/*--------------------------------*- C++ -*----------------------------------*\
| =========                 |                                                 |
| \\      /  F ield         | OpenFOAM: The Open Source CFD Toolbox           |
|  \\    /   O peration     | Version:  5.x                                   |
|   \\  /    A nd           | Web:      www.OpenFOAM.org                      |
|    \\/     M anipulation  |                                                 |
\*---------------------------------------------------------------------------*/
FoamFile
{
    version     2.0;
    format      ascii;
    class       volVectorField;
    location    "700";
    object      U;
}
// * * * * * * * * * * * * * * * * * * * * * * * * * * * * * * * * * * * * * //

dimensions      [0 1 -1 0 0 0 0];

internalField   nonuniform List<vector> 
90
(
(0.10376 -0.0543213 -5.35045)
(0.108878 -0.055923 -5.33663)
(0.113386 -0.0544862 -5.32451)
(0.117966 -0.0539497 -5.31036)
(0.122274 -0.0525358 -5.29575)
(0.126473 -0.0510271 -5.27957)
(0.130591 -0.0490968 -5.26245)
(0.134659 -0.0468799 -5.24398)
(0.138712 -0.0443589 -5.22435)
(0.142717 -0.0415834 -5.20342)
(0.146662 -0.0385926 -5.18125)
(0.150508 -0.0354205 -5.15782)
(0.154238 -0.0320964 -5.1332)
(0.15783 -0.0286515 -5.10742)
(0.161273 -0.0251145 -5.08054)
(0.164554 -0.0215162 -5.05265)
(0.167666 -0.0178888 -5.02383)
(0.170599 -0.0142652 -4.99417)
(0.17335 -0.0106796 -4.96378)
(0.175911 -0.00716859 -4.93277)
(0.178276 -0.00377357 -4.90126)
(0.180437 -0.000538305 -4.86933)
(0.1824 0.00250596 -4.83716)
(0.184184 0.00535611 -4.80488)
(0.185807 0.00802537 -4.77261)
(0.187287 0.010528 -4.74046)
(0.188636 0.0128762 -4.70853)
(0.189867 0.0150796 -4.67691)
(0.190991 0.0171454 -4.64569)
(0.192016 0.0190786 -4.61493)
(0.192949 0.0208826 -4.5847)
(0.1938 0.0225598 -4.55506)
(0.194575 0.0241119 -4.52605)
(0.195283 0.0255404 -4.49772)
(0.195931 0.0268472 -4.47011)
(0.196528 0.0280346 -4.44324)
(0.197084 0.029106 -4.41714)
(0.197606 0.0300655 -4.39183)
(0.198108 0.0309191 -4.36732)
(0.198599 0.0316746 -4.34361)
(0.199093 0.0323407 -4.32071)
(0.199601 0.0329274 -4.29862)
(0.200135 0.0334456 -4.27731)
(0.200706 0.0339069 -4.25678)
(0.201326 0.0343233 -4.23702)
(0.202004 0.034707 -4.21799)
(0.20275 0.03507 -4.19967)
(0.203572 0.0354239 -4.18203)
(0.204477 0.0357797 -4.16506)
(0.20547 0.0361475 -4.1487)
(0.206557 0.0365364 -4.13295)
(0.207741 0.0369545 -4.11776)
(0.209024 0.0374087 -4.10311)
(0.210407 0.037905 -4.08898)
(0.211889 0.0384483 -4.07533)
(0.21347 0.0390427 -4.06215)
(0.21515 0.0396918 -4.04941)
(0.216924 0.0403983 -4.0371)
(0.218793 0.041165 -4.02518)
(0.220753 0.0419942 -4.01366)
(0.222803 0.0428885 -4.00251)
(0.224941 0.0438506 -3.99173)
(0.227166 0.0448836 -3.9813)
(0.229479 0.0459914 -3.97121)
(0.23188 0.0471786 -3.96145)
(0.234372 0.0484507 -3.95201)
(0.236958 0.0498145 -3.94289)
(0.239642 0.0512779 -3.93408)
(0.242434 0.0528513 -3.92555)
(0.245352 0.0545503 -3.91727)
(0.248418 0.0563924 -3.9093)
(0.251644 0.0583928 -3.90162)
(0.25503 0.0605602 -3.89408)
(0.258544 0.0628862 -3.88672)
(0.262167 0.0653705 -3.87951)
(0.265883 0.0680148 -3.87243)
(0.269678 0.0708236 -3.86548)
(0.273535 0.0738031 -3.85864)
(0.277438 0.0769611 -3.85191)
(0.281365 0.0803071 -3.8453)
(0.285291 0.0838518 -3.83879)
(0.289177 0.0876086 -3.8324)
(0.292966 0.0915873 -3.82616)
(0.296594 0.095799 -3.82002)
(0.300007 0.100249 -3.8139)
(0.303224 0.104904 -3.80796)
(0.305838 0.109975 -3.80274)
(0.306969 0.115373 -3.79925)
(0.306611 0.121005 -3.79527)
(0.307427 0.124248 -3.78532)
)
;

boundaryField
{
    inlet
    {
        type            zeroGradient;
    }
    outlet
    {
        type            zeroGradient;
    }
    repeat_boundary
    {
        type            slip;
    }
    procBoundary3to1
    {
        type            processor;
        value           nonuniform List<vector> 
90
(
(0.062962 -0.0596371 -4.38407)
(0.0650589 -0.0610817 -4.35089)
(0.0679756 -0.0581248 -4.32786)
(0.0704196 -0.056406 -4.30097)
(0.072827 -0.0537869 -4.2759)
(0.0755913 -0.0510242 -4.25019)
(0.0785842 -0.0478391 -4.22485)
(0.0822712 -0.0443706 -4.19925)
(0.0865154 -0.0406015 -4.17368)
(0.0909203 -0.0366207 -4.14772)
(0.0952317 -0.0324841 -4.12172)
(0.0990934 -0.0282368 -4.0956)
(0.102669 -0.0239148 -4.06958)
(0.105973 -0.0195561 -4.04374)
(0.109063 -0.0151927 -4.01818)
(0.111967 -0.0108577 -3.99297)
(0.114715 -0.00658419 -3.96817)
(0.117328 -0.00240515 -3.94382)
(0.119824 0.00164538 -3.91996)
(0.122221 0.00553083 -3.8966)
(0.124537 0.00920976 -3.87376)
(0.126788 0.0126388 -3.85148)
(0.128976 0.0157945 -3.82971)
(0.131089 0.0186833 -3.80839)
(0.133115 0.0213234 -3.78754)
(0.135048 0.023731 -3.76713)
(0.136882 0.0259196 -3.74714)
(0.138617 0.0279007 -3.72758)
(0.140253 0.0296837 -3.70842)
(0.141794 0.0312768 -3.68966)
(0.143244 0.0326875 -3.67129)
(0.144609 0.0339225 -3.65329)
(0.145898 0.0349881 -3.63564)
(0.147118 0.035891 -3.61833)
(0.148278 0.0366374 -3.60135)
(0.149387 0.0372341 -3.58466)
(0.150455 0.037688 -3.56825)
(0.15149 0.0380066 -3.5521)
(0.1525 0.0381986 -3.53617)
(0.153495 0.0382731 -3.52045)
(0.154481 0.0382395 -3.5049)
(0.155464 0.0381076 -3.4895)
(0.156452 0.0378874 -3.47423)
(0.157448 0.0375886 -3.45907)
(0.158457 0.0372207 -3.44398)
(0.159481 0.0367931 -3.42895)
(0.160525 0.036314 -3.41397)
(0.16159 0.0357914 -3.39902)
(0.162677 0.035232 -3.38408)
(0.163788 0.0346416 -3.36914)
(0.164922 0.0340248 -3.35419)
(0.166081 0.0333851 -3.33922)
(0.167264 0.0327248 -3.32423)
(0.16847 0.0320454 -3.30921)
(0.1697 0.0313473 -3.29416)
(0.170952 0.0306299 -3.27907)
(0.172227 0.0298923 -3.26394)
(0.173521 0.0291327 -3.24877)
(0.174836 0.0283492 -3.23355)
(0.176169 0.0275396 -3.21828)
(0.17752 0.0267017 -3.20297)
(0.178888 0.0258335 -3.18761)
(0.18027 0.0249331 -3.17219)
(0.181666 0.0239995 -3.15673)
(0.183075 0.0230323 -3.14121)
(0.184496 0.0220322 -3.12565)
(0.185927 0.0210009 -3.11003)
(0.187367 0.0199415 -3.09437)
(0.188815 0.0188597 -3.07865)
(0.19027 0.0177675 -3.0629)
(0.19173 0.0166807 -3.04711)
(0.193193 0.0156035 -3.0313)
(0.194656 0.0145203 -3.01549)
(0.196114 0.0134114 -2.99969)
(0.197563 0.0122623 -2.98391)
(0.198999 0.0110608 -2.96817)
(0.200418 0.00979645 -2.95248)
(0.201819 0.00846011 -2.93684)
(0.203201 0.00704313 -2.92126)
(0.204565 0.0055373 -2.90575)
(0.205912 0.00393451 -2.89034)
(0.207249 0.00222719 -2.87503)
(0.208585 0.000405191 -2.85982)
(0.209932 -0.00155526 -2.84461)
(0.211317 -0.00367891 -2.82932)
(0.212831 -0.00600747 -2.81446)
(0.214332 -0.00851594 -2.80088)
(0.215913 -0.0109661 -2.78894)
(0.217689 -0.0137283 -2.77239)
(0.218871 -0.0161398 -2.74796)
)
;
    }
    procBoundary3to2
    {
        type            processor;
        value           nonuniform List<vector> 
90
(
(0.124474 -0.0460636 -6.42822)
(0.13008 -0.0479938 -6.46592)
(0.134109 -0.0510882 -6.50733)
(0.138471 -0.053424 -6.54457)
(0.14216 -0.056196 -6.58546)
(0.145631 -0.0585123 -6.62616)
(0.148694 -0.0609079 -6.66902)
(0.151433 -0.0628196 -6.71235)
(0.153762 -0.0644371 -6.75686)
(0.155647 -0.0660918 -6.80168)
(0.157018 -0.0679533 -6.84712)
(0.157831 -0.0701796 -6.89285)
(0.158026 -0.0726547 -6.93903)
(0.157562 -0.0753804 -6.98553)
(0.156407 -0.0783048 -7.03239)
(0.154532 -0.0814053 -7.07953)
(0.15192 -0.0846569 -7.1269)
(0.14856 -0.0880371 -7.17445)
(0.144453 -0.0915262 -7.22209)
(0.139604 -0.0951037 -7.26978)
(0.134026 -0.0987494 -7.31743)
(0.127737 -0.102442 -7.36498)
(0.120767 -0.106157 -7.41235)
(0.113163 -0.109869 -7.45948)
(0.104983 -0.113552 -7.50628)
(0.0962906 -0.117179 -7.55271)
(0.0871507 -0.120724 -7.5987)
(0.0776299 -0.124161 -7.6442)
(0.0677937 -0.127472 -7.68916)
(0.0577061 -0.130637 -7.73354)
(0.0474282 -0.133645 -7.77729)
(0.0370185 -0.136487 -7.82037)
(0.0265323 -0.13916 -7.86276)
(0.0160213 -0.141664 -7.90444)
(0.00553404 -0.144008 -7.94537)
(-0.00488457 -0.1462 -7.98555)
(-0.0151932 -0.148256 -8.02498)
(-0.0253536 -0.150194 -8.06364)
(-0.0353309 -0.152032 -8.10155)
(-0.0450941 -0.153792 -8.13871)
(-0.0546167 -0.155497 -8.17515)
(-0.0638778 -0.157169 -8.21088)
(-0.0728617 -0.158828 -8.24595)
(-0.0815582 -0.160493 -8.28038)
(-0.0899633 -0.16218 -8.31422)
(-0.0980783 -0.163905 -8.3475)
(-0.10591 -0.165678 -8.38027)
(-0.11347 -0.167507 -8.41258)
(-0.120775 -0.169398 -8.44447)
(-0.127844 -0.171355 -8.47598)
(-0.134699 -0.173376 -8.50717)
(-0.141363 -0.175463 -8.53806)
(-0.147861 -0.177611 -8.5687)
(-0.154217 -0.179816 -8.59913)
(-0.160454 -0.182075 -8.62937)
(-0.166595 -0.184382 -8.65946)
(-0.17266 -0.186733 -8.68942)
(-0.178667 -0.189124 -8.71928)
(-0.184633 -0.191551 -8.74906)
(-0.190574 -0.19401 -8.77877)
(-0.196501 -0.196499 -8.80843)
(-0.202427 -0.199017 -8.83805)
(-0.208362 -0.201561 -8.86765)
(-0.214313 -0.20413 -8.89724)
(-0.220289 -0.206725 -8.92682)
(-0.226294 -0.209346 -8.95641)
(-0.232332 -0.211991 -8.986)
(-0.238409 -0.214662 -9.01562)
(-0.244524 -0.217359 -9.04527)
(-0.250676 -0.220086 -9.07497)
(-0.256861 -0.222845 -9.10468)
(-0.263093 -0.225637 -9.13445)
(-0.269396 -0.228461 -9.16433)
(-0.275781 -0.231311 -9.19432)
(-0.28226 -0.23418 -9.22441)
(-0.288843 -0.237067 -9.25462)
(-0.295538 -0.239966 -9.28494)
(-0.302355 -0.242872 -9.31536)
(-0.309304 -0.245778 -9.34589)
(-0.316397 -0.248675 -9.3765)
(-0.323648 -0.251552 -9.40717)
(-0.331074 -0.254391 -9.43786)
(-0.338702 -0.257167 -9.46855)
(-0.34656 -0.259857 -9.49927)
(-0.354667 -0.262448 -9.53011)
(-0.363026 -0.264925 -9.56038)
(-0.371814 -0.267167 -9.58887)
(-0.381397 -0.268671 -9.61683)
(-0.391675 -0.269651 -9.65308)
(-0.396889 -0.270991 -9.68051)
)
;
    }
}


// ************************************************************************* //
