FoamFile
{version 2.0; format ascii;class Cloud<passiveParticle>; location 0;object  positions;}
41
(
( 243.394 142.863 99.9193 ) 0 
( 294.286 336.208 99.9256 ) 0 
( 101.779 390.386 99.8569 ) 0 
( 436.396 194.896 99.7812 ) 0 
( 50.9248 197.083 99.8347 ) 0 
( 373.671 26.8355 197.539 ) 0 
( 230.806 482.718 221.397 ) 0 
( 171.369 268.776 242.492 ) 0 
( 359.805 215.696 283.179 ) 0 
( 63.4037 103.862 276.121 ) 0 
( 404.383 483.874 320.593 ) 0 
( 43.6587 471.51 290.928 ) 0 
( 425.842 55.3563 388.404 ) 0 
( 206.452 397.086 400.26 ) 0 
( 234.203 111.574 398.724 ) 0 
( 83.2899 240.934 420.26 ) 0 
( 388.677 328.655 445.549 ) 0 
( 132.518 98.8507 570.356 ) 0 
( 28.3589 427.401 485.797 ) 0 
( 329.862 51.5499 563.703 ) 0 
( 228.174 273.784 556.092 ) 0 
( 413.083 225.836 615.126 ) 0 
( 13.6376 260.748 606.578 ) 0 
( 255.744 156.329 716.979 ) 0 
( 136.427 422.102 653.918 ) 0 
( 335.231 403.297 664.391 ) 0 
( 496.804 334.08 760.806 ) 0 
( 251.193 10.1742 853.337 ) 0 
( 60.8791 139.213 758.108 ) 0 
( 401.945 182.784 850.796 ) 0 
( 183.602 314.514 815.732 ) 0 
( 147.86 159.522 936.96 ) 0 
( 349.385 438.251 860.763 ) 0 
( 293.267 289.26 981.665 ) 0 
( 64.4807 431.789 925.456 ) 0 
( 197.16 2.44037 1050.46 ) 0 
( 410.823 448.624 1052.03 ) 0 
( 347.824 128.623 1087.5 ) 0 
( 78.4053 292.961 1068.7 ) 0 
( 247.048 308.322 1175.28 ) 0 
( 211.627 465.408 1056.57 ) 0 
)
