/*--------------------------------*- C++ -*----------------------------------*\
| =========                 |                                                 |
| \\      /  F ield         | OpenFOAM: The Open Source CFD Toolbox           |
|  \\    /   O peration     | Version:  5.x                                   |
|   \\  /    A nd           | Web:      www.OpenFOAM.org                      |
|    \\/     M anipulation  |                                                 |
\*---------------------------------------------------------------------------*/
FoamFile
{
    version     2.0;
    format      ascii;
    class       volVectorField;
    location    "70000";
    object      stored_U;
}
// * * * * * * * * * * * * * * * * * * * * * * * * * * * * * * * * * * * * * //

dimensions      [0 1 -1 0 0 0 0];

internalField   nonuniform List<vector> 
2250
(
(-2.03255e-11 2.70932e-11 -0.001)
(-2.55398e-11 3.45058e-11 -0.001)
(-1.71267e-11 4.10516e-11 -0.001)
(-1.58097e-11 4.53624e-11 -0.001)
(-4.23418e-11 4.22371e-11 -0.001)
(-1.29931e-11 1.08833e-10 -0.001)
(-1.16457e-11 1.22348e-10 -0.001)
(-6.24741e-12 1.30323e-10 -0.001)
(-1.47575e-11 1.32296e-10 -0.001)
(-4.81722e-11 1.21548e-10 -0.001)
(-7.03631e-12 2.04814e-10 -0.001)
(-4.29609e-12 2.17153e-10 -0.001)
(-7.20859e-12 2.16412e-10 -0.001)
(-2.47098e-11 2.05938e-10 -0.001)
(-6.20329e-11 1.76372e-10 -0.001)
(-1.05564e-12 2.82266e-10 -0.001)
(-4.73063e-13 2.9316e-10 -0.001)
(-1.74867e-11 2.84835e-10 -0.001)
(-5.48132e-11 2.57487e-10 -0.001)
(-8.41563e-11 1.99126e-10 -0.001)
(3.18439e-12 2.92264e-10 -0.001)
(-2.39589e-12 2.9968e-10 -0.001)
(-4.29085e-11 2.79747e-10 -0.001)
(-1.10429e-10 2.53707e-10 -0.001)
(-1.40578e-10 2.05099e-10 -0.001)
(-3.94123e-11 9.09354e-11 -0.001)
(-5.22305e-11 1.08725e-10 -0.001)
(-5.55758e-11 1.18503e-10 -0.001)
(-9.81764e-11 1.20739e-10 -0.001)
(-1.59272e-10 1.12568e-10 -0.001)
(-2.18409e-11 3.1812e-10 -0.001)
(-2.48585e-11 3.462e-10 -0.001)
(-4.35933e-11 3.55924e-10 -0.001)
(-1.04578e-10 3.53278e-10 -0.001)
(-1.75305e-10 3.43277e-10 -0.001)
(-1.19279e-11 5.52933e-10 -0.001)
(-1.5069e-11 5.70375e-10 -0.001)
(-4.86232e-11 5.63797e-10 -0.001)
(-1.11232e-10 5.50628e-10 -0.001)
(-1.89953e-10 5.31479e-10 -0.001)
(-5.42583e-12 7.31875e-10 -0.001)
(-1.50863e-11 7.39589e-10 -0.001)
(-6.34056e-11 7.20118e-10 -0.001)
(-1.3693e-10 6.93096e-10 -0.001)
(-2.11831e-10 6.49106e-10 -0.001)
(-5.77637e-12 7.70906e-10 -0.001)
(-2.84087e-11 7.75847e-10 -0.001)
(-9.51829e-11 7.31974e-10 -0.001)
(-1.82243e-10 6.90856e-10 -0.001)
(-2.7773e-10 6.20709e-10 -0.001)
(-3.84763e-11 1.85447e-10 -0.001)
(-8.4361e-11 1.98309e-10 -0.001)
(-1.62536e-10 1.99598e-10 -0.001)
(-2.90888e-10 1.94961e-10 -0.001)
(-3.54917e-10 1.99898e-10 -0.001)
(-2.59987e-11 5.58341e-10 -0.001)
(-7.08653e-11 5.74435e-10 -0.001)
(-1.66398e-10 5.71446e-10 -0.001)
(-2.91497e-10 5.7109e-10 -0.001)
(-3.6002e-10 5.98539e-10 -0.001)
(-2.33699e-11 8.79089e-10 -0.001)
(-7.25399e-11 8.80062e-10 -0.001)
(-1.66361e-10 8.73327e-10 -0.001)
(-2.64617e-10 8.86488e-10 -0.001)
(-3.42668e-10 9.43709e-10 -0.001)
(-2.65668e-11 1.11292e-09 -0.001)
(-7.83421e-11 1.10654e-09 -0.001)
(-1.60098e-10 1.09892e-09 -0.001)
(-2.21213e-10 1.1273e-09 -0.001)
(-3.1679e-10 1.22881e-09 -0.001)
(-3.1849e-11 1.21802e-09 -0.001)
(-8.8775e-11 1.21717e-09 -0.001)
(-1.45769e-10 1.18138e-09 -0.001)
(-1.34762e-10 1.17189e-09 -0.001)
(-3.275e-10 1.11124e-09 -0.001)
(-4.13181e-11 2.92743e-10 -0.001)
(-1.60686e-10 2.89307e-10 -0.001)
(-3.42529e-10 2.81604e-10 -0.001)
(-5.19952e-10 2.77136e-10 -0.001)
(-5.71495e-10 2.89933e-10 -0.001)
(-4.53619e-11 8.10288e-10 -0.001)
(-1.72868e-10 7.97741e-10 -0.001)
(-3.55561e-10 7.90152e-10 -0.001)
(-5.12916e-10 7.99268e-10 -0.001)
(-5.6241e-10 8.45247e-10 -0.001)
(-5.52203e-11 1.20374e-09 -0.001)
(-1.82686e-10 1.18769e-09 -0.001)
(-3.41844e-10 1.19672e-09 -0.001)
(-4.66045e-10 1.23288e-09 -0.001)
(-5.22327e-10 1.32623e-09 -0.001)
(-6.34554e-11 1.50575e-09 -0.001)
(-1.82204e-10 1.4979e-09 -0.001)
(-3.10541e-10 1.51568e-09 -0.001)
(-3.83431e-10 1.5762e-09 -0.001)
(-4.63469e-10 1.77726e-09 -0.001)
(-6.56502e-11 1.7073e-09 -0.001)
(-1.75624e-10 1.71019e-09 -0.001)
(-2.63685e-10 1.69724e-09 -0.001)
(-2.04397e-10 1.71936e-09 -0.001)
(-4.82975e-10 1.61689e-09 -0.001)
(-7.08222e-11 4.0566e-10 -0.001)
(-2.87537e-10 3.87287e-10 -0.001)
(-5.54526e-10 3.77573e-10 -0.001)
(-7.40721e-10 3.75269e-10 -0.001)
(-7.83863e-10 3.77993e-10 -0.001)
(-9.00257e-11 1.09848e-09 -0.001)
(-3.17058e-10 1.06776e-09 -0.001)
(-5.67663e-10 1.06505e-09 -0.001)
(-7.41736e-10 1.07829e-09 -0.001)
(-7.78113e-10 1.1034e-09 -0.001)
(-1.0343e-10 1.62724e-09 -0.001)
(-3.23581e-10 1.61425e-09 -0.001)
(-5.45182e-10 1.64031e-09 -0.001)
(-7.03787e-10 1.67812e-09 -0.001)
(-7.40614e-10 1.74565e-09 -0.001)
(-1.05871e-10 2.06833e-09 -0.001)
(-3.07142e-10 2.07442e-09 -0.001)
(-5.04016e-10 2.11424e-09 -0.001)
(-6.36464e-10 2.16012e-09 -0.001)
(-6.84618e-10 2.33524e-09 -0.001)
(-1.00874e-10 2.37116e-09 -0.000999999)
(-2.81493e-10 2.38791e-09 -0.001)
(-4.59629e-10 2.40212e-09 -0.001)
(-4.82831e-10 2.43371e-09 -0.001)
(-7.30099e-10 2.31357e-09 -0.001)
(-1.32254e-10 5.33356e-10 -0.001)
(-4.53955e-10 5.12619e-10 -0.001)
(-7.7267e-10 5.09362e-10 -0.001)
(-9.65152e-10 5.1249e-10 -0.001)
(-1.01854e-09 5.1064e-10 -0.001)
(-1.54154e-10 1.48053e-09 -0.001)
(-4.79835e-10 1.45717e-09 -0.001)
(-7.74175e-10 1.47011e-09 -0.001)
(-9.65556e-10 1.48962e-09 -0.001)
(-1.01474e-09 1.4988e-09 -0.001)
(-1.58397e-10 2.25967e-09 -0.001)
(-4.68033e-10 2.27158e-09 -0.001)
(-7.41788e-10 2.31656e-09 -0.001)
(-9.38237e-10 2.34777e-09 -0.001)
(-9.8561e-10 2.37329e-09 -0.001)
(-1.46401e-10 2.91232e-09 -0.001)
(-4.27382e-10 2.95049e-09 -0.001)
(-6.98325e-10 3.00938e-09 -0.001)
(-9.08946e-10 3.02166e-09 -0.001)
(-9.54662e-10 3.09977e-09 -0.001)
(-1.25373e-10 3.30619e-09 -0.000999999)
(-3.76425e-10 3.34547e-09 -0.000999999)
(-6.70927e-10 3.38772e-09 -0.001)
(-8.47862e-10 3.42543e-09 -0.001)
(-9.86316e-10 3.34172e-09 -0.001)
(-2.13605e-10 7.04255e-10 -0.001)
(-6.40453e-10 6.96319e-10 -0.001)
(-9.96605e-10 7.04739e-10 -0.001)
(-1.21603e-09 7.16615e-10 -0.001)
(-1.30691e-09 7.21353e-10 -0.001)
(-2.23151e-10 2.02731e-09 -0.001)
(-6.42412e-10 2.03231e-09 -0.001)
(-9.78049e-10 2.06587e-09 -0.001)
(-1.20148e-09 2.0954e-09 -0.001)
(-1.29995e-09 2.10336e-09 -0.001)
(-2.12652e-10 3.1766e-09 -0.001)
(-6.06968e-10 3.21828e-09 -0.001)
(-9.35581e-10 3.27587e-09 -0.001)
(-1.1808e-09 3.29856e-09 -0.001)
(-1.28267e-09 3.28732e-09 -0.001)
(-1.87375e-10 4.08977e-09 -0.001)
(-5.4936e-10 4.15673e-09 -0.001)
(-8.98241e-10 4.21644e-09 -0.001)
(-1.1902e-09 4.19216e-09 -0.001)
(-1.28559e-09 4.15092e-09 -0.001)
(-1.53012e-10 4.57771e-09 -0.000999999)
(-4.87982e-10 4.63159e-09 -0.000999999)
(-9.00568e-10 4.68073e-09 -0.001)
(-1.24633e-09 4.70471e-09 -0.001)
(-1.27059e-09 4.66246e-09 -0.001)
(-2.95379e-10 9.58385e-10 -0.001)
(-8.37666e-10 9.65938e-10 -0.001)
(-1.26516e-09 9.81937e-10 -0.00100001)
(-1.56319e-09 9.96132e-10 -0.00100001)
(-1.71204e-09 1.00489e-09 -0.00100001)
(-2.90023e-10 2.80622e-09 -0.001)
(-8.17328e-10 2.83583e-09 -0.001)
(-1.23722e-09 2.87719e-09 -0.001)
(-1.54285e-09 2.90704e-09 -0.001)
(-1.70669e-09 2.92251e-09 -0.00100001)
(-2.71407e-10 4.42239e-09 -0.001)
(-7.73611e-10 4.47357e-09 -0.001)
(-1.19662e-09 4.52213e-09 -0.001)
(-1.52077e-09 4.5377e-09 -0.001)
(-1.69852e-09 4.52463e-09 -0.001)
(-2.46988e-10 5.63788e-09 -0.001)
(-7.262e-10 5.69824e-09 -0.001)
(-1.17372e-09 5.73446e-09 -0.001)
(-1.54059e-09 5.70927e-09 -0.001)
(-1.71644e-09 5.61745e-09 -0.001)
(-2.21225e-10 6.25978e-09 -0.000999999)
(-6.87777e-10 6.30055e-09 -0.001)
(-1.18618e-09 6.32549e-09 -0.001)
(-1.63781e-09 6.33124e-09 -0.001)
(-1.67474e-09 6.33611e-09 -0.001)
(-3.76032e-10 1.32752e-09 -0.00100001)
(-1.07431e-09 1.34012e-09 -0.00100001)
(-1.6511e-09 1.35156e-09 -0.00100001)
(-2.09042e-09 1.35913e-09 -0.00100001)
(-2.30273e-09 1.37748e-09 -0.00100001)
(-3.66414e-10 3.87334e-09 -0.00100001)
(-1.05461e-09 3.90363e-09 -0.00100001)
(-1.63513e-09 3.93128e-09 -0.00100001)
(-2.06804e-09 3.95397e-09 -0.00100001)
(-2.28977e-09 3.99634e-09 -0.00100001)
(-3.53433e-10 6.05599e-09 -0.001)
(-1.02577e-09 6.08914e-09 -0.001)
(-1.6043e-09 6.11585e-09 -0.001)
(-2.02927e-09 6.13751e-09 -0.00100001)
(-2.27395e-09 6.165e-09 -0.00100001)
(-3.44331e-10 7.64824e-09 -0.001)
(-1.00653e-09 7.67549e-09 -0.001)
(-1.58764e-09 7.69584e-09 -0.001)
(-2.01923e-09 7.71539e-09 -0.001)
(-2.26439e-09 7.70924e-09 -0.001)
(-3.40145e-10 8.47934e-09 -0.000999999)
(-9.92947e-10 8.49786e-09 -0.000999999)
(-1.56521e-09 8.50579e-09 -0.001)
(-2.01589e-09 8.52932e-09 -0.001)
(-2.22752e-09 8.55087e-09 -0.001)
(-4.79147e-10 1.83153e-09 -0.00100001)
(-1.41285e-09 1.83395e-09 -0.00100001)
(-2.2246e-09 1.83319e-09 -0.00100001)
(-2.82526e-09 1.83425e-09 -0.00100001)
(-3.10892e-09 1.85786e-09 -0.00100001)
(-4.80781e-10 5.29544e-09 -0.00100001)
(-1.41716e-09 5.3032e-09 -0.00100001)
(-2.2285e-09 5.30768e-09 -0.00100001)
(-2.80553e-09 5.32207e-09 -0.00100001)
(-3.08847e-09 5.37072e-09 -0.00100001)
(-4.8175e-10 8.21356e-09 -0.00100001)
(-1.41336e-09 8.22204e-09 -0.00100001)
(-2.21057e-09 8.23106e-09 -0.00100001)
(-2.76763e-09 8.25515e-09 -0.00100001)
(-3.06833e-09 8.2918e-09 -0.00100001)
(-4.87284e-10 1.0343e-08 -0.001)
(-1.41566e-09 1.03509e-08 -0.001)
(-2.19659e-09 1.03671e-08 -0.001)
(-2.74524e-09 1.04036e-08 -0.001)
(-3.0287e-09 1.04768e-08 -0.001)
(-4.92689e-10 1.14768e-08 -0.000999999)
(-1.40921e-09 1.14945e-08 -0.000999999)
(-2.15903e-09 1.15059e-08 -0.001)
(-2.65796e-09 1.15551e-08 -0.001)
(-3.00458e-09 1.15704e-08 -0.001)
(-6.45728e-10 2.49038e-09 -0.00100001)
(-1.92469e-09 2.47786e-09 -0.00100001)
(-3.0383e-09 2.46725e-09 -0.00100001)
(-3.8184e-09 2.46423e-09 -0.00100001)
(-4.19394e-09 2.46959e-09 -0.00100002)
(-6.63749e-10 7.18186e-09 -0.00100001)
(-1.95601e-09 7.16695e-09 -0.00100001)
(-3.05773e-09 7.15373e-09 -0.00100001)
(-3.82295e-09 7.15526e-09 -0.00100001)
(-4.19142e-09 7.16393e-09 -0.00100001)
(-6.74628e-10 1.11332e-08 -0.00100001)
(-1.97014e-09 1.11333e-08 -0.00100001)
(-3.05667e-09 1.11272e-08 -0.00100001)
(-3.81566e-09 1.11328e-08 -0.00100001)
(-4.18388e-09 1.11313e-08 -0.00100001)
(-6.83895e-10 1.4057e-08 -0.001)
(-1.98363e-09 1.40597e-08 -0.001)
(-3.05993e-09 1.4045e-08 -0.001)
(-3.81945e-09 1.40418e-08 -0.00100001)
(-4.14241e-09 1.40913e-08 -0.00100001)
(-6.97313e-10 1.55956e-08 -0.000999998)
(-2.00901e-09 1.56178e-08 -0.000999999)
(-3.07603e-09 1.56158e-08 -0.001)
(-3.76944e-09 1.56618e-08 -0.001)
(-4.0954e-09 1.57018e-08 -0.001)
(-9.05942e-10 3.35432e-09 -0.00100002)
(-2.6564e-09 3.33856e-09 -0.00100002)
(-4.13515e-09 3.32883e-09 -0.00100002)
(-5.16654e-09 3.32785e-09 -0.00100002)
(-5.67075e-09 3.32425e-09 -0.00100002)
(-9.29164e-10 9.72011e-09 -0.00100001)
(-2.69298e-09 9.70739e-09 -0.00100001)
(-4.15375e-09 9.69288e-09 -0.00100002)
(-5.18051e-09 9.69012e-09 -0.00100002)
(-5.68302e-09 9.68291e-09 -0.00100002)
(-9.37638e-10 1.51363e-08 -0.00100001)
(-2.70713e-09 1.51477e-08 -0.00100001)
(-4.16156e-09 1.51292e-08 -0.00100001)
(-5.18667e-09 1.51216e-08 -0.00100001)
(-5.68299e-09 1.51163e-08 -0.00100001)
(-9.45147e-10 1.91487e-08 -0.001)
(-2.72934e-09 1.9141e-08 -0.001)
(-4.18217e-09 1.90889e-08 -0.00100001)
(-5.19425e-09 1.90753e-08 -0.00100001)
(-5.65014e-09 1.90981e-08 -0.00100001)
(-9.79568e-10 2.12225e-08 -0.000999998)
(-2.80335e-09 2.12313e-08 -0.000999998)
(-4.22929e-09 2.12028e-08 -0.000999999)
(-5.17755e-09 2.12329e-08 -0.001)
(-5.56919e-09 2.13249e-08 -0.001)
(-1.25983e-09 4.52716e-09 -0.00100002)
(-3.61896e-09 4.52924e-09 -0.00100002)
(-5.55668e-09 4.53248e-09 -0.00100002)
(-6.9312e-09 4.54118e-09 -0.00100003)
(-7.64244e-09 4.54797e-09 -0.00100003)
(-1.26788e-09 1.31958e-08 -0.00100002)
(-3.62854e-09 1.32161e-08 -0.00100002)
(-5.55526e-09 1.32149e-08 -0.00100002)
(-6.92832e-09 1.32179e-08 -0.00100002)
(-7.6535e-09 1.32215e-08 -0.00100002)
(-1.26539e-09 2.06193e-08 -0.00100001)
(-3.63175e-09 2.06509e-08 -0.00100001)
(-5.56715e-09 2.0627e-08 -0.00100002)
(-6.93825e-09 2.06143e-08 -0.00100002)
(-7.66586e-09 2.06104e-08 -0.00100002)
(-1.27352e-09 2.60479e-08 -0.00100001)
(-3.66066e-09 2.60448e-08 -0.00100001)
(-5.59487e-09 2.59977e-08 -0.00100001)
(-6.94606e-09 2.60027e-08 -0.00100001)
(-7.67275e-09 2.6005e-08 -0.00100001)
(-1.31514e-09 2.88481e-08 -0.000999997)
(-3.73148e-09 2.88538e-08 -0.000999998)
(-5.61203e-09 2.88212e-08 -0.000999999)
(-6.9311e-09 2.88268e-08 -0.001)
(-7.65209e-09 2.88654e-08 -0.001)
(-1.69722e-09 6.15918e-09 -0.00100003)
(-4.84409e-09 6.18772e-09 -0.00100003)
(-7.42401e-09 6.19963e-09 -0.00100003)
(-9.28571e-09 6.20514e-09 -0.00100003)
(-1.03108e-08 6.1934e-09 -0.00100004)
(-1.68241e-09 1.79786e-08 -0.00100003)
(-4.82361e-09 1.80347e-08 -0.00100003)
(-7.42063e-09 1.80353e-08 -0.00100003)
(-9.30887e-09 1.80204e-08 -0.00100003)
(-1.03501e-08 1.79829e-08 -0.00100003)
(-1.67641e-09 2.80797e-08 -0.00100002)
(-4.83062e-09 2.81239e-08 -0.00100002)
(-7.45476e-09 2.80918e-08 -0.00100002)
(-9.35652e-09 2.80513e-08 -0.00100002)
(-1.04002e-08 2.79967e-08 -0.00100003)
(-1.68893e-09 3.53929e-08 -0.00100001)
(-4.86567e-09 3.54222e-08 -0.00100001)
(-7.49737e-09 3.53975e-08 -0.00100001)
(-9.40554e-09 3.53717e-08 -0.00100001)
(-1.04786e-08 3.52986e-08 -0.00100002)
(-1.71061e-09 3.91983e-08 -0.000999996)
(-4.89329e-09 3.92332e-08 -0.000999997)
(-7.50902e-09 3.92061e-08 -0.000999999)
(-9.45563e-09 3.91517e-08 -0.001)
(-1.061e-08 3.90381e-08 -0.001)
(-2.25144e-09 8.41364e-09 -0.00100004)
(-6.47584e-09 8.44952e-09 -0.00100004)
(-1.00108e-08 8.45121e-09 -0.00100004)
(-1.26138e-08 8.43637e-09 -0.00100005)
(-1.40321e-08 8.39979e-09 -0.00100005)
(-2.23419e-09 2.45006e-08 -0.00100003)
(-6.4653e-09 2.45596e-08 -0.00100004)
(-1.00429e-08 2.45412e-08 -0.00100004)
(-1.26882e-08 2.44951e-08 -0.00100004)
(-1.41077e-08 2.44232e-08 -0.00100005)
(-2.24035e-09 3.81746e-08 -0.00100002)
(-6.494e-09 3.82205e-08 -0.00100003)
(-1.00976e-08 3.81811e-08 -0.00100003)
(-1.27567e-08 3.81172e-08 -0.00100003)
(-1.41764e-08 3.80482e-08 -0.00100004)
(-2.25706e-09 4.80717e-08 -0.00100001)
(-6.53229e-09 4.81388e-08 -0.00100001)
(-1.01519e-08 4.81144e-08 -0.00100001)
(-1.28232e-08 4.80468e-08 -0.00100002)
(-1.42822e-08 4.80049e-08 -0.00100002)
(-2.25945e-09 5.32783e-08 -0.000999994)
(-6.54257e-09 5.33509e-08 -0.000999996)
(-1.01948e-08 5.3309e-08 -0.000999998)
(-1.28664e-08 5.32044e-08 -0.001)
(-1.44622e-08 5.30347e-08 -0.00100001)
(-3.01994e-09 1.14666e-08 -0.00100005)
(-8.7614e-09 1.14881e-08 -0.00100006)
(-1.36401e-08 1.14799e-08 -0.00100006)
(-1.72474e-08 1.14616e-08 -0.00100006)
(-1.91382e-08 1.14472e-08 -0.00100007)
(-3.02368e-09 3.3318e-08 -0.00100005)
(-8.78495e-09 3.33629e-08 -0.00100005)
(-1.36927e-08 3.33389e-08 -0.00100005)
(-1.73116e-08 3.32972e-08 -0.00100006)
(-1.92054e-08 3.32643e-08 -0.00100006)
(-3.03989e-09 5.18457e-08 -0.00100003)
(-8.82014e-09 5.19076e-08 -0.00100003)
(-1.37363e-08 5.18731e-08 -0.00100004)
(-1.73562e-08 5.18182e-08 -0.00100004)
(-1.92612e-08 5.17909e-08 -0.00100005)
(-3.05506e-09 6.5302e-08 -0.00100001)
(-8.85724e-09 6.54013e-08 -0.00100002)
(-1.37897e-08 6.53545e-08 -0.00100002)
(-1.73966e-08 6.52978e-08 -0.00100002)
(-1.93482e-08 6.53689e-08 -0.00100003)
(-3.0575e-09 7.24384e-08 -0.000999992)
(-8.89146e-09 7.25348e-08 -0.000999994)
(-1.38468e-08 7.24589e-08 -0.000999998)
(-1.7342e-08 7.2352e-08 -0.001)
(-1.94748e-08 7.2228e-08 -0.00100001)
(-4.11273e-09 1.55791e-08 -0.00100007)
(-1.19457e-08 1.55992e-08 -0.00100008)
(-1.86004e-08 1.56011e-08 -0.00100008)
(-2.347e-08 1.55961e-08 -0.00100009)
(-2.59966e-08 1.55958e-08 -0.0010001)
(-4.12692e-09 4.52635e-08 -0.00100006)
(-1.19739e-08 4.53282e-08 -0.00100007)
(-1.86392e-08 4.53183e-08 -0.00100007)
(-2.35183e-08 4.52881e-08 -0.00100008)
(-2.60637e-08 4.52664e-08 -0.00100009)
(-4.13605e-09 7.04592e-08 -0.00100004)
(-1.19992e-08 7.05604e-08 -0.00100005)
(-1.86822e-08 7.05149e-08 -0.00100005)
(-2.35687e-08 7.04559e-08 -0.00100006)
(-2.61311e-08 7.04287e-08 -0.00100007)
(-4.15217e-09 8.88004e-08 -0.00100002)
(-1.20533e-08 8.89157e-08 -0.00100002)
(-1.87541e-08 8.88279e-08 -0.00100003)
(-2.36085e-08 8.87877e-08 -0.00100003)
(-2.6231e-08 8.88533e-08 -0.00100004)
(-4.17932e-09 9.85434e-08 -0.000999989)
(-1.21396e-08 9.86453e-08 -0.000999992)
(-1.88197e-08 9.8529e-08 -0.000999997)
(-2.35437e-08 9.84137e-08 -0.001)
(-2.64109e-08 9.82322e-08 -0.00100001)
(-5.61136e-09 2.11687e-08 -0.0010001)
(-1.62728e-08 2.12153e-08 -0.0010001)
(-2.53046e-08 2.12224e-08 -0.00100011)
(-3.18823e-08 2.12087e-08 -0.00100012)
(-3.52805e-08 2.11847e-08 -0.00100013)
(-5.61143e-09 6.15401e-08 -0.00100009)
(-1.62876e-08 6.16526e-08 -0.00100009)
(-2.53601e-08 6.16287e-08 -0.0010001)
(-3.19788e-08 6.1573e-08 -0.00100011)
(-3.53859e-08 6.1522e-08 -0.00100012)
(-5.61849e-09 9.58465e-08 -0.00100006)
(-1.63315e-08 9.59755e-08 -0.00100006)
(-2.54412e-08 9.58905e-08 -0.00100007)
(-3.20528e-08 9.58133e-08 -0.00100008)
(-3.54749e-08 9.57767e-08 -0.00100009)
(-5.65407e-09 1.20842e-07 -0.00100003)
(-1.64271e-08 1.20956e-07 -0.00100003)
(-2.55365e-08 1.20847e-07 -0.00100004)
(-3.20979e-08 1.20809e-07 -0.00100005)
(-3.5615e-08 1.2082e-07 -0.00100006)
(-5.72012e-09 1.34112e-07 -0.000999985)
(-1.65545e-08 1.34223e-07 -0.000999989)
(-2.56007e-08 1.34086e-07 -0.000999996)
(-3.20805e-08 1.3392e-07 -0.001)
(-3.59426e-08 1.33582e-07 -0.00100002)
(-7.62438e-09 2.88e-08 -0.00100014)
(-2.21321e-08 2.88664e-08 -0.00100014)
(-3.44331e-08 2.88522e-08 -0.00100015)
(-4.33571e-08 2.88232e-08 -0.00100016)
(-4.79084e-08 2.88101e-08 -0.00100018)
(-7.62154e-09 8.37127e-08 -0.00100012)
(-2.21732e-08 8.38467e-08 -0.00100012)
(-3.4543e-08 8.37834e-08 -0.00100013)
(-4.34795e-08 8.37162e-08 -0.00100014)
(-4.80235e-08 8.36892e-08 -0.00100016)
(-7.65287e-09 1.3037e-07 -0.00100008)
(-2.22617e-08 1.30512e-07 -0.00100009)
(-3.46415e-08 1.30416e-07 -0.0010001)
(-4.35384e-08 1.30343e-07 -0.00100011)
(-4.81113e-08 1.30293e-07 -0.00100012)
(-7.7122e-09 1.64399e-07 -0.00100004)
(-2.23764e-08 1.64556e-07 -0.00100004)
(-3.47318e-08 1.64478e-07 -0.00100005)
(-4.36095e-08 1.64401e-07 -0.00100006)
(-4.83028e-08 1.64324e-07 -0.00100008)
(-7.78836e-09 1.82518e-07 -0.00099998)
(-2.24931e-08 1.82689e-07 -0.000999985)
(-3.4814e-08 1.82545e-07 -0.000999994)
(-4.36925e-08 1.82282e-07 -0.00100001)
(-4.87639e-08 1.81786e-07 -0.00100002)
(-1.03666e-08 3.91685e-08 -0.00100018)
(-3.0144e-08 3.92281e-08 -0.00100019)
(-4.68899e-08 3.92005e-08 -0.0010002)
(-5.88976e-08 3.91891e-08 -0.00100022)
(-6.50029e-08 3.92012e-08 -0.00100024)
(-1.03935e-08 1.13802e-07 -0.00100016)
(-3.02391e-08 1.13942e-07 -0.00100017)
(-4.70199e-08 1.13882e-07 -0.00100018)
(-5.90063e-08 1.13843e-07 -0.0010002)
(-6.51253e-08 1.13814e-07 -0.00100022)
(-1.04469e-08 1.77228e-07 -0.00100011)
(-3.03364e-08 1.77433e-07 -0.00100012)
(-4.70958e-08 1.77371e-07 -0.00100013)
(-5.90846e-08 1.77271e-07 -0.00100015)
(-6.52431e-08 1.77103e-07 -0.00100017)
(-1.05044e-08 2.23589e-07 -0.00100005)
(-3.04347e-08 2.23875e-07 -0.00100006)
(-4.72086e-08 2.23798e-07 -0.00100007)
(-5.92841e-08 2.23574e-07 -0.00100009)
(-6.55286e-08 2.23276e-07 -0.00100011)
(-1.05579e-08 2.48398e-07 -0.000999973)
(-3.05477e-08 2.48676e-07 -0.00099998)
(-4.74205e-08 2.48462e-07 -0.000999992)
(-5.96075e-08 2.48035e-07 -0.00100001)
(-6.61042e-08 2.47385e-07 -0.00100003)
(-1.41539e-08 5.31958e-08 -0.00100025)
(-4.11368e-08 5.32625e-08 -0.00100026)
(-6.38644e-08 5.32612e-08 -0.00100028)
(-8.00173e-08 5.32747e-08 -0.0010003)
(-8.82328e-08 5.32652e-08 -0.00100033)
(-1.42045e-08 1.54581e-07 -0.00100022)
(-4.12444e-08 1.5479e-07 -0.00100023)
(-6.39763e-08 1.54783e-07 -0.00100024)
(-8.01623e-08 1.54754e-07 -0.00100027)
(-8.84155e-08 1.54657e-07 -0.00100029)
(-1.42442e-08 2.4087e-07 -0.00100015)
(-4.13043e-08 2.41214e-07 -0.00100016)
(-6.40459e-08 2.4116e-07 -0.00100018)
(-8.03062e-08 2.40981e-07 -0.0010002)
(-8.85771e-08 2.40703e-07 -0.00100023)
(-1.42896e-08 3.04123e-07 -0.00100007)
(-4.14132e-08 3.04555e-07 -0.00100008)
(-6.42445e-08 3.04379e-07 -0.00100009)
(-8.06332e-08 3.03976e-07 -0.00100012)
(-8.89472e-08 3.0354e-07 -0.00100014)
(-1.435e-08 3.38112e-07 -0.000999964)
(-4.16186e-08 3.3848e-07 -0.000999973)
(-6.46575e-08 3.38094e-07 -0.00099999)
(-8.11468e-08 3.3745e-07 -0.00100001)
(-8.95998e-08 3.36668e-07 -0.00100004)
(-1.93726e-08 7.21795e-08 -0.00100034)
(-5.62055e-08 7.23056e-08 -0.00100035)
(-8.70783e-08 7.23495e-08 -0.00100038)
(-1.08955e-07 7.2381e-08 -0.00100041)
(-1.19942e-07 7.23884e-08 -0.00100045)
(-1.9406e-08 2.09865e-07 -0.00100029)
(-5.62707e-08 2.10229e-07 -0.00100031)
(-8.71721e-08 2.10284e-07 -0.00100033)
(-1.09119e-07 2.10277e-07 -0.00100036)
(-1.20131e-07 2.10225e-07 -0.0010004)
(-1.94151e-08 3.27277e-07 -0.00100021)
(-5.62896e-08 3.27793e-07 -0.00100022)
(-8.72285e-08 3.27717e-07 -0.00100025)
(-1.09236e-07 3.27515e-07 -0.00100028)
(-1.20241e-07 3.27279e-07 -0.00100031)
(-1.94727e-08 4.13597e-07 -0.00100009)
(-5.64543e-08 4.14144e-07 -0.0010001)
(-8.74983e-08 4.13825e-07 -0.00100013)
(-1.09576e-07 4.13319e-07 -0.00100016)
(-1.20636e-07 4.12878e-07 -0.0010002)
(-1.95986e-08 4.6022e-07 -0.000999951)
(-5.68356e-08 4.60648e-07 -0.000999964)
(-8.80979e-08 4.60024e-07 -0.000999988)
(-1.10185e-07 4.59106e-07 -0.00100002)
(-1.21427e-07 4.5809e-07 -0.00100006)
(-2.65529e-08 9.78691e-08 -0.00100046)
(-7.6941e-08 9.80934e-08 -0.00100048)
(-1.1901e-07 9.82002e-08 -0.00100051)
(-1.48628e-07 9.83093e-08 -0.00100056)
(-1.63169e-07 9.84343e-08 -0.00100061)
(-2.65451e-08 2.84698e-07 -0.0010004)
(-7.69294e-08 2.85282e-07 -0.00100042)
(-1.19024e-07 2.85462e-07 -0.00100045)
(-1.48669e-07 2.85634e-07 -0.00100049)
(-1.63222e-07 2.85821e-07 -0.00100054)
(-2.65218e-08 4.44314e-07 -0.00100029)
(-7.68607e-08 4.45056e-07 -0.0010003)
(-1.18928e-07 4.45053e-07 -0.00100034)
(-1.4857e-07 4.44992e-07 -0.00100038)
(-1.63114e-07 4.44925e-07 -0.00100043)
(-2.65934e-08 5.62078e-07 -0.00100013)
(-7.7035e-08 5.62787e-07 -0.00100014)
(-1.19154e-07 5.6239e-07 -0.00100017)
(-1.48823e-07 5.61843e-07 -0.00100022)
(-1.6346e-07 5.61326e-07 -0.00100027)
(-2.68029e-08 6.26242e-07 -0.000999936)
(-7.75991e-08 6.26749e-07 -0.000999953)
(-1.19933e-07 6.25831e-07 -0.000999985)
(-1.49637e-07 6.24516e-07 -0.00100003)
(-1.6459e-07 6.2298e-07 -0.00100008)
(-3.65143e-08 1.32517e-07 -0.00100063)
(-1.05711e-07 1.32884e-07 -0.00100065)
(-1.63182e-07 1.33144e-07 -0.0010007)
(-2.03187e-07 1.33463e-07 -0.00100076)
(-2.22229e-07 1.33814e-07 -0.00100083)
(-3.64414e-08 3.85649e-07 -0.00100054)
(-1.05518e-07 3.86589e-07 -0.00100057)
(-1.62915e-07 3.87132e-07 -0.00100061)
(-2.02888e-07 3.87798e-07 -0.00100067)
(-2.21937e-07 3.88535e-07 -0.00100074)
(-3.63252e-08 6.02398e-07 -0.00100039)
(-1.05156e-07 6.0356e-07 -0.00100041)
(-1.6234e-07 6.03902e-07 -0.00100046)
(-2.02192e-07 6.04303e-07 -0.00100052)
(-2.21222e-07 6.04753e-07 -0.00100058)
(-3.6352e-08 7.63126e-07 -0.00100017)
(-1.05161e-07 7.64174e-07 -0.0010002)
(-1.62262e-07 7.63858e-07 -0.00100024)
(-2.02072e-07 7.6341e-07 -0.0010003)
(-2.21246e-07 7.62917e-07 -0.00100037)
(-3.66198e-08 8.51815e-07 -0.000999915)
(-1.05849e-07 8.52463e-07 -0.000999939)
(-1.63187e-07 8.51168e-07 -0.000999983)
(-2.03136e-07 8.49295e-07 -0.00100004)
(-2.22808e-07 8.46983e-07 -0.00100011)
(-5.04889e-08 1.79036e-07 -0.00100085)
(-1.45999e-07 1.79667e-07 -0.00100088)
(-2.24726e-07 1.80277e-07 -0.00100095)
(-2.7873e-07 1.81056e-07 -0.00100103)
(-3.03296e-07 1.81955e-07 -0.00100113)
(-5.02569e-08 5.21313e-07 -0.00100074)
(-1.45344e-07 5.22927e-07 -0.00100077)
(-2.23755e-07 5.24329e-07 -0.00100083)
(-2.7755e-07 5.26135e-07 -0.00100092)
(-3.02099e-07 5.28203e-07 -0.00100101)
(-4.98949e-08 8.15312e-07 -0.00100053)
(-1.44243e-07 8.17274e-07 -0.00100056)
(-2.22014e-07 8.18507e-07 -0.00100062)
(-2.75406e-07 8.20076e-07 -0.0010007)
(-2.99917e-07 8.2184e-07 -0.0010008)
(-4.97498e-08 1.03489e-06 -0.00100024)
(-1.43703e-07 1.03655e-06 -0.00100027)
(-2.21076e-07 1.03662e-06 -0.00100033)
(-2.74264e-07 1.03662e-06 -0.00100041)
(-2.98961e-07 1.03658e-06 -0.0010005)
(-5.00489e-08 1.15808e-06 -0.000999889)
(-1.44437e-07 1.15893e-06 -0.000999922)
(-2.22061e-07 1.15713e-06 -0.000999982)
(-2.75455e-07 1.15452e-06 -0.00100006)
(-3.00791e-07 1.15129e-06 -0.00100015)
(-7.03103e-08 2.41173e-07 -0.00100114)
(-2.03076e-07 2.423e-07 -0.00100119)
(-3.11295e-07 2.43674e-07 -0.00100128)
(-3.83983e-07 2.45458e-07 -0.0010014)
(-4.14963e-07 2.47525e-07 -0.00100154)
(-6.97235e-08 7.0274e-07 -0.00100099)
(-2.01363e-07 7.05634e-07 -0.00100104)
(-3.08691e-07 7.08954e-07 -0.00100113)
(-3.8079e-07 7.13242e-07 -0.00100125)
(-4.11729e-07 7.18094e-07 -0.00100138)
(-6.88009e-08 1.10087e-06 -0.00100072)
(-1.98569e-07 1.10436e-06 -0.00100076)
(-3.04355e-07 1.10764e-06 -0.00100085)
(-3.7558e-07 1.11179e-06 -0.00100096)
(-4.06455e-07 1.11638e-06 -0.00100109)
(-6.8209e-08 1.40115e-06 -0.00100033)
(-1.96706e-07 1.40392e-06 -0.00100037)
(-3.01436e-07 1.405e-06 -0.00100046)
(-3.7211e-07 1.40618e-06 -0.00100056)
(-4.03146e-07 1.40753e-06 -0.00100069)
(-6.8499e-08 1.57332e-06 -0.000999857)
(-1.97335e-07 1.57439e-06 -0.000999903)
(-3.02249e-07 1.5719e-06 -0.000999984)
(-3.73057e-07 1.56834e-06 -0.00100009)
(-4.04751e-07 1.56413e-06 -0.00100021)
(-9.87815e-08 3.23578e-07 -0.00100153)
(-2.85252e-07 3.25654e-07 -0.0010016)
(-4.34639e-07 3.2872e-07 -0.00100174)
(-5.32399e-07 3.32548e-07 -0.00100191)
(-5.69893e-07 3.36984e-07 -0.0010021)
(-9.74364e-08 9.43687e-07 -0.00100134)
(-2.81163e-07 9.49111e-07 -0.00100141)
(-4.28466e-07 9.56638e-07 -0.00100154)
(-5.24985e-07 9.66032e-07 -0.0010017)
(-5.62452e-07 9.76792e-07 -0.00100188)
(-9.52425e-08 1.48155e-06 -0.00100097)
(-2.74612e-07 1.48803e-06 -0.00100104)
(-4.18604e-07 1.49576e-06 -0.00100116)
(-5.13216e-07 1.50541e-06 -0.00100131)
(-5.50652e-07 1.51643e-06 -0.00100148)
(-9.36424e-08 1.89272e-06 -0.00100045)
(-2.69813e-07 1.89749e-06 -0.00100052)
(-4.1131e-07 1.90097e-06 -0.00100063)
(-5.04407e-07 1.90506e-06 -0.00100078)
(-5.42032e-07 1.91009e-06 -0.00100094)
(-9.38127e-08 2.13501e-06 -0.000999821)
(-2.699e-07 2.13631e-06 -0.000999883)
(-4.11232e-07 2.13298e-06 -0.000999995)
(-5.04107e-07 2.12817e-06 -0.00100014)
(-5.42521e-07 2.12304e-06 -0.0010003)
(-1.40016e-07 4.31865e-07 -0.00100204)
(-4.0618e-07 4.35765e-07 -0.00100215)
(-6.13291e-07 4.42536e-07 -0.00100235)
(-7.45827e-07 4.50265e-07 -0.00100259)
(-7.87006e-07 4.60161e-07 -0.00100288)
(-1.37102e-07 1.26064e-06 -0.00100179)
(-3.96901e-07 1.27103e-06 -0.00100189)
(-5.99696e-07 1.28775e-06 -0.00100208)
(-7.2926e-07 1.30737e-06 -0.00100231)
(-7.70748e-07 1.33164e-06 -0.00100258)
(-1.32193e-07 1.98439e-06 -0.00100131)
(-3.82187e-07 1.99666e-06 -0.0010014)
(-5.78097e-07 2.01412e-06 -0.00100158)
(-7.03192e-07 2.03532e-06 -0.00100178)
(-7.45327e-07 2.06101e-06 -0.00100203)
(-1.28497e-07 2.54871e-06 -0.00100063)
(-3.71066e-07 2.557e-06 -0.00100071)
(-5.6134e-07 2.56605e-06 -0.00100088)
(-6.8248e-07 2.57644e-06 -0.00100107)
(-7.25465e-07 2.59045e-06 -0.00100129)
(-1.28416e-07 2.89237e-06 -0.000999782)
(-3.6963e-07 2.89372e-06 -0.000999866)
(-5.58934e-07 2.88969e-06 -0.00100002)
(-6.78798e-07 2.88284e-06 -0.00100021)
(-7.2321e-07 2.8778e-06 -0.00100043)
(-1.99016e-07 5.72625e-07 -0.0010027)
(-5.90056e-07 5.79496e-07 -0.00100284)
(-8.76373e-07 5.9481e-07 -0.00100319)
(-1.06146e-06 6.09056e-07 -0.0010035)
(-1.09332e-06 6.32588e-07 -0.00100399)
(-1.93466e-07 1.67194e-06 -0.00100237)
(-5.69678e-07 1.69145e-06 -0.00100251)
(-8.4788e-07 1.72935e-06 -0.00100282)
(-1.02491e-06 1.76781e-06 -0.00100312)
(-1.05952e-06 1.82471e-06 -0.00100356)
(-1.8301e-07 2.63868e-06 -0.00100176)
(-5.36855e-07 2.66214e-06 -0.00100188)
(-8.01464e-07 2.70141e-06 -0.00100215)
(-9.67652e-07 2.74548e-06 -0.00100241)
(-1.00708e-06 2.80598e-06 -0.00100279)
(-1.75009e-07 3.41748e-06 -0.00100089)
(-5.12245e-07 3.43169e-06 -0.00100099)
(-7.64954e-07 3.45351e-06 -0.00100123)
(-9.20504e-07 3.47513e-06 -0.00100147)
(-9.64537e-07 3.51175e-06 -0.00100179)
(-1.74902e-07 3.90889e-06 -0.000999747)
(-5.07291e-07 3.90918e-06 -0.000999856)
(-7.58405e-07 3.90585e-06 -0.00100008)
(-9.0943e-07 3.89367e-06 -0.00100032)
(-9.56878e-07 3.89417e-06 -0.00100061)
(-2.76207e-07 7.53741e-07 -0.00100354)
(-8.85674e-07 7.62892e-07 -0.00100369)
(-1.26575e-06 8.00827e-07 -0.00100436)
(-1.55075e-06 8.19958e-07 -0.00100464)
(-1.52434e-06 8.82497e-07 -0.00100566)
(-2.68789e-07 2.19613e-06 -0.00100311)
(-8.40859e-07 2.22974e-06 -0.00100328)
(-1.2098e-06 2.32185e-06 -0.00100386)
(-1.47032e-06 2.38527e-06 -0.00100416)
(-1.45785e-06 2.53154e-06 -0.00100502)
(-2.47353e-07 3.46781e-06 -0.00100235)
(-7.6561e-07 3.51298e-06 -0.00100248)
(-1.11191e-06 3.60334e-06 -0.00100295)
(-1.34286e-06 3.68767e-06 -0.00100321)
(-1.3555e-06 3.84007e-06 -0.00100388)
(-2.30479e-07 4.55876e-06 -0.00100129)
(-7.12579e-07 4.58081e-06 -0.00100139)
(-1.03566e-06 4.63345e-06 -0.0010018)
(-1.23379e-06 4.66716e-06 -0.001002)
(-1.26977e-06 4.76701e-06 -0.00100251)
(-2.33519e-07 5.26522e-06 -0.000999714)
(-6.99648e-07 5.25903e-06 -0.000999837)
(-1.02608e-06 5.26448e-06 -0.00100019)
(-1.20932e-06 5.23057e-06 -0.00100046)
(-1.25538e-06 5.26172e-06 -0.00100087)
(-3.41017e-07 9.87192e-07 -0.00100459)
(-1.40543e-06 9.85129e-07 -0.0010046)
(-1.8284e-06 1.09016e-06 -0.00100612)
(-2.35962e-06 1.08457e-06 -0.00100595)
(-2.12484e-06 1.26727e-06 -0.00100834)
(-3.45205e-07 2.85273e-06 -0.00100404)
(-1.30514e-06 2.89645e-06 -0.00100414)
(-1.72986e-06 3.14238e-06 -0.0010054)
(-2.18332e-06 3.19982e-06 -0.0010054)
(-1.99708e-06 3.60747e-06 -0.00100731)
(-3.03519e-07 4.46203e-06 -0.0010031)
(-1.12332e-06 4.55057e-06 -0.00100314)
(-1.52675e-06 4.76391e-06 -0.00100406)
(-1.89633e-06 4.90872e-06 -0.00100406)
(-1.81064e-06 5.31803e-06 -0.00100549)
(-2.66057e-07 6.0525e-06 -0.00100202)
(-1.01318e-06 6.0746e-06 -0.00100197)
(-1.37245e-06 6.2089e-06 -0.00100284)
(-1.62946e-06 6.21988e-06 -0.00100265)
(-1.64774e-06 6.51297e-06 -0.00100367)
(-2.92333e-07 7.06378e-06 -0.000999628)
(-9.78654e-07 7.02681e-06 -0.000999705)
(-1.38214e-06 7.08205e-06 -0.00100035)
(-1.59228e-06 6.94769e-06 -0.00100053)
(-1.63996e-06 7.11958e-06 -0.00100123)
(-2.73145e-07 1.29732e-06 -0.00100589)
(-2.39858e-06 1.22025e-06 -0.00100534)
(-2.61236e-06 1.5193e-06 -0.00100885)
(-3.76736e-06 1.36584e-06 -0.0010072)