/*--------------------------------*- C++ -*----------------------------------*\
| =========                 |                                                 |
| \\      /  F ield         | OpenFOAM: The Open Source CFD Toolbox           |
|  \\    /   O peration     | Version:  5.x                                   |
|   \\  /    A nd           | Web:      www.OpenFOAM.org                      |
|    \\/     M anipulation  |                                                 |
\*---------------------------------------------------------------------------*/
FoamFile
{
    version     2.0;
    format      ascii;
    class       volVectorField;
    location    "70000";
    object      U;
}
// * * * * * * * * * * * * * * * * * * * * * * * * * * * * * * * * * * * * * //

dimensions      [0 1 -1 0 0 0 0];

internalField   nonuniform List<vector> 
2250
(
(-8.03367e-12 3.70522e-11 -0.001)
(-2.33374e-11 3.4324e-11 -0.001)
(-4.41134e-11 3.37576e-11 -0.001)
(-4.3564e-11 3.40456e-11 -0.001)
(-6.09536e-11 3.14037e-11 -0.001)
(-1.08372e-11 9.49873e-11 -0.001)
(-2.67396e-11 8.86469e-11 -0.001)
(-4.44366e-11 8.71906e-11 -0.001)
(-4.61115e-11 8.65721e-11 -0.001)
(-6.14424e-11 7.92118e-11 -0.001)
(-1.45146e-11 1.35072e-10 -0.001)
(-3.13485e-11 1.30246e-10 -0.001)
(-4.62676e-11 1.29194e-10 -0.001)
(-5.17241e-11 1.26935e-10 -0.001)
(-6.31052e-11 1.09085e-10 -0.001)
(-1.59017e-11 1.67566e-10 -0.001)
(-3.29102e-11 1.70645e-10 -0.001)
(-4.77731e-11 1.72673e-10 -0.001)
(-6.62363e-11 1.65639e-10 -0.001)
(-6.05628e-11 1.37807e-10 -0.001)
(-1.18743e-11 2.04941e-10 -0.000999999)
(-2.6687e-11 2.13521e-10 -0.000999999)
(-5.13012e-11 2.10312e-10 -0.000999999)
(-8.65997e-11 2.11159e-10 -0.001)
(-6.08246e-11 2.00313e-10 -0.001)
(-2.24076e-11 1.02104e-10 -0.001)
(-6.84635e-11 9.47549e-11 -0.001)
(-1.26269e-10 9.18706e-11 -0.001)
(-1.37043e-10 8.98713e-11 -0.001)
(-1.7689e-10 8.0715e-11 -0.001)
(-2.99626e-11 2.63975e-10 -0.001)
(-7.90103e-11 2.49564e-10 -0.001)
(-1.31349e-10 2.44596e-10 -0.001)
(-1.48756e-10 2.37566e-10 -0.001)
(-1.81426e-10 2.15616e-10 -0.001)
(-3.72001e-11 3.82843e-10 -0.001)
(-8.84097e-11 3.74689e-10 -0.001)
(-1.38528e-10 3.71767e-10 -0.001)
(-1.66512e-10 3.5841e-10 -0.001)
(-1.88848e-10 3.13592e-10 -0.001)
(-3.87693e-11 4.88041e-10 -0.001)
(-9.08479e-11 4.98545e-10 -0.001)
(-1.47693e-10 4.96776e-10 -0.001)
(-2.06966e-10 4.64299e-10 -0.001)
(-1.89731e-10 3.954e-10 -0.001)
(-2.77848e-11 5.84016e-10 -0.000999999)
(-8.07735e-11 6.04642e-10 -0.000999999)
(-1.72842e-10 5.94575e-10 -0.000999999)
(-2.67888e-10 5.93748e-10 -0.001)
(-1.75845e-10 5.69796e-10 -0.001)
(-4.01689e-11 1.79591e-10 -0.001)
(-1.36932e-10 1.68857e-10 -0.001)
(-2.48916e-10 1.63244e-10 -0.001)
(-2.94536e-10 1.56512e-10 -0.001)
(-3.41933e-10 1.43943e-10 -0.001)
(-5.12793e-11 4.77048e-10 -0.001)
(-1.54082e-10 4.60514e-10 -0.001)
(-2.61967e-10 4.509e-10 -0.001)
(-3.14795e-10 4.35125e-10 -0.001)
(-3.52613e-10 4.0401e-10 -0.001)
(-5.74728e-11 7.13361e-10 -0.001)
(-1.64306e-10 7.08949e-10 -0.001)
(-2.74959e-10 7.01948e-10 -0.001)
(-3.42254e-10 6.72754e-10 -0.001)
(-3.66948e-10 6.16221e-10 -0.001)
(-5.68918e-11 9.34896e-10 -0.001)
(-1.66878e-10 9.48227e-10 -0.001)
(-2.98289e-10 9.34079e-10 -0.001)
(-4.00621e-10 8.66948e-10 -0.001)
(-3.77935e-10 7.89436e-10 -0.001)
(-4.59195e-11 1.06832e-09 -0.000999999)
(-1.67001e-10 1.0915e-09 -0.000999999)
(-3.56405e-10 1.07394e-09 -0.000999999)
(-4.86933e-10 1.06688e-09 -0.001)
(-3.61483e-10 1.02106e-09 -0.001)
(-6.62853e-11 2.75303e-10 -0.001)
(-2.34956e-10 2.6345e-10 -0.001)
(-4.13956e-10 2.56146e-10 -0.001)
(-5.03078e-10 2.4661e-10 -0.001)
(-5.54424e-10 2.32224e-10 -0.001)
(-7.87591e-11 7.54287e-10 -0.001)
(-2.55289e-10 7.37203e-10 -0.001)
(-4.31819e-10 7.26191e-10 -0.001)
(-5.2832e-10 7.04671e-10 -0.001)
(-5.68682e-10 6.72656e-10 -0.001)
(-8.4644e-11 1.15264e-09 -0.001)
(-2.6495e-10 1.14991e-09 -0.001)
(-4.47479e-10 1.14023e-09 -0.001)
(-5.57762e-10 1.10065e-09 -0.001)
(-5.89225e-10 1.04699e-09 -0.001)
(-8.34383e-11 1.51817e-09 -0.001)
(-2.69905e-10 1.52472e-09 -0.001)
(-4.81259e-10 1.49997e-09 -0.001)
(-6.21592e-10 1.41647e-09 -0.001)
(-6.08008e-10 1.36713e-09 -0.001)
(-8.07034e-11 1.67481e-09 -0.000999999)
(-2.86023e-10 1.69058e-09 -0.000999999)
(-5.55876e-10 1.66478e-09 -0.000999999)
(-6.90544e-10 1.65317e-09 -0.001)
(-6.16381e-10 1.57534e-09 -0.001)
(-1.06635e-10 3.93435e-10 -0.001)
(-3.58512e-10 3.8193e-10 -0.001)
(-6.06018e-10 3.75166e-10 -0.001)
(-7.46394e-10 3.66103e-10 -0.001)
(-8.06657e-10 3.54821e-10 -0.001)
(-1.19015e-10 1.10388e-09 -0.001)
(-3.78324e-10 1.08899e-09 -0.001)
(-6.23085e-10 1.0781e-09 -0.001)
(-7.68229e-10 1.05853e-09 -0.001)
(-8.20388e-10 1.03716e-09 -0.001)
(-1.23512e-10 1.70582e-09 -0.001)
(-3.87057e-10 1.70479e-09 -0.001)
(-6.37764e-10 1.69253e-09 -0.001)
(-7.88764e-10 1.65788e-09 -0.001)
(-8.4224e-10 1.62727e-09 -0.001)
(-1.23064e-10 2.22399e-09 -0.001)
(-3.94917e-10 2.21933e-09 -0.001)
(-6.70219e-10 2.19243e-09 -0.001)
(-8.33558e-10 2.12539e-09 -0.001)
(-8.58573e-10 2.11994e-09 -0.001)
(-1.31976e-10 2.41754e-09 -0.000999999)
(-4.22753e-10 2.4225e-09 -0.000999999)
(-7.31864e-10 2.3939e-09 -0.001)
(-8.61292e-10 2.37974e-09 -0.001)
(-8.68728e-10 2.31083e-09 -0.001)
(-1.62911e-10 5.37804e-10 -0.001)
(-5.04815e-10 5.30399e-10 -0.001)
(-8.14232e-10 5.25974e-10 -0.001)
(-1.01213e-09 5.20839e-10 -0.001)
(-1.10346e-09 5.15467e-10 -0.001)
(-1.71547e-10 1.53889e-09 -0.001)
(-5.18626e-10 1.5314e-09 -0.001)
(-8.25273e-10 1.52205e-09 -0.001)
(-1.02444e-09 1.50869e-09 -0.001)
(-1.11216e-09 1.49897e-09 -0.001)
(-1.73379e-10 2.3924e-09 -0.001)
(-5.25535e-10 2.39466e-09 -0.001)
(-8.38597e-10 2.38138e-09 -0.001)
(-1.03707e-09 2.35505e-09 -0.001)
(-1.12908e-09 2.34651e-09 -0.001)
(-1.73684e-10 3.07187e-09 -0.001)
(-5.34349e-10 3.06311e-09 -0.001)
(-8.65234e-10 3.03839e-09 -0.001)
(-1.05943e-09 2.99228e-09 -0.001)
(-1.14404e-09 3.01948e-09 -0.001)
(-1.8752e-10 3.33833e-09 -0.001)
(-5.648e-10 3.3372e-09 -0.001)
(-9.09746e-10 3.31444e-09 -0.001)
(-1.056e-09 3.30183e-09 -0.001)
(-1.13893e-09 3.24477e-09 -0.001)
(-2.3081e-10 7.24281e-10 -0.001)
(-6.74735e-10 7.24336e-10 -0.001)
(-1.04945e-09 7.23086e-10 -0.001)
(-1.30978e-09 7.21248e-10 -0.001)
(-1.46743e-09 7.18531e-10 -0.001)
(-2.32437e-10 2.10047e-09 -0.001)
(-6.78482e-10 2.1029e-09 -0.001)
(-1.05441e-09 2.0947e-09 -0.001)
(-1.31661e-09 2.08085e-09 -0.001)
(-1.47344e-09 2.0652e-09 -0.001)
(-2.32592e-10 3.27529e-09 -0.001)
(-6.8579e-10 3.27943e-09 -0.001)
(-1.07366e-09 3.26077e-09 -0.001)
(-1.34172e-09 3.227e-09 -0.001)
(-1.49061e-09 3.20332e-09 -0.001)
(-2.34341e-10 4.15527e-09 -0.001)
(-6.99436e-10 4.14688e-09 -0.001)
(-1.10731e-09 4.11648e-09 -0.001)
(-1.37424e-09 4.06624e-09 -0.001)
(-1.51454e-09 4.0522e-09 -0.001)
(-2.483e-10 4.53647e-09 -0.001)
(-7.32423e-10 4.53426e-09 -0.001)
(-1.15473e-09 4.51943e-09 -0.001)
(-1.406e-09 4.5042e-09 -0.001)
(-1.49037e-09 4.45392e-09 -0.001)
(-3.09953e-10 9.7977e-10 -0.001)
(-8.85371e-10 9.85631e-10 -0.001)
(-1.35626e-09 9.86101e-10 -0.00100001)
(-1.69503e-09 9.8274e-10 -0.00100001)
(-1.94953e-09 9.72911e-10 -0.00100001)
(-3.06358e-10 2.85511e-09 -0.001)
(-8.82415e-10 2.86363e-09 -0.001)
(-1.36163e-09 2.85131e-09 -0.001)
(-1.71116e-09 2.82358e-09 -0.00100001)
(-1.96332e-09 2.78097e-09 -0.00100001)
(-3.07153e-10 4.45363e-09 -0.001)
(-8.96279e-10 4.45479e-09 -0.001)
(-1.39915e-09 4.42028e-09 -0.001)
(-1.76853e-09 4.35837e-09 -0.001)
(-1.99339e-09 4.28203e-09 -0.001)
(-3.13314e-10 5.61767e-09 -0.001)
(-9.24448e-10 5.60601e-09 -0.001)
(-1.45869e-09 5.55732e-09 -0.001)
(-1.84965e-09 5.47776e-09 -0.001)
(-2.02781e-09 5.36496e-09 -0.001)
(-3.28824e-10 6.15906e-09 -0.000999999)
(-9.67348e-10 6.15471e-09 -0.001)
(-1.52799e-09 6.13677e-09 -0.001)
(-1.96092e-09 6.11789e-09 -0.001)
(-1.9867e-09 6.11193e-09 -0.001)
(-4.12834e-10 1.3325e-09 -0.00100001)
(-1.17885e-09 1.34066e-09 -0.00100001)
(-1.80956e-09 1.33874e-09 -0.00100001)
(-2.26986e-09 1.32871e-09 -0.00100001)
(-2.63067e-09 1.30694e-09 -0.00100001)
(-4.07737e-10 3.88095e-09 -0.00100001)
(-1.17719e-09 3.8896e-09 -0.00100001)
(-1.82491e-09 3.86737e-09 -0.00100001)
(-2.30567e-09 3.82048e-09 -0.00100001)
(-2.65824e-09 3.7507e-09 -0.00100001)
(-4.11915e-10 6.04724e-09 -0.001)
(-1.20204e-09 6.04152e-09 -0.001)
(-1.88253e-09 5.98929e-09 -0.001)
(-2.39078e-09 5.89905e-09 -0.00100001)
(-2.70333e-09 5.77546e-09 -0.00100001)
(-4.24424e-10 7.61588e-09 -0.001)
(-1.2469e-09 7.59727e-09 -0.001)
(-1.96827e-09 7.53166e-09 -0.001)
(-2.51983e-09 7.42207e-09 -0.001)
(-2.73214e-09 7.24614e-09 -0.001)
(-4.44317e-10 8.37585e-09 -0.000999999)
(-1.30097e-09 8.36887e-09 -0.000999999)
(-2.05856e-09 8.34047e-09 -0.001)
(-2.67633e-09 8.32952e-09 -0.001)
(-2.6903e-09 8.35871e-09 -0.001)
(-5.58447e-10 1.81417e-09 -0.00100001)
(-1.60932e-09 1.8199e-09 -0.00100001)
(-2.49241e-09 1.81362e-09 -0.00100001)
(-3.14298e-09 1.79793e-09 -0.00100001)
(-3.60203e-09 1.77159e-09 -0.00100001)
(-5.5688e-10 5.27311e-09 -0.00100001)
(-1.61619e-09 5.27705e-09 -0.00100001)
(-2.51916e-09 5.24736e-09 -0.00100001)
(-3.19072e-09 5.19331e-09 -0.00100001)
(-3.63684e-09 5.12242e-09 -0.00100001)
(-5.64963e-10 8.20595e-09 -0.00100001)
(-1.64816e-09 8.19663e-09 -0.00100001)
(-2.58154e-09 8.14044e-09 -0.00100001)
(-3.27397e-09 8.05014e-09 -0.00100001)
(-3.68156e-09 7.93006e-09 -0.00100001)
(-5.81099e-10 1.03319e-08 -0.001)
(-1.69767e-09 1.03132e-08 -0.001)
(-2.66687e-09 1.02507e-08 -0.001)
(-3.40155e-09 1.01434e-08 -0.001)
(-3.69367e-09 9.99639e-09 -0.00100001)
(-6.02463e-10 1.1396e-08 -0.000999999)
(-1.74931e-09 1.13921e-08 -0.000999999)
(-2.75242e-09 1.13607e-08 -0.001)
(-3.52835e-09 1.13634e-08 -0.001)
(-3.64989e-09 1.1402e-08 -0.001)
(-7.68506e-10 2.46526e-09 -0.00100001)
(-2.22895e-09 2.46756e-09 -0.00100001)
(-3.47325e-09 2.4587e-09 -0.00100001)
(-4.39843e-09 2.44347e-09 -0.00100001)
(-4.9533e-09 2.42455e-09 -0.00100002)
(-7.7189e-10 7.15923e-09 -0.00100001)
(-2.24423e-09 7.16063e-09 -0.00100001)
(-3.50403e-09 7.13298e-09 -0.00100001)
(-4.44069e-09 7.0924e-09 -0.00100001)
(-4.98393e-09 7.05103e-09 -0.00100001)
(-7.81279e-10 1.11357e-08 -0.00100001)
(-2.27306e-09 1.11324e-08 -0.00100001)
(-3.54905e-09 1.10919e-08 -0.00100001)
(-4.489e-09 1.10389e-08 -0.00100001)
(-5.00549e-09 1.0979e-08 -0.00100001)
(-7.95407e-10 1.402e-08 -0.001)
(-2.30966e-09 1.40145e-08 -0.001)
(-3.59913e-09 1.39779e-08 -0.001)
(-4.55421e-09 1.3923e-08 -0.00100001)
(-4.99474e-09 1.38723e-08 -0.00100001)
(-8.12057e-10 1.5505e-08 -0.000999998)
(-2.34193e-09 1.55137e-08 -0.000999999)
(-3.64205e-09 1.54952e-08 -0.001)
(-4.59471e-09 1.55201e-08 -0.001)
(-4.91188e-09 1.5592e-08 -0.001)
(-1.06096e-09 3.34731e-09 -0.00100002)
(-3.08397e-09 3.3486e-09 -0.00100002)
(-4.81579e-09 3.34013e-09 -0.00100002)
(-6.11106e-09 3.33086e-09 -0.00100002)
(-6.78837e-09 3.3271e-09 -0.00100002)
(-1.06741e-09 9.72103e-09 -0.00100001)
(-3.10305e-09 9.72628e-09 -0.00100001)
(-4.8428e-09 9.70944e-09 -0.00100002)
(-6.13536e-09 9.6958e-09 -0.00100002)
(-6.80778e-09 9.69868e-09 -0.00100002)
(-1.07499e-09 1.51217e-08 -0.00100001)
(-3.1199e-09 1.51334e-08 -0.00100001)
(-4.85678e-09 1.5121e-08 -0.00100001)
(-6.13386e-09 1.51228e-08 -0.00100001)
(-6.79366e-09 1.5146e-08 -0.00100001)
(-1.08291e-09 1.90395e-08 -0.001)
(-3.13293e-09 1.9058e-08 -0.001)
(-4.85576e-09 1.90594e-08 -0.00100001)
(-6.11117e-09 1.9083e-08 -0.00100001)
(-6.74739e-09 1.91227e-08 -0.00100001)
(-1.09057e-09 2.10966e-08 -0.000999997)
(-3.13622e-09 2.11257e-08 -0.000999998)
(-4.83381e-09 2.11329e-08 -0.000999999)
(-6.07065e-09 2.11873e-08 -0.001)
(-6.61649e-09 2.13213e-08 -0.001)
(-1.45337e-09 4.54903e-09 -0.00100002)
(-4.23026e-09 4.55168e-09 -0.00100002)
(-6.60766e-09 4.54624e-09 -0.00100002)
(-8.3778e-09 4.5447e-09 -0.00100003)
(-9.24331e-09 4.55559e-09 -0.00100003)
(-1.46125e-09 1.321e-08 -0.00100002)
(-4.2492e-09 1.32239e-08 -0.00100002)
(-6.62729e-09 1.32213e-08 -0.00100002)
(-8.38391e-09 1.32333e-08 -0.00100002)
(-9.25291e-09 1.32723e-08 -0.00100003)
(-1.46576e-09 2.05511e-08 -0.00100001)
(-4.25213e-09 2.05821e-08 -0.00100001)
(-6.61271e-09 2.0596e-08 -0.00100001)
(-8.34341e-09 2.06381e-08 -0.00100002)
(-9.21159e-09 2.07118e-08 -0.00100002)
(-1.4673e-09 2.5884e-08 -0.001)
(-4.24386e-09 2.59305e-08 -0.00100001)
(-6.57434e-09 2.59636e-08 -0.00100001)
(-8.26935e-09 2.60325e-08 -0.00100001)
(-9.13833e-09 2.61064e-08 -0.00100001)
(-1.46561e-09 2.8712e-08 -0.000999996)
(-4.22173e-09 2.87648e-08 -0.000999997)
(-6.51356e-09 2.87934e-08 -0.000999999)
(-8.20071e-09 2.88692e-08 -0.001)
(-8.99892e-09 2.90213e-08 -0.001)
(-1.97398e-09 6.18914e-09 -0.00100003)
(-5.75411e-09 6.19427e-09 -0.00100003)
(-8.98505e-09 6.19281e-09 -0.00100003)
(-1.13573e-08 6.19676e-09 -0.00100003)
(-1.25117e-08 6.21317e-09 -0.00100004)
(-1.98316e-09 1.79656e-08 -0.00100002)
(-5.77232e-09 1.79891e-08 -0.00100002)
(-8.99972e-09 1.79971e-08 -0.00100003)
(-1.13579e-08 1.80222e-08 -0.00100003)
(-1.25209e-08 1.80704e-08 -0.00100003)
(-1.9861e-09 2.79486e-08 -0.00100002)
(-5.76756e-09 2.79968e-08 -0.00100002)
(-8.9716e-09 2.8023e-08 -0.00100002)
(-1.13064e-08 2.8074e-08 -0.00100002)
(-1.24785e-08 2.81427e-08 -0.00100003)
(-1.98524e-09 3.52201e-08 -0.00100001)
(-5.75166e-09 3.52895e-08 -0.00100001)
(-8.92675e-09 3.53287e-08 -0.00100001)
(-1.12398e-08 3.53878e-08 -0.00100001)
(-1.24116e-08 3.54187e-08 -0.00100002)
(-1.97978e-09 3.90889e-08 -0.000999994)
(-5.72583e-09 3.91613e-08 -0.000999995)
(-8.87713e-09 3.91883e-08 -0.000999998)
(-1.12166e-08 3.92521e-08 -0.001)
(-1.23148e-08 3.93637e-08 -0.001)
(-2.67028e-09 8.42409e-09 -0.00100004)
(-7.79096e-09 8.43102e-09 -0.00100004)
(-1.21582e-08 8.43144e-09 -0.00100004)
(-1.53205e-08 8.43671e-09 -0.00100005)
(-1.68912e-08 8.4484e-09 -0.00100005)
(-2.68278e-09 2.44434e-08 -0.00100003)
(-7.81328e-09 2.44742e-08 -0.00100003)
(-1.21757e-08 2.44846e-08 -0.00100004)
(-1.53318e-08 2.45099e-08 -0.00100004)
(-1.69114e-08 2.45452e-08 -0.00100005)
(-2.68802e-09 3.8024e-08 -0.00100002)
(-7.81092e-09 3.80846e-08 -0.00100002)
(-1.2149e-08 3.81074e-08 -0.00100003)
(-1.52902e-08 3.81457e-08 -0.00100003)
(-1.68897e-08 3.81801e-08 -0.00100004)
(-2.69061e-09 4.79369e-08 -0.00100001)
(-7.80298e-09 4.80186e-08 -0.00100001)
(-1.21203e-08 4.80382e-08 -0.00100001)
(-1.52613e-08 4.80585e-08 -0.00100002)
(-1.68561e-08 4.80304e-08 -0.00100002)
(-2.6921e-09 5.32188e-08 -0.000999992)
(-7.80059e-09 5.33015e-08 -0.000999994)
(-1.21144e-08 5.33017e-08 -0.000999997)
(-1.52982e-08 5.33208e-08 -0.001)
(-1.68138e-08 5.33701e-08 -0.00100001)
(-3.61421e-09 1.14628e-08 -0.00100005)
(-1.05416e-08 1.14708e-08 -0.00100005)
(-1.64351e-08 1.14707e-08 -0.00100006)
(-2.06762e-08 1.14754e-08 -0.00100006)
(-2.28198e-08 1.14825e-08 -0.00100007)
(-3.63259e-09 3.32608e-08 -0.00100004)
(-1.0574e-08 3.32985e-08 -0.00100005)
(-1.6462e-08 3.33065e-08 -0.00100005)
(-2.07026e-08 3.33274e-08 -0.00100006)
(-2.28561e-08 3.33502e-08 -0.00100006)
(-3.64237e-09 5.17459e-08 -0.00100003)
(-1.0579e-08 5.18196e-08 -0.00100003)
(-1.64423e-08 5.1833e-08 -0.00100004)
(-2.06735e-08 5.18551e-08 -0.00100004)
(-2.28589e-08 5.18579e-08 -0.00100005)
(-3.65178e-09 6.5243e-08 -0.00100001)
(-1.05863e-08 6.53359e-08 -0.00100001)
(-1.64343e-08 6.53286e-08 -0.00100002)
(-2.06807e-08 6.53147e-08 -0.00100002)
(-2.28709e-08 6.52404e-08 -0.00100003)
(-3.66601e-09 7.24468e-08 -0.000999989)
(-1.06169e-08 7.25372e-08 -0.000999991)
(-1.64706e-08 7.25001e-08 -0.000999995)
(-2.0762e-08 7.24595e-08 -0.001)
(-2.28864e-08 7.2441e-08 -0.00100001)
(-4.90212e-09 1.55929e-08 -0.00100007)
(-1.42799e-08 1.56059e-08 -0.00100007)
(-2.22386e-08 1.56063e-08 -0.00100008)
(-2.79664e-08 1.56109e-08 -0.00100009)
(-3.08863e-08 1.56203e-08 -0.00100009)
(-4.92491e-09 4.52647e-08 -0.00100006)
(-1.43212e-08 4.53194e-08 -0.00100006)
(-2.22765e-08 4.53257e-08 -0.00100007)
(-2.80043e-08 4.53402e-08 -0.00100008)
(-3.09395e-08 4.53585e-08 -0.00100009)
(-4.93685e-09 7.04446e-08 -0.00100004)
(-1.43316e-08 7.05433e-08 -0.00100004)
(-2.22669e-08 7.05461e-08 -0.00100005)
(-2.79894e-08 7.05489e-08 -0.00100006)
(-3.09639e-08 7.05211e-08 -0.00100007)
(-4.95241e-09 8.88197e-08 -0.00100001)
(-1.43548e-08 8.89392e-08 -0.00100002)
(-2.22815e-08 8.89097e-08 -0.00100002)
(-2.80332e-08 8.88635e-08 -0.00100003)
(-3.10307e-08 8.87335e-08 -0.00100004)
(-4.97557e-09 9.86299e-08 -0.000999984)
(-1.44094e-08 9.87407e-08 -0.000999988)
(-2.23523e-08 9.86688e-08 -0.000999993)
(-2.81661e-08 9.85664e-08 -0.001)
(-3.11316e-08 9.84573e-08 -0.00100001)
(-6.65633e-09 2.12133e-08 -0.00100009)
(-1.93658e-08 2.12399e-08 -0.0010001)
(-3.0135e-08 2.12418e-08 -0.00100011)
(-3.78954e-08 2.12446e-08 -0.00100012)
(-4.1863e-08 2.12553e-08 -0.00100013)
(-6.67851e-09 6.16132e-08 -0.00100008)
(-1.9412e-08 6.17009e-08 -0.00100008)
(-3.01887e-08 6.17029e-08 -0.00100009)
(-3.79524e-08 6.17024e-08 -0.0010001)
(-4.19416e-08 6.17053e-08 -0.00100012)
(-6.69021e-09 9.59256e-08 -0.00100005)
(-1.94295e-08 9.60639e-08 -0.00100006)
(-3.02002e-08 9.60483e-08 -0.00100007)
(-3.79689e-08 9.60163e-08 -0.00100008)
(-4.19923e-08 9.59413e-08 -0.00100009)
(-6.71167e-09 1.20968e-07 -0.00100002)
(-1.94728e-08 1.21132e-07 -0.00100002)
(-3.02508e-08 1.21076e-07 -0.00100003)
(-3.80649e-08 1.20977e-07 -0.00100004)
(-4.21202e-08 1.2077e-07 -0.00100006)
(-6.74191e-09 1.34313e-07 -0.000999979)
(-1.95501e-08 1.34464e-07 -0.000999983)
(-3.03686e-08 1.34357e-07 -0.000999991)
(-3.82752e-08 1.34192e-07 -0.001)
(-4.23107e-08 1.33994e-07 -0.00100001)
(-9.04203e-09 2.8862e-08 -0.00100013)
(-2.62912e-08 2.89074e-08 -0.00100013)
(-4.08949e-08 2.89075e-08 -0.00100014)
(-5.14148e-08 2.89044e-08 -0.00100016)
(-5.67897e-08 2.89065e-08 -0.00100018)
(-9.06299e-09 8.38568e-08 -0.00100011)
(-2.63473e-08 8.39861e-08 -0.00100011)
(-4.09774e-08 8.39744e-08 -0.00100013)
(-5.1512e-08 8.39475e-08 -0.00100014)
(-5.69113e-08 8.39125e-08 -0.00100016)
(-9.078e-09 1.30598e-07 -0.00100007)
(-2.63823e-08 1.30784e-07 -0.00100008)
(-4.10244e-08 1.30737e-07 -0.00100009)
(-5.15799e-08 1.30652e-07 -0.00100011)
(-5.70022e-08 1.30515e-07 -0.00100012)
(-9.10971e-09 1.64749e-07 -0.00100003)
(-2.64579e-08 1.64963e-07 -0.00100003)
(-4.11291e-08 1.64863e-07 -0.00100004)
(-5.17414e-08 1.64685e-07 -0.00100006)
(-5.71951e-08 1.64395e-07 -0.00100008)
(-9.15684e-09 1.8292e-07 -0.000999971)
(-2.65785e-08 1.83122e-07 -0.000999977)
(-4.13199e-08 1.82964e-07 -0.000999988)
(-5.20487e-08 1.82719e-07 -0.001)
(-5.74558e-08 1.82445e-07 -0.00100002)
(-1.22975e-08 3.92488e-08 -0.00100017)
(-3.57467e-08 3.93131e-08 -0.00100018)
(-5.55769e-08 3.93091e-08 -0.0010002)
(-6.98288e-08 3.9299e-08 -0.00100022)
(-7.70856e-08 3.92863e-08 -0.00100024)
(-1.23233e-08 1.14055e-07 -0.00100015)
(-3.58246e-08 1.1423e-07 -0.00100016)
(-5.56992e-08 1.14201e-07 -0.00100017)
(-6.99827e-08 1.14145e-07 -0.00100019)
(-7.72627e-08 1.14066e-07 -0.00100021)
(-1.23475e-08 1.7768e-07 -0.0010001)
(-3.58855e-08 1.77924e-07 -0.00100011)
(-5.57853e-08 1.77838e-07 -0.00100012)
(-7.01037e-08 1.77698e-07 -0.00100014)
(-7.74018e-08 1.77504e-07 -0.00100017)
(-1.2396e-08 2.24241e-07 -0.00100004)
(-3.60054e-08 2.24513e-07 -0.00100004)
(-5.59521e-08 2.24352e-07 -0.00100006)
(-7.03268e-08 2.24087e-07 -0.00100008)
(-7.76661e-08 2.23721e-07 -0.0010001)
(-1.24722e-08 2.49052e-07 -0.000999961)
(-3.6196e-08 2.49314e-07 -0.000999969)
(-5.62359e-08 2.49071e-07 -0.000999984)
(-7.07359e-08 2.48701e-07 -0.001)
(-7.80145e-08 2.48314e-07 -0.00100003)
(-1.676e-08 5.33195e-08 -0.00100023)
(-4.86917e-08 5.34084e-08 -0.00100025)
(-7.56351e-08 5.34075e-08 -0.00100027)
(-9.49268e-08 5.33997e-08 -0.00100029)
(-1.04691e-07 5.33804e-08 -0.00100033)
(-1.67936e-08 1.54979e-07 -0.0010002)
(-4.87917e-08 1.55218e-07 -0.00100021)
(-7.57915e-08 1.55187e-07 -0.00100023)
(-9.51324e-08 1.55126e-07 -0.00100026)
(-1.04916e-07 1.5503e-07 -0.00100029)
(-1.68262e-08 2.4153e-07 -0.00100014)
(-4.88694e-08 2.41861e-07 -0.00100015)
(-7.58964e-08 2.41749e-07 -0.00100017)
(-9.52755e-08 2.41572e-07 -0.0010002)
(-1.05079e-07 2.41348e-07 -0.00100023)
(-1.68931e-08 3.04994e-07 -0.00100005)
(-4.90331e-08 3.05355e-07 -0.00100006)
(-7.6117e-08 3.0512e-07 -0.00100008)
(-9.55478e-08 3.04769e-07 -0.00100011)
(-1.05411e-07 3.04322e-07 -0.00100014)
(-1.70036e-08 3.38981e-07 -0.000999947)
(-4.93149e-08 3.39314e-07 -0.000999958)
(-7.65164e-08 3.38938e-07 -0.000999979)
(-9.60759e-08 3.38369e-07 -0.00100001)
(-1.05917e-07 3.37773e-07 -0.00100004)
(-2.28924e-08 7.23552e-08 -0.00100032)
(-6.64493e-08 7.24888e-08 -0.00100033)
(-1.03083e-07 7.25137e-08 -0.00100036)
(-1.29181e-07 7.25364e-08 -0.0010004)
(-1.42265e-07 7.25479e-08 -0.00100044)
(-2.29253e-08 2.10379e-07 -0.00100027)
(-6.65465e-08 2.10733e-07 -0.00100029)
(-1.03237e-07 2.10752e-07 -0.00100032)
(-1.29389e-07 2.10748e-07 -0.00100035)
(-1.42493e-07 2.10719e-07 -0.0010004)
(-2.29525e-08 3.28063e-07 -0.00100019)
(-6.66005e-08 3.28541e-07 -0.0010002)
(-1.03298e-07 3.28447e-07 -0.00100023)
(-1.29475e-07 3.28284e-07 -0.00100027)
(-1.42599e-07 3.2808e-07 -0.00100031)
(-2.30301e-08 4.14586e-07 -0.00100007)
(-6.67865e-08 4.15088e-07 -0.00100008)
(-1.03543e-07 4.14776e-07 -0.00100011)
(-1.29775e-07 4.1433e-07 -0.00100015)
(-1.42967e-07 4.13766e-07 -0.00100019)
(-2.31823e-08 4.61266e-07 -0.000999929)
(-6.71867e-08 4.61683e-07 -0.000999944)
(-1.04102e-07 4.61102e-07 -0.000999972)
(-1.30487e-07 4.60236e-07 -0.00100001)
(-1.43724e-07 4.59296e-07 -0.00100005)
(-3.1341e-08 9.80775e-08 -0.00100043)
(-9.08823e-08 9.82937e-08 -0.00100045)
(-1.40756e-07 9.83912e-08 -0.00100049)
(-1.7604e-07 9.85056e-08 -0.00100054)
(-1.93467e-07 9.86252e-08 -0.0010006)
(-3.13509e-08 2.85288e-07 -0.00100037)
(-9.09159e-08 2.85852e-07 -0.00100039)
(-1.40817e-07 2.86028e-07 -0.00100043)
(-1.76135e-07 2.86221e-07 -0.00100048)
(-1.93593e-07 2.86424e-07 -0.00100054)
(-3.13397e-08 4.45214e-07 -0.00100026)
(-9.08539e-08 4.45947e-07 -0.00100028)
(-1.407e-07 4.45969e-07 -0.00100031)
(-1.75999e-07 4.45942e-07 -0.00100037)
(-1.93468e-07 4.4589e-07 -0.00100042)
(-3.14096e-08 5.63232e-07 -0.0010001)
(-9.1008e-08 5.63944e-07 -0.00100012)
(-1.40889e-07 5.63585e-07 -0.00100015)
(-1.76239e-07 5.63062e-07 -0.0010002)
(-1.93771e-07 5.6239e-07 -0.00100026)
(-3.16193e-08 6.27518e-07 -0.000999905)
(-9.15537e-08 6.28036e-07 -0.000999926)
(-1.41644e-07 6.27159e-07 -0.000999964)
(-1.77196e-07 6.25882e-07 -0.00100001)
(-1.94834e-07 6.24443e-07 -0.00100007)
(-4.3042e-08 1.32757e-07 -0.00100059)
(-1.24685e-07 1.33121e-07 -0.00100062)
(-1.92723e-07 1.33383e-07 -0.00100067)
(-2.40397e-07 1.33707e-07 -0.00100074)
(-2.63414e-07 1.34065e-07 -0.00100082)
(-4.29844e-08 3.86349e-07 -0.0010005)
(-1.2453e-07 3.87288e-07 -0.00100053)
(-1.92506e-07 3.87844e-07 -0.00100058)
(-2.40159e-07 3.88521e-07 -0.00100066)
(-2.63205e-07 3.89272e-07 -0.00100074)
(-4.28667e-08 6.0351e-07 -0.00100035)
(-1.24157e-07 6.04683e-07 -0.00100038)
(-1.91915e-07 6.05049e-07 -0.00100043)
(-2.39451e-07 6.05447e-07 -0.0010005)
(-2.62483e-07 6.05873e-07 -0.00100058)
(-4.28842e-08 7.64578e-07 -0.00100013)
(-1.2414e-07 7.65629e-07 -0.00100016)
(-1.91834e-07 7.65329e-07 -0.00100021)
(-2.39369e-07 7.64841e-07 -0.00100028)
(-2.62443e-07 7.64207e-07 -0.00100036)
(-4.31586e-08 8.53422e-07 -0.000999874)
(-1.24832e-07 8.54079e-07 -0.000999902)
(-1.92787e-07 8.52798e-07 -0.000999953)
(-2.40576e-07 8.50978e-07 -0.00100002)
(-2.63786e-07 8.48882e-07 -0.0010001)
(-5.93833e-08 1.79334e-07 -0.00100079)
(-1.71839e-07 1.79967e-07 -0.00100083)
(-2.6492e-07 1.80583e-07 -0.00100091)
(-3.29304e-07 1.81364e-07 -0.00100101)
(-3.59329e-07 1.82231e-07 -0.00100112)
(-5.91659e-08 5.22202e-07 -0.00100068)
(-1.71226e-07 5.23829e-07 -0.00100072)
(-2.64021e-07 5.25243e-07 -0.00100079)
(-3.28253e-07 5.27023e-07 -0.00100089)
(-3.5827e-07 5.29008e-07 -0.001001)
(-5.8794e-08 8.1675e-07 -0.00100047)
(-1.7011e-07 8.1873e-07 -0.00100051)
(-2.62303e-07 8.19955e-07 -0.00100058)
(-3.2619e-07 8.21446e-07 -0.00100068)
(-3.56152e-07 8.23097e-07 -0.00100079)
(-5.86412e-08 1.03675e-06 -0.00100018)
(-1.69577e-07 1.0384e-06 -0.00100022)
(-2.6143e-07 1.03843e-06 -0.00100029)
(-3.25159e-07 1.03831e-06 -0.00100038)
(-3.55128e-07 1.03811e-06 -0.00100049)
(-5.89646e-08 1.16012e-06 -0.000999832)
(-1.70362e-07 1.16096e-06 -0.000999871)
(-2.62507e-07 1.15914e-06 -0.000999941)
(-3.26522e-07 1.15659e-06 -0.00100004)
(-3.56646e-07 1.15365e-06 -0.00100014)
(-8.24424e-08 2.41553e-07 -0.00100106)
(-2.38325e-07 2.42694e-07 -0.00100112)
(-3.66117e-07 2.44082e-07 -0.00100123)
(-4.53015e-07 2.45841e-07 -0.00100137)
(-4.91431e-07 2.47835e-07 -0.00100153)
(-8.18656e-08 7.03896e-07 -0.00100092)
(-2.36653e-07 7.06834e-07 -0.00100098)
(-3.63631e-07 7.10154e-07 -0.00100108)
(-4.50055e-07 7.1436e-07 -0.00100121)
(-4.88413e-07 7.19109e-07 -0.00100137)
(-8.09146e-08 1.10276e-06 -0.00100064)
(-2.33845e-07 1.10627e-06 -0.00100069)
(-3.59367e-07 1.10949e-06 -0.00100079)
(-4.44933e-07 1.11353e-06 -0.00100093)
(-4.8319e-07 1.11806e-06 -0.00100108)
(-8.0326e-08 1.40357e-06 -0.00100025)
(-2.32027e-07 1.4063e-06 -0.0010003)
(-3.5654e-07 1.4073e-06 -0.0010004)
(-4.41549e-07 1.40838e-06 -0.00100053)
(-4.79791e-07 1.40957e-06 -0.00100067)
(-8.06506e-08 1.57594e-06 -0.00099978)
(-2.32726e-07 1.57698e-06 -0.000999833)
(-3.57443e-07 1.57444e-06 -0.000999929)
(-4.42669e-07 1.57091e-06 -0.00100006)
(-4.81164e-07 1.56695e-06 -0.0010002)
(-1.15325e-07 3.24072e-07 -0.00100143)
(-3.33387e-07 3.26189e-07 -0.00100151)
(-5.09534e-07 3.29266e-07 -0.00100166)
(-6.26848e-07 3.33056e-07 -0.00100186)
(-6.74365e-07 3.3753e-07 -0.00100209)
(-1.13972e-07 9.45189e-07 -0.00100123)
(-3.2934e-07 9.5068e-07 -0.00100131)
(-5.03533e-07 9.58196e-07 -0.00100146)
(-6.19616e-07 9.67528e-07 -0.00100165)
(-6.67096e-07 9.7838e-07 -0.00100187)
(-1.11752e-07 1.48394e-06 -0.00100086)
(-3.22787e-07 1.49042e-06 -0.00100094)
(-4.9372e-07 1.49811e-06 -0.00100108)
(-6.07819e-07 1.50772e-06 -0.00100126)
(-6.55243e-07 1.51878e-06 -0.00100147)
(-1.10179e-07 1.89578e-06 -0.00100035)
(-3.1804e-07 1.90048e-06 -0.00100042)
(-4.86466e-07 1.90392e-06 -0.00100055)
(-5.99031e-07 1.90795e-06 -0.00100073)
(-6.46549e-07 1.91285e-06 -0.00100092)
(-1.10396e-07 2.1384e-06 -0.000999715)
(-3.18191e-07 2.13963e-06 -0.000999787)
(-4.86453e-07 2.13626e-06 -0.00099992)
(-5.98898e-07 2.1314e-06 -0.00100009)
(-6.46952e-07 2.12645e-06 -0.00100028)
(-1.62517e-07 4.32505e-07 -0.0010019)
(-4.71995e-07 4.36433e-07 -0.00100202)
(-7.15595e-07 4.43246e-07 -0.00100225)
(-8.74897e-07 4.50963e-07 -0.00100252)
(-9.29476e-07 4.61044e-07 -0.00100286)
(-1.59619e-07 1.26249e-06 -0.00100164)
(-4.62772e-07 1.27291e-06 -0.00100176)
(-7.02164e-07 1.28974e-06 -0.00100198)
(-8.58402e-07 1.30936e-06 -0.00100224)
(-9.13393e-07 1.33395e-06 -0.00100256)
(-1.54708e-07 1.9872e-06 -0.00100116)
(-4.47998e-07 1.99945e-06 -0.00100127)
(-6.80501e-07 2.01701e-06 -0.00100147)
(-8.32184e-07 2.03822e-06 -0.00100172)
(-8.87868e-07 2.06413e-06 -0.00100201)
(-1.51033e-07 2.55242e-06 -0.00100049)
(-4.36856e-07 2.56065e-06 -0.00100059)
(-6.63704e-07 2.56975e-06 -0.00100077)
(-8.11398e-07 2.58e-06 -0.001001)
(-8.67984e-07 2.59401e-06 -0.00100127)
(-1.50998e-07 2.8967e-06 -0.000999638)
(-4.35457e-07 2.89793e-06 -0.000999736)
(-6.6143e-07 2.89387e-06 -0.000999919)
(-8.07937e-07 2.88678e-06 -0.00100015)
(-8.65756e-07 2.88192e-06 -0.00100041)
(-2.29416e-07 5.73394e-07 -0.0010025)
(-6.80348e-07 5.80213e-07 -0.00100267)
(-1.01583e-06 5.95794e-07 -0.00100305)
(-1.23815e-06 6.0987e-07 -0.00100341)
(-1.28732e-06 6.33969e-07 -0.00100397)
(-2.23976e-07 1.67405e-06 -0.00100218)
(-6.59924e-07 1.69353e-06 -0.00100233)
(-9.87497e-07 1.73202e-06 -0.00100269)
(-1.20154e-06 1.77019e-06 -0.00100303)
(-1.25385e-06 1.82831e-06 -0.00100354)
(-2.1351e-07 2.64169e-06 -0.00100156)
(-6.26774e-07 2.66517e-06 -0.0010017)
(-9.40879e-07 2.70496e-06 -0.00100201)
(-1.14375e-06 2.74883e-06 -0.00100232)
(-1.20132e-06 2.8105e-06 -0.00100276)
(-2.05498e-07 3.42201e-06 -0.00100069)
(-6.01963e-07 3.43612e-06 -0.00100082)
(-9.04257e-07 3.45824e-06 -0.0010011)
(-1.09615e-06 3.47932e-06 -0.00100138)
(-1.15884e-06 3.51662e-06 -0.00100176)
(-2.05501e-07 3.91448e-06 -0.00099955)
(-5.97016e-07 3.91446e-06 -0.000999677)
(-8.98069e-07 3.91121e-06 -0.00099994)
(-1.08538e-06 3.89822e-06 -0.00100023)
(-1.15144e-06 3.89927e-06 -0.00100058)
(-3.1616e-07 7.5468e-07 -0.00100327)
(-1.01067e-06 7.63453e-07 -0.00100344)
(-1.45482e-06 8.02461e-07 -0.00100419)
(-1.7943e-06 8.20398e-07 -0.00100451)
(-1.78765e-06 8.85226e-07 -0.00100565)
(-3.09195e-07 2.19862e-06 -0.00100285)
(-9.65386e-07 2.23178e-06 -0.00100303)
(-1.39933e-06 2.32618e-06 -0.00100368)
(-1.71321e-06 2.38745e-06 -0.00100403)
(-1.72179e-06 2.53866e-06 -0.001005)
(-2.87845e-07 3.47054e-06 -0.00100208)
(-8.89023e-07 3.51564e-06 -0.00100223)
(-1.30119e-06 3.60785e-06 -0.00100276)
(-1.58405e-06 3.69063e-06 -0.00100308)
(-1.61984e-06 3.84801e-06 -0.00100385)
(-2.70969e-07 4.56462e-06 -0.00100103)
(-8.35349e-07 4.58601e-06 -0.00100115)
(-1.2249e-06 4.64011e-06 -0.00100162)
(-1.47325e-06 4.67124e-06 -0.00100187)
(-1.53462e-06 4.77512e-06 -0.00100248)
(-2.74674e-07 5.2727e-06 -0.000999444)
(-8.22276e-07 5.26535e-06 -0.00099959)
(-1.21648e-06 5.27187e-06 -0.000999999)
(-1.44907e-06 5.23474e-06 -0.00100033)
(-1.52118e-06 5.26903e-06 -0.00100083)
(-3.89872e-07 9.88472e-07 -0.00100423)
(-1.58171e-06 9.84734e-07 -0.00100426)
(-2.08209e-06 1.09323e-06 -0.00100589)
(-2.69814e-06 1.08324e-06 -0.00100575)
(-2.48112e-06 1.27291e-06 -0.00100834)
(-3.95818e-07 2.85644e-06 -0.00100368)
(-1.47993e-06 2.89785e-06 -0.0010038)
(-1.98495e-06 3.15135e-06 -0.00100516)
(-2.51984e-06 3.20027e-06 -0.00100521)
(-2.35424e-06 3.62311e-06 -0.0010073)
(-3.54759e-07 4.46246e-06 -0.00100274)
(-1.29466e-06 4.55052e-06 -0.00100279)
(-1.78185e-06 4.76953e-06 -0.00100381)
(-2.22876e-06 4.90834e-06 -0.00100387)
(-2.16963e-06 5.33382e-06 -0.00100546)
(-3.17156e-07 6.06086e-06 -0.00100167)
(-1.1828e-06 6.08014e-06 -0.00100164)
(-1.62787e-06 6.22026e-06 -0.0010026)
(-1.95581e-06 6.22088e-06 -0.00100247)
(-2.00843e-06 6.52985e-06 -0.00100364)
(-3.46364e-07 7.07444e-06 -0.000999255)
(-1.14701e-06 7.03341e-06 -0.000999358)
(-1.6418e-06 7.09457e-06 -0.00100008)
(-1.91919e-06 6.94751e-06 -0.00100035)
(-2.00408e-06 7.13376e-06 -0.00100117)
(-3.27024e-07 1.29869e-06 -0.0010054)
(-2.65076e-06 1.21647e-06 -0.00100485)
(-2.95049e-06 1.52436e-06 -0.00100854)