/*--------------------------------*- C++ -*----------------------------------*\
  =========                 |
  \\      /  F ield         | OpenFOAM: The Open Source CFD Toolbox
   \\    /   O peration     | Website:  https://openfoam.org
    \\  /    A nd           | Version:  9
     \\/     M anipulation  |
\*---------------------------------------------------------------------------*/
FoamFile
{
    format      ascii;
    class       volScalarField;
    location    "0.03";
    object      p;
}
// * * * * * * * * * * * * * * * * * * * * * * * * * * * * * * * * * * * * * //

dimensions      [0 2 -2 0 0 0 0];

internalField   nonuniform List<scalar> 
9000
(
-2.88639e-10
-2.90043e-10
-2.89285e-10
-3.04007e-10
-3.6118e-10
-3.68154e-10
-3.45171e-10
-3.55662e-10
-3.75157e-10
-3.88169e-10
-2.99882e-10
-2.95475e-10
-2.93799e-10
-3.05593e-10
-3.4931e-10
-3.57882e-10
-3.43121e-10
-3.61338e-10
-3.85565e-10
-3.98499e-10
-3.1179e-10
-3.02287e-10
-2.9159e-10
-2.87373e-10
-3.04733e-10
-3.00667e-10
-3.15386e-10
-3.45081e-10
-3.74845e-10
-3.9117e-10
-3.4161e-10
-3.26304e-10
-2.98924e-10
-2.69393e-10
-2.53073e-10
-1.92481e-10
-2.6822e-10
-3.2081e-10
-3.64621e-10
-3.93459e-10
-3.94473e-10
-3.73257e-10
-3.20191e-10
-2.61004e-10
-2.16119e-10
4.09975e-12
-1.93931e-10
-3.01076e-10
-3.78205e-10
-4.32415e-10
-4.37118e-10
-4.173e-10
-3.43648e-10
-2.21657e-10
-1.89619e-11
-2.32243e-10
-2.43845e-10
-3.08777e-10
-3.82325e-10
-4.38687e-10
-4.88101e-10
-4.81093e-10
-4.25358e-10
-3.46167e-10
-2.36275e-10
-2.53668e-10
-2.83508e-10
-3.44375e-10
-3.99788e-10
-4.34212e-10
-5.31997e-10
-5.29341e-10
-4.76162e-10
-4.06056e-10
-3.31781e-10
-3.00545e-10
-3.28831e-10
-3.74591e-10
-4.09431e-10
-4.24264e-10
-5.54387e-10
-5.48222e-10
-4.94112e-10
-4.25595e-10
-3.59169e-10
-3.25429e-10
-3.50061e-10
-3.83566e-10
-4.01209e-10
-4.01665e-10
-5.5614e-10
-5.44299e-10
-4.91977e-10
-4.26448e-10
-3.60753e-10
-3.31172e-10
-3.53887e-10
-3.77861e-10
-3.84127e-10
-3.77462e-10
-8.5928e-10
-8.55693e-10
-8.43639e-10
-8.54284e-10
-9.23387e-10
-9.53788e-10
-9.35792e-10
-1.00502e-09
-1.07822e-09
-1.11623e-09
-8.88246e-10
-8.71267e-10
-8.516e-10
-8.45655e-10
-8.74536e-10
-9.1799e-10
-9.32668e-10
-1.02333e-09
-1.10331e-09
-1.1355e-09
-9.30372e-10
-9.00769e-10
-8.57672e-10
-8.15142e-10
-7.99065e-10
-8.32856e-10
-8.86272e-10
-9.93992e-10
-1.08075e-09
-1.12129e-09
-1.02719e-09
-9.83571e-10
-8.97612e-10
-7.97666e-10
-7.25609e-10
-6.69594e-10
-8.04668e-10
-9.53908e-10
-1.0734e-09
-1.14748e-09
-1.19594e-09
-1.13183e-09
-9.81718e-10
-8.20899e-10
-7.3683e-10
-3.42612e-10
-6.56843e-10
-9.09035e-10
-1.1218e-09
-1.26453e-09
-1.32493e-09
-1.27478e-09
-1.09988e-09
-8.402e-10
-4.32215e-10
-7.69557e-10
-8.75144e-10
-9.91732e-10
-1.15621e-09
-1.28894e-09
-1.45368e-09
-1.42201e-09
-1.26981e-09
-1.06643e-09
-7.97251e-10
-9.213e-10
-9.4773e-10
-1.05733e-09
-1.17829e-09
-1.24393e-09
-1.56144e-09
-1.53545e-09
-1.3905e-09
-1.20733e-09
-1.00724e-09
-9.90536e-10
-1.01758e-09
-1.10527e-09
-1.17368e-09
-1.18785e-09
-1.60782e-09
-1.57184e-09
-1.42811e-09
-1.25079e-09
-1.07807e-09
-1.01723e-09
-1.04712e-09
-1.10683e-09
-1.13106e-09
-1.11457e-09
-1.60108e-09
-1.55324e-09
-1.41875e-09
-1.25002e-09
-1.08929e-09
-1.02614e-09
-1.04844e-09
-1.07977e-09
-1.07827e-09
-1.05351e-09
-1.40326e-09
-1.38271e-09
-1.341e-09
-1.29431e-09
-1.25119e-09
-1.29538e-09
-1.38181e-09
-1.5377e-09
-1.66183e-09
-1.7111e-09
-1.44542e-09
-1.4118e-09
-1.35456e-09
-1.28394e-09
-1.22179e-09
-1.29487e-09
-1.40536e-09
-1.57468e-09
-1.69535e-09
-1.72987e-09
-1.53095e-09
-1.48281e-09
-1.39851e-09
-1.29546e-09
-1.20301e-09
-1.32023e-09
-1.39282e-09
-1.55502e-09
-1.67652e-09
-1.7254e-09
-1.70357e-09
-1.63783e-09
-1.50007e-09
-1.32864e-09
-1.16435e-09
-1.35931e-09
-1.3703e-09
-1.54013e-09
-1.70145e-09
-1.79679e-09
-1.9832e-09
-1.8822e-09
-1.65921e-09
-1.39282e-09
-1.18825e-09
-1.38795e-09
-1.34709e-09
-1.54304e-09
-1.80629e-09
-1.9742e-09
-2.18853e-09
-2.11935e-09
-1.92808e-09
-1.73521e-09
-1.55434e-09
-1.23336e-09
-1.50386e-09
-1.67008e-09
-1.87952e-09
-2.02387e-09
-2.36114e-09
-2.29476e-09
-2.08168e-09
-1.82907e-09
-1.58627e-09
-1.58981e-09
-1.62116e-09
-1.73146e-09
-1.85716e-09
-1.90383e-09
-2.49312e-09
-2.42798e-09
-2.21979e-09
-1.96402e-09
-1.705e-09
-1.68336e-09
-1.6776e-09
-1.74633e-09
-1.7969e-09
-1.78475e-09
-2.53996e-09
-2.46634e-09
-2.26586e-09
-2.017e-09
-1.76936e-09
-1.69895e-09
-1.68811e-09
-1.71604e-09
-1.71398e-09
-1.67837e-09
-2.51947e-09
-2.43986e-09
-2.25495e-09
-2.0172e-09
-1.78897e-09
-1.70818e-09
-1.6784e-09
-1.66993e-09
-1.64474e-09
-1.61294e-09
-1.89663e-09
-1.85698e-09
-1.77627e-09
-1.65906e-09
-1.53315e-09
-1.54792e-09
-1.72421e-09
-1.91067e-09
-2.042e-09
-2.08167e-09
-1.96038e-09
-1.91482e-09
-1.81804e-09
-1.69169e-09
-1.59047e-09
-1.62066e-09
-1.78279e-09
-1.96095e-09
-2.07984e-09
-2.10356e-09
-2.10048e-09
-2.04198e-09
-1.92539e-09
-1.78455e-09
-1.66167e-09
-1.73948e-09
-1.81086e-09
-1.96651e-09
-2.0886e-09
-2.1326e-09
-2.34462e-09
-2.27053e-09
-2.10823e-09
-1.90532e-09
-1.67169e-09
-1.95857e-09
-1.86261e-09
-2.00491e-09
-2.16871e-09
-2.25332e-09
-2.70837e-09
-2.59826e-09
-2.35103e-09
-2.00789e-09
-1.54093e-09
-2.42656e-09
-2.06479e-09
-2.13954e-09
-2.34769e-09
-2.45378e-09
-2.94619e-09
-2.85713e-09
-2.65021e-09
-2.51486e-09
-2.65412e-09
-1.59238e-09
-1.96e-09
-2.20755e-09
-2.42153e-09
-2.5132e-09
-3.13784e-09
-3.0461e-09
-2.79324e-09
-2.50657e-09
-2.36977e-09
-2.05436e-09
-2.13763e-09
-2.2467e-09
-2.33478e-09
-2.33853e-09
-3.26552e-09
-3.17306e-09
-2.92542e-09
-2.61597e-09
-2.35219e-09
-2.21609e-09
-2.19615e-09
-2.22247e-09
-2.23109e-09
-2.19992e-09
-3.31013e-09
-3.21778e-09
-2.98509e-09
-2.68641e-09
-2.39513e-09
-2.26881e-09
-2.20907e-09
-2.18345e-09
-2.15182e-09
-2.11765e-09
-3.29321e-09
-3.20096e-09
-2.98363e-09
-2.70032e-09
-2.42532e-09
-2.3005e-09
-2.21222e-09
-2.1545e-09
-2.11162e-09
-2.08903e-09
-2.33144e-09
-2.279e-09
-2.16483e-09
-2.0056e-09
-1.88666e-09
-1.84482e-09
-1.94994e-09
-2.06635e-09
-2.15966e-09
-2.18396e-09
-2.42411e-09
-2.37119e-09
-2.24209e-09
-2.08468e-09
-1.98668e-09
-1.92938e-09
-2.00863e-09
-2.11633e-09
-2.20634e-09
-2.22537e-09
-2.61241e-09
-2.54517e-09
-2.39621e-09
-2.22162e-09
-2.08524e-09
-2.01006e-09
-2.05846e-09
-2.16664e-09
-2.26977e-09
-2.3049e-09
-2.90942e-09
-2.82856e-09
-2.63649e-09
-2.4033e-09
-2.14752e-09
-2.18116e-09
-2.15713e-09
-2.2801e-09
-2.41072e-09
-2.45545e-09
-3.34231e-09
-3.23099e-09
-2.95385e-09
-2.56417e-09
-1.93968e-09
-2.65749e-09
-2.49181e-09
-2.54775e-09
-2.63906e-09
-2.63536e-09
-3.59514e-09
-3.48035e-09
-3.18094e-09
-2.89397e-09
-2.93708e-09
-1.99861e-09
-2.29824e-09
-2.55366e-09
-2.69447e-09
-2.69582e-09
-3.7784e-09
-3.66861e-09
-3.36695e-09
-3.00494e-09
-2.85228e-09
-2.38168e-09
-2.48419e-09
-2.56676e-09
-2.5924e-09
-2.55983e-09
-3.89274e-09
-3.78584e-09
-3.50267e-09
-3.14107e-09
-2.86839e-09
-2.59876e-09
-2.57219e-09
-2.55411e-09
-2.52472e-09
-2.49363e-09
-3.94098e-09
-3.84169e-09
-3.58063e-09
-3.24553e-09
-2.9482e-09
-2.73519e-09
-2.63739e-09
-2.56718e-09
-2.51897e-09
-2.497e-09
-3.93508e-09
-3.83306e-09
-3.58806e-09
-3.28379e-09
-3.01583e-09
-2.82588e-09
-2.68626e-09
-2.5915e-09
-2.53935e-09
-2.52261e-09
-2.69064e-09
-2.62201e-09
-2.47267e-09
-2.27155e-09
-2.11893e-09
-2.0092e-09
-1.94133e-09
-1.9514e-09
-2.00674e-09
-2.03373e-09
-2.80343e-09
-2.73246e-09
-2.56381e-09
-2.35288e-09
-2.17664e-09
-2.03595e-09
-1.97943e-09
-2.01005e-09
-2.08232e-09
-2.11205e-09
-3.02096e-09
-2.93322e-09
-2.73541e-09
-2.49015e-09
-2.27506e-09
-2.06652e-09
-2.07792e-09
-2.13605e-09
-2.21374e-09
-2.23441e-09
-3.35451e-09
-3.25244e-09
-3.00238e-09
-2.70827e-09
-2.45992e-09
-2.15349e-09
-2.24764e-09
-2.33445e-09
-2.39406e-09
-2.38167e-09
-3.85612e-09
-3.7099e-09
-3.36634e-09
-2.97603e-09
-2.54233e-09
-2.385e-09
-2.56904e-09
-2.63324e-09
-2.60468e-09
-2.52096e-09
-4.13591e-09
-3.98308e-09
-3.56644e-09
-3.0635e-09
-2.7475e-09
-2.61078e-09
-2.63155e-09
-2.7072e-09
-2.69372e-09
-2.61783e-09
-4.27613e-09
-4.14154e-09
-3.79768e-09
-3.37737e-09
-3.08294e-09
-2.77282e-09
-2.75594e-09
-2.73673e-09
-2.68695e-09
-2.63817e-09
-4.37923e-09
-4.25707e-09
-3.95021e-09
-3.57154e-09
-3.27124e-09
-2.97543e-09
-2.89041e-09
-2.81388e-09
-2.75391e-09
-2.72811e-09
-4.43264e-09
-4.32079e-09
-4.0435e-09
-3.71283e-09
-3.45091e-09
-3.1883e-09
-3.03694e-09
-2.92853e-09
-2.86766e-09
-2.8462e-09
-4.4288e-09
-4.30981e-09
-4.05735e-09
-3.77559e-09
-3.56808e-09
-3.33462e-09
-3.13151e-09
-3.00958e-09
-2.94627e-09
-2.91796e-09
-2.94474e-09
-2.84617e-09
-2.64601e-09
-2.36155e-09
-2.03691e-09
-1.83569e-09
-1.65828e-09
-1.60274e-09
-1.6423e-09
-1.68016e-09
-3.06086e-09
-2.95622e-09
-2.73374e-09
-2.42488e-09
-2.06401e-09
-1.84066e-09
-1.71134e-09
-1.69948e-09
-1.75992e-09
-1.78718e-09
-3.29148e-09
-3.17268e-09
-2.92128e-09
-2.5828e-09
-2.22759e-09
-1.96575e-09
-1.91111e-09
-1.90947e-09
-1.93982e-09
-1.92405e-09
-3.64419e-09
-3.50771e-09
-3.20666e-09
-2.85069e-09
-2.57703e-09
-2.16332e-09
-2.19167e-09
-2.16891e-09
-2.12815e-09
-2.05962e-09
-4.15697e-09
-3.9534e-09
-3.57462e-09
-3.22274e-09
-3.05749e-09
-2.32062e-09
-2.45006e-09
-2.40681e-09
-2.29226e-09
-2.19445e-09
-4.47121e-09
-4.28097e-09
-3.85554e-09
-3.33605e-09
-2.83218e-09
-3.1284e-09
-2.84322e-09
-2.65823e-09
-2.50183e-09
-2.3997e-09
-4.58881e-09
-4.43322e-09
-4.10431e-09
-3.71804e-09
-3.31365e-09
-3.19436e-09
-2.98558e-09
-2.82479e-09
-2.70732e-09
-2.6535e-09
-4.70285e-09
-4.56812e-09
-4.2797e-09
-3.94929e-09
-3.63972e-09
-3.39749e-09
-3.204e-09
-3.05522e-09
-2.96247e-09
-2.92806e-09
-4.76661e-09
-4.64233e-09
-4.38794e-09
-4.11368e-09
-3.89376e-09
-3.64155e-09
-3.41855e-09
-3.2739e-09
-3.1925e-09
-3.15418e-09
-4.76142e-09
-4.63462e-09
-4.41347e-09
-4.18531e-09
-4.01203e-09
-3.78006e-09
-3.52764e-09
-3.39018e-09
-3.3116e-09
-3.26056e-09
-3.09777e-09
-2.96916e-09
-2.71335e-09
-2.32401e-09
-1.78895e-09
-1.45305e-09
-1.24213e-09
-1.13218e-09
-1.12876e-09
-1.13815e-09
-3.21673e-09
-3.0848e-09
-2.81566e-09
-2.40887e-09
-1.87839e-09
-1.53082e-09
-1.35543e-09
-1.27439e-09
-1.26734e-09
-1.23922e-09
-3.45516e-09
-3.31701e-09
-3.03872e-09
-2.63559e-09
-2.15829e-09
-1.83183e-09
-1.65598e-09
-1.53842e-09
-1.46773e-09
-1.38699e-09
-3.79868e-09
-3.64413e-09
-3.34961e-09
-2.96945e-09
-2.5973e-09
-2.23445e-09
-2.03242e-09
-1.83489e-09
-1.68017e-09
-1.56832e-09
-4.21673e-09
-4.01726e-09
-3.7077e-09
-3.38593e-09
-3.18833e-09
-2.52908e-09
-2.31231e-09
-2.06663e-09
-1.88305e-09
-1.7934e-09
-4.55067e-09
-4.37395e-09
-4.0783e-09
-3.72073e-09
-3.25386e-09
-3.24969e-09
-2.82121e-09
-2.48374e-09
-2.26432e-09
-2.16711e-09
-4.74372e-09
-4.60184e-09
-4.35495e-09
-4.0705e-09
-3.69168e-09
-3.50531e-09
-3.17416e-09
-2.90597e-09
-2.7332e-09
-2.66323e-09
-4.90289e-09
-4.77729e-09
-4.55639e-09
-4.31561e-09
-4.04187e-09
-3.80523e-09
-3.51701e-09
-3.29964e-09
-3.16131e-09
-3.09912e-09
-4.99041e-09
-4.8745e-09
-4.68341e-09
-4.48018e-09
-4.26049e-09
-4.02812e-09
-3.76446e-09
-3.59011e-09
-3.47747e-09
-3.41388e-09
-4.99797e-09
-4.88964e-09
-4.72599e-09
-4.53775e-09
-4.31291e-09
-4.10087e-09
-3.87045e-09
-3.72853e-09
-3.62914e-09
-3.55002e-09
-3.20564e-09
-3.07108e-09
-2.77557e-09
-2.30797e-09
-1.67133e-09
-1.17024e-09
-8.46915e-10
-5.9943e-10
-4.62209e-10
-3.77604e-10
-3.35091e-09
-3.21918e-09
-2.92488e-09
-2.45909e-09
-1.85989e-09
-1.34363e-09
-1.01637e-09
-7.59628e-10
-5.88459e-10
-4.61509e-10
-3.60344e-09
-3.4719e-09
-3.1931e-09
-2.76329e-09
-2.22655e-09
-1.73998e-09
-1.3779e-09
-1.06466e-09
-8.35081e-10
-6.84858e-10
-3.92639e-09
-3.79179e-09
-3.54484e-09
-3.17361e-09
-2.70852e-09
-2.25385e-09
-1.8378e-09
-1.44789e-09
-1.16987e-09
-1.02378e-09
-4.24137e-09
-4.13066e-09
-3.94674e-09
-3.65389e-09
-3.2921e-09
-2.74924e-09
-2.28249e-09
-1.85006e-09
-1.56715e-09
-1.44558e-09
-4.5835e-09
-4.48173e-09
-4.33027e-09
-4.09679e-09
-3.71527e-09
-3.35491e-09
-2.811e-09
-2.3926e-09
-2.12372e-09
-2.0041e-09
-4.90611e-09
-4.81139e-09
-4.66296e-09
-4.47514e-09
-4.20099e-09
-3.82466e-09
-3.4045e-09
-3.05198e-09
-2.80914e-09
-2.69738e-09
-5.11957e-09
-5.02717e-09
-4.89112e-09
-4.73268e-09
-4.51597e-09
-4.20983e-09
-3.85047e-09
-3.56242e-09
-3.35884e-09
-3.25564e-09
-5.24058e-09
-5.15564e-09
-5.03621e-09
-4.87979e-09
-4.63355e-09
-4.38213e-09
-4.11312e-09
-3.89991e-09
-3.73871e-09
-3.63968e-09
-5.27764e-09
-5.20444e-09
-5.09399e-09
-4.91825e-09
-4.62959e-09
-4.41385e-09
-4.23509e-09
-4.06669e-09
-3.92058e-09
-3.80155e-09
-3.31505e-09
-3.18948e-09
-2.85938e-09
-2.33626e-09
-1.67927e-09
-1.02179e-09
-4.40681e-10
4.33599e-11
3.90112e-10
5.92409e-10
-3.5082e-09
-3.38295e-09
-3.05898e-09
-2.54726e-09
-1.9147e-09
-1.23888e-09
-6.38914e-10
-1.22795e-10
2.60713e-10
4.69405e-10
-3.79188e-09
-3.66815e-09
-3.37388e-09
-2.91403e-09
-2.34059e-09
-1.66625e-09
-1.07224e-09
-5.26393e-10
-1.26157e-10
6.81039e-11
-4.13292e-09
-4.02436e-09
-3.79542e-09
-3.42738e-09
-2.9485e-09
-2.24644e-09
-1.67578e-09
-1.10936e-09
-7.03916e-10
-5.19687e-10
-4.47148e-09
-4.42838e-09
-4.31064e-09
-4.07086e-09
-3.76052e-09
-2.90851e-09
-2.35594e-09
-1.80328e-09
-1.39072e-09
-1.19392e-09
-4.84767e-09
-4.80627e-09
-4.70816e-09
-4.48631e-09
-4.10329e-09
-3.86431e-09
-3.07281e-09
-2.51107e-09
-2.12253e-09
-1.92947e-09
-5.24607e-09
-5.19028e-09
-5.10158e-09
-4.96194e-09
-4.72476e-09
-4.31909e-09
-3.74547e-09
-3.27698e-09
-2.93182e-09
-2.75845e-09
-5.50306e-09
-5.44159e-09
-5.36327e-09
-5.24681e-09
-5.05131e-09
-4.69156e-09
-4.23784e-09
-3.85359e-09
-3.56432e-09
-3.40825e-09
-5.65971e-09
-5.60158e-09
-5.52801e-09
-5.39418e-09
-5.15311e-09
-4.85472e-09
-4.53773e-09
-4.24105e-09
-3.99766e-09
-3.84429e-09
-5.73045e-09
-5.67991e-09
-5.60134e-09
-5.44268e-09
-5.18508e-09
-4.93003e-09
-4.70131e-09
-4.43852e-09
-4.20103e-09
-4.03559e-09
-3.38444e-09
-3.23571e-09
-2.84243e-09
-2.24279e-09
-1.51062e-09
-7.21603e-10
1.27925e-10
8.56437e-10
1.40016e-09
1.67893e-09
-3.61948e-09
-3.46238e-09
-3.07478e-09
-2.49238e-09
-1.77482e-09
-9.79467e-10
-1.17441e-10
6.35981e-10
1.18957e-09
1.43106e-09
-3.967e-09
-3.81729e-09
-3.47028e-09
-2.95304e-09
-2.31149e-09
-1.52963e-09
-6.97513e-10
4.54064e-11
5.77829e-10
7.99532e-10
-4.40496e-09
-4.28448e-09
-4.01657e-09
-3.61112e-09
-3.10758e-09
-2.28698e-09
-1.52208e-09
-8.07679e-10
-2.85148e-10
-4.84311e-11
-4.89608e-09
-4.83033e-09
-4.67933e-09
-4.4334e-09
-4.19712e-09
-3.08167e-09
-2.42015e-09
-1.77504e-09
-1.24349e-09
-9.70379e-10
-5.36829e-09
-5.32454e-09
-5.21431e-09
-4.97077e-09
-4.48992e-09
-4.36218e-09
-3.43406e-09
-2.71252e-09
-2.16926e-09
-1.88809e-09
-5.81018e-09
-5.75219e-09
-5.65817e-09
-5.4978e-09
-5.17597e-09
-4.84056e-09
-4.11999e-09
-3.51384e-09
-3.05356e-09
-2.81363e-09
-6.12314e-09
-6.05564e-09
-5.97708e-09
-5.84707e-09
-5.60913e-09
-5.23786e-09
-4.66213e-09
-4.15373e-09
-3.76165e-09
-3.54255e-09
-6.32135e-09
-6.25448e-09
-6.18578e-09
-6.05944e-09
-5.84977e-09
-5.49697e-09
-5.04026e-09
-4.60419e-09
-4.24572e-09
-4.03411e-09
-6.42516e-09
-6.36438e-09
-6.29532e-09
-6.16791e-09
-5.99239e-09
-5.66656e-09
-5.24528e-09
-4.82391e-09
-4.47351e-09
-4.2708e-09
-3.30583e-09
-3.07762e-09
-2.58785e-09
-1.88057e-09
-9.96028e-10
-7.00285e-11
9.37624e-10
1.84309e-09
2.51553e-09
2.82802e-09
-3.57306e-09
-3.34395e-09
-2.87116e-09
-2.20025e-09
-1.36595e-09
-4.48456e-10
5.81427e-10
1.4938e-09
2.15426e-09
2.42491e-09
-4.04604e-09
-3.84512e-09
-3.42828e-09
-2.83628e-09
-2.09229e-09
-1.24729e-09
-2.02725e-10
6.84271e-10
1.32023e-09
1.5944e-09
-4.6746e-09
-4.51447e-09
-4.17767e-09
-3.68137e-09
-3.03418e-09
-2.29932e-09
-1.26926e-09
-4.15052e-10
2.18736e-10
5.24972e-10
-5.39662e-09
-5.26903e-09
-5.01578e-09
-4.61222e-09
-4.13614e-09
-3.33224e-09
-2.41225e-09
-1.60759e-09
-9.66377e-10
-6.35049e-10
-6.03893e-09
-5.95604e-09
-5.79873e-09
-5.5259e-09
-4.99078e-09
-4.35421e-09
-3.5725e-09
-2.76677e-09
-2.10912e-09
-1.7661e-09
-6.58744e-09
-6.47677e-09
-6.30804e-09
-6.06019e-09
-5.64169e-09
-5.17444e-09
-4.39969e-09
-3.66946e-09
-3.10234e-09
-2.79938e-09
-6.99795e-09
-6.87332e-09
-6.73546e-09
-6.53636e-09
-6.21131e-09
-5.75974e-09
-5.064e-09
-4.41681e-09
-3.91197e-09
-3.63344e-09
-7.26718e-09
-7.15251e-09
-7.04915e-09
-6.89121e-09
-6.64488e-09
-6.19194e-09
-5.54848e-09
-4.94631e-09
-4.47022e-09
-4.21277e-09
-7.42503e-09
-7.33049e-09
-7.24236e-09
-7.10065e-09
-6.89206e-09
-6.44181e-09
-5.78796e-09
-5.19835e-09
-4.74517e-09
-4.49841e-09
-3.02517e-09
-2.69992e-09
-2.1013e-09
-1.26736e-09
-2.27029e-10
8.84972e-10
2.0108e-09
3.05498e-09
3.82995e-09
4.197e-09
-3.36361e-09
-3.06532e-09
-2.49919e-09
-1.71964e-09
-7.67029e-10
3.35944e-10
1.50439e-09
2.55132e-09
3.32404e-09
3.67972e-09
-4.0476e-09
-3.79728e-09
-3.29075e-09
-2.58679e-09
-1.70856e-09
-7.11201e-10
5.23337e-10
1.5604e-09
2.32613e-09
2.69649e-09
-4.95294e-09
-4.74319e-09
-4.30443e-09
-3.66538e-09
-2.80984e-09
-2.07723e-09
-7.759e-10
2.59912e-10
1.0256e-09
1.41332e-09
-5.96752e-09
-5.76195e-09
-5.36511e-09
-4.74538e-09
-3.91169e-09
-3.59528e-09
-2.26792e-09
-1.19128e-09
-4.14694e-10
-2.07088e-11
-6.86764e-09
-6.70066e-09
-6.4237e-09
-6.07414e-09
-5.64215e-09
-4.18962e-09
-3.45183e-09
-2.551e-09
-1.81086e-09
-1.42272e-09
-7.61356e-09
-7.40691e-09
-7.11684e-09
-6.74154e-09
-6.27336e-09
-5.41047e-09
-4.55425e-09
-3.68688e-09
-3.00943e-09
-2.64253e-09
-8.19935e-09
-7.99308e-09
-7.75804e-09
-7.42966e-09
-6.96329e-09
-6.26532e-09
-5.42331e-09
-4.61528e-09
-3.98933e-09
-3.65283e-09
-8.62315e-09
-8.45134e-09
-8.26807e-09
-7.98181e-09
-7.54448e-09
-6.87825e-09
-6.04123e-09
-5.26599e-09
-4.6738e-09
-4.35239e-09
-8.89465e-09
-8.76369e-09
-8.59426e-09
-8.30652e-09
-7.86018e-09
-7.1897e-09
-6.33789e-09
-5.58366e-09
-5.00836e-09
-4.67848e-09
-2.59886e-09
-2.20053e-09
-1.4619e-09
-4.43109e-10
7.7559e-10
2.14872e-09
3.4949e-09
4.72813e-09
5.66134e-09
6.14418e-09
-3.09343e-09
-2.73418e-09
-2.02081e-09
-1.04716e-09
9.74882e-11
1.46868e-09
2.85657e-09
4.10579e-09
5.05952e-09
5.54805e-09
-4.05747e-09
-3.73549e-09
-3.06261e-09
-2.14463e-09
-1.04349e-09
2.50956e-10
1.70112e-09
2.95864e-09
3.90646e-09
4.38908e-09
-5.29499e-09
-4.99011e-09
-4.37432e-09
-3.52597e-09
-2.44707e-09
-1.39834e-09
1.47206e-10
1.42391e-09
2.35359e-09
2.82963e-09
-6.63693e-09
-6.31006e-09
-5.75061e-09
-4.96509e-09
-3.89598e-09
-3.4896e-09
-1.75738e-09
-3.89479e-10
5.55984e-10
1.04756e-09
-7.92685e-09
-7.61565e-09
-7.14738e-09
-6.62026e-09
-6.18718e-09
-4.27954e-09
-3.1661e-09
-2.04905e-09
-1.18725e-09
-7.20364e-10
-9.01634e-09
-8.7063e-09
-8.26801e-09
-7.69566e-09
-7.05789e-09
-5.7514e-09
-4.63273e-09
-3.55423e-09
-2.72602e-09
-2.27479e-09
-9.93702e-09
-9.66185e-09
-9.28026e-09
-8.71479e-09
-7.97849e-09
-6.89655e-09
-5.79787e-09
-4.76761e-09
-3.98321e-09
-3.55278e-09
-1.06538e-08
-1.04264e-08
-1.00741e-08
-9.50725e-09
-8.71726e-09
-7.70237e-09
-6.60941e-09
-5.61092e-09
-4.84637e-09
-4.40811e-09
-1.11081e-08
-1.09161e-08
-1.05492e-08
-9.94791e-09
-9.1088e-09
-8.09871e-09
-7.00858e-09
-6.02124e-09
-5.24993e-09
-4.80563e-09
-2.08514e-09
-1.60267e-09
-6.26668e-10
7.08851e-10
2.24427e-09
3.97809e-09
5.69833e-09
7.23387e-09
8.41039e-09
9.03894e-09
-2.79908e-09
-2.32512e-09
-1.34802e-09
-3.32953e-11
1.47371e-09
3.20788e-09
4.95083e-09
6.51434e-09
7.70849e-09
8.32076e-09
-4.08116e-09
-3.6116e-09
-2.65831e-09
-1.38709e-09
1.01581e-10
1.80949e-09
3.57381e-09
5.13896e-09
6.30294e-09
6.88652e-09
-5.71504e-09
-5.2444e-09
-4.36325e-09
-3.1929e-09
-1.75874e-09
-1.54771e-10
1.6671e-09
3.22915e-09
4.3586e-09
4.93943e-09
-7.48157e-09
-7.01875e-09
-6.2626e-09
-5.23179e-09
-3.81842e-09
-2.68657e-09
-6.94428e-10
9.18843e-10
2.07708e-09
2.70191e-09
-9.35432e-09
-8.90053e-09
-8.19804e-09
-7.30801e-09
-6.38917e-09
-4.35486e-09
-2.69669e-09
-1.25715e-09
-1.78128e-10
4.24083e-10
-1.10489e-08
-1.06469e-08
-9.98387e-09
-9.04244e-09
-7.94358e-09
-6.23651e-09
-4.67842e-09
-3.27895e-09
-2.22535e-09
-1.64965e-09
-1.25227e-08
-1.21641e-08
-1.15152e-08
-1.05398e-08
-9.34075e-09
-7.79162e-09
-6.27026e-09
-4.91067e-09
-3.88292e-09
-3.30311e-09
-1.36611e-08
-1.33222e-08
-1.26549e-08
-1.1641e-08
-1.03581e-08
-8.87057e-09
-7.37427e-09
-6.03166e-09
-4.99645e-09
-4.41197e-09
-1.43258e-08
-1.3986e-08
-1.32826e-08
-1.22256e-08
-1.0891e-08
-9.41211e-09
-7.92452e-09
-6.57238e-09
-5.53328e-09
-4.97472e-09
-1.40936e-09
-7.52231e-10
5.93639e-10
2.40156e-09
4.46146e-09
6.70373e-09
8.94128e-09
1.09073e-08
1.23825e-08
1.31407e-08
-2.35728e-09
-1.66818e-09
-3.14128e-10
1.47739e-09
3.53548e-09
5.78484e-09
8.03661e-09
1.00215e-08
1.14801e-08
1.21953e-08
-4.03343e-09
-3.33889e-09
-2.02045e-09
-2.74309e-10
1.78209e-09
4.03933e-09
6.28226e-09
8.24474e-09
9.66195e-09
1.03659e-08
-6.24184e-09
-5.56735e-09
-4.3449e-09
-2.69655e-09
-6.82677e-10
1.57923e-09
3.82657e-09
5.75672e-09
7.15834e-09
7.88545e-09
-8.73771e-09
-8.13709e-09
-7.07111e-09
-5.53872e-09
-3.49383e-09
-1.45833e-09
8.45457e-10
2.782e-09
4.22629e-09
4.99494e-09
-1.144e-08
-1.08577e-08
-9.8216e-09
-8.33368e-09
-6.54842e-09
-4.20868e-09
-2.01247e-09
-1.44218e-10
1.24851e-09
2.00883e-09
-1.40151e-08
-1.3469e-08
-1.24156e-08
-1.08776e-08
-9.05463e-09
-6.83846e-09
-4.70795e-09
-2.86874e-09
-1.50288e-09
-7.59067e-10
-1.623e-08
-1.56844e-08
-1.45926e-08
-1.30158e-08
-1.11387e-08
-8.99586e-09
-6.90303e-09
-5.08668e-09
-3.71861e-09
-2.96302e-09
-1.78701e-08
-1.72996e-08
-1.61691e-08
-1.45571e-08
-1.26159e-08
-1.05034e-08
-8.4407e-09
-6.61632e-09
-5.23971e-09
-4.51237e-09
-1.87545e-08
-1.81634e-08
-1.70105e-08
-1.53735e-08
-1.34003e-08
-1.12892e-08
-9.21987e-09
-7.3868e-09
-6.03507e-09
-5.3613e-09
-3.98439e-10
5.472e-10
2.3684e-09
4.78879e-09
7.58916e-09
1.05528e-08
1.34786e-08
1.60036e-08
1.78214e-08
1.87208e-08
-1.61788e-09
-6.42598e-10
1.16021e-09
3.55189e-09
6.35306e-09
9.34383e-09
1.22873e-08
1.48009e-08
1.65809e-08
1.74618e-08
-3.88272e-09
-2.92874e-09
-1.17832e-09
1.18104e-09
3.99094e-09
7.01055e-09
9.934e-09
1.242e-08
1.42e-08
1.5116e-08
-6.98185e-09
-6.07622e-09
-4.40432e-09
-2.0856e-09
7.16217e-10
3.78233e-09
6.682e-09
9.14474e-09
1.09478e-08
1.18874e-08
-1.06162e-08
-9.79382e-09
-8.22246e-09
-5.92576e-09
-3.05293e-09
-7.45718e-11
2.82958e-09
5.28447e-09
7.10604e-09
8.04925e-09
-1.44555e-08
-1.36498e-08
-1.2079e-08
-9.76196e-09
-6.98017e-09
-4.006e-09
-1.11746e-09
1.33844e-09
3.13367e-09
4.07912e-09
-1.81495e-08
-1.73221e-08
-1.568e-08
-1.33336e-08
-1.05653e-08
-7.61469e-09
-4.77163e-09
-2.35221e-09
-5.70422e-10
3.8709e-10
-2.1285e-08
-2.04132e-08
-1.87237e-08
-1.63617e-08
-1.35637e-08
-1.06132e-08
-7.81673e-09
-5.40093e-09
-3.60658e-09
-2.66033e-09
-2.35454e-08
-2.2643e-08
-2.09352e-08
-1.85617e-08
-1.57398e-08
-1.27823e-08
-9.99359e-09
-7.56259e-09
-5.78393e-09
-4.88829e-09
-2.47316e-08
-2.38281e-08
-2.21212e-08
-1.97404e-08
-1.69056e-08
-1.39435e-08
-1.11295e-08
-8.7067e-09
-6.97001e-09
-6.11893e-09
1.0646e-09
2.36808e-09
4.76504e-09
7.98893e-09
1.18021e-08
1.57666e-08
1.96176e-08
2.28616e-08
2.51473e-08
2.63073e-08
-5.66737e-10
7.25223e-10
3.08441e-09
6.29302e-09
1.01175e-08
1.41205e-08
1.79756e-08
2.11897e-08
2.3476e-08
2.46808e-08
-3.72308e-09
-2.46993e-09
-1.38591e-10
3.08137e-09
6.91586e-09
1.09522e-08
1.47882e-08
1.8015e-08
2.0366e-08
2.16129e-08
-8.08229e-09
-6.85667e-09
-4.53626e-09
-1.29244e-09
2.54704e-09
6.63542e-09
1.04545e-08
1.36935e-08
1.60746e-08
1.73086e-08
-1.32043e-08
-1.20004e-08
-9.68013e-09
-6.39378e-09
-2.48786e-09
1.61065e-09
5.39749e-09
8.6167e-09
1.09717e-08
1.21859e-08
-1.85878e-08
-1.73888e-08
-1.50451e-08
-1.16871e-08
-7.73391e-09
-3.81601e-09
-3.37017e-11
3.23497e-09
5.60175e-09
6.83445e-09
-2.37419e-08
-2.24944e-08
-2.00915e-08
-1.67368e-08
-1.27733e-08
-8.82585e-09
-5.04885e-09
-1.81668e-09
5.44613e-10
1.78279e-09
-2.81001e-08
-2.68146e-08
-2.43948e-08
-2.10433e-08
-1.70612e-08
-1.30333e-08
-9.28833e-09
-6.05756e-09
-3.70274e-09
-2.49532e-09
-3.12373e-08
-2.99478e-08
-2.75285e-08
-2.41778e-08
-2.0204e-08
-1.61284e-08
-1.23649e-08
-9.13675e-09
-6.81262e-09
-5.6407e-09
-3.28926e-08
-3.16166e-08
-2.92024e-08
-2.58464e-08
-2.1863e-08
-1.77805e-08
-1.39985e-08
-1.07881e-08
-8.49571e-09
-7.32074e-09
2.99793e-09
4.71637e-09
7.88748e-09
1.22482e-08
1.74627e-08
2.27931e-08
2.78706e-08
3.21057e-08
3.51356e-08
3.6749e-08
7.25521e-10
2.41175e-09
5.57253e-09
9.95886e-09
1.51911e-08
2.05446e-08
2.56086e-08
2.98477e-08
3.29424e-08
3.461e-08
-3.67192e-09
-1.99613e-09
1.19014e-09
5.61838e-09
1.08449e-08
1.6212e-08
2.13012e-08
2.56134e-08
2.87824e-08
3.04429e-08
-9.70615e-09
-8.00767e-09
-4.77419e-09
-3.02028e-10
4.92478e-09
1.02869e-08
1.54397e-08
1.98001e-08
2.29757e-08
2.45984e-08
-1.676e-08
-1.50253e-08
-1.17148e-08
-7.19872e-09
-1.94521e-09
3.39102e-09
8.57702e-09
1.29675e-08
1.61181e-08
1.77194e-08
-2.4242e-08
-2.25108e-08
-1.91889e-08
-1.46303e-08
-9.36924e-09
-3.84304e-09
1.17333e-09
5.59844e-09
8.79515e-09
1.04418e-08
-3.13916e-08
-2.96313e-08
-2.62961e-08
-2.17095e-08
-1.63155e-08
-1.09102e-08
-5.78409e-09
-1.38368e-09
1.79776e-09
3.43389e-09
-3.74423e-08
-3.56722e-08
-3.23375e-08
-2.77359e-08
-2.22836e-08
-1.67992e-08
-1.16683e-08
-7.28393e-09
-4.12047e-09
-2.49767e-09
-4.18148e-08
-4.00449e-08
-3.67077e-08
-3.20962e-08
-2.663e-08
-2.10844e-08
-1.59485e-08
-1.15867e-08
-8.44615e-09
-6.81738e-09
-4.41187e-08
-4.23527e-08
-3.90172e-08
-3.43918e-08
-2.89021e-08
-2.33446e-08
-1.82272e-08
-1.38839e-08
-1.07431e-08
-9.09489e-09
5.46789e-09
7.7436e-09
1.20358e-08
1.79896e-08
2.50726e-08
3.22696e-08
3.90114e-08
4.46965e-08
4.88429e-08
5.10586e-08
2.30445e-09
4.57561e-09
8.89801e-09
1.48886e-08
2.19673e-08
2.91755e-08
3.59328e-08
4.16766e-08
4.58842e-08
4.809e-08
-3.74539e-09
-1.44861e-09
2.91649e-09
8.93466e-09
1.60026e-08
2.32194e-08
3.00766e-08
3.59056e-08
4.0138e-08
4.23126e-08
-1.20503e-08
-9.72033e-09
-5.3012e-09
7.5376e-10
7.84725e-09
1.49826e-08
2.20176e-08
2.79153e-08
3.21537e-08
3.43104e-08
-2.1817e-08
-1.94344e-08
-1.49099e-08
-8.81473e-09
-1.65091e-09
5.22334e-09
1.24915e-08
1.85206e-08
2.27808e-08
2.49283e-08
-3.21434e-08
-2.97604e-08
-2.52389e-08
-1.91939e-08
-1.23105e-08
-4.36055e-09
2.51293e-09
8.50555e-09
1.28056e-08
1.50134e-08
-4.19864e-08
-3.95959e-08
-3.508e-08
-2.89102e-08
-2.17096e-08
-1.41569e-08
-7.12569e-09
-1.12866e-09
3.19358e-09
5.42537e-09
-5.03221e-08
-4.79229e-08
-4.34009e-08
-3.71777e-08
-2.98315e-08
-2.23093e-08
-1.52525e-08
-9.25988e-09
-4.92783e-09
-2.67715e-09
-5.63478e-08
-5.3937e-08
-4.94072e-08
-4.31512e-08
-3.57304e-08
-2.8183e-08
-2.11536e-08
-1.51786e-08
-1.08439e-08
-8.57472e-09
-5.95105e-08
-5.71064e-08
-5.25774e-08
-4.62996e-08
-3.88502e-08
-3.12883e-08
-2.42989e-08
-1.83276e-08
-1.39781e-08
-1.17331e-08
8.73953e-09
1.18268e-08
1.76748e-08
2.57421e-08
3.52527e-08
4.5002e-08
5.41073e-08
6.18635e-08
6.75067e-08
7.04529e-08
4.40648e-09
7.51375e-09
1.33877e-08
2.1468e-08
3.09708e-08
4.07534e-08
4.99208e-08
5.77286e-08
6.33695e-08
6.62827e-08
-3.88219e-09
-7.58218e-10
5.13831e-09
1.32419e-08
2.27854e-08
3.26198e-08
4.18903e-08
4.97378e-08
5.53903e-08
5.8317e-08
-1.53354e-08
-1.22025e-08
-6.25671e-09
1.90415e-09
1.15466e-08
2.13429e-08
3.07867e-08
3.87016e-08
4.4405e-08
4.73612e-08
-2.8877e-08
-2.5685e-08
-1.96448e-08
-1.13977e-08
-1.48377e-09
7.93975e-09
1.7627e-08
2.57106e-08
3.15056e-08
3.45033e-08
-4.30639e-08
-3.98418e-08
-3.37697e-08
-2.55748e-08
-1.60987e-08
-5.33503e-09
4.02814e-09
1.20958e-08
1.7921e-08
2.0981e-08
-5.65227e-08
-5.33025e-08
-4.72352e-08
-3.88989e-08
-2.91557e-08
-1.8781e-08
-9.20095e-09
-1.03916e-09
4.88213e-09
7.98509e-09
-6.79385e-08
-6.47061e-08
-5.86261e-08
-5.02275e-08
-4.03176e-08
-3.00066e-08
-2.037e-08
-1.21632e-08
-6.19333e-09
-3.07089e-09
-7.62141e-08
-7.29802e-08
-6.68811e-08
-5.84353e-08
-4.8442e-08
-3.81308e-08
-2.85026e-08
-2.0275e-08
-1.42826e-08
-1.11746e-08
-8.05791e-08
-7.73653e-08
-7.12538e-08
-6.27849e-08
-5.27889e-08
-4.24675e-08
-3.28329e-08
-2.45836e-08
-1.86041e-08
-1.55184e-08
1.32587e-08
1.74603e-08
2.53641e-08
3.62181e-08
4.89665e-08
6.21806e-08
7.46169e-08
8.51867e-08
9.28073e-08
9.67699e-08
7.34341e-09
1.1545e-08
1.94516e-08
3.03226e-08
4.31116e-08
5.63961e-08
6.88804e-08
7.94513e-08
8.70656e-08
9.10539e-08
-4.03439e-09
1.60361e-10
8.09526e-09
1.90333e-08
3.1938e-08
4.53286e-08
5.7837e-08
6.84376e-08
7.61205e-08
8.01693e-08
-1.97836e-08
-1.55788e-08
-7.58426e-09
3.44154e-09
1.64687e-08
2.99751e-08
4.2583e-08
5.32804e-08
6.10821e-08
6.52037e-08
-3.8348e-08
-3.41003e-08
-2.60645e-08
-1.49231e-08
-1.56955e-09
1.17597e-08
2.45482e-08
3.54454e-08
4.34334e-08
4.76554e-08
-5.78025e-08
-5.34963e-08
-4.53733e-08
-3.41633e-08
-2.10498e-08
-6.99541e-09
5.7883e-09
1.68078e-08
2.48634e-08
2.91602e-08
-7.62462e-08
-7.19403e-08
-6.37976e-08
-5.25091e-08
-3.92542e-08
-2.52791e-08
-1.21804e-08
-9.90277e-10
7.16545e-09
1.14595e-08
-9.1933e-08
-8.76195e-08
-7.94341e-08
-6.80806e-08
-5.47018e-08
-4.0666e-08
-2.74671e-08
-1.61876e-08
-7.96727e-09
-3.67175e-09
-1.03358e-07
-9.90459e-08
-9.08045e-08
-7.9396e-08
-6.59796e-08
-5.19023e-08
-3.86374e-08
-2.7296e-08
-1.90586e-08
-1.47732e-08
-1.09409e-07
-1.051e-07
-9.68173e-08
-8.53875e-08
-7.19697e-08
-5.78869e-08
-4.4548e-08
-3.3189e-08
-2.49681e-08
-2.06477e-08
1.95722e-08
2.52409e-08
3.58982e-08
5.05401e-08
6.77276e-08
8.56258e-08
1.02583e-07
1.16934e-07
1.27296e-07
1.32745e-07
1.14624e-08
1.71135e-08
2.7787e-08
4.24801e-08
5.97558e-08
7.77616e-08
9.47094e-08
1.09076e-07
1.19498e-07
1.25e-07
-4.13036e-09
1.52399e-09
1.22567e-08
2.70568e-08
4.44553e-08
6.26191e-08
7.95771e-08
9.40444e-08
1.04585e-07
1.10156e-07
-2.56639e-08
-1.9985e-08
-9.19435e-09
5.6899e-09
2.31461e-08
4.15673e-08
5.86951e-08
7.33487e-08
8.40669e-08
8.97454e-08
-5.09732e-08
-4.53154e-08
-3.45339e-08
-1.95608e-08
-1.92939e-09
1.65922e-08
3.40977e-08
4.90454e-08
6.00146e-08
6.58025e-08
-7.76302e-08
-7.192e-08
-6.10073e-08
-4.58118e-08
-2.81162e-08
-9.45755e-09
8.32368e-09
2.35198e-08
3.46232e-08
4.05005e-08
-1.03001e-07
-9.72387e-08
-8.62361e-08
-7.09566e-08
-5.29918e-08
-3.41151e-08
-1.60991e-08
-7.27366e-10
1.04559e-08
1.63284e-08
-1.2462e-07
-1.1882e-07
-1.07705e-07
-9.2324e-08
-7.42507e-08
-5.5168e-08
-3.70095e-08
-2.15107e-08
-1.02431e-08
-4.34308e-09
-1.40386e-07
-1.34552e-07
-1.23336e-07
-1.07883e-07
-8.97523e-08
-7.05572e-08
-5.22813e-08
-3.67146e-08
-2.54155e-08
-1.94659e-08
-1.48713e-07
-1.42835e-07
-1.31565e-07
-1.16075e-07
-9.78606e-08
-7.86493e-08
-6.03299e-08
-4.47638e-08
-3.3432e-08
-2.7446e-08
2.83962e-08
3.60489e-08
5.04874e-08
7.03218e-08
9.35977e-08
1.1784e-07
1.40833e-07
1.60327e-07
1.74475e-07
1.81921e-07
1.72915e-08