/*--------------------------------*- C++ -*----------------------------------*\
  =========                 |
  \\      /  F ield         | OpenFOAM: The Open Source CFD Toolbox
   \\    /   O peration     | Website:  https://openfoam.org
    \\  /    A nd           | Version:  9
     \\/     M anipulation  |
\*---------------------------------------------------------------------------*/
FoamFile
{
    format      ascii;
    class       volVectorField;
    location    "0.03";
    object      stored_U;
}
// * * * * * * * * * * * * * * * * * * * * * * * * * * * * * * * * * * * * * //

dimensions      [0 1 -1 0 0 0 0];

internalField   nonuniform List<vector> 
9000
(
(-1.99988e-11 -2.24846e-11 -0.000999998)
(-6.04492e-11 -2.24971e-11 -0.000999998)
(-9.66421e-11 -2.24025e-11 -0.000999998)
(-1.25626e-10 -2.21436e-11 -0.000999998)
(-1.41587e-10 -2.02324e-11 -0.000999999)
(-1.40261e-10 -1.8883e-11 -0.000999999)
(-1.28554e-10 -2.04168e-11 -0.000999999)
(-1.05564e-10 -2.0472e-11 -0.000999999)
(-6.89985e-11 -2.05826e-11 -0.001)
(-2.38658e-11 -2.06472e-11 -0.001)
(-2.00078e-11 -6.62642e-11 -0.000999998)
(-6.04704e-11 -6.5516e-11 -0.000999998)
(-9.65068e-11 -6.51629e-11 -0.000999998)
(-1.23703e-10 -6.44412e-11 -0.000999998)
(-1.38607e-10 -6.01229e-11 -0.000999999)
(-1.40754e-10 -5.22124e-11 -0.000999999)
(-1.30446e-10 -5.97065e-11 -0.000999999)
(-1.05967e-10 -5.93252e-11 -0.000999999)
(-6.93407e-11 -5.93805e-11 -0.001)
(-2.39994e-11 -5.98067e-11 -0.001)
(-1.91405e-11 -1.03074e-10 -0.000999998)
(-5.93413e-11 -1.02003e-10 -0.000999998)
(-9.57764e-11 -1.02642e-10 -0.000999998)
(-1.20836e-10 -1.04263e-10 -0.000999999)
(-1.29647e-10 -1.05865e-10 -0.000999999)
(-1.40156e-10 -7.16515e-11 -0.000999999)
(-1.35964e-10 -9.36835e-11 -0.000999999)
(-1.05474e-10 -9.35624e-11 -0.001)
(-6.974e-11 -9.36443e-11 -0.001)
(-2.44462e-11 -9.49021e-11 -0.001)
(-1.87268e-11 -1.2565e-10 -0.000999998)
(-5.98311e-11 -1.26046e-10 -0.000999998)
(-9.87681e-11 -1.28698e-10 -0.000999999)
(-1.26934e-10 -1.38667e-10 -0.000999999)
(-1.0608e-10 -1.71474e-10 -0.000999999)
(-1.28616e-10 -4.90215e-11 -0.000999999)
(-1.52368e-10 -1.0539e-10 -0.001)
(-1.05937e-10 -1.1731e-10 -0.001)
(-7.087e-11 -1.22188e-10 -0.001)
(-2.54328e-11 -1.25646e-10 -0.001)
(-1.93191e-11 -1.49083e-10 -0.000999999)
(-6.21666e-11 -1.48819e-10 -0.000999999)
(-1.08389e-10 -1.44595e-10 -0.000999999)
(-1.63574e-10 -1.2616e-10 -0.000999999)
(-4.00607e-11 -6.25255e-11 -0.001)
(-7.43301e-11 -2.14686e-10 -0.000999999)
(-2.04393e-10 -1.46175e-10 -0.001)
(-1.22282e-10 -1.42616e-10 -0.001)
(-7.83229e-11 -1.47146e-10 -0.001)
(-2.8119e-11 -1.50026e-10 -0.001)
(-1.81975e-11 -1.68779e-10 -0.000999999)
(-5.50649e-11 -1.71349e-10 -0.000999999)
(-7.60021e-11 -1.6963e-10 -0.000999999)
(-4.47268e-11 -1.57752e-10 -0.000999999)
(-1.94613e-10 -1.0658e-10 -0.000999999)
(-2.12596e-10 -2.45778e-10 -0.001)
(-8.03636e-11 -1.78827e-10 -0.001)
(-1.06954e-10 -1.69528e-10 -0.001)
(-7.85801e-11 -1.67718e-10 -0.001)
(-2.86195e-11 -1.65241e-10 -0.001)
(-2.15411e-11 -1.57878e-10 -0.000999999)
(-6.26629e-11 -1.6202e-10 -0.000999999)
(-9.4776e-11 -1.64291e-10 -0.001)
(-1.00296e-10 -1.78031e-10 -0.001)
(-1.27713e-10 -2.30277e-10 -0.001)
(-1.46601e-10 -1.08506e-10 -0.001)
(-1.28409e-10 -1.57964e-10 -0.001)
(-1.11169e-10 -1.64855e-10 -0.001)
(-7.43611e-11 -1.61997e-10 -0.001)
(-2.60062e-11 -1.57484e-10 -0.001)
(-2.19862e-11 -1.22939e-10 -0.001)
(-6.11269e-11 -1.23312e-10 -0.001)
(-9.20047e-11 -1.19514e-10 -0.001)
(-1.10689e-10 -1.16566e-10 -0.001)
(-1.25078e-10 -1.28686e-10 -0.001)
(-1.40036e-10 -1.16589e-10 -0.001)
(-1.36684e-10 -1.26643e-10 -0.001)
(-1.10976e-10 -1.28859e-10 -0.001)
(-7.15774e-11 -1.27315e-10 -0.001)
(-2.44917e-11 -1.24743e-10 -0.001)
(-2.16259e-11 -7.72355e-11 -0.001)
(-5.89516e-11 -7.62224e-11 -0.001)
(-8.80186e-11 -7.35234e-11 -0.001)
(-1.09455e-10 -7.02857e-11 -0.001)
(-1.27673e-10 -7.06954e-11 -0.001)
(-1.44529e-10 -7.42106e-11 -0.001)
(-1.4066e-10 -7.91627e-11 -0.001)
(-1.11843e-10 -8.10427e-11 -0.001)
(-7.05307e-11 -8.05207e-11 -0.001)
(-2.3718e-11 -7.9061e-11 -0.001)
(-2.07596e-11 -2.60873e-11 -0.001)
(-5.7133e-11 -2.53154e-11 -0.001)
(-8.58989e-11 -2.44295e-11 -0.001)
(-1.07649e-10 -2.33598e-11 -0.001)
(-1.28738e-10 -2.28281e-11 -0.001)
(-1.48152e-10 -2.46746e-11 -0.001)
(-1.43162e-10 -2.67867e-11 -0.001)
(-1.12073e-10 -2.75238e-11 -0.001)
(-6.96153e-11 -2.72746e-11 -0.001)
(-2.31508e-11 -2.67003e-11 -0.001)
(-5.75328e-11 -6.59713e-11 -0.000999998)
(-1.75619e-10 -6.6556e-11 -0.000999998)
(-2.80351e-10 -6.60254e-11 -0.000999998)
(-3.57708e-10 -6.48299e-11 -0.000999998)
(-4.09584e-10 -5.95574e-11 -0.000999999)
(-4.17092e-10 -5.85083e-11 -0.000999999)
(-3.82974e-10 -6.09891e-11 -0.000999999)
(-3.13504e-10 -6.16124e-11 -0.000999999)
(-2.04143e-10 -6.17866e-11 -0.001)
(-7.05955e-11 -6.19187e-11 -0.001)
(-5.81032e-11 -1.97842e-10 -0.000999998)
(-1.75931e-10 -1.97291e-10 -0.000999998)
(-2.79174e-10 -1.96192e-10 -0.000999998)
(-3.51898e-10 -1.93336e-10 -0.000999998)
(-4.04054e-10 -1.81957e-10 -0.000999999)
(-4.19412e-10 -1.7202e-10 -0.000999999)
(-3.86924e-10 -1.81887e-10 -0.000999999)
(-3.14951e-10 -1.81028e-10 -0.000999999)
(-2.04932e-10 -1.80077e-10 -0.001)
(-7.09598e-11 -1.80669e-10 -0.001)
(-5.66804e-11 -3.1176e-10 -0.000999998)
(-1.73933e-10 -3.11592e-10 -0.000999998)
(-2.76941e-10 -3.13232e-10 -0.000999998)
(-3.44154e-10 -3.15442e-10 -0.000999999)
(-3.89079e-10 -3.20398e-10 -0.000999999)
(-4.17905e-10 -2.58436e-10 -0.000999999)
(-3.92806e-10 -2.90055e-10 -0.000999999)
(-3.12343e-10 -2.8851e-10 -0.001)
(-2.04535e-10 -2.86833e-10 -0.001)
(-7.16707e-11 -2.88307e-10 -0.001)
(-5.73596e-11 -3.85502e-10 -0.000999998)
(-1.76822e-10 -3.90932e-10 -0.000999998)
(-2.83025e-10 -3.97135e-10 -0.000999999)
(-3.5908e-10 -4.19723e-10 -0.000999999)
(-3.46992e-10 -5.16904e-10 -0.000999999)
(-3.89055e-10 -2.31241e-10 -0.000999999)
(-4.17013e-10 -3.27981e-10 -0.001)
(-3.11756e-10 -3.57549e-10 -0.001)
(-2.05299e-10 -3.71072e-10 -0.001)
(-7.29748e-11 -3.77709e-10 -0.001)
(-6.14544e-11 -4.49422e-10 -0.000999999)
(-1.84886e-10 -4.54575e-10 -0.000999999)
(-3.05718e-10 -4.52766e-10 -0.000999999)
(-4.63962e-10 -4.24619e-10 -0.000999999)
(-2.00633e-10 -2.86323e-10 -0.000999999)
(-2.28745e-10 -5.78502e-10 -0.001)
(-5.18975e-10 -4.68363e-10 -0.001)
(-3.55445e-10 -4.43002e-10 -0.001)
(-2.25402e-10 -4.42841e-10 -0.001)
(-7.89984e-11 -4.44052e-10 -0.001)
(-6.17046e-11 -4.92665e-10 -0.000999999)
(-1.79334e-10 -4.9748e-10 -0.000999999)
(-2.5315e-10 -4.94568e-10 -0.000999999)
(-1.92717e-10 -4.70336e-10 -0.001)
(-5.00878e-10 -3.26913e-10 -0.001)
(-5.7121e-10 -6.74962e-10 -0.001)
(-2.81494e-10 -5.47091e-10 -0.001)
(-2.86209e-10 -5.07488e-10 -0.001)
(-2.07219e-10 -4.92549e-10 -0.001)
(-7.49947e-11 -4.83013e-10 -0.001)
(-6.52552e-11 -4.54566e-10 -0.000999999)
(-1.85774e-10 -4.58522e-10 -0.000999999)
(-2.78555e-10 -4.56941e-10 -0.001)
(-2.96508e-10 -4.79433e-10 -0.001)
(-4.05169e-10 -5.91879e-10 -0.001)
(-4.4895e-10 -3.65548e-10 -0.001)
(-3.51613e-10 -4.41122e-10 -0.001)
(-3.00892e-10 -4.64963e-10 -0.001)
(-2.01998e-10 -4.63907e-10 -0.001)
(-7.05311e-11 -4.55753e-10 -0.001)
(-6.46579e-11 -3.50824e-10 -0.001)
(-1.80724e-10 -3.48901e-10 -0.001)
(-2.74034e-10 -3.40095e-10 -0.001)
(-3.27668e-10 -3.36025e-10 -0.001)
(-3.86931e-10 -3.75223e-10 -0.001)
(-4.2035e-10 -3.17887e-10 -0.001)
(-3.80964e-10 -3.50293e-10 -0.001)
(-3.09035e-10 -3.6413e-10 -0.001)
(-1.98999e-10 -3.63891e-10 -0.001)
(-6.78247e-11 -3.58787e-10 -0.001)
(-6.2551e-11 -2.1852e-10 -0.001)
(-1.74268e-10 -2.14558e-10 -0.001)
(-2.65649e-10 -2.08622e-10 -0.001)
(-3.31612e-10 -2.02855e-10 -0.001)
(-3.87039e-10 -2.13422e-10 -0.001)
(-4.23976e-10 -2.05889e-10 -0.001)
(-3.97876e-10 -2.23599e-10 -0.001)
(-3.14494e-10 -2.30721e-10 -0.001)
(-1.97402e-10 -2.30017e-10 -0.001)
(-6.61599e-11 -2.26548e-10 -0.001)
(-6.01231e-11 -7.33447e-11 -0.001)
(-1.70035e-10 -7.11491e-11 -0.001)
(-2.6181e-10 -6.95623e-11 -0.001)
(-3.31827e-10 -6.78234e-11 -0.001)
(-3.89184e-10 -7.04086e-11 -0.001)
(-4.29544e-10 -7.07272e-11 -0.001)
(-4.04879e-10 -7.69034e-11 -0.001)
(-3.1478e-10 -7.86175e-11 -0.001)
(-1.94887e-10 -7.78475e-11 -0.001)
(-6.46788e-11 -7.63442e-11 -0.001)
(-1.01034e-10 -1.17282e-10 -0.000999997)
(-3.08965e-10 -1.19529e-10 -0.000999998)
(-4.9119e-10 -1.18585e-10 -0.000999998)
(-6.16388e-10 -1.16707e-10 -0.000999998)
(-7.10493e-10 -1.11531e-10 -0.000999998)
(-7.45663e-10 -1.1496e-10 -0.000999999)
(-6.89277e-10 -1.13897e-10 -0.000999999)
(-5.57775e-10 -1.14199e-10 -0.000999999)
(-3.62067e-10 -1.13881e-10 -0.001)
(-1.25165e-10 -1.13605e-10 -0.001)
(-1.03243e-10 -3.56435e-10 -0.000999998)
(-3.10639e-10 -3.59098e-10 -0.000999998)
(-4.89294e-10 -3.58316e-10 -0.000999998)
(-6.10544e-10 -3.54175e-10 -0.000999998)
(-7.10205e-10 -3.39919e-10 -0.000999998)
(-7.49589e-10 -3.50779e-10 -0.000999999)
(-6.89945e-10 -3.40267e-10 -0.000999999)
(-5.58858e-10 -3.3533e-10 -0.000999999)
(-3.6238e-10 -3.31456e-10 -0.001)
(-1.25373e-10 -3.30531e-10 -0.001)
(-1.03179e-10 -5.68508e-10 -0.000999998)
(-3.10727e-10 -5.72584e-10 -0.000999998)
(-4.87205e-10 -5.74931e-10 -0.000999998)
(-5.99233e-10 -5.73945e-10 -0.000999998)
(-7.08573e-10 -5.65996e-10 -0.000999999)
(-7.47559e-10 -5.65743e-10 -0.000999999)
(-6.75236e-10 -5.44573e-10 -0.000999999)
(-5.50078e-10 -5.33575e-10 -0.001)
(-3.58614e-10 -5.26018e-10 -0.001)
(-1.25135e-10 -5.23942e-10 -0.001)
(-1.06271e-10 -7.14929e-10 -0.000999998)
(-3.15995e-10 -7.26065e-10 -0.000999998)
(-4.90657e-10 -7.30016e-10 -0.000999998)
(-6.01647e-10 -7.38114e-10 -0.000999999)
(-7.0204e-10 -7.68937e-10 -0.000999999)
(-7.28205e-10 -7.07737e-10 -0.000999999)
(-6.57811e-10 -6.75035e-10 -0.001)
(-5.40351e-10 -6.74679e-10 -0.001)
(-3.53798e-10 -6.76347e-10 -0.001)
(-1.24313e-10 -6.76188e-10 -0.001)
(-1.12934e-10 -8.08838e-10 -0.000999999)
(-3.24413e-10 -8.2426e-10 -0.000999999)
(-4.99216e-10 -8.40587e-10 -0.000999999)
(-6.38151e-10 -8.52812e-10 -0.000999999)
(-6.78167e-10 -8.45193e-10 -0.000999999)
(-6.5366e-10 -7.80014e-10 -0.001)
(-6.42181e-10 -8.3205e-10 -0.001)
(-5.51421e-10 -8.03326e-10 -0.001)
(-3.61475e-10 -7.90656e-10 -0.001)
(-1.26304e-10 -7.82224e-10 -0.001)
(-1.20079e-10 -8.4451e-10 -0.000999999)
(-3.4612e-10 -8.49719e-10 -0.000999999)
(-5.19176e-10 -8.51985e-10 -0.000999999)
(-6.06249e-10 -8.51033e-10 -0.001)
(-6.29262e-10 -8.12235e-10 -0.001)
(-7.14706e-10 -8.88466e-10 -0.001)
(-6.81094e-10 -8.99341e-10 -0.001)
(-4.98991e-10 -8.67531e-10 -0.001)
(-3.34262e-10 -8.46321e-10 -0.001)
(-1.17443e-10 -8.32212e-10 -0.001)
(-1.16375e-10 -7.67478e-10 -0.000999999)
(-3.30133e-10 -7.63044e-10 -0.000999999)
(-5.005e-10 -7.4601e-10 -0.001)
(-5.98372e-10 -7.4032e-10 -0.001)
(-7.15954e-10 -7.52732e-10 -0.001)
(-7.40744e-10 -8.18147e-10 -0.001)
(-6.20918e-10 -7.66197e-10 -0.001)
(-4.98477e-10 -7.80794e-10 -0.001)
(-3.27844e-10 -7.80144e-10 -0.001)
(-1.13806e-10 -7.73244e-10 -0.001)
(-1.13987e-10 -5.91953e-10 -0.001)
(-3.23031e-10 -5.87859e-10 -0.001)
(-4.96427e-10 -5.79317e-10 -0.001)
(-6.12975e-10 -5.77334e-10 -0.001)
(-7.07099e-10 -5.96765e-10 -0.001)
(-7.28482e-10 -5.65429e-10 -0.001)
(-6.43729e-10 -5.89701e-10 -0.001)
(-5.12971e-10 -6.09971e-10 -0.001)
(-3.28312e-10 -6.13581e-10 -0.001)
(-1.12077e-10 -6.09433e-10 -0.001)
(-1.11019e-10 -3.70772e-10 -0.001)
(-3.16235e-10 -3.66481e-10 -0.001)
(-4.89923e-10 -3.6206e-10 -0.001)
(-6.15796e-10 -3.58999e-10 -0.001)
(-7.04031e-10 -3.68675e-10 -0.001)
(-7.33693e-10 -3.57406e-10 -0.001)
(-6.65416e-10 -3.7869e-10 -0.001)
(-5.22358e-10 -3.88587e-10 -0.001)
(-3.28527e-10 -3.89511e-10 -0.001)
(-1.10853e-10 -3.85987e-10 -0.001)
(-1.08746e-10 -1.24936e-10 -0.001)
(-3.12935e-10 -1.23086e-10 -0.001)
(-4.87923e-10 -1.22492e-10 -0.001)
(-6.18304e-10 -1.22095e-10 -0.001)
(-7.04054e-10 -1.26269e-10 -0.001)
(-7.36987e-10 -1.23545e-10 -0.001)
(-6.73498e-10 -1.3105e-10 -0.001)
(-5.22742e-10 -1.32967e-10 -0.001)
(-3.25844e-10 -1.32456e-10 -0.001)
(-1.09105e-10 -1.30661e-10 -0.001)
(-1.55997e-10 -1.82553e-10 -0.000999997)
(-4.74578e-10 -1.87552e-10 -0.000999997)
(-7.5151e-10 -1.87276e-10 -0.000999997)
(-9.42183e-10 -1.87651e-10 -0.000999998)
(-1.07939e-09 -1.87444e-10 -0.000999998)
(-1.14581e-09 -1.88304e-10 -0.000999998)
(-1.06638e-09 -1.84998e-10 -0.000999999)
(-8.51989e-10 -1.83826e-10 -0.000999999)
(-5.52296e-10 -1.82197e-10 -0.001)
(-1.90846e-10 -1.80571e-10 -0.001)
(-1.60952e-10 -5.5639e-10 -0.000999997)
(-4.7991e-10 -5.64917e-10 -0.000999997)
(-7.53074e-10 -5.671e-10 -0.000999997)
(-9.44327e-10 -5.68795e-10 -0.000999998)
(-1.0823e-09 -5.61569e-10 -0.000999998)
(-1.14566e-09 -5.72115e-10 -0.000999999)
(-1.064e-09 -5.47378e-10 -0.000999999)
(-8.50818e-10 -5.3587e-10 -0.000999999)
(-5.50416e-10 -5.26693e-10 -0.001)
(-1.89926e-10 -5.21365e-10 -0.001)
(-1.63734e-10 -8.89822e-10 -0.000999997)
(-4.8516e-10 -9.0066e-10 -0.000999997)
(-7.56879e-10 -9.07679e-10 -0.000999998)
(-9.38644e-10 -9.1197e-10 -0.000999998)
(-1.08502e-09 -8.96212e-10 -0.000999999)
(-1.13392e-09 -9.3741e-10 -0.000999999)
(-1.03224e-09 -8.71561e-10 -0.000999999)
(-8.32979e-10 -8.45243e-10 -0.001)
(-5.39871e-10 -8.26673e-10 -0.001)
(-1.86888e-10 -8.16697e-10 -0.001)
(-1.70048e-10 -1.1281e-09 -0.000999998)
(-4.96014e-10 -1.14321e-09 -0.000999998)
(-7.64374e-10 -1.14861e-09 -0.000999998)
(-9.32912e-10 -1.1462e-09 -0.000999999)
(-1.10784e-09 -1.08071e-09 -0.000999999)
(-1.12109e-09 -1.30576e-09 -0.000999999)
(-9.7189e-10 -1.13932e-09 -0.001)
(-8.06007e-10 -1.08693e-09 -0.001)
(-5.23534e-10 -1.05787e-09 -0.001)
(-1.81565e-10 -1.04183e-09 -0.001)
(-1.76496e-10 -1.24384e-09 -0.000999998)
(-5.03327e-10 -1.26038e-09 -0.000999998)
(-7.59777e-10 -1.28164e-09 -0.000999999)
(-8.70694e-10 -1.32522e-09 -0.000999999)
(-1.24451e-09 -1.47869e-09 -0.000999999)
(-1.19255e-09 -1.08145e-09 -0.001)
(-8.13445e-10 -1.24079e-09 -0.001)
(-7.51598e-10 -1.22726e-09 -0.001)
(-4.96934e-10 -1.20527e-09 -0.001)
(-1.7299e-10 -1.18716e-09 -0.001)
(-1.84032e-10 -1.25014e-09 -0.000999999)
(-5.31245e-10 -1.25443e-09 -0.000999999)
(-8.2915e-10 -1.25895e-09 -0.000999999)
(-1.12998e-09 -1.28018e-09 -0.000999999)
(-8.63979e-10 -1.3985e-09 -0.001)
(-8.83177e-10 -1.10819e-09 -0.001)
(-1.11767e-09 -1.25683e-09 -0.001)
(-7.70542e-10 -1.26031e-09 -0.001)
(-4.85815e-10 -1.2488e-09 -0.001)
(-1.65822e-10 -1.23784e-09 -0.001)
(-1.78257e-10 -1.12815e-09 -0.000999999)
(-5.09624e-10 -1.12262e-09 -0.000999999)
(-7.85478e-10 -1.10413e-09 -0.001)
(-1.01029e-09 -1.07577e-09 -0.001)
(-1.07251e-09 -9.65512e-10 -0.001)
(-1.05084e-09 -1.30274e-09 -0.001)
(-9.65584e-10 -1.1598e-09 -0.001)
(-7.43602e-10 -1.14709e-09 -0.001)
(-4.76921e-10 -1.14241e-09 -0.001)
(-1.64438e-10 -1.13905e-09 -0.001)
(-1.76189e-10 -8.77251e-10 -0.001)
(-5.04942e-10 -8.75401e-10 -0.001)
(-7.82251e-10 -8.71352e-10 -0.001)
(-9.91362e-10 -8.69621e-10 -0.001)
(-1.091e-09 -8.4482e-10 -0.001)
(-1.0774e-09 -8.8808e-10 -0.001)
(-9.62017e-10 -8.84151e-10 -0.001)
(-7.53193e-10 -8.97073e-10 -0.001)
(-4.8007e-10 -9.02727e-10 -0.001)
(-1.64695e-10 -9.01154e-10 -0.001)
(-1.7463e-10 -5.58141e-10 -0.001)
(-5.01941e-10 -5.57146e-10 -0.001)
(-7.7962e-10 -5.56346e-10 -0.001)
(-9.83703e-10 -5.55777e-10 -0.001)
(-1.09092e-09 -5.49762e-10 -0.001)
(-1.09011e-09 -5.55254e-10 -0.001)
(-9.74533e-10 -5.66031e-10 -0.001)
(-7.6218e-10 -5.73838e-10 -0.001)
(-4.82799e-10 -5.77074e-10 -0.001)
(-1.64635e-10 -5.75243e-10 -0.001)
(-1.73738e-10 -1.9047e-10 -0.001)
(-5.01027e-10 -1.90346e-10 -0.001)
(-7.79233e-10 -1.90979e-10 -0.001)
(-9.8271e-10 -1.91571e-10 -0.001)
(-1.08823e-09 -1.92022e-10 -0.001)
(-1.09148e-09 -1.91092e-10 -0.001)
(-9.7869e-10 -1.95499e-10 -0.001)
(-7.62748e-10 -1.97069e-10 -0.001)
(-4.81656e-10 -1.97511e-10 -0.001)
(-1.63677e-10 -1.9649e-10 -0.001)
(-2.31001e-10 -2.68286e-10 -0.000999996)
(-6.93347e-10 -2.75526e-10 -0.000999996)
(-1.09366e-09 -2.75968e-10 -0.000999997)
(-1.37728e-09 -2.79002e-10 -0.000999997)
(-1.56723e-09 -2.84589e-10 -0.000999998)
(-1.6508e-09 -2.77878e-10 -0.000999998)
(-1.53099e-09 -2.7573e-10 -0.000999999)
(-1.21748e-09 -2.72946e-10 -0.000999999)
(-7.8791e-10 -2.697e-10 -0.001)
(-2.71688e-10 -2.65717e-10 -0.001)
(-2.38165e-10 -8.08546e-10 -0.000999996)
(-7.01902e-10 -8.21372e-10 -0.000999996)
(-1.09932e-09 -8.26067e-10 -0.000999997)
(-1.38879e-09 -8.35257e-10 -0.000999997)
(-1.56928e-09 -8.42444e-10 -0.000999998)
(-1.64514e-09 -8.28009e-10 -0.000999998)
(-1.529e-09 -8.08752e-10 -0.000999999)
(-1.21379e-09 -7.91197e-10 -0.000999999)
(-7.82697e-10 -7.75466e-10 -0.001)
(-2.68733e-10 -7.63642e-10 -0.001)
(-2.42636e-10 -1.28403e-09 -0.000999997)
(-7.10633e-10 -1.29816e-09 -0.000999997)
(-1.10974e-09 -1.31063e-09 -0.000999997)
(-1.39653e-09 -1.32825e-09 -0.000999998)
(-1.56319e-09 -1.33016e-09 -0.000999998)
(-1.62039e-09 -1.3288e-09 -0.000999999)
(-1.49719e-09 -1.27517e-09 -0.000999999)
(-1.18663e-09 -1.23686e-09 -0.001)
(-7.63428e-10 -1.20515e-09 -0.001)
(-2.61916e-10 -1.18589e-09 -0.001)
(-2.49707e-10 -1.62607e-09 -0.000999997)
(-7.25922e-10 -1.64183e-09 -0.000999997)
(-1.12942e-09 -1.65695e-09 -0.000999998)
(-1.40834e-09 -1.67001e-09 -0.000999998)
(-1.5699e-09 -1.59822e-09 -0.000999999)
(-1.59025e-09 -1.81675e-09 -0.000999999)
(-1.4372e-09 -1.67157e-09 -0.001)
(-1.14391e-09 -1.59326e-09 -0.001)
(-7.34145e-10 -1.53594e-09 -0.001)
(-2.51857e-10 -1.50446e-09 -0.001)
(-2.55011e-10 -1.78211e-09 -0.000999998)
(-7.3814e-10 -1.7934e-09 -0.000999998)
(-1.13787e-09 -1.80524e-09 -0.000999998)
(-1.33778e-09 -1.83071e-09 -0.000999999)
(-1.70992e-09 -1.98434e-09 -0.000999999)
(-1.69371e-09 -1.70516e-09 -0.001)
(-1.27361e-09 -1.76852e-09 -0.001)
(-1.05104e-09 -1.74921e-09 -0.001)
(-6.77701e-10 -1.7197e-09 -0.001)
(-2.33486e-10 -1.69637e-09 -0.001)
(-2.57384e-10 -1.76885e-09 -0.000999998)
(-7.45416e-10 -1.77507e-09 -0.000999999)
(-1.16662e-09 -1.77756e-09 -0.000999999)
(-1.5874e-09 -1.79077e-09 -0.000999999)
(-1.4444e-09 -1.93916e-09 -0.001)
(-1.3745e-09 -1.63585e-09 -0.001)
(-1.48121e-09 -1.73412e-09 -0.001)
(-1.09512e-09 -1.74873e-09 -0.001)
(-6.84719e-10 -1.74923e-09 -0.001)
(-2.31905e-10 -1.74575e-09 -0.001)
(-2.57764e-10 -1.59523e-09 -0.000999999)
(-7.4336e-10 -1.5992e-09 -0.000999999)
(-1.15348e-09 -1.59647e-09 -0.000999999)
(-1.49927e-09 -1.58421e-09 -0.001)
(-1.55494e-09 -1.47658e-09 -0.001)
(-1.48872e-09 -1.71315e-09 -0.001)
(-1.38657e-09 -1.62571e-09 -0.001)
(-1.06628e-09 -1.60581e-09 -0.001)
(-6.78233e-10 -1.60021e-09 -0.001)
(-2.33429e-10 -1.60046e-09 -0.001)
(-2.58224e-10 -1.25673e-09 -0.000999999)
(-7.43533e-10 -1.26075e-09 -0.001)
(-1.15156e-09 -1.2604e-09 -0.001)
(-1.4675e-09 -1.25729e-09 -0.001)
(-1.5733e-09 -1.21168e-09 -0.001)
(-1.52361e-09 -1.27808e-09 -0.001)
(-1.37386e-09 -1.26077e-09 -0.001)
(-1.06969e-09 -1.2642e-09 -0.001)
(-6.82619e-10 -1.26971e-09 -0.001)
(-2.35333e-10 -1.27003e-09 -0.001)
(-2.59344e-10 -8.09847e-10 -0.001)
(-7.44547e-10 -8.13274e-10 -0.001)
(-1.1499e-09 -8.13578e-10 -0.001)
(-1.45048e-09 -8.11831e-10 -0.001)
(-1.57565e-09 -7.92133e-10 -0.001)
(-1.53774e-09 -8.13837e-10 -0.001)
(-1.37262e-09 -8.08121e-10 -0.001)
(-1.07521e-09 -8.116e-10 -0.001)
(-6.866e-10 -8.16246e-10 -0.001)
(-2.36251e-10 -8.16152e-10 -0.001)
(-2.59627e-10 -2.79167e-10 -0.001)
(-7.44206e-10 -2.80471e-10 -0.001)
(-1.14774e-09 -2.80844e-10 -0.001)
(-1.4431e-09 -2.8061e-10 -0.001)
(-1.57213e-09 -2.76357e-10 -0.001)
(-1.53655e-09 -2.80191e-10 -0.001)
(-1.36885e-09 -2.78116e-10 -0.001)
(-1.07566e-09 -2.79105e-10 -0.001)
(-6.87432e-10 -2.80692e-10 -0.001)
(-2.36375e-10 -2.80727e-10 -0.001)
(-3.36168e-10 -3.82269e-10 -0.000999995)
(-9.90985e-10 -3.88213e-10 -0.000999995)
(-1.55418e-09 -3.88543e-10 -0.000999995)
(-1.96171e-09 -3.91837e-10 -0.000999996)
(-2.22015e-09 -3.99201e-10 -0.000999997)
(-2.30552e-09 -3.88124e-10 -0.000999998)
(-2.12011e-09 -3.89078e-10 -0.000999998)
(-1.68614e-09 -3.85177e-10 -0.000999999)
(-1.08757e-09 -3.80123e-10 -0.000999999)
(-3.73633e-10 -3.73304e-10 -0.001)
(-3.42016e-10 -1.13055e-09 -0.000999995)
(-9.98476e-10 -1.14195e-09 -0.000999995)
(-1.56088e-09 -1.14705e-09 -0.000999996)
(-1.97634e-09 -1.15892e-09 -0.000999996)
(-2.2208e-09 -1.17757e-09 -0.000999997)
(-2.29977e-09 -1.14088e-09 -0.000999998)
(-2.1212e-09 -1.13707e-09 -0.000999999)
(-1.68041e-09 -1.11467e-09 -0.000999999)
(-1.07842e-09 -1.09218e-09 -0.001)
(-3.68204e-10 -1.07386e-09 -0.001)
(-3.45953e-10 -1.77481e-09 -0.000999996)
(-1.0072e-09 -1.78768e-09 -0.000999996)
(-1.57425e-09 -1.8031e-09 -0.000999996)
(-1.99623e-09 -1.83208e-09 -0.000999997)
(-2.20662e-09 -1.87249e-09 -0.000999998)
(-2.26957e-09 -1.78464e-09 -0.000999998)
(-2.09794e-09 -1.77825e-09 -0.000999999)
(-1.6445e-09 -1.7345e-09 -0.001)
(-1.05096e-09 -1.69108e-09 -0.001)
(-3.58164e-10 -1.6647e-09 -0.001)
(-3.5134e-10 -2.23945e-09 -0.000999996)
(-1.02321e-09 -2.25428e-09 -0.000999996)
(-1.60528e-09 -2.28055e-09 -0.000999997)
(-2.04585e-09 -2.33126e-09 -0.000999998)
(-2.17348e-09 -2.35045e-09 -0.000999998)
(-2.20585e-09 -2.32054e-09 -0.000999999)
(-2.07113e-09 -2.27323e-09 -0.001)
(-1.5933e-09 -2.21198e-09 -0.001)
(-1.01201e-09 -2.14603e-09 -0.001)
(-3.45197e-10 -2.10925e-09 -0.001)
(-3.56263e-10 -2.4705e-09 -0.000999997)
(-1.04375e-09 -2.47993e-09 -0.000999997)
(-1.6511e-09 -2.48299e-09 -0.000999998)
(-2.06617e-09 -2.46552e-09 -0.000999998)
(-2.19585e-09 -2.50011e-09 -0.000999999)
(-2.19251e-09 -2.59286e-09 -0.001)
(-1.98952e-09 -2.48326e-09 -0.001)
(-1.5174e-09 -2.42851e-09 -0.001)
(-9.52505e-10 -2.39094e-09 -0.001)
(-3.25638e-10 -2.36728e-09 -0.001)
(-3.55879e-10 -2.4644e-09 -0.000999998)
(-1.03067e-09 -2.47679e-09 -0.000999998)
(-1.59069e-09 -2.47883e-09 -0.000999998)
(-2.06309e-09 -2.45727e-09 -0.000999999)
(-2.30085e-09 -2.48213e-09 -0.001)
(-2.18873e-09 -2.49046e-09 -0.001)
(-1.907e-09 -2.43776e-09 -0.001)
(-1.50113e-09 -2.41656e-09 -0.001)
(-9.55513e-10 -2.4167e-09 -0.001)
(-3.262e-10 -2.41685e-09 -0.001)
(-3.63905e-10 -2.22986e-09 -0.000999999)
(-1.05331e-09 -2.24527e-09 -0.000999999)
(-1.63129e-09 -2.25944e-09 -0.000999999)
(-2.06938e-09 -2.28476e-09 -0.001)
(-2.22932e-09 -2.25726e-09 -0.001)
(-2.14811e-09 -2.19623e-09 -0.001)
(-1.91549e-09 -2.20674e-09 -0.001)
(-1.49642e-09 -2.20669e-09 -0.001)
(-9.57638e-10 -2.20768e-09 -0.001)
(-3.3053e-10 -2.21049e-09 -0.001)
(-3.67033e-10 -1.77405e-09 -0.000999999)
(-1.05594e-09 -1.78354e-09 -0.001)
(-1.63005e-09 -1.78149e-09 -0.001)
(-2.06084e-09 -1.77593e-09 -0.001)
(-2.21221e-09 -1.75608e-09 -0.001)
(-2.13834e-09 -1.75661e-09 -0.001)
(-1.91747e-09 -1.74754e-09 -0.001)
(-1.50216e-09 -1.75077e-09 -0.001)
(-9.63796e-10 -1.75695e-09 -0.001)
(-3.33398e-10 -1.75774e-09 -0.001)
(-3.69999e-10 -1.1478e-09 -0.001)
(-1.05728e-09 -1.15312e-09 -0.001)
(-1.62354e-09 -1.14956e-09 -0.001)
(-2.04388e-09 -1.14152e-09 -0.001)
(-2.2099e-09 -1.12374e-09 -0.001)
(-2.13948e-09 -1.13974e-09 -0.001)
(-1.90957e-09 -1.1236e-09 -0.001)
(-1.50582e-09 -1.12599e-09 -0.001)
(-9.68092e-10 -1.1318e-09 -0.001)
(-3.34761e-10 -1.13214e-09 -0.001)
(-3.69473e-10 -3.96683e-10 -0.001)
(-1.05341e-09 -3.97604e-10 -0.001)
(-1.6152e-09 -3.95618e-10 -0.001)
(-2.03097e-09 -3.92405e-10 -0.001)
(-2.20606e-09 -3.86641e-10 -0.001)
(-2.13394e-09 -3.92811e-10 -0.001)
(-1.89987e-09 -3.85303e-10 -0.001)
(-1.50736e-09 -3.86924e-10 -0.001)
(-9.70271e-10 -3.89795e-10 -0.001)
(-3.35284e-10 -3.90208e-10 -0.001)
(-4.78693e-10 -5.31547e-10 -0.000999993)
(-1.3944e-09 -5.33897e-10 -0.000999993)
(-2.17607e-09 -5.33343e-10 -0.000999994)
(-2.74365e-09 -5.34964e-10 -0.000999995)
(-3.08949e-09 -5.41104e-10 -0.000999996)
(-3.17317e-09 -5.32522e-10 -0.000999997)
(-2.89711e-09 -5.34079e-10 -0.000999998)
(-2.30208e-09 -5.28644e-10 -0.000999999)
(-1.47784e-09 -5.2116e-10 -0.000999999)
(-5.05805e-10 -5.11836e-10 -0.001)
(-4.80933e-10 -1.55078e-09 -0.000999993)
(-1.39786e-09 -1.55738e-09 -0.000999994)
(-2.18136e-09 -1.56151e-09 -0.000999994)
(-2.75682e-09 -1.5715e-09 -0.000999995)
(-3.09303e-09 -1.59291e-09 -0.000999996)
(-3.17219e-09 -1.55957e-09 -0.000999997)
(-2.89877e-09 -1.55921e-09 -0.000999998)
(-2.29357e-09 -1.53145e-09 -0.000999999)
(-1.46487e-09 -1.5034e-09 -0.001)
(-4.98457e-10 -1.48133e-09 -0.001)
(-4.83179e-10 -2.41504e-09 -0.000999994)
(-1.40481e-09 -2.42584e-09 -0.000999994)
(-2.19447e-09 -2.4417e-09 -0.000999995)
(-2.78053e-09 -2.47319e-09 -0.000999996)
(-3.08353e-09 -2.53765e-09 -0.000999997)
(-3.14554e-09 -2.41628e-09 -0.000999998)
(-2.87466e-09 -2.43163e-09 -0.000999999)
(-2.25086e-09 -2.38215e-09 -0.001)
(-1.43359e-09 -2.33291e-09 -0.001)
(-4.87683e-10 -2.30503e-09 -0.001)
(-4.8699e-10 -3.04144e-09 -0.000999995)
(-1.41976e-09 -3.05612e-09 -0.000999995)
(-2.2287e-09 -3.08689e-09 -0.000999996)
(-2.85287e-09 -3.16325e-09 -0.000999997)
(-3.03619e-09 -3.30355e-09 -0.000999998)
(-3.06607e-09 -3.00432e-09 -0.000999999)
(-2.86473e-09 -3.04666e-09 -0.001)
(-2.19511e-09 -3.00661e-09 -0.001)
(-1.39249e-09 -2.95055e-09 -0.001)
(-4.75208e-10 -2.92018e-09 -0.001)
(-4.91933e-10 -3.38044e-09 -0.000999996)
(-1.44426e-09 -3.39476e-09 -0.000999996)
(-2.30153e-09 -3.4015e-09 -0.000999997)
(-2.9972e-09 -3.36818e-09 -0.000999998)
(-2.92485e-09 -3.27266e-09 -0.000999999)
(-2.88853e-09 -3.64776e-09 -0.001)
(-2.87688e-09 -3.42485e-09 -0.001)
(-2.15488e-09 -3.33712e-09 -0.001)
(-1.35306e-09 -3.29336e-09 -0.001)
(-4.63134e-10 -3.27177e-09 -0.001)
(-4.94781e-10 -3.39794e-09 -0.000999997)
(-1.43427e-09 -3.41789e-09 -0.000999997)
(-2.20207e-09 -3.42302e-09 -0.000999998)
(-2.72382e-09 -3.37844e-09 -0.000999999)
(-3.31578e-09 -3.24035e-09 -0.001)
(-3.21865e-09 -3.5809e-09 -0.001)
(-2.55397e-09 -3.39773e-09 -0.001)
(-2.06375e-09 -3.3377e-09 -0.001)
(-1.33368e-09 -3.32737e-09 -0.001)
(-4.60031e-10 -3.3239e-09 -0.001)
(-5.0535e-10 -3.0835e-09 -0.000999998)
(-1.46275e-09 -3.10414e-09 -0.000999998)
(-2.26212e-09 -3.11807e-09 -0.000999999)
(-2.81469e-09 -3.15653e-09 -0.001)
(-3.12695e-09 -3.22085e-09 -0.001)
(-3.04592e-09 -2.91543e-09 -0.001)
(-2.63375e-09 -2.99043e-09 -0.001)
(-2.08467e-09 -3.015e-09 -0.001)
(-1.34591e-09 -3.02643e-09 -0.001)
(-4.66153e-10 -3.02957e-09 -0.001)
(-5.09536e-10 -2.46131e-09 -0.000999999)
(-1.46283e-09 -2.47256e-09 -0.000999999)
(-2.25435e-09 -2.46294e-09 -0.001)
(-2.82667e-09 -2.44909e-09 -0.001)
(-3.07481e-09 -2.46212e-09 -0.001)
(-2.98814e-09 -2.38446e-09 -0.001)
(-2.65354e-09 -2.38857e-09 -0.001)
(-2.09989e-09 -2.40107e-09 -0.001)
(-1.35434e-09 -2.40997e-09 -0.00100001)
(-4.69124e-10 -2.40916e-09 -0.00100001)
(-5.11867e-10 -1.58805e-09 -0.001)
(-1.4595e-09 -1.59051e-09 -0.001)
(-2.23844e-09 -1.57941e-09 -0.001)
(-2.81374e-09 -1.56216e-09 -0.001)
(-3.06218e-09 -1.55494e-09 -0.001)
(-2.97222e-09 -1.54964e-09 -0.001)
(-2.65024e-09 -1.53694e-09 -0.001)
(-2.10607e-09 -1.54372e-09 -0.00100001)
(-1.35873e-09 -1.55094e-09 -0.00100001)
(-4.70016e-10 -1.54929e-09 -0.00100001)
(-5.07947e-10 -5.47028e-10 -0.001)
(-1.44821e-09 -5.45134e-10 -0.001)
(-2.22153e-09 -5.3962e-10 -0.001)
(-2.7967e-09 -5.32554e-10 -0.001)
(-3.05628e-09 -5.27932e-10 -0.001)
(-2.96416e-09 -5.32497e-10 -0.001)
(-2.64223e-09 -5.25776e-10 -0.001)
(-2.10974e-09 -5.29818e-10 -0.00100001)
(-1.36028e-09 -5.33536e-10 -0.00100001)
(-4.69547e-10 -5.3294e-10 -0.00100001)
(-6.68447e-10 -7.27935e-10 -0.000999991)
(-1.93863e-09 -7.27424e-10 -0.000999991)
(-3.01733e-09 -7.26284e-10 -0.000999992)
(-3.80005e-09 -7.26866e-10 -0.000999993)
(-4.25692e-09 -7.32356e-10 -0.000999994)
(-4.33786e-09 -7.28517e-10 -0.000999996)
(-3.9425e-09 -7.252e-10 -0.000999997)
(-3.12397e-09 -7.16624e-10 -0.000999998)
(-1.99834e-09 -7.06687e-10 -0.000999999)
(-6.82965e-10 -6.96865e-10 -0.001)
(-6.67813e-10 -2.1126e-09 -0.000999991)
(-1.93929e-09 -2.11563e-09 -0.000999992)
(-3.02259e-09 -2.11938e-09 -0.000999992)
(-3.81353e-09 -2.12729e-09 -0.000999994)
(-4.26677e-09 -2.14583e-09 -0.000999995)
(-4.33895e-09 -2.1319e-09 -0.000999996)
(-3.93812e-09 -2.11593e-09 -0.000999998)
(-3.11141e-09 -2.08249e-09 -0.000999999)
(-1.9837e-09 -2.05257e-09 -0.001)
(-6.75771e-10 -2.03183e-09 -0.001)
(-6.6866e-10 -3.28224e-09 -0.000999992)
(-1.94504e-09 -3.29275e-09 -0.000999992)
(-3.03486e-09 -3.30812e-09 -0.000999993)
(-3.83403e-09 -3.33232e-09 -0.000999994)
(-4.2699e-09 -3.3865e-09 -0.000999996)
(-4.3164e-09 -3.31243e-09 -0.000999997)
(-3.90077e-09 -3.301e-09 -0.000999999)
(-3.06678e-09 -3.24563e-09 -0.001)
(-1.95561e-09 -3.19994e-09 -0.001)
(-6.67559e-10 -3.17704e-09 -0.001)
(-6.7195e-10 -4.13337e-09 -0.000999993)
(-1.95876e-09 -4.15042e-09 -0.000999994)
(-3.06215e-09 -4.17853e-09 -0.000999994)
(-3.89208e-09 -4.24074e-09 -0.000999996)
(-4.24706e-09 -4.41748e-09 -0.000999997)
(-4.25364e-09 -4.08136e-09 -0.000999998)
(-3.87149e-09 -4.11592e-09 -0.001)
(-3.01064e-09 -4.0787e-09 -0.001)
(-1.92158e-09 -4.03944e-09 -0.001)
(-6.59179e-10 -4.02078e-09 -0.001)
(-6.77795e-10 -4.60512e-09 -0.000999995)
(-1.98213e-09 -4.62667e-09 -0.000999995)
(-3.125e-09 -4.64419e-09 -0.000999996)
(-4.07297e-09 -4.63551e-09 -0.000999997)
(-4.11034e-09 -4.51208e-09 -0.000999998)
(-4.01503e-09 -4.85166e-09 -0.001)
(-3.89812e-09 -4.64601e-09 -0.001)
(-2.99047e-09 -4.55596e-09 -0.001)
(-1.90576e-09 -4.51486e-09 -0.001)
(-6.56819e-10 -4.49503e-09 -0.001)
(-6.84696e-10 -4.64225e-09 -0.000999996)
(-1.98885e-09 -4.66561e-09 -0.000999997)
(-3.0708e-09 -4.67114e-09 -0.000999997)
(-3.76012e-09 -4.64011e-09 -0.000999999)
(-4.46324e-09 -4.44146e-09 -0.001)
(-4.38742e-09 -4.82291e-09 -0.001)
(-3.5759e-09 -4.64094e-09 -0.001)
(-2.87969e-09 -4.57901e-09 -0.001)
(-1.86962e-09 -4.56175e-09 -0.001)
(-6.48135e-10 -4.55003e-09 -0.001)
(-6.92195e-10 -4.21384e-09 -0.000999998)
(-2.0019e-09 -4.23196e-09 -0.000999998)
(-3.0993e-09 -4.22795e-09 -0.000999999)
(-3.84311e-09 -4.23899e-09 -0.001)
(-4.29332e-09 -4.31771e-09 -0.001)
(-4.21452e-09 -4.0105e-09 -0.001)
(-3.65422e-09 -4.08064e-09 -0.001)
(-2.91147e-09 -4.11498e-09 -0.00100001)
(-1.88585e-09 -4.13164e-09 -0.00100001)
(-6.53966e-10 -4.13095e-09 -0.00100001)
(-6.94694e-10 -3.35722e-09 -0.000999999)
(-1.99468e-09 -3.36517e-09 -0.000999999)
(-3.07766e-09 -3.34548e-09 -0.001)
(-3.84986e-09 -3.31874e-09 -0.001)
(-4.23462e-09 -3.33827e-09 -0.001)
(-4.15036e-09 -3.24075e-09 -0.001)
(-3.68037e-09 -3.25461e-09 -0.00100001)
(-2.93085e-09 -3.27357e-09 -0.00100001)
(-1.89383e-09 -3.28366e-09 -0.00100001)
(-6.55504e-10 -3.27796e-09 -0.00100001)
(-6.93642e-10 -2.15494e-09 -0.001)
(-1.98347e-09 -2.1507e-09 -0.001)
(-3.05259e-09 -2.13291e-09 -0.001)
(-3.83573e-09 -2.10927e-09 -0.001)