/*--------------------------------*- C++ -*----------------------------------*\
| =========                 |                                                 |
| \\      /  F ield         | OpenFOAM: The Open Source CFD Toolbox           |
|  \\    /   O peration     | Version:  5.x                                   |
|   \\  /    A nd           | Web:      www.OpenFOAM.org                      |
|    \\/     M anipulation  |                                                 |
\*---------------------------------------------------------------------------*/
FoamFile
{
    version     2.0;
    format      ascii;
    class       surfaceScalarField;
    location    "40000";
    object      phi;
}
// * * * * * * * * * * * * * * * * * * * * * * * * * * * * * * * * * * * * * //

dimensions      [0 3 -1 0 0 0 0];

internalField   nonuniform List<scalar> 
5825
(
-6.55438e-05
7.04289e-05
-1000
-4.71e-05
6.71372e-05
-1000
-2.99328e-05
6.52827e-05
-1000
-1.39165e-05
6.56907e-05
-1000
6.57134e-05
-1000
-6.84375e-05
0.00013349
-1000
-4.52707e-05
0.000129051
-1000
-2.82723e-05
0.000125671
-1000
-1.31672e-05
0.000123964
-1000
0.000120716
-1000
-6.82839e-05
0.000173918
-1000
-4.64102e-05
0.000171371
-1000
-3.15143e-05
0.000169323
-1000
-1.6861e-05
0.000164875
-1000
0.000157344
-1000
-6.77021e-05
0.000190358
-1000
-4.93508e-05
0.000200764
-1000
-4.15858e-05
0.000195536
-1000
-2.39341e-05
0.000183969
-1000
0.000171779
-1000
-4.30154e-05
-999.999
-5.1494e-05
-999.999
-5.00348e-05
-999.999
-3.35133e-05
-1000
-1000
-0.000163061
0.00020127
-1000
-0.00011409
0.000202019
-1000
-7.27505e-05
0.000201307
-1000
-3.50329e-05
0.000203485
-1000
0.000201912
-1000
-0.000162225
0.000388265
-1000
-0.000108344
0.000378933
-1000
-7.09602e-05
0.00036932
-1000
-3.57508e-05
0.00035796
-1000
0.000344067
-1000
-0.000166873
0.000521135
-1000
-0.000115967
0.000514711
-1000
-8.37922e-05
0.000492897
-1000
-4.79573e-05
0.0004739
-1000
0.000451256
-1000
-0.000182627
0.000605924
-1000
-0.000132079
0.000587236
-1000
-0.000112488
0.000561753
-1000
-6.81495e-05
0.00052993
-1000
0.000501296
-1000
-0.000172559
-999.999
-0.000157134
-999.999
-0.000149223
-1000
-9.5862e-05
-1000
-1000
-0.000247954
0.000357974
-1000
-0.000186543
0.000364958
-1000
-0.000125035
0.000366547
-1000
-6.63156e-05
0.000365635
-1000
0.000353607
-1000
-0.000238186
0.000666801
-1000
-0.00018088
0.000659912
-1000
-0.000127749
0.000633982
-1000
-7.5358e-05
0.000610818
-1000
0.000591839
-1000
-0.000252135
0.000914079
-1000
-0.000196178
0.000900412
-1000
-0.000149719
0.000854265
-1000
-9.82722e-05
0.000821086
-1000
0.000791792
-1000
-0.000308564
0.00107421
-1000
-0.000222089
0.00101663
-1000
-0.00018342
0.000984561
-1000
-0.000124842
0.00094434
-1000
0.000915491
-1000
-0.000342697
-1000
-0.000267096
-1000
-0.000235301
-1000
-0.000152245
-1000
-1000
-0.000375496
0.00053087
-1000
-0.000299908
0.000543635
-1000
-0.000218566
0.000544755
-1000
-0.00013191
0.000534532
-1000
0.000509166
-1000
-0.000360361
0.000961925
-1000
-0.000298353
0.000963721
-1000
-0.000230654
0.000931722
-1000
-0.000155838
0.000906528
-1000
0.000886454
-1000
-0.000374706
0.00132649
-1000
-0.000318788
0.00132056
-1000
-0.000259725
0.00127379
-1000
-0.000180773
0.00123958
-1000
0.0012123
-1000
-0.000422514
0.00161462
-1000
-0.000354593
0.00153564
-1000
-0.000299436
0.00149931
-1000
-0.000205004
0.00146228
-1000
0.00143744
-1000
-0.000489307
-1000
-0.000380256
-1000
-0.000343675
-1000
-0.00022785
-1000
-1000
-0.000597424
0.000718471
-1000
-0.000499631
0.000741573
-1000
-0.000384837
0.000735812
-1000
-0.000240446
0.000715072
-1000
0.000684127
-1000
-0.000581452
0.00131337
-1000
-0.000509443
0.0013301
-1000
-0.00040789
0.00130333
-1000
-0.000273254
0.00127418
-1000
0.00125553
-1000
-0.000579667
0.00181216
-1000
-0.000534232
0.0018305
-1000
-0.000437342
0.00179027
-1000
-0.000291316
0.00175686
-1000
0.00173137
-1000
-0.000596936
0.00218532
-1000
-0.000573043
0.00216447
-1000
-0.000476254
0.00212198
-1000
-0.000311757
0.00207678
-1000
0.00204382
-1000
-0.000647571
-1000
-0.000590439
-1000
-0.000516912
-1000
-0.000336809
-1000
-1000
-0.000938679
0.000972177
-1000
-0.000804082
0.00098429
-1000
-0.000623555
0.000965883
-1000
-0.000374731
0.00093903
-1000
0.000913179
-1000
-0.000929898
0.00181501
-1000
-0.000828261
0.0018234
-1000
-0.000652128
0.00178874
-1000
-0.000402243
0.00175911
-1000
0.00174382
-1000
-0.000926186
0.00249562
-1000
-0.000862319
0.00251041
-1000
-0.000681631
0.00245988
-1000
-0.000413332
0.00242046
-1000
0.00239522
-1000
-0.000937372
0.00293651
-1000
-0.000909556
0.0029358
-1000
-0.000721484
0.00287999
-1000
-0.000431105
0.00282343
-1000
0.00278529
-1000
-0.000986001
-1000
-0.000959901
-1000
-0.000776049
-1000
-0.000460239
-1000
-1000
-0.00138441
0.00132881
-1000.01
-0.00120028
0.0013198
-1000.01
-0.000915681
0.0012888
-1000.01
-0.000519179
0.00126457
-1000.01
0.00125093
-1000.01
-0.00139524
0.00252232
-1000
-0.00123619
0.00249894
-1000.01
-0.000942125
0.00245762
-1000.01
-0.000530251
0.00243157
-1000.01
0.00241932
-1000.01
-0.00141505
0.0034477
-1000
-0.00128046
0.00342543
-1000
-0.000968533
0.00337003
-1000
-0.000534287
0.00333176
-1000
0.00331157
-1000.01
-0.00143569
0.00395414
-1000
-0.00133013
0.00395417
-1000
-0.00100237
0.00390685
-1000
-0.000543369
0.00385782
-1000
0.0038386
-1000
-0.0015095
-1000
-0.00141974
-1000
-0.0010621
-1000
-0.000557407
-1000
-1000
-0.00193019
0.00182096
-1000.01
-0.00167981
0.00179069
-1000.01
-0.00125267
0.00175624
-1000.01
-0.000670127
0.00174126
-1000.01
0.00174115
-1000.01
-0.00196527
0.00346869
-1000.01
-0.00171773
0.0034211
-1000.01
-0.00126898
0.00338514
-1000.01
-0.000666081
0.00337117
-1000.01
0.00336414
-1000.01
-0.00201048
0.00472164
-1000.01
-0.00175582
0.00467939
-1000.01
-0.00128351
0.00464183
-1000.01
-0.000665869
0.00462338
-1000.01
0.00461401
-1000.01
-0.00203975
0.00539394
-1000
-0.00178578
0.00539849
-1000
-0.00129677
0.0053956
-1000
-0.000660578
0.00538461
-1000
0.00539151
-1000.01
-0.00204639
-1000
-0.00184769
-1000
-0.00132271
-1000
-0.000646163
-1000
-1000
-0.00261711
0.00247485
-1000.01
-0.00226718
0.00243632
-1000.01
-0.00165857
0.00241254
-1000.01
-0.000860293
0.00241297
-1000.01
0.00242237
-1000.01
-0.00266361
0.00470227
-1000.01
-0.00229444
0.00466288
-1000.01
-0.00166207
0.00464928
-1000.01
-0.000847409
0.0046565
-1000.01
0.00465406
-1000.01
-0.00270727
0.00642271
-1000.01
-0.00230561
0.00639698
-1000.01
-0.00165548
0.00639195
-1000.01
-0.000839355
0.00640535
-1000.01
0.00640412
-1000.01
-0.00273288
0.00749726
-1000
-0.00230399
0.00746441
-1000.01
-0.00164013
0.00748781
-1000.01
-0.000823073
0.00752704
-1000.01
0.00754462
-1000.01
-0.00274604
-1000
-0.0022874
-1000
-0.001606
-1000
-0.000789638
-1000
-1000
-0.00352163
0.00333487
-1000.01
-0.00302131
0.00330749
-1000.01
-0.00218647
0.00330463
-1000.02
-0.001124
0.00331993
-1000.02
0.003332
-1000.02
-0.00356133
0.00632467
-1000.01
-0.00302993
0.00632143
-1000.01
-0.0021769
0.00634153
-1000.01
-0.00110677
0.0063717
-1000.01
0.00637181
-1000.02
-0.00357359
0.00867376
-1000.01
-0.00300471
0.00869793
-1000.01
-0.00214691
0.00873196
-1000.01
-0.00109274
0.00877831
-1000.01
0.00877913
-1000.01
-0.00358687
0.0102702
-1000.01
-0.00296425
0.0102032
-1000.01
-0.0021019
0.0102727
-1000.01
-0.00107105
0.0103582
-1000.01
0.0103732
-1000.01
-0.00362543
-1000
-0.00286192
-1000
-0.00201255
-1000
-0.00103095
-1000.01
-1000.01
-0.0047313
0.00448614
-1000.02
-0.00402122
0.00448121
-1000.02
-0.00289914
0.00450149
-1000.02
-0.00149675
0.00452669
-1000.02
0.00453591
-1000.02
-0.00474919
0.00851565
-1000.02
-0.0040097
0.00855176
-1000.02
-0.00288066
0.0086057
-1000.02
-0.00148066
0.00865126
-1000.02
0.00864888
-1000.02
-0.0047202
0.0117102
-1000.01
-0.00395388
0.0117713
-1000.01
-0.00283511
0.0118508
-1000.02
-0.00146318
0.01192
-1000.02
0.0119178
-1000.02
-0.00467502
0.013769
-1000.01
-0.00387333
0.0138325
-1000.01
-0.00276721
0.0139546
-1000.01
-0.00143854
0.0140627
-1000.01
0.0140677
-1000.01
-0.0046228
-1000
-0.00372829
-1000.01
-0.00264991
-1000.01
-0.00139824
-1000.01
-1000.01
-0.00633247
0.00606661
-1000.02
-0.00535819
0.00608757
-1000.03
-0.00386902
0.00612134
-1000.03
-0.00201526
0.00614522
-1000.03
0.00614437
-1000.03
-0.00632642
0.0115536
-1000.02
-0.00533688
0.0116058
-1000.02
-0.00385413
0.0116707
-1000.03
-0.00200606
0.0117139
-1000.03
0.011702
-1000.03
-0.00627574
0.0159076
-1000.02
-0.00527347
0.0159749
-1000.02
-0.00381074
0.0160697
-1000.02
-0.00199071
0.0161382
-1000.02
0.0161241
-1000.02
-0.00620257
0.0186879
-1000.01
-0.00517976
0.0188028
-1000.01
-0.00374161
0.0189219
-1000.02
-0.00196835
0.0190114
-1000.02
0.0189923
-1000.02
-0.00608767
-1000
-0.00505473
-1000.01
-0.0036454
-1000.01
-0.00194087
-1000.01
-1000.01
-0.00844879
0.00827126
-1000.03
-0.00716107
0.00830126
-1000.04
-0.00519619
0.00832619
-1000.04
-0.00272908
0.00833438
-1000.04
0.00831908
-1000.04
-0.00843844
0.0157788
-1000.03
-0.00715238
0.0158038
-1000.03
-0.00520001
0.0158459
-1000.04
-0.00273086
0.0158697
-1000.04
0.0158418
-1000.04
-0.00841522
0.0217435
-1000.02
-0.00711203
0.021756
-1000.03
-0.00517583
0.0218189
-1000.03
-0.00272227
0.0218616
-1000.03
0.0218234
-1000.03
-0.00838988
0.0256559
-1000.02
-0.00704988
0.0256561
-1000.02
-0.0051313
0.0256936
-1000.02
-0.00271065
0.025724
-1000.02
0.025661
-1000.02
-0.00836712
-1000.01
-0.0070145
-1000.01
-0.00509684
-1000.01
-0.00271298
-1000.01
-1000.02
-0.011309
0.0113146
-1000.04
-0.00962572
0.0113227
-1000.05
-0.00701782
0.0113199
-1000.05
-0.00370307
0.0113092
-1000.05
0.0112821
-1000.06
-0.0113286
0.0215492
-1000.04
-0.00964967
0.0215235
-1000.04
-0.00704484
0.0215298
-1000.05
-0.00371292
0.0215325
-1000.05
0.0214852
-1000.05
-0.0113604
0.029688
-1000.03
-0.00964418
0.0296275
-1000.04
-0.00704221
0.0296424
-1000.04
-0.0037108
0.0296524
-1000.04
0.0295812
-1000.04
-0.0114201
0.0351031
-1000.02
-0.00962991
0.034966
-1000.03
-0.00703184
0.034907
-1000.03
-0.00371535
0.034869
-1000.03
0.0347536
-1000.03
-0.0115307
-1000.01
-0.00968573
-1000.01
-0.00706247
-1000.02
-0.00374786
-1000.02
-1000.02
-0.0152635
0.0154399
-1000.06
-0.0130174
0.0154093
-1000.07
-0.00950557
0.0153823
-1000.07
-0.00501767
0.015365
-1000.07
0.0153311
-1000.08
-0.015331
0.0293356
-1000.06
-0.0130746
0.0292806
-1000.06
-0.00954582
0.0292678
-1000.07
-0.00502858
0.0292594
-1000.07
0.0291901
-1000.07
-0.0153924
0.0403861
-1000.04
-0.013089
0.0403001
-1000.05
-0.00955466
0.0402888
-1000.05
-0.00503024
0.0402747
-1000.06
0.0401664
-1000.06
-0.0154867
0.0477028
-1000.03
-0.013102
0.0475449
-1000.04
-0.00956927
0.0474321
-1000.04
-0.00504726
0.0473476
-1000.04
0.0471875
-1000.05
-0.0156301
-1000.01
-0.0132021
-1000.02
-0.00964142
-1000.02
-0.00509263
-1000.03
-1000.03
-0.0207271
0.0210003
-1000.08
-0.01766
0.0209457
-1000.09
-0.0128754
0.0209149
-1000.1
-0.00678421
0.0209038
-1000.1
0.0208637
-1000.1
-0.0208312
0.0398824
-1000.08
-0.0177346
0.0398346
-1000.08
-0.012918
0.0398201
-1000.09
-0.00679331
0.0398057
-1000.09
0.0397091
-1000.1
-0.0208822
0.0549055
-1000.06
-0.0177521
0.0548293
-1000.07
-0.0129313
0.0548069
-1000.07
-0.0067974
0.0547755
-1000.08
0.0546247
-1000.08
-0.0209613
0.0647554
-1000.04
-0.0177754
0.064626
-1000.05
-0.0129608
0.0644904
-1000.05
-0.00682156
0.0643873
-1000.06
0.0641899
-1000.06
-0.0210888
-1000.02
-0.0179004
-1000.02
-0.0130523
-1000.03
-0.0068645
-1000.04
-1000.04
-0.0281718
0.0285397
-1000.11
-0.0239622
0.0284917
-1000.12
-0.0174278
0.0284704
-1000.13
-0.00916838
0.0284659
-1000.14
0.0284136
-1000.14
-0.0282883
0.0542715
-1000.1
-0.0240441
0.0542355
-1000.11
-0.0174747
0.0542146
-1000.12
-0.00917871
0.0541901
-1000.13
0.0540533
-1000.13
-0.0283246
0.0747609
-1000.08
-0.0240676
0.074662
-1000.09
-0.0174958
0.0746144
-1000.1
-0.00918867
0.0745616
-1000.11
0.0743553
-1000.11
-0.0284174
0.0880975
-1000.05
-0.0241142
0.0879184
-1000.07
-0.0175434
0.0877488
-1000.07
-0.00922099
0.0876374
-1000.08
0.0873897
-1000.08
-0.0285968
-1000.02
-0.0242832
-1000.03
-0.0176472
-1000.04
-0.00926147
-1000.05
-1000.05
-0.0382311
0.0388339
-1000.15
-0.0324965
0.0388029
-1000.17
-0.0235973
0.0387853
-1000.18
-0.0124048
0.0387795
-1000.19
0.0387014
-1000.19
-0.0383572
0.0739248
-1000.14
-0.0325957
0.0738703
-1000.15
-0.0236598
0.0738282
-1000.16
-0.0124234
0.0737849
-1000.17
0.0735882
-1000.18
-0.0384106
0.101878
-1000.11
-0.0326386
0.101701
-1000.13
-0.0236983
0.101604
-1000.14
-0.0124467
0.101517
-1000.15
0.101234
-1000.15
-0.0385782
0.119988
-1000.07
-0.0327347
0.119683
-1000.09
-0.0237777
0.119453
-1000.1
-0.0124908
0.119317
-1000.11
0.118984
-1000.11
-0.03888
-1000.03
-0.0329678
-1000.04
-0.0239076
-1000.06
-0.0125423
-1000.07
-1000.07
-0.0518598
0.052908
-1000.21
-0.044075
0.0528697
-1000.23
-0.0319782
0.0528461
-1000.24
-0.0168067
0.0528317
-1000.26
0.0527084
-1000.26
-0.052027
0.100701
-1000.19
-0.0442078
0.1006
-1000.21
-0.0320681
0.100529
-1000.22
-0.0168458
0.100457
-1000.24
0.10018
-1000.24
-0.052126
0.138774
-1000.15
-0.0442786
0.138506
-1000.17
-0.0321348
0.138341
-1000.19
-0.0168858
0.138205
-1000.2
0.137816
-1000.21
-0.0523843
0.163364
-1000.1
-0.0444434
0.162947
-1000.12
-0.0322606
0.162636
-1000.14
-0.0169465
0.162436
-1000.15
0.161971
-1000.15
-0.0527998
-1000.04
-0.0447582
-1000.06
-0.0324519
-1000.08
-0.0170277
-1000.09
-1000.1
-0.0703925
0.0720812
-1000.28
-0.0597797
0.072024
-1000.31
-0.0433481
0.0719962
-1000.33
-0.0227887
0.071966
-1000.35
0.0717783
-1000.36
-0.0706226
0.13714
-1000.26
-0.0599532
0.136987
-1000.28
-0.0434798
0.136875
-1000.31
-0.0228618
0.136762
-1000.32
0.136383
-1000.33
-0.0707733
0.188956
-1000.21
-0.060065
0.188595
-1000.23
-0.0435854
0.188336
-1000.26
-0.0229176
0.188133
-1000.27
0.187603
-1000.28
-0.0711201
0.222387
-1000.14
-0.0603212
0.221831
-1000.16
-0.0437724
0.221394
-1000.19
-0.0230003
0.22109
-1000.2
0.220446
-1000.21
-0.0716726
-1000.06
-0.0607638
-1000.08
-0.0440643
-1000.1
-0.0231226
-1000.12
-1000.13
-0.0955293
0.0981509
-1000.39
-0.0810327
0.0981048
-1000.42
-0.0587472
0.0980725
-1000.45
-0.0309056
0.0980181
-1000.47
0.0977499
-1000.48
-0.0958093
0.18676
-1000.35
-0.081262
0.186541
-1000.39
-0.0589397
0.186362
-1000.42
-0.0310186
0.1862
-1000.44
0.185691
-1000.45
-0.096025
0.257255
-1000.28
-0.0814404
0.25676
-1000.32
-0.0590881
0.25638
-1000.35
-0.0310864
0.2561
-1000.37
0.255386
-1000.38
-0.0965005
0.302742
-1000.19
-0.0818119
0.301928
-1000.22
-0.0593437
0.301311
-1000.25
-0.03119
0.300885
-1000.27
0.300008
-1000.29
-0.0973021
-1000.08
-0.0824314
-1000.11
-0.0597523
-1000.14
-0.0313543
-1000.16
-1000.18
-0.129542
0.133653
-1000.53
-0.109801
0.133634
-1000.58
-0.079604
0.133586
-1000.62
-0.0418974
0.133514
-1000.64
0.133156
-1000.66
-0.129877
0.254318
-1000.48
-0.110115
0.25402
-1000.53
-0.0798626
0.25377
-1000.57
-0.0420429
0.253575
-1000.6
0.2529
-1000.61
-0.130167
0.350165
-1000.39
-0.110358
0.349516
-1000.43
-0.0800363
0.349021
-1000.47
-0.0421128
0.348668
-1000.5
0.347708
-1000.52
-0.130791
0.411991
-1000.26
-0.110835
0.410902
-1000.3
-0.0803544
0.410076
-1000.34
-0.0422389
0.409503
-1000.37
0.408312
-1000.39
-0.131858
-1000.11
-0.111654
-1000.15
-0.0808967
-1000.19
-0.0424556
-1000.22
-1000.24
-0.175687
0.182041
-1000.72
-0.14882
0.182044
-1000.79
-0.107851
0.182007
-1000.84
-0.0567503
0.181958
-1000.88
0.181503
-1000.9
-0.176106
0.346222
-1000.65
-0.149213
0.345926
-1000.72
-0.108149
0.345679
-1000.77
-0.0569116
0.345493
-1000.81
0.34461
-1000.83
-0.17638
0.47655
-1000.53
-0.14944
0.475811
-1000.59
-0.108298
0.475236
-1000.64
-0.0569661
0.47481
-1000.68
0.473517
-1000.7
-0.17708
0.560641
-1000.35
-0.14998
0.559272
-1000.42
-0.10867
0.558168
-1000.47
-0.0571176
0.557377
-1000.51
0.555719
-1000.53
-0.178422
-1000.15
-0.151064
-1000.21
-0.109412
-1000.26
-0.0574421
-1000.3
-1000.32
-0.238475
0.247942
-1000.98
-0.201763
0.24807
-1001.07
-0.146066
0.248166
-1001.14
-0.0767925
0.248223
-1001.2
0.247669
-1001.22
-0.238906
0.471271
-1000.89
-0.202139
0.47122
-1000.98
-0.146336
0.47115
-1001.05
-0.0769396
0.471069
-1001.1
0.469951
-1001.13
-0.238905
0.648574
-1000.72
-0.20216
0.647864
-1000.8
-0.146352
0.647279
-1000.88
-0.076917
0.646816
-1000.93
0.645095
-1000.96
-0.239547
0.763035
-1000.48
-0.202677
0.761199
-1000.57
-0.146725
0.759701
-1000.64
-0.077072
0.758597
-1000.69
0.756265
-1000.72
-0.241336
-1000.2
-0.204136
-1000.29
-0.147751
-1000.36
-0.077579
-1000.41
-1000.44
-0.323919
0.337723
-1001.34
-0.273534
0.33832
-1001.46
-0.197713
0.338815
-1001.56
-0.103811
0.339148
-1001.63
0.338533
-1001.67
-0.324053
0.641601
-1001.21
-0.273651
0.642259
-1001.33
-0.197803
0.642728
-1001.43
-0.103854
0.642993
-1001.5
0.641656
-1001.54
-0.323282
0.882713
-1000.98
-0.273074
0.882313
-1001.09
-0.197419
0.881948
-1001.19
-0.103614
0.881594
-1001.26
0.879335
-1001.3
-0.32355
1.03821
-1000.65
-0.273309
1.03583
-1000.77
-0.197622
1.03386
-1000.87
-0.103716
1.03236
-1000.93
1.02913
-1000.97
-0.325844
-1000.27
-0.275206
-1000.39
-0.198998
-1000.49
-0.104444
-1000.56
-1000.59
-0.44023
0.460275
-1001.83
-0.370825
0.46208
-1001.99
-0.26751
0.463538
-1002.12
-0.140179
0.464527
-1002.22
0.463951
-1002.27
-0.439354
0.873904
-1001.66
-0.37014
0.876246
-1001.82
-0.267051
0.878035
-1001.95
-0.139935
0.879172
-1002.04
0.877669
-1002.09
-0.436773
1.2014
-1001.33
-0.368127
1.20204
-1001.49
-0.265693
1.20246
-1001.62
-0.139239
1.20253
-1001.71
1.19965
-1001.76
-0.435869
1.41218
-1000.89
-0.367466
1.40936
-1001.04
-0.265364
1.40689
-1001.17
-0.139136
1.40489
-1001.26
1.40042
-1001.31
-0.438523
-1000.38
-0.369797
-1000.53
-0.267156
-1000.66
-0.140149
-1000.75
-1000.8
-0.598943
0.62816
-1002.5
-0.502915
0.632674
-1002.72
-0.361988
0.636263
-1002.9
-0.189037
0.638697
-1003.03
0.638353
-1003.1
-0.595559
1.19135
-1002.26
-0.500258
1.19748
-1002.48
-0.360182
1.20225
-1002.65
-0.188184
1.20535
-1002.78
1.2039
-1002.84
-0.588924
1.63533
-1001.82
-0.495035
1.63869
-1002.02
-0.356661
1.64112
-1002.19
-0.186525
1.64238
-1002.32
1.63888
-1002.38
-0.585059
1.92015
-1001.22
-0.492141
1.91721
-1001.42
-0.354938
1.91436
-1001.58
-0.185853
1.9118
-1001.7
1.90561
-1001.76
-0.587727
-1000.52
-0.494702
-1000.72
-0.357142
-1000.88
-0.187279
-1001
-1001.06
-0.816537
0.859513
-1003.42
-0.682836
0.869757
-1003.72
-0.490524
0.877854
-1003.97
-0.254312
0.883394
-1004.15
0.883693
-1004.23
-0.807559
1.62661
-1003.09
-0.675744
1.64102
-1003.38
-0.485653
1.65222
-1003.62
-0.2522
1.65968
-1003.79
1.65882
-1003.87
-0.792115
2.22648
-1002.47
-0.663597
2.23624
-1002.75
-0.477382
2.24342
-1002.97
-0.248579
2.24771
-1003.13
2.24368
-1003.21
-0.781379
2.60881
-1001.65
-0.655521
2.60689
-1001.91
-0.472278
2.60432
-1002.13
-0.246697
2.60144
-1002.28
2.59285
-1002.36
-0.782825
-1000.71
-0.657567
-1000.96
-0.474546
-1001.17
-0.248634
-1001.33
-1001.41
-1.11749
1.18107
-1004.68
-0.928952
1.20344
-1005.11
-0.667645
1.2209
-1005.45
-0.339647
1.23325
-1005.71
1.2348
-1005.81
-1.0963
2.22687
-1004.22
-0.912275
2.25917
-1004.62
-0.655874
2.28386
-1004.94
-0.335181
2.30108
-1005.18
2.30139
-1005.27
-1.06191
3.03269
-1003.36
-0.885577
3.05689
-1003.72
-0.637137
3.0745
-1004.01
-0.328185
3.08586
-1004.23
3.08103
-1004.32
-1.03589
3.54027
-1002.24
-0.866221
3.54227
-1002.57
-0.624398
3.54165
-1002.84
-0.324456
3.53955
-1003.03
3.52717
-1003.13
-1.03308
-1000.97
-0.865867
-1001.28
-0.625479
-1001.55
-0.327346
-1001.74
-1001.84
-1.54132
1.63327
-1006.43
-1.26576
1.68227
-1007.07
-0.919906
1.71863
-1007.52
-0.442977
1.7467
-1007.94
1.74929
-1008
-1.49306
3.0625
-1005.76
-1.22901
3.13407
-1006.33
-0.892324
3.18561
-1006.74
-0.435007
3.22573
-1007.12
3.2257
-1007.19
-1.41747
4.13415
-1004.55
-1.17301
4.1903
-1005.02
-0.849808
4.22888
-1005.38
-0.424358
4.25685
-1005.69
4.24801
-1005.77
-1.3581
4.79587
-1003.02
-1.13095
4.80858
-1003.41
-0.820091
4.81345
-1003.73
-0.420473
4.81595
-1003.99
4.79568
-1004.1
-1.3442
-1001.31
-1.12404
-1001.68
-0.815957
-1001.98
-0.426518
-1002.22
-1002.34
-2.16366
2.27749
-1008.8
-1.71459
2.38953
-1009.91
-1.30733
2.46112
-1010.39
-0.546196
2.52902
-1011.23
2.52591
-1011.07
-2.05298
4.24197
-1007.85
-1.63817
4.40471
-1008.76
-1.24276
4.50305
-1009.18
-0.533048
4.60408
-1009.9
4.58822
-1009.78
-1.88426
5.64089
-1006.09
-1.52925
5.76973
-1006.74
-1.14259
5.84448
-1007.11
-0.521987
5.91532
-1007.62
5.88397
-1007.59
-1.75102
6.47868
-1004.01
-1.44738
6.51967
-1004.47
-1.07412
6.53597
-1004.8
-0.529725
6.55806
-1005.18
6.51707
-1005.26
-1.70898
-1001.74
-1.42569
-1002.11
-1.05021
-1002.42
-0.546806
-1002.7
-1002.83
-3.16369
3.19517
-1011.83
-2.26246
3.48048
-1014.29
-1.96509
3.60261
-1014.29
-0.614967
3.78029
-1016.36
3.74117
-1015.43
-2.90299
5.93143
-1010.54
-2.10685
6.33581
-1012.42
-1.81688
6.47951
-1012.35
-0.592888
6.76714
-1014.11
6.6627
-1013.3
-2.51048
7.6945
-1007.95
-1.914
8.00448
-1009.01
-1.57617
8.11329
-1009.08
-0.585674
8.31055
-1010.15
8.17364
-1009.68
-2.20521
8.71373
-1005.18
-1.78233
8.83722
-1005.72
-1.42334
8.86873
-1005.91
-0.634435
8.97396
-1006.63
8.86858
-1006.59
-2.08475
-1002.17
-1.73013
-1002.42
-1.32274
-1002.55
-0.678162
-1002.84
-1002.93
-4.90295
4.43974
-1015.19
-2.96925
5.26478
-1021.49
-3.14177
5.41312
-1019.53
-0.604402
5.88961
-1024.79
5.72536
-1021.76
-4.30849
8.36431
-1013.77
-2.62094
9.50223
-1018.34
-2.81441
9.52309
-1016.26
-0.565481
10.3977
-1020.87
9.96298
-1018.1
-3.40551
10.4322
-1009.76
-2.23121
11.2488
-1011.93
-2.24491
11.2463
-1010.79
-0.56264
11.8093
-1013.24
11.275
-1011.56
-2.7055
11.6417
-1006.34
-2.04243
12.0507
-1007.19
-1.96438
12.0589
-1006.8
-0.731142
12.489
-1008.55
12.1597
-1008.21
-2.34185
-1002.17
-1.88566
-1002.05
-1.57188
-1001.5
-0.774275
-1001.65
-1001.63
-7.80091
5.86511
-1018.09
-4.18637
8.30732
-1033.41
-5.23449
8.41445
-1026.89
-0.432137
9.60124
-1039.19
9.11909
-1031.31
-6.49579
11.899
-1017.83
-3.34172
15.1404
-1028.33
-4.55036
14.4113
-1021.05
-0.356699
16.9463
-1032.41
15.5218
-1024.86
-4.58309
13.8621
-1010.81
-2.46889
16.0063
-1014.91
-3.1837
15.3061
-1010.97
-0.392717
16.8315
-1015.92
15.2364
-1011.66
-3.11565
15.3966
-1007.29
-2.21557
16.7897
-1008.87
-2.95314
16.4307
-1007.19
-0.905114
17.7894
-1011.55
16.6661
-1010.54
-2.2088
-1000.3
-1.51451
-999.681
-1.58624
-997.315
-0.779037
-997.112
-997.301
-12.4254
7.05326
-1018.77
-6.65824
13.4468
-1052.63
-8.96127
13.6938
-1038.29
0.712243
16.1671
-1065.03
15.1418
-1045.74
-9.52547
17.2634
-1024.3
-4.44468
25.8426
-1045.81
-7.62655
22.7777
-1026.95
0.880341
29.5212
-1054.27
25.2887
-1034.12
-5.57309
17.9678
-1010.32
-2.51676
23.0489
-1015.17
-4.13872
20.603
-1007.17
0.628838
24.6793
-1015.85
20.7904
-1006.54
-2.44195
19.8793
-1008.62
-2.53778
23.8802
-1009.61
-5.00472
21.9128
-1006.03
-1.33861
25.3587
-1015.9
21.8736
-1012.96
-0.736472
-994.029
-0.291226
-992.438
-0.97029
-987.124
-0.941964
-985.843
-988.595
-19.9969
6.9123
-1012.93
-12.4615
22.8473
-1083.01
-16.1371
24.0436
-1058.65
4.67143
28.7792
-1114.62
26.6367
-1067.71
-13.4982
25.381
-1037.18
-6.26286
47.4741
-1077.67
-13.8556
38.1324
-1033.45
5.35007
55.3291
-1100.02
43.1921
-1045.33
-5.00191
23.9889
-1009.51
-1.96178
35.1016
-1005.84
-4.7899
28.8303
-995.041
3.64936
38.6652
-1007.62
28.8017
-988.497
1.60391
24.0956
-1008.16
-3.21613
33.3473
-1003.03
-9.27935
27.2204
-998.358
-2.08762
35.0888
-1019.51
25.3396
-1011.59
4.07977
-979.654
2.77396
-975.139
0.626735
-966.877
-2.49557
-962.078
-976.886
-38.3228
2.45198
-984.405
-32.5744
44.3137
-1133.07
-37.6333
52.9711
-1106.57
13.946
65.3257
-1231.52
61.1975
-1114.96
-20.4312
37.4221
-1065.11
-11.1368
94.3987
-1137.05
-29.5603
72.1585
-1034.21
16.5514
117.572
-1198.38
85.0124
-1052.59
0.0211723
36.7495
-1016.79
1.511
56.88
-969.811
-4.1045
42.9836
-960.251
10.1592
65.7167
-970.031
40.3673
-933.693
10.8926
25.0038
-992.108
-4.42153
41.9854
-972.824
-18.4394
29.4503
-970.806
-3.16364
45.8361
-1014.91
19.1085
-993.491
16.8749
-938.589
7.57371
-938.069
1.80896
-929.317
-10.9375
-915.476
-976.576
20.9055
-7.39755
-960.093
-6.80611
28.5165
-1133.88
-7.12528
17.3349
-1123.58
42.6696
26.3452
-1307.66
20.8814
-1093.17
13.8626
13.2263
-1081.66
10.0771
84.4146
-1189.16
-17.3105
5.99344
-995.485
48.1668
74.586
-1312.1
19.3884
-1002.93
3.28656
23.4504
-1041.11
-4.14301
48.4745
-926.441
9.00193
30.5018
-997.904
38.4228
62.1132
-986.979
14.4776
-890.36
23.6288
41.9844
-1019
-9.27938
42.7755
-934.216
-32.598
32.5162
-949.502
2.44058
63.7038
-1051.54
3.81891
-980.392
38.6662
-908.945
37.4413
-920.714
31.9634
-866.57
3.36734
-828.023
-940.159
-238.017
-153.733
-548.944
-280.649
233.366
-1324.61
-241.108
387.307
-1550.43
127.001
414.667
-2090.44
409.948
-1376.12
-126.082
155.066
-1404.45
-57.1787
588.713
-1613.41
-190.354
509.892
-984.895
161.088
825.819
-2074.69
525.339
-957.236
123.204
330.857
-1393.37
121.791
318.528
-654.844
-22.8721
168.06
-511.409
11.2542
327.803
-523.089
114.46
-468.227
121.918
-42.3782
-515.407
-6.19332
49.056
-536.633
-90.1963
-34.3271
-663.111
-19.1971
7.49486
-802.227
-150.612
-734.517
133.033
-393.31
-83.7697
-464.713
-104.855
-743.497
-214.49
-629.46
-1336.24
399.233
82.3125
-857.293
225.05
-149.234
-1001.2
152.369
-363.784
-1113.96
60.8166
-331.825
-1667.06
-277.849
-1037.45
267.573
-191.498
-1004.86
63.5539
-276.239
-1282.39
98.2751
-634.307
-749.093
65.2007
-610.145
-1763.3
-502.086
-667.799
-186.773
-339.183
-1087.18
-324.808
-283.777
-509.27
116.212
41.6485
-1628.39
308.752
-31.0007
-1294.77
-138.694
-522.867
125.64
278.743
-1489.5
-53.4553
-205.215
-436.1
-105.779
152.575
-721.714
85.695
253.104
-1277.81
-19.9289
-767.586
116.958
-753.764
463.679
-1392.24
348.883
-384.06
209.328
-302.624
-906.682
39.8482
-74.7241
-651.571
1.42657
4.94833
-967.722
-15.4276
1.2052
-1098.31
-0.198342
8.6128
-1690.9
0.256228
-1037.91
6.27426
0.972047
-1170.28
3.94855
52.8003
-1327.91
-8.14092
134.369
-870.168
8.91849
217.26
-1989.01
8.8452
-667.469
48.8246
217.404
-1426.89
135.323
14.296
-557.265
-72.5821
35.492
-1321.6
-40.2274
196.619
-1306.49
-44.8753
-509.374
57.8092
10.311
-1086.04
0.305872
-92.2016
-272.099
-14.6502
-39.94
-631.326
0.918315
-18.4367
-1078.32
-88.8406
-722.703
7.00618
-512.491
-113.231
-1147.83
-0.157822
-500.62
-0.216048
-315.085
-1151.08
-163.022
112.832
-539.377
-193.693
390.183
-1327.23
281.789
500.236
-2074.03
123.708
690.511
-2223.33
340.251
-1254.45
4.7171
167.348
-1235.54
6.9489
225.069
-1165.03
145.893
224.339
-733.214
148.663
229.621
-1530.89
249.016
-427.571
18.0661
-156.436
-1041.91
6.939
39.6138
-360.683
-2.38142
-23.0249
-1064.92
-23.1686
50.7088
-1106.79
53.6893
-337.216
-0.659272
0.469402
-1659.77
-4.22474
0.153576
-229.073
-14.6125
-145.194
-498.77
105.845
-64.4057
-1083.66
-351.983
-211.184
-0.870004
-10.8056
-111.474
-928.16
93.4603
-1066.11
4.0889
-293.911
-1450.75
-242.843
-108.169
-491.416
144.808
310.157
-2025.04
-265.509
-7.17882
-1656.54
-112.495
294.367
-2670.72
3.71779
-1370.66
129.458
1.63532
-1927.78
17.7482
-27.0621
-716.1
92.6011
-13.5042
-801.741
1.66031
-336.955
-808.624
-2.07166
-420.121
-37.9363
-952.24
-7.21439
-138.454
-6.02141
-281.206
-279.785
30.2921
-967.385
-483.95
-205.661
-1033.92
3.33256
-826.57
-513.79
-1084.66
-1852.2
0.994865
-1.05519
-748.824
27.9251
-173.793
-321.614
194.959
122.441
-1578.8
-1.10818
-11.7845
82.6792
-2807.1
9.30486
-1140.81
130.526
-1468.51
-3.08182
-8.16979
-1465.06
-50.6525
-517.585
-19.6008
159.373
604.85
-2839.92
-169.183
118.005
-1445.99
-140.752
77.956
-2777.1
-219.788
-1291.63
-361.739
-602.438
-2349.24
-69.8949
60.4886
-463.583
-97.4559
173.601
-829.777
-87.3649
82.9563
-823.715
145.129
-872.403
110.415
259.657
-1446.82
43.4952
37.3487
-191.146
-107.599
4.24417
-646.934
-548.513
172.667
-682.712
67.0912
-1297.05
-331.096
138.726
-1343.78
-36.6639
346.262
-1352.17
-307.722
116.521
-162.833
-310.885
118.507
-1521.47
346.264
-601.842
54.1753
-3074.99
-385.156
-448.821
-359.694
-1393.92
-267.454
-68.134
-1805.78
-39.601
100.211
-16.9508
-408.139
-44.9217
-2426.46
434.152
399.763
-2688.04
73.5751
16.049
-2432.57
-9.98225
-1208.07
75.3218
-1178.76
-709.397
-31.1257
9.98293
-412.041
62.6177
-1.69202
-522.064
-2.24569
56.0984
-798.901
-33.846
-850.784
-7.45253
-51.0021
-2817.19
-2.98966
290.947
-476.573
51.1516
-45.7377
-657.029
-15.2886
-39.3635
-520.81
-49.7843
-1296.4
-17.294
328.915
-1701.84
-284.174
306.503
-1100.85
113.423
178.119
-784.286
-375.003
-284.378
-788.033
-11.8677
-1014.76
-3.43814
-2695.46
9.72508
-125.771
-175.643
-945.883
27.8881
-1308.3
-2011.86
71.9157
4.38532
-21.0124
-32.6746
9.85586
-2331.72
-303.571
-104.22
-2312.92
-1146.65
-112.631
-1476.86
320.195
-2674.92
-76.0319
-273.311
-23.5109
-131.677
65.9149
-412.455
-25.7772
111.265
-843.448
-12.4596
53.2279
-978.078
329.757
-872.805
79.492
-106.281
-2795.58
84.5741
187.109
-602.849
24.888
-67.6083
-418.469
-65.5387
110.314
-487.469
214.213
-1246.39
388.23
410.143
-2433.56
-79.6906
-110.677
-335.14
249.953
50.8956
-1232.43
-248.246
318.91
-498.431
180.217
-1229.01
-318.541
-2180.34
193.229
-1080.69
266.624
-979.645
307.933
-1755.59
-1614.96
-88.9188
1.10607
-58.4873
-8.19437
109.053
-2521.5
413.559
192.788
-2927.47
130.588
-576.016
-617.875
-524.692
-2019.64
-3.6917
543.299
-665.164
176.627
132.186
-615.906
201.309
-48.8768
-626.467
92.6903
-542.932
-902.544
253.296
-1558.1
-269.072
528.265
-2415.47
-150.188
9.25987
-598.807
89.6097
241.411
-948.555
267.421
32.2263
-1240.44
-297.896
-427.777
90.3713
215.42
-1940.81
-25.5266
81.9009
-291.883
-63.8008
47.338
-1000.09
290.91
220.871
-1041.79
-183.276
-1052.72
-949.985
-218.439
-317.93
-1707.41
396.983
-1365.52
-78.6727
-979.229
-1832.41
-182.324
198.358
-103.869
-1191.36
19.6958
-1532.16
-893.345
106.154
-3331.64
5.74681
142.484
-1659.45
-2.07955
-2011.81
-215.544
381.368
-663.164
-69.2184
60.1441
-802.681
80.5636
104.275
-774.37
-89.0293
-277.513
-312.954
-173.722
-1475.49
-171.299
-21.4054
-1845.91
-33.6605
71.1888
-747.491
120.862
190.81
-1189.61
-54.0295
89.4587
-1432.52
15.5298
-671.058
-33.851
-65.5465
-1572.81
-36.4572
44.5659
-262.654
169.873
44.0093
-1059.62
49.19
198.016
-1029.66
-157.205
-830.796
23.4159
-185.59
-94.5669
-1261.99
78.9519
-1443.77
-215.966
-402.495
-1464.06
223.971
13.6931
-447.552
-110.722
-109.11
-1088.36
-501.846
11.3748
-2951.89
602.328
158.835
-2922.46
51.2447
-1460.73
-77.4726
-154.3
-43.6802
-179.881
-213.233
-596.149
-159.011
155.416
-939.281
66.5091
-11.913
-367.727
159.239