/*--------------------------------*- C++ -*----------------------------------*\
| =========                 |                                                 |
| \\      /  F ield         | OpenFOAM: The Open Source CFD Toolbox           |
|  \\    /   O peration     | Version:  5.x                                   |
|   \\  /    A nd           | Web:      www.OpenFOAM.org                      |
|    \\/     M anipulation  |                                                 |
\*---------------------------------------------------------------------------*/
FoamFile
{
    version     2.0;
    format      ascii;
    class       surfaceScalarField;
    location    "700";
    object      phi;
}
// * * * * * * * * * * * * * * * * * * * * * * * * * * * * * * * * * * * * * //

dimensions      [0 3 -1 0 0 0 0];

internalField   nonuniform List<scalar> 
89
(
-0.0250001
-0.0250001
-0.0250001
-0.0250001
-0.0250001
-0.0250001
-0.0250001
-0.0250001
-0.0250001
-0.025
-0.0249999
-0.0249998
-0.0249996
-0.0249993
-0.0249988
-0.0249982
-0.0249972
-0.0249959
-0.0249941
-0.0249916
-0.0249881
-0.0249833
-0.0249768
-0.0249679
-0.0249557
-0.0249392
-0.0249167
-0.0248863
-0.0248452
-0.0247896
-0.0247148
-0.0246139
-0.0244782
-0.024295
-0.0240466
-0.0237253
-0.0233348
-0.0229261
-0.0225237
-0.0232772
-0.0232525
-0.0229702
-0.022622
-0.0224823
-0.0227817
-0.023019
-0.0228832
-0.0226066
-0.0224891
-0.0226787
-0.0229526
-0.0229364
-0.0230583
-0.0232364
-0.0236752
-0.0240325
-0.0242958
-0.0244898
-0.0246328
-0.0247384
-0.0248156
-0.0248706
-0.0249103
-0.0249389
-0.0249595
-0.0249741
-0.0249843
-0.0249914
-0.0249961
-0.0249992
-0.0250012
-0.0250023
-0.0250029
-0.0250032
-0.0250032
-0.025003
-0.0250028
-0.0250025
-0.0250022
-0.0250019
-0.0250015
-0.0250013
-0.025001
-0.0250008
-0.0250006
-0.0250005
-0.0250004
-0.0250003
-0.0250002
)
;

boundaryField
{
    inlet
    {
        type            calculated;
        value           uniform -0.0250002;
    }
    outlet
    {
        type            calculated;
        value           uniform 0.0250001;
    }
    repeat_boundary
    {
        type            calculated;
        value           uniform 0;
    }
    procBoundary3to1
    {
        type            processor;
        value           nonuniform List<scalar> 
90
(
1.49174e-08
2.61726e-08
4.02624e-08
5.62468e-08
7.45283e-08
9.56434e-08
1.20081e-07
1.48251e-07
1.8058e-07
2.17449e-07
2.59152e-07
3.05825e-07
3.5733e-07
4.1309e-07
4.71864e-07
5.31433e-07
5.88155e-07
6.35848e-07
6.65223e-07
6.62248e-07
6.05415e-07
4.72942e-07
2.69647e-07
-1.5856e-07
-8.23795e-07
-1.85217e-06
-3.38158e-06
-5.61785e-06
-8.84052e-06
-1.34309e-05
-1.99097e-05
-2.89907e-05
-4.16833e-05
-5.95781e-05
-8.51336e-05
-0.000113551
-0.000143908
-0.000157224
-0.00016135
0.00029891
-1.05495e-05
-7.25715e-05
-0.000116849
-9.53481e-05
0.000110531
1.08697e-05
-0.000296276
-0.000449157
-0.00018636
1.61945e-05
8.22899e-05
-5.86796e-05
3.35649e-05
0.000254014
0.000309899
0.00026153
0.000202794
0.000155658
0.00011939
9.15543e-05
7.02526e-05
5.39697e-05
4.14904e-05
3.19154e-05
2.45642e-05
1.89188e-05
1.45826e-05
1.12511e-05
8.69031e-06
6.72062e-06
5.20449e-06
4.03659e-06
3.13622e-06
2.44148e-06
1.9049e-06
1.48997e-06
1.16862e-06
9.19195e-07
7.25057e-07
5.73429e-07
4.54552e-07
3.60992e-07
2.87107e-07
2.28612e-07
1.82261e-07
1.45581e-07
1.1685e-07
9.47832e-08
7.86875e-08
7.14724e-08
)
;
    }
    procBoundary3to2
    {
        type            processor;
        value           nonuniform List<scalar> 
90
(
-1.60828e-08
-2.93011e-08
-4.54683e-08
-6.37516e-08
-8.49007e-08
-1.10032e-07
-1.40491e-07
-1.77904e-07
-2.24377e-07
-2.82722e-07
-3.56547e-07
-4.50473e-07
-5.70417e-07
-7.23993e-07
-9.21024e-07
-1.17423e-06
-1.50013e-06
-1.92018e-06
-2.46239e-06
-3.16328e-06
-4.07061e-06
-5.24696e-06
-6.77408e-06
-8.7576e-06
-1.13385e-05
-1.47011e-05
-1.90879e-05
-2.48178e-05
-3.23104e-05
-4.21193e-05
-5.49751e-05
-7.18509e-05
-9.40856e-05
-0.000123648
-0.000163213
-0.000207754
-0.000246629
-0.000251573
-0.000241031
0.000454539
-1.41443e-05
-0.000209749
-0.000231313
-4.44255e-05
0.000188866
0.000226474
0.000160387
0.000172644
6.87903e-05
0.000173468
0.000191623
4.24709e-05
8.84248e-05
-7.57579e-05
0.000128951
9.57492e-05
6.06154e-05
3.83152e-05
2.3612e-05
1.41244e-05
6.92587e-06
1.0023e-06
-1.78873e-06
-3.25422e-06
-3.99804e-06
-4.30376e-06
-4.34285e-06
-4.20792e-06
-3.95748e-06
-3.6362e-06
-3.27921e-06
-2.91267e-06
-2.55501e-06
-2.21762e-06
-1.90768e-06
-1.62902e-06
-1.38299e-06
-1.16865e-06
-9.84021e-07
-8.26693e-07
-6.93997e-07
-5.83183e-07
-4.91539e-07
-4.16478e-07
-3.55596e-07
-3.06705e-07
-2.67799e-07
-2.36897e-07
-2.12215e-07
-2.00339e-07
)
;
    }
}


// ************************************************************************* //
