/*--------------------------------*- C++ -*----------------------------------*\
| =========                 |                                                 |
| \\      /  F ield         | OpenFOAM: The Open Source CFD Toolbox           |
|  \\    /   O peration     | Version:  5.x                                   |
|   \\  /    A nd           | Web:      www.OpenFOAM.org                      |
|    \\/     M anipulation  |                                                 |
\*---------------------------------------------------------------------------*/
FoamFile
{
    version     2.0;
    format      ascii;
    class       volVectorField;
    location    "700";
    object      U;
}
// * * * * * * * * * * * * * * * * * * * * * * * * * * * * * * * * * * * * * //

dimensions      [0 1 -1 0 0 0 0];

internalField   nonuniform List<vector> 
90
(
(3.07476e-09 -2.93229e-09 -0.001)
(5.47108e-09 -5.15599e-09 -0.001)
(8.45946e-09 -7.8992e-09 -0.001)
(1.1877e-08 -1.09564e-08 -0.001)
(1.58565e-08 -1.43888e-08 -0.001)
(2.06018e-08 -1.82904e-08 -0.001)
(2.63708e-08 -2.27579e-08 -0.001)
(3.34896e-08 -2.78862e-08 -0.001)
(4.23695e-08 -3.3765e-08 -0.001)
(5.3535e-08 -4.04741e-08 -0.001)
(6.76564e-08 -4.80758e-08 -0.000999999)
(8.55948e-08 -5.6601e-08 -0.000999995)
(1.08459e-07 -6.60284e-08 -0.000999988)
(1.37682e-07 -7.62547e-08 -0.000999978)
(1.75118e-07 -8.70532e-08 -0.000999963)
(2.23175e-07 -9.80169e-08 -0.000999941)
(2.84978e-07 -1.08471e-07 -0.00099991)
(3.64595e-07 -1.17288e-07 -0.000999866)
(4.67329e-07 -1.22768e-07 -0.000999805)
(6.00101e-07 -1.22396e-07 -0.000999719)
(7.71965e-07 -1.12502e-07 -0.000999601)
(9.94779e-07 -8.77919e-08 -0.000999438)
(1.28404e-06 -4.08178e-08 -0.000999216)
(1.65989e-06 3.85204e-08 -0.000998912)
(2.14899e-06 1.649e-07 -0.000998498)
(2.78629e-06 3.58563e-07 -0.000997933)
(3.61776e-06 6.4751e-07 -0.000997166)
(4.70377e-06 1.07018e-06 -0.000996126)
(6.12373e-06 1.67919e-06 -0.000994719)
(7.98218e-06 2.54629e-06 -0.000992812)
(1.04173e-05 3.76942e-06 -0.000990232)
(1.36149e-05 5.48354e-06 -0.000986813)
(1.78376e-05 7.88033e-06 -0.000982493)
(2.34695e-05 1.12451e-05 -0.00097654)
(3.09374e-05 1.59542e-05 -0.000964319)
(3.93171e-05 2.15795e-05 -0.000941165)
(4.68239e-05 2.70967e-05 -0.000936358)
(4.9689e-05 3.05325e-05 -0.00111394)
(4.38601e-05 2.87398e-05 -0.000311683)
(-7.4778e-05 -4.87946e-05 -0.0021161)
(4.97706e-06 4.18084e-06 -0.0015832)
(4.65298e-05 1.79966e-05 -0.00166102)
(6.71235e-05 4.01065e-05 -0.00285494)
(1.65263e-05 2.34891e-05 -0.00162972)
(-4.60666e-05 -2.64123e-05 -0.00270553)
(-3.56378e-05 6.13603e-06 -0.00205766)
(-3.47523e-05 0.000101822 -0.00251688)
(-1.88239e-05 9.44013e-05 -0.00200485)
(-1.33895e-05 5.88031e-05 -0.00267255)
(-9.17228e-06 1.45594e-05 -0.00161786)
(-5.08063e-05 -1.14464e-05 -0.00273071)
(9.55557e-06 2.50657e-05 -0.00110941)
(-3.17436e-05 -2.37783e-05 -0.00197617)
(2.52957e-07 -4.65122e-05 -0.00105177)
(-2.4238e-05 -5.41733e-05 -0.000933313)
(-1.65462e-05 -4.8022e-05 -0.000942227)
(-1.04317e-05 -3.76452e-05 -0.000966225)
(-6.39937e-06 -2.88117e-05 -0.00097635)
(-3.71995e-06 -2.20254e-05 -0.000982808)
(-1.90105e-06 -1.68458e-05 -0.00098762)
(-6.95966e-07 -1.28988e-05 -0.000991218)
(7.4193e-08 -9.88978e-06 -0.000993823)
(5.48751e-07 -7.58976e-06 -0.000995689)
(8.2018e-07 -5.82953e-06 -0.000997035)
(9.53143e-07 -4.48136e-06 -0.000998005)
(9.93631e-07 -3.44828e-06 -0.000998697)
(9.74461e-07 -2.65618e-06 -0.000999186)
(9.18872e-07 -2.04844e-06 -0.000999526)
(8.43103e-07 -1.58177e-06 -0.000999758)
(7.58216e-07 -1.22309e-06 -0.000999913)
(6.71512e-07 -9.47133e-07 -0.00100001)
(5.87601e-07 -7.34597e-07 -0.00100007)
(5.09202e-07 -5.70733e-07 -0.00100011)
(4.37743e-07 -4.4425e-07 -0.00100012)
(3.7377e-07 -3.46505e-07 -0.00100013)
(3.17328e-07 -2.70866e-07 -0.00100012)
(2.68168e-07 -2.12245e-07 -0.00100012)
(2.25791e-07 -1.66727e-07 -0.00100011)
(1.89581e-07 -1.31304e-07 -0.00100009)
(1.58895e-07 -1.03668e-07 -0.00100008)
(1.33097e-07 -8.20468e-08 -0.00100007)
(1.11579e-07 -6.50893e-08 -0.00100006)
(9.37787e-08 -5.17665e-08 -0.00100005)
(7.91832e-08 -4.12997e-08 -0.00100004)
(6.73369e-08 -3.31028e-08 -0.00100003)
(5.78377e-08 -2.67364e-08 -0.00100002)
(5.0321e-08 -2.1863e-08 -0.00100002)
(4.44345e-08 -1.8192e-08 -0.00100001)
(3.99592e-08 -1.5493e-08 -0.00100001)
(3.79358e-08 -1.42686e-08 -0.00100001)
)
;

boundaryField
{
    inlet
    {
        type            zeroGradient;
    }
    outlet
    {
        type            zeroGradient;
    }
    repeat_boundary
    {
        type            slip;
    }
    procBoundary3to1
    {
        type            processor;
        value           nonuniform List<vector> 
90
(
(1.70005e-09 -2.93227e-09 -0.000999976)
(2.51049e-09 -5.15596e-09 -0.000999975)
(3.60084e-09 -7.89918e-09 -0.000999973)
(4.80598e-09 -1.09564e-08 -0.00099997)
(6.11034e-09 -1.43888e-08 -0.000999966)
(7.51077e-09 -1.82903e-08 -0.000999961)
(8.98927e-09 -2.27578e-08 -0.000999955)
(1.05034e-08 -2.78861e-08 -0.000999947)
(1.19769e-08 -3.37648e-08 -0.000999938)
(1.3289e-08 -4.04738e-08 -0.000999928)
(1.42584e-08 -4.80754e-08 -0.000999916)
(1.46196e-08 -5.66003e-08 -0.000999902)
(1.39889e-08 -6.60273e-08 -0.000999887)
(1.18196e-08 -7.6253e-08 -0.000999869)
(7.3437e-09 -8.70505e-08 -0.00099985)
(-5.03937e-10 -9.80124e-08 -0.00099983)
(-1.3203e-08 -1.08464e-07 -0.00099981)
(-3.29335e-08 -1.17275e-07 -0.000999791)
(-6.26834e-08 -1.22747e-07 -0.000999777)
(-1.06558e-07 -1.22359e-07 -0.00099977)
(-1.70184e-07 -1.12438e-07 -0.000999776)
(-2.61272e-07 -8.76764e-08 -0.000999803)
(-3.9029e-07 -4.06102e-08 -0.00099986)
(-5.71286e-07 3.88962e-08 -0.000999963)
(-8.2359e-07 1.65584e-07 -0.00100013)
(-1.17333e-06 3.59813e-07 -0.0010004)
(-1.65585e-06 6.498e-07 -0.00100081)
(-2.31891e-06 1.07439e-06 -0.00100142)
(-3.22694e-06 1.68689e-06 -0.0010023)
(-4.4668e-06 2.56034e-06 -0.00100357)
(-6.15558e-06 3.79459e-06 -0.00100535)
(-8.45157e-06 5.52674e-06 -0.00100791)
(-1.15783e-05 7.95159e-06 -0.00101182)
(-1.59054e-05 1.13866e-05 -0.00101731)
(-2.20772e-05 1.63905e-05 -0.00101992)
(-2.81777e-05 2.14693e-05 -0.00101264)
(-3.45393e-05 2.78882e-05 -0.00104196)
(-3.45471e-05 3.00663e-05 -0.00127723)
(-3.31942e-05 2.61202e-05 -0.000360289)
(7.95071e-05 -4.78614e-05 -0.00258807)
(-1.78458e-06 3.27311e-06 -0.00120539)
(-6.26087e-05 2.47177e-05 -0.0029808)
(-1.57083e-05 2.90836e-05 -0.00192553)
(-7.76947e-05 3.76824e-05 -0.00319086)
(-6.7698e-05 -2.12072e-05 -0.00226309)
(-7.34164e-05 2.78682e-06 -0.0032521)
(-3.27737e-05 7.39727e-05 -0.00197398)
(-1.15249e-05 0.000151726 -0.00331919)
(3.66095e-05 6.17044e-05 -0.00232963)
(-2.99375e-05 -4.44202e-07 -0.0027562)
(-1.39841e-05 -7.72181e-06 -0.00265476)
(1.72148e-05 2.62606e-05 -0.00168502)
(-4.60976e-06 1.13497e-05 -0.00247658)
(7.34312e-05 -4.58501e-05 -0.00108836)
(7.85196e-05 -5.79586e-05 -0.00107546)
(6.20976e-05 -4.81674e-05 -0.0010876)
(4.80127e-05 -3.70041e-05 -0.00107215)
(3.76018e-05 -2.83866e-05 -0.00105588)
(2.95096e-05 -2.1777e-05 -0.0010434)
(2.31787e-05 -1.6703e-05 -0.00103392)
(1.82256e-05 -1.28169e-05 -0.00102658)
(1.43482e-05 -9.84286e-06 -0.00102085)
(1.13103e-05 -7.5629e-06 -0.00101638)
(8.92764e-06 -5.81413e-06 -0.00101289)
(7.05661e-06 -4.47258e-06 -0.00101015)
(5.58546e-06 -3.44326e-06 -0.00100801)
(4.42713e-06 -2.65331e-06 -0.00100633)
(3.51381e-06 -2.0468e-06 -0.00100501)
(2.79265e-06 -1.58083e-06 -0.00100397)
(2.22242e-06 -1.22255e-06 -0.00100315)
(1.77093e-06 -9.46821e-07 -0.0010025)
(1.41299e-06 -7.34417e-07 -0.00100199)
(1.12888e-06 -5.70628e-07 -0.00100159)
(9.03109e-07 -4.4419e-07 -0.00100127)
(7.23538e-07 -3.4647e-07 -0.00100101)
(5.8055e-07 -2.70846e-07 -0.00100081)
(4.66513e-07 -2.12233e-07 -0.00100065)
(3.75444e-07 -1.6672e-07 -0.00100052)
(3.02636e-07 -1.313e-07 -0.00100041)
(2.44362e-07 -1.03665e-07 -0.00100033)
(1.97679e-07 -8.20454e-08 -0.00100026)
(1.60267e-07 -6.50885e-08 -0.00100021)
(1.30301e-07 -5.17661e-08 -0.00100017)
(1.06351e-07 -4.12994e-08 -0.00100013)
(8.72967e-08 -3.31026e-08 -0.0010001)
(7.22635e-08 -2.67367e-08 -0.00100008)
(6.05432e-08 -2.18647e-08 -0.00100006)
(5.15182e-08 -1.81968e-08 -0.00100004)
(4.47698e-08 -1.54871e-08 -0.00100003)
(4.1824e-08 -1.42671e-08 -0.00100002)
)
;
    }
    procBoundary3to2
    {
        type            processor;
        value           nonuniform List<vector> 
90
(
(3.07508e-09 -4.30727e-09 -0.00100003)
(5.47112e-09 -8.11661e-09 -0.00100003)
(8.45898e-09 -1.27574e-08 -0.00100004)
(1.18768e-08 -1.80273e-08 -0.00100004)
(1.58563e-08 -2.41349e-08 -0.00100005)
(2.06019e-08 -3.13815e-08 -0.00100006)
(2.63713e-08 -4.014e-08 -0.00100007)
(3.34901e-08 -5.08729e-08 -0.00100009)
(4.23701e-08 -6.41581e-08 -0.00100011)
(5.35357e-08 -8.07209e-08 -0.00100013)
(6.76577e-08 -1.01475e-07 -0.00100016)
(8.55968e-08 -1.27578e-07 -0.0010002)
(1.08462e-07 -1.60502e-07 -0.00100026)
(1.37687e-07 -2.02123e-07 -0.00100032)
(1.75127e-07 -2.54837e-07 -0.0010004)
(2.23189e-07 -3.21711e-07 -0.00100051)
(2.85002e-07 -4.06676e-07 -0.00100064)
(3.64635e-07 -5.14854e-07 -0.0010008)
(4.67394e-07 -6.52841e-07 -0.00100102)
(6.00211e-07 -8.29152e-07 -0.00100129)
(7.7215e-07 -1.05481e-06 -0.00100163)
(9.9509e-07 -1.34409e-06 -0.00100207)
(1.28457e-06 -1.71554e-06 -0.00100264)
(1.66079e-06 -2.19328e-06 -0.00100336)
(2.15054e-06 -2.8087e-06 -0.00100429)
(2.78899e-06 -3.60273e-06 -0.00100549)
(3.62245e-06 -4.62886e-06 -0.00100703)
(4.71197e-06 -5.95704e-06 -0.00100903)
(6.13807e-06 -7.67894e-06 -0.0010116)
(8.00714e-06 -9.91487e-06 -0.00101494)
(1.04599e-05 -1.28228e-05 -0.00101925)
(1.36829e-05 -1.66104e-05 -0.00102491)
(1.79275e-05 -2.15568e-05 -0.00103266)
(2.35524e-05 -2.80661e-05 -0.00104278)
(3.11491e-05 -3.68028e-05 -0.00105075)
(3.95966e-05 -4.63686e-05 -0.00104733)
(4.75222e-05 -5.41819e-05 -0.00108806)
(4.77857e-05 -5.22631e-05 -0.00134728)
(3.77791e-05 -4.45835e-05 -0.000367684)
(-7.31579e-05 0.000104455 -0.00277086)
(5.35148e-06 -2.22632e-06 -0.0013123)
(6.86257e-05 -0.000102757 -0.00294301)
(6.04889e-05 -4.73202e-05 -0.00232634)
(1.87529e-05 -6.37833e-05 -0.00316353)
(-4.04563e-05 -5.02365e-05 -0.00217435)
(-6.42133e-05 -2.56599e-05 -0.00321003)
(-2.69145e-05 6.39234e-05 -0.00225053)
(-4.84206e-05 0.00017969 -0.00334946)
(1.4313e-06 8.37111e-05 -0.00180235)
(-5.85066e-05 2.01622e-05 -0.00331586)
(-2.18876e-05 2.6102e-05 -0.00205321)
(-8.49656e-06 4.3942e-05 -0.00205158)
(-2.87228e-06 0.000126397 -0.00204642)
(2.92973e-05 8.55641e-05 -0.00144794)
(-1.91387e-05 4.65489e-05 -0.00091935)
(-1.67233e-05 3.10773e-05 -0.00102049)
(-1.02896e-05 2.12919e-05 -0.00101756)
(-6.27777e-06 1.55269e-05 -0.00101018)
(-3.65152e-06 1.14123e-05 -0.00100566)
(-1.86543e-06 8.36018e-06 -0.00100303)
(-6.77712e-07 6.09876e-06 -0.00100129)
(8.34998e-08 4.42984e-06 -0.00100017)
(5.53501e-07 3.19898e-06 -0.000999491)
(8.22647e-07 2.29406e-06 -0.000999092)
(9.54418e-07 1.63165e-06 -0.000998881)
(9.94306e-07 1.14919e-06 -0.000998797)
(9.74834e-07 7.99826e-07 -0.000998796)
(9.19089e-07 5.48468e-07 -0.000998848)
(8.43237e-07 3.68941e-07 -0.000998932)
(7.58302e-07 2.41806e-07 -0.000999031)
(6.71571e-07 1.52695e-07 -0.000999136)
(5.87642e-07 9.10362e-08 -0.00099924)
(5.09232e-07 4.90861e-08 -0.000999339)
(4.37764e-07 2.12023e-08 -0.00099943)
(3.73786e-07 3.31366e-09 -0.000999511)
(3.17339e-07 -7.61321e-09 -0.000999584)
(2.68176e-07 -1.38816e-08 -0.000999648)
(2.25797e-07 -1.70628e-08 -0.000999703)
(1.89585e-07 -1.8243e-08 -0.000999751)
(1.58898e-07 -1.81968e-08 -0.000999791)
(1.33099e-07 -1.74623e-08 -0.000999826)
(1.11581e-07 -1.64005e-08 -0.000999855)
(9.37794e-08 -1.52434e-08 -0.00099988)
(7.91837e-08 -1.41317e-08 -0.000999901)
(6.73377e-08 -1.31427e-08 -0.00099992)
(5.78387e-08 -1.23114e-08 -0.000999936)
(5.03243e-08 -1.16454e-08 -0.000999949)
(4.44439e-08 -1.11223e-08 -0.000999962)
(3.99482e-08 -1.06658e-08 -0.000999975)
(3.79332e-08 -1.03765e-08 -0.000999985)
)
;
    }
}


// ************************************************************************* //
