/*--------------------------------*- C++ -*----------------------------------*\
| =========                 |                                                 |
| \\      /  F ield         | OpenFOAM: The Open Source CFD Toolbox           |
|  \\    /   O peration     | Version:  5.x                                   |
|   \\  /    A nd           | Web:      www.OpenFOAM.org                      |
|    \\/     M anipulation  |                                                 |
\*---------------------------------------------------------------------------*/
FoamFile
{
    version     2.0;
    format      ascii;
    class       volScalarField;
    location    "0.005";
    object      p;
}
// * * * * * * * * * * * * * * * * * * * * * * * * * * * * * * * * * * * * * //

dimensions      [0 2 -2 0 0 0 0];

internalField   nonuniform List<scalar> 
180
(
6.79807e-10
2.27329e-09
4.05118e-09
5.8158e-09
7.60686e-09
9.39037e-09
1.11615e-08
1.29157e-08
1.46511e-08
1.63682e-08
1.807e-08
1.97627e-08
2.1455e-08
2.31594e-08
2.48917e-08
2.66718e-08
2.85235e-08
3.04753e-08
3.25603e-08
3.48169e-08
3.72885e-08
4.00245e-08
4.30801e-08
4.65174e-08
5.04053e-08
5.48208e-08
5.98497e-08
6.55878e-08
7.21426e-08
7.96353e-08
8.82029e-08
9.80012e-08
1.09209e-07
1.22029e-07
1.36699e-07
1.53489e-07
1.72713e-07
1.94734e-07
2.19973e-07
2.48916e-07
2.82126e-07
3.2025e-07
3.64032e-07
4.14321e-07
4.72089e-07
5.3844e-07
6.14626e-07
7.02065e-07
8.02354e-07
9.17284e-07
1.04887e-06
1.19935e-06
1.37128e-06
1.56746e-06
1.79109e-06
2.0457e-06
2.33528e-06
2.66427e-06
3.03765e-06
3.46094e-06
3.94027e-06
4.48241e-06
5.09481e-06
5.78557e-06
6.56347e-06
7.43784e-06
8.4185e-06
9.51544e-06
1.07385e-05
1.20965e-05
1.35964e-05
1.52418e-05
1.70322e-05
1.89659e-05
2.10135e-05
2.31042e-05
2.52921e-05
2.82881e-05
3.30727e-05
3.50034e-05
-7.45852e-05
0.000617636
0.000787748
0.000938378
0.00314305
0.0038206
0.00616937
0.00721849
0.00786325
0.00869331
0.00896071
0.00986104
0.0103894
0.0105493
0.0130644
0.0165334
0.0193958
0.020372
0.0206761
0.021153
0.0214903
0.0218144
0.0223048
0.0225585
0.0226314
0.0226329
0.022626
0.0226237
0.0226228
0.0226219
0.022621
0.0226202
0.0226195
0.0226189
0.0226183
0.0226178
0.0226174
0.022617
0.0226167
0.0226164
0.0226161
0.0226159
0.0226157
0.0226155
0.0226153
0.0226152
0.0226151
0.022615
0.0226149
0.0226148
0.0226147
0.0226146
0.0226146
0.0226145
0.0226145
0.0226144
0.0226144
0.0226143
0.0226143
0.0226143
0.0226142
0.0226142
0.0226142
0.0226142
0.0226141
0.0226141
0.0226141
0.0226141
0.0226141
0.0226141
0.022614
0.022614
0.022614
0.022614
0.022614
0.022614
0.022614
0.022614
0.022614
0.022614
0.022614
0.022614
0.022614
0.022614
0.022614
0.022614
0.0226139
0.0226139
0.0226139
0.0226139
0.0226139
0.0226139
0.0226139
0.0226139
0.0226139
0.0226139
0.0226139
0.0226139
0.0226139
0.0226139
)
;

boundaryField
{
    inlet
    {
        type            zeroGradient;
    }
    outlet
    {
        type            fixedValue;
        value           uniform 0;
    }
    repeat_boundary
    {
        type            zeroGradient;
    }
    procBoundary2to0
    {
        type            processor;
        value           nonuniform List<scalar> 
180
(
2.78163e-10
1.15033e-09
2.26235e-09
3.3211e-09
4.40603e-09
5.45773e-09
6.47e-09
7.43446e-09
8.34437e-09
9.19394e-09
9.97825e-09
1.06934e-08
1.13364e-08
1.19053e-08
1.2399e-08
1.28173e-08
1.31608e-08
1.34307e-08
1.36289e-08
1.37575e-08
1.3819e-08
1.38157e-08
1.37501e-08
1.36244e-08
1.34408e-08
1.32012e-08
1.29079e-08
1.25638e-08
1.21731e-08
1.17418e-08
1.12793e-08
1.07994e-08
1.03218e-08
9.87471e-09
9.49641e-09
9.23816e-09
9.16734e-09
9.37073e-09
9.95779e-09
1.10641e-08
1.2855e-08
1.55295e-08
1.93239e-08
2.4517e-08
3.1435e-08
4.04574e-08
5.20244e-08
6.66461e-08
8.4913e-08
1.07509e-07
1.35227e-07
1.68988e-07
2.09868e-07
2.59129e-07
3.18255e-07
3.89011e-07
4.73522e-07
5.74375e-07
6.94702e-07
8.38291e-07
1.00972e-06
1.21454e-06
1.45946e-06
1.75259e-06
2.10377e-06
2.5249e-06
3.03041e-06
3.63779e-06
4.36831e-06
5.2478e-06
6.30781e-06
7.58756e-06
9.13626e-06
1.10111e-05
1.32632e-05
1.59458e-05
1.9284e-05
2.40973e-05
3.11147e-05
3.52273e-05
-4.80327e-05
0.000699781
0.000953551
0.00113491
0.00209664
0.00223322
0.00355213
0.00572296
0.00818455
0.0118414
0.0129861
0.0133735
0.0142055
0.0148548
0.0150594
0.0165152
0.0169579
0.017322
0.0185333
0.0193616
0.0203663
0.0212803
0.0223688
0.0225998
0.0226052
0.0226157
0.0226137
0.022613
0.0226132
0.0226135
0.0226136
0.0226138
0.0226139
0.022614
0.0226141
0.0226141
0.0226142
0.0226142
0.0226143
0.0226143
0.0226143
0.0226143
0.0226143
0.0226143
0.0226143
0.0226143
0.0226143
0.0226143
0.0226143
0.0226142
0.0226142
0.0226142
0.0226142
0.0226142
0.0226142
0.0226142
0.0226142
0.0226141
0.0226141
0.0226141
0.0226141
0.0226141
0.0226141
0.0226141
0.0226141
0.0226141
0.022614
0.022614
0.022614
0.022614
0.022614
0.022614
0.022614
0.022614
0.022614
0.022614
0.022614
0.022614
0.022614
0.022614
0.022614
0.022614
0.022614
0.0226139
0.0226139
0.0226139
0.0226139
0.0226139
0.0226139
0.0226139
0.0226139
0.0226139
0.0226139
0.0226139
0.0226139
0.0226139
0.0226139
0.0226139
0.0226139
0.0226139
)
;
    }
    procBoundary2to3
    {
        type            processor;
        value           nonuniform List<scalar> 
180
(
4.38734e-10
1.6616e-09
3.13167e-09
4.54571e-09
5.98521e-09
7.39307e-09
8.76407e-09
1.00904e-08
1.1366e-08
1.25853e-08
1.37436e-08
1.48372e-08
1.58627e-08
1.68175e-08
1.76996e-08
1.85072e-08
1.92389e-08
1.98931e-08
2.04681e-08
2.09615e-08
2.13701e-08
2.16895e-08
2.19137e-08
2.20352e-08
2.20442e-08
2.1929e-08
2.16757e-08
2.12682e-08
2.06889e-08
1.99186e-08
1.89379e-08
1.77271e-08
1.62682e-08
1.45456e-08
1.25479e-08
1.02693e-08
7.71107e-09
4.88276e-09
1.80289e-09
-1.49998e-09
-4.98651e-09
-8.60579e-09
-1.22949e-08
-1.59781e-08
-1.95667e-08
-2.2958e-08
-2.6034e-08
-2.86583e-08
-3.06726e-08
-3.18816e-08
-3.20496e-08
-3.08865e-08
-2.80334e-08
-2.30408e-08
-1.53416e-08
-4.2155e-09
1.12538e-08
3.22325e-08
6.02088e-08
9.7087e-08
1.45296e-07
2.07923e-07
2.88878e-07
3.9311e-07
5.26867e-07
6.98053e-07
9.16686e-07
1.19549e-06
1.5507e-06
2.0031e-06
2.5798e-06
3.31746e-06
4.26536e-06
5.47483e-06
6.98698e-06
8.83177e-06
1.1219e-05
1.50647e-05
2.14241e-05
2.43259e-05
-8.51994e-05
0.000813446
0.00117144
0.00143697
0.00270303
0.00389587
0.00502921
0.00616144
0.00912778
0.0105656
0.0112377
0.0128304
0.0131435
0.013489
0.0145795
0.0154396
0.0164871
0.0170149
0.0179267
0.0213562
0.0223648
0.0225109
0.0225892
0.0226176
0.0226295
0.0226247
0.0226215
0.0226201
0.0226191
0.0226182
0.0226174
0.0226168
0.0226162
0.0226158
0.0226154
0.0226151
0.0226148
0.0226146
0.0226145
0.0226143
0.0226142
0.0226141
0.0226141
0.022614
0.022614
0.0226139
0.0226139
0.0226139
0.0226139
0.0226139
0.0226139
0.0226139
0.0226139
0.0226139
0.0226139
0.0226139
0.0226139
0.0226139
0.0226139
0.0226139
0.0226139
0.0226139
0.0226139
0.0226139
0.0226139
0.0226139
0.0226139
0.0226139
0.0226139
0.0226139
0.0226139
0.0226139
0.0226139
0.0226139
0.0226139
0.0226139
0.0226139
0.0226139
0.0226139
0.0226139
0.0226139
0.0226139
0.0226139
0.0226139
0.0226139
0.0226139
0.0226139
0.0226139
0.0226139
0.0226139
0.0226139
0.0226139
0.0226139
0.0226139
0.0226139
0.0226139
0.0226139
0.0226139
0.0226139
0.0226139
)
;
    }
}


// ************************************************************************* //
