/*--------------------------------*- C++ -*----------------------------------*\
| =========                 |                                                 |
| \\      /  F ield         | OpenFOAM: The Open Source CFD Toolbox           |
|  \\    /   O peration     | Version:  5.x                                   |
|   \\  /    A nd           | Web:      www.OpenFOAM.org                      |
|    \\/     M anipulation  |                                                 |
\*---------------------------------------------------------------------------*/
FoamFile
{
    version     2.0;
    format      ascii;
    class       surfaceScalarField;
    location    "0.005";
    object      phi;
}
// * * * * * * * * * * * * * * * * * * * * * * * * * * * * * * * * * * * * * //

dimensions      [0 3 -1 0 0 0 0];

internalField   nonuniform List<scalar> 
179
(
-2.50014e-10
-2.50014e-10
-2.50015e-10
-2.50015e-10
-2.50016e-10
-2.50017e-10
-2.50018e-10
-2.50019e-10
-2.50021e-10
-2.50023e-10
-2.50024e-10
-2.50027e-10
-2.50029e-10
-2.50032e-10
-2.50035e-10
-2.50038e-10
-2.50042e-10
-2.50046e-10
-2.5005e-10
-2.50055e-10
-2.50061e-10
-2.50067e-10
-2.50074e-10
-2.50081e-10
-2.5009e-10
-2.50099e-10
-2.5011e-10
-2.50121e-10
-2.50134e-10
-2.50148e-10
-2.50164e-10
-2.50181e-10
-2.502e-10
-2.50221e-10
-2.50245e-10
-2.50271e-10
-2.503e-10
-2.50331e-10
-2.50367e-10
-2.50406e-10
-2.50449e-10
-2.50497e-10
-2.5055e-10
-2.50608e-10
-2.50673e-10
-2.50744e-10
-2.50823e-10
-2.50911e-10
-2.51008e-10
-2.51114e-10
-2.51233e-10
-2.51364e-10
-2.51508e-10
-2.51668e-10
-2.51845e-10
-2.52041e-10
-2.52257e-10
-2.52496e-10
-2.52761e-10
-2.53053e-10
-2.53376e-10
-2.53734e-10
-2.54129e-10
-2.54567e-10
-2.55051e-10
-2.55585e-10
-2.56177e-10
-2.56831e-10
-2.57554e-10
-2.58352e-10
-2.59233e-10
-2.60203e-10
-2.61275e-10
-2.62458e-10
-2.63757e-10
-2.65171e-10
-2.66669e-10
-2.68186e-10
-2.69592e-10
-2.70763e-10
-2.7104e-10
-2.71032e-10
-2.66847e-10
-2.66719e-10
-2.72218e-10
-2.76351e-10
-2.78938e-10
-2.85279e-10
-2.83444e-10
-2.70794e-10
-2.51484e-10
-2.4209e-10
-2.05141e-10
-1.85905e-10
-1.81594e-10
-1.82611e-10
-1.96015e-10
-2.12524e-10
-2.27e-10
-2.30679e-10
-2.29908e-10
-2.27204e-10
-2.23139e-10
-2.21129e-10
-2.21694e-10
-2.23681e-10
-2.25812e-10
-2.2788e-10
-2.29829e-10
-2.31634e-10
-2.33292e-10
-2.34808e-10
-2.36192e-10
-2.37454e-10
-2.38604e-10
-2.39651e-10
-2.40605e-10
-2.41472e-10
-2.42262e-10
-2.4298e-10
-2.43632e-10
-2.44226e-10
-2.44765e-10
-2.45255e-10
-2.45699e-10
-2.46103e-10
-2.46469e-10
-2.46802e-10
-2.47104e-10
-2.47378e-10
-2.47626e-10
-2.47851e-10
-2.48055e-10
-2.48239e-10
-2.48407e-10
-2.48559e-10
-2.48696e-10
-2.4882e-10
-2.48933e-10
-2.49035e-10
-2.49127e-10
-2.49211e-10
-2.49287e-10
-2.49355e-10
-2.49417e-10
-2.49473e-10
-2.49524e-10
-2.49569e-10
-2.49611e-10
-2.49648e-10
-2.49682e-10
-2.49713e-10
-2.49741e-10
-2.49766e-10
-2.49788e-10
-2.49809e-10
-2.49828e-10
-2.49845e-10
-2.4986e-10
-2.49874e-10
-2.49886e-10
-2.49898e-10
-2.49908e-10
-2.49917e-10
-2.49926e-10
-2.49933e-10
-2.4994e-10
-2.49947e-10
-2.49953e-10
-2.49958e-10
-2.49963e-10
-2.49967e-10
-2.49971e-10
-2.49975e-10
-2.49979e-10
-2.49982e-10
-2.49985e-10
-2.49988e-10
-2.49991e-10
)
;

boundaryField
{
    inlet
    {
        type            calculated;
        value           uniform -2.49993e-10;
    }
    outlet
    {
        type            calculated;
        value           uniform 2.50014e-10;
    }
    repeat_boundary
    {
        type            calculated;
        value           uniform 0;
    }
    procBoundary2to0
    {
        type            processor;
        value           nonuniform List<scalar> 
180
(
1.92376e-16
2.67142e-16
3.8736e-16
5.28142e-16
6.80402e-16
8.41632e-16
1.01218e-15
1.19345e-15
1.38723e-15
1.59549e-15
1.82034e-15
2.06404e-15
2.32903e-15
2.61795e-15
2.93367e-15
3.27931e-15
3.6583e-15
4.07441e-15
4.53175e-15
5.03489e-15
5.58885e-15
6.19918e-15
6.87199e-15
7.61406e-15
8.43287e-15
9.33667e-15
1.03346e-14
1.14367e-14
1.26543e-14
1.39995e-14
1.5486e-14
1.71288e-14
1.89444e-14
2.09512e-14
2.31694e-14
2.56212e-14
2.83312e-14
3.13266e-14
3.46375e-14
3.82968e-14
4.23412e-14
4.6811e-14
5.17509e-14
5.721e-14
6.32427e-14
6.99091e-14
7.72754e-14
8.54149e-14
9.44084e-14
1.04345e-13
1.15324e-13
1.27454e-13
1.40856e-13
1.55663e-13
1.72023e-13
1.90098e-13
2.1007e-13
2.32136e-13
2.56518e-13
2.83461e-13
3.13237e-13
3.46151e-13
3.82537e-13
4.22768e-13
4.67257e-13
5.16479e-13
5.7096e-13
6.31283e-13
6.981e-13
7.72136e-13
8.54189e-13
9.45116e-13
1.04576e-12
1.15665e-12
1.27667e-12
1.39927e-12
1.50421e-12
1.55035e-12
1.46247e-12
1.15209e-12
9.43629e-14
-8.37288e-15
-9.39269e-13
-7.88099e-14
3.73304e-12
4.39694e-12
3.88042e-13
4.47035e-12
-2.32361e-13
-8.2449e-12
-1.21544e-11
-8.91984e-12
-1.18295e-11
-1.65998e-11
-1.7107e-12
1.13901e-13
8.985e-12
5.92353e-12
7.446e-12
3.90231e-12
4.61626e-12
1.2673e-12
-8.30292e-14
-5.26822e-13
1.97091e-13
-1.25321e-14
-1.98993e-13
-2.14806e-13
-1.78854e-13
-1.43318e-13
-1.15783e-13
-9.50907e-14
-7.85452e-14
-6.49043e-14
-5.35727e-14
-4.41761e-14
-3.64394e-14
-2.99183e-14
-2.3983e-14
-1.90332e-14
-1.49169e-14
-1.15046e-14
-8.68631e-15
-6.36814e-15
-4.44741e-15
-2.71356e-15
-1.37494e-15
-3.40562e-16
4.5438e-16
1.07954e-15
1.56497e-15
1.91723e-15
2.13074e-15
2.31091e-15
2.43873e-15
2.49656e-15
2.50277e-15
2.47175e-15
2.41312e-15
2.33274e-15
2.23966e-15
2.13865e-15
2.02611e-15
1.90286e-15
1.78123e-15
1.65386e-15
1.53232e-15
1.41662e-15
1.30699e-15
1.20396e-15
1.10821e-15
1.02056e-15
9.40371e-16
8.66902e-16
7.99472e-16
7.37499e-16
6.80418e-16
6.27662e-16
5.78751e-16
5.33285e-16
4.90927e-16
4.51412e-16
4.14529e-16
3.80062e-16
3.47895e-16
3.18109e-16
2.90742e-16
2.65676e-16
2.42768e-16
2.21857e-16
2.02756e-16
1.85276e-16
1.69218e-16
1.54375e-16
1.40527e-16
1.2742e-16
1.14807e-16
1.02658e-16
9.20521e-17
7.34627e-17
)
;
    }
    procBoundary2to3
    {
        type            processor;
        value           nonuniform List<scalar> 
180
(
1.56553e-17
7.66706e-18
1.09819e-18
-2.03637e-18
-3.00985e-18
-2.74784e-18
-1.69483e-18
-1.3827e-20
2.24393e-18
5.05769e-18
8.41821e-18
1.23192e-17
1.67514e-17
2.17055e-17
2.71746e-17
3.31518e-17
3.96135e-17
4.65881e-17
5.41146e-17
6.22442e-17
7.10525e-17
8.06439e-17
9.11551e-17
1.02759e-16
1.15669e-16
1.3014e-16
1.4647e-16
1.65022e-16
1.86202e-16
2.10483e-16
2.38423e-16
2.70465e-16
3.07533e-16
3.50587e-16
4.00754e-16
4.58694e-16
5.25131e-16
5.99972e-16
6.83504e-16
7.76109e-16
8.78196e-16
9.90318e-16
1.11331e-15
1.24841e-15
1.39733e-15
1.56228e-15
1.74596e-15
1.95143e-15
2.2005e-15
2.48382e-15
2.81138e-15
3.18468e-15
3.61033e-15
4.09581e-15
4.6496e-15
5.28141e-15
6.00239e-15
6.82227e-15
7.74909e-15
8.79431e-15
9.96964e-15
1.12888e-14
1.27684e-14
1.44167e-14
1.62341e-14
1.8207e-14
2.02967e-14
2.24186e-14
2.4404e-14
2.59234e-14
2.63212e-14
2.52234e-14
2.60458e-14
2.58004e-14
2.30441e-14
1.43227e-14
-5.32358e-15
-3.65381e-14
-5.52266e-14
1.88503e-14
1.83035e-13
1.07536e-15
-3.24621e-12
-4.85003e-14
1.7651e-12
-2.63118e-13
2.19841e-12
1.86973e-12
-1.60195e-12
-4.40578e-12
-7.15499e-12
-4.74341e-13
-2.51198e-11
-2.63515e-12
-2.60059e-12
9.02563e-13
4.41908e-12
1.05851e-11
7.02958e-12
-2.24311e-13
-5.38738e-12
-3.97044e-12
-3.98261e-12
-1.48369e-12
3.68436e-13
1.99912e-12
2.32999e-12
2.28297e-12
2.12727e-12
1.94854e-12
1.77358e-12
1.61091e-12
1.46223e-12
1.32687e-12
1.20373e-12
1.09175e-12
9.89956e-13
8.97455e-13
8.13425e-13
7.37113e-13
6.67834e-13
6.04956e-13
5.47903e-13
4.96148e-13
4.49209e-13
4.06649e-13
3.68067e-13
3.331e-13
3.01415e-13
2.72711e-13
2.46713e-13
2.23168e-13
2.0185e-13
1.8255e-13
1.6508e-13
1.49269e-13
1.34962e-13
1.22018e-13
1.10307e-13
9.97151e-14
9.0135e-14
8.14714e-14
7.36374e-14
6.65541e-14
6.01502e-14
5.4361e-14
4.91279e-14
4.43978e-14
4.01227e-14
3.62591e-14
3.27676e-14
2.96127e-14
2.67621e-14
2.41869e-14
2.18607e-14
1.97599e-14
1.78631e-14
1.61509e-14
1.46058e-14
1.32121e-14
1.19555e-14
1.08232e-14
9.8035e-15
8.88604e-15
8.06133e-15
7.32084e-15
6.6569e-15
6.06263e-15
5.5318e-15
5.05888e-15
4.63887e-15
4.26736e-15
3.94039e-15
3.65448e-15
3.40653e-15
3.19375e-15
3.01358e-15
2.86429e-15
2.74742e-15
2.72473e-15
)
;
    }
}


// ************************************************************************* //
