/*--------------------------------*- C++ -*----------------------------------*\
| =========                 |                                                 |
| \\      /  F ield         | OpenFOAM: The Open Source CFD Toolbox           |
|  \\    /   O peration     | Version:  5.x                                   |
|   \\  /    A nd           | Web:      www.OpenFOAM.org                      |
|    \\/     M anipulation  |                                                 |
\*---------------------------------------------------------------------------*/
FoamFile
{
    version     2.0;
    format      ascii;
    class       volVectorField;
    location    "0.005";
    object      stored_U;
}
// * * * * * * * * * * * * * * * * * * * * * * * * * * * * * * * * * * * * * //

dimensions      [0 1 -1 0 0 0 0];

internalField   nonuniform List<vector> 
180
(
(7.71724e-10 -7.02739e-09 -0.00100005)
(5.87186e-10 -9.81508e-09 -0.00100005)
(4.95119e-10 -1.42441e-08 -0.00100006)
(5.13624e-10 -1.94961e-08 -0.00100006)
(5.97326e-10 -2.52007e-08 -0.00100006)
(7.07944e-10 -3.125e-08 -0.00100006)
(8.29471e-10 -3.76539e-08 -0.00100007)
(9.56433e-10 -4.44642e-08 -0.00100007)
(1.08726e-09 -5.17478e-08 -0.00100008)
(1.22134e-09 -5.95788e-08 -0.00100008)
(1.358e-09 -6.80375e-08 -0.00100009)
(1.49627e-09 -7.72097e-08 -0.0010001)
(1.63474e-09 -8.71886e-08 -0.00100011)
(1.7716e-09 -9.80746e-08 -0.00100012)
(1.90456e-09 -1.09977e-07 -0.00100013)
(2.03092e-09 -1.23016e-07 -0.00100014)
(2.14749e-09 -1.37321e-07 -0.00100015)
(2.25066e-09 -1.53036e-07 -0.00100017)
(2.33632e-09 -1.70317e-07 -0.00100019)
(2.39993e-09 -1.89337e-07 -0.00100021)
(2.4365e-09 -2.10287e-07 -0.00100023)
(2.44057e-09 -2.33375e-07 -0.00100025)
(2.40617e-09 -2.58833e-07 -0.00100027)
(2.32682e-09 -2.86916e-07 -0.0010003)
(2.1955e-09 -3.17903e-07 -0.00100033)
(2.00453e-09 -3.52106e-07 -0.00100037)
(1.7455e-09 -3.89868e-07 -0.00100041)
(1.4092e-09 -4.31566e-07 -0.00100045)
(9.85407e-10 -4.77619e-07 -0.00100049)
(4.62784e-10 -5.28486e-07 -0.00100055)
(-1.71329e-10 -5.84678e-07 -0.0010006)
(-9.312e-10 -6.46756e-07 -0.00100067)
(-1.83298e-09 -7.1534e-07 -0.00100074)
(-2.89497e-09 -7.91114e-07 -0.00100081)
(-4.13779e-09 -8.74832e-07 -0.0010009)
(-5.58469e-09 -9.67329e-07 -0.00100099)
(-7.2621e-09 -1.06952e-06 -0.0010011)
(-9.20037e-09 -1.18243e-06 -0.00100121)
(-1.1435e-08 -1.30717e-06 -0.00100134)
(-1.40076e-08 -1.44497e-06 -0.00100148)
(-1.69672e-08 -1.59721e-06 -0.00100163)
(-2.03715e-08 -1.76537e-06 -0.0010018)
(-2.42883e-08 -1.95112e-06 -0.00100199)
(-2.87969e-08 -2.15629e-06 -0.0010022)
(-3.399e-08 -2.38289e-06 -0.00100243)
(-3.99742e-08 -2.63313e-06 -0.00100268)
(-4.68721e-08 -2.90949e-06 -0.00100296)
(-5.48252e-08 -3.21465e-06 -0.00100327)
(-6.39934e-08 -3.5516e-06 -0.00100361)
(-7.45496e-08 -3.92363e-06 -0.00100399)
(-8.66868e-08 -4.33437e-06 -0.0010044)
(-1.00618e-07 -4.78783e-06 -0.00100486)
(-1.16579e-07 -5.28843e-06 -0.00100536)
(-1.34833e-07 -5.84104e-06 -0.00100592)
(-1.55668e-07 -6.45104e-06 -0.00100653)
(-1.79405e-07 -7.12434e-06 -0.00100721)
(-2.06391e-07 -7.86747e-06 -0.00100796)
(-2.37008e-07 -8.68765e-06 -0.00100878)
(-2.71668e-07 -9.59286e-06 -0.00100969)
(-3.10811e-07 -1.0592e-05 -0.0010107)
(-3.54907e-07 -1.16947e-05 -0.00101181)
(-4.04444e-07 -1.29119e-05 -0.00101303)
(-4.59926e-07 -1.42554e-05 -0.00101439)
(-5.2185e-07 -1.57386e-05 -0.00101589)
(-5.90686e-07 -1.73762e-05 -0.00101754)
(-6.66851e-07 -1.91843e-05 -0.00101937)
(-7.50671e-07 -2.11812e-05 -0.0010214)
(-8.42321e-07 -2.3387e-05 -0.00102364)
(-9.41769e-07 -2.58241e-05 -0.00102613)
(-1.04871e-06 -2.85178e-05 -0.00102889)
(-1.16259e-06 -3.14959e-05 -0.00103196)
(-1.28293e-06 -3.47894e-05 -0.00103537)
(-1.41114e-06 -3.84302e-05 -0.00103913)
(-1.5577e-06 -4.24399e-05 -0.00104317)
(-1.7656e-06 -4.67852e-05 -0.00104772)
(-2.15745e-06 -5.12462e-05 -0.00105461)
(-2.9265e-06 -5.50576e-05 -0.00106614)
(-4.11586e-06 -5.65883e-05 -0.00106903)
(-4.84188e-06 -5.2812e-05 -0.00102406)
(-2.20682e-06 -4.06879e-05 -0.000756911)
(4.55634e-06 -1.03101e-05 -0.00337245)
(-4.82504e-06 9.12645e-06 6.21539e-07)
(-0.000117447 2.80922e-05 -0.00398342)
(-2.1979e-06 1.59846e-05 -0.00029813)
(9.65562e-05 -0.000149936 -0.00390919)
(4.07922e-05 -0.000228515 -0.00437313)
(1.47363e-05 -8.65233e-06 -0.000396243)
(0.000374869 -0.000427949 -0.00476015)
(-4.47542e-05 3.80667e-05 -0.00113311)
(-0.000329095 0.000781678 -0.00291965)
(-0.000418196 0.000988184 -0.00324306)
(-0.0001292 0.000195695 -0.000675022)
(-0.000971145 0.00138564 -0.00273426)
(-0.000302644 0.000470567 -0.00242758)
(-3.08905e-05 4.15437e-05 -8.77626e-05)
(6.85667e-05 1.47878e-05 -0.00476711)
(7.66661e-06 -6.45054e-06 -0.000299298)
(0.000638336 -0.000558743 -0.00255041)
(0.000602507 -0.000487182 -0.00191517)
(-1.05532e-05 -0.000282697 -0.00140397)
(-0.000269461 -0.000359872 -0.00232919)
(-0.00015114 -0.000105695 -0.00180281)
(-6.87741e-05 1.8992e-05 -0.0017999)
(-2.12289e-05 2.67582e-05 -0.00152945)
(2.62311e-05 5.13993e-07 -0.00117309)
(7.90593e-05 5.0882e-06 -0.00100826)
(9.01705e-05 9.84047e-06 -0.000884638)
(8.70865e-05 9.55668e-06 -0.000896454)
(8.03477e-05 7.65595e-06 -0.000916019)
(7.32201e-05 6.03259e-06 -0.000925828)
(6.64876e-05 4.89437e-06 -0.000932012)
(6.03101e-05 4.05427e-06 -0.000937799)
(5.46892e-05 3.38153e-06 -0.000943388)
(4.95836e-05 2.82038e-06 -0.000948548)
(4.49468e-05 2.34629e-06 -0.00095324)
(4.07362e-05 1.94469e-06 -0.00095751)
(3.69134e-05 1.60472e-06 -0.000961399)
(3.34434e-05 1.31763e-06 -0.00096494)
(3.02942e-05 1.07602e-06 -0.000968163)
(2.74369e-05 8.7313e-07 -0.000971097)
(2.48451e-05 7.0317e-07 -0.000973768)
(2.24945e-05 5.61212e-07 -0.000976198)
(2.03631e-05 4.43041e-07 -0.000978408)
(1.84309e-05 3.45062e-07 -0.000980416)
(1.66796e-05 2.64218e-07 -0.000982241)
(1.50925e-05 1.97868e-07 -0.0009839)
(1.36544e-05 1.43569e-07 -0.000985408)
(1.23518e-05 9.93147e-08 -0.000986778)
(1.11721e-05 6.34475e-08 -0.000988021)
(1.01038e-05 3.45843e-08 -0.00098915)
(9.13676e-06 1.1547e-08 -0.000990174)
(8.26141e-06 -6.67752e-09 -0.000991104)
(7.46923e-06 -2.09304e-08 -0.000991946)
(6.75241e-06 -3.19128e-08 -0.000992711)
(6.10388e-06 -4.02133e-08 -0.000993403)
(5.51721e-06 -4.63186e-08 -0.000994031)
(4.98657e-06 -5.0635e-08 -0.0009946)
(4.50666e-06 -5.35008e-08 -0.000995116)
(4.07268e-06 -5.51961e-08 -0.000995583)
(3.68027e-06 -5.5953e-08 -0.000996006)
(3.32548e-06 -5.59624e-08 -0.000996388)
(3.00474e-06 -5.53828e-08 -0.000996735)
(2.7148e-06 -5.43454e-08 -0.000997049)
(2.45273e-06 -5.29559e-08 -0.000997333)
(2.21586e-06 -5.12977e-08 -0.000997589)
(2.00178e-06 -4.9437e-08 -0.000997822)
(1.80831e-06 -4.74277e-08 -0.000998032)
(1.63348e-06 -4.53129e-08 -0.000998222)
(1.4755e-06 -4.31295e-08 -0.000998393)
(1.33276e-06 -4.09089e-08 -0.000998548)
(1.2038e-06 -3.86774e-08 -0.000998689)
(1.0873e-06 -3.64574e-08 -0.000998815)
(9.82074e-07 -3.42683e-08 -0.00099893)
(8.8704e-07 -3.21266e-08 -0.000999033)
(8.0123e-07 -3.00466e-08 -0.000999127)
(7.23765e-07 -2.80401e-08 -0.000999212)
(6.53852e-07 -2.61169e-08 -0.000999289)
(5.90775e-07 -2.42848e-08 -0.000999358)
(5.33887e-07 -2.25495e-08 -0.000999421)
(4.82603e-07 -2.09146e-08 -0.000999478)
(4.36396e-07 -1.93823e-08 -0.000999529)
(3.94789e-07 -1.79528e-08 -0.000999576)
(3.5735e-07 -1.66248e-08 -0.000999618)
(3.23692e-07 -1.53956e-08 -0.000999656)
(2.93463e-07 -1.42614e-08 -0.000999691)
(2.66348e-07 -1.32171e-08 -0.000999723)
(2.42061e-07 -1.22572e-08 -0.000999752)
(2.20348e-07 -1.13753e-08 -0.000999778)
(2.00977e-07 -1.05652e-08 -0.000999802)
(1.83743e-07 -9.82021e-09 -0.000999823)
(1.68462e-07 -9.13367e-09 -0.000999843)
(1.54971e-07 -8.49907e-09 -0.000999862)
(1.43125e-07 -7.91002e-09 -0.000999878)
(1.32794e-07 -7.36009e-09 -0.000999894)
(1.23867e-07 -6.84226e-09 -0.000999908)
(1.16241e-07 -6.34819e-09 -0.000999922)
(1.09825e-07 -5.8694e-09 -0.000999934)
(1.04565e-07 -5.40981e-09 -0.000999947)
(1.00543e-07 -4.99713e-09 -0.000999959)
(9.8179e-08 -4.67932e-09 -0.000999969)
)
;

boundaryField
{
    inlet
    {
        type            calculated;
        value           uniform (9.8179e-08 -4.67932e-09 -0.000999969);
    }
    outlet
    {
        type            calculated;
        value           uniform (7.71724e-10 -7.02739e-09 -0.00100005);
    }
    repeat_boundary
    {
        type            calculated;
        value           nonuniform List<vector> 
360
(
(7.71724e-10 0 -0.00100005)
(5.87186e-10 0 -0.00100005)
(4.95119e-10 0 -0.00100006)
(5.13624e-10 0 -0.00100006)
(5.97326e-10 0 -0.00100006)
(7.07944e-10 0 -0.00100006)
(8.29471e-10 0 -0.00100007)
(9.56433e-10 0 -0.00100007)
(1.08726e-09 0 -0.00100008)
(1.22134e-09 0 -0.00100008)
(1.358e-09 0 -0.00100009)
(1.49627e-09 0 -0.0010001)
(1.63474e-09 0 -0.00100011)
(1.7716e-09 0 -0.00100012)
(1.90456e-09 0 -0.00100013)
(2.03092e-09 0 -0.00100014)
(2.14749e-09 0 -0.00100015)
(2.25066e-09 0 -0.00100017)
(2.33632e-09 0 -0.00100019)
(2.39993e-09 0 -0.00100021)
(2.4365e-09 0 -0.00100023)
(2.44057e-09 0 -0.00100025)
(2.40617e-09 0 -0.00100027)
(2.32682e-09 0 -0.0010003)
(2.1955e-09 0 -0.00100033)
(2.00453e-09 0 -0.00100037)
(1.7455e-09 0 -0.00100041)
(1.4092e-09 0 -0.00100045)
(9.85407e-10 0 -0.00100049)
(4.62784e-10 0 -0.00100055)
(-1.71329e-10 0 -0.0010006)
(-9.312e-10 0 -0.00100067)
(-1.83298e-09 0 -0.00100074)
(-2.89497e-09 0 -0.00100081)
(-4.13779e-09 0 -0.0010009)
(-5.58469e-09 0 -0.00100099)
(-7.2621e-09 0 -0.0010011)
(-9.20037e-09 0 -0.00100121)
(-1.1435e-08 0 -0.00100134)
(-1.40076e-08 0 -0.00100148)
(-1.69672e-08 0 -0.00100163)
(-2.03715e-08 0 -0.0010018)
(-2.42883e-08 0 -0.00100199)
(-2.87969e-08 0 -0.0010022)
(-3.399e-08 0 -0.00100243)
(-3.99742e-08 0 -0.00100268)
(-4.68721e-08 0 -0.00100296)
(-5.48252e-08 0 -0.00100327)
(-6.39934e-08 0 -0.00100361)
(-7.45496e-08 0 -0.00100399)
(-8.66868e-08 0 -0.0010044)
(-1.00618e-07 0 -0.00100486)
(-1.16579e-07 0 -0.00100536)
(-1.34833e-07 0 -0.00100592)
(-1.55668e-07 0 -0.00100653)
(-1.79405e-07 0 -0.00100721)
(-2.06391e-07 0 -0.00100796)
(-2.37008e-07 0 -0.00100878)
(-2.71668e-07 0 -0.00100969)
(-3.10811e-07 0 -0.0010107)
(-3.54907e-07 0 -0.00101181)
(-4.04444e-07 0 -0.00101303)
(-4.59926e-07 0 -0.00101439)
(-5.2185e-07 0 -0.00101589)
(-5.90686e-07 0 -0.00101754)
(-6.66851e-07 0 -0.00101937)
(-7.50671e-07 0 -0.0010214)
(-8.42321e-07 0 -0.00102364)
(-9.41769e-07 0 -0.00102613)
(-1.04871e-06 0 -0.00102889)
(-1.16259e-06 0 -0.00103196)
(-1.28293e-06 0 -0.00103537)
(-1.41114e-06 0 -0.00103913)
(-1.5577e-06 0 -0.00104317)
(-1.7656e-06 0 -0.00104772)
(-2.15745e-06 0 -0.00105461)
(-2.9265e-06 0 -0.00106614)
(-4.11586e-06 0 -0.00106903)
(-4.84188e-06 0 -0.00102406)
(-2.20682e-06 0 -0.000756911)
(4.55634e-06 0 -0.00337245)
(-4.82504e-06 0 6.21539e-07)
(-0.000117447 0 -0.00398342)
(-2.1979e-06 0 -0.00029813)
(9.65562e-05 0 -0.00390919)
(4.07922e-05 0 -0.00437313)
(1.47363e-05 0 -0.000396243)
(0.000374869 0 -0.00476015)
(-4.47542e-05 0 -0.00113311)
(-0.000329095 0 -0.00291965)
(-0.000418196 0 -0.00324306)
(-0.0001292 0 -0.000675022)
(-0.000971145 0 -0.00273426)
(-0.000302644 0 -0.00242758)
(-3.08905e-05 0 -8.77626e-05)
(6.85667e-05 0 -0.00476711)
(7.66661e-06 0 -0.000299298)
(0.000638336 0 -0.00255041)
(0.000602507 0 -0.00191517)
(-1.05532e-05 0 -0.00140397)
(-0.000269461 0 -0.00232919)
(-0.00015114 0 -0.00180281)
(-6.87741e-05 0 -0.0017999)
(-2.12289e-05 0 -0.00152945)
(2.62311e-05 0 -0.00117309)
(7.90593e-05 0 -0.00100826)
(9.01705e-05 0 -0.000884638)
(8.70865e-05 0 -0.000896454)
(8.03477e-05 0 -0.000916019)
(7.32201e-05 0 -0.000925828)
(6.64876e-05 0 -0.000932012)
(6.03101e-05 0 -0.000937799)
(5.46892e-05 0 -0.000943388)
(4.95836e-05 0 -0.000948548)
(4.49468e-05 0 -0.00095324)
(4.07362e-05 0 -0.00095751)
(3.69134e-05 0 -0.000961399)
(3.34434e-05 0 -0.00096494)
(3.02942e-05 0 -0.000968163)
(2.74369e-05 0 -0.000971097)
(2.48451e-05 0 -0.000973768)
(2.24945e-05 0 -0.000976198)
(2.03631e-05 0 -0.000978408)
(1.84309e-05 0 -0.000980416)
(1.66796e-05 0 -0.000982241)
(1.50925e-05 0 -0.0009839)
(1.36544e-05 0 -0.000985408)
(1.23518e-05 0 -0.000986778)
(1.11721e-05 0 -0.000988021)
(1.01038e-05 0 -0.00098915)
(9.13676e-06 0 -0.000990174)
(8.26141e-06 0 -0.000991104)
(7.46923e-06 0 -0.000991946)
(6.75241e-06 0 -0.000992711)
(6.10388e-06 0 -0.000993403)
(5.51721e-06 0 -0.000994031)
(4.98657e-06 0 -0.0009946)
(4.50666e-06 0 -0.000995116)
(4.07268e-06 0 -0.000995583)
(3.68027e-06 0 -0.000996006)
(3.32548e-06 0 -0.000996388)
(3.00474e-06 0 -0.000996735)
(2.7148e-06 0 -0.000997049)
(2.45273e-06 0 -0.000997333)
(2.21586e-06 0 -0.000997589)
(2.00178e-06 0 -0.000997822)
(1.80831e-06 0 -0.000998032)
(1.63348e-06 0 -0.000998222)
(1.4755e-06 0 -0.000998393)
(1.33276e-06 0 -0.000998548)
(1.2038e-06 0 -0.000998689)
(1.0873e-06 0 -0.000998815)
(9.82074e-07 0 -0.00099893)
(8.8704e-07 0 -0.000999033)
(8.0123e-07 0 -0.000999127)
(7.23765e-07 0 -0.000999212)
(6.53852e-07 0 -0.000999289)
(5.90775e-07 0 -0.000999358)
(5.33887e-07 0 -0.000999421)
(4.82603e-07 0 -0.000999478)
(4.36396e-07 0 -0.000999529)
(3.94789e-07 0 -0.000999576)
(3.5735e-07 0 -0.000999618)
(3.23692e-07 0 -0.000999656)
(2.93463e-07 0 -0.000999691)
(2.66348e-07 0 -0.000999723)
(2.42061e-07 0 -0.000999752)
(2.20348e-07 0 -0.000999778)
(2.00977e-07 0 -0.000999802)
(1.83743e-07 0 -0.000999823)
(1.68462e-07 0 -0.000999843)
(1.54971e-07 0 -0.000999862)
(1.43125e-07 0 -0.000999878)
(1.32794e-07 0 -0.000999894)
(1.23867e-07 0 -0.000999908)
(1.16241e-07 0 -0.000999922)
(1.09825e-07 0 -0.000999934)
(1.04565e-07 0 -0.000999947)
(1.00543e-07 0 -0.000999959)
(9.8179e-08 0 -0.000999969)
(0 -7.02739e-09 -0.00100005)
(0 -9.81508e-09 -0.00100005)
(0 -1.42441e-08 -0.00100006)
(0 -1.94961e-08 -0.00100006)
(0 -2.52007e-08 -0.00100006)
(0 -3.125e-08 -0.00100006)
(0 -3.76539e-08 -0.00100007)
(0 -4.44642e-08 -0.00100007)
(0 -5.17478e-08 -0.00100008)
(0 -5.95788e-08 -0.00100008)
(0 -6.80375e-08 -0.00100009)
(0 -7.72097e-08 -0.0010001)
(0 -8.71886e-08 -0.00100011)
(0 -9.80746e-08 -0.00100012)
(0 -1.09977e-07 -0.00100013)
(0 -1.23016e-07 -0.00100014)
(0 -1.37321e-07 -0.00100015)
(0 -1.53036e-07 -0.00100017)
(0 -1.70317e-07 -0.00100019)
(0 -1.89337e-07 -0.00100021)
(0 -2.10287e-07 -0.00100023)
(0 -2.33375e-07 -0.00100025)
(0 -2.58833e-07 -0.00100027)
(0 -2.86916e-07 -0.0010003)
(0 -3.17903e-07 -0.00100033)
(0 -3.52106e-07 -0.00100037)
(0 -3.89868e-07 -0.00100041)
(0 -4.31566e-07 -0.00100045)
(0 -4.77619e-07 -0.00100049)
(0 -5.28486e-07 -0.00100055)
(0 -5.84678e-07 -0.0010006)
(0 -6.46756e-07 -0.00100067)
(0 -7.1534e-07 -0.00100074)
(0 -7.91114e-07 -0.00100081)
(0 -8.74832e-07 -0.0010009)
(0 -9.67329e-07 -0.00100099)
(0 -1.06952e-06 -0.0010011)
(0 -1.18243e-06 -0.00100121)
(0 -1.30717e-06 -0.00100134)
(0 -1.44497e-06 -0.00100148)
(0 -1.59721e-06 -0.00100163)
(0 -1.76537e-06 -0.0010018)
(0 -1.95112e-06 -0.00100199)
(0 -2.15629e-06 -0.0010022)
(0 -2.38289e-06 -0.00100243)
(0 -2.63313e-06 -0.00100268)
(0 -2.90949e-06 -0.00100296)
(0 -3.21465e-06 -0.00100327)
(0 -3.5516e-06 -0.00100361)
(0 -3.92363e-06 -0.00100399)
(0 -4.33437e-06 -0.0010044)
(0 -4.78783e-06 -0.00100486)
(0 -5.28843e-06 -0.00100536)
(0 -5.84104e-06 -0.00100592)
(0 -6.45104e-06 -0.00100653)
(0 -7.12434e-06 -0.00100721)
(0 -7.86747e-06 -0.00100796)
(0 -8.68765e-06 -0.00100878)
(0 -9.59286e-06 -0.00100969)
(0 -1.0592e-05 -0.0010107)
(0 -1.16947e-05 -0.00101181)
(0 -1.29119e-05 -0.00101303)
(0 -1.42554e-05 -0.00101439)
(0 -1.57386e-05 -0.00101589)
(0 -1.73762e-05 -0.00101754)
(0 -1.91843e-05 -0.00101937)
(0 -2.11812e-05 -0.0010214)
(0 -2.3387e-05 -0.00102364)
(0 -2.58241e-05 -0.00102613)
(0 -2.85178e-05 -0.00102889)
(0 -3.14959e-05 -0.00103196)
(0 -3.47894e-05 -0.00103537)
(0 -3.84302e-05 -0.00103913)
(0 -4.24399e-05 -0.00104317)
(0 -4.67852e-05 -0.00104772)
(0 -5.12462e-05 -0.00105461)
(0 -5.50576e-05 -0.00106614)
(0 -5.65883e-05 -0.00106903)
(0 -5.2812e-05 -0.00102406)
(0 -4.06879e-05 -0.000756911)
(0 -1.03101e-05 -0.00337245)
(0 9.12645e-06 6.21539e-07)
(0 2.80922e-05 -0.00398342)
(0 1.59846e-05 -0.00029813)
(0 -0.000149936 -0.00390919)
(0 -0.000228515 -0.00437313)
(0 -8.65233e-06 -0.000396243)
(0 -0.000427949 -0.00476015)
(0 3.80667e-05 -0.00113311)
(0 0.000781678 -0.00291965)
(0 0.000988184 -0.00324306)
(0 0.000195695 -0.000675022)
(0 0.00138564 -0.00273426)
(0 0.000470567 -0.00242758)
(0 4.15437e-05 -8.77626e-05)
(0 1.47878e-05 -0.00476711)
(0 -6.45054e-06 -0.000299298)
(0 -0.000558743 -0.00255041)
(0 -0.000487182 -0.00191517)
(0 -0.000282697 -0.00140397)
(0 -0.000359872 -0.00232919)
(0 -0.000105695 -0.00180281)
(0 1.8992e-05 -0.0017999)
(0 2.67582e-05 -0.00152945)
(0 5.13993e-07 -0.00117309)
(0 5.0882e-06 -0.00100826)
(0 9.84047e-06 -0.000884638)
(0 9.55668e-06 -0.000896454)
(0 7.65595e-06 -0.000916019)
(0 6.03259e-06 -0.000925828)
(0 4.89437e-06 -0.000932012)
(0 4.05427e-06 -0.000937799)
(0 3.38153e-06 -0.000943388)
(0 2.82038e-06 -0.000948548)
(0 2.34629e-06 -0.00095324)
(0 1.94469e-06 -0.00095751)
(0 1.60472e-06 -0.000961399)
(0 1.31763e-06 -0.00096494)
(0 1.07602e-06 -0.000968163)
(0 8.7313e-07 -0.000971097)
(0 7.0317e-07 -0.000973768)
(0 5.61212e-07 -0.000976198)
(0 4.43041e-07 -0.000978408)
(0 3.45062e-07 -0.000980416)
(0 2.64218e-07 -0.000982241)
(0 1.97868e-07 -0.0009839)
(0 1.43569e-07 -0.000985408)
(0 9.93147e-08 -0.000986778)
(0 6.34475e-08 -0.000988021)
(0 3.45843e-08 -0.00098915)
(0 1.1547e-08 -0.000990174)
(0 -6.67752e-09 -0.000991104)
(0 -2.09304e-08 -0.000991946)
(0 -3.19128e-08 -0.000992711)
(0 -4.02133e-08 -0.000993403)
(0 -4.63186e-08 -0.000994031)
(0 -5.0635e-08 -0.0009946)
(0 -5.35008e-08 -0.000995116)
(0 -5.51961e-08 -0.000995583)
(0 -5.5953e-08 -0.000996006)
(0 -5.59624e-08 -0.000996388)
(0 -5.53828e-08 -0.000996735)
(0 -5.43454e-08 -0.000997049)
(0 -5.29559e-08 -0.000997333)
(0 -5.12977e-08 -0.000997589)
(0 -4.9437e-08 -0.000997822)
(0 -4.74277e-08 -0.000998032)
(0 -4.53129e-08 -0.000998222)
(0 -4.31295e-08 -0.000998393)
(0 -4.09089e-08 -0.000998548)
(0 -3.86774e-08 -0.000998689)
(0 -3.64574e-08 -0.000998815)
(0 -3.42683e-08 -0.00099893)
(0 -3.21266e-08 -0.000999033)
(0 -3.00466e-08 -0.000999127)
(0 -2.80401e-08 -0.000999212)
(0 -2.61169e-08 -0.000999289)
(0 -2.42848e-08 -0.000999358)
(0 -2.25495e-08 -0.000999421)
(0 -2.09146e-08 -0.000999478)
(0 -1.93823e-08 -0.000999529)
(0 -1.79528e-08 -0.000999576)
(0 -1.66248e-08 -0.000999618)
(0 -1.53956e-08 -0.000999656)
(0 -1.42614e-08 -0.000999691)
(0 -1.32171e-08 -0.000999723)
(0 -1.22572e-08 -0.000999752)
(0 -1.13753e-08 -0.000999778)
(0 -1.05652e-08 -0.000999802)
(0 -9.82021e-09 -0.000999823)
(0 -9.13367e-09 -0.000999843)
(0 -8.49907e-09 -0.000999862)
(0 -7.91002e-09 -0.000999878)
(0 -7.36009e-09 -0.000999894)
(0 -6.84226e-09 -0.000999908)
(0 -6.34819e-09 -0.000999922)
(0 -5.8694e-09 -0.000999934)
(0 -5.40981e-09 -0.000999947)
(0 -4.99713e-09 -0.000999959)
(0 -4.67932e-09 -0.000999969)
)
;
    }
    procBoundary2to0
    {
        type            processor;
        value           nonuniform List<vector> 
180
(
(8.38417e-10 -7.02737e-09 -0.000999945)
(7.73869e-10 -9.81505e-09 -0.000999944)
(8.02928e-10 -1.42441e-08 -0.000999943)
(9.3689e-10 -1.9496e-08 -0.000999941)
(1.12579e-09 -2.52007e-08 -0.000999939)
(1.33496e-09 -3.125e-08 -0.000999936)
(1.54676e-09 -3.76539e-08 -0.000999932)
(1.75481e-09 -4.44642e-08 -0.000999928)
(1.95724e-09 -5.17477e-08 -0.000999923)
(2.15384e-09 -5.95788e-08 -0.000999918)
(2.34514e-09 -6.80374e-08 -0.000999911)
(2.53207e-09 -7.72096e-08 -0.000999904)
(2.71596e-09 -8.71884e-08 -0.000999895)
(2.89846e-09 -9.80744e-08 -0.000999886)
(3.08155e-09 -1.09977e-07 -0.000999875)
(3.26752e-09 -1.23016e-07 -0.000999863)
(3.45895e-09 -1.37321e-07 -0.000999849)
(3.65867e-09 -1.53035e-07 -0.000999834)
(3.86974e-09 -1.70317e-07 -0.000999818)
(4.09544e-09 -1.89337e-07 -0.000999799)
(4.33923e-09 -2.10286e-07 -0.000999778)
(4.60477e-09 -2.33375e-07 -0.000999755)
(4.8959e-09 -2.58832e-07 -0.00099973)
(5.21662e-09 -2.86914e-07 -0.000999701)
(5.5712e-09 -3.17902e-07 -0.00099967)
(5.96414e-09 -3.52105e-07 -0.000999635)
(6.40029e-09 -3.89866e-07 -0.000999597)
(6.88497e-09 -4.31564e-07 -0.000999554)
(7.42403e-09 -4.77616e-07 -0.000999507)
(8.02415e-09 -5.28483e-07 -0.000999455)
(8.6931e-09 -5.84674e-07 -0.000999398)
(9.43988e-09 -6.46751e-07 -0.000999334)
(1.02752e-08 -7.15333e-07 -0.000999264)
(1.12113e-08 -7.91105e-07 -0.000999187)
(1.22632e-08 -8.74822e-07 -0.000999102)
(1.34482e-08 -9.67317e-07 -0.000999008)
(1.47866e-08 -1.06951e-06 -0.000998903)
(1.63014e-08 -1.18241e-06 -0.000998788)
(1.80188e-08 -1.30715e-06 -0.000998661)
(1.99687e-08 -1.44494e-06 -0.000998521)
(2.21846e-08 -1.59717e-06 -0.000998366)
(2.47041e-08 -1.76533e-06 -0.000998195)
(2.75696e-08 -1.95107e-06 -0.000998006)
(3.08284e-08 -2.15622e-06 -0.000997797)
(3.45336e-08 -2.3828e-06 -0.000997566)
(3.8745e-08 -2.63304e-06 -0.000997312)
(4.35298e-08 -2.90937e-06 -0.00099703)
(4.89635e-08 -3.2145e-06 -0.000996719)
(5.51316e-08 -3.55141e-06 -0.000996376)
(6.21308e-08 -3.9234e-06 -0.000995998)
(7.0073e-08 -4.33409e-06 -0.000995579)
(7.9086e-08 -4.78749e-06 -0.000995118)
(8.93176e-08 -5.28801e-06 -0.000994609)
(1.0094e-07 -5.84053e-06 -0.000994047)
(1.14154e-07 -6.45041e-06 -0.000993427)
(1.29202e-07 -7.12357e-06 -0.000992744)
(1.46377e-07 -7.86653e-06 -0.00099199)
(1.65972e-07 -8.68648e-06 -0.000991158)
(1.88254e-07 -9.59144e-06 -0.00099024)
(2.1351e-07 -1.05902e-05 -0.000989227)
(2.42047e-07 -1.16925e-05 -0.000988108)
(2.7418e-07 -1.29092e-05 -0.000986872)
(3.10233e-07 -1.42522e-05 -0.000985507)
(3.50517e-07 -1.57347e-05 -0.000983999)
(3.95322e-07 -1.73713e-05 -0.000982332)
(4.4489e-07 -1.91784e-05 -0.00098049)
(4.99389e-07 -2.11739e-05 -0.000978452)
(5.5886e-07 -2.33781e-05 -0.000976196)
(6.23157e-07 -2.58132e-05 -0.000973698)
(6.91892e-07 -2.85044e-05 -0.000970931)
(7.64311e-07 -3.14792e-05 -0.000967866)
(8.3889e-07 -3.47681e-05 -0.000964463)
(9.12288e-07 -3.84009e-05 -0.000960635)
(9.75849e-07 -4.23937e-05 -0.000956249)
(1.00773e-06 -4.6699e-05 -0.000951532)
(9.60337e-07 -5.10636e-05 -0.000948014)
(7.41774e-07 -5.46939e-05 -0.000946911)
(1.97671e-07 -5.58972e-05 -0.000933952)
(-1.128e-06 -5.15944e-05 -0.000875744)
(-3.92194e-06 -3.87613e-05 -0.000670062)
(-3.87079e-06 -5.83215e-06 -0.00296953)
(1.26734e-05 1.53166e-05 1.00562e-07)
(0.000155496 2.41664e-05 -0.00361842)
(1.14537e-05 2.41982e-05 -4.8115e-05)
(-0.000455282 -0.000266638 -0.00295679)
(-0.000522234 -0.000292266 -0.00260932)
(-2.18464e-05 -1.47235e-05 -0.000503973)
(-0.000137098 -0.000185527 -0.00509621)
(1.95476e-05 1.4775e-05 -0.000170401)
(0.000316109 0.000304413 -0.00450651)
(0.000211558 0.000427594 -0.0017232)
(7.85496e-05 0.000899247 -0.00332126)
(-2.55012e-05 6.05233e-05 -0.000244103)
(-0.000166133 0.00135673 -0.00319526)
(-0.000189122 0.000402263 -0.00292467)
(-6.86099e-05 -3.23756e-05 -0.00102737)
(-0.000462031 -0.00105668 -0.00373562)
(-5.92388e-05 -0.00015754 -0.000668118)
(-0.000160822 -0.000400035 -0.00378351)
(-9.54736e-05 -0.000176798 -0.00169059)
(-0.000226887 -0.000169529 -0.00291841)
(-0.000120807 -6.68657e-05 -0.00240873)
(-2.1485e-05 7.63912e-06 -0.00154716)
(7.81889e-06 2.81855e-05 -0.00175674)
(1.90005e-05 -6.67983e-06 -0.000785827)
(7.01161e-05 -1.93089e-07 -0.000955671)
(9.58924e-05 6.72136e-06 -0.000872371)
(0.000102151 8.17831e-06 -0.000875579)
(9.79062e-05 7.16643e-06 -0.000892288)
(9.00005e-05 5.88665e-06 -0.000905245)
(8.15185e-05 4.85816e-06 -0.000914953)
(7.34952e-05 4.04796e-06 -0.000923434)
(6.61789e-05 3.38208e-06 -0.000931173)
(5.95762e-05 2.82204e-06 -0.000938164)
(5.36331e-05 2.34785e-06 -0.000944436)
(4.82865e-05 1.94598e-06 -0.000950061)
(4.34767e-05 1.60575e-06 -0.000955112)
(3.91494e-05 1.31845e-06 -0.00095965)
(3.5256e-05 1.07668e-06 -0.000963726)
(3.17525e-05 8.73656e-07 -0.000967386)
(2.85996e-05 7.03593e-07 -0.000970673)
(2.57618e-05 5.61553e-07 -0.000973625)
(2.32074e-05 4.43316e-07 -0.000976278)
(2.09079e-05 3.45285e-07 -0.000978662)
(1.88377e-05 2.64399e-07 -0.000980804)
(1.69737e-05 1.98015e-07 -0.000982729)
(1.52952e-05 1.43688e-07 -0.000984458)
(1.37836e-05 9.94118e-08 -0.000986011)
(1.24221e-05 6.35267e-08 -0.000987408)
(1.11956e-05 3.46488e-08 -0.000988664)
(1.00907e-05 1.15997e-08 -0.000989793)
(9.09519e-06 -6.6345e-09 -0.000990809)
(8.19818e-06 -2.08953e-08 -0.000991722)
(7.38985e-06 -3.18841e-08 -0.000992545)
(6.66138e-06 -4.01898e-08 -0.000993285)
(6.00485e-06 -4.62994e-08 -0.000993951)
(5.41313e-06 -5.06193e-08 -0.000994551)
(4.87978e-06 -5.3488e-08 -0.000995091)
(4.39903e-06 -5.51856e-08 -0.000995577)
(3.96569e-06 -5.59444e-08 -0.000996016)
(3.57507e-06 -5.59554e-08 -0.000996411)
(3.22294e-06 -5.53771e-08 -0.000996766)
(2.90552e-06 -5.43408e-08 -0.000997087)
(2.61939e-06 -5.2952e-08 -0.000997376)
(2.36146e-06 -5.12945e-08 -0.000997636)
(2.12896e-06 -4.94344e-08 -0.000997871)
(1.91939e-06 -4.74257e-08 -0.000998083)
(1.7305e-06 -4.53112e-08 -0.000998274)
(1.56025e-06 -4.31281e-08 -0.000998446)
(1.40682e-06 -4.09078e-08 -0.0009986)
(1.26855e-06 -3.86765e-08 -0.00099874)
(1.14396e-06 -3.64567e-08 -0.000998866)
(1.03169e-06 -3.42677e-08 -0.000998979)
(9.30543e-07 -3.21261e-08 -0.000999081)
(8.39417e-07 -3.00461e-08 -0.000999173)
(7.5733e-07 -2.80398e-08 -0.000999256)
(6.83394e-07 -2.61167e-08 -0.00099933)
(6.1681e-07 -2.42846e-08 -0.000999397)
(5.56857e-07 -2.25493e-08 -0.000999458)
(5.02888e-07 -2.09145e-08 -0.000999512)
(4.54319e-07 -1.93822e-08 -0.000999561)
(4.10627e-07 -1.79527e-08 -0.000999606)
(3.7134e-07 -1.66247e-08 -0.000999646)
(3.36037e-07 -1.53955e-08 -0.000999682)
(3.04338e-07 -1.42613e-08 -0.000999715)
(2.75903e-07 -1.32171e-08 -0.000999745)
(2.5043e-07 -1.22571e-08 -0.000999771)
(2.27647e-07 -1.13753e-08 -0.000999796)
(2.07312e-07 -1.05652e-08 -0.000999818)
(1.89208e-07 -9.8202e-09 -0.000999839)
(1.73143e-07 -9.13365e-09 -0.000999858)
(1.58949e-07 -8.49906e-09 -0.000999875)
(1.46474e-07 -7.91001e-09 -0.000999891)
(1.35588e-07 -7.36008e-09 -0.000999905)
(1.26176e-07 -6.84226e-09 -0.000999919)
(1.18143e-07 -6.34819e-09 -0.000999932)
(1.11413e-07 -5.8694e-09 -0.000999944)
(1.05957e-07 -5.4098e-09 -0.000999956)
(1.01899e-07 -4.99713e-09 -0.000999968)
(9.97197e-08 -4.67932e-09 -0.000999977)
)
;
    }
    procBoundary2to3
    {
        type            processor;
        value           nonuniform List<vector> 
180
(
(7.71724e-10 -7.09408e-09 -0.00100005)
(5.87185e-10 -1.00018e-08 -0.00100005)
(4.95118e-10 -1.45519e-08 -0.00100005)
(5.13622e-10 -1.99193e-08 -0.00100005)
(5.97324e-10 -2.57292e-08 -0.00100006)
(7.07943e-10 -3.18771e-08 -0.00100006)
(8.29469e-10 -3.83712e-08 -0.00100006)
(9.56431e-10 -4.52626e-08 -0.00100007)
(1.08726e-09 -5.26177e-08 -0.00100007)
(1.22133e-09 -6.05113e-08 -0.00100008)
(1.358e-09 -6.90246e-08 -0.00100009)
(1.49626e-09 -7.82455e-08 -0.0010001)
(1.63474e-09 -8.82698e-08 -0.0010001)
(1.77159e-09 -9.92014e-08 -0.00100011)
(1.90455e-09 -1.11154e-07 -0.00100013)
(2.03091e-09 -1.24252e-07 -0.00100014)
(2.14748e-09 -1.38632e-07 -0.00100015)
(2.25064e-09 -1.54444e-07 -0.00100017)
(2.3363e-09 -1.7185e-07 -0.00100018)
(2.39991e-09 -1.91033e-07 -0.0010002)
(2.43648e-09 -2.1219e-07 -0.00100022)
(2.44053e-09 -2.3554e-07 -0.00100025)
(2.40612e-09 -2.61323e-07 -0.00100027)
(2.32677e-09 -2.89805e-07 -0.0010003)
(2.19544e-09 -3.21279e-07 -0.00100033)
(2.00445e-09 -3.56066e-07 -0.00100037)
(1.74541e-09 -3.94523e-07 -0.00100041)
(1.40908e-09 -4.37042e-07 -0.00100045)
(9.85261e-10 -4.84057e-07 -0.0010005)
(4.62605e-10 -5.36048e-07 -0.00100055)
(-1.71551e-10 -5.93543e-07 -0.00100061)
(-9.31473e-10 -6.57127e-07 -0.00100068)
(-1.83332e-09 -7.27448e-07 -0.00100075)
(-2.89538e-09 -8.0522e-07 -0.00100083)
(-4.1383e-09 -8.91233e-07 -0.00100092)
(-5.58532e-09 -9.86362e-07 -0.00100102)
(-7.26288e-09 -1.09157e-06 -0.00100113)
(-9.20135e-09 -1.20793e-06 -0.00100125)
(-1.14362e-08 -1.33662e-06 -0.00100138)
(-1.4009e-08 -1.47895e-06 -0.00100152)
(-1.6969e-08 -1.63636e-06 -0.00100169)
(-2.03737e-08 -1.81045e-06 -0.00100187)
(-2.42911e-08 -2.00298e-06 -0.00100206)
(-2.88004e-08 -2.21591e-06 -0.00100228)
(-3.39943e-08 -2.45141e-06 -0.00100253)
(-3.99796e-08 -2.71185e-06 -0.0010028)
(-4.68787e-08 -2.99989e-06 -0.00100309)
(-5.48335e-08 -3.31844e-06 -0.00100342)
(-6.40037e-08 -3.67072e-06 -0.00100379)
(-7.45623e-08 -4.06031e-06 -0.00100419)
(-8.67026e-08 -4.49113e-06 -0.00100463)
(-1.00637e-07 -4.96754e-06 -0.00100512)
(-1.16603e-07 -5.49434e-06 -0.00100567)
(-1.34863e-07 -6.07683e-06 -0.00100627)
(-1.55706e-07 -6.72088e-06 -0.00100693)
(-1.79452e-07 -7.43297e-06 -0.00100767)
(-2.0645e-07 -8.22028e-06 -0.00100848)
(-2.37081e-07 -9.09067e-06 -0.00100937)
(-2.71759e-07 -1.00528e-05 -0.00101036)
(-3.10924e-07 -1.11164e-05 -0.00101146)
(-3.55048e-07 -1.22917e-05 -0.00101266)
(-4.04621e-07 -1.35906e-05 -0.001014)
(-4.60147e-07 -1.50258e-05 -0.00101547)
(-5.22125e-07 -1.66112e-05 -0.00101709)
(-5.91031e-07 -1.83625e-05 -0.00101887)
(-6.67283e-07 -2.02965e-05 -0.00102084)
(-7.51212e-07 -2.24318e-05 -0.00102301)
(-8.43e-07 -2.47889e-05 -0.00102539)
(-9.42625e-07 -2.739e-05 -0.00102802)
(-1.0498e-06 -3.02596e-05 -0.0010309)
(-1.16401e-06 -3.34243e-05 -0.00103407)
(-1.28489e-06 -3.69126e-05 -0.00103756)
(-1.41401e-06 -4.0753e-05 -0.00104132)
(-1.56198e-06 -4.49631e-05 -0.00104529)
(-1.77052e-06 -4.95138e-05 -0.0010498)
(-2.15416e-06 -5.4228e-05 -0.00105674)
(-2.87933e-06 -5.84611e-05 -0.00106773)
(-3.95034e-06 -6.08251e-05 -0.00106765)
(-4.36065e-06 -5.79899e-05 -0.00101784)
(-6.9802e-07 -4.48981e-05 -0.000767474)
(1.10072e-05 -1.636e-05 -0.00343486)
(3.08847e-07 -3.22287e-05 2.36153e-06)
(-8.80344e-05 -0.000247034 -0.00435935)
(9.30093e-06 -2.91446e-05 -3.88736e-05)
(0.000155825 0.000295066 -0.00519684)
(2.24217e-05 -1.77774e-05 -0.000148026)
(0.000351648 0.000323159 -0.00528713)
(1.13311e-05 -1.09103e-05 -0.000216619)
(-8.74766e-05 -0.000183767 -0.00502828)
(-7.78822e-05 -9.51538e-05 -0.00120913)
(-0.000350106 2.3188e-05 -0.00545848)
(-1.95461e-05 1.90632e-05 -1.43188e-05)
(-0.00134226 0.000928609 -0.00458043)
(-5.60723e-05 3.98723e-05 -0.000278475)
(-0.000322289 0.000383922 -0.00475399)
(4.84558e-05 0.000102301 -0.00117405)
(0.00061788 0.000331985 -0.00345251)
(0.000529537 0.000289447 -0.00253592)
(0.000355325 0.000200836 -0.00537788)
(7.57626e-07 1.05731e-05 -0.000780081)
(-0.000264107 -0.000115041 -0.00336947)