FoamFile
{version 2.0; format ascii;class vectorField; location 0;object  v;}
353
(
( 3.00124e-06 3.17327e-06 -4.98294e-07 )  
( 6.30802e-06 3.38178e-06 2.18273e-07 )  
( 9.06752e-06 7.4519e-06 6.03328e-07 )  
( 4.42227e-06 1.00737e-06 1.06598e-07 )  
( 3.55648e-06 3.2097e-06 9.31783e-07 )  
( 4.72226e-06 4.95048e-06 -3.99409e-07 )  
( 2.42423e-06 2.83349e-06 3.92526e-07 )  
( 3.38664e-06 3.71994e-06 7.95613e-07 )  
( 4.52035e-06 3.62691e-06 -5.3208e-07 )  
( 6.95572e-06 2.00303e-06 2.32071e-07 )  
( 4.18713e-06 4.13703e-06 -5.99228e-08 )  
( 4.17303e-06 4.07369e-06 1.77942e-06 )  
( 7.34492e-06 6.52083e-06 -2.20284e-06 )  
( 1.36335e-06 1.61008e-06 -3.01728e-07 )  
( 1.70083e-06 -1.16558e-06 6.49841e-08 )  
( 1.31195e-06 3.26416e-06 -5.16933e-07 )  
( 4.30457e-06 3.10864e-06 -1.50825e-06 )  
( 6.44495e-06 7.18045e-06 1.89828e-06 )  
( 4.01293e-06 3.66245e-06 -5.55098e-07 )  
( 6.91066e-06 -9.60784e-07 -8.72844e-07 )  
( 3.69158e-06 4.31667e-06 8.44454e-07 )  
( 4.38942e-06 3.58601e-06 -5.53884e-07 )  
( 9.09276e-06 7.02714e-06 -5.88099e-07 )  
( 4.64143e-06 3.15502e-06 5.4382e-07 )  
( 2.56037e-06 3.28549e-06 -1.59576e-06 )  
( 7.15548e-06 5.08466e-06 8.57316e-07 )  
( 5.16282e-06 3.13526e-06 1.14084e-06 )  
( 7.24646e-06 7.90483e-06 6.74858e-07 )  
( 7.45734e-06 9.1022e-06 5.72343e-07 )  
( 1.00327e-05 1.11857e-05 1.54913e-06 )  
( 7.78273e-06 6.38226e-06 -6.77769e-07 )  
( 8.90278e-06 6.26991e-06 -1.54738e-06 )  
( 6.67847e-06 6.72973e-06 -1.85162e-06 )  
( 8.21878e-06 5.72152e-06 -1.18093e-06 )  
( 6.68089e-06 4.75557e-06 6.20228e-07 )  
( 8.56114e-06 6.31966e-06 -1.07771e-06 )  
( 1.31884e-05 5.97538e-06 -7.30062e-07 )  
( 8.84232e-06 9.19269e-06 -9.37209e-07 )  
( 8.46964e-06 8.47991e-06 5.22839e-07 )  
( 6.96302e-06 8.66592e-06 4.12238e-07 )  
( 1.00015e-05 1.05291e-05 -6.17245e-07 )  
( 1.44792e-05 1.10205e-05 6.66218e-07 )  
( 1.21795e-05 1.3833e-05 -2.23979e-06 )  
( 1.29249e-05 6.17938e-06 -1.90746e-06 )  
( 1.1428e-05 5.42804e-06 -1.98803e-06 )  
( 9.89585e-06 1.00932e-05 -1.42114e-06 )  
( 1.2581e-05 9.40529e-06 1.68096e-06 )  
( 9.24034e-06 6.83552e-06 3.39618e-07 )  
( 9.5289e-06 7.48907e-06 -3.23344e-08 )  
( 8.8251e-06 7.53958e-06 -6.65399e-07 )  
( 8.35111e-06 7.6233e-06 6.1593e-07 )  
( 1.06242e-05 7.958e-06 -8.81635e-07 )  
( 1.19874e-05 1.15448e-05 3.89237e-07 )  
( 1.10633e-05 1.20598e-05 7.26681e-07 )  
( 1.49418e-05 1.3937e-05 1.20045e-06 )  
( 1.2856e-05 1.11628e-05 3.37938e-07 )  
( 1.11316e-05 9.00458e-06 -5.06363e-07 )  
( 1.33386e-05 1.024e-05 -2.28859e-07 )  
( 1.8878e-05 1.10758e-05 -1.8072e-07 )  
( 1.78725e-05 1.0943e-05 2.60137e-07 )  
( 2.2208e-06 9.17954e-06 -4.64473e-08 )  
( 1.35503e-05 1.36633e-05 -2.26601e-06 )  
( 1.03671e-05 1.04098e-05 1.40466e-06 )  
( 1.12989e-05 1.14208e-05 -8.96256e-07 )  
( 1.82327e-05 7.22932e-06 -3.55249e-06 )  
( 1.24904e-05 1.31061e-05 9.17697e-07 )  
( 1.51696e-05 9.64416e-06 -1.95515e-06 )  
( 1.38749e-05 1.39663e-05 5.65398e-07 )  
( 1.40141e-05 7.60387e-06 -1.19001e-06 )  
( 1.30185e-05 1.11981e-05 4.34104e-07 )  
( 1.45416e-05 9.67981e-06 7.0333e-07 )  
( 7.73812e-06 7.5599e-06 1.32769e-06 )  
( 1.48827e-05 1.50355e-05 -9.05825e-07 )  
( 1.57847e-05 1.38727e-05 -2.55348e-06 )  
( 1.60137e-05 1.28905e-05 1.11962e-06 )  
( 1.43846e-05 1.33871e-05 -2.35012e-07 )  
( 1.49081e-05 1.40511e-05 2.05419e-07 )  
( 1.68119e-05 8.70326e-06 -1.54416e-07 )  
( 1.43708e-05 1.34172e-05 -6.67002e-07 )  
( 1.69556e-05 1.35545e-05 -5.19631e-07 )  
( 1.71624e-05 1.18393e-05 3.07873e-06 )  
( 1.2715e-05 1.24979e-05 1.71191e-06 )  
( 1.48019e-05 1.68854e-05 2.5035e-06 )  
( 1.68745e-05 1.45734e-05 5.81757e-07 )  
( 1.43225e-05 1.40144e-05 7.93922e-07 )  
( 1.60305e-05 1.49219e-05 7.71914e-07 )  
( 1.6388e-05 1.58154e-05 -3.17815e-06 )  
( 1.10523e-05 1.37439e-05 -3.75304e-06 )  
( 1.84079e-05 9.1879e-06 3.11935e-07 )  
( 1.56617e-05 1.50429e-05 -1.82519e-06 )  
( 1.96801e-05 1.57037e-05 -2.59886e-07 )  
( 1.78603e-05 1.18463e-05 -1.12333e-06 )  
( 1.50838e-05 1.59702e-05 -2.70092e-07 )  
( 1.33932e-05 1.24061e-05 8.64401e-07 )  
( 1.66567e-05 1.80306e-05 -1.44844e-06 )  
( 1.55594e-05 1.47343e-05 -2.83857e-06 )  
( 1.9267e-05 1.7478e-05 -5.62746e-07 )  
( 1.89954e-05 1.68047e-05 -7.04695e-08 )  
( 1.9356e-05 1.38843e-05 -4.96139e-07 )  
( 1.56483e-05 1.35047e-05 9.70331e-07 )  
( 1.7284e-05 1.53908e-05 -7.2738e-07 )  
( 1.72494e-05 1.71569e-05 2.91442e-08 )  
( 1.71964e-05 1.89712e-05 -1.1028e-06 )  
( 2.13759e-05 1.38954e-05 8.26478e-07 )  
( 2.03103e-05 1.84174e-05 -9.82383e-07 )  
( 1.90542e-05 1.77797e-05 2.04276e-06 )  
( 1.98656e-05 1.76553e-05 3.31896e-06 )  
( 1.55215e-05 1.8355e-05 4.45357e-08 )  
( 1.79427e-05 2.00765e-05 1.48559e-06 )  
( 2.06942e-05 1.95711e-05 -5.3558e-07 )  
( 2.35701e-05 2.41117e-05 -1.0268e-06 )  
( 1.7404e-05 1.41874e-05 1.80955e-06 )  
( 1.9073e-05 1.72999e-05 -7.53987e-07 )  
( 2.14274e-05 1.81447e-05 1.58403e-06 )  
( 1.97995e-05 1.74217e-05 -1.83986e-07 )  
( 2.31411e-05 1.28922e-05 -4.22614e-07 )  
( 2.5188e-05 2.00229e-05 -4.06294e-07 )  
( 2.0635e-05 1.84698e-05 8.22999e-07 )  
( 2.57792e-05 2.06495e-05 -9.96844e-07 )  
( 1.8984e-05 1.86895e-05 5.44921e-07 )  
( 2.27159e-05 1.74963e-05 9.87752e-07 )  
( 2.25694e-05 1.79792e-05 2.90802e-06 )  
( 2.13884e-05 1.89082e-05 2.5671e-07 )  
( 2.05509e-05 1.62402e-05 6.00363e-07 )  
( 1.86968e-05 1.58937e-05 3.83079e-07 )  
( 2.38603e-05 1.67058e-05 -4.682e-07 )  
( 1.9837e-05 2.07151e-05 6.86841e-07 )  
( 2.46468e-05 2.17535e-05 1.02355e-06 )  
( 2.05721e-05 1.83726e-05 -1.83312e-06 )  
( 2.43395e-05 1.95199e-05 1.93925e-06 )  
( 2.22026e-05 2.07322e-05 2.54941e-07 )  
( 2.56286e-05 1.74501e-05 2.98315e-06 )  
( 2.35834e-05 2.06443e-05 2.4956e-06 )  
( 2.661e-05 2.0742e-05 -1.80153e-06 )  
( 2.82604e-05 2.57321e-05 -8.49394e-07 )  
( 2.50228e-05 1.81465e-05 9.58807e-08 )  
( 1.76512e-05 1.85412e-05 4.54276e-08 )  
( 2.29569e-05 2.00705e-05 4.00538e-07 )  
( 2.30015e-05 1.91549e-05 4.63299e-07 )  
( 2.06544e-05 2.04365e-05 3.85314e-06 )  
( 2.22011e-05 1.65596e-05 7.68269e-07 )  
( 2.46762e-05 2.06596e-05 1.42077e-06 )  
( 2.47371e-05 2.10333e-05 4.49125e-06 )  
( 2.57445e-05 2.36309e-05 1.38453e-06 )  
( 2.48778e-05 2.14449e-05 6.398e-08 )  
( 2.61183e-05 2.33537e-05 1.46853e-06 )  
( 2.77104e-05 2.70775e-05 -1.32065e-06 )  
( 2.24496e-05 2.12049e-05 2.75585e-06 )  
( 2.55506e-05 2.30254e-05 2.9507e-06 )  
( 2.42035e-05 2.18907e-05 -1.03701e-06 )  
( 2.63609e-05 2.36425e-05 -1.00467e-06 )  
( 2.24183e-05 2.0014e-05 -6.79326e-07 )  
( 2.56685e-05 1.87701e-05 2.77874e-06 )  
( 3.06486e-05 2.60502e-05 -3.44377e-07 )  
( 2.99064e-05 2.22878e-05 -9.4365e-07 )  
( 3.02712e-05 2.31466e-05 -6.48645e-07 )  
( 3.00147e-05 2.14243e-05 1.05615e-06 )  
( 2.26417e-05 2.37286e-05 -6.6061e-07 )  
( 3.20997e-05 2.76036e-05 -1.94054e-06 )  
( 3.24553e-05 2.72821e-05 -1.57576e-06 )  
( 3.11261e-05 2.69299e-05 1.79962e-07 )  
( 2.77368e-05 2.62069e-05 2.71947e-06 )  
( 3.04492e-05 1.90848e-05 6.70156e-07 )  
( 2.78992e-05 2.43926e-05 -1.73221e-06 )  
( 2.56293e-05 2.24299e-05 7.15042e-07 )  
( 2.59637e-05 2.52003e-05 9.35086e-07 )  
( 2.70142e-05 2.27491e-05 1.75996e-06 )  
( 2.86513e-05 2.33791e-05 -2.97429e-07 )  
( 2.6126e-05 2.32198e-05 6.46493e-07 )  
( 3.02564e-05 2.40235e-05 1.29756e-06 )  
( 2.95201e-05 2.58166e-05 1.64483e-06 )  
( 3.08603e-05 2.77512e-05 -3.35486e-07 )  
( 2.75747e-05 2.37818e-05 8.3151e-07 )  
( 3.07405e-05 2.45187e-05 -2.55163e-07 )  
( 2.39932e-05 2.26065e-05 6.41113e-07 )  
( 3.17007e-05 2.70379e-05 6.63336e-06 )  
( 3.34314e-05 2.99681e-05 1.21015e-06 )  
( 3.14392e-05 2.97185e-05 1.28389e-06 )  
( 3.17941e-05 2.74026e-05 2.12785e-06 )  
( 2.55705e-05 2.21682e-05 7.93456e-07 )  
( 3.40403e-05 2.27907e-05 -2.72273e-06 )  
( 3.21303e-05 2.69948e-05 1.74842e-06 )  
( 3.2773e-05 2.45356e-05 3.16399e-07 )  
( 3.2699e-05 2.67588e-05 -3.58915e-06 )  
( 2.78268e-05 2.5063e-05 2.52445e-06 )  
( 2.94585e-05 2.66036e-05 1.33772e-06 )  
( 3.39468e-05 3.2055e-05 4.01857e-08 )  
( 3.46354e-05 3.02674e-05 2.11808e-06 )  
( 3.24965e-05 3.1559e-05 2.64086e-06 )  
( 2.95298e-05 2.59354e-05 3.16916e-07 )  
( 3.53092e-05 3.12119e-05 -3.38327e-06 )  
( 2.9927e-05 2.43676e-05 6.05314e-07 )  
( 2.91707e-05 2.46916e-05 2.85388e-06 )  
( 2.88528e-05 2.50668e-05 3.14455e-06 )  
( 3.17526e-05 2.64035e-05 1.80249e-06 )  
( 2.82865e-05 2.79819e-05 1.52843e-06 )  
( 3.28554e-05 2.71783e-05 2.0461e-06 )  
( 3.40424e-05 3.10322e-05 2.06638e-06 )  
( 3.60057e-05 2.95775e-05 1.46015e-06 )  
( 3.21806e-05 2.91958e-05 1.48188e-06 )  
( 3.31481e-05 2.36557e-05 1.63981e-06 )  
( 3.63671e-05 3.53919e-05 -1.64388e-06 )  
( 3.53929e-05 3.16226e-05 1.19451e-07 )  
( 3.55373e-05 2.84127e-05 7.02273e-07 )  
( 3.32956e-05 2.63006e-05 -5.17807e-07 )  
( 3.69986e-05 3.14625e-05 5.23806e-07 )  
( 3.4882e-05 2.63271e-05 1.41515e-06 )  
( 3.45192e-05 3.08323e-05 -1.7632e-06 )  
( 3.76933e-05 3.22127e-05 7.00286e-07 )  
( 3.5063e-05 3.26757e-05 2.32798e-06 )  
( 3.42344e-05 2.66144e-05 6.30751e-07 )  
( 3.33113e-05 3.07617e-05 2.81164e-07 )  
( 3.31824e-05 2.84822e-05 -6.55666e-07 )  
( 3.49229e-05 2.81996e-05 2.1442e-06 )  
( 3.69896e-05 2.92399e-05 8.92717e-07 )  
( 3.72768e-05 3.25528e-05 2.37969e-06 )  
( 3.76631e-05 3.20924e-05 -1.80426e-06 )  
( 3.94019e-05 3.02452e-05 2.76508e-06 )  
( 3.86746e-05 3.3758e-05 -3.00166e-07 )  
( 3.42017e-05 3.07849e-05 -2.48485e-07 )  
( 3.86283e-05 3.40633e-05 5.17327e-07 )  
( 3.6145e-05 3.19855e-05 3.15433e-06 )  
( 3.58723e-05 3.18188e-05 1.13427e-06 )  
( 3.9653e-05 3.27566e-05 1.7506e-06 )  
( 3.46873e-05 3.12494e-05 1.35254e-06 )  
( 3.44628e-05 2.85112e-05 1.08681e-06 )  
( 3.50073e-05 2.95205e-05 -1.00279e-06 )  
( 4.08566e-05 3.35825e-05 -3.0857e-07 )  
( 3.43657e-05 2.86423e-05 1.97731e-06 )  
( 3.49842e-05 2.69503e-05 -4.46848e-07 )  
( 4.00679e-05 3.06173e-05 -1.42145e-07 )  
( 3.65637e-05 3.23862e-05 5.43032e-07 )  
( 4.2754e-05 3.41899e-05 1.53128e-06 )  
( 3.65467e-05 3.18411e-05 1.36884e-06 )  
( 3.76906e-05 4.01758e-05 1.49536e-06 )  
( 3.63551e-05 3.14575e-05 1.94042e-06 )  
( 4.43808e-05 3.83989e-05 1.15391e-06 )  
( 4.24664e-05 3.61272e-05 -2.32271e-06 )  
( 4.01198e-05 3.37502e-05 1.1556e-06 )  
( 3.46032e-05 3.04668e-05 3.14814e-06 )  
( 3.73856e-05 2.99579e-05 1.27257e-06 )  
( 3.79536e-05 3.16747e-05 -2.53172e-06 )  
( 4.40191e-05 3.31716e-05 1.16323e-06 )  
( 3.90977e-05 3.56495e-05 -4.29516e-07 )  
( 3.79544e-05 3.55051e-05 2.98919e-06 )  
( 4.40397e-05 3.69562e-05 8.66561e-07 )  
( 4.07265e-05 3.39788e-05 2.11151e-06 )  
( 4.03356e-05 3.42807e-05 -2.54951e-06 )  
( 4.10829e-05 3.49707e-05 5.19943e-06 )  
( 4.35411e-05 3.49266e-05 1.76086e-06 )  
( 4.07519e-05 3.36301e-05 -3.49582e-06 )  
( 4.22879e-05 3.34741e-05 -2.17203e-07 )  
( 4.12665e-05 3.68341e-05 -1.68596e-07 )  
( 4.05857e-05 3.47541e-05 1.86469e-06 )  
( 4.1977e-05 3.97633e-05 1.75076e-06 )  
( 4.61823e-05 3.70357e-05 2.16608e-06 )  
( 4.35024e-05 3.66556e-05 1.24191e-06 )  
( 4.51209e-05 3.58879e-05 3.1578e-07 )  
( 5.1374e-05 3.93171e-05 8.09649e-07 )  
( 4.28128e-05 3.58338e-05 -1.80333e-06 )  
( 4.36657e-05 3.87441e-05 -1.13364e-06 )  
( 4.35256e-05 3.93933e-05 3.03586e-06 )  
( 4.21668e-05 3.77598e-05 -1.31306e-06 )  
( 4.1543e-05 3.40773e-05 -2.73058e-07 )  
( 4.49875e-05 3.56194e-05 1.31963e-06 )  
( 4.89665e-05 4.08159e-05 8.33644e-07 )  
( 4.39481e-05 3.63377e-05 -3.32709e-07 )  
( 4.20791e-05 3.42599e-05 2.14118e-06 )  
( 5.14802e-05 4.18258e-05 4.8071e-06 )  
( 4.41738e-05 3.66463e-05 -4.8912e-07 )  
( 4.15178e-05 3.64883e-05 2.95393e-06 )  
( 4.74373e-05 3.88665e-05 1.32717e-06 )  
( 4.62239e-05 3.6585e-05 -4.02892e-07 )  
( 4.54026e-05 4.0762e-05 -4.45982e-06 )  
( 4.2209e-05 3.85522e-05 -1.49581e-06 )  
( 4.13989e-05 3.42603e-05 2.00358e-06 )  
( 4.05858e-05 3.56827e-05 -6.16736e-08 )  
( 5.03593e-05 3.99718e-05 -5.5164e-07 )  
( 4.37926e-05 4.2688e-05 2.78224e-06 )  
( 4.50854e-05 3.9157e-05 -1.98803e-06 )  
( 4.72537e-05 4.00045e-05 -9.94525e-07 )  
( 5.00689e-05 4.65807e-05 3.33587e-06 )  
( 4.6273e-05 3.91188e-05 9.64528e-08 )  
( 5.14935e-05 4.19177e-05 2.22393e-06 )  
( 4.50252e-05 3.84433e-05 7.15249e-07 )  
( 4.73561e-05 3.92773e-05 -1.20144e-06 )  
( 4.99031e-05 3.96692e-05 -1.95002e-06 )  
( 4.57796e-05 3.93473e-05 -4.68042e-08 )  
( 4.8977e-05 3.94396e-05 1.55996e-06 )  
( 5.08849e-05 4.54528e-05 4.58161e-06 )  
( 4.7304e-05 3.81629e-05 7.25086e-07 )  
( 4.51221e-05 3.92737e-05 8.31984e-07 )  
( 4.78497e-05 4.0107e-05 6.51511e-07 )  
( 4.68632e-05 3.77537e-05 4.6199e-06 )  
( 4.82677e-05 3.84696e-05 5.43168e-07 )  
( 4.97254e-05 5.05161e-05 -1.16552e-06 )  
( 4.93366e-05 4.29158e-05 7.32508e-07 )  
( 4.63317e-05 3.723e-05 5.14255e-07 )  
( 4.3472e-05 3.74679e-05 -1.15689e-06 )  
( 4.78429e-05 3.95083e-05 -5.02237e-07 )  
( 5.50279e-05 5.55482e-05 -6.57493e-06 )  
( 4.88736e-05 3.95205e-05 -1.13595e-06 )  
( 4.65337e-05 3.94964e-05 -1.03216e-06 )  
( 5.06233e-05 4.37765e-05 1.93522e-06 )  
( 4.93289e-05 4.18786e-05 -1.15677e-07 )  
( 4.89199e-05 4.31536e-05 2.80628e-07 )  
( 4.74075e-05 4.08202e-05 3.26578e-06 )  
( 4.51277e-05 3.53798e-05 -3.98256e-06 )  
( 5.1866e-05 4.37434e-05 4.66032e-06 )  
( 5.22186e-05 3.35082e-05 6.11656e-06 )  
( 5.09553e-05 3.85972e-05 3.47685e-06 )  
( 6.08073e-05 5.19724e-05 -3.13204e-06 )  
( 4.59638e-05 4.00153e-05 1.00568e-06 )  
( 4.81204e-05 3.99143e-05 4.23362e-07 )  
( 4.99662e-05 4.33114e-05 3.87789e-06 )  
( 4.70196e-05 4.31915e-05 2.37451e-06 )  
( 5.11053e-05 4.55112e-05 2.64429e-06 )  
( 4.58146e-05 4.12962e-05 1.73462e-06 )  
( 5.0251e-05 4.41935e-05 -1.80791e-07 )  
( 5.75817e-05 5.67537e-05 -1.19395e-05 )  
( 4.81551e-05 4.11506e-05 -8.64253e-08 )  
( 4.69923e-05 4.56531e-05 6.13381e-06 )  
( 4.8336e-05 4.58719e-05 -6.37964e-07 )  
( 5.27048e-05 4.51099e-05 6.58136e-06 )  
( 5.03952e-05 4.32684e-05 2.21635e-06 )  
( 5.14902e-05 5.10352e-05 3.92959e-06 )  
( 4.89313e-05 4.24641e-05 -5.16128e-07 )  
( 5.11248e-05 4.57382e-05 7.46452e-07 )  
( 4.94097e-05 5.67703e-05 9.37021e-06 )  
( 5.58809e-05 5.46158e-05 -9.3744e-06 )  
( 4.66813e-05 4.64377e-05 1.77238e-06 )  
( 4.86708e-05 4.18201e-05 -9.1526e-07 )  
( 4.86345e-05 6.09357e-05 -7.78182e-06 )  
( 3.98434e-05 4.59807e-05 7.38318e-07 )  
( 4.68616e-05 4.06998e-05 8.26903e-07 )  
( 5.02144e-05 4.5759e-05 3.10343e-06 )  
( 4.78872e-05 4.40002e-05 -4.65749e-06 )  
( 5.03872e-05 4.63061e-05 -6.60549e-08 )  
( 4.08176e-05 4.38642e-05 6.21923e-06 )  
( 4.52335e-05 5.57756e-05 1.5417e-05 )  
( 4.81698e-05 4.23222e-05 5.08314e-07 )  
( 4.90454e-05 4.30034e-05 -1.7253e-06 )  
( 4.96225e-05 5.19689e-05 3.84965e-06 )  
( 5.16313e-05 5.75492e-05 -2.65315e-06 )  
( 5.40612e-05 4.77894e-05 -3.8086e-06 )  
( 4.9997e-05 4.29356e-05 -8.09766e-07 )  
( 5.18081e-05 1.28732e-05 5.13285e-06 )  
( 4.43771e-05 4.06646e-05 -8.64252e-07 )  
( 3.10263e-05 7.14166e-05 2.09722e-07 )  
( 4.9413e-05 4.28319e-05 1.92305e-07 )  
( 5.97887e-05 6.01478e-05 -9.55992e-07 )  
( 4.30523e-05 3.7194e-05 4.29892e-07 )  
( -9.99314e-05 0.000819188 -0.000382177 )  
)
