/*--------------------------------*- C++ -*----------------------------------*\
| =========                 |                                                 |
| \\      /  F ield         | OpenFOAM: The Open Source CFD Toolbox           |
|  \\    /   O peration     | Version:  5.x                                   |
|   \\  /    A nd           | Web:      www.OpenFOAM.org                      |
|    \\/     M anipulation  |                                                 |
\*---------------------------------------------------------------------------*/
FoamFile
{
    version     2.0;
    format      ascii;
    class       volScalarField;
    location    "0.01";
    object      p;
}
// * * * * * * * * * * * * * * * * * * * * * * * * * * * * * * * * * * * * * //

dimensions      [0 2 -2 0 0 0 0];

internalField   nonuniform List<scalar> 
180
(
1.54731e-09
4.78552e-09
8.15051e-09
1.14994e-08
1.48204e-08
1.81003e-08
2.13241e-08
2.44752e-08
2.75347e-08
3.04823e-08
3.32954e-08
3.59503e-08
3.84217e-08
4.0683e-08
4.27073e-08
4.44671e-08
4.59351e-08
4.70842e-08
4.78881e-08
4.83214e-08
4.83596e-08
4.79791e-08
4.71572e-08
4.58713e-08
4.40991e-08
4.18169e-08
3.89997e-08
3.56193e-08
3.16438e-08
2.70353e-08
2.17489e-08
1.57309e-08
8.91609e-09
1.22616e-09
-7.43331e-09
-1.71757e-08
-2.81367e-08
-4.04784e-08
-5.43941e-08
-7.01089e-08
-8.78825e-08
-1.08013e-07
-1.3084e-07
-1.56749e-07
-1.86173e-07
-2.19599e-07
-2.5757e-07
-3.00685e-07
-3.49608e-07
-4.05075e-07
-4.679e-07
-5.38983e-07
-6.1932e-07
-7.10015e-07
-8.12299e-07
-9.27545e-07
-1.0573e-06
-1.20328e-06
-1.36743e-06
-1.55189e-06
-1.75903e-06
-1.99142e-06
-2.25199e-06
-2.54466e-06
-2.8759e-06
-3.25462e-06
-3.68643e-06
-4.17778e-06
-4.73613e-06
-5.37019e-06
-6.08991e-06
-6.90581e-06
-7.82782e-06
-8.86975e-06
-1.00688e-05
-1.14954e-05
-1.30896e-05
-1.41084e-05
-1.36122e-05
-1.7306e-05
-0.000124969
0.00081901
0.00122209
0.00151771
0.00287897
0.00410288
0.00528642
0.00645853
0.00943215
0.0108227
0.01141
0.0134332
0.0139719
0.014291
0.0153632
0.0162286
0.0172547
0.0177647
0.0186501
0.0220279
0.0230093
0.0231398
0.0232123
0.0232391
0.02325
0.0232445
0.0232409
0.023239
0.0232377
0.0232365
0.0232354
0.0232345
0.0232337
0.0232331
0.0232325
0.0232321
0.0232317
0.0232314
0.0232311
0.0232308
0.0232306
0.0232305
0.0232303
0.0232302
0.0232301
0.02323
0.02323
0.0232299
0.0232299
0.0232298
0.0232298
0.0232297
0.0232297
0.0232297
0.0232297
0.0232297
0.0232297
0.0232296
0.0232296
0.0232296
0.0232296
0.0232296
0.0232296
0.0232296
0.0232296
0.0232296
0.0232296
0.0232296
0.0232296
0.0232296
0.0232296
0.0232297
0.0232297
0.0232297
0.0232297
0.0232297
0.0232297
0.0232297
0.0232297
0.0232297
0.0232297
0.0232297
0.0232297
0.0232297
0.0232297
0.0232297
0.0232297
0.0232297
0.0232297
0.0232297
0.0232297
0.0232297
0.0232297
0.0232297
0.0232297
0.0232297
0.0232297
0.0232297
0.0232297
0.0232297
)
;

boundaryField
{
    inlet
    {
        type            zeroGradient;
    }
    outlet
    {
        type            fixedValue;
        value           uniform 0;
    }
    repeat_boundary
    {
        type            zeroGradient;
    }
    procBoundary3to1
    {
        type            processor;
        value           nonuniform List<scalar> 
180
(
8.51462e-10
2.59224e-09
4.41518e-09
6.2661e-09
8.13075e-09
1.00161e-08
1.19154e-08
1.38195e-08
1.57136e-08
1.7578e-08
1.93874e-08
2.11108e-08
2.27117e-08
2.41481e-08
2.53727e-08
2.63336e-08
2.69742e-08
2.72338e-08
2.70485e-08
2.63506e-08
2.507e-08
2.31335e-08
2.04653e-08
1.69865e-08
1.26151e-08
7.26456e-09
8.43228e-10
-6.74734e-09
-1.56143e-08
-2.58757e-08
-3.76638e-08
-5.11279e-08
-6.64387e-08
-8.37932e-08
-1.0342e-07
-1.25584e-07
-1.50597e-07
-1.78823e-07
-2.10684e-07
-2.46665e-07
-2.87323e-07
-3.33292e-07
-3.85292e-07
-4.44139e-07
-5.10753e-07
-5.86164e-07
-6.71536e-07
-7.68187e-07
-8.77626e-07
-1.00161e-06
-1.1422e-06
-1.30188e-06
-1.48361e-06
-1.69094e-06
-1.92803e-06
-2.19963e-06
-2.51103e-06
-2.86805e-06
-3.27696e-06
-3.74505e-06
-4.28151e-06
-4.89697e-06
-5.60365e-06
-6.41564e-06
-7.34912e-06
-8.42272e-06
-9.65781e-06
-1.10792e-05
-1.27155e-05
-1.46006e-05
-1.67736e-05
-1.92798e-05
-2.21712e-05
-2.55119e-05
-2.93963e-05
-3.39603e-05
-3.92337e-05
-4.46974e-05
-4.98003e-05
-5.99296e-05
-0.000147031
0.000472811
0.000898417
0.000803152
0.00427929
0.00556367
0.00669795
0.00747458
0.00795632
0.00928026
0.011795
0.0142028
0.0160044
0.0165013
0.0170924
0.0179949
0.0183965
0.0192602
0.0198972
0.0209432
0.0224971
0.0228786
0.0230601
0.0231724
0.0232068
0.0232138
0.0232137
0.0232151
0.0232171
0.023219
0.0232205
0.0232217
0.0232228
0.0232237
0.0232245
0.0232252
0.0232258
0.0232263
0.0232267
0.0232271
0.0232274
0.0232277
0.023228
0.0232282
0.0232283
0.0232285
0.0232286
0.0232288
0.0232289
0.023229
0.023229
0.0232291
0.0232292
0.0232292
0.0232293
0.0232293
0.0232294
0.0232294
0.0232294
0.0232294
0.0232295
0.0232295
0.0232295
0.0232295
0.0232295
0.0232295
0.0232296
0.0232296
0.0232296
0.0232296
0.0232296
0.0232296
0.0232296
0.0232296
0.0232296
0.0232296
0.0232296
0.0232297
0.0232297
0.0232297
0.0232297
0.0232297
0.0232297
0.0232297
0.0232297
0.0232297
0.0232297
0.0232297
0.0232297
0.0232297
0.0232297
0.0232297
0.0232297
0.0232297
0.0232297
0.0232297
0.0232297
0.0232297
0.0232297
0.0232297
)
;
    }
    procBoundary3to2
    {
        type            processor;
        value           nonuniform List<scalar> 
180
(
1.1647e-09
3.59256e-09
6.14591e-09
8.75528e-09
1.14194e-08
1.41638e-08
1.70001e-08
1.99373e-08
2.2981e-08
2.61341e-08
2.93962e-08
3.27648e-08
3.62354e-08
3.98021e-08
4.34586e-08
4.71993e-08
5.10203e-08
5.49209e-08
5.89049e-08
6.29818e-08
6.71691e-08
7.14934e-08
7.59922e-08
8.07159e-08
8.57294e-08
9.11137e-08
9.69683e-08
1.03413e-07
1.10588e-07
1.18661e-07
1.27824e-07
1.38297e-07
1.50334e-07
1.64224e-07
1.80294e-07
1.98914e-07
2.20504e-07
2.45538e-07
2.74553e-07
3.08152e-07
3.47013e-07
3.91897e-07
4.43659e-07
5.03254e-07
5.71758e-07
6.50376e-07
7.40461e-07
8.4353e-07
9.61286e-07
1.09565e-06
1.24879e-06
1.42316e-06
1.62152e-06
1.84703e-06
2.10325e-06
2.39427e-06
2.72473e-06
3.09995e-06
3.52596e-06
4.00966e-06
4.55885e-06
5.18236e-06
5.89033e-06
6.69492e-06
7.61212e-06
8.66172e-06
9.86185e-06
1.12334e-05
1.28004e-05
1.45904e-05
1.66356e-05
1.89733e-05
2.16484e-05
2.47098e-05
2.81909e-05
3.20962e-05
3.65397e-05
4.22677e-05
5.05061e-05
5.69949e-05
-3.8488e-05
0.000742737
0.000982135
0.001168
0.00343796
0.00417084
0.00659484
0.00774192
0.00844323
0.00930339
0.00961354
0.0105674
0.0111102
0.0112797
0.0138158
0.017196
0.0199418
0.0209064
0.0212027
0.0216905
0.0220376
0.0223763
0.02289
0.0231593
0.0232412
0.0232439
0.0232375
0.0232357
0.0232352
0.0232348
0.0232343
0.0232338
0.0232334
0.023233
0.0232326
0.0232323
0.023232
0.0232318
0.0232315
0.0232313
0.0232312
0.023231
0.0232308
0.0232307
0.0232306
0.0232305
0.0232304
0.0232303
0.0232302
0.0232302
0.0232301
0.0232301
0.02323
0.02323
0.0232299
0.0232299
0.0232299
0.0232299
0.0232298
0.0232298
0.0232298
0.0232298
0.0232298
0.0232298
0.0232297
0.0232297
0.0232297
0.0232297
0.0232297
0.0232297
0.0232297
0.0232297
0.0232297
0.0232297
0.0232297
0.0232297
0.0232297
0.0232297
0.0232297
0.0232297
0.0232297
0.0232297
0.0232297
0.0232297
0.0232297
0.0232297
0.0232297
0.0232297
0.0232297
0.0232297
0.0232297
0.0232297
0.0232297
0.0232297
0.0232297
0.0232297
0.0232297
0.0232297
0.0232297
0.0232297
)
;
    }
}


// ************************************************************************* //
