/*--------------------------------*- C++ -*----------------------------------*\
| =========                 |                                                 |
| \\      /  F ield         | OpenFOAM: The Open Source CFD Toolbox           |
|  \\    /   O peration     | Version:  5.x                                   |
|   \\  /    A nd           | Web:      www.OpenFOAM.org                      |
|    \\/     M anipulation  |                                                 |
\*---------------------------------------------------------------------------*/
FoamFile
{
    version     2.0;
    format      ascii;
    class       volVectorField;
    location    "0.01";
    object      U;
}
// * * * * * * * * * * * * * * * * * * * * * * * * * * * * * * * * * * * * * //

dimensions      [0 1 -1 0 0 0 0];

internalField   nonuniform List<vector> 
180
(
(1.84273e-10 -1.27837e-08 -0.00100007)
(-2.55935e-10 -1.54999e-08 -0.00100007)
(-7.81017e-10 -2.01076e-08 -0.00100008)
(-1.30737e-09 -2.59963e-08 -0.00100008)
(-1.82055e-09 -3.27512e-08 -0.00100008)
(-2.32552e-09 -4.01379e-08 -0.00100009)
(-2.83481e-09 -4.80593e-08 -0.00100009)
(-3.36157e-09 -5.65085e-08 -0.0010001)
(-3.91696e-09 -6.55303e-08 -0.0010001)
(-4.51049e-09 -7.5198e-08 -0.00100011)
(-5.15094e-09 -8.56019e-08 -0.00100012)
(-5.84726e-09 -9.68435e-08 -0.00100013)
(-6.6091e-09 -1.09035e-07 -0.00100014)
(-7.44708e-09 -1.22299e-07 -0.00100015)
(-8.37297e-09 -1.36768e-07 -0.00100017)
(-9.39977e-09 -1.52589e-07 -0.00100018)
(-1.05418e-08 -1.69923e-07 -0.0010002)
(-1.18148e-08 -1.88944e-07 -0.00100022)
(-1.32361e-08 -2.09846e-07 -0.00100024)
(-1.48242e-08 -2.32841e-07 -0.00100027)
(-1.65997e-08 -2.58161e-07 -0.00100029)
(-1.85846e-08 -2.86063e-07 -0.00100032)
(-2.08028e-08 -3.16829e-07 -0.00100036)
(-2.32802e-08 -3.50771e-07 -0.00100039)
(-2.60446e-08 -3.88231e-07 -0.00100043)
(-2.91258e-08 -4.29586e-07 -0.00100048)
(-3.25563e-08 -4.75254e-07 -0.00100053)
(-3.63706e-08 -5.25694e-07 -0.00100058)
(-4.0606e-08 -5.81414e-07 -0.00100065)
(-4.53025e-08 -6.42972e-07 -0.00100071)
(-5.05027e-08 -7.10987e-07 -0.00100079)
(-5.62527e-08 -7.86142e-07 -0.00100087)
(-6.26013e-08 -8.69191e-07 -0.00100096)
(-6.96008e-08 -9.60966e-07 -0.00100106)
(-7.73067e-08 -1.06239e-06 -0.00100117)
(-8.57776e-08 -1.17447e-06 -0.00100129)
(-9.50753e-08 -1.29835e-06 -0.00100143)
(-1.05264e-07 -1.43526e-06 -0.00100158)
(-1.16412e-07 -1.58657e-06 -0.00100174)
(-1.28586e-07 -1.75381e-06 -0.00100192)
(-1.4186e-07 -1.93866e-06 -0.00100212)
(-1.56306e-07 -2.14296e-06 -0.00100234)
(-1.71997e-07 -2.36878e-06 -0.00100259)
(-1.89007e-07 -2.61837e-06 -0.00100285)
(-2.07411e-07 -2.89424e-06 -0.00100315)
(-2.27283e-07 -3.19915e-06 -0.00100347)
(-2.48695e-07 -3.53615e-06 -0.00100383)
(-2.71718e-07 -3.9086e-06 -0.00100423)
(-2.9642e-07 -4.32024e-06 -0.00100466)
(-3.22869e-07 -4.77515e-06 -0.00100514)
(-3.51127e-07 -5.27789e-06 -0.00100567)
(-3.81254e-07 -5.83345e-06 -0.00100625)
(-4.13299e-07 -6.44736e-06 -0.00100689)
(-4.47305e-07 -7.12574e-06 -0.0010076)
(-4.83299e-07 -7.8753e-06 -0.00100838)
(-5.21288e-07 -8.70347e-06 -0.00100924)
(-5.61254e-07 -9.61845e-06 -0.00101018)
(-6.03143e-07 -1.06293e-05 -0.00101122)
(-6.46856e-07 -1.17462e-05 -0.00101237)
(-6.92239e-07 -1.29801e-05 -0.00101364)
(-7.39073e-07 -1.43434e-05 -0.00101503)
(-7.87058e-07 -1.58494e-05 -0.00101656)
(-8.3579e-07 -1.7513e-05 -0.00101825)
(-8.84728e-07 -1.93505e-05 -0.00102011)
(-9.33148e-07 -2.138e-05 -0.00102215)
(-9.80187e-07 -2.36211e-05 -0.0010244)
(-1.02479e-06 -2.60957e-05 -0.00102687)
(-1.06574e-06 -2.88274e-05 -0.00102959)
(-1.1019e-06 -3.18416e-05 -0.00103257)
(-1.13273e-06 -3.51637e-05 -0.00103585)
(-1.1596e-06 -3.88149e-05 -0.00103945)
(-1.18748e-06 -4.28004e-05 -0.0010434)
(-1.22478e-06 -4.70798e-05 -0.00104766)
(-1.27464e-06 -5.15066e-05 -0.00105212)
(-1.30205e-06 -5.57161e-05 -0.00105706)
(-1.15188e-06 -5.89615e-05 -0.00106422)
(-4.05792e-07 -5.99339e-05 -0.00107559)
(1.69063e-06 -5.69012e-05 -0.00107792)
(6.2392e-06 -4.76833e-05 -0.00103155)
(1.47748e-05 -3.14641e-05 -0.000748702)
(2.226e-05 -3.76486e-06 -0.00339365)
(1.34938e-06 4.82859e-06 -9.12495e-06)
(-8.65289e-05 -0.000235046 -0.00432635)
(5.25236e-06 3.30675e-05 -4.98053e-05)
(0.000137603 0.000304743 -0.00518725)
(-1.02292e-05 6.17963e-05 -0.000171803)
(0.000323335 0.000332658 -0.005257)
(2.69708e-06 5.5181e-05 -0.000361998)
(-0.000105904 -0.000150615 -0.00483637)
(-9.51292e-05 -6.00822e-05 -0.00126973)
(-0.000347317 5.73881e-05 -0.0055041)
(-1.35406e-05 1.56524e-05 -1.67325e-05)
(-0.00136391 0.000882273 -0.0046685)
(-8.75262e-05 7.24858e-05 -0.000390075)
(-0.000324304 0.000387898 -0.00459103)
(2.97977e-05 0.000121532 -0.00121898)
(0.000598248 0.000324237 -0.00335768)
(0.000528226 0.000281431 -0.00255237)
(0.000341566 0.000186178 -0.00524361)
(-2.50282e-05 1.22371e-05 -0.000827728)
(-0.000264114 -0.000120216 -0.00329111)
(-0.000273415 -0.000105928 -0.00126766)
(-0.000352511 -0.000149911 -0.00170308)
(-0.000149475 -8.73601e-05 -0.00121627)
(-4.32151e-05 -6.03848e-05 -0.00125301)
(2.72435e-05 -3.54895e-05 -0.00111616)
(6.16632e-05 -2.33925e-05 -0.00108891)
(7.67553e-05 -1.74912e-05 -0.00108941)
(8.08098e-05 -1.39796e-05 -0.00108641)
(7.87836e-05 -1.1602e-05 -0.00107967)
(7.39426e-05 -9.86406e-06 -0.00107259)
(6.81514e-05 -8.50558e-06 -0.00106618)
(6.23083e-05 -7.38282e-06 -0.00106038)
(5.67721e-05 -6.42478e-06 -0.00105508)
(5.16538e-05 -5.5964e-06 -0.00105021)
(4.69664e-05 -4.87695e-06 -0.00104576)
(4.26892e-05 -4.25114e-06 -0.00104168)
(3.87921e-05 -3.70643e-06 -0.00103796)
(3.52438e-05 -3.23213e-06 -0.00103456)
(3.20141e-05 -2.81904e-06 -0.00103145)
(2.90755e-05 -2.45917e-06 -0.00102862)
(2.64024e-05 -2.1456e-06 -0.00102603)
(2.39714e-05 -1.87232e-06 -0.00102368)
(2.1761e-05 -1.63411e-06 -0.00102153)
(1.97518e-05 -1.42642e-06 -0.00101957)
(1.79256e-05 -1.24531e-06 -0.00101778)
(1.62663e-05 -1.08735e-06 -0.00101616)
(1.47588e-05 -9.49555e-07 -0.00101468)
(1.33894e-05 -8.29336e-07 -0.00101334)
(1.21458e-05 -7.24431e-07 -0.00101211)
(1.10165e-05 -6.32875e-07 -0.001011)
(9.99117e-06 -5.5296e-07 -0.00100999)
(9.0604e-06 -4.83196e-07 -0.00100907)
(8.21558e-06 -4.22289e-07 -0.00100823)
(7.44886e-06 -3.69109e-07 -0.00100747)
(6.75311e-06 -3.2267e-07 -0.00100678)
(6.12184e-06 -2.82109e-07 -0.00100615)
(5.54914e-06 -2.46673e-07 -0.00100558)
(5.02964e-06 -2.15707e-07 -0.00100506)
(4.55844e-06 -1.88642e-07 -0.00100459)
(4.13111e-06 -1.64983e-07 -0.00100416)
(3.74359e-06 -1.44298e-07 -0.00100378)
(3.39221e-06 -1.26211e-07 -0.00100343)
(3.07363e-06 -1.10393e-07 -0.00100311)
(2.78481e-06 -9.65578e-08 -0.00100282)
(2.523e-06 -8.44558e-08 -0.00100255)
(2.2857e-06 -7.38685e-08 -0.00100232)
(2.07062e-06 -6.46053e-08 -0.0010021)
(1.87571e-06 -5.64998e-08 -0.0010019)
(1.69909e-06 -4.94064e-08 -0.00100173)
(1.53906e-06 -4.31979e-08 -0.00100157)
(1.39407e-06 -3.77629e-08 -0.00100142)
(1.26273e-06 -3.30039e-08 -0.00100129)
(1.14376e-06 -2.88354e-08 -0.00100117)
(1.03602e-06 -2.51827e-08 -0.00100106)
(9.38456e-07 -2.19799e-08 -0.00100096)
(8.50122e-07 -1.91697e-08 -0.00100087)
(7.70159e-07 -1.67016e-08 -0.00100079)
(6.97788e-07 -1.45313e-08 -0.00100071)
(6.32304e-07 -1.26203e-08 -0.00100065)
(5.73066e-07 -1.09345e-08 -0.00100058)
(5.19495e-07 -9.44437e-09 -0.00100053)
(4.71065e-07 -8.12378e-09 -0.00100048)
(4.27301e-07 -6.94992e-09 -0.00100043)
(3.87772e-07 -5.90269e-09 -0.00100039)
(3.52088e-07 -4.9644e-09 -0.00100035)
(3.19897e-07 -4.11943e-09 -0.00100032)
(2.90879e-07 -3.35394e-09 -0.00100029)
(2.64746e-07 -2.65568e-09 -0.00100026)
(2.41239e-07 -2.01373e-09 -0.00100023)
(2.20124e-07 -1.41849e-09 -0.00100021)
(2.01188e-07 -8.61774e-10 -0.00100018)
(1.84243e-07 -3.37236e-10 -0.00100016)
(1.69121e-07 1.58688e-10 -0.00100015)
(1.55683e-07 6.25414e-10 -0.00100013)
(1.43828e-07 1.05687e-09 -0.00100011)
(1.33529e-07 1.44108e-09 -0.0010001)
(1.24909e-07 1.75519e-09 -0.00100008)
(1.18385e-07 1.97568e-09 -0.00100007)
(1.14832e-07 2.08277e-09 -0.00100006)
)
;

boundaryField
{
    inlet
    {
        type            zeroGradient;
    }
    outlet
    {
        type            zeroGradient;
    }
    repeat_boundary
    {
        type            slip;
    }
    procBoundary3to1
    {
        type            processor;
        value           nonuniform List<vector> 
180
(
(4.00905e-10 -1.27836e-08 -0.000999934)
(1.71474e-10 -1.54998e-08 -0.000999933)
(-1.14744e-10 -2.01075e-08 -0.000999931)
(-3.97841e-10 -2.59962e-08 -0.000999929)
(-6.7109e-10 -3.27511e-08 -0.000999927)
(-9.45472e-10 -4.01377e-08 -0.000999923)
(-1.23652e-09 -4.80592e-08 -0.000999919)
(-1.55877e-09 -5.65083e-08 -0.000999914)
(-1.92395e-09 -6.553e-08 -0.000999909)
(-2.34137e-09 -7.51978e-08 -0.000999902)
(-2.81881e-09 -8.56016e-08 -0.000999894)
(-3.36335e-09 -9.68432e-08 -0.000999886)
(-3.98178e-09 -1.09035e-07 -0.000999876)
(-4.68089e-09 -1.22298e-07 -0.000999865)
(-5.46758e-09 -1.36767e-07 -0.000999852)
(-6.34894e-09 -1.52589e-07 -0.000999838)
(-7.33232e-09 -1.69922e-07 -0.000999823)
(-8.42539e-09 -1.88943e-07 -0.000999805)
(-9.63622e-09 -2.09845e-07 -0.000999786)
(-1.09733e-08 -2.32839e-07 -0.000999764)
(-1.24457e-08 -2.58159e-07 -0.00099974)
(-1.4063e-08 -2.8606e-07 -0.000999713)
(-1.58355e-08 -3.16826e-07 -0.000999684)
(-1.77741e-08 -3.50767e-07 -0.000999651)
(-1.98905e-08 -3.88226e-07 -0.000999614)
(-2.2197e-08 -4.29581e-07 -0.000999574)
(-2.47069e-08 -4.75248e-07 -0.000999529)
(-2.74337e-08 -5.25687e-07 -0.00099948)
(-3.03917e-08 -5.81404e-07 -0.000999425)
(-3.35955e-08 -6.42961e-07 -0.000999365)
(-3.70598e-08 -7.10973e-07 -0.000999297)
(-4.07989e-08 -7.86125e-07 -0.000999223)
(-4.48264e-08 -8.6917e-07 -0.000999141)
(-4.91549e-08 -9.60941e-07 -0.00099905)
(-5.37945e-08 -1.06236e-06 -0.000998949)
(-5.87525e-08 -1.17444e-06 -0.000998838)
(-6.4032e-08 -1.2983e-06 -0.000998714)
(-6.96299e-08 -1.4352e-06 -0.000998577)
(-7.55367e-08 -1.5865e-06 -0.000998426)
(-8.17345e-08 -1.75373e-06 -0.000998257)
(-8.81957e-08 -1.93855e-06 -0.000998071)
(-9.48825e-08 -2.14283e-06 -0.000997864)
(-1.01745e-07 -2.36862e-06 -0.000997635)
(-1.08721e-07 -2.61818e-06 -0.00099738)
(-1.15734e-07 -2.894e-06 -0.000997098)
(-1.2269e-07 -3.19885e-06 -0.000996786)
(-1.29482e-07 -3.53579e-06 -0.00099644)
(-1.35985e-07 -3.90816e-06 -0.000996056)
(-1.42053e-07 -4.31969e-06 -0.000995631)
(-1.47521e-07 -4.77449e-06 -0.00099516)
(-1.52194e-07 -5.27707e-06 -0.000994638)
(-1.55851e-07 -5.83244e-06 -0.00099406)
(-1.58232e-07 -6.44613e-06 -0.00099342)
(-1.5905e-07 -7.12422e-06 -0.000992712)
(-1.5799e-07 -7.87344e-06 -0.000991928)
(-1.54709e-07 -8.70119e-06 -0.00099106)
(-1.48806e-07 -9.61564e-06 -0.0009901)
(-1.39728e-07 -1.06259e-05 -0.000989035)
(-1.26719e-07 -1.17419e-05 -0.000987854)
(-1.08938e-07 -1.29749e-05 -0.000986547)
(-8.55729e-08 -1.4337e-05 -0.000985099)
(-5.56994e-08 -1.58415e-05 -0.000983497)
(-1.8279e-08 -1.75033e-05 -0.000981723)
(2.78571e-08 -1.93386e-05 -0.000979761)
(8.40207e-08 -2.13653e-05 -0.000977589)
(1.51664e-07 -2.3603e-05 -0.000975186)
(2.32359e-07 -2.60733e-05 -0.000972528)
(3.27704e-07 -2.87994e-05 -0.000969588)
(4.3892e-07 -3.18058e-05 -0.000966337)
(5.6573e-07 -3.51158e-05 -0.000962743)
(7.03819e-07 -3.8745e-05 -0.000958778)
(8.39132e-07 -4.26851e-05 -0.000954403)
(9.37209e-07 -4.68654e-05 -0.000949534)
(9.27447e-07 -5.10782e-05 -0.000944054)
(6.87401e-07 -5.4854e-05 -0.000938206)
(4.8294e-08 -5.72784e-05 -0.000933659)
(-1.24372e-06 -5.69877e-05 -0.000932268)
(-3.35854e-06 -5.21354e-05 -0.000922604)
(-5.40701e-06 -4.08352e-05 -0.000871236)
(-1.88985e-06 -2.23455e-05 -0.000661226)
(-3.88392e-06 6.87114e-06 -0.00263259)
(-2.57773e-05 2.89574e-06 -2.88113e-05)
(0.000207144 -0.000241534 -0.00270362)
(5.70734e-05 -7.28618e-05 -0.00329007)
(-3.67059e-05 2.88004e-05 -0.000720273)
(-0.000542545 0.000287073 -0.00438779)
(-5.75097e-05 4.51646e-05 -0.000346078)
(-0.000309084 0.000248352 -0.00323144)
(6.01536e-05 -0.000113029 -0.00171433)
(0.000326393 -0.000148862 -0.0037816)
(4.20634e-05 1.36118e-05 -0.00150567)
(7.93208e-06 6.72841e-05 -0.00417458)
(-5.09939e-05 9.05028e-05 -0.00108445)
(-0.000139518 0.000571448 -0.00399242)
(-2.40603e-06 -1.02941e-05 -7.75877e-05)
(-0.000226087 0.00046936 -0.00399641)
(-0.000126731 0.000227667 -0.00194171)
(-0.000171282 0.000235714 -0.002111)
(-0.000186075 0.000316912 -0.00376163)
(-7.21276e-05 -7.17201e-05 -0.00184996)
(-0.000249606 -9.19996e-05 -0.00295167)
(-0.000399096 -0.000101951 -0.00253789)
(-0.000115244 -8.00979e-05 -0.00180529)
(-1.54073e-05 -5.8197e-05 -0.00172794)
(1.08056e-05 -3.7302e-05 -0.00138475)
(5.82804e-05 -1.78387e-05 -0.00124642)
(8.67829e-05 -1.17271e-05 -0.00114616)
(9.93196e-05 -1.04303e-05 -0.00112647)
(0.000101339 -1.00789e-05 -0.00112139)
(9.73386e-05 -9.6316e-06 -0.00111236)
(9.05423e-05 -8.94909e-06 -0.0011015)
(8.28415e-05 -8.11036e-06 -0.00109131)
(7.51956e-05 -7.22064e-06 -0.00108224)
(6.8016e-05 -6.35903e-06 -0.00107412)
(6.14361e-05 -5.56827e-06 -0.0010668)
(5.54664e-05 -4.86317e-06 -0.00106021)
(5.00716e-05 -4.24309e-06 -0.00105428)
(4.52028e-05 -3.70101e-06 -0.00104894)
(4.08105e-05 -3.22817e-06 -0.00104412)
(3.68481e-05 -2.81604e-06 -0.00103979)
(3.32733e-05 -2.45686e-06 -0.00103589)
(3.00478e-05 -2.14382e-06 -0.00103238)
(2.71371e-05 -1.87094e-06 -0.00102921)
(2.45103e-05 -1.63304e-06 -0.00102636)
(2.21394e-05 -1.42559e-06 -0.00102378)
(1.99993e-05 -1.24466e-06 -0.00102146)
(1.80672e-05 -1.08684e-06 -0.00101937)
(1.63228e-05 -9.49162e-07 -0.00101749)
(1.47478e-05 -8.29029e-07 -0.00101579)
(1.33255e-05 -7.24191e-07 -0.00101425)
(1.20411e-05 -6.32688e-07 -0.00101287)
(1.0881e-05 -5.52813e-07 -0.00101162)
(9.83323e-06 -4.83081e-07 -0.00101049)
(8.8868e-06 -4.22198e-07 -0.00100948)
(8.03184e-06 -3.69038e-07 -0.00100856)
(7.25947e-06 -3.22614e-07 -0.00100773)
(6.56167e-06 -2.82065e-07 -0.00100698)
(5.9312e-06 -2.46638e-07 -0.00100631)
(5.36154e-06 -2.1568e-07 -0.0010057)
(4.84678e-06 -1.8862e-07 -0.00100515)
(4.38162e-06 -1.64966e-07 -0.00100465)
(3.96126e-06 -1.44284e-07 -0.00100421)
(3.58136e-06 -1.262e-07 -0.0010038)
(3.23802e-06 -1.10384e-07 -0.00100344)
(2.92772e-06 -9.6551e-08 -0.00100311)
(2.64726e-06 -8.44504e-08 -0.00100281)
(2.39376e-06 -7.38642e-08 -0.00100254)
(2.16463e-06 -6.46019e-08 -0.00100229)
(1.95753e-06 -5.64971e-08 -0.00100207)
(1.77033e-06 -4.94043e-08 -0.00100188)
(1.60112e-06 -4.31962e-08 -0.0010017)
(1.44817e-06 -3.77616e-08 -0.00100153)
(1.30992e-06 -3.30028e-08 -0.00100139)
(1.18496e-06 -2.88346e-08 -0.00100125)
(1.07201e-06 -2.5182e-08 -0.00100114)
(9.6992e-07 -2.19794e-08 -0.00100103)
(8.77651e-07 -1.91693e-08 -0.00100093)
(7.94264e-07 -1.67012e-08 -0.00100084)
(7.1891e-07 -1.45311e-08 -0.00100076)
(6.50821e-07 -1.26201e-08 -0.00100069)
(5.89307e-07 -1.09343e-08 -0.00100062)
(5.33742e-07 -9.44422e-09 -0.00100056)
(4.83563e-07 -8.12367e-09 -0.00100051)
(4.3826e-07 -6.94983e-09 -0.00100046)
(3.97375e-07 -5.90262e-09 -0.00100041)
(3.60494e-07 -4.96434e-09 -0.00100037)
(3.27243e-07 -4.11938e-09 -0.00100034)
(2.97286e-07 -3.35391e-09 -0.0010003)
(2.7032e-07 -2.65565e-09 -0.00100027)
(2.46071e-07 -2.0137e-09 -0.00100024)
(2.24296e-07 -1.41847e-09 -0.00100022)
(2.04775e-07 -8.6176e-10 -0.0010002)
(1.87311e-07 -3.37225e-10 -0.00100018)
(1.71734e-07 1.58696e-10 -0.00100016)
(1.57903e-07 6.2542e-10 -0.00100014)
(1.45717e-07 1.05688e-09 -0.00100012)
(1.35143e-07 1.44108e-09 -0.00100011)
(1.26302e-07 1.75519e-09 -0.0010001)
(1.1961e-07 1.97568e-09 -0.00100008)
(1.15971e-07 2.08277e-09 -0.00100007)
)
;
    }
    procBoundary3to2
    {
        type            processor;
        value           nonuniform List<vector> 
180
(
(1.84274e-10 -1.25671e-08 -0.00100006)
(-2.55934e-10 -1.50725e-08 -0.00100007)
(-7.81016e-10 -1.94413e-08 -0.00100007)
(-1.30736e-09 -2.50867e-08 -0.00100007)
(-1.82055e-09 -3.16018e-08 -0.00100007)
(-2.32551e-09 -3.87578e-08 -0.00100008)
(-2.83481e-09 -4.6461e-08 -0.00100008)
(-3.36156e-09 -5.47057e-08 -0.00100009)
(-3.91696e-09 -6.35372e-08 -0.00100009)
(-4.51049e-09 -7.30289e-08 -0.0010001)
(-5.15094e-09 -8.32697e-08 -0.00100011)
(-5.84726e-09 -9.43596e-08 -0.00100012)
(-6.6091e-09 -1.06408e-07 -0.00100012)
(-7.44708e-09 -1.19532e-07 -0.00100014)
(-8.37296e-09 -1.33863e-07 -0.00100015)
(-9.39976e-09 -1.49538e-07 -0.00100016)
(-1.05418e-08 -1.66713e-07 -0.00100018)
(-1.18148e-08 -1.85555e-07 -0.00100019)
(-1.3236e-08 -2.06246e-07 -0.00100021)
(-1.48242e-08 -2.2899e-07 -0.00100023)
(-1.65997e-08 -2.54007e-07 -0.00100026)
(-1.85846e-08 -2.81541e-07 -0.00100028)
(-2.08028e-08 -3.11862e-07 -0.00100031)
(-2.32802e-08 -3.45265e-07 -0.00100034)
(-2.60445e-08 -3.82076e-07 -0.00100038)
(-2.91258e-08 -4.22657e-07 -0.00100042)
(-3.25562e-08 -4.67405e-07 -0.00100046)
(-3.63705e-08 -5.16757e-07 -0.00100051)
(-4.06059e-08 -5.71199e-07 -0.00100056)
(-4.53023e-08 -6.31265e-07 -0.00100062)
(-5.05025e-08 -6.97544e-07 -0.00100068)
(-5.62524e-08 -7.70688e-07 -0.00100075)
(-6.2601e-08 -8.51415e-07 -0.00100083)
(-6.96004e-08 -9.40519e-07 -0.00100092)
(-7.73061e-08 -1.03888e-06 -0.00100101)
(-8.57768e-08 -1.14745e-06 -0.00100112)
(-9.50744e-08 -1.26731e-06 -0.00100124)
(-1.05263e-07 -1.39962e-06 -0.00100137)
(-1.1641e-07 -1.5457e-06 -0.00100151)
(-1.28585e-07 -1.70696e-06 -0.00100167)
(-1.41858e-07 -1.88499e-06 -0.00100185)
(-1.56303e-07 -2.08153e-06 -0.00100205)
(-1.71994e-07 -2.29852e-06 -0.00100227)
(-1.89003e-07 -2.53807e-06 -0.00100251)
(-2.07406e-07 -2.80255e-06 -0.00100277)
(-2.27277e-07 -3.09454e-06 -0.00100307)
(-2.48687e-07 -3.41691e-06 -0.0010034)
(-2.71708e-07 -3.77284e-06 -0.00100376)
(-2.96408e-07 -4.16583e-06 -0.00100416)
(-3.22853e-07 -4.59976e-06 -0.0010046)
(-3.51108e-07 -5.07889e-06 -0.0010051)
(-3.81229e-07 -5.60796e-06 -0.00100564)
(-4.13269e-07 -6.19219e-06 -0.00100624)
(-4.47267e-07 -6.83734e-06 -0.00100691)
(-4.83251e-07 -7.54981e-06 -0.00100765)
(-5.21228e-07 -8.33667e-06 -0.00100847)
(-5.61178e-07 -9.20571e-06 -0.00100938)
(-6.03047e-07 -1.01655e-05 -0.00101038)
(-6.46735e-07 -1.12255e-05 -0.0010115)
(-6.92087e-07 -1.23962e-05 -0.00101273)
(-7.38881e-07 -1.36891e-05 -0.0010141)
(-7.86814e-07 -1.5117e-05 -0.00101561)
(-8.35482e-07 -1.66942e-05 -0.00101729)
(-8.84337e-07 -1.84363e-05 -0.00101914)
(-9.3265e-07 -2.03607e-05 -0.0010212)
(-9.79553e-07 -2.24865e-05 -0.00102349)
(-1.02398e-06 -2.4835e-05 -0.00102602)
(-1.0647e-06 -2.74292e-05 -0.00102882)
(-1.10054e-06 -3.0294e-05 -0.00103193)
(-1.131e-06 -3.3454e-05 -0.00103538)
(-1.15762e-06 -3.69294e-05 -0.00103922)
(-1.18619e-06 -4.07225e-05 -0.00104347)
(-1.22798e-06 -4.47895e-05 -0.00104812)
(-1.29508e-06 -4.89852e-05 -0.00105306)
(-1.37758e-06 -5.29731e-05 -0.00105853)
(-1.38275e-06 -5.61327e-05 -0.00106628)
(-1.01877e-06 -5.75475e-05 -0.00107873)
(2.21136e-07 -5.6175e-05 -0.00108449)
(3.07866e-06 -4.99057e-05 -0.00105055)
(8.87255e-06 -3.38028e-05 -0.00074618)
(1.18412e-05 -7.80721e-06 -0.00328239)
(-9.82015e-06 1.04199e-05 -2.34331e-06)
(-0.000119407 7.74025e-05 -0.00388903)
(-7.7479e-06 1.98986e-05 -0.000316071)
(8.36496e-05 -0.000130902 -0.00392404)
(2.50801e-05 -0.000215232 -0.00434246)
(1.05564e-05 -1.3716e-05 -0.000448278)
(0.000342015 -0.000401147 -0.00471283)
(-5.66805e-05 4.54459e-05 -0.0011579)
(-0.000324591 0.0008016 -0.00290497)
(-0.000397548 0.000986836 -0.00317572)
(-0.000136848 0.000182818 -0.000737204)
(-0.00101624 0.00144409 -0.00278654)
(-0.000313017 0.000436139 -0.00247268)
(-2.72922e-05 -5.22223e-05 -9.3224e-05)
(6.17483e-05 -2.37514e-05 -0.00482952)
(-3.27022e-06 -6.75799e-05 -0.000466467)
(0.00064195 -0.000569987 -0.00257955)
(0.000595406 -0.000490559 -0.00190511)
(-1.22674e-05 -0.000283998 -0.00139239)
(-0.000262169 -0.00034953 -0.00233918)
(-0.000128347 -9.48356e-05 -0.00178293)
(-4.67673e-05 2.74684e-05 -0.00181874)
(-8.83338e-06 2.95741e-05 -0.00152258)
(1.76764e-05 -5.57544e-07 -0.00117124)
(5.76144e-05 -8.91813e-07 -0.0010056)
(7.6238e-05 6.20227e-06 -0.000878624)
(8.36085e-05 9.43443e-06 -0.000889241)
(8.39302e-05 9.71636e-06 -0.000908581)
(8.01969e-05 8.86302e-06 -0.000918608)
(7.45909e-05 7.74318e-06 -0.000925113)
(6.84631e-05 6.66694e-06 -0.000931258)
(6.24736e-05 5.72258e-06 -0.000937246)
(5.68729e-05 4.91747e-06 -0.000942817)
(5.1724e-05 4.23351e-06 -0.000947904)
(4.702e-05 3.64955e-06 -0.000952547)
(4.27321e-05 3.14824e-06 -0.000956789)
(3.88271e-05 2.71637e-06 -0.000960664)
(3.52725e-05 2.34371e-06 -0.000964203)
(3.20379e-05 2.02193e-06 -0.000967431)
(2.90951e-05 1.74403e-06 -0.000970377)
(2.64185e-05 1.50402e-06 -0.000973062)
(2.39847e-05 1.29675e-06 -0.00097551)
(2.1772e-05 1.11779e-06 -0.00097774)
(1.97608e-05 9.63275e-07 -0.000979771)
(1.79331e-05 8.29899e-07 -0.00098162)
(1.62724e-05 7.14789e-07 -0.000983304)
(1.47638e-05 6.15465e-07 -0.000984836)
(1.33936e-05 5.2978e-07 -0.000986229)
(1.21492e-05 4.55881e-07 -0.000987497)
(1.10193e-05 3.92163e-07 -0.00098865)
(9.99347e-06 3.3724e-07 -0.000989698)
(9.0623e-06 2.89913e-07 -0.00099065)
(8.21713e-06 2.49145e-07 -0.000991516)
(7.45014e-06 2.14041e-07 -0.000992302)
(6.75416e-06 1.83825e-07 -0.000993017)
(6.1227e-06 1.57828e-07 -0.000993666)
(5.54985e-06 1.35472e-07 -0.000994255)
(5.03022e-06 1.16255e-07 -0.000994791)
(4.55892e-06 9.97455e-08 -0.000995277)
(4.1315e-06 8.55692e-08 -0.000995718)
(3.7439e-06 7.34032e-08 -0.000996119)
(3.39247e-06 6.29687e-08 -0.000996482)
(3.07384e-06 5.40252e-08 -0.000996812)
(2.78498e-06 4.63654e-08 -0.000997111)
(2.52314e-06 3.98102e-08 -0.000997383)
(2.28581e-06 3.42049e-08 -0.00099763)
(2.07072e-06 2.94161e-08 -0.000997853)
(1.87579e-06 2.53284e-08 -0.000998056)
(1.69915e-06 2.18425e-08 -0.00099824)
(1.53911e-06 1.88723e-08 -0.000998407)
(1.39411e-06 1.63434e-08 -0.000998558)
(1.26276e-06 1.4192e-08 -0.000998695)
(1.14379e-06 1.23624e-08 -0.000998819)
(1.03604e-06 1.08072e-08 -0.000998932)
(9.38475e-07 9.48508e-09 -0.000999034)
(8.50137e-07 8.36096e-09 -0.000999126)
(7.70171e-07 7.40471e-09 -0.00099921)
(6.97798e-07 6.59076e-09 -0.000999286)
(6.32312e-07 5.89745e-09 -0.000999354)
(5.73073e-07 5.30655e-09 -0.000999417)
(5.19501e-07 4.80286e-09 -0.000999473)
(4.7107e-07 4.37381e-09 -0.000999524)
(4.27305e-07 4.00912e-09 -0.00099957)
(3.87775e-07 3.70053e-09 -0.000999612)
(3.52091e-07 3.44151e-09 -0.00099965)
(3.19899e-07 3.22703e-09 -0.000999684)
(2.9088e-07 3.05333e-09 -0.000999716)
(2.64747e-07 2.91771e-09 -0.000999744)
(2.4124e-07 2.81835e-09 -0.00099977)
(2.20124e-07 2.75425e-09 -0.000999793)
(2.01188e-07 2.72501e-09 -0.000999814)
(1.84243e-07 2.73071e-09 -0.000999834)
(1.69122e-07 2.77132e-09 -0.000999851)
(1.55684e-07 2.84518e-09 -0.000999867)
(1.43828e-07 2.9455e-09 -0.000999882)
(1.33529e-07 3.05465e-09 -0.000999896)
(1.24909e-07 3.14791e-09 -0.000999909)
(1.18385e-07 3.20062e-09 -0.000999922)
(1.14832e-07 3.22156e-09 -0.000999932)
)
;
    }
}


// ************************************************************************* //
