FoamFile
{version 2.0; format ascii;class Cloud<passiveParticle>; location 0;object  positions;}
42
(
( -0.000477731 4.20237e-05 9.9863e-05 ) 0 
( -0.000332562 0.000179475 9.98457e-05 ) 0 
( -0.000323904 0.000425883 9.98206e-05 ) 0 
( -0.000494889 0.000322232 9.97854e-05 ) 0 
( -0.000102327 9.36878e-05 9.98782e-05 ) 0 
( -0.000170187 0.000296632 9.9899e-05 ) 0 
( -0.000485721 0.000184607 0.000244347 ) 0 
( -0.000324807 0.000302585 0.00025705 ) 0 
( -0.000218699 0.000133101 0.000257517 ) 0 
( -0.000174136 0.000433475 0.000246036 ) 0 
( -6.89585e-05 0.000265061 0.000269342 ) 0 
( -0.000380743 1.69711e-05 0.000272834 ) 0 
( -7.36148e-07 0.000432144 0.000355311 ) 0 
( -0.000353011 0.000167434 0.000401539 ) 0 
( -8.19106e-05 0.000114587 0.000402126 ) 0 
( -0.000409948 1.76824e-05 0.000520975 ) 0 
( -0.000363365 0.000415947 0.000417041 ) 0 
( -0.000202038 0.000297851 0.000414755 ) 0 
( -0.000148866 2.26449e-05 0.000580353 ) 0 
( -0.000145464 0.000222314 0.000591009 ) 0 
( -0.000403551 0.000280453 0.000558477 ) 0 
( -0.000225874 0.000407178 0.00058033 ) 0 
( -2.1438e-05 0.000289218 0.000732869 ) 0 
( -0.000305835 0.000118712 0.000658498 ) 0 
( -0.000496751 0.000340582 0.000724768 ) 0 
( -0.000156696 0.000461003 0.000759942 ) 0 
( -0.000321097 3.88468e-06 0.000821479 ) 0 
( -0.000351633 0.000478032 0.000718629 ) 0 
( -0.00026969 0.000297037 0.000741279 ) 0 
( -0.000441787 0.000162929 0.000798277 ) 0 
( -0.000112719 0.000112723 0.000755111 ) 0 
( -0.00033084 0.000265741 0.000929087 ) 0 
( -0.000139718 0.000312079 0.000892485 ) 0 
( -0.000190018 0.00012411 0.000939152 ) 0 
( -0.000422941 0.000441132 0.000901711 ) 0 
( -0.000352902 8.46137e-05 0.00104819 ) 0 
( -0.000242756 0.000454945 0.000987217 ) 0 
( -1.38902e-05 0.000207663 0.00108332 ) 0 
( -0.000187108 0.000129441 0.00115063 ) 0 
( -0.000407702 0.000452437 0.00110079 ) 0 
( -0.000169886 0.000326619 0.00112215 ) 0 
( -0.000358516 0.000262486 0.00113939 ) 0 
)
