# Probe 0 (0 0 5000)
# Probe 1 (0 0 -4000)
#       Probe             0             1
#        Time
         1000     -0.324261  -5.94523e-08
         2000       4.39315   1.05939e-07
         3000       313.106   2.24269e-05
         4000      -4848.85      -22.7028
         5000      -4971.26       -46.312
         6000      -1347.64      -23.1102
         7000      -44827.8      -814.293
         8000      -3318.14      -141.122
         9000       1567.05       6.90827
        10000      -12523.4      -134.571
