FoamFile
{version 2.0; format ascii;class Cloud<passiveParticle>; location 0;object  positions;}
356
(
( -1685.58 4046.76 499.017 ) 0 
( -3954.88 2494.45 498.543 ) 0 
( -3881.8 4223.55 498.757 ) 0 
( -4880.01 4266.96 498.807 ) 0 
( -2189.98 4909.84 499.526 ) 0 
( -3490.64 1609.39 498.726 ) 0 
( -2876.62 820.923 496.616 ) 0 
( -976.904 2179.89 499.018 ) 0 
( -2363.36 3286.95 497.755 ) 0 
( -4866.48 725.653 498.908 ) 0 
( -291.049 2917.66 498.305 ) 0 
( -551.89 141.938 498.77 ) 0 
( -4953.37 2535.61 497.692 ) 0 
( -1006.23 4782.12 497.204 ) 0 
( -3419.56 3338.38 498.32 ) 0 
( -1958.63 2373.93 496.965 ) 0 
( -4417.84 3380.08 498.542 ) 0 
( -605.817 3866.48 498.791 ) 0 
( -2518.78 1656.68 906.908 ) 0 
( -1110.1 4200.2 1300.95 ) 0 
( -4489.28 1650.39 497.762 ) 0 
( -1283.68 3131.38 499.655 ) 0 
( -1862.53 2959.58 1296.71 ) 0 
( -1509.26 438.504 496.871 ) 0 
( -3866.67 683.99 499.088 ) 0 
( -1636.43 1428.96 497.918 ) 0 
( -2850.1 4159.49 498.14 ) 0 
( -2956.46 2453.62 497.232 ) 0 
( -2794.41 4750.5 1300.44 ) 0 
( -437.912 4943.09 1303.73 ) 0 
( -3089.39 295.057 1316.35 ) 0 
( -4006.72 1282.76 1290.4 ) 0 
( -4469.49 2224.4 1314.63 ) 0 
( -562.563 1140.98 498.809 ) 0 
( -3857.36 4797.32 1315.56 ) 0 
( -715.164 3283.74 1324.76 ) 0 
( -2904.06 3042.9 1300.81 ) 0 
( -1181.52 983.288 1266.5 ) 0 
( -12.0707 1401.95 1323.39 ) 0 
( -437.043 2308.84 1329.45 ) 0 
( -1678.15 1951.97 1357.66 ) 0 
( -4204.07 305.341 1360.02 ) 0 
( -4960.04 2531.82 2128.03 ) 0 
( -3471.12 2183.09 1315.79 ) 0 
( -4369.12 4531.92 2131.06 ) 0 
( -2280.31 3893.08 1288.09 ) 0 
( -30.3769 4030.43 1298.25 ) 0 
( -1524.63 3599.34 1981.22 ) 0 
( -4931.07 3110.78 1312.89 ) 0 
( -2566.53 2208.3 1737.55 ) 0 
( -1034.6 4803.08 2092.98 ) 0 
( -4855.69 4848.35 1310.69 ) 0 
( -3068.99 1243.94 1628.83 ) 0 
( -2153.98 768.876 1183.18 ) 0 
( -3930.64 3070.29 1313.91 ) 0 
( -342.577 464.46 1420.71 ) 0 
( -1798.41 1153.19 2032.66 ) 0 
( -4395.13 3955.09 1315.45 ) 0 
( -3381.21 3920 1309.45 ) 0 
( -4463.62 1622.17 2112.26 ) 0 
( -2783.56 510.835 2242.74 ) 0 
( -1056 490.789 2125.98 ) 0 
( -939.387 1657.87 1960.94 ) 0 
( -2372.93 3100.1 2142.87 ) 0 
( -4785.33 640.177 2100.16 ) 0 
( -3410.14 2929.76 2154.16 ) 0 
( -2060.11 4598.19 1961.68 ) 0 
( -1897.8 175.764 2563.64 ) 0 
( -26.5416 1470 2318.98 ) 0 
( -248.518 2970.64 2172.97 ) 0 
( -3507.35 1876.53 2266.46 ) 0 
( -3800.32 802.025 2146.65 ) 0 
( -2625.46 1464.54 2494.98 ) 0 
( -1841.02 2077.2 2410.54 ) 0 
( -4420.89 3372.74 2129.88 ) 0 
( -1159.83 2633.62 1938.05 ) 0 
( -586.753 3909.97 2117.42 ) 0 
( -1533.48 4205.24 2772.51 ) 0 
( -599.794 2196.49 2728.59 ) 0 
( -4140.07 2518.41 2698.27 ) 0 
( -2965.82 4884.47 2274.93 ) 0 
( -2490.07 740.506 3169.19 ) 0 
( -238.858 542.066 2697.13 ) 0 
( -3413.2 1134.41 3010.48 ) 0 
( -2981.18 3887.24 2223.84 ) 0 
( -1600.96 2982.92 2763.33 ) 0 
( -1510.36 403.328 3455.24 ) 0 
( -3721.64 4869.63 2988.45 ) 0 
( -3838.92 3912.08 2734.23 ) 0 
( -4921.69 3998.07 2768.9 ) 0 
( -1413.5 2167.12 3307.76 ) 0 
( -2784.97 2417.99 2741.45 ) 0 
( -1183.84 1200.1 2818.97 ) 0 
( -4285.7 1612.67 3095.2 ) 0 
( -1170.15 4167.14 3702.57 ) 0 
( -468.185 4568.86 2879.15 ) 0 
( -2417.96 4578.59 3052.14 ) 0 
( -2386.77 3580.83 3017.05 ) 0 
( -3366.02 137.784 2963.32 ) 0 
( -198.108 3951.53 3613.88 ) 0 
( -2308.5 1734.29 3402.22 ) 0 
( -3375.99 3121.8 3133.43 ) 0 
( -713.722 3394.76 2963.56 ) 0 
( -3504.75 2163.52 3382.55 ) 0 
( -3162.88 448.228 3888.81 ) 0 
( -510.239 2221.16 3727.35 ) 0 
( -1303.42 3090.35 3709.68 ) 0 
( -2218.93 2724.84 3505.35 ) 0 
( -4623.65 4720.85 3390.02 ) 0 
( -306.545 1356.78 3270.83 ) 0 
( -503.762 211.501 3600.07 ) 0 
( -1384.53 1318.12 3832.88 ) 0 
( -4203.35 662.804 3397.15 ) 0 
( -4916.01 3040.69 3049.34 ) 0 
( -2912.3 3237.56 4010.66 ) 0 
( -2837.67 2175.4 4124.72 ) 0 
( -1653.83 137.059 4406.78 ) 0 
( -1637.33 1067.18 4771.19 ) 0 
( -4206.58 2795.59 3706.78 ) 0 
( -2390.9 1039.97 4116.5 ) 0 
( -2273.42 4000.6 3915.74 ) 0 
( -1843.95 2121.16 4208.02 ) 0 
( -83.2417 3062.41 4053.57 ) 0 
( -3853.43 4515.8 3990.64 ) 0 
( -4551.52 1356.68 4024.07 ) 0 
( -501.119 1018.25 4190.55 ) 0 
( -4025.19 581.751 4375.97 ) 0 
( -2741.55 4881.6 3977.35 ) 0 
( -3551.54 1363.43 3975.54 ) 0 
( -3158.27 4042.18 3453.76 ) 0 
( -4368.42 3771.5 3568.88 ) 0 
( -673.757 3762.77 4470.23 ) 0 
( -3612.98 2725.71 4506.21 ) 0 
( -315.376 4715.99 4549.11 ) 0 
( -984.433 1804.88 4607.93 ) 0 
( -4816.05 4313.18 4281.72 ) 0 
( -3412.15 1812.27 4856.15 ) 0 
( -1762.81 4820.66 4172.34 ) 0 
( -3093.88 4097.02 4486.86 ) 0 
( -2424.8 1670.13 4890.35 ) 0 
( -1628.6 3969.13 4677.21 ) 0 
( -89.8529 2248.25 4632.46 ) 0 
( -2011.1 3084.31 4414.25 ) 0 
( -4993.41 3332.68 4211.89 ) 0 
( -3162.33 847.227 4803.88 ) 0 
( -920.975 2801.13 4584.67 ) 0 
( -1093.89 393.894 5269.15 ) 0 
( -1364.55 4839.87 5088.52 ) 0 
( -4807.57 173.983 4844.24 ) 0 
( -1298.59 1527.94 5590.86 ) 0 
( -2464.75 3636.11 5111.95 ) 0 
( -4515.74 2990.29 5017.89 ) 0 
( -4751.37 2275 4362.03 ) 0 
( -2732.79 2683.22 4977.19 ) 0 
( -2391.44 269.498 5067.26 ) 0 
( -4875.59 4595.81 5299.91 ) 0 
( -2368.76 4614.81 4939.08 ) 0 
( -3928.13 4544.52 4985.71 ) 0 
( -3989.16 3652.62 4485.83 ) 0 
( -459.029 1173.58 5176.9 ) 0 
( -4286.3 1348.41 4986.35 ) 0 
( -2180.05 1059.06 5642.71 ) 0 
( -2960.5 2094.18 5751.44 ) 0 
( -3414.49 3359.32 5252.6 ) 0 
( -367.377 3260.93 5276.92 ) 0 
( -3643.48 1364.76 5750.96 ) 0 
( -627.799 4221.64 5357.99 ) 0 
( -3881.29 2399.7 5511.09 ) 0 
( -246.72 434.582 5814.96 ) 0 
( -3970.9 411.707 5357.57 ) 0 
( -1795.46 2393.58 5167.78 ) 0 
( -4563.44 1926.39 6166.13 ) 0 
( -4261.45 3793.9 5553.9 ) 0 
( -2016.07 2032.48 6072.59 ) 0 
( -1286.24 719.692 6193.78 ) 0 
( -4672.19 953.343 5817.95 ) 0 
( -641.894 163.032 6716.09 ) 0 
( -3118.55 4278.94 5507.88 ) 0 
( -1782.18 4128.27 5651.55 ) 0 
( -165.294 2785.18 6131.95 ) 0 
( -2288.41 2961.54 5826.72 ) 0 
( -500.996 1335.73 6162.09 ) 0 
( -4220.64 204.378 6301.43 ) 0 
( -3063.69 550.848 5752.09 ) 0 
( -1362.92 3275.65 5344.47 ) 0 
( -856.052 2420.24 5506.26 ) 0 
( -754.795 3602.98 6131.39 ) 0 
( -4211.06 3037.2 6204.76 ) 0 
( -4852.95 2607.68 6838.16 ) 0 
( -3660.38 2230.04 6468.55 ) 0 
( -4103.85 1159.66 6613.76 ) 0 
( -200.206 2042.91 6800.2 ) 0 
( -3118.59 3368.44 6207.03 ) 0 
( -2855.19 1312.26 6365.18 ) 0 
( -1227.43 4910.72 6075.26 ) 0 
( -2389.86 431.216 6478.48 ) 0 
( -3921.6 4626.41 5989.89 ) 0 
( -235.346 4922.86 5952 ) 0 
( -4691.94 4628.96 6625.92 ) 0 
( -1173.32 1931.02 6600.66 ) 0 
( -1388.45 2838.15 6241.06 ) 0 
( -2449.67 4274.92 7246.5 ) 0 
( -700.385 3021.5 6941.31 ) 0 
( -4229.87 1934.21 7232.8 ) 0 
( -1423.42 4123.91 6659.7 ) 0 
( -2205.69 3501.82 6662.67 ) 0 
( -185.674 4226 6666.4 ) 0 
( -2720.12 2530.91 6618.01 ) 0 
( -1921.85 1279.96 6721.99 ) 0 
( -2199.92 4681.21 6369.69 ) 0 
( -3121.9 4322.21 6506.76 ) 0 
( -2424.41 769.736 7417.56 ) 0 
( -4012.11 3898.65 6668.44 ) 0 
( -3371.21 692.201 7107.57 ) 0 
( -3603.59 3058.8 7024.23 ) 0 
( -1594.21 163.513 7020.08 ) 0 
( -530.387 3820.43 7516.64 ) 0 
( -3806.15 4800.64 7056.53 ) 0 
( -4907.45 3755.89 7088.08 ) 0 
( -3263.05 1680.79 7201.28 ) 0 
( -864.361 4876.45 7005.3 ) 0 
( -1503.65 3429.85 7373.74 ) 0 
( -1496.98 1704.13 7520.22 ) 0 
( -1834.63 2534.12 7080.11 ) 0 
( -4996.28 1324.15 7424.18 ) 0 
( -3986.78 1124.23 7765.08 ) 0 
( -4512.38 475.339 7216.67 ) 0 
( -887.294 1073.12 7044.83 ) 0 
( -2694.45 3102.29 7437.87 ) 0 
( -984.308 2527.2 7760.75 ) 0 
( -3974.7 108.106 7974.46 ) 0 
( -4421.78 3060.04 7616.71 ) 0 
( -3374.14 3947.2 7435.67 ) 0 
( -2989.42 253.392 8059.22 ) 0 
( -12.0306 2656.02 7565.94 ) 0 
( -3631.79 2152.72 8001.58 ) 0 
( -4017.42 4996.14 8080.37 ) 0 
( -4808.62 4596.75 7618.08 ) 0 
( -2190.79 3723.62 8037.69 ) 0 
( -2439.78 1999.76 7668.62 ) 0 
( -3080.7 4844.13 7770.52 ) 0 
( -72.8809 1379.24 7536.67 ) 0 
( -902.504 295.548 7728.75 ) 0 
( -4872.82 3762.9 8165.13 ) 0 
( -1530.59 4434.09 7603.95 ) 0 
( -299.927 2013.27 8275.44 ) 0 
( -2395.19 4555.23 8552.95 ) 0 
( -1220.31 3760.2 8273.33 ) 0 
( -4404.86 2893.47 8602.28 ) 0 
( -1439.84 4916.64 8474.48 ) 0 
( -2992.06 1270.17 8070.54 ) 0 
( -2813.97 2550.16 8413.75 ) 0 
( -607.779 4713.03 7959.36 ) 0 
( -779.706 4341.42 8956.6 ) 0 
( -4816.42 2219.45 7989.94 ) 0 
( -3913.37 4021.63 8273.75 ) 0 
( -876.971 1210.8 8129.19 ) 0 
( -3510.29 3144.62 8015.45 ) 0 
( -429.52 3152.25 8325.91 ) 0 
( -1910.24 2764.93 8048.62 ) 0 
( -1860.13 173.895 7987.81 ) 0 
( -3610.57 754.054 8660.87 ) 0 
( -398.745 2542.9 9117.54 ) 0 
( -3007.54 3768.18 8612.55 ) 0 
( -3270.23 4997.98 8743.64 ) 0 
( -2006.16 1200.43 8216.25 ) 0 
( -1154.7 443.405 8706 ) 0 
( -1273.39 2911.92 8804.27 ) 0 
( -3493.13 2986.12 9002.36 ) 0 
( -2382.6 91.0565 8835.89 ) 0 
( -1415.41 1978.7 8477 ) 0 
( -4183.09 1597.22 8622.6 ) 0 
( -2225.64 3202.34 8889.43 ) 0 
( -180.615 789.728 8710.06 ) 0 
( -331.947 51.4577 9375.01 ) 0 
( -2635.55 1047.51 8977.24 ) 0 
( -3148.43 322.65 9434.84 ) 0 
( -4187.27 3684.07 9173.62 ) 0 
( -3263.49 1827.84 8937.09 ) 0 
( -4063.07 1271.11 9559.45 ) 0 
( -704.228 3453.14 9421.5 ) 0 
( -4078.77 2260.79 9362.33 ) 0 
( -1648.31 1191.6 9148.73 ) 0 
( -721.425 1554.71 9057.31 ) 0 
( -4189.55 4669.15 9008.24 ) 0 
( -2260.25 1972.51 9010.91 ) 0 
( -4579.28 722.406 8900.91 ) 0 
( -1724.78 4043.83 9087.82 ) 0 
( -1393.22 2171.69 9464.98 ) 0 
( -2739.9 3713.89 9575.82 ) 0 
( -1649.8 4972.57 9449.92 ) 0 
( -2169.13 542.736 9702.98 ) 0 
( -3559.64 3285.83 9953.44 ) 0 
( -2730.45 2661.56 9561.31 ) 0 
( -3115.49 1423.67 9838.33 ) 0 
( -2675.77 4707.7 9500.54 ) 0 
( -178.072 4237.14 9747.89 ) 0 
( -4774.96 1899.67 9983.95 ) 0 
( -905.762 804.63 9693.98 ) 0 
( -135.201 2138.52 9992.72 ) 0 
( -4667.21 4417.72 9849.49 ) 0 
( -3460.69 2309.98 10146.2 ) 0 
( -3637.74 668.177 10234.7 ) 0 
( -3559.76 4276.32 9677.38 ) 0 
( -981.232 1654.45 10214.1 ) 0 
( -4439.15 2834.22 10097.4 ) 0 
( -4002.06 1555.31 10516 ) 0 
( -1292.65 90.0076 10275.8 ) 0 
( -300.464 30.9221 10377 ) 0 
( -922.291 2735.68 10142.1 ) 0 
( -1165.63 4220.75 9896.51 ) 0 
( -1651.07 3261.53 9704.94 ) 0 
( -4623.55 622.482 10073.6 ) 0 
( -2133.91 1590.6 9925.86 ) 0 
( -175.869 1021.68 10341.4 ) 0 
( -2124.28 4221.54 10177.9 ) 0 
( -1338.52 3543.72 10611.4 ) 0 
( -2268.01 3833.72 11087.9 ) 0 
( -2666.39 1998.35 10667.1 ) 0 
( -1504.33 1912.17 11025.5 ) 0 
( -358.842 3514.65 10414.4 ) 0 
( -2081.76 126.161 10887.8 ) 0 
( -2689.97 826.369 10516.4 ) 0 
( -1878.08 2484.85 10291.6 ) 0 
( -2589.39 3177.69 10405.5 ) 0 
( -558.282 4560.03 10614 ) 0 
( -3937.42 4737.27 10479.7 ) 0 
( -4273.74 3747.97 10478.6 ) 0 
( -1652.4 980.178 10553.8 ) 0 
( -3052.74 4060.44 10511.1 ) 0 
( -3429.35 3241.62 10943.5 ) 0 
( -3256.6 1352.33 11150.2 ) 0 
( -2499.26 2750.74 11304.7 ) 0 
( -2826.93 515.943 11489.7 ) 0 
( -825.926 622.667 10987.8 ) 0 
( -2265.26 1315.3 11277.5 ) 0 
( -4796.38 1805.37 11068.9 ) 0 
( -540.384 2777.41 11064.8 ) 0 
( -1428.24 4370.81 11165.6 ) 0 
( -4051.79 2459.59 10939.2 ) 0 
( -343.524 1777.52 10973.8 ) 0 
( -1506.2 2865.39 11326.1 ) 0 
( -4867.63 3103.14 10959.3 ) 0 
( -4938.87 503.215 11041.4 ) 0 
( -3318.12 2250.48 11585.1 ) 0 
( -857.389 2128.59 11756.3 ) 0 
( -4000.98 707.48 11320.9 ) 0 
( -1655.21 3693.89 11865.4 ) 0 
( -253.767 1070.16 11674.6 ) 0 
( -3190.63 4761.89 11209.8 ) 0 
( -2863.31 1496.03 12058 ) 0 
( -2014.61 2082.09 11868.2 ) 0 
( -4169.89 3466.12 11576.4 ) 0 
( -3095.76 3868.07 11647.6 ) 0 
( -584.862 3858.15 11325.6 ) 0 
( -4461.22 4363.02 11244.4 ) 0 
)
