FoamFile
{version 2.0; format ascii;class Cloud<passiveParticle>; location 0;object  positions;}
350
(
( -3.38127 1.96381 0.499817 ) 0 
( -2.406 2.2424 0.499618 ) 0 
( -4.23593 3.81011 0.499974 ) 0 
( -2.25728 4.04583 0.49974 ) 0 
( -2.75331 4.92879 0.499613 ) 0 
( -1.45321 1.49581 0.49957 ) 0 
( -0.599425 2.12631 0.499903 ) 0 
( -0.869594 4.2568 0.499624 ) 0 
( -4.46576 1.09198 0.499975 ) 0 
( -0.311794 3.39038 0.499742 ) 0 
( -2.71287 0.280717 0.499598 ) 0 
( -1.3112 3.3599 0.499721 ) 0 
( -0.504189 1.13005 0.499661 ) 0 
( -4.35583 2.20543 0.499705 ) 0 
( -4.7057 0.121192 0.499638 ) 0 
( -3.75782 4.69802 0.499833 ) 0 
( -4.75025 4.81973 0.499525 ) 0 
( -3.70742 0.177772 0.499856 ) 0 
( -4.61391 1.9102 1.41942 ) 0 
( -2.42116 1.23925 0.499787 ) 0 
( -1.2175 0.689062 1.04368 ) 0 
( -1.74353 0.0355204 0.499785 ) 0 
( -4.88808 3.05202 0.499759 ) 0 
( -1.48629 2.4334 0.845007 ) 0 
( -3.23666 3.84478 0.516129 ) 0 
( -1.67103 4.85617 0.499788 ) 0 
( -0.00726961 4.19922 1.00238 ) 0 
( -3.63954 2.92974 0.499568 ) 0 
( -4.87474 0.659689 1.32493 ) 0 
( -4.46763 4.3381 1.32871 ) 0 
( -3.33091 1.03187 0.8587 ) 0 
( -1.60585 4.19158 1.244 ) 0 
( -2.19596 3.13485 0.906989 ) 0 
( -1.3881 3.24727 1.49008 ) 0 
( -0.53628 2.77695 1.25655 ) 0 
( -0.575906 0.221222 1.75094 ) 0 
( -2.14359 1.73695 1.32126 ) 0 
( -4.27403 2.8411 1.26691 ) 0 
( -0.728596 4.81652 1.31576 ) 0 
( -3.00161 2.624 1.2059 ) 0 
( -2.19031 0.643967 1.27028 ) 0 
( -0.00919643 3.49456 1.71142 ) 0 
( -0.878047 1.60824 1.30921 ) 0 
( -2.69384 4.40101 1.34651 ) 0 
( -3.62284 1.78344 1.45305 ) 0 
( -4.83914 3.51277 1.75335 ) 0 
( -3.90309 0.454354 1.44056 ) 0 
( -4.27616 1.71282 2.3394 ) 0 
( -3.588 4.4441 1.79209 ) 0 
( -0.84531 3.10152 2.31706 ) 0 
( -2.49657 2.36596 2.02917 ) 0 
( -2.61405 3.48711 1.74388 ) 0 
( -1.55999 1.13767 1.86869 ) 0 
( -2.86882 1.19868 1.75114 ) 0 
( -0.542182 2.17943 2.05799 ) 0 
( -1.51583 2.31877 1.83792 ) 0 
( -0.856241 3.99986 1.87827 ) 0 
( -4.4225 0.0996112 2.21782 ) 0 
( -2.04695 0.0533926 2.06439 ) 0 
( -4.66984 2.61347 2.15635 ) 0 
( -3.55532 3.52134 1.40875 ) 0 
( -0.497103 1.18326 2.12988 ) 0 
( -2.23837 4.28629 2.22914 ) 0 
( -1.25115 1.73697 2.60682 ) 0 
( -3.61964 2.62599 1.99145 ) 0 
( -0.619161 2.43039 3.02278 ) 0 
( -2.77408 0.60109 2.54711 ) 0 
( -4.00362 3.49499 2.30213 ) 0 
( -2.25878 1.5064 2.48099 ) 0 
( -3.70098 0.895329 2.31467 ) 0 
( -1.50631 4.90431 1.93794 ) 0 
( -4.92232 0.950785 2.37729 ) 0 
( -1.13383 0.529374 2.53752 ) 0 
( -0.403478 4.53267 2.64401 ) 0 
( -4.43837 4.23674 2.81197 ) 0 
( -4.86645 3.33317 2.82195 ) 0 
( -1.87955 1.70802 3.38377 ) 0 
( -4.31892 1.13634 3.15517 ) 0 
( -1.94262 0.755028 3.08044 ) 0 
( -2.44833 3.19628 2.68578 ) 0 
( -1.61325 2.65364 2.77486 ) 0 
( -3.12718 3.9273 2.51354 ) 0 
( -3.28469 1.79602 2.43675 ) 0 
( -1.37444 4.31111 2.73172 ) 0 
( -3.51446 0.546359 3.23284 ) 0 
( -0.21786 3.47745 3.13822 ) 0 
( -3.91657 2.73028 2.94029 ) 0 
( -2.62541 0.0968554 3.39773 ) 0 
( -0.834732 0.312137 3.46636 ) 0 
( -3.86032 4.54775 3.56595 ) 0 
( -1.26248 2.78304 3.70202 ) 0 
( -2.89539 1.33159 3.23178 ) 0 
( -4.47706 0.150904 3.21476 ) 0 
( -2.62138 2.26878 3.01643 ) 0 
( -3.50244 4.87317 2.69106 ) 0 
( -1.75361 3.57758 3.29526 ) 0 
( -2.58107 4.73532 3.05421 ) 0 
( -3.18428 3.26711 3.35877 ) 0 
( -0.690666 1.30407 3.31243 ) 0 
( -0.713552 2.01014 4.02 ) 0 
( -0.869376 4.66505 3.51859 ) 0 
( -2.25927 2.8443 3.74928 ) 0 
( -4.13714 3.54822 3.47128 ) 0 
( -1.42872 0.98493 3.90663 ) 0 
( -2.613 3.99364 3.74023 ) 0 
( -4.38349 2.06443 3.52165 ) 0 
( -3.65188 1.29223 3.8845 ) 0 
( -4.65914 4.18121 4.04266 ) 0 
( -0.0427664 0.443113 4.06237 ) 0 
( -0.290892 2.95095 4.00204 ) 0 
( -0.912197 3.71228 3.81813 ) 0 
( -1.97403 1.98203 4.34047 ) 0 
( -2.41349 1.05701 4.06341 ) 0 
( -1.69424 4.31822 3.96443 ) 0 
( -0.197758 1.26779 4.60606 ) 0 
( -3.40409 2.22894 3.63722 ) 0 
( -4.74853 1.29438 4.04412 ) 0 
( -3.70791 3.89356 4.30638 ) 0 
( -4.88166 2.9069 3.72634 ) 0 
( -3.06252 4.66878 4.325 ) 0 
( -1.69472 3.39975 4.3597 ) 0 
( -3.95358 2.86545 4.17836 ) 0 
( -3.21077 0.53716 4.3695 ) 0 
( -0.296595 4.75742 4.33301 ) 0 
( -1.23371 1.46049 4.76405 ) 0 
( -2.92821 2.22301 4.51649 ) 0 
( -2.98374 3.20486 4.33618 ) 0 
( -4.10022 1.93278 4.5078 ) 0 
( -2.15377 0.570313 4.89712 ) 0 
( -2.41499 3.72751 4.97083 ) 0 
( -0.518009 2.01573 5.18737 ) 0 
( -0.661988 3.74164 4.78556 ) 0 
( -4.10409 0.864785 4.67612 ) 0 
( -1.00238 2.71966 4.66517 ) 0 
( -4.50852 3.48889 4.74808 ) 0 
( -2.12869 4.66879 4.79388 ) 0 
( -0.875543 0.533938 4.65022 ) 0 
( -2.19259 2.75335 4.93784 ) 0 
( -2.02747 1.37797 5.4726 ) 0 
( -2.96334 0.48659 5.47796 ) 0 
( -3.35168 3.95197 5.23874 ) 0 
( -3.5814 2.96575 5.10105 ) 0 
( -0.670108 2.92768 5.5848 ) 0 
( -4.70601 1.44595 5.22369 ) 0 
( -2.58108 4.43737 5.65497 ) 0 
( -1.4798 2.20912 5.37996 ) 0 
( -4.08341 4.7707 4.6089 ) 0 
( -1.38081 0.432669 5.51614 ) 0 
( -0.618477 4.60523 5.28739 ) 0 
( -2.86679 1.30933 4.91813 ) 0 
( -0.40151 0.616074 5.5997 ) 0 
( -4.50443 2.59163 5.18913 ) 0 
( -4.91726 0.137648 4.90108 ) 0 
( -2.46591 2.24043 5.75152 ) 0 
( -1.49025 3.58379 5.32271 ) 0 
( -4.05377 3.50825 5.79537 ) 0 
( -3.75287 0.266569 6.07705 ) 0 
( -4.74864 2.81064 6.13359 ) 0 
( -0.738407 2.1651 6.22771 ) 0 
( -4.42643 4.39335 5.46901 ) 0 
( -3.8087 1.13856 5.59111 ) 0 
( -3.39484 2.02324 5.37775 ) 0 
( -1.06467 1.35359 5.74346 ) 0 
( -2.78204 3.18868 5.72869 ) 0 
( -3.33437 4.95196 5.24578 ) 0 
( -2.90445 1.3647 5.9524 ) 0 
( -4.23721 1.97586 5.9302 ) 0 
( -0.0327457 2.88732 6.39697 ) 0 
( -1.0002 0.398009 6.44034 ) 0 
( -1.78217 2.92166 6.01272 ) 0 
( -1.91449 3.89993 6.17114 ) 0 
( -4.49233 4.80004 6.41026 ) 0 
( -0.399627 3.83969 5.89242 ) 0 
( -2.17746 0.733496 6.22221 ) 0 
( -3.62269 4.45102 6.06162 ) 0 
( -3.58274 1.66881 6.62102 ) 0 
( -4.64235 0.623744 5.78931 ) 0 
( -3.55276 2.68136 6.11364 ) 0 
( -0.918744 4.62004 6.24099 ) 0 
( -2.63254 1.97061 6.69983 ) 0 
( -0.439613 1.22277 6.51269 ) 0 
( -0.405964 0.534021 7.23653 ) 0 
( -2.00812 2.70603 6.96246 ) 0 
( -4.17137 2.44052 6.86117 ) 0 
( -2.88418 3.88955 6.43445 ) 0 
( -1.549 4.36838 6.97525 ) 0 
( -2.98588 0.893289 6.8303 ) 0 
( -0.575697 4.03834 6.97837 ) 0 
( -0.958011 3.25782 6.48366 ) 0 
( -4.48254 0.416402 6.75428 ) 0 
( -1.7083 1.88205 6.29683 ) 0 
( -3.85558 3.42788 6.77195 ) 0 
( -1.71313 0.630383 7.10164 ) 0 
( -0.0758437 2.0692 6.97019 ) 0 
( -4.69885 1.3779 6.58533 ) 0 
( -1.85572 1.69151 7.26725 ) 0 
( -4.68564 2.81869 7.63053 ) 0 
( -0.390856 3.11093 7.30329 ) 0 
( -1.07345 2.3987 7.14029 ) 0 
( -3.35433 2.2471 7.40411 ) 0 
( -3.8656 0.987493 7.29607 ) 0 
( -3.82988 4.39139 7.03795 ) 0 
( -4.47842 1.74724 7.51291 ) 0 
( -2.85464 4.57193 7.16462 ) 0 
( -0.202944 4.96638 7.04558 ) 0 
( -1.34647 3.47615 7.37882 ) 0 
( -0.90139 1.41447 7.37855 ) 0 
( -2.96179 2.98805 6.85963 ) 0 
( -1.8413 2.81401 7.94226 ) 0 
( -0.938367 4.71944 7.6849 ) 0 
( -4.68342 3.87551 7.10984 ) 0 
( -0.0721303 1.88005 7.95185 ) 0 
( -2.30106 3.73521 7.23196 ) 0 
( -4.81034 4.83596 7.35762 ) 0 
( -3.30628 0.585986 8.05811 ) 0 
( -4.52376 0.38921 7.7529 ) 0 
( -1.18749 2.06971 8.07757 ) 0 
( -3.16909 4.90806 8.05217 ) 0 
( -3.73778 3.12456 7.71726 ) 0 
( -2.46037 0.960073 7.67827 ) 0 
( -0.890375 3.02735 8.16538 ) 0 
( -1.13502 0.604969 7.91706 ) 0 
( -1.44379 0.312906 8.82203 ) 0 
( -4.07314 4.37152 8.00754 ) 0 
( -2.07451 2.68314 8.90568 ) 0 
( -3.15826 3.9259 7.86479 ) 0 
( -4.07557 2.37594 8.2875 ) 0 
( -1.98942 4.43927 7.87003 ) 0 
( -0.719843 1.29733 8.50712 ) 0 
( -2.487 1.90157 8.01367 ) 0 
( -3.99059 0.0152665 8.51159 ) 0 
( -2.39012 0.517831 8.57225 ) 0 
( -1.21141 3.96689 8.28398 ) 0 
( -0.0987055 4.50351 8.1829 ) 0 
( -2.83601 2.83815 8.04007 ) 0 
( -3.52531 1.56011 8.11008 ) 0 
( -1.75658 1.28156 8.31162 ) 0 
( -3.43401 4.25557 8.76769 ) 0 
( -0.488447 2.32031 8.74713 ) 0 
( -4.32067 3.32047 8.50571 ) 0 
( -3.07257 1.16603 8.90981 ) 0 
( -2.33902 3.64315 8.3635 ) 0 
( -1.30754 2.21012 9.33911 ) 0 
( -1.52974 4.83327 8.82931 ) 0 
( -2.22317 0.0128284 9.41897 ) 0 
( -4.71983 2.30237 9.06041 ) 0 
( -4.87377 0.395344 8.7863 ) 0 
( -4.90184 4.67799 8.4756 ) 0 
( -3.07244 2.19582 8.76896 ) 0 
( -0.345888 3.67877 8.69345 ) 0 
( -1.07728 3.16217 9.13836 ) 0 
( -0.358736 0.423637 8.83285 ) 0 
( -4.43086 1.1913 8.3427 ) 0 
( -3.04496 2.4885 9.72468 ) 0 
( -3.10836 0.503229 9.73654 ) 0 
( -1.74772 3.9038 9.12645 ) 0 
( -2.4941 4.59323 8.7193 ) 0 
( -4.39165 4.10295 9.12413 ) 0 
( -3.91224 1.71425 9.01904 ) 0 
( -2.24979 1.71206 9.06739 ) 0 
( -0.513175 1.62707 9.50889 ) 0 
( -2.30562 3.16116 9.75295 ) 0 
( -3.92406 0.73202 9.20549 ) 0 
( -0.826486 4.08763 9.46916 ) 0 
( -2.97452 3.16975 8.97319 ) 0 
( -1.39254 1.21854 9.24275 ) 0 
( -1.99996 1.94044 10.0083 ) 0 
( -3.58646 3.68407 9.57388 ) 0 
( -2.8741 1.94801 10.5484 ) 0 
( -3.86148 2.78626 9.23019 ) 0 
( -0.532415 0.873451 10.1658 ) 0 
( -0.465268 2.60955 9.70388 ) 0 
( -4.80124 1.32632 9.26167 ) 0 
( -1.39131 0.39972 9.81672 ) 0 
( -4.0785 0.223944 10.0527 ) 0 
( -2.66542 4.07302 9.55582 ) 0 
( -1.61795 4.15757 10.0848 ) 0 
( -2.22485 0.971416 9.73873 ) 0 
( -1.51858 1.16575 10.4466 ) 0 
( -4.26744 4.97694 9.59372 ) 0 
( -1.38392 2.92445 10.0599 ) 0 
( -3.3615 1.4707 9.81732 ) 0 
( -3.09323 3.29831 10.3535 ) 0 
( -2.43716 4.68984 10.309 ) 0 
( -4.06293 3.09192 10.2237 ) 0 
( -4.08321 1.31976 10.4928 ) 0 
( -0.970621 4.18877 10.8463 ) 0 
( -1.14729 0.173452 10.7596 ) 0 
( -2.20189 3.60924 10.6833 ) 0 
( -0.365943 3.50321 10.1412 ) 0 
( -1.0236 2.01977 10.2871 ) 0 
( -4.87233 0.827651 10.1254 ) 0 
( -0.086121 4.41578 10.439 ) 0 
( -4.18875 2.1131 9.89325 ) 0 
( -3.41201 4.53547 10.0684 ) 0 
( -2.14977 2.61197 10.7339 ) 0 
( -4.75133 3.19691 9.50611 ) 0 
( -2.83679 3.15699 11.3096 ) 0 
( -4.97094 2.77861 10.5014 ) 0 
( -3.83808 3.22262 11.1892 ) 0 
( -0.14584 2.57949 10.6509 ) 0 
( -2.78267 0.952425 10.5684 ) 0 
( -4.28787 4.06512 10.1761 ) 0 
( -4.38921 0.377387 10.9907 ) 0 
( -3.5233 1.65518 11.2503 ) 0 
( -2.07951 1.68171 11.0939 ) 0 
( -1.89533 4.45681 11.1165 ) 0 
( -4.156 2.33034 10.8687 ) 0 
( -3.02548 4.13391 10.8986 ) 0 
( -0.926826 3.1917 10.9082 ) 0 
( -1.3134 2.31597 11.1972 ) 0 
( -0.789502 1.03549 11.1185 ) 0 
( -4.38539 4.06295 11.1712 ) 0 
( -3.5022 0.66091 11.3549 ) 0 
( -3.4444 2.50769 11.767 ) 0 
( -3.44841 3.92813 11.7811 ) 0 
( -4.99122 1.16175 11.1398 ) 0 
( -4.60275 4.94367 10.5352 ) 0 
( -2.00654 0.570518 11.0849 ) 0 
( -0.128473 3.09724 11.5062 ) 0 
( -2.89413 4.75335 11.6728 ) 0 
( -1.65626 3.50727 11.515 ) 0 
( -0.476133 4.99198 11.5245 ) 0 
( -0.0723541 4.08808 11.3836 ) 0 
( -0.230137 0.207489 11.1566 ) 0 
( -4.46416 2.58521 11.7853 ) 0 
( -4.59237 0.681953 11.9212 ) 0 
( -3.94222 4.79302 11.6914 ) 0 
( -4.24846 1.62078 11.938 ) 0 
( -2.48305 3.78916 12.0018 ) 0 
( -4.33987 3.54755 12.0269 ) 0 
( -1.11534 2.63634 12.1235 ) 0 
( -1.37368 1.50564 11.78 ) 0 
( -1.12015 4.29053 11.8298 ) 0 
( -0.150563 2.38833 12.2111 ) 0 
( -0.21624 1.31803 12.132 ) 0 
( -0.266564 4.25812 12.3497 ) 0 
( -0.843934 0.431514 11.9136 ) 0 
( -2.69181 1.14935 11.6783 ) 0 
( -0.407132 1.92678 11.3619 ) 0 
( -2.00385 4.6591 12.1182 ) 0 
( -1.16768 4.86536 12.6467 ) 0 
( -1.01335 1.48384 12.7126 ) 0 
( -2.09553 2.63546 11.7321 ) 0 
( -4.94911 2.97018 12.5705 ) 0 
( -1.63333 0.747443 12.4399 ) 0 
( -3.51168 3.21077 12.4749 ) 0 
( -2.20018 1.79458 12.2631 ) 0 
( -3.40975 4.60456 12.5165 ) 0 
( -0.963706 3.5548 12.4887 ) 0 
)
