FoamFile
{version 2.0; format ascii;class Cloud<passiveParticle>; location 0;object  positions;}
41
(
( 243.393 142.862 99.9233 ) 0 
( 294.285 336.208 99.929 ) 0 
( 101.778 390.385 99.8602 ) 0 
( 436.396 194.895 99.788 ) 0 
( 50.9238 197.081 99.8396 ) 0 
( 373.669 26.8355 197.55 ) 0 
( 230.805 482.715 221.408 ) 0 
( 171.366 268.776 242.498 ) 0 
( 359.804 215.693 283.19 ) 0 
( 63.404 103.862 276.135 ) 0 
( 404.385 483.87 320.605 ) 0 
( 43.6549 471.509 290.929 ) 0 
( 425.843 55.3556 388.421 ) 0 
( 206.451 397.084 400.279 ) 0 
( 234.204 111.574 398.74 ) 0 
( 83.2879 240.93 420.278 ) 0 
( 388.68 328.651 445.568 ) 0 
( 132.52 98.8505 570.373 ) 0 
( 28.3564 427.403 485.817 ) 0 
( 329.864 51.5484 563.725 ) 0 
( 228.176 273.783 556.116 ) 0 
( 413.086 225.833 615.152 ) 0 
( 13.6358 260.745 606.597 ) 0 
( 255.744 156.328 717.007 ) 0 
( 136.427 422.105 653.942 ) 0 
( 335.229 403.3 664.41 ) 0 
( 496.806 334.075 760.837 ) 0 
( 251.187 10.1731 853.371 ) 0 
( 60.8768 139.206 758.129 ) 0 
( 401.933 182.785 850.841 ) 0 
( 183.599 314.516 815.764 ) 0 
( 147.843 159.522 936.985 ) 0 
( 349.392 438.24 860.788 ) 0 
( 293.267 289.246 981.673 ) 0 
( 64.4636 431.791 925.48 ) 0 
( 197.112 2.45497 1050.51 ) 0 
( 410.813 448.579 1052.06 ) 0 
( 347.809 128.611 1087.52 ) 0 
( 78.4053 292.964 1068.72 ) 0 
( 246.977 307.35 1175.36 ) 0 
( 211.623 465.39 1056.59 ) 0 
)
