FoamFile
{version 2.0; format ascii;class vectorField; location 0;object  v;}
41
(
( 2.55121e-05 -2.10073e-05 2.66105e-05 )  
( 5.6304e-05 -2.39369e-05 4.53159e-05 )  
( 2.61146e-05 5.36725e-06 -1.55014e-05 )  
( 5.30404e-05 2.53539e-06 7.71113e-05 )  
( 5.12982e-05 -8.91338e-06 5.85214e-05 )  
( 6.49936e-05 3.26322e-05 0.0001176 )  
( -4.09826e-05 -5.6355e-05 8.04612e-05 )  
( 5.41528e-05 4.75482e-05 7.4451e-05 )  
( 6.0168e-05 4.24785e-06 0.000158411 )  
( 9.61663e-05 -9.41818e-06 0.000110439 )  
( 1.34403e-05 -1.86109e-05 8.73811e-05 )  
( -5.29179e-05 -1.81574e-05 -0.000137507 )  
( 3.2934e-05 6.41888e-05 0.000191309 )  
( -1.89386e-05 -4.18892e-05 0.000221443 )  
( 2.69616e-05 -2.17199e-05 0.000218827 )  
( -4.80141e-06 -8.35323e-05 0.000280502 )  
( 4.30661e-05 1.01713e-05 0.000245929 )  
( -3.74047e-05 -2.02018e-05 0.000322996 )  
( -1.13449e-05 -6.80487e-06 0.000389829 )  
( -1.43465e-06 -5.67871e-05 0.000310616 )  
( 2.75461e-05 3.70891e-06 0.000377803 )  
( -2.90485e-05 2.56209e-06 0.000462143 )  
( -4.6629e-05 -0.000132452 0.00040688 )  
( -6.03805e-05 -8.2398e-05 0.000511089 )  
( -6.93231e-06 3.16404e-06 0.000481615 )  
( 1.74959e-05 -5.27992e-05 0.000540529 )  
( -8.08034e-05 4.40631e-05 0.000625682 )  
( -7.86374e-05 -3.19088e-05 0.000665278 )  
( -0.000135152 -7.38821e-05 0.000564151 )  
( -0.000156831 1.17015e-05 0.000652891 )  
( -2.4731e-05 -2.53474e-06 0.00063917 )  
( -7.26762e-05 4.40797e-05 0.000627478 )  
( -2.86678e-05 9.55558e-05 0.000650373 )  
( -4.58634e-05 -3.08015e-05 0.000589712 )  
( -3.11811e-05 6.35314e-05 0.000788723 )  
( -6.14367e-05 -2.80413e-05 0.000618582 )  
( 2.22025e-05 2.0287e-05 0.000698247 )  
( -5.79491e-05 3.01194e-05 0.000628495 )  
( -2.2891e-05 -3.42166e-05 0.000802142 )  
( 0.00015695 0.000361094 0.000620679 )  
( 7.53773e-05 2.65482e-05 0.000747017 )  
)
