FoamFile
{version 2.0; format ascii;class vectorField; location 0;object  v;}
42
(
( 8.02371e-06 -1.62275e-05 3.15816e-05 )  
( -3.99051e-07 -9.81943e-07 5.47656e-05 )  
( 1.48855e-05 1.78103e-05 5.34801e-05 )  
( -4.41123e-07 4.22497e-05 7.32263e-05 )  
( 4.70305e-06 -2.31452e-06 4.81103e-05 )  
( -2.06082e-05 1.53713e-05 4.58859e-05 )  
( -6.26545e-06 -5.87684e-07 0.000102941 )  
( 2.66751e-06 3.51669e-06 0.000118262 )  
( -3.90127e-06 -4.88664e-06 9.41985e-05 )  
( 6.9012e-07 -3.51005e-06 0.000131866 )  
( -7.77851e-06 -3.6566e-06 0.000109795 )  
( -1.12806e-06 -1.49846e-05 7.53946e-05 )  
( -5.96577e-06 -1.66669e-05 0.000156075 )  
( 1.07364e-05 -3.43743e-05 0.000139583 )  
( -2.21673e-05 -1.36754e-05 0.000154375 )  
( 2.31262e-05 -3.84682e-05 0.000186729 )  
( 6.00247e-06 -2.97828e-05 0.000205404 )  
( -1.10057e-05 -3.98663e-05 0.000170201 )  
( -2.2671e-05 -2.13509e-05 0.000227216 )  
( 4.67276e-05 -1.884e-05 0.000225762 )  
( 2.62662e-05 -6.93217e-05 0.000195899 )  
( 7.62613e-06 -4.40049e-05 0.000223446 )  
( 6.79146e-05 -1.19381e-05 0.000206135 )  
( -1.41202e-05 -2.37385e-05 0.000247362 )  
( 5.64035e-06 -5.53385e-05 0.000208686 )  
( 3.77042e-05 4.01806e-06 0.000228991 )  
( 1.94221e-05 -3.95086e-06 0.000225976 )  
( -4.97114e-06 -1.24798e-05 0.000223898 )  
( -1.98218e-05 -3.01952e-05 0.000237227 )  
( -9.16214e-06 -1.06955e-05 0.000234745 )  
( 6.6653e-05 3.62641e-05 0.000219288 )  
( 1.06072e-05 4.98313e-05 0.00027091 )  
( -4.78217e-06 2.76382e-05 0.000210749 )  
( -5.48001e-06 6.17375e-06 0.000172938 )  
( -3.48832e-05 2.08737e-05 0.000172823 )  
( -7.41438e-06 -2.4842e-05 8.64629e-05 )  
( -1.13301e-05 7.0321e-05 0.000123725 )  
( -1.32798e-05 -4.33554e-06 8.55646e-05 )  
( 2.61177e-05 2.26981e-05 -0.000120246 )  
( 6.55773e-05 -3.06047e-05 0.000123173 )  
( 6.21069e-06 -5.56467e-06 -2.56114e-05 )  
( 1.55824e-05 -1.72731e-05 -3.97534e-05 )  
)
