FoamFile
{version 2.0; format ascii;class Cloud<passiveParticle>; location 0;object  positions;}
350
(
( -1605.6 -4279.6 498.574 ) 0 
( -364.51 -4453.32 496.098 ) 0 
( -3769.54 -4064.08 498.704 ) 0 
( -2389.91 -1176.52 497.293 ) 0 
( -409.315 -2672.22 499.669 ) 0 
( -1408.44 -2713.33 497.562 ) 0 
( -1529.34 -559.494 496.746 ) 0 
( -4686.19 -1117.75 498.427 ) 0 
( -4619.28 -2192.83 499.22 ) 0 
( -3385.25 -191.816 496.684 ) 0 
( -3313.46 -4954.74 498.635 ) 0 
( -1533.07 -1705.54 499.622 ) 0 
( -4402.32 -159.21 497.814 ) 0 
( -2394.3 -57.689 499.693 ) 0 
( -3624.95 -2287.11 498.854 ) 0 
( -1301.72 -64.3475 1332.95 ) 0 
( -4336.82 -4886.74 498.54 ) 0 
( -2628.24 -2356.55 499.089 ) 0 
( -888.275 -3567.25 498.573 ) 0 
( -2213.22 -3306.55 498.231 ) 0 
( -2653.82 -4203.74 499.633 ) 0 
( -3388.8 -1194.75 497.95 ) 0 
( -4064.02 -1617.48 1098.95 ) 0 
( -4206.54 -3159.71 498.529 ) 0 
( -1531.09 -4894.6 1281.83 ) 0 
( -506.607 -1608.57 498.014 ) 0 
( -4774.98 -3981.19 498.3 ) 0 
( -661.876 -736.44 960.281 ) 0 
( -3907.28 -638.714 1219.34 ) 0 
( -3210.14 -3236.17 497.513 ) 0 
( -3156.63 -2649.78 1302.72 ) 0 
( -1233.08 -2949.8 1732.45 ) 0 
( -1741.38 -3688.73 1292.52 ) 0 
( -1772.79 -1126.8 1279.03 ) 0 
( -4741.41 -3405.22 1314.47 ) 0 
( -3289.83 -4381.23 1315.46 ) 0 
( -2883.51 -1693.48 1202 ) 0 
( -2897.84 -694.234 1208.67 ) 0 
( -349.272 -3281.21 1290.45 ) 0 
( -4699.88 -1798.46 1847.26 ) 0 
( -969.882 -2151.7 1194.88 ) 0 
( -4910.41 -529.89 1273.77 ) 0 
( -2072.72 -2679.19 1263.89 ) 0 
( -4296.29 -4305.54 1312.39 ) 0 
( -4167.17 -2586.32 1314.69 ) 0 
( -5.68436 -2345.55 1365.56 ) 0 
( -3420.87 -1146.85 1927.43 ) 0 
( -2339.91 -4419.41 1620.57 ) 0 
( -906.058 -1315.91 1735.97 ) 0 
( -2731.5 -3553.36 1314.6 ) 0 
( -851.807 -4147.26 1310.4 ) 0 
( -4373.4 -865.601 2072.04 ) 0 
( -3591.39 -169.593 2041.34 ) 0 
( -1690.92 -1939.56 1851.36 ) 0 
( -586.922 -375.258 1954.54 ) 0 
( -3728.64 -3483.61 1315.22 ) 0 
( -2241.54 -99.6934 1667.63 ) 0 
( -2298.31 -3216.38 2147.72 ) 0 
( -2735.64 -460.219 2470 ) 0 
( -2270 -4497.49 2635.92 ) 0 
( -120.655 -1172.34 2333.5 ) 0 
( -4277.34 -3737.69 2134.65 ) 0 
( -1631.93 -2613.75 2583.23 ) 0 
( -3824.84 -4628.14 2131.14 ) 0 
( -4822.7 -4577.16 2127.09 ) 0 
( -1535.27 -642.663 2119.04 ) 0 
( -627.116 -2190.15 2133.18 ) 0 
( -2611.49 -2272.97 2048.64 ) 0 
( -261.319 -4566.33 2170.52 ) 0 
( -2436.1 -1291.39 2005.16 ) 0 
( -1463.89 -4295.87 2083.38 ) 0 
( -670.211 -3654.86 2159.77 ) 0 
( -3037.26 -4018.42 2211.09 ) 0 
( -1006.73 -203.394 2843.34 ) 0 
( -3051 -1657.46 2702.22 ) 0 
( -4336.2 -28.5664 2690.67 ) 0 
( -3611.49 -2121.8 2017.05 ) 0 
( -708.622 -2910.19 2824.91 ) 0 
( -1594.94 -3592.26 2777.66 ) 0 
( -1045.62 -1269.75 2724.72 ) 0 
( -1951.89 -1688.14 2783.51 ) 0 
( -3395.37 -3086.11 2169.68 ) 0 
( -3703.33 -789.785 2814.94 ) 0 
( -1926.86 -705.656 3034.72 ) 0 
( -164.388 -1900.29 3015.87 ) 0 
( -2569.44 -3623.39 3017.22 ) 0 
( -2548.49 -2626.11 2980.44 ) 0 
( -1109.37 -2108.28 3267.01 ) 0 
( -165.692 -630.885 3171.45 ) 0 
( -4480.26 -968.37 3416.19 ) 0 
( -4337.28 -2751.92 2283.95 ) 0 
( -1579.48 -4909.67 3228.93 ) 0 
( -4185.5 -1655.95 2690.65 ) 0 
( -873.089 -4283.98 2907.11 ) 0 
( -1239.82 -507.718 3765.88 ) 0 
( -2851.69 -886.165 3365.85 ) 0 
( -3034.28 -4467.84 3277.6 ) 0 
( -2153.01 -4234.76 3686.29 ) 0 
( -2343.14 -90.7712 3702.47 ) 0 
( -701.571 -4920.09 3703.78 ) 0 
( -664.24 -1321.73 3691.71 ) 0 
( -3560.12 -2481.76 2948.58 ) 0 
( -2571.46 -1821.73 3571.54 ) 0 
( -3645 -415.488 3746.9 ) 0 
( -4459.31 -3242.24 3143.69 ) 0 
( -3137.69 -3066.25 3656.47 ) 0 
( -267.433 -3696.11 3440.61 ) 0 
( -4309.93 -4323.6 2948.22 ) 0 
( -3626.41 -1505.52 3504.02 ) 0 
( -3566.99 -3656.26 2974.88 ) 0 
( -803.52 -2882.72 3818 ) 0 
( -1753.37 -2941.44 3517.24 ) 0 
( -1671.95 -1406.09 3700.05 ) 0 
( -3963.38 -3996.78 3827.14 ) 0 
( -4921.95 -4390.24 3733.6 ) 0 
( -4579.83 -107.528 3913.01 ) 0 
( -1232.3 -3776.32 3689.37 ) 0 
( -3000.25 -3938.74 4123.42 ) 0 
( -124.44 -2062.4 4090.71 ) 0 
( -3030.11 -1274.78 4270.92 ) 0 
( -4397.56 -2269.12 3451.46 ) 0 
( -1482.95 -2255.39 4192.23 ) 0 
( -1159.45 -1383.93 4557.19 ) 0 
( -157.934 -4279.76 4243.62 ) 0 
( -51.3867 -3290.61 4329.4 ) 0 
( -3587.96 -4659.43 4485.76 ) 0 
( -2995.79 -307.953 4520.18 ) 0 
( -2419.04 -2601.36 4176.83 ) 0 
( -1161.01 -4428.54 4441.45 ) 0 
( -4783.21 -3457.93 4061.41 ) 0 
( -3030.87 -3153.71 4738.16 ) 0 
( -684.536 -125.654 4520.91 ) 0 
( -187.86 -1145.88 4552.3 ) 0 
( -3914.61 -3018.16 4283.5 ) 0 
( -3337.64 -2216.17 4139.9 ) 0 
( -2309.09 -4430.51 4652.6 ) 0 
( -2068.74 -780.028 4370 ) 0 
( -1979.5 -3485.87 4322.92 ) 0 
( -3107.3 -4068.71 5131.74 ) 0 
( -3979.43 -366.491 4686.97 ) 0 
( -4217.6 -1358.98 4295.44 ) 0 
( -1008.42 -3456.57 4609.26 ) 0 
( -3103.67 -2229.58 5110.4 ) 0 
( -1700.27 -3862.38 5203.33 ) 0 
( -38.3697 -358.211 5245.13 ) 0 
( -2647.93 -1003.81 5152.72 ) 0 
( -3616.13 -1247.61 5084.4 ) 0 
( -4204.33 -3833.3 4783.62 ) 0 
( -1393.82 -561.005 5072.05 ) 0 
( -4575.32 -4767.78 4590.6 ) 0 
( -4060.22 -2189.99 4826.07 ) 0 
( -1847.38 -2746.79 4982.95 ) 0 
( -705.494 -2518.36 4762.23 ) 0 
( -2215.99 -1733.67 4625.93 ) 0 
( -1809.9 -42.2157 5816.8 ) 0 
( -1833.72 -1204.51 5696.19 ) 0 
( -1314.88 -1981.53 5343.28 ) 0 
( -3932.29 -4555.14 5417.94 ) 0 
( -2468.43 -3322.9 5546.72 ) 0 
( -785.609 -4239.14 5348.35 ) 0 
( -4601.53 -999.724 5144.12 ) 0 
( -4681.79 -2964.72 4922.49 ) 0 
( -1401.79 -3117.56 5796.52 ) 0 
( -42.9383 -1964.95 5264.5 ) 0 
( -4969.24 -4414.61 5437.61 ) 0 
( -395.655 -3319.3 5386.58 ) 0 
( -4996.75 -2006.25 5116.59 ) 0 
( -682.078 -1212.35 5417.73 ) 0 
( -862.957 -352.381 5891.06 ) 0 
( -3347.9 -362.033 5461.83 ) 0 
( -4091.41 -787.252 5977.02 ) 0 
( -4338.72 -3714.01 5770.48 ) 0 
( -2262.43 -2105.24 5633.76 ) 0 
( -636.23 -2482.9 5878.37 ) 0 
( -2083.64 -4693.33 5600.85 ) 0 
( -3787.97 -2985.91 5364.94 ) 0 
( -4231.35 -1740.4 5700.92 ) 0 
( -3051.27 -4778.76 5833.09 ) 0 
( -4905.52 -257.13 5739.72 ) 0 
( -3367.91 -3638.57 5994.48 ) 0 
( -4958.84 -2593.43 5923.71 ) 0 
( -1591.5 -708.273 6529.29 ) 0 
( -4941.48 -3405.5 6505.24 ) 0 
( -2486.84 -4040.99 6242.09 ) 0 
( -1090.6 -1567.21 6258.13 ) 0 
( -829.892 -3361.12 6578.51 ) 0 
( -3104.58 -2656.19 6013.92 ) 0 
( -3286.53 -90.7751 6493.94 ) 0 
( -2172.97 -2800.27 6345.85 ) 0 
( -4093.66 -2910.8 6311.68 ) 0 
( -2323.42 -1507.68 6512.26 ) 0 
( -4798.54 -4391.47 6420.98 ) 0 
( -1425.72 -4111.11 6129.57 ) 0 
( -4.89471 -1899.44 6385.56 ) 0 
( -300.484 -849.857 6549.3 ) 0 
( -3800.71 -4443.32 6402.46 ) 0 
( -3076.43 -1570.33 5860 ) 0 
( -531.394 -4313.29 6524.53 ) 0 
( -2564.87 -641.057 6078.8 ) 0 
( -556.558 -1597.01 7161.04 ) 0 
( -3702.71 -2012.04 6502.25 ) 0 
( -349.39 -2566.22 7044.02 ) 0 
( -2890.28 -4754.73 6819.21 ) 0 
( -1278.08 -2469.86 6644.71 ) 0 
( -4512.82 -1436.55 6609.5 ) 0 
( -3412.01 -1068.58 6656 ) 0 
( -3338.88 -439.705 7430.44 ) 0 
( -2922.54 -3271.01 6808.96 ) 0 
( -3666.87 -2729.34 7197.01 ) 0 
( -4091.99 -3668.21 6961.8 ) 0 
( -2421.79 -396.791 7036.47 ) 0 
( -1777.77 -3548.97 6877.42 ) 0 
( -2825.77 -2280.37 6895.82 ) 0 
( -4211.12 -549.656 6956.74 ) 0 
( -4716.89 -1310.33 7579.26 ) 0 
( -4487.67 -4492.11 7364.18 ) 0 
( -2562.28 -4000.37 7388.73 ) 0 
( -2002.65 -2653.08 7319.43 ) 0 
( -1819.27 -790.56 7728.56 ) 0 
( -2776.3 -1323.36 7384.12 ) 0 
( -446.574 -3450.08 7496.88 ) 0 
( -4593.18 -2361.64 6979.15 ) 0 
( -2825.61 -3123.29 7792.38 ) 0 
( -3777.77 -1609.03 7413.34 ) 0 
( -1873.94 -4543.74 6909.45 ) 0 
( -329.284 -4442.69 7502.79 ) 0 
( -4949.48 -339.069 7595.69 ) 0 
( -1553.44 -1556.16 7144.89 ) 0 
( -3510.65 -4308.36 7461.54 ) 0 
( -2116.28 -1854.45 7914.98 ) 0 
( -944.839 -601.128 7283.71 ) 0 
( -3962.05 -886.029 8078.41 ) 0 
( -1299.82 -4292.26 7688.02 ) 0 
( -4712.51 -3172.6 7567.93 ) 0 
( -3067.71 -2155.34 7856.01 ) 0 
( -1116.67 -2312.12 7630.78 ) 0 
( -2151.51 -4794.52 7835.14 ) 0 
( -3779.65 -3444.63 7885.54 ) 0 
( -1059 -1384.41 7998.55 ) 0 
( -170.139 -946.583 7811.49 ) 0 
( -1393.78 -3300.9 7772.92 ) 0 
( -306.823 -149.738 8396.84 ) 0 
( -3018.62 -4134.31 8312.92 ) 0 
( -2053.67 -3885.74 8241.3 ) 0 
( -1971.03 -1177.78 8636.37 ) 0 
( -323.535 -2677.18 8118.38 ) 0 
( -4831.46 -3972.1 8156.71 ) 0 
( -4251.42 -2358.59 7917.36 ) 0 
( -653.769 -3913.53 8356.57 ) 0 
( -2714.23 -702.475 8165.38 ) 0 
( -353.679 -1793.66 8585.17 ) 0 
( -2047.39 -2769.65 8311.24 ) 0 
( -4927.72 -4912.44 8480.45 ) 0 
( -3547.51 -2713.42 8531.09 ) 0 
( -1577.46 -185.546 9358.41 ) 0 
( -4707.71 -231.508 8563.17 ) 0 
( -2144.3 -2110.76 9075.09 ) 0 
( -1225.71 -529.5 8488.77 ) 0 
( -2882.01 -1584.81 8653.95 ) 0 
( -2353.34 -4527.11 8945.97 ) 0 
( -3471.28 -309.103 8730.46 ) 0 
( -4449.04 -3143.23 8563.1 ) 0 
( -4857.39 -1773.3 8453.95 ) 0 
( -1263.15 -2207.8 8613.7 ) 0 
( -3866.8 -1739.07 8598.93 ) 0 
( -195.931 -890.255 9064.04 ) 0 
( -3217.3 -4178.03 9306.29 ) 0 
( -461.156 -3738.72 9321.68 ) 0 
( -4286.52 -2404.08 9215.99 ) 0 
( -2725.48 -769.717 9210.5 ) 0 
( -1409.64 -4200.43 8942.21 ) 0 
( -4651.64 -3824.15 9266.33 ) 0 
( -3772.55 -3348.82 9268.41 ) 0 
( -373.136 -4756.97 8813.03 ) 0 
( -1265.9 -3219.06 8760.03 ) 0 
( -2765.93 -3285.86 8776.64 ) 0 
( -3968.25 -4165.01 8621.77 ) 0 
( -3053.91 -2422.03 9349.67 ) 0 
( -4282.24 -970.745 9083.12 ) 0 
( -1090.28 -1335.4 9080.18 ) 0 
( -534.98 -2643.88 9141.52 ) 0 
( -2020.44 -2671.43 9892.99 ) 0 
( -841.563 -693.258 9804.53 ) 0 
( -479.336 -4811.33 9805.34 ) 0 
( -3754.29 -2685.06 10014.5 ) 0 
( -4157.2 -31.8916 9402.92 ) 0 
( -3428.08 -515.2 9901.08 ) 0 
( -1151.51 -3143.75 9749.46 ) 0 
( -2905.72 -3318.91 9765.7 ) 0 
( -2006.93 -3529.06 9379.72 ) 0 
( -3459.56 -1405.31 9448.55 ) 0 
( -2370.83 -370.679 10055.7 ) 0 
( -2220.57 -4355.93 9921.67 ) 0 
( -1900.79 -1144.71 9632.59 ) 0 
( -2652.46 -1725.51 9943.51 ) 0 
( -1865.64 -3536.08 10370.1 ) 0 
( -2854.57 -2578.05 10435.2 ) 0 
( -4181.79 -1782.13 10026.3 ) 0 
( -1208.74 -2131.53 9672.51 ) 0 
( -287.109 -1747.02 9581.42 ) 0 
( -1782.36 -1814.63 10427.2 ) 0 
( -4776.97 -4732.75 10364.9 ) 0 
( -4371.51 -801.65 10063.8 ) 0 
( -4082.46 -4559.2 9633.74 ) 0 
( -4611.12 -3198.68 10048 ) 0 
( -1200.18 -4128.01 9916.43 ) 0 
( -1530.13 -851.203 10512.8 ) 0 
( -1144.91 -2571.35 10568.3 ) 0 
( -146.72 -2534.24 10534.5 ) 0 
( -3057.89 -80.0327 10721.1 ) 0 
( -3170.44 -4713.94 10148.4 ) 0 
( -1415.8 -4964.29 10419.5 ) 0 
( -3681.5 -4406.71 10950.7 ) 0 
( -723.16 -586.439 11039.8 ) 0 
( -3406.47 -1335.42 10471.7 ) 0 
( -491.099 -3579.43 10359.7 ) 0 
( -3710.73 -3795.53 10160.2 ) 0 
( -2036.19 -2761.7 10978.6 ) 0 
( -185.785 -4517.83 10715 ) 0 
( -4979.24 -2275.43 10370.6 ) 0 
( -3726.12 -2189.35 10881.9 ) 0 
( -238.742 -1201.61 10418 ) 0 
( -1505.03 -1407.5 11342.8 ) 0 
( -2375.26 -4963.89 10700.2 ) 0 
( -4463.7 -2874.96 10982.3 ) 0 
( -4995.24 -4739.24 11340.3 ) 0 
( -3650.07 -708.437 11224.5 ) 0 
( -655.354 -1848.91 11055.3 ) 0 
( -1096.24 -4154.09 10910.3 ) 0 
( -3509.88 -3165.34 10909.3 ) 0 
( -2324.08 -815.222 11119.1 ) 0 
( -4322.49 -1388.6 10934.2 ) 0 
( -4506.02 -3866.63 10783.9 ) 0 
( -2808.88 -3888.5 10581.4 ) 0 
( -2632.47 -1750.33 10949.1 ) 0 
( -4180.69 -41.205 10683.4 ) 0 
( -3859.66 -1721.66 11755.3 ) 0 
( -2980.91 -1245.07 11738.3 ) 0 
( -2976.48 -2531.84 11468.9 ) 0 
( -991.704 -3238.21 11297.1 ) 0 
( -2110.96 -2103.38 11727.3 ) 0 
( -2269.13 -201.462 11906.3 ) 0 
( -737.363 -4917.34 11447.1 ) 0 
( -3965.99 -3711.96 11611 ) 0 
( -4828.38 -4018.76 12013.1 ) 0 
( -2057.07 -4150.01 11186 ) 0 
( -9.12893 -1176.64 11415.7 ) 0 
( -1352.24 -7.52872 11558 ) 0 
( -4989.24 -2015.98 11335.9 ) 0 
( -294.111 -2499.14 11723.2 ) 0 
)
