/*--------------------------------*- C++ -*----------------------------------*\
| =========                 |                                                 |
| \\      /  F ield         | OpenFOAM: The Open Source CFD Toolbox           |
|  \\    /   O peration     | Version:  5.x                                   |
|   \\  /    A nd           | Web:      www.OpenFOAM.org                      |
|    \\/     M anipulation  |                                                 |
\*---------------------------------------------------------------------------*/
FoamFile
{
    version     2.0;
    format      ascii;
    class       volScalarField;
    location    "0.03";
    object      p;
}
// * * * * * * * * * * * * * * * * * * * * * * * * * * * * * * * * * * * * * //

dimensions      [0 2 -2 0 0 0 0];

internalField   nonuniform List<scalar> 
2250
(
-4.37118e-10
-4.173e-10
-3.43648e-10
-2.21657e-10
-1.89619e-11
-4.88101e-10
-4.81093e-10
-4.25358e-10
-3.46167e-10
-2.36275e-10
-5.31997e-10
-5.29341e-10
-4.76162e-10
-4.06056e-10
-3.31781e-10
-5.54387e-10
-5.48222e-10
-4.94112e-10
-4.25595e-10
-3.59169e-10
-5.5614e-10
-5.44299e-10
-4.91977e-10
-4.26448e-10
-3.60753e-10
-1.32493e-09
-1.27478e-09
-1.09988e-09
-8.402e-10
-4.32215e-10
-1.45368e-09
-1.42201e-09
-1.26981e-09
-1.06643e-09
-7.97251e-10
-1.56144e-09
-1.53545e-09
-1.3905e-09
-1.20733e-09
-1.00724e-09
-1.60782e-09
-1.57184e-09
-1.42811e-09
-1.25079e-09
-1.07807e-09
-1.60108e-09
-1.55324e-09
-1.41875e-09
-1.25002e-09
-1.08929e-09
-2.18853e-09
-2.11935e-09
-1.92808e-09
-1.73521e-09
-1.55434e-09
-2.36114e-09
-2.29476e-09
-2.08168e-09
-1.82907e-09
-1.58627e-09
-2.49312e-09
-2.42798e-09
-2.21979e-09
-1.96402e-09
-1.705e-09
-2.53996e-09
-2.46634e-09
-2.26586e-09
-2.017e-09
-1.76936e-09
-2.51947e-09
-2.43986e-09
-2.25495e-09
-2.0172e-09
-1.78897e-09
-2.94619e-09
-2.85713e-09
-2.65021e-09
-2.51486e-09
-2.65412e-09
-3.13784e-09
-3.0461e-09
-2.79324e-09
-2.50657e-09
-2.36977e-09
-3.26552e-09
-3.17306e-09
-2.92542e-09
-2.61597e-09
-2.35219e-09
-3.31013e-09
-3.21778e-09
-2.98509e-09
-2.68641e-09
-2.39513e-09
-3.29321e-09
-3.20096e-09
-2.98363e-09
-2.70032e-09
-2.42532e-09
-3.59514e-09
-3.48035e-09
-3.18094e-09
-2.89397e-09
-2.93708e-09
-3.7784e-09
-3.66861e-09
-3.36695e-09
-3.00494e-09
-2.85228e-09
-3.89274e-09
-3.78584e-09
-3.50267e-09
-3.14107e-09
-2.86839e-09
-3.94098e-09
-3.84169e-09
-3.58063e-09
-3.24553e-09
-2.9482e-09
-3.93508e-09
-3.83306e-09
-3.58806e-09
-3.28379e-09
-3.01583e-09
-4.13591e-09
-3.98308e-09
-3.56644e-09
-3.0635e-09
-2.7475e-09
-4.27613e-09
-4.14154e-09
-3.79768e-09
-3.37737e-09
-3.08294e-09
-4.37923e-09
-4.25707e-09
-3.95021e-09
-3.57154e-09
-3.27124e-09
-4.43264e-09
-4.32079e-09
-4.0435e-09
-3.71283e-09
-3.45091e-09
-4.4288e-09
-4.30981e-09
-4.05735e-09
-3.77559e-09
-3.56808e-09
-4.47121e-09
-4.28097e-09
-3.85554e-09
-3.33605e-09
-2.83218e-09
-4.58881e-09
-4.43322e-09
-4.10431e-09
-3.71804e-09
-3.31365e-09
-4.70285e-09
-4.56812e-09
-4.2797e-09
-3.94929e-09
-3.63972e-09
-4.76661e-09
-4.64233e-09
-4.38794e-09
-4.11368e-09
-3.89376e-09
-4.76142e-09
-4.63462e-09
-4.41347e-09
-4.18531e-09
-4.01203e-09
-4.55067e-09
-4.37395e-09
-4.0783e-09
-3.72073e-09
-3.25386e-09
-4.74372e-09
-4.60184e-09
-4.35495e-09
-4.0705e-09
-3.69168e-09
-4.90289e-09
-4.77729e-09
-4.55639e-09
-4.31561e-09
-4.04187e-09
-4.99041e-09
-4.8745e-09
-4.68341e-09
-4.48018e-09
-4.26049e-09
-4.99797e-09
-4.88964e-09
-4.72599e-09
-4.53775e-09
-4.31291e-09
-4.5835e-09
-4.48173e-09
-4.33027e-09
-4.09679e-09
-3.71527e-09
-4.90611e-09
-4.81139e-09
-4.66296e-09
-4.47514e-09
-4.20099e-09
-5.11957e-09
-5.02717e-09
-4.89112e-09
-4.73268e-09
-4.51597e-09
-5.24058e-09
-5.15564e-09
-5.03621e-09
-4.87979e-09
-4.63355e-09
-5.27764e-09
-5.20444e-09
-5.09399e-09
-4.91825e-09
-4.62959e-09
-4.84767e-09
-4.80627e-09
-4.70816e-09
-4.48631e-09
-4.10329e-09
-5.24607e-09
-5.19028e-09
-5.10158e-09
-4.96194e-09
-4.72476e-09
-5.50306e-09
-5.44159e-09
-5.36327e-09
-5.24681e-09
-5.05131e-09
-5.65971e-09
-5.60158e-09
-5.52801e-09
-5.39418e-09
-5.15311e-09
-5.73045e-09
-5.67991e-09
-5.60134e-09
-5.44268e-09
-5.18508e-09
-5.36829e-09
-5.32454e-09
-5.21431e-09
-4.97077e-09
-4.48992e-09
-5.81018e-09
-5.75219e-09
-5.65817e-09
-5.4978e-09
-5.17597e-09
-6.12314e-09
-6.05564e-09
-5.97708e-09
-5.84707e-09
-5.60913e-09
-6.32135e-09
-6.25448e-09
-6.18578e-09
-6.05944e-09
-5.84977e-09
-6.42516e-09
-6.36438e-09
-6.29532e-09
-6.16791e-09
-5.99239e-09
-6.03893e-09
-5.95604e-09
-5.79873e-09
-5.5259e-09
-4.99078e-09
-6.58744e-09
-6.47677e-09
-6.30804e-09
-6.06019e-09
-5.64169e-09
-6.99795e-09
-6.87332e-09
-6.73546e-09
-6.53636e-09
-6.21131e-09
-7.26718e-09
-7.15251e-09
-7.04915e-09
-6.89121e-09
-6.64488e-09
-7.42503e-09
-7.33049e-09
-7.24236e-09
-7.10065e-09
-6.89206e-09
-6.86764e-09
-6.70066e-09
-6.4237e-09
-6.07414e-09
-5.64215e-09
-7.61356e-09
-7.40691e-09
-7.11684e-09
-6.74154e-09
-6.27336e-09
-8.19935e-09
-7.99308e-09
-7.75804e-09
-7.42966e-09
-6.96329e-09
-8.62315e-09
-8.45134e-09
-8.26807e-09
-7.98181e-09
-7.54448e-09
-8.89465e-09
-8.76369e-09
-8.59426e-09
-8.30652e-09
-7.86018e-09
-7.92685e-09
-7.61565e-09
-7.14738e-09
-6.62026e-09
-6.18718e-09
-9.01634e-09
-8.7063e-09
-8.26801e-09
-7.69566e-09
-7.05789e-09
-9.93702e-09
-9.66185e-09
-9.28026e-09
-8.71479e-09
-7.97849e-09
-1.06538e-08
-1.04264e-08
-1.00741e-08
-9.50725e-09
-8.71726e-09
-1.11081e-08
-1.09161e-08
-1.05492e-08
-9.94791e-09
-9.1088e-09
-9.35432e-09
-8.90053e-09
-8.19804e-09
-7.30801e-09
-6.38917e-09
-1.10489e-08
-1.06469e-08
-9.98387e-09
-9.04244e-09
-7.94358e-09
-1.25227e-08
-1.21641e-08
-1.15152e-08
-1.05398e-08
-9.34075e-09
-1.36611e-08
-1.33222e-08
-1.26549e-08
-1.1641e-08
-1.03581e-08
-1.43258e-08
-1.3986e-08
-1.32826e-08
-1.22256e-08
-1.0891e-08
-1.144e-08
-1.08577e-08
-9.8216e-09
-8.33368e-09
-6.54842e-09
-1.40151e-08
-1.3469e-08
-1.24156e-08
-1.08776e-08
-9.05463e-09
-1.623e-08
-1.56844e-08
-1.45926e-08
-1.30158e-08
-1.11387e-08
-1.78701e-08
-1.72996e-08
-1.61691e-08
-1.45571e-08
-1.26159e-08
-1.87545e-08
-1.81634e-08
-1.70105e-08
-1.53735e-08
-1.34003e-08
-1.44555e-08
-1.36498e-08
-1.2079e-08
-9.76196e-09
-6.98017e-09
-1.81495e-08
-1.73221e-08
-1.568e-08
-1.33336e-08
-1.05653e-08
-2.1285e-08
-2.04132e-08
-1.87237e-08
-1.63617e-08
-1.35637e-08
-2.35454e-08
-2.2643e-08
-2.09352e-08
-1.85617e-08
-1.57398e-08
-2.47316e-08
-2.38281e-08
-2.21212e-08
-1.97404e-08
-1.69056e-08
-1.85878e-08
-1.73888e-08
-1.50451e-08
-1.16871e-08
-7.73391e-09
-2.37419e-08
-2.24944e-08
-2.00915e-08
-1.67368e-08
-1.27733e-08
-2.81001e-08
-2.68146e-08
-2.43948e-08
-2.10433e-08
-1.70612e-08
-3.12373e-08
-2.99478e-08
-2.75285e-08
-2.41778e-08
-2.0204e-08
-3.28926e-08
-3.16166e-08
-2.92024e-08
-2.58464e-08
-2.1863e-08
-2.4242e-08
-2.25108e-08
-1.91889e-08
-1.46303e-08
-9.36924e-09
-3.13916e-08
-2.96313e-08
-2.62961e-08
-2.17095e-08
-1.63155e-08
-3.74423e-08
-3.56722e-08
-3.23375e-08
-2.77359e-08
-2.22836e-08
-4.18148e-08
-4.00449e-08
-3.67077e-08
-3.20962e-08
-2.663e-08
-4.41187e-08
-4.23527e-08
-3.90172e-08
-3.43918e-08
-2.89021e-08
-3.21434e-08
-2.97604e-08
-2.52389e-08
-1.91939e-08
-1.23105e-08
-4.19864e-08
-3.95959e-08
-3.508e-08
-2.89102e-08
-2.17096e-08
-5.03221e-08
-4.79229e-08
-4.34009e-08
-3.71777e-08
-2.98315e-08
-5.63478e-08
-5.3937e-08
-4.94072e-08
-4.31512e-08
-3.57304e-08
-5.95105e-08
-5.71064e-08
-5.25774e-08
-4.62996e-08
-3.88502e-08
-4.30639e-08
-3.98418e-08
-3.37697e-08
-2.55748e-08
-1.60987e-08
-5.65227e-08
-5.33025e-08
-4.72352e-08
-3.88989e-08
-2.91557e-08
-6.79385e-08
-6.47061e-08
-5.86261e-08
-5.02275e-08
-4.03176e-08
-7.62141e-08
-7.29802e-08
-6.68811e-08
-5.84353e-08
-4.8442e-08
-8.05791e-08
-7.73653e-08
-7.12538e-08
-6.27849e-08
-5.27889e-08
-5.78025e-08
-5.34963e-08
-4.53733e-08
-3.41633e-08
-2.10498e-08
-7.62462e-08
-7.19403e-08
-6.37976e-08
-5.25091e-08
-3.92542e-08
-9.1933e-08
-8.76195e-08
-7.94341e-08
-6.80806e-08
-5.47018e-08
-1.03358e-07
-9.90459e-08
-9.08045e-08
-7.9396e-08
-6.59796e-08
-1.09409e-07
-1.051e-07
-9.68173e-08
-8.53875e-08
-7.19697e-08
-7.76302e-08
-7.192e-08
-6.10073e-08
-4.58118e-08
-2.81162e-08
-1.03001e-07
-9.72387e-08
-8.62361e-08
-7.09566e-08
-5.29918e-08
-1.2462e-07
-1.1882e-07
-1.07705e-07
-9.2324e-08
-7.42507e-08
-1.40386e-07
-1.34552e-07
-1.23336e-07
-1.07883e-07
-8.97523e-08
-1.48713e-07
-1.42835e-07
-1.31565e-07
-1.16075e-07
-9.78606e-08
-1.04483e-07
-9.67796e-08
-8.1929e-08
-6.13043e-08
-3.71652e-08
-1.39328e-07
-1.31495e-07
-1.1649e-07
-9.57287e-08
-7.13006e-08
-1.69061e-07
-1.6113e-07
-1.45959e-07
-1.25064e-07
-1.00501e-07
-1.90723e-07
-1.82715e-07
-1.67423e-07
-1.46413e-07
-1.21677e-07
-2.02107e-07
-1.94035e-07
-1.78701e-07
-1.57606e-07
-1.32726e-07
-1.40808e-07
-1.30218e-07
-1.09886e-07
-8.1813e-08
-4.86995e-08
-1.88589e-07
-1.7783e-07
-1.57306e-07
-1.29028e-07
-9.57039e-08
-2.29409e-07
-2.18515e-07
-1.9781e-07
-1.69343e-07
-1.35776e-07
-2.5913e-07
-2.48145e-07
-2.27318e-07
-1.98648e-07
-1.64816e-07
-2.74725e-07
-2.63701e-07
-2.42819e-07
-2.14026e-07
-1.801e-07
-1.89898e-07
-1.75306e-07
-1.47495e-07
-1.09326e-07
-6.4333e-08
-2.5547e-07
-2.40706e-07
-2.12647e-07
-1.74063e-07
-1.28555e-07
-3.11549e-07
-2.96648e-07
-2.68383e-07
-2.29446e-07
-1.835e-07
-3.52405e-07
-3.3742e-07
-3.08991e-07
-2.6976e-07
-2.23509e-07
-3.73877e-07
-3.58868e-07
-3.30332e-07
-2.90972e-07
-2.44649e-07
-2.56398e-07
-2.36329e-07
-1.98249e-07
-1.46101e-07
-8.47157e-08
-3.46498e-07
-3.2628e-07
-2.87845e-07
-2.34973e-07
-1.72676e-07
-4.23684e-07
-4.03329e-07
-3.64603e-07
-3.11176e-07
-2.48228e-07
-4.79985e-07
-4.59532e-07
-4.20565e-07
-3.66794e-07
-3.03449e-07
-5.09618e-07
-4.89101e-07
-4.50007e-07
-3.96121e-07
-3.3262e-07
-3.46555e-07
-3.1896e-07
-2.66686e-07
-1.95091e-07
-1.10958e-07
-4.70532e-07
-4.42803e-07
-3.90021e-07
-3.17404e-07
-2.32011e-07
-5.76977e-07
-5.4909e-07
-4.95897e-07
-4.22572e-07
-3.36278e-07
-6.54707e-07
-6.26685e-07
-5.73236e-07
-4.99553e-07
-4.1271e-07
-6.95618e-07
-6.67539e-07
-6.1402e-07
-5.4022e-07
-4.5314e-07
-4.68893e-07
-4.30935e-07
-3.59071e-07
-2.60682e-07
-1.45465e-07
-6.39676e-07
-6.01562e-07
-5.28995e-07
-4.29274e-07
-3.12186e-07
-7.867e-07
-7.48431e-07
-6.75412e-07
-5.74892e-07
-4.56573e-07
-8.94177e-07
-8.55877e-07
-7.82692e-07
-6.81807e-07
-5.62774e-07
-9.50767e-07
-9.12556e-07
-8.3932e-07
-7.38256e-07
-6.1892e-07
-6.35235e-07
-5.829e-07
-4.83813e-07
-3.48328e-07
-1.90288e-07
-8.70572e-07
-8.18132e-07
-7.18263e-07
-5.81264e-07
-4.2062e-07
-1.07397e-06
-1.02162e-06
-9.21414e-07
-7.83631e-07
-6.21302e-07
-1.22284e-06
-1.17089e-06
-1.07063e-06
-9.32586e-07
-7.69382e-07
-1.30121e-06
-1.24956e-06
-1.14918e-06
-1.01107e-06
-8.47499e-07
-8.61647e-07
-7.89018e-07
-6.51578e-07
-4.64398e-07
-2.46938e-07
-1.18581e-06
-1.11374e-06
-9.7596e-07
-7.87531e-07
-5.66917e-07
-1.46805e-06
-1.39681e-06
-1.2589e-06
-1.07011e-06
-8.47423e-07
-1.67433e-06
-1.6047e-06
-1.46687e-06
-1.27863e-06
-1.05511e-06
-1.78243e-06
-1.71381e-06
-1.5757e-06
-1.388e-06
-1.1642e-06
-1.17059e-06
-1.06878e-06
-8.76187e-07
-6.16462e-07
-3.16251e-07
-1.61556e-06
-1.51699e-06
-1.32597e-06
-1.06662e-06
-7.63858e-07
-2.00941e-06
-1.91336e-06
-1.72207e-06
-1.46407e-06
-1.15951e-06
-2.29413e-06
-2.20429e-06
-2.01264e-06
-1.75828e-06
-1.45335e-06
-2.44175e-06
-2.35618e-06
-2.16225e-06
-1.91074e-06
-1.6054e-06
-1.59746e-06
-1.45161e-06
-1.17607e-06
-8.12326e-07
-3.97181e-07
-2.19802e-06
-2.06568e-06
-1.79884e-06
-1.44195e-06
-1.03041e-06
-2.75515e-06
-2.62856e-06
-2.3577e-06
-2.00702e-06
-1.59519e-06
-3.14172e-06
-3.04082e-06
-2.76323e-06
-2.42768e-06
-2.01551e-06
-3.33967e-06
-3.25473e-06
-2.96288e-06
-2.63983e-06
-2.2249e-06
-2.21276e-06
-1.9894e-06
-1.57673e-06
-1.05532e-06
-4.83169e-07
-2.96897e-06
-2.8056e-06
-2.42958e-06
-1.93835e-06
-1.40058e-06
-3.79539e-06
-3.63087e-06
-3.22878e-06
-2.75493e-06
-2.21991e-06
-4.2911e-06
-4.22598e-06
-3.78484e-06
-3.37441e-06
-2.82866e-06
-4.55269e-06
-4.53246e-06
-4.03041e-06
-3.6704e-06
-3.10681e-06
-3.19599e-06
-2.79957e-06
-2.12345e-06
-1.32843e-06
-5.57129e-07
-3.91904e-06
-3.77135e-06
-3.24318e-06
-2.55541e-06
-1.96028e-06
-5.30849e-06
-5.06183e-06
-4.42739e-06
-3.76404e-06
-3.17043e-06
-5.82097e-06
-5.92544e-06
-5.15465e-06
-4.73513e-06
-4.05164e-06
-6.18268e-06
-6.37085e-06
-5.42396e-06
-5.13776e-06
-4.38639e-06
-4.88932e-06
-4.12294e-06
-2.92636e-06
-1.5186e-06
-5.75503e-07
-4.99885e-06
-4.96252e-06
-4.23209e-06
-3.20618e-06
-2.88073e-06
-7.61932e-06
-7.12558e-06
-6.13488e-06
-5.07163e-06
-4.68646e-06
-7.76866e-06
-8.34918e-06
-6.98562e-06
-6.69673e-06
-5.96096e-06
-8.37749e-06
-9.0221e-06
-7.23429e-06
-7.19743e-06
-6.2688e-06
-7.78915e-06
-6.30163e-06
-4.2948e-06
-1.32111e-06
-4.93072e-07
-6.38567e-06
-6.43185e-06
-5.42976e-06
-3.81876e-06
-4.37263e-06
-1.12554e-05
-1.01376e-05
-8.83195e-06
-6.80728e-06
-7.14982e-06
-1.00071e-05
-1.19354e-05
-9.46679e-06
-9.62981e-06
-9.05253e-06
-1.14309e-05
-1.30117e-05
-9.58857e-06
-1.01087e-05
-9.09038e-06
-1.32586e-05
-1.0238e-05
-8.6414e-06
-4.42697e-06
-5.03827e-06
-8.71975e-06
-9.09262e-06
-1.0051e-05
-7.74375e-06
-8.58917e-06
-1.84282e-05
-1.65012e-05
-1.44712e-05
-1.09651e-05
-1.17615e-05
-1.71403e-05
-1.91502e-05
-1.52529e-05
-1.61481e-05
-1.46204e-05
-1.78151e-05
-2.03034e-05
-1.31092e-05
-1.70902e-05
-1.37983e-05
-1.18803e-05
-6.7708e-06
-3.06702e-07
2.07152e-05
1.60612e-05
-6.23334e-06
-5.911e-06
4.68764e-06
8.80645e-06
2.13467e-06
-1.63646e-05
-6.34802e-06
-1.37846e-05
-3.7633e-07
-1.02585e-05
3.77271e-06
-1.62548e-05
-2.10631e-06
-9.8901e-06
-1.66658e-05
-8.976e-06
-1.66132e-05
-9.80734e-06
-6.96318e-06
-2.2112e-05
-3.866e-05
-2.95567e-05
-1.64187e-05
-2.03759e-05
-7.75896e-06
-2.09042e-05
-1.91805e-05
-3.62881e-05
-2.61027e-05
-6.04807e-06
-4.88571e-05
-5.04169e-05
-3.33389e-05
-3.42492e-05
-2.09571e-05
-4.66354e-05
-4.54813e-05
-3.67138e-05
-4.25027e-05
-2.8244e-05
-4.98572e-05
-5.29397e-05
-1.75598e-05
-5.2539e-05
4.39536e-06
-5.00536e-05
-3.31046e-05
-2.23696e-05
9.04056e-05
6.21554e-05
-9.0585e-05
-0.000105055
2.07143e-06
4.54951e-06
2.27791e-05
-7.84964e-05
1.25148e-05
-9.55671e-05
-3.47796e-05
-5.12851e-05
7.51276e-05
-0.000100532
3.66076e-05
-7.01352e-05
-8.96143e-05
-4.06026e-05
-4.75973e-05
-6.78493e-05
-3.06284e-05
-0.000162115
0.000836585
0.000328901
0.00119215
0.000663335
0.00084409
0.000398661
0.00038195
0.000545192
0.000616089
0.000600709
0.000396395
0.000314653
0.000363279
0.000499899
0.00045083
0.000530926
0.000530168
0.00047075
0.000799204
0.00117644
0.00030471
0.000254623
0.000231205
0.000662958
0.000411956
0.00136067
0.00128685
0.0016733
0.00117909
0.00111691
0.00115007
0.00118504
0.00127522
0.00133388
0.00152564
0.00103225
0.000778712
0.00115341
0.00135484
0.00138282
0.00118408
0.00120585
0.00147414
0.00135278
0.00152228
0.00095358
0.0012482
0.00104007
0.00110904
0.00164975
0.00272068
0.0022563
0.00200478
0.00250508
0.00215003
0.0014812
0.0018642
0.00214988
0.00217528
0.00226966
0.00224106
0.00217753
0.00224231
0.00202828
0.00195684
0.00194988
0.00199008
0.00223452
0.00193713
0.00246624
0.00233903
0.00226591
0.00211703
0.00233804
0.00228314
0.00289651
0.00289666
0.00270251
0.00243261
0.00270801
0.00299399
0.00262242
0.0027022
0.00283778
0.00297373
0.00384155
0.00295952
0.00292136
0.00278026
0.00303016
0.00215718
0.00296925
0.00288735
0.00290271
0.00355131
0.00309573
0.003584
0.0030859
0.00308579
0.00322661
0.0029801
0.00369907
0.00331454
0.00296459
0.00315441
0.00384682
0.00375767
0.00331769
0.00354977
0.00347075
0.00380906
0.00365142
0.00374237
0.00339996
0.00395573
0.0038077
0.00354994
0.00344632
0.00351537
0.00359008
0.00333249
0.00347755
0.00368703
0.00387264
0.00361976
0.00510798
0.00505125
0.00401538
0.00426608
0.0039918
0.00504306
0.0047442
0.00449492
0.00432344
0.00401486
0.00444692
0.00465091
0.00474644
0.00410179
0.00419851
0.00512653
0.00438262
0.00389068
0.00418188
0.00387765
0.00366436
0.00426048
0.00419207
0.00408997
0.0037575
0.0053828
0.00543185
0.00517545
0.00476186
0.00523168
0.00550086
0.00530193
0.00508264
0.0048927
0.0045689
0.00534362
0.0051038
0.00504903
0.00520117
0.00434821
0.0058111
0.00530277
0.00493347
0.00479995
0.0045885
0.00520013
0.00489634
0.00476349
0.0043478
0.00410308
0.00604918
0.00527408
0.00590951
0.00565831
0.00580362
0.00548763
0.00554366
0.005552
0.00529391
0.00557927
0.00588503
0.0057385
0.00549958
0.00549363
0.00512438
0.00588787
0.00586878
0.00598618
0.00556156
0.00553419
0.00612028
0.00525672
0.00571599
0.00558549
0.00636239
0.00685979
0.00646127
0.00618945
0.0060962
0.00584825
0.00587861
0.00591791
0.00603526
0.00570288
0.0058776
0.00616855
0.00623149
0.00640117
0.00621417
0.00578344
0.00617069
0.00628015
0.00634658
0.00622671
0.00632515
0.00668869
0.00641257
0.0063144
0.00620439
0.00651376
0.006871
0.00691853
0.00646926
0.00624644
0.00617648
0.00672432
0.00662377
0.00674525
0.00676978
0.00612832
0.00698519
0.00682964
0.00682035
0.00676453
0.00659215
0.00696609
0.00704914
0.00685709
0.0069204
0.00672612
0.0070011
0.00705146
0.00681647
0.0068667
0.00662839
0.0069562
0.00698093
0.00701485
0.00693187
0.00698287
0.00698267
0.00704429
0.00704768
0.00704991
0.00699989
0.00702651
0.00704614
0.00698808
0.00699283
0.00701625
0.00703426
0.00705454
0.00704652
0.00703616
0.00704668
0.0070357
0.00704077
0.00702986
0.00701831
0.00696086
0.00697667
0.00697532
0.00698905
0.00698925
0.00698491
0.00699763
0.00699346
0.00699502
0.00699085
0.00699051
0.00698522
0.00698115
0.00698996
0.00698504
0.00698636
0.00701151
0.00700481
0.00698355
0.00699176
0.00697378
0.00699367
0.00699568
0.00696721
0.00699541
0.0069961
0.00697687
0.00697935
0.00698327
0.0069802
0.00698773
0.00699047
0.00699751
0.00699248
0.00699279
0.00698757
0.00699448
0.00699658
0.00698821
0.006991
0.00698566
0.00700201
0.00700556
0.00699489
0.00700097
0.0069912
0.00699928
0.00700565
0.0069935
0.00700045
0.00698499
0.00698548
0.00698625
0.0069893
0.00698937
0.00699141
0.00699596
0.00699661
0.00699349
0.00699331
0.00699212
0.00699263
0.00699318
0.00699105
0.00699371
0.0069918
0.00699765
0.00699892
0.00699372
0.00699784
0.00699171
0.00699573
0.00699792
0.00699239
0.00699809
0.00699181
0.00698905
0.00698951
0.00699079
0.00699123
0.00699227
0.00699482
0.00699512
0.00699359
0.00699348
0.00699289
0.00699271
0.00699311
0.00699234
0.00699384
0.00699261
0.00699564
0.00699624
0.00699375
0.00699586
0.00699257
0.00699478
0.00699583
0.00699331
0.00699626
0.00699245
0.00699111
0.00699136
0.00699195
0.00699236
0.00699289
0.00699422
0.00699434
0.00699352
0.0069936
0.0069933
0.00699301
0.00699321
0.00699302
0.0069938
0.00699317
0.00699466
0.00699486
0.00699384
0.0069948
0.00699321
0.00699429
0.00699471
0.00699371
0.00699509
0.00699318
0.00699225
0.00699241
0.00699269
0.00699297
0.00699326
0.00699388
0.00699389
0.00699357
0.00699359
0.00699351
0.00699326
0.00699336
0.00699337
0.00699378
0.00699352
0.00699416
0.00699419
0.00699387
0.00699425
0.00699357
0.00699402
0.00699415
0.00699385
0.00699441
0.00699357
0.00699289
0.00699297
0.00699313
0.00699331
0.00699347
0.00699369
0.00699366
0.00699358
0.00699361
0.00699363
0.00699344
0.0069935
0.00699355
0.00699375
0.00699368
0.00699391
0.00699392
0.00699384
0.00699398
0.00699375
0.00699387
0.00699391
0.00699386
0.00699408
0.00699378
0.00699324
0.00699329
0.00699338
0.00699349
0.0069936
0.0069936
0.0069936
0.0069936
0.00699364
0.0069937
0.00699355
0.0069936
0.00699365
0.00699375
0.00699376
0.00699379
0.0069938
0.00699379
0.00699386
0.00699382
0.00699379
0.00699381
0.00699383
0.00699391
0.00699386
0.00699344
0.00699347
0.00699352
0.00699359
0.00699367
0.00699359
0.0069936
0.00699363
0.00699368
0.00699374
0.00699363
0.00699365
0.00699369
0.00699375
0.0069938
0.00699373
0.00699374
0.00699376
0.00699381
0.00699384
0.00699375
0.00699377
0.00699379
0.00699384
0.00699387
0.00699354
0.00699356
0.0069936
0.00699365
0.00699371
0.00699362
0.00699363
0.00699366
0.0069937
0.00699376
0.00699367
0.00699368
0.00699371
0.00699375
0.0069938
0.00699372
0.00699373
0.00699375
0.00699379
0.00699383
0.00699374
0.00699375
0.00699378
0.00699381
0.00699385
0.0069936
0.00699362
0.00699365
0.00699368
0.00699373
0.00699365
0.00699366
0.00699369
0.00699372
0.00699377
0.00699369
0.0069937
0.00699372
0.00699376
0.0069938
0.00699372
0.00699373
0.00699375
0.00699378
0.00699382
0.00699373
0.00699375
0.00699377
0.0069938
0.00699384
0.00699365
0.00699366
0.00699368
0.00699371
0.00699375
0.00699368
0.00699369
0.00699371
0.00699374
0.00699377
0.00699371
0.00699371
0.00699373
0.00699376
0.00699379
0.00699373
0.00699373
0.00699375
0.00699378
0.00699381
0.00699374
0.00699375
0.00699376
0.00699379
0.00699382
0.00699368
0.00699369
0.0069937
0.00699373
0.00699375
0.0069937
0.00699371
0.00699372
0.00699375
0.00699377
0.00699372
0.00699373
0.00699374
0.00699376
0.00699379
0.00699373
0.00699374
0.00699375
0.00699377
0.0069938
0.00699374
0.00699375
0.00699376
0.00699378
0.00699381
0.0069937
0.00699371
0.00699372
0.00699374
0.00699376
0.00699372
0.00699372
0.00699373
0.00699375
0.00699377
0.00699373
0.00699374
0.00699375
0.00699376
0.00699378
0.00699374
0.00699375
0.00699376
0.00699377
0.00699379
0.00699375
0.00699375
0.00699376
0.00699378
0.0069938
0.00699372
0.00699372
0.00699373
0.00699375
0.00699376
0.00699373
0.00699373
0.00699374
0.00699376
0.00699377
0.00699374
0.00699374
0.00699375
0.00699376
0.00699378
0.00699375
0.00699375
0.00699376
0.00699377
0.00699378
0.00699375
0.00699375
0.00699376
0.00699377
0.00699379
0.00699373
0.00699374
0.00699374
0.00699375
0.00699376
0.00699374
0.00699374
0.00699375
0.00699376
0.00699377
0.00699375
0.00699375
0.00699376
0.00699377
0.00699378
0.00699375
0.00699375
0.00699376
0.00699377
0.00699378
0.00699375
0.00699376
0.00699376
0.00699377
0.00699378
0.00699374
0.00699374
0.00699375
0.00699376
0.00699376
0.00699375
0.00699375
0.00699376
0.00699376
0.00699377
0.00699375
0.00699375
0.00699376
0.00699377
0.00699377
0.00699376
0.00699376
0.00699376
0.00699377
0.00699378
0.00699376
0.00699376
0.00699376
0.00699377
0.00699378
0.00699375
0.00699375
0.00699376
0.00699376
0.00699377
0.00699375
0.00699376
0.00699376
0.00699376
0.00699377
0.00699376
0.00699376
0.00699376
0.00699377
0.00699377
0.00699376
0.00699376
0.00699376
0.00699377
0.00699378
0.00699376
0.00699376
0.00699377
0.00699377
0.00699378
0.00699376
0.00699376
0.00699376
0.00699376
0.00699377
0.00699376
0.00699376
0.00699376
0.00699377
0.00699377
0.00699376
0.00699376
0.00699376
0.00699377
0.00699377
0.00699376
0.00699376
0.00699377
0.00699377
0.00699377
0.00699376
0.00699377
0.00699377
0.00699377
0.00699377
0.00699376
0.00699376
0.00699376
0.00699377
0.00699377
0.00699376
0.00699376
0.00699376
0.00699377
0.00699377
0.00699376
0.00699376
0.00699377
0.00699377
0.00699377
0.00699377
0.00699377
0.00699377
0.00699377
0.00699377
0.00699377
0.00699377
0.00699377
0.00699377
0.00699377
0.00699376
0.00699376
0.00699377
0.00699377
0.00699377
0.00699376
0.00699377
0.00699377
0.00699377
0.00699377
0.00699377
0.00699377
0.00699377
0.00699377
0.00699377
0.00699377
0.00699377
0.00699377
0.00699377
0.00699377
0.00699377
0.00699377
0.00699377
0.00699377
0.00699377
0.00699377
0.00699377
0.00699377
0.00699377
0.00699377
0.00699377
0.00699377
0.00699377
0.00699377
0.00699377
0.00699377
0.00699377
0.00699377
0.00699377
0.00699377
0.00699377
0.00699377
0.00699377
0.00699377
0.00699377
0.00699377
0.00699377
0.00699377
0.00699377
0.00699377
0.00699377
0.00699377
0.00699377
0.00699377
0.00699377
0.00699377
0.00699377
0.00699377
0.00699377
0.00699377
0.00699377
0.00699377
0.00699377
0.00699377
0.00699377
0.00699377
0.00699377
0.00699377
0.00699377
0.00699377
0.00699377
0.00699377
0.00699377
0.00699377
0.00699377
0.00699377
0.00699377
0.00699377
0.00699377
0.00699377
0.00699377
0.00699377
0.00699377
0.00699377
0.00699377
0.00699377
0.00699377
0.00699377
0.00699377
0.00699377
0.00699377
0.00699377
0.00699377
0.00699377
0.00699377
0.00699377
0.00699377
0.00699377
0.00699377
0.00699377
0.00699377
0.00699377
0.00699377
0.00699377
0.00699377
0.00699377
0.00699377
0.00699377
0.00699377
0.00699377
0.00699377
0.00699377
0.00699377
0.00699377
0.00699377
0.00699377
0.00699377
0.00699377
0.00699377
0.00699377
0.00699377
0.00699377
0.00699377
0.00699377
0.00699377
0.00699377
0.00699377
0.00699377
0.00699377
0.00699377
0.00699377
0.00699377
0.00699377
0.00699377
0.00699377
0.00699377
0.00699377
0.00699377
0.00699377
0.00699377
0.00699377
0.00699377
0.00699377
0.00699377
0.00699377
0.00699377
0.00699377
0.00699377
0.00699377
0.00699377
0.00699377
0.00699377
0.00699377
0.00699377
0.00699377
0.00699377
0.00699377
0.00699377
0.00699377
0.00699377
0.00699377
0.00699377
0.00699377
0.00699377
0.00699377
0.00699377
0.00699377
0.00699377
0.00699377
0.00699377
0.00699377
0.00699377
0.00699377
0.00699377
0.00699377
0.00699377
0.00699377
0.00699377
0.00699377
0.00699377
0.00699377
0.00699377
0.00699377
0.00699377
0.00699377
0.00699377
0.00699377
0.00699377
0.00699377
0.00699377
0.00699377
0.00699377
0.00699377
0.00699377
0.00699377
0.00699377
0.00699377
0.00699377
0.00699377
0.00699377
0.00699377
0.00699377
0.00699377
0.00699377
0.00699377
0.00699377
0.00699377
0.00699377
0.00699377
0.00699377
0.00699377
0.00699377
0.00699377
0.00699377
0.00699377
0.00699377
0.00699377
0.00699377
0.00699377
0.00699377
0.00699377
0.00699377
0.00699377
0.00699377
0.00699377
0.00699377
0.00699377
0.00699377
0.00699377
0.00699377
0.00699377
0.00699377
0.00699377
0.00699377
0.00699377
0.00699377
0.00699377
0.00699377
0.00699377
0.00699377
0.00699377
0.00699377
0.00699377
0.00699377
0.00699377
0.00699377
0.00699377
0.00699377
0.00699377
0.00699377
0.00699377
0.00699377
0.00699377
0.00699377
0.00699377
0.00699377
0.00699377
0.00699377
0.00699377
0.00699377
0.00699377
0.00699377
0.00699377
0.00699377
0.00699377
0.00699377
0.00699377
0.00699377
0.00699377
0.00699377
0.00699377
0.00699377
0.00699377
0.00699377
0.00699377
0.00699377
0.00699377
0.00699377
0.00699377
0.00699377
0.00699377
0.00699377
0.00699377
0.00699377
0.00699377
0.00699377
0.00699377
0.00699377
0.00699377
0.00699377
0.00699377
0.00699377
0.00699377
0.00699377
0.00699377
0.00699377
0.00699377
0.00699377
0.00699377
0.00699377
0.00699377
0.00699377
0.00699377
0.00699377
0.00699377
0.00699377
0.00699377
0.00699377
0.00699377
0.00699377
0.00699377
0.00699377
0.00699377
0.00699377
0.00699377
0.00699377
0.00699377
0.00699377
0.00699377
0.00699377
0.00699377
0.00699377
0.00699377
0.00699377
0.00699377
0.00699377
0.00699377
0.00699377
0.00699377
0.00699377
0.00699377
0.00699377
0.00699377
0.00699377
0.00699377
0.00699377
0.00699377
0.00699377
0.00699377
0.00699377
0.00699377
0.00699377
0.00699377
0.00699377
0.00699377
0.00699377
0.00699377
0.00699377
0.00699377
0.00699377
0.00699377
0.00699377
0.00699377
0.00699377
0.00699377
0.00699377
0.00699377
0.00699377
0.00699377
0.00699377
0.00699377
0.00699377
0.00699377
0.00699377
0.00699377
0.00699377
0.00699377
0.00699377
0.00699377
0.00699377
0.00699377
0.00699377
0.00699377
0.00699377
0.00699377
0.00699377
0.00699377
0.00699377
0.00699377
0.00699377
0.00699377
0.00699377
0.00699377
0.00699377
0.00699377
0.00699377
0.00699377
0.00699377
0.00699377
0.00699377
0.00699377
0.00699377
0.00699377
0.00699377
0.00699377
0.00699377
0.00699377
0.00699377
0.00699377
0.00699377
0.00699377
0.00699377
0.00699377
0.00699377
0.00699377
0.00699377
0.00699377
0.00699377
0.00699377
0.00699377
0.00699377
0.00699377
0.00699377
0.00699377
0.00699377
0.00699377
0.00699377
0.00699377
0.00699377
0.00699377
0.00699377
0.00699377
0.00699377
0.00699377
0.00699377
0.00699377
0.00699377
0.00699377
0.00699377
0.00699377
0.00699377
0.00699377
0.00699377
0.00699377
0.00699377
0.00699377
0.00699377
0.00699377
0.00699377
0.00699377
0.00699377
0.00699377
0.00699377
0.00699377
0.00699377
0.00699377
0.00699377
0.00699377
0.00699377
0.00699377
)
;

boundaryField
{
    inlet
    {
        type            zeroGradient;
    }
    outlet
    {
        type            fixedValue;
        value           uniform 0;
    }
    repeat_boundary
    {
        type            zeroGradient;
    }
    procBoundary2to0
    {
        type            processor;
        value           nonuniform List<scalar> 
450
(
-3.94473e-10
-3.73257e-10
-3.20191e-10
-2.61004e-10
-2.16119e-10
-1.19594e-09
-1.13183e-09
-9.81718e-10
-8.20899e-10
-7.3683e-10
-1.9832e-09
-1.8822e-09
-1.65921e-09
-1.39282e-09
-1.18825e-09
-2.70837e-09
-2.59826e-09
-2.35103e-09
-2.00789e-09
-1.54093e-09
-3.34231e-09
-3.23099e-09
-2.95385e-09
-2.56417e-09
-1.93968e-09
-3.85612e-09
-3.7099e-09
-3.36634e-09
-2.97603e-09
-2.54233e-09
-4.15697e-09
-3.9534e-09
-3.57462e-09
-3.22274e-09
-3.05749e-09
-4.21673e-09
-4.01726e-09
-3.7077e-09
-3.38593e-09
-3.18833e-09
-4.24137e-09
-4.13066e-09
-3.94674e-09
-3.65389e-09
-3.2921e-09
-4.47148e-09
-4.42838e-09
-4.31064e-09
-4.07086e-09
-3.76052e-09
-4.89608e-09
-4.83033e-09
-4.67933e-09
-4.4334e-09
-4.19712e-09
-5.39662e-09
-5.26903e-09
-5.01578e-09
-4.61222e-09
-4.13614e-09
-5.96752e-09
-5.76195e-09
-5.36511e-09
-4.74538e-09
-3.91169e-09
-6.63693e-09
-6.31006e-09
-5.75061e-09
-4.96509e-09
-3.89598e-09
-7.48157e-09
-7.01875e-09
-6.2626e-09
-5.23179e-09
-3.81842e-09
-8.73771e-09
-8.13709e-09
-7.07111e-09
-5.53872e-09
-3.49383e-09
-1.06162e-08
-9.79382e-09
-8.22246e-09
-5.92576e-09
-3.05293e-09
-1.32043e-08
-1.20004e-08
-9.68013e-09
-6.39378e-09
-2.48786e-09
-1.676e-08
-1.50253e-08
-1.17148e-08
-7.19872e-09
-1.94521e-09
-2.1817e-08
-1.94344e-08
-1.49099e-08
-8.81473e-09
-1.65091e-09
-2.8877e-08
-2.5685e-08
-1.96448e-08
-1.13977e-08
-1.48377e-09
-3.8348e-08
-3.41003e-08
-2.60645e-08
-1.49231e-08
-1.56955e-09
-5.09732e-08
-4.53154e-08
-3.45339e-08
-1.95608e-08
-1.92939e-09
-6.79781e-08
-6.03079e-08
-4.5656e-08
-2.54204e-08
-1.67432e-09
-9.08203e-08
-8.02677e-08
-6.02201e-08
-3.26423e-08
-2.75815e-10
-1.21421e-07
-1.06911e-07
-7.94705e-08
-4.17812e-08
2.29429e-09
-1.62528e-07
-1.42624e-07
-1.05061e-07
-5.34747e-08
6.84712e-09
-2.1774e-07
-1.90436e-07
-1.38912e-07
-6.82619e-08
1.43102e-08
-2.91933e-07
-2.54422e-07
-1.83588e-07
-8.67685e-08
2.61101e-08
-3.9194e-07
-3.40169e-07
-2.42397e-07
-1.09286e-07
4.55573e-08
-5.26604e-07
-4.54677e-07
-3.18991e-07
-1.35468e-07
7.7273e-08
-7.06467e-07
-6.06267e-07
-4.16824e-07
-1.63377e-07
1.29349e-07
-9.42401e-07
-8.04151e-07
-5.36999e-07
-1.87155e-07
2.18569e-07
-1.23117e-06
-1.0539e-06
-6.70598e-07
-1.94845e-07