/*--------------------------------*- C++ -*----------------------------------*\
| =========                 |                                                 |
| \\      /  F ield         | OpenFOAM: The Open Source CFD Toolbox           |
|  \\    /   O peration     | Version:  5.x                                   |
|   \\  /    A nd           | Web:      www.OpenFOAM.org                      |
|    \\/     M anipulation  |                                                 |
\*---------------------------------------------------------------------------*/
FoamFile
{
    version     2.0;
    format      ascii;
    class       surfaceScalarField;
    location    "0.03";
    object      phi;
}
// * * * * * * * * * * * * * * * * * * * * * * * * * * * * * * * * * * * * * //

dimensions      [0 3 -1 0 0 0 0];

internalField   nonuniform List<scalar> 
5825
(
-5.65113e-17
-1.20408e-16
-9.99998e-10
-1.46801e-16
-1.14262e-16
-9.99998e-10
-1.99756e-16
-1.03064e-16
-9.99999e-10
-2.43574e-16
-8.18018e-17
-9.99999e-10
-4.17141e-17
-9.99999e-10
-5.04909e-17
-9.91385e-17
-9.99998e-10
-1.37431e-16
-9.58847e-17
-9.99998e-10
-1.85699e-16
-8.91158e-17
-9.99999e-10
-2.05799e-16
-7.78996e-17
-9.99999e-10
-6.30914e-17
-9.99999e-10
-4.67901e-17
-7.93314e-17
-9.99999e-10
-1.30982e-16
-8.23338e-17
-9.99999e-10
-1.75291e-16
-7.9638e-17
-9.99999e-10
-1.89843e-16
-7.36743e-17
-9.99999e-10
-6.74863e-17
-1e-09
-4.93603e-17
-5.0066e-17
-9.99999e-10
-1.28299e-16
-5.42284e-17
-9.99999e-10
-1.69308e-16
-5.06139e-17
-9.99999e-10
-1.82685e-16
-4.55039e-17
-9.99999e-10
-4.33798e-17
-1e-09
-5.31452e-17
-9.99999e-10
-1.24388e-16
-9.99999e-10
-1.63855e-16
-9.99999e-10
-1.79208e-16
-1e-09
-1e-09
-1.75352e-16
-3.65938e-16
-9.99998e-10
-4.06634e-16
-3.53028e-16
-9.99998e-10
-5.24967e-16
-3.32674e-16
-9.99998e-10
-6.20068e-16
-3.04327e-16
-9.99999e-10
-2.46116e-16
-9.99999e-10
-1.62732e-16
-3.00639e-16
-9.99998e-10
-3.90361e-16
-2.94588e-16
-9.99999e-10
-5.14875e-16
-2.78262e-16
-9.99999e-10
-5.60446e-16
-2.5632e-16
-9.99999e-10
-2.45111e-16
-9.99999e-10
-1.54789e-16
-2.41499e-16
-9.99999e-10
-3.74656e-16
-2.47877e-16
-9.99999e-10
-4.961e-16
-2.38037e-16
-9.99999e-10
-5.34403e-16
-2.23946e-16
-9.99999e-10
-2.11741e-16
-1e-09
-1.59236e-16
-1.52044e-16
-9.99999e-10
-3.64904e-16
-1.59468e-16
-9.99999e-10
-4.82393e-16
-1.47073e-16
-9.99999e-10
-5.20278e-16
-1.3518e-16
-1e-09
-1.27515e-16
-1e-09
-1.65486e-16
-9.99999e-10
-3.51804e-16
-9.99999e-10
-4.69291e-16
-9.99999e-10
-5.09053e-16
-1e-09
-1e-09
-3.11702e-16
-6.55859e-16
-9.99998e-10
-6.37983e-16
-6.44205e-16
-9.99998e-10
-7.78072e-16
-6.44703e-16
-9.99999e-10
-7.26037e-16
-7.05736e-16
-9.99999e-10
-8.11898e-16
-9.99999e-10
-2.98416e-16
-5.55537e-16
-9.99998e-10
-6.3591e-16
-5.51074e-16
-9.99999e-10
-8.23222e-16
-5.36146e-16
-9.99999e-10
-8.4297e-16
-5.3732e-16
-9.99999e-10
-5.75761e-16
-1e-09
-2.89719e-16
-4.40154e-16
-9.99999e-10
-6.22305e-16
-4.43893e-16
-9.99999e-10
-8.26457e-16
-4.28731e-16
-9.99999e-10
-8.91053e-16
-4.16305e-16
-1e-09
-4.14359e-16
-1e-09
-2.9017e-16
-2.68069e-16
-9.99999e-10
-6.07239e-16
-2.70435e-16
-9.99999e-10
-8.13838e-16
-2.54317e-16
-9.99999e-10
-8.94978e-16
-2.42708e-16
-1e-09
-2.31589e-16
-1e-09
-2.91463e-16
-9.99999e-10
-5.89392e-16
-9.99999e-10
-7.99896e-16
-1e-09
-8.8176e-16
-1e-09
-1e-09
-4.57016e-16
-1.01796e-15
-9.99998e-10
-8.93825e-16
-1.01097e-15
-9.99998e-10
-1.095e-15
-1.02997e-15
-9.99998e-10
-9.52626e-16
-1.14966e-15
-9.99999e-10
-1.40181e-15
-1e-09
-4.45002e-16
-8.85408e-16
-9.99998e-10
-9.08785e-16
-8.83953e-16
-9.99999e-10
-1.18967e-15
-8.72414e-16
-9.99999e-10
-1.19612e-15
-8.88801e-16
-9.99999e-10
-9.69556e-16
-1e-09
-4.37926e-16
-6.83934e-16
-9.99999e-10
-8.99361e-16
-6.82525e-16
-9.99999e-10
-1.21006e-15
-6.64942e-16
-9.99999e-10
-1.31211e-15
-6.51778e-16
-1e-09
-6.64115e-16
-1e-09
-4.33051e-16
-3.95054e-16
-9.99999e-10
-8.82096e-16
-3.95714e-16
-9.99999e-10
-1.19664e-15
-3.82232e-16
-1e-09
-1.33364e-15
-3.68361e-16
-1e-09
-3.53076e-16
-1e-09
-4.32318e-16
-9.99999e-10
-8.66061e-16
-1e-09
-1.17925e-15
-1e-09
-1.31714e-15
-1e-09
-1e-09
-6.27064e-16
-1.52035e-15
-9.99998e-10
-1.26448e-15
-1.52231e-15
-9.99998e-10
-1.63907e-15
-1.52638e-15
-9.99998e-10
-1.59705e-15
-1.58733e-15
-9.99999e-10
-1.72245e-15
-1e-09
-6.19409e-16
-1.32924e-15
-9.99998e-10
-1.26322e-15
-1.32979e-15
-9.99999e-10
-1.69036e-15
-1.30956e-15
-9.99999e-10
-1.75577e-15
-1.30158e-15
-1e-09
-1.35458e-15
-1e-09
-6.14528e-16
-1.00359e-15
-9.99999e-10
-1.24541e-15
-1.00077e-15
-9.99999e-10
-1.68538e-15
-9.78866e-16
-1e-09
-1.84212e-15
-9.49415e-16
-1e-09
-9.41889e-16
-1e-09
-6.08567e-16
-5.61059e-16
-9.99999e-10
-1.22365e-15
-5.67682e-16
-1e-09
-1.655e-15
-5.52509e-16
-1e-09
-1.84463e-15
-5.21097e-16
-1e-09
-4.82007e-16
-1e-09
-6.1401e-16
-1e-09
-1.20516e-15
-1e-09
-1.61943e-15
-1e-09
-1.8045e-15
-1e-09
-1e-09
-8.58218e-16
-2.23704e-15
-9.99997e-10
-1.75213e-15
-2.24322e-15
-9.99997e-10
-2.327e-15
-2.20092e-15
-9.99998e-10
-2.43527e-15
-2.1604e-15
-9.99999e-10
-2.17834e-15
-1e-09
-8.54621e-16
-1.92969e-15
-9.99998e-10
-1.70956e-15
-1.92782e-15
-9.99998e-10
-2.29376e-15
-1.88914e-15
-9.99999e-10
-2.49054e-15
-1.8417e-15
-1e-09
-1.82168e-15
-1e-09
-8.47677e-16
-1.43564e-15
-9.99999e-10
-1.67243e-15
-1.43458e-15
-9.99999e-10
-2.24865e-15
-1.40213e-15
-1e-09
-2.50174e-15
-1.34483e-15
-1e-09
-1.28124e-15
-1e-09
-8.43472e-16
-7.92409e-16
-9.99999e-10
-1.63961e-15
-8.01954e-16
-1e-09
-2.19e-15
-7.72767e-16
-1e-09
-2.44689e-15
-7.16771e-16
-1e-09
-6.48576e-16
-1e-09
-8.51285e-16
-1e-09
-1.60673e-15
-1e-09
-2.12973e-15
-1e-09
-2.37664e-15
-1e-09
-1e-09
-1.17057e-15
-3.17056e-15
-9.99997e-10
-2.28662e-15
-3.16575e-15
-9.99997e-10
-3.03145e-15
-3.103e-15
-9.99998e-10
-3.31039e-15
-3.03242e-15
-9.99998e-10
-3.03265e-15
-9.99999e-10
-1.15807e-15
-2.70659e-15
-9.99998e-10
-2.22586e-15
-2.7009e-15
-9.99998e-10
-2.9793e-15
-2.65267e-15
-9.99999e-10
-3.35182e-15
-2.58719e-15
-1e-09
-2.51791e-15
-1e-09
-1.14592e-15
-1.99975e-15
-9.99999e-10
-2.17714e-15
-1.99837e-15
-9.99999e-10
-2.91452e-15
-1.95335e-15
-1e-09
-3.31532e-15
-1.87722e-15
-1e-09
-1.77996e-15
-1e-09
-1.14018e-15
-1.09147e-15
-9.99999e-10
-2.13158e-15
-1.0901e-15
-1e-09
-2.83787e-15
-1.04588e-15
-1e-09
-3.22472e-15
-9.85328e-16
-1e-09
-9.27615e-16
-1e-09
-1.13492e-15
-1e-09
-2.08274e-15
-1e-09
-2.77154e-15
-1e-09
-3.162e-15
-1e-09
-1e-09
-1.53556e-15
-4.30925e-15
-9.99995e-10
-2.88003e-15
-4.29886e-15
-9.99996e-10
-3.8642e-15
-4.25803e-15
-9.99997e-10
-4.39877e-15
-4.21754e-15
-9.99998e-10
-4.20306e-15
-1e-09
-1.51683e-15
-3.69288e-15
-9.99997e-10
-2.84145e-15
-3.69087e-15
-9.99997e-10
-3.83625e-15
-3.64649e-15
-9.99998e-10
-4.4196e-15
-3.57933e-15
-9.99999e-10
-3.5117e-15
-1e-09
-1.50559e-15
-2.71881e-15
-9.99998e-10
-2.79557e-15
-2.71311e-15
-9.99999e-10
-3.76957e-15
-2.66351e-15
-1e-09
-4.36301e-15
-2.5966e-15
-1e-09
-2.54215e-15
-1e-09
-1.49332e-15
-1.45851e-15
-9.99999e-10
-2.74569e-15
-1.43947e-15
-1e-09
-3.70318e-15
-1.39716e-15
-1e-09
-4.31213e-15
-1.36414e-15
-1e-09
-1.36186e-15
-1e-09
-1.46793e-15
-1e-09
-2.69702e-15
-1e-09
-3.66188e-15
-1e-09
-4.302e-15
-1e-09
-1e-09
-1.96373e-15
-5.79096e-15
-9.99994e-10
-3.69e-15
-5.79973e-15
-9.99994e-10
-5.07488e-15
-5.77615e-15
-9.99996e-10
-5.91382e-15
-5.71372e-15
-9.99997e-10
-5.61401e-15
-9.99999e-10
-1.95968e-15
-4.99206e-15
-9.99996e-10
-3.6665e-15
-4.9976e-15
-9.99996e-10
-5.01751e-15
-4.95825e-15
-9.99998e-10
-5.85024e-15
-4.89459e-15
-9.99999e-10
-4.83992e-15
-1e-09
-1.95311e-15
-3.65607e-15
-9.99998e-10
-3.62637e-15
-3.64587e-15
-9.99998e-10
-4.95387e-15
-3.60605e-15
-9.99999e-10
-5.80403e-15
-3.57381e-15
-1e-09
-3.59384e-15
-1e-09
-1.93398e-15
-1.92827e-15
-9.99999e-10
-3.58587e-15
-1.90145e-15
-1e-09
-4.92167e-15
-1.87949e-15
-1e-09
-5.82577e-15
-1.88474e-15
-1e-09
-1.92314e-15
-1e-09
-1.8986e-15
-1e-09
-3.55537e-15
-1e-09
-4.91535e-15
-1e-09
-5.85131e-15
-1e-09
-1.00001e-09
-2.56992e-15
-7.86825e-15
-9.99991e-10
-4.89131e-15
-7.88984e-15
-9.99992e-10
-6.80127e-15
-7.84748e-15
-9.99994e-10
-8.02055e-15
-7.73017e-15
-9.99996e-10
-7.55553e-15
-9.99999e-10
-2.57323e-15
-6.75789e-15
-9.99994e-10
-4.84834e-15
-6.76431e-15
-9.99995e-10
-6.68548e-15
-6.72766e-15
-9.99997e-10
-7.88193e-15
-6.67559e-15
-9.99999e-10
-6.61789e-15
-1e-09
-2.56407e-15
-4.92187e-15
-9.99997e-10
-4.81181e-15
-4.91313e-15
-9.99998e-10
-6.63292e-15
-4.89021e-15
-9.99999e-10
-7.83342e-15
-4.88776e-15
-1e-09
-4.92052e-15
-1e-09
-2.54328e-15
-2.57382e-15
-9.99999e-10
-4.78772e-15
-2.55559e-15
-9.99999e-10
-6.62945e-15
-2.55505e-15
-1e-09
-7.87029e-15
-2.57572e-15
-1e-09
-2.59154e-15
-1.00001e-09
-2.51385e-15
-9.99999e-10
-4.7757e-15
-1e-09
-6.634e-15
-1e-09
-7.86844e-15
-1e-09
-1.00001e-09
-3.4716e-15
-1.07368e-14
-9.99988e-10
-6.6007e-15
-1.07491e-14
-9.9999e-10
-9.16438e-15
-1.06974e-14
-9.99992e-10
-1.08775e-14
-1.05831e-14
-9.99995e-10
-1.04023e-14
-9.99999e-10
-3.45911e-15
-9.16898e-15
-9.99992e-10
-6.54871e-15
-9.1788e-15
-9.99994e-10
-9.04875e-15
-9.148e-15
-9.99996e-10
-1.07454e-14
-9.10636e-15
-9.99999e-10
-9.01345e-15
-1e-09
-3.44741e-15
-6.66534e-15
-9.99996e-10
-6.51804e-15
-6.66429e-15
-9.99997e-10
-9.00618e-15
-6.64694e-15
-9.99999e-10
-1.06676e-14
-6.63733e-15
-1e-09
-6.60675e-15
-1.00001e-09
-3.4304e-15
-3.4838e-15
-9.99998e-10
-6.49954e-15
-3.47902e-15
-9.99999e-10
-8.99551e-15
-3.48194e-15
-1e-09
-1.06414e-14
-3.48522e-15
-1.00001e-09
-3.45202e-15
-1.00001e-09
-3.41052e-15
-9.99999e-10
-6.48667e-15
-1e-09
-8.9771e-15
-1e-09
-1.05845e-14
-1.00001e-09
-1.00001e-09
-4.73993e-15
-1.46236e-14
-9.99984e-10
-8.99683e-15
-1.46445e-14
-9.99986e-10
-1.2463e-14
-1.46088e-14
-9.99989e-10
-1.48665e-14
-1.45169e-14
-9.99994e-10
-1.43029e-14
-1e-09
-4.72698e-15
-1.2474e-14
-9.9999e-10
-8.96109e-15
-1.24959e-14
-9.99991e-10
-1.23741e-14
-1.2459e-14
-9.99995e-10
-1.46943e-14
-1.23987e-14
-1e-09
-1.22667e-14
-1e-09
-4.71966e-15
-9.0674e-15
-9.99994e-10
-8.92355e-15
-9.06742e-15
-9.99996e-10
-1.23129e-14
-9.03188e-15
-9.99999e-10
-1.45695e-14
-8.98663e-15
-1e-09
-8.89754e-15
-1.00001e-09
-4.69879e-15
-4.74186e-15
-9.99998e-10
-8.88749e-15
-4.7367e-15
-9.99999e-10
-1.22675e-14
-4.72526e-15
-1e-09
-1.44823e-14
-4.70622e-15
-1.00001e-09
-4.66113e-15
-1.00001e-09
-4.67188e-15
-9.99999e-10
-8.85427e-15
-1e-09
-1.22194e-14
-1e-09
-1.4404e-14
-1.00001e-09
-1.00001e-09
-6.51148e-15
-1.99438e-14
-9.99979e-10
-1.23601e-14
-1.99839e-14
-9.99981e-10
-1.7073e-14
-1.99273e-14
-9.99986e-10
-2.02725e-14
-1.97972e-14
-9.99992e-10
-1.95549e-14
-1e-09
-6.50584e-15
-1.69987e-14
-9.99986e-10
-1.23058e-14
-1.70155e-14
-9.99989e-10
-1.69597e-14
-1.69447e-14
-9.99993e-10
-2.00888e-14
-1.68491e-14
-9.99999e-10
-1.66991e-14
-1.00001e-09
-6.48359e-15
-1.23344e-14
-9.99992e-10
-1.22336e-14
-1.23182e-14
-9.99995e-10
-1.6863e-14
-1.22562e-14
-9.99999e-10
-1.99361e-14
-1.21889e-14
-1.00001e-09
-1.20938e-14
-1.00001e-09
-6.43917e-15
-6.43987e-15
-9.99997e-10
-1.21712e-14
-6.42116e-15
-9.99999e-10
-1.67957e-14
-6.40109e-15
-1e-09
-1.9839e-14
-6.38396e-15
-1.00001e-09
-6.36037e-15
-1.00002e-09
-6.3901e-15
-9.99999e-10
-1.21217e-14
-1e-09
-1.67393e-14
-1.00001e-09
-1.97687e-14
-1.00001e-09
-1.00002e-09
-8.97539e-15
-2.72056e-14
-9.99971e-10
-1.69827e-14
-2.72186e-14
-9.99974e-10
-2.33733e-14
-2.70952e-14
-9.99981e-10
-2.76077e-14
-2.69234e-14
-9.9999e-10
-2.6709e-14
-1e-09
-8.92635e-15
-2.3132e-14
-9.99981e-10
-1.68603e-14
-2.31169e-14
-9.99984e-10
-2.3215e-14
-2.30095e-14
-9.99991e-10
-2.74528e-14
-2.28982e-14
-9.99999e-10
-2.27414e-14
-1.00001e-09
-8.85846e-15
-1.67476e-14
-9.9999e-10
-1.67515e-14
-1.67179e-14
-9.99993e-10
-2.3103e-14
-1.66498e-14
-9.99999e-10
-2.72929e-14
-1.65875e-14
-1.00001e-09
-1.65053e-14
-1.00002e-09
-8.79019e-15
-8.73781e-15
-9.99996e-10
-1.66821e-14
-8.7205e-15
-9.99999e-10
-2.30398e-14
-8.71043e-15
-1.00001e-09
-2.72084e-14
-8.70607e-15
-1.00001e-09
-8.69166e-15
-1.00002e-09
-8.73274e-15
-9.99999e-10
-1.66324e-14
-1e-09
-2.29814e-14
-1.00001e-09
-2.71296e-14
-1.00002e-09
-1.00003e-09
-1.22968e-14
-3.7029e-14
-9.99961e-10
-2.32492e-14
-3.69917e-14
-9.99965e-10
-3.19899e-14
-3.6811e-14
-9.99974e-10
-3.77402e-14
-3.66067e-14
-9.99986e-10
-3.63547e-14
-1e-09
-1.21745e-14
-3.14459e-14
-9.99974e-10
-2.30671e-14
-3.14144e-14
-9.99979e-10
-3.17849e-14
-3.1291e-14
-9.99987e-10
-3.75188e-14
-3.11572e-14
-9.99999e-10
-3.09501e-14
-1.00001e-09
-1.20711e-14
-2.27692e-14
-9.99986e-10
-2.29427e-14
-2.27583e-14
-9.9999e-10
-3.16501e-14
-2.26942e-14
-9.99999e-10
-3.73155e-14
-2.26187e-14
-1.00001e-09
-2.25176e-14
-1.00002e-09
-1.20075e-14
-1.19106e-14
-9.99994e-10
-2.28764e-14
-1.19188e-14
-9.99999e-10
-3.1573e-14
-1.19079e-14
-1.00001e-09
-3.72137e-14
-1.18883e-14
-1.00002e-09
-1.18503e-14
-1.00003e-09
-1.19614e-14
-9.99999e-10
-2.28114e-14
-1e-09
-3.14788e-14
-1.00001e-09
-3.70882e-14
-1.00002e-09
-1.00004e-09
-1.67487e-14
-5.04171e-14
-9.99946e-10
-3.1783e-14
-5.03747e-14
-9.99952e-10
-4.38116e-14
-5.0158e-14
-9.99964e-10
-5.16762e-14
-4.98628e-14
-9.9998e-10
-4.94314e-14
-1e-09
-1.65907e-14
-4.28343e-14
-9.99965e-10
-3.15638e-14
-4.28279e-14
-9.99971e-10
-4.35136e-14
-4.26761e-14
-9.99983e-10
-5.12596e-14
-4.24546e-14
-9.99999e-10
-4.21389e-14
-1.00002e-09
-1.64861e-14
-3.10725e-14
-9.99981e-10
-3.141e-14
-3.10916e-14
-9.99987e-10
-4.32908e-14
-3.09906e-14
-9.99999e-10
-5.09491e-14
-3.08407e-14
-1.00001e-09
-3.06569e-14
-1.00003e-09
-1.6433e-14
-1.6308e-14
-9.99992e-10
-3.13062e-14
-1.63245e-14
-9.99999e-10
-4.31391e-14
-1.62729e-14
-1.00001e-09
-5.07658e-14
-1.61992e-14
-1.00003e-09
-1.61037e-14
-1.00004e-09
-1.63745e-14
-9.99999e-10
-3.11801e-14
-1e-09
-4.29627e-14
-1.00002e-09
-5.05515e-14
-1.00003e-09
-1.00005e-09
-2.28283e-14
-6.88136e-14
-9.99927e-10
-4.34455e-14
-6.87968e-14
-9.99935e-10
-5.99264e-14
-6.85029e-14
-9.99951e-10
-7.05696e-14
-6.80288e-14
-9.99974e-10
-6.74035e-14
-9.99999e-10
-2.26545e-14
-5.84976e-14
-9.99952e-10
-4.31495e-14
-5.85088e-14
-9.99961e-10
-5.94523e-14
-5.82542e-14
-9.99977e-10
-6.99569e-14
-5.78627e-14
-9.99999e-10
-5.73769e-14
-1.00002e-09
-2.25305e-14
-4.24862e-14
-9.99974e-10
-4.28913e-14
-4.24915e-14
-9.99983e-10
-5.906e-14
-4.22893e-14
-9.99998e-10
-6.94749e-14
-4.2004e-14
-1.00002e-09
-4.16591e-14
-1.00005e-09
-2.2437e-14
-2.232e-14
-9.9999e-10
-4.26852e-14
-2.23068e-14
-9.99998e-10
-5.87723e-14
-2.21907e-14
-1.00001e-09
-6.91294e-14
-2.20405e-14
-1.00004e-09
-2.18573e-14
-1.00006e-09
-2.23202e-14
-9.99998e-10
-4.2467e-14
-1.00001e-09
-5.84828e-14
-1.00002e-09
-6.87851e-14
-1.00004e-09
-1.00007e-09
-3.11743e-14
-9.40444e-14
-9.999e-10
-5.93481e-14
-9.40037e-14
-9.99912e-10
-8.17822e-14
-9.35087e-14
-9.99934e-10
-9.61591e-14
-9.27494e-14
-9.99964e-10
-9.18668e-14
-9.99999e-10
-3.09191e-14
-7.99552e-14
-9.99936e-10
-5.88503e-14
-7.99173e-14
-9.99947e-10
-8.10249e-14
-7.94654e-14
-9.99968e-10
-9.52864e-14
-7.88265e-14
-9.99998e-10
-7.80823e-14
-1.00003e-09
-3.06966e-14
-5.80685e-14
-9.99965e-10
-5.83942e-14
-5.80169e-14
-9.99977e-10
-8.03857e-14
-5.76711e-14
-9.99998e-10
-9.4544e-14
-5.72016e-14
-1.00003e-09
-5.66362e-14
-1.00006e-09
-3.05108e-14
-3.04942e-14
-9.99987e-10
-5.80431e-14
-3.04514e-14
-9.99998e-10
-7.9912e-14
-3.02653e-14
-1.00002e-09
-9.39759e-14
-3.00239e-14
-1.00005e-09
-2.97386e-14
-1.00008e-09
-3.03272e-14
-9.99999e-10
-5.7719e-14
-1.00001e-09
-7.94827e-14
-1.00003e-09
-9.34716e-14
-1.00006e-09
-1.00009e-09
-4.25366e-14
-1.28581e-13
-9.99865e-10
-8.09472e-14
-1.28431e-13
-9.9988e-10
-1.11386e-13
-1.27581e-13
-9.9991e-10
-1.30837e-13
-1.26415e-13
-9.99951e-10
-1.25138e-13
-9.99998e-10
-4.20934e-14
-1.09298e-13
-9.99913e-10
-8.00915e-14
-1.0916e-13
-9.99928e-10
-1.10222e-13
-1.08431e-13
-9.99957e-10
-1.29571e-13
-1.07447e-13
-9.99997e-10
-1.06319e-13
-1.00004e-09
-4.1706e-14
-7.93568e-14
-9.99954e-10
-7.93576e-14
-7.92487e-14
-9.99969e-10
-1.09237e-13
-7.87147e-14
-9.99998e-10
-1.28442e-13
-7.79948e-14
-1.00004e-09
-7.7153e-14
-1.00008e-09
-4.14153e-14
-4.16769e-14
-9.99983e-10
-7.88164e-14
-4.16176e-14
-9.99998e-10
-1.08511e-13
-4.13363e-14
-1.00003e-09
-1.27596e-13
-4.09697e-14
-1.00007e-09
-4.0552e-14
-1.00011e-09
-4.11654e-14
-9.99999e-10
-7.83489e-14
-1.00001e-09
-1.0789e-13
-1.00004e-09
-1.26881e-13
-1.00008e-09
-1.00013e-09
-5.79338e-14
-1.75937e-13
-9.99816e-10
-1.10226e-13
-1.75625e-13
-9.99837e-10
-1.51567e-13
-1.74279e-13
-9.99877e-10
-1.7803e-13
-1.72527e-13
-9.99933e-10
-1.70611e-13
-9.99998e-10
-5.72205e-14
-1.49512e-13
-9.99882e-10
-1.08872e-13
-1.49251e-13
-9.99903e-10
-1.49818e-13
-1.48127e-13
-9.99942e-10
-1.7612e-13
-1.46621e-13
-9.99997e-10
-1.44894e-13
-1.00006e-09
-5.66208e-14
-1.08539e-13
-9.99938e-10
-1.07741e-13
-1.08354e-13
-9.99959e-10
-1.4831e-13
-1.07536e-13
-9.99997e-10
-1.74392e-13
-1.06439e-13
-1.00005e-09
-1.05179e-13
-1.00011e-09
-5.6186e-14
-5.7013e-14
-9.99979e-10
-1.06914e-13
-5.69075e-14
-9.99999e-10
-1.47206e-13
-5.64776e-14
-1.00004e-09
-1.73125e-13
-5.59133e-14
-1.00009e-09
-5.52615e-14
-1.00015e-09
-5.58212e-14
-1e-09
-1.06231e-13
-1.00002e-09
-1.46296e-13
-1.00006e-09
-1.72068e-13
-1.00011e-09
-1.00017e-09
-7.88395e-14
-2.40926e-13
-9.9975e-10
-1.49975e-13
-2.40379e-13
-9.99779e-10
-2.06322e-13
-2.3832e-13
-9.99834e-10
-2.42561e-13
-2.35593e-13
-9.99909e-10
-2.32432e-13
-9.99998e-10
-7.7746e-14
-2.04665e-13
-9.99841e-10
-1.47907e-13
-2.04206e-13
-9.99869e-10
-2.03602e-13
-2.02474e-13
-9.99922e-10
-2.39408e-13
-2.0013e-13
-9.99996e-10
-1.97417e-13
-1.00008e-09
-7.68226e-14
-1.48526e-13
-9.99917e-10
-1.46165e-13
-1.48183e-13
-9.99945e-10
-2.01256e-13
-1.46931e-13
-9.99998e-10
-2.3669e-13
-1.45237e-13
-1.00007e-09
-1.43267e-13
-1.00016e-09
-7.61391e-14
-7.79884e-14
-9.99973e-10
-1.44901e-13
-7.77938e-14
-1e-09
-1.99553e-13
-7.71445e-14
-1.00005e-09
-2.34708e-13
-7.62628e-14
-1.00012e-09
-7.52085e-14
-1.00021e-09
-7.55909e-14
-1e-09
-1.43907e-13
-1.00003e-09
-1.98202e-13
-1.00008e-09
-2.33102e-13
-1.00015e-09
-1.00024e-09
-1.07236e-13
-3.30042e-13
-9.99661e-10
-2.04002e-13
-3.2911e-13
-9.997e-10
-2.80902e-13
-3.25972e-13
-9.99774e-10
-3.3039e-13
-3.21668e-13
-9.99877e-10
-3.16584e-13
-9.99998e-10
-1.05559e-13
-2.80235e-13
-9.99785e-10
-2.0085e-13
-2.79436e-13
-9.99823e-10
-2.76603e-13
-2.76785e-13
-9.99896e-10
-3.25324e-13
-2.73144e-13
-9.99996e-10
-2.68869e-13
-1.00011e-09
-1.04126e-13
-2.03263e-13
-9.9989e-10
-1.98185e-13
-2.0267e-13
-9.99928e-10
-2.72961e-13
-2.00765e-13
-9.99999e-10
-3.21042e-13
-1.98135e-13
-1.0001e-09
-1.95026e-13
-1.00021e-09
-1.0307e-13
-1.06686e-13
-9.99966e-10
-1.96262e-13
-1.06377e-13
-1e-09
-2.70319e-13
-1.05395e-13
-1.00007e-09
-3.17916e-13
-1.04014e-13
-1.00017e-09
-1.0238e-13
-1.00028e-09
-1.02282e-13
-1.00001e-09
-1.94812e-13
-1.00004e-09
-2.68302e-13
-1.00011e-09
-3.15532e-13
-1.00021e-09
-1.00032e-09
-1.45796e-13
-4.52311e-13
-9.99539e-10
-2.77483e-13
-4.50782e-13
-9.99593e-10
-3.82239e-13
-4.46e-13
-9.99694e-10
-4.49503e-13
-4.39362e-13
-9.99834e-10
-4.31674e-13
-9.99998e-10
-1.4325e-13
-3.83835e-13
-9.9971e-10
-2.7268e-13
-3.8251e-13
-9.99762e-10
-3.75596e-13
-3.78456e-13
-9.99861e-10
-4.41826e-13
-3.72841e-13
-9.99997e-10
-3.66205e-13
-1.00016e-09
-1.41062e-13
-2.78287e-13
-9.99854e-10
-2.68608e-13
-2.77323e-13
-9.99905e-10
-3.69981e-13
-2.74392e-13
-1e-09
-4.3519e-13
-2.70308e-13
-1.00013e-09
-2.6551e-13
-1.00029e-09
-1.39468e-13
-1.4605e-13
-9.99959e-10
-2.6565e-13
-1.45571e-13
-1.00001e-09
-3.65882e-13
-1.44038e-13
-1.0001e-09
-4.3037e-13
-1.41902e-13
-1.00023e-09
-1.39448e-13
-1.00039e-09
-1.38338e-13
-1.00001e-09
-2.63481e-13
-1.00006e-09
-3.62884e-13
-1.00016e-09
-4.26896e-13
-1.00029e-09
-1.00044e-09
-1.98307e-13
-6.20355e-13
-9.99375e-10
-3.77523e-13
-6.17834e-13
-9.99448e-10
-5.20014e-13
-6.1046e-13
-9.99586e-10
-6.11606e-13
-6.00282e-13
-9.99775e-10
-5.88461e-13
-9.99999e-10
-1.94396e-13
-5.26069e-13
-9.9961e-10
-3.70116e-13
-5.23892e-13
-9.9968e-10
-5.0982e-13
-5.17606e-13
-9.99814e-10
-5.99792e-13
-5.08908e-13
-9.99998e-10
-4.987e-13
-1.00022e-09
-1.91045e-13
-3.81258e-13
-9.99808e-10
-3.63808e-13
-3.7967e-13
-9.99877e-10
-5.01122e-13
-3.75082e-13
-1.00001e-09
-5.89592e-13
-3.68755e-13
-1.00019e-09
-3.6141e-13
-1.0004e-09
-1.88599e-13
-2.00087e-13
-9.99952e-10
-3.59187e-13
-1.99275e-13
-1.00002e-09
-4.94775e-13
-1.9685e-13
-1.00015e-09
-5.82223e-13
-1.93561e-13
-1.00032e-09
-1.89762e-13
-1.00053e-09
-1.86899e-13
-1.00003e-09
-3.55901e-13
-1.00009e-09
-4.90312e-13
-1.00022e-09
-5.77037e-13
-1.00039e-09
-1.0006e-09
-2.69833e-13
-8.51508e-13
-9.99153e-10
-5.13645e-13
-8.47289e-13
-9.99252e-10
-7.07446e-13
-8.3579e-13
-9.99439e-10
-8.32326e-13
-8.2005e-13
-9.99697e-10
-8.01672e-13
-1e-09
-2.63721e-13
-7.21479e-13
-9.99476e-10
-5.02106e-13
-7.17854e-13
-9.99572e-10
-6.9169e-13
-7.08009e-13
-9.99752e-10
-8.13944e-13
-6.94504e-13
-1e-09
-6.78791e-13
-1.0003e-09
-2.58496e-13
-5.22604e-13
-9.99749e-10
-4.92233e-13
-5.19938e-13
-9.99841e-10
-6.78187e-13
-5.12731e-13
-1.00002e-09
-7.98242e-13
-5.02916e-13
-1.00026e-09
-4.91497e-13
-1.00054e-09
-2.54662e-13
-2.74203e-13
-9.99946e-10
-4.84985e-13
-2.72788e-13
-1.00004e-09
-6.68342e-13
-2.68992e-13
-1.00021e-09
-7.86793e-13
-2.63842e-13
-1.00044e-09
-2.57793e-13
-1.00072e-09
-2.52038e-13
-1.00005e-09
-4.80023e-13
-1.00014e-09
-6.61591e-13
-1.00031e-09
-7.78863e-13
-1.00054e-09
-1.00082e-09
-3.67016e-13
-1.16962e-12
-9.98853e-10
-6.98625e-13
-1.16261e-12
-9.98987e-10
-9.62269e-13
-1.14466e-12
-9.99242e-10
-1.13241e-12
-1.12031e-12
-9.99593e-10
-1.09206e-12
-1.00001e-09
-3.57439e-13
-9.89999e-13
-9.99298e-10
-6.80636e-13
-9.83957e-13
-9.99427e-10
-9.3791e-13
-9.6853e-13
-9.99671e-10
-1.10414e-12
-9.4757e-13
-1.00001e-09
-9.23224e-13
-1.00041e-09
-3.49221e-13
-7.16613e-13
-9.99673e-10
-6.65175e-13
-7.12149e-13
-9.99797e-10
-9.16952e-13
-7.0086e-13
-1.00003e-09
-1.07979e-12
-6.8551e-13
-1.00036e-09
-6.67598e-13
-1.00074e-09
-3.43169e-13
-3.75841e-13
-9.99943e-10
-6.53832e-13
-3.73458e-13
-1.00006e-09
-9.01558e-13
-3.67522e-13
-1.00029e-09
-1.06183e-12
-3.59391e-13
-1.00061e-09
-3.49848e-13
-1.00098e-09
-3.3915e-13
-1.00009e-09
-6.46313e-13
-1.00021e-09
-8.91257e-13
-1.00043e-09
-1.04973e-12
-1.00074e-09
-1.00111e-09
-4.98923e-13
-1.60775e-12
-9.9845e-10
-9.49888e-13
-1.5962e-12
-9.98631e-10
-1.30875e-12
-1.56819e-12
-9.98977e-10
-1.5407e-12
-1.53043e-12
-9.99454e-10
-1.48684e-12
-1.00002e-09
-4.83886e-13
-1.35909e-12
-9.99063e-10
-9.21851e-13
-1.34908e-12
-9.99236e-10
-1.27102e-12
-1.32491e-12
-9.99565e-10
-1.49706e-12
-1.2922e-12
-1.00002e-09
-1.2543e-12
-1.00056e-09
-4.70924e-13
-9.82994e-13
-9.99578e-10
-8.9764e-13
-9.75603e-13
-9.99744e-10
-1.23831e-12
-9.57859e-13
-1.00006e-09
-1.45913e-12
-9.33685e-13
-1.0005e-09
-9.0562e-13
-1.00101e-09
-4.6138e-13
-5.15368e-13
-9.99949e-10
-8.79824e-13
-5.11452e-13
-1.00011e-09
-1.21409e-12
-5.02069e-13
-1.00041e-09
-1.43098e-12
-4.89207e-13
-1.00084e-09
-4.74268e-13
-1.00134e-09
-4.55248e-13
-1.00015e-09
-8.68294e-13
-1.0003e-09
-1.19829e-12
-1.0006e-09
-1.41256e-12
-1.00102e-09
-1.00151e-09
-6.77853e-13
-2.2117e-12
-9.97908e-10
-1.29111e-12
-2.19267e-12
-9.98153e-10
-1.77986e-12
-2.14877e-12
-9.98622e-10
-2.09618e-12
-2.08995e-12
-9.99271e-10
-2.02246e-12
-1.00004e-09
-6.54114e-13
-1.8666e-12
-9.98754e-10
-1.24721e-12
-1.85009e-12
-9.98986e-10
-1.72109e-12
-1.81204e-12
-9.99429e-10
-2.02862e-12
-1.76065e-12
-1.00004e-09
-1.70151e-12
-1.00077e-09
-6.33611e-13
-1.34902e-12
-9.99462e-10
-1.20914e-12
-1.33679e-12
-9.99682e-10
-1.66971e-12
-1.30868e-12
-1.0001e-09
-1.96941e-12
-1.27044e-12
-1.00069e-09
-1.22635e-12
-1.00138e-09
-6.18472e-13
-7.07259e-13
-9.99973e-10
-1.18093e-12
-7.00715e-13
-1.00018e-09
-1.63141e-12
-6.85764e-13
-1.00059e-09
-1.92518e-12
-6.6536e-13
-1.00115e-09
-6.41814e-13
-1.00182e-09
-6.08934e-13
-1.00025e-09
-1.16307e-12
-1.00045e-09
-1.60702e-12
-1.00084e-09
-1.8969e-12
-1.00139e-09
-1.00204e-09
-9.20132e-13
-3.04498e-12
-9.97183e-10
-1.75413e-12
-3.01351e-12
-9.97514e-10
-2.42032e-12
-2.9442e-12
-9.9815e-10
-2.85213e-12
-2.85204e-12
-9.99032e-10
-2.74768e-12
-1.00008e-09
-8.82337e-13
-2.56468e-12
-9.98352e-10
-1.68489e-12
-2.53732e-12
-9.98659e-10
-2.32825e-12
-2.47704e-12
-9.99252e-10
-2.74759e-12
-2.39577e-12
-1.00008e-09
-2.30313e-12
-1.00107e-09
-8.49644e-13
-1.85253e-12
-9.99325e-10
-1.6246e-12
-1.83197e-12
-9.99612e-10
-2.24704e-12
-1.78729e-12
-1.00017e-09
-2.65482e-12
-1.72643e-12
-1.00095e-09
-1.65676e-12
-1.00188e-09
-8.25194e-13
-9.71848e-13
-1.00003e-09
-1.57975e-12
-9.60689e-13
-1.0003e-09
-2.18612e-12
-9.37005e-13
-1.00083e-09
-2.5849e-12
-9.04479e-13
-1.00157e-09
-8.67038e-13
-1.00246e-09
-8.1002e-13
-1.00041e-09
-1.55211e-12
-1.00067e-09
-2.14822e-12
-1.00119e-09
-2.54099e-12
-1.0019e-09
-1.00277e-09
-1.2471e-12
-4.19608e-12
-9.96219e-10
-2.3818e-12
-4.14334e-12
-9.96662e-10
-3.29168e-12
-4.03276e-12
-9.97521e-10
-3.88347e-12
-3.88701e-12
-9.98724e-10
-3.72489e-12
-1.00016e-09
-1.18595e-12
-3.52463e-12
-9.97837e-10
-2.27134e-12
-3.47875e-12
-9.98239e-10
-3.14609e-12
-3.38302e-12
-9.99027e-10
-3.72088e-12
-3.25336e-12
-1.00014e-09
-3.10731e-12
-1.00148e-09
-1.13312e-12
-2.54635e-12
-9.9917e-10
-2.17559e-12
-2.51097e-12
-9.99537e-10
-3.01669e-12
-2.44033e-12
-1.00027e-09
-3.57455e-12
-2.34246e-12
-1.0013e-09
-2.23142e-12
-1.00255e-09
-1.09265e-12
-1.33893e-12
-1.00014e-09
-2.10453e-12
-1.31954e-12
-1.00048e-09
-2.91887e-12
-1.28263e-12
-1.00117e-09
-3.46308e-12
-1.2299e-12
-1.00214e-09
-1.16981e-12
-1.00332e-09
-1.06797e-12
-1.00068e-09
-2.06211e-12
-1.00099e-09
-2.85895e-12
-1.00167e-09
-3.39406e-12
-1.0026e-09
-1.00374e-09
-1.68574e-12
-5.7897e-12
-9.94941e-10
-3.23155e-12
-5.69889e-12
-9.95525e-10
-4.47909e-12
-5.5199e-12
-9.96685e-10
-5.29668e-12
-5.28577e-12
-9.9833e-10
-5.03119e-12
-1.00031e-09
-1.58376e-12
-4.84208e-12
-9.97201e-10
-3.05236e-12
-4.76407e-12
-9.97705e-10
-4.24507e-12
-4.61345e-12
-9.98741e-10
-5.04092e-12
-4.40368e-12
-1.00023e-09
-4.17103e-12
-1.00205e-09
-1.49727e-12
-3.50604e-12
-9.99008e-10
-2.90142e-12
-3.44186e-12
-9.99455e-10
-4.03639e-12
-3.33287e-12
-1.00042e-09
-4.80786e-12
-3.17203e-12
-1.00176e-09
-2.99332e-12
-1.00343e-09
-1.42671e-12
-1.85541e-12
-1.00037e-09
-2.79068e-12
-1.81896e-12
-1.00074e-09
-3.87631e-12
-1.76466e-12
-1.00166e-09
-4.62826e-12
-1.67671e-12
-1.00288e-09
-1.57945e-12
-1.00444e-09
-1.38347e-12
-1.00115e-09
-2.72797e-12
-1.00147e-09
-3.77916e-12
-1.00238e-09
-4.51827e-12
-1.00354e-09
-1.00504e-09
-2.2678e-12
-8.01024e-12
-9.93232e-10
-4.38053e-12
-7.84599e-12
-9.93989e-10
-6.10299e-12
-7.54982e-12
-9.95556e-10
-7.24936e-12
-7.16216e-12
-9.97826e-10
-6.75091e-12
-1.00062e-09
-2.08745e-12
-6.63752e-12
-9.96487e-10
-4.08095e-12
-6.50286e-12
-9.97054e-10
-5.71432e-12
-6.27582e-12
-9.98381e-10
-6.83565e-12
-5.92855e-12
-1.00034e-09
-5.55242e-12
-1.0028e-09
-1.94447e-12
-4.84545e-12
-9.98856e-10
-3.85161e-12
-4.71224e-12
-9.99339e-10
-5.37177e-12
-4.55949e-12
-1.00061e-09
-6.45946e-12
-4.28336e-12
-1.00232e-09
-3.99469e-12
-1.00453e-09
-1.80397e-12
-2.6031e-12
-1.0008e-09
-3.68941e-12
-2.52111e-12
-1.00104e-09
-5.09972e-12
-2.46045e-12
-1.00235e-09
-6.16822e-12
-2.30412e-12
-1.00379e-09
-2.14847e-12
-1.00584e-09
-1.71719e-12
-1.00204e-09
-3.61109e-12
-1.0021e-09
-4.93287e-12
-1.00352e-09
-5.99259e-12
-1.00478e-09
-1.00676e-09
-3.02954e-12
-1.11705e-11
-9.90792e-10
-5.93837e-12
-1.08436e-11
-9.918e-10
-8.34499e-12
-1.03321e-11
-9.93956e-10
-9.99006e-12
-9.65189e-12
-9.97181e-10
-8.93587e-12
-1.00119e-09
-2.66731e-12
-9.02022e-12
-9.9597e-10
-5.40379e-12
-8.79062e-12
-9.9637e-10
-7.65528e-12
-8.50134e-12
-9.97961e-10
-9.27157e-12
-7.90487e-12
-1.00047e-09
-7.28517e-12
-1.00365e-09
-2.44131e-12
-6.76222e-12
-9.98673e-10
-5.09994e-12
-6.40779e-12
-9.99063e-10
-7.07821e-12
-6.27647e-12
-1.00086e-09
-8.65506e-12
-5.75163e-12
-1.0029e-09
-5.29698e-12
-1.00566e-09
-2.12385e-12
-3.74651e-12
-1.0017e-09
-4.90579e-12
-3.5102e-12
-1.00116e-09
-6.56787e-12
-3.54555e-12
-1.00341e-09
-8.18994e-12
-3.22009e-12
-1.0047e-09
-2.99137e-12
-1.00734e-09
-1.95236e-12
-1.00383e-09
-4.86437e-12
-1.00269e-09
-6.23774e-12
-1.0057e-09
-7.92266e-12
-1.00632e-09
-1.00902e-09
-4.04707e-12
-1.59398e-11
-9.86477e-10
-8.09812e-12
-1.518e-11
-9.88186e-10
-1.15237e-11
-1.4227e-11
-9.91373e-10
-1.39361e-11
-1.2916e-11
-9.96366e-10
-1.14412e-11
-1.00227e-09
-3.14843e-12
-1.18982e-11
-9.96863e-10
-7.00165e-12
-1.15414e-11
-9.96156e-10
-1.01479e-11
-1.14197e-11
-9.97622e-10
-1.24692e-11
-1.03449e-11
-1.00072e-09
-9.30652e-12
-1.00391e-09
-2.94223e-12
-9.68888e-12
-9.9794e-10
-6.79321e-12
-8.51458e-12
-9.98239e-10
-9.14015e-12
-8.82097e-12
-1.00111e-09
-1.14476e-11
-7.57694e-12
-1.00336e-09
-6.97319e-12
-1.00591e-09
-2.19669e-12
-5.63021e-12
-1.00356e-09
-6.65044e-12
-4.87645e-12
-1.00034e-09
-8.05014e-12
-5.49086e-12
-1.00534e-09
-1.08019e-11
-4.60215e-12
-1.00493e-09
-4.39593e-12
-1.0081e-09
-1.91394e-12
-1.00755e-09
-6.80397e-12
-1.00268e-09
-7.43115e-12
-1.01056e-09
-1.05006e-11
-1.00785e-09
-1.01197e-09
-5.75673e-12
-2.37701e-11
-9.76674e-10
-1.13401e-11
-2.19449e-11
-9.80978e-10
-1.64005e-11
-2.00158e-11
-9.85994e-10
-1.97966e-11
-1.72377e-11
-9.95658e-10
-1.33795e-11
-1.00427e-09
-2.96046e-12
-1.49122e-11
-1.00276e-09
-8.51898e-12
-1.42009e-11
-9.98342e-10
-1.31674e-11
-1.51164e-11
-9.97873e-10
-1.62051e-11
-1.30343e-11
-1.00188e-09
-1.13214e-11
-1.00071e-09
-3.63786e-12
-1.46916e-11
-9.94523e-10
-9.24262e-12
-1.06867e-11
-9.96149e-10
-1.14925e-11
-1.30637e-11
-1.00091e-09
-1.47206e-11
-9.32786e-12
-1.00383e-09
-9.23883e-12
-1.00245e-09
-1.65925e-12
-8.94286e-12
-1.00765e-09
-9.12174e-12
-6.70493e-12
-9.96864e-10
-9.1939e-12
-9.48695e-12
-1.00885e-09
-1.40121e-11
-6.74291e-12
-1.00269e-09
-7.18467e-12
-1.00565e-09
-1.33797e-12
-1.01515e-09
-9.93142e-12
-1.00079e-09
-8.31623e-12
-1.02166e-09
-1.4092e-11
-1.00882e-09
-1.01617e-09
-9.68798e-12
-3.63628e-11
-9.54189e-10
-1.69231e-11
-3.32522e-11
-9.66383e-10
-2.5454e-11
-2.93473e-11
-9.71899e-10
-2.92841e-11
-2.34185e-11
-9.97106e-10
-1.24564e-11
-1.0078e-09
-8.8043e-13
-1.80236e-11
-1.02022e-09
-8.37314e-12
-1.59513e-11
-1.00815e-09
-1.60267e-11
-1.99383e-11
-9.99629e-10
-2.05216e-11
-1.50955e-11
-1.00571e-09
-1.27719e-11
-9.8723e-10
-5.55161e-12
-2.35807e-11
-9.83415e-10
-1.30832e-11
-1.18608e-11
-9.92708e-10
-1.45772e-11
-2.12239e-11
-9.98134e-10
-1.91978e-11
-9.92582e-12
-1.00438e-09
-1.32045e-11
-9.89356e-10
7.19518e-13
-1.48129e-11