/*--------------------------------*- C++ -*----------------------------------*\
| =========                 |                                                 |
| \\      /  F ield         | OpenFOAM: The Open Source CFD Toolbox           |
|  \\    /   O peration     | Version:  5.x                                   |
|   \\  /    A nd           | Web:      www.OpenFOAM.org                      |
|    \\/     M anipulation  |                                                 |
\*---------------------------------------------------------------------------*/
FoamFile
{
    version     2.0;
    format      ascii;
    class       volVectorField;
    location    "0.03";
    object      stored_U;
}
// * * * * * * * * * * * * * * * * * * * * * * * * * * * * * * * * * * * * * //

dimensions      [0 1 -1 0 0 0 0];

internalField   nonuniform List<vector> 
2250
(
(-1.81975e-11 -1.68779e-10 -0.000999999)
(-5.50649e-11 -1.71349e-10 -0.000999999)
(-7.60021e-11 -1.6963e-10 -0.000999999)
(-4.47268e-11 -1.57752e-10 -0.000999999)
(-1.94613e-10 -1.0658e-10 -0.000999999)
(-2.15411e-11 -1.57878e-10 -0.000999999)
(-6.26629e-11 -1.6202e-10 -0.000999999)
(-9.4776e-11 -1.64291e-10 -0.001)
(-1.00296e-10 -1.78031e-10 -0.001)
(-1.27713e-10 -2.30277e-10 -0.001)
(-2.19862e-11 -1.22939e-10 -0.001)
(-6.11269e-11 -1.23312e-10 -0.001)
(-9.20047e-11 -1.19514e-10 -0.001)
(-1.10689e-10 -1.16566e-10 -0.001)
(-1.25078e-10 -1.28686e-10 -0.001)
(-2.16259e-11 -7.72355e-11 -0.001)
(-5.89516e-11 -7.62224e-11 -0.001)
(-8.80186e-11 -7.35234e-11 -0.001)
(-1.09455e-10 -7.02857e-11 -0.001)
(-1.27673e-10 -7.06954e-11 -0.001)
(-2.07596e-11 -2.60873e-11 -0.001)
(-5.7133e-11 -2.53154e-11 -0.001)
(-8.58989e-11 -2.44295e-11 -0.001)
(-1.07649e-10 -2.33598e-11 -0.001)
(-1.28738e-10 -2.28281e-11 -0.001)
(-6.17046e-11 -4.92665e-10 -0.000999999)
(-1.79334e-10 -4.9748e-10 -0.000999999)
(-2.5315e-10 -4.94568e-10 -0.000999999)
(-1.92717e-10 -4.70336e-10 -0.001)
(-5.00878e-10 -3.26913e-10 -0.001)
(-6.52552e-11 -4.54566e-10 -0.000999999)
(-1.85774e-10 -4.58522e-10 -0.000999999)
(-2.78555e-10 -4.56941e-10 -0.001)
(-2.96508e-10 -4.79433e-10 -0.001)
(-4.05169e-10 -5.91879e-10 -0.001)
(-6.46579e-11 -3.50824e-10 -0.001)
(-1.80724e-10 -3.48901e-10 -0.001)
(-2.74034e-10 -3.40095e-10 -0.001)
(-3.27668e-10 -3.36025e-10 -0.001)
(-3.86931e-10 -3.75223e-10 -0.001)
(-6.2551e-11 -2.1852e-10 -0.001)
(-1.74268e-10 -2.14558e-10 -0.001)
(-2.65649e-10 -2.08622e-10 -0.001)
(-3.31612e-10 -2.02855e-10 -0.001)
(-3.87039e-10 -2.13422e-10 -0.001)
(-6.01231e-11 -7.33447e-11 -0.001)
(-1.70035e-10 -7.11491e-11 -0.001)
(-2.6181e-10 -6.95623e-11 -0.001)
(-3.31827e-10 -6.78234e-11 -0.001)
(-3.89184e-10 -7.04086e-11 -0.001)
(-1.20079e-10 -8.4451e-10 -0.000999999)
(-3.4612e-10 -8.49719e-10 -0.000999999)
(-5.19176e-10 -8.51985e-10 -0.000999999)
(-6.06249e-10 -8.51033e-10 -0.001)
(-6.29262e-10 -8.12235e-10 -0.001)
(-1.16375e-10 -7.67478e-10 -0.000999999)
(-3.30133e-10 -7.63044e-10 -0.000999999)
(-5.005e-10 -7.4601e-10 -0.001)
(-5.98372e-10 -7.4032e-10 -0.001)
(-7.15954e-10 -7.52732e-10 -0.001)
(-1.13987e-10 -5.91953e-10 -0.001)
(-3.23031e-10 -5.87859e-10 -0.001)
(-4.96427e-10 -5.79317e-10 -0.001)
(-6.12975e-10 -5.77334e-10 -0.001)
(-7.07099e-10 -5.96765e-10 -0.001)
(-1.11019e-10 -3.70772e-10 -0.001)
(-3.16235e-10 -3.66481e-10 -0.001)
(-4.89923e-10 -3.6206e-10 -0.001)
(-6.15796e-10 -3.58999e-10 -0.001)
(-7.04031e-10 -3.68675e-10 -0.001)
(-1.08746e-10 -1.24936e-10 -0.001)
(-3.12935e-10 -1.23086e-10 -0.001)
(-4.87923e-10 -1.22492e-10 -0.001)
(-6.18304e-10 -1.22095e-10 -0.001)
(-7.04054e-10 -1.26269e-10 -0.001)
(-1.84032e-10 -1.25014e-09 -0.000999999)
(-5.31245e-10 -1.25443e-09 -0.000999999)
(-8.2915e-10 -1.25895e-09 -0.000999999)
(-1.12998e-09 -1.28018e-09 -0.000999999)
(-8.63979e-10 -1.3985e-09 -0.001)
(-1.78257e-10 -1.12815e-09 -0.000999999)
(-5.09624e-10 -1.12262e-09 -0.000999999)
(-7.85478e-10 -1.10413e-09 -0.001)
(-1.01029e-09 -1.07577e-09 -0.001)
(-1.07251e-09 -9.65512e-10 -0.001)
(-1.76189e-10 -8.77251e-10 -0.001)
(-5.04942e-10 -8.75401e-10 -0.001)
(-7.82251e-10 -8.71352e-10 -0.001)
(-9.91362e-10 -8.69621e-10 -0.001)
(-1.091e-09 -8.4482e-10 -0.001)
(-1.7463e-10 -5.58141e-10 -0.001)
(-5.01941e-10 -5.57146e-10 -0.001)
(-7.7962e-10 -5.56346e-10 -0.001)
(-9.83703e-10 -5.55777e-10 -0.001)
(-1.09092e-09 -5.49762e-10 -0.001)
(-1.73738e-10 -1.9047e-10 -0.001)
(-5.01027e-10 -1.90346e-10 -0.001)
(-7.79233e-10 -1.90979e-10 -0.001)
(-9.8271e-10 -1.91571e-10 -0.001)
(-1.08823e-09 -1.92022e-10 -0.001)
(-2.57384e-10 -1.76885e-09 -0.000999998)
(-7.45416e-10 -1.77507e-09 -0.000999999)
(-1.16662e-09 -1.77756e-09 -0.000999999)
(-1.5874e-09 -1.79077e-09 -0.000999999)
(-1.4444e-09 -1.93916e-09 -0.001)
(-2.57764e-10 -1.59523e-09 -0.000999999)
(-7.4336e-10 -1.5992e-09 -0.000999999)
(-1.15348e-09 -1.59647e-09 -0.000999999)
(-1.49927e-09 -1.58421e-09 -0.001)
(-1.55494e-09 -1.47658e-09 -0.001)
(-2.58224e-10 -1.25673e-09 -0.000999999)
(-7.43533e-10 -1.26075e-09 -0.001)
(-1.15156e-09 -1.2604e-09 -0.001)
(-1.4675e-09 -1.25729e-09 -0.001)
(-1.5733e-09 -1.21168e-09 -0.001)
(-2.59344e-10 -8.09847e-10 -0.001)
(-7.44547e-10 -8.13274e-10 -0.001)
(-1.1499e-09 -8.13578e-10 -0.001)
(-1.45048e-09 -8.11831e-10 -0.001)
(-1.57565e-09 -7.92133e-10 -0.001)
(-2.59627e-10 -2.79167e-10 -0.001)
(-7.44206e-10 -2.80471e-10 -0.001)
(-1.14774e-09 -2.80844e-10 -0.001)
(-1.4431e-09 -2.8061e-10 -0.001)
(-1.57213e-09 -2.76357e-10 -0.001)
(-3.55879e-10 -2.4644e-09 -0.000999998)
(-1.03067e-09 -2.47679e-09 -0.000999998)
(-1.59069e-09 -2.47883e-09 -0.000999998)
(-2.06309e-09 -2.45727e-09 -0.000999999)
(-2.30085e-09 -2.48213e-09 -0.001)
(-3.63905e-10 -2.22986e-09 -0.000999999)
(-1.05331e-09 -2.24527e-09 -0.000999999)
(-1.63129e-09 -2.25944e-09 -0.000999999)
(-2.06938e-09 -2.28476e-09 -0.001)
(-2.22932e-09 -2.25726e-09 -0.001)
(-3.67033e-10 -1.77405e-09 -0.000999999)
(-1.05594e-09 -1.78354e-09 -0.001)
(-1.63005e-09 -1.78149e-09 -0.001)
(-2.06084e-09 -1.77593e-09 -0.001)
(-2.21221e-09 -1.75608e-09 -0.001)
(-3.69999e-10 -1.1478e-09 -0.001)
(-1.05728e-09 -1.15312e-09 -0.001)
(-1.62354e-09 -1.14956e-09 -0.001)
(-2.04388e-09 -1.14152e-09 -0.001)
(-2.2099e-09 -1.12374e-09 -0.001)
(-3.69473e-10 -3.96683e-10 -0.001)
(-1.05341e-09 -3.97604e-10 -0.001)
(-1.6152e-09 -3.95618e-10 -0.001)
(-2.03097e-09 -3.92405e-10 -0.001)
(-2.20606e-09 -3.86641e-10 -0.001)
(-4.94781e-10 -3.39794e-09 -0.000999997)
(-1.43427e-09 -3.41789e-09 -0.000999997)
(-2.20207e-09 -3.42302e-09 -0.000999998)
(-2.72382e-09 -3.37844e-09 -0.000999999)
(-3.31578e-09 -3.24035e-09 -0.001)
(-5.0535e-10 -3.0835e-09 -0.000999998)
(-1.46275e-09 -3.10414e-09 -0.000999998)
(-2.26212e-09 -3.11807e-09 -0.000999999)
(-2.81469e-09 -3.15653e-09 -0.001)
(-3.12695e-09 -3.22085e-09 -0.001)
(-5.09536e-10 -2.46131e-09 -0.000999999)
(-1.46283e-09 -2.47256e-09 -0.000999999)
(-2.25435e-09 -2.46294e-09 -0.001)
(-2.82667e-09 -2.44909e-09 -0.001)
(-3.07481e-09 -2.46212e-09 -0.001)
(-5.11867e-10 -1.58805e-09 -0.001)
(-1.4595e-09 -1.59051e-09 -0.001)
(-2.23844e-09 -1.57941e-09 -0.001)
(-2.81374e-09 -1.56216e-09 -0.001)
(-3.06218e-09 -1.55494e-09 -0.001)
(-5.07947e-10 -5.47028e-10 -0.001)
(-1.44821e-09 -5.45134e-10 -0.001)
(-2.22153e-09 -5.3962e-10 -0.001)
(-2.7967e-09 -5.32554e-10 -0.001)
(-3.05628e-09 -5.27932e-10 -0.001)
(-6.84696e-10 -4.64225e-09 -0.000999996)
(-1.98885e-09 -4.66561e-09 -0.000999997)
(-3.0708e-09 -4.67114e-09 -0.000999997)
(-3.76012e-09 -4.64011e-09 -0.000999999)
(-4.46324e-09 -4.44146e-09 -0.001)
(-6.92195e-10 -4.21384e-09 -0.000999998)
(-2.0019e-09 -4.23196e-09 -0.000999998)
(-3.0993e-09 -4.22795e-09 -0.000999999)
(-3.84311e-09 -4.23899e-09 -0.001)
(-4.29332e-09 -4.31771e-09 -0.001)
(-6.94694e-10 -3.35722e-09 -0.000999999)
(-1.99468e-09 -3.36517e-09 -0.000999999)
(-3.07766e-09 -3.34548e-09 -0.001)
(-3.84986e-09 -3.31874e-09 -0.001)
(-4.23462e-09 -3.33827e-09 -0.001)
(-6.93642e-10 -2.15494e-09 -0.001)
(-1.98347e-09 -2.1507e-09 -0.001)
(-3.05259e-09 -2.13291e-09 -0.001)
(-3.83573e-09 -2.10927e-09 -0.001)
(-4.21515e-09 -2.10731e-09 -0.001)
(-6.84978e-10 -7.38553e-10 -0.001)
(-1.96455e-09 -7.32605e-10 -0.001)
(-3.03016e-09 -7.24881e-10 -0.001)
(-3.81674e-09 -7.16069e-10 -0.001)
(-4.20621e-09 -7.1324e-10 -0.001)
(-9.37397e-10 -6.30428e-09 -0.000999995)
(-2.72395e-09 -6.32324e-09 -0.000999995)
(-4.22655e-09 -6.32005e-09 -0.000999996)
(-5.25535e-09 -6.30671e-09 -0.000999998)
(-5.90517e-09 -6.18765e-09 -0.001)
(-9.38967e-10 -5.71e-09 -0.000999997)
(-2.71539e-09 -5.72056e-09 -0.000999997)
(-4.21079e-09 -5.69679e-09 -0.000999998)
(-5.25834e-09 -5.67374e-09 -0.001)
(-5.83477e-09 -5.68383e-09 -0.001)
(-9.36967e-10 -4.53116e-09 -0.000999998)
(-2.69953e-09 -4.53207e-09 -0.000999999)
(-4.17949e-09 -4.50635e-09 -0.001)
(-5.24239e-09 -4.47374e-09 -0.001)
(-5.79363e-09 -4.47181e-09 -0.001)
(-9.3115e-10 -2.89684e-09 -0.000999999)
(-2.68158e-09 -2.88669e-09 -0.001)
(-4.15209e-09 -2.86818e-09 -0.001)
(-5.22357e-09 -2.8464e-09 -0.001)
(-5.77778e-09 -2.84126e-09 -0.001)
(-9.19528e-10 -9.89662e-10 -0.001)
(-2.65999e-09 -9.8167e-10 -0.001)
(-4.13093e-09 -9.7514e-10 -0.001)
(-5.20516e-09 -9.68535e-10 -0.001)
(-5.76716e-09 -9.66833e-10 -0.001)
(-1.27377e-09 -8.54253e-09 -0.000999993)
(-3.6951e-09 -8.55198e-09 -0.000999994)
(-5.73683e-09 -8.53477e-09 -0.000999995)
(-7.19729e-09 -8.51943e-09 -0.000999997)
(-7.96632e-09 -8.47515e-09 -0.001)
(-1.26828e-09 -7.71193e-09 -0.000999996)
(-3.67238e-09 -7.7137e-09 -0.000999996)
(-5.70376e-09 -7.68352e-09 -0.000999998)
(-7.16677e-09 -7.65368e-09 -0.001)
(-7.94541e-09 -7.63175e-09 -0.001)
(-1.26078e-09 -6.10223e-09 -0.000999998)
(-3.6516e-09 -6.09742e-09 -0.000999998)
(-5.67648e-09 -6.07492e-09 -0.001)
(-7.14552e-09 -6.05114e-09 -0.001)
(-7.91513e-09 -6.03862e-09 -0.001)
(-1.25179e-09 -3.89658e-09 -0.000999999)
(-3.63299e-09 -3.88698e-09 -0.001)
(-5.65697e-09 -3.87519e-09 -0.001)
(-7.13014e-09 -3.86337e-09 -0.001)
(-7.90555e-09 -3.85746e-09 -0.00100001)
(-1.24139e-09 -1.33165e-09 -0.001)
(-3.61552e-09 -1.32613e-09 -0.001)
(-5.64154e-09 -1.32371e-09 -0.001)
(-7.11364e-09 -1.32168e-09 -0.001)
(-7.89201e-09 -1.32108e-09 -0.00100001)
(-1.72783e-09 -1.15856e-08 -0.000999991)
(-5.00774e-09 -1.15893e-08 -0.000999992)
(-7.77445e-09 -1.15649e-08 -0.000999994)
(-9.79279e-09 -1.15389e-08 -0.000999996)
(-1.08422e-08 -1.15295e-08 -0.001)
(-1.71459e-09 -1.04301e-08 -0.000999994)
(-4.97581e-09 -1.04259e-08 -0.000999995)
(-7.74256e-09 -1.04e-08 -0.000999997)
(-9.75327e-09 -1.0382e-08 -0.001)
(-1.08696e-08 -1.03534e-08 -0.001)
(-1.70376e-09 -8.24956e-09 -0.000999997)
(-4.95719e-09 -8.24607e-09 -0.000999998)
(-7.73004e-09 -8.2349e-09 -0.001)
(-9.74618e-09 -8.22735e-09 -0.001)
(-1.08263e-08 -8.22449e-09 -0.00100001)
(-1.69532e-09 -5.27444e-09 -0.000999999)
(-4.94482e-09 -5.27342e-09 -0.001)
(-7.72314e-09 -5.27116e-09 -0.001)
(-9.74243e-09 -5.26892e-09 -0.00100001)
(-1.08095e-08 -5.26882e-09 -0.00100001)
(-1.6894e-09 -1.80739e-09 -0.001)
(-4.9339e-09 -1.80811e-09 -0.001)
(-7.71e-09 -1.80948e-09 -0.001)
(-9.72448e-09 -1.81004e-09 -0.00100001)
(-1.07839e-08 -1.81048e-09 -0.00100001)
(-2.3488e-09 -1.5754e-08 -0.000999987)
(-6.81623e-09 -1.57596e-08 -0.000999989)
(-1.06147e-08 -1.57371e-08 -0.000999991)
(-1.3407e-08 -1.57245e-08 -0.000999995)
(-1.47416e-08 -1.57463e-08 -0.001)
(-2.32834e-09 -1.41666e-08 -0.000999992)
(-6.77145e-09 -1.41621e-08 -0.000999993)
(-1.05587e-08 -1.41351e-08 -0.000999996)
(-1.33337e-08 -1.40979e-08 -0.001)
(-1.48461e-08 -1.40357e-08 -0.001)
(-2.31734e-09 -1.1217e-08 -0.000999996)
(-6.7571e-09 -1.1222e-08 -0.000999998)
(-1.05498e-08 -1.12188e-08 -0.001)
(-1.33075e-08 -1.12111e-08 -0.001)
(-1.47975e-08 -1.11853e-08 -0.00100001)
(-2.31183e-09 -7.18718e-09 -0.000999999)
(-6.75109e-09 -7.19787e-09 -0.001)
(-1.05469e-08 -7.19893e-09 -0.001)
(-1.32996e-08 -7.19478e-09 -0.00100001)
(-1.47587e-08 -7.1863e-09 -0.00100001)
(-2.3098e-09 -2.46974e-09 -0.001)
(-6.74149e-09 -2.47681e-09 -0.001)
(-1.05255e-08 -2.47799e-09 -0.001)
(-1.32685e-08 -2.47599e-09 -0.00100001)
(-1.47093e-08 -2.4727e-09 -0.00100001)
(-3.20094e-09 -2.14839e-08 -0.000999983)
(-9.30771e-09 -2.14925e-08 -0.000999985)
(-1.45436e-08 -2.146e-08 -0.000999988)
(-1.84638e-08 -2.14571e-08 -0.000999994)
(-2.00365e-08 -2.15725e-08 -0.001)
(-3.17731e-09 -1.93268e-08 -0.000999989)
(-9.24957e-09 -1.93285e-08 -0.000999991)
(-1.4438e-08 -1.92864e-08 -0.000999995)
(-1.8282e-08 -1.91898e-08 -0.001)
(-2.0215e-08 -1.90014e-08 -0.00100001)
(-3.16597e-09 -1.53195e-08 -0.000999995)
(-9.22973e-09 -1.53327e-08 -0.000999997)
(-1.4404e-08 -1.53196e-08 -0.001)
(-1.81788e-08 -1.52812e-08 -0.00100001)
(-2.01688e-08 -1.51703e-08 -0.00100001)
(-3.16121e-09 -9.83153e-09 -0.000999999)
(-9.2194e-09 -9.84868e-09 -0.001)
(-1.43851e-08 -9.83967e-09 -0.001)
(-1.81319e-08 -9.81734e-09 -0.00100001)
(-2.01056e-08 -9.76836e-09 -0.00100002)
(-3.1582e-09 -3.38365e-09 -0.001)
(-9.20047e-09 -3.39311e-09 -0.001)
(-1.43437e-08 -3.38916e-09 -0.00100001)
(-1.80715e-08 -3.37981e-09 -0.00100001)
(-2.00276e-08 -3.36398e-09 -0.00100002)
(-4.37043e-09 -2.93599e-08 -0.000999976)
(-1.27169e-08 -2.93639e-08 -0.000999979)
(-1.98746e-08 -2.92856e-08 -0.000999984)
(-2.52541e-08 -2.92224e-08 -0.000999992)
(-2.74448e-08 -2.93428e-08 -0.001)
(-4.34522e-09 -2.64337e-08 -0.000999985)
(-1.26448e-08 -2.64418e-08 -0.000999988)
(-1.97226e-08 -2.63699e-08 -0.000999993)
(-2.49765e-08 -2.62111e-08 -0.001)
(-2.75299e-08 -2.59062e-08 -0.00100001)
(-4.32833e-09 -2.09642e-08 -0.000999993)
(-1.26016e-08 -2.0977e-08 -0.000999996)
(-1.96428e-08 -2.09314e-08 -0.001)
(-2.47904e-08 -2.08455e-08 -0.00100001)
(-2.74428e-08 -2.06452e-08 -0.00100002)
(-4.31799e-09 -1.34621e-08 -0.000999999)
(-1.25706e-08 -1.34758e-08 -0.001)
(-1.95893e-08 -1.34432e-08 -0.00100001)
(-2.46892e-08 -1.33917e-08 -0.00100001)
(-2.73477e-08 -1.32922e-08 -0.00100002)
(-4.30796e-09 -4.63427e-09 -0.001)
(-1.25317e-08 -4.64126e-09 -0.001)
(-1.95192e-08 -4.62868e-09 -0.00100001)
(-2.45904e-08 -4.60953e-09 -0.00100002)
(-2.72385e-08 -4.57783e-09 -0.00100002)
(-5.97259e-09 -4.01614e-08 -0.000999968)
(-1.73689e-08 -4.01537e-08 -0.000999971)
(-2.70871e-08 -4.00012e-08 -0.000999979)
(-3.43096e-08 -3.98107e-08 -0.000999989)
(-3.76353e-08 -3.97829e-08 -0.001)
(-5.93635e-09 -3.61789e-08 -0.00099998)
(-1.72604e-08 -3.61807e-08 -0.000999984)
(-2.68854e-08 -3.60543e-08 -0.000999991)
(-3.39701e-08 -3.58399e-08 -0.001)
(-3.75172e-08 -3.54741e-08 -0.00100001)
(-5.90577e-09 -2.86965e-08 -0.000999991)
(-1.7174e-08 -2.86982e-08 -0.000999995)
(-2.67447e-08 -2.8601e-08 -0.001)
(-3.37293e-08 -2.8459e-08 -0.00100001)
(-3.73311e-08 -2.82109e-08 -0.00100002)
(-5.88327e-09 -1.84259e-08 -0.000999999)
(-1.71084e-08 -1.84282e-08 -0.001)
(-2.66438e-08 -1.83629e-08 -0.00100001)
(-3.35785e-08 -1.82742e-08 -0.00100002)
(-3.71817e-08 -1.81364e-08 -0.00100003)
(-5.86173e-09 -6.34036e-09 -0.001)
(-1.70414e-08 -6.34204e-09 -0.00100001)
(-2.65369e-08 -6.31879e-09 -0.00100001)
(-3.34361e-08 -6.28729e-09 -0.00100002)
(-3.70288e-08 -6.24181e-09 -0.00100003)
(-8.15295e-09 -5.49427e-08 -0.000999956)
(-2.36953e-08 -5.49174e-08 -0.000999961)
(-3.68972e-08 -5.46741e-08 -0.000999971)
(-4.6579e-08 -5.43461e-08 -0.000999984)
(-5.13881e-08 -5.41056e-08 -0.001)
(-8.09114e-09 -4.95119e-08 -0.000999973)
(-2.35137e-08 -4.9491e-08 -0.000999978)
(-3.66021e-08 -4.92766e-08 -0.000999988)
(-4.61672e-08 -4.89694e-08 -0.001)
(-5.10806e-08 -4.8546e-08 -0.00100002)
(-8.03828e-09 -3.92688e-08 -0.000999988)
(-2.33638e-08 -3.92509e-08 -0.000999993)
(-3.63735e-08 -3.90844e-08 -0.001)
(-4.58485e-08 -3.88601e-08 -0.00100002)
(-5.07698e-08 -3.85486e-08 -0.00100003)
(-7.99851e-09 -2.52066e-08 -0.000999998)
(-2.3252e-08 -2.51942e-08 -0.001)
(-3.6208e-08 -2.50865e-08 -0.00100001)
(-4.56294e-08 -2.49431e-08 -0.00100003)
(-5.05369e-08 -2.47536e-08 -0.00100004)
(-7.96265e-09 -8.66957e-09 -0.001)
(-2.31489e-08 -8.66536e-09 -0.00100001)
(-3.60493e-08 -8.62823e-09 -0.00100002)
(-4.54246e-08 -8.57773e-09 -0.00100003)
(-5.03169e-08 -8.51262e-09 -0.00100005)
(-1.11068e-08 -7.51605e-08 -0.00099994)
(-3.22752e-08 -7.51026e-08 -0.000999947)
(-5.02387e-08 -7.47287e-08 -0.000999961)
(-6.33359e-08 -7.4222e-08 -0.000999979)
(-7.00538e-08 -7.37334e-08 -0.001)
(-1.10084e-08 -6.77453e-08 -0.000999964)
(-3.19909e-08 -6.76898e-08 -0.000999971)
(-4.97979e-08 -6.73528e-08 -0.000999984)
(-6.2775e-08 -6.68917e-08 -0.001)
(-6.95117e-08 -6.63245e-08 -0.00100002)
(-1.09233e-08 -5.37219e-08 -0.000999983)
(-3.17514e-08 -5.36759e-08 -0.00099999)
(-4.94377e-08 -5.34119e-08 -0.001)
(-6.23076e-08 -5.30563e-08 -0.00100002)
(-6.902e-08 -5.26083e-08 -0.00100004)
(-1.08604e-08 -3.44757e-08 -0.000999998)
(-3.15754e-08 -3.44455e-08 -0.001)
(-4.91739e-08 -3.42756e-08 -0.00100002)
(-6.19687e-08 -3.40453e-08 -0.00100004)
(-6.8657e-08 -3.37592e-08 -0.00100006)
(-1.08067e-08 -1.18548e-08 -0.00100001)
(-3.1422e-08 -1.18442e-08 -0.00100001)
(-4.8938e-08 -1.17856e-08 -0.00100003)
(-6.16674e-08 -1.17052e-08 -0.00100004)
(-6.83352e-08 -1.16058e-08 -0.00100006)
(-1.51189e-08 -1.0283e-07 -0.000999919)
(-4.39374e-08 -1.02714e-07 -0.000999928)
(-6.83936e-08 -1.02136e-07 -0.000999946)
(-8.61785e-08 -1.01339e-07 -0.000999971)
(-9.55188e-08 -1.0045e-07 -0.001)
(-1.49662e-08 -9.26827e-08 -0.000999951)
(-4.35024e-08 -9.25729e-08 -0.00099996)
(-6.77288e-08 -9.20556e-08 -0.000999978)
(-8.53496e-08 -9.13514e-08 -0.001)
(-9.46076e-08 -9.05182e-08 -0.00100003)
(-1.48346e-08 -7.34883e-08 -0.000999978)
(-4.31312e-08 -7.33994e-08 -0.000999987)
(-6.71681e-08 -7.29877e-08 -0.001)
(-8.4641e-08 -7.24289e-08 -0.00100003)
(-9.38153e-08 -7.17592e-08 -0.00100006)
(-1.47383e-08 -4.71564e-08 -0.000999998)
(-4.28579e-08 -4.70993e-08 -0.00100001)
(-6.67521e-08 -4.68328e-08 -0.00100002)
(-8.41173e-08 -4.64705e-08 -0.00100005)
(-9.32402e-08 -4.60391e-08 -0.00100008)
(-1.46598e-08 -1.62145e-08 -0.00100001)
(-4.26314e-08 -1.61948e-08 -0.00100002)
(-6.64037e-08 -1.61029e-08 -0.00100003)
(-8.3679e-08 -1.59782e-08 -0.00100006)
(-9.2762e-08 -1.58297e-08 -0.00100009)
(-2.05841e-08 -1.40715e-07 -0.00099989)
(-5.98292e-08 -1.40503e-07 -0.000999903)
(-9.31523e-08 -1.3962e-07 -0.000999927)
(-1.17374e-07 -1.38401e-07 -0.000999961)
(-1.30077e-07 -1.36984e-07 -0.001)
(-2.03451e-08 -1.26809e-07 -0.000999934)
(-5.91492e-08 -1.26607e-07 -0.000999946)
(-9.21085e-08 -1.25801e-07 -0.00099997)
(-1.16064e-07 -1.24692e-07 -0.001)
(-1.28702e-07 -1.23385e-07 -0.00100004)
(-2.01438e-08 -1.00536e-07 -0.000999971)
(-5.85762e-08 -1.00377e-07 -0.000999983)
(-9.12321e-08 -9.97372e-08 -0.00100001)
(-1.14957e-07 -9.88625e-08 -0.00100004)
(-1.27476e-07 -9.78274e-08 -0.00100008)
(-1.99964e-08 -6.45112e-08 -0.000999998)
(-5.81538e-08 -6.44097e-08 -0.00100001)
(-9.05854e-08 -6.39971e-08 -0.00100003)
(-1.14149e-07 -6.34356e-08 -0.00100007)
(-1.2658e-07 -6.27794e-08 -0.0010001)
(-1.9882e-08 -2.21823e-08 -0.00100001)
(-5.78222e-08 -2.21479e-08 -0.00100002)
(-9.00737e-08 -2.20069e-08 -0.00100005)
(-1.13511e-07 -2.18154e-08 -0.00100008)
(-1.2587e-07 -2.15933e-08 -0.00100012)
(-2.80243e-08 -1.92613e-07 -0.00099985)
(-8.14663e-08 -1.92242e-07 -0.000999868)
(-1.26876e-07 -1.90887e-07 -0.000999901)
(-1.59924e-07 -1.89032e-07 -0.000999947)
(-1.77067e-07 -1.8691e-07 -0.001)
(-2.76584e-08 -1.73551e-07 -0.00099991)
(-8.04162e-08 -1.73201e-07 -0.000999928)
(-1.25246e-07 -1.7195e-07 -0.00099996)
(-1.57858e-07 -1.70214e-07 -0.00100001)
(-1.74989e-07 -1.68146e-07 -0.00100006)
(-2.73501e-08 -1.37571e-07 -0.000999961)
(-7.9532e-08 -1.37296e-07 -0.000999978)
(-1.23881e-07 -1.36306e-07 -0.00100001)
(-1.5612e-07 -1.34946e-07 -0.00100006)
(-1.73125e-07 -1.33322e-07 -0.00100011)
(-2.71241e-08 -8.82696e-08 -0.000999998)
(-7.88834e-08 -8.80947e-08 -0.00100002)
(-1.22885e-07 -8.74608e-08 -0.00100005)
(-1.54866e-07 -8.65934e-08 -0.00100009)
(-1.71753e-07 -8.55741e-08 -0.00100014)
(-2.69567e-08 -3.03513e-08 -0.00100002)
(-7.83962e-08 -3.02929e-08 -0.00100003)
(-1.22129e-07 -3.00771e-08 -0.00100007)
(-1.53922e-07 -2.97817e-08 -0.00100011)
(-1.70707e-07 -2.94387e-08 -0.00100016)
(-3.81481e-08 -2.63776e-07 -0.000999797)
(-1.10902e-07 -2.63134e-07 -0.000999821)
(-1.72737e-07 -2.61033e-07 -0.000999866)
(-2.17771e-07 -2.58155e-07 -0.000999929)
(-2.41211e-07 -2.54852e-07 -0.001)
(-3.75944e-08 -2.3761e-07 -0.000999879)
(-1.09303e-07 -2.37026e-07 -0.000999902)
(-1.70247e-07 -2.35104e-07 -0.000999947)
(-2.14605e-07 -2.32439e-07 -0.00100001)
(-2.37902e-07 -2.29262e-07 -0.00100008)
(-3.71209e-08 -1.88311e-07 -0.000999949)
(-1.07941e-07 -1.87843e-07 -0.000999972)
(-1.68141e-07 -1.86318e-07 -0.00100002)
(-2.11929e-07 -1.84219e-07 -0.00100008)
(-2.35015e-07 -1.81722e-07 -0.00100015)
(-3.67747e-08 -1.20808e-07 -0.000999999)
(-1.06945e-07 -1.20511e-07 -0.00100002)
(-1.66606e-07 -1.19534e-07 -0.00100007)
(-2.09999e-07 -1.18196e-07 -0.00100012)
(-2.329e-07 -1.16623e-07 -0.0010002)
(-3.65258e-08 -4.15373e-08 -0.00100003)
(-1.06221e-07 -4.14369e-08 -0.00100005)
(-1.65485e-07 -4.11035e-08 -0.00100009)
(-2.08594e-07 -4.06478e-08 -0.00100015)
(-2.31353e-07 -4.0115e-08 -0.00100022)
(-5.19266e-08 -3.61443e-07 -0.000999724)
(-1.50959e-07 -3.60362e-07 -0.000999756)
(-2.35132e-07 -3.57106e-07 -0.000999818)
(-2.96443e-07 -3.52636e-07 -0.000999904)
(-3.28529e-07 -3.4746e-07 -0.001)
(-5.10778e-08 -3.25457e-07 -0.000999837)
(-1.48503e-07 -3.24484e-07 -0.000999868)
(-2.31315e-07 -3.21524e-07 -0.000999929)
(-2.91601e-07 -3.17435e-07 -0.00100001)
(-3.23331e-07 -3.12581e-07 -0.00100011)
(-5.0349e-08 -2.57862e-07 -0.000999932)
(-1.46404e-07 -2.57081e-07 -0.000999964)
(-2.28069e-07 -2.54726e-07 -0.00100002)
(-2.875e-07 -2.51491e-07 -0.0010001)
(-3.18851e-07 -2.47674e-07 -0.0010002)
(-4.98159e-08 -1.65392e-07 -0.001)
(-1.44869e-07 -1.64891e-07 -0.00100003)
(-2.25704e-07 -1.63382e-07 -0.00100009)
(-2.84536e-07 -1.61316e-07 -0.00100017)
(-3.15582e-07 -1.58898e-07 -0.00100027)
(-4.9442e-08 -5.686e-08 -0.00100004)
(-1.43787e-07 -5.66883e-08 -0.00100007)
(-2.24031e-07 -5.6173e-08 -0.00100013)
(-2.8244e-07 -5.54672e-08 -0.00100021)
(-3.13272e-07 -5.46432e-08 -0.0010003)
(-7.06719e-08 -4.95589e-07 -0.000999625)
(-2.05445e-07 -4.93802e-07 -0.000999669)
(-3.2e-07 -4.88759e-07 -0.000999753)
(-4.03471e-07 -4.81839e-07 -0.000999869)
(-4.47262e-07 -4.73829e-07 -0.00100001)
(-6.93565e-08 -4.4602e-07 -0.00099978)
(-2.01652e-07 -4.44402e-07 -0.000999823)
(-3.14125e-07 -4.3983e-07 -0.000999905)
(-3.96045e-07 -4.33538e-07 -0.00100002)
(-4.39207e-07 -4.26103e-07 -0.00100015)
(-6.82303e-08 -3.53247e-07 -0.000999911)
(-1.98407e-07 -3.51951e-07 -0.000999953)
(-3.09117e-07 -3.48309e-07 -0.00100003)
(-3.89743e-07 -3.43317e-07 -0.00100014)
(-4.32285e-07 -3.3745e-07 -0.00100027)
(-6.74056e-08 -2.26507e-07 -0.00100001)
(-1.96034e-07 -2.25672e-07 -0.00100005)
(-3.05461e-07 -2.23337e-07 -0.00100013)
(-3.85168e-07 -2.20138e-07 -0.00100024)
(-4.27239e-07 -2.16402e-07 -0.00100036)
(-6.68441e-08 -7.78578e-08 -0.00100006)
(-1.94412e-07 -7.75716e-08 -0.0010001)
(-3.02952e-07 -7.6772e-08 -0.00100018)
(-3.82026e-07 -7.56768e-08 -0.00100028)
(-4.23769e-07 -7.43995e-08 -0.00100041)
(-9.61592e-08 -6.79985e-07 -0.000999491)
(-2.7952e-07 -6.77065e-07 -0.000999551)
(-4.35371e-07 -6.69256e-07 -0.000999665)
(-5.48951e-07 -6.58536e-07 -0.000999823)
(-6.08879e-07 -6.46081e-07 -0.00100001)
(-9.41129e-08 -6.11593e-07 -0.000999704)
(-2.73646e-07 -6.08923e-07 -0.000999762)
(-4.26325e-07 -6.01852e-07 -0.000999873)
(-5.37586e-07 -5.92165e-07 -0.00100003)
(-5.96358e-07 -5.80793e-07 -0.00100021)
(-9.23661e-08 -4.84124e-07 -0.000999884)
(-2.68621e-07 -4.81992e-07 -0.000999941)
(-4.18587e-07 -4.7635e-07 -0.00100005)
(-5.27892e-07 -4.68627e-07 -0.0010002)
(-5.85643e-07 -4.59597e-07 -0.00100037)
(-9.10887e-08 -3.10318e-07 -0.00100001)
(-2.64944e-07 -3.08945e-07 -0.00100007)
(-4.12921e-07 -3.05317e-07 -0.00100018)
(-5.2081e-07 -3.00353e-07 -0.00100032)
(-5.77831e-07 -2.94561e-07 -0.00100049)
(-9.02425e-08 -1.06648e-07 -0.00100008)
(-2.62496e-07 -1.06176e-07 -0.00100014)
(-4.09139e-07 -1.0493e-07 -0.00100024)
(-5.16073e-07 -1.03229e-07 -0.00100039)
(-5.7259e-07 -1.01242e-07 -0.00100056)
(-1.30788e-07 -9.33701e-07 -0.00099931)
(-3.80199e-07 -9.28951e-07 -0.000999391)
(-5.92246e-07 -9.16874e-07 -0.000999547)
(-7.46806e-07 -9.00324e-07 -0.000999761)
(-8.28631e-07 -8.81022e-07 -0.00100001)
(-1.27606e-07 -8.39121e-07 -0.000999603)
(-3.71076e-07 -8.34756e-07 -0.000999682)
(-5.78242e-07 -8.23773e-07 -0.000999832)
(-7.29309e-07 -8.08779e-07 -0.00100004)
(-8.09307e-07 -7.91285e-07 -0.00100028)
(-1.24892e-07 -6.63797e-07 -0.00099985)
(-3.63271e-07 -6.60313e-07 -0.000999927)
(-5.66234e-07 -6.51538e-07 -0.00100007)
(-7.14317e-07 -6.39548e-07 -0.00100027)
(-7.9273e-07 -6.25574e-07 -0.00100051)
(-1.22906e-07 -4.25311e-07 -0.00100003)
(-3.57552e-07 -4.23062e-07 -0.0010001)
(-5.57424e-07 -4.17406e-07 -0.00100025)
(-7.03314e-07 -4.09675e-07 -0.00100044)
(-7.80604e-07 -4.00661e-07 -0.00100067)
(-1.21621e-07 -1.4614e-07 -0.00100012)
(-3.53838e-07 -1.45364e-07 -0.0010002)
(-5.51686e-07 -1.4342e-07 -0.00100034)
(-6.9613e-07 -1.40761e-07 -0.00100053)
(-7.72668e-07 -1.3766e-07 -0.00100076)
(-1.77796e-07 -1.28318e-06 -0.000999065)
(-5.16944e-07 -1.27546e-06 -0.000999175)
(-8.05485e-07 -1.25674e-06 -0.000999387)
(-1.01596e-06 -1.23122e-06 -0.000999678)
(-1.12732e-06 -1.20155e-06 -0.00100002)
(-1.72856e-07 -1.152e-06 -0.000999468)
(-5.02766e-07 -1.14491e-06 -0.000999575)
(-7.83726e-07 -1.1278e-06 -0.000999778)
(-9.88863e-07 -1.10449e-06 -0.00100006)
(-1.09761e-06 -1.0774e-06 -0.00100039)
(-1.68624e-07 -9.1059e-07 -0.000999808)
(-4.90597e-07 -9.04908e-07 -0.000999912)
(-7.6502e-07 -8.9121e-07 -0.00100011)
(-9.6555e-07 -8.72522e-07 -0.00100038)
(-1.07197e-06 -8.50774e-07 -0.0010007)
(-1.65519e-07 -5.83161e-07 -0.00100005)
(-4.81661e-07 -5.7948e-07 -0.00100015)
(-7.51267e-07 -5.70631e-07 -0.00100035)
(-9.48383e-07 -5.58543e-07 -0.00100061)
(-1.05312e-06 -5.44464e-07 -0.00100092)
(-1.63554e-07 -2.00338e-07 -0.00100018)
(-4.7599e-07 -1.99066e-07 -0.00100028)
(-7.42507e-07 -1.96017e-07 -0.00100047)
(-9.37426e-07 -1.91848e-07 -0.00100073)
(-1.04107e-06 -1.86994e-07 -0.00100103)
(-2.4157e-07 -1.76512e-06 -0.000998735)
(-7.02552e-07 -1.75258e-06 -0.000998885)
(-1.09512e-06 -1.72342e-06 -0.000999172)
(-1.38181e-06 -1.68396e-06 -0.000999568)
(-1.5336e-06 -1.63837e-06 -0.00100003)
(-2.3387e-07 -1.58253e-06 -0.000999291)
(-6.80458e-07 -1.57103e-06 -0.000999434)
(-1.06128e-06 -1.54432e-06 -0.000999708)
(-1.33984e-06 -1.50804e-06 -0.00100009)
(-1.48778e-06 -1.46603e-06 -0.00100053)
(-2.27234e-07 -1.24974e-06 -0.000999758)
(-6.61405e-07 -1.24047e-06 -0.000999897)
(-1.03206e-06 -1.219e-06 -0.00100016)
(-1.30352e-06 -1.18978e-06 -0.00100052)
(-1.44803e-06 -1.15588e-06 -0.00100095)
(-2.22349e-07 -7.99967e-07 -0.0010001)
(-6.47375e-07 -7.93943e-07 -0.00100023)
(-1.0105e-06 -7.80039e-07 -0.00100048)
(-1.27666e-06 -7.61072e-07 -0.00100083)
(-1.41864e-06 -7.39032e-07 -0.00100125)
(-2.19323e-07 -2.74779e-07 -0.00100027)
(-6.38655e-07 -2.72692e-07 -0.00100041)
(-9.97051e-07 -2.67892e-07 -0.00100065)
(-1.25985e-06 -2.61338e-07 -0.001001)
(-1.4002e-06 -2.53716e-07 -0.00100141)
(-3.28013e-07 -2.43046e-06 -0.000998292)
(-9.54308e-07 -2.41005e-06 -0.000998495)
(-1.48836e-06 -2.36443e-06 -0.000998884)
(-1.879e-06 -2.30326e-06 -0.000999422)
(-2.08638e-06 -2.23312e-06 -0.00100006)
(-3.15895e-07 -2.17534e-06 -0.000999058)
(-9.19659e-07 -2.15661e-06 -0.000999251)
(-1.4356e-06 -2.11472e-06 -0.000999618)
(-1.81398e-06 -2.0581e-06 -0.00100013)
(-2.01565e-06 -1.99296e-06 -0.00100073)
(-3.05418e-07 -1.71603e-06 -0.000999702)
(-8.89675e-07 -1.70087e-06 -0.000999885)
(-1.38976e-06 -1.66709e-06 -0.00100023)
(-1.75724e-06 -1.62121e-06 -0.00100072)
(-1.95383e-06 -1.56824e-06 -0.0010013)
(-2.97677e-07 -1.09804e-06 -0.00100017)
(-8.67522e-07 -1.08815e-06 -0.00100034)
(-1.35581e-06 -1.06621e-06 -0.00100068)
(-1.71505e-06 -1.03629e-06 -0.00100115)
(-1.9078e-06 -1.00166e-06 -0.0010017)
(-2.92965e-07 -3.7718e-07 -0.00100041)
(-8.54014e-07 -3.73742e-07 -0.00100058)
(-1.33502e-06 -3.66158e-07 -0.00100091)
(-1.6891e-06 -3.55792e-07 -0.00100137)
(-1.87936e-06 -3.43771e-07 -0.00100191)
(-4.4492e-07 -3.34999e-06 -0.000997699)
(-1.29532e-06 -3.3166e-06 -0.000997973)
(-2.02215e-06 -3.24489e-06 -0.000998499)
(-2.55512e-06 -3.14983e-06 -0.000999231)
(-2.83884e-06 -3.04214e-06 -0.0010001)
(-4.25625e-07 -2.99203e-06 -0.000998757)
(-1.24051e-06 -2.96132e-06 -0.000999013)
(-1.93939e-06 -2.89522e-06 -0.000999506)
(-2.45408e-06 -2.80641e-06 -0.00100019)
(-2.72989e-06 -2.70515e-06 -0.00100101)
(-4.08952e-07 -2.35747e-06 -0.000999641)
(-1.19305e-06 -2.33252e-06 -0.000999883)
(-1.86712e-06 -2.27917e-06 -0.00100035)
(-2.36505e-06 -2.20668e-06 -0.00100099)
(-2.63347e-06 -2.12354e-06 -0.00100177)
(-3.96529e-07 -1.50857e-06 -0.00100028)
(-1.15786e-06 -1.49215e-06 -0.00100051)
(-1.81336e-06 -1.45747e-06 -0.00100095)
(-2.29835e-06 -1.40994e-06 -0.00100157)
(-2.56092e-06 -1.35517e-06 -0.00100231)
(-3.89064e-07 -5.18482e-07 -0.00100062)
(-1.13677e-06 -5.12742e-07 -0.00100084)
(-1.78101e-06 -5.00765e-07 -0.00100127)
(-2.25788e-06 -4.84235e-07 -0.00100187)
(-2.51661e-06 -4.65139e-07 -0.00100259)
(-6.02337e-07 -4.62219e-06 -0.000996909)
(-1.75608e-06 -4.56701e-06 -0.000997276)
(-2.74649e-06 -4.45351e-06 -0.000997988)
(-3.47598e-06 -4.30527e-06 -0.000998983)
(-3.86524e-06 -4.14043e-06 -0.00100017)
(-5.71134e-07 -4.11754e-06 -0.000998372)
(-1.66835e-06 -4.06664e-06 -0.000998708)
(-2.61548e-06 -3.96177e-06 -0.000999365)
(-3.31798e-06 -3.82123e-06 -0.00100029)
(-3.69763e-06 -3.66298e-06 -0.00100139)
(-5.44316e-07 -3.24025e-06 -0.000999586)
(-1.59288e-06 -3.19864e-06 -0.000999898)
(-2.50091e-06 -3.11442e-06 -0.00100051)
(-3.17719e-06 -2.9988e-06 -0.00100137)
(-3.54674e-06 -2.86731e-06 -0.0010024)
(-5.23906e-07 -2.0759e-06 -0.00100047)
(-1.53661e-06 -2.04797e-06 -0.00100076)
(-2.4154e-06 -1.99357e-06 -0.00100134)
(-3.07073e-06 -1.91716e-06 -0.00100215)
(-3.43147e-06 -1.82979e-06 -0.00100313)
(-5.11705e-07 -7.14751e-07 -0.00100095)
(-1.50354e-06 -7.04879e-07 -0.00100122)
(-2.36484e-06 -6.86226e-07 -0.00100179)
(-3.00684e-06 -6.59519e-07 -0.00100256)
(-3.36146e-06 -6.28896e-07 -0.00100351)
(-8.12568e-07 -6.38391e-06 -0.000995863)
(-2.37587e-06 -6.29159e-06 -0.000996348)
(-3.72913e-06 -6.11043e-06 -0.000997307)
(-4.73402e-06 -5.87767e-06 -0.000998664)
(-5.27277e-06 -5.62518e-06 -0.0010003)