/*--------------------------------*- C++ -*----------------------------------*\
| =========                 |                                                 |
| \\      /  F ield         | OpenFOAM: The Open Source CFD Toolbox           |
|  \\    /   O peration     | Version:  5.x                                   |
|   \\  /    A nd           | Web:      www.OpenFOAM.org                      |
|    \\/     M anipulation  |                                                 |
\*---------------------------------------------------------------------------*/
FoamFile
{
    version     2.0;
    format      ascii;
    class       volVectorField;
    location    "1000";
    object      U;
}
// * * * * * * * * * * * * * * * * * * * * * * * * * * * * * * * * * * * * * //

dimensions      [0 1 -1 0 0 0 0];

internalField   nonuniform List<vector> 
90
(
(4.02823e-09 -6.36805e-09 -0.00099997)
(6.38956e-09 -1.07881e-08 -0.000999973)
(9.52919e-09 -1.64273e-08 -0.000999978)
(1.32476e-08 -2.29628e-08 -0.000999985)
(1.76951e-08 -3.06422e-08 -0.000999994)
(2.31188e-08 -3.98503e-08 -0.00100001)
(2.98321e-08 -5.1064e-08 -0.00100002)
(3.82289e-08 -6.4872e-08 -0.00100004)
(4.88086e-08 -8.20077e-08 -0.00100007)
(6.2208e-08 -1.03391e-07 -0.0010001)
(7.92425e-08 -1.30179e-07 -0.00100014)
(1.00962e-07 -1.63838e-07 -0.00100019)
(1.2872e-07 -2.06227e-07 -0.00100025)
(1.64273e-07 -2.59704e-07 -0.00100033)
(2.09893e-07 -3.27306e-07 -0.00100044)
(2.68536e-07 -4.12937e-07 -0.00100057)
(3.44047e-07 -5.21606e-07 -0.00100073)
(4.41444e-07 -6.59756e-07 -0.00100094)
(5.67273e-07 -8.35689e-07 -0.0010012)
(7.30102e-07 -1.06012e-06 -0.00100154)
(9.41135e-07 -1.34692e-06 -0.00100197)
(1.21499e-06 -1.71402e-06 -0.00100252)
(1.57071e-06 -2.1847e-06 -0.00100322)
(2.0335e-06 -2.78918e-06 -0.00100412)
(2.63637e-06 -3.56675e-06 -0.00100528)
(3.42268e-06 -4.56861e-06 -0.00100677)
(4.44953e-06 -5.86154e-06 -0.00100869)
(5.7922e-06 -7.5328e-06 -0.00101117)
(7.55011e-06 -9.69676e-06 -0.00101437)
(9.85465e-06 -1.25035e-05 -0.0010185)
(1.28797e-05 -1.615e-05 -0.00102382)
(1.68574e-05 -2.0896e-05 -0.00103084)
(2.2115e-05 -2.71045e-05 -0.00104062)
(2.91574e-05 -3.53433e-05 -0.00105357)
(3.81813e-05 -4.58075e-05 -0.00106359)
(4.53034e-05 -5.38886e-05 -0.00106122)
(4.96651e-05 -5.72893e-05 -0.00110949)
(4.29089e-05 -4.66325e-05 -0.00136281)
(2.27051e-05 -2.60933e-05 -0.000386018)
(-8.65491e-05 0.000120894 -0.0027757)
(3.00746e-06 8.54424e-07 -0.00131524)
(6.45432e-05 -9.77908e-05 -0.00295508)
(5.55167e-05 -4.00847e-05 -0.00232708)
(1.02657e-05 -5.74716e-05 -0.00317567)
(-5.13719e-05 -3.84266e-05 -0.00216866)
(-6.98269e-05 -1.68727e-05 -0.00321552)
(-3.85563e-05 7.73822e-05 -0.00224449)
(-5.89709e-05 0.000191674 -0.00334423)
(-1.98312e-05 0.000107073 -0.00179384)
(-7.68486e-05 3.84615e-05 -0.00329667)
(-4.64274e-05 5.31675e-05 -0.00204896)
(-2.84734e-05 7.15456e-05 -0.00202494)
(1.56061e-05 5.96984e-05 -0.00201004)
(4.41353e-05 5.87225e-05 -0.00148278)
(-1.24467e-05 4.99767e-05 -0.000884583)
(-1.35275e-05 3.08581e-05 -0.00102193)
(-8.67294e-06 1.94475e-05 -0.00101553)
(-5.23413e-06 1.40008e-05 -0.00100751)
(-2.97478e-06 1.03039e-05 -0.00100356)
(-1.43657e-06 7.56351e-06 -0.00100154)
(-4.10098e-07 5.52264e-06 -0.00100027)
(2.49869e-07 4.00895e-06 -0.000999449)
(6.51771e-07 2.89071e-06 -0.000998957)
(8.74825e-07 2.06814e-06 -0.000998693)
(9.76174e-07 1.46589e-06 -0.000998583)
(9.97025e-07 1.02719e-06 -0.000998574)
(9.66673e-07 7.09496e-07 -0.000998629)
(9.05626e-07 4.81021e-07 -0.000998721)
(8.28039e-07 3.1806e-07 -0.000998834)
(7.43488e-07 2.02988e-07 -0.000998954)
(6.58281e-07 1.22734e-07 -0.000999074)
(5.76393e-07 6.76604e-08 -0.000999189)
(5.00141e-07 3.07259e-08 -0.000999296)
(4.30725e-07 6.74457e-09 -0.000999394)
(3.68653e-07 -8.20657e-09 -0.000999482)
(3.13943e-07 -1.70184e-08 -0.000999561)
(2.66309e-07 -2.18024e-08 -0.000999631)
(2.25227e-07 -2.3974e-08 -0.000999692)
(1.90031e-07 -2.44083e-08 -0.000999744)
(1.60064e-07 -2.3746e-08 -0.000999788)
(1.34699e-07 -2.24479e-08 -0.000999826)
(1.1335e-07 -2.08267e-08 -0.000999857)
(9.54815e-08 -1.90939e-08 -0.000999884)
(8.0619e-08 -1.73897e-08 -0.000999906)
(6.83428e-08 -1.58046e-08 -0.000999925)
(5.82814e-08 -1.43944e-08 -0.00099994)
(5.00891e-08 -1.31828e-08 -0.000999953)
(4.34556e-08 -1.21555e-08 -0.000999963)
(3.84028e-08 -1.13018e-08 -0.000999974)
(3.64137e-08 -1.09045e-08 -0.00099998)
)
;

boundaryField
{
    inlet
    {
        type            zeroGradient;
    }
    outlet
    {
        type            zeroGradient;
    }
    repeat_boundary
    {
        type            slip;
    }
    procBoundary2to0
    {
        type            processor;
        value           nonuniform List<vector> 
90
(
(2.09155e-09 -6.36787e-09 -0.000999918)
(2.99236e-09 -1.07881e-08 -0.000999917)
(4.13787e-09 -1.64276e-08 -0.000999915)
(5.34152e-09 -2.2963e-08 -0.000999911)
(6.54847e-09 -3.06421e-08 -0.000999906)
(7.7194e-09 -3.98496e-08 -0.0009999)
(8.79649e-09 -5.10627e-08 -0.000999892)
(9.68878e-09 -6.48706e-08 -0.000999881)
(1.02578e-08 -8.20058e-08 -0.000999867)
(1.02999e-08 -1.03388e-07 -0.000999849)
(9.52297e-09 -1.30174e-07 -0.000999826)
(7.51463e-09 -1.63831e-07 -0.000999796)
(3.70384e-09 -2.06215e-07 -0.000999757)
(-2.68987e-09 -2.59685e-07 -0.000999707)
(-1.27943e-08 -3.27275e-07 -0.000999643)
(-2.81962e-08 -4.12887e-07 -0.00099956)
(-5.10704e-08 -5.21523e-07 -0.000999452)
(-8.43958e-08 -6.5962e-07 -0.000999313)
(-1.32242e-07 -8.35464e-07 -0.000999131)
(-2.00155e-07 -1.05975e-06 -0.000998894)
(-2.95661e-07 -1.34629e-06 -0.000998586)
(-4.28898e-07 -1.71297e-06 -0.000998185)
(-6.13429e-07 -2.18295e-06 -0.000997661)
(-8.67777e-07 -2.78622e-06 -0.000996977)
(-1.21673e-06 -3.56176e-06 -0.000996084)
(-1.69354e-06 -4.56014e-06 -0.000994915)
(-2.3428e-06 -5.8471e-06 -0.000993385)
(-3.22416e-06 -7.50816e-06 -0.000991382)
(-4.41737e-06 -9.65474e-06 -0.000988756)
(-6.02906e-06 -1.24324e-05 -0.000985301)
(-8.20181e-06 -1.6032e-05 -0.000980758)
(-1.11267e-05 -2.07063e-05 -0.000974902)
(-1.50686e-05 -2.67981e-05 -0.000967554)
(-2.03988e-05 -3.47529e-05 -0.000957498)
(-2.74222e-05 -4.48264e-05 -0.000939418)
(-3.41936e-05 -5.41078e-05 -0.000912494)
(-3.71693e-05 -5.76111e-05 -0.000906159)
(-3.24664e-05 -4.9595e-05 -0.0010412)
(-2.10532e-05 -3.0054e-05 -0.000351777)
(0.000108665 0.000141428 -0.00193748)
(-6.12476e-06 -4.43256e-06 -0.00167828)
(-3.55262e-05 -5.10193e-05 -0.0015264)
(-3.10031e-05 -3.86942e-05 -0.00239288)
(-6.20037e-05 -3.2286e-05 -0.00212807)
(-7.85337e-05 -4.38076e-05 -0.00241913)
(-4.12106e-05 1.43698e-05 -0.0018039)
(-5.5826e-05 7.37282e-05 -0.00259577)
(-5.71383e-06 0.000118889 -0.0017459)
(2.41414e-05 0.000138082 -0.00234972)
(-3.99342e-05 4.04711e-05 -0.00229719)
(-1.36231e-05 5.66148e-05 -0.00168348)
(2.76424e-06 7.07572e-05 -0.00165031)
(2.5987e-05 7.65663e-05 -0.00183954)
(5.0078e-05 2.69705e-05 -0.00103893)
(5.80504e-05 3.41431e-05 -0.000881066)
(5.79388e-05 2.55447e-05 -0.000923657)
(4.7624e-05 1.91591e-05 -0.000948926)
(3.75211e-05 1.41743e-05 -0.000961129)
(2.93977e-05 1.04313e-05 -0.000969553)
(2.30529e-05 7.6343e-06 -0.000976242)
(1.81112e-05 5.56025e-06 -0.000981503)
(1.42561e-05 4.02886e-06 -0.000985585)
(1.12421e-05 2.90136e-06 -0.000988749)
(8.88087e-06 2.07385e-06 -0.000991205)
(7.02733e-06 1.46894e-06 -0.000993115)
(5.56967e-06 1.02882e-06 -0.000994602)
(4.42133e-06 7.10365e-07 -0.00099576)
(3.51512e-06 4.81481e-07 -0.000996665)
(2.79882e-06 3.18303e-07 -0.000997372)
(2.23172e-06 2.03115e-07 -0.000997926)
(1.78206e-06 1.228e-07 -0.000998361)
(1.42499e-06 6.76947e-08 -0.000998703)
(1.14109e-06 3.07436e-08 -0.000998973)
(9.15071e-07 6.75367e-09 -0.000999187)
(7.34866e-07 -8.20189e-09 -0.000999355)
(5.90946e-07 -1.7016e-08 -0.000999488)
(4.75788e-07 -2.18012e-08 -0.000999593)
(3.83503e-07 -2.39733e-08 -0.000999676)
(3.09496e-07 -2.44079e-08 -0.000999743)
(2.50111e-07 -2.37458e-08 -0.000999797)
(2.02437e-07 -2.24477e-08 -0.00099984)
(1.64165e-07 -2.08265e-08 -0.000999874)
(1.33461e-07 -1.90938e-08 -0.000999901)
(1.08868e-07 -1.73897e-08 -0.000999923)
(8.92245e-08 -1.58048e-08 -0.00099994)
(7.35978e-08 -1.43944e-08 -0.000999953)
(6.12042e-08 -1.31822e-08 -0.000999964)
(5.13948e-08 -1.21529e-08 -0.000999972)
(4.41266e-08 -1.13046e-08 -0.00099998)
(4.12431e-08 -1.09049e-08 -0.000999984)
)
;
    }
    procBoundary2to3
    {
        type            processor;
        value           nonuniform List<vector> 
90
(
(4.02803e-09 -4.43138e-09 -0.000999942)
(6.38961e-09 -7.39082e-09 -0.000999942)
(9.52947e-09 -1.10359e-08 -0.000999942)
(1.32477e-08 -1.50567e-08 -0.000999942)
(1.76951e-08 -1.94955e-08 -0.000999942)
(2.31185e-08 -2.44508e-08 -0.000999942)
(2.98315e-08 -3.00283e-08 -0.000999942)
(3.82281e-08 -3.63317e-08 -0.000999942)
(4.88076e-08 -4.34565e-08 -0.000999941)
(6.22064e-08 -5.14818e-08 -0.00099994)
(7.924e-08 -6.04581e-08 -0.000999936)
(1.00958e-07 -7.03891e-08 -0.000999931)
(1.28714e-07 -8.12067e-08 -0.000999924)
(1.64262e-07 -9.2736e-08 -0.000999912)
(2.09875e-07 -1.04611e-07 -0.000999894)
(2.68505e-07 -1.16192e-07 -0.000999868)
(3.43997e-07 -1.26465e-07 -0.000999831)
(4.4136e-07 -1.33879e-07 -0.000999778)
(5.67134e-07 -1.36112e-07 -0.000999702)
(7.29869e-07 -1.29764e-07 -0.000999597)
(9.40742e-07 -1.09952e-07 -0.000999451)
(1.21433e-06 -6.98512e-08 -0.00099925)
(1.56957e-06 -1.08634e-10 -0.000998974)
(2.03155e-06 1.12845e-07 -0.000998595)
(2.63299e-06 2.87569e-07 -0.000998077)
(3.41678e-06 5.49603e-07 -0.000997373)
(4.43925e-06 9.34062e-07 -0.000996418)
(5.77428e-06 1.48894e-06 -0.000995123)
(7.51894e-06 2.27954e-06 -0.000993373)
(9.80106e-06 3.39463e-06 -0.000991)
(1.27899e-05 4.95493e-06 -0.000987787)
(1.67124e-05 7.12551e-06 -0.00098357)
(2.18776e-05 1.01376e-05 -0.000978375)
(2.86812e-05 1.43137e-05 -0.000971338)
(3.7378e-05 1.9955e-05 -0.000956549)
(4.58859e-05 2.5866e-05 -0.000928094)
(4.99826e-05 2.94473e-05 -0.000920622)
(4.6805e-05 2.92514e-05 -0.00110524)
(3.02012e-05 1.97625e-05 -0.000301934)
(-8.93265e-05 -6.07783e-05 -0.00211169)
(3.70037e-06 5.16307e-06 -0.00159555)
(4.1104e-05 2.31095e-05 -0.00163489)
(6.40159e-05 5.09316e-05 -0.00291434)
(5.03444e-06 3.34504e-05 -0.00152987)
(-6.02218e-05 -2.38151e-05 -0.00279142)
(-4.48987e-05 2.18984e-05 -0.00200912)
(-4.6462e-05 0.000114678 -0.00253765)
(-3.44447e-05 0.000113241 -0.00199966)
(-3.1101e-05 7.7426e-05 -0.00267756)
(-3.34378e-05 4.16027e-05 -0.00162075)
(-7.19699e-05 8.63965e-06 -0.00273953)
(-1.46166e-05 4.96655e-05 -0.00110861)
(-6.2837e-05 -4.82915e-05 -0.00197089)
(9.46486e-06 -5.32836e-05 -0.00107292)
(-2.14181e-05 -5.54152e-05 -0.000927421)
(-1.44532e-05 -4.70524e-05 -0.000943171)
(-8.98722e-06 -3.72535e-05 -0.000967647)
(-5.4054e-06 -2.86542e-05 -0.000977472)
(-3.07035e-06 -2.19854e-05 -0.000983479)
(-1.48718e-06 -1.68734e-05 -0.000987995)
(-4.36362e-07 -1.29655e-05 -0.000991391)
(2.36317e-07 -9.97593e-06 -0.000993881)
(6.4477e-07 -7.68567e-06 -0.000995692)
(8.71178e-07 -5.92872e-06 -0.000997006)
(9.7426e-07 -4.57925e-06 -0.000997953)
(9.95997e-07 -3.54154e-06 -0.000998631)
(9.66098e-07 -2.74262e-06 -0.000999111)
(9.05288e-07 -2.12684e-06 -0.000999449)
(8.27829e-07 -1.65168e-06 -0.000999682)
(7.4335e-07 -1.28458e-06 -0.00099984)
(6.58186e-07 -1.00063e-06 -0.000999945)
(5.76326e-07 -7.80677e-07 -0.00100001)
(5.00092e-07 -6.10055e-07 -0.00100005)
(4.3069e-07 -4.77497e-07 -0.00100008)
(3.68627e-07 -3.74355e-07 -0.00100009)
(3.13925e-07 -2.93981e-07 -0.00100009)
(2.66295e-07 -2.31257e-07 -0.00100009)
(2.25217e-07 -1.82235e-07 -0.00100009)
(1.90025e-07 -1.43864e-07 -0.00100008)
(1.60059e-07 -1.13787e-07 -0.00100008)
(1.34696e-07 -9.01818e-08 -0.00100007)
(1.13347e-07 -7.164e-08 -0.00100006)
(9.548e-08 -5.70724e-08 -0.00100005)
(8.06178e-08 -4.56379e-08 -0.00100005)
(6.83414e-08 -3.66861e-08 -0.00100004)
(5.82789e-08 -2.97108e-08 -0.00100003)
(5.00815e-08 -2.43003e-08 -0.00100003)
(4.34315e-08 -2.01042e-08 -0.00100002)
(3.84315e-08 -1.70148e-08 -0.00100002)
(3.64203e-08 -1.5732e-08 -0.00100001)
)
;
    }
}


// ************************************************************************* //
