/*--------------------------------*- C++ -*----------------------------------*\
| =========                 |                                                 |
| \\      /  F ield         | OpenFOAM: The Open Source CFD Toolbox           |
|  \\    /   O peration     | Version:  5.x                                   |
|   \\  /    A nd           | Web:      www.OpenFOAM.org                      |
|    \\/     M anipulation  |                                                 |
\*---------------------------------------------------------------------------*/
FoamFile
{
    version     2.0;
    format      ascii;
    class       surfaceScalarField;
    location    "500";
    object      phi;
}
// * * * * * * * * * * * * * * * * * * * * * * * * * * * * * * * * * * * * * //

dimensions      [0 3 -1 0 0 0 0];

internalField   nonuniform List<scalar> 
89
(
-0.0250007
-0.0250007
-0.0250008
-0.025001
-0.0250011
-0.0250014
-0.0250016
-0.025002
-0.0250025
-0.0250031
-0.0250038
-0.0250048
-0.025006
-0.0250075
-0.0250094
-0.0250118
-0.0250149
-0.0250188
-0.0250238
-0.0250302
-0.0250383
-0.0250488
-0.0250622
-0.0250794
-0.0251016
-0.0251302
-0.0251671
-0.0252148
-0.0252766
-0.0253568
-0.0254611
-0.0255967
-0.0257735
-0.0260049
-0.0263093
-0.0266999
-0.0271866
-0.0277059
-0.028374
-0.0274503
-0.0274873
-0.0280129
-0.028437
-0.0287099
-0.0287453
-0.0286059
-0.0282621
-0.0276098
-0.0272124
-0.0270229
-0.0268152
-0.0266314
-0.0262087
-0.0261347
-0.0257897
-0.0255268
-0.0253437
-0.0252149
-0.0251245
-0.025063
-0.0250236
-0.0249989
-0.0249839
-0.0249754
-0.0249715
-0.0249705
-0.0249714
-0.0249732
-0.0249756
-0.0249782
-0.0249808
-0.0249832
-0.0249855
-0.0249876
-0.0249895
-0.0249911
-0.0249926
-0.0249938
-0.0249949
-0.0249958
-0.0249966
-0.0249973
-0.0249979
-0.0249984
-0.0249988
-0.0249991
-0.0249993
-0.0249995
-0.0249997
)
;

boundaryField
{
    inlet
    {
        type            calculated;
        value           uniform -0.0249999;
    }
    outlet
    {
        type            calculated;
        value           uniform 0.0250007;
    }
    repeat_boundary
    {
        type            calculated;
        value           uniform 0;
    }
    procBoundary2to0
    {
        type            processor;
        value           nonuniform List<scalar> 
90
(
1.42134e-08
2.82539e-08
4.58436e-08
6.67748e-08
9.22383e-08
1.23677e-07
1.62757e-07
2.11461e-07
2.72189e-07
3.47937e-07
4.42488e-07
5.60672e-07
7.08712e-07
8.94659e-07
1.12895e-06
1.42512e-06
1.8007e-06
2.2783e-06
2.88728e-06
3.66623e-06
4.66493e-06
5.94782e-06
7.59855e-06
9.7259e-06
1.24715e-05
1.602e-05
2.06126e-05
2.65652e-05
3.4291e-05
4.43323e-05
5.74006e-05
7.44333e-05
9.67028e-05
0.000126106
0.000165404
0.000211626
0.000261103
0.000272203
0.000368965
-0.000549417
2.23838e-05
0.000316385
0.000193923
0.00022757
0.000223735
8.50443e-05
-0.000187823
-0.000484602
-0.000339387
-2.7211e-05
-2.80568e-05
-0.00013482
-0.000144074
-0.00011653
-0.000217776
-0.000173277
-0.000126305
-9.22342e-05
-6.73789e-05
-4.90796e-05
-3.56441e-05
-2.57706e-05
-1.85211e-05
-1.32169e-05
-9.35493e-06
-6.56471e-06
-4.56535e-06
-3.13941e-06
-2.12683e-06
-1.41242e-06
-9.12731e-07
-5.66989e-07
-3.30637e-07
-1.70783e-07
-6.00821e-08
2.27984e-08
5.78218e-08
6.75928e-08
7.67764e-08
8.06485e-08
8.03996e-08
7.78402e-08
7.42897e-08
7.03099e-08
6.61505e-08
6.21674e-08
5.86377e-08
5.588e-08
5.37341e-08
5.18736e-08
)
;
    }
    procBoundary2to3
    {
        type            processor;
        value           nonuniform List<scalar> 
90
(
1.03608e-08
1.85921e-08
2.96257e-08
4.32151e-08
6.02923e-08
8.20082e-08
1.0949e-07
1.44083e-07
1.87517e-07
2.41938e-07
3.10099e-07
3.95576e-07
5.03041e-07
6.38628e-07
8.10408e-07
1.02899e-06
1.30832e-06
1.66666e-06
2.12788e-06
2.72321e-06
3.49346e-06
4.4921e-06
5.78905e-06
7.47502e-06
9.66916e-06
1.25287e-05
1.62602e-05
2.11354e-05
2.75128e-05
3.58646e-05
4.68147e-05
6.11915e-05
8.01274e-05
0.000105283
0.000138942
0.000179039
0.000225602
0.000247171
0.000299326
-0.00037421
1.46757e-05
0.000209271
0.000230215
4.52715e-05
-0.000188375
-0.000224343
-0.00015595
-0.000167533
-5.80826e-05
-0.000162361
-0.000179505
-4.90255e-05
-0.000278656
4.23609e-05
-0.000127251
-8.974e-05
-5.67726e-05
-3.66253e-05
-2.2964e-05
-1.24306e-05
-3.73514e-06
1.16568e-06
3.43944e-06
4.80098e-06
5.45438e-06
5.58074e-06
5.38261e-06
5.00269e-06
4.53277e-06
4.03126e-06
3.53458e-06
3.0644e-06
2.63255e-06
2.24446e-06
1.90149e-06
1.60259e-06
1.34539e-06
1.12613e-06
9.40387e-07
7.8416e-07
6.53706e-07
5.45563e-07
4.566e-07
3.8404e-07
3.25467e-07
2.78803e-07
2.42271e-07
2.14199e-07
1.92723e-07
1.8156e-07
)
;
    }
}


// ************************************************************************* //
