/*--------------------------------*- C++ -*----------------------------------*\
| =========                 |                                                 |
| \\      /  F ield         | OpenFOAM: The Open Source CFD Toolbox           |
|  \\    /   O peration     | Version:  5.x                                   |
|   \\  /    A nd           | Web:      www.OpenFOAM.org                      |
|    \\/     M anipulation  |                                                 |
\*---------------------------------------------------------------------------*/
FoamFile
{
    version     2.0;
    format      ascii;
    class       volVectorField;
    location    "500";
    object      stored_U;
}
// * * * * * * * * * * * * * * * * * * * * * * * * * * * * * * * * * * * * * //

dimensions      [0 1 -1 0 0 0 0];

internalField   nonuniform List<vector> 
90
(
(2.18686e-09 -2.76349e-09 -0.00100003)
(4.13029e-09 -5.5605e-09 -0.00100003)
(6.55866e-09 -8.95284e-09 -0.00100003)
(9.38507e-09 -1.28575e-08 -0.00100004)
(1.27531e-08 -1.74689e-08 -0.00100004)
(1.68588e-08 -2.30432e-08 -0.00100005)
(2.19404e-08 -2.98892e-08 -0.00100006)
(2.82891e-08 -3.83834e-08 -0.00100007)
(3.62647e-08 -4.89883e-08 -0.00100009)
(4.6316e-08 -6.22777e-08 -0.00100011)
(5.90092e-08 -7.89688e-08 -0.00100013)
(7.50644e-08 -9.99655e-08 -0.00100017)
(9.5406e-08 -1.26416e-07 -0.00100021)
(1.21229e-07 -1.59788e-07 -0.00100027)
(1.54088e-07 -2.01964e-07 -0.00100033)
(1.96012e-07 -2.55372e-07 -0.00100042)
(2.49654e-07 -3.23141e-07 -0.00100053)
(3.1849e-07 -4.09306e-07 -0.00100067)
(4.07075e-07 -5.19097e-07 -0.00100085)
(5.21381e-07 -6.59417e-07 -0.00100107)
(6.69243e-07 -8.39208e-07 -0.00100136)
(8.60945e-07 -1.07009e-06 -0.00100173)
(1.10997e-06 -1.36718e-06 -0.00100221)
(1.43389e-06 -1.75017e-06 -0.00100282)
(1.85586e-06 -2.24474e-06 -0.0010036)
(2.40637e-06 -2.88442e-06 -0.00100462)
(3.12566e-06 -3.71307e-06 -0.00100592)
(4.06673e-06 -4.78815e-06 -0.00100761)
(5.29959e-06 -6.18505e-06 -0.0010098)
(6.91675e-06 -8.00284e-06 -0.00101263)
(9.04066e-06 -1.03718e-05 -0.00101631)
(1.18339e-05 -1.3464e-05 -0.00102113)
(1.55144e-05 -1.75093e-05 -0.00102758)
(2.03773e-05 -2.28239e-05 -0.0010359)
(2.68072e-05 -2.98183e-05 -0.00104318)
(3.51624e-05 -3.87629e-05 -0.00104299)
(4.4509e-05 -4.79356e-05 -0.00107838)
(5.00745e-05 -5.19234e-05 -0.00133376)
(5.29633e-05 -5.8813e-05 -0.000354724)
(-5.3966e-05 8.54915e-05 -0.00277129)
(4.2509e-07 -5.18633e-06 -0.00131687)
(6.06964e-05 -0.000106695 -0.00294975)
(4.7121e-05 -5.36752e-05 -0.00233234)
(5.99207e-06 -6.97709e-05 -0.00316962)
(-6.57036e-05 -6.27236e-05 -0.00217696)
(-8.45433e-05 -3.51079e-05 -0.00321348)
(-5.99011e-05 4.8344e-05 -0.00225237)
(-7.62992e-05 0.000165984 -0.00335125)
(-5.36183e-05 5.50844e-05 -0.00179967)
(-9.95407e-05 -1.58146e-06 -0.00331377)
(-7.96988e-05 -6.91926e-06 -0.00202803)
(-6.19955e-05 1.8905e-05 -0.00205834)
(1.77128e-05 4.117e-05 -0.00203458)
(2.82941e-05 6.20776e-05 -0.00145948)
(-1.5929e-05 4.57728e-05 -0.000920372)
(-1.16933e-05 3.38002e-05 -0.00101408)
(-6.25408e-06 2.41616e-05 -0.00101459)
(-3.19491e-06 1.76097e-05 -0.00100876)
(-1.28776e-06 1.28658e-05 -0.00100461)
(-7.36297e-08 9.37386e-06 -0.00100212)
(6.66023e-07 6.80593e-06 -0.00100056)
(1.08576e-06 4.9207e-06 -0.000999608)
(1.29473e-06 3.53858e-06 -0.000999047)
(1.36053e-06 2.53059e-06 -0.000998738)
(1.33547e-06 1.79817e-06 -0.000998612)
(1.25674e-06 1.26771e-06 -0.000998603)
(1.14935e-06 8.84963e-07 -0.000998666)
(1.02964e-06 6.10124e-07 -0.000998767)
(9.08092e-07 4.1395e-07 -0.000998886)
(7.91132e-07 2.74972e-07 -0.000999011)
(6.82449e-07 1.77429e-07 -0.000999133)
(5.83903e-07 1.09772e-07 -0.000999248)
(4.96158e-07 6.35541e-08 -0.000999353)
(4.19118e-07 3.26161e-08 -0.000999448)
(3.52233e-07 1.2478e-08 -0.000999532)
(2.94728e-07 -1.59363e-10 -0.000999606)
(2.45732e-07 -7.72862e-09 -0.00099967)
(2.0428e-07 -1.18641e-08 -0.000999725)
(1.69468e-07 -1.37842e-08 -0.000999771)
(1.40446e-07 -1.43444e-08 -0.000999811)
(1.16433e-07 -1.41339e-08 -0.000999844)
(9.67258e-08 -1.35491e-08 -0.000999872)
(8.06968e-08 -1.28461e-08 -0.000999895)
(6.77941e-08 -1.21784e-08 -0.000999915)
(5.75351e-08 -1.16257e-08 -0.000999932)
(4.95e-08 -1.1219e-08 -0.000999946)
(4.33242e-08 -1.09556e-08 -0.000999958)
(3.86661e-08 -1.08116e-08 -0.00099997)
(3.52045e-08 -1.0688e-08 -0.000999981)
(3.34372e-08 -1.0456e-08 -0.00099999)
)
;

boundaryField
{
    inlet
    {
        type            calculated;
        value           uniform (3.34372e-08 -1.0456e-08 -0.00099999);
    }
    outlet
    {
        type            calculated;
        value           uniform (2.18686e-09 -2.76349e-09 -0.00100003);
    }
    repeat_boundary
    {
        type            calculated;
        value           nonuniform List<vector> 
180
(
(2.18686e-09 0 -0.00100003)
(4.13029e-09 0 -0.00100003)
(6.55866e-09 0 -0.00100003)
(9.38507e-09 0 -0.00100004)
(1.27531e-08 0 -0.00100004)
(1.68588e-08 0 -0.00100005)
(2.19404e-08 0 -0.00100006)
(2.82891e-08 0 -0.00100007)
(3.62647e-08 0 -0.00100009)
(4.6316e-08 0 -0.00100011)
(5.90092e-08 0 -0.00100013)
(7.50644e-08 0 -0.00100017)
(9.5406e-08 0 -0.00100021)
(1.21229e-07 0 -0.00100027)
(1.54088e-07 0 -0.00100033)
(1.96012e-07 0 -0.00100042)
(2.49654e-07 0 -0.00100053)
(3.1849e-07 0 -0.00100067)
(4.07075e-07 0 -0.00100085)
(5.21381e-07 0 -0.00100107)
(6.69243e-07 0 -0.00100136)
(8.60945e-07 0 -0.00100173)
(1.10997e-06 0 -0.00100221)
(1.43389e-06 0 -0.00100282)
(1.85586e-06 0 -0.0010036)
(2.40637e-06 0 -0.00100462)
(3.12566e-06 0 -0.00100592)
(4.06673e-06 0 -0.00100761)
(5.29959e-06 0 -0.0010098)
(6.91675e-06 0 -0.00101263)
(9.04066e-06 0 -0.00101631)
(1.18339e-05 0 -0.00102113)
(1.55144e-05 0 -0.00102758)
(2.03773e-05 0 -0.0010359)
(2.68072e-05 0 -0.00104318)
(3.51624e-05 0 -0.00104299)
(4.4509e-05 0 -0.00107838)
(5.00745e-05 0 -0.00133376)
(5.29633e-05 0 -0.000354724)
(-5.3966e-05 0 -0.00277129)
(4.2509e-07 0 -0.00131687)
(6.06964e-05 0 -0.00294975)
(4.7121e-05 0 -0.00233234)
(5.99207e-06 0 -0.00316962)
(-6.57036e-05 0 -0.00217696)
(-8.45433e-05 0 -0.00321348)
(-5.99011e-05 0 -0.00225237)
(-7.62992e-05 0 -0.00335125)
(-5.36183e-05 0 -0.00179967)
(-9.95407e-05 0 -0.00331377)
(-7.96988e-05 0 -0.00202803)
(-6.19955e-05 0 -0.00205834)
(1.77128e-05 0 -0.00203458)
(2.82941e-05 0 -0.00145948)
(-1.5929e-05 0 -0.000920372)
(-1.16933e-05 0 -0.00101408)
(-6.25408e-06 0 -0.00101459)
(-3.19491e-06 0 -0.00100876)
(-1.28776e-06 0 -0.00100461)
(-7.36297e-08 0 -0.00100212)
(6.66023e-07 0 -0.00100056)
(1.08576e-06 0 -0.000999608)
(1.29473e-06 0 -0.000999047)
(1.36053e-06 0 -0.000998738)
(1.33547e-06 0 -0.000998612)
(1.25674e-06 0 -0.000998603)
(1.14935e-06 0 -0.000998666)
(1.02964e-06 0 -0.000998767)
(9.08092e-07 0 -0.000998886)
(7.91132e-07 0 -0.000999011)
(6.82449e-07 0 -0.000999133)
(5.83903e-07 0 -0.000999248)
(4.96158e-07 0 -0.000999353)
(4.19118e-07 0 -0.000999448)
(3.52233e-07 0 -0.000999532)
(2.94728e-07 0 -0.000999606)
(2.45732e-07 0 -0.00099967)
(2.0428e-07 0 -0.000999725)
(1.69468e-07 0 -0.000999771)
(1.40446e-07 0 -0.000999811)
(1.16433e-07 0 -0.000999844)
(9.67258e-08 0 -0.000999872)
(8.06968e-08 0 -0.000999895)
(6.77941e-08 0 -0.000999915)
(5.75351e-08 0 -0.000999932)
(4.95e-08 0 -0.000999946)
(4.33242e-08 0 -0.000999958)
(3.86661e-08 0 -0.00099997)
(3.52045e-08 0 -0.000999981)
(3.34372e-08 0 -0.00099999)
(0 -2.76349e-09 -0.00100003)
(0 -5.5605e-09 -0.00100003)
(0 -8.95284e-09 -0.00100003)
(0 -1.28575e-08 -0.00100004)
(0 -1.74689e-08 -0.00100004)
(0 -2.30432e-08 -0.00100005)
(0 -2.98892e-08 -0.00100006)
(0 -3.83834e-08 -0.00100007)
(0 -4.89883e-08 -0.00100009)
(0 -6.22777e-08 -0.00100011)
(0 -7.89688e-08 -0.00100013)
(0 -9.99655e-08 -0.00100017)
(0 -1.26416e-07 -0.00100021)
(0 -1.59788e-07 -0.00100027)
(0 -2.01964e-07 -0.00100033)
(0 -2.55372e-07 -0.00100042)
(0 -3.23141e-07 -0.00100053)
(0 -4.09306e-07 -0.00100067)
(0 -5.19097e-07 -0.00100085)
(0 -6.59417e-07 -0.00100107)
(0 -8.39208e-07 -0.00100136)
(0 -1.07009e-06 -0.00100173)
(0 -1.36718e-06 -0.00100221)
(0 -1.75017e-06 -0.00100282)
(0 -2.24474e-06 -0.0010036)
(0 -2.88442e-06 -0.00100462)
(0 -3.71307e-06 -0.00100592)
(0 -4.78815e-06 -0.00100761)
(0 -6.18505e-06 -0.0010098)
(0 -8.00284e-06 -0.00101263)
(0 -1.03718e-05 -0.00101631)
(0 -1.3464e-05 -0.00102113)
(0 -1.75093e-05 -0.00102758)
(0 -2.28239e-05 -0.0010359)
(0 -2.98183e-05 -0.00104318)
(0 -3.87629e-05 -0.00104299)
(0 -4.79356e-05 -0.00107838)
(0 -5.19234e-05 -0.00133376)
(0 -5.8813e-05 -0.000354724)
(0 8.54915e-05 -0.00277129)
(0 -5.18633e-06 -0.00131687)
(0 -0.000106695 -0.00294975)
(0 -5.36752e-05 -0.00233234)
(0 -6.97709e-05 -0.00316962)
(0 -6.27236e-05 -0.00217696)
(0 -3.51079e-05 -0.00321348)
(0 4.8344e-05 -0.00225237)
(0 0.000165984 -0.00335125)
(0 5.50844e-05 -0.00179967)
(0 -1.58146e-06 -0.00331377)
(0 -6.91926e-06 -0.00202803)
(0 1.8905e-05 -0.00205834)
(0 4.117e-05 -0.00203458)
(0 6.20776e-05 -0.00145948)
(0 4.57728e-05 -0.000920372)
(0 3.38002e-05 -0.00101408)
(0 2.41616e-05 -0.00101459)
(0 1.76097e-05 -0.00100876)
(0 1.28658e-05 -0.00100461)
(0 9.37386e-06 -0.00100212)
(0 6.80593e-06 -0.00100056)
(0 4.9207e-06 -0.000999608)
(0 3.53858e-06 -0.000999047)
(0 2.53059e-06 -0.000998738)
(0 1.79817e-06 -0.000998612)
(0 1.26771e-06 -0.000998603)
(0 8.84963e-07 -0.000998666)
(0 6.10124e-07 -0.000998767)
(0 4.1395e-07 -0.000998886)
(0 2.74972e-07 -0.000999011)
(0 1.77429e-07 -0.000999133)
(0 1.09772e-07 -0.000999248)
(0 6.35541e-08 -0.000999353)
(0 3.26161e-08 -0.000999448)
(0 1.2478e-08 -0.000999532)
(0 -1.59363e-10 -0.000999606)
(0 -7.72862e-09 -0.00099967)
(0 -1.18641e-08 -0.000999725)
(0 -1.37842e-08 -0.000999771)
(0 -1.43444e-08 -0.000999811)
(0 -1.41339e-08 -0.000999844)
(0 -1.35491e-08 -0.000999872)
(0 -1.28461e-08 -0.000999895)
(0 -1.21784e-08 -0.000999915)
(0 -1.16257e-08 -0.000999932)
(0 -1.1219e-08 -0.000999946)
(0 -1.09556e-08 -0.000999958)
(0 -1.08116e-08 -0.00099997)
(0 -1.0688e-08 -0.000999981)
(0 -1.0456e-08 -0.00099999)
)
;
    }
    procBoundary2to0
    {
        type            processor;
        value           nonuniform List<vector> 
90
(
(1.64081e-09 -2.76313e-09 -0.001)
(2.95854e-09 -5.56033e-09 -0.000999999)
(4.52209e-09 -8.95354e-09 -0.000999997)
(6.17254e-09 -1.2858e-08 -0.000999994)
(7.90478e-09 -1.74696e-08 -0.00099999)
(9.72448e-09 -2.30432e-08 -0.000999985)
(1.16317e-08 -2.9888e-08 -0.000999979)
(1.36158e-08 -3.83829e-08 -0.000999972)
(1.56514e-08 -4.89879e-08 -0.000999964)
(1.76927e-08 -6.22772e-08 -0.000999954)
(1.96637e-08 -7.89679e-08 -0.000999942)
(2.1442e-08 -9.99641e-08 -0.000999927)
(2.28353e-08 -1.26414e-07 -0.000999907)
(2.35472e-08 -1.59784e-07 -0.000999881)
(2.31312e-08 -2.01958e-07 -0.000999848)
(2.09279e-08 -2.55363e-07 -0.000999805)
(1.59868e-08 -3.23126e-07 -0.000999747)
(6.96963e-09 -4.0928e-07 -0.000999673)
(-8.04406e-09 -5.19055e-07 -0.000999574)
(-3.20069e-08 -6.59348e-07 -0.000999444)
(-6.89988e-08 -8.39092e-07 -0.000999273)
(-1.24677e-07 -1.0699e-06 -0.000999047)
(-2.06813e-07 -1.36686e-06 -0.000998748)
(-3.25948e-07 -1.74962e-06 -0.000998355)
(-4.96552e-07 -2.2438e-06 -0.000997836)
(-7.38433e-07 -2.8828e-06 -0.00099715)
(-1.07858e-06 -3.71029e-06 -0.000996244)
(-1.55361e-06 -4.78335e-06 -0.000995047)
(-2.21316e-06 -6.17673e-06 -0.000993464)
(-3.12432e-06 -7.9884e-06 -0.000991369)
(-4.37771e-06 -1.03468e-05 -0.000988596)
(-6.09621e-06 -1.34218e-05 -0.00098495)
(-8.45221e-06 -1.74481e-05 -0.000980229)
(-1.17151e-05 -2.27967e-05 -0.000973777)
(-1.63351e-05 -3.00784e-05 -0.000962253)
(-2.1369e-05 -3.7695e-05 -0.000947559)
(-2.79159e-05 -4.74519e-05 -0.00095175)
(-3.15716e-05 -5.2496e-05 -0.00106609)
(-4.23031e-05 -6.33232e-05 -0.000393053)
(7.33741e-05 9.34044e-05 -0.00195163)
(-7.67859e-06 -7.50857e-06 -0.00168964)
(-4.26636e-05 -6.39865e-05 -0.00155231)
(-3.58583e-05 -5.26105e-05 -0.0024015)
(-7.46956e-05 -5.11365e-05 -0.00215967)
(-9.77248e-05 -6.60347e-05 -0.00242404)
(-6.58895e-05 -2.10131e-05 -0.00182295)
(-7.91789e-05 3.94528e-05 -0.00259733)
(-3.69752e-05 7.3638e-05 -0.00174912)
(-4.83643e-07 0.000101351 -0.00234088)
(-6.84294e-05 -2.49234e-06 -0.00228285)
(-5.39584e-05 -8.28315e-06 -0.00165404)
(-1.71318e-05 3.05209e-05 -0.0016241)
(-4.36616e-05 4.08425e-05 -0.00182513)
(2.45744e-06 -4.28487e-07 -0.000962946)
(7.41592e-05 3.59662e-05 -0.000872335)
(6.78734e-05 3.23624e-05 -0.000906951)
(5.30496e-05 2.42279e-05 -0.00093563)
(4.11163e-05 1.77235e-05 -0.000951238)
(3.19053e-05 1.29314e-05 -0.000962438)
(2.47953e-05 9.40882e-06 -0.00097111)
(1.93003e-05 6.82437e-06 -0.000977794)
(1.5047e-05 4.93038e-06 -0.000982916)
(1.17493e-05 3.54368e-06 -0.000986842)
(9.18834e-06 2.53329e-06 -0.000989852)
(7.1962e-06 1.79962e-06 -0.000992164)
(5.64405e-06 1.26849e-06 -0.00099394)
(4.43284e-06 8.85383e-07 -0.000995306)
(3.48629e-06 6.10352e-07 -0.000996359)
(2.74554e-06 4.14074e-07 -0.000997172)
(2.16509e-06 2.75039e-07 -0.0009978)
(1.70968e-06 1.77466e-07 -0.000998287)
(1.35193e-06 1.09792e-07 -0.000998664)
(1.07057e-06 6.35653e-08 -0.000998957)
(8.49039e-07 3.26223e-08 -0.000999184)
(6.7441e-07 1.24815e-08 -0.000999362)
(5.36579e-07 -1.57414e-10 -0.0009995)
(4.2762e-07 -7.72751e-09 -0.000999608)
(3.41385e-07 -1.18634e-08 -0.000999692)
(2.73033e-07 -1.37838e-08 -0.000999757)
(2.18774e-07 -1.43441e-08 -0.000999808)
(1.75643e-07 -1.41338e-08 -0.000999847)
(1.41324e-07 -1.3549e-08 -0.000999878)
(1.14016e-07 -1.28458e-08 -0.000999902)
(9.23226e-08 -1.21781e-08 -0.000999921)
(7.51722e-08 -1.16261e-08 -0.000999936)
(6.17469e-08 -1.12191e-08 -0.000999949)
(5.14179e-08 -1.09558e-08 -0.00099996)
(4.36617e-08 -1.08115e-08 -0.000999971)
(3.80248e-08 -1.06879e-08 -0.000999981)
(3.53243e-08 -1.04559e-08 -0.00099999)
)
;
    }
    procBoundary2to3
    {
        type            processor;
        value           nonuniform List<vector> 
90
(
(2.18645e-09 -2.21749e-09 -0.00100001)
(4.13008e-09 -4.38876e-09 -0.00100001)
(6.55937e-09 -6.91614e-09 -0.00100001)
(9.38532e-09 -9.64482e-09 -0.00100001)
(1.27533e-08 -1.26204e-08 -0.001)
(1.6859e-08 -1.59089e-08 -0.001)
(2.19397e-08 -1.95807e-08 -0.000999999)
(2.82888e-08 -2.37101e-08 -0.000999996)
(3.62644e-08 -2.8375e-08 -0.000999994)
(4.63156e-08 -3.36543e-08 -0.000999991)
(5.90085e-08 -3.96231e-08 -0.000999987)
(7.50633e-08 -4.6343e-08 -0.000999982)
(9.54043e-08 -5.3845e-08 -0.000999976)
(1.21227e-07 -6.2105e-08 -0.000999966)
(1.54084e-07 -7.1006e-08 -0.000999953)
(1.96005e-07 -8.02865e-08 -0.000999934)
(2.49642e-07 -8.94715e-08 -0.000999906)
(3.1847e-07 -9.77812e-08 -0.000999867)
(4.07042e-07 -1.03971e-07 -0.000999812)
(5.21326e-07 -1.06018e-07 -0.000999736)
(6.6915e-07 -1.00948e-07 -0.000999631)
(8.60789e-07 -8.44402e-08 -0.000999486)
(1.10971e-06 -5.03518e-08 -0.000999289)
(1.43345e-06 9.74824e-09 -0.000999019)
(1.85509e-06 1.07802e-07 -0.000998651)
(2.40505e-06 2.60611e-07 -0.000998151)
(3.12337e-06 4.91545e-07 -0.000997471)
(4.06273e-06 8.32828e-07 -0.000996549)
(5.29259e-06 1.32876e-06 -0.000995301)
(6.90449e-06 2.04002e-06 -0.000993613)
(9.01928e-06 3.04956e-06 -0.000991333)
(1.17981e-05 4.47133e-06 -0.000988285)
(1.5465e-05 6.46631e-06 -0.000984323)
(2.03673e-05 9.27935e-06 -0.000978867)
(2.70224e-05 1.32854e-05 -0.00096823)
(3.4208e-05 1.78669e-05 -0.000951157)
(4.40843e-05 2.45351e-05 -0.000950903)
(5.07478e-05 2.97987e-05 -0.00111321)
(5.73493e-05 3.61416e-05 -0.000321423)
(-5.44641e-05 -3.59552e-05 -0.00210758)
(2.69587e-06 2.41307e-06 -0.00157003)
(3.48473e-05 1.09175e-05 -0.00164705)
(5.55542e-05 3.35594e-05 -0.00283401)
(-9.43942e-06 1.04071e-05 -0.00161887)
(-7.05204e-05 -3.75918e-05 -0.00269103)
(-6.58611e-05 -9.66563e-06 -0.00204978)
(-6.3729e-05 8.59253e-05 -0.00251155)
(-6.10944e-05 7.11567e-05 -0.0020056)
(-5.8013e-05 3.45716e-05 -0.00268219)
(-7.24767e-05 -2.03322e-05 -0.00163001)
(-9.7587e-05 -3.96613e-05 -0.00276329)
(-6.11535e-05 -1.24734e-05 -0.00112298)
(-0.000138343 -4.1532e-05 -0.00201047)
(3.49069e-06 -2.45736e-05 -0.00105183)
(-1.68086e-05 -4.95002e-05 -0.000951928)
(-1.11323e-05 -4.52324e-05 -0.000956165)
(-6.33217e-06 -3.49848e-05 -0.000975875)
(-3.27905e-06 -2.66383e-05 -0.000983592)
(-1.33378e-06 -2.02907e-05 -0.000988424)
(-9.72635e-08 -1.54728e-05 -0.000991963)
(6.54028e-07 -1.18147e-05 -0.000994522)
(1.07972e-06 -9.03203e-06 -0.000996319)
(1.29171e-06 -6.91064e-06 -0.000997588)
(1.35895e-06 -5.29387e-06 -0.000998488)
(1.33468e-06 -4.06038e-06 -0.000999109)
(1.25635e-06 -3.1182e-06 -0.000999527)
(1.14914e-06 -2.39763e-06 -0.000999804)
(1.02952e-06 -1.84596e-06 -0.000999981)
(9.08025e-07 -1.42314e-06 -0.00100009)
(7.9109e-07 -1.09876e-06 -0.00100015)
(6.82422e-07 -8.49662e-07 -0.00100018)
(5.83885e-07 -6.58171e-07 -0.00100019)
(4.96145e-07 -5.10809e-07 -0.00100019)
(4.19109e-07 -3.97271e-07 -0.00100018)
(3.52226e-07 -3.09678e-07 -0.00100016)
(2.94723e-07 -2.41998e-07 -0.00100014)
(2.45729e-07 -1.89609e-07 -0.00100013)
(2.04278e-07 -1.48964e-07 -0.00100011)
(1.69467e-07 -1.17346e-07 -0.00100009)
(1.40445e-07 -9.26704e-08 -0.00100008)
(1.16433e-07 -7.33421e-08 -0.00100007)
(9.67253e-08 -5.81465e-08 -0.00100005)
(8.06966e-08 -4.61641e-08 -0.00100004)
(6.77941e-08 -3.67062e-08 -0.00100003)
(5.75346e-08 -2.92635e-08 -0.00100002)
(4.94996e-08 -2.34661e-08 -0.00100002)
(4.3323e-08 -1.90492e-08 -0.00100001)
(3.8658e-08 -1.5805e-08 -0.00100001)
(3.52131e-08 -1.35104e-08 -0.00100001)
(3.34381e-08 -1.23432e-08 -0.001)
)
;
    }
}


// ************************************************************************* //
