/*--------------------------------*- C++ -*----------------------------------*\
| =========                 |                                                 |
| \\      /  F ield         | OpenFOAM: The Open Source CFD Toolbox           |
|  \\    /   O peration     | Version:  5.x                                   |
|   \\  /    A nd           | Web:      www.OpenFOAM.org                      |
|    \\/     M anipulation  |                                                 |
\*---------------------------------------------------------------------------*/
FoamFile
{
    version     2.0;
    format      ascii;
    class       volVectorField;
    location    "500";
    object      U;
}
// * * * * * * * * * * * * * * * * * * * * * * * * * * * * * * * * * * * * * //

dimensions      [0 1 -1 0 0 0 0];

internalField   nonuniform List<vector> 
90
(
(2.15357e-09 -2.77177e-09 -0.00100003)
(3.98476e-09 -5.51225e-09 -0.00100003)
(6.32622e-09 -8.88302e-09 -0.00100003)
(9.09927e-09 -1.28105e-08 -0.00100004)
(1.24508e-08 -1.74972e-08 -0.00100004)
(1.6574e-08 -2.32021e-08 -0.00100005)
(2.1697e-08 -3.0231e-08 -0.00100006)
(2.80944e-08 -3.89525e-08 -0.00100007)
(3.61037e-08 -4.9819e-08 -0.00100009)
(4.61492e-08 -6.33948e-08 -0.00100011)
(5.87708e-08 -8.03919e-08 -0.00100014)
(7.46649e-08 -1.01717e-07 -0.00100017)
(9.47348e-08 -1.28532e-07 -0.00100021)
(1.20158e-07 -1.62332e-07 -0.00100027)
(1.52474e-07 -2.05047e-07 -0.00100033)
(1.93692e-07 -2.59167e-07 -0.00100042)
(2.46443e-07 -3.27905e-07 -0.00100053)
(3.14161e-07 -4.15401e-07 -0.00100067)
(4.01335e-07 -5.27022e-07 -0.00100084)
(5.13832e-07 -6.69801e-07 -0.00100107)
(6.59331e-07 -8.5285e-07 -0.00100136)
(8.47892e-07 -1.08799e-06 -0.00100173)
(1.09269e-06 -1.39061e-06 -0.0010022)
(1.41086e-06 -1.7807e-06 -0.00100281)
(1.82494e-06 -2.2844e-06 -0.00100359)
(2.36471e-06 -2.93579e-06 -0.00100459)
(3.06937e-06 -3.77949e-06 -0.00100589)
(3.99061e-06 -4.87397e-06 -0.00100756)
(5.19665e-06 -6.29595e-06 -0.00100973)
(6.77765e-06 -8.14627e-06 -0.00101254)
(8.85289e-06 -1.05576e-05 -0.00101618)
(1.15808e-05 -1.37049e-05 -0.00102095)
(1.51735e-05 -1.78221e-05 -0.00102734)
(1.99192e-05 -2.32314e-05 -0.00103557)
(2.61924e-05 -3.03503e-05 -0.00104265)
(3.43201e-05 -3.94362e-05 -0.00104189)
(4.32582e-05 -4.86555e-05 -0.00107704)
(4.8107e-05 -5.24946e-05 -0.00133248)
(4.96344e-05 -5.87529e-05 -0.000352482)
(-5.84817e-05 8.58637e-05 -0.00276669)
(6.32424e-06 -3.77641e-06 -0.00131063)
(6.92578e-05 -0.000104275 -0.00293845)
(6.1667e-05 -4.96403e-05 -0.00232327)
(1.98228e-05 -6.58505e-05 -0.0031595)
(-3.83989e-05 -5.47153e-05 -0.00217157)
(-6.13952e-05 -2.93538e-05 -0.00320714)
(-2.14774e-05 5.84314e-05 -0.00224909)
(-4.42681e-05 0.000174884 -0.00334943)
(9.99564e-06 7.44255e-05 -0.00180144)
(-5.30128e-05 1.33253e-05 -0.00332439)
(-1.16181e-05 1.51094e-05 -0.00203907)
(-5.39365e-06 3.49685e-05 -0.00207425)
(1.59276e-05 4.2982e-05 -0.00204818)
(2.1832e-05 6.08162e-05 -0.0014715)
(-2.13321e-05 4.48093e-05 -0.000925942)
(-1.58519e-05 3.29343e-05 -0.00101937)
(-9.3195e-06 2.34719e-05 -0.00101843)
(-5.44404e-06 1.70863e-05 -0.00101159)
(-2.93476e-06 1.24697e-05 -0.00100668)
(-1.2795e-06 9.07511e-06 -0.00100362)
(-2.21168e-07 6.58345e-06 -0.00100164)
(4.31247e-07 4.75628e-06 -0.00100039)
(8.0896e-07 3.41875e-06 -0.000999613)
(1.0002e-06 2.44339e-06 -0.000999157)
(1.06868e-06 1.7347e-06 -0.00099892)
(1.05952e-06 1.22157e-06 -0.000998829)
(1.00378e-06 8.51501e-07 -0.00099883)
(9.22393e-07 5.8593e-07 -0.000998886)
(8.29278e-07 3.96496e-07 -0.000998973)
(7.3341e-07 2.62385e-07 -0.000999074)
(6.40377e-07 1.6833e-07 -0.000999179)
(5.53442e-07 1.03151e-07 -0.000999281)
(4.74302e-07 5.86805e-08 -0.000999376)
(4.03635e-07 2.89625e-08 -0.000999463)
(3.41462e-07 9.65772e-09 -0.000999542)
(2.87435e-07 -2.42922e-09 -0.000999612)
(2.41014e-07 -9.69194e-09 -0.000999674)
(2.01473e-07 -1.37154e-08 -0.000999728)
(1.68016e-07 -1.55547e-08 -0.000999775)
(1.39909e-07 -1.60082e-08 -0.000999815)
(1.16462e-07 -1.56403e-08 -0.00099985)
(9.70453e-08 -1.48364e-08 -0.00099988)
(8.10925e-08 -1.38535e-08 -0.000999905)
(6.81059e-08 -1.28566e-08 -0.000999925)
(5.76534e-08 -1.19458e-08 -0.000999943)
(4.93628e-08 -1.11775e-08 -0.000999957)
(4.29137e-08 -1.05776e-08 -0.000999968)
(3.80032e-08 -1.01502e-08 -0.000999977)
(3.43443e-08 -9.8205e-09 -0.000999986)
(3.25118e-08 -9.50973e-09 -0.000999992)
)
;

boundaryField
{
    inlet
    {
        type            zeroGradient;
    }
    outlet
    {
        type            zeroGradient;
    }
    repeat_boundary
    {
        type            slip;
    }
    procBoundary2to0
    {
        type            processor;
        value           nonuniform List<vector> 
90
(
(1.69835e-09 -2.77142e-09 -0.000999996)
(3.08025e-09 -5.5121e-09 -0.000999995)
(4.68422e-09 -8.88371e-09 -0.000999994)
(6.33366e-09 -1.2811e-08 -0.000999992)
(8.0138e-09 -1.74978e-08 -0.000999989)
(9.72722e-09 -2.32021e-08 -0.000999985)
(1.14767e-08 -3.02298e-08 -0.00099998)
(1.32588e-08 -3.8952e-08 -0.000999973)
(1.50566e-08 -4.98186e-08 -0.000999965)
(1.68307e-08 -6.33942e-08 -0.000999955)
(1.85053e-08 -8.0391e-08 -0.000999942)
(1.99487e-08 -1.01716e-07 -0.000999926)
(2.09446e-08 -1.2853e-07 -0.000999904)
(2.11544e-08 -1.62329e-07 -0.000999877)
(2.00662e-08 -2.05041e-07 -0.000999841)
(1.69272e-08 -2.59157e-07 -0.000999795)
(1.066e-08 -3.27889e-07 -0.000999734)
(-2.36957e-10 -4.15375e-07 -0.000999654)
(-1.79118e-08 -5.26978e-07 -0.00099955)
(-4.55402e-08 -6.69729e-07 -0.000999412)
(-8.75085e-08 -8.52729e-07 -0.00099923)
(-1.4987e-07 -1.08779e-06 -0.000998991)
(-2.40915e-07 -1.39026e-06 -0.000998676)
(-3.71869e-07 -1.78012e-06 -0.00099826)
(-5.58054e-07 -2.28341e-06 -0.000997711)
(-8.20528e-07 -2.93409e-06 -0.000996987)
(-1.18789e-06 -3.77658e-06 -0.000996031)
(-1.69892e-06 -4.86895e-06 -0.000994769)
(-2.40611e-06 -6.28726e-06 -0.000993099)
(-3.38042e-06 -8.1312e-06 -0.000990889)
(-4.7175e-06 -1.05315e-05 -0.000987964)
(-6.54703e-06 -1.36609e-05 -0.000984116)
(-9.05068e-06 -1.77589e-05 -0.000979133)
(-1.25111e-05 -2.32035e-05 -0.000972326)
(-1.73925e-05 -3.06059e-05 -0.000960266)
(-2.27509e-05 -3.83483e-05 -0.00094479)
(-2.96609e-05 -4.81748e-05 -0.000947987)
(-3.36555e-05 -5.31129e-05 -0.00106226)
(-4.45002e-05 -6.3322e-05 -0.000387062)
(7.10642e-05 9.40532e-05 -0.00194415)
(-5.22919e-06 -6.95566e-06 -0.00167688)
(-3.01559e-05 -6.03225e-05 -0.00154044)
(-2.06356e-05 -4.80763e-05 -0.00238433)
(-5.50126e-05 -4.56413e-05 -0.00214551)
(-7.23921e-05 -5.9575e-05 -0.00241012)
(-2.35152e-05 -8.86566e-06 -0.00181511)
(-3.90467e-05 5.18345e-05 -0.00259235)
(1.89442e-05 9.03864e-05 -0.00175015)
(4.50392e-05 0.000114899 -0.00234891)
(-1.49758e-05 1.40892e-05 -0.00229937)
(2.07364e-05 1.53307e-05 -0.00167612)
(4.91449e-05 5.33482e-05 -0.00165217)
(-4.06905e-05 2.96568e-05 -0.00185814)
(-3.0902e-06 -3.33511e-06 -0.000989754)
(6.7986e-05 3.4681e-05 -0.000882902)
(6.36218e-05 3.14302e-05 -0.000914544)
(4.99385e-05 2.35375e-05 -0.000941358)
(3.88156e-05 1.72023e-05 -0.000955509)
(3.02054e-05 1.25368e-05 -0.000965611)
(2.35413e-05 9.11088e-06 -0.000973463)
(1.83767e-05 6.60233e-06 -0.000979534)
(1.43678e-05 4.7662e-06 -0.000984201)
(1.12508e-05 3.42398e-06 -0.000987788)
(8.82311e-06 2.44616e-06 -0.000990548)
(6.92935e-06 1.73618e-06 -0.000992674)
(5.4497e-06 1.22236e-06 -0.000994313)
(4.29182e-06 8.51931e-07 -0.000995579)
(3.38438e-06 5.86163e-07 -0.000996558)
(2.67223e-06 3.96622e-07 -0.000997316)
(2.11259e-06 2.62454e-07 -0.000997904)
(1.67224e-06 1.68367e-07 -0.000998361)
(1.32534e-06 1.03171e-07 -0.000998717)
(1.05174e-06 5.86918e-08 -0.000998994)
(8.35721e-07 2.89688e-08 -0.00099921)
(6.64984e-07 9.6612e-09 -0.000999379)
(5.29873e-07 -2.42727e-09 -0.000999511)
(4.22776e-07 -9.69083e-09 -0.000999615)
(3.37791e-07 -1.37148e-08 -0.000999697)
(2.70315e-07 -1.55544e-08 -0.000999762)
(2.16701e-07 -1.6008e-08 -0.000999814)
(1.74082e-07 -1.56401e-08 -0.000999855)
(1.40206e-07 -1.48363e-08 -0.000999888)
(1.13311e-07 -1.38532e-08 -0.000999914)
(9.20174e-08 -1.28564e-08 -0.000999935)
(7.52549e-08 -1.19463e-08 -0.000999951)
(6.21943e-08 -1.11777e-08 -0.000999964)
(5.21867e-08 -1.05778e-08 -0.000999973)
(4.46834e-08 -1.01501e-08 -0.000999981)
(3.92095e-08 -9.8204e-09 -0.000999988)
(3.65882e-08 -9.50957e-09 -0.000999992)
)
;
    }
    procBoundary2to3
    {
        type            processor;
        value           nonuniform List<vector> 
90
(
(2.15316e-09 -2.3166e-09 -0.00100001)
(3.98456e-09 -4.60775e-09 -0.00100001)
(6.32691e-09 -7.24088e-09 -0.001)
(9.09951e-09 -1.00447e-08 -0.001)
(1.24511e-08 -1.306e-08 -0.001)
(1.65742e-08 -1.63553e-08 -0.001)
(2.16964e-08 -2.00109e-08 -0.001)
(2.80941e-08 -2.4117e-08 -0.000999999)
(3.61035e-08 -2.87718e-08 -0.000999997)
(4.61487e-08 -3.40762e-08 -0.000999995)
(5.87702e-08 -4.01263e-08 -0.000999991)
(7.46638e-08 -4.70006e-08 -0.000999987)
(9.4733e-08 -5.47415e-08 -0.000999981)
(1.20155e-07 -6.33281e-08 -0.000999972)
(1.52469e-07 -7.26387e-08 -0.000999959)
(1.93685e-07 -8.24001e-08 -0.00099994)
(2.46431e-07 -9.21194e-08 -0.000999914)
(3.1414e-07 -1.00999e-07 -0.000999877)
(4.013e-07 -1.07768e-07 -0.000999826)
(5.13774e-07 -1.10418e-07 -0.000999754)
(6.59235e-07 -1.05991e-07 -0.000999654)
(8.47731e-07 -9.01995e-08 -0.000999517)
(1.09241e-06 -5.69522e-08 -0.000999329)
(1.4104e-06 2.11443e-09 -0.000999073)
(1.82414e-06 9.87403e-08 -0.000998725)
(2.36333e-06 2.4969e-07 -0.000998249)
(3.06699e-06 4.78177e-07 -0.000997603)
(3.98645e-06 8.1624e-07 -0.000996727)
(5.18937e-06 1.30795e-06 -0.00099554)
(6.76489e-06 2.0137e-06 -0.000993933)
(8.83067e-06 3.01603e-06 -0.000991759)
(1.15436e-05 4.42846e-06 -0.000988853)
(1.51227e-05 6.41151e-06 -0.000985085)
(1.99083e-05 9.20961e-06 -0.000979884)
(2.63962e-05 1.31915e-05 -0.00096953)
(3.33638e-05 1.77462e-05 -0.000952615)
(4.28305e-05 2.43052e-05 -0.00095269)
(4.88312e-05 2.9346e-05 -0.00111706)
(5.41234e-05 3.5095e-05 -0.000325473)
(-5.90692e-05 -3.76623e-05 -0.00211553)
(5.42943e-06 3.81582e-06 -0.00158285)
(4.71965e-05 1.57743e-05 -0.00166078)
(6.77514e-05 3.80898e-05 -0.00285461)
(1.93552e-05 1.87614e-05 -0.00163034)
(-4.39134e-05 -3.05169e-05 -0.00270579)
(-3.16797e-05 2.98129e-07 -0.00205912)
(-3.05781e-05 9.56998e-05 -0.00251855)
(-1.23882e-05 8.641e-05 -0.00200739)
(-6.48029e-06 4.91123e-05 -0.00267621)
(1.47914e-06 2.63487e-07 -0.00161999)
(-4.38313e-05 -2.48479e-05 -0.00273318)
(8.7494e-06 7.44511e-06 -0.00110348)
(-0.000139372 -4.1996e-05 -0.00198037)
(-4.30078e-06 -2.75229e-05 -0.00103611)
(-2.24624e-05 -5.06126e-05 -0.000941731)
(-1.52918e-05 -4.60721e-05 -0.000948419)
(-9.4003e-06 -3.56267e-05 -0.000970121)
(-5.5301e-06 -2.71081e-05 -0.000979317)
(-2.98192e-06 -2.06327e-05 -0.000985269)
(-1.30373e-06 -1.57226e-05 -0.000989657)
(-2.33474e-07 -1.20002e-05 -0.000992842)
(4.25052e-07 -9.17143e-06 -0.000995091)
(8.05855e-07 -7.01743e-06 -0.000996683)
(9.98586e-07 -5.37601e-06 -0.000997812)
(1.06787e-06 -4.12369e-06 -0.000998602)
(1.05911e-06 -3.16715e-06 -0.000999147)
(1.00356e-06 -2.4356e-06 -0.000999519)
(9.22272e-07 -1.87547e-06 -0.000999767)
(8.29207e-07 -1.44608e-06 -0.000999929)
(7.33366e-07 -1.11656e-06 -0.00100003)
(6.40349e-07 -8.63384e-07 -0.00100009)
(5.53422e-07 -6.68652e-07 -0.00100012)
(4.74289e-07 -5.187e-07 -0.00100014)
(4.03625e-07 -4.03089e-07 -0.00100014)
(3.41455e-07 -3.13843e-07 -0.00100013)
(2.8743e-07 -2.44854e-07 -0.00100012)
(2.41011e-07 -1.91446e-07 -0.00100011)
(2.0147e-07 -1.50029e-07 -0.0010001)
(1.68015e-07 -1.1785e-07 -0.00100009)
(1.39908e-07 -9.27986e-08 -0.00100008)
(1.16461e-07 -7.32591e-08 -0.00100007)
(9.70447e-08 -5.79967e-08 -0.00100006)
(8.10923e-08 -4.60709e-08 -0.00100005)
(6.81058e-08 -3.67676e-08 -0.00100004)
(5.76528e-08 -2.95481e-08 -0.00100004)
(4.93625e-08 -2.40092e-08 -0.00100003)
(4.29124e-08 -1.98505e-08 -0.00100003)
(3.79952e-08 -1.68281e-08 -0.00100002)
(3.43529e-08 -1.46879e-08 -0.00100001)
(3.25127e-08 -1.35862e-08 -0.00100001)
)
;
    }
}


// ************************************************************************* //
