/*--------------------------------*- C++ -*----------------------------------*\
  =========                 |
  \\      /  F ield         | OpenFOAM: The Open Source CFD Toolbox
   \\    /   O peration     | Website:  https://openfoam.org
    \\  /    A nd           | Version:  9
     \\/     M anipulation  |
\*---------------------------------------------------------------------------*/
FoamFile
{
    format      ascii;
    class       volVectorField;
    location    "40000";
    object      U;
}
// * * * * * * * * * * * * * * * * * * * * * * * * * * * * * * * * * * * * * //

dimensions      [0 1 -1 0 0 0 0];

internalField   nonuniform List<vector> 
9000
(
(-6.71816e-12 4.04913e-11 -0.001)
(-2.07672e-11 4.05871e-11 -0.001)
(-4.1208e-11 4.32541e-11 -0.001)
(-4.63187e-11 4.14516e-11 -0.001)
(-5.86948e-11 3.7722e-11 -0.001)
(-6.99217e-11 3.59197e-11 -0.001)
(-5.49845e-11 3.47073e-11 -0.001)
(-3.90695e-11 3.43002e-11 -0.001)
(-1.98294e-11 3.56725e-11 -0.001)
(-5.36031e-12 3.56484e-11 -0.001)
(-6.70766e-12 1.10648e-10 -0.001)
(-1.81049e-11 1.10637e-10 -0.001)
(-4.03874e-11 1.12188e-10 -0.001)
(-5.20212e-11 1.07983e-10 -0.001)
(-6.4501e-11 1.0143e-10 -0.001)
(-7.31812e-11 1.02189e-10 -0.001)
(-5.67778e-11 9.9164e-11 -0.001)
(-3.81833e-11 9.79723e-11 -0.001)
(-1.8437e-11 9.77564e-11 -0.001)
(-5.32241e-12 9.59144e-11 -0.001)
(-6.93082e-12 1.68681e-10 -0.001)
(-1.94747e-11 1.66028e-10 -0.001)
(-4.39315e-11 1.62707e-10 -0.001)
(-5.7234e-11 1.55733e-10 -0.001)
(-6.47005e-11 1.56173e-10 -0.001)
(-7.2416e-11 1.51689e-10 -0.001)
(-5.93445e-11 1.51937e-10 -0.001)
(-4.05485e-11 1.48194e-10 -0.001)
(-2.17322e-11 1.45276e-10 -0.001)
(-7.02344e-12 1.39883e-10 -0.001)
(-9.67709e-12 2.07618e-10 -0.000999999)
(-2.44293e-11 2.06058e-10 -0.000999999)
(-5.06949e-11 1.99954e-10 -0.000999999)
(-5.85641e-11 1.95776e-10 -0.000999999)
(-6.86121e-11 1.82002e-10 -0.001)
(-7.74247e-11 1.80454e-10 -0.001)
(-6.02255e-11 1.81262e-10 -0.001)
(-4.48388e-11 1.81417e-10 -0.001)
(-2.64852e-11 1.75562e-10 -0.001)
(-1.04569e-11 1.67136e-10 -0.001)
(-8.97145e-12 2.05954e-10 -0.000999999)
(-2.7623e-11 2.06745e-10 -0.000999999)
(-5.42267e-11 2.04622e-10 -0.000999999)
(-7.51919e-11 1.99321e-10 -0.000999999)
(-8.00779e-11 1.68738e-10 -0.000999999)
(-7.31327e-11 1.98584e-10 -0.000999999)
(-5.84222e-11 1.90404e-10 -0.000999999)
(-4.62339e-11 1.85762e-10 -0.000999999)
(-3.57062e-11 1.80829e-10 -0.001)
(-1.51561e-11 1.73285e-10 -0.001)
(-9.31223e-12 1.81696e-10 -0.000999998)
(-2.62224e-11 1.8386e-10 -0.000999998)
(-5.81362e-11 1.79869e-10 -0.000999999)
(-9.45551e-11 1.80013e-10 -0.000999999)
(-6.93955e-11 1.78257e-10 -0.000999999)
(-5.58401e-11 1.7867e-10 -0.000999999)
(-7.30489e-11 1.7986e-10 -0.000999999)
(-5.43543e-11 1.70444e-10 -0.000999999)
(-3.85972e-11 1.6475e-10 -0.000999999)
(-1.76227e-11 1.60281e-10 -0.000999999)
(-7.11535e-12 1.6171e-10 -0.000999998)
(-2.97905e-11 1.66171e-10 -0.000999998)
(-5.80857e-11 1.60552e-10 -0.000999998)
(-7.69133e-11 1.66932e-10 -0.000999998)
(-8.149e-11 1.8949e-10 -0.000999998)
(-7.14466e-11 1.58652e-10 -0.000999999)
(-6.64927e-11 1.56204e-10 -0.000999999)
(-6.12908e-11 1.45822e-10 -0.000999999)
(-4.549e-11 1.35724e-10 -0.000999999)
(-1.92156e-11 1.32376e-10 -0.000999999)
(-5.17169e-12 1.33996e-10 -0.000999998)
(-2.76757e-11 1.37665e-10 -0.000999998)
(-5.73841e-11 1.37221e-10 -0.000999998)
(-6.56206e-11 1.39355e-10 -0.000999998)
(-7.76432e-11 1.55739e-10 -0.000999998)
(-8.89926e-11 1.47333e-10 -0.000999998)
(-8.5862e-11 1.24072e-10 -0.000999998)
(-7.4812e-11 1.07185e-10 -0.000999999)
(-5.17326e-11 9.79712e-11 -0.000999999)
(-2.06508e-11 9.52865e-11 -0.000999999)
(-3.71919e-12 8.80818e-11 -0.000999998)
(-2.68261e-11 8.84259e-11 -0.000999998)
(-5.63994e-11 8.78016e-11 -0.000999998)
(-5.83911e-11 9.05723e-11 -0.000999998)
(-7.35048e-11 1.03513e-10 -0.000999998)
(-1.03099e-10 9.75401e-11 -0.000999998)
(-1.06629e-10 7.60806e-11 -0.000999998)
(-8.73776e-11 6.23982e-11 -0.000999998)
(-5.71768e-11 5.65054e-11 -0.000999999)
(-2.16822e-11 5.58018e-11 -0.000999999)
(-4.98987e-12 3.1011e-11 -0.000999997)
(-2.80843e-11 2.97942e-11 -0.000999998)
(-5.51595e-11 2.97783e-11 -0.000999998)
(-4.97838e-11 3.09565e-11 -0.000999998)
(-7.05757e-11 3.82168e-11 -0.000999998)
(-1.16213e-10 3.38117e-11 -0.000999998)
(-1.20717e-10 2.49484e-11 -0.000999998)
(-9.41867e-11 1.94481e-11 -0.000999998)
(-5.81081e-11 1.79853e-11 -0.000999999)
(-2.12045e-11 1.84127e-11 -0.000999999)
(-2.25502e-11 1.12869e-10 -0.001)
(-6.18846e-11 1.14521e-10 -0.001)
(-1.18072e-10 1.17003e-10 -0.001)
(-1.40176e-10 1.12422e-10 -0.001)
(-1.64659e-10 1.0346e-10 -0.001)
(-1.831e-10 1.02078e-10 -0.001)
(-1.41168e-10 1.02277e-10 -0.001)
(-9.63472e-11 1.04159e-10 -0.001)
(-4.91177e-11 1.06554e-10 -0.001)
(-1.40743e-11 1.03636e-10 -0.001)
(-2.11443e-11 3.15021e-10 -0.001)
(-5.80283e-11 3.16014e-10 -0.001)
(-1.20346e-10 3.14373e-10 -0.001)
(-1.54231e-10 3.02838e-10 -0.001)
(-1.75682e-10 2.9081e-10 -0.001)
(-1.84778e-10 2.95607e-10 -0.001)
(-1.394e-10 2.94036e-10 -0.001)
(-9.22182e-11 2.91173e-10 -0.001)
(-4.94984e-11 2.88053e-10 -0.001)
(-1.68134e-11 2.78828e-10 -0.001)
(-2.21219e-11 4.80402e-10 -0.001)
(-6.31998e-11 4.73824e-10 -0.001)
(-1.31478e-10 4.6273e-10 -0.001)
(-1.64182e-10 4.46437e-10 -0.001)
(-1.72413e-10 4.5552e-10 -0.001)
(-1.80208e-10 4.48449e-10 -0.001)
(-1.45877e-10 4.47727e-10 -0.001)
(-1.02476e-10 4.33063e-10 -0.001)
(-6.09919e-11 4.20727e-10 -0.001)
(-2.27764e-11 4.04116e-10 -0.001)
(-2.85974e-11 6.00409e-10 -0.000999999)
(-7.6659e-11 5.95234e-10 -0.000999999)
(-1.47768e-10 5.74927e-10 -0.000999999)
(-1.61462e-10 5.63366e-10 -0.001)
(-1.73635e-10 5.58514e-10 -0.001)
(-1.92585e-10 5.49473e-10 -0.001)
(-1.54854e-10 5.469e-10 -0.001)
(-1.19207e-10 5.31744e-10 -0.001)
(-7.77047e-11 5.07936e-10 -0.001)
(-3.26774e-11 4.83229e-10 -0.001)
(-2.85682e-11 6.05093e-10 -0.000999999)
(-8.9978e-11 6.08823e-10 -0.000999999)
(-1.63377e-10 5.97294e-10 -0.000999999)
(-1.80591e-10 5.91543e-10 -0.000999999)
(-1.86322e-10 5.22659e-10 -0.000999999)
(-1.91948e-10 5.95858e-10 -0.000999999)
(-1.63639e-10 5.62025e-10 -0.000999999)
(-1.41416e-10 5.43295e-10 -0.001)
(-1.08601e-10 5.22442e-10 -0.001)
(-4.65799e-11 5.01671e-10 -0.001)
(-2.608e-11 5.27906e-10 -0.000999998)
(-8.57307e-11 5.30075e-10 -0.000999998)
(-1.65079e-10 5.23721e-10 -0.000999999)
(-2.36012e-10 5.30934e-10 -0.000999999)
(-1.69422e-10 5.0535e-10 -0.000999999)
(-1.53226e-10 5.13992e-10 -0.000999999)
(-2.07277e-10 5.00827e-10 -0.000999999)
(-1.58731e-10 4.7981e-10 -0.000999999)
(-1.18333e-10 4.65962e-10 -0.000999999)
(-5.23709e-11 4.59448e-10 -0.000999999)
(-2.72675e-11 4.63127e-10 -0.000999998)
(-9.51199e-11 4.66877e-10 -0.000999998)
(-1.62561e-10 4.59801e-10 -0.000999998)
(-1.99196e-10 4.7052e-10 -0.000999998)
(-2.03263e-10 5.12344e-10 -0.000999998)
(-1.96183e-10 4.30919e-10 -0.000999999)
(-1.97768e-10 4.26016e-10 -0.000999999)
(-1.7628e-10 3.98809e-10 -0.000999999)
(-1.28007e-10 3.78564e-10 -0.000999999)
(-5.20688e-11 3.76447e-10 -0.000999999)
(-2.3154e-11 3.82931e-10 -0.000999998)
(-8.98648e-11 3.88563e-10 -0.000999998)
(-1.61462e-10 3.88243e-10 -0.000999998)
(-1.83495e-10 3.89189e-10 -0.000999998)
(-2.09014e-10 4.09719e-10 -0.000999998)
(-2.39649e-10 3.80963e-10 -0.000999998)
(-2.39414e-10 3.32829e-10 -0.000999998)
(-2.06165e-10 2.96445e-10 -0.000999999)
(-1.39913e-10 2.78616e-10 -0.000999999)
(-5.37171e-11 2.77027e-10 -0.000999999)
(-2.23791e-11 2.50421e-10 -0.000999998)
(-9.05122e-11 2.45755e-10 -0.000999998)
(-1.61943e-10 2.4423e-10 -0.000999998)
(-1.77708e-10 2.45965e-10 -0.000999998)
(-2.11457e-10 2.60662e-10 -0.000999998)
(-2.73016e-10 2.42995e-10 -0.000999998)
(-2.82275e-10 2.02479e-10 -0.000999998)
(-2.30459e-10 1.77269e-10 -0.000999998)
(-1.46873e-10 1.70454e-10 -0.000999999)
(-5.31147e-11 1.7495e-10 -0.000999999)
(-2.82059e-11 8.57641e-11 -0.000999997)
(-9.63541e-11 8.00466e-11 -0.000999997)
(-1.61005e-10 7.99643e-11 -0.000999998)
(-1.66689e-10 8.07359e-11 -0.000999998)
(-2.11526e-10 9.05103e-11 -0.000999998)
(-2.97072e-10 8.02338e-11 -0.000999998)
(-3.04371e-10 6.58353e-11 -0.000999998)
(-2.37712e-10 5.74284e-11 -0.000999998)
(-1.41588e-10 5.81827e-11 -0.000999998)
(-4.87793e-11 6.22945e-11 -0.000999998)
(-4.56432e-11 1.82271e-10 -0.001)
(-1.22652e-10 1.87198e-10 -0.001)
(-2.09094e-10 1.86168e-10 -0.001)
(-2.58332e-10 1.798e-10 -0.001)
(-2.9151e-10 1.71619e-10 -0.001)
(-2.94734e-10 1.72162e-10 -0.001)
(-2.26808e-10 1.8075e-10 -0.001)
(-1.58707e-10 1.83478e-10 -0.001)
(-9.42677e-11 1.82835e-10 -0.001)
(-3.28024e-11 1.74886e-10 -0.001)
(-4.11281e-11 5.24941e-10 -0.001)
(-1.19481e-10 5.27704e-10 -0.001)
(-2.17092e-10 5.20406e-10 -0.001)
(-2.73668e-10 5.057e-10 -0.001)
(-3.00049e-10 4.98914e-10 -0.001)
(-2.86253e-10 5.07651e-10 -0.001)
(-2.15868e-10 5.16132e-10 -0.001)
(-1.5692e-10 5.10127e-10 -0.001)
(-1.02693e-10 4.97957e-10 -0.001)
(-4.04649e-11 4.79156e-10 -0.001)
(-4.38941e-11 8.04535e-10 -0.001)
(-1.28518e-10 7.94236e-10 -0.001)
(-2.31627e-10 7.78517e-10 -0.001)
(-2.80506e-10 7.59337e-10 -0.001)
(-2.90337e-10 7.84443e-10 -0.001)
(-2.78114e-10 7.83242e-10 -0.001)
(-2.2471e-10 7.84978e-10 -0.001)
(-1.77158e-10 7.55693e-10 -0.001)
(-1.2445e-10 7.30214e-10 -0.001)
(-5.06697e-11 7.06748e-10 -0.001)
(-5.28877e-11 1.00811e-09 -0.000999999)
(-1.471e-10 9.92047e-10 -0.001)
(-2.5206e-10 9.62939e-10 -0.001)
(-2.67825e-10 9.52077e-10 -0.001)
(-2.76204e-10 9.8577e-10 -0.001)
(-2.85668e-10 9.91474e-10 -0.001)
(-2.43419e-10 9.73912e-10 -0.001)
(-2.11661e-10 9.31893e-10 -0.001)
(-1.5028e-10 8.93742e-10 -0.001)
(-6.25446e-11 8.65271e-10 -0.001)
(-6.18935e-11 1.04553e-09 -0.000999999)
(-1.75751e-10 1.04351e-09 -0.000999999)
(-2.7172e-10 1.02065e-09 -0.000999999)
(-2.57715e-10 1.02666e-09 -0.000999999)
(-2.5085e-10 9.66597e-10 -0.000999999)
(-2.89711e-10 1.04207e-09 -0.000999999)
(-2.84206e-10 9.84466e-10 -0.001)
(-2.57276e-10 9.6058e-10 -0.001)
(-1.89376e-10 9.26719e-10 -0.001)
(-7.74407e-11 9.05511e-10 -0.001)
(-5.69308e-11 9.3641e-10 -0.000999999)
(-1.74152e-10 9.40006e-10 -0.000999999)
(-2.69042e-10 9.39172e-10 -0.000999999)
(-3.21859e-10 9.47156e-10 -0.000999999)
(-2.60586e-10 8.9176e-10 -0.000999999)
(-2.67676e-10 8.76576e-10 -0.000999999)
(-3.2504e-10 8.53523e-10 -0.000999999)
(-2.69424e-10 8.35985e-10 -0.000999999)
(-2.03529e-10 8.20134e-10 -0.000999999)
(-8.18686e-11 8.14237e-10 -0.000999999)
(-5.99945e-11 8.22206e-10 -0.000999998)
(-1.7482e-10 8.2362e-10 -0.000999998)
(-2.64673e-10 8.26963e-10 -0.000999998)
(-3.04963e-10 8.23675e-10 -0.000999998)
(-3.21226e-10 8.37438e-10 -0.000999998)
(-3.28219e-10 7.39927e-10 -0.000999999)
(-3.25005e-10 7.25409e-10 -0.000999999)
(-2.90614e-10 6.86135e-10 -0.000999999)
(-2.09535e-10 6.69345e-10 -0.000999999)
(-8.17315e-11 6.68135e-10 -0.000999999)
(-5.70129e-11 6.74279e-10 -0.000999998)
(-1.70902e-10 6.78465e-10 -0.000999998)
(-2.69e-10 6.76183e-10 -0.000999998)
(-3.11304e-10 6.66957e-10 -0.000999998)
(-3.44327e-10 6.55885e-10 -0.000999998)
(-3.79741e-10 6.17967e-10 -0.000999998)
(-3.78802e-10 5.66423e-10 -0.000999998)
(-3.25435e-10 5.23673e-10 -0.000999999)
(-2.2023e-10 5.08498e-10 -0.000999999)
(-8.18235e-11 5.12868e-10 -0.000999999)
(-5.70398e-11 4.36436e-10 -0.000999997)
(-1.74123e-10 4.30075e-10 -0.000999997)
(-2.76178e-10 4.26518e-10 -0.000999998)
(-3.25233e-10 4.21969e-10 -0.000999998)
(-3.70204e-10 4.08581e-10 -0.000999998)
(-4.17659e-10 3.80475e-10 -0.000999998)
(-4.19272e-10 3.53229e-10 -0.000999998)
(-3.4848e-10 3.28365e-10 -0.000999998)
(-2.19311e-10 3.28543e-10 -0.000999998)
(-7.63575e-11 3.42737e-10 -0.000999998)
(-6.40302e-11 1.47484e-10 -0.000999997)
(-1.81333e-10 1.40657e-10 -0.000999997)
(-2.76618e-10 1.40273e-10 -0.000999997)
(-3.2857e-10 1.39709e-10 -0.000999998)
(-3.85057e-10 1.36225e-10 -0.000999998)
(-4.34123e-10 1.24163e-10 -0.000999998)
(-4.29922e-10 1.18868e-10 -0.000999998)
(-3.49442e-10 1.12577e-10 -0.000999998)
(-2.04797e-10 1.17337e-10 -0.000999998)
(-6.68402e-11 1.26511e-10 -0.000999998)
(-7.40863e-11 2.58889e-10 -0.001)
(-1.96772e-10 2.65089e-10 -0.001)
(-3.13387e-10 2.62051e-10 -0.001)
(-3.91663e-10 2.57961e-10 -0.001)
(-4.42522e-10 2.51073e-10 -0.001)
(-4.34431e-10 2.57091e-10 -0.001)
(-3.46475e-10 2.70822e-10 -0.001)
(-2.64636e-10 2.70479e-10 -0.001)
(-1.80134e-10 2.64528e-10 -0.001)
(-6.89772e-11 2.51904e-10 -0.001)
(-6.85349e-11 7.54676e-10 -0.001)
(-1.9461e-10 7.56542e-10 -0.001)
(-3.21293e-10 7.44173e-10 -0.001)
(-4.03635e-10 7.3191e-10 -0.001)
(-4.44443e-10 7.3461e-10 -0.001)
(-4.15485e-10 7.45949e-10 -0.001)
(-3.33735e-10 7.63338e-10 -0.001)
(-2.71512e-10 7.51318e-10 -0.001)
(-1.98585e-10 7.30233e-10 -0.001)
(-8.12441e-11 7.05337e-10 -0.001)
(-7.37016e-11 1.15709e-09 -0.001)
(-2.09148e-10 1.1427e-09 -0.001)
(-3.38756e-10 1.12418e-09 -0.001)
(-4.02096e-10 1.10536e-09 -0.001)
(-4.29425e-10 1.14346e-09 -0.001)
(-4.06535e-10 1.16009e-09 -0.001)
(-3.41753e-10 1.16085e-09 -0.001)
(-2.9826e-10 1.124e-09 -0.001)
(-2.25074e-10 1.09291e-09 -0.001)
(-9.26004e-11 1.06804e-09 -0.001)
(-8.50329e-11 1.43465e-09 -0.001)
(-2.2981e-10 1.40972e-09 -0.001)
(-3.58722e-10 1.38786e-09 -0.001)
(-3.84339e-10 1.37645e-09 -0.001)
(-3.89713e-10 1.45703e-09 -0.001)
(-3.98226e-10 1.43983e-09 -0.001)
(-3.69878e-10 1.45165e-09 -0.001)
(-3.39422e-10 1.40283e-09 -0.001)
(-2.5249e-10 1.36732e-09 -0.001)
(-1.04049e-10 1.3428e-09 -0.001)
(-1.01247e-10 1.53909e-09 -0.000999999)
(-2.58795e-10 1.52764e-09 -0.000999999)
(-3.72104e-10 1.50538e-09 -0.000999999)
(-3.32839e-10 1.52007e-09 -0.000999999)
(-3.66047e-10 1.43888e-09 -0.001)
(-4.12175e-10 1.56255e-09 -0.001)
(-3.78748e-10 1.47837e-09 -0.001)
(-3.82534e-10 1.46948e-09 -0.001)
(-2.82539e-10 1.43775e-09 -0.001)
(-1.14561e-10 1.42487e-09 -0.001)
(-9.94466e-11 1.45652e-09 -0.000999999)
(-2.66552e-10 1.46195e-09 -0.000999999)
(-3.66277e-10 1.46148e-09 -0.000999999)
(-4.50856e-10 1.47543e-09 -0.000999999)
(-3.47434e-10 1.37985e-09 -0.000999999)
(-3.58741e-10 1.3792e-09 -0.000999999)
(-4.62873e-10 1.31263e-09 -0.000999999)
(-3.79974e-10 1.29728e-09 -0.000999999)
(-2.94356e-10 1.27836e-09 -0.001)
(-1.14201e-10 1.27364e-09 -0.001)
(-9.86384e-11 1.29107e-09 -0.000999998)
(-2.56643e-10 1.29818e-09 -0.000999998)
(-3.58673e-10 1.3046e-09 -0.000999998)
(-4.14319e-10 1.29017e-09 -0.000999998)
(-4.62416e-10 1.31041e-09 -0.000999998)
(-4.79454e-10 1.1431e-09 -0.000999999)
(-4.60611e-10 1.13623e-09 -0.000999999)
(-4.1665e-10 1.07842e-09 -0.000999999)
(-3.03731e-10 1.06362e-09 -0.000999999)
(-1.16877e-10 1.06356e-09 -0.000999999)
(-9.46844e-11 1.04677e-09 -0.000999997)
(-2.5546e-10 1.05129e-09 -0.000999998)
(-3.74407e-10 1.04287e-09 -0.000999998)
(-4.45089e-10 1.01941e-09 -0.000999998)
(-4.94555e-10 9.80509e-10 -0.000999998)
(-5.32897e-10 9.42856e-10 -0.000999998)
(-5.27491e-10 8.86892e-10 -0.000999998)
(-4.52489e-10 8.45351e-10 -0.000999998)
(-3.07151e-10 8.3847e-10 -0.000999999)
(-1.12233e-10 8.52545e-10 -0.000999999)
(-9.60024e-11 6.77317e-10 -0.000999997)
(-2.62517e-10 6.73136e-10 -0.000999997)
(-3.90624e-10 6.65501e-10 -0.000999997)
(-4.76651e-10 6.50458e-10 -0.000999997)
(-5.38927e-10 6.18205e-10 -0.000999998)
(-5.73061e-10 5.80244e-10 -0.000999998)
(-5.58077e-10 5.61862e-10 -0.000999998)
(-4.64981e-10 5.46229e-10 -0.000999998)
(-2.94795e-10 5.54589e-10 -0.000999998)
(-1.01109e-10 5.75367e-10 -0.000999998)
(-9.98684e-11 2.31066e-10 -0.000999997)
(-2.68043e-10 2.27433e-10 -0.000999997)
(-3.96345e-10 2.25493e-10 -0.000999997)
(-4.91406e-10 2.20956e-10 -0.000999997)
(-5.63653e-10 2.09795e-10 -0.000999997)
(-5.87962e-10 1.95202e-10 -0.000999998)
(-5.60314e-10 1.93696e-10 -0.000999998)
(-4.58875e-10 1.91855e-10 -0.000999998)
(-2.76343e-10 1.99026e-10 -0.000999998)
(-9.0163e-11 2.0942e-10 -0.000999998)
(-1.04999e-10 3.56369e-10 -0.001)
(-2.90277e-10 3.60619e-10 -0.001)
(-4.52546e-10 3.57745e-10 -0.001)
(-5.60739e-10 3.55152e-10 -0.001)
(-6.39433e-10 3.55616e-10 -0.001)
(-6.52052e-10 3.62524e-10 -0.001)
(-5.60286e-10 3.7245e-10 -0.001)
(-4.50847e-10 3.67743e-10 -0.001)
(-3.20478e-10 3.56223e-10 -0.001)
(-1.23624e-10 3.41696e-10 -0.001)
(-1.01606e-10 1.03285e-09 -0.001)
(-2.90195e-10 1.02898e-09 -0.001)
(-4.58911e-10 1.01795e-09 -0.001)
(-5.6397e-10 1.01166e-09 -0.001)
(-6.33313e-10 1.02396e-09 -0.001)
(-6.3651e-10 1.03259e-09 -0.001)
(-5.56269e-10 1.04981e-09 -0.001)
(-4.68105e-10 1.03152e-09 -0.001)
(-3.46557e-10 1.00535e-09 -0.001)
(-1.37752e-10 9.8076e-10 -0.001)
(-1.10925e-10 1.57845e-09 -0.001)
(-3.07744e-10 1.56161e-09 -0.001)
(-4.70791e-10 1.55004e-09 -0.001)
(-5.55807e-10 1.54592e-09 -0.001)
(-6.19764e-10 1.5825e-09 -0.001)
(-6.27518e-10 1.59392e-09 -0.001)
(-5.62549e-10 1.60936e-09 -0.001)
(-4.96267e-10 1.57155e-09 -0.001)
(-3.70008e-10 1.53872e-09 -0.001)
(-1.46602e-10 1.51625e-09 -0.001)
(-1.21394e-10 1.93954e-09 -0.001)
(-3.21746e-10 1.9229e-09 -0.001)
(-4.74711e-10 1.92236e-09 -0.001)
(-5.31531e-10 1.92929e-09 -0.001)
(-5.85379e-10 2.02394e-09 -0.001)
(-6.09715e-10 1.97058e-09 -0.001)
(-5.78701e-10 2.02189e-09 -0.001)
(-5.38708e-10 1.97807e-09 -0.001)
(-3.9896e-10 1.94239e-09 -0.001)
(-1.57354e-10 1.91535e-09 -0.001)
(-1.31116e-10 2.14421e-09 -0.000999999)
(-3.28666e-10 2.13638e-09 -0.000999999)
(-4.64429e-10 2.12742e-09 -0.000999999)
(-4.54262e-10 2.14743e-09 -0.000999999)
(-5.78501e-10 2.04711e-09 -0.001)
(-6.29601e-10 2.22432e-09 -0.001)
(-5.55059e-10 2.12394e-09 -0.001)
(-5.75635e-10 2.1162e-09 -0.001)
(-4.28944e-10 2.08973e-09 -0.001)
(-1.69924e-10 2.07659e-09 -0.001)
(-1.33322e-10 2.14447e-09 -0.000999998)
(-3.42742e-10 2.14774e-09 -0.000999998)
(-4.63818e-10 2.1406e-09 -0.000999999)
(-6.11969e-10 2.1466e-09 -0.000999999)
(-5.08797e-10 2.02927e-09 -0.000999999)
(-5.32917e-10 2.07258e-09 -0.000999999)
(-6.86615e-10 1.95792e-09 -0.000999999)
(-5.7276e-10 1.94046e-09 -0.001)
(-4.34414e-10 1.93075e-09 -0.001)
(-1.66432e-10 1.93614e-09 -0.001)
(-1.3194e-10 1.92793e-09 -0.000999998)
(-3.36721e-10 1.93564e-09 -0.000999998)
(-4.65697e-10 1.93279e-09 -0.000999998)
(-5.6579e-10 1.90459e-09 -0.000999998)
(-6.52596e-10 1.93784e-09 -0.000999998)
(-7.00694e-10 1.71434e-09 -0.000999998)
(-6.87187e-10 1.70918e-09 -0.000999999)
(-6.02746e-10 1.65852e-09 -0.000999999)
(-4.29486e-10 1.6589e-09 -0.000999999)
(-1.60854e-10 1.67373e-09 -0.000999999)
(-1.2906e-10 1.54332e-09 -0.000999997)
(-3.41505e-10 1.54605e-09 -0.000999997)
(-4.95009e-10 1.52803e-09 -0.000999997)
(-6.06971e-10 1.48762e-09 -0.000999997)
(-6.98843e-10 1.44184e-09 -0.000999998)
(-7.61477e-10 1.39161e-09 -0.000999998)
(-7.42511e-10 1.34707e-09 -0.000999998)
(-6.22892e-10 1.32272e-09 -0.000999998)
(-4.15944e-10 1.33324e-09 -0.000999998)
(-1.48431e-10 1.3575e-09 -0.000999999)
(-1.32004e-10 9.973e-10 -0.000999996)
(-3.54911e-10 9.96289e-10 -0.000999996)
(-5.24174e-10 9.80395e-10 -0.000999997)
(-6.51911e-10 9.50505e-10 -0.000999997)
(-7.48528e-10 9.07181e-10 -0.000999997)
(-7.95405e-10 8.67975e-10 -0.000999997)
(-7.56006e-10 8.58237e-10 -0.000999998)
(-6.1644e-10 8.60302e-10 -0.000999998)
(-3.91934e-10 8.7876e-10 -0.000999998)
(-1.33919e-10 9.03446e-10 -0.000999998)
(-1.31632e-10 3.44219e-10 -0.000999996)
(-3.596e-10 3.44973e-10 -0.000999996)
(-5.39769e-10 3.39488e-10 -0.000999996)
(-6.78803e-10 3.28362e-10 -0.000999997)
(-7.79834e-10 3.11298e-10 -0.000999997)
(-8.08816e-10 2.95631e-10 -0.000999997)
(-7.48699e-10 2.96406e-10 -0.000999997)
(-6.01205e-10 3.01569e-10 -0.000999998)
(-3.70309e-10 3.10587e-10 -0.000999998)
(-1.21772e-10 3.21871e-10 -0.000999998)
(-1.43312e-10 4.90367e-10 -0.001)
(-4.16995e-10 4.89625e-10 -0.001)
(-6.57968e-10 4.86911e-10 -0.001)
(-8.17431e-10 4.86834e-10 -0.001)
(-9.3171e-10 4.86724e-10 -0.001)
(-9.81677e-10 4.93921e-10 -0.001)
(-8.90716e-10 4.98323e-10 -0.001)
(-7.25528e-10 4.87394e-10 -0.001)
(-5.08539e-10 4.73382e-10 -0.001)
(-1.90462e-10 4.61752e-10 -0.001)
(-1.4523e-10 1.40354e-09 -0.001)
(-4.22179e-10 1.39415e-09 -0.001)
(-6.61929e-10 1.38851e-09 -0.001)
(-8.19081e-10 1.39404e-09 -0.001)
(-9.26312e-10 1.4116e-09 -0.001)
(-9.71987e-10 1.41622e-09 -0.001)
(-8.99113e-10 1.42293e-09 -0.001)
(-7.51952e-10 1.39502e-09 -0.001)
(-5.34309e-10 1.36645e-09 -0.001)
(-2.01585e-10 1.34692e-09 -0.001)
(-1.55578e-10 2.14336e-09 -0.001)
(-4.3555e-10 2.13285e-09 -0.001)
(-6.59363e-10 2.13802e-09 -0.001)
(-7.95867e-10 2.15726e-09 -0.001)
(-9.11298e-10 2.20726e-09 -0.001)
(-9.7232e-10 2.18397e-09 -0.001)
(-9.13775e-10 2.19614e-09 -0.001)
(-7.83395e-10 2.15391e-09 -0.001)
(-5.54989e-10 2.11924e-09 -0.001)
(-2.0777e-10 2.09908e-09 -0.001)
(-1.59847e-10 2.65186e-09 -0.001)
(-4.31794e-10 2.65773e-09 -0.001)
(-6.37698e-10 2.6818e-09 -0.001)
(-7.49914e-10 2.7174e-09 -0.001)
(-8.99674e-10 2.83522e-09 -0.001)
(-9.83182e-10 2.72169e-09 -0.001)
(-9.2925e-10 2.75917e-09 -0.001)
(-8.28774e-10 2.70443e-09 -0.001)
(-5.84998e-10 2.65748e-09 -0.001)
(-2.17687e-10 2.62757e-09 -0.001)
(-1.54627e-10 2.97116e-09 -0.000999999)
(-4.10715e-10 2.97738e-09 -0.000999999)
(-5.99854e-10 2.98725e-09 -0.000999999)
(-6.42461e-10 3.00769e-09 -0.000999999)
(-9.06975e-10 2.90378e-09 -0.001)
(-1.04822e-09 3.11759e-09 -0.001)
(-9.31047e-10 2.98497e-09 -0.001)
(-8.84931e-10 2.95621e-09 -0.001)
(-6.26716e-10 2.92724e-09 -0.001)
(-2.32655e-10 2.9105e-09 -0.001)
(-1.59278e-10 3.04074e-09 -0.000999998)
(-4.21536e-10 3.03927e-09 -0.000999998)
(-6.07577e-10 3.01991e-09 -0.000999998)
(-8.33502e-10 2.99731e-09 -0.000999998)
(-7.89323e-10 2.84612e-09 -0.000999999)
(-9.01914e-10 2.96629e-09 -0.000999999)
(-1.0909e-09 2.84932e-09 -0.001)
(-8.86329e-10 2.84908e-09 -0.001)
(-6.2497e-10 2.86782e-09 -0.001)
(-2.28836e-10 2.88871e-09 -0.001)
(-1.61852e-10 2.7591e-09 -0.000999997)
(-4.37476e-10 2.76111e-09 -0.000999997)
(-6.42048e-10 2.7343e-09 -0.000999997)
(-8.16103e-10 2.68643e-09 -0.000999997)
(-9.38024e-10 2.70353e-09 -0.000999998)
(-1.0453e-09 2.46201e-09 -0.000999998)
(-1.04824e-09 2.50554e-09 -0.000999999)
(-8.66255e-10 2.50722e-09 -0.000999999)
(-5.81423e-10 2.54535e-09 -0.000999999)
(-2.06299e-10 2.58082e-09 -0.000999999)
(-1.62342e-10 2.18929e-09 -0.000999996)
(-4.51609e-10 2.18654e-09 -0.000999996)
(-6.82414e-10 2.15572e-09 -0.000999996)
(-8.64326e-10 2.10183e-09 -0.000999997)
(-1.01391e-09 2.04982e-09 -0.000999997)
(-1.09977e-09 1.98211e-09 -0.000999997)
(-1.04569e-09 1.98522e-09 -0.000999998)
(-8.4641e-10 2.00123e-09 -0.000999998)
(-5.46311e-10 2.03634e-09 -0.000999998)
(-1.88477e-10 2.06479e-09 -0.000999998)
(-1.6864e-10 1.40968e-09 -0.000999995)
(-4.7525e-10 1.40691e-09 -0.000999995)
(-7.26837e-10 1.37829e-09 -0.000999996)
(-9.21952e-10 1.33348e-09 -0.000999996)
(-1.05759e-09 1.27776e-09 -0.000999996)
(-1.10981e-09 1.25376e-09 -0.000999997)
(-1.02906e-09 1.26866e-09 -0.000999997)
(-8.14947e-10 1.2959e-09 -0.000999997)
(-5.13708e-10 1.32573e-09 -0.000999998)
(-1.73864e-10 1.34841e-09 -0.000999998)
(-1.67406e-10 4.88316e-10 -0.000999995)
(-4.8476e-10 4.90144e-10 -0.000999995)
(-7.54444e-10 4.78827e-10 -0.000999995)
(-9.6298e-10 4.612e-10 -0.000999996)
(-1.09154e-09 4.36082e-10 -0.000999996)
(-1.10674e-09 4.25332e-10 -0.000999996)
(-1.0016e-09 4.37129e-10 -0.000999997)
(-7.87752e-10 4.50907e-10 -0.000999997)
(-4.90198e-10 4.62815e-10 -0.000999997)
(-1.62952e-10 4.72537e-10 -0.000999997)
(-1.98195e-10 6.74724e-10 -0.001)
(-6.00687e-10 6.67848e-10 -0.001)
(-9.6268e-10 6.64472e-10 -0.001)
(-1.21162e-09 6.66152e-10 -0.001)
(-1.36457e-09 6.70995e-10 -0.001)
(-1.42341e-09 6.74195e-10 -0.001)
(-1.31853e-09 6.68439e-10 -0.001)
(-1.07395e-09 6.5229e-10 -0.00100001)
(-7.27418e-10 6.40102e-10 -0.00100001)
(-2.61609e-10 6.34148e-10 -0.00100001)
(-2.06689e-10 1.91986e-09 -0.001)
(-6.13328e-10 1.90769e-09 -0.001)
(-9.66103e-10 1.90933e-09 -0.001)
(-1.20727e-09 1.92673e-09 -0.001)
(-1.35903e-09 1.9561e-09 -0.001)
(-1.42873e-09 1.95442e-09 -0.001)
(-1.34308e-09 1.93599e-09 -0.001)
(-1.10437e-09 1.8987e-09 -0.001)
(-7.45739e-10 1.87319e-09 -0.00100001)
(-2.66865e-10 1.86091e-09 -0.00100001)
(-2.14365e-10 2.94861e-09 -0.001)
(-6.16105e-10 2.94997e-09 -0.001)
(-9.4555e-10 2.97082e-09 -0.001)
(-1.16716e-09 3.00816e-09 -0.001)
(-1.33949e-09 3.0701e-09 -0.001)
(-1.44635e-09 3.01402e-09 -0.001)
(-1.37692e-09 2.99535e-09 -0.001)
(-1.13876e-09 2.95064e-09 -0.001)
(-7.62997e-10 2.9196e-09 -0.001)
(-2.70855e-10 2.90475e-09 -0.001)
(-2.10973e-10 3.70192e-09 -0.001)
(-5.96968e-10 3.72692e-09 -0.001)
(-9.08159e-10 3.76034e-09 -0.001)
(-1.10808e-09 3.80413e-09 -0.001)
(-1.35328e-09 3.89543e-09 -0.001)
(-1.50362e-09 3.78008e-09 -0.001)
(-1.40656e-09 3.75528e-09 -0.001)
(-1.18003e-09 3.68919e-09 -0.001)
(-7.85986e-10 3.64264e-09 -0.001)
(-2.76189e-10 3.6227e-09 -0.001)
(-1.96281e-10 4.13619e-09 -0.000999999)
(-5.64813e-10 4.157e-09 -0.000999999)
(-8.6856e-10 4.17609e-09 -0.000999999)
(-1.03207e-09 4.17846e-09 -0.000999999)
(-1.36359e-09 4.09529e-09 -0.001)
(-1.5865e-09 4.2695e-09 -0.001)
(-1.46776e-09 4.13618e-09 -0.001)
(-1.25119e-09 4.08772e-09 -0.001)
(-8.22335e-10 4.0628e-09 -0.001)
(-2.83837e-10 4.0497e-09 -0.001)
(-1.97935e-10 4.207e-09 -0.000999997)
(-5.65128e-10 4.20667e-09 -0.000999997)
(-8.86934e-10 4.17703e-09 -0.000999998)
(-1.18864e-09 4.12722e-09 -0.000999998)
(-1.26227e-09 3.97534e-09 -0.000999999)
(-1.46275e-09 4.11952e-09 -0.000999999)
(-1.58835e-09 4.0581e-09 -0.001)
(-1.25316e-09 4.08852e-09 -0.001)
(-8.15997e-10 4.13266e-09 -0.001)
(-2.81496e-10 4.15832e-09 -0.001)
(-2.04568e-10 3.81814e-09 -0.000999996)
(-6.02973e-10 3.81353e-09 -0.000999996)
(-9.48194e-10 3.76397e-09 -0.000999996)
(-1.23387e-09 3.70846e-09 -0.000999997)
(-1.3712e-09 3.67799e-09 -0.000999997)
(-1.50362e-09 3.50437e-09 -0.000999998)
(-1.49881e-09 3.60095e-09 -0.000999998)
(-1.17638e-09 3.66839e-09 -0.000999999)
(-7.44379e-10 3.73857e-09 -0.000999999)
(-2.50301e-10 3.77913e-09 -0.000999999)
(-2.0972e-10 3.0142e-09 -0.000999995)
(-6.26681e-10 3.00428e-09 -0.000999995)
(-9.922e-10 2.96281e-09 -0.000999995)
(-1.27455e-09 2.90552e-09 -0.000999996)
(-1.46633e-09 2.85918e-09 -0.000999996)
(-1.54004e-09 2.77812e-09 -0.000999997)
(-1.42433e-09 2.8469e-09 -0.000999997)
(-1.11533e-09 2.90693e-09 -0.000999998)
(-6.97829e-10 2.96039e-09 -0.000999998)
(-2.33792e-10 2.9823e-09 -0.000999998)
(-2.20129e-10 1.93028e-09 -0.000999994)
(-6.60211e-10 1.91938e-09 -0.000999994)
(-1.04705e-09 1.88239e-09 -0.000999994)
(-1.33741e-09 1.83201e-09 -0.000999995)
(-1.49858e-09 1.77854e-09 -0.000999995)
(-1.5158e-09 1.7736e-09 -0.000999996)
(-1.3699e-09 1.82457e-09 -0.000999996)
(-1.06263e-09 1.87378e-09 -0.000999997)
(-6.63097e-10 1.91039e-09 -0.000999997)
(-2.22737e-10 1.92255e-09 -0.000999997)
(-2.23819e-10 6.64982e-10 -0.000999994)
(-6.77016e-10 6.62124e-10 -0.000999994)
(-1.07761e-09 6.48214e-10 -0.000999994)
(-1.37579e-09 6.2968e-10 -0.000999995)
(-1.52189e-09 6.07399e-10 -0.000999995)
(-1.49114e-09 6.03698e-10 -0.000999995)
(-1.32153e-09 6.29298e-10 -0.000999996)
(-1.02737e-09 6.49457e-10 -0.000999996)
(-6.44046e-10 6.62493e-10 -0.000999996)
(-2.17644e-10 6.65939e-10 -0.000999997)
(-2.82535e-10 9.21553e-10 -0.001)
(-8.61501e-10 9.10525e-10 -0.001)
(-1.38023e-09 9.08147e-10 -0.001)
(-1.74831e-09 9.12525e-10 -0.001)
(-1.94704e-09 9.26033e-10 -0.00100001)
(-1.98594e-09 9.22801e-10 -0.00100001)
(-1.83785e-09 9.06555e-10 -0.00100001)
(-1.48815e-09 8.89859e-10 -0.00100001)
(-9.7647e-10 8.8293e-10 -0.00100001)
(-3.40142e-10 8.83239e-10 -0.00100001)
(-2.95795e-10 2.63495e-09 -0.001)
(-8.78256e-10 2.62515e-09 -0.001)
(-1.38078e-09 2.63264e-09 -0.001)
(-1.73357e-09 2.65477e-09 -0.001)
(-1.94036e-09 2.69343e-09 -0.001)
(-2.00927e-09 2.68131e-09 -0.00100001)
(-1.87439e-09 2.64133e-09 -0.00100001)
(-1.51461e-09 2.60581e-09 -0.00100001)
(-9.8324e-10 2.59134e-09 -0.00100001)
(-3.38809e-10 2.58833e-09 -0.00100001)
(-2.9784e-10 4.08461e-09 -0.001)
(-8.70592e-10 4.09862e-09 -0.001)
(-1.3534e-09 4.11984e-09 -0.001)
(-1.69086e-09 4.14967e-09 -0.001)
(-1.92427e-09 4.19657e-09 -0.001)
(-2.04199e-09 4.13395e-09 -0.001)
(-1.91702e-09 4.09394e-09 -0.001)
(-1.54094e-09 4.06108e-09 -0.00100001)
(-9.90794e-10 4.04629e-09 -0.00100001)
(-3.38882e-10 4.04074e-09 -0.00100001)
(-2.89546e-10 5.1904e-09 -0.001)
(-8.51076e-10 5.22051e-09 -0.001)
(-1.33009e-09 5.23601e-09 -0.001)
(-1.65698e-09 5.25748e-09 -0.001)
(-1.95624e-09 5.2755e-09 -0.001)
(-2.11219e-09 5.19415e-09 -0.001)
(-1.94739e-09 5.13166e-09 -0.001)
(-1.56213e-09 5.0876e-09 -0.001)
(-9.95692e-10 5.06889e-09 -0.001)
(-3.36652e-10 5.06692e-09 -0.001)
(-2.77519e-10 5.75062e-09 -0.000999998)
(-8.35083e-10 5.77697e-09 -0.000999999)
(-1.31673e-09 5.77832e-09 -0.000999999)
(-1.65138e-09 5.75178e-09 -0.001)
(-1.98777e-09 5.69576e-09 -0.001)
(-2.18584e-09 5.7971e-09 -0.001)
(-2.02339e-09 5.69229e-09 -0.001)
(-1.60339e-09 5.65705e-09 -0.001)
(-1.0014e-09 5.64852e-09 -0.001)
(-3.31075e-10 5.64373e-09 -0.001)
(-2.74009e-10 5.73797e-09 -0.000999996)
(-8.34555e-10 5.7466e-09 -0.000999997)
(-1.35562e-09 5.71842e-09 -0.000999997)
(-1.73955e-09 5.66105e-09 -0.000999998)
(-1.91089e-09 5.566e-09 -0.000999998)
(-2.11552e-09 5.6595e-09 -0.000999999)
(-2.08741e-09 5.66589e-09 -0.001)
(-1.60556e-09 5.70962e-09 -0.001)
(-9.97847e-10 5.75502e-09 -0.001)
(-3.30591e-10 5.76856e-09 -0.001)
(-2.79728e-10 5.17941e-09 -0.000999995)
(-8.65792e-10 5.17373e-09 -0.000999995)
(-1.40263e-09 5.12594e-09 -0.000999995)
(-1.80385e-09 5.08095e-09 -0.000999996)
(-1.98932e-09 5.0275e-09 -0.000999997)
(-2.0859e-09 4.94682e-09 -0.000999997)
(-1.97326e-09 5.06224e-09 -0.000999998)
(-1.51393e-09 5.15483e-09 -0.000999998)
(-9.31165e-10 5.22896e-09 -0.000999999)
(-3.06616e-10 5.25394e-09 -0.000999999)
(-2.89481e-10 4.08453e-09 -0.000999993)
(-8.98103e-10 4.06915e-09 -0.000999993)
(-1.4487e-09 4.02611e-09 -0.000999994)
(-1.83799e-09 3.97757e-09 -0.000999995)
(-2.04505e-09 3.94121e-09 -0.000999995)
(-2.08079e-09 3.90055e-09 -0.000999996)
(-1.87939e-09 3.99552e-09 -0.000999996)
(-1.43853e-09 4.07535e-09 -0.000999997)
(-8.88444e-10 4.12988e-09 -0.000999997)
(-2.95717e-10 4.13712e-09 -0.000999997)
(-3.0274e-10 2.60097e-09 -0.000999992)
(-9.32086e-10 2.58276e-09 -0.000999992)
(-1.49434e-09 2.55154e-09 -0.000999993)
(-1.88862e-09 2.51565e-09 -0.000999993)
(-2.06619e-09 2.48088e-09 -0.000999994)
(-2.03144e-09 2.48953e-09 -0.000999995)
(-1.79832e-09 2.56651e-09 -0.000999995)
(-1.37922e-09 2.62304e-09 -0.000999996)
(-8.61275e-10 2.65409e-09 -0.000999996)
(-2.91597e-10 2.64944e-09 -0.000999996)