/*--------------------------------*- C++ -*----------------------------------*\
| =========                 |                                                 |
| \\      /  F ield         | OpenFOAM: The Open Source CFD Toolbox           |
|  \\    /   O peration     | Version:  5.x                                   |
|   \\  /    A nd           | Web:      www.OpenFOAM.org                      |
|    \\/     M anipulation  |                                                 |
\*---------------------------------------------------------------------------*/
FoamFile
{
    version     2.0;
    format      ascii;
    class       volScalarField;
    location    "4000";
    object      p;
}
// * * * * * * * * * * * * * * * * * * * * * * * * * * * * * * * * * * * * * //

dimensions      [0 2 -2 0 0 0 0];

internalField   nonuniform List<scalar> 
180
(
-1.01358e-09
-3.0465e-09
-5.10496e-09
-7.15701e-09
-9.19592e-09
-1.12195e-08
-1.32257e-08
-1.52129e-08
-1.7179e-08
-1.91214e-08
-2.10365e-08
-2.29194e-08
-2.47639e-08
-2.6562e-08
-2.8304e-08
-2.99784e-08
-3.15716e-08
-3.30684e-08
-3.44524e-08
-3.57054e-08
-3.6809e-08
-3.77438e-08
-3.84905e-08
-3.90302e-08
-3.93446e-08
-3.94163e-08
-3.92291e-08
-3.87675e-08
-3.80167e-08
-3.6962e-08
-3.55881e-08
-3.38777e-08
-3.18106e-08
-2.93617e-08
-2.64998e-08
-2.3185e-08
-1.93672e-08
-1.49837e-08
-9.95697e-09
-4.19257e-09
2.42325e-09
1.00255e-08
1.87727e-08
2.88488e-08
4.04648e-08
5.38612e-08
6.93095e-08
8.71142e-08
1.07615e-07
1.3119e-07
1.58257e-07
1.89277e-07
2.24762e-07
2.65276e-07
3.11447e-07
3.6397e-07
4.23621e-07
4.91273e-07
5.67909e-07
6.54644e-07
7.52753e-07
8.63699e-07
9.89169e-07
1.13111e-06
1.29179e-06
1.47385e-06
1.68035e-06
1.91486e-06
2.18157e-06
2.48528e-06
2.83167e-06
3.22799e-06
3.68396e-06
4.20712e-06
4.78195e-06
5.3667e-06
6.09753e-06
7.90028e-06
1.14986e-05
5.69144e-06
-0.000119728
0.000767158
0.00127886
0.00144297
0.00194184
0.0028921
0.00456368
0.00519289
0.00947107
0.0120522
0.0132838
0.0135392
0.0142457
0.0162221
0.0168461
0.0184671
0.0196022
0.0204215
0.0214647
0.022119
0.0231256
0.0243793
0.0246357
0.0248694
0.0249658
0.0249319
0.0249213
0.0249163
0.0249121
0.0249082
0.0249048
0.024902
0.0248997
0.0248977
0.0248961
0.0248947
0.0248935
0.0248925
0.0248917
0.024891
0.0248904
0.0248899
0.0248895
0.0248892
0.0248889
0.0248886
0.0248884
0.0248883
0.0248881
0.024888
0.0248879
0.0248878
0.0248878
0.0248877
0.0248877
0.0248876
0.0248876
0.0248876
0.0248875
0.0248875
0.0248875
0.0248875
0.0248875
0.0248875
0.0248875
0.0248875
0.0248875
0.0248875
0.0248875
0.0248875
0.0248875
0.0248875
0.0248875
0.0248875
0.0248875
0.0248875
0.0248875
0.0248875
0.0248875
0.0248875
0.0248875
0.0248875
0.0248875
0.0248875
0.0248875
0.0248875
0.0248875
0.0248875
0.0248875
0.0248875
0.0248875
0.0248875
0.0248875
0.0248875
0.0248875
0.0248875
0.0248875
0.0248875
0.0248875
0.0248875
)
;

boundaryField
{
    inlet
    {
        type            zeroGradient;
    }
    outlet
    {
        type            fixedValue;
        value           uniform 0;
    }
    repeat_boundary
    {
        type            zeroGradient;
    }
    procBoundary0to1
    {
        type            processor;
        value           nonuniform List<scalar> 
180
(
-1.23263e-09
-3.55578e-09
-5.79062e-09
-8.07097e-09
-1.03725e-08
-1.27152e-08
-1.51019e-08
-1.75343e-08
-2.0011e-08
-2.2528e-08
-2.50785e-08
-2.7653e-08
-3.024e-08
-3.28264e-08
-3.5398e-08
-3.79408e-08
-4.04412e-08
-4.28875e-08
-4.52706e-08
-4.75852e-08
-4.98304e-08
-5.20112e-08
-5.41383e-08
-5.62297e-08
-5.83107e-08
-6.04141e-08
-6.25808e-08
-6.48594e-08
-6.73066e-08
-6.99869e-08
-7.29726e-08
-7.63439e-08
-8.01892e-08
-8.46055e-08
-8.96991e-08
-9.55869e-08
-1.02398e-07
-1.10277e-07
-1.19386e-07
-1.29907e-07
-1.42051e-07
-1.56059e-07
-1.72211e-07
-1.90833e-07
-2.12305e-07
-2.37074e-07
-2.65664e-07
-2.98693e-07
-3.3689e-07
-3.81108e-07
-4.32357e-07
-4.9182e-07
-5.60887e-07
-6.41193e-07
-7.34655e-07
-8.43521e-07
-9.70428e-07
-1.11847e-06
-1.29127e-06
-1.49308e-06
-1.7289e-06
-2.00457e-06
-2.32695e-06
-2.70411e-06
-3.14549e-06
-3.66219e-06
-4.26722e-06
-4.97584e-06
-5.80596e-06
-6.7786e-06
-7.91835e-06
-9.25341e-06
-1.0816e-05
-1.26475e-05
-1.4817e-05
-1.74105e-05
-2.03295e-05
-2.28894e-05
-2.51276e-05
-3.95421e-05
-0.000155558
0.000801474
0.00186835
0.00183918
0.00326902
0.00528357
0.00780302
0.00866276
0.00989859
0.0107035
0.0112486
0.0123553
0.0128181
0.0142131
0.0169584
0.0188248
0.0189092
0.0193239
0.0209127
0.0228151
0.0242365
0.0246316
0.024773
0.0248224
0.0248475
0.0248562
0.0248599
0.0248637
0.0248674
0.0248705
0.0248731
0.0248753
0.0248771
0.0248786
0.0248799
0.024881
0.024882
0.0248828
0.0248834
0.024884
0.0248845
0.0248849
0.0248852
0.0248855
0.0248858
0.024886
0.0248862
0.0248864
0.0248865
0.0248866
0.0248867
0.0248868
0.0248869
0.024887
0.024887
0.0248871
0.0248871
0.0248872
0.0248872
0.0248872
0.0248873
0.0248873
0.0248873
0.0248873
0.0248873
0.0248874
0.0248874
0.0248874
0.0248874
0.0248874
0.0248874
0.0248874
0.0248874
0.0248874
0.0248874
0.0248875
0.0248875
0.0248875
0.0248875
0.0248875
0.0248875
0.0248875
0.0248875
0.0248875
0.0248875
0.0248875
0.0248875
0.0248875
0.0248875
0.0248875
0.0248875
0.0248875
0.0248875
0.0248875
0.0248875
0.0248875
0.0248875
0.0248875
0.0248875
0.0248875
)
;
    }
    procBoundary0to2
    {
        type            processor;
        value           nonuniform List<scalar> 
180
(
-1.5507e-09
-4.5597e-09
-7.49883e-09
-1.0488e-08
-1.35092e-08
-1.65889e-08
-1.97347e-08
-2.29522e-08
-2.62437e-08
-2.96087e-08
-3.30439e-08
-3.65428e-08
-4.00968e-08
-4.3695e-08
-4.73253e-08
-5.09746e-08
-5.46301e-08
-5.82795e-08
-6.19124e-08
-6.55205e-08
-6.90987e-08
-7.26452e-08
-7.61621e-08
-7.96555e-08
-8.31355e-08
-8.66154e-08
-9.01117e-08
-9.36428e-08
-9.72281e-08
-1.00887e-07
-1.04635e-07
-1.08488e-07
-1.12452e-07
-1.16528e-07
-1.20708e-07
-1.24971e-07
-1.29284e-07
-1.33597e-07
-1.37845e-07
-1.41941e-07
-1.45779e-07
-1.49228e-07
-1.5213e-07
-1.54299e-07
-1.55517e-07
-1.55531e-07
-1.54046e-07
-1.50722e-07
-1.45167e-07
-1.36931e-07
-1.25498e-07
-1.10272e-07
-9.05728e-08
-6.56173e-08
-3.45081e-08
3.78435e-09
5.04405e-08
1.06812e-07
1.74447e-07
2.5511e-07
3.50817e-07
4.63859e-07
5.96835e-07
7.52683e-07
9.34716e-07
1.14665e-06
1.39263e-06
1.67729e-06
2.00573e-06
2.38354e-06
2.81691e-06
3.31297e-06
3.88011e-06
4.52434e-06
5.23681e-06
6.00023e-06
6.92426e-06
8.49228e-06
1.05737e-05
4.39392e-06
-6.23769e-05
0.000553096
0.00113145
0.001467
0.00294929
0.004678
0.00688811
0.00777577
0.0082506
0.00934189
0.0126826
0.0149411
0.0171524
0.0175268
0.0189735
0.0199252
0.0203805
0.0214797
0.0217199
0.0225098
0.0242612
0.0247302
0.0248874
0.0248878
0.0248892
0.0248923
0.0248924
0.0248924
0.0248925
0.0248925
0.0248924
0.0248922
0.0248919
0.0248916
0.0248913
0.0248911
0.0248908
0.0248905
0.0248902
0.02489
0.0248897
0.0248895
0.0248893
0.0248891
0.0248889
0.0248888
0.0248886
0.0248885
0.0248884
0.0248883
0.0248882
0.0248881
0.0248881
0.024888
0.0248879
0.0248879
0.0248878
0.0248878
0.0248878
0.0248877
0.0248877
0.0248877
0.0248877
0.0248876
0.0248876
0.0248876
0.0248876
0.0248876
0.0248876
0.0248876
0.0248876
0.0248875
0.0248875
0.0248875
0.0248875
0.0248875
0.0248875
0.0248875
0.0248875
0.0248875
0.0248875
0.0248875
0.0248875
0.0248875
0.0248875
0.0248875
0.0248875
0.0248875
0.0248875
0.0248875
0.0248875
0.0248875
0.0248875
0.0248875
0.0248875
0.0248875
0.0248875
0.0248875
0.0248875
0.0248875
)
;
    }
}


// ************************************************************************* //
