/*--------------------------------*- C++ -*----------------------------------*\
| =========                 |                                                 |
| \\      /  F ield         | OpenFOAM: The Open Source CFD Toolbox           |
|  \\    /   O peration     | Version:  5.x                                   |
|   \\  /    A nd           | Web:      www.OpenFOAM.org                      |
|    \\/     M anipulation  |                                                 |
\*---------------------------------------------------------------------------*/
FoamFile
{
    version     2.0;
    format      ascii;
    class       volVectorField;
    location    "4000";
    object      U;
}
// * * * * * * * * * * * * * * * * * * * * * * * * * * * * * * * * * * * * * //

dimensions      [0 1 -1 0 0 0 0];

internalField   nonuniform List<vector> 
180
(
(7.30441e-11 1.07956e-08 -0.00100008)
(3.64678e-10 1.57968e-08 -0.00100008)
(7.23692e-10 2.34215e-08 -0.00100009)
(1.08737e-09 3.22826e-08 -0.00100009)
(1.45235e-09 4.1811e-08 -0.00100009)
(1.83414e-09 5.18778e-08 -0.0010001)
(2.24511e-09 6.25234e-08 -0.0010001)
(2.69514e-09 7.38459e-08 -0.00100011)
(3.19361e-09 8.59642e-08 -0.00100012)
(3.7507e-09 9.90095e-08 -0.00100013)
(4.37801e-09 1.13124e-07 -0.00100014)
(5.08878e-09 1.28462e-07 -0.00100016)
(5.89827e-09 1.45191e-07 -0.00100017)
(6.82404e-09 1.63497e-07 -0.00100019)
(7.88632e-09 1.83581e-07 -0.00100021)
(9.10841e-09 2.05665e-07 -0.00100023)
(1.05172e-08 2.29994e-07 -0.00100025)
(1.2144e-08 2.56839e-07 -0.00100028)
(1.40247e-08 2.86498e-07 -0.00100031)
(1.62012e-08 3.19304e-07 -0.00100034)
(1.87218e-08 3.55624e-07 -0.00100038)
(2.16427e-08 3.95865e-07 -0.00100042)
(2.50287e-08 4.40481e-07 -0.00100047)
(2.89552e-08 4.89977e-07 -0.00100052)
(3.35092e-08 5.44913e-07 -0.00100058)
(3.87919e-08 6.05914e-07 -0.00100065)
(4.49201e-08 6.73674e-07 -0.00100072)
(5.20295e-08 7.48969e-07 -0.0010008)
(6.02771e-08 8.32664e-07 -0.00100089)
(6.98445e-08 9.25721e-07 -0.00100099)
(8.09422e-08 1.02922e-06 -0.0010011)
(9.38135e-08 1.14435e-06 -0.00100122)
(1.0874e-07 1.27246e-06 -0.00100136)
(1.26048e-07 1.41504e-06 -0.00100152)
(1.46113e-07 1.57376e-06 -0.00100169)
(1.69371e-07 1.7505e-06 -0.00100188)
(1.96327e-07 1.94733e-06 -0.0010021)
(2.27562e-07 2.1666e-06 -0.00100234)
(2.6375e-07 2.41091e-06 -0.00100261)
(3.0567e-07 2.68318e-06 -0.00100291)
(3.54222e-07 2.9867e-06 -0.00100324)
(4.10447e-07 3.32511e-06 -0.00100362)
(4.75548e-07 3.70253e-06 -0.00100404)
(5.50918e-07 4.12356e-06 -0.00100451)
(6.38164e-07 4.59334e-06 -0.00100503)
(7.39147e-07 5.11767e-06 -0.00100562)
(8.56017e-07 5.70304e-06 -0.00100628)
(9.91258e-07 6.35672e-06 -0.00100702)
(1.14774e-06 7.08689e-06 -0.00100784)
(1.32878e-06 7.90274e-06 -0.00100877)
(1.53821e-06 8.8146e-06 -0.00100981)
(1.78045e-06 9.83406e-06 -0.00101097)
(2.06062e-06 1.09742e-05 -0.00101228)
(2.38461e-06 1.22496e-05 -0.00101375)
(2.75924e-06 1.3677e-05 -0.00101539)
(3.19239e-06 1.52748e-05 -0.00101724)
(3.69312e-06 1.7064e-05 -0.00101932)
(4.27194e-06 1.90683e-05 -0.00102166)
(4.94096e-06 2.13143e-05 -0.00102429)
(5.71414e-06 2.3832e-05 -0.00102725)
(6.60764e-06 2.66554e-05 -0.00103058)
(7.64008e-06 2.98228e-05 -0.00103433)
(8.833e-06 3.33773e-05 -0.00103856)
(1.02112e-05 3.7368e-05 -0.00104332)
(1.18035e-05 4.185e-05 -0.00104869)
(1.3643e-05 4.6886e-05 -0.00105475)
(1.5768e-05 5.25468e-05 -0.00106159)
(1.82229e-05 5.89126e-05 -0.00106931)
(2.10588e-05 6.60744e-05 -0.00107803)
(2.43351e-05 7.41353e-05 -0.00108789)
(2.81202e-05 8.32122e-05 -0.00109905)
(3.24932e-05 9.34373e-05 -0.00111167)
(3.75451e-05 0.000104956 -0.00112591)
(4.3376e-05 0.000117907 -0.00114189)
(5.00733e-05 0.000132342 -0.00116017)
(5.76201e-05 0.000147918 -0.00118296)
(6.55856e-05 0.000163004 -0.00121256)
(7.21353e-05 0.000172295 -0.00123148)
(7.30546e-05 0.000164597 -0.00119118)
(5.99395e-05 0.000121933 -0.000965724)
(1.2263e-05 1.61249e-05 -0.00372691)
(6.90086e-06 1.83463e-05 -1.03434e-05)
(-0.000341531 0.000175533 -0.00436012)
(-3.5976e-05 1.19526e-05 -0.00043837)
(-0.000450047 -0.000271843 -0.00489977)
(-3.0839e-05 1.16048e-05 -0.000129675)
(-0.000706707 -0.000479438 -0.00521292)
(-0.000325362 -0.000216963 -0.00434268)
(-1.42258e-05 3.12608e-05 -0.00120945)
(0.000204054 0.000345878 -0.00499919)
(0.000206462 4.07234e-05 -0.00146034)
(0.000652194 -0.000484411 -0.00438145)
(3.01544e-05 -6.90185e-06 -5.65104e-05)
(0.000452707 -0.00020868 -0.00519092)
(7.40531e-05 -0.000214956 -0.00284524)
(3.1142e-05 -0.000111445 -0.00239509)
(0.000241855 -0.000112435 -0.00376182)
(0.000193704 -0.000116919 -0.00265886)
(2.71436e-05 -2.1146e-05 -0.00245407)
(-0.00021634 -8.10808e-05 -0.00390819)
(-0.000106051 -0.000121017 -0.00180141)
(-0.000110347 -0.000141244 -0.00347104)
(-0.00012189 -0.000180773 -0.00276588)
(-4.88383e-06 -7.91554e-05 -0.00112428)
(-3.94053e-06 -2.77636e-05 -0.00183731)
(-4.88339e-05 -5.98844e-05 -0.00105865)
(-6.57684e-05 -7.27718e-05 -0.00106776)
(-6.38243e-05 -7.0974e-05 -0.00108572)
(-5.61237e-05 -6.35612e-05 -0.00107963)
(-4.81224e-05 -5.52306e-05 -0.0010665)
(-4.10023e-05 -4.746e-05 -0.00105539)
(-3.48484e-05 -4.0596e-05 -0.00104658)
(-2.9566e-05 -3.46462e-05 -0.00103921)
(-2.50438e-05 -2.95241e-05 -0.0010329)
(-2.11774e-05 -2.51256e-05 -0.00102752)
(-1.78751e-05 -2.1353e-05 -0.00102294)
(-1.50573e-05 -1.81201e-05 -0.00101905)
(-1.26556e-05 -1.53521e-05 -0.00101576)
(-1.06109e-05 -1.29843e-05 -0.00101298)
(-8.87235e-06 -1.0961e-05 -0.00101063)
(-7.39611e-06 -9.23374e-06 -0.00100865)
(-6.14445e-06 -7.76095e-06 -0.00100699)
(-5.08491e-06 -6.50666e-06 -0.00100559)
(-4.18959e-06 -5.43984e-06 -0.00100443)
(-3.43452e-06 -4.53378e-06 -0.00100346)
(-2.7991e-06 -3.76544e-06 -0.00100265)
(-2.26569e-06 -3.11501e-06 -0.00100198)
(-1.81913e-06 -2.56542e-06 -0.00100143)
(-1.44638e-06 -2.10196e-06 -0.00100098)
(-1.1362e-06 -1.71197e-06 -0.00100062)
(-8.79026e-07 -1.38457e-06 -0.00100032)
(-6.66655e-07 -1.11043e-06 -0.00100009)
(-4.92115e-07 -8.81563e-07 -0.000999906)
(-3.49492e-07 -6.91135e-07 -0.000999762)
(-2.33721e-07 -5.33283e-07 -0.000999652)
(-1.40444e-07 -4.02967e-07 -0.000999571)
(-6.59132e-08 -2.95857e-07 -0.000999514)
(-6.93891e-09 -2.08259e-07 -0.000999477)
(3.92219e-08 -1.36993e-07 -0.000999456)
(7.49263e-08 -7.93109e-08 -0.000999448)
(1.02023e-07 -3.2931e-08 -0.00099945)
(1.21988e-07 4.05505e-09 -0.000999458)
(1.36061e-07 3.32309e-08 -0.000999471)
(1.45327e-07 5.59104e-08 -0.000999488)
(1.50725e-07 7.32196e-08 -0.000999508)
(1.53e-07 8.6031e-08 -0.000999529)
(1.52789e-07 9.51077e-08 -0.000999551)
(1.5063e-07 1.0111e-07 -0.000999574)
(1.46969e-07 1.046e-07 -0.000999598)
(1.42179e-07 1.06056e-07 -0.000999621)
(1.36567e-07 1.05885e-07 -0.000999644)
(1.30386e-07 1.0443e-07 -0.000999667)
(1.23842e-07 1.01982e-07 -0.000999689)
(1.17103e-07 9.87822e-08 -0.00099971)
(1.10304e-07 9.5032e-08 -0.00099973)
(1.03549e-07 9.08987e-08 -0.00099975)
(9.69236e-08 8.65199e-08 -0.000999769)
(9.04912e-08 8.20079e-08 -0.000999787)
(8.42999e-08 7.74537e-08 -0.000999803)
(7.83848e-08 7.29302e-08 -0.000999819)
(7.27701e-08 6.84949e-08 -0.000999834)
(6.74712e-08 6.41926e-08 -0.000999848)
(6.24968e-08 6.00574e-08 -0.000999861)
(5.78497e-08 5.61145e-08 -0.000999873)
(5.35287e-08 5.23821e-08 -0.000999885)
(4.95293e-08 4.88723e-08 -0.000999895)
(4.58446e-08 4.55926e-08 -0.000999905)
(4.2466e-08 4.2547e-08 -0.000999915)
(3.9384e-08 3.97363e-08 -0.000999923)
(3.65885e-08 3.71596e-08 -0.000999931)
(3.40694e-08 3.48143e-08 -0.000999939)
(3.18165e-08 3.26969e-08 -0.000999946)
(2.98203e-08 3.08029e-08 -0.000999953)
(2.80715e-08 2.91277e-08 -0.000999959)
(2.65611e-08 2.76658e-08 -0.000999965)
(2.52802e-08 2.64108e-08 -0.000999971)
(2.42187e-08 2.53534e-08 -0.000999976)
(2.33796e-08 2.44964e-08 -0.000999981)
(2.27223e-08 2.38062e-08 -0.000999987)
(2.22551e-08 2.3328e-08 -0.000999991)
)
;

boundaryField
{
    inlet
    {
        type            zeroGradient;
    }
    outlet
    {
        type            zeroGradient;
    }
    repeat_boundary
    {
        type            slip;
    }
    procBoundary0to1
    {
        type            processor;
        value           nonuniform List<vector> 
180
(
(7.30439e-11 1.00638e-08 -0.00100008)
(3.64678e-10 1.45785e-08 -0.00100008)
(7.23692e-10 2.155e-08 -0.00100008)
(1.08737e-09 2.96634e-08 -0.00100008)
(1.45235e-09 3.83846e-08 -0.00100009)
(1.83414e-09 4.75841e-08 -0.00100009)
(2.24511e-09 5.72916e-08 -0.0010001)
(2.69514e-09 6.75894e-08 -0.0010001)
(3.1936e-09 7.85776e-08 -0.00100011)
(3.7507e-09 9.03662e-08 -0.00100012)
(4.378e-09 1.03073e-07 -0.00100013)
(5.08878e-09 1.16824e-07 -0.00100014)
(5.89827e-09 1.31755e-07 -0.00100015)
(6.82404e-09 1.48015e-07 -0.00100017)
(7.88631e-09 1.65761e-07 -0.00100018)
(9.10841e-09 1.85169e-07 -0.0010002)
(1.05172e-08 2.06426e-07 -0.00100022)
(1.2144e-08 2.29738e-07 -0.00100024)
(1.40247e-08 2.55329e-07 -0.00100027)
(1.62012e-08 2.83444e-07 -0.0010003)
(1.87218e-08 3.14352e-07 -0.00100033)
(2.16426e-08 3.48346e-07 -0.00100036)
(2.50287e-08 3.85745e-07 -0.0010004)
(2.89552e-08 4.269e-07 -0.00100044)
(3.35092e-08 4.72194e-07 -0.00100048)
(3.87918e-08 5.22047e-07 -0.00100053)
(4.49201e-08 5.76917e-07 -0.00100058)
(5.20295e-08 6.37304e-07 -0.00100064)
(6.0277e-08 7.03755e-07 -0.00100071)
(6.98444e-08 7.76869e-07 -0.00100078)
(8.0942e-08 8.57297e-07 -0.00100086)
(9.38133e-08 9.45751e-07 -0.00100094)
(1.0874e-07 1.04301e-06 -0.00100104)
(1.26047e-07 1.14991e-06 -0.00100114)
(1.46112e-07 1.26737e-06 -0.00100125)
(1.69371e-07 1.3964e-06 -0.00100138)
(1.96326e-07 1.53808e-06 -0.00100151)
(2.27561e-07 1.69358e-06 -0.00100166)
(2.63749e-07 1.86419e-06 -0.00100182)
(3.05668e-07 2.05127e-06 -0.001002)
(3.5422e-07 2.25633e-06 -0.00100219)
(4.10444e-07 2.48096e-06 -0.00100239)
(4.75544e-07 2.72689e-06 -0.00100262)
(5.50912e-07 2.99599e-06 -0.00100287)
(6.38156e-07 3.29024e-06 -0.00100313)
(7.39137e-07 3.61176e-06 -0.00100342)
(8.56004e-07 3.96282e-06 -0.00100373)
(9.9124e-07 4.34583e-06 -0.00100407)
(1.14772e-06 4.76333e-06 -0.00100443)
(1.32875e-06 5.21803e-06 -0.00100482)
(1.53816e-06 5.71274e-06 -0.00100524)
(1.78039e-06 6.25043e-06 -0.00100569)
(2.06054e-06 6.83416e-06 -0.00100616)
(2.3845e-06 7.46709e-06 -0.00100667)
(2.7591e-06 8.15248e-06 -0.00100722)
(3.19219e-06 8.89361e-06 -0.00100779)
(3.69287e-06 9.69375e-06 -0.00100839)
(4.2716e-06 1.05561e-05 -0.00100902)
(4.94049e-06 1.14839e-05 -0.00100968)
(5.71351e-06 1.24799e-05 -0.00101036)
(6.60679e-06 1.35468e-05 -0.00101107)
(7.63895e-06 1.46866e-05 -0.00101178)
(8.83147e-06 1.5901e-05 -0.0010125)
(1.02092e-05 1.71908e-05 -0.00101321)
(1.18007e-05 1.85555e-05 -0.0010139)
(1.36393e-05 1.99937e-05 -0.00101456)
(1.5763e-05 2.1502e-05 -0.00101516)
(1.82161e-05 2.3075e-05 -0.00101567)
(2.10497e-05 2.47046e-05 -0.00101606)
(2.43229e-05 2.63794e-05 -0.0010163)
(2.81037e-05 2.80842e-05 -0.00101633)
(3.24709e-05 2.97989e-05 -0.00101609)
(3.75138e-05 3.14962e-05 -0.00101547)
(4.33275e-05 3.31363e-05 -0.0010143)
(4.99843e-05 3.46454e-05 -0.00101283)
(5.74309e-05 3.58589e-05 -0.00101262)
(6.50562e-05 3.63843e-05 -0.00101406)
(7.1221e-05 3.54739e-05 -0.000999489)
(7.1325e-05 3.17998e-05 -0.000929035)
(5.79428e-05 2.38178e-05 -0.000789482)
(9.912e-06 -4.918e-07 -0.00307904)
(-3.13226e-06 1.6817e-05 -2.40987e-06)
(-0.00019106 0.000298463 -0.00375012)
(-8.15419e-05 0.000108609 -0.0027102)
(-5.52015e-05 -1.75258e-05 -0.000926789)
(-0.000291118 4.91667e-05 -0.00529514)
(-7.72416e-05 4.74696e-06 -0.000345934)
(-0.000938148 -0.000414778 -0.00525784)
(-5.71518e-05 -4.85992e-06 -8.55582e-06)
(0.000678169 -0.000910594 -0.00475917)
(-3.13076e-05 -5.13519e-06 -8.9713e-05)
(0.000431287 -0.000445999 -0.00428541)
(0.0001387 -0.00025104 -0.00145128)
(0.000286197 -0.000599576 -0.00459998)
(1.96294e-05 -5.69337e-05 -0.000710856)
(5.96558e-05 -0.000287707 -0.00282946)
(0.000339664 -0.000565632 -0.00224419)
(2.13939e-07 5.61833e-06 -4.59166e-05)
(1.90833e-05 -0.000122255 -0.00399364)
(-3.62318e-05 -1.53874e-06 -0.000816758)
(-0.000185599 0.000182458 -0.00253797)
(-0.000127715 0.000166927 -0.00132683)
(-0.00016976 -1.3166e-05 -0.00126893)
(-0.000105715 1.51129e-05 -0.00105562)
(-5.18975e-05 6.35573e-05 -0.000959219)
(-6.73888e-05 0.000101112 -0.000890427)
(-7.13579e-05 0.000112615 -0.000858933)
(-6.52058e-05 0.00010781 -0.000870912)
(-5.64931e-05 9.7244e-05 -0.000890806)
(-4.82784e-05 8.58776e-05 -0.000906547)
(-4.1102e-05 7.53457e-05 -0.000919059)
(-3.49205e-05 6.59984e-05 -0.000929803)
(-2.96189e-05 5.78002e-05 -0.000939196)
(-2.50826e-05 5.06302e-05 -0.00094736)
(-2.12058e-05 4.43622e-05 -0.000954432)
(-1.78958e-05 3.88821e-05 -0.000960556)
(-1.50725e-05 3.40897e-05 -0.00096586)
(-1.26666e-05 2.98977e-05 -0.000970454)
(-1.06189e-05 2.62298e-05 -0.000974432)
(-8.87818e-06 2.30195e-05 -0.000977877)
(-7.40034e-06 2.02091e-05 -0.000980859)
(-6.14751e-06 1.7748e-05 -0.000983441)
(-5.08713e-06 1.55921e-05 -0.000985677)
(-4.19119e-06 1.3703e-05 -0.000987612)
(-3.43567e-06 1.20472e-05 -0.000989288)
(-2.79993e-06 1.05954e-05 -0.000990738)
(-2.26628e-06 9.32217e-06 -0.000991993)
(-1.81956e-06 8.20517e-06 -0.00099308)
(-1.44668e-06 7.2249e-06 -0.000994019)
(-1.13642e-06 6.36431e-06 -0.000994832)
(-8.79178e-07 5.60852e-06 -0.000995534)
(-6.66761e-07 4.94452e-06 -0.000996142)
(-4.9219e-07 4.36095e-06 -0.000996667)
(-3.49544e-07 3.8479e-06 -0.000997122)
(-2.33758e-07 3.39671e-06 -0.000997515)
(-1.40469e-07 2.99975e-06 -0.000997854)
(-6.5931e-08 2.65035e-06 -0.000998147)
(-6.95128e-09 2.34266e-06 -0.000998399)
(3.92133e-08 2.07155e-06 -0.000998615)
(7.49203e-08 1.83251e-06 -0.000998802)
(1.02018e-07 1.62167e-06 -0.000998964)
(1.21985e-07 1.43569e-06 -0.000999105)
(1.36059e-07 1.27161e-06 -0.000999228)
(1.45326e-07 1.12682e-06 -0.000999333)
(1.50724e-07 9.9899e-07 -0.000999425)
(1.52999e-07 8.86087e-07 -0.000999503)
(1.52788e-07 7.86323e-07 -0.000999571)
(1.50629e-07 6.98129e-07 -0.000999629)
(1.46969e-07 6.20129e-07 -0.00099968)
(1.42179e-07 5.51114e-07 -0.000999723)
(1.36567e-07 4.90021e-07 -0.000999761)
(1.30386e-07 4.35918e-07 -0.000999793)
(1.23842e-07 3.87986e-07 -0.000999821)
(1.17103e-07 3.45503e-07 -0.000999845)
(1.10303e-07 3.07835e-07 -0.000999866)
(1.03549e-07 2.74426e-07 -0.000999884)
(9.69236e-08 2.44785e-07 -0.0009999)
(9.04911e-08 2.1848e-07 -0.000999913)
(8.42999e-08 1.9513e-07 -0.000999925)
(7.83848e-08 1.74401e-07 -0.000999935)
(7.27701e-08 1.55998e-07 -0.000999944)
(6.74712e-08 1.3966e-07 -0.000999951)
(6.24968e-08 1.25159e-07 -0.000999958)
(5.78497e-08 1.12293e-07 -0.000999963)
(5.35287e-08 1.00883e-07 -0.000999968)
(4.95293e-08 9.07726e-08 -0.000999973)
(4.58445e-08 8.18231e-08 -0.000999976)
(4.2466e-08 7.39128e-08 -0.00099998)
(3.9384e-08 6.69343e-08 -0.000999982)
(3.65885e-08 6.07931e-08 -0.000999985)
(3.40694e-08 5.54065e-08 -0.000999987)
(3.18165e-08 5.0702e-08 -0.000999989)
(2.98203e-08 4.66162e-08 -0.00099999)
(2.80715e-08 4.30945e-08 -0.000999992)
(2.65611e-08 4.00901e-08 -0.000999993)
(2.52802e-08 3.75633e-08 -0.000999994)
(2.42187e-08 3.54806e-08 -0.000999995)
(2.33796e-08 3.38032e-08 -0.000999996)
(2.27223e-08 3.25797e-08 -0.000999997)
(2.22551e-08 3.19711e-08 -0.000999997)
)
;
    }
    procBoundary0to2
    {
        type            processor;
        value           nonuniform List<vector> 
180
(
(-6.58692e-10 1.07955e-08 -0.000999903)
(-8.53593e-10 1.57967e-08 -0.000999902)
(-1.14786e-09 2.34215e-08 -0.0009999)
(-1.53179e-09 3.22825e-08 -0.000999897)
(-1.97404e-09 4.1811e-08 -0.000999893)
(-2.45951e-09 5.18777e-08 -0.000999888)
(-2.98664e-09 6.25233e-08 -0.000999882)
(-3.5614e-09 7.38458e-08 -0.000999874)
(-4.19299e-09 8.59641e-08 -0.000999866)
(-4.89258e-09 9.90093e-08 -0.000999855)
(-5.67305e-09 1.13124e-07 -0.000999844)
(-6.54916e-09 1.28461e-07 -0.000999831)
(-7.53784e-09 1.45191e-07 -0.000999815)
(-8.65846e-09 1.63497e-07 -0.000999798)
(-9.93324e-09 1.83581e-07 -0.000999779)
(-1.13877e-08 2.05665e-07 -0.000999758)
(-1.30512e-08 2.29994e-07 -0.000999733)
(-1.49573e-08 2.56838e-07 -0.000999706)
(-1.71449e-08 2.86497e-07 -0.000999676)
(-1.96584e-08 3.19303e-07 -0.000999642)
(-2.25491e-08 3.55622e-07 -0.000999604)
(-2.58762e-08 3.95863e-07 -0.000999562)
(-2.97076e-08 4.40479e-07 -0.000999515)
(-3.41218e-08 4.89975e-07 -0.000999462)
(-3.92091e-08 5.4491e-07 -0.000999404)
(-4.50739e-08 6.0591e-07 -0.000999338)
(-5.18363e-08 6.73669e-07 -0.000999265)
(-5.96349e-08 7.48963e-07 -0.000999184)
(-6.86297e-08 8.32656e-07 -0.000999094)
(-7.90049e-08 9.25711e-07 -0.000998993)
(-9.09729e-08 1.0292e-06 -0.00099888)
(-1.04779e-07 1.14433e-06 -0.000998755)
(-1.20705e-07 1.27244e-06 -0.000998615)
(-1.39076e-07 1.41501e-06 -0.000998459)
(-1.60268e-07 1.57373e-06 -0.000998285)
(-1.84713e-07 1.75046e-06 -0.000998091)
(-2.1291e-07 1.94729e-06 -0.000997874)
(-2.45433e-07 2.16654e-06 -0.000997633)
(-2.82945e-07 2.41084e-06 -0.000997363)
(-3.26211e-07 2.6831e-06 -0.000997061)
(-3.7611e-07 2.98659e-06 -0.000996725)
(-4.33659e-07 3.32498e-06 -0.000996349)
(-5.00028e-07 3.70236e-06 -0.000995929)
(-5.76569e-07 4.12335e-06 -0.00099546)
(-6.64839e-07 4.59308e-06 -0.000994935)
(-7.66636e-07 5.11734e-06 -0.000994348)
(-8.8403e-07 5.70262e-06 -0.000993692)
(-1.01941e-06 6.3562e-06 -0.000992958)
(-1.17553e-06 7.08624e-06 -0.000992135)
(-1.35557e-06 7.90193e-06 -0.000991215)
(-1.56317e-06 8.81357e-06 -0.000990184)
(-1.80257e-06 9.83277e-06 -0.000989029)
(-2.07862e-06 1.09726e-05 -0.000987734)
(-2.39692e-06 1.22476e-05 -0.000986282)
(-2.76393e-06 1.36744e-05 -0.000984653)
(-3.18709e-06 1.52715e-05 -0.000982826)
(-3.67496e-06 1.70599e-05 -0.000980774)
(-4.23742e-06 1.90631e-05 -0.000978471)
(-4.88586e-06 2.13077e-05 -0.000975883)
(-5.63339e-06 2.38237e-05 -0.000972974)
(-6.49512e-06 2.66448e-05 -0.000969705)
(-7.48846e-06 2.98093e-05 -0.000966028)
(-8.6335e-06 3.33603e-05 -0.00096189)
(-9.95337e-06 3.73463e-05 -0.000957233)
(-1.14748e-05 4.18225e-05 -0.000951988)
(-1.32285e-05 4.68509e-05 -0.000946079)
(-1.525e-05 5.25021e-05 -0.000939419)
(-1.75803e-05 5.88556e-05 -0.000931909)
(-2.02667e-05 6.60016e-05 -0.000923435)
(-2.33638e-05 7.40422e-05 -0.000913872)
(-2.69346e-05 8.3093e-05 -0.000903074)
(-3.10511e-05 9.32842e-05 -0.000890873)
(-3.57935e-05 0.000104757 -0.000877045)
(-4.12404e-05 0.000117644 -0.000861325)
(-4.74302e-05 0.000131974 -0.000843719)
(-5.42214e-05 0.000147363 -0.000825175)
(-6.08562e-05 0.000162115 -0.000805977)
(-6.48522e-05 0.000171172 -0.000774362)
(-6.03202e-05 0.000162805 -0.000705196)
(-3.8698e-05 0.00011948 -0.000607979)
(-1.75446e-06 1.28189e-05 -0.00204403)
(1.18913e-05 1.07849e-05 -2.21917e-06)
(8.70807e-06 0.00011199 -0.0031322)
(1.84958e-05 1.66726e-05 -0.000109989)
(-0.000150993 -0.000104502 -0.00425831)
(2.92185e-05 1.57788e-05 -0.000127911)
(-0.000140183 -0.000255322 -0.00360243)
(-0.000219361 -0.000178335 -0.00121955)
(-0.000462816 0.000213982 -0.00288957)
(9.51244e-06 2.78309e-05 -5.18077e-05)
(-9.32726e-05 6.40066e-05 -0.00540683)
(5.67674e-06 -6.35496e-06 -0.000844766)
(8.81098e-05 -0.0002266 -0.00229613)
(-0.000253707 -0.000170818 -0.00297438)
(-2.99951e-05 6.64191e-06 8.40277e-07)
(-8.98535e-05 -0.000250492 -0.00336755)
(-4.05639e-05 -4.27204e-05 -0.000784644)
(-1.35736e-05 -0.000111213 -0.00177636)
(-0.000194309 -1.55473e-05 -0.00252209)
(2.43685e-05 -1.05131e-05 -7.77326e-05)
(0.000163755 -0.00014743 -0.00286361)
(0.000106988 -8.65828e-05 -0.000987867)
(3.61744e-05 -0.00025278 -0.00120578)
(0.00012256 -0.000250287 -0.000893964)
(0.000126657 -0.000115738 -0.000783005)
(0.000141127 -9.92074e-05 -0.00083269)
(0.00013436 -8.79687e-05 -0.000832193)
(0.000120908 -7.6124e-05 -0.000850005)
(0.000106649 -6.51675e-05 -0.000870389)
(9.35306e-05 -5.57272e-05 -0.000887871)
(8.19319e-05 -4.76395e-05 -0.000902562)
(7.17714e-05 -4.06839e-05 -0.00091527)
(6.28838e-05 -3.47013e-05 -0.000926358)
(5.51099e-05 -2.95626e-05 -0.000936014)
(4.83093e-05 -2.51535e-05 -0.00094441)
(4.2359e-05 -2.13733e-05 -0.000951709)
(3.71517e-05 -1.81348e-05 -0.000958054)
(3.25935e-05 -1.53628e-05 -0.000963569)
(2.86027e-05 -1.29921e-05 -0.000968362)
(2.51078e-05 -1.09666e-05 -0.000972527)
(2.20464e-05 -9.23782e-06 -0.000976147)
(1.93642e-05 -7.76391e-06 -0.000979291)
(1.70136e-05 -6.50879e-06 -0.000982023)
(1.49531e-05 -5.44138e-06 -0.000984395)
(1.31463e-05 -4.53488e-06 -0.000986456)
(1.15617e-05 -3.76624e-06 -0.000988246)
(1.01714e-05 -3.11558e-06 -0.0009898)
(8.9514e-06 -2.56583e-06 -0.000991149)
(7.88043e-06 -2.10225e-06 -0.00099232)
(6.94004e-06 -1.71218e-06 -0.000993337)
(6.11403e-06 -1.38472e-06 -0.00099422)
(5.38827e-06 -1.11053e-06 -0.000994986)
(4.75037e-06 -8.81635e-07 -0.00099565)
(4.18953e-06 -6.91186e-07 -0.000996227)
(3.69626e-06 -5.33319e-07 -0.000996728)
(3.26226e-06 -4.02991e-07 -0.000997162)
(2.88028e-06 -2.95875e-07 -0.000997538)
(2.54397e-06 -2.08271e-07 -0.000997865)
(2.24776e-06 -1.37002e-07 -0.000998147)
(1.98674e-06 -7.93168e-08 -0.000998392)
(1.75662e-06 -3.29353e-08 -0.000998603)
(1.55362e-06 4.05205e-09 -0.000998786)
(1.37444e-06 3.32288e-08 -0.000998944)
(1.21624e-06 5.59088e-08 -0.000999082)
(1.07649e-06 7.32185e-08 -0.000999202)
(9.53054e-07 8.60301e-08 -0.000999306)
(8.44003e-07 9.51071e-08 -0.000999398)
(7.47648e-07 1.0111e-07 -0.000999477)
(6.62498e-07 1.04599e-07 -0.000999547)
(5.87236e-07 1.06055e-07 -0.000999607)
(5.20703e-07 1.05884e-07 -0.00099966)
(4.61873e-07 1.0443e-07 -0.000999706)
(4.09845e-07 1.01982e-07 -0.000999745)
(3.63824e-07 9.87821e-08 -0.00099978)
(3.23107e-07 9.50319e-08 -0.00099981)
(2.87077e-07 9.08986e-08 -0.000999836)
(2.55189e-07 8.65198e-08 -0.000999858)
(2.26963e-07 8.20079e-08 -0.000999878)
(2.01976e-07 7.74537e-08 -0.000999895)
(1.79856e-07 7.29302e-08 -0.00099991)
(1.60273e-07 6.84949e-08 -0.000999922)
(1.42939e-07 6.41926e-08 -0.000999933)
(1.27599e-07 6.00574e-08 -0.000999943)
(1.14028e-07 5.61145e-08 -0.000999951)
(1.0203e-07 5.2382e-08 -0.000999958)
(9.14296e-08 4.88723e-08 -0.000999964)
(8.20751e-08 4.55926e-08 -0.000999969)
(7.38318e-08 4.2547e-08 -0.000999974)
(6.65819e-08 3.97363e-08 -0.000999978)
(6.0222e-08 3.71596e-08 -0.000999981)
(5.46616e-08 3.48143e-08 -0.000999984)
(4.98217e-08 3.26968e-08 -0.000999986)
(4.56336e-08 3.08029e-08 -0.000999989)
(4.20383e-08 2.91277e-08 -0.00099999)
(3.89853e-08 2.76658e-08 -0.000999992)
(3.64327e-08 2.64108e-08 -0.000999994)
(3.43459e-08 2.53534e-08 -0.000999995)
(3.26864e-08 2.44964e-08 -0.000999996)
(3.14958e-08 2.38062e-08 -0.000999997)
(3.08983e-08 2.3328e-08 -0.000999998)
)
;
    }
}


// ************************************************************************* //
