/*--------------------------------*- C++ -*----------------------------------*\
| =========                 |                                                 |
| \\      /  F ield         | OpenFOAM: The Open Source CFD Toolbox           |
|  \\    /   O peration     | Version:  5.x                                   |
|   \\  /    A nd           | Web:      www.OpenFOAM.org                      |
|    \\/     M anipulation  |                                                 |
\*---------------------------------------------------------------------------*/
FoamFile
{
    version     2.0;
    format      ascii;
    class       volScalarField;
    location    "0.02";
    object      p;
}
// * * * * * * * * * * * * * * * * * * * * * * * * * * * * * * * * * * * * * //

dimensions      [0 2 -2 0 0 0 0];

internalField   nonuniform List<scalar> 
2250
(
1.35903e-10
1.2431e-10
1.26808e-10
1.16906e-10
1.10453e-10
1.149e-10
1.12316e-10
1.16093e-10
1.12864e-10
1.06653e-10
3.38341e-11
5.47243e-11
8.49487e-11
9.5687e-11
9.74916e-11
-4.40227e-11
5.3831e-12
6.0621e-11
8.88071e-11
1.00281e-10
-1.00627e-10
-2.35446e-11
5.14673e-11
9.05709e-11
1.03904e-10
2.59284e-10
2.7579e-10
3.19279e-10
3.29844e-10
3.23244e-10
1.64485e-10
2.27431e-10
2.87865e-10
3.07712e-10
3.01497e-10
-9.88087e-12
1.14221e-10
2.22909e-10
2.74795e-10
2.94664e-10
-1.45002e-10
2.25972e-11
1.73714e-10
2.6323e-10
3.05778e-10
-2.13435e-10
-2.46115e-11
1.46612e-10
2.5119e-10
2.99946e-10
1.53622e-10
3.22394e-10
4.62906e-10
5.29692e-10
5.47864e-10
2.49484e-11
2.58499e-10
4.19325e-10
4.95881e-10
5.27566e-10
-1.17791e-10
1.61491e-10
3.57506e-10
4.71967e-10
5.31842e-10
-2.25094e-10
7.18584e-11
3.02618e-10
4.55306e-10
5.31604e-10
-2.78377e-10
-1.15935e-12
2.40712e-10
4.07524e-10
4.8723e-10
5.11412e-11
4.04481e-10
6.48883e-10
7.79105e-10
8.37944e-10
-2.30544e-11
3.63353e-10
6.137e-10
7.52895e-10
8.30324e-10
-9.00603e-11
2.96767e-10
5.57764e-10
7.25243e-10
8.14746e-10
-2.0547e-10
1.85483e-10
4.71346e-10
6.65836e-10
7.56971e-10
-3.72766e-10
1.46887e-11
3.29178e-10
5.39432e-10
6.25086e-10
3.17873e-10
7.25287e-10
1.00103e-09
1.15659e-09
1.2349e-09
3.0345e-10
6.98735e-10
9.62875e-10
1.12266e-09
1.21267e-09
2.18622e-10
6.02127e-10
8.68289e-10
1.04376e-09
1.1322e-09
-1.14842e-11
4.05764e-10
6.99532e-10
8.914e-10
9.77115e-10
-4.18697e-10
7.03852e-11
4.24003e-10
6.36662e-10
7.1552e-10
1.00982e-09
1.3046e-09
1.51698e-09
1.6448e-09
1.71313e-09
9.75964e-10
1.24469e-09
1.44304e-09
1.57634e-09
1.65218e-09
7.88497e-10
1.06651e-09
1.27669e-09
1.4227e-09
1.49922e-09
4.38353e-10
7.66773e-10
1.00824e-09
1.17167e-09
1.25786e-09
-1.25063e-10
2.94696e-10
6.00336e-10
8.0088e-10
9.04101e-10
1.86038e-09
1.99717e-09
2.11617e-09
2.20336e-09
2.25965e-09
1.75865e-09
1.88453e-09
2.00094e-09
2.10359e-09
2.16945e-09
1.49284e-09
1.63624e-09
1.77623e-09
1.89837e-09
1.97755e-09
1.10695e-09
1.26629e-09
1.439e-09
1.59744e-09
1.70803e-09
5.75057e-10
7.49183e-10
9.75282e-10
1.20684e-09
1.37076e-09
2.64062e-09
2.69757e-09
2.76722e-09
2.84521e-09
2.90661e-09
2.49812e-09
2.55522e-09
2.63428e-09
2.73618e-09
2.80661e-09
2.20071e-09
2.2653e-09
2.37603e-09
2.50886e-09
2.60317e-09
1.78084e-09
1.8416e-09
2.00274e-09
2.20039e-09
2.33987e-09
1.27404e-09
1.32486e-09
1.55635e-09
1.86137e-09
2.06482e-09
3.34037e-09
3.4095e-09
3.49749e-09
3.60699e-09
3.68497e-09
3.18288e-09
3.25093e-09
3.35621e-09
3.48861e-09
3.57007e-09
2.83576e-09
2.91758e-09
3.06135e-09
3.23239e-09
3.33675e-09
2.30437e-09
2.42864e-09
2.64692e-09
2.89296e-09
3.03669e-09
1.68571e-09
1.87851e-09
2.19434e-09
2.54449e-09
2.73042e-09
4.00741e-09
4.15958e-09
4.333e-09
4.50779e-09
4.60998e-09
3.81547e-09
3.97013e-09
4.16291e-09
4.35169e-09
4.45157e-09
3.39126e-09
3.5814e-09
3.8093e-09
4.0295e-09
4.13866e-09
2.74887e-09
3.03007e-09
3.32235e-09
3.59012e-09
3.72219e-09
2.0036e-09
2.40741e-09
2.78087e-09
3.10761e-09
3.25501e-09
4.65219e-09
4.98117e-09
5.31286e-09
5.59099e-09
5.73802e-09
4.40729e-09
4.74639e-09
5.08963e-09
5.37101e-09
5.51221e-09
3.92741e-09
4.30506e-09
4.6633e-09
4.95179e-09
5.08613e-09
3.24701e-09
3.70675e-09
4.08162e-09
4.3698e-09
4.51384e-09
2.43538e-09
3.00243e-09
3.41342e-09
3.70397e-09
3.84059e-09
5.35842e-09
5.97923e-09
6.54971e-09
6.9857e-09
7.21471e-09
5.07645e-09
5.7014e-09
6.26849e-09
6.70022e-09
6.9214e-09
4.56855e-09
5.20827e-09
5.76661e-09
6.17685e-09
6.3832e-09
3.86542e-09
4.55202e-09
5.08516e-09
5.45921e-09
5.66391e-09
2.94904e-09
3.74165e-09
4.29687e-09
4.63841e-09
4.81313e-09
6.31828e-09
7.33473e-09
8.23166e-09
8.89811e-09
9.25263e-09
6.01613e-09
7.01659e-09
7.89964e-09
8.55858e-09
8.90206e-09
5.46132e-09
6.44599e-09
7.30677e-09
7.92524e-09
8.25445e-09
4.6907e-09
5.68582e-09
6.50527e-09
7.0759e-09
7.39113e-09
3.64508e-09
4.73496e-09
5.58222e-09
6.11167e-09
6.38706e-09
7.70796e-09
9.23256e-09
1.05639e-08
1.1548e-08
1.20678e-08
7.35355e-09
8.85499e-09
1.01734e-08
1.11455e-08
1.16488e-08
6.66876e-09
8.14386e-09
9.43441e-09
1.03618e-08
1.08581e-08
5.74201e-09
7.19251e-09
8.43805e-09
9.32496e-09
9.80417e-09
4.59049e-09
6.06171e-09
7.31374e-09
8.15572e-09
8.60429e-09
9.62404e-09
1.18228e-08
1.37308e-08
1.51302e-08
1.58549e-08
9.13695e-09
1.13364e-08
1.32381e-08
1.46173e-08
1.53264e-08
8.18245e-09
1.03832e-08
1.2258e-08
1.36064e-08
1.4322e-08
6.90144e-09
9.09797e-09
1.09398e-08
1.22658e-08
1.29729e-08
5.42946e-09
7.64147e-09
9.46702e-09
1.07444e-08
1.14378e-08
1.21582e-08
1.52592e-08
1.7924e-08
1.98576e-08
2.08511e-08
1.14599e-08
1.45931e-08
1.7258e-08
1.9172e-08
2.01648e-08
1.01079e-08
1.32856e-08
1.59382e-08
1.78507e-08
1.88576e-08
8.2722e-09
1.15236e-08
1.41665e-08
1.60685e-08
1.70733e-08
6.14896e-09
9.50707e-09
1.21332e-08
1.39967e-08
1.50067e-08
1.54662e-08
1.97656e-08
2.34238e-08
2.60668e-08
2.74392e-08
1.4509e-08
1.88511e-08
2.25205e-08
2.51649e-08
2.65499e-08
1.26979e-08
1.70998e-08
2.0783e-08
2.34501e-08
2.48408e-08
1.0253e-08
1.47624e-08
1.84415e-08
2.10954e-08
2.24905e-08
7.40352e-09
1.20266e-08
1.56804e-08
1.83195e-08
1.97389e-08
1.98058e-08
2.56999e-08
3.06863e-08
3.42999e-08
3.61966e-08
1.85495e-08
2.44796e-08
2.94982e-08
3.31405e-08
3.50424e-08
1.61989e-08
2.21864e-08
2.72458e-08
3.0916e-08
3.28198e-08
1.30378e-08
1.9121e-08
2.41801e-08
2.78492e-08
2.97762e-08
9.353e-09
1.55093e-08
2.05642e-08
2.42584e-08
2.62202e-08
2.55867e-08
3.35979e-08
4.03794e-08
4.53094e-08
4.78931e-08
2.39441e-08
3.19922e-08
3.88316e-08
4.38001e-08
4.63766e-08
2.08454e-08
2.8972e-08
3.58766e-08
4.08804e-08
4.34802e-08
1.66117e-08
2.48647e-08
3.18164e-08
3.68701e-08
3.95133e-08
1.1607e-08
1.99952e-08
2.70481e-08
3.21938e-08
3.4877e-08
3.33546e-08
4.41907e-08
5.33853e-08
6.00602e-08
6.35382e-08
3.11553e-08
4.20516e-08
5.13214e-08
5.80344e-08
6.1517e-08
2.69759e-08
3.79868e-08
4.73539e-08
5.41396e-08
5.76739e-08
2.11812e-08
3.23716e-08
4.18723e-08
4.87768e-08
5.23768e-08
1.42404e-08
2.5662e-08
3.53902e-08
4.24713e-08
4.61467e-08
4.38269e-08
5.8458e-08
7.0862e-08
7.98455e-08
8.45307e-08
4.08279e-08
5.55492e-08
6.80449e-08
7.70882e-08
8.18099e-08
3.5104e-08
4.99931e-08
6.26538e-08
7.18336e-08
7.66327e-08
2.71535e-08
4.22854e-08
5.51837e-08
6.4557e-08
6.94674e-08
1.76255e-08
3.30956e-08
4.63132e-08
5.59486e-08
6.10018e-08
5.80402e-08
7.77335e-08
9.44151e-08
1.06508e-07
1.12854e-07
5.39207e-08
7.3748e-08
9.05724e-08
1.02777e-07
1.09192e-07
4.60374e-08
6.61592e-08
8.32609e-08
9.56779e-08
1.02204e-07
3.51534e-08
5.56528e-08
7.31132e-08
8.58148e-08
9.24962e-08
2.22247e-08
4.32105e-08
6.10864e-08
7.41257e-08
8.09917e-08
7.73871e-08
1.03858e-07
1.26315e-07
1.42629e-07
1.51225e-07
7.17471e-08
9.84456e-08
1.21133e-07
1.37618e-07
1.46308e-07
6.09732e-08
8.81613e-08
1.11262e-07
1.28045e-07
1.36884e-07
4.61512e-08
7.39289e-08
9.75409e-08
1.14723e-07
1.23757e-07
2.86225e-08
5.70803e-08
8.12772e-08
9.89095e-08
1.08158e-07
1.03749e-07
1.39385e-07
1.69641e-07
1.91613e-07
2.03191e-07
9.61014e-08
1.32102e-07
1.62683e-07
1.84888e-07
1.96586e-07
8.15023e-08
1.18221e-07
1.49381e-07
1.72009e-07
1.83924e-07
6.13228e-08
9.89488e-08
1.30873e-07
1.54086e-07
1.66286e-07
3.7273e-08
7.60129e-08
1.08882e-07
1.32798e-07
1.45317e-07
1.39828e-07
1.87768e-07
2.2841e-07
2.5787e-07
2.7337e-07
1.29517e-07
1.7799e-07
2.19072e-07
2.48868e-07
2.64556e-07
1.0981e-07
1.59283e-07
2.01214e-07
2.31651e-07
2.47665e-07
8.23429e-08
1.33219e-07
1.76361e-07
2.0769e-07
2.24144e-07
4.93528e-08
1.02071e-07
1.46765e-07
1.79193e-07
1.96174e-07
1.89349e-07
2.5357e-07
3.07887e-07
3.47221e-07
3.67904e-07
1.75474e-07
2.40451e-07
2.95431e-07
3.3529e-07
3.56249e-07
1.48866e-07
2.15308e-07
2.71613e-07
3.12447e-07
3.33881e-07
1.11564e-07
1.80194e-07
2.38405e-07
2.80587e-07
3.02721e-07
6.67543e-08
1.38155e-07
1.9875e-07
2.42571e-07
2.6556e-07
2.57166e-07
3.42765e-07
4.15055e-07
4.6738e-07
4.94862e-07
2.38461e-07
3.25238e-07
3.98601e-07
4.51711e-07
4.7957e-07
2.02478e-07
2.91587e-07
3.67028e-07
4.21615e-07
4.5023e-07
1.51916e-07
2.44466e-07
3.22851e-07
3.79545e-07
4.09288e-07
9.12113e-08
1.8793e-07
2.69907e-07
3.29121e-07
3.60234e-07
3.49509e-07
4.63183e-07
5.59053e-07
6.28339e-07
6.64667e-07
3.24352e-07
4.39962e-07
5.37502e-07
6.07941e-07
6.44861e-07
2.75876e-07
3.95228e-07
4.9598e-07
5.68729e-07
6.06882e-07
2.07629e-07
3.3236e-07
4.3768e-07
5.1376e-07
5.53684e-07
1.25473e-07
2.56632e-07
3.67448e-07
4.47484e-07
4.89535e-07
4.7473e-07
6.2512e-07
7.51633e-07
8.42887e-07
8.90732e-07
4.4124e-07
5.94672e-07
7.23709e-07
8.16737e-07
8.65551e-07
3.76489e-07
5.35804e-07
6.69801e-07
7.6643e-07
8.17142e-07
2.84998e-07
4.52672e-07
5.93754e-07
6.95536e-07
7.48894e-07
1.74108e-07
3.51782e-07
5.01367e-07
6.0933e-07
6.65977e-07
6.44277e-07
8.42028e-07
1.00778e-06
1.12727e-06
1.19004e-06
6.00248e-07
8.02623e-07
9.72189e-07
1.09441e-06
1.15863e-06
5.14754e-07
7.2621e-07
9.03373e-07
1.03102e-06
1.09794e-06
3.93138e-07
6.1747e-07
8.0553e-07
9.41007e-07
1.01188e-06
2.44074e-07
4.84011e-07
6.85392e-07
8.30593e-07
9.06582e-07
8.73502e-07
1.13122e-06
1.34628e-06
1.50163e-06
1.58348e-06
8.16378e-07
1.08103e-06
1.30179e-06
1.46114e-06
1.54492e-06
7.05124e-07
9.83628e-07
1.21578e-06
1.38303e-06
1.47054e-06
5.4501e-07
8.43274e-07
1.0921e-06
1.27123e-06
1.36472e-06
3.46234e-07
6.68915e-07
9.38808e-07
1.13319e-06
1.23442e-06
1.18243e-06
1.5146e-06
1.78992e-06
1.99015e-06
2.09625e-06
1.10927e-06
1.45169e-06
1.73518e-06
1.94112e-06
2.04973e-06
9.67624e-07
1.33082e-06
1.63108e-06
1.84815e-06
1.96146e-06
7.59273e-07
1.15273e-06
1.47821e-06
1.71332e-06
1.83521e-06
4.97881e-07
9.29907e-07
1.28898e-06
1.5479e-06
1.68101e-06
1.59605e-06
2.01981e-06
2.36506e-06
2.62126e-06
2.75855e-06
1.50342e-06
1.9413e-06
2.29754e-06
2.56223e-06
2.70297e-06
1.33068e-06
1.79858e-06
2.17893e-06
2.45814e-06
2.60235e-06
1.06316e-06
1.57617e-06
1.99326e-06
2.30001e-06
2.45586e-06
7.29786e-07
1.30396e-06
1.77611e-06
2.12063e-06
2.28979e-06
2.1411e-06
2.68407e-06
3.10051e-06
3.42822e-06
3.60639e-06
2.02144e-06
2.58114e-06
3.00963e-06
3.35265e-06
3.5375e-06
1.83428e-06
2.4318e-06
2.8959e-06
3.25352e-06
3.43e-06
1.49035e-06
2.15106e-06
2.66117e-06
3.06367e-06
3.2571e-06
1.09834e-06
1.8546e-06
2.46251e-06
2.9296e-06
3.11945e-06
2.82498e-06
3.57406e-06
4.0271e-06
4.45389e-06
4.68379e-06
2.64315e-06
3.40713e-06
3.85686e-06
4.32615e-06
4.5848e-06
2.53514e-06
3.315e-06
3.84009e-06
4.30464e-06
4.49153e-06
2.04817e-06
2.91528e-06
3.44986e-06
4.00545e-06
4.241e-06
1.71034e-06
2.70809e-06
3.45215e-06
4.15183e-06
4.2389e-06
3.60667e-06
4.86677e-06
5.16067e-06
5.75963e-06
6.04139e-06
3.17916e-06
4.4946e-06
4.67812e-06
5.43596e-06
5.86373e-06
3.55374e-06
4.66327e-06
5.13903e-06
5.78609e-06
5.86532e-06
2.54312e-06
3.91926e-06
4.09896e-06
5.00087e-06
5.31414e-06
2.76238e-06
4.18165e-06
4.92332e-06
6.22457e-06
5.70201e-06
4.39836e-06
6.88437e-06
6.31651e-06
7.36076e-06
7.65212e-06
3.18696e-06
6.02205e-06
4.99805e-06
6.53109e-06
7.35803e-06
5.08415e-06
6.73135e-06
6.79301e-06
7.8722e-06
7.5036e-06
2.38595e-06
5.28135e-06
3.95259e-06
5.73127e-06
6.26043e-06
4.46765e-06
6.97739e-06
7.0271e-06
9.76454e-06
7.54564e-06
5.07296e-06
8.87863e-06
6.19983e-06
7.89375e-06
8.65292e-06
2.27213e-06
7.30682e-06
4.31023e-06
7.23696e-06
9.0054e-06
5.87894e-06
8.16865e-06
7.59367e-06
9.65388e-06
8.36338e-06
7.90328e-07
5.28402e-06
1.39372e-06
4.77412e-06
6.52049e-06
5.34958e-06
9.38204e-06
6.07135e-06
1.51646e-05
8.30963e-06
1.34575e-05
3.33347e-05
2.70265e-05
3.48216e-05
3.09917e-05
1.28355e-05
2.64736e-05
1.2716e-05
2.36554e-05
3.04563e-05
3.15611e-05
3.18861e-05
3.12402e-05
3.58228e-05
2.909e-05
9.55281e-06
2.62504e-05
1.28272e-05
2.29839e-05
2.07257e-05
3.16614e-05
4.67424e-05
4.60563e-05
4.4243e-05
3.18069e-05
5.60757e-06
-1.056e-05
-1.81389e-05
-2.88813e-05
-2.82715e-05
3.04345e-06
-6.94095e-06
-4.83535e-06
-1.40482e-05
-1.78048e-05
-1.92825e-05
-1.45464e-05
-1.87108e-05
-1.88484e-05
-2.37747e-05
-1.05058e-05
-1.39633e-05
-2.00137e-05
-2.56628e-05
-1.48115e-05
-2.27041e-05
-1.46511e-05
-3.51926e-05
1.9172e-05
-1.3162e-05
2.01963e-05
5.98658e-05
5.74209e-05
9.08763e-05
5.82193e-05
4.63723e-05
3.67605e-05
2.15938e-05
3.0821e-05
0.000101049
7.40004e-05
1.43863e-05
4.93158e-05
7.17303e-05
6.56665e-05
-8.17158e-05
-1.28021e-05
-7.5743e-05
-1.25198e-05
-2.06975e-05
5.12607e-05
0.000184499
0.000125164
7.54809e-05
4.06679e-05
0.000427412
0.00100726
0.000714631
0.000683487
0.000497338
0.000797154
0.000881513
0.00105952
0.000567706
0.000413719
0.000738679
0.000978086
0.000971083
0.000759614
0.000593623
0.000802032
0.00117685
0.000797319
0.000733612
0.000530129
0.000830002
0.00078409
0.00113086
0.000655513
0.00145416
0.00255179
0.00206521
0.00148523
0.00110548
0.00119694
0.00225329
0.00171702
0.00162641
0.00146555
0.000699051
0.00153272
0.00172406
0.00159023
0.00140756
0.00144197
0.00215635
0.00200522
0.00175224
0.00160706
0.00208965
0.00128027
0.00126258
0.0017207
0.0013244
0.00186764
0.00286903
0.00267322
0.0025165
0.00233539
0.00281814
0.0027789
0.00250655
0.00206961
0.00209118
0.00220985
0.0029179
0.00223359
0.00233458
0.00230186
0.00241433
0.00283286
0.00235498
0.00266543
0.00261412
0.00275601
0.00184481
0.0024008
0.00202295
0.00204322
0.00238095
0.00336043
0.00341374
0.00349764
0.00400544
0.00394194
0.00308978
0.00347686
0.00304655
0.00323646
0.00373311
0.00320351
0.00291928
0.00333682
0.00309633
0.0033978
0.00314691
0.00281828
0.00301309
0.00314481
0.00295724
0.00313575
0.00263286
0.00255992
0.00302387
0.00287848
0.00387443
0.00387572
0.00391202
0.00398356
0.00397516
0.0039481
0.00398382
0.00415538
0.00401282
0.0040656
0.00396779
0.0037604
0.00394288
0.00364788
0.00399753
0.00352094
0.00353672
0.00412636
0.00352841
0.00376523
0.00362884
0.00301353
0.00382592
0.00390084
0.00358058
0.00447703
0.00433004
0.00468519
0.00421165
0.00426953
0.00484188
0.0042846
0.00454576
0.00435125
0.00421634
0.00463829
0.00429301
0.00449173
0.00474935
0.004175
0.00527438
0.004036
0.00437642
0.00410565
0.00421051
0.00372823
0.00416259
0.00417645
0.00423892
0.00420084
0.00527813
0.0051587
0.00501541
0.00474093
0.00468985
0.00511639
0.00488047
0.0048745
0.00482431
0.00474246
0.00488857
0.00561246
0.00490776
0.00493162
0.00514912
0.00535067
0.0049941
0.00482392
0.00476711
0.00455267
0.00506675
0.00487686
0.00451814
0.00452838
0.00423667
0.0053859
0.00539237
0.00536438
0.00457175
0.00453949
0.00521909
0.00547262
0.00538353
0.00541019
0.00548871
0.00534508
0.0051308
0.00530066
0.00537377
0.00541284
0.00499451
0.00525164
0.00508436
0.00529328
0.00540962
0.00520731
0.00518883
0.00518993
0.00541006
0.00520521
0.00564459
0.00561741
0.00593354
0.00582565
0.0056556
0.00541474
0.00544903
0.00542656
0.00572818
0.00564897
0.00558238
0.0054572
0.00553911
0.00568961
0.00539276
0.00525507
0.00539258
0.00537978
0.0057108
0.00581329
0.00537614
0.00544277
0.00547139
0.00562962
0.00548815
0.00614482
0.00626487
0.00631363
0.00628746
0.00640414
0.00620675
0.00605552
0.00639738
0.00634793
0.00628873
0.00618326
0.00616199
0.00598059
0.00614332
0.00592581
0.00609194
0.00616576
0.00610401
0.00627164
0.00636749
0.00577125
0.00599166
0.00631729
0.00635495
0.00643633
0.00636049
0.0063732
0.00639642
0.0064271
0.00645781
0.00639386
0.0063763
0.00641796
0.0064626
0.00645564
0.00637715
0.00638164
0.00642051
0.00642128
0.00644557
0.00634192
0.00639938
0.00633617
0.00641632
0.00641707
0.00631829
0.00634425
0.00640757
0.00639887
0.00640963
0.00635805
0.00638125
0.00637225
0.00640175
0.00638873
0.00636
0.0063623
0.00637646
0.00638786
0.00638235
0.00633226
0.00637365
0.00634928
0.00637921
0.00639108
0.00632156
0.00635491
0.00636129
0.00636426
0.00637693
0.00633972
0.00634894
0.00635193
0.00635828
0.00637177
0.00634963
0.00636084
0.00636575
0.0063812
0.00638302
0.00635274
0.00636504
0.0063702
0.00637901
0.00637861
0.0063433
0.00636181
0.0063614
0.00637304
0.00637803
0.00634039
0.00635649
0.00636041
0.00636783
0.00637301
0.00634467
0.00635658
0.0063657
0.00636715
0.00637376
0.00635404
0.00636081
0.00636413
0.00637274
0.00637338
0.00635573
0.00636185
0.00636518
0.00637093
0.00637151
0.00635117
0.00636092
0.00636176
0.00636824
0.00637093
0.00635003
0.00635814
0.0063611
0.00636523
0.00636813
0.00635239
0.00635794
0.00636232
0.00636424
0.00636759
0.00635611
0.00636024
0.00636242
0.00636714
0.00636768
0.00635662
0.00636048
0.00636254
0.00636628
0.00636697
0.00635501
0.00635994
0.00636138
0.00636488
0.00636632
0.00635461
0.00635886
0.00636083
0.00636334
0.00636494
0.00635556
0.00635857
0.00636089
0.00636249
0.00636415
0.00635727
0.00635989
0.00636131
0.00636385
0.00636435
0.00635741
0.00635985
0.00636124
0.00636347
0.00636405
0.00635697
0.00635953
0.00636081
0.00636274
0.00636358
0.00635687
0.00635909
0.00636046
0.00636194
0.00636285
0.00635728
0.00635891
0.00636027
0.00636136
0.00636225
0.00635801
0.0063595
0.00636052
0.00636199
0.00636239
0.00635805
0.00635946
0.0063605
0.00636176
0.00636221
0.00635796
0.00635932
0.00636031
0.00636139
0.00636192
0.00635796
0.00635915
0.0063601
0.00636099
0.00636151
0.00635817
0.00635909
0.00635994
0.00636065
0.00636114
0.00635841
0.0063593
0.00636005
0.00636084
0.00636116
0.00635843
0.00635928
0.00636002
0.00636073
0.00636106
0.00635843
0.00635922
0.00635992
0.00636055
0.00636089
0.00635848
0.00635917
0.00635981
0.00636035
0.00636066
0.00635861
0.00635917
0.00635972
0.00636017
0.00636045
0.00635863
0.00635919
0.00635971
0.00636016
0.00636039
0.00635865
0.00635919
0.00635969
0.00636011
0.00636033
0.00635868
0.00635917
0.00635964
0.00636003
0.00636024
0.00635873
0.00635917
0.00635959
0.00635993
0.00636012
0.00635883
0.00635919
0.00635955
0.00635984
0.00636001
0.00635877
0.00635913
0.00635948
0.00635976
0.0063599
0.00635878
0.00635914
0.00635947
0.00635973
0.00635988
0.00635881
0.00635914
0.00635945
0.00635969
0.00635983
0.00635886
0.00635915
0.00635943
0.00635965
0.00635977
0.00635894
0.00635918
0.00635942
0.00635961
0.00635971
0.00635885
0.0063591
0.00635932
0.0063595
0.0063596
0.00635887
0.0063591
0.00635932
0.00635949
0.00635959
0.00635889
0.00635911
0.00635932
0.00635948
0.00635956
0.00635893
0.00635913
0.00635931
0.00635946
0.00635954
0.00635899
0.00635916
0.00635932
0.00635944
0.00635951
0.00635891
0.00635907
0.00635922
0.00635934
0.00635941
0.00635892
0.00635908
0.00635923
0.00635934
0.0063594
0.00635894
0.00635909
0.00635923
0.00635933
0.00635939
0.00635898
0.00635911
0.00635923
0.00635933
0.00635938
0.00635902
0.00635914
0.00635924
0.00635933
0.00635937
0.00635894
0.00635906
0.00635916
0.00635924
0.00635928
0.00635895
0.00635906
0.00635916
0.00635924
0.00635928
0.00635897
0.00635908
0.00635917
0.00635924
0.00635928
0.006359
0.00635909
0.00635918
0.00635924
0.00635928
0.00635903
0.00635911
0.00635919
0.00635925
0.00635928
0.00635897
0.00635905
0.00635912
0.00635917
0.0063592
0.00635898
0.00635905
0.00635912
0.00635917
0.0063592
0.00635899
0.00635906
0.00635913
0.00635918
0.0063592
0.00635901
0.00635908
0.00635914
0.00635918
0.00635921
0.00635904
0.0063591
0.00635915
0.00635919
0.00635921
0.00635899
0.00635904
0.00635909
0.00635913
0.00635915
0.00635899
0.00635905
0.00635909
0.00635913
0.00635915
0.00635901
0.00635906
0.0063591
0.00635913
0.00635915
0.00635902
0.00635907
0.00635911
0.00635914
0.00635916
0.00635904
0.00635908
0.00635912
0.00635915
0.00635916
0.006359
0.00635904
0.00635907
0.0063591
0.00635911
0.00635901
0.00635904
0.00635908
0.0063591
0.00635911
0.00635901
0.00635905
0.00635908
0.0063591
0.00635912
0.00635903
0.00635906
0.00635909
0.00635911
0.00635912
0.00635904
0.00635907
0.0063591
0.00635912
0.00635913
0.00635901
0.00635904
0.00635906
0.00635908
0.00635909
0.00635901
0.00635904
0.00635906
0.00635908
0.00635909
0.00635902
0.00635905
0.00635907
0.00635908
0.00635909
0.00635903
0.00635905
0.00635907
0.00635909
0.0063591
0.00635904
0.00635906
0.00635908
0.00635909
0.0063591
0.00635902
0.00635904
0.00635905
0.00635907
0.00635907
0.00635902
0.00635904
0.00635905
0.00635907
0.00635907
0.00635902
0.00635904
0.00635906
0.00635907
0.00635908
0.00635903
0.00635905
0.00635906
0.00635907
0.00635908
0.00635904
0.00635906
0.00635907
0.00635908
0.00635908
0.00635902
0.00635904
0.00635905
0.00635906
0.00635906
0.00635902
0.00635904
0.00635905
0.00635906
0.00635906
0.00635903
0.00635904
0.00635905
0.00635906
0.00635906
0.00635903
0.00635904
0.00635906
0.00635906
0.00635907
0.00635904
0.00635905
0.00635906
0.00635907
0.00635907
0.00635903
0.00635904
0.00635904
0.00635905
0.00635905
0.00635903
0.00635904
0.00635904
0.00635905
0.00635905
0.00635903
0.00635904
0.00635905
0.00635905
0.00635906
0.00635903
0.00635904
0.00635905
0.00635905
0.00635906
0.00635904
0.00635905
0.00635905
0.00635906
0.00635906
0.00635903
0.00635903
0.00635904
0.00635905
0.00635905
0.00635903
0.00635904
0.00635904
0.00635905
0.00635905
0.00635903
0.00635904
0.00635904
0.00635905
0.00635905
0.00635903
0.00635904
0.00635905
0.00635905
0.00635905
0.00635904
0.00635904
0.00635905
0.00635905
0.00635905
0.00635903
0.00635903
0.00635904
0.00635904
0.00635904
0.00635903
0.00635904
0.00635904
0.00635904
0.00635904
0.00635903
0.00635904
0.00635904
0.00635904
0.00635905
0.00635903
0.00635904
0.00635904
0.00635905
0.00635905
0.00635904
0.00635904
0.00635904
0.00635905
0.00635905
0.00635903
0.00635903
0.00635904
0.00635904
0.00635904
0.00635903
0.00635904
0.00635904
0.00635904
0.00635904
0.00635903
0.00635904
0.00635904
0.00635904
0.00635904
0.00635903
0.00635904
0.00635904
0.00635904
0.00635904
0.00635904
0.00635904
0.00635904
0.00635904
0.00635904
0.00635903
0.00635903
0.00635904
0.00635904
0.00635904
0.00635903
0.00635904
0.00635904
0.00635904
0.00635904
0.00635903
0.00635904
0.00635904
0.00635904
0.00635904
0.00635903
0.00635904
0.00635904
0.00635904
0.00635904
0.00635904
0.00635904
0.00635904
0.00635904
0.00635904
0.00635903
0.00635904
0.00635904
0.00635904
0.00635904
0.00635903
0.00635904
0.00635904
0.00635904
0.00635904
0.00635903
0.00635904
0.00635904
0.00635904
0.00635904
0.00635903
0.00635904
0.00635904
0.00635904
0.00635904
0.00635904
0.00635904
0.00635904
0.00635904
0.00635904
0.00635903
0.00635903
0.00635904
0.00635904
0.00635904
0.00635903
0.00635904
0.00635904
0.00635904
0.00635904
0.00635903
0.00635904
0.00635904
0.00635904
0.00635904
0.00635903
0.00635904
0.00635904
0.00635904
0.00635904
0.00635904
0.00635904
0.00635904
0.00635904
0.00635904
0.00635903
0.00635903
0.00635904
0.00635904
0.00635904
0.00635903
0.00635904
0.00635904
0.00635904
0.00635904
0.00635903
0.00635904
0.00635904
0.00635904
0.00635904
0.00635903
0.00635904
0.00635904
0.00635904
0.00635904
0.00635904
0.00635904
0.00635904
0.00635904
0.00635904
0.00635903
0.00635903
0.00635904
0.00635904
0.00635904
0.00635903
0.00635904
0.00635904
0.00635904
0.00635904
0.00635903
0.00635904
0.00635904
0.00635904
0.00635904
0.00635903
0.00635904
0.00635904
0.00635904
0.00635904
0.00635903
0.00635904
0.00635904
0.00635904
0.00635904
0.00635903
0.00635903
0.00635904
0.00635904
0.00635904
0.00635903
0.00635903
0.00635904
0.00635904
0.00635904
0.00635903
0.00635903
0.00635904
0.00635904
0.00635904
0.00635903
0.00635903
0.00635904
0.00635904
0.00635904
0.00635903
0.00635903
0.00635904
0.00635904
0.00635904
0.00635903
0.00635903
0.00635903
0.00635904
0.00635904
0.00635903
0.00635903
0.00635903
0.00635904
0.00635904
0.00635903
0.00635903
0.00635903
0.00635904
0.00635904
0.00635903
0.00635903
0.00635904
0.00635904
0.00635904
0.00635903
0.00635903
0.00635904
0.00635904
0.00635904
0.00635903
0.00635903
0.00635903
0.00635903
0.00635904
0.00635903
0.00635903
0.00635903
0.00635903
0.00635904
0.00635903
0.00635903
0.00635903
0.00635903
0.00635904
0.00635903
0.00635903
0.00635903
0.00635903
0.00635904
0.00635903
0.00635903
0.00635903
0.00635904
0.00635904
0.00635903
0.00635903
0.00635903
0.00635903
0.00635903
0.00635903
0.00635903
0.00635903
0.00635903
0.00635903
0.00635903
0.00635903
0.00635903
0.00635903
0.00635903
0.00635903
0.00635903
0.00635903
0.00635903
0.00635903
0.00635903
0.00635903
0.00635903
0.00635903
0.00635903
0.00635903
0.00635903
0.00635903
0.00635903
0.00635903
0.00635903
0.00635903
0.00635903
0.00635903
0.00635903
0.00635903
0.00635903
0.00635903
0.00635903
0.00635903
0.00635903
0.00635903
0.00635903
0.00635903
0.00635903
0.00635903
0.00635903
0.00635903
0.00635903
0.00635903
0.00635903
0.00635903
0.00635903
0.00635903
0.00635903
0.00635903
0.00635903
0.00635903
0.00635903
0.00635903
0.00635903
0.00635903
0.00635903
0.00635903
0.00635903
0.00635903
0.00635903
0.00635903
0.00635903
0.00635903
0.00635903
0.00635903
0.00635903
0.00635903
0.00635903
0.00635903
0.00635903
0.00635903
0.00635903
0.00635903
0.00635903
0.00635903
0.00635903
0.00635903
0.00635903
0.00635903
0.00635903
0.00635903
0.00635903
0.00635903
0.00635903
0.00635903
0.00635903
0.00635903
0.00635903
0.00635903
0.00635903
0.00635903
0.00635903
0.00635903
0.00635903
0.00635903
0.00635903
0.00635903
0.00635903
0.00635903
0.00635903
0.00635903
0.00635903
0.00635903
0.00635903
0.00635903
0.00635903
0.00635903
0.00635903
0.00635903
0.00635903
0.00635903
0.00635903
0.00635903
0.00635903
0.00635903
0.00635903
0.00635903
0.00635903
0.00635903
0.00635903
0.00635903
0.00635903
0.00635903
0.00635903
0.00635903
0.00635903
0.00635903
0.00635903
0.00635903
0.00635903
0.00635903
0.00635903
0.00635903
0.00635903
0.00635903
0.00635903
0.00635903
0.00635903
0.00635903
0.00635903
0.00635903
0.00635903
0.00635903
0.00635903
0.00635903
0.00635903
0.00635903
0.00635903
0.00635903
0.00635903
0.00635903
0.00635903
0.00635903
0.00635903
0.00635903
0.00635903
0.00635903
0.00635903
0.00635903
0.00635903
0.00635903
0.00635903
0.00635903
0.00635903
0.00635903
0.00635903
0.00635903
0.00635903
0.00635903
0.00635903
0.00635903
0.00635903
0.00635903
0.00635903
0.00635903
0.00635903
0.00635903
0.00635903
0.00635903
0.00635903
0.00635903
0.00635903
0.00635903
0.00635903
0.00635903
0.00635903
0.00635903
0.00635903
0.00635903
0.00635903
0.00635903
0.00635903
0.00635903
)
;

boundaryField
{
    inlet
    {
        type            zeroGradient;
    }
    outlet
    {
        type            fixedValue;
        value           uniform 0;
    }
    repeat_boundary
    {
        type            zeroGradient;
    }
    procBoundary1to0
    {
        type            processor;
        value           nonuniform List<scalar> 
450
(
8.5195e-11
5.65204e-11
-3.33606e-11
-1.3362e-10
-2.48656e-10
1.09454e-10
4.96377e-12
-1.76162e-10
-3.57392e-10
-5.87266e-10
-8.17278e-11
-2.07861e-10
-3.32126e-10
-4.50553e-10
-6.65859e-10
-2.29005e-10
-2.84943e-10
-3.16581e-10
-3.91741e-10
-6.01192e-10
4.04212e-11
4.40118e-11
-8.01123e-12
-1.69769e-10
-4.59258e-10
7.71061e-10
7.38304e-10
5.62104e-10
2.5683e-10
-1.15004e-10
1.67653e-09
1.56093e-09
1.27952e-09
8.75342e-10
4.24252e-10
2.49801e-09
2.3389e-09
2.01579e-09
1.54481e-09
9.57611e-10
3.18727e-09
3.01687e-09
2.65415e-09
2.11098e-09
1.41122e-09
3.76802e-09
3.56748e-09
3.14144e-09
2.55032e-09
1.86767e-09
4.24775e-09
4.00283e-09
3.53494e-09
2.94339e-09
2.34763e-09
4.7017e-09
4.43018e-09
3.94813e-09
3.33918e-09
2.75283e-09
5.29669e-09
5.00404e-09
4.46722e-09
3.726e-09
2.9667e-09
6.17693e-09
5.82424e-09
5.13461e-09
4.11871e-09
2.96981e-09
7.38629e-09
6.9042e-09
5.95283e-09
4.57326e-09
2.95395e-09
8.93676e-09
8.24711e-09
6.91911e-09
5.11846e-09
3.134e-09
1.09169e-08
9.95469e-09
8.14035e-09
5.80388e-09
3.3888e-09
1.3526e-08
1.22476e-08
9.84566e-09
6.75733e-09
3.46602e-09
1.70525e-08
1.5369e-08
1.21891e-08
7.99866e-09
3.28718e-09
2.1838e-08
1.95606e-08
1.52414e-08
9.38728e-09
2.61396e-09
2.83299e-08
2.52202e-08
1.92698e-08
1.10187e-08
1.30242e-09
3.72072e-08
3.29553e-08
2.47793e-08
1.33724e-08
-1.05424e-10
4.9403e-08
4.35506e-08
3.23841e-08
1.68875e-08
-1.36556e-09
6.61883e-08
5.81516e-08
4.29328e-08
2.18676e-08
-3.0747e-09
8.94069e-08
7.84756e-08
5.77457e-08
2.89572e-08
-5.35989e-09
1.21684e-07
1.06923e-07
7.8657e-08
3.91927e-08
-7.93982e-09
1.66561e-07
1.46587e-07
1.07986e-07
5.38894e-08
-1.08729e-08
2.28596e-07
2.01507e-07
1.48991e-07
7.5196e-08
-1.35608e-08
3.14021e-07
2.77456e-07
2.06522e-07
1.06494e-07
-1.45796e-08
4.31867e-07
3.82902e-07
2.87865e-07
1.52908e-07
-1.20403e-08
5.95072e-07
5.30207e-07
4.04045e-07
2.22793e-07
-1.68149e-09
8.22076e-07
7.37071e-07
5.71789e-07
3.30183e-07
2.62725e-08
1.14073e-06
1.03029e-06
8.18185e-07
4.99284e-07
9.13437e-08
1.5995e-06
1.45531e-06
1.19137e-06
7.75039e-07
2.32727e-07
2.30229e-06
2.10862e-06
1.78773e-06
1.25693e-06
5.31985e-07
3.47382e-06
3.2151e-06
2.78831e-06
2.22427e-06
1.14526e-06
5.41414e-06
5.16706e-06
4.20598e-06
4.35841e-06
2.28758e-06
5.60302e-06
8.11158e-06
3.88001e-06
8.81021e-06
4.32109e-06
3.62055e-05
2.09871e-05
2.55161e-05
2.27955e-05
1.65586e-05
-1.92703e-05
1.50319e-05
-2.94187e-05
2.08673e-05
9.529e-06
0.000118733
-7.77823e-05
-2.34545e-06
-4.28554e-05
-2.02107e-05
0.000942283
0.000521239
0.000747969
0.000332883
0.000181489
0.00117009
0.00125124
0.00148625
0.00119848
0.00168704
0.00226184
0.00185172
0.00226335
0.00213471
0.00254469
0.00315964
0.00380829
0.00274983
0.00306057
0.00327209
0.00402914
0.00378228
0.0036769
0.00347951
0.00354762
0.00457294
0.00398232
0.00464715
0.00418354
0.00390823
0.00488793
0.00488206
0.00501439
0.00488724
0.0047598
0.00598181
0.00622335
0.00528133
0.0052426
0.00517404
0.00593763
0.00620016
0.00579384
0.00514532
0.00548821
0.00619851
0.00628289
0.00609121
0.00618269
0.00600689
0.00636813
0.00631752
0.00638774
0.00634319
0.00628881
0.00631046
0.00633387
0.00634319
0.00634359