/*--------------------------------*- C++ -*----------------------------------*\
| =========                 |                                                 |
| \\      /  F ield         | OpenFOAM: The Open Source CFD Toolbox           |
|  \\    /   O peration     | Version:  5.x                                   |
|   \\  /    A nd           | Web:      www.OpenFOAM.org                      |
|    \\/     M anipulation  |                                                 |
\*---------------------------------------------------------------------------*/
FoamFile
{
    version     2.0;
    format      ascii;
    class       surfaceScalarField;
    location    "600";
    object      phi;
}
// * * * * * * * * * * * * * * * * * * * * * * * * * * * * * * * * * * * * * //

dimensions      [0 3 -1 0 0 0 0];

internalField   nonuniform List<scalar> 
89
(
-0.0249995
-0.0249994
-0.0249994
-0.0249993
-0.0249991
-0.024999
-0.0249988
-0.0249986
-0.0249984
-0.0249981
-0.0249978
-0.0249975
-0.0249971
-0.0249966
-0.0249962
-0.0249957
-0.0249952
-0.0249947
-0.0249943
-0.0249942
-0.0249944
-0.0249952
-0.0249967
-0.0249995
-0.0250042
-0.0250115
-0.0250225
-0.0250389
-0.0250626
-0.0250968
-0.0251452
-0.0252134
-0.0253088
-0.0254419
-0.0256286
-0.0258758
-0.0261916
-0.0265297
-0.0269562
-0.0262267
-0.0262566
-0.0265181
-0.0267186
-0.0270929
-0.0272711
-0.0274702
-0.0279373
-0.0284231
-0.0285086
-0.0286367
-0.0285952
-0.0285976
-0.0286692
-0.0282525
-0.0275885
-0.0270177
-0.0265722
-0.0262264
-0.0259579
-0.0257492
-0.0255868
-0.0254603
-0.0253616
-0.0252845
-0.0252242
-0.0251769
-0.0251398
-0.0251106
-0.0250876
-0.0250695
-0.0250552
-0.0250438
-0.0250349
-0.0250278
-0.0250222
-0.0250177
-0.0250142
-0.0250113
-0.025009
-0.0250072
-0.0250057
-0.0250045
-0.0250035
-0.0250027
-0.025002
-0.0250015
-0.0250011
-0.0250008
-0.0250005
)
;

boundaryField
{
    inlet
    {
        type            calculated;
        value           uniform -0.0250003;
    }
    outlet
    {
        type            calculated;
        value           uniform 0.0249995;
    }
    repeat_boundary
    {
        type            calculated;
        value           uniform 0;
    }
    procBoundary1to0
    {
        type            processor;
        value           nonuniform List<scalar> 
90
(
-7.01543e-09
-9.8356e-09
-1.41199e-08
-1.9134e-08
-2.48664e-08
-3.13188e-08
-3.84202e-08
-4.60457e-08
-5.39236e-08
-6.15595e-08
-6.81371e-08
-7.24671e-08
-7.29046e-08
-6.72479e-08
-5.272e-08
-2.68324e-08
1.90679e-08
1.13399e-07
2.55781e-07
4.66682e-07
7.74613e-07
1.2181e-06
1.84933e-06
2.7384e-06
3.98075e-06
5.7063e-06
8.09056e-06
1.13706e-05
1.5866e-05
2.20076e-05
3.0375e-05
4.17499e-05
5.72186e-05
7.84931e-05
0.000108457
0.000141782
0.000177697
0.00018139
0.000244738
-0.000458912
1.85375e-05
0.00018942
8.43685e-05
0.000280429
0.000290249
0.000213057
0.000174618
4.04512e-05
-9.5425e-05
0.00015443
5.30982e-05
-3.58879e-05
8.11055e-05
-0.000201044
-0.000365989
-0.000318644
-0.000250983
-0.000197002
-0.000154772
-0.00012172
-9.58473e-05
-7.55736e-05
-5.96667e-05
-4.7169e-05
-3.73362e-05
-2.95894e-05
-2.34778e-05
-1.86503e-05
-1.48328e-05
-1.18109e-05
-9.41665e-06
-7.51823e-06
-6.01172e-06
-4.81512e-06
-3.86358e-06
-3.10579e-06
-2.50127e-06
-2.01793e-06
-1.63041e-06
-1.31878e-06
-1.06744e-06
-8.64258e-07
-6.99836e-07
-5.66929e-07
-4.59989e-07
-3.74793e-07
-3.08041e-07
-2.56835e-07
-2.18353e-07
-2.00052e-07
)
;
    }
    procBoundary1to3
    {
        type            processor;
        value           nonuniform List<scalar> 
90
(
-1.23639e-08
-2.20878e-08
-3.43633e-08
-4.84488e-08
-6.47539e-08
-8.37779e-08
-1.05994e-07
-1.31838e-07
-1.61735e-07
-1.96076e-07
-2.35179e-07
-2.79221e-07
-3.2814e-07
-3.8148e-07
-4.38168e-07
-4.96219e-07
-5.52389e-07
-6.01428e-07
-6.3473e-07
-6.39352e-07
-5.95747e-07
-4.80516e-07
-2.8452e-07
6.80482e-08
6.72253e-07
1.59908e-06
2.98547e-06
5.02061e-06
7.96293e-06
1.21657e-05
1.81117e-05
2.64632e-05
3.81481e-05
5.45905e-05
7.81655e-05
0.00010545
0.000138034
0.00015674
0.000181747
-0.000270536
1.14213e-05
7.20595e-05
0.000116167
9.38096e-05
-0.000112092
-1.39553e-05
0.000292558
0.000445436
0.000180891
-2.6459e-05
-9.44038e-05
3.82282e-05
-9.47225e-06
-0.000215608
-0.000298046
-0.000252114
-0.000194492
-0.000148729
-0.000113714
-8.69589e-05
-6.6573e-05
-5.10012e-05
-3.90945e-05
-2.99911e-05
-2.30297e-05
-1.7703e-05
-1.36235e-05
-1.04961e-05
-8.09656e-06
-6.25433e-06
-4.83924e-06
-3.75183e-06
-2.91587e-06
-2.2728e-06
-1.77754e-06
-1.39535e-06
-1.09946e-06
-8.69345e-07
-6.89291e-07
-5.47383e-07
-4.34658e-07
-3.44431e-07
-2.71762e-07
-2.13002e-07
-1.65467e-07
-1.27216e-07
-9.68764e-08
-7.35696e-08
-5.65206e-08
-4.85262e-08
)
;
    }
}


// ************************************************************************* //
