/*--------------------------------*- C++ -*----------------------------------*\
| =========                 |                                                 |
| \\      /  F ield         | OpenFOAM: The Open Source CFD Toolbox           |
|  \\    /   O peration     | Version:  5.x                                   |
|   \\  /    A nd           | Web:      www.OpenFOAM.org                      |
|    \\/     M anipulation  |                                                 |
\*---------------------------------------------------------------------------*/
FoamFile
{
    version     2.0;
    format      ascii;
    class       volVectorField;
    location    "600";
    object      U;
}
// * * * * * * * * * * * * * * * * * * * * * * * * * * * * * * * * * * * * * //

dimensions      [0 1 -1 0 0 0 0];

internalField   nonuniform List<vector> 
90
(
(1.553e-09 -2.45972e-09 -0.00099998)
(2.36019e-09 -4.42973e-09 -0.000999978)
(3.45055e-09 -6.86109e-09 -0.000999976)
(4.67245e-09 -9.5872e-09 -0.000999972)
(6.02459e-09 -1.26739e-08 -0.000999968)
(7.5155e-09 -1.62117e-08 -0.000999963)
(9.13992e-09 -2.02922e-08 -0.000999956)
(1.08713e-08 -2.50048e-08 -0.000999949)
(1.2655e-08 -3.04356e-08 -0.00099994)
(1.43981e-08 -3.66626e-08 -0.00099993)
(1.59558e-08 -4.37498e-08 -0.000999918)
(1.71097e-08 -5.17347e-08 -0.000999905)
(1.75383e-08 -6.06097e-08 -0.000999891)
(1.67761e-08 -7.02952e-08 -0.000999874)
(1.41575e-08 -8.05998e-08 -0.000999856)
(8.74647e-09 -9.11666e-08 -0.000999837)
(-7.421e-10 -1.01408e-07 -0.000999817)
(-1.61101e-08 -1.10381e-07 -0.000999797)
(-4.00064e-08 -1.16566e-07 -0.000999781)
(-7.60819e-08 -1.17703e-07 -0.00099977)
(-1.29354e-07 -1.10489e-07 -0.00099977)
(-2.06718e-07 -9.01409e-08 -0.000999788)
(-3.17586e-07 -4.98747e-08 -0.000999832)
(-4.74671e-07 1.96321e-08 -0.000999917)
(-6.95322e-07 1.31559e-07 -0.00100006)
(-1.00322e-06 3.04495e-07 -0.00100029)
(-1.43046e-06 5.64175e-07 -0.00100065)
(-2.02049e-06 9.4611e-07 -0.00100119)
(-2.83211e-06 1.49915e-06 -0.00100198)
(-3.94474e-06 2.2903e-06 -0.00100311)
(-5.46556e-06 3.41127e-06 -0.00100473)
(-7.53943e-06 4.9878e-06 -0.00100705)
(-1.03669e-05 7.19488e-06 -0.00101054)
(-1.42642e-05 1.03041e-05 -0.00101538)
(-1.98538e-05 1.48563e-05 -0.00101793)
(-2.58526e-05 1.98639e-05 -0.00101172)
(-3.25952e-05 2.64618e-05 -0.00103924)
(-3.44634e-05 2.99761e-05 -0.00127301)
(-3.79685e-05 2.97574e-05 -0.000356493)
(7.31019e-05 -4.31761e-05 -0.00258769)
(-1.75787e-06 3.32212e-06 -0.00120652)
(-6.24395e-05 2.41553e-05 -0.00298274)
(-1.49407e-05 2.76828e-05 -0.00192697)
(-7.69192e-05 3.65052e-05 -0.00319258)
(-6.61451e-05 -2.35167e-05 -0.00226441)
(-7.20026e-05 5.13139e-07 -0.00325305)
(-3.04341e-05 7.02693e-05 -0.00197455)
(-1.05113e-05 0.000149446 -0.00331871)
(3.89814e-05 5.76755e-05 -0.0023291)
(-2.71081e-05 -5.25478e-06 -0.00275437)
(-9.91075e-06 -1.35842e-05 -0.00265061)
(1.99461e-05 1.73055e-05 -0.00168326)
(-8.67818e-06 1.58535e-05 -0.0024711)
(7.87822e-05 -4.2439e-05 -0.00109107)
(8.21606e-05 -5.7141e-05 -0.00107571)
(6.36911e-05 -4.69281e-05 -0.00108732)
(4.93144e-05 -3.59447e-05 -0.00107197)
(3.8569e-05 -2.74777e-05 -0.00105579)
(3.02193e-05 -2.10113e-05 -0.00104331)
(2.36987e-05 -1.60692e-05 -0.00103383)
(1.86054e-05 -1.22993e-05 -0.00102648)
(1.46244e-05 -9.41932e-06 -0.00102076)
(1.15098e-05 -7.21794e-06 -0.0010163)
(9.07028e-06 -5.53549e-06 -0.00101281)
(7.15706e-06 -4.24943e-06 -0.00101009)
(5.65465e-06 -3.26574e-06 -0.00100796)
(4.4733e-06 -2.51268e-06 -0.00100628)
(3.54319e-06 -1.93563e-06 -0.00100497)
(2.80999e-06 -1.49304e-06 -0.00100393)
(2.23133e-06 -1.15328e-06 -0.00100312)
(1.77414e-06 -8.92261e-07 -0.00100247)
(1.41253e-06 -6.91565e-07 -0.00100197)
(1.12621e-06 -5.37122e-07 -0.00100156)
(8.99261e-07 -4.18152e-07 -0.00100125)
(7.19151e-07 -3.26388e-07 -0.00100099)
(5.76012e-07 -2.55481e-07 -0.00100079)
(4.62093e-07 -2.0056e-07 -0.00100063)
(3.7127e-07 -1.57886e-07 -0.00100051)
(2.9873e-07 -1.24599e-07 -0.0010004)
(2.40689e-07 -9.85165e-08 -0.00100032)
(1.94179e-07 -7.79787e-08 -0.00100026)
(1.56876e-07 -6.17328e-08 -0.0010002)
(1.26964e-07 -4.8838e-08 -0.00100016)
(1.03032e-07 -3.85936e-08 -0.00100012)
(8.39855e-08 -3.04815e-08 -0.00100009)
(6.89814e-08 -2.41222e-08 -0.00100007)
(5.73518e-08 -1.92338e-08 -0.00100005)
(4.85183e-08 -1.55788e-08 -0.00100004)
(4.20126e-08 -1.29154e-08 -0.00100002)
(3.90522e-08 -1.1688e-08 -0.00100002)
)
;

boundaryField
{
    inlet
    {
        type            zeroGradient;
    }
    outlet
    {
        type            zeroGradient;
    }
    repeat_boundary
    {
        type            slip;
    }
    procBoundary1to0
    {
        type            processor;
        value           nonuniform List<vector> 
90
(
(1.55302e-09 -3.67335e-09 -0.00099999)
(2.36022e-09 -7.23798e-09 -0.000999989)
(3.4506e-09 -1.15044e-08 -0.000999988)
(4.67258e-09 -1.63112e-08 -0.000999986)
(6.02471e-09 -2.1852e-08 -0.000999983)
(7.51544e-09 -2.83979e-08 -0.000999979)
(9.13983e-09 -3.62862e-08 -0.000999974)
(1.08714e-08 -4.59373e-08 -0.000999967)
(1.26551e-08 -5.78729e-08 -0.000999959)
(1.43983e-08 -7.27506e-08 -0.000999947)
(1.5956e-08 -9.14001e-08 -0.000999933)
(1.711e-08 -1.14872e-07 -0.000999915)
(1.75389e-08 -1.44504e-07 -0.00099989)
(1.67771e-08 -1.82001e-07 -0.000999859)
(1.41592e-08 -2.29548e-07 -0.000999817)
(8.74942e-09 -2.89944e-07 -0.000999764)
(-7.36864e-10 -3.6677e-07 -0.000999693)
(-1.61007e-08 -4.64644e-07 -0.000999601)
(-3.99893e-08 -5.89588e-07 -0.000999479)
(-7.60506e-08 -7.49383e-07 -0.00099932)
(-1.29297e-07 -9.54094e-07 -0.000999111)
(-2.06612e-07 -1.21677e-06 -0.000998837)
(-3.17391e-07 -1.55434e-06 -0.000998477)
(-4.74313e-07 -1.98883e-06 -0.000998004)
(-6.94675e-07 -2.54891e-06 -0.000997383)
(-1.00205e-06 -3.27193e-06 -0.000996567)
(-1.42834e-06 -4.20664e-06 -0.000995492)
(-2.01667e-06 -5.41674e-06 -0.000994076)
(-2.82519e-06 -6.98551e-06 -0.00099221)
(-3.93222e-06 -9.02193e-06 -0.000989746)
(-5.44316e-06 -1.16688e-05 -0.000986492)
(-7.5009e-06 -1.51158e-05 -0.000982234)
(-1.03073e-05 -1.96293e-05 -0.000976775)
(-1.41775e-05 -2.56264e-05 -0.000969272)
(-1.95675e-05 -3.36597e-05 -0.000955778)
(-2.54234e-05 -4.19761e-05 -0.000937535)
(-3.21612e-05 -5.13797e-05 -0.000937876)
(-3.4627e-05 -5.39269e-05 -0.00105912)
(-4.00331e-05 -5.6585e-05 -0.000376538)
(8.10399e-05 0.000107236 -0.00194306)
(-4.81061e-06 -6.56278e-06 -0.00167642)
(-3.06804e-05 -5.88817e-05 -0.0015397)
(-2.11364e-05 -4.6534e-05 -0.00238389)
(-5.58866e-05 -4.36435e-05 -0.00214498)
(-7.41082e-05 -5.70672e-05 -0.0024101)
(-2.68162e-05 -5.38439e-06 -0.00181443)
(-4.27265e-05 5.52306e-05 -0.00259264)
(1.3585e-05 9.45936e-05 -0.00174844)
(4.00753e-05 0.000117848 -0.00234918)
(-2.05562e-05 1.61273e-05 -0.00229619)
(1.53836e-05 1.99215e-05 -0.0016787)
(2.79202e-05 4.07341e-05 -0.00164859)
(-1.00431e-05 3.759e-05 -0.00184604)
(6.52247e-06 1.93716e-06 -0.00100844)
(6.33772e-05 3.24603e-05 -0.000886776)
(6.28453e-05 2.99259e-05 -0.000917149)
(4.99886e-05 2.26138e-05 -0.000943581)
(3.90383e-05 1.66246e-05 -0.000957026)
(3.04978e-05 1.21843e-05 -0.000966558)
(2.38623e-05 8.90214e-06 -0.000974028)
(1.87016e-05 6.48475e-06 -0.00097985)
(1.46812e-05 4.70398e-06 -0.000984353)
(1.15434e-05 3.39461e-06 -0.000987833)
(9.09024e-06 2.43544e-06 -0.000990527)
(7.16895e-06 1.7356e-06 -0.000992615)
(5.66177e-06 1.22696e-06 -0.000994235)
(4.47757e-06 8.58834e-07 -0.000995494)
(3.54576e-06 5.93746e-07 -0.000996473)
(2.81154e-06 4.04033e-07 -0.000997236)
(2.23228e-06 2.69315e-07 -0.000997831)
(1.77471e-06 1.74577e-07 -0.000998297)
(1.41288e-06 1.08769e-07 -0.000998661)
(1.12642e-06 6.37629e-08 -0.000998946)
(8.99393e-07 3.35885e-08 -0.00099917)
(7.19232e-07 1.38633e-08 -0.000999345)
(5.76062e-07 1.38119e-09 -0.000999483)
(4.62124e-07 -6.14639e-09 -0.00099959)
(3.7129e-07 -1.03964e-08 -0.000999674)
(2.98742e-07 -1.25476e-08 -0.000999739)
(2.40696e-07 -1.34174e-08 -0.000999789)
(1.94184e-07 -1.3559e-08 -0.000999829)
(1.56879e-07 -1.33367e-08 -0.000999859)
(1.26966e-07 -1.29765e-08 -0.000999884)
(1.03033e-07 -1.26069e-08 -0.000999904)
(8.3986e-08 -1.22883e-08 -0.000999921)
(6.89816e-08 -1.20365e-08 -0.000999936)
(5.73514e-08 -1.18429e-08 -0.00099995)
(4.85151e-08 -1.16797e-08 -0.000999962)
(4.20163e-08 -1.14669e-08 -0.000999976)
(3.90527e-08 -1.12337e-08 -0.000999986)
)
;
    }
    procBoundary1to3
    {
        type            processor;
        value           nonuniform List<vector> 
90
(
(2.76662e-09 -2.45974e-09 -0.001)
(5.1684e-09 -4.42975e-09 -0.001)
(8.09374e-09 -6.86109e-09 -0.001)
(1.13962e-08 -9.58721e-09 -0.001)
(1.52024e-08 -1.26739e-08 -0.001)
(1.97019e-08 -1.62118e-08 -0.001)
(2.51344e-08 -2.02923e-08 -0.001)
(3.1804e-08 -2.50049e-08 -0.001)
(4.00924e-08 -3.04357e-08 -0.001)
(5.04862e-08 -3.66628e-08 -0.000999998)
(6.36061e-08 -4.37502e-08 -0.000999996)
(8.02473e-08 -5.17352e-08 -0.000999992)
(1.01433e-07 -6.06105e-08 -0.000999986)
(1.28482e-07 -7.02964e-08 -0.000999977)
(1.63106e-07 -8.06017e-08 -0.000999963)
(2.07525e-07 -9.11697e-08 -0.000999944)
(2.64623e-07 -1.01413e-07 -0.000999916)
(3.38157e-07 -1.10389e-07 -0.000999876)
(4.33023e-07 -1.16581e-07 -0.00099982)
(5.55612e-07 -1.17728e-07 -0.000999741)
(7.14276e-07 -1.10534e-07 -0.000999632)
(9.19955e-07 -9.02216e-08 -0.000999482)
(1.18697e-06 -5.00198e-08 -0.000999276)
(1.53395e-06 1.93693e-08 -0.000998996)
(1.98541e-06 1.31081e-07 -0.000998614)
(2.57364e-06 3.03619e-07 -0.000998095)
(3.34108e-06 5.62567e-07 -0.000997389)
(4.34355e-06 9.43153e-07 -0.000996432)
(5.65452e-06 1.49371e-06 -0.000995137)
(7.37078e-06 2.28033e-06 -0.000993384)
(9.62011e-06 3.39325e-06 -0.000991012)
(1.25738e-05 4.95682e-06 -0.000987855)
(1.64737e-05 7.14768e-06 -0.000983819)
(2.16856e-05 1.02318e-05 -0.000978235)
(2.86541e-05 1.45744e-05 -0.000966921)
(3.64455e-05 1.97562e-05 -0.000946628)
(4.49625e-05 2.58237e-05 -0.000943593)
(4.95709e-05 3.02058e-05 -0.00111606)
(4.89529e-05 3.20068e-05 -0.000317635)
(-6.78663e-05 -4.37746e-05 -0.00211648)
(4.96286e-06 4.11781e-06 -0.00158324)
(4.70987e-05 1.6997e-05 -0.00166108)
(6.76412e-05 3.92595e-05 -0.00285496)
(1.77811e-05 2.13292e-05 -0.00163012)
(-4.55918e-05 -2.7979e-05 -0.00270571)
(-3.41673e-05 3.36278e-06 -0.00205847)
(-3.36637e-05 9.89112e-05 -0.00251796)
(-1.70562e-05 9.01093e-05 -0.00200626)
(-1.17383e-05 5.43263e-05 -0.00267484)
(-5.90668e-06 8.49654e-06 -0.00161932)
(-4.93235e-05 -1.72569e-05 -0.00273598)
(1.16904e-05 1.67411e-05 -0.00110687)
(-5.27642e-05 -1.70505e-05 -0.00197162)
(-1.79859e-06 -3.84883e-05 -0.00103583)
(-2.29491e-05 -5.18602e-05 -0.000938948)
(-1.52719e-05 -4.68585e-05 -0.00094577)
(-9.34463e-06 -3.64966e-05 -0.000968655)
(-5.47106e-06 -2.78318e-05 -0.000978305)
(-2.92907e-06 -2.1216e-05 -0.000984467)
(-1.24337e-06 -1.61862e-05 -0.000989023)
(-1.60827e-07 -1.2366e-05 -0.000992356)
(5.11931e-07 -9.4574e-06 -0.000994727)
(9.03846e-07 -7.23964e-06 -0.000996427)
(1.10328e-06 -5.54789e-06 -0.000997642)
(1.17441e-06 -4.25647e-06 -0.0009985)
(1.1634e-06 -3.26974e-06 -0.000999095)
(1.10266e-06 -2.51496e-06 -0.000999501)
(1.01435e-06 -1.93693e-06 -0.000999772)
(9.13242e-07 -1.49378e-06 -0.000999949)
(8.0893e-07 -1.15371e-06 -0.00100006)
(7.0742e-07 -8.92504e-07 -0.00100012)
(6.12265e-07 -6.91705e-07 -0.00100016)
(5.25369e-07 -5.37203e-07 -0.00100017)
(4.47547e-07 -4.18199e-07 -0.00100017)
(3.78915e-07 -3.26415e-07 -0.00100017)
(3.19159e-07 -2.55497e-07 -0.00100015)
(2.67685e-07 -2.00569e-07 -0.00100014)
(2.23784e-07 -1.57891e-07 -0.00100012)
(1.8668e-07 -1.24603e-07 -0.0010001)
(1.55591e-07 -9.85183e-08 -0.00100009)
(1.2976e-07 -7.79798e-08 -0.00100007)
(1.08481e-07 -6.17334e-08 -0.00100005)
(9.11032e-08 -4.88383e-08 -0.00100004)
(7.70452e-08 -3.85938e-08 -0.00100003)
(6.57921e-08 -3.04818e-08 -0.00100002)
(5.68953e-08 -2.41221e-08 -0.00100001)
(4.9959e-08 -1.92326e-08 -0.00100001)
(4.4612e-08 -1.55743e-08 -0.00100001)
(4.05724e-08 -1.29206e-08 -0.00100001)
(3.85994e-08 -1.16891e-08 -0.00100001)
)
;
    }
}


// ************************************************************************* //
