FoamFile
{version 2.0; format ascii;class Cloud<passiveParticle>; location 0;object  positions;}
350
(
( -1605.6 -4279.6 498.581 ) 0 
( -364.508 -4453.32 496.108 ) 0 
( -3769.53 -4064.08 498.71 ) 0 
( -2389.91 -1176.51 497.302 ) 0 
( -407.48 -2672.04 499.673 ) 0 
( -1408.44 -2713.33 497.568 ) 0 
( -1529.33 -559.494 496.756 ) 0 
( -4686.2 -1117.75 498.435 ) 0 
( -4619.28 -2192.83 499.225 ) 0 
( -3385.25 -191.813 496.696 ) 0 
( -3313.46 -4954.73 498.642 ) 0 
( -1533.07 -1705.54 499.628 ) 0 
( -4402.32 -159.207 497.822 ) 0 
( -2394.3 -57.6899 499.692 ) 0 
( -3624.95 -2287.11 498.859 ) 0 
( -1301.72 -64.3458 1332.97 ) 0 
( -4336.82 -4886.74 498.547 ) 0 
( -2628.23 -2356.55 499.09 ) 0 
( -888.275 -3567.25 498.581 ) 0 
( -2213.22 -3306.55 498.238 ) 0 
( -2653.81 -4203.74 499.636 ) 0 
( -3388.8 -1194.75 497.957 ) 0 
( -4064.02 -1617.48 1098.97 ) 0 
( -4206.54 -3159.71 498.534 ) 0 
( -1531.08 -4894.6 1281.85 ) 0 
( -506.605 -1608.57 498.022 ) 0 
( -4774.98 -3981.19 498.307 ) 0 
( -661.871 -736.438 960.293 ) 0 
( -3907.28 -638.711 1219.36 ) 0 
( -3210.13 -3236.17 497.52 ) 0 
( -3156.62 -2649.78 1302.73 ) 0 
( -1233.08 -2949.8 1732.47 ) 0 
( -1741.38 -3688.73 1292.53 ) 0 
( -1772.79 -1126.79 1279.05 ) 0 
( -4741.41 -3405.22 1314.47 ) 0 
( -3289.83 -4381.22 1315.48 ) 0 
( -2883.51 -1693.48 1202.01 ) 0 
( -2897.84 -694.232 1208.69 ) 0 
( -349.271 -3281.21 1290.47 ) 0 
( -4699.87 -1798.46 1847.28 ) 0 
( -969.88 -2151.71 1194.9 ) 0 
( -4910.4 -529.886 1273.79 ) 0 
( -2072.72 -2679.19 1263.9 ) 0 
( -4296.28 -4305.54 1312.4 ) 0 
( -4167.16 -2586.32 1314.7 ) 0 
( -5.67888 -2345.55 1365.58 ) 0 
( -3420.88 -1146.84 1927.46 ) 0 
( -2339.9 -4419.41 1620.6 ) 0 
( -906.055 -1315.9 1735.98 ) 0 
( -2731.5 -3553.35 1314.61 ) 0 
( -851.804 -4147.25 1310.42 ) 0 
( -4373.4 -865.593 2072.06 ) 0 
( -3591.38 -169.589 2041.37 ) 0 
( -1690.92 -1939.56 1851.39 ) 0 
( -586.915 -375.256 1954.57 ) 0 
( -3728.64 -3483.61 1315.23 ) 0 
( -2241.53 -99.6903 1667.66 ) 0 
( -2298.31 -3216.38 2147.75 ) 0 
( -2735.63 -460.216 2470.04 ) 0 
( -2269.99 -4497.49 2635.96 ) 0 
( -120.65 -1172.34 2333.52 ) 0 
( -4277.34 -3737.69 2134.66 ) 0 
( -1631.92 -2613.74 2583.26 ) 0 
( -3824.84 -4628.14 2131.16 ) 0 
( -4822.69 -4577.16 2127.11 ) 0 
( -1535.26 -642.659 2119.07 ) 0 
( -627.114 -2190.15 2133.19 ) 0 
( -2611.48 -2272.97 2048.67 ) 0 
( -261.314 -4566.33 2170.56 ) 0 
( -2436.1 -1291.39 2005.19 ) 0 
( -1463.88 -4295.86 2083.41 ) 0 
( -670.207 -3654.86 2159.8 ) 0 
( -3037.26 -4018.42 2211.12 ) 0 
( -1006.72 -203.391 2843.38 ) 0 
( -3051 -1657.47 2702.25 ) 0 
( -4336.19 -28.559 2690.71 ) 0 
( -3611.49 -2121.8 2017.07 ) 0 
( -708.62 -2910.19 2824.95 ) 0 
( -1594.93 -3592.26 2777.7 ) 0 
( -1045.61 -1269.75 2724.74 ) 0 
( -1951.88 -1688.14 2783.55 ) 0 
( -3395.37 -3086.1 2169.69 ) 0 
( -3703.32 -789.784 2814.98 ) 0 
( -1926.85 -705.653 3034.76 ) 0 
( -164.383 -1900.29 3015.9 ) 0 
( -2569.43 -3623.38 3017.27 ) 0 
( -2548.49 -2626.11 2980.48 ) 0 
( -1109.37 -2108.28 3267.06 ) 0 
( -165.684 -630.886 3171.5 ) 0 
( -4480.25 -968.368 3416.24 ) 0 
( -4337.28 -2751.93 2283.97 ) 0 
( -1579.48 -4909.67 3228.99 ) 0 
( -4185.49 -1655.95 2690.68 ) 0 
( -873.079 -4283.97 2907.16 ) 0 
( -1239.82 -507.715 3765.92 ) 0 
( -2851.68 -886.161 3365.89 ) 0 
( -3034.27 -4467.83 3277.65 ) 0 
( -2153.01 -4234.75 3686.35 ) 0 
( -2343.14 -90.7632 3702.52 ) 0 
( -701.563 -4920.08 3703.84 ) 0 
( -664.233 -1321.73 3691.76 ) 0 
( -3560.13 -2481.76 2948.59 ) 0 
( -2571.45 -1821.73 3571.59 ) 0 
( -3644.99 -415.485 3746.95 ) 0 
( -4459.31 -3242.23 3143.74 ) 0 
( -3137.69 -3066.25 3656.52 ) 0 
( -267.421 -3696.11 3440.65 ) 0 
( -4309.93 -4323.59 2948.26 ) 0 
( -3626.41 -1505.52 3504.07 ) 0 
( -3566.99 -3656.25 2974.92 ) 0 
( -803.512 -2882.72 3818.05 ) 0 
( -1753.37 -2941.44 3517.29 ) 0 
( -1671.94 -1406.09 3700.1 ) 0 
( -3963.37 -3996.79 3827.18 ) 0 
( -4921.95 -4390.23 3733.66 ) 0 
( -4579.82 -107.53 3913.06 ) 0 
( -1232.29 -3776.32 3689.42 ) 0 
( -3000.25 -3938.74 4123.49 ) 0 
( -124.431 -2062.4 4090.77 ) 0 
( -3030.1 -1274.77 4270.97 ) 0 
( -4397.56 -2269.15 3451.48 ) 0 
( -1482.94 -2255.38 4192.29 ) 0 
( -1159.44 -1383.92 4557.25 ) 0 
( -157.924 -4279.76 4243.69 ) 0 
( -51.3789 -3290.6 4329.46 ) 0 
( -3587.96 -4659.43 4485.84 ) 0 
( -2995.78 -307.948 4520.23 ) 0 
( -2419.03 -2601.35 4176.88 ) 0 
( -1161 -4428.54 4441.52 ) 0 
( -4783.21 -3457.93 4061.47 ) 0 
( -3030.86 -3153.7 4738.23 ) 0 
( -684.517 -125.648 4520.97 ) 0 
( -187.847 -1145.88 4552.36 ) 0 
( -3914.6 -3018.16 4283.56 ) 0 
( -3337.63 -2216.17 4139.96 ) 0 
( -2309.09 -4430.51 4652.68 ) 0 
( -2068.73 -780.017 4370.06 ) 0 
( -1979.49 -3485.87 4322.98 ) 0 
( -3107.29 -4068.7 5131.82 ) 0 
( -3979.42 -366.488 4687.03 ) 0 
( -4217.59 -1358.97 4295.51 ) 0 
( -1008.41 -3456.57 4609.32 ) 0 
( -3103.66 -2229.57 5110.48 ) 0 
( -1700.26 -3862.38 5203.41 ) 0 
( -38.3493 -358.211 5245.2 ) 0 
( -2647.92 -1003.79 5152.79 ) 0 
( -3616.11 -1247.61 5084.47 ) 0 
( -4204.31 -3833.3 4783.68 ) 0 
( -1393.8 -560.994 5072.12 ) 0 
( -4575.32 -4767.78 4590.68 ) 0 
( -4060.21 -2189.99 4826.15 ) 0 
( -1847.37 -2746.79 4983.01 ) 0 
( -705.486 -2518.36 4762.3 ) 0 
( -2215.98 -1733.66 4625.99 ) 0 
( -1809.89 -42.2049 5816.89 ) 0 
( -1833.71 -1204.49 5696.28 ) 0 
( -1314.87 -1981.53 5343.36 ) 0 
( -3932.28 -4555.13 5418.03 ) 0 
( -2468.42 -3322.89 5546.8 ) 0 
( -785.605 -4239.13 5348.42 ) 0 
( -4601.52 -999.722 5144.19 ) 0 
( -4681.78 -2964.73 4922.57 ) 0 
( -1401.78 -3117.56 5796.6 ) 0 
( -42.9271 -1964.94 5264.58 ) 0 
( -4969.23 -4414.6 5437.7 ) 0 
( -395.649 -3319.29 5386.66 ) 0 
( -4996.74 -2006.25 5116.68 ) 0 
( -682.069 -1212.35 5417.81 ) 0 
( -862.951 -352.377 5891.15 ) 0 
( -3347.89 -362.026 5461.9 ) 0 
( -4091.39 -787.253 5977.1 ) 0 
( -4338.71 -3714 5770.57 ) 0 
( -2262.42 -2105.23 5633.85 ) 0 
( -636.225 -2482.89 5878.46 ) 0 
( -2083.64 -4693.32 5600.94 ) 0 
( -3787.95 -2985.9 5365.04 ) 0 
( -4231.35 -1740.4 5701.01 ) 0 
( -3051.26 -4778.75 5833.19 ) 0 
( -4905.51 -257.127 5739.81 ) 0 
( -3367.9 -3638.57 5994.59 ) 0 
( -4958.83 -2593.42 5923.81 ) 0 
( -1591.52 -708.261 6529.4 ) 0 
( -4941.47 -3405.5 6505.35 ) 0 
( -2486.81 -4040.97 6242.18 ) 0 
( -1090.59 -1567.2 6258.2 ) 0 
( -829.892 -3361.11 6578.62 ) 0 
( -3104.58 -2656.17 6014.02 ) 0 
( -3286.53 -90.763 6494.05 ) 0 
( -2172.96 -2800.27 6345.95 ) 0 
( -4093.66 -2910.79 6311.8 ) 0 
( -2323.42 -1507.66 6512.37 ) 0 
( -4798.52 -4391.47 6421.09 ) 0 
( -1425.72 -4111.1 6129.67 ) 0 
( -4.89816 -1899.44 6385.68 ) 0 
( -300.496 -849.858 6549.41 ) 0 
( -3800.69 -4443.32 6402.56 ) 0 
( -3076.43 -1570.33 5860.09 ) 0 
( -531.39 -4313.29 6524.64 ) 0 
( -2564.87 -641.048 6078.88 ) 0 
( -556.568 -1597 7161.17 ) 0 
( -3702.71 -2012.03 6502.36 ) 0 
( -349.394 -2566.22 7044.15 ) 0 
( -2890.26 -4754.72 6819.33 ) 0 
( -1278.07 -2469.85 6644.79 ) 0 
( -4512.83 -1436.55 6609.6 ) 0 
( -3412.01 -1068.58 6656.11 ) 0 
( -3338.89 -439.69 7430.56 ) 0 
( -2922.53 -3271.01 6809.1 ) 0 
( -3666.86 -2729.32 7197.15 ) 0 
( -4091.98 -3668.21 6961.91 ) 0 
( -2421.8 -396.791 7036.59 ) 0 
( -1777.75 -3548.95 6877.52 ) 0 
( -2825.76 -2280.36 6895.94 ) 0 
( -4211.13 -549.647 6956.85 ) 0 
( -4716.9 -1310.33 7579.38 ) 0 
( -4487.66 -4492.1 7364.32 ) 0 
( -2562.26 -4000.36 7388.88 ) 0 
( -2002.66 -2653.09 7319.56 ) 0 
( -1819.29 -790.553 7728.71 ) 0 
( -2776.31 -1323.34 7384.24 ) 0 
( -446.58 -3450.08 7497.03 ) 0 
( -4593.17 -2361.63 6979.28 ) 0 
( -2825.6 -3123.28 7792.53 ) 0 
( -3777.79 -1609.04 7413.45 ) 0 
( -1873.93 -4543.73 6909.57 ) 0 
( -329.275 -4442.69 7502.92 ) 0 
( -4949.49 -339.07 7595.83 ) 0 
( -1553.45 -1556.15 7145.02 ) 0 
( -3510.63 -4308.34 7461.69 ) 0 
( -2116.3 -1854.44 7915.11 ) 0 
( -944.861 -601.114 7283.85 ) 0 
( -3962.04 -886.053 8078.53 ) 0 
( -1299.81 -4292.26 7688.17 ) 0 
( -4712.49 -3172.58 7568.04 ) 0 
( -3067.73 -2155.34 7856.15 ) 0 
( -1116.68 -2312.11 7630.92 ) 0 
( -2151.5 -4794.51 7835.29 ) 0 
( -3779.64 -3444.6 7885.7 ) 0 
( -1059.05 -1384.41 7998.68 ) 0 
( -170.15 -946.578 7811.63 ) 0 
( -1393.79 -3300.9 7773.09 ) 0 
( -306.843 -149.742 8397 ) 0 
( -3018.62 -4134.29 8313.09 ) 0 
( -2053.66 -3885.73 8241.49 ) 0 
( -1971.05 -1177.78 8636.54 ) 0 
( -323.536 -2677.18 8118.53 ) 0 
( -4831.45 -3972.08 8156.88 ) 0 
( -4251.42 -2358.58 7917.51 ) 0 
( -653.771 -3913.5 8356.76 ) 0 
( -2714.27 -702.502 8165.5 ) 0 
( -353.712 -1793.69 8585.35 ) 0 
( -2047.41 -2769.63 8311.39 ) 0 
( -4927.72 -4912.43 8480.62 ) 0 
( -3547.52 -2713.41 8531.28 ) 0 
( -1577.48 -185.564 9358.61 ) 0 
( -4707.68 -231.49 8563.38 ) 0 
( -2144.32 -2110.8 9075.28 ) 0 
( -1225.74 -529.492 8488.94 ) 0 
( -2882.04 -1584.83 8654.14 ) 0 
( -2353.35 -4527.1 8946.17 ) 0 
( -3471.28 -309.129 8730.59 ) 0 
( -4449.04 -3143.22 8563.3 ) 0 
( -4857.4 -1773.3 8454.11 ) 0 
( -1263.18 -2207.88 8613.85 ) 0 
( -3866.83 -1739.08 8599.15 ) 0 
( -195.937 -890.299 9064.23 ) 0 
( -3217.3 -4178.01 9306.5 ) 0 
( -461.153 -3738.68 9321.87 ) 0 
( -4286.54 -2404.08 9216.22 ) 0 
( -2725.5 -769.733 9210.7 ) 0 
( -1409.64 -4200.4 8942.43 ) 0 
( -4651.64 -3824.16 9266.54 ) 0 
( -3772.55 -3348.8 9268.63 ) 0 
( -373.144 -4756.94 8813.23 ) 0 
( -1265.44 -3220.29 8760.26 ) 0 
( -2765.94 -3285.84 8776.81 ) 0 
( -3968.25 -4165.01 8621.96 ) 0 
( -3053.93 -2422.02 9349.89 ) 0 
( -4282.24 -970.733 9083.37 ) 0 
( -1090.31 -1335.42 9080.38 ) 0 
( -535.011 -2643.92 9141.72 ) 0 
( -2020.47 -2671.41 9893.24 ) 0 
( -841.589 -693.281 9804.75 ) 0 
( -479.339 -4811.32 9805.56 ) 0 
( -3754.33 -2685.07 10014.7 ) 0 
( -4157.11 -31.8635 9403.1 ) 0 
( -3428.1 -515.195 9901.3 ) 0 
( -1151.54 -3143.75 9749.68 ) 0 
( -2905.74 -3318.91 9765.91 ) 0 
( -2006.96 -3529.03 9379.94 ) 0 
( -3459.58 -1405.33 9448.79 ) 0 
( -2370.85 -370.689 10055.9 ) 0 
( -2220.59 -4355.94 9921.88 ) 0 
( -1900.81 -1144.72 9632.8 ) 0 
( -2652.48 -1725.52 9943.75 ) 0 
( -1865.68 -3536.09 10370.3 ) 0 
( -2854.61 -2578.06 10435.5 ) 0 
( -4181.82 -1782.13 10026.6 ) 0 
( -1208.78 -2131.54 9672.71 ) 0 
( -287.123 -1747.05 9581.61 ) 0 
( -1782.38 -1814.65 10427.5 ) 0 
( -4777 -4732.76 10365.1 ) 0 
( -4371.52 -801.653 10064.1 ) 0 
( -4082.46 -4559.2 9633.94 ) 0 
( -4611.16 -3198.69 10048.2 ) 0 
( -1200.2 -4128 9916.67 ) 0 
( -1530.16 -851.225 10513.1 ) 0 
( -1144.92 -2571.37 10568.6 ) 0 
( -146.716 -2534.26 10534.8 ) 0 
( -3057.89 -80.0241 10721.3 ) 0 
( -3170.45 -4713.93 10148.7 ) 0 
( -1415.81 -4964.29 10419.7 ) 0 
( -3681.53 -4406.72 10951 ) 0 
( -723.17 -586.462 11040 ) 0 
( -3406.49 -1335.41 10472 ) 0 
( -491.124 -3579.44 10360 ) 0 
( -3710.75 -3795.54 10160.4 ) 0 
( -2036.21 -2761.71 10978.9 ) 0 
( -185.796 -4517.85 10715.2 ) 0 
( -4979.29 -2275.42 10370.9 ) 0 
( -3726.15 -2189.35 10882.1 ) 0 
( -238.769 -1201.63 10418.2 ) 0 
( -1505.05 -1407.53 11343 ) 0 
( -2375.28 -4963.89 10700.4 ) 0 
( -4463.75 -2874.95 10982.5 ) 0 
( -4995.27 -4739.27 11340.5 ) 0 
( -3650.09 -708.409 11224.7 ) 0 
( -655.366 -1848.93 11055.6 ) 0 
( -1096.26 -4154.11 10910.5 ) 0 
( -3509.93 -3165.35 10909.5 ) 0 
( -2324.1 -815.228 11119.4 ) 0 
( -4322.53 -1388.6 10934.5 ) 0 
( -4506.07 -3866.65 10784.2 ) 0 
( -2808.89 -3888.49 10581.6 ) 0 
( -2632.51 -1750.35 10949.4 ) 0 
( -4180.7 -41.197 10683.6 ) 0 
( -3859.68 -1721.64 11755.6 ) 0 
( -2980.94 -1245.06 11738.6 ) 0 
( -2976.49 -2531.89 11469.2 ) 0 
( -991.73 -3238.23 11297.3 ) 0 
( -2110.96 -2103.45 11727.6 ) 0 
( -2269.11 -201.448 11906.6 ) 0 
( -737.348 -4917.35 11447.4 ) 0 
( -3966.04 -3711.98 11611.3 ) 0 
( -4828.43 -4018.84 12013.4 ) 0 
( -2057.09 -4150.03 11186.2 ) 0 
( -9.14358 -1176.67 11415.9 ) 0 
( -1352.22 -7.53816 11558.3 ) 0 
( -4989.23 -2016 11336.2 ) 0 
( -294.078 -2499.14 11723.5 ) 0 
)
