FoamFile
{version 2.0; format ascii;class vectorField; location 0;object  v;}
350
(
( 5.06284e-06 -3.224e-06 1.15712e-06 )  
( 3.37228e-06 -2.96072e-06 3.71689e-07 )  
( 5.1507e-06 -1.34599e-06 1.44899e-06 )  
( 5.25451e-06 -1.37814e-06 -2.41033e-08 )  
( -0.000137918 -2.04372e-05 1.72496e-06 )  
( 5.05108e-06 -2.58505e-07 1.26966e-06 )  
( 6.48873e-06 -1.9975e-06 4.38974e-07 )  
( 6.99782e-06 -3.16536e-06 -6.50768e-07 )  
( 2.659e-06 -2.9965e-06 3.42458e-07 )  
( 5.1154e-06 -9.06314e-07 -6.48219e-07 )  
( 5.78191e-06 -1.97463e-06 1.68973e-06 )  
( 5.80373e-06 -8.12643e-07 2.33324e-06 )  
( 4.15834e-06 -1.78417e-06 1.70418e-07 )  
( 2.67221e-06 -6.15759e-06 1.66815e-07 )  
( 2.6722e-06 -2.85369e-06 2.49874e-06 )  
( 1.28567e-05 -4.57741e-06 -5.75529e-07 )  
( 4.06325e-06 -1.46876e-06 4.36535e-07 )  
( 4.49266e-06 -2.00501e-06 1.3707e-06 )  
( 4.18586e-06 -3.06494e-06 1.76572e-06 )  
( 5.68507e-06 -1.98038e-06 8.07461e-08 )  
( 6.76764e-06 -2.96196e-06 -3.63651e-07 )  
( 6.00598e-06 -2.33597e-06 1.9022e-06 )  
( 6.96491e-06 -3.47847e-06 6.32804e-09 )  
( 3.62768e-06 -2.06906e-06 2.47595e-06 )  
( 9.0581e-06 -3.03105e-06 1.22973e-06 )  
( 7.16175e-06 -1.51893e-06 2.43923e-06 )  
( 4.75754e-06 -1.69248e-06 -1.68555e-07 )  
( 1.12621e-05 -3.06988e-06 1.3106e-06 )  
( 1.00745e-05 -2.7674e-06 -1.65797e-06 )  
( 4.70822e-06 -1.51375e-06 1.72191e-06 )  
( 9.20131e-06 -2.85444e-06 2.98077e-06 )  
( 1.10753e-05 -6.0475e-07 2.6377e-06 )  
( 1.18933e-05 -3.97369e-06 3.91192e-06 )  
( 1.10425e-05 -3.07582e-06 9.97504e-07 )  
( 7.63358e-06 -3.77109e-06 1.47443e-06 )  
( 1.08122e-05 -2.8071e-06 1.07493e-06 )  
( 9.79812e-06 -1.56913e-06 2.25405e-06 )  
( 1.03536e-05 -1.57976e-06 -3.45931e-07 )  
( 1.2319e-05 -4.09395e-06 3.74751e-06 )  
( 9.04539e-06 -3.51685e-06 2.42808e-07 )  
( 9.75464e-06 -2.0648e-06 2.09744e-06 )  
( 1.15933e-05 -8.0637e-06 1.58605e-06 )  
( 6.43145e-06 -6.25696e-06 2.24266e-06 )  
( 8.44574e-06 -3.84009e-06 7.70149e-07 )  
( 6.63966e-06 -1.69137e-06 3.779e-06 )  
( 9.4419e-06 -4.17555e-06 2.05645e-06 )  
( 1.32684e-05 -2.6894e-06 -2.1347e-06 )  
( 1.25432e-05 -2.49315e-06 1.54871e-06 )  
( 1.23487e-05 -3.45788e-06 2.49952e-06 )  
( 1.05298e-05 -2.84135e-06 7.73379e-07 )  
( 1.12692e-05 -1.01095e-06 3.26219e-06 )  
( 9.78236e-06 -1.7883e-05 -8.19099e-06 )  
( 1.27771e-05 -3.24387e-06 -4.01522e-06 )  
( 1.20098e-05 -1.47901e-06 1.76076e-06 )  
( 1.29111e-05 -6.07635e-06 2.32249e-07 )  
( 9.10671e-06 -2.79012e-06 4.49867e-06 )  
( 1.23831e-05 -2.76468e-06 -7.39245e-07 )  
( 1.31359e-05 -1.02122e-06 -7.03149e-07 )  
( 1.50482e-05 -1.75113e-06 -1.49524e-08 )  
( 1.35776e-05 -4.16411e-06 -3.55861e-06 )  
( 1.29932e-05 -4.58786e-06 3.90584e-06 )  
( 1.27963e-05 -2.96757e-06 2.46642e-07 )  
( 1.43551e-05 -1.31037e-06 4.36613e-08 )  
( 1.48268e-05 -2.67838e-06 -2.33965e-06 )  
( 1.11552e-05 -6.52943e-06 -8.07337e-07 )  
( 1.30502e-05 -4.51395e-06 -1.19113e-07 )  
( 1.66027e-05 8.57651e-06 6.7537e-06 )  
( 1.32067e-05 -2.43037e-06 1.26929e-06 )  
( 1.03136e-05 9.10173e-07 -3.6956e-06 )  
( 1.38405e-05 -2.55724e-06 2.34703e-06 )  
( 1.36515e-05 -2.22052e-06 3.22087e-06 )  
( 1.41713e-05 9.66858e-07 2.34143e-06 )  
( 1.44216e-05 -3.94509e-06 -3.92617e-07 )  
( 1.62348e-05 -3.23991e-06 -3.83769e-06 )  
( 1.04855e-05 1.04074e-06 -1.83693e-06 )  
( 1.25227e-05 -5.26912e-06 -3.81014e-06 )  
( 1.23752e-05 -1.99444e-06 2.21579e-06 )  
( 1.55566e-05 1.03248e-06 2.98746e-06 )  
( 1.3462e-05 -1.53228e-06 4.9105e-07 )  
( 1.50582e-05 -1.80519e-06 3.8256e-06 )  
( 1.38476e-05 -2.29204e-06 1.23491e-06 )  
( 1.45952e-05 -3.36207e-06 6.245e-06 )  
( 1.21408e-05 -9.18142e-07 -7.17003e-06 )  
( 1.44652e-05 -4.76178e-07 -3.53355e-06 )  
( 1.47885e-05 -6.44915e-07 7.09719e-06 )  
( 1.5193e-05 -3.2871e-06 -5.76147e-06 )  
( 1.46725e-05 -2.93351e-06 -1.49407e-06 )  
( 1.39785e-05 -2.90899e-07 -2.35205e-06 )  
( 1.36127e-05 -2.36098e-06 -1.08429e-06 )  
( 1.32267e-05 -3.0812e-06 -1.84192e-05 )  
( 1.22728e-05 -2.4073e-06 1.68196e-06 )  
( 1.44381e-05 -2.82031e-07 -8.74302e-06 )  
( 1.41607e-05 -2.67249e-06 -7.07934e-06 )  
( 1.1288e-05 6.18927e-07 -4.89233e-06 )  
( 1.73412e-05 9.92514e-07 -3.57143e-06 )  
( 1.65717e-05 -3.53255e-07 -8.19345e-07 )  
( 1.60758e-05 -1.67809e-06 -4.29025e-06 )  
( 1.79845e-05 1.33261e-06 -1.29324e-05 )  
( 1.53154e-05 -1.16465e-06 -8.52748e-06 )  
( 1.3894e-05 1.46226e-06 -1.38955e-05 )  
( 1.40471e-05 -5.71684e-07 -6.81021e-06 )  
( 1.71431e-05 -8.77208e-07 8.7984e-06 )  
( 1.38398e-05 -9.66269e-07 -6.96824e-06 )  
( 1.47183e-05 4.7904e-07 -8.63168e-06 )  
( 1.6101e-05 -7.25916e-06 -7.97723e-06 )  
( 1.40503e-05 -1.56576e-06 -7.97912e-06 )  
( 9.27977e-06 2.29614e-06 -3.48849e-06 )  
( 1.79348e-05 -5.72036e-06 -6.57452e-06 )  
( 1.30026e-05 9.20861e-07 -1.3797e-05 )  
( 1.64171e-05 -5.56036e-06 -3.05485e-06 )  
( 1.25931e-05 3.22201e-06 -6.5138e-07 )  
( 1.43391e-05 2.26932e-06 -6.57034e-06 )  
( 1.42749e-05 -1.16156e-06 -6.39822e-06 )  
( 1.40829e-05 3.18025e-06 -4.19258e-06 )  
( 1.4995e-05 -4.59799e-06 -2.14785e-05 )  
( 1.07872e-05 2.64281e-07 -1.48237e-05 )  
( 1.36174e-05 4.25141e-06 -5.30394e-06 )  
( 2.12436e-05 1.18641e-06 -1.53405e-05 )  
( 1.40214e-05 2.58253e-06 -6.63163e-06 )  
( 7.24512e-06 -3.2055e-06 -1.76607e-05 )  
( 1.98791e-05 1.68153e-05 1.2092e-05 )  
( 1.00908e-05 -9.56775e-07 -8.28773e-06 )  
( 7.52286e-06 -1.35935e-06 -1.31062e-05 )  
( 1.22267e-05 9.71463e-07 -1.80955e-05 )  
( 1.04518e-05 -1.62606e-06 -1.11349e-05 )  
( 1.58122e-05 5.51595e-06 -3.04887e-05 )  
( 2.44855e-06 -6.9576e-07 -1.21642e-05 )  
( 1.13444e-05 -6.90216e-07 -1.15407e-05 )  
( 1.4007e-05 6.67905e-06 -1.63424e-05 )  
( 1.24632e-05 -3.7011e-06 -2.29694e-05 )  
( 5.79773e-06 -1.16477e-06 -2.97507e-05 )  
( -2.48569e-06 -1.0399e-06 -2.5046e-05 )  
( 6.98508e-06 -2.87532e-07 -9.21356e-06 )  
( 5.89283e-06 6.06755e-06 -1.83661e-05 )  
( 1.00724e-05 1.10608e-06 -2.1979e-05 )  
( 1.63005e-05 7.23728e-06 -1.89631e-05 )  
( 4.37419e-06 -4.2878e-06 -2.04186e-05 )  
( 1.47571e-05 2.46865e-06 -1.71217e-05 )  
( 3.66668e-06 1.42683e-06 -3.09342e-05 )  
( 1.39036e-06 2.69349e-06 -2.76387e-05 )  
( 2.64945e-07 1.17183e-06 -2.86168e-05 )  
( 1.16331e-05 3.02552e-06 -9.56819e-06 )  
( -4.0012e-07 -4.95856e-07 -3.76005e-05 )  
( 1.02309e-05 1.23392e-05 -2.38083e-05 )  
( -6.8131e-06 1.24075e-05 -2.71014e-05 )  
( 1.57061e-06 -3.05948e-06 -3.19704e-05 )  
( -1.16999e-05 2.50705e-06 -3.06694e-05 )  
( 6.67538e-06 5.22923e-06 -1.87428e-05 )  
( -1.64148e-07 -3.03786e-06 -2.92954e-05 )  
( 1.73437e-05 -1.68632e-06 -3.5296e-05 )  
( 2.99995e-06 5.95659e-06 -3.76974e-05 )  
( 1.13215e-05 7.9617e-06 -1.84742e-05 )  
( 9.90135e-06 6.09347e-06 -1.5471e-05 )  
( 6.29819e-06 -2.92357e-07 -1.59276e-05 )  
( 5.24664e-06 1.23561e-06 -4.89891e-05 )  
( 1.49087e-07 3.6312e-06 -4.28111e-05 )  
( 2.65641e-06 7.64012e-06 -2.50601e-05 )  
( 8.84427e-06 7.65207e-07 -3.77905e-05 )  
( 6.55862e-06 1.12384e-05 -2.64709e-05 )  
( 1.56254e-05 4.24677e-06 -1.48196e-05 )  
( 2.31378e-06 4.24344e-06 -3.63902e-05 )  
( 5.16066e-06 6.79577e-06 -3.98044e-05 )  
( 5.0205e-06 1.58002e-05 -2.81341e-05 )  
( 3.48279e-06 5.63818e-06 -2.82383e-05 )  
( 7.50474e-06 -9.89576e-06 -4.34778e-05 )  
( 7.77964e-06 7.83035e-06 -1.87434e-05 )  
( 5.24973e-06 -1.3883e-06 -4.38725e-05 )  
( 5.08057e-06 7.55312e-06 -2.46868e-05 )  
( 7.25181e-06 1.17671e-05 -5.37563e-05 )  
( 1.38822e-06 9.88364e-07 -3.22242e-05 )  
( -1.17491e-06 8.57054e-06 -3.95287e-05 )  
( 2.35657e-06 1.96039e-06 -5.22159e-05 )  
( 1.6976e-06 4.90434e-06 -4.48987e-05 )  
( 7.8528e-06 1.01332e-05 -3.99749e-05 )  
( 7.54229e-06 1.47174e-05 -3.45782e-05 )  
( -1.26055e-06 9.87754e-07 -5.66546e-05 )  
( 4.98458e-06 5.72227e-06 -5.12933e-05 )  
( 8.63498e-06 6.98395e-07 -4.45423e-05 )  
( 8.36259e-06 6.12784e-06 -4.48787e-05 )  
( -3.1211e-06 2.00422e-05 -6.37965e-05 )  
( 6.91299e-06 4.94061e-06 -5.3895e-05 )  
( 1.14196e-05 4.81468e-06 -6.41394e-05 )  
( -1.33658e-06 8.5158e-06 -6.9462e-05 )  
( -2.19232e-05 1.58387e-06 -3.01496e-05 )  
( -4.10665e-06 2.77712e-05 -8.18927e-06 )  
( 1.25604e-05 1.42569e-05 -6.0442e-05 )  
( 2.41895e-06 -2.43937e-06 -5.87793e-05 )  
( 1.6988e-06 6.22044e-07 -7.82478e-05 )  
( 1.2973e-06 1.5321e-05 -5.36721e-05 )  
( -2.41348e-06 7.31971e-06 -7.41216e-05 )  
( -3.52759e-06 3.98102e-06 -7.1706e-05 )  
( 2.03518e-06 1.40872e-05 -6.62737e-05 )  
( 1.28984e-05 1.96052e-05 -4.36339e-05 )  
( 1.64533e-05 6.6346e-06 -7.75023e-05 )  
( 2.63419e-05 1.24356e-05 -7.98203e-05 )  
( 9.6044e-08 6.38271e-06 -4.53928e-05 )  
( 6.05388e-07 4.12375e-06 -5.45005e-05 )  
( 8.46588e-06 1.3142e-05 -6.14292e-05 )  
( 1.36847e-07 7.4005e-06 -6.14708e-05 )  
( 9.64371e-06 3.37907e-06 -0.000111523 )  
( 2.97282e-06 7.53313e-06 -7.04634e-05 )  
( 1.09341e-05 9.2789e-06 -9.19456e-05 )  
( -2.7535e-06 2.16596e-05 -7.79082e-05 )  
( 9.23366e-06 1.00587e-05 -2.11126e-05 )  
( 1.35188e-05 5.69766e-06 -5.92739e-05 )  
( 3.62872e-06 5.35931e-06 -7.10434e-05 )  
( 1.5343e-05 2.18685e-06 -8.37603e-05 )  
( -1.07718e-05 1.78294e-05 -9.37737e-05 )  
( -1.54169e-05 -6.7055e-06 -9.54763e-05 )  
( -9.0092e-06 1.69142e-05 -7.06389e-05 )  
( 1.15207e-05 7.62161e-06 -8.74338e-05 )  
( -2.78135e-05 5.14591e-06 -4.04599e-05 )  
( -6.74147e-06 9.79909e-06 -7.71267e-05 )  
( 1.31313e-05 1.95371e-07 -7.22692e-05 )  
( 1.04188e-05 6.97771e-06 -8.082e-05 )  
( -2.33408e-06 7.1921e-06 -9.95128e-05 )  
( -1.17947e-05 2.86882e-05 -0.000106908 )  
( 5.23609e-06 2.88588e-05 -9.32161e-05 )  
( 2.02684e-05 1.75486e-06 -0.000128747 )  
( 1.05511e-05 3.03986e-06 -8.4183e-05 )  
( 1.35499e-05 1.3347e-05 -0.000104216 )  
( -3.95191e-06 4.47604e-06 -8.94263e-05 )  
( -7.91542e-06 5.18801e-06 -0.000116559 )  
( 1.02578e-05 1.41986e-05 -7.64941e-05 )  
( 4.0301e-06 2.52081e-05 -7.33332e-05 )  
( -2.43348e-06 1.41003e-05 -8.6611e-05 )  
( 1.63522e-05 9.58546e-06 -9.56609e-05 )  
( 8.87839e-06 1.54588e-06 -0.000109222 )  
( -1.19847e-05 5.28404e-06 -0.000103147 )  
( 1.06107e-05 1.18323e-05 -0.000104799 )  
( 2.05288e-05 -4.10711e-06 -0.000110643 )  
( 8.93193e-06 2.4855e-05 -0.000100068 )  
( -6.42067e-06 2.91037e-05 -8.52568e-05 )  
( -1.32225e-05 -7.70104e-06 -6.40858e-05 )  
( 1.24605e-05 1.42989e-05 -0.000103486 )  
( 5.89034e-06 1.17163e-05 -0.000124038 )  
( -1.66953e-05 1.72297e-05 -0.000115438 )  
( -2.16862e-05 -1.04805e-05 -0.000115303 )  
( 2.19458e-05 6.31632e-06 -0.000123842 )  
( 4.52445e-06 -4.04082e-06 -0.000120238 )  
( 1.20299e-05 3.01324e-05 -0.000117067 )  
( 5.93975e-06 2.04667e-06 -0.000147064 )  
( 1.32524e-06 -2.12815e-06 -0.000135604 )  
( 2.20084e-06 2.82703e-05 -0.000139702 )  
( 4.0335e-06 1.52032e-05 -0.00015252 )  
( 1.24481e-05 3.29689e-06 -0.000113612 )  
( -5.17973e-06 5.92558e-06 -0.00013541 )  
( -3.56611e-06 -3.9037e-06 -0.000108738 )  
( -1.42516e-06 -8.36717e-06 -0.000154447 )  
( 4.59661e-05 2.30045e-05 -9.09641e-05 )  
( -7.73126e-06 -1.18959e-06 -0.000159823 )  
( 9.38866e-06 1.60453e-05 -0.000107589 )  
( 5.47369e-06 1.05853e-05 -0.000160392 )  
( 3.59626e-07 1.16431e-05 -0.000146731 )  
( 2.42688e-06 -1.10053e-07 -0.000182075 )  
( 3.53737e-06 1.43121e-05 -0.000139882 )  
( -7.11241e-06 1.23934e-06 -0.000167416 )  
( 1.127e-05 2.54225e-06 -0.000150725 )  
( 1.25666e-05 2.5358e-05 -0.00014958 )  
( 4.34988e-06 6.4351e-06 -0.000184014 )  
( 1.00607e-05 2.65687e-05 -0.000130982 )  
( -1.4009e-05 1.74216e-05 -0.000166411 )  
( -5.13643e-07 9.7276e-06 -0.000115955 )  
( -5.86854e-06 -5.55813e-06 -0.000153651 )  
( 2.0332e-05 1.99943e-05 -0.000178986 )  
( -1.35073e-05 2.5766e-06 -0.000183017 )  
( 5.87834e-06 1.8599e-05 -0.0002113 )  
( -7.70942e-07 1.05076e-05 -0.000170531 )  
( 4.72738e-06 1.87769e-05 -0.00019257 )  
( 1.10703e-06 1.70626e-05 -0.000170094 )  
( -3.7265e-06 -1.6559e-05 -0.000196244 )  
( 1.0295e-06 2.83122e-05 -0.00017032 )  
( 2.05054e-06 8.45668e-06 -0.000197841 )  
( -2.99403e-06 6.68282e-07 -0.000175641 )  
( 1.02525e-05 6.68623e-05 -0.000152235 )  
( 2.85788e-06 2.00269e-06 -0.000148247 )  
( -4.59709e-06 9.23706e-06 -0.000151345 )  
( -1.17102e-05 -6.66667e-06 -0.000165528 )  
( 8.99047e-06 7.77404e-06 -0.000187427 )  
( -4.6253e-06 -5.66711e-06 -0.000181679 )  
( -2.35596e-06 2.19456e-06 -0.000171328 )  
( -1.42485e-05 -2.68194e-05 -0.000206711 )  
( 3.02545e-06 -3.09871e-08 -0.000203885 )  
( -1.26795e-05 9.92561e-06 -0.00020134 )  
( 3.40769e-06 -9.16343e-06 -0.000208123 )  
( -1.7498e-05 2.32279e-06 -0.000151217 )  
( -6.80365e-06 -8.12881e-06 -0.000184101 )  
( 3.28287e-06 4.00181e-06 -0.000178963 )  
( -9.82778e-06 -4.18091e-06 -0.000180975 )  
( 1.159e-05 -2.92251e-05 -0.000186453 )  
( -2.04985e-06 9.26313e-06 -0.000187416 )  
( -4.18509e-06 -1.43614e-05 -0.000182992 )  
( 8.9353e-07 1.1736e-05 -0.000210264 )  
( -1.25977e-06 -5.67355e-06 -0.000185961 )  
( -5.55312e-06 2.02933e-06 -0.000197682 )  
( 3.33391e-06 -4.83557e-06 -0.000196721 )  
( -8.23823e-06 -1.71232e-05 -0.000202671 )  
( 5.0161e-06 -1.12444e-05 -0.000203092 )  
( -1.66457e-05 -8.19074e-06 -0.000193398 )  
( -1.75557e-05 -8.82651e-07 -0.000180908 )  
( -9.35371e-06 -1.77477e-05 -0.000208662 )  
( -1.57331e-05 4.74973e-06 -0.000218712 )  
( -1.47421e-05 -1.60142e-05 -0.000207632 )  
( -1.06188e-05 1.12177e-05 -0.000195495 )  
( 5.18643e-06 2.92966e-06 -0.000213726 )  
( -5.28122e-06 3.4899e-06 -0.000208828 )  
( 3.69268e-06 -1.52809e-05 -0.000221991 )  
( -6.63153e-06 -7.33496e-06 -0.00019554 )  
( -1.35041e-05 -6.05225e-06 -0.000207119 )  
( -2.13319e-05 9.38902e-06 -0.000222676 )  
( -1.35052e-05 1.45954e-05 -0.000229484 )  
( -2.67533e-06 3.8163e-06 -0.000213701 )  
( -2.38772e-05 -1.52912e-05 -0.000250294 )  
( -1.26782e-05 -1.2621e-05 -0.000234499 )  
( -6.21821e-06 -1.57308e-05 -0.000209615 )  
( -1.22331e-06 4.80093e-06 -0.000203157 )  
( -2.19245e-06 7.49239e-06 -0.000217649 )  
( -5.76736e-06 -1.72483e-05 -0.000198303 )  
( -1.02884e-05 9.84239e-06 -0.00020587 )  
( 1.14754e-05 -1.25137e-05 -0.000193907 )  
( 1.32344e-06 -1.42896e-05 -0.00021799 )  
( -1.09586e-05 -7.34206e-06 -0.00021772 )  
( -1.54608e-05 -7.88419e-06 -0.00023921 )  
( -1.40076e-05 1.07831e-05 -0.000220235 )  
( -1.40606e-05 -6.65814e-05 -0.000211888 )  
( -9.78493e-06 -5.52523e-07 -0.000233998 )  
( 1.97491e-07 3.88012e-06 -0.000212582 )  
( -5.04958e-06 2.78175e-06 -0.000215297 )  
( -7.48461e-06 8.17984e-07 -0.00021913 )  
( 1.60093e-06 -2.88718e-05 -0.00020138 )  
( 1.51147e-05 -2.43992e-05 -0.000217988 )  
( 1.70816e-05 -5.80392e-06 -0.000219657 )  
( -1.49365e-06 -4.86244e-06 -0.00023787 )  
( -1.57575e-05 -7.18505e-06 -0.00021657 )  
( -2.88479e-06 -1.42453e-05 -0.00022536 )  
( -1.51954e-05 -3.32487e-06 -0.000243057 )  
( 1.93018e-05 -4.24675e-06 -0.000227001 )  
( 9.15247e-06 -7.91287e-06 -0.000232675 )  
( -1.72916e-06 -2.274e-05 -0.000215744 )  
( -8.24446e-07 -9.22969e-06 -0.000202496 )  
( -3.26522e-05 2.22948e-05 -0.000253966 )  
( -8.53938e-06 -9.66611e-06 -0.000240071 )  
( -2.2929e-05 -1.5954e-05 -0.00023282 )  
( -3.53366e-06 -7.03656e-05 -0.000227332 )  
( -1.68232e-05 -3.26012e-05 -0.00023158 )  
( -7.82341e-06 1.75369e-05 -0.000239306 )  
( -7.12376e-06 5.04842e-06 -0.000232746 )  
( -1.29689e-05 -1.53007e-05 -0.00024066 )  
( -1.38412e-05 2.41981e-05 -0.000207317 )  
( 1.30634e-05 2.03748e-05 -0.000214646 )  
)
