FoamFile
{version 2.0; format ascii;class Cloud<passiveParticle>; location 0;object  positions;}
350
(
( -1605.6 -4279.6 498.571 ) 0 
( -364.508 -4453.32 496.095 ) 0 
( -3769.54 -4064.08 498.7 ) 0 
( -2389.91 -1176.51 497.29 ) 0 
( -409.317 -2672.22 499.667 ) 0 
( -1408.44 -2713.32 497.56 ) 0 
( -1529.34 -559.492 496.743 ) 0 
( -4686.19 -1117.75 498.425 ) 0 
( -4619.28 -2192.82 499.218 ) 0 
( -3385.25 -191.814 496.681 ) 0 
( -3313.46 -4954.73 498.632 ) 0 
( -1533.07 -1705.54 499.619 ) 0 
( -4402.32 -159.208 497.812 ) 0 
( -2394.3 -57.6916 499.692 ) 0 
( -3624.95 -2287.11 498.851 ) 0 
( -1301.72 -64.3436 1332.95 ) 0 
( -4336.82 -4886.74 498.538 ) 0 
( -2628.24 -2356.55 499.085 ) 0 
( -888.273 -3567.25 498.57 ) 0 
( -2213.22 -3306.55 498.229 ) 0 
( -2653.82 -4203.74 499.631 ) 0 
( -3388.8 -1194.75 497.947 ) 0 
( -4064.02 -1617.48 1098.95 ) 0 
( -4206.54 -3159.71 498.526 ) 0 
( -1531.09 -4894.6 1281.83 ) 0 
( -506.606 -1608.56 498.01 ) 0 
( -4774.98 -3981.19 498.298 ) 0 
( -661.875 -736.438 960.276 ) 0 
( -3907.28 -638.711 1219.34 ) 0 
( -3210.14 -3236.17 497.509 ) 0 
( -3156.63 -2649.78 1302.72 ) 0 
( -1233.08 -2949.8 1732.44 ) 0 
( -1741.38 -3688.73 1292.51 ) 0 
( -1772.79 -1126.79 1279.02 ) 0 
( -4741.41 -3405.22 1314.46 ) 0 
( -3289.83 -4381.22 1315.46 ) 0 
( -2883.51 -1693.48 1202 ) 0 
( -2897.84 -694.231 1208.67 ) 0 
( -349.273 -3281.21 1290.45 ) 0 
( -4699.88 -1798.46 1847.25 ) 0 
( -969.879 -2151.7 1194.88 ) 0 
( -4910.41 -529.887 1273.77 ) 0 
( -2072.71 -2679.19 1263.89 ) 0 
( -4296.28 -4305.53 1312.38 ) 0 
( -4167.16 -2586.32 1314.68 ) 0 
( -5.68318 -2345.55 1365.56 ) 0 
( -3420.87 -1146.84 1927.42 ) 0 
( -2339.9 -4419.41 1620.57 ) 0 
( -906.057 -1315.9 1735.96 ) 0 
( -2731.5 -3553.35 1314.59 ) 0 
( -851.806 -4147.25 1310.4 ) 0 
( -4373.4 -865.595 2072.03 ) 0 
( -3591.38 -169.589 2041.33 ) 0 
( -1690.92 -1939.56 1851.35 ) 0 
( -586.919 -375.252 1954.53 ) 0 
( -3728.64 -3483.61 1315.21 ) 0 
( -2241.54 -99.6903 1667.63 ) 0 
( -2298.31 -3216.38 2147.71 ) 0 
( -2735.64 -460.216 2469.99 ) 0 
( -2269.99 -4497.49 2635.91 ) 0 
( -120.652 -1172.34 2333.49 ) 0 
( -4277.33 -3737.68 2134.64 ) 0 
( -1631.93 -2613.74 2583.22 ) 0 
( -3824.84 -4628.14 2131.13 ) 0 
( -4822.7 -4577.15 2127.08 ) 0 
( -1535.26 -642.658 2119.03 ) 0 
( -627.119 -2190.15 2133.17 ) 0 
( -2611.48 -2272.97 2048.63 ) 0 
( -261.315 -4566.33 2170.52 ) 0 
( -2436.1 -1291.39 2005.15 ) 0 
( -1463.89 -4295.86 2083.37 ) 0 
( -670.209 -3654.86 2159.76 ) 0 
( -3037.26 -4018.42 2211.08 ) 0 
( -1006.73 -203.387 2843.33 ) 0 
( -3051 -1657.46 2702.21 ) 0 
( -4336.2 -28.5628 2690.66 ) 0 
( -3611.49 -2121.8 2017.04 ) 0 
( -708.621 -2910.19 2824.9 ) 0 
( -1594.93 -3592.26 2777.65 ) 0 
( -1045.62 -1269.75 2724.71 ) 0 
( -1951.89 -1688.14 2783.5 ) 0 
( -3395.37 -3086.11 2169.67 ) 0 
( -3703.33 -789.782 2814.93 ) 0 
( -1926.85 -705.651 3034.71 ) 0 
( -164.385 -1900.28 3015.86 ) 0 
( -2569.44 -3623.38 3017.22 ) 0 
( -2548.49 -2626.11 2980.43 ) 0 
( -1109.37 -2108.28 3267 ) 0 
( -165.688 -630.877 3171.44 ) 0 
( -4480.26 -968.367 3416.18 ) 0 
( -4337.28 -2751.92 2283.94 ) 0 
( -1579.48 -4909.66 3228.92 ) 0 
( -4185.5 -1655.94 2690.64 ) 0 
( -873.084 -4283.97 2907.11 ) 0 
( -1239.82 -507.712 3765.87 ) 0 
( -2851.69 -886.163 3365.83 ) 0 
( -3034.27 -4467.83 3277.59 ) 0 
( -2153.01 -4234.75 3686.28 ) 0 
( -2343.14 -90.7654 3702.46 ) 0 
( -701.566 -4920.08 3703.78 ) 0 
( -664.236 -1321.73 3691.7 ) 0 
( -3560.13 -2481.75 2948.57 ) 0 
( -2571.45 -1821.72 3571.52 ) 0 
( -3645 -415.485 3746.88 ) 0 
( -4459.31 -3242.23 3143.69 ) 0 
( -3137.69 -3066.25 3656.46 ) 0 
( -267.429 -3696.11 3440.6 ) 0 
( -4309.93 -4323.59 2948.21 ) 0 
( -3626.41 -1505.51 3504.01 ) 0 
( -3566.99 -3656.25 2974.87 ) 0 
( -803.517 -2882.72 3817.99 ) 0 
( -1753.37 -2941.44 3517.23 ) 0 
( -1671.94 -1406.09 3700.04 ) 0 
( -3963.37 -3996.78 3827.13 ) 0 
( -4921.95 -4390.23 3733.6 ) 0 
( -4579.83 -107.524 3913 ) 0 
( -1232.3 -3776.31 3689.36 ) 0 
( -3000.25 -3938.74 4123.42 ) 0 
( -124.437 -2062.4 4090.7 ) 0 
( -3030.11 -1274.77 4270.91 ) 0 
( -4397.57 -2269.13 3451.45 ) 0 
( -1482.94 -2255.38 4192.22 ) 0 
( -1159.45 -1383.92 4557.18 ) 0 
( -157.928 -4279.76 4243.62 ) 0 
( -51.3814 -3290.61 4329.39 ) 0 
( -3587.96 -4659.43 4485.76 ) 0 
( -2995.79 -307.95 4520.17 ) 0 
( -2419.03 -2601.35 4176.82 ) 0 
( -1161 -4428.53 4441.45 ) 0 
( -4783.21 -3457.93 4061.4 ) 0 
( -3030.86 -3153.71 4738.15 ) 0 
( -684.529 -125.648 4520.9 ) 0 
( -187.854 -1145.88 4552.29 ) 0 
( -3914.6 -3018.16 4283.49 ) 0 
( -3337.63 -2216.17 4139.89 ) 0 
( -2309.09 -4430.51 4652.6 ) 0 
( -2068.74 -780.022 4369.99 ) 0 
( -1979.49 -3485.87 4322.91 ) 0 
( -3107.29 -4068.71 5131.74 ) 0 
( -3979.43 -366.49 4686.96 ) 0 
( -4217.6 -1358.98 4295.44 ) 0 
( -1008.41 -3456.57 4609.25 ) 0 
( -3103.66 -2229.57 5110.39 ) 0 
( -1700.26 -3862.38 5203.33 ) 0 
( -38.3649 -358.211 5245.12 ) 0 
( -2647.92 -1003.8 5152.71 ) 0 
( -3616.12 -1247.61 5084.39 ) 0 
( -4204.32 -3833.29 4783.61 ) 0 
( -1393.81 -560.997 5072.04 ) 0 
( -4575.32 -4767.77 4590.6 ) 0 
( -4060.22 -2189.99 4826.07 ) 0 
( -1847.37 -2746.79 4982.94 ) 0 
( -705.49 -2518.36 4762.22 ) 0 
( -2215.98 -1733.66 4625.92 ) 0 
( -1809.89 -42.2076 5816.8 ) 0 
( -1833.71 -1204.5 5696.19 ) 0 
( -1314.88 -1981.53 5343.28 ) 0 
( -3932.28 -4555.13 5417.94 ) 0 
( -2468.42 -3322.89 5546.72 ) 0 
( -785.604 -4239.13 5348.35 ) 0 
( -4601.53 -999.722 5144.11 ) 0 
( -4681.78 -2964.72 4922.49 ) 0 
( -1401.78 -3117.56 5796.52 ) 0 
( -42.9315 -1964.94 5264.5 ) 0 
( -4969.23 -4414.6 5437.61 ) 0 
( -395.649 -3319.29 5386.58 ) 0 
( -4996.75 -2006.25 5116.59 ) 0 
( -682.073 -1212.34 5417.73 ) 0 
( -862.951 -352.376 5891.06 ) 0 
( -3347.9 -362.028 5461.82 ) 0 
( -4091.4 -787.253 5977.01 ) 0 
( -4338.71 -3714 5770.48 ) 0 
( -2262.42 -2105.23 5633.76 ) 0 
( -636.225 -2482.9 5878.37 ) 0 
( -2083.64 -4693.32 5600.85 ) 0 
( -3787.96 -2985.91 5364.94 ) 0 
( -4231.35 -1740.4 5700.92 ) 0 
( -3051.26 -4778.75 5833.1 ) 0 
( -4905.52 -257.127 5739.72 ) 0 
( -3367.9 -3638.57 5994.49 ) 0 
( -4958.83 -2593.42 5923.72 ) 0 
( -1591.51 -708.265 6529.3 ) 0 
( -4941.47 -3405.5 6505.26 ) 0 
( -2486.83 -4040.98 6242.09 ) 0 
( -1090.59 -1567.2 6258.12 ) 0 
( -829.889 -3361.11 6578.52 ) 0 
( -3104.57 -2656.18 6013.93 ) 0 
( -3286.53 -90.7647 6493.94 ) 0 
( -2172.96 -2800.27 6345.86 ) 0 
( -4093.65 -2910.79 6311.7 ) 0 
( -2323.42 -1507.66 6512.26 ) 0 
( -4798.52 -4391.47 6420.99 ) 0 
( -1425.72 -4111.11 6129.58 ) 0 
( -4.89451 -1899.44 6385.57 ) 0 
( -300.488 -849.856 6549.31 ) 0 
( -3800.69 -4443.32 6402.47 ) 0 
( -3076.43 -1570.33 5859.99 ) 0 
( -531.389 -4313.29 6524.54 ) 0 
( -2564.87 -641.048 6078.79 ) 0 
( -556.561 -1597 7161.06 ) 0 
( -3702.71 -2012.03 6502.26 ) 0 
( -349.389 -2566.22 7044.04 ) 0 
( -2890.27 -4754.73 6819.22 ) 0 
( -1278.07 -2469.85 6644.7 ) 0 
( -4512.83 -1436.55 6609.5 ) 0 
( -3412.01 -1068.58 6656 ) 0 
( -3338.88 -439.697 7430.45 ) 0 
( -2922.53 -3271.01 6808.98 ) 0 
( -3666.86 -2729.32 7197.03 ) 0 
( -4091.98 -3668.21 6961.81 ) 0 
( -2421.79 -396.791 7036.48 ) 0 
( -1777.75 -3548.95 6877.42 ) 0 
( -2825.76 -2280.36 6895.83 ) 0 
( -4211.12 -549.649 6956.75 ) 0 
( -4716.89 -1310.33 7579.27 ) 0 
( -4487.66 -4492.1 7364.21 ) 0 
( -2562.27 -4000.36 7388.76 ) 0 
( -2002.65 -2653.09 7319.44 ) 0 
( -1819.28 -790.557 7728.59 ) 0 
( -2776.3 -1323.34 7384.13 ) 0 
( -446.576 -3450.08 7496.91 ) 0 
( -4593.17 -2361.63 6979.17 ) 0 
( -2825.6 -3123.28 7792.41 ) 0 
( -3777.78 -1609.03 7413.34 ) 0 
( -1873.93 -4543.74 6909.47 ) 0 
( -329.278 -4442.69 7502.81 ) 0 
( -4949.48 -339.068 7595.71 ) 0 
( -1553.44 -1556.15 7144.91 ) 0 
( -3510.64 -4308.35 7461.57 ) 0 
( -2116.29 -1854.44 7915 ) 0 
( -944.848 -601.119 7283.73 ) 0 
( -3962.04 -886.043 8078.42 ) 0 
( -1299.81 -4292.26 7688.06 ) 0 
( -4712.49 -3172.59 7567.94 ) 0 
( -3067.72 -2155.34 7856.03 ) 0 
( -1116.68 -2312.11 7630.8 ) 0 
( -2151.5 -4794.51 7835.18 ) 0 
( -3779.64 -3444.61 7885.58 ) 0 
( -1059.03 -1384.41 7998.56 ) 0 
( -170.143 -946.58 7811.51 ) 0 
( -1393.78 -3300.9 7772.96 ) 0 
( -306.832 -149.741 8396.88 ) 0 
( -3018.62 -4134.3 8312.96 ) 0 
( -2053.66 -3885.73 8241.36 ) 0 
( -1971.04 -1177.78 8636.41 ) 0 
( -323.535 -2677.18 8118.41 ) 0 
( -4831.45 -3972.09 8156.76 ) 0 
( -4251.42 -2358.58 7917.39 ) 0 
( -653.77 -3913.51 8356.63 ) 0 
( -2714.25 -702.501 8165.39 ) 0 
( -353.695 -1793.68 8585.22 ) 0 
( -2047.4 -2769.64 8311.27 ) 0 
( -4927.72 -4912.43 8480.5 ) 0 
( -3547.51 -2713.42 8531.14 ) 0 
( -1577.47 -185.558 9358.47 ) 0 
( -4707.7 -231.5 8563.23 ) 0 
( -2144.31 -2110.78 9075.15 ) 0 
( -1225.73 -529.495 8488.81 ) 0 
( -2882.02 -1584.82 8654 ) 0 
( -2353.35 -4527.1 8946.04 ) 0 
( -3471.28 -309.119 8730.47 ) 0 
( -4449.04 -3143.22 8563.16 ) 0 
( -4857.39 -1773.3 8453.98 ) 0 
( -1263.16 -2207.84 8613.73 ) 0 
( -3866.82 -1739.08 8599 ) 0 
( -195.931 -890.282 9064.1 ) 0 
( -3217.31 -4178.02 9306.36 ) 0 
( -461.155 -3738.7 9321.74 ) 0 
( -4286.54 -2404.08 9216.07 ) 0 
( -2725.49 -769.725 9210.56 ) 0 
( -1409.64 -4200.41 8942.29 ) 0 
( -4651.64 -3824.16 9266.39 ) 0 
( -3772.55 -3348.81 9268.48 ) 0 
( -373.14 -4756.95 8813.09 ) 0 
( -1265.77 -3219.37 8760.09 ) 0 
( -2765.93 -3285.85 8776.68 ) 0 
( -3968.25 -4165.01 8621.83 ) 0 
( -3053.92 -2422.02 9349.74 ) 0 
( -4282.24 -970.74 9083.2 ) 0 
( -1090.29 -1335.41 9080.24 ) 0 
( -534.997 -2643.9 9141.58 ) 0 
( -2020.46 -2671.41 9893.08 ) 0 
( -841.577 -693.273 9804.6 ) 0 
( -479.34 -4811.33 9805.42 ) 0 
( -3754.31 -2685.06 10014.6 ) 0 
( -4157.15 -31.8775 9402.96 ) 0 
( -3428.1 -515.19 9901.15 ) 0 
( -1151.53 -3143.76 9749.53 ) 0 
( -2905.73 -3318.91 9765.76 ) 0 
( -2006.95 -3529.03 9379.8 ) 0 
( -3459.57 -1405.31 9448.63 ) 0 
( -2370.85 -370.684 10055.8 ) 0 
( -2220.58 -4355.94 9921.75 ) 0 
( -1900.8 -1144.71 9632.66 ) 0 
( -2652.47 -1725.51 9943.59 ) 0 
( -1865.66 -3536.08 10370.1 ) 0 
( -2854.6 -2578.05 10435.3 ) 0 
( -4181.81 -1782.12 10026.4 ) 0 
( -1208.76 -2131.54 9672.57 ) 0 
( -287.109 -1747.03 9581.48 ) 0 
( -1782.37 -1814.64 10427.3 ) 0 
( -4776.98 -4732.75 10364.9 ) 0 
( -4371.52 -801.647 10063.9 ) 0 
( -4082.46 -4559.2 9633.8 ) 0 
( -4611.14 -3198.68 10048.1 ) 0 
( -1200.19 -4128.01 9916.52 ) 0 
( -1530.15 -851.211 10512.9 ) 0 
( -1144.92 -2571.36 10568.4 ) 0 
( -146.72 -2534.25 10534.6 ) 0 
( -3057.89 -80.0247 10721.1 ) 0 
( -3170.44 -4713.93 10148.5 ) 0 
( -1415.81 -4964.29 10419.5 ) 0 
( -3681.51 -4406.71 10950.8 ) 0 
( -723.169 -586.451 11039.9 ) 0 
( -3406.48 -1335.4 10471.8 ) 0 
( -491.116 -3579.44 10359.8 ) 0 
( -3710.74 -3795.53 10160.2 ) 0 
( -2036.2 -2761.7 10978.7 ) 0 
( -185.796 -4517.84 10715.1 ) 0 
( -4979.27 -2275.43 10370.7 ) 0 
( -3726.14 -2189.34 10882 ) 0 
( -238.755 -1201.62 10418.1 ) 0 
( -1505.04 -1407.52 11342.9 ) 0 
( -2375.27 -4963.89 10700.3 ) 0 
( -4463.72 -2874.94 10982.4 ) 0 
( -4995.26 -4739.25 11340.4 ) 0 
( -3650.09 -708.417 11224.6 ) 0 
( -655.364 -1848.92 11055.4 ) 0 
( -1096.25 -4154.1 10910.4 ) 0 
( -3509.91 -3165.34 10909.3 ) 0 
( -2324.11 -815.216 11119.2 ) 0 
( -4322.52 -1388.6 10934.3 ) 0 
( -4506.04 -3866.64 10784 ) 0 
( -2808.89 -3888.49 10581.5 ) 0 
( -2632.5 -1750.33 10949.2 ) 0 
( -4180.7 -41.1993 10683.5 ) 0 
( -3859.68 -1721.64 11755.4 ) 0 
( -2980.93 -1245.05 11738.4 ) 0 
( -2976.49 -2531.86 11469 ) 0 
( -991.725 -3238.22 11297.2 ) 0 
( -2110.97 -2103.42 11727.4 ) 0 
( -2269.13 -201.454 11906.4 ) 0 
( -737.358 -4917.34 11447.2 ) 0 
( -3966.03 -3711.95 11611.1 ) 0 
( -4828.41 -4018.77 12013.2 ) 0 
( -2057.08 -4150.02 11186.1 ) 0 
( -9.14216 -1176.66 11415.7 ) 0 
( -1352.24 -7.53473 11558.1 ) 0 
( -4989.25 -2015.99 11336 ) 0 
( -294.103 -2499.14 11723.3 ) 0 
)
