/*--------------------------------*- C++ -*----------------------------------*\
  =========                 |
  \\      /  F ield         | OpenFOAM: The Open Source CFD Toolbox
   \\    /   O peration     | Website:  https://openfoam.org
    \\  /    A nd           | Version:  9
     \\/     M anipulation  |
\*---------------------------------------------------------------------------*/
FoamFile
{
    format      ascii;
    class       surfaceScalarField;
    location    "9000";
    object      phi;
}
// * * * * * * * * * * * * * * * * * * * * * * * * * * * * * * * * * * * * * //

dimensions      [0 3 -1 0 0 0 0];

internalField   nonuniform List<scalar> 
1436
(
-1936.24
-684.801
3.08763e+07
59.1739
3.07013e+07
-1152.04
3.15468e+07
3.07579e+07
-1918.06
-326.514
3.08786e+07
479.798
3.06989e+07
-1202.68
3.15477e+07
3.07572e+07
-2061.9
617.616
3.088e+07
739.308
3.06961e+07
-1419.94
3.15497e+07
3.07565e+07
-2416.47
577.411
3.08819e+07
1688.22
3.0692e+07
-1636.19
3.1552e+07
3.07566e+07
-2391.09
1003.13
3.08833e+07
1843.99
3.06878e+07
-1943.79
3.15549e+07
3.07565e+07
-2193.93
1614.85
3.08838e+07
2094.86
3.06835e+07
-2441.35
3.1559e+07
3.07561e+07
-2640.25
2813.53
3.08837e+07
2513.99
3.06784e+07
-3599.72
3.15654e+07
3.07551e+07
-2985.88
4084.23
3.08826e+07
4410.44
3.0671e+07
-4357.7
3.15738e+07
3.07551e+07
-5028.52
3762.42
3.08838e+07
5905.71
3.066e+07
-4464.92
3.1582e+07
3.07565e+07
-6863.09
4248.31
3.08864e+07
6302.71
3.06469e+07
-4328.97
3.15906e+07
3.07585e+07
-11995.5
2842.61
3.08956e+07
7206.07
3.06277e+07
-4428.67
3.15979e+07
3.07613e+07
-16313.3
2375.19
3.09095e+07
11060.3
3.06003e+07
-3386.65
3.16037e+07
3.0769e+07
-19490.4
2703.91
3.09263e+07
14515.2
3.05663e+07
-4044.82
3.16104e+07
3.07794e+07
-22228.6
3425.42
3.09451e+07
17578.9
3.05265e+07
-4456.56
3.16183e+07
3.07926e+07
-30419.7
2528.76
3.0973e+07
19435.3
3.04766e+07
-4453.29
3.16253e+07
3.08075e+07
-35117.1
1685.99
3.10065e+07
20862.6
3.04206e+07
-4164.77
3.16311e+07
3.08242e+07
-38310.4
-603.382
3.10454e+07
24619.5
3.03577e+07
-3602.11
3.16341e+07
3.08453e+07
-42325.2
856.162
3.10868e+07
29448.3
3.02859e+07
-3827.71
3.16388e+07
3.08709e+07
-43311.5
1228.45
3.11289e+07
31850.3
3.02108e+07
-4118.02
3.16441e+07
3.08986e+07
-43267.9
1790.75
3.11704e+07
33685.6
3.01338e+07
-4329.56
3.16503e+07
3.0928e+07
-41062.6
1692.08
3.12098e+07
35859
3.00569e+07
-4823.57
3.16568e+07
3.0959e+07
-37253.4
1431.46
3.12456e+07
34536.3
2.99851e+07
-4691.94
3.16629e+07
3.09888e+07
-33788
1125.59
3.12782e+07
30971.9
2.99203e+07
-4899.97
3.16689e+07
3.10149e+07
-29635.9
1914.68
3.1306e+07
27784.5
2.98629e+07
-4798.65
3.16756e+07
3.10379e+07
-21738.3
1876.31
3.13258e+07
21076.7
2.98201e+07
-4776.76
3.16823e+07
3.10542e+07
-21253.8
1191.95
3.13459e+07
21060.9
2.97778e+07
-3872.65
3.16874e+07
3.10714e+07
-15955.7
599.405
3.13613e+07
19045.5
2.97428e+07
-2698.26
3.16907e+07
3.10877e+07
-11060.5
872.712
3.13714e+07
18531.7
2.97132e+07
-1995.38
3.16935e+07
3.11043e+07
-7775.61
2030.68
3.13772e+07
16623.3
2.96888e+07
-2061.44
3.16976e+07
3.11188e+07
-4723.9
1640.1
3.13803e+07
14734.9
2.96693e+07
-465.531
3.16997e+07
3.11331e+07
-1865.84
1143.4
3.1381e+07
14092.2
2.96534e+07
1678.92
3.16992e+07
3.11489e+07
5576.33
1887
3.13735e+07
9490.41
2.96495e+07
1496.39
3.16996e+07
3.11599e+07
8208.25
5656.83
3.13597e+07
9120.7
2.96486e+07
704.16
3.17045e+07
3.11697e+07
12412.5
6547.16
3.13407e+07
7404.59
2.96536e+07
1241.21
3.17098e+07
3.11783e+07
15558.3
7011.82
3.13181e+07
7223.1
2.96619e+07
1771.27
3.17151e+07
3.11873e+07
16829.3
8994.43
3.12923e+07
5834.7
2.96729e+07
1679.3
3.17224e+07
3.11948e+07
17472.7
6534.96
3.12683e+07
1489.2
2.96889e+07
1129.31
3.17278e+07
3.11975e+07
17952.6
4743.52
3.12456e+07
-1469.17
2.97083e+07
49.342
3.17325e+07
3.1196e+07
19354.3
5081.1
3.12212e+07
-4108.96
2.97318e+07
-793.944
3.17384e+07
3.11911e+07
20246.8
4359.15
3.11966e+07
-6495.9
2.97585e+07
-2134.4
3.17449e+07
3.11825e+07
21069.2
1849.54
3.11736e+07
-7374.28
2.9787e+07
-2315.88
3.1749e+07
3.11728e+07
21740.2
-709.528
3.11526e+07
-6095.93
2.98148e+07
-2465.64
3.17508e+07
3.11643e+07
21977.3
-2853.2
3.11335e+07
-7294.58
2.98441e+07
-4229.77
3.17522e+07
3.11527e+07
22707.6
-4419.11
3.11152e+07
-10283.7
2.98771e+07
-5711.81
3.17535e+07
3.11367e+07
22143.1
-6841.3
3.10999e+07
-10303.9
2.99095e+07
-6300.93
3.17529e+07
3.11201e+07
23784.9
-6999.62
3.10831e+07
-11108.4
2.99444e+07
-6283.87
3.17522e+07
3.11027e+07
25880.7
-7332.74
3.10646e+07
-14171.1
2.99844e+07
-7500.78
3.17524e+07
3.10811e+07
28148.5
-6851.99
3.10433e+07
-16551.3
3.00291e+07
-6749.7
3.17523e+07
3.10578e+07
29016.8
-7010.16
3.10213e+07
-16793.2
3.0075e+07
-5917.01
3.17512e+07
3.10351e+07
30544.3
-6510.57
3.09972e+07
-18506.7
3.0124e+07
-4884.39
3.17495e+07
3.10117e+07
32114.2
-5877.04
3.0971e+07
-21101.1
3.01772e+07
-5383.24
3.1749e+07
3.09852e+07
35735
-5076.49
3.09403e+07
-24060.4
3.0237e+07
-5484.69
3.17495e+07
3.09556e+07
35837.5
-5652.42
3.09101e+07
-22439
3.02953e+07
-5543.58
3.17493e+07
3.09277e+07
38058.7
-3069.13
3.08752e+07
-21959.5
3.03553e+07
-5380.32
3.17517e+07
3.09003e+07
39043.7
-3104.66
3.08392e+07
-23278.3
3.04176e+07
-6659.48
3.17552e+07
3.08704e+07
41835.8
-118.618
3.07975e+07
-25322.4
3.04848e+07
-7732.34
3.17628e+07
3.08373e+07
41913.5
-347.126
3.07559e+07
-23731.6
3.05504e+07
-7990.09
3.17705e+07
3.08056e+07
41496
-656.052
3.07151e+07
-22410.7
3.06143e+07
-8539.12
3.17784e+07
3.07747e+07
40566
597.189
3.06739e+07
-20705.8
3.06756e+07
-7690.28
3.17866e+07
3.07463e+07
39316
-1156.47
3.06358e+07
-22729.6
3.07377e+07
-8694.06
3.17942e+07
3.07148e+07
39509.3
-2062.58
3.05983e+07
-21873.7
3.0799e+07
-9142.94
3.18013e+07
3.06838e+07
38921.6
-1242.06
3.05606e+07
-21951.4
3.08599e+07
-8676.01
3.18087e+07
3.06532e+07
37885.4
-698.368
3.05235e+07
-23799.9
3.09216e+07
-8217.03
3.18162e+07
3.06212e+07
37281.9
1363.42
3.04848e+07
-24657.4
3.09835e+07
-7971.54
3.18255e+07
3.05885e+07
37076.1
968.52
3.04468e+07
-23575
3.10442e+07
-9344.49
3.18359e+07
3.05556e+07
36805.1
2738.15
3.04072e+07
-23929.8
3.11049e+07
-9033.82
3.18476e+07
3.05227e+07
36965.2
4382.71
3.03659e+07
-22982.2
3.11649e+07
-7495.47
3.18595e+07
3.04922e+07
34892.2
1662
3.03293e+07
-23690.7
3.12235e+07
-7551.47
3.18687e+07
3.04609e+07
33594.6
2392.26
3.02933e+07
-23077.7
3.12801e+07
-6342.59
3.18775e+07
3.04315e+07
31107.7
-343.033
3.02626e+07
-23748.4
3.1335e+07
-6837.37
3.1884e+07
3.04009e+07
28286.2
-2901.62
3.02372e+07
-24864.8
3.13881e+07
-5904.13
3.1887e+07
3.03702e+07
25941.6
-3297.24
3.02145e+07
-26803.6
3.14409e+07
-4729.05
3.18884e+07
3.03386e+07
23328.5
-7385.19
3.01986e+07
-28056
3.14923e+07
-2948.04
3.18839e+07
3.03076e+07
21142.3
-10786.3
3.01882e+07
-31439.4
3.15448e+07
-1700.06
3.18749e+07
3.02745e+07
19477.6
-12125.5
3.01809e+07
-35980.2
3.16003e+07
-2721.07
3.18655e+07
3.02358e+07
17775.5
-12730.7
3.01758e+07
-38812.8
3.16569e+07
-4254.48
3.1857e+07
3.01927e+07
16941.8
-12716.7
3.01716e+07
-42087.5
3.17159e+07
-4645.14
3.18489e+07
3.0146e+07
16617.1
-15098
3.01701e+07
-45419.8
3.1778e+07
-6293.65
3.18401e+07
3.00943e+07
14285.3
-18221.6
3.0174e+07
-52343.1
3.18446e+07
-7538.05
3.18294e+07
3.00344e+07
8928.66
-25164.9
3.01903e+07
-57462.1
3.1911e+07
-8368.83
3.18126e+07
2.99686e+07
8196.78
-27399
3.02095e+07
-61695.1
3.19809e+07
-12688.7
3.17979e+07
2.98942e+07
8273.51
-29466.5
3.02307e+07
-67069.8
3.20562e+07
-15487.7
3.17839e+07
2.98116e+07
6358.58
-31341.7
3.02557e+07
-69137.3
3.21317e+07
-16554.6
3.17691e+07
2.97259e+07
5455.87
-34641.8
3.02848e+07
-70168.3
3.22073e+07
-12565.5
3.17471e+07
2.96432e+07
5763.8
-36944
3.0316e+07
-67631.6
3.22807e+07
-6715.51
3.17168e+07
2.95688e+07
5452.65
-41085.2
3.03517e+07
-63334.7
3.23495e+07
3163.11
3.16726e+07
2.95087e+07
4897.58
-42387.3
3.03891e+07
-56571.5
3.2411e+07
17355.3
3.16129e+07
2.94695e+07
5065.13
-43717
3.04278e+07
-48506.4
3.24646e+07
28629.2
3.15405e+07
2.94496e+07
2382.6
-44884.9
3.04703e+07
-39377.2
3.25063e+07
35642.9
3.146e+07
2.94458e+07
617.034
-48083.7
3.05178e+07
-31475.3
3.25384e+07
41209.9
3.13707e+07
2.94556e+07
-418.809
-50178.5
3.05684e+07
-24993.6
3.2563e+07
49175.3
3.12713e+07
2.94798e+07
-1740.26
-52002.8
3.06221e+07
-17543.1
3.25788e+07
55266.6
3.11641e+07
2.95175e+07
-3538.47
-54381
3.068e+07
-11264.6
3.25865e+07
58514.4
3.10512e+07
2.95647e+07
-4581.52
-56808.8
3.07414e+07
-7453.99
3.25894e+07
63282.5
3.09311e+07
2.96206e+07
-4417.75
-58547.6
3.08044e+07
-5066.5
3.259e+07
63757.2
3.08088e+07
2.96793e+07
-4371.04
-56193.6
3.08649e+07
-2343.05
3.2588e+07
62807.2
3.06898e+07
2.97397e+07
-5482.49
-59927.3
3.09304e+07
-52.2757
3.25826e+07
67575.1
3.05623e+07
2.98072e+07
-6935.16
-64424.6
3.10017e+07
3369.98
3.25723e+07
67457.7
3.04304e+07
2.98781e+07
-9554.85
-68922
3.10802e+07
5453.22
3.25573e+07
69254.2
3.02922e+07
2.99528e+07
-10564.8
-71174.4
3.11619e+07
6576
3.25401e+07
68508.6
3.01525e+07
3.00279e+07
-12864.1
-72887.9
3.12477e+07
10420
3.25168e+07
68856.5
3.00108e+07
3.01071e+07
-12301.1
-73421.2
3.13334e+07
12492.9
3.2492e+07
68878.9
2.98685e+07
3.01885e+07
-12593.6
-72380.7
3.14184e+07
14660.4
3.24648e+07
74059.2
2.9722e+07
3.02772e+07
-12922.7
-74881.4
3.15062e+07
13914.3
3.2438e+07
72001.4
2.95752e+07
3.03631e+07
-14009.3
-75790.5
3.1596e+07
15343.6
3.24086e+07
73712
2.94257e+07
3.04522e+07
-13446.4
-75456.1
3.16849e+07
19306.5
3.23758e+07
75442.6
2.92748e+07
3.0547e+07
-11207.5
-76162.4
3.17723e+07
24837.5
3.23398e+07
74535.8
2.91241e+07
3.06463e+07
-11185.2
-78619.3
3.18621e+07
26607.9
3.2302e+07
74512.8
2.89709e+07
3.07474e+07
-10004
-78382
3.19504e+07
28365.9
3.22636e+07
72901.1
2.88196e+07
3.08487e+07
-11974.5
-77107
3.20395e+07
26722.5
3.22249e+07
74590.8
2.86679e+07
3.095e+07
-11681.9
-68240.2
3.21194e+07
26389.1
3.21869e+07
73017.4
2.85267e+07
3.10494e+07
-8581.01
-60589.3
3.21886e+07
24648.7
3.21536e+07
67294.7
2.83988e+07
3.11414e+07
-850.027
-53460.2
3.22429e+07
14388.8
3.21384e+07
54552.1
2.82908e+07
3.12103e+07
5338.5
-50471.5
3.22881e+07
-13505.2
3.21572e+07
33388.6
2.82069e+07
3.12302e+07
11113.6
-48314.3
3.23253e+07
-51101.9
3.22195e+07
5493.68
2.81531e+07
3.11846e+07
16241.2
-51711.4
3.23607e+07
-93581
3.23293e+07
-18695
2.81201e+07
3.10723e+07
29010.9
-52658.1
3.23844e+07
-135050
3.24933e+07
-43880.5
2.81113e+07
3.08934e+07
35822.8
-56262
3.24048e+07
-167113
3.26963e+07
-62160.8
2.81172e+07
3.06641e+07
41507.5
-60162.5
3.24235e+07
-188404
3.29262e+07
-80849.4
2.81379e+07
3.03949e+07
41901.9
-66253.8
3.24478e+07
-194207
3.31623e+07
-93537.8
2.81652e+07
3.01071e+07
46236.4
-72577.9
3.24742e+07
-194104
3.34026e+07
-106799
2.81994e+07
2.98062e+07
50162.1
-75800.9
3.24998e+07
-184309
3.36371e+07
-116217
2.82398e+07
2.95057e+07
58960.9
-71426.4
3.25123e+07
-174991
3.38711e+07
-125555
2.8294e+07
2.92051e+07
58300.7
-68774.3
3.25227e+07
-150162
3.40795e+07
-132533
2.83577e+07
2.89224e+07
63693.3
-67196.2
3.25262e+07
-125347
3.42686e+07
-138119
2.84286e+07
2.8659e+07
73533.4
-63868.4
3.25166e+07
-103305
3.44454e+07
-142297
2.85071e+07
2.84134e+07
73152.7
-56109.5
3.24995e+07
-68389.8
3.45869e+07
-144537
2.85955e+07
2.82004e+07
90879.3
-47861.2
3.24565e+07
-49868.3
3.47277e+07
-145478
2.86931e+07
2.80051e+07
108918
-39277
3.23869e+07
-35145.2
3.48718e+07
-144922
2.87988e+07
2.7825e+07
117092
-28492.9
3.22983e+07
-9865.53
3.49987e+07
-142752
2.8913e+07
2.76724e+07
129847
-18065.8
3.21865e+07
8126.23
3.51204e+07
-139560
2.90345e+07
2.7541e+07
148710
-3995.89
3.20418e+07
21565.1
3.52476e+07
-134955
2.91655e+07
2.74276e+07
165939
7596.43
3.18683e+07
37594.1
3.53759e+07
-129933
2.9303e+07
2.73353e+07
180057
22062.5
3.16661e+07
51097.2
3.55049e+07
-123771
2.94488e+07
2.72626e+07
171414
40417.6
3.14543e+07
71022.9
3.56053e+07
-117566
2.96068e+07
2.7216e+07
164871
61724
3.12277e+07
75961.7
3.56942e+07
-110577
2.97791e+07
2.71814e+07
134649
76245.1
3.10168e+07
100339
3.57285e+07
-103788
2.99592e+07
2.7178e+07
90198.1
94651.7
3.0832e+07
120503
3.56982e+07
-96048.4
3.01499e+07
2.72024e+07
76622
102643
3.06527e+07
132959
3.56419e+07
-88835.3
3.03413e+07
2.72466e+07
29853.2
118154
3.05047e+07
143534
3.55282e+07
-81742.4
3.05412e+07
2.73083e+07
11967.1
123352
3.03694e+07
157039
3.53831e+07
-75798.2
3.07404e+07
2.73896e+07
3370.22
132032
3.0234e+07
169277
3.52172e+07
-71101.5
3.09435e+07
2.74878e+07
-17646.8
139507
3.01121e+07
183752
3.50158e+07
-68107.9
3.11511e+07
2.76034e+07
-22129
148076
2.99862e+07
194957
3.47987e+07
-67385.7
3.13666e+07
2.7731e+07
-28989.7
157644
2.98575e+07
202758
3.4567e+07
-67656.5
3.15919e+07
2.78661e+07
-30423.3
171376
2.97166e+07
212424
3.43241e+07
-70827.9
3.18341e+07
2.80077e+07
-33285.5
185149
2.95647e+07
220275
3.40706e+07
-72984.9
3.20922e+07
2.8155e+07
-61411.4
206030
2.94201e+07
226662
3.37825e+07
-78874
3.23771e+07
2.83027e+07
-95519.6
220174
2.92954e+07
228638
3.34583e+07
-81374.5
3.26787e+07
2.845e+07
-128468
235535
2.91883e+07
229543
3.31003e+07
-88932
3.30032e+07
2.85906e+07
-154600
240555
2.91024e+07
226738
3.2719e+07
-89232.5
3.33329e+07
2.87281e+07
-174342
246666
2.90301e+07
221231
3.23234e+07
-96927.2
3.36765e+07
2.88524e+07
-186707
243588
2.89732e+07
215261
3.19214e+07
-93496.9
3.40136e+07
2.89742e+07
-195105
242327
2.8926e+07
204248
3.15221e+07
-100042
3.4356e+07
2.90784e+07
-197307
233458
2.88898e+07
195367
3.11294e+07
-96541.8
3.4686e+07
2.91772e+07
-198934
226779
2.8862e+07
183329
3.07471e+07
-100731
3.50135e+07
2.92598e+07
-195978
212666
2.88453e+07
172344
3.03788e+07
-94174.3
3.53203e+07
2.9338e+07
-195894
201228
2.88399e+07
155596
3.00273e+07
-96017.4
3.56176e+07
2.93976e+07
-192549
184646
2.88479e+07
137549
2.96972e+07
-84352.6
3.58866e+07
2.94508e+07
-194634
168155
2.88743e+07
114803
2.93878e+07
-87623.7
3.61424e+07
2.9478e+07
-194090
152761
2.89157e+07
91810.2
2.91019e+07
-76552.9
3.63717e+07
2.94932e+07
-197870
133692
2.89798e+07
63586
2.88404e+07
-80807
3.65862e+07
2.9476e+07
-200436
119144
2.90611e+07
33867.7
2.86061e+07
-71505
3.67768e+07
2.94384e+07
-207753
101879
2.9167e+07
-1441.04
2.83998e+07
-74420.1
3.69531e+07
2.93625e+07
-211095
89406.2
2.92887e+07
-39971.3
2.82287e+07
-65416.4
3.71079e+07
2.92571e+07
-218302
73903
2.94331e+07
-84339.8
2.80947e+07
-66531
3.72484e+07
2.91062e+07
-221086
67698.1
2.95865e+07
-132146
2.80058e+07
-55809
3.73719e+07
2.89183e+07
-223947
57139
2.97533e+07
-182922
2.79648e+07
-54065
3.74831e+07
2.86813e+07
-223473
50517.5
2.99262e+07
-234280
2.79756e+07
-40024.4
3.75736e+07
2.8407e+07
-220217
40917.5
3.01055e+07
-280246
2.80356e+07
-36423.7
3.7651e+07
2.80903e+07
-214414
39827.9
3.02801e+07
-321175
2.81424e+07
-22438.5
3.77132e+07
2.77467e+07
-206070
33908.7
3.04523e+07
-348097
2.82844e+07
-17482.1
3.77646e+07
2.73811e+07
-195740
45553.1
3.06025e+07
-360303
2.8449e+07
-1853.99
3.7812e+07
2.7019e+07
-181483
48625.3
3.07353e+07
-364530
2.8632e+07
9323.11
3.78513e+07
2.66638e+07
-168314
67307.1
3.08363e+07
-340351
2.8804e+07
23347.3
3.78953e+07
2.63468e+07
-155863
76428.2
3.09158e+07
-316507
2.89647e+07
40085.4
3.79316e+07
2.60703e+07
-143200
98974.9
3.096e+07
-251757
2.90732e+07
50956
3.79797e+07
2.58695e+07
-139835
112681
3.09872e+07
-211487
2.91449e+07
73214
3.80191e+07
2.57313e+07
-127824
120554
3.09944e+07
-169019
2.91861e+07
84783.1
3.80549e+07
2.5647e+07
-127133
113161
-124276
123629
)
;

boundaryField
{
    inlet
    {
        type            calculated;
        value           nonuniform List<scalar> 4(3.10084e+07 3.80444e+07 2.91832e+07 2.56464e+07);
    }
    outlet
    {
        type            calculated;
        value           nonuniform List<scalar> 4(-3.08737e+07 -3.15464e+07 -3.07033e+07 -3.0759e+07);
    }
    repeat_boundary
    {
        type            calculated;
        value           uniform 0;
    }
}


// ************************************************************************* //
