FoamFile
{version 2.0; format ascii;class Cloud<passiveParticle>; location 0;object  positions;}
353
(
( 3.01992 0.88355 0.499623 ) 0 
( 2.56373 3.50505 0.499957 ) 0 
( 1.218 2.22336 0.499976 ) 0 
( 0.287204 2.5889 0.499976 ) 0 
( 0.155048 0.34861 0.499473 ) 0 
( 1.15432 0.377899 0.49973 ) 0 
( 4.62649 2.15781 0.499829 ) 0 
( 4.70901 3.97873 0.499833 ) 0 
( 0.843849 4.34878 0.499577 ) 0 
( 4.05915 2.98419 0.499973 ) 0 
( 1.56241 3.40943 0.49965 ) 0 
( 4.50612 0.736725 0.499675 ) 0 
( 3.11674 2.35723 0.499522 ) 0 
( 2.33593 1.61405 0.499644 ) 0 
( 0.479983 1.30556 0.499784 ) 0 
( 2.14578 2.59652 0.499975 ) 0 
( 2.44623 4.49827 0.499905 ) 0 
( 0.0744924 1.89211 1.20054 ) 0 
( 1.04475 4.31604 1.47822 ) 0 
( 3.67046 3.91188 0.499976 ) 0 
( 3.27035 3.11685 1.13086 ) 0 
( 3.84095 2.27726 1.18398 ) 0 
( 0.707158 3.49975 1.00959 ) 0 
( 3.81858 1.54874 0.49973 ) 0 
( 2.10789 0.554013 0.742842 ) 0 
( 4.20083 4.85143 0.499485 ) 0 
( 0.0178901 0.901086 1.32105 ) 0 
( 3.69752 0.148522 0.499733 ) 0 
( 1.93922 3.91925 1.27268 ) 0 
( 1.43569 1.29218 0.792466 ) 0 
( 0.660992 0.135623 1.33496 ) 0 
( 4.5261 1.45036 1.19939 ) 0 
( 1.21392 1.92948 1.53007 ) 0 
( 3.71889 0.856167 1.2138 ) 0 
( 2.21378 2.09927 1.36498 ) 0 
( 4.72836 4.94094 1.34368 ) 0 
( 0.193501 4.67962 1.85578 ) 0 
( 2.94022 4.05338 1.24663 ) 0 
( 1.55163 2.84828 1.32698 ) 0 
( 1.95357 4.90691 1.42675 ) 0 
( 3.0748 1.62005 1.17335 ) 0 
( 4.27399 3.55373 1.29335 ) 0 
( 1.43548 0.648669 1.70435 ) 0 
( 0.559691 2.68461 1.5693 ) 0 
( 3.06276 2.39949 1.79938 ) 0 
( 2.30431 1.12602 1.57533 ) 0 
( 3.84923 4.45719 1.34819 ) 0 
( 4.33258 0.47857 1.90664 ) 0 
( 1.8397 2.39612 2.24315 ) 0 
( 2.5584 4.32645 2.12943 ) 0 
( 1.07105 3.44532 1.96896 ) 0 
( 4.74397 2.67307 1.34853 ) 0 
( 2.87544 0.335603 1.34486 ) 0 
( 0.59091 1.32279 2.02366 ) 0 
( 2.42051 3.16044 1.7108 ) 0 
( 4.14092 1.69795 2.08804 ) 0 
( 0.398396 3.95085 2.50901 ) 0 
( 0.863222 0.492037 2.50906 ) 0 
( 1.58883 1.42911 2.31022 ) 0 
( 0.87942 2.19421 2.43439 ) 0 
( 3.52621 3.62455 1.95317 ) 0 
( 4.81953 4.36334 2.15431 ) 0 
( 3.20204 0.359118 2.28912 ) 0 
( 3.1995 1.34577 2.12652 ) 0 
( 1.58093 4.23468 2.31799 ) 0 
( 2.32511 0.784191 2.5147 ) 0 
( 1.80207 3.31366 2.63819 ) 0 
( 0.108188 2.8304 2.4493 ) 0 
( 4.36605 3.08089 2.1792 ) 0 
( 1.29009 2.67303 3.21024 ) 0 
( 3.6958 2.45145 2.57131 ) 0 
( 0.93774 1.39894 3.0685 ) 0 
( 2.71014 2.41585 2.73481 ) 0 
( 3.3358 1.66112 3.06663 ) 0 
( 0.109045 0.736124 3.11844 ) 0 
( 4.127 3.89719 2.70433 ) 0 
( 1.08667 4.2095 3.18668 ) 0 
( 0.0503131 1.73744 2.75593 ) 0 
( 0.540749 4.93067 2.76079 ) 0 
( 2.79847 3.4064 2.60307 ) 0 
( 3.9138 0.934088 2.69188 ) 0 
( 3.51612 4.56789 2.28421 ) 0 
( 3.02804 0.283774 3.2705 ) 0 
( 1.93332 1.91364 3.11403 ) 0 
( 0.1918 1.53155 3.72364 ) 0 
( 3.65311 4.56776 3.27449 ) 0 
( 4.67736 1.29663 3.2257 ) 0 
( 2.54018 3.04039 3.4969 ) 0 
( 0.320116 2.48447 3.36294 ) 0 
( 2.70907 4.96453 3.27768 ) 0 
( 2.24592 4.10732 3.05376 ) 0 
( 2.54691 1.15583 3.41599 ) 0 
( 4.82596 2.24183 2.93563 ) 0 
( 4.25066 3.02381 3.17483 ) 0 
( 4.71565 4.43704 3.30566 ) 0 
( 1.58948 0.648591 3.17831 ) 0 
( 3.42658 2.57814 3.52554 ) 0 
( 1.66519 3.51159 3.60845 ) 0 
( 4.22057 2.73149 4.13041 ) 0 
( 1.76482 4.98771 2.94962 ) 0 
( 2.69916 3.91399 3.95647 ) 0 
( 0.11014 4.40159 3.49167 ) 0 
( 1.68832 1.33907 3.89459 ) 0 
( 3.43221 3.58995 3.35432 ) 0 
( 0.82398 0.192173 3.63158 ) 0 
( 0.67251 3.39269 3.58763 ) 0 
( 3.67814 0.935483 3.66325 ) 0 
( 4.49199 3.66631 3.90204 ) 0 
( 2.61665 2.07468 3.82596 ) 0 
( 4.54478 0.232459 3.02234 ) 0 
( 1.62841 4.43179 3.99774 ) 0 
( 2.55114 1.26559 4.40981 ) 0 
( 0.158945 2.19237 4.47315 ) 0 
( 1.00701 2.06807 3.9583 ) 0 
( 0.704795 4.74491 4.21857 ) 0 
( 3.18536 4.76919 4.1346 ) 0 
( 3.06359 0.420214 4.26008 ) 0 
( 1.82328 2.63565 4.06431 ) 0 
( 1.5835 0.409489 4.24725 ) 0 
( 4.16989 4.585 4.13016 ) 0 
( 4.17806 1.74617 3.96685 ) 0 
( 0.708792 0.129197 4.64227 ) 0 
( 0.940032 2.94225 4.43913 ) 0 
( 3.42956 2.21413 4.45661 ) 0 
( 0.220648 3.87793 4.33604 ) 0 
( 1.98858 3.5429 4.55384 ) 0 
( 3.34849 3.22695 4.28207 ) 0 
( 1.8243 1.87383 4.72827 ) 0 
( 4.83062 0.390778 3.96722 ) 0 
( 4.29847 3.37456 4.8919 ) 0 
( 0.832718 1.07359 4.33873 ) 0 
( 3.53429 1.23128 4.60739 ) 0 
( 0.0761015 3.08147 4.92283 ) 0 
( 3.53324 4.07999 4.76967 ) 0 
( 2.57734 2.66582 4.72026 ) 0 
( 2.88882 1.79684 5.18672 ) 0 
( 2.31788 0.437142 4.92544 ) 0 
( 4.91251 2.08427 4.55493 ) 0 
( 4.97167 3.60478 5.5944 ) 0 
( 0.311897 2.3875 5.60271 ) 0 
( 2.47808 0.205655 5.88463 ) 0 
( 1.49875 0.989015 5.07919 ) 0 
( 3.0891 0.844112 5.41453 ) 0 
( 3.49251 2.87309 5.2059 ) 0 
( 1.6608 2.78192 5.11313 ) 0 
( 1.12258 4.00275 4.74924 ) 0 
( 3.28084 4.67208 5.53485 ) 0 
( 0.877602 1.78673 5.03812 ) 0 
( 0.500573 0.884992 5.26277 ) 0 
( 3.9245 0.293682 4.75248 ) 0 
( 2.56516 4.26182 4.94176 ) 0 
( 0.298299 4.20633 5.27726 ) 0 
( 4.77179 4.2547 4.86143 ) 0 
( 4.52077 1.0942 4.69628 ) 0 
( 1.19238 0.614608 5.95421 ) 0 
( 4.10845 1.90047 5.1203 ) 0 
( 2.63735 3.3128 5.48027 ) 0 
( 2.03434 1.59623 5.66559 ) 0 
( 0.401788 1.4966 6.04746 ) 0 
( 0.138249 4.6371 6.16523 ) 0 
( 4.37681 2.73007 5.65235 ) 0 
( 3.33628 0.710875 6.374 ) 0 
( 3.65243 0.0587058 5.68528 ) 0 
( 4.19264 4.97026 6.04468 ) 0 
( 0.668038 3.3606 5.67852 ) 0 
( 1.71706 3.70329 5.50266 ) 0 
( 4.10155 4.97237 5.04917 ) 0 
( 2.94681 2.46357 5.93663 ) 0 
( 4.10596 0.94507 5.59359 ) 0 
( 1.03743 4.22546 6.01774 ) 0 
( 1.98227 2.69839 6.0559 ) 0 
( 2.38027 0.802042 6.68109 ) 0 
( 4.09271 4.08128 5.59805 ) 0 
( 4.69235 1.82222 5.92823 ) 0 
( 1.86145 4.67879 5.67858 ) 0 
( 3.58377 3.36322 6.07244 ) 0 
( 1.56217 1.353 6.51798 ) 0 
( 1.20387 2.08278 5.93601 ) 0 
( 3.4823 1.62077 5.98611 ) 0 
( 1.77618 3.65501 6.49964 ) 0 
( 4.72046 4.18498 6.3692 ) 0 
( 3.01198 0.201434 7.17066 ) 0 
( 2.61346 4.1344 6.04966 ) 0 
( 3.67812 4.25427 6.51602 ) 0 
( 0.332964 3.78337 6.64781 ) 0 
( 3.81555 2.45164 6.43169 ) 0 
( 0.919797 2.02122 6.89268 ) 0 
( 4.45077 3.23704 6.55404 ) 0 
( 0.266258 0.528884 6.37069 ) 0 
( 4.59098 0.684365 6.42818 ) 0 
( 2.42067 1.8706 6.54587 ) 0 
( 1.40152 0.450802 6.91818 ) 0 
( 2.68887 3.24639 6.50262 ) 0 
( 3.0964 1.36996 7.08656 ) 0 
( 4.13303 1.51732 6.73822 ) 0 
( 4.82465 2.23369 6.82996 ) 0 
( 1.08063 2.9168 6.47373 ) 0 
( 4.81537 1.04921 7.39564 ) 0 
( 0.946355 4.50245 6.97411 ) 0 
( 4.29364 3.94614 7.24127 ) 0 
( 3.38322 3.01876 7.18486 ) 0 
( 0.535736 0.222577 7.36337 ) 0 
( 3.92887 0.642018 7.17638 ) 0 
( 0.380738 1.19088 7.11125 ) 0 
( 2.00182 1.60407 7.41374 ) 0 
( 0.589956 2.85096 7.34247 ) 0 
( 4.32803 2.86888 7.47538 ) 0 
( 2.85227 4.06825 7.04803 ) 0 
( 1.80793 2.50268 7.02068 ) 0 
( 3.69312 2.09835 7.42273 ) 0 
( 0.0720368 0.894315 8.03732 ) 0 
( 1.78295 0.867058 8.05281 ) 0 
( 1.2331 3.61655 7.33835 ) 0 
( 4.53873 0.125272 7.97897 ) 0 
( 3.75116 3.5205 7.96758 ) 0 
( 2.71357 2.30701 7.39642 ) 0 
( 4.59476 1.94998 7.82875 ) 0 
( 1.94452 4.48713 7.03139 ) 0 
( 3.62752 1.235 7.92294 ) 0 
( 0.292069 3.75571 7.64648 ) 0 
( 0.921819 4.59156 7.9697 ) 0 
( 4.12782 4.93141 7.20063 ) 0 
( 4.20323 4.39752 8.12887 ) 0 
( 1.06429 1.53539 7.75465 ) 0 
( 2.76157 0.664633 8.02054 ) 0 
( 2.70885 1.65418 8.15368 ) 0 
( 1.68337 3.4609 8.21742 ) 0 
( 4.51383 1.05384 8.34901 ) 0 
( 3.44222 2.2987 8.36959 ) 0 
( 0.103182 2.92573 8.21263 ) 0 
( 4.68318 2.76317 8.40395 ) 0 
( 3.24795 4.76538 7.64581 ) 0 
( 2.87018 3.05373 8.04258 ) 0 
( 2.34558 4.18744 7.90168 ) 0 
( 1.67787 4.37534 8.62181 ) 0 
( 1.22934 0.0346133 8.06175 ) 0 
( 2.19807 3.3558 7.3667 ) 0 
( 4.89145 3.65175 7.98673 ) 0 
( 1.29944 3.35762 9.13487 ) 0 
( 3.39606 4.14203 8.66569 ) 0 
( 3.96935 0.0472309 8.79708 ) 0 
( 3.05038 2.97887 9.02321 ) 0 
( 0.825391 0.718475 8.67073 ) 0 
( 3.6464 1.23509 8.92262 ) 0 
( 4.37343 1.91606 8.83542 ) 0 
( 2.45082 3.74493 8.79208 ) 0 
( 1.66709 1.74044 8.5257 ) 0 
( 4.67221 3.79673 8.95138 ) 0 
( 1.36063 2.56492 7.91269 ) 0 
( 0.207107 1.48986 8.82906 ) 0 
( 0.751174 2.31236 8.66397 ) 0 
( 2.13434 0.0376875 8.48707 ) 0 
( 0.260811 4.9754 8.98769 ) 0 
( 2.12402 2.62936 8.55539 ) 0 
( 2.65268 4.80935 8.6218 ) 0 
( 1.06651 1.46481 9.33961 ) 0 
( 0.332672 3.10438 9.16934 ) 0 
( 4.0436 3.03798 9.12159 ) 0 
( 0.631637 3.85815 8.58418 ) 0 
( 4.39256 0.745707 9.37388 ) 0 
( 4.14786 4.63418 9.10433 ) 0 
( 2.22479 4.45879 9.45477 ) 0 
( 2.65483 1.21381 9.04978 ) 0 
( 1.74783 0.792951 9.0493 ) 0 
( 1.51904 2.35575 9.30306 ) 0 
( 3.00582 0.28742 8.91365 ) 0 
( 2.18224 3.07504 9.50978 ) 0 
( 2.26138 0.0992193 9.55402 ) 0 
( 3.23322 4.86796 9.43377 ) 0 
( 3.46557 2.99614 9.9364 ) 0 
( 1.17702 0.386423 9.76256 ) 0 
( 0.173534 4.08931 9.44274 ) 0 
( 3.07869 3.83991 9.56451 ) 0 
( 0.441276 2.19878 9.60781 ) 0 
( 1.03921 2.90464 9.9875 ) 0 
( 1.76162 3.80306 10.0509 ) 0 
( 0.296867 0.817091 9.56324 ) 0 
( 3.82939 1.38802 9.89367 ) 0 
( 3.56408 2.18808 9.35579 ) 0 
( 3.30216 0.383523 9.86379 ) 0 
( 1.98571 1.46117 9.75409 ) 0 
( 2.56291 2.16584 9.34148 ) 0 
( 4.89771 4.44591 9.73837 ) 0 
( 1.07902 4.51235 9.41076 ) 0 
( 2.0282 2.35959 10.191 ) 0 
( 1.84756 0.712818 10.4286 ) 0 
( 4.52167 2.38325 9.70695 ) 0 
( 2.60999 4.23736 10.3534 ) 0 
( 0.795683 3.99823 10.2202 ) 0 
( 4.18634 0.567378 10.3397 ) 0 
( 0.304185 0.155594 10.313 ) 0 
( 3.89816 4.23346 9.9858 ) 0 
( 1.14845 1.88711 10.2423 ) 0 
( 3.08217 2.00536 10.2126 ) 0 
( 4.39305 3.36471 9.9996 ) 0 
( 2.59847 0.0557776 10.4944 ) 0 
( 2.76707 2.86256 10.6393 ) 0 
( 4.13974 1.54792 10.8307 ) 0 
( 0.863207 0.967797 10.5131 ) 0 
( 0.701661 4.60902 11.0238 ) 0 
( 4.9892 1.78935 10.3616 ) 0 
( 2.33184 1.54778 10.6896 ) 0 
( 3.36977 3.66933 10.6695 ) 0 
( 2.14449 3.58165 10.9478 ) 0 
( 4.05637 2.51299 10.5825 ) 0 
( 0.116174 1.61208 10.3494 ) 0 
( 3.19817 1.05741 10.5952 ) 0 
( 1.50213 2.81626 10.9084 ) 0 
( 4.76756 4.03471 10.6405 ) 0 
( 0.594738 3.22824 10.8257 ) 0 
( 1.65961 4.98028 10.0939 ) 0 
( 1.76266 0.216993 11.2928 ) 0 
( 0.5647 2.34851 11.3154 ) 0 
( 0.197628 1.13991 11.2392 ) 0 
( 1.24055 1.61959 11.2014 ) 0 
( 3.68986 0.907305 11.4529 ) 0 
( 2.79697 4.38901 11.3239 ) 0 
( 2.68279 0.60726 11.3243 ) 0 
( 3.49881 2.89363 11.3201 ) 0 
( 0.766275 0.265193 11.218 ) 0 
( 4.7887 2.17548 11.2619 ) 0 
( 1.51121 4.18617 11.4309 ) 0 
( 3.91912 4.44903 10.9698 ) 0 
( 3.14403 1.85272 11.1989 ) 0 
( 2.2696 2.32285 11.3184 ) 0 
( 4.64689 0.145182 11.1205 ) 0 
( 3.51056 0.0917852 10.9027 ) 0 
( 0.211445 0.297071 12.0493 ) 0 
( 4.9495 3.3333 11.3296 ) 0 
( 1.41678 2.37128 11.8382 ) 0 
( 0.420346 4.86433 11.9488 ) 0 
( 2.97924 2.40143 12.0185 ) 0 
( 1.10398 3.30824 11.6826 ) 0 
( 1.24948 0.864165 11.8565 ) 0 
( 3.72554 3.79138 11.6978 ) 0 
( 2.09774 1.35337 11.6422 ) 0 
( 2.13451 4.7342 11.9887 ) 0 
( 3.01192 1.33993 12.0472 ) 0 
( 3.96329 1.92484 11.7677 ) 0 
( 3.25456 0.0545113 11.9305 ) 0 
( 4.50096 1.1143 11.9999 ) 0 
( 1.10148 2.92741 12.6072 ) 0 
( 4.13012 4.80406 12.3609 ) 0 
( 1.48734 0.14872 12.5134 ) 0 
( 4.85546 2.01615 12.2469 ) 0 
( 2.77956 3.46747 11.7117 ) 0 
( 3.76994 2.39171 12.6306 ) 0 
( 0.685927 0.909798 12.6813 ) 0 
( 4.64823 4.16998 11.7869 ) 0 
( 4.44661 0.153216 12.2707 ) 0 
( 0.531172 2.1628 12.9074 ) 0 
( 0.70889 1.68333 12.048 ) 0 
( 4.29608 2.86323 11.9229 ) 0 
)
