/*--------------------------------*- C++ -*----------------------------------*\
  =========                 |
  \\      /  F ield         | OpenFOAM: The Open Source CFD Toolbox
   \\    /   O peration     | Website:  https://openfoam.org
    \\  /    A nd           | Version:  9
     \\/     M anipulation  |
\*---------------------------------------------------------------------------*/
FoamFile
{
    format      ascii;
    class       surfaceScalarField;
    location    "400";
    object      phi;
}
// * * * * * * * * * * * * * * * * * * * * * * * * * * * * * * * * * * * * * //

dimensions      [0 3 -1 0 0 0 0];

internalField   nonuniform List<scalar> 
716
(
7.06515e-09
-1.2468e-08
-0.025
-9.29929e-09
-0.0249997
1.01101e-08
-0.0250008
-0.0250002
1.40259e-08
-2.70633e-08
-0.025
-1.93996e-08
-0.0249996
2.0593e-08
-0.0250008
-0.0250002
2.17968e-08
-4.43067e-08
-0.0249999
-3.09937e-08
-0.0249995
3.32909e-08
-0.0250009
-0.0250001
2.95373e-08
-6.39951e-08
-0.0249999
-4.35781e-08
-0.0249994
4.78931e-08
-0.0250009
-0.0250001
3.73646e-08
-8.70668e-08
-0.0249998
-5.76452e-08
-0.0249993
6.50936e-08
-0.025001
-0.025
4.55454e-08
-1.14684e-07
-0.0249997
-7.38446e-08
-0.0249991
8.57552e-08
-0.0250012
-0.025
5.4373e-08
-1.48231e-07
-0.0249995
-9.2738e-08
-0.0249989
1.1086e-07
-0.0250014
-0.0249999
6.40362e-08
-1.89425e-07
-0.0249994
-1.14475e-07
-0.0249987
1.4163e-07
-0.0250017
-0.0249999
7.45532e-08
-2.40414e-07
-0.0249992
-1.3941e-07
-0.0249985
1.79631e-07
-0.0250021
-0.0249998
8.57829e-08
-3.03957e-07
-0.024999
-1.68076e-07
-0.0249982
2.26911e-07
-0.0250026
-0.0249997
9.7383e-08
-3.83607e-07
-0.0249987
-2.00934e-07
-0.0249979
2.86199e-07
-0.0250033
-0.0249997
1.08688e-07
-4.8394e-07
-0.0249983
-2.38294e-07
-0.0249976
3.61073e-07
-0.0250042
-0.0249995
1.18607e-07
-6.1085e-07
-0.0249978
-2.80224e-07
-0.0249972
4.56184e-07
-0.0250053
-0.0249994
1.2556e-07
-7.71912e-07
-0.0249972
-3.26432e-07
-0.0249968
5.77544e-07
-0.0250066
-0.0249991
1.27331e-07
-9.76845e-07
-0.0249963
-3.76104e-07
-0.0249964
7.32917e-07
-0.0250084
-0.0249988
1.20883e-07
-1.23811e-06
-0.0249952
-4.27666e-07
-0.0249959
9.32326e-07
-0.0250106
-0.0249983
1.02177e-07
-1.57169e-06
-0.0249938
-4.78442e-07
-0.0249953
1.18872e-06
-0.0250134
-0.0249976
6.63692e-08
-1.99809e-06
-0.0249918
-5.23992e-07
-0.0249948
1.51885e-06
-0.025017
-0.0249966
1.52045e-08
-2.54362e-06
-0.0249893
-5.5621e-07
-0.0249942
1.94445e-06
-0.0250215
-0.0249952
-9.9041e-08
-3.24182e-06
-0.0249859
-5.65623e-07
-0.0249938
2.49381e-06
-0.0250273
-0.0249932
-2.99548e-07
-4.13688e-06
-0.0249815
-5.43654e-07
-0.0249936
3.20386e-06
-0.0250346
-0.0249906
-5.94677e-07
-5.28658e-06
-0.0249756
-4.71615e-07
-0.0249937
4.12291e-06
-0.025044
-0.0249869
-1.02552e-06
-6.76577e-06
-0.0249678
-3.28472e-07
-0.0249944
5.31429e-06
-0.0250561
-0.0249819
-1.6479e-06
-8.67204e-06
-0.0249575
-1.1462e-07
-0.0249959
6.86088e-06
-0.0250716
-0.0249752
-2.53593e-06
-1.1133e-05
-0.0249439
3.43311e-07
-0.0249987
8.87028e-06
-0.0250916
-0.024966
-3.7934e-06
-1.43153e-05
-0.0249258
1.05246e-06
-0.0250035
1.14869e-05
-0.0251173
-0.0249535
-5.56123e-06
-1.84378e-05
-0.0249019
2.12723e-06
-0.0250112
1.49003e-05
-0.0251506
-0.0249366
-8.03119e-06
-2.37869e-05
-0.0248701
3.72578e-06
-0.0250229
1.93603e-05
-0.0251937
-0.0249135
-1.14638e-05
-3.07389e-05
-0.0248279
6.0635e-06
-0.0250403
2.51969e-05
-0.0252496
-0.0248823
-1.62123e-05
-3.97881e-05
-0.0247719
9.4359e-06
-0.0250659
3.28456e-05
-0.0253222
-0.02484
-2.27541e-05
-5.15839e-05
-0.0246976
1.42478e-05
-0.0251029
4.28821e-05
-0.0254166
-0.0247829
-3.17356e-05
-6.69819e-05
-0.0245989
2.10545e-05
-0.0251556
5.60695e-05
-0.0255396
-0.0247057
-4.40433e-05
-8.71321e-05
-0.0244677
3.06255e-05
-0.0252303
7.34413e-05
-0.0257001
-0.0246017
-6.09572e-05
-0.000113703
-0.024293
4.40627e-05
-0.0253352
9.64919e-05
-0.0259103
-0.0244611
-8.44158e-05
-0.000149265
-0.0240594
6.29937e-05
-0.0254826
0.000127465
-0.026187
-0.0242707
-0.000113643
-0.00019185
-0.0237539
8.69645e-05
-0.0256832
0.000164649
-0.0265435
-0.0240191
-0.000149549
-0.000242438
-0.0233619
0.000119708
-0.0259525
0.000211922
-0.0269978
-0.0236875
-0.000169035
-0.000265918
-0.022927
0.00014627
-0.0262678
0.000242146
-0.0275059
-0.0232991
-0.000288855
-0.000403194
-0.0222349
0.00021558
-0.0267723
0.000329644
-0.0282388
-0.0227538
0.000350345
0.000466695
-0.023052
-0.000194379
-0.0262275
-0.000309417
-0.0274627
-0.0232576
-1.95113e-05
-2.14351e-05
-0.023011
1.28076e-05
-0.0262599
1.68143e-05
-0.027501
-0.0232279
-0.000187391
-0.00031372
-0.0225098
7.33396e-05
-0.0265206
0.000212022
-0.0280267
-0.0229425
-8.12616e-05
-0.000190284
-0.0222382
0.000117618
-0.0267194
0.000234057
-0.028451
-0.0225907
-0.000276912
-0.000223826
-0.0217374
9.422e-05
-0.0270906
4.83202e-05
-0.0287232
-0.0224481
-0.000287086
-0.000220789
-0.0212295
-0.00011237
-0.0272653
-0.000186638
-0.0287574
-0.0227471
-0.000210329
-8.2049e-05
-0.0209371
-1.50135e-05
-0.0274606
-0.00022275
-0.0286166
-0.0229848
-0.000169764
0.000191513
-0.0209588
0.000290535
-0.0279208
-0.000156509
-0.0282686
-0.0228508
-3.42354e-05
0.000485794
-0.0214103
0.000445063
-0.0284001
-0.000169133
-0.0276136
-0.0225748
0.000102707
0.000337159
-0.0218501
0.000174126
-0.0284715
-6.40291e-05
-0.0272125
-0.0224646
-0.000145905
2.26167e-05
-0.0217268
-4.16363e-05
-0.0285759
-0.000167679
-0.0270223
-0.0226738
-4.17637e-05
2.17689e-05
-0.0217067
-0.000107246
-0.0285103
-0.000183159
-0.0268172
-0.0229641
3.48004e-05
0.000145132
-0.0218866
1.64041e-05
-0.028492
-5.18999e-05
-0.0266203
-0.0229996
-0.000103771
0.000246338
-0.022029
0.000126615
-0.0287224
-0.000160827
-0.0262132
-0.0230335
0.000256808
8.38931e-05
-0.0223697
-0.000179333
-0.0282864
9.56384e-06
-0.026139
-0.0232032
0.000403714
0.000195719
-0.0229691
-0.00031449
-0.0275683
-0.000146952
-0.0257964
-0.0236647
0.000323676
0.000159765
-0.0234525
-0.0002614
-0.0269832
-0.000100933
-0.0255358
-0.024027
0.000250636
0.000116315
-0.0238194
-0.000199887
-0.0265328
-6.52559e-05
-0.0253542
-0.0242921
0.000194518
8.43292e-05
-0.0240983
-0.000152215
-0.0261861
-4.25559e-05
-0.0252274
-0.0244868
0.000151181
6.1061e-05
-0.0243106
-0.000115955
-0.025919
-2.73141e-05
-0.0251391
-0.0246302
0.000117646
4.39783e-05
-0.0244723
-8.83451e-05
-0.025713
-1.71587e-05
-0.0250779
-0.0247358
9.16757e-05
3.14787e-05
-0.0245956
-6.73496e-05
-0.025554
-1.02653e-05
-0.0250362
-0.0248135
7.1539e-05
2.23879e-05
-0.0246897
-5.14041e-05
-0.0254311
-4.64552e-06
-0.0250092
-0.0248698
5.59049e-05
1.5795e-05
-0.0247616
-3.92845e-05
-0.0253359
-3.79526e-07
-0.024993
-0.0249096
4.37506e-05
1.10266e-05
-0.0248165
-3.00509e-05
-0.0252621
1.74407e-06
-0.0249837
-0.0249381
3.42882e-05
7.616e-06
-0.0248586
-2.30109e-05
-0.0252048
2.82164e-06
-0.0249789
-0.0249584
2.69108e-05
5.20926e-06
-0.0248907
-1.76407e-05
-0.0251602
3.40738e-06
-0.0249771
-0.0249727
2.11504e-05
3.53633e-06
-0.0249154
-1.35404e-05
-0.0251255
3.59579e-06
-0.0249772
-0.0249826
1.66458e-05
2.37539e-06
-0.0249344
-1.04068e-05
-0.0250984
3.52729e-06
-0.0249783
-0.0249895
1.31181e-05
1.56993e-06
-0.0249491
-8.00926e-06
-0.0250773
3.31256e-06
-0.02498
-0.0249941
1.03512e-05
1.01342e-06
-0.0249603
-6.17256e-06
-0.0250608
3.02198e-06
-0.0249821
-0.0249972
8.17769e-06
6.32124e-07
-0.0249691
-4.76348e-06
-0.0250478
2.70069e-06
-0.0249841
-0.0249992
6.46785e-06
3.74321e-07
-0.0249759
-3.68088e-06
-0.0250377
2.37689e-06
-0.0249862
-0.0250004
5.12097e-06
2.0376e-07
-0.0249811
-2.84788e-06
-0.0250298
2.0674e-06
-0.024988
-0.0250011
4.05888e-06
9.43235e-08
-0.0249853
-2.20608e-06
-0.0250235
1.78139e-06
-0.0249898
-0.0250015
3.22077e-06
2.19183e-08
-0.0249885
-1.71107e-06
-0.0250186
1.52306e-06
-0.0249913
-0.0250017
2.55917e-06
-3.78518e-08
-0.024991
-1.32895e-06
-0.0250147
1.29353e-06
-0.0249926
-0.0250017
2.03639e-06
-7.37653e-08
-0.024993
-1.03384e-06
-0.0250117
1.09254e-06
-0.0249938
-0.0250017
1.62295e-06
-9.05991e-08
-0.0249945
-8.05814e-07
-0.0250093
9.18583e-07
-0.0249948
-0.0250016
1.29578e-06
-9.58707e-08
-0.0249957
-6.29508e-07
-0.0250073
7.69515e-07
-0.0249957
-0.0250014
1.03667e-06
-9.42867e-08
-0.0249966
-4.93028e-07
-0.0250058
6.42963e-07
-0.0249964
-0.0250012
8.31293e-07
-8.90191e-08
-0.0249973
-3.87172e-07
-0.0250046
5.36564e-07
-0.024997
-0.025001
6.68353e-07
-8.22174e-08
-0.0249978
-3.04843e-07
-0.0250036
4.48046e-07
-0.0249976
-0.0250008
5.39029e-07
-7.52902e-08
-0.0249982
-2.4062e-07
-0.0250028
3.75265e-07
-0.024998
-0.0250007
4.36481e-07
-6.90932e-08
-0.0249986
-1.9042e-07
-0.0250022
3.16219e-07
-0.0249984
-0.0250005
3.55474e-07
-6.40588e-08
-0.0249989
-1.51225e-07
-0.0250016
2.69051e-07
-0.0249987
-0.0250004
2.92056e-07
-6.03226e-08
-0.0249991
-1.20871e-07
-0.0250012
2.32049e-07
-0.024999
-0.0250003
2.43261e-07
-5.78207e-08
-0.0249993
-9.78545e-08
-0.0250009
2.03653e-07
-0.0249992
-0.0250002
2.06686e-07
-5.64159e-08
-0.0249995
-8.1128e-08
-0.0250006
1.82323e-07
-0.0249995
-0.0250001
1.79693e-07
-5.55158e-08
-0.0249997
-6.94022e-08
-0.0250003
1.66148e-07
-0.0249997
-0.0250001
1.65892e-07
-5.39951e-08
-6.28008e-08
1.57435e-07
)
;

boundaryField
{
    inlet
    {
        type            calculated;
        value           nonuniform List<scalar> 4(-0.0249999 -0.0249999 -0.0250001 -0.0250001);
    }
    outlet
    {
        type            calculated;
        value           nonuniform List<scalar> 4(0.025 0.0250008 0.0249997 0.0250002);
    }
    repeat_boundary
    {
        type            calculated;
        value           uniform 0;
    }
}


// ************************************************************************* //
