FoamFile
{version 2.0; format ascii;class vectorField; location 0;object  v;}
42
(
( -5.34194e-06 -3.0754e-05 2.98913e-05 )  
( 3.33385e-05 -2.01274e-06 4.15707e-05 )  
( 3.97076e-05 1.20445e-05 5.11018e-05 )  
( 1.18777e-05 7.00562e-05 0.000101955 )  
( 2.26093e-05 -3.65335e-05 7.48689e-05 )  
( -8.40844e-05 2.14962e-05 5.96772e-05 )  
( -1.55709e-05 6.23669e-05 0.000159682 )  
( 6.53144e-05 -2.29309e-05 9.19473e-05 )  
( -2.88107e-06 -5.17167e-05 0.000112641 )  
( 6.93662e-06 -2.89377e-05 0.000137548 )  
( -2.38304e-05 1.19128e-05 0.000120496 )  
( -1.77597e-05 -3.42025e-05 4.8987e-05 )  
( -0.00010963 1.08857e-06 0.000222533 )  
( 1.56849e-05 -5.79071e-05 8.8568e-05 )  
( -0.000125546 2.03511e-05 0.000280723 )  
( 0.000105347 -3.06281e-05 6.75345e-05 )  
( 2.47791e-05 -9.75657e-05 0.000162829 )  
( 3.15666e-06 -0.000122116 0.000188449 )  
( -4.92875e-06 -4.62378e-05 0.000193346 )  
( 0.00021858 -0.00017593 0.000216769 )  
( 8.85137e-05 -0.000149506 0.000160751 )  
( 1.2757e-05 -0.000125604 0.000118476 )  
( 0.000129467 4.47116e-05 0.000191497 )  
( 2.34047e-05 1.83991e-05 0.000176199 )  
( 5.11258e-05 -0.000125533 9.95046e-05 )  
( 0.000132954 7.06213e-05 -0.000116261 )  
( -1.0041e-05 -5.68775e-05 -4.72742e-05 )  
( 2.13241e-05 -2.49835e-05 -1.00855e-05 )  
( -9.27689e-05 -2.49533e-05 0.000163999 )  
( -7.00825e-05 -0.000107437 -1.12053e-05 )  
( 0.000200551 0.000130738 0.000101599 )  
( -0.000192221 -1.57977e-05 7.54362e-05 )  
( -9.08776e-05 -0.000153983 7.39775e-05 )  
( -8.3372e-05 7.20368e-05 -0.000167196 )  
( 3.57491e-05 1.79775e-05 -0.00030324 )  
( -0.000134109 3.15911e-06 -0.000450549 )  
( 0.000177126 -0.000148331 -0.000460896 )  
( 8.5537e-05 0.000219006 -0.000618968 )  
( -0.000220592 -0.000191224 -0.000692605 )  
( 3.95214e-05 -0.000164043 -0.00060015 )  
( 4.39206e-05 -0.000205919 -0.000666801 )  
( -8.17099e-05 3.66463e-05 -0.000704995 )  
)
