# Probe 0 (0 0 0.005)
# Probe 1 (0 0 -0.004)
#       Probe             0             1
#        Time
        0.001     0.0241714   1.32931e-09
        0.002     0.0286741  -1.63793e-09
        0.003     0.0216389    8.1281e-09
        0.004     0.0284046   -7.4687e-10
        0.005     0.0226139   2.78163e-10
        0.006     0.0243357  -1.24394e-08
        0.007     0.0201904  -5.18597e-09
        0.008     0.0275509    7.0639e-09
        0.009     0.0316341  -5.42068e-09
         0.01     0.0232297   1.49464e-09
