# Probe 0 (0 0 0.005)
# Probe 1 (0 0 -0.004)
#       Probe             0             1
#        Time
        0.001             1             1
        0.002             1             1
        0.003             1             1
        0.004             1             1
        0.005             1             1
        0.006             1             1
        0.007             1             1
        0.008             1             1
        0.009             1             1
         0.01             1             1
