FoamFile
{version 2.0; format ascii;class vectorField; location 0;object  v;}
42
(
( -1.86458e-05 -6.99898e-06 -1.59075e-05 )  
( -1.16438e-06 3.05346e-06 -1.82559e-05 )  
( 7.47344e-06 2.43826e-06 -1.78943e-05 )  
( 1.66469e-05 3.45956e-05 -6.97959e-06 )  
( -3.31871e-06 -4.42163e-06 -1.37882e-05 )  
( -2.05991e-05 -1.1616e-05 -1.29349e-05 )  
( 5.51619e-06 4.83603e-05 -2.04198e-05 )  
( 1.23956e-05 5.7453e-07 -3.27914e-05 )  
( -4.09227e-06 -1.23615e-05 -3.32862e-05 )  
( -2.06399e-06 3.44999e-06 -3.06482e-05 )  
( -4.63571e-06 1.48732e-05 -3.11305e-05 )  
( -1.72429e-05 3.64037e-07 -3.68959e-05 )  
( -6.35711e-05 2.88173e-05 -1.91117e-05 )  
( 1.70745e-07 7.7272e-07 -5.7389e-05 )  
( -2.58412e-05 1.98673e-05 -2.64087e-05 )  
( 6.34017e-06 6.82454e-06 -8.49676e-05 )  
( 7.61757e-07 -1.61376e-05 -5.09891e-05 )  
( 1.40372e-05 -2.76272e-05 -3.02462e-05 )  
( 1.56745e-05 -3.24785e-05 -4.90909e-05 )  
( 3.00221e-05 -7.06741e-05 -3.86687e-05 )  
( 1.54673e-05 -3.84871e-05 -4.68103e-05 )  
( 2.15346e-05 -4.17689e-05 -5.80584e-05 )  
( -3.29682e-05 -7.09382e-06 -2.39313e-05 )  
( 1.4714e-05 -2.83401e-05 -6.51264e-05 )  
( 1.34355e-05 -5.6817e-05 -4.57196e-05 )  
( 2.76848e-05 1.2158e-05 -0.000116022 )  
( -6.03218e-05 -4.6458e-05 -0.000103453 )  
( 8.59561e-06 -5.44091e-05 -8.40616e-05 )  
( -9.18593e-06 -5.51131e-05 -3.88979e-05 )  
( -3.29725e-06 -4.94852e-05 -9.1905e-05 )  
( -2.89027e-05 -2.59992e-05 -3.10114e-05 )  
( -4.9516e-05 -2.93448e-05 -7.69472e-05 )  
( -1.41924e-05 -3.1907e-05 -4.97709e-05 )  
( -3.96184e-05 1.51256e-05 -6.23295e-05 )  
( 2.11994e-05 -4.79867e-05 -0.00011285 )  
( -4.88112e-05 -1.80654e-06 -6.66451e-05 )  
( 3.89676e-05 -7.7485e-05 -0.000132695 )  
( 6.45384e-05 2.73287e-05 -0.000126041 )  
( -5.25915e-05 -3.74607e-05 -7.39276e-06 )  
( -6.06362e-06 6.62966e-06 -0.000165134 )  
( 3.54371e-05 -5.12266e-05 -7.64055e-05 )  
( -1.69361e-05 4.02119e-05 -4.64513e-05 )  
)
