/*--------------------------------*- C++ -*----------------------------------*\
  =========                 |
  \\      /  F ield         | OpenFOAM: The Open Source CFD Toolbox
   \\    /   O peration     | Website:  https://openfoam.org
    \\  /    A nd           | Version:  9
     \\/     M anipulation  |
\*---------------------------------------------------------------------------*/
FoamFile
{
    format      ascii;
    class       surfaceScalarField;
    location    "800";
    object      phi;
}
// * * * * * * * * * * * * * * * * * * * * * * * * * * * * * * * * * * * * * //

dimensions      [0 3 -1 0 0 0 0];

internalField   nonuniform List<scalar> 
716
(
8.89762e-09
-2.61785e-08
-0.0249997
-1.75572e-08
-0.0249994
1.739e-08
-0.0250009
-0.0250002
1.2534e-08
-4.83885e-08
-0.0249997
-3.02684e-08
-0.0249994
3.01635e-08
-0.025001
-0.0250002
1.7488e-08
-7.56248e-08
-0.0249996
-4.605e-08
-0.0249993
4.62554e-08
-0.0250011
-0.0250002
2.28862e-08
-1.06712e-07
-0.0249995
-6.37354e-08
-0.0249992
6.4781e-08
-0.0250012
-0.0250001
2.85561e-08
-1.42867e-07
-0.0249994
-8.36518e-08
-0.024999
8.65271e-08
-0.0250014
-0.0250001
3.43996e-08
-1.85828e-07
-0.0249992
-1.06291e-07
-0.0249989
1.12702e-07
-0.0250017
-0.0250001
4.02578e-08
-2.37763e-07
-0.024999
-1.3215e-07
-0.0249987
1.44782e-07
-0.0250021
-0.0250001
4.58464e-08
-3.01367e-07
-0.0249988
-1.61702e-07
-0.0249985
1.84564e-07
-0.0250025
-0.0250001
5.06318e-08
-3.80012e-07
-0.0249984
-1.95403e-07
-0.0249982
2.34343e-07
-0.0250031
-0.025
5.37163e-08
-4.77941e-07
-0.024998
-2.3365e-07
-0.0249979
2.96986e-07
-0.0250039
-0.025
5.39107e-08
-6.00503e-07
-0.0249975
-2.76726e-07
-0.0249976
3.7628e-07
-0.0250049
-0.0249999
4.9802e-08
-7.54471e-07
-0.0249968
-3.24718e-07
-0.0249972
4.77091e-07
-0.0250061
-0.0249997
3.9852e-08
-9.48437e-07
-0.0249959
-3.77395e-07
-0.0249968
6.05676e-07
-0.0250077
-0.0249995
2.36579e-08
-1.19332e-06
-0.0249947
-4.34048e-07
-0.0249964
7.70114e-07
-0.0250097
-0.0249992
-7.27329e-09
-1.50297e-06
-0.0249932
-4.93329e-07
-0.0249959
9.80873e-07
-0.0250122
-0.0249987
-7.25422e-08
-1.89515e-06
-0.0249913
-5.52734e-07
-0.0249954
1.25154e-06
-0.0250153
-0.024998
-1.67127e-07
-2.39314e-06
-0.0249887
-6.07642e-07
-0.024995
1.59978e-06
-0.0250193
-0.0249971
-3.06548e-07
-3.02666e-06
-0.0249854
-6.51081e-07
-0.0249947
2.04863e-06
-0.0250244
-0.0249957
-5.0964e-07
-3.83404e-06
-0.024981
-6.72343e-07
-0.0249945
2.62817e-06
-0.0250309
-0.0249937
-8.01702e-07
-4.86477e-06
-0.0249754
-6.55391e-07
-0.0249947
3.3777e-06
-0.0250391
-0.024991
-1.21714e-06
-6.18285e-06
-0.024968
-5.81249e-07
-0.0249953
4.34871e-06
-0.0250497
-0.0249872
-1.80263e-06
-7.8712e-06
-0.0249583
-4.3404e-07
-0.0249967
5.60855e-06
-0.0250632
-0.024982
-2.62076e-06
-1.00373e-05
-0.0249456
-2.16834e-07
-0.0249991
7.24478e-06
-0.0250805
-0.024975
-3.75464e-06
-1.28208e-05
-0.024929
2.99674e-07
-0.0250032
9.37053e-06
-0.0251027
-0.0249653
-5.32018e-06
-1.6403e-05
-0.0249073
1.05737e-06
-0.0250095
1.21382e-05
-0.0251312
-0.0249521
-7.472e-06
-2.10199e-05
-0.0248788
2.20899e-06
-0.0250192
1.57464e-05
-0.025168
-0.0249341
-1.0418e-05
-2.6979e-05
-0.0248414
3.9112e-06
-0.0250335
2.04558e-05
-0.0252154
-0.0249098
-1.44376e-05
-3.46816e-05
-0.0247923
6.38677e-06
-0.0250544
2.66092e-05
-0.0252767
-0.0248768
-1.99058e-05
-4.46523e-05
-0.0247277
9.93829e-06
-0.0250842
3.46582e-05
-0.025356
-0.0248322
-2.73261e-05
-5.75781e-05
-0.0246428
1.49781e-05
-0.0251265
4.51982e-05
-0.0254587
-0.024772
-3.73746e-05
-7.43593e-05
-0.0245311
2.20689e-05
-0.0251859
5.9016e-05
-0.0255921
-0.0246909
-5.0962e-05
-9.61811e-05
-0.024384
3.19829e-05
-0.0252688
7.71596e-05
-0.0257654
-0.0245818
-6.93726e-05
-0.000124669
-0.0241899
4.58209e-05
-0.025384
0.000101075
-0.0259911
-0.0244349
-9.46782e-05
-0.000162301
-0.0239329
6.53223e-05
-0.025544
0.000132916
-0.0262863
-0.0242367
-0.000129643
-0.000212322
-0.023591
9.28453e-05
-0.0257664
0.000175513
-0.0266742
-0.0239683
-0.000165335
-0.000263164
-0.0231625
0.000122032
-0.0260538
0.000219922
-0.0271572
-0.0236264
-0.000194032
-0.000298459
-0.02267
0.000149848
-0.0263977
0.000254103
-0.0277098
-0.0232224
-0.000182301
-0.000272866
-0.0222149
0.000157429
-0.0267375
0.000249032
-0.0282317
-0.022816
-0.000191064
-0.000258214
-0.0217657
0.000144002
-0.0270725
0.000214497
-0.0287044
-0.0224576
0.000535768
0.00070364
-0.0230052
-0.000321693
-0.026215
-0.000481644
-0.0275191
-0.0232609
-1.87956e-05
-1.99206e-05
-0.0229665
1.08205e-05
-0.0262447
1.34407e-05
-0.0275525
-0.0232367
-0.000191303
-0.000311654
-0.0224636
7.18838e-05
-0.0265078
0.000204996
-0.0280691
-0.0229598
-9.81396e-05
-0.00019015
-0.0221753
0.000132701
-0.0267387
0.00023149
-0.0284907
-0.0225956
-0.000290783
-0.000223558
-0.021661
9.07964e-05
-0.0271203
3.0452e-05
-0.0287448
-0.0224744
-0.000272026
-0.000216002
-0.021173
-0.000128531
-0.0272638
-0.000204585
-0.0287562
-0.0228075
-0.000221857
-7.51829e-05
-0.020876
-1.45069e-06
-0.0274842
-0.000221765
-0.0286096
-0.0230307
-0.00018009
0.000197473
-0.0208933
0.000298958
-0.0279632
-0.000163307
-0.0282488
-0.0228951
-4.82338e-05
0.000497398
-0.0213425
0.000453823
-0.0284652
-0.00017506
-0.0275762
-0.0226163
9.14287e-05
0.000356029
-0.02179
0.000190787
-0.0285645
-7.73301e-05
-0.0271429
-0.0225029
-0.000164788
4.08475e-05
-0.0216661
-8.29742e-06
-0.0287211
-0.000183783
-0.0269183
-0.022695
-7.18127e-05
5.63736e-05
-0.0216507
-7.6003e-05
-0.0287168
-0.000203449
-0.0266584
-0.0229744
1.74396e-05
0.000129185
-0.0217973
6.81121e-05
-0.0287675
-5.62096e-05
-0.026473
-0.0229625
1.89342e-06
0.000361584
-0.0221609
-5.47523e-05
-0.0287108
-0.000106511
-0.0260049
-0.0231237
0.0002396
0.000211567
-0.0226121
-0.000263481
-0.0282077
0.0001129
-0.0259062
-0.0232743
0.000330165
0.000187582
-0.0231298
-0.00030792
-0.0275697
-0.000113262
-0.0256054
-0.0236954
0.000297766
0.000128882
-0.0235564
-0.000259609
-0.0270123
-8.62776e-05
-0.0253902
-0.0240413
0.000236388
8.97182e-05
-0.0238825
-0.000202346
-0.0265736
-5.44662e-05
-0.0252461
-0.0242981
0.000186189
6.5269e-05
-0.024134
-0.000156025
-0.0262314
-3.41119e-05
-0.0251467
-0.0244882
0.000146596
4.76631e-05
-0.0243282
-0.000120164
-0.0259647
-2.06344e-05
-0.0250784
-0.024629
0.000115501
3.46016e-05
-0.0244783
-9.2521e-05
-0.0257566
-1.15449e-05
-0.0250323
-0.024733
9.11089e-05
2.49542e-05
-0.0245944
-7.12683e-05
-0.0255943
-5.72021e-06
-0.0250016
-0.02481
7.19604e-05
1.7887e-05
-0.0246842
-5.49562e-05
-0.0254673
-2.67055e-07
-0.0249834
-0.0248652
5.69097e-05
1.27145e-05
-0.0247538
-4.2409e-05
-0.025368
2.15314e-06
-0.0249729
-0.0249054
4.50648e-05
8.94458e-06
-0.0248078
-3.27509e-05
-0.0252902
3.53786e-06
-0.0249674
-0.0249346
3.57314e-05
6.21211e-06
-0.0248497
-2.53121e-05
-0.0252291
4.26142e-06
-0.0249655
-0.0249557
2.83676e-05
4.24468e-06
-0.0248823
-1.95792e-05
-0.0251811
4.5262e-06
-0.0249657
-0.0249707
2.25505e-05
2.83959e-06
-0.0249077
-1.51585e-05
-0.0251434
4.49894e-06
-0.0249674
-0.0249814
1.79494e-05
1.84639e-06
-0.0249275
-1.17476e-05
-0.0251137
4.29705e-06
-0.0249698
-0.0249888
1.43055e-05
1.15348e-06
-0.024943
-9.11452e-06
-0.0250902
3.99602e-06
-0.0249726
-0.024994
1.14161e-05
6.78324e-07
-0.0249551
-7.08048e-06
-0.0250717
3.64357e-06
-0.0249755
-0.0249974
9.1224e-06
3.60644e-07
-0.0249646
-5.50797e-06
-0.0250571
3.27072e-06
-0.0249784
-0.0249997
7.29955e-06
1.59994e-07
-0.024972
-4.29113e-06
-0.0250455
2.89811e-06
-0.0249812
-0.0250011
5.84978e-06
1.25294e-08
-0.0249779
-3.34845e-06
-0.0250363
2.53896e-06
-0.0249837
-0.0250019
4.69526e-06
-9.10675e-08
-0.0249825
-2.61726e-06
-0.025029
2.20147e-06
-0.024986
-0.0250023
3.77426e-06
-1.65345e-07
-0.0249861
-2.04938e-06
-0.0250232
1.89297e-06
-0.0249881
-0.0250025
3.03779e-06
-1.7407e-07
-0.024989
-1.60771e-06
-0.0250186
1.61757e-06
-0.0249899
-0.0250025
2.44853e-06
-1.82907e-07
-0.0249913
-1.26362e-06
-0.0250149
1.37495e-06
-0.0249915
-0.0250023
1.97635e-06
-1.79138e-07
-0.024993
-9.9506e-07
-0.025012
1.16388e-06
-0.0249929
-0.0250022
1.59744e-06
-1.68148e-07
-0.0249945
-7.85028e-07
-0.0250096
9.82219e-07
-0.0249941
-0.025002
1.29301e-06
-1.53943e-07
-0.0249956
-6.20443e-07
-0.0250077
8.27281e-07
-0.0249951
-0.0250017
1.04821e-06
-1.38873e-07
-0.0249965
-4.91238e-07
-0.0250062
6.9622e-07
-0.024996
-0.0250015
8.51285e-07
-1.24325e-07
-0.0249972
-3.89663e-07
-0.025005
5.86202e-07
-0.0249967
-0.0250013
6.92948e-07
-1.11055e-07
-0.0249978
-3.09752e-07
-0.025004
4.94524e-07
-0.0249973
-0.0250011
5.65836e-07
-9.93823e-08
-0.0249982
-2.46896e-07
-0.0250032
4.18686e-07
-0.0249978
-0.0250009
4.64121e-07
-8.92896e-08
-0.0249986
-1.97537e-07
-0.0250025
3.56422e-07
-0.0249982
-0.0250008
3.83165e-07
-8.07702e-08
-0.0249989
-1.58929e-07
-0.0250019
3.05699e-07
-0.0249986
-0.0250006
3.19126e-07
-7.42285e-08
-0.0249992
-1.28913e-07
-0.0250015
2.64606e-07
-0.0249989
-0.0250005
2.68528e-07
-6.94967e-08
-0.0249994
-1.05732e-07
-0.0250011
2.31216e-07
-0.0249992
-0.0250004
2.29092e-07
-6.58788e-08
-0.0249995
-8.83341e-08
-0.0250007
2.04524e-07
-0.0249995
-0.0250003
2.11191e-07
-6.39484e-08
-8.05324e-08
1.92407e-07
)
;

boundaryField
{
    inlet
    {
        type            calculated;
        value           nonuniform List<scalar> 4(-0.0249997 -0.0249997 -0.0250004 -0.0250002);
    }
    outlet
    {
        type            calculated;
        value           nonuniform List<scalar> 4(0.0249997 0.0250009 0.0249995 0.0250002);
    }
    repeat_boundary
    {
        type            calculated;
        value           uniform 0;
    }
}


// ************************************************************************* //
