# vtk DataFile Version 4.0
Generated by LIGGGHTS
ASCII
DATASET POLYDATA
POINTS 399 float
-154.337 -430.795 49.9572 21.796 -411.349 49.9449 182.529 -439.94 49.9804 
370.301 -371.314 50.2625 469.968 -361.958 50.9414 432.73 -456.17 50.2595 
-433.857 -175.403 49.9963 -305.198 -328.722 49.9886 -170.831 -217.601 50.0255 
4.80311 -193.42 49.9767 92.9299 -258.05 49.9803 189.997 -234.028 49.9909 
221.704 -328.865 49.9873 308.41 -279.054 49.9985 468.815 -198.213 50.0375 
366.523 -191.225 49.9805 -283.049 -72.9444 49.9945 -181.425 -3.86945 49.9831 
-189.525 -108.329 50.1021 -91.7004 -156.464 49.9816 86.0225 -134.707 49.9933 
146.405 -54.9334 49.97 330.594 -93.1646 49.9849 429.699 -106.226 49.9779 
421.023 -6.14037 49.9917 -425.715 28.8302 50.1619 -440.168 137.093 49.9766 
-277.613 26.8711 49.9856 -251.685 123.402 49.9817 -140.521 88.0777 49.9868 
163.437 117.059 49.9883 308.815 4.39912 49.9924 274.034 98.4369 49.9775 
472.231 88.9536 49.9863 -363.631 201.383 50.0826 -180.588 193.66 49.9746 
-112.782 267.149 49.9929 -19.5368 230.253 49.9901 49.8484 309.399 49.98 
244.817 291.807 49.9936 179.78 215.68 49.9761 282.781 198.807 49.9935 
343.901 278.232 49.9935 441.945 298.618 49.9935 421.07 182.485 49.9935 
-482.842 364.785 49.9935 -103.12 467.599 49.9873 -24.691 376.201 49.9931 
-0.62817 474.056 49.92 247.222 391.854 49.9943 256.025 491.456 50.0023 
355.465 474.936 50.0596 422.004 400.157 49.9905 498.944 464.307 50.0055 
-468.112 -441.136 50.025 -378.37 -396.978 50 -416.961 -457.884 134.424 
-467.554 -371.764 129.166 -373.381 -332.556 126.338 -268.006 -470.509 49.987 
-318.752 -426.053 126.251 -233.821 -385.759 90.5572 -219.199 -435.424 176.083 
-187.706 -342.597 197.12 -291.598 -358.029 194.526 -72.4696 -370.306 52.5615 
-119.524 -390.14 138.536 -53.6582 -458.436 100.917 -146.65 -489.274 130.739 
90.3806 -484.486 50.0868 125.449 -357.648 49.9935 9.04206 -395.414 147.774 
116.565 -431.208 130.638 34.7766 -491.75 137.187 278.562 -411.122 49.9936 
175.58 -487.114 189.1 219.786 -390.861 128.721 270.064 -471.932 158.876 
317.768 -338.889 130.239 355.63 -447.493 113.319 453.988 -431.825 146.979 
373.549 -393.045 195.463 -440.554 -316.956 49.9965 -469.004 -244.721 113.062 
-366.666 -251.636 66.5503 -392.376 -184.282 140.539 -455.192 -299.376 197.046 
-269.414 -234.494 49.9935 -305.4 -234.174 143.624 -226.183 -290.74 120.728 
-216.914 -174.76 199.955 -81.425 -266.99 50.008 -163.195 -325.3 49.9929 
-147.099 -238.074 151.879 -49.5398 -313.687 134.489 -55.1565 -205.585 129.033 
8.81742 -312.129 49.9922 88.7682 -335.616 140.583 131.474 -215.867 132.025 
37.1611 -250.165 132.594 268.496 -171.532 49.9948 205.139 -283.227 137.394 
292.355 -231.168 136.304 212.409 -195.53 187.112 411.983 -280.454 49.9785 
448.855 -315.281 139.131 394.386 -231.454 137.173 478.226 -224.791 196.061 
-389.441 -72.5245 50.001 -487.826 -49.5701 50.0144 -494.541 -135.192 118.597 
-435.59 -52.3747 136.412 -338.271 -99.4729 131.75 -351.541 -2.54291 110.527 
-335.391 -158.119 50.0322 -255.713 -153.581 110.262 -224.053 -57.7412 129.276 
-4.86747 -92.9813 49.9749 -143.672 -139.238 134.145 -99.7292 -58.5047 68.3553 
-15.6416 -40.0818 134.533 -121.642 -46.1066 165.111 -57.9851 -121.179 182.543 
26.6235 -142.349 133.177 111.953 -90.5228 138.666 69.1674 -8.81789 177.405 
175.709 -13.5323 140.381 180.454 -141.482 86.6248 240.91 -61.6831 81.8403 
277.369 -132.486 142.313 273.127 -38.5713 176.322 376.637 -132.759 130.449 
445.462 -56.9577 135.543 -348.36 97.5224 49.9833 -410.959 75.0728 137.589 
-492.182 90.2504 194.911 -497.912 24.1614 120.05 -300.406 105.394 137.392 
-210.467 62.4987 118.9 -277.359 14.2463 175.431 -202.871 159.647 141.327 
-37.4043 111.384 49.9935 -30.8176 11.5665 49.9878 -92.767 40.3996 123.889 
-106.648 121.703 180.429 63.2664 108.287 49.9847 69.1178 8.48218 49.9938 
17.644 60.0583 126.119 117.48 65.7691 122.476 14.6178 164.289 117.032 
120.905 165.531 131.366 204.966 26.1154 49.9911 252.669 50.0239 134.81 
226.55 145.893 124.068 330.003 127.23 127.995 372.554 81.3994 49.9855 
365.287 3.08845 132.497 430.275 126.462 132.657 -486.6 225.733 49.9736 
-408.217 292.355 50.1689 -483.913 294.584 122.415 -335.765 264.718 122.235 
-478.985 171.231 137.152 -379.074 170.039 144.379 -309.98 329.523 50.1177 
-206.804 319.242 50.01 -270.437 237.631 49.9931 -184.826 258.243 126.153 
-286.913 198.154 179.458 -258.792 297.888 183.373 -94.3692 178.719 98.3602 
-46.593 303.713 115.422 -50.3346 220.199 177.977 -127.741 322.374 177.343 
78.7148 207.063 49.996 122.839 274.76 108.884 36.6654 270.032 159.396 
219.824 244.794 136.83 308.624 214.089 172.681 344.573 307.525 167.656 
407.131 237.817 132.54 -387.089 395.093 49.9681 -389.544 495.32 49.9926 
-439.449 361.547 182.015 -435.69 443.827 124.18 -349.668 363.16 137.005 
-340.557 473.405 134.45 -193.969 425.748 49.9942 -294.571 433.041 50.0117 
-240.775 476.632 130.42 -251.795 374.868 119.916 -120.24 363.138 77.031 
-165.11 414.409 150.257 -60.3252 445.543 137.624 -41.524 369.115 199.628 
73.8693 407.471 49.9787 164.896 448.852 50.0212 157.476 347.772 49.9939 
120.172 444.988 140.683 36.1364 370.913 136.367 129.173 350.776 173.541 
221.43 344.713 134.568 221.882 444.656 132.098 281.774 395.378 196.094 
335.713 372.875 92.4996 467.761 380.915 136.802 427.481 471.57 119.772 
371.798 438.891 196.131 -360.429 -479.052 220.105 -403.034 -389.365 206.134 
-268.499 -466.063 257.512 -85.2493 -330.55 248.628 -77.6604 -460.912 197.875 
-69.8484 -421.137 289.312 96.5234 -465.483 246.541 158.204 -368.613 204.664 
27.4444 -425.496 313.916 314.077 -456.113 247.248 253.704 -338.713 207.25 
219.852 -424.948 261.4 490.865 -401.114 236.888 362.527 -384.84 298.35 
-357.488 -285.082 213.07 -409.572 -195.27 239.244 -250.868 -267.254 220.621 
-190.003 -328.521 298.302 -49.2182 -240.071 222.731 -151.775 -233.037 251.709 
-73.2922 -198.521 310.704 13.4637 -319.169 212.349 95.5546 -259.739 214.388 
100.151 -170.454 306.732 199.814 -228.097 280.813 335.228 -279.101 212.881 
429.344 -300.705 239.102 335.788 -178.849 209.634 332.661 -212.026 303.976 
-478.217 -141.56 307.959 -372.877 -43.9992 213.841 -459.481 -112.845 212.391 
-439.019 -38.4936 291.312 -210.517 -45.0608 227.532 -307.653 -136.926 219.446 
-207.057 -125.852 289.619 -309.501 1.74912 276.794 -111.301 -100.196 264.495 
11.9625 -13.1512 296.595 4.26187 -142.114 257.876 91.6199 -160.089 207.545 
277.695 -121.757 269.059 442.582 -131.857 205.611 364.739 -66.8354 204.682 
452.993 4.8133 213.913 -453.322 65.0077 283.698 -371.13 102.091 225.712 
-195.873 98.0076 219.758 -9.65367 55.0046 222.302 -91.5238 124.806 279.244 
7.05406 145.454 263.675 90.0916 78.0307 222.512 191.916 82.3438 209.79 
284.378 120.433 216.75 322.23 80.4073 332.923 379.14 74.1089 202.151 
326.946 9.3322 257.949 447.805 63.0575 299.168 -360.462 293.961 219.477 
-342.495 210.406 273.907 -478.371 300.988 269.993 -232.293 233.532 255.817 
-145.926 209.942 206.37 143.795 243.748 201.752 43.4377 239.147 254.323 
295.174 288.906 253.359 391.304 173.721 212.221 481.975 237.878 201.024 
442.462 223.839 294.366 -484.317 503.986 197.824 -410.497 440.088 252.751 
-284.508 424.651 203.791 -202.93 368.258 231.705 -305.585 356.686 275.118 
-3.84839 468.094 220.359 -116.66 442.593 233.168 47.1485 338.23 234.889 
191.395 398.968 238.741 252.922 454.43 304.61 410.419 343.282 234.733 
464.474 436.691 251.267 -359.11 -329.828 312.255 -85.3913 13.9901 364.012 
-409.77 194.626 471.14 243.262 -327.954 563.166 -260.519 -90.635 662.365 
-1.24203 -119.378 695.469 -161.633 129.218 572.785 285.644 150.808 673.276 
152.117 308.341 641.72 30.7491 356.419 595.128 -143.504 -365.4 843.9 
91.8171 -74.6316 796.645 197.638 -67.3074 731.017 -352.49 437.071 856.638 
-195.345 -243.497 871.389 -311.317 71.0354 981.388 -5.78382 260.266 976.807 
-250.345 443.904 996.744 -369.029 -440.437 1132.51 138.798 -362.706 1117.92 
-348.204 -248.236 1087.87 171.74 -268.642 1033.54 289.954 -258.104 1098.52 
-384.249 -78.4768 1073.62 -25.1562 -24.1759 1075.92 -142.683 -80.0691 1140.54 
-73.7708 70.2421 1066.66 190.051 156.098 1100.54 -297.427 195.058 1052.93 
-137.751 369.083 1061.31 98.0242 386.69 1174.24 400.962 381.241 1078.79 
-54.4824 -194.821 1245.47 349.319 -168.857 1183.87 122.464 12.5311 1198.92 
233.419 30.5648 1329.04 407.532 34.0854 1226.61 -386.021 247.829 1194.99 
281.716 401.891 1323.55 -354.49 -339.071 1494.12 -15.4077 -370.152 1467.56 
17.4551 -125.029 1436.75 226.737 -103.717 1346.05 49.2349 140.777 1360.57 
-262.212 267.462 1461 300.875 280.331 1486.87 -449.45 340.403 1481.55 
-42.2684 341.111 1378.54 356.023 -403.626 1507.74 -156.595 -270.565 1560.47 
93.7623 -194.872 1545.82 -422.874 -55.3435 1647.91 -323.463 -78.6145 1654.04 
-437.152 163.97 1515.15 188.217 131.883 1625.89 -170.11 295.668 1645.43 
83.969 302.068 1503.61 438.029 389.335 1604.4 -245.362 -333.398 1784.26 
250.27 -349.194 1735.72 -343.78 -215.313 1785.96 -247.215 -168.602 1702.99 
11.614 -239.201 1733.02 318.593 -236.386 1737.88 -117.103 -137.65 1696.97 
408.371 -104.599 1709.97 -118.113 9.9513 1760.91 100.283 87.7915 1802.29 
-387.28 259.898 1758.91 -34.5172 169.949 1798.86 -170.152 420.931 1720.34 
-308.724 383.499 1792.42 -359.33 -443.709 1936.64 -36.4183 -436.55 1900.34 
132.078 -338.194 1838.09 414.917 -441.997 1971 -94.9123 -211.244 1978.12 
-431.883 -69.5893 1973.33 -192.764 -126.642 1979.21 -51.7651 -60.0638 1879.1 
22.8197 -132.525 1853.1 189.791 -36.4892 1936.31 275.502 -86.3413 1964.81 
363.968 -14.9415 1859.61 -239.897 146.505 1942.76 62.3638 181.931 1931.24 
224.836 265.933 1851.12 425.078 178.006 1951.48 -215.007 418.496 1984.07 
104.403 412.822 1952.73 288.86 414.033 1858.72 369.638 354.169 1898.14 
202.83 -338.368 2025.51 -399.574 -212.265 1996.56 -368.589 -311.759 2027.36 
-144.119 -323.575 2028.31 335.434 -317.18 1988.28 66.948 -26.6202 1993.07 
327.909 -10.4219 2033.08 -202.904 96.5128 2043.2 -66.8919 155.422 2003.03 
108.181 101 2041.5 227.901 24.7934 2030.19 360.293 99.5276 2030.27 
-350.197 209.46 2048.03 -398.649 327.066 2016.28 -206.538 326.412 2040.8 
230.662 194.237 2036.56 -35.5955 372.952 1988.94 232.773 392.274 2008.03 

VERTICES 399 798
1 0 
1 1 
1 2 
1 3 
1 4 
1 5 
1 6 
1 7 
1 8 
1 9 
1 10 
1 11 
1 12 
1 13 
1 14 
1 15 
1 16 
1 17 
1 18 
1 19 
1 20 
1 21 
1 22 
1 23 
1 24 
1 25 
1 26 
1 27 
1 28 
1 29 
1 30 
1 31 
1 32 
1 33 
1 34 
1 35 
1 36 
1 37 
1 38 
1 39 
1 40 
1 41 
1 42 
1 43 
1 44 
1 45 
1 46 
1 47 
1 48 
1 49 
1 50 
1 51 
1 52 
1 53 
1 54 
1 55 
1 56 
1 57 
1 58 
1 59 
1 60 
1 61 
1 62 
1 63 
1 64 
1 65 
1 66 
1 67 
1 68 
1 69 
1 70 
1 71 
1 72 
1 73 
1 74 
1 75 
1 76 
1 77 
1 78 
1 79 
1 80 
1 81 
1 82 
1 83 
1 84 
1 85 
1 86 
1 87 
1 88 
1 89 
1 90 
1 91 
1 92 
1 93 
1 94 
1 95 
1 96 
1 97 
1 98 
1 99 
1 100 
1 101 
1 102 
1 103 
1 104 
1 105 
1 106 
1 107 
1 108 
1 109 
1 110 
1 111 
1 112 
1 113 
1 114 
1 115 
1 116 
1 117 
1 118 
1 119 
1 120 
1 121 
1 122 
1 123 
1 124 
1 125 
1 126 
1 127 
1 128 
1 129 
1 130 
1 131 
1 132 
1 133 
1 134 
1 135 
1 136 
1 137 
1 138 
1 139 
1 140 
1 141 
1 142 
1 143 
1 144 
1 145 
1 146 
1 147 
1 148 
1 149 
1 150 
1 151 
1 152 
1 153 
1 154 
1 155 
1 156 
1 157 
1 158 
1 159 
1 160 
1 161 
1 162 
1 163 
1 164 
1 165 
1 166 
1 167 
1 168 
1 169 
1 170 
1 171 
1 172 
1 173 
1 174 
1 175 
1 176 
1 177 
1 178 
1 179 
1 180 
1 181 
1 182 
1 183 
1 184 
1 185 
1 186 
1 187 
1 188 
1 189 
1 190 
1 191 
1 192 
1 193 
1 194 
1 195 
1 196 
1 197 
1 198 
1 199 
1 200 
1 201 
1 202 
1 203 
1 204 
1 205 
1 206 
1 207 
1 208 
1 209 
1 210 
1 211 
1 212 
1 213 
1 214 
1 215 
1 216 
1 217 
1 218 
1 219 
1 220 
1 221 
1 222 
1 223 
1 224 
1 225 
1 226 
1 227 
1 228 
1 229 
1 230 
1 231 
1 232 
1 233 
1 234 
1 235 
1 236 
1 237 
1 238 
1 239 
1 240 
1 241 
1 242 
1 243 
1 244 
1 245 
1 246 
1 247 
1 248 
1 249 
1 250 
1 251 
1 252 
1 253 
1 254 
1 255 
1 256 
1 257 
1 258 
1 259 
1 260 
1 261 
1 262 
1 263 
1 264 
1 265 
1 266 
1 267 
1 268 
1 269 
1 270 
1 271 
1 272 
1 273 
1 274 
1 275 
1 276 
1 277 
1 278 
1 279 
1 280 
1 281 
1 282 
1 283 
1 284 
1 285 
1 286 
1 287 
1 288 
1 289 
1 290 
1 291 
1 292 
1 293 
1 294 
1 295 
1 296 
1 297 
1 298 
1 299 
1 300 
1 301 
1 302 
1 303 
1 304 
1 305 
1 306 
1 307 
1 308 
1 309 
1 310 
1 311 
1 312 
1 313 
1 314 
1 315 
1 316 
1 317 
1 318 
1 319 
1 320 
1 321 
1 322 
1 323 
1 324 
1 325 
1 326 
1 327 
1 328 
1 329 
1 330 
1 331 
1 332 
1 333 
1 334 
1 335 
1 336 
1 337 
1 338 
1 339 
1 340 
1 341 
1 342 
1 343 
1 344 
1 345 
1 346 
1 347 
1 348 
1 349 
1 350 
1 351 
1 352 
1 353 
1 354 
1 355 
1 356 
1 357 
1 358 
1 359 
1 360 
1 361 
1 362 
1 363 
1 364 
1 365 
1 366 
1 367 
1 368 
1 369 
1 370 
1 371 
1 372 
1 373 
1 374 
1 375 
1 376 
1 377 
1 378 
1 379 
1 380 
1 381 
1 382 
1 383 
1 384 
1 385 
1 386 
1 387 
1 388 
1 389 
1 390 
1 391 
1 392 
1 393 
1 394 
1 395 
1 396 
1 397 
1 398 

POINT_DATA 399
FIELD FieldData 7
id 1 399 int
35 53 19 79 26 101 72 22 82 
99 14 60 61 97 80 41 18 110 
17 28 111 24 43 39 33 81 58 
69 8 1 32 105 134 44 87 23 
129 30 100 2 95 48 59 16 76 
38 66 71 7 6 114 40 55 50 
20 92 77 154 140 9 106 155 173 
120 157 74 67 96 127 73 25 228 
118 185 37 192 122 171 164 88 175 
207 29 159 119 133 279 31 183 161 
211 36 52 116 141 112 84 167 124 
193 4 208 227 216 102 90 150 214 
34 27 108 170 68 98 15 103 221 
85 78 142 123 146 166 169 224 200 
151 132 89 181 245 47 158 91 109 
217 75 138 152 215 197 104 11 165 
172 93 21 117 196 115 107 46 178 
113 130 5 223 156 3 56 143 65 
160 204 63 45 86 137 219 190 136 
121 176 168 57 145 202 139 194 182 
131 10 12 256 94 184 125 70 42 
147 213 62 128 220 198 51 54 13 
144 64 149 212 148 257 153 49 83 
188 195 249 270 254 230 334 203 126 
239 246 218 252 199 320 267 251 276 
273 189 277 292 233 205 236 262 201 
255 174 238 268 244 259 341 229 240 
234 282 241 180 283 186 272 179 163 
209 265 258 177 210 253 271 248 191 
226 231 206 242 260 278 266 250 247 
187 135 263 275 225 162 237 281 264 
222 280 232 285 284 243 261 336 269 
274 303 235 330 308 302 342 310 312 
325 327 290 301 319 311 326 298 322 
316 318 306 296 339 317 293 315 304 
332 289 295 321 300 288 324 309 340 
338 287 299 333 335 323 329 297 294 
337 291 314 305 286 307 331 362 380 
328 395 384 313 372 376 364 367 370 
373 396 359 388 350 397 390 346 387 
343 393 369 345 357 389 366 363 394 
392 378 351 356 386 383 368 348 349 
344 355 382 365 352 379 381 347 374 
385 371 399 361 398 358 353 354 391 
360 377 375 
type 1 399 int
1 1 1 1 1 1 1 1 1 
1 1 1 1 1 1 1 1 1 
1 1 1 1 1 1 1 1 1 
1 1 1 1 1 1 1 1 1 
1 1 1 1 1 1 1 1 1 
1 1 1 1 1 1 1 1 1 
1 1 1 1 1 1 1 1 1 
1 1 1 1 1 1 1 1 1 
1 1 1 1 1 1 1 1 1 
1 1 1 1 1 1 1 1 1 
1 1 1 1 1 1 1 1 1 
1 1 1 1 1 1 1 1 1 
1 1 1 1 1 1 1 1 1 
1 1 1 1 1 1 1 1 1 
1 1 1 1 1 1 1 1 1 
1 1 1 1 1 1 1 1 1 
1 1 1 1 1 1 1 1 1 
1 1 1 1 1 1 1 1 1 
1 1 1 1 1 1 1 1 1 
1 1 1 1 1 1 1 1 1 
1 1 1 1 1 1 1 1 1 
1 1 1 1 1 1 1 1 1 
1 1 1 1 1 1 1 1 1 
1 1 1 1 1 1 1 1 1 
1 1 1 1 1 1 1 1 1 
1 1 1 1 1 1 1 1 1 
1 1 1 1 1 1 1 1 1 
1 1 1 1 1 1 1 1 1 
1 1 1 1 1 1 1 1 1 
1 1 1 1 1 1 1 1 1 
1 1 1 1 1 1 1 1 1 
1 1 1 1 1 1 1 1 1 
1 1 1 1 1 1 1 1 1 
1 1 1 1 1 1 1 1 1 
1 1 1 1 1 1 1 1 1 
1 1 1 1 1 1 1 1 1 
1 1 1 1 1 1 1 1 1 
1 1 1 1 1 1 1 1 1 
1 1 1 1 1 1 1 1 1 
1 1 1 1 1 1 1 1 1 
1 1 1 1 1 1 1 1 1 
1 1 1 1 1 1 1 1 1 
1 1 1 1 1 1 1 1 1 
1 1 1 1 1 1 1 1 1 
1 1 1 
i 3 399 int
0 0 0 0 0 0 0 0 0 
0 0 0 -1 0 0 0 1 0 
0 0 0 1 0 0 0 0 0 
0 0 0 0 0 0 0 0 0 
0 0 0 0 0 0 -1 0 0 
0 0 0 0 0 0 0 0 0 
0 0 0 0 0 0 0 0 0 
0 0 0 0 0 0 -1 0 0 
-1 0 0 0 0 0 0 0 0 
0 0 0 0 0 0 0 0 0 
0 0 0 0 0 0 0 0 0 
-1 0 0 0 0 0 0 0 0 
0 0 0 0 0 0 0 0 0 
0 0 0 0 0 0 0 0 0 
0 0 0 -1 0 0 0 0 0 
1 0 0 0 -1 0 0 0 0 
0 -1 0 0 0 0 0 0 0 
0 -1 0 0 -1 0 -1 0 0 
0 0 0 0 0 0 0 0 0 
0 0 0 0 0 0 0 1 0 
0 1 0 0 0 0 0 0 0 
0 0 0 1 0 0 0 0 0 
0 1 0 0 1 0 0 0 0 
0 1 0 0 1 0 0 0 0 
0 0 0 0 0 0 0 0 0 
0 0 0 0 0 0 0 0 0 
0 0 0 0 0 0 0 1 0 
0 0 0 1 0 0 0 0 0 
0 0 0 0 0 0 0 0 0 
0 0 0 0 0 0 0 0 0 
0 0 0 0 0 0 0 0 0 
0 0 0 0 0 0 0 0 0 
0 0 0 0 0 0 0 0 0 
0 0 0 0 0 0 0 0 0 
0 0 0 0 0 0 0 0 0 
0 0 0 0 0 0 -1 0 0 
0 0 0 1 0 0 1 0 0 
0 0 0 0 0 0 0 0 0 
0 0 0 0 0 0 0 0 0 
0 0 0 0 0 0 0 0 0 
0 0 0 0 0 0 0 0 0 
0 0 0 0 0 0 0 0 0 
0 0 0 0 0 0 0 0 0 
0 0 0 0 0 0 0 0 0 
0 0 0 0 0 0 0 0 0 
0 0 0 1 0 0 0 0 0 
0 0 0 0 0 0 0 0 0 
0 0 0 0 0 0 0 0 0 
0 0 0 0 0 0 0 0 0 
0 0 0 0 0 0 0 0 0 
0 0 0 0 0 0 0 0 0 
0 0 0 0 0 0 0 0 0 
0 0 0 0 0 0 0 0 0 
0 0 0 1 0 0 0 0 0 
0 0 0 0 0 0 0 0 0 
0 0 0 0 0 0 0 0 0 
0 0 0 0 0 0 0 0 0 
0 0 0 0 0 0 0 0 0 
0 0 0 0 0 0 0 0 0 
0 0 0 0 0 0 0 0 0 
0 0 0 0 0 0 0 -1 0 
0 0 0 0 0 0 0 0 0 
0 0 0 0 0 0 0 0 0 
0 0 0 0 0 0 0 0 0 
0 -1 0 0 0 0 0 0 0 
0 0 0 0 0 0 0 0 0 
0 0 0 0 0 0 0 0 0 
0 0 0 0 0 0 0 0 0 
0 0 0 0 0 0 0 0 0 
0 0 0 0 0 0 0 0 0 
0 1 0 0 0 0 0 1 0 
0 0 0 0 0 0 0 0 0 
0 0 0 0 0 0 0 0 0 
0 0 0 0 0 0 0 0 0 
0 0 0 0 0 0 0 0 0 
0 0 0 0 0 0 0 0 0 
0 0 0 0 0 0 0 0 0 
0 0 0 0 0 0 -1 0 0 
0 0 0 0 0 0 0 0 0 
1 0 0 0 0 0 0 0 0 
0 0 0 0 0 0 0 0 0 
0 0 0 0 0 0 0 0 0 
0 0 0 0 0 0 0 0 0 
0 0 0 -1 0 0 0 0 0 
-1 0 0 0 0 0 0 0 0 
0 0 0 0 0 0 0 0 0 
0 0 0 0 0 0 0 0 0 
0 0 0 0 0 0 0 0 0 
0 0 0 0 0 0 0 0 0 
0 0 0 0 0 0 0 0 0 
0 0 0 0 0 0 0 0 0 
0 0 0 0 0 0 -1 0 0 
0 0 0 0 0 0 0 0 0 
0 0 0 0 0 0 0 0 0 
0 0 0 0 0 0 0 0 0 
0 0 0 0 0 0 0 0 0 
0 0 0 0 0 0 0 0 0 
0 0 0 0 0 0 0 0 0 
0 0 0 0 0 0 0 0 0 
0 0 0 0 0 0 0 0 0 
0 0 0 0 0 0 0 0 0 
0 0 0 0 0 0 0 0 0 
0 0 0 0 0 0 0 0 0 
0 0 0 0 0 0 0 0 0 
0 0 0 0 0 0 0 0 0 
0 0 0 0 0 0 0 0 0 
0 0 0 0 0 0 0 0 0 
0 0 0 0 0 0 0 0 0 
0 0 0 0 0 0 0 0 0 
0 0 0 0 0 0 0 0 0 
0 0 0 0 0 0 0 0 0 
0 0 0 0 0 0 0 0 0 
0 0 0 0 0 0 0 0 0 
0 0 0 0 0 0 0 0 0 
0 0 0 0 0 0 0 0 0 
0 0 0 0 0 0 0 0 0 
0 0 0 0 0 0 0 0 0 
0 0 0 0 0 0 0 0 0 
0 0 0 0 0 0 0 0 0 
0 0 0 0 0 0 0 0 0 
0 0 0 0 0 0 0 0 0 
0 0 0 0 0 0 0 0 0 
0 0 0 0 0 0 0 0 0 
0 0 0 0 0 0 0 0 0 
0 0 0 0 0 0 0 0 0 
0 0 0 0 0 0 0 0 0 
0 0 0 0 0 0 0 0 0 
0 0 0 0 0 0 0 0 0 
0 0 0 0 0 0 0 0 0 
0 0 0 0 0 0 0 0 0 
0 0 0 0 0 0 0 0 0 
0 0 0 0 0 0 0 0 0 
0 0 0 0 0 0 0 0 0 

v 3 399 double
-0.00180606 0.000625957 0.000293745 0.00373944 -0.00566429 -0.0021431 -0.00108511 -0.000746 0.000275963 
0.000147649 0.000446365 -0.00285852 -0.00147431 -1.73646e-05 -0.000706213 0.000875359 -0.00316686 -0.00189647 
-0.000870513 0.00482397 -0.000229325 -1.97188e-05 0.00316289 -0.000594434 -0.00182166 0.00160112 -0.000181325 
-0.000442578 0.00114172 -0.000913168 0.00182153 -0.00189743 0.000160534 0.00182926 0.000250041 7.61596e-05 
-0.00203729 -0.00100435 -4.75579e-05 -0.00289899 0.000325891 -0.00024573 0.000286748 0.00100821 0.000811841 
0.00131093 0.00106483 -0.000399864 0.00154916 2.29978e-05 -0.000445989 -0.00141316 0.000415075 7.6966e-05 
0.00153387 0.000996427 0.000699498 -0.0022028 0.00191817 0.000193023 0.00311362 -0.00280229 4.17171e-06 
-0.000693222 -0.000590073 0.000351275 -0.000144496 6.48581e-05 0.000167041 0.000221383 0.00126034 -0.000299363 
-0.0002197 -0.000502041 7.3177e-05 -0.00236567 0.00269128 0.000130122 -0.000164983 -0.000298091 -0.000333756 
0.000131196 0.000143468 0.000266845 0.000595787 0.000644132 0.000402788 0.000714107 0.00222232 6.65457e-05 
2.50415e-05 -0.000594811 6.59319e-05 -0.000104335 0.000377433 0.000303606 -7.70498e-05 2.69207e-06 -0.000304227 
-0.000377999 0.000189389 0.000324962 0.00106235 -0.00149816 -0.000528743 0.00104159 -5.30148e-05 -0.000171881 
0.00166337 -0.000622747 -1.773e-05 0.00241847 -0.000720714 0.000127019 0.00209636 -0.00206654 0.000710677 
0.000389221 0.000471501 -4.62423e-06 -0.00145955 0.000108327 0.000105866 0.00131272 0.000108257 -5.98235e-13 
0.000303235 0.000914081 7.39021e-11 -0.000284866 -0.000582292 -4.01742e-08 -0.0080128 -0.0071017 6.79268e-06 
-0.00126999 0.00105684 8.04495e-08 -0.000352215 0.00239993 4.38214e-05 0.002897 -0.000392325 -1.64237e-05 
0.00146525 -0.00118869 -0.0103199 -8.16989e-05 -3.43915e-05 -0.000287698 -0.000173795 0.000291152 1.52595e-05 
0.00289586 -0.00117274 0.000311668 -0.000157856 0.000787457 0.000111699 -0.000196519 0.00103003 -4.12761e-06 
0.000219293 0.000999863 -9.9631e-05 -0.000595917 0.00369645 -0.000101748 0.0106156 0.0120949 -0.00305539 
-0.00179522 0.00582323 0.0023774 0.00107583 0.00475899 -0.000640654 -0.00223731 -0.000514062 0.000273501 
0.00384178 0.00338576 -0.00181291 -0.00144666 0.000492349 -0.00246719 0.00358894 6.83193e-05 -0.00331228 
-0.00455088 0.0012235 -0.00137635 -0.00467029 0.00431304 0.0014673 -0.00490923 0.00527409 -0.00782208 
-0.00908221 0.00169897 -0.0107466 0.00107027 0.0038611 -0.0184097 -0.00165421 -0.00271837 -0.00594707 
-0.0017954 0.0010819 9.91822e-05 -0.000870807 -0.00101741 8.74411e-08 0.000579364 0.00420382 -0.00190267 
-0.000635475 -0.00298538 0.000795693 0.0046328 -0.00164339 -0.00199435 1.43533e-06 0.000425408 0.000243291 
0.00423588 0.00223161 0.00119027 -0.00275842 0.00145506 -2.67966e-05 0.000147559 0.000808438 -0.00333491 
-0.00890477 -0.00243472 -0.00561798 0.00199732 0.000170836 -0.00122958 0.00808733 -0.00526478 0.00309646 
0.000770015 0.00526388 -0.001273 -0.00465962 0.00448619 0.000154639 0.000294862 0.00515602 0.00261118 
-0.0020202 0.00244282 -0.00175508 -0.00145166 0.00860988 -0.000186546 -0.00394976 0.00585609 0.00244601 
-0.00185234 0.00159844 -0.000241879 -0.000558418 0.00551383 -0.0037355 -0.00373731 0.000254005 -0.00253008 
-0.000203313 0.00684982 0.00015293 0.00124606 -0.000457015 0.000442557 0.000227131 0.00373562 -2.15793e-05 
-0.00221994 -0.00075701 -0.00518614 -0.000816229 -0.00076025 0.000465683 -0.000853549 -0.000566582 -0.00125194 
0.000337043 -0.000719122 0.000315385 0.00320039 -0.000474924 -0.00269154 0.00203701 -0.000765067 -0.0001425 
-0.00163219 -0.00196332 -0.00129313 0.000882079 -0.00099497 0.000105222 0.00119392 0.000950889 -0.000819006 
-0.00319663 -0.00128904 0.000790644 -0.000991735 0.00425616 0.00302374 -0.000757862 0.00150302 7.41698e-05 
0.0125811 0.0112943 0.00279982 0.00112484 0.00379948 0.000556932 -0.00259206 0.00746762 -0.00158424 
0.00217305 0.00290292 0.000788848 0.00219833 -0.00127856 -7.35209e-05 -0.00292438 0.00198464 0.00131882 
-0.00259004 -0.0018213 0.000946099 0.000531216 0.0033213 -0.000449115 0.000456924 0.00314249 0.00367937 
-0.000639473 0.00200797 -0.00126764 -0.00033869 0.00621962 -0.000689877 0.00170157 0.00550407 -0.000874763 
0.00718504 0.0063733 -1.17609e-05 -0.00437525 -0.000832825 0.000710547 0.000225767 0.00244629 -0.00122533 
0.012696 0.00792329 -0.00139895 -0.00365067 -0.000486076 -0.00192179 -0.00194021 0.00117891 -0.00401455 
0.00305786 -0.00292347 0.00131484 0.00109009 8.54102e-05 -0.000350587 0.00478076 0.00165809 -0.00045794 
0.000204126 -0.000335149 0.000402937 0.000992169 -7.53463e-05 -5.90767e-05 -0.000160718 -0.000141619 -0.000296435 
-0.000546809 -0.000871875 -0.000628666 0.00185358 -0.00101476 -0.00152533 -0.00057665 0.00267099 -0.00150647 
-0.00653794 0.00027076 0.00157048 0.000512185 0.000768567 -0.000246153 -0.00818945 -0.000126499 0.00274947 
-0.00942929 0.00485593 -0.00231771 -0.00414331 -0.00193583 0.00104969 -0.00314126 -0.000745376 0.00155715 
-7.87153e-05 1.99103e-05 0.00122501 -0.00105308 0.00709625 0.0059138 0.000216413 0.000374443 -2.73788e-05 
-0.00157286 0.00290669 -1.36468e-05 0.000275909 0.00272551 -0.000103722 -0.00304431 -0.000939413 -0.000408999 
-0.00636102 -0.000774611 -0.000594182 -0.000305052 0.000571975 0.000136823 0.000279759 0.000496685 9.8943e-05 
-0.000356941 -0.00174896 -0.00115052 -0.000361971 -0.000557557 -0.000368015 -0.000213268 -0.000700758 0.00108052 
-0.00872522 5.61835e-05 -0.00353762 0.000386557 -0.000886928 1.67245e-05 6.57518e-05 -0.000705436 -0.000569908 
-0.00287671 -0.00154648 -0.000625115 -0.000791887 -0.00696717 0.00430941 -9.74279e-05 0.000305463 0.000313024 
0.000811896 0.00313274 0.000458394 -0.00297551 -0.0038668 0.00113997 -0.00520367 -0.00297906 0.000315788 
-0.000893912 -0.00334756 -0.00364624 -0.00826884 0.000511458 -0.00161865 -0.000337432 -0.000605603 0.000402811 
-0.00528562 -0.000420708 -0.015123 -0.00475962 0.00159554 -0.00283283 -0.0124343 -0.00587836 0.00197659 
-0.00102027 -0.0032597 0.000499734 0.000244133 -0.000900946 3.16473e-05 0.00121335 -0.00256305 0.00110766 
-0.00108262 -0.00250759 -1.49436e-05 -4.52154e-05 0.000358731 0.00493378 0.00157783 0.00279709 0.000499075 
-0.000653313 0.00328906 3.6265e-05 -0.000314889 -0.00146211 0.00327879 0.000115078 -0.00590165 0.00778755 
0.00184878 0.000770435 0.000119738 0.00200142 -0.00101826 0.00252924 -0.000269684 0.00313402 -0.00117942 
-0.001975 -0.00147148 0.00122558 -0.000635999 -0.00278102 -0.00206861 -0.00884555 -0.00300597 -0.000995547 
-0.0161174 -0.0108353 0.00132031 -0.00102615 0.00132315 0.000877959 0.00368372 0.00137601 0.000181462 
0.000878251 0.00246541 -0.0151229 0.0014655 0.00594507 -0.00162246 -0.00353167 -0.0120782 -0.0029548 
0.000328755 0.00625623 -0.00275487 4.49874e-05 0.00105642 2.21946e-05 0.000172181 0.000380818 0.000468315 
0.00284727 -0.00361664 -0.00023842 -0.00424858 -0.00465881 0.00105165 0.000404069 0.00127181 -0.00644787 
-0.00103688 -0.00399547 -0.00543765 -0.00308403 -0.00249994 0.000151476 -0.00467514 0.00213322 0.00744686 
-0.00146652 -0.00547427 0.000534315 -0.00445226 -0.00348459 0.00227776 -2.42023e-05 -0.00135981 0.000233522 
-0.000312045 0.00875071 -0.00220585 -0.0104848 0.00966024 -0.00103655 -0.000528395 0.00473658 -0.00374821 
0.00235408 -0.00103344 0.00269409 -0.00124757 -0.00071185 0.0014434 0.00696609 0.000720735 -0.00173771 
-3.54986e-06 0.00142554 0.0010172 -0.00117236 0.00173962 0.000946244 0.00215802 -7.67884e-05 0.000715586 
-0.000341675 0.0153149 0.00538195 0.00317499 0.0200907 -0.00880612 0.00424065 0.00993166 0.0022281 
0.00382512 0.00760397 6.48012e-05 -0.0079966 -0.00351228 -0.0226357 0.0136027 -0.00719398 -0.0168769 
0.010269 -0.00294153 -0.0162059 0.00549782 -0.0104167 0.00794696 -0.00514596 -0.00447849 0.00228688 
0.00521558 -0.000860895 -0.00028088 0.00708769 -0.0144538 -0.00358591 -0.00340712 -0.00379326 -0.00076228 
0.00723113 -0.00317027 -0.00602673 0.00208246 -0.00549132 -0.00126026 -0.0160806 -0.0149821 0.0241093 
-0.00323334 0.00608341 -0.00202468 -0.000226559 -0.00470222 0.00519605 -0.00171255 0.0041258 -0.00333491 
-0.00823342 -0.00765367 0.00290907 0.00860969 -0.000454054 -0.00235329 -0.000251361 -0.00023052 -0.00448094 
0.0115599 -0.00367435 0.0005969 0.00856917 -0.00200558 -0.00567915 0.00308795 -0.00237857 0.000431936 
0.0189953 0.00285912 -0.00250332 0.0138786 -0.00106918 0.00348887 0.00302815 -0.00474441 -0.00461823 
0.00251445 0.0102481 0.00658343 0.000795305 -0.00331837 0.000325568 -0.00152973 -0.0161947 -0.00395777 
0.00952639 0.0291719 0.00877381 0.00154399 -0.000317902 -0.00470745 -0.00218969 -0.00786457 -0.00293006 
-0.00582915 0.0172189 -0.00776016 -0.000813737 0.0012251 -0.000389428 -0.00815372 -0.00623981 -0.000443156 
-0.00636594 0.0103018 -0.000604221 -0.00983101 0.00511719 0.00505755 -0.00639369 0.0111787 -0.00689206 
0.0116371 -0.00146418 0.0155432 0.00425617 0.0112279 -0.0119165 0.0101498 -0.00118085 -0.00196631 
-0.0337388 -0.0164846 -0.015143 -0.00566691 0.00632325 0.00284104 0.00269214 0.000844512 0.000856209 
0.00145601 0.00953488 -0.00753957 -0.00503503 0.00935053 0.00258262 -0.0220014 0.0156888 0.00703154 
-0.00802661 -0.00805054 -0.00573545 0.00666413 -0.0138137 -0.00173301 0.00877813 -0.0225317 -0.00348964 
-0.000392379 -0.0051654 -0.0126838 0.0063323 0.00164423 -0.000547571 -0.00856604 0.00919055 -0.000349784 
-0.00334807 -4.34756e-05 0.00431977 0.0214434 0.00439316 -0.000459658 -0.00789773 -0.0020824 0.00323205 
-0.014063 0.00149121 -0.00878253 -0.0125079 -0.00579624 -0.00370214 -0.000729744 -0.00971685 0.00177771 
-0.0102722 -0.0470761 -0.0323653 -0.0507519 0.00974209 0.0126157 -0.00478169 -0.00309311 0.00440387 
-0.00269461 0.000735584 0.00140089 -0.00659789 -0.00554783 -0.00460832 -0.019388 0.00600907 0.00189362 
-0.0224674 0.00714056 -0.00520699 -0.00400593 -0.00784775 0.00193084 -0.00467224 -0.012177 -0.00141537 
0.0102277 -0.0166044 0.00421219 -0.0112036 0.00936608 -0.0258622 0.0204059 0.00146696 -0.0135593 
0.00150151 -0.000645232 0.00268527 -0.0100205 0.000193921 -0.00388875 0.0101697 -0.0111318 -0.00162311 
-0.000289478 -0.00206138 -0.00375899 -0.0151913 0.0157018 -0.00600092 0.00103969 0.00453568 -0.00602143 
0.00090668 0.0228773 -0.0196318 0.0477995 0.0504265 -0.0547029 0.0137308 -0.000551144 -0.0204272 
-0.0166521 0.00619609 -0.0335364 0 0 -0.183067 -0.00956417 0.0146182 0.000102961 
0 0 -0.174346 0 0 -0.169087 0 0 -0.163231 
0 0 -0.16123 0 0 -0.168528 0 0 -0.162574 
0 0 -0.164467 0 0 -0.167224 0 0 -0.15193 
0 0 -0.154951 0 0 -0.159052 0 0 -0.151106 
0 0 -0.150144 0 0 -0.142777 0 0 -0.143091 
0 0 -0.141718 0 0 -0.131986 0 0 -0.133065 
0 0 -0.135263 0 0 -0.139147 0 0 -0.134488 
0 0 -0.136293 0 0 -0.136126 0 0 -0.131388 
0 0 -0.136793 0 0 -0.13434 0 0 -0.137774 
0 0 -0.137176 0 0 -0.128847 0 0 -0.13592 
0 0 -0.123304 0 0 -0.128111 0 0 -0.126954 
0 0 -0.116467 0 0 -0.124795 0 0 -0.127258 
0 0 -0.116928 0 0 -0.101614 0 0 -0.104145 
0 0 -0.10701 0 0 -0.115025 0 0 -0.113779 
0 0 -0.104763 0 0 -0.102311 0 0 -0.102821 
0 0 -0.112219 0 0 -0.10029 0 0 -0.0949925 
0 0 -0.0964935 0 0 -0.0854867 0 0 -0.0847803 
0 0 -0.099564 0 0 -0.0879784 0 0 -0.0857711 
0 0 -0.100692 0 0 -0.0903426 0 0 -0.0680641 
0 0 -0.0747349 0 0 -0.0678188 0 0 -0.078914 
0 0 -0.0750881 0 0 -0.0744504 0 0 -0.0796595 
0 0 -0.0780409 0 0 -0.0713504 0 0 -0.0654154 
0 0 -0.0716251 0 0 -0.0659255 0 0 -0.0767263 
0 0 -0.0668771 0 0 -0.0405372 0 0 -0.0485324 
0 0 -0.0598041 0 0 -0.0311294 0 0 -0.0287947 
0 0 -0.0303839 0 0 -0.0284219 0 0 -0.0526526 
0 0 -0.0572927 0 0 -0.0406157 0 0 -0.0330228 
0 0 -0.0561646 0 0 -0.0390265 0 0 -0.0418223 
0 0 -0.0576263 0 0 -0.0367702 0 0 -0.0266953 
0 0 -0.0364367 0 0 -0.0563215 0 0 -0.0489738 
-0 -0 -0.02 0 0 -0.0216236 -0 -0 -0.02 
-0 -0 -0.02 0 0 -0.0250963 0 0 -0.0231539 
-0 -0 -0.02 -0 -0 -0.02 -0 -0 -0.02 
-0 -0 -0.02 -0 -0 -0.02 -0 -0 -0.02 
-0 -0 -0.02 -0 -0 -0.02 -0 -0 -0.02 
-0 -0 -0.02 0 0 -0.0248412 -0 -0 -0.02 

f 3 399 double
45.6599 -12.5266 69.6067 -21.1286 -37.8063 268.646 3.97751 3.7164 10.4456 
-14.7021 -50.0664 3.22785 0 0 -12.8413 39.1049 4.64806 -47.6518 
18.1442 -1.1008 -29.9589 -14.3691 -0.00203894 -20.0648 -4.56828 -2.7103 -10.2833 
-0.541729 -16.1005 21.1123 -11.7838 10.3578 12.3598 -28.8667 -22.3997 -13.7564 