# vtk DataFile Version 4.0
Generated by LIGGGHTS
ASCII
DATASET POLYDATA
POINTS 570 float
-459.202 -436.481 49.9788 -371.889 -387.789 49.9971 -259.496 -469.921 49.9979 
-91.8959 -363.394 49.9853 -165.882 -430.693 49.9825 91.4837 -486.625 49.9677 
124.142 -362.005 49.9697 25.0051 -411.967 49.9761 186.897 -441.645 49.9935 
220.768 -335.929 49.9967 441.658 -453.998 49.984 476.629 -359.812 49.9912 
377.954 -376.009 49.9882 -373.697 -232.893 49.9913 -436.076 -311.034 49.9868 
-176.59 -310.267 49.9829 -309.587 -309.606 49.9738 -274.837 -215.085 49.9903 
-88.4531 -263.027 49.988 -3.75699 -316.205 49.9885 -0.0164476 -216.276 49.9746 
84.7352 -269.682 49.9865 270.506 -196.568 49.9899 312.442 -287.349 49.9794 
181.369 -244.027 49.9755 370.42 -192.132 49.9913 476.079 -204.65 50.1955 
413.276 -282.464 49.9919 -438.795 -151.619 49.9933 -384.969 -49.749 49.9553 
-485.022 -51.6444 49.9783 -339.623 -138.905 49.987 -195.219 -11.3284 49.9868 
-184.636 -110.792 49.9936 -285.112 -55.1035 49.989 -84.6139 -162.977 49.9898 
-96.4234 -63.6926 49.9936 89.6763 -160.131 49.9938 138.936 -69.7668 49.9909 
306.754 -2.63171 49.9716 435.398 -112.262 49.9936 423.075 -12.0618 49.9875 
-449.593 147.689 49.99 -436.412 36.0406 49.9924 -360.729 101.845 49.9782 
-263.125 143.453 50.0071 -278.545 44.6611 49.9894 -27.8493 9.05865 49.9665 
-148.446 108.901 49.9835 -35.4062 108.748 49.971 68.3136 104.78 49.9905 
72.0418 4.57356 49.9921 265.686 88.5123 49.971 197.652 15.148 49.997 
473.266 84.0596 49.9894 371.464 73.5818 49.9487 413.31 164.374 49.9839 
-365.359 201.748 49.9657 -425.261 281.816 49.9839 -206.81 316.683 49.9971 
-182.455 202.924 49.9798 -274.205 242.826 49.9839 -115.002 277.056 49.9865 
-12.3617 241.838 49.996 82.421 208.533 49.9749 53.5846 317.034 49.9898 
186.624 208.924 49.9932 243.464 291.172 49.9888 284.158 186.791 49.9929 
340.982 269.073 49.9866 432.558 309.232 50.0135 490.59 227.811 49.9886 
-387.847 393.312 49.98 -483.221 363.284 49.968 -492.117 469.116 49.9883 
-387.903 493.388 49.9938 -298.373 437.955 49.9686 -198.873 447.829 49.9898 
-2.93549 480.45 49.9849 -27.7299 383.593 49.9878 -127.525 377.596 49.9787 
-102.808 475.566 49.9864 74.043 414.911 49.9959 157.498 349.997 49.9925 
261.297 490.221 49.9725 249.496 390.969 49.9608 168.437 449.517 49.992 
427.914 409.111 49.9849 361.073 483.484 49.9935 -412.758 -460.074 135.328 
-454.399 -369.378 129.087 -380.289 -386.032 194.166 -318.532 -428.571 124.05 
-243.412 -376.892 83.0326 -223.201 -424.292 168.725 -289.325 -348.464 176.264 
-138.297 -382.062 136.556 -57.9106 -446.578 93.819 -142.972 -481.866 132.769 
-49.3083 -475.145 189.247 13.8653 -379.086 143.749 119.228 -427.314 125.502 
33.6014 -478.327 133.426 284.917 -412.629 50.0471 182.288 -480.786 181.698 
211.693 -390.2 133.758 274.289 -467.915 139.813 303.29 -350.72 126.792 
370.028 -446.322 120.647 467.28 -429.817 143.556 400.694 -355.406 148.884 
-372.82 -310.711 127.433 -450.199 -227.466 114.136 -454.265 -297.619 198.707 
-174.771 -210.296 49.9935 -194.364 -323.328 194.902 -324.396 -222.553 136.515 
-243.573 -280.297 119.102 -219.235 -169.705 195.303 -146.286 -260.859 131.53 
-61.4798 -314.134 131.602 -57.8492 -214.207 131.705 104.008 -329.967 142.516 
118 -216.341 127.746 27.0893 -266.988 131.764 30.2788 -166.621 131.286 
196.176 -291.483 136.71 284.75 -245.101 136.257 205.307 -196.67 173.204 
477.033 -294.98 126.109 398.416 -234.036 136.361 490.014 -214.733 194.148 
-395.111 -148.031 139.92 -434.849 -56.3494 136.324 -331.904 -70.6114 136.985 
-260.168 -135.684 110.608 -236.345 -41.2356 136.167 -143.92 -159.014 130.399 
-138.195 -59.6757 140.741 -54.6817 -114.629 140.008 -59.3958 -1.96841 173.963 
1.73774 -112.501 49.9919 14.8079 -44.9114 122.512 110.376 -107.202 138.206 
91.5541 -18.8247 181.002 238.805 -75.9736 50.0423 179.958 -35.5088 134.538 
184.015 -151.107 86.7582 282.482 -145.15 134.9 281.441 -45.1944 136.82 
220.361 -100.204 199.279 336.325 -98.1424 50.0002 496.453 -142.215 125.602 
381.896 -135.152 131.37 445.069 -57.1316 136.494 366.252 -63.7491 199.596 
-355.311 23.233 111.534 -422.745 94.6441 130.391 -499.729 25.911 126.722 
-314.416 115.41 137.537 -206.353 62.2072 116.913 -274.7 37.1454 185.484 
-209.635 160.25 136.226 -173.315 14.2333 198.188 -114.928 26.6529 95.9017 
-119.116 113.521 145.454 -29.604 121.344 189.323 15.6182 59.9789 124.222 
127.284 51.1283 119.136 74.3181 114.426 184.112 18.6222 164.389 113.038 
168.129 110.673 49.9808 173.006 100.738 192.966 238.263 45.6886 136.162 
231.898 144.897 125.29 321.467 100.969 132.028 366.061 7.8305 129.778 
421.049 91.1759 134.972 397.917 166.333 196.717 490.987 165.822 128.447 
497.733 95.1129 199.01 -493.376 294.979 122.303 -349.3 276.588 114.771 
-396.641 193.568 144.547 -194.241 259.857 131.317 -292.42 209.706 162.583 
-272.604 307.74 170.856 -89.4454 186.155 82.8784 -50.2691 313.045 117.154 
-43.6622 224.481 163.06 -132.734 327.058 172.521 -137.006 201.938 190.792 
134.611 167.952 124.981 134.271 271.657 107.628 39.5156 274.965 139.606 
104.65 227.951 199.159 226.033 244.064 136.504 312.83 197.932 154.78 
310.927 297.031 141.677 400.495 232.851 121.702 468.405 237.225 194.952 
405.394 329.196 147.991 -483.894 496.865 190.863 -430.246 352.812 173.959 
-431.897 442.308 125.168 -340.029 373.881 136.337 -337.496 473.851 134.665 
-304.464 338.147 49.9755 -237.847 482.535 135.284 -243.16 384.485 113.927 
-152.279 418.714 137.68 -54.5874 438.35 129.282 114.904 463.376 133.315 
26.7153 375.022 133.406 125.608 364.52 143.672 222.961 343.948 134.075 
227.841 443.838 132.026 293.641 383.17 192.914 341.338 374.095 85.6968 
483.682 390.895 140.165 436.616 477.367 122.527 342.698 460.223 152.238 
-496.406 -465.199 282.52 -396.729 -472.127 286.269 -429.097 -342.489 284.516 
-346.428 -390.326 314.123 -498.879 -383.131 225.252 -326.212 -468.358 215.472 
-231.605 -496.955 236.91 -263.375 -402.958 257.774 -190.804 -447.671 314.82 
-90.6807 -439.583 315.508 -1.29418 -411.905 280.238 -62.2501 -377.904 208.633 
-141.61 -365.942 268.384 -139.174 -458.175 229.834 72.0831 -425.297 213.645 
65.4051 -478.69 314.304 158.065 -370.622 216.164 94.8513 -382.733 301.212 
175.963 -462.941 279.879 274.18 -424.794 230.013 312.528 -466.022 312.629 
288.949 -355.494 300.568 222.341 -410.244 351.229 398.355 -469.592 213.681 
368.977 -378.02 241.053 485.259 -375.985 323.801 387.391 -390.336 338.567 
410.392 -486.47 311.797 -357.981 -293.672 225.354 -411.417 -209.176 217.336 
-457.35 -247.447 297.487 -287.105 -312.562 293.338 -266.056 -256.165 213.495 
-330.035 -211.403 275.959 -179.175 -235.741 258.867 -193.889 -305.529 328.983 
-87.2777 -230.11 298.267 -15.4567 -240.612 218.32 -103.951 -287.515 218.114 
-94.015 -173.909 215.798 -33.6735 -313.99 284.196 44.6746 -320.39 222.411 
138.752 -271.939 216.197 89.4134 -281.389 302.868 74.9995 -194.902 216.132 
84.9414 -180.994 314.653 5.09878 -237.339 335.908 173.68 -194.541 269.072 
192.157 -317.867 293.976 252.26 -329.22 210.449 261.614 -236.071 245.833 
240.256 -210.53 342.059 329.049 -185.147 303.594 356.092 -281.385 300.953 
346.309 -288.925 201.731 339.514 -189.183 204.231 418.341 -209.916 263.703 
443.905 -300.231 220.327 452.948 -281.372 325.886 -370.548 -8.4994 205.129 
-456.471 -117.011 212.802 -371.716 -90.0828 262.929 -446.99 -148.385 307.303 
-469.671 -10.6082 218.098 -336.819 -138.248 343.814 -316.191 -145.928 201.299 
-176.848 -166.462 331.523 -282.511 -54.6061 224.481 -256.885 -133.158 281.525 
-297.65 -38.787 322.057 -195.523 -35.0405 298.616 -86.2209 -114.843 325.012 
-7.91097 -157.731 273.748 -158.623 -98.472 230.687 -60.0774 -81.6911 234.312 
-9.61706 -22.3534 297.1 33.9159 -98.7088 204.604 127.743 -111.735 236.667 
88.6636 -30.5997 280.263 42.4656 -94.8156 342.37 203.135 -104.525 302.176 
294.63 -88.1828 265.313 176.098 -10.1962 324.321 274.649 -19.8388 338.639 
493.721 -69.6108 290.117 443.999 -126.233 209.392 355.709 -7.19549 281.384 
402.456 -117.32 300.085 -403.347 1.82936 299.03 -490.186 52.3193 293.021 
-408.197 80.7948 229.723 -457.064 143.428 317.476 -357.023 128.967 322.263 
-351.598 163.213 228.482 -319.161 49.7218 274.165 -257.742 130.215 218.559 
-215.464 60.3528 276.252 -262.279 164.436 312.404 -101.158 4.19349 266.674 
-128.52 97.5891 243.711 -39.0465 84.7561 287.67 -140.385 81.819 341.733 
19.1954 37.4488 221.567 28.9089 161.301 259.874 99.6089 69.9039 271.297 
55.7012 120.15 346.979 177.476 6.2697 225.478 268.607 123.456 215.812 
277.78 9.79011 220.709 197.362 80.9049 288.91 295.893 71.1716 302.512 
435.444 16.9867 202.906 355.062 73.2694 221.987 431.617 111.835 273.491 
434.22 8.21859 341.37 -381.528 272.949 209.333 -455.287 179.676 224.307 
-463.706 270.088 266.182 -391.291 317.396 316.887 -395.99 219.826 338.226 
-221.922 241.079 226.195 -310.453 242.722 273.012 -213.87 318.881 288.491 
-167.601 180.319 284.147 -292.833 305.933 348.461 -69.8745 176.609 262.675 
-83.7552 273.261 241.115 -95.18 299.935 339.878 -7.4864 226.285 327.856 
124.47 175.737 285.602 16.2897 257.721 235.8 83.3662 269.532 308.995 
170.228 302.863 208.511 196.888 194.47 218.436 263.264 270.403 225.53 
182.517 256.48 296.228 239.083 170.168 305.927 320.877 302.416 300.725 
329.054 187.969 266.125 371.549 261.367 213.189 463.974 205.08 289.521 
417.819 320.201 323.742 378.75 230.097 342.142 -486.027 347.137 328.635 
-392.905 456.744 216.107 -364.845 416.722 303.335 -474.195 412.276 253.696 
-457.913 456.879 341.879 -302.77 499.96 307.368 -317.03 340.702 254.139 
-296.455 430.242 214.717 -210.177 379.909 209.372 -172.678 444.725 292.853 
-264.458 407.546 306.73 -45.9598 367.305 201.645 -13.2803 335.825 290.75 
-103.388 446.888 220.789 -125.381 360.663 266.403 -26.8958 491.436 280.928 
-65.8834 412.219 328.076 137.045 351.761 289.175 14.3951 447.614 201.075 
48.9736 419.389 290.558 103.741 481.007 231.104 64.9269 343.676 220.339 
143.757 449.872 317.325 178.109 416.263 214.363 260.96 473.736 223.408 
235.671 355.96 269.712 245.258 460.014 321.204 322.584 394.364 340.062 
473.326 333.528 221.381 437.368 438.355 214.987 350.188 450.878 262.322 
378.057 357.497 239.941 444.142 418.65 312.788 -393.36 -345.901 390.58 
-371.05 -480.357 382.559 -273.878 -426.255 372.822 -182.486 -383.139 391.014 
-237.332 -465.13 459.45 -95.515 -347.612 355.323 -89.0974 -489.583 409.381 
-131.121 -327.812 457.999 69.9704 -332.808 386.668 124.445 -432.706 382.824 
350.431 -333.654 412.305 334.25 -410.834 475.666 360.263 -471.197 400.324 
-376.396 -249.57 356.159 -416.833 -169.169 400.367 -267.211 -216.816 353.891 
-265.249 -317.618 398.507 -138.218 -242.78 383.417 -47.8622 -278.7 409.944 
329.853 -238.079 389.365 189.119 -268.47 408.138 423.05 -173.027 380.94 
-393.598 -72.0757 395.087 -472.767 -17.018 368.508 -223.816 -88.5732 378.186 
-11.439 -157.067 400.82 160.222 -162.015 377.708 1.88783 -25.8883 405.634 
280.784 -119.696 363.676 217.05 -0.275589 418.049 263.424 -83.9922 460.709 
362.843 -55.7342 369.896 -385.213 145.834 416.7 -296.31 60.2019 371.056 
-190.899 168.088 382.345 -183.139 4.37157 389.69 -225.993 79.872 439.548 
-85.4321 1.56618 365.385 -17.8908 81.155 442.262 81.9616 24.633 363.358 
130.115 105.02 413.299 225.223 106.414 381.807 315.068 50.6685 398.49 
215.792 192.696 442.89 342.121 138.851 359.963 495.834 80.3956 395.697 
497.279 256.434 368.587 -186.605 271.519 372.228 -132.482 240.216 450.591 
-98.9581 197.795 356.542 -74.2543 324.407 434.753 4.88248 184.688 428.46 
14.6217 324.679 386.136 142.622 293.225 388.8 256.811 257.709 363.141 
377.258 329.031 414.746 -230.66 482.602 374.433 -293.399 412.291 410.202 
-155.044 385.716 371.641 95.5043 382.758 374.695 155.118 -489.031 468.193 
207.147 381.139 369.43 395.017 8.39834 441.329 -369.771 -230.773 501.328 
30.0122 398.402 2021.37 73.935 30.1984 512.513 72.2207 -378.952 621.923 
361.402 -238.109 682.205 89.1312 -100.75 548.082 -289.31 77.5737 645.017 
-28.265 443.174 691.589 -393.105 -81.1454 809.631 279.291 36.0411 754.289 
-431.283 306.33 794.929 -127.121 261.846 814.087 164.453 232.441 821.454 
349.393 272.361 815.158 426.697 198.175 832.637 -82.9068 357.768 759.021 
181.472 393.507 831.402 -171.103 -259.262 982.245 -53.319 46.9039 986.092 
94.6366 144.532 989.512 -283.568 175.837 1005.93 -289.283 443.46 969.938 
-158.9 -141.387 1042.42 315.104 -68.2523 1096.78 -156.528 119.747 1082.59 
-265.786 285.249 1052.37 -5.08772 291.306 1157.01 235.401 320.588 1152.05 
-175.859 408.262 1165.2 -162.733 -403.002 1175.53 -299.545 -326.618 1296.99 
44.3902 -236.224 1180.42 256.538 -198.551 1243.38 444.665 -308.666 1192.56 
-329.642 -159.048 1222.37 -257.339 -56.5158 1250.16 -446.554 90.4873 1215.72 
309.279 -350.797 1361.94 96.5809 -64.5171 1338.08 -369.031 13.7935 1392.59 
-275.325 58.1205 1431.7 396.716 25.9934 1426.1 446.325 143.619 1466.32 
345.799 211.081 1431.05 398.664 323.471 1449.09 408.745 449.972 1461.72 
-2.27468 -334.038 1567.75 65.6227 -176.37 1629.3 354.417 -251.08 1488.51 
-207.334 -161.086 1555.52 -128.257 20.9888 1514.64 73.7732 43.7038 1544.18 
-368.124 223.483 1509.05 66.998 187.577 1618.81 -70.0462 387.467 1600.95 
153.245 377.119 1545.53 312.673 446.416 1637.31 -203.948 -341.724 1734.29 
-78.2317 -446.072 1692.41 186.425 -443.855 1778.1 430.184 -448.779 1659.79 
-81.6692 -176.082 1726.44 227.566 -245.197 1745.35 408.752 -183.608 1792.02 
-445.648 -113.402 1808.58 280.72 107.674 1747.69 -180.661 438.921 1809.22 
60.6066 377.115 1810.06 -444.843 -405.213 1816.44 -317.79 -415.506 1904.66 
42.7415 -410.189 1871.45 -298.76 -191.59 1944.51 -65.0725 -331.899 1897.01 
135.54 -252.045 1883.32 -351.38 -9.90663 1942.84 45.7655 -134.903 1932.83 
355.94 -87.8239 1910.31 -356.904 144.563 1908.72 -194.696 69.2002 1958.95 
-258.053 302.501 1900.92 -230.047 187.177 1973.92 -124.153 248.869 1835.03 
54.6403 275.355 1864.03 291.023 294.759 1885.63 430.323 290.096 1928.23 
-387.602 412.667 1842.56 424.594 444.641 1865.51 -424.56 -440.441 2041.69 
-161.417 -437.867 2031.51 117.623 -442.967 2038.35 281.023 -362.638 2032.01 
-400.69 -276.272 2024.56 -271.4 -324.713 2049.36 -132.418 -311.496 2026.35 
416.764 -331.99 2032.48 -206.914 -33.9333 2027.98 -68.4786 -153.651 1998.34 
435.966 -45.5773 2044.31 -432.001 38.2238 2040.47 -76.86 58.9419 2019.69 
-150.461 135.631 2030.34 84.6667 107.014 2026.08 205.923 4.32567 2017.92 
253.949 161.04 2010.79 -58.484 264.919 1993.22 95.2642 249.462 2032.03 
352.563 195.731 2035.15 -346.492 395.351 2039.31 -108.457 411.766 2042.68 

VERTICES 570 1140
1 0 
1 1 
1 2 
1 3 
1 4 
1 5 
1 6 
1 7 
1 8 
1 9 
1 10 
1 11 
1 12 
1 13 
1 14 
1 15 
1 16 
1 17 
1 18 
1 19 
1 20 
1 21 
1 22 
1 23 
1 24 
1 25 
1 26 
1 27 
1 28 
1 29 
1 30 
1 31 
1 32 
1 33 
1 34 
1 35 
1 36 
1 37 
1 38 
1 39 
1 40 
1 41 
1 42 
1 43 
1 44 
1 45 
1 46 
1 47 
1 48 
1 49 
1 50 
1 51 
1 52 
1 53 
1 54 
1 55 
1 56 
1 57 
1 58 
1 59 
1 60 
1 61 
1 62 
1 63 
1 64 
1 65 
1 66 
1 67 
1 68 
1 69 
1 70 
1 71 
1 72 
1 73 
1 74 
1 75 
1 76 
1 77 
1 78 
1 79 
1 80 
1 81 
1 82 
1 83 
1 84 
1 85 
1 86 
1 87 
1 88 
1 89 
1 90 
1 91 
1 92 
1 93 
1 94 
1 95 
1 96 
1 97 
1 98 
1 99 
1 100 
1 101 
1 102 
1 103 
1 104 
1 105 
1 106 
1 107 
1 108 
1 109 
1 110 
1 111 
1 112 
1 113 
1 114 
1 115 
1 116 
1 117 
1 118 
1 119 
1 120 
1 121 
1 122 
1 123 
1 124 
1 125 
1 126 
1 127 
1 128 
1 129 
1 130 
1 131 
1 132 
1 133 
1 134 
1 135 
1 136 
1 137 
1 138 
1 139 
1 140 
1 141 
1 142 
1 143 
1 144 
1 145 
1 146 
1 147 
1 148 
1 149 
1 150 
1 151 
1 152 
1 153 
1 154 
1 155 
1 156 
1 157 
1 158 
1 159 
1 160 
1 161 
1 162 
1 163 
1 164 
1 165 
1 166 
1 167 
1 168 
1 169 
1 170 
1 171 
1 172 
1 173 
1 174 
1 175 
1 176 
1 177 
1 178 
1 179 
1 180 
1 181 
1 182 
1 183 
1 184 
1 185 
1 186 
1 187 
1 188 
1 189 
1 190 
1 191 
1 192 
1 193 
1 194 
1 195 
1 196 
1 197 
1 198 
1 199 
1 200 
1 201 
1 202 
1 203 
1 204 
1 205 
1 206 
1 207 
1 208 
1 209 
1 210 
1 211 
1 212 
1 213 
1 214 
1 215 
1 216 
1 217 
1 218 
1 219 
1 220 
1 221 
1 222 
1 223 
1 224 
1 225 
1 226 
1 227 
1 228 
1 229 
1 230 
1 231 
1 232 
1 233 
1 234 
1 235 
1 236 
1 237 
1 238 
1 239 
1 240 
1 241 
1 242 
1 243 
1 244 
1 245 
1 246 
1 247 
1 248 
1 249 
1 250 
1 251 
1 252 
1 253 
1 254 
1 255 
1 256 
1 257 
1 258 
1 259 
1 260 
1 261 
1 262 
1 263 
1 264 
1 265 
1 266 
1 267 
1 268 
1 269 
1 270 
1 271 
1 272 
1 273 
1 274 
1 275 
1 276 
1 277 
1 278 
1 279 
1 280 
1 281 
1 282 
1 283 
1 284 
1 285 
1 286 
1 287 
1 288 
1 289 
1 290 
1 291 
1 292 
1 293 
1 294 
1 295 
1 296 
1 297 
1 298 
1 299 
1 300 
1 301 
1 302 
1 303 
1 304 
1 305 
1 306 
1 307 
1 308 
1 309 
1 310 
1 311 
1 312 
1 313 
1 314 
1 315 
1 316 
1 317 
1 318 
1 319 
1 320 
1 321 
1 322 
1 323 
1 324 
1 325 
1 326 
1 327 
1 328 
1 329 
1 330 
1 331 
1 332 
1 333 
1 334 
1 335 
1 336 
1 337 
1 338 
1 339 
1 340 
1 341 
1 342 
1 343 
1 344 
1 345 
1 346 
1 347 
1 348 
1 349 
1 350 
1 351 
1 352 
1 353 
1 354 
1 355 
1 356 
1 357 
1 358 
1 359 
1 360 
1 361 
1 362 
1 363 
1 364 
1 365 
1 366 
1 367 
1 368 
1 369 
1 370 
1 371 
1 372 
1 373 
1 374 
1 375 
1 376 
1 377 
1 378 
1 379 
1 380 
1 381 
1 382 
1 383 
1 384 
1 385 
1 386 
1 387 
1 388 
1 389 
1 390 
1 391 
1 392 
1 393 
1 394 
1 395 
1 396 
1 397 
1 398 
1 399 
1 400 
1 401 
1 402 
1 403 
1 404 
1 405 
1 406 
1 407 
1 408 
1 409 
1 410 
1 411 
1 412 
1 413 
1 414 
1 415 
1 416 
1 417 
1 418 
1 419 
1 420 
1 421 
1 422 
1 423 
1 424 
1 425 
1 426 
1 427 
1 428 
1 429 
1 430 
1 431 
1 432 
1 433 
1 434 
1 435 
1 436 
1 437 
1 438 
1 439 
1 440 
1 441 
1 442 
1 443 
1 444 
1 445 
1 446 
1 447 
1 448 
1 449 
1 450 
1 451 
1 452 
1 453 
1 454 
1 455 
1 456 
1 457 
1 458 
1 459 
1 460 
1 461 
1 462 
1 463 
1 464 
1 465 
1 466 
1 467 
1 468 
1 469 
1 470 
1 471 
1 472 
1 473 
1 474 
1 475 
1 476 
1 477 
1 478 
1 479 
1 480 
1 481 
1 482 
1 483 
1 484 
1 485 
1 486 
1 487 
1 488 
1 489 
1 490 
1 491 
1 492 
1 493 
1 494 
1 495 
1 496 
1 497 
1 498 
1 499 
1 500 
1 501 
1 502 
1 503 
1 504 
1 505 
1 506 
1 507 
1 508 
1 509 
1 510 
1 511 
1 512 
1 513 
1 514 
1 515 
1 516 
1 517 
1 518 
1 519 
1 520 
1 521 
1 522 
1 523 
1 524 
1 525 
1 526 
1 527 
1 528 
1 529 
1 530 
1 531 
1 532 
1 533 
1 534 
1 535 
1 536 
1 537 
1 538 
1 539 
1 540 
1 541 
1 542 
1 543 
1 544 
1 545 
1 546 
1 547 
1 548 
1 549 
1 550 
1 551 
1 552 
1 553 
1 554 
1 555 
1 556 
1 557 
1 558 
1 559 
1 560 
1 561 
1 562 
1 563 
1 564 
1 565 
1 566 
1 567 
1 568 
1 569 

POINT_DATA 570
FIELD FieldData 7
id 1 570 int
20 92 9 74 35 73 25 53 19 
61 101 26 79 119 29 52 22 31 
36 84 99 14 4 97 60 41 80 
102 72 34 27 15 110 17 18 28 
142 111 24 105 39 33 58 81 91 
8 69 11 1 104 93 21 134 46 
44 5 76 87 56 45 23 86 129 
30 57 100 95 2 48 59 16 3 
10 38 50 12 42 70 7 71 62 
66 51 13 114 6 54 55 40 77 
154 249 106 155 173 157 67 96 127 
230 228 118 185 37 192 122 171 164 
88 175 207 140 159 279 82 120 183 
161 211 116 141 112 167 124 193 169 
208 227 216 90 150 214 133 170 68 
103 221 78 146 166 210 85 123 224 
200 89 151 132 181 245 272 43 108 
47 158 163 98 109 75 138 152 215 
197 229 165 172 271 117 196 248 115 
32 191 178 113 130 223 156 225 160 
217 143 65 204 137 219 190 136 121 
176 168 187 107 145 202 135 139 194 
182 131 162 269 281 256 94 184 125 
63 147 213 128 220 144 64 149 212 
148 257 153 49 83 188 303 393 296 
379 199 195 270 273 381 376 334 254 
290 284 239 300 126 365 345 252 320 
308 400 246 286 347 439 357 267 251 
352 335 276 326 307 389 323 189 277 
292 306 233 205 339 186 331 373 236 
317 218 262 364 351 396 201 174 238 
255 318 244 259 293 366 341 367 240 
363 302 234 380 359 370 324 241 342 
392 283 301 329 374 297 309 340 385 
268 179 287 388 362 265 258 298 402 
266 282 177 235 386 304 253 315 350 
180 294 397 346 319 226 242 289 338 
209 206 260 356 278 330 328 390 401 
247 295 384 310 353 332 321 403 414 
395 263 360 325 312 275 313 368 291 
231 250 237 427 348 354 264 311 314 
428 421 232 222 280 316 337 198 377 
327 305 387 349 383 285 322 203 243 
344 261 336 333 355 382 299 274 288 
372 343 423 453 411 456 440 369 433 
405 430 431 420 450 446 432 426 445 
418 443 416 429 513 455 424 371 410 
447 415 408 378 454 488 404 434 436 
444 452 412 394 451 361 419 398 425 
457 358 413 422 399 437 448 435 460 
417 406 438 441 407 449 391 442 409 
375 494 458 561 468 484 498 496 489 
503 491 510 466 475 492 502 511 500 
479 478 487 462 497 459 464 483 485 
495 463 486 461 501 469 472 474 480 
512 507 477 481 470 476 471 504 490 
473 499 506 509 542 508 482 505 493 
467 540 552 465 565 570 517 514 549 
538 516 554 532 521 533 559 564 567 
557 523 536 524 562 522 548 537 528 
546 566 525 535 531 558 556 541 550 
515 568 544 530 553 520 534 560 551 
543 529 555 569 526 519 527 563 539 
545 547 518 
type 1 570 int
1 1 1 1 1 1 1 1 1 
1 1 1 1 1 1 1 1 1 
1 1 1 1 1 1 1 1 1 
1 1 1 1 1 1 1 1 1 
1 1 1 1 1 1 1 1 1 
1 1 1 1 1 1 1 1 1 
1 1 1 1 1 1 1 1 1 
1 1 1 1 1 1 1 1 1 
1 1 1 1 1 1 1 1 1 
1 1 1 1 1 1 1 1 1 
1 1 1 1 1 1 1 1 1 
1 1 1 1 1 1 1 1 1 
1 1 1 1 1 1 1 1 1 
1 1 1 1 1 1 1 1 1 
1 1 1 1 1 1 1 1 1 
1 1 1 1 1 1 1 1 1 
1 1 1 1 1 1 1 1 1 
1 1 1 1 1 1 1 1 1 
1 1 1 1 1 1 1 1 1 
1 1 1 1 1 1 1 1 1 
1 1 1 1 1 1 1 1 1 
1 1 1 1 1 1 1 1 1 
1 1 1 1 1 1 1 1 1 
1 1 1 1 1 1 1 1 1 
1 1 1 1 1 1 1 1 1 
1 1 1 1 1 1 1 1 1 
1 1 1 1 1 1 1 1 1 
1 1 1 1 1 1 1 1 1 
1 1 1 1 1 1 1 1 1 
1 1 1 1 1 1 1 1 1 
1 1 1 1 1 1 1 1 1 
1 1 1 1 1 1 1 1 1 
1 1 1 1 1 1 1 1 1 
1 1 1 1 1 1 1 1 1 
1 1 1 1 1 1 1 1 1 
1 1 1 1 1 1 1 1 1 
1 1 1 1 1 1 1 1 1 
1 1 1 1 1 1 1 1 1 
1 1 1 1 1 1 1 1 1 
1 1 1 1 1 1 1 1 1 
1 1 1 1 1 1 1 1 1 
1 1 1 1 1 1 1 1 1 
1 1 1 1 1 1 1 1 1 
1 1 1 1 1 1 1 1 1 
1 1 1 1 1 1 1 1 1 
1 1 1 1 1 1 1 1 1 
1 1 1 1 1 1 1 1 1 
1 1 1 1 1 1 1 1 1 
1 1 1 1 1 1 1 1 1 
1 1 1 1 1 1 1 1 1 
1 1 1 1 1 1 1 1 1 
1 1 1 1 1 1 1 1 1 
1 1 1 1 1 1 1 1 1 
1 1 1 1 1 1 1 1 1 
1 1 1 1 1 1 1 1 1 
1 1 1 1 1 1 1 1 1 
1 1 1 1 1 1 1 1 1 
1 1 1 1 1 1 1 1 1 
1 1 1 1 1 1 1 1 1 
1 1 1 1 1 1 1 1 1 
1 1 1 1 1 1 1 1 1 
1 1 1 1 1 1 1 1 1 
1 1 1 1 1 1 1 1 1 
1 1 1 
i 3 570 int
0 0 0 0 0 0 0 1 0 
0 0 0 0 0 0 0 1 0 
0 1 0 0 0 0 0 0 0 
0 0 0 0 1 0 -1 0 0 
0 0 0 0 0 0 1 0 0 
0 0 0 1 0 0 0 0 0 
0 0 0 0 0 0 0 0 0 
0 0 0 0 0 0 0 0 0 
0 0 0 0 0 0 -1 0 0 
0 0 0 0 0 0 0 0 0 
1 0 0 0 0 0 0 0 0 
0 0 0 0 0 0 0 0 0 
0 0 0 0 0 0 0 0 0 
0 0 0 -1 0 0 -1 0 0 
0 0 0 0 0 0 0 0 0 
0 0 0 0 0 0 0 0 0 
0 0 0 0 0 0 0 0 0 
0 0 0 0 0 0 0 0 0 
-1 0 0 0 0 0 0 0 0 
0 0 0 0 0 0 0 0 0 
0 0 0 0 0 0 0 0 0 
0 0 0 0 0 0 0 0 0 
0 0 0 0 0 0 0 0 0 
0 0 0 -1 0 0 -1 0 0 
0 0 0 1 0 0 0 0 0 
0 -1 0 0 0 0 0 0 0 
0 -1 0 0 0 0 0 0 0 
0 -1 0 0 0 0 0 0 0 
0 0 0 0 0 0 0 0 0 
0 -1 0 0 -1 0 0 0 0 
0 0 0 0 0 0 0 1 0 
0 0 0 0 0 0 1 0 0 
0 1 0 0 1 0 0 0 0 
0 1 0 0 0 0 0 0 0 
0 0 0 0 0 0 0 0 0 
0 0 0 0 0 0 0 0 0 
0 0 0 0 1 0 0 0 0 
0 0 0 0 0 0 0 0 0 
0 0 0 0 0 0 0 0 0 
0 0 0 0 0 0 0 0 0 
0 0 0 0 0 0 0 0 0 
0 0 0 0 0 0 0 0 0 
0 0 0 0 0 0 0 0 0 
0 0 0 0 0 0 -1 0 0 
0 0 0 0 0 0 0 0 0 
0 0 0 0 0 0 0 0 0 
0 0 0 0 0 0 0 0 0 
0 0 0 0 0 0 0 0 0 
0 0 0 0 0 0 0 0 0 
0 0 0 0 0 0 0 0 0 
0 0 0 0 0 0 0 0 0 
0 0 0 0 0 0 0 0 0 
0 0 0 0 0 0 1 0 0 
0 0 0 0 0 0 0 0 0 
0 0 0 0 0 0 0 0 0 
0 0 0 0 0 0 0 0 0 
0 0 0 0 0 0 0 0 0 
0 0 0 0 0 0 0 0 0 
0 0 0 0 0 0 0 0 0 
0 0 0 0 0 0 -1 0 0 
-1 0 0 1 0 0 0 0 0 
0 0 0 0 0 0 0 0 0 
0 0 0 0 0 0 0 0 0 
0 0 0 0 0 0 0 0 0 
0 0 0 0 0 0 0 0 0 
0 0 0 0 0 0 0 0 0 
0 0 0 0 0 0 -1 0 0 
0 0 0 0 0 0 0 0 0 
0 0 0 0 0 0 0 0 0 
0 0 0 0 0 0 0 0 0 
0 -1 0 0 0 0 0 0 0 
0 0 0 0 0 0 0 0 0 
0 0 0 0 0 0 0 0 0 
0 0 0 0 0 0 0 0 0 
0 0 0 0 0 0 0 0 0 
0 0 0 1 0 0 0 0 0 
0 1 0 0 0 0 0 0 0 
0 0 0 0 0 0 0 0 0 
0 0 0 0 1 0 0 0 0 
0 1 0 0 0 0 0 0 0 
0 0 0 0 0 0 0 0 0 
0 0 0 0 0 0 0 0 0 
0 0 0 0 0 0 0 0 0 
0 0 0 0 0 0 0 0 0 
0 0 0 0 0 0 0 0 0 
0 0 0 0 0 0 0 0 0 
0 0 0 0 0 0 0 0 0 
0 0 0 0 0 0 0 0 0 
0 0 0 0 0 0 0 0 0 
0 0 0 0 0 0 0 0 0 
0 0 0 0 0 0 0 0 0 
0 0 0 0 0 0 0 0 0 
-1 0 0 0 0 0 0 0 0 
0 0 0 -1 0 0 0 0 0 
0 0 0 0 0 0 0 0 0 
0 0 0 0 0 0 0 0 0 
0 0 0 0 0 0 0 0 0 
0 0 0 0 0 0 0 0 0 
0 0 0 0 0 0 0 0 0 
0 0 0 0 0 0 0 0 0 
0 0 0 0 0 0 0 0 0 
0 0 0 0 0 0 0 0 0 
0 0 0 -1 0 0 0 0 0 
0 0 0 0 0 0 0 0 0 
0 0 0 0 0 0 0 0 0 
0 0 0 0 0 0 0 0 0 
0 0 0 0 0 0 0 0 0 
0 0 0 0 0 0 0 0 0 
0 0 0 0 0 0 0 0 0 
0 0 0 0 0 0 0 0 0 
0 0 0 0 0 0 0 0 0 
-1 0 0 0 0 0 0 0 0 
0 0 0 0 0 0 0 0 0 
0 0 0 0 0 0 0 0 0 
0 0 0 0 0 0 0 0 0 
0 0 0 0 0 0 0 0 0 
0 0 0 0 0 0 0 0 0 
0 0 0 0 0 0 0 0 0 
0 0 0 0 0 0 0 0 0 
0 0 0 0 0 0 0 0 0 
0 0 0 -1 0 0 0 0 0 
0 0 0 0 0 0 0 0 0 
0 0 0 0 0 0 0 0 0 
1 -1 0 0 -1 0 0 0 0 
0 0 0 0 0 0 0 0 0 
0 0 0 0 0 0 0 0 0 
0 0 0 0 0 0 0 0 0 
0 0 0 0 0 0 0 0 0 
0 0 0 0 -1 0 0 0 0 
0 0 0 0 0 0 0 0 0 
0 0 0 0 0 0 0 0 0 
-1 0 0 0 0 0 0 0 0 
0 0 0 -1 0 0 0 0 0 
0 1 0 0 0 0 0 0 0 
0 0 0 0 0 0 0 1 0 
0 0 0 0 0 0 0 0 0 
0 1 0 0 0 0 0 1 0 
0 0 0 1 0 0 0 0 0 
0 0 0 0 0 0 0 0 0 
0 0 0 0 0 0 0 0 0 
0 0 0 0 0 0 0 0 0 
0 0 0 0 0 0 0 0 0 
0 0 0 0 0 0 0 0 0 
0 0 0 0 0 0 0 0 0 
0 0 0 0 0 0 0 0 0 
0 0 0 0 0 0 0 0 0 
0 0 0 0 0 0 0 0 0 
0 0 0 0 0 0 0 0 0 
-1 0 0 0 0 0 0 0 0 
0 0 0 0 0 0 0 0 0 
0 0 0 0 0 0 0 0 0 
0 0 0 0 0 0 0 0 0 
0 0 0 0 0 0 0 1 0 
0 0 0 0 0 0 0 0 0 
0 0 0 0 0 0 0 0 0 
0 0 0 0 0 0 0 0 0 
0 0 0 0 0 0 0 0 0 
0 0 0 0 0 0 0 0 0 
0 0 0 0 0 0 0 0 0 
0 0 0 0 0 0 0 0 0 
0 0 0 0 0 0 0 0 0 
0 0 0 0 0 0 0 0 0 
0 0 0 0 0 0 0 0 0 
0 0 0 0 0 0 0 0 0 
0 0 0 0 0 0 0 0 0 
0 0 0 0 0 0 0 0 0 
0 0 0 0 0 0 0 0 0 
0 0 0 0 0 0 0 0 0 
0 0 0 0 0 0 0 0 0 
0 0 0 0 0 0 0 0 0 
0 0 0 0 0 0 0 0 0 
0 0 0 0 0 0 0 0 0 
0 0 0 0 0 0 0 0 0 
0 0 0 0 0 0 0 0 0 
0 0 0 0 0 0 0 0 0 
0 0 0 0 0 0 0 0 0 
0 0 0 0 0 0 0 0 0 
0 0 0 0 0 0 0 0 0 
0 0 0 0 0 0 0 0 0 
0 0 0 0 0 0 0 0 0 
0 0 0 0 0 0 0 0 0 
0 0 0 0 0 0 0 0 0 
0 0 0 0 0 0 0 0 0 
0 0 0 0 0 0 0 0 0 
0 0 0 0 0 0 0 0 0 
0 0 0 0 0 0 0 0 0 
0 0 0 0 0 0 0 0 0 
0 0 0 0 0 0 0 0 0 
0 0 0 0 0 0 0 0 0 
0 0 0 0 0 0 0 0 0 

v 3 570 double
-1.10412e-05 -8.44126e-05 -3.14714e-05 -0.000111476 0.00023704 -0.000133718 0.000282638 -5.46523e-05 3.99246e-06 
5.86695e-06 0.000155404 -1.21332e-05 -4.23846e-05 -0.000228257 7.50895e-05 -0.000290259 6.6405e-05 2.5055e-05 
0.000345921 9.87329e-05 0.000226564 -7.2016e-05 7.69436e-05 -0.000128141 -0.000312504 -0.000432841 1.60734e-15 
0.000510743 0.000609673 0.000138912 -0.000302784 0.000552416 -9.38754e-05 0.000269094 0.000259862 -4.8036e-05 
0.000446889 -0.000145743 1.94399e-05 5.58995e-05 0.000158143 7.74016e-06 0.000335973 9.56092e-05 0.000118895 
7.40746e-05 0.000482765 3.89114e-05 0.000146276 0.000111227 -8.49561e-05 0.00100429 5.04512e-05 -2.27145e-05 
-0.00014847 0.00015929 -0.000178872 -4.18749e-05 0.000331501 8.88998e-05 0.000143083 0.000113151 0.000187526 
3.17047e-05 0.000448851 0.000197581 -0.000919057 0.000797639 -0.0001214 -0.000264825 0.00125601 0.000163932 
0.000128463 0.000699028 -6.16273e-05 -0.000130224 0.000152928 5.927e-05 0.00188756 -0.00112198 -0.000265505 
0.000118548 0.000134668 5.39849e-05 3.06775e-05 -0.00156034 0.000211042 0.000105055 0.000245955 3.67094e-05 
0.000188703 0.000380281 -0.000626131 0.000314966 3.32162e-05 1.69725e-05 0.000250509 0.000145992 -3.58443e-07 
-6.28117e-05 0.000585166 -7.89142e-05 0.000206164 0.000262082 0.000116404 -0.000340927 -0.000192508 1.30678e-05 
-0.000238984 -1.56138e-05 -0.000149606 0.00038148 0.000380767 -2.95014e-05 0.000806817 0.000271493 -3.1879e-05 
-0.000234276 0.000112318 -0.000103297 -0.000468474 -4.42811e-05 -8.73473e-07 -0.000832715 -0.00054316 9.78983e-05 
-0.000253833 -0.000473797 -1.94927e-05 -0.000685502 -0.000109013 -3.42613e-05 -0.000105577 -0.000320242 9.24591e-05 
-0.00020754 0.000284252 4.32548e-05 -0.000881925 0.000456657 0.000137274 0.000197345 -0.000292039 -0.000300268 
2.3529e-05 0.000171244 -7.03991e-05 0.000385903 -0.000558635 -0.000403727 0.000176074 -0.000169617 5.56863e-05 
0.000158038 2.96745e-05 -8.40373e-05 6.13689e-05 -0.000199512 -0.000107999 -0.000170796 0.000396422 0.000140436 
-0.000303592 -0.000392766 -0.000106231 -0.000278336 4.1419e-05 -0.000776368 -0.000175987 -3.38644e-05 -0.00021785 
0.000453637 4.295e-05 8.29623e-05 0.000238556 -7.88485e-05 -0.000145639 0.000219698 0.000396844 9.74608e-05 
0.000110937 0.00027242 4.39536e-05 0.00056684 0.000253906 -3.39121e-05 4.51396e-05 0.00016375 -0.000305904 
-0.000118149 -0.000246815 -0.000327573 -9.40146e-05 7.61729e-05 -5.46291e-05 0.000678932 -0.00035098 5.83654e-05 
-0.000175792 0.0002083 0.000102419 1.03009e-05 0.000102228 0.000101385 -0.000286787 2.5309e-05 4.87969e-05 
-0.000105981 -6.18159e-05 -5.43917e-05 -6.43159e-07 -9.85837e-05 0.000207312 0.000155091 -0.000141818 8.60753e-05 
-2.68594e-05 -0.000264923 5.71299e-05 7.50679e-05 -7.19292e-06 7.22838e-05 0.000121189 -0.000162235 -5.4963e-05 
0.000134578 -0.000188337 1.57951e-05 2.66837e-05 -0.000128439 9.36099e-06 -7.91608e-05 0.000192188 1.14719e-06 
-2.54669e-05 7.76368e-05 3.77369e-05 0.000301908 0.00014276 -0.000133635 0.000198317 0.000322304 -0.000102895 
-0.000111301 0.000243631 1.88231e-05 0.000434383 -0.000162312 -9.21621e-05 -4.87307e-05 0.000109016 -7.83851e-05 
0.000397204 -8.40493e-06 0.000544717 -1.90405e-05 4.765e-05 0.000115319 -0.000155869 0.000134522 3.98755e-05 
-9.08976e-05 1.65041e-05 7.15425e-05 4.24474e-05 9.87102e-05 4.75971e-05 8.15482e-05 -3.26633e-05 -0.000298664 
0.000204371 -0.000166306 -6.14239e-05 0.00034786 1.76218e-05 -0.000394647 -4.47561e-05 -7.61452e-05 -0.000375717 
0.000217829 7.83755e-05 -1.87831e-05 0.00154223 0.000198448 -0.000363907 -2.79238e-05 -0.000245032 -0.000426773 
0.000145275 6.64864e-05 -2.37786e-05 -3.48725e-05 -1.8033e-05 -0.000519868 0.000416625 -0.000136255 0.000189808 
-0.00140141 -0.000457081 -0.000595564 0.000310789 0.000508935 -0.000279742 -0.000108313 2.1988e-05 9.00923e-06 
-0.00014826 -0.000266654 0.000549609 0.00028445 3.39089e-05 0.000328376 0.00231465 0.000621718 -0.00199685 
1.778e-05 0.000351172 -0.000735701 0.00037015 0.000782845 0.00097896 -4.86085e-05 0.000845863 -0.0004438 
3.19241e-05 0.000101792 6.65052e-05 -6.63413e-05 0.000491983 -0.000238018 2.78097e-05 0.000705655 -0.000673841 
1.04632e-05 0.000488674 -0.000231127 0.00112774 -0.000660649 0.00130388 0.000511827 -0.00049999 0.000112859 
0.000282569 0.000583056 -0.0001123 -9.41386e-05 -3.54043e-05 1.35776e-05 0.000846501 -0.000323692 -0.000182704 
-0.000100167 0.000352692 -0.000135752 -0.000601753 0.000500813 -0.000131822 -0.000152544 0.000892754 -0.000166221 
-0.000294581 0.000369967 1.95959e-05 0.000122482 0.00040217 -0.000655126 0.000533685 -0.000153177 0.000867514 