# vtk DataFile Version 4.0
Generated by LIGGGHTS
ASCII
DATASET POLYDATA
POINTS 1140 float
-379.407 -380.893 49.9817 -460.658 -439.189 49.9637 -256.792 -470.426 49.9836 
-90.5614 -363.767 49.97 -165.235 -430.236 49.9473 90.9092 -486.891 49.9375 
125.592 -361.672 49.9575 25.3622 -411.402 49.974 182.153 -444.959 49.9935 
221.851 -334.679 49.9546 284.168 -412.836 49.9901 440.598 -454.971 49.935 
377.612 -377.351 49.9393 476.34 -361.583 49.9866 -442.438 -303.267 49.9901 
-374.083 -230.291 49.9516 -311.054 -307.866 49.9549 -275.447 -214.001 49.9559 
-175.564 -209.745 49.9656 -174.628 -309.706 49.9644 -87.086 -261.397 49.9658 
-3.02729 -315.544 49.9535 1.8466 -215.694 49.9544 85.8932 -269.906 49.9747 
270.24 -195.722 49.9354 182.145 -242.946 49.9637 313.36 -286.567 49.9701 
370.175 -193.835 49.9483 476.596 -206.57 49.9812 413.326 -283.982 49.9589 
-441.39 -149.387 49.9582 -479.816 -53.7814 49.9714 -379.798 -45.1282 49.9375 
-339.331 -136.552 49.9747 -191.265 -10.4979 49.9684 -186.08 -110.338 49.9753 
-280.402 -55.7904 49.9349 -82.1692 -161.526 49.9353 -98.1202 -62.807 49.9765 
94.4159 -163.977 49.9862 140.319 -75.1251 49.9415 6.77278 -115.834 49.9474 
308.629 -3.58965 49.9604 430.455 -9.53693 49.9732 438.959 -112.262 49.9803 
337.681 -99.269 49.9933 -449.919 149.352 49.9835 -361.599 102.489 49.9685 
-437.082 36.8077 49.9534 -265.953 143.513 49.9663 -277.362 44.1674 49.9837 
-24.144 4.44488 49.9737 -150.565 109.076 49.9111 -29.4103 104.283 49.983 
75.7694 1.21789 49.9622 70.5369 101.412 49.9636 267.315 87.444 49.9317 
198.573 14.8319 49.9497 170.078 110.643 49.9498 474.25 84.145 49.9661 
373.388 72.6024 49.9831 413.444 164.238 49.9727 -364.947 202.392 49.9528 
-425.289 282.114 49.9648 -181.718 204.052 49.9344 -273.694 243.2 49.9778 
-205.872 316.681 49.9722 -113.87 277.495 49.9649 -12.2731 247.799 49.9784 
80.6198 210.791 49.9875 64.5766 313.735 49.9808 244.846 291.047 49.9524 
187.688 209.036 49.9763 285.176 185.904 49.9935 489.655 229.02 49.938 
342.194 268.366 49.9564 432.577 311.112 49.988 -387.139 393.747 49.9576 
-482.601 364.043 49.9557 -486.113 464.121 49.9786 -386.471 493.756 49.958 
-303.793 338.525 49.9758 -197.801 446.171 49.9296 -297.633 438.316 49.9919 
-2.35631 476.667 49.9705 -25.9159 379.464 49.947 -102.409 476.007 49.951 
-125.862 376.742 49.9715 75.0271 413.289 49.9935 157.67 350.275 49.9781 
259.598 490.274 49.9548 249.042 390.898 49.9341 168.197 449.704 49.964 
359.297 482.598 49.9886 429.151 411.049 49.9723 -413.403 -460.146 135.508 
-454.899 -369.998 123.432 -380.94 -383.287 190.575 -321.551 -424.266 119.029 
-243.748 -375.721 79.2419 -222.361 -423.378 164.481 -288.029 -348.224 174.63 
-136.175 -380.599 137.322 -56.9695 -446.8 94.2949 -142.663 -480.305 133.435 
-50.3245 -474.935 189.976 16.2557 -375.62 142.891 117.498 -426.857 125.296 
30.8981 -476.341 131.695 182.561 -479.944 179.49 210.651 -391.12 131.697 
274.281 -467.832 139.504 301.8 -350.39 126.069 370.375 -447.597 120.714 
466.022 -428.003 142.752 400.105 -352.864 144.173 -376.783 -307.658 125.284 
-448.136 -226.695 116.928 -451.027 -300.26 195.728 -193.541 -321.507 194.025 
-324.596 -223.143 136.53 -242.469 -280.21 117.217 -145.711 -259.419 131.402 
-60.8444 -312.98 131.472 -57.2659 -212.79 132.095 105.78 -329.081 142.381 
121.099 -219.468 128.764 28.1547 -267.039 131.603 31.6831 -167.135 132.06 
197.914 -290.781 136.507 286.137 -243.791 136.123 206.286 -199.892 177.292 
479.128 -294.883 124.417 399.926 -234.974 136.072 485.909 -220.685 191.755 
-392.856 -145.467 137.256 -430.107 -45.1616 136.275 -215.974 -166.408 195.829 
-329.191 -68.3779 136.281 -260.459 -136.598 111.413 -232.19 -44.0876 136.671 
-313.647 -145.271 198.24 -142.752 -153.648 129.018 -133.057 -55.1814 143.339 
-51.5455 -111.75 131.025 24.2053 -47.2673 120.571 112.982 -109.505 139.709 
98.9425 -20.4601 182.914 240.293 -76.5541 50.0124 184.055 -39.5704 132.516 
189.209 -152.077 91.0166 284.746 -143.85 134.092 283.81 -43.9997 137.977 
221.04 -103.611 199.752 494.79 -145.214 126.786 384.537 -136.251 130.348 
446.64 -58.0844 135.851 369.354 -65.1077 198.876 -352.046 26.3754 114.045 
-422.899 95.1335 129.894 -499.843 25.8931 126.972 -311.63 117.971 135.171 
-206.047 61.2839 117.942 -278.821 35.6373 181.476 -213.703 159.713 133.63 
-49.6799 1.77398 168.557 -110.539 28.7838 93.9857 -110.795 116.885 141.233 
-23.2323 111.779 189.128 23.694 52.6535 123.583 132.731 47.4839 117.834 
76.6739 110.417 185.639 24.9479 160.756 116.287 175.492 97.3292 193.187 
239.017 45.329 136.142 229.461 143.979 123.159 323.076 100.855 131.757 
370.007 5.68554 128.303 422.455 90.475 135.244 488.222 165.274 126.896 
499.969 96.1282 198.118 -492.867 295.637 122.368 -350.892 280.606 116.731 
-416.628 194.773 135.154 -198.696 259.238 131.484 -293.605 212.512 162.329 
-273.96 309.899 173.476 -86.1309 183.831 71.2029 -49.1108 310.562 118.578 
-46.5244 218.033 156.408 -134.647 326.875 167.71 -140.006 200.648 187.352 
132.087 166.688 123.498 135.208 271.685 107.537 38.9699 265.822 133.911 
226.769 243.089 135.724 316.209 199.568 146.054 312.035 299.287 140.148 
398.754 168.278 193.387 405.744 235.448 119.711 471.642 236.692 194.863 
406.379 331.863 146.094 -486.592 495.975 187.593 -428.317 351.681 174.192 
-427.852 441.227 127.931 -339.568 377.988 136.464 -335.024 477.834 134.158 
-235.163 481.804 135.504 -242.274 384.002 114.315 -151.68 420.194 136.209 
-52.3175 437.142 127.204 114.561 463.18 133.235 26.1815 374.351 135.1 
125.255 364.338 143.78 16.2037 450.928 198.642 222.324 342.902 133.43 
225.586 443.558 131.599 293.84 384.211 189.735 341.78 376.84 84.4749 
486.33 391.634 140.857 438.581 477.762 123.83 342.88 459.757 146.384 
-412.49 -447.529 261.114 -418.38 -348.977 276.702 -495.524 -385.222 224.487 
-331.037 -395.692 290.122 -321.682 -460.896 212.05 -236.067 -393.912 259.007 
-191.342 -461.451 317.582 -231.096 -497.541 233.233 -94.4777 -436.694 316.512 
-4.56779 -414.555 278.874 -64.6782 -377.602 207.657 -141.816 -362.312 269.44 
-141.104 -454.112 229.857 68.2562 -430.193 212.221 57.2489 -486.119 311.335 
154.489 -379.625 213.594 92.1844 -374.347 291.635 169.489 -456.463 275.792 
251.97 -426.611 227.785 296.948 -469.732 305.926 294.06 -366.671 295.875 
198.053 -338.853 293.804 224.009 -417.408 349.929 491.231 -468.385 278.339 
406.452 -469.951 211.23 373.941 -379.011 237.036 495.128 -379.031 323.833 
390.64 -367.945 334.969 396.681 -464.727 310.6 -355.251 -292.381 223.284 
-417.006 -207.617 211.76 -460.189 -258.68 286.193 -367.093 -282.849 331.354 
-337.822 -207.297 272.801 -409.156 -192.716 341.32 -279.643 -309.898 291.185 
-264.414 -252.563 210.741 -178.575 -234.542 258.707 -189.074 -300.98 332.686 
-252.62 -218.333 323.888 -76.5213 -228.822 295.506 -14.1571 -240.51 218.18 
-103.188 -285.912 217.882 -95.661 -172.487 215.168 -38.6559 -320.828 285.772 
45.138 -320.923 221.45 141.922 -274.054 217.637 129.844 -269.481 316.788 
76.5203 -198.451 215.732 88.9911 -171.032 311.021 31.8333 -252.912 306.091 
253.458 -328.134 210.75 180.143 -193.345 275.995 266.133 -236.82 249.367 
226.878 -254.756 339.564 330.673 -184.856 305.284 346.922 -289.873 200.683 
352.99 -282.145 300.124 341 -189.616 202.889 416.614 -214.17 263.478 
443.371 -306.182 221.267 450.768 -289.546 319.577 -366.308 -8.01969 206.822 
-459.362 -108.584 207.762 -374.436 -93.3559 258.28 -490.997 -163.593 284.981 
-432.892 -95.6456 339.36 -406.456 -0.237114 298.063 -279.677 -54.857 223.959 
-244.675 -127.331 283.243 -314.633 -35.6447 315.616 -210.456 -33.3906 292.82 
-328.196 -132.141 338.025 -152.541 -153.847 311.652 -72.61 -94.9856 323.337 
-12.8341 -155.685 271.012 -158.229 -93.3631 232.241 -59.3885 -79.8797 225.414 
-14.5443 -13.1294 306.065 -105.461 -1.14548 266.247 36.6338 -98.9847 205.198 
129.49 -115.982 238.057 77.4814 -40.7565 278.418 25.4853 -97.2126 342.465 
170.116 -6.97561 325.605 206.641 -95.9262 298.348 299.774 -100.588 261.276 
271.033 -20.9373 314.396 192.435 -12.1684 228.294 479.853 -62.4445 272.362 
443.006 -132.552 211.352 371.452 -2.88581 277.061 393.706 -107.968 294.751 
-465.633 0.940887 217.525 -480.892 66.2099 291.685 -405.59 81.5497 227.423 
-481.414 161.74 321.19 -382.872 114.268 319.107 -179.866 11.899 200.818 
-319.686 53.6327 270.907 -259.554 134.688 218.867 -217.168 65.0958 276.805 
-129.698 90.947 235.863 -41.7619 80.0597 282.111 -136.268 80.4705 335.085 
26.1256 32.9411 225.833 29.7982 165.267 254.839 119.057 48.1555 259.469 
50.7086 91.0721 318.488 126.212 146.829 273.771 269.679 125.146 212.746 
289.526 10.8064 221.402 214.692 70.6734 281.173 311.29 71.2029 306.85 
239.558 165.82 299.228 436.431 15.0667 203.234 362.161 79.5172 221.216 
437.606 120.716 272.246 432.989 46.1804 338.703 375.65 134.815 349.365 
-353.732 167.026 227.987 -395.704 262.56 205.555 -452.941 179.459 227.022 
-471.21 267.443 270.882 -399.036 321.296 314.301 -395.804 212.662 306.991 
-267.992 176.626 309.224 -222.584 240.906 226.785 -314.903 252.086 263.433 
-215.691 319.878 287.68 -173.286 170.473 277.847 -302.578 315.291 339.891 
-175.339 246.678 342.478 -69.8642 172.987 253.002 -88.7405 270.9 236.65 
-90.7863 299.056 332.548 -20.3995 229.206 319.509 -102.059 178.793 347.514 
97.183 219.546 200.837 10.3586 259.984 229.5 93.7237 271.182 286.382 
69.5289 192.073 342.548 165.859 292.579 200.389 192.665 193.28 215.342 
275.177 249.239 222.973 192.28 254.71 294.231 322.027 299.658 295.479 
333.205 181.242 267.762 373.448 263.385 211.089 443.187 219.09 289.051 
419.042 312.281 316.065 -491.888 356.666 325.631 -389.663 465.742 216.987 
-367.987 415.349 300.529 -468.125 410.323 244.693 -450.472 465.833 325.939 
-346.338 345.139 232.744 -304.677 495.933 300.604 -296.562 429.522 212.756 
-209.396 380.76 208.637 -177.275 441.196 291.085 -268.882 402.712 305 
-49.6706 368.641 199.963 -11.0461 338.76 287.204 -106.44 448.268 220.851 
-127.563 359.489 261.929 -35.4647 490.127 282.431 -70.3865 408.224 327.843 
140.495 359.476 290.048 50.7983 417.272 286.124 106.717 479.567 231.506 
65.8741 342.721 221.246 136.098 453.625 323.464 178.311 412.018 213.854 
[...]
POINT_DATA 1140
FIELD FieldData 7
id 1 1140 int
92 20 9 74 35 73 25 53 19 
61 37 101 79 26 29 119 22 31 
82 52 36 84 99 14 4 60 97 
41 80 102 72 27 34 15 110 17 
18 28 142 111 24 85 105 33 39 
43 58 91 81 8 69 11 1 104 
21 93 134 46 32 44 5 76 87 
56 23 86 45 129 30 57 100 2 
95 48 3 59 16 10 38 50 12 
63 70 42 7 71 66 62 51 13 
114 6 54 40 55 77 154 249 106 
155 173 157 67 96 127 230 228 118 
185 192 122 171 164 88 175 207 140 
159 279 120 183 161 116 141 112 167 
124 193 169 208 227 216 90 150 214 
133 170 211 68 103 221 240 78 146 
166 123 224 200 89 151 132 181 245 
272 108 47 158 163 98 109 75 138 
152 215 197 210 165 172 271 117 196 
248 115 191 178 113 130 223 156 160 
217 143 65 204 137 219 190 136 121 
176 168 187 107 145 202 139 194 182 
225 131 162 269 281 256 94 184 125 
147 213 128 220 144 64 149 285 212 
148 257 153 49 83 188 393 296 199 
379 195 273 381 270 376 334 254 290 
284 239 300 126 365 345 252 320 308 
317 400 303 246 286 347 439 357 267 
251 352 432 326 426 335 276 307 389 
445 323 189 277 292 306 233 205 339 
186 331 373 218 236 262 364 351 201 
396 174 238 255 318 244 259 293 366 
424 362 302 234 380 359 367 363 370 
324 241 342 392 304 283 301 329 374 
340 297 309 385 319 268 179 287 388 
341 265 258 298 402 229 282 177 235 
253 315 350 180 294 397 346 395 226 
242 289 338 368 209 206 260 356 358 
266 278 330 328 390 401 386 247 295 
384 310 353 399 332 321 403 414 448 
135 263 360 460 325 312 275 313 291 
231 250 237 427 354 264 311 314 428 
232 421 222 280 316 337 198 377 327 
305 387 349 383 322 203 243 344 261 
336 333 355 382 299 274 288 372 343 
423 453 469 549 534 572 440 411 456 
458 418 567 369 501 484 559 615 624 
430 431 509 472 600 514 450 481 557 
574 556 564 508 544 623 480 498 530 
592 520 553 512 405 478 523 604 570 
443 416 447 536 524 517 542 513 409 
474 516 455 429 420 601 596 595 371 
491 489 582 410 505 482 616 649 538 
408 394 464 528 496 470 522 551 519 
415 378 488 510 548 651 483 554 404 
504 532 562 476 413 471 537 575 477 
507 452 436 412 444 497 611 451 487 
468 555 525 361 419 462 540 526 493 
454 398 527 597 425 494 490 591 593 
434 459 467 588 547 495 475 546 566 
437 485 535 417 406 492 463 521 457 
438 473 603 531 348 511 422 502 499 
461 466 581 626 550 449 407 500 533 
552 563 433 435 391 518 479 503 442 
561 465 486 375 565 558 568 578 541 
441 446 620 506 731 678 800 690 630 
781 699 663 779 515 708 707 599 606 
632 661 713 719 758 621 725 629 721 
715 717 631 722 730 784 792 645 740 
757 709 701 751 666 761 753 780 653 
585 672 718 669 660 685 712 742 579 
573 668 641 696 755 676 694 738 684 
560 605 654 714 726 646 674 644 716 
797 580 642 590 609 681 687 602 583 
634 706 733 643 622 636 665 760 543 
594 732 798 529 656 776 723 586 625 
652 689 627 569 617 686 795 613 589 
614 693 741 637 670 667 729 802 577 
704 739 763 683 648 735 664 610 737 
724 700 794 639 677 598 612 618 655 
695 691 711 571 539 705 675 671 608 
692 778 635 545 576 633 749 744 754 
688 587 659 638 697 787 658 607 647 
698 727 734 679 673 682 762 619 584 
657 640 747 703 628 662 702 785 720 
680 650 736 843 810 878 884 995 811 
839 864 951 965 844 883 808 902 801 
822 891 901 895 821 898 879 769 885 
882 816 928 938 869 828 903 865 954 
932 766 812 889 924 851 887 855 948 
933 911 746 765 845 896 871 953 806 
764 767 858 880 961 841 786 892 944 
752 904 921 837 750 817 799 827 867 
950 906 773 756 850 952 789 710 759 
832 925 917 849 833 872 873 809 846 
852 870 877 775 854 815 909 946 929 
886 748 728 796 847 860 777 824 805 
866 743 835 829 782 868 814 770 842 
893 831 818 876 772 788 807 820 825 
942 783 859 923 836 774 848 863 968 
819 888 957 941 908 791 823 856 927 
939 830 881 922 890 771 813 862 912 
943 853 745 804 838 875 899 803 897 
861 834 793 900 959 913 826 905 840 
768 907 960 874 790 857 978 1026 916 
1047 1014 972 990 979 967 1021 1037 914 
1001 984 937 971 947 982 1044 973 956 
1020 993 988 934 963 1000 1019 1082 1018 
1007 962 1075 918 935 999 1057 992 1002 
980 915 977 983 955 1003 1024 1035 1009 
936 974 1008 930 1006 1005 945 949 986 
920 966 969 987 1017 958 894 931 998 
975 981 970 985 997 1013 989 1068 994 
1011 1042 964 1010 926 1022 1004 919 976 
996 991 1012 910 1016 1023 1025 1015 940 
1060 1054 1033 1052 1051 1028 1074 1031 1039 
1050 1081 1083 1058 1065 1077 1046 1069 1049 
1066 1034 1073 1079 1043 1062 1036 1070 1030 
1032 1071 1048 1080 1027 1029 1040 1067 1053 
1041 1063 1061 1055 1059 1045 1134 1099 1119 
1072 1104 1078 1076 1056 1038 1064 1125 1120 
1138 1112 1133 1100 1091 1129 1108 1128 1093 
1106 1105 1109 1135 1126 1131 1101 1127 1095 
1097 1092 1115 1136 1117 1090 1094 1098 1110 
1111 1114 1089 1137 1124 1132 1103 1118 1130 
1084 1107 1139 1140 1088 1123 1116 1096 1102 
1086 1122 1087 1121 1113 1085 
type 1 1140 int
1 1 1 1 1 1 1 1 1 
1 1 1 1 1 1 1 1 1 
1 1 1 1 1 1 1 1 1 
1 1 1 1 1 1 1 1 1 
1 1 1 1 1 1 1 1 1 
1 1 1 1 1 1 1 1 1 
1 1 1 1 1 1 1 1 1 
1 1 1 1 1 1 1 1 1 
1 1 1 1 1 1 1 1 1 
1 1 1 1 1 1 1 1 1 
1 1 1 1 1 1 1 1 1 
1 1 1 1 1 1 1 1 1 
1 1 1 1 1 1 1 1 1 
1 1 1 1 1 1 1 1 1 
1 1 1 1 1 1 1 1 1 
1 1 1 1 1 1 1 1 1 
1 1 1 1 1 1 1 1 1 
1 1 1 1 1 1 1 1 1 
1 1 1 1 1 1 1 1 1 
1 1 1 1 1 1 1 1 1 
1 1 1 1 1 1 1 1 1 
1 1 1 1 1 1 1 1 1 
1 1 1 1 1 1 1 1 1 
1 1 1 1 1 1 1 1 1 
1 1 1 1 1 1 1 1 1 
1 1 1 1 1 1 1 1 1 
1 1 1 1 1 1 1 1 1 
1 1 1 1 1 1 1 1 1 
1 1 1 1 1 1 1 1 1 
1 1 1 1 1 1 1 1 1 
1 1 1 1 1 1 1 1 1 
1 1 1 1 1 1 1 1 1 
1 1 1 1 1 1 1 1 1 
1 1 1 1 1 1 1 1 1 
1 1 1 1 1 1 1 1 1 
1 1 1 1 1 1 1 1 1 
1 1 1 1 1 1 1 1 1 
1 1 1 1 1 1 1 1 1 
1 1 1 1 1 1 1 1 1 
1 1 1 1 1 1 1 1 1 
1 1 1 1 1 1 1 1 1 
1 1 1 1 1 1 1 1 1 
1 1 1 1 1 1 1 1 1 
1 1 1 1 1 1 1 1 1 
1 1 1 1 1 1 1 1 1 
1 1 1 1 1 1 1 1 1 
1 1 1 1 1 1 1 1 1 
1 1 1 1 1 1 1 1 1 
1 1 1 1 1 1 1 1 1 
1 1 1 1 1 1 1 1 1 
1 1 1 1 1 1 1 1 1 
1 1 1 1 1 1 1 1 1 
1 1 1 1 1 1 1 1 1 
1 1 1 1 1 1 1 1 1 
1 1 1 1 1 1 1 1 1 
1 1 1 1 1 1 1 1 1 
1 1 1 1 1 1 1 1 1 
1 1 1 1 1 1 1 1 1 
1 1 1 1 1 1 1 1 1 
1 1 1 1 1 1 1 1 1 
1 1 1 1 1 1 1 1 1 
1 1 1 1 1 1 1 1 1 
1 1 1 1 1 1 1 1 1 
1 1 1 1 1 1 1 1 1 
1 1 1 1 1 1 1 1 1 
1 1 1 1 1 1 1 1 1 
1 1 1 1 1 1 1 1 1 
1 1 1 1 1 1 1 1 1 
1 1 1 1 1 1 1 1 1 
1 1 1 1 1 1 1 1 1 
1 1 1 1 1 1 1 1 1 
1 1 1 1 1 1 1 1 1 
1 1 1 1 1 1 1 1 1 
1 1 1 1 1 1 1 1 1 
1 1 1 1 1 1 1 1 1 
1 1 1 1 1 1 1 1 1 
1 1 1 1 1 1 1 1 1 
1 1 1 1 1 1 1 1 1 
1 1 1 1 1 1 1 1 1 
1 1 1 1 1 1 1 1 1 
1 1 1 1 1 1 1 1 1 
1 1 1 1 1 1 1 1 1 
1 1 1 1 1 1 1 1 1 
1 1 1 1 1 1 1 1 1 
1 1 1 1 1 1 1 1 1 
1 1 1 1 1 1 1 1 1 
1 1 1 1 1 1 1 1 1 
1 1 1 1 1 1 1 1 1 
1 1 1 1 1 1 1 1 1 
1 1 1 1 1 1 1 1 1 
1 1 1 1 1 1 1 1 1 
1 1 1 1 1 1 1 1 1 
1 1 1 1 1 1 1 1 1 
1 1 1 1 1 1 1 1 1 
1 1 1 1 1 1 1 1 1 
1 1 1 1 1 1 1 1 1 
1 1 1 1 1 1 1 1 1 
1 1 1 1 1 1 1 1 1 
1 1 1 1 1 1 1 1 1 
1 1 1 1 1 1 1 1 1 
1 1 1 1 1 1 1 1 1 
1 1 1 1 1 1 1 1 1 
1 1 1 1 1 1 1 1 1 
1 1 1 1 1 1 1 1 1 
1 1 1 1 1 1 1 1 1 
1 1 1 1 1 1 1 1 1 
1 1 1 1 1 1 1 1 1 
1 1 1 1 1 1 1 1 1 
1 1 1 1 1 1 1 1 1 
1 1 1 1 1 1 1 1 1 
1 1 1 1 1 1 1 1 1 
1 1 1 1 1 1 1 1 1 
1 1 1 1 1 1 1 1 1 
1 1 1 1 1 1 1 1 1 
1 1 1 1 1 1 1 1 1 
1 1 1 1 1 1 1 1 1 
1 1 1 1 1 1 1 1 1 
1 1 1 1 1 1 1 1 1 
1 1 1 1 1 1 1 1 1 
1 1 1 1 1 1 1 1 1 
1 1 1 1 1 1 1 1 1 
1 1 1 1 1 1 1 1 1 
1 1 1 1 1 1 1 1 1 
1 1 1 1 1 1 1 1 1 
1 1 1 1 1 1 1 1 1 
1 1 1 1 1 1 1 1 1 
1 1 1 1 1 1 
i 3 1140 int
0 0 0 0 0 0 0 1 0 
0 0 0 0 0 0 0 1 0 
0 1 0 0 0 0 0 0 0 
0 0 0 0 0 0 0 1 0 
0 0 0 -1 0 0 1 0 0 
0 0 0 1 0 0 0 0 0 
0 0 0 0 0 0 0 0 0 
0 0 0 0 0 0 0 0 0 
0 0 0 0 0 0 0 0 0 
0 0 0 -1 0 0 0 0 0 
0 0 0 1 0 0 0 0 0 
0 0 0 0 0 0 0 0 0 
0 0 0 0 0 0 0 0 0 
0 0 0 0 0 0 0 0 0 
0 0 0 -1 0 0 -1 0 0 
0 0 0 0 0 0 0 0 0 
0 0 0 0 0 0 0 0 0 
0 0 0 0 0 0 0 0 0 
0 0 0 0 0 0 0 0 0 
0 0 0 0 0 0 -1 0 0 
0 0 0 0 0 0 0 0 0 
0 0 0 0 0 0 0 0 0 
0 0 0 0 0 0 0 0 0 
0 0 0 0 0 0 0 0 0 
0 0 0 0 0 0 -1 0 0 
0 0 0 -1 0 0 0 0 0 
1 0 0 0 0 0 0 -1 0 
0 0 0 0 0 0 0 0 0 
0 -1 0 0 0 0 0 -1 0 
0 0 0 0 0 0 0 0 0 
0 0 0 0 0 0 0 0 0 
0 -1 0 0 -1 0 0 0 0 
0 0 0 0 0 0 0 1 0 
0 0 0 0 0 0 1 0 0 
0 1 0 0 1 0 0 0 0 
0 1 0 0 0 0 0 0 0 
0 0 0 0 0 0 0 0 0 
0 0 0 0 0 0 0 0 0 
0 1 0 0 0 0 0 0 0 
0 0 0 0 0 0 0 0 0 
0 0 0 0 0 0 0 0 0 
0 0 0 0 0 0 0 0 0 
0 0 0 0 0 0 0 0 0 
0 0 0 0 0 0 0 0 0 
0 0 0 0 0 0 -1 0 0 
0 0 0 0 0 0 0 0 0 
0 0 0 0 0 0 0 0 0 
0 0 0 0 0 0 0 0 0 
0 0 0 0 0 0 0 0 0 
0 0 0 0 0 0 0 0 0 
0 0 0 0 0 0 0 0 0 
0 0 0 0 0 0 0 0 0 
0 0 0 0 0 0 0 0 0 
0 0 0 1 0 0 0 0 0 
0 0 0 0 0 0 0 0 0 
0 0 0 0 0 0 0 0 0 
0 0 0 0 0 0 0 0 0 
0 0 0 0 0 0 0 0 0 
0 0 0 0 0 0 0 0 0 
0 0 0 0 0 0 -1 0 0 
-1 0 0 1 0 0 0 0 0 
0 0 0 0 0 0 0 0 0 
0 0 0 0 0 0 0 0 0 
0 0 0 0 0 0 0 0 0 
0 0 0 0 0 0 0 0 0 
0 0 0 0 0 0 0 0 0 
0 0 0 0 0 0 -1 0 0 
0 0 0 0 0 0 0 0 0 
0 0 0 0 0 0 0 0 0 
0 0 0 0 0 0 0 -1 0 
0 0 0 0 0 0 0 0 0 
0 0 0 0 0 0 0 0 0 
0 0 0 0 0 0 0 0 0 
0 0 0 0 0 0 0 0 0 
0 0 0 0 0 0 1 0 0 
0 0 0 0 0 0 0 0 0 
0 0 0 0 1 0 0 0 0 
0 0 0 0 0 0 0 0 0 
0 1 0 0 0 0 0 1 0 
0 0 0 0 0 0 0 0 0 
0 0 0 0 0 0 0 0 0 
0 0 0 0 0 0 -1 0 0 
0 0 0 0 0 0 0 0 0 
0 0 0 0 0 0 0 0 0 
0 0 0 0 0 0 0 0 0 
0 0 0 1 0 0 0 0 0 
0 0 0 0 0 0 0 0 0 
0 0 0 0 0 0 0 0 0 
0 0 0 0 0 0 0 0 0 
0 0 0 0 0 0 0 0 0 
0 0 0 0 0 0 0 0 0 
0 0 0 0 0 0 0 0 0 
0 0 0 0 0 0 -1 0 0 
0 0 0 0 0 0 0 0 0 
0 0 0 -1 0 0 0 0 0 
0 0 0 0 0 0 0 0 0 
0 0 0 0 0 0 0 0 0 
0 0 0 0 0 0 0 0 0 
0 0 0 0 0 0 0 0 0 
0 0 0 0 0 0 0 0 0 
0 0 0 0 0 0 0 0 0 
0 0 0 0 0 0 0 0 0 
0 0 0 0 0 0 0 0 0 
0 0 0 0 0 0 0 0 0 
-1 0 0 0 0 0 0 0 0 
0 0 0 0 0 0 0 0 0 
0 0 0 0 0 0 0 0 0 
0 0 0 0 0 0 0 0 0 
0 0 0 0 0 0 0 0 0 
0 0 0 0 0 0 0 0 0 
0 0 0 0 0 0 0 0 0 
0 0 0 0 0 0 0 0 0 
0 0 0 -1 0 0 0 0 0 
0 0 0 0 0 0 0 0 0 
0 0 0 0 0 0 0 0 0 
0 0 0 0 0 0 0 0 0 
0 0 0 0 0 0 0 0 0 
0 0 0 0 0 0 0 0 0 
0 0 0 0 0 0 0 0 0 
0 0 0 0 0 0 0 0 0 
0 0 0 0 0 0 0 0 0 
0 0 0 0 0 0 0 0 0 
0 0 0 0 0 0 0 0 0 
0 0 0 -1 0 0 0 0 0 
0 0 0 0 0 0 0 0 0 
0 0 0 0 0 0 1 -1 0 
0 0 0 0 -1 0 0 0 0 
0 0 0 0 0 0 0 0 0 
0 0 0 0 0 0 0 0 0 
0 0 0 0 0 0 0 0 0 
0 0 0 0 0 0 0 -1 0 
0 0 0 0 0 0 0 0 0 
0 0 0 0 0 0 0 0 0 
0 0 0 -1 0 0 0 0 0 
0 0 0 0 0 0 -1 0 0 
0 0 0 0 1 0 0 0 0 
1 0 0 1 0 0 0 0 0 
0 0 0 0 0 0 0 0 0 
0 0 0 0 0 0 0 0 0 
0 0 0 0 0 0 0 0 0 
0 1 0 0 0 0 0 1 0 
0 0 0 0 0 0 0 0 0 
0 0 0 0 0 0 0 0 0 
0 0 0 0 0 0 0 0 0 
0 1 0 -1 1 0 -1 0 0 
0 0 0 0 0 0 0 0 0 
1 0 0 1 0 0 0 0 0 
1 0 0 0 0 0 0 0 0 
0 0 0 0 0 0 0 0 0 
0 0 0 0 0 0 0 0 0 
0 0 0 0 0 0 0 0 0 
0 0 0 0 0 0 0 0 0 
0 0 0 0 0 0 0 1 0 
0 0 0 0 0 0 0 0 0 
0 0 0 0 1 0 -1 0 0 
0 0 0 0 0 0 0 0 0 
0 0 0 0 0 0 0 0 0 
0 0 0 0 0 0 0 0 0 
0 0 0 0 0 0 0 0 0 
0 0 0 0 0 0 0 0 0 
0 0 0 0 0 0 0 0 0 
0 0 0 0 0 0 0 0 0 
0 0 0 0 0 0 0 0 0 
0 0 0 0 0 0 0 0 0 
0 0 0 0 0 0 0 0 0 
0 0 0 -1 0 0 0 0 0 
0 0 0 1 0 0 0 0 0 
0 0 0 0 0 0 0 0 0 
0 0 0 0 0 0 0 0 0 
0 0 0 0 0 0 0 0 0 
0 0 0 0 0 0 0 0 0 
0 0 0 0 0 0 0 0 0 
0 0 0 0 0 0 0 0 0 
0 0 0 0 0 0 0 0 0 
0 0 0 0 0 0 0 0 0 
0 0 0 0 0 0 0 0 0 
0 0 0 0 0 0 -1 0 0 
0 0 0 0 0 0 0 0 0 
0 0 0 0 0 0 0 0 0 
0 0 0 0 0 0 0 0 0 
0 0 0 0 0 0 0 0 0 
0 0 0 0 0 0 0 0 0 
0 0 0 0 0 0 0 0 0 
0 0 0 0 0 0 0 0 0 
0 0 0 0 0 0 0 0 0 
-1 0 0 0 0 0 0 0 0 
0 0 0 0 0 0 0 0 0 
0 0 0 0 -1 0 0 0 0 
0 0 0 0 0 0 0 0 0 
0 0 0 0 0 0 0 0 0 
0 0 0 0 0 0 0 0 0 
0 0 0 0 0 0 0 0 0 
0 0 0 0 0 0 0 0 0 
0 0 0 0 0 0 0 0 0 
0 -1 0 0 0 0 0 0 0 
0 0 0 0 0 0 0 0 0 
0 0 0 0 0 0 0 1 0 
0 0 0 0 0 0 0 0 0 
0 0 0 0 0 0 0 0 0 
0 1 0 0 0 0 0 0 0 
0 0 0 0 0 0 0 0 0 
0 0 0 0 0 0 0 0 0 
0 0 0 0 0 0 0 1 0 
0 0 0 0 0 0 0 0 0 
0 1 0 0 1 0 0 0 0 
0 0 0 0 0 0 0 0 0 
0 0 0 0 0 0 0 0 0 
0 0 0 0 0 0 0 0 0 
0 0 0 0 0 0 0 0 0 
0 0 0 0 0 0 0 0 0 
0 0 0 0 0 0 0 0 0 
0 0 0 0 0 0 0 0 0 
0 0 0 0 0 0 0 0 0 
0 0 0 0 0 0 0 0 0 
0 0 0 0 0 0 0 0 0 
0 0 0 0 0 0 0 0 0 
0 0 0 0 0 0 0 0 0 
0 0 0 1 0 0 0 0 0 
0 0 0 0 0 0 0 0 0 
0 0 0 0 0 0 0 0 0 
0 0 0 0 0 0 0 0 0 
0 0 0 0 0 0 0 0 0 
0 0 0 0 0 0 0 0 0 
0 0 0 0 0 0 0 0 0 
0 0 0 0 0 0 0 0 0 
0 0 0 0 0 0 0 0 0 
0 0 0 0 0 0 0 0 0 
0 0 0 0 0 0 0 0 0 
0 0 0 0 0 0 0 0 0 
0 0 0 0 0 0 0 0 0 
0 0 0 0 0 0 0 0 0 
0 0 0 0 0 0 0 0 0 
0 0 0 0 0 0 0 0 0 
0 0 0 -1 0 0 0 0 0 
0 0 0 0 0 0 0 0 0 
0 0 0 0 0 0 0 0 0 
0 0 0 0 0 0 0 0 0 
0 0 0 0 0 0 0 0 0 
0 0 0 0 0 0 0 0 0 
0 0 0 0 0 0 0 0 0 
0 0 0 0 0 0 0 0 0 
0 0 0 0 0 0 0 0 0 
0 0 0 0 0 0 0 0 0 
0 0 0 0 0 0 0 0 0 
0 0 0 0 0 0 0 0 0 
0 0 0 0 0 0 0 -1 0 
0 0 0 0 -1 0 0 0 0 
0 0 0 0 0 0 1 0 0 
0 0 0 0 -1 0 0 0 0 
0 0 0 0 0 0 0 0 0 
0 0 0 0 0 0 0 0 0 
0 0 0 0 0 0 0 -1 0 
0 0 0 0 0 0 0 0 0 
0 0 0 0 0 0 0 0 0 
0 0 0 0 0 0 0 0 0 
0 -1 0 0 0 0 0 0 0 
0 0 0 1 0 0 0 0 0 
0 1 0 0 0 0 0 0 0 
0 0 0 0 0 0 0 0 0 
0 1 0 0 0 0 0 0 0 
0 0 0 0 1 0 0 0 0 
0 0 0 0 1 0 0 0 0 
0 0 0 0 0 0 0 0 0 
0 0 0 0 0 0 -1 0 0 
0 0 0 0 1 0 0 0 0 
0 -1 0 0 0 0 0 0 0 
0 0 0 0 0 0 1 0 0 
0 0 0 0 0 0 0 0 0 
0 0 0 0 0 0 0 0 0 
0 0 0 0 0 0 0 0 0 
0 0 0 0 0 0 0 0 0 
0 0 0 0 0 0 0 0 0 
0 0 0 0 0 0 0 0 0 
0 0 0 0 0 0 0 0 0 
0 0 0 0 0 0 0 0 0 
0 0 0 0 0 0 0 0 0 
1 0 0 0 0 0 0 0 0 
0 0 0 0 0 0 0 0 0 
0 0 0 0 0 0 0 0 0 
0 0 0 0 0 0 0 0 0 
0 0 0 0 0 0 0 0 0 
0 0 0 0 0 0 0 0 0 
0 0 0 0 0 0 0 0 0 
0 0 0 0 0 0 0 0 0 
0 0 0 0 0 0 0 0 0 
0 0 0 0 0 0 0 0 0 
1 0 0 0 0 0 0 0 0 
0 0 0 0 0 0 0 0 0 
0 0 0 0 0 0 0 0 0 
0 0 0 0 0 0 0 0 0 
0 0 0 0 0 0 0 0 0 
0 0 0 0 0 0 0 0 0 
0 0 0 0 0 0 0 0 0 
0 0 0 0 0 0 0 0 0 
0 0 0 0 0 0 0 0 0 
0 0 0 0 0 0 0 0 0 
0 0 0 0 0 0 0 0 0 
0 0 0 0 0 0 0 0 0 
0 0 0 0 0 0 0 0 0 
0 0 0 0 0 0 0 0 0 
0 0 0 0 0 0 0 0 0 
0 0 0 0 0 0 0 0 0 
0 0 0 0 0 0 0 0 0 
0 0 0 0 0 0 0 0 0 
0 0 0 0 0 0 0 0 0 
1 0 0 0 0 0 0 0 0 
0 0 0 0 0 0 0 -1 0 
0 0 0 0 0 0 0 0 0 
0 -1 0 0 0 0 0 0 0 
0 0 0 0 -1 0 0 0 0 
0 0 0 0 0 0 0 -1 0 
0 0 0 0 0 0 0 -1 0 
0 -1 0 0 0 0 0 0 0 
0 0 0 0 0 0 0 0 0 
0 0 0 0 0 0 0 0 0 
0 -1 0 0 0 0 0 0 0 
0 0 0 0 0 0 0 0 0 
0 0 0 0 0 0 0 0 0 
0 0 0 0 0 0 0 0 0 
0 0 0 1 0 0 0 0 0 
0 0 0 0 0 0 0 0 0 
0 0 0 0 0 0 0 0 0 
0 0 0 0 0 0 0 0 0 
0 0 0 0 0 0 0 0 0 
0 0 0 0 0 0 0 0 0 
0 0 0 0 0 0 0 0 0 
0 0 0 0 0 0 0 0 0 
0 0 0 0 0 0 0 0 0 
0 0 0 0 0 0 0 0 0 
0 0 0 1 0 0 0 0 0 
0 0 0 0 0 0 0 0 0 
0 0 0 0 0 0 0 0 0 
0 0 0 0 0 0 0 0 0 
0 0 0 0 0 0 0 0 0 
0 0 0 0 0 0 0 0 0 
0 0 0 0 0 0 0 0 0 
0 0 0 0 0 0 0 0 0 
0 0 0 0 0 0 0 0 0 
0 0 0 0 0 0 0 0 0 
0 0 0 0 0 0 0 0 0 
0 0 0 0 0 0 0 0 0 
0 0 0 0 0 0 0 0 0 
0 0 0 0 0 0 0 0 0 
0 -1 0 0 0 0 0 0 0 
0 0 0 -1 0 0 0 0 0 
0 0 0 0 0 0 0 0 0 
0 0 0 0 0 0 0 0 0 
0 0 0 0 0 0 0 0 0 
0 0 0 0 0 0 0 0 0 
0 0 0 0 0 0 0 0 0 
0 0 0 0 0 0 0 0 0 
0 0 0 0 0 0 0 0 0 
0 0 0 0 0 0 0 0 0 
0 0 0 0 0 0 0 0 0 
0 0 0 0 0 0 0 0 0 
0 0 0 0 0 0 0 0 0 
0 0 0 0 0 0 0 0 0 
0 0 0 0 0 0 0 0 0 
0 0 0 0 0 0 0 0 0 
0 0 0 0 0 0 0 0 0 
0 0 0 0 0 0 0 0 0 
0 0 0 0 0 0 0 0 0 
0 0 0 0 0 0 0 0 0 
0 0 0 0 0 0 0 0 0 
0 0 0 0 0 0 0 0 0 
0 0 0 0 0 0 0 0 0 
0 0 0 0 0 0 0 0 0 
0 0 0 0 0 0 0 0 0 
0 0 0 0 0 0 0 0 0 
0 0 0 0 0 0 0 0 0 
0 0 0 0 0 0 0 0 0 
0 0 0 0 0 0 0 0 0 
0 0 0 0 0 0 0 0 0 
0 0 0 0 0 0 0 0 0 
0 0 0 0 0 0 0 0 0 
0 0 0 0 0 0 0 0 0 
0 0 0 0 0 0 0 0 0 
0 0 0 0 0 0 0 0 0 
0 0 0 0 0 0 0 0 0 
0 0 0 0 0 0 0 0 0 

v 3 1140 double
5.32596e-06 4.2963e-05 -3.7182e-05 -7.61729e-05 6.232e-06 -5.50616e-05 -2.14235e-05 -7.51206e-09 1.07473e-06 
-3.80389e-05 5.82483e-05 -3.75934e-05 -1.01099e-05 3.83768e-05 -1.67003e-06 -6.76292e-05 -5.10148e-05 1.81888e-05 
7.08379e-05 -5.6336e-05 -8.85157e-05 -8.86228e-05 -1.00304e-05 -7.47851e-05 8.8039e-05 -2.85601e-06 -9.81582e-16 
-4.255e-05 2.58897e-05 -6.71428e-05 -4.81952e-05 1.18913e-05 -3.05459e-05 -2.81808e-05 3.97398e-05 -2.54589e-05 
-4.54905e-05 1.01734e-05 -1.26898e-05 -2.44173e-05 5.95694e-06 -2.08252e-05 -9.87313e-06 -1.19459e-05 -2.66922e-05 
1.89383e-05 -4.7424e-05 -3.91348e-05 -7.3598e-06 -5.38414e-05 -8.80783e-05 7.80007e-06 -6.02608e-05 -7.42704e-05 
-2.39154e-05 -3.41434e-05 -2.1063e-05 -1.22166e-05 -2.41841e-05 -6.22979e-05 1.63819e-05 -3.91065e-05 -5.15005e-05 
2.04292e-05 -2.35068e-05 -8.71575e-05 9.55348e-05 -7.34655e-05 -6.72357e-05 -2.63177e-05 -4.90909e-05 -8.96877e-05 
5.52884e-05 -8.10627e-05 1.45178e-05 -4.03768e-05 3.07461e-05 -3.16669e-05 7.85636e-05 -7.18037e-05 -7.34606e-06 
-6.19378e-05 -5.18425e-05 2.01213e-05 0.000112814 -0.000190156 -5.21512e-05 2.27999e-05 8.10366e-06 4.4265e-08 
0.000189024 -0.000370652 -9.33441e-05 7.45509e-05 -0.00012246 5.5388e-05 4.77893e-05 -2.90208e-05 -1.62853e-05 
4.7945e-05 -4.34079e-05 -6.67481e-05 3.62028e-05 -5.30086e-05 -7.03003e-05 3.28265e-05 -2.18519e-05 -2.98256e-05 
7.1793e-05 -6.76494e-05 -0.000111433 0.000114485 -7.85507e-05 -4.87489e-05 2.47527e-05 -7.4128e-05 -6.65953e-05 
-4.68719e-05 -3.72351e-05 6.45385e-06 1.63853e-05 -2.38007e-05 -5.45189e-05 6.58862e-05 -6.8559e-05 -3.40922e-05 
8.55229e-05 1.12025e-05 1.26267e-05 -6.96243e-05 -8.89626e-05 -1.10803e-06 -7.51962e-05 -7.27732e-05 4.0724e-05 
-0.000135978 -6.03398e-05 1.24526e-05 -3.76417e-05 4.23672e-05 -6.84231e-05 -3.2086e-05 -2.10084e-05 -4.34686e-05 
1.90434e-05 6.36876e-05 -7.76315e-05 1.28372e-05 2.45183e-05 -4.35677e-05 1.13587e-05 -1.49676e-05 -8.22437e-05 
1.6034e-05 -3.38677e-05 -1.9076e-05 -4.54731e-06 -3.91453e-05 -4.1271e-05 2.59927e-05 -1.43651e-05 7.06332e-06 
5.26954e-05 -5.02867e-05 -1.16212e-05 5.37165e-05 -4.05378e-05 1.13974e-05 2.21318e-05 5.50012e-05 -1.48489e-05 
1.94825e-05 -1.42178e-05 -3.67584e-05 4.34771e-05 1.08871e-05 4.23332e-06 -8.40929e-05 -8.7875e-06 -4.26024e-05 
-9.02173e-05 -4.93451e-05 1.52628e-05 4.45942e-05 0.000151387 -6.41306e-05 6.36485e-05 1.67085e-05 -2.96565e-05 
-1.39205e-05 5.46257e-05 -1.59383e-05 3.00888e-05 3.61638e-05 -1.82452e-05 3.19962e-05 4.9974e-05 -8.71111e-06 
-9.70122e-06 6.70216e-05 6.30558e-06 4.02175e-05 2.54915e-05 5.35184e-05 2.27783e-05 6.57657e-05 3.80735e-05 
-7.38815e-06 -5.22165e-05 7.44324e-05 9.19582e-05 3.06514e-05 -9.58706e-05 2.21925e-05 2.70321e-05 -3.74912e-05 
0.000108206 -2.2422e-05 3.90719e-05 4.33406e-05 2.47996e-06 2.6429e-15 -2.11009e-05 6.21776e-05 -3.07614e-07 
-1.30251e-05 8.89021e-05 -4.64222e-05 -2.70978e-05 6.00899e-05 -4.20392e-05 -5.49792e-05 5.03189e-05 -6.86892e-05 
-4.77021e-05 5.36498e-05 -6.52593e-05 -4.93934e-05 4.48043e-05 -9.05015e-05 5.39039e-05 -2.71796e-05 -7.44816e-05 
-5.53326e-05 4.53318e-05 -5.41529e-06 -7.35636e-05 0.000134417 -5.94259e-05 -6.55364e-05 4.1706e-05 -2.10881e-05 
0.000129572 0.000162792 -0.000149029 -4.32872e-05 2.9436e-06 -1.25861e-05 -6.20954e-06 1.53593e-06 -3.72099e-05 
-7.11702e-05 4.12725e-05 1.28045e-05 6.50255e-05 7.64076e-05 7.44108e-12 8.31082e-05 -3.4641e-05 -6.83078e-05 
-8.90443e-05 1.4285e-05 -6.11042e-05 -5.05586e-05 1.89345e-05 -7.98063e-05 -9.12914e-05 -5.54685e-05 -3.05003e-05 
-1.09805e-05 6.61896e-05 -8.8239e-05 -3.83146e-05 7.59499e-05 -8.52427e-05 -9.98676e-05 -2.21936e-05 -0.000139286 
-6.83349e-05 -4.73141e-05 -1.5374e-05 -0.000197191 -4.7944e-05 -3.7259e-05 -5.77761e-05 5.18772e-07 -7.04365e-05 
-3.63117e-06 -1.31422e-05 -3.47299e-05 -6.47263e-06 0.000260382 0.000201966 5.46529e-05 -0.00014568 -9.22094e-05 
4.75403e-05 0.00018717 8.77351e-05 -4.95323e-05 7.4585e-05 -0.000161835 0.000115459 9.25087e-05 -2.35827e-05 
0.000290667 1.66315e-05 -0.000262808 -9.68477e-05 -0.000185945 5.59536e-07 -4.78927e-05 -9.74888e-06 -4.60121e-05 
5.21525e-05 0.000125942 -0.000322736 -0.000144467 -1.73968e-05 9.94257e-05 -9.71595e-06 2.38326e-05 -9.17735e-05 
-5.56474e-05 5.47092e-05 -0.000160427 -5.13621e-05 5.3339e-05 -3.66812e-05 -0.000111031 -1.02986e-05 -0.000148605 
-0.000102114 5.39129e-05 -3.94326e-05 -7.4927e-05 2.50988e-05 3.35789e-05 3.77011e-07 -0.000112142 -7.24383e-05 
0.000124763 -0.000248359 8.13496e-05 -0.000124129 -0.000152451 9.68368e-05 -7.82982e-05 0.000147542 9.31303e-05 
-1.09927e-05 -0.000146117 -9.73939e-05 -5.89557e-05 -0.000123372 -0.000121548 -2.20479e-06 -5.92206e-05 -6.22016e-05 
0.000173362 2.97739e-05 -0.000108288 8.3657e-05 -0.000144451 -9.09805e-05 5.40578e-05 -0.000176453 -0.000116001 
-3.3346e-05 -0.000206897 -9.18616e-05 0.00010817 -0.000173572 -8.94613e-05 0.00015984 -0.000170691 -4.91629e-05 
-8.64431e-06 -0.000143286 -9.41821e-05 -1.58397e-05 -0.000141471 3.98538e-05 -4.58676e-05 -0.000118715 -0.000202504 
-1.87139e-05 -3.93697e-05 3.81763e-05 -1.76677e-05 -4.81052e-05 3.64631e-05 6.46784e-05 -0.000120822 2.44925e-05 
0.000167223 -0.000459879 -0.000289251 0.000142034 -2.77925e-05 7.99061e-05 1.41351e-05 -0.000279138 -0.000291672 
4.52604e-05 -0.000185813 -0.000218612 -1.37769e-05 -0.000115376 -0.000123174 2.18405e-05 -7.09521e-05 -0.000179032 
1.85631e-05 -0.000121033 -0.000178294 3.49407e-05 -0.000238907 -0.000228839 1.81612e-05 -0.000202135 -7.8621e-05 