FoamFile
{version 2.0; format ascii;class Cloud<passiveParticle>; location 0;object  positions;}
353
(
( 3.01992 0.883543 0.499629 ) 0 
( 2.56366 3.50509 0.49996 ) 0 
( 1.21805 2.22334 0.499976 ) 0 
( 0.287212 2.58878 0.499976 ) 0 
( 0.155055 0.348602 0.499476 ) 0 
( 1.15433 0.377892 0.499729 ) 0 
( 4.62651 2.1578 0.499829 ) 0 
( 4.70902 3.97872 0.49983 ) 0 
( 0.843855 4.34877 0.499575 ) 0 
( 4.0561 2.98131 0.499977 ) 0 
( 1.56242 3.40943 0.499648 ) 0 
( 4.50612 0.736724 0.499676 ) 0 
( 3.11675 2.35722 0.499523 ) 0 
( 2.33594 1.61406 0.499648 ) 0 
( 0.479994 1.30556 0.49978 ) 0 
( 2.1458 2.59657 0.499975 ) 0 
( 2.44624 4.49827 0.499905 ) 0 
( 0.0745092 1.8921 1.20055 ) 0 
( 1.04477 4.31603 1.47821 ) 0 
( 3.66202 3.90838 0.499976 ) 0 
( 3.27035 3.11684 1.13087 ) 0 
( 3.84098 2.27726 1.18397 ) 0 
( 0.707178 3.49974 1.0096 ) 0 
( 3.81859 1.54875 0.499733 ) 0 
( 2.1079 0.554 0.742846 ) 0 
( 4.20084 4.85143 0.499486 ) 0 
( 0.0179077 0.901076 1.32106 ) 0 
( 3.69752 0.148521 0.499734 ) 0 
( 1.93924 3.91924 1.27268 ) 0 
( 1.4357 1.29217 0.792464 ) 0 
( 0.661007 0.135609 1.33497 ) 0 
( 4.52611 1.45036 1.1994 ) 0 
( 1.21393 1.92947 1.53007 ) 0 
( 3.7189 0.856162 1.2138 ) 0 
( 2.21381 2.0993 1.36498 ) 0 
( 4.72838 4.94093 1.34368 ) 0 
( 0.193522 4.6796 1.85578 ) 0 
( 2.94023 4.05337 1.24663 ) 0 
( 1.55166 2.84827 1.32697 ) 0 
( 1.95359 4.9069 1.42675 ) 0 
( 3.07482 1.62005 1.17336 ) 0 
( 4.27401 3.55371 1.29335 ) 0 
( 1.4355 0.648662 1.70435 ) 0 
( 0.559715 2.6846 1.56931 ) 0 
( 3.06279 2.39949 1.79938 ) 0 
( 2.30431 1.12604 1.57534 ) 0 
( 3.84925 4.45718 1.34819 ) 0 
( 4.3326 0.478561 1.90664 ) 0 
( 1.83973 2.39613 2.24316 ) 0 
( 2.55842 4.32646 2.12944 ) 0 
( 1.07109 3.44531 1.96896 ) 0 
( 4.744 2.67306 1.34853 ) 0 
( 2.87545 0.335591 1.34487 ) 0 
( 0.590941 1.32278 2.02366 ) 0 
( 2.42053 3.16043 1.71081 ) 0 
( 4.14094 1.69795 2.08805 ) 0 
( 0.398409 3.95082 2.509 ) 0 
( 0.863248 0.492011 2.50906 ) 0 
( 1.58887 1.42911 2.31022 ) 0 
( 0.879454 2.19421 2.43439 ) 0 
( 3.52623 3.62453 1.95317 ) 0 
( 4.81955 4.36333 2.15432 ) 0 
( 3.20207 0.359113 2.28912 ) 0 
( 3.19951 1.34576 2.12653 ) 0 
( 1.58096 4.23468 2.31797 ) 0 
( 2.32514 0.784185 2.5147 ) 0 
( 1.8021 3.31367 2.63822 ) 0 
( 0.108203 2.83038 2.44931 ) 0 
( 4.36608 3.08087 2.1792 ) 0 
( 1.29011 2.67303 3.21025 ) 0 
( 3.69583 2.45144 2.57132 ) 0 
( 0.937774 1.39892 3.0685 ) 0 
( 2.71017 2.41587 2.73482 ) 0 
( 3.33583 1.66111 3.06665 ) 0 
( 0.109076 0.736095 3.11845 ) 0 
( 4.12702 3.89718 2.70433 ) 0 
( 1.08668 4.2095 3.18664 ) 0 
( 0.0503512 1.73743 2.75594 ) 0 
( 0.540726 4.9306 2.76073 ) 0 
( 2.79847 3.40643 2.60308 ) 0 
( 3.91383 0.934077 2.69188 ) 0 
( 3.51615 4.56788 2.2842 ) 0 
( 3.02808 0.283765 3.27051 ) 0 
( 1.93336 1.91366 3.11404 ) 0 
( 0.191825 1.53154 3.72365 ) 0 
( 3.65313 4.56775 3.27448 ) 0 
( 4.67739 1.29661 3.22571 ) 0 
( 2.54017 3.04041 3.49692 ) 0 
( 0.320147 2.48448 3.36295 ) 0 
( 2.7091 4.96456 3.27768 ) 0 
( 2.24593 4.10736 3.05376 ) 0 
( 2.54694 1.15581 3.41599 ) 0 
( 4.82599 2.24182 2.93564 ) 0 
( 4.25069 3.02379 3.17484 ) 0 
( 4.71568 4.43703 3.30567 ) 0 
( 1.58951 0.648568 3.17831 ) 0 
( 3.42659 2.57814 3.52555 ) 0 
( 1.66523 3.51165 3.60849 ) 0 
( 4.2206 2.73148 4.13042 ) 0 
( 1.76482 4.98772 2.94962 ) 0 
( 2.69915 3.91401 3.95651 ) 0 
( 0.110169 4.4015 3.49163 ) 0 
( 1.68835 1.33906 3.89459 ) 0 
( 3.43222 3.58996 3.35433 ) 0 
( 0.824012 0.192152 3.63158 ) 0 
( 0.672593 3.39268 3.58767 ) 0 
( 3.67818 0.93547 3.66326 ) 0 
( 4.49202 3.66629 3.90205 ) 0 
( 2.61669 2.07466 3.82597 ) 0 
( 4.54481 0.232446 3.02234 ) 0 
( 1.62639 4.43147 3.99857 ) 0 
( 2.55118 1.26556 4.4098 ) 0 
( 0.158976 2.19236 4.47316 ) 0 
( 1.00704 2.06806 3.95831 ) 0 
( 0.694169 4.75151 4.22389 ) 0 
( 3.18539 4.7692 4.13459 ) 0 
( 3.06364 0.420191 4.26008 ) 0 
( 1.82331 2.63563 4.06435 ) 0 
( 1.58353 0.409461 4.24723 ) 0 
( 4.16991 4.58499 4.13016 ) 0 
( 4.1781 1.74616 3.96686 ) 0 
( 0.708829 0.129174 4.64227 ) 0 
( 0.940085 2.94221 4.43915 ) 0 
( 3.42959 2.21412 4.45661 ) 0 
( 0.220719 3.87791 4.33605 ) 0 
( 1.98858 3.5429 4.55389 ) 0 
( 3.34849 3.22695 4.28208 ) 0 
( 1.82434 1.8738 4.72828 ) 0 
( 4.83066 0.390761 3.96722 ) 0 
( 4.29851 3.37455 4.8919 ) 0 
( 0.83275 1.07358 4.33873 ) 0 
( 3.53434 1.23126 4.60739 ) 0 
( 0.0761561 3.08147 4.92286 ) 0 
( 3.53325 4.07999 4.76967 ) 0 
( 2.57737 2.6658 4.72028 ) 0 
( 2.88886 1.79682 5.18672 ) 0 
( 2.31793 0.437113 4.92545 ) 0 
( 4.91256 2.08426 4.55494 ) 0 
( 4.9717 3.60476 5.59441 ) 0 
( 0.311943 2.38748 5.60273 ) 0 
( 2.47814 0.205631 5.88464 ) 0 
( 1.49879 0.988982 5.07919 ) 0 
( 3.08915 0.844092 5.41453 ) 0 
( 3.49254 2.87308 5.20591 ) 0 
( 1.66084 2.78188 5.11316 ) 0 
( 1.12704 4.00878 4.75474 ) 0 
( 3.2809 4.67207 5.53488 ) 0 
( 0.877643 1.7867 5.03814 ) 0 
( 0.500608 0.884965 5.26277 ) 0 
( 3.92454 0.293669 4.75249 ) 0 
( 2.56515 4.26186 4.94179 ) 0 
( 0.297865 4.20553 5.2776 ) 0 
( 4.77183 4.25468 4.86143 ) 0 
( 4.52082 1.09419 4.69629 ) 0 
( 1.19241 0.614576 5.95421 ) 0 
( 4.1085 1.90046 5.12031 ) 0 
( 2.63739 3.31277 5.48031 ) 0 
( 2.03438 1.5962 5.6656 ) 0 
( 0.401823 1.49657 6.04746 ) 0 
( 0.138246 4.63701 6.16534 ) 0 
( 4.37685 2.73006 5.65236 ) 0 
( 3.33632 0.710867 6.374 ) 0 
( 3.65248 0.0586913 5.68529 ) 0 
( 4.19268 4.97025 6.04469 ) 0 
( 0.668107 3.36057 5.67854 ) 0 
( 1.71708 3.70321 5.50273 ) 0 
( 4.10161 4.97236 5.04918 ) 0 
( 2.94685 2.46355 5.93664 ) 0 
( 4.10601 0.945056 5.5936 ) 0 
( 1.03747 4.22543 6.01781 ) 0 
( 1.9823 2.69835 6.05593 ) 0 
( 2.38032 0.80202 6.6811 ) 0 
( 4.09274 4.08127 5.59806 ) 0 
( 4.6924 1.82221 5.92824 ) 0 
( 1.86148 4.67877 5.67866 ) 0 
( 3.5838 3.3632 6.07245 ) 0 
( 1.56221 1.35297 6.51798 ) 0 
( 1.20391 2.08275 5.93602 ) 0 
( 3.48235 1.62075 5.98611 ) 0 
( 1.77627 3.65509 6.49971 ) 0 
( 4.7205 4.18497 6.36921 ) 0 
( 3.01203 0.201417 7.17067 ) 0 
( 2.61352 4.13438 6.04969 ) 0 
( 3.67814 4.25426 6.51603 ) 0 
( 0.333009 3.78333 6.64794 ) 0 
( 3.81559 2.45162 6.4317 ) 0 
( 0.919849 2.02118 6.89269 ) 0 
( 4.45081 3.23703 6.55404 ) 0 
( 0.266308 0.528851 6.37069 ) 0 
( 4.59103 0.684353 6.4282 ) 0 
( 2.4207 1.87058 6.54588 ) 0 
( 1.40156 0.450766 6.91817 ) 0 
( 2.68892 3.24636 6.50264 ) 0 
( 3.09644 1.36995 7.08659 ) 0 
( 4.13306 1.51731 6.73823 ) 0 
( 4.82467 2.23368 6.82996 ) 0 
( 1.08066 2.91676 6.47376 ) 0 
( 4.81541 1.04921 7.39568 ) 0 
( 0.946392 4.5024 6.97419 ) 0 
( 4.29367 3.94612 7.24128 ) 0 
( 3.38325 3.01873 7.18488 ) 0 
( 0.535794 0.222538 7.36339 ) 0 
( 3.92892 0.642014 7.17639 ) 0 
( 0.380792 1.19086 7.11125 ) 0 
( 2.00186 1.60403 7.41374 ) 0 
( 0.590028 2.85091 7.34252 ) 0 
( 4.32807 2.86888 7.47539 ) 0 
( 2.85231 4.06822 7.04805 ) 0 
( 1.80796 2.50266 7.02072 ) 0 
( 3.69317 2.09834 7.42275 ) 0 
( 0.0720486 0.89427 8.03737 ) 0 
( 1.78301 0.866999 8.0528 ) 0 
( 1.23318 3.6165 7.33841 ) 0 
( 4.53877 0.125331 7.97896 ) 0 
( 3.75118 3.52047 7.96761 ) 0 
( 2.7136 2.30697 7.39643 ) 0 
( 4.59481 1.94995 7.82875 ) 0 
( 1.94457 4.48709 7.03138 ) 0 
( 3.62756 1.23498 7.92296 ) 0 
( 0.292122 3.75561 7.64659 ) 0 
( 0.92189 4.5916 7.96976 ) 0 
( 4.12785 4.93139 7.20064 ) 0 
( 4.20328 4.39747 8.1289 ) 0 
( 1.06432 1.53536 7.75467 ) 0 
( 2.76163 0.664583 8.02057 ) 0 
( 2.7089 1.65414 8.15369 ) 0 
( 1.68346 3.46087 8.21748 ) 0 
( 4.51389 1.05388 8.34904 ) 0 
( 3.4423 2.29857 8.36965 ) 0 
( 0.103233 2.92565 8.21266 ) 0 
( 4.6832 2.76314 8.40396 ) 0 
( 3.24798 4.76536 7.64582 ) 0 
( 2.87021 3.05368 8.0426 ) 0 
( 2.34568 4.1874 7.90173 ) 0 
( 1.67798 4.37531 8.62187 ) 0 
( 1.22938 0.0345676 8.06176 ) 0 
( 2.19812 3.35577 7.36673 ) 0 
( 4.89148 3.65177 7.98675 ) 0 
( 1.29948 3.35763 9.13492 ) 0 
( 3.39614 4.14201 8.66574 ) 0 
( 3.96944 0.0472818 8.7971 ) 0 
( 3.05036 2.97871 9.02322 ) 0 
( 0.825407 0.718438 8.67077 ) 0 
( 3.64646 1.23514 8.92265 ) 0 
( 4.37352 1.91607 8.83551 ) 0 
( 2.45093 3.74489 8.79213 ) 0 
( 1.66715 1.74037 8.52571 ) 0 
( 4.67214 3.79665 8.95139 ) 0 
( 1.36066 2.56491 7.91275 ) 0 
( 0.207129 1.4898 8.82909 ) 0 
( 0.751203 2.3123 8.66403 ) 0 
( 2.13435 0.0376554 8.48717 ) 0 
( 0.260933 4.97535 8.98768 ) 0 
( 2.12406 2.6293 8.55542 ) 0 
( 2.65278 4.80933 8.62184 ) 0 
( 1.06653 1.46474 9.33962 ) 0 
( 0.332706 3.1044 9.16936 ) 0 
( 4.04355 3.03789 9.12157 ) 0 
( 0.63169 3.85818 8.58422 ) 0 
( 4.39259 0.745718 9.37399 ) 0 
( 4.14794 4.63418 9.1044 ) 0 
( 2.22494 4.45876 9.45484 ) 0 
( 2.65488 1.21377 9.04981 ) 0 
( 1.74787 0.792905 9.04929 ) 0 
( 1.5191 2.35566 9.3031 ) 0 
( 3.00589 0.287399 8.9137 ) 0 
( 2.18225 3.07499 9.50985 ) 0 
( 2.26144 0.0991915 9.55404 ) 0 
( 3.2333 4.86788 9.43385 ) 0 
( 3.46552 2.99608 9.93641 ) 0 
( 1.1771 0.386361 9.76258 ) 0 
( 0.173651 4.08925 9.44271 ) 0 
( 3.07879 3.83993 9.56458 ) 0 
( 0.44131 2.19869 9.60788 ) 0 
( 1.03926 2.90457 9.98751 ) 0 
( 1.76176 3.80306 10.051 ) 0 
( 0.296959 0.817126 9.56336 ) 0 
( 3.82933 1.38795 9.89376 ) 0 
( 3.56411 2.18799 9.35584 ) 0 
( 3.30209 0.383348 9.8639 ) 0 
( 1.98571 1.46107 9.75415 ) 0 
( 2.56288 2.16576 9.34157 ) 0 
( 4.89772 4.446 9.73859 ) 0 
( 1.07911 4.51238 9.41078 ) 0 
( 2.02827 2.3595 10.1911 ) 0 
( 1.84751 0.71276 10.4288 ) 0 
( 4.52173 2.3833 9.70702 ) 0 
( 2.61013 4.23729 10.3535 ) 0 
( 0.795805 3.99821 10.2202 ) 0 
( 4.18628 0.567346 10.3399 ) 0 
( 0.303926 0.155625 10.3131 ) 0 
( 3.89837 4.23357 9.98594 ) 0 
( 1.14852 1.88701 10.2423 ) 0 
( 3.08244 2.00475 10.2127 ) 0 
( 4.39294 3.36466 9.99956 ) 0 
( 2.59847 0.0557831 10.4945 ) 0 
( 2.76706 2.86257 10.6394 ) 0 
( 4.13986 1.54778 10.8307 ) 0 
( 0.863188 0.967725 10.5131 ) 0 
( 0.701558 4.60884 11.024 ) 0 
( 4.9893 1.78953 10.3617 ) 0 
( 2.33182 1.5477 10.6898 ) 0 
( 3.36858 3.66798 10.6705 ) 0 
( 2.1445 3.58166 10.9479 ) 0 
( 4.05624 2.51282 10.5825 ) 0 
( 0.116561 1.61267 10.3502 ) 0 
( 3.19812 1.05728 10.5953 ) 0 
( 1.50228 2.81572 10.9088 ) 0 
( 4.76363 4.03638 10.6409 ) 0 
( 0.595117 3.22803 10.8255 ) 0 
( 1.65977 4.98 10.0942 ) 0 
( 1.76281 0.216746 11.2929 ) 0 
( 0.564629 2.34731 11.3159 ) 0 
( 0.198424 1.13991 11.24 ) 0 
( 1.24127 1.61997 11.2014 ) 0 
( 3.69185 0.906613 11.4537 ) 0 
( 2.77448 4.41344 11.324 ) 0 
( 2.68293 0.607046 11.3245 ) 0 
( 3.49903 2.89438 11.3199 ) 0 
( 0.766542 0.265236 11.2181 ) 0 
( 4.78902 2.17534 11.2623 ) 0 
( 1.51103 4.18589 11.4312 ) 0 
( 3.91417 4.44903 10.9741 ) 0 
( 3.1441 1.85247 11.1991 ) 0 
( 2.26976 2.32277 11.3185 ) 0 
( 4.64709 0.145548 11.1206 ) 0 
( 3.51045 0.0919455 10.9029 ) 0 
( 0.263083 0.353509 12.0776 ) 0 
( 4.96933 3.28749 11.3606 ) 0 
( 1.4169 2.37104 11.8384 ) 0 
( 0.420316 4.86342 11.9493 ) 0 
( 2.95173 2.46202 12.0365 ) 0 
( 1.10382 3.3079 11.6827 ) 0 
( 1.24994 0.864364 11.8564 ) 0 
( 3.71945 3.79174 11.7021 ) 0 
( 2.09822 1.35336 11.6425 ) 0 
( 2.11955 4.72708 12.0115 ) 0 
( 3.00338 1.29853 12.0639 ) 0 
( 3.95911 1.9462 11.7709 ) 0 
( 3.25448 0.0542342 11.9309 ) 0 
( 4.49951 1.12902 11.9998 ) 0 
( 1.10098 2.92991 12.6085 ) 0 
( 4.14708 4.79287 12.3414 ) 0 
( 1.69115 0.346827 12.5895 ) 0 
( 4.76142 2.05185 12.3583 ) 0 
( 2.77572 3.46133 11.7141 ) 0 
( 3.71445 2.31706 12.6667 ) 0 
( 0.740391 0.839483 12.8098 ) 0 
( 4.66823 4.13485 11.7979 ) 0 
( 4.84261 0.046952 12.674 ) 0 
( 0.481095 2.22584 12.9549 ) 0 
( 0.767429 1.68422 12.1646 ) 0 
( 4.25296 2.93061 11.9758 ) 0 
)
