FoamFile
{version 2.0; format ascii;class vectorField; location 0;object  v;}
353
(
( 3.12535e-06 3.28368e-06 9.896e-07 )  
( 1.76543e-06 1.34535e-06 1.53253e-06 )  
( -1.31615e-07 3.64231e-07 -1.05448e-08 )  
( -1.5141e-06 -4.83777e-07 1.50323e-10 )  
( 2.5914e-06 8.26819e-07 -1.03864e-07 )  
( 2.77709e-06 1.63874e-06 -1.52779e-06 )  
( 5.31299e-06 2.77097e-06 2.48857e-07 )  
( 3.42185e-06 1.39384e-06 3.16883e-07 )  
( 1.94517e-06 2.28268e-06 -1.54746e-07 )  
( 9.10799e-06 1.00719e-05 7.87578e-13 )  
( 4.33173e-06 3.56595e-06 1.88804e-07 )  
( 4.28956e-06 1.68562e-06 -5.85541e-07 )  
( 7.386e-06 3.92783e-06 4.04099e-08 )  
( 4.36013e-06 3.80628e-06 6.36413e-07 )  
( 3.46755e-06 2.7513e-06 -1.49616e-06 )  
( 2.38351e-06 -6.84222e-07 5.01267e-09 )  
( 1.70257e-06 1.20994e-06 1.91398e-07 )  
( 9.16977e-06 4.27886e-06 -3.85618e-07 )  
( 5.84489e-06 5.6649e-06 -1.13205e-06 )  
( 1.67705e-05 8.45106e-06 1.0659e-12 )  
( 9.61296e-06 5.32952e-06 -9.4931e-07 )  
( 1.01599e-05 5.08023e-06 -1.75336e-06 )  
( 6.38032e-06 3.59429e-06 1.40934e-06 )  
( 5.67915e-06 3.72008e-06 -1.58803e-07 )  
( 3.4115e-06 1.44273e-06 1.13449e-06 )  
( 2.46697e-06 2.08404e-06 -4.1354e-07 )  
( 7.06764e-06 2.99384e-06 -1.37693e-06 )  
( 3.34887e-06 2.06721e-06 1.39261e-06 )  
( 5.19281e-06 6.31819e-06 -4.86192e-07 )  
( 3.9501e-06 2.25896e-06 5.37636e-07 )  
( 6.65027e-06 3.61418e-06 -9.91122e-07 )  
( 7.91073e-06 4.59477e-06 -1.14844e-06 )  
( 7.8615e-06 3.71493e-06 1.18221e-06 )  
( 4.65054e-06 5.29642e-06 6.3172e-07 )  
( 7.99551e-06 8.56645e-06 -5.69779e-07 )  
( 5.47809e-06 6.22318e-06 -9.85731e-07 )  
( 6.79328e-06 5.68016e-06 -1.06007e-06 )  
( 5.19174e-06 4.00705e-06 1.30282e-06 )  
( 8.00701e-06 4.51247e-06 5.70195e-07 )  
( 5.25639e-06 6.52065e-06 6.51954e-07 )  
( 5.9208e-06 5.29159e-06 9.40912e-08 )  
( 7.68636e-06 4.22527e-06 1.5535e-06 )  
( 6.02478e-06 5.77514e-06 3.18376e-07 )  
( 9.43499e-06 3.98326e-06 1.42654e-06 )  
( 9.76539e-06 7.75019e-06 -2.24459e-06 )  
( 5.06961e-06 7.18581e-06 -5.22257e-07 )  
( 5.84022e-06 3.94949e-06 -1.77731e-07 )  
( 6.28717e-06 6.11068e-06 2.88632e-07 )  
( 1.08181e-05 9.81431e-06 -1.86663e-07 )  
( 7.20471e-06 7.79307e-06 1.11775e-06 )  
( 8.02166e-06 6.12276e-06 1.12171e-06 )  
( 9.45994e-06 5.18432e-06 7.17171e-07 )  
( 5.66347e-06 2.86115e-06 9.57348e-08 )  
( 4.86048e-06 2.78285e-06 -8.67238e-07 )  
( 7.62294e-06 6.80609e-06 -1.07459e-06 )  
( 8.497e-06 8.16591e-06 -1.69632e-06 )  
( 9.1937e-06 7.3759e-06 -1.4108e-06 )  
( 1.01841e-05 8.21937e-06 3.31187e-06 )  
( 1.18759e-05 4.71711e-06 1.81654e-08 )  
( 1.2006e-05 6.59012e-06 8.7275e-07 )  
( 8.28641e-06 5.30643e-06 6.32788e-07 )  
( 7.3516e-06 5.97319e-06 -2.10172e-06 )  
( 1.02967e-05 6.20188e-06 -5.84087e-07 )  
( 5.05102e-06 4.37565e-06 -3.92311e-07 )  
( 7.11434e-06 9.1614e-06 2.45615e-07 )  
( 1.38998e-05 7.71546e-06 7.43287e-07 )  
( 9.49995e-06 9.06858e-06 1.13744e-06 )  
( 1.03632e-05 4.0994e-06 7.41329e-07 )  
( 1.08143e-05 6.75198e-06 2.80645e-07 )  
( 1.31798e-05 5.20725e-06 1.39782e-06 )  
( 1.07273e-05 9.60941e-06 -1.1735e-06 )  
( 1.67112e-05 1.30531e-05 2.00337e-06 )  
( 1.18027e-05 1.04357e-05 -1.98063e-06 )  
( 1.17151e-05 1.08691e-05 -5.65728e-07 )  
( 1.31207e-05 7.76484e-06 5.02748e-06 )  
( 8.95395e-06 7.63775e-06 -1.06139e-06 )  
( 7.01819e-06 9.96382e-06 2.80772e-07 )  
( 1.36073e-05 4.1139e-06 1.15687e-06 )  
( 5.03007e-06 1.0961e-05 1.78495e-06 )  
( 7.70935e-06 7.72381e-06 -3.75415e-07 )  
( 9.47455e-06 8.65382e-06 -1.36205e-06 )  
( 8.3429e-06 6.96139e-06 -5.11851e-07 )  
( 8.88729e-06 1.19963e-05 -6.1536e-07 )  
( 1.59264e-05 6.22847e-06 -1.55617e-06 )  
( 1.52323e-05 7.02995e-06 2.57927e-06 )  
( 1.10833e-05 8.65838e-06 -1.65386e-06 )  
( 1.08501e-05 8.70247e-06 -9.70892e-07 )  
( 2.04229e-05 7.13488e-06 2.92731e-06 )  
( 1.37553e-05 5.96173e-06 1.3325e-06 )  
( 1.12171e-05 1.00377e-05 -6.97036e-07 )  
( 9.30671e-06 9.8695e-06 -1.93515e-07 )  
( 1.52672e-05 9.58941e-06 2.23229e-06 )  
( 1.26459e-05 7.907e-06 -1.4258e-06 )  
( 1.28114e-05 8.39347e-06 -8.61363e-07 )  
( 1.10709e-05 6.95446e-06 -3.44975e-06 )  
( 1.31974e-05 9.60364e-06 9.98955e-07 )  
( 1.2453e-05 1.42944e-05 -1.11376e-06 )  
( 8.87056e-06 1.06772e-05 3.84498e-07 )  
( 1.85928e-05 8.9675e-06 -1.06519e-06 )  
( 8.22273e-06 1.02706e-05 -1.40903e-07 )  
( 1.77032e-05 1.00306e-05 -2.56222e-06 )  
( 9.70893e-06 9.44173e-06 1.91523e-06 )  
( 1.72887e-05 9.40155e-06 3.07212e-06 )  
( 7.56457e-06 1.29053e-05 5.78523e-07 )  
( 1.36529e-05 1.54821e-05 4.67075e-06 )  
( 1.21562e-05 7.95939e-06 -7.31358e-08 )  
( 1.1784e-05 9.48018e-06 -8.42737e-07 )  
( 1.49503e-05 9.04209e-06 -2.53329e-06 )  
( 1.56482e-05 1.00105e-05 1.1094e-06 )  
( 9.82665e-06 9.60025e-06 -1.78452e-06 )  
( 9.79404e-06 1.03237e-05 9.10503e-07 )  
( 1.56261e-05 1.13263e-05 2.98732e-06 )  
( 1.77818e-05 8.53377e-06 1.10497e-06 )  
( 1.71988e-05 9.10916e-06 -1.22383e-06 )  
( 1.23765e-05 1.20954e-05 -1.3546e-06 )  
( 1.65306e-05 1.01644e-05 -1.72045e-06 )  
( 1.26476e-05 1.09061e-05 8.48177e-07 )  
( 2.15094e-05 3.86988e-06 5.43251e-06 )  
( 1.73301e-05 1.16277e-05 1.28203e-05 )  
( 1.24304e-05 7.47802e-06 -2.05131e-06 )  
( 1.70041e-05 8.91328e-06 -2.12064e-06 )  
( 1.62648e-05 1.25491e-05 6.77872e-06 )  
( 1.96131e-05 1.09927e-05 5.00486e-07 )  
( 1.75188e-05 1.31307e-05 -8.16886e-07 )  
( 1.61001e-05 8.99328e-06 9.36298e-07 )  
( 1.74338e-05 1.33078e-05 -3.3339e-06 )  
( 1.52662e-05 1.21619e-05 1.35449e-06 )  
( 1.85224e-05 1.42923e-05 3.13735e-06 )  
( 1.28019e-05 1.01266e-05 -3.88911e-06 )  
( 2.35224e-05 9.27543e-06 -1.80036e-06 )  
( 1.78323e-05 1.21329e-05 5.61937e-06 )  
( 1.5358e-05 1.34979e-05 -1.45241e-06 )  
( 1.822e-05 8.89596e-06 1.81191e-06 )  
( 1.85474e-05 1.07996e-05 9.73354e-07 )  
( 1.95984e-05 4.69887e-06 7.71628e-06 )  
( 1.92954e-05 1.40045e-05 4.55483e-07 )  
( 1.80617e-05 1.20255e-05 5.4117e-06 )  
( 1.89833e-05 1.10907e-05 -3.0097e-06 )  
( 2.16561e-05 1.08109e-05 6.40135e-07 )  
( 1.87581e-05 1.0259e-05 3.25502e-06 )  
( 2.00942e-05 1.75525e-05 7.15151e-06 )  
( 2.16557e-05 1.59892e-05 3.88006e-06 )  
( 2.06219e-05 1.43193e-05 3.60735e-06 )  
( 2.32179e-05 1.13508e-05 3.03095e-07 )  
( 2.24326e-05 1.55124e-05 3.24585e-06 )  
( 1.75556e-05 1.00308e-05 4.14391e-06 )  
( 1.80108e-05 1.41743e-05 -2.76886e-06 )  
( 2.0179e-05 1.38513e-05 4.16577e-06 )  
( 1.72599e-05 1.30467e-05 7.39112e-06 )  
( 1.32265e-05 1.34628e-05 -1.31786e-06 )  
( 1.73772e-05 1.36489e-05 -6.15556e-06 )  
( 1.7578e-05 1.06153e-05 8.96522e-07 )  
( 1.85521e-05 1.06764e-05 -1.28135e-06 )  
( 1.47736e-05 1.203e-05 -7.76043e-07 )  
( 2.00846e-05 1.99457e-05 6.24885e-07 )  
( 1.86651e-05 1.33512e-05 -2.70774e-06 )  
( 2.10562e-05 8.31534e-06 2.10456e-06 )  
( 2.27886e-05 1.60976e-05 5.27744e-06 )  
( 1.94101e-05 1.32005e-05 6.60721e-06 )  
( 2.14057e-05 1.19082e-05 -2.65179e-07 )  
( 2.59674e-05 1.35904e-05 -5.08152e-07 )  
( 2.23726e-05 1.54478e-05 5.92553e-06 )  
( 1.55269e-05 1.53227e-05 1.93154e-06 )  
( 3.07927e-05 1.29613e-05 -5.0114e-06 )  
( 1.74406e-05 9.83927e-06 2.78736e-06 )  
( 2.23292e-05 7.2608e-06 -1.0353e-06 )  
( 1.6462e-05 1.25558e-05 -3.88713e-06 )  
( 2.52106e-05 1.5474e-05 4.65102e-06 )  
( 1.72424e-05 1.23934e-05 -4.03566e-07 )  
( 2.23623e-05 1.01714e-05 -4.81412e-06 )  
( 2.41809e-05 1.5326e-05 5.5023e-06 )  
( 2.64916e-05 1.87878e-05 8.53349e-06 )  
( 2.5571e-05 1.19253e-05 -2.36663e-06 )  
( 2.14031e-05 1.35991e-05 -2.74787e-06 )  
( 2.17794e-05 1.28732e-05 -1.05465e-06 )  
( 2.55168e-05 1.21975e-05 -4.21297e-07 )  
( 2.40111e-05 1.4179e-05 3.83594e-06 )  
( 2.14832e-05 1.42224e-05 5.20381e-06 )  
( 2.21121e-05 1.4163e-05 4.13874e-06 )  
( 2.05921e-05 8.21286e-06 -1.05237e-06 )  
( 2.6668e-05 1.49489e-05 -1.2539e-06 )  
( 2.29635e-05 1.2125e-05 7.31246e-06 )  
( 2.29049e-05 1.27164e-05 -3.63703e-06 )  
( 3.3144e-05 1.34435e-05 -2.84922e-06 )  
( 2.6469e-05 1.14331e-05 -3.4639e-06 )  
( 3.04775e-05 1.09129e-05 1.30592e-06 )  
( 2.62871e-05 1.46422e-05 5.46418e-06 )  
( 2.55536e-05 9.81578e-06 7.22598e-07 )  
( 2.12899e-05 2.0237e-05 2.51334e-06 )  
( 1.96368e-05 7.77054e-06 -3.03214e-06 )  
( 2.35148e-05 1.91005e-05 8.62139e-06 )  
( 2.2265e-05 1.39449e-05 -6.04474e-09 )  
( 2.77893e-05 1.65945e-05 1.743e-06 )  
( 2.8921e-05 1.41287e-05 7.79294e-06 )  
( 3.03983e-05 1.27083e-05 -5.25775e-07 )  
( 3.32644e-05 5.91616e-06 -5.46978e-07 )  
( 2.43679e-05 1.63971e-05 5.29629e-06 )  
( 3.30717e-05 6.32156e-06 6.99518e-06 )  
( 3.16896e-05 1.09747e-05 -6.25524e-06 )  
( 2.93901e-05 9.27883e-06 -4.44084e-06 )  
( 2.99192e-05 1.63609e-05 3.98677e-06 )  
( 1.93032e-05 1.95963e-05 -8.67759e-08 )  
( 3.03285e-05 1.15865e-05 2.19563e-06 )  
( 2.82944e-05 1.73385e-05 2.07052e-06 )  
( 2.54724e-05 1.70302e-05 7.215e-06 )  
( 3.68041e-05 1.42643e-05 1.01341e-05 )  
( 2.85201e-05 1.43848e-05 5.9219e-06 )  
( 3.48957e-05 1.87457e-05 -3.80395e-07 )  
( 2.67863e-05 2.06917e-05 6.18532e-06 )  
( 3.43423e-05 1.27665e-05 2.32547e-06 )  
( 2.34468e-05 1.11674e-05 3.24508e-06 )  
( 2.43414e-05 1.76392e-05 9.28019e-06 )  
( 3.07478e-05 1.81291e-05 3.81936e-06 )  
( 2.9186e-05 6.24733e-06 3.1548e-07 )  
( 3.25992e-05 1.61452e-05 5.17736e-06 )  
( 2.72029e-05 2.13153e-05 8.25392e-06 )  
( 3.36234e-05 9.37828e-06 1.88348e-05 )  
( 2.98194e-05 1.04781e-05 -6.39285e-08 )  
( 3.48761e-05 1.22386e-05 4.51517e-06 )  
( 2.47179e-05 1.548e-05 -2.76822e-06 )  
( 4.43594e-05 1.49196e-06 -7.10775e-06 )  
( 3.4644e-05 6.33987e-06 3.353e-07 )  
( 3.03305e-05 1.87872e-05 -1.10452e-05 )  
( 2.25372e-05 1.89055e-05 1.12897e-05 )  
( 2.87157e-05 2.0607e-05 6.62988e-06 )  
( 3.00178e-05 1.80336e-05 4.53841e-06 )  
( 3.93563e-05 2.33823e-05 3.64677e-06 )  
( 3.58436e-05 6.69485e-06 5.11478e-06 )  
( 3.4154e-05 1.53916e-05 6.48349e-07 )  
( 2.67559e-05 9.3134e-06 2.5957e-06 )  
( 3.20861e-05 1.55356e-05 9.23019e-06 )  
( 3.48241e-05 2.50047e-05 1.04653e-06 )  
( 3.13023e-05 2.31763e-05 5.66543e-06 )  
( 4.30129e-05 1.69452e-05 3.32657e-07 )  
( 4.47615e-05 2.02633e-05 -1.36301e-06 )  
( 1.63255e-05 2.23403e-05 2.90297e-08 )  
( 3.21041e-05 2.05954e-05 1.72056e-06 )  
( 1.94165e-05 9.57229e-06 -4.85357e-06 )  
( 3.4096e-05 9.7377e-06 -1.73539e-06 )  
( 3.53165e-05 1.40879e-05 8.15641e-06 )  
( 3.37132e-05 9.14513e-06 4.57722e-06 )  
( 3.49046e-05 2.46634e-05 1.16137e-05 )  
( 2.87402e-05 2.11951e-05 4.19243e-06 )  
( 3.18452e-05 9.98688e-06 3.91932e-06 )  
( 3.63705e-05 9.25206e-06 8.73769e-06 )  
( 3.03801e-05 1.7408e-05 4.0849e-06 )  
( 3.16629e-05 2.20164e-05 6.58431e-06 )  
( 3.63421e-05 1.42838e-05 -6.24989e-06 )  
( 2.5227e-05 2.96926e-05 2.20892e-06 )  
( 2.94616e-05 1.34618e-05 3.52764e-07 )  
( 3.04255e-05 1.26894e-05 -3.85064e-07 )  
( 1.97272e-05 1.49869e-05 5.62017e-06 )  
( 3.00536e-05 1.96799e-06 -1.18406e-06 )  
( 2.97982e-05 2.42022e-05 4.20664e-06 )  
( 3.56279e-05 1.5242e-05 2.78357e-06 )  
( 3.1837e-05 1.59445e-05 -1.43956e-06 )  
( 3.97559e-05 3.79536e-06 -1.9819e-06 )  
( 3.98492e-05 1.77784e-05 1.58707e-05 )  
( 3.59215e-05 1.74879e-06 -1.11409e-05 )  
( 4.15404e-05 1.09946e-05 -1.73874e-06 )  
( 3.70826e-05 1.2682e-05 -3.13171e-07 )  
( 4.43956e-05 1.50022e-05 8.7154e-06 )  
( 3.11381e-05 1.69737e-05 6.39933e-06 )  
( 3.08465e-05 1.21394e-05 9.90989e-06 )  
( 2.99519e-05 1.30413e-05 -2.35473e-06 )  
( 3.61644e-05 1.3849e-05 4.71466e-06 )  
( 3.08974e-05 1.74124e-05 1.24712e-05 )  
( 3.41335e-05 5.24076e-06 -1.38374e-06 )  
( 3.21576e-05 2.62193e-05 4.85252e-06 )  
( 3.5739e-05 1.21043e-05 6.57785e-06 )  
( 3.14805e-05 -7.98409e-08 1.96284e-06 )  
( 3.71373e-05 -1.71563e-06 -1.28003e-05 )  
( 3.23638e-05 1.16777e-05 5.48777e-06 )  
( 2.62412e-05 -1.46854e-06 -1.50552e-06 )  
( 6.34709e-06 2.00267e-05 -9.67481e-06 )  
( 4.05475e-05 2.85551e-05 1.14898e-05 )  
( 3.76154e-05 2.21007e-05 5.80495e-06 )  
( 4.34599e-05 1.61679e-05 -3.12492e-06 )  
( 3.42787e-05 1.57787e-05 4.2185e-07 )  
( 4.28531e-05 1.29952e-05 1.12212e-06 )  
( 2.74202e-05 1.43165e-05 8.8999e-06 )  
( 3.23414e-05 1.71531e-05 4.47018e-06 )  
( 4.23587e-05 1.69013e-05 4.98226e-06 )  
( 3.48623e-05 1.46389e-05 -4.39323e-06 )  
( 3.18838e-05 1.18161e-05 6.49783e-06 )  
( 4.16871e-05 2.67552e-07 2.1057e-06 )  
( 3.12269e-05 8.05191e-06 1.08057e-05 )  
( 4.90248e-05 1.69345e-05 6.92408e-06 )  
( 3.49622e-05 1.69637e-05 -5.71088e-06 )  
( 4.5307e-05 2.03893e-05 2.30397e-06 )  
( 4.31695e-05 3.79959e-05 1.43044e-05 )  
( 4.41167e-05 1.45197e-05 -2.51083e-06 )  
( 2.95285e-05 8.59537e-06 -9.87943e-07 )  
( 3.8214e-05 6.63647e-06 -1.71672e-06 )  
( 3.6708e-05 8.98762e-06 3.26678e-05 )  
( 3.9888e-05 -2.41699e-06 1.94942e-06 )  
( 3.37697e-05 1.37788e-05 -8.78016e-07 )  
( 3.06977e-05 1.47871e-05 -5.02394e-07 )  
( 4.3368e-05 6.4208e-06 -6.31617e-07 )  
( 3.42069e-05 -1.33434e-05 -8.53147e-06 )  
( 3.69615e-05 3.54642e-06 9.04558e-06 )  
( 3.586e-05 8.33494e-06 -6.75889e-06 )  
( 8.69334e-05 6.01116e-05 -2.77495e-05 )  
( 2.43059e-05 -9.83238e-07 4.07689e-06 )  
( 2.94464e-05 1.16994e-05 8.47029e-06 )  
( 2.91007e-05 6.92291e-06 5.72076e-06 )  
( 4.16979e-05 8.71482e-06 -4.8232e-06 )  
( 3.88784e-05 9.94504e-06 7.23463e-06 )  
( 0.00025815 -7.31642e-05 -1.92169e-06 )  
( 4.23883e-05 1.06257e-05 -1.40775e-05 )  
( 4.55892e-05 7.69402e-06 1.50266e-05 )  
( 3.89673e-05 1.01935e-05 -7.15216e-07 )  
( 5.03007e-05 5.63832e-06 -1.57165e-05 )  
( 2.18392e-05 6.68903e-06 -1.70139e-05 )  
( 2.08415e-05 -1.78014e-05 -1.1545e-05 )  
( 2.45118e-05 -6.87404e-06 -1.5266e-05 )  
( 0.000262403 -0.00027509 1.63479e-05 )  
( 4.94616e-05 8.27609e-06 -4.12323e-06 )  
( 1.13064e-05 -7.62004e-05 3.06089e-05 )  
( 2.33619e-05 1.0776e-05 5.93323e-07 )  
( 7.58977e-05 -3.00962e-05 2.32446e-05 )  
( 2.73044e-05 -9.08474e-06 1.34318e-05 )  
( 0.000335479 -4.79578e-05 -0.000165227 )  
( 4.65881e-05 5.16746e-06 -4.36643e-06 )  
( 4.05976e-05 8.10322e-06 5.53466e-07 )  
( 1.91565e-05 2.53705e-05 1.76957e-05 )  
( 5.28293e-05 -1.3417e-05 -1.68436e-05 )  
( -0.000156738 -0.000121275 -9.24559e-05 )  
( -0.000169405 0.00102514 -0.000595005 )  
( 4.34194e-05 -3.43098e-07 -4.70931e-06 )  
( -3.14921e-06 7.31555e-06 -5.14659e-05 )  
( 6.77355e-05 -0.000173462 3.36785e-06 )  
( 8.7961e-06 -7.27233e-06 2.85269e-06 )  
( 3.93901e-05 7.99828e-07 8.22128e-06 )  
( 0.000313989 -6.50726e-05 -0.000190308 )  
( 2.04126e-05 -9.16429e-06 -1.22221e-05 )  
( 0.000199738 9.3774e-05 -0.000235372 )  
( 0.00023761 0.000918065 -0.000367436 )  
( 6.76232e-05 -9.61252e-05 -8.39496e-09 )  
( 3.63567e-05 2.87611e-06 1.27926e-05 )  
( 9.20319e-05 -0.000407239 4.18208e-05 )  
( 0.000398795 -0.000389572 -0.000147147 )  
( -8.15988e-05 0.000131213 0.000191809 )  
( 1.44711e-05 -3.36681e-05 2.25479e-06 )  
( 0.00137387 -0.000394443 -0.00172238 )  
( 0.000219825 0.000399138 -0.000137454 )  
( 0.000254498 0.000326692 -0.000110732 )  
( 0.000642051 0.000894279 -0.00128386 )  
( 0.00027724 0.00137379 -0.000964796 )  
( -0.00105845 0.00113042 -0.000768939 )  
( 8.62245e-05 -9.50406e-05 -8.00992e-05 )  
( -4.61933e-05 1.48677e-05 -0.00018213 )  
( 0.000484225 -0.000753839 -0.00051196 )  
)
