FoamFile
{version 2.0; format ascii;class vectorField; location 0;object  v;}
41
(
( 5.10818e-05 6.15534e-05 -2.659e-06 )  
( 2.28691e-05 4.84758e-05 9.47515e-06 )  
( -6.63535e-05 -2.50377e-05 -3.84294e-06 )  
( -1.95074e-05 -2.67099e-05 9.47557e-06 )  
( -1.56439e-05 2.04769e-05 -1.88953e-05 )  
( 6.2392e-05 -4.34026e-05 1.15513e-06 )  
( 9.02866e-06 2.93186e-06 3.58926e-05 )  
( 1.38476e-05 6.64294e-05 -4.71106e-06 )  
( -4.48463e-05 3.36242e-05 7.57359e-06 )  
( -2.10601e-05 7.48785e-06 1.41455e-05 )  
( -3.74424e-05 5.86578e-05 5.145e-05 )  
( 1.70874e-05 0.000141426 2.36298e-05 )  
( -1.75946e-05 0.000133118 4.74076e-05 )  
( 3.16404e-05 2.20089e-05 3.39796e-05 )  
( 1.62403e-05 0.000138401 2.06692e-05 )  
( 2.56834e-06 7.95378e-06 5.46654e-05 )  
( -5.36025e-05 4.86169e-05 -2.20846e-06 )  
( -7.15763e-05 6.11238e-05 2.05275e-05 )  
( -1.5142e-05 1.62406e-06 2.7233e-05 )  
( 3.73142e-05 5.17866e-05 -9.59412e-07 )  
( -1.31651e-05 4.76083e-05 2.51446e-05 )  
( -6.83834e-05 4.64637e-05 7.3606e-06 )  
( -4.98849e-05 -4.07452e-05 8.67971e-06 )  
( 1.66228e-05 2.04343e-05 -6.11187e-05 )  
( -1.85902e-05 1.81538e-05 -4.16297e-06 )  
( 2.03467e-05 8.15971e-06 -5.2506e-05 )  
( -3.72471e-05 -2.87073e-05 -5.72311e-05 )  
( 7.48607e-06 5.72657e-05 -6.39953e-05 )  
( -2.93588e-05 7.70908e-05 -1.2473e-05 )  
( -4.23975e-05 5.56774e-05 -7.16728e-05 )  
( -2.73423e-05 5.59459e-05 -0.000118107 )  
( -4.42948e-06 -7.60968e-05 -0.000128148 )  
( -9.11021e-05 1.10911e-05 -6.44352e-05 )  
( 3.06489e-05 6.29956e-06 -8.55224e-05 )  
( -2.34986e-05 3.79623e-06 -0.000183356 )  
( -3.06722e-05 5.39477e-05 -0.000124206 )  
( -3.65621e-05 0.000135113 -0.000131727 )  
( -1.94567e-06 -5.95106e-05 -0.000201238 )  
( -4.50719e-05 0.000115228 -6.83273e-05 )  
( -1.47401e-05 -1.69183e-05 -0.000249313 )  
( 0.000106665 -6.16025e-05 -7.19983e-05 )  
)
