/*--------------------------------*- C++ -*----------------------------------*\
| =========                 |                                                 |
| \\      /  F ield         | OpenFOAM: The Open Source CFD Toolbox           |
|  \\    /   O peration     | Version:  5.x                                   |
|   \\  /    A nd           | Web:      www.OpenFOAM.org                      |
|    \\/     M anipulation  |                                                 |
\*---------------------------------------------------------------------------*/
FoamFile
{
    version     2.0;
    format      ascii;
    class       surfaceScalarField;
    location    "10000";
    object      phi;
}
// * * * * * * * * * * * * * * * * * * * * * * * * * * * * * * * * * * * * * //

dimensions      [0 3 -1 0 0 0 0];

internalField   nonuniform List<scalar> 
179
(
3.01875e+07
3.01865e+07
3.01859e+07
3.01858e+07
3.01847e+07
3.0184e+07
3.01878e+07
3.01909e+07
3.0194e+07
3.01941e+07
3.01932e+07
3.01936e+07
3.01933e+07
3.01919e+07
3.01888e+07
3.01808e+07
3.01739e+07
3.01678e+07
3.01652e+07
3.01656e+07
3.01684e+07
3.01821e+07
3.01922e+07
3.02067e+07
3.02163e+07
3.02215e+07
3.02219e+07
3.02171e+07
3.02105e+07
3.02047e+07
3.01987e+07
3.01902e+07
3.01823e+07
3.01747e+07
3.01658e+07
3.01577e+07
3.01484e+07
3.01315e+07
3.01068e+07
3.00898e+07
3.00779e+07
3.00724e+07
3.00692e+07
3.00652e+07
3.00667e+07
3.00677e+07
3.00617e+07
3.00477e+07
3.00302e+07
3.00094e+07
2.99859e+07
2.99579e+07
2.99195e+07
2.98785e+07
2.98351e+07
2.97876e+07
2.97405e+07
2.96928e+07
2.96476e+07
2.95995e+07
2.95508e+07
2.95068e+07
2.94653e+07
2.9419e+07
2.93754e+07
2.93325e+07
2.92882e+07
2.92489e+07
2.92141e+07
2.91811e+07
2.91447e+07
2.91234e+07
2.91141e+07
2.91116e+07
2.91157e+07
2.91224e+07
2.91322e+07
2.91493e+07
2.91748e+07
2.92098e+07
2.92516e+07
2.93e+07
2.93552e+07
2.94149e+07
2.94832e+07
2.9559e+07
2.9646e+07
2.97399e+07
2.98352e+07
2.99274e+07
3.00089e+07
3.00814e+07
3.01367e+07
3.01765e+07
3.0198e+07
3.01984e+07
3.01847e+07
3.01624e+07
3.0134e+07
3.01012e+07
3.00663e+07
3.00307e+07
2.99947e+07
2.99567e+07
2.99087e+07
2.9846e+07
2.97696e+07
2.96774e+07
2.95741e+07
2.946e+07
2.93403e+07
2.9213e+07
2.90789e+07
2.89375e+07
2.87919e+07
2.86414e+07
2.84877e+07
2.83366e+07
2.81906e+07
2.80546e+07
2.79328e+07
2.78276e+07
2.77357e+07
2.76509e+07
2.75831e+07
2.75302e+07
2.74885e+07
2.74541e+07
2.74253e+07
2.74064e+07
2.73971e+07
2.74001e+07
2.74167e+07
2.74516e+07
2.7499e+07
2.7562e+07
2.76346e+07
2.77233e+07
2.78199e+07
2.79291e+07
2.8042e+07
2.81694e+07
2.82991e+07
2.84434e+07
2.85892e+07
2.87478e+07
2.89071e+07
2.90755e+07
2.92453e+07
2.9421e+07
2.96e+07
2.97861e+07
2.99772e+07
3.01794e+07
3.03895e+07
3.06099e+07
3.08445e+07
3.10925e+07
3.13506e+07
3.16197e+07
3.18934e+07
3.21676e+07
3.24356e+07
3.26957e+07
3.294e+07
3.31629e+07
3.33679e+07
3.35527e+07
3.37173e+07
3.38569e+07
3.39747e+07
3.40788e+07
3.41707e+07
3.42491e+07
3.43162e+07
3.43704e+07
3.44044e+07
3.44153e+07
3.44032e+07
)
;

boundaryField
{
    inlet
    {
        type            calculated;
        value           uniform 3.43533e+07;
    }
    outlet
    {
        type            calculated;
        value           uniform -3.0189e+07;
    }
    repeat_boundary
    {
        type            calculated;
        value           uniform 0;
    }
    procBoundary2to0
    {
        type            processor;
        value           nonuniform List<scalar> 
180
(
1923.88
2239.78
1658.2
1139.4
1036.15
1160.64
41.6079
-171.102
431.285
2535.42
2982.14
2861.8
2568.86
2900.91
3641.93
6814.65
6486.92
4602.47
3272.82
2157.07
2500.87
-2395.75
-1667.45
-2403.29
-459.64
1016.78
1253.13
3181.32
3212.46
3361.28
4126.15
6351.58
5702.57
5236.76
3655.78
2043.08
1900.32
5402.37
8593.57
3975.66
-1365.5
-5513.75
-6899.83
-6306.01
-9812.58
-9031.82
-4550.29
-311.489
288.993
416.011
1874.02
6187.25
11191.4
14852.3
20319.3
23623
26105.8
27378.8
30117.7
31790.6
31251.2
30020.4
28450.5
30705.8
28854.8
25707.7
28749.2
24657.8
21664
20485.7
19165.4
10285.1
1058.89
-2718.9
-3621.66
-4941.94
-5279.76
-9832.73
-13563.9
-18797.2
-22601.3
-24393.1
-27588.2
-28911.9
-32306.1
-33523.2
-39302.3
-41154.7
-41203.9
-36325.4
-28857.4
-19777.8
-9773.95
1080.51
10225.7
18670.6
25142.5
31446.1
36112.8
40786.4
43940.9
47686.7
49956.1
53085.8
55129.8
58033.4
58347.1
60644.7
61278.4
63796.8
61894.5
62207.1
62157.2
63019.9
61014.3
60061.2
59042.7
54675
52039.2
47137.3
44829
39755.5
39239.8
42783.2
44696.3
50606.7
57455.7
67539
79440.8
84524.9
89211.2
91572.5
91253.4
85081.9
81059.8
72895.3
65943.8
52758
41613.2
28502.5
17008.9
-241.567
-13295.4
-32067.1
-45727.3
-63440.6
-76093.5
-90873.1
-101878
-113394
-123347
-132995
-143168
-152747
-163058
-173023
-181779
-190623
-196026
-201307
-203190
-202971
-200705
-195992
-187003
-177932
-168065
-156601
-146098
-133630
-122294
-117599
-111990
-108066
-107993
-106476
-101210
-91470
-87630.1
-68442
)
;
    }
    procBoundary2to3
    {
        type            processor;
        value           nonuniform List<scalar> 
180
(
-331.109
-1297.04
-1066.52
-1003.02
20.4812
-408.241
-3840.55
-2917.65
-3570.72
-2681.75
-2040.8
-3248.62
-2303.51
-1501.61
-521.797
1146.86
474.992
1515.14
-684.964
-2541.47
-5381.34
-11284.7
-8433.71
-12068.2
-9190.84
-6205.6
-1601.02
1603.44
3401.04
2423.88
1869.18
2103.02
2281.11
2310.71
5294.56
6070.9
7375.18
11446.4
16118.3
13037
13259.7
10995.5
10124.9
10345.9
8256.19
8076.15
10562.7
14323.6
17116.1
20387.4
21714.5
21771.8
27231.6
26101.2
23138.3
23796.8
21000.2
20337.3
15091.3
16301.6
17496
13974.9
13016.8
15553.9
14752.6
17184.9
15563.5
14673.7
13114.5
12529.1
17284.7
11010.6
8166.39
5258.65
-463.073
-1729.47
-4562.37
-7221.32
-11966
-16210
-19208.5
-24046.2
-27532.9
-30852
-35946
-42336.3
-47620.7
-52816.2
-54085.6
-55895.5
-52641
-52708.8
-45532.9
-40801
-31768.6
-19116.7
-11377.6
-9164.29
-7706.54
-7991.68
-9067.41
-12071.7
-13961.8
-15092.7
-7126.34
4638.08
18136.1
31497.4
42082.9
50262.6
57807.5
65067.8
71938
78398.5
84542.2
90447.1
94718.2
96399.2
93924.9
88873
77016.9
65476.8
52650.2
41951.4
23134.9
2311.82
-15753.8
-33199.4
-50565.3
-65630.4
-79963.8
-94594
-107855
-119897
-128482
-135962
-138457
-141460
-138256
-137678
-129922
-127164
-116377
-112308
-100061
-95105.7
-83213.9
-77512.3
-67996.7
-62273.7
-55633.1
-53104.5
-47973.5
-49461.1
-46973.2
-47446
-52772.6
-57423.9
-62037.3
-67753.7
-70515.6
-71295.5
-67288.5
-64106.8
-57254.8
-44971.8
-36969.8
-28213.2
-18499
-5914.74
4442.48
13487.6
20187.3
29628.4
40890.7
52249.6
67242.8
80568.1
99743
118291
)
;
    }
}


// ************************************************************************* //
