/*--------------------------------*- C++ -*----------------------------------*\
| =========                 |                                                 |
| \\      /  F ield         | OpenFOAM: The Open Source CFD Toolbox           |
|  \\    /   O peration     | Version:  5.x                                   |
|   \\  /    A nd           | Web:      www.OpenFOAM.org                      |
|    \\/     M anipulation  |                                                 |
\*---------------------------------------------------------------------------*/
FoamFile
{
    version     2.0;
    format      ascii;
    class       volVectorField;
    location    "10000";
    object      stored_U;
}
// * * * * * * * * * * * * * * * * * * * * * * * * * * * * * * * * * * * * * //

dimensions      [0 1 -1 0 0 0 0];

internalField   nonuniform List<vector> 
180
(
(-0.00366347 -0.0911687 119.342)
(0.014754 -0.0726762 119.752)
(0.0351453 -0.0538804 119.704)
(0.0460726 -0.0452635 119.694)
(0.0271997 -0.0511632 119.322)
(-0.0032211 -0.0529067 119.596)
(-0.0194128 -0.0566531 119.658)
(0.0068955 -0.0645686 119.464)
(0.0222787 -0.064127 119.538)
(0.0126491 -0.0996285 119.527)
(0.0358 -0.123184 119.665)
(0.0570284 -0.118524 119.191)
(-0.00965076 -0.159915 119.533)
(-0.0558216 -0.18175 119.52)
(-0.0120781 -0.219041 119.653)
(0.157702 -0.189636 119.063)
(0.0158525 -0.199905 119.48)
(-0.0369399 -0.237903 119.496)
(-0.192964 -0.202817 119.458)
(-0.322123 -0.138033 119.334)
(-0.226922 -0.209153 119.494)
(-0.2155 -0.25865 119.572)
(0.100698 -0.252793 119.04)
(0.0717039 -0.268617 119.513)
(0.110036 -0.231128 119.44)
(0.0974721 -0.311712 119.56)
(0.366701 -0.331072 118.788)
(0.390665 -0.259882 119.363)
(0.352246 -0.248178 119.322)
(0.217099 -0.297253 119.366)
(0.33818 -0.285799 118.765)
(0.48421 -0.195352 119.247)
(0.540725 -0.151689 118.637)
(0.403298 -0.0468355 119.116)
(0.311845 -0.027472 119.079)
(0.234646 0.0296272 118.956)
(0.222775 0.0281932 119.039)
(0.320311 0.0345425 118.87)
(0.322854 0.0562739 118.974)
(0.333252 0.0855191 118.964)
(0.348834 0.113864 118.95)
(0.376342 0.126067 118.936)
(0.427664 0.119722 118.927)
(0.481987 0.10506 118.911)
(0.54579 0.0716541 118.875)
(0.622869 0.0226154 119.105)
(0.624524 -0.0821262 118.234)
(0.71006 -0.140044 118.948)
(0.737617 -0.211336 118.596)
(0.799191 -0.240557 118.658)
(0.821207 -0.251425 118.28)
(0.877645 -0.312705 118.359)
(0.955207 -0.385216 118.439)
(1.05409 -0.644148 117.82)
(1.12292 -1.02879 117.752)
(0.989771 -1.22459 117.287)
(0.928272 -1.14584 117.686)
(1.00204 -1.20733 117.518)
(1.14462 -1.35261 117.182)
(1.27184 -1.45278 116.98)
(1.31847 -1.49744 116.971)
(1.21364 -1.49765 116.557)
(1.028 -1.26806 116.206)
(0.888384 -1.15985 116.384)
(0.764316 -0.737809 115.788)
(0.716803 -0.676934 116.26)
(0.673067 -0.756228 116.168)
(0.675852 -0.944963 115.967)
(0.757923 -1.03156 115.917)
(0.774434 -0.751391 115.744)
(0.708959 -0.43375 115.605)
(0.548653 -0.0579091 115.497)
(0.456482 0.129464 115.705)
(0.357865 0.28538 115.754)
(0.201896 0.523463 115.574)
(0.0798074 0.511267 115.943)
(0.0330556 0.529 116.055)
(-0.135963 0.766163 115.963)
(-0.36904 1.03474 116.079)
(-0.801756 1.21766 116.279)
(-1.24581 1.31346 116.442)
(-1.62781 1.39283 116.642)
(-1.83205 1.50925 116.843)
(-2.10685 1.61704 117.153)
(-2.59172 1.82406 117.403)
(-3.02257 1.97566 117.708)
(-3.31467 2.15866 118.17)
(-3.44256 1.85303 118.471)
(-3.5154 1.85185 119.001)
(-3.52553 1.71121 119.256)
(-3.49622 1.58375 119.625)
(-3.49795 1.32103 119.809)
(-3.36232 0.988695 120.094)
(-3.4062 0.639585 120.128)
(-3.43761 0.386369 120.195)
(-3.60117 0.137041 120.144)
(-3.69839 0.000470971 120.045)
(-3.89905 -0.17759 119.925)
(-4.03984 -0.230394 119.815)
(-4.22835 -0.341951 119.653)
(-4.3054 -0.353408 119.555)
(-4.33554 -0.471224 119.369)
(-4.22555 -0.45747 119.235)
(-4.10297 -0.590838 118.995)
(-3.87491 -0.57697 118.766)
(-3.71555 -0.732418 118.492)
(-3.41397 -0.722368 118.131)
(-3.17312 -0.832309 117.768)
(-2.76288 -0.794295 117.27)
(-2.41908 -0.880174 116.846)
(-1.99418 -0.807605 116.276)
(-1.72831 -0.815985 115.816)
(-1.38884 -0.777699 115.167)
(-1.13838 -0.805621 114.679)
(-0.806998 -0.712409 113.953)
(-0.546078 -0.542763 113.461)
(-0.286232 -0.336069 112.666)
(-0.219024 0.00529812 112.216)
(-0.261023 0.278239 111.43)
(-0.474712 0.641385 111.093)
(-0.954445 0.769974 110.373)
(-1.23003 0.951975 110.212)
(-2.13482 0.766968 109.456)
(-2.3386 0.775648 109.686)
(-2.77212 0.446209 109.114)
(-3.06864 0.0696259 109.09)
(-3.24993 -0.170226 108.872)
(-3.59572 -0.645987 108.78)
(-3.86743 -1.0673 108.665)
(-4.04291 -1.41764 108.691)
(-4.26987 -1.71691 108.603)
(-4.66287 -1.72209 108.713)
(-4.97949 -1.65163 108.728)
(-5.2796 -1.31915 109.007)
(-5.40574 -1.02988 109.165)
(-5.56071 -0.48904 109.511)
(-5.55457 -0.0554936 109.807)
(-5.6596 0.613138 110.205)
(-5.60545 1.08342 110.628)
(-5.72552 1.87649 111.017)
(-5.68196 2.39965 111.569)
(-5.83012 3.2179 111.967)
(-5.84285 3.69934 112.655)
(-6.03948 4.48338 113.071)
(-6.16522 4.8996 113.866)
(-6.45322 5.59663 114.313)
(-6.75379 5.95733 115.174)
(-7.20249 6.57413 115.665)
(-7.7481 6.96634 116.549)
(-8.43605 7.58778 117.097)
(-9.25162 8.13485 117.984)
(-10.2271 8.85666 118.615)
(-11.3299 9.63103 119.52)
(-12.5829 10.4887 120.26)
(-13.9601 11.4315 121.215)
(-15.4242 12.3802 122.073)
(-16.955 13.3217 123.096)
(-18.4457 14.2581 124.101)
(-19.9681 15.0153 125.214)
(-21.2536 15.7813 126.304)
(-22.5406 16.2897 127.454)
(-23.5778 16.6691 128.619)
(-24.4242 16.9521 129.594)
(-25.374 16.9088 130.826)
(-25.6212 16.7703 131.694)
(-25.6479 16.5819 132.587)
(-25.8534 16.406 133.356)
(-25.8026 16.0563 134.208)
(-25.3795 15.7307 134.788)
(-24.7745 15.3387 135.318)
(-24.2593 15.086 135.789)
(-23.9376 15.199 136.204)
(-23.5671 15.1564 136.607)
(-22.8628 14.7875 136.866)
(-22.4573 14.829 137.222)
(-21.8027 14.3536 137.404)
(-21.1844 13.9851 137.462)
(-20.4466 13.6665 137.509)
(-19.963 13.6112 137.375)
(-19.7426 13.6797 137.323)
)
;

boundaryField
{
    inlet
    {
        type            calculated;
        value           uniform (-19.7426 13.6797 137.323);
    }
    outlet
    {
        type            calculated;
        value           uniform (-0.00366347 -0.0911687 119.342);
    }
    repeat_boundary
    {
        type            calculated;
        value           nonuniform List<vector> 
360
(
(-0.00366347 0 119.342)
(0.014754 0 119.752)
(0.0351453 0 119.704)
(0.0460726 0 119.694)
(0.0271997 0 119.322)
(-0.0032211 0 119.596)
(-0.0194128 0 119.658)
(0.0068955 0 119.464)
(0.0222787 0 119.538)
(0.0126491 0 119.527)
(0.0358 0 119.665)
(0.0570284 0 119.191)
(-0.00965076 0 119.533)
(-0.0558216 0 119.52)
(-0.0120781 0 119.653)
(0.157702 0 119.063)
(0.0158525 0 119.48)
(-0.0369399 0 119.496)
(-0.192964 0 119.458)
(-0.322123 0 119.334)
(-0.226922 0 119.494)
(-0.2155 0 119.572)
(0.100698 0 119.04)
(0.0717039 0 119.513)
(0.110036 0 119.44)
(0.0974721 0 119.56)
(0.366701 0 118.788)
(0.390665 0 119.363)
(0.352246 0 119.322)
(0.217099 0 119.366)
(0.33818 0 118.765)
(0.48421 0 119.247)
(0.540725 0 118.637)
(0.403298 0 119.116)
(0.311845 0 119.079)
(0.234646 0 118.956)
(0.222775 0 119.039)
(0.320311 0 118.87)
(0.322854 0 118.974)
(0.333252 0 118.964)
(0.348834 0 118.95)
(0.376342 0 118.936)
(0.427664 0 118.927)
(0.481987 0 118.911)
(0.54579 0 118.875)
(0.622869 0 119.105)
(0.624524 0 118.234)
(0.71006 0 118.948)
(0.737617 0 118.596)
(0.799191 0 118.658)
(0.821207 0 118.28)
(0.877645 0 118.359)
(0.955207 0 118.439)
(1.05409 0 117.82)
(1.12292 0 117.752)
(0.989771 0 117.287)
(0.928272 0 117.686)
(1.00204 0 117.518)
(1.14462 0 117.182)
(1.27184 0 116.98)
(1.31847 0 116.971)
(1.21364 0 116.557)
(1.028 0 116.206)
(0.888384 0 116.384)
(0.764316 0 115.788)
(0.716803 0 116.26)
(0.673067 0 116.168)
(0.675852 0 115.967)
(0.757923 0 115.917)
(0.774434 0 115.744)
(0.708959 0 115.605)
(0.548653 0 115.497)
(0.456482 0 115.705)
(0.357865 0 115.754)
(0.201896 0 115.574)
(0.0798074 0 115.943)
(0.0330556 0 116.055)
(-0.135963 0 115.963)
(-0.36904 0 116.079)
(-0.801756 0 116.279)
(-1.24581 0 116.442)
(-1.62781 0 116.642)
(-1.83205 0 116.843)
(-2.10685 0 117.153)
(-2.59172 0 117.403)
(-3.02257 0 117.708)
(-3.31467 0 118.17)
(-3.44256 0 118.471)
(-3.5154 0 119.001)
(-3.52553 0 119.256)
(-3.49622 0 119.625)
(-3.49795 0 119.809)
(-3.36232 0 120.094)
(-3.4062 0 120.128)
(-3.43761 0 120.195)
(-3.60117 0 120.144)
(-3.69839 0 120.045)
(-3.89905 0 119.925)
(-4.03984 0 119.815)
(-4.22835 0 119.653)
(-4.3054 0 119.555)
(-4.33554 0 119.369)
(-4.22555 0 119.235)
(-4.10297 0 118.995)
(-3.87491 0 118.766)
(-3.71555 0 118.492)
(-3.41397 0 118.131)
(-3.17312 0 117.768)
(-2.76288 0 117.27)
(-2.41908 0 116.846)
(-1.99418 0 116.276)
(-1.72831 0 115.816)
(-1.38884 0 115.167)
(-1.13838 0 114.679)
(-0.806998 0 113.953)
(-0.546078 0 113.461)
(-0.286232 0 112.666)
(-0.219024 0 112.216)
(-0.261023 0 111.43)
(-0.474712 0 111.093)
(-0.954445 0 110.373)
(-1.23003 0 110.212)
(-2.13482 0 109.456)
(-2.3386 0 109.686)
(-2.77212 0 109.114)
(-3.06864 0 109.09)
(-3.24993 0 108.872)
(-3.59572 0 108.78)
(-3.86743 0 108.665)
(-4.04291 0 108.691)
(-4.26987 0 108.603)
(-4.66287 0 108.713)
(-4.97949 0 108.728)
(-5.2796 0 109.007)
(-5.40574 0 109.165)
(-5.56071 0 109.511)
(-5.55457 0 109.807)
(-5.6596 0 110.205)
(-5.60545 0 110.628)
(-5.72552 0 111.017)
(-5.68196 0 111.569)
(-5.83012 0 111.967)
(-5.84285 0 112.655)
(-6.03948 0 113.071)
(-6.16522 0 113.866)
(-6.45322 0 114.313)
(-6.75379 0 115.174)
(-7.20249 0 115.665)
(-7.7481 0 116.549)
(-8.43605 0 117.097)
(-9.25162 0 117.984)
(-10.2271 0 118.615)
(-11.3299 0 119.52)
(-12.5829 0 120.26)
(-13.9601 0 121.215)
(-15.4242 0 122.073)
(-16.955 0 123.096)
(-18.4457 0 124.101)
(-19.9681 0 125.214)
(-21.2536 0 126.304)
(-22.5406 0 127.454)
(-23.5778 0 128.619)
(-24.4242 0 129.594)
(-25.374 0 130.826)
(-25.6212 0 131.694)
(-25.6479 0 132.587)
(-25.8534 0 133.356)
(-25.8026 0 134.208)
(-25.3795 0 134.788)
(-24.7745 0 135.318)
(-24.2593 0 135.789)
(-23.9376 0 136.204)
(-23.5671 0 136.607)
(-22.8628 0 136.866)
(-22.4573 0 137.222)
(-21.8027 0 137.404)
(-21.1844 0 137.462)
(-20.4466 0 137.509)
(-19.963 0 137.375)
(-19.7426 0 137.323)
(0 -0.0911687 119.342)
(0 -0.0726762 119.752)
(0 -0.0538804 119.704)
(0 -0.0452635 119.694)
(0 -0.0511632 119.322)
(0 -0.0529067 119.596)
(0 -0.0566531 119.658)
(0 -0.0645686 119.464)
(0 -0.064127 119.538)
(0 -0.0996285 119.527)
(0 -0.123184 119.665)
(0 -0.118524 119.191)
(0 -0.159915 119.533)
(0 -0.18175 119.52)
(0 -0.219041 119.653)
(0 -0.189636 119.063)
(0 -0.199905 119.48)
(0 -0.237903 119.496)
(0 -0.202817 119.458)
(0 -0.138033 119.334)
(0 -0.209153 119.494)
(0 -0.25865 119.572)
(0 -0.252793 119.04)
(0 -0.268617 119.513)
(0 -0.231128 119.44)
(0 -0.311712 119.56)
(0 -0.331072 118.788)
(0 -0.259882 119.363)
(0 -0.248178 119.322)
(0 -0.297253 119.366)
(0 -0.285799 118.765)
(0 -0.195352 119.247)
(0 -0.151689 118.637)
(0 -0.0468355 119.116)
(0 -0.027472 119.079)
(0 0.0296272 118.956)
(0 0.0281932 119.039)
(0 0.0345425 118.87)
(0 0.0562739 118.974)
(0 0.0855191 118.964)
(0 0.113864 118.95)
(0 0.126067 118.936)
(0 0.119722 118.927)
(0 0.10506 118.911)
(0 0.0716541 118.875)
(0 0.0226154 119.105)
(0 -0.0821262 118.234)
(0 -0.140044 118.948)
(0 -0.211336 118.596)
(0 -0.240557 118.658)
(0 -0.251425 118.28)
(0 -0.312705 118.359)
(0 -0.385216 118.439)
(0 -0.644148 117.82)
(0 -1.02879 117.752)
(0 -1.22459 117.287)
(0 -1.14584 117.686)
(0 -1.20733 117.518)
(0 -1.35261 117.182)
(0 -1.45278 116.98)
(0 -1.49744 116.971)
(0 -1.49765 116.557)
(0 -1.26806 116.206)
(0 -1.15985 116.384)
(0 -0.737809 115.788)
(0 -0.676934 116.26)
(0 -0.756228 116.168)
(0 -0.944963 115.967)
(0 -1.03156 115.917)
(0 -0.751391 115.744)
(0 -0.43375 115.605)
(0 -0.0579091 115.497)
(0 0.129464 115.705)
(0 0.28538 115.754)
(0 0.523463 115.574)
(0 0.511267 115.943)
(0 0.529 116.055)
(0 0.766163 115.963)
(0 1.03474 116.079)
(0 1.21766 116.279)
(0 1.31346 116.442)
(0 1.39283 116.642)
(0 1.50925 116.843)
(0 1.61704 117.153)
(0 1.82406 117.403)
(0 1.97566 117.708)
(0 2.15866 118.17)
(0 1.85303 118.471)
(0 1.85185 119.001)
(0 1.71121 119.256)
(0 1.58375 119.625)
(0 1.32103 119.809)
(0 0.988695 120.094)
(0 0.639585 120.128)
(0 0.386369 120.195)
(0 0.137041 120.144)
(0 0.000470971 120.045)
(0 -0.17759 119.925)
(0 -0.230394 119.815)
(0 -0.341951 119.653)
(0 -0.353408 119.555)
(0 -0.471224 119.369)
(0 -0.45747 119.235)
(0 -0.590838 118.995)
(0 -0.57697 118.766)
(0 -0.732418 118.492)
(0 -0.722368 118.131)
(0 -0.832309 117.768)
(0 -0.794295 117.27)
(0 -0.880174 116.846)
(0 -0.807605 116.276)
(0 -0.815985 115.816)
(0 -0.777699 115.167)
(0 -0.805621 114.679)
(0 -0.712409 113.953)
(0 -0.542763 113.461)
(0 -0.336069 112.666)
(0 0.00529812 112.216)
(0 0.278239 111.43)
(0 0.641385 111.093)
(0 0.769974 110.373)
(0 0.951975 110.212)
(0 0.766968 109.456)
(0 0.775648 109.686)
(0 0.446209 109.114)
(0 0.0696259 109.09)
(0 -0.170226 108.872)
(0 -0.645987 108.78)
(0 -1.0673 108.665)
(0 -1.41764 108.691)
(0 -1.71691 108.603)
(0 -1.72209 108.713)
(0 -1.65163 108.728)
(0 -1.31915 109.007)
(0 -1.02988 109.165)
(0 -0.48904 109.511)
(0 -0.0554936 109.807)
(0 0.613138 110.205)
(0 1.08342 110.628)
(0 1.87649 111.017)
(0 2.39965 111.569)
(0 3.2179 111.967)
(0 3.69934 112.655)
(0 4.48338 113.071)
(0 4.8996 113.866)
(0 5.59663 114.313)
(0 5.95733 115.174)
(0 6.57413 115.665)
(0 6.96634 116.549)
(0 7.58778 117.097)
(0 8.13485 117.984)
(0 8.85666 118.615)
(0 9.63103 119.52)
(0 10.4887 120.26)
(0 11.4315 121.215)
(0 12.3802 122.073)
(0 13.3217 123.096)
(0 14.2581 124.101)
(0 15.0153 125.214)
(0 15.7813 126.304)
(0 16.2897 127.454)
(0 16.6691 128.619)
(0 16.9521 129.594)
(0 16.9088 130.826)
(0 16.7703 131.694)
(0 16.5819 132.587)
(0 16.406 133.356)
(0 16.0563 134.208)
(0 15.7307 134.788)
(0 15.3387 135.318)
(0 15.086 135.789)
(0 15.199 136.204)
(0 15.1564 136.607)
(0 14.7875 136.866)
(0 14.829 137.222)
(0 14.3536 137.404)
(0 13.9851 137.462)
(0 13.6665 137.509)
(0 13.6112 137.375)
(0 13.6797 137.323)
)
;
    }
    procBoundary2to0
    {
        type            processor;
        value           nonuniform List<vector> 
180
(
(-0.0458326 -0.0920293 117.774)
(-0.0513199 -0.0731944 118.113)
(-0.0579709 -0.0541262 118.13)
(-0.0497609 -0.0555614 118.068)
(-0.022313 -0.0825173 117.784)
(-0.0787407 -0.0946231 118.132)
(-0.10156 -0.113639 118.2)
(-0.0329356 -0.0891075 117.914)
(-0.0305699 -0.0929722 118.105)
(0.0118356 -0.139559 118.256)
(0.251778 -0.0709971 117.882)
(0.208663 -0.111201 118.196)
(0.327448 -0.0856616 117.967)
(0.344355 -0.120287 118.042)
(0.354888 -0.148067 118.022)
(0.354486 -0.153161 118.002)
(0.337174 -0.150196 118.026)
(0.656901 -0.0911455 117.667)
(0.654069 -0.156473 117.889)
(0.641911 -0.18695 117.923)
(0.711593 -0.135015 118.04)
(0.829628 -0.0328628 117.453)
(0.753352 -0.126973 117.89)
(0.733285 -0.119637 117.927)
(0.806923 -0.138014 117.818)
(0.791197 -0.136781 117.518)
(0.723373 -0.0890935 117.834)
(0.694741 -0.0817427 117.885)
(0.506406 -0.0668787 117.631)
(0.489573 -0.0919726 117.784)
(0.505126 -0.0680946 117.847)
(0.518584 -0.0647706 117.84)
(0.538192 -0.0221577 117.926)
(0.072938 0.0538715 117.649)
(0.026284 0.188103 117.9)
(-0.00232889 0.263703 117.946)
(-0.00792705 0.308562 117.997)
(-0.34149 0.248289 117.729)
(-0.471 0.28865 118.03)
(-0.553579 0.315923 118.033)
(-0.642349 0.394254 118.111)
(-0.642743 0.449475 118.11)
(-0.876765 0.326188 118.101)
(-1.12397 0.278622 118.118)
(-1.22683 0.213805 118.262)
(-1.37747 0.143746 118.231)
(-1.56093 0.0488438 118.324)
(-1.781 -0.023035 118.225)
(-1.788 -0.0671714 118.59)
(-1.77555 -0.142786 118.511)
(-1.77206 -0.221501 118.587)
(-1.78056 -0.487587 118.688)
(-1.77146 -0.663681 118.771)
(-1.7824 -0.820536 118.992)
(-1.70294 -0.911422 119.025)
(-1.54903 -1.0594 119.208)
(-1.09709 -1.02532 119.286)
(-0.869723 -0.986261 119.431)
(-0.739095 -0.989094 119.484)
(-0.715849 -1.09974 119.724)
(-0.335787 -0.792758 119.412)
(-0.364159 -0.962047 119.993)
(-0.151005 -0.801444 119.601)
(-0.15918 -0.851339 119.91)
(0.0422781 -0.643819 119.632)
(0.285617 -0.445255 119.576)
(0.674702 0.00895468 119.218)
(0.700694 -0.0174312 119.419)
(0.648727 -0.157935 119.292)
(0.566277 -0.333333 119.048)
(0.613357 -0.335418 119.03)
(1.01413 0.274571 118.703)
(1.31295 0.614075 118.289)
(1.26028 0.809432 117.952)
(1.27391 0.782334 118.144)
(1.35999 0.728592 118.075)
(1.13454 0.687277 117.312)
(0.799069 0.749439 117.215)
(0.210284 0.897286 116.537)
(0.20069 0.78166 117.016)
(0.307087 0.731765 116.837)
(0.335992 0.773107 116.544)
(-0.0425144 0.925139 116.048)
(-0.521695 1.01583 116)
(-0.931108 1.13114 115.819)
(-1.50337 1.39876 115.443)
(-1.60241 1.48789 115.775)
(-1.81558 1.51432 115.428)
(-2.1533 1.16765 115.229)
(-2.3699 0.65532 115.195)
(-2.51862 0.0442578 115.247)
(-2.50325 -0.49773 115.31)
(-2.582 -1.02282 115.397)
(-2.52792 -1.49675 115.588)
(-2.53713 -1.87418 115.763)
(-2.5663 -2.18573 116.008)
(-2.58376 -2.47033 116.259)
(-2.57103 -2.71187 116.578)
(-2.55252 -2.95076 116.897)
(-2.54374 -3.13011 117.252)
(-2.48552 -3.30198 117.639)
(-2.43386 -3.43534 117.998)
(-2.36635 -3.57263 118.436)
(-2.23507 -3.6744 118.818)
(-2.17949 -3.83536 119.195)
(-2.06721 -3.83047 119.57)
(-2.0288 -3.83013 119.914)
(-1.97352 -3.91316 120.314)
(-1.7721 -3.96145 120.659)
(-1.4318 -3.9565 120.645)
(-1.46748 -4.05634 121.205)
(-1.48325 -4.09061 121.489)
(-1.2812 -4.08785 121.556)
(-0.896922 -4.0456 121.508)
(-0.793414 -4.07385 122.081)
(-0.836654 -4.12862 122.225)
(-0.958736 -4.18448 122.408)
(-0.287202 -4.1411 121.997)
(0.134627 -4.13447 122.287)
(0.480237 -4.22845 122.092)
(0.376103 -4.25651 122.312)
(0.331619 -4.25706 122.494)
(0.520399 -4.61081 121.624)
(0.557283 -4.56268 122.118)
(0.638766 -4.49771 122.207)
(0.49378 -4.71783 121.96)
(0.182644 -5.10722 121.727)
(-0.701161 -5.52073 121.872)
(-1.37534 -5.74626 122.126)
(-2.06501 -5.67788 121.918)
(-2.08989 -5.71026 122.655)
(-2.09686 -5.67343 122.944)
(-2.4621 -5.18844 122.465)
(-2.30738 -5.07549 123.011)
(-2.21343 -5.04762 123.252)
(-2.46344 -4.67998 122.693)
(-2.49272 -4.37194 123.088)
(-2.56408 -4.17784 122.659)
(-2.66139 -3.96458 122.618)
(-2.81786 -3.57241 122.189)
(-3.18181 -3.04835 121.959)
(-3.85394 -2.34382 121.422)
(-4.92791 -1.66766 121.037)
(-6.39484 -0.883321 120.318)
(-8.3174 -0.202453 119.792)
(-10.5129 0.51538 119.034)
(-12.838 1.08839 118.41)
(-15.2218 1.62163 117.711)
(-17.4953 2.01334 117.055)
(-19.5299 2.30312 116.445)
(-21.2581 2.50723 115.801)
(-22.7851 2.59583 115.235)
(-24.2172 2.66677 114.614)
(-25.7257 2.62283 114.055)
(-27.3387 2.56261 113.483)
(-29.1061 2.39159 112.942)
(-30.9063 2.14012 112.449)
(-32.7312 1.81551 111.97)
(-34.3934 1.37865 111.561)
(-35.9247 0.924327 111.171)
(-37.1616 0.368596 110.847)
(-38.1938 -0.166162 110.528)
(-38.8877 -0.792346 110.307)
(-39.3903 -1.37175 110.03)
(-39.5575 -2.09516 109.933)
(-39.5679 -2.6387 109.716)
(-39.3131 -3.32595 109.725)
(-38.9003 -3.87978 109.571)
(-38.3396 -4.38369 109.654)
(-37.6077 -4.98094 109.637)
(-36.9168 -5.28149 109.75)
(-36.2408 -5.48129 109.761)
(-35.6016 -5.80376 110.051)
(-34.7705 -5.4709 109.99)
(-33.7345 -5.32858 110.238)
(-33.0368 -5.13925 110.135)
(-31.9796 -5.54087 110.47)
(-31.1762 -5.95374 110.539)
(-30.444 -6.30249 110.545)
(-29.8474 -6.38595 110.511)
)
;
    }
    procBoundary2to3
    {
        type            processor;
        value           nonuniform List<vector> 
180
(
(0.00121726 -0.052426 117.197)
(0.0199897 -0.00926677 117.718)
(0.0408033 0.0374002 117.659)
(0.0583162 0.0793182 117.598)
(0.0606517 0.11358 117.525)
(0.0393285 0.127226 117.611)
(0.0300069 0.100913 117.531)
(0.0150602 0.102233 117.604)
(0.0096461 0.0824257 117.722)
(-0.00425862 -0.0882919 117.396)
(0.00875703 -0.113282 117.571)
(7.95923e-05 -0.152877 117.563)
(0.0108864 -0.146587 117.504)
(0.0368024 -0.134866 117.421)
(-0.00187451 -0.223488 117.41)
(-0.0522975 -0.280977 117.346)
(-0.096552 -0.398782 117.255)
(-0.161656 -0.485345 117.194)
(-0.232138 -0.571858 117.384)
(-0.0897977 -0.844699 116.595)
(-0.10999 -0.927073 117.29)
(0.116391 -0.858498 116.643)
(-0.0592212 -1.09965 116.925)
(-0.220732 -1.27791 116.927)
(0.0213064 -1.07012 116.646)
(0.249832 -0.756777 116.395)
(0.450433 -0.377301 116.58)
(0.41095 -0.388647 116.775)
(0.318293 -0.368856 116.628)
(0.284015 -0.271941 116.674)
(0.373691 -0.108868 116.573)
(0.335375 -0.0865935 116.9)
(0.274154 0.0108841 116.833)
(0.153596 0.274574 116.895)
(0.20807 0.557566 116.937)
(0.244728 0.801924 117.084)
(0.288514 0.92572 117.153)
(0.270886 1.07723 117.281)
(0.375137 1.20879 117.418)
(0.322103 1.35556 117.581)
(0.329912 1.4909 117.735)
(0.32105 1.70491 117.889)
(0.371139 1.86389 118.104)
(0.385278 1.91109 118.268)
(0.369497 1.90704 118.461)
(0.366158 1.91005 118.645)
(0.399079 1.95737 118.856)
(0.444136 1.95723 118.975)
(0.618645 2.01038 119.262)
(0.615816 1.89164 119.315)
(0.700023 1.9284 119.654)
(0.686166 1.81486 119.852)
(0.567022 1.54316 119.86)
(0.690541 1.50866 120.276)
(0.51387 1.31785 120.25)
(0.324453 0.928079 120.432)
(-0.0752044 0.368029 120.345)
(-0.275266 0.13691 120.586)
(-0.384478 -0.0868496 120.341)
(-0.376066 -0.227667 120.413)
(-0.226566 -0.177758 120.585)
(-0.150465 -0.212451 120.474)
(-0.12832 -0.265868 120.524)
(-0.203532 -0.468951 120.022)
(-0.241645 -0.462913 120.359)
(-0.299054 -0.485291 120.4)
(-0.293207 -0.624725 120.077)
(-0.281325 -0.75553 119.641)
(-0.162626 -0.755438 120.044)
(-0.0926834 -0.795019 119.962)
(-0.102084 -0.920445 119.805)
(-0.180133 -1.03824 119.906)
(-0.274763 -1.08917 119.178)
(-0.377011 -1.25374 119.794)
(-0.425645 -1.21554 119.24)
(-0.498896 -1.41704 119.437)
(-0.471552 -1.37851 119.114)
(-0.370548 -1.29163 118.739)
(-0.352279 -1.35893 119.041)
(-0.343031 -1.34951 118.726)
(-0.34569 -1.41974 118.504)
(-0.464169 -1.48593 118.313)
(-0.517436 -1.61166 118.145)
(-0.635689 -1.70483 117.893)
(-0.738418 -1.8413 117.655)
(-0.866505 -2.06557 117.351)
(-0.988334 -2.24087 117.053)
(-1.1546 -2.3655 116.692)
(-1.10773 -2.29976 116.336)
(-1.11981 -2.34751 116.014)
(-0.656926 -2.1273 115.569)
(-0.537516 -2.06053 115.484)
(0.377293 -1.51577 114.954)
(0.760464 -1.32531 115.034)
(1.84482 -0.723291 114.712)
(2.75657 -0.176684 114.452)
(2.976 0.0829372 114.769)
(3.09386 0.216823 114.782)
(3.22074 0.261622 114.71)
(3.23561 0.29485 114.698)
(3.26832 0.436495 114.6)
(3.23799 0.526032 114.82)
(4.19754 1.03038 114.353)
(4.13955 1.06628 114.835)
(4.61908 1.26233 114.597)
(5.38608 1.68929 114.551)
(6.19668 1.96829 114.747)
(6.90083 2.0709 114.781)
(7.13604 2.10935 115.154)
(7.34133 2.08715 115.212)
(7.48403 2.22691 115.367)
(7.77016 2.43404 115.621)
(7.95241 2.55341 115.9)
(8.19548 2.5883 116.211)
(8.33664 2.77261 116.472)
(8.48052 2.9451 116.912)
(8.40631 3.1258 117.175)
(8.21123 3.25764 117.611)
(7.80477 3.25452 117.894)
(7.27171 3.00754 118.302)
(6.54562 2.54241 118.489)
(5.71761 1.80148 118.719)
(4.73718 0.896703 118.666)
(3.71121 -0.00600889 118.574)
(2.61306 -0.819078 118.18)
(1.54087 -1.4058 117.758)
(0.444081 -1.79241 117.134)
(-0.569939 -1.70804 116.472)
(-1.58038 -1.31548 115.654)
(-2.49268 -0.384387 114.791)
(-3.40345 0.828291 113.894)
(-4.14747 2.52957 112.934)
(-4.82276 4.41249 112.052)
(-5.31095 6.7141 111.047)
(-5.68157 8.9712 110.283)
(-5.8949 11.503 109.322)
(-5.93876 13.9357 108.777)
(-5.86939 16.4224 107.89)
(-5.54703 18.6565 107.593)
(-5.22744 20.7906 106.796)
(-4.58297 22.7224 106.775)
(-4.11546 24.5407 106.046)
(-3.20361 26.3178 106.268)
(-2.64304 27.9436 105.6)
(-1.51566 29.7241 106.023)
(-0.860226 31.1507 105.444)
(0.408065 32.9698 106.009)
(1.20933 34.1349 105.599)
(2.50301 35.945 106.203)
(3.53064 36.9206 106.068)
(4.73717 38.4157 106.635)
(5.85238 39.2265 106.779)
(7.19197 40.6119 107.226)
(8.2176 41.0818 107.699)
(9.8263 42.5919 107.982)
(10.935 42.8538 108.677)
(11.8707 43.3398 109.002)
(13.0052 43.7301 109.425)
(14.1077 43.9775 109.954)
(14.9962 44.3406 110.182)
(16.2464 44.7877 110.714)
(17.48 45.2061 111.012)
(18.7894 45.483 111.398)
(20.0924 45.4428 111.977)
(21.2221 45.2054 112.139)
(22.2651 44.448 113.036)
(22.9739 43.4853 112.952)
(23.7027 41.9707 114.105)
(24.098 40.0609 113.77)
(24.4877 37.7781 115.054)
(24.617 34.792 114.622)
(24.8216 31.6888 115.783)
(24.9522 27.8964 115.339)
(25.1174 23.8314 116.142)
(25.6581 20.0749 115.879)
(26.0444 14.6756 115.846)
(26.695 14.3241 116.227)
(27.3114 14.2202 116.361)
(28.1029 14.3562 116.462)
(28.5482 14.5833 116.845)
)
;
    }
}


// ************************************************************************* //
