/*--------------------------------*- C++ -*----------------------------------*\
| =========                 |                                                 |
| \\      /  F ield         | OpenFOAM: The Open Source CFD Toolbox           |
|  \\    /   O peration     | Version:  5.x                                   |
|   \\  /    A nd           | Web:      www.OpenFOAM.org                      |
|    \\/     M anipulation  |                                                 |
\*---------------------------------------------------------------------------*/
FoamFile
{
    version     2.0;
    format      ascii;
    class       volVectorField;
    location    "0.001";
    object      U;
}
// * * * * * * * * * * * * * * * * * * * * * * * * * * * * * * * * * * * * * //

dimensions      [0 1 -1 0 0 0 0];

internalField   nonuniform List<vector> 
180
(
(7.57004e-10 -9.32653e-10 -0.000999986)
(1.6878e-09 -2.21575e-09 -0.000999986)
(2.78072e-09 -3.67727e-09 -0.000999985)
(3.93099e-09 -5.21141e-09 -0.000999983)
(5.13665e-09 -6.8254e-09 -0.000999982)
(6.41285e-09 -8.54252e-09 -0.000999979)
(7.77651e-09 -1.0388e-08 -0.000999977)
(9.24587e-09 -1.23891e-08 -0.000999973)
(1.08407e-08 -1.45755e-08 -0.000999969)
(1.25825e-08 -1.69793e-08 -0.000999965)
(1.44947e-08 -1.96363e-08 -0.00099996)
(1.66032e-08 -2.25856e-08 -0.000999954)
(1.89363e-08 -2.58706e-08 -0.000999947)
(2.15253e-08 -2.95395e-08 -0.00099994)
(2.44047e-08 -3.36459e-08 -0.000999932)
(2.76125e-08 -3.82491e-08 -0.000999922)
(3.11906e-08 -4.34156e-08 -0.000999912)
(3.51852e-08 -4.92189e-08 -0.0009999)
(3.96476e-08 -5.57415e-08 -0.000999887)
(4.46341e-08 -6.3075e-08 -0.000999873)
(5.02071e-08 -7.13219e-08 -0.000999857)
(5.64357e-08 -8.05966e-08 -0.000999838)
(6.33961e-08 -9.1027e-08 -0.000999818)
(7.1173e-08 -1.02756e-07 -0.000999796)
(7.98599e-08 -1.15944e-07 -0.000999771)
(8.95607e-08 -1.3077e-07 -0.000999742)
(1.00391e-07 -1.47434e-07 -0.000999711)
(1.12478e-07 -1.66163e-07 -0.000999676)
(1.25964e-07 -1.87207e-07 -0.000999636)
(1.41007e-07 -2.10851e-07 -0.000999592)
(1.57783e-07 -2.37411e-07 -0.000999542)
(1.76486e-07 -2.67244e-07 -0.000999487)
(1.97332e-07 -3.00748e-07 -0.000999425)
(2.20563e-07 -3.38373e-07 -0.000999355)
(2.46445e-07 -3.80621e-07 -0.000999277)
(2.75275e-07 -4.28055e-07 -0.00099919)
(3.07382e-07 -4.81307e-07 -0.000999092)
(3.43131e-07 -5.41088e-07 -0.000998982)
(3.82926e-07 -6.0819e-07 -0.000998859)
(4.27217e-07 -6.83505e-07 -0.000998722)
(4.76499e-07 -7.68031e-07 -0.000998568)
(5.31324e-07 -8.62886e-07 -0.000998396)
(5.92299e-07 -9.69324e-07 -0.000998203)
(6.60099e-07 -1.08875e-06 -0.000997987)
(7.35469e-07 -1.22274e-06 -0.000997746)
(8.19233e-07 -1.37304e-06 -0.000997476)
(9.12301e-07 -1.54165e-06 -0.000997175)
(1.01568e-06 -1.73077e-06 -0.000996838)
(1.13048e-06 -1.94287e-06 -0.000996461)
(1.25794e-06 -2.18073e-06 -0.00099604)
(1.3994e-06 -2.44746e-06 -0.00099557)
(1.55637e-06 -2.74655e-06 -0.000995044)
(1.7305e-06 -3.08189e-06 -0.000994457)
(1.92361e-06 -3.45785e-06 -0.000993802)
(2.13772e-06 -3.87933e-06 -0.000993069)
(2.37502e-06 -4.35179e-06 -0.000992252)
(2.63797e-06 -4.88138e-06 -0.000991339)
(2.92924e-06 -5.47496e-06 -0.000990319)
(3.25179e-06 -6.14021e-06 -0.000989182)
(3.60885e-06 -6.88573e-06 -0.000987912)
(4.00399e-06 -7.72116e-06 -0.000986495)
(4.44111e-06 -8.65726e-06 -0.000984914)
(4.92448e-06 -9.70607e-06 -0.000983151)
(5.4588e-06 -1.08811e-05 -0.000981184)
(6.04919e-06 -1.21974e-05 -0.00097899)
(6.70125e-06 -1.36718e-05 -0.000976544)
(7.4211e-06 -1.53232e-05 -0.000973817)
(8.2154e-06 -1.71727e-05 -0.000970778)
(9.09142e-06 -1.92439e-05 -0.000967391)
(1.0057e-05 -2.1563e-05 -0.000963617)
(1.11209e-05 -2.41595e-05 -0.000959413)
(1.22921e-05 -2.70664e-05 -0.000954732)
(1.35808e-05 -3.03203e-05 -0.000949515)
(1.49977e-05 -3.39623e-05 -0.000943702)
(1.6554e-05 -3.8038e-05 -0.00093732)
(1.82622e-05 -4.25986e-05 -0.000930716)
(2.01329e-05 -4.77011e-05 -0.000923319)
(2.20487e-05 -5.33076e-05 -0.000904626)
(2.26859e-05 -5.8282e-05 -0.000844756)
(1.60839e-05 -5.53392e-05 -0.000724483)
(-9.51629e-06 -1.09909e-05 -0.00246502)
(-1.21196e-05 2.19193e-05 -3.97771e-05)
(0.00018295 -0.000234373 -0.00279741)
(2.36955e-05 -4.3923e-05 -0.00267757)
(-7.84693e-05 5.72575e-05 -0.00127682)
(-0.000504321 0.000278318 -0.00390179)
(-0.000137016 7.13039e-05 -0.000694234)
(-0.000364024 0.000227402 -0.00284888)
(4.88002e-05 -7.48361e-05 -0.00205014)
(0.000247591 -4.03056e-05 -0.00295374)
(8.52398e-05 9.60354e-05 -0.00235041)
(1.07113e-06 0.000162298 -0.0032975)
(-4.84155e-05 0.000242361 -0.0016568)
(-7.30294e-05 0.000580147 -0.00370266)
(-2.01116e-05 0.000121409 -0.000122549)
(-0.000217024 0.000585693 -0.00402545)
(-0.000186086 0.000412607 -0.00213175)
(-0.000213568 0.000419061 -0.00223403)
(-0.000177733 0.000429044 -0.00346813)
(-9.76764e-05 0.000122053 -0.00231216)
(-0.00020708 0.000128325 -0.00271396)
(-0.00028524 -3.21597e-05 -0.00266783)
(-6.72404e-05 -1.40379e-05 -0.00191639)
(5.82903e-05 -6.33776e-05 -0.00172455)
(5.84216e-05 -6.53415e-05 -0.00139929)
(6.78213e-05 -8.2492e-05 -0.00123672)
(6.34872e-05 -7.9487e-05 -0.00114707)
(5.62083e-05 -7.13768e-05 -0.00112563)
(4.92963e-05 -6.33159e-05 -0.00111387)
(4.31808e-05 -5.60659e-05 -0.00110138)
(3.78283e-05 -4.96549e-05 -0.00108972)
(3.31499e-05 -4.39929e-05 -0.00107943)
(2.90597e-05 -3.89896e-05 -0.00107035)
(2.54825e-05 -3.45664e-05 -0.00106233)
(2.2353e-05 -3.06546e-05 -0.00105524)
(1.96142e-05 -2.71937e-05 -0.00104896)
(1.72166e-05 -2.41306e-05 -0.00104341)
(1.5117e-05 -2.14186e-05 -0.0010385)
(1.32777e-05 -1.90166e-05 -0.00103415)
(1.16659e-05 -1.68885e-05 -0.0010303)
(1.02531e-05 -1.50023e-05 -0.00102688)
(9.0143e-06 -1.333e-05 -0.00102386)
(7.92768e-06 -1.18469e-05 -0.00102118)
(6.97424e-06 -1.05311e-05 -0.0010188)
(6.13735e-06 -9.36346e-06 -0.0010167)
(5.40251e-06 -8.3269e-06 -0.00101483)
(4.75703e-06 -7.40644e-06 -0.00101317)
(4.18985e-06 -6.58885e-06 -0.0010117)
(3.69129e-06 -5.86244e-06 -0.0010104)
(3.25288e-06 -5.21686e-06 -0.00100924)
(2.86725e-06 -4.64298e-06 -0.00100822)
(2.52793e-06 -4.13272e-06 -0.0010073)
(2.22925e-06 -3.67893e-06 -0.00100649)
(1.96628e-06 -3.27528e-06 -0.00100578)
(1.73467e-06 -2.91615e-06 -0.00100514)
(1.53063e-06 -2.59659e-06 -0.00100457)
(1.35083e-06 -2.31219e-06 -0.00100406)
(1.19234e-06 -2.05905e-06 -0.00100362)
(1.05262e-06 -1.83371e-06 -0.00100322)
(9.29409e-07 -1.63309e-06 -0.00100286)
(8.20734e-07 -1.45448e-06 -0.00100255)
(7.24861e-07 -1.29543e-06 -0.00100227)
(6.40266e-07 -1.1538e-06 -0.00100202)
(5.65607e-07 -1.02766e-06 -0.00100179)
(4.99706e-07 -9.15322e-07 -0.0010016)
(4.41525e-07 -8.15264e-07 -0.00100142)
(3.90152e-07 -7.2614e-07 -0.00100127)
(3.44784e-07 -6.46752e-07 -0.00100113)
(3.04713e-07 -5.76035e-07 -0.001001)
(2.69316e-07 -5.1304e-07 -0.00100089)
(2.38045e-07 -4.56925e-07 -0.00100079)
(2.10416e-07 -4.06939e-07 -0.00100071)
(1.86005e-07 -3.62415e-07 -0.00100063)
(1.64435e-07 -3.22758e-07 -0.00100056)
(1.45376e-07 -2.87439e-07 -0.0010005)
(1.28536e-07 -2.55987e-07 -0.00100044)
(1.13657e-07 -2.27983e-07 -0.00100039)
(1.00512e-07 -2.03053e-07 -0.00100035)
(8.88993e-08 -1.80865e-07 -0.00100031)
(7.86422e-08 -1.61123e-07 -0.00100027)
(6.9584e-08 -1.43562e-07 -0.00100024)
(6.15862e-08 -1.27949e-07 -0.00100022)
(5.45268e-08 -1.14075e-07 -0.00100019)
(4.82982e-08 -1.01754e-07 -0.00100017)
(4.28056e-08 -9.08216e-08 -0.00100015)
(3.79656e-08 -8.11328e-08 -0.00100013)
(3.37051e-08 -7.25583e-08 -0.00100012)
(2.99603e-08 -6.49845e-08 -0.0010001)
(2.66754e-08 -5.83114e-08 -0.00100009)
(2.38021e-08 -5.24512e-08 -0.00100008)
(2.12987e-08 -4.73276e-08 -0.00100007)
(1.91292e-08 -4.28741e-08 -0.00100006)
(1.72632e-08 -3.90334e-08 -0.00100005)
(1.56748e-08 -3.57564e-08 -0.00100004)
(1.43422e-08 -3.30016e-08 -0.00100004)
(1.32475e-08 -3.0734e-08 -0.00100003)
(1.23753e-08 -2.89241e-08 -0.00100002)
(1.17201e-08 -2.75543e-08 -0.00100002)
(1.13131e-08 -2.66445e-08 -0.00100001)
(1.12734e-08 -2.63035e-08 -0.001)
)
;

boundaryField
{
    inlet
    {
        type            zeroGradient;
    }
    outlet
    {
        type            zeroGradient;
    }
    repeat_boundary
    {
        type            slip;
    }
    procBoundary1to0
    {
        type            processor;
        value           nonuniform List<vector> 
180
(
(7.56986e-10 -8.3856e-10 -0.00100001)
(1.68781e-09 -2.02719e-09 -0.00100001)
(2.78076e-09 -3.40235e-09 -0.00100001)
(3.93099e-09 -4.85525e-09 -0.00100001)
(5.13664e-09 -6.39951e-09 -0.00100001)
(6.41285e-09 -8.05974e-09 -0.00100001)
(7.77651e-09 -9.86366e-09 -0.001)
(9.24587e-09 -1.18406e-08 -0.001)
(1.08407e-08 -1.40219e-08 -0.001)
(1.25825e-08 -1.64413e-08 -0.001)
(1.44947e-08 -1.91354e-08 -0.001)
(1.66032e-08 -2.21442e-08 -0.000999998)
(1.89363e-08 -2.55115e-08 -0.000999997)
(2.15253e-08 -2.92858e-08 -0.000999995)
(2.44047e-08 -3.3521e-08 -0.000999993)
(2.76125e-08 -3.82769e-08 -0.00099999)
(3.11906e-08 -4.36203e-08 -0.000999988)
(3.51852e-08 -4.9626e-08 -0.000999985)
(3.96476e-08 -5.63778e-08 -0.000999982)
(4.46341e-08 -6.39696e-08 -0.000999979)
(5.02071e-08 -7.25072e-08 -0.000999975)
(5.64357e-08 -8.21092e-08 -0.000999971)
(6.33961e-08 -9.29091e-08 -0.000999966)
(7.1173e-08 -1.05057e-07 -0.000999961)
(7.98599e-08 -1.18721e-07 -0.000999955)
(8.95607e-08 -1.34092e-07 -0.000999948)
(1.00391e-07 -1.51383e-07 -0.000999941)
(1.12478e-07 -1.70833e-07 -0.000999932)
(1.25964e-07 -1.92713e-07 -0.000999922)
(1.41007e-07 -2.17324e-07 -0.000999911)
(1.57783e-07 -2.45007e-07 -0.000999898)
(1.76486e-07 -2.76144e-07 -0.000999883)
(1.97332e-07 -3.11165e-07 -0.000999867)
(2.20563e-07 -3.50551e-07 -0.000999848)
(2.46445e-07 -3.94845e-07 -0.000999826)
(2.75275e-07 -4.44656e-07 -0.000999801)
(3.07382e-07 -5.00666e-07 -0.000999772)
(3.43131e-07 -5.63646e-07 -0.00099974)
(3.82927e-07 -6.34457e-07 -0.000999703)
(4.27217e-07 -7.1407e-07 -0.00099966)
(4.765e-07 -8.03575e-07 -0.000999612)
(5.31325e-07 -9.04197e-07 -0.000999557)
(5.923e-07 -1.01731e-06 -0.000999495)
(6.601e-07 -1.14446e-06 -0.000999423)
(7.3547e-07 -1.28739e-06 -0.000999342)
(8.19234e-07 -1.44805e-06 -0.00099925)
(9.12303e-07 -1.62862e-06 -0.000999146)
(1.01568e-06 -1.83158e-06 -0.000999027)
(1.13049e-06 -2.05967e-06 -0.000998892)
(1.25794e-06 -2.31601e-06 -0.000998738)
(1.39941e-06 -2.60408e-06 -0.000998564)
(1.55638e-06 -2.92779e-06 -0.000998366)
(1.73051e-06 -3.29153e-06 -0.000998142)
(1.92362e-06 -3.70022e-06 -0.000997888)
(2.13773e-06 -4.1594e-06 -0.000997599)
(2.37504e-06 -4.67527e-06 -0.000997271)
(2.63799e-06 -5.25478e-06 -0.0009969)
(2.92927e-06 -5.90575e-06 -0.000996479)
(3.25182e-06 -6.63694e-06 -0.000996002)
(3.60889e-06 -7.45818e-06 -0.000995461)
(4.00403e-06 -8.38051e-06 -0.000994847)
(4.44116e-06 -9.41628e-06 -0.000994152)
(4.92455e-06 -1.05794e-05 -0.000993364)
(5.45888e-06 -1.18854e-05 -0.000992472)
(6.04929e-06 -1.33517e-05 -0.00099146)
(6.70137e-06 -1.4998e-05 -0.000990314)
(7.42125e-06 -1.68461e-05 -0.000989015)
(8.21559e-06 -1.89207e-05 -0.000987544)
(9.09166e-06 -2.12493e-05 -0.000985877)
(1.00573e-05 -2.38629e-05 -0.000983988)
(1.11212e-05 -2.6796e-05 -0.000981849)
(1.22926e-05 -3.00876e-05 -0.000979426)
(1.35814e-05 -3.37811e-05 -0.000976676)
(1.49984e-05 -3.79253e-05 -0.000973551)
(1.6555e-05 -4.25743e-05 -0.000970109)
(1.82644e-05 -4.77874e-05 -0.000966842)
(2.01481e-05 -5.36338e-05 -0.000963333)
(2.21943e-05 -6.01685e-05 -0.000946995)
(2.39002e-05 -6.67945e-05 -0.00088449)
(2.31983e-05 -6.73387e-05 -0.000763844)
(1.60864e-05 -1.71371e-05 -0.00290976)
(2.68084e-05 1.17421e-05 -9.00017e-06)
(0.000199674 -4.89667e-05 -0.00360357)
(3.37685e-05 1.68914e-05 -0.000172704)
(-0.000445501 -0.000186755 -0.00294289)
(-0.000525286 -0.000254727 -0.00248865)
(-9.5843e-05 -3.22092e-05 -0.00105726)
(-0.000150142 -0.000117046 -0.00467388)
(-1.72988e-05 5.79887e-05 -0.00077289)
(0.000284821 0.000347421 -0.00411491)
(0.000296948 0.00060254 -0.0021562)
(0.000110743 0.00086774 -0.00293523)
(-3.08871e-06 0.000307307 -0.000852853)
(-5.11872e-05 0.00129047 -0.00312119)
(-0.000114224 0.000497073 -0.00286891)
(-6.83795e-05 6.88104e-05 -0.00148131)
(-0.000355013 -0.000781555 -0.00357124)
(-0.000117891 -0.000153362 -0.00155262)
(-0.000131621 -0.000226921 -0.00316549)
(-0.000133317 -9.77249e-05 -0.00231483)
(-0.000232294 -3.05122e-05 -0.00285967)
(-0.000178962 8.44078e-05 -0.00273674)
(-5.11735e-05 0.000161844 -0.00175673)
(1.68473e-06 0.000110753 -0.0018179)
(1.82334e-05 1.32576e-05 -0.00101556)
(6.68074e-05 -2.8153e-05 -0.00103843)
(6.36407e-05 -3.09529e-05 -0.000970355)
(5.62396e-05 -2.92153e-05 -0.000975128)
(4.9305e-05 -2.72688e-05 -0.000982419)
(4.31858e-05 -2.5357e-05 -0.000986348)
(3.78318e-05 -2.35008e-05 -0.00098917)
(3.31525e-05 -2.17195e-05 -0.000991537)
(2.90617e-05 -2.00237e-05 -0.000993503)
(2.5484e-05 -1.84191e-05 -0.000995114)
(2.23541e-05 -1.69089e-05 -0.000996425)
(1.9615e-05 -1.54937e-05 -0.000997487)
(1.72172e-05 -1.4173e-05 -0.000998342)
(1.51174e-05 -1.29447e-05 -0.000999024)
(1.3278e-05 -1.1806e-05 -0.000999563)
(1.16662e-05 -1.07531e-05 -0.000999985)
(1.02533e-05 -9.78216e-06 -0.00100031)
(9.01446e-06 -8.88874e-06 -0.00100055)
(7.9278e-06 -8.06835e-06 -0.00100073)
(6.97433e-06 -7.31644e-06 -0.00100086)
(6.13742e-06 -6.6285e-06 -0.00100095)
(5.40256e-06 -6.00009e-06 -0.001001)
(4.75707e-06 -5.42689e-06 -0.00100102)
(4.18988e-06 -4.90476e-06 -0.00100102)
(3.69131e-06 -4.42975e-06 -0.00100101)
(3.2529e-06 -3.9981e-06 -0.00100099)
(2.86727e-06 -3.60628e-06 -0.00100095)
(2.52794e-06 -3.25097e-06 -0.00100091)
(2.22926e-06 -2.92905e-06 -0.00100087)
(1.96629e-06 -2.63764e-06 -0.00100082)
(1.73467e-06 -2.37405e-06 -0.00100077)
(1.53063e-06 -2.13581e-06 -0.00100072)
(1.35083e-06 -1.92062e-06 -0.00100067)
(1.19235e-06 -1.72638e-06 -0.00100063)
(1.05262e-06 -1.55114e-06 -0.00100058)
(9.29411e-07 -1.39313e-06 -0.00100054)
(8.20735e-07 -1.25074e-06 -0.0010005)
(7.24862e-07 -1.12248e-06 -0.00100046)
(6.40266e-07 -1.00701e-06 -0.00100042)
(5.65607e-07 -9.03093e-07 -0.00100039)
(4.99706e-07 -8.09618e-07 -0.00100035)
(4.41525e-07 -7.25572e-07 -0.00100032)
(3.90153e-07 -6.50033e-07 -0.0010003)
(3.44784e-07 -5.82167e-07 -0.00100027)
(3.04713e-07 -5.21219e-07 -0.00100025)
(2.69316e-07 -4.66503e-07 -0.00100022)
(2.38045e-07 -4.17401e-07 -0.0010002)
(2.10417e-07 -3.73353e-07 -0.00100018)
(1.86005e-07 -3.33853e-07 -0.00100017)
(1.64435e-07 -2.98446e-07 -0.00100015)
(1.45377e-07 -2.66719e-07 -0.00100014)
(1.28536e-07 -2.38302e-07 -0.00100012)
(1.13657e-07 -2.12862e-07 -0.00100011)
(1.00512e-07 -1.90098e-07 -0.0010001)
(8.88993e-08 -1.6974e-07 -0.00100009)
(7.86422e-08 -1.51546e-07 -0.00100008)
(6.9584e-08 -1.35298e-07 -0.00100007)
(6.15862e-08 -1.20801e-07 -0.00100007)
(5.45269e-08 -1.07881e-07 -0.00100006)
(4.82982e-08 -9.63791e-08 -0.00100005)
(4.28056e-08 -8.61566e-08 -0.00100005)
(3.79656e-08 -7.7087e-08 -0.00100004)
(3.37051e-08 -6.9058e-08 -0.00100004)
(2.99603e-08 -6.19689e-08 -0.00100003)
(2.66754e-08 -5.57298e-08 -0.00100003)
(2.38021e-08 -5.02607e-08 -0.00100003)
(2.12987e-08 -4.54904e-08 -0.00100002)
(1.91292e-08 -4.13558e-08 -0.00100002)
(1.72632e-08 -3.78015e-08 -0.00100002)
(1.56748e-08 -3.47788e-08 -0.00100001)
(1.43422e-08 -3.22458e-08 -0.00100001)
(1.32475e-08 -3.01671e-08 -0.00100001)
(1.23753e-08 -2.85133e-08 -0.00100001)
(1.17201e-08 -2.72527e-08 -0.00100001)
(1.13131e-08 -2.63212e-08 -0.001)
(1.12734e-08 -2.55657e-08 -0.001)
)
;
    }
    procBoundary1to3
    {
        type            processor;
        value           nonuniform List<vector> 
180
(
(6.62908e-10 -9.32638e-10 -0.00100002)
(1.49924e-09 -2.21576e-09 -0.00100002)
(2.50581e-09 -3.6773e-09 -0.00100001)
(3.57483e-09 -5.21141e-09 -0.00100002)
(4.71075e-09 -6.82539e-09 -0.00100002)
(5.93007e-09 -8.54251e-09 -0.00100002)
(7.25215e-09 -1.0388e-08 -0.00100002)
(8.69735e-09 -1.23891e-08 -0.00100002)
(1.02872e-08 -1.45755e-08 -0.00100002)
(1.20445e-08 -1.69793e-08 -0.00100002)
(1.39938e-08 -1.96363e-08 -0.00100002)
(1.61618e-08 -2.25856e-08 -0.00100002)
(1.85772e-08 -2.58706e-08 -0.00100002)
(2.12716e-08 -2.95395e-08 -0.00100002)
(2.42798e-08 -3.36459e-08 -0.00100002)
(2.76402e-08 -3.82491e-08 -0.00100002)
(3.13953e-08 -4.34156e-08 -0.00100002)
(3.55923e-08 -4.92189e-08 -0.00100002)
(4.02838e-08 -5.57415e-08 -0.00100003)
(4.55287e-08 -6.3075e-08 -0.00100003)
(5.13924e-08 -7.13219e-08 -0.00100003)
(5.79483e-08 -8.05966e-08 -0.00100004)
(6.52782e-08 -9.1027e-08 -0.00100004)
(7.34738e-08 -1.02756e-07 -0.00100005)
(8.26375e-08 -1.15944e-07 -0.00100005)
(9.28835e-08 -1.3077e-07 -0.00100006)
(1.0434e-07 -1.47434e-07 -0.00100007)
(1.17149e-07 -1.66163e-07 -0.00100007)
(1.3147e-07 -1.87207e-07 -0.00100008)
(1.4748e-07 -2.10851e-07 -0.00100009)
(1.65379e-07 -2.37411e-07 -0.00100011)
(1.85386e-07 -2.67244e-07 -0.00100012)
(2.07749e-07 -3.00749e-07 -0.00100014)
(2.32741e-07 -3.38373e-07 -0.00100016)
(2.6067e-07 -3.80621e-07 -0.00100018)
(2.91876e-07 -4.28055e-07 -0.0010002)
(3.26741e-07 -4.81308e-07 -0.00100022)
(3.65689e-07 -5.41088e-07 -0.00100025)
(4.09193e-07 -6.0819e-07 -0.00100029)
(4.57782e-07 -6.83505e-07 -0.00100032)
(5.12044e-07 -7.68031e-07 -0.00100036)
(5.72635e-07 -8.62887e-07 -0.00100041)
(6.40286e-07 -9.69326e-07 -0.00100047)
(7.15814e-07 -1.08875e-06 -0.00100053)
(8.00127e-07 -1.22274e-06 -0.00100059)
(8.94237e-07 -1.37305e-06 -0.00100067)
(9.99273e-07 -1.54165e-06 -0.00100076)
(1.11649e-06 -1.73077e-06 -0.00100086)
(1.24729e-06 -1.94287e-06 -0.00100097)
(1.39322e-06 -2.18074e-06 -0.0010011)
(1.55602e-06 -2.44747e-06 -0.00100124)
(1.73761e-06 -2.74656e-06 -0.0010014)
(1.94014e-06 -3.0819e-06 -0.00100158)
(2.16598e-06 -3.45787e-06 -0.00100179)
(2.41779e-06 -3.87935e-06 -0.00100202)
(2.69849e-06 -4.35182e-06 -0.00100229)
(3.01137e-06 -4.88141e-06 -0.00100259)
(3.36003e-06 -5.47499e-06 -0.00100293)
(3.74852e-06 -6.14025e-06 -0.00100332)
(4.1813e-06 -6.88579e-06 -0.00100375)
(4.66333e-06 -7.72123e-06 -0.00100424)
(5.20012e-06 -8.65735e-06 -0.0010048)
(5.79777e-06 -9.7062e-06 -0.00100543)
(6.46306e-06 -1.08812e-05 -0.00100614)
(7.20349e-06 -1.21976e-05 -0.00100695)
(8.02737e-06 -1.36721e-05 -0.00100786)
(8.94391e-06 -1.53235e-05 -0.00100889)
(9.96329e-06 -1.71731e-05 -0.00101005)
(1.10968e-05 -1.92443e-05 -0.00101137)
(1.23569e-05 -2.15636e-05 -0.00101286)
(1.37573e-05 -2.41603e-05 -0.00101455)
(1.53132e-05 -2.70674e-05 -0.00101645)
(1.70415e-05 -3.03216e-05 -0.0010186)
(1.89605e-05 -3.39639e-05 -0.00102102)
(2.10901e-05 -3.80401e-05 -0.00102385)
(2.34517e-05 -4.26051e-05 -0.00102766)
(2.60572e-05 -4.77097e-05 -0.0010321)
(2.88574e-05 -5.34022e-05 -0.00102458)
(3.08795e-05 -5.90679e-05 -0.000967613)
(2.69706e-05 -6.03179e-05 -0.00083893)
(8.47731e-07 -3.43235e-05 -0.00317928)
(-2.31002e-06 -3.47665e-05 -2.08109e-05)
(-1.29869e-05 -0.000247173 -0.00409038)
(-2.43553e-05 -2.75861e-05 -9.69296e-05)
(4.80054e-05 0.000282958 -0.00475409)
(-4.20572e-05 7.48325e-06 -0.000433514)
(0.000157241 0.000274386 -0.0047577)
(3.21199e-06 2.76855e-05 -0.0011637)
(-0.000103887 -9.59373e-05 -0.00392401)
(-0.000138451 -7.47825e-05 -0.00176533)
(-0.000265055 0.000170984 -0.00484618)
(-3.0812e-05 5.83079e-05 -0.000123559)
(-0.000940457 0.00071174 -0.00412038)
(-0.000135545 0.000183643 -0.000875468)
(-0.000137274 0.000456578 -0.00374217)
(0.000153873 0.000245021 -0.00153905)
(0.000618688 0.000411998 -0.00275657)
(0.000595329 0.000424232 -0.00268841)
(0.000266788 0.000269354 -0.0037654)
(2.09806e-07 8.96533e-05 -0.00146076)
(-0.000155944 -3.68797e-06 -0.00249141)
(-0.000264089 -9.85666e-05 -0.00134608)
(-0.000208101 -0.000181175 -0.00131735)
(-7.34927e-05 -0.000137903 -0.00106608)
(-2.7468e-06 -0.000111559 -0.00103597)
(1.48506e-05 -9.21401e-05 -0.000947857)
(1.50749e-05 -8.06418e-05 -0.000942284)
(1.40504e-05 -7.15041e-05 -0.000952248)
(1.32481e-05 -6.33386e-05 -0.000959157)
(1.2471e-05 -5.60769e-05 -0.00096422)
(1.16735e-05 -4.96628e-05 -0.000968586)
(1.08759e-05 -4.3999e-05 -0.000972426)
(1.00933e-05 -3.89943e-05 -0.000975784)
(9.33487e-06 -3.457e-05 -0.000978716)
(8.60698e-06 -3.06574e-05 -0.000981279)
(7.91403e-06 -2.71958e-05 -0.000983521)
(7.25884e-06 -2.41323e-05 -0.000985483)
(6.64295e-06 -2.14199e-05 -0.000987202)
(6.06692e-06 -1.90176e-05 -0.000988709)
(5.53051e-06 -1.68893e-05 -0.00099003)
(5.03295e-06 -1.50029e-05 -0.000991191)
(4.57299e-06 -1.33305e-05 -0.00099221)
(4.1491e-06 -1.18473e-05 -0.000993107)
(3.75953e-06 -1.05314e-05 -0.000993896)
(3.40238e-06 -9.36368e-06 -0.00099459)
(3.07569e-06 -8.32707e-06 -0.000995203)
(2.77748e-06 -7.40657e-06 -0.000995743)
(2.50575e-06 -6.58895e-06 -0.00099622)
(2.2586e-06 -5.86252e-06 -0.000996642)
(2.03413e-06 -5.21692e-06 -0.000997015)
(1.83055e-06 -4.64303e-06 -0.000997345)
(1.64617e-06 -4.13276e-06 -0.000997637)
(1.47937e-06 -3.67896e-06 -0.000997897)
(1.32864e-06 -3.2753e-06 -0.000998127)
(1.19257e-06 -2.91617e-06 -0.000998331)
(1.06985e-06 -2.5966e-06 -0.000998513)
(9.5926e-07 -2.3122e-06 -0.000998674)
(8.59674e-07 -2.05906e-06 -0.000998818)
(7.70053e-07 -1.83371e-06 -0.000998946)
(6.8945e-07 -1.6331e-06 -0.00099906)
(6.17e-07 -1.45448e-06 -0.000999161)
(5.51915e-07 -1.29543e-06 -0.000999252)
(4.93479e-07 -1.1538e-06 -0.000999332)
(4.41038e-07 -1.02766e-06 -0.000999404)
(3.94002e-07 -9.15324e-07 -0.000999468)
(3.51833e-07 -8.15265e-07 -0.000999525)
(3.14045e-07 -7.26141e-07 -0.000999576)
(2.80199e-07 -6.46753e-07 -0.000999621)
(2.49897e-07 -5.76035e-07 -0.000999661)
(2.22779e-07 -5.13041e-07 -0.000999697)
(1.98521e-07 -4.56925e-07 -0.000999729)
(1.7683e-07 -4.0694e-07 -0.000999758)
(1.57443e-07 -3.62415e-07 -0.000999784)
(1.40123e-07 -3.22758e-07 -0.000999807)
(1.24657e-07 -2.87439e-07 -0.000999827)
(1.10852e-07 -2.55987e-07 -0.000999845)
(9.85363e-08 -2.27983e-07 -0.000999861)
(8.75565e-08 -2.03053e-07 -0.000999876)
(7.7774e-08 -1.80865e-07 -0.000999889)
(6.90653e-08 -1.61123e-07 -0.000999901)
(6.13198e-08 -1.43562e-07 -0.000999911)
(5.44384e-08 -1.27949e-07 -0.000999921)
(4.83327e-08 -1.14075e-07 -0.000999929)
(4.29237e-08 -1.01754e-07 -0.000999937)
(3.81405e-08 -9.08216e-08 -0.000999944)
(3.39198e-08 -8.11328e-08 -0.00099995)
(3.02048e-08 -7.25583e-08 -0.000999955)
(2.69446e-08 -6.49845e-08 -0.00099996)
(2.40938e-08 -5.83114e-08 -0.000999965)
(2.16116e-08 -5.24512e-08 -0.000999969)
(1.94615e-08 -4.73276e-08 -0.000999973)
(1.7611e-08 -4.28741e-08 -0.000999977)
(1.60313e-08 -3.90334e-08 -0.00099998)
(1.46971e-08 -3.57564e-08 -0.000999983)
(1.35865e-08 -3.30016e-08 -0.000999986)
(1.26806e-08 -3.0734e-08 -0.000999988)
(1.19645e-08 -2.89241e-08 -0.000999991)
(1.14185e-08 -2.75543e-08 -0.000999993)
(1.09899e-08 -2.66445e-08 -0.000999996)
(1.05356e-08 -2.63035e-08 -0.000999998)
)
;
    }
}


// ************************************************************************* //
