FoamFile
{version 2.0; format ascii;class vectorField; location 0;object  v;}
346
(
( -2.44571e-06 -7.61083e-08 -1.11992e-05 )  
( -2.93561e-07 1.25896e-06 -5.92601e-06 )  
( -1.62907e-06 -1.48129e-07 -9.51959e-06 )  
( -1.84242e-06 -1.71605e-06 -8.76656e-06 )  
( -1.7938e-06 9.15273e-07 -6.13789e-06 )  
( -1.49698e-06 1.15521e-06 -6.20029e-06 )  
( -2.73522e-06 2.46627e-06 -9.3232e-06 )  
( -1.24101e-06 -3.70289e-06 -6.88104e-06 )  
( -6.03037e-07 5.39936e-07 -1.07727e-05 )  
( 1.09338e-07 1.72085e-06 -7.37307e-06 )  
( -1.54976e-06 1.52461e-06 -9.88165e-06 )  
( -1.58995e-06 1.13146e-06 -1.09385e-05 )  
( -1.65564e-06 7.22118e-07 -9.01173e-06 )  
( -1.48283e-06 1.45211e-07 -8.38367e-06 )  
( -2.90943e-06 -1.86142e-06 -1.15852e-05 )  
( -2.2631e-07 -1.44035e-06 -8.48837e-06 )  
( 3.77256e-07 -1.08573e-06 -9.11038e-06 )  
( 7.11155e-07 9.17839e-07 -9.41341e-06 )  
( 1.36662e-06 5.89849e-08 -8.86816e-06 )  
( 9.76528e-07 -4.6995e-07 -1.62796e-05 )  
( -1.26083e-06 -7.88558e-07 -9.07224e-06 )  
( 1.06355e-06 -1.15164e-07 -7.94616e-06 )  
( 2.58392e-08 7.24299e-07 -9.41259e-06 )  
( -5.2052e-06 5.09527e-06 -2.215e-05 )  
( -1.86305e-06 1.2087e-06 -9.73338e-06 )  
( -6.29239e-07 1.82779e-06 -8.5137e-06 )  
( -9.03342e-07 1.86943e-06 -1.99122e-05 )  
( -1.71495e-06 1.70293e-06 -1.11609e-05 )  
( -1.13637e-06 -7.92663e-08 -7.05566e-06 )  
( 1.16804e-06 6.85297e-07 -1.02404e-05 )  
( -3.10469e-06 -2.997e-07 -1.59936e-05 )  
( -2.32708e-06 -2.66787e-07 -1.95974e-05 )  
( -2.96695e-06 -3.13584e-06 -8.05205e-06 )  
( -9.34829e-07 1.84387e-06 -2.13952e-05 )  
( -4.46171e-06 6.0393e-07 -1.2011e-05 )  
( -7.79272e-07 -8.68811e-07 -1.77461e-05 )  
( -2.23355e-06 1.37035e-06 -1.75319e-05 )  
( -2.29355e-06 1.87818e-06 -1.50326e-05 )  
( -4.16623e-06 2.1057e-06 -1.33333e-05 )  
( -2.2212e-06 -1.23753e-06 -1.60899e-05 )  
( -5.22666e-06 1.2362e-06 -2.36487e-05 )  
( -3.2877e-06 1.77213e-07 -1.39932e-05 )  
( -2.57723e-06 3.19615e-07 -1.70221e-05 )  
( -5.68304e-07 1.80537e-06 -1.94564e-05 )  
( -5.70967e-06 1.5705e-07 -1.97629e-05 )  
( -4.38825e-06 -6.54837e-07 -1.75351e-05 )  
( -7.08674e-06 1.87297e-06 -2.57992e-05 )  
( -5.24319e-06 2.27284e-06 -2.8539e-05 )  
( -6.89504e-06 5.07487e-07 -3.30734e-05 )  
( -1.7631e-06 -6.67113e-07 -1.46307e-05 )  
( -7.66437e-06 -1.26777e-06 -2.81615e-05 )  
( -5.35306e-06 2.43514e-06 -2.66307e-05 )  
( -5.62491e-06 2.38192e-06 -1.94247e-05 )  
( -6.24998e-06 5.07181e-06 -2.08431e-05 )  
( -4.19906e-06 2.18927e-06 -2.97331e-05 )  
( -6.65445e-06 1.011e-06 -2.82798e-05 )  
( -9.14287e-06 2.45868e-06 -3.43858e-05 )  
( -3.02965e-06 3.89525e-07 -2.68707e-05 )  
( -6.47993e-06 2.19539e-06 -3.09623e-05 )  
( -2.74398e-06 -6.32095e-07 -2.84502e-05 )  
( -3.98878e-06 -5.05353e-07 -2.96925e-05 )  
( -8.47863e-06 -1.03193e-06 -2.89665e-05 )  
( -3.95394e-06 3.17416e-06 -2.74197e-05 )  
( -2.71732e-06 3.92853e-08 -1.91904e-05 )  
( -3.4386e-06 1.90325e-06 -1.66433e-05 )  
( -4.17027e-06 1.35865e-06 -2.6378e-05 )  
( -4.14651e-06 4.69472e-06 -2.9979e-05 )  
( -6.60683e-06 1.90433e-06 -3.48434e-05 )  
( -1.07108e-05 3.65274e-06 -4.07094e-05 )  
( -6.79949e-06 -8.79239e-07 -3.06353e-05 )  
( -8.26735e-06 -7.22751e-07 -3.1062e-05 )  
( -3.82806e-06 1.30964e-07 -3.03811e-05 )  
( -3.3554e-06 3.44731e-06 -2.96784e-05 )  
( -5.38261e-06 2.35621e-06 -3.71948e-05 )  
( -7.05566e-06 1.15937e-06 -4.25105e-05 )  
( -9.38978e-06 2.14996e-06 -4.04155e-05 )  
( -8.98924e-06 3.86386e-06 -3.70746e-05 )  
( -1.54904e-06 4.73238e-07 -3.66958e-05 )  
( -2.88253e-06 8.02045e-07 -2.79742e-05 )  
( -1.12643e-06 3.91458e-06 -3.75378e-05 )  
( -9.20643e-06 3.68902e-07 -4.81352e-05 )  
( -8.82626e-06 7.59581e-07 -4.19168e-05 )  
( -2.34442e-06 2.21401e-06 -2.599e-05 )  
( -4.96527e-06 3.16926e-06 -2.74191e-05 )  
( -9.06472e-06 6.29552e-06 -4.865e-05 )  
( -8.76031e-06 1.66231e-06 -4.08844e-05 )  
( -1.00595e-05 2.46831e-06 -4.3406e-05 )  
( -5.24856e-06 6.29755e-06 -3.87899e-05 )  
( -8.7504e-06 3.08947e-06 -3.73957e-05 )  
( -7.35754e-06 2.42114e-06 -4.49398e-05 )  
( -6.00028e-06 9.57678e-07 -3.52559e-05 )  
( -4.59372e-06 -6.44927e-07 -3.06798e-05 )  
( -7.31357e-06 2.20693e-06 -3.14513e-05 )  
( -3.86635e-06 1.31896e-06 -3.39618e-05 )  
( -1.30077e-05 1.75454e-06 -4.26718e-05 )  
( -1.10467e-05 3.7246e-06 -4.52307e-05 )  
( -9.22998e-06 3.35264e-06 -4.9649e-05 )  
( -5.69035e-06 -1.68351e-07 -4.69198e-05 )  
( -2.53874e-06 1.85221e-06 -4.35007e-05 )  
( -1.52453e-05 5.74855e-06 -5.68895e-05 )  
( -1.43025e-05 3.91681e-06 -5.57014e-05 )  
( -1.05842e-05 1.7691e-06 -5.9983e-05 )  
( -1.1388e-05 -1.9201e-06 -5.23423e-05 )  
( -7.75867e-06 2.52482e-06 -4.45653e-05 )  
( -9.03824e-06 2.02317e-06 -4.30905e-05 )  
( -1.1123e-05 2.92529e-06 -4.59282e-05 )  
( -3.9094e-06 -8.22062e-08 -3.61343e-05 )  
( -1.12167e-05 2.09914e-06 -5.25283e-05 )  
( -8.79316e-06 1.52968e-06 -4.12631e-05 )  
( -9.23816e-06 1.10939e-05 -4.17297e-05 )  
( -1.44141e-05 2.81849e-06 -5.36835e-05 )  
( -1.25318e-05 1.12713e-06 -5.83473e-05 )  
( -1.23469e-05 5.15083e-06 -5.49537e-05 )  
( -1.10205e-05 3.22525e-06 -4.93899e-05 )  
( -9.08652e-06 1.48429e-06 -3.62261e-05 )  
( -8.16955e-06 -4.93943e-07 -4.1344e-05 )  
( -9.18219e-06 8.44954e-06 -5.11516e-05 )  
( -1.10511e-05 9.17913e-06 -4.9135e-05 )  
( -9.82726e-06 2.7168e-06 -5.94882e-05 )  
( -1.17802e-05 2.22639e-06 -5.5477e-05 )  
( -9.60074e-06 4.61485e-06 -5.30286e-05 )  
( -1.3351e-05 5.89826e-06 -5.39652e-05 )  
( -4.94853e-06 7.51908e-07 -4.02927e-05 )  
( -9.83303e-06 3.09946e-06 -4.51377e-05 )  
( -1.13176e-05 6.16817e-06 -6.34145e-05 )  
( -1.33932e-05 6.57143e-06 -5.09921e-05 )  
( -1.36173e-05 4.9666e-06 -6.02529e-05 )  
( -1.61704e-05 6.74977e-06 -6.59917e-05 )  
( -1.16319e-05 2.62116e-06 -7.04621e-05 )  
( -1.41297e-05 6.75493e-06 -5.36394e-05 )  
( -1.61011e-05 5.71978e-06 -6.42437e-05 )  
( -1.18333e-05 4.9288e-06 -6.14141e-05 )  
( -1.58144e-05 5.25174e-06 -6.14432e-05 )  
( -9.47603e-06 6.17274e-06 -7.0721e-05 )  
( -1.13434e-05 2.22021e-07 -7.46961e-05 )  
( -1.58545e-05 7.10812e-06 -5.96522e-05 )  
( -2.15575e-05 1.58894e-05 -6.42369e-05 )  
( -1.67866e-05 6.29086e-06 -6.08584e-05 )  
( -1.39957e-05 5.71994e-06 -5.47023e-05 )  
( -1.2644e-05 1.2582e-06 -6.51924e-05 )  
( -1.37435e-05 1.33923e-06 -5.48191e-05 )  
( -1.14888e-05 6.74424e-07 -6.95785e-05 )  
( -1.36929e-05 4.11851e-06 -7.19961e-05 )  
( -1.28708e-05 3.24219e-06 -6.44284e-05 )  
( -1.1129e-05 8.46553e-06 -7.60573e-05 )  
( -1.18944e-05 4.97354e-06 -7.89369e-05 )  
( -1.34312e-05 3.70168e-06 -6.65867e-05 )  
( -1.3673e-05 6.03377e-07 -7.59796e-05 )  
( -1.33932e-05 5.92383e-06 -7.19738e-05 )  
( -1.10604e-05 2.81279e-07 -7.28938e-05 )  
( -1.30422e-05 1.33458e-06 -7.34219e-05 )  
( -8.46297e-06 -1.8155e-06 -7.5025e-05 )  
( -1.07603e-05 8.62996e-07 -7.09294e-05 )  
( -1.60079e-05 5.00645e-06 -6.75232e-05 )  
( -9.82988e-06 -1.02878e-06 -7.77987e-05 )  
( -2.04454e-05 8.53794e-06 -8.11284e-05 )  
( -1.62781e-05 7.10424e-06 -5.99171e-05 )  
( -1.21363e-05 3.85e-06 -8.60923e-05 )  
( -1.89919e-05 2.01469e-06 -7.47568e-05 )  
( -1.38835e-05 4.01418e-06 -7.72095e-05 )  
( -1.26738e-05 4.17995e-06 -8.80228e-05 )  
( -1.46933e-05 4.28531e-06 -9.08354e-05 )  
( -1.14492e-05 3.55281e-06 -8.67376e-05 )  
( -1.02572e-05 3.6195e-06 -8.16878e-05 )  
( -1.46207e-05 1.92291e-06 -8.66912e-05 )  
( -1.02288e-05 -8.97626e-07 -8.72121e-05 )  
( -1.25622e-05 2.83134e-06 -9.58181e-05 )  
( -1.07182e-05 4.0033e-06 -7.88687e-05 )  
( -1.34155e-05 8.05586e-07 -8.44214e-05 )  
( -1.46319e-05 4.91787e-06 -9.26275e-05 )  
( -1.22699e-05 5.6586e-06 -9.82022e-05 )  
( -1.76766e-05 4.56199e-06 -9.98952e-05 )  
( -1.92749e-05 -1.18597e-06 -7.51305e-05 )  
( -1.08615e-05 9.70308e-07 -9.10136e-05 )  
( -1.43475e-05 2.33559e-06 -8.88849e-05 )  
( -1.21412e-05 2.71035e-06 -9.34567e-05 )  
( -1.08954e-05 7.45864e-07 -8.67079e-05 )  
( -1.38989e-05 1.86691e-06 -9.28017e-05 )  
( -1.2831e-05 9.29055e-07 -7.98606e-05 )  
( -1.03324e-05 6.57061e-07 -8.52859e-05 )  
( -2.83469e-05 7.02129e-06 -7.32393e-05 )  
( -1.43464e-05 5.93366e-06 -6.93373e-05 )  
( -6.5187e-06 7.64993e-06 -9.6759e-05 )  
( -1.73762e-05 6.82599e-06 -8.4683e-05 )  
( -1.5201e-05 6.01422e-06 -0.000102613 )  
( -9.96454e-06 4.50727e-07 -0.000102868 )  
( -1.43307e-05 2.15729e-07 -9.80503e-05 )  
( -1.18317e-05 2.52893e-06 -0.000101853 )  
( -1.0554e-05 3.68396e-06 -0.000100178 )  
( -1.41831e-05 7.96206e-06 -0.00010129 )  
( -1.60311e-05 4.55006e-06 -0.00010066 )  
( -1.34421e-05 6.42395e-06 -9.51566e-05 )  
( -8.66856e-06 1.2711e-05 -0.000107088 )  
( -1.4127e-05 3.66255e-06 -0.000104099 )  
( -1.64346e-05 6.42743e-06 -9.82335e-05 )  
( -1.72145e-05 6.33539e-06 -0.000103721 )  
( -1.44659e-05 1.08091e-05 -0.000113968 )  
( -1.06613e-05 5.61013e-06 -9.66157e-05 )  
( -1.55074e-05 3.30881e-06 -0.000103333 )  
( -1.2511e-05 1.66642e-06 -0.000111057 )  
( -1.41357e-05 -3.78611e-06 -9.48965e-05 )  
( -1.05495e-05 6.74993e-06 -0.000107019 )  
( -1.34057e-05 3.73781e-06 -0.000111302 )  
( -4.80075e-06 7.49166e-06 -0.00011231 )  
( -1.20165e-05 1.46818e-06 -0.000108521 )  
( -8.26544e-06 1.0139e-06 -0.000107743 )  
( -1.13454e-05 1.46158e-06 -0.000114258 )  
( -1.22514e-05 6.84729e-08 -0.000107832 )  
( -1.60221e-05 3.77623e-06 -0.00011101 )  
( -1.77826e-05 6.72161e-06 -0.000109384 )  
( -1.88701e-05 -1.07666e-06 -0.000111125 )  
( -9.70889e-06 4.88976e-06 -0.000110071 )  
( -7.73996e-06 1.32551e-06 -0.000119673 )  
( -1.43327e-05 -8.86654e-07 -0.000116761 )  
( -1.3968e-05 -4.96675e-08 -0.000114501 )  
( -1.15554e-05 5.14423e-06 -0.000122279 )  
( -9.42147e-06 5.80832e-06 -0.000103138 )  
( -1.64617e-05 7.5571e-06 -0.000107905 )  
( -5.25633e-06 2.41503e-06 -0.000120469 )  
( -9.64163e-06 -4.5538e-08 -0.000118059 )  
( -1.17003e-05 1.4057e-07 -0.00012232 )  
( -1.42404e-05 3.28815e-06 -0.000113828 )  
( -7.85756e-06 -2.49793e-06 -0.000112267 )  
( -1.12714e-05 7.40278e-07 -0.000117004 )  
( -9.87487e-06 -7.06081e-07 -0.000122998 )  
( -1.50513e-05 -2.26655e-06 -0.000127651 )  
( -8.26259e-06 -1.67517e-06 -0.000128167 )  
( -8.15512e-06 8.1724e-06 -0.000124333 )  
( -1.63381e-05 5.54674e-06 -0.000119685 )  
( -1.37121e-05 1.92957e-06 -0.000126863 )  
( -5.71052e-06 2.0047e-06 -0.000109797 )  
( -6.05122e-06 -4.54963e-07 -0.000135472 )  
( -6.55966e-06 6.55361e-06 -0.000131466 )  
( -5.75007e-06 1.99448e-06 -0.000133923 )  
( -7.19975e-07 -2.38693e-06 -0.000127935 )  
( -1.23132e-05 -3.75419e-06 -0.000141946 )  
( -1.35769e-05 -3.45237e-06 -0.000133905 )  
( -3.61448e-06 -2.4746e-06 -0.000137055 )  
( -7.79411e-06 -1.01242e-06 -0.000122115 )  
( -1.11073e-05 1.44119e-06 -0.000136412 )  
( -1.00058e-05 5.6184e-06 -0.000125263 )  
( -1.43667e-05 -2.66543e-07 -0.000129889 )  
( -6.35968e-06 -6.04e-07 -0.000121179 )  
( -8.65597e-06 5.5257e-06 -0.00011791 )  
( -1.05864e-05 6.72365e-06 -0.000111321 )  
( -7.87883e-06 -7.56078e-07 -0.000125568 )  
( -8.35726e-06 -3.99259e-07 -0.000131038 )  
( -4.18922e-06 3.28804e-06 -0.000126289 )  
( -4.06293e-06 5.20998e-06 -0.000129995 )  
( -8.9518e-06 3.48423e-06 -0.000139638 )  
( -4.04141e-06 -3.09292e-06 -0.000137113 )  
( -4.51942e-06 6.9386e-06 -0.000138708 )  
( -7.19334e-06 3.24334e-06 -0.000129339 )  
( -6.36295e-06 -3.41453e-07 -0.00013977 )  
( -2.38019e-06 4.13932e-06 -0.000133942 )  
( -1.81316e-05 -1.30877e-06 -0.000135786 )  
( -6.41463e-06 2.00529e-06 -0.000138673 )  
( -6.07396e-06 -3.65931e-07 -0.000138766 )  
( -2.56779e-06 7.54893e-07 -0.000133176 )  
( -6.67897e-06 9.07166e-06 -0.000152589 )  
( -8.37829e-06 -3.88687e-06 -0.000143557 )  
( -1.50944e-05 5.74231e-08 -0.000150121 )  
( -4.59302e-06 5.26519e-06 -0.000144952 )  
( -4.46551e-06 -1.60555e-06 -0.000137316 )  
( 4.61962e-06 1.1186e-05 -0.000153802 )  
( -5.62391e-06 -2.02512e-06 -0.000145463 )  
( 2.45091e-06 2.63393e-06 -0.000135055 )  
( -7.17044e-06 1.89351e-06 -0.000136569 )  
( 1.84521e-06 -2.32128e-06 -0.000140816 )  
( -2.83816e-06 -1.1423e-05 -0.000148876 )  
( -9.21422e-06 3.4932e-06 -0.000140164 )  
( -6.66657e-06 1.9434e-06 -0.000140366 )  
( 6.39251e-06 6.70297e-06 -0.000144269 )  
( 7.64075e-06 -6.8902e-06 -0.000152657 )  
( 5.64802e-06 -6.65796e-06 -0.000143457 )  
( -2.32683e-06 2.60634e-06 -0.000144538 )  
( 3.47424e-06 4.03894e-06 -0.000143644 )  
( 5.31298e-06 -2.91965e-06 -0.000151639 )  
( -2.1661e-07 -8.48373e-06 -0.00016159 )  
( -5.35226e-06 -6.79649e-07 -0.000146275 )  
( 2.09665e-06 -4.14777e-06 -0.000141855 )  
( 4.74941e-06 7.84763e-06 -0.000141033 )  
( -2.72844e-06 -4.68041e-06 -0.000146058 )  
( -1.59332e-05 1.86454e-05 -0.000149785 )  
( -8.72119e-07 -4.62678e-06 -0.000152249 )  
( -1.61744e-06 8.22019e-06 -0.000146644 )  
( -5.81944e-06 -1.46627e-06 -0.000155749 )  
( 1.18104e-05 7.47888e-06 -0.000143362 )  
( -1.68514e-06 2.52386e-07 -0.000144785 )  
( -9.23653e-06 1.59375e-05 -0.000164576 )  
( 1.21645e-05 -1.3439e-05 -0.000162089 )  
( -4.2919e-07 -2.5032e-06 -0.000162522 )  
( 6.08231e-06 -5.15759e-06 -0.000169236 )  
( 5.56637e-06 -4.73811e-06 -0.000153667 )  
( 6.54524e-06 3.82825e-06 -0.000157786 )  
( 1.67297e-05 -1.94972e-06 -0.000159252 )  
( 9.80175e-06 -2.19716e-06 -0.000161346 )  
( 2.68594e-06 4.31643e-06 -0.000157101 )  
( -7.57746e-07 -1.24755e-06 -0.000161023 )  
( 5.11038e-06 -5.93724e-06 -0.000163306 )  
( 2.76005e-06 -9.44975e-06 -0.000148904 )  
( 6.91553e-06 4.55187e-06 -0.000146942 )  
( 3.14088e-06 -1.43057e-05 -0.000168494 )  
( 1.01545e-05 3.8896e-06 -0.000165397 )  
( 1.54318e-06 -2.77551e-06 -0.000166202 )  
( 6.73849e-06 -2.01834e-06 -0.00016043 )  
( 1.71873e-05 3.73765e-06 -0.000174345 )  
( 2.21358e-05 -1.03848e-05 -0.000168064 )  
( 2.0574e-05 1.45497e-06 -0.000158813 )  
( 6.89885e-06 -9.99511e-06 -0.000167979 )  
( 4.78025e-06 -8.957e-06 -0.000153752 )  
( 5.5572e-06 2.19833e-07 -0.000153693 )  
( 2.88463e-05 3.30975e-06 -0.000150453 )  
( 1.1574e-06 -1.12711e-05 -0.000175659 )  
( 9.24463e-06 7.35902e-06 -0.000150312 )  
( 1.03045e-05 5.43633e-06 -0.000157565 )  
( 1.70433e-05 -1.3678e-06 -0.000174561 )  
( 3.35997e-07 -9.49332e-06 -0.000160777 )  
( 2.6259e-05 -7.98318e-06 -0.000177176 )  
( 1.00834e-05 -3.76599e-07 -0.000176599 )  
( 1.02097e-05 2.63399e-06 -0.000161979 )  
( 4.35162e-06 2.92472e-06 -0.000162053 )  
( 1.60247e-05 7.71445e-06 -0.000174708 )  
( 1.38236e-05 -2.37659e-05 -0.000188175 )  
( 1.38383e-06 -2.08497e-07 -0.000164474 )  
( 9.75771e-06 -2.08456e-05 -0.000188109 )  
( 1.62403e-05 -1.57638e-05 -0.000190632 )  
( 2.13014e-05 -4.548e-06 -0.000166952 )  
( 9.4348e-06 2.94166e-07 -0.000173456 )  
( 6.44449e-06 -2.15686e-07 -0.000160555 )  
( 3.17042e-06 8.03855e-08 -0.000167035 )  
( 9.11506e-06 -9.67078e-06 -0.000171412 )  
( 6.50599e-06 1.27457e-05 -0.00015331 )  
( 2.88863e-05 1.63083e-05 -0.000194012 )  
( 9.29325e-06 -4.76957e-05 -0.000179847 )  
( -7.13118e-07 -7.55259e-06 -0.000172319 )  
( 5.72075e-06 2.48482e-06 -0.000158999 )  
( 4.00811e-06 8.8636e-06 -0.000164311 )  
( 3.2433e-05 1.78239e-05 -0.00016409 )  
( 1.66607e-05 -1.03021e-05 -0.000163417 )  
( 2.36746e-05 3.40211e-07 -0.000167511 )  
( 1.01673e-05 -8.59255e-06 -0.000160169 )  
( -4.39131e-06 -1.40225e-05 -0.000193386 )  
( 1.68999e-06 -2.12146e-05 -0.000168286 )  
( 2.33713e-05 -1.75482e-05 -0.000199061 )  
( 1.36851e-05 -5.05636e-06 -0.000150944 )  
)
