/*--------------------------------*- C++ -*----------------------------------*\
| =========                 |                                                 |
| \\      /  F ield         | OpenFOAM: The Open Source CFD Toolbox           |
|  \\    /   O peration     | Version:  5.x                                   |
|   \\  /    A nd           | Web:      www.OpenFOAM.org                      |
|    \\/     M anipulation  |                                                 |
\*---------------------------------------------------------------------------*/
FoamFile
{
    version     2.0;
    format      ascii;
    class       volScalarField;
    location    "70000";
    object      p;
}
// * * * * * * * * * * * * * * * * * * * * * * * * * * * * * * * * * * * * * //

dimensions      [0 2 -2 0 0 0 0];

internalField   nonuniform List<scalar> 
2250
(
-3.07709e-10
-3.32415e-10
-3.12272e-10
-2.78565e-10
-2.5702e-10
-3.27526e-10
-3.31875e-10
-2.97502e-10
-2.55761e-10
-2.35185e-10
-2.79491e-10
-2.64536e-10
-2.2556e-10
-1.8671e-10
-1.71948e-10
-1.87066e-10
-1.57347e-10
-1.22368e-10
-9.71099e-11
-9.99085e-11
-4.87089e-11
-1.85801e-11
-3.53598e-13
-2.16958e-12
-4.82932e-11
-8.67745e-10
-9.01912e-10
-8.35431e-10
-7.60504e-10
-7.58061e-10
-8.9007e-10
-8.73796e-10
-7.81968e-10
-6.9859e-10
-6.94106e-10
-7.58874e-10
-7.0821e-10
-6.12388e-10
-5.28738e-10
-5.0232e-10
-5.48563e-10
-4.81713e-10
-3.9724e-10
-3.13572e-10
-2.57509e-10
-2.69309e-10
-2.25265e-10
-1.64923e-10
-7.03146e-11
6.52406e-12
-1.24923e-09
-1.24594e-09
-1.14421e-09
-1.07315e-09
-1.13739e-09
-1.23741e-09
-1.18681e-09
-1.07125e-09
-9.95976e-10
-1.02508e-09
-1.08587e-09
-1.01758e-09
-9.02598e-10
-8.00722e-10
-7.47751e-10
-9.04376e-10
-8.43648e-10
-7.276e-10
-5.67702e-10
-3.69104e-10
-7.28005e-10
-6.99953e-10
-5.71951e-10
-2.78834e-10
1.32619e-10
-1.34885e-09
-1.29895e-09
-1.20039e-09
-1.15606e-09
-1.23462e-09
-1.31379e-09
-1.24702e-09
-1.14922e-09
-1.09471e-09
-1.11872e-09
-1.23607e-09
-1.17723e-09
-1.07182e-09
-9.66209e-10
-8.88683e-10
-1.21022e-09
-1.1703e-09
-1.03515e-09
-8.29171e-10
-5.5898e-10
-1.25977e-09
-1.22977e-09
-1.03931e-09
-6.45264e-10
-6.70246e-11
-1.23515e-09
-1.16352e-09
-1.09327e-09
-1.06052e-09
-1.08223e-09
-1.21053e-09
-1.15261e-09
-1.08823e-09
-1.0419e-09
-1.03547e-09
-1.24526e-09
-1.20515e-09
-1.11854e-09
-1.02016e-09
-9.48833e-10
-1.36658e-09
-1.33229e-09
-1.19134e-09
-1.00007e-09
-7.97278e-10
-1.55593e-09
-1.49371e-09
-1.27364e-09
-9.49075e-10
-5.17043e-10
-1.06705e-09
-1.00571e-09
-9.65424e-10
-9.22636e-10
-8.71632e-10
-1.07577e-09
-1.04104e-09
-9.98386e-10
-9.39028e-10
-8.80928e-10
-1.18303e-09
-1.15312e-09
-1.06824e-09
-9.59726e-10
-8.70955e-10
-1.34006e-09
-1.28556e-09
-1.12645e-09
-9.51982e-10
-8.2585e-10
-1.50117e-09
-1.37673e-09
-1.12467e-09
-8.99107e-10
-7.09208e-10
-9.75256e-10
-9.40829e-10
-9.06844e-10
-8.35359e-10
-7.19626e-10
-1.01504e-09
-9.96517e-10
-9.43161e-10
-8.44232e-10
-7.13598e-10
-1.1205e-09
-1.08065e-09
-9.63174e-10
-8.05009e-10
-6.42074e-10
-1.21071e-09
-1.11679e-09
-9.11005e-10
-6.99188e-10
-5.43736e-10
-1.24949e-09
-1.05871e-09
-7.61027e-10
-5.50754e-10
-4.42488e-10
-9.7792e-10
-9.48752e-10
-8.8275e-10
-7.67005e-10
-6.19759e-10
-1.02021e-09
-9.87603e-10
-8.90529e-10
-7.39681e-10
-5.5522e-10
-1.07407e-09
-1.00262e-09
-8.29303e-10
-5.98498e-10
-3.35034e-10
-1.08007e-09
-9.47411e-10
-6.84239e-10
-3.78405e-10
-6.72691e-11
-1.03035e-09
-8.14972e-10
-4.71803e-10
-1.32097e-10
1.74193e-10
-9.90619e-10
-9.16905e-10
-7.81867e-10
-6.00682e-10
-4.24199e-10
-9.99768e-10
-9.17214e-10
-7.55464e-10
-5.39057e-10
-2.82139e-10
-1.00346e-09
-8.86567e-10
-6.51788e-10
-3.31476e-10
6.94727e-11
-9.78564e-10
-8.18387e-10
-4.9871e-10
-5.84178e-11
5.01108e-10
-9.34118e-10
-7.25622e-10
-3.18802e-10
2.60027e-10
1.00206e-09
-9.4762e-10
-7.8875e-10
-5.55042e-10
-2.53917e-10
7.90755e-11
-9.11687e-10
-7.59604e-10
-5.14852e-10
-1.80156e-10
2.53035e-10
-8.99674e-10
-7.3334e-10
-4.31264e-10
6.82376e-12
5.79114e-10
-8.91419e-10
-7.03809e-10
-3.28505e-10
2.35111e-10
9.82379e-10
-8.71236e-10
-6.51538e-10
-1.91996e-10
5.33943e-10
1.54819e-09
-9.3336e-10
-6.87364e-10
-3.25186e-10
1.81818e-10
8.34014e-10
-8.81509e-10
-6.6534e-10
-3.0662e-10
2.24888e-10
9.2584e-10
-8.83622e-10
-6.7041e-10
-2.79257e-10
3.12083e-10
1.06455e-09
-8.79579e-10
-6.5658e-10
-2.28895e-10
4.19711e-10
1.23822e-09
-8.00906e-10
-5.71327e-10
-1.36293e-10
5.58952e-10
1.51251e-09
-1.18887e-09
-8.78278e-10
-3.34016e-10
4.82585e-10
1.55496e-09
-1.17281e-09
-8.96417e-10
-3.54599e-10
4.78659e-10
1.55141e-09
-1.18468e-09
-9.10043e-10
-3.61017e-10
4.77449e-10
1.52972e-09
-1.13393e-09
-8.5842e-10
-3.2853e-10
4.85914e-10
1.50174e-09
-9.54113e-10
-7.32127e-10
-2.90001e-10
4.74146e-10
1.49293e-09
-1.96413e-09
-1.57633e-09
-7.41678e-10
5.25751e-10
2.15246e-09
-2.00526e-09
-1.61853e-09
-7.66431e-10
5.21552e-10
2.13997e-09
-1.9845e-09
-1.58375e-09
-7.46224e-10
5.03393e-10
2.05922e-09
-1.85565e-09
-1.46807e-09
-6.91672e-10
4.86897e-10
1.94979e-09
-1.63981e-09
-1.33894e-09
-6.61693e-10
4.59892e-10
1.87248e-09
-3.35908e-09
-2.80449e-09
-1.53886e-09
3.18384e-10
2.60599e-09
-3.41548e-09
-2.81389e-09
-1.52146e-09
3.38944e-10
2.57005e-09
-3.3217e-09
-2.7022e-09
-1.45125e-09
3.26072e-10
2.44192e-09
-3.13505e-09
-2.54236e-09
-1.36649e-09
3.10885e-10
2.29508e-09
-2.95313e-09
-2.4148e-09
-1.29161e-09
3.15594e-10
2.22385e-09
-5.34561e-09
-4.50622e-09
-2.71489e-09
-2.10182e-10
2.70031e-09
-5.36157e-09
-4.46418e-09
-2.67028e-09
-2.0583e-10
2.60792e-09
-5.21577e-09
-4.32022e-09
-2.58663e-09
-2.24824e-10
2.47133e-09
-5.03586e-09
-4.16858e-09
-2.49924e-09
-2.39254e-10
2.36762e-09
-4.91543e-09
-4.05003e-09
-2.4043e-09
-2.18467e-10
2.45051e-09
-7.97611e-09
-6.7851e-09
-4.41505e-09
-1.19385e-09
2.44386e-09
-7.96172e-09
-6.74365e-09
-4.38992e-09
-1.21474e-09
2.38003e-09
-7.84085e-09
-6.63564e-09
-4.32959e-09
-1.23365e-09
2.29254e-09
-7.72899e-09
-6.53528e-09
-4.27737e-09
-1.25621e-09
2.27824e-09
-7.68131e-09
-6.46401e-09
-4.23687e-09
-1.22666e-09
2.59066e-09
-1.15405e-08
-9.95852e-09
-6.87165e-09
-2.68105e-09
2.12209e-09
-1.15589e-08
-9.96266e-09
-6.87285e-09
-2.70144e-09
2.08225e-09
-1.15147e-08
-9.91278e-09
-6.85839e-09
-2.75709e-09
1.96569e-09
-1.14851e-08
-9.8843e-09
-6.89095e-09
-2.84338e-09
1.94116e-09
-1.1497e-08
-9.9042e-09
-6.96614e-09
-2.85318e-09
2.26124e-09
-1.65111e-08
-1.44169e-08
-1.03246e-08
-4.75523e-09
1.70259e-09
-1.65878e-08
-1.44534e-08
-1.03507e-08
-4.81449e-09
1.57349e-09
-1.6619e-08
-1.44753e-08
-1.04349e-08
-4.97582e-09
1.37385e-09
-1.66857e-08
-1.45703e-08
-1.06062e-08
-5.16061e-09
1.30385e-09
-1.67948e-08
-1.47511e-08
-1.08157e-08
-5.23458e-09
1.55009e-09
-2.34347e-08
-2.05936e-08
-1.51162e-08
-7.66949e-09
9.9989e-10
-2.35419e-08
-2.06588e-08
-1.521e-08
-7.81499e-09
8.23506e-10
-2.36713e-08
-2.08209e-08
-1.54466e-08
-8.08041e-09
6.04643e-10
-2.39163e-08
-2.11212e-08
-1.57698e-08
-8.35228e-09
4.61601e-10
-2.4269e-08
-2.15321e-08
-1.61148e-08
-8.54621e-09
5.65988e-10
-3.30005e-08
-2.9131e-08
-2.17951e-08
-1.17569e-08
6.79023e-11
-3.31381e-08
-2.92784e-08
-2.19894e-08
-1.19541e-08
-7.96759e-11
-3.34374e-08
-2.96362e-08
-2.23615e-08
-1.22916e-08
-3.6651e-10
-3.39321e-08
-3.01489e-08
-2.28129e-08
-1.26967e-08
-7.70967e-10
-3.46028e-08
-3.07741e-08
-2.3329e-08
-1.31786e-08
-1.11501e-09
-4.62116e-08
-4.09891e-08
-3.11023e-08
-1.74479e-08
-1.28294e-09
-4.64283e-08
-4.12502e-08
-3.13639e-08
-1.76668e-08
-1.48229e-09
-4.69141e-08
-4.17501e-08
-3.18144e-08
-1.80962e-08
-1.93435e-09
-4.76019e-08
-4.23947e-08
-3.23926e-08
-1.86971e-08
-2.62228e-09
-4.84699e-08
-4.31624e-08
-3.31079e-08
-1.94923e-08
-3.30856e-09
-6.44592e-08
-5.7406e-08
-4.39728e-08
-2.5397e-08
-3.52232e-09
-6.47691e-08
-5.77304e-08
-4.42591e-08
-2.56656e-08
-3.79875e-09
-6.53602e-08
-5.82855e-08
-4.478e-08
-2.62099e-08
-4.38147e-09
-6.61392e-08
-5.90242e-08
-4.55162e-08
-2.69982e-08
-5.19848e-09
-6.70855e-08
-5.99177e-08
-4.64248e-08
-2.79747e-08
-5.90097e-09
-8.95547e-08
-7.99598e-08
-6.16745e-08
-3.64705e-08
-6.85342e-09
-8.99151e-08
-8.03036e-08
-6.19994e-08
-3.68056e-08
-7.17775e-09
-9.05614e-08
-8.09254e-08
-6.26319e-08
-3.74694e-08
-7.88378e-09
-9.14445e-08
-8.18119e-08
-6.35553e-08
-3.84289e-08
-8.8323e-09
-9.25247e-08
-8.28917e-08
-6.46722e-08
-3.95585e-08
-9.66374e-09
-1.23932e-07
-1.10852e-07
-8.59886e-08
-5.17771e-08
-1.1573e-08
-1.24334e-07
-1.11249e-07
-8.63894e-08
-5.21888e-08
-1.19982e-08
-1.25098e-07
-1.12016e-07
-8.71761e-08
-5.29862e-08
-1.28064e-08
-1.2619e-07
-1.13126e-07
-8.8309e-08
-5.41015e-08
-1.38621e-08
-1.27533e-07
-1.14455e-07
-8.96447e-08
-5.53759e-08
-1.4913e-08
-1.70997e-07
-1.53176e-07
-1.19329e-07
-7.28004e-08
-1.81922e-08
-1.71489e-07
-1.53673e-07
-1.19837e-07
-7.33113e-08
-1.86378e-08
-1.72463e-07
-1.54666e-07
-1.20838e-07
-7.42547e-08
-1.94764e-08
-1.73871e-07
-1.56088e-07
-1.22229e-07
-7.5544e-08
-2.06409e-08
-1.75564e-07
-1.57732e-07
-1.23821e-07
-7.70049e-08
-2.18885e-08
-2.35449e-07
-2.11144e-07
-1.64973e-07
-1.01528e-07
-2.69337e-08
-2.36074e-07
-2.11794e-07
-1.65649e-07
-1.02152e-07
-2.74079e-08
-2.37347e-07
-2.13122e-07
-1.66946e-07
-1.03328e-07
-2.85196e-08
-2.39176e-07
-2.14943e-07
-1.68681e-07
-1.04958e-07
-3.00754e-08
-2.4133e-07
-2.17027e-07
-1.70693e-07
-1.06862e-07
-3.17391e-08
-3.23698e-07
-2.90558e-07
-2.27472e-07
-1.40822e-07
-3.86243e-08
-3.24508e-07
-2.91446e-07
-2.28377e-07
-1.41645e-07
-3.95171e-08
-3.26154e-07
-2.9314e-07
-2.30016e-07
-1.43225e-07
-4.11947e-08
-3.28417e-07
-2.95346e-07
-2.32164e-07
-1.45339e-07
-4.32849e-08
-3.31145e-07
-2.97978e-07
-2.34763e-07
-1.47837e-07
-4.5544e-08
-4.44505e-07
-3.99436e-07
-3.12967e-07
-1.94935e-07
-5.49373e-08
-4.45551e-07
-4.00532e-07
-3.14135e-07
-1.96073e-07
-5.64275e-08
-4.47494e-07
-4.02472e-07
-3.16174e-07
-1.98107e-07
-5.87232e-08
-4.50019e-07
-4.04949e-07
-3.18721e-07
-2.00636e-07
-6.13797e-08
-4.5341e-07
-4.08247e-07
-3.22031e-07
-2.03664e-07
-6.42375e-08
-6.09742e-07
-5.48857e-07
-4.29353e-07
-2.70147e-07
-7.62087e-08
-6.10981e-07
-5.49981e-07
-4.30985e-07
-2.71431e-07
-7.85825e-08
-6.13062e-07
-5.52069e-07
-4.33662e-07
-2.73852e-07
-8.22235e-08
-6.15534e-07
-5.54549e-07
-4.36494e-07
-2.76499e-07
-8.58558e-08
-6.20126e-07
-5.58922e-07
-4.41056e-07
-2.80144e-07
-8.97872e-08
-8.35169e-07
-7.55159e-07
-5.85583e-07
-3.77419e-07
-9.89412e-08
-8.36671e-07
-7.5589e-07
-5.88408e-07
-3.77827e-07
-1.03872e-07
-8.39017e-07
-7.5803e-07
-5.92847e-07
-3.80316e-07
-1.11524e-07
-8.40335e-07
-7.59318e-07
-5.95367e-07
-3.81568e-07
-1.17306e-07
-8.48135e-07
-7.65801e-07
-6.03412e-07
-3.85735e-07
-1.24752e-07
-1.14162e-06
-1.04405e-06
-7.89667e-07
-5.37669e-07
-1.13276e-07
-1.14374e-06
-1.04274e-06
-7.95335e-07
-5.34236e-07
-1.23976e-07
-1.14762e-06
-1.04523e-06
-8.05829e-07
-5.36302e-07
-1.42427e-07
-1.14258e-06
-1.04041e-06
-8.0411e-07
-5.30475e-07
-1.52479e-07
-1.16097e-06
-1.05288e-06
-8.24996e-07
-5.34533e-07
-1.72279e-07
-1.55839e-06
-1.45237e-06
-1.0542e-06
-7.79095e-07
-1.08392e-07
-1.56071e-06
-1.44396e-06
-1.06411e-06
-7.64309e-07
-1.29801e-07
-1.57313e-06
-1.45239e-06
-1.09432e-06
-7.71951e-07
-1.73305e-07
-1.54073e-06
-1.42378e-06
-1.06663e-06
-7.43182e-07
-1.81136e-07
-1.59639e-06
-1.4597e-06
-1.13316e-06
-7.52744e-07
-2.39875e-07
-2.12711e-06
-2.02961e-06
-1.40432e-06
-1.13667e-06
-7.3465e-08
-2.12471e-06
-1.99602e-06
-1.41746e-06
-1.08771e-06
-1.1544e-07
-2.16871e-06
-2.03313e-06
-1.50178e-06
-1.12773e-06
-2.17187e-07
-2.05461e-06
-1.9365e-06
-1.38614e-06
-1.03711e-06
-1.85102e-07
-2.21156e-06
-2.04364e-06
-1.57551e-06
-1.0806e-06
-3.45057e-07
-2.90835e-06
-2.84528e-06
-1.88205e-06
-1.66026e-06
1.34251e-08
-2.88877e-06
-2.752e-06
-1.89402e-06
-1.53558e-06
-7.64276e-08
-2.9991e-06
-2.85008e-06
-2.08536e-06
-1.65507e-06
-2.92941e-07
-2.71886e-06
-2.62632e-06
-1.77954e-06
-1.45086e-06
-1.42021e-07
-3.07271e-06
-2.87478e-06
-2.21208e-06
-1.56917e-06
-5.12974e-07
-4.01079e-06
-4.01053e-06
-2.56033e-06
-2.43922e-06
1.67599e-07
-3.96742e-06
-3.83069e-06
-2.58581e-06
-2.18315e-06
-4.40608e-08
-4.16084e-06
-3.9876e-06
-2.9504e-06
-2.41912e-06
-4.42592e-07
-3.6154e-06
-3.60808e-06
-2.36043e-06
-2.03667e-06
-1.87881e-07
-4.28667e-06
-4.0659e-06
-3.14183e-06
-2.28155e-06
-7.77261e-07
-5.82873e-06
-5.77887e-06
-3.53707e-06
-3.60289e-06
2.9064e-07
-5.65999e-06
-5.4799e-06
-3.63171e-06
-3.12236e-06
-8.54003e-08
-6.00404e-06
-5.73008e-06
-4.23746e-06
-3.4834e-06
-6.51112e-07
-5.03256e-06
-5.11554e-06
-3.15631e-06
-2.85865e-06
-1.90638e-07
-6.12049e-06
-5.83853e-06
-4.44399e-06
-3.2848e-06
-1.12187e-06
-3.68331e-06
-4.23496e-06
-1.45171e-06
-2.70304e-06
4.96e-06
-4.04744e-06
-3.86091e-06
-1.94504e-06
-1.55131e-06
2.39071e-06
-3.87228e-06
-3.20723e-06
-3.077e-06
-2.08163e-06
1.10702e-06
-2.2372e-06
-2.77424e-06
-7.55811e-07
-1.34128e-06
1.7951e-06
-4.58783e-06
-4.29279e-06
-3.87885e-06
-2.68934e-06
-8.27452e-07
-1.75838e-05
-1.78925e-05
-1.33112e-05
-1.4018e-05
-6.80981e-06
-1.71761e-05
-1.70502e-05
-1.37777e-05
-1.31995e-05
-7.87528e-06
-1.74993e-05
-1.7212e-05
-1.46818e-05
-1.37967e-05
-8.27942e-06
-1.60862e-05
-1.66976e-05
-1.25327e-05
-1.28733e-05
-6.94508e-06
-1.76835e-05
-1.75761e-05
-1.40507e-05
-1.28193e-05
-5.97228e-06
7.59024e-07
-2.80145e-06
5.75449e-06
-3.66496e-06
2.72842e-05
-3.26346e-06
-1.45569e-06
1.78963e-06
3.09566e-06
4.76635e-06
6.14383e-07
5.92524e-06
-2.26368e-06
1.10882e-06
4.75935e-06
7.62873e-06
3.4732e-06
1.07454e-05
5.02664e-07
1.26533e-05
-4.00604e-06
-2.5302e-06
-5.68682e-06
-3.39879e-06
5.73647e-07
-4.15177e-05
-3.9046e-05
-2.84919e-05
-3.12734e-05
-3.66604e-05
-3.73625e-05
-3.53962e-05
-3.15765e-05
-3.66071e-05
-2.72678e-05
-3.701e-05
-4.20219e-05
-3.11651e-05
-3.95633e-05
-3.83442e-05
-3.89008e-05
-3.83551e-05
-3.44051e-05
-3.18347e-05
-3.07455e-05
-3.77241e-05
-3.91893e-05
-3.08991e-05
-2.88414e-05
-4.71465e-06
1.15803e-05
-1.72489e-05
4.33334e-06
-4.00964e-05
0.000159873
-2.25084e-05
6.16214e-07
-2.07286e-06
1.0534e-05
-7.81059e-05
-4.80585e-06
5.04855e-05
-1.63923e-05
-1.17335e-05
-0.000101069
3.88995e-05
1.54783e-05
4.31851e-05
-1.91191e-05
6.22977e-05
-2.80547e-05
-7.09146e-06
-4.69292e-05
-1.96859e-05
-1.30082e-05
0.0010312
0.00112225
0.000655184
0.00091468
0.000777975
0.00122827
0.00101215
0.00115607
0.000770268
0.000871018
0.00100354
0.000869824
0.000807955
0.000601018
0.000832393
0.000860613
0.000758627
0.000633461
0.000763095
0.000482727
0.000930831
0.000799506
0.000807044
0.00055653
0.000628707
0.00138079
0.00189242
0.001754
0.00152396
0.00125183
0.00179065
0.00163955
0.00190322
0.00153286
0.00154211
0.00171027
0.0016559
0.00181529
0.00128674
0.00177773
0.00185472
0.00126977
0.00123356
0.00140319
0.00122812
0.00162395
0.00133262
0.0014842
0.00174389
0.00184016
0.00232432
0.00227407
0.00243177
0.00241429
0.00250501
0.00214624
0.00227679
0.00264561
0.00210712
0.00220457
0.00236802
0.00242355
0.0025346
0.00285765
0.00213961
0.0024613
0.00249378
0.00220692
0.00241711
0.00254378
0.00290262
0.00262053
0.00241095
0.00299944
0.00223758
0.00285108
0.00258623
0.00309597
0.00380945
0.00400572
0.00293545
0.00352913
0.00315654
0.0036825
0.00391065
0.00274137
0.00278744
0.00318098
0.00387513
0.00338222
0.00281853
0.00313215
0.00337887
0.0034871
0.00334934
0.00304123
0.00310051
0.0038481
0.00349305
0.00333654
0.00423452
0.00465416
0.00395672
0.00440811
0.00444701
0.00427227
0.00469981
0.00393089
0.00437325
0.00461002
0.0037069
0.00405674
0.00402663
0.00428661
0.00439263
0.00355576
0.00399853
0.00404921
0.00450148
0.00428879
0.00402386
0.00439237
0.00417948
0.00378049
0.00491445
0.00522394
0.00517778
0.00453632
0.0048386
0.00463665
0.00484701
0.00509661
0.00483583
0.00490156
0.00489144
0.00517356
0.00507021
0.00462045
0.00481683
0.00474666
0.00473706
0.0048537
0.00471345
0.00494893
0.00517336
0.00491313
0.00552766
0.0044616
0.00503267
0.00500805
0.00559154
0.00572229
0.00552878
0.00538641
0.00523606
0.005458
0.00555537
0.00537794
0.00539011
0.00533385
0.00564
0.00559234
0.00597829
0.00545538
0.00523185
0.00534064
0.00532665
0.00537522
0.00532567
0.00530867
0.00453731
0.00468305
0.00532406
0.00555931
0.00531728
0.00632589
0.0059966
0.00652855
0.00621891
0.00583643
0.00625925
0.00579328
0.0050951
0.00579498
0.00572684
0.00644358
0.00607766
0.00616496
0.00599484
0.00594399
0.00674222
0.00604585
0.00611631
0.0059994
0.00575272
0.00602196
0.00578123
0.00582048
0.00585695
0.006213
0.00634406
0.00616241
0.00622293
0.00616873
0.00620212
0.00650225
0.00613838
0.00647782
0.00626345
0.0059659
0.00639105
0.00638628
0.00620497
0.00642671
0.00624482
0.00638207
0.00635042
0.00637125
0.00640915
0.0064227
0.006286
0.00637583
0.00619694
0.00661129
0.00674551
0.00648445
0.00706569
0.00694701
0.00693393
0.00673162
0.0070273
0.00695008
0.00699312
0.00695977
0.00695078
0.00647834
0.00680123
0.00638015
0.00693306
0.00659279
0.00664629
0.00685004
0.00656575
0.00679903
0.00677908
0.00717478
0.00683777
0.00662447
0.00676852
0.00680881
0.0070565
0.00707611
0.00701878
0.007067
0.00703836
0.00700117
0.00702566
0.00702214
0.0070553
0.00704582
0.00704914
0.00704076
0.00701361
0.00704083
0.00699467
0.00705329
0.00704262
0.00701738
0.00703906
0.00701503
0.00706434
0.00706149
0.00700447
0.00699608
0.00702533
0.00699421
0.00698141
0.00698084
0.00695918
0.00698914
0.00696752
0.0069811
0.00698544
0.00697892
0.00698439
0.00697908
0.00697017
0.0069803
0.00696269
0.00697962
0.00698747
0.00698688
0.00699923
0.00698303
0.0069941
0.00701189
0.00700937
0.00700584
0.00699397
0.0070073
0.00700228
0.00700324
0.00700373
0.0070005
0.00699837
0.00700012
0.00699872
0.00700045
0.00699909
0.00699731
0.00700613
0.00700288
0.0069998
0.0069957
0.00699628
0.00700531
0.0070035
0.00700051
0.00699537
0.00699693
0.00701278
0.00700873
0.00700139
0.0069927
0.00699685
0.00699361
0.00699145
0.00699503
0.00698815
0.00699669
0.00699261
0.00699287
0.00699524
0.0069911
0.00699606
0.00699635
0.00699411
0.00699767
0.00699122
0.00699762
0.00699817
0.00699692
0.00700041
0.00699629
0.00700021
0.00700564
0.00700447
0.00700473
0.00700117
0.00700368
0.00699947
0.00699834
0.00699974
0.00699674
0.00699888
0.00699917
0.00699822
0.00699936
0.00699712
0.00699889
0.00700149
0.00700006
0.00700078
0.00699746
0.00700005
0.0070014
0.00700061
0.0070017
0.0069992
0.00700141
0.00700545
0.00700436
0.00700468
0.00700196
0.00700344
0.00700027
0.00699955
0.00700043
0.0069984
0.00700016
0.0070003
0.0069998
0.00700051
0.00699901
0.00700036
0.00700184
0.0070011
0.00700177
0.00699973
0.00700125
0.00700224
0.0070017
0.00700242
0.00700096
0.00700233
0.00700493
0.00700431
0.00700471
0.00700311
0.007004
0.0070013
0.00700089
0.00700133
0.00700022
0.00700113
0.00700142
0.00700111
0.00700148
0.00700061
0.00700138
0.00700246
0.00700204
0.00700241
0.00700129
0.00700205
0.00700286
0.00700254
0.00700299
0.00700215
0.0070029
0.00700476
0.00700439
0.00700463
0.00700371
0.00700417
0.0070021
0.0070019
0.00700205
0.00700151
0.0070019
0.00700225
0.00700207
0.00700222
0.00700178
0.00700212
0.00700295
0.00700277
0.00700289
0.00700232
0.00700263
0.00700335
0.00700317
0.0070034
0.00700296
0.0070033
0.00700473
0.00700452
0.00700456
0.00700406
0.00700423
0.00700272
0.00700264
0.00700265
0.00700241
0.00700251
0.00700285
0.00700277
0.0070028
0.00700261
0.00700269
0.00700339
0.00700328
0.00700327
0.00700301
0.00700308
0.00700368
0.00700361
0.00700371
0.00700351
0.00700359
0.00700463
0.00700453
0.00700451
0.00700426
0.00700427
0.0070032
0.00700316
0.00700313
0.00700303
0.00700301
0.00700331
0.00700327
0.00700326
0.00700317
0.00700316
0.00700367
0.00700362
0.00700358
0.00700347
0.00700344
0.00700396
0.00700393
0.00700394
0.00700385
0.00700383
0.00700458
0.00700453
0.00700449
0.00700437
0.00700433
0.00700355
0.00700353
0.0070035
0.00700345
0.00700341
0.00700365
0.00700363
0.00700361
0.00700356
0.00700352
0.00700389
0.00700387
0.00700383
0.00700377
0.00700373
0.00700415
0.00700413
0.00700411
0.00700407
0.00700403
0.00700455
0.00700453
0.00700449
0.00700443
0.00700438
0.00700382
0.0070038
0.00700378
0.00700375
0.00700372
0.0070039
0.00700388
0.00700386
0.00700383
0.0070038
0.00700406
0.00700405
0.00700402
0.00700399
0.00700395
0.00700427
0.00700426
0.00700424
0.00700421
0.00700417
0.00700455
0.00700453
0.00700451
0.00700447
0.00700443
0.00700402
0.00700401
0.00700399
0.00700397
0.00700394
0.00700408
0.00700407
0.00700405
0.00700403
0.007004
0.00700419
0.00700418
0.00700417
0.00700414
0.00700412
0.00700435
0.00700434
0.00700433
0.0070043
0.00700428
0.00700455
0.00700454
0.00700452
0.0070045
0.00700447
0.00700416
0.00700415
0.00700414
0.00700413
0.00700411
0.00700421
0.0070042
0.00700419
0.00700417
0.00700415
0.00700429
0.00700429
0.00700427
0.00700426
0.00700424
0.00700441
0.0070044
0.00700439
0.00700437
0.00700435
0.00700455
0.00700455
0.00700453
0.00700452
0.00700449
0.00700427
0.00700426
0.00700425
0.00700424
0.00700423
0.0070043
0.0070043
0.00700429
0.00700427
0.00700426
0.00700436
0.00700436
0.00700435
0.00700434
0.00700432
0.00700445
0.00700445
0.00700444
0.00700443
0.00700441
0.00700456
0.00700455
0.00700454
0.00700453
0.00700451
0.00700435
0.00700434
0.00700434
0.00700433
0.00700432
0.00700437
0.00700437
0.00700436
0.00700435
0.00700434
0.00700442
0.00700441
0.00700441
0.0070044
0.00700439
0.00700448
0.00700448
0.00700447
0.00700446
0.00700445
0.00700456
0.00700455
0.00700455
0.00700454
0.00700453
0.0070044
0.0070044
0.0070044
0.00700439
0.00700438
0.00700442
0.00700442
0.00700441
0.00700441
0.0070044
0.00700446
0.00700445
0.00700445
0.00700444
0.00700443
0.0070045
0.0070045
0.0070045
0.00700449
0.00700448
0.00700456
0.00700456
0.00700455
0.00700454
0.00700454
0.00700445
0.00700444
0.00700444
0.00700444
0.00700443
0.00700446
0.00700446
0.00700445
0.00700445
0.00700444
0.00700448
0.00700448
0.00700448
0.00700447
0.00700447
0.00700452
0.00700452
0.00700451
0.00700451
0.0070045
0.00700456
0.00700456
0.00700455
0.00700455
0.00700454
0.00700448
0.00700448
0.00700447
0.00700447
0.00700447
0.00700449
0.00700449
0.00700448
0.00700448
0.00700448
0.00700451
0.0070045
0.0070045
0.0070045
0.00700449
0.00700453
0.00700453
0.00700453
0.00700452
0.00700452
0.00700456
0.00700456
0.00700456
0.00700455
0.00700455
0.0070045
0.0070045
0.0070045
0.00700449
0.00700449
0.00700451
0.00700451
0.0070045
0.0070045
0.0070045
0.00700452
0.00700452
0.00700452
0.00700451
0.00700451
0.00700454
0.00700454
0.00700454
0.00700453
0.00700453
0.00700456
0.00700456
0.00700456
0.00700455
0.00700455
0.00700452
0.00700452
0.00700451
0.00700451
0.00700451
0.00700452
0.00700452
0.00700452
0.00700452
0.00700451
0.00700453
0.00700453
0.00700453
0.00700453
0.00700452
0.00700455
0.00700454
0.00700454
0.00700454
0.00700454
0.00700456
0.00700456
0.00700456
0.00700456
0.00700455
0.00700453
0.00700453
0.00700453
0.00700452
0.00700452
0.00700453
0.00700453
0.00700453
0.00700453
0.00700453
0.00700454
0.00700454
0.00700454
0.00700454
0.00700453
0.00700455
0.00700455
0.00700455
0.00700455
0.00700454
0.00700456
0.00700456
0.00700456
0.00700456
0.00700456
0.00700454
0.00700454
0.00700453
0.00700453
0.00700453
0.00700454
0.00700454
0.00700454
0.00700454
0.00700454
0.00700454
0.00700454
0.00700454
0.00700454
0.00700454
0.00700455
0.00700455
0.00700455
0.00700455
0.00700455
0.00700456
0.00700456
0.00700456
0.00700456
0.00700456
0.00700454
0.00700454
0.00700454
0.00700454
0.00700454
0.00700454
0.00700454
0.00700454
0.00700454
0.00700454
0.00700455
0.00700455
0.00700455
0.00700455
0.00700455
0.00700455
0.00700455
0.00700455
0.00700455
0.00700455
0.00700456
0.00700456
0.00700456
0.00700456
0.00700456
0.00700455
0.00700455
0.00700455
0.00700454
0.00700454
0.00700455
0.00700455
0.00700455
0.00700455
0.00700455
0.00700455
0.00700455
0.00700455
0.00700455
0.00700455
0.00700455
0.00700455
0.00700455
0.00700455
0.00700455
0.00700456
0.00700456
0.00700456
0.00700456
0.00700456
0.00700455
0.00700455
0.00700455
0.00700455
0.00700455
0.00700455
0.00700455
0.00700455
0.00700455
0.00700455
0.00700455
0.00700455
0.00700455
0.00700455
0.00700455
0.00700456
0.00700456
0.00700455
0.00700455
0.00700455
0.00700456
0.00700456
0.00700456
0.00700456
0.00700456
0.00700455
0.00700455
0.00700455
0.00700455
0.00700455
0.00700455
0.00700455
0.00700455
0.00700455
0.00700455
0.00700455
0.00700455
0.00700455
0.00700455
0.00700455
0.00700456
0.00700456
0.00700456
0.00700455
0.00700455
0.00700456
0.00700456
0.00700456
0.00700456
0.00700456
0.00700455
0.00700455
0.00700455
0.00700455
0.00700455
0.00700455
0.00700455
0.00700455
0.00700455
0.00700455
0.00700456
0.00700456
0.00700455
0.00700455
0.00700455
0.00700456
0.00700456
0.00700456
0.00700456
0.00700456
0.00700456
0.00700456
0.00700456
0.00700456
0.00700456
0.00700456
0.00700456
0.00700455
0.00700455
0.00700455
0.00700456
0.00700456
0.00700456
0.00700455
0.00700455
0.00700456
0.00700456
0.00700456
0.00700456
0.00700455
0.00700456
0.00700456
0.00700456
0.00700456
0.00700456
0.00700456
0.00700456
0.00700456
0.00700456
0.00700456
0.00700456
0.00700456
0.00700456
0.00700456
0.00700455
0.00700456
0.00700456
0.00700456
0.00700456
0.00700456
0.00700456
0.00700456
0.00700456
0.00700456
0.00700456
0.00700456
0.00700456
0.00700456
0.00700456
0.00700456
0.00700456
0.00700456
0.00700456
0.00700456
0.00700456
0.00700456
0.00700456
0.00700456
0.00700456
0.00700456
0.00700456
0.00700456
0.00700456
0.00700456
0.00700456
0.00700456
0.00700456
0.00700456
0.00700456
0.00700456
0.00700456
0.00700456
0.00700456
0.00700456
0.00700456
0.00700456
0.00700456
0.00700456
0.00700456
0.00700456
0.00700456
0.00700456
0.00700456
0.00700456
0.00700456
0.00700456
0.00700456
0.00700456
0.00700456
0.00700456
0.00700456
0.00700456
0.00700456
0.00700456
0.00700456
0.00700456
0.00700456
0.00700456
0.00700456
0.00700456
0.00700456
0.00700456
0.00700456
0.00700456
0.00700456
0.00700456
0.00700456
0.00700456
0.00700456
0.00700456
0.00700456
0.00700456
0.00700456
0.00700456
0.00700456
0.00700456
0.00700456
0.00700456
0.00700456
0.00700456
0.00700456
0.00700456
0.00700456
0.00700456
0.00700456
0.00700456
0.00700456
0.00700456
0.00700456
0.00700456
0.00700456
0.00700456
0.00700456
0.00700456
0.00700456
0.00700456
0.00700456
0.00700456
0.00700456
0.00700456
0.00700456
0.00700456
0.00700456
0.00700456
0.00700456
0.00700456
0.00700456
0.00700456
0.00700456
0.00700456
0.00700456
0.00700456
0.00700456
0.00700456
0.00700456
0.00700456
0.00700456
0.00700456
0.00700456
0.00700456
0.00700456
0.00700456
0.00700456
0.00700456
0.00700456
0.00700456
0.00700456
0.00700456
0.00700456
0.00700456
0.00700456
0.00700456
0.00700456
0.00700456
0.00700456
0.00700456
0.00700456
0.00700456
0.00700456
0.00700456
0.00700456
0.00700456
0.00700456
0.00700456
0.00700456
0.00700456
0.00700456
0.00700456
0.00700456
0.00700456
0.00700456
0.00700456
0.00700456
0.00700456
0.00700456
0.00700456
0.00700456
0.00700456
0.00700456
0.00700456
0.00700456
0.00700456
0.00700456
0.00700456
0.00700456
0.00700456
0.00700456
0.00700456
0.00700456
0.00700456
0.00700456
0.00700456
0.00700456
0.00700456
0.00700456
0.00700456
0.00700456
0.00700456
0.00700456
0.00700456
0.00700456
0.00700456
0.00700456
0.00700456
0.00700456
0.00700456
0.00700456
0.00700456
0.00700456
0.00700456
0.00700456
0.00700456
0.00700456
0.00700456
0.00700456
0.00700456
0.00700456
0.00700456
0.00700456
0.00700456
0.00700456
0.00700456
0.00700456
0.00700456
0.00700456
0.00700456
0.00700456
0.00700456
0.00700456
0.00700456
0.00700456
0.00700456
0.00700456
0.00700456
0.00700456
0.00700456
0.00700456
0.00700456
0.00700456
0.00700456
0.00700456
0.00700456
0.00700456
0.00700456
0.00700456
0.00700456
0.00700456
0.00700456
0.00700456
0.00700456
0.00700456
0.00700456
0.00700456
0.00700456
0.00700456
0.00700457
0.00700457
0.00700456
0.00700456
0.00700456
)
;

boundaryField
{
    inlet
    {
        type            zeroGradient;
    }
    outlet
    {
        type            fixedValue;
        value           uniform 0;
    }
    repeat_boundary
    {
        type            zeroGradient;
    }
    procBoundary0to1
    {
        type            processor;
        value           nonuniform List<scalar> 
450
(
-2.41662e-10
-2.29632e-10
-1.84973e-10
-1.44727e-10
-1.62118e-10
-7.25634e-10
-6.86793e-10
-5.31371e-10
-3.58234e-10
-2.74968e-10
-1.09961e-09
-1.0112e-09
-7.5258e-10
-4.45863e-10
-2.12057e-10
-1.19068e-09
-1.08253e-09
-8.32777e-10
-5.40477e-10
-3.79155e-10
-1.01528e-09
-9.57731e-10
-8.17259e-10
-6.52533e-10
-6.72219e-10
-7.53036e-10
-7.44739e-10
-6.73335e-10
-5.73781e-10
-5.94465e-10
-5.14529e-10
-4.98139e-10
-3.90077e-10
-2.42146e-10
-1.1243e-10
-2.92419e-10
-2.27813e-10
-1.01533e-11
2.43123e-10
4.89756e-10
5.45336e-11
1.95947e-10
5.25472e-10
8.75368e-10
1.1829e-09
7.31619e-10
9.14046e-10
1.23094e-09
1.56273e-09
1.8216e-09
1.70022e-09
1.80668e-09
1.95226e-09
2.1214e-09
2.18822e-09
2.71808e-09
2.72412e-09
2.69477e-09
2.67639e-09
2.56361e-09
3.72846e-09
3.71505e-09
3.58941e-09
3.41243e-09
3.14665e-09
4.7216e-09
4.6734e-09
4.47534e-09
4.16923e-09
3.71665e-09
5.50939e-09
5.39173e-09
5.19169e-09
4.8982e-09
4.4736e-09
6.17027e-09
6.07296e-09
5.94794e-09
5.7753e-09
5.58185e-09
7.09917e-09
7.03145e-09
6.88949e-09
6.73697e-09
6.56867e-09
8.41057e-09
8.27142e-09
8.03305e-09
7.82372e-09
7.47564e-09
1.00936e-08
9.92593e-09
9.66601e-09
9.39713e-09
8.802e-09
1.24092e-08
1.22733e-08
1.19779e-08
1.15306e-08
1.05935e-08
1.547e-08
1.52694e-08
1.48428e-08
1.41657e-08
1.30773e-08
1.92491e-08
1.89718e-08
1.84179e-08
1.75766e-08
1.65313e-08
2.41246e-08
2.38178e-08
2.312e-08
2.20745e-08
2.08116e-08
3.05917e-08
3.01838e-08
2.93732e-08
2.81304e-08
2.64194e-08
3.92591e-08
3.8808e-08
3.7995e-08
3.65745e-08
3.44869e-08
5.13952e-08
5.09099e-08
4.98425e-08
4.80412e-08
4.56745e-08
6.80945e-08
6.72239e-08
6.55536e-08
6.33084e-08
6.06424e-08
8.99475e-08
8.86356e-08
8.64312e-08
8.38899e-08
8.09249e-08
1.17738e-07
1.16436e-07
1.13905e-07
1.11437e-07
1.08329e-07
1.48918e-07
1.48908e-07
1.47386e-07
1.47295e-07
1.45006e-07
1.74048e-07
1.78259e-07
1.80237e-07
1.89922e-07
1.92624e-07
1.83973e-07
1.98372e-07
2.02091e-07
2.3603e-07
2.48328e-07
1.64824e-07
2.09792e-07
2.00374e-07
2.92175e-07
3.04494e-07
8.98421e-08
2.11141e-07
1.55764e-07
3.61369e-07
3.60323e-07
-1.09632e-07
1.62691e-07
6.50324e-08
6.12661e-07
4.56818e-07
-5.61599e-07
-4.12192e-08
1.0446e-08
7.47661e-07
6.18372e-07
2.44201e-06
3.5348e-06
2.41596e-06
1.89424e-06
2.14777e-06
-7.01575e-06
-6.44217e-06