/*--------------------------------*- C++ -*----------------------------------*\
| =========                 |                                                 |
| \\      /  F ield         | OpenFOAM: The Open Source CFD Toolbox           |
|  \\    /   O peration     | Version:  5.x                                   |
|   \\  /    A nd           | Web:      www.OpenFOAM.org                      |
|    \\/     M anipulation  |                                                 |
\*---------------------------------------------------------------------------*/
FoamFile
{
    version     2.0;
    format      ascii;
    class       surfaceScalarField;
    location    "70000";
    object      phi;
}
// * * * * * * * * * * * * * * * * * * * * * * * * * * * * * * * * * * * * * //

dimensions      [0 3 -1 0 0 0 0];

internalField   nonuniform List<scalar> 
5825
(
-7.84454e-06
7.82634e-05
-1000
-3.86699e-05
6.91374e-05
-1000
-4.79088e-05
6.58907e-05
-1000
-4.99761e-05
6.52492e-05
-1000
6.06359e-05
-1000
-1.41739e-05
0.000114468
-1000
-4.25022e-05
0.000108518
-1000
-5.1116e-05
0.000107918
-1000
-4.87279e-05
0.000105347
-1000
9.54213e-05
-1000
-2.31831e-05
0.0001509
-1000
-4.48116e-05
0.000149082
-1000
-5.22702e-05
0.000147761
-1000
-5.3582e-05
0.00014772
-1000
0.000129055
-1000
-3.04744e-05
0.000168188
-1000
-4.42589e-05
0.000176302
-1000
-5.54217e-05
0.000175193
-1000
-5.95441e-05
0.000177337
-1000
0.000164873
-1000
-2.93558e-05
-999.999
-4.36758e-05
-999.999
-6.19672e-05
-999.999
-6.97611e-05
-1000
-1000
-3.08274e-05
0.000203251
-1000
-0.00011181
0.000183392
-1000
-0.000142357
0.000177046
-1000
-0.000147702
0.000171549
-1000
0.00016157
-1000
-4.93866e-05
0.000320372
-1000
-0.000120408
0.000308083
-1000
-0.000149841
0.000305447
-1000
-0.00015669
0.000295096
-1000
0.000268054
-1000
-6.59152e-05
0.000435344
-1000
-0.000123071
0.000433952
-1000
-0.000153836
0.000429537
-1000
-0.000175846
0.000415602
-1000
0.000365437
-1000
-7.5283e-05
0.000504945
-1000
-0.000126165
0.000528006
-1000
-0.000168485
0.000517823
-1000
-0.000205079
0.000498477
-1000
0.000478677
-1000
-6.09972e-05
-999.999
-0.000132242
-999.999
-0.000209949
-999.999
-0.000299877
-1000
-1000
-7.76272e-05
0.000343001
-1000
-0.000210125
0.000324182
-1000
-0.00028021
0.000315908
-1000
-0.000305952
0.000304218
-1000
0.000283865
-1000
-0.000100232
0.000587726
-1000
-0.000222747
0.000577021
-1000
-0.00029516
0.000569607
-1000
-0.000331373
0.000550259
-1000
0.000514162
-1000
-0.000113649
0.000823337
-1000
-0.000223934
0.000826149
-1000
-0.000311056
0.000816545
-1000
-0.000369232
0.000777268
-1000
0.000702765
-1000
-0.000113695
0.000992819
-1000
-0.000230858
0.00101883
-1000
-0.000340146
0.000997143
-1000
-0.000435364
0.000919787
-1000
0.000858873
-1000
-9.96459e-05
-999.999
-0.000256471
-999.999
-0.00041387
-999.999
-0.000641521
-1000
-1000
-0.000140162
0.000529322
-1000
-0.000333356
0.000509705
-1000
-0.000468316
0.000498079
-1000
-0.000525462
0.000480477
-1000
0.000459187
-1000
-0.000161212
0.000944408
-1000
-0.000349523
0.000934314
-1000
-0.00049054
0.000926108
-1000
-0.000556326
0.000899091
-1000
0.000860635
-1000
-0.000167458
0.00133323
-1000
-0.000359113
0.00133692
-1000
-0.000510128
0.00132291
-1000
-0.000598472
0.00126941
-1000
0.00119738
-1000
-0.000163378
0.00163049
-1000
-0.000378067
0.00164567
-1000
-0.00055095
0.00160904
-1000
-0.000685071
0.0015034
-1000
0.00136083
-1000
-0.000163035
-999.999
-0.000418102
-999.999
-0.000627468
-1000
-0.000891619
-1000
-1000
-0.000225247
0.000760847
-1000
-0.000489297
0.000743244
-1000
-0.000688464
0.000732356
-1000
-0.00077965
0.000715032
-1000
0.000696303
-1000
-0.00023959
0.00139948
-1000
-0.000507092
0.00139281
-1000
-0.000707803
0.00138336
-1000
-0.000805158
0.00135945
-1000
0.00133586
-1000
-0.000242459
0.00196648
-1000
-0.000518197
0.00196968
-1000
-0.000724591
0.00195326
-1000
-0.000833583
0.00190746
-1000
0.0018723
-1000
-0.000240343
0.00239045
-1000
-0.000539216
0.00238577
-1000
-0.000760433
0.00234792
-1000
-0.000893169
0.00225969
-1000
0.00215098
-1000
-0.00025109
-999.999
-0.00058086
-1000
-0.000812098
-1000
-0.00101615
-1000
-1000
-0.000328152
0.00104778
-1000
-0.000666031
0.00103899
-1000
-0.000924576
0.00103025
-1000
-0.00105786
0.00101993
-1000
0.00101122
-1000
-0.000336459
0.00197098
-1000
-0.000678815
0.00197051
-1000
-0.000936651
0.00196016
-1000
-0.00107112
0.001942
-1000
0.00193227
-1000
-0.000339889
0.0027454
-1000
-0.000689842
0.00274878
-1000
-0.000950552
0.0027314
-1000
-0.00108549
0.00269643
-1000
0.00269094
-1000
-0.000340266
0.00328101
-1000
-0.000708694
0.00327018
-1000
-0.000978366
0.00324245
-1000
-0.00111306
0.00318598
-1000
0.00312707
-1000
-0.000362032
-1000
-0.000744267
-1000
-0.00100441
-1000
-0.00118409
-1000
-1000
-0.000453579
0.00141832
-1000
-0.000866585
0.0014217
-1000
-0.00118828
0.00141927
-1000
-0.00137166
0.00141649
-1000
0.00141118
-1000.01
-0.000455342
0.00270733
-1000
-0.000872468
0.00271207
-1000
-0.00119423
0.0026982
-1000
-0.0013815
0.00267394
-1000
0.00264961
-1000
-0.00045686
0.00374317
-1000
-0.000886947
0.00374623
-1000
-0.00121785
0.00372176
-1000
-0.00140662
0.00367643
-1000
0.0036377
-1000
-0.000460167
0.00441418
-1000
-0.000911107
0.00440584
-1000
-0.00125642
0.00437631
-1000
-0.00144309
0.0043213
-1000
0.00427184
-1000
-0.00048527
-1000
-0.000951382
-1000
-0.00130548
-1000
-0.00152372
-1000
-1000
-0.000609323
0.00192117
-1000.01
-0.00112372
0.00193706
-1000.01
-0.00153215
0.00193863
-1000.01
-0.00177899
0.00193263
-1000.01
0.00191188
-1000.01
-0.000600316
0.00368682
-1000
-0.00112663
0.00369294
-1000
-0.00154176
0.00366776
-1000.01
-0.00180672
0.00361917
-1000.01
0.00355417
-1000.01
-0.000601966
0.00507759
-1000
-0.00115308
0.00507687
-1000
-0.00159059
0.00503388
-1000
-0.00187357
0.00495787
-1000
0.00485023
-1000.01
-0.000613359
0.00596204
-1000
-0.00119758
0.00594766
-1000
-0.00166427
0.00589349
-1000
-0.00196257
0.00580363
-1000
0.00568896
-1000
-0.000641127
-999.999
-0.00125459
-1000
-0.00175608
-1000
-0.00209769
-1000
-1000
-0.000810201
0.0026153
-1000.01
-0.0014964
0.00263608
-1000.01
-0.0020465
0.00263384
-1000.01
-0.00239212
0.00261448
-1000.01
0.00256946
-1000.01
-0.000799032
0.00500887
-1000.01
-0.00150517
0.00501155
-1000.01
-0.00207018
0.00497086
-1000.01
-0.0024469
0.00489574
-1000.01
0.0047985
-1000.01
-0.000807079
0.00688867
-1000
-0.00154759
0.00688127
-1000
-0.00214327
0.00681989
-1000.01
-0.00254789
0.0067171
-1000.01
0.00656646
-1000.01
-0.000830624
0.0080851
-1000
-0.00161485
0.00806164
-1000
-0.00224706
0.00798476
-1000
-0.00269364
0.00785841
-1000
0.00761478
-1000
-0.000869031
-999.999
-0.00168535
-999.999
-0.00235391
-1000
-0.00288422
-1000
-1000
-0.0010975
0.00356136
-1000.01
-0.00205408
0.00357871
-1000.01
-0.00282733
0.00356834
-1000.01
-0.00332777
0.00353773
-1000.01
0.00348408
-1000.01
-0.00109259
0.00679822
-1000.01
-0.00207304
0.00679704
-1000.01
-0.00286476
0.00674949
-1000.01
-0.00339303
0.00667002
-1000.01
0.0065792
-1000.01
-0.0011086
0.00934661
-1000.01
-0.00212277
0.0093376
-1000.01
-0.00293975
0.00927512
-1000.01
-0.00348786
0.0091773
-1000.01
0.00904941
-1000.01
-0.00114106
0.0109698
-1000
-0.00219311
0.0109496
-1000
-0.0030362
0.0108799
-1000
-0.00363536
0.0107596
-1000
0.0104487
-1000.01
-0.0011838
-999.998
-0.00225688
-999.999
-0.00310945
-1000
-0.00383796
-1000
-1000
-0.00151096
0.00484209
-1000.01
-0.00285655
0.00485376
-1000.01
-0.00395078
0.00483803
-1000.01
-0.0046739
0.00480811
-1000.02
0.00477013
-1000.02
-0.00151606
0.00922511
-1000.01
-0.00288331
0.00922648
-1000.01
-0.00399034
0.00918789
-1000.01
-0.00472456
0.00913509
-1000.01
0.00908841
-1000.02
-0.0015354
0.0126836
-1000.01
-0.00292378
0.0126848
-1000.01
-0.00403949
0.0126434
-1000.01
-0.00477255
0.0125925
-1000.01
0.0125474
-1000.01
-0.00156426
0.0148846
-1000
-0.00297122
0.0148867
-1000
-0.00408875
0.0148531
-1000
-0.00483993
0.0147999
-1000.01
0.0145944
-1000.01
-0.00159602
-999.998
-0.00300461
-999.998
-0.00410203
-999.999
-0.00495978
-1000
-1000
-0.00208409
0.00658041
-1000.02
-0.00396056
0.00658992
-1000.02
-0.00548461
0.00657423
-1000.02
-0.0065057
0.00655604
-1000.02
0.0065483
-1000.02
-0.00209701
0.0125248
-1000.02
-0.00398897
0.0125372
-1000.02
-0.00551619
0.0125199
-1000.02
-0.00652914
0.0125108
-1000.02
0.0125238
-1000.02
-0.00211306
0.0172223
-1000.01
-0.00400802
0.0172458
-1000.01
-0.00552504
0.0172386
-1000.01
-0.00651579
0.0172542
-1000.01
0.0173015
-1000.02
-0.00212843
0.0202161
-1000
-0.0040188
0.0202513
-1000
-0.00551142
0.0202637
-1000.01
-0.00647336
0.0202992
-1000.01
0.0202736
-1000.01
-0.00214071
-999.997
-0.00400907
-999.997
-0.00546277
-999.999
-0.00643855
-1000
-1000
-0.0028535
0.00894984
-1000.02
-0.00543988
0.00896168
-1000.02
-0.00752484
0.0089511
-1000.03
-0.00891648
0.00894811
-1000.03
0.00897047
-1000.03
-0.00287081
0.0170167
-1000.02
-0.00546553
0.017046
-1000.02
-0.00754602
0.017052
-1000.02
-0.008916
0.0170801
-1000.03
0.0171365
-1000.03
-0.00288035
0.0234051
-1000.01
-0.0054623
0.0234565
-1000.02
-0.00752
0.0234798
-1000.02
-0.00886009
0.0235393
-1000.02
0.023635
-1000.02
-0.00288214
0.0274942
-1000.01
-0.00544235
0.0275636
-1000.01
-0.007464
0.0276079
-1000.01
-0.00876037
0.0276857
-1000.01
0.027719
-1000.01
-0.00287496
-999.995
-0.00539984
-999.996
-0.00738194
-999.998
-0.00867885
-1000
-1000
-0.00387529
0.0121828
-1000.03
-0.00740783
0.0121994
-1000.03
-0.010225
0.0121956
-1000.04
-0.0120635
0.0122034
-1000.04
0.0122375
-1000.04
-0.0038966
0.0231343
-1000.03
-0.00743041
0.0231817
-1000.03
-0.010241
0.0232018
-1000.03
-0.0120595
0.0232456
-1000.04
0.0233089
-1000.04
-0.00390255
0.0318318
-1000.02
-0.00741456
0.0319085
-1000.02
-0.0101993
0.0319438
-1000.02
-0.011999
0.0320064
-1000.03
0.0320821
-1000.03
-0.00389897
0.0374287
-1000.01
-0.00738379
0.0375259
-1000.01
-0.0101405
0.0375683
-1000.01
-0.011922
0.0376198
-1000.01
0.0375887
-1000.02
-0.00388499
-999.993
-0.00734069
-999.995
-0.0100843
-999.997
-0.0119019
-1000
-1000.01
-0.0052429
0.0165851
-1000.04
-0.0100366
0.0166057
-1000.05
-0.0138237
0.0166049
-1000.05
-0.0162389
0.0166153
-1000.05
0.016639
-1000.06
-0.00527179
0.031467
-1000.04
-0.0100616
0.0315301
-1000.04
-0.0138449
0.0315516
-1000.04
-0.0162549
0.0315928
-1000.05
0.0316389
-1000.05
-0.00528201
0.0433118
-1000.03
-0.0100455
0.0434082
-1000.03
-0.0138052
0.0434357
-1000.03
-0.0162118
0.0434757
-1000.04
0.0435026
-1000.04
-0.0052855
0.0509568
-1000.01
-0.0100234
0.0510705
-1000.01
-0.0137687
0.0510822
-1000.01
-0.016187
0.0510816
-1000.02
0.0509783
-1000.03
-0.0052865
-999.99
-0.0100125
-999.992
-0.0137647
-999.996
-0.0162468
-1000
-1000.01
-0.00709754
0.0225669
-1000.06
-0.0135776
0.0225917
-1000.06
-0.0186724
0.0225901
-1000.07
-0.0218944
0.0225989
-1000.07
0.0226117
-1000.08
-0.00713943
0.042818
-1000.05
-0.0136119
0.0428991
-1000.05
-0.0187066
0.0429167
-1000.06
-0.0219328
0.0429497
-1000.06
0.0429803
-1000.07
-0.00715831
0.0589481
-1000.03
-0.0136007
0.059066
-1000.04
-0.0186756
0.0590777
-1000.04
-0.0219027
0.0590927
-1000.05
0.0590743
-1000.06
-0.00717532
0.0693517
-1000.01
-0.0135951
0.0694836
-1000.02
-0.0186634
0.0694603
-1000.02
-0.0219193
0.0694223
-1000.03
0.0692788
-1000.03
-0.00720131
-999.987
-0.0136248
-999.989
-0.0186999
-999.994
-0.0220217
-1000
-1000.01
-0.00962941
0.0306958
-1000.08
-0.0183772
0.0307349
-1000.08
-0.0252537
0.0307346
-1000.09
-0.0296101
0.030743
-1000.1
0.0307599
-1000.11
-0.00968127
0.0582871
-1000.07
-0.0184224
0.0583999
-1000.07
-0.0253044
0.058413
-1000.08
-0.0296616
0.0584335
-1000.09
0.0584513
-1000.1
-0.00970303
0.080257
-1000.05
-0.0184174
0.0804106
-1000.05
-0.0252871
0.0804049
-1000.06
-0.029644
0.0803929
-1000.07
0.0803257
-1000.08
-0.00973096
0.0944071
-1000.02
-0.0184305
0.0945797
-1000.02
-0.0253005
0.0945305
-1000.03
-0.0297062
0.0944572
-1000.04
0.0942622
-1000.05
-0.00977295
-999.982
-0.0184904
-999.985
-0.0253748
-999.992
-0.029864
-1000
-1000.01
-0.0130773
0.0417597
-1000.11
-0.0249012
0.041832
-1000.11
-0.0342124
0.0418349
-1000.12
-0.0401229
0.0418391
-1000.14
0.0418586
-1000.15
-0.0131284
0.0793659
-1000.09
-0.0249599
0.0795274
-1000.1
-0.0342888
0.0795286
-1000.11
-0.040197
0.0795231
-1000.12
0.0795083
-1000.13
-0.0131479
0.109299
-1000.06
-0.0249695
0.109507
-1000.07
-0.0342984
0.109476
-1000.08
-0.0402143
0.10942
-1000.09
0.109288
-1000.11
-0.013186
0.128592
-1000.02
-0.0250102
0.128828
-1000.03
-0.0343537
0.128752
-1000.04
-0.0403404
0.128614
-1000.05
0.128335
-1000.06
-0.0132409
-999.975
-0.0250996
-999.98
-0.0344911
-999.989
-0.0405881
-1000
-1000.02
-0.017763
0.0568201
-1000.15
-0.0337893
0.0569375
-1000.15
-0.0464204
0.0569363
-1000.17
-0.0544284
0.0569272
-1000.18
0.0569288
-1000.2
-0.017813
0.108044
-1000.13
-0.0338747
0.108264
-1000.13
-0.0465391
0.10824
-1000.15
-0.0545533
0.108194
-1000.16
0.10812
-1000.18
-0.017838
0.148824
-1000.09
-0.0339121
0.149101
-1000.09
-0.0465903
0.149029
-1000.11
-0.0546287
0.148909
-1000.12
0.14871
-1000.14
-0.0178952
0.175173
-1000.03
-0.033995
0.175484
-1000.04
-0.0467078
0.175362
-1000.05
-0.0548212
0.17513
-1000.07
0.174752
-1000.09
-0.017981
-999.966
-0.0341343
-999.973
-0.0469374
-999.986
-0.0551711
-1000
-1000.02
-0.0241539
0.0772753
-1000.2
-0.0459283
0.0774398
-1000.21
-0.0630675
0.0774283
-1000.23
-0.0738926
0.0774025
-1000.25
0.077372
-1000.28
-0.0242164
0.146975
-1000.17
-0.0460536
0.147265
-1000.18
-0.0632409
0.147212
-1000.2
-0.0740926
0.147122
-1000.22
0.146987
-1000.25
-0.0242588
0.202514
-1000.12
-0.0461232
0.202878
-1000.13
-0.0633356
0.202757
-1000.14
-0.0742253
0.202565
-1000.17
0.20231
-1000.19
-0.024347
0.238494
-1000.04
-0.0462589
0.238894
-1000.05
-0.0635214
0.238699
-1000.07
-0.074466
0.238367
-1000.09
0.237905
-1000.12
-0.0244853
-999.955
-0.0464787
-999.964
-0.0638542
-999.981
-0.0749054
-1000.01
-1000.03
-0.0329122
0.104989
-1000.27
-0.0625342
0.105214
-1000.29
-0.0857848
0.105205
-1000.31
-0.100388
0.105179
-1000.34
0.105129
-1000.38
-0.0329951
0.199748
-1000.23
-0.0626963
0.20014
-1000.25
-0.0860082
0.200076
-1000.27
-0.100666
0.199964
-1000.3
0.199804
-1000.34
-0.0330521
0.27536
-1000.16
-0.0627812
0.275854
-1000.17
-0.0861218
0.275688
-1000.2
-0.10082
0.275434
-1000.23
0.275132
-1000.27
-0.0331729
0.324489
-1000.06
-0.0629657
0.325013
-1000.07
-0.086363
0.324713
-1000.1
-0.101096
0.324266
-1000.13
0.323699
-1000.16
-0.0333752
-999.939
-0.0632983
-999.952
-0.0868097
-999.976
-0.101639
-1000.01
-1000.05
-0.0449454
0.142489
-1000.37
-0.0852865
0.142817
-1000.39
-0.116831
0.142852
-1000.42
-0.1365
0.142879
-1000.46
0.14288
-1000.52
-0.0450333
0.271229
-1000.32
-0.0854554
0.271793
-1000.33
-0.117067
0.271767
-1000.37
-0.136805
0.271697
-1000.41
0.271596
-1000.46
-0.0450761
0.374154
-1000.22
-0.0855029
0.374847
-1000.24
-0.117129
0.374661
-1000.27
-0.136892
0.374374
-1000.31
0.374034
-1000.36
-0.0452138
0.441286
-1000.08
-0.0857083
0.441988
-1000.1
-0.117392
0.441548
-1000.13
-0.137194
0.440936
-1000.17
0.440162
-1000.22
-0.0454967
-999.918
-0.0861868
-999.936
-0.117996
-999.968
-0.137937
-1000.01
-1000.06
-0.0615166
0.193176
-1000.5
-0.116557
0.193686
-1000.53
-0.159375
0.193853
-1000.57
-0.185813
0.194044
-1000.63
0.194239
-1000.7
-0.0615666
0.367943
-1000.43
-0.116661
0.368796
-1000.45
-0.159531
0.36892
-1000.5
-0.186022
0.369034
-1000.56
0.369151
-1000.63
-0.0615295
0.508025
-1000.3
-0.116554
0.509028
-1000.32
-0.15939
0.508889
-1000.36
-0.185868
0.508648
-1000.42
0.508344
-1000.49
-0.0616479
0.59988
-1000.11
-0.116708
0.600825
-1000.14
-0.159585
0.600227
-1000.18
-0.186108
0.599392
-1000.24
0.598338
-1000.31
-0.0620372
-999.89
-0.117353
-999.915
-0.160397
-999.958
-0.18712
-1000.02
-1000.09
-0.084451
0.261543
-1000.68
-0.15977
0.262367
-1000.71
-0.217942
0.262832
-1000.78
-0.253386
0.263404
-1000.86
0.264031
-1000.96
-0.0843792
0.498519
-1000.58
-0.159659
0.499863
-1000.62
-0.217821
0.500377
-1000.68
-0.253279
0.500983
-1000.76
0.501656
-1000.86
-0.0841282
0.689122
-1000.4
-0.159147
0.690623
-1000.44
-0.217145
0.69071
-1000.5
-0.25252
0.690733
-1000.58
0.69072
-1000.67
-0.0841367
0.815037
-1000.15
-0.159065
0.816332
-1000.19
-0.217033
0.815585
-1000.25
-0.252413
0.814506
-1000.33
0.813182
-1000.42
-0.0846421
-999.854
-0.159864
-999.887
-0.218069
-999.947
-0.253671
-1000.03
-1000.12
-0.116453
0.353419
-1000.92
-0.219964
0.354791
-1000.97
-0.299074
0.355904
-1001.05
-0.346464
0.357307
-1001.17
0.358864
-1001.3
-0.116084
0.674225
-1000.79
-0.219301
0.67644
-1000.84
-0.298237
0.677873
-1000.92
-0.345559
0.679659
-1001.04
0.681653
-1001.17
-0.115328
0.933478
-1000.55
-0.217829
0.935839
-1000.59
-0.296296
0.936574
-1000.68
-0.34338
0.9374
-1000.79
0.938289
-1000.92
-0.114991
1.10653
-1000.21
-0.217064
1.10837
-1000.26
-0.295292
1.10754
-1000.34
-0.342274
1.10628
-1000.45
1.10477
-1000.57
-0.115578
-999.807
-0.217944
-999.852
-0.296472
-999.934
-0.343671
-1000.04
-1000.17
-0.16157
0.476236
-1001.23
-0.304695
0.478614
-1001.3
-0.412293
0.481149
-1001.43
-0.475551
0.484349
-1001.59
0.487973
-1001.78
-0.160518
0.909546
-1001.06
-0.302714
0.913373
-1001.13
-0.409763
0.91689
-1001.25
-0.472709
0.921327
-1001.41
0.926326
-1001.59
-0.158615
1.26196
-1000.74
-0.29906
1.26587
-1000.81
-0.404987
1.26819
-1000.92
-0.467328
1.27104
-1001.08
1.27421
-1001.25
-0.157406
1.50061
-1000.29
-0.296624
1.5033
-1000.35
-0.401793
1.50263
-1000.47
-0.463762
1.50149
-1000.62
1.50022
-1000.79
-0.157968
-999.748
-0.297326
-999.81
-0.402776
-999.923
-0.464863
-1000.07
-1000.24
-0.225876
0.639266
-1001.64
-0.425727
0.643544
-1001.74
-0.571528
0.649201
-1001.93
-0.656532
0.656146
-1002.16
0.66434
-1002.43
-0.22332
1.22261
-1001.42
-0.42072
1.22951
-1001.52
-0.565274
1.23765
-1001.69
-0.649221
1.24776
-1001.92
1.25943
-1002.18
-0.218907
1.70111
-1001
-0.412242
1.70783
-1001.09
-0.554417
1.7138
-1001.26
-0.6368
1.72121
-1001.47
1.72978
-1001.71
-0.215735
2.03172
-1000.41
-0.406001
2.03577
-1000.49
-0.546306
2.03595
-1000.65
-0.627524
2.03565
-1000.85
2.03581
-1001.08
-0.216033
-999.677
-0.405839
-999.762
-0.54631
-999.916
-0.627146
-1000.11
-1000.34
-0.31829
0.853679
-1002.18
-0.602681
0.86146
-1002.32
-0.796668
0.874053
-1002.61
-0.915869
0.888265
-1002.93
0.906824
-1003.35
-0.31267
1.6351
-1001.89
-0.590893
1.64794
-1002.02
-0.782886
1.66633
-1002.29
-0.898384
1.68807
-1002.6
1.71478
-1002.99
-0.302914
2.2833
-1001.35
-0.571766
2.29524
-1001.47
-0.759452
2.30929
-1001.71
-0.87042
2.32635
-1002
2.34753
-1002.34
-0.295556
2.74502
-1000.57
-0.557173
2.75112
-1000.69
-0.740933
2.75383
-1000.91
-0.848167
2.75536
-1001.17
2.76009
-1001.48
-0.295229
-999.594
-0.554574
-999.708
-0.738873
-999.924
-0.843456
-1000.18
-1000.48
-0.450139
1.13236
-1002.86
-0.871907
1.14582
-1003.05
-1.11109
1.17476
-1003.55
-1.30454
1.20083
-1003.94
1.24539
-1004.68
-0.439167
2.17094
-1002.49
-0.844805
2.19516
-1002.67
-1.08402
2.23725
-1003.12
-1.26321
2.28096
-1003.5
2.34396
-1004.15
-0.418298
3.04462
-1001.8
-0.801675
3.06631
-1001.96
-1.03605
3.09817
-1002.34
-1.19989
3.13426
-1002.68
3.18628
-1003.23
-0.402297
3.70065
-1000.83
-0.769112
3.70895
-1000.96
-0.996614
3.71872
-1001.3
-1.14759
3.72123
-1001.61
3.73997
-1002.06
-0.40169
-999.501
-0.760372
-999.645
-0.99327
-999.961
-1.13111
-1000.29
-1000.69
-0.631597
1.49012
-1003.72
-1.30829
1.5083
-1003.88
-1.53253
1.58111
-1004.9
-1.92963
1.61493
-1005.16
1.73517
-1006.75
-0.612539
2.85286
-1003.24
-1.24636
2.89788
-1003.42
-1.48312
2.99936
-1004.3
-1.83311
3.07613
-1004.61
3.23744
-1005.94
-0.568397
4.01377
-1002.39
-1.14717
4.05399
-1002.53
-1.3885
4.12509
-1003.22
-1.68855
4.19569
-1003.5
4.33154
-1004.53
-0.534698
4.98507
-1001.26
-1.07652
4.99043
-1001.36
-1.30709
5.02326
-1001.97
-1.56481
5.01028
-1002.16
5.07657
-1002.94
-0.538281
-999.382
-1.05207
-999.53
-1.31531
-1000.04
-1.51688
-1000.39
-1000.99
-0.883686
1.94597
-1004.78
-2.05303
1.94628
-1004.65
-2.11466
2.14928
-1006.99
-2.97228
2.13431
-1006.43
2.48648
-1010.15
-0.851398
3.69821
-1004.14
-1.92052
3.77654
-1004.19
-2.01701
4.03845
-1006.09
-2.76292
4.13468
-1005.87
4.57369
-1008.81
-0.753099
5.17082
-1003.11
-1.68952
5.24708
-1003.07
-1.81933
5.39886
-1004.45
-2.45063
5.53113
-1004.27
5.9061
-1006.47
-0.682718
6.74697
-1002.16
-1.54269
6.71815
-1001.97
-1.63827
6.8388
-1003.32
-2.16582
6.71473
-1002.82
6.95657
-1004.42
-0.702137
-999.11
-1.48327
-999.167
-1.69623
-1000.13
-2.05257
-1000.3
-1001.37
-1.26439
2.52574
-1006.04
-3.30995
2.4075
-1005.02
-3.0155
2.98427
-1010.27
-4.67926
2.70957
-1007.48
3.71368
-1015.86
-1.22437
4.72713
-1005.12
-3.05587
4.84761
-1004.79
-2.83026
5.52337
-1008.86
-4.23845
5.56083
-1007.31
6.69679
-1013.51
-0.987729
6.40241
-1003.8
-2.51145
6.53922
-1003.24
-2.40425
6.85519
-1005.89
-3.62028
7.07027
-1004.56
8.03099
-1009.17
-0.84429
9.26218
-1004.17
-2.23382
9.10301
-1003.14
-1.9498
9.50532
-1006.25
-2.97387
8.9564
-1003.68
9.76795
-1007.13
-0.904934
-998.232
-2.12979
-998.005
-2.16615
-999.85
-2.83147
-999.473
-1001.72
-1.85237
3.25401
-1007.45
-5.42021
2.7456
-1004.19
-4.49125
4.27858
-1015.48
-7.50531
3.26504
-1007.73
5.86909
-1025.74
-1.88094
5.86885
-1005.85
-4.97785
6.05271
-1005
-4.18214
7.67025
-1013.04
-6.53751
7.53994
-1009.23
10.2597
-1021.2
-1.2655
7.56526
-1004.23
-3.64925
7.82083
-1002.62
-3.26312
8.46895
-1007.08
-5.40765
8.76417
-1003.64
10.8995
-1012.44
-1.01259
12.8825
-1008.48
-3.19426
12.4206
-1005.56
-2.11839
13.4403
-1012.3
-3.86364
11.8718
-1005.05
14.1516
-1012.16
-1.16549
-995.858
-3.06548
-995.054
-2.83429
-998.409
-4.02145
-996.77
-1001.75
-2.74937
4.18281
-1008.88
-9.03247
2.77245
-1000.68
-7.04348
6.57268
-1024.04
-12.3298
3.66045
-1006.1
10.0079
-1043.59
-3.1305
6.54903
-1005.09
-8.37923
6.8166
-1003.8
-6.57204
10.5595
-1018.84
-10.1889
10.1879
-1012.14
16.3991
-1033.61
-1.48065
8.4511
-1004.65
-4.98708
9.02354
-1001.32
-4.4672
10.0946
-1007.13
-8.20932
10.8546
-1000.57
14.9274
-1015.8
-1.15836
17.984
-1016.85
-4.49864
16.9413
-1010.14
-1.93076
18.9645
-1023.73
-4.57041
15.4016
-1006.95
20.8608
-1020.73
-1.48382
-990.485
-4.36582
-988.814
-3.8613
-994.373
-6.0434
-990.183
-1001.48
-4.16598
5.75308
-1010.47
-15.4667
1.91159
-991.293
-11.7173
11.5082
-1039.3
-20.7875
3.417
-1000.45
18.8397
-1077.88
-5.70783
5.05455
-998.679
-14.8766
5.50184
-998.22
-11.275
14.4363
-1025.37
-16.2715
13.6207
-1017.35
27.3095
-1052.96
-1.36377
8.5769
-1006.81
-5.95781
10.0889
-1001.31
-6.08021
11.3425
-1003.92
-12.6995
13.9421
-994.269
20.6515
-1017.79
-1.25685
25.3759
-1032.39
-6.24712
23.3465
-1018.41
-0.525301
26.2978
-1044.41
-4.31203
19.5148
-1008.74
30.6489
-1034.97
-1.89661
-978.821
-6.07382
-976.676
-5.65575
-984.653
-9.99557
-975.629
-1002.54
-7.09087
8.19754
-1011.57
-27.3242
-1.91169
-969.148
-20.7095
22.4399
-1068.35
-36.0146
0.995808
-986.141
39.044
-1148.09
-11.3966
-1.98483
-977.1
-27.8163
-1.44319
-982.269
-20.7021
19.4697
-1029.51
-26.4228
18.0671
-1028.7
47.374
-1080.59
-0.111134
6.89861
-1015.58
-4.64696
10.5379
-1008.76
-7.73901
10.8899
-992.244
-20.0538
19.6335
-983.521
27.7863
-1013.46
-1.33411
36.7097
-1060.87
-8.45952
33.2747
-1034.02
5.66714
34.9277
-1082.58
-1.2843
24.4449
-1006.6
44.8029
-1060.6
-2.70415
-953.75
-7.80133
-954.597
-8.87788
-962.547
-18.5505
-943.955
-1011.59
3.50444
24.0654
-1039.14
-28.4121
-17.6837
-919.548
-34.862
47.1123
-1109.01
-78.5619
-12.386
-930.055
108.421
-1323.15
-18.1199
-20.4813
-914.433
-40.1626
-29.0475
-948.862
-32.4257
26.6293
-1016.77
-45.99
23.6865
-1051.21
96.884
-1089.84
10.5391
3.50503
-1050.11
28.295
14.5189
-1070.08
7.73444
9.021
-954.075
-24.5885
34.8449
-962.356
39.9379
-975.704
9.01493
59.0251
-1125.41
5.99918
58.8374
-1075.32
34.5387
47.8991
-1149.99
13.6152
31.0678
-981.898
72.0898
-1114.86
3.1823
-896.761
14.1549
-923.944
-1.74289
-894.406
-24.766
-851.106
-1024.79
-36.5344
15.2952
-1017.9
-119.044
-28.052
-808.986
-73.1893
96.1043
-1250.97
-80.1014
-15.8511
-907.292
121.456
-1582.58
-51.0257
-50.5328
-797.579
-118.8
-42.2267
-866.913
-92.0901
34.5692
-981.94
-64.8822
40.2892
-1134.56
108.223
-1161.07
9.32184
-7.6764
-1102.29
-14.1024
6.68333
-1095.57
-34.505
-16.4894
-882.614
-73.4218
44.9728
-928.123
-0.94456
-926.145
-11.2832
84.8099
-1206.61
-41.9606
66.1891
-1104.15
4.35631
27.9926
-1240.79
-33.279
42.6885
-941.979
34.4097
-1192.75
-25.2898
-772.988
-59.2117
-834.806
-79.2713
-805.749
-125.163
-750.27
-1236.53
109.118
147.754
-1274.77
-17.0849
-174.19
-508.593
-173.547
255.419
-1349.93
-394.376
-189.287
-497.175
740.776
-2786.68
-116.261
-233.756
-299.809
-168.104
-323.324
-665.937
-138.116
41.6115
-798.121
-105.27
47.2942
-1403.98
368.736
-698.327
71.2543
-64.2949
-1343
313.098
52.9328
-1713.67
124.857
-64.7709
-587.991
-53.6153
202.551
-904.907
17.1388
-603.461
68.2697
229.106
-1568.28
95.6104
268.382
-1346.94
236.105
58.0168
-1504.07
133.703
47.815
-684.84
261.957
-1663.31
14.0271
-294.375
188.6
-776.974
67
-290.539
-76.1312
-169.058
-1415.77
-289.425
-122.281
-863.069
-504.511
36.208
-329.715
-9.55471
388.454
-2233.34
203.432
75.4938
-785.656
-170.821
-2560.65
-84.4511
-133.236
-204.403
-299.181
41.7898
-456.789
-324.902
132.684
-516.63
-121.05
158.939
-1691.28
173.824
-1600.59
106.209
24.2356
-1606.68
-206.562
-52.9408
-1306.17
-198.018
-59.375
-404.477
-173.208
38.116
-808.894
-169.772
-366.607
-50.5767
154.001
-1647.47
-174.527
-29.1515
-1246.78
-85.4122
-75.4185
-1577.15
-233.825
117.416
-615.728
-309.758
-1448.69
-92.6997
-201.829
-322.917
-537.281
-502.84
-126.333
-597.32
-207.508
-2644.56
0.853676
-0.1585
-863.764
28.4881
-0.955197
-356.394
-4.54161
3.16437
-2203.47
-151.615
-94.5733
-544.01
373.962
-3241.83
1.08166
-22.1608
-183.483
0.817146
-2.76518
-454.714
26.1511
0.55396
-539.353
79.0873
-10.0018
-1828.79
145.242
-1250.15
-36.1372
-38.4594
-1554.25
12.2115
19.7816
-1377.06
-9.06154
-14.4306
-368.219
-14.3669
25.5433
-839.134
-23.3037
-99.4962
23.8133
17.5971
-1727.34
8.96452
12.6264
-1224.77
42.6051
22.1499
-1647.37
-12.0097
5.94195
-541.512
332.709
-2009.02
0.951515
-172.772
1.48674
-541.244
8.45488
-6.96437
-4.65303
-172.197
-2510.7
-20.0744
-179.404
-664.285
337.417
99.3398
-813.225
26.0929
-413.6
-1478.55
188.876
128.967
-835.76
-231.673
-2920.55
80.8324
152.132
-595.851
4.00465
304.04
-582.587
346.299
114.658
-1409.91
101.501
232.632
-1687.66
0.128684
-1368.72
273.335
189.032
-1864.48
163.268
324.027
-1286.98
97.4309
132.46
-320.185
-7.35477
-37.6089
-464.106
360.163
-571.133
207.417
-32.4542
-1713.27
190.791
43.2538
-927.374
-30.0578
-28.4352
-1265.62
-127.41
26.6431
-508.412
99.6479
-1501.02
107.113
-160.769
71.6311
-512.388
3.8773
-354.885
-1.11209
-10.8755
-2189.27
-163.229
-212.154
-288.903
22.3372
198.086
-1196.88
464.283
-131.562
-1788.93
481.87
81.9318
-935.278
-761.291
-1323.54
121.234
-131.262
-797.977
-34.1738
22.7231
-251.816
516.68
21.8751
-2114.2
-200.435
150.115
-1038.72
-556.991
-1323.53
75.9044
-105.914
-1965.74
4.60482
117.36
-1310.32
48.6245
219.04
-561.369
-131.458
-73.5651
-60.3441
234.662
-1552.29
520.043
34.7605
-2373.99
94.8146
36.3214
-421.107
-71.293
-42.8519
-837.623
50.8003
-113.055
-591.015
-341.512
-9.869
6.01908
-11.6354
-62.9694
-401.104
-87.748
-357.487
-187.819
-30.1931
-2411.97
-65.7071
102.384
-325.58
-473.314
14.559
-803.829
-90.0213
-371.672
-1800.55
-54.3333
-15.052
-955.914
113.695
-1396.98
-58.6505
-209.975
-426.967
-28.16
-202.092
-65.6554
408.628
198.081
-3120.74
43.2753
-192.312
-496.112
-136.112
-111.858
-265.655
-985.058
-924.998
-414.894
-135.508
-1227.66
-194.382
301.228
-885.029
-61.9468
37.8212
-422.912
-251.293
-1039.93
-40.5801
-844.655
-2473.81
44.0498
-48.7036
-592.541
-63.2195
-3.57021
-425.555
-18.0096
-59.4767
-538.926
-319.168
-15.2668
100.548
-1514.09
89.1464
-307.355
-7.21714
-21.49
631.64
-892.164
-1499.25
41.2532
-7.03232
-359.801
-352.214
-135.477
-274.885
-936.924
-85.8708
-1129.97
-379.42
73.9326
-1587.35
29.3672
-1862.59
-16.0248
98.0001
-515.975
-135.396
30.2343
-111.996
-374.679
-76.8568
-2890.47
-0.760079
2.98653
-799.084
5.6328
-514.499
-44.0517
-135.558
-647.388
-290.244
-179.776
-771.46
-591.88
-65.5627
-594.687
52.3552
244.805
-1308.97
1.18708
-724.364
-702.012
-539.27
-1368.09
-297.583
-87.1385
-1089.61
-13.4523
-15.1343
-760.114
20.6596
50.5917
-378.825
0.83535
-18.4745
-117.703
-1829.96
-29.6964
-130.151
600.483
-1286.33
517.01
-735.12
-17.8045
-33.257
84.9707
-411.514
173.955
5.38006
-487.477
-433.956
51.338
-573.401
-204.497
222.579
-2039.39
-235.014
-1921.38
-184.794
167.363
-413.573
189.585
328.591
-809.585
-659.062
-8.25951
-1982.22
-431.99
262.433
-1066.01
449.924
-1973.25
-107.769
4.89406
-377.15
-72.9349
172.868
-650.572
-509.97
-24.4011
-141.51
-389.298
-49.5856
-1117.62
178.543
-1103.45
-254.097
-87.5515
-1021.54
-252.259
-53.1198
-865.456
-327.028
172.858
-882.605
1.16938
8.78217
-765.39
-0.0305875
-16.1081
-21.6971
-1739.07
204.025
-385.473
253.751
-1615.28
-5.26676
-266.427
-564.185
216.668
93.0408
-721.223
339.521
181.397
-791.727
-182.368
-23.2224
-28.2905
-58.2369
32.5018
-2196.02
-28.5082
-1793.98
-28.6644
-20.6585
-271.209
576.491
81.8598
-1315.2
163.737
97.3494
-1690.04
-81.4939
17.9601
-806.237
273.2
-2229.74
12.2006
173.318
-583.328
-0.275639
74.4116
-630.648
-17.7506
4.64549
-31.3309
137.147
-215.856
-1038.7
-88.4769
-768.647
-19.5915
-240.149
-588.485
57.0865
-19.6518
-848.072
-252.298
57.3539
-625.929
-173.675
-218.464
-841.406
76.3001
-680.743
-274.72
-1489.55
50.4971
-1207.25
-191.451
-1141.33
340.831
-1331.83
-925.487
-96.9615
24.9675
-649.229
20.7633
71.7777
-981.23
81.0008
-20.3767
-68.1516
199.795
45.2686
-2360.08
-78.6652
-1511.16
83.7983
-50.3912
-279.649
344.121
-53.6489
-1450.1
-163.232
-172.205
-1030.86
-101.792
30.0888
-852.498
60.0185
-2456.15
9.43379
237.942
-881.094
-93.09
89.7531
-671.526
362.343
164.367
-823.337
280.869
83.8259
-1010.97
-52.8907
-377.915
-19.3238
208.217
-539.436
77.6353
311.609
-1166.89
70.0367
166.736
-620.699
91.7067
-280.807
-498.442
-78.8799
-809.8
-168.828
-85.2369
-313.941
-887.824
97.8745
-1564.44
466.012
-1842.03
-504.23
55.9165
2.47597
-707.622
-177.172
53.8962
-802.037
420.575
42.8415
-708.74
644.545
412.634
-2996.69
-243.084
-519.568
437.215
-94.9129
-619.475
359.264
-277.928
-1040.33
-80.4958
-416.123
-132.136
485.1
-25.4617
-979.997
-484.817
-2109.99
180.959
-110.79
-1046.18
73.4164
-27.1326
-814.779
149.974
-221.72
-1094.3
17.5099
11.1868
-915.15
20.1439