FoamFile
{version 2.0; format ascii;class Cloud<passiveParticle>; location 0;object  positions;}
42
(
( 386.303 -486.307 99.8544 ) 0 
( 113.941 -410.042 99.8371 ) 0 
( 94.5562 -210.172 99.9184 ) 0 
( 288.215 -312.064 99.8129 ) 0 
( 104.078 -0.47731 99.9455 ) 0 
( 400.161 -324.21 264.883 ) 0 
( 461.384 -145.388 144.448 ) 0 
( 269.28 -113.065 99.858 ) 0 
( 40.6389 -329.882 267.66 ) 0 
( 201.456 -40.6557 273.369 ) 0 
( 219.051 -239.748 272.817 ) 0 
( 0.352285 -100.822 238.329 ) 0 
( 187.376 -404.897 380.828 ) 0 
( 90.1061 -224.68 430.263 ) 0 
( 63.1515 -26.5635 427.578 ) 0 
( 377.894 -130.248 325.318 ) 0 
( 329.988 -281.4 447.171 ) 0 
( 452.651 -136.753 510.64 ) 0 
( 243.119 -102.365 470.191 ) 0 
( 327.616 -480.418 501.734 ) 0 
( 432.172 -320.951 616.084 ) 0 
( 154.333 -393.94 577.568 ) 0 
( 102.137 -94.3653 611.688 ) 0 
( 38.2588 -269.9 682.904 ) 0 
( 255.389 -228.113 625.087 ) 0 
( 364.721 -81.2978 708.963 ) 0 
( 289.796 -411.216 723.551 ) 0 
( 165.755 -159.064 789.855 ) 0 
( 480.714 -467.412 743.203 ) 0 
( 343.668 -245.332 821.348 ) 0 
( 100.879 -428.954 786.653 ) 0 
( 255.52 -395.381 919.885 ) 0 
( 9.60164 -246.077 879.365 ) 0 
( 53.0165 -19.9685 878.836 ) 0 
( 233 -180.112 976.947 ) 0 
( 390.536 -39.4139 987.926 ) 0 
( 422.847 -235.977 1005.42 ) 0 
( 490.296 -410.365 934.572 ) 0 
( 90.5261 -355.767 1025.68 ) 0 
( 48.9703 -136.026 1041.63 ) 0 
( 323.762 -376.891 1106.98 ) 0 
( 175.697 -235.072 1160.49 ) 0 
)
