/*--------------------------------*- C++ -*----------------------------------*\
  =========                 |
  \\      /  F ield         | OpenFOAM: The Open Source CFD Toolbox
   \\    /   O peration     | Website:  https://openfoam.org
    \\  /    A nd           | Version:  9
     \\/     M anipulation  |
\*---------------------------------------------------------------------------*/
FoamFile
{
    format      ascii;
    class       surfaceScalarField;
    location    "1000";
    object      phi;
}
// * * * * * * * * * * * * * * * * * * * * * * * * * * * * * * * * * * * * * //

dimensions      [0 3 -1 0 0 0 0];

internalField   nonuniform List<scalar> 
1436
(
-1.89809e-05
8.24378e-05
-250.009
7.98439e-05
-250.013
-2.16853e-05
-249.989
-249.994
-4.28826e-05
0.000189462
-250.009
0.000184574
-250.013
-4.80806e-05
-249.989
-249.994
-7.06099e-05
0.00031466
-250.009
0.000305853
-250.014
-7.98959e-05
-249.988
-249.994
-9.95296e-05
0.000445776
-250.009
0.000432486
-250.014
-0.000113435
-249.988
-249.994
-0.0001295
0.000582973
-250.01
0.00056447
-250.015
-0.000148714
-249.987
-249.993
-0.000160776
0.000727871
-250.01
0.000703243
-250.015
-0.000186174
-249.986
-249.993
-0.000193653
0.000882352
-250.011
0.000850454
-250.016
-0.000226344
-249.985
-249.992
-0.000228446
0.00104843
-250.012
0.00100787
-250.018
-0.000269791
-249.983
-249.991
-0.000265488
0.00122826
-250.012
0.00117739
-250.019
-0.000317121
-249.982
-249.99
-0.000305134
0.00142417
-250.013
0.00136104
-250.02
-0.000368989
-249.98
-249.989
-0.00034777
0.0016387
-250.015
0.00156104
-250.022
-0.000426105
-249.978
-249.988
-0.000393812
0.00187459
-250.016
0.00177978
-250.024
-0.000489252
-249.975
-249.986
-0.000443713
0.0021349
-250.018
0.00201991
-250.027
-0.000559288
-249.972
-249.985
-0.000497962
0.00242295
-250.019
0.00228429
-250.029
-0.000637167
-249.969
-249.983
-0.00055709
0.00274243
-250.021
0.00257609
-250.032
-0.000723951
-249.966
-249.981
-0.000621667
0.00309745
-250.024
0.0028988
-250.036
-0.000820827
-249.962
-249.979
-0.000692308
0.00349254
-250.026
0.00325624
-250.04
-0.000929123
-249.957
-249.976
-0.000769669
0.00393278
-250.03
0.00365266
-250.044
-0.00105034
-249.952
-249.974
-0.000854453
0.00442382
-250.033
0.00409273
-250.049
-0.00118615
-249.946
-249.971
-0.000947402
0.00497196
-250.037
0.0045816
-250.054
-0.00133845
-249.94
-249.967
-0.0010493
0.00558426
-250.041
0.00512498
-250.06
-0.0015094
-249.933
-249.964
-0.00116098
0.00626861
-250.046
0.00572916
-250.067
-0.00170141
-249.925
-249.96
-0.0012833
0.00703385
-250.052
0.00640111
-250.075
-0.00191725
-249.916
-249.955
-0.00141714
0.0078899
-250.059
0.00714851
-250.083
-0.00216003
-249.906
-249.95
-0.00156343
0.00884787
-250.066
0.00797986
-250.093
-0.0024333
-249.894
-249.944
-0.00172309
0.00992023
-250.074
0.00890452
-250.103
-0.00274109
-249.882
-249.938
-0.00189704
0.011121
-250.083
0.00993285
-250.115
-0.00308799
-249.868
-249.931
-0.00208621
0.0124658
-250.093
0.0110763
-250.129
-0.00347921
-249.852
-249.924
-0.00229148
0.0139724
-250.105
0.0123474
-250.143
-0.0039207
-249.834
-249.915
-0.00251365
0.0156605
-250.118
0.0137601
-250.159
-0.00441921
-249.814
-249.906
-0.00275347
0.0175524
-250.133
0.0153297
-250.178
-0.00498245
-249.791
-249.895
-0.00301153
0.0196731
-250.15
0.0170731
-250.198
-0.0056192
-249.766
-249.884
-0.00328826
0.0220508
-250.168
0.0190088
-250.22
-0.00633945
-249.738
-249.871
-0.00358385
0.024717
-250.19
0.0211574
-250.245
-0.00715459
-249.706
-249.857
-0.00389818
0.0277072
-250.213
0.0235413
-250.272
-0.0080776
-249.67
-249.842
-0.00423076
0.0310614
-250.24
0.0261852
-250.303
-0.00912327
-249.63
-249.825
-0.0045806
0.0348244
-250.271
0.0291162
-250.336
-0.0103085
-249.585
-249.806
-0.00494607
0.0390467
-250.305
0.0323643
-250.374
-0.0116524
-249.534
-249.785
-0.0053248
0.0437851
-250.343
0.0359621
-250.415
-0.0131771
-249.477
-249.763
-0.00571341
0.0491034
-250.387
0.0399452
-250.461
-0.0149074
-249.413
-249.738
-0.00610735
0.0550736
-250.436
0.044353
-250.511
-0.016872
-249.341
-249.71
-0.00650054
0.0617766
-250.491
0.0492282
-250.567
-0.0191034
-249.26
-249.68
-0.00688505
0.0693033
-250.554
0.0546174
-250.628
-0.021639
-249.169
-249.647
-0.00725058
0.0777566
-250.624
0.0605715
-250.696
-0.0245212
-249.067
-249.611
-0.00758387
0.0872518
-250.704
0.0671459
-250.771
-0.0277986
-248.952
-249.572
-0.00786781
0.0979194
-250.794
0.0744007
-250.853
-0.0315269
-248.823
-249.529
-0.00808016
0.109906
-250.896
0.0824009
-250.944
-0.0357697
-248.677
-249.483
-0.00819144
0.123377
-251.011
0.0912169
-251.043
-0.0405998
-248.513
-249.432
-0.00816131
0.13852
-251.142
0.100925
-251.152
-0.0461005
-248.328
-249.378
-0.0079596
0.155546
-251.29
0.111605
-251.272
-0.0523672
-248.121
-249.319
-0.00757492
0.174692
-251.457
0.123347
-251.403
-0.0595092
-247.887
-249.255
-0.0070435
0.196227
-251.646
0.136242
-251.547
-0.0676517
-247.623
-249.187
-0.00646584
0.220454
-251.86
0.150392
-251.704
-0.0769382
-247.325
-249.113
-0.00592006
0.247714
-252.102
0.165905
-251.875
-0.0875332
-246.99
-249.035
-0.00457778
0.278386
-252.376
0.182899
-252.063
-0.099625
-246.612
-248.952
-0.00308675
0.312907
-252.686
0.201495
-252.268
-0.113429
-246.186
-248.864
-0.000544129
0.351765
-253.037
0.221822
-252.49
-0.129194
-245.705
-248.771
0.00325716
0.395515
-253.436
0.24401
-252.731
-0.147202
-245.163
-248.675
0.00836317
0.444791
-253.89
0.268193
-252.991
-0.167778
-244.55
-248.574
0.0127831
0.50031
-254.403
0.294502
-253.273
-0.191294
-243.859
-248.471
0.0197074
0.562862
-254.986
0.32309
-253.576
-0.218178
-243.078
-248.366
0.0285051
0.633357
-255.647
0.3541
-253.902
-0.248916
-242.196
-248.261
0.0391878
0.712822
-256.4
0.387671
-254.25
-0.28407
-241.199
-248.158
0.0521719
0.802419
-257.254
0.423939
-254.622
-0.324281
-240.072
-248.058
0.0679436
0.903461
-258.226
0.463033
-255.017
-0.370282
-238.798
-247.966
0.0870113
1.01743
-259.33
0.505069
-255.435
-0.422914
-237.358
-247.884
0.109992
1.14602
-260.586
0.550147
-255.875
-0.483139
-235.729
-247.817
0.137591
1.29111
-262.015
0.598345
-256.336
-0.552057
-233.886
-247.77
0.170634
1.45485
-263.641
0.649706
-256.815
-0.630928
-231.8
-247.752
0.210084
1.63968
-265.49
0.704236
-257.309
-0.721189
-229.439
-247.769
0.257054
1.84834
-267.596
0.761886
-257.814
-0.824485
-226.766
-247.831
0.312843
2.08394
-269.993
0.822542
-258.324
-0.942695
-223.739
-247.951
0.378951
2.34997
-272.722
0.886004
-258.831
-1.07796
-220.311
-248.143
0.457117
2.65041
-275.829
0.951965
-259.325
-1.23272
-216.428
-248.424
0.549363
2.9897
-279.368
1.01996
-259.796
-1.40976
-212.028
-248.814
0.658021
3.37299
-283.399
1.0892
-260.227
-1.61246
-207.043
-249.337
0.785339
3.80575
-287.99
1.15894
-260.601
-1.84444
-201.393
-250.023
0.932983
4.2843
-293.208
1.23059
-260.898
-2.10056
-195.008
-250.892
1.08654
4.7205
-299.015
1.2984
-261.11
-2.31947
-187.968
-251.914
1.11936
4.56592
-304.7
1.23522
-261.226
-2.22825
-181.173
-252.907
0.174082
0.821986
-305.696
0.206768
-261.258
-0.535596
-179.816
-253.235
-0.0677712
-0.0130523
-305.615
-0.00892129
-261.317
-0.131865
-179.697
-253.376
-4.81898
4.4025
-305.199
8.27144
-274.408
-0.544099
-174.75
-245.649
-1.44695
0.237813
-303.99
0.792848
-276.647
-0.269178
-174.243
-245.125
-3.65172
-2.11721
-298.22
-0.624945
-279.674
-1.90631
-174.454
-247.657
-1.62082
-0.455811
-296.144
0.501192
-281.796
-0.478169
-174.432
-247.634
-4.98794
-4.77589
-286.38
-0.191788
-286.592
-0.866925
-178.341
-248.692
-6.9149
-3.1164
-276.349
-5.26006
-288.247
-3.91184
-177.546
-257.864
1.25395
1.35543
-278.958
-2.09949
-284.894
-6.45531
-169.735
-266.419
10.6242
1.66628
-291.249
-7.61667
-266.653
-0.376904
-167.692
-274.412
4.03114
0.665837
-295.946
-6.82742
-255.794
-0.72697
-166.299
-281.967
12.9264
-4.84163
-304.031
-6.91282
-235.955
2.91283
-174.053
-285.967
2.9047
-2.0092
-304.926
-2.72359
-230.327
1.54089
-177.604
-287.15
5.84156
-4.4257
-306.342
-6.53444
-217.951
-1.09019
-180.939
-294.775
1.35548
-2.02294
-305.675
-6.99196
-209.604
1.6071
-184.569
-300.16
1.24615
-2.48636
-304.435
-1.62754
-206.73
0.717988
-187.773
-301.069
6.23688
-1.09747
-309.574
-11.8298
-188.663
0.970454
-189.842
-311.929
2.76581
-1.59814
-310.742
-0.0633617
-185.834
0.909829
-192.35
-311.082
0.29806
-0.493625
-310.547
-1.54623
-183.99
-1.25114
-191.592
-313.88
-1.72767
-0.89025
-307.929
1.36881
-187.087
-0.269891
-192.212
-312.781
-1.67244
-1.54258
-304.714
5.64299
-194.402
5.44315
-199.198
-301.695
-2.32827
-1.4659
-300.919
2.14154
-198.872
2.25006
-202.914
-297.303
-4.04015
-2.81903
-294.06
-0.215376
-202.697
2.74306
-208.476
-294.775
-2.56705
-1.42414
-290.069
-0.0167482
-205.247
3.55388
-213.455
-291.238
-3.24403
-1.37622
-285.448
1.72063
-210.212
2.81594
-217.646
-286.701
-2.84493
-2.01885
-280.584
2.66886
-215.725
2.50017
-222.165
-281.532
-2.41292
-1.9113
-276.26
2.52143
-220.659
2.12911
-226.205
-276.881
-2.06573
-1.6602
-272.534
2.17677
-224.901
1.81544
-229.68
-272.889
-1.77223
-1.42268
-269.34
1.8622
-228.535
1.54691
-232.649
-269.48
-1.52154
-1.21804
-266.6
1.59133
-231.647
1.31734
-235.184
-266.572
-1.30655
-1.04308
-264.251
1.35928
-234.313
1.12148
-237.348
-264.091
-1.12193
-0.893388
-262.235
1.16062
-236.595
0.954441
-239.196
-261.976
-0.963359
-0.765278
-260.507
0.990598
-238.549
0.812013
-240.773
-260.174
-0.827177
-0.655646
-259.024
0.845131
-240.221
0.690609
-242.119
-258.638
-0.710228
-0.561833
-257.752
0.720708
-241.652
0.587159
-243.268
-257.33
-0.6098
-0.481555
-256.661
0.614316
-242.876
0.499038
-244.248
-256.217
-0.523562
-0.412859
-255.724
0.523372
-243.922
0.424001
-245.085
-255.27
-0.44951
-0.35407
-254.921
0.445659
-244.818
0.360126
-245.799
-254.464
-0.385925
-0.303755
-254.231
0.379274
-245.583
0.305771
-246.409
-253.779
-0.331328
-0.260688
-253.639
0.322587
-246.237
0.259534
-246.929
-253.197
-0.28445
-0.22382
-253.131
0.274199
-246.795
0.220215
-247.373
-252.702
-0.244199
-0.192252
-252.695
0.232911
-247.272
0.186791
-247.752
-252.283
-0.209641
-0.165217
-252.32
0.197696
-247.679
0.158387
-248.075
-251.927
-0.179969
-0.142058
-251.998
0.167672
-248.027
0.134259
-248.352
-251.625
-0.154493
-0.122214
-251.722
0.142085
-248.324
0.113769
-248.588
-251.369
-0.132621
-0.105204
-251.484
0.120297
-248.576
0.0963764
-248.789
-251.153
-0.113842
-0.0906184
-251.28
0.101755
-248.792
0.0816173
-248.961
-250.97
-0.0977199
-0.0781075
-251.104
0.0859438
-248.976
0.0690967
-249.108
-250.815
-0.0838786
-0.0673713
-250.953
0.072545
-249.132
0.0584787
-249.234
-250.684
-0.0719982
-0.0581542
-250.823
0.0611886
-249.265
0.0494778
-249.342
-250.573
-0.0617989
-0.0502373
-250.711
0.0515507
-249.379
0.0418505
-249.434
-250.48
-0.0530431
-0.0434338
-250.614
0.0433287
-249.475
0.0353892
-249.513
-250.401
-0.0455254
-0.0375836
-250.531
0.0363305
-249.557
0.0299173
-249.581
-250.335
-0.0390715
-0.0325504
-250.46
0.0303873
-249.627
0.0252848
-249.639
-250.28
-0.0335313
-0.0282173
-250.398
0.0253335
-249.686
0.0213639
-249.688
-250.233
-0.0287768
-0.0244845
-250.345
0.0211931
-249.736
0.0180494
-249.731
-250.194
-0.0246979
-0.0212665
-250.299
0.01771
-249.778
0.01525
-249.767
-250.161
-0.0211969
-0.0184902
-250.259
0.0147549
-249.814
0.0128867
-249.799
-250.133
-0.0181921
-0.0160928
-250.225
0.0122485
-249.845
0.0108926
-249.826
-250.11
-0.0156132
-0.0140209
-250.195
0.0101221
-249.87
0.0092104
-249.849
-250.091
-0.0133993
-0.0122286
-250.17
0.00832076
-249.892
0.00779173
-249.869
-250.074
-0.0115019
-0.0106769
-250.147
0.00679552
-249.91
0.00659527
-249.886
-250.061
-0.00987321
-0.00933208
-250.128
0.0054713
-249.925
0.0055856
-249.901
-250.05
-0.00847267
-0.0081654
-250.112
0.00432972
-249.938
0.00473243
-249.914
-250.041
-0.0072668
-0.00715224
-250.097
0.00348415
-249.949
0.00400985
-249.925
-250.033
-0.00622797
-0.00627148
-250.085
0.00286234
-249.958
0.00339707
-249.934
-250.027
-0.00533326
-0.00550501
-250.074
0.00233565
-249.965
0.00287739
-249.942
-250.022
-0.00456293
-0.00483732
-250.064
0.00189052
-249.972
0.00243664
-249.95
-250.017
-0.00389939
-0.00425503
-250.056
0.00151525
-249.977
0.00206278
-249.956
-250.014
-0.00333415
-0.00374672
-250.049
0.00119979
-249.981
0.00174565
-249.961
-250.011
-0.00284798
-0.00330258
-250.043
0.000935403
-249.985
0.00147664
-249.966
-250.008
-0.0024299
-0.00291418
-250.037
0.000714551
-249.988
0.00124849
-249.97
-250.006
-0.00207055
-0.00257426
-250.032
0.000530722
-249.99
0.00105503
-249.973
-250.005
-0.0017618
-0.00227658
-250.028
0.000378272
-249.992
0.000891014
-249.976
-250.003
-0.00149661
-0.00201573
-250.025
0.000308605
-249.994
0.000751995
-249.979
-250.002
-0.00126941
-0.00178701
-250.022
0.000246771
-249.996
0.000634704
-249.981
-250.001
-0.00107529
-0.00158637
-250.019
0.000172244
-249.997
0.00053627
-249.984
-250
-0.000909944
-0.00141026
-250.016
0.000100564
-249.998
0.000453953
-249.985
-250
-0.000768649
-0.00125558
-250.014
3.74709e-05
-249.999
0.000385252
-249.987
-249.999
-0.000648147
-0.00111964
-250.012
-1.53703e-05
-249.999
0.000327925
-249.988
-249.999
-0.000549136
-0.00100008
-250.011
-5.80851e-05
-250
0.000279975
-249.99
-249.998
-0.00046617
-0.000894882
-250.009
-9.15622e-05
-250
0.000239632
-249.991
-249.998
-0.000395416
-0.000802271
-250.008
-0.000116971
-250
0.000205357
-249.992
-249.998
-0.000335025
-0.000720689
-250.007
-0.000135544
-250
0.000175857
-249.993
-249.998
-0.000283424
-0.000648768
-250.006
-0.000148475
-250.001
0.000150115
-249.994
-249.998
-0.00023929
-0.000585306
-250.005
-0.000156862
-250.001
0.000127427
-249.994
-249.998
-0.000201524
-0.000529257
-250.005
-0.000161631
-250.001
0.000107393
-249.995
-249.998
-0.000169231
-0.000479714
-250.004
-0.000163525
-250.001
8.98669e-05
-249.995
-249.998
-0.000141684
-0.000435899
-250.003
-0.000163399
-250.001
7.48355e-05
-249.996
-249.998
-0.000118293
-0.000397159
-250.003
-0.000161936
-250.001
6.22905e-05
-249.996
-249.998
-9.85563e-05
-0.000362961
-250.002
-0.000159655
-250.001
5.21075e-05
-249.997
-249.999
-8.20288e-05
-0.000332865
-250.002
-0.00015694
-250.001
4.39996e-05
-249.997
-249.999
-6.83025e-05
-0.000306529
-250.002
-0.000154055
-250.001
3.7608e-05
-249.998
-249.999
-5.7005e-05
-0.000283692
-250.001
-0.000151181
-250.001
3.25742e-05
-249.998
-249.999
-4.78062e-05
-0.000264157
-250.001
-0.000148431
-250
2.85897e-05
-249.998
-249.999
-4.04737e-05
-0.000247781
-250.001
-0.000145862
-250
2.54241e-05
-249.999
-249.999
-3.48955e-05
-0.000234505
-250.001
-0.000143453
-250
2.29132e-05
-249.999
-250
-3.15572e-05
-0.000224634
-250.001
-0.000140799
-250
2.11981e-05
-249.999
-250
-2.97854e-05
-0.000217624
-250
-0.000138219
-250
1.99802e-05
-250
-250
-3.14147e-05
-0.000218277
-0.000136835
2.08347e-05
)
;

boundaryField
{
    inlet
    {
        type            calculated;
        value           uniform -250;
    }
    outlet
    {
        type            calculated;
        value           nonuniform List<scalar> 4(250.009 249.989 250.013 249.994);
    }
    repeat_boundary
    {
        type            calculated;
        value           uniform 0;
    }
}


// ************************************************************************* //
