/*--------------------------------*- C++ -*----------------------------------*\
  =========                 |
  \\      /  F ield         | OpenFOAM: The Open Source CFD Toolbox
   \\    /   O peration     | Website:  https://openfoam.org
    \\  /    A nd           | Version:  9
     \\/     M anipulation  |
\*---------------------------------------------------------------------------*/
FoamFile
{
    format      ascii;
    class       volVectorField;
    location    "1000";
    object      U;
}
// * * * * * * * * * * * * * * * * * * * * * * * * * * * * * * * * * * * * * //

dimensions      [0 1 -1 0 0 0 0];

internalField   nonuniform List<vector> 
720
(
(-6.06966e-10 2.66118e-09 -0.00100003)
(-6.06966e-10 2.53564e-09 -0.00100005)
(-7.32505e-10 2.66118e-09 -0.000999957)
(-7.32505e-10 2.53564e-09 -0.000999978)
(-1.32072e-09 5.95718e-09 -0.00100004)
(-1.32072e-09 5.68097e-09 -0.00100005)
(-1.59692e-09 5.95717e-09 -0.000999956)
(-1.59692e-09 5.68097e-09 -0.000999977)
(-2.1703e-09 9.86532e-09 -0.00100004)
(-2.1703e-09 9.39298e-09 -0.00100005)
(-2.64264e-09 9.86532e-09 -0.000999955)
(-2.64264e-09 9.39298e-09 -0.000999976)
(-3.06357e-09 1.39671e-08 -0.00100004)
(-3.06357e-09 1.32879e-08 -0.00100006)
(-3.74283e-09 1.39671e-08 -0.000999953)
(-3.74283e-09 1.32879e-08 -0.000999975)
(-3.99543e-09 1.82568e-08 -0.00100004)
(-3.99543e-09 1.73586e-08 -0.00100006)
(-4.89357e-09 1.82568e-08 -0.00099995)
(-4.89357e-09 1.73586e-08 -0.000999974)
(-4.97493e-09 2.27837e-08 -0.00100004)
(-4.97493e-09 2.16507e-08 -0.00100006)
(-6.10792e-09 2.27837e-08 -0.000999946)
(-6.10792e-09 2.16507e-08 -0.000999971)
(-6.01301e-09 2.76064e-08 -0.00100004)
(-6.01301e-09 2.62175e-08 -0.00100006)
(-7.40193e-09 2.76064e-08 -0.000999942)
(-7.40193e-09 2.62175e-08 -0.000999969)
(-7.12111e-09 3.2788e-08 -0.00100004)
(-7.12111e-09 3.11159e-08 -0.00100007)
(-8.7932e-09 3.2788e-08 -0.000999937)
(-8.7932e-09 3.11159e-08 -0.000999966)
(-8.31115e-09 3.83967e-08 -0.00100005)
(-8.31115e-09 3.64068e-08 -0.00100007)
(-1.0301e-08 3.83967e-08 -0.000999931)
(-1.0301e-08 3.64068e-08 -0.000999962)
(-9.59557e-09 4.45063e-08 -0.00100005)
(-9.59557e-09 4.21554e-08 -0.00100008)
(-1.19465e-08 4.45063e-08 -0.000999923)
(-1.19465e-08 4.21554e-08 -0.000999958)
(-1.09875e-08 5.11977e-08 -0.00100006)
(-1.09875e-08 4.84322e-08 -0.00100009)
(-1.3753e-08 5.11977e-08 -0.000999915)
(-1.3753e-08 4.84322e-08 -0.000999953)
(-1.25008e-08 5.85595e-08 -0.00100006)
(-1.25008e-08 5.53139e-08 -0.00100009)
(-1.57464e-08 5.85595e-08 -0.000999906)
(-1.57464e-08 5.53139e-08 -0.000999948)
(-1.41502e-08 6.66891e-08 -0.00100007)
(-1.41502e-08 6.2884e-08 -0.0010001)
(-1.79553e-08 6.66891e-08 -0.000999895)
(-1.79553e-08 6.2884e-08 -0.000999942)
(-1.59516e-08 7.56943e-08 -0.00100007)
(-1.59516e-08 7.12341e-08 -0.00100011)
(-2.04118e-08 7.56943e-08 -0.000999883)
(-2.04118e-08 7.12341e-08 -0.000999935)
(-1.79219e-08 8.56946e-08 -0.00100008)
(-1.79219e-08 8.04651e-08 -0.00100012)
(-2.31515e-08 8.56946e-08 -0.00099987)
(-2.31515e-08 8.0465e-08 -0.000999928)
(-2.00794e-08 9.68226e-08 -0.00100009)
(-2.00794e-08 9.06877e-08 -0.00100014)
(-2.62142e-08 9.68226e-08 -0.000999854)
(-2.62142e-08 9.06877e-08 -0.00099992)
(-2.24437e-08 1.09226e-07 -0.0010001)
(-2.24437e-08 1.02025e-07 -0.00100015)
(-2.96446e-08 1.09226e-07 -0.000999837)
(-2.96446e-08 1.02025e-07 -0.00099991)
(-2.5036e-08 1.23068e-07 -0.00100011)
(-2.5036e-08 1.14611e-07 -0.00100017)
(-3.34927e-08 1.23068e-07 -0.000999818)
(-3.34927e-08 1.14611e-07 -0.0009999)
(-2.78793e-08 1.38534e-07 -0.00100013)
(-2.78793e-08 1.28598e-07 -0.00100018)
(-3.78147e-08 1.38533e-07 -0.000999797)
(-3.78148e-08 1.28598e-07 -0.000999889)
(-3.09981e-08 1.55826e-07 -0.00100014)
(-3.09981e-08 1.44151e-07 -0.00100021)
(-4.26739e-08 1.55826e-07 -0.000999772)
(-4.26739e-08 1.44151e-07 -0.000999876)
(-3.44187e-08 1.75176e-07 -0.00100016)
(-3.44188e-08 1.61453e-07 -0.00100023)
(-4.81416e-08 1.75176e-07 -0.000999745)
(-4.81416e-08 1.61453e-07 -0.000999862)
(-3.81694e-08 1.96839e-07 -0.00100018)
(-3.81694e-08 1.8071e-07 -0.00100025)
(-5.42982e-08 1.96839e-07 -0.000999715)
(-5.42982e-08 1.8071e-07 -0.000999846)
(-4.22799e-08 2.21102e-07 -0.0010002)
(-4.22799e-08 2.02147e-07 -0.00100028)
(-6.12348e-08 2.21101e-07 -0.000999681)
(-6.12348e-08 2.02147e-07 -0.000999829)
(-4.67819e-08 2.48287e-07 -0.00100022)
(-4.67819e-08 2.26014e-07 -0.00100032)
(-6.90545e-08 2.48287e-07 -0.000999643)
(-6.90545e-08 2.26014e-07 -0.00099981)
(-5.17082e-08 2.78756e-07 -0.00100025)
(-5.17082e-08 2.5259e-07 -0.00100035)
(-7.78742e-08 2.78755e-07 -0.0009996)
(-7.78742e-08 2.5259e-07 -0.000999789)
(-5.70933e-08 3.12914e-07 -0.00100028)
(-5.70933e-08 2.8218e-07 -0.00100039)
(-8.78267e-08 3.12914e-07 -0.000999553)
(-8.78267e-08 2.8218e-07 -0.000999765)
(-6.29723e-08 3.51217e-07 -0.00100031)
(-6.29723e-08 3.15126e-07 -0.00100044)
(-9.90629e-08 3.51217e-07 -0.000999499)
(-9.90629e-08 3.15126e-07 -0.000999739)
(-6.93809e-08 3.94177e-07 -0.00100035)
(-6.93809e-08 3.51803e-07 -0.00100049)
(-1.11754e-07 3.94176e-07 -0.000999439)
(-1.11754e-07 3.51803e-07 -0.00099971)
(-7.63548e-08 4.42369e-07 -0.0010004)
(-7.63548e-08 3.92627e-07 -0.00100054)
(-1.26096e-07 4.42368e-07 -0.000999371)
(-1.26096e-07 3.92627e-07 -0.000999678)
(-8.39288e-08 4.9644e-07 -0.00100045)
(-8.39288e-08 4.38057e-07 -0.0010006)
(-1.42312e-07 4.9644e-07 -0.000999296)
(-1.42312e-07 4.38056e-07 -0.000999642)
(-9.21359e-08 5.57119e-07 -0.0010005)
(-9.21359e-08 4.886e-07 -0.00100067)
(-1.60655e-07 5.57118e-07 -0.000999211)
(-1.60655e-07 4.88599e-07 -0.000999603)
(-1.01007e-07 6.25223e-07 -0.00100056)
(-1.01007e-07 5.44816e-07 -0.00100075)
(-1.81414e-07 6.25223e-07 -0.000999115)
(-1.81414e-07 5.44816e-07 -0.000999559)
(-1.10567e-07 7.01676e-07 -0.00100064)
(-1.10567e-07 6.07323e-07 -0.00100083)
(-2.04919e-07 7.01675e-07 -0.000999008)
(-2.04919e-07 6.07322e-07 -0.000999511)
(-1.20837e-07 7.87513e-07 -0.00100072)
(-1.20837e-07 6.76801e-07 -0.00100093)
(-2.31548e-07 7.87511e-07 -0.000998888)
(-2.31548e-07 6.76801e-07 -0.000999458)
(-1.31829e-07 8.83902e-07 -0.00100081)
(-1.31829e-07 7.54001e-07 -0.00100103)
(-2.61729e-07 8.839e-07 -0.000998753)
(-2.6173e-07 7.54e-07 -0.000999399)
(-1.43545e-07 9.92158e-07 -0.00100091)
(-1.43545e-07 8.39748e-07 -0.00100115)
(-2.95955e-07 9.92156e-07 -0.000998601)
(-2.95955e-07 8.39747e-07 -0.000999334)
(-1.55973e-07 1.11376e-06 -0.00100102)
(-1.55973e-07 9.3495e-07 -0.00100128)
(-3.34784e-07 1.11376e-06 -0.000998431)
(-3.34785e-07 9.34948e-07 -0.000999263)
(-1.69083e-07 1.25038e-06 -0.00100115)
(-1.69083e-07 1.0406e-06 -0.00100142)
(-3.78858e-07 1.25038e-06 -0.00099824)
(-3.78859e-07 1.0406e-06 -0.000999184)
(-1.82824e-07 1.4039e-06 -0.00100129)
(-1.82824e-07 1.15781e-06 -0.00100158)
(-4.28909e-07 1.40389e-06 -0.000998025)
(-4.2891e-07 1.15781e-06 -0.000999097)
(-1.97116e-07 1.57642e-06 -0.00100146)
(-1.97116e-07 1.28776e-06 -0.00100175)
(-4.85772e-07 1.57642e-06 -0.000997783)
(-4.85773e-07 1.28776e-06 -0.000999002)
(-2.11847e-07 1.77035e-06 -0.00100164)
(-2.11847e-07 1.43179e-06 -0.00100194)
(-5.50406e-07 1.77034e-06 -0.000997512)
(-5.50406e-07 1.43178e-06 -0.000998897)
(-2.2686e-07 1.98836e-06 -0.00100185)
(-2.2686e-07 1.59132e-06 -0.00100215)
(-6.23903e-07 1.98835e-06 -0.000997206)
(-6.23904e-07 1.59131e-06 -0.000998782)
(-2.41947e-07 2.23351e-06 -0.00100209)
(-2.41947e-07 1.76793e-06 -0.00100239)
(-7.07518e-07 2.23349e-06 -0.000996863)
(-7.07519e-07 1.76792e-06 -0.000998657)
(-2.56833e-07 2.5092e-06 -0.00100235)
(-2.56834e-07 1.96334e-06 -0.00100265)
(-8.02684e-07 2.50919e-06 -0.000996477)
(-8.02687e-07 1.96334e-06 -0.000998519)
(-2.71169e-07 2.81931e-06 -0.00100265)
(-2.71169e-07 2.17943e-06 -0.00100293)
(-9.11047e-07 2.81929e-06 -0.000996044)
(-9.1105e-07 2.17942e-06 -0.000998369)
(-2.84506e-07 3.16821e-06 -0.00100299)
(-2.84506e-07 2.41822e-06 -0.00100324)
(-1.03449e-06 3.16819e-06 -0.000995555)
(-1.03449e-06 2.41821e-06 -0.000998205)
(-2.96281e-07 3.56082e-06 -0.00100338)
(-2.96281e-07 2.68192e-06 -0.00100359)
(-1.17517e-06 3.56079e-06 -0.000995006)
(-1.17518e-06 2.6819e-06 -0.000998027)
(-3.05786e-07 4.00272e-06 -0.00100381)
(-3.05786e-07 2.97291e-06 -0.00100397)
(-1.33558e-06 4.00268e-06 -0.000994388)
(-1.33558e-06 2.97289e-06 -0.000997833)
(-3.12144e-07 4.5002e-06 -0.0010043)
(-3.12144e-07 3.29377e-06 -0.00100439)
(-1.51854e-06 4.50015e-06 -0.000993692)
(-1.51855e-06 3.29375e-06 -0.000997622)
(-3.14263e-07 5.06039e-06 -0.00100486)
(-3.14264e-07 3.64728e-06 -0.00100484)
(-1.72734e-06 5.06032e-06 -0.000992909)
(-1.72735e-06 3.64725e-06 -0.000997395)
(-3.10806e-07 5.69134e-06 -0.00100548)
(-3.10806e-07 4.03639e-06 -0.00100534)
(-1.96572e-06 5.69126e-06 -0.000992026)
(-1.96573e-06 4.03636e-06 -0.000997149)
(-3.00148e-07 6.40218e-06 -0.0010062)
(-3.00148e-07 4.46429e-06 -0.00100589)
(-2.23799e-06 6.40207e-06 -0.000991032)
(-2.23801e-06 4.46425e-06 -0.000996885)
(-2.8036e-07 7.20321e-06 -0.001007)
(-2.8036e-07 4.9344e-06 -0.00100649)
(-2.5491e-06 7.20307e-06 -0.000989912)
(-2.54913e-06 4.93435e-06 -0.000996602)
(-2.49214e-07 8.10601e-06 -0.00100791)
(-2.49214e-07 5.45038e-06 -0.00100715)
(-2.90475e-06 8.10583e-06 -0.00098865)
(-2.90479e-06 5.45032e-06 -0.000996298)
(-2.04159e-07 9.12365e-06 -0.00100894)
(-2.04159e-07 6.0162e-06 -0.00100787)
(-3.31149e-06 9.12342e-06 -0.000987226)
(-3.31153e-06 6.01613e-06 -0.000995976)
(-1.41949e-07 1.0271e-05 -0.00101011)
(-1.41949e-07 6.63597e-06 -0.00100865)
(-3.77683e-06 1.02707e-05 -0.000985621)
(-3.7769e-06 6.63589e-06 -0.000995633)
(-5.88245e-08 1.15649e-05 -0.00101143)
(-5.88258e-08 7.31405e-06 -0.00100951)
(-4.30944e-06 1.15645e-05 -0.00098381)
(-4.30953e-06 7.31394e-06 -0.000995272)
(4.98972e-08 1.30243e-05 -0.00101293)
(4.98949e-08 8.05489e-06 -0.00101043)
(-4.91927e-06 1.30238e-05 -0.000981766)
(-4.91938e-06 8.05477e-06 -0.000994893)
(1.90034e-07 1.46712e-05 -0.00101463)
(1.90031e-07 8.86299e-06 -0.00101143)
(-5.61775e-06 1.46705e-05 -0.00097946)
(-5.61791e-06 8.86284e-06 -0.000994499)
(3.68587e-07 1.653e-05 -0.00101656)
(3.68581e-07 9.74289e-06 -0.00101252)
(-6.41806e-06 1.65292e-05 -0.000976857)
(-6.41827e-06 9.74271e-06 -0.000994092)
(5.93123e-07 1.86286e-05 -0.00101874)
(5.93113e-07 1.06995e-05 -0.00101369)
(-7.33535e-06 1.86276e-05 -0.000973918)
(-7.33564e-06 1.06993e-05 -0.000993675)
(8.73147e-07 2.09986e-05 -0.00102123)
(8.73131e-07 1.17375e-05 -0.00101495)
(-8.38706e-06 2.09972e-05 -0.000970597)
(-8.38744e-06 1.17372e-05 -0.000993255)
(1.21999e-06 2.36757e-05 -0.00102405)
(1.21997e-06 1.28614e-05 -0.00101629)
(-9.59324e-06 2.36739e-05 -0.000966846)
(-9.59375e-06 1.28611e-05 -0.000992836)
(1.64702e-06 2.67009e-05 -0.00102726)
(1.64699e-06 1.40754e-05 -0.00101773)
(-1.0977e-05 2.66985e-05 -0.000962607)
(-1.09777e-05 1.4075e-05 -0.000992429)
(2.17e-06 3.01202e-05 -0.0010309)
(2.16994e-06 1.53834e-05 -0.00101927)
(-1.25649e-05 3.01172e-05 -0.000957816)
(-1.25658e-05 1.5383e-05 -0.000992042)
(2.80749e-06 3.39863e-05 -0.00103505)
(2.8074e-06 1.67887e-05 -0.00102089)
(-1.43874e-05 3.39824e-05 -0.000952398)
(-1.43887e-05 1.67882e-05 -0.00099169)
(3.58137e-06 3.83587e-05 -0.00103976)
(3.58123e-06 1.82939e-05 -0.00102261)
(-1.64799e-05 3.83536e-05 -0.000946271)
(-1.64816e-05 1.82933e-05 -0.000991389)
(4.51733e-06 4.33051e-05 -0.00104511)
(4.51713e-06 1.99004e-05 -0.00102441)
(-1.88828e-05 4.32984e-05 -0.00093934)
(-1.88851e-05 1.98996e-05 -0.000991159)
(5.64561e-06 4.89024e-05 -0.00105121)
(5.6453e-06 2.16081e-05 -0.00102629)
(-2.16427e-05 4.88938e-05 -0.000931498)
(-2.16458e-05 2.16073e-05 -0.000991025)
(7.00163e-06 5.52382e-05 -0.00105815)
(7.00117e-06 2.34155e-05 -0.00102824)
(-2.48132e-05 5.52269e-05 -0.000922623)
(-2.48174e-05 2.34144e-05 -0.000991016)
(8.62694e-06 6.24117e-05 -0.00106604)
(8.62627e-06 2.53183e-05 -0.00103024)
(-2.8456e-05 6.23969e-05 -0.000912576)
(-2.84616e-05 2.53171e-05 -0.000991169)
(1.05702e-05 7.05359e-05 -0.00107502)
(1.05692e-05 2.73099e-05 -0.00103228)
(-3.2642e-05 7.05166e-05 -0.000901201)
(-3.26497e-05 2.73085e-05 -0.000991526)
(1.28883e-05 7.97392e-05 -0.00108525)
(1.28869e-05 2.938e-05 -0.00103431)
(-3.74529e-05 7.9714e-05 -0.000888316)
(-3.74632e-05 2.93781e-05 -0.000992135)
(1.56477e-05 9.01674e-05 -0.00109688)
(1.56458e-05 3.15138e-05 -0.00103631)
(-4.29822e-05 9.01344e-05 -0.000873714)
(-4.29963e-05 3.15115e-05 -0.00099306)
(1.89262e-05 0.000101986 -0.00111024)
(1.89244e-05 3.36914e-05 -0.00103834)
(-4.93383e-05 0.000101943 -0.00085724)
(-4.93573e-05 3.3688e-05 -0.000994509)
(2.28145e-05 0.000115388 -0.00112607)
(2.28156e-05 3.58855e-05 -0.00104091)
(-5.66496e-05 0.000115329 -0.000839011)
(-5.66749e-05 3.58795e-05 -0.000996986)
(2.74202e-05 0.000130587 -0.00114386)
(2.73923e-05 3.80551e-05 -0.00104323)
(-6.50459e-05 0.000130481 -0.00081842)
(-6.50766e-05 3.80606e-05 -0.000998912)
(3.28194e-05 0.000147413 -0.00115005)
(3.272e-05 4.01799e-05 -0.00103147)
(-7.43821e-05 0.000147198 -0.000786223)
(-7.44e-05 4.02435e-05 -0.000986596)
(3.8774e-05 0.000162888 -0.00110639)
(3.80008e-05 4.15307e-05 -0.000970847)
(-8.28297e-05 0.00016193 -0.000717975)
(-8.24488e-05 4.2028e-05 -0.000945286)
(4.20922e-05 0.0001591 -0.00100989)
(3.75889e-05 3.68589e-05 -0.000871828)
(-8.13316e-05 0.000153537 -0.000615072)
(-7.92474e-05 3.93831e-05 -0.001002)
(2.0702e-05 5.6902e-05 -0.00336135)
(7.09971e-06 2.95883e-06 -0.00303245)
(-3.20066e-05 3.44239e-05 -0.00189532)
(-3.00243e-05 9.58745e-06 -0.00260961)
(-2.08109e-05 -4.72601e-06 -8.03018e-05)
(-1.1125e-05 -6.51711e-06 -3.9747e-05)
(-2.71973e-05 -3.36927e-06 -6.36496e-05)
(-3.19379e-05 1.93143e-06 -7.56035e-05)
(-0.000251269 0.000230164 -0.00386428)
(-0.000171287 0.000296536 -0.00382742)
(-2.77284e-05 0.000144569 -0.00279972)
(-3.24279e-05 0.000420891 -0.00350638)
(-7.28211e-05 2.91929e-05 -0.00100784)
(-7.69816e-05 0.00010841 -0.00219613)
(-3.08288e-05 -9.33971e-06 -0.000459158)
(-3.17189e-05 -6.93089e-06 -0.000244754)
(-0.000314019 -0.000155259 -0.00401426)
(-7.27119e-05 -1.74301e-05 -0.00213952)
(-0.000126548 -8.51566e-05 -0.00351067)
(-0.00012359 -5.64868e-05 -0.00387083)
(-4.62521e-05 -4.36125e-05 -0.000645969)
(-0.000182596 3.78403e-05 -0.00399686)
(-5.31351e-05 -4.65367e-05 -0.000596891)
(-3.09307e-05 1.2316e-05 -0.00382176)
(-0.000497326 -0.000393934 -0.0046279)
(-8.90218e-05 -1.29983e-05 -0.00145142)
(-0.000114957 -0.000225741 -0.00304098)
(-2.33725e-05 -3.50727e-05 -0.000942041)
(-0.000210301 -0.000223592 -0.00394635)
(-0.000578632 -0.000386159 -0.00439442)
(-0.000182473 -0.000191332 -0.00136174)
(-0.000277528 -0.000223252 -0.0036319)
(3.20285e-05 -2.57115e-05 -0.00183099)
(0.000107347 -7.5322e-06 -0.000163981)
(-0.000348774 0.000169432 -0.0024586)
(-0.00033478 -0.000213011 -0.00354666)
(0.000329728 0.000308463 -0.00439539)
(0.000818695 -0.000781702 -0.00392996)
(-9.64767e-07 -4.73331e-05 -0.000370948)
(-4.55263e-05 -7.08689e-05 -0.000696755)
(0.000381806 2.46655e-05 -0.00183617)
(0.000152501 -4.18349e-05 -0.000331319)
(-4.0826e-06 3.77796e-05 -0.00439879)
(-6.63009e-06 -0.000700431 -0.00305179)
(0.000749467 -0.000519587 -0.00389313)
(0.00050819 -0.000400945 -0.00367406)
(0.000102158 -7.37727e-05 -0.00147468)
(0.000323932 -0.000328693 -0.00343571)
(7.02759e-05 -5.59785e-05 -0.000337289)
(0.000294981 -0.000300136 -0.00199312)
(0.000190433 -0.000213029 -0.00209488)
(7.32648e-05 -6.68765e-05 -0.00137101)
(0.00053315 -0.000274579 -0.00467894)
(0.000289621 -0.000413976 -0.00356631)
(-5.55412e-05 -0.000229294 -0.00263372)
(-3.30958e-05 -0.000560179 -0.00407454)
(0.000148737 -0.000253279 -0.0029864)
(9.5702e-05 -8.26971e-05 -0.00159478)
(7.55223e-05 -1.32894e-05 -0.000223981)
(9.61296e-05 -0.00067993 -0.00349899)
(9.44668e-05 -0.000107072 -0.00238869)
(0.000120405 -0.000198967 -0.0024011)
(7.3368e-05 -0.000207812 -0.00282821)
(4.37637e-05 -1.96734e-05 -0.000414562)
(0.000263264 -0.000115016 -0.00366062)
(0.000386144 -0.000451591 -0.00223614)
(2.14431e-05 -4.34677e-05 -0.00125213)
(0.000170176 -0.000591889 -0.00466651)
(0.000230634 -0.00012647 -0.00271722)
(7.5075e-05 -3.29982e-05 -0.000275371)
(7.78535e-05 -8.32019e-05 -0.00180348)
(1.87302e-05 1.73384e-05 -0.000205475)
(1.75124e-05 -4.24239e-05 -0.00259081)
(4.76856e-05 -5.30365e-05 -0.00382001)
(-4.09564e-05 -2.92702e-05 -0.00257199)
(-4.87103e-05 -0.000131883 -0.00450382)
(-0.000196609 -7.32596e-05 -0.00366912)
(7.02295e-07 6.91329e-05 -0.0014074)
(-4.15197e-05 -5.29107e-05 -0.000346271)
(5.10469e-05 0.000117448 -0.00179883)
(-3.65316e-05 -8.56651e-05 -0.00216837)
(-0.000142584 0.000193768 -0.00216467)
(0.000136724 -0.000105452 -0.00286719)
(0.000493859 0.000449195 -0.00413079)
(-8.01263e-05 -9.44438e-05 -0.00332356)
(-0.000154599 0.000219564 -0.00145687)
(0.000218315 -4.41818e-05 -0.00129476)
(6.43662e-05 -2.43461e-05 -0.000775365)
(-0.000157088 -6.08201e-05 -0.00271959)
(-0.000190865 7.18784e-05 -0.00123318)
(0.00014679 -0.000147215 -0.00116285)
(0.000124906 -0.000135498 -0.00342339)
(-0.000103314 6.7465e-05 -0.00146654)
(-0.000150939 6.58823e-05 -0.00102351)
(0.000126515 -0.000160927 -0.00100382)
(0.000136291 -9.2012e-05 -0.00152665)
(-0.000122167 -2.61103e-05 -0.00166742)
(-0.000118442 8.93868e-05 -0.00095263)
(9.96771e-05 -8.51775e-05 -0.000887823)
(0.000101368 2.08257e-05 -0.00129994)
(-9.41197e-05 -6.65026e-05 -0.00115582)
(-9.28925e-05 8.43674e-05 -0.000890891)
(8.02089e-05 -7.88748e-05 -0.000901686)
(8.09208e-05 7.38074e-05 -0.00117002)
(-7.74258e-05 -6.78875e-05 -0.00110184)
(-7.74879e-05 7.47414e-05 -0.000873973)
(6.79087e-05 -6.93014e-05 -0.000896659)
(6.7976e-05 7.39971e-05 -0.0011164)
(-6.60419e-05 -5.95475e-05 -0.00109334)
(-6.60789e-05 6.4115e-05 -0.000889059)
(5.7864e-05 -5.97031e-05 -0.000910803)
(5.78478e-05 6.40552e-05 -0.00109724)
(-5.65114e-05 -5.11643e-05 -0.00108336)
(-5.65311e-05 5.46083e-05 -0.000906657)
(4.92813e-05 -5.11949e-05 -0.0009247)
(4.92659e-05 5.45925e-05 -0.00108421)
(-4.83805e-05 -4.38749e-05 -0.00107183)
(-4.83937e-05 4.64558e-05 -0.000920571)
(4.19526e-05 -4.38902e-05 -0.000935879)
(4.19416e-05 4.64459e-05 -0.00107198)
(-4.14233e-05 -3.76306e-05 -0.00106157)
(-4.14327e-05 3.94985e-05 -0.000932082)
(3.57068e-05 -3.76413e-05 -0.00094523)
(3.56989e-05 3.94915e-05 -0.00106121)
(-3.54645e-05 -3.2284e-05 -0.00105284)
(-3.54713e-05 3.35657e-05 -0.000941935)
(3.03859e-05 -3.22917e-05 -0.00095322)
(3.03803e-05 3.35607e-05 -0.00105202)
(-3.03604e-05 -2.77048e-05 -0.00104537)
(-3.03654e-05 2.85087e-05 -0.000950387)
(2.58537e-05 -2.77105e-05 -0.00096005)
(2.58496e-05 2.85051e-05 -0.0010442)
(-2.5989e-05 -2.37825e-05 -0.00103897)
(-2.59925e-05 2.41999e-05 -0.000957623)
(2.19938e-05 -2.37866e-05 -0.00096588)
(2.19909e-05 2.41974e-05 -0.00103754)
(-2.22453e-05 -2.04222e-05 -0.00103347)
(-2.22479e-05 2.05302e-05 -0.000963816)
(1.87074e-05 -2.04253e-05 -0.000970856)
(1.87053e-05 2.05284e-05 -0.00103187)
(-1.90395e-05 -1.75431e-05 -0.00102876)
(-1.90414e-05 1.74059e-05 -0.000969115)
(1.59098e-05 -1.75453e-05 -0.000975103)
(1.59083e-05 1.74047e-05 -0.00102703)
(-1.62945e-05 -1.50758e-05 -0.00102471)
(-1.62959e-05 1.47473e-05 -0.000973647)
(1.35288e-05 -1.50774e-05 -0.000978727)
(1.35277e-05 1.47464e-05 -0.00102292)
(-1.39443e-05 -1.29608e-05 -0.00102124)
(-1.39452e-05 1.2486e-05 -0.000977523)
(1.15027e-05 -1.2962e-05 -0.00098182)
(1.15019e-05 1.24853e-05 -0.00101942)
(-1.19321e-05 -1.11476e-05 -0.00101826)
(-1.19328e-05 1.05635e-05 -0.000980837)
(9.77905e-06 -1.11485e-05 -0.00098446)
(9.77849e-06 1.0563e-05 -0.00101645)
(-1.02096e-05 -9.59253e-06 -0.0010157)
(-1.02101e-05 8.9299e-06 -0.000983669)
(8.3129e-06 -9.59317e-06 -0.000986713)
(8.3125e-06 8.92958e-06 -0.00101392)
(-8.73513e-06 -8.25854e-06 -0.00101351)
(-8.7355e-06 7.54256e-06 -0.000986089)
(7.06604e-06 -8.25901e-06 -0.000988636)
(7.06575e-06 7.54233e-06 -0.00101177)
(-7.47302e-06 -7.11381e-06 -0.00101162)
(-7.47329e-06 6.365e-06 -0.000988156)
(6.00584e-06 -7.11415e-06 -0.000990277)
(6.00563e-06 6.36484e-06 -0.00100995)
(-6.39279e-06 -6.13114e-06 -0.00101001)
(-6.39298e-06 5.3661e-06 -0.000989921)
(5.1045e-06 -6.13139e-06 -0.000991678)
(5.10435e-06 5.36599e-06 -0.0010084)
(-5.46826e-06 -5.28727e-06 -0.00100862)
(-5.4684e-06 4.51929e-06 -0.000991428)
(4.33833e-06 -5.28746e-06 -0.000992874)
(4.33823e-06 4.51921e-06 -0.00100709)
(-4.67705e-06 -4.56231e-06 -0.00100742)
(-4.67715e-06 3.80188e-06 -0.000992714)
(3.68716e-06 -4.56244e-06 -0.000993895)
(3.68708e-06 3.80182e-06 -0.00100598)
(-3.99997e-06 -3.93921e-06 -0.0010064)
(-4.00004e-06 3.19452e-06 -0.000993811)
(3.13378e-06 -3.93932e-06 -0.000994768)
(3.13373e-06 3.19448e-06 -0.00100503)
(-3.4206e-06 -3.40344e-06 -0.00100552)
(-3.42065e-06 2.68072e-06 -0.000994746)
(2.66358e-06 -3.40351e-06 -0.000995513)
(2.66354e-06 2.68069e-06 -0.00100424)
(-2.92486e-06 -2.94251e-06 -0.00100476)
(-2.9249e-06 2.24641e-06 -0.000995543)
(2.26408e-06 -2.94257e-06 -0.00099615)
(2.26405e-06 2.24639e-06 -0.00100356)
(-2.50071e-06 -2.54578e-06 -0.0010041)
(-2.50073e-06 1.8796e-06 -0.000996222)
(1.92468e-06 -2.54582e-06 -0.000996695)
(1.92466e-06 1.87958e-06 -0.00100299)
(-2.13783e-06 -2.20412e-06 -0.00100354)
(-2.13785e-06 1.57007e-06 -0.0009968)
(1.63637e-06 -2.20415e-06 -0.000997161)
(1.63635e-06 1.57006e-06 -0.00100251)
(-1.82741e-06 -1.90972e-06 -0.00100306)
(-1.82742e-06 1.30915e-06 -0.000997293)
(1.39147e-06 -1.90974e-06 -0.000997559)
(1.39146e-06 1.30914e-06 -0.0010021)
(-1.56189e-06 -1.6559e-06 -0.00100264)
(-1.5619e-06 1.08945e-06 -0.000997712)
(1.18347e-06 -1.65592e-06 -0.0009979)
(1.18346e-06 1.08945e-06 -0.00100176)
(-1.3348e-06 -1.43694e-06 -0.00100229)
(-1.33481e-06 9.04671e-07 -0.000998068)
(1.00681e-06 -1.43695e-06 -0.000998193)
(1.0068e-06 9.04667e-07 -0.00100147)
(-1.1406e-06 -1.24793e-06 -0.00100198)
(-1.14061e-06 7.49436e-07 -0.000998371)
(8.56763e-07 -1.24793e-06 -0.000998443)
(8.56759e-07 7.49433e-07 -0.00100123)
(-9.74521e-07 -1.08466e-06 -0.00100171)
(-9.74524e-07 6.19165e-07 -0.000998627)
(7.29306e-07 -1.08467e-06 -0.000998657)
(7.29303e-07 6.19164e-07 -0.00100102)
(-8.32489e-07 -9.43539e-07 -0.00100148)
(-8.32492e-07 5.09961e-07 -0.000998845)
(6.21011e-07 -9.43544e-07 -0.000998841)
(6.21009e-07 5.0996e-07 -0.00100085)
(-7.11042e-07 -8.21472e-07 -0.00100128)
(-7.11044e-07 4.1856e-07 -0.000999029)
(5.28991e-07 -8.21476e-07 -0.000998999)
(5.28989e-07 4.18559e-07 -0.00100071)
(-6.07216e-07 -7.15811e-07 -0.00100111)
(-6.07218e-07 3.42201e-07 -0.000999186)
(4.50796e-07 -7.15814e-07 -0.000999135)
(4.50795e-07 3.422e-07 -0.00100059)
(-5.18471e-07 -6.24281e-07 -0.00100097)
(-5.18473e-07 2.78533e-07 -0.000999318)
(3.84343e-07 -6.24283e-07 -0.000999251)
(3.84342e-07 2.78532e-07 -0.00100048)
(-4.42629e-07 -5.44931e-07 -0.00100084)
(-4.42629e-07 2.25555e-07 -0.00099943)
(3.27858e-07 -5.44932e-07 -0.000999351)
(3.27857e-07 2.25555e-07 -0.0010004)
(-3.77817e-07 -4.76084e-07 -0.00100073)
(-3.77818e-07 1.81564e-07 -0.000999525)
(2.79831e-07 -4.76085e-07 -0.000999437)
(2.79831e-07 1.81564e-07 -0.00100033)
(-3.22435e-07 -4.16301e-07 -0.00100063)
(-3.22436e-07 1.45113e-07 -0.000999605)
(2.38979e-07 -4.16301e-07 -0.000999511)
(2.38978e-07 1.45113e-07 -0.00100027)
(-2.75107e-07 -3.64344e-07 -0.00100055)
(-2.75107e-07 1.1497e-07 -0.000999672)
(2.04207e-07 -3.64345e-07 -0.000999575)
(2.04207e-07 1.1497e-07 -0.00100022)
(-2.34649e-07 -3.19152e-07 -0.00100048)
(-2.34649e-07 9.00782e-08 -0.000999727)
(1.74582e-07 -3.19153e-07 -0.00099963)
(1.74581e-07 9.00781e-08 -0.00100018)
(-2.00039e-07 -2.7981e-07 -0.00100042)
(-2.00039e-07 6.95293e-08 -0.000999774)
(1.493e-07 -2.7981e-07 -0.000999678)
(1.49299e-07 6.95292e-08 -0.00100015)
(-1.70426e-07 -2.45529e-07 -0.00100036)
(-1.70426e-07 5.25993e-08 -0.000999813)
(1.27703e-07 -2.45529e-07 -0.000999719)
(1.27703e-07 5.25992e-08 -0.00100012)
(-1.45094e-07 -2.15632e-07 -0.00100032)
(-1.45094e-07 3.87106e-08 -0.000999846)
(1.09249e-07 -2.15632e-07 -0.000999754)
(1.09249e-07 3.87105e-08 -0.0010001)
(-1.23431e-07 -1.89533e-07 -0.00100028)
(-1.23431e-07 2.73724e-08 -0.000999873)
(9.34748e-08 -1.89534e-07 -0.000999785)
(9.34747e-08 2.73724e-08 -0.00100008)
(-1.0491e-07 -1.66729e-07 -0.00100024)
(-1.0491e-07 1.81675e-08 -0.000999897)
(7.99869e-08 -1.6673e-07 -0.000999811)
(7.99868e-08 1.81675e-08 -0.00100006)
(-8.90792e-08 -1.46786e-07 -0.00100021)
(-8.90793e-08 1.07426e-08 -0.000999916)
(6.84491e-08 -1.46786e-07 -0.000999834)
(6.84491e-08 1.07426e-08 -0.00100005)
(-7.55526e-08 -1.29329e-07 -0.00100018)
(-7.55526e-08 4.79956e-09 -0.000999932)
(5.85756e-08 -1.29329e-07 -0.000999854)
(5.85756e-08 4.79954e-09 -0.00100004)
(-6.39994e-08 -1.14036e-07 -0.00100016)
(-6.39995e-08 8.64876e-11 -0.000999945)
(5.01229e-08 -1.14036e-07 -0.000999872)
(5.01229e-08 8.64756e-11 -0.00100003)
(-5.41362e-08 -1.00629e-07 -0.00100014)
(-5.41363e-08 -3.6092e-09 -0.000999956)
(4.28839e-08 -1.00629e-07 -0.000999887)
(4.28839e-08 -3.60921e-09 -0.00100002)
(-4.57195e-08 -8.88682e-08 -0.00100012)
(-4.57195e-08 -6.46707e-09 -0.000999965)
(3.66816e-08 -8.88683e-08 -0.0009999)
(3.66816e-08 -6.46708e-09 -0.00100002)
(-3.85405e-08 -7.85444e-08 -0.00100011)
(-3.85405e-08 -8.6381e-09 -0.000999973)
(3.13658e-08 -7.85444e-08 -0.000999911)
(3.13658e-08 -8.6381e-09 -0.00100001)
(-3.24309e-08 -6.94772e-08 -0.00100009)
(-3.2431e-08 -1.02275e-08 -0.000999979)
(2.68188e-08 -6.94772e-08 -0.000999921)
(2.68188e-08 -1.02275e-08 -0.00100001)
(-2.7245e-08 -6.151e-08 -0.00100008)
(-2.7245e-08 -1.13258e-08 -0.000999985)
(2.29391e-08 -6.151e-08 -0.00099993)
(2.29391e-08 -1.13258e-08 -0.001)
(-2.28524e-08 -5.45067e-08 -0.00100007)
(-2.28524e-08 -1.20194e-08 -0.000999989)
(1.96349e-08 -5.45067e-08 -0.000999938)
(1.96349e-08 -1.20194e-08 -0.000999999)
(-1.91386e-08 -4.83491e-08 -0.00100006)
(-1.91386e-08 -1.23854e-08 -0.000999993)
(1.68251e-08 -4.83491e-08 -0.000999945)
(1.68251e-08 -1.23854e-08 -0.000999997)
(-1.6004e-08 -4.29342e-08 -0.00100005)
(-1.6004e-08 -1.2491e-08 -0.000999995)
(1.44392e-08 -4.29342e-08 -0.000999951)
(1.44392e-08 -1.2491e-08 -0.000999995)
(-1.33621e-08 -3.81719e-08 -0.00100005)
(-1.33621e-08 -1.23935e-08 -0.000999998)
(1.24164e-08 -3.81719e-08 -0.000999956)
(1.24164e-08 -1.23935e-08 -0.000999994)
(-1.11396e-08 -3.39842e-08 -0.00100004)
(-1.11396e-08 -1.21406e-08 -0.000999999)
(1.07039e-08 -3.39842e-08 -0.000999961)
(1.07039e-08 -1.21406e-08 -0.000999993)
(-9.2741e-09 -3.03028e-08 -0.00100003)
(-9.2741e-09 -1.17723e-08 -0.001)
(9.25639e-09 -3.03028e-08 -0.000999965)
(9.25639e-09 -1.17723e-08 -0.000999992)
(-7.71147e-09 -2.7068e-08 -0.00100003)
(-7.71147e-09 -1.1322e-08 -0.001)
(8.03456e-09 -2.7068e-08 -0.000999969)
(8.03456e-09 -1.1322e-08 -0.000999992)
(-6.40529e-09 -2.42271e-08 -0.00100003)
(-6.40529e-09 -1.08174e-08 -0.001)
(7.00443e-09 -2.42271e-08 -0.000999973)
(7.00443e-09 -1.08174e-08 -0.000999992)
(-5.31565e-09 -2.17338e-08 -0.00100002)
(-5.31565e-09 -1.02816e-08 -0.001)
(6.13652e-09 -2.17338e-08 -0.000999976)
(6.13652e-09 -1.02816e-08 -0.000999992)
(-4.40834e-09 -1.95472e-08 -0.00100002)
(-4.40834e-09 -9.73356e-09 -0.001)
(5.40533e-09 -1.95472e-08 -0.000999978)
(5.40533e-09 -9.73356e-09 -0.000999992)
(-3.65421e-09 -1.76318e-08 -0.00100002)
(-3.65421e-09 -9.1887e-09 -0.001)
(4.78888e-09 -1.76318e-08 -0.000999981)
(4.78885e-09 -9.1887e-09 -0.000999992)
(-3.02852e-09 -1.59562e-08 -0.00100001)
(-3.02853e-09 -8.65934e-09 -0.001)
(4.26835e-09 -1.59562e-08 -0.000999983)
(4.26834e-09 -8.65934e-09 -0.000999993)
(-2.51044e-09 -1.44936e-08 -0.00100001)
(-2.51044e-09 -8.15511e-09 -0.001)
(3.82793e-09 -1.44935e-08 -0.000999985)
(3.82805e-09 -8.15511e-09 -0.000999993)
(-2.08253e-09 -1.32207e-08 -0.00100001)
(-2.08253e-09 -7.68325e-09 -0.001)
(3.45496e-09 -1.32208e-08 -0.000999987)
(3.45495e-09 -7.68325e-09 -0.000999994)
(-1.73036e-09 -1.21179e-08 -0.00100001)
(-1.73036e-09 -7.24905e-09 -0.001)
(3.13849e-09 -1.21179e-08 -0.000999989)
(3.13844e-09 -7.24906e-09 -0.000999994)
(-1.44212e-09 -1.11683e-08 -0.00100001)
(-1.44212e-09 -6.85612e-09 -0.001)
(2.87012e-09 -1.11684e-08 -0.00099999)
(2.8701e-09 -6.85612e-09 -0.000999995)
(-1.20823e-09 -1.03583e-08 -0.00100001)
(-1.20823e-09 -6.50675e-09 -0.001)
(2.64335e-09 -1.03583e-08 -0.000999992)
(2.64334e-09 -6.50675e-09 -0.000999996)
(-1.02107e-09 -9.67636e-09 -0.00100001)
(-1.02107e-09 -6.20217e-09 -0.001)
(2.45311e-09 -9.67636e-09 -0.000999993)
(2.45311e-09 -6.20217e-09 -0.000999996)
(-8.74922e-10 -9.11336e-09 -0.001)
(-8.74922e-10 -5.94266e-09 -0.001)
(2.29577e-09 -9.11335e-09 -0.000999994)
(2.29577e-09 -5.94266e-09 -0.000999997)
(-7.6718e-10 -8.6636e-09 -0.001)
(-7.6718e-10 -5.72614e-09 -0.001)
(2.17027e-09 -8.66359e-09 -0.000999995)
(2.17028e-09 -5.72614e-09 -0.000999998)
(-7.09159e-10 -8.33513e-09 -0.001)
(-7.09159e-10 -5.53726e-09 -0.001)
(2.08868e-09 -8.33508e-09 -0.000999997)
(2.08871e-09 -5.53726e-09 -0.000999998)
(-6.84917e-10 -8.10878e-09 -0.001)
(-6.84917e-10 -5.38784e-09 -0.001)
(2.03599e-09 -8.10877e-09 -0.000999998)
(2.03602e-09 -5.38784e-09 -0.000999999)
(-7.23609e-10 -8.02647e-09 -0.001)
(-7.23608e-10 -5.24282e-09 -0.001)
(2.06003e-09 -8.02646e-09 -0.000999999)
(2.06004e-09 -5.24282e-09 -0.001)
)
;

boundaryField
{
    inlet
    {
        type            zeroGradient;
    }
    outlet
    {
        type            zeroGradient;
    }
    repeat_boundary
    {
        type            slip;
    }
}


// ************************************************************************* //
