/*--------------------------------*- C++ -*----------------------------------*\
| =========                 |                                                 |
| \\      /  F ield         | OpenFOAM: The Open Source CFD Toolbox           |
|  \\    /   O peration     | Version:  5.x                                   |
|   \\  /    A nd           | Web:      www.OpenFOAM.org                      |
|    \\/     M anipulation  |                                                 |
\*---------------------------------------------------------------------------*/
FoamFile
{
    version     2.0;
    format      ascii;
    class       surfaceScalarField;
    location    "700";
    object      phi;
}
// * * * * * * * * * * * * * * * * * * * * * * * * * * * * * * * * * * * * * //

dimensions      [0 3 -1 0 0 0 0];

internalField   nonuniform List<scalar> 
89
(
-0.0250008
-0.0250008
-0.025001
-0.0250011
-0.0250013
-0.0250016
-0.0250019
-0.0250024
-0.025003
-0.0250037
-0.0250046
-0.0250057
-0.0250072
-0.025009
-0.0250113
-0.0250142
-0.0250179
-0.0250226
-0.0250286
-0.0250363
-0.0250461
-0.0250586
-0.0250746
-0.0250952
-0.0251217
-0.0251558
-0.0251998
-0.0252567
-0.0253303
-0.0254257
-0.0255495
-0.0257105
-0.0259201
-0.0261942
-0.0265544
-0.02701
-0.0275462
-0.0280748
-0.0286105
-0.0274931
-0.0275283
-0.0280523
-0.0284755
-0.0287459
-0.0287761
-0.0286279
-0.0282736
-0.0276078
-0.0271886
-0.0269798
-0.0267396
-0.0265737
-0.0261562
-0.0260162
-0.0256955
-0.0254583
-0.0252969
-0.0251846
-0.0251067
-0.0250528
-0.025017
-0.0249951
-0.0249819
-0.0249744
-0.0249708
-0.0249698
-0.0249705
-0.0249722
-0.0249745
-0.0249771
-0.0249797
-0.0249823
-0.0249846
-0.0249868
-0.0249887
-0.0249904
-0.0249919
-0.0249932
-0.0249943
-0.0249952
-0.024996
-0.0249967
-0.0249973
-0.0249978
-0.0249982
-0.0249986
-0.0249989
-0.0249992
-0.0249995
)
;

boundaryField
{
    inlet
    {
        type            calculated;
        value           uniform -0.0249997;
    }
    outlet
    {
        type            calculated;
        value           uniform 0.0250007;
    }
    repeat_boundary
    {
        type            calculated;
        value           uniform 0;
    }
    procBoundary2to0
    {
        type            processor;
        value           nonuniform List<scalar> 
90
(
2.30685e-08
4.45201e-08
7.03022e-08
9.93959e-08
1.32903e-07
1.72409e-07
2.19898e-07
2.77865e-07
3.4945e-07
4.38609e-07
5.50335e-07
6.90932e-07
8.68396e-07
1.0929e-06
1.37739e-06
1.73845e-06
2.19728e-06
2.78153e-06
3.52672e-06
4.47867e-06
5.69664e-06
7.25739e-06
9.26049e-06
1.18353e-05
1.515e-05
1.94237e-05
2.49419e-05
3.20777e-05
4.13187e-05
5.33033e-05
6.88684e-05
8.91162e-05
0.000115556
0.000150464
0.00019697
0.000247815
0.000289549
0.000277019
0.000294633
-0.000662744
2.10686e-05
0.000314281
0.00019194
0.000225891
0.000219003
7.83661e-05
-0.000193843
-0.000493067
-0.000350479
-3.54745e-05
-4.84432e-05
-0.000123369
-0.000329087
-0.0002158
-0.000191843
-0.000141434
-0.000100866
-7.39331e-05
-5.43288e-05
-3.97214e-05
-2.89018e-05
-2.09406e-05
-1.50782e-05
-1.07699e-05
-7.61693e-06
-5.32279e-06
-3.66529e-06
-2.47725e-06
-1.63344e-06
-1.04075e-06
-6.304e-07
-3.51892e-07
-1.68547e-07
-5.50147e-08
2.31691e-08
8.28211e-08
1.06568e-07
1.11074e-07
1.09982e-07
1.0477e-07
9.74078e-08
8.95434e-08
8.22124e-08
7.59107e-08
7.05888e-08
6.66497e-08
6.4106e-08
6.22413e-08
6.02996e-08
5.88932e-08
)
;
    }
    procBoundary2to3
    {
        type            processor;
        value           nonuniform List<scalar> 
90
(
1.60828e-08
2.93011e-08
4.54683e-08
6.37516e-08
8.49007e-08
1.10032e-07
1.40491e-07
1.77904e-07
2.24377e-07
2.82722e-07
3.56547e-07
4.50473e-07
5.70417e-07
7.23993e-07
9.21024e-07
1.17423e-06
1.50013e-06
1.92018e-06
2.46239e-06
3.16328e-06
4.07061e-06
5.24696e-06
6.77408e-06
8.7576e-06
1.13385e-05
1.47011e-05
1.90879e-05
2.48178e-05
3.23104e-05
4.21193e-05
5.49751e-05
7.18509e-05
9.40856e-05
0.000123648
0.000163213
0.000207754
0.000246629
0.000251573
0.000241031
-0.000454539
1.41443e-05
0.000209749
0.000231313
4.44255e-05
-0.000188866
-0.000226474
-0.000160387
-0.000172644
-6.87903e-05
-0.000173468
-0.000191623
-4.24709e-05
-8.84248e-05
7.57579e-05
-0.000128951
-9.57492e-05
-6.06154e-05
-3.83152e-05
-2.3612e-05
-1.41244e-05
-6.92587e-06
-1.0023e-06
1.78873e-06
3.25422e-06
3.99804e-06
4.30376e-06
4.34285e-06
4.20792e-06
3.95748e-06
3.6362e-06
3.27921e-06
2.91267e-06
2.55501e-06
2.21762e-06
1.90768e-06
1.62902e-06
1.38299e-06
1.16865e-06
9.84021e-07
8.26693e-07
6.93997e-07
5.83183e-07
4.91539e-07
4.16478e-07
3.55596e-07
3.06705e-07
2.67799e-07
2.36897e-07
2.12215e-07
2.00339e-07
)
;
    }
}


// ************************************************************************* //
