/*--------------------------------*- C++ -*----------------------------------*\
| =========                 |                                                 |
| \\      /  F ield         | OpenFOAM: The Open Source CFD Toolbox           |
|  \\    /   O peration     | Version:  5.x                                   |
|   \\  /    A nd           | Web:      www.OpenFOAM.org                      |
|    \\/     M anipulation  |                                                 |
\*---------------------------------------------------------------------------*/
FoamFile
{
    version     2.0;
    format      ascii;
    class       volVectorField;
    location    "700";
    object      stored_U;
}
// * * * * * * * * * * * * * * * * * * * * * * * * * * * * * * * * * * * * * //

dimensions      [0 1 -1 0 0 0 0];

internalField   nonuniform List<vector> 
90
(
(2.98055e-09 -4.16448e-09 -0.00100003)
(5.26167e-09 -7.80459e-09 -0.00100003)
(8.14556e-09 -1.22764e-08 -0.00100004)
(1.14847e-08 -1.73915e-08 -0.00100004)
(1.54194e-08 -2.33623e-08 -0.00100005)
(2.01591e-08 -3.04895e-08 -0.00100006)
(2.59645e-08 -3.91412e-08 -0.00100007)
(3.31616e-08 -4.97711e-08 -0.00100009)
(4.21613e-08 -6.2944e-08 -0.0010001)
(5.34862e-08 -7.93675e-08 -0.00100013)
(6.78054e-08 -9.99333e-08 -0.00100016)
(8.59797e-08 -1.25771e-07 -0.0010002)
(1.09121e-07 -1.58319e-07 -0.00100025)
(1.38667e-07 -1.9941e-07 -0.00100032)
(1.76485e-07 -2.51387e-07 -0.0010004)
(2.24998e-07 -3.17248e-07 -0.0010005)
(2.87358e-07 -4.00829e-07 -0.00100063)
(3.6767e-07 -5.07149e-07 -0.0010008)
(4.71289e-07 -6.42662e-07 -0.00100101)
(6.05211e-07 -8.15702e-07 -0.00100128)
(7.78596e-07 -1.03705e-06 -0.00100162)
(1.00345e-06 -1.32068e-06 -0.00100206)
(1.2955e-06 -1.68472e-06 -0.00100262)
(1.6753e-06 -2.15278e-06 -0.00100334)
(2.16992e-06 -2.75556e-06 -0.00100426)
(2.81499e-06 -3.5331e-06 -0.00100545)
(3.65746e-06 -4.5377e-06 -0.00100699)
(4.7592e-06 -5.83774e-06 -0.00100897)
(6.20189e-06 -7.52281e-06 -0.00101154)
(8.09339e-06 -9.71048e-06 -0.00101486)
(1.05764e-05 -1.25551e-05 -0.00101915)
(1.38402e-05 -1.62595e-05 -0.00102478)
(1.81395e-05 -2.10963e-05 -0.00103249)
(2.3835e-05 -2.74583e-05 -0.00104254)
(3.15096e-05 -3.59813e-05 -0.00105049)
(4.01985e-05 -4.54245e-05 -0.00104717)
(4.84668e-05 -5.31093e-05 -0.00108768)
(4.93427e-05 -5.12101e-05 -0.00134711)
(4.03295e-05 -4.37479e-05 -0.000367533)
(-7.00086e-05 0.000105688 -0.00277156)
(8.3942e-07 -5.54812e-06 -0.00131347)
(6.27123e-05 -0.000108272 -0.00294487)
(4.98552e-05 -5.62706e-05 -0.00232833)
(8.6776e-06 -7.23257e-05 -0.00316565)
(-6.10599e-05 -6.76561e-05 -0.00217424)
(-8.02762e-05 -3.87971e-05 -0.00321146)
(-5.44514e-05 4.27601e-05 -0.00225158)
(-7.16552e-05 0.000161047 -0.00335075)
(-4.62299e-05 4.44481e-05 -0.00180332)
(-9.33585e-05 -9.16548e-06 -0.00331373)
(-7.40803e-05 -1.85852e-05 -0.00205165)
(-4.98336e-05 5.23243e-06 -0.00204996)
(-7.29901e-06 0.000115201 -0.00204577)
(3.40966e-05 8.93306e-05 -0.00144732)
(-1.49406e-05 5.06704e-05 -0.000919255)
(-1.34375e-05 3.43844e-05 -0.00102021)
(-7.798e-06 2.38302e-05 -0.00101735)
(-4.4044e-06 1.74426e-05 -0.00101004)
(-2.24855e-06 1.2857e-05 -0.00100554)
(-8.1986e-07 9.45189e-06 -0.00100293)
(9.93766e-08 6.92458e-06 -0.00100124)
(6.63886e-07 5.05305e-06 -0.00100016)
(9.91091e-07 3.6673e-06 -0.000999496)
(1.15368e-06 2.64555e-06 -0.000999097)
(1.205e-06 1.89548e-06 -0.000998883)
(1.18383e-06 1.34741e-06 -0.000998796)
(1.11793e-06 9.48968e-07 -0.000998792)
(1.02687e-06 6.60906e-07 -0.000998843)
(9.24182e-07 4.53889e-07 -0.000998926)
(8.18907e-07 3.06113e-07 -0.000999026)
(7.16823e-07 2.01437e-07 -0.000999131)
(6.21376e-07 1.27969e-07 -0.000999236)
(5.34394e-07 7.69922e-08 -0.000999335)
(4.566e-07 4.21605e-08 -0.000999427)
(3.87975e-07 1.89363e-08 -0.000999509)
(3.28099e-07 3.97332e-09 -0.000999582)
(2.76404e-07 -5.33552e-09 -0.000999646)
(2.32167e-07 -1.08426e-08 -0.000999703)
(1.94569e-07 -1.3781e-08 -0.000999751)
(1.62809e-07 -1.50241e-08 -0.000999793)
(1.36139e-07 -1.51894e-08 -0.000999829)
(1.13875e-07 -1.47067e-08 -0.000999859)
(9.54077e-08 -1.38719e-08 -0.000999885)
(8.02046e-08 -1.28854e-08 -0.000999906)
(6.78056e-08 -1.18815e-08 -0.000999925)
(5.78158e-08 -1.09477e-08 -0.000999941)
(4.98881e-08 -1.01395e-08 -0.000999954)
(4.36897e-08 -9.4761e-09 -0.000999966)
(3.89808e-08 -8.91156e-09 -0.000999978)
(3.68666e-08 -8.59626e-09 -0.000999986)
)
;

boundaryField
{
    inlet
    {
        type            calculated;
        value           uniform (3.68666e-08 -8.59626e-09 -0.000999986);
    }
    outlet
    {
        type            calculated;
        value           uniform (2.98055e-09 -4.16448e-09 -0.00100003);
    }
    repeat_boundary
    {
        type            calculated;
        value           nonuniform List<vector> 
180
(
(2.98055e-09 0 -0.00100003)
(5.26167e-09 0 -0.00100003)
(8.14556e-09 0 -0.00100004)
(1.14847e-08 0 -0.00100004)
(1.54194e-08 0 -0.00100005)
(2.01591e-08 0 -0.00100006)
(2.59645e-08 0 -0.00100007)
(3.31616e-08 0 -0.00100009)
(4.21613e-08 0 -0.0010001)
(5.34862e-08 0 -0.00100013)
(6.78054e-08 0 -0.00100016)
(8.59797e-08 0 -0.0010002)
(1.09121e-07 0 -0.00100025)
(1.38667e-07 0 -0.00100032)
(1.76485e-07 0 -0.0010004)
(2.24998e-07 0 -0.0010005)
(2.87358e-07 0 -0.00100063)
(3.6767e-07 0 -0.0010008)
(4.71289e-07 0 -0.00100101)
(6.05211e-07 0 -0.00100128)
(7.78596e-07 0 -0.00100162)
(1.00345e-06 0 -0.00100206)
(1.2955e-06 0 -0.00100262)
(1.6753e-06 0 -0.00100334)
(2.16992e-06 0 -0.00100426)
(2.81499e-06 0 -0.00100545)
(3.65746e-06 0 -0.00100699)
(4.7592e-06 0 -0.00100897)
(6.20189e-06 0 -0.00101154)
(8.09339e-06 0 -0.00101486)
(1.05764e-05 0 -0.00101915)
(1.38402e-05 0 -0.00102478)
(1.81395e-05 0 -0.00103249)
(2.3835e-05 0 -0.00104254)
(3.15096e-05 0 -0.00105049)
(4.01985e-05 0 -0.00104717)
(4.84668e-05 0 -0.00108768)
(4.93427e-05 0 -0.00134711)
(4.03295e-05 0 -0.000367533)
(-7.00086e-05 0 -0.00277156)
(8.3942e-07 0 -0.00131347)
(6.27123e-05 0 -0.00294487)
(4.98552e-05 0 -0.00232833)
(8.6776e-06 0 -0.00316565)
(-6.10599e-05 0 -0.00217424)
(-8.02762e-05 0 -0.00321146)
(-5.44514e-05 0 -0.00225158)
(-7.16552e-05 0 -0.00335075)
(-4.62299e-05 0 -0.00180332)
(-9.33585e-05 0 -0.00331373)
(-7.40803e-05 0 -0.00205165)
(-4.98336e-05 0 -0.00204996)
(-7.29901e-06 0 -0.00204577)
(3.40966e-05 0 -0.00144732)
(-1.49406e-05 0 -0.000919255)
(-1.34375e-05 0 -0.00102021)
(-7.798e-06 0 -0.00101735)
(-4.4044e-06 0 -0.00101004)
(-2.24855e-06 0 -0.00100554)
(-8.1986e-07 0 -0.00100293)
(9.93766e-08 0 -0.00100124)
(6.63886e-07 0 -0.00100016)
(9.91091e-07 0 -0.000999496)
(1.15368e-06 0 -0.000999097)
(1.205e-06 0 -0.000998883)
(1.18383e-06 0 -0.000998796)
(1.11793e-06 0 -0.000998792)
(1.02687e-06 0 -0.000998843)
(9.24182e-07 0 -0.000998926)
(8.18907e-07 0 -0.000999026)
(7.16823e-07 0 -0.000999131)
(6.21376e-07 0 -0.000999236)
(5.34394e-07 0 -0.000999335)
(4.566e-07 0 -0.000999427)
(3.87975e-07 0 -0.000999509)
(3.28099e-07 0 -0.000999582)
(2.76404e-07 0 -0.000999646)
(2.32167e-07 0 -0.000999703)
(1.94569e-07 0 -0.000999751)
(1.62809e-07 0 -0.000999793)
(1.36139e-07 0 -0.000999829)
(1.13875e-07 0 -0.000999859)
(9.54077e-08 0 -0.000999885)
(8.02046e-08 0 -0.000999906)
(6.78056e-08 0 -0.000999925)
(5.78158e-08 0 -0.000999941)
(4.98881e-08 0 -0.000999954)
(4.36897e-08 0 -0.000999966)
(3.89808e-08 0 -0.000999978)
(3.68666e-08 0 -0.000999986)
(0 -4.16448e-09 -0.00100003)
(0 -7.80459e-09 -0.00100003)
(0 -1.22764e-08 -0.00100004)
(0 -1.73915e-08 -0.00100004)
(0 -2.33623e-08 -0.00100005)
(0 -3.04895e-08 -0.00100006)
(0 -3.91412e-08 -0.00100007)
(0 -4.97711e-08 -0.00100009)
(0 -6.2944e-08 -0.0010001)
(0 -7.93675e-08 -0.00100013)
(0 -9.99333e-08 -0.00100016)
(0 -1.25771e-07 -0.0010002)
(0 -1.58319e-07 -0.00100025)
(0 -1.9941e-07 -0.00100032)
(0 -2.51387e-07 -0.0010004)
(0 -3.17248e-07 -0.0010005)
(0 -4.00829e-07 -0.00100063)
(0 -5.07149e-07 -0.0010008)
(0 -6.42662e-07 -0.00100101)
(0 -8.15702e-07 -0.00100128)
(0 -1.03705e-06 -0.00100162)
(0 -1.32068e-06 -0.00100206)
(0 -1.68472e-06 -0.00100262)
(0 -2.15278e-06 -0.00100334)
(0 -2.75556e-06 -0.00100426)
(0 -3.5331e-06 -0.00100545)
(0 -4.5377e-06 -0.00100699)
(0 -5.83774e-06 -0.00100897)
(0 -7.52281e-06 -0.00101154)
(0 -9.71048e-06 -0.00101486)
(0 -1.25551e-05 -0.00101915)
(0 -1.62595e-05 -0.00102478)
(0 -2.10963e-05 -0.00103249)
(0 -2.74583e-05 -0.00104254)
(0 -3.59813e-05 -0.00105049)
(0 -4.54245e-05 -0.00104717)
(0 -5.31093e-05 -0.00108768)
(0 -5.12101e-05 -0.00134711)
(0 -4.37479e-05 -0.000367533)
(0 0.000105688 -0.00277156)
(0 -5.54812e-06 -0.00131347)
(0 -0.000108272 -0.00294487)
(0 -5.62706e-05 -0.00232833)
(0 -7.23257e-05 -0.00316565)
(0 -6.76561e-05 -0.00217424)
(0 -3.87971e-05 -0.00321146)
(0 4.27601e-05 -0.00225158)
(0 0.000161047 -0.00335075)
(0 4.44481e-05 -0.00180332)
(0 -9.16548e-06 -0.00331373)
(0 -1.85852e-05 -0.00205165)
(0 5.23243e-06 -0.00204996)
(0 0.000115201 -0.00204577)
(0 8.93306e-05 -0.00144732)
(0 5.06704e-05 -0.000919255)
(0 3.43844e-05 -0.00102021)
(0 2.38302e-05 -0.00101735)
(0 1.74426e-05 -0.00101004)
(0 1.2857e-05 -0.00100554)
(0 9.45189e-06 -0.00100293)
(0 6.92458e-06 -0.00100124)
(0 5.05305e-06 -0.00100016)
(0 3.6673e-06 -0.000999496)
(0 2.64555e-06 -0.000999097)
(0 1.89548e-06 -0.000998883)
(0 1.34741e-06 -0.000998796)
(0 9.48968e-07 -0.000998792)
(0 6.60906e-07 -0.000998843)
(0 4.53889e-07 -0.000998926)
(0 3.06113e-07 -0.000999026)
(0 2.01437e-07 -0.000999131)
(0 1.27969e-07 -0.000999236)
(0 7.69922e-08 -0.000999335)
(0 4.21605e-08 -0.000999427)
(0 1.89363e-08 -0.000999509)
(0 3.97332e-09 -0.000999582)
(0 -5.33552e-09 -0.000999646)
(0 -1.08426e-08 -0.000999703)
(0 -1.3781e-08 -0.000999751)
(0 -1.50241e-08 -0.000999793)
(0 -1.51894e-08 -0.000999829)
(0 -1.47067e-08 -0.000999859)
(0 -1.38719e-08 -0.000999885)
(0 -1.28854e-08 -0.000999906)
(0 -1.18815e-08 -0.000999925)
(0 -1.09477e-08 -0.000999941)
(0 -1.01395e-08 -0.000999954)
(0 -9.4761e-09 -0.000999966)
(0 -8.91156e-09 -0.000999978)
(0 -8.59626e-09 -0.000999986)
)
;
    }
    procBoundary2to0
    {
        type            processor;
        value           nonuniform List<vector> 
90
(
(1.76514e-09 -4.1642e-09 -0.000999989)
(2.72294e-09 -7.80458e-09 -0.000999988)
(3.94799e-09 -1.2277e-08 -0.000999987)
(5.26669e-09 -1.73919e-08 -0.000999985)
(6.65958e-09 -2.33626e-08 -0.000999981)
(8.12271e-09 -3.04892e-08 -0.000999977)
(9.64137e-09 -3.91401e-08 -0.000999971)
(1.118e-08 -4.97704e-08 -0.000999963)
(1.26728e-08 -6.29432e-08 -0.000999954)
(1.40136e-08 -7.93663e-08 -0.000999941)
(1.50401e-08 -9.99314e-08 -0.000999924)
(1.55108e-08 -1.25768e-07 -0.000999903)
(1.50723e-08 -1.58314e-07 -0.000999876)
(1.32166e-08 -1.99402e-07 -0.00099984)
(9.22588e-09 -2.51375e-07 -0.000999795)
(2.10164e-09 -3.17228e-07 -0.000999735)
(-9.53227e-09 -4.00795e-07 -0.000999659)
(-2.77672e-08 -5.07094e-07 -0.000999558)
(-5.54534e-08 -6.42571e-07 -0.000999427)
(-9.65106e-08 -8.1555e-07 -0.000999256)
(-1.5632e-07 -1.0368e-06 -0.000999032)
(-2.42257e-07 -1.32025e-06 -0.00099874)
(-3.64362e-07 -1.68401e-06 -0.000998357)
(-5.36191e-07 -2.15157e-06 -0.000997854)
(-7.76239e-07 -2.7535e-06 -0.000997196)
(-1.10952e-06 -3.5296e-06 -0.000996331)
(-1.5699e-06 -4.5317e-06 -0.000995195)
(-2.20299e-06 -5.82744e-06 -0.000993702)
(-3.07016e-06 -7.50509e-06 -0.000991738)
(-4.25388e-06 -9.68002e-06 -0.000989149)
(-5.86498e-06 -1.25034e-05 -0.000985735)
(-8.05375e-06 -1.61764e-05 -0.000981291)
(-1.10334e-05 -2.09835e-05 -0.000975644)
(-1.5134e-05 -2.73578e-05 -0.000967846)
(-2.07868e-05 -3.57903e-05 -0.000953638)
(-2.69317e-05 -4.45706e-05 -0.000933565)
(-3.27326e-05 -5.26609e-05 -0.000932306)
(-3.34784e-05 -5.28031e-05 -0.00105901)
(-3.37675e-05 -4.88119e-05 -0.000374183)
(9.11049e-05 0.000119066 -0.00194983)
(-6.34805e-06 -7.73974e-06 -0.00168934)
(-4.00993e-05 -6.6009e-05 -0.00155163)
(-3.27804e-05 -5.51319e-05 -0.00240139)
(-7.10114e-05 -5.49278e-05 -0.0021591)
(-9.34222e-05 -7.08857e-05 -0.00242437)
(-5.96923e-05 -2.78796e-05 -0.00182219)
(-7.33129e-05 3.38482e-05 -0.00259883)
(-2.95352e-05 6.53602e-05 -0.00174802)
(4.63952e-06 9.48923e-05 -0.00234291)
(-6.45803e-05 -1.20915e-05 -0.00227996)
(-4.90518e-05 -2.16343e-05 -0.00165669)
(-2.92571e-05 1.19493e-06 -0.00162279)
(-1.86681e-05 5.08347e-05 -0.00180428)
(1.77964e-05 2.35099e-05 -0.00099617)
(6.39125e-05 3.55861e-05 -0.000874818)
(6.43225e-05 3.14303e-05 -0.000911035)
(5.1495e-05 2.38336e-05 -0.000939315)
(4.02128e-05 1.7598e-05 -0.00095388)
(3.13829e-05 1.29524e-05 -0.00096419)
(2.45281e-05 9.50325e-06 -0.000972252)
(1.9204e-05 6.95171e-06 -0.000978524)
(1.50619e-05 5.06735e-06 -0.000983363)
(1.18336e-05 3.67491e-06 -0.000987095)
(9.31304e-06 2.6496e-06 -0.000989976)
(7.34155e-06 1.89764e-06 -0.000992202)
(5.79685e-06 1.34856e-06 -0.000993925)
(4.58446e-06 9.49587e-07 -0.00099526)
(3.63126e-06 6.61236e-07 -0.000996295)
(2.88059e-06 4.54065e-07 -0.000997099)
(2.28842e-06 3.06207e-07 -0.000997725)
(1.82054e-06 2.01487e-07 -0.000998213)
(1.45029e-06 1.27995e-07 -0.000998594)
(1.15685e-06 7.70063e-08 -0.000998892)
(9.23981e-07 4.2168e-08 -0.000999126)
(7.38981e-07 1.89403e-08 -0.00099931)
(5.9187e-07 3.97548e-09 -0.000999455)
(4.74708e-07 -5.33434e-09 -0.000999569)
(3.81268e-07 -1.0842e-08 -0.000999658)
(3.06687e-07 -1.37806e-08 -0.000999729)
(2.47131e-07 -1.50239e-08 -0.000999785)
(1.99569e-07 -1.51892e-08 -0.00099983)
(1.61607e-07 -1.47066e-08 -0.000999865)
(1.31354e-07 -1.38716e-08 -0.000999893)
(1.07316e-07 -1.28853e-08 -0.000999916)
(8.83168e-08 -1.18818e-08 -0.000999935)
(7.34276e-08 -1.09479e-08 -0.000999949)
(6.18934e-08 -1.01396e-08 -0.000999961)
(5.3055e-08 -9.4758e-09 -0.000999971)
(4.64669e-08 -8.91169e-09 -0.000999981)
(4.35452e-08 -8.59613e-09 -0.000999987)
)
;
    }
    procBoundary2to3
    {
        type            processor;
        value           nonuniform List<vector> 
90
(
(2.98022e-09 -2.94911e-09 -0.001)
(5.26163e-09 -5.26585e-09 -0.001)
(8.14605e-09 -8.07873e-09 -0.001)
(1.1485e-08 -1.11733e-08 -0.001)
(1.54196e-08 -1.46024e-08 -0.001)
(2.0159e-08 -1.84532e-08 -0.001)
(2.5964e-08 -2.28181e-08 -0.001)
(3.31611e-08 -2.77895e-08 -0.001)
(4.21608e-08 -3.34554e-08 -0.001)
(5.34854e-08 -3.98947e-08 -0.000999998)
(6.78041e-08 -4.71677e-08 -0.000999995)
(8.59777e-08 -5.53018e-08 -0.00099999)
(1.09117e-07 -6.42694e-08 -0.000999982)
(1.38662e-07 -7.39578e-08 -0.000999971)
(1.76476e-07 -8.4126e-08 -0.000999954)
(2.24984e-07 -9.43479e-08 -0.000999931)
(2.87335e-07 -1.03931e-07 -0.000999898)
(3.67632e-07 -1.11699e-07 -0.000999852)
(4.71225e-07 -1.159e-07 -0.000999788)
(6.05104e-07 -1.13947e-07 -0.000999698)
(7.78416e-07 -1.02079e-07 -0.000999574)
(1.00315e-06 -7.48776e-08 -0.000999403)
(1.29499e-06 -2.47107e-08 -0.00099917)
(1.67442e-06 5.89519e-08 -0.000998851)
(2.16841e-06 1.91007e-07 -0.000998417)
(2.81237e-06 3.92085e-07 -0.000997826)
(3.6529e-06 6.90779e-07 -0.000997023)
(4.75125e-06 1.12631e-06 -0.000995936)
(6.18798e-06 1.75231e-06 -0.000994466)
(8.06915e-06 2.64189e-06 -0.000992476)
(1.0535e-05 3.89477e-06 -0.000989786)
(1.3774e-05 5.64825e-06 -0.00098622)
(1.80523e-05 8.09706e-06 -0.000981697)
(2.37595e-05 1.15307e-05 -0.000975474)
(3.13344e-05 1.63332e-05 -0.000962931)
(3.98741e-05 2.20941e-05 -0.000939492)
(4.77609e-05 2.78976e-05 -0.000934106)
(5.11813e-05 3.17437e-05 -0.00111021)
(4.63413e-05 3.07081e-05 -0.000307015)
(-7.15569e-05 -4.61875e-05 -0.00210799)
(2.77381e-06 1.11589e-06 -0.00156995)
(3.70792e-05 8.85323e-06 -0.00164692)
(5.7987e-05 3.17647e-05 -0.00283374)
(-5.16316e-06 5.71818e-06 -0.00161841)
(-6.62808e-05 -4.1929e-05 -0.0026907)
(-6.05775e-05 -1.51736e-05 -0.00204867)
(-5.86835e-05 8.15311e-05 -0.0025106)
(-5.45024e-05 6.4061e-05 -0.00200432)
(-5.08607e-05 2.73276e-05 -0.00267966)
(-6.30877e-05 -3.15849e-05 -0.00162945)
(-9.01562e-05 -4.61121e-05 -0.00276285)
(-4.39327e-05 -2.18826e-05 -0.00113138)
(-3.42297e-05 -2.64668e-05 -0.00200587)
(5.65892e-06 -4.12191e-05 -0.00106907)
(-1.98798e-05 -5.00904e-05 -0.000945964)
(-1.32346e-05 -4.50046e-05 -0.000951568)
(-7.93532e-06 -3.53465e-05 -0.00097326)
(-4.52411e-06 -2.70729e-05 -0.000981669)
(-2.31585e-06 -2.07136e-05 -0.000986837)
(-8.54872e-07 -1.58585e-05 -0.000990661)
(8.14465e-08 -1.21565e-05 -0.000993492)
(6.5475e-07 -9.33006e-06 -0.000995509)
(9.86432e-07 -7.16564e-06 -0.000996942)
(1.15126e-06 -5.50765e-06 -0.000997976)
(1.20375e-06 -4.23707e-06 -0.000998714)
(1.18317e-06 -3.26302e-06 -0.000999233)
(1.11757e-06 -2.5159e-06 -0.000999591)
(1.02666e-06 -1.94243e-06 -0.000999832)
(9.24051e-07 -1.50184e-06 -0.000999988)
(8.18822e-07 -1.16298e-06 -0.00100009)
(7.16765e-07 -9.02019e-07 -0.00100014)
(6.21336e-07 -7.00779e-07 -0.00100017)
(5.34365e-07 -5.45365e-07 -0.00100018)
(4.5658e-07 -4.25156e-07 -0.00100017)
(3.8796e-07 -3.3203e-07 -0.00100017)
(3.28088e-07 -2.59773e-07 -0.00100015)
(2.76397e-07 -2.03625e-07 -0.00100014)
(2.32162e-07 -1.59934e-07 -0.00100012)
(1.94565e-07 -1.25893e-07 -0.00100011)
(1.62806e-07 -9.93423e-08 -0.00100009)
(1.36137e-07 -7.86175e-08 -0.00100008)
(1.13873e-07 -6.24379e-08 -0.00100007)
(9.5407e-08 -4.98171e-08 -0.00100006)
(8.02041e-08 -3.99964e-08 -0.00100005)
(6.78049e-08 -3.2393e-08 -0.00100004)
(5.78148e-08 -2.65594e-08 -0.00100003)
(4.98849e-08 -2.21442e-08 -0.00100003)
(4.368e-08 -1.88402e-08 -0.00100002)
(3.89921e-08 -1.63989e-08 -0.00100001)
(3.68691e-08 -1.52752e-08 -0.00100001)
)
;
    }
}


// ************************************************************************* //
