/*--------------------------------*- C++ -*----------------------------------*\
| =========                 |                                                 |
| \\      /  F ield         | OpenFOAM: The Open Source CFD Toolbox           |
|  \\    /   O peration     | Version:  5.x                                   |
|   \\  /    A nd           | Web:      www.OpenFOAM.org                      |
|    \\/     M anipulation  |                                                 |
\*---------------------------------------------------------------------------*/
FoamFile
{
    version     2.0;
    format      ascii;
    class       volScalarField;
    location    "8000";
    object      p;
}
// * * * * * * * * * * * * * * * * * * * * * * * * * * * * * * * * * * * * * //

dimensions      [0 2 -2 0 0 0 0];

internalField   nonuniform List<scalar> 
180
(
8.04448e-09
2.40597e-08
4.01469e-08
5.63036e-08
7.24134e-08
8.85346e-08
1.04661e-07
1.20782e-07
1.36882e-07
1.52939e-07
1.68921e-07
1.84789e-07
2.00499e-07
2.15998e-07
2.31228e-07
2.46127e-07
2.60626e-07
2.74659e-07
2.88155e-07
3.01045e-07
3.13261e-07
3.24737e-07
3.3541e-07
3.45217e-07
3.54099e-07
3.61995e-07
3.68842e-07
3.7457e-07
3.79098e-07
3.82332e-07
3.84155e-07
3.84423e-07
3.82957e-07
3.79539e-07
3.73896e-07
3.65702e-07
3.54561e-07
3.40002e-07
3.21469e-07
2.98311e-07
2.69769e-07
2.34965e-07
1.92889e-07
1.42376e-07
8.20927e-08
1.0509e-08
-7.41308e-08
-1.73842e-07
-2.90944e-07
-4.28104e-07
-5.88401e-07
-7.75392e-07
-9.93192e-07
-1.24656e-06
-1.54102e-06
-1.88297e-06
-2.27982e-06
-2.74019e-06
-3.27408e-06
-3.89309e-06
-4.61072e-06
-5.44262e-06
-6.40699e-06
-7.525e-06
-8.82125e-06
-1.03243e-05
-1.20676e-05
-1.40897e-05
-1.6436e-05
-1.9159e-05
-2.23203e-05
-2.5991e-05
-3.02536e-05
-3.52089e-05
-4.09916e-05
-4.77721e-05
-5.56251e-05
-6.41869e-05
-7.3232e-05
-8.59208e-05
-0.000136248
0.000459075
0.00113947
0.00156675
0.00366629
0.00608601
0.00847111
0.00939267
0.00994714
0.0111769
0.0145681
0.0169818
0.019033
0.0194296
0.0204376
0.0208909
0.0212959
0.0224122
0.0226756
0.0234849
0.0256958
0.0262426
0.0264213
0.026432
0.0264389
0.0264457
0.0264489
0.0264517
0.0264543
0.0264565
0.0264584
0.02646
0.0264614
0.0264626
0.0264636
0.0264644
0.0264651
0.0264657
0.0264663
0.0264667
0.0264671
0.0264675
0.0264678
0.026468
0.0264682
0.0264684
0.0264686
0.0264687
0.0264689
0.026469
0.0264691
0.0264692
0.0264692
0.0264693
0.0264694
0.0264694
0.0264695
0.0264695
0.0264696
0.0264696
0.0264696
0.0264697
0.0264697
0.0264697
0.0264698
0.0264698
0.0264698
0.0264698
0.0264698
0.0264699
0.0264699
0.0264699
0.0264699
0.0264699
0.02647
0.02647
0.02647
0.02647
0.02647
0.02647
0.0264701
0.0264701
0.0264701
0.0264701
0.0264701
0.0264701
0.0264701
0.0264701
0.0264701
0.0264702
0.0264702
0.0264702
0.0264702
0.0264702
0.0264702
0.0264702
0.0264702
0.0264702
0.0264702
0.0264702
)
;

boundaryField
{
    inlet
    {
        type            zeroGradient;
    }
    outlet
    {
        type            fixedValue;
        value           uniform 0;
    }
    repeat_boundary
    {
        type            zeroGradient;
    }
    procBoundary2to0
    {
        type            processor;
        value           nonuniform List<scalar> 
180
(
8.59703e-09
2.59515e-08
4.35157e-08
6.10901e-08
7.85994e-08
9.60925e-08
1.13579e-07
1.31074e-07
1.48592e-07
1.66151e-07
1.83771e-07
2.01469e-07
2.19265e-07
2.37176e-07
2.55225e-07
2.73427e-07
2.91798e-07
3.10346e-07
3.29078e-07
3.48e-07
3.67115e-07
3.86431e-07
4.05962e-07
4.25729e-07
4.45766e-07
4.66125e-07
4.86876e-07
5.08115e-07
5.29961e-07
5.52567e-07
5.76113e-07
6.00815e-07
6.26923e-07
6.54724e-07
6.84544e-07
7.1675e-07
7.51749e-07
7.9e-07
8.32014e-07
8.78365e-07
9.29698e-07
9.86744e-07
1.05034e-06
1.12144e-06
1.20114e-06
1.29073e-06
1.39168e-06
1.50572e-06
1.63484e-06
1.78138e-06
1.94804e-06
2.13795e-06
2.35476e-06
2.60267e-06
2.88655e-06
3.21204e-06
3.58564e-06
4.01488e-06
4.50849e-06
5.07655e-06
5.73078e-06
6.48478e-06
7.35435e-06
8.35785e-06
9.51669e-06
1.08558e-05
1.24042e-05
1.4196e-05
1.62706e-05
1.86744e-05
2.14614e-05
2.4696e-05
2.84553e-05
3.28253e-05
3.788e-05
4.36886e-05
5.05734e-05
5.97144e-05
7.1982e-05
8.00664e-05
2.08232e-05
0.000985184
0.00160657
0.00182725
0.00246383
0.00365251
0.00564615
0.00661724
0.0107693
0.0133353
0.0145819
0.0149735
0.0157181
0.0175984
0.0183368
0.0199115
0.0210092
0.0218283
0.0228797
0.0235519
0.0245872
0.0258905
0.026174
0.0264264
0.0265339
0.0265036
0.026495
0.0264917
0.0264887
0.0264858
0.0264833
0.0264812
0.0264794
0.0264779
0.0264766
0.0264755
0.0264746
0.0264738
0.0264732
0.0264726
0.0264722
0.0264718
0.0264714
0.0264711
0.0264709
0.0264707
0.0264705
0.0264704
0.0264703
0.0264702
0.0264701
0.02647
0.02647
0.0264699
0.0264699
0.0264699
0.0264699
0.0264698
0.0264698
0.0264698
0.0264698
0.0264698
0.0264698
0.0264699
0.0264699
0.0264699
0.0264699
0.0264699
0.0264699
0.0264699
0.0264699
0.02647
0.02647
0.02647
0.02647
0.02647
0.02647
0.02647
0.02647
0.0264701
0.0264701
0.0264701
0.0264701
0.0264701
0.0264701
0.0264701
0.0264701
0.0264701
0.0264702
0.0264702
0.0264702
0.0264702
0.0264702
0.0264702
0.0264702
0.0264702
0.0264702
0.0264702
0.0264702
0.0264702
)
;
    }
    procBoundary2to3
    {
        type            processor;
        value           nonuniform List<scalar> 
180
(
8.19965e-09
2.46832e-08
4.13323e-08
5.79719e-08
7.45149e-08
9.09927e-08
1.07399e-07
1.23733e-07
1.39993e-07
1.56179e-07
1.7229e-07
1.88324e-07
2.04275e-07
2.2013e-07
2.35872e-07
2.51475e-07
2.66906e-07
2.82122e-07
2.97068e-07
3.11683e-07
3.25897e-07
3.39631e-07
3.52799e-07
3.65313e-07
3.77079e-07
3.88e-07
3.97979e-07
4.06918e-07
4.14715e-07
4.21264e-07
4.26456e-07
4.30167e-07
4.32262e-07
4.32583e-07
4.30945e-07
4.27126e-07
4.20861e-07
4.11831e-07
3.99656e-07
3.83882e-07
3.63976e-07
3.39314e-07
3.09169e-07
2.72705e-07
2.28961e-07
1.76841e-07
1.15095e-07
4.23067e-08
-4.31351e-08
-1.43057e-07
-2.59538e-07
-3.94947e-07
-5.51988e-07
-7.33755e-07
-9.4379e-07
-1.18615e-06
-1.4655e-06
-1.78718e-06
-2.15732e-06
-2.58297e-06
-3.07218e-06
-3.6342e-06
-4.27962e-06
-5.02052e-06
-5.87074e-06
-6.84608e-06
-7.9646e-06
-9.24689e-06
-1.07165e-05
-1.24003e-05
-1.43288e-05
-1.65357e-05
-1.90586e-05
-2.19466e-05
-2.52752e-05
-2.9109e-05
-3.32609e-05
-3.69938e-05
-4.05911e-05
-5.53878e-05
-9.89582e-05
0.000662698
0.00115357
0.00161898
0.00477081
0.00593731
0.00919842
0.0116759
0.0123376
0.014266
0.0152658
0.0154133
0.0174391
0.0206562
0.020762
0.0216475
0.0219821
0.0222717
0.0234332
0.0238306
0.0241933
0.0253162
0.0264649
0.0264431
0.0264525
0.0264563
0.0264565
0.0264574
0.0264586
0.0264599
0.0264609
0.0264619
0.0264627
0.0264635
0.0264642
0.0264648
0.0264653
0.0264658
0.0264663
0.0264667
0.026467
0.0264673
0.0264676
0.0264679
0.0264681
0.0264683
0.0264684
0.0264686
0.0264687
0.0264689
0.026469
0.0264691
0.0264692
0.0264692
0.0264693
0.0264694
0.0264694
0.0264695
0.0264695
0.0264696
0.0264696
0.0264696
0.0264697
0.0264697
0.0264697
0.0264698
0.0264698
0.0264698
0.0264698
0.0264698
0.0264699
0.0264699
0.0264699
0.0264699
0.02647
0.02647
0.02647
0.02647
0.02647
0.02647
0.0264701
0.0264701
0.0264701
0.0264701
0.0264701
0.0264701
0.0264701
0.0264701
0.0264701
0.0264702
0.0264702
0.0264702
0.0264702
0.0264702
0.0264702
0.0264702
0.0264702
0.0264702
0.0264702
0.0264702
)
;
    }
}


// ************************************************************************* //
