/*--------------------------------*- C++ -*----------------------------------*\
| =========                 |                                                 |
| \\      /  F ield         | OpenFOAM: The Open Source CFD Toolbox           |
|  \\    /   O peration     | Version:  5.x                                   |
|   \\  /    A nd           | Web:      www.OpenFOAM.org                      |
|    \\/     M anipulation  |                                                 |
\*---------------------------------------------------------------------------*/
FoamFile
{
    version     2.0;
    format      ascii;
    class       surfaceScalarField;
    location    "8000";
    object      phi;
}
// * * * * * * * * * * * * * * * * * * * * * * * * * * * * * * * * * * * * * //

dimensions      [0 3 -1 0 0 0 0];

internalField   nonuniform List<scalar> 
179
(
-249.976
-249.976
-249.975
-249.974
-249.973
-249.971
-249.969
-249.966
-249.964
-249.961
-249.957
-249.953
-249.948
-249.943
-249.937
-249.93
-249.922
-249.914
-249.904
-249.894
-249.882
-249.869
-249.854
-249.838
-249.82
-249.8
-249.777
-249.753
-249.725
-249.694
-249.66
-249.622
-249.58
-249.533
-249.481
-249.422
-249.357
-249.285
-249.204
-249.114
-249.013
-248.901
-248.776
-248.636
-248.48
-248.306
-248.111
-247.893
-247.65
-247.378
-247.073
-246.733
-246.351
-245.924
-245.446
-244.911
-244.31
-243.637
-242.882
-242.035
-241.084
-240.016
-238.817
-237.469
-235.954
-234.251
-232.335
-230.178
-227.75
-225.016
-221.937
-218.469
-214.57
-210.204
-205.365
-200.11
-194.621
-189.267
-184.714
-181.884
-181.595
-181.363
-180.721
-180.2
-180.801
-180.328
-184.462
-183.364
-174.635
-172.028
-168.684
-174.747
-178.514
-179.723
-180.847
-182.75
-181.758
-183.281
-178.441
-178.438
-185.23
-188.074
-192.925
-196.989
-199.954
-204.485
-209.505
-214.374
-218.833
-222.808
-226.308
-229.369
-232.039
-234.365
-236.391
-238.155
-239.691
-241.027
-242.191
-243.204
-244.086
-244.854
-245.522
-246.103
-246.609
-247.05
-247.433
-247.766
-248.056
-248.309
-248.529
-248.72
-248.886
-249.031
-249.157
-249.267
-249.362
-249.445
-249.518
-249.58
-249.634
-249.682
-249.723
-249.759
-249.791
-249.819
-249.842
-249.863
-249.882
-249.897
-249.911
-249.923
-249.933
-249.942
-249.95
-249.957
-249.963
-249.968
-249.973
-249.977
-249.98
-249.983
-249.985
-249.988
-249.989
-249.991
-249.992
-249.994
-249.995
-249.995
-249.996
-249.997
-249.997
-249.998
-249.998
-249.998
-249.998
-249.999
-249.999
)
;

boundaryField
{
    inlet
    {
        type            calculated;
        value           uniform -249.999;
    }
    outlet
    {
        type            calculated;
        value           uniform 249.977;
    }
    repeat_boundary
    {
        type            calculated;
        value           uniform 0;
    }
    procBoundary2to0
    {
        type            processor;
        value           nonuniform List<scalar> 
180
(
-0.000459007
-0.000577293
-0.000773439
-0.00101799
-0.00129424
-0.00159345
-0.00191284
-0.00225309
-0.00261671
-0.00300715
-0.00342842
-0.00388495
-0.00438163
-0.00492378
-0.00551721
-0.0061683
-0.00688403
-0.00767211
-0.00854099
-0.00950001
-0.0105595
-0.0117308
-0.0130267
-0.0144611
-0.0160496
-0.0178096
-0.0197603
-0.0219231
-0.0243219
-0.0269833
-0.029937
-0.0332159
-0.036857
-0.0409012
-0.0453943
-0.0503874
-0.0559374
-0.0621078
-0.0689696
-0.0766019
-0.085093
-0.0945419
-0.105059
-0.116767
-0.129805
-0.144327
-0.160506
-0.178535
-0.198631
-0.221037
-0.246026
-0.273901
-0.305006
-0.339726
-0.378493
-0.42179
-0.470167
-0.524235
-0.584685
-0.652291
-0.727927
-0.812576
-0.907345
-1.01348
-1.1324
-1.26568
-1.41513
-1.58275
-1.77082
-1.98181
-2.21828
-2.48231
-2.77397
-3.0875
-3.40336
-3.67617
-3.82276
-3.7224
-3.20032
-2.13153
-0.12139
-0.0212599
-1.81509
-0.144881
2.50507
0.357526
5.41518
3.29642
-1.56816
-2.25032
-0.684047
3.95442
2.212
4.31724
1.94937
2.62873
0.849641
1.44524
-0.384667
0.881401
1.66931
1.64174
4.54228
2.7793
1.10487
1.72605
1.8936
1.79065
1.61027
1.4171
1.23052
1.05906
0.906707
0.773901
0.659183
0.56048
0.475726
0.403048
0.340796
0.287536
0.242022
0.203176
0.170066
0.141884
0.117934
0.0976144
0.0804057
0.0658603
0.053593
0.0432722
0.0346126
0.0273687
0.0213292
0.0163129
0.0121651
0.00875982
0.00599322
0.00372473
0.0017984
5.19267e-05
-0.00136164
-0.00198575
-0.0024594
-0.00288993
-0.00321793
-0.00345135
-0.0036024
-0.0036831
-0.00370519
-0.00367955
-0.00361599
-0.00352304
-0.00340797
-0.00327686
-0.00313469
-0.00298555
-0.00283264
-0.00267861
-0.00252571
-0.00237567
-0.00222982
-0.00208917
-0.00195441
-0.00182605
-0.00170442
-0.0015897
-0.00148198
-0.00138125
-0.00128745
-0.00120047
-0.00112015
-0.00104633
-0.000978821
-0.000917442
-0.000862015
-0.000812428
-0.000768788
-0.000731205
-0.000702517
-0.000692121
)
;
    }
    procBoundary2to3
    {
        type            processor;
        value           nonuniform List<scalar> 
180
(
-3.6862e-05
-5.30253e-05
-7.63125e-05
-0.000102985
-0.000132221
-0.000163536
-0.00019697
-0.000232782
-0.000271398
-0.00031336
-0.000359308
-0.000409974
-0.000466183
-0.000528862
-0.000599044
-0.000677883
-0.000766667
-0.000866835
-0.000980001
-0.00110798
-0.00125282
-0.00141685
-0.00160271
-0.00181339
-0.00205236
-0.00232352
-0.0026314
-0.00298115
-0.0033787
-0.00383082
-0.0043453
-0.00493102
-0.00559819
-0.00635845
-0.00722513
-0.00821348
-0.00934091
-0.0106273
-0.0120955
-0.0137714
-0.0156848
-0.0178698
-0.0203653
-0.0232159
-0.0264728
-0.0301945
-0.0344484
-0.0393113
-0.0448716
-0.0512303
-0.0585034
-0.0668236
-0.0763431
-0.0872362
-0.0997025
-0.113971
-0.130303
-0.149
-0.170407
-0.194918
-0.222987
-0.255133
-0.29195
-0.334122
-0.382431
-0.437774
-0.501177
-0.573818
-0.657032
-0.752322
-0.861282
-0.985356
-1.12508
-1.27823
-1.43624
-1.57891
-1.6667
-1.6314
-1.35319
-0.698187
-0.167871
-0.210701
1.17321
-0.376285
-1.9045
-0.8297
-1.28109
-4.39527
-7.16037
-0.356811
-2.66024
2.10887
1.55518
-3.10829
-0.825373
-0.725633
-1.84165
0.0773604
-4.45478
-0.884734
5.1223
1.20243
0.308956
1.28461
1.85944
2.80542
3.12606
3.07835
2.84832
2.55862
2.26907
2.00208
1.76336
1.55238
1.36668
1.20343
1.05994
0.933828
0.822952
0.725454
0.6397
0.564257
0.497869
0.439434
0.387986
0.342678
0.302765
0.267595
0.236594
0.209261
0.185153
0.163883
0.145112
0.128541
0.113907
0.100978
0.0895537
0.0794543
0.0705236
0.0626232
0.0556298
0.0494344
0.0439452
0.0390811
0.0347692
0.0309453
0.0275528
0.0245417
0.0218679
0.0194925
0.0173813
0.0155041
0.0138342
0.0123483
0.0110256
0.00984777
0.00879868
0.00786404
0.00703125
0.00628911
0.00562775
0.00503839
0.00451325
0.00404544
0.00362883
0.00325797
0.00292803
0.00263471
0.0023742
0.00214309
0.00193838
0.00175738
0.00159773
0.00145735
0.00133442
0.0012274
0.00113508
0.0010577
0.000996695
0.000970587
)
;
    }
}


// ************************************************************************* //
