FoamFile
{version 2.0; format ascii;class vectorField; location 0;object  v;}
356
(
( 2.70466e-07 -2.67435e-06 -1.06633e-05 )  
( -3.00435e-08 -6.43635e-07 -8.1426e-06 )  
( 5.28385e-06 6.6309e-06 -1.07395e-05 )  
( -9.02136e-08 -1.1743e-06 -1.26633e-05 )  
( 7.46007e-07 2.39679e-07 -1.30841e-05 )  
( 9.40748e-08 4.08651e-06 -1.06894e-05 )  
( -3.55266e-07 1.72774e-06 -1.07814e-05 )  
( -1.35095e-07 1.59204e-06 -1.43667e-05 )  
( -3.2809e-07 -1.34619e-06 -1.42655e-05 )  
( -1.1956e-07 2.49964e-07 -6.40137e-06 )  
( 6.82749e-06 -2.35505e-06 -1.14976e-05 )  
( 1.87106e-06 -1.06203e-06 -1.25489e-05 )  
( -5.09271e-07 2.48853e-06 -4.99368e-06 )  
( 2.35244e-06 2.90099e-06 -2.59208e-05 )  
( 2.63696e-07 -1.3168e-06 -1.17267e-05 )  
( -1.67039e-06 -2.16217e-06 -2.56255e-05 )  
( 2.46792e-06 1.38374e-07 -1.01483e-05 )  
( 1.13508e-06 4.01781e-07 -1.25114e-05 )  
( -8.76021e-07 -2.19869e-06 -1.14026e-05 )  
( -1.51377e-06 -2.34751e-07 -1.07009e-05 )  
( -1.21295e-06 9.21817e-07 -9.35805e-06 )  
( -5.44626e-08 1.58874e-06 -1.35251e-05 )  
( -2.11593e-06 1.19617e-06 -1.23199e-05 )  
( -2.13699e-06 1.68658e-06 -2.08144e-05 )  
( 2.66079e-06 -3.13973e-06 -9.01447e-06 )  
( 4.51305e-07 -1.295e-06 -1.41223e-05 )  
( 1.91692e-06 2.67392e-06 -1.12573e-05 )  
( -2.97825e-06 -1.53331e-06 -1.55102e-05 )  
( -2.04412e-07 1.05634e-06 -2.43909e-05 )  
( -2.17378e-06 2.56688e-06 -2.25308e-05 )  
( -2.04149e-06 -1.3542e-06 -2.06676e-05 )  
( -4.03406e-06 3.46468e-07 -2.72742e-05 )  
( 7.24483e-07 2.11594e-07 -1.17058e-05 )  
( 7.27909e-07 9.50851e-07 -2.31637e-05 )  
( -3.93875e-06 5.52356e-06 -2.1938e-05 )  
( 2.76664e-06 1.06802e-07 -2.46867e-05 )  
( -1.0318e-06 5.30713e-06 -2.28528e-05 )  
( 8.43867e-08 -2.48896e-06 -1.19142e-05 )  
( 1.90401e-06 2.87904e-06 -2.80615e-05 )  
( -8.02086e-07 9.71474e-07 -2.52381e-05 )  
( -3.81852e-06 3.4462e-06 -2.05372e-05 )  
( -1.58133e-06 9.85513e-06 -2.824e-05 )  
( -2.77581e-06 3.56332e-06 -3.6392e-05 )  
( 2.70848e-07 1.78728e-06 -1.92589e-05 )  
( -1.28054e-07 2.1102e-06 -2.27344e-05 )  
( -2.41953e-06 1.50759e-06 -3.18241e-05 )  
( -8.58382e-07 4.79785e-06 -2.66151e-05 )  
( 4.79459e-07 7.92731e-08 -2.29819e-05 )  
( -2.47488e-06 1.19202e-06 -2.62011e-05 )  
( 3.25543e-07 2.78069e-06 -4.39808e-05 )  
( 2.00734e-06 5.89229e-06 -3.08621e-05 )  
( -3.57412e-06 1.2659e-06 -3.83589e-05 )  
( -1.24002e-07 4.08939e-06 -2.22993e-05 )  
( -4.29323e-06 2.05551e-06 -4.11562e-05 )  
( -8.61211e-07 3.97249e-07 -3.92908e-05 )  
( -7.70871e-07 1.918e-06 -2.48911e-05 )  
( -2.45769e-07 4.82553e-06 -2.67377e-05 )  
( -3.16452e-06 3.75275e-06 -3.77941e-05 )  
( 4.32832e-08 5.78788e-07 -3.61297e-05 )  
( -9.19079e-08 9.0849e-07 -3.16908e-05 )  
( -1.62642e-06 6.76904e-06 -4.1636e-05 )  
( -7.67017e-07 -1.39921e-06 -3.29601e-05 )  
( -1.34773e-06 4.75462e-06 -2.45912e-05 )  
( -3.39594e-06 -1.39691e-06 -4.34885e-05 )  
( -5.43062e-07 2.54485e-06 -3.17143e-05 )  
( -6.54526e-07 -2.89901e-07 -3.62005e-05 )  
( 1.05607e-05 -2.02547e-06 -4.04081e-05 )  
( -6.2383e-06 1.34947e-06 -3.98563e-05 )  
( -2.89425e-06 3.84625e-06 -4.41373e-05 )  
( -7.63486e-07 1.49417e-07 -3.42862e-05 )  
( -3.30196e-07 3.42739e-06 -5.08432e-05 )  
( -2.90194e-06 2.98293e-06 -3.87804e-05 )  
( -4.58121e-06 7.66534e-07 -5.16243e-05 )  
( -2.55652e-06 1.87496e-06 -5.53741e-05 )  
( -2.51188e-06 2.12704e-06 -5.14097e-05 )  
( -5.34345e-06 1.90655e-06 -5.40552e-05 )  
( -8.4723e-06 2.12779e-06 -4.97386e-05 )  
( -1.36726e-06 2.56274e-06 -5.18821e-05 )  
( 1.19847e-07 -4.72443e-06 -5.36974e-05 )  
( -7.41421e-06 6.89504e-06 -4.42196e-05 )  
( 1.05311e-06 1.46385e-06 -4.19512e-05 )  
( -3.11361e-06 6.67877e-06 -4.52495e-05 )  
( -8.63973e-06 -4.29616e-07 -5.40281e-05 )  
( -5.99633e-06 2.08094e-06 -5.0998e-05 )  
( 2.51943e-08 3.32022e-06 -5.62668e-05 )  
( -6.41859e-06 5.52391e-06 -4.60072e-05 )  
( 7.30065e-07 4.4032e-06 -5.37272e-05 )  
( 5.6283e-06 -4.14167e-06 -4.92699e-05 )  
( -2.05446e-06 8.5975e-07 -5.93246e-05 )  
( -5.53973e-06 3.8555e-07 -4.42013e-05 )  
( 6.57e-07 -3.36672e-06 -5.22565e-05 )  
( -3.12856e-06 1.26365e-06 -7.6422e-05 )  
( 1.62724e-07 3.9336e-06 -4.7149e-05 )  
( -7.91622e-06 5.08451e-06 -6.14946e-05 )  
( 3.97622e-07 2.82091e-06 -5.16726e-05 )  
( -4.77739e-06 3.1994e-06 -6.29928e-05 )  
( 2.05688e-06 3.44479e-06 -4.73766e-05 )  
( -3.81122e-06 5.94994e-06 -5.81586e-05 )  
( -8.02454e-07 1.26732e-06 -6.61495e-05 )  
( 4.16077e-06 6.14872e-06 -6.36483e-05 )  
( -5.09807e-06 2.65733e-06 -5.54837e-05 )  
( 3.32446e-09 7.55117e-06 -5.51962e-05 )  
( 2.40306e-06 -1.72252e-06 -6.7677e-05 )  
( -7.36536e-06 3.54172e-06 -6.54744e-05 )  
( -1.30219e-06 -1.54023e-06 -6.51541e-05 )  
( -7.06235e-07 4.93427e-06 -6.52327e-05 )  
( -8.43151e-06 4.90493e-06 -6.43581e-05 )  
( -7.82251e-06 6.42386e-06 -6.66267e-05 )  
( -2.97573e-06 9.79775e-07 -6.67928e-05 )  
( -4.71917e-06 2.30694e-06 -6.97572e-05 )  
( -9.69919e-07 -1.04633e-07 -7.27911e-05 )  
( 4.14846e-06 -3.33453e-08 -6.91344e-05 )  
( -3.87193e-06 1.36662e-07 -6.43719e-05 )  
( 2.13609e-06 3.24595e-08 -6.14196e-05 )  
( 3.38111e-07 5.3051e-06 -5.05877e-05 )  
( -1.85321e-06 1.80174e-06 -7.0934e-05 )  
( -3.40807e-06 -2.648e-06 -7.33468e-05 )  
( 2.55847e-06 3.30316e-06 -5.75462e-05 )  
( -4.28921e-06 -4.6371e-06 -8.2377e-05 )  
( -1.22637e-05 -1.77746e-06 -7.72046e-05 )  
( -2.00323e-06 8.78326e-08 -8.2556e-05 )  
( -8.98652e-06 1.25992e-05 -7.48228e-05 )  
( -2.74293e-06 -7.84734e-07 -7.78444e-05 )  
( -9.60293e-06 1.2018e-05 -6.19876e-05 )  
( 2.16721e-06 -9.02132e-07 -7.53623e-05 )  
( -2.64986e-06 7.73513e-07 -7.42584e-05 )  
( -6.81157e-06 3.33408e-06 -7.70297e-05 )  
( -7.05368e-06 5.26721e-06 -6.94428e-05 )  
( -3.25653e-06 -3.18479e-06 -8.74329e-05 )  
( -5.40251e-06 8.82844e-07 -7.58712e-05 )  
( -3.41489e-06 9.12956e-07 -8.35984e-05 )  
( 3.37373e-06 -8.70685e-07 -8.25525e-05 )  
( 7.58428e-06 -3.68595e-06 -8.21673e-05 )  
( 1.21672e-07 -2.27244e-06 -6.9203e-05 )  
( -9.18456e-06 6.27781e-06 -7.40955e-05 )  
( 4.1167e-06 -5.36132e-06 -8.546e-05 )  
( -4.42721e-07 -2.12087e-07 -6.22082e-05 )  
( -2.35842e-07 -1.35072e-07 -7.27894e-05 )  
( -5.35349e-06 3.54697e-06 -7.9286e-05 )  
( -4.15903e-06 5.95459e-06 -8.1414e-05 )  
( -3.92333e-06 -2.48323e-06 -7.03291e-05 )  
( 2.17895e-06 -4.60104e-06 -8.02271e-05 )  
( 3.64596e-07 -3.34293e-06 -7.89368e-05 )  
( -4.39838e-06 -2.94219e-06 -9.27025e-05 )  
( 1.25166e-06 -6.43115e-06 -8.86789e-05 )  
( 9.28337e-07 -7.38948e-06 -9.08008e-05 )  
( -4.44815e-06 -1.48162e-06 -8.88455e-05 )  
( 2.44463e-07 -3.0499e-06 -8.65478e-05 )  
( -5.72726e-06 -4.69619e-06 -9.59588e-05 )  
( 1.1217e-06 -1.54615e-06 -8.74295e-05 )  
( -6.8299e-06 -8.47239e-07 -9.40269e-05 )  
( -2.27042e-06 -4.04277e-06 -8.0665e-05 )  
( -6.63407e-06 -3.7238e-06 -8.2652e-05 )  
( 7.18134e-08 -7.44016e-06 -9.29276e-05 )  
( -6.48545e-06 -2.43413e-06 -9.30139e-05 )  
( -6.08167e-06 -2.9204e-07 -9.01346e-05 )  
( -2.48551e-06 -2.91091e-06 -9.69161e-05 )  
( -1.14493e-06 -3.20384e-06 -9.19243e-05 )  
( -3.5296e-06 -4.55504e-06 -9.06533e-05 )  
( -5.11849e-06 -3.9594e-06 -7.70429e-05 )  
( -5.7878e-06 -7.16422e-06 -9.78355e-05 )  
( -3.48805e-06 -4.04066e-06 -0.000102042 )  
( 1.26517e-07 -5.55128e-06 -9.88003e-05 )  
( -3.71357e-06 8.92303e-07 -9.05687e-05 )  
( -8.79358e-07 -7.78348e-06 -9.02569e-05 )  
( -2.79005e-06 -4.90686e-06 -0.000100492 )  
( -5.81416e-06 -6.45368e-06 -8.93737e-05 )  
( -1.02297e-06 -5.90113e-06 -9.98214e-05 )  
( -1.69392e-07 -1.78462e-06 -9.77497e-05 )  
( -5.35445e-06 -6.07321e-06 -9.91276e-05 )  
( -6.59434e-06 -4.1708e-06 -0.00010377 )  
( -7.27762e-06 3.58397e-06 -8.98465e-05 )  
( -3.26958e-06 -9.08998e-06 -8.9354e-05 )  
( -5.32014e-06 -1.28223e-05 -0.000106165 )  
( -6.49918e-06 -7.15795e-06 -9.38586e-05 )  
( -3.15581e-06 -6.74886e-06 -0.00010522 )  
( -7.45992e-07 -1.38453e-05 -9.79764e-05 )  
( -6.08451e-06 -5.91552e-06 -9.91276e-05 )  
( -1.96426e-06 -3.69531e-06 -0.000102112 )  
( 1.59053e-06 -2.16094e-06 -9.82868e-05 )  
( -1.93736e-06 -6.2328e-06 -9.82669e-05 )  
( -1.24938e-06 -3.07103e-07 -9.80064e-05 )  
( 2.02545e-06 -5.25249e-06 -0.000100173 )  
( -6.27142e-06 -1.02909e-06 -0.000105236 )  
( -1.15836e-05 -8.45205e-06 -0.000112078 )  
( -4.06495e-07 -1.2844e-05 -0.000107454 )  
( -4.50614e-06 -5.94129e-06 -0.000107329 )  
( 1.60703e-06 -4.47319e-06 -0.000108995 )  
( -1.92522e-06 -9.57487e-06 -0.000115977 )  
( -1.57468e-06 -7.1732e-06 -0.000117732 )  
( -7.04272e-06 -6.52573e-06 -0.000111736 )  
( 1.45336e-06 -1.01673e-05 -0.000114713 )  
( -3.93914e-06 -7.53048e-06 -0.000105115 )  
( -2.11509e-06 -7.4096e-06 -0.000109045 )  
( -4.22312e-06 -3.65958e-06 -0.000106416 )  
( 4.22039e-07 -7.82932e-06 -0.000106032 )  
( -1.47671e-06 -8.32366e-06 -0.000108727 )  
( 9.9603e-07 -4.58671e-06 -0.000107409 )  
( -7.56811e-07 -8.33149e-06 -0.000110535 )  
( -2.05487e-06 -7.64928e-06 -0.000110583 )  
( -7.73659e-06 -1.1667e-06 -0.000103773 )  
( -8.93856e-07 -8.11105e-06 -0.000112408 )  
( -1.50998e-06 -5.75317e-06 -0.000109589 )  
( 5.04656e-07 -1.30376e-05 -0.000122783 )  
( -2.54306e-06 -1.27992e-05 -0.000114143 )  
( 1.29782e-07 -1.23404e-05 -0.000114444 )  
( -7.12833e-06 -1.31246e-06 -0.000112561 )  
( -3.47753e-07 -1.1228e-05 -0.000123644 )  
( -2.07619e-07 -6.42109e-06 -0.000121194 )  
( -1.40299e-05 -5.64624e-06 -0.000117059 )  
( -8.45024e-06 -4.2666e-06 -0.000115003 )  
( -2.81239e-06 -1.20478e-05 -0.000120582 )  
( -9.26658e-06 -5.67097e-06 -0.000118549 )  
( -4.08885e-06 -3.55986e-06 -0.00011558 )  
( -1.98909e-06 -1.07811e-05 -0.000120497 )  
( 5.6153e-07 -3.63395e-06 -0.000112027 )  
( -3.21986e-06 -1.581e-05 -0.000121575 )  
( -2.9825e-06 -9.79111e-06 -0.000117997 )  
( -6.75567e-06 -6.39869e-06 -0.000113422 )  
( -4.73499e-07 -1.02853e-05 -0.000116429 )  
( 4.59347e-07 -1.09137e-05 -0.000125502 )  
( -5.082e-06 -1.6877e-05 -0.000136917 )  
( 1.24872e-06 -4.25016e-06 -0.000127396 )  
( -1.34446e-06 -8.40472e-06 -0.000123309 )  
( 2.32196e-06 -1.87159e-05 -0.000124839 )  
( -1.93079e-06 -6.76702e-06 -0.000117526 )  
( -1.83306e-06 -1.33191e-05 -0.000129854 )  
( 6.73759e-07 -1.21314e-05 -0.000120103 )  
( -3.28785e-06 -8.11967e-06 -0.000129997 )  
( 2.32052e-06 -5.07342e-06 -0.000111225 )  
( 3.50306e-07 -1.34794e-05 -0.000128974 )  
( -8.9572e-06 -1.09714e-05 -0.000129609 )  
( 3.96257e-07 -4.35541e-06 -0.000111507 )  
( -1.26875e-06 -1.16229e-05 -0.00013141 )  
( -3.81503e-06 -1.20144e-05 -0.000125785 )  
( 4.6301e-07 -1.11721e-05 -0.000138819 )  
( -5.95301e-06 -1.37093e-05 -0.000139567 )  
( -4.50045e-07 -8.44415e-06 -0.000128104 )  
( 1.06912e-06 -1.14148e-05 -0.000119512 )  
( -4.629e-06 -5.17841e-06 -0.00012795 )  
( -2.02039e-07 -9.45035e-06 -0.000110788 )  
( -4.18752e-07 -1.1672e-05 -0.000131917 )  
( 3.02395e-06 -5.53304e-06 -0.000120408 )  
( -3.01311e-06 -1.1084e-05 -0.000132126 )  
( -2.61456e-06 -7.87816e-06 -0.00012699 )  
( -3.82511e-06 -9.08567e-06 -0.000126592 )  
( -8.55207e-07 -7.49887e-06 -0.00014749 )  
( 4.27836e-07 -8.98588e-06 -0.000144308 )  
( -1.91358e-06 -7.73029e-06 -0.000135477 )  
( -2.97047e-06 -7.18688e-06 -0.000130425 )  
( -3.5382e-06 -8.58375e-06 -0.000129724 )  
( -1.47935e-06 -8.17704e-06 -0.000135762 )  
( -5.56954e-06 -8.97735e-06 -0.000143817 )  
( -3.55947e-06 -4.69294e-06 -0.000136736 )  
( 2.28221e-07 -4.26101e-06 -0.000137993 )  
( -4.9641e-06 -1.53936e-05 -0.000134713 )  
( -8.64487e-06 -7.8249e-06 -0.000127007 )  
( -1.10986e-06 -7.5704e-06 -0.000142029 )  
( -7.47111e-07 -4.32763e-06 -0.000130982 )  
( -1.93502e-06 -8.37684e-06 -0.000133276 )  
( -3.07482e-06 -9.03629e-06 -0.000139308 )  
( -2.57151e-06 2.71447e-06 -0.000144517 )  
( -9.91104e-07 -8.75554e-06 -0.000146448 )  
( -7.95637e-06 -2.34193e-05 -0.000136224 )  
( -1.7119e-06 -3.16931e-06 -0.000150516 )  
( -9.66509e-06 -1.31273e-05 -0.000148312 )  
( -2.65027e-06 -3.67932e-06 -0.000148514 )  
( 1.80806e-06 -7.47667e-06 -0.000147622 )  
( 4.55455e-06 -8.57238e-06 -0.00015981 )  
( -7.06865e-06 -8.38854e-06 -0.000168982 )  
( -2.19658e-06 -8.78046e-06 -0.000149964 )  
( -1.45522e-06 -3.8577e-06 -0.000146399 )  
( 5.1983e-06 -5.05484e-06 -0.000154104 )  
( 1.71318e-06 -1.08765e-05 -0.000141714 )  
( -1.68075e-05 -5.76025e-06 -0.000154885 )  
( -5.98554e-06 -8.91628e-06 -0.000128115 )  
( -6.33945e-06 -5.81751e-07 -0.000156532 )  
( -1.79144e-06 -4.30663e-06 -0.000126063 )  
( 1.92263e-06 -1.75262e-06 -0.000159371 )  
( -1.76409e-05 -4.50543e-06 -0.00015452 )  
( 1.67966e-06 -1.41281e-05 -0.000145572 )  
( 8.55784e-06 -3.28873e-05 -0.000141227 )  
( 2.7853e-06 -2.55963e-06 -0.000156242 )  
( 2.00912e-06 -2.6205e-06 -0.000152463 )  
( 9.78863e-06 7.01907e-06 -0.000162694 )  
( -2.33802e-06 -2.00719e-06 -0.000141841 )  
( -3.18085e-06 -2.98837e-06 -0.000171706 )  
( -4.91899e-06 -5.15304e-06 -0.000139028 )  
( 4.86297e-06 -1.00536e-05 -0.000142722 )  
( -6.5805e-06 -4.61352e-07 -0.000147305 )  
( -7.06786e-06 -9.6214e-06 -0.000162813 )  
( -1.01337e-06 3.54182e-06 -0.000145879 )  
( -2.01529e-05 -1.94132e-06 -0.000161406 )  
( -1.54277e-06 5.43528e-06 -0.000157456 )  
( -2.61114e-06 -5.31781e-06 -0.00016399 )  
( 1.0793e-06 -1.09433e-05 -0.000145344 )  
( -1.71448e-06 -1.23424e-06 -0.000139188 )  
( -6.70218e-06 3.67125e-06 -0.000173188 )  
( -6.69296e-06 -1.174e-05 -0.000160758 )  
( 3.30347e-06 -1.60758e-05 -0.000142454 )  
( -7.52642e-06 -4.74371e-06 -0.000159101 )  
( 1.80226e-05 -9.10842e-06 -0.000150843 )  
( -3.26881e-06 7.05101e-06 -0.000151017 )  
( -9.93762e-06 4.65553e-06 -0.000161788 )  
( -2.47997e-06 -2.42925e-06 -0.000167208 )  
( 3.24178e-06 4.23478e-06 -0.000158648 )  
( 2.39718e-06 6.44983e-06 -0.000139798 )  
( 3.08746e-06 -2.65571e-05 -0.000143317 )  
( 5.9547e-07 -7.87421e-06 -0.000129666 )  
( 5.14449e-06 -1.29419e-05 -0.000159099 )  
( -7.54421e-07 -7.49621e-06 -0.000172693 )  
( -3.38957e-06 8.48086e-06 -0.000149255 )  
( 1.19662e-05 1.09002e-06 -0.000161788 )  
( -2.10678e-06 -9.01596e-06 -0.000179095 )  
( -2.857e-05 -1.3804e-05 -0.000156249 )  
( 9.87942e-07 5.40847e-06 -0.000165397 )  
( -6.55744e-06 -1.85815e-05 -0.000149797 )  
( -1.94819e-06 -6.31337e-06 -0.000176664 )  
( -2.03312e-07 -4.39751e-07 -0.000179801 )  
( 1.19043e-05 -1.01932e-05 -0.000175847 )  
( 1.60674e-07 1.25557e-05 -0.000164913 )  
( -1.00193e-05 1.15251e-05 -0.000155444 )  
( -3.6588e-06 3.64583e-06 -0.000178885 )  
( 1.417e-05 -6.11164e-07 -0.00015816 )  
( 1.17162e-05 2.63324e-05 -0.000161649 )  
( 1.437e-05 -5.78054e-06 -0.00015565 )  
( 1.92088e-06 2.9464e-06 -0.000177954 )  
( 1.19743e-05 6.29711e-06 -0.000164548 )  
( 1.61303e-06 -1.71747e-06 -0.000151384 )  
( -6.26576e-06 -4.63132e-06 -0.000178281 )  
( 6.09211e-06 -1.05866e-05 -0.000164 )  
( -2.40761e-05 -2.51104e-07 -0.000173483 )  
( 4.89095e-06 8.77724e-06 -0.000188546 )  
( -1.62155e-05 -4.07048e-06 -0.000147848 )  
( -1.43931e-05 3.66512e-07 -0.000177555 )  
( -2.40491e-06 -1.02005e-05 -0.000214094 )  
( -1.71349e-06 -2.57533e-06 -0.000193805 )  
( 2.04353e-05 2.93564e-05 -0.000165519 )  
( -2.07429e-06 2.01234e-05 -0.000175091 )  
( 9.41002e-07 1.02925e-05 -0.000169366 )  
( -2.24014e-06 -1.28524e-06 -0.000183179 )  
( 7.88277e-07 1.29729e-05 -0.000165905 )  
( 2.04099e-05 1.77184e-05 -0.000173874 )  
( -1.4814e-05 1.03686e-05 -0.000181917 )  
( 1.11642e-05 1.38297e-05 -0.000168206 )  
( -6.56341e-06 7.01728e-06 -0.000171974 )  
( -7.83069e-06 2.99421e-06 -0.000175431 )  
( -6.76056e-06 9.52735e-08 -0.000180607 )  
( -1.34521e-05 -2.97841e-05 -0.000205047 )  
( -4.7236e-06 -1.95982e-06 -0.000156746 )  
( -2.64071e-06 1.55962e-05 -0.000179053 )  
( 4.53161e-05 1.09269e-06 -0.00020439 )  
( 1.22738e-06 2.68212e-05 -0.000159653 )  
( -1.52238e-05 1.4362e-05 -0.000173372 )  
( 1.03793e-06 3.25277e-05 -0.000178336 )  
( 2.39297e-06 -1.10933e-06 -0.000192826 )  
)
