/*--------------------------------*- C++ -*----------------------------------*\
| =========                 |                                                 |
| \\      /  F ield         | OpenFOAM: The Open Source CFD Toolbox           |
|  \\    /   O peration     | Version:  5.x                                   |
|   \\  /    A nd           | Web:      www.OpenFOAM.org                      |
|    \\/     M anipulation  |                                                 |
\*---------------------------------------------------------------------------*/
FoamFile
{
    version     2.0;
    format      ascii;
    class       volScalarField;
    location    "0.01";
    object      p;
}
// * * * * * * * * * * * * * * * * * * * * * * * * * * * * * * * * * * * * * //

dimensions      [0 2 -2 0 0 0 0];

internalField   nonuniform List<scalar> 
2250
(
5.36757e-10
5.88402e-10
6.50387e-10
6.87968e-10
7.02833e-10
4.73489e-10
5.11879e-10
5.7457e-10
6.31735e-10
6.50574e-10
3.85049e-10
4.53474e-10
5.36259e-10
6.03714e-10
6.26999e-10
3.47769e-10
4.40694e-10
5.27425e-10
5.92191e-10
6.14457e-10
3.70756e-10
4.5387e-10
5.29539e-10
5.84596e-10
6.04577e-10
1.49718e-09
1.70234e-09
1.83542e-09
1.91685e-09
1.95349e-09
1.43525e-09
1.56484e-09
1.7236e-09
1.85898e-09
1.91425e-09
1.25959e-09
1.46635e-09
1.67746e-09
1.83693e-09
1.8986e-09
1.21597e-09
1.45458e-09
1.66808e-09
1.81574e-09
1.86793e-09
1.27642e-09
1.48032e-09
1.66828e-09
1.79003e-09
1.83443e-09
2.47592e-09
2.79142e-09
2.96784e-09
3.09576e-09
3.18208e-09
2.50735e-09
2.7379e-09
2.96631e-09
3.1445e-09
3.23049e-09
2.38491e-09
2.68392e-09
2.96772e-09
3.15635e-09
3.22021e-09
2.35754e-09
2.66586e-09
2.94435e-09
3.10644e-09
3.15298e-09
2.38665e-09
2.67168e-09
2.91601e-09
3.04681e-09
3.09381e-09
3.89353e-09
4.09449e-09
4.28354e-09
4.45477e-09
4.58111e-09
3.86692e-09
4.12475e-09
4.36661e-09
4.53603e-09
4.60283e-09
3.77724e-09
4.09139e-09
4.36856e-09
4.51857e-09
4.54599e-09
3.69083e-09
4.02621e-09
4.29399e-09
4.416e-09
4.44242e-09
3.6492e-09
3.98977e-09
4.21982e-09
4.32767e-09
4.38269e-09
5.54731e-09
5.6049e-09
5.75701e-09
5.89296e-09
5.96759e-09
5.41824e-09
5.61556e-09
5.79188e-09
5.89394e-09
5.90726e-09
5.28425e-09
5.53823e-09
5.73822e-09
5.82262e-09
5.82617e-09
5.13074e-09
5.42885e-09
5.62391e-09
5.70664e-09
5.74043e-09
5.07819e-09
5.36427e-09
5.53233e-09
5.63391e-09
5.71601e-09
7.08887e-09
7.03896e-09
7.06955e-09
7.09849e-09
7.10529e-09
6.91054e-09
6.98374e-09
7.04443e-09
7.07848e-09
7.07586e-09
6.72514e-09
6.86846e-09
6.97656e-09
7.03127e-09
7.05192e-09
6.58017e-09
6.76492e-09
6.88693e-09
6.97503e-09
7.03637e-09
6.55678e-09
6.6952e-09
6.82224e-09
6.95078e-09
7.04451e-09
8.29077e-09
8.14675e-09
8.04757e-09
8.01772e-09
8.0419e-09
8.12737e-09
8.0841e-09
8.06034e-09
8.07957e-09
8.09645e-09
7.95302e-09
7.99933e-09
8.05976e-09
8.12534e-09
8.16285e-09
7.85196e-09
7.93638e-09
8.04103e-09
8.15842e-09
8.21757e-09
7.81003e-09
7.8723e-09
8.01915e-09
8.16881e-09
8.21852e-09
8.98418e-09
8.84069e-09
8.70667e-09
8.69729e-09
8.76222e-09
8.96315e-09
8.87371e-09
8.82841e-09
8.85702e-09
8.87487e-09
8.89325e-09
8.88582e-09
8.93462e-09
9.00366e-09
9.02562e-09
8.80906e-09
8.87138e-09
8.99596e-09
9.11638e-09
9.12787e-09
8.70998e-09
8.82995e-09
9.01475e-09
9.13529e-09
9.1053e-09
9.07064e-09
9.05683e-09
9.00509e-09
9.05108e-09
9.11926e-09
9.35192e-09
9.30916e-09
9.30309e-09
9.34543e-09
9.35808e-09
9.49234e-09
9.48682e-09
9.54502e-09
9.60462e-09
9.60699e-09
9.46204e-09
9.56718e-09
9.7067e-09
9.79484e-09
9.75585e-09
9.38744e-09
9.59439e-09
9.77366e-09
9.82573e-09
9.75543e-09
8.75012e-09
8.91787e-09
9.0526e-09
9.19837e-09
9.26957e-09
9.35841e-09
9.46532e-09
9.58086e-09
9.67701e-09
9.71203e-09
9.77434e-09
9.87487e-09
9.9951e-09
1.0073e-08
1.00862e-08
9.95363e-09
1.01366e-08
1.02869e-08
1.03501e-08
1.03193e-08
1.00472e-08
1.02699e-08
1.04096e-08
1.04314e-08
1.04195e-08
8.48579e-09
8.81716e-09
9.20834e-09
9.47469e-09
9.54715e-09
9.26231e-09
9.61744e-09
9.93196e-09
1.01315e-08
1.02123e-08
9.96489e-09
1.02798e-08
1.05353e-08
1.06881e-08
1.07607e-08
1.04732e-08
1.07556e-08
1.09598e-08
1.10769e-08
1.11476e-08
1.07579e-08
1.09785e-08
1.11449e-08
1.12646e-08
1.13915e-08
8.30779e-09
8.93524e-09
9.61997e-09
1.00132e-08
1.01218e-08
9.28739e-09
9.99249e-09
1.05665e-08
1.09277e-08
1.10997e-08
1.03106e-08
1.09163e-08
1.13905e-08
1.17047e-08
1.18989e-08
1.11041e-08
1.15717e-08
1.1952e-08
1.22581e-08
1.24933e-08
1.14819e-08
1.18665e-08
1.22335e-08
1.25881e-08
1.2854e-08
8.19744e-09
9.28471e-09
1.03042e-08
1.09329e-08
1.1203e-08
9.59359e-09
1.07151e-08
1.16249e-08
1.22382e-08
1.25609e-08
1.09506e-08
1.19301e-08
1.27265e-08
1.33029e-08
1.36542e-08
1.19333e-08
1.27586e-08
1.3474e-08
1.4072e-08
1.44569e-08
1.23769e-08
1.31678e-08
1.39006e-08
1.45344e-08
1.48834e-08
8.62561e-09
1.01502e-08
1.15565e-08
1.25185e-08
1.29886e-08
1.04425e-08
1.19835e-08
1.32891e-08
1.42077e-08
1.46924e-08
1.20888e-08
1.35129e-08
1.47126e-08
1.56019e-08
1.60963e-08
1.32681e-08
1.45761e-08
1.57232e-08
1.66197e-08
1.71045e-08
1.38451e-08
1.51574e-08
1.6318e-08
1.71939e-08
1.7608e-08
9.5561e-09
1.16515e-08
1.35256e-08
1.48069e-08
1.54424e-08
1.18743e-08
1.3931e-08
1.56871e-08
1.69322e-08
1.75908e-08
1.39102e-08
1.58634e-08
1.75331e-08
1.87506e-08
1.93861e-08
1.54012e-08
1.72672e-08
1.88981e-08
2.00795e-08
2.06766e-08
1.6161e-08
1.80513e-08
1.96721e-08
2.07984e-08
2.13665e-08
1.05704e-08
1.35809e-08
1.60756e-08
1.77935e-08
1.87106e-08
1.37544e-08
1.65927e-08
1.89583e-08
2.06446e-08
2.15434e-08
1.6448e-08
1.91505e-08
2.14428e-08
2.30688e-08
2.39103e-08
1.84005e-08
2.10362e-08
2.32811e-08
2.48374e-08
2.56597e-08
1.94057e-08
2.20666e-08
2.42753e-08
2.5802e-08
2.66614e-08
1.21431e-08
1.61662e-08
1.94908e-08
2.19172e-08
2.32285e-08
1.63536e-08
2.02385e-08
2.34664e-08
2.57855e-08
2.70002e-08
1.99048e-08
2.36749e-08
2.6833e-08
2.90418e-08
3.02083e-08
2.24719e-08
2.62021e-08
2.92891e-08
3.14326e-08
3.26243e-08
2.38427e-08
2.75526e-08
3.05849e-08
3.27546e-08
3.39728e-08
1.47101e-08
1.98986e-08
2.43399e-08
2.7651e-08
2.93577e-08
2.01109e-08
2.53068e-08
2.96732e-08
3.28249e-08
3.44666e-08
2.47535e-08
2.98791e-08
3.41737e-08
3.72079e-08
3.88411e-08
2.81326e-08
3.32321e-08
3.74365e-08
4.04352e-08
4.20952e-08
2.99743e-08
3.50012e-08
3.91556e-08
4.21929e-08
4.38162e-08
1.79222e-08
2.49125e-08
3.09058e-08
3.53009e-08
3.75719e-08
2.51884e-08
3.21193e-08
3.79943e-08
4.22656e-08
4.45219e-08
3.13901e-08
3.82187e-08
4.40048e-08
4.81839e-08
5.04351e-08
3.58933e-08
4.26872e-08
4.83748e-08
5.25197e-08
5.47627e-08
3.83278e-08
4.50413e-08
5.06875e-08
5.48366e-08
5.70404e-08
2.18747e-08
3.13647e-08
3.9485e-08
4.53792e-08
4.85032e-08
3.17713e-08
4.10604e-08
4.89993e-08
5.48143e-08
5.79045e-08
4.01492e-08
4.92867e-08
5.71094e-08
6.28493e-08
6.59153e-08
4.62496e-08
5.53264e-08
6.304e-08
6.87133e-08
7.17688e-08
4.95046e-08
5.8506e-08
6.61765e-08
7.18431e-08
7.48889e-08
2.68698e-08
3.96732e-08
5.06685e-08
5.86394e-08
6.28757e-08
4.02171e-08
5.27979e-08
6.35926e-08
7.15148e-08
7.57167e-08
5.15899e-08
6.39948e-08
7.46475e-08
8.24952e-08
8.66684e-08
5.98933e-08
7.21993e-08
8.2732e-08
9.04992e-08
9.46639e-08
6.42573e-08
7.64946e-08
8.69955e-08
9.47556e-08
9.8888e-08
3.30107e-08
5.04891e-08
6.54119e-08
7.62697e-08
8.20375e-08
5.11095e-08
6.83288e-08
8.30769e-08
9.38704e-08
9.95822e-08
6.65666e-08
8.35925e-08
9.81619e-08
1.08858e-07
1.14523e-07
7.78228e-08
9.47038e-08
1.09145e-07
1.19758e-07
1.25359e-07
8.37026e-08
1.00502e-07
1.14914e-07
1.25475e-07
1.31018e-07
4.08317e-08
6.47989e-08
8.51483e-08
9.99913e-08
1.07865e-07
6.54194e-08
8.9043e-08
1.09189e-07
1.23878e-07
1.31641e-07
8.63837e-08
1.09768e-07
1.29672e-07
1.44212e-07
1.51866e-07
1.0166e-07
1.24784e-07
1.44529e-07
1.58948e-07
1.66471e-07
1.09666e-07
1.32628e-07
1.52308e-07
1.66619e-07
1.74107e-07
5.08093e-08
8.37012e-08
1.11536e-07
1.31812e-07
1.42543e-07
8.43934e-08
1.16726e-07
1.44191e-07
1.64191e-07
1.74743e-07
1.12927e-07
1.44824e-07
1.71941e-07
1.91685e-07
2.02038e-07
1.33653e-07
1.65138e-07
1.92027e-07
2.11572e-07
2.21786e-07
1.44496e-07
1.75805e-07
2.02561e-07
2.21971e-07
2.32169e-07
6.40416e-08
1.08875e-07
1.46901e-07
1.74668e-07
1.89316e-07
1.09823e-07
1.53844e-07
1.91265e-07
2.1852e-07
2.3284e-07
1.48635e-07
1.91953e-07
2.28847e-07
2.55671e-07
2.69746e-07
1.76703e-07
2.19524e-07
2.56058e-07
2.82584e-07
2.96533e-07
1.91385e-07
2.34058e-07
2.70365e-07
2.96724e-07
3.10612e-07
8.22686e-08
1.42988e-07
1.94869e-07
2.32785e-07
2.52654e-07
1.44188e-07
2.03923e-07
2.54882e-07
2.91974e-07
3.1145e-07
1.96827e-07
2.55601e-07
3.05744e-07
3.42209e-07
3.6141e-07
2.35011e-07
2.93084e-07
3.42621e-07
3.78647e-07
3.97619e-07
2.55004e-07
3.12781e-07
3.61982e-07
3.97767e-07
4.16593e-07
1.06269e-07
1.89101e-07
2.59935e-07
3.11565e-07
3.38652e-07
1.90525e-07
2.71668e-07
3.41042e-07
3.91551e-07
4.18175e-07
2.62076e-07
3.41746e-07
4.09829e-07
4.59422e-07
4.85552e-07
3.14084e-07
3.92593e-07
4.5969e-07
5.08572e-07
5.3428e-07
3.41322e-07
4.19252e-07
4.85823e-07
5.34317e-07
5.59838e-07
1.38028e-07
2.5128e-07
3.48104e-07
4.18704e-07
4.55946e-07
2.53026e-07
3.63365e-07
4.57844e-07
5.26764e-07
5.63134e-07
3.50381e-07
4.58318e-07
5.50736e-07
6.1819e-07
6.53722e-07
4.20991e-07
5.27135e-07
6.18001e-07
6.84304e-07
7.19258e-07
4.5817e-07
5.63278e-07
6.53272e-07
7.18973e-07
7.53636e-07
1.81081e-07
3.35548e-07
4.68003e-07
5.64817e-07
6.15993e-07
3.37286e-07
4.87457e-07
6.16252e-07
7.10458e-07
7.60194e-07
4.69572e-07
6.15941e-07
7.41524e-07
8.33395e-07
8.81899e-07
5.65441e-07
7.09013e-07
8.32143e-07
9.22217e-07
9.6984e-07
6.16016e-07
7.5791e-07
8.79672e-07
9.68796e-07
1.01591e-06
2.38724e-07
4.49922e-07
6.31408e-07
7.64524e-07
8.35051e-07
4.50708e-07
6.55409e-07
8.31384e-07
9.60485e-07
1.02875e-06
6.30348e-07
8.2904e-07
9.99995e-07
1.1254e-06
1.19179e-06
7.60676e-07
9.54776e-07
1.12175e-06
1.2443e-06
1.30919e-06
8.29338e-07
1.02081e-06
1.18562e-06
1.3066e-06
1.37069e-06
3.16385e-07
6.05549e-07
8.54984e-07
1.03872e-06
1.13617e-06
6.03844e-07
8.83074e-07
1.12407e-06
1.30147e-06
1.39547e-06
8.47485e-07
1.11706e-06
1.35005e-06
1.52169e-06
1.61278e-06
1.02464e-06
1.28654e-06
1.51297e-06
1.67985e-06
1.76848e-06
1.11837e-06
1.37577e-06
1.59854e-06
1.7628e-06
1.85007e-06
4.21914e-07
8.18231e-07
1.162e-06
1.41668e-06
1.55164e-06
8.10835e-07
1.19164e-06
1.52234e-06
1.7672e-06
1.89704e-06
1.14022e-06
1.50534e-06
1.82339e-06
2.05947e-06
2.18517e-06
1.38118e-06
1.73325e-06
2.04016e-06
2.26793e-06
2.3893e-06
1.51001e-06
1.85396e-06
2.15458e-06
2.37785e-06
2.49712e-06
5.6725e-07
1.11063e-06
1.58558e-06
1.94128e-06
2.1289e-06
1.09104e-06
1.60883e-06
2.06417e-06
2.40471e-06
2.58413e-06
1.53425e-06
2.02561e-06
2.46172e-06
2.78985e-06
2.96518e-06
1.86281e-06
2.33169e-06
2.74785e-06
3.05986e-06
3.22658e-06
2.0427e-06
2.49534e-06
2.90117e-06
3.20551e-06
3.36995e-06
7.76749e-07
1.51696e-06
2.17441e-06
2.67762e-06
2.9387e-06
1.47613e-06
2.16887e-06
2.80032e-06
3.27952e-06
3.52404e-06
2.06839e-06
2.71206e-06
3.31844e-06
3.7856e-06
4.03677e-06
2.51884e-06
3.12531e-06
3.69178e-06
4.12063e-06
4.34847e-06
2.77953e-06
3.34709e-06
3.90103e-06
4.31721e-06
4.54817e-06
1.11548e-06
2.0908e-06
2.99903e-06
3.72853e-06
4.09771e-06
2.03553e-06
2.89979e-06
3.79613e-06
4.48254e-06
4.78536e-06
2.82008e-06
3.57116e-06
4.45928e-06
5.16307e-06
5.55247e-06
3.44015e-06
4.15302e-06
4.9385e-06
5.52166e-06
5.81294e-06
3.85085e-06
4.43853e-06
5.24379e-06
5.80779e-06
6.15006e-06
1.80083e-06
2.90731e-06
4.14903e-06
5.2477e-06
5.85469e-06
2.97957e-06
3.74764e-06
5.13843e-06
6.13974e-06
6.31139e-06
4.02794e-06
4.42179e-06
5.96964e-06
7.15734e-06
7.90109e-06
4.84694e-06
5.41658e-06
6.56801e-06
7.29649e-06
7.54739e-06
5.61097e-06
5.64389e-06
7.10788e-06
7.79714e-06
8.39276e-06
3.53834e-06
3.99417e-06
5.6429e-06
7.26621e-06
8.8932e-06
4.87251e-06
4.37164e-06
7.0267e-06
8.44614e-06
7.50096e-06
6.38099e-06
4.45025e-06
8.03145e-06
1.02826e-05
1.19397e-05
7.15677e-06
7.02562e-06
8.70497e-06
9.35251e-06
9.25822e-06
8.88977e-06
6.36583e-06
1.0048e-05
1.03264e-05
1.17176e-05
8.17249e-06
5.43993e-06
7.74586e-06
9.4935e-06
1.4604e-05
8.31913e-06
4.32953e-06
1.03921e-05
1.17403e-05
8.22326e-06
1.07209e-05
3.20634e-06
1.1184e-05
1.5119e-05
1.9359e-05
1.03922e-05
9.82897e-06
1.14955e-05
1.20825e-05
1.08857e-05
1.43505e-05
6.94611e-06
1.55564e-05
1.31331e-05
1.68234e-05
2.88644e-05
2.07293e-05
3.05939e-05
1.98075e-05
3.93335e-05
1.5624e-05
1.24972e-05
3.05009e-05
2.75114e-05
2.2133e-05
2.19423e-05
5.97153e-06
2.60296e-05
3.59593e-05
5.02806e-05
2.05746e-05
2.05101e-05
2.20548e-05
2.41096e-05
2.02224e-05
3.05457e-05
8.68212e-06
2.76755e-05
2.22702e-05
4.80354e-05
-4.37162e-05
-4.75921e-05
-6.13071e-05
-4.86437e-05
-4.24386e-05
-8.72045e-06
-4.5093e-05
-4.8687e-05
-3.81121e-05
-5.39655e-05
-1.55554e-05
-4.40648e-05
-3.59331e-05
-3.90929e-05
-3.09795e-05
-3.21012e-05
-1.69096e-05
-3.38143e-05
-2.86952e-05
-2.65046e-05
-2.05043e-05
-2.99478e-05
-1.4394e-06
-2.12714e-05
-4.07708e-05
0.000276393
0.0001224
0.000128468
1.45099e-06
0.000238298
9.13628e-06
3.6055e-05
0.000147075
8.9796e-05
1.34692e-06
0.000118494
-5.54787e-05
6.77933e-05
0.000173844
0.000265577
9.0971e-05
0.000108489
5.55958e-05
7.58938e-05
-2.31647e-05
0.000182957
-3.944e-05
7.01625e-05
-1.22607e-05
0.000264035
0.00114451
0.001054
0.000989146
0.000800588
0.000835328
0.00100263
0.000863423
0.00101107
0.000903633
0.00138375
0.000966545
0.00123746
0.000913485
0.0010166
0.00125663
0.000835844
0.000957103
0.000981733
0.000948147
0.00135873
0.000660936
0.000914339
0.000961796
0.00122543
0.00144522
0.0017908
0.00177871
0.00149954
0.00210297
0.00187756
0.00184365
0.00194091
0.00166189
0.00199079
0.00245506
0.00194759
0.00188848
0.00171853
0.00181873
0.00218766
0.00161719
0.00165564
0.00203721
0.00195097
0.00233143
0.00114473
0.00172057
0.00180185
0.00207432
0.00200895
0.002424
0.00260832
0.00340228
0.00345377
0.00341027
0.00236198
0.00279767
0.00283173
0.00307817
0.00336533
0.00260222
0.00268151
0.00339582
0.0031631
0.00319548
0.0024958
0.00305342
0.00303262
0.00295723
0.00307515
0.00273535
0.00245362
0.00269464
0.00272223
0.00267046
0.00289392
0.0034395
0.00397261
0.00386574
0.00403907
0.00346233
0.00356446
0.0037757
0.0038152
0.00378629
0.00298844
0.00382376
0.00396663
0.00388406
0.00360662
0.00375553
0.00402373
0.00407932
0.00384678
0.00396067
0.00404136
0.0038735
0.00393429
0.00357171
0.00318455
0.00492816
0.00452724
0.00425374
0.00449506
0.00479831
0.00515795
0.00468015
0.00470805
0.00496859
0.00452026
0.00368223
0.00491016
0.00478931
0.00480055
0.00459487
0.00500144
0.00464113
0.00499712
0.00466622
0.00442671
0.00512317
0.00476161
0.0049387
0.00436365
0.00519125
0.00674374
0.00631673
0.00544801
0.00587826
0.00617838
0.0060534
0.00601127
0.00580076
0.00570653
0.005614
0.00599803
0.00605696
0.00584345
0.00587679
0.00603305
0.00609105
0.00598448
0.00565489
0.00586019
0.00504746
0.00593857
0.00586079
0.00561963
0.00574623
0.00548318
0.00682259
0.00713895
0.00771482
0.00759478
0.00733853
0.00691063
0.00696674
0.00684713
0.0066027
0.00669648
0.00746196
0.00694007
0.0066926
0.00668277
0.00658416
0.006762
0.00687029
0.00649674
0.00680698
0.00654574
0.00676948
0.00665908
0.00656127
0.00732293
0.00657433
0.00751411
0.00817319
0.0080476
0.0079761
0.00757615
0.00784195
0.00808554
0.00782075
0.00818339
0.00805153
0.0080105
0.00764093
0.00799366
0.00762389
0.00802386
0.00785814
0.00765158
0.00754301
0.00772463
0.00813194
0.00788551
0.0085372
0.00792855
0.00785756
0.00803806
0.00876949
0.00887342
0.00847159
0.00869705
0.00807178
0.00861621
0.00884676
0.00871206
0.00903998
0.00882572
0.00860415
0.00865855
0.00850841
0.00875224
0.00874862
0.00876695
0.00883668
0.00862809
0.00882558
0.00866744
0.00876984
0.00921277
0.00868054
0.00854109
0.00827541
0.00927898
0.00931547
0.00958964
0.00963915
0.0094489
0.00967621
0.00937438
0.00969197
0.00956712
0.00953841
0.00934318
0.00962269
0.00935783
0.00949115
0.00921609
0.00946085
0.00966132
0.00965266
0.00957659
0.00960532
0.00982588
0.00964771
0.00963781
0.00971408
0.00957299
0.00979792
0.00984492
0.0099524
0.00988682
0.00993976
0.00995218
0.00989401
0.00996582
0.00985178
0.00985101
0.0098216
0.00990941
0.00997597
0.00988759
0.00984467
0.00995994
0.00990918
0.00997795
0.00989689
0.009964
0.0100058
0.00988648
0.00996921
0.00991464
0.00997228
0.00992762
0.00993673
0.00989798
0.00990676
0.00992651
0.00991286
0.00993373
0.00992806
0.00991622
0.00990592
0.00992997
0.00991951
0.0099037
0.00993288
0.00992197
0.00994192
0.00991694
0.00993257
0.00992647
0.0099347
0.0099344
0.00991614
0.0099343
0.00990291
0.00992248
0.00991794
0.00991305
0.00990986
0.00990953
0.009915
0.00991506
0.00991987
0.00991922
0.00991461
0.00991251
0.00991709
0.00991535
0.00991527
0.00991506
0.00991596
0.00992323
0.00991485
0.009924
0.00991854
0.0099235
0.00992692
0.00991185
0.00992518
0.00991174
0.00992057
0.00991665
0.00991534
0.00991336
0.00991265
0.00991467
0.00991582
0.00991748
0.00991633
0.00991469
0.00991405
0.00991787
0.0099163
0.00991662
0.00991563
0.00991627
0.00991963
0.00991604
0.0099198
0.009917
0.00991919
0.0099212
0.00991494
0.00992086
0.00991485
0.00991846
0.00991588
0.00991526
0.00991436
0.00991383
0.00991435
0.00991592
0.00991619
0.00991553
0.00991487
0.00991476
0.00991722
0.00991633
0.00991636
0.00991567
0.00991598
0.00991757
0.00991628
0.0099177
0.00991636
0.00991721
0.00991821
0.00991598
0.00991827
0.00991581
0.00991716
0.00991539
0.00991499
0.00991453
0.00991419
0.00991435
0.00991576
0.00991559
0.00991525
0.00991493
0.00991491
0.00991638
0.00991598
0.00991588
0.00991553
0.00991564
0.00991658
0.0099161
0.00991655
0.00991596
0.00991624
0.00991679
0.00991607
0.00991687
0.00991591
0.00991637
0.0099151
0.00991483
0.00991456
0.00991436
0.00991436
0.0099155
0.00991529
0.00991508
0.0099149
0.00991487
0.00991585
0.00991563
0.00991552
0.00991535
0.00991536
0.00991601
0.0099158
0.0099159
0.00991565
0.00991573
0.00991612
0.00991585
0.00991609
0.00991572
0.00991586
0.00991493
0.00991474
0.00991457
0.00991445
0.00991441
0.00991525
0.00991509
0.00991495
0.00991484
0.00991481
0.0099155
0.00991536
0.00991527
0.00991517
0.00991515
0.00991564
0.00991553
0.0099155
0.0099154
0.0099154
0.00991571
0.00991558
0.00991563
0.00991549
0.00991552
0.00991483
0.0099147
0.00991458
0.0099145
0.00991446
0.00991508
0.00991496
0.00991486
0.00991479
0.00991476
0.00991526
0.00991517
0.00991509
0.00991503
0.009915
0.00991538
0.0099153
0.00991525
0.0099152
0.00991518
0.00991543
0.00991536
0.00991534
0.00991528
0.00991527
0.00991478
0.00991468
0.00991459
0.00991453
0.0099145
0.00991495
0.00991487
0.0099148
0.00991475
0.00991472
0.00991509
0.00991503
0.00991497
0.00991493
0.0099149
0.00991519
0.00991513
0.00991509
0.00991505
0.00991503
0.00991523
0.00991518
0.00991515
0.00991511
0.0099151
0.00991474
0.00991467
0.00991461
0.00991457
0.00991454
0.00991487
0.00991481
0.00991476
0.00991472
0.0099147
0.00991498
0.00991493
0.00991488
0.00991485
0.00991483
0.00991505
0.00991501
0.00991497
0.00991494
0.00991493
0.00991508
0.00991505
0.00991501
0.00991499
0.00991498
0.00991472
0.00991467
0.00991462
0.00991459
0.00991457
0.00991481
0.00991477
0.00991473
0.0099147
0.00991469
0.00991489
0.00991486
0.00991482
0.0099148
0.00991479
0.00991495
0.00991492
0.00991489
0.00991487
0.00991485
0.00991498
0.00991495
0.00991492
0.0099149
0.00991489
0.0099147
0.00991467
0.00991463
0.00991461
0.0099146
0.00991477
0.00991474
0.00991471
0.00991469
0.00991468
0.00991483
0.00991481
0.00991478
0.00991476
0.00991475
0.00991487
0.00991485
0.00991483
0.00991481
0.0099148
0.0099149
0.00991487
0.00991485
0.00991484
0.00991483
0.00991469
0.00991467
0.00991464
0.00991463
0.00991462
0.00991475
0.00991472
0.0099147
0.00991469
0.00991468
0.00991479
0.00991477
0.00991475
0.00991474
0.00991473
0.00991482
0.0099148
0.00991479
0.00991477
0.00991477
0.00991484
0.00991482
0.0099148
0.00991479
0.00991479
0.00991469
0.00991467
0.00991465
0.00991464
0.00991463
0.00991473
0.00991471
0.0099147
0.00991468
0.00991468
0.00991476
0.00991474
0.00991473
0.00991472
0.00991471
0.00991478
0.00991477
0.00991476
0.00991475
0.00991474
0.00991479
0.00991478
0.00991477
0.00991476
0.00991476
0.00991469
0.00991467
0.00991466
0.00991465
0.00991465
0.00991471
0.0099147
0.00991469
0.00991468
0.00991468
0.00991474
0.00991473
0.00991472
0.00991471
0.0099147
0.00991476
0.00991474
0.00991473
0.00991473
0.00991472
0.00991476
0.00991475
0.00991474
0.00991474
0.00991473
0.00991469
0.00991467
0.00991467
0.00991466
0.00991466
0.00991471
0.0099147
0.00991469
0.00991468
0.00991468
0.00991472
0.00991471
0.00991471
0.0099147
0.0099147
0.00991474
0.00991473
0.00991472
0.00991471
0.00991471
0.00991474
0.00991473
0.00991473
0.00991472
0.00991472
0.00991468
0.00991468
0.00991467
0.00991467
0.00991466
0.0099147
0.00991469
0.00991469
0.00991468
0.00991468
0.00991471
0.00991471
0.0099147
0.0099147
0.00991469
0.00991472
0.00991471
0.00991471
0.00991471
0.0099147
0.00991473
0.00991472
0.00991471
0.00991471
0.00991471
0.00991468
0.00991468
0.00991467
0.00991467
0.00991467
0.00991469
0.00991469
0.00991468
0.00991468
0.00991468
0.0099147
0.0099147
0.00991469
0.00991469
0.00991469
0.00991471
0.00991471
0.0099147
0.0099147
0.0099147
0.00991471
0.00991471
0.00991471
0.0099147
0.0099147
0.00991468
0.00991468
0.00991468
0.00991467
0.00991467
0.00991469
0.00991469
0.00991468
0.00991468
0.00991468
0.0099147
0.00991469
0.00991469
0.00991469
0.00991469
0.0099147
0.0099147
0.0099147
0.00991469
0.00991469
0.00991471
0.0099147
0.0099147
0.0099147
0.00991469
0.00991468
0.00991468
0.00991468
0.00991467
0.00991467
0.00991469
0.00991469
0.00991468
0.00991468
0.00991468
0.00991469
0.00991469
0.00991469
0.00991469
0.00991468
0.0099147
0.00991469
0.00991469
0.00991469
0.00991469
0.0099147
0.0099147
0.00991469
0.00991469
0.00991469
0.00991468
0.00991468
0.00991468
0.00991468
0.00991468
0.00991469
0.00991468
0.00991468
0.00991468
0.00991468
0.00991469
0.00991469
0.00991469
0.00991468
0.00991468
0.00991469
0.00991469
0.00991469
0.00991469
0.00991469
0.00991469
0.00991469
0.00991469
0.00991469
0.00991469
0.00991468
0.00991468
0.00991468
0.00991468
0.00991468
0.00991468
0.00991468
0.00991468
0.00991468
0.00991468
0.00991469
0.00991468
0.00991468
0.00991468
0.00991468
0.00991469
0.00991469
0.00991469
0.00991468
0.00991468
0.00991469
0.00991469
0.00991469
0.00991469
0.00991468
0.00991468
0.00991468
0.00991468
0.00991468
0.00991468
0.00991468
0.00991468
0.00991468
0.00991468
0.00991468
0.00991468
0.00991468
0.00991468
0.00991468
0.00991468
0.00991469
0.00991468
0.00991468
0.00991468
0.00991468
0.00991469
0.00991468
0.00991468
0.00991468
0.00991468
0.00991468
0.00991468
0.00991468
0.00991468
0.00991468
0.00991468
0.00991468
0.00991468
0.00991468
0.00991468
0.00991468
0.00991468
0.00991468
0.00991468
0.00991468
0.00991468
0.00991468
0.00991468
0.00991468
0.00991468
0.00991468
0.00991468
0.00991468
0.00991468
0.00991468
0.00991468
0.00991468
0.00991468
0.00991468
0.00991468
0.00991468
0.00991468
0.00991468
0.00991468
0.00991468
0.00991468
0.00991468
0.00991468
0.00991468
0.00991468
0.00991468
0.00991468
0.00991468
0.00991468
0.00991468
0.00991468
0.00991468
0.00991468
0.00991468
0.00991468
0.00991468
0.00991468
0.00991468
0.00991468
0.00991468
0.00991468
0.00991468
0.00991468
0.00991468
0.00991468
0.00991468
0.00991468
0.00991468
0.00991468
0.00991468
0.00991468
0.00991468
0.00991468
0.00991468
0.00991468
0.00991468
0.00991468
0.00991468
0.00991468
0.00991468
0.00991468
0.00991468
0.00991468
0.00991468
0.00991468
0.00991468
0.00991468
0.00991468
0.00991468
0.00991468
0.00991468
0.00991468
0.00991468
0.00991468
0.00991468
0.00991468
0.00991468
0.00991468
0.00991468
0.00991468
0.00991468
0.00991468
0.00991468
0.00991468
0.00991468
0.00991468
0.00991468
0.00991468
0.00991468
0.00991468
0.00991468
0.00991468
0.00991468
0.00991468
0.00991468
0.00991468
0.00991468
0.00991468
0.00991468
0.00991468
0.00991468
0.00991468
0.00991468
0.00991468
0.00991468
0.00991468
0.00991468
0.00991468
0.00991468
0.00991468
0.00991468
0.00991468
0.00991468
0.00991468
0.00991468
0.00991468
0.00991468
0.00991468
0.00991468
0.00991468
0.00991468
0.00991468
0.00991468
0.00991468
0.00991468
0.00991468
0.00991468
0.00991468
0.00991468
0.00991468
0.00991468
0.00991468
0.00991468
0.00991468
0.00991468
0.00991468
0.00991468
0.00991468
0.00991468
0.00991468
0.00991468
0.00991468
0.00991468
0.00991468
0.00991468
0.00991468
0.00991468
0.00991468
0.00991468
0.00991468
0.00991468
0.00991468
0.00991468
0.00991468
0.00991468
0.00991468
0.00991468
0.00991468
0.00991468
0.00991468
0.00991468
0.00991468
0.00991468
0.00991468
0.00991468
0.00991468
0.00991468
0.00991468
0.00991468
0.00991468
0.00991468
0.00991468
0.00991468
0.00991468
0.00991468
0.00991468
0.00991468
0.00991468
0.00991468
0.00991468
0.00991468
0.00991468
0.00991468
0.00991468
0.00991468
0.00991468
0.00991468
0.00991468
0.00991468
0.00991468
0.00991468
0.00991468
0.00991468
0.00991468
0.00991468
0.00991468
0.00991468
0.00991468
0.00991468
0.00991468
0.00991468
0.00991468
0.00991468
0.00991468
0.00991468
0.00991468
0.00991468
0.00991468
0.00991468
0.00991468
0.00991468
0.00991468
0.00991468
0.00991468
0.00991468
0.00991468
0.00991468
0.00991468
0.00991468
0.00991468
0.00991468
0.00991468
0.00991468
0.00991468
0.00991468
0.00991468
0.00991468
0.00991468
0.00991468
0.00991468
0.00991468
0.00991468
0.00991468
0.00991468
0.00991468
0.00991468
0.00991468
0.00991468
0.00991468
0.00991468
0.00991468
0.00991468
0.00991468
0.00991468
0.00991468
0.00991468
0.00991468
0.00991468
0.00991468
0.00991468
0.00991468
0.00991468
0.00991468
0.00991468
0.00991468
0.00991468
0.00991468
0.00991468
0.00991468
0.00991468
0.00991468
0.00991468
0.00991468
0.00991468
0.00991468
0.00991468
0.00991468
0.00991468
0.00991468
0.00991468
0.00991468
0.00991468
0.00991468
0.00991468
0.00991468
0.00991468
0.00991468
0.00991468
0.00991468
0.00991468
0.00991468
0.00991468
0.00991468
0.00991468
0.00991468
0.00991468
0.00991468
0.00991468
0.00991468
0.00991468
0.00991468
0.00991468
0.00991468
0.00991468
0.00991468
0.00991468
0.00991468
0.00991468
0.00991468
0.00991468
0.00991468
0.00991468
0.00991468
0.00991468
0.00991468
0.00991468
0.00991468
0.00991468
0.00991468
0.00991468
0.00991468
0.00991468
0.00991468
0.00991468
0.00991468
0.00991468
0.00991468
0.00991468
0.00991468
0.00991468
0.00991468
0.00991468
0.00991468
0.00991468
0.00991468
0.00991468
0.00991468
0.00991468
0.00991468
0.00991468
0.00991468
0.00991468
0.00991468
0.00991468
0.00991468
0.00991468
0.00991468
0.00991468
0.00991468
0.00991468
0.00991468
0.00991468
0.00991468
0.00991468
0.00991468
0.00991468
0.00991468
0.00991468
0.00991468
0.00991468
0.00991468
0.00991468
0.00991468
0.00991468
0.00991468
0.00991468
0.00991468
0.00991468
0.00991468
0.00991468
)
;

boundaryField
{
    inlet
    {
        type            zeroGradient;
    }
    outlet
    {
        type            fixedValue;
        value           uniform 0;
    }
    repeat_boundary
    {
        type            zeroGradient;
    }
    procBoundary3to1
    {
        type            processor;
        value           nonuniform List<scalar> 
450
(
4.62326e-10
5.77072e-10
6.67889e-10
7.02536e-10
7.05305e-10
1.45065e-09
1.65759e-09
1.83074e-09
1.91077e-09
1.93326e-09
2.73303e-09
2.81699e-09
2.92878e-09
3.0374e-09
3.11504e-09
4.19295e-09
4.15692e-09
4.21651e-09
4.35671e-09
4.4779e-09
5.41829e-09
5.53458e-09
5.63508e-09
5.76369e-09
5.83973e-09
6.53584e-09
6.77446e-09
6.87476e-09
6.92845e-09
6.93771e-09
7.66319e-09
7.75683e-09
7.77606e-09
7.78086e-09
7.79864e-09
8.5514e-09
8.39285e-09
8.3381e-09
8.35955e-09
8.414e-09
8.83036e-09
8.59394e-09
8.53534e-09
8.60419e-09
8.66909e-09
8.33718e-09
8.38363e-09
8.48028e-09
8.64876e-09
8.72858e-09
7.48754e-09
8.0364e-09
8.45971e-09
8.77099e-09
8.87222e-09
6.80396e-09
7.83504e-09
8.60224e-09
9.05211e-09
9.21171e-09
6.37824e-09
7.87909e-09
8.96738e-09
9.63194e-09
9.95305e-09
6.27202e-09
8.26991e-09
9.78429e-09
1.07861e-08
1.12941e-08
6.63686e-09
9.11907e-09
1.11346e-08
1.24875e-08
1.31664e-08
7.29217e-09
1.03869e-08
1.29307e-08
1.47019e-08
1.56826e-08
7.99521e-09
1.20459e-08
1.53731e-08
1.78093e-08
1.92014e-08
8.85003e-09
1.42615e-08
1.88104e-08
2.21473e-08
2.39356e-08
9.954e-09
1.72268e-08
2.34101e-08
2.79027e-08
3.02219e-08
1.1232e-08
2.10281e-08
2.93463e-08
3.54193e-08
3.85537e-08
1.2534e-08
2.57575e-08
3.69608e-08
4.51393e-08
4.93936e-08
1.37102e-08
3.16489e-08
4.68261e-08
5.78587e-08
6.3677e-08
1.48703e-08
3.91497e-08
5.98272e-08
7.48542e-08
8.28134e-08
1.60036e-08
4.89371e-08
7.71098e-08
9.76503e-08
1.08546e-07
1.68138e-08
6.18409e-08
1.00316e-07
1.28477e-07
1.43414e-07
1.72101e-08
7.89066e-08
1.31737e-07
1.70316e-07
1.90589e-07
1.7238e-08
1.01741e-07
1.74208e-07
2.26958e-07
2.54605e-07
1.72108e-08
1.32745e-07
2.3191e-07
3.04273e-07
3.42436e-07
1.67076e-08
1.74851e-07
3.10789e-07
4.10301e-07
4.62964e-07
1.46238e-08
2.3178e-07
4.18659e-07
5.55925e-07
6.28689e-07
1.11402e-08
3.09348e-07
5.67031e-07
7.57209e-07
8.58075e-07
5.97631e-09
4.16029e-07
7.72443e-07
1.03721e-06
1.17745e-06
-8.13311e-10
5.64242e-07
1.05885e-06
1.43083e-06
1.62552e-06
-5.14402e-09
7.75796e-07
1.46458e-06
1.99661e-06
2.25886e-06
9.90083e-09
1.09843e-06
2.05815e-06
2.85674e-06
3.16072e-06
1.00255e-07
1.66701e-06
2.98011e-06
4.36586e-06
4.42224e-06
4.04736e-07
2.94374e-06
4.50916e-06
7.57797e-06
6.08854e-06
1.25009e-06
6.77675e-06
7.26823e-06
1.48054e-05
7.95163e-06
1.06235e-05
2.89314e-05
2.8615e-05
3.53542e-05
1.65243e-05
-5.97012e-05
-3.45274e-05
-6.39863e-05
8.93173e-06
-4.70662e-05
7.91943e-05
0.000210795
0.000201291
0.000154518
1.09454e-06
0.000911157
0.000872857
0.00124344
0.000833509
0.00139962
0.00150964
0.00160294
0.00201524
0.00171509
0.00233628
0.00266608
0.00305751
0.00255375
0.00267337
0.0030644
0.00398263
0.00342819
0.00336498
0.00385141
0.00357432
0.00495415
0.00434402
0.00509935
0.00514854
0.00484787
0.00582218
0.00631398
0.00607378
0.00596322
0.00602163
0.00711529
0.0071318
0.00673734
0.00654859
0.0066012
0.00799654
0.00779646
0.00786275
0.00806335
0.00791029
0.00857729
0.00860631
0.0086759
0.00887978
0.00861644
0.00934117
0.00957013
0.00974734
0.00973001
0.00985019
0.00993066
0.00992285
0.0099837
0.00995063
0.00998372
0.00992752
0.00992735
0.00991688
0.00990706
0.00992285
0.0099141
0.00991907
0.00991743
0.00991176