/*--------------------------------*- C++ -*----------------------------------*\
| =========                 |                                                 |
| \\      /  F ield         | OpenFOAM: The Open Source CFD Toolbox           |
|  \\    /   O peration     | Version:  5.x                                   |
|   \\  /    A nd           | Web:      www.OpenFOAM.org                      |
|    \\/     M anipulation  |                                                 |
\*---------------------------------------------------------------------------*/
FoamFile
{
    version     2.0;
    format      ascii;
    class       volVectorField;
    location    "0.01";
    object      stored_U;
}
// * * * * * * * * * * * * * * * * * * * * * * * * * * * * * * * * * * * * * //

dimensions      [0 1 -1 0 0 0 0];

internalField   nonuniform List<vector> 
2250
(
(6.40039e-12 7.48391e-12 -0.001)
(-1.33304e-10 -8.96735e-11 -0.001)
(-6.55634e-11 -1.07528e-10 -0.001)
(-5.51488e-11 -1.07385e-10 -0.001)
(-2.30502e-11 -1.00717e-10 -0.001)
(-8.71706e-11 -1.53604e-10 -0.001)
(-8.65306e-11 -1.01873e-10 -0.001)
(-6.04559e-11 -1.03949e-10 -0.001)
(-4.60393e-11 -1.00118e-10 -0.001)
(-1.74828e-11 -9.16559e-11 -0.001)
(-9.91359e-11 -6.886e-11 -0.001)
(-8.36165e-11 -6.30601e-11 -0.001)
(-6.37899e-11 -7.06328e-11 -0.001)
(-4.30452e-11 -7.17087e-11 -0.001)
(-1.47964e-11 -6.85119e-11 -0.001)
(-1.03952e-10 -2.63595e-11 -0.001)
(-8.82873e-11 -3.23937e-11 -0.001)
(-6.9106e-11 -3.9525e-11 -0.001)
(-4.40624e-11 -4.22164e-11 -0.001)
(-1.44305e-11 -4.20387e-11 -0.001)
(-1.08077e-10 -3.53064e-12 -0.001)
(-9.65729e-11 -8.81185e-12 -0.001)
(-7.346e-11 -1.20005e-11 -0.001)
(-4.55514e-11 -1.33058e-11 -0.001)
(-1.46697e-11 -1.35475e-11 -0.001)
(-7.21021e-11 -7.07488e-11 -0.001)
(-3.35671e-10 -2.38372e-10 -0.001)
(-2.25935e-10 -2.77074e-10 -0.001)
(-1.60755e-10 -2.81117e-10 -0.001)
(-5.66707e-11 -2.70295e-10 -0.001)
(-2.32579e-10 -3.67327e-10 -0.001)
(-2.67966e-10 -2.93225e-10 -0.001)
(-1.92515e-10 -2.79623e-10 -0.001)
(-1.27339e-10 -2.57236e-10 -0.001)
(-4.22878e-11 -2.39664e-10 -0.001)
(-2.65751e-10 -2.06978e-10 -0.001)
(-2.48028e-10 -1.86562e-10 -0.001)
(-1.89975e-10 -1.9416e-10 -0.001)
(-1.21303e-10 -1.94422e-10 -0.001)
(-3.96283e-11 -1.92484e-10 -0.001)
(-2.90019e-10 -9.09133e-11 -0.001)
(-2.55189e-10 -1.03823e-10 -0.001)
(-2.00377e-10 -1.16284e-10 -0.001)
(-1.26049e-10 -1.2232e-10 -0.001)
(-4.07227e-11 -1.22731e-10 -0.001)
(-3.04262e-10 -2.00942e-11 -0.001)
(-2.72827e-10 -3.25682e-11 -0.001)
(-2.08051e-10 -3.82492e-11 -0.001)
(-1.27738e-10 -4.06322e-11 -0.001)
(-4.01887e-11 -4.00989e-11 -0.001)
(-4.33742e-10 -4.32304e-10 -0.001)
(-4.40833e-10 -4.53797e-10 -0.001)
(-3.58332e-10 -4.53684e-10 -0.001)
(-2.25153e-10 -4.54974e-10 -0.001)
(-6.87353e-11 -4.54162e-10 -0.001)
(-4.55559e-10 -4.53394e-10 -0.001)
(-4.21389e-10 -4.37677e-10 -0.001)
(-3.32125e-10 -4.2582e-10 -0.001)
(-2.06577e-10 -4.10121e-10 -0.001)
(-6.51175e-11 -4.10662e-10 -0.001)
(-4.60698e-10 -3.25559e-10 -0.001)
(-4.13246e-10 -3.25957e-10 -0.001)
(-3.30783e-10 -3.30651e-10 -0.001)
(-2.10859e-10 -3.34882e-10 -0.001)
(-7.00897e-11 -3.41898e-10 -0.001)
(-4.8367e-10 -1.87409e-10 -0.001)
(-4.26456e-10 -2.04778e-10 -0.001)
(-3.4105e-10 -2.14031e-10 -0.001)
(-2.18505e-10 -2.2037e-10 -0.001)
(-7.27788e-11 -2.19169e-10 -0.001)
(-4.93352e-10 -6.09455e-11 -0.001)
(-4.38977e-10 -7.03866e-11 -0.001)
(-3.45691e-10 -7.4295e-11 -0.001)
(-2.16015e-10 -7.56825e-11 -0.001)
(-6.91792e-11 -7.20728e-11 -0.001)
(-8.46938e-10 -8.39965e-10 -0.001)
(-6.58063e-10 -7.56914e-10 -0.001)
(-5.11633e-10 -7.14933e-10 -0.001)
(-3.05162e-10 -7.10406e-10 -0.001)
(-9.26204e-11 -7.19372e-10 -0.001)
(-7.69325e-10 -6.65673e-10 -0.001)
(-6.28929e-10 -6.42001e-10 -0.001)
(-5.11532e-10 -6.3669e-10 -0.001)
(-3.22665e-10 -6.42453e-10 -0.001)
(-1.07224e-10 -6.6413e-10 -0.001)
(-7.32236e-10 -5.23508e-10 -0.001)
(-6.2908e-10 -5.26907e-10 -0.001)
(-5.12095e-10 -5.23255e-10 -0.001)
(-3.33961e-10 -5.28896e-10 -0.001)
(-1.15593e-10 -5.36378e-10 -0.001)
(-7.21202e-10 -3.47228e-10 -0.001)
(-6.28667e-10 -3.4619e-10 -0.001)
(-5.13521e-10 -3.4647e-10 -0.001)
(-3.36871e-10 -3.4771e-10 -0.001)
(-1.15758e-10 -3.40794e-10 -0.001)
(-7.12297e-10 -1.22173e-10 -0.001)
(-6.27116e-10 -1.20225e-10 -0.001)
(-5.12609e-10 -1.218e-10 -0.001)
(-3.28297e-10 -1.20291e-10 -0.001)
(-1.0914e-10 -1.1367e-10 -0.001)
(-1.0712e-09 -1.05945e-09 -0.001)
(-1.11668e-09 -1.08731e-09 -0.001)
(-7.97878e-10 -1.063e-09 -0.001)
(-4.90469e-10 -1.05872e-09 -0.001)
(-1.62563e-10 -1.06335e-09 -0.001)
(-1.10273e-09 -1.14304e-09 -0.001)
(-9.83548e-10 -1.00387e-09 -0.001)
(-7.82964e-10 -9.73014e-10 -0.001)
(-5.0241e-10 -9.70431e-10 -0.001)
(-1.7326e-10 -9.80582e-10 -0.001)
(-1.0676e-09 -8.52509e-10 -0.001)
(-9.46637e-10 -8.09481e-10 -0.001)
(-7.64456e-10 -7.84251e-10 -0.001)
(-5.00064e-10 -7.76143e-10 -0.001)
(-1.74714e-10 -7.7098e-10 -0.001)
(-1.03413e-09 -5.48909e-10 -0.001)
(-9.15276e-10 -5.23384e-10 -0.001)
(-7.49625e-10 -5.12452e-10 -0.001)
(-4.90707e-10 -5.01896e-10 -0.001)
(-1.69664e-10 -4.90179e-10 -0.001)
(-1.02174e-09 -1.84409e-10 -0.001)
(-9.08283e-10 -1.79706e-10 -0.001)
(-7.41442e-10 -1.79301e-10 -0.001)
(-4.77815e-10 -1.73057e-10 -0.001)
(-1.63662e-10 -1.67049e-10 -0.001)
(-1.40309e-09 -1.37755e-09 -0.001)
(-1.65867e-09 -1.50176e-09 -0.001)
(-1.19514e-09 -1.49526e-09 -0.001)
(-7.51914e-10 -1.48576e-09 -0.001)
(-2.56296e-10 -1.48018e-09 -0.001)
(-1.52612e-09 -1.67571e-09 -0.001)
(-1.4523e-09 -1.45857e-09 -0.001)
(-1.14007e-09 -1.39375e-09 -0.001)
(-7.30686e-10 -1.36351e-09 -0.001)
(-2.51745e-10 -1.35142e-09 -0.001)
(-1.50088e-09 -1.22418e-09 -0.001)
(-1.37672e-09 -1.14823e-09 -0.001)
(-1.1001e-09 -1.10626e-09 -0.001)
(-7.12381e-10 -1.08084e-09 -0.001)
(-2.47003e-10 -1.06684e-09 -0.001)
(-1.47366e-09 -7.66111e-10 -0.001)
(-1.33435e-09 -7.39211e-10 -0.001)
(-1.07268e-09 -7.1799e-10 -0.001)
(-6.9343e-10 -6.96333e-10 -0.001)
(-2.39913e-10 -6.88213e-10 -0.001)
(-1.46908e-09 -2.56076e-10 -0.001)
(-1.32586e-09 -2.55975e-10 -0.001)
(-1.05508e-09 -2.50328e-10 -0.001)
(-6.82614e-10 -2.40536e-10 -0.001)
(-2.39784e-10 -2.40406e-10 -0.001)
(-2.06161e-09 -2.00825e-09 -0.001)
(-2.20692e-09 -2.07706e-09 -0.001)
(-1.64664e-09 -2.06272e-09 -0.001)
(-1.03761e-09 -2.04538e-09 -0.001)
(-3.51898e-10 -2.03851e-09 -0.001)
(-2.12927e-09 -2.17097e-09 -0.001)
(-2.01232e-09 -1.97406e-09 -0.001)
(-1.58036e-09 -1.90476e-09 -0.001)
(-1.01153e-09 -1.86714e-09 -0.001)
(-3.47871e-10 -1.85459e-09 -0.001)
(-2.10549e-09 -1.62877e-09 -0.001)
(-1.94071e-09 -1.56406e-09 -0.001)
(-1.53975e-09 -1.51889e-09 -0.001)
(-9.91224e-10 -1.48672e-09 -0.001)
(-3.43115e-10 -1.47338e-09 -0.001)
(-2.08699e-09 -1.05175e-09 -0.001)
(-1.90241e-09 -1.02177e-09 -0.001)
(-1.50302e-09 -9.86737e-10 -0.001)
(-9.68998e-10 -9.61063e-10 -0.001)
(-3.3751e-10 -9.59619e-10 -0.001)
(-2.06888e-09 -3.69172e-10 -0.001)
(-1.87183e-09 -3.57389e-10 -0.001)
(-1.47606e-09 -3.42488e-10 -0.001)
(-9.64096e-10 -3.3344e-10 -0.001)
(-3.42901e-10 -3.38838e-10 -0.001)
(-2.9806e-09 -2.86913e-09 -0.001)
(-2.84427e-09 -2.8547e-09 -0.001)
(-2.21211e-09 -2.83136e-09 -0.001)
(-1.40077e-09 -2.8139e-09 -0.001)
(-4.77728e-10 -2.80725e-09 -0.001)
(-2.95719e-09 -2.74598e-09 -0.001)
(-2.74245e-09 -2.65089e-09 -0.001)
(-2.16414e-09 -2.59385e-09 -0.001)
(-1.38951e-09 -2.56474e-09 -0.001)
(-4.80522e-10 -2.55698e-09 -0.001)
(-2.93239e-09 -2.18391e-09 -0.001)
(-2.69214e-09 -2.12889e-09 -0.001)
(-2.126e-09 -2.07609e-09 -0.001)
(-1.36908e-09 -2.04239e-09 -0.00100001)
(-4.75114e-10 -2.02827e-09 -0.00100001)
(-2.89982e-09 -1.46089e-09 -0.001)
(-2.63459e-09 -1.39285e-09 -0.001)
(-2.07764e-09 -1.3431e-09 -0.00100001)
(-1.34578e-09 -1.31949e-09 -0.00100001)
(-4.70503e-10 -1.31778e-09 -0.00100001)
(-2.84849e-09 -5.23088e-10 -0.001)
(-2.5691e-09 -4.82985e-10 -0.001)
(-2.0485e-09 -4.62934e-10 -0.00100001)
(-1.34371e-09 -4.58009e-10 -0.00100001)
(-4.751e-10 -4.6263e-10 -0.00100001)
(-4.09206e-09 -3.92863e-09 -0.001)
(-3.79104e-09 -3.89411e-09 -0.001)
(-2.97766e-09 -3.86669e-09 -0.001)
(-1.91033e-09 -3.85009e-09 -0.001)
(-6.60871e-10 -3.83348e-09 -0.00100001)
(-4.0539e-09 -3.64218e-09 -0.001)
(-3.71992e-09 -3.57446e-09 -0.001)
(-2.94585e-09 -3.52813e-09 -0.00100001)
(-1.89878e-09 -3.50369e-09 -0.00100001)
(-6.57674e-10 -3.48464e-09 -0.00100001)
(-4.02313e-09 -2.94189e-09 -0.001)
(-3.67699e-09 -2.87274e-09 -0.00100001)
(-2.90693e-09 -2.81676e-09 -0.00100001)
(-1.87388e-09 -2.78416e-09 -0.00100001)
(-6.48846e-10 -2.76445e-09 -0.00100001)
(-3.96647e-09 -1.95405e-09 -0.001)
(-3.59473e-09 -1.857e-09 -0.00100001)
(-2.85727e-09 -1.81076e-09 -0.00100001)
(-1.85204e-09 -1.79274e-09 -0.00100001)
(-6.43541e-10 -1.78365e-09 -0.00100001)
(-3.90275e-09 -6.82879e-10 -0.001)
(-3.52657e-09 -6.35019e-10 -0.00100001)
(-2.83697e-09 -6.21928e-10 -0.00100001)
(-1.84665e-09 -6.20434e-10 -0.00100001)
(-6.42073e-10 -6.19011e-10 -0.00100001)
(-5.47891e-09 -5.27607e-09 -0.001)
(-5.08302e-09 -5.29094e-09 -0.001)
(-3.99865e-09 -5.26963e-09 -0.00100001)
(-2.59032e-09 -5.25156e-09 -0.00100001)
(-9.0096e-10 -5.22059e-09 -0.00100001)
(-5.49494e-09 -4.89513e-09 -0.001)
(-5.00421e-09 -4.80923e-09 -0.00100001)
(-3.97476e-09 -4.78016e-09 -0.00100001)
(-2.56471e-09 -4.75591e-09 -0.00100001)
(-8.84536e-10 -4.71686e-09 -0.00100001)
(-5.4626e-09 -3.89797e-09 -0.00100001)
(-4.96805e-09 -3.83353e-09 -0.00100001)
(-3.9454e-09 -3.79998e-09 -0.00100001)
(-2.53655e-09 -3.77282e-09 -0.00100001)
(-8.71449e-10 -3.74527e-09 -0.00100001)
(-5.41103e-09 -2.51723e-09 -0.00100001)
(-4.90616e-09 -2.45794e-09 -0.00100001)
(-3.91405e-09 -2.43691e-09 -0.00100001)
(-2.51752e-09 -2.42152e-09 -0.00100001)
(-8.64523e-10 -2.40156e-09 -0.00100001)
(-5.37382e-09 -8.56377e-10 -0.00100001)
(-4.87791e-09 -8.39704e-10 -0.00100001)
(-3.90115e-09 -8.37911e-10 -0.00100001)
(-2.501e-09 -8.34622e-10 -0.00100001)
(-8.54624e-10 -8.24784e-10 -0.00100001)
(-7.28244e-09 -7.0586e-09 -0.001)
(-6.85842e-09 -7.16721e-09 -0.00100001)
(-5.39114e-09 -7.17387e-09 -0.00100001)
(-3.49164e-09 -7.15636e-09 -0.00100001)
(-1.20849e-09 -7.11455e-09 -0.00100001)
(-7.39327e-09 -6.63283e-09 -0.00100001)
(-6.74474e-09 -6.51257e-09 -0.00100001)
(-5.3572e-09 -6.49382e-09 -0.00100001)
(-3.44088e-09 -6.45571e-09 -0.00100001)
(-1.17811e-09 -6.39408e-09 -0.00100001)
(-7.39297e-09 -5.18248e-09 -0.00100001)
(-6.7194e-09 -5.15191e-09 -0.00100001)
(-5.33437e-09 -5.1417e-09 -0.00100001)
(-3.40479e-09 -5.11075e-09 -0.00100001)
(-1.15976e-09 -5.07321e-09 -0.00100001)
(-7.38446e-09 -3.29967e-09 -0.00100001)
(-6.70386e-09 -3.30283e-09 -0.00100001)
(-5.31603e-09 -3.29458e-09 -0.00100001)
(-3.38256e-09 -3.27067e-09 -0.00100001)
(-1.15076e-09 -3.24256e-09 -0.00100001)
(-7.37786e-09 -1.12234e-09 -0.00100001)
(-6.70084e-09 -1.13583e-09 -0.00100001)
(-5.29161e-09 -1.13269e-09 -0.00100001)
(-3.35254e-09 -1.122e-09 -0.00100001)
(-1.13591e-09 -1.10721e-09 -0.00100002)
(-9.97385e-09 -9.72224e-09 -0.001)
(-9.16312e-09 -9.7566e-09 -0.00100001)
(-7.27194e-09 -9.75892e-09 -0.00100001)
(-4.67606e-09 -9.73222e-09 -0.00100001)
(-1.60546e-09 -9.68498e-09 -0.00100001)
(-1.00063e-08 -8.8997e-09 -0.00100001)
(-9.1098e-09 -8.85494e-09 -0.00100001)
(-7.22182e-09 -8.82732e-09 -0.00100001)
(-4.60742e-09 -8.7686e-09 -0.00100001)
(-1.56999e-09 -8.69636e-09 -0.00100001)
(-1.00182e-08 -7.00777e-09 -0.00100001)
(-9.09074e-09 -7.00693e-09 -0.00100001)
(-7.18572e-09 -6.98704e-09 -0.00100001)
(-4.56258e-09 -6.94293e-09 -0.00100002)
(-1.55068e-09 -6.90241e-09 -0.00100002)
(-1.00329e-08 -4.48087e-09 -0.00100001)
(-9.08894e-09 -4.49566e-09 -0.00100001)
(-7.15781e-09 -4.47097e-09 -0.00100002)
(-4.53659e-09 -4.43897e-09 -0.00100002)
(-1.54326e-09 -4.42254e-09 -0.00100002)
(-1.00199e-08 -1.54049e-09 -0.00100001)
(-9.06263e-09 -1.54765e-09 -0.00100002)
(-7.11481e-09 -1.53229e-09 -0.00100002)
(-4.51396e-09 -1.51888e-09 -0.00100002)
(-1.53999e-09 -1.51566e-09 -0.00100002)
(-1.38011e-08 -1.351e-08 -0.001)
(-1.22993e-08 -1.33655e-08 -0.00100001)
(-9.769e-09 -1.33043e-08 -0.00100001)
(-6.25239e-09 -1.32521e-08 -0.00100001)
(-2.14296e-09 -1.31962e-08 -0.00100002)
(-1.36485e-08 -1.20376e-08 -0.00100001)
(-1.22824e-08 -1.20312e-08 -0.00100001)
(-9.72801e-09 -1.19931e-08 -0.00100002)
(-6.20326e-09 -1.19394e-08 -0.00100002)
(-2.11997e-09 -1.18796e-08 -0.00100002)
(-1.36015e-08 -9.56496e-09 -0.00100001)
(-1.22548e-08 -9.55985e-09 -0.00100002)
(-9.67737e-09 -9.51606e-09 -0.00100002)
(-6.16274e-09 -9.47225e-09 -0.00100002)
(-2.10689e-09 -9.44415e-09 -0.00100002)
(-1.3579e-08 -6.14032e-09 -0.00100001)
(-1.22333e-08 -6.12648e-09 -0.00100002)
(-9.6404e-09 -6.087e-09 -0.00100002)
(-6.15018e-09 -6.07196e-09 -0.00100002)
(-2.11065e-09 -6.08148e-09 -0.00100003)
(-1.35279e-08 -2.11451e-09 -0.00100002)
(-1.21771e-08 -2.10143e-09 -0.00100002)
(-9.6037e-09 -2.08255e-09 -0.00100002)
(-6.15707e-09 -2.08383e-09 -0.00100003)
(-2.12422e-09 -2.09746e-09 -0.00100003)
(-1.87805e-08 -1.8459e-08 -0.00100001)
(-1.67163e-08 -1.82651e-08 -0.00100001)
(-1.32374e-08 -1.81571e-08 -0.00100002)
(-8.48755e-09 -1.80737e-08 -0.00100002)
(-2.91933e-09 -1.79893e-08 -0.00100002)
(-1.85739e-08 -1.65017e-08 -0.00100001)
(-1.6644e-08 -1.64192e-08 -0.00100002)
(-1.31815e-08 -1.63521e-08 -0.00100002)
(-8.44284e-09 -1.62996e-08 -0.00100003)
(-2.90085e-09 -1.62446e-08 -0.00100003)
(-1.84661e-08 -1.31074e-08 -0.00100002)
(-1.65667e-08 -1.30434e-08 -0.00100002)
(-1.31181e-08 -1.29801e-08 -0.00100003)
(-8.41252e-09 -1.29497e-08 -0.00100003)
(-2.89665e-09 -1.29328e-08 -0.00100003)
(-1.83889e-08 -8.3967e-09 -0.00100002)
(-1.65165e-08 -8.34966e-09 -0.00100003)
(-1.30878e-08 -8.31605e-09 -0.00100003)
(-8.42136e-09 -8.32975e-09 -0.00100003)
(-2.90965e-09 -8.32932e-09 -0.00100004)
(-1.83006e-08 -2.88256e-09 -0.00100002)
(-1.64531e-08 -2.85953e-09 -0.00100003)
(-1.30721e-08 -2.85192e-09 -0.00100003)
(-8.42561e-09 -2.86977e-09 -0.00100004)
(-2.90695e-09 -2.86715e-09 -0.00100004)
(-2.53276e-08 -2.49672e-08 -0.00100001)
(-2.28695e-08 -2.48383e-08 -0.00100002)
(-1.81192e-08 -2.47095e-08 -0.00100002)
(-1.1637e-08 -2.45957e-08 -0.00100003)
(-3.99895e-09 -2.44843e-08 -0.00100003)
(-2.51915e-08 -2.2649e-08 -0.00100002)
(-2.26915e-08 -2.24487e-08 -0.00100002)
(-1.79873e-08 -2.23154e-08 -0.00100003)
(-1.15502e-08 -2.22208e-08 -0.00100003)
(-3.97465e-09 -2.21531e-08 -0.00100004)
(-2.506e-08 -1.79471e-08 -0.00100002)
(-2.25358e-08 -1.78013e-08 -0.00100003)
(-1.78916e-08 -1.77041e-08 -0.00100004)
(-1.1519e-08 -1.7671e-08 -0.00100004)
(-3.97533e-09 -1.76302e-08 -0.00100004)
(-2.49463e-08 -1.14853e-08 -0.00100003)
(-2.24482e-08 -1.1403e-08 -0.00100003)
(-1.78569e-08 -1.13687e-08 -0.00100004)
(-1.15114e-08 -1.13671e-08 -0.00100005)
(-3.96885e-09 -1.13022e-08 -0.00100005)
(-2.48358e-08 -3.94061e-09 -0.00100003)
(-2.23745e-08 -3.91237e-09 -0.00100004)
(-1.78202e-08 -3.91143e-09 -0.00100004)
(-1.14522e-08 -3.91098e-09 -0.00100005)
(-3.92512e-09 -3.86736e-09 -0.00100005)
(-3.45214e-08 -3.40594e-08 -0.00100001)
(-3.11686e-08 -3.38141e-08 -0.00100002)
(-2.47553e-08 -3.3583e-08 -0.00100003)
(-1.58786e-08 -3.34242e-08 -0.00100004)
(-5.44259e-09 -3.33028e-08 -0.00100004)
(-3.42748e-08 -3.08375e-08 -0.00100002)
(-3.09285e-08 -3.05799e-08 -0.00100003)
(-2.45466e-08 -3.03636e-08 -0.00100004)
(-1.57712e-08 -3.02243e-08 -0.00100005)
(-5.4277e-09 -3.01317e-08 -0.00100005)
(-3.40502e-08 -2.44801e-08 -0.00100003)
(-3.06947e-08 -2.42615e-08 -0.00100004)
(-2.44001e-08 -2.41083e-08 -0.00100005)
(-1.5707e-08 -2.40292e-08 -0.00100006)
(-5.40997e-09 -2.3916e-08 -0.00100006)
(-3.38738e-08 -1.56873e-08 -0.00100004)
(-3.05562e-08 -1.55688e-08 -0.00100005)
(-2.43143e-08 -1.54946e-08 -0.00100006)
(-1.56266e-08 -1.54158e-08 -0.00100006)
(-5.36204e-09 -1.529e-08 -0.00100007)
(-3.37339e-08 -5.38779e-09 -0.00100004)
(-3.0441e-08 -5.35414e-09 -0.00100005)
(-2.41989e-08 -5.33318e-09 -0.00100006)
(-1.55019e-08 -5.28684e-09 -0.00100007)
(-5.30411e-09 -5.22905e-09 -0.00100007)
(-4.72251e-08 -4.66002e-08 -0.00100001)
(-4.25089e-08 -4.61017e-08 -0.00100003)
(-3.37246e-08 -4.56884e-08 -0.00100004)
(-2.16305e-08 -4.54384e-08 -0.00100005)
(-7.43219e-09 -4.52559e-08 -0.00100006)
(-4.67205e-08 -4.20231e-08 -0.00100003)
(-4.21075e-08 -4.16022e-08 -0.00100004)
(-3.34338e-08 -4.12667e-08 -0.00100006)
(-2.14865e-08 -4.10662e-08 -0.00100006)
(-7.39685e-09 -4.08803e-08 -0.00100007)
(-4.6306e-08 -3.33596e-08 -0.00100004)
(-4.17525e-08 -3.30302e-08 -0.00100006)
(-3.31892e-08 -3.27762e-08 -0.00100007)
(-2.1326e-08 -3.25893e-08 -0.00100008)
(-7.32781e-09 -3.2385e-08 -0.00100008)
(-4.60151e-08 -2.13889e-08 -0.00100005)
(-4.15235e-08 -2.12098e-08 -0.00100006)
(-3.29928e-08 -2.10451e-08 -0.00100008)
(-2.11598e-08 -2.08779e-08 -0.00100008)
(-7.25703e-09 -2.07327e-08 -0.00100009)
(-4.58024e-08 -7.34856e-09 -0.00100005)
(-4.1326e-08 -7.29712e-09 -0.00100007)
(-3.2792e-08 -7.23335e-09 -0.00100008)
(-2.10131e-08 -7.16162e-09 -0.00100009)
(-7.20958e-09 -7.11435e-09 -0.00100009)
(-6.4364e-08 -6.35161e-08 -0.00100002)
(-5.80621e-08 -6.27616e-08 -0.00100004)
(-4.60048e-08 -6.21419e-08 -0.00100006)
(-2.9539e-08 -6.17185e-08 -0.00100007)
(-1.01787e-08 -6.13792e-08 -0.00100008)
(-6.36034e-08 -5.73589e-08 -0.00100004)
(-5.73551e-08 -5.66357e-08 -0.00100006)
(-4.55244e-08 -5.60866e-08 -0.00100008)
(-2.92411e-08 -5.57211e-08 -0.00100009)
(-1.00611e-08 -5.53709e-08 -0.00100009)
(-6.29652e-08 -4.54701e-08 -0.00100006)
(-5.67898e-08 -4.49444e-08 -0.00100008)
(-4.5091e-08 -4.45072e-08 -0.00100009)
(-2.89342e-08 -4.41654e-08 -0.0010001)
(-9.93911e-09 -4.38807e-08 -0.00100011)
(-6.25158e-08 -2.91554e-08 -0.00100007)
(-5.63914e-08 -2.88435e-08 -0.00100009)
(-4.47454e-08 -2.85481e-08 -0.0010001)
(-2.8702e-08 -2.83158e-08 -0.00100012)
(-9.86394e-09 -2.81521e-08 -0.00100012)
(-6.21717e-08 -1.00171e-08 -0.00100007)
(-5.60703e-08 -9.91472e-09 -0.00100009)
(-4.44745e-08 -9.80781e-09 -0.00100011)
(-2.85375e-08 -9.73252e-09 -0.00100012)
(-9.81206e-09 -9.68089e-09 -0.00100013)
(-8.77026e-08 -8.65027e-08 -0.00100003)
(-7.91591e-08 -8.53658e-08 -0.00100006)
(-6.27753e-08 -8.44298e-08 -0.00100008)
(-4.03107e-08 -8.37314e-08 -0.00100009)
(-1.38831e-08 -8.3175e-08 -0.0010001)
(-8.65794e-08 -7.80819e-08 -0.00100005)
(-7.81125e-08 -7.70421e-08 -0.00100008)
(-6.19732e-08 -7.61668e-08 -0.0010001)
(-3.97797e-08 -7.55306e-08 -0.00100012)
(-1.36805e-08 -7.50135e-08 -0.00100013)
(-8.5617e-08 -6.19144e-08 -0.00100008)
(-7.7244e-08 -6.1101e-08 -0.0010001)
(-6.12649e-08 -6.0395e-08 -0.00100013)
(-3.93078e-08 -5.98711e-08 -0.00100014)
(-1.35161e-08 -5.94845e-08 -0.00100015)
(-8.49156e-08 -3.97267e-08 -0.00100009)
(-7.65919e-08 -3.91949e-08 -0.00100012)
(-6.07432e-08 -3.87361e-08 -0.00100014)
(-3.8988e-08 -3.84177e-08 -0.00100016)
(-1.34128e-08 -3.81835e-08 -0.00100016)
(-8.43779e-08 -1.36546e-08 -0.0010001)
(-7.61008e-08 -1.34693e-08 -0.00100013)
(-6.03673e-08 -1.33156e-08 -0.00100015)
(-3.87541e-08 -1.32138e-08 -0.00100016)
(-1.33315e-08 -1.31329e-08 -0.00100017)
(-1.19645e-07 -1.17925e-07 -0.00100004)
(-1.07871e-07 -1.16124e-07 -0.00100008)
(-8.56247e-08 -1.14631e-07 -0.00100011)
(-5.49771e-08 -1.13524e-07 -0.00100013)
(-1.8911e-08 -1.12681e-07 -0.00100014)
(-1.17881e-07 -1.06248e-07 -0.00100007)
(-1.06323e-07 -1.04721e-07 -0.00100011)
(-8.43405e-08 -1.03356e-07 -0.00100014)
(-5.41356e-08 -1.02338e-07 -0.00100016)
(-1.86191e-08 -1.01604e-07 -0.00100017)
(-1.16367e-07 -8.42812e-08 -0.00100011)
(-1.04978e-07 -8.30169e-08 -0.00100014)
(-8.32431e-08 -8.19265e-08 -0.00100017)
(-5.34297e-08 -8.11358e-08 -0.00100019)
(-1.83808e-08 -8.05657e-08 -0.0010002)
(-1.15253e-07 -5.40996e-08 -0.00100013)
(-1.03966e-07 -5.32535e-08 -0.00100016)
(-8.24594e-08 -5.25549e-08 -0.00100019)
(-5.29357e-08 -5.20629e-08 -0.00100021)
(-1.82101e-08 -5.16909e-08 -0.00100022)
(-1.14437e-07 -1.86039e-08 -0.00100014)
(-1.03226e-07 -1.83082e-08 -0.00100017)
(-8.18889e-08 -1.80702e-08 -0.0010002)
(-5.2564e-08 -1.79015e-08 -0.00100022)
(-1.80762e-08 -1.77682e-08 -0.00100023)
(-1.63127e-07 -1.60713e-07 -0.00100005)
(-1.4709e-07 -1.57899e-07 -0.0010001)
(-1.16776e-07 -1.55517e-07 -0.00100015)
(-7.49895e-08 -1.53783e-07 -0.00100018)
(-2.57824e-08 -1.52536e-07 -0.00100019)
(-1.60344e-07 -1.44728e-07 -0.0010001)
(-1.44634e-07 -1.4229e-07 -0.00100015)
(-1.14742e-07 -1.4015e-07 -0.00100019)
(-7.36673e-08 -1.38551e-07 -0.00100022)
(-2.53396e-08 -1.3746e-07 -0.00100024)
(-1.57971e-07 -1.14756e-07 -0.00100014)
(-1.42512e-07 -1.12763e-07 -0.00100019)
(-1.1304e-07 -1.11072e-07 -0.00100023)
(-7.25759e-08 -1.09842e-07 -0.00100026)
(-2.49668e-08 -1.08973e-07 -0.00100028)
(-1.56239e-07 -7.36493e-08 -0.00100017)
(-1.40947e-07 -7.23384e-08 -0.00100022)
(-1.11821e-07 -7.12531e-08 -0.00100026)
(-7.17873e-08 -7.04654e-08 -0.00100029)
(-2.46897e-08 -6.98889e-08 -0.0010003)
(-1.55014e-07 -2.53297e-08 -0.00100019)
(-1.39835e-07 -2.48759e-08 -0.00100024)
(-1.10945e-07 -2.44983e-08 -0.00100028)
(-7.12092e-08 -2.42222e-08 -0.0010003)
(-2.44817e-08 -2.4015e-08 -0.00100032)
(-2.22257e-07 -2.18898e-07 -0.00100007)
(-2.0051e-07 -2.14552e-07 -0.00100014)
(-1.59155e-07 -2.10815e-07 -0.0010002)
(-1.02203e-07 -2.08117e-07 -0.00100024)
(-3.51423e-08 -2.06287e-07 -0.00100026)
(-2.17909e-07 -1.97108e-07 -0.00100014)
(-1.96602e-07 -1.93217e-07 -0.00100021)
(-1.56006e-07 -1.89885e-07 -0.00100026)
(-1.00184e-07 -1.87434e-07 -0.0010003)
(-3.44656e-08 -1.85797e-07 -0.00100032)
(-2.14218e-07 -1.56205e-07 -0.0010002)
(-1.93286e-07 -1.53098e-07 -0.00100026)
(-1.53375e-07 -1.50476e-07 -0.00100032)
(-9.84892e-08 -1.48559e-07 -0.00100036)
(-3.38792e-08 -1.47234e-07 -0.00100038)
(-2.11558e-07 -1.00225e-07 -0.00100024)
(-1.9087e-07 -9.82222e-08 -0.0010003)
(-1.51467e-07 -9.65313e-08 -0.00100035)
(-9.72371e-08 -9.52798e-08 -0.00100039)
(-3.34365e-08 -9.44173e-08 -0.00100041)
(-2.09736e-07 -3.44668e-08 -0.00100026)
(-1.89211e-07 -3.37794e-08 -0.00100032)
(-1.50132e-07 -3.31885e-08 -0.00100037)
(-9.63714e-08 -3.27465e-08 -0.00100041)
(-3.31404e-08 -3.24517e-08 -0.00100043)
(-3.02791e-07 -2.9811e-07 -0.0010001)
(-2.73203e-07 -2.91348e-07 -0.00100019)
(-2.16805e-07 -2.85567e-07 -0.00100027)
(-1.39219e-07 -2.81383e-07 -0.00100033)
(-4.78868e-08 -2.78629e-07 -0.00100036)
(-2.96019e-07 -2.68326e-07 -0.00100019)
(-2.67092e-07 -2.62237e-07 -0.00100028)
(-2.11984e-07 -2.57093e-07 -0.00100036)
(-1.36137e-07 -2.53347e-07 -0.00100041)
(-4.68313e-08 -2.50864e-07 -0.00100044)
(-2.90303e-07 -2.1253e-07 -0.00100027)
(-2.6197e-07 -2.07752e-07 -0.00100035)
(-2.07918e-07 -2.03687e-07 -0.00100043)
(-1.33496e-07 -2.00694e-07 -0.00100048)
(-4.59103e-08 -1.98698e-07 -0.00100051)
(-2.86201e-07 -1.36337e-07 -0.00100032)
(-2.58245e-07 -1.33272e-07 -0.00100041)
(-2.04927e-07 -1.3063e-07 -0.00100048)
(-1.31547e-07 -1.28682e-07 -0.00100053)
(-4.52361e-08 -1.27421e-07 -0.00100056)
(-2.83462e-07 -4.68821e-08 -0.00100035)
(-2.55748e-07 -4.58252e-08 -0.00100044)
(-2.02921e-07 -4.49016e-08 -0.00100051)
(-1.30281e-07 -4.42281e-08 -0.00100056)
(-4.48158e-08 -4.38097e-08 -0.00100059)
(-4.12474e-07 -4.05949e-07 -0.00100014)
(-3.72091e-07 -3.95429e-07 -0.00100026)
(-2.95274e-07 -3.86494e-07 -0.00100037)
(-1.89584e-07 -3.79992e-07 -0.00100045)
(-6.52088e-08 -3.75798e-07 -0.00100049)
(-4.01981e-07 -3.65088e-07 -0.00100026)
(-3.62661e-07 -3.55702e-07 -0.00100038)
(-2.87835e-07 -3.47742e-07 -0.00100048)
(-1.84801e-07 -3.41938e-07 -0.00100056)
(-6.35539e-08 -3.38183e-07 -0.0010006)
(-3.93149e-07 -2.89045e-07 -0.00100036)
(-3.54744e-07 -2.81666e-07 -0.00100048)
(-2.81515e-07 -2.75347e-07 -0.00100058)
(-1.80709e-07 -2.70715e-07 -0.00100065)
(-6.21395e-08 -2.67754e-07 -0.00100069)
(-3.86768e-07 -1.85333e-07 -0.00100044)
(-3.48958e-07 -1.80576e-07 -0.00100055)
(-2.76884e-07 -1.76495e-07 -0.00100065)
(-1.77748e-07 -1.73531e-07 -0.00100072)
(-6.11355e-08 -1.71659e-07 -0.00100076)
(-3.82598e-07 -6.37009e-08 -0.00100048)
(-3.45209e-07 -6.20552e-08 -0.00100059)
(-2.73918e-07 -6.06508e-08 -0.00100069)
(-1.75865e-07 -5.96437e-08 -0.00100076)
(-6.04939e-08 -5.90049e-08 -0.00100079)
(-5.61725e-07 -5.52651e-07 -0.00100019)
(-5.06641e-07 -5.36381e-07 -0.00100036)
(-4.02021e-07 -5.22531e-07 -0.0010005)
(-2.58097e-07 -5.1244e-07 -0.00100061)
(-8.87758e-08 -5.06085e-07 -0.00100066)
(-5.45519e-07 -4.9654e-07 -0.00100035)
(-4.92077e-07 -4.82036e-07 -0.00100052)
(-3.90471e-07 -4.69681e-07 -0.00100066)
(-2.50663e-07 -4.60686e-07 -0.00100076)
(-8.62025e-08 -4.5503e-07 -0.00100081)
(-5.31848e-07 -3.92816e-07 -0.0010005)
(-4.79781e-07 -3.8136e-07 -0.00100065)
(-3.80676e-07 -3.71588e-07 -0.00100079)
(-2.44369e-07 -3.64481e-07 -0.00100089)
(-8.40464e-08 -3.60047e-07 -0.00100094)
(-5.21962e-07 -2.51625e-07 -0.0010006)
(-4.70842e-07 -2.44291e-07 -0.00100075)
(-3.73593e-07 -2.38048e-07 -0.00100088)
(-2.39848e-07 -2.3353e-07 -0.00100098)
(-8.24995e-08 -2.30698e-07 -0.00100103)
(-5.15713e-07 -8.64194e-08 -0.00100065)
(-4.65261e-07 -8.39134e-08 -0.0010008)
(-3.6917e-07 -8.17844e-08 -0.00100093)
(-2.37006e-07 -8.02406e-08 -0.00100102)
(-8.15184e-08 -7.92638e-08 -0.00100107)
(-7.64642e-07 -7.52057e-07 -0.00100025)
(-6.89721e-07 -7.26917e-07 -0.00100049)
(-5.47231e-07 -7.05471e-07 -0.00100069)
(-3.51358e-07 -6.89799e-07 -0.00100083)
(-1.20873e-07 -6.80158e-07 -0.0010009)
(-7.39631e-07 -6.74951e-07 -0.00100048)
(-6.67125e-07 -6.52452e-07 -0.0010007)
(-5.29284e-07 -6.33309e-07 -0.00100089)
(-3.39786e-07 -6.19383e-07 -0.00100103)
(-1.1687e-07 -6.10809e-07 -0.0010011)
(-7.18524e-07 -5.33244e-07 -0.00100067)
(-6.48079e-07 -5.15542e-07 -0.00100089)
(-5.1417e-07 -5.00484e-07 -0.00100107)
(-3.301e-07 -4.89562e-07 -0.0010012)
(-1.13549e-07 -4.82854e-07 -0.00100127)
(-7.03308e-07 -3.41265e-07 -0.00100081)
(-6.34356e-07 -3.29995e-07 -0.00100102)
(-5.03305e-07 -3.20403e-07 -0.00100119)
(-3.23134e-07 -3.1346e-07 -0.00100132)
(-1.11148e-07 -3.09172e-07 -0.00100139)
(-6.93973e-07 -1.17176e-07 -0.00100088)
(-6.25946e-07 -1.13326e-07 -0.00100109)
(-4.96631e-07 -1.10043e-07 -0.00100126)
(-3.1885e-07 -1.07665e-07 -0.00100138)
(-1.0967e-07 -1.06194e-07 -0.00100145)
(-1.04045e-06 -1.02288e-06 -0.00100035)
(-9.38454e-07 -9.8405e-07 -0.00100067)
(-7.446e-07 -9.50841e-07 -0.00100094)
(-4.78067e-07 -9.26511e-07 -0.00100113)
(-1.64441e-07 -9.11862e-07 -0.00100123)
(-1.00188e-06 -9.16381e-07 -0.00100066)
(-9.03575e-07 -8.8172e-07 -0.00100096)
(-7.16812e-07 -8.52166e-07 -0.00100121)
(-4.6017e-07 -8.30653e-07 -0.0010014)
(-1.58281e-07 -8.17679e-07 -0.00100149)
(-9.69396e-07 -7.22893e-07 -0.00100092)
(-8.74239e-07 -6.95652e-07 -0.0010012)
(-6.93545e-07 -6.72482e-07 -0.00100145)
(-4.45249e-07 -6.55675e-07 -0.00100162)
(-1.53148e-07 -6.45533e-07 -0.00100171)
(-9.45938e-07 -4.62222e-07 -0.0010011)
(-8.53152e-07 -4.44834e-07 -0.00100138)
(-6.76834e-07 -4.30102e-07 -0.00100161)
(-4.34533e-07 -4.19416e-07 -0.00100178)
(-1.49464e-07 -4.12941e-07 -0.00100187)
(-9.31812e-07 -1.58673e-07 -0.0010012)
(-8.40407e-07 -1.52691e-07 -0.00100147)
(-6.66773e-07 -1.4765e-07 -0.0010017)
(-4.28059e-07 -1.43995e-07 -0.00100186)
(-1.47223e-07 -1.41765e-07 -0.00100195)
(-1.41518e-06 -1.39043e-06 -0.00100048)
(-1.27612e-06 -1.33056e-06 -0.00100091)
(-1.01253e-06 -1.27918e-06 -0.00100128)
(-6.50058e-07 -1.24146e-06 -0.00100154)
(-2.23575e-07 -1.21907e-06 -0.00100168)
(-1.3558e-06 -1.24247e-06 -0.0010009)
(-1.22248e-06 -1.18925e-06 -0.0010013)
(-9.69654e-07 -1.14378e-06 -0.00100165)
(-6.22422e-07 -1.11059e-06 -0.0010019)
(-2.14068e-07 -1.09092e-06 -0.00100202)
(-1.30586e-06 -9.78257e-07 -0.00100125)
(-1.17743e-06 -9.36402e-07 -0.00100163)
(-9.33888e-07 -9.00844e-07 -0.00100196)
(-5.99444e-07 -8.7501e-07 -0.00100219)
(-2.06162e-07 -8.59681e-07 -0.00100231)
(-1.26976e-06 -6.24586e-07 -0.0010015)
(-1.14505e-06 -5.9792e-07 -0.00100186)
(-9.08261e-07 -5.75347e-07 -0.00100218)
(-5.83013e-07 -5.58949e-07 -0.0010024)
(-2.00514e-07 -5.49203e-07 -0.00100252)
(-1.24838e-06 -2.14214e-07 -0.00100162)
(-1.12588e-06 -2.05082e-07 -0.00100198)
(-8.93099e-07 -1.97371e-07 -0.00100229)
(-5.73253e-07 -1.91757e-07 -0.00100251)
(-1.97148e-07 -1.88408e-07 -0.00100262)
(-1.92373e-06 -1.88851e-06 -0.00100067)
(-1.73416e-06 -1.79647e-06 -0.00100125)
(-1.37576e-06 -1.71708e-06 -0.00100175)
(-8.83295e-07 -1.6585e-06 -0.00100211)
(-3.03817e-07 -1.62404e-06 -0.00100229)
(-1.83259e-06 -1.68182e-06 -0.00100123)
(-1.65164e-06 -1.6001e-06 -0.00100177)
(-1.30961e-06 -1.53024e-06 -0.00100224)
(-8.40467e-07 -1.47913e-06 -0.00100257)
(-2.89026e-07 -1.44921e-06 -0.00100274)
(-1.75595e-06 -1.32053e-06 -0.0010017)
(-1.58259e-06 -1.25637e-06 -0.00100221)
(-1.2548e-06 -1.20195e-06 -0.00100264)
(-8.05244e-07 -1.16242e-06 -0.00100296)
(-2.76915e-07 -1.13932e-06 -0.00100312)
(-1.70065e-06 -8.41562e-07 -0.00100203)
(-1.53304e-06 -8.00753e-07 -0.00100252)
(-1.21566e-06 -7.66226e-07 -0.00100293)
(-7.80169e-07 -7.41225e-07 -0.00100323)
(-2.68295e-07 -7.26632e-07 -0.00100338)
(-1.66834e-06 -2.88362e-07 -0.0010022)
(-1.50416e-06 -2.7441e-07 -0.00100267)
(-1.19283e-06 -2.626e-07 -0.00100308)
(-7.65574e-07 -2.54052e-07 -0.00100337)
(-2.63295e-07 -2.4908e-07 -0.00100351)
(-2.61319e-06 -2.5623e-06 -0.00100093)
(-2.354e-06 -2.42117e-06 -0.00100172)
(-1.86677e-06 -2.29858e-06 -0.00100239)
(-1.19843e-06 -2.20744e-06 -0.00100287)
(-4.12214e-07 -2.15429e-06 -0.00100312)
(-2.47371e-06 -2.27076e-06 -0.00100169)
(-2.22735e-06 -2.14569e-06 -0.00100242)
(-1.76501e-06 -2.03873e-06 -0.00100303)
(-1.13236e-06 -1.96044e-06 -0.00100348)
(-3.89343e-07 -1.91514e-06 -0.00100371)
(-2.35638e-06 -1.77638e-06 -0.00100231)
(-2.12198e-06 -1.67836e-06 -0.00100299)
(-1.68155e-06 -1.59548e-06 -0.00100356)
(-1.0788e-06 -1.53546e-06 -0.00100398)
(-3.70936e-07 -1.50091e-06 -0.00100419)
(-2.27174e-06 -1.12984e-06 -0.00100275)
(-2.04642e-06 -1.06733e-06 -0.00100339)
(-1.62211e-06 -1.01476e-06 -0.00100394)
(-1.04087e-06 -9.7694e-07 -0.00100433)
(-3.57934e-07 -9.55268e-07 -0.00100453)
(-2.22276e-06 -3.86893e-07 -0.00100297)
(-2.00277e-06 -3.65423e-07 -0.00100359)
(-1.5879e-06 -3.47425e-07 -0.00100412)
(-1.01918e-06 -3.34526e-07 -0.00100451)
(-3.50544e-07 -3.27182e-07 -0.0010047)
(-3.54729e-06 -3.47184e-06 -0.00100132)
(-3.19023e-06 -3.25613e-06 -0.00100238)
(-2.52792e-06 -3.06706e-06 -0.00100328)
(-1.62238e-06 -2.92506e-06 -0.00100393)
(-5.5788e-07 -2.84277e-06 -0.00100426)
(-3.33457e-06 -3.05482e-06 -0.00100232)
(-2.99672e-06 -2.86414e-06 -0.0010033)
(-2.37209e-06 -2.7014e-06 -0.00100412)
(-1.52095e-06 -2.58239e-06 -0.00100471)