/*--------------------------------*- C++ -*----------------------------------*\
| =========                 |                                                 |
| \\      /  F ield         | OpenFOAM: The Open Source CFD Toolbox           |
|  \\    /   O peration     | Version:  5.x                                   |
|   \\  /    A nd           | Web:      www.OpenFOAM.org                      |
|    \\/     M anipulation  |                                                 |
\*---------------------------------------------------------------------------*/
FoamFile
{
    version     2.0;
    format      ascii;
    class       volVectorField;
    location    "0.01";
    object      U;
}
// * * * * * * * * * * * * * * * * * * * * * * * * * * * * * * * * * * * * * //

dimensions      [0 1 -1 0 0 0 0];

internalField   nonuniform List<vector> 
2250
(
(-6.05556e-11 1.45661e-12 -0.001)
(-1.90177e-10 -5.7248e-11 -0.001)
(-1.157e-10 -6.11211e-11 -0.001)
(-8.15515e-11 -7.22598e-11 -0.001)
(-3.05071e-11 -7.37056e-11 -0.001)
(-1.21216e-10 -7.76441e-11 -0.001)
(-1.37514e-10 -3.46773e-11 -0.001)
(-1.20707e-10 -4.71271e-11 -0.001)
(-8.42281e-11 -5.82186e-11 -0.001)
(-2.69506e-11 -5.40698e-11 -0.001)
(-1.35665e-10 -6.22521e-12 -0.001)
(-1.59627e-10 -2.76366e-11 -0.001)
(-1.39223e-10 -4.72158e-11 -0.001)
(-8.86133e-11 -5.2099e-11 -0.001)
(-2.64901e-11 -5.06536e-11 -0.001)
(-1.49985e-10 -1.93428e-11 -0.001)
(-1.78488e-10 -3.26847e-11 -0.001)
(-1.45171e-10 -3.62626e-11 -0.001)
(-8.7776e-11 -3.27566e-11 -0.001)
(-2.56136e-11 -3.09407e-11 -0.001)
(-1.50544e-10 -1.50386e-11 -0.001)
(-1.76183e-10 -1.54198e-11 -0.001)
(-1.39013e-10 -1.3091e-11 -0.001)
(-8.31874e-11 -9.55096e-12 -0.001)
(-2.46871e-11 -8.65625e-12 -0.001)
(-2.0444e-10 -6.4203e-11 -0.001)
(-5.04036e-10 -1.92264e-10 -0.001)
(-3.33318e-10 -2.23815e-10 -0.001)
(-2.19811e-10 -2.55502e-10 -0.001)
(-7.49573e-11 -2.61111e-10 -0.001)
(-3.36641e-10 -2.47952e-10 -0.001)
(-4.12331e-10 -1.75511e-10 -0.001)
(-3.39748e-10 -2.0088e-10 -0.001)
(-2.22735e-10 -2.17508e-10 -0.001)
(-6.99196e-11 -2.12538e-10 -0.001)
(-3.84742e-10 -9.76481e-11 -0.001)
(-4.57025e-10 -1.31641e-10 -0.001)
(-3.75344e-10 -1.66527e-10 -0.001)
(-2.31931e-10 -1.72923e-10 -0.001)
(-7.04489e-11 -1.69486e-10 -0.001)
(-4.13968e-10 -9.93988e-11 -0.001)
(-4.81249e-10 -1.1086e-10 -0.001)
(-3.81032e-10 -1.11744e-10 -0.001)
(-2.26036e-10 -9.89522e-11 -0.001)
(-6.68145e-11 -9.08004e-11 -0.001)
(-4.1047e-10 -5.02407e-11 -0.001)
(-4.68417e-10 -4.54216e-11 -0.001)
(-3.62711e-10 -3.83622e-11 -0.001)
(-2.10747e-10 -2.78445e-11 -0.001)
(-6.23562e-11 -2.3464e-11 -0.001)
(-4.69318e-10 -3.20423e-10 -0.001)
(-6.86362e-10 -4.14678e-10 -0.001)
(-5.10628e-10 -4.728e-10 -0.001)
(-3.32327e-10 -5.088e-10 -0.001)
(-1.11849e-10 -5.12038e-10 -0.001)
(-5.66391e-10 -4.07683e-10 -0.001)
(-6.50998e-10 -3.84219e-10 -0.001)
(-5.35531e-10 -4.25958e-10 -0.001)
(-3.38725e-10 -4.406e-10 -0.001)
(-1.08072e-10 -4.29897e-10 -0.001)
(-6.27172e-10 -2.50961e-10 -0.001)
(-7.04623e-10 -2.90146e-10 -0.001)
(-5.67016e-10 -3.19796e-10 -0.001)
(-3.37169e-10 -3.15982e-10 -0.001)
(-1.02016e-10 -3.0338e-10 -0.001)
(-6.53556e-10 -1.88346e-10 -0.001)
(-7.19808e-10 -1.98712e-10 -0.001)
(-5.61367e-10 -1.88261e-10 -0.001)
(-3.2291e-10 -1.6574e-10 -0.001)
(-9.60721e-11 -1.56262e-10 -0.001)
(-6.52513e-10 -7.54619e-11 -0.001)
(-7.03128e-10 -7.32859e-11 -0.001)
(-5.3299e-10 -6.01848e-11 -0.001)
(-3.04883e-10 -4.5998e-11 -0.001)
(-9.26723e-11 -4.26935e-11 -0.001)
(-8.0093e-10 -6.77537e-10 -0.001)
(-8.53312e-10 -7.41227e-10 -0.001)
(-6.92003e-10 -7.90288e-10 -0.001)
(-4.54037e-10 -8.00341e-10 -0.001)
(-1.55697e-10 -7.82031e-10 -0.001)
(-8.57852e-10 -6.0795e-10 -0.001)
(-8.78976e-10 -6.40806e-10 -0.001)
(-7.17274e-10 -6.79403e-10 -0.001)
(-4.40882e-10 -6.74545e-10 -0.001)
(-1.40626e-10 -6.46885e-10 -0.001)
(-9.02859e-10 -4.35855e-10 -0.001)
(-9.24765e-10 -4.77863e-10 -0.001)
(-7.25753e-10 -4.87138e-10 -0.001)
(-4.22832e-10 -4.69122e-10 -0.001)
(-1.29377e-10 -4.56612e-10 -0.001)
(-9.14567e-10 -2.83388e-10 -0.001)
(-9.30248e-10 -2.95491e-10 -0.001)
(-7.08533e-10 -2.72292e-10 -0.001)
(-4.11274e-10 -2.52514e-10 -0.001)
(-1.29042e-10 -2.5953e-10 -0.001)
(-9.1062e-10 -1.01447e-10 -0.001)
(-9.11894e-10 -1.02061e-10 -0.001)
(-6.81433e-10 -8.48711e-11 -0.001)
(-4.09756e-10 -7.63261e-11 -0.001)
(-1.36612e-10 -8.40068e-11 -0.001)
(-1.15674e-09 -1.06034e-09 -0.001)
(-1.22141e-09 -1.12824e-09 -0.001)
(-9.42107e-10 -1.1418e-09 -0.001)
(-5.9589e-10 -1.12427e-09 -0.001)
(-1.99858e-10 -1.09754e-09 -0.001)
(-1.21107e-09 -1.01157e-09 -0.001)
(-1.1706e-09 -9.70903e-10 -0.001)
(-9.22348e-10 -9.63965e-10 -0.001)
(-5.60321e-10 -9.35666e-10 -0.001)
(-1.80027e-10 -9.10493e-10 -0.001)
(-1.22558e-09 -7.09168e-10 -0.001)
(-1.17379e-09 -7.16441e-10 -0.001)
(-9.06885e-10 -7.00623e-10 -0.001)
(-5.44299e-10 -6.8291e-10 -0.001)
(-1.76602e-10 -6.8812e-10 -0.001)
(-1.22158e-09 -4.46122e-10 -0.001)
(-1.16204e-09 -4.36631e-10 -0.001)
(-8.88815e-10 -4.09822e-10 -0.001)
(-5.49222e-10 -4.07868e-10 -0.001)
(-1.86616e-10 -4.35441e-10 -0.001)
(-1.20245e-09 -1.58251e-10 -0.001)
(-1.13514e-09 -1.47557e-10 -0.001)
(-8.76325e-10 -1.33724e-10 -0.001)
(-5.69647e-10 -1.36877e-10 -0.001)
(-2.04575e-10 -1.54936e-10 -0.001)
(-1.61919e-09 -1.56608e-09 -0.001)
(-1.6486e-09 -1.60703e-09 -0.001)
(-1.22519e-09 -1.58075e-09 -0.001)
(-7.70025e-10 -1.56144e-09 -0.001)
(-2.59792e-10 -1.54978e-09 -0.001)
(-1.65154e-09 -1.49361e-09 -0.001)
(-1.51964e-09 -1.37385e-09 -0.001)
(-1.18781e-09 -1.34784e-09 -0.001)
(-7.46706e-10 -1.33054e-09 -0.001)
(-2.5057e-10 -1.32542e-09 -0.001)
(-1.63157e-09 -1.05947e-09 -0.001)
(-1.50285e-09 -1.03928e-09 -0.001)
(-1.1819e-09 -1.02801e-09 -0.001)
(-7.50352e-10 -1.02964e-09 -0.001)
(-2.57406e-10 -1.04758e-09 -0.001)
(-1.62042e-09 -6.82194e-10 -0.001)
(-1.48816e-09 -6.52906e-10 -0.001)
(-1.17816e-09 -6.41193e-10 -0.001)
(-7.68401e-10 -6.56421e-10 -0.001)
(-2.70586e-10 -6.84738e-10 -0.001)
(-1.59168e-09 -2.44451e-10 -0.001)
(-1.45884e-09 -2.21308e-10 -0.001)
(-1.18301e-09 -2.1817e-10 -0.001)
(-7.93676e-10 -2.28533e-10 -0.001)
(-2.86452e-10 -2.44484e-10 -0.001)
(-2.22797e-09 -2.24139e-09 -0.001)
(-2.08539e-09 -2.24154e-09 -0.001)
(-1.58274e-09 -2.20577e-09 -0.001)
(-1.03512e-09 -2.1956e-09 -0.001)
(-3.64065e-10 -2.18796e-09 -0.001)
(-2.23608e-09 -2.00233e-09 -0.001)
(-1.97957e-09 -1.90126e-09 -0.001)
(-1.57864e-09 -1.91168e-09 -0.001)
(-1.02991e-09 -1.92174e-09 -0.001)
(-3.56412e-10 -1.91571e-09 -0.001)
(-2.21208e-09 -1.49178e-09 -0.001)
(-1.99474e-09 -1.49083e-09 -0.001)
(-1.60324e-09 -1.50984e-09 -0.001)
(-1.04306e-09 -1.52672e-09 -0.001)
(-3.61917e-10 -1.53434e-09 -0.001)
(-2.20477e-09 -9.80566e-10 -0.001)
(-1.99759e-09 -9.58643e-10 -0.001)
(-1.61453e-09 -9.66815e-10 -0.001)
(-1.05752e-09 -9.83138e-10 -0.00100001)
(-3.67084e-10 -9.87698e-10 -0.00100001)
(-2.17944e-09 -3.48283e-10 -0.001)
(-1.9769e-09 -3.25563e-10 -0.001)
(-1.62444e-09 -3.31691e-10 -0.001)
(-1.06379e-09 -3.3872e-10 -0.00100001)
(-3.67699e-10 -3.39392e-10 -0.00100001)
(-3.01387e-09 -3.07624e-09 -0.001)
(-2.70642e-09 -3.09622e-09 -0.001)
(-2.14129e-09 -3.07766e-09 -0.001)
(-1.42897e-09 -3.06374e-09 -0.001)
(-5.10213e-10 -3.03837e-09 -0.001)
(-3.04442e-09 -2.70159e-09 -0.001)
(-2.67616e-09 -2.67469e-09 -0.001)
(-2.15651e-09 -2.70888e-09 -0.001)
(-1.41316e-09 -2.7189e-09 -0.001)
(-4.89582e-10 -2.68945e-09 -0.00100001)
(-3.041e-09 -2.10779e-09 -0.001)
(-2.71371e-09 -2.12852e-09 -0.001)
(-2.18554e-09 -2.16059e-09 -0.00100001)
(-1.41497e-09 -2.17275e-09 -0.00100001)
(-4.86196e-10 -2.15518e-09 -0.00100001)
(-3.03967e-09 -1.36968e-09 -0.001)
(-2.72892e-09 -1.36542e-09 -0.00100001)
(-2.20074e-09 -1.38363e-09 -0.00100001)
(-1.41209e-09 -1.38573e-09 -0.00100001)
(-4.76369e-10 -1.35803e-09 -0.00100001)
(-3.02319e-09 -4.73738e-10 -0.001)
(-2.72209e-09 -4.62513e-10 -0.00100001)
(-2.20141e-09 -4.72467e-10 -0.00100001)
(-1.3893e-09 -4.67601e-10 -0.00100001)
(-4.60343e-10 -4.51592e-10 -0.00100001)
(-4.06838e-09 -4.19138e-09 -0.001)
(-3.75927e-09 -4.25318e-09 -0.001)
(-2.9759e-09 -4.25198e-09 -0.001)
(-1.96798e-09 -4.22211e-09 -0.001)
(-6.9501e-10 -4.17875e-09 -0.00100001)
(-4.14695e-09 -3.85406e-09 -0.001)
(-3.69689e-09 -3.79092e-09 -0.001)
(-2.96496e-09 -3.79941e-09 -0.00100001)
(-1.92687e-09 -3.78171e-09 -0.00100001)
(-6.6419e-10 -3.72934e-09 -0.00100001)
(-4.16249e-09 -2.99804e-09 -0.001)
(-3.70461e-09 -3.00278e-09 -0.00100001)
(-2.96675e-09 -3.01952e-09 -0.00100001)
(-1.90544e-09 -3.00975e-09 -0.00100001)
(-6.50215e-10 -2.96388e-09 -0.00100001)
(-4.16652e-09 -1.90228e-09 -0.00100001)
(-3.7183e-09 -1.91147e-09 -0.00100001)
(-2.97192e-09 -1.92569e-09 -0.00100001)
(-1.8772e-09 -1.9039e-09 -0.00100001)
(-6.24347e-10 -1.85845e-09 -0.00100001)
(-4.15832e-09 -6.45883e-10 -0.00100001)
(-3.72048e-09 -6.48856e-10 -0.00100001)
(-2.95324e-09 -6.55547e-10 -0.00100001)
(-1.83824e-09 -6.36114e-10 -0.00100001)
(-6.0736e-10 -6.19102e-10 -0.00100001)
(-5.61165e-09 -5.78923e-09 -0.001)
(-5.23548e-09 -5.83367e-09 -0.001)
(-4.1403e-09 -5.82169e-09 -0.00100001)
(-2.69952e-09 -5.7675e-09 -0.00100001)
(-9.36666e-10 -5.71321e-09 -0.00100001)
(-5.67875e-09 -5.40827e-09 -0.001)
(-5.11727e-09 -5.28945e-09 -0.00100001)
(-4.08196e-09 -5.25302e-09 -0.00100001)
(-2.63111e-09 -5.1948e-09 -0.00100001)
(-9.02286e-10 -5.12605e-09 -0.00100001)
(-5.68994e-09 -4.19698e-09 -0.00100001)
(-5.08023e-09 -4.17057e-09 -0.00100001)
(-4.04573e-09 -4.1543e-09 -0.00100001)
(-2.5829e-09 -4.1106e-09 -0.00100001)
(-8.78331e-10 -4.04967e-09 -0.00100001)
(-5.68895e-09 -2.65467e-09 -0.00100001)
(-5.07452e-09 -2.65633e-09 -0.00100001)
(-4.02199e-09 -2.64498e-09 -0.00100001)
(-2.53461e-09 -2.60165e-09 -0.00100001)
(-8.49565e-10 -2.56885e-09 -0.00100001)
(-5.67468e-09 -9.03451e-10 -0.00100001)
(-5.06036e-09 -9.06496e-10 -0.00100001)
(-3.98307e-09 -8.99407e-10 -0.00100001)
(-2.50689e-09 -8.7559e-10 -0.00100001)
(-8.4903e-10 -8.75003e-10 -0.00100001)
(-7.78075e-09 -7.94935e-09 -0.001)
(-7.22137e-09 -7.96027e-09 -0.00100001)
(-5.72158e-09 -7.91242e-09 -0.00100001)
(-3.66204e-09 -7.83913e-09 -0.00100001)
(-1.245e-09 -7.78579e-09 -0.00100001)
(-7.81798e-09 -7.37388e-09 -0.00100001)
(-7.08191e-09 -7.24604e-09 -0.00100001)
(-5.61604e-09 -7.15946e-09 -0.00100001)
(-3.58221e-09 -7.06469e-09 -0.00100001)
(-1.21883e-09 -7.00196e-09 -0.00100001)
(-7.80422e-09 -5.78974e-09 -0.00100001)
(-7.00695e-09 -5.72279e-09 -0.00100001)
(-5.54033e-09 -5.65738e-09 -0.00100001)
(-3.51866e-09 -5.58524e-09 -0.00100001)
(-1.1964e-09 -5.5418e-09 -0.00100001)
(-7.7739e-09 -3.69737e-09 -0.00100001)
(-6.94944e-09 -3.65334e-09 -0.00100001)
(-5.47849e-09 -3.60053e-09 -0.00100001)
(-3.47773e-09 -3.56014e-09 -0.00100001)
(-1.18652e-09 -3.55852e-09 -0.00100002)
(-7.73379e-09 -1.26481e-09 -0.00100001)
(-6.89626e-09 -1.24746e-09 -0.00100001)
(-5.43624e-09 -1.22545e-09 -0.00100001)
(-3.47681e-09 -1.21612e-09 -0.00100002)
(-1.19948e-09 -1.22902e-09 -0.00100002)
(-1.08775e-08 -1.09677e-08 -0.001)
(-9.82234e-09 -1.08389e-08 -0.00100001)
(-7.81307e-09 -1.07445e-08 -0.00100001)
(-4.92862e-09 -1.06734e-08 -0.00100001)
(-1.66033e-09 -1.06305e-08 -0.00100001)
(-1.07673e-08 -9.90428e-09 -0.00100001)
(-9.75225e-09 -9.84832e-09 -0.00100001)
(-7.69182e-09 -9.7156e-09 -0.00100001)
(-4.87568e-09 -9.61752e-09 -0.00100002)
(-1.65645e-09 -9.58621e-09 -0.00100002)
(-1.0696e-08 -7.91837e-09 -0.00100001)
(-9.63367e-09 -7.79892e-09 -0.00100001)
(-7.58241e-09 -7.68224e-09 -0.00100002)
(-4.8185e-09 -7.61067e-09 -0.00100002)
(-1.64819e-09 -7.60031e-09 -0.00100002)
(-1.06204e-08 -5.06802e-09 -0.00100001)
(-9.51597e-09 -4.97234e-09 -0.00100002)
(-7.50357e-09 -4.89412e-09 -0.00100002)
(-4.80894e-09 -4.88231e-09 -0.00100002)
(-1.66119e-09 -4.90065e-09 -0.00100002)
(-1.05551e-08 -1.72955e-09 -0.00100001)
(-9.44081e-09 -1.69533e-09 -0.00100002)
(-7.47743e-09 -1.67333e-09 -0.00100002)
(-4.82517e-09 -1.68409e-09 -0.00100002)
(-1.67289e-09 -1.69574e-09 -0.00100002)
(-1.50932e-08 -1.51213e-08 -0.001)
(-1.33576e-08 -1.47883e-08 -0.00100001)
(-1.05964e-08 -1.46378e-08 -0.00100001)
(-6.70419e-09 -1.45597e-08 -0.00100002)
(-2.27866e-09 -1.4502e-08 -0.00100002)
(-1.47676e-08 -1.34191e-08 -0.00100001)
(-1.3302e-08 -1.33578e-08 -0.00100001)
(-1.04928e-08 -1.32083e-08 -0.00100002)
(-6.67352e-09 -1.31285e-08 -0.00100002)
(-2.28181e-09 -1.31068e-08 -0.00100002)
(-1.46086e-08 -1.07379e-08 -0.00100001)
(-1.31468e-08 -1.05848e-08 -0.00100002)
(-1.03672e-08 -1.0444e-08 -0.00100002)
(-6.62892e-09 -1.03926e-08 -0.00100002)
(-2.28297e-09 -1.03935e-08 -0.00100003)
(-1.44903e-08 -6.85558e-09 -0.00100002)
(-1.30079e-08 -6.74756e-09 -0.00100002)
(-1.03006e-08 -6.67632e-09 -0.00100002)
(-6.64378e-09 -6.68982e-09 -0.00100003)
(-2.30335e-09 -6.69681e-09 -0.00100003)
(-1.44099e-08 -2.33663e-09 -0.00100002)
(-1.29416e-08 -2.30643e-09 -0.00100002)
(-1.0289e-08 -2.2962e-09 -0.00100003)
(-6.64951e-09 -2.31522e-09 -0.00100003)
(-2.29864e-09 -2.31048e-09 -0.00100003)
(-2.05594e-08 -2.05488e-08 -0.00100001)
(-1.81885e-08 -2.0128e-08 -0.00100001)
(-1.44263e-08 -1.99156e-08 -0.00100002)
(-9.20672e-09 -1.97905e-08 -0.00100002)
(-3.15499e-09 -1.96911e-08 -0.00100002)
(-2.01391e-08 -1.82399e-08 -0.00100001)
(-1.80731e-08 -1.81061e-08 -0.00100002)
(-1.42982e-08 -1.79358e-08 -0.00100002)
(-9.14748e-09 -1.78468e-08 -0.00100003)
(-3.14372e-09 -1.78008e-08 -0.00100003)
(-1.99022e-08 -1.45247e-08 -0.00100002)
(-1.78844e-08 -1.43442e-08 -0.00100002)
(-1.41672e-08 -1.42017e-08 -0.00100003)
(-9.10732e-09 -1.41602e-08 -0.00100003)
(-3.14429e-09 -1.41408e-08 -0.00100003)
(-1.97446e-08 -9.27788e-09 -0.00100002)
(-1.77499e-08 -9.17493e-09 -0.00100003)
(-1.41142e-08 -9.12172e-09 -0.00100003)
(-9.1147e-09 -9.12847e-09 -0.00100004)
(-3.15234e-09 -9.08639e-09 -0.00100004)
(-1.96453e-08 -3.17156e-09 -0.00100002)
(-1.76928e-08 -3.15066e-09 -0.00100003)
(-1.40927e-08 -3.1497e-09 -0.00100003)
(-9.07204e-09 -3.15713e-09 -0.00100004)
(-3.11409e-09 -3.11886e-09 -0.00100004)
(-2.77018e-08 -2.75939e-08 -0.00100001)
(-2.48623e-08 -2.72526e-08 -0.00100002)
(-1.97031e-08 -2.6994e-08 -0.00100002)
(-1.25995e-08 -2.68263e-08 -0.00100003)
(-4.3175e-09 -2.67004e-08 -0.00100003)
(-2.73538e-08 -2.48339e-08 -0.00100002)
(-2.46058e-08 -2.45623e-08 -0.00100003)
(-1.94942e-08 -2.43268e-08 -0.00100003)
(-1.2506e-08 -2.42002e-08 -0.00100004)
(-4.30461e-09 -2.41284e-08 -0.00100004)
(-2.70733e-08 -1.97167e-08 -0.00100002)
(-2.43551e-08 -1.94756e-08 -0.00100003)
(-1.93414e-08 -1.93157e-08 -0.00100004)
(-1.24494e-08 -1.92505e-08 -0.00100004)
(-4.29366e-09 -1.91758e-08 -0.00100005)
(-2.68822e-08 -1.26147e-08 -0.00100003)
(-2.42045e-08 -1.2501e-08 -0.00100004)
(-1.9269e-08 -1.24421e-08 -0.00100004)
(-1.24042e-08 -1.23947e-08 -0.00100005)
(-4.26797e-09 -1.22942e-08 -0.00100005)
(-2.67635e-08 -4.32118e-09 -0.00100003)
(-2.41342e-08 -4.30496e-09 -0.00100004)
(-1.91968e-08 -4.29885e-09 -0.00100005)
(-1.23015e-08 -4.27088e-09 -0.00100005)
(-4.20942e-09 -4.21231e-09 -0.00100006)
(-3.75724e-08 -3.73024e-08 -0.00100001)
(-3.39316e-08 -3.69286e-08 -0.00100002)
(-2.687e-08 -3.66083e-08 -0.00100003)
(-1.72017e-08 -3.64068e-08 -0.00100004)
(-5.90218e-09 -3.62385e-08 -0.00100004)
(-3.71779e-08 -3.37866e-08 -0.00100002)
(-3.3541e-08 -3.33751e-08 -0.00100004)
(-2.6581e-08 -3.30576e-08 -0.00100004)
(-1.70692e-08 -3.28722e-08 -0.00100005)
(-5.87793e-09 -3.27364e-08 -0.00100006)
(-3.68347e-08 -2.68114e-08 -0.00100003)
(-3.32027e-08 -2.64916e-08 -0.00100004)
(-2.63675e-08 -2.62779e-08 -0.00100005)
(-1.69459e-08 -2.61335e-08 -0.00100006)
(-5.83157e-09 -2.5978e-08 -0.00100006)
(-3.66066e-08 -1.71716e-08 -0.00100004)
(-3.3007e-08 -1.70321e-08 -0.00100005)
(-2.6223e-08 -1.69159e-08 -0.00100006)
(-1.6821e-08 -1.67874e-08 -0.00100007)
(-5.77418e-09 -1.6668e-08 -0.00100007)
(-3.64559e-08 -5.89129e-09 -0.00100004)
(-3.28812e-08 -5.87002e-09 -0.00100006)
(-2.6071e-08 -5.83087e-09 -0.00100006)
(-1.66979e-08 -5.76993e-09 -0.00100007)
(-5.73395e-09 -5.7297e-09 -0.00100007)
(-5.12323e-08 -5.07951e-08 -0.00100002)
(-4.61972e-08 -5.02137e-08 -0.00100003)
(-3.66117e-08 -4.97506e-08 -0.00100005)
(-2.35068e-08 -4.94417e-08 -0.00100006)
(-8.08899e-09 -4.91627e-08 -0.00100006)
(-5.06189e-08 -4.59181e-08 -0.00100003)
(-4.56783e-08 -4.53706e-08 -0.00100005)
(-3.62187e-08 -4.49517e-08 -0.00100006)
(-2.32606e-08 -4.46421e-08 -0.00100007)
(-8.00536e-09 -4.43769e-08 -0.00100008)
(-5.0144e-08 -3.643e-08 -0.00100005)
(-4.52308e-08 -3.60233e-08 -0.00100006)
(-3.58838e-08 -3.56985e-08 -0.00100007)
(-2.30208e-08 -3.54237e-08 -0.00100008)
(-7.91232e-09 -3.52023e-08 -0.00100009)
(-4.98326e-08 -2.33652e-08 -0.00100006)
(-4.4946e-08 -2.31557e-08 -0.00100007)
(-3.56191e-08 -2.2928e-08 -0.00100008)
(-2.28346e-08 -2.27413e-08 -0.00100009)
(-7.85411e-09 -2.26181e-08 -0.0010001)
(-4.95848e-08 -8.03509e-09 -0.00100006)
(-4.47042e-08 -7.97326e-09 -0.00100008)
(-3.53989e-08 -7.88231e-09 -0.00100009)
(-2.27108e-08 -7.82363e-09 -0.0010001)
(-7.81863e-09 -7.7882e-09 -0.0010001)
(-6.97905e-08 -6.91679e-08 -0.00100002)
(-6.28969e-08 -6.83055e-08 -0.00100004)
(-4.98968e-08 -6.75942e-08 -0.00100006)
(-3.20579e-08 -6.70778e-08 -0.00100008)
(-1.10337e-08 -6.66547e-08 -0.00100008)
(-6.89013e-08 -6.24001e-08 -0.00100004)
(-6.21557e-08 -6.16451e-08 -0.00100007)
(-4.92989e-08 -6.10222e-08 -0.00100008)
(-3.16476e-08 -6.0518e-08 -0.0010001)
(-1.08836e-08 -6.01217e-08 -0.0010001)
(-6.82094e-08 -4.94964e-08 -0.00100006)
(-6.15191e-08 -4.89221e-08 -0.00100008)
(-4.87706e-08 -4.84037e-08 -0.0010001)
(-3.12778e-08 -4.79854e-08 -0.00100011)
(-1.07574e-08 -4.77021e-08 -0.00100012)
(-6.77265e-08 -3.17757e-08 -0.00100008)
(-6.10621e-08 -3.14142e-08 -0.0010001)
(-4.83621e-08 -3.10487e-08 -0.00100011)
(-3.10411e-08 -3.08177e-08 -0.00100013)
(-1.06954e-08 -3.06441e-08 -0.00100013)
(-6.73067e-08 -1.09394e-08 -0.00100008)
(-6.06706e-08 -1.08008e-08 -0.0010001)
(-4.80782e-08 -1.06689e-08 -0.00100012)
(-3.08728e-08 -1.06127e-08 -0.00100013)
(-1.06237e-08 -1.05411e-08 -0.00100014)
(-9.50373e-08 -9.41494e-08 -0.00100003)
(-8.56779e-08 -9.2841e-08 -0.00100006)
(-6.7991e-08 -9.17504e-08 -0.00100009)
(-4.36575e-08 -9.09408e-08 -0.0010001)
(-1.50209e-08 -9.03385e-08 -0.00100011)
(-9.37313e-08 -8.48425e-08 -0.00100006)
(-8.45419e-08 -8.37212e-08 -0.00100009)
(-6.70674e-08 -8.27419e-08 -0.00100011)
(-4.3057e-08 -8.19973e-08 -0.00100013)
(-1.48109e-08 -8.14573e-08 -0.00100014)
(-9.26759e-08 -6.7288e-08 -0.00100008)
(-8.35773e-08 -6.64055e-08 -0.00100011)
(-6.62683e-08 -6.56056e-08 -0.00100014)
(-4.25364e-08 -6.50182e-08 -0.00100015)
(-1.46439e-08 -6.46147e-08 -0.00100016)
(-9.19061e-08 -4.3209e-08 -0.0010001)
(-8.28582e-08 -4.26194e-08 -0.00100013)
(-6.56801e-08 -4.20906e-08 -0.00100015)
(-4.2195e-08 -4.17569e-08 -0.00100017)
(-1.45363e-08 -4.14923e-08 -0.00100018)
(-9.12733e-08 -1.48739e-08 -0.00100011)
(-8.22939e-08 -1.46485e-08 -0.00100014)
(-6.52755e-08 -1.44741e-08 -0.00100016)
(-4.19372e-08 -1.43742e-08 -0.00100018)
(-1.44333e-08 -1.42715e-08 -0.00100019)
(-1.29514e-07 -1.28235e-07 -0.00100004)
(-1.16713e-07 -1.2618e-07 -0.00100008)
(-9.26612e-08 -1.24496e-07 -0.00100012)
(-5.9505e-08 -1.2326e-07 -0.00100014)
(-2.04762e-08 -1.22374e-07 -0.00100015)
(-1.27508e-07 -1.15422e-07 -0.00100008)
(-1.14973e-07 -1.13717e-07 -0.00100012)
(-9.12462e-08 -1.12203e-07 -0.00100015)
(-5.86066e-08 -1.11107e-07 -0.00100018)
(-2.01672e-08 -1.10327e-07 -0.00100019)
(-1.25851e-07 -9.15492e-08 -0.00100012)
(-1.13493e-07 -9.01781e-08 -0.00100015)
(-9.00527e-08 -8.89746e-08 -0.00100019)
(-5.78507e-08 -8.81124e-08 -0.00100021)
(-1.99167e-08 -8.75109e-08 -0.00100022)
(-1.24636e-07 -5.87957e-08 -0.00100014)
(-1.12396e-07 -5.78812e-08 -0.00100018)
(-8.91805e-08 -5.71061e-08 -0.00100021)
(-5.73177e-08 -5.65771e-08 -0.00100023)
(-1.97406e-08 -5.61858e-08 -0.00100024)
(-1.23727e-07 -2.02342e-08 -0.00100015)
(-1.1158e-07 -1.99009e-08 -0.00100019)
(-8.85716e-08 -1.96412e-08 -0.00100022)
(-5.6929e-08 -1.94691e-08 -0.00100024)
(-1.95988e-08 -1.93277e-08 -0.00100026)
(-1.76474e-07 -1.74609e-07 -0.00100006)
(-1.5904e-07 -1.71473e-07 -0.00100011)
(-1.26299e-07 -1.68885e-07 -0.00100016)
(-8.11186e-08 -1.67022e-07 -0.00100019)
(-2.79049e-08 -1.65722e-07 -0.00100021)
(-1.73409e-07 -1.57138e-07 -0.00100011)
(-1.5637e-07 -1.54499e-07 -0.00100016)
(-1.2414e-07 -1.52186e-07 -0.00100021)
(-7.97543e-08 -1.50526e-07 -0.00100024)
(-2.74446e-08 -1.49378e-07 -0.00100026)
(-1.70838e-07 -1.24633e-07 -0.00100016)
(-1.54089e-07 -1.22502e-07 -0.00100021)
(-1.22329e-07 -1.20679e-07 -0.00100025)
(-7.86107e-08 -1.19371e-07 -0.00100028)
(-2.70573e-08 -1.18464e-07 -0.0010003)
(-1.68965e-07 -8.00079e-08 -0.00100019)
(-1.52413e-07 -7.86128e-08 -0.00100024)
(-1.21009e-07 -7.7451e-08 -0.00100028)
(-7.7777e-08 -7.66189e-08 -0.00100032)
(-2.67757e-08 -7.60096e-08 -0.00100033)
(-1.67653e-07 -2.75156e-08 -0.00100021)
(-1.51228e-07 -2.70274e-08 -0.00100026)
(-1.20094e-07 -2.66338e-08 -0.0010003)
(-7.71671e-08 -2.63538e-08 -0.00100033)
(-2.65475e-08 -2.61264e-08 -0.00100035)
(-2.40423e-07 -2.37672e-07 -0.00100008)
(-2.16779e-07 -2.32965e-07 -0.00100015)
(-1.721e-07 -2.29012e-07 -0.00100022)
(-1.1055e-07 -2.26192e-07 -0.00100026)
(-3.80321e-08 -2.24272e-07 -0.00100028)
(-2.3575e-07 -2.13954e-07 -0.00100015)
(-2.12653e-07 -2.09834e-07 -0.00100022)
(-1.6883e-07 -2.06324e-07 -0.00100028)
(-1.0847e-07 -2.0379e-07 -0.00100033)
(-3.73271e-08 -2.02069e-07 -0.00100035)
(-2.31811e-07 -1.69615e-07 -0.00100021)
(-2.09149e-07 -1.66338e-07 -0.00100028)
(-1.66059e-07 -1.6356e-07 -0.00100034)
(-1.06702e-07 -1.61552e-07 -0.00100039)
(-3.67171e-08 -1.60145e-07 -0.00100041)
(-2.28972e-07 -1.08827e-07 -0.00100026)
(-2.06595e-07 -1.0671e-07 -0.00100033)
(-1.64044e-07 -1.0494e-07 -0.00100039)
(-1.05376e-07 -1.0362e-07 -0.00100043)
(-3.62418e-08 -1.02679e-07 -0.00100045)
(-2.27046e-07 -3.74122e-08 -0.00100028)
(-2.04849e-07 -3.66838e-08 -0.00100035)
(-1.62643e-07 -3.60784e-08 -0.00100041)
(-1.04439e-07 -3.56094e-08 -0.00100045)
(-3.59115e-08 -3.52804e-08 -0.00100047)
(-3.27519e-07 -3.23486e-07 -0.00100011)
(-2.95455e-07 -3.16393e-07 -0.00100021)
(-2.34475e-07 -3.10344e-07 -0.00100029)
(-1.50625e-07 -3.05988e-07 -0.00100036)
(-5.18313e-08 -3.03086e-07 -0.00100039)
(-3.20414e-07 -2.91194e-07 -0.00100021)
(-2.89067e-07 -2.8481e-07 -0.0010003)
(-2.29474e-07 -2.79441e-07 -0.00100039)
(-1.47409e-07 -2.75541e-07 -0.00100045)
(-5.07202e-08 -2.72903e-07 -0.00100048)
(-3.14391e-07 -2.30723e-07 -0.00100029)
(-2.83702e-07 -2.25692e-07 -0.00100038)
(-2.2521e-07 -2.21425e-07 -0.00100047)
(-1.44638e-07 -2.18295e-07 -0.00100052)
(-4.97447e-08 -2.16143e-07 -0.00100055)
(-3.10043e-07 -1.48024e-07 -0.00100035)
(-2.79764e-07 -1.44747e-07 -0.00100044)
(-2.22076e-07 -1.41992e-07 -0.00100052)
(-1.42562e-07 -1.39928e-07 -0.00100058)
(-4.90047e-08 -1.38561e-07 -0.00100061)
(-3.07151e-07 -5.08921e-08 -0.00100038)
(-2.77111e-07 -4.97541e-08 -0.00100047)
(-2.19949e-07 -4.8798e-08 -0.00100055)
(-1.41201e-07 -4.80705e-08 -0.00100061)
(-4.85591e-08 -4.76268e-08 -0.00100064)
(-4.46047e-07 -4.40283e-07 -0.00100015)
(-4.0258e-07 -4.29457e-07 -0.00100028)
(-3.1943e-07 -4.20164e-07 -0.0010004)
(-2.05152e-07 -4.13387e-07 -0.00100048)
(-7.05849e-08 -4.08954e-07 -0.00100053)
(-4.35223e-07 -3.96271e-07 -0.00100028)
(-3.92682e-07 -3.86383e-07 -0.00100041)
(-3.11664e-07 -3.7806e-07 -0.00100053)
(-2.00139e-07 -3.71987e-07 -0.00100061)
(-6.88404e-08 -3.67982e-07 -0.00100065)
(-4.25976e-07 -3.13773e-07 -0.00100039)
(-3.84369e-07 -3.05967e-07 -0.00100052)
(-3.05039e-07 -2.99356e-07 -0.00100063)
(-1.95818e-07 -2.94494e-07 -0.00100071)
(-6.73256e-08 -2.91316e-07 -0.00100075)
(-4.19248e-07 -2.01179e-07 -0.00100048)
(-3.7826e-07 -1.96127e-07 -0.0010006)
(-3.00192e-07 -1.91864e-07 -0.00100071)
(-1.92686e-07 -1.8873e-07 -0.00100078)
(-6.6252e-08 -1.8675e-07 -0.00100082)
(-4.14899e-07 -6.91319e-08 -0.00100052)
(-3.74297e-07 -6.7398e-08 -0.00100064)
(-2.97045e-07 -6.5927e-08 -0.00100075)
(-1.90697e-07 -6.48519e-08 -0.00100082)
(-6.55916e-08 -6.41943e-08 -0.00100086)
(-6.07397e-07 -5.99345e-07 -0.0010002)
(-5.48242e-07 -5.82562e-07 -0.00100039)
(-4.35054e-07 -5.6818e-07 -0.00100054)
(-2.79392e-07 -5.57629e-07 -0.00100066)
(-9.61142e-08 -5.50873e-07 -0.00100072)
(-5.90672e-07 -5.39005e-07 -0.00100038)
(-5.32963e-07 -5.23737e-07 -0.00100056)
(-4.22941e-07 -5.10809e-07 -0.00100071)
(-2.71534e-07 -5.01337e-07 -0.00100082)
(-9.33762e-08 -4.95312e-07 -0.00100088)
(-5.76406e-07 -4.26389e-07 -0.00100054)
(-5.20047e-07 -4.14328e-07 -0.00100071)
(-4.12662e-07 -4.04107e-07 -0.00100086)
(-2.649e-07 -3.96632e-07 -0.00100096)
(-9.10975e-08 -3.91946e-07 -0.00100102)
(-5.66047e-07 -2.73085e-07 -0.00100065)
(-5.10674e-07 -2.65426e-07 -0.00100082)
(-4.05245e-07 -2.58886e-07 -0.00100096)
(-2.60165e-07 -2.54133e-07 -0.00100106)
(-8.94868e-08 -2.51164e-07 -0.00100111)
(-5.59511e-07 -9.3774e-08 -0.00100071)
(-5.04824e-07 -9.11932e-08 -0.00100087)
(-4.00561e-07 -8.89499e-08 -0.00100101)
(-2.57167e-07 -8.73217e-08 -0.00100111)
(-8.84604e-08 -8.62996e-08 -0.00100116)
(-8.27031e-07 -8.15802e-07 -0.00100028)
(-7.46255e-07 -7.8967e-07 -0.00100053)
(-5.92315e-07 -7.67277e-07 -0.00100074)
(-3.80369e-07 -7.50852e-07 -0.0010009)
(-1.30827e-07 -7.40687e-07 -0.00100098)
(-8.01007e-07 -7.32458e-07 -0.00100052)
(-7.22696e-07 -7.08976e-07 -0.00100076)
(-5.73487e-07 -6.88955e-07 -0.00100097)
(-3.68184e-07 -6.74296e-07 -0.00100112)
(-1.26627e-07 -6.65275e-07 -0.00100119)
(-7.78943e-07 -5.78835e-07 -0.00100073)
(-7.02752e-07 -5.60294e-07 -0.00100096)
(-5.57645e-07 -5.44518e-07 -0.00100116)
(-3.58043e-07 -5.33057e-07 -0.0010013)
(-1.23167e-07 -5.26007e-07 -0.00100138)
(-7.63012e-07 -3.70468e-07 -0.00100088)
(-6.88368e-07 -3.58694e-07 -0.00100111)
(-5.4625e-07 -3.48627e-07 -0.0010013)
(-3.50738e-07 -3.4134e-07 -0.00100144)
(-1.2065e-07 -3.36806e-07 -0.00100151)
(-7.53087e-07 -1.27191e-07 -0.00100096)
(-6.79529e-07 -1.23191e-07 -0.00100118)
(-5.392e-07 -1.19738e-07 -0.00100137)
(-3.46203e-07 -1.17239e-07 -0.0010015)
(-1.1908e-07 -1.15675e-07 -0.00100157)
(-1.12566e-06 -1.10988e-06 -0.00100038)
(-1.01561e-06 -1.06934e-06 -0.00100072)
(-8.06085e-07 -1.03457e-06 -0.00100101)
(-5.17587e-07 -1.00911e-06 -0.00100123)
(-1.78011e-07 -9.93774e-07 -0.00100133)
(-1.08533e-06 -9.94594e-07 -0.00100071)
(-9.79136e-07 -9.58336e-07 -0.00100104)
(-7.76993e-07 -9.27393e-07 -0.00100132)
(-4.9889e-07 -9.04849e-07 -0.00100152)
(-1.71618e-07 -8.91241e-07 -0.00100162)
(-1.05127e-06 -7.84914e-07 -0.00100099)
(-9.48404e-07 -7.56345e-07 -0.0010013)
(-7.52612e-07 -7.32025e-07 -0.00100157)
(-4.83257e-07 -7.14395e-07 -0.00100176)
(-1.66236e-07 -7.03673e-07 -0.00100186)
(-1.02667e-06 -5.01998e-07 -0.0010012)
(-9.26232e-07 -4.83733e-07 -0.0010015)
(-7.35043e-07 -4.68238e-07 -0.00100175)
(-4.71968e-07 -4.56996e-07 -0.00100194)
(-1.62339e-07 -4.50139e-07 -0.00100203)
(-1.01165e-06 -1.72316e-07 -0.0010013)
(-9.12782e-07 -1.66042e-07 -0.00100159)
(-7.24405e-07 -1.60737e-07 -0.00100184)
(-4.65129e-07 -1.56886e-07 -0.00100203)
(-1.59978e-07 -1.54536e-07 -0.00100212)
(-1.53121e-06 -1.5088e-06 -0.00100052)
(-1.38159e-06 -1.44631e-06 -0.00100099)
(-1.09658e-06 -1.39256e-06 -0.00100138)
(-7.042e-07 -1.35311e-06 -0.00100167)
(-2.42233e-07 -1.32958e-06 -0.00100182)
(-1.46914e-06 -1.34906e-06 -0.00100097)
(-1.32529e-06 -1.29316e-06 -0.00100141)
(-1.05168e-06 -1.24546e-06 -0.00100179)
(-6.75274e-07 -1.21069e-06 -0.00100206)
(-2.32286e-07 -1.18995e-06 -0.0010022)
(-1.41673e-06 -1.06257e-06 -0.00100135)
(-1.27799e-06 -1.01859e-06 -0.00100177)
(-1.01413e-06 -9.81212e-07 -0.00100212)
(-6.51133e-07 -9.54056e-07 -0.00100238)
(-2.23958e-07 -9.37853e-07 -0.00100251)
(-1.37879e-06 -6.78687e-07 -0.00100162)
(-1.24392e-06 -6.50594e-07 -0.00100202)
(-9.87139e-07 -6.26798e-07 -0.00100236)
(-6.33829e-07 -6.09516e-07 -0.00100261)
(-2.18019e-07 -5.99229e-07 -0.00100274)
(-1.35618e-06 -2.32835e-07 -0.00100176)
(-1.2236e-06 -2.23182e-07 -0.00100215)
(-9.71074e-07 -2.15033e-07 -0.00100249)
(-6.23516e-07 -2.09115e-07 -0.00100273)
(-2.14471e-07 -2.05584e-07 -0.00100285)
(-2.08183e-06 -2.04944e-06 -0.00100072)
(-1.87821e-06 -1.95337e-06 -0.00100135)
(-1.49085e-06 -1.87037e-06 -0.00100189)
(-9.57588e-07 -1.8091e-06 -0.00100228)
(-3.29454e-07 -1.77286e-06 -0.00100248)
(-1.98653e-06 -1.82663e-06 -0.00100133)
(-1.79167e-06 -1.74082e-06 -0.00100192)
(-1.42155e-06 -1.66749e-06 -0.00100242)
(-9.12716e-07 -1.61388e-06 -0.00100279)
(-3.13937e-07 -1.58234e-06 -0.00100297)
(-1.90606e-06 -1.43504e-06 -0.00100184)
(-1.71908e-06 -1.36756e-06 -0.00100239)
(-1.36394e-06 -1.31028e-06 -0.00100287)
(-8.75694e-07 -1.26866e-06 -0.00100321)
(-3.01206e-07 -1.24428e-06 -0.00100338)
(-1.84777e-06 -9.1506e-07 -0.0010022)
(-1.66688e-06 -8.71994e-07 -0.00100273)
(-1.32265e-06 -8.3554e-07 -0.00100318)
(-8.49267e-07 -8.09153e-07 -0.00100351)
(-2.92141e-07 -7.93721e-07 -0.00100368)
(-1.81355e-06 -3.13691e-07 -0.00100238)
(-1.63619e-06 -2.98895e-07 -0.0010029)
(-1.29844e-06 -2.86397e-07 -0.00100334)
(-8.33795e-07 -2.77371e-07 -0.00100366)
(-2.86837e-07 -2.72095e-07 -0.00100382)
(-2.82925e-06 -2.78121e-06 -0.001001)
(-2.55114e-06 -2.63378e-06 -0.00100186)
(-2.0247e-06 -2.50568e-06 -0.00100258)
(-1.30066e-06 -2.41041e-06 -0.00100311)
(-4.47542e-07 -2.35457e-06 -0.00100338)
(-2.68316e-06 -2.46732e-06 -0.00100182)
(-2.41842e-06 -2.33594e-06 -0.00100262)
(-1.91813e-06 -2.22367e-06 -0.00100329)
(-1.23141e-06 -2.14148e-06 -0.00100378)
(-4.23534e-07 -2.09372e-06 -0.00100403)
(-2.55976e-06 -1.93195e-06 -0.0010025)
(-2.30749e-06 -1.82858e-06 -0.00100324)
(-1.83027e-06 -1.74116e-06 -0.00100387)
(-1.17505e-06 -1.67784e-06 -0.00100432)
(-4.0418e-07 -1.64129e-06 -0.00100456)
(-2.47025e-06 -1.2297e-06 -0.00100298)
(-2.2276e-06 -1.16355e-06 -0.00100368)
(-1.76738e-06 -1.10789e-06 -0.00100428)
(-1.13492e-06 -1.06783e-06 -0.00100471)
(-3.90427e-07 -1.04481e-06 -0.00100493)
(-2.41819e-06 -4.21277e-07 -0.00100322)
(-2.18117e-06 -3.98486e-07 -0.0010039)
(-1.731e-06 -3.794e-07 -0.00100448)
(-1.11184e-06 -3.6571e-07 -0.0010049)
(-3.82566e-07 -3.57897e-07 -0.00100512)
(-3.84294e-06 -3.76935e-06 -0.00100141)
(-3.46059e-06 -3.54406e-06 -0.00100257)
(-2.74535e-06 -3.34655e-06 -0.00100354)
(-1.76352e-06 -3.19809e-06 -0.00100426)
(-6.06686e-07 -3.11177e-06 -0.00100462)
(-3.62001e-06 -3.32136e-06 -0.00100251)
(-3.25781e-06 -3.1208e-06 -0.00100357)
(-2.58206e-06 -2.94976e-06 -0.00100446)