/*--------------------------------*- C++ -*----------------------------------*\
| =========                 |                                                 |
| \\      /  F ield         | OpenFOAM: The Open Source CFD Toolbox           |
|  \\    /   O peration     | Version:  5.x                                   |
|   \\  /    A nd           | Web:      www.OpenFOAM.org                      |
|    \\/     M anipulation  |                                                 |
\*---------------------------------------------------------------------------*/
FoamFile
{
    version     2.0;
    format      ascii;
    class       surfaceScalarField;
    location    "1000";
    object      phi;
}
// * * * * * * * * * * * * * * * * * * * * * * * * * * * * * * * * * * * * * //

dimensions      [0 3 -1 0 0 0 0];

internalField   nonuniform List<scalar> 
89
(
-142.681
-142.677
-142.673
-142.665
-142.657
-142.647
-142.637
-142.63
-142.626
-142.62
-142.61
-142.596
-142.583
-142.575
-142.57
-142.563
-142.554
-142.544
-142.535
-142.524
-142.512
-142.502
-142.492
-142.482
-142.469
-142.457
-142.447
-142.436
-142.423
-142.407
-142.388
-142.371
-142.351
-142.332
-142.313
-142.292
-142.27
-142.246
-142.223
-142.199
-142.176
-142.154
-142.13
-142.101
-142.07
-142.043
-142.014
-141.983
-141.948
-141.907
-141.865
-141.82
-141.771
-141.722
-141.669
-141.613
-141.557
-141.498
-141.436
-141.374
-141.309
-141.243
-141.178
-141.111
-141.049
-140.991
-140.936
-140.882
-140.829
-140.775
-140.721
-140.665
-140.608
-140.548
-140.487
-140.423
-140.357
-140.288
-140.217
-140.143
-140.067
-139.989
-139.908
-139.827
-139.744
-139.661
-139.578
-139.496
-139.421
)
;

boundaryField
{
    inlet
    {
        type            calculated;
        value           uniform -139.351;
    }
    outlet
    {
        type            calculated;
        value           uniform 142.684;
    }
    repeat_boundary
    {
        type            calculated;
        value           uniform 0;
    }
    procBoundary0to1
    {
        type            processor;
        value           nonuniform List<scalar> 
90
(
0.224367
0.230446
0.230465
0.231399
0.232344
0.233601
0.235563
0.239245
0.241158
0.241371
0.240975
0.241114
0.243408
0.247759
0.250626
0.251447
0.252457
0.253911
0.256128
0.256948
0.25913
0.262452
0.26438
0.266621
0.267979
0.270809
0.274437
0.276445
0.277624
0.278812
0.280206
0.283213
0.285744
0.288425
0.29186
0.293877
0.296193
0.298313
0.301842
0.30506
0.309206
0.312793
0.314029
0.315522
0.318888
0.323871
0.326417
0.328491
0.330248
0.330786
0.333925
0.33636
0.337855
0.341276
0.344046
0.346284
0.349857
0.352814
0.356197
0.360043
0.362785
0.367622
0.372416
0.376923
0.385163
0.392233
0.398955
0.404908
0.410329
0.415333
0.419988
0.424395
0.428599
0.432648
0.436574
0.4404
0.444148
0.447831
0.451462
0.455052
0.458613
0.462147
0.465656
0.46915
0.472691
0.476425
0.480177
0.483409
0.480449
0.478541
)
;
    }
    procBoundary0to2
    {
        type            processor;
        value           nonuniform List<scalar> 
90
(
-0.226741
-0.23437
-0.23455
-0.239431
-0.240892
-0.243738
-0.245409
-0.245612
-0.245415
-0.247938
-0.251046
-0.25421
-0.256444
-0.256213
-0.256097
-0.258054
-0.261296
-0.263904
-0.264867
-0.268073
-0.270962
-0.272511
-0.274741
-0.276966
-0.280267
-0.283235
-0.284695
-0.287122
-0.29027
-0.294851
-0.299088
-0.300977
-0.304928
-0.308346
-0.310795
-0.314415
-0.318017
-0.322204
-0.324755
-0.329061
-0.33281
-0.334371
-0.338524
-0.344468
-0.349311
-0.351617
-0.355338
-0.35946
-0.365403
-0.371861
-0.375352
-0.381081
-0.387041
-0.390676
-0.396525
-0.402302
-0.406145
-0.412297
-0.417674
-0.421625
-0.428518
-0.433383
-0.437306
-0.443555
-0.44734
-0.450441
-0.454353
-0.458742
-0.463634
-0.468836
-0.474334
-0.480039
-0.485917
-0.491926
-0.498032
-0.504204
-0.510408
-0.51661
-0.522768
-0.528836
-0.534766
-0.540492
-0.545889
-0.550803
-0.555153
-0.559435
-0.563685
-0.564828
-0.555624
-0.549063
)
;
    }
}


// ************************************************************************* //
