/*--------------------------------*- C++ -*----------------------------------*\
| =========                 |                                                 |
| \\      /  F ield         | OpenFOAM: The Open Source CFD Toolbox           |
|  \\    /   O peration     | Version:  5.x                                   |
|   \\  /    A nd           | Web:      www.OpenFOAM.org                      |
|    \\/     M anipulation  |                                                 |
\*---------------------------------------------------------------------------*/
FoamFile
{
    version     2.0;
    format      ascii;
    class       volVectorField;
    location    "1000";
    object      stored_U;
}
// * * * * * * * * * * * * * * * * * * * * * * * * * * * * * * * * * * * * * //

dimensions      [0 1 -1 0 0 0 0];

internalField   nonuniform List<vector> 
90
(
(0.0327209 -0.0275062 -5.6966)
(0.0330797 -0.0283407 -5.69457)
(0.0327957 -0.0281431 -5.69666)
(0.0327581 -0.0283532 -5.69632)
(0.0327821 -0.0285057 -5.69638)
(0.0328297 -0.0288102 -5.69451)
(0.0324653 -0.0287169 -5.69684)
(0.0322242 -0.0290847 -5.69632)
(0.0322232 -0.0294119 -5.69405)
(0.032243 -0.029004 -5.69626)
(0.0321809 -0.0290225 -5.69399)
(0.0317983 -0.0288094 -5.69591)
(0.0315206 -0.0291124 -5.69517)
(0.0314408 -0.0293359 -5.69511)
(0.03151 -0.0294376 -5.69494)
(0.0317896 -0.0295479 -5.69276)
(0.0312401 -0.0297292 -5.69501)
(0.0310758 -0.0300557 -5.69423)
(0.0312778 -0.0302572 -5.69207)
(0.0314532 -0.0300929 -5.69206)
(0.031477 -0.0299415 -5.6936)
(0.0315454 -0.030112 -5.693)
(0.0317924 -0.0303761 -5.6903)
(0.0317365 -0.0299729 -5.69124)
(0.0312792 -0.0300663 -5.69242)
(0.0308111 -0.0307077 -5.69152)
(0.0305272 -0.0312713 -5.69127)
(0.0304145 -0.0316857 -5.69075)
(0.0305698 -0.0321359 -5.68803)
(0.0301969 -0.0323605 -5.68984)
(0.0299142 -0.0329031 -5.68841)
(0.0300387 -0.033412 -5.68532)
(0.0301906 -0.0331804 -5.68718)
(0.0305231 -0.033181 -5.68596)
(0.0308844 -0.0335135 -5.68248)
(0.030762 -0.0333601 -5.68312)
(0.0304085 -0.0335696 -5.68383)
(0.0302331 -0.0340781 -5.68269)
(0.0303903 -0.0346802 -5.6794)
(0.0300954 -0.0351505 -5.68018)
(0.0300671 -0.0354964 -5.67861)
(0.0303878 -0.0354147 -5.67778)
(0.0305212 -0.0354036 -5.67644)
(0.0302719 -0.0355623 -5.67704)
(0.0298102 -0.0363212 -5.67531)
(0.0295286 -0.0369708 -5.67427)
(0.029331 -0.0375583 -5.67325)
(0.0292376 -0.0383951 -5.669)
(0.0290372 -0.0385038 -5.67044)
(0.0289008 -0.0389976 -5.66839)
(0.028825 -0.039861 -5.6636)
(0.0286324 -0.0399645 -5.66493)
(0.02855 -0.0404418 -5.66261)
(0.0285563 -0.0412952 -5.6574)
(0.0283556 -0.0414114 -5.65871)
(0.0283077 -0.0418972 -5.65602)
(0.0285278 -0.0426321 -5.65051)
(0.0283623 -0.0427204 -5.65175)
(0.0282187 -0.0433447 -5.64883)
(0.0287264 -0.0439106 -5.64305)
(0.0286153 -0.0439413 -5.64424)
(0.0290713 -0.044052 -5.6417)
(0.0303279 -0.0440357 -5.63577)
(0.0302557 -0.0441335 -5.63589)
(0.0304436 -0.0443081 -5.63319)
(0.0304527 -0.0445673 -5.63132)
(0.0304121 -0.0448969 -5.62925)
(0.0303179 -0.0452668 -5.62727)
(0.0301778 -0.0456762 -5.62523)
(0.0300027 -0.0461106 -5.62317)
(0.0297972 -0.0465642 -5.62104)
(0.0295663 -0.0470298 -5.61884)
(0.0293135 -0.0475014 -5.61657)
(0.0290414 -0.047973 -5.6142)
(0.0287522 -0.0484384 -5.61173)
(0.0284478 -0.0488904 -5.60916)
(0.0281295 -0.049321 -5.60649)
(0.0277987 -0.0497205 -5.60371)
(0.0274566 -0.0500775 -5.60082)
(0.0271045 -0.050378 -5.59782)
(0.0267432 -0.050605 -5.59472)
(0.0263736 -0.050735 -5.59153)
(0.025997 -0.0507375 -5.58825)
(0.025617 -0.0505846 -5.5849)
(0.0252382 -0.0502502 -5.58139)
(0.0248626 -0.0497296 -5.57791)
(0.0244565 -0.0488239 -5.57477)
(0.0240078 -0.0470417 -5.57223)
(0.0235909 -0.0445156 -5.56848)
(0.023471 -0.0436913 -5.56256)
)
;

boundaryField
{
    inlet
    {
        type            calculated;
        value           uniform (0.023471 -0.0436913 -5.56256);
    }
    outlet
    {
        type            calculated;
        value           uniform (0.0327209 -0.0275062 -5.6966);
    }
    repeat_boundary
    {
        type            calculated;
        value           nonuniform List<vector> 
180
(
(0.0327209 0 -5.6966)
(0.0330797 0 -5.69457)
(0.0327957 0 -5.69666)
(0.0327581 0 -5.69632)
(0.0327821 0 -5.69638)
(0.0328297 0 -5.69451)
(0.0324653 0 -5.69684)
(0.0322242 0 -5.69632)
(0.0322232 0 -5.69405)
(0.032243 0 -5.69626)
(0.0321809 0 -5.69399)
(0.0317983 0 -5.69591)
(0.0315206 0 -5.69517)
(0.0314408 0 -5.69511)
(0.03151 0 -5.69494)
(0.0317896 0 -5.69276)
(0.0312401 0 -5.69501)
(0.0310758 0 -5.69423)
(0.0312778 0 -5.69207)
(0.0314532 0 -5.69206)
(0.031477 0 -5.6936)
(0.0315454 0 -5.693)
(0.0317924 0 -5.6903)
(0.0317365 0 -5.69124)
(0.0312792 0 -5.69242)
(0.0308111 0 -5.69152)
(0.0305272 0 -5.69127)
(0.0304145 0 -5.69075)
(0.0305698 0 -5.68803)
(0.0301969 0 -5.68984)
(0.0299142 0 -5.68841)
(0.0300387 0 -5.68532)
(0.0301906 0 -5.68718)
(0.0305231 0 -5.68596)
(0.0308844 0 -5.68248)
(0.030762 0 -5.68312)
(0.0304085 0 -5.68383)
(0.0302331 0 -5.68269)
(0.0303903 0 -5.6794)
(0.0300954 0 -5.68018)
(0.0300671 0 -5.67861)
(0.0303878 0 -5.67778)
(0.0305212 0 -5.67644)
(0.0302719 0 -5.67704)
(0.0298102 0 -5.67531)
(0.0295286 0 -5.67427)
(0.029331 0 -5.67325)
(0.0292376 0 -5.669)
(0.0290372 0 -5.67044)
(0.0289008 0 -5.66839)
(0.028825 0 -5.6636)
(0.0286324 0 -5.66493)
(0.02855 0 -5.66261)
(0.0285563 0 -5.6574)
(0.0283556 0 -5.65871)
(0.0283077 0 -5.65602)
(0.0285278 0 -5.65051)
(0.0283623 0 -5.65175)
(0.0282187 0 -5.64883)
(0.0287264 0 -5.64305)
(0.0286153 0 -5.64424)
(0.0290713 0 -5.6417)
(0.0303279 0 -5.63577)
(0.0302557 0 -5.63589)
(0.0304436 0 -5.63319)
(0.0304527 0 -5.63132)
(0.0304121 0 -5.62925)
(0.0303179 0 -5.62727)
(0.0301778 0 -5.62523)
(0.0300027 0 -5.62317)
(0.0297972 0 -5.62104)
(0.0295663 0 -5.61884)
(0.0293135 0 -5.61657)
(0.0290414 0 -5.6142)
(0.0287522 0 -5.61173)
(0.0284478 0 -5.60916)
(0.0281295 0 -5.60649)
(0.0277987 0 -5.60371)
(0.0274566 0 -5.60082)
(0.0271045 0 -5.59782)
(0.0267432 0 -5.59472)
(0.0263736 0 -5.59153)
(0.025997 0 -5.58825)
(0.025617 0 -5.5849)
(0.0252382 0 -5.58139)
(0.0248626 0 -5.57791)
(0.0244565 0 -5.57477)
(0.0240078 0 -5.57223)
(0.0235909 0 -5.56848)
(0.023471 0 -5.56256)
(0 -0.0275062 -5.6966)
(0 -0.0283407 -5.69457)
(0 -0.0281431 -5.69666)
(0 -0.0283532 -5.69632)
(0 -0.0285057 -5.69638)
(0 -0.0288102 -5.69451)
(0 -0.0287169 -5.69684)
(0 -0.0290847 -5.69632)
(0 -0.0294119 -5.69405)
(0 -0.029004 -5.69626)
(0 -0.0290225 -5.69399)
(0 -0.0288094 -5.69591)
(0 -0.0291124 -5.69517)
(0 -0.0293359 -5.69511)
(0 -0.0294376 -5.69494)
(0 -0.0295479 -5.69276)
(0 -0.0297292 -5.69501)
(0 -0.0300557 -5.69423)
(0 -0.0302572 -5.69207)
(0 -0.0300929 -5.69206)
(0 -0.0299415 -5.6936)
(0 -0.030112 -5.693)
(0 -0.0303761 -5.6903)
(0 -0.0299729 -5.69124)
(0 -0.0300663 -5.69242)
(0 -0.0307077 -5.69152)
(0 -0.0312713 -5.69127)
(0 -0.0316857 -5.69075)
(0 -0.0321359 -5.68803)
(0 -0.0323605 -5.68984)
(0 -0.0329031 -5.68841)
(0 -0.033412 -5.68532)
(0 -0.0331804 -5.68718)
(0 -0.033181 -5.68596)
(0 -0.0335135 -5.68248)
(0 -0.0333601 -5.68312)
(0 -0.0335696 -5.68383)
(0 -0.0340781 -5.68269)
(0 -0.0346802 -5.6794)
(0 -0.0351505 -5.68018)
(0 -0.0354964 -5.67861)
(0 -0.0354147 -5.67778)
(0 -0.0354036 -5.67644)
(0 -0.0355623 -5.67704)
(0 -0.0363212 -5.67531)
(0 -0.0369708 -5.67427)
(0 -0.0375583 -5.67325)
(0 -0.0383951 -5.669)
(0 -0.0385038 -5.67044)
(0 -0.0389976 -5.66839)
(0 -0.039861 -5.6636)
(0 -0.0399645 -5.66493)
(0 -0.0404418 -5.66261)
(0 -0.0412952 -5.6574)
(0 -0.0414114 -5.65871)
(0 -0.0418972 -5.65602)
(0 -0.0426321 -5.65051)
(0 -0.0427204 -5.65175)
(0 -0.0433447 -5.64883)
(0 -0.0439106 -5.64305)
(0 -0.0439413 -5.64424)
(0 -0.044052 -5.6417)
(0 -0.0440357 -5.63577)
(0 -0.0441335 -5.63589)
(0 -0.0443081 -5.63319)
(0 -0.0445673 -5.63132)
(0 -0.0448969 -5.62925)
(0 -0.0452668 -5.62727)
(0 -0.0456762 -5.62523)
(0 -0.0461106 -5.62317)
(0 -0.0465642 -5.62104)
(0 -0.0470298 -5.61884)
(0 -0.0475014 -5.61657)
(0 -0.047973 -5.6142)
(0 -0.0484384 -5.61173)
(0 -0.0488904 -5.60916)
(0 -0.049321 -5.60649)
(0 -0.0497205 -5.60371)
(0 -0.0500775 -5.60082)
(0 -0.050378 -5.59782)
(0 -0.050605 -5.59472)
(0 -0.050735 -5.59153)
(0 -0.0507375 -5.58825)
(0 -0.0505846 -5.5849)
(0 -0.0502502 -5.58139)
(0 -0.0497296 -5.57791)
(0 -0.0488239 -5.57477)
(0 -0.0470417 -5.57223)
(0 -0.0445156 -5.56848)
(0 -0.0436913 -5.56256)
)
;
    }
    procBoundary0to1
    {
        type            processor;
        value           nonuniform List<vector> 
90
(
(0.0594737 -0.00122463 -4.5012)
(0.0612893 -0.00075949 -4.48604)
(0.0620338 -3.71648e-05 -4.47609)
(0.0627347 0.00061575 -4.4657)
(0.0633666 0.00124113 -4.45563)
(0.0639102 0.00179891 -4.4452)
(0.0643086 0.00230699 -4.43511)
(0.0648386 0.00279408 -4.42496)
(0.0655137 0.00325108 -4.41494)
(0.0662094 0.00368764 -4.4049)
(0.0669394 0.00410161 -4.39487)
(0.0675196 0.00447984 -4.38489)
(0.0679391 0.0048247 -4.37498)
(0.0685861 0.00517141 -4.36515)
(0.0692702 0.00552109 -4.35532)
(0.0699228 0.00585218 -4.34547)
(0.070518 0.00617001 -4.33569)
(0.0709737 0.00648158 -4.32595)
(0.0717464 0.0068054 -4.31619)
(0.0728209 0.00714422 -4.30642)
(0.0737817 0.00748332 -4.2966)
(0.0746382 0.00781654 -4.28675)
(0.0756767 0.00813672 -4.27683)
(0.0768002 0.00844963 -4.26686)
(0.0774337 0.008744 -4.25687)
(0.077768 0.00901781 -4.24695)
(0.0782321 0.00929924 -4.23715)
(0.0788898 0.0095995 -4.22738)
(0.0796856 0.00990203 -4.2176)
(0.080415 0.0102186 -4.20786)
(0.0811734 0.0105462 -4.19814)
(0.0823496 0.0108821 -4.18842)
(0.0836402 0.0112492 -4.1787)
(0.0848827 0.0116344 -4.16887)
(0.0861993 0.0120022 -4.15892)
(0.087277 0.0123444 -4.14897)
(0.0880272 0.0126797 -4.13903)
(0.0889236 0.0130205 -4.12911)
(0.0901524 0.0133693 -4.11917)
(0.0913932 0.0137246 -4.10919)
(0.0924098 0.0140731 -4.09917)
(0.0934931 0.0144268 -4.08906)
(0.0947192 0.0147794 -4.0789)
(0.0957517 0.0151056 -4.06874)
(0.096549 0.0154049 -4.05865)
(0.0974162 0.0157217 -4.04863)
(0.0983052 0.0160442 -4.03863)
(0.099334 0.0163521 -4.02866)
(0.100557 0.0166799 -4.01873)
(0.101599 0.0170085 -4.00876)
(0.102769 0.0173287 -3.99879)
(0.104096 0.0176612 -3.98887)
(0.105204 0.017988 -3.97891)
(0.106509 0.0183134 -3.96892)
(0.10794 0.0186474 -3.95899)
(0.109146 0.0189709 -3.94901)
(0.110668 0.0192969 -3.93898)
(0.112233 0.0196301 -3.92899)
(0.113593 0.0199489 -3.91897)
(0.115432 0.0202669 -3.90889)
(0.117433 0.0206035 -3.89882)
(0.119174 0.0209372 -3.88863)
(0.121269 0.0212634 -3.87829)
(0.123521 0.0215707 -3.86783)
(0.125554 0.02186 -3.8572)
(0.127493 0.0221236 -3.84647)
(0.129348 0.02236 -3.83565)
(0.131143 0.0225694 -3.82475)
(0.132888 0.0227514 -3.81379)
(0.134599 0.0229072 -3.80278)
(0.136285 0.0230378 -3.79173)
(0.137952 0.0231444 -3.78064)
(0.139606 0.0232284 -3.76952)
(0.14125 0.0232915 -3.75837)
(0.142888 0.0233354 -3.7472)
(0.144521 0.023362 -3.736)
(0.146152 0.023374 -3.72479)
(0.147782 0.0233743 -3.71356)
(0.149413 0.0233664 -3.70232)
(0.151046 0.0233547 -3.69107)
(0.152684 0.0233447 -3.67982)
(0.154327 0.0233432 -3.66859)
(0.155978 0.0233603 -3.65736)
(0.157644 0.0234086 -3.6461)
(0.159335 0.0234975 -3.63471)
(0.161066 0.02363 -3.62362)
(0.162785 0.0238219 -3.61333)
(0.164448 0.0240901 -3.60394)
(0.166178 0.0243145 -3.59104)
(0.167455 0.0242517 -3.57507)
)
;
    }
    procBoundary0to2
    {
        type            processor;
        value           nonuniform List<vector> 
90
(
(0.0341724 -0.0651173 -7.00896)
(0.034375 -0.0674786 -7.03988)
(0.0308078 -0.0671091 -7.05569)
(0.0294029 -0.068318 -7.07962)
(0.0265372 -0.0685422 -7.0986)
(0.0244358 -0.0693782 -7.12033)
(0.0217941 -0.0700033 -7.14033)
(0.0194295 -0.0707042 -7.1612)
(0.0168906 -0.0711959 -7.18142)
(0.0144634 -0.0717193 -7.20183)
(0.0119958 -0.0721913 -7.22184)
(0.00956771 -0.0727914 -7.24182)
(0.00713168 -0.0735271 -7.26165)
(0.00474542 -0.0741463 -7.28145)
(0.00239312 -0.0747651 -7.30113)
(7.34418e-05 -0.0754577 -7.3207)
(-0.00222496 -0.0762294 -7.34022)
(-0.0044903 -0.077099 -7.35968)
(-0.00671243 -0.0778258 -7.3791)
(-0.00889328 -0.0784383 -7.39844)
(-0.0110497 -0.0791476 -7.41767)
(-0.0131882 -0.0799492 -7.43688)
(-0.0153083 -0.0806777 -7.45604)
(-0.017414 -0.08132 -7.4751)
(-0.01952 -0.0822707 -7.49409)
(-0.0216356 -0.0834675 -7.51312)
(-0.0237492 -0.0846275 -7.53225)
(-0.0258554 -0.0856827 -7.55144)
(-0.027963 -0.0866932 -7.57065)
(-0.0300748 -0.0877634 -7.58992)
(-0.032191 -0.0888464 -7.60923)
(-0.0343123 -0.0897788 -7.6286)
(-0.0364358 -0.0907259 -7.648)
(-0.0385674 -0.0917289 -7.6674)
(-0.0407216 -0.0926769 -7.68681)
(-0.0429064 -0.0937146 -7.70622)
(-0.0451228 -0.0949589 -7.72567)
(-0.0473715 -0.096175 -7.7452)
(-0.0496513 -0.0973152 -7.76483)
(-0.0519636 -0.0985163 -7.78453)
(-0.0543117 -0.0998112 -7.8043)
(-0.0566895 -0.101014 -7.82408)
(-0.0591053 -0.102165 -7.84387)
(-0.0615758 -0.103442 -7.86369)
(-0.0641028 -0.104894 -7.88364)
(-0.0666699 -0.106396 -7.90371)
(-0.0692804 -0.107867 -7.92392)
(-0.0719364 -0.109303 -7.94423)
(-0.0746301 -0.110656 -7.96466)
(-0.0773673 -0.112087 -7.98513)
(-0.0801515 -0.113544 -8.0057)
(-0.0829788 -0.114951 -8.02639)
(-0.0858547 -0.116447 -8.04713)
(-0.0887769 -0.117939 -8.06797)
(-0.0917454 -0.119385 -8.08893)
(-0.094767 -0.120938 -8.10995)
(-0.0978347 -0.122443 -8.13107)
(-0.100951 -0.123923 -8.15229)
(-0.104124 -0.125525 -8.1736)
(-0.107344 -0.127024 -8.19501)
(-0.11061 -0.128472 -8.2165)
(-0.113934 -0.130103 -8.23807)
(-0.117312 -0.131655 -8.2597)
(-0.120755 -0.13315 -8.28137)
(-0.124261 -0.134759 -8.30305)
(-0.127842 -0.136441 -8.3248)
(-0.131496 -0.138197 -8.3466)
(-0.135228 -0.139999 -8.36848)
(-0.139038 -0.14185 -8.39045)
(-0.142927 -0.143741 -8.41249)
(-0.146898 -0.145669 -8.43463)
(-0.15095 -0.14763 -8.45685)
(-0.155085 -0.149619 -8.47915)
(-0.159306 -0.151635 -8.50154)
(-0.163615 -0.153672 -8.524)
(-0.168016 -0.155729 -8.54653)
(-0.172511 -0.157799 -8.56913)
(-0.177105 -0.159878 -8.59178)
(-0.181804 -0.161958 -8.61447)
(-0.186614 -0.164033 -8.63719)
(-0.191543 -0.166092 -8.65992)
(-0.196603 -0.168122 -8.68261)
(-0.201809 -0.170104 -8.70527)
(-0.207169 -0.172024 -8.72792)
(-0.212693 -0.173868 -8.75059)
(-0.218395 -0.17564 -8.77279)
(-0.224436 -0.177215 -8.79366)
(-0.231108 -0.178276 -8.81407)
(-0.238303 -0.178959 -8.84076)
(-0.241887 -0.179839 -8.86146)
)
;
    }
}


// ************************************************************************* //
