/*--------------------------------*- C++ -*----------------------------------*\
  =========                 |
  \\      /  F ield         | OpenFOAM: The Open Source CFD Toolbox
   \\    /   O peration     | Website:  https://openfoam.org
    \\  /    A nd           | Version:  9
     \\/     M anipulation  |
\*---------------------------------------------------------------------------*/
FoamFile
{
    format      ascii;
    class       surfaceScalarField;
    location    "400";
    object      phi;
}
// * * * * * * * * * * * * * * * * * * * * * * * * * * * * * * * * * * * * * //

dimensions      [0 3 -1 0 0 0 0];

internalField   nonuniform List<scalar> 
716
(
0.0434026
-0.137074
-116.572
-0.205841
-115.41
0.140153
-121.049
-122.298
0.0450887
-0.144541
-116.473
-0.212854
-115.152
0.151986
-121.346
-122.358
0.0530761
-0.164503
-116.361
-0.231195
-114.868
0.16927
-121.68
-122.42
0.0603025
-0.19071
-116.231
-0.26795
-114.539
0.179104
-122.05
-122.509
0.0677553
-0.228594
-116.07
-0.310607
-114.161
0.21159
-122.49
-122.608
0.0754637
-0.266531
-115.879
-0.350558
-113.735
0.24628
-123.003
-122.712
0.0834378
-0.304312
-115.658
-0.383527
-113.268
0.284888
-123.592
-122.811
0.0913329
-0.343526
-115.406
-0.41231
-112.764
0.316859
-124.252
-122.907
0.098986
-0.382585
-115.122
-0.456651
-112.209
0.341927
-124.977
-123.021
0.107258
-0.42105
-114.808
-0.504629
-111.597
0.376617
-125.774
-123.149
0.115923
-0.458686
-114.466
-0.555655
-110.925
0.404437
-126.637
-123.301
0.12507
-0.495059
-114.096
-0.610503
-110.19
0.44138
-127.574
-123.47
0.134841
-0.530027
-113.701
-0.661451
-109.393
0.4808
-128.585
-123.65
0.145197
-0.563602
-113.282
-0.710726
-108.538
0.523631
-129.672
-123.837
0.156016
-0.595599
-112.843
-0.757954
-107.624
0.569485
-130.837
-124.026
0.167034
-0.626003
-112.384
-0.80319
-106.653
0.617961
-132.081
-124.211
0.177952
-0.654691
-111.907
-0.846267
-105.629
0.66878
-133.405
-124.389
0.188479
-0.681459
-111.414
-0.886794
-104.554
0.721421
-134.807
-124.554
0.198309
-0.706155
-110.906
-0.924406
-103.431
0.77528
-136.289
-124.703
0.207171
-0.728542
-110.385
-0.958765
-102.265
0.829545
-137.847
-124.832
0.214848
-0.748418
-109.851
-0.989732
-101.061
0.88342
-139.479
-124.939
0.221274
-0.765561
-109.307
-1.01726
-99.8221
0.936258
-141.181
-125.02
0.2265
-0.779722
-108.754
-1.04114
-98.5544
0.987503
-142.948
-125.073
0.230646
-0.790679
-108.194
-1.06096
-97.2628
1.03613
-144.775
-125.098
0.233998
-0.798283
-107.629
-1.07738
-95.9515
1.0809
-146.654
-125.095
0.237034
-0.802393
-107.064
-1.09057
-94.6239
1.12212
-148.578
-125.063
0.240251
-0.803005
-106.501
-1.10064
-93.283
1.1591
-150.54
-125.005
0.244278
-0.800184
-105.945
-1.10814
-91.9305
1.19206
-152.533
-124.921
0.249788
-0.794085
-105.401
-1.11318
-90.5676
1.2213
-154.548
-124.813
0.257475
-0.784967
-104.873
-1.11613
-89.194
1.24737
-156.58
-124.681
0.268024
-0.773172
-104.368
-1.11712
-87.8088
1.27121
-158.625
-124.527
0.282055
-0.75913
-103.891
-1.11628
-86.4105
1.2939
-160.678
-124.35
0.300098
-0.743334
-103.448
-1.11353
-84.9969
1.31677
-162.738
-124.146
0.322551
-0.726319
-103.044
-1.10871
-83.5656
1.34121
-164.805
-123.914
0.349664
-0.708641
-102.685
-1.10146
-82.1145
1.36859
-166.883
-123.647
0.381517
-0.690848
-102.376
-1.09132
-80.6416
1.40016
-168.974
-123.338
0.41802
-0.673463
-102.12
-1.07771
-79.1459
1.43688
-171.084
-122.979
0.45892
-0.656956
-101.922
-1.05995
-77.627
1.47927
-173.22
-122.559
0.503816
-0.641738
-101.784
-1.03733
-76.0859
1.52737
-175.389
-122.069
0.552185
-0.628148
-101.709
-1.00914
-74.5246
1.58062
-177.598
-121.498
0.603412
-0.616451
-101.695
-0.974712
-72.9464
1.63784
-179.852
-120.835
0.656825
-0.606841
-101.745
-0.933484
-71.3561
1.69733
-182.157
-120.071
0.711729
-0.599448
-101.858
-0.885014
-69.7594
1.75691
-184.513
-119.199
0.767432
-0.594365
-102.031
-0.829035
-68.1629
1.81414
-186.921
-118.214
0.823272
-0.591656
-102.262
-0.765483
-66.5742
1.86646
-189.38
-117.113
0.878631
-0.591386
-102.55
-0.694529
-65.001
1.91148
-191.882
-115.896
0.932941
-0.593643
-102.889
-0.616614
-63.4514
1.94704
-194.423
-114.566
0.985684
-0.598574
-103.276
-0.532458
-61.9333
1.97144
-196.993
-113.127
1.03639
-0.606413
-103.706
-0.443085
-60.4538
1.98347
-199.583
-111.586
1.08457
-0.617499
-104.173
-0.349989
-59.0193
1.98242
-202.183
-109.954
1.12973
-0.632272
-104.671
-0.254958
-57.6346
1.96802
-204.783
-108.241
1.17136
-0.651212
-105.191
-0.159828
-56.3034
1.94041
-207.375
-106.46
1.20878
-0.674794
-105.725
-0.0661267
-55.0285
1.90013
-209.95
-104.626
1.24154
-0.703437
-106.263
0.0251916
-53.8122
1.84802
-212.501
-102.753
1.26978
-0.737377
-106.795
0.112211
-52.6546
1.78498
-215.024
-100.856
1.294
-0.776527
-107.313
0.189637
-51.5502
1.71174
-217.512
-98.9543
1.31377
-0.820342
-107.806
0.256597
-50.493
1.62975
-219.962
-97.068
1.32829
-0.867832
-108.267
0.312193
-49.4769
1.54077
-222.371
-95.215
1.33687
-0.917652
-108.686
0.35682
-48.4969
1.44662
-224.735
-93.4116
1.33905
-0.968272
-109.057
0.391282
-47.5491
1.34902
-227.052
-91.6713
1.33463
-1.01816
-109.373
0.416419
-46.6309
1.24934
-229.32
-90.0055
1.32366
-1.06592
-109.631
0.433064
-45.7403
1.14864
-231.534
-88.4238
1.30639
-1.11043
-109.827
0.441994
-44.8759
1.04761
-233.692
-86.9342
1.28323
-1.15086
-109.959
0.443924
-44.0366
0.946717
-235.79
-85.5435
1.25472
-1.18675
-110.027
0.43957
-43.2215
0.846312
-237.823
-84.2577
1.22149
-1.21787
-110.031
0.429572
-42.4295
0.746654
-239.787
-83.0814
1.1842
-1.24424
-109.971
0.4145
-41.6598
0.647978
-241.68
-82.019
1.14357
-1.26606
-109.848
0.394898
-40.9112
0.55059
-243.496
-81.0735
1.10029
-1.28365
-109.665
0.371323
-40.1822
0.454919
-245.235
-80.2472
1.05507
-1.29746
-109.422
0.344408
-39.4715
0.361573
-246.894
-79.5413
1.00857
-1.30798
-109.123
0.314941
-38.7779
0.27139
-248.473
-78.9549
0.961415
-1.31572
-108.769
0.283822
-38.1003
0.185356
-249.974
-78.4857
0.914169
-1.3212
-108.362
0.252074
-37.4382
0.104544
-251.4
-78.1291
0.867329
-1.32491
-107.904
0.221077
-36.792
0.0299246
-252.755
-77.8781
0.821309
-1.32759
-107.398
0.193381
-36.164
-0.035189
-254.047
-77.7199
0.776427
-1.33064
-106.844
0.172934
-35.5605
-0.0881341
-255.29
-77.6351
0.732708
-1.33491
-106.241
0.162475
-34.9903
-0.126672
-256.498
-77.5993
0.689896
-1.33916
-105.592
0.160552
-34.461
-0.155237
-257.682
-77.594
0.647796
-1.34199
-104.898
0.165268
-33.9784
-0.176823
-258.847
-77.6056
0.606398
-1.34256
-104.162
0.175271
-33.5473
-0.193271
-259.996
-77.6236
0.565842
-1.34029
-103.387
0.189493
-33.171
-0.205861
-261.131
-77.6399
0.526431
-1.33468
-102.579
0.207176
-32.8517
-0.215421
-262.25
-77.6482
0.488687
-1.32523
-101.743
0.227731
-32.5908
-0.222517
-263.353
-77.643
0.453315
-1.31124
-100.885
0.250843
-32.3883
-0.227642
-264.436
-77.6198
0.420792
-1.29232
-100.013
0.276281
-32.2438
-0.231038
-265.498
-77.5745
0.390301
-1.27022
-99.1332
0.302236
-32.1557
-0.232324
-266.536
-77.5046
0.362826
-1.24328
-98.2528
0.331065
-32.1239
-0.230198
-267.549
-77.4037
0.34306
-1.20449
-97.3913
0.360051
-32.1409
-0.23085
-268.522
-77.2745
0.33683
-1.11424
-96.6139
0.413239
-32.2173
-0.265207
-269.371
-77.1265
0.333981
-1.0502
0.450038
-0.286166
)
;

boundaryField
{
    inlet
    {
        type            calculated;
        value           nonuniform List<scalar> 4(-95.8977 -270.135 -32.3334 -76.9626);
    }
    outlet
    {
        type            calculated;
        value           nonuniform List<scalar> 4(116.666 120.772 115.659 122.232);
    }
    repeat_boundary
    {
        type            calculated;
        value           uniform 0;
    }
}


// ************************************************************************* //
