FoamFile
{version 2.0; format ascii;class Cloud<passiveParticle>; location 0;object  positions;}
346
(
( 216.486 -887.638 497.717 ) 0 
( 1939.59 -789.95 498.79 ) 0 
( 2920.12 -986.283 498.727 ) 0 
( 4386.36 -2099.28 497.813 ) 0 
( 2181.53 -1759.64 498.277 ) 0 
( 1352.93 -2317.78 498.695 ) 0 
( 387.506 -2054.34 496.861 ) 0 
( 4070.19 -984.585 498.573 ) 0 
( 2612.42 -4772.15 497.745 ) 0 
( 2175.96 -2884.05 498.512 ) 0 
( 3598.06 -78.3927 497.632 ) 0 
( 4666.56 -4819.15 497.916 ) 0 
( 4777.37 -3087.29 498.35 ) 0 
( 3700.54 -3071.86 498.498 ) 0 
( 4651.56 -1423.26 1183.83 ) 0 
( 632.947 -4519.73 498.827 ) 0 
( 1164.23 -3673.03 498.564 ) 0 
( 3146.86 -3903.68 497.828 ) 0 
( 4598.77 -134.251 497.945 ) 0 
( 3684.49 -4162.01 1299.19 ) 0 
( 3417.44 -1854.9 497.337 ) 0 
( 2147.44 -3882.41 499.179 ) 0 
( 4227.09 -3921.36 497.189 ) 0 
( 143.879 -4228.9 1322.92 ) 0 
( 1106.03 -1349.62 497.879 ) 0 
( 165.978 -3606.29 498.596 ) 0 
( 2659.41 -3411.74 1216.34 ) 0 
( 3668.35 -4755.02 496.48 ) 0 
( 2597.32 -38.2466 498.159 ) 0 
( 1613.91 -4726.21 498.676 ) 0 
( 1141.08 -503.152 1025.42 ) 0 
( 1309.96 -4233.11 1312.63 ) 0 
( 2046.46 -195.704 1317.27 ) 0 
( 2350.67 -4350.17 1363.83 ) 0 
( 1701.2 -1267.84 1343.39 ) 0 
( 3083.52 -400.226 1290.78 ) 0 
( 2858.23 -2443.04 1077.89 ) 0 
( 4260.58 -3346 1313.16 ) 0 
( 712.323 -2918.31 973.315 ) 0 
( 4707.17 -4240.93 1311.42 ) 0 
( 206.559 -366.088 1348.86 ) 0 
( 1910.08 -2248.14 1325.83 ) 0 
( 4082.57 -394.298 1311.79 ) 0 
( 1670.3 -3281.88 1265.83 ) 0 
( 19.2243 -1348.13 1360.79 ) 0 
( 3664.1 -1362.47 1328.6 ) 0 
( 818.167 -985.477 1837.88 ) 0 
( 1164 -2651.75 1852.44 ) 0 
( 34.0504 -2946.65 2159.43 ) 0 
( 2674.56 -1493.09 1324.29 ) 0 
( 1193.51 -38.1263 1906.72 ) 0 
( 726.287 -3542.82 1752.22 ) 0 
( 885.961 -1845.38 1335.6 ) 0 
( 414.53 -2007.22 2206.84 ) 0 
( 2174.89 -3652.3 2055.94 ) 0 
( 4319.32 -1936.89 1975.28 ) 0 
( 327.522 -276.848 2342.46 ) 0 
( 3043.88 -4179.93 2063.31 ) 0 
( 1375.47 -1732.35 2199.2 ) 0 
( 4165.66 -4484.01 2112.46 ) 0 
( 2527.53 -2721.47 1977.47 ) 0 
( 4116.66 -970.97 2125.08 ) 0 
( 3415.25 -3153.59 1814.48 ) 0 
( 3840.35 -2441.27 1259.42 ) 0 
( 4837.6 -2491.96 1297.83 ) 0 
( 3246.1 -2027.34 1946.94 ) 0 
( 731.896 -4503.55 2080.97 ) 0 
( 2927.95 -3383.31 2655.1 ) 0 
( 2528.72 -4526.79 2843.98 ) 0 
( 2368.07 -1722.91 2314.34 ) 0 
( 4829.28 -276.483 2203.19 ) 0 
( 3872.76 -2633.62 2534.14 ) 0 
( 4931.27 -2223.76 2712.02 ) 0 
( 1306.06 -3765.13 2533.77 ) 0 
( 312.472 -3780.73 2630.99 ) 0 
( 4912.37 -1226.48 2668.43 ) 0 
( 1787.91 -2537.59 2623.35 ) 0 
( 3891.14 -3631.28 2550.66 ) 0 
( 2494.6 -782.098 2001.01 ) 0 
( 4859.57 -3825.3 2702.33 ) 0 
( 46.8825 -4609.18 3120.19 ) 0 
( 834.164 -2913.55 2756.48 ) 0 
( 4709.25 -3013 2140.8 ) 0 
( 1759.69 -4563.93 2141.31 ) 0 
( 2099.81 -3672.37 3131.9 ) 0 
( 2413.68 -887.515 2995.9 ) 0 
( 4145.41 -745.377 3095.98 ) 0 
( 749.9 -1156.32 2818.63 ) 0 
( 2946.2 -2398.91 2824.77 ) 0 
( 1137.07 -4640.97 2981.95 ) 0 
( 1594.5 -785.481 2433.68 ) 0 
( 3410.7 -272.119 2224.35 ) 0 
( 3232.04 -1210.01 2521.48 ) 0 
( 4008.93 -1714.06 2898.23 ) 0 
( 3551.99 -4608.84 2890.8 ) 0 
( 3232.87 -354.353 3202.67 ) 0 
( 1509.44 -2950.6 3489.45 ) 0 
( 4189.8 -4035.28 3413.07 ) 0 
( 4631.35 -4793.78 2937.27 ) 0 
( 2709.22 -458.555 4046.27 ) 0 
( 3971.47 -80.2415 3819.68 ) 0 
( 697.312 -4644.62 3877.67 ) 0 
( 1909.5 -4674.11 3613.13 ) 0 
( 1278.81 -485.2 3333.3 ) 0 
( 793.145 -2051.65 3260.58 ) 0 
( 2987.59 -1592.04 3410.93 ) 0 
( 4570.59 -3012.79 3207.03 ) 0 
( 106.921 -2770.43 3424.5 ) 0 
( 1632.76 -1494.71 3135.67 ) 0 
( 4772.99 -1690.25 3542.07 ) 0 
( 3059.74 -3975.64 3485.99 ) 0 
( 787.003 -2774.58 4157.28 ) 0 
( 2191.55 -1306.52 3941.94 ) 0 
( 1415.35 -2005.74 4041.63 ) 0 
( 3770.83 -2214.79 3729.91 ) 0 
( 3589.87 -3124.59 3357.19 ) 0 
( 373.5 -1273.43 3735.32 ) 0 
( 4680.26 -777.786 3938.67 ) 0 
( 4230.46 -3310.99 4099.88 ) 0 
( 2725.27 -4606.5 4185.84 ) 0 
( 2660.64 -3090.16 3718.53 ) 0 
( 1261.15 -1026.74 4171.82 ) 0 
( 893.006 -3736.61 3443.73 ) 0 
( 2207.41 -2234.87 3477.03 ) 0 
( 1697.08 -3788.43 4037.61 ) 0 
( 3698.54 -1103.49 3913.89 ) 0 
( 649.734 -1689.01 4600.9 ) 0 
( 2121.52 -1877.21 4758.55 ) 0 
( 784.465 -3824.39 4440.59 ) 0 
( 177.263 -352.029 4067.48 ) 0 
( 3516.33 -436.492 4634.7 ) 0 
( 3336.81 -3047.87 4459.73 ) 0 
( 1896.19 -127.456 4522.75 ) 0 
( 4213.53 -4989.29 4531.34 ) 0 
( 1863.32 -4286.24 4887.68 ) 0 
( 4387.3 -1580.41 4456.91 ) 0 
( 856.226 -364.435 4801.17 ) 0 
( 2965.62 -1268.11 4572.73 ) 0 
( 2890.3 -2192.67 4203.03 ) 0 
( 3667.28 -4203.1 4245.79 ) 0 
( 4851.54 -2527.83 4081.44 ) 0 
( 2565.62 -3678.96 4519.24 ) 0 
( 4640 -4087.87 4578.17 ) 0 
( 1962.68 -2779.45 4360.83 ) 0 
( 4339.48 -2768.8 4931.2 ) 0 
( 530.797 -3068.12 5108.45 ) 0 
( 1775.93 -979.827 5027.44 ) 0 
( 3132.1 -4312.73 5080.89 ) 0 
( 3623.75 -2075.52 4869.58 ) 0 
( 1476.99 -3371.41 5001.17 ) 0 
( 973.292 -4979.61 4776.6 ) 0 
( 119.933 -4609.76 5143.69 ) 0 
( 1256.98 -2398.49 4955.71 ) 0 
( 2645.37 -497.516 5121.26 ) 0 
( 989.493 -4166.09 5356.39 ) 0 
( 1344.99 -301.923 5669.97 ) 0 
( 4489.87 -657.862 4911.71 ) 0 
( 4042.54 -4560.33 5416.57 ) 0 
( 2843.74 -1753.1 5437.28 ) 0 
( 2647.78 -2664.8 5076.92 ) 0 
( 4721 -3462.79 5547.64 ) 0 
( 663.891 -2389.79 5828.63 ) 0 
( 3529.26 -2835.98 5511.17 ) 0 
( 2429.79 -3743.99 5506.11 ) 0 
( 1113.01 -1566.12 5487.56 ) 0 
( 766.088 -4926.53 5962.15 ) 0 
( 249.701 -1154.68 5772.49 ) 0 
( 3877.09 -3647.53 5047.66 ) 0 
( 1857.54 -2748 5682.63 ) 0 
( 4152.65 -533.192 5923.47 ) 0 
( 3291.86 -2177.33 6221.88 ) 0 
( 1104.52 -1018.79 6322.78 ) 0 
( 1978.2 -1788.4 5935.5 ) 0 
( 181.413 -3974.71 5911.25 ) 0 
( 4193.11 -2112.59 5689.45 ) 0 
( 3387.82 -3738.85 5914.41 ) 0 
( 406.409 -243.372 6151.81 ) 0 
( 1015.12 -3318.57 5944.99 ) 0 
( 4792.93 -1332.61 5865.44 ) 0 
( 1777.64 -4525.84 5854.17 ) 0 
( 2164.51 -806.159 5941.44 ) 0 
( 3716.85 -1170.8 5281.64 ) 0 
( 4162.74 -3036.53 6257.31 ) 0 
( 3186.63 -769.363 6025.98 ) 0 
( 1404.26 -2391.68 6498.37 ) 0 
( 4854.53 -662.772 6622.14 ) 0 
( 4284.84 -4040.88 6234.9 ) 0 
( 1107.61 -4150.69 6491.25 ) 0 
( 74.9104 -3055.24 6284.33 ) 0 
( 2532.38 -414.861 6785.34 ) 0 
( 2702.3 -1450.82 6570.99 ) 0 
( 2734.26 -2996.75 6094.14 ) 0 
( 4485.97 -2172.57 6642.29 ) 0 
( 763.595 -2969.59 7003.36 ) 0 
( 1901.23 -3565.84 6333.6 ) 0 
( 3917.62 -1408.48 6340.98 ) 0 
( 3394.22 -873.405 7001.1 ) 0 
( 2730.48 -4454.42 6145.3 ) 0 
( 2770.93 -3697.47 6805.76 ) 0 
( 3393.13 -2918.48 6883.45 ) 0 
( 240.277 -4880.55 6809.15 ) 0 
( 256.369 -3824.36 6896.27 ) 0 
( 1758.12 -1522.4 6885.9 ) 0 
( 4147.09 -233.364 7182.66 ) 0 
( 3646.7 -4727.13 6580.67 ) 0 
( 525.91 -806.549 7108.89 ) 0 
( 3519.43 -1858 7139.46 ) 0 
( 1583.54 -555.414 7066.91 ) 0 
( 2363.32 -2367.61 6775.13 ) 0 
( 2054.01 -4390.48 6877.36 ) 0 
( 4695.8 -3923.66 7278.43 ) 0 
( 791.9 -1759.5 6970.3 ) 0 
( 2687.66 -781.62 7702.13 ) 0 
( 3729.48 -3845.43 7041.87 ) 0 
( 4534.25 -4873.7 7014.42 ) 0 
( 869.27 -4408.33 7426.76 ) 0 
( 4332.26 -1252.92 7237.2 ) 0 
( 1745.87 -3046.06 7171.38 ) 0 
( 189.023 -1900.39 7753.76 ) 0 
( 2606.02 -1762.98 7532.45 ) 0 
( 4682.76 -2107.71 7619.31 ) 0 
( 1225.95 -3571.89 7842.75 ) 0 
( 1.44781 -29.1803 7454.46 ) 0 
( 1207.88 -1223.54 7708.73 ) 0 
( 3014.44 -4357.38 7517.09 ) 0 
( 2657.45 -2913.1 7558.7 ) 0 
( 3635.9 -2598.6 7800.1 ) 0 
( 3678.44 -686.157 7940.57 ) 0 
( 2184.7 -3793.6 7667.1 ) 0 
( 3967.12 -4534.29 7763.97 ) 0 
( 4366.76 -2976.44 7233.22 ) 0 
( 1512.42 -4464.19 8189.48 ) 0 
( 1998.51 -1470.2 8269.28 ) 0 
( 2990.12 -1433.06 8397.2 ) 0 
( 416.571 -4839.1 8206.2 ) 0 
( 4638.14 -2859.04 8275.22 ) 0 
( 4595.03 -970.427 8221.34 ) 0 
( 4207.17 -175.997 8687.5 ) 0 
( 807.265 -342.433 7953.9 ) 0 
( 3022.78 -3607.53 8176.99 ) 0 
( 3034.85 -62.2326 8382.78 ) 0 
( 3995.86 -3554.87 7959.23 ) 0 
( 1795.15 -485.928 8040.38 ) 0 
( 1464.37 -2179.3 7578.33 ) 0 
( 719.685 -2719.39 7970.29 ) 0 
( 289.267 -3863.55 8030.77 ) 0 
( 3895.85 -1661.16 8042.54 ) 0 
( 554.195 -1164.31 8462.79 ) 0 
( 1158.78 -1958.32 8503.5 ) 0 
( 4454.76 -3745.67 8826.14 ) 0 
( 3810.91 -1078.93 8849.87 ) 0 
( 4133.59 -4688.83 8737.53 ) 0 
( 1869.11 -2873.19 8171.24 ) 0 
( 1944.04 -3689.06 8741.89 ) 0 
( 1429.92 -911.089 8871.84 ) 0 
( 3691.06 -2983.33 8720.82 ) 0 
( 2494.82 -4434.56 8368.11 ) 0 
( 2860.73 -2424.22 8406.16 ) 0 
( 2408.15 -723.603 8792.55 ) 0 
( 204.73 -3210.28 8781.01 ) 0 
( 4287.46 -2114.56 8841.67 ) 0 
( 2767.82 -3187.05 9045.71 ) 0 
( 387.741 -2267.89 9058.97 ) 0 
( 960.723 -3867.22 8770.36 ) 0 
( 4854.09 -2930.23 9247.98 ) 0 
( 3349.14 -1977.34 9155.23 ) 0 
( 544.74 -237.137 8912.06 ) 0 
( 1147.54 -2890.23 8862.97 ) 0 
( 552.643 -4680.5 9182.96 ) 0 
( 4731.28 -868.777 9205.95 ) 0 
( 3491.97 -3963.52 8983.89 ) 0 
( 2026.13 -2230.09 8920.08 ) 0 
( 1264.82 -252.286 9604.76 ) 0 
( 4211.64 -2396.24 9797.02 ) 0 
( 4858.15 -4709.65 9435 ) 0 
( 3890.79 -4541.01 9695.9 ) 0 
( 2177.71 -627.296 9759.97 ) 0 
( 3968.28 -3346.98 9609.66 ) 0 
( 4971.82 -1794.67 9495.63 ) 0 
( 1897.04 -3027.63 9509.1 ) 0 
( 3134.08 -698.929 9479.31 ) 0 
( 662.582 -1375.96 9432.52 ) 0 
( 2581.09 -4183.63 9331.64 ) 0 
( 1061.55 -3538.91 9709.12 ) 0 
( 1589.29 -4443.36 9292.34 ) 0 
( 1253.2 -2173.07 9550.58 ) 0 
( 2691.62 -2463.24 9729.96 ) 0 
( 334.432 -527.256 9845.01 ) 0 
( 2507.11 -1503.42 9409.34 ) 0 
( 164.209 -3102.82 9773.78 ) 0 
( 4831.26 -1294.8 10410.6 ) 0 
( 3199.44 -1691.33 10110.2 ) 0 
( 2897.24 -3399.52 10013.3 ) 0 
( 4045.54 -407.043 9766.92 ) 0 
( 253.929 -4086.45 9928.19 ) 0 
( 3004.33 -4372.03 10216.9 ) 0 
( 4688.45 -3911.32 10011.7 ) 0 
( 1991.05 -1901.1 10167.3 ) 0 
( 4048.91 -1878.83 10636.5 ) 0 
( 1212.25 -4437.53 10217.5 ) 0 
( 4087.55 -1405.56 9752.47 ) 0 
( 1372.38 -1120.37 10088.3 ) 0 
( 3536.73 -2759.64 10438.2 ) 0 
( 935.073 -2745.82 10305 ) 0 
( 3244.51 -1494.41 11089.2 ) 0 
( 2882.81 -804.864 10445.8 ) 0 
( 772.494 -3661.92 10669.4 ) 0 
( 3726.86 -3741.09 10495.7 ) 0 
( 4270.87 -4578.54 10627.3 ) 0 
( 4881.3 -209.783 10364.3 ) 0 
( 2004.09 -3844.9 10074.3 ) 0 
( 528.864 -1832.59 10310.9 ) 0 
( 1916.36 -2843.99 10491.5 ) 0 
( 2709.33 -2289.47 10743.9 ) 0 
( 1770.31 -155.684 10541.1 ) 0 
( 1495.92 -795.624 11258.4 ) 0 
( 1653.97 -3998.42 10999.4 ) 0 
( 532.699 -2259.21 11214.8 ) 0 
( 2561.36 -3583.66 10936.2 ) 0 
( 1230.9 -2974.52 11232.1 ) 0 
( 141.337 -134.266 11258.4 ) 0 
( 2258.03 -1377.57 10975.7 ) 0 
( 0.0219306 -3284.4 11179.1 ) 0 
( 4987.25 -722.484 11215.7 ) 0 
( 3894.82 -891.183 10627.9 ) 0 
( 4229 -1324.79 11464.2 ) 0 
( 3415.02 -4450.91 11127.2 ) 0 
( 4491.02 -3100.59 10561.8 ) 0 
( 820.848 -4547.37 11130.7 ) 0 
( 1330.63 -1743.44 10900.9 ) 0 
( 1786.71 -4981.71 10827.9 ) 0 
( 1966.35 -2321.56 11412 ) 0 
( 649.839 -867.565 10730.7 ) 0 
( 1983.64 -3402.6 11731.7 ) 0 
( 3082.05 -3762.04 11770.8 ) 0 
( 1468.54 -4953.05 11775.2 ) 0 
( 971.898 -150.975 11814.6 ) 0 
( 899.061 -1431.72 11747.1 ) 0 
( 36.6248 -4176.95 11628.3 ) 0 
( 2371.57 -740.853 11738 ) 0 
( 4580.16 -3841.16 11227.2 ) 0 
( 3427.4 -516.06 11427.8 ) 0 
( 4104.23 -2299.3 11648.4 ) 0 
( 3755.77 -3176.71 11320.1 ) 0 
( 2447.9 -4473.11 11378.6 ) 0 
( 2622.28 -55.7883 11054.5 ) 0 
)
