FoamFile
{version 2.0; format ascii;class vectorField; location 0;object  v;}
346
(
( 7.47206e-06 -3.46854e-06 1.27094e-06 )  
( 4.40253e-06 -1.02579e-06 7.11287e-07 )  
( 3.24699e-06 -1.74091e-06 6.73047e-07 )  
( 3.76847e-06 -2.219e-06 7.40075e-08 )  
( 3.45665e-06 -2.73652e-07 1.01627e-06 )  
( 4.18213e-06 -8.87726e-07 1.61319e-06 )  
( 4.9483e-06 -1.85757e-06 3.72487e-07 )  
( 5.59801e-06 -4.53318e-06 1.13099e-06 )  
( 2.28715e-06 -2.48643e-06 -7.03551e-07 )  
( 3.952e-06 -1.54827e-06 1.14108e-06 )  
( 3.31211e-06 -3.33471e-06 -6.39638e-07 )  
( 3.28276e-06 -1.03998e-06 -1.35235e-06 )  
( 5.47231e-06 -1.35567e-06 8.07276e-07 )  
( 2.75767e-06 -1.46419e-06 1.5003e-06 )  
( 1.14022e-05 -9.1665e-06 3.9229e-07 )  
( 6.77775e-07 -2.16277e-06 -1.61961e-07 )  
( 3.5375e-06 -4.61285e-06 1.35309e-06 )  
( 2.96253e-06 -7.66312e-07 5.17644e-07 )  
( 3.66654e-06 -3.72201e-06 6.01102e-07 )  
( 8.11768e-06 -2.78072e-06 -6.38127e-07 )  
( 5.44943e-06 -4.67275e-06 2.14593e-06 )  
( 1.49991e-06 -1.42078e-06 1.39517e-06 )  
( 4.20861e-06 -1.10369e-06 3.34348e-07 )  
( 1.03806e-05 -6.73232e-06 -4.22756e-06 )  
( 3.8714e-06 -1.83329e-06 1.91739e-06 )  
( 7.4982e-06 -4.9872e-06 1.43301e-06 )  
( 6.95555e-06 -3.78003e-06 2.80483e-06 )  
( 1.97667e-06 -1.53369e-06 -1.54862e-06 )  
( 3.47711e-06 -8.29087e-07 2.47903e-07 )  
( 3.38384e-06 -2.95777e-06 3.47385e-07 )  
( 8.73574e-06 -2.90342e-06 3.67845e-06 )  
( 3.84863e-06 -7.61772e-06 -2.15028e-06 )  
( 1.11391e-05 -8.44865e-06 1.90479e-07 )  
( 7.25147e-06 -5.28931e-06 2.67144e-07 )  
( 9.08882e-06 -2.5302e-06 2.01495e-06 )  
( 6.36957e-06 -4.2555e-06 4.42498e-07 )  
( 6.58749e-06 -3.66836e-06 2.11837e-06 )  
( 8.93499e-06 -2.62148e-06 1.03345e-06 )  
( 8.40727e-06 -3.09742e-06 2.58533e-06 )  
( 7.7674e-06 -4.35589e-06 -1.5335e-06 )  
( 1.08897e-05 -5.70196e-06 3.23416e-06 )  
( 6.62889e-06 -8.78782e-06 -6.61946e-07 )  
( 6.7799e-06 -6.06038e-06 6.10557e-09 )  
( 4.99336e-06 -1.1214e-05 4.78892e-06 )  
( 1.1166e-05 -4.54412e-06 2.65896e-06 )  
( 9.11134e-06 -7.00213e-06 1.85579e-06 )  
( 1.04334e-05 -6.16137e-06 4.10489e-06 )  
( 9.31413e-06 -5.75174e-06 3.01303e-06 )  
( 1.29806e-05 6.54248e-07 2.30889e-06 )  
( 8.20366e-06 -3.87989e-06 1.05209e-06 )  
( 1.07648e-05 -6.16839e-06 5.27584e-06 )  
( 8.61618e-06 -6.01496e-06 4.04311e-07 )  
( 1.11087e-05 -4.84562e-06 1.53258e-06 )  
( 1.1221e-05 -7.25568e-06 2.32246e-06 )  
( 8.41445e-06 -4.94132e-06 1.26514e-07 )  
( 1.00734e-05 -6.18853e-06 3.48065e-06 )  
( 8.42231e-06 -5.89754e-06 4.14982e-07 )  
( 9.80628e-06 -6.20364e-06 -2.05189e-06 )  
( 1.06313e-05 -6.65143e-06 3.86391e-06 )  
( 8.39717e-06 -6.67659e-06 -6.27997e-06 )  
( 1.07398e-05 -5.09193e-06 3.19003e-06 )  
( 6.92861e-06 -8.29661e-06 1.76016e-07 )  
( 9.74041e-06 -4.69291e-06 1.14579e-06 )  
( 9.07489e-06 -4.38701e-06 2.69241e-06 )  
( 8.11703e-06 -1.50067e-06 1.55837e-06 )  
( 1.11727e-05 -5.55678e-06 3.51205e-06 )  
( 8.00369e-06 -4.21004e-06 -4.78787e-06 )  
( 1.04851e-05 -6.34976e-06 -1.61934e-06 )  
( 7.58014e-06 -7.30767e-06 -8.07586e-06 )  
( 1.20517e-05 -4.89943e-06 8.25484e-06 )  
( 1.07685e-05 -8.29705e-06 -1.02358e-06 )  
( 1.26214e-05 -7.14233e-06 3.77152e-06 )  
( 1.35432e-05 -5.68039e-06 8.04891e-06 )  
( 8.74115e-06 -4.13416e-06 -2.15564e-06 )  
( 1.121e-05 1.88712e-06 1.93338e-06 )  
( 1.01668e-05 -7.99496e-06 -8.30585e-06 )  
( 8.43043e-06 -5.27084e-06 2.17403e-06 )  
( 1.29704e-05 -6.57241e-06 -3.66284e-06 )  
( 9.28879e-06 -5.14768e-06 2.18261e-06 )  
( 1.49587e-05 -5.78423e-06 -5.55098e-06 )  
( 6.80614e-06 -1.44159e-06 -1.10739e-05 )  
( 9.22689e-06 -1.18766e-06 2.95777e-06 )  
( 1.22164e-05 -4.89914e-06 8.21344e-07 )  
( 6.99122e-06 -5.66941e-06 -3.20602e-06 )  
( 1.03107e-05 -4.68129e-06 -9.79986e-06 )  
( 6.33377e-06 -5.05028e-06 -2.9076e-07 )  
( 5.17365e-06 -4.27558e-06 -6.45904e-06 )  
( 8.98892e-06 -2.8579e-06 3.17035e-06 )  
( 8.34407e-06 -5.20448e-06 -2.60638e-07 )  
( 7.71213e-06 -5.54126e-06 -1.22691e-05 )  
( 8.90333e-06 -8.0266e-06 3.6425e-06 )  
( 8.68032e-06 -6.11517e-06 -3.48427e-07 )  
( 8.07437e-06 -4.853e-06 1.1175e-06 )  
( 1.43504e-05 -6.69257e-06 2.72595e-06 )  
( 8.19978e-06 -8.70866e-06 -1.02023e-05 )  
( 3.71386e-06 -4.17585e-06 -3.42399e-06 )  
( 9.20313e-06 -8.76022e-06 -4.23689e-06 )  
( 9.97657e-06 -1.25931e-05 -1.28783e-05 )  
( 9.97154e-06 -7.55726e-06 -1.4566e-05 )  
( -9.61357e-07 -5.73921e-07 -7.67018e-06 )  
( 1.48723e-07 -7.34656e-07 -1.78904e-05 )  
( 8.54789e-06 -1.42438e-06 -2.0651e-05 )  
( 4.66196e-06 -9.08718e-06 -1.62508e-05 )  
( 7.22211e-06 -5.8553e-06 1.30341e-06 )  
( 1.16092e-05 -2.21282e-06 1.04149e-05 )  
( 5.25217e-06 -3.75567e-06 -5.40732e-06 )  
( 1.50089e-05 -1.16212e-05 4.7532e-07 )  
( 1.14775e-05 8.74999e-07 1.05572e-06 )  
( 6.07634e-06 -3.17588e-06 5.64244e-06 )  
( 5.4018e-06 4.77615e-06 -1.25143e-07 )  
( 7.12726e-06 -9.59188e-06 -1.39603e-05 )  
( 8.66784e-06 -6.33483e-06 -3.1303e-06 )  
( 4.06783e-06 5.69345e-07 -7.31115e-06 )  
( 1.02574e-05 -4.51723e-06 8.76411e-06 )  
( 1.45674e-05 -8.46807e-06 7.72229e-06 )  
( 1.06549e-05 -1.23396e-05 -4.23792e-06 )  
( 1.05729e-05 4.41999e-06 1.51928e-06 )  
( 3.93427e-06 4.23848e-06 -8.21289e-06 )  
( 7.27666e-06 -1.03702e-05 -1.94584e-05 )  
( 1.1273e-05 -9.04409e-06 -1.88029e-05 )  
( 9.11453e-06 -7.53423e-06 -1.26908e-05 )  
( 4.29392e-06 4.95836e-07 8.40147e-07 )  
( 1.87398e-05 -1.73552e-05 3.58774e-06 )  
( 6.27714e-06 -6.42401e-06 -4.41368e-07 )  
( 9.91394e-06 -2.36013e-06 -2.0394e-05 )  
( 2.03314e-06 1.45472e-06 -9.68902e-06 )  
( 7.43642e-06 3.96652e-06 -2.67332e-07 )  
( 2.59227e-06 -4.73497e-07 -2.30741e-05 )  
( 9.06894e-06 -1.07535e-06 -2.51084e-05 )  
( 3.96586e-06 2.09257e-06 -7.3626e-06 )  
( -1.05073e-06 2.39088e-06 -2.3079e-05 )  
( 7.20751e-06 -3.73879e-06 -1.68368e-05 )  
( 1.00498e-06 6.17504e-07 -6.15387e-06 )  
( 1.90065e-05 -9.18113e-07 -3.20267e-05 )  
( 7.812e-06 -8.85519e-06 -3.26743e-05 )  
( -2.69709e-06 4.4341e-06 -1.89686e-05 )  
( -1.31692e-05 2.57256e-05 -1.71508e-05 )  
( 8.67251e-07 -1.17883e-07 -1.5103e-05 )  
( 4.88218e-06 -4.25404e-07 -1.00794e-05 )  
( 6.18478e-06 -1.19466e-05 -2.59475e-05 )  
( -4.38313e-06 -7.19843e-06 -9.12961e-06 )  
( 1.00129e-05 -9.92633e-06 -2.67548e-05 )  
( 6.12491e-06 -2.26211e-06 -3.62368e-05 )  
( 6.37635e-06 -6.29552e-06 -1.99035e-05 )  
( 3.73223e-06 8.05128e-07 -4.03084e-05 )  
( 3.63947e-06 1.80097e-06 -2.99823e-05 )  
( 1.14539e-05 -5.29031e-06 -1.29216e-05 )  
( 5.51759e-06 -5.8494e-06 -3.49923e-05 )  
( 2.1847e-06 1.85875e-06 -2.92202e-05 )  
( 8.87069e-06 -8.57737e-06 -2.82449e-05 )  
( 1.8002e-06 -2.74571e-06 -3.33055e-05 )  
( 8.03149e-06 -2.0738e-06 -3.51272e-05 )  
( 1.08392e-05 -8.65897e-06 -1.92981e-05 )  
( 3.63926e-06 -4.05647e-06 -1.33772e-05 )  
( 9.83424e-06 -7.14246e-06 -3.63446e-05 )  
( -9.46723e-06 1.40055e-05 -4.48235e-05 )  
( -2.95848e-06 6.51808e-06 -1.63896e-05 )  
( 5.89903e-06 -3.72691e-07 -5.45812e-05 )  
( -3.4267e-06 -8.59448e-06 -3.47335e-05 )  
( 3.3574e-06 -4.28764e-06 -3.36898e-05 )  
( 3.74871e-06 8.19211e-07 -5.52845e-05 )  
( -4.67652e-07 7.57706e-06 -5.429e-05 )  
( 7.28448e-06 -4.0766e-06 -4.85772e-05 )  
( 1.07979e-05 1.23014e-06 -4.20407e-05 )  
( 3.25963e-06 -2.21567e-06 -4.90629e-05 )  
( -1.26364e-07 -2.95292e-07 -5.10614e-05 )  
( 2.15805e-06 6.67655e-06 -7.38972e-05 )  
( 1.05014e-05 -3.50656e-06 -4.15345e-05 )  
( 2.39171e-06 -4.15746e-06 -4.90407e-05 )  
( 2.39377e-06 7.7343e-06 -6.39747e-05 )  
( 6.37407e-06 5.18371e-06 -6.94551e-05 )  
( -7.08971e-06 1.02025e-05 -8.05185e-05 )  
( -4.28236e-06 -1.2279e-05 -2.60965e-05 )  
( 4.27041e-06 3.64274e-06 -6.02287e-05 )  
( -3.70484e-07 2.0141e-06 -5.94854e-05 )  
( 5.45553e-06 -4.41698e-06 -5.69167e-05 )  
( 6.00123e-06 2.99391e-06 -5.54736e-05 )  
( 2.64017e-06 -3.48034e-07 -5.74819e-05 )  
( -4.4597e-07 2.57501e-06 -4.72467e-05 )  
( 4.64322e-06 -9.349e-06 -4.69961e-05 )  
( -2.38386e-05 3.96494e-06 -1.65419e-05 )  
( 1.24636e-06 6.06754e-06 -2.45359e-05 )  
( 2.25666e-05 1.38912e-05 -6.6399e-05 )  
( -1.45677e-06 1.05355e-05 -4.59643e-05 )  
( -4.02985e-06 7.78824e-06 -7.9879e-05 )  
( 2.32739e-06 1.22927e-06 -7.63254e-05 )  
( -1.92402e-07 -6.98913e-06 -7.1445e-05 )  
( 1.08788e-06 1.82702e-06 -7.80295e-05 )  
( 5.51873e-06 1.00135e-05 -7.5121e-05 )  
( -2.42777e-06 1.69107e-05 -7.39503e-05 )  
( 2.79815e-07 5.45881e-06 -7.38611e-05 )  
( 2.52288e-06 7.13059e-06 -6.3653e-05 )  
( 5.82254e-06 2.92998e-05 -9.30034e-05 )  
( -5.19025e-06 8.04464e-06 -7.74722e-05 )  
( -4.95332e-06 2.95028e-06 -6.70638e-05 )  
( -7.31077e-06 1.28435e-05 -8.52462e-05 )  
( -5.75411e-07 1.95136e-05 -0.000102126 )  
( 6.27567e-06 -1.90164e-07 -5.83707e-05 )  
( -5.953e-06 2.14673e-06 -7.61211e-05 )  
( 7.59245e-06 4.61974e-07 -9.2448e-05 )  
( -1.05613e-05 1.27572e-06 -6.65951e-05 )  
( 3.087e-06 1.7267e-05 -8.94822e-05 )  
( 1.3545e-06 1.12132e-05 -0.000100615 )  
( 1.54728e-05 1.91466e-05 -9.41763e-05 )  
( 3.78224e-07 -2.97992e-06 -8.97895e-05 )  
( 1.9871e-06 -1.00339e-06 -0.000101966 )  
( 9.08848e-07 7.07262e-06 -0.00010257 )  
( -5.8495e-06 3.48323e-06 -9.16815e-05 )  
( -5.21196e-06 3.88682e-06 -9.7964e-05 )  
( -1.14162e-05 6.84438e-06 -8.02484e-05 )  
( -1.98123e-05 -7.98172e-07 -9.45471e-05 )  
( 5.86701e-06 1.091e-05 -9.56863e-05 )  
( -4.92364e-07 -3.64349e-07 -0.00011654 )  
( -5.43748e-06 -5.66222e-06 -0.000106201 )  
( -4.25423e-06 -4.69667e-06 -9.23539e-05 )  
( -3.52678e-06 1.74123e-05 -0.000117159 )  
( -2.75414e-06 1.17491e-05 -7.97013e-05 )  
( -7.69541e-06 1.40225e-05 -8.88129e-05 )  
( -2.30998e-06 6.84379e-06 -0.000118315 )  
( 4.31787e-06 -6.28647e-06 -0.000110689 )  
( -9.96337e-06 4.30144e-06 -0.00012019 )  
( -8.30993e-06 1.6288e-05 -9.36373e-05 )  
( -6.8231e-06 -8.60389e-06 -0.000119662 )  
( -9.38437e-06 -1.67529e-06 -0.000120652 )  
( -5.24157e-07 -6.16761e-06 -0.000115132 )  
( -6.29301e-06 -8.69625e-06 -0.000131316 )  
( -6.5099e-06 -1.09243e-06 -0.000130908 )  
( 1.42317e-06 2.21498e-05 -0.000124399 )  
( -1.44519e-05 1.26547e-05 -0.000107222 )  
( -7.94313e-06 4.28907e-06 -0.000121643 )  
( 9.42635e-06 1.21652e-05 -8.39522e-05 )  
( -3.4055e-07 4.00644e-06 -0.000144232 )  
( -2.07939e-06 -2.03805e-07 -0.000146744 )  
( -2.38953e-06 2.44775e-06 -0.000147011 )  
( 5.83932e-06 1.2597e-05 -0.000134225 )  
( -2.2686e-05 6.2719e-06 -0.000156702 )  
( -8.72146e-06 -1.17427e-06 -0.000137496 )  
( 3.14657e-06 1.19053e-06 -0.000157653 )  
( -1.12328e-05 -7.954e-06 -0.000134484 )  
( -8.39623e-06 5.40814e-07 -0.000144919 )  
( -2.03172e-05 -3.34056e-07 -0.000137279 )  
( -1.70624e-05 4.731e-06 -0.000130108 )  
( -6.31747e-06 -1.43008e-05 -0.000121295 )  
( 6.97913e-06 1.12346e-05 -0.000120666 )  
( 9.35069e-06 2.71947e-05 -8.55919e-05 )  
( -5.67681e-06 8.46756e-06 -0.000127569 )  
( -9.05277e-07 9.97915e-06 -0.000135679 )  
( -8.01359e-06 -7.88379e-06 -0.000156492 )  
( -3.30459e-06 2.81402e-06 -0.000165493 )  
( -1.58648e-05 2.35343e-05 -0.000146365 )  
( 4.4282e-06 3.00155e-06 -0.000152508 )  
( 1.23234e-06 2.23143e-05 -0.000162061 )  
( 3.78393e-06 3.49836e-06 -0.000142383 )  
( -5.73416e-06 -1.28794e-06 -0.000155603 )  
( -1.12685e-05 -8.45151e-06 -0.000171971 )  
( -3.76899e-05 -1.08279e-06 -0.000145201 )  
( 8.82916e-07 6.20904e-06 -0.000147084 )  
( 2.26611e-09 -2.80485e-06 -0.000157328 )  
( -5.4304e-06 -1.1989e-05 -0.000160816 )  
( 3.6089e-06 1.12093e-05 -0.000162148 )  
( -9.7233e-06 3.39874e-06 -0.00015892 )  
( -3.30492e-05 -1.59808e-06 -0.000180361 )  
( -1.06748e-05 1.35786e-05 -0.000180715 )  
( -7.62348e-06 7.29611e-06 -0.000156968 )  
( -1.17364e-05 6.94126e-06 -0.00018075 )  
( -1.10613e-05 -8.63787e-06 -0.000171522 )  
( -1.55344e-05 -8.15539e-06 -0.000171079 )  
( -9.26953e-06 1.13649e-05 -0.000174186 )  
( 2.30897e-06 1.07889e-05 -0.000166999 )  
( -2.54772e-06 -9.95408e-06 -0.000169443 )  
( -9.02473e-06 1.1977e-05 -0.000158683 )  
( -9.13808e-06 3.05402e-06 -0.000170953 )  
( -1.5658e-05 -7.57778e-06 -0.000199452 )  
( -1.83911e-06 -5.07969e-06 -0.000185545 )  
( -7.15486e-06 8.17448e-06 -0.000196795 )  
( 5.06303e-06 1.61724e-05 -0.000176406 )  
( -1.40065e-05 1.97871e-06 -0.000201299 )  
( 2.99203e-06 1.3083e-06 -0.000180708 )  
( -3.94887e-06 -8.4159e-06 -0.000171503 )  
( -1.92044e-05 5.03965e-06 -0.000183184 )  
( -4.30369e-06 -6.19319e-06 -0.000172206 )  
( -3.34767e-06 -6.91236e-06 -0.000197111 )  
( -7.46184e-07 5.88744e-06 -0.000161454 )  
( -2.39266e-06 9.37175e-06 -0.000171108 )  
( -2.32039e-05 -3.60541e-06 -0.000180472 )  
( -9.55408e-06 8.80371e-06 -0.000197731 )  
( -2.24062e-05 -6.72339e-06 -0.000202099 )  
( -9.98282e-06 -1.73623e-05 -0.000202109 )  
( -8.18141e-06 -5.07214e-06 -0.000180294 )  
( 5.16002e-06 9.17035e-07 -0.000184641 )  
( -4.09356e-06 -1.98542e-05 -0.000187225 )  
( -1.88102e-05 -3.98937e-06 -0.000245745 )  
( -1.77483e-05 7.31712e-06 -0.000200981 )  
( -2.54937e-06 -3.00902e-06 -0.000191871 )  
( -1.21332e-06 5.51055e-06 -0.000196665 )  
( 1.5171e-05 2.20688e-08 -0.000204954 )  
( -6.2232e-06 1.28885e-06 -0.000202748 )  
( -1.54277e-05 2.77034e-06 -0.000215793 )  
( -3.08115e-05 9.35707e-06 -0.000222983 )  
( -2.09863e-05 -1.58401e-06 -0.000210264 )  
( -1.52793e-06 -1.05352e-05 -0.000182202 )  
( -7.83371e-06 -7.53584e-06 -0.000214521 )  
( -1.56205e-05 4.75214e-06 -0.000223412 )  
( 9.03101e-06 5.61624e-06 -0.000225671 )  
( -3.08135e-05 -8.37549e-06 -0.000255165 )  
( -1.73912e-05 -8.76445e-06 -0.000249403 )  
( -6.2659e-07 1.22341e-05 -0.000223772 )  
( 1.44296e-05 -1.27975e-05 -0.000199694 )  
( -1.20077e-05 3.61991e-06 -0.000214746 )  
( -1.9978e-05 -1.55626e-05 -0.000222103 )  
( -2.6025e-05 -2.07493e-06 -0.000195605 )  
( -1.00867e-05 -4.57508e-06 -0.000216438 )  
( 1.41609e-05 1.3115e-05 -0.000193523 )  
( -3.77077e-06 3.33439e-05 -0.000217118 )  
( -1.88019e-05 -1.06631e-05 -0.000229478 )  
( -7.82644e-06 -5.80527e-06 -0.000250305 )  
( 2.06001e-06 1.2019e-05 -0.000248969 )  
( 7.96144e-06 -1.20435e-05 -0.000239533 )  
( 1.66236e-05 8.90956e-06 -0.00021219 )  
( 1.89222e-05 3.47004e-06 -0.00024938 )  
( -9.0522e-06 -3.51884e-05 -0.000237044 )  
( -1.57873e-05 -7.62827e-08 -0.000245381 )  
( -4.82882e-06 -3.91292e-06 -0.000213675 )  
( -1.97197e-05 -4.74103e-06 -0.000238407 )  
( -2.90571e-06 5.32297e-06 -0.000221686 )  
( -1.48872e-05 5.33913e-06 -0.000234826 )  
( -3.42341e-06 3.69892e-06 -0.000205005 )  
( 9.4598e-06 -8.1451e-06 -0.000202762 )  
( -2.04178e-07 -1.84037e-06 -0.000226943 )  
( -1.47477e-05 1.74934e-06 -0.000223717 )  
( 5.02086e-06 7.98993e-06 -0.000227789 )  
( -7.33401e-06 2.60431e-05 -0.000225978 )  
( -7.98804e-06 -1.75651e-05 -0.000233941 )  
( -1.8554e-05 -3.90949e-05 -0.000237942 )  
( 1.16308e-05 1.65591e-05 -0.000208112 )  
( 1.52421e-05 -1.42953e-05 -0.000240769 )  
( -1.89488e-05 -4.48316e-05 -0.00024733 )  
( -6.01487e-06 1.14203e-05 -0.000233832 )  
( -2.11413e-07 -5.06083e-06 -0.000230055 )  
( -8.83378e-06 -1.19933e-05 -0.00025483 )  
( 2.75081e-05 -9.766e-06 -0.000225059 )  
( 1.02953e-05 5.02543e-06 -0.000232305 )  
( -4.90808e-05 2.72141e-05 -0.000261478 )  
( -3.11516e-05 3.03734e-05 -0.000246045 )  
( -9.2642e-06 2.34064e-05 -0.000227816 )  
( 2.455e-06 -2.25696e-05 -0.000248671 )  
)
