/*--------------------------------*- C++ -*----------------------------------*\
  =========                 |
  \\      /  F ield         | OpenFOAM: The Open Source CFD Toolbox
   \\    /   O peration     | Website:  https://openfoam.org
    \\  /    A nd           | Version:  9
     \\/     M anipulation  |
\*---------------------------------------------------------------------------*/
FoamFile
{
    format      ascii;
    class       volScalarField;
    location    "1000";
    object      p;
}
// * * * * * * * * * * * * * * * * * * * * * * * * * * * * * * * * * * * * * //

dimensions      [0 2 -2 0 0 0 0];

internalField   nonuniform List<scalar> 
360
(
-3.29929e-09
-3.39434e-09
-3.36356e-09
-3.2694e-09
-9.90495e-09
-1.01866e-08
-1.0088e-08
-9.81201e-09
-1.65254e-08
-1.69811e-08
-1.68084e-08
-1.63631e-08
-2.31669e-08
-2.37754e-08
-2.3518e-08
-2.29242e-08
-2.9835e-08
-3.05699e-08
-3.02119e-08
-2.94953e-08
-3.65337e-08
-3.7366e-08
-3.68851e-08
-3.60738e-08
-4.32654e-08
-4.4166e-08
-4.35321e-08
-4.26538e-08
-5.00312e-08
-5.09731e-08
-5.01465e-08
-4.9226e-08
-5.68318e-08
-5.77916e-08
-5.67199e-08
-5.57775e-08
-6.36683e-08
-6.46265e-08
-6.3241e-08
-6.22918e-08
-7.05435e-08
-7.14838e-08
-6.9694e-08
-6.87487e-08
-7.74636e-08
-7.83707e-08
-7.60578e-08
-7.51247e-08
-8.44407e-08
-8.52952e-08
-8.23038e-08
-8.13916e-08
-9.14972e-08
-9.2265e-08
-8.83944e-08
-8.75165e-08
-9.86622e-08
-9.92951e-08
-9.42805e-08
-9.34599e-08
-1.05978e-07
-1.06407e-07
-9.9899e-08
-9.91735e-08
-1.13503e-07
-1.13629e-07
-1.0517e-07
-1.04597e-07
-1.21321e-07
-1.21006e-07
-1.09992e-07
-1.09654e-07
-1.29542e-07
-1.28599e-07
-1.14239e-07
-1.14246e-07
-1.38317e-07
-1.36495e-07
-1.17748e-07
-1.18249e-07
-1.47847e-07
-1.44823e-07
-1.20315e-07
-1.21495e-07
-1.58403e-07
-1.53771e-07
-1.2168e-07
-1.23758e-07
-1.70349e-07
-1.63641e-07
-1.21504e-07
-1.24701e-07
-1.84172e-07
-1.75011e-07
-1.19353e-07
-1.2371e-07
-2.0051e-07
-1.88121e-07
-1.14665e-07
-1.20509e-07
-2.20218e-07
-2.03581e-07
-1.067e-07
-1.14454e-07
-2.44433e-07
-2.22231e-07
-9.44733e-08
-1.04655e-07
-2.74663e-07
-2.45185e-07
-7.66724e-08
-8.99274e-08
-3.12896e-07
-2.739e-07
-5.15348e-08
-6.86812e-08
-3.61756e-07
-3.10273e-07
-1.66942e-08
-3.87938e-08
-4.24813e-07
-3.56921e-07
3.08724e-08
2.46038e-09
-5.07041e-07
-4.17796e-07
9.46545e-08
5.83496e-08
-6.1451e-07
-4.97931e-07
1.79423e-07
1.33502e-07
-7.51468e-07
-5.98371e-07
2.97122e-07
2.38512e-07
-9.18763e-07
-7.09448e-07
4.76878e-07
3.95503e-07
-1.1449e-06
-8.48984e-07
7.2744e-07
6.10798e-07
-1.58747e-06
-1.25691e-06
8.12289e-07
7.29874e-07
-2.39476e-06
-2.14439e-06
5.57622e-07
5.01442e-07
1.35245e-07
2.15085e-06
6.21893e-06
4.77974e-06
-1.13022e-05
-1.44832e-05
-1.07798e-05
-7.21862e-06
2.21904e-06
1.02065e-05
1.83568e-05
1.20099e-05
0.000440072
0.00058518
0.000707341
0.000554088
0.00123632
0.00133679
0.00142153
0.0012524
0.00194008
0.00215919
0.00214006
0.00211979
0.00268173
0.00297281
0.00295316
0.00316312
0.00365364
0.00390853
0.00379273
0.00397862
0.00467521
0.00490786
0.00456096
0.00470566
0.00561838
0.0056764
0.00528208
0.0054321
0.00636814
0.00631873
0.00612082
0.00623732
0.00694586
0.00708587
0.00698564
0.00718396
0.00770423
0.00780307
0.00773314
0.00791203
0.00845443
0.00846635
0.00842304
0.00847932
0.00857408
0.00857798
0.00858764
0.00859194
0.00857736
0.00857787
0.00859085
0.0085911
0.00857845
0.00857898
0.00858728
0.00858886
0.00857964
0.00858011
0.0085865
0.00858745
0.00858059
0.00858095
0.00858578
0.00858646
0.0085813
0.00858157
0.00858521
0.00858571
0.00858183
0.00858203
0.00858477
0.00858515
0.00858222
0.00858238
0.00858444
0.00858472
0.00858252
0.00858264
0.00858419
0.0085844
0.00858275
0.00858284
0.00858401
0.00858416
0.00858292
0.00858298
0.00858386
0.00858398
0.00858304
0.00858309
0.00858375
0.00858384
0.00858314
0.00858317
0.00858367
0.00858374
0.00858321
0.00858323
0.00858361
0.00858366
0.00858326
0.00858328
0.00858356
0.0085836
0.0085833
0.00858331
0.00858353
0.00858356
0.00858333
0.00858334
0.0085835
0.00858352
0.00858335
0.00858336
0.00858348
0.00858349
0.00858337
0.00858337
0.00858346
0.00858347
0.00858338
0.00858338
0.00858345
0.00858346
0.00858339
0.00858339
0.00858344
0.00858345
0.00858339
0.00858339
0.00858343
0.00858344
0.0085834
0.0085834
0.00858343
0.00858343
0.0085834
0.0085834
0.00858342
0.00858343
0.0085834
0.0085834
0.00858342
0.00858342
0.00858341
0.00858341
0.00858342
0.00858342
0.00858341
0.00858341
0.00858342
0.00858342
0.00858341
0.00858341
0.00858342
0.00858342
0.00858341
0.00858341
0.00858342
0.00858342
0.00858341
0.00858341
0.00858342
0.00858342
0.00858341
0.00858341
0.00858342
0.00858341
0.00858341
0.00858341
0.00858342
0.00858341
0.00858341
0.00858341
0.00858341
0.00858341
0.00858341
0.00858341
0.00858341
0.00858341
0.00858341
0.00858341
0.00858341
0.00858341
0.00858341
0.00858341
0.00858341
0.00858341
0.00858341
0.00858341
0.00858341
0.00858341
0.00858341
0.00858341
0.00858341
0.00858341
)
;

boundaryField
{
    inlet
    {
        type            zeroGradient;
    }
    outlet
    {
        type            fixedValue;
        value           uniform 0;
    }
    repeat_boundary
    {
        type            zeroGradient;
    }
}


// ************************************************************************* //
