/*--------------------------------*- C++ -*----------------------------------*\
  =========                 |
  \\      /  F ield         | OpenFOAM: The Open Source CFD Toolbox
   \\    /   O peration     | Website:  https://openfoam.org
    \\  /    A nd           | Version:  9
     \\/     M anipulation  |
\*---------------------------------------------------------------------------*/
FoamFile
{
    format      ascii;
    class       surfaceScalarField;
    location    "1000";
    object      phi;
}
// * * * * * * * * * * * * * * * * * * * * * * * * * * * * * * * * * * * * * //

dimensions      [0 3 -1 0 0 0 0];

internalField   nonuniform List<scalar> 
716
(
1.07452e-08
-3.27519e-08
-0.0249979
-2.32559e-08
-0.0249976
2.01439e-08
-0.0249993
-0.0249985
1.60731e-08
-5.58834e-08
-0.0249979
-3.97017e-08
-0.0249976
3.17821e-08
-0.0249994
-0.0249985
2.25249e-08
-8.54058e-08
-0.0249978
-5.9717e-08
-0.0249975
4.74199e-08
-0.0249995
-0.0249985
2.91539e-08
-1.19803e-07
-0.0249977
-8.1777e-08
-0.0249974
6.60963e-08
-0.0249997
-0.0249986
3.56441e-08
-1.60466e-07
-0.0249976
-1.06152e-07
-0.0249973
8.86961e-08
-0.025
-0.0249986
4.1731e-08
-2.09432e-07
-0.0249974
-1.33356e-07
-0.0249971
1.1659e-07
-0.0250003
-0.0249986
4.70443e-08
-2.69219e-07
-0.0249972
-1.63917e-07
-0.0249969
1.51454e-07
-0.0250008
-0.0249986
5.10501e-08
-3.42945e-07
-0.0249969
-1.98321e-07
-0.0249967
1.95353e-07
-0.0250013
-0.0249985
5.30944e-08
-4.34514e-07
-0.0249965
-2.3705e-07
-0.0249964
2.50772e-07
-0.025002
-0.0249985
5.23784e-08
-5.48838e-07
-0.0249959
-2.80526e-07
-0.0249961
3.20993e-07
-0.0250029
-0.0249985
4.77329e-08
-6.92117e-07
-0.0249953
-3.29041e-07
-0.0249958
4.1032e-07
-0.0250041
-0.0249984
3.777e-08
-8.72201e-07
-0.0249944
-3.82654e-07
-0.0249954
5.24295e-07
-0.0250055
-0.0249982
2.06212e-08
-1.09903e-06
-0.0249933
-4.41062e-07
-0.024995
6.70071e-07
-0.0250073
-0.0249979
-1.37198e-08
-1.38523e-06
-0.0249919
-5.03411e-07
-0.0249945
8.56893e-07
-0.0250096
-0.0249976
-7.17638e-08
-1.7471e-06
-0.0249901
-5.67753e-07
-0.0249941
1.09674e-06
-0.0250125
-0.024997
-1.58011e-07
-2.20551e-06
-0.0249877
-6.30708e-07
-0.0249936
1.40516e-06
-0.0250161
-0.0249962
-2.84699e-07
-2.78727e-06
-0.0249846
-6.86825e-07
-0.0249933
1.80242e-06
-0.0250208
-0.0249951
-4.67995e-07
-3.52681e-06
-0.0249806
-7.27521e-07
-0.0249931
2.31489e-06
-0.0250266
-0.0249935
-7.29828e-07
-4.46853e-06
-0.0249754
-7.40051e-07
-0.0249931
2.97706e-06
-0.0250341
-0.0249913
-1.10001e-06
-5.6697e-06
-0.0249686
-7.09606e-07
-0.0249935
3.834e-06
-0.0250437
-0.0249882
-1.6189e-06
-7.20433e-06
-0.0249598
-6.20033e-07
-0.0249946
4.94463e-06
-0.0250559
-0.0249838
-2.34076e-06
-9.16823e-06
-0.0249483
-4.61438e-07
-0.0249965
6.38572e-06
-0.0250715
-0.0249779
-3.33786e-06
-1.16855e-05
-0.0249333
-9.87158e-08
-0.0249998
8.25682e-06
-0.0250915
-0.0249697
-4.70929e-06
-1.49172e-05
-0.0249136
4.60977e-07
-0.0250051
1.06904e-05
-0.0251172
-0.0249586
-6.58784e-06
-1.90723e-05
-0.024888
1.3294e-06
-0.025013
1.38592e-05
-0.0251502
-0.0249434
-9.15133e-06
-2.44228e-05
-0.0248544
2.65712e-06
-0.0250249
1.799e-05
-0.0251927
-0.0249227
-1.26384e-05
-3.13226e-05
-0.0248104
4.62283e-06
-0.0250422
2.33805e-05
-0.0252474
-0.0248947
-1.73687e-05
-4.02329e-05
-0.0247528
7.47208e-06
-0.0250672
3.04223e-05
-0.0253182
-0.0248568
-2.37708e-05
-5.17565e-05
-0.0246772
1.15404e-05
-0.0251025
3.96311e-05
-0.0254096
-0.0248056
-3.24194e-05
-6.66828e-05
-0.0245781
1.72913e-05
-0.0251523
5.16873e-05
-0.0255281
-0.0247366
-4.40852e-05
-8.6046e-05
-0.0244479
2.53581e-05
-0.0252219
6.74901e-05
-0.0256817
-0.0246437
-5.98025e-05
-0.000111202
-0.0242769
3.66096e-05
-0.0253184
8.82352e-05
-0.0258812
-0.0245188
-8.10249e-05
-0.000144003
-0.0240518
5.22906e-05
-0.0254518
0.000115574
-0.0261409
-0.0243509
-0.000109934
-0.000187153
-0.0237547
7.42535e-05
-0.025636
0.000151877
-0.02648
-0.0241248
-0.00014821
-0.000241991
-0.0233645
0.000104032
-0.0258884
0.000198364
-0.0269204
-0.0238223
-0.000182792
-0.000290213
-0.0228914
0.000131938
-0.0262032
0.000240243
-0.027451
-0.0234501
-0.000200274
-0.000309236
-0.0223819
0.000151116
-0.0265547
0.000261543
-0.0280219
-0.0230374
-0.000168695
-0.000256689
-0.0219565
0.00014388
-0.0268674
0.000236114
-0.0285148
-0.0226574
-0.000137663
-0.000194304
-0.0216245
0.000103543
-0.0271087
0.000166551
-0.0288757
-0.0223873
0.000597087
0.000762823
-0.0229844
-0.000369812
-0.0261419
-0.000525554
-0.0275874
-0.0232827
-1.90643e-05
-1.75872e-05
-0.0229478
1.03949e-05
-0.0261713
1.25972e-05
-0.0276176
-0.0232597
-0.000192613
-0.000305671
-0.0224495
7.47503e-05
-0.0264387
0.000202251
-0.0281256
-0.0229827
-0.000100293
-0.000184713
-0.0221645
0.000137318
-0.0266763
0.000230482
-0.0285408
-0.0226149
-0.000292203
-0.000218358
-0.0216539
9.90747e-05
-0.0270676
2.61652e-05
-0.0287853
-0.0224896
-0.000275096
-0.000206152
-0.0211727
-0.000119859
-0.0272228
-0.000210883
-0.0287806
-0.0228204
-0.000229449
-6.23307e-05
-0.0208809
8.54233e-06
-0.0274608
-0.000228266
-0.0286146
-0.0230401
-0.000189071
0.000207822
-0.0208996
0.000309919
-0.0279598
-0.000173887
-0.0282329
-0.022904
-6.04312e-05
0.000512512
-0.0213517
0.000464831
-0.0284851
-0.000188444
-0.027532
-0.0226277
7.98749e-05
0.000376955
-0.0218086
0.000204194
-0.0286094
-9.95532e-05
-0.0270555
-0.022523
-0.000181054
6.1818e-05
-0.0216894
2.21711e-05
-0.0288126
-0.000211771
-0.0267819
-0.0227127
-9.63391e-05
9.84438e-05
-0.0216915
-4.66217e-05
-0.0288624
-0.00023474
-0.0264487
-0.022994
-4.76064e-06
0.000171079
-0.0218578
0.00010561
-0.0289727
-8.78348e-05
-0.0261898
-0.0229763
2.32714e-05
0.000232893
-0.022114
-9.92829e-05
-0.0288502
-0.000113594
-0.0258433
-0.0231892
0.000309987
0.0001599
-0.022584
-0.000298502
-0.0282418
0.000160432
-0.0258439
-0.0233273
0.000340148
0.000195787
-0.0231199
-0.000312143
-0.0275896
-0.000100421
-0.0255477
-0.0237399
0.000304768
0.000125024
-0.0235497
-0.000259394
-0.0270254
-7.62047e-05
-0.0253466
-0.0240755
0.00024231
8.37805e-05
-0.0238758
-0.000201619
-0.0265816
-4.73471e-05
-0.0252155
-0.0243245
0.000190748
6.09264e-05
-0.0241275
-0.000155044
-0.0262358
-2.8948e-05
-0.0251257
-0.0245085
0.000149925
4.47534e-05
-0.0243222
-0.00011906
-0.0259669
-1.6828e-05
-0.0250641
-0.0246444
0.000117916
3.26961e-05
-0.0244728
-9.1419e-05
-0.0257576
-8.48554e-06
-0.025023
-0.0247443
9.28726e-05
2.37382e-05
-0.0245894
-7.02507e-05
-0.0255945
-2.96069e-06
-0.0249963
-0.0248175
7.3262e-05
1.7119e-05
-0.0246798
-5.40384e-05
-0.0254672
7.34139e-07
-0.02498
-0.0248708
5.78814e-05
1.22494e-05
-0.0247499
-4.16141e-05
-0.0253677
2.82375e-06
-0.0249705
-0.0249096
4.57993e-05
8.68168e-06
-0.0248044
-3.20831e-05
-0.0252899
4.02741e-06
-0.0249659
-0.0249376
3.62936e-05
6.08147e-06
-0.0248468
-2.47651e-05
-0.0252288
4.61769e-06
-0.0249644
-0.0249578
2.88037e-05
4.19775e-06
-0.0248798
-1.91408e-05
-0.0251809
4.78894e-06
-0.024965
-0.0249721
2.28931e-05
2.84286e-06
-0.0249055
-1.48139e-05
-0.0251432
4.68966e-06
-0.0249669
-0.0249823
1.82219e-05
1.87695e-06
-0.0249256
-1.14813e-05
-0.0251135
4.42762e-06
-0.0249694
-0.0249893
1.45247e-05
1.19601e-06
-0.0249414
-8.91176e-06
-0.0250901
4.07701e-06
-0.0249724
-0.0249942
1.1594e-05
7.23027e-07
-0.0249537
-6.92809e-06
-0.0250716
3.68657e-06
-0.0249754
-0.0249974
9.26758e-06
4.0142e-07
-0.0249634
-5.39468e-06
-0.025057
3.28703e-06
-0.0249783
-0.0249996
7.41819e-06
1.90689e-07
-0.024971
-4.20757e-06
-0.0250454
2.897e-06
-0.0249811
-0.0250009
5.94621e-06
5.10918e-08
-0.0249771
-3.28707e-06
-0.0250363
2.52729e-06
-0.0249836
-0.0250017
4.77311e-06
-5.46406e-08
-0.0249818
-2.57212e-06
-0.025029
2.18531e-06
-0.024986
-0.0250021
3.8367e-06
-1.27087e-07
-0.0249856
-2.01593e-06
-0.0250233
1.8763e-06
-0.0249881
-0.0250023
3.088e-06
-1.72704e-07
-0.0249885
-1.58255e-06
-0.0250187
1.60201e-06
-0.0249899
-0.0250023
2.4881e-06
-1.85285e-07
-0.0249909
-1.24433e-06
-0.025015
1.36213e-06
-0.0249916
-0.0250023
2.00654e-06
-1.69658e-07
-0.0249928
-9.79914e-07
-0.0250121
1.15466e-06
-0.024993
-0.0250021
1.61979e-06
-1.55954e-07
-0.0249943
-7.72843e-07
-0.0250098
9.76403e-07
-0.0249942
-0.025002
1.30904e-06
-1.42758e-07
-0.0249955
-6.10459e-07
-0.0250079
8.24201e-07
-0.0249952
-0.0250018
1.05926e-06
-1.28892e-07
-0.0249964
-4.83002e-07
-0.0250064
6.9504e-07
-0.024996
-0.0250016
8.58506e-07
-1.15806e-07
-0.0249972
-3.82914e-07
-0.0250052
5.86041e-07
-0.0249968
-0.0250014
6.97245e-07
-1.03923e-07
-0.0249978
-3.04323e-07
-0.0250042
4.94543e-07
-0.0249974
-0.0250013
5.67867e-07
-9.34306e-08
-0.0249983
-2.42634e-07
-0.0250034
4.18131e-07
-0.0249979
-0.0250011
4.64262e-07
-8.44141e-08
-0.0249987
-1.94216e-07
-0.0250027
3.5465e-07
-0.0249983
-0.0250009
3.81447e-07
-7.67332e-08
-0.024999
-1.56208e-07
-0.0250022
3.02169e-07
-0.0249987
-0.0250008
3.15142e-07
-7.00006e-08
-0.0249992
-1.26547e-07
-0.0250017
2.58849e-07
-0.024999
-0.0250006
2.61622e-07
-6.42634e-08
-0.0249994
-1.03679e-07
-0.0250013
2.22836e-07
-0.0249992
-0.0250005
2.20252e-07
-5.95241e-08
-0.0249995
-8.71982e-08
-0.0250009
1.94135e-07
-0.0249994
-0.0250004
2.02804e-07
-5.7246e-08
-8.05648e-08
1.81973e-07
)
;

boundaryField
{
    inlet
    {
        type            calculated;
        value           nonuniform List<scalar> 4(-0.0249996 -0.0249996 -0.0250006 -0.0250002);
    }
    outlet
    {
        type            calculated;
        value           nonuniform List<scalar> 4(0.024998 0.0249992 0.0249977 0.0249985);
    }
    repeat_boundary
    {
        type            calculated;
        value           uniform 0;
    }
}


// ************************************************************************* //
