/*--------------------------------*- C++ -*----------------------------------*\
  =========                 |
  \\      /  F ield         | OpenFOAM: The Open Source CFD Toolbox
   \\    /   O peration     | Website:  https://openfoam.org
    \\  /    A nd           | Version:  9
     \\/     M anipulation  |
\*---------------------------------------------------------------------------*/
FoamFile
{
    format      ascii;
    class       volVectorField;
    location    "3000";
    object      U;
}
// * * * * * * * * * * * * * * * * * * * * * * * * * * * * * * * * * * * * * //

dimensions      [0 1 -1 0 0 0 0];

internalField   nonuniform List<vector> 
720
(
(-9.96968e-11 8.37571e-09 -0.00100009)
(-9.96971e-11 8.00741e-09 -0.00100008)
(-4.67996e-10 8.3757e-09 -0.000999927)
(-4.67997e-10 8.0074e-09 -0.000999929)
(1.56946e-10 1.33066e-08 -0.00100009)
(1.56945e-10 1.28034e-08 -0.00100008)
(-3.46294e-10 1.33066e-08 -0.000999926)
(-3.46295e-10 1.28033e-08 -0.000999928)
(4.2201e-10 2.0467e-08 -0.00100009)
(4.22009e-10 1.97186e-08 -0.00100008)
(-3.2633e-10 2.04669e-08 -0.000999924)
(-3.2633e-10 1.97186e-08 -0.000999926)
(6.60044e-10 2.85265e-08 -0.00100009)
(6.60043e-10 2.74651e-08 -0.00100009)
(-4.01329e-10 2.85265e-08 -0.00099992)
(-4.0133e-10 2.74651e-08 -0.000999923)
(9.08283e-10 3.70895e-08 -0.00100009)
(9.08283e-10 3.56453e-08 -0.00100009)
(-5.35926e-10 3.70894e-08 -0.000999916)
(-5.35927e-10 3.56452e-08 -0.00099992)
(1.18667e-09 4.61164e-08 -0.0010001)
(1.18667e-09 4.42165e-08 -0.00100009)
(-7.13261e-10 4.61164e-08 -0.000999911)
(-7.13262e-10 4.42165e-08 -0.000999915)
(1.50989e-09 5.5681e-08 -0.0010001)
(1.50989e-09 5.32345e-08 -0.0010001)
(-9.36542e-10 5.56809e-08 -0.000999904)
(-9.36543e-10 5.32345e-08 -0.000999909)
(1.88909e-09 6.58864e-08 -0.00100011)
(1.88909e-09 6.27836e-08 -0.0010001)
(-1.21375e-09 6.58863e-08 -0.000999896)
(-1.21375e-09 6.27835e-08 -0.000999903)
(2.33475e-09 7.68474e-08 -0.00100012)
(2.33475e-09 7.29584e-08 -0.00100011)
(-1.5542e-09 7.68473e-08 -0.000999887)
(-1.5542e-09 7.29583e-08 -0.000999895)
(2.85762e-09 8.86872e-08 -0.00100013)
(2.85762e-09 8.38617e-08 -0.00100012)
(-1.96789e-09 8.86871e-08 -0.000999877)
(-1.9679e-09 8.38616e-08 -0.000999886)
(3.46908e-09 1.01539e-07 -0.00100014)
(3.46908e-09 9.56039e-08 -0.00100012)
(-2.46559e-09 1.01538e-07 -0.000999865)
(-2.4656e-09 9.56038e-08 -0.000999876)
(4.18136e-09 1.15545e-07 -0.00100015)
(4.18136e-09 1.08304e-07 -0.00100013)
(-3.05903e-09 1.15545e-07 -0.000999852)
(-3.05904e-09 1.08304e-07 -0.000999865)
(5.00784e-09 1.30862e-07 -0.00100016)
(5.00783e-09 1.22093e-07 -0.00100014)
(-3.76127e-09 1.30862e-07 -0.000999836)
(-3.76127e-09 1.22092e-07 -0.000999852)
(5.96338e-09 1.47659e-07 -0.00100018)
(5.96338e-09 1.37109e-07 -0.00100016)
(-4.58702e-09 1.47659e-07 -0.00099982)
(-4.58702e-09 1.37109e-07 -0.000999838)
(7.06471e-09 1.66123e-07 -0.00100019)
(7.06471e-09 1.53506e-07 -0.00100017)
(-5.5531e-09 1.66123e-07 -0.000999801)
(-5.5531e-09 1.53505e-07 -0.000999822)
(8.33089e-09 1.86459e-07 -0.00100021)
(8.33089e-09 1.71449e-07 -0.00100018)
(-6.67892e-09 1.86459e-07 -0.00099978)
(-6.67893e-09 1.71449e-07 -0.000999805)
(9.78381e-09 2.08892e-07 -0.00100023)
(9.7838e-09 1.91121e-07 -0.0010002)
(-7.9871e-09 2.08892e-07 -0.000999756)
(-7.98711e-09 1.91121e-07 -0.000999785)
(1.14488e-08 2.33672e-07 -0.00100026)
(1.14488e-08 2.12719e-07 -0.00100022)
(-9.50409e-09 2.33672e-07 -0.00099973)
(-9.5041e-09 2.12719e-07 -0.000999764)
(1.33554e-08 2.61075e-07 -0.00100028)
(1.33554e-08 2.36459e-07 -0.00100024)
(-1.1261e-08 2.61074e-07 -0.000999701)
(-1.12611e-08 2.36458e-07 -0.00099974)
(1.55379e-08 2.91408e-07 -0.00100032)
(1.55379e-08 2.62575e-07 -0.00100027)
(-1.32946e-08 2.91407e-07 -0.000999669)
(-1.32946e-08 2.62574e-07 -0.000999714)
(1.80366e-08 3.2501e-07 -0.00100035)
(1.80366e-08 2.91326e-07 -0.0010003)
(-1.56479e-08 3.2501e-07 -0.000999634)
(-1.56479e-08 2.91325e-07 -0.000999686)
(2.08987e-08 3.62262e-07 -0.00100039)
(2.08987e-08 3.22992e-07 -0.00100033)
(-1.83719e-08 3.62261e-07 -0.000999594)
(-1.83719e-08 3.22991e-07 -0.000999654)
(2.4179e-08 4.03585e-07 -0.00100043)
(2.4179e-08 3.57879e-07 -0.00100036)
(-2.15263e-08 4.03584e-07 -0.00099955)
(-2.15263e-08 3.57878e-07 -0.00099962)
(2.7942e-08 4.49448e-07 -0.00100048)
(2.7942e-08 3.96324e-07 -0.0010004)
(-2.51816e-08 4.49447e-07 -0.000999501)
(-2.51816e-08 3.96323e-07 -0.000999582)
(3.22626e-08 5.00375e-07 -0.00100053)
(3.22626e-08 4.38692e-07 -0.00100044)
(-2.94204e-08 5.00373e-07 -0.000999447)
(-2.94205e-08 4.38691e-07 -0.00099954)
(3.72283e-08 5.56951e-07 -0.00100059)
(3.72282e-08 4.85382e-07 -0.00100049)
(-3.434e-08 5.56948e-07 -0.000999386)
(-3.43401e-08 4.8538e-07 -0.000999495)
(4.29406e-08 6.19826e-07 -0.00100066)
(4.29406e-08 5.3683e-07 -0.00100054)
(-4.00548e-08 6.19823e-07 -0.000999319)
(-4.00549e-08 5.36828e-07 -0.000999445)
(4.95177e-08 6.89729e-07 -0.00100074)
(4.95176e-08 5.93512e-07 -0.00100059)
(-4.66981e-08 6.89725e-07 -0.000999243)
(-4.66983e-08 5.93509e-07 -0.00099939)
(5.70963e-08 7.6747e-07 -0.00100082)
(5.70963e-08 6.55947e-07 -0.00100066)
(-5.44254e-08 7.67465e-07 -0.000999159)
(-5.44256e-08 6.55944e-07 -0.00099933)
(6.5835e-08 8.53954e-07 -0.00100091)
(6.58349e-08 7.24701e-07 -0.00100072)
(-6.34165e-08 8.53948e-07 -0.000999066)
(-6.34167e-08 7.24697e-07 -0.000999264)
(7.59169e-08 9.50193e-07 -0.00100102)
(7.59169e-08 8.00394e-07 -0.0010008)
(-7.38798e-08 9.50185e-07 -0.000998961)
(-7.38801e-08 8.0039e-07 -0.000999191)
(8.75537e-08 1.05731e-06 -0.00100113)
(8.75536e-08 8.837e-07 -0.00100088)
(-8.60568e-08 1.0573e-06 -0.000998844)
(-8.60571e-08 8.83694e-07 -0.000999112)
(1.0099e-07 1.17657e-06 -0.00100126)
(1.00989e-07 9.75354e-07 -0.00100097)
(-1.00227e-07 1.17656e-06 -0.000998713)
(-1.00227e-07 9.75347e-07 -0.000999025)
(1.16507e-07 1.30938e-06 -0.00100141)
(1.16506e-07 1.07616e-06 -0.00100107)
(-1.16713e-07 1.30937e-06 -0.000998567)
(-1.16714e-07 1.07615e-06 -0.00099893)
(1.3443e-07 1.45731e-06 -0.00100157)
(1.3443e-07 1.18698e-06 -0.00100118)
(-1.35891e-07 1.45729e-06 -0.000998404)
(-1.35891e-07 1.18697e-06 -0.000998826)
(1.55135e-07 1.6221e-06 -0.00100175)
(1.55135e-07 1.30877e-06 -0.0010013)
(-1.58193e-07 1.62208e-06 -0.000998222)
(-1.58194e-07 1.30876e-06 -0.000998712)
(1.79056e-07 1.80574e-06 -0.00100194)
(1.79056e-07 1.44255e-06 -0.00100143)
(-1.84121e-07 1.80571e-06 -0.000998018)
(-1.84123e-07 1.44254e-06 -0.000998587)
(2.06692e-07 2.0104e-06 -0.00100217)
(2.06692e-07 1.58944e-06 -0.00100157)
(-2.14259e-07 2.01037e-06 -0.00099779)
(-2.14261e-07 1.58942e-06 -0.000998451)
(2.38622e-07 2.23855e-06 -0.00100242)
(2.38622e-07 1.75064e-06 -0.00100172)
(-2.49279e-07 2.23851e-06 -0.000997535)
(-2.49281e-07 1.75061e-06 -0.000998303)
(2.75515e-07 2.49294e-06 -0.00100269)
(2.75514e-07 1.92744e-06 -0.00100189)
(-2.89964e-07 2.49288e-06 -0.00099725)
(-2.89967e-07 1.92741e-06 -0.000998142)
(3.18143e-07 2.77664e-06 -0.001003)
(3.18141e-07 2.12126e-06 -0.00100208)
(-3.3722e-07 2.77657e-06 -0.000996931)
(-3.37224e-07 2.12122e-06 -0.000997967)
(3.674e-07 3.09311e-06 -0.00100335)
(3.67398e-07 2.33358e-06 -0.00100228)
(-3.92097e-07 3.09302e-06 -0.000996574)
(-3.92103e-07 2.33354e-06 -0.000997776)
(4.24321e-07 3.44621e-06 -0.00100373)
(4.24318e-07 2.56604e-06 -0.0010025)
(-4.55812e-07 3.4461e-06 -0.000996174)
(-4.5582e-07 2.56598e-06 -0.00099757)
(4.90105e-07 3.84027e-06 -0.00100416)
(4.90102e-07 2.82034e-06 -0.00100274)
(-5.29779e-07 3.84014e-06 -0.000995727)
(-5.29789e-07 2.82028e-06 -0.000997347)
(5.6614e-07 4.28017e-06 -0.00100464)
(5.66135e-07 3.09833e-06 -0.00100299)
(-6.15634e-07 4.28e-06 -0.000995225)
(-6.15648e-07 3.09825e-06 -0.000997106)
(6.54034e-07 4.77135e-06 -0.00100518)
(6.54028e-07 3.40196e-06 -0.00100327)
(-7.1528e-07 4.77114e-06 -0.000994664)
(-7.15298e-07 3.40187e-06 -0.000996846)
(7.55649e-07 5.31996e-06 -0.00100579)
(7.55641e-07 3.73329e-06 -0.00100358)
(-8.30917e-07 5.3197e-06 -0.000994035)
(-8.30942e-07 3.73318e-06 -0.000996566)
(8.7314e-07 5.93288e-06 -0.00100646)
(8.73129e-07 4.0945e-06 -0.00100391)
(-9.65101e-07 5.93255e-06 -0.000993329)
(-9.65133e-07 4.09437e-06 -0.000996266)
(1.009e-06 6.61785e-06 -0.00100722)
(1.00899e-06 4.48788e-06 -0.00100426)
(-1.12079e-06 6.61743e-06 -0.000992538)
(-1.12083e-06 4.48772e-06 -0.000995946)
(1.16612e-06 7.38358e-06 -0.00100806)
(1.1661e-06 4.91582e-06 -0.00100465)
(-1.30141e-06 7.38305e-06 -0.000991651)
(-1.30146e-06 4.91563e-06 -0.000995603)
(1.34783e-06 8.23986e-06 -0.00100901)
(1.3478e-06 5.38081e-06 -0.00100506)
(-1.51092e-06 8.23919e-06 -0.000990655)
(-1.511e-06 5.38058e-06 -0.000995238)
(1.55799e-06 9.19771e-06 -0.00101007)
(1.55796e-06 5.88538e-06 -0.0010055)
(-1.75394e-06 9.19687e-06 -0.000989536)
(-1.75404e-06 5.88511e-06 -0.000994852)
(1.80109e-06 1.02695e-05 -0.00101126)
(1.80104e-06 6.43218e-06 -0.00100598)
(-2.03577e-06 1.02685e-05 -0.000988279)
(-2.03591e-06 6.43184e-06 -0.000994443)
(2.08227e-06 1.14693e-05 -0.0010126)
(2.08221e-06 7.02383e-06 -0.00100649)
(-2.36258e-06 1.1468e-05 -0.000986867)
(-2.36276e-06 7.02343e-06 -0.000994013)
(2.4075e-06 1.28128e-05 -0.0010141)
(2.40742e-06 7.66299e-06 -0.00100703)
(-2.74148e-06 1.28111e-05 -0.000985279)
(-2.74172e-06 7.66252e-06 -0.000993563)
(2.78369e-06 1.43178e-05 -0.00101579)
(2.78358e-06 8.35228e-06 -0.0010076)
(-3.1807e-06 1.43156e-05 -0.000983492)
(-3.18103e-06 8.35171e-06 -0.000993094)
(3.21879e-06 1.60042e-05 -0.00101768)
(3.21864e-06 9.09423e-06 -0.00100821)
(-3.68978e-06 1.60015e-05 -0.000981481)
(-3.69021e-06 9.09354e-06 -0.000992608)
(3.72201e-06 1.78947e-05 -0.0010198)
(3.7218e-06 9.89121e-06 -0.00100885)
(-4.27969e-06 1.78913e-05 -0.000979216)
(-4.28027e-06 9.89039e-06 -0.000992109)
(4.30397e-06 2.00149e-05 -0.00102219)
(4.30369e-06 1.07454e-05 -0.00100952)
(-4.96317e-06 2.00105e-05 -0.000976665)
(-4.96394e-06 1.07444e-05 -0.000991601)
(4.97694e-06 2.23935e-05 -0.00102488)
(4.97656e-06 1.16587e-05 -0.00101023)
(-5.75487e-06 2.2388e-05 -0.00097379)
(-5.75591e-06 1.16575e-05 -0.000991088)
(5.75507e-06 2.50632e-05 -0.0010279)
(5.75455e-06 1.26325e-05 -0.00101096)
(-6.67174e-06 2.50562e-05 -0.000970548)
(-6.67313e-06 1.26311e-05 -0.000990579)
(6.65467e-06 2.80609e-05 -0.0010313)
(6.65397e-06 1.36678e-05 -0.00101171)
(-7.73333e-06 2.80519e-05 -0.000966891)
(-7.73519e-06 1.36662e-05 -0.00099008)
(7.69456e-06 3.14282e-05 -0.00103513)
(7.69362e-06 1.4765e-05 -0.00101249)
(-8.96217e-06 3.14168e-05 -0.000962763)
(-8.96465e-06 1.4763e-05 -0.000989602)
(8.89643e-06 3.52125e-05 -0.00103945)
(8.89516e-06 1.59234e-05 -0.00101328)
(-1.03842e-05 3.51979e-05 -0.000958102)
(-1.03876e-05 1.5921e-05 -0.000989157)
(1.02853e-05 3.94672e-05 -0.00104432)
(1.02836e-05 1.71416e-05 -0.00101407)
(-1.20295e-05 3.94487e-05 -0.000952837)
(-1.2034e-05 1.71387e-05 -0.000988761)
(1.18899e-05 4.4253e-05 -0.0010498)
(1.18875e-05 1.84167e-05 -0.00101486)
(-1.39324e-05 4.42293e-05 -0.000946886)
(-1.39384e-05 1.84133e-05 -0.000988432)
(1.37433e-05 4.96386e-05 -0.001056)
(1.37402e-05 1.97447e-05 -0.00101564)
(-1.61326e-05 4.96085e-05 -0.000940158)
(-1.61406e-05 1.97406e-05 -0.000988189)
(1.58838e-05 5.57022e-05 -0.00106299)
(1.58795e-05 2.11194e-05 -0.00101638)
(-1.86757e-05 5.56636e-05 -0.000932547)
(-1.86865e-05 2.11145e-05 -0.000988059)
(1.8355e-05 6.25323e-05 -0.00107089)
(1.83493e-05 2.2533e-05 -0.00101708)
(-2.16142e-05 6.24829e-05 -0.000923934)
(-2.16286e-05 2.25271e-05 -0.000988068)
(2.12073e-05 7.02295e-05 -0.00107982)
(2.11995e-05 2.39752e-05 -0.00101772)
(-2.50081e-05 7.01662e-05 -0.000914182)
(-2.50275e-05 2.3968e-05 -0.000988249)
(2.44981e-05 7.89081e-05 -0.00108992)
(2.44875e-05 2.54335e-05 -0.00101829)
(-2.89264e-05 7.88269e-05 -0.000903138)
(-2.89524e-05 2.54246e-05 -0.00098863)
(2.82925e-05 8.8698e-05 -0.00110135)
(2.82782e-05 2.68939e-05 -0.00101879)
(-3.3447e-05 8.85936e-05 -0.000890622)
(-3.34818e-05 2.6883e-05 -0.000989222)
(3.26635e-05 9.97458e-05 -0.00111424)
(3.2644e-05 2.83424e-05 -0.00101914)
(-3.86566e-05 9.9611e-05 -0.00087641)
(-3.87033e-05 2.83289e-05 -0.000990055)
(3.76972e-05 0.000112212 -0.00112874)
(3.76689e-05 2.97535e-05 -0.00101921)
(-4.46534e-05 0.000112035 -0.000860232)
(-4.47164e-05 2.97374e-05 -0.000991219)
(4.34881e-05 0.000126242 -0.00114536)
(4.34384e-05 3.10798e-05 -0.00101919)
(-5.15351e-05 0.000125997 -0.000842037)
(-5.16213e-05 3.10646e-05 -0.000993201)
(5.01092e-05 0.000141836 -0.00116609)
(4.99893e-05 3.22219e-05 -0.00102052)
(-5.93285e-05 0.000141452 -0.000822614)
(-5.94532e-05 3.22268e-05 -0.000997485)
(5.74614e-05 0.000158257 -0.0011929)
(5.71026e-05 3.29343e-05 -0.00102375)
(-6.7672e-05 0.000157561 -0.000802167)
(-6.76696e-05 3.3018e-05 -0.00100347)
(6.43657e-05 0.00017156 -0.0012084)
(6.36284e-05 3.26108e-05 -0.00101296)
(-7.46937e-05 0.000170596 -0.000769162)
(-7.44921e-05 3.29481e-05 -0.000993547)
(6.70311e-05 0.000170893 -0.00116335)
(6.5067e-05 2.96933e-05 -0.000951408)
(-7.466e-05 0.000168699 -0.000694615)
(-7.38968e-05 3.05229e-05 -0.000928695)
(5.35557e-05 0.00013256 -0.00094047)
(5.02949e-05 2.25126e-05 -0.000786878)
(-5.71546e-05 0.000128676 -0.000535412)
(-5.58591e-05 2.35689e-05 -0.00087242)
(-2.87634e-06 2.25765e-05 -0.00398642)
(-2.34844e-06 3.97211e-06 -0.00315874)
(-1.43224e-05 2.16215e-05 -0.00212727)
(-1.3944e-05 3.51815e-07 -0.00288552)
(-1.45389e-05 3.37425e-06 1.47195e-05)
(4.50842e-06 8.71418e-06 5.83259e-07)
(4.88781e-05 1.13894e-05 1.43257e-05)
(4.03256e-05 -6.5087e-06 -2.62225e-05)
(-0.000304978 0.000201488 -0.00468007)
(-0.000160386 0.000301748 -0.0038692)
(1.19669e-05 0.000146619 -0.00311666)
(2.22508e-05 0.000476746 -0.00378047)
(-4.06852e-05 2.05405e-05 -0.000520135)
(-5.72376e-05 0.000111359 -0.00260923)
(4.7272e-05 2.68594e-05 -0.000189773)
(4.08662e-05 1.32075e-05 -0.000144971)
(-0.000410617 -0.000199076 -0.00465391)
(-5.93531e-05 -3.12394e-05 -0.00118095)
(-0.00014127 -4.65927e-05 -0.00404569)
(-0.000130564 -7.5716e-05 -0.0038909)
(-5.1462e-05 -3.08157e-05 -0.000258461)
(-0.000259783 3.994e-05 -0.00513835)
(6.58471e-05 2.44883e-05 -0.000245024)
(-3.76055e-05 3.31752e-05 -0.00420221)
(-0.000670807 -0.000432113 -0.00505565)
(-8.45518e-05 -1.36514e-05 -0.000488286)
(-0.000119479 -0.000212133 -0.00335363)
(1.77419e-05 -1.4536e-06 -0.00039835)
(-0.000316416 -0.000181531 -0.00441616)
(-0.000881999 -0.000416369 -0.0052571)
(-0.000228722 -0.000183954 -0.00132399)
(-0.000364026 -0.000222983 -0.0040345)
(-1.90548e-05 7.33504e-05 -0.00127024)
(-2.97493e-05 -6.35595e-05 9.71565e-06)
(-0.000446289 0.000219362 -0.00268418)
(-0.000401535 -0.00016169 -0.00361483)
(0.000213246 0.0003945 -0.00502166)
(0.000690085 -0.000863691 -0.00470168)
(-3.2187e-05 -5.63626e-06 -0.000152424)
(-6.23284e-05 -5.71597e-05 -0.000404883)
(0.000222416 6.89702e-05 -0.00157412)
(8.49648e-06 -0.000122061 -0.000195432)
(-6.56767e-05 4.35225e-05 -0.0049093)
(-0.000194393 -0.000642878 -0.0029735)
(0.000729274 -0.000465394 -0.00434952)
(0.000474522 -0.000437392 -0.00416252)
(2.9219e-05 -8.22066e-05 -0.00104616)
(0.000251168 -0.000317059 -0.00412016)
(2.29701e-05 2.37683e-05 -0.000162749)
(0.000175367 -0.000256337 -0.00154466)
(0.000112803 -0.00024848 -0.0022784)
(1.01586e-05 -8.60275e-05 -0.000472691)
(0.000467026 -0.000199643 -0.00512964)
(0.00031918 -0.000599134 -0.00456387)
(-0.000199605 -0.000165979 -0.00279662)
(-0.000198964 -0.000731987 -0.00483919)
(0.000121967 -0.000180393 -0.00303118)
(2.84441e-05 -4.46248e-05 -0.000654762)
(-8.94696e-06 1.76058e-05 0.000260181)
(-0.000107243 -0.000840541 -0.003499)
(6.08273e-05 -8.33294e-05 -0.00246972)
(0.000119466 -0.000295941 -0.00297453)
(-5.74705e-05 -0.000209123 -0.00321413)
(-4.07725e-05 -8.28472e-05 -0.000290846)
(0.000278203 -8.02341e-05 -0.00385218)
(0.000355855 -0.000536478 -0.00247831)
(6.81988e-06 -1.77579e-05 -0.000693792)
(-0.000113381 -0.000907346 -0.00538979)
(0.00022243 -5.57178e-05 -0.0027478)
(-1.575e-05 -3.01977e-05 -2.58998e-06)
(-2.38806e-06 -7.59011e-05 -0.00198005)
(-6.08266e-05 -2.64054e-05 1.61083e-05)
(-1.19588e-05 2.48099e-05 -0.00255353)
(-1.31809e-05 -9.22253e-05 -0.00439017)
(-0.000171368 3.12146e-05 -0.00260468)
(-0.000284029 -0.000279669 -0.0053408)
(-0.000265153 -8.08039e-05 -0.00405628)
(-7.9105e-05 2.56856e-05 -0.00094343)
(-1.38283e-05 4.73267e-05 0.000231735)
(-4.50781e-05 8.47636e-05 -0.00158404)
(-0.000135666 -0.000103559 -0.00183699)
(-0.000216099 0.000228156 -0.00246196)
(0.000179466 -0.000157136 -0.0029147)
(0.000500963 0.000521209 -0.00509444)
(-0.000108805 -0.000135597 -0.00353941)
(-0.000133232 0.000195256 -0.00129678)
(0.000169443 -0.00014363 -0.00116307)
(2.72092e-05 3.96833e-05 -0.000174404)
(-0.000129067 -0.00017356 -0.00285196)
(-0.000181857 4.46661e-06 -0.00128158)
(7.1838e-05 -0.000286042 -0.00118259)
(4.65543e-05 -7.34014e-06 -0.00414244)
(-2.51917e-05 -2.41032e-05 -0.00115747)
(-0.000119791 3.63222e-05 -0.00104019)
(0.000145473 -0.000248071 -0.000886786)
(9.27397e-05 -9.08369e-06 -0.00144913)
(-2.48399e-05 -3.93437e-05 -0.001868)
(-6.89318e-05 8.7693e-05 -0.000939777)
(0.000139164 -0.000113043 -0.00077698)
(0.000130094 3.13027e-05 -0.00138596)
(-6.87148e-05 -6.6087e-05 -0.00108269)
(-8.21613e-05 0.000117911 -0.000874739)
(0.000141733 -9.52716e-05 -0.000833221)
(0.000138211 8.60936e-05 -0.00127671)
(-7.86161e-05 -7.3897e-05 -0.00108139)
(-8.11231e-05 0.000121677 -0.000846989)
(0.000129412 -8.4064e-05 -0.000835102)
(0.00012849 0.000109981 -0.00120427)
(-7.14215e-05 -6.90893e-05 -0.00109402)
(-7.177e-05 0.00011228 -0.000861618)
(0.000114123 -7.20677e-05 -0.000854634)
(0.000113786 0.000108988 -0.00117375)
(-6.131e-05 -6.02057e-05 -0.00108553)
(-6.14289e-05 9.96591e-05 -0.000882801)
(9.96225e-05 -6.09931e-05 -0.000875871)
(9.94169e-05 9.87959e-05 -0.00115486)
(-5.22108e-05 -5.12869e-05 -0.00107128)
(-5.22976e-05 8.74803e-05 -0.000899462)
(8.67774e-05 -5.15099e-05 -0.000893688)
(8.6627e-05 8.72008e-05 -0.00113666)
(-4.44257e-05 -4.33703e-05 -0.00105917)
(-4.44922e-05 7.66019e-05 -0.000912845)
(7.55828e-05 -4.34588e-05 -0.000908544)
(7.54699e-05 7.64628e-05 -0.00111976)
(-3.77728e-05 -3.65578e-05 -0.00104939)
(-3.78222e-05 6.70624e-05 -0.000924353)
(6.585e-05 -3.66089e-05 -0.0009213)
(6.57654e-05 6.69696e-05 -0.00110494)
(-3.20859e-05 -3.07471e-05 -0.00104122)
(-3.21222e-05 5.87279e-05 -0.000934379)
(5.73869e-05 -3.07823e-05 -0.000932326)
(5.73235e-05 5.866e-05 -0.00109204)
(-2.72285e-05 -2.58077e-05 -0.00103429)
(-2.7255e-05 5.1449e-05 -0.000943075)
(5.00259e-05 -2.5833e-05 -0.000941842)
(4.99784e-05 5.13983e-05 -0.00108078)
(-2.30827e-05 -2.16168e-05 -0.00102843)
(-2.31022e-05 4.50902e-05 -0.000950602)
(4.36224e-05 -2.16352e-05 -0.000950041)
(4.35868e-05 4.50521e-05 -0.00107093)
(-1.95466e-05 -1.80656e-05 -0.00102348)
(-1.95608e-05 3.95329e-05 -0.000957121)
(3.80504e-05 -1.8079e-05 -0.000957095)
(3.80238e-05 3.95043e-05 -0.00106231)
(-1.6532e-05 -1.50597e-05 -0.00101932)
(-1.65423e-05 3.4674e-05 -0.000962769)
(3.32005e-05 -1.50695e-05 -0.00096316)
(3.31805e-05 3.46524e-05 -0.00105475)
(-1.39635e-05 -1.25184e-05 -0.00101583)
(-1.39711e-05 3.04238e-05 -0.000967664)
(2.89778e-05 -1.25255e-05 -0.000968376)
(2.89628e-05 3.04076e-05 -0.00104814)
(-1.17768e-05 -1.03727e-05 -0.0010129)
(-1.17823e-05 2.67047e-05 -0.000971907)
(2.53e-05 -1.03779e-05 -0.00097286)
(2.52888e-05 2.66925e-05 -0.00104234)
(-9.9163e-06 -8.56378e-06 -0.00101045)
(-9.92031e-06 2.3449e-05 -0.000975588)
(2.20959e-05 -8.56753e-06 -0.000976715)
(2.20875e-05 2.34398e-05 -0.00103725)
(-8.33474e-06 -7.04113e-06 -0.0010084)
(-8.33765e-06 2.05977e-05 -0.00097878)
(1.93037e-05 -7.04386e-06 -0.00098003)
(1.92974e-05 2.05908e-05 -0.00103279)
(-6.99149e-06 -5.7618e-06 -0.0010067)
(-6.9936e-06 1.80997e-05 -0.000981551)
(1.68697e-05 -5.76377e-06 -0.000982878)
(1.68649e-05 1.80945e-05 -0.00102887)
(-5.85176e-06 -4.68903e-06 -0.00100528)
(-5.85329e-06 1.59104e-05 -0.000983955)
(1.47474e-05 -4.69046e-06 -0.000985326)
(1.47438e-05 1.59064e-05 -0.00102544)
(-4.8858e-06 -3.7915e-06 -0.00100411)
(-4.88691e-06 1.39908e-05 -0.000986044)
(1.28963e-05 -3.79254e-06 -0.00098743)
(1.28936e-05 1.39878e-05 -0.00102242)
(-4.06813e-06 -3.0425e-06 -0.00100314)
(-4.06893e-06 1.23072e-05 -0.000987858)
(1.12814e-05 -3.04325e-06 -0.000989237)
(1.12794e-05 1.23049e-05 -0.00101976)
(-3.37696e-06 -2.41925e-06 -0.00100234)
(-3.37754e-06 1.083e-05 -0.000989434)
(9.87213e-06 -2.41979e-06 -0.00099079)
(9.87063e-06 1.08283e-05 -0.00101743)
(-2.79363e-06 -1.90234e-06 -0.00100169)
(-2.79405e-06 9.53339e-06 -0.000990805)
(8.642e-06 -1.90273e-06 -0.000992123)
(8.64087e-06 9.53211e-06 -0.00101538)
(-2.30223e-06 -1.47526e-06 -0.00100116)
(-2.30253e-06 8.395e-06 -0.000991997)
(7.56795e-06 -1.47554e-06 -0.000993267)
(7.5671e-06 8.39404e-06 -0.00101357)
(-1.88913e-06 -1.12393e-06 -0.00100073)
(-1.88934e-06 7.39519e-06 -0.000993034)
(6.62994e-06 -1.12413e-06 -0.000994249)
(6.6293e-06 7.39446e-06 -0.00101198)
(-1.54261e-06 -8.36331e-07 -0.00100039)
(-1.54277e-06 6.51681e-06 -0.000993935)
(5.81048e-06 -8.36475e-07 -0.000995091)
(5.81e-06 6.51626e-06 -0.00101058)
(-1.25249e-06 -6.02046e-07 -0.00100012)
(-1.25261e-06 5.74481e-06 -0.000994719)
(5.09433e-06 -6.0215e-07 -0.00099581)
(5.09396e-06 5.74439e-06 -0.00100935)
(-1.01001e-06 -4.1214e-07 -0.000999908)
(-1.01009e-06 5.06604e-06 -0.000995399)
(4.46815e-06 -4.12214e-07 -0.000996424)
(4.46788e-06 5.06573e-06 -0.00100827)
(-8.07692e-07 -2.59049e-07 -0.00099975)
(-8.07749e-07 4.46902e-06 -0.000995991)
(3.92035e-06 -2.59101e-07 -0.000996948)
(3.92015e-06 4.46878e-06 -0.00100731)
(-6.39264e-07 -1.3649e-07 -0.00099963)
(-6.39305e-07 3.94368e-06 -0.000996506)
(3.44089e-06 -1.36527e-07 -0.000997398)
(3.44073e-06 3.9435e-06 -0.00100647)
(-4.99604e-07 -3.96199e-08 -0.000999541)
(-4.99632e-07 3.48125e-06 -0.000996954)
(3.02125e-06 -3.9647e-08 -0.000997784)
(3.02113e-06 3.48111e-06 -0.00100572)
(-3.84197e-07 3.59747e-08 -0.000999478)
(-3.84217e-07 3.07403e-06 -0.000997343)
(2.65384e-06 3.59554e-08 -0.000998114)
(2.65376e-06 3.07392e-06 -0.00100507)
(-2.89164e-07 9.41122e-08 -0.000999438)
(-2.89179e-07 2.7153e-06 -0.000997682)
(2.33201e-06 9.40984e-08 -0.000998396)
(2.33194e-06 2.71522e-06 -0.00100449)
(-2.1125e-07 1.37947e-07 -0.000999414)
(-2.1126e-07 2.39917e-06 -0.000997978)
(2.04997e-06 1.37937e-07 -0.000998636)
(2.04992e-06 2.39911e-06 -0.00100397)
(-1.47717e-07 1.70101e-07 -0.000999403)
(-1.47724e-07 2.12051e-06 -0.000998235)
(1.80268e-06 1.70094e-07 -0.00099884)
(1.80265e-06 2.12046e-06 -0.00100352)
(-9.627e-08 1.92741e-07 -0.000999403)
(-9.62752e-08 1.8748e-06 -0.000998461)
(1.58578e-06 1.92736e-07 -0.000999015)
(1.58576e-06 1.87476e-06 -0.00100312)
(-5.50238e-08 2.07641e-07 -0.00099941)
(-5.50275e-08 1.65813e-06 -0.000998657)
(1.39546e-06 2.07637e-07 -0.000999164)
(1.39544e-06 1.6581e-06 -0.00100277)
(-2.23086e-08 2.16301e-07 -0.000999423)
(-2.23113e-08 1.46701e-06 -0.000998829)
(1.2284e-06 2.16298e-07 -0.00099929)
(1.22839e-06 1.46699e-06 -0.00100245)
(3.31395e-09 2.19991e-07 -0.00099944)
(3.31205e-09 1.29839e-06 -0.000998978)
(1.08171e-06 2.19989e-07 -0.000999399)
(1.0817e-06 1.29837e-06 -0.00100218)
(2.30981e-08 2.19786e-07 -0.000999462)
(2.30967e-08 1.14954e-06 -0.000999107)
(9.52851e-07 2.19784e-07 -0.000999491)
(9.52842e-07 1.14953e-06 -0.00100193)
(3.81049e-08 2.16579e-07 -0.000999487)
(3.81039e-08 1.0181e-06 -0.00099922)
(8.39621e-07 2.16578e-07 -0.000999569)
(8.39614e-07 1.01809e-06 -0.00100171)
(4.921e-08 2.11096e-07 -0.000999513)
(4.92093e-08 9.01973e-07 -0.000999317)
(7.40086e-07 2.11095e-07 -0.000999636)
(7.40081e-07 9.01966e-07 -0.00100152)
(5.7142e-08 2.0393e-07 -0.00099954)
(5.71415e-08 7.9935e-07 -0.000999403)
(6.5256e-07 2.0393e-07 -0.000999692)
(6.52556e-07 7.99344e-07 -0.00100135)
(6.25073e-08 1.95562e-07 -0.000999567)
(6.2507e-08 7.08625e-07 -0.000999477)
(5.7557e-07 1.95561e-07 -0.00099974)
(5.75567e-07 7.08621e-07 -0.0010012)
(6.58095e-08 1.86379e-07 -0.000999594)
(6.58092e-08 6.28395e-07 -0.000999542)
(5.07826e-07 1.86378e-07 -0.000999781)
(5.07823e-07 6.28392e-07 -0.00100106)
(6.74676e-08 1.76693e-07 -0.000999621)
(6.74675e-08 5.57425e-07 -0.000999599)
(4.48199e-07 1.76693e-07 -0.000999816)
(4.48197e-07 5.57423e-07 -0.00100095)
(6.78288e-08 1.66753e-07 -0.000999647)
(6.78286e-08 4.94628e-07 -0.000999648)
(3.95703e-07 1.66753e-07 -0.000999845)
(3.95702e-07 4.94626e-07 -0.00100084)
(6.71793e-08 1.56755e-07 -0.000999672)
(6.71792e-08 4.39049e-07 -0.000999691)
(3.49473e-07 1.56755e-07 -0.00099987)
(3.49472e-07 4.39048e-07 -0.00100075)
(6.57553e-08 1.46851e-07 -0.000999696)
(6.57552e-08 3.89849e-07 -0.000999729)
(3.08752e-07 1.46851e-07 -0.000999892)
(3.08751e-07 3.89847e-07 -0.00100066)
(6.37503e-08 1.37159e-07 -0.000999719)
(6.37503e-08 3.46285e-07 -0.000999763)
(2.72876e-07 1.37159e-07 -0.00099991)
(2.72876e-07 3.46284e-07 -0.00100059)
(6.13228e-08 1.27766e-07 -0.000999741)
(6.13227e-08 3.07707e-07 -0.000999792)
(2.41263e-07 1.27766e-07 -0.000999925)
(2.41263e-07 3.07707e-07 -0.00100052)
(5.86015e-08 1.18738e-07 -0.000999761)
(5.86015e-08 2.73541e-07 -0.000999817)
(2.13404e-07 1.18738e-07 -0.000999938)
(2.13403e-07 2.7354e-07 -0.00100047)
(5.56906e-08 1.10119e-07 -0.000999781)
(5.56906e-08 2.43278e-07 -0.000999839)
(1.88849e-07 1.10119e-07 -0.000999949)
(1.88849e-07 2.43278e-07 -0.00100041)
(5.26738e-08 1.0194e-07 -0.000999799)
(5.26738e-08 2.16474e-07 -0.000999859)
(1.67208e-07 1.0194e-07 -0.000999958)
(1.67208e-07 2.16474e-07 -0.00100037)
(4.96177e-08 9.42182e-08 -0.000999816)
(4.96177e-08 1.92734e-07 -0.000999876)
(1.48134e-07 9.42182e-08 -0.000999965)
(1.48134e-07 1.92734e-07 -0.00100033)
(4.65748e-08 8.69611e-08 -0.000999831)
(4.65748e-08 1.71711e-07 -0.000999891)
(1.31325e-07 8.69611e-08 -0.000999972)
(1.31325e-07 1.71711e-07 -0.00100029)
(4.35859e-08 8.01691e-08 -0.000999846)
(4.35859e-08 1.53099e-07 -0.000999905)
(1.16516e-07 8.01691e-08 -0.000999977)
(1.16515e-07 1.53099e-07 -0.00100026)
(4.06825e-08 7.38369e-08 -0.00099986)
(4.06825e-08 1.36626e-07 -0.000999916)
(1.03472e-07 7.38369e-08 -0.000999982)
(1.03472e-07 1.36626e-07 -0.00100023)
(3.78885e-08 6.79547e-08 -0.000999872)
(3.78885e-08 1.22055e-07 -0.000999927)
(9.19889e-08 6.79547e-08 -0.000999986)
(9.19888e-08 1.22055e-07 -0.0010002)
(3.52215e-08 6.25096e-08 -0.000999884)
(3.52215e-08 1.09174e-07 -0.000999936)
(8.18861e-08 6.25096e-08 -0.000999989)
(8.18861e-08 1.09174e-07 -0.00100018)
(3.26941e-08 5.74869e-08 -0.000999895)
(3.26941e-08 9.77981e-08 -0.000999944)
(7.30053e-08 5.74869e-08 -0.000999991)
(7.30052e-08 9.7798e-08 -0.00100016)
(3.03152e-08 5.28705e-08 -0.000999905)
(3.03152e-08 8.77622e-08 -0.000999951)
(6.52069e-08 5.28704e-08 -0.000999993)
(6.52069e-08 8.77622e-08 -0.00100014)
(2.80905e-08 4.86437e-08 -0.000999914)
(2.80905e-08 7.8922e-08 -0.000999957)
(5.83688e-08 4.86436e-08 -0.000999995)
(5.83687e-08 7.89219e-08 -0.00100012)
(2.60235e-08 4.47899e-08 -0.000999923)
(2.60235e-08 7.11495e-08 -0.000999963)
(5.23831e-08 4.47898e-08 -0.000999996)
(5.23831e-08 7.11495e-08 -0.00100011)
(2.41159e-08 4.12928e-08 -0.000999931)
(2.41159e-08 6.43325e-08 -0.000999967)
(4.71556e-08 4.12928e-08 -0.000999997)
(4.71556e-08 6.43325e-08 -0.0010001)
(2.23685e-08 3.81369e-08 -0.000999938)
(2.23685e-08 5.83718e-08 -0.000999972)
(4.26034e-08 3.81369e-08 -0.000999998)
(4.26035e-08 5.83718e-08 -0.00100008)
(2.07808e-08 3.53074e-08 -0.000999945)
(2.07808e-08 5.31807e-08 -0.000999976)
(3.8654e-08 3.53074e-08 -0.000999999)
(3.8654e-08 5.31807e-08 -0.00100007)
(1.9352e-08 3.2791e-08 -0.000999952)
(1.9352e-08 4.86831e-08 -0.000999979)
(3.52441e-08 3.2791e-08 -0.000999999)
(3.52441e-08 4.86831e-08 -0.00100006)
(1.80809e-08 3.05751e-08 -0.000999958)
(1.80809e-08 4.48129e-08 -0.000999982)
(3.23187e-08 3.05751e-08 -0.001)
(3.23187e-08 4.48129e-08 -0.00100005)
(1.6966e-08 2.86486e-08 -0.000999964)
(1.6966e-08 4.15128e-08 -0.000999985)
(2.98303e-08 2.86486e-08 -0.001)
(2.98303e-08 4.15128e-08 -0.00100005)
(1.60054e-08 2.70012e-08 -0.00099997)
(1.60054e-08 3.87344e-08 -0.000999987)
(2.77387e-08 2.70012e-08 -0.001)
(2.77387e-08 3.87344e-08 -0.00100004)
(1.51963e-08 2.56229e-08 -0.000999975)
(1.51963e-08 3.64374e-08 -0.00099999)
(2.60108e-08 2.56229e-08 -0.001)
(2.60108e-08 3.64373e-08 -0.00100003)
(1.45349e-08 2.45034e-08 -0.00099998)
(1.45349e-08 3.4588e-08 -0.000999992)
(2.46196e-08 2.45034e-08 -0.001)
(2.46196e-08 3.4588e-08 -0.00100002)
(1.40132e-08 2.36265e-08 -0.000999985)
(1.40131e-08 3.31608e-08 -0.000999994)
(2.35474e-08 2.36265e-08 -0.001)
(2.35474e-08 3.31608e-08 -0.00100002)
(1.36133e-08 2.2966e-08 -0.00099999)
(1.36132e-08 3.21487e-08 -0.000999996)
(2.2796e-08 2.2966e-08 -0.001)
(2.2796e-08 3.21487e-08 -0.00100001)
(1.31053e-08 2.23044e-08 -0.000999995)
(1.31053e-08 3.18227e-08 -0.000999998)
(2.26236e-08 2.23044e-08 -0.001)
(2.26236e-08 3.18227e-08 -0.00100001)
)
;

boundaryField
{
    inlet
    {
        type            zeroGradient;
    }
    outlet
    {
        type            zeroGradient;
    }
    repeat_boundary
    {
        type            slip;
    }
}


// ************************************************************************* //
