/*--------------------------------*- C++ -*----------------------------------*\
| =========                 |                                                 |
| \\      /  F ield         | OpenFOAM: The Open Source CFD Toolbox           |
|  \\    /   O peration     | Version:  5.x                                   |
|   \\  /    A nd           | Web:      www.OpenFOAM.org                      |
|    \\/     M anipulation  |                                                 |
\*---------------------------------------------------------------------------*/
FoamFile
{
    version     2.0;
    format      ascii;
    class       volVectorField;
    location    "700";
    object      Us;
}
// * * * * * * * * * * * * * * * * * * * * * * * * * * * * * * * * * * * * * //

dimensions      [0 1 -1 0 0 0 0];

internalField   nonuniform List<vector> 
90
(
(0 0 0)
(0 0 0)
(0 0 0)
(0 0 0)
(0 0 0)
(0 0 0)
(0 0 0)
(0 0 0)
(0 0 0)
(0 0 0)
(0 0 0)
(0 0 0)
(0 0 0)
(0 0 0)
(0 0 0)
(0 0 0)
(0 0 0)
(0 0 0)
(0 0 0)
(0 0 0)
(0 0 0)
(0 0 0)
(0 0 0)
(0 0 0)
(0 0 0)
(0 0 0)
(0 0 0)
(0 0 0)
(0 0 0)
(0 0 0)
(0 0 0)
(0 0 0)
(0 0 0)
(0 0 0)
(0 0 0)
(0 0 0)
(0 0 0)
(0 0 0)
(0 0 0)
(0 0 0)
(3.76966e-06 3.56954e-06 6.90954e-08)
(8.34866e-06 7.63165e-06 2.81439e-07)
(1.17575e-05 1.09125e-05 5.10307e-07)
(1.6725e-05 1.52119e-05 -1.78431e-07)
(2.18678e-05 1.90048e-05 -3.59369e-07)
(2.63962e-05 2.33181e-05 -2.18081e-07)
(3.22972e-05 2.77318e-05 9.98447e-07)
(3.69851e-05 3.14932e-05 4.29947e-07)
(4.08973e-05 3.50386e-05 -2.59617e-07)
(4.36442e-05 3.78498e-05 -2.31434e-07)
(4.64396e-05 4.10124e-05 4.00073e-07)
(4.78804e-05 4.38499e-05 1.44175e-06)
(4.9078e-05 4.53865e-05 8.4467e-07)
(0 0 0)
(0 0 0)
(0 0 0)
(0 0 0)
(0 0 0)
(0 0 0)
(0 0 0)
(0 0 0)
(0 0 0)
(0 0 0)
(0 0 0)
(0 0 0)
(0 0 0)
(0 0 0)
(0 0 0)
(0 0 0)
(0 0 0)
(0 0 0)
(0 0 0)
(0 0 0)
(0 0 0)
(0 0 0)
(0 0 0)
(0 0 0)
(0 0 0)
(0 0 0)
(0 0 0)
(0 0 0)
(0 0 0)
(0 0 0)
(0 0 0)
(0 0 0)
(0 0 0)
(0 0 0)
(0 0 0)
(0 0 0)
(0 0 0)
)
;

boundaryField
{
    inlet
    {
        type            fixedValue;
        value           uniform (0 0 0);
    }
    outlet
    {
        type            fixedValue;
        value           uniform (0 0 0);
    }
    repeat_boundary
    {
        type            fixedValue;
        value           uniform (0 0 0);
    }
    procBoundary1to0
    {
        type            processor;
        value           nonuniform List<vector> 
90
(
(0 0 0)
(0 0 0)
(0 0 0)
(0 0 0)
(0 0 0)
(0 0 0)
(0 0 0)
(0 0 0)
(0 0 0)
(0 0 0)
(0 0 0)
(0 0 0)
(0 0 0)
(0 0 0)
(0 0 0)
(0 0 0)
(0 0 0)
(0 0 0)
(0 0 0)
(0 0 0)
(0 0 0)
(0 0 0)
(0 0 0)
(0 0 0)
(0 0 0)
(0 0 0)
(0 0 0)
(0 0 0)
(0 0 0)
(0 0 0)
(0 0 0)
(0 0 0)
(0 0 0)
(0 0 0)
(0 0 0)
(0 0 0)
(0 0 0)
(0 0 0)
(0 0 0)
(0 0 0)
(4.58288e-06 3.53766e-06 -2.85334e-08)
(8.70556e-06 7.53034e-06 -2.68316e-07)
(1.38241e-05 1.17168e-05 -1.66067e-07)
(1.75551e-05 1.52905e-05 -8.03754e-08)
(2.16199e-05 1.86465e-05 5.06566e-07)
(2.68787e-05 2.26722e-05 6.94492e-07)
(3.11614e-05 2.67691e-05 8.23426e-07)
(3.54951e-05 3.04569e-05 6.19749e-07)
(4.02277e-05 3.41711e-05 6.50785e-07)
(4.48766e-05 3.80984e-05 5.60485e-07)
(4.859e-05 4.11563e-05 7.79236e-07)
(4.9337e-05 4.54453e-05 5.69773e-07)
(3.85618e-05 9.71753e-05 -2.33529e-05)
(-6.56887e-05 0.000627967 -0.000286553)
(0 0 0)
(0 0 0)
(0 0 0)
(0 0 0)
(0 0 0)
(0 0 0)
(0 0 0)
(0 0 0)
(0 0 0)
(0 0 0)
(0 0 0)
(0 0 0)
(0 0 0)
(0 0 0)
(0 0 0)
(0 0 0)
(0 0 0)
(0 0 0)
(0 0 0)
(0 0 0)
(0 0 0)
(0 0 0)
(0 0 0)
(0 0 0)
(0 0 0)
(0 0 0)
(0 0 0)
(0 0 0)
(0 0 0)
(0 0 0)
(0 0 0)
(0 0 0)
(0 0 0)
(0 0 0)
(0 0 0)
(0 0 0)
)
;
    }
    procBoundary1to3
    {
        type            processor;
        value           nonuniform List<vector> 
90
(
(0 0 0)
(0 0 0)
(0 0 0)
(0 0 0)
(0 0 0)
(0 0 0)
(0 0 0)
(0 0 0)
(0 0 0)
(0 0 0)
(0 0 0)
(0 0 0)
(0 0 0)
(0 0 0)
(0 0 0)
(0 0 0)
(0 0 0)
(0 0 0)
(0 0 0)
(0 0 0)
(0 0 0)
(0 0 0)
(0 0 0)
(0 0 0)
(0 0 0)
(0 0 0)
(0 0 0)
(0 0 0)
(0 0 0)
(0 0 0)
(0 0 0)
(0 0 0)
(0 0 0)
(0 0 0)
(0 0 0)
(0 0 0)
(0 0 0)
(0 0 0)
(0 0 0)
(0 0 0)
(5.0075e-06 5.13214e-06 1.76346e-08)
(9.79122e-06 8.94572e-06 -3.58298e-07)
(1.34923e-05 1.16889e-05 -4.50395e-07)
(1.8252e-05 1.47475e-05 -9.29317e-08)
(2.42548e-05 1.85295e-05 -1.32046e-07)
(2.73434e-05 2.31574e-05 2.11858e-07)
(3.19861e-05 2.71008e-05 1.04592e-07)
(3.62713e-05 3.08025e-05 9.81319e-07)
(4.07415e-05 3.44533e-05 1.22734e-06)
(4.30242e-05 3.72152e-05 1.76527e-06)
(4.56457e-05 4.06231e-05 2.1126e-06)
(4.83423e-05 4.08977e-05 1.4379e-06)
(1.06582e-05 4.54043e-07 -1.02858e-05)
(5.41036e-06 -1.24126e-05 -8.56992e-06)
(0 0 0)
(0 0 0)
(0 0 0)
(0 0 0)
(0 0 0)
(0 0 0)
(0 0 0)
(0 0 0)
(0 0 0)
(0 0 0)
(0 0 0)
(0 0 0)
(0 0 0)
(0 0 0)
(0 0 0)
(0 0 0)
(0 0 0)
(0 0 0)
(0 0 0)
(0 0 0)
(0 0 0)
(0 0 0)
(0 0 0)
(0 0 0)
(0 0 0)
(0 0 0)
(0 0 0)
(0 0 0)
(0 0 0)
(0 0 0)
(0 0 0)
(0 0 0)
(0 0 0)
(0 0 0)
(0 0 0)
(0 0 0)
)
;
    }
}


// ************************************************************************* //
