FoamFile
{version 2.0; format ascii;class Cloud<passiveParticle>; location 0;object  positions;}
350
(
( -0.00130858 0.00382181 0.000498779 ) 0 
( -0.00251699 0.00288583 0.000496323 ) 0 
( -0.00457708 0.00300421 0.000497434 ) 0 
( -0.00151956 0.00284642 0.000498534 ) 0 
( -0.00172214 0.00134375 0.000498408 ) 0 
( -0.00147539 0.0048056 0.000497653 ) 0 
( -2.35282e-05 0.00170766 0.000496974 ) 0 
( -0.00230747 0.00389639 0.000497726 ) 0 
( -0.000536018 0.00302019 0.000498074 ) 0 
( -0.00247385 0.000632495 0.000498409 ) 0 
( -0.0048793 0.00395799 0.000496848 ) 0 
( -0.000760358 0.00103341 0.000497722 ) 0 
( -0.00416517 0.00020845 0.000498075 ) 0 
( -0.000325087 0.00399633 0.000497745 ) 0 
( -0.00271329 0.00171366 0.000497879 ) 0 
( -0.000527116 6.13363e-05 0.000499149 ) 0 
( -0.00414392 0.00463526 0.000499675 ) 0 
( -0.00384145 0.0036797 0.000499124 ) 0 
( -0.00315819 0.00438269 0.000690258 ) 0 
( -0.00489209 0.0023675 0.00119878 ) 0 
( -0.00149815 0.000346556 0.00049923 ) 0 
( -0.00424262 0.0020631 0.000498812 ) 0 
( -0.00439902 0.00112737 0.000809654 ) 0 
( -0.00344901 0.000904685 0.000498065 ) 0 
( -0.00204204 0.00331307 0.00126173 ) 0 
( -0.00350523 0.00273767 0.000499512 ) 0 
( -0.00180834 0.0042837 0.00128106 ) 0 
( -0.00097573 0.00200879 0.00049873 ) 0 
( -0.00416799 0.00177052 0.00153721 ) 0 
( -0.00132983 0.000909068 0.00130771 ) 0 
( -0.00306342 0.00347184 0.00109051 ) 0 
( -0.0022887 0.00118949 0.00130637 ) 0 
( -0.00302963 0.00048715 0.00131546 ) 0 
( -0.00110805 0.00247418 0.00137302 ) 0 
( -6.56552e-05 0.00244709 0.00116527 ) 0 
( -0.00198872 0.00214561 0.00103213 ) 0 
( -7.17396e-05 0.00350924 0.001332 ) 0 
( -0.000820445 0.00443164 0.00124597 ) 0 
( -0.00324919 0.00146158 0.00130095 ) 0 
( -0.00292345 0.00240493 0.00126973 ) 0 
( -0.0010667 0.00347223 0.00140247 ) 0 
( -0.00206776 0.000215674 0.00131097 ) 0 
( -0.00478394 0.000317222 0.00127579 ) 0 
( -0.00161901 0.00169873 0.00184433 ) 0 
( -0.00483437 0.00453731 0.00211289 ) 0 
( -0.00131015 0.00453683 0.00210843 ) 0 
( -0.000307431 0.0028512 0.00204472 ) 0 
( -0.00399187 0.00307832 0.0013035 ) 0 
( -0.0026426 0.00178605 0.00202471 ) 0 
( -0.000582348 0.00159259 0.00131797 ) 0 
( -0.00394216 0.000759701 0.00161841 ) 0 
( -0.000357134 0.000618662 0.00131121 ) 0 
( -0.00339434 0.000135841 0.00217552 ) 0 
( -0.00437967 0.00408149 0.00134977 ) 0 
( -7.89835e-05 0.00432476 0.00190753 ) 0 
( -0.00363065 0.00472438 0.00150125 ) 0 
( -0.00473065 0.00349549 0.0020775 ) 0 
( -0.00354511 0.00142203 0.00225313 ) 0 
( -0.00269929 0.0033508 0.0020133 ) 0 
( -0.000743165 0.00197367 0.00223604 ) 0 
( -0.000896726 0.000595298 0.00215063 ) 0 
( -0.00356827 0.00239698 0.00203048 ) 0 
( -0.00205531 0.00259046 0.00194875 ) 0 
( -0.00275042 0.00426501 0.00161263 ) 0 
( -6.66799e-05 0.00123916 0.00220881 ) 0 
( -0.0016794 0.00103572 0.00258818 ) 0 
( -0.00175743 9.80843e-05 0.00225181 ) 0 
( -0.00439636 0.000299822 0.00238047 ) 0 
( -0.0045556 0.00251216 0.00212737 ) 0 
( -0.00253522 0.000718471 0.00215297 ) 0 
( -0.00358719 0.00378765 0.00187868 ) 0 
( -0.00122297 0.00283515 0.00244331 ) 0 
( -0.00174259 0.00363819 0.00215581 ) 0 
( -0.0036757 0.000710847 0.00294132 ) 0 
( -0.00456194 0.00128294 0.00231321 ) 0 
( -0.00222442 0.00444376 0.00249967 ) 0 
( -0.00278749 0.00256789 0.00262842 ) 0 
( -0.000709727 0.00468213 0.00289293 ) 0 
( -0.000747043 0.00370599 0.00232031 ) 0 
( -0.00393092 0.00315416 0.00256992 ) 0 
( -0.000755891 0.00120356 0.00293041 ) 0 
( -0.00304557 0.0049658 0.00227381 ) 0 
( -0.00194284 0.000301009 0.00321105 ) 0 
( -0.0025627 0.00135838 0.00292382 ) 0 
( -0.00389317 0.0044897 0.00251975 ) 0 
( -3.86827e-05 0.00191735 0.00294208 ) 0 
( -0.00317807 0.00201212 0.00336068 ) 0 
( -0.0049737 0.00092973 0.00315058 ) 0 
( -0.00147172 0.00404948 0.00302438 ) 0 
( -0.000431517 0.00305088 0.00301462 ) 0 
( -0.00403293 0.00205961 0.0028474 ) 0 
( -0.000128483 0.000410111 0.00276155 ) 0 
( -0.00285369 0.000594329 0.00349826 ) 0 
( -0.00307015 0.00395879 0.002714 ) 0 
( -0.00229307 0.00337478 0.00294555 ) 0 
( -0.00492383 0.00299668 0.00291951 ) 0 
( -0.0046743 6.2806e-05 0.00354567 ) 0 
( -0.00429131 0.00385663 0.00318016 ) 0 
( -0.00229167 0.00253983 0.00349502 ) 0 
( -0.00154695 0.00143965 0.00349274 ) 0 
( -0.00185096 0.00483201 0.00351803 ) 0 
( -0.00143053 0.00311591 0.00337999 ) 0 
( -0.00109377 0.000578422 0.00371497 ) 0 
( -0.00377675 0.00491977 0.00349006 ) 0 
( -0.00282377 0.00463257 0.00340692 ) 0 
( -0.000960213 0.00221948 0.00318399 ) 0 
( -0.00184529 0.00204063 0.00275446 ) 0 
( -0.00324108 0.00316317 0.00329213 ) 0 
( -0.0037316 0.000242126 0.00382088 ) 0 
( -0.000155758 0.00246022 0.00377259 ) 0 
( -0.000114972 0.000700346 0.00386949 ) 0 
( -0.00482188 0.00445467 0.00377772 ) 0 
( -0.00305918 0.00264433 0.00412489 ) 0 
( -0.00415602 0.00134968 0.00353925 ) 0 
( -0.00243576 0.00162767 0.00390658 ) 0 
( -0.00160503 0.001403 0.00448876 ) 0 
( -0.00395391 0.00223829 0.00394703 ) 0 
( -0.00333496 0.00123425 0.00409469 ) 0 
( -0.00221301 0.00393245 0.00376878 ) 0 
( -0.000690822 0.00381652 0.00360077 ) 0 
( -0.000623543 0.00155986 0.00385388 ) 0 
( -0.00209369 0.000598017 0.00415288 ) 0 
( -0.000917601 0.00475285 0.00386639 ) 0 
( -0.00445388 0.00308771 0.003795 ) 0 
( -0.00492729 0.00112094 0.00413098 ) 0 
( -0.001488 0.00228219 0.00402969 ) 0 
( -0.00350173 0.00399883 0.00377486 ) 0 
( -0.00483997 0.00214178 0.00342878 ) 0 
( -0.00201154 0.00309681 0.00427559 ) 0 
( -0.0033784 0.00195989 0.00477832 ) 0 
( -0.00405638 0.0046004 0.00440321 ) 0 
( -0.000442099 0.00415365 0.00450715 ) 0 
( -0.000852354 0.00303394 0.00420073 ) 0 
( -0.00300782 0.000379469 0.00449498 ) 0 
( -0.00494236 0.00243904 0.00437625 ) 0 
( -0.00207616 0.00462913 0.00447082 ) 0 
( -0.00434262 0.00170963 0.00469947 ) 0 
( -0.00253088 0.0012111 0.00480946 ) 0 
( -0.00306682 0.00473514 0.00436913 ) 0 
( -0.00287416 0.00357857 0.00442959 ) 0 
( -0.00412538 0.000741463 0.00459063 ) 0 
( -0.00482315 0.00372965 0.00446286 ) 0 
( -0.00138239 0.0038716 0.00431859 ) 0 
( -0.000761038 0.000882813 0.00460724 ) 0 
( -3.89988e-05 0.0027784 0.00472062 ) 0 
( -0.00194502 0.00364093 0.00511124 ) 0 
( -0.00323432 0.00290353 0.00507275 ) 0 
( -0.00420292 0.00264674 0.00501646 ) 0 
( -0.00342514 0.00106264 0.00522742 ) 0 
( -0.00120806 0.00456557 0.00501381 ) 0 
( -0.00233582 0.0022455 0.00468553 ) 0 
( -0.00386656 0.00344844 0.00452396 ) 0 
( -0.00146894 0.0026903 0.0050083 ) 0 
( -0.00371054 2.8727e-05 0.00515433 ) 0 
( -0.00466533 0.000142275 0.00542573 ) 0 
( -0.000745703 0.00207144 0.00470356 ) 0 
( -0.00444422 0.00420371 0.00525511 ) 0 
( -0.000897459 0.0035036 0.00511108 ) 0 
( -0.00393104 0.000411325 0.00604887 ) 0 
( -0.00387467 0.00194183 0.00564521 ) 0 
( -0.000657377 0.0042164 0.00576995 ) 0 
( -0.00141458 4.00635e-05 0.00587597 ) 0 
( -0.00165283 0.00425254 0.00585191 ) 0 
( -0.00249977 0.00443542 0.0053542 ) 0 
( -0.00222029 0.00026384 0.00509634 ) 0 
( -0.000627477 0.00140363 0.00545002 ) 0 
( -0.00233906 0.00281279 0.00550764 ) 0 
( -0.00176752 0.00181477 0.00538394 ) 0 
( -0.00345913 0.00416477 0.0050897 ) 0 
( -0.00438831 0.00109913 0.00548726 ) 0 
( -0.00337854 0.0027196 0.00604348 ) 0 
( -0.00392056 0.00342023 0.0055831 ) 0 
( -0.000572504 0.000393635 0.0054579 ) 0 
( -0.00291663 0.00360185 0.00571232 ) 0 
( -0.00259292 0.000911999 0.00576042 ) 0 
( -0.00489164 0.00328735 0.00535529 ) 0 
( -0.00146555 0.00319635 0.00587124 ) 0 
( -0.00224682 0.00345214 0.0064386 ) 0 
( -0.00274892 0.00190066 0.0055507 ) 0 
( -0.00443684 0.00268122 0.00601345 ) 0 
( -0.00112184 0.00200212 0.00612188 ) 0 
( -0.0010556 0.000949247 0.00623026 ) 0 
( -0.000623938 0.00264343 0.00553943 ) 0 
( -0.00145908 0.000867738 0.0053205 ) 0 
( -0.00133414 0.00378326 0.0066743 ) 0 
( -0.00304124 0.0047167 0.00614586 ) 0 
( -0.00491445 0.00395141 0.0060999 ) 0 
( -0.00041045 0.00349969 0.00641983 ) 0 
( -0.00107495 0.00281101 0.00670674 ) 0 
( -0.00195868 0.00248744 0.00637168 ) 0 
( -0.00341802 0.00125396 0.00620875 ) 0 
( -0.000250348 0.00158636 0.00637597 ) 0 
( -0.000543358 0.0045986 0.00668643 ) 0 
( -0.00195824 0.00148712 0.00630764 ) 0 
( -0.00403058 0.00459083 0.00607876 ) 0 
( -0.0030496 0.000368 0.00651557 ) 0 
( -0.000555604 0.0001041 0.00641426 ) 0 
( -0.00231316 0.00439893 0.00675242 ) 0 
( -0.00128015 0.000260466 0.00708402 ) 0 
( -0.00135752 0.0046871 0.00725787 ) 0 
( -0.00382971 0.00205593 0.00664002 ) 0 
( -0.0021034 0.00196551 0.00721027 ) 0 
( -0.00352232 0.00382666 0.00647365 ) 0 
( -0.00204563 0.000508486 0.00649219 ) 0 
( -0.00428925 0.00110085 0.0066751 ) 0 
( -0.00121546 0.00155307 0.00700936 ) 0 
( -0.0028363 0.00204107 0.00653518 ) 0 
( -0.00484698 0.0017174 0.00612234 ) 0 
( -0.00482967 0.00478081 0.00664825 ) 0 
( -0.00475523 0.00224857 0.00696279 ) 0 
( -0.00299573 0.00300194 0.00692192 ) 0 
( -0.00399048 0.00302242 0.00683696 ) 0 
( -0.00353351 0.000847009 0.00727706 ) 0 
( -0.000479972 0.000876718 0.00704381 ) 0 
( -0.000605848 0.0037808 0.00735912 ) 0 
( -0.00158031 0.00379248 0.0076426 ) 0 
( -0.00324567 0.0018106 0.00741668 ) 0 
( -0.00195879 0.00295311 0.00725565 ) 0 
( -0.00439396 0.00392962 0.00695277 ) 0 
( -0.000195861 0.0028854 0.00717702 ) 0 
( -0.000437166 0.00177597 0.00759568 ) 0 
( -0.00445971 0.00471033 0.00757333 ) 0 
( -0.00263939 0.00116065 0.00696082 ) 0 
( -0.0049104 0.000206691 0.00695648 ) 0 
( -0.00272705 0.00261937 0.00780437 ) 0 
( -0.00170349 7.96752e-05 0.00797127 ) 0 
( -0.0044185 0.000657027 0.00770086 ) 0 
( -0.00255889 0.00372837 0.00745156 ) 0 
( -0.00183837 0.000963551 0.00752289 ) 0 
( -0.00218535 0.00453928 0.00791587 ) 0 
( -4.21304e-05 0.000324155 0.00784165 ) 0 
( -0.000450014 0.00475182 0.00767042 ) 0 
( -0.00422003 0.00162043 0.00752508 ) 0 
( -0.00459804 0.00313338 0.00762162 ) 0 
( -0.00355625 0.00367025 0.00745969 ) 0 
( -0.00104678 0.00294916 0.00769577 ) 0 
( -0.00249651 0.00021546 0.0073343 ) 0 
( -0.00327706 0.0045624 0.0071045 ) 0 
( -0.00136414 0.00201938 0.00787976 ) 0 
( -0.000948619 0.000737932 0.00791593 ) 0 
( -0.000163664 0.00117853 0.00834902 ) 0 
( -0.0012401 0.00451878 0.00823847 ) 0 
( -0.00411949 0.00401726 0.00820736 ) 0 
( -0.0012234 0.00352232 0.00853552 ) 0 
( -0.000625626 0.00204105 0.00855179 ) 0 
( -0.00371809 0.001139 0.00824181 ) 0 
( -0.00372197 0.0026423 0.00772046 ) 0 
( -0.0022938 0.00180033 0.00817678 ) 0 
( -0.000376455 0.0030016 0.00843471 ) 0 
( -0.00382082 0.00489812 0.00857171 ) 0 
( -0.00106717 0.000210413 0.00875637 ) 0 
( -0.00312962 0.00337832 0.00831506 ) 0 
( -0.00315308 0.00434801 0.00807263 ) 0 
( -0.00185714 0.00280073 0.00826029 ) 0 
( -0.00278579 0.000967658 0.00792852 ) 0 
( -0.00454318 0.00230416 0.00817728 ) 0 
( -0.000944239 0.00117923 0.00897275 ) 0 
( -0.00329621 0.00203298 0.00838908 ) 0 
( -0.00181614 0.0009929 0.00852164 ) 0 
( -0.00442085 0.00155019 0.00882053 ) 0 
( -0.00405196 0.00308498 0.00856251 ) 0 
( -0.00168765 0.00429698 0.00910403 ) 0 
( -0.00396485 0.000218935 0.00854177 ) 0 
( -0.00249015 0.000256271 0.00856242 ) 0 
( -0.00157423 0.00194575 0.00885367 ) 0 
( -0.00271681 0.00123876 0.00888718 ) 0 
( -0.00220245 0.00371303 0.00847704 ) 0 
( -0.00497423 0.000411994 0.00849436 ) 0 
( -0.000378796 0.00402599 0.00835406 ) 0 
( -0.00324154 0.000441621 0.00919469 ) 0 
( -0.00466538 0.00448011 0.00890533 ) 0 
( -0.00359391 0.00136403 0.00935013 ) 0 
( -0.00282367 0.00334549 0.00928192 ) 0 
( -0.00386576 0.00230758 0.00916287 ) 0 
( -0.0010408 0.0027422 0.00913355 ) 0 
( -0.00463092 0.00290593 0.00939798 ) 0 
( -0.00362838 0.00389716 0.00906814 ) 0 
( -0.00255132 0.00246513 0.00889538 ) 0 
( -0.00186565 0.000382663 0.00933188 ) 0 
( -0.00275271 0.00437253 0.00898805 ) 0 
( -0.000545811 0.00486708 0.00886763 ) 0 
( -0.00069977 0.00390685 0.00929359 ) 0 
( -0.00258058 0.000889018 0.00981321 ) 0 
( -0.002788 0.00186766 0.00966021 ) 0 
( -0.000622834 0.00193321 0.00954491 ) 0 
( -0.00182564 0.00333089 0.00932044 ) 0 
( -0.00370712 0.00313156 0.00970554 ) 0 
( -0.00385907 0.00473748 0.0095574 ) 0 
( -0.00492869 0.00196821 0.00957317 ) 0 
( -0.0017004 0.0013236 0.00962486 ) 0 
( -0.000440841 0.00069511 0.00968758 ) 0 
( -0.000133065 0.00295913 0.00949098 ) 0 
( -0.00420021 0.000572721 0.00944585 ) 0 
( -0.00441321 0.00383901 0.0096836 ) 0 
( -0.00390317 0.00226361 0.010161 ) 0 
( -0.00349402 0.00065885 0.0101476 ) 0 
( -0.00221555 0.00160233 0.0104348 ) 0 
( -0.00128686 0.00194306 0.0102917 ) 0 
( -0.00430666 0.00135473 0.0100591 ) 0 
( -0.0028632 0.00276457 0.0100946 ) 0 
( -0.00136272 0.00384779 0.0100395 ) 0 
( -0.00307109 0.00496112 0.0101302 ) 0 
( -0.00102312 0.00291119 0.0101182 ) 0 
( -0.00192518 0.00239998 0.00967203 ) 0 
( -0.00232693 0.00403275 0.00982566 ) 0 
( -0.0010425 0.0047408 0.0097255 ) 0 
( -0.00332397 0.00400133 0.0100145 ) 0 
( -0.00202927 0.000213654 0.0103033 ) 0 
( -0.00028188 0.00367606 0.0101713 ) 0 
( -0.00266106 0.00374875 0.0107233 ) 0 
( -0.0044758 0.00310894 0.0103638 ) 0 
( -0.00422173 0.00064644 0.0108329 ) 0 
( -0.00326121 0.00156919 0.0104881 ) 0 
( -0.00178843 0.00468046 0.0103914 ) 0 
( -0.000256023 0.00239188 0.0104926 ) 0 
( -0.0013844 0.000200847 0.0111441 ) 0 
( -0.00010836 0.000512165 0.0106446 ) 0 
( -0.00269575 0.00080641 0.0108024 ) 0 
( -0.000441621 0.00141613 0.0103802 ) 0 
( -0.00196925 0.00312197 0.0103622 ) 0 
( -0.000784013 0.00440758 0.0106319 ) 0 
( -0.00413007 0.00431885 0.0105134 ) 0 
( -0.00128387 0.000879104 0.010417 ) 0 
( -0.00239965 0.00294149 0.0112514 ) 0 
( -0.00321999 0.00244319 0.0109714 ) 0 
( -0.000224267 0.0028028 0.0114033 ) 0 
( -0.00250899 0.000182332 0.0115606 ) 0 
( -0.00141638 0.00261346 0.0110216 ) 0 
( -0.00482369 0.00218382 0.0105436 ) 0 
( -0.00173197 0.00390302 0.0110576 ) 0 
( -0.00357475 0.00334463 0.0107252 ) 0 
( -0.000853798 0.00343699 0.010955 ) 0 
( -0.000740786 0.000990244 0.011253 ) 0 
( -0.00269051 0.00166656 0.011312 ) 0 
( -0.00259908 0.00471365 0.010976 ) 0 
( -0.0040856 0.00171952 0.0110327 ) 0 
( -0.00193314 0.00224314 0.0117934 ) 0 
( -0.00498261 0.00127929 0.0110136 ) 0 
( -0.000431785 0.00484195 0.0114604 ) 0 
( -0.000943148 0.002066 0.0117114 ) 0 
( -0.00445651 0.0036644 0.0111949 ) 0 
( -0.00148094 0.00465542 0.011666 ) 0 
( -0.000106424 0.00176312 0.0112557 ) 0 
( -0.000770505 0.00396468 0.0117999 ) 0 
( -0.00347714 0.00101181 0.0113912 ) 0 
( -0.00160028 0.00149872 0.0112154 ) 0 
( -0.00415758 0.00269914 0.0112183 ) 0 
( -0.00350445 0.00197187 0.011806 ) 0 
( -0.000587974 0.000133132 0.0117446 ) 0 
( -0.00176187 0.000766711 0.0118768 ) 0 
)
