FoamFile
{version 2.0; format ascii;class vectorField; location 0;object  v;}
350
(
( 2.50491e-06 9.36717e-07 -8.61163e-06 )  
( 3.23991e-06 1.23052e-06 -1.32078e-05 )  
( 9.48328e-07 -7.1323e-07 -1.2143e-05 )  
( 7.63968e-07 7.80804e-07 -7.83352e-06 )  
( -2.6379e-06 -1.37137e-06 -1.46513e-05 )  
( -2.25062e-08 2.05709e-07 -1.28679e-05 )  
( 1.62509e-07 1.06724e-06 -1.20452e-05 )  
( 2.12848e-06 2.46736e-07 -1.31469e-05 )  
( 2.87319e-06 -6.48405e-07 -9.17936e-06 )  
( -1.20088e-06 5.25849e-08 -1.39144e-05 )  
( -1.07316e-06 6.1733e-07 -1.40547e-05 )  
( -1.68915e-06 8.28048e-07 -1.18769e-05 )  
( -6.0819e-07 -1.35679e-06 -1.23757e-05 )  
( 1.17656e-06 -2.9708e-07 -1.0729e-05 )  
( -1.82441e-06 1.30933e-07 -1.32096e-05 )  
( -1.00742e-06 1.94029e-07 -1.23506e-05 )  
( 7.20448e-07 -1.4243e-06 -6.07178e-06 )  
( 5.43151e-06 -2.07136e-06 -1.2323e-05 )  
( 5.0392e-06 3.81561e-07 -1.78839e-05 )  
( -4.30423e-06 -2.26607e-06 -2.76273e-05 )  
( 2.53116e-07 2.13845e-07 -8.61786e-06 )  
( -5.50578e-06 -5.29089e-06 -1.17571e-05 )  
( -3.00252e-06 -3.86282e-06 -2.02565e-05 )  
( -5.25207e-07 -3.32025e-07 -1.22984e-05 )  
( 3.60524e-06 4.23876e-06 -2.90711e-05 )  
( -5.16118e-07 -7.21572e-06 -5.05343e-06 )  
( 3.65795e-08 3.39409e-07 -2.74564e-05 )  
( -6.0949e-07 -1.13427e-06 -7.06455e-06 )  
( -1.04577e-06 4.40423e-08 -3.54033e-05 )  
( -1.19714e-06 9.4094e-07 -2.33031e-05 )  
( 5.01551e-06 6.79177e-07 -2.57531e-05 )  
( -2.99503e-06 -8.43365e-07 -2.5716e-05 )  
( -2.41704e-06 1.02695e-06 -2.46305e-05 )  
( -4.37777e-06 2.37142e-06 -1.51779e-05 )  
( 2.58327e-06 -1.66942e-06 -2.18517e-05 )  
( -2.56934e-06 1.4438e-06 -1.82422e-05 )  
( 9.81858e-07 -5.92421e-06 -2.44131e-05 )  
( 1.03039e-06 -2.519e-06 -2.21535e-05 )  
( -3.10495e-07 5.43677e-07 -2.84458e-05 )  
( -1.05393e-06 -4.43477e-07 -2.72122e-05 )  
( 2.42345e-06 -2.20801e-08 -2.13878e-05 )  
( -2.61744e-06 2.88024e-06 -2.37947e-05 )  
( 3.26553e-07 -8.84724e-06 -1.05555e-05 )  
( -1.58049e-06 7.92741e-07 -3.78349e-05 )  
( 4.40705e-06 -1.50728e-06 -4.09193e-05 )  
( -4.21327e-06 2.78282e-06 -3.96445e-05 )  
( -5.28874e-07 -5.74599e-06 -3.79689e-05 )  
( -1.86179e-06 3.17178e-06 -1.79352e-05 )  
( -4.26851e-07 5.20255e-06 -4.33386e-05 )  
( -2.12112e-06 -3.80485e-06 -1.1979e-05 )  
( 1.39962e-06 3.16651e-06 -3.56516e-05 )  
( -2.43367e-06 8.25977e-07 -2.08282e-05 )  
( -5.37938e-06 1.34454e-06 -4.02253e-05 )  
( 2.51774e-06 5.86107e-07 -3.30581e-05 )  
( 5.49273e-06 -6.66627e-06 -2.7329e-05 )  
( -5.02663e-08 1.99299e-08 -3.09789e-05 )  
( 1.32535e-06 1.86254e-06 -4.03927e-05 )  
( -2.5527e-06 4.44856e-06 -4.29065e-05 )  
( -9.90964e-07 1.46237e-06 -3.71248e-05 )  
( -3.78964e-06 -2.08143e-06 -4.32187e-05 )  
( -5.38627e-06 7.92329e-08 -3.69111e-05 )  
( -5.81347e-06 2.08613e-06 -4.66075e-05 )  
( 5.5269e-07 4.11035e-06 -4.26074e-05 )  
( 1.25814e-06 6.62146e-07 -2.94104e-05 )  
( -4.41106e-06 -3.33128e-06 -4.04669e-05 )  
( -2.90432e-06 4.42089e-06 -4.66827e-05 )  
( -3.11028e-06 4.85323e-06 -4.31027e-05 )  
( -1.55824e-06 3.27664e-06 -4.35183e-05 )  
( -2.47259e-06 -9.56019e-07 -4.06393e-05 )  
( -1.12067e-06 -3.7683e-07 -2.65577e-05 )  
( 9.44291e-07 3.09275e-06 -4.14506e-05 )  
( -2.22309e-06 -6.13744e-08 -4.545e-05 )  
( -1.40327e-06 9.33373e-07 -4.26728e-05 )  
( -5.2889e-06 1.51867e-06 -5.40133e-05 )  
( -1.20732e-06 1.86271e-06 -4.54492e-05 )  
( -4.23402e-06 -2.30186e-06 -4.50015e-05 )  
( -3.75496e-06 -2.79317e-10 -5.44775e-05 )  
( -2.1585e-06 -1.98673e-08 -5.95316e-05 )  
( 1.15661e-05 -1.2485e-05 -2.09093e-05 )  
( -1.27598e-06 3.65158e-06 -5.06809e-05 )  
( -7.61283e-06 2.36994e-06 -5.35398e-05 )  
( -1.67211e-06 3.05116e-06 -4.06387e-05 )  
( -3.94562e-06 1.31765e-06 -5.63368e-05 )  
( -2.82526e-06 3.08791e-06 -5.26082e-05 )  
( -2.03375e-06 7.60864e-07 -5.0217e-05 )  
( 1.5463e-06 4.30407e-06 -5.22147e-05 )  
( -4.20247e-06 -1.61642e-06 -6.34831e-05 )  
( -4.26475e-06 3.40232e-06 -6.14644e-05 )  
( -6.23143e-07 1.48377e-07 -5.41404e-05 )  
( -1.92211e-07 2.42233e-06 -5.85093e-05 )  
( -1.50463e-06 2.78924e-06 -5.1312e-05 )  
( 5.40901e-07 -6.15781e-06 -5.08279e-05 )  
( -7.08524e-06 6.82386e-07 -5.94402e-05 )  
( -2.95587e-06 2.21179e-06 -5.18388e-05 )  
( -7.296e-06 -8.86951e-07 -5.84024e-05 )  
( 8.58855e-07 2.86492e-06 -5.31189e-05 )  
( -5.06808e-06 3.8321e-06 -6.7193e-05 )  
( -4.36837e-07 7.19764e-07 -5.84532e-05 )  
( -3.28545e-06 -1.37602e-06 -6.41186e-05 )  
( -4.21341e-06 2.19909e-06 -6.452e-05 )  
( 3.35056e-06 8.74769e-07 -6.64073e-05 )  
( -7.50898e-06 1.71436e-06 -4.87924e-05 )  
( -3.65165e-06 -1.02413e-06 -6.84712e-05 )  
( 4.09372e-06 -8.12163e-06 -5.96905e-05 )  
( 4.12307e-06 9.90804e-07 -6.84051e-05 )  
( 8.95327e-07 4.79431e-06 -5.36639e-05 )  
( -1.96675e-06 1.19535e-06 -5.40464e-05 )  
( 1.08224e-06 4.19992e-06 -6.15184e-05 )  
( -8.02204e-06 3.9529e-07 -6.62288e-05 )  
( 5.76657e-06 1.04118e-05 -6.14531e-05 )  
( -1.68328e-06 -3.08611e-06 -7.87735e-05 )  
( 9.98444e-07 -1.19932e-06 -6.68166e-05 )  
( -2.05681e-06 -5.58552e-07 -7.47789e-05 )  
( -4.80225e-06 1.22027e-08 -6.42872e-05 )  
( -4.13359e-06 1.62931e-06 -7.50939e-05 )  
( -6.5014e-06 -1.87352e-06 -8.21477e-05 )  
( -2.1642e-06 2.96434e-06 -7.05174e-05 )  
( -6.17915e-06 2.20421e-06 -7.07374e-05 )  
( 6.97491e-07 -1.86411e-08 -7.4495e-05 )  
( 3.24313e-06 2.70334e-06 -7.22552e-05 )  
( 2.00238e-06 -4.84696e-06 -6.81509e-05 )  
( -8.21344e-06 -6.99084e-08 -6.87089e-05 )  
( 4.08386e-06 -2.71473e-06 -7.08512e-05 )  
( -2.1178e-07 4.75163e-08 -6.69041e-05 )  
( -2.22888e-06 4.34525e-06 -7.35675e-05 )  
( -4.71239e-06 6.64481e-07 -6.8276e-05 )  
( 1.94379e-06 5.37588e-06 -6.74212e-05 )  
( -6.81916e-07 1.57672e-06 -6.2566e-05 )  
( -3.48869e-06 2.2028e-06 -7.85851e-05 )  
( -2.73402e-06 1.8348e-06 -8.43427e-05 )  
( 4.45088e-06 1.05428e-06 -7.90624e-05 )  
( 2.80632e-06 -2.56602e-06 -8.16914e-05 )  
( -7.0376e-07 3.65458e-06 -7.13103e-05 )  
( -4.02545e-06 -9.47048e-07 -7.5331e-05 )  
( -3.1728e-06 -3.89796e-08 -7.39006e-05 )  
( 5.89477e-06 2.50313e-07 -8.32127e-05 )  
( -1.59772e-06 -9.37302e-08 -8.13337e-05 )  
( -5.82075e-06 9.13442e-06 -8.22247e-05 )  
( 2.61876e-07 -1.59742e-06 -8.25809e-05 )  
( 2.4377e-06 1.9206e-07 -7.39361e-05 )  
( -3.64695e-06 1.62832e-06 -8.22736e-05 )  
( 4.18034e-06 -1.92829e-06 -7.60546e-05 )  
( 7.69402e-07 -2.08957e-07 -8.42462e-05 )  
( -4.74021e-06 8.46639e-07 -8.93838e-05 )  
( -1.39261e-06 -4.90886e-07 -8.22212e-05 )  
( -9.76219e-07 -3.9189e-07 -8.9877e-05 )  
( -1.92224e-06 -1.337e-06 -8.81036e-05 )  
( 6.23623e-07 -2.72158e-07 -8.36501e-05 )  
( -4.10643e-06 7.22318e-06 -9.02762e-05 )  
( -5.71593e-07 -1.41708e-06 -9.51988e-05 )  
( -6.40812e-07 4.44902e-07 -8.5472e-05 )  
( 1.03952e-06 1.00632e-06 -8.18163e-05 )  
( 3.46756e-06 -1.99852e-06 -9.6135e-05 )  
( -5.6881e-06 -2.98052e-06 -8.74071e-05 )  
( -4.27265e-06 3.38687e-06 -9.48933e-05 )  
( 1.09064e-07 1.35249e-06 -8.08463e-05 )  
( 2.92165e-06 -1.53861e-06 -8.89887e-05 )  
( 6.25234e-06 -3.48557e-06 -9.59786e-05 )  
( -6.17482e-06 -3.43526e-06 -9.9699e-05 )  
( -3.95905e-07 -3.30828e-06 -8.99262e-05 )  
( 4.98682e-06 -4.24087e-06 -0.000103245 )  
( -3.09271e-06 -7.20792e-06 -0.000102403 )  
( 4.10757e-06 -8.21656e-06 -0.00010212 )  
( 2.97396e-06 -4.7001e-06 -9.57256e-05 )  
( -5.15552e-07 -5.09222e-06 -8.82401e-05 )  
( -7.53529e-07 -3.55922e-06 -9.60041e-05 )  
( 1.35117e-06 -2.66913e-06 -9.60783e-05 )  
( 3.79368e-06 -1.91475e-07 -9.81478e-05 )  
( 1.27901e-06 -2.58952e-06 -8.74352e-05 )  
( -1.55479e-06 -2.7805e-06 -9.74155e-05 )  
( 1.37711e-06 -1.37428e-06 -0.000101235 )  
( -7.66651e-07 -1.27799e-06 -9.0171e-05 )  
( 8.59281e-07 7.12584e-08 -9.74377e-05 )  
( 3.30719e-06 -1.8043e-06 -9.92814e-05 )  
( -1.11079e-05 -8.10807e-06 -9.8139e-05 )  
( 1.25268e-06 4.37616e-07 -8.73036e-05 )  
( 7.43466e-06 -1.22594e-05 -0.000108414 )  
( 5.42524e-06 -8.99165e-06 -0.000111711 )  
( 3.50873e-06 6.02065e-06 -0.00010168 )  
( 8.7162e-07 -3.18841e-06 -9.90176e-05 )  
( 5.78808e-06 -7.5025e-06 -0.000113653 )  
( 1.12179e-06 -1.05143e-05 -0.000109624 )  
( 5.50858e-06 -4.06468e-06 -0.000105594 )  
( -2.7787e-06 -2.8549e-06 -9.48314e-05 )  
( 4.05559e-06 -1.47639e-05 -0.00011701 )  
( 2.7336e-06 -6.92712e-06 -0.000100498 )  
( -1.95766e-06 1.03091e-06 -0.000100173 )  
( 3.2771e-06 -9.46289e-06 -0.000116573 )  
( 5.30266e-06 -9.83446e-06 -0.000117864 )  
( 5.19219e-06 -7.82867e-06 -0.000113112 )  
( -2.72477e-06 -6.56627e-06 -9.2009e-05 )  
( 6.47753e-06 -7.76288e-06 -0.000125755 )  
( -1.07017e-06 -8.46221e-06 -0.000112367 )  
( 2.56812e-06 -8.3948e-06 -0.00011393 )  
( 2.18136e-06 -1.1184e-07 -9.91294e-05 )  
( -3.46099e-06 -3.84761e-06 -0.000107949 )  
( -7.96779e-07 -1.20585e-05 -0.000115251 )  
( 3.70406e-06 -8.81956e-06 -0.000105439 )  
( -2.75432e-06 -1.20153e-05 -0.00012789 )  
( -3.86078e-06 -1.0059e-05 -0.000128081 )  
( 7.04042e-06 8.23256e-09 -0.000102838 )  
( 6.87308e-06 -9.73232e-06 -0.000126636 )  
( 5.4632e-06 1.48488e-06 -0.000110521 )  
( -3.96568e-06 -1.08041e-05 -0.000116226 )  
( -1.94782e-06 -7.42765e-08 -0.000113016 )  
( 4.5695e-06 -1.15747e-05 -0.000123251 )  
( 6.40302e-06 -1.34961e-06 -0.000114308 )  
( 6.00944e-06 8.86312e-07 -0.000105042 )  
( 2.1196e-06 -5.52508e-07 -0.000107694 )  
( 6.54626e-06 9.07185e-07 -0.00011848 )  
( 1.28323e-06 -2.06183e-06 -0.000115245 )  
( 7.10537e-06 1.78196e-06 -0.000116025 )  
( -1.33198e-06 -3.13332e-06 -0.000123603 )  
( -1.9443e-06 -1.18888e-05 -0.000119884 )  
( 1.03649e-05 -1.47839e-05 -0.000122874 )  
( 2.20386e-06 -1.14861e-05 -0.000127981 )  
( 2.65298e-06 -4.59599e-06 -0.00012918 )  
( 5.64829e-06 -1.2481e-05 -0.000118985 )  
( 7.39219e-07 -1.13829e-07 -0.000112154 )  
( 4.5123e-06 -1.25002e-05 -0.00012827 )  
( 2.58863e-06 -1.00994e-05 -0.000132362 )  
( 3.14868e-06 -3.76361e-06 -0.000117228 )  
( 3.25964e-07 -5.26133e-06 -0.000127262 )  
( -1.3423e-06 -4.63804e-06 -0.000115987 )  
( 4.07099e-06 -7.89858e-06 -0.000131516 )  
( -8.49736e-07 -7.71608e-06 -0.000136149 )  
( 3.69129e-06 -2.62543e-06 -0.000128118 )  
( 4.6777e-06 -1.13889e-05 -0.000115371 )  
( -1.68592e-06 -9.02489e-06 -0.000127877 )  
( -4.13945e-08 -9.10506e-06 -0.000132643 )  
( -1.04886e-05 -9.3426e-06 -0.000136716 )  
( -2.09793e-06 -1.46147e-05 -0.000136067 )  
( 4.79068e-06 1.5592e-06 -0.000124673 )  
( 7.9759e-06 1.73147e-07 -0.000125578 )  
( 2.58901e-06 -4.49702e-06 -0.000120467 )  
( 5.93597e-06 -9.03095e-06 -0.000129284 )  
( 3.90755e-06 -1.67297e-05 -0.000114688 )  
( -2.54367e-06 -5.80098e-06 -0.000109265 )  
( 4.82437e-06 -7.53744e-06 -0.000135968 )  
( -1.5878e-06 -4.5044e-06 -0.000131249 )  
( -1.04116e-07 -9.23632e-06 -0.000137336 )  
( 1.34094e-06 -9.766e-06 -0.000139385 )  
( 4.52512e-07 -3.43406e-06 -0.000130285 )  
( 4.8598e-06 -9.33844e-06 -0.000139157 )  
( 1.27687e-06 -9.14083e-06 -0.000138343 )  
( 7.85682e-06 -1.22161e-06 -0.000134897 )  
( 5.13127e-06 -5.03261e-06 -0.000125237 )  
( 8.565e-06 -8.39436e-06 -0.000143542 )  
( 1.89483e-06 -1.00774e-05 -0.000139487 )  
( -1.68108e-06 -6.09226e-06 -0.000131659 )  
( -4.78461e-06 -1.59345e-05 -0.000145489 )  
( 2.31781e-06 -8.39427e-06 -0.00012382 )  
( 1.96646e-07 -7.33136e-06 -0.000123317 )  
( 4.23421e-06 -6.2186e-06 -0.000140886 )  
( 4.69253e-06 -5.01651e-06 -0.00014045 )  
( 4.20226e-06 1.19091e-06 -0.000133571 )  
( -3.05381e-07 -9.25453e-06 -0.000145791 )  
( 6.6635e-07 -1.31095e-06 -0.000138333 )  
( -3.45543e-07 -6.58495e-06 -0.000137891 )  
( 3.75488e-06 -6.32033e-08 -0.000141012 )  
( -1.47515e-06 -2.93464e-06 -0.00012906 )  
( 5.50897e-06 -8.36158e-06 -0.000141776 )  
( -5.0367e-06 1.41319e-06 -0.000144713 )  
( 3.10465e-07 -9.33194e-06 -0.000155073 )  
( 5.0708e-06 -7.70251e-06 -0.000146586 )  
( 7.22007e-06 5.08845e-06 -0.000156606 )  
( 3.9679e-06 -8.07688e-06 -0.000138035 )  
( 1.12298e-06 -1.8555e-06 -0.000143155 )  
( 3.03326e-07 -9.47123e-06 -0.000143057 )  
( -2.63023e-06 -4.41304e-06 -0.000161481 )  
( 2.49174e-07 -1.35444e-06 -0.000136637 )  
( 9.8099e-06 -3.53062e-06 -0.000149635 )  
( 2.18872e-06 8.19708e-07 -0.000154168 )  
( -1.15729e-06 -2.93614e-06 -0.000139223 )  
( -9.23258e-07 -1.06715e-05 -0.000142921 )  
( -3.08434e-06 -7.901e-07 -0.000144879 )  
( 1.94363e-06 -4.07409e-07 -0.000145675 )  
( -1.4899e-06 6.68618e-06 -0.000155358 )  
( -8.47669e-06 -1.46454e-05 -0.000161533 )  
( 6.47715e-06 -7.434e-06 -0.000139869 )  
( 8.37682e-07 -1.1006e-05 -0.000145293 )  
( 2.27849e-06 -1.09309e-05 -0.000146977 )  
( 8.21686e-06 -3.93966e-06 -0.000171789 )  
( 1.20451e-05 3.46029e-06 -0.000168296 )  
( 2.77811e-06 -1.1545e-05 -0.000148134 )  
( 1.56402e-06 -8.25136e-06 -0.000145583 )  
( -4.81032e-07 8.62392e-08 -0.000151511 )  
( -2.56134e-06 -4.45047e-06 -0.000143606 )  
( -2.04749e-05 3.1373e-06 -0.000147895 )  
( 1.24273e-05 -1.83307e-05 -0.000166678 )  
( 8.31192e-06 -1.02924e-05 -0.000158907 )  
( 5.89914e-07 -1.19074e-05 -0.000148551 )  
( -4.30754e-06 1.32525e-05 -0.000148654 )  
( -5.73741e-06 3.28222e-07 -0.000160873 )  
( -4.76144e-05 2.2092e-05 -0.000139267 )  
( 1.0614e-05 6.1279e-06 -0.000166291 )  
( 4.92215e-06 -1.98245e-05 -0.000183007 )  
( 4.97101e-06 -2.85213e-05 -0.000154086 )  
( -2.51292e-05 1.20238e-05 -0.000146718 )  
( 5.86496e-06 3.26896e-06 -0.000164406 )  
( 8.09117e-06 -1.34496e-05 -0.000141666 )  
( -8.53481e-06 -2.41103e-06 -0.000159384 )  
( 9.00331e-07 -1.88894e-05 -0.000145151 )  
( 7.35386e-07 -2.77105e-06 -0.000152582 )  
( 4.42895e-07 -8.37843e-06 -0.000151865 )  
( 5.30357e-06 -1.09378e-05 -0.000149771 )  
( -1.09656e-05 4.53672e-06 -0.000152752 )  
( -2.1208e-06 -4.99209e-06 -0.000165472 )  
( 7.8921e-06 -4.65231e-06 -0.000157881 )  
( -6.2886e-06 -1.26892e-06 -0.000170236 )  
( -3.34402e-06 1.00381e-05 -0.000153317 )  
( 2.30729e-06 -5.62842e-06 -0.000180137 )  
( 3.60947e-05 3.74326e-06 -0.00017366 )  
( 2.13806e-05 -6.9441e-06 -0.000150382 )  
( 2.04359e-06 -1.60409e-05 -0.000160425 )  
( 3.93969e-06 -2.12056e-05 -0.000166344 )  
( 1.7949e-05 -1.60757e-05 -0.000174446 )  
( -1.56332e-06 -1.09309e-05 -0.000190876 )  
( 1.18592e-05 -1.62009e-05 -0.000159509 )  
( 6.69012e-07 -9.58806e-06 -0.000148664 )  
( 9.95741e-06 -4.88756e-07 -0.000161861 )  
( -2.19589e-05 1.99243e-05 -0.000177243 )  
( 8.51489e-06 -1.74632e-05 -0.000162339 )  
( 1.66316e-05 -2.05394e-05 -0.000244401 )  
( 2.20078e-06 4.88856e-06 -0.000180767 )  
( -7.9645e-06 -9.99128e-06 -0.000170185 )  
( 4.27992e-06 7.29536e-06 -0.00018544 )  
( 2.94528e-05 -2.18701e-05 -0.00015714 )  
( 2.44706e-05 1.88872e-05 -0.000165056 )  
( 3.55214e-06 -9.06823e-06 -0.000200408 )  
( -7.0112e-06 7.37488e-06 -0.000160878 )  
( 1.65829e-06 -1.29897e-05 -0.000182315 )  
( 1.67277e-05 -1.68906e-05 -0.000207327 )  
( -6.22703e-06 -9.86737e-06 -0.000194139 )  
( 7.29781e-06 -4.48334e-06 -0.000176103 )  
( 3.14895e-05 7.76561e-06 -0.000209834 )  
( -0.000121087 -8.87989e-05 -0.000258873 )  
( 4.94833e-05 3.77477e-06 -0.000195955 )  
( 1.30894e-05 -7.18795e-06 -0.000174478 )  
( 1.40736e-05 -5.8637e-05 -0.000180509 )  
( -8.44673e-05 6.87036e-05 -0.000173694 )  
( 1.39289e-07 -8.90662e-06 -0.000201945 )  
( 2.68739e-05 -2.91568e-05 -0.000160381 )  
( -1.41167e-05 -9.65687e-06 -0.000186494 )  
( 1.12511e-05 1.35365e-05 -0.000196859 )  
( 2.34121e-05 -3.05431e-05 -0.000219703 )  
( 1.66148e-05 -5.03913e-06 -0.00016546 )  
( 3.74334e-06 -1.78389e-06 -0.000190406 )  
( 1.02959e-05 -2.76992e-06 -0.000186216 )  
( 1.56265e-05 -9.68283e-07 -0.000187172 )  
)
