/*--------------------------------*- C++ -*----------------------------------*\
| =========                 |                                                 |
| \\      /  F ield         | OpenFOAM: The Open Source CFD Toolbox           |
|  \\    /   O peration     | Version:  5.x                                   |
|   \\  /    A nd           | Web:      www.OpenFOAM.org                      |
|    \\/     M anipulation  |                                                 |
\*---------------------------------------------------------------------------*/
FoamFile
{
    version     2.0;
    format      ascii;
    class       volVectorField;
    location    "8000";
    object      U;
}
// * * * * * * * * * * * * * * * * * * * * * * * * * * * * * * * * * * * * * //

dimensions      [0 1 -1 0 0 0 0];

internalField   nonuniform List<vector> 
180
(
(0.0490277 -0.074355 107.218)
(0.0759284 -0.0640272 107.91)
(0.0659102 -0.0556106 107.725)
(0.0915992 -0.0254612 107.58)
(0.0848904 0.0358958 107.596)
(0.0306327 0.140364 107.577)
(0.022691 0.259343 107.646)
(0.0397679 0.120178 107.412)
(-0.00933719 0.0437532 107.537)
(0.144648 -0.242412 107.293)
(0.296939 -0.179407 107.452)
(0.3261 -0.0100949 107.496)
(-0.100847 0.179023 107.431)
(-0.6629 0.321082 107.136)
(-0.208579 0.0384277 107.468)
(-0.0715907 0.0158609 107.136)
(0.524932 0.101185 106.876)
(0.79267 -0.0390102 106.939)
(0.951133 -0.0284279 106.847)
(0.709157 0.150543 106.651)
(0.265234 0.270823 106.211)
(0.52562 0.047268 106.313)
(0.587106 0.179759 105.858)
(0.647309 0.271316 105.899)
(1.14937 0.3984 105.297)
(1.32208 0.331448 105.13)
(1.49552 0.341543 105.113)
(1.58575 0.560601 104.945)
(1.42648 0.665825 104.045)
(1.3606 0.324296 104.593)
(1.43876 0.308158 103.922)
(1.57197 0.130346 103.587)
(1.48489 0.063708 103.473)
(1.36312 0.184594 103.633)
(1.77174 -0.100767 103.219)
(0.880609 -0.728476 102.167)
(-0.136477 -0.537073 103.078)
(-0.187709 -0.42568 102.862)
(0.456276 -1.09329 102.677)
(0.682382 -1.58839 102.48)
(0.244022 -1.29513 102.487)
(0.21454 -1.23506 102.447)
(-0.113116 -1.31667 102.577)
(-1.1126 -1.61663 102.365)
(-1.36021 -1.69264 102.603)
(-1.27398 -1.67551 102.876)
(-0.597679 -1.87871 102.918)
(-0.259143 -2.22583 102.747)
(-0.592726 -2.22625 103.253)
(-0.891804 -2.27626 102.973)
(-1.81176 -2.72242 103.553)
(-2.58016 -2.96218 103.506)
(-3.08581 -2.92754 104.009)
(-2.64862 -2.79549 104.037)
(-2.07933 -2.71341 104.006)
(-2.60146 -2.80063 105.042)
(-2.79135 -2.8612 104.551)
(-3.09841 -3.0057 104.907)
(-3.09977 -3.01297 105.873)
(-3.20281 -3.00488 105.369)
(-3.55961 -3.13718 106.212)
(-3.78699 -3.07046 106.343)
(-3.2191 -2.93429 107.187)
(-3.33614 -3.1968 107.241)
(-2.85656 -3.35264 107.905)
(-3.80872 -3.19438 108.116)
(-4.49947 -3.16529 108.181)
(-3.77357 -3.42154 109.425)
(-3.43228 -3.61332 109.459)
(-2.88277 -3.87545 110.117)
(-2.68968 -3.97112 110.41)
(-2.53751 -3.97402 110.737)
(-2.34831 -3.93345 111.257)
(-2.19085 -3.78493 111.438)
(-1.95057 -3.50274 111.887)
(-1.67822 -3.2907 111.865)
(-1.31336 -3.25536 112.14)
(-1.20317 -3.30836 112.314)
(-1.09591 -3.50755 112.706)
(-0.690322 -3.24563 112.705)
(-0.469703 -2.54411 112.904)
(-0.572483 -2.67934 113.077)
(-1.04834 -4.06513 112.935)
(-1.24652 -4.57087 113.305)
(-0.191539 -2.87862 112.792)
(-0.174683 -2.85516 113.193)
(-0.20729 -2.85551 113.256)
(-0.659429 -3.36899 113.01)
(-1.00036 -3.71057 113.227)
(0.333076 -1.89117 111.699)
(0.410101 -1.71982 112.318)
(0.430506 -1.69631 112.183)
(0.051661 -2.1447 111.72)
(-0.165974 -2.36737 111.613)
(0.393714 -1.63979 111.036)
(0.509633 -1.37818 111.081)
(0.658085 -0.879731 110.266)
(0.781878 -0.592325 110.094)
(0.908529 -0.321294 109.749)
(0.997964 -0.0582046 109.311)
(1.07639 0.207148 109.172)
(0.773598 0.41161 107.209)
(1.05531 0.83167 107.647)
(1.3241 1.13134 107.516)
(1.43294 1.48371 106.805)
(1.31569 1.69354 106.153)
(1.2952 1.21241 105.481)
(1.11743 0.646622 104.857)
(0.238012 0.507116 104.735)
(-1.02367 0.338445 104.151)
(-3.01334 0.747144 103.823)
(-5.21437 0.84145 103.485)
(-7.72324 1.65501 103.287)
(-9.91291 1.99489 103.004)
(-12.3616 2.86639 102.883)
(-14.4238 3.04328 102.829)
(-16.9117 3.82359 102.62)
(-18.7802 3.6306 102.998)
(-21.4568 4.35983 102.262)
(-21.3635 3.80002 103.193)
(-21.4371 3.6021 103.462)
(-23.8172 3.6955 102.655)
(-25.8325 4.17377 102.912)
(-28.5233 3.20304 102.164)
(-28.2399 2.7215 103.17)
(-28.8869 2.26095 103.096)
(-29.0836 2.23246 102.443)
(-28.8492 2.07894 103.058)
(-28.9012 1.96842 102.447)
(-28.9272 1.89431 102.512)
(-28.9805 1.89893 101.511)
(-28.8427 1.95166 102.103)
(-29.5537 2.22151 101.404)
(-32.0247 3.36815 100.887)
(-34.5324 5.03136 100.391)
(-37.5216 6.08443 100.11)
(-40.633 6.94612 99.7557)
(-43.6135 7.21202 99.3573)
(-46.021 7.22695 99.2238)
(-47.8229 6.76208 98.7101)
(-49.0705 5.94719 98.843)
(-50.1168 5.02389 97.9459)
(-50.2059 4.07834 98.3114)
(-50.0895 3.22326 98.1875)
(-50.1458 2.21425 98.0122)
(-49.8908 1.47784 97.9076)
(-49.2492 1.20722 97.7328)
(-48.696 0.933046 97.9333)
(-47.7523 0.202311 97.4027)
(-45.9267 -0.462736 97.2325)
(-44.7942 -1.30876 97.4582)
(-44.0889 -1.8696 97.5771)
(-43.5602 -2.27393 98.0087)
(-42.5249 -2.54433 97.9367)
(-41.4398 -2.89576 98.512)
(-40.4601 -3.23098 98.4867)
(-39.2034 -3.69322 99.2856)
(-37.5603 -3.7455 99.5676)
(-36.6789 -4.22643 100.555)
(-36.6413 -4.89768 101.097)
(-36.8502 -5.78299 101.553)
(-36.5532 -6.12598 102.315)
(-35.8988 -5.94643 102.641)
(-35.5642 -6.16631 103.827)
(-32.2325 -5.69945 103.365)
(-28.8633 -5.64014 103.175)
(-26.128 -5.77219 102.644)
(-26.233 -6.58354 103.348)
(-26.9683 -8.08134 102.887)
(-27.6569 -9.66254 101.982)
(-27.5291 -10.2604 101.302)
(-26.9276 -10.3505 100.506)
(-26.5961 -10.9391 99.8151)
(-26.2121 -11.5365 100.006)
(-24.1366 -10.8733 96.4114)
(-23.9223 -13.3632 97.5305)
(-23.9246 -14.7575 98.2441)
(-22.9507 -14.3422 96.3504)
(-22.2508 -14.3416 94.6855)
(-23.1976 -16.285 96.659)
)
;

boundaryField
{
    inlet
    {
        type            zeroGradient;
    }
    outlet
    {
        type            zeroGradient;
    }
    repeat_boundary
    {
        type            slip;
    }
    procBoundary0to1
    {
        type            processor;
        value           nonuniform List<vector> 
180
(
(0.050225 -0.0845167 110.116)
(0.0764831 -0.0867942 110.869)
(0.0979491 -0.0880475 110.818)
(0.100261 -0.0892456 110.701)
(0.0951687 -0.0742402 110.618)
(0.0556287 -0.0292101 110.811)
(0.0551998 0.024647 110.392)
(0.167053 -0.00888728 110.683)
(0.207197 -0.00290452 110.797)
(0.0157634 0.312909 110.834)
(-0.115245 0.57849 110.417)
(0.00378553 0.366101 110.767)
(0.609462 -0.292101 110.45)
(0.618442 -0.33766 110.575)
(0.839224 -0.554575 110.802)
(1.03953 -0.734887 110.696)
(1.48234 -1.11186 110.712)
(2.03427 -1.48226 111.197)
(2.3028 -1.51175 111.226)
(2.46046 -1.41059 111.519)
(2.57705 -1.29316 111.735)
(2.69513 -1.14591 111.952)
(2.76599 -1.03542 112.182)
(2.75393 -0.953683 112.432)
(2.61554 -0.866833 112.684)
(2.43917 -0.708285 112.946)
(2.38215 -0.551629 113.218)
(2.35321 -0.556437 113.482)
(2.23021 -0.543248 113.786)
(2.19655 -0.356109 114.061)
(2.20883 -0.160377 114.304)
(2.10294 0.0358898 114.516)
(2.07069 0.251011 114.847)
(2.30518 0.406676 114.922)
(2.08997 0.790365 115.221)
(1.74614 1.1146 115.252)
(1.88025 1.19678 115.545)
(2.13762 0.949028 115.305)
(1.83958 1.08409 115.732)
(1.24615 1.13338 115.576)
(0.915039 1.1834 115.674)
(0.210955 1.50931 115.884)
(0.63186 1.30083 115.528)
(0.984208 1.04896 115.836)
(0.38137 0.846023 115.703)
(0.557128 0.660865 115.475)
(0.431143 0.60827 115.9)
(0.651206 0.288417 115.781)
(1.02246 -0.126194 115.57)
(0.858379 -0.12891 115.963)
(0.910438 -0.267297 115.705)
(1.00878 -0.279634 115.819)
(1.13297 -0.277881 115.765)
(1.19753 -0.338974 115.618)
(1.09961 -0.343387 115.599)
(0.978679 -0.248245 115.589)
(0.837258 -0.16119 115.532)
(0.720842 -0.122351 115.402)
(0.641271 -0.0604718 115.277)
(0.393482 0.0223193 115.113)
(0.17451 0.101398 114.916)
(0.0244984 0.218563 114.722)
(-0.313988 0.390333 114.327)
(-0.650628 0.645727 114.498)
(-0.387256 0.160979 113.304)
(-0.230273 -0.318166 113.438)
(0.22047 -0.985504 113.143)
(-0.53869 -0.537837 113.607)
(-0.326893 -0.685561 112.238)
(-0.336925 -0.984026 112.898)
(0.401865 -1.44327 112.404)
(0.119108 -1.28117 112.751)
(0.754786 -1.46954 112.196)
(1.41503 -1.95775 112.489)
(1.66103 -1.96073 112.611)
(1.62208 -2.34502 112.905)
(1.44221 -2.87397 112.917)
(1.66124 -3.02452 113.096)
(1.68107 -3.13917 113.181)
(1.71882 -3.15158 113.287)
(1.72139 -3.17133 113.345)
(1.68646 -3.17321 113.528)
(3.11673 -2.28955 113.157)
(3.183 -2.23438 113.336)
(3.11689 -2.15798 113.483)
(2.69766 -2.23621 113.531)
(3.5539 -1.63698 113.277)
(4.60596 -1.02852 113.42)
(4.77361 -0.757263 113.38)
(4.85056 -0.532043 113.509)
(4.71132 -0.535371 113.504)
(4.45477 -0.638976 113.656)
(4.03919 -0.796534 113.669)
(4.01847 -0.836617 113.706)
(4.40264 -0.755094 113.745)
(4.5051 -0.713948 113.855)
(4.61203 -0.638834 113.983)
(4.71151 -0.610473 114.1)
(4.82871 -0.579918 114.276)
(4.95416 -0.458968 114.493)
(3.83661 -0.884258 114.526)
(4.1566 -0.831853 114.673)
(3.62586 -1.03106 115.128)
(2.78047 -2.25086 114.782)
(2.47386 -4.1643 115.828)
(2.99478 -6.22529 116.031)
(4.10303 -8.55499 117.231)
(4.95699 -10.3198 118.198)
(6.15702 -12.0935 119.727)
(7.56233 -13.8491 120.899)
(9.17465 -15.705 122.687)
(10.2743 -17.1091 123.706)
(11.4121 -18.4005 125.343)
(12.3084 -19.2612 126.051)
(13.2743 -20.0801 127.11)
(13.8218 -20.6062 127.707)
(13.962 -20.8724 128.222)
(14.9107 -21.6164 128.218)
(16.3233 -23.0077 128.301)
(17.5928 -24.3444 128.255)
(19.0436 -25.5377 128.131)
(21.1803 -27.2087 127.932)
(22.5076 -28.5917 127.873)
(22.9777 -29.2452 127.761)
(23.7187 -29.8607 127.166)
(24.2219 -30.2592 126.699)
(24.4774 -30.7269 126.474)
(26.1121 -32.2622 125.03)
(26.645 -32.8915 125.515)
(27.6954 -33.8266 124.414)
(28.2947 -34.3039 123.984)
(28.4705 -34.4496 123.664)
(28.5827 -34.7875 122.92)
(30.4713 -36.0115 121.291)
(30.5451 -35.9868 121.216)
(30.5903 -36.0847 120.461)
(30.4841 -36.2298 119.314)
(30.8844 -36.4316 117.485)
(31.7796 -37.0873 115.44)
(32.294 -37.6709 114.378)
(32.9653 -38.4282 111.824)
(32.6088 -38.2765 111.24)
(32.769 -38.5796 109.194)
(32.4584 -38.624 107.115)
(32.5339 -38.9739 105.41)
(32.2805 -38.861 103.407)
(32.0857 -38.507 102.399)
(31.9788 -38.0601 99.8019)
(31.6439 -37.624 99.5293)
(31.2288 -37.4309 97.606)
(30.8593 -36.7039 96.4924)
(29.7241 -35.6013 95.4648)
(27.8886 -34.0007 94.5104)
(26.063 -31.8747 94.0312)
(24.265 -29.643 92.9684)
(22.7679 -27.792 92.8507)
(21.4879 -26.2002 92.3036)
(19.9789 -24.5366 92.2973)
(19.036 -23.2552 92.3797)
(18.8664 -22.9209 93.0389)
(18.9731 -22.9279 93.6054)
(18.876 -22.8341 94.3669)
(19.0907 -22.31 95.4515)
(19.4964 -21.8432 96.6895)
(19.9916 -21.2666 97.9923)
(20.2957 -20.758 99.2863)
(20.6296 -20.6379 100.661)
(20.6585 -21.013 101.851)
(21.1479 -21.2332 102.637)
(21.4558 -21.2426 103.475)
(21.5949 -21.4578 103.621)
(21.4136 -21.9351 103.644)
(19.7528 -20.9633 103.439)
(19.6066 -21.5351 103.205)
(18.0279 -19.4535 102.36)
(18.1928 -20.4251 102.011)
(18.2373 -20.853 101.841)
(17.9366 -20.095 101.376)
(16.6209 -18.6923 100.602)
(14.9332 -19.9632 101.18)
)
;
    }
    procBoundary0to2
    {
        type            processor;
        value           nonuniform List<vector> 
180
(
(0.0361988 -0.0740586 108.647)
(0.0247783 -0.0793877 108.813)
(0.0309395 -0.0640028 108.979)
(-0.0162115 -0.0292244 109.087)
(-0.0269179 -0.0256623 108.473)
(-0.0253528 0.0523812 108.986)
(0.0707027 -0.0251581 108.835)
(-0.0493739 0.155137 108.828)
(-0.115 0.263205 109.02)
(-0.0493521 0.318767 108.892)
(-0.180874 0.569954 108.87)
(-0.098576 0.424172 109.1)
(-0.261141 0.492719 109.061)
(-0.430258 0.546295 109.066)
(-0.342243 0.475276 109.188)
(-0.314137 0.522 109.118)
(-0.171237 0.521112 109.215)
(-0.0215002 0.496851 109.443)
(0.158545 0.590398 108.782)
(0.17666 0.534126 109.186)
(0.1921 0.40429 109.385)
(0.252255 0.428642 109.397)
(0.229911 0.637435 108.958)
(0.0393959 0.65146 109.475)
(-0.0277259 0.687553 109.172)
(-0.102785 0.730931 109.399)
(-0.135814 0.787868 109.376)
(-0.175076 0.800498 109.466)
(-0.146421 0.657781 109.443)
(0.0545774 0.542797 109.522)
(0.215602 0.529981 109.559)
(0.296047 0.485837 109.557)
(0.416409 0.442079 109.782)
(0.389245 0.752642 109.008)
(0.190502 1.07501 109.26)
(0.160139 1.02876 109.765)
(0.492057 0.827064 109.694)
(0.51108 0.785265 108.623)
(0.112561 1.05304 109.468)
(0.0318171 1.10127 109.337)
(0.495179 0.707804 109.197)
(0.909504 0.327893 109.017)
(0.53096 0.596388 108.82)
(0.519726 0.570459 108.742)
(0.532896 0.502077 108.797)
(0.357123 0.304918 108.177)
(0.261577 0.23981 108.234)
(0.2528 0.0634891 108.592)
(0.429595 -0.272617 107.606)
(0.311067 -0.396069 107.532)
(0.0220907 -0.315997 108.294)
(0.31141 -0.509111 106.795)
(0.361237 -0.4313 106.989)
(0.110208 -0.359349 107.343)
(0.0671672 -0.338432 106.717)
(-0.025372 -0.168102 106.265)
(-0.0310186 -0.380857 106.622)
(-0.0599247 -0.406194 106.101)
(-0.124722 -0.308373 106.253)
(-0.177084 -0.725132 105.301)
(-0.367684 -0.812831 105.554)
(-0.480754 -0.831612 105.535)
(-0.52867 -0.890059 105.497)
(-0.624448 -0.767507 104.654)
(-0.686126 -0.718781 105.118)
(-0.774536 -0.75979 104.478)
(-0.878414 -0.926869 104.553)
(-0.981557 -1.06341 104.258)
(-1.07464 -1.17697 104.213)
(-1.21788 -1.22418 104.128)
(-1.42381 -1.19232 103.057)
(-1.36661 -1.19554 103.391)
(-1.27394 -1.30069 103.788)
(-1.52784 -1.30825 102.884)
(-1.8021 -1.09675 102.527)
(-1.73363 -0.962753 103.087)
(-2.00484 -1.1218 102.337)
(-2.3829 -1.34944 102)
(-2.1329 -1.48535 101.972)
(-0.338404 -1.07454 100.679)
(0.99199 -0.27857 99.6064)
(1.0985 0.886939 99.6013)
(1.08804 1.23129 99.0242)
(1.34652 0.225062 98.2198)
(1.54358 -0.606968 97.7342)
(0.600848 1.07465 96.284)
(-0.210937 2.17647 95.9573)
(-0.805877 3.01904 94.9763)
(-0.911348 3.52654 95.3176)
(-0.984133 3.09181 95.1604)
(-1.14315 2.34983 94.7024)
(-1.62636 2.27362 94.0801)
(-2.39308 2.53712 94.0651)
(-3.13686 2.92883 93.9727)
(-3.30516 3.10626 93.9212)
(-3.44573 2.94691 93.9707)
(-3.6943 2.70066 93.9986)
(-3.9356 2.55721 93.9569)
(-3.92291 3.29438 94.1713)
(-3.93644 3.60072 94.3221)
(-3.88549 3.89859 94.6138)
(-3.87346 4.18378 94.79)
(-3.88312 4.44406 95.1408)
(-3.83081 4.6809 95.5664)
(-4.6908 3.98763 95.9941)
(-5.92413 2.95617 96.5674)
(-6.53667 2.12183 97.3232)
(-6.65404 1.33809 97.8422)
(-6.57717 0.690216 98.3402)
(-6.32239 0.0184697 98.8554)
(-6.36314 -0.222994 99.3428)
(-6.02901 -0.812515 99.8324)
(-5.9498 -0.930575 100.334)
(-5.50539 -1.28575 100.968)
(-5.3343 -1.16075 101.489)
(-4.99173 -1.16759 102.232)
(-4.93453 -0.862395 102.901)
(-4.82448 -0.698742 103.608)
(-4.82442 -0.364191 104.412)
(-4.90129 -0.181062 105.066)
(-4.93568 0.182495 105.933)
(-5.14141 0.51325 106.502)
(-5.26026 0.992412 107.409)
(-5.56849 1.24497 108.054)
(-5.77314 1.86979 108.843)
(-6.13757 2.33531 109.49)
(-6.38248 3.12793 110.201)
(-6.7477 3.61117 110.966)
(-6.91665 4.12664 111.645)
(-7.17241 4.48212 112.431)
(-7.33814 4.91923 113.043)
(-7.69344 5.33105 113.828)
(-8.10488 5.79031 114.435)
(-8.82068 6.58993 115.214)
(-9.83695 7.55563 115.953)
(-11.2771 8.82312 116.965)
(-13.0234 10.1987 117.964)
(-15.0344 11.7739 119.201)
(-17.1811 13.3257 120.449)
(-19.3814 14.8561 121.873)
(-21.5408 16.185 123.295)
(-23.5641 17.3243 124.8)
(-25.3893 18.1304 126.27)
(-26.9574 18.681 127.802)
(-28.1969 18.849 129.225)
(-29.1288 18.8385 130.689)
(-29.7397 18.5104 131.992)
(-30.0426 18.0678 133.421)
(-30.0531 17.2994 134.539)
(-29.816 16.4938 135.865)
(-29.4295 15.5398 136.736)
(-28.9753 14.6906 137.912)
(-28.4594 13.7242 138.536)
(-28.0699 13.0261 139.583)
(-27.7119 12.3787 140.103)
(-27.6744 11.9587 141.031)
(-27.5958 11.4907 141.481)
(-27.9931 11.4369 142.339)
(-28.2397 11.1629 142.683)
(-29.0846 11.41 143.644)
(-29.658 11.3876 143.823)
(-30.9547 12.0202 144.773)
(-31.7887 12.592 145.042)
(-33.8406 13.965 145.814)
(-34.4694 15.5982 146.566)
(-36.7422 17.7098 146.91)
(-36.9925 20.2485 148.206)
(-38.3737 22.6092 148.428)
(-38.2368 25.6403 149.812)
(-37.9022 28.482 150.21)
(-36.5462 30.8208 151.526)
(-35.2485 32.815 152.13)
(-31.8212 34.2645 153.583)
(-27.9436 34.7984 154.273)
(-23.1175 34.4753 155.229)
(-19.2677 34.2398 156.707)
(-18.5923 31.9176 155.658)
(-17.6998 30.8439 155.963)
(-15.5522 30.2439 157.05)
(-15.2518 29.5448 156.787)
)
;
    }
}


// ************************************************************************* //
