/*--------------------------------*- C++ -*----------------------------------*\
| =========                 |                                                 |
| \\      /  F ield         | OpenFOAM: The Open Source CFD Toolbox           |
|  \\    /   O peration     | Version:  5.x                                   |
|   \\  /    A nd           | Web:      www.OpenFOAM.org                      |
|    \\/     M anipulation  |                                                 |
\*---------------------------------------------------------------------------*/
FoamFile
{
    version     2.0;
    format      ascii;
    class       volScalarField;
    location    "0.008";
    object      p;
}
// * * * * * * * * * * * * * * * * * * * * * * * * * * * * * * * * * * * * * //

dimensions      [0 2 -2 0 0 0 0];

internalField   nonuniform List<scalar> 
180
(
6.977e-09
2.09873e-08
3.50527e-08
4.91608e-08
6.33349e-08
7.75923e-08
9.19548e-08
1.06439e-07
1.21061e-07
1.35832e-07
1.50762e-07
1.65856e-07
1.81115e-07
1.96536e-07
2.12112e-07
2.27831e-07
2.43676e-07
2.59626e-07
2.75655e-07
2.91731e-07
3.07819e-07
3.23878e-07
3.39865e-07
3.55727e-07
3.71408e-07
3.86846e-07
4.01969e-07
4.16696e-07
4.30936e-07
4.44583e-07
4.57514e-07
4.69589e-07
4.80643e-07
4.90486e-07
4.98898e-07
5.05621e-07
5.10358e-07
5.12763e-07
5.12432e-07
5.08898e-07
5.01615e-07
4.89949e-07
4.73162e-07
4.50392e-07
4.20634e-07
3.82715e-07
3.35267e-07
2.76698e-07
2.05151e-07
1.1847e-07
1.41412e-08
-1.10756e-07
-2.59622e-07
-4.36415e-07
-6.45739e-07
-8.92943e-07
-1.18422e-06
-1.52685e-06
-1.92935e-06
-2.4017e-06
-2.95557e-06
-3.60462e-06
-4.3649e-06
-5.25531e-06
-6.29804e-06
-7.51923e-06
-8.94925e-06
-1.06229e-05
-1.25806e-05
-1.48693e-05
-1.75427e-05
-2.0661e-05
-2.42903e-05
-2.85101e-05
-3.344e-05
-3.92437e-05
-4.59218e-05
-5.27667e-05
-5.9169e-05
-7.27487e-05
-0.00018342
0.000898374
0.00143319
0.0018005
0.00338909
0.00477616
0.00631656
0.00791934
0.0112138
0.0126898
0.0135283
0.0161326
0.0171205
0.017732
0.0190446
0.020063
0.0211186
0.0216542
0.0226704
0.0263863
0.0274363
0.0276081
0.0276473
0.0276512
0.0276455
0.0276286
0.0276155
0.0276056
0.0275974
0.0275903
0.0275843
0.0275792
0.0275749
0.0275712
0.0275681
0.0275654
0.0275632
0.0275613
0.0275597
0.0275583
0.0275572
0.0275562
0.0275554
0.0275547
0.0275541
0.0275536
0.0275532
0.0275529
0.0275526
0.0275523
0.0275521
0.0275519
0.0275518
0.0275517
0.0275515
0.0275515
0.0275514
0.0275513
0.0275513
0.0275512
0.0275512
0.0275511
0.0275511
0.0275511
0.0275511
0.0275511
0.027551
0.027551
0.027551
0.027551
0.027551
0.027551
0.027551
0.027551
0.027551
0.027551
0.027551
0.027551
0.027551
0.0275509
0.0275509
0.0275509
0.0275509
0.0275509
0.0275509
0.0275509
0.0275509
0.0275509
0.0275509
0.0275509
0.0275509
0.0275509
0.0275509
0.0275509
0.0275509
0.0275509
0.0275509
0.0275509
0.0275509
0.0275509
)
;

boundaryField
{
    inlet
    {
        type            zeroGradient;
    }
    outlet
    {
        type            fixedValue;
        value           uniform 0;
    }
    repeat_boundary
    {
        type            zeroGradient;
    }
    procBoundary3to1
    {
        type            processor;
        value           nonuniform List<scalar> 
180
(
7.25501e-09
2.18035e-08
3.64153e-08
5.10552e-08
6.57346e-08
8.0467e-08
9.52714e-08
1.10163e-07
1.25159e-07
1.40273e-07
1.55522e-07
1.70918e-07
1.86475e-07
2.02205e-07
2.18117e-07
2.34221e-07
2.50525e-07
2.67037e-07
2.83763e-07
3.00709e-07
3.17881e-07
3.35283e-07
3.5292e-07
3.70799e-07
3.88926e-07
4.07309e-07
4.2596e-07
4.44891e-07
4.6412e-07
4.83665e-07
5.03551e-07
5.23801e-07
5.44448e-07
5.65521e-07
5.87056e-07
6.09091e-07
6.31667e-07
6.54833e-07
6.78654e-07
7.03223e-07
7.2868e-07
7.55238e-07
7.83202e-07
8.12968e-07
8.44944e-07
8.7952e-07
9.17164e-07
9.58441e-07
1.00403e-06
1.05476e-06
1.11162e-06
1.1758e-06
1.24871e-06
1.33206e-06
1.42792e-06
1.53878e-06
1.66766e-06
1.8182e-06
1.99478e-06
2.20273e-06
2.44848e-06
2.73982e-06
3.08616e-06
3.49891e-06
3.9919e-06
4.58185e-06
5.28903e-06
6.13796e-06
7.15827e-06
8.38564e-06
9.86309e-06
1.16428e-05
1.37882e-05
1.63721e-05
1.94618e-05
2.31182e-05
2.75437e-05
3.35108e-05
4.17474e-05
4.68984e-05
-7.49325e-06
0.000713788
0.00124258
0.00121557
0.00483757
0.00644606
0.00783376
0.00883258
0.00947216
0.0109239
0.013653
0.0163026
0.0183059
0.019073
0.0203602
0.0223057
0.022898
0.0237402
0.0243699
0.0254002
0.0268217
0.0271434
0.0273013
0.0274047
0.0274406
0.0274568
0.0274686
0.0274799
0.0274905
0.0274995
0.0275072
0.0275137
0.0275192
0.0275239
0.027528
0.0275314
0.0275343
0.0275368
0.027539
0.0275408
0.0275423
0.0275436
0.0275448
0.0275457
0.0275465
0.0275472
0.0275478
0.0275483
0.0275487
0.0275491
0.0275494
0.0275497
0.0275499
0.0275501
0.0275502
0.0275503
0.0275505
0.0275506
0.0275506
0.0275507
0.0275507
0.0275508
0.0275508
0.0275509
0.0275509
0.0275509
0.0275509
0.0275509
0.0275509
0.027551
0.027551
0.027551
0.027551
0.027551
0.027551
0.027551
0.027551
0.027551
0.027551
0.027551
0.027551
0.027551
0.0275509
0.0275509
0.0275509
0.0275509
0.0275509
0.0275509
0.0275509
0.0275509
0.0275509
0.0275509
0.0275509
0.0275509
0.0275509
0.0275509
0.0275509
0.0275509
0.0275509
0.0275509
)
;
    }
    procBoundary3to2
    {
        type            processor;
        value           nonuniform List<scalar> 
180
(
7.27882e-09
2.19218e-08
3.66455e-08
5.13903e-08
6.61664e-08
8.09891e-08
9.5877e-08
1.10844e-07
1.25904e-07
1.41071e-07
1.56355e-07
1.71766e-07
1.87314e-07
2.03004e-07
2.18841e-07
2.34826e-07
2.50959e-07
2.67238e-07
2.83656e-07
3.00208e-07
3.16882e-07
3.33667e-07
3.50545e-07
3.67501e-07
3.84514e-07
4.01564e-07
4.18627e-07
4.35683e-07
4.52708e-07
4.69682e-07
4.86586e-07
5.03405e-07
5.20124e-07
5.36732e-07
5.5322e-07
5.69581e-07
5.85811e-07
6.01904e-07
6.17857e-07
6.33667e-07
6.49333e-07
6.64854e-07
6.80231e-07
6.95474e-07
7.10598e-07
7.25633e-07
7.40623e-07
7.55636e-07
7.70763e-07
7.86129e-07
8.01897e-07
8.1828e-07
8.35553e-07
8.54064e-07
8.74242e-07
8.96611e-07
9.21777e-07
9.5055e-07
9.83952e-07
1.02324e-06
1.06996e-06
1.12601e-06
1.19372e-06
1.27595e-06
1.37618e-06
1.49852e-06
1.64737e-06
1.82656e-06
2.0387e-06
2.28365e-06
2.55391e-06
2.83333e-06
3.11685e-06
3.39466e-06
3.63675e-06
3.77883e-06
3.84674e-06
4.50645e-06
6.69976e-06
5.37657e-06
-7.90209e-05
0.000978139
0.00147351
0.00172815
0.004092
0.00490032
0.00747417
0.00889186
0.00968906
0.0105649
0.0108971
0.0118701
0.0124205
0.0126762
0.015895
0.0214393
0.0249839
0.0263231
0.0265953
0.0269106
0.0271062
0.0272745
0.0275612
0.0276856
0.0276926
0.0276732
0.0276507
0.0276352
0.0276231
0.0276128
0.0276038
0.0275961
0.0275895
0.0275839
0.0275791
0.027575
0.0275715
0.0275686
0.027566
0.0275638
0.0275619
0.0275604
0.027559
0.0275578
0.0275568
0.027556
0.0275553
0.0275546
0.0275541
0.0275537
0.0275533
0.0275529
0.0275527
0.0275524
0.0275522
0.027552
0.0275519
0.0275518
0.0275517
0.0275516
0.0275515
0.0275514
0.0275513
0.0275513
0.0275513
0.0275512
0.0275512
0.0275512
0.0275511
0.0275511
0.0275511
0.0275511
0.0275511
0.027551
0.027551
0.027551
0.027551
0.027551
0.027551
0.027551
0.027551
0.027551
0.027551
0.027551
0.027551
0.0275509
0.0275509
0.0275509
0.0275509
0.0275509
0.0275509
0.0275509
0.0275509
0.0275509
0.0275509
0.0275509
0.0275509
0.0275509
0.0275509
0.0275509
)
;
    }
}


// ************************************************************************* //
