/*--------------------------------*- C++ -*----------------------------------*\
| =========                 |                                                 |
| \\      /  F ield         | OpenFOAM: The Open Source CFD Toolbox           |
|  \\    /   O peration     | Version:  5.x                                   |
|   \\  /    A nd           | Web:      www.OpenFOAM.org                      |
|    \\/     M anipulation  |                                                 |
\*---------------------------------------------------------------------------*/
FoamFile
{
    version     2.0;
    format      ascii;
    class       volVectorField;
    location    "0.008";
    object      stored_U;
}
// * * * * * * * * * * * * * * * * * * * * * * * * * * * * * * * * * * * * * //

dimensions      [0 1 -1 0 0 0 0];

internalField   nonuniform List<vector> 
180
(
(5.82179e-10 -1.05049e-08 -0.00100006)
(5.13705e-10 -1.31443e-08 -0.00100006)
(4.34482e-10 -1.76109e-08 -0.00100007)
(3.90399e-10 -2.32335e-08 -0.00100007)
(3.92029e-10 -2.95815e-08 -0.00100007)
(4.27731e-10 -3.64461e-08 -0.00100007)
(4.82764e-10 -4.37658e-08 -0.00100008)
(5.47614e-10 -5.15593e-08 -0.00100008)
(6.17566e-10 -5.98844e-08 -0.00100009)
(6.90616e-10 -6.88185e-08 -0.00100009)
(7.65928e-10 -7.84496e-08 -0.0010001)
(8.43026e-10 -8.8875e-08 -0.00100011)
(9.21434e-10 -1.002e-07 -0.00100012)
(1.00053e-09 -1.12539e-07 -0.00100013)
(1.07943e-09 -1.26019e-07 -0.00100014)
(1.15698e-09 -1.40774e-07 -0.00100016)
(1.23157e-09 -1.56955e-07 -0.00100017)
(1.30112e-09 -1.74727e-07 -0.00100019)
(1.36287e-09 -1.94269e-07 -0.00100021)
(1.41326e-09 -2.1578e-07 -0.00100023)
(1.44768e-09 -2.39479e-07 -0.00100025)
(1.46023e-09 -2.65606e-07 -0.00100028)
(1.4434e-09 -2.94426e-07 -0.00100031)
(1.38768e-09 -3.26234e-07 -0.00100034)
(1.28111e-09 -3.61353e-07 -0.00100037)
(1.10884e-09 -4.00141e-07 -0.00100041)
(8.52641e-10 -4.42995e-07 -0.00100046)
(4.90411e-10 -4.90351e-07 -0.0010005)
(-4.4976e-12 -5.42695e-07 -0.00100056)
(-6.63877e-10 -6.00562e-07 -0.00100062)
(-1.52536e-09 -6.64545e-07 -0.00100068)
(-2.63318e-09 -7.35301e-07 -0.00100076)
(-4.039e-09 -8.13555e-07 -0.00100084)
(-5.80288e-09 -9.00113e-07 -0.00100093)
(-7.99444e-09 -9.95865e-07 -0.00100103)
(-1.06942e-08 -1.1018e-06 -0.00100114)
(-1.39952e-08 -1.219e-06 -0.00100126)
(-1.80048e-08 -1.3487e-06 -0.0010014)
(-2.28474e-08 -1.49222e-06 -0.00100155)
(-2.86666e-08 -1.65108e-06 -0.00100172)
(-3.56283e-08 -1.82692e-06 -0.0010019)
(-4.39246e-08 -2.0216e-06 -0.00100211)
(-5.37767e-08 -2.23718e-06 -0.00100234)
(-6.54408e-08 -2.47597e-06 -0.00100259)
(-7.92136e-08 -2.74053e-06 -0.00100287)
(-9.54391e-08 -3.03367e-06 -0.00100319)
(-1.14515e-07 -3.35852e-06 -0.00100353)
(-1.36901e-07 -3.71855e-06 -0.00100392)
(-1.63127e-07 -4.11763e-06 -0.00100435)
(-1.93803e-07 -4.56006e-06 -0.00100482)
(-2.29629e-07 -5.05064e-06 -0.00100535)
(-2.71409e-07 -5.59469e-06 -0.00100593)
(-3.20062e-07 -6.19815e-06 -0.00100659)
(-3.76639e-07 -6.86763e-06 -0.00100731)
(-4.42335e-07 -7.6105e-06 -0.00100811)
(-5.18497e-07 -8.43496e-06 -0.00100901)
(-6.06628e-07 -9.35013e-06 -0.00101)
(-7.08453e-07 -1.03662e-05 -0.00101111)
(-8.25929e-07 -1.14945e-05 -0.00101233)
(-9.61252e-07 -1.27477e-05 -0.0010137)
(-1.11687e-06 -1.414e-05 -0.00101521)
(-1.29551e-06 -1.56871e-05 -0.0010169)
(-1.50021e-06 -1.74065e-05 -0.00101877)
(-1.73429e-06 -1.93178e-05 -0.00102085)
(-2.00134e-06 -2.1443e-05 -0.00102317)
(-2.30522e-06 -2.38063e-05 -0.00102573)
(-2.64986e-06 -2.64348e-05 -0.00102858)
(-3.03904e-06 -2.93586e-05 -0.00103174)
(-3.47669e-06 -3.2611e-05 -0.00103525)
(-3.9666e-06 -3.62287e-05 -0.00103914)
(-4.51174e-06 -4.02506e-05 -0.00104346)
(-5.1175e-06 -4.47125e-05 -0.00104825)
(-5.8008e-06 -4.96319e-05 -0.00105349)
(-6.59222e-06 -5.49674e-05 -0.00105911)
(-7.53186e-06 -6.05288e-05 -0.0010655)
(-8.62287e-06 -6.58086e-05 -0.00107464)
(-9.63438e-06 -6.96567e-05 -0.00108796)
(-9.77212e-06 -7.01162e-05 -0.00108958)
(-6.9477e-06 -6.36121e-05 -0.00103669)
(2.00337e-06 -4.59797e-05 -0.000796891)
(5.51586e-06 -1.35853e-05 -0.0034149)
(-2.74225e-05 -1.29265e-05 -5.19011e-05)
(-8.92635e-05 -0.000262697 -0.00427807)
(-9.29229e-06 7.12006e-07 -0.000194711)
(0.000127155 0.000244368 -0.00480048)
(8.0874e-06 2.37926e-05 -0.000392208)
(0.000312202 0.000229652 -0.0044952)
(6.62581e-06 2.70888e-05 -0.000482011)
(-3.23386e-05 -0.000143684 -0.00433725)
(-6.91905e-05 -8.28669e-05 -0.00143474)
(-0.000240627 1.99479e-05 -0.00500969)
(-1.70533e-05 3.48851e-05 -0.000331241)
(-0.00107944 0.000873205 -0.00393641)
(-4.49637e-05 2.09914e-05 -0.00044052)
(-0.000180604 0.000375508 -0.00410434)
(3.10082e-05 4.43592e-05 -0.00122219)
(0.000490932 0.000280676 -0.00332517)
(0.000359624 0.000236652 -0.0025704)
(0.000184139 0.000128254 -0.00450138)
(-9.54445e-06 3.89895e-05 -0.000710419)
(-0.000304581 -7.203e-05 -0.00284006)
(-0.000276646 -6.13716e-05 -0.00128775)
(-0.000365378 -9.23026e-05 -0.00176849)
(-0.000149879 -3.87662e-05 -0.0012663)
(-3.78784e-05 -1.66469e-05 -0.00129326)
(3.36479e-05 3.73271e-07 -0.0011471)
(6.47103e-05 6.00236e-06 -0.00111373)
(7.55163e-05 7.01656e-06 -0.00110951)
(7.63724e-05 6.7978e-06 -0.00110287)
(7.26675e-05 6.24143e-06 -0.00109336)
(6.7306e-05 5.5929e-06 -0.00108408)
(6.16467e-05 4.95503e-06 -0.00107587)
(5.6224e-05 4.37413e-06 -0.00106858)
(5.11998e-05 3.86111e-06 -0.00106201)
(4.65967e-05 3.41153e-06 -0.00105608)
(4.23945e-05 3.0175e-06 -0.00105072)
(3.8563e-05 2.67162e-06 -0.00104588)
(3.50713e-05 2.3675e-06 -0.00104151)
(3.18901e-05 2.09968e-06 -0.00103756)
(2.89926e-05 1.86348e-06 -0.00103399)
(2.63539e-05 1.65486e-06 -0.00103077)
(2.39514e-05 1.47036e-06 -0.00102785)
(2.17643e-05 1.307e-06 -0.00102521)
(1.97738e-05 1.16221e-06 -0.00102282)
(1.79625e-05 1.03374e-06 -0.00102065)
(1.63145e-05 9.19667e-07 -0.0010187)
(1.48154e-05 8.18288e-07 -0.00101692)
(1.34521e-05 7.28131e-07 -0.00101532)
(1.22124e-05 6.47906e-07 -0.00101387)
(1.10853e-05 5.76484e-07 -0.00101255)
(1.00609e-05 5.12873e-07 -0.00101136)
(9.12983e-06 4.56204e-07 -0.00101029)
(8.28382e-06 4.05709e-07 -0.00100931)
(7.51522e-06 3.60703e-07 -0.00100843)
(6.81707e-06 3.20584e-07 -0.00100763)
(6.183e-06 2.84815e-07 -0.0010069)
(5.60723e-06 2.52921e-07 -0.00100625)
(5.08449e-06 2.2448e-07 -0.00100566)
(4.60995e-06 1.99118e-07 -0.00100512)
(4.17925e-06 1.76501e-07 -0.00100463)
(3.78839e-06 1.56333e-07 -0.00100419)
(3.43374e-06 1.38349e-07 -0.00100379)
(3.112e-06 1.22317e-07 -0.00100343)
(2.82014e-06 1.08028e-07 -0.00100311)
(2.55544e-06 9.52995e-08 -0.00100281)
(2.31541e-06 8.39699e-08 -0.00100254)
(2.09777e-06 7.38937e-08 -0.0010023)
(1.90046e-06 6.49412e-08 -0.00100208)
(1.72162e-06 5.69947e-08 -0.00100188)
(1.55954e-06 4.99471e-08 -0.0010017)
(1.41266e-06 4.37012e-08 -0.00100154)
(1.27959e-06 3.81699e-08 -0.00100139)
(1.15903e-06 3.32754e-08 -0.00100126)
(1.04984e-06 2.89484e-08 -0.00100114)
(9.50951e-07 2.51271e-08 -0.00100103)
(8.61412e-07 2.17564e-08 -0.00100093)
(7.80353e-07 1.87873e-08 -0.00100084)
(7.06988e-07 1.61764e-08 -0.00100076)
(6.40604e-07 1.38852e-08 -0.00100069)
(5.80553e-07 1.18794e-08 -0.00100062)
(5.2625e-07 1.01288e-08 -0.00100056)
(4.77164e-07 8.60673e-09 -0.00100051)
(4.32814e-07 7.28951e-09 -0.00100046)
(3.92766e-07 6.15635e-09 -0.00100041)
(3.56626e-07 5.18896e-09 -0.00100037)
(3.24039e-07 4.37131e-09 -0.00100033)
(2.94685e-07 3.68939e-09 -0.0010003)
(2.68273e-07 3.13108e-09 -0.00100027)
(2.44543e-07 2.68593e-09 -0.00100024)
(2.23259e-07 2.34505e-09 -0.00100022)
(2.04212e-07 2.10096e-09 -0.00100019)
(1.8721e-07 1.94735e-09 -0.00100017)
(1.72086e-07 1.87865e-09 -0.00100015)
(1.58686e-07 1.88902e-09 -0.00100013)
(1.46879e-07 1.97048e-09 -0.00100012)
(1.36555e-07 2.11011e-09 -0.0010001)
(1.27648e-07 2.28933e-09 -0.00100008)
(1.20215e-07 2.48294e-09 -0.00100007)
(1.1458e-07 2.66252e-09 -0.00100006)
(1.11467e-07 2.72172e-09 -0.00100004)
)
;

boundaryField
{
    inlet
    {
        type            calculated;
        value           uniform (1.11467e-07 2.72172e-09 -0.00100004);
    }
    outlet
    {
        type            calculated;
        value           uniform (5.82179e-10 -1.05049e-08 -0.00100006);
    }
    repeat_boundary
    {
        type            calculated;
        value           nonuniform List<vector> 
360
(
(0 -1.05049e-08 -0.00100006)
(0 -1.31443e-08 -0.00100006)
(0 -1.76109e-08 -0.00100007)
(0 -2.32335e-08 -0.00100007)
(0 -2.95815e-08 -0.00100007)
(0 -3.64461e-08 -0.00100007)
(0 -4.37658e-08 -0.00100008)
(0 -5.15593e-08 -0.00100008)
(0 -5.98844e-08 -0.00100009)
(0 -6.88185e-08 -0.00100009)
(0 -7.84496e-08 -0.0010001)
(0 -8.8875e-08 -0.00100011)
(0 -1.002e-07 -0.00100012)
(0 -1.12539e-07 -0.00100013)
(0 -1.26019e-07 -0.00100014)
(0 -1.40774e-07 -0.00100016)
(0 -1.56955e-07 -0.00100017)
(0 -1.74727e-07 -0.00100019)
(0 -1.94269e-07 -0.00100021)
(0 -2.1578e-07 -0.00100023)
(0 -2.39479e-07 -0.00100025)
(0 -2.65606e-07 -0.00100028)
(0 -2.94426e-07 -0.00100031)
(0 -3.26234e-07 -0.00100034)
(0 -3.61353e-07 -0.00100037)
(0 -4.00141e-07 -0.00100041)
(0 -4.42995e-07 -0.00100046)
(0 -4.90351e-07 -0.0010005)
(0 -5.42695e-07 -0.00100056)
(0 -6.00562e-07 -0.00100062)
(0 -6.64545e-07 -0.00100068)
(0 -7.35301e-07 -0.00100076)
(0 -8.13555e-07 -0.00100084)
(0 -9.00113e-07 -0.00100093)
(0 -9.95865e-07 -0.00100103)
(0 -1.1018e-06 -0.00100114)
(0 -1.219e-06 -0.00100126)
(0 -1.3487e-06 -0.0010014)
(0 -1.49222e-06 -0.00100155)
(0 -1.65108e-06 -0.00100172)
(0 -1.82692e-06 -0.0010019)
(0 -2.0216e-06 -0.00100211)
(0 -2.23718e-06 -0.00100234)
(0 -2.47597e-06 -0.00100259)
(0 -2.74053e-06 -0.00100287)
(0 -3.03367e-06 -0.00100319)
(0 -3.35852e-06 -0.00100353)
(0 -3.71855e-06 -0.00100392)
(0 -4.11763e-06 -0.00100435)
(0 -4.56006e-06 -0.00100482)
(0 -5.05064e-06 -0.00100535)
(0 -5.59469e-06 -0.00100593)
(0 -6.19815e-06 -0.00100659)
(0 -6.86763e-06 -0.00100731)
(0 -7.6105e-06 -0.00100811)
(0 -8.43496e-06 -0.00100901)
(0 -9.35013e-06 -0.00101)
(0 -1.03662e-05 -0.00101111)
(0 -1.14945e-05 -0.00101233)
(0 -1.27477e-05 -0.0010137)
(0 -1.414e-05 -0.00101521)
(0 -1.56871e-05 -0.0010169)
(0 -1.74065e-05 -0.00101877)
(0 -1.93178e-05 -0.00102085)
(0 -2.1443e-05 -0.00102317)
(0 -2.38063e-05 -0.00102573)
(0 -2.64348e-05 -0.00102858)
(0 -2.93586e-05 -0.00103174)
(0 -3.2611e-05 -0.00103525)
(0 -3.62287e-05 -0.00103914)
(0 -4.02506e-05 -0.00104346)
(0 -4.47125e-05 -0.00104825)
(0 -4.96319e-05 -0.00105349)
(0 -5.49674e-05 -0.00105911)
(0 -6.05288e-05 -0.0010655)
(0 -6.58086e-05 -0.00107464)
(0 -6.96567e-05 -0.00108796)
(0 -7.01162e-05 -0.00108958)
(0 -6.36121e-05 -0.00103669)
(0 -4.59797e-05 -0.000796891)
(0 -1.35853e-05 -0.0034149)
(0 -1.29265e-05 -5.19011e-05)
(0 -0.000262697 -0.00427807)
(0 7.12006e-07 -0.000194711)
(0 0.000244368 -0.00480048)
(0 2.37926e-05 -0.000392208)
(0 0.000229652 -0.0044952)
(0 2.70888e-05 -0.000482011)
(0 -0.000143684 -0.00433725)
(0 -8.28669e-05 -0.00143474)
(0 1.99479e-05 -0.00500969)
(0 3.48851e-05 -0.000331241)
(0 0.000873205 -0.00393641)
(0 2.09914e-05 -0.00044052)
(0 0.000375508 -0.00410434)
(0 4.43592e-05 -0.00122219)
(0 0.000280676 -0.00332517)
(0 0.000236652 -0.0025704)
(0 0.000128254 -0.00450138)
(0 3.89895e-05 -0.000710419)
(0 -7.203e-05 -0.00284006)
(0 -6.13716e-05 -0.00128775)
(0 -9.23026e-05 -0.00176849)
(0 -3.87662e-05 -0.0012663)
(0 -1.66469e-05 -0.00129326)
(0 3.73271e-07 -0.0011471)
(0 6.00236e-06 -0.00111373)
(0 7.01656e-06 -0.00110951)
(0 6.7978e-06 -0.00110287)
(0 6.24143e-06 -0.00109336)
(0 5.5929e-06 -0.00108408)
(0 4.95503e-06 -0.00107587)
(0 4.37413e-06 -0.00106858)
(0 3.86111e-06 -0.00106201)
(0 3.41153e-06 -0.00105608)
(0 3.0175e-06 -0.00105072)
(0 2.67162e-06 -0.00104588)
(0 2.3675e-06 -0.00104151)
(0 2.09968e-06 -0.00103756)
(0 1.86348e-06 -0.00103399)
(0 1.65486e-06 -0.00103077)
(0 1.47036e-06 -0.00102785)
(0 1.307e-06 -0.00102521)
(0 1.16221e-06 -0.00102282)
(0 1.03374e-06 -0.00102065)
(0 9.19667e-07 -0.0010187)
(0 8.18288e-07 -0.00101692)
(0 7.28131e-07 -0.00101532)
(0 6.47906e-07 -0.00101387)
(0 5.76484e-07 -0.00101255)
(0 5.12873e-07 -0.00101136)
(0 4.56204e-07 -0.00101029)
(0 4.05709e-07 -0.00100931)
(0 3.60703e-07 -0.00100843)
(0 3.20584e-07 -0.00100763)
(0 2.84815e-07 -0.0010069)
(0 2.52921e-07 -0.00100625)
(0 2.2448e-07 -0.00100566)
(0 1.99118e-07 -0.00100512)
(0 1.76501e-07 -0.00100463)
(0 1.56333e-07 -0.00100419)
(0 1.38349e-07 -0.00100379)
(0 1.22317e-07 -0.00100343)
(0 1.08028e-07 -0.00100311)
(0 9.52995e-08 -0.00100281)
(0 8.39699e-08 -0.00100254)
(0 7.38937e-08 -0.0010023)
(0 6.49412e-08 -0.00100208)
(0 5.69947e-08 -0.00100188)
(0 4.99471e-08 -0.0010017)
(0 4.37012e-08 -0.00100154)
(0 3.81699e-08 -0.00100139)
(0 3.32754e-08 -0.00100126)
(0 2.89484e-08 -0.00100114)
(0 2.51271e-08 -0.00100103)
(0 2.17564e-08 -0.00100093)
(0 1.87873e-08 -0.00100084)
(0 1.61764e-08 -0.00100076)
(0 1.38852e-08 -0.00100069)
(0 1.18794e-08 -0.00100062)
(0 1.01288e-08 -0.00100056)
(0 8.60673e-09 -0.00100051)
(0 7.28951e-09 -0.00100046)
(0 6.15635e-09 -0.00100041)
(0 5.18896e-09 -0.00100037)
(0 4.37131e-09 -0.00100033)
(0 3.68939e-09 -0.0010003)
(0 3.13108e-09 -0.00100027)
(0 2.68593e-09 -0.00100024)
(0 2.34505e-09 -0.00100022)
(0 2.10096e-09 -0.00100019)
(0 1.94735e-09 -0.00100017)
(0 1.87865e-09 -0.00100015)
(0 1.88902e-09 -0.00100013)
(0 1.97048e-09 -0.00100012)
(0 2.11011e-09 -0.0010001)
(0 2.28933e-09 -0.00100008)
(0 2.48294e-09 -0.00100007)
(0 2.66252e-09 -0.00100006)
(0 2.72172e-09 -0.00100004)
(5.82179e-10 0 -0.00100006)
(5.13705e-10 0 -0.00100006)
(4.34482e-10 0 -0.00100007)
(3.90399e-10 0 -0.00100007)
(3.92029e-10 0 -0.00100007)
(4.27731e-10 0 -0.00100007)
(4.82764e-10 0 -0.00100008)
(5.47614e-10 0 -0.00100008)
(6.17566e-10 0 -0.00100009)
(6.90616e-10 0 -0.00100009)
(7.65928e-10 0 -0.0010001)
(8.43026e-10 0 -0.00100011)
(9.21434e-10 0 -0.00100012)
(1.00053e-09 0 -0.00100013)
(1.07943e-09 0 -0.00100014)
(1.15698e-09 0 -0.00100016)
(1.23157e-09 0 -0.00100017)
(1.30112e-09 0 -0.00100019)
(1.36287e-09 0 -0.00100021)
(1.41326e-09 0 -0.00100023)
(1.44768e-09 0 -0.00100025)
(1.46023e-09 0 -0.00100028)
(1.4434e-09 0 -0.00100031)
(1.38768e-09 0 -0.00100034)
(1.28111e-09 0 -0.00100037)
(1.10884e-09 0 -0.00100041)
(8.52641e-10 0 -0.00100046)
(4.90411e-10 0 -0.0010005)
(-4.4976e-12 0 -0.00100056)
(-6.63877e-10 0 -0.00100062)
(-1.52536e-09 0 -0.00100068)
(-2.63318e-09 0 -0.00100076)
(-4.039e-09 0 -0.00100084)
(-5.80288e-09 0 -0.00100093)
(-7.99444e-09 0 -0.00100103)
(-1.06942e-08 0 -0.00100114)
(-1.39952e-08 0 -0.00100126)
(-1.80048e-08 0 -0.0010014)
(-2.28474e-08 0 -0.00100155)
(-2.86666e-08 0 -0.00100172)
(-3.56283e-08 0 -0.0010019)
(-4.39246e-08 0 -0.00100211)
(-5.37767e-08 0 -0.00100234)
(-6.54408e-08 0 -0.00100259)
(-7.92136e-08 0 -0.00100287)
(-9.54391e-08 0 -0.00100319)
(-1.14515e-07 0 -0.00100353)
(-1.36901e-07 0 -0.00100392)
(-1.63127e-07 0 -0.00100435)
(-1.93803e-07 0 -0.00100482)
(-2.29629e-07 0 -0.00100535)
(-2.71409e-07 0 -0.00100593)
(-3.20062e-07 0 -0.00100659)
(-3.76639e-07 0 -0.00100731)
(-4.42335e-07 0 -0.00100811)
(-5.18497e-07 0 -0.00100901)
(-6.06628e-07 0 -0.00101)
(-7.08453e-07 0 -0.00101111)
(-8.25929e-07 0 -0.00101233)
(-9.61252e-07 0 -0.0010137)
(-1.11687e-06 0 -0.00101521)
(-1.29551e-06 0 -0.0010169)
(-1.50021e-06 0 -0.00101877)
(-1.73429e-06 0 -0.00102085)
(-2.00134e-06 0 -0.00102317)
(-2.30522e-06 0 -0.00102573)
(-2.64986e-06 0 -0.00102858)
(-3.03904e-06 0 -0.00103174)
(-3.47669e-06 0 -0.00103525)
(-3.9666e-06 0 -0.00103914)
(-4.51174e-06 0 -0.00104346)
(-5.1175e-06 0 -0.00104825)
(-5.8008e-06 0 -0.00105349)
(-6.59222e-06 0 -0.00105911)
(-7.53186e-06 0 -0.0010655)
(-8.62287e-06 0 -0.00107464)
(-9.63438e-06 0 -0.00108796)
(-9.77212e-06 0 -0.00108958)
(-6.9477e-06 0 -0.00103669)
(2.00337e-06 0 -0.000796891)
(5.51586e-06 0 -0.0034149)
(-2.74225e-05 0 -5.19011e-05)
(-8.92635e-05 0 -0.00427807)
(-9.29229e-06 0 -0.000194711)
(0.000127155 0 -0.00480048)
(8.0874e-06 0 -0.000392208)
(0.000312202 0 -0.0044952)
(6.62581e-06 0 -0.000482011)
(-3.23386e-05 0 -0.00433725)
(-6.91905e-05 0 -0.00143474)
(-0.000240627 0 -0.00500969)
(-1.70533e-05 0 -0.000331241)
(-0.00107944 0 -0.00393641)
(-4.49637e-05 0 -0.00044052)
(-0.000180604 0 -0.00410434)
(3.10082e-05 0 -0.00122219)
(0.000490932 0 -0.00332517)
(0.000359624 0 -0.0025704)
(0.000184139 0 -0.00450138)
(-9.54445e-06 0 -0.000710419)
(-0.000304581 0 -0.00284006)
(-0.000276646 0 -0.00128775)
(-0.000365378 0 -0.00176849)
(-0.000149879 0 -0.0012663)
(-3.78784e-05 0 -0.00129326)
(3.36479e-05 0 -0.0011471)
(6.47103e-05 0 -0.00111373)
(7.55163e-05 0 -0.00110951)
(7.63724e-05 0 -0.00110287)
(7.26675e-05 0 -0.00109336)
(6.7306e-05 0 -0.00108408)
(6.16467e-05 0 -0.00107587)
(5.6224e-05 0 -0.00106858)
(5.11998e-05 0 -0.00106201)
(4.65967e-05 0 -0.00105608)
(4.23945e-05 0 -0.00105072)
(3.8563e-05 0 -0.00104588)
(3.50713e-05 0 -0.00104151)
(3.18901e-05 0 -0.00103756)
(2.89926e-05 0 -0.00103399)
(2.63539e-05 0 -0.00103077)
(2.39514e-05 0 -0.00102785)
(2.17643e-05 0 -0.00102521)
(1.97738e-05 0 -0.00102282)
(1.79625e-05 0 -0.00102065)
(1.63145e-05 0 -0.0010187)
(1.48154e-05 0 -0.00101692)
(1.34521e-05 0 -0.00101532)
(1.22124e-05 0 -0.00101387)
(1.10853e-05 0 -0.00101255)
(1.00609e-05 0 -0.00101136)
(9.12983e-06 0 -0.00101029)
(8.28382e-06 0 -0.00100931)
(7.51522e-06 0 -0.00100843)
(6.81707e-06 0 -0.00100763)
(6.183e-06 0 -0.0010069)
(5.60723e-06 0 -0.00100625)
(5.08449e-06 0 -0.00100566)
(4.60995e-06 0 -0.00100512)
(4.17925e-06 0 -0.00100463)
(3.78839e-06 0 -0.00100419)
(3.43374e-06 0 -0.00100379)
(3.112e-06 0 -0.00100343)
(2.82014e-06 0 -0.00100311)
(2.55544e-06 0 -0.00100281)
(2.31541e-06 0 -0.00100254)
(2.09777e-06 0 -0.0010023)
(1.90046e-06 0 -0.00100208)
(1.72162e-06 0 -0.00100188)
(1.55954e-06 0 -0.0010017)
(1.41266e-06 0 -0.00100154)
(1.27959e-06 0 -0.00100139)
(1.15903e-06 0 -0.00100126)
(1.04984e-06 0 -0.00100114)
(9.50951e-07 0 -0.00100103)
(8.61412e-07 0 -0.00100093)
(7.80353e-07 0 -0.00100084)
(7.06988e-07 0 -0.00100076)
(6.40604e-07 0 -0.00100069)
(5.80553e-07 0 -0.00100062)
(5.2625e-07 0 -0.00100056)
(4.77164e-07 0 -0.00100051)
(4.32814e-07 0 -0.00100046)
(3.92766e-07 0 -0.00100041)
(3.56626e-07 0 -0.00100037)
(3.24039e-07 0 -0.00100033)
(2.94685e-07 0 -0.0010003)
(2.68273e-07 0 -0.00100027)
(2.44543e-07 0 -0.00100024)
(2.23259e-07 0 -0.00100022)
(2.04212e-07 0 -0.00100019)
(1.8721e-07 0 -0.00100017)
(1.72086e-07 0 -0.00100015)
(1.58686e-07 0 -0.00100013)
(1.46879e-07 0 -0.00100012)
(1.36555e-07 0 -0.0010001)
(1.27648e-07 0 -0.00100008)
(1.20215e-07 0 -0.00100007)
(1.1458e-07 0 -0.00100006)
(1.11467e-07 0 -0.00100004)
)
;
    }
    procBoundary3to1
    {
        type            processor;
        value           nonuniform List<vector> 
180
(
(6.44252e-10 -1.05049e-08 -0.000999937)
(6.41483e-10 -1.31442e-08 -0.000999936)
(6.45242e-10 -1.76109e-08 -0.000999934)
(6.94601e-10 -2.32335e-08 -0.000999932)
(7.95144e-10 -2.95814e-08 -0.000999929)
(9.35159e-10 -3.6446e-08 -0.000999925)
(1.10306e-09 -4.37657e-08 -0.000999921)
(1.29223e-09 -5.15592e-08 -0.000999916)
(1.50094e-09 -5.98843e-08 -0.00099991)
(1.7305e-09 -6.88183e-08 -0.000999903)
(1.98389e-09 -7.84495e-08 -0.000999895)
(2.26499e-09 -8.88748e-08 -0.000999886)
(2.57832e-09 -1.002e-07 -0.000999876)
(2.92896e-09 -1.12539e-07 -0.000999864)
(3.32255e-09 -1.26018e-07 -0.000999852)
(3.76533e-09 -1.40773e-07 -0.000999837)
(4.2642e-09 -1.56955e-07 -0.000999821)
(4.82673e-09 -1.74726e-07 -0.000999804)
(5.46123e-09 -1.94268e-07 -0.000999784)
(6.1768e-09 -2.15779e-07 -0.000999762)
(6.98343e-09 -2.39478e-07 -0.000999738)
(7.89201e-09 -2.65604e-07 -0.000999711)
(8.91447e-09 -2.94424e-07 -0.000999681)
(1.00638e-08 -3.26232e-07 -0.000999648)
(1.13544e-08 -3.6135e-07 -0.000999611)
(1.28017e-08 -4.00138e-07 -0.000999571)
(1.44228e-08 -4.42991e-07 -0.000999526)
(1.62362e-08 -4.90346e-07 -0.000999477)
(1.82625e-08 -5.42689e-07 -0.000999422)
(2.05241e-08 -6.00554e-07 -0.000999361)
(2.30463e-08 -6.64536e-07 -0.000999294)
(2.58571e-08 -7.35289e-07 -0.00099922)
(2.89883e-08 -8.13541e-07 -0.000999138)
(3.24756e-08 -9.00095e-07 -0.000999048)
(3.63599e-08 -9.95843e-07 -0.000998948)
(4.06887e-08 -1.10177e-06 -0.000998837)
(4.5517e-08 -1.21897e-06 -0.000998714)
(5.09103e-08 -1.34866e-06 -0.000998579)
(5.69467e-08 -1.49217e-06 -0.000998429)
(6.37218e-08 -1.65102e-06 -0.000998263)
(7.13541e-08 -1.82684e-06 -0.000998078)
(7.99929e-08 -2.02151e-06 -0.000997874)
(8.98313e-08 -2.23707e-06 -0.000997647)
(1.01123e-07 -2.47583e-06 -0.000997395)
(1.14166e-07 -2.74036e-06 -0.000997116)
(1.29224e-07 -3.03346e-06 -0.000996806)
(1.46608e-07 -3.35826e-06 -0.000996462)
(1.66683e-07 -3.71823e-06 -0.000996081)
(1.89879e-07 -4.11724e-06 -0.000995658)
(2.16697e-07 -4.55959e-06 -0.000995188)
(2.47722e-07 -5.05005e-06 -0.000994667)
(2.8364e-07 -5.59397e-06 -0.000994088)
(3.25248e-07 -6.19726e-06 -0.000993445)
(3.73477e-07 -6.86654e-06 -0.00099273)
(4.2941e-07 -7.60916e-06 -0.000991935)
(4.94307e-07 -8.43331e-06 -0.000991051)
(5.6963e-07 -9.34809e-06 -0.000990068)
(6.57076e-07 -1.03637e-05 -0.000988973)
(7.58609e-07 -1.14914e-05 -0.000987754)
(8.76504e-07 -1.27439e-05 -0.000986396)
(1.01339e-06 -1.41353e-05 -0.000984883)
(1.17229e-06 -1.56813e-05 -0.000983196)
(1.35669e-06 -1.73994e-05 -0.000981314)
(1.57059e-06 -1.93091e-05 -0.000979214)
(1.81857e-06 -2.14322e-05 -0.000976871)
(2.10582e-06 -2.3793e-05 -0.000974254)
(2.43819e-06 -2.64184e-05 -0.000971331)
(2.82212e-06 -2.93382e-05 -0.000968064)
(3.26439e-06 -3.25855e-05 -0.000964413)
(3.77113e-06 -3.61962e-05 -0.000960333)
(4.34538e-06 -4.02066e-05 -0.000955777)
(4.98432e-06 -4.46461e-05 -0.000950687)
(5.67533e-06 -4.95142e-05 -0.000944954)
(6.37464e-06 -5.47249e-05 -0.000938421)
(6.98083e-06 -5.99893e-05 -0.000931277)
(7.31657e-06 -6.4586e-05 -0.000925064)
(7.12239e-06 -6.71675e-05 -0.000921476)
(6.07057e-06 -6.54868e-05 -0.000908994)
(3.87008e-06 -5.62891e-05 -0.000856169)
(2.45131e-07 -3.64039e-05 -0.000655302)
(-4.77209e-06 9.89904e-07 -0.00250129)
(-3.18098e-05 1.64036e-05 -0.000106008)
(0.000177853 -0.00026655 -0.00255167)
(6.04731e-05 -6.99344e-05 -0.00322844)
(-2.54212e-05 3.88626e-05 -0.000689005)
(-0.000488043 0.000259687 -0.0038402)
(-5.02561e-05 3.79566e-05 -0.000400749)
(-0.00020196 0.000178025 -0.00278598)
(7.16029e-05 -0.00010659 -0.00163227)
(0.000311671 -0.000155411 -0.00360458)
(2.49586e-05 2.95636e-05 -0.00135488)
(2.3419e-05 6.28883e-05 -0.00389534)
(-4.94555e-05 6.37045e-05 -0.000912394)
(-0.000180245 0.000554814 -0.00341502)
(-3.00374e-06 -1.61987e-05 -0.000518817)
(-0.000199467 0.000421248 -0.00361023)
(-9.26067e-05 0.000157091 -0.00173392)
(-0.000160929 0.000176688 -0.00196427)
(-0.000219574 0.000259292 -0.00343457)
(-6.06263e-05 -2.46333e-05 -0.00169648)
(-0.000252221 -4.01078e-05 -0.0027388)
(-0.000416941 -5.30791e-05 -0.00237391)
(-0.000131862 -4.40615e-05 -0.00167483)
(-2.62267e-05 -1.58588e-05 -0.00162909)
(5.93607e-06 8.08848e-07 -0.00131407)
(5.83565e-05 1.74521e-05 -0.00118999)
(8.56871e-05 1.71578e-05 -0.00109696)
(9.58972e-05 1.32507e-05 -0.00108294)
(9.5832e-05 9.88045e-06 -0.00108277)
(9.06103e-05 7.60924e-06 -0.00107817)
(8.34461e-05 6.14614e-06 -0.00107132)
(7.59479e-05 5.16456e-06 -0.00106473)
(6.87885e-05 4.45229e-06 -0.00105884)
(6.21906e-05 3.89252e-06 -0.00105352)
(5.61913e-05 3.42666e-06 -0.00104867)
(5.07619e-05 3.02655e-06 -0.00104423)
(4.58558e-05 2.6779e-06 -0.00104019)
(4.14244e-05 2.37218e-06 -0.0010365)
(3.74222e-05 2.10326e-06 -0.00103315)
(3.38077e-05 1.86624e-06 -0.0010301)
(3.05431e-05 1.657e-06 -0.00102733)
(2.75945e-05 1.47202e-06 -0.0010248)
(2.49312e-05 1.30829e-06 -0.00102251)
(2.25257e-05 1.16321e-06 -0.00102042)
(2.03527e-05 1.03453e-06 -0.00101853)
(1.83899e-05 9.20277e-07 -0.00101681)
(1.66169e-05 8.18765e-07 -0.00101524)
(1.50152e-05 7.28504e-07 -0.00101382)
(1.35682e-05 6.48198e-07 -0.00101254)
(1.22611e-05 5.76712e-07 -0.00101137)
(1.10801e-05 5.13052e-07 -0.00101031)
(1.00132e-05 4.56345e-07 -0.00100934)
(9.04924e-06 4.05819e-07 -0.00100847)
(8.17828e-06 3.6079e-07 -0.00100768)
(7.39134e-06 3.20652e-07 -0.00100696)
(6.68029e-06 2.84869e-07 -0.00100631)
(6.0378e-06 2.52964e-07 -0.00100572)
(5.45723e-06 2.24514e-07 -0.00100518)
(4.93261e-06 1.99145e-07 -0.00100469)
(4.45854e-06 1.76522e-07 -0.00100425)
(4.03013e-06 1.5635e-07 -0.00100385)
(3.64298e-06 1.38363e-07 -0.00100349)
(3.29311e-06 1.22327e-07 -0.00100316)
(2.97691e-06 1.08036e-07 -0.00100287)
(2.69115e-06 9.53061e-08 -0.0010026)
(2.43289e-06 8.39752e-08 -0.00100235)
(2.19948e-06 7.38979e-08 -0.00100213)
(1.98852e-06 6.49445e-08 -0.00100193)
(1.79785e-06 5.69974e-08 -0.00100175)
(1.62553e-06 4.99492e-08 -0.00100158)
(1.46979e-06 4.37029e-08 -0.00100144)
(1.32904e-06 3.81712e-08 -0.0010013)
(1.20184e-06 3.32765e-08 -0.00100118)
(1.08689e-06 2.89493e-08 -0.00100107)
(9.83028e-07 2.51278e-08 -0.00100097)
(8.89187e-07 2.17569e-08 -0.00100088)
(8.04411e-07 1.87877e-08 -0.00100079)
(7.27835e-07 1.61768e-08 -0.00100072)
(6.58679e-07 1.38855e-08 -0.00100065)
(5.96237e-07 1.18796e-08 -0.00100059)
(5.39873e-07 1.0129e-08 -0.00100053)
(4.89011e-07 8.60688e-09 -0.00100048)
(4.43132e-07 7.28963e-09 -0.00100044)
(4.01768e-07 6.15645e-09 -0.00100039)
(3.64496e-07 5.18904e-09 -0.00100036)
(3.30936e-07 4.37137e-09 -0.00100032)
(3.00744e-07 3.68944e-09 -0.00100029)
(2.73612e-07 3.13112e-09 -0.00100026)
(2.49262e-07 2.68596e-09 -0.00100024)
(2.27443e-07 2.34507e-09 -0.00100021)
(2.07933e-07 2.10098e-09 -0.00100019)
(1.9053e-07 1.94736e-09 -0.00100017)
(1.75056e-07 1.87866e-09 -0.00100015)
(1.61353e-07 1.88903e-09 -0.00100013)
(1.49288e-07 1.97049e-09 -0.00100012)
(1.38754e-07 2.11011e-09 -0.0010001)
(1.29687e-07 2.28933e-09 -0.00100009)
(1.2213e-07 2.48294e-09 -0.00100008)
(1.16374e-07 2.66252e-09 -0.00100007)
(1.13231e-07 2.72172e-09 -0.00100006)
)
;
    }
    procBoundary3to2
    {
        type            processor;
        value           nonuniform List<vector> 
180
(
(5.8218e-10 -1.04428e-08 -0.00100006)
(5.13705e-10 -1.30165e-08 -0.00100006)
(4.34484e-10 -1.74002e-08 -0.00100007)
(3.904e-10 -2.29293e-08 -0.00100007)
(3.92031e-10 -2.91784e-08 -0.00100007)
(4.27733e-10 -3.59387e-08 -0.00100007)
(4.82766e-10 -4.31455e-08 -0.00100008)
(5.47617e-10 -5.08147e-08 -0.00100008)
(6.17569e-10 -5.90011e-08 -0.00100009)
(6.90619e-10 -6.77786e-08 -0.0010001)
(7.65932e-10 -7.72317e-08 -0.0010001)
(8.4303e-10 -8.7453e-08 -0.00100011)
(9.2144e-10 -9.85431e-08 -0.00100012)
(1.00053e-09 -1.10611e-07 -0.00100013)
(1.07944e-09 -1.23775e-07 -0.00100014)
(1.15699e-09 -1.38166e-07 -0.00100016)
(1.23158e-09 -1.53923e-07 -0.00100017)
(1.30113e-09 -1.71201e-07 -0.00100019)
(1.36289e-09 -1.90171e-07 -0.00100021)
(1.41328e-09 -2.11017e-07 -0.00100023)
(1.44771e-09 -2.33943e-07 -0.00100025)
(1.46026e-09 -2.59174e-07 -0.00100028)
(1.44344e-09 -2.86955e-07 -0.00100031)
(1.38773e-09 -3.17558e-07 -0.00100034)
(1.28117e-09 -3.5128e-07 -0.00100037)
(1.10892e-09 -3.88448e-07 -0.00100041)
(8.52739e-10 -4.29425e-07 -0.00100045)
(4.90531e-10 -4.74605e-07 -0.0010005)
(-4.34856e-12 -5.24428e-07 -0.00100055)
(-6.63693e-10 -5.79374e-07 -0.00100061)
(-1.52513e-09 -6.39974e-07 -0.00100067)
(-2.6329e-09 -7.0681e-07 -0.00100074)
(-4.03865e-09 -7.80528e-07 -0.00100081)
(-5.80245e-09 -8.61834e-07 -0.00100089)
(-7.99391e-09 -9.5151e-07 -0.00100099)
(-1.06936e-08 -1.05041e-06 -0.00100109)
(-1.39944e-08 -1.15949e-06 -0.0010012)
(-1.80038e-08 -1.27978e-06 -0.00100132)
(-2.28461e-08 -1.41243e-06 -0.00100145)
(-2.8665e-08 -1.55869e-06 -0.0010016)
(-3.56264e-08 -1.71993e-06 -0.00100176)
(-4.39222e-08 -1.89768e-06 -0.00100194)
(-5.37737e-08 -2.09357e-06 -0.00100213)
(-6.54371e-08 -2.3094e-06 -0.00100235)
(-7.92091e-08 -2.54714e-06 -0.00100259)
(-9.54334e-08 -2.809e-06 -0.00100285)
(-1.14508e-07 -3.09738e-06 -0.00100313)
(-1.36892e-07 -3.41495e-06 -0.00100345)
(-1.63116e-07 -3.7646e-06 -0.00100379)
(-1.93789e-07 -4.14953e-06 -0.00100417)
(-2.29612e-07 -4.57324e-06 -0.00100459)
(-2.71388e-07 -5.03958e-06 -0.00100505)
(-3.20036e-07 -5.55277e-06 -0.00100556)
(-3.76606e-07 -6.11742e-06 -0.00100611)
(-4.42293e-07 -6.73863e-06 -0.00100672)
(-5.18444e-07 -7.422e-06 -0.0010074)
(-6.06562e-07 -8.17366e-06 -0.00100813)
(-7.0837e-07 -9.00039e-06 -0.00100895)
(-8.25825e-07 -9.90962e-06 -0.00100984)
(-9.61121e-07 -1.09095e-05 -0.00101083)
(-1.11671e-06 -1.20092e-05 -0.00101191)
(-1.29531e-06 -1.32185e-05 -0.00101311)
(-1.49995e-06 -1.45486e-05 -0.00101443)
(-1.73395e-06 -1.60117e-05 -0.00101589)
(-2.00092e-06 -1.76215e-05 -0.0010175)
(-2.30468e-06 -1.93932e-05 -0.0010193)
(-2.64917e-06 -2.13441e-05 -0.0010213)
(-3.03816e-06 -2.3494e-05 -0.00102353)
(-3.47554e-06 -2.58653e-05 -0.00102604)
(-3.96508e-06 -2.84846e-05 -0.00102889)
(-4.50972e-06 -3.13832e-05 -0.00103217)
(-5.11494e-06 -3.45899e-05 -0.00103589)
(-5.7984e-06 -3.81038e-05 -0.00104)
(-6.59365e-06 -4.18563e-05 -0.0010444)
(-7.55079e-06 -4.56157e-05 -0.00104936)
(-8.70241e-06 -4.88298e-05 -0.00105662)
(-9.90927e-06 -5.0484e-05 -0.00106851)
(-1.05673e-05 -4.93075e-05 -0.00107387)
(-9.08863e-06 -4.38949e-05 -0.00103924)
(-2.81603e-06 -3.43917e-05 -0.000728792)
(8.14385e-07 -1.13724e-05 -0.00330154)
(-6.73487e-06 5.69484e-06 -5.88772e-05)
(-0.00011548 1.04088e-05 -0.00380659)
(-4.62122e-06 1.52943e-05 -0.000321786)
(8.15417e-05 -0.000141218 -0.00383175)
(5.08631e-05 -0.000216927 -0.00423894)
(5.59809e-06 8.94732e-06 -0.000436963)
(0.000378428 -0.000395352 -0.004389)
(-1.87007e-05 3.44103e-05 -0.00118039)
(-0.000222709 0.000640679 -0.00292086)
(-0.000302652 0.000835116 -0.00320439)
(-6.80858e-05 0.000111837 -0.000710144)
(-0.000793269 0.00119093 -0.00279488)
(-0.000193303 0.000283679 -0.00200565)
(-3.41421e-05 -2.79935e-05 -0.000439106)
(4.23885e-05 -4.63346e-05 -0.00298956)
(-8.45495e-06 -7.54574e-05 -0.000551514)
(0.000411968 -0.00038211 -0.00180236)
(0.000440676 -0.000424944 -0.0021572)
(-5.40012e-05 -0.000244244 -0.00151757)
(-0.000313258 -0.00030926 -0.00250222)
(-0.000164376 -8.89925e-05 -0.00188313)
(-8.34034e-05 3.83808e-05 -0.0019715)
(-3.22846e-05 4.37239e-05 -0.00161914)
(8.17755e-06 2.22429e-05 -0.00123884)
(5.54334e-05 3.15321e-05 -0.00105784)
(7.42721e-05 3.42367e-05 -0.000922026)
(7.98611e-05 3.27969e-05 -0.000928389)
(7.82916e-05 2.944e-05 -0.000943718)
(7.35009e-05 2.57774e-05 -0.000949948)
(6.76695e-05 2.24393e-05 -0.00095299)
(6.18165e-05 1.95458e-05 -0.000956018)