/*--------------------------------*- C++ -*----------------------------------*\
| =========                 |                                                 |
| \\      /  F ield         | OpenFOAM: The Open Source CFD Toolbox           |
|  \\    /   O peration     | Version:  5.x                                   |
|   \\  /    A nd           | Web:      www.OpenFOAM.org                      |
|    \\/     M anipulation  |                                                 |
\*---------------------------------------------------------------------------*/
FoamFile
{
    version     2.0;
    format      ascii;
    class       surfaceScalarField;
    location    "20000";
    object      phi;
}
// * * * * * * * * * * * * * * * * * * * * * * * * * * * * * * * * * * * * * //

dimensions      [0 3 -1 0 0 0 0];

internalField   nonuniform List<scalar> 
5825
(
-9.56775e-06
4.19448e-05
-1000
-4.1111e-05
3.11711e-05
-1000
-6.17516e-05
3.19618e-05
-1000
-7.45245e-05
3.11142e-05
-1000
1.46554e-05
-1000
-1.7655e-05
4.88473e-05
-1000
-3.94786e-05
4.62199e-05
-1000
-6.41185e-05
5.37394e-05
-1000
-7.85648e-05
5.99026e-05
-1000
5.64323e-05
-1000
-2.20933e-05
7.02263e-05
-1000
-4.03161e-05
7.36746e-05
-1000
-6.01075e-05
8.41993e-05
-1000
-7.15005e-05
9.65553e-05
-1000
7.86843e-05
-1000
-2.17881e-05
9.93853e-05
-1000
-2.63894e-05
0.000117038
-1000
-4.91244e-05
0.000139869
-1000
-7.09952e-05
0.000128967
-1000
9.70185e-05
-1000
-5.04108e-06
-999.999
-1.31994e-05
-999.999
-7.18056e-05
-999.999
-0.000134613
-1000
-1000
-3.89779e-05
0.00011309
-1000
-0.000121937
9.09111e-05
-1000
-0.000174567
9.54476e-05
-1000
-0.000218203
9.09525e-05
-1000
6.1813e-05
-1000
-5.60369e-05
0.000150848
-1000
-0.000120677
0.000140223
-1000
-0.000188929
0.000149905
-1000
-0.000223943
0.000176606
-1000
0.000173668
-1000
-6.77668e-05
0.000224116
-1000
-0.00012023
0.000230238
-1000
-0.000171594
0.000255724
-1000
-0.000208379
0.000272436
-1000
0.000246465
-1000
-5.98635e-05
0.00030427
-1000
-8.78361e-05
0.000345069
-1000
-0.000154005
0.000377264
-1000
-0.000223056
0.000352254
-1000
0.00027497
-1000
-1.88141e-05
-999.999
-6.57617e-05
-999.999
-0.000208335
-999.999
-0.000370598
-1000
-1000
-7.27676e-05
0.000195663
-1000
-0.000224053
0.000166573
-1000
-0.000314918
0.000165009
-1000
-0.000372563
0.000168034
-1000
0.000157163
-1000
-0.000102056
0.000283895
-1000
-0.000231239
0.000261637
-1000
-0.00033081
0.000276175
-1000
-0.000381372
0.000311224
-1000
0.000352228
-1000
-0.000120878
0.000428473
-1000
-0.000218358
0.000432649
-1000
-0.000298448
0.000464069
-1000
-0.000353815
0.000471718
-1000
0.000492751
-1000
-0.000111649
0.000560738
-1000
-0.000184346
0.000591412
-1000
-0.00027704
0.000614416
-1000
-0.000362547
0.0005964
-1000
0.000547758
-1000
-7.80328e-05
-999.999
-0.000165199
-999.999
-0.000320483
-999.999
-0.000474313
-1000
-1000
-0.000132115
0.000305075
-1000
-0.00034627
0.000268226
-1000
-0.000474695
0.000264674
-1000
-0.000536288
0.000269984
-1000
0.000295433
-1000
-0.000171263
0.000483245
-1000
-0.000355956
0.000461926
-1000
-0.000473647
0.00048235
-1000
-0.00052812
0.000508705
-1000
0.000547189
-1000
-0.000188384
0.00072404
-1000
-0.000336916
0.000727124
-1000
-0.000441131
0.000745937
-1000
-0.000507172
0.000733898
-1000
0.000737881
-1000
-0.000182264
0.000922854
-1000
-0.000320575
0.000935412
-1000
-0.000440148
0.00093035
-1000
-0.000506387
0.000899167
-1000
0.000871207
-1000
-0.000169756
-999.999
-0.000327376
-999.999
-0.000459524
-999.999
-0.000556022
-1000
-1000
-0.000220426
0.000456703
-1000
-0.000486787
0.000423537
-1000
-0.000640777
0.000426498
-1000
-0.000711151
0.000448094
-1000
0.000475418
-1000
-0.000255401
0.000800598
-1000
-0.000487655
0.000790878
-1000
-0.000620351
0.000809557
-1000
-0.000689241
0.000812202
-1000
0.000809561
-1000
-0.000263771
0.00117852
-1000
-0.000469878
0.001182
-1000
-0.000612116
0.00117116
-1000
-0.000692595
0.00111703
-1000
0.00108227
-1000
-0.000257049
0.00147972
-999.999
-0.000484062
0.00146537
-1000
-0.000655326
0.00141359
-1000
-0.000747712
0.00133168
-1000
0.00131558
-1000
-0.000275024
-999.999
-0.00053573
-999.999
-0.000693844
-999.999
-0.000817773
-999.999
-1000
-0.00033597
0.000672689
-1000
-0.000649255
0.000657154
-1000
-0.00084121
0.00066689
-1000
-0.000915815
0.000688923
-1000
0.000678887
-1000
-0.000354138
0.00126813
-1000
-0.000641764
0.00127284
-1000
-0.000820461
0.00127815
-1000
-0.000925438
0.00124269
-1000
0.00118236
-1000
-0.000350668
0.00182589
-1000
-0.000636804
0.0018292
-1000
-0.000853619
0.0017866
-1000
-0.000990794
0.0017019
-1000
0.00161125
-1000
-0.000348263
0.00224411
-1000
-0.000679945
0.0022057
-1000
-0.000930318
0.0021204
-1000
-0.00109935
0.0020164
-1000
0.00195121
-1000
-0.00039173
-999.999
-0.000770962
-999.999
-0.00101303
-999.999
-0.00115743
-999.999
-1000
-0.000482647
0.000977155
-1000
-0.000872417
0.000985887
-1000
-0.00116849
0.000992076
-1000
-0.0013472
0.000992746
-1000
0.000948206
-1000
-0.000479605
0.00190301
-1000
-0.000868206
0.00191488
-1000
-0.00116976
0.00190321
-1000
-0.00139261
0.00185053
-1000
0.00177868
-1000
-0.000471778
0.00267337
-1000
-0.000880425
0.00266975
-1000
-0.00122276
0.00262114
-1000
-0.00146368
0.00255531
-1000
0.00245264
-1000
-0.000479018
0.00319074
-1000
-0.000927202
0.00314579
-1000
-0.00127987
0.00308097
-1000
-0.00153635
0.00300607
-1000
0.00299726
-1000
-0.000533029
-999.998
-0.000999085
-999.999
-0.00137155
-999.999
-0.00162214
-999.999
-1000
-0.000658969
0.00141024
-1000
-0.00120681
0.00143429
-1000
-0.00168216
0.00142818
-1000
-0.00201718
0.0014102
-1000
0.00138496
-1000.01
-0.00064276
0.00273281
-1000
-0.00121538
0.00274019
-1000
-0.0017033
0.0027201
-1000
-0.00204748
0.00268424
-1000
0.00265197
-1000
-0.000641857
0.00375636
-1000
-0.00123601
0.00374649
-1000
-0.0017402
0.00372437
-1000
-0.0020825
0.00370787
-1000
0.00364738
-1000
-0.000658862
0.00437514
-1000
-0.00125685
0.00436363
-1000
-0.00175156
0.00437011
-1000
-0.00210371
0.00435959
-1000
0.00431138
-1000
-0.000678707
-999.998
-0.00125013
-999.998
-0.00177521
-999.999
-0.00218011
-999.999
-1000
-0.000880171
0.0020126
-1000
-0.00169543
0.00203204
-1000
-0.0023926
0.00201396
-1000
-0.00284412
0.00199109
-1000.01
0.00199085
-1000.01
-0.000868375
0.00381743
-1000
-0.00171754
0.0038141
-1000
-0.00242046
0.0037936
-1000
-0.00285476
0.00377776
-1000.01
0.00377024
-1000.01
-0.000880699
0.00519234
-1000
-0.00173848
0.0051858
-1000
-0.00243535
0.00519213
-1000
-0.0028697
0.00519288
-1000
0.00517469
-1000
-0.000898809
0.00601772
-1000
-0.00173374
0.00605681
-1000
-0.00243322
0.00610849
-1000
-0.00290115
0.00610235
-1000
0.00597246
-1000
-0.000870966
-999.997
-0.00167094
-999.998
-0.00240864
-999.998
-0.00299039
-999.999
-1000
-0.00119448
0.00281242
-1000.01
-0.0023823
0.00281025
-1000.01
-0.00333374
0.00278363
-1000.01
-0.00390537
0.00275526
-1000.01
0.00273986
-1000.01
-0.00120705
0.00525843
-1000
-0.00241581
0.00524762
-1000
-0.00336982
0.00522536
-1000.01
-0.00393217
0.00521207
-1000.01
0.00520512
-1000.01
-0.00123
0.00716692
-1000
-0.00243905
0.00716765
-1000
-0.00338028
0.00717409
-1000
-0.00394619
0.00715339
-1000.01
0.00715918
-1000.01
-0.0012472
0.0083811
-1000
-0.00243672
0.00842491
-1000
-0.0033956
0.00844975
-1000
-0.00398761
0.00839465
-1000
0.00825584
-1000
-0.00121787
-999.996
-0.00240158
-999.997
-0.00336186
-999.998
-0.00409815
-999.999
-1000
-0.00166837
0.00384907
-1000.01
-0.00331662
0.00382391
-1000.01
-0.00458327
0.00379706
-1000.01
-0.00536055
0.00376803
-1000.01
0.00375565
-1000.01
-0.00170774
0.00720509
-1000.01
-0.00335399
0.00719781
-1000.01
-0.00462285
0.00717505
-1000.01
-0.00538517
0.00716643
-1000.01
0.00717145
-1000.01
-0.00173184
0.0098903
-1000
-0.00337827
0.00989526
-1000
-0.00462905
0.00988193
-1000.01
-0.00538418
0.0098463
-1000.01
0.00985174
-1000.01
-0.00175145
0.0116511
-1000
-0.00339552
0.0116575
-1000
-0.00465913
0.0116246
-1000
-0.00541084
0.0115527
-1000
0.0114727
-1000.01
-0.00176863
-999.995
-0.00342555
-999.996
-0.0046635
-999.997
-0.00549439
-999.999
-1000
-0.00234436
0.00521512
-1000.01
-0.00454253
0.00518874
-1000.01
-0.00621737
0.00517762
-1000.01
-0.00727019
0.00516938
-1000.02
0.00518664
-1000.02
-0.00239127
0.00986473
-1000.01
-0.00456661
0.00987524
-1000.01
-0.00623977
0.00985851
-1000.01
-0.00726874
0.0098552
-1000.01
0.00985549
-1000.02
-0.00240473
0.0136087
-1000.01
-0.00458455
0.0136216
-1000.01
-0.00624197
0.013591
-1000.01
-0.00726867
0.0135463
-1000.01
0.0135032
-1000.01
-0.00242402
0.016053
-1000
-0.0046176
0.0160413
-1000
-0.00628649
0.0159741
-1000
-0.00732147
0.0158954
-1000
0.0157837
-1000.01
-0.00247158
-999.994
-0.00468447
-999.995
-0.006347
-999.997
-0.00738082
-999.999
-1000
-0.00323692
0.00708149
-1000.01
-0.00612811
0.00708198
-1000.02
-0.00836165
0.00709164
-1000.02
-0.00977623
0.00709835
-1000.02
0.00710151
-1000.02
-0.00326318
0.0135113
-1000.01
-0.00613422
0.0135422
-1000.01
-0.00837433
0.0135243
-1000.02
-0.0097971
0.0134993
-1000.02
0.0134599
-1000.02
-0.0032633
0.0186537
-1000.01
-0.00615295
0.0186777
-1000.01
-0.00839906
0.018631
-1000.01
-0.00983739
0.0185606
-1000.01
0.0184618
-1000.02
-0.0032819
0.0219724
-1000
-0.00620178
0.0219717
-1000
-0.0084712
0.0218924
-1000
-0.00993716
0.0217857
-1000.01
0.0215817
-1000.01
-0.00333019
-999.992
-0.00628012
-999.993
-0.00857166
-999.995
-0.0100941
-999.998
-1000
-0.00437548
0.00967849
-1000.02
-0.0082371
0.00970966
-1000.02
-0.0112846
0.00971693
-1000.02
-0.0132462
0.00970414
-1000.03
0.00966585
-1000.03
-0.00437699
0.0184892
-1000.02
-0.00825069
0.0185241
-1000.02
-0.0113241
0.0184865
-1000.02
-0.0133183
0.0184238
-1000.03
0.018354
-1000.03
-0.00438311
0.0254817
-1000.01
-0.00828914
0.0255091
-1000.01
-0.0113868
0.0254437
-1000.01
-0.0133912
0.0253513
-1000.02
0.0252428
-1000.02
-0.00441394
0.0299611
-1000
-0.00835647
0.0299768
-1000
-0.0114807
0.0298984
-1000
-0.0135027
0.0297984
-1000.01
0.0296049
-1000.01
-0.00446337
-999.989
-0.00843195
-999.991
-0.0115734
-999.994
-0.0136468
-999.998
-1000
-0.00587433
0.0132622
-1000.03
-0.011146
0.0132983
-1000.03
-0.015352
0.0132756
-1000.03
-0.0180723
0.013229
-1000.04
0.0131658
-1000.05
-0.00588237
0.0252489
-1000.02
-0.0111965
0.0252718
-1000.02
-0.0154342
0.0252081
-1000.03
-0.0181795
0.0251147
-1000.03
0.0250197
-1000.04
-0.00591583
0.0347415
-1000.01
-0.011261
0.0347692
-1000.02
-0.0155271
0.034687
-1000.02
-0.0182778
0.0345792
-1000.03
0.0344828
-1000.03
-0.00596732
0.0408145
-1000
-0.0113443
0.0408539
-1000
-0.015635
0.0407773
-1000.01
-0.0183815
0.0406975
-1000.01
0.0406362
-1000.02
-0.00602018
-999.985
-0.0114198
-999.988
-0.0157064
-999.992
-0.0184175
-999.998
-1000
-0.0079467
0.0181338
-1000.04
-0.0151889
0.01815
-1000.04
-0.0209558
0.0180958
-1000.05
-0.0246657
0.0180224
-1000.05
0.017929
-1000.06
-0.00799052
0.0344343
-1000.03
-0.0152796
0.034452
-1000.03
-0.0210768
0.0343653
-1000.04
-0.024817
0.0342429
-1000.05
0.0341039
-1000.06
-0.00805043
0.0473721
-1000.02
-0.015367
0.0474101
-1000.02
-0.0211983
0.0473017
-1000.03
-0.0249567
0.0471635
-1000.03
0.0470463
-1000.04
-0.00811959
0.0556755
-1000
-0.0154756
0.0557353
-1000
-0.0213366
0.0556212
-1000.01
-0.0250771
0.0555056
-1000.02
0.0555054
-1000.03
-0.00818865
-999.98
-0.0155929
-999.983
-0.0214473
-999.989
-0.0250582
-999.997
-1000.01
-0.0108451
0.024726
-1000.05
-0.0207315
0.0247293
-1000.06
-0.0285659
0.0246604
-1000.06
-0.0335958
0.0245684
-1000.07
0.0244623
-1000.09
-0.0109229
0.0469755
-1000.04
-0.0208488
0.04701
-1000.05
-0.0287232
0.0468957
-1000.05
-0.03378
0.0467411
-1000.06
0.0465616
-1000.08
-0.0109948
0.0646723
-1000.02
-0.0209642
0.0647275
-1000.03
-0.0288778
0.0645718
-1000.04
-0.0339581
0.0643761
-1000.05
0.0641762
-1000.06
-0.0110851
0.0760505
-1000
-0.0211198
0.0761193
-1000.01
-0.0290738
0.0759273
-1000.01
-0.0341548
0.0757056
-1000.02
0.0755397
-1000.04
-0.0111917
-999.973
-0.0213181
-999.977
-0.029298
-999.985
-0.034296
-999.995
-1000.01
-0.0148273
0.0337007
-1000.07
-0.0282347
0.0337206
-1000.08
-0.0388393
0.0336445
-1000.09
-0.0456196
0.0335361
-1000.1
0.033427
-1000.12
-0.0149175
0.0641515
-1000.06
-0.0283764
0.0642153
-1000.06
-0.0390382
0.0640562
-1000.07
-0.0458347
0.0638494
-1000.09
0.0636033
-1000.1
-0.0149989
0.0883718
-1000.03
-0.0285373
0.0884462
-1000.04
-0.0392467
0.08822
-1000.05
-0.0460795
0.0879215
-1000.06
0.0875578
-1000.08
-0.0151223
0.103947
-1000
-0.0287633
0.104041
-1000.01
-0.039545
0.103752
-1000.02
-0.0464363
0.103363
-1000.03
0.102866
-1000.05
-0.0152662
-999.963
-0.0290596
-999.968
-0.0399417
-999.979
-0.0469184
-999.994
-1000.01
-0.0202045
0.0459919
-1000.1
-0.0383739
0.0460427
-1000.1
-0.0527506
0.045937
-1000.12
-0.0619135
0.0457818
-1000.14
0.0456013
-1000.16
-0.0203035
0.087654
-1000.08
-0.0385696
0.0877384
-1000.09
-0.0530306
0.087502
-1000.1
-0.0622381
0.087189
-1000.12
0.0868049
-1000.14
-0.020417
0.120776
-1000.05
-0.0388089
0.120868
-1000.05
-0.0533466
0.120534
-1000.07
-0.0626205
0.120065
-1000.09
0.119478
-1000.11
-0.020594
0.14211
-1000
-0.0391438
0.142225
-1000.01
-0.0538141
0.141805
-1000.02
-0.0631977
0.141197
-1000.04
0.140371
-1000.07
-0.020801
-999.949
-0.0395728
-999.957
-0.0544313
-999.972
-0.0640185
-999.992
-1000.02
-0.027447
0.0628219
-1000.13
-0.0521363
0.0628841
-1000.14
-0.0716761
0.0627055
-1000.16
-0.0841431
0.0624583
-1000.19
0.0621722
-1000.22
-0.027589
0.119728
-1000.11
-0.0524382
0.119812
-1000.12
-0.0720938
0.119457
-1000.14
-0.0846258
0.118974
-1000.16
0.118378
-1000.19
-0.0277744
0.164991
-1000.06
-0.052798
0.165089
-1000.07
-0.0725792
0.164588
-1000.09
-0.0852177
0.163868
-1000.12
0.162981
-1000.15
-0.0280442
0.194207
-1000
-0.0532998
0.194311
-1000.01
-0.0732981
0.193704
-1000.03
-0.0860897
0.192803
-1000.06
0.191649
-1000.09
-0.02838
-999.931
-0.0539191
-999.942
-0.0742102
-999.962
-0.0872397
-999.989
-1000.02
-0.0372618
0.0857853
-1000.18
-0.0708532
0.0858314
-1000.19
-0.0973875
0.0855516
-1000.22
-0.114273
0.0851848
-1000.25
0.0847628
-1000.3
-0.037494
0.163429
-1000.15
-0.0713014
0.163503
-1000.16
-0.0979846
0.162978
-1000.19
-0.114965
0.162238
-1000.22
0.161318
-1000.27
-0.037787
0.225278
-1000.09
-0.0718326
0.225367
-1000.1
-0.0987252
0.224612
-1000.13
-0.115879
0.223513
-1000.16
0.222173
-1000.21
-0.0382
0.265285
-1000
-0.0725899
0.265374
-1000.02
-0.0998218
0.264459
-1000.05
-0.117199
0.2631
-1000.08
0.261477
-1000.12
-0.0387099
-999.907
-0.0735184
-999.921
-0.101195
-999.948
-0.118817
-999.985
-1000.03
-0.0506227
0.11704
-1000.25
-0.096276
0.117069
-1000.27
-0.132224
0.116669
-1000.3
-0.154987
0.116121
-1000.35
0.115437
-1000.4
-0.0509727
0.222974
-1000.2
-0.0969048
0.223041
-1000.22
-0.133083
0.222255
-1000.26
-0.156037
0.221128
-1000.31
0.219766
-1000.36
-0.0514041
0.307531
-1000.12
-0.0976962
0.307597
-1000.14
-0.13421
0.306436
-1000.18
-0.157393
0.304779
-1000.22
0.30281
-1000.28
-0.0520233
0.362423
-1000.01
-0.0988604
0.362468
-1000.03
-0.135862
0.360999
-1000.06
-0.159339
0.358939
-1000.11
0.356611
-1000.17
-0.0527917
-999.873
-0.100342
-999.893
-0.137936
-999.93
-0.161663
-999.981
-1000.04
-0.0688344
0.159548
-1000.34
-0.13081
0.159579
-1000.36
-0.179479
0.159015
-1000.41
-0.210172
0.158191
-1000.48
0.157175
-1000.55
-0.0693181
0.304107
-1000.28
-0.131685
0.304169
-1000.3
-0.180723
0.302998
-1000.35
-0.211679
0.301342
-1000.42
0.299397
-1000.49
-0.0699339
0.419779
-1000.17
-0.132861
0.419788
-1000.19
-0.182376
0.418016
-1000.24
-0.213612
0.415567
-1000.31
0.412689
-1000.38
-0.070859
0.495236
-1000.01
-0.134637
0.495134
-1000.04
-0.184816
0.492819
-1000.09
-0.216463
0.489715
-1000.16
0.48618
-1000.23
-0.0720685
-999.829
-0.136966
-999.856
-0.187926
-999.906
-0.21999
-999.975
-1000.06
-0.093687
0.217314
-1000.46
-0.177827
0.217375
-1000.5
-0.243708
0.216594
-1000.56
-0.284966
0.21544
-1000.65
0.214059
-1000.75
-0.0943248
0.414543
-1000.38
-0.179028
0.414601
-1000.42
-0.245431
0.412918
-1000.48
-0.287007
0.410572
-1000.57
0.407775
-1000.67
-0.0951856
0.57281
-1000.23
-0.180714
0.572715
-1000.27
-0.247765
0.57011
-1000.33
-0.289781
0.566535
-1000.42
0.562285
-1000.53
-0.0965512
0.67664
-1000.02
-0.183321
0.676314
-1000.06
-0.251321
0.672859
-1000.12
-0.293995
0.668156
-1000.21
0.662615
-1000.32
-0.0983868
-999.769
-0.186792
-999.806
-0.256021
-999.874
-0.299522
-999.968
-1000.08
-0.127686
0.295669
-1000.63
-0.242039
0.295808
-1000.68
-0.331163
0.294785
-1000.77
-0.386377
0.293281
-1000.89
0.291442
-1001.03
-0.128494
0.56454
-1000.52
-0.243631
0.564619
-1000.57
-0.333433
0.562331
-1000.66
-0.389102
0.559133
-1000.78
0.555238
-1000.92
-0.12966
0.781069
-1000.32
-0.245913
0.78085
-1000.37
-0.336599
0.777184
-1000.46
-0.392954
0.772074
-1000.58
0.765932
-1000.72
-0.131603
0.924231
-1000.03
-0.249574
0.923609
-1000.08
-0.341669
0.918558
-1000.17
-0.399039
0.911511
-1000.3
0.903116
-1000.44
-0.134279
-999.69
-0.254641
-999.74
-0.3487
-999.834
-0.407407
-999.961
-1000.11
-0.174423
0.401593
-1000.86
-0.330137
0.401897
-1000.92
-0.450603
0.400696
-1001.05
-0.524173
0.398922
-1001.21
0.39666
-1001.4
-0.175401
0.76759
-1000.71
-0.332103
0.767807
-1000.78
-0.453402
0.764963
-1000.9
-0.52762
0.760886
-1001.07
0.75582
-1001.26
-0.176863
1.06382
-1000.44
-0.334923
1.06354
-1000.5
-0.457407
1.05859
-1000.63
-0.532598
1.05154
-1000.79
1.04294
-1000.98
-0.179477
1.26184
-1000.05
-0.339858
1.26073
-1000.12
-0.464378
1.25336
-1000.24
-0.541102
1.24302
-1000.41
1.2306
-1000.6
-0.183376
-999.585
-0.347243
-999.654
-0.474676
-999.782
-0.55347
-999.955
-1000.16
-0.239214
0.544008
-1001.16
-0.451825
0.544718
-1001.26
-0.61449
0.543706
-1001.43
-0.711809
0.542046
-1001.66
0.539672
-1001.92
-0.240235
1.0412
-1000.97
-0.45386
1.04196
-1001.06
-0.617514
1.03895
-1001.23
-0.715749
1.03436
-1001.46
1.02833
-1001.72
-0.241729
1.4465
-1000.6
-0.456797
1.4464
-1000.69
-0.621959
1.44007
-1000.86
-0.721586
1.43086
-1001.09
1.41928
-1001.35
-0.24498
1.72135
-1000.08
-0.463068
1.71954
-1000.17
-0.631018
1.70894
-1000.34
-0.732984
1.69404
-1000.57
1.67589
-1000.83
-0.250567
-999.449
-0.473663
-999.543
-0.645845
-999.718
-0.751034
-999.953
-1000.22
-0.330104
0.734029
-1001.56
-0.621526
0.735834
-1001.7
-0.841017
0.736026
-1001.94
-0.968439
0.735598
-1002.27
0.734158
-1002.62
-0.330625
1.40757
-1001.31
-0.622698
1.40986
-1001.44
-0.843241
1.40797
-1001.69
-0.971915
1.40431
-1002
1.39853
-1002.36
-0.331337
1.96199
-1000.82
-0.624425
1.96271
-1000.95
-0.846602
1.95557
-1001.19
-0.9773
1.94469
-1001.5
1.93026
-1001.85
-0.334849
2.34511
-1000.13
-0.631427
2.34253
-1000.25
-0.857194
2.32777
-1000.49
-0.991355
2.30682
-1000.8
2.28103
-1001.15
-0.342553
-999.276
-0.646164
-999.405
-0.878005
-999.644
-1.01698
-999.962
-1000.32
-0.459602
0.984896
-1002.09
-0.861599
0.989368
-1002.29
-1.15756
0.99325
-1002.64
-1.32188
0.996984
-1003.1
0.999305
-1003.6
-0.458242
1.89351
-1001.76
-0.859524
1.8996
-1001.95
-1.15615
1.90237
-1002.3
-1.32214
1.90372
-1002.74
1.90188
-1003.23
-0.456122
2.65147
-1001.12
-0.856403
2.65462
-1001.31
-1.15419
2.64891
-1001.64
-1.32315
2.6388
-1002.07
2.62345
-1002.54
-0.458607
3.18859
-1000.21
-0.861838
3.18525
-1000.38
-1.16375
3.16559
-1000.7
-1.33777
3.13733
-1001.12
3.10173
-1001.59
-0.468855
-999.062
-0.881445
-999.239
-1.19181
-999.566
-1.37307
-999.994
-1000.47
-0.648041
1.31091
-1002.75
-1.20835
1.32148
-1003.05
-1.6066
1.33513
-1003.58
-1.81342
1.34988
-1004.24
1.36245
-1004.95
-0.641609
2.52841
-1002.34
-1.19711
2.5436
-1002.62
-1.59477
2.55994
-1003.13
-1.80397
2.57642
-1003.76
2.58782
-1004.44
-0.631561
3.56377
-1001.53
-1.18009
3.57319
-1001.79
-1.57704
3.57507
-1002.25
-1.79086
3.57297
-1002.85
3.56275
-1003.49
-0.629607
4.32273
-1000.34
-1.17769
4.31899
-1000.58
-1.57816
4.29442
-1001.02
-1.79964
4.25852
-1001.59
4.21134
-1002.21
-0.642605
-998.81
-1.20218
-999.055
-1.6138
-999.501
-1.84635
-1000.07
-1000.7
-0.929538
1.72482
-1003.55
-1.72404
1.74887
-1004
-2.25673
1.78664
-1004.83
-2.50746
1.82746
-1005.82
1.8649
-1006.84
-0.910948
3.33747
-1003.04
-1.68966
3.37423
-1003.47
-2.21938
3.42591
-1004.23
-2.47346
3.48163
-1005.16
3.52779
-1006.12
-0.880662
4.75108
-1002.06
-1.63673
4.77524
-1002.43
-2.16107
4.79993
-1003.1
-2.42366
4.82421
-1003.93
4.83439
-1004.8
-0.866241
5.83621
-1000.55
-1.61124
5.83291
-1000.89
-2.13515
5.80514
-1001.5
-2.41072
5.76403
-1002.25
5.70571
-1003.07
-0.881856
-998.533
-1.63904
-998.873
-2.17623
-999.483
-2.46855
-1000.23
-1001.05
-1.36173
2.23377
-1004.42
-2.52343
2.2852
-1005.13
-3.22194
2.38143
-1006.51
-3.51216
2.47909
-1008.01
2.57445
-1009.57
-1.31731
4.32168
-1003.81
-2.43318
4.41016
-1004.48
-3.12778
4.55173
-1005.71
-3.42024
4.703
-1007.09
4.83258
-1008.51
-1.23651
6.25559
-1002.76
-2.28984
6.31205
-1003.28
-2.97073
6.39436
-1004.27
-3.28263
6.48983
-1005.4
6.55493
-1006.61
-1.19246
7.84041
-1000.95
-2.20684
7.83729
-1001.4
-2.87297
7.81109
-1002.25
-3.21198
7.77202
-1003.2
7.70716
-1004.27
-1.21176
-998.252
-2.234
-998.724
-2.91374
-999.569
-3.2774
-1000.51
-1001.59
-2.03588
2.84173
-1005.23
-3.83663
2.93559
-1006.26
-4.6865
3.17687
-1008.84
-5.03505
3.38205
-1011.04
3.61714
-1013.75
-1.95068
5.39572
-1004.41
-3.61295
5.61659
-1005.49
-4.48292
5.99236
-1007.66
-4.806
6.37082
-1009.76
6.69568
-1012.03
-1.73823
8.07376
-1003.7
-3.23799
8.19473
-1004.36
-4.08924
8.40749
-1005.83
-4.46296
8.68787
-1007.35
8.87917
-1009.1
-1.63269
10.4975
-1001.74
-3.02643
10.4846
-1002.3
-3.80758
10.467
-1003.53
-4.25898
10.4363
-1004.49
10.3733
-1006.01
-1.6668
-997.911
-3.04987
-998.569
-3.84873
-999.793
-4.32945
-1000.87
-1002.42
-3.04202
3.58998
-1005.77
-6.16941
3.68625
-1006.82
-6.87403
4.31854
-1012.46
-7.55593
4.64414
-1015
5.27623
-1020.92
-2.98097
6.23633
-1004.08
-5.627
6.79174
-1005.95
-6.55393
7.81366
-1010.22
-6.97816
8.72576
-1013.42
9.52245
-1017.72
-2.38178
10.0599
-1005.14
-4.62468
10.2817
-1005.61
-5.59066
10.7362
-1007.79
-6.14515
11.5424
-1009.61
11.9776
-1012.51
-2.18004
14.1577
-1003.66
-4.16895
14.0785
-1004.11
-4.79262
14.0804
-1006.25
-5.66199
14.0017
-1006.08
13.9307
-1008.8
-2.29398
-996.957
-4.20086
-997.879
-4.9365
-999.853
-5.78278
-1000.72
-1003.81
-4.37754
4.63606
-1006.03
-10.722
4.40542
-1004.88
-9.868
6.31074
-1019.62
-12.2175
6.23091
-1018.88
8.3129
-1034.87
-4.78211
6.11774
-1000.78
-9.42669
7.38617
-1004.29
-9.74881
10.2187
-1013.81
-10.7419
12.3057
-1018.5
14.3383
-1027.94
-2.91181
11.6904
-1007.8
-6.56124
12.0004
-1006.57
-7.43672
12.6683
-1009.36
-8.72369
15.1259
-1011.14
15.7799
-1016.61
-2.6786
19.7989
-1009.09
-5.85575
19.4148
-1008.34
-5.16601
19.545
-1013.82
-7.67584
19.0206
-1007.47
18.8247
-1014.52
-3.15891
-993.038
-5.92291
-994.408
-6.08866
-997.848
-8.2439
-997.53
-1006.7
-6.26224
6.28062
-1006.05
-20.1403
4.27618
-995.279
-14.4483
10.9446
-1036.26
-20.9753
7.16674
-1019.52
14.8052
-1063.71
-8.2928
3.5857
-989.791
-17.335
6.22156
-997.193
-15.1839
14.0943
-1019.11
-17.4718
18.3848
-1027.43
23.8269
-1047.16
-2.67919
11.8045
-1013.34
-8.60755
12.4768
-1006.9
-9.59354
13.107
-1007.39
-12.8808
19.6254
-1009.1
19.4854
-1018.34
-3.04863
29.5624
-1023.79
-8.29872
27.8764
-1018.49
-4.12519
28.4723
-1033.36
-10.2729
26.6392
-1008.33
26.0372
-1027.41
-4.41538
-980.281
-8.45115
-983.455
-8.07383
-988.058
-13.6173
-984.728
-1014.18
-9.10648
9.7924
-1006.74
-39.5353
0.624952
-965.475
-22.6996
23.7495
-1076.84
-36.4892
6.49889
-1012.23
30.2266
-1124.56
-16.0592
-7.14734
-956.792
-34.626
-1.16426
-976.838
-27.1352
20.7423
-1023.59
-28.5006
29.4335
-1049
44.0354
-1081.97
-0.0590583
9.90058
-1030.33
-7.96646
11.5655
-1011.72
-12.3195
11.8361
-994.128
-19.4539
26.7894
-999.317
22.2876
-1007.61
-3.40287
47.4824
-1057.97
-10.3536
41.1726
-1041.15
0.0477532
41.3609
-1073.28
-11.7355
38.2752
-1008.04
36.1533
-1052.28
-6.98595
-945.672
-11.2048
-958.912
-13.3419
-958.522
-26.9728
-948.95
-1038.33
-21.2993
9.62178
-995.059
-86.324
-11.3503
-889.1
-38.9109
61.5026
-1185.76
-59.2435
1.91004
-993.811
63.75
-1255.67
-34.7905
-43.6126
-868.767
-76.0326
-23.8197
-923.127
-57.9457
32.1465
-1012.33
-45.4477
48.9818
-1108.57
86.0932
-1147.34
14.0228
4.28924
-1092.25
-1.77365
6.17443
-1025.92
-16.7008
6.92128
-953.976
-30.2887
42.5684
-979.316
20.6438
-959.625
-3.41328
83.3656
-1133.64
-11.4208
63.0432
-1090.01
17.6564
56.0825
-1151.52
-10.2367
55.5395
-993.114
44.2242
-1099.03
-13.7547
-863.023
-16.3688
-909.044
-28.5787
-883.542
-63.1868
-865.841
-1133.88
66.0679
106.682
-1167.81
-57.8072
-64.5114
-700.714
-46.4573
119.596
-1316.7
-164.525
-68.509
-807.234
247.386
-1674.46
-91.3494
-114.328
-556.409
-98.8981
-123.665
-856.424
-72.2614
59.6488
-979.015
-67.449
70.8961
-1252.78
203.352
-1103.25
43.2317
9.42282
-1259.24
126.813
28.1096
-1261.28
42.1678
3.39705
-813.079
-10.6565
92.4771
-948.073
2.15605
-724.301
14.345
159.516
-1298.08
34.3522
126.411
-1208.32
93.5792
84.8492
-1292.2
22.2079
86.168
-915.434
79.3109
-1276.26
-31.5809
-584.331
73.173
-908.36
1.63032
-610.989
-106.669
-532.957
-1314.98
-218.825
-100.749
-848.235
-502.937
-29.1641
-387.438
-108.599
413.742
-2124.78
22.518
26.6737
-965.024
70.8565
-1879.06
-94.0653
-263.348
-299.744
-329.417
-103.705
-546.532
-366.864
97.8362
-625.662
-101.037
202.823
-1694.76
247.212
-1652.75
157.777
-41.8054
-1638.56
-54.3284
-82.3192
-1070.56
-114.016
-106.051
-549.504
-132.979
101.225
-827.512
-99.988
-487.124
-5.471
253.592
-1588
-71.0399
54.6992
-1279.77
53.7211
-26.8117
-1496.2
-121.357
89.0535
-728.185
-128.839
-1198.31
-46.0675
-337.773
-204.596
-628.702
-307.79
-304.633
-492.233
-352.196
-2271.65
-1.19899
0.846111
-847.882
7.42153
-1.39644
-394.662
-19.2477
42.7307
-2140.85
-194.671
-180.835
-608.766
438.611
-2640.72
-6.20275
-70.377
-222.318
-4.77375
-20.4974
-528.86
-0.433406
0.954858
-588.226
19.014
-14.8125
-1880.23
155.884
-1271.04
-43.8433
-22.4101
-1642.68
40.2832
49.1026
-1224.28
5.39472
-11.1666
-502.494
-2.20802
45.6554
-880.377
-60.3375
-225.638
18.0619
69.3874
-1697.86
33.8376
33.1711
-1279.61
97.7644
49.0702
-1620.37
6.29265
39.2712
-630.329
302.96
-1826.36
0.25483
-235.561
-0.293181
-593.208
-21.3799
-30.9241
-43.5462
-229.914
-2427.04
-21.004
-153.521
-673.356
332.069
119.144
-866.879
13.7372
-345.993
-1476.52
127.06
130.432
-852.521
-98.7386
-2455.26
84.3559
163.094
-623.289
17.8816
272.401
-615.643
301.385
126.817
-1344.54
55.9067
220.144
-1724.46
0.154703
-1299.98
246.537
195.885
-1922.01
148.787
284.797
-1138.93
76.0079
114.39
-417.289
-57.361
-30.342
-496.523
292.543
-690.208
216.435
-58.2103
-1660.2
166.48
0.386839
-945.25
-24.1104
-77.7253
-1237.66
-171.099
34.1736
-547.856
21.0218
-1318.83
90.0657
-220.694
29.0798
-562.217
2.3488
-423.215
-14.2386
-54.8408
-2199.15
-168.672
-185.865
-318.819
26.283
213.144
-1274.98
372.319
-111.669
-1710.89
331.408
122.489
-934.099
-548.017
-1379.15
114.113
-102.331
-820.936
-25.8031
29.8118
-292.395
522.555
49.3566
-2053.92
-153.987
153.94
-1079.37
-385.637
-1231.55
26.9509
-73.8271
-1977.46
-3.53715
125.656
-1204.28
44.563
207.759
-623.792
-140.571
-69.8569
-87.593
229.996
-1497.03
512.347
22.4124
-2268.79
96.2225
30.1788
-433.648
-61.0924
-53.3532
-819.233
18.1051
-112.99
-583.92
-292.055
-54.2597
1.94432
-53.5907
-53.0155
-469.61
-89.0007
-394.307
-173.475
-96.1519
-2281.54
-82.3178
96.8371
-333.339
-481.866
1.01091
-876.442
-103.993
-277.832
-1810.93
-56.6017
-12.5878
-968.902
104.365
-1455.71
-63.2717
-199.2
-461.627
-20.0438
-130.429
-204.182
394.972
137.274
-2884.04
11.8752
-194.855
-514.009
-76.8904
-249.901
-285.458
-813.852
-1077.35
-416.08
-90.725
-1113.37
-226.855
271.015
-946.757
-22.0614
46.0994
-533.341
-188.485
-986.53
-17.273
-640.332
-2425.03
28.8862
-44.3902
-526.141
-63.5716
0.900405
-456.661
-19.9687
-66.6783
-514.745
-233.313
-70.5412
85.0463
-1266.19
71.0919
-410.822
-21.3262
-76.0401
513.633
-894.217
-1416.48
34.9758
-2.08157
-366.233
-393.378
-156.038
-292.049
-932.061
-43.4257
-1228.82
-344.4
74.92
-1631.48
42.0619
-1920.4
-43.5465
94.0591
-514.221
-149.927
87.995
-341.836
-378.82
-135.366
-2563.21
-6.59915
13.1853
-824.495
9.96834
-642.539
-100.503
-229.696
-653.096
-294.723
-152.31
-678.841
-559.512
-55.6342
-761.7
26.0374
246.12
-1351.83
1.57654
-710.191
-644.312
-555.135
-1455.28
-232.982
-80.8451
-1008.94
-38.0767
-23.9256
-683.275
2.00046
113.108
-421.81
6.97181
-80.6984
-177.946
-1567.96
-137.076
-252.932
537.217
-1288.7
483.454
-744.017
-82.0096
-36.3127
109.719
-439.639
139.695
36.6832
-504.74
-444.277
56.1881
-701.038
-236.586
204.734
-2043.91
-173.031
-2061.04
-185.884
156.495
-375.114
186.961
321.981
-999.978
-567.772
-2.35686
-1749.93
-337.271
234.225
-1084.49
376.372
-1865.46
-85.189
-11.5235
-399.888
-86.5528
137.567
-493.062
-532.554
-22.3349
-295.721
-444.07
-65.5576
-1140.53
162.581
-1166.28
-288.364
-102.518
-1075.92
-228.781
27.4477
-958.4
-280.667
165.245
-818.969
3.86001
21.139
-793.034
-7.39013
-51.1544
-0.017225
-1580.64
-22.7871
-152.89
162.644
-1722.24
-16.8831
-308.169
-571.428
230.096
94.1594
-763.894
368.411
152.578
-795.634
-197.49
-23.1111
-112.025
-57.06
4.67674
-2189.01
-77.7772
-1915.36
-16.4233
-26.129
-238.402
532.09
37.2112
-1433.12
126.415
128.733
-1496.1
-134.234
25.4698
-844.631
149.046
-2088.31
24.9557
192.643
-643.615
10.7446
86.0115
-527.652
-16.5402
-9.64983
-130.054
110.097
-222.88
-1018.81
-111.383
-862.763
-31.3861
-191.299
-660.595
25.2586
28.338
-957.371
-210.81
64.9989
-657.549
-129.165
-220.762
-876.798
47.5874
-598.317
-79.7789
-1498.92
41.0203
-542.263
-216.295
-1270.91
218.412
-1321.4
-983.841
-65.831
27.326
-725.389
25.9498
81.0772
-968.492
107.832
6.69096
-200.598
186.119
-1.17464
-2266.13
-65.4117
-1616.86
158.961
-36.3475
-333.69
392.932
-143.521
-1442.5
-191.243
-220.252
-684.983
-60.03
38.439
-1015.46
45.4682
-2245.04
3.16989
217.218
-900.35
-49.6729
60.4148
-678.745
347.797
133.287
-881.062
256.556
77.7455
-966.878
-85.7696
-456.999
-30.2144
173.134
-586.297
74.5308
134.169
-1135.87
97.4182
131.6
-678.75
51.4934
-270.945
-482.183
-76.0492
-816.37
-236.929
-186.839
-92.2944
-769.495
109.788
-1555.26
418.83
-1817.56
-612.628
101.632
-2.55329
-824.468
-124.816
96.5084
-838.552
430.037
70.6022
-826.054
531.362
276.082
-2643.53
-216.228
-752.167
375.487
-103.91
-607.821
237.233
-268.071
-939.662
-10.1952
-257.08
-109.873
394.909
5.031
-1149.51
-435.854
-1979.63
229.366
-117.942
-1115.68
167.995
-62.121
-823.324
108.2
-241.546
-836.801
16.749
2.72767
-873.124
30.9951