/*--------------------------------*- C++ -*----------------------------------*\
| =========                 |                                                 |
| \\      /  F ield         | OpenFOAM: The Open Source CFD Toolbox           |
|  \\    /   O peration     | Version:  5.x                                   |
|   \\  /    A nd           | Web:      www.OpenFOAM.org                      |
|    \\/     M anipulation  |                                                 |
\*---------------------------------------------------------------------------*/
FoamFile
{
    version     2.0;
    format      ascii;
    class       volScalarField;
    location    "0.07";
    object      p;
}
// * * * * * * * * * * * * * * * * * * * * * * * * * * * * * * * * * * * * * //

dimensions      [0 2 -2 0 0 0 0];

internalField   nonuniform List<scalar> 
2250
(
1.92344e-10
1.70875e-10
1.69255e-10
1.61778e-10
1.47752e-10
1.63316e-10
1.64279e-10
1.66322e-10
1.58815e-10
1.4011e-10
1.2129e-10
1.43551e-10
1.50217e-10
1.40428e-10
1.14592e-10
8.85361e-11
1.22132e-10
1.28762e-10
1.14762e-10
9.00129e-11
8.90325e-11
1.28848e-10
1.32469e-10
1.11659e-10
9.13531e-11
5.27856e-10
4.87515e-10
4.69039e-10
4.43244e-10
4.01823e-10
4.53008e-10
4.62422e-10
4.5274e-10
4.09815e-10
3.64987e-10
3.43037e-10
3.96896e-10
3.90525e-10
3.55699e-10
2.96072e-10
2.12885e-10
3.20974e-10
3.24983e-10
2.83151e-10
2.38491e-10
7.89438e-11
2.5839e-10
2.83002e-10
2.43291e-10
2.09127e-10
7.95302e-10
7.53561e-10
7.18198e-10
6.52959e-10
5.85963e-10
7.07275e-10
7.05641e-10
6.72623e-10
5.87025e-10
5.11307e-10
5.5857e-10
6.1645e-10
5.72106e-10
4.99266e-10
4.29338e-10
2.96453e-10
4.62159e-10
4.56349e-10
4.07829e-10
3.84612e-10
-1.46694e-10
2.20002e-10
3.3702e-10
3.59055e-10
3.65713e-10
1.03893e-09
9.9936e-10
9.27211e-10
8.19493e-10
7.38947e-10
9.81513e-10
9.40236e-10
8.48365e-10
7.32865e-10
6.56271e-10
8.41858e-10
8.27041e-10
7.38531e-10
6.55449e-10
6.1096e-10
5.13303e-10
6.39332e-10
6.3441e-10
6.0471e-10
6.22715e-10
-1.16295e-10
3.03936e-10
5.16878e-10
6.15488e-10
6.71289e-10
1.33778e-09
1.28652e-09
1.16679e-09
1.04546e-09
9.805e-10
1.31388e-09
1.21788e-09
1.08344e-09
9.68311e-10
9.2909e-10
1.19288e-09
1.10133e-09
9.89275e-10
9.28819e-10
9.32408e-10
8.9858e-10
9.42697e-10
9.34384e-10
9.39008e-10
9.77992e-10
3.90903e-10
7.01617e-10
8.93742e-10
1.00054e-09
1.04977e-09
1.71787e-09
1.64494e-09
1.5088e-09
1.42002e-09
1.40317e-09
1.67944e-09
1.55954e-09
1.43979e-09
1.3755e-09
1.38853e-09
1.54078e-09
1.43821e-09
1.35591e-09
1.34119e-09
1.37913e-09
1.29868e-09
1.31102e-09
1.30418e-09
1.33171e-09
1.36134e-09
1.01151e-09
1.17342e-09
1.25975e-09
1.32104e-09
1.333e-09
2.14067e-09
2.06667e-09
1.97952e-09
1.96419e-09
1.99671e-09
2.04825e-09
1.96614e-09
1.92019e-09
1.93331e-09
1.968e-09
1.86845e-09
1.81507e-09
1.7977e-09
1.82354e-09
1.86327e-09
1.61733e-09
1.63911e-09
1.64168e-09
1.68573e-09
1.70458e-09
1.33721e-09
1.39349e-09
1.41901e-09
1.47891e-09
1.49351e-09
2.60649e-09
2.57028e-09
2.56962e-09
2.61428e-09
2.65036e-09
2.47779e-09
2.45804e-09
2.49138e-09
2.54468e-09
2.55618e-09
2.25428e-09
2.23672e-09
2.2706e-09
2.3167e-09
2.34354e-09
1.93207e-09
1.92602e-09
1.95843e-09
2.03036e-09
2.06254e-09
1.4657e-09
1.43387e-09
1.5106e-09
1.64162e-09
1.7045e-09
3.20777e-09
3.19208e-09
3.22654e-09
3.26746e-09
3.26962e-09
3.06466e-09
3.04861e-09
3.09772e-09
3.13701e-09
3.1232e-09
2.76126e-09
2.73107e-09
2.78145e-09
2.84133e-09
2.86631e-09
2.33066e-09
2.28702e-09
2.37638e-09
2.48655e-09
2.5398e-09
1.73137e-09
1.66594e-09
1.85055e-09
2.04593e-09
2.14081e-09
3.95478e-09
3.89039e-09
3.88955e-09
3.89626e-09
3.87649e-09
3.75931e-09
3.69943e-09
3.72307e-09
3.74111e-09
3.72663e-09
3.34874e-09
3.32379e-09
3.38567e-09
3.45509e-09
3.47303e-09
2.83358e-09
2.84212e-09
2.98432e-09
3.09702e-09
3.13404e-09
2.2871e-09
2.29467e-09
2.5243e-09
2.67674e-09
2.72908e-09
4.71443e-09
4.61405e-09
4.58169e-09
4.57018e-09
4.54542e-09
4.45732e-09
4.40685e-09
4.4159e-09
4.41716e-09
4.39621e-09
4.01344e-09
4.04434e-09
4.10494e-09
4.14142e-09
4.11897e-09
3.48821e-09
3.59203e-09
3.71123e-09
3.74783e-09
3.72256e-09
3.06643e-09
3.14481e-09
3.27699e-09
3.27311e-09
3.22935e-09
5.49228e-09
5.42619e-09
5.37741e-09
5.34192e-09
5.29655e-09
5.24431e-09
5.2279e-09
5.20284e-09
5.15787e-09
5.10424e-09
4.83638e-09
4.87685e-09
4.87444e-09
4.8241e-09
4.74773e-09
4.27812e-09
4.39698e-09
4.40568e-09
4.32008e-09
4.23127e-09
3.79509e-09
3.89432e-09
3.85974e-09
3.68823e-09
3.56292e-09
6.48097e-09
6.41337e-09
6.30839e-09
6.21489e-09
6.136e-09
6.2518e-09
6.18366e-09
6.07246e-09
5.95746e-09
5.87323e-09
5.80462e-09
5.76643e-09
5.653e-09
5.51054e-09
5.40523e-09
5.0943e-09
5.15861e-09
5.04011e-09
4.85088e-09
4.7307e-09
4.31832e-09
4.45478e-09
4.29552e-09
4.0262e-09
3.86126e-09
7.77122e-09
7.6146e-09
7.41449e-09
7.25036e-09
7.15277e-09
7.48404e-09
7.30534e-09
7.09377e-09
6.91895e-09
6.82159e-09
6.89963e-09
6.76196e-09
6.53796e-09
6.32696e-09
6.21402e-09
6.0047e-09
5.96757e-09
5.73041e-09
5.47224e-09
5.3447e-09
4.92174e-09
4.98131e-09
4.72201e-09
4.42837e-09
4.26339e-09
9.42116e-09
9.13763e-09
8.8311e-09
8.59601e-09
8.4812e-09
9.04096e-09
8.74043e-09
8.42863e-09
8.1892e-09
8.06735e-09
8.28139e-09
8.01341e-09
7.67396e-09
7.39416e-09
7.26611e-09
7.16768e-09
6.93365e-09
6.57094e-09
6.26893e-09
6.13845e-09
5.74359e-09
5.53182e-09
5.1907e-09
4.93071e-09
4.79505e-09
1.16223e-08
1.11454e-08
1.07014e-08
1.03621e-08
1.01919e-08
1.11168e-08
1.06288e-08
1.01765e-08
9.82715e-09
9.64875e-09
1.00717e-08
9.58785e-09
9.10907e-09
8.74383e-09
8.57889e-09
8.51258e-09
8.03399e-09
7.5715e-09
7.2428e-09
7.09628e-09
6.44589e-09
6.0177e-09
5.67774e-09
5.47509e-09
5.37578e-09
1.4462e-08
1.3702e-08
1.30581e-08
1.25568e-08
1.22894e-08
1.37327e-08
1.2977e-08
1.2322e-08
1.18177e-08
1.15592e-08
1.22232e-08
1.14674e-08
1.08286e-08
1.03626e-08
1.01345e-08
9.98597e-09
9.28231e-09
8.74049e-09
8.36486e-09
8.17874e-09
7.09234e-09
6.54385e-09
6.20074e-09
6.00544e-09
5.92514e-09
1.79187e-08
1.68263e-08
1.59001e-08
1.51866e-08
1.48e-08
1.68628e-08
1.57929e-08
1.48755e-08
1.41844e-08
1.38235e-08
1.47485e-08
1.37169e-08
1.28758e-08
1.22654e-08
1.19419e-08
1.17737e-08
1.08273e-08
1.01296e-08
9.62847e-09
9.36869e-09
8.1889e-09
7.36873e-09
6.84197e-09
6.52021e-09
6.3788e-09
2.21951e-08
2.06782e-08
1.93567e-08
1.83657e-08
1.78294e-08
2.0719e-08
1.92606e-08
1.7989e-08
1.70413e-08
1.6538e-08
1.78788e-08
1.65286e-08
1.53749e-08
1.45196e-08
1.40556e-08
1.40686e-08
1.27901e-08
1.17817e-08
1.10373e-08
1.0647e-08
9.7112e-09
8.44698e-09
7.54662e-09
6.94665e-09
6.6456e-09
2.77739e-08
2.56294e-08
2.37282e-08
2.23187e-08
2.15666e-08
2.57948e-08
2.37439e-08
2.19243e-08
2.0574e-08
1.98601e-08
2.20469e-08
2.01458e-08
1.84789e-08
1.72313e-08
1.65565e-08
1.70416e-08
1.52044e-08
1.37061e-08
1.25929e-08
1.20081e-08
1.13714e-08
9.50707e-09
8.12393e-09
7.16899e-09
6.67867e-09
3.53097e-08
3.21949e-08
2.94007e-08
2.73313e-08
2.62466e-08
3.26877e-08
2.96738e-08
2.69924e-08
2.50152e-08
2.39655e-08
2.76551e-08
2.48311e-08
2.23756e-08
2.05378e-08
1.95437e-08
2.0803e-08
1.81423e-08
1.59549e-08
1.43312e-08
1.34676e-08
1.30378e-08
1.04604e-08
8.49953e-09
7.09587e-09
6.33523e-09
4.55722e-08
4.09678e-08
3.68086e-08
3.37115e-08
3.20727e-08
4.19856e-08
3.75503e-08
3.35721e-08
3.06109e-08
2.90006e-08
3.50735e-08
3.09743e-08
2.73451e-08
2.45982e-08
2.31082e-08
2.54941e-08
2.18409e-08
1.86762e-08
1.62991e-08
1.50062e-08
1.4535e-08
1.13022e-08
8.58389e-09
6.54402e-09
5.42339e-09
5.96053e-08
5.27407e-08
4.64745e-08
4.17279e-08
3.91436e-08
5.46388e-08
4.81011e-08
4.21252e-08
3.75691e-08
3.50492e-08
4.5129e-08
3.91904e-08
3.37531e-08
2.95685e-08
2.7305e-08
3.18317e-08
2.67561e-08
2.20986e-08
1.85499e-08
1.66237e-08
1.63373e-08
1.216e-08
8.3425e-09
5.48671e-09
3.99309e-09
7.90194e-08
6.86275e-08
5.90041e-08
5.1557e-08
4.74453e-08
7.21828e-08
6.23478e-08
5.31841e-08
4.60612e-08
4.21372e-08
5.91241e-08
5.03141e-08
4.20519e-08
3.56169e-08
3.21439e-08
4.09234e-08
3.35369e-08
2.65818e-08
2.11901e-08
1.82665e-08
1.94134e-08
1.36316e-08
8.18701e-09
4.03563e-09
1.80661e-09
1.05984e-07
9.00864e-08
7.50837e-08
6.32917e-08
5.68045e-08
9.66611e-08
8.16677e-08
6.74271e-08
5.62441e-08
5.01211e-08
7.87988e-08
6.55517e-08
5.28748e-08
4.28693e-08
3.73985e-08
5.40403e-08
4.31424e-08
3.26114e-08
2.42049e-08
1.95731e-08
2.45711e-08
1.6473e-08
8.42378e-09
1.86042e-09
-1.7972e-09
1.43532e-07
1.19097e-07
9.55149e-08
7.67884e-08
6.64797e-08
1.31011e-07
1.07989e-07
8.56955e-08
6.79819e-08
5.81997e-08
1.06892e-07
8.6706e-08
6.69527e-08
5.10705e-08
4.22537e-08
7.34384e-08
5.70229e-08
4.06161e-08
2.72289e-08
1.97841e-08
3.34597e-08
2.14426e-08
8.93485e-09
-1.58196e-09
-7.41677e-09
1.96241e-07
1.58429e-07
1.21069e-07
9.101e-08
7.42661e-08
1.79524e-07
1.43991e-07
1.0871e-07
8.01793e-08
6.42371e-08
1.47396e-07
1.16227e-07
8.48511e-08
5.92143e-08
4.48725e-08
1.02461e-07
7.71081e-08
5.09716e-08
2.93963e-08
1.72804e-08
4.84022e-08
2.98372e-08
9.88622e-09
-7.01002e-09
-1.65328e-08
2.70997e-07
2.12017e-07
1.52059e-07
1.02996e-07
7.53633e-08
2.48784e-07
1.93441e-07
1.36724e-07
9.00847e-08
6.38299e-08
2.0626e-07
1.57596e-07
1.07014e-07
6.51267e-08
4.14482e-08
1.45857e-07
1.06335e-07
6.42004e-08
2.88424e-08
8.69615e-09
7.26172e-08
4.38943e-08
1.1633e-08
-1.61463e-08
-3.21571e-08
3.78703e-07
2.85586e-07
1.878e-07
1.06558e-07
6.04428e-08
3.49401e-07
2.61876e-07
1.69265e-07
9.20725e-08
4.8216e-08
2.93443e-07
2.16464e-07
1.33819e-07
6.43155e-08
2.4561e-08
2.12279e-07
1.49879e-07
8.08521e-08
2.18496e-08
-1.21332e-08
1.13101e-07
6.78129e-08
1.47896e-08
-3.17518e-08
-5.88712e-08
5.36626e-07
3.87729e-07
2.25812e-07
8.9673e-08
1.16119e-08
4.97847e-07
3.57636e-07
2.04145e-07
7.46848e-08
3.48525e-10
4.25595e-07
3.02269e-07
1.65151e-07
4.81358e-08
-1.95365e-08
3.16714e-07
2.16253e-07
1.01098e-07
1.27133e-09
-5.67314e-08
1.829e-07
1.09691e-07
2.11045e-08
-5.81666e-08
-1.04849e-07
7.72447e-07
5.32572e-07
2.6033e-07
2.95438e-08
-1.04605e-07
7.1946e-07
4.93129e-07
2.3443e-07
1.4847e-08
-1.12635e-07
6.30974e-07
4.31473e-07
2.00628e-07
1.51565e-09
-1.15482e-07
4.834e-07
3.18966e-07
1.2356e-07
-4.7262e-08
-1.47379e-07
3.05424e-07
1.84566e-07
3.40505e-08
-1.02855e-07
-1.84559e-07
1.13283e-06
7.45862e-07
2.7911e-07
-1.15836e-07
-3.50014e-07
1.05288e-06
6.87034e-07
2.42054e-07
-1.32998e-07
-3.53943e-07
9.61604e-07
6.36886e-07
2.42721e-07
-9.89294e-08
-3.05312e-07
7.51428e-07
4.78475e-07
1.40867e-07
-1.54151e-07
-3.27827e-07
5.24796e-07
3.22055e-07
6.25662e-08
-1.76217e-07
-3.2249e-07
1.69633e-06
1.07614e-06
2.52831e-07
-4.25083e-07
-8.41006e-07
1.55754e-06
9.75061e-07
1.87803e-07
-4.52467e-07
-8.39612e-07
1.51427e-06
9.82202e-07
2.94511e-07
-2.94074e-07
-6.66879e-07
1.18375e-06
7.28624e-07
1.35575e-07
-3.76038e-07
-6.78012e-07
9.26949e-07
5.85092e-07
1.30529e-07
-2.87771e-07
-5.62398e-07
2.60232e-06
1.60854e-06
1.19554e-07
-1.04438e-06
-1.79986e-06
2.34548e-06
1.42878e-06
6.53289e-09
-1.08648e-06
-1.77213e-06
2.45046e-06
1.56766e-06
3.39335e-07
-6.71952e-07
-1.36248e-06
1.89542e-06
1.14051e-06
8.49626e-08
-8.04485e-07
-1.3301e-06
1.67029e-06
1.09454e-06
2.7346e-07
-4.51873e-07
-9.87476e-07
4.11807e-06
2.46894e-06
-2.30428e-07
-2.26514e-06
-3.66188e-06
3.64996e-06
2.15652e-06
-3.94287e-07
-2.29912e-06
-3.5262e-06
4.03794e-06
2.52942e-06
3.25922e-07
-1.42625e-06
-2.7125e-06
3.12015e-06
1.8331e-06
-3.54837e-08
-1.59902e-06
-2.51531e-06
3.01296e-06
2.04411e-06
5.05722e-07
-7.19534e-07
-1.77475e-06
6.81439e-06
3.91508e-06
-9.55423e-07
-4.67339e-06
-7.24014e-06
5.96689e-06
3.40197e-06
-1.11021e-06
-4.5417e-06
-6.75249e-06
6.79478e-06
4.10424e-06
1.94205e-07
-2.89973e-06
-5.2873e-06
5.34665e-06
3.05364e-06
-2.10047e-07
-2.97476e-06
-4.59222e-06
5.39204e-06
3.73111e-06
7.83164e-07
-1.14583e-06
-3.24721e-06
1.30173e-05
9.07535e-06
3.69591e-07
-5.72546e-06
-1.04377e-05
1.11229e-05
7.16438e-06
-8.74399e-07
-6.45995e-06
-9.9708e-06
1.41616e-05
9.24351e-06
2.85519e-06
-2.58488e-06
-6.7698e-06
1.07113e-05
7.02514e-06
1.63232e-06
-3.05708e-06
-5.80851e-06
1.20795e-05
9.79493e-06
5.49104e-06
6.5745e-07
-2.65891e-06
1.6622e-05
5.13664e-06
-1.03587e-05
-2.46082e-05
-3.35175e-05
1.44178e-05
4.75088e-06
-8.77275e-06
-2.21838e-05
-2.99201e-05
1.32618e-05
3.97031e-06
-8.24436e-06
-1.80431e-05
-2.63132e-05
1.20757e-05
4.74095e-06
-5.26324e-06
-1.42094e-05
-2.0329e-05
1.12047e-05
6.60284e-06
-3.15326e-06
-8.45768e-06
-1.61376e-05
4.86145e-05
3.26783e-05
3.49513e-06
-1.72613e-05
-3.33422e-05
3.74993e-05
2.36435e-05
-1.88301e-06
-2.09223e-05
-2.92152e-05
4.66375e-05
2.46816e-05
8.91528e-06
-7.54995e-06
-2.10978e-05
3.28132e-05
2.12435e-05
4.97519e-06
-4.42014e-06
-1.77967e-05
3.99512e-05
3.80805e-05
2.89836e-05
6.48157e-06
-7.46988e-06
8.24205e-05
1.84965e-05
-3.20425e-05
-8.76012e-05
-0.000117518
5.81548e-05
1.94023e-05
-9.54287e-06
-7.03308e-05
-0.000105081
2.23208e-05
-6.41204e-06
-3.96687e-05
-6.45285e-05
-9.09073e-05
4.79044e-05
2.09813e-05
-1.23192e-05
-1.73848e-05
-6.37161e-05
2.58297e-05
8.43151e-06
1.55811e-05
-2.34419e-05
-3.88857e-05
0.000465165
8.58454e-05
-3.14538e-05
-0.000131927
-0.000179721
0.000208966
8.64578e-05
0.000114201
-0.000112901
-0.000131778
1.79978e-05
-5.18453e-05
-6.07367e-05
-0.000124297
-0.0001298
-9.40524e-05
4.49504e-06
-7.80606e-05
3.97117e-05
-0.000163654
6.4221e-05
0.000122707
0.000183072
-0.000135136
-0.000139139
-0.000739281
0.000793468
0.000422114
0.000259026
7.66519e-05
0.00101887
0.0011477
0.000828903
0.000198456
-1.38413e-05
0.000502615
0.000673049
0.000579144
0.000286557
0.000235535
0.00058701
0.000736807
0.000279291
-0.000104129
-1.86202e-05
0.000746741
0.000760531
0.000494367
4.17704e-05
0.00119056
0.00255101
0.00124511
0.000675326
0.000327525
0.000447316
0.00193529
0.000975465
0.000508281
0.000662518
-4.89411e-05
0.000971491
0.000979967
0.000815278
0.000639294
0.000736531
0.00215267
0.00124307
0.000836356
0.000687965
0.00110154
0.00155874
0.00068114
0.000782571
0.000376562
0.000846904
0.000991348
0.00116722
0.00109885
0.00116074
0.00170417
0.000597793
0.00055227
0.000670782
0.000803726
0.0011156
0.0015944
0.00108507
0.00117571
0.00113838
0.00118393
0.0010912
0.0010563
0.00151785
0.0013994
0.00159413
-0.000560985
0.000423512
0.00074195
0.000866665
0.00116871
0.00157245
0.00179433
0.00196717
0.00260746
0.00261136
0.00140639
0.00175398
0.00153645
0.00185999
0.00234755
0.00150414
0.00130883
0.00177988
0.00177367
0.00203521
0.00130402
0.00119849
0.00175945
0.00185137
0.00169571
0.00171417
0.000961588
0.00102624
0.00167063
0.00154441
0.00215715
0.00222817
0.00233767
0.00250597
0.00254364
0.00218387
0.00224781
0.00257723
0.00251073
0.00259937
0.00226359
0.00175388
0.00228024
0.00219306
0.00252022
0.00161003
0.00149091
0.00261441
0.00222149
0.00232503
0.00169004
0.00112868
0.00234384
0.00237837
0.0020034
0.00271743
0.00272911
0.00313263
0.00274224
0.00281977
0.00300581
0.00264535
0.0029642
0.00279493
0.00278029
0.00275386
0.00248266
0.00287947
0.00311434
0.00270732
0.0033718
0.00218301
0.00268948
0.00258138
0.00274937
0.0017854
0.00239644
0.00254985
0.00273858
0.00279567
0.00375319
0.00378411
0.00362424
0.00337273
0.00334753
0.0035131
0.00334401
0.00342563
0.00343369
0.00340758
0.00306191
0.00362002
0.00342159
0.00357718
0.00385784
0.00337013
0.00318828
0.00332815
0.00336166
0.003182
0.00315109
0.00325172
0.00295568
0.00316266
0.00268404
0.0040649
0.00421055
0.00412806
0.00331154
0.00329211
0.00389525
0.00423703
0.0041036
0.00428741
0.00430857
0.00405529
0.00404935
0.00412876
0.00422007
0.00424572
0.00363583
0.00394238
0.00379303
0.00404606
0.00422698
0.00405144
0.00387961
0.00395789
0.00425708
0.00397886
0.00458221
0.00454101
0.00496607
0.00484023
0.00467713
0.00441026
0.00441906
0.00448219
0.00473681
0.00464304
0.00471413
0.00452568
0.00452876
0.0046786
0.00434654
0.00477523
0.00456107
0.00439319
0.00470942
0.00480554
0.00451004
0.00449101
0.00449801
0.00460516
0.00448027
0.00530069
0.00540609
0.00551099
0.00546262
0.0056049
0.00545713
0.00527168
0.00557852
0.00549638
0.00548335
0.00554284
0.00541403
0.00520003
0.00531398
0.00506631
0.00552481
0.00545364
0.00538064
0.00548501
0.00555435
0.00507271
0.00526682
0.00556249
0.00559601
0.0055897
0.00564065
0.00562133
0.00565389
0.00565619
0.00566624
0.00570847
0.00566002
0.00566242
0.00568183
0.00567316
0.00570181
0.00566708
0.0056922
0.00565958
0.00566783
0.00569968
0.00568094
0.00563693
0.00567131
0.00566272
0.00567296
0.00563623
0.00567567
0.00567525
0.00567451
0.0056523
0.00566229
0.00565105
0.00565729
0.005649
0.00564728
0.00565212
0.0056579
0.00565524
0.0056483
0.00564134
0.00566581
0.00564273
0.00565741
0.00565702
0.00563953
0.00565771
0.00565337
0.00565329
0.00565536
0.00565797
0.00565983
0.00565418
0.0056568
0.00565865
0.00565032
0.00565145
0.00565441
0.00565798
0.00565957
0.00565287
0.00565743
0.00565941
0.00566154
0.00566069
0.00565544
0.00565963
0.00566307
0.00565975
0.00566089
0.00565812
0.00566088
0.00565774
0.00566042
0.00566004
0.0056606
0.00566202
0.00566619
0.00566306
0.00566509
0.00565365
0.00565591
0.00565546
0.00565772
0.00565674
0.00565456
0.00565616
0.00565698
0.00565786
0.00565695
0.00565441
0.00565817
0.00565636
0.00565848
0.00565883
0.00565502
0.00565817
0.00565735
0.00565796
0.00565828
0.00565916
0.00566028
0.00565962
0.00565965
0.00566025
0.00565507
0.00565624
0.00565642
0.0056578
0.00565765
0.00565576
0.00565693
0.00565724
0.00565813
0.00565784
0.00565606
0.00565797
0.00565769
0.00565852
0.00565864
0.00565655
0.00565817
0.00565801
0.00565848
0.00565861
0.0056589
0.00565971
0.00566001
0.00565989
0.00566022
0.00565633
0.00565706
0.00565717
0.00565796
0.00565792
0.00565672
0.00565746
0.0056576
0.00565817
0.00565809
0.0056571
0.00565805
0.00565795
0.00565851
0.00565856
0.00565748
0.00565835
0.00565833
0.00565866
0.00565875
0.00565886
0.00565934
0.00565951
0.00565958
0.00565973
0.00565719
0.00565765
0.00565767
0.00565815
0.00565815
0.00565742
0.00565787
0.00565793
0.0056583
0.00565829
0.0056577
0.00565825
0.0056582
0.00565857
0.00565859
0.00565805
0.00565854
0.00565856
0.00565879
0.00565885
0.00565887
0.00565914
0.00565925
0.00565935
0.00565943
0.00565776
0.00565804
0.00565807
0.00565834
0.00565834
0.0056579
0.00565819
0.00565822
0.00565845
0.00565845
0.00565813
0.00565842
0.00565842
0.00565865
0.00565866
0.00565841
0.00565867
0.00565871
0.00565887
0.0056589
0.0056589
0.00565904
0.00565913
0.0056592
0.00565926
0.00565815
0.00565832
0.00565834
0.0056585
0.0056585
0.00565825
0.00565841
0.00565843
0.00565859
0.00565859
0.00565841
0.00565857
0.00565859
0.00565872
0.00565874
0.00565863
0.00565877
0.00565881
0.0056589
0.00565893
0.00565893
0.00565901
0.00565908
0.00565913
0.00565917
0.00565842
0.00565852
0.00565854
0.00565863
0.00565864
0.00565848
0.00565858
0.0056586
0.00565869
0.0056587
0.0056586
0.00565869
0.00565872
0.00565879
0.0056588
0.00565876
0.00565884
0.00565888
0.00565893
0.00565895
0.00565896
0.00565901
0.00565906
0.0056591
0.00565913
0.0056586
0.00565866
0.00565868
0.00565873
0.00565874
0.00565865
0.0056587
0.00565873
0.00565877
0.00565878
0.00565873
0.00565879
0.00565881
0.00565885
0.00565886
0.00565885
0.00565889
0.00565892
0.00565896
0.00565897
0.00565898
0.00565902
0.00565906
0.00565908
0.0056591
0.00565873
0.00565876
0.00565878
0.00565881
0.00565882
0.00565876
0.00565879
0.00565881
0.00565884
0.00565885
0.00565882
0.00565885
0.00565887
0.0056589
0.00565891
0.00565891
0.00565893
0.00565896
0.00565898
0.00565899
0.005659
0.00565903
0.00565905
0.00565907
0.00565908
0.00565882
0.00565884
0.00565885
0.00565887
0.00565888
0.00565884
0.00565886
0.00565888
0.00565889
0.0056589
0.00565889
0.00565891
0.00565892
0.00565894
0.00565894
0.00565895
0.00565896
0.00565898
0.00565899
0.005659
0.00565901
0.00565903
0.00565905
0.00565906
0.00565907
0.00565888
0.00565889
0.00565891
0.00565892
0.00565892
0.0056589
0.00565891
0.00565892
0.00565893
0.00565894
0.00565893
0.00565894
0.00565895
0.00565896
0.00565897
0.00565897
0.00565899
0.005659
0.00565901
0.00565901
0.00565902
0.00565904
0.00565905
0.00565906
0.00565906
0.00565893
0.00565894
0.00565894
0.00565895
0.00565895
0.00565894
0.00565895
0.00565896
0.00565896
0.00565897
0.00565896
0.00565897
0.00565898
0.00565899
0.00565899
0.00565899
0.005659
0.00565901
0.00565902
0.00565902
0.00565903
0.00565904
0.00565905
0.00565905
0.00565906
0.00565896
0.00565897
0.00565897
0.00565898
0.00565898
0.00565897
0.00565897
0.00565898
0.00565899
0.00565899
0.00565898
0.00565899
0.005659
0.005659
0.005659
0.00565901
0.00565901
0.00565902
0.00565903
0.00565903
0.00565903
0.00565904
0.00565905
0.00565905
0.00565905
0.00565898
0.00565899
0.00565899
0.005659
0.005659
0.00565899
0.00565899
0.005659
0.005659
0.005659
0.005659
0.00565901
0.00565901
0.00565901
0.00565902
0.00565902
0.00565902
0.00565903
0.00565903
0.00565903
0.00565904
0.00565904
0.00565905
0.00565905
0.00565905
0.005659
0.005659
0.00565901
0.00565901
0.00565901
0.005659
0.00565901
0.00565901
0.00565901
0.00565902
0.00565901
0.00565902
0.00565902
0.00565902
0.00565902
0.00565903
0.00565903
0.00565903
0.00565904
0.00565904
0.00565904
0.00565904
0.00565905
0.00565905
0.00565905
0.00565901
0.00565902
0.00565902
0.00565902
0.00565902
0.00565902
0.00565902
0.00565902
0.00565902
0.00565902
0.00565902
0.00565903
0.00565903
0.00565903
0.00565903
0.00565903
0.00565903
0.00565904
0.00565904
0.00565904
0.00565904
0.00565904
0.00565905
0.00565905
0.00565905
0.00565902
0.00565902
0.00565903
0.00565903
0.00565903
0.00565902
0.00565903
0.00565903
0.00565903
0.00565903
0.00565903
0.00565903
0.00565903
0.00565903
0.00565903
0.00565904
0.00565904
0.00565904
0.00565904
0.00565904
0.00565904
0.00565905
0.00565905
0.00565905
0.00565905
0.00565903
0.00565903
0.00565903
0.00565903
0.00565903
0.00565903
0.00565903
0.00565903
0.00565903
0.00565903
0.00565903
0.00565904
0.00565904
0.00565904
0.00565904
0.00565904
0.00565904
0.00565904
0.00565904
0.00565904
0.00565904
0.00565905
0.00565905
0.00565905
0.00565905
0.00565903
0.00565903
0.00565904
0.00565904
0.00565904
0.00565903
0.00565904
0.00565904
0.00565904
0.00565904
0.00565904
0.00565904
0.00565904
0.00565904
0.00565904
0.00565904
0.00565904
0.00565904
0.00565904
0.00565904
0.00565904
0.00565905
0.00565905
0.00565905
0.00565905
0.00565904
0.00565904
0.00565904
0.00565904
0.00565904
0.00565904
0.00565904
0.00565904
0.00565904
0.00565904
0.00565904
0.00565904
0.00565904
0.00565904
0.00565904
0.00565904
0.00565904
0.00565904
0.00565904
0.00565904
0.00565904
0.00565905
0.00565905
0.00565905
0.00565905
0.00565904
0.00565904
0.00565904
0.00565904
0.00565904
0.00565904
0.00565904
0.00565904
0.00565904
0.00565904
0.00565904
0.00565904
0.00565904
0.00565904
0.00565904
0.00565904
0.00565904
0.00565904
0.00565904
0.00565904
0.00565904
0.00565905
0.00565905
0.00565905
0.00565905
0.00565904
0.00565904
0.00565904
0.00565904
0.00565904
0.00565904
0.00565904
0.00565904
0.00565904
0.00565904
0.00565904
0.00565904
0.00565904
0.00565904
0.00565904
0.00565904
0.00565904
0.00565904
0.00565904
0.00565904
0.00565904
0.00565904
0.00565905
0.00565905
0.00565905
0.00565904
0.00565904
0.00565904
0.00565904
0.00565904
0.00565904
0.00565904
0.00565904
0.00565904
0.00565904
0.00565904
0.00565904
0.00565904
0.00565904
0.00565904
0.00565904
0.00565904
0.00565904
0.00565904
0.00565904
0.00565904
0.00565904
0.00565904
0.00565904
0.00565904
0.00565904
0.00565904
0.00565904
0.00565904
0.00565904
0.00565904
0.00565904
0.00565904
0.00565904
0.00565904
0.00565904
0.00565904
0.00565904
0.00565904
0.00565904
0.00565904
0.00565904
0.00565904
0.00565904
0.00565904
0.00565904
0.00565904
0.00565904
0.00565904
0.00565904
0.00565904
0.00565904
0.00565904
0.00565904
0.00565904
0.00565904
0.00565904
0.00565904
0.00565904
0.00565904
0.00565904
0.00565904
0.00565904
0.00565904
0.00565904
0.00565904
0.00565904
0.00565904
0.00565904
0.00565904
0.00565904
0.00565904
0.00565904
0.00565904
0.00565904
0.00565904
0.00565904
0.00565904
0.00565904
0.00565904
0.00565904
0.00565904
0.00565904
0.00565904
0.00565904
0.00565904
0.00565904
0.00565904
0.00565904
0.00565904
0.00565904
0.00565904
0.00565904
0.00565904
0.00565904
0.00565904
0.00565904
0.00565904
0.00565904
0.00565904
0.00565904
0.00565904
0.00565904
0.00565904
0.00565904
0.00565904
0.00565904
0.00565904
0.00565904
0.00565904
0.00565904
0.00565904
0.00565904
0.00565904
0.00565904
0.00565904
0.00565904
0.00565904
0.00565904
0.00565904
0.00565904
0.00565904
0.00565904
0.00565904
0.00565904
0.00565904
0.00565904
0.00565904
0.00565904
0.00565904
0.00565904
0.00565904
0.00565904
0.00565904
0.00565904
0.00565904
0.00565904
0.00565904
0.00565904
0.00565904
0.00565904
0.00565904
0.00565904
0.00565904
0.00565904
0.00565904
0.00565904
0.00565904
0.00565904
0.00565904
0.00565904
0.00565904
0.00565904
0.00565904
0.00565904
0.00565904
0.00565904
0.00565904
0.00565904
0.00565904
0.00565904
0.00565904
0.00565904
0.00565904
0.00565904
0.00565904
0.00565904
0.00565904
0.00565904
0.00565904
0.00565904
0.00565904
0.00565904
0.00565904
0.00565904
0.00565904
0.00565904
0.00565904
0.00565904
0.00565904
0.00565904
0.00565904
0.00565904
0.00565904
0.00565904
0.00565904
0.00565904
0.00565904
0.00565904
0.00565904
0.00565904
0.00565904
0.00565904
0.00565904
0.00565904
0.00565904
0.00565904
0.00565904
0.00565904
0.00565904
0.00565904
0.00565904
0.00565904
0.00565904
0.00565904
0.00565904
0.00565904
0.00565904
0.00565904
0.00565904
0.00565904
0.00565904
0.00565904
0.00565904
0.00565904
0.00565904
0.00565904
0.00565904
0.00565904
0.00565904
0.00565904
0.00565904
0.00565904
0.00565904
0.00565904
0.00565904
0.00565904
0.00565904
0.00565904
0.00565904
0.00565904
0.00565904
0.00565904
0.00565904
0.00565904
0.00565904
0.00565904
0.00565904
0.00565904
0.00565904
0.00565904
0.00565904
0.00565904
0.00565904
0.00565904
0.00565904
0.00565904
0.00565904
0.00565904
0.00565904
0.00565904
0.00565904
0.00565904
0.00565904
0.00565904
0.00565904
0.00565904
0.00565904
0.00565904
0.00565904
0.00565904
0.00565904
0.00565904
0.00565904
0.00565904
0.00565904
0.00565904
0.00565904
0.00565904
0.00565904
0.00565904
0.00565904
0.00565904
0.00565904
0.00565904
0.00565904
0.00565904
0.00565904
0.00565904
0.00565904
0.00565904
0.00565904
0.00565904
0.00565904
0.00565904
0.00565904
0.00565904
0.00565904
0.00565904
0.00565904
0.00565904
0.00565904
0.00565904
0.00565904
0.00565904
0.00565904
0.00565904
0.00565904
0.00565904
0.00565904
0.00565904
0.00565904
0.00565904
0.00565904
0.00565904
0.00565904
0.00565904
0.00565904
0.00565904
0.00565904
0.00565904
0.00565904
0.00565904
0.00565904
0.00565904
0.00565904
0.00565904
0.00565904
0.00565904
0.00565904
0.00565904
0.00565904
0.00565904
0.00565904
0.00565904
0.00565904
0.00565904
0.00565904
0.00565904
0.00565904
0.00565904
0.00565904
0.00565904
0.00565904
0.00565904
0.00565904
0.00565904
0.00565904
0.00565904
0.00565904
0.00565904
0.00565904
0.00565904
0.00565904
0.00565904
0.00565904
0.00565904
0.00565904
0.00565904
0.00565904
)
;

boundaryField
{
    inlet
    {
        type            zeroGradient;
    }
    outlet
    {
        type            fixedValue;
        value           uniform 0;
    }
    repeat_boundary
    {
        type            zeroGradient;
    }
    procBoundary1to0
    {
        type            processor;
        value           nonuniform List<scalar> 
450
(
1.92412e-10
1.67851e-10
1.12812e-10
7.14437e-11
3.92804e-11
5.42187e-10
4.67536e-10
3.42462e-10
2.32101e-10
1.22995e-10
8.27953e-10
7.31939e-10
5.90101e-10
4.28097e-10
2.88336e-10
1.08956e-09
1.00623e-09
8.61119e-10
6.40172e-10
4.65944e-10
1.40186e-09
1.34862e-09
1.19356e-09
9.21986e-10
6.79961e-10
1.78324e-09
1.73663e-09
1.57412e-09
1.34004e-09
1.1375e-09
2.19181e-09
2.11126e-09
1.94489e-09
1.78943e-09
1.72159e-09
2.6561e-09
2.53157e-09
2.32872e-09
2.12183e-09
2.01564e-09
3.27299e-09
3.11671e-09
2.81004e-09
2.3824e-09
1.9524e-09
4.02709e-09
3.82309e-09
3.38856e-09
2.76356e-09
2.01633e-09
4.77773e-09
4.52862e-09
4.04843e-09
3.40528e-09
2.591e-09
5.56084e-09
5.32068e-09
4.8673e-09
4.25738e-09
3.45138e-09
6.5972e-09
6.35936e-09
5.87292e-09
5.18107e-09
4.29512e-09
7.97537e-09
7.66608e-09
7.06083e-09
6.21779e-09
5.24195e-09
9.74226e-09
9.33792e-09
8.56717e-09
7.51722e-09
6.35265e-09
1.20905e-08
1.15538e-08
1.04837e-08
9.0071e-09
7.30749e-09
1.51243e-08
1.43343e-08
1.27509e-08
1.05428e-08
7.93556e-09
1.88658e-08
1.77219e-08
1.54798e-08
1.23434e-08
8.60531e-09
2.3577e-08
2.20197e-08
1.90455e-08
1.48706e-08
9.86204e-09
2.98138e-08
2.77495e-08
2.3853e-08
1.83272e-08
1.16759e-08
3.83634e-08
3.55838e-08
3.02786e-08
2.27367e-08
1.35865e-08
5.01527e-08
4.63041e-08
3.88999e-08
2.85281e-08
1.59106e-08
6.63591e-08
6.10352e-08
5.07322e-08
3.64644e-08
1.92926e-08
8.88743e-08
8.15321e-08
6.72856e-08
4.74996e-08
2.3803e-08
1.20488e-07
1.10325e-07
9.07813e-08
6.34983e-08
3.08146e-08
1.65169e-07
1.51177e-07
1.24503e-07
8.72764e-08
4.28177e-08
2.28732e-07
2.09655e-07
1.73348e-07
1.22563e-07
6.15667e-08
3.19846e-07
2.94125e-07
2.44921e-07
1.75485e-07
9.11756e-08
4.52283e-07
4.17698e-07
3.51278e-07
2.56273e-07
1.40151e-07
6.48025e-07
6.01069e-07
5.12304e-07
3.81933e-07
2.21877e-07
9.42335e-07
8.77069e-07
7.61659e-07
5.81118e-07
3.60765e-07
1.3956e-06
1.29911e-06
1.15877e-06
9.01872e-07
6.02133e-07
2.11361e-06
1.95975e-06
1.81261e-06
1.42828e-06
1.03138e-06
3.27014e-06
3.02154e-06
2.90203e-06
2.32123e-06
1.8074e-06
5.14166e-06
4.7589e-06
4.68588e-06
3.87492e-06
3.21267e-06
8.20089e-06
7.67102e-06
7.64342e-06
6.67247e-06
5.80446e-06
1.58725e-05
1.32651e-05
1.48662e-05
1.226e-05
1.15746e-05
1.67675e-05
1.78607e-05
1.67558e-05
1.79074e-05
1.63544e-05
4.98155e-05
3.17858e-05
5.0681e-05
3.72205e-05
4.06236e-05
3.1881e-05
5.00065e-05
8.12985e-05
6.62071e-05
7.57011e-05
0.000118296
-5.42159e-05
0.000294721
-1.4795e-06
0.000188619
0.000392177
0.00024728
0.000283116
8.98553e-05
-0.000135378
0.000959005
0.00106559
0.00101596
0.00111251
0.000826608
0.00119935
-0.000261237
0.00138109
0.000998647
0.000879824
0.000989612
0.00211098
-4.04276e-05
0.000525284
0.00145533
0.00228
0.00204891
0.00186106
0.00146324
0.00169583
0.00266483
0.00206965
0.00334533
0.00246919
0.00220309
0.00320878
0.00327937
0.00326523
0.00315421
0.00320945
0.00482045
0.00493112
0.0039414
0.003895
0.00379224
0.00508045
0.00532965
0.00489468
0.00436584
0.00449786
0.00549175
0.00552415
0.00547843
0.00545363
0.00536641