/*--------------------------------*- C++ -*----------------------------------*\
| =========                 |                                                 |
| \\      /  F ield         | OpenFOAM: The Open Source CFD Toolbox           |
|  \\    /   O peration     | Version:  5.x                                   |
|   \\  /    A nd           | Web:      www.OpenFOAM.org                      |
|    \\/     M anipulation  |                                                 |
\*---------------------------------------------------------------------------*/
FoamFile
{
    version     2.0;
    format      ascii;
    class       volVectorField;
    location    "0.07";
    object      U;
}
// * * * * * * * * * * * * * * * * * * * * * * * * * * * * * * * * * * * * * //

dimensions      [0 1 -1 0 0 0 0];

internalField   nonuniform List<vector> 
2250
(
(-2.30354e-10 -1.91207e-11 -0.000999999)
(-2.24941e-10 -3.10167e-11 -0.000999999)
(-1.82002e-10 -3.18559e-11 -0.001)
(-1.07857e-10 -2.98162e-11 -0.001)
(-3.34743e-11 -2.5519e-11 -0.001)
(-2.41039e-10 -7.05498e-11 -0.000999999)
(-2.38202e-10 -8.27313e-11 -0.001)
(-1.81177e-10 -7.79091e-11 -0.001)
(-1.01753e-10 -6.83838e-11 -0.001)
(-2.92764e-11 -5.70069e-11 -0.001)
(-2.47532e-10 -1.27376e-10 -0.000999999)
(-2.32799e-10 -1.1989e-10 -0.001)
(-1.68046e-10 -1.04341e-10 -0.001)
(-8.72963e-11 -8.66733e-11 -0.001)
(-2.22961e-11 -7.52704e-11 -0.001)
(-2.41939e-10 -1.74172e-10 -0.001)
(-2.15197e-10 -1.5668e-10 -0.001)
(-1.47992e-10 -1.35127e-10 -0.001)
(-7.2868e-11 -1.12456e-10 -0.001)
(-1.80541e-11 -1.04852e-10 -0.001)
(-2.45388e-10 -1.53891e-10 -0.001)
(-1.93872e-10 -1.58585e-10 -0.001)
(-1.2385e-10 -1.53621e-10 -0.001)
(-5.7263e-11 -1.46101e-10 -0.001)
(-1.492e-11 -1.43933e-10 -0.001)
(-6.40912e-10 -6.68826e-11 -0.000999999)
(-6.16636e-10 -8.48978e-11 -0.000999999)
(-4.80232e-10 -8.24724e-11 -0.001)
(-2.83719e-10 -6.69916e-11 -0.001)
(-8.69652e-11 -5.88731e-11 -0.001)
(-6.60081e-10 -2.13208e-10 -0.000999999)
(-6.33484e-10 -2.22139e-10 -0.001)
(-4.63184e-10 -1.99748e-10 -0.001)
(-2.60653e-10 -1.70941e-10 -0.001)
(-7.90868e-11 -1.45705e-10 -0.001)
(-6.57204e-10 -3.40401e-10 -0.000999999)
(-6.04402e-10 -3.18814e-10 -0.001)
(-4.2997e-10 -2.757e-10 -0.001)
(-2.30484e-10 -2.35469e-10 -0.001)
(-6.2204e-11 -2.13095e-10 -0.001)
(-6.31964e-10 -4.2746e-10 -0.001)
(-5.68831e-10 -4.00695e-10 -0.001)
(-3.79919e-10 -3.51254e-10 -0.001)
(-1.98509e-10 -2.96715e-10 -0.001)
(-5.71604e-11 -2.83023e-10 -0.001)
(-6.11205e-10 -4.36354e-10 -0.001)
(-5.28082e-10 -4.05295e-10 -0.001)
(-3.26029e-10 -3.92852e-10 -0.001)
(-1.62798e-10 -3.86798e-10 -0.001)
(-4.90536e-11 -3.85737e-10 -0.001)
(-1.08948e-09 -1.39026e-10 -0.000999999)
(-1.02234e-09 -1.40453e-10 -0.000999999)
(-7.76775e-10 -1.28915e-10 -0.001)
(-4.57634e-10 -1.07804e-10 -0.001)
(-1.43837e-10 -9.27776e-11 -0.001)
(-1.09547e-09 -4.03056e-10 -0.000999999)
(-1.0141e-09 -3.87906e-10 -0.000999999)
(-7.45437e-10 -3.39378e-10 -0.001)
(-4.22372e-10 -2.97926e-10 -0.001)
(-1.29226e-10 -2.70342e-10 -0.001)
(-1.07294e-09 -5.82351e-10 -0.000999999)
(-9.60586e-10 -5.56436e-10 -0.001)
(-6.88264e-10 -4.93745e-10 -0.001)
(-3.89956e-10 -4.48393e-10 -0.001)
(-1.1706e-10 -4.41172e-10 -0.001)
(-1.01455e-09 -6.56093e-10 -0.001)
(-9.25594e-10 -6.48882e-10 -0.001)
(-6.37536e-10 -6.16315e-10 -0.001)
(-3.70743e-10 -5.79546e-10 -0.001)
(-1.22868e-10 -5.82432e-10 -0.001)
(-9.13046e-10 -8.27605e-10 -0.001)
(-9.20811e-10 -7.38027e-10 -0.001)
(-6.18997e-10 -7.14661e-10 -0.001)
(-3.57193e-10 -7.17976e-10 -0.001)
(-1.20994e-10 -7.21355e-10 -0.001)
(-1.5981e-09 -2.27948e-10 -0.000999999)
(-1.46155e-09 -2.05667e-10 -0.000999999)
(-1.106e-09 -1.82354e-10 -0.001)
(-6.68928e-10 -1.6533e-10 -0.001)
(-2.18843e-10 -1.53299e-10 -0.001)
(-1.58841e-09 -6.43846e-10 -0.000999999)
(-1.41845e-09 -5.84627e-10 -0.000999999)
(-1.06751e-09 -5.26678e-10 -0.001)
(-6.4124e-10 -4.92861e-10 -0.001)
(-2.07461e-10 -4.77585e-10 -0.001)
(-1.55236e-09 -9.14714e-10 -0.000999999)
(-1.34707e-09 -8.67934e-10 -0.001)
(-1.01632e-09 -8.18292e-10 -0.001)
(-6.21976e-10 -7.83751e-10 -0.001)
(-2.04851e-10 -7.92351e-10 -0.001)
(-1.49637e-09 -1.0311e-09 -0.001)
(-1.32218e-09 -1.02578e-09 -0.001)
(-9.83544e-10 -1.02789e-09 -0.001)
(-6.16936e-10 -1.01965e-09 -0.001)
(-2.17505e-10 -1.03434e-09 -0.001)
(-1.3863e-09 -1.2186e-09 -0.001)
(-1.3439e-09 -1.18604e-09 -0.001)
(-1.01038e-09 -1.17857e-09 -0.001)
(-6.30682e-10 -1.1886e-09 -0.001)
(-2.21625e-10 -1.1849e-09 -0.001)
(-2.23305e-09 -3.22583e-10 -0.000999998)
(-2.01825e-09 -2.85257e-10 -0.000999999)
(-1.54768e-09 -2.66334e-10 -0.001)
(-9.74463e-10 -2.55336e-10 -0.001)
(-3.30972e-10 -2.53575e-10 -0.001)
(-2.2104e-09 -9.17109e-10 -0.000999998)
(-1.96542e-09 -8.35361e-10 -0.000999999)
(-1.52046e-09 -7.91536e-10 -0.001)
(-9.63877e-10 -7.74706e-10 -0.001)
(-3.30235e-10 -7.75591e-10 -0.001)
(-2.18548e-09 -1.34597e-09 -0.000999999)
(-1.89642e-09 -1.28521e-09 -0.000999999)
(-1.49003e-09 -1.25559e-09 -0.001)
(-9.61859e-10 -1.24226e-09 -0.001)
(-3.33886e-10 -1.24715e-09 -0.001)
(-2.17551e-09 -1.61626e-09 -0.000999999)
(-1.87531e-09 -1.59136e-09 -0.001)
(-1.47785e-09 -1.59791e-09 -0.001)
(-9.58002e-10 -1.59574e-09 -0.001)
(-3.37463e-10 -1.59257e-09 -0.001)
(-2.17527e-09 -1.65276e-09 -0.001)
(-1.87803e-09 -1.73847e-09 -0.001)
(-1.49459e-09 -1.76524e-09 -0.001)
(-9.59739e-10 -1.76812e-09 -0.001)
(-3.33746e-10 -1.75636e-09 -0.001)
(-3.07799e-09 -4.18826e-10 -0.000999998)
(-2.78526e-09 -3.8754e-10 -0.000999999)
(-2.17733e-09 -3.85335e-10 -0.001)
(-1.41182e-09 -3.84536e-10 -0.001)
(-4.91536e-10 -3.88243e-10 -0.001)
(-3.05297e-09 -1.20635e-09 -0.000999998)
(-2.75665e-09 -1.14891e-09 -0.000999999)
(-2.17829e-09 -1.13721e-09 -0.001)
(-1.41796e-09 -1.13631e-09 -0.001)
(-4.96778e-10 -1.13874e-09 -0.001)
(-3.04557e-09 -1.82496e-09 -0.000999998)
(-2.7213e-09 -1.79655e-09 -0.000999999)
(-2.16894e-09 -1.78729e-09 -0.001)
(-1.41818e-09 -1.78372e-09 -0.001)
(-4.96939e-10 -1.76936e-09 -0.001)
(-3.05804e-09 -2.30829e-09 -0.000999999)
(-2.71924e-09 -2.27528e-09 -0.001)
(-2.16582e-09 -2.26529e-09 -0.001)
(-1.40365e-09 -2.25167e-09 -0.001)
(-4.85791e-10 -2.22434e-09 -0.001)
(-3.14959e-09 -2.33917e-09 -0.001)
(-2.67844e-09 -2.42858e-09 -0.001)
(-2.14561e-09 -2.45135e-09 -0.001)
(-1.38167e-09 -2.4449e-09 -0.001)
(-4.73831e-10 -2.43773e-09 -0.001)
(-4.22574e-09 -5.3805e-10 -0.000999997)
(-3.84211e-09 -5.28878e-10 -0.000999998)
(-3.05296e-09 -5.40776e-10 -0.001)
(-1.99515e-09 -5.46124e-10 -0.001)
(-6.96967e-10 -5.41839e-10 -0.001)
(-4.21724e-09 -1.56211e-09 -0.000999997)
(-3.85181e-09 -1.55442e-09 -0.000999999)
(-3.07587e-09 -1.568e-09 -0.001)
(-2.0009e-09 -1.56835e-09 -0.001)
(-6.94916e-10 -1.55873e-09 -0.001)
(-4.21989e-09 -2.39582e-09 -0.000999998)
(-3.85535e-09 -2.42105e-09 -0.000999999)
(-3.07294e-09 -2.42283e-09 -0.001)
(-1.99273e-09 -2.41929e-09 -0.001)
(-6.91535e-10 -2.3987e-09 -0.001)
(-4.20692e-09 -3.02975e-09 -0.000999999)
(-3.87918e-09 -3.04292e-09 -0.001)
(-3.07476e-09 -3.03435e-09 -0.001)
(-1.98173e-09 -3.03246e-09 -0.001)
(-6.78888e-10 -3.01058e-09 -0.001)
(-4.21151e-09 -3.38612e-09 -0.001)
(-3.85991e-09 -3.34122e-09 -0.001)
(-3.06286e-09 -3.32252e-09 -0.001)
(-1.97496e-09 -3.31439e-09 -0.001)
(-6.75312e-10 -3.32285e-09 -0.001)
(-5.77959e-09 -7.19819e-10 -0.000999996)
(-5.27e-09 -7.25552e-10 -0.000999998)
(-4.21233e-09 -7.38097e-10 -0.001)
(-2.728e-09 -7.38742e-10 -0.001)
(-9.42287e-10 -7.25329e-10 -0.001)
(-5.7951e-09 -2.08453e-09 -0.000999997)
(-5.29794e-09 -2.10189e-09 -0.000999998)
(-4.23332e-09 -2.11672e-09 -0.001)
(-2.7215e-09 -2.11215e-09 -0.001)
(-9.31836e-10 -2.10067e-09 -0.001)
(-5.80187e-09 -3.21017e-09 -0.000999998)
(-5.31231e-09 -3.24912e-09 -0.000999999)
(-4.2309e-09 -3.25706e-09 -0.001)
(-2.72119e-09 -3.26492e-09 -0.001)
(-9.36419e-10 -3.26402e-09 -0.001)
(-5.7751e-09 -4.01607e-09 -0.000999999)
(-5.34538e-09 -4.04752e-09 -0.001)
(-4.24993e-09 -4.07306e-09 -0.001)
(-2.73516e-09 -4.10943e-09 -0.001)
(-9.37079e-10 -4.11451e-09 -0.001)
(-5.65953e-09 -4.68038e-09 -0.001)
(-5.36934e-09 -4.57933e-09 -0.001)
(-4.29333e-09 -4.53958e-09 -0.001)
(-2.77079e-09 -4.54515e-09 -0.001)
(-9.4912e-10 -4.56299e-09 -0.00100001)
(-7.88142e-09 -9.88947e-10 -0.000999995)
(-7.16415e-09 -9.90043e-10 -0.000999997)
(-5.71322e-09 -9.95327e-10 -0.000999999)
(-3.66649e-09 -9.92378e-10 -0.001)
(-1.2564e-09 -9.83062e-10 -0.001)
(-7.9037e-09 -2.84618e-09 -0.000999996)
(-7.1836e-09 -2.85725e-09 -0.000999998)
(-5.72607e-09 -2.86673e-09 -0.001)
(-3.66265e-09 -2.87268e-09 -0.001)
(-1.25105e-09 -2.87536e-09 -0.001)
(-7.9144e-09 -4.39788e-09 -0.000999997)
(-7.19842e-09 -4.42517e-09 -0.000999999)
(-5.73991e-09 -4.45179e-09 -0.001)
(-3.68762e-09 -4.48391e-09 -0.001)
(-1.26665e-09 -4.50233e-09 -0.001)
(-7.92211e-09 -5.53383e-09 -0.000999998)
(-7.23825e-09 -5.55566e-09 -0.001)
(-5.78592e-09 -5.61568e-09 -0.001)
(-3.72238e-09 -5.67283e-09 -0.001)
(-1.27786e-09 -5.6896e-09 -0.00100001)
(-7.85116e-09 -6.27904e-09 -0.001)
(-7.28029e-09 -6.27453e-09 -0.001)
(-5.85777e-09 -6.26913e-09 -0.001)
(-3.77271e-09 -6.2928e-09 -0.00100001)
(-1.29386e-09 -6.3025e-09 -0.00100001)
(-1.0742e-08 -1.35142e-09 -0.000999993)
(-9.70608e-09 -1.3506e-09 -0.000999996)
(-7.72347e-09 -1.35615e-09 -0.000999999)
(-4.9511e-09 -1.35668e-09 -0.001)
(-1.69724e-09 -1.35577e-09 -0.001)
(-1.07589e-08 -3.90468e-09 -0.000999994)
(-9.72844e-09 -3.92226e-09 -0.000999997)
(-7.74371e-09 -3.9394e-09 -0.001)
(-4.96215e-09 -3.95947e-09 -0.001)
(-1.70172e-09 -3.9668e-09 -0.001)
(-1.07766e-08 -6.07663e-09 -0.000999996)
(-9.75934e-09 -6.11684e-09 -0.000999999)
(-7.77587e-09 -6.16007e-09 -0.001)
(-4.9955e-09 -6.19676e-09 -0.001)
(-1.7149e-09 -6.20782e-09 -0.001)
(-1.08249e-08 -7.7298e-09 -0.000999998)
(-9.81289e-09 -7.75113e-09 -0.001)
(-7.82514e-09 -7.80929e-09 -0.001)
(-5.02252e-09 -7.83912e-09 -0.00100001)
(-1.72434e-09 -7.84026e-09 -0.00100001)
(-1.08835e-08 -8.5455e-09 -0.001)
(-9.83888e-09 -8.62872e-09 -0.001)
(-7.86481e-09 -8.65504e-09 -0.00100001)
(-5.0418e-09 -8.67823e-09 -0.00100001)
(-1.73043e-09 -8.66494e-09 -0.00100001)
(-1.46767e-08 -1.8495e-09 -0.00099999)
(-1.32199e-08 -1.8587e-09 -0.000999995)
(-1.0505e-08 -1.86559e-09 -0.000999999)
(-6.74167e-09 -1.8647e-09 -0.001)
(-2.31494e-09 -1.86368e-09 -0.001)
(-1.46941e-08 -5.38908e-09 -0.000999991)
(-1.32599e-08 -5.41934e-09 -0.000999996)
(-1.05302e-08 -5.43446e-09 -0.001)
(-6.75535e-09 -5.44429e-09 -0.001)
(-2.32132e-09 -5.43771e-09 -0.001)
(-1.47076e-08 -8.41344e-09 -0.000999994)
(-1.32904e-08 -8.46552e-09 -0.000999998)
(-1.05506e-08 -8.49093e-09 -0.001)
(-6.76813e-09 -8.50095e-09 -0.001)
(-2.32255e-09 -8.49086e-09 -0.00100001)
(-1.474e-08 -1.07091e-08 -0.000999997)
(-1.33388e-08 -1.07242e-08 -0.001)
(-1.05677e-08 -1.07409e-08 -0.00100001)
(-6.77257e-09 -1.07244e-08 -0.00100001)
(-2.32713e-09 -1.07065e-08 -0.00100001)
(-1.48276e-08 -1.18258e-08 -0.001)
(-1.33224e-08 -1.18597e-08 -0.00100001)
(-1.0552e-08 -1.18653e-08 -0.00100001)
(-6.7547e-09 -1.18665e-08 -0.00100001)
(-2.32443e-09 -1.18284e-08 -0.00100001)
(-2.00706e-08 -2.55673e-09 -0.000999987)
(-1.80757e-08 -2.55805e-09 -0.000999993)
(-1.43326e-08 -2.55427e-09 -0.000999998)
(-9.19661e-09 -2.54477e-09 -0.001)
(-3.15878e-09 -2.54084e-09 -0.001)
(-2.00847e-08 -7.44895e-09 -0.000999988)
(-1.81057e-08 -7.4506e-09 -0.000999995)
(-1.43453e-08 -7.43954e-09 -0.001)
(-9.20439e-09 -7.42517e-09 -0.001)
(-3.16493e-09 -7.40794e-09 -0.00100001)
(-2.00753e-08 -1.15801e-08 -0.000999991)
(-1.81005e-08 -1.16112e-08 -0.000999998)
(-1.43352e-08 -1.15995e-08 -0.001)
(-9.19668e-09 -1.15822e-08 -0.00100001)
(-3.16096e-09 -1.156e-08 -0.00100001)
(-2.00662e-08 -1.46155e-08 -0.000999996)
(-1.81269e-08 -1.46471e-08 -0.001)
(-1.43191e-08 -1.46281e-08 -0.00100001)
(-9.18856e-09 -1.45912e-08 -0.00100001)
(-3.16456e-09 -1.45621e-08 -0.00100001)
(-2.00703e-08 -1.62883e-08 -0.001)
(-1.81132e-08 -1.62084e-08 -0.00100001)
(-1.4281e-08 -1.61792e-08 -0.00100001)
(-9.15932e-09 -1.61565e-08 -0.00100002)
(-3.15879e-09 -1.61001e-08 -0.00100002)
(-2.73854e-08 -3.51505e-09 -0.000999982)
(-2.46714e-08 -3.49086e-09 -0.00099999)
(-1.95446e-08 -3.47457e-09 -0.000999997)
(-1.25454e-08 -3.46254e-09 -0.001)
(-4.31261e-09 -3.45981e-09 -0.00100001)
(-2.73926e-08 -1.01958e-08 -0.000999984)
(-2.46749e-08 -1.01572e-08 -0.000999993)
(-1.95516e-08 -1.01242e-08 -0.001)
(-1.25595e-08 -1.00994e-08 -0.001)
(-4.32362e-09 -1.00811e-08 -0.00100001)
(-2.73645e-08 -1.57974e-08 -0.000999988)
(-2.46464e-08 -1.58159e-08 -0.000999997)
(-1.95248e-08 -1.57849e-08 -0.001)
(-1.25455e-08 -1.5753e-08 -0.00100001)
(-4.32081e-09 -1.57195e-08 -0.00100001)
(-2.73384e-08 -1.9846e-08 -0.000999994)
(-2.4665e-08 -1.99168e-08 -0.001)
(-1.94924e-08 -1.98876e-08 -0.00100001)
(-1.25263e-08 -1.98454e-08 -0.00100001)
(-4.31969e-09 -1.97911e-08 -0.00100002)
(-2.72687e-08 -2.22157e-08 -0.001)
(-2.46881e-08 -2.20757e-08 -0.00100001)
(-1.94559e-08 -2.20201e-08 -0.00100002)
(-1.24879e-08 -2.19763e-08 -0.00100002)
(-4.30315e-09 -2.19005e-08 -0.00100002)
(-3.73127e-08 -4.78257e-09 -0.000999975)
(-3.36211e-08 -4.74753e-09 -0.000999987)
(-2.66561e-08 -4.72938e-09 -0.000999997)
(-1.71303e-08 -4.7211e-09 -0.001)
(-5.89704e-09 -4.71436e-09 -0.00100001)
(-3.73281e-08 -1.38622e-08 -0.000999979)
(-3.36277e-08 -1.38159e-08 -0.00099999)
(-2.66776e-08 -1.37743e-08 -0.001)
(-1.71545e-08 -1.3743e-08 -0.00100001)
(-5.90904e-09 -1.37122e-08 -0.00100001)
(-3.72864e-08 -2.15194e-08 -0.000999984)
(-3.35965e-08 -2.15214e-08 -0.000999996)
(-2.66349e-08 -2.14677e-08 -0.00100001)
(-1.71269e-08 -2.14102e-08 -0.00100001)
(-5.90236e-09 -2.13496e-08 -0.00100002)
(-3.72327e-08 -2.70592e-08 -0.000999992)
(-3.35794e-08 -2.70962e-08 -0.001)
(-2.65716e-08 -2.70348e-08 -0.00100001)
(-1.70801e-08 -2.69693e-08 -0.00100002)
(-5.88865e-09 -2.6871e-08 -0.00100002)
(-3.70768e-08 -3.02432e-08 -0.001)
(-3.35723e-08 -3.00392e-08 -0.00100001)
(-2.65112e-08 -2.99368e-08 -0.00100002)
(-1.7016e-08 -2.98643e-08 -0.00100003)
(-5.85389e-09 -2.97622e-08 -0.00100003)
(-5.08632e-08 -6.50375e-09 -0.000999967)
(-4.58448e-08 -6.46978e-09 -0.000999982)
(-3.63796e-08 -6.4487e-09 -0.000999996)
(-2.33904e-08 -6.4342e-09 -0.00100001)
(-8.05605e-09 -6.4125e-09 -0.00100001)
(-5.08913e-08 -1.88725e-08 -0.000999971)
(-4.58711e-08 -1.88106e-08 -0.000999986)
(-3.64092e-08 -1.87424e-08 -0.001)
(-2.34076e-08 -1.86838e-08 -0.00100001)
(-8.05987e-09 -1.86234e-08 -0.00100001)
(-5.08068e-08 -2.93554e-08 -0.000999979)
(-4.58007e-08 -2.92767e-08 -0.000999994)
(-3.6323e-08 -2.91625e-08 -0.00100001)
(-2.33513e-08 -2.90632e-08 -0.00100002)
(-8.04478e-09 -2.89654e-08 -0.00100002)
(-5.06591e-08 -3.69523e-08 -0.000999989)
(-4.56828e-08 -3.68331e-08 -0.001)
(-3.62027e-08 -3.67011e-08 -0.00100002)
(-2.327e-08 -3.65991e-08 -0.00100003)
(-8.01681e-09 -3.64579e-08 -0.00100003)
(-5.03662e-08 -4.11453e-08 -0.001)
(-4.55497e-08 -4.08298e-08 -0.00100002)
(-3.60935e-08 -4.06524e-08 -0.00100003)
(-2.31803e-08 -4.05423e-08 -0.00100004)
(-7.97159e-09 -4.04074e-08 -0.00100004)
(-6.93693e-08 -8.86073e-09 -0.000999955)
(-6.25432e-08 -8.8178e-09 -0.000999976)
(-4.96441e-08 -8.77713e-09 -0.000999994)
(-3.19033e-08 -8.74255e-09 -0.00100001)
(-1.09829e-08 -8.70573e-09 -0.00100001)
(-6.93989e-08 -2.57144e-08 -0.00099996)
(-6.257e-08 -2.55906e-08 -0.000999982)
(-4.96574e-08 -2.54647e-08 -0.001)
(-3.19045e-08 -2.53651e-08 -0.00100001)
(-1.09808e-08 -2.52724e-08 -0.00100002)
(-6.92296e-08 -3.99724e-08 -0.000999971)
(-6.24104e-08 -3.97678e-08 -0.000999992)
(-4.95142e-08 -3.95756e-08 -0.00100001)
(-3.18197e-08 -3.94363e-08 -0.00100002)
(-1.0957e-08 -3.92969e-08 -0.00100003)
(-6.89435e-08 -5.02603e-08 -0.000999985)
(-6.21796e-08 -4.99975e-08 -0.00100001)
(-4.93355e-08 -4.9792e-08 -0.00100002)
(-3.17068e-08 -4.96515e-08 -0.00100004)
(-1.09159e-08 -4.9476e-08 -0.00100004)
(-6.84982e-08 -5.58893e-08 -0.001)
(-6.19424e-08 -5.54618e-08 -0.00100002)
(-4.91742e-08 -5.51915e-08 -0.00100004)
(-3.16021e-08 -5.50243e-08 -0.00100005)
(-1.08743e-08 -5.48457e-08 -0.00100006)
(-9.46201e-08 -1.20652e-08 -0.000999938)
(-8.53229e-08 -1.19933e-08 -0.000999967)
(-6.77186e-08 -1.19178e-08 -0.000999992)
(-4.34931e-08 -1.18612e-08 -0.00100001)
(-1.49659e-08 -1.18137e-08 -0.00100002)
(-9.4639e-08 -3.49977e-08 -0.000999946)
(-8.53254e-08 -3.47719e-08 -0.000999975)
(-6.77066e-08 -3.45704e-08 -0.001)
(-4.34877e-08 -3.44299e-08 -0.00100002)
(-1.49657e-08 -3.4301e-08 -0.00100003)
(-9.43557e-08 -5.4347e-08 -0.00099996)
(-8.50543e-08 -5.40061e-08 -0.000999989)
(-6.75064e-08 -5.37315e-08 -0.00100001)
(-4.33717e-08 -5.35415e-08 -0.00100003)
(-1.49281e-08 -5.33469e-08 -0.00100004)
(-9.39276e-08 -6.82901e-08 -0.00099998)
(-8.47186e-08 -6.79141e-08 -0.00100001)
(-6.72552e-08 -6.76122e-08 -0.00100003)
(-4.32138e-08 -6.74046e-08 -0.00100005)
(-1.4873e-08 -6.71842e-08 -0.00100006)
(-9.33521e-08 -7.58662e-08 -0.001)
(-8.43768e-08 -7.53598e-08 -0.00100003)
(-6.70051e-08 -7.49652e-08 -0.00100006)
(-4.3078e-08 -7.47034e-08 -0.00100007)
(-1.48344e-08 -7.44582e-08 -0.00100008)
(-1.29068e-07 -1.64182e-08 -0.000999916)
(-1.16397e-07 -1.62933e-08 -0.000999955)
(-9.23683e-08 -1.61781e-08 -0.000999989)
(-5.93175e-08 -1.60992e-08 -0.00100001)
(-2.04091e-08 -1.60354e-08 -0.00100003)
(-1.29052e-07 -4.76109e-08 -0.000999926)
(-1.1636e-07 -4.72541e-08 -0.000999966)
(-9.23373e-08 -4.69589e-08 -0.001)
(-5.93088e-08 -4.6758e-08 -0.00100002)
(-2.04095e-08 -4.65733e-08 -0.00100004)
(-1.28618e-07 -7.39462e-08 -0.000999946)
(-1.15961e-07 -7.3432e-08 -0.000999985)
(-9.20486e-08 -7.30227e-08 -0.00100002)
(-5.91334e-08 -7.27296e-08 -0.00100004)
(-2.03486e-08 -7.24506e-08 -0.00100006)
(-1.28021e-07 -9.30197e-08 -0.000999973)
(-1.15449e-07 -9.24139e-08 -0.00100001)
(-9.16528e-08 -9.19126e-08 -0.00100005)
(-5.88879e-08 -9.15588e-08 -0.00100007)
(-2.02697e-08 -9.12323e-08 -0.00100008)
(-1.27288e-07 -1.0309e-07 -0.001)
(-1.14854e-07 -1.02429e-07 -0.00100004)
(-9.12046e-08 -1.01842e-07 -0.00100008)
(-5.86364e-08 -1.01426e-07 -0.0010001)
(-2.0195e-08 -1.01058e-07 -0.00100011)
(-1.76059e-07 -2.23352e-08 -0.000999885)
(-1.58792e-07 -2.21443e-08 -0.00099994)
(-1.26018e-07 -2.1981e-08 -0.000999986)
(-8.09428e-08 -2.18653e-08 -0.00100002)
(-2.78519e-08 -2.17733e-08 -0.00100004)
(-1.75982e-07 -6.47847e-08 -0.0009999)
(-1.58714e-07 -6.42672e-08 -0.000999954)
(-1.2596e-07 -6.38295e-08 -0.001)
(-8.09172e-08 -6.3516e-08 -0.00100003)
(-2.78473e-08 -6.32443e-08 -0.00100005)
(-1.75314e-07 -1.007e-07 -0.000999926)
(-1.58129e-07 -9.99204e-08 -0.00099998)
(-1.25506e-07 -9.92683e-08 -0.00100003)
(-8.06318e-08 -9.87906e-08 -0.00100006)
(-2.77497e-08 -9.83745e-08 -0.00100008)
(-1.74419e-07 -1.268e-07 -0.000999963)
(-1.57298e-07 -1.25784e-07 -0.00100002)
(-1.24855e-07 -1.24943e-07 -0.00100006)
(-8.023e-08 -1.24338e-07 -0.00100009)
(-2.76217e-08 -1.23822e-07 -0.00100011)
(-1.73359e-07 -1.40273e-07 -0.00100001)
(-1.56274e-07 -1.3923e-07 -0.00100006)
(-1.24076e-07 -1.38313e-07 -0.0010001)
(-7.97608e-08 -1.37647e-07 -0.00100014)
(-2.74698e-08 -1.37073e-07 -0.00100015)
(-2.40197e-07 -3.04089e-08 -0.000999844)
(-2.16666e-07 -3.01235e-08 -0.000999918)
(-1.71974e-07 -2.98796e-08 -0.000999981)
(-1.10492e-07 -2.97039e-08 -0.00100003)
(-3.80281e-08 -2.95683e-08 -0.00100005)
(-2.40023e-07 -8.82201e-08 -0.000999864)
(-2.16511e-07 -8.74376e-08 -0.000999937)
(-1.71854e-07 -8.67654e-08 -0.001)
(-1.10428e-07 -8.62729e-08 -0.00100005)
(-3.80117e-08 -8.58676e-08 -0.00100007)
(-2.38976e-07 -1.3715e-07 -0.0009999)
(-2.15608e-07 -1.3593e-07 -0.000999973)
(-1.71134e-07 -1.349e-07 -0.00100004)
(-1.09967e-07 -1.34144e-07 -0.00100008)
(-3.78541e-08 -1.33521e-07 -0.00100011)
(-2.37579e-07 -1.72658e-07 -0.00099995)
(-2.14284e-07 -1.7105e-07 -0.00100002)
(-1.70102e-07 -1.69728e-07 -0.00100008)
(-1.09331e-07 -1.68775e-07 -0.00100013)
(-3.76491e-08 -1.68006e-07 -0.00100015)
(-2.35926e-07 -1.90839e-07 -0.00100001)
(-2.12679e-07 -1.89187e-07 -0.00100008)
(-1.6888e-07 -1.87761e-07 -0.00100014)
(-1.08587e-07 -1.86726e-07 -0.00100019)
(-3.74075e-08 -1.85861e-07 -0.00100021)
(-3.27783e-07 -4.14391e-08 -0.000999788)
(-2.95723e-07 -4.09935e-08 -0.000999889)
(-2.34767e-07 -4.06205e-08 -0.000999975)
(-1.50882e-07 -4.03552e-08 -0.00100004)
(-5.19443e-08 -4.01462e-08 -0.00100007)
(-3.2745e-07 -1.20188e-07 -0.000999814)
(-2.95411e-07 -1.18958e-07 -0.000999915)
(-2.34535e-07 -1.17926e-07 -0.001)
(-1.50744e-07 -1.17167e-07 -0.00100006)
(-5.18976e-08 -1.16559e-07 -0.0010001)
(-3.25842e-07 -1.86736e-07 -0.000999864)
(-2.94e-07 -1.84846e-07 -0.000999964)
(-2.33417e-07 -1.83267e-07 -0.00100005)
(-1.50023e-07 -1.82107e-07 -0.00100011)
(-5.16515e-08 -1.81187e-07 -0.00100014)
(-3.2369e-07 -2.34914e-07 -0.000999932)
(-2.91972e-07 -2.32484e-07 -0.00100003)
(-2.31841e-07 -2.30481e-07 -0.00100012)
(-1.49049e-07 -2.29028e-07 -0.00100018)
(-5.13337e-08 -2.27874e-07 -0.00100021)
(-3.21195e-07 -2.59421e-07 -0.00100001)
(-2.89568e-07 -2.56927e-07 -0.00100011)
(-2.29989e-07 -2.54772e-07 -0.00100019)
(-1.47884e-07 -2.53184e-07 -0.00100025)
(-5.09404e-08 -2.51896e-07 -0.00100029)
(-4.47453e-07 -5.64688e-08 -0.000999711)
(-4.03795e-07 -5.57972e-08 -0.00099985)
(-3.20634e-07 -5.5234e-08 -0.000999967)
(-2.06116e-07 -5.48239e-08 -0.00100005)
(-7.09695e-08 -5.44989e-08 -0.0010001)
(-4.46868e-07 -1.63743e-07 -0.000999748)
(-4.03246e-07 -1.61866e-07 -0.000999885)
(-3.20211e-07 -1.60291e-07 -0.001)
(-2.05837e-07 -1.59119e-07 -0.00100009)
(-7.08657e-08 -1.58215e-07 -0.00100013)
(-4.44443e-07 -2.5422e-07 -0.000999815)
(-4.01071e-07 -2.51366e-07 -0.000999952)
(-3.18484e-07 -2.48963e-07 -0.00100007)
(-2.04733e-07 -2.47196e-07 -0.00100015)
(-7.04979e-08 -2.4584e-07 -0.0010002)
(-4.41117e-07 -3.19502e-07 -0.000999907)
(-3.9803e-07 -3.15905e-07 -0.00100004)
(-3.16103e-07 -3.1288e-07 -0.00100016)
(-2.03243e-07 -3.10657e-07 -0.00100024)
(-6.99987e-08 -3.08928e-07 -0.00100029)
(-4.37296e-07 -3.52713e-07 -0.00100001)
(-3.94451e-07 -3.48851e-07 -0.00100015)
(-3.13274e-07 -3.45545e-07 -0.00100026)
(-2.01422e-07 -3.43078e-07 -0.00100035)
(-6.9375e-08 -3.41181e-07 -0.00100039)
(-6.11075e-07 -7.69765e-08 -0.000999607)
(-5.51596e-07 -7.59782e-08 -0.000999796)
(-4.38104e-07 -7.51233e-08 -0.000999957)
(-2.81675e-07 -7.44806e-08 -0.00100007)
(-9.69877e-08 -7.3997e-08 -0.00100014)
(-6.10062e-07 -2.23178e-07 -0.000999657)
(-5.50671e-07 -2.20344e-07 -0.000999845)
(-4.37351e-07 -2.1793e-07 -0.00100001)
(-2.81168e-07 -2.16125e-07 -0.00100012)
(-9.68056e-08 -2.14804e-07 -0.00100019)
(-6.06404e-07 -3.46242e-07 -0.000999749)
(-5.47336e-07 -3.4193e-07 -0.000999936)
(-4.34694e-07 -3.38265e-07 -0.00100009)
(-2.79493e-07 -3.35578e-07 -0.00100021)
(-9.62579e-08 -3.33586e-07 -0.00100027)
(-6.01285e-07 -4.34633e-07 -0.000999874)
(-5.4275e-07 -4.29222e-07 -0.00100006)
(-4.31084e-07 -4.24635e-07 -0.00100022)
(-2.77215e-07 -4.21291e-07 -0.00100033)
(-9.54854e-08 -4.18784e-07 -0.00100039)
(-5.95289e-07 -4.79639e-07 -0.00100002)
(-5.37341e-07 -4.7361e-07 -0.0010002)
(-4.26815e-07 -4.68502e-07 -0.00100036)
(-2.74519e-07 -4.64738e-07 -0.00100047)
(-9.45818e-08 -4.61962e-07 -0.00100053)
(-8.34822e-07 -1.05014e-07 -0.000999465)
(-7.53738e-07 -1.0352e-07 -0.000999724)
(-5.98871e-07 -1.02215e-07 -0.000999944)
(-3.85158e-07 -1.01229e-07 -0.0010001)
(-1.32645e-07 -1.00529e-07 -0.00100019)
(-8.33115e-07 -3.04391e-07 -0.000999533)
(-7.52192e-07 -3.00128e-07 -0.000999791)
(-5.97587e-07 -2.96451e-07 -0.00100001)
(-3.84313e-07 -2.93706e-07 -0.00100017)
(-1.32356e-07 -2.91759e-07 -0.00100026)
(-8.27599e-07 -4.71912e-07 -0.000999659)
(-7.47133e-07 -4.65386e-07 -0.000999914)
(-5.93543e-07 -4.59822e-07 -0.00100013)
(-3.81753e-07 -4.55724e-07 -0.00100029)
(-1.31508e-07 -4.52751e-07 -0.00100038)
(-8.19883e-07 -5.91674e-07 -0.000999831)
(-7.40179e-07 -5.83452e-07 -0.00100008)
(-5.8804e-07 -5.76496e-07 -0.0010003)
(-3.78239e-07 -5.71417e-07 -0.00100045)
(-1.30307e-07 -5.67693e-07 -0.00100054)
(-8.10771e-07 -6.5197e-07 -0.00100003)
(-7.31959e-07 -6.42846e-07 -0.00100028)
(-5.8158e-07 -6.35094e-07 -0.00100049)
(-3.74154e-07 -6.29425e-07 -0.00100064)
(-1.28926e-07 -6.25276e-07 -0.00100073)
(-1.14077e-06 -1.43441e-07 -0.000999271)
(-1.03034e-06 -1.41198e-07 -0.000999625)
(-8.19147e-07 -1.39209e-07 -0.000999927)
(-5.27192e-07 -1.37711e-07 -0.00100015)
(-1.81655e-07 -1.36664e-07 -0.00100027)
(-1.13803e-06 -4.15609e-07 -0.000999364)
(-1.0278e-06 -4.0923e-07 -0.000999716)
(-8.17017e-07 -4.03653e-07 -0.00100002)
(-5.25787e-07 -3.99446e-07 -0.00100024)
(-1.81169e-07 -3.96463e-07 -0.00100036)
(-1.12972e-06 -6.43787e-07 -0.000999537)
(-1.02019e-06 -6.34001e-07 -0.000999886)
(-8.10843e-07 -6.25561e-07 -0.00100018)
(-5.21758e-07 -6.19211e-07 -0.0010004)
(-1.79784e-07 -6.1465e-07 -0.00100052)
(-1.11816e-06 -8.06036e-07 -0.000999772)
(-1.00968e-06 -7.93682e-07 -0.00100012)
(-8.02384e-07 -7.83101e-07 -0.00100041)
(-5.16249e-07 -7.75206e-07 -0.00100062)
(-1.77882e-07 -7.69553e-07 -0.00100074)
(-1.10451e-06 -8.86392e-07 -0.00100004)
(-9.97261e-07 -8.7263e-07 -0.00100038)
(-7.92464e-07 -8.60864e-07 -0.00100067)
(-5.09865e-07 -8.52212e-07 -0.00100088)
(-1.75705e-07 -8.46004e-07 -0.00100099)
(-1.55907e-06 -1.96305e-07 -0.000999006)
(-1.40913e-06 -1.92906e-07 -0.00099949)
(-1.12148e-06 -1.89855e-07 -0.000999904)
(-7.22627e-07 -1.87493e-07 -0.00100021)
(-2.49193e-07 -1.85829e-07 -0.00100037)
(-1.55477e-06 -5.68477e-07 -0.000999134)
(-1.40496e-06 -5.58892e-07 -0.000999615)
(-1.11789e-06 -5.50336e-07 -0.00100003)
(-7.20146e-07 -5.43679e-07 -0.00100033)
(-2.48296e-07 -5.3896e-07 -0.00100049)
(-1.54236e-06 -8.79508e-07 -0.000999372)
(-1.39343e-06 -8.64861e-07 -0.000999848)
(-1.10826e-06 -8.51912e-07 -0.00100026)
(-7.13651e-07 -8.41931e-07 -0.00100055)
(-2.46007e-07 -8.34871e-07 -0.00100071)
(-1.52509e-06 -1.0991e-06 -0.000999694)
(-1.37751e-06 -1.08058e-06 -0.00100016)
(-1.09518e-06 -1.06445e-06 -0.00100056)
(-7.05004e-07 -1.05223e-06 -0.00100086)
(-2.43004e-07 -1.0437e-06 -0.00100101)
(-1.5045e-06 -1.20577e-06 -0.00100007)
(-1.35878e-06 -1.18487e-06 -0.00100053)
(-1.08004e-06 -1.167e-06 -0.00100092)
(-6.95185e-07 -1.15376e-06 -0.00100121)
(-2.39651e-07 -1.14455e-06 -0.00100136)
(-2.13075e-06 -2.69173e-07 -0.000998642)
(-1.92816e-06 -2.64035e-07 -0.000999303)
(-1.53726e-06 -2.59239e-07 -0.000999872)
(-9.92409e-07 -2.55339e-07 -0.00100029)
(-3.42607e-07 -2.52618e-07 -0.00100052)
(-2.12406e-06 -7.79317e-07 -0.000998818)
(-1.92129e-06 -7.64855e-07 -0.000999476)
(-1.53102e-06 -7.51443e-07 -0.00100004)
(-9.87879e-07 -7.40597e-07 -0.00100046)
(-3.40936e-07 -7.32993e-07 -0.00100068)
(-2.10573e-06 -1.20391e-06 -0.000999147)
(-1.90357e-06 -1.18189e-06 -0.000999797)
(-1.51569e-06 -1.16184e-06 -0.00100035)
(-9.77244e-07 -1.14596e-06 -0.00100076)
(-3.37128e-07 -1.13484e-06 -0.00100099)
(-2.08021e-06 -1.50081e-06 -0.000999591)
(-1.87941e-06 -1.47314e-06 -0.00100023)
(-1.49538e-06 -1.44864e-06 -0.00100078)
(-9.63519e-07 -1.42972e-06 -0.00100118)
(-3.32281e-07 -1.41658e-06 -0.00100139)
(-2.0498e-06 -1.64075e-06 -0.0010001)
(-1.8514e-06 -1.60942e-06 -0.00100073)
(-1.47245e-06 -1.58261e-06 -0.00100127)
(-9.48352e-07 -1.56243e-06 -0.00100166)
(-3.27015e-07 -1.54865e-06 -0.00100187)
(-2.91127e-06 -3.69807e-07 -0.000998139)
(-2.63975e-06 -3.61951e-07 -0.000999044)
(-2.11063e-06 -3.54159e-07 -0.000999827)
(-1.36692e-06 -3.47543e-07 -0.00100041)
(-4.72766e-07 -3.42962e-07 -0.00100073)
(-2.90085e-06 -1.07138e-06 -0.000998383)
(-2.62819e-06 -1.04944e-06 -0.000999282)
(-2.09948e-06 -1.02801e-06 -0.00100006)
(-1.35855e-06 -1.00983e-06 -0.00100064)
(-4.69625e-07 -9.97029e-07 -0.00100095)
(-2.87408e-06 -1.65216e-06 -0.000998842)
(-2.60077e-06 -1.61913e-06 -0.000999729)
(-2.07462e-06 -1.58787e-06 -0.00100049)
(-1.34045e-06 -1.56189e-06 -0.00100106)
(-4.62923e-07 -1.54357e-06 -0.00100136)
(-2.83692e-06 -2.0533e-06 -0.000999454)
(-2.56416e-06 -2.01242e-06 -0.00100033)
(-2.04265e-06 -1.97538e-06 -0.00100107)
(-1.31795e-06 -1.94547e-06 -0.00100162)
(-4.54779e-07 -1.92463e-06 -0.00100192)
(-2.79339e-06 -2.23459e-06 -0.00100016)
(-2.52286e-06 -2.18805e-06 -0.00100101)
(-2.00792e-06 -2.14829e-06 -0.00100174)
(-1.29412e-06 -2.11736e-06 -0.00100228)
(-4.46325e-07 -2.09658e-06 -0.00100257)
(-3.97439e-06 -5.08732e-07 -0.00099744)
(-3.61591e-06 -4.96291e-07 -0.00099868)
(-2.90479e-06 -4.83198e-07 -0.000999757)
(-1.89189e-06 -4.71577e-07 -0.00100058)
(-6.56264e-07 -4.63422e-07 -0.00100104)
(-3.95806e-06 -1.47877e-06 -0.000997775)
(-3.59581e-06 -1.44503e-06 -0.000999003)
(-2.88438e-06 -1.41008e-06 -0.00100007)
(-1.8759e-06 -1.37817e-06 -0.00100088)
(-6.50089e-07 -1.35509e-06 -0.00100133)
(-3.92015e-06 -2.27556e-06 -0.000998428)
(-3.5531e-06 -2.22589e-06 -0.000999638)
(-2.84272e-06 -2.17633e-06 -0.00100068)
(-1.8431e-06 -2.13185e-06 -0.00100146)
(-6.37364e-07 -2.09992e-06 -0.00100189)
(-3.86692e-06 -2.8175e-06 -0.000999274)
(-3.49695e-06 -2.75764e-06 -0.00100046)
(-2.79089e-06 -2.70178e-06 -0.00100147)
(-1.80473e-06 -2.65318e-06 -0.00100223)
(-6.23142e-07 -2.61893e-06 -0.00100264)
(-3.80737e-06 -3.04919e-06 -0.00100026)
(-3.43739e-06 -2.98e-06 -0.00100142)
(-2.73861e-06 -2.92231e-06 -0.00100242)
(-1.76647e-06 -2.87428e-06 -0.00100315)
(-6.09129e-07 -2.84291e-06 -0.00100354)
(-5.41587e-06 -6.98311e-07 -0.000996457)
(-4.95698e-06 -6.77437e-07 -0.000998167)
(-4.01234e-06 -6.5416e-07 -0.000999648)
(-2.63926e-06 -6.32827e-07 -0.00100083)
(-9.19362e-07 -6.17792e-07 -0.0010015)
(-5.38975e-06 -2.05367e-06 -0.000996901)
(-4.91993e-06 -2.00001e-06 -0.000998586)
(-3.97331e-06 -1.94144e-06 -0.00100004)
(-2.60794e-06 -1.88209e-06 -0.0010012)
(-9.07062e-07 -1.83725e-06 -0.00100184)
(-5.33975e-06 -3.15152e-06 -0.000997869)
(-4.85252e-06 -3.07451e-06 -0.000999522)
(-3.90072e-06 -2.99394e-06 -0.00100094)
(-2.54366e-06 -2.91327e-06 -0.00100204)
(-8.80548e-07 -2.85381e-06 -0.00100264)
(-5.2641e-06 -3.88398e-06 -0.000999028)
(-4.76284e-06 -3.79602e-06 -0.00100063)
(-3.81284e-06 -3.71283e-06 -0.001002)
(-2.47537e-06 -3.63054e-06 -0.00100305)
(-8.549e-07 -3.57085e-06 -0.00100361)
(-5.19208e-06 -4.17707e-06 -0.00100044)
(-4.68141e-06 -4.07192e-06 -0.00100202)
(-3.73573e-06 -3.99354e-06 -0.00100338)
(-2.41059e-06 -3.91643e-06 -0.00100438)
(-8.29564e-07 -3.86971e-06 -0.0010049)
(-7.35581e-06 -9.44507e-07 -0.000995044)
(-6.80646e-06 -9.0532e-07 -0.000997462)
(-5.57202e-06 -8.59407e-07 -0.00099947)
(-3.72996e-06 -8.19409e-07 -0.00100124)
(-1.30547e-06 -7.92622e-07 -0.00100224)