/*--------------------------------*- C++ -*----------------------------------*\
| =========                 |                                                 |
| \\      /  F ield         | OpenFOAM: The Open Source CFD Toolbox           |
|  \\    /   O peration     | Version:  5.x                                   |
|   \\  /    A nd           | Web:      www.OpenFOAM.org                      |
|    \\/     M anipulation  |                                                 |
\*---------------------------------------------------------------------------*/
FoamFile
{
    version     2.0;
    format      ascii;
    class       volScalarField;
    location    "0.002";
    object      p;
}
// * * * * * * * * * * * * * * * * * * * * * * * * * * * * * * * * * * * * * //

dimensions      [0 2 -2 0 0 0 0];

internalField   nonuniform List<scalar> 
180
(
-8.72313e-10
-2.07585e-09
-2.82583e-09
-3.35272e-09
-3.4625e-09
-3.35667e-09
-3.02666e-09
-2.44432e-09
-1.56432e-09
-3.40898e-10
1.26083e-09
3.25779e-09
5.64564e-09
8.39885e-09
1.14731e-08
1.48094e-08
1.83392e-08
2.19896e-08
2.56881e-08
2.93679e-08
3.29709e-08
3.64511e-08
3.9777e-08
4.29325e-08
4.59173e-08
4.8747e-08
5.14527e-08
5.40802e-08
5.66892e-08
5.93513e-08
6.21492e-08
6.51736e-08
6.85213e-08
7.22914e-08
7.65817e-08
8.14835e-08
8.7076e-08
9.34188e-08
1.00543e-07
1.08441e-07
1.17054e-07
1.26257e-07
1.35843e-07
1.45508e-07
1.54825e-07
1.63227e-07
1.6998e-07
1.7416e-07
1.74626e-07
1.69998e-07
1.58634e-07
1.38616e-07
1.07742e-07
6.353e-08
3.22907e-09
-7.6159e-08
-1.77869e-07
-3.05393e-07
-4.62579e-07
-6.53936e-07
-8.85222e-07
-1.16513e-06
-1.50402e-06
-1.91426e-06
-2.41069e-06
-3.01116e-06
-3.73716e-06
-4.61406e-06
-5.6717e-06
-6.94523e-06
-8.47583e-06
-1.03115e-05
-1.2508e-05
-1.51328e-05
-1.82795e-05
-2.20636e-05
-2.64472e-05
-3.0789e-05
-3.48024e-05
-5.09554e-05
-0.000177251
0.00102639
0.00171175
0.00215846
0.00380827
0.00520868
0.00655449
0.00777074
0.0108574
0.0122666
0.013019
0.0158368
0.0168756
0.0173812
0.0186886
0.0197709
0.0210106
0.021675
0.0228617
0.0269575
0.0282697
0.0285017
0.0286029
0.0286454
0.0286658
0.0286648
0.0286645
0.0286654
0.0286664
0.0286671
0.0286678
0.0286683
0.0286688
0.0286692
0.0286696
0.0286699
0.0286701
0.0286704
0.0286706
0.0286708
0.028671
0.0286712
0.0286714
0.0286715
0.0286716
0.0286718
0.0286719
0.028672
0.0286721
0.0286721
0.0286722
0.0286723
0.0286723
0.0286724
0.0286725
0.0286726
0.0286726
0.0286727
0.0286728
0.0286729
0.028673
0.028673
0.0286731
0.0286732
0.0286733
0.0286733
0.0286734
0.0286734
0.0286735
0.0286735
0.0286736
0.0286736
0.0286737
0.0286737
0.0286737
0.0286738
0.0286738
0.0286738
0.0286738
0.0286739
0.0286739
0.0286739
0.0286739
0.0286739
0.0286739
0.0286739
0.028674
0.028674
0.028674
0.028674
0.028674
0.028674
0.028674
0.028674
0.028674
0.028674
0.028674
0.028674
0.028674
0.028674
)
;

boundaryField
{
    inlet
    {
        type            zeroGradient;
    }
    outlet
    {
        type            fixedValue;
        value           uniform 0;
    }
    repeat_boundary
    {
        type            zeroGradient;
    }
    procBoundary3to1
    {
        type            processor;
        value           nonuniform List<scalar> 
180
(
-9.1389e-10
-2.30982e-09
-3.56215e-09
-4.75886e-09
-5.554e-09
-6.25634e-09
-6.88605e-09
-7.45256e-09
-7.94118e-09
-8.32697e-09
-8.58429e-09
-8.69402e-09
-8.64811e-09
-8.45164e-09
-8.12269e-09
-7.69047e-09
-7.19234e-09
-6.67007e-09
-6.16592e-09
-5.71858e-09
-5.35956e-09
-5.1097e-09
-4.97628e-09
-4.95055e-09
-5.0059e-09
-5.09634e-09
-5.15499e-09
-5.09297e-09
-4.79825e-09
-4.13461e-09
-2.94046e-09
-1.02765e-09
1.81996e-09
5.84806e-09
1.1334e-08
1.85894e-08
2.79633e-08
3.98459e-08
5.46733e-08
7.29336e-08
9.51739e-08
1.2201e-07
1.54139e-07
1.92353e-07
2.37554e-07
2.90781e-07
3.53229e-07
4.26285e-07
5.11562e-07
6.10942e-07
7.26632e-07
8.61219e-07
1.01775e-06
1.19979e-06
1.41157e-06
1.65805e-06
1.94506e-06
2.27948e-06
2.66941e-06
3.12439e-06
3.65567e-06
4.27651e-06
5.00262e-06
5.85262e-06
6.8487e-06
8.01764e-06
9.39234e-06
1.10142e-05
1.29345e-05
1.52077e-05
1.78983e-05
2.1083e-05
2.4853e-05
2.93135e-05
3.45773e-05
4.07733e-05
4.81942e-05
5.7676e-05
6.98463e-05
7.63788e-05
1.26693e-05
0.000804682
0.0013656
0.0013493
0.00508515
0.00651335
0.00783985
0.00878065
0.0092984
0.0107791
0.0135393
0.0161371
0.0181154
0.0187261
0.0201198
0.0223903
0.0229344
0.0238856
0.0246703
0.0259337
0.0277055
0.0281917
0.0284172
0.0285613
0.0286105
0.0286235
0.0286267
0.028631
0.0286359
0.0286403
0.0286441
0.0286476
0.0286506
0.0286534
0.0286558
0.028658
0.0286599
0.0286616
0.0286631
0.0286645
0.0286657
0.0286668
0.0286677
0.0286685
0.0286693
0.0286699
0.0286705
0.028671
0.0286715
0.0286719
0.0286723
0.0286726
0.0286728
0.0286731
0.0286733
0.0286734
0.0286736
0.0286737
0.0286738
0.0286738
0.0286739
0.0286739
0.028674
0.028674
0.028674
0.028674
0.028674
0.028674
0.028674
0.028674
0.028674
0.028674
0.028674
0.028674
0.028674
0.028674
0.028674
0.028674
0.028674
0.028674
0.028674
0.028674
0.028674
0.028674
0.028674
0.028674
0.028674
0.028674
0.028674
0.028674
0.028674
0.028674
0.028674
0.0286741
0.0286741
0.0286741
0.0286741
0.0286741
0.0286741
0.0286741
)
;
    }
    procBoundary3to2
    {
        type            processor;
        value           nonuniform List<scalar> 
180
(
-4.67385e-10
-9.48072e-10
-1.2859e-09
-1.57534e-09
-1.47228e-09
-1.28818e-09
-1.0467e-09
-7.61384e-10
-4.22536e-10
-1.14324e-11
4.89827e-10
1.09078e-09
1.78765e-09
2.56088e-09
3.37475e-09
4.17871e-09
4.90965e-09
5.49489e-09
5.85524e-09
5.90792e-09
5.56906e-09
4.75563e-09
3.38669e-09
1.38438e-09
-1.32545e-09
-4.81352e-09
-9.1479e-09
-1.43951e-08
-2.06216e-08
-2.78958e-08
-3.62897e-08
-4.58815e-08
-5.67573e-08
-6.90137e-08
-8.27599e-08
-9.812e-08
-1.15235e-07
-1.34262e-07
-1.5538e-07
-1.78785e-07
-2.04689e-07
-2.33322e-07
-2.64926e-07
-2.99748e-07
-3.3804e-07
-3.80049e-07
-4.26007e-07
-4.76129e-07
-5.30606e-07
-5.89598e-07
-6.53247e-07
-7.21687e-07
-7.95074e-07
-8.73633e-07
-9.57725e-07
-1.04793e-06
-1.14512e-06
-1.25056e-06
-1.36586e-06
-1.49286e-06
-1.6331e-06
-1.78634e-06
-1.95197e-06
-2.12887e-06
-2.31515e-06
-2.50781e-06
-2.70243e-06
-2.89318e-06
-3.0725e-06
-3.23074e-06
-3.35572e-06
-3.43204e-06
-3.44031e-06
-3.35929e-06
-3.17868e-06
-2.90233e-06
-2.40903e-06
-9.53328e-07
2.43241e-06
-6.93647e-07
-0.000107259
0.00110978
0.00170332
0.00192953
0.00415454
0.00500515
0.00739511
0.00868074
0.00948964
0.0104346
0.0108573
0.0119449
0.0125504
0.0127392
0.0164186
0.0217248
0.0249372
0.0261692
0.0265266
0.0270859
0.0274823
0.0278594
0.0284088
0.0286921
0.0287638
0.0287556
0.0287401
0.0287304
0.0287232
0.0287169
0.0287113
0.0287065
0.0287023
0.0286986
0.0286954
0.0286926
0.0286902
0.0286881
0.0286863
0.0286847
0.0286833
0.0286821
0.028681
0.0286801
0.0286792
0.0286785
0.0286779
0.0286773
0.0286768
0.0286764
0.028676
0.0286757
0.0286754
0.0286752
0.028675
0.0286748
0.0286746
0.0286745
0.0286744
0.0286743
0.0286742
0.0286742
0.0286741
0.0286741
0.028674
0.028674
0.028674
0.028674
0.028674
0.028674
0.028674
0.028674
0.028674
0.028674
0.028674
0.028674
0.028674
0.028674
0.028674
0.028674
0.028674
0.028674
0.028674
0.028674
0.028674
0.028674
0.028674
0.028674
0.028674
0.028674
0.0286741
0.0286741
0.0286741
0.0286741
0.0286741
0.0286741
0.0286741
0.0286741
0.0286741
0.0286741
)
;
    }
}


// ************************************************************************* //
