/*--------------------------------*- C++ -*----------------------------------*\
| =========                 |                                                 |
| \\      /  F ield         | OpenFOAM: The Open Source CFD Toolbox           |
|  \\    /   O peration     | Version:  5.x                                   |
|   \\  /    A nd           | Web:      www.OpenFOAM.org                      |
|    \\/     M anipulation  |                                                 |
\*---------------------------------------------------------------------------*/
FoamFile
{
    version     2.0;
    format      ascii;
    class       surfaceScalarField;
    location    "0.002";
    object      phi;
}
// * * * * * * * * * * * * * * * * * * * * * * * * * * * * * * * * * * * * * //

dimensions      [0 3 -1 0 0 0 0];

internalField   nonuniform List<scalar> 
179
(
-2.50004e-10
-2.50004e-10
-2.50004e-10
-2.50005e-10
-2.50005e-10
-2.50006e-10
-2.50006e-10
-2.50007e-10
-2.50008e-10
-2.50009e-10
-2.5001e-10
-2.50011e-10
-2.50013e-10
-2.50014e-10
-2.50016e-10
-2.50018e-10
-2.5002e-10
-2.50022e-10
-2.50024e-10
-2.50027e-10
-2.5003e-10
-2.50033e-10
-2.50037e-10
-2.50041e-10
-2.50046e-10
-2.50051e-10
-2.50057e-10
-2.50063e-10
-2.50071e-10
-2.50079e-10
-2.50088e-10
-2.50099e-10
-2.5011e-10
-2.50124e-10
-2.50138e-10
-2.50155e-10
-2.50174e-10
-2.50194e-10
-2.50218e-10
-2.50244e-10
-2.50273e-10
-2.50305e-10
-2.50341e-10
-2.50381e-10
-2.50426e-10
-2.50476e-10
-2.50531e-10
-2.50593e-10
-2.50661e-10
-2.50737e-10
-2.50821e-10
-2.50914e-10
-2.51017e-10
-2.51131e-10
-2.51258e-10
-2.51398e-10
-2.51552e-10
-2.51722e-10
-2.51909e-10
-2.52113e-10
-2.52338e-10
-2.52584e-10
-2.52854e-10
-2.53149e-10
-2.53471e-10
-2.5382e-10
-2.54198e-10
-2.54606e-10
-2.55045e-10
-2.55515e-10
-2.56017e-10
-2.56549e-10
-2.5711e-10
-2.57697e-10
-2.58303e-10
-2.58923e-10
-2.59548e-10
-2.60165e-10
-2.60734e-10
-2.61013e-10
-2.60767e-10
-2.60895e-10
-2.68436e-10
-2.69674e-10
-2.65806e-10
-2.63969e-10
-2.59322e-10
-2.55032e-10
-2.59233e-10
-2.65605e-10
-2.71555e-10
-2.72876e-10
-2.9141e-10
-2.90577e-10
-2.90546e-10
-2.832e-10
-2.7149e-10
-2.52563e-10
-2.41042e-10
-2.41667e-10
-2.48187e-10
-2.54333e-10
-2.59503e-10
-2.61392e-10
-2.61364e-10
-2.6044e-10
-2.59623e-10
-2.58909e-10
-2.5824e-10
-2.57603e-10
-2.57e-10
-2.56432e-10
-2.55899e-10
-2.55402e-10
-2.54938e-10
-2.54508e-10
-2.5411e-10
-2.53742e-10
-2.53404e-10
-2.53092e-10
-2.52807e-10
-2.52545e-10
-2.52306e-10
-2.52087e-10
-2.51888e-10
-2.51707e-10
-2.51541e-10
-2.51391e-10
-2.51254e-10
-2.5113e-10
-2.51018e-10
-2.50917e-10
-2.50826e-10
-2.50744e-10
-2.5067e-10
-2.50604e-10
-2.50544e-10
-2.50489e-10
-2.5044e-10
-2.50396e-10
-2.50356e-10
-2.50319e-10
-2.50286e-10
-2.50256e-10
-2.50229e-10
-2.50205e-10
-2.50183e-10
-2.50163e-10
-2.50145e-10
-2.50129e-10
-2.50115e-10
-2.50102e-10
-2.5009e-10
-2.5008e-10
-2.50071e-10
-2.50062e-10
-2.50055e-10
-2.50049e-10
-2.50043e-10
-2.50038e-10
-2.50034e-10
-2.5003e-10
-2.50027e-10
-2.50024e-10
-2.50021e-10
-2.50019e-10
-2.50016e-10
-2.50015e-10
-2.50013e-10
-2.50011e-10
-2.5001e-10
-2.50009e-10
-2.50007e-10
-2.50006e-10
-2.50005e-10
-2.50004e-10
-2.50003e-10
-2.50002e-10
-2.50001e-10
)
;

boundaryField
{
    inlet
    {
        type            calculated;
        value           uniform -2.5e-10;
    }
    outlet
    {
        type            calculated;
        value           uniform 2.50004e-10;
    }
    repeat_boundary
    {
        type            calculated;
        value           uniform 0;
    }
    procBoundary3to1
    {
        type            processor;
        value           nonuniform List<scalar> 
180
(
9.05028e-17
1.74478e-16
2.76966e-16
3.8355e-16
4.94037e-16
6.10046e-16
7.33291e-16
8.65478e-16
1.00831e-15
1.16354e-15
1.33295e-15
1.51844e-15
1.72205e-15
1.94593e-15
2.19243e-15
2.46414e-15
2.76386e-15
3.0947e-15
3.4601e-15
3.86386e-15
4.31023e-15
4.8039e-15
5.35011e-15
5.95468e-15
6.62407e-15
7.36548e-15
8.1869e-15
9.09719e-15
1.01062e-14
1.12248e-14
1.24651e-14
1.38405e-14
1.53657e-14
1.70572e-14
1.8933e-14
2.10131e-14
2.33195e-14
2.58767e-14
2.87114e-14
3.18533e-14
3.5335e-14
3.91925e-14
4.34653e-14
4.81969e-14
5.34352e-14
5.92326e-14
6.56468e-14
7.27407e-14
8.05834e-14
8.92504e-14
9.8824e-14
1.09394e-13
1.21058e-13
1.33923e-13
1.48103e-13
1.63723e-13
1.80917e-13
1.99829e-13
2.2061e-13
2.43415e-13
2.68402e-13
2.95744e-13
3.25621e-13
3.58212e-13
3.93694e-13
4.32232e-13
4.73976e-13
5.19054e-13
5.67564e-13
6.19558e-13
6.75025e-13
7.33857e-13
7.95821e-13
8.60509e-13
9.27237e-13
9.94756e-13
1.05927e-12
1.10876e-12
1.06919e-12
7.10223e-13
-1.42087e-13
1.48489e-13
6.18269e-12
1.37145e-12
-2.25287e-12
-1.44328e-12
-2.47406e-12
-2.10799e-12
2.53403e-12
2.08007e-12
-5.46216e-13
1.27214e-13
-8.4878e-12
-4.88282e-12
-2.23977e-12
-5.56883e-12
-5.75186e-12
-5.48757e-12
-3.62107e-12
7.04192e-13
1.82023e-12
2.14606e-12
1.89616e-12
1.20981e-12
1.09281e-12
1.01602e-12
9.80623e-13
8.96265e-13
7.8899e-13
6.86027e-13
5.95528e-13
5.17251e-13
4.49549e-13
3.90977e-13
3.40304e-13
2.9646e-13
2.58514e-13
2.25656e-13
1.97189e-13
1.72506e-13
1.51085e-13
1.32473e-13
1.16279e-13
1.02167e-13
8.98448e-14
7.90611e-14
6.95995e-14
6.12736e-14
5.39109e-14
4.76729e-14
4.25081e-14
3.812e-14
3.42873e-14
3.08545e-14
2.77216e-14
2.48312e-14
2.2155e-14
1.96851e-14
1.74235e-14
1.53734e-14
1.35352e-14
1.19043e-14
1.04719e-14
9.22461e-15
8.14621e-15
7.21881e-15
6.42412e-15
5.74438e-15
5.16298e-15
4.66491e-15
4.23684e-15
3.86721e-15
3.54603e-15
3.2648e-15
3.01648e-15
2.79534e-15
2.59672e-15
2.41687e-15
2.25281e-15
2.10215e-15
1.96301e-15
1.83391e-15
1.71369e-15
1.60144e-15
1.4964e-15
1.39773e-15
1.30516e-15
1.21852e-15
1.13773e-15
1.06273e-15
9.93476e-16
9.29951e-16
8.7214e-16
8.20026e-16
7.73512e-16
7.32555e-16
6.97179e-16
6.67553e-16
6.44823e-16
6.54222e-16
)
;
    }
    procBoundary3to2
    {
        type            processor;
        value           nonuniform List<scalar> 
180
(
-4.00589e-17
-7.08785e-17
-1.11502e-16
-1.53381e-16
-1.95524e-16
-2.37993e-16
-2.81102e-16
-3.25182e-16
-3.70582e-16
-4.1768e-16
-4.66892e-16
-5.18674e-16
-5.73527e-16
-6.31995e-16
-6.94664e-16
-7.62157e-16
-8.35128e-16
-9.14257e-16
-1.00024e-15
-1.09379e-15
-1.19559e-15
-1.30635e-15
-1.42692e-15
-1.55825e-15
-1.70111e-15
-1.85627e-15
-2.02452e-15
-2.20696e-15
-2.40454e-15
-2.6182e-15
-2.84891e-15
-3.09771e-15
-3.36571e-15
-3.65442e-15
-3.9656e-15
-4.30103e-15
-4.66274e-15
-5.05312e-15
-5.475e-15
-5.93177e-15
-6.42746e-15
-6.96689e-15
-7.55595e-15
-8.20127e-15
-8.91047e-15
-9.69225e-15
-1.05564e-14
-1.15135e-14
-1.2575e-14
-1.37529e-14
-1.50596e-14
-1.6508e-14
-1.81131e-14
-1.98952e-14
-2.1887e-14
-2.41463e-14
-2.67784e-14
-2.99683e-14
-3.40273e-14
-3.93787e-14
-4.40218e-14
-4.9453e-14
-5.58482e-14
-6.34303e-14
-7.24806e-14
-8.32913e-14
-9.60051e-14
-1.10932e-13
-1.28452e-13
-1.49013e-13
-1.73137e-13
-2.01485e-13
-2.34849e-13
-2.74168e-13
-3.20496e-13
-3.74525e-13
-4.34387e-13
-4.91684e-13
-5.00283e-13
-4.31681e-13
-1.03411e-13
-2.0803e-14
1.35821e-12
-1.3336e-13
-1.61534e-12
-3.93771e-13
-2.17317e-12
-2.18257e-12
1.6677e-12
4.29102e-12
6.49639e-12
1.19362e-12
2.70219e-11
4.04994e-12
2.20939e-12
-1.77717e-12
-5.9586e-12
-1.34402e-11
-7.89963e-12
-7.90063e-14
4.69865e-12
4.00042e-12
3.27367e-12
6.78973e-13
-1.12084e-12
-1.94043e-12
-1.79802e-12
-1.6112e-12
-1.45813e-12
-1.32276e-12
-1.19877e-12
-1.08555e-12
-9.82569e-13
-8.88989e-13
-8.03996e-13
-7.26846e-13
-6.56853e-13
-5.93386e-13
-5.35867e-13
-4.83765e-13
-4.3659e-13
-3.93897e-13
-3.55277e-13
-3.20357e-13
-2.88796e-13
-2.60282e-13
-2.3453e-13
-2.11287e-13
-1.90329e-13
-1.71447e-13
-1.54437e-13
-1.39112e-13
-1.25304e-13
-1.12858e-13
-1.01639e-13
-9.15216e-14
-8.23975e-14
-7.41685e-14
-6.67472e-14
-6.00552e-14
-5.40221e-14
-4.85846e-14
-4.36854e-14
-3.92727e-14
-3.53002e-14
-3.17262e-14
-2.85122e-14
-2.56237e-14
-2.30289e-14
-2.06995e-14
-1.86096e-14
-1.67342e-14
-1.50498e-14
-1.35362e-14
-1.21755e-14
-1.09522e-14
-9.85247e-15
-8.86407e-15
-7.97613e-15
-7.1789e-15
-6.46369e-15
-5.82264e-15
-5.24871e-15
-4.73554e-15
-4.27741e-15
-3.86915e-15
-3.50611e-15
-3.1841e-15
-2.89937e-15
-2.64853e-15
-2.42859e-15
-2.23686e-15
-2.07099e-15
-1.92889e-15
-1.8088e-15
-1.70916e-15
-1.6286e-15
-1.56568e-15
-1.5175e-15
-1.52336e-15
)
;
    }
}


// ************************************************************************* //
