FoamFile
{version 2.0; format ascii;class Cloud<passiveParticle>; location 0;object  positions;}
42
(
( 386.305 -486.306 99.8639 ) 0 
( 113.941 -410.039 99.8523 ) 0 
( 94.5553 -210.171 99.926 ) 0 
( 288.219 -312.063 99.8291 ) 0 
( 104.076 -0.477088 99.9536 ) 0 
( 400.163 -324.207 264.917 ) 0 
( 461.383 -145.387 144.472 ) 0 
( 269.276 -113.065 99.8746 ) 0 
( 40.6413 -329.88 267.684 ) 0 
( 201.457 -40.6557 273.397 ) 0 
( 219.057 -239.747 272.847 ) 0 
( 0.355022 -100.819 238.344 ) 0 
( 187.376 -404.897 380.852 ) 0 
( 90.1113 -224.674 430.292 ) 0 
( 63.1533 -26.5621 427.608 ) 0 
( 377.899 -130.244 325.354 ) 0 
( 329.983 -281.399 447.21 ) 0 
( 452.646 -136.757 510.686 ) 0 
( 243.125 -102.359 470.216 ) 0 
( 327.613 -480.408 501.765 ) 0 
( 432.178 -320.96 616.098 ) 0 
( 154.33 -393.942 577.582 ) 0 
( 102.144 -94.3653 611.703 ) 0 
( 38.2628 -269.894 682.913 ) 0 
( 255.393 -228.119 625.098 ) 0 
( 364.71 -81.2972 708.967 ) 0 
( 289.794 -411.218 723.558 ) 0 
( 165.764 -159.061 789.858 ) 0 
( 480.715 -467.409 743.214 ) 0 
( 343.659 -245.33 821.332 ) 0 
( 100.881 -428.957 786.65 ) 0 
( 255.51 -395.349 919.883 ) 0 
( 9.60313 -246.062 879.358 ) 0 
( 53.019 -19.9565 878.837 ) 0 
( 233.022 -180.158 976.935 ) 0 
( 390.549 -39.3934 987.902 ) 0 
( 422.897 -235.947 1005.44 ) 0 
( 490.333 -410.322 934.553 ) 0 
( 90.51 -355.741 1025.67 ) 0 
( 49.005 -136.034 1041.62 ) 0 
( 323.935 -376.988 1106.97 ) 0 
( 175.721 -235.067 1160.5 ) 0 
)
