/*--------------------------------*- C++ -*----------------------------------*\
| =========                 |                                                 |
| \\      /  F ield         | OpenFOAM: The Open Source CFD Toolbox           |
|  \\    /   O peration     | Version:  5.x                                   |
|   \\  /    A nd           | Web:      www.OpenFOAM.org                      |
|    \\/     M anipulation  |                                                 |
\*---------------------------------------------------------------------------*/
FoamFile
{
    version     2.0;
    format      ascii;
    class       surfaceScalarField;
    location    "10000";
    object      phi;
}
// * * * * * * * * * * * * * * * * * * * * * * * * * * * * * * * * * * * * * //

dimensions      [0 3 -1 0 0 0 0];

internalField   nonuniform List<scalar> 
179
(
-249.97
-249.969
-249.968
-249.967
-249.966
-249.964
-249.961
-249.959
-249.955
-249.952
-249.948
-249.943
-249.938
-249.932
-249.925
-249.918
-249.91
-249.9
-249.89
-249.879
-249.866
-249.852
-249.836
-249.819
-249.8
-249.778
-249.754
-249.727
-249.697
-249.664
-249.627
-249.586
-249.54
-249.489
-249.432
-249.369
-249.299
-249.22
-249.132
-249.035
-248.926
-248.804
-248.668
-248.517
-248.347
-248.158
-247.947
-247.711
-247.447
-247.152
-246.821
-246.451
-246.037
-245.573
-245.053
-244.47
-243.815
-243.081
-242.256
-241.33
-240.289
-239.118
-237.801
-236.319
-234.65
-232.769
-230.649
-228.258
-225.561
-222.515
-219.078
-215.202
-210.842
-205.972
-200.6
-194.809
-188.802
-182.927
-177.749
-174.296
-173.774
-173.992
-172.277
-172.585
-173.635
-174.564
-179.342
-177.618
-167.797
-165.733
-161.368
-166.763
-168.57
-167.712
-165.832
-166.721
-164.275
-167.354
-165.136
-166.12
-172.32
-174.964
-180.055
-184.751
-188.674
-194.123
-200.028
-205.784
-211.114
-215.919
-220.185
-223.942
-227.237
-230.12
-232.642
-234.845
-236.77
-238.451
-239.919
-241.201
-242.321
-243.298
-244.151
-244.896
-245.546
-246.113
-246.608
-247.04
-247.417
-247.746
-248.033
-248.283
-248.502
-248.692
-248.858
-249.003
-249.129
-249.239
-249.334
-249.417
-249.49
-249.554
-249.61
-249.659
-249.702
-249.74
-249.772
-249.801
-249.826
-249.848
-249.868
-249.884
-249.899
-249.912
-249.923
-249.933
-249.941
-249.949
-249.955
-249.961
-249.966
-249.97
-249.974
-249.977
-249.98
-249.983
-249.985
-249.987
-249.989
-249.99
-249.992
-249.993
-249.994
-249.995
-249.996
-249.996
-249.997
-249.997
-249.998
)
;

boundaryField
{
    inlet
    {
        type            calculated;
        value           uniform -249.998;
    }
    outlet
    {
        type            calculated;
        value           uniform 249.971;
    }
    repeat_boundary
    {
        type            calculated;
        value           uniform 0;
    }
    procBoundary2to0
    {
        type            processor;
        value           nonuniform List<scalar> 
180
(
-0.000540432
-0.000654393
-0.00084717
-0.00109294
-0.00137543
-0.00168539
-0.00201891
-0.00237572
-0.00275775
-0.00316818
-0.00361096
-0.00409056
-0.00461192
-0.00518047
-0.00580214
-0.00648345
-0.00723158
-0.00805445
-0.00896079
-0.00996027
-0.0110636
-0.0122826
-0.0136304
-0.0151217
-0.0167727
-0.0186013
-0.0206279
-0.0228747
-0.0253665
-0.0281311
-0.0311991
-0.0346046
-0.0383857
-0.0425848
-0.0472493
-0.0524322
-0.0581929
-0.0645973
-0.0717195
-0.0796421
-0.0884574
-0.0982687
-0.109192
-0.121357
-0.134908
-0.150008
-0.166841
-0.185611
-0.206548
-0.229911
-0.255991
-0.285114
-0.317651
-0.354015
-0.394675
-0.440158
-0.491061
-0.548056
-0.611902
-0.683461
-0.763704
-0.853734
-0.954799
-1.06832
-1.1959
-1.33936
-1.50077
-1.68247
-1.88702
-2.11713
-2.3752
-2.66236
-2.97603
-3.30533
-3.62365
-3.88049
-3.99883
-3.88863
-3.43799
-2.37843
-0.228402
0.0283386
-2.46091
-0.000314617
3.02584
0.388667
5.33787
3.3896
-1.36767
-1.93753
-0.380417
4.46464
1.70174
4.39276
1.60397
2.90861
0.981692
1.8647
0.330022
0.331036
1.05134
0.762352
3.81845
2.21227
1.03169
1.72593
1.91147
1.83705
1.67863
1.49723
1.31442
1.14123
0.983911
0.844588
0.722858
0.616846
0.525234
0.446283
0.378354
0.319991
0.269919
0.227021
0.190325
0.158987
0.13227
0.109535
0.0902279
0.0738645
0.060026
0.0483503
0.0385241
0.0302766
0.02337
0.0176042
0.0127916
0.00878498
0.00542843
0.00260634
0.000115897
-0.00134442
-0.00217093
-0.00283981
-0.00330838
-0.00366436
-0.00392127
-0.00409665
-0.00420528
-0.00425831
-0.0042643
-0.00423005
-0.00416144
-0.00406405
-0.00394315
-0.0038036
-0.00364946
-0.0034849
-0.00331369
-0.00313907
-0.00296378
-0.00279009
-0.00261985
-0.00245451
-0.00229521
-0.0021428
-0.00199778
-0.00186063
-0.00173163
-0.0016109
-0.00149838
-0.00139399
-0.00129755
-0.00120884
-0.00112761
-0.00105359
-0.000986543
-0.000926394
-0.000873477
-0.000828801
-0.000794693
-0.000784545
)
;
    }
    procBoundary2to3
    {
        type            processor;
        value           nonuniform List<scalar> 
180
(
-5.46121e-05
-7.7197e-05
-0.00010895
-0.000146063
-0.000186932
-0.000231103
-0.00027865
-0.000329927
-0.000385483
-0.000445996
-0.000512262
-0.000585181
-0.000665765
-0.000755152
-0.000854607
-0.000965557
-0.00108963
-0.00122866
-0.00138475
-0.00156025
-0.00175785
-0.00198061
-0.00223198
-0.0025159
-0.00283687
-0.00319997
-0.00361104
-0.00407668
-0.00460444
-0.00520295
-0.005882
-0.00665279
-0.00752811
-0.00852249
-0.00965255
-0.0109372
-0.0123981
-0.0140598
-0.0159505
-0.0181023
-0.0205519
-0.0233411
-0.0265178
-0.0301367
-0.0342603
-0.03896
-0.0443178
-0.0504271
-0.0573951
-0.0653444
-0.0744161
-0.0847716
-0.0965957
-0.1101
-0.125528
-0.143157
-0.163308
-0.186347
-0.212696
-0.242837
-0.277327
-0.316807
-0.362011
-0.413786
-0.473105
-0.541086
-0.619016
-0.70837
-0.810809
-0.92813
-1.06209
-1.21392
-1.38314
-1.56534
-1.74868
-1.90957
-2.00891
-1.98615
-1.74033
-1.07459
-0.29336
0.18934
0.746176
0.30765
-1.97556
0.540948
-0.560073
-5.11347
-8.45398
-0.125935
-3.9844
0.92969
0.105218
-5.25058
-3.48422
-2.01958
-3.42754
1.21459
-2.54815
0.653027
5.14908
1.88064
1.27308
2.48385
2.89059
3.72343
3.99336
3.91861
3.65188
3.30752
2.95182
2.61576
2.31074
2.03886
1.79837
1.58628
1.39942
1.23483
1.08985
0.962117
0.849565
0.750363
0.662913
0.58581
0.517817
0.457847
0.404942
0.358259
0.317055
0.280678
0.248552
0.220176
0.195104
0.172946
0.153358
0.136037
0.120716
0.107157
0.0951527
0.0845153
0.0750857
0.0667255
0.059312
0.0527371
0.0469049
0.0417309
0.0371398
0.0330653
0.0294484
0.0262371
0.0233851
0.0208515
0.0186
0.0165988
0.0148193
0.0132365
0.0118283
0.0105749
0.00945907
0.00846537
0.00758024
0.00679163
0.0060889
0.00546263
0.00490449
0.0044071
0.00396396
0.00356929
0.00321802
0.00290566
0.00262825
0.0023823
0.00216476
0.00197297
0.00180466
0.00165803
0.00153179
0.00142606
0.00134412
0.00131282
)
;
    }
}


// ************************************************************************* //
