/*--------------------------------*- C++ -*----------------------------------*\
  =========                 |
  \\      /  F ield         | OpenFOAM: The Open Source CFD Toolbox
   \\    /   O peration     | Website:  https://openfoam.org
    \\  /    A nd           | Version:  9
     \\/     M anipulation  |
\*---------------------------------------------------------------------------*/
FoamFile
{
    format      ascii;
    class       volVectorField;
    location    "0.02";
    object      stored_U;
}
// * * * * * * * * * * * * * * * * * * * * * * * * * * * * * * * * * * * * * //

dimensions      [0 1 -1 0 0 0 0];

internalField   nonuniform List<vector> 
9000
(
(-1.85624e-11 -2.30445e-11 -0.000999998)
(-4.9885e-11 -2.38917e-11 -0.000999998)
(-6.67319e-11 -2.11057e-11 -0.000999998)
(-6.34698e-11 -2.09024e-11 -0.000999998)
(-8.7353e-11 -2.62697e-11 -0.000999998)
(-1.30909e-10 -2.40489e-11 -0.000999998)
(-1.26955e-10 -2.32025e-11 -0.000999999)
(-9.91885e-11 -2.49362e-11 -0.000999999)
(-6.53428e-11 -2.19768e-11 -0.000999999)
(-2.14884e-11 -2.11065e-11 -0.000999999)
(-1.94043e-11 -6.81812e-11 -0.000999998)
(-4.80214e-11 -6.87601e-11 -0.000999998)
(-6.38916e-11 -6.83075e-11 -0.000999998)
(-6.87541e-11 -7.24634e-11 -0.000999998)
(-9.06718e-11 -8.94012e-11 -0.000999998)
(-1.28116e-10 -8.31476e-11 -0.000999999)
(-1.28124e-10 -7.80937e-11 -0.000999999)
(-9.81752e-11 -7.21689e-11 -0.000999999)
(-6.16666e-11 -6.60671e-11 -0.000999999)
(-2.06819e-11 -6.38625e-11 -0.000999999)
(-1.90367e-11 -1.11397e-10 -0.000999998)
(-4.99862e-11 -1.12925e-10 -0.000999998)
(-7.05823e-11 -1.13233e-10 -0.000999998)
(-8.46769e-11 -1.2185e-10 -0.000999998)
(-9.82085e-11 -1.49622e-10 -0.000999999)
(-1.19886e-10 -1.2949e-10 -0.000999999)
(-1.16256e-10 -1.21705e-10 -0.000999999)
(-8.73775e-11 -1.08813e-10 -0.000999999)
(-5.72923e-11 -1.03193e-10 -0.000999999)
(-1.94394e-11 -1.01024e-10 -0.000999999)
(-2.07167e-11 -1.6411e-10 -0.000999998)
(-4.96405e-11 -1.57796e-10 -0.000999998)
(-7.28176e-11 -1.43807e-10 -0.000999998)
(-1.05147e-10 -1.51967e-10 -0.000999999)
(-9.83984e-11 -1.91631e-10 -0.000999999)
(-1.00239e-10 -1.31713e-10 -0.000999999)
(-1.07453e-10 -1.3446e-10 -0.000999999)
(-7.96681e-11 -1.312e-10 -0.000999999)
(-5.40716e-11 -1.32281e-10 -0.001)
(-1.87022e-11 -1.35012e-10 -0.001)
(-1.24138e-11 -1.63168e-10 -0.000999999)
(-2.9357e-11 -1.5831e-10 -0.000999999)
(-6.47483e-11 -1.44027e-10 -0.000999999)
(-1.32461e-10 -1.32491e-10 -0.000999999)
(-7.8014e-11 -1.13834e-10 -0.000999999)
(-6.29872e-11 -1.95259e-10 -0.000999999)
(-1.1589e-10 -1.50687e-10 -0.000999999)
(-8.52039e-11 -1.46119e-10 -0.001)
(-6.13666e-11 -1.51823e-10 -0.001)
(-2.24015e-11 -1.57109e-10 -0.001)
(-1.55469e-11 -1.06614e-10 -0.000999999)
(-3.01712e-11 -1.11996e-10 -0.000999999)
(-4.68889e-11 -1.23077e-10 -0.000999999)
(-7.48104e-11 -1.21094e-10 -0.000999999)
(-1.61174e-10 -9.29583e-11 -0.000999999)
(-1.37328e-10 -1.70056e-10 -0.001)
(-5.83757e-11 -1.56703e-10 -0.001)
(-8.08504e-11 -1.61597e-10 -0.001)
(-6.53762e-11 -1.62681e-10 -0.001)
(-2.43095e-11 -1.60718e-10 -0.001)
(-1.75664e-11 -8.45423e-11 -0.000999999)
(-4.56019e-11 -9.05234e-11 -0.000999999)
(-7.38347e-11 -1.067e-10 -0.000999999)
(-1.02102e-10 -1.22271e-10 -0.000999999)
(-1.26719e-10 -1.40956e-10 -0.001)
(-1.26757e-10 -8.74959e-11 -0.001)
(-1.07576e-10 -1.38693e-10 -0.001)
(-9.11733e-11 -1.575e-10 -0.001)
(-6.07983e-11 -1.57745e-10 -0.001)
(-2.07964e-11 -1.5316e-10 -0.001)
(-2.13272e-11 -8.04764e-11 -0.000999999)
(-5.21474e-11 -8.38029e-11 -0.000999999)
(-7.8632e-11 -8.85909e-11 -0.000999999)
(-1.09043e-10 -9.41346e-11 -0.001)
(-1.26394e-10 -9.96232e-11 -0.001)
(-1.34915e-10 -9.65469e-11 -0.001)
(-1.28349e-10 -1.14563e-10 -0.001)
(-9.98872e-11 -1.24827e-10 -0.001)
(-6.13878e-11 -1.2573e-10 -0.001)
(-2.00971e-11 -1.23839e-10 -0.001)
(-2.07128e-11 -5.53625e-11 -0.000999999)
(-5.35453e-11 -5.35323e-11 -0.000999999)
(-8.41597e-11 -5.98483e-11 -0.001)
(-1.13124e-10 -6.63138e-11 -0.001)
(-1.29069e-10 -6.83335e-11 -0.001)
(-1.41673e-10 -7.20015e-11 -0.001)
(-1.35839e-10 -7.71129e-11 -0.001)
(-1.02342e-10 -7.92452e-11 -0.001)
(-6.00844e-11 -7.75832e-11 -0.001)
(-1.91799e-11 -7.5674e-11 -0.001)
(-1.93447e-11 -1.81291e-11 -0.000999999)
(-5.63995e-11 -1.68371e-11 -0.000999999)
(-9.12197e-11 -2.11304e-11 -0.001)
(-1.17283e-10 -2.40691e-11 -0.001)
(-1.31804e-10 -2.55136e-11 -0.001)
(-1.43376e-10 -2.70667e-11 -0.001)
(-1.35286e-10 -2.75241e-11 -0.001)
(-1.00134e-10 -2.68179e-11 -0.001)
(-5.78513e-11 -2.55442e-11 -0.001)
(-1.83093e-11 -2.46614e-11 -0.001)
(-5.39734e-11 -6.41991e-11 -0.000999998)
(-1.4968e-10 -6.43074e-11 -0.000999998)
(-2.1652e-10 -6.27884e-11 -0.000999998)
(-2.42457e-10 -6.73977e-11 -0.000999998)
(-2.96639e-10 -8.50502e-11 -0.000999998)
(-3.74713e-10 -8.34758e-11 -0.000999998)
(-3.5316e-10 -7.18978e-11 -0.000999999)
(-2.67022e-10 -6.87544e-11 -0.000999999)
(-1.72894e-10 -6.50446e-11 -0.000999999)
(-5.92738e-11 -6.52185e-11 -0.000999999)
(-5.40667e-11 -1.88249e-10 -0.000999998)
(-1.48472e-10 -1.88628e-10 -0.000999998)
(-2.20043e-10 -1.91807e-10 -0.000999998)
(-2.65179e-10 -2.07522e-10 -0.000999998)
(-3.13309e-10 -2.45827e-10 -0.000999998)
(-3.62337e-10 -2.43157e-10 -0.000999999)
(-3.39182e-10 -2.16085e-10 -0.000999999)
(-2.60718e-10 -2.00803e-10 -0.000999999)
(-1.69798e-10 -1.91185e-10 -0.000999999)
(-5.96685e-11 -1.86171e-10 -0.000999999)
(-5.40813e-11 -3.04587e-10 -0.000999998)
(-1.53178e-10 -3.04572e-10 -0.000999998)
(-2.3584e-10 -3.05451e-10 -0.000999998)
(-2.96912e-10 -3.2627e-10 -0.000999998)
(-3.32843e-10 -3.76935e-10 -0.000999999)
(-3.45767e-10 -3.48224e-10 -0.000999999)
(-3.11568e-10 -3.28153e-10 -0.000999999)
(-2.42684e-10 -3.09876e-10 -0.000999999)
(-1.58969e-10 -3.00142e-10 -0.000999999)
(-5.474e-11 -2.91634e-10 -0.000999999)
(-5.34825e-11 -4.26169e-10 -0.000999998)
(-1.48752e-10 -4.0003e-10 -0.000999998)
(-2.41743e-10 -3.77338e-10 -0.000999998)
(-3.36673e-10 -4.03582e-10 -0.000999998)
(-3.35194e-10 -5.04305e-10 -0.000999999)
(-3.13532e-10 -3.42162e-10 -0.000999999)
(-3.00843e-10 -3.75679e-10 -0.000999999)
(-2.32724e-10 -3.86294e-10 -0.000999999)
(-1.52124e-10 -3.9239e-10 -0.001)
(-5.17277e-11 -3.8991e-10 -0.001)
(-2.71339e-11 -4.4382e-10 -0.000999998)
(-1.03481e-10 -4.28062e-10 -0.000999998)
(-2.39384e-10 -4.07819e-10 -0.000999998)
(-4.23919e-10 -3.946e-10 -0.000999999)
(-2.71464e-10 -3.33821e-10 -0.000999999)
(-2.16889e-10 -5.18688e-10 -0.000999999)
(-3.55554e-10 -4.51641e-10 -0.001)
(-2.59402e-10 -4.46633e-10 -0.001)
(-1.63321e-10 -4.5669e-10 -0.001)
(-5.30012e-11 -4.59406e-10 -0.001)
(-3.68662e-11 -3.44646e-10 -0.000999998)
(-1.11856e-10 -3.6759e-10 -0.000999999)
(-2.08375e-10 -3.92432e-10 -0.000999999)
(-2.62758e-10 -3.84994e-10 -0.000999999)
(-4.59276e-10 -3.00794e-10 -0.000999999)
(-4.3142e-10 -5.18945e-10 -0.001)
(-2.28768e-10 -4.84877e-10 -0.001)
(-2.37739e-10 -4.83919e-10 -0.001)
(-1.65806e-10 -4.8364e-10 -0.001)
(-5.52928e-11 -4.82963e-10 -0.001)
(-4.93655e-11 -2.94745e-10 -0.000999999)
(-1.50601e-10 -3.19548e-10 -0.000999999)
(-2.56773e-10 -3.51439e-10 -0.000999999)
(-3.32504e-10 -3.78498e-10 -0.000999999)
(-4.05367e-10 -4.47488e-10 -0.001)
(-4.00991e-10 -3.22851e-10 -0.001)
(-3.20597e-10 -4.19124e-10 -0.001)
(-2.58143e-10 -4.55922e-10 -0.001)
(-1.63448e-10 -4.60216e-10 -0.001)
(-5.34104e-11 -4.57793e-10 -0.001)
(-6.1012e-11 -2.68584e-10 -0.000999999)
(-1.6796e-10 -2.83235e-10 -0.000999999)
(-2.67305e-10 -2.93146e-10 -0.000999999)
(-3.58819e-10 -3.04899e-10 -0.001)
(-4.03571e-10 -3.33752e-10 -0.001)
(-4.03004e-10 -3.0895e-10 -0.001)
(-3.61897e-10 -3.40113e-10 -0.001)
(-2.78866e-10 -3.61201e-10 -0.001)
(-1.68675e-10 -3.66164e-10 -0.001)
(-5.38665e-11 -3.64471e-10 -0.001)
(-6.34484e-11 -1.82014e-10 -0.000999999)
(-1.74625e-10 -1.85033e-10 -0.000999999)
(-2.78418e-10 -1.96358e-10 -0.001)
(-3.73092e-10 -2.07084e-10 -0.001)
(-4.09437e-10 -2.19245e-10 -0.001)
(-4.07315e-10 -2.18923e-10 -0.001)
(-3.7288e-10 -2.21791e-10 -0.001)
(-2.84197e-10 -2.24124e-10 -0.001)
(-1.67471e-10 -2.21975e-10 -0.001)
(-5.24565e-11 -2.18191e-10 -0.001)
(-6.35545e-11 -6.1711e-11 -0.000999999)
(-1.81577e-10 -6.203e-11 -0.000999999)
(-2.88759e-10 -6.91122e-11 -0.001)
(-3.80937e-10 -7.29311e-11 -0.001)
(-4.14567e-10 -7.76934e-11 -0.001)
(-4.04654e-10 -7.88806e-11 -0.001)
(-3.663e-10 -7.58968e-11 -0.001)
(-2.78458e-10 -7.31026e-11 -0.001)
(-1.62848e-10 -7.07522e-11 -0.001)
(-5.04202e-11 -6.8681e-11 -0.001)
(-9.97225e-11 -1.05781e-10 -0.000999997)
(-2.84701e-10 -1.0443e-10 -0.000999997)
(-4.35935e-10 -1.09931e-10 -0.000999997)
(-5.41422e-10 -1.19612e-10 -0.000999998)
(-5.96791e-10 -1.35374e-10 -0.000999998)
(-6.09706e-10 -1.3841e-10 -0.000999998)
(-5.49146e-10 -1.1878e-10 -0.000999999)
(-4.28496e-10 -1.13446e-10 -0.000999999)
(-2.80382e-10 -1.11307e-10 -0.000999999)
(-9.76035e-11 -1.09314e-10 -0.000999999)
(-9.83521e-11 -3.0298e-10 -0.000999997)
(-2.89203e-10 -3.01997e-10 -0.000999997)
(-4.51981e-10 -3.13277e-10 -0.000999998)
(-5.6795e-10 -3.34723e-10 -0.000999998)
(-6.16827e-10 -3.57942e-10 -0.000999998)
(-5.94388e-10 -3.74968e-10 -0.000999999)
(-5.25319e-10 -3.41019e-10 -0.000999999)
(-4.21887e-10 -3.30755e-10 -0.000999999)
(-2.77021e-10 -3.22503e-10 -0.000999999)
(-9.60494e-11 -3.15624e-10 -0.000999999)
(-9.83267e-11 -4.7306e-10 -0.000999997)
(-2.94935e-10 -4.67197e-10 -0.000999998)
(-4.69501e-10 -4.74534e-10 -0.000999998)
(-5.87147e-10 -4.9703e-10 -0.000999998)
(-6.38243e-10 -5.19645e-10 -0.000999998)
(-5.9407e-10 -5.44257e-10 -0.000999999)
(-5.06095e-10 -5.2272e-10 -0.000999999)
(-4.10858e-10 -5.1864e-10 -0.000999999)
(-2.66429e-10 -5.09588e-10 -0.000999999)
(-9.15629e-11 -5.01188e-10 -0.000999999)
(-9.15924e-11 -6.08561e-10 -0.000999998)
(-2.89757e-10 -5.83226e-10 -0.000999998)
(-4.81816e-10 -5.82987e-10 -0.000999998)
(-6.13087e-10 -6.15168e-10 -0.000999998)
(-6.64076e-10 -6.65016e-10 -0.000999999)
(-5.97487e-10 -6.52485e-10 -0.000999999)
(-4.99723e-10 -6.57219e-10 -0.000999999)
(-4.08784e-10 -6.68766e-10 -0.000999999)
(-2.60574e-10 -6.67848e-10 -0.001)
(-8.86499e-11 -6.56484e-10 -0.001)
(-7.17526e-11 -6.83326e-10 -0.000999998)
(-2.68077e-10 -6.77733e-10 -0.000999998)
(-5.01418e-10 -6.84554e-10 -0.000999998)
(-6.69174e-10 -7.11457e-10 -0.000999999)
(-6.7553e-10 -7.26782e-10 -0.000999999)
(-5.8628e-10 -7.07908e-10 -0.000999999)
(-5.22377e-10 -7.76747e-10 -0.001)
(-4.21505e-10 -7.82079e-10 -0.001)
(-2.55467e-10 -7.83874e-10 -0.001)
(-8.15297e-11 -7.76037e-10 -0.001)
(-8.45874e-11 -6.7898e-10 -0.000999998)
(-2.89566e-10 -7.1e-10 -0.000999998)
(-5.1552e-10 -7.26986e-10 -0.000999999)
(-6.55311e-10 -7.25208e-10 -0.000999999)
(-6.60557e-10 -7.18469e-10 -0.000999999)
(-6.47241e-10 -7.81399e-10 -0.000999999)
(-5.73868e-10 -8.22446e-10 -0.001)
(-4.15931e-10 -8.30566e-10 -0.001)
(-2.56092e-10 -8.3728e-10 -0.001)
(-8.23871e-11 -8.44745e-10 -0.001)
(-1.01364e-10 -6.307e-10 -0.000999999)
(-3.14735e-10 -6.62556e-10 -0.000999999)
(-5.16611e-10 -6.7114e-10 -0.000999999)
(-6.60614e-10 -6.65853e-10 -0.000999999)
(-7.31911e-10 -6.94012e-10 -0.001)
(-6.90243e-10 -7.41942e-10 -0.001)
(-5.71382e-10 -7.37941e-10 -0.001)
(-4.36407e-10 -7.68176e-10 -0.001)
(-2.71371e-10 -7.85422e-10 -0.001)
(-9.06217e-11 -7.93465e-10 -0.001)
(-1.15119e-10 -5.33938e-10 -0.000999999)
(-3.28763e-10 -5.53573e-10 -0.000999999)
(-5.18806e-10 -5.53665e-10 -0.000999999)
(-6.78189e-10 -5.58926e-10 -0.001)
(-7.36645e-10 -5.79033e-10 -0.001)
(-6.91333e-10 -5.65153e-10 -0.001)
(-6.00089e-10 -5.77e-10 -0.001)
(-4.63432e-10 -5.99965e-10 -0.001)
(-2.83033e-10 -6.13062e-10 -0.001)
(-9.20054e-11 -6.11362e-10 -0.001)
(-1.19906e-10 -3.51786e-10 -0.000999999)
(-3.33401e-10 -3.5661e-10 -0.000999999)
(-5.21933e-10 -3.5968e-10 -0.000999999)
(-6.85972e-10 -3.61233e-10 -0.001)
(-7.38134e-10 -3.66536e-10 -0.001)
(-6.88238e-10 -3.66608e-10 -0.001)
(-6.0616e-10 -3.59395e-10 -0.001)
(-4.7247e-10 -3.63353e-10 -0.001)
(-2.84002e-10 -3.65341e-10 -0.001)
(-9.0131e-11 -3.59091e-10 -0.001)
(-1.1903e-10 -1.20101e-10 -0.000999999)
(-3.35284e-10 -1.19655e-10 -0.000999999)
(-5.22338e-10 -1.2287e-10 -0.001)
(-6.83621e-10 -1.21132e-10 -0.001)
(-7.40492e-10 -1.21934e-10 -0.001)
(-6.82818e-10 -1.24997e-10 -0.001)
(-5.95595e-10 -1.17906e-10 -0.001)
(-4.68425e-10 -1.15657e-10 -0.001)
(-2.7894e-10 -1.14805e-10 -0.001)
(-8.63087e-11 -1.1093e-10 -0.001)
(-1.58927e-10 -1.50411e-10 -0.000999997)
(-4.63951e-10 -1.52232e-10 -0.000999997)
(-7.22478e-10 -1.60711e-10 -0.000999997)
(-9.17795e-10 -1.68646e-10 -0.000999997)
(-9.71239e-10 -1.66226e-10 -0.000999998)
(-8.88382e-10 -1.73916e-10 -0.000999998)
(-7.76962e-10 -1.63659e-10 -0.000999998)
(-6.33166e-10 -1.643e-10 -0.000999999)
(-4.20553e-10 -1.64763e-10 -0.000999999)
(-1.46795e-10 -1.62697e-10 -0.000999999)
(-1.60773e-10 -4.28138e-10 -0.000999997)
(-4.74921e-10 -4.29995e-10 -0.000999997)
(-7.40333e-10 -4.4784e-10 -0.000999997)
(-9.25186e-10 -4.67125e-10 -0.000999997)
(-9.78525e-10 -4.58987e-10 -0.000999998)
(-8.87669e-10 -4.89514e-10 -0.000999998)
(-7.68936e-10 -4.79993e-10 -0.000999999)
(-6.35535e-10 -4.8638e-10 -0.000999999)
(-4.20079e-10 -4.82961e-10 -0.000999999)
(-1.45329e-10 -4.79472e-10 -0.000999999)
(-1.60254e-10 -6.5286e-10 -0.000999997)
(-4.83758e-10 -6.49509e-10 -0.000999997)
(-7.61035e-10 -6.75831e-10 -0.000999997)
(-9.30829e-10 -7.06659e-10 -0.000999998)
(-9.9568e-10 -7.03811e-10 -0.000999998)
(-9.1122e-10 -7.78548e-10 -0.000999998)
(-7.75414e-10 -7.69641e-10 -0.000999999)
(-6.37407e-10 -7.78294e-10 -0.000999999)
(-4.15413e-10 -7.70043e-10 -0.000999999)
(-1.44527e-10 -7.65135e-10 -0.001)
(-1.56128e-10 -8.05627e-10 -0.000999997)
(-4.96587e-10 -8.10711e-10 -0.000999997)
(-7.97473e-10 -8.53234e-10 -0.000999998)
(-9.532e-10 -8.98594e-10 -0.000999998)
(-1.0505e-09 -8.84135e-10 -0.000999998)
(-9.53553e-10 -1.07295e-09 -0.000999999)
(-7.68715e-10 -1.02814e-09 -0.000999999)
(-6.35982e-10 -1.01753e-09 -0.001)
(-4.0848e-10 -1.00176e-09 -0.001)
(-1.41947e-10 -9.87334e-10 -0.001)
(-1.63611e-10 -9.60695e-10 -0.000999997)
(-5.29659e-10 -9.81031e-10 -0.000999998)
(-8.4885e-10 -1.02311e-09 -0.000999998)
(-9.61685e-10 -1.09752e-09 -0.000999998)
(-1.16996e-09 -1.22094e-09 -0.000999999)
(-1.05524e-09 -9.62105e-10 -0.000999999)
(-7.20033e-10 -1.14838e-09 -0.001)
(-6.11074e-10 -1.16416e-09 -0.001)
(-3.87254e-10 -1.15674e-09 -0.001)
(-1.32133e-10 -1.14539e-09 -0.001)
(-1.74432e-10 -1.10113e-09 -0.000999998)
(-5.57009e-10 -1.11868e-09 -0.000999998)
(-9.13925e-10 -1.11241e-09 -0.000999998)
(-1.15104e-09 -1.11746e-09 -0.000999999)
(-9.14983e-10 -1.22078e-09 -0.000999999)
(-8.80988e-10 -1.04689e-09 -0.001)
(-9.70741e-10 -1.17185e-09 -0.001)
(-6.44379e-10 -1.20554e-09 -0.001)
(-3.92012e-10 -1.22366e-09 -0.001)
(-1.3289e-10 -1.23298e-09 -0.001)
(-1.78949e-10 -1.06267e-09 -0.000999998)
(-5.38765e-10 -1.07749e-09 -0.000999999)
(-8.47602e-10 -1.04048e-09 -0.000999999)
(-1.0701e-09 -9.84969e-10 -0.000999999)
(-1.09938e-09 -9.36401e-10 -0.001)
(-1.00627e-09 -1.18262e-09 -0.001)
(-8.78704e-10 -1.0824e-09 -0.001)
(-6.62888e-10 -1.10274e-09 -0.001)
(-4.17162e-10 -1.13161e-09 -0.001)
(-1.43864e-10 -1.13945e-09 -0.001)
(-1.87115e-10 -8.5803e-10 -0.000999999)
(-5.32724e-10 -8.67779e-10 -0.000999999)
(-8.21376e-10 -8.41419e-10 -0.000999999)
(-1.04696e-09 -8.20147e-10 -0.001)
(-1.11269e-09 -7.97114e-10 -0.001)
(-1.02691e-09 -8.24551e-10 -0.001)
(-8.90865e-10 -8.19722e-10 -0.001)
(-6.93616e-10 -8.45937e-10 -0.001)
(-4.31035e-10 -8.67028e-10 -0.001)
(-1.42987e-10 -8.61936e-10 -0.001)
(-1.86986e-10 -5.5409e-10 -0.000999999)
(-5.20451e-10 -5.47539e-10 -0.000999999)
(-7.99923e-10 -5.30224e-10 -0.000999999)
(-1.02577e-09 -5.11176e-10 -0.001)
(-1.10375e-09 -4.88047e-10 -0.001)
(-1.02885e-09 -4.98324e-10 -0.001)
(-9.00064e-10 -4.96053e-10 -0.001)
(-7.10195e-10 -5.08181e-10 -0.001)
(-4.349e-10 -5.16165e-10 -0.001)
(-1.40496e-10 -5.07456e-10 -0.001)
(-1.79107e-10 -1.87622e-10 -0.000999999)
(-5.06738e-10 -1.80531e-10 -0.000999999)
(-7.83377e-10 -1.75363e-10 -0.001)
(-1.00269e-09 -1.65628e-10 -0.001)
(-1.09757e-09 -1.54406e-10 -0.001)
(-1.03283e-09 -1.61693e-10 -0.001)
(-8.98955e-10 -1.60426e-10 -0.001)
(-7.12312e-10 -1.62305e-10 -0.001)
(-4.30452e-10 -1.63921e-10 -0.001)
(-1.35026e-10 -1.58409e-10 -0.001)
(-2.34447e-10 -2.13212e-10 -0.000999996)
(-6.78639e-10 -2.17712e-10 -0.000999996)
(-1.0423e-09 -2.21271e-10 -0.000999996)
(-1.30588e-09 -2.23603e-10 -0.000999997)
(-1.40239e-09 -2.11744e-10 -0.000999997)
(-1.31067e-09 -2.20912e-10 -0.000999998)
(-1.15873e-09 -2.29192e-10 -0.000999998)
(-9.57142e-10 -2.39942e-10 -0.000999999)
(-6.36876e-10 -2.43266e-10 -0.000999999)
(-2.22351e-10 -2.41754e-10 -0.000999999)
(-2.38987e-10 -6.05419e-10 -0.000999996)
(-6.87656e-10 -6.08947e-10 -0.000999996)
(-1.05028e-09 -6.28458e-10 -0.000999996)
(-1.29901e-09 -6.49282e-10 -0.000999997)
(-1.40254e-09 -6.40752e-10 -0.000999997)
(-1.33079e-09 -6.72774e-10 -0.000999998)
(-1.18011e-09 -6.90112e-10 -0.000999998)
(-9.73145e-10 -7.09765e-10 -0.000999999)
(-6.40416e-10 -7.09477e-10 -0.000999999)
(-2.21742e-10 -7.07442e-10 -0.000999999)
(-2.37203e-10 -9.19895e-10 -0.000999996)
(-7.01818e-10 -9.25232e-10 -0.000999996)
(-1.08472e-09 -9.77001e-10 -0.000999997)
(-1.32083e-09 -1.03264e-09 -0.000999997)
(-1.42874e-09 -1.0512e-09 -0.000999998)
(-1.36269e-09 -1.13386e-09 -0.000999998)
(-1.19806e-09 -1.12423e-09 -0.000999999)
(-9.78454e-10 -1.13036e-09 -0.000999999)
(-6.37244e-10 -1.11948e-09 -0.000999999)
(-2.22167e-10 -1.11334e-09 -0.001)
(-2.42467e-10 -1.14472e-09 -0.000999997)
(-7.42915e-10 -1.18362e-09 -0.000999997)
(-1.1577e-09 -1.26648e-09 -0.000999997)
(-1.3732e-09 -1.33752e-09 -0.000999998)
(-1.5038e-09 -1.3188e-09 -0.000999998)
(-1.40389e-09 -1.61475e-09 -0.000999999)
(-1.17673e-09 -1.51319e-09 -0.000999999)
(-9.68493e-10 -1.4709e-09 -0.001)
(-6.25645e-10 -1.44261e-09 -0.001)
(-2.17814e-10 -1.42622e-09 -0.001)
(-2.73675e-10 -1.37487e-09 -0.000999997)
(-8.21226e-10 -1.41827e-09 -0.000999997)
(-1.2386e-09 -1.48419e-09 -0.000999998)
(-1.37313e-09 -1.5804e-09 -0.000999998)
(-1.70597e-09 -1.78526e-09 -0.000999999)
(-1.55704e-09 -1.43742e-09 -0.000999999)
(-1.05412e-09 -1.62897e-09 -0.001)
(-9.07902e-10 -1.63237e-09 -0.001)
(-5.95425e-10 -1.61746e-09 -0.001)
(-2.08604e-10 -1.60823e-09 -0.001)
(-2.83016e-10 -1.58774e-09 -0.000999998)
(-8.49442e-10 -1.58538e-09 -0.000999998)
(-1.31975e-09 -1.561e-09 -0.000999998)
(-1.67424e-09 -1.56328e-09 -0.000999999)
(-1.36088e-09 -1.72143e-09 -0.000999999)
(-1.24768e-09 -1.41497e-09 -0.001)
(-1.37162e-09 -1.58431e-09 -0.001)
(-9.56975e-10 -1.62946e-09 -0.001)
(-6.04741e-10 -1.64663e-09 -0.001)
(-2.11775e-10 -1.64806e-09 -0.001)
(-2.68187e-10 -1.52571e-09 -0.000999998)
(-7.91333e-10 -1.51306e-09 -0.000999998)
(-1.21644e-09 -1.44118e-09 -0.000999999)
(-1.53345e-09 -1.35675e-09 -0.000999999)
(-1.55757e-09 -1.23183e-09 -0.001)
(-1.41999e-09 -1.5542e-09 -0.001)
(-1.2687e-09 -1.44759e-09 -0.001)
(-9.70313e-10 -1.46862e-09 -0.001)
(-6.17393e-10 -1.49443e-09 -0.001)
(-2.13341e-10 -1.4891e-09 -0.001)
(-2.67394e-10 -1.2077e-09 -0.000999999)
(-7.61906e-10 -1.19866e-09 -0.000999999)
(-1.16339e-09 -1.14726e-09 -0.000999999)
(-1.46488e-09 -1.10356e-09 -0.001)
(-1.55829e-09 -1.02629e-09 -0.001)
(-1.46341e-09 -1.08093e-09 -0.001)
(-1.28603e-09 -1.08728e-09 -0.001)
(-1.00386e-09 -1.12153e-09 -0.001)
(-6.28277e-10 -1.14389e-09 -0.001)
(-2.09479e-10 -1.1345e-09 -0.001)
(-2.56788e-10 -7.69426e-10 -0.000999999)
(-7.28484e-10 -7.46951e-10 -0.000999999)
(-1.12128e-09 -7.15043e-10 -0.000999999)
(-1.41244e-09 -6.81641e-10 -0.001)
(-1.5349e-09 -6.27371e-10 -0.001)
(-1.48093e-09 -6.46394e-10 -0.001)
(-1.30926e-09 -6.64378e-10 -0.001)
(-1.02693e-09 -6.85153e-10 -0.001)
(-6.32666e-10 -6.93777e-10 -0.001)
(-2.06242e-10 -6.81743e-10 -0.001)
(-2.43e-10 -2.57334e-10 -0.000999999)
(-7.04591e-10 -2.44514e-10 -0.000999999)
(-1.09583e-09 -2.35403e-10 -0.001)
(-1.3744e-09 -2.21324e-10 -0.001)
(-1.51996e-09 -2.002e-10 -0.001)
(-1.4974e-09 -2.09449e-10 -0.001)
(-1.32207e-09 -2.19585e-10 -0.001)
(-1.03116e-09 -2.24898e-10 -0.001)
(-6.2498e-10 -2.25893e-10 -0.001)
(-1.98416e-10 -2.18028e-10 -0.001)
(-3.24665e-10 -3.06441e-10 -0.000999995)
(-9.21778e-10 -3.04486e-10 -0.000999995)
(-1.40052e-09 -3.03401e-10 -0.000999995)
(-1.74468e-09 -3.07433e-10 -0.000999996)
(-1.94513e-09 -3.10158e-10 -0.000999996)
(-1.94927e-09 -3.17838e-10 -0.000999997)
(-1.76995e-09 -3.36183e-10 -0.000999998)
(-1.44241e-09 -3.50447e-10 -0.000999998)
(-9.44273e-10 -3.51682e-10 -0.000999999)
(-3.26315e-10 -3.47407e-10 -0.000999999)
(-3.22744e-10 -8.67812e-10 -0.000999995)
(-9.19964e-10 -8.67663e-10 -0.000999995)
(-1.40625e-09 -8.93067e-10 -0.000999995)
(-1.75496e-09 -9.28781e-10 -0.000999996)
(-1.95943e-09 -9.5364e-10 -0.000999997)
(-1.97914e-09 -9.79628e-10 -0.000999997)
(-1.80608e-09 -1.00088e-09 -0.000999998)
(-1.46076e-09 -1.01634e-09 -0.000999999)
(-9.43671e-10 -1.01016e-09 -0.000999999)
(-3.23304e-10 -1.0016e-09 -0.000999999)
(-3.23419e-10 -1.33126e-09 -0.000999995)
(-9.47136e-10 -1.35114e-09 -0.000999995)
(-1.46442e-09 -1.42717e-09 -0.000999996)
(-1.80878e-09 -1.50936e-09 -0.000999996)
(-1.99994e-09 -1.56171e-09 -0.000999997)
(-2.00043e-09 -1.6232e-09 -0.000999998)
(-1.81007e-09 -1.5978e-09 -0.000999998)
(-1.45447e-09 -1.58695e-09 -0.000999999)
(-9.33323e-10 -1.56795e-09 -0.001)
(-3.20365e-10 -1.55333e-09 -0.001)
(-3.39948e-10 -1.68974e-09 -0.000999996)
(-1.01323e-09 -1.75137e-09 -0.000999996)
(-1.56448e-09 -1.85194e-09 -0.000999996)
(-1.88959e-09 -1.94257e-09 -0.000999997)
(-2.07335e-09 -1.91813e-09 -0.000999998)
(-2.01552e-09 -2.25355e-09 -0.000999998)
(-1.76985e-09 -2.10274e-09 -0.000999999)
(-1.4309e-09 -2.04105e-09 -0.001)
(-9.13153e-10 -2.00149e-09 -0.001)
(-3.11775e-10 -1.9754e-09 -0.001)
(-3.81601e-10 -1.98235e-09 -0.000999997)
(-1.10598e-09 -2.03504e-09 -0.000999997)
(-1.65553e-09 -2.10409e-09 -0.000999997)
(-1.875e-09 -2.19276e-09 -0.000999998)
(-2.31085e-09 -2.43645e-09 -0.000999998)
(-2.1852e-09 -2.08153e-09 -0.000999999)
(-1.59773e-09 -2.23903e-09 -0.001)
(-1.35328e-09 -2.22528e-09 -0.001)
(-8.716e-10 -2.20152e-09 -0.001)
(-2.98185e-10 -2.18867e-09 -0.001)
(-3.88653e-10 -2.17254e-09 -0.000999997)
(-1.13095e-09 -2.15564e-09 -0.000999998)
(-1.72206e-09 -2.13156e-09 -0.000999998)
(-2.22208e-09 -2.12968e-09 -0.000999998)
(-1.96214e-09 -2.31897e-09 -0.000999999)
(-1.81781e-09 -1.95976e-09 -0.001)
(-1.91384e-09 -2.1343e-09 -0.001)
(-1.39349e-09 -2.15987e-09 -0.001)
(-8.80896e-10 -2.16276e-09 -0.001)
(-3.03222e-10 -2.15674e-09 -0.001)
(-3.60497e-10 -2.03552e-09 -0.000999998)
(-1.06065e-09 -2.00161e-09 -0.000999998)
(-1.62931e-09 -1.92871e-09 -0.000999999)
(-2.06232e-09 -1.85764e-09 -0.000999999)
(-2.14124e-09 -1.69303e-09 -0.001)
(-2.00049e-09 -2.026e-09 -0.001)
(-1.7977e-09 -1.91826e-09 -0.001)
(-1.38177e-09 -1.92241e-09 -0.001)
(-8.72854e-10 -1.93064e-09 -0.001)
(-2.96514e-10 -1.91571e-09 -0.001)
(-3.50834e-10 -1.59996e-09 -0.000999998)
(-1.02013e-09 -1.57718e-09 -0.000999999)
(-1.57801e-09 -1.52626e-09 -0.000999999)
(-1.98632e-09 -1.48745e-09 -0.001)
(-2.13038e-09 -1.38934e-09 -0.001)
(-2.04318e-09 -1.4448e-09 -0.001)
(-1.81026e-09 -1.4553e-09 -0.001)
(-1.40592e-09 -1.48401e-09 -0.001)
(-8.78149e-10 -1.49741e-09 -0.001)
(-2.9224e-10 -1.48603e-09 -0.001)
(-3.34609e-10 -1.01289e-09 -0.000999999)
(-9.8376e-10 -9.91866e-10 -0.000999999)
(-1.5395e-09 -9.66259e-10 -0.000999999)
(-1.92534e-09 -9.33261e-10 -0.001)
(-2.09853e-09 -8.6961e-10 -0.001)
(-2.0664e-09 -8.87628e-10 -0.001)
(-1.83685e-09 -9.11466e-10 -0.001)
(-1.42388e-09 -9.28781e-10 -0.001)
(-8.77868e-10 -9.29033e-10 -0.001)
(-2.8811e-10 -9.1522e-10 -0.001)
(-3.27248e-10 -3.3826e-10 -0.000999999)
(-9.69586e-10 -3.32181e-10 -0.000999999)
(-1.51636e-09 -3.26679e-10 -0.001)
(-1.8859e-09 -3.12063e-10 -0.001)
(-2.0806e-09 -2.90996e-10 -0.001)
(-2.08082e-09 -2.98227e-10 -0.001)
(-1.84762e-09 -3.09553e-10 -0.001)
(-1.42063e-09 -3.12731e-10 -0.001)
(-8.64687e-10 -3.09135e-10 -0.001)
(-2.79693e-10 -3.00676e-10 -0.001)
(-4.27322e-10 -4.29509e-10 -0.000999993)
(-1.22207e-09 -4.22615e-10 -0.000999993)
(-1.88468e-09 -4.25733e-10 -0.000999994)
(-2.37784e-09 -4.40426e-10 -0.000999995)
(-2.70942e-09 -4.61553e-10 -0.000999995)
(-2.81587e-09 -4.66564e-10 -0.000999996)
(-2.58989e-09 -4.81232e-10 -0.000999997)
(-2.07117e-09 -4.89261e-10 -0.000999998)
(-1.3288e-09 -4.84055e-10 -0.000999999)
(-4.53089e-10 -4.7588e-10 -0.000999999)
(-4.20422e-10 -1.23913e-09 -0.000999993)
(-1.21984e-09 -1.24305e-09 -0.000999994)
(-1.90622e-09 -1.28135e-09 -0.000999994)
(-2.41842e-09 -1.33266e-09 -0.000999995)
(-2.74092e-09 -1.3781e-09 -0.000999996)
(-2.84105e-09 -1.39321e-09 -0.000999997)
(-2.61766e-09 -1.40231e-09 -0.000999998)
(-2.07804e-09 -1.40072e-09 -0.000999998)
(-1.31897e-09 -1.38369e-09 -0.000999999)
(-4.46747e-10 -1.36577e-09 -0.000999999)
(-4.2964e-10 -1.93621e-09 -0.000999994)
(-1.26425e-09 -1.97559e-09 -0.000999994)
(-1.978e-09 -2.05994e-09 -0.000999995)
(-2.47932e-09 -2.1415e-09 -0.000999995)
(-2.77521e-09 -2.19176e-09 -0.000999996)
(-2.84549e-09 -2.22275e-09 -0.000999997)
(-2.6025e-09 -2.19054e-09 -0.000999998)
(-2.05672e-09 -2.16163e-09 -0.000999999)
(-1.29923e-09 -2.1317e-09 -0.001)
(-4.3879e-10 -2.10581e-09 -0.001)
(-4.55947e-10 -2.47676e-09 -0.000999995)
(-1.33978e-09 -2.54479e-09 -0.000999995)
(-2.07213e-09 -2.63091e-09 -0.000999996)
(-2.55029e-09 -2.70995e-09 -0.000999996)
(-2.82217e-09 -2.66108e-09 -0.000999997)
(-2.83967e-09 -2.94447e-09 -0.000999998)
(-2.55658e-09 -2.82401e-09 -0.000999999)
(-2.01938e-09 -2.75156e-09 -0.001)
(-1.2674e-09 -2.69381e-09 -0.001)
(-4.25038e-10 -2.65317e-09 -0.001)
(-4.92783e-10 -2.82567e-09 -0.000999996)
(-1.41358e-09 -2.87031e-09 -0.000999996)
(-2.14314e-09 -2.92185e-09 -0.000999997)
(-2.5095e-09 -2.98334e-09 -0.000999997)
(-3.01e-09 -3.18837e-09 -0.000999998)
(-3.0083e-09 -2.90891e-09 -0.000999999)
(-2.40952e-09 -3.0194e-09 -0.001)
(-1.9266e-09 -2.99095e-09 -0.001)
(-1.20613e-09 -2.95283e-09 -0.001)
(-4.0342e-10 -2.92959e-09 -0.001)
(-4.95069e-10 -2.9356e-09 -0.000999997)
(-1.43054e-09 -2.91318e-09 -0.000999997)
(-2.18519e-09 -2.90667e-09 -0.000999997)
(-2.81658e-09 -2.91623e-09 -0.000999998)
(-2.74774e-09 -3.12998e-09 -0.000999999)
(-2.67112e-09 -2.80583e-09 -0.001)
(-2.63849e-09 -2.8966e-09 -0.001)
(-1.9529e-09 -2.88963e-09 -0.001)
(-1.21186e-09 -2.88211e-09 -0.001)
(-4.0756e-10 -2.87651e-09 -0.001)
(-4.64676e-10 -2.67882e-09 -0.000999998)
(-1.37889e-09 -2.64298e-09 -0.000999998)
(-2.14631e-09 -2.6068e-09 -0.000999998)
(-2.73298e-09 -2.58683e-09 -0.000999999)
(-2.8992e-09 -2.47401e-09 -0.001)
(-2.77492e-09 -2.72765e-09 -0.001)
(-2.49341e-09 -2.59492e-09 -0.001)
(-1.91219e-09 -2.56538e-09 -0.001)
(-1.19882e-09 -2.55767e-09 -0.001)
(-4.03555e-10 -2.54457e-09 -0.001)
(-4.54058e-10 -2.10687e-09 -0.000999998)
(-1.35319e-09 -2.09169e-09 -0.000999999)
(-2.12899e-09 -2.06924e-09 -0.000999999)
(-2.68386e-09 -2.05441e-09 -0.001)
(-2.8887e-09 -1.97203e-09 -0.001)
(-2.79194e-09 -2.01615e-09 -0.001)
(-2.47622e-09 -1.99814e-09 -0.001)
(-1.91572e-09 -2.00355e-09 -0.001)
(-1.19626e-09 -2.00095e-09 -0.001)
(-3.99623e-10 -1.99026e-09 -0.001)
(-4.45388e-10 -1.34589e-09 -0.000999999)
(-1.33702e-09 -1.34777e-09 -0.000999999)
(-2.1089e-09 -1.33636e-09 -0.001)
(-2.6357e-09 -1.3087e-09 -0.001)
(-2.86086e-09 -1.25906e-09 -0.001)
(-2.80096e-09 -1.27073e-09 -0.001)
(-2.48072e-09 -1.26914e-09 -0.001)
(-1.915e-09 -1.26971e-09 -0.001)
(-1.18952e-09 -1.25991e-09 -0.001)
(-3.96827e-10 -1.2531e-09 -0.001)
(-4.52402e-10 -4.57625e-10 -0.000999999)
(-1.33831e-09 -4.66421e-10 -0.000999999)
(-2.08573e-09 -4.62448e-10 -0.001)
(-2.60144e-09 -4.47369e-10 -0.001)
(-2.84511e-09 -4.33266e-10 -0.001)
(-2.79634e-09 -4.37158e-10 -0.001)
(-2.4701e-09 -4.34287e-10 -0.001)
(-1.90266e-09 -4.31607e-10 -0.001)
(-1.1798e-09 -4.25755e-10 -0.001)
(-3.9451e-10 -4.2338e-10 -0.001)
(-5.62541e-10 -5.95027e-10 -0.000999991)
(-1.6525e-09 -5.96879e-10 -0.000999991)
(-2.60847e-09 -6.09605e-10 -0.000999992)
(-3.32644e-09 -6.31205e-10 -0.000999993)
(-3.77987e-09 -6.5259e-10 -0.000999994)
(-3.91365e-09 -6.52102e-10 -0.000999996)
(-3.58722e-09 -6.57727e-10 -0.000999997)
(-2.83412e-09 -6.56527e-10 -0.000999998)
(-1.79875e-09 -6.47113e-10 -0.000999998)
(-6.10029e-10 -6.3774e-10 -0.000999999)
(-5.64328e-10 -1.7606e-09 -0.000999991)
(-1.66916e-09 -1.784e-09 -0.000999992)
(-2.64793e-09 -1.8298e-09 -0.000999992)
(-3.37601e-09 -1.87736e-09 -0.000999993)
(-3.80817e-09 -1.91066e-09 -0.000999995)
(-3.92638e-09 -1.90777e-09 -0.000999996)
(-3.59863e-09 -1.90509e-09 -0.000999997)
(-2.82902e-09 -1.88746e-09 -0.000999998)
(-1.78467e-09 -1.86292e-09 -0.000999999)
(-6.03071e-10 -1.83989e-09 -0.000999999)
(-5.83564e-10 -2.78796e-09 -0.000999992)
(-1.72149e-09 -2.84056e-09 -0.000999993)
(-2.70692e-09 -2.90775e-09 -0.000999993)
(-3.41387e-09 -2.95781e-09 -0.000999994)
(-3.81774e-09 -2.98598e-09 -0.000999995)
(-3.91578e-09 -2.98844e-09 -0.000999997)
(-3.57398e-09 -2.95903e-09 -0.000999998)
(-2.79758e-09 -2.91639e-09 -0.000999999)
(-1.75837e-09 -2.87584e-09 -0.001)
(-5.91848e-10 -2.84403e-09 -0.001)
(-6.11424e-10 -3.54795e-09 -0.000999993)
(-1.78352e-09 -3.60319e-09 -0.000999994)
(-2.76519e-09 -3.65591e-09 -0.000999994)
(-3.45434e-09 -3.7027e-09 -0.000999995)
(-3.83891e-09 -3.68506e-09 -0.000999997)
(-3.89955e-09 -3.83264e-09 -0.000999998)
(-3.52668e-09 -3.76424e-09 -0.000999999)
(-2.74599e-09 -3.683e-09 -0.001)
(-1.71803e-09 -3.60943e-09 -0.001)
(-5.76916e-10 -3.56624e-09 -0.001)
(-6.31917e-10 -3.96217e-09 -0.000999995)
(-1.82254e-09 -3.98408e-09 -0.000999995)
(-2.80633e-09 -4.01244e-09 -0.000999996)
(-3.44302e-09 -4.05261e-09 -0.000999997)
(-3.94748e-09 -4.1727e-09 -0.000999998)
(-3.99514e-09 -4.05157e-09 -0.000999999)
(-3.42434e-09 -4.06636e-09 -0.001)
(-2.64287e-09 -4.01758e-09 -0.001)
(-1.64872e-09 -3.96794e-09 -0.001)
(-5.55728e-10 -3.93918e-09 -0.001)
(-6.25695e-10 -3.98187e-09 -0.000999996)
(-1.82605e-09 -3.96272e-09 -0.000999996)
(-2.8336e-09 -3.97764e-09 -0.000999997)
(-3.61476e-09 -4.00812e-09 -0.000999998)
(-3.83789e-09 -4.15635e-09 -0.000999999)
(-3.79304e-09 -3.96376e-09 -0.001)
(-3.49281e-09 -3.94358e-09 -0.001)
(-2.64768e-09 -3.91822e-09 -0.001)
(-1.64747e-09 -3.91197e-09 -0.001)
(-5.55916e-10 -3.90434e-09 -0.001)
(-6.05015e-10 -3.57923e-09 -0.000999997)
(-1.81041e-09 -3.56547e-09 -0.000999998)
(-2.85162e-09 -3.57365e-09 -0.000999998)