# vtk DataFile Version 4.0
Generated by LIGGGHTS
ASCII
DATASET POLYDATA
POINTS 167 float
-0.000466806 -0.000422024 9.9974e-05 -0.000342018 -0.000459127 0.000262319 -0.000275487 -0.000362994 9.99744e-05 
-0.000140133 -0.000320719 0.000241015 -9.57295e-05 -0.00045511 9.98387e-05 4.80366e-05 -0.000417051 0.000233499 
0.000196938 -0.000390598 9.99358e-05 0.000384707 -0.000387218 0.000248243 -0.000443194 -0.000286701 0.000264659 
-0.000380594 -0.000192584 9.98214e-05 -0.000180714 -0.000185102 9.9842e-05 -0.000281872 -0.000156714 0.000269841 
-3.54446e-06 -0.00027768 9.98299e-05 6.3423e-05 -0.000192959 0.000267967 0.000177038 -0.000191663 9.98681e-05 
0.000299011 -0.000200802 0.000257892 0.000474182 -0.000110146 0.000220242 0.000408395 -0.000255461 9.98031e-05 
-0.000477732 4.20214e-05 9.98651e-05 -0.000380745 1.69685e-05 0.000272836 -0.000285644 -1.48923e-05 9.99085e-05 
-0.000104336 -5.61899e-05 0.000232237 -0.000102327 9.36848e-05 9.98827e-05 4.48883e-05 -4.16257e-05 9.99117e-05 
3.90772e-05 9.92012e-05 0.000241685 0.000185637 -3.67763e-05 0.000242467 0.000324134 -5.6192e-05 9.97944e-05 
0.000363484 5.44292e-05 0.00026163 -0.00033256 0.000179474 9.98487e-05 -0.000485722 0.000184609 0.000244355 
-0.000218699 0.000133097 0.000257522 -0.000170193 0.000296623 9.99036e-05 -6.89599e-05 0.000265061 0.00026935 
3.39287e-05 0.000240075 9.9835e-05 0.000181596 0.000104376 9.9972e-05 0.000129637 0.000288025 0.000268616 
0.000343759 0.000287224 0.000263186 0.000370221 0.000171902 9.99536e-05 -0.000324804 0.000302583 0.000257055 
-0.000323903 0.000425882 9.98237e-05 -0.000494887 0.000322236 9.97915e-05 -0.000174137 0.000433472 0.000246045 
7.21672e-05 0.000436311 9.98716e-05 0.000232599 0.000316991 9.98012e-05 0.00021902 0.000463671 0.000234979 
0.000366547 0.000466534 9.99712e-05 0.000485124 0.000440265 0.000259814 -0.000483294 -0.000424609 0.000403682 
-0.00027603 -0.000318006 0.00038761 -0.000166031 -0.000480424 0.000426238 -1.80841e-05 -0.000327018 0.000399263 
0.000108899 -0.000457918 0.000481235 0.00020833 -0.000359757 0.000338316 -0.000435309 -0.000136524 0.000396407 
-9.58937e-05 -0.000152414 0.000457774 0.000150939 -0.000202291 0.000447389 0.000407077 -0.000257853 0.000416004 
-0.000233105 -1.62263e-05 0.000403381 5.05358e-05 -3.46794e-05 0.000389696 0.000294201 -6.82565e-05 0.000407396 
-0.000353009 0.000167428 0.000401543 -0.000202039 0.000297842 0.000414765 -8.19163e-05 0.000114586 0.00040214 
4.5892e-05 0.000261263 0.000448088 0.00020338 0.000125252 0.000358226 0.000452588 0.000127102 0.000425533 
-0.000363366 0.000415939 0.00041705 -7.44921e-07 0.000432144 0.000355322 0.00024101 0.000306575 0.000433614 
0.000337517 0.000484989 0.000394579 0.000457456 0.000327487 0.000422568 -0.000335765 -0.000430319 0.00054172 
-0.000155899 -0.000320809 0.000547363 -5.5585e-05 -0.00048769 0.000592741 4.60269e-05 -0.000300137 0.00058672 
0.000284494 -0.000372578 0.000524493 0.000165511 -0.000436648 0.000671813 0.000494011 -0.000332616 0.000579751 
0.00036419 -0.000425563 0.000700117 -0.000333332 -0.000284641 0.000678555 -0.000415389 -0.000102355 0.000680736 
-0.000284106 -0.000169358 0.000522824 -2.63925e-05 -0.000122448 0.000642827 0.000266713 -0.000192697 0.000610052 
0.000434472 -0.000105627 0.000544911 -0.000409943 1.7678e-05 0.000520977 -0.000148868 2.26356e-05 0.000580362 
0.000141042 -4.29942e-05 0.000567788 0.000289872 8.62125e-05 0.000534156 0.000451561 7.88846e-05 0.000651504 
-0.000403545 0.00028044 0.000558485 -0.000305834 0.000118708 0.000658505 -0.000145454 0.000222299 0.000591018 
2.59523e-05 0.000119351 0.000587452 0.00019025 0.000213494 0.000651701 0.000379303 0.000255501 0.000591858 
-0.000225871 0.000407166 0.00058034 9.55427e-05 0.000381668 0.000599701 0.000287906 0.000433036 0.000581175 
0.000491503 0.000462118 0.000566468 -0.000466638 -0.000377402 0.000795157 -0.000261873 -0.000386431 0.000835095 
-9.22081e-05 -0.000351417 0.000734378 0.00022057 -0.000462088 0.000882114 -0.000323049 -0.000195022 0.000856975 
-0.000216747 -0.000120321 0.00070453 -0.000133798 -0.000244683 0.000898241 5.34145e-05 -0.00022754 0.000792969 
0.00024315 -0.00028983 0.000783188 0.000200671 -0.000110561 0.000860866 0.000426814 -0.000215951 0.000727554 
-0.000321105 3.8779e-06 0.000821473 -7.02737e-05 -6.7788e-05 0.000830041 8.96343e-05 2.16596e-05 0.000749885 
0.000284323 -1.75529e-05 0.000704917 0.000284302 6.94292e-05 0.000884967 0.000450627 -3.73262e-05 0.000814151 
-0.000441791 0.000162923 0.000798276 -0.000269693 0.000297027 0.000741292 -0.000112717 0.000112723 0.00075512 
-2.14336e-05 0.000289213 0.000732875 0.00014839 0.000212948 0.000847154 0.000347326 0.000232413 0.000787848 
-0.000351631 0.000478025 0.000718633 -0.00049675 0.00034057 0.000724775 -0.000422944 0.000441137 0.000901695 
-0.000139719 0.000312072 0.000892485 -0.000156685 0.000461007 0.00075994 3.98956e-05 0.000469074 0.000795499 
0.000215275 0.000379891 0.000759747 0.000382182 0.000422078 0.000861378 -0.000447613 -0.000383197 0.000994098 
-0.000256712 -0.000334273 0.00102807 -8.79122e-05 -0.000438764 0.000918651 8.13424e-05 -0.000339322 0.000956346 
-9.76841e-05 -0.000487166 0.00111241 0.000361477 -0.000463445 0.001024 -0.000468221 -0.000222751 0.00111165 
-6.77248e-05 -0.000291954 0.00108095 4.15102e-05 -0.00014448 0.000977024 0.000241184 -0.000244584 0.00103017 
0.000396696 -0.000288901 0.000911282 -0.000437742 -8.06926e-05 0.000974254 -0.000352913 8.46127e-05 0.00104818 
-0.000212299 -7.28113e-05 0.000970687 6.63286e-06 9.28125e-05 0.000920893 -5.66352e-05 -6.06452e-06 0.00108279 
0.000357259 -8.86687e-05 0.000983317 0.000466653 9.54858e-05 0.000962735 -0.000330853 0.000265745 0.000929087 
-0.000190027 0.000124119 0.000939147 -1.38811e-05 0.000207663 0.00108329 0.000166896 0.000137869 0.00103166 
0.000280983 0.000291778 0.000974337 0.000479992 0.000292569 0.00099379 -0.000407709 0.00045243 0.00110075 
-0.000242747 0.000454934 0.000987189 4.7022e-05 0.000347891 0.000954372 9.77364e-05 -0.000446374 0.00112444 
0.000366666 -0.000322002 0.00116525 -0.000320147 -9.09913e-05 0.00113808 0.000463645 -9.4153e-06 0.00113297 
-0.000358525 0.00026249 0.00113935 -0.00018712 0.000129426 0.0011506 0.00034919 0.000161949 0.00111029 
-0.000169884 0.000326602 0.00112212 0.000161592 0.000364245 0.00111746 
VERTICES 167 334
1 0 
1 1 
1 2 
1 3 
1 4 
1 5 
1 6 
1 7 
1 8 
1 9 
1 10 
1 11 
1 12 
1 13 
1 14 
1 15 
1 16 
1 17 
1 18 
1 19 
1 20 
1 21 
1 22 
1 23 
1 24 
1 25 
1 26 
1 27 
1 28 
1 29 
1 30 
1 31 
1 32 
1 33 
1 34 
1 35 
1 36 
1 37 
1 38 
1 39 
1 40 
1 41 
1 42 
1 43 
1 44 
1 45 
1 46 
1 47 
1 48 
1 49 
1 50 
1 51 
1 52 
1 53 
1 54 
1 55 
1 56 
1 57 
1 58 
1 59 
1 60 
1 61 
1 62 
1 63 
1 64 
1 65 
1 66 
1 67 
1 68 
1 69 
1 70 
1 71 
1 72 
1 73 
1 74 
1 75 
1 76 
1 77 
1 78 
1 79 
1 80 
1 81 
1 82 
1 83 
1 84 
1 85 
1 86 
1 87 
1 88 
1 89 
1 90 
1 91 
1 92 
1 93 
1 94 
1 95 
1 96 
1 97 
1 98 
1 99 
1 100 
1 101 
1 102 
1 103 
1 104 
1 105 
1 106 
1 107 
1 108 
1 109 
1 110 
1 111 
1 112 
1 113 
1 114 
1 115 
1 116 
1 117 
1 118 
1 119 
1 120 
1 121 
1 122 
1 123 
1 124 
1 125 
1 126 
1 127 
1 128 
1 129 
1 130 
1 131 
1 132 
1 133 
1 134 
1 135 
1 136 
1 137 
1 138 
1 139 
1 140 
1 141 
1 142 
1 143 
1 144 
1 145 
1 146 
1 147 
1 148 
1 149 
1 150 
1 151 
1 152 
1 153 
1 154 
1 155 
1 156 
1 157 
1 158 
1 159 
1 160 
1 161 
1 162 
1 163 
1 164 
1 165 
1 166 

POINT_DATA 167
FIELD FieldData 7
id 1 167 int
4 46 28 51 7 18 9 20 44 
19 27 47 1 29 11 34 40 15 
3 42 14 30 24 10 23 38 26 
49 12 32 35 25 37 13 16 31 
45 2 33 17 21 36 8 5 22 
6 39 63 62 58 54 77 41 52 
67 73 56 53 55 61 60 75 64 
68 43 57 71 48 69 50 59 90 
65 94 89 72 96 86 106 97 88 
76 99 81 87 66 79 85 74 101 
84 102 80 92 93 78 91 83 82 
70 131 126 105 124 118 104 125 112 
110 114 98 109 116 119 100 130 111 
120 115 123 95 122 107 113 103 138 
129 108 132 117 133 146 151 144 139 
161 142 162 158 147 150 134 121 149 
135 127 152 137 140 128 136 155 143 
141 145 159 153 148 156 165 160 154 
166 157 163 164 167 
type 1 167 int
1 1 1 1 1 1 1 1 1 
1 1 1 1 1 1 1 1 1 
1 1 1 1 1 1 1 1 1 
1 1 1 1 1 1 1 1 1 
1 1 1 1 1 1 1 1 1 
1 1 1 1 1 1 1 1 1 
1 1 1 1 1 1 1 1 1 
1 1 1 1 1 1 1 1 1 
1 1 1 1 1 1 1 1 1 
1 1 1 1 1 1 1 1 1 
1 1 1 1 1 1 1 1 1 
1 1 1 1 1 1 1 1 1 
1 1 1 1 1 1 1 1 1 
1 1 1 1 1 1 1 1 1 
1 1 1 1 1 1 1 1 1 
1 1 1 1 1 1 1 1 1 
1 1 1 1 1 1 1 1 1 
1 1 1 1 1 1 1 1 1 
1 1 1 1 1 
i 3 167 int
1 1 0 0 1 0 0 1 0 
0 0 0 0 1 0 0 0 0 
-1 0 0 0 0 0 0 1 0 
0 0 0 0 0 0 0 0 0 
0 0 0 0 0 0 -1 0 0 
0 0 0 0 0 0 -1 0 0 
0 0 0 0 0 0 0 0 0 
0 0 0 1 0 0 0 0 0 
0 0 0 0 0 0 -1 0 0 
0 0 0 0 0 0 0 0 0 
0 0 0 1 0 0 0 0 0 
0 0 0 0 0 0 0 0 0 
0 0 0 0 0 0 0 0 0 
0 -1 0 1 -1 0 0 -1 0 
0 -1 0 0 0 0 0 0 0 
0 -1 0 0 0 0 0 1 0 
1 0 0 0 0 0 0 0 0 
0 0 0 0 0 0 0 0 0 
0 0 0 0 0 0 0 0 0 
0 0 0 0 0 0 0 0 0 
0 0 0 0 0 0 0 0 0 
0 0 0 0 0 0 0 0 0 
0 0 0 0 0 0 0 0 0 
0 -1 0 0 0 0 0 0 0 
0 0 0 0 0 0 0 0 0 
0 0 0 0 0 0 0 0 0 
-1 0 0 0 0 0 0 0 0 
0 0 0 0 0 0 0 0 0 
0 0 0 0 0 0 0 0 0 
0 0 0 0 0 0 0 0 0 
0 0 0 0 0 0 0 0 0 
0 0 0 0 0 0 0 0 0 
0 0 0 0 0 0 0 -1 0 
-1 -1 0 0 0 0 0 0 0 
0 0 0 0 0 0 0 0 0 
0 0 0 0 0 0 0 0 0 
0 0 0 0 0 0 -1 0 0 
0 0 0 0 0 0 0 0 0 
0 0 0 0 0 0 0 0 0 
0 0 0 0 0 0 0 0 0 
0 0 0 0 0 0 0 0 0 
0 -1 0 1 0 0 0 0 0 
0 0 0 0 0 0 0 -1 0 
0 0 0 0 0 0 0 0 0 
0 0 0 0 1 0 0 0 0 
0 0 0 0 0 0 1 0 0 
0 0 0 0 0 0 0 0 0 
0 0 0 1 0 0 0 0 0 
0 0 0 0 0 0 0 0 0 
0 0 0 -1 0 0 0 0 0 
0 0 0 0 0 0 0 0 0 
0 0 0 0 -1 0 0 -1 0 
0 0 0 0 0 0 0 0 0 
0 0 0 0 0 0 0 0 0 
0 0 0 0 0 0 0 0 0 
0 0 0 0 0 0 
v 3 167 double
7.09959e-05 1.83139e-05 2.72924e-06 -1.59786e-05 -1.09911e-05 0.000102551 3.04326e-06 3.6642e-06 1.03169e-05 
4.0598e-06 -2.44269e-05 0.000121549 7.69937e-06 -2.02672e-06 7.10655e-05 1.20426e-05 -2.48471e-05 0.000116072 
4.99107e-06 -4.85882e-06 4.02493e-05 3.51917e-06 -8.741e-06 0.000148774 -2.32345e-05 -2.97741e-06 0.000130357 
-1.7488e-05 -1.20743e-06 6.11086e-05 -3.94951e-06 -7.54747e-06 6.22043e-05 -1.22815e-05 -2.34727e-05 0.000105266 
1.67799e-05 -3.93895e-06 6.69926e-05 -2.39296e-05 -8.14452e-06 0.000147396 -1.24693e-05 -1.11927e-05 3.5861e-05 
-1.55442e-05 -4.18963e-05 0.00010734 -2.0978e-05 -9.5572e-07 8.37495e-05 -2.01899e-06 -4.31008e-05 6.61991e-05 
8.02371e-06 -1.62275e-05 3.15816e-05 -1.12806e-06 -1.49846e-05 7.53946e-05 1.48987e-05 -7.27549e-06 4.11621e-05 
3.06823e-05 -1.6708e-05 5.46286e-05 4.70305e-06 -2.31452e-06 4.81103e-05 -4.40443e-06 -1.96403e-05 3.58873e-05 
-2.37557e-05 -3.39413e-05 0.00010398 -7.52488e-06 -1.64847e-05 0.000122986 -2.07457e-05 -3.76902e-06 4.70509e-05 
-1.57646e-05 -8.62572e-06 7.47989e-05 -3.99051e-07 -9.81943e-07 5.47656e-05 -6.26545e-06 -5.87684e-07 0.000102941 
-3.90127e-06 -4.88664e-06 9.41985e-05 -2.06082e-05 1.53713e-05 4.58859e-05 -7.77851e-06 -3.6566e-06 0.000109795 
1.95423e-07 -9.58853e-06 6.24603e-05 -2.48232e-05 -0.000163779 -3.41278e-06 3.40734e-08 -1.87112e-06 0.000125284 
8.05737e-06 -1.44946e-05 0.000137191 9.68929e-06 -6.64013e-06 4.13824e-05 2.66751e-06 3.51669e-06 0.000118262 
1.48855e-05 1.78103e-05 5.34801e-05 -4.41123e-07 4.22497e-05 7.32263e-05 6.9012e-07 -3.51005e-06 0.000131866 
7.67404e-06 -1.51172e-05 6.12345e-05 2.29956e-05 -2.06434e-06 7.50155e-05 -1.06288e-05 2.09969e-05 0.000114794 
-9.80441e-06 -5.99861e-05 1.14912e-05 2.08891e-05 1.81667e-05 0.000172172 9.12457e-06 7.66432e-06 0.000236177 
-3.88772e-05 -4.16748e-05 0.000154873 -8.6783e-06 -2.67884e-05 0.000191014 3.45334e-07 -2.11245e-05 0.000157933 
1.52016e-05 -1.92312e-05 0.0001842 -1.93429e-05 -3.1938e-06 0.000150979 -1.15234e-05 -1.71354e-05 0.000138731 
2.83581e-06 -3.29394e-05 0.000208856 -4.31999e-05 -2.27158e-05 0.000206097 -9.11116e-06 1.67743e-06 0.000188597 
-4.26123e-05 6.5665e-06 0.000158415 -3.6301e-08 -1.97382e-05 0.000188189 1.66483e-05 -3.21467e-05 0.000138519 
1.07364e-05 -3.43743e-05 0.000139583 -1.10057e-05 -3.98663e-05 0.000170201 -2.21673e-05 -1.36754e-05 0.000154375 
-1.54937e-05 -1.45378e-05 0.000185117 3.39211e-06 -8.61612e-06 0.000127589 3.16542e-05 -5.60278e-05 0.000143221 
6.00247e-06 -2.97828e-05 0.000205404 -5.96577e-06 -1.66669e-05 0.000156075 7.15932e-06 -4.82495e-06 0.000160199 
6.31974e-07 3.27799e-05 0.000195156 -8.7964e-06 -3.83829e-07 0.000180714 -1.15324e-05 -2.02974e-05 0.000223854 
-3.98923e-05 -1.41746e-05 0.000216527 -5.77644e-06 2.12333e-06 0.000232087 5.94108e-06 -4.76119e-05 0.000216311 
1.76882e-05 7.80902e-06 0.000240339 1.05228e-05 2.32023e-05 0.000215913 -1.49417e-05 -2.14118e-05 0.000259431 
-1.44141e-05 -4.14272e-06 0.000241949 6.06112e-06 -1.37655e-05 0.000216565 7.60244e-06 -8.70381e-06 0.000240665 
-2.09491e-05 -2.15296e-05 0.000190862 -1.32362e-05 -3.4846e-05 0.000206244 1.53967e-05 -4.28312e-06 0.000215989 
5.49989e-06 -3.06659e-05 0.000174912 2.31262e-05 -3.84682e-05 0.000186729 -2.2671e-05 -2.13509e-05 0.000227216 
3.05235e-06 -8.90937e-06 0.000213176 1.41906e-05 -2.11275e-05 0.000159848 1.15315e-05 1.54078e-07 0.000183033 
2.62662e-05 -6.93217e-05 0.000195899 -1.41202e-05 -2.37385e-05 0.000247362 4.67276e-05 -1.884e-05 0.000225762 
1.23689e-05 -3.14588e-05 0.000223457 4.52283e-05 8.27597e-07 0.000172903 1.41547e-06 -5.43662e-06 0.000196785 
7.62613e-06 -4.40049e-05 0.000223446 1.07775e-05 1.18012e-05 0.000216106 2.63602e-05 -2.92891e-05 0.000224876 
-3.11987e-06 -2.75492e-05 0.000231315 2.58237e-06 2.38579e-05 0.000240643 2.30166e-05 4.08073e-05 0.000198243 
-5.04697e-05 1.70893e-05 0.000237734 -4.23e-05 -2.14266e-05 0.000188751 2.85813e-05 7.55743e-05 0.00017966 
-4.42936e-05 9.34495e-06 0.000215356 1.60725e-05 7.52803e-05 0.000233713 -1.10535e-05 1.69656e-05 0.000222996 
-2.55899e-05 -8.3518e-06 0.000225203 2.14573e-05 1.3319e-05 0.000212823 -1.86504e-05 -6.99527e-07 0.000287753 
1.94221e-05 -3.95086e-06 0.000225976 6.77988e-06 -1.71573e-06 0.000181182 9.63927e-06 -2.78262e-05 0.000237438 
2.07156e-05 4.53493e-07 0.000197261 2.76386e-06 3.0713e-06 0.000210426 -1.648e-05 2.81023e-05 0.000207565 
-9.16214e-06 -1.06955e-05 0.000234745 -1.98218e-05 -3.01952e-05 0.000237227 6.6653e-05 3.62641e-05 0.000219288 
6.79146e-05 -1.19381e-05 0.000206135 1.1924e-07 9.63555e-06 0.000156949 8.6211e-06 -2.97478e-05 0.00021548 
-4.97114e-06 -1.24798e-05 0.000223898 5.64035e-06 -5.53385e-05 0.000208686 -3.48832e-05 2.08737e-05 0.000172823 
-4.78217e-06 2.76382e-05 0.000210749 3.77042e-05 4.01806e-06 0.000228991 2.08052e-05 5.84271e-05 0.000218845 
1.6844e-05 -8.84445e-06 0.000196862 -1.96154e-05 -1.90141e-06 0.000199058 5.58247e-05 2.20712e-05 0.000249886 
4.2541e-05 6.64884e-05 0.000214819 -1.48115e-05 8.95439e-05 0.00019747 -7.30832e-06 2.94195e-05 0.000187706 
1.28764e-05 -2.74938e-06 0.000127734 4.66572e-05 7.68242e-05 0.000120274 -2.92714e-05 8.52681e-05 0.000146068 
-2.11092e-06 4.42146e-05 0.000228357 5.37337e-05 1.89154e-05 0.000175538 -3.88312e-06 3.00883e-06 0.000120941 
-5.85279e-05 -7.31705e-05 0.00029921 -6.88829e-06 1.7582e-05 0.000162343 -7.41438e-06 -2.4842e-05 8.64629e-05 
-4.97009e-06 -5.12417e-05 0.000162009 2.26381e-05 -9.86713e-06 0.00011838 -2.81741e-05 1.48073e-05 2.11247e-05 
-2.51503e-05 1.24323e-05 0.000199402 -1.25311e-05 -1.58346e-05 0.000224663 1.06072e-05 4.98313e-05 0.00027091 
-5.48001e-06 6.17375e-06 0.000172938 -1.32798e-05 -4.33554e-06 8.55646e-05 -1.19352e-05 -3.67276e-05 0.000123423 
-1.57722e-05 -2.2199e-05 0.000224433 -2.1553e-05 1.43521e-05 0.000236361 6.55773e-05 -3.06047e-05 0.000123173 
-1.13301e-05 7.0321e-05 0.000123725 2.2598e-05 -3.42731e-05 0.000137523 2.02888e-05 -3.38849e-05 8.10004e-05 
1.95636e-05 9.31638e-05 5.21866e-05 1.74716e-06 3.289e-06 0.000139556 1.37337e-05 -5.73654e-05 0.000216496 
1.55824e-05 -1.72731e-05 -3.97534e-05 2.61177e-05 2.26981e-05 -0.000120246 -3.14779e-05 -1.10873e-05 0.000215346 
6.21069e-06 -5.56467e-06 -2.56114e-05 -3.08214e-05 2.32155e-05 0.000160762 
f 3 167 double
1.8062e-10 9.94765e-10 -5.47006e-09 6.95362e-10 -3.71479e-09 8.5538e-10 1.32665e-09 8.53315e-10 -8.56595e-09 
5.0966e-10 -2.80645e-09 -8.96908e-10 2.50578e-09 7.1847e-10 -2.82887e-09 2.94487e-09 1.49813e-09 -1.89463e-09 
1.39751e-08 5.1654e-10 -3.87372e-09 -1.57103e-09 2.98132e-09 -4.78923e-09 3.07753e-10 -1.43085e-09 -6.07574e-10 
-7.08757e-10 -1.87406e-09 -1.20951e-09 -1.14383e-10 -4.06391e-10 -1.09396e-09 -1.31781e-10 -1.20824e-09 -9.26538e-10 
2.01726e-09 1.39166e-09 1.06758e-10 5.34679e-09 5.3597e-09 1.91128e-09 4.41764e-09 5.768e-10 -2.08325e-09 
3.1055e-09 4.87226e-09 -2.02698e-09 1.6323e-09 6.36428e-10 -2.13551e-09 2.65477e-09 5.62669e-10 -1.73501e-09 
6.27563e-10 7.4903e-10 -1.23741e-09 8.21663e-10 -1.13501e-09 7.15848e-10 6.70127e-10 -2.82433e-11 -2.06775e-10 
4.47306e-09 -7.43895e-10 -3.57873e-09 -1.21218e-09 1.54069e-09 -2.71622e-09 -1.54575e-09 -2.48416e-09 -2.28788e-09 
1.53874e-09 -3.21348e-09 -2.69315e-09 6.05671e-09 3.51623e-09 -3.24141e-09 8.45963e-10 2.01585e-09 -4.32452e-09 
5.69408e-09 -5.08301e-09 -7.45902e-09 -2.99249e-09 -7.08068e-10 9.14983e-10 -3.52779e-10 -2.74791e-09 -3.12607e-10 
-4.94435e-10 4.18809e-10 -1.33662e-09 2.18147e-09 -1.12148e-09 -2.26937e-09 1.10372e-09 -1.68046e-09 -3.17991e-09 
7.98145e-10 -1.94665e-09 -2.03893e-09 -1.4589e-09 -4.77635e-10 -6.9868e-10 3.65809e-09 -1.10208e-09 -3.68343e-09 
6.76975e-10 -1.07294e-09 -5.13939e-09 -1.8176e-09 -7.04809e-10 -3.1731e-09 -3.44166e-09 -9.52392e-10 1.15251e-09 
-2.26125e-09 -1.42199e-09 5.2972e-10 -3.76417e-09 -1.14362e-09 -1.21236e-09 2.40313e-09 4.91686e-10 -4.86437e-09 
3.99967e-09 1.52584e-09 -2.78674e-09 -6.58266e-10 -4.02722e-10 -3.73251e-09 3.19318e-09 1.0284e-09 -6.64769e-09 
-1.73492e-09 -1.6754e-09 -4.80968e-09 -5.52955e-09 1.40109e-09 -5.48857e-09 -2.63902e-09 -9.28393e-10 -3.37555e-09 
1.00076e-09 6.2121e-10 -1.59035e-10 3.98773e-09 3.3243e-09 -1.4906e-09 -3.35302e-09 -4.83421e-09 1.74308e-09 
3.2063e-09 -1.08368e-09 9.33994e-10 1.48475e-10 5.33982e-09 -2.24909e-09 2.59325e-11 -1.5251e-09 2.94505e-09 
-2.6639e-09 -3.31317e-09 3.24376e-09 1.88108e-10 -6.68003e-10 7.76036e-09 -4.05211e-09 -1.57273e-09 1.19229e-09 
5.93024e-09 1.28843e-09 -3.11578e-09 1.5118e-09 -5.23021e-09 -3.22942e-09 1.32059e-09 1.60796e-09 2.04527e-09 
-7.60709e-10 -9.20046e-10 3.83939e-09 -4.097e-10 1.23857e-09 1.7615e-10 3.48134e-09 -2.38638e-09 -6.47288e-09 
2.72238e-09 -2.47916e-09 2.5179e-09 6.62521e-09 9.83167e-11 -4.5773e-09 -3.33919e-09 -3.79596e-09 3.39657e-09 
3.40117e-10 1.48949e-09 6.68097e-10 5.7327e-09 -1.59631e-09 -3.98049e-09 1.20356e-09 -1.53707e-09 -2.2474e-09 
-6.8106e-09 -1.13342e-09 -5.28309e-09 -8.56674e-10 -1.12964e-10 -5.28949e-09 4.15359e-10 4.85083e-09 6.88492e-09 
-5.66973e-09 2.40096e-09 1.25611e-08 -4.54202e-09 3.1976e-09 3.03334e-09 4.10481e-09 -1.6302e-09 1.00741e-10 
-1.70734e-09 -3.20202e-09 4.82625e-09 -1.96117e-09 -6.62407e-09 9.91706e-09 5.36211e-13 3.64126e-09 3.09107e-09 
-1.49381e-09 7.97697e-10 6.5247e-09 -4.46916e-09 6.00867e-09 1.90252e-08 -2.7875e-09 4.56364e-09 2.17741e-08 
-2.40078e-09 4.62555e-09 1.09661e-08 -2.2829e-10 -2.92354e-09 8.6158e-09 -1.60669e-09 -3.69253e-09 1.60844e-08 
-2.19194e-09 -4.94033e-09 7.50126e-09 -2.87285e-09 -9.64175e-10 1.1424e-08 -5.74919e-10 2.9294e-09 3.96722e-09 
-4.42686e-09 -2.43756e-09 1.20991e-08 -2.88628e-09 -1.19372e-09 8.57679e-09 -4.01038e-09 7.68791e-10 1.5875e-08 
-1.26648e-09 2.26945e-09 4.11184e-09 -1.79672e-09 7.74892e-10 1.32088e-08 -7.73579e-09 7.32344e-09 7.40141e-09 
-3.5626e-09 2.92436e-09 1.33618e-08 -2.8639e-09 4.00478e-10 1.34011e-08 -2.83553e-09 -8.68897e-10 2.85941e-09 
2.20118e-09 5.76216e-09 6.47258e-09 -3.10185e-09 3.55671e-09 7.77145e-09 -4.62813e-09 3.04707e-09 -5.42769e-10 
-2.13451e-09 -1.57603e-09 -5.586e-09 -2.3005e-09 -6.18448e-09 2.49213e-08 -4.0117e-09 2.67279e-09 2.28639e-08 
-4.99187e-09 -6.6236e-09 2.32326e-08 3.29516e-09 -1.60728e-09 3.47001e-08 2.14826e-09 6.37955e-09 2.73188e-08 
-6.39826e-09 -1.86728e-09 2.15898e-08 2.22744e-09 -2.38127e-09 3.2707e-08 -9.54239e-10 -7.54145e-09 2.13574e-08 
7.07225e-10 -3.59281e-09 2.16544e-08 -2.11982e-09 5.65678e-09 2.87543e-08 4.61476e-09 -1.70093e-09 1.61478e-08 
4.60236e-09 1.97997e-09 2.62988e-08 -8.56252e-10 -8.67498e-09 2.26737e-08 -1.28393e-10 -2.86863e-09 1.41327e-08 
-4.31386e-09 1.97017e-10 1.92649e-08 -1.41798e-09 3.91208e-09 2.78933e-08 -3.55529e-09 1.17782e-09 2.81456e-08 
4.70485e-10 3.92021e-09 2.35695e-08 4.08691e-09 7.32566e-09 1.31783e-08 -1.68355e-09 -3.22173e-09 1.38701e-08 
-2.15286e-09 -8.36834e-11 1.20443e-08 -3.82528e-09 -4.53778e-10 2.64582e-08 3.61468e-09 4.91844e-09 1.54518e-08 
1.07246e-09 3.43646e-09 1.54628e-08 9.28551e-10 5.03821e-09 1.17223e-08 8.81868e-10 -4.08618e-09 3.1334e-08 
-7.86294e-10 2.82771e-09 2.4449e-08 -2.03973e-09 1.33124e-09 1.60441e-08 -4.9975e-09 -4.58316e-10 2.14005e-08 
-1.7715e-09 1.41658e-09 1.96161e-08 1.1226e-09 -5.22518e-09 2.63871e-08 -1.17214e-09 -2.56657e-09 4.05264e-08 
9.30229e-10 4.70255e-09 3.28663e-08 -5.82859e-09 -2.91911e-09 3.18378e-08 -3.12292e-09 -2.13261e-09 3.47884e-08 
-1.89399e-09 4.74206e-09 4.71056e-08 3.15039e-09 -1.16395e-08 4.57959e-08 -2.27272e-09 7.3986e-09 4.32995e-08 
1.34294e-09 2.24842e-09 4.2412e-08 -8.1818e-09 -7.58765e-09 2.71992e-08 -6.13847e-09 -4.95804e-10 4.37361e-08 
-2.58882e-09 -4.83688e-09 1.97516e-08 3.29492e-09 8.49576e-10 3.66415e-08 3.22595e-09 5.02822e-11 2.9172e-08 
9.80751e-09 -3.67117e-09 3.99828e-08 -3.01752e-09 -4.24941e-09 2.88937e-08 -6.46565e-09 -5.38997e-09 3.26755e-08 
6.11003e-10 -8.67334e-09 3.58224e-08 -3.82701e-10 -1.92959e-09 3.71095e-08 1.1182e-08 1.80354e-09 2.30024e-08 
4.62456e-09 -6.66973e-09 2.21741e-08 -1.30112e-08 -6.88807e-09 3.81737e-08 -1.68418e-09 -5.67213e-09 3.44825e-08 
1.70508e-09 -4.15063e-09 2.74245e-08 -2.21307e-09 -3.0889e-09 3.75541e-08 2.41354e-09 4.15676e-10 4.66156e-08 
-7.14934e-09 7.99991e-09 3.40887e-08 4.18469e-09 -2.22438e-09 3.40754e-08 -6.18359e-09 -2.42636e-09 4.63898e-08 
-1.68161e-09 3.44262e-09 4.9225e-08 6.49613e-09 7.75823e-09 4.73611e-08 2.61039e-09 -6.63693e-09 4.02203e-08 
3.91571e-09 -3.83888e-09 3.82785e-08 3.43451e-09 1.17279e-08 2.73377e-08 -2.51387e-09 5.30886e-09 4.35825e-08 
-4.3418e-09 8.44179e-09 3.31227e-08 7.54419e-09 1.87838e-09 3.74493e-08 
radius 1 167 double
0.0001 0.0001 0.0001 0.0001 0.0001 0.0001 0.0001 0.0001 0.0001 
0.0001 0.0001 0.0001 0.0001 0.0001 0.0001 0.0001 0.0001 0.0001 
0.0001 0.0001 0.0001 0.0001 0.0001 0.0001 0.0001 0.0001 0.0001 
0.0001 0.0001 0.0001 0.0001 0.0001 0.0001 0.0001 0.0001 0.0001 
0.0001 0.0001 0.0001 0.0001 0.0001 0.0001 0.0001 0.0001 0.0001 
0.0001 0.0001 0.0001 0.0001 0.0001 0.0001 0.0001 0.0001 0.0001 
0.0001 0.0001 0.0001 0.0001 0.0001 0.0001 0.0001 0.0001 0.0001 
0.0001 0.0001 0.0001 0.0001 0.0001 0.0001 0.0001 0.0001 0.0001 
0.0001 0.0001 0.0001 0.0001 0.0001 0.0001 0.0001 0.0001 0.0001 
0.0001 0.0001 0.0001 0.0001 0.0001 0.0001 0.0001 0.0001 0.0001 
0.0001 0.0001 0.0001 0.0001 0.0001 0.0001 0.0001 0.0001 0.0001 
0.0001 0.0001 0.0001 0.0001 0.0001 0.0001 0.0001 0.0001 0.0001 
0.0001 0.0001 0.0001 0.0001 0.0001 0.0001 0.0001 0.0001 0.0001 
0.0001 0.0001 0.0001 0.0001 0.0001 0.0001 0.0001 0.0001 0.0001 
0.0001 0.0001 0.0001 0.0001 0.0001 0.0001 0.0001 0.0001 0.0001 
0.0001 0.0001 0.0001 0.0001 0.0001 0.0001 0.0001 0.0001 0.0001 
0.0001 0.0001 0.0001 0.0001 0.0001 0.0001 0.0001 0.0001 0.0001 
0.0001 0.0001 0.0001 0.0001 0.0001 0.0001 0.0001 0.0001 0.0001 
0.0001 0.0001 0.0001 0.0001 0.0001 
omega 3 167 double
-0.183986 0.71012 -0.428176 0.759925 -0.552538 -0.341403 -0.0379825 0.031877 -0.00135925 
0.225045 0.0472036 0.42325 -0.00388704 0.0724286 -0.260963 0.0509254 -0.201663 -0.253419 
-0.102421 0.0217276 0.241477 -1.14324 -0.431111 -0.146034 -0.22644 0.191743 0.322403 
-0.0484089 -0.161885 -0.282605 -0.0761832 -0.0990069 -0.14407 0.228152 0.0387769 -0.0197293 
0.003929 0.0953038 0.205596 0.0428774 -0.935402 -0.502669 0.0437862 -0.206712 0.00895487 
-0.350993 -0.0963876 -0.952185 -0.555545 -0.050058 -0.429355 0.432314 0.0303342 0.848755 
0.110895 0.047622 0.207778 -0.0499424 -0.407389 -0.129349 0.0488667 0.225588 0.137964 
0.0483718 0.439906 -0.148258 0.0148575 0.107971 -0.0220026 0.35888 -0.0876577 -0.119228 
-0.111841 -0.305214 -0.0402308 -0.357073 0.696085 0.351352 0.0481015 -0.112884 0.155701 
0.0899336 0.0144087 -0.35727 0.0907865 -0.0971228 -0.0594601 0.496531 0.414381 0.240657 
-0.0118734 -0.0359411 0.204265 -0.167334 -0.298844 0.433872 0.375105 0.123977 -0.223242 
0.0372567 -0.0442491 -0.217976 1.6377 -0.249279 0.0391763 -0.195628 -0.192047 0.0897925 
0.0021429 -0.423292 -0.251172 -0.0316185 0.128235 -0.245501 0.115553 -0.176627 -0.285935 
-0.250434 0.0903218 0.363459 -0.355702 -0.0104214 -0.78642 -0.133325 0.00182717 0.252211 
0.151823 -0.0121499 0.128539 0.0529128 0.16496 0.00108625 -0.29441 -0.815211 0.237342 
0.596981 -0.0886163 -2.24959 1.0454 -0.0744634 0.310882 -0.468301 0.150934 0.00966938 
-0.453376 -0.386143 -0.0679065 0.3197 0.217215 0.419364 0.105913 -0.104899 0.254187 
-0.0390226 -0.0857124 -0.116615 0.0234554 0.272717 0.695875 0.379879 0.0260313 -0.332628 
0.36978 0.197743 -0.392209 -0.0654834 0.501268 -0.0297626 -0.91469 0.24804 0.280144 
-0.282464 -0.427211 0.209406 -0.325616 -0.0662802 0.533915 0.541911 -0.522937 -0.141596 
0.244134 0.492804 0.0965815 0.361841 -0.163098 0.106705 -0.146604 -0.272985 -0.477558 
0.11586 -0.0463792 0.351088 0.377527 0.116381 0.0810253 -0.23361 -0.117797 0.306065 
0.648198 -0.038686 -0.191512 -0.159794 -0.122421 -0.0719153 0.14945 0.241938 -0.0803563 
0.420695 0.646398 -0.0848959 -0.614459 -0.128398 -0.248588 -0.406209 0.406235 0.750399 
-0.235348 0.194628 -0.321631 0.107861 -0.256817 0.608453 0.4361 0.032988 0.0519581 
0.0734598 -0.347946 0.212157 -0.485224 -0.0295244 0.289893 0.942293 -0.432971 -0.715084 
-0.618834 0.155332 0.659843 0.296148 0.662612 -0.174981 -0.336434 0.0278433 0.0472404 
-0.325818 -0.380938 0.251379 -0.493017 -0.34475 0.184576 -0.373995 0.0697766 -0.160725 
-0.172314 0.128922 0.234093 -0.114655 -0.159969 -0.253146 0.815692 0.38393 -0.207391 
0.171189 0.160074 0.0703097 -0.490448 -0.0440472 -0.264824 -0.16314 -0.172604 0.036989 
-0.0276277 0.163088 0.386116 -0.201517 -0.539206 0.0267052 -0.872233 0.813789 -0.483281 
-0.221381 0.0205308 0.0405206 0.192191 0.763044 0.364397 0.468818 0.0564519 0.323068 
0.00356258 0.175001 -0.769847 -0.264915 0.453911 -0.394594 0.305612 -0.351609 -0.255724 
0.926831 -0.201239 -0.101851 0.174146 -0.0387698 -0.803662 -1.14707 0.442699 -0.553361 
-0.215204 -0.190393 -0.249404 -0.0111232 0.0452817 0.488505 -1.35556 -0.33628 0.675897 
-0.399852 -0.263508 -1.23236 -0.249588 0.337703 -0.997084 0.186018 0.275707 0.0473882 
0.483761 -0.403772 -0.514792 -0.387408 -0.166122 -0.186064 -0.697226 -0.616279 -0.647765 
0.493154 0.64209 0.674744 -0.200133 0.641224 0.408066 0.0952691 -0.0946481 -0.186435 
0.151645 0.171316 0.21006 -0.0847178 -0.305236 0.291644 -0.216202 -0.359792 0.152317 
0.245039 -0.114187 -0.458063 0.0177035 0.208395 -0.253369 -1.66443 -0.185517 -1.35126 
0.842219 -0.348007 0.943559 -0.427221 -1.39637 0.214859 -0.12796 -0.0399472 -0.374613 
0.319323 -0.726725 0.0256372 -0.489566 0.0381786 0.462263 -0.828459 0.286942 0.300803 
-1.58055 -0.0948533 -0.308939 -0.326381 0.329745 1.16583 0.330097 -0.0120812 -0.564337 
0.072193 -0.155787 0.11188 -0.555434 -0.051289 -0.262705 -0.241532 0.606582 -0.0454088 
0.97277 -0.0969951 0.753414 -0.0391772 -0.341095 0.186003 -0.383978 0.373777 -0.81538 
1.06076 0.417094 0.0480355 -0.388359 1.25065 0.90217 -1.21421 -2.01428 0.236906 
0.400072 -0.298813 0.365716 0.253439 -0.115581 0.240193 0.648289 0.283281 0.648108 
1.34112 -0.269934 1.66 0.914949 0.614401 0.481719 -0.988408 0.882419 0.0101203 
0.657782 -0.959498 -0.279054 0.511259 1.07368 0.36029 -0.498069 -2.36654 -0.619353 
0.425917 0.127423 -0.403525 0.572204 0.392805 -0.333543 -0.761241 0.0297133 0.398532 
3.20269 -1.07277 -0.93229 -0.841349 -1.43171 0.0688355 0.334456 -0.717408 -0.158093 
1.17072 0.994793 -0.142899 -0.442902 -1.11315 0.501051 1.48569 0.705057 -0.59679 
0.814068 0.131967 0.0953817 0.997327 0.866215 -0.594545 1.58131 0.810135 -0.373928 
-0.350156 -0.0120184 0.659957 -0.0776251 1.15132 -1.29569 -0.0952651 0.0213719 -0.154775 
-0.127986 -0.305876 0.129409 0.161775 1.0821 0.0932194 -0.941272 -0.668825 0.219059 
0.789681 0.329739 -0.149425 -2.23843 -1.50319 0.112008 
