# vtk DataFile Version 4.0
Generated by LIGGGHTS
ASCII
DATASET POLYDATA
POINTS 167 float
-0.000466579 -0.000421991 9.99705e-05 -0.000342022 -0.000459133 0.000262327 -0.000275461 -0.00036306 9.99714e-05 
-0.000140134 -0.000320724 0.000241018 -9.57292e-05 -0.00045511 9.9842e-05 4.80385e-05 -0.000417051 0.000233502 
0.000196946 -0.000390598 9.99341e-05 0.000384704 -0.00038722 0.000248241 -0.000443197 -0.000286704 0.000264668 
-0.000380595 -0.000192587 9.98244e-05 -0.000180715 -0.000185104 9.98437e-05 -0.000281873 -0.00015672 0.000269849 
-3.54396e-06 -0.000277682 9.98318e-05 6.34176e-05 -0.000192952 0.000267973 0.000177039 -0.000191664 9.9867e-05 
0.000299014 -0.000200802 0.000257891 0.000474181 -0.000110147 0.000220245 0.000408396 -0.000255464 9.98024e-05 
-0.000477731 4.20193e-05 9.98643e-05 -0.000380744 1.69647e-05 0.000272838 -0.000285643 -1.48939e-05 9.99088e-05 
-0.000104339 -5.619e-05 0.000232235 -0.000102328 9.36835e-05 9.98809e-05 4.4884e-05 -4.16305e-05 9.99097e-05 
3.90737e-05 9.91961e-05 0.000241684 0.000185638 -3.6776e-05 0.000242468 0.000324132 -5.61915e-05 9.97929e-05 
0.000363485 5.4426e-05 0.000261626 -0.000332562 0.000179473 9.98501e-05 -0.000485722 0.000184605 0.000244356 
-0.0002187 0.000133095 0.000257524 -0.000170207 0.000296582 9.9903e-05 -6.8961e-05 0.000265059 0.000269353 
3.39276e-05 0.000240073 9.98355e-05 0.000181881 0.000104076 9.99699e-05 0.000129638 0.000288025 0.000268618 
0.000343759 0.000287221 0.000263187 0.000370219 0.0001719 9.99522e-05 -0.000324805 0.000302581 0.000257061 
-0.000323903 0.000425882 9.98251e-05 -0.000494887 0.000322236 9.97928e-05 -0.000174139 0.000433468 0.000246054 
7.21699e-05 0.00043631 9.9873e-05 0.0002326 0.000316989 9.98011e-05 0.00021902 0.00046367 0.00023498 
0.000366553 0.00046646 9.99694e-05 0.000485123 0.000440263 0.000259819 -0.0004833 -0.000424613 0.000403699 
-0.000276031 -0.000318016 0.000387624 -0.000166029 -0.000480426 0.000426257 -1.80855e-05 -0.00032702 0.000399267 
0.000108899 -0.000457919 0.000481242 0.000208331 -0.000359754 0.000338319 -0.000435309 -0.000136528 0.000396419 
-9.58962e-05 -0.00015242 0.000457786 0.000150933 -0.00020229 0.000447404 0.000407072 -0.000257852 0.000416016 
-0.000233107 -1.62235e-05 0.000403392 5.05352e-05 -3.46837e-05 0.000389702 0.000294203 -6.82562e-05 0.000407402 
-0.000353011 0.000167423 0.000401552 -0.000202042 0.000297834 0.00041478 -8.19153e-05 0.000114584 0.000402142 
4.58936e-05 0.000261259 0.0004481 0.000203383 0.000125254 0.00035823 0.000452587 0.000127095 0.000425541 
-0.000363368 0.000415934 0.00041707 -7.44475e-07 0.000432141 0.000355324 0.000241016 0.000306581 0.000433619 
0.000337515 0.000484994 0.000394588 0.000457454 0.000327487 0.000422577 -0.00033577 -0.000430326 0.000541751 
-0.000155902 -0.000320813 0.00054739 -5.55873e-05 -0.00048769 0.000592766 4.60246e-05 -0.000300144 0.000586729 
0.000284491 -0.000372574 0.000524507 0.00016551 -0.000436647 0.000671839 0.000494006 -0.000332621 0.00057978 
0.000364193 -0.000425566 0.000700164 -0.00033333 -0.000284643 0.000678584 -0.000415387 -0.000102354 0.000680774 
-0.000284108 -0.000169364 0.000522844 -2.63968e-05 -0.000122455 0.000642847 0.000266716 -0.000192697 0.000610075 
0.000434471 -0.000105623 0.000544927 -0.000409942 1.76788e-05 0.000520998 -0.000148869 2.26368e-05 0.000580392 
0.000141039 -4.29922e-05 0.000567815 0.000289872 8.62143e-05 0.000534172 0.000451561 7.8888e-05 0.000651528 
-0.000403532 0.000280434 0.000558516 -0.000305834 0.000118707 0.000658556 -0.000145446 0.000222294 0.000591038 
2.59566e-05 0.000119347 0.00058748 0.000190255 0.000213499 0.000651719 0.000379305 0.000255504 0.000591879 
-0.000225876 0.000407156 0.00058038 9.55459e-05 0.000381673 0.000599721 0.000287911 0.000433038 0.000581202 
0.000491511 0.00046211 0.000566504 -0.000466636 -0.000377389 0.000795197 -0.000261865 -0.000386422 0.000835127 
-9.22187e-05 -0.000351421 0.000734421 0.000220569 -0.000462089 0.000882144 -0.000323042 -0.000195008 0.000856997 
-0.000216757 -0.000120322 0.000704561 -0.000133794 -0.000244672 0.000898281 5.3413e-05 -0.000227544 0.000792997 
0.000243153 -0.000289832 0.000783223 0.000200667 -0.000110561 0.000860891 0.000426813 -0.000215951 0.000727604 
-0.000321104 3.87635e-06 0.000821515 -7.02766e-05 -6.77881e-05 0.000830062 8.96396e-05 2.16631e-05 0.00074994 
0.000284323 -1.7554e-05 0.000704944 0.00028429 6.94317e-05 0.000884988 0.000450622 -3.73229e-05 0.000814182 
-0.000441794 0.000162915 0.000798325 -0.000269697 0.000297029 0.000741365 -0.00011271 0.000112732 0.00075517 
-2.144e-05 0.00028923 0.000732908 0.000148389 0.000212948 0.000847171 0.000347324 0.000232411 0.000787874 
-0.000351631 0.000478029 0.000718691 -0.000496734 0.000340568 0.000724837 -0.000422947 0.000441148 0.000901737 
-0.000139709 0.000312046 0.000892537 -0.000156685 0.000461 0.000759994 3.98953e-05 0.000469079 0.000795533 
0.000215276 0.000379891 0.000759771 0.00038218 0.000422074 0.000861416 -0.000447601 -0.000383195 0.000994132 
-0.000256696 -0.00033428 0.0010281 -8.79095e-05 -0.000438754 0.000918683 8.13457e-05 -0.000339316 0.000956369 
-9.76852e-05 -0.000487181 0.00111243 0.000361522 -0.000463387 0.00102399 -0.000468366 -0.000222744 0.00111164 
-6.77189e-05 -0.000291963 0.00108099 4.15103e-05 -0.000144476 0.000977044 0.000241191 -0.000244597 0.0010302 
0.000396693 -0.000288909 0.000911328 -0.000437745 -8.06929e-05 0.000974275 -0.000352925 8.461e-05 0.00104819 
-0.000212322 -7.29187e-05 0.000970682 6.62589e-06 9.28204e-05 0.000920898 -5.66357e-05 -6.05349e-06 0.0010828 
0.000357243 -8.86701e-05 0.000983338 0.000466637 9.54853e-05 0.000962766 -0.000330862 0.000265753 0.000929143 
-0.000190039 0.000124114 0.000939177 -1.38614e-05 0.000207655 0.00108331 0.000166885 0.000137864 0.00103168 
0.000280981 0.00029177 0.000974364 0.00047999 0.000292569 0.000993826 -0.000407703 0.000452423 0.00110078 
-0.00024274 0.000454931 0.000987208 4.70308e-05 0.000347888 0.000954396 9.77761e-05 -0.000446535 0.00112435 
0.000366588 -0.000322047 0.00116534 -0.00032024 -9.10375e-05 0.00113803 0.000463637 -9.42787e-06 0.00113299 
-0.000358522 0.000262483 0.00113935 -0.000187134 0.000129417 0.0011506 0.000349175 0.000161941 0.00111032 
-0.000169876 0.000326582 0.0011221 0.000161547 0.000364055 0.00111753 
VERTICES 167 334
1 0 
1 1 
1 2 
1 3 
1 4 
1 5 
1 6 
1 7 
1 8 
1 9 
1 10 
1 11 
1 12 
1 13 
1 14 
1 15 
1 16 
1 17 
1 18 
1 19 
1 20 
1 21 
1 22 
1 23 
1 24 
1 25 
1 26 
1 27 
1 28 
1 29 
1 30 
1 31 
1 32 
1 33 
1 34 
1 35 
1 36 
1 37 
1 38 
1 39 
1 40 
1 41 
1 42 
1 43 
1 44 
1 45 
1 46 
1 47 
1 48 
1 49 
1 50 
1 51 
1 52 
1 53 
1 54 
1 55 
1 56 
1 57 
1 58 
1 59 
1 60 
1 61 
1 62 
1 63 
1 64 
1 65 
1 66 
1 67 
1 68 
1 69 
1 70 
1 71 
1 72 
1 73 
1 74 
1 75 
1 76 
1 77 
1 78 
1 79 
1 80 
1 81 
1 82 
1 83 
1 84 
1 85 
1 86 
1 87 
1 88 
1 89 
1 90 
1 91 
1 92 
1 93 
1 94 
1 95 
1 96 
1 97 
1 98 
1 99 
1 100 
1 101 
1 102 
1 103 
1 104 
1 105 
1 106 
1 107 
1 108 
1 109 
1 110 
1 111 
1 112 
1 113 
1 114 
1 115 
1 116 
1 117 
1 118 
1 119 
1 120 
1 121 
1 122 
1 123 
1 124 
1 125 
1 126 
1 127 
1 128 
1 129 
1 130 
1 131 
1 132 
1 133 
1 134 
1 135 
1 136 
1 137 
1 138 
1 139 
1 140 
1 141 
1 142 
1 143 
1 144 
1 145 
1 146 
1 147 
1 148 
1 149 
1 150 
1 151 
1 152 
1 153 
1 154 
1 155 
1 156 
1 157 
1 158 
1 159 
1 160 
1 161 
1 162 
1 163 
1 164 
1 165 
1 166 

POINT_DATA 167
FIELD FieldData 7
id 1 167 int
4 46 28 51 7 18 9 20 44 
19 27 47 1 29 11 34 40 15 
3 42 14 30 24 10 23 38 26 
49 12 32 35 25 37 13 16 31 
45 2 33 17 21 36 8 5 22 
6 39 63 62 58 54 77 41 52 
67 73 56 53 55 61 60 75 64 
68 43 57 71 48 69 50 59 90 
65 94 89 72 96 86 106 97 88 
76 99 81 87 66 79 85 74 101 
84 102 80 92 93 78 91 83 82 
70 131 126 105 124 118 104 125 112 
110 114 98 109 116 119 100 130 111 
120 115 123 95 122 107 113 103 138 
129 108 132 117 133 146 151 144 139 
161 142 162 158 147 150 134 121 149 
135 127 152 137 140 128 136 155 143 
141 145 159 153 148 156 165 160 154 
166 157 163 164 167 
type 1 167 int
1 1 1 1 1 1 1 1 1 
1 1 1 1 1 1 1 1 1 
1 1 1 1 1 1 1 1 1 
1 1 1 1 1 1 1 1 1 
1 1 1 1 1 1 1 1 1 
1 1 1 1 1 1 1 1 1 
1 1 1 1 1 1 1 1 1 
1 1 1 1 1 1 1 1 1 
1 1 1 1 1 1 1 1 1 
1 1 1 1 1 1 1 1 1 
1 1 1 1 1 1 1 1 1 
1 1 1 1 1 1 1 1 1 
1 1 1 1 1 1 1 1 1 
1 1 1 1 1 1 1 1 1 
1 1 1 1 1 1 1 1 1 
1 1 1 1 1 1 1 1 1 
1 1 1 1 1 1 1 1 1 
1 1 1 1 1 1 1 1 1 
1 1 1 1 1 
i 3 167 int
1 1 0 0 1 0 0 1 0 
0 0 0 0 1 0 0 0 0 
-1 0 0 0 0 0 0 1 0 
0 0 0 0 0 0 0 0 0 
0 0 0 0 0 0 -1 0 0 
0 0 0 0 0 0 -1 0 0 
0 0 0 0 0 0 0 0 0 
0 0 0 1 0 0 0 0 0 
0 0 0 0 0 0 -1 0 0 
0 0 0 0 0 0 0 0 0 
0 0 0 1 0 0 0 0 0 
0 0 0 0 0 0 0 0 0 
0 0 0 0 0 0 0 0 0 
0 -1 0 1 -1 0 0 -1 0 
0 -1 0 0 0 0 0 0 0 
0 -1 0 0 0 0 0 1 0 
1 0 0 0 0 0 0 0 0 
0 0 0 0 0 0 0 0 0 
0 0 0 0 0 0 0 0 0 
0 0 0 0 0 0 0 0 0 
0 0 0 0 0 0 0 0 0 
0 0 0 0 0 0 0 0 0 
0 0 0 0 0 0 0 0 0 
0 -1 0 0 0 0 0 0 0 
0 0 0 0 0 0 0 0 0 
0 0 0 0 0 0 0 0 0 
-1 0 0 0 0 0 0 0 0 
0 0 0 0 0 0 0 0 0 
0 0 0 0 0 0 0 0 0 
0 0 0 0 0 0 0 0 0 
0 0 0 0 0 0 0 0 0 
0 0 0 0 0 0 0 0 0 
0 0 0 0 0 0 0 -1 0 
-1 -1 0 0 0 0 0 0 0 
0 0 0 0 0 0 0 0 0 
0 0 0 0 0 0 0 0 0 
0 0 0 0 0 0 -1 0 0 
0 0 0 0 0 0 0 0 0 
0 0 0 0 0 0 0 0 0 
0 0 0 0 0 0 0 0 0 
0 0 0 0 0 0 0 0 0 
0 -1 0 1 0 0 0 0 0 
0 0 0 0 0 0 0 -1 0 
0 0 0 0 0 0 0 0 0 
0 0 0 0 1 0 0 0 0 
0 0 0 0 0 0 1 0 0 
0 0 0 0 0 0 0 0 0 
0 0 0 1 0 0 0 0 0 
0 0 0 0 0 0 0 0 0 
0 0 0 -1 0 0 0 0 0 
0 0 0 0 0 0 0 0 0 
0 0 0 0 -1 0 0 -1 0 
0 0 0 0 0 0 0 0 0 
0 0 0 0 0 0 0 0 0 
0 0 0 0 0 0 0 0 0 
0 0 0 0 0 0 
v 3 167 double
-5.54381e-06 -1.55471e-05 -1.21825e-05 -4.44384e-05 -7.75551e-05 0.000301071 1.40398e-05 -3.8195e-05 9.3125e-06 
-1.87681e-05 -7.31643e-05 0.000230289 3.58142e-05 1.86173e-05 0.00016206 4.32686e-05 1.58081e-05 0.000200814 
0.000140583 1.58661e-05 4.91722e-05 -5.24136e-06 1.9262e-06 0.000200756 -3.72959e-05 -3.13561e-05 0.000332789 
-2.60671e-05 -5.06631e-05 0.000147685 -6.27628e-06 -2.12903e-05 0.00012673 -1.00588e-05 -6.1281e-05 0.000254213 
5.49645e-05 1.38787e-05 0.000120966 0.000113028 6.72017e-05 0.000245565 3.18895e-05 8.60152e-06 5.88968e-05 
6.94181e-05 -7.07999e-06 0.000178935 2.59396e-05 4.54377e-06 0.000175716 4.54537e-05 -4.184e-05 0.000105788 
4.16111e-05 -2.14151e-05 8.11468e-05 4.34306e-05 -1.44554e-05 0.000186023 3.50129e-05 -1.57271e-05 8.94162e-05 
4.99895e-05 -2.97813e-06 6.39618e-05 -3.22738e-06 2.05691e-05 7.17712e-05 -1.97705e-06 -2.00943e-05 4.6074e-05 
-2.45352e-05 -6.018e-05 0.000180805 6.7938e-05 2.98102e-05 0.000201812 1.11328e-05 2.13994e-05 6.38236e-05 
6.72431e-05 -4.1368e-05 9.37535e-05 -9.33131e-06 7.94401e-06 0.000136903 1.38838e-05 -2.39705e-05 0.000208012 
-4.90594e-08 1.91216e-05 0.000203366 -2.15409e-05 1.99859e-05 9.2432e-05 2.6725e-06 -1.10385e-05 0.000225852 
3.08514e-06 -2.39085e-05 0.000122272 0.000101341 -5.56117e-05 -1.3516e-05 5.33273e-05 3.20643e-05 0.000200894 
3.6846e-05 1.13869e-05 0.000201061 1.39341e-05 -2.06212e-06 5.9184e-05 -6.99479e-06 2.31849e-05 0.000304295 
3.92201e-05 3.96401e-05 0.000132175 -1.92998e-05 5.08637e-05 0.000145166 3.26241e-05 -7.30179e-06 0.000338404 
5.53323e-05 3.36658e-06 0.000103704 3.68096e-05 1.43367e-05 9.81068e-05 2.14449e-05 5.23403e-05 0.000146817 
3.01709e-05 -9.68496e-06 -2.03395e-05 6.57154e-06 4.0859e-05 0.00029712 -5.07779e-05 -3.91753e-05 0.000506646 
-4.74746e-05 -0.00011406 0.000412941 3.30825e-05 -9.18426e-05 0.000503758 -6.13961e-05 -7.3457e-05 0.00029282 
2.16972e-05 -2.37344e-05 0.000339594 2.12999e-05 1.51227e-05 0.000231102 3.63033e-05 -5.81685e-05 0.000364528 
-3.17956e-05 -8.87243e-05 0.000467026 4.49727e-06 -2.77992e-05 0.00043014 -5.99186e-05 7.95332e-07 0.000397767 
-1.36402e-05 8.83838e-05 0.000343125 -4.67966e-06 -7.79913e-05 0.00028623 8.93661e-05 -1.31992e-05 0.000277681 
7.70834e-06 -5.38429e-05 0.00032621 6.13622e-06 -9.34168e-05 0.000436758 3.32756e-05 -1.62766e-05 0.000219034 
5.31996e-06 -2.05245e-05 0.0003463 0.000101109 5.4759e-05 0.000224293 2.64503e-05 -9.17637e-05 0.000285671 
3.24274e-05 -2.92998e-05 0.000480112 4.68871e-05 -2.42137e-05 0.000243412 9.04528e-05 0.000116489 0.000248949 
-7.91383e-05 9.64648e-05 0.000293136 -2.86877e-05 5.34475e-05 0.000309982 -2.6649e-05 -6.49982e-05 0.000599168 
-0.000133692 -6.58534e-05 0.00061093 -0.000113975 -4.65478e-05 0.000587144 5.93628e-05 -7.55919e-05 0.0003284 
-6.20302e-05 3.03308e-05 0.000446321 -3.98748e-05 9.70391e-06 0.000505895 -5.81497e-05 -4.84873e-05 0.000601575 
-1.37661e-05 1.52651e-05 0.000670171 -5.70741e-05 5.37965e-06 0.000566207 -4.79642e-06 4.33724e-05 0.000654066 
-5.70248e-05 -6.12866e-05 0.000492067 -2.75988e-05 -9.15482e-05 0.000447675 1.30632e-05 -4.569e-05 0.000572756 
2.01507e-05 -8.16416e-05 0.000459337 5.75924e-05 1.15126e-05 0.000492216 -3.42651e-05 3.96119e-05 0.000550024 
-2.36373e-05 6.17888e-06 0.000489417 3.89101e-05 1.3456e-05 0.000358198 1.21085e-06 7.13441e-05 0.00049096 
0.000266738 -5.45033e-05 0.00055145 5.27947e-06 1.13699e-06 0.000751307 4.92104e-05 -4.66594e-05 0.000585806 
7.14139e-05 -4.72161e-05 0.000510168 4.34984e-05 2.72771e-05 0.000420967 7.83958e-06 6.79002e-05 0.000439518 
3.70274e-05 -0.000110382 0.000675719 -4.41104e-05 4.95243e-05 0.000476168 1.37774e-05 7.44912e-05 0.000439727 
0.000195598 -0.000160107 0.000594365 1.5503e-05 6.49623e-05 0.000772281 -2.36484e-05 0.000213195 0.00065357 
-0.00018605 -0.000104654 0.000713038 -4.98293e-05 -2.97848e-05 0.000663024 8.45465e-05 0.000236419 0.000511685 
-0.000206087 -0.000141632 0.000618863 4.91935e-05 0.000157064 0.000752977 -5.83319e-05 -8.09684e-05 0.000542886 
-1.98372e-05 -1.59496e-05 0.000672066 -2.89869e-05 2.0301e-06 0.000615301 -3.71443e-07 9.88986e-06 0.000694691 
6.30693e-05 8.51683e-06 0.00067289 -3.31624e-05 -8.03183e-05 0.000465775 0.000113329 6.26752e-05 0.000731297 
-4.86142e-06 1.24779e-05 0.000507169 -5.49294e-05 1.32597e-05 0.000549112 -8.74241e-05 6.91509e-05 0.000600422 
1.79922e-05 -9.53233e-05 0.00077013 -1.3866e-05 3.13492e-05 0.000984733 0.000102796 8.22547e-05 0.000695607 
9.74911e-06 0.000144593 0.000581796 -7.56673e-05 1.59787e-05 0.000494157 6.5979e-05 2.81507e-05 0.000492934 
2.13998e-05 3.6958e-05 0.000740071 0.000286378 -4.07865e-05 0.000715819 -7.3212e-05 8.80703e-05 0.000813268 
0.000111528 0.000163644 0.000920221 -3.19015e-05 2.69173e-05 0.000816312 -6.95154e-06 0.000157479 0.000750106 
1.00576e-05 2.73367e-05 0.000511888 -2.93135e-05 -6.59868e-05 0.000641546 0.000110303 9.9972e-05 0.0008836 
7.97482e-05 0.000242083 0.000785593 -0.000114477 0.000214327 0.000806776 -4.58038e-05 5.44524e-05 0.000645451 
-4.89956e-05 2.07111e-05 0.000817 0.000101569 1.68877e-05 0.000651099 -4.04989e-06 0.000206667 0.000641027 
5.93771e-05 4.03944e-05 0.000794532 -3.76569e-05 6.08437e-06 0.000536842 1.02626e-05 -1.63405e-05 0.00050828 
-6.85126e-05 2.18067e-06 0.000852756 7.956e-06 3.37208e-05 0.000588481 -0.000139389 -3.86877e-06 0.000502847 
9.48546e-05 1.34674e-05 0.00065297 -9.40191e-05 -5.11902e-06 0.000393147 -0.000183844 -1.00927e-05 0.000332736 
-3.95235e-05 -1.9158e-05 0.000601261 -0.000133905 -5.59317e-05 0.000686127 -0.000250688 6.73227e-05 0.0011185 
-0.000110757 1.28907e-05 0.000677477 -0.000162672 -8.03421e-05 0.000443857 -0.000127012 -0.000100159 0.000479848 
-6.7464e-05 -0.000106979 0.000624269 -9.94752e-05 -4.61645e-05 0.000809014 9.89053e-05 2.13451e-05 0.000768357 
-9.24707e-05 0.000282655 0.000782517 0.00015728 -4.20736e-05 0.000626472 -4.30377e-05 -6.22759e-05 0.000550402 
1.74537e-05 0.000164771 0.000506967 3.50627e-05 0.000141615 0.000631715 -2.94593e-05 -5.9909e-05 0.00065887 
-1.13795e-05 -3.2132e-05 0.000383532 -4.50115e-05 0.000122233 0.000131191 -0.00012876 -3.35793e-05 0.000640228 
-3.31226e-05 1.32468e-05 0.000268096 -1.27281e-05 -4.8347e-06 0.000630554 
f 3 167 double
-7.99768e-10 -8.47348e-10 7.06391e-09 -7.3874e-11 1.40456e-10 4.41412e-08 2.38853e-10 -1.67397e-09 2.68831e-09 
-6.63049e-09 -2.16073e-09 3.87629e-08 7.82541e-09 2.50655e-09 1.84158e-08 -6.37746e-10 8.78712e-09 2.78191e-08 
1.92234e-08 5.98785e-09 9.62454e-09 5.5656e-09 7.42346e-09 3.69709e-08 -1.11763e-09 6.28705e-10 4.00402e-08 
-5.41189e-09 -3.27638e-10 2.03723e-08 -1.7301e-09 2.9811e-09 2.12886e-08 -8.73434e-09 4.54569e-09 2.42648e-08 
5.00857e-09 6.83621e-09 1.94057e-08 1.74553e-08 7.08273e-09 2.78271e-08 9.61175e-09 -4.81242e-10 1.67336e-08 
1.15134e-08 7.73331e-09 3.20944e-08 3.80887e-09 -2.64568e-10 2.86667e-08 1.28583e-08 -7.13807e-10 2.31442e-08 
3.81999e-09 1.70068e-09 2.13399e-08 1.05731e-09 6.30625e-09 3.32958e-08 2.89515e-09 1.83499e-09 2.07585e-08 
-2.91401e-09 6.11637e-09 3.21184e-08 3.25653e-10 3.16563e-09 2.12213e-08 -2.37973e-09 -4.93553e-09 2.23292e-08 
6.44041e-10 -4.09928e-09 3.34103e-08 9.0894e-09 5.6588e-09 2.90697e-08 9.05883e-09 3.79296e-09 1.57866e-08 
1.22143e-08 -5.13901e-09 2.73574e-08 -1.7359e-09 3.02985e-09 1.93378e-08 7.97962e-10 7.63243e-09 3.60551e-08 
1.94069e-09 2.38349e-09 2.89479e-08 -5.87613e-09 1.55071e-09 1.90173e-08 1.17127e-09 -4.75093e-09 2.98928e-08 
-3.59045e-10 -1.19037e-09 1.99173e-08 7.59656e-10 5.56491e-10 9.34277e-09 2.68866e-09 3.27728e-09 2.52586e-08 
-9.27139e-10 5.8873e-09 2.56934e-08 5.69596e-09 3.46943e-09 1.91041e-08 6.32318e-11 4.50012e-09 2.76598e-08 
5.44615e-09 6.61946e-09 2.27679e-08 -8.91371e-09 9.29782e-09 1.83643e-08 1.06799e-08 8.61545e-09 2.74712e-08 
7.02688e-09 3.28606e-09 1.63e-08 5.11359e-10 4.11162e-09 1.66686e-08 1.26697e-09 1.51986e-08 1.5081e-08 
-5.81043e-09 5.05134e-09 1.45896e-08 -6.78457e-09 1.1351e-08 2.73298e-08 3.08793e-09 2.0102e-09 2.33675e-08 
-7.46106e-09 1.12292e-08 3.12622e-08 -1.32269e-09 9.69175e-09 2.01855e-08 -1.01283e-08 -8.45584e-10 3.69665e-08 
-2.64867e-09 3.25949e-09 2.3002e-08 4.47943e-10 3.28957e-09 2.83384e-08 1.43974e-10 -2.06813e-09 3.40981e-08 
-2.16894e-09 5.77156e-11 3.13026e-08 3.32534e-09 -5.00047e-09 3.06639e-08 7.60131e-10 -3.74181e-09 3.19764e-08 
4.68301e-09 2.66939e-10 2.41982e-08 4.10645e-09 -9.87308e-09 2.7411e-08 7.70892e-09 2.73207e-09 2.9324e-08 
7.0631e-09 5.45754e-10 2.71865e-08 2.78133e-09 -1.71526e-09 2.14329e-08 3.31363e-09 4.49276e-09 3.87705e-08 
-9.47013e-10 1.41868e-08 3.21315e-08 9.11458e-09 4.45324e-10 2.41469e-08 2.57464e-10 -5.90853e-09 2.96314e-08 
3.80394e-09 8.36068e-09 1.16005e-08 -6.8952e-10 8.62946e-10 3.01846e-08 -3.8984e-09 4.41011e-09 2.48246e-08 
-1.16999e-08 -1.29216e-09 1.86763e-08 -6.41434e-09 -5.23103e-09 1.67473e-08 6.91208e-10 1.48439e-08 2.22064e-08 
-1.13582e-08 3.62946e-09 3.09422e-08 -1.00597e-08 3.02811e-10 2.2342e-08 1.27933e-08 1.23025e-08 2.35054e-08 
-8.81121e-09 -7.55103e-09 2.37033e-08 -1.75085e-08 -8.53143e-09 1.40173e-08 -1.36638e-09 1.00318e-08 8.8778e-09 
-5.95376e-09 8.50014e-09 -7.79829e-09 -1.16539e-08 1.30121e-08 2.5134e-08 2.73974e-09 7.68365e-09 2.08112e-08 
-2.50476e-09 7.45999e-09 2.60397e-08 -2.64649e-09 1.22686e-09 1.89868e-08 -1.56182e-08 -2.79768e-09 2.52146e-08 
-4.39765e-09 -1.16224e-08 3.61862e-08 6.20253e-09 -1.4995e-09 2.90841e-08 -1.62127e-09 3.12822e-09 1.03816e-08 
-1.71948e-09 -3.33783e-09 1.56413e-08 7.36195e-10 -3.04583e-09 1.85433e-08 -3.2104e-09 6.52455e-09 2.52793e-08 
2.19004e-08 4.67493e-09 1.42839e-08 9.50357e-09 -3.73494e-09 9.76865e-09 -1.43489e-08 1.73847e-08 2.26356e-08 
-5.09403e-09 1.272e-08 1.34173e-08 -3.08627e-09 9.4792e-09 1.41907e-08 -1.98461e-08 -5.06557e-10 6.51506e-09 
4.06488e-09 1.1925e-08 8.80351e-09 -6.14353e-09 1.31881e-08 1.81018e-08 -2.33666e-08 3.18398e-09 -8.41733e-09 
9.20696e-09 -1.59218e-08 -1.06738e-08 -1.46615e-09 -1.7881e-08 3.28284e-08 -1.7091e-08 4.23563e-09 2.91557e-08 
2.19316e-09 -1.06631e-08 3.80071e-08 9.53014e-09 -3.30227e-09 4.05774e-08 -9.98846e-10 1.23329e-08 3.40484e-08 
-9.47519e-09 -1.91983e-08 3.56205e-08 -1.5226e-09 -1.2613e-08 4.09632e-08 -1.43135e-09 -4.72269e-09 2.67193e-08 
-3.6276e-09 -1.58671e-09 1.82933e-08 -2.94309e-09 2.16144e-09 2.46084e-08 6.85508e-09 -1.19854e-09 3.12841e-09 
6.17999e-09 -6.13145e-09 2.53387e-08 -7.06298e-09 -1.36448e-08 2.31918e-08 1.11249e-08 -4.92628e-09 -1.56262e-08 
-3.06516e-09 6.81187e-09 2.29602e-08 2.8512e-09 1.04847e-08 3.40226e-08 -3.31761e-10 -1.17516e-09 3.21454e-08 
1.02921e-08 6.90137e-09 1.47231e-08 1.2605e-09 1.35708e-08 2.34345e-08 1.87046e-10 -7.41261e-09 1.20894e-08 
3.215e-09 2.74813e-09 6.30774e-09 9.88078e-10 -1.67644e-09 3.69888e-08 6.90458e-09 2.09037e-08 5.62733e-09 
1.32078e-08 2.06017e-09 2.2949e-08 1.0246e-08 -5.55487e-09 7.14534e-09 9.24923e-10 -3.2527e-09 5.02176e-08 
5.87012e-09 2.44819e-08 1.46505e-08 -9.9123e-09 5.79635e-09 2.24699e-08 -4.05967e-09 3.25853e-09 3.78087e-08 
5.5558e-09 2.20944e-08 2.97357e-08 9.50641e-09 -1.23047e-08 1.97841e-08 -6.26476e-09 -8.73188e-09 7.50317e-08 
2.6786e-09 -1.24563e-08 4.93216e-08 -2.58324e-08 -9.57385e-10 5.60699e-08 -7.01385e-09 -3.3592e-09 4.81921e-08 
-7.86045e-09 8.88758e-09 1.10412e-07 1.58047e-08 -1.14128e-08 5.83881e-08 -5.93035e-09 1.03665e-08 7.66964e-08 
1.86404e-09 -5.60234e-09 6.51702e-08 -1.50824e-08 -7.56327e-09 2.82873e-08 -3.20269e-09 1.94543e-09 6.67785e-08 
4.84648e-09 9.82206e-09 -1.13937e-09 -5.3127e-09 -1.00015e-08 6.02667e-08 -1.4819e-08 2.58339e-09 6.98251e-08 
8.7203e-09 -2.6021e-09 5.79968e-08 -1.49397e-08 -5.39041e-10 4.1222e-08 -2.29335e-08 -9.3886e-09 5.39945e-08 
1.16402e-09 -5.49774e-09 3.31443e-08 -8.97724e-09 -4.29502e-09 5.30281e-08 -3.56847e-08 -2.03839e-08 3.12989e-08 
7.20208e-09 -5.93562e-09 1.55852e-08 -1.71302e-08 -1.16147e-08 6.29605e-08 -1.60113e-08 -3.78555e-09 6.15754e-08 
5.17578e-09 -1.27618e-08 4.05107e-08 -8.65376e-09 -8.43618e-09 6.2023e-08 1.18116e-08 2.21473e-08 1.08053e-07 
-1.74095e-08 2.36672e-08 7.173e-08 1.52672e-08 5.89795e-09 5.57293e-08 -1.67164e-08 -5.89823e-09 9.14454e-08 
-7.19578e-09 3.78276e-09 9.43549e-08 8.04636e-09 8.37374e-09 9.00108e-08 -1.04121e-08 -9.68564e-09 5.45334e-08 
1.1372e-09 -3.1599e-10 1.10621e-07 -4.83371e-09 7.64319e-09 8.10986e-08 -1.6889e-08 -2.549e-09 6.24314e-08 
1.70785e-09 6.29311e-09 8.47444e-08 5.89021e-09 -6.24789e-09 7.36155e-08 
radius 1 167 double
0.0001 0.0001 0.0001 0.0001 0.0001 0.0001 0.0001 0.0001 0.0001 
0.0001 0.0001 0.0001 0.0001 0.0001 0.0001 0.0001 0.0001 0.0001 
0.0001 0.0001 0.0001 0.0001 0.0001 0.0001 0.0001 0.0001 0.0001 
0.0001 0.0001 0.0001 0.0001 0.0001 0.0001 0.0001 0.0001 0.0001 
0.0001 0.0001 0.0001 0.0001 0.0001 0.0001 0.0001 0.0001 0.0001 
0.0001 0.0001 0.0001 0.0001 0.0001 0.0001 0.0001 0.0001 0.0001 
0.0001 0.0001 0.0001 0.0001 0.0001 0.0001 0.0001 0.0001 0.0001 
0.0001 0.0001 0.0001 0.0001 0.0001 0.0001 0.0001 0.0001 0.0001 
0.0001 0.0001 0.0001 0.0001 0.0001 0.0001 0.0001 0.0001 0.0001 
0.0001 0.0001 0.0001 0.0001 0.0001 0.0001 0.0001 0.0001 0.0001 
0.0001 0.0001 0.0001 0.0001 0.0001 0.0001 0.0001 0.0001 0.0001 
0.0001 0.0001 0.0001 0.0001 0.0001 0.0001 0.0001 0.0001 0.0001 
0.0001 0.0001 0.0001 0.0001 0.0001 0.0001 0.0001 0.0001 0.0001 
0.0001 0.0001 0.0001 0.0001 0.0001 0.0001 0.0001 0.0001 0.0001 
0.0001 0.0001 0.0001 0.0001 0.0001 0.0001 0.0001 0.0001 0.0001 
0.0001 0.0001 0.0001 0.0001 0.0001 0.0001 0.0001 0.0001 0.0001 
0.0001 0.0001 0.0001 0.0001 0.0001 0.0001 0.0001 0.0001 0.0001 
0.0001 0.0001 0.0001 0.0001 0.0001 0.0001 0.0001 0.0001 0.0001 
0.0001 0.0001 0.0001 0.0001 0.0001 
omega 3 167 double
0.161986 -0.0728164 -0.417487 2.62612 -2.14722 0.112979 0.424156 0.0315806 0.142019 
1.04763 -0.685889 1.07674 -0.410905 0.488295 -0.466947 0.14757 -0.735056 0.344276 
-0.195071 1.35915 0.596651 -1.30007 -2.07485 0.363237 -1.37009 0.139846 -0.661986 
0.321437 -0.258135 1.41248 -0.156516 -0.12945 0.247056 0.490091 0.176382 -0.728331 
-0.0613865 0.344657 0.0996171 -0.454664 -0.711237 -0.801164 -0.0927066 0.00620657 0.563502 
-0.362551 -0.273695 -1.44969 -0.723138 -0.680669 -0.310334 0.529567 0.48818 0.649244 
0.0299569 0.252422 0.296525 -0.11401 -0.655788 -0.143347 0.131514 0.597214 -0.270403 
0.0098995 0.967713 -0.212317 -0.0720885 0.167608 -0.125681 0.492523 -0.140946 -0.263925 
0.0396921 -0.319401 0.338327 -0.294096 1.07685 0.928969 -0.174721 0.0836503 -0.235737 
0.804515 0.863878 -0.445004 0.290484 -0.369269 0.377974 1.03085 -0.256043 0.870158 
0.191131 0.35206 0.536846 -0.271419 -0.488374 0.72703 0.448715 0.314858 -0.752104 
0.270819 -0.0893218 -0.542832 0.522082 1.07044 -0.681063 -0.589684 0.551639 1.27434 
-0.889621 -0.269157 -1.41512 -0.222491 0.12055 -0.116395 0.187119 0.0636295 -0.48943 
-0.634646 0.373166 -0.856796 -0.512126 -0.389171 0.337538 0.648498 0.299863 0.185202 
-0.0284222 0.596966 0.142591 -0.0872395 0.200976 -0.356621 -0.443324 -2.61514 -0.919192 
0.0179623 0.174739 -0.288818 1.13021 0.59267 -0.497371 0.678573 -0.71588 1.63432 
-1.57175 1.00059 -0.478761 -0.0541619 0.197682 0.965295 0.783332 0.203203 1.49186 
-0.426407 -1.10657 -0.181542 0.727373 1.81645 0.0383883 1.42008 0.391169 -0.00479697 
-0.577421 2.38346 -1.00005 1.35338 -1.18831 -0.16217 -2.04431 -0.686201 -1.52384 
-1.55291 -0.862768 0.424325 -0.182228 -1.0063 0.977904 1.13639 -1.39561 -0.458249 
0.645199 0.370821 0.00956728 1.46614 0.0417649 0.328348 -0.35632 0.138454 -1.49144 
0.0528353 -1.62785 1.08324 0.248034 -0.598483 -0.915911 -1.02724 0.0415396 0.0932343 
1.35572 -0.952621 -1.44574 -0.310418 -0.38543 -0.137786 0.418915 0.117266 0.55798 
-0.585357 1.16637 -0.122725 -0.474596 -0.736331 0.421481 -0.369331 -0.794163 1.29529 
0.40107 -2.1643 -0.66294 2.16988 -1.80984 2.1642 0.324874 1.37997 -0.26008 
1.70819 0.861859 1.35144 -0.656295 0.056765 -2.03996 0.201274 1.29347 -1.24907 
0.891954 -0.36649 -0.131805 -0.655 1.78103 -0.307579 1.34021 -1.10278 -0.601079 
0.0137513 -2.11934 0.86771 0.633384 -1.43576 1.42521 -1.1606 0.808297 0.18615 
-0.320108 -0.537243 -0.0107196 -1.71158 0.0267323 0.494473 2.27498 -0.251625 -1.36705 
-0.983972 0.0900019 -0.325615 -0.846681 0.0230793 -0.159176 0.179329 -0.958802 0.256737 
-0.837226 4.53704 1.70522 3.51007 -1.01297 -0.282185 -2.02611 -0.219542 0.379316 
-0.308124 1.90861 0.0611117 0.632672 0.611588 0.915858 -0.519708 1.20096 -0.207672 
-0.359039 0.299446 -0.883569 -0.51769 0.925585 -0.804757 0.820502 -0.373998 0.424249 
-0.742867 1.36218 1.99495 -0.323967 0.421775 0.162436 -2.19925 -0.339721 -1.12365 
-0.616573 1.87396 -1.142 0.379598 0.125697 0.439397 -1.9785 -0.604111 0.488854 
0.690755 0.208852 -1.87411 -1.83035 -0.519419 -1.99624 0.18916 -0.517233 0.773119 
0.408625 -1.53048 -0.135655 -0.46186 0.653301 -0.187232 -0.491502 -1.4608 -0.407441 
-2.27051 1.92055 0.182385 -1.30159 2.07513 1.69631 -0.244647 -1.50092 -0.959774 
0.335989 -0.247299 -0.154737 -0.640692 -1.02471 0.148222 -0.834215 -0.62388 0.387522 
1.09956 -0.777014 -3.60231 -2.23912 -0.05072 0.15531 -2.03073 0.769714 -0.148134 
0.102718 0.187547 0.700101 -0.44497 -1.77963 -0.586268 0.308223 -0.23192 -0.300318 
-0.844495 0.096045 0.632281 -0.847503 -2.22306 1.66025 -1.18439 -1.07774 2.54513 
0.495309 2.05377 0.0490217 -0.280692 -1.17481 1.53711 0.266423 2.4442 -0.461312 
0.339508 -0.234519 0.26296 0.869901 -0.744403 -0.803216 0.28428 0.234174 0.657016 
2.17889 1.35004 1.14471 -1.79792 -0.121679 -1.66564 -1.73727 0.301463 -0.416427 
4.1379 1.12985 -0.220819 -1.53247 1.37961 -1.13692 -3.81007 -2.9788 -0.891828 
2.60703 1.02187 -0.289704 1.07258 -2.11408 0.00513506 0.550538 0.86388 -0.817434 
0.179832 0.157241 1.56767 2.8075 1.34102 1.80385 -2.13394 1.83546 0.844069 
0.762414 -0.157072 -2.95382 1.39676 0.966983 0.871934 -0.795123 -2.42295 -1.18319 
1.48845 0.110419 0.718545 1.68528 0.162477 -0.742237 1.50944 -2.79207 0.774397 
4.17868 -3.38618 -1.97545 -0.299799 -2.93375 -2.15171 1.53919 -0.91783 -0.338422 
1.58241 1.88267 -0.458351 -0.810756 -3.58229 0.497994 1.4014 2.61443 -2.585 
4.29243 1.68864 0.684991 2.33376 1.56056 -1.64879 3.67422 -0.251431 0.186621 
-0.699779 -1.29599 2.93682 -0.0212322 -0.0922456 -0.441112 -0.799876 1.12818 0.545201 
1.0799 2.91049 0.300585 -0.863034 1.41474 -0.65278 -2.31531 -1.22375 0.235107 
2.00096 -0.591475 0.122405 -3.61418 -2.31215 0.217475 
