# vtk DataFile Version 4.0
Generated by LIGGGHTS
ASCII
DATASET POLYDATA
POINTS 167 float
-0.000466582 -0.00042198 9.99741e-05 -0.000342019 -0.000459128 0.000262323 -0.000275462 -0.000363031 9.99721e-05 
-0.000140133 -0.000320714 0.000241013 -9.57292e-05 -0.000455109 9.98402e-05 4.80358e-05 -0.00041705 0.0002335 
0.000196939 -0.0003906 9.99357e-05 0.000384704 -0.000387218 0.000248242 -0.000443193 -0.000286703 0.000264659 
-0.000380595 -0.000192586 9.98212e-05 -0.000180715 -0.000185102 9.98415e-05 -0.000281875 -0.000156713 0.00026984 
-3.54249e-06 -0.000277681 9.98281e-05 6.34233e-05 -0.000192955 0.000267961 0.000177037 -0.000191666 9.98691e-05 
0.000299008 -0.000200798 0.000257894 0.000474181 -0.000110149 0.000220244 0.000408394 -0.000255458 9.98035e-05 
-0.000477735 4.20236e-05 9.98682e-05 -0.000380748 1.69692e-05 0.000272841 -0.000285648 -1.48917e-05 9.99094e-05 
-0.000104346 -5.61845e-05 0.00023224 -0.00010233 9.36849e-05 9.9882e-05 4.48821e-05 -4.1631e-05 9.99136e-05 
3.90743e-05 9.92019e-05 0.000241685 0.000185634 -3.6772e-05 0.000242468 0.000324134 -5.61907e-05 9.97974e-05 
0.000363486 5.44301e-05 0.000261637 -0.000332562 0.000179474 9.9849e-05 -0.000485722 0.000184611 0.000244359 
-0.000218701 0.000133096 0.000257522 -0.000170205 0.000296593 9.99025e-05 -6.89633e-05 0.000265059 0.000269348 
3.39254e-05 0.000240074 9.98336e-05 0.00018182 0.00010413 9.99723e-05 0.000129633 0.00028802 0.000268615 
0.000343757 0.000287223 0.000263185 0.000370218 0.000171903 9.99547e-05 -0.000324807 0.000302581 0.000257054 
-0.000323905 0.000425882 9.98249e-05 -0.000494889 0.000322231 9.97905e-05 -0.00017414 0.000433473 0.000246047 
7.2166e-05 0.000436309 9.98734e-05 0.000232596 0.000316987 9.98012e-05 0.000219017 0.000463665 0.000234979 
0.000366529 0.000466456 9.99679e-05 0.000485121 0.000440262 0.000259809 -0.000483298 -0.000424612 0.000403672 
-0.000276024 -0.000318003 0.000387608 -0.000166027 -0.000480418 0.000426233 -1.80856e-05 -0.000327013 0.000399262 
0.000108892 -0.000457915 0.000481232 0.000208332 -0.000359759 0.000338317 -0.000435312 -0.000136522 0.000396405 
-9.58991e-05 -0.00015241 0.000457771 0.000150937 -0.000202289 0.00044738 0.000407074 -0.000257855 0.000415999 
-0.0002331 -1.62307e-05 0.000403375 5.05324e-05 -3.46773e-05 0.000389694 0.000294194 -6.82547e-05 0.000407398 
-0.000353014 0.00016743 0.000401542 -0.000202041 0.000297843 0.00041476 -8.19189e-05 0.00011459 0.000402141 
4.58916e-05 0.000261265 0.000448085 0.000203375 0.00012525 0.000358234 0.000452581 0.000127112 0.000425539 
-0.000363366 0.000415941 0.000417044 -7.50456e-07 0.000432144 0.000355322 0.000241005 0.000306575 0.000433615 
0.000337517 0.000484987 0.000394578 0.000457455 0.000327485 0.000422566 -0.000335765 -0.00043032 0.000541712 
-0.000155895 -0.000320812 0.000547356 -5.55878e-05 -0.000487698 0.000592733 4.6025e-05 -0.000300129 0.000586711 
0.000284489 -0.00037258 0.000524487 0.000165502 -0.000436655 0.000671803 0.000494008 -0.000332617 0.000579734 
0.000364197 -0.000425561 0.0007001 -0.000333329 -0.000284644 0.000678544 -0.00041539 -0.000102358 0.000680721 
-0.000284108 -0.000169361 0.00052282 -2.6396e-05 -0.000122446 0.000642819 0.000266707 -0.000192701 0.00061004 
0.000434464 -0.000105623 0.000544906 -0.000409951 1.76796e-05 0.00052097 -0.000148866 2.26361e-05 0.00058035 
0.000141038 -4.29942e-05 0.000567782 0.000289868 8.62135e-05 0.000534156 0.000451558 7.88821e-05 0.000651499 
-0.000403547 0.000280445 0.000558482 -0.000305836 0.000118705 0.000658491 -0.000145459 0.000222297 0.000591007 
2.59508e-05 0.000119356 0.000587445 0.000190245 0.000213495 0.000651696 0.000379301 0.000255502 0.000591851 
-0.000225875 0.000407167 0.000580327 9.55442e-05 0.000381666 0.000599692 0.000287904 0.000433041 0.000581166 
0.000491503 0.000462116 0.00056646 -0.000466636 -0.000377401 0.000795139 -0.000261867 -0.000386441 0.000835083 
-9.22108e-05 -0.00035143 0.00073437 0.000220582 -0.000462085 0.000882105 -0.00032305 -0.000195039 0.000856972 
-0.000216748 -0.000120333 0.000704522 -0.000133795 -0.0002447 0.000898231 5.34118e-05 -0.00022755 0.000792953 
0.000243156 -0.000289832 0.000783171 0.00020066 -0.000110569 0.00086085 0.000426813 -0.000215954 0.00072753 
-0.000321105 3.86892e-06 0.000821465 -7.02765e-05 -6.77941e-05 0.00083003 8.9632e-05 2.16627e-05 0.000749877 
0.000284319 -1.756e-05 0.000704907 0.000284293 6.94276e-05 0.000884943 0.000450625 -3.73377e-05 0.000814138 
-0.000441793 0.000162916 0.000798264 -0.00026969 0.000297026 0.000741276 -0.000112724 0.000112711 0.000755107 
-2.14421e-05 0.000289212 0.000732865 0.000148384 0.000212949 0.000847142 0.000347328 0.000232411 0.000787829 
-0.000351628 0.000478025 0.000718625 -0.000496746 0.000340575 0.00072477 -0.000422937 0.000441134 0.000901693 
-0.000139711 0.000312055 0.000892477 -0.000156692 0.000460988 0.000759932 3.98922e-05 0.000469063 0.000795486 
0.000215275 0.000379892 0.000759736 0.000382187 0.000422075 0.000861367 -0.000447619 -0.000383208 0.000994068 
-0.000256711 -0.000334308 0.00102805 -8.79061e-05 -0.000438794 0.000918646 8.13474e-05 -0.00033933 0.000956335 
-9.76894e-05 -0.000487172 0.00111242 0.000361506 -0.000463414 0.00102397 -0.000468306 -0.00022278 0.00111163 
-6.77197e-05 -0.000291968 0.00108094 4.14963e-05 -0.000144482 0.00097701 0.000241192 -0.000244595 0.00103018 
0.000396704 -0.000288891 0.000911258 -0.000437749 -8.07013e-05 0.000974246 -0.000352917 8.46151e-05 0.00104817 
-0.000212313 -7.28707e-05 0.000970663 6.62204e-06 9.28173e-05 0.00092088 -5.66254e-05 -6.05707e-06 0.00108281 
0.000357253 -8.86736e-05 0.0009833 0.000466641 9.54857e-05 0.00096272 -0.000330844 0.000265743 0.000929061 
-0.000190033 0.000124107 0.000939134 -1.38747e-05 0.000207649 0.00108329 0.000166891 0.000137871 0.00103164 
0.000280978 0.000291781 0.000974315 0.000479991 0.000292563 0.00099377 -0.000407709 0.000452434 0.00110075 
-0.000242744 0.000454914 0.000987201 4.70299e-05 0.000347903 0.000954375 9.77511e-05 -0.00044647 0.00112438 
0.000366603 -0.000322067 0.00116533 -0.000320207 -9.10209e-05 0.00113804 0.000463637 -9.42088e-06 0.00113295 
-0.00035853 0.000262488 0.00113939 -0.000187136 0.000129413 0.00115065 0.000349183 0.000161959 0.00111028 
-0.000169881 0.00032659 0.00112215 0.000161577 0.00036411 0.00111749 
VERTICES 167 334
1 0 
1 1 
1 2 
1 3 
1 4 
1 5 
1 6 
1 7 
1 8 
1 9 
1 10 
1 11 
1 12 
1 13 
1 14 
1 15 
1 16 
1 17 
1 18 
1 19 
1 20 
1 21 
1 22 
1 23 
1 24 
1 25 
1 26 
1 27 
1 28 
1 29 
1 30 
1 31 
1 32 
1 33 
1 34 
1 35 
1 36 
1 37 
1 38 
1 39 
1 40 
1 41 
1 42 
1 43 
1 44 
1 45 
1 46 
1 47 
1 48 
1 49 
1 50 
1 51 
1 52 
1 53 
1 54 
1 55 
1 56 
1 57 
1 58 
1 59 
1 60 
1 61 
1 62 
1 63 
1 64 
1 65 
1 66 
1 67 
1 68 
1 69 
1 70 
1 71 
1 72 
1 73 
1 74 
1 75 
1 76 
1 77 
1 78 
1 79 
1 80 
1 81 
1 82 
1 83 
1 84 
1 85 
1 86 
1 87 
1 88 
1 89 
1 90 
1 91 
1 92 
1 93 
1 94 
1 95 
1 96 
1 97 
1 98 
1 99 
1 100 
1 101 
1 102 
1 103 
1 104 
1 105 
1 106 
1 107 
1 108 
1 109 
1 110 
1 111 
1 112 
1 113 
1 114 
1 115 
1 116 
1 117 
1 118 
1 119 
1 120 
1 121 
1 122 
1 123 
1 124 
1 125 
1 126 
1 127 
1 128 
1 129 
1 130 
1 131 
1 132 
1 133 
1 134 
1 135 
1 136 
1 137 
1 138 
1 139 
1 140 
1 141 
1 142 
1 143 
1 144 
1 145 
1 146 
1 147 
1 148 
1 149 
1 150 
1 151 
1 152 
1 153 
1 154 
1 155 
1 156 
1 157 
1 158 
1 159 
1 160 
1 161 
1 162 
1 163 
1 164 
1 165 
1 166 

POINT_DATA 167
FIELD FieldData 7
id 1 167 int
4 46 28 51 7 18 9 20 44 
19 27 47 1 29 11 34 40 15 
3 42 14 30 24 10 23 38 26 
49 12 32 35 25 37 13 16 31 
45 2 33 17 21 36 8 5 22 
6 39 63 62 58 54 77 41 52 
67 73 56 53 55 61 60 75 64 
68 43 57 71 48 69 50 59 90 
65 94 89 72 96 86 106 97 88 
76 99 81 87 66 79 85 74 101 
84 102 80 92 93 78 91 83 82 
70 131 126 105 124 118 104 125 112 
110 114 98 109 116 119 100 130 111 
120 115 123 95 122 107 113 103 138 
129 108 132 117 133 146 151 144 139 
161 142 162 158 147 150 134 121 149 
135 127 152 137 140 128 136 155 143 
141 145 159 153 148 156 165 160 154 
166 157 163 164 167 
type 1 167 int
1 1 1 1 1 1 1 1 1 
1 1 1 1 1 1 1 1 1 
1 1 1 1 1 1 1 1 1 
1 1 1 1 1 1 1 1 1 
1 1 1 1 1 1 1 1 1 
1 1 1 1 1 1 1 1 1 
1 1 1 1 1 1 1 1 1 
1 1 1 1 1 1 1 1 1 
1 1 1 1 1 1 1 1 1 
1 1 1 1 1 1 1 1 1 
1 1 1 1 1 1 1 1 1 
1 1 1 1 1 1 1 1 1 
1 1 1 1 1 1 1 1 1 
1 1 1 1 1 1 1 1 1 
1 1 1 1 1 1 1 1 1 
1 1 1 1 1 1 1 1 1 
1 1 1 1 1 1 1 1 1 
1 1 1 1 1 1 1 1 1 
1 1 1 1 1 
i 3 167 int
1 1 0 0 1 0 0 1 0 
0 0 0 0 1 0 0 0 0 
-1 0 0 0 0 0 0 1 0 
0 0 0 0 0 0 0 0 0 
0 0 0 0 0 0 -1 0 0 
0 0 0 0 0 0 -1 0 0 
0 0 0 0 0 0 0 0 0 
0 0 0 1 0 0 0 0 0 
0 0 0 0 0 0 -1 0 0 
0 0 0 0 0 0 0 0 0 
0 0 0 1 0 0 0 0 0 
0 0 0 0 0 0 0 0 0 
0 0 0 0 0 0 0 0 0 
0 -1 0 1 -1 0 0 -1 0 
0 -1 0 0 0 0 0 0 0 
0 -1 0 0 0 0 0 1 0 
1 0 0 0 0 0 0 0 0 
0 0 0 0 0 0 0 0 0 
0 0 0 0 0 0 0 0 0 
0 0 0 0 0 0 0 0 0 
0 0 0 0 0 0 0 0 0 
0 0 0 0 0 0 0 0 0 
0 0 0 0 0 0 0 0 0 
0 -1 0 0 0 0 0 0 0 
0 0 0 0 0 0 0 0 0 
0 0 0 0 0 0 0 0 0 
-1 0 0 0 0 0 0 0 0 
0 0 0 0 0 0 0 0 0 
0 0 0 0 0 0 0 0 0 
0 0 0 0 0 0 0 0 0 
0 0 0 0 0 0 0 0 0 
0 0 0 0 0 0 0 0 0 
0 0 0 0 0 0 0 -1 0 
-1 -1 0 0 0 0 0 0 0 
0 0 0 0 0 0 0 0 0 
0 0 0 0 0 0 0 0 0 
0 0 0 0 0 0 -1 0 0 
0 0 0 0 0 0 0 0 0 
0 0 0 0 0 0 0 0 0 
0 0 0 0 0 0 0 0 0 
0 0 0 0 0 0 0 0 0 
0 -1 0 1 0 0 0 0 0 
0 0 0 0 0 0 0 -1 0 
0 0 0 0 0 0 0 0 0 
0 0 0 0 1 0 0 0 0 
0 0 0 0 0 0 1 0 0 
0 0 0 0 0 0 0 0 0 
0 0 0 1 0 0 0 0 0 
0 0 0 0 0 0 0 0 0 
0 0 0 -1 0 0 0 0 0 
0 0 0 0 0 0 0 0 0 
0 0 0 0 -1 0 0 -1 0 
0 0 0 0 0 0 0 0 0 
0 0 0 0 0 0 0 0 0 
0 0 0 0 0 0 0 0 0 
0 0 0 0 0 0 
v 3 167 double
3.92738e-06 -1.19868e-05 -1.96392e-07 -2.14439e-05 -1.71724e-05 7.17891e-05 1.93619e-05 -4.05686e-05 4.65559e-05 
2.75176e-05 -6.01997e-05 0.000111074 2.94484e-05 -3.6912e-05 7.68196e-05 2.45653e-05 -9.46077e-05 0.000173551 
-0.000144705 3.2393e-05 0.000122314 -5.42346e-05 -2.42545e-05 0.000296069 -7.66638e-05 -1.46182e-05 0.000105805 
-2.35666e-05 4.11035e-06 5.71398e-05 1.0889e-05 -3.08776e-05 6.15551e-05 8.619e-06 -5.2432e-05 9.03074e-05 
1.05171e-05 -3.01616e-05 8.76872e-05 -0.00016575 -7.04729e-05 0.000210528 -0.000165553 -1.06136e-05 7.00688e-05 
-0.000213905 -0.000117345 0.000227262 -5.15684e-05 1.97985e-05 0.000118636 -0.000123109 -4.69337e-05 0.000140903 
-5.34194e-06 -3.0754e-05 2.98913e-05 -1.77597e-05 -3.42025e-05 4.8987e-05 1.13339e-05 -5.2649e-06 4.14187e-05 
1.27078e-05 -1.97067e-05 9.78685e-05 2.26093e-05 -3.65335e-05 7.48689e-05 2.35608e-05 2.68531e-05 3.46668e-05 
-4.05494e-05 5.90532e-05 0.00010634 -0.00013813 -1.72959e-05 0.000199998 -7.09794e-05 -1.39602e-05 0.000127765 
-0.000184775 0.000158848 0.000216914 3.33385e-05 -2.01274e-06 4.15707e-05 -1.55709e-05 6.23669e-05 0.000159682 
-2.88107e-06 -5.17167e-05 0.000112641 -8.40844e-05 2.14962e-05 5.96772e-05 -2.38304e-05 1.19128e-05 0.000120496 
-9.36729e-06 2.19946e-05 5.38104e-05 5.28533e-05 -6.72675e-05 1.45202e-05 -9.56464e-05 7.98685e-05 0.000177612 
1.20373e-06 0.000116883 0.000250383 0.000102291 7.05544e-05 7.77502e-05 6.53144e-05 -2.29309e-05 9.19473e-05 
3.97076e-05 1.20445e-05 5.11018e-05 1.18777e-05 7.00562e-05 0.000101955 6.93662e-06 -2.89377e-05 0.000137548 
-1.15878e-05 -5.23698e-05 7.28828e-05 8.50921e-05 6.48202e-05 0.000125435 3.29411e-05 8.14485e-05 0.000240386 
3.74608e-06 4.72658e-05 7.90851e-05 2.36099e-05 9.70772e-06 0.000259033 7.77865e-05 1.90248e-05 0.000262277 
-1.13101e-05 -7.49941e-05 0.00011405 -2.31607e-05 -7.73209e-05 0.000157774 1.86985e-05 3.9701e-05 0.000186053 
-8.77881e-05 -4.79705e-06 0.000288108 -8.417e-05 -7.12361e-05 0.00031878 2.00863e-05 -1.04967e-05 9.16059e-05 
5.53593e-05 7.31236e-05 0.000145056 -0.00011919 -3.29761e-05 0.000209249 4.52477e-05 3.75009e-05 0.000263411 
-0.000148885 -3.87019e-05 0.000208461 -3.14026e-05 0.000120056 0.000253559 -4.34778e-05 1.82587e-05 0.000147794 
1.56849e-05 -5.79071e-05 8.8568e-05 3.15666e-06 -0.000122116 0.000188449 -0.000125546 2.03511e-05 0.000280723 
-0.000133987 5.06163e-05 0.000203105 -0.000130942 7.41633e-05 0.000207455 0.000113085 4.71471e-05 0.000169803 
2.47791e-05 -9.75657e-05 0.000162829 -0.00010963 1.08857e-06 0.000222533 -6.02036e-05 7.11947e-05 0.000224551 
0.000133131 8.4066e-05 0.000376921 -1.54798e-05 1.6446e-05 0.000305079 3.59002e-05 -9.46608e-05 0.000118033 
0.000169291 2.85315e-05 -2.94672e-05 0.000124053 3.97457e-05 0.000219822 -4.17568e-05 5.20719e-05 0.000307338 
5.63899e-05 3.35849e-05 0.000343021 5.49716e-05 0.000191268 0.000238009 3.82497e-05 -0.000136995 0.000243435 
-1.7002e-05 6.23692e-05 0.000195168 0.000147489 -5.89535e-05 1.66006e-05 0.000171626 -5.64695e-05 -2.9823e-05 
5.55786e-05 -8.60697e-05 6.86898e-05 1.0204e-05 7.17068e-05 0.000114493 7.18368e-05 9.59667e-05 7.38967e-05 
6.50715e-05 -2.69832e-05 5.18692e-05 0.000105347 -3.06281e-05 6.75345e-05 -4.92875e-06 -4.62378e-05 0.000193346 
8.28151e-05 4.75602e-05 0.000121178 8.13012e-05 4.9237e-05 7.88926e-05 0.000105157 2.57826e-05 2.93061e-06 
8.85137e-05 -0.000149506 0.000160751 2.34047e-05 1.83991e-05 0.000176199 0.00021858 -0.00017593 0.000216769 
5.52421e-05 -8.36372e-05 9.29631e-05 8.76814e-05 7.37517e-06 6.18582e-05 5.63831e-05 4.25285e-05 0.000230335 
1.2757e-05 -0.000125604 0.000118476 3.49383e-05 -3.34551e-05 0.000214171 6.53388e-05 -8.12624e-05 0.000349435 
0.000167531 -2.88868e-05 0.000271473 4.15154e-05 0.000162651 -9.67771e-05 0.000168829 4.72126e-05 -9.47165e-05 
1.18219e-05 0.000290516 -7.42915e-05 -5.60466e-05 7.19979e-05 -0.000334263 1.34235e-05 0.000154025 -8.70128e-05 
7.02264e-05 9.2588e-05 -1.11253e-05 -5.37137e-05 0.000244149 -0.00012452 -2.0396e-05 0.000227711 -2.56382e-05 
-1.0364e-05 0.000123298 -3.57692e-05 -2.57524e-05 5.01149e-05 -0.000158052 -1.99713e-05 -4.05469e-06 0.000114366 
-1.0041e-05 -5.68775e-05 -4.72742e-05 -1.94451e-05 0.000148499 -3.18248e-05 -2.98991e-05 7.50725e-05 0.000182603 
0.000145901 -3.7493e-06 -5.24722e-05 1.27616e-05 -9.06855e-05 -0.000127745 8.53842e-05 -3.18269e-05 -0.000150427 
-7.00825e-05 -0.000107437 -1.12053e-05 -9.27689e-05 -2.49533e-05 0.000163999 0.000200551 0.000130738 0.000101599 
0.000129467 4.47116e-05 0.000191497 1.21663e-05 2.64949e-05 -0.000101395 4.44352e-05 -0.000107651 0.000107272 
2.13241e-05 -2.49835e-05 -1.00855e-05 5.11258e-05 -0.000125533 9.95046e-05 3.57491e-05 1.79775e-05 -0.00030324 
-9.08776e-05 -0.000153983 7.39775e-05 0.000132954 7.06213e-05 -0.000116261 7.21176e-05 8.21033e-05 -5.12085e-05 
3.78856e-05 -1.52694e-05 9.27824e-06 -9.33659e-06 0.00011777 -0.000167959 0.0001492 -8.16117e-05 -0.000296569 
8.59232e-05 3.6637e-06 -0.00013276 0.000136549 0.000104349 -0.000345619 2.791e-05 0.000114565 -0.000364601 
0.000118151 -0.000134331 -0.000620409 0.000143121 0.000354096 -0.000630397 -0.000183206 -6.35688e-05 -0.00074577 
-2.40318e-05 6.27014e-05 -0.000292398 0.000145468 0.000122254 -0.000153378 9.4898e-05 -0.000136805 -0.000630895 
-7.45992e-05 -7.12177e-05 0.000123118 -5.57003e-05 9.60064e-05 -0.000352993 -0.000134109 3.15911e-06 -0.000450549 
-0.000215179 -0.000138271 -0.000433969 2.41042e-05 2.47212e-05 -0.000201287 9.59726e-06 6.15561e-05 -0.000391291 
-7.27025e-05 -0.000121406 -0.000340715 -7.7641e-05 -3.35816e-05 -0.000298853 -0.000192221 -1.57977e-05 7.54362e-05 
-8.3372e-05 7.20368e-05 -0.000167196 8.5537e-05 0.000219006 -0.000618968 -2.48929e-05 4.34778e-05 -0.000296443 
-4.7417e-05 9.4773e-05 -0.000140199 -3.6978e-05 -1.65643e-05 -0.000387994 3.95214e-05 -0.000164043 -0.00060015 
0.000177126 -0.000148331 -0.000460896 -5.5588e-05 -6.32578e-05 -0.000214507 0.000284328 -0.000145121 -0.000945102 
0.000114038 2.42601e-05 -0.00090489 -0.000377689 -0.000271061 -0.000847598 2.7832e-06 0.000196049 -0.000479164 
-8.17099e-05 3.66463e-05 -0.000704995 -0.000220592 -0.000191224 -0.000692605 2.20654e-05 -3.04698e-05 -0.000421473 
4.39206e-05 -0.000205919 -0.000666801 -1.08094e-05 -1.33863e-05 -0.000225892 
f 3 167 double
6.80254e-10 3.47669e-10 -1.29903e-08 -1.84805e-09 -5.01903e-09 -1.86294e-08 -6.27836e-09 -9.74945e-09 -9.12201e-09 
-3.26845e-09 -2.14746e-08 -8.14327e-09 -8.81376e-10 -6.24861e-09 -1.32767e-08 2.90665e-09 -1.86985e-09 -1.41657e-08 
1.50701e-08 5.17211e-09 -1.21066e-08 2.93892e-10 -1.42252e-09 -2.38433e-08 -5.71264e-09 -2.70154e-09 -1.56636e-08 
4.25028e-09 1.06949e-09 -8.61201e-09 2.57245e-09 -4.32347e-09 -7.52305e-09 6.16878e-09 -9.80271e-09 -7.97972e-09 
-4.89579e-09 -1.47621e-09 -1.79104e-09 -1.25497e-08 9.00109e-09 7.82312e-09 8.22179e-09 2.68193e-09 -1.23545e-08 
1.36212e-08 -2.65178e-09 -2.38981e-08 6.04984e-10 1.71702e-09 -1.6085e-08 4.48629e-09 -1.3295e-08 -1.45514e-08 
8.52818e-09 -7.91213e-09 -1.83673e-08 5.49719e-09 -7.37553e-09 -2.19783e-08 1.01339e-08 -1.60961e-09 -8.50009e-09 
1.18054e-08 -9.83114e-09 -1.62141e-08 1.47503e-09 -6.31741e-10 -9.01213e-09 -9.71348e-10 -8.89575e-10 -1.18454e-08 
-5.5162e-10 -1.19332e-08 -1.73311e-08 7.31295e-09 -6.87963e-09 -2.21635e-08 -4.46408e-09 -1.52705e-09 -1.99116e-08 
-7.11661e-09 -8.49819e-09 -3.95661e-08 -1.68622e-09 -4.24044e-10 -7.29351e-09 -6.27541e-09 -1.06933e-08 -2.3553e-08 
6.62141e-10 6.02119e-11 -1.30954e-08 4.60955e-09 -1.66996e-09 -5.49679e-09 5.00566e-09 -9.8447e-10 -8.87586e-09 
3.842e-09 5.68711e-10 -7.36303e-09 5.49702e-09 7.35194e-09 -1.01799e-08 8.22117e-09 1.02888e-08 -1.08045e-08 
-1.58698e-09 5.31383e-10 -1.69086e-08 4.08686e-09 -3.93034e-09 -1.52232e-08 -1.78853e-09 6.06376e-10 -5.84407e-09 
1.37746e-09 7.83562e-11 -9.66146e-09 -3.34293e-09 9.59555e-09 -6.8217e-09 3.99933e-09 -4.08377e-09 -1.5175e-08 
5.8971e-09 5.99932e-09 -1.3822e-08 3.89592e-09 8.66972e-09 -1.20423e-08 1.77981e-09 1.43158e-08 -1.60376e-08 
2.34867e-08 2.46021e-10 -6.55098e-09 -8.94597e-09 3.7481e-09 -6.96918e-09 1.28945e-09 6.39827e-09 1.69001e-09 
-1.14653e-08 -6.00955e-09 -4.17892e-09 -2.75963e-09 2.71734e-09 -2.32163e-10 -4.34765e-09 -1.65759e-08 -1.15409e-08 
1.01783e-08 -1.18658e-08 -1.35447e-08 -8.52765e-09 1.52583e-08 -1.9918e-08 8.09675e-09 -1.10903e-08 -6.62375e-09 
8.67744e-09 -1.19393e-08 -9.79708e-10 -9.44337e-09 -6.33085e-09 1.97183e-08 -4.58521e-10 4.88058e-09 -3.72783e-09 
-9.11951e-09 6.50162e-09 1.27474e-09 5.9003e-09 -1.61627e-08 -1.01306e-08 2.10854e-08 8.89202e-10 -1.9461e-08 
1.27246e-08 -9.32113e-09 -5.09964e-09 1.89484e-09 -8.50601e-09 -3.71846e-09 4.52431e-09 -1.43793e-08 -1.78843e-08 
4.23769e-09 -8.16915e-09 8.82368e-09 1.52952e-08 7.39107e-09 -3.46618e-08 1.16537e-08 -3.57279e-08 -2.53772e-08 
-7.09314e-09 -1.14831e-09 1.64396e-09 9.90648e-09 -7.97482e-09 -1.25635e-08 8.53254e-09 -2.50166e-10 -1.24783e-08 
-1.06403e-08 2.27047e-09 -1.06977e-08 -7.34728e-09 -1.27224e-09 -1.28896e-08 -8.48915e-09 9.27011e-09 1.68037e-08 
-1.53674e-08 1.60986e-08 3.21622e-08 -4.22252e-09 2.47668e-08 1.48173e-08 3.49786e-09 -2.98296e-08 4.30268e-09 
2.27951e-09 5.48827e-09 -1.39433e-08 3.92887e-08 -4.85864e-09 1.01141e-09 2.9874e-09 4.90353e-09 3.52041e-08 
-5.71613e-09 -1.97006e-08 3.51259e-08 2.02486e-09 1.39441e-08 5.0533e-08 3.09467e-09 1.18494e-08 5.26406e-08 
6.12159e-09 1.17329e-08 1.26797e-08 3.95086e-09 -1.49575e-08 2.69464e-08 7.99991e-09 -7.19151e-09 3.7571e-08 
1.76653e-08 -1.09711e-08 4.34777e-09 1.82731e-08 -9.96563e-09 1.14555e-08 -6.70891e-09 -2.93388e-09 2.35664e-08 
1.89358e-09 1.25785e-09 2.20261e-08 9.47351e-09 2.90537e-09 -1.12731e-08 6.34893e-09 6.4263e-09 1.04145e-08 
1.72491e-08 -1.6834e-08 5.57136e-09 6.48517e-09 -6.70118e-10 4.02109e-08 -8.38284e-10 1.8124e-08 1.41307e-08 
-2.42605e-09 -1.19788e-08 3.57853e-08 8.65128e-09 9.49987e-09 6.99273e-09 3.79967e-09 -7.49688e-09 2.51879e-10 
2.53422e-09 1.15919e-10 1.33629e-08 -8.34158e-09 1.87195e-08 2.11237e-08 5.52373e-09 -9.53385e-09 8.54488e-09 
1.26382e-08 -8.46487e-09 -1.41549e-08 2.25128e-10 -1.66966e-08 6.87324e-08 1.26649e-09 3.84877e-09 5.4941e-08 
-3.36232e-09 1.59997e-08 5.88399e-08 -2.29401e-08 -1.90286e-08 7.2682e-08 1.48233e-08 3.80198e-08 5.85302e-08 
-2.14867e-08 4.28596e-08 3.89841e-08 1.53464e-09 3.3315e-08 8.43155e-08 3.12019e-09 6.9955e-09 6.7422e-08 
-1.43874e-08 -7.65311e-09 6.01779e-08 1.66066e-08 1.49299e-08 5.85846e-08 9.65313e-10 -5.35161e-09 7.14153e-08 
-1.18895e-08 2.98143e-08 5.20458e-08 -1.2248e-09 -2.72268e-09 6.20625e-08 1.13077e-08 5.60075e-09 3.40176e-08 
-7.63859e-09 2.61811e-08 3.07451e-08 6.83128e-09 5.04018e-09 7.99558e-08 -8.09477e-09 3.12058e-08 6.3379e-08 
1.39641e-08 1.12425e-08 4.08575e-08 -1.01315e-09 8.27481e-09 4.15789e-08 2.1603e-08 2.64536e-08 3.12756e-08 
2.45027e-09 1.15442e-08 2.06654e-08 1.24068e-08 -2.05514e-08 5.62496e-08 -4.26674e-09 9.93025e-09 4.4642e-08 
-3.77564e-09 -4.00785e-09 2.40164e-08 1.77959e-09 -9.46457e-09 1.36602e-08 -1.8366e-08 1.64594e-08 4.56408e-08 
2.13906e-09 -2.88346e-08 4.86635e-08 1.93865e-08 2.53512e-08 1.82494e-08 1.06908e-08 1.30203e-08 4.12415e-08 
-4.834e-09 -1.13744e-08 4.0307e-08 -1.45408e-08 -1.02242e-08 4.76713e-08 1.84238e-08 -1.38313e-08 1.17156e-07 
1.74273e-08 3.63083e-08 8.15712e-08 -1.10343e-08 4.4926e-08 5.62655e-08 -4.71105e-09 9.8078e-09 7.22352e-08 
-1.95054e-08 -1.01193e-08 5.89032e-08 2.43649e-08 2.62604e-09 4.64247e-08 -1.87903e-08 4.78192e-08 7.49914e-08 
1.06792e-09 3.69787e-09 9.39957e-08 1.79231e-08 -1.40724e-08 7.37859e-08 1.97724e-09 -3.80786e-10 3.7693e-08 
-1.85937e-08 -5.30416e-08 8.12557e-08 2.00721e-08 1.02895e-08 8.1977e-08 3.09187e-09 -2.33004e-09 4.07338e-08 
-4.50031e-09 -1.38789e-08 8.43293e-08 1.68318e-08 -1.18896e-08 6.09245e-08 -3.07177e-08 -1.81604e-08 1.6411e-08 
-1.61315e-08 6.26761e-09 8.5432e-08 1.56877e-08 6.46001e-09 7.79322e-08 -1.33177e-08 2.64012e-09 9.07596e-08 
5.10569e-09 1.02218e-08 4.12258e-08 8.4366e-10 3.02195e-08 4.38209e-08 3.51603e-09 -2.83268e-09 9.31807e-08 
1.32434e-08 -1.73665e-08 9.57684e-08 -1.00624e-08 1.67899e-08 8.64727e-08 8.51989e-09 -3.57462e-08 7.99482e-08 
-2.30182e-08 6.20177e-08 3.59668e-08 1.37858e-08 -3.53557e-08 4.98306e-08 2.84965e-09 -5.68408e-08 2.6931e-08 
1.46186e-08 6.04354e-08 2.08364e-08 -3.61793e-08 1.98873e-09 6.83794e-08 -6.58762e-09 -9.97422e-10 1.06918e-07 
1.08138e-08 -2.3594e-08 -8.71686e-09 1.46747e-08 1.13193e-08 -4.95778e-08 1.38184e-08 -7.81545e-09 1.43558e-07 
-3.36827e-09 3.67527e-09 -3.34341e-08 -2.04712e-08 4.20278e-08 9.78025e-08 
radius 1 167 double
0.0001 0.0001 0.0001 0.0001 0.0001 0.0001 0.0001 0.0001 0.0001 
0.0001 0.0001 0.0001 0.0001 0.0001 0.0001 0.0001 0.0001 0.0001 
0.0001 0.0001 0.0001 0.0001 0.0001 0.0001 0.0001 0.0001 0.0001 
0.0001 0.0001 0.0001 0.0001 0.0001 0.0001 0.0001 0.0001 0.0001 
0.0001 0.0001 0.0001 0.0001 0.0001 0.0001 0.0001 0.0001 0.0001 
0.0001 0.0001 0.0001 0.0001 0.0001 0.0001 0.0001 0.0001 0.0001 
0.0001 0.0001 0.0001 0.0001 0.0001 0.0001 0.0001 0.0001 0.0001 
0.0001 0.0001 0.0001 0.0001 0.0001 0.0001 0.0001 0.0001 0.0001 
0.0001 0.0001 0.0001 0.0001 0.0001 0.0001 0.0001 0.0001 0.0001 
0.0001 0.0001 0.0001 0.0001 0.0001 0.0001 0.0001 0.0001 0.0001 
0.0001 0.0001 0.0001 0.0001 0.0001 0.0001 0.0001 0.0001 0.0001 
0.0001 0.0001 0.0001 0.0001 0.0001 0.0001 0.0001 0.0001 0.0001 
0.0001 0.0001 0.0001 0.0001 0.0001 0.0001 0.0001 0.0001 0.0001 
0.0001 0.0001 0.0001 0.0001 0.0001 0.0001 0.0001 0.0001 0.0001 
0.0001 0.0001 0.0001 0.0001 0.0001 0.0001 0.0001 0.0001 0.0001 
0.0001 0.0001 0.0001 0.0001 0.0001 0.0001 0.0001 0.0001 0.0001 
0.0001 0.0001 0.0001 0.0001 0.0001 0.0001 0.0001 0.0001 0.0001 
0.0001 0.0001 0.0001 0.0001 0.0001 0.0001 0.0001 0.0001 0.0001 
0.0001 0.0001 0.0001 0.0001 0.0001 
omega 3 167 double
0.119868 0.038056 -0.444981 0.360656 -0.283246 -0.248047 0.445415 0.0308278 0.147779 
-0.203891 0.0922276 0.823497 0.349489 0.153099 -0.177361 0.29647 -0.254194 -0.542827 
-0.652681 -1.5857 3.67408 -1.4484 1.46493 0.0719366 0.379114 0.490538 0.652591 
-0.11179 -0.173417 -2.02208 0.199866 -0.0122986 -0.705798 0.081966 -0.0608618 0.338604 
0.00652344 -0.0693256 0.623068 1.26737 -1.04383 1.46832 0.138948 -1.61256 -2.96608 
-0.484631 0.661734 0.543732 -0.9577 0.799483 -1.57665 0.397188 -1.00865 0.793627 
0.327241 -0.0934774 0.764189 0.0433053 -0.32683 0.111148 -0.0928377 0.0881262 0.625342 
-0.539111 -0.959347 0.118072 0.347111 0.377 0.0340835 0.264091 0.269723 0.92395 
-0.496576 -0.637265 -0.429939 -0.997465 0.388118 -1.03702 0.07604 -0.358363 1.85189 
-0.77108 -1.71926 -1.41575 -0.0284905 0.293424 -0.896425 0.0850374 2.47746 -0.880341 
-0.0962102 -0.743905 -0.23824 -0.212715 -0.912411 0.454105 0.792347 0.888542 0.731346 
-0.391173 -0.0916281 0.110923 0.658268 0.565695 -1.55162 -0.743457 -2.09129 -0.93287 
1.62928 -2.55455 0.38256 -0.722577 1.15565 -2.38648 0.434771 -0.762717 -0.222343 
-0.194354 0.299883 1.66265 -0.534977 0.142839 -2.4881 -0.841913 -0.159362 0.0370269 
0.539349 -0.45078 -0.412437 -0.525107 0.736265 2.15366 0.49183 0.131394 0.0128576 
-0.447212 0.36901 -0.880622 1.83222 -1.16245 0.878454 -1.70333 2.13819 -0.789372 
-0.130321 -0.397291 -0.34467 1.17251 -0.0483073 0.475219 -1.277 -0.687781 -1.08558 
0.188925 0.684407 -0.628464 -0.740366 -1.28936 1.08478 -0.0852291 0.125135 -1.06758 
2.05272 -0.72554 -0.0354741 -1.18617 1.53883 -0.460337 -1.04345 1.61186 1.02698 
0.204922 -1.88538 0.123018 -0.205841 0.987264 0.4945 -1.06969 1.56419 -0.479585 
0.327304 0.58517 -0.0968536 0.367396 -0.651326 -0.252124 -0.943318 -0.456985 0.296261 
1.10996 1.90175 0.720423 0.999292 1.43995 1.86623 1.01948 -0.48975 -0.945741 
0.349335 0.107541 0.296763 -0.732016 -1.61565 -0.401053 -0.49785 1.93366 -1.48137 
0.115044 0.626367 0.378267 -1.36565 1.49444 -1.99374 0.0166645 1.12427 0.242563 
-1.07806 2.30425 0.586109 -3.6212 1.07306 -1.98575 0.145987 -0.646077 -0.392723 
-0.182346 -1.79411 -0.0982862 -2.42042 0.703705 1.22675 3.60299 -2.60327 -0.644392 
-5.5733 1.55479 0.487873 -0.670066 0.186151 -0.67819 -0.00880017 -0.314988 0.527402 
0.959092 0.235826 0.794985 -1.67208 -0.136327 0.0721582 -1.66288 0.844006 -0.740762 
1.27776 -0.292834 -0.32359 -0.00922157 0.449941 0.157504 -0.294892 3.33049 -0.696571 
0.539187 0.750915 -0.26903 0.323552 0.232847 0.047998 -0.186849 0.175256 0.0871967 
0.497814 0.337973 -0.0922296 -0.468261 -2.56574 -0.225191 -0.0336756 3.58285 -1.37912 
0.530147 -1.75504 0.861332 -0.0323861 -0.126825 -0.00906181 1.68433 -0.478465 0.679336 
-0.706798 0.28963 -0.509364 0.420799 1.77826 0.308145 2.25172 -1.95101 -0.231653 
2.63793 -1.08527 0.50617 0.586389 -0.512598 -2.41683 -0.530154 2.01685 -0.982416 
-0.550215 -3.84586 1.01747 -0.628361 -0.772968 0.706936 -1.92766 -2.05947 0.471571 
-3.14667 0.089559 -0.302555 0.639082 3.33639 -0.350664 0.212191 1.89566 -1.57762 
2.41324 -1.80139 -0.150351 -1.8186 -2.91402 -0.795875 -3.83206 -1.22842 -2.7201 
2.36956 1.16989 3.37059 0.388868 -1.1386 -1.11203 -1.12503 -1.33756 2.18522 
0.796061 0.44587 0.795363 0.595902 -0.733695 -0.479457 0.96309 -0.705595 0.198867 
2.32437 -1.28117 -0.420894 -0.145042 -1.16958 -0.710253 -1.78754 -3.08281 -2.43444 
-2.5935 -4.31655 3.08999 -0.0625537 -1.36216 1.96453 0.496741 0.0744894 -0.134412 
-0.365955 -1.32383 0.0130104 -1.08782 -0.709801 0.529938 0.187232 1.29897 -1.29844 
1.54328 1.82321 1.38158 -1.53808 2.15628 1.25476 4.07645 -2.61774 -0.653877 
-1.15398 -0.149738 -0.60324 -3.38198 0.0256734 -0.340045 1.17885 1.75838 -0.942643 
1.10637 -2.76188 2.44924 1.99418 0.489483 2.36731 1.2356 1.46705 -1.25064 
0.252431 -3.07776 2.76758 -0.503424 4.56763 4.57834 -5.62774 -4.25035 3.67555 
1.20332 -2.31989 -0.769819 -0.0740924 4.10345 0.638992 2.3297 2.61161 0.521068 
4.29139 0.302041 3.44986 -0.40635 0.578722 1.39329 0.0831455 0.230337 -1.13678 
3.70173 -3.7065 0.641976 -1.41785 0.230749 -0.747009 -4.88978 -1.35929 4.89894 
-0.089985 -2.64322 1.1099 -2.12672 0.501278 0.954169 0.0995339 -0.488243 1.24425 
4.18401 -1.14671 -0.208837 -2.6894 0.358719 1.96593 -0.990743 -0.376623 -0.711707 
2.85856 1.28101 0.413406 2.12079 1.02062 -1.1763 2.27644 -2.03923 0.670804 
0.367394 0.205519 -0.842059 -1.54429 1.73893 -0.47194 3.69954 3.19733 -1.23617 
2.74268 -1.94175 0.200335 1.40703 1.56906 -4.32851 0.632026 -0.147021 -1.44754 
-1.73249 -2.81864 -0.517955 1.06136 1.49763 -0.103901 0.467666 0.970314 -0.154927 
-0.439585 1.43479 -2.6108 -1.0281 -1.82397 -1.6991 
