# vtk DataFile Version 4.0
Generated by LIGGGHTS
ASCII
DATASET POLYDATA
POINTS 167 float
-0.000467234 -0.000421334 9.99794e-05 -0.000342011 -0.000459176 0.000262487 -0.000275812 -0.000363051 9.99794e-05 
-0.000140162 -0.000320709 0.000241193 -9.57211e-05 -0.00045506 9.99131e-05 4.79865e-05 -0.000417058 0.000233648 
0.000197049 -0.000390619 9.99627e-05 0.000384666 -0.000387216 0.000248425 -0.000443208 -0.000286766 0.00026487 
-0.00038065 -0.000192658 9.9911e-05 -0.000180736 -0.000185139 9.99124e-05 -0.000281895 -0.000156794 0.000269985 
-3.49166e-06 -0.000277636 9.99049e-05 6.35078e-05 -0.000193023 0.00026817 0.000177072 -0.000191673 9.99184e-05 
0.000299033 -0.000200855 0.000258047 0.000474221 -0.000110194 0.000220367 0.000408405 -0.000255527 9.98825e-05 
-0.000477721 4.19888e-05 9.99257e-05 -0.00038072 1.69518e-05 0.000272955 -0.000285619 -1.48899e-05 9.99577e-05 
-0.000104366 -5.61862e-05 0.000232305 -0.000102325 9.36909e-05 9.99304e-05 4.48618e-05 -4.16704e-05 9.99631e-05 
3.90615e-05 9.91048e-05 0.000241854 0.000185701 -3.68035e-05 0.000242661 0.000324167 -5.62172e-05 9.98593e-05 
0.000363495 5.44083e-05 0.000261721 -0.000332552 0.000179487 9.99208e-05 -0.000485732 0.000184641 0.00024454 
-0.000218692 0.000133105 0.000257642 -0.000170175 0.000296591 9.99554e-05 -6.89219e-05 0.000265049 0.000269471 
3.39672e-05 0.000240037 9.99051e-05 0.000181499 0.000104761 9.99794e-05 0.000129698 0.000287995 0.000268759 
0.000343733 0.00028726 0.00026337 0.000370235 0.000171892 9.99747e-05 -0.000324784 0.0003026 0.000257218 
-0.000323858 0.000425916 9.98965e-05 -0.000494922 0.000322284 9.98884e-05 -0.000174072 0.00043351 0.000246232 
7.21761e-05 0.000436309 9.99315e-05 0.000232638 0.000317011 9.98767e-05 0.000219082 0.000463676 0.0002351 
0.000366518 0.00046673 9.99794e-05 0.000485126 0.000440284 0.000260032 -0.000483259 -0.000424651 0.000404027 
-0.000276033 -0.000318084 0.000387884 -0.000166012 -0.000480491 0.000426539 -1.81249e-05 -0.000327088 0.000399511 
0.000108928 -0.000457949 0.000481538 0.000208279 -0.000359789 0.000338498 -0.000435303 -0.000136572 0.000396639 
-9.5848e-05 -0.000152455 0.000458166 0.00015096 -0.000202373 0.000447698 0.000407061 -0.000257921 0.000416268 
-0.000233111 -1.63038e-05 0.000403609 5.05826e-05 -3.47027e-05 0.000389968 0.000294217 -6.83159e-05 0.000407636 
-0.000352988 0.000167389 0.000401747 -0.000202019 0.000297808 0.000414976 -8.19223e-05 0.000114551 0.000402308 
4.59542e-05 0.000261204 0.000448305 0.000203443 0.000125219 0.000358477 0.000452626 0.000127094 0.000425799 
-0.00036336 0.000415888 0.000417334 -6.9044e-07 0.00043211 0.000355537 0.000240993 0.000306594 0.000433841 
0.000337434 0.000485044 0.000394843 0.000457374 0.000327525 0.000422848 -0.000335733 -0.000430389 0.000542109 
-0.000155909 -0.000320868 0.000547696 -5.56014e-05 -0.000487758 0.000593073 4.60766e-05 -0.000300191 0.000587063 
0.000284499 -0.000372604 0.000524895 0.000165459 -0.0004367 0.000672193 0.000494023 -0.000332633 0.000580102 
0.000364217 -0.0004256 0.000700484 -0.00033332 -0.000284662 0.000678977 -0.000415422 -0.000102354 0.000681132 
-0.00028412 -0.000169391 0.000523193 -2.63804e-05 -0.000122515 0.000643242 0.000266717 -0.000192735 0.00061043 
0.000434539 -0.000105732 0.00054527 -0.000409929 1.76403e-05 0.000521288 -0.000148882 2.25633e-05 0.000580681 
0.000141047 -4.30618e-05 0.000568122 0.000289911 8.61419e-05 0.000534485 0.000451595 7.88449e-05 0.000651889 
-0.000403434 0.000280361 0.000558815 -0.000305825 0.000118638 0.000658907 -0.000145447 0.000222237 0.000591259 
2.59689e-05 0.000119282 0.000587702 0.000190241 0.000213401 0.00065209 0.000379304 0.000255474 0.000592209 
-0.000225792 0.00040708 0.000580706 9.55405e-05 0.00038159 0.000600018 0.000287893 0.000433021 0.000581473 
0.000491609 0.000462014 0.000566838 -0.000466611 -0.000377477 0.000795608 -0.000261819 -0.00038646 0.000835529 
-9.22094e-05 -0.000351498 0.000734763 0.000220594 -0.000462158 0.000882561 -0.000323017 -0.000195094 0.000857458 
-0.000216831 -0.000120488 0.000705007 -0.000133774 -0.000244836 0.000898709 5.33865e-05 -0.00022761 0.000793455 
0.000243142 -0.000289889 0.000783594 0.000200665 -0.0001106 0.000861298 0.000426822 -0.000215988 0.000727956 
-0.000321104 3.8278e-06 0.00082192 -7.03112e-05 -6.79035e-05 0.000830494 8.95187e-05 2.15856e-05 0.000750215 
0.000284323 -1.75946e-05 0.000705312 0.000284314 6.94003e-05 0.000885404 0.000450607 -3.73483e-05 0.000814603 
-0.000441771 0.000162793 0.000798751 -0.000269605 0.000296969 0.000741768 -0.000112781 0.000112655 0.00075549 
-2.14943e-05 0.000289167 0.000733217 0.000148313 0.000212889 0.000847588 0.000347356 0.00023237 0.000788226 
-0.00035155 0.000477968 0.000719087 -0.000496636 0.000340469 0.000725191 -0.00042296 0.000441041 0.000902147 
-0.000139593 0.000312143 0.000892958 -0.00015665 0.000460934 0.000760414 3.99325e-05 0.000469071 0.000796058 
0.000215242 0.000379814 0.000760134 0.000382177 0.000421953 0.000861768 -0.000447623 -0.000383264 0.000994581 
-0.000256691 -0.000334418 0.00102855 -8.79221e-05 -0.000438847 0.000919212 8.13669e-05 -0.000339394 0.000956857 
-9.76954e-05 -0.000487268 0.00111298 0.000361446 -0.000463722 0.00102452 -0.000468018 -0.000222802 0.00111217 
-6.77249e-05 -0.000292064 0.00108146 4.15161e-05 -0.000144539 0.000977499 0.000241183 -0.000244571 0.00103069 
0.000396704 -0.000288964 0.000911696 -0.000437741 -8.07427e-05 0.000974712 -0.000352906 8.45409e-05 0.00104871 
-0.000212262 -7.26256e-05 0.000971253 6.59541e-06 9.27004e-05 0.000921408 -5.66023e-05 -6.15308e-06 0.00108336 
0.000357282 -8.86437e-05 0.000983846 0.000466647 9.54129e-05 0.000963263 -0.00033086 0.000265661 0.000929551 
-0.000190074 0.000123987 0.000939557 -1.39159e-05 0.000207634 0.00108376 0.000166895 0.000137786 0.00103212 
0.000280924 0.000291738 0.000974794 0.000479942 0.000292512 0.000994328 -0.000407749 0.00045233 0.00110122 
-0.000242794 0.000454876 0.000987724 4.71524e-05 0.000347901 0.000954965 9.76637e-05 -0.000446217 0.00112512 
0.000366816 -0.000322088 0.00116559 -0.000319998 -9.09857e-05 0.00113872 0.000463743 -9.49182e-06 0.0011335 
-0.000358592 0.000262396 0.00113995 -0.000187115 0.000129333 0.00115116 0.000349169 0.000161957 0.00111079 
-0.000169955 0.000326517 0.00112266 0.000161788 0.000364493 0.00111799 
VERTICES 167 334
1 0 
1 1 
1 2 
1 3 
1 4 
1 5 
1 6 
1 7 
1 8 
1 9 
1 10 
1 11 
1 12 
1 13 
1 14 
1 15 
1 16 
1 17 
1 18 
1 19 
1 20 
1 21 
1 22 
1 23 
1 24 
1 25 
1 26 
1 27 
1 28 
1 29 
1 30 
1 31 
1 32 
1 33 
1 34 
1 35 
1 36 
1 37 
1 38 
1 39 
1 40 
1 41 
1 42 
1 43 
1 44 
1 45 
1 46 
1 47 
1 48 
1 49 
1 50 
1 51 
1 52 
1 53 
1 54 
1 55 
1 56 
1 57 
1 58 
1 59 
1 60 
1 61 
1 62 
1 63 
1 64 
1 65 
1 66 
1 67 
1 68 
1 69 
1 70 
1 71 
1 72 
1 73 
1 74 
1 75 
1 76 
1 77 
1 78 
1 79 
1 80 
1 81 
1 82 
1 83 
1 84 
1 85 
1 86 
1 87 
1 88 
1 89 
1 90 
1 91 
1 92 
1 93 
1 94 
1 95 
1 96 
1 97 
1 98 
1 99 
1 100 
1 101 
1 102 
1 103 
1 104 
1 105 
1 106 
1 107 
1 108 
1 109 
1 110 
1 111 
1 112 
1 113 
1 114 
1 115 
1 116 
1 117 
1 118 
1 119 
1 120 
1 121 
1 122 
1 123 
1 124 
1 125 
1 126 
1 127 
1 128 
1 129 
1 130 
1 131 
1 132 
1 133 
1 134 
1 135 
1 136 
1 137 
1 138 
1 139 
1 140 
1 141 
1 142 
1 143 
1 144 
1 145 
1 146 
1 147 
1 148 
1 149 
1 150 
1 151 
1 152 
1 153 
1 154 
1 155 
1 156 
1 157 
1 158 
1 159 
1 160 
1 161 
1 162 
1 163 
1 164 
1 165 
1 166 

POINT_DATA 167
FIELD FieldData 7
id 1 167 int
4 46 28 51 7 18 9 20 44 
19 27 47 1 29 11 34 40 15 
3 42 14 30 24 10 23 38 26 
49 12 32 35 25 37 13 16 31 
45 2 33 17 21 36 8 5 22 
6 39 63 62 58 54 77 41 52 
67 73 56 53 55 61 60 75 64 
68 43 57 71 48 69 50 59 90 
65 94 89 72 96 86 106 97 88 
76 99 81 87 66 79 85 74 101 
84 102 80 92 93 78 91 83 82 
70 131 126 105 124 118 104 125 112 
110 114 98 109 116 119 100 130 111 
120 115 123 95 122 107 113 103 138 
129 108 132 117 133 146 151 144 139 
161 142 162 158 147 150 134 121 149 
135 127 152 137 140 128 136 155 143 
141 145 159 153 148 156 165 160 154 
166 157 163 164 167 
type 1 167 int
1 1 1 1 1 1 1 1 1 
1 1 1 1 1 1 1 1 1 
1 1 1 1 1 1 1 1 1 
1 1 1 1 1 1 1 1 1 
1 1 1 1 1 1 1 1 1 
1 1 1 1 1 1 1 1 1 
1 1 1 1 1 1 1 1 1 
1 1 1 1 1 1 1 1 1 
1 1 1 1 1 1 1 1 1 
1 1 1 1 1 1 1 1 1 
1 1 1 1 1 1 1 1 1 
1 1 1 1 1 1 1 1 1 
1 1 1 1 1 1 1 1 1 
1 1 1 1 1 1 1 1 1 
1 1 1 1 1 1 1 1 1 
1 1 1 1 1 1 1 1 1 
1 1 1 1 1 1 1 1 1 
1 1 1 1 1 1 1 1 1 
1 1 1 1 1 
i 3 167 int
1 1 0 0 1 0 0 1 0 
0 0 0 0 1 0 0 0 0 
-1 0 0 0 0 0 0 1 0 
0 0 0 0 0 0 0 0 0 
0 0 0 0 0 0 -1 0 0 
0 0 0 0 0 0 -1 0 0 
0 0 0 0 0 0 0 0 0 
0 0 0 1 0 0 0 0 0 
0 0 0 0 0 0 -1 0 0 
0 0 0 0 0 0 0 0 0 
0 0 0 1 0 0 0 0 0 
0 0 0 0 0 0 0 0 0 
0 0 0 0 0 0 0 0 0 
0 -1 0 1 -1 0 0 -1 0 
0 -1 0 0 0 0 0 0 0 
0 -1 0 0 0 0 0 1 0 
1 0 0 0 0 0 0 0 0 
0 0 0 0 0 0 0 0 0 
0 0 0 0 0 0 0 0 0 
0 0 0 0 0 0 0 0 0 
0 0 0 0 0 0 0 0 0 
0 0 0 0 0 0 0 0 0 
0 0 0 0 0 0 0 0 0 
0 -1 0 0 0 0 0 0 0 
0 0 0 0 0 0 0 0 0 
0 0 0 0 0 0 0 0 0 
-1 0 0 0 0 0 0 0 0 
0 0 0 0 0 0 0 0 0 
0 0 0 0 0 0 0 0 0 
0 0 0 0 0 0 0 0 0 
0 0 0 0 0 0 0 0 0 
0 0 0 0 0 0 0 0 0 
0 0 0 0 0 0 0 -1 0 
-1 -1 0 0 0 0 0 0 0 
0 0 0 0 0 0 0 0 0 
0 0 0 0 0 0 0 0 0 
0 0 0 0 0 0 -1 0 0 
0 0 0 0 0 0 0 0 0 
0 0 0 0 0 0 0 0 0 
0 0 0 0 0 0 0 0 0 
0 0 0 0 0 0 0 0 0 
0 -1 0 1 0 0 0 0 0 
0 0 0 0 0 0 0 -1 0 
0 0 0 0 0 0 0 0 0 
0 0 0 0 1 0 0 0 0 
0 0 0 0 0 0 1 0 0 
0 0 0 0 0 0 0 0 0 
0 0 0 1 0 0 0 0 0 
0 0 0 0 0 0 0 0 0 
0 0 0 -1 0 0 0 0 0 
0 0 0 0 0 0 0 0 0 
0 0 0 0 -1 0 0 -1 0 
0 0 0 0 0 0 0 0 0 
0 0 0 0 0 0 0 0 0 
0 0 0 0 0 0 0 0 0 
0 0 0 0 0 0 
v 3 167 double
1.63678e-05 -6.39677e-05 -4.99822e-15 1.2263e-07 9.56772e-08 -1.27893e-08 1.616e-05 2.19713e-06 4.97867e-15 
1.09024e-07 9.74627e-08 -3.32709e-09 5.63495e-08 4.66398e-08 1.28615e-08 9.9987e-08 7.83869e-08 -1.52755e-08 
7.60135e-08 3.80118e-08 5.04824e-09 1.16522e-07 8.59572e-08 1.69834e-09 1.28256e-07 1.05563e-07 9.25248e-09 
6.81373e-08 6.88793e-08 2.08556e-09 6.17758e-08 5.80441e-08 -3.29807e-09 1.06817e-07 1.04127e-07 -8.23638e-10 
4.15134e-08 3.6991e-08 -9.48103e-09 8.62095e-08 7.57578e-08 -1.45816e-08 4.5579e-08 3.12668e-08 9.17749e-09 
1.07142e-07 9.09154e-08 2.2095e-09 9.98227e-08 8.034e-08 -4.49183e-09 6.65629e-08 5.51608e-08 -1.46776e-09 
5.24987e-08 4.92456e-08 1.16527e-08 1.0397e-07 9.78147e-08 1.21678e-08 6.23091e-08 5.11597e-08 -2.93376e-10 
6.02353e-08 4.75412e-08 -3.74914e-10 5.397e-08 4.87029e-08 1.01748e-08 6.04442e-08 5.28847e-08 6.89058e-09 
9.66734e-08 9.54854e-08 -2.5352e-08 9.61869e-08 8.96498e-08 -5.55687e-09 6.68981e-08 4.13428e-08 -9.68705e-09 
1.07638e-07 8.70584e-08 -2.59286e-08 4.74065e-08 4.899e-08 -8.32422e-09 1.14888e-07 1.0044e-07 7.15045e-09 
1.03858e-07 9.57784e-08 6.47674e-09 1.4745e-06 4.61394e-06 8.33316e-09 1.07956e-07 8.82771e-08 -4.20686e-09 
5.35762e-08 3.88091e-08 -3.04548e-09 5.40259e-06 9.24333e-06 5.44499e-16 9.64031e-08 8.06903e-08 -1.7489e-09 
1.1026e-07 1.10142e-07 -1.17786e-08 4.39907e-08 4.33567e-08 3.16038e-09 1.18848e-07 9.46307e-08 -1.9765e-09 
5.76744e-08 5.2148e-08 -9.45182e-09 8.07588e-08 6.49268e-08 -3.69618e-09 1.05617e-07 8.41594e-08 6.24855e-09 
5.57624e-08 3.80495e-08 -5.79364e-09 6.11332e-08 4.20345e-08 -8.32527e-09 1.27634e-07 6.39841e-08 -7.13369e-09 
1.84689e-06 6.80402e-07 2.76159e-15 1.42275e-07 1.09989e-07 -1.95918e-08 1.41503e-07 1.18389e-07 -1.13486e-08 
1.3049e-07 9.93998e-08 -1.88097e-08 1.36696e-07 1.09969e-07 -1.40164e-08 1.42971e-07 1.3463e-07 -2.35646e-08 
1.25315e-07 1.30664e-07 -8.47468e-10 1.22311e-07 9.03569e-08 -5.1685e-09 1.32012e-07 1.20134e-07 1.6321e-09 
1.6952e-07 1.49274e-07 -7.63484e-09 1.66408e-07 1.22151e-07 -3.06072e-08 1.44677e-07 1.25434e-07 1.19236e-09 
1.23964e-07 1.11852e-07 3.81033e-09 1.45332e-07 1.43092e-07 -5.05196e-09 1.36906e-07 1.13143e-07 -1.33528e-08 
1.29569e-07 1.21232e-07 8.76094e-10 1.40007e-07 1.16548e-07 -1.37865e-09 1.17078e-07 1.24659e-07 1.47177e-08 
1.33708e-07 1.28524e-07 1.28291e-08 1.28888e-07 1.05719e-07 3.14465e-09 1.44866e-07 1.13249e-07 -1.85664e-09 
1.42177e-07 1.11724e-07 -4.11839e-09 1.25177e-07 9.49247e-08 5.13596e-09 1.29277e-07 1.24599e-07 -3.50136e-09 
1.43754e-07 9.80428e-08 -1.10714e-08 1.3654e-07 1.2406e-07 -1.12309e-08 1.66669e-07 1.37661e-07 -7.88402e-09 
1.77623e-07 1.41041e-07 -4.49208e-08 1.70749e-07 1.31269e-07 -2.25822e-08 1.63042e-07 1.46795e-07 8.06786e-10 
1.58858e-07 1.30764e-07 -2.82456e-08 1.9351e-07 1.71919e-07 -3.41164e-09 1.73019e-07 1.40258e-07 -3.76745e-09 
1.82946e-07 1.46355e-07 -1.0414e-08 1.94136e-07 1.64448e-07 -1.86461e-08 2.05567e-07 1.62248e-07 -1.559e-08 
1.73324e-07 1.45358e-07 -2.81491e-08 2.06416e-07 1.66041e-07 -2.23179e-08 1.90418e-07 1.58383e-07 -2.34988e-08 
1.82957e-07 1.52621e-07 8.37493e-09 1.74433e-07 1.44149e-07 -7.8396e-09 1.77994e-07 1.3926e-07 -1.78762e-08 
1.87463e-07 1.48634e-07 -4.55376e-08 1.75551e-07 1.31974e-07 -9.71714e-09 1.95466e-07 1.58947e-07 -1.32934e-08 
1.96841e-07 1.47569e-07 -2.28723e-09 2.03834e-07 1.62831e-07 1.69558e-09 1.63666e-07 1.29829e-07 2.66783e-09 
1.77612e-07 1.40799e-07 -8.7876e-09 1.96926e-07 1.50799e-07 -8.27637e-09 1.67747e-07 1.33181e-07 -9.55678e-09 
1.90422e-07 1.56995e-07 3.14828e-09 1.75261e-07 1.3593e-07 -5.99289e-10 1.63207e-07 1.395e-07 -2.61569e-09 
1.97172e-07 1.50432e-07 -9.22563e-09 1.98867e-07 1.79854e-07 -1.18056e-08 2.28706e-07 2.04008e-07 -9.98452e-09 
2.58521e-07 1.98146e-07 -6.68758e-08 2.42308e-07 1.99776e-07 -3.32256e-08 3.16983e-07 2.85394e-07 -8.39506e-08 
2.46999e-07 2.11138e-07 -5.06143e-08 2.9555e-07 2.20593e-07 -8.65251e-08 2.44362e-07 1.97052e-07 -3.34707e-08 
2.09186e-07 1.87316e-07 -2.85628e-08 2.27289e-07 2.06314e-07 -5.29901e-09 1.98158e-07 1.78644e-07 5.1517e-09 
2.04683e-07 1.47611e-07 -4.4788e-09 2.60804e-07 2.4025e-07 -4.63609e-08 2.51694e-07 1.65763e-07 -4.43692e-08 
1.94805e-07 1.67653e-07 -1.28747e-08 2.43527e-07 2.00407e-07 3.69587e-08 2.29249e-07 1.98133e-07 -1.03634e-08 
1.97651e-07 2.04251e-07 -1.86628e-08 2.21046e-07 1.8557e-07 1.30009e-08 1.97098e-07 1.09078e-07 -3.69501e-09 
1.85671e-07 1.25058e-07 2.05368e-09 2.52959e-07 1.97193e-07 7.57028e-09 2.40656e-07 1.95985e-07 1.14223e-08 
2.27138e-07 1.75109e-07 1.56293e-08 2.41119e-07 1.75772e-07 -1.04659e-08 2.26677e-07 2.19759e-07 1.23129e-08 
2.31351e-07 1.79814e-07 1.49932e-08 2.32724e-07 1.9786e-07 -1.68426e-09 2.24321e-07 1.84182e-07 7.0109e-09 
2.19177e-07 1.7655e-07 -2.2511e-08 2.37617e-07 1.98558e-07 -4.20768e-08 2.7218e-07 3.17634e-07 -2.74015e-08 
2.02898e-07 4.86953e-07 -5.26131e-08 2.41084e-07 2.19971e-07 1.92435e-09 2.66009e-07 2.09638e-07 -2.51339e-08 
2.68648e-07 2.8224e-07 2.00238e-08 4.15132e-07 4.44735e-07 -2.10944e-07 3.45115e-07 3.94947e-07 -7.67999e-08 
2.81534e-07 2.75871e-07 -6.36883e-08 2.22167e-07 1.95342e-07 -2.81842e-08 2.3643e-07 2.63246e-07 6.18854e-08 
1.48597e-07 9.36582e-08 -1.58228e-08 3.79964e-07 3.24826e-07 -8.37039e-08 2.23027e-07 3.43356e-07 9.47524e-09 
3.55043e-07 4.12869e-07 3.68837e-08 2.61531e-07 2.13051e-07 1.64753e-08 1.68815e-07 1.84517e-07 -4.61218e-08 
2.99702e-07 2.15368e-07 2.67759e-08 2.52516e-07 2.49328e-07 -2.68294e-08 2.45134e-07 1.98679e-07 4.79675e-09 
2.65283e-07 2.19403e-07 2.79989e-08 2.42061e-07 2.40147e-07 4.85605e-09 2.58192e-07 2.35708e-07 2.91819e-08 
2.45285e-07 2.23627e-07 -2.32126e-08 2.18125e-07 2.3693e-07 -8.40062e-09 6.03478e-07 4.12595e-07 -1.1671e-08 
2.17601e-07 2.83853e-07 4.05839e-08 2.50255e-07 1.97175e-07 -2.06932e-09 2.88665e-07 2.53681e-07 -1.44059e-08 
4.17575e-07 2.79046e-07 -6.62356e-08 3.59661e-07 3.84017e-07 3.41238e-08 3.81997e-07 2.41485e-07 -1.77552e-08 
2.82373e-07 3.44462e-07 1.99202e-08 2.68464e-07 2.69001e-07 -1.30331e-08 2.81568e-07 2.64779e-07 4.00183e-09 
2.83688e-07 2.76144e-07 1.91899e-08 2.64437e-07 2.43462e-07 -2.04633e-08 
f 3 167 double
1.00371e-23 4.19036e-23 0 -1.21499e-11 -6.77491e-12 7.01344e-13 1.0528e-23 1.16704e-24 0 
-1.03162e-11 -7.28963e-12 2.81822e-13 -5.30555e-12 -3.4273e-12 -1.14001e-12 -9.49919e-12 -5.74101e-12 1.32956e-12 
-6.95956e-12 -2.92486e-12 -5.16608e-13 -1.16194e-11 -5.8004e-12 2.55105e-13 -1.25093e-11 -7.61485e-12 -6.89376e-13 
-6.46228e-12 -5.02649e-12 -2.41795e-13 -5.72549e-12 -4.30712e-12 2.9103e-13 -1.03283e-11 -7.6253e-12 1.10653e-13 
-3.83765e-12 -2.73721e-12 6.59387e-13 -8.6542e-12 -5.19822e-12 8.87327e-13 -4.51066e-12 -2.15495e-12 -8.06252e-13 
-1.05791e-11 -6.23413e-12 -3.6305e-13 -9.93715e-12 -5.52136e-12 6.05924e-13 -6.62277e-12 -3.87376e-12 3.47392e-13 
-5.01214e-12 -3.55414e-12 -1.08511e-12 -1.00843e-11 -7.15174e-12 -1.10962e-12 -5.79982e-12 -3.80164e-12 4.83011e-14 
-5.67523e-12 -3.33793e-12 6.51637e-14 -5.26487e-12 -3.4321e-12 -9.04429e-13 -5.74066e-12 -3.94035e-12 -5.82076e-13 
-9.46264e-12 -6.72952e-12 1.85628e-12 -9.60973e-12 -6.06558e-12 2.17898e-13 -6.64039e-12 -2.55937e-12 8.06806e-13 
-1.08609e-11 -5.75657e-12 2.05132e-12 -4.73417e-12 -3.53898e-12 6.57581e-13 -1.12347e-11 -7.25221e-12 -3.9215e-13 
-1.02294e-11 -6.83268e-12 -5.18899e-13 -5.40704e-12 -3.0387e-12 -8.31027e-13 -1.0751e-11 -6.12117e-12 4.19714e-13 
-5.48139e-12 -2.58808e-12 3.94687e-13 2.74263e-25 -5.53158e-24 0 -9.81945e-12 -5.69477e-12 1.74543e-13 
-1.09826e-11 -8.60088e-12 1.45062e-12 -4.10219e-12 -3.64669e-12 -3.58606e-13 -1.17483e-11 -6.73063e-12 1.5231e-13 
-5.96054e-12 -3.66428e-12 6.42023e-13 -7.84218e-12 -4.59365e-12 3.3884e-13 -1.06013e-11 -5.89448e-12 -4.43146e-13 
-5.10983e-12 -2.80467e-12 5.34602e-13 -5.92675e-12 -3.4859e-12 8.27168e-13 -1.20368e-11 -4.83539e-12 4.07362e-13 
-9.00301e-25 -2.10858e-25 0 -1.39613e-11 -7.93719e-12 1.47886e-12 -1.42369e-11 -8.60424e-12 9.48403e-13 
-1.30062e-11 -6.98761e-12 1.29353e-12 -1.38362e-11 -7.61559e-12 1.24838e-12 -1.37975e-11 -9.78218e-12 1.75291e-12 
-1.2993e-11 -9.1352e-12 1.616e-13 -1.20676e-11 -5.96793e-12 7.96214e-13 -1.3092e-11 -8.68748e-12 -4.77362e-15 
-1.64728e-11 -1.08501e-11 1.68682e-13 -1.64779e-11 -8.28995e-12 2.52859e-12 -1.4331e-11 -9.02719e-12 -2.84639e-13 
-1.22279e-11 -7.7919e-12 -2.85495e-13 -1.40669e-11 -1.03511e-11 3.29723e-13 -1.33423e-11 -7.89722e-12 9.80549e-13 
-1.27594e-11 -8.73727e-12 -3.63769e-15 -1.37245e-11 -8.26665e-12 3.71781e-13 -1.16564e-11 -8.88783e-12 -1.37056e-12 
-1.36237e-11 -8.92503e-12 -1.00964e-12 -1.28445e-11 -7.56765e-12 -3.0332e-13 -1.41077e-11 -8.12557e-12 3.48662e-14 
-1.40743e-11 -7.91518e-12 3.60078e-13 -1.24377e-11 -6.53064e-12 -4.38228e-13 -1.32295e-11 -9.14581e-12 4.63961e-13 
-1.41748e-11 -6.72416e-12 1.07541e-12 -1.35785e-11 -8.90318e-12 1.25772e-12 -1.66339e-11 -9.70508e-12 5.14613e-13 
-1.72534e-11 -1.00379e-11 3.53519e-12 -1.704e-11 -9.11552e-12 2.06839e-12 -1.64427e-11 -1.03458e-11 -2.06089e-13 
-1.59786e-11 -9.15244e-12 2.2983e-12 -1.92846e-11 -1.21127e-11 2.60188e-13 -1.72171e-11 -9.94901e-12 3.22936e-13 
-1.86394e-11 -1.03639e-11 8.6999e-13 -1.96105e-11 -1.17396e-11 1.5025e-12 -2.0215e-11 -1.15417e-11 1.30145e-12 
-1.67159e-11 -1.04036e-11 2.24714e-12 -2.00873e-11 -1.18016e-11 1.63641e-12 -1.86922e-11 -1.11307e-11 1.77552e-12 
-1.79928e-11 -1.07623e-11 -9.30368e-13 -1.71541e-11 -1.03831e-11 7.65298e-13 -1.75188e-11 -9.56608e-12 1.51553e-12 
-1.84053e-11 -1.05073e-11 3.69341e-12 -1.72092e-11 -9.2342e-12 6.36016e-13 -1.91889e-11 -1.13576e-11 9.20298e-13 
-1.96482e-11 -1.04654e-11 -7.53737e-14 -1.99264e-11 -1.16886e-11 1.77264e-13 -1.64058e-11 -8.95731e-12 7.29035e-14 
-1.7528e-11 -9.8206e-12 7.48347e-13 -1.9176e-11 -1.05437e-11 5.14306e-13 -1.68346e-11 -9.18318e-12 9.76603e-13 
-1.87477e-11 -1.11893e-11 -1.36124e-13 -1.75978e-11 -9.43709e-12 1.73469e-13 -1.6534e-11 -9.8143e-12 8.05954e-14 
-2.01475e-11 -1.06269e-11 6.85486e-13 -2.03151e-11 -1.27051e-11 7.01893e-13 -2.3252e-11 -1.49999e-11 1.15383e-12 
-2.46334e-11 -1.40426e-11 5.25204e-12 -2.38022e-11 -1.40354e-11 2.76186e-12 -2.99021e-11 -2.03238e-11 6.22836e-12 
-2.30185e-11 -1.56605e-11 3.94322e-12 -2.82664e-11 -1.54292e-11 6.35278e-12 -2.34352e-11 -1.39312e-11 2.58361e-12 
-2.07624e-11 -1.32901e-11 2.17885e-12 -2.20955e-11 -1.46633e-11 1.92679e-13 -1.95578e-11 -1.28056e-11 -3.72648e-13 
-2.01345e-11 -1.07404e-11 3.69614e-13 -2.48449e-11 -1.73028e-11 3.58802e-12 -2.40427e-11 -1.16472e-11 3.61858e-12 
-1.91145e-11 -1.18177e-11 8.78666e-13 -2.40823e-11 -1.40198e-11 -3.05947e-12 -2.24007e-11 -1.40941e-11 8.06332e-13 
-2.0001e-11 -1.46379e-11 1.40861e-12 -2.18492e-11 -1.32913e-11 -8.74567e-13 -2.01612e-11 -6.94306e-12 5.46365e-13 
-1.87788e-11 -8.27491e-12 1.71081e-13 -2.44457e-11 -1.37719e-11 -6.80611e-13 -2.35793e-11 -1.39725e-11 -8.20067e-13 
-2.24083e-11 -1.25049e-11 -1.4728e-12 -2.38153e-11 -1.2502e-11 6.04386e-13 -2.25696e-11 -1.55438e-11 -1.10256e-12 
-2.27959e-11 -1.22795e-11 -1.04631e-12 -2.29718e-11 -1.40296e-11 2.09817e-13 -2.23023e-11 -1.27422e-11 -7.53929e-13 
-2.15091e-11 -1.23652e-11 1.82381e-12 -2.33298e-11 -1.39337e-11 3.62737e-12 -2.63497e-11 -2.29445e-11 2.1218e-12 
-2.19038e-11 -3.37973e-11 4.05417e-12 -2.37535e-11 -1.5376e-11 -3.77388e-13 -2.59403e-11 -1.4619e-11 2.04027e-12 
-2.63914e-11 -2.03934e-11 -1.87875e-12 -3.72627e-11 -3.20975e-11 1.62314e-11 -3.19711e-11 -2.89099e-11 6.08766e-12 
-2.78722e-11 -1.98621e-11 4.66411e-12 -2.16285e-11 -1.32214e-11 2.11075e-12 -2.40216e-11 -1.84248e-11 -4.67424e-12 
-1.62835e-11 -6.08928e-12 1.113e-12 -3.47066e-11 -2.37128e-11 6.76297e-12 -2.28501e-11 -2.4956e-11 -5.44812e-13 
-3.20139e-11 -3.01647e-11 -2.37194e-12 -2.5682e-11 -1.46437e-11 -1.78854e-12 -1.82029e-11 -1.25242e-11 3.05188e-12 
-2.87878e-11 -1.50504e-11 -2.43962e-12 -2.48783e-11 -1.77956e-11 1.90059e-12 -2.43794e-11 -1.37565e-11 -2.29798e-13 
-2.61202e-11 -1.52454e-11 -2.2348e-12 -2.35388e-11 -1.70341e-11 -6.75265e-13 -2.5492e-11 -1.67249e-11 -2.50464e-12 
-2.42087e-11 -1.57741e-11 2.08442e-12 -2.19606e-11 -1.68232e-11 9.64611e-13 -5.15135e-11 -3.00614e-11 7.50214e-13 
-2.17427e-11 -2.08528e-11 -3.67896e-12 -2.441e-11 -1.35631e-11 -1.11354e-13 -2.802e-11 -1.81784e-11 1.13484e-12 
-3.79927e-11 -1.94038e-11 5.26593e-12 -3.29967e-11 -2.80143e-11 -2.35333e-12 -3.56635e-11 -1.69411e-11 1.28997e-12 
-2.696e-11 -2.48566e-11 -1.90979e-12 -2.61589e-11 -1.95154e-11 8.73056e-13 -2.72525e-11 -1.93242e-11 -3.76448e-13 
-2.70344e-11 -2.00702e-11 -1.92107e-12 -2.60912e-11 -1.73701e-11 1.62342e-12 
radius 1 167 double
0.0001 0.0001 0.0001 0.0001 0.0001 0.0001 0.0001 0.0001 0.0001 
0.0001 0.0001 0.0001 0.0001 0.0001 0.0001 0.0001 0.0001 0.0001 
0.0001 0.0001 0.0001 0.0001 0.0001 0.0001 0.0001 0.0001 0.0001 
0.0001 0.0001 0.0001 0.0001 0.0001 0.0001 0.0001 0.0001 0.0001 
0.0001 0.0001 0.0001 0.0001 0.0001 0.0001 0.0001 0.0001 0.0001 
0.0001 0.0001 0.0001 0.0001 0.0001 0.0001 0.0001 0.0001 0.0001 
0.0001 0.0001 0.0001 0.0001 0.0001 0.0001 0.0001 0.0001 0.0001 
0.0001 0.0001 0.0001 0.0001 0.0001 0.0001 0.0001 0.0001 0.0001 
0.0001 0.0001 0.0001 0.0001 0.0001 0.0001 0.0001 0.0001 0.0001 
0.0001 0.0001 0.0001 0.0001 0.0001 0.0001 0.0001 0.0001 0.0001 
0.0001 0.0001 0.0001 0.0001 0.0001 0.0001 0.0001 0.0001 0.0001 
0.0001 0.0001 0.0001 0.0001 0.0001 0.0001 0.0001 0.0001 0.0001 
0.0001 0.0001 0.0001 0.0001 0.0001 0.0001 0.0001 0.0001 0.0001 
0.0001 0.0001 0.0001 0.0001 0.0001 0.0001 0.0001 0.0001 0.0001 
0.0001 0.0001 0.0001 0.0001 0.0001 0.0001 0.0001 0.0001 0.0001 
0.0001 0.0001 0.0001 0.0001 0.0001 0.0001 0.0001 0.0001 0.0001 
0.0001 0.0001 0.0001 0.0001 0.0001 0.0001 0.0001 0.0001 0.0001 
0.0001 0.0001 0.0001 0.0001 0.0001 0.0001 0.0001 0.0001 0.0001 
0.0001 0.0001 0.0001 0.0001 0.0001 
omega 3 167 double
0.639743 0.163695 -0.428176 2.76523e-05 8.31094e-05 -0.000442907 -0.0219735 0.161617 1.08794 
-0.000159238 0.000312896 3.24674e-05 -0.000306081 0.000370464 -7.72052e-05 -0.000133005 0.000305017 0.000157367 
-0.00023426 0.0007761 0.000385193 0.000258212 0.000186423 -7.89724e-05 0.000150136 -0.000113563 0.000302208 
-0.000624233 0.000599757 2.88717e-05 -0.000551293 0.000572695 -0.000406221 0.000304137 -0.000181482 0.000112532 
-0.000182199 0.000144665 0.000131728 4.8253e-05 0.000438999 0.000287613 -2.68813e-05 0.000172746 -7.54977e-05 
-0.000225857 0.000197377 0.000527066 2.48375e-05 -0.000253823 0.000200471 -0.000432221 0.000565575 -0.000211543 
-0.000256921 0.000327219 0.000296168 -0.000171901 -4.4624e-05 -0.000146967 -0.000349622 0.000652742 0.000386054 
0.000522867 -0.000695091 0.000255417 -0.000390365 0.000372379 0.00011394 -0.000590301 0.000593628 -0.000126334 
5.78142e-05 -3.74999e-05 0.000205355 2.92663e-05 -0.000313526 -0.000290199 -0.000365356 0.00052055 1.67283e-05 
-2.70263e-05 -0.00018074 -0.000120694 -0.000210044 0.000316255 -0.00022669 0.000183734 2.36561e-05 0.000114557 
-0.000306606 9.10708e-05 0.000139639 -0.0461514 0.0147275 -0.166184 8.68131e-05 8.66664e-05 -0.000287513 
-0.000149138 0.0003631 -0.000205232 -0.0924429 0.0540314 0.0391763 -0.000224565 -0.000157728 0.000167394 
-0.000498066 -3.25183e-05 -0.000135779 -0.000511302 0.000361204 -0.000191233 -8.85083e-05 0.000183998 -0.000220396 
-0.000428607 0.000581044 0.000229656 -0.000584348 0.000813809 -0.00048767 8.04609e-06 -0.000177493 0.000288561 
-0.000253558 0.000381917 1.5238e-05 -0.000405394 0.000502701 6.62163e-05 9.53414e-05 6.29746e-05 -0.000414342 
-0.00680472 0.0184708 0.0143346 1.8348e-05 -0.000113748 0.000384539 -7.2015e-05 0.000110864 -0.000280985 
-9.9162e-05 -0.00013372 0.000348798 -0.00021603 0.000416211 -0.000334003 -0.000416213 9.34336e-05 -0.000434651 
-0.000254108 0.00022684 1.68479e-05 7.11983e-05 -0.000272691 -0.000221011 -0.000319199 0.000365699 -0.00018487 
0.00069326 -0.000414304 1.54057e-06 -0.000482579 0.000362462 -0.000180963 0.000329154 -0.000172566 0.000266581 
-0.000344078 0.000321135 -0.000149993 -0.000494969 0.000675656 -3.16337e-05 -0.000113854 0.000827566 0.000259217 
-3.07442e-05 5.76106e-05 -2.91929e-05 -0.000171939 8.33782e-05 -7.35197e-05 0.000456031 -0.000219531 0.00033443 
-0.00020582 0.000614053 -0.000259307 -8.79493e-05 0.000517316 3.95395e-05 -0.000315773 2.40921e-05 0.000142481 
5.67007e-05 -2.95964e-05 0.000146005 -0.000116081 -0.000221951 0.000107469 0.000136387 0.00041043 0.000387273 
-0.000319017 8.11587e-05 0.000397937 3.30592e-06 4.77121e-05 -0.000357539 -0.000350321 0.000344431 -9.82645e-05 
-0.000234307 0.000644419 -3.90469e-05 -0.000438111 9.66528e-06 -0.000335605 0.000240622 -2.88262e-05 -0.000305143 
-0.000103438 0.000185107 -0.000334549 -0.000179848 0.000289079 0.000178043 -0.000139757 0.000170297 0.00021465 
-0.000138176 -0.000169557 -0.000139453 0.000105542 -5.86566e-05 1.95131e-05 -9.43985e-05 1.66388e-05 -0.000140244 
-0.000340988 0.000286365 -5.26336e-05 -0.000778614 0.000756417 4.8613e-05 -1.464e-05 -0.000185857 0.000107403 
0.000165897 3.11658e-05 -0.000190791 1.68193e-05 0.000246278 0.000184099 8.23701e-06 0.000171283 -8.27844e-05 
0.000275065 -0.000324152 -1.58993e-05 -6.55534e-05 4.00522e-05 -6.13987e-06 -0.000368476 9.98179e-05 5.54203e-06 
-0.000327976 0.00063985 -0.000167421 3.03254e-05 9.26792e-05 -0.00013758 9.35492e-05 2.95309e-05 0.000183073 
0.000321981 1.17937e-05 0.000133847 -0.000150706 0.000171657 -0.000132158 0.000108443 0.000371126 0.000196711 
-0.000196305 0.000418671 7.44586e-05 0.000154553 2.77544e-05 0.000397254 -0.000158496 2.50233e-05 -0.000278587 
-0.000199411 0.000589266 0.000243388 -0.000547946 5.08681e-05 0.000236113 -0.000302792 0.000256522 0.000292446 
-0.000404739 0.000376764 -0.000361311 -1.19923e-05 0.000372374 0.000151695 -0.00157486 0.000375077 -0.00194505 
4.52728e-05 0.000658212 0.000990697 5.69521e-05 0.000166896 0.000861217 0.000481776 -0.000400613 0.00022145 
-4.80115e-05 0.000269401 -0.000206302 -0.000132179 0.000136812 -3.08769e-05 -0.000228481 0.000178077 -0.000115803 
0.000172184 -0.000117372 6.62404e-05 0.000167387 -0.000415642 -0.000446323 -0.000438621 0.000863972 -0.000148622 
-0.000179174 0.000106939 3.84841e-05 0.000607519 -3.67624e-05 -0.000128985 -8.721e-05 0.000248652 6.6094e-05 
-0.000237921 -0.000383203 -0.000253127 -0.00014371 -0.000195337 -7.58793e-05 0.000441756 0.000246108 0.000499445 
-0.000116782 0.000108293 -0.000349633 -0.000194699 0.000388904 -0.000254684 -0.00078898 0.00028738 2.21503e-06 
-5.28268e-06 0.000230957 0.000116676 0.000144862 -0.000256374 3.28259e-06 -0.000600385 -0.000470332 0.000230169 
-2.24781e-05 0.000264911 -0.000387524 -0.000138983 7.7619e-07 3.97827e-05 0.000113575 -8.02262e-06 -0.000198112 
-0.000130984 0.000341923 0.000185542 -0.000334762 -7.96778e-05 -0.000212265 -0.000271976 0.000505461 0.003724 
-0.00257675 -0.00103777 -0.00232991 -0.00011925 -0.000209239 -0.000338646 -0.000507806 0.000336463 5.04422e-05 
-0.000442137 0.000571647 -0.00016067 -0.00282224 0.00222958 0.000374487 -0.000625972 0.000254862 -0.004268 
-0.000425308 -0.000455504 -0.000122246 0.000327249 -0.000249772 0.000290506 -0.00168933 -0.0025743 -0.000540227 
0.00129464 -0.000754956 -2.52084e-05 0.000404836 0.000889613 0.00227821 0.000203083 -0.00130182 -0.000348264 
-0.00305743 0.00160353 0.000944841 0.000267005 -0.00019717 9.81542e-05 0.000159891 -0.000856417 -0.00041979 
-0.00046996 0.000385669 0.000512512 -0.000336171 0.000789007 0.000928189 0.00039263 0.000573886 -8.29017e-05 
-0.00194984 0.000609753 9.34185e-05 -0.000473087 -0.000427096 -0.00068959 -0.000775579 -1.06532e-05 -0.000218056 
-0.000109862 -0.000173103 0.00045226 0.000574792 8.29898e-05 -0.000323619 -0.0013311 0.00422435 -0.00293542 
-0.000710718 0.000139061 -0.000101645 -0.000115138 -4.42643e-05 0.00068179 0.000130677 -0.000155515 1.47243e-05 
0.00515379 0.00267357 0.00441757 0.000216084 -0.0021342 0.00385625 8.81303e-05 0.00032229 -0.00064728 
-4.60191e-05 -0.000244191 -0.00113558 -0.000355902 0.00158128 -0.000714123 -0.000428329 0.000167844 -2.57123e-05 
0.000826807 0.000505151 0.000271489 -0.000192247 0.000377505 -0.000332711 
