# vtk DataFile Version 4.0
Generated by LIGGGHTS
ASCII
DATASET POLYDATA
POINTS 119 float
-0.000473601 -0.000413868 9.99794e-05 -0.000349574 -0.000464563 0.000264544 -0.000276901 -0.000376032 9.99794e-05 
-0.000140865 -0.00032632 0.000245095 -9.27163e-05 -0.000455122 9.99185e-05 4.89662e-05 -0.000417204 0.00023582 
0.000193276 -0.000390739 9.99217e-05 0.00037692 -0.000385487 0.000249992 -0.000448347 -0.000290633 0.000271376 
-0.00038768 -0.000207496 9.99512e-05 -0.000187263 -0.000196848 9.99393e-05 -0.000289218 -0.000168209 0.000269524 
-3.34749e-06 -0.000276237 9.9968e-05 6.55264e-05 -0.000187424 0.000265353 0.000177761 -0.000191373 9.99239e-05 
0.000297502 -0.000195529 0.000259981 0.00047535 -0.000113222 0.000219132 0.000401213 -0.000255578 9.99238e-05 
-0.000474896 3.94182e-05 9.99509e-05 -0.000377443 1.12042e-05 0.000272404 -0.000271727 -1.1172e-05 9.99795e-05 
-0.000108446 -6.17255e-05 0.000224524 -0.000101709 9.45284e-05 9.99228e-05 4.64604e-05 -3.9751e-05 9.99663e-05 
0.000186778 -2.99841e-05 0.00024208 0.000325143 -5.62287e-05 9.99678e-05 0.00036876 5.00316e-05 0.000263635 
-0.000334548 0.000182055 9.998e-05 -0.000480612 0.000179806 0.000242263 -0.000219255 0.000132631 0.000257149 
-0.000170388 0.000297658 9.99551e-05 3.85145e-05 0.000104216 0.000242127 -7.04045e-05 0.000269389 0.000270794 
3.05174e-05 0.000244545 9.99225e-05 0.000178936 0.000110494 9.99398e-05 0.000130612 0.000290595 0.000266783 
0.000349414 0.00028337 0.000261518 0.000370744 0.000167126 9.99765e-05 -0.000323999 0.000302972 0.000259142 
-0.000328866 0.000423831 9.99334e-05 -0.00049918 0.000319027 9.99447e-05 -0.000176367 0.000437166 0.000246101 
7.69171e-05 0.000439001 9.98948e-05 0.00023725 0.000319428 9.99583e-05 0.000214885 0.000470197 0.000241913 
0.000355308 0.00048143 9.99678e-05 0.000474723 0.000440266 0.000256768 -0.000487227 -0.00043216 0.000407186 
-0.00028177 -0.00032614 0.000391933 -0.000163482 -0.000485086 0.000429864 -1.23646e-05 -0.000318887 0.000398745 
0.00010806 -0.000451874 0.000487656 0.000203679 -0.000351007 0.000343656 0.000324279 -0.000498909 0.000406386 
-0.000439576 -0.000136522 0.000398541 -8.6857e-05 -0.000148957 0.00047327 0.000145869 -0.000194408 0.000453606 
0.000406142 -0.000262766 0.000413796 -0.000220465 -2.49742e-05 0.000390953 5.0734e-05 -3.09208e-05 0.000388926 
0.000291023 -6.29214e-05 0.000409542 -0.000356959 0.000164343 0.000399425 -0.000203469 0.000291065 0.00041843 
-8.15502e-05 0.000118496 0.000401518 5.97683e-05 0.000251384 0.000450113 0.000211927 0.000131741 0.000356992 
0.000446027 0.000140783 0.000424184 -0.000362399 0.000412351 0.000422156 1.60435e-05 0.000427509 0.000357371 
0.000247223 0.000318042 0.000429877 0.000445855 0.00034115 0.000428037 -0.000335414 -0.000435819 0.000550303 
-0.000499651 -0.000325315 0.000578712 -0.000154365 -0.00032257 0.000546038 -5.42721e-05 -0.000492447 0.000597209 
0.000275909 -0.000353768 0.000535237 0.000167607 -0.00044229 0.000678331 0.000370571 -0.000420826 0.000701185 
-0.000318358 -0.000282013 0.000676906 -0.000281116 -0.000169289 0.000516013 3.9391e-05 -0.000294167 0.000590328 
-2.44637e-05 -0.000117893 0.000660714 0.000251714 -0.000174694 0.000622053 0.000427542 -0.000114359 0.00054635 
-0.000423621 2.05018e-05 0.000521264 -0.000296021 -4.20806e-05 0.000669591 -0.000135616 2.03701e-05 0.000567772 
0.000129018 -2.44729e-05 0.000572851 0.000288899 9.08616e-05 0.000537378 -0.000416033 0.000273779 0.00055603 
-0.000141556 0.000218433 0.000594528 2.26105e-05 0.000122648 0.000656771 0.000198261 0.000218131 0.000662214 
0.000389486 0.000252608 0.000598301 -0.000237498 0.000393689 0.000586678 0.000101884 0.000380772 0.00059699 
0.000296717 0.000429526 0.000591035 0.000493947 0.000463821 0.000578459 -2.06891e-05 -0.000381977 0.000760486 
-0.000184353 -0.000170425 0.000774792 0.000412382 -0.000227305 0.00072942 -0.000490104 -6.24808e-07 0.000708652 
0.000311156 -1.48236e-05 0.00072644 -0.000369881 0.000159036 0.000713208 -5.65805e-05 0.000349369 0.000719537 
0.000158941 0.000373055 0.000811063 0.000177123 -0.000390488 0.00127755 0.000394365 -0.000138869 0.00143771 
-0.000302996 -2.39937e-05 0.00152986 -7.53111e-05 0.00038845 0.00157964 -0.000204909 -0.000320961 0.00184398 
0.000171171 -5.3387e-05 0.0016976 0.000368687 0.000232263 0.0017102 -0.000159971 -0.000183404 0.00206961 
0.000270757 -0.000163567 0.00205143 -0.000355099 -3.8615e-05 0.00209762 0.000208912 8.68461e-05 0.00205158 
-0.000377679 0.000385939 0.00197938 0.000158155 0.000308549 0.00198919 
VERTICES 119 238
1 0 
1 1 
1 2 
1 3 
1 4 
1 5 
1 6 
1 7 
1 8 
1 9 
1 10 
1 11 
1 12 
1 13 
1 14 
1 15 
1 16 
1 17 
1 18 
1 19 
1 20 
1 21 
1 22 
1 23 
1 24 
1 25 
1 26 
1 27 
1 28 
1 29 
1 30 
1 31 
1 32 
1 33 
1 34 
1 35 
1 36 
1 37 
1 38 
1 39 
1 40 
1 41 
1 42 
1 43 
1 44 
1 45 
1 46 
1 47 
1 48 
1 49 
1 50 
1 51 
1 52 
1 53 
1 54 
1 55 
1 56 
1 57 
1 58 
1 59 
1 60 
1 61 
1 62 
1 63 
1 64 
1 65 
1 66 
1 67 
1 68 
1 69 
1 70 
1 71 
1 72 
1 73 
1 74 
1 75 
1 76 
1 77 
1 78 
1 79 
1 80 
1 81 
1 82 
1 83 
1 84 
1 85 
1 86 
1 87 
1 88 
1 89 
1 90 
1 91 
1 92 
1 93 
1 94 
1 95 
1 96 
1 97 
1 98 
1 99 
1 100 
1 101 
1 102 
1 103 
1 104 
1 105 
1 106 
1 107 
1 108 
1 109 
1 110 
1 111 
1 112 
1 113 
1 114 
1 115 
1 116 
1 117 
1 118 

POINT_DATA 119
FIELD FieldData 7
id 1 119 int
4 46 28 51 7 18 9 20 44 
19 27 47 1 29 11 34 40 15 
3 42 14 30 24 10 38 26 49 
12 32 35 25 23 37 13 16 31 
45 2 33 17 21 36 8 5 22 
6 39 63 62 58 54 77 41 50 
52 67 73 56 53 55 61 60 75 
64 68 43 57 71 48 69 59 90 
86 65 94 72 96 106 97 76 89 
99 81 87 66 88 79 85 74 84 
80 92 93 78 91 83 82 70 105 
104 98 101 100 102 95 103 110 111 
109 108 113 112 107 116 114 118 119 
115 117 
type 1 119 int
1 1 1 1 1 1 1 1 1 
1 1 1 1 1 1 1 1 1 
1 1 1 1 1 1 1 1 1 
1 1 1 1 1 1 1 1 1 
1 1 1 1 1 1 1 1 1 
1 1 1 1 1 1 1 1 1 
1 1 1 1 1 1 1 1 1 
1 1 1 1 1 1 1 1 1 
1 1 1 1 1 1 1 1 1 
1 1 1 1 1 1 1 1 1 
1 1 1 1 1 1 1 1 1 
1 1 1 1 1 1 1 1 1 
1 1 1 1 1 1 1 1 1 
1 1 
i 3 119 int
1 1 0 0 1 0 0 1 0 
0 0 0 0 1 0 0 0 0 
-1 0 0 0 0 0 0 1 0 
0 0 0 0 0 0 0 0 0 
0 0 0 0 0 0 -1 0 0 
0 0 0 0 0 0 -1 0 0 
0 0 0 0 0 0 0 0 0 
0 0 0 1 0 0 0 0 0 
0 0 0 -1 0 0 0 0 0 
0 0 0 0 0 0 0 0 0 
1 0 0 0 0 0 0 0 0 
0 0 0 0 0 0 0 0 0 
0 0 0 0 0 0 0 0 0 
0 -1 0 1 -1 0 0 -1 0 
0 -1 0 0 0 0 0 0 0 
0 -1 0 0 0 0 0 1 0 
1 0 0 0 0 0 0 0 0 
0 0 0 0 0 0 0 0 0 
0 0 0 0 0 0 0 0 0 
0 0 0 0 0 0 0 0 0 
0 0 0 0 0 0 0 0 0 
0 0 0 0 0 0 0 0 0 
0 0 0 0 0 0 0 0 0 
0 0 0 0 0 0 0 0 0 
1 0 0 0 0 0 0 0 0 
0 0 0 0 0 0 -1 0 0 
0 0 0 0 0 0 0 0 0 
0 0 0 0 0 0 0 0 0 
0 0 0 0 0 0 0 0 0 
0 0 0 0 0 0 0 0 0 
0 0 0 0 0 0 0 0 0 
0 0 0 0 0 0 0 0 0 
0 -1 0 -1 -1 0 0 0 0 
0 0 0 -1 0 0 1 0 0 
0 0 0 0 0 0 0 0 0 
0 0 0 0 0 0 0 0 0 
0 0 0 0 0 0 0 0 0 
0 0 0 0 0 0 0 0 0 
0 0 0 0 0 0 0 0 0 
0 0 0 0 0 0 
v 3 119 double
-3.18404e-05 -0.000508428 5.5841e-09 0.00035843 0.000136758 -0.000499528 0.000232097 -0.000502352 -9.01e-10 
-0.000219601 7.75498e-05 7.26122e-05 -0.000897459 0.000161067 -8.89815e-05 -0.00062125 -0.000237573 -0.000287977 
-0.000297798 6.23606e-05 0.00012619 0.00100294 -0.00030172 -0.000268576 3.28379e-05 0.000959121 -0.000167469 
0.000364623 0.000713899 -5.0401e-05 -2.91724e-06 -2.6457e-05 -4.45781e-05 0.00028261 0.000221861 2.48942e-05 
-0.000114599 5.62792e-05 0.000109237 4.8558e-06 0.000833468 0.000254054 0.000152885 -3.65816e-05 3.92146e-05 
0.000252011 -0.000407317 -0.000151461 0.000189834 1.13412e-05 -0.000430801 0.000204999 -4.71447e-05 -0.000128622 
-0.000155775 -0.0002618 -0.000139054 -0.000110103 -0.000151096 8.69285e-05 -0.000216008 -0.00046246 -2.94504e-06 
-0.00065958 0.000250767 0.000233077 -0.000205537 -0.000239058 0.000378125 -0.000307818 -0.000564096 6.80586e-05 
-0.00017141 -0.00043366 -0.000155663 0.000392904 -0.000331925 -0.000193673 0.000158837 -0.000272727 -0.000448608 
-0.000646475 -0.000420615 -1.23356e-05 4.55434e-05 -0.00033344 -0.000140072 -0.000309801 -0.000152911 0.000387782 
-1.44293e-05 0.000129102 -0.000294271 0.00036028 0.000655278 0.000786761 -0.000681113 0.000381301 -0.000396005 
-0.00011403 -0.000446152 -0.000254136 0.000190646 -3.98847e-05 0.000193825 8.0423e-06 -0.000708487 -0.000265992 
-0.0002402 -0.000817254 -6.22475e-05 0.000429359 -0.0006867 5.61619e-06 -9.26013e-05 -0.000197173 -4.33079e-05 
0.000249841 -0.000336221 -6.51386e-05 0.000296601 -0.000586537 -0.000146037 -0.000957957 0.000293594 -0.000291532 
-0.00133959 -0.000661114 5.85189e-05 1.39687e-05 0.000165889 1.31481e-05 -0.000778837 -6.78341e-05 0.000189686 
-5.91861e-05 -0.00114308 0.000333931 0.000932933 -0.000493435 -0.000428637 3.08699e-05 0.000230199 -0.000865217 
-0.000882891 0.000253146 -7.94805e-05 -0.00366833 0.00167189 -0.000829315 -0.000279463 0.000368596 -0.00121357 
-0.00112455 0.00108029 0.000198175 0.000446848 -0.000372588 -0.000715847 0.000308872 -0.000887557 -0.000344219 
-3.99666e-05 0.000651674 -0.000578488 -0.00156296 -0.000667503 -0.000423009 -0.00139853 -0.00117235 -0.000249649 
0.00106734 0.000312746 -0.00011481 -0.00073037 0.000465754 0.000372405 -0.00130559 0.00040624 0.00124115 
-0.00085293 0.000740748 -0.000991922 0.000309116 -1.20949e-05 -0.000384204 -2.51905e-05 0.00037971 -7.14832e-06 
-0.00126625 0.000959914 0.000376245 -0.000195951 0.000162384 -0.00222144 0.00199527 0.000118267 -0.00133244 
0.000403404 -0.000189669 -0.000561745 -0.000410227 -0.000148354 -0.000553938 -0.000967158 0.000383292 0.000595153 
3.66672e-05 -0.000949415 -1.27095e-05 -0.000110247 -0.000461629 -0.000666351 -0.00049246 -0.000662909 -0.000727454 
-0.00220133 -0.00320273 0.000505278 -0.00260438 0.000323095 0.00101427 -0.00257226 0.00157085 -0.00170488 
-0.000697181 -0.000670861 -0.00373965 0.00151371 0.00106324 -0.000487371 -0.0117595 0.0016154 -0.00126288 
-0.00272206 -0.000546114 0.000726809 -0.0015518 -0.000128712 0.000935946 -0.00137838 -0.00219134 -0.00067858 
-0.00159461 -1.48675e-05 -0.000457084 -0.00319372 -0.00413843 0.00114165 -0.000684426 0.00127543 -0.000936176 
0.00371388 -0.000840043 -5.80612e-05 -0.00235021 0.00188301 -0.000742979 -0.000746833 -0.000798176 0.000399551 
-0.000579959 0.000486457 0.000971222 -0.00115468 0.00152497 -0.00208129 4.17481e-05 -0.000117711 -0.000368597 
-0.000506605 -0.000784866 0.000353594 0.000527301 0.0017244 0.00125023 0.000501797 0.00212478 -0.00111108 
-0.000358784 -0.00173735 -0.000101169 0.000973256 -0.000105032 -0.00137174 -0.00239235 0.0003581 -0.00113019 
-0.000499107 -0.00240886 -0.0019352 -0.00130573 0.000341568 -0.00146017 -0.00448827 0.00172271 -0.00145717 
0.000113114 0.00100531 -0.00363343 -0.00208933 -0.000663717 -0.00140229 -0.00420784 -0.00448175 -0.00342127 
-0.00344899 -0.00465212 0.000527834 0.000104034 -0.00534164 -0.003899 -0.00703997 0.00327344 0.000361629 
0.0416715 0.009247 -0.0463284 0 0 -0.120724 0 0 -0.106922 
0 0 -0.0981023 0 0 -0.0929913 0 0 -0.0588329 
0 0 -0.079581 0 0 -0.0780114 -0 -0 -0.02 
-0 -0 -0.02 -0 -0 -0.02 -0 -0 -0.02 
0 0 -0.028363 0 0 -0.0247431 
f 3 119 double
-3.89012e-18 -6.21174e-17 -1.70936e-12 -8.8892e-08 -2.483e-08 1.13177e-08 -4.68477e-18 1.01397e-17 1.60643e-12 
-2.26929e-08 2.18346e-08 4.44479e-08 -1.95479e-08 4.17586e-08 4.01857e-09 -3.88295e-08 2.58767e-07 9.87418e-08 
-1.73913e-08 5.65548e-08 2.91406e-08 -4.00455e-08 2.92549e-08 4.72651e-08 5.35376e-08 6.28574e-08 -1.26116e-08 
7.21821e-08 5.19719e-08 -1.41988e-08 1.12111e-08 3.07112e-11 -3.66375e-09 -9.89229e-09 3.19313e-08 -1.75872e-09 
-4.45857e-08 6.18646e-08 3.45147e-08 2.42478e-08 2.4334e-08 6.51123e-08 -4.08068e-09 4.01264e-08 1.63449e-08 
7.18434e-08 -3.85075e-08 -8.97134e-11 5.43322e-08 3.69048e-08 -3.53695e-08 -3.02857e-09 2.47669e-08 -9.01162e-09 
-1.67663e-08 3.77543e-08 -2.20897e-08 9.46731e-09 4.1109e-08 1.36555e-08 3.08024e-14 5.16303e-14 6.3572e-11 
-2.63778e-08 -1.16668e-07 6.01281e-08 -3.05869e-08 -2.64495e-09 2.11415e-08 -2.20705e-08 -6.59508e-08 -1.00281e-08 
-6.14683e-08 -1.95081e-08 -9.71988e-08 3.13017e-08 3.31628e-09 -2.38638e-08 1.25791e-07 -1.1044e-08 -1.05728e-07 
4.22538e-13 -1.00376e-12 -2.62405e-09 3.41664e-08 -1.10073e-08 -1.35691e-08 1.15582e-08 -4.79436e-08 3.77616e-09 
7.60387e-08 1.01755e-07 -2.8916e-08 -9.36251e-09 -4.69153e-08 2.19531e-08 -1.93604e-08 1.09888e-09 -4.21937e-08 
4.90431e-08 -5.6164e-08 1.52358e-08 5.47328e-08 -2.81606e-08 5.29435e-08 -9.60199e-09 -6.82483e-08 3.70605e-10 
1.09239e-09 2.67192e-08 -4.47596e-09 -2.68952e-09 -1.17448e-08 -8.28716e-09 3.03936e-09 -2.59188e-08 -4.60685e-09 
-1.06668e-08 1.42692e-08 1.20784e-08 1.67302e-08 -9.21163e-09 -1.70097e-08 8.46145e-08 6.86302e-08 -1.05239e-08 
4.70727e-08 9.21557e-08 1.11854e-07 -1.59845e-08 6.30133e-09 -2.8366e-08 -1.33942e-08 -6.07694e-09 -2.90267e-08 
3.83403e-10 3.95615e-09 9.72984e-09 -2.2585e-08 2.01629e-08 4.41388e-08 -5.38737e-09 5.75632e-08 -3.12608e-08 
-2.4143e-08 2.83988e-08 5.60367e-09 9.97419e-09 1.59691e-08 -2.16655e-08 -3.35084e-08 1.47926e-07 3.79681e-08 
-9.74107e-10 1.71689e-08 -2.93668e-08 7.36884e-08 1.95642e-08 2.08748e-07 -8.78526e-08 1.91273e-07 -1.49638e-07 
1.06387e-07 -6.39686e-08 -7.16891e-08 5.63657e-10 -3.94866e-08 1.9532e-08 7.53475e-08 7.35978e-08 1.86708e-07 
-5.62354e-08 -2.87692e-07 -1.3795e-08 -5.67252e-08 5.58192e-08 -6.23283e-09 5.79091e-08 8.14643e-09 7.74624e-09 
1.0173e-07 1.53068e-08 -1.11548e-08 -2.7137e-08 -1.53011e-08 -1.39395e-08 -1.91885e-09 6.54817e-08 -1.60287e-07 
-2.89888e-08 -7.30031e-08 -3.69841e-08 -3.70147e-08 4.51451e-08 7.81394e-09 -1.99142e-07 -6.77341e-08 2.12344e-07 
-2.20495e-10 -6.90128e-10 6.2832e-09 -9.39231e-09 1.03113e-08 -4.12566e-08 4.27707e-08 6.00626e-08 3.73512e-08 
-1.11498e-08 5.78614e-08 -3.15179e-08 -5.26824e-08 -1.69694e-07 -9.70659e-08 1.47021e-08 2.61269e-08 -2.3647e-08 
-1.67347e-09 -1.19248e-07 1.91538e-08 2.88827e-08 1.6874e-08 -3.44434e-08 4.1837e-08 2.24462e-08 -3.39894e-08 
-1.63712e-07 -2.21566e-08 -1.77116e-08 1.56413e-08 1.33285e-08 -7.94971e-08 4.33889e-08 1.4491e-07 2.27384e-07 
-6.84857e-09 4.1971e-08 8.1249e-08 -4.81097e-08 5.20361e-09 -3.72875e-08 -8.24287e-09 -1.30007e-07 1.0194e-07 
-7.18337e-09 2.78798e-09 -4.90732e-08 9.91777e-08 1.42475e-07 2.9399e-07 -1.77448e-09 1.66684e-09 -1.00755e-07 
1.83101e-08 2.06192e-08 -4.24552e-09 -3.67362e-08 6.4924e-08 -5.70195e-08 -3.02924e-08 -9.85675e-09 -4.7959e-08 
6.79179e-11 1.47392e-09 -9.78816e-08 -4.53837e-08 -2.58126e-07 -8.83243e-08 -6.84305e-09 5.54914e-08 -4.5961e-08 
4.67474e-08 -3.0081e-08 -2.43834e-08 6.89203e-09 -1.38573e-09 -9.78257e-08 -1.21799e-09 -4.32832e-08 -9.49262e-08 
4.02247e-07 -5.23799e-07 4.60208e-08 3.26296e-08 -7.20942e-08 7.7267e-08 -1.79437e-09 3.82552e-08 -1.06606e-07 
-2.79278e-07 3.75565e-07 -9.78205e-08 -6.8679e-08 -4.92122e-09 -4.41795e-08 3.77337e-08 4.0027e-08 -3.28261e-08 
8.59688e-09 3.81771e-09 -9.01534e-08 -4.11967e-09 5.03055e-08 -1.13908e-07 -1.81007e-07 -1.87181e-07 4.09828e-08 
1.30836e-07 1.08304e-07 6.03676e-08 1.59475e-07 2.72726e-07 5.88706e-08 5.18922e-08 1.71198e-09 -4.50539e-08 
0 0 -1.0273e-07 0 0 -1.0273e-07 0 0 -1.0273e-07 
0 0 -1.0273e-07 0 0 -1.0273e-07 0 0 -1.0273e-07 
0 0 -1.0273e-07 0 0 -1.0273e-07 0 0 0 
0 0 0 0 0 0 0 0 0 
0 0 -1.0273e-07 0 0 -1.0273e-07 
radius 1 119 double
0.0001 0.0001 0.0001 0.0001 0.0001 0.0001 0.0001 0.0001 0.0001 
0.0001 0.0001 0.0001 0.0001 0.0001 0.0001 0.0001 0.0001 0.0001 
0.0001 0.0001 0.0001 0.0001 0.0001 0.0001 0.0001 0.0001 0.0001 
0.0001 0.0001 0.0001 0.0001 0.0001 0.0001 0.0001 0.0001 0.0001 
0.0001 0.0001 0.0001 0.0001 0.0001 0.0001 0.0001 0.0001 0.0001 
0.0001 0.0001 0.0001 0.0001 0.0001 0.0001 0.0001 0.0001 0.0001 
0.0001 0.0001 0.0001 0.0001 0.0001 0.0001 0.0001 0.0001 0.0001 
0.0001 0.0001 0.0001 0.0001 0.0001 0.0001 0.0001 0.0001 0.0001 
0.0001 0.0001 0.0001 0.0001 0.0001 0.0001 0.0001 0.0001 0.0001 
0.0001 0.0001 0.0001 0.0001 0.0001 0.0001 0.0001 0.0001 0.0001 
0.0001 0.0001 0.0001 0.0001 0.0001 0.0001 0.0001 0.0001 0.0001 
0.0001 0.0001 0.0001 0.0001 0.0001 0.0001 0.0001 0.0001 0.0001 
0.0001 0.0001 0.0001 0.0001 0.0001 0.0001 0.0001 0.0001 0.0001 
0.0001 0.0001 
omega 3 119 double
5.0848 -0.318437 14.5722 -9.85097 -3.65133 3.34788 5.02404 2.32121 -13.5041 
-0.857049 2.52375 -6.16927 -0.82413 -9.60218 -6.57393 -13.1774 13.7996 -26.7468 
-1.36865 -3.17992 -4.32299 3.63641 9.30628 8.18023 5.22955 -7.77773 10.3069 
-7.13 3.83034 -12.3187 0.512073 -0.161358 2.57028 -5.89448 4.09767 1.0344 
-0.567294 -1.43109 0.134614 -6.79468 -2.35976 -7.00834 0.57051 2.66187 -0.131239 
7.50765 -2.85768 6.01909 -4.88922 -0.558216 7.96812 0.333985 1.52224 -8.14749 
3.79637 -1.86583 -2.21108 2.91011 3.0099 3.8998 4.62507 -2.1603 -4.96423 
-2.0321 -4.97456 4.75841 2.41148 -3.39392 -5.82403 6.19502 -2.78245 6.9812 
-5.50749 4.34176 -4.54075 2.86516 3.93179 -4.15452 -5.0226 -7.81345 3.40898 
4.2067 -6.46537 -6.50824 -5.58455 -3.34887 -4.19061 3.64012 -0.493106 -6.18927 
-1.39493 0.788612 10.5802 -17.611 -0.0479506 13.2202 5.4754 -10.1654 -1.35845 
1.84966 0.0245194 -6.93522 0.283026 3.04693 -5.82201 12.0857 4.58195 20.5459 
18.5103 -4.29984 8.87892 6.65947 4.55388 0.02789 -4.1936 -5.07029 4.88971 
3.36162 2.55349 -7.20046 5.25879 2.39368 2.23535 0.760602 7.73821 4.70635 
6.97982 -13.1623 20.863 -1.88267 -0.091422 -2.51416 0.273197 12.847 -12.3317 
11.4014 0.293506 -8.2701 -6.81135 -0.611292 -10.8122 6.31849 13.6276 -15.2476 
6.7536 -16.9335 -4.62335 -11.7309 -5.7399 68.4287 7.77678 -21.397 13.523 
-10.7908 -11.2047 -2.56247 -14.0059 -14.4397 -1.38099 20.4481 1.83581 27.3927 
2.69111 -3.30391 -4.25584 -0.512933 26.89 4.34558 29.5995 -11.1386 9.97395 
-8.96793 7.0364 8.73462 7.4838 -11.5295 7.09518 19.9902 -35.1594 0.948615 
-17.0729 4.71933 10.4958 4.57631 -9.27677 8.39447 -3.34207 18.582 -3.07536 
-12.9401 11.8537 -7.64063 -1.40877 -36.3035 -2.07888 -11.009 16.4938 -4.91708 
1.78999 9.75489 -6.90098 -3.85046 -21.7448 9.64599 5.03601 10.2862 5.70471 
-17.4931 7.20898 -7.08348 7.34 -9.23343 7.50092 -2.2373 0.367289 32.0142 
66.5806 -56.5116 1.08111 9.62768 26.3047 -40.8785 29.4733 18.3024 -42.407 
16.0357 -56.2091 5.82446 9.09367 38.4359 -2.51675 -91.4613 -316.415 -41.943 
15.7553 5.45298 5.44288 -8.26766 -15.8314 -10.2191 -7.00574 28.6572 -27.4501 
6.56903 -25.5021 30.4911 35.6333 -5.93967 41.7413 -0.142589 -1.02841 -19.904 
12.1282 56.6182 -2.74297 -19.5133 -8.67397 -4.70906 7.37619 -15.5395 -8.03664 
-30.8992 37.7717 -16.0465 5.38134 -28.8998 -30.5898 -5.32045 7.85479 -7.0649 
-6.33837 -44.146 -2.8062 -5.01834 34.7307 27.9005 11.7903 27.3866 -0.461417 
-7.36393 -7.70906 33.1171 17.0754 -14.7237 -11.2061 -7.73133 -32.5283 30.3837 
-1.16332 -13.4971 -15.663 -30.867 -26.9255 -40.4481 -16.9223 3.83396 108.194 
-124.832 -28.3085 -69.8625 2.37054 8.91632 -86.9997 -37.1461 -105.828 15.7221 
60.6718 158.52 5.11876 58.0755 24.3076 -39.7502 -56.6371 -49.5295 9.6335 
56.2766 548.647 -52.4233 0 0 0 0 0 0 
0 0 0 0 0 0 0 0 0 
0 0 0 0 0 0 0 0 0 
0 0 0 0 0 0 0 0 0 
0 0 0 0 0 0 
