# vtk DataFile Version 4.0
Generated by LIGGGHTS
ASCII
DATASET POLYDATA
POINTS 92 float
-0.000473333 -0.000430889 9.99794e-05 -0.000356174 -0.000469967 0.000266498 -0.000277728 -0.000388245 9.99734e-05 
-0.000150203 -0.00033631 0.000246571 -8.57991e-05 -0.000456007 9.99199e-05 5.13089e-05 -0.000426851 0.000242489 
0.000185003 -0.000384504 9.99536e-05 0.000362154 -0.000389525 0.000255255 -0.000460228 -0.000299346 0.000272663 
-0.00039399 -0.000223471 9.99419e-05 -0.000193594 -0.000206832 9.99675e-05 -0.000296404 -0.000184011 0.000269982 
-2.30856e-06 -0.000274214 0.000101933 5.98653e-05 -0.000179161 0.000267255 0.000176526 -0.000184725 9.99335e-05 
0.000292859 -0.000189991 0.000262466 0.000473337 -0.00012149 0.000209992 0.000387338 -0.000265022 9.99794e-05 
-0.000468685 3.50461e-05 9.99177e-05 -0.000379787 -2.25892e-06 0.000275048 -0.00027611 -2.11254e-05 9.99794e-05 
-0.000113077 -6.62565e-05 0.000217174 -0.000108026 9.56355e-05 9.99425e-05 4.56085e-05 -3.35307e-05 9.99356e-05 
0.000185324 -2.25656e-05 0.000242541 0.000323089 -4.87268e-05 9.99648e-05 0.000373671 4.24946e-05 0.000270577 
-0.000339483 0.0001877 9.99343e-05 -0.000475325 0.000171698 0.000245774 -0.000229057 0.000127744 0.000255856 
3.23036e-05 0.000106588 0.000241971 -7.81993e-05 0.000270237 0.000273464 1.91134e-05 0.000249995 9.99408e-05 
0.000172356 0.000121285 9.99746e-05 0.000132458 0.000282044 0.000261507 0.000347576 0.000262491 0.000265824 
0.000369806 0.00015296 9.99839e-05 -0.000324043 0.000303599 0.00026217 -0.000336874 0.000420706 9.99797e-05 
-0.000174367 0.000300483 9.9994e-05 -0.000179152 0.000440128 0.000243026 8.88154e-05 0.000437519 9.99793e-05 
0.000247052 0.000311279 9.99686e-05 0.000218042 0.000463276 0.000252996 0.000344773 0.000485759 9.99429e-05 
0.000498609 0.000305946 9.99139e-05 0.000468374 0.000435694 0.00024897 -0.000343124 -0.000327817 0.000432214 
-0.000209903 -0.000481675 0.000424497 -1.80784e-05 -0.000328098 0.000401931 0.000194273 -0.000339405 0.000351587 
0.000302282 -0.000486165 0.000433965 0.000495228 -0.000442369 0.000405124 -0.000458115 -0.00014009 0.000396921 
-7.64888e-05 -0.000150216 0.000474416 0.000117922 -0.000196622 0.000468913 0.000392184 -0.000271329 0.000415787 
-0.000217485 -3.97118e-05 0.00038563 5.46958e-05 -2.17099e-05 0.000394309 0.000280071 -6.06784e-05 0.000414468 
-0.000364804 0.000177934 0.000412322 -9.08815e-05 0.000115859 0.000399946 0.000196238 0.000128685 0.000372893 
0.00043616 0.000155963 0.000424366 -0.00037623 0.000405872 0.000425885 2.4686e-05 0.000416177 0.000363495 
0.000225581 0.000329179 0.000432058 0.000426333 0.00035619 0.000427587 -0.000169933 -0.000317499 0.000531624 
3.10784e-05 -0.000473319 0.000530985 0.000244405 -0.00033157 0.000546822 0.000428705 -0.000400847 0.000589083 
-0.000250182 -0.000132345 0.00057504 -0.000380962 4.80096e-06 0.000511141 0.000310769 7.54599e-05 0.000557723 
6.8736e-05 0.000136825 0.000526745 0.000336585 0.000271472 0.000588072 1.78187e-05 0.000324978 0.000580275 
2.32477e-05 -9.43882e-05 0.000639754 -6.94558e-05 -0.000376402 0.00128418 -0.000276364 -8.12532e-05 0.00129532 
-0.000344163 0.000189076 0.00143461 0.000156309 -0.000161729 0.00153436 -8.41253e-05 0.000223152 0.00177429 
0.000155078 0.000144375 0.00173016 -0.000289544 -0.00023265 0.0019116 -2.23476e-05 -0.000189227 0.00197688 
0.000286889 -0.000297609 0.00202795 -0.000363518 0.000208871 0.00207123 -1.32692e-05 0.000155261 0.00209417 
0.000366576 0.000226134 0.00196078 8.67761e-06 0.000352731 0.00205493 
VERTICES 92 184
1 0 
1 1 
1 2 
1 3 
1 4 
1 5 
1 6 
1 7 
1 8 
1 9 
1 10 
1 11 
1 12 
1 13 
1 14 
1 15 
1 16 
1 17 
1 18 
1 19 
1 20 
1 21 
1 22 
1 23 
1 24 
1 25 
1 26 
1 27 
1 28 
1 29 
1 30 
1 31 
1 32 
1 33 
1 34 
1 35 
1 36 
1 37 
1 38 
1 39 
1 40 
1 41 
1 42 
1 43 
1 44 
1 45 
1 46 
1 47 
1 48 
1 49 
1 50 
1 51 
1 52 
1 53 
1 54 
1 55 
1 56 
1 57 
1 58 
1 59 
1 60 
1 61 
1 62 
1 63 
1 64 
1 65 
1 66 
1 67 
1 68 
1 69 
1 70 
1 71 
1 72 
1 73 
1 74 
1 75 
1 76 
1 77 
1 78 
1 79 
1 80 
1 81 
1 82 
1 83 
1 84 
1 85 
1 86 
1 87 
1 88 
1 89 
1 90 
1 91 

POINT_DATA 92
FIELD FieldData 7
id 1 92 int
4 46 28 51 7 18 9 20 44 
19 27 47 1 29 11 34 40 15 
3 42 14 30 24 10 38 26 49 
12 32 35 23 37 13 16 31 45 
2 33 17 25 36 8 5 22 6 
21 39 62 58 54 41 50 63 52 
67 73 56 53 55 61 60 64 43 
57 71 48 69 59 65 77 72 70 
76 66 74 68 78 75 85 82 79 
84 81 80 83 90 89 86 88 92 
87 91 
type 1 92 int
1 1 1 1 1 1 1 1 1 
1 1 1 1 1 1 1 1 1 
1 1 1 1 1 1 1 1 1 
1 1 1 1 1 1 1 1 1 
1 1 1 1 1 1 1 1 1 
1 1 1 1 1 1 1 1 1 
1 1 1 1 1 1 1 1 1 
1 1 1 1 1 1 1 1 1 
1 1 1 1 1 1 1 1 1 
1 1 1 1 1 1 1 1 1 
1 1 
i 3 92 int
1 1 0 0 1 0 0 1 0 
0 0 0 0 1 0 0 0 0 
-1 0 0 0 0 0 0 1 0 
0 0 0 0 0 0 0 0 0 
0 0 0 0 0 0 -1 0 0 
0 0 0 0 0 0 -1 0 0 
0 0 0 0 0 0 0 0 0 
0 0 0 1 0 0 0 0 0 
0 0 0 -1 0 0 0 0 0 
0 0 0 0 0 0 0 0 0 
0 0 0 0 0 0 0 0 0 
0 0 0 0 0 0 0 0 0 
0 0 0 0 0 0 0 -1 0 
1 0 0 0 -1 0 0 -1 0 
0 0 0 0 0 0 0 -1 0 
0 -1 0 0 0 0 1 0 0 
0 0 0 0 0 0 0 0 0 
0 0 0 -1 1 0 0 0 0 
0 0 0 0 0 0 0 0 0 
0 0 0 0 0 0 0 0 0 
0 0 0 0 0 0 0 0 0 
0 0 0 0 0 0 0 0 0 
0 0 0 0 0 0 0 0 0 
0 0 0 0 0 0 -1 0 0 
0 0 0 0 0 0 0 0 0 
0 0 0 0 0 0 0 0 0 
0 0 0 0 0 0 0 0 0 
0 0 0 0 0 0 0 0 0 
0 0 0 0 0 0 0 0 0 
0 0 0 0 0 0 0 0 0 
0 0 0 0 0 0 
v 3 92 double
0.000513293 0.000411533 -1.88906e-06 0.00112347 -0.000418292 -0.000512404 0.00102433 -0.00109158 -2.14306e-05 
0.00265691 -0.000127916 -0.00108201 0.00112884 -0.00121548 -0.000120837 0.00104778 -0.00176062 -2.38777e-05 
0.00124391 -0.0009648 5.70474e-05 -0.000308321 0.00164075 -0.00180014 0.000892048 -0.000622185 -0.00055267 
0.000538899 -8.05422e-05 -0.000142127 0.000523188 -0.000918612 2.27659e-05 0.000653167 0.000977723 -0.000100542 
-0.000784358 -0.000552394 -0.000177278 0.000822922 -0.00737715 0.00289441 -0.000253756 -0.000688917 0.000149643 
0.000442955 -0.00103897 -0.000432264 0.000956643 -0.000507514 -0.0001804 0.0031233 -0.00203767 -2.98262e-07 
-0.000175059 -0.000278607 -0.000108293 -0.000799611 0.000213511 0.000359652 -0.00118953 -0.000674674 1.65312e-15 
-8.40533e-05 -0.000690857 0.000168396 0.000469659 -0.000934281 -4.84747e-05 0.000171779 -0.000999594 -8.35606e-05 
-0.000295685 -0.00187932 0.000570026 0.000434429 -0.000555679 0.000246533 0.00109311 0.000837903 -0.000619057 
7.70541e-05 -0.000758308 1.3545e-05 3.49382e-05 -0.000658973 0.000159229 0.000526141 -0.00132792 -8.19209e-05 
0.000202598 -0.00150388 0.000344184 -0.000150606 -0.00167302 0.000291015 -5.87301e-07 -0.000421723 0.000115653 
-0.000157499 -0.000939029 1.60489e-06 0.000256959 -0.00180938 0.000330249 0.000936648 0.000644264 -0.000809326 
-0.000291382 -0.000673294 -5.91688e-05 0.00200272 -0.000529256 -0.000286584 0.00050205 -0.000877544 1.28061e-07 
-0.000110992 -0.000700343 0.000122025 0.000878846 -0.00101364 0.00021602 0.000104525 -0.000212966 6.23749e-07 
-0.000722829 -0.000128225 2.1056e-05 0.00024919 -0.00205477 -0.000276477 0.000616925 -0.000692572 2.7518e-05 
-0.000283225 -0.000767515 3.66795e-05 0.000982256 -0.000485393 0.000137263 0.0023842 0.000431828 -0.00183796 
0.000313253 0.000474424 -0.000527803 0.00162162 -0.00319615 0.000997539 6.18627e-05 0.000359752 -0.000612791 
0.00138103 -0.00200362 -0.00743277 0.00237847 -0.000360163 8.95266e-05 0.000648988 -0.000296658 0.000254168 
0.00106512 -8.1857e-05 -0.00179102 0.00121373 0.00139413 -0.00113924 0.00116503 -0.000729475 -0.000242754 
-0.000939048 -0.0014823 -0.00015542 0.00234262 0.000721535 -0.0011448 0.000878179 -0.00215001 0.000340716 
-0.000487098 0.000231254 -8.03133e-05 0.000524468 -0.0019254 0.000257941 0.00714737 -0.000461563 -0.00166241 
0.00187674 -0.00192929 0.00129567 0.00330364 0.000235563 -0.000312321 -0.0006109 -0.00165836 0.000598536 
0.00397915 -0.003306 -0.00113956 0.00499752 -0.000933821 0.000815817 0.001089 0.000607342 -0.000130502 
-0.00973335 0.0523267 -0.0305459 -0.0122578 -0.00962986 -0.00376503 -0.00906523 -0.0145965 -0.000880331 
-0.00715688 -0.00963026 -0.0139916 -0.00198831 0.00159987 -1.38947e-06 0.00135395 -0.00224431 0.000764716 
0.00139359 0.0149593 -0.00717138 0.00313724 -0.0017849 8.17274e-05 -0.0165683 0.0289258 -0.0509609 
0 0 -0.164585 0 0 -0.120185 0 0 -0.119272 
0 0 -0.107206 0 0 -0.0976511 0 0 -0.0694865 
0 0 -0.0754608 0 0 -0.0461976 0 0 -0.0292165 
-0 -0 -0.02 -0 -0 -0.02 -0 -0 -0.02 
0 0 -0.0342 -0 -0 -0.02 
f 3 92 double
-6.31908e-14 -5.38908e-13 1.58971e-10 -3.8928e-08 3.95855e-08 -1.46315e-08 -1.50272e-08 -2.27781e-08 1.95315e-09 
-1.00001e-07 1.03356e-07 1.97869e-07 -5.08609e-08 3.3009e-08 4.62455e-08 -6.35643e-08 9.41059e-08 -2.52402e-08 
1.46188e-08 1.1358e-07 2.98507e-08 3.78588e-08 -6.0996e-08 2.47871e-08 -9.56462e-09 5.40295e-08 -1.87486e-09 
-5.98745e-08 -1.29007e-08 4.28536e-09 3.2526e-08 -3.05653e-08 2.64255e-09 -1.79469e-08 -7.10846e-09 -6.34583e-08 
-4.09188e-09 -4.51606e-09 -1.00872e-07 0 0 -1.0273e-07 3.04854e-08 6.32026e-08 4.16648e-08 
3.9869e-08 1.23391e-07 3.87886e-08 -6.3046e-08 8.41643e-08 -1.29195e-08 -2.06092e-14 1.34082e-14 2.85747e-10 
1.67896e-08 3.80579e-08 6.30662e-08 6.59104e-08 1.00758e-07 1.08987e-07 7.07735e-22 3.34792e-22 0 
3.86194e-08 -2.63443e-08 2.78971e-08 1.73924e-08 -1.35685e-08 -1.50766e-08 6.22525e-09 1.1976e-09 8.10839e-08 
1.55584e-07 3.0217e-08 -3.25041e-09 -4.94458e-08 7.88677e-08 -8.79813e-08 5.78726e-08 9.21774e-08 -3.45124e-08 
2.7362e-09 -1.89819e-08 4.07507e-08 -2.8655e-08 -3.50182e-08 5.84729e-08 3.82327e-08 1.81633e-08 -4.18399e-08 
3.46613e-08 -2.95796e-08 5.65008e-08 4.75583e-08 5.45141e-09 -3.71038e-08 4.64275e-08 4.81403e-09 -1.92633e-08 
3.84887e-09 1.1949e-09 -3.13047e-08 4.25335e-08 -1.35764e-08 -4.02458e-08 2.2995e-08 1.1167e-08 5.60749e-09 
-1.33887e-08 3.25828e-08 1.04065e-09 2.3572e-08 -4.03699e-09 -5.54613e-08 -2.62392e-09 -6.81591e-09 -9.19558e-09 
1.61544e-08 -2.68004e-08 -4.61965e-08 7.7222e-09 1.82338e-08 -2.59563e-08 1.97159e-11 9.94282e-11 2.28645e-10 
5.54965e-09 -1.45815e-09 -1.6081e-10 1.9941e-07 -2.06344e-07 1.16511e-07 6.19084e-08 -2.63657e-08 2.09076e-08 
-3.77363e-08 -3.24584e-09 3.56264e-08 3.99055e-09 2.05977e-08 4.945e-08 -5.36243e-08 -3.17645e-09 1.13901e-07 
-6.3496e-11 -2.38046e-09 -2.93238e-08 1.84346e-08 2.7445e-08 -2.29667e-08 -4.82328e-08 -1.2665e-07 -3.54527e-09 
-2.89667e-08 2.99363e-08 7.22404e-08 -5.46103e-09 4.44187e-09 6.45694e-08 -5.87203e-08 -2.13586e-08 -2.73405e-08 
6.33021e-08 2.07665e-08 1.10393e-07 1.23585e-07 1.00523e-08 8.13817e-09 -2.82862e-08 -2.68564e-08 -1.54841e-08 
1.20266e-09 9.00883e-08 1.27029e-07 0 0 -1.0273e-07 9.89492e-08 9.40586e-08 2.0165e-08 
2.96569e-08 -2.30102e-08 2.44692e-08 1.27464e-08 -3.24796e-08 -4.04994e-08 -2.92837e-08 2.79524e-08 -3.31695e-08 
-5.65652e-08 -4.23195e-08 3.51895e-08 3.10071e-08 5.82734e-09 -4.39239e-08 4.27955e-08 6.02204e-08 -4.5452e-08 
2.78177e-08 -3.23808e-08 -1.12292e-08 7.68141e-09 -5.61765e-09 -2.53224e-08 7.88017e-08 -5.20972e-08 3.28061e-08 
0 0 -1.0273e-07 -1.04376e-07 7.80808e-08 -5.49895e-09 -5.01173e-08 1.48004e-08 -1.69162e-08 
3.77961e-08 -1.62817e-08 -7.31399e-08 -1.17852e-08 3.2538e-08 -9.56728e-08 -7.80889e-08 -3.87193e-08 -3.04954e-12 
-1.75546e-08 1.94944e-08 -6.11963e-08 1.74543e-08 -1.88781e-08 -4.69169e-08 0 0 -1.0273e-07 
0 0 -1.0273e-07 0 0 -1.0273e-07 0 0 -1.0273e-07 
0 0 -1.0273e-07 0 0 -1.0273e-07 0 0 -1.0273e-07 
0 0 -1.0273e-07 0 0 -1.0273e-07 0 0 -1.0273e-07 
0 0 0 0 0 0 0 0 0 
0 0 -1.0273e-07 0 0 0 
radius 1 92 double
0.0001 0.0001 0.0001 0.0001 0.0001 0.0001 0.0001 0.0001 0.0001 
0.0001 0.0001 0.0001 0.0001 0.0001 0.0001 0.0001 0.0001 0.0001 
0.0001 0.0001 0.0001 0.0001 0.0001 0.0001 0.0001 0.0001 0.0001 
0.0001 0.0001 0.0001 0.0001 0.0001 0.0001 0.0001 0.0001 0.0001 
0.0001 0.0001 0.0001 0.0001 0.0001 0.0001 0.0001 0.0001 0.0001 
0.0001 0.0001 0.0001 0.0001 0.0001 0.0001 0.0001 0.0001 0.0001 
0.0001 0.0001 0.0001 0.0001 0.0001 0.0001 0.0001 0.0001 0.0001 
0.0001 0.0001 0.0001 0.0001 0.0001 0.0001 0.0001 0.0001 0.0001 
0.0001 0.0001 0.0001 0.0001 0.0001 0.0001 0.0001 0.0001 0.0001 
0.0001 0.0001 0.0001 0.0001 0.0001 0.0001 0.0001 0.0001 0.0001 
0.0001 0.0001 
omega 3 92 double
-4.11572 5.13342 -14.4754 2.17044 -8.11581 9.81081 10.6585 10.4254 -5.55219 
-32.0217 4.47618 0.410395 10.824 10.7727 -1.16759 9.37906 -6.75969 11.7907 
-2.59095 9.47191 14.7226 -37.6186 -27.7202 -22.2472 4.41204 -2.56969 -7.27224 
1.25615 4.35802 13.156 8.92506 5.3694 9.92679 -17.7198 -9.06105 -22.1552 
42.5228 26.4556 0.636265 -47.5181 -6.57096 72.793 6.91863 -2.88345 -1.73988 
6.59968 10.292 12.3241 -0.259914 -2.43161 8.86595 20.3788 31.2363 43.5491 
2.4264 -1.77211 1.83944 -10.1242 -4.44664 -6.10719 6.74743 -11.8966 2.58477 
-13.7419 -18.2576 -11.3359 9.9801 4.39213 14.9155 9.53966 1.63762 9.65527 
1.9983 -9.82709 -9.91549 5.06988 6.10156 -4.98699 -37.3453 6.23718 -2.49348 
7.62695 1.53785 -1.04458 -8.32995 -0.505603 0.367503 -7.901 -3.63442 -11.2756 
-1.37064 -1.93627 -4.12586 4.00492 -1.90229 5.70916 4.68134 0.0652872 1.99579 
9.52284 -1.19794 0.455987 23.8825 5.81882 13.6636 -17.4215 27.7073 19.1868 
-1.03094 1.31846 1.73396 -2.77145 19.5139 -4.93121 8.62687 5.07055 -1.33632 
6.38473 0.967513 2.84235 -2.97987 -0.169278 -17.111 2.12108 1.04797 -24.7453 
1.91534 -7.42285 -29.2413 14.0533 -5.97162 -14.3789 6.65823 6.54503 11.5945 
7.64173 -2.97269 8.59717 -8.16444 10.4267 -20.1317 -32.3431 2.18553 -15.1848 
-7.77176 -15.5731 -7.74859 3.97055 16.4059 -3.14097 28.598 44.5567 39.6371 
-107.573 -111.187 10.8318 7.85941 7.90265 20.2267 5.80051 0.301978 23.3089 
-4.33792 4.11917 31.8372 -60.4563 3.40966 -15.4015 -11.3735 -5.58203 -7.9017 
29.8174 5.30085 -0.603044 -27.3786 11.5903 31.7721 4.0833 21.9027 16.45 
-15.4628 -7.0642 -22.7859 -1.7821 10.1053 -1.11135 -24.6535 102.341 -5.68352 
32.0984 24.314 -20.1666 -2.38065 -11.4382 -8.1335 -15.7798 -20.3282 -11.5557 
12.039 45.8989 17.9023 11.1394 38.2271 18.6836 -33.2189 -29.0442 -22.0699 
456.609 -196.44 -49.8559 262.264 -167.092 -26.2122 96.8411 -100.793 120.95 
115.298 -10.6238 -27.2872 -3.62624 1.94348 11.3016 1.71719 -11.8553 -11.5664 
-191.279 -144.384 -47.2721 -9.8125 -68.5239 14.8739 -83.4323 -260.926 185.64 
0 0 0 0 0 0 0 0 0 
0 0 0 0 0 0 0 0 0 
0 0 0 0 0 0 0 0 0 
0 0 0 0 0 0 0 0 0 
0 0 0 0 0 0 
