# vtk DataFile Version 4.0
Generated by LIGGGHTS
ASCII
DATASET POLYDATA
POINTS 13 float
-0.000126131 -0.000354452 0.00114565 0.000138855 0.000227547 0.00106432 -8.55993e-05 -9.49301e-05 0.00128803 
0.000309254 4.03266e-05 0.00145626 0.000294782 0.000367894 0.00125713 -0.00034893 0.000195614 0.0016732 
-0.000271486 -0.000318942 0.00182185 -0.00028515 -7.99255e-05 0.00181089 -0.000278063 0.000383223 0.00174188 
-1.00007e-05 -0.000285847 0.00204914 0.000328485 -0.000198368 0.00197633 -3.47712e-06 4.05222e-05 0.00194343 
-0.000398929 0.000255091 0.00209173 
VERTICES 13 26
1 0 
1 1 
1 2 
1 3 
1 4 
1 5 
1 6 
1 7 
1 8 
1 9 
1 10 
1 11 
1 12 

POINT_DATA 13
FIELD FieldData 7
id 1 13 int
6 5 1 2 4 3 9 11 7 
8 10 13 12 
type 1 13 int
1 1 1 1 1 1 1 1 1 
1 1 1 1 
i 3 13 int
0 0 0 0 0 0 0 0 0 
0 0 0 0 0 0 0 0 0 
0 0 0 0 0 0 0 0 0 
0 0 0 0 0 0 0 0 0 
0 0 0 
v 3 13 double
0 0 -0.131005 0 0 -0.13696 0 0 -0.119871 
0 0 -0.105205 0 0 -0.122372 0 0 -0.0825338 
0 0 -0.0624135 0 0 -0.0641107 0 0 -0.0739207 
-0 -0 -0.02 0 0 -0.0294029 0 0 -0.0388597 
-0 -0 -0.02 
f 3 13 double
0 0 -1.0273e-07 0 0 -1.0273e-07 0 0 -1.0273e-07 
0 0 -1.0273e-07 0 0 -1.0273e-07 0 0 -1.0273e-07 
0 0 -1.0273e-07 0 0 -1.0273e-07 0 0 -1.0273e-07 
0 0 0 0 0 -1.0273e-07 0 0 -1.0273e-07 
0 0 0 
radius 1 13 double
0.0001 0.0001 0.0001 0.0001 0.0001 0.0001 0.0001 0.0001 0.0001 
0.0001 0.0001 0.0001 0.0001 
omega 3 13 double
0 0 0 0 0 0 0 0 0 
0 0 0 0 0 0 0 0 0 
0 0 0 0 0 0 0 0 0 
0 0 0 0 0 0 0 0 0 
0 0 0 
