# vtk DataFile Version 4.0
Generated by LIGGGHTS
ASCII
DATASET POLYDATA
POINTS 46 float
-0.000495345 -0.000447103 9.99791e-05 -0.000297864 -0.000315433 0.000145079 -0.000137434 -0.000493921 9.9979e-05 
9.01888e-06 -0.000412725 0.000229745 0.000159998 -0.000379548 9.99794e-05 -0.000145108 -0.000256386 0.000267494 
-3.64889e-05 -0.000254387 9.9789e-05 0.000275048 -0.000150694 9.99716e-05 0.00032138 -0.000243339 0.000271035 
0.000448918 -0.000254724 9.99794e-05 -0.000418649 -6.92146e-05 9.99794e-05 -0.000154205 -9.28866e-05 9.99471e-05 
7.4505e-05 -8.40277e-05 9.99794e-05 0.000366908 5.78344e-06 0.000271057 -0.000456668 0.000201957 9.99794e-05 
-0.000178592 0.000108183 9.99798e-05 -0.000131931 0.000200659 0.000273343 -0.000314463 0.000283894 0.000227253 
-1.7307e-05 0.000259068 9.99745e-05 0.000117673 0.000112988 0.000120634 0.000349547 0.00014295 9.99566e-05 
-0.000323917 0.000480826 0.000174745 6.03841e-05 0.000443373 0.000100216 0.000230677 0.000304943 9.99796e-05 
0.000216686 0.00048359 0.000273443 0.000316163 0.000485751 9.99725e-05 -0.000181307 -0.000450763 0.000297688 
-0.000352904 -0.000208227 0.00040247 -0.000200087 5.79684e-05 0.000400521 0.000146454 -1.67109e-05 0.00030029 
0.00011201 0.000204017 0.000361247 0.00040388 0.000319526 0.000392119 -0.000281134 0.000273826 0.00063877 
0.000368684 0.000273017 0.000779391 0.000103273 -0.00034593 0.00126239 -0.000212285 -0.000303707 0.00164902 
-0.000395271 0.000113333 0.00151365 5.03739e-05 -0.000120922 0.00175053 -8.55869e-05 3.75413e-05 0.00171526 
0.000174324 -0.000379601 0.00198325 0.000201607 -0.000180051 0.0020526 -5.89037e-05 -3.78148e-05 0.00208715 
-0.000370492 0.00016947 0.00205176 -0.000294104 0.000385387 0.00205067 -9.40644e-05 0.000321798 0.00205239 
0.000174452 0.000323358 0.00200607 
VERTICES 46 92
1 0 
1 1 
1 2 
1 3 
1 4 
1 5 
1 6 
1 7 
1 8 
1 9 
1 10 
1 11 
1 12 
1 13 
1 14 
1 15 
1 16 
1 17 
1 18 
1 19 
1 20 
1 21 
1 22 
1 23 
1 24 
1 25 
1 26 
1 27 
1 28 
1 29 
1 30 
1 31 
1 32 
1 33 
1 34 
1 35 
1 36 
1 37 
1 38 
1 39 
1 40 
1 41 
1 42 
1 43 
1 44 
1 45 

POINT_DATA 46
FIELD FieldData 7
id 1 46 int
4 19 7 18 9 27 1 11 20 
15 3 14 10 26 12 24 23 25 
13 16 2 17 8 5 22 6 28 
32 30 29 31 21 33 39 34 36 
35 38 37 41 40 43 42 44 46 
45 
type 1 46 int
1 1 1 1 1 1 1 1 1 
1 1 1 1 1 1 1 1 1 
1 1 1 1 1 1 1 1 1 
1 1 1 1 1 1 1 1 1 
1 1 1 1 1 1 1 1 1 
1 
i 3 46 int
1 1 0 0 0 0 0 1 0 
0 0 0 -1 0 0 0 0 0 
0 0 0 -1 0 0 0 0 0 
-1 0 0 0 0 0 0 0 0 
0 0 0 -1 0 0 0 0 0 
1 0 0 0 0 0 1 0 0 
0 0 0 0 0 0 0 0 0 
0 -1 0 0 -1 0 0 0 0 
0 0 0 0 -1 0 0 1 0 
0 0 0 0 0 0 0 0 0 
0 0 0 0 -1 0 0 0 0 
0 0 0 0 0 0 0 0 0 
0 0 0 0 0 0 0 0 0 
0 0 0 0 0 0 0 0 0 
0 0 0 0 0 0 0 0 0 
0 0 0 
v 3 46 double
-0.00369906 0.0094935 -4.33387e-05 -0.0207414 -0.0155997 -0.00967302 0.0101511 0.000546886 8.74707e-06 
-0.00677938 -0.0018952 -0.00157634 0.00600871 0.00394203 -1.59889e-05 -0.00239347 0.0015476 0.00516331 
-0.00144127 0.00367974 0.00247556 -0.00579885 -0.00222567 8.31516e-07 0.0130483 -0.00480902 -0.00650116 
-0.00749118 -0.00800331 -4.84678e-15 -0.0206672 -0.0144112 1.03313e-10 -0.00512667 0.00206313 -0.000530002 
-0.00554886 0.0038278 7.32972e-14 -0.0140201 -0.00393001 -0.0270164 0.0113316 0.0123484 5.49055e-13 
0.00841747 -0.00413727 -3.26692e-05 -0.0105896 0.00244789 0.000301792 -0.0157934 -0.00681451 -0.042438 
0.00317479 -0.0010261 -0.00145783 0.00541344 -0.00109064 -0.0019575 0.0113516 0.00847295 -0.000649394 
0.00302055 0.00784462 -0.0154959 0.00902467 -0.00444402 0.00224048 -9.70777e-05 -0.000683494 2.47043e-06 
0.00926809 -0.00166829 0.00564762 -0.000368994 -0.000518919 5.80445e-05 -0.0104018 0.000555427 -5.58339e-05 
-0.0216742 0.0264699 0.0431921 0.00424461 -0.015376 -0.00486757 -0.0355239 -0.0269126 -0.0148591 
-0.0127441 0.0289807 -0.0670947 -0.000459849 -0.0453226 -0.0127657 0 0 -0.164644 
0 0 -0.15604 0 0 -0.12195 0 0 -0.0853591 
0 0 -0.0997112 0 0 -0.0727631 0 0 -0.0773738 
0 0 -0.0269896 -0 -0 -0.02 -0 -0 -0.02 
-0 -0 -0.02 -0 -0 -0.02 -0 -0 -0.02 
-0 -0 -0.02 
f 3 46 double
2.36714e-11 -1.32696e-11 1.04922e-08 0 0 -1.0273e-07 1.94563e-12 1.05022e-13 1.68528e-09 
0 0 -1.0273e-07 -1.80501e-12 3.44462e-12 2.71636e-09 -2.9365e-07 -4.41878e-07 1.35575e-06 
2.4711e-07 -3.10541e-07 8.54332e-07 -7.96469e-10 3.41972e-09 -5.96781e-13 8.54408e-09 -1.84634e-08 -3.91202e-08 
-1.92603e-22 -5.72812e-22 6.87658e-19 -4.55104e-17 -3.1736e-17 1.32621e-13 -4.00223e-07 9.91006e-07 6.03252e-07 
-9.64777e-21 5.9328e-21 5.52773e-17 0 0 -1.0273e-07 1.33542e-19 1.53703e-19 -5.26058e-17 
-6.07247e-12 2.97647e-12 3.17337e-09 0 0 -1.0273e-07 0 0 -1.0273e-07 
2.17424e-07 -6.69976e-08 3.16589e-07 -9.85549e-09 2.12569e-08 -9.69525e-08 -1.98877e-10 -2.42694e-10 3.58302e-07 
0 0 -1.0273e-07 0 0 -1.0273e-07 1.69883e-10 -9.20302e-11 -1.83502e-09 
-1.65905e-08 1.96398e-09 -4.65367e-08 2.49436e-09 -3.17336e-09 -1.19317e-08 0 0 -1.0273e-07 
0 0 -1.0273e-07 0 0 -1.0273e-07 0 0 -1.0273e-07 
0 0 -1.0273e-07 0 0 -1.0273e-07 0 0 -1.0273e-07 
0 0 -1.0273e-07 0 0 -1.0273e-07 0 0 -1.0273e-07 
0 0 -1.0273e-07 0 0 -1.0273e-07 0 0 -1.0273e-07 
0 0 -1.0273e-07 0 0 0 0 0 0 
0 0 0 0 0 0 0 0 0 
0 0 0 
radius 1 46 double
0.0001 0.0001 0.0001 0.0001 0.0001 0.0001 0.0001 0.0001 0.0001 
0.0001 0.0001 0.0001 0.0001 0.0001 0.0001 0.0001 0.0001 0.0001 
0.0001 0.0001 0.0001 0.0001 0.0001 0.0001 0.0001 0.0001 0.0001 
0.0001 0.0001 0.0001 0.0001 0.0001 0.0001 0.0001 0.0001 0.0001 
0.0001 0.0001 0.0001 0.0001 0.0001 0.0001 0.0001 0.0001 0.0001 
0.0001 
omega 3 46 double
-94.9453 -36.9959 28.2741 32.9922 148.715 166.093 -5.46944 101.521 -96.0512 
-98.0182 -194.774 203.859 -39.4248 60.0963 136.613 139.958 20.0242 -84.8563 
-38.1792 -12.1279 -14.9352 22.2592 -57.9933 -116.262 15.5504 263.104 144.388 
80.0414 -74.9195 74.9576 144.127 -206.694 -50.7138 46.7215 -26.443 72.0217 
-38.282 -55.4943 15.178 -255.396 -54.9474 53.4522 -123.497 113.328 -116.743 
41.3768 84.1832 -45.8709 -92.9388 -297.431 86.7725 108.258 -18.6795 -104.948 
16.3296 58.8011 66.9208 -70.4783 -3.1121 -52.0166 -84.752 113.534 158.591 
181.253 162.799 -2.21557 45.6095 89.4107 -83.3427 6.87749 -0.982123 -56.0784 
-136.954 111.879 181.115 5.17511 -3.60366 71.8344 -318.532 -397.998 -36.5189 
-416.654 -19.9856 -95.8229 255.199 814.422 -207.27 113.731 157.281 189.562 
-375.604 79.8187 -18.7878 662.763 -158.652 -86.7595 0 0 0 
0 0 0 0 0 0 0 0 0 
0 0 0 0 0 0 0 0 0 
0 0 0 0 0 0 0 0 0 
0 0 0 0 0 0 0 0 0 
0 0 0 
