# vtk DataFile Version 4.0
Generated by LIGGGHTS
ASCII
DATASET POLYDATA
POINTS 160 float
-0.000468207 -0.000413751 9.99794e-05 -0.000342118 -0.000459273 0.000262757 -0.000274055 -0.00036526 9.99465e-05 
-0.000140188 -0.000321511 0.000242019 -9.51097e-05 -0.000454836 9.99546e-05 4.88134e-05 -0.000416927 0.000233517 
0.000198001 -0.000389779 9.99922e-05 0.000384745 -0.000387356 0.00024818 -0.000443357 -0.000286913 0.000266633 
-0.00038117 -0.000195595 9.99599e-05 -0.000181067 -0.000186877 9.99165e-05 -0.000282112 -0.00015982 0.000270243 
-2.77153e-06 -0.000277377 9.99263e-05 6.69166e-05 -0.000194013 0.000267768 0.00017786 -0.000190855 9.9944e-05 
0.00029981 -0.000199106 0.000258192 0.000474992 -0.0001104 0.000220171 0.00040815 -0.00025542 9.98727e-05 
-0.00047674 4.19181e-05 9.99581e-05 -0.000378778 1.50863e-05 0.000273539 -0.000281624 -1.40383e-05 9.99651e-05 
-0.000104664 -5.70454e-05 0.000231441 -0.000102337 9.3685e-05 9.9947e-05 4.51933e-05 -4.12793e-05 9.99773e-05 
3.86461e-05 9.94646e-05 0.000241881 0.000186075 -3.54876e-05 0.000242077 0.000325104 -5.55127e-05 9.98763e-05 
0.000364887 5.35511e-05 0.000262697 -0.000331694 0.000179562 9.99685e-05 -0.000483502 0.000182755 0.000244111 
-0.000217942 0.000132861 0.000258311 -0.000169522 0.000298118 9.99311e-05 -6.89055e-05 0.000265631 0.000269607 
3.37789e-05 0.000240224 9.99398e-05 0.000181409 0.000105231 9.99828e-05 0.000129734 0.000288533 0.000268659 
0.000346496 0.000286458 0.000261897 0.000370308 0.000170882 9.9979e-05 -0.000323785 0.000302828 0.000257213 
-0.000323459 0.000426231 9.99185e-05 -0.000494433 0.000320674 9.98648e-05 -0.000173542 0.000434417 0.000246806 
7.3038e-05 0.000436302 9.9943e-05 0.00023328 0.000316695 9.9923e-05 0.000219536 0.0004639 0.000234539 
0.000367528 0.000472142 9.99789e-05 0.000485141 0.000440126 0.000258818 -0.000484419 -0.000426096 0.000404295 
-0.000275872 -0.000319846 0.000389825 -0.000162801 -0.000480389 0.000427353 -1.62186e-05 -0.000325638 0.000399103 
0.000113415 -0.000460161 0.000481372 0.000208664 -0.000358123 0.000338218 -0.000435057 -0.00013548 0.000396898 
-9.3833e-05 -0.000152759 0.000462921 0.000152689 -0.000200892 0.000448273 0.000408006 -0.000257941 0.000415676 
-0.000227781 -1.80793e-05 0.000400409 5.02166e-05 -3.56621e-05 0.000388773 0.000294571 -6.59673e-05 0.000407307 
-0.000353229 0.000167486 0.000401423 -0.000201729 0.000297713 0.000415563 -7.97015e-05 0.000116315 0.000402201 
4.92212e-05 0.000261876 0.000449748 0.00020486 0.000126258 0.000358165 0.000451698 0.000130988 0.000426003 
-0.000363472 0.000415238 0.000417743 1.82193e-06 0.000431753 0.000355479 0.000243551 0.00031097 0.000431575 
0.000334574 0.000488076 0.00039631 0.000455321 0.000330971 0.000423617 -0.00033403 -0.000432704 0.000544216 
-0.000155427 -0.000322153 0.000549394 -5.05067e-05 -0.000487159 0.000592676 4.97666e-05 -0.000302418 0.000586502 
0.00028546 -0.000369385 0.00052766 0.000168167 -0.000441131 0.000672844 0.000497308 -0.000331207 0.000579365 
0.000367854 -0.000425343 0.000701233 -0.000334723 -0.000284685 0.000678667 -0.000409889 -9.94175e-05 0.000682698 
-0.000283782 -0.000169965 0.000522928 -2.17993e-05 -0.000125903 0.0006477 0.000265091 -0.000189855 0.000613343 
0.000433688 -0.000106876 0.000545 -0.000412348 1.907e-05 0.000521644 -0.000141212 1.83678e-05 0.000576967 
0.000140173 -4.07391e-05 0.000567252 0.000289903 8.77296e-05 0.000535163 0.000454026 7.65615e-05 0.000658833 
-0.000405469 0.000279582 0.000558594 -0.000311903 0.000124881 0.00065832 -0.000148923 0.000220116 0.000592129 
2.8448e-05 0.000123155 0.000592257 0.000195195 0.000214203 0.000657711 0.000385775 0.000252984 0.000594029 
-0.000220667 0.000406855 0.000582054 0.000100045 0.000381093 0.000602214 0.000294464 0.000430566 0.000583573 
0.000493958 0.00046264 0.000569074 -0.000462968 -0.00038078 0.000798417 -0.000258957 -0.000385739 0.000833717 
-8.84955e-05 -0.000349084 0.000735834 0.00024712 -0.000461984 0.000886074 -0.000330999 -0.0001892 0.000854737 
-0.000213244 -0.000127958 0.000705219 -0.000131344 -0.000248292 0.000903155 5.38257e-05 -0.000226022 0.000803413 
0.000245659 -0.000288965 0.000785894 0.000203219 -0.000108195 0.000864787 0.000429496 -0.000212038 0.000724909 
-0.000305365 7.4201e-06 0.000820021 -7.11292e-05 -7.05674e-05 0.000833995 9.00463e-05 1.64242e-05 0.000752726 
0.000282443 -1.40793e-05 0.000707125 0.000459252 -3.95235e-05 0.000821591 0.000303225 6.15701e-05 0.000898698 
-0.000457891 0.00016222 0.000816635 -0.000260522 0.000296706 0.000746643 -0.000105824 0.000108747 0.000752532 
-2.27106e-05 0.000289596 0.000730885 0.00016114 0.000214975 0.00085477 0.000349733 0.000221532 0.000788162 
-0.000347563 0.000474873 0.000720969 -0.000493334 0.000338225 0.000728583 -0.000413986 0.000409883 0.00089803 
-0.000130504 0.000315055 0.000897453 -0.000149154 0.000462104 0.000761059 4.55912e-05 0.000471421 0.000805478 
0.000219768 0.000382899 0.000762844 0.000387501 0.000395864 0.000878438 -0.000421995 -0.00033246 0.000988385 
-8.19588e-05 -0.000439325 0.000936198 0.000103214 -0.000343108 0.00095782 0.00028088 -0.000400663 0.00107338 
-0.000476159 -0.000138855 0.000982708 0.000401526 -0.000279873 0.000910826 0.000327752 -0.000127133 0.00102008 
-0.000175551 -5.75842e-05 0.0010041 1.20334e-05 9.64421e-05 0.000919228 4.52316e-05 -0.000104094 0.00099317 
0.000181346 8.85114e-05 0.00105503 0.00048419 5.76177e-05 0.000994625 -0.000312844 0.000239145 0.000931193 
-0.000157224 0.000145156 0.00101515 0.000311144 0.000243867 0.000984866 0.000110759 0.000390334 0.000976276 
0.000454245 0.000419357 0.00106547 -0.000308492 0.000131294 0.00114953 0.000204912 -0.000319568 0.00134271 
-0.000284312 0.000381733 0.00128418 -7.89489e-05 -0.000201962 0.00152306 -4.97817e-05 5.60938e-05 0.00155666 
-0.000304945 -0.000340898 0.00193618 0.000176017 -0.00034426 0.00209023 -0.000195042 -9.75051e-05 0.00203736 
6.86705e-05 -2.93569e-05 0.00199108 -0.000333775 0.000166205 0.00197293 0.000353921 0.00020775 0.00204117 
4.72306e-05 0.00030418 0.00200288 
VERTICES 160 320
1 0 
1 1 
1 2 
1 3 
1 4 
1 5 
1 6 
1 7 
1 8 
1 9 
1 10 
1 11 
1 12 
1 13 
1 14 
1 15 
1 16 
1 17 
1 18 
1 19 
1 20 
1 21 
1 22 
1 23 
1 24 
1 25 
1 26 
1 27 
1 28 
1 29 
1 30 
1 31 
1 32 
1 33 
1 34 
1 35 
1 36 
1 37 
1 38 
1 39 
1 40 
1 41 
1 42 
1 43 
1 44 
1 45 
1 46 
1 47 
1 48 
1 49 
1 50 
1 51 
1 52 
1 53 
1 54 
1 55 
1 56 
1 57 
1 58 
1 59 
1 60 
1 61 
1 62 
1 63 
1 64 
1 65 
1 66 
1 67 
1 68 
1 69 
1 70 
1 71 
1 72 
1 73 
1 74 
1 75 
1 76 
1 77 
1 78 
1 79 
1 80 
1 81 
1 82 
1 83 
1 84 
1 85 
1 86 
1 87 
1 88 
1 89 
1 90 
1 91 
1 92 
1 93 
1 94 
1 95 
1 96 
1 97 
1 98 
1 99 
1 100 
1 101 
1 102 
1 103 
1 104 
1 105 
1 106 
1 107 
1 108 
1 109 
1 110 
1 111 
1 112 
1 113 
1 114 
1 115 
1 116 
1 117 
1 118 
1 119 
1 120 
1 121 
1 122 
1 123 
1 124 
1 125 
1 126 
1 127 
1 128 
1 129 
1 130 
1 131 
1 132 
1 133 
1 134 
1 135 
1 136 
1 137 
1 138 
1 139 
1 140 
1 141 
1 142 
1 143 
1 144 
1 145 
1 146 
1 147 
1 148 
1 149 
1 150 
1 151 
1 152 
1 153 
1 154 
1 155 
1 156 
1 157 
1 158 
1 159 

POINT_DATA 160
FIELD FieldData 7
id 1 160 int
4 46 28 51 7 18 9 20 44 
19 27 47 1 29 11 34 40 15 
3 42 14 30 24 10 23 38 26 
49 12 32 35 25 37 13 16 31 
45 2 33 17 21 36 8 5 22 
6 39 63 62 58 54 77 41 52 
67 73 56 53 55 61 60 75 64 
68 43 57 71 48 69 50 59 90 
65 94 89 72 96 86 106 97 88 
76 99 81 87 66 79 85 74 101 
84 102 80 92 93 78 91 83 82 
70 131 126 105 124 118 104 125 112 
110 114 98 109 116 119 100 111 130 
120 115 123 95 122 107 113 103 138 
129 108 132 117 133 146 144 139 142 
121 134 137 135 127 147 143 140 128 
136 141 148 145 149 150 153 151 152 
159 156 158 160 157 154 155 
type 1 160 int
1 1 1 1 1 1 1 1 1 
1 1 1 1 1 1 1 1 1 
1 1 1 1 1 1 1 1 1 
1 1 1 1 1 1 1 1 1 
1 1 1 1 1 1 1 1 1 
1 1 1 1 1 1 1 1 1 
1 1 1 1 1 1 1 1 1 
1 1 1 1 1 1 1 1 1 
1 1 1 1 1 1 1 1 1 
1 1 1 1 1 1 1 1 1 
1 1 1 1 1 1 1 1 1 
1 1 1 1 1 1 1 1 1 
1 1 1 1 1 1 1 1 1 
1 1 1 1 1 1 1 1 1 
1 1 1 1 1 1 1 1 1 
1 1 1 1 1 1 1 1 1 
1 1 1 1 1 1 1 1 1 
1 1 1 1 1 1 1 
i 3 160 int
1 1 0 0 1 0 0 1 0 
0 0 0 0 1 0 0 0 0 
-1 0 0 0 0 0 0 1 0 
0 0 0 0 0 0 0 0 0 
0 0 0 0 0 0 -1 0 0 
0 0 0 0 0 0 -1 0 0 
0 0 0 0 0 0 0 0 0 
0 0 0 1 0 0 0 0 0 
0 0 0 0 0 0 -1 0 0 
0 0 0 0 0 0 0 0 0 
0 0 0 1 0 0 0 0 0 
0 0 0 0 0 0 0 0 0 
0 0 0 0 0 0 0 0 0 
0 -1 0 1 -1 0 0 -1 0 
0 -1 0 0 0 0 0 0 0 
0 -1 0 0 0 0 0 1 0 
1 0 0 0 0 0 0 0 0 
0 0 0 0 0 0 0 0 0 
0 0 0 0 0 0 0 0 0 
0 0 0 0 0 0 0 0 0 
0 0 0 0 0 0 0 0 0 
0 0 0 0 0 0 0 0 0 
0 0 0 0 0 0 0 0 0 
0 -1 0 0 0 0 0 0 0 
0 0 0 0 0 0 0 0 0 
0 0 0 0 0 0 0 0 0 
-1 0 0 0 0 0 0 0 0 
0 0 0 0 0 0 0 0 0 
0 0 0 0 0 0 0 0 0 
0 0 0 0 0 0 0 0 0 
0 0 0 0 0 0 0 0 0 
0 0 0 0 0 0 0 0 0 
0 0 0 0 0 0 0 -1 0 
-1 -1 0 0 0 0 0 0 0 
0 0 0 0 0 0 0 0 0 
0 0 0 0 0 0 0 0 0 
0 0 0 0 0 0 -1 0 0 
0 0 0 0 0 0 0 0 0 
0 0 0 0 0 0 0 0 0 
0 0 0 0 0 0 0 0 0 
0 0 0 0 0 0 0 0 0 
0 -1 0 1 0 0 0 0 0 
0 0 0 0 0 0 0 -1 0 
0 0 0 0 0 0 0 0 0 
0 1 0 0 0 0 0 0 0 
1 0 0 0 0 0 0 0 0 
0 0 0 0 0 0 0 0 0 
0 0 0 -1 0 0 0 0 0 
0 0 0 0 0 0 0 0 0 
0 -1 0 0 0 0 0 0 0 
0 0 0 0 0 0 0 0 0 
0 0 0 0 0 0 0 0 0 
0 0 0 0 0 0 0 0 0 
0 0 0 
v 3 160 double
2.40238e-05 -0.000502451 -3.44524e-07 -0.000251946 0.000288215 0.000362279 -0.000176358 0.000490493 0.000180448 
0.000591785 0.000147567 0.000227066 0.000250762 0.00019455 7.8409e-05 -0.000319197 1.07726e-05 0.000167915 
-0.000582407 0.00016752 0.000164364 -0.000526615 0.000367123 -2.35786e-05 -0.00026372 0.000234474 0.000497627 
0.000104719 0.00055128 0.000329404 7.48246e-05 -0.000131126 0.000157493 -0.000168483 0.000254686 0.000128227 
4.62773e-05 -9.08079e-05 -5.69247e-05 -0.000281278 4.26361e-05 9.05018e-05 -0.000117561 0.000345673 -0.000145411 
-1.44206e-05 0.000255844 -0.000212208 0.000394863 0.000451851 0.00022284 -0.00019185 0.000478189 3.70169e-05 
-4.68613e-05 0.000577222 0.000141367 0.000117133 0.000507776 0.00031072 -0.00021333 0.000171689 0.000257064 
-0.000177812 0.000484893 5.15208e-05 -0.000322376 0.000292129 -0.000141594 -0.000345804 0.000268211 -0.000133133 
-0.000220712 0.000139657 -9.91608e-05 -0.000110141 0.000161732 0.000118361 0.00027186 0.000240945 0.000257892 
-0.000541551 -0.000196596 0.00107366 0.000252424 0.000569584 -9.7457e-05 -0.000571716 0.000305754 0.000887165 
-0.000270065 0.000589076 -0.000259883 1.16597e-05 4.11825e-05 5.89066e-05 -9.1847e-05 0.00018792 0.000223049 
-6.99919e-05 5.01679e-05 2.94536e-05 0.00032107 -0.000563884 -4.96272e-05 8.90218e-05 -4.19119e-05 0.000549055 
-0.00058386 0.000809865 0.000798899 -2.51324e-05 -0.000112434 1.66805e-05 0.00131251 0.000606 0.000259042 
0.00076794 0.000566625 0.000114024 -0.000421677 -0.000312903 0.000213442 0.000205296 0.000501649 0.000385384 
-0.000294922 -0.000172714 0.000148001 -3.44098e-05 0.000130964 0.000157701 -0.000615615 5.89828e-05 4.03773e-05 
2.33833e-06 -0.000576659 2.7855e-05 -0.000439279 0.000333405 -4.22059e-05 0.000357467 0.000545546 0.000138619 
-0.000295452 0.000310247 0.000777971 -0.000311439 0.000212377 0.000714739 -0.000405456 0.000220553 6.95078e-05 
-0.000520714 0.000196305 0.00059985 -0.000458797 0.000124201 0.000484791 0.00021486 0.000370028 0.000533604 
0.000116754 0.000282386 0.000360511 -0.000265179 7.60676e-05 2.5946e-05 -0.000200732 0.000550414 0.000294581 
-0.000398476 0.000156384 0.000598389 -0.000155234 0.000243176 -0.000143414 -0.000162989 0.00020764 -0.000172763 
0.000501695 0.000774747 0.000442695 0.000455904 0.0005134 0.000915683 3.09032e-05 -9.01358e-05 0.000170271 
6.37602e-05 0.000142836 0.000711863 -0.00038871 -2.2209e-05 0.000766835 0.000700972 0.000238542 0.00115693 
0.000399325 0.000554116 0.000459716 -0.000365708 0.000111704 0.0006976 -0.000578749 1.64152e-05 0.00121128 
-0.000617849 -0.000187863 -7.45264e-05 1.07445e-05 0.000515963 0.000442615 -0.000366105 0.000200186 0.00113254 
0.000107498 0.00038079 0.000690012 -0.000421313 -0.000920703 0.00109213 -0.000552393 0.0001853 0.000547273 
3.04005e-05 -5.75094e-05 0.000363572 0.00058389 0.000816022 0.00188244 0.000667526 0.00207501 -0.000372349 
-0.00136284 0.000282947 0.00137408 -0.000649539 0.000348749 0.00127617 -0.000113792 0.000681691 0.000906327 
0.000284939 0.000311143 0.000970357 -4.42835e-05 8.23868e-05 0.000696318 0.000103991 0.000373562 -0.000278169 
-0.00019266 0.00130154 0.000218073 0.00084577 0.000522534 0.000593955 0.000246666 -4.34496e-05 0.000281033 
-0.000180428 1.87054e-05 0.000106213 0.00039277 -0.00026348 0.000417432 0.000622166 -0.000139407 0.000999344 
0.000427855 0.00117625 0.000329214 0.00141978 -0.000657985 0.00127155 0.000325054 0.00215304 0.00155463 
-0.000133159 0.00055648 0.000892394 0.000271885 4.72818e-05 -2.33577e-05 0.000205678 -3.93868e-06 0.000894718 
-0.000301178 0.000553517 0.00125616 -0.000288551 -2.98768e-07 0.000302439 -0.000174814 0.000358256 0.000590916 
-0.00109735 0.000720957 0.000166413 -0.000782801 0.00148307 0.00119587 -0.00182322 0.000526603 0.00182967 
-0.00227439 0.00223967 0.0020205 -0.00184545 0.00131289 0.00106537 0.00268788 -0.00360581 0.00272742 
-0.000210362 7.44456e-05 0.00143198 -0.00212555 0.00150981 0.00190834 -0.000727409 0.00103875 0.00160074 
0.000696955 0.00143769 0.0011234 -0.00180457 0.00218817 0.00243453 -0.000363544 0.00314303 -0.00216357 
3.77772e-05 -0.000482407 0.00130078 -0.00041869 0.000361182 4.7129e-05 0.000347026 -0.00321391 0.00182372 
0.000134568 5.69118e-06 0.00108395 0.000590728 0.00101116 0.00192411 -6.42908e-05 0.000880768 0.00152423 
-0.00508087 0.000401811 0.00319377 0.00112674 -0.000304874 0.00110783 0.00104347 0.00100575 0.000617823 
-0.00032835 0.00296753 0.00227145 0.000303388 0.000485255 -0.000459576 0.00112601 0.000405389 0.00107014 
0.000206536 -0.000592085 0.00129843 -0.000634764 0.000532254 0.00124768 -0.00151833 0.00502004 0.00335109 
-0.000476578 0.00168961 0.0022271 -0.00251742 0.00222221 0.0021096 -0.000249064 0.00837803 -0.00956088 
-0.00144555 0.000687515 0.000706115 -0.00139065 0.00173029 0.000247964 -0.0145012 -0.0120104 0.0150669 
-0.0136541 -0.00476017 -0.0158201 -0.00639334 -0.00288175 0.000806612 0.00436187 -0.000399856 0.000710141 
0.00136383 -0.000765272 0.000319428 -0.00497781 0.00405839 -0.00425703 0.00123715 -0.003225 -0.000366103 
-0.0218009 -0.00255334 -0.0124161 0.00494818 -0.00235688 0.0053516 -0.00636708 -0.0161333 0.00105483 
-0.0217465 0.00247805 -0.014476 0.000973996 -0.00100446 0.00316697 -0.0038513 0.00353513 6.33349e-05 
-0.00316164 -0.00167049 -0.00567606 -0.00136859 0.00375721 0.0034064 -0.0320765 -0.0095842 -0.00583869 
0.0162263 -0.0129239 -0.00410158 -0.051584 -0.00693415 -0.0446972 0 0 -0.115309 
0 0 -0.120185 0 0 -0.0987792 0 0 -0.0953849 
0 0 -0.0406451 -0 -0 -0.02 -0 -0 -0.02 
0 0 -0.023978 0 0 -0.0305114 -0 -0 -0.02 
-0 -0 -0.02 
f 3 160 double
2.02853e-11 1.48355e-11 -1.74082e-10 1.60186e-08 -4.43055e-08 2.52625e-08 5.57671e-09 7.81126e-09 1.58278e-08 
-1.05581e-08 1.76857e-09 -3.22239e-08 -7.98375e-08 1.90875e-08 -2.64174e-08 6.47362e-09 -9.40418e-10 -5.73973e-08 
2.66322e-08 3.28004e-08 -5.11916e-08 5.58158e-08 -3.1355e-08 3.78016e-09 4.04063e-08 -2.19306e-08 9.43839e-09 
2.03042e-08 -3.91386e-08 -1.11757e-08 5.2116e-09 -1.87263e-08 -5.59678e-10 2.96977e-09 -2.95123e-08 -1.61455e-09 
-2.21056e-08 -2.58638e-08 -2.09464e-08 -1.29945e-09 -4.37787e-08 -1.99042e-08 2.70017e-08 -5.666e-09 3.05454e-08 
2.633e-08 -8.80009e-09 -2.46177e-08 3.22271e-08 -1.21646e-08 -1.31495e-08 4.91383e-08 -1.37136e-08 -3.85354e-09 
2.06279e-08 -1.44706e-08 1.31352e-08 -2.28623e-08 -1.74038e-08 -1.12176e-08 -9.18351e-09 -4.86031e-08 1.50515e-08 
-6.81354e-08 1.90403e-08 -4.26286e-09 2.01917e-08 -3.17783e-08 -8.05541e-09 1.20182e-08 2.61924e-09 -4.97065e-09 
3.1797e-08 4.8275e-08 -5.94967e-08 -8.8575e-09 -4.39165e-08 -4.53452e-09 9.60961e-09 -4.87019e-08 -4.30169e-09 
-1.36719e-09 1.79204e-08 -1.99939e-09 2.95248e-08 -4.38739e-08 1.15915e-08 -2.41878e-08 1.67191e-08 -3.47414e-09 
1.10629e-08 -1.72966e-08 2.28056e-09 -2.63964e-08 3.91761e-08 -1.39698e-10 4.87654e-08 4.99545e-08 -1.67152e-08 
-3.09496e-08 7.67253e-09 -4.21367e-08 -4.28735e-08 -4.01552e-08 -1.11384e-08 -6.11598e-09 -1.23797e-08 -5.11209e-08 
-5.86857e-08 -6.52603e-08 -1.61274e-08 3.77155e-08 3.90108e-08 -4.43682e-09 4.84021e-08 -6.52997e-08 1.05057e-09 
4.91694e-09 -1.02235e-08 -6.54997e-09 9.19924e-09 1.06151e-08 -6.34523e-09 3.26306e-08 9.70057e-08 -2.15612e-08 
-4.92275e-08 -1.03525e-08 -4.07356e-08 -1.70461e-08 -3.36307e-08 -7.05979e-09 1.83663e-09 2.96171e-08 -1.8299e-08 
-2.64955e-12 -3.9976e-12 -1.69752e-09 4.86225e-08 -2.27189e-08 7.79147e-09 5.68219e-08 6.75379e-09 -1.21615e-08 
-3.08452e-08 -8.80196e-09 -2.37661e-08 -8.92317e-10 -3.31587e-08 9.98732e-09 3.80651e-08 5.86549e-08 -9.72833e-08 
-1.54546e-08 -1.70763e-08 -1.89529e-08 4.91647e-08 -5.8832e-08 -8.71469e-08 7.40018e-08 1.17424e-08 -1.94125e-08 
-3.77856e-09 3.51939e-08 3.64418e-08 -4.74258e-08 7.6184e-08 -9.70027e-08 5.23768e-08 -2.08296e-08 -2.21843e-08 
-2.31144e-08 2.62614e-08 -3.22892e-08 -4.85857e-08 1.07742e-07 -4.59178e-09 -8.82257e-08 2.91045e-08 -1.08253e-07 
4.28814e-08 -3.39442e-08 -2.27782e-08 6.06359e-08 3.1077e-08 -3.53445e-09 1.08258e-08 1.4263e-08 -4.19345e-08 
-9.64696e-08 1.41957e-07 -3.43419e-08 1.56714e-08 -8.67539e-08 -6.65341e-08 3.50903e-08 6.79107e-09 5.39773e-08 
-9.37127e-09 -3.77228e-08 -3.27083e-08 6.60305e-08 1.94168e-08 -5.40796e-08 -6.41145e-08 -3.52589e-08 -5.76575e-08 
5.07613e-09 -6.3191e-08 -3.32544e-08 -4.05609e-08 -3.24673e-09 -1.33724e-08 -3.39797e-08 -1.7006e-08 4.75221e-09 
-6.84014e-08 -4.72539e-08 3.06039e-08 -1.50757e-08 -2.39707e-08 -2.46363e-08 -8.91485e-08 9.89685e-08 -7.17177e-09 
2.47534e-08 -2.13219e-08 2.12875e-08 -8.22038e-08 -4.49461e-08 1.02927e-08 3.95501e-08 -3.16035e-08 -3.50782e-08 
-5.26855e-09 6.50901e-08 -6.27696e-08 -7.1771e-08 1.9239e-08 -1.46491e-08 -7.97326e-09 -2.55867e-08 -5.56946e-08 
5.28624e-08 -2.67293e-08 4.09668e-08 -3.32425e-08 -2.99901e-08 1.03872e-07 -1.77934e-07 9.19347e-08 -4.88501e-07 
3.33644e-08 6.21219e-08 -5.28626e-08 -2.0952e-08 -2.75633e-08 -2.68016e-08 4.06724e-09 1.71966e-08 -6.73979e-08 
-1.26898e-07 8.95684e-08 4.00561e-08 2.45702e-08 8.56583e-11 9.75525e-08 -3.90217e-08 1.28415e-09 -6.7615e-08 
1.008e-10 2.7646e-10 -1.02041e-07 -3.27834e-08 -3.61456e-08 4.90703e-10 1.08342e-08 -1.37626e-08 -8.26457e-09 
-1.87362e-07 1.88104e-07 -1.02629e-08 -7.61682e-09 -7.50761e-09 2.19399e-09 -4.6808e-08 3.24078e-08 -3.38235e-08 
1.58676e-09 -4.55268e-10 -3.60779e-08 -3.53658e-08 -5.80458e-08 -2.51836e-08 -6.41911e-09 -1.74388e-08 -5.41681e-08 
6.6141e-08 9.18089e-08 2.73762e-08 0 0 -1.0273e-07 -1.45279e-07 6.67327e-08 5.82374e-08 
2.37074e-08 -1.02726e-07 -4.53407e-09 -1.67155e-07 -4.59762e-08 -6.75542e-09 -6.37739e-08 -9.44736e-08 6.59638e-08 
-2.75277e-08 -1.12274e-07 1.05752e-07 -1.1387e-08 7.01872e-08 -9.08688e-09 1.46176e-08 -2.4922e-08 -7.91015e-08 
-9.64131e-07 -2.64651e-07 -6.07328e-07 9.12419e-09 -8.34913e-08 -2.05248e-08 -2.16587e-07 3.97274e-07 -6.13491e-07 
-1.63865e-08 -1.55659e-08 4.29001e-08 7.10326e-09 -1.01542e-08 -7.43015e-08 0 0 -1.0273e-07 
-6.39838e-08 -2.86602e-08 -2.10367e-08 -1.51291e-09 -1.59197e-08 -1.06318e-07 6.97679e-08 9.9473e-09 4.63105e-08 
1.06504e-07 -9.699e-08 4.95589e-10 4.06837e-08 -5.29371e-08 3.76838e-09 2.09069e-08 -2.21608e-08 -5.61089e-08 
-2.15867e-08 -2.21684e-09 -8.97436e-08 -1.87944e-08 1.3681e-09 2.41408e-09 3.56162e-08 1.57642e-08 -3.31506e-08 
3.29847e-08 6.03832e-09 -9.298e-09 1.39468e-09 1.06275e-08 -3.16794e-08 1.48456e-08 -3.5172e-09 -6.74629e-08 
8.84073e-08 -6.16297e-08 7.0268e-08 1.22054e-07 -8.71052e-08 -1.42259e-08 1.16125e-07 -6.61983e-08 -3.78254e-08 
2.57628e-08 3.14067e-08 -8.94077e-08 -1.57917e-08 5.33734e-08 1.80842e-08 1.11123e-06 -2.22138e-07 6.58992e-07 
0 0 -1.0273e-07 -1.1483e-08 -1.04276e-08 -5.20435e-08 -3.64946e-08 4.64878e-08 5.97179e-08 
3.54166e-08 -1.12119e-08 4.93991e-08 3.96945e-07 4.61276e-08 1.06866e-06 -6.79306e-08 -6.88043e-08 2.56997e-08 
0 0 -1.0273e-07 0 0 -1.0273e-07 0 0 -1.0273e-07 
0 0 -1.0273e-07 -1.68108e-09 -5.08411e-09 -1.06269e-07 0 0 -1.0273e-07 
0 0 -1.0273e-07 0 0 -1.0273e-07 1.63217e-09 -3.02713e-09 -6.23968e-08 
-4.68463e-09 -2.4878e-08 5.20334e-08 0 0 -1.0273e-07 0 0 -1.0273e-07 
0 0 -1.0273e-07 0 0 -1.0273e-07 0 0 -1.0273e-07 
0 0 -1.0273e-07 0 0 0 0 0 0 
0 0 -1.0273e-07 0 0 -1.0273e-07 0 0 0 
0 0 0 
radius 1 160 double
0.0001 0.0001 0.0001 0.0001 0.0001 0.0001 0.0001 0.0001 0.0001 
0.0001 0.0001 0.0001 0.0001 0.0001 0.0001 0.0001 0.0001 0.0001 
0.0001 0.0001 0.0001 0.0001 0.0001 0.0001 0.0001 0.0001 0.0001 
0.0001 0.0001 0.0001 0.0001 0.0001 0.0001 0.0001 0.0001 0.0001 
0.0001 0.0001 0.0001 0.0001 0.0001 0.0001 0.0001 0.0001 0.0001 
0.0001 0.0001 0.0001 0.0001 0.0001 0.0001 0.0001 0.0001 0.0001 
0.0001 0.0001 0.0001 0.0001 0.0001 0.0001 0.0001 0.0001 0.0001 
0.0001 0.0001 0.0001 0.0001 0.0001 0.0001 0.0001 0.0001 0.0001 
0.0001 0.0001 0.0001 0.0001 0.0001 0.0001 0.0001 0.0001 0.0001 
0.0001 0.0001 0.0001 0.0001 0.0001 0.0001 0.0001 0.0001 0.0001 
0.0001 0.0001 0.0001 0.0001 0.0001 0.0001 0.0001 0.0001 0.0001 
0.0001 0.0001 0.0001 0.0001 0.0001 0.0001 0.0001 0.0001 0.0001 
0.0001 0.0001 0.0001 0.0001 0.0001 0.0001 0.0001 0.0001 0.0001 
0.0001 0.0001 0.0001 0.0001 0.0001 0.0001 0.0001 0.0001 0.0001 
0.0001 0.0001 0.0001 0.0001 0.0001 0.0001 0.0001 0.0001 0.0001 
0.0001 0.0001 0.0001 0.0001 0.0001 0.0001 0.0001 0.0001 0.0001 
0.0001 0.0001 0.0001 0.0001 0.0001 0.0001 0.0001 0.0001 0.0001 
0.0001 0.0001 0.0001 0.0001 0.0001 0.0001 0.0001 
omega 3 160 double
5.02367 0.242104 2.98061 6.29307 0.690992 1.83578 -5.39333 -1.40794 -1.13303 
1.06911 2.60839 7.77406 -2.28829 2.3289 -2.46048 -3.73389 -5.43071 -3.16139 
-0.20686 -5.35104 -6.89325 7.71768 9.15527 1.53421 1.77289 -10.8434 -3.17008 
-6.13673 1.58843 13.1185 2.43219 0.727128 -0.987566 -3.96704 -4.67168 -7.3553 
1.10172 0.353749 1.36378 -2.58706 -5.28588 -3.25977 -3.78664 -0.630147 2.86717 
11.0168 0.320198 5.01039 1.9799 -2.5356 1.49603 -4.39594 -2.70173 -12.7568 
-4.68385 -1.52291 7.09479 5.17644 7.66839 3.20247 -2.69328 -2.18935 1.84052 
-4.50011 2.95994 1.39655 -2.78532 -3.18057 -0.0384305 3.99764 0.180791 -0.936292 
-1.19256 2.20936 1.64796 2.60201 -7.84147 -1.66793 -2.0927 3.22266 1.69741 
12.8366 -4.25362 12.1786 -1.78531 1.2234 -8.49238 -12.9147 16.1463 0.402577 
0.11887 3.23077 -0.652191 -0.54093 -0.150488 16.4285 6.4949 -3.36029 -4.00695 
-0.423972 0.416837 -4.79281 5.20897 3.67077 7.11713 -2.79956 1.11011 1.35572 
-4.50034 -8.1137 -3.3083 1.5355 -0.840847 5.2994 3.66548 -7.34078 -15.0157 
-5.47011 7.5298 27.8497 3.35428 -4.22034 -14.6056 -1.96018 -3.23356 2.97511 
3.14809 -2.6798 -3.78431 -1.52562 0.196988 6.44531 1.4583 5.44559 5.82457 
5.76738 0.0233278 -3.14246 -8.81645 -7.95684 -1.46023 9.72844 6.71211 -7.23149 
-0.975426 5.95418 5.45475 0.936819 -4.33599 -6.15909 5.10083 0.641797 -6.41467 
5.10172 2.1173 1.40995 -5.0123 -3.24715 -1.00331 -5.64322 0.0152252 -13.5257 
-1.31047 4.00071 4.02812 -0.0223406 4.82358 0.645385 -5.25022 -11.3143 11.352 
8.28193 -4.6087 3.22233 0.433198 3.76366 -4.86968 -7.66415 1.62182 1.66464 
-4.44292 8.36045 2.34289 -4.43934 11.5406 -3.10672 0.0990506 17.6756 -8.93231 
-0.143184 -1.76119 -2.47863 3.12204 -6.7644 -1.32806 13.5217 -3.0138 0.314673 
1.7461 -13.9756 1.07496 -0.902485 3.01372 6.16141 9.60057 10.3933 12.779 
-0.19621 -5.09069 -6.45572 4.7757 15.5623 -2.06392 -0.554045 -6.97658 -5.10246 
-1.10653 -1.22134 -6.1093 10.4959 0.0147261 1.21719 -7.86856 3.15011 0.205072 
3.71548 8.72954 -1.54322 -12.1535 3.16431 -4.59006 -22.7105 7.9976 -14.756 
13.3622 -18.881 16.212 -0.776944 -7.28312 -2.99434 -1.96573 3.20829 -2.84031 
-11.0533 1.26748 -0.55081 4.11973 15.3613 -2.37366 -4.41306 10.9622 8.7198 
-1.27354 -4.87329 8.13508 4.01106 -5.94018 1.6986 -8.33547 10.9201 -7.6105 
2.36126 -2.72317 -2.38475 1.32252 -1.54113 -4.30466 2.98433 7.70929 1.55637 
5.4388 -5.67555 -8.89449 1.55352 -0.312897 -19.3479 -10.061 -18.9901 19.3298 
-1.72603 3.23357 0.383753 -11.202 9.25307 12.46 -2.05328 -11.0164 4.23999 
7.70416 -16.1534 13.8362 0.221274 15.295 -14.5339 -4.34662 14.4767 -3.04439 
-5.67204 -24.8283 9.79928 -31.7531 21.4295 -13.6136 9.30929 -4.71681 24.7493 
-34.4539 -19.4166 -36.4066 22.3896 -5.21591 -37.8041 32.6497 49.2069 8.52712 
12.0201 -8.96114 -2.68431 27.4039 32.6022 19.113 -20.637 -19.6727 -7.97708 
-14.9367 -11.2827 11.7341 -24.2112 -27.8799 3.74682 9.65746 -30.2931 8.61667 
-2.87283 0.482068 -3.59028 -32.17 4.76073 -51.37 37.7144 6.22757 -9.49364 
-6.05017 -0.0252212 -5.47659 1.63944 -0.899007 -17.2736 4.26649 6.38384 -30.3731 
15.1391 -60.343 27.8676 -8.44046 -12.4313 16.9983 40.1606 -12.8189 38.7305 
-21.1994 -3.91588 -41.1855 -7.52491 -9.46234 78.7232 -2.96445 19.5662 -2.03868 
8.50111 17.7158 -4.19875 -21.0417 -10.8627 -20.9346 -67.8257 -28.3826 -12.9243 
16.7042 -11.754 4.15308 44.6683 49.5311 31.2033 20.1211 74.0194 45.286 
-14.7633 -35.4447 4.04509 -2.35838 -1.77148 42.3086 34.5981 -233.172 -177.658 
10.0118 -169.68 -56.2419 82.2553 -87.4233 50.5461 -20.6183 46.5854 -34.7668 
-67.0488 -72.4663 -17.2971 -8.47047 29.9831 35.8948 125.283 62.0829 34.3885 
25.4511 -202.964 74.9312 -14.0194 29.1308 -49.0376 208.241 -70.8816 9.02649 
-38.7987 -271.123 58.154 28.8121 -41.6134 -53.6344 -1.5779 83.4764 -7.4418 
151.042 -208.204 -36.9214 22.2043 -112.952 -48.9413 12.752 -575.022 -77.8122 
148.33 176.594 -86.6689 -13.1251 -386.795 -38.4789 0 0 0 
0 0 0 0 0 0 0 0 0 
0 0 0 0 0 0 0 0 0 
0 0 0 0 0 0 0 0 0 
0 0 0 
