# vtk DataFile Version 4.0
Generated by LIGGGHTS
ASCII
DATASET POLYDATA
POINTS 32 float
0.000228761 -0.000491092 9.99794e-05 0.000432793 -0.000468897 9.99794e-05 0.000296496 -0.000298987 0.000107806 
-0.000292246 -0.00028863 0.000104094 -8.29814e-05 -0.000174176 9.99794e-05 -0.000251758 8.51868e-05 0.000100175 
-6.23918e-05 3.98905e-05 0.000206046 0.000157256 -8.6148e-05 9.99794e-05 0.000451117 -8.50801e-05 0.000101273 
0.000301311 5.42359e-05 0.000100041 1.11797e-05 0.000201236 9.99415e-05 0.000497113 0.000199868 9.99794e-05 
-0.000249614 0.000433763 9.99794e-05 8.33691e-05 0.000421889 0.000236389 0.000187628 0.000301623 0.000100001 
-0.000187402 -0.000113072 0.000315995 0.000249698 -2.95655e-05 0.000333062 -0.000346346 -0.00034241 0.000417847 
0.000158498 0.000110998 0.00202814 6.05086e-05 -0.000376811 0.000473912 0.000361074 -4.05396e-06 0.000678974 
0.000353074 0.000323349 0.000802364 -0.000112967 -0.000145979 0.00133146 -0.000173983 0.00012252 0.00133599 
8.70463e-05 0.000175318 0.00142318 0.000156005 -0.000314157 0.00172926 0.000368775 -0.000255124 0.0017525 
0.000213681 -8.08119e-05 0.00185804 -5.96854e-05 0.000306914 0.0018432 -0.000313134 -0.000264631 0.00202443 
-0.000285263 2.37872e-05 0.00198021 -1.26694e-05 4.17417e-05 0.0019039 
VERTICES 32 64
1 0 
1 1 
1 2 
1 3 
1 4 
1 5 
1 6 
1 7 
1 8 
1 9 
1 10 
1 11 
1 12 
1 13 
1 14 
1 15 
1 16 
1 17 
1 18 
1 19 
1 20 
1 21 
1 22 
1 23 
1 24 
1 25 
1 26 
1 27 
1 28 
1 29 
1 30 
1 31 

POINT_DATA 32
FIELD FieldData 7
id 1 32 int
6 4 9 19 1 3 14 10 11 
2 13 12 7 8 5 15 16 17 
31 18 25 24 26 23 22 20 21 
29 28 32 30 27 
type 1 32 int
1 1 1 1 1 1 1 1 1 
1 1 1 1 1 1 1 1 1 
1 1 1 1 1 1 1 1 1 
1 1 1 1 1 
i 3 32 int
0 0 0 0 1 0 -1 0 0 
0 0 0 0 0 0 0 0 0 
0 0 0 0 0 0 -1 0 0 
0 0 0 0 0 0 -1 0 0 
0 0 0 0 -1 0 0 0 0 
0 0 0 0 0 0 0 0 0 
0 0 0 0 0 0 0 0 0 
0 0 0 0 0 0 0 0 0 
0 0 0 0 0 0 0 0 0 
0 0 0 0 0 0 0 0 0 
0 0 0 0 0 0 
v 3 32 double
0.0084139 -0.00765052 -1.44395e-08 0.00974179 0.00475668 -4.05681e-12 -0.0103644 0.00320542 -0.0100368 
-0.0117099 -0.0297577 0.0159362 -0.00108024 -0.00718784 1.14006e-09 0.00425254 -0.00242219 -0.000401334 
0.0172153 -0.00399756 -0.00836548 -0.000488179 0.00381771 2.26254e-07 -0.010941 -0.00378478 0.00157022 
-0.00116525 0.0051587 0.00302144 -0.00100394 0.0130182 0.0027129 -0.00274639 -0.0198232 8.54386e-07 
0.00170672 0.00468895 -2.0711e-06 -0.00951446 -0.00613891 -0.00704835 0.0119825 -0.00242413 0.0015102 
-0.000459585 -0.00845219 -0.0485915 -0.0212855 0.0295251 0.0313441 0 0 -0.177318 
-0 -0 -0.02 0 0 -0.174189 0 0 -0.16223 
0 0 -0.154588 0 0 -0.116261 0 0 -0.115878 
0 0 -0.108246 0 0 -0.0755786 0 0 -0.0724982 
0 0 -0.0564392 0 0 -0.0589604 -0 -0 -0.02 
0 0 -0.0280785 0 0 -0.0478064 
f 3 32 double
-2.65677e-15 2.41573e-15 3.94588e-12 -8.00656e-19 -3.91816e-19 -1.68804e-14 0 0 -1.0273e-07 
0 0 -1.0273e-07 -2.66686e-17 -1.77452e-16 3.73313e-13 0 0 -1.0273e-07 
0 0 -1.0273e-07 -2.38499e-15 1.86874e-14 9.98778e-11 0 0 -1.0273e-07 
0 0 -1.0273e-07 -5.24688e-09 6.37865e-10 -2.58121e-07 -5.13947e-14 -3.70962e-13 -3.52004e-10 
-7.6944e-14 -2.11392e-13 -9.54567e-12 0 0 -1.0273e-07 0 0 -1.0273e-07 
0 0 -1.0273e-07 0 0 -1.0273e-07 0 0 -1.0273e-07 
0 0 0 0 0 -1.0273e-07 0 0 -1.0273e-07 
0 0 -1.0273e-07 0 0 -1.0273e-07 0 0 -1.0273e-07 
0 0 -1.0273e-07 0 0 -1.0273e-07 0 0 -1.0273e-07 
0 0 -1.0273e-07 0 0 -1.0273e-07 0 0 0 
0 0 -1.0273e-07 0 0 -1.0273e-07 
radius 1 32 double
0.0001 0.0001 0.0001 0.0001 0.0001 0.0001 0.0001 0.0001 0.0001 
0.0001 0.0001 0.0001 0.0001 0.0001 0.0001 0.0001 0.0001 0.0001 
0.0001 0.0001 0.0001 0.0001 0.0001 0.0001 0.0001 0.0001 0.0001 
0.0001 0.0001 0.0001 0.0001 0.0001 
omega 3 32 double
76.5131 84.1477 140.349 -47.5717 97.4279 141.813 57.9509 -74.364 81.0981 
296.094 -116.135 353.477 71.8859 -10.8035 -58.8015 24.2257 42.5237 138.541 
252.116 164.486 290.232 -38.181 -4.88229 93.1138 38.3011 -109.749 -17.106 
-50.9972 -11.2493 -15.1853 -130.241 -10.2323 -119.214 198.252 -27.4667 -130.736 
-46.8943 17.0689 -52.7234 42.3222 -368.613 112.389 24.2677 119.813 -69.7031 
-146.047 -142.679 449.25 -386.784 -102.474 -130.612 0 0 0 
0 0 0 0 0 0 0 0 0 
0 0 0 0 0 0 0 0 0 
0 0 0 0 0 0 0 0 0 
0 0 0 0 0 0 0 0 0 
0 0 0 0 0 0 
