# vtk DataFile Version 4.0
Generated by LIGGGHTS
ASCII
DATASET POLYDATA
POINTS 167 float
-0.000468174 -0.000416148 9.99785e-05 -0.000342471 -0.000459335 0.000262815 -0.000274451 -0.000364981 9.99731e-05 
-0.000140278 -0.000321086 0.000241619 -9.53649e-05 -0.000454948 9.99567e-05 4.85637e-05 -0.000416943 0.000233532 
0.000197579 -0.000390172 9.9964e-05 0.000384231 -0.0003869 0.000248633 -0.000443464 -0.000286808 0.000265436 
-0.000380767 -0.000193581 9.99809e-05 -0.000180875 -0.0001859 9.99323e-05 -0.000281926 -0.000157883 0.000270157 
-3.16008e-06 -0.000277505 9.99169e-05 6.52779e-05 -0.000193621 0.000267971 0.00017732 -0.000191238 9.99503e-05 
0.000299254 -0.000199768 0.0002582 0.000474423 -0.000110218 0.000220253 0.000407978 -0.000255427 9.99063e-05 
-0.000477298 4.19896e-05 9.99544e-05 -0.00038013 1.62191e-05 0.000273558 -0.000284019 -1.45605e-05 9.99769e-05 
-0.000104705 -5.639e-05 0.000231889 -0.000102442 9.38665e-05 9.99729e-05 4.49066e-05 -4.13701e-05 9.99778e-05 
3.86659e-05 9.94209e-05 0.000241855 0.000185654 -3.6027e-05 0.000242362 0.00032443 -5.57443e-05 9.9871e-05 
0.000363754 5.4347e-05 0.0002621 -0.000332329 0.000179715 9.99393e-05 -0.000484995 0.000183938 0.000244597 
-0.000218709 0.000133293 0.000257818 -0.000170008 0.000297462 9.99222e-05 -6.9079e-05 0.000265475 0.000269495 
3.38676e-05 0.000240144 9.99227e-05 0.000181925 0.000104659 9.99781e-05 0.000129603 0.000288167 0.000268859 
0.000344825 0.000287334 0.000262801 0.000370391 0.000171558 9.99877e-05 -0.00032475 0.000302856 0.000257282 
-0.000324041 0.000426212 9.99252e-05 -0.00049502 0.000321513 9.99084e-05 -0.000174196 0.000433957 0.00024631 
7.25935e-05 0.000436309 9.99366e-05 0.000232679 0.000316559 9.99106e-05 0.000219124 0.000463674 0.000234691 
0.000367027 0.00047057 9.99801e-05 0.000484512 0.000440466 0.000259271 -0.000484084 -0.000425148 0.00040398 
-0.00027596 -0.00031885 0.000388563 -0.000164623 -0.000480506 0.000426799 -1.81255e-05 -0.000328258 0.00039983 
0.000110038 -0.000458193 0.00048165 0.000208099 -0.000358375 0.000338834 -0.000435502 -0.000136243 0.00039682 
-9.52359e-05 -0.000153624 0.000459242 0.000151188 -0.000201044 0.000448346 0.000407059 -0.000257915 0.000416187 
-0.000230415 -1.65581e-05 0.000401978 4.98926e-05 -3.53061e-05 0.000389153 0.000294457 -6.66681e-05 0.000407322 
-0.000352893 0.000167822 0.000402023 -0.000201981 0.00029835 0.000415142 -8.05237e-05 0.000115812 0.000401653 
4.75183e-05 0.000261861 0.000449279 0.000203809 0.000125636 0.0003586 0.00045176 0.000130012 0.000426475 
-0.000363694 0.000415846 0.000417616 4.80569e-07 0.000432044 0.000355409 0.000241974 0.00030937 0.000432928 
0.000335124 0.000487049 0.000395867 0.000455856 0.000329937 0.000423508 -0.00033498 -0.000431146 0.000543151 
-0.00015702 -0.000322353 0.000549229 -5.35126e-05 -0.000487771 0.000592904 4.66247e-05 -0.00030029 0.000586957 
0.000284013 -0.000370395 0.000526532 0.00016571 -0.000438239 0.000672737 0.000494697 -0.000332642 0.000580018 
0.0003661 -0.000425757 0.000702001 -0.000335416 -0.000284231 0.000678848 -0.000414503 -0.000100552 0.000681827 
-0.000284058 -0.000170143 0.000522845 -2.62542e-05 -0.00012313 0.000644428 0.000265243 -0.000190677 0.000612252 
0.000433763 -0.000106419 0.000545198 -0.000411889 1.85091e-05 0.000521172 -0.000147099 2.23997e-05 0.000579547 
0.000139331 -4.12118e-05 0.000567919 0.000289459 8.70308e-05 0.000535099 0.00045026 7.68309e-05 0.000653733 
-0.000405412 0.000280508 0.000558993 -0.000304642 0.000117435 0.00065791 -0.000147701 0.000222522 0.000591985 
2.59783e-05 0.000121966 0.000590511 0.000192785 0.00021442 0.00065509 0.000381697 0.000254692 0.000593208 
-0.000223415 0.00040729 0.000581505 9.79028e-05 0.000381905 0.000601068 0.000290571 0.000432387 0.000582958 
0.000488082 0.000464268 0.000568295 -0.000464657 -0.000379544 0.000798042 -0.000262169 -0.000386221 0.000834687 
-9.15149e-05 -0.000352671 0.000735696 0.000234291 -0.000462383 0.000886158 -0.000331395 -0.000200364 0.000860362 
-0.000216638 -0.000125175 0.000705636 -0.00013629 -0.000244262 0.000897878 5.36358e-05 -0.000228384 0.000794603 
0.000243429 -0.000290595 0.000784165 0.00020046 -0.000110995 0.000862815 0.000427325 -0.000214724 0.000726881 
-0.000316319 3.75449e-06 0.000822038 -7.19458e-05 -6.71746e-05 0.000830878 8.92879e-05 2.17774e-05 0.000751603 
0.000280742 -1.4989e-05 0.000706844 0.000288123 6.6465e-05 0.000892271 0.000445538 -3.73081e-05 0.00081784 
-0.000465471 0.000161733 0.000813972 -0.000267374 0.000295154 0.000741688 -0.000110689 0.000114058 0.000755808 
-2.38877e-05 0.000292897 0.000732355 0.000150726 0.000215245 0.00085058 0.000346699 0.000226633 0.000787996 
-0.000350533 0.000476128 0.000719664 -0.000496355 0.000339503 0.000727078 -0.000421012 0.000429865 0.000900998 
-0.000137823 0.000312172 0.000895889 -0.000155636 0.000459766 0.000762149 4.06901e-05 0.000470391 0.000799229 
0.000217039 0.000381848 0.000761925 0.000382697 0.000404256 0.000872619 -0.000461165 -0.000399354 0.000997006 
-0.000277522 -0.000480765 0.00101026 -8.93007e-05 -0.000438551 0.000921427 9.19593e-05 -0.000340367 0.000955798 
0.00034992 -0.000440712 0.00104793 -0.000477289 -0.000129732 0.000977485 -0.000271424 -0.000272834 0.00104579 
3.78856e-05 -0.000148068 0.000977087 0.000195505 -0.000219778 0.00107733 0.000397708 -0.000286417 0.000911395 
-0.000226287 -7.96855e-05 0.00098031 4.64405e-06 9.65715e-05 0.000918218 0.000330563 -8.71783e-05 0.00101292 
0.00046727 7.45755e-05 0.000982128 -0.000329312 0.000254148 0.000927584 -0.000382128 0.000149861 0.00109001 
-0.000189144 0.000116134 0.000963612 0.000161958 0.000124725 0.00103842 0.000299695 0.000257427 0.000980045 
0.000490374 0.000299029 0.00102382 4.985e-05 0.00034997 0.000958607 -0.000376401 -0.000392414 0.0011812 
7.1571e-05 -2.72072e-05 0.00113281 -0.000310044 0.000165719 0.00127827 7.03587e-05 -2.9999e-05 0.00133296 
4.72306e-05 0.00030418 0.00132645 -0.000195042 -9.75051e-05 0.00151295 0.000353921 0.00020775 0.00153182 
0.000176017 -0.00034426 0.00174247 0.000221441 -7.19466e-05 0.00183942 0.000218194 0.000378349 0.00180031 
0.000363731 -0.000377566 0.00199333 -0.000144527 -0.000260153 0.00194831 -0.000276053 9.86259e-05 0.0020617 
0.000298351 0.000232615 0.00207833 -0.000212651 0.000372896 0.00198518 
VERTICES 167 334
1 0 
1 1 
1 2 
1 3 
1 4 
1 5 
1 6 
1 7 
1 8 
1 9 
1 10 
1 11 
1 12 
1 13 
1 14 
1 15 
1 16 
1 17 
1 18 
1 19 
1 20 
1 21 
1 22 
1 23 
1 24 
1 25 
1 26 
1 27 
1 28 
1 29 
1 30 
1 31 
1 32 
1 33 
1 34 
1 35 
1 36 
1 37 
1 38 
1 39 
1 40 
1 41 
1 42 
1 43 
1 44 
1 45 
1 46 
1 47 
1 48 
1 49 
1 50 
1 51 
1 52 
1 53 
1 54 
1 55 
1 56 
1 57 
1 58 
1 59 
1 60 
1 61 
1 62 
1 63 
1 64 
1 65 
1 66 
1 67 
1 68 
1 69 
1 70 
1 71 
1 72 
1 73 
1 74 
1 75 
1 76 
1 77 
1 78 
1 79 
1 80 
1 81 
1 82 
1 83 
1 84 
1 85 
1 86 
1 87 
1 88 
1 89 
1 90 
1 91 
1 92 
1 93 
1 94 
1 95 
1 96 
1 97 
1 98 
1 99 
1 100 
1 101 
1 102 
1 103 
1 104 
1 105 
1 106 
1 107 
1 108 
1 109 
1 110 
1 111 
1 112 
1 113 
1 114 
1 115 
1 116 
1 117 
1 118 
1 119 
1 120 
1 121 
1 122 
1 123 
1 124 
1 125 
1 126 
1 127 
1 128 
1 129 
1 130 
1 131 
1 132 
1 133 
1 134 
1 135 
1 136 
1 137 
1 138 
1 139 
1 140 
1 141 
1 142 
1 143 
1 144 
1 145 
1 146 
1 147 
1 148 
1 149 
1 150 
1 151 
1 152 
1 153 
1 154 
1 155 
1 156 
1 157 
1 158 
1 159 
1 160 
1 161 
1 162 
1 163 
1 164 
1 165 
1 166 

POINT_DATA 167
FIELD FieldData 7
id 1 167 int
4 46 28 51 7 18 9 20 44 
19 27 47 1 29 11 34 40 15 
3 42 14 30 24 10 23 38 26 
49 12 32 35 25 37 13 16 31 
45 2 33 17 21 36 8 5 22 
6 39 63 62 58 54 77 41 52 
67 73 56 53 55 61 60 75 64 
68 43 57 71 48 69 50 59 90 
65 94 89 72 96 86 106 97 88 
76 99 81 87 66 79 85 74 101 
84 102 80 92 93 78 91 83 82 
70 131 126 105 124 118 104 125 112 
110 114 98 109 116 119 100 130 111 
120 115 123 95 122 107 113 103 138 
129 108 132 117 133 146 153 144 139 
142 121 151 147 150 134 135 127 137 
140 128 149 136 143 141 145 148 159 
152 157 160 155 158 154 156 162 167 
165 161 166 163 164 
type 1 167 int
1 1 1 1 1 1 1 1 1 
1 1 1 1 1 1 1 1 1 
1 1 1 1 1 1 1 1 1 
1 1 1 1 1 1 1 1 1 
1 1 1 1 1 1 1 1 1 
1 1 1 1 1 1 1 1 1 
1 1 1 1 1 1 1 1 1 
1 1 1 1 1 1 1 1 1 
1 1 1 1 1 1 1 1 1 
1 1 1 1 1 1 1 1 1 
1 1 1 1 1 1 1 1 1 
1 1 1 1 1 1 1 1 1 
1 1 1 1 1 1 1 1 1 
1 1 1 1 1 1 1 1 1 
1 1 1 1 1 1 1 1 1 
1 1 1 1 1 1 1 1 1 
1 1 1 1 1 1 1 1 1 
1 1 1 1 1 1 1 1 1 
1 1 1 1 1 
i 3 167 int
1 1 0 0 1 0 0 1 0 
0 0 0 0 1 0 0 0 0 
-1 0 0 0 0 0 0 1 0 
0 0 0 0 0 0 0 0 0 
0 0 0 0 0 0 -1 0 0 
0 0 0 0 0 0 -1 0 0 
0 0 0 0 0 0 0 0 0 
0 0 0 1 0 0 0 0 0 
0 0 0 0 0 0 -1 0 0 
0 0 0 0 0 0 0 0 0 
0 0 0 1 0 0 0 0 0 
0 0 0 0 0 0 0 0 0 
0 0 0 0 0 0 0 0 0 
0 -1 0 1 -1 0 0 -1 0 
0 -1 0 0 0 0 0 0 0 
0 -1 0 0 0 0 0 1 0 
1 0 0 0 0 0 0 0 0 
0 0 0 0 0 0 0 0 0 
0 0 0 0 0 0 0 0 0 
0 0 0 0 0 0 0 0 0 
0 0 0 0 0 0 0 0 0 
0 0 0 0 0 0 0 0 0 
0 0 0 0 0 0 0 0 0 
0 -1 0 0 0 0 0 0 0 
0 0 0 0 0 0 0 0 0 
0 0 0 0 0 0 0 0 0 
-1 0 0 0 0 0 0 0 0 
0 0 0 0 0 0 0 0 0 
0 0 0 0 0 0 0 0 0 
0 0 0 0 0 0 0 0 0 
0 0 0 0 0 0 0 0 0 
0 0 0 0 0 0 0 0 0 
0 0 0 0 0 0 0 -1 0 
-1 -1 0 0 0 0 0 0 0 
0 0 0 0 0 0 0 0 0 
0 0 0 0 0 0 0 0 0 
0 0 0 0 0 0 -1 0 0 
0 0 0 0 0 0 0 0 0 
0 0 0 0 0 0 0 0 0 
0 0 0 0 0 0 0 0 0 
0 0 0 0 0 0 0 0 0 
0 -1 0 1 0 0 0 0 0 
0 0 0 0 0 0 0 -1 0 
0 0 0 0 0 0 0 0 0 
0 1 0 0 1 0 0 0 0 
0 0 0 1 0 0 0 0 0 
0 0 0 0 0 0 0 0 0 
0 0 0 0 0 0 0 0 0 
-1 0 0 0 0 0 0 0 0 
0 0 0 0 0 0 0 0 0 
0 -1 0 0 0 0 0 0 0 
0 0 0 0 0 0 0 0 0 
0 0 0 0 0 0 0 0 0 
0 0 0 0 0 0 0 0 0 
0 0 0 0 0 0 0 0 0 
0 0 0 0 0 0 
v 3 167 double
-4.17545e-05 0.000289338 -1.00867e-05 -2.49068e-05 -0.000151573 -0.00011258 -0.000329793 0.000818782 -6.21137e-05 
-0.000396561 0.000169747 7.27683e-05 -7.31872e-05 -5.01757e-05 -0.000105646 -0.000673974 -2.21701e-05 -1.40634e-05 
0.000953723 -1.96292e-05 -8.60908e-05 -8.34844e-06 -3.24687e-05 0.000341119 0.000148613 9.99082e-05 6.33398e-05 
9.21306e-05 0.00033189 3.21151e-05 -0.000267208 0.000309942 1.60993e-05 -0.000232934 0.000167265 0.000382486 
-0.000213374 4.4571e-05 8.12712e-05 -0.00023469 -0.000100528 0.000255589 0.000218583 7.22554e-05 -6.90984e-06 
-0.000158414 -0.000130638 0.000170043 0.000497192 0.000332532 7.89878e-06 0.000259793 9.69845e-05 0.00024525 
-0.000130575 0.000182097 -0.000146046 0.00026185 0.00051599 0.000797464 -0.000559754 0.000527034 0.000138852 
-0.00014561 6.46764e-05 0.000349507 -0.000162302 -6.15782e-05 -1.30482e-05 8.05547e-06 -0.000158424 -9.01341e-05 
-0.0003484 -0.000362228 -1.09477e-05 -0.000101705 -5.6568e-05 0.000277314 0.000104969 6.46968e-05 5.21914e-05 
0.000240286 -0.000253039 -0.000136537 -7.721e-05 0.000132714 9.53776e-06 6.11486e-05 0.000173774 0.000196073 
-0.000107996 -1.97488e-05 2.02176e-05 -8.52599e-05 5.4782e-05 8.2196e-05 3.93608e-05 -0.000112288 0.000136562 
-7.67058e-06 -0.000180815 2.57329e-05 -0.000255867 0.000211001 -2.76472e-05 -2.23399e-05 5.89461e-05 7.74425e-05 
-5.58159e-05 0.000300309 -0.000453516 -0.000168763 -5.66111e-05 -0.000135569 0.000175114 0.000257232 2.77242e-05 
0.000596967 0.000212167 -9.39361e-05 -0.000402852 -0.000145802 -9.8777e-06 0.000395906 0.000181722 0.000218805 
-0.000156767 -8.91617e-05 5.34002e-05 0.00012018 5.75786e-05 -7.65162e-05 0.000566098 -4.99747e-05 -0.000135265 
-0.000195753 8.51592e-05 1.22142e-05 2.36816e-05 -0.000214578 0.000305056 -0.000148079 0.00018132 2.45838e-05 
-0.000797704 -9.59925e-05 0.000395367 -0.000325203 0.000429304 -2.21681e-05 -0.000408908 -9.86065e-05 0.000272453 
-0.000447632 0.000208487 0.000460851 -0.000555748 -0.000222791 -0.000177796 -0.000232387 0.000386558 0.000359341 
-0.000346856 -0.000157303 0.000740189 -7.55736e-05 -0.000258642 0.000356986 -0.000212398 0.000189151 0.000260714 
0.000274743 -6.93693e-05 0.000520158 -0.000202509 -0.00017243 0.000463683 0.000569982 -0.000292657 0.000147192 
1.53285e-05 -4.43393e-05 -0.000195563 -0.0001772 3.03295e-06 0.000329229 0.000368972 -6.71142e-05 -6.3447e-05 
0.000221728 0.000182912 0.000404421 0.00086127 0.000218511 0.000190717 0.00107183 0.000226457 0.000558646 
-0.000329386 -1.6224e-06 -9.81469e-05 -0.000275859 9.07388e-05 0.000223614 -0.000386418 -0.00079381 0.000480204 
-3.69915e-05 -0.000494459 7.8926e-05 -0.000311277 0.000170985 -0.00104514 0.000430042 -0.000356008 0.000720767 
-0.000448867 -3.52883e-05 0.000778556 -0.000786351 -0.000246365 0.000602948 -0.000276506 -0.000664163 0.000444984 
-3.90409e-05 -0.000186783 0.000459872 -0.000156509 -0.000429739 0.000458993 -1.05655e-05 0.000967039 -0.000648365 
0.000463616 0.000300489 -0.000426104 0.000320529 -0.000402441 0.000946105 0.000204188 -1.65301e-05 0.000275757 
-0.000550248 -0.00014347 0.000860334 -9.41944e-05 -1.52847e-05 0.000690514 0.000255006 -0.000110026 0.000345044 
0.000176864 0.000470191 0.00087497 0.000795995 0.000157316 0.000215459 0.000646413 9.60354e-05 0.000154322 
1.51348e-05 -0.000329978 0.000601384 0.000958806 -0.000205557 0.000166166 0.000228813 0.000500736 -0.000406894 
0.0001785 -0.0001174 0.000186893 0.000674412 -0.000774525 0.00116755 -0.0013232 -4.52714e-05 0.000732326 
0.000473586 0.00025941 0.000768337 0.000590373 -6.94526e-05 7.09072e-05 0.000716594 0.000567838 -0.000649138 
-0.000762349 0.0007166 -0.000528722 -0.000153402 5.09804e-05 0.000754381 -0.000171404 0.000279097 0.000172651 
0.000964585 0.000988472 6.7942e-05 3.35765e-05 0.000246537 0.00069215 -9.89924e-05 0.00105083 0.000820765 
0.000495517 -4.8311e-05 0.00108269 -0.00152644 8.68165e-05 0.00101332 0.00062764 0.00129844 0.00043145 
0.000393952 -0.000923482 0.000980813 0.00119667 -0.000409603 0.00171489 0.00108532 -0.000134739 0.000558569 
0.000959026 -0.000708839 -0.000175391 0.000411797 0.000600037 0.00137775 -0.000129928 -0.000206868 0.000949077 
-0.00261481 -0.0022668 7.83015e-05 7.74759e-05 -2.54159e-05 0.00108026 -0.000337101 -0.00300639 -0.000851536 
0.000412368 -0.000824873 0.000107066 0.000495543 0.00281442 -0.00151754 0.00115598 0.000482432 -0.000614312 
-0.00131541 0.00235708 -0.000235227 -0.00132132 0.000158024 0.000255191 -0.00215144 -0.000250794 0.00129556 
0.00028071 -0.00295343 -0.000167836 0.000287855 -0.000827144 9.83457e-05 0.00141672 0.00451111 0.000354861 
-6.66278e-05 0.00119531 0.000352334 0.000589587 0.000108731 0.000153279 0.000949271 0.00307355 0.00104338 
0.000998582 -0.000712367 0.000116033 0.000583689 -0.000575792 -2.57607e-05 -0.0015373 -0.00122089 -0.00106819 
0.000643593 0.000222984 0.000353287 0.00085832 0.00258142 -0.000353651 0.00269424 0.00346161 0.00106214 
0.00120721 -0.000701135 0.000519808 0.00173127 0.000974416 -0.00161181 -0.00269794 -0.00101462 0.000836744 
0.0033132 -0.00510224 -0.00121153 0.00175654 0.00271084 0.000520157 -0.0303713 -0.00653339 -0.0263885 
0.000690994 0.00013637 0.000682826 0.00381623 -0.00298579 -0.00612011 0.000736457 0.000479083 -0.000597612 
0.00434088 -0.000230192 -0.00129973 -0.00124811 0.00150597 0.00124833 0.00280303 0.00325755 -0.000136331 
0.000418825 0.000455421 -0.000593054 -0.00143419 0.00193187 0.00100636 0.00631447 -0.00891764 -0.00221607 
-0.00162901 0.00127108 0.000460864 -0.000916797 0.00447159 0.000395794 0.000220003 0.00327862 0.000505194 
0.00132109 -0.00244747 -0.00195665 0.00137583 0.000177009 -4.79261e-05 -0.0466462 -0.033546 -0.0460314 
0.00172726 0.00305136 -0.00175996 0.0275853 -0.000569913 -0.0118176 0.002488 -0.00091424 -0.00401739 
0 0 -0.116682 0 0 -0.0997798 0 0 -0.0979061 
0 0 -0.0738422 0 0 -0.0595883 0 0 -0.0657097 
0 0 -0.0230362 0 0 -0.037604 -0 -0 -0.02 
-0 -0 -0.02 0 0 -0.0262833 
f 3 167 double
2.43026e-08 8.38423e-09 2.8755e-09 2.84356e-08 -7.38498e-09 1.66024e-08 9.07772e-10 2.08747e-09 -6.07763e-09 
2.78947e-08 7.63785e-09 -3.4913e-08 3.9587e-08 -1.39747e-08 -1.33483e-09 -5.19152e-08 2.22428e-08 -1.73438e-08 
-3.32057e-08 6.43904e-09 -3.38679e-08 2.63887e-08 1.032e-08 -1.71666e-08 1.99819e-08 2.14434e-09 -3.76573e-08 
1.99756e-09 1.05747e-09 -1.89171e-08 -1.61124e-08 -3.88884e-08 -2.03235e-08 -1.39173e-08 1.8585e-08 -5.04754e-08 
-1.69668e-08 -9.14541e-09 -2.38949e-08 -2.16489e-08 -3.23114e-08 -1.63819e-08 3.62674e-09 8.02262e-10 -2.39078e-08 
3.16781e-08 2.28272e-08 -4.90375e-08 1.21476e-08 8.28587e-09 -5.34321e-10 -1.06015e-08 1.64377e-08 -1.97029e-08 
-1.49063e-08 4.07273e-08 2.39201e-08 6.3453e-08 1.90145e-08 -5.02814e-08 5.62692e-10 -2.52188e-09 -1.02515e-08 
3.78537e-09 -5.88599e-08 -3.94709e-09 -1.35426e-08 -4.85885e-08 -2.32937e-08 2.11958e-08 -5.4463e-08 4.08183e-09 
-5.23692e-08 -4.14724e-08 -3.40619e-09 -4.44118e-08 -9.37543e-09 4.67728e-09 -8.81941e-09 2.4324e-08 1.84996e-08 
-4.91299e-08 -1.8457e-08 4.50541e-08 -1.48565e-08 8.76968e-10 -3.48931e-09 3.29767e-08 -2.80534e-08 -8.90144e-09 
-1.0926e-08 4.57554e-09 -3.99655e-08 1.4326e-08 3.11723e-08 7.23669e-09 -6.76987e-09 1.86792e-08 2.67578e-08 
-7.87543e-09 -1.54073e-08 1.10596e-08 -9.25747e-09 -1.12647e-08 -2.63005e-10 -7.81389e-08 -2.52623e-08 -3.70394e-08 
5.97154e-08 -4.88071e-08 -1.71012e-07 -2.73272e-08 -1.18108e-09 -4.36707e-08 8.42905e-09 2.32118e-09 2.70395e-08 
-3.03299e-09 -3.11359e-08 1.81954e-08 3.44879e-08 -9.10482e-09 7.60784e-09 4.77203e-08 1.33671e-08 -6.33741e-09 
-5.67986e-08 -1.65259e-08 1.75522e-09 -6.89291e-08 -8.30162e-08 -3.67406e-08 -4.66982e-08 -3.75174e-08 -9.4887e-08 
-3.22674e-08 -1.36242e-08 -2.1527e-09 4.3603e-08 1.78686e-08 -3.33072e-09 9.16108e-09 3.27742e-08 3.35153e-08 
-3.4588e-09 4.90425e-08 -3.26255e-08 2.86188e-08 1.12307e-07 -1.4015e-07 -2.12913e-08 6.16654e-08 -1.26165e-08 
-3.41573e-08 5.98391e-08 -1.18459e-08 3.03359e-09 -1.71923e-08 -1.51325e-08 1.17828e-07 -6.10908e-08 -3.3234e-08 
7.5056e-10 2.29969e-08 6.18963e-08 5.10527e-08 -1.23776e-08 7.59836e-10 1.10114e-10 6.82996e-08 -4.74909e-09 
7.05372e-08 -9.5776e-09 -5.48822e-08 -4.33908e-08 -3.63983e-08 7.13177e-09 1.68436e-08 5.13478e-08 -5.68789e-08 
5.47295e-08 -1.39001e-08 -6.00075e-09 -2.9452e-08 -8.20282e-09 3.97973e-08 2.9738e-08 -6.92605e-09 -6.56188e-08 
-5.61206e-08 4.01558e-08 -1.07534e-08 -7.54229e-08 4.29839e-08 7.0693e-08 7.48866e-09 3.98457e-08 -6.67446e-09 
7.10363e-08 3.35984e-08 2.55937e-08 -5.9691e-08 4.67434e-08 1.79299e-08 2.68141e-08 7.7628e-09 -8.73509e-08 
5.21256e-08 1.30506e-08 2.29458e-08 1.56708e-07 2.2954e-08 -1.58649e-07 -3.7018e-08 6.94538e-08 -1.02871e-07 
-3.35204e-09 4.91955e-08 -1.91086e-09 -8.56796e-08 3.06784e-08 -1.01769e-08 1.68596e-08 1.71206e-11 -4.87347e-08 
-5.56904e-08 2.66921e-08 -4.24434e-08 -8.97598e-08 -5.47348e-08 -4.25364e-08 9.18604e-09 6.44557e-09 -6.54191e-08 
1.53811e-09 3.79589e-09 -9.47481e-08 -4.80072e-09 -3.10741e-08 -1.01319e-07 -1.12529e-08 -1.09311e-08 -5.37124e-08 
4.94877e-08 -3.83605e-08 -2.26055e-08 -4.68319e-08 3.48013e-08 2.7101e-08 5.38996e-08 1.52482e-08 -4.66657e-09 
3.06043e-08 2.37464e-08 -1.05292e-07 4.76714e-08 -9.29393e-09 -2.33267e-08 -4.22248e-08 -3.53977e-08 -1.24087e-08 
3.36202e-08 6.01718e-09 -7.32066e-08 1.78819e-09 -1.93496e-08 2.66996e-08 -8.20998e-08 -4.86913e-09 -1.33822e-07 
0 0 -1.0273e-07 -2.28474e-08 6.21343e-08 -3.7261e-08 -4.24451e-08 -1.37906e-07 -1.04737e-07 
-7.94384e-09 -4.43026e-08 -3.96119e-08 4.55857e-08 -2.07994e-08 7.68324e-08 -1.50105e-08 -6.56628e-08 -5.68272e-08 
-1.06893e-08 -1.27083e-07 -1.07431e-07 -3.65294e-08 2.36578e-08 9.26291e-09 -1.81414e-08 1.57304e-08 5.27945e-08 
0 0 -1.0273e-07 -3.32765e-08 2.68956e-08 -1.12505e-07 5.06855e-08 8.59766e-09 -1.43548e-07 
3.98609e-08 3.91428e-08 1.66494e-08 -1.02594e-08 1.21262e-08 -9.62911e-08 8.68859e-08 -2.56954e-08 -1.11988e-07 
-9.07425e-08 -9.58071e-08 8.37945e-08 -2.76252e-09 -8.05985e-09 -2.43901e-08 1.1605e-08 2.47061e-08 -5.12566e-08 
-4.1816e-09 1.09499e-08 -1.06007e-07 -2.30488e-09 9.4981e-09 -7.51264e-08 7.52272e-08 -2.03591e-08 -2.10519e-08 
4.28753e-11 5.36681e-10 -1.03024e-07 4.55432e-08 -3.31051e-08 1.09826e-08 1.42814e-08 -5.48144e-09 -9.56191e-08 
-9.01162e-09 -8.90086e-08 -2.57507e-08 -1.52375e-07 -4.08631e-08 1.38741e-07 -2.03885e-08 5.57123e-09 2.65053e-08 
2.18023e-08 1.68304e-08 -7.4596e-08 2.27088e-08 4.69184e-08 -6.45336e-08 7.92108e-08 -6.38868e-08 -5.30584e-08 
5.26801e-08 7.11868e-08 1.69418e-07 -2.03337e-08 -3.18914e-08 4.28746e-08 -1.14719e-07 1.24104e-07 1.64926e-07 
5.64374e-08 -6.78542e-08 -6.16233e-08 2.93274e-09 5.06584e-09 -8.59921e-08 -3.59954e-08 1.36314e-08 -3.1503e-08 
3.60846e-08 -4.65736e-08 3.38077e-09 1.61418e-08 6.16375e-08 -7.19609e-08 -1.26971e-07 -3.11603e-08 -2.16862e-08 
-5.19405e-08 -2.35499e-08 -2.41658e-08 2.53314e-08 3.71605e-08 -1.18654e-07 -4.68931e-08 1.82644e-08 -3.19993e-08 
0 0 -1.0273e-07 0 0 -1.0273e-07 2.02958e-08 -5.82201e-10 -4.18741e-08 
-9.26139e-10 -2.92978e-10 -1.01888e-07 2.56988e-07 -1.74243e-08 4.05858e-08 0 0 -1.0273e-07 
4.47306e-08 -5.19126e-08 1.80907e-08 -1.02606e-07 -1.42084e-07 6.7038e-08 0 0 -1.0273e-07 
2.55298e-09 6.04104e-09 -1.00884e-07 -2.9581e-09 -9.38455e-09 -1.9261e-08 -1.77081e-07 -3.7498e-07 1.75266e-08 
7.59612e-08 3.89299e-09 5.71246e-08 1.99582e-08 -2.25454e-08 -6.73919e-08 6.13794e-08 7.52325e-08 -1.02761e-08 
2.50836e-08 -1.25165e-08 -8.4224e-08 -9.9336e-09 -5.77331e-08 -3.38514e-08 4.48961e-08 2.20747e-09 -8.28246e-08 
0 0 -1.0273e-07 -2.4707e-08 -6.94179e-08 1.49007e-08 0 0 -1.0273e-07 
3.48603e-08 1.95965e-08 -2.2063e-08 0 0 -1.0273e-07 0 0 -1.0273e-07 
0 0 -1.0273e-07 0 0 -1.0273e-07 0 0 -1.0273e-07 
0 0 -1.0273e-07 0 0 -1.0273e-07 0 0 -1.0273e-07 
0 0 -1.0273e-07 0 0 -1.0273e-07 0 0 0 
0 0 0 0 0 -1.0273e-07 
radius 1 167 double
0.0001 0.0001 0.0001 0.0001 0.0001 0.0001 0.0001 0.0001 0.0001 
0.0001 0.0001 0.0001 0.0001 0.0001 0.0001 0.0001 0.0001 0.0001 
0.0001 0.0001 0.0001 0.0001 0.0001 0.0001 0.0001 0.0001 0.0001 
0.0001 0.0001 0.0001 0.0001 0.0001 0.0001 0.0001 0.0001 0.0001 
0.0001 0.0001 0.0001 0.0001 0.0001 0.0001 0.0001 0.0001 0.0001 
0.0001 0.0001 0.0001 0.0001 0.0001 0.0001 0.0001 0.0001 0.0001 
0.0001 0.0001 0.0001 0.0001 0.0001 0.0001 0.0001 0.0001 0.0001 
0.0001 0.0001 0.0001 0.0001 0.0001 0.0001 0.0001 0.0001 0.0001 
0.0001 0.0001 0.0001 0.0001 0.0001 0.0001 0.0001 0.0001 0.0001 
0.0001 0.0001 0.0001 0.0001 0.0001 0.0001 0.0001 0.0001 0.0001 
0.0001 0.0001 0.0001 0.0001 0.0001 0.0001 0.0001 0.0001 0.0001 
0.0001 0.0001 0.0001 0.0001 0.0001 0.0001 0.0001 0.0001 0.0001 
0.0001 0.0001 0.0001 0.0001 0.0001 0.0001 0.0001 0.0001 0.0001 
0.0001 0.0001 0.0001 0.0001 0.0001 0.0001 0.0001 0.0001 0.0001 
0.0001 0.0001 0.0001 0.0001 0.0001 0.0001 0.0001 0.0001 0.0001 
0.0001 0.0001 0.0001 0.0001 0.0001 0.0001 0.0001 0.0001 0.0001 
0.0001 0.0001 0.0001 0.0001 0.0001 0.0001 0.0001 0.0001 0.0001 
0.0001 0.0001 0.0001 0.0001 0.0001 0.0001 0.0001 0.0001 0.0001 
0.0001 0.0001 0.0001 0.0001 0.0001 
omega 3 167 double
-3.66147 -0.412441 -7.97046 5.75557 -9.94815 3.9646 -8.40099 -3.03976 -1.03694 
7.37075 -0.642894 -10.5916 0.468721 -0.806791 2.44354 -0.3651 -3.46452 -1.40083 
1.05182 9.41401 7.20605 0.805925 -9.97992 3.14318 -0.942217 6.42277 -7.35093 
-3.53622 1.13724 -6.90369 -2.55538 -1.65899 -0.859933 7.21542 2.77827 -4.90496 
0.767295 -0.812825 -0.98298 -0.118163 -1.34015 -2.867 -1.39863 2.3467 0.133296 
4.14946 -6.52531 -1.21816 -2.62646 1.75498 -0.133359 -0.90396 2.46774 1.21964 
-1.08546 -0.845461 7.93206 5.16078 -16.4132 -1.91511 -6.21755 -6.20183 4.32652 
-3.22866 0.778078 0.62737 0.0576037 -0.90493 -1.60624 1.62172 0.235941 0.146091 
-0.16515 -4.56487 2.04895 0.222892 -0.445664 2.15635 -0.935097 1.37503 0.786605 
2.30225 -12.1842 -6.35767 -1.7143 -0.962153 -9.638 -6.60745 6.50758 6.33544 
-1.684 2.03755 4.53186 -0.651274 -1.13089 11.0918 4.18125 1.93227 -7.9165 
1.10133 0.0899706 -1.11569 -2.34932 -2.45984 6.45995 -5.92585 -4.8256 7.81132 
-5.80281 -2.61704 -3.15295 -0.0594474 0.211516 -5.79636 1.53318 -7.42387 -5.26105 
-2.50662 5.84568 -0.00633604 1.91404 -3.96655 -3.26937 -5.46805 3.50132 2.28887 
0.0261333 -1.63366 2.57129 0.237788 2.48094 0.935658 -1.81516 -9.09895 -11.7796 
-0.0977205 -1.94013 7.42829 1.4138 5.23608 -3.31992 2.66816 1.99586 -4.97491 
-4.61287 -1.34 -2.83191 5.10028 -6.88162 7.72278 2.34513 7.27701 0.799927 
-5.5595 1.92719 -2.18245 -0.57484 3.26902 -1.13649 0.771311 -9.03526 -2.64778 
0.238458 -2.28649 -0.84364 -1.75852 2.26725 -2.56481 -4.86008 4.31926 5.27853 
2.99458 17.6081 0.164687 -3.32379 1.97003 1.51125 -2.29024 6.13743 -11.7646 
2.35739 4.92595 5.19553 4.1943 -5.1896 -2.91058 6.95076 -0.37232 -0.610849 
-0.0495036 8.44335 0.755076 0.348557 16.2934 -3.4721 2.37323 2.02143 1.73084 
6.02786 -9.51578 3.24557 -5.28669 -3.34983 12.5453 10.0998 6.4186 -11.281 
2.42822 1.63812 6.0796 0.681576 1.84481 -4.68208 8.57748 21.3158 -2.46801 
-0.359306 2.64149 -2.92778 0.835093 -0.118441 -2.69522 3.89734 -7.71833 -3.55971 
6.42618 -1.13627 -1.83993 2.98367 5.09086 -7.13952 -6.75172 5.02204 2.66994 
21.9475 2.66013 -10.2147 -6.78037 -4.0714 19.151 1.31691 -1.08148 -18.6984 
4.98191 2.91852 -1.32356 -4.27547 3.95918 -4.57757 10.6804 1.23343 18.8038 
-9.53167 -7.64917 1.02302 -2.45309 10.3845 -8.78356 5.97793 -6.27468 8.84898 
5.78722 -4.26594 -0.448897 2.16006 -14.9465 0.0987352 -4.32585 -15.6572 10.174 
1.85403 -1.83211 1.40455 15.3963 -15.0503 7.65692 -4.90793 -1.45934 -4.48562 
-2.29769 0.534057 -6.6592 2.14496 7.52194 -3.92811 -1.8617 12.9689 -1.04431 
-12.1116 3.84545 -6.24094 4.01583 -4.59213 9.47891 -13.9706 -6.16531 5.8375 
-2.9971 12.6198 8.4504 -27.329 -10.1344 3.21168 14.3512 13.2739 -6.54668 
-7.25288 8.16803 -12.0709 14.8129 15.6387 15.9042 -9.59376 4.33215 -20.2049 
13.1678 12.9975 27.7099 -9.46974 -22.3692 -14.9505 1.52848 -4.26361 6.43665 
-11.8443 -6.35543 -17.2257 -19.6999 -10.584 -2.86774 18.2434 -12.4008 0.0998198 
-1.69347 -24.1169 -8.59262 -1.45209 8.36641 33.7848 38.277 -3.02994 -4.73388 
2.23732 10.6979 0.585761 50.0287 -40.3766 38.5908 -1.99355 -0.122051 16.5405 
-1.32798 9.33547 19.8703 -30.0636 -4.57907 5.6003 1.1356 1.62787 -13.2851 
35.4791 11.4027 -5.71318 11.7303 -10.5631 -23.8568 -36.4362 -1.65608 -22.1029 
-1.38775 -0.586976 16.4055 -6.40252 -7.92727 -3.25498 -9.46273 -3.75373 -15.2072 
-32.5698 11.4288 -14.8002 27.5375 5.05356 11.0563 26.481 -11.0053 -11.9304 
3.39147 4.65161 27.0442 -15.1659 -3.03591 18.4676 -3.54767 0.466711 8.79616 
2.39501 -14.7681 37.3327 -33.5548 5.22624 -3.54912 8.2981 -38.9814 -10.7709 
97.1378 54.2138 61.2961 -16.45 -9.212 2.53387 83.2464 -258.109 -63.1297 
5.26058 -3.584 -27.6069 96.0521 62.7805 34.9606 -23.1678 -2.43632 9.23901 
52.9019 82.0744 45.1295 -33.974 8.93029 -2.51664 -52.443 10.1724 18.4297 
2.86348 -31.6218 -65.2795 18.4421 -11.9534 -13.7427 114.437 112.501 24.5399 
-15.5773 16.8753 7.33838 -20.5838 -5.97048 -1.24174 -13.7284 -28.9959 -1.46655 
103.092 45.2163 -11.4797 -44.3538 42.1076 20.3276 212.711 37.8191 121.119 
-11.6247 104.848 133.456 -130.901 122.922 31.5641 -9.57148 -94.7587 -0.542419 
0 0 0 0 0 0 0 0 0 
0 0 0 0 0 0 0 0 0 
0 0 0 0 0 0 0 0 0 
0 0 0 0 0 0 
