# vtk DataFile Version 4.0
Generated by LIGGGHTS
ASCII
DATASET POLYDATA
POINTS 167 float
-0.000467616 -0.000420672 9.99794e-05 -0.000342011 -0.000459176 0.000262487 -0.000275837 -0.00036312 9.99794e-05 
-0.000140161 -0.000320709 0.000241193 -9.5721e-05 -0.00045506 9.99131e-05 4.79867e-05 -0.000417058 0.000233648 
0.000197049 -0.000390619 9.99627e-05 0.000384666 -0.000387216 0.000248425 -0.000443207 -0.000286766 0.00026487 
-0.00038065 -0.000192658 9.9911e-05 -0.000180736 -0.000185139 9.99124e-05 -0.000281895 -0.000156794 0.000269985 
-3.4916e-06 -0.000277636 9.99049e-05 6.3508e-05 -0.000193023 0.00026817 0.000177072 -0.000191673 9.99184e-05 
0.000299033 -0.000200855 0.000258047 0.000474221 -0.000110194 0.000220367 0.000408405 -0.000255527 9.98825e-05 
-0.000477721 4.19887e-05 9.99257e-05 -0.00038072 1.69518e-05 0.000272955 -0.000285619 -1.48899e-05 9.99577e-05 
-0.000104366 -5.61862e-05 0.000232305 -0.000102325 9.36909e-05 9.99304e-05 4.48619e-05 -4.16704e-05 9.99632e-05 
3.90617e-05 9.91047e-05 0.000241854 0.000185701 -3.68036e-05 0.000242661 0.000324167 -5.62173e-05 9.98593e-05 
0.000363495 5.44082e-05 0.000261721 -0.000332552 0.000179487 9.99208e-05 -0.000485732 0.000184641 0.00024454 
-0.000218692 0.000133105 0.000257642 -0.000170189 0.000296545 9.99554e-05 -6.89217e-05 0.000265049 0.000269471 
3.39674e-05 0.000240037 9.99051e-05 0.000181445 0.000104669 9.99794e-05 0.000129698 0.000287995 0.000268759 
0.000343733 0.00028726 0.00026337 0.000370235 0.000171892 9.99747e-05 -0.000324784 0.0003026 0.000257218 
-0.000323858 0.000425916 9.98965e-05 -0.000494922 0.000322284 9.98884e-05 -0.000174072 0.000433509 0.000246232 
7.21762e-05 0.000436309 9.99314e-05 0.000232638 0.000317011 9.98766e-05 0.000219082 0.000463676 0.0002351 
0.000366511 0.000466734 9.99794e-05 0.000485126 0.000440284 0.000260032 -0.000483259 -0.000424651 0.000404027 
-0.000276032 -0.000318084 0.000387884 -0.000166012 -0.000480491 0.000426539 -1.81247e-05 -0.000327088 0.000399511 
0.000108928 -0.000457949 0.000481538 0.000208279 -0.000359789 0.000338498 -0.000435303 -0.000136572 0.000396639 
-9.58477e-05 -0.000152455 0.000458166 0.00015096 -0.000202374 0.000447698 0.000407061 -0.000257921 0.000416268 
-0.000233111 -1.6304e-05 0.000403609 5.05828e-05 -3.47028e-05 0.000389968 0.000294217 -6.8316e-05 0.000407636 
-0.000352988 0.000167389 0.000401747 -0.000202019 0.000297808 0.000414976 -8.19221e-05 0.000114551 0.000402308 
4.59545e-05 0.000261204 0.000448305 0.000203443 0.000125219 0.000358477 0.000452626 0.000127094 0.000425799 
-0.00036336 0.000415888 0.000417334 -6.90186e-07 0.00043211 0.000355537 0.000240993 0.000306594 0.000433841 
0.000337434 0.000485044 0.000394843 0.000457374 0.000327525 0.000422848 -0.000335733 -0.000430389 0.000542109 
-0.000155908 -0.000320868 0.000547696 -5.5601e-05 -0.000487758 0.000593073 4.6077e-05 -0.000300191 0.000587063 
0.000284499 -0.000372604 0.000524895 0.000165459 -0.0004367 0.000672193 0.000494023 -0.000332633 0.000580102 
0.000364218 -0.0004256 0.000700484 -0.00033332 -0.000284662 0.000678977 -0.000415422 -0.000102354 0.000681132 
-0.00028412 -0.000169392 0.000523193 -2.638e-05 -0.000122515 0.000643242 0.000266717 -0.000192735 0.00061043 
0.00043454 -0.000105732 0.00054527 -0.000409928 1.76402e-05 0.000521288 -0.000148882 2.25632e-05 0.000580681 
0.000141048 -4.30619e-05 0.000568122 0.000289912 8.61418e-05 0.000534485 0.000451595 7.88447e-05 0.000651889 
-0.000403433 0.000280361 0.000558815 -0.000305825 0.000118638 0.000658907 -0.000145446 0.000222237 0.000591259 
2.59693e-05 0.000119282 0.000587702 0.000190241 0.000213401 0.00065209 0.000379304 0.000255474 0.000592209 
-0.000225791 0.00040708 0.000580706 9.55408e-05 0.00038159 0.000600018 0.000287894 0.00043302 0.000581473 
0.00049161 0.000462014 0.000566838 -0.000466611 -0.000377477 0.000795608 -0.000261819 -0.00038646 0.000835529 
-9.2209e-05 -0.000351499 0.000734763 0.000220594 -0.000462158 0.000882561 -0.000323017 -0.000195094 0.000857458 
-0.000216831 -0.000120488 0.000705007 -0.000133773 -0.000244836 0.000898709 5.33869e-05 -0.00022761 0.000793455 
0.000243142 -0.000289889 0.000783594 0.000200665 -0.0001106 0.000861298 0.000426822 -0.000215988 0.000727956 
-0.000321103 3.82771e-06 0.00082192 -7.03107e-05 -6.79037e-05 0.000830494 8.95191e-05 2.15855e-05 0.000750215 
0.000284323 -1.75948e-05 0.000705312 0.000284315 6.94001e-05 0.000885404 0.000450607 -3.73485e-05 0.000814603 
-0.000441771 0.000162793 0.000798751 -0.000269605 0.000296969 0.000741768 -0.00011278 0.000112655 0.00075549 
-2.14939e-05 0.000289167 0.000733217 0.000148313 0.000212889 0.000847588 0.000347357 0.00023237 0.000788226 
-0.00035155 0.000477967 0.000719087 -0.000496635 0.000340468 0.000725191 -0.00042296 0.000441041 0.000902147 
-0.000139592 0.000312142 0.000892958 -0.00015665 0.000460934 0.000760414 3.9933e-05 0.000469071 0.000796058 
0.000215242 0.000379813 0.000760134 0.000382178 0.000421953 0.000861768 -0.000447622 -0.000383264 0.000994581 
-0.00025669 -0.000334419 0.00102855 -8.79216e-05 -0.000438847 0.000919212 8.13674e-05 -0.000339395 0.000956857 
-9.76949e-05 -0.000487269 0.00111298 0.000361446 -0.000463723 0.00102452 -0.000468018 -0.000222802 0.00111217 
-6.77243e-05 -0.000292065 0.00108146 4.15165e-05 -0.000144539 0.000977499 0.000241183 -0.000244571 0.00103069 
0.000396705 -0.000288964 0.000911696 -0.000437741 -8.0743e-05 0.000974712 -0.000352906 8.45407e-05 0.00104871 
-0.000212262 -7.2626e-05 0.000971253 6.5959e-06 9.27002e-05 0.000921408 -5.66018e-05 -6.1534e-06 0.00108336 
0.000357283 -8.86439e-05 0.000983846 0.000466647 9.54127e-05 0.000963263 -0.000330859 0.00026566 0.000929551 
-0.000190073 0.000123987 0.000939557 -1.39151e-05 0.000207634 0.00108376 0.000166896 0.000137785 0.00103212 
0.000280924 0.000291738 0.000974793 0.000479942 0.000292511 0.000994328 -0.000407748 0.00045233 0.00110122 
-0.000242794 0.000454876 0.000987724 4.71529e-05 0.000347901 0.000954965 9.76642e-05 -0.000446217 0.00112512 
0.000366816 -0.000322088 0.00116559 -0.000319997 -9.0986e-05 0.00113872 0.000463744 -9.49207e-06 0.0011335 
-0.000358592 0.000262396 0.00113995 -0.000187115 0.000129333 0.00115116 0.00034917 0.000161957 0.00111079 
-0.000169954 0.000326517 0.00112266 0.000161789 0.000364493 0.00111799 
VERTICES 167 334
1 0 
1 1 
1 2 
1 3 
1 4 
1 5 
1 6 
1 7 
1 8 
1 9 
1 10 
1 11 
1 12 
1 13 
1 14 
1 15 
1 16 
1 17 
1 18 
1 19 
1 20 
1 21 
1 22 
1 23 
1 24 
1 25 
1 26 
1 27 
1 28 
1 29 
1 30 
1 31 
1 32 
1 33 
1 34 
1 35 
1 36 
1 37 
1 38 
1 39 
1 40 
1 41 
1 42 
1 43 
1 44 
1 45 
1 46 
1 47 
1 48 
1 49 
1 50 
1 51 
1 52 
1 53 
1 54 
1 55 
1 56 
1 57 
1 58 
1 59 
1 60 
1 61 
1 62 
1 63 
1 64 
1 65 
1 66 
1 67 
1 68 
1 69 
1 70 
1 71 
1 72 
1 73 
1 74 
1 75 
1 76 
1 77 
1 78 
1 79 
1 80 
1 81 
1 82 
1 83 
1 84 
1 85 
1 86 
1 87 
1 88 
1 89 
1 90 
1 91 
1 92 
1 93 
1 94 
1 95 
1 96 
1 97 
1 98 
1 99 
1 100 
1 101 
1 102 
1 103 
1 104 
1 105 
1 106 
1 107 
1 108 
1 109 
1 110 
1 111 
1 112 
1 113 
1 114 
1 115 
1 116 
1 117 
1 118 
1 119 
1 120 
1 121 
1 122 
1 123 
1 124 
1 125 
1 126 
1 127 
1 128 
1 129 
1 130 
1 131 
1 132 
1 133 
1 134 
1 135 
1 136 
1 137 
1 138 
1 139 
1 140 
1 141 
1 142 
1 143 
1 144 
1 145 
1 146 
1 147 
1 148 
1 149 
1 150 
1 151 
1 152 
1 153 
1 154 
1 155 
1 156 
1 157 
1 158 
1 159 
1 160 
1 161 
1 162 
1 163 
1 164 
1 165 
1 166 

POINT_DATA 167
FIELD FieldData 7
id 1 167 int
4 46 28 51 7 18 9 20 44 
19 27 47 1 29 11 34 40 15 
3 42 14 30 24 10 23 38 26 
49 12 32 35 25 37 13 16 31 
45 2 33 17 21 36 8 5 22 
6 39 63 62 58 54 77 41 52 
67 73 56 53 55 61 60 75 64 
68 43 57 71 48 69 50 59 90 
65 94 89 72 96 86 106 97 88 
76 99 81 87 66 79 85 74 101 
84 102 80 92 93 78 91 83 82 
70 131 126 105 124 118 104 125 112 
110 114 98 109 116 119 100 130 111 
120 115 123 95 122 107 113 103 138 
129 108 132 117 133 146 151 144 139 
161 142 162 158 147 150 134 121 149 
135 127 152 137 140 128 136 155 143 
141 145 159 153 148 156 165 160 154 
166 157 163 164 167 
type 1 167 int
1 1 1 1 1 1 1 1 1 
1 1 1 1 1 1 1 1 1 
1 1 1 1 1 1 1 1 1 
1 1 1 1 1 1 1 1 1 
1 1 1 1 1 1 1 1 1 
1 1 1 1 1 1 1 1 1 
1 1 1 1 1 1 1 1 1 
1 1 1 1 1 1 1 1 1 
1 1 1 1 1 1 1 1 1 
1 1 1 1 1 1 1 1 1 
1 1 1 1 1 1 1 1 1 
1 1 1 1 1 1 1 1 1 
1 1 1 1 1 1 1 1 1 
1 1 1 1 1 1 1 1 1 
1 1 1 1 1 1 1 1 1 
1 1 1 1 1 1 1 1 1 
1 1 1 1 1 1 1 1 1 
1 1 1 1 1 1 1 1 1 
1 1 1 1 1 
i 3 167 int
1 1 0 0 1 0 0 1 0 
0 0 0 0 1 0 0 0 0 
-1 0 0 0 0 0 0 1 0 
0 0 0 0 0 0 0 0 0 
0 0 0 0 0 0 -1 0 0 
0 0 0 0 0 0 -1 0 0 
0 0 0 0 0 0 0 0 0 
0 0 0 1 0 0 0 0 0 
0 0 0 0 0 0 -1 0 0 
0 0 0 0 0 0 0 0 0 
0 0 0 1 0 0 0 0 0 
0 0 0 0 0 0 0 0 0 
0 0 0 0 0 0 0 0 0 
0 -1 0 1 -1 0 0 -1 0 
0 -1 0 0 0 0 0 0 0 
0 -1 0 0 0 0 0 1 0 
1 0 0 0 0 0 0 0 0 
0 0 0 0 0 0 0 0 0 
0 0 0 0 0 0 0 0 0 
0 0 0 0 0 0 0 0 0 
0 0 0 0 0 0 0 0 0 
0 0 0 0 0 0 0 0 0 
0 0 0 0 0 0 0 0 0 
0 -1 0 0 0 0 0 0 0 
0 0 0 0 0 0 0 0 0 
0 0 0 0 0 0 0 0 0 
-1 0 0 0 0 0 0 0 0 
0 0 0 0 0 0 0 0 0 
0 0 0 0 0 0 0 0 0 
0 0 0 0 0 0 0 0 0 
0 0 0 0 0 0 0 0 0 
0 0 0 0 0 0 0 0 0 
0 0 0 0 0 0 0 -1 0 
-1 -1 0 0 0 0 0 0 0 
0 0 0 0 0 0 0 0 0 
0 0 0 0 0 0 0 0 0 
0 0 0 0 0 0 -1 0 0 
0 0 0 0 0 0 0 0 0 
0 0 0 0 0 0 0 0 0 
0 0 0 0 0 0 0 0 0 
0 0 0 0 0 0 0 0 0 
0 -1 0 1 0 0 0 0 0 
0 0 0 0 0 0 0 -1 0 
0 0 0 0 0 0 0 0 0 
0 0 0 0 1 0 0 0 0 
0 0 0 0 0 0 1 0 0 
0 0 0 0 0 0 0 0 0 
0 0 0 1 0 0 0 0 0 
0 0 0 0 0 0 0 0 0 
0 0 0 -1 0 0 0 0 0 
0 0 0 0 0 0 0 0 0 
0 0 0 0 -1 0 0 -1 0 
0 0 0 0 0 0 0 0 0 
0 0 0 0 0 0 0 0 0 
0 0 0 0 0 0 0 0 0 
0 0 0 0 0 0 
v 3 167 double
6.34645e-05 -6.88161e-05 5.53305e-15 2.18962e-07 1.92282e-07 -2.60515e-08 -1.32947e-05 1.23846e-05 -3.88961e-15 
1.98027e-07 1.93489e-07 -7.03754e-09 1.03646e-07 9.2099e-08 2.48659e-08 1.82253e-07 1.54919e-07 -2.82973e-08 
1.38342e-07 7.25076e-08 9.06458e-09 2.08535e-07 1.74196e-07 5.48659e-09 2.29834e-07 2.12135e-07 2.01242e-08 
1.23155e-07 1.37544e-07 4.07854e-09 1.12802e-07 1.13298e-07 -6.30056e-09 1.92135e-07 2.05777e-07 -9.9096e-11 
7.57576e-08 7.20459e-08 -1.9135e-08 1.52627e-07 1.49962e-07 -2.9708e-08 8.20266e-08 6.19785e-08 1.75924e-08 
1.92394e-07 1.81911e-07 2.70513e-09 1.78576e-07 1.63434e-07 -5.91599e-09 1.18959e-07 1.1081e-07 -1.01033e-09 
9.66812e-08 9.73335e-08 2.20361e-08 1.88685e-07 1.94327e-07 2.40197e-08 1.15605e-07 1.00376e-07 7.70141e-11 
1.11194e-07 9.30457e-08 -4.62051e-10 9.76604e-08 9.55898e-08 1.93349e-08 1.11449e-07 1.037e-07 1.28784e-08 
1.74424e-07 1.90452e-07 -5.12283e-08 1.71283e-07 1.79185e-07 -1.33056e-08 1.20296e-07 8.50695e-08 -1.8605e-08 
1.91012e-07 1.77557e-07 -5.00818e-08 8.511e-08 9.64333e-08 -1.64616e-08 2.07573e-07 2.00838e-07 1.55785e-08 
1.86932e-07 1.90912e-07 1.4987e-08 1.50936e-06 4.65908e-06 1.54493e-08 1.93389e-07 1.77527e-07 -6.96842e-09 
9.47752e-08 7.78308e-08 -5.4061e-09 5.40259e-06 9.24333e-06 5.44499e-16 1.70506e-07 1.60515e-07 -4.00442e-09 
1.97195e-07 2.15354e-07 -1.81133e-08 8.24243e-08 8.31562e-08 5.84892e-09 2.13907e-07 1.90195e-07 -4.11334e-09 
1.01258e-07 1.04381e-07 -1.90701e-08 1.45903e-07 1.30226e-07 -5.87586e-09 1.8777e-07 1.6866e-07 1.30437e-08 
1.02525e-07 7.36138e-08 -1.05589e-08 1.11084e-07 8.00729e-08 -1.53128e-08 2.33197e-07 1.24603e-07 -1.57021e-08 
-8.98751e-06 -9.34751e-06 -6.10676e-15 2.55831e-07 2.20528e-07 -3.66775e-08 2.52043e-07 2.39205e-07 -1.98277e-08 
2.33656e-07 1.99541e-07 -3.76338e-08 2.42335e-07 2.22283e-07 -2.48559e-08 2.60673e-07 2.68989e-07 -4.58687e-08 
2.20125e-07 2.60553e-07 -2.13362e-10 2.20286e-07 1.81644e-07 -7.59399e-09 2.3588e-07 2.40745e-07 6.39428e-09 
3.06915e-07 2.99248e-07 -2.132e-08 3.04093e-07 2.45659e-07 -6.09455e-08 2.57466e-07 2.51952e-07 2.2048e-09 
2.22739e-07 2.22551e-07 9.72445e-09 2.63905e-07 2.85236e-07 -1.22682e-08 2.46343e-07 2.26984e-07 -2.78195e-08 
2.336e-07 2.43772e-07 4.31413e-09 2.51915e-07 2.37158e-07 1.31424e-09 2.10277e-07 2.47936e-07 2.80017e-08 
2.36907e-07 2.57377e-07 2.39842e-08 2.29383e-07 2.09967e-07 4.80549e-09 2.62581e-07 2.26931e-07 -5.65761e-09 
2.55434e-07 2.26953e-07 -7.96801e-09 2.23048e-07 1.91602e-07 9.15021e-09 2.25676e-07 2.45223e-07 -5.8966e-09 
2.57288e-07 1.97261e-07 -2.12361e-08 2.44812e-07 2.49608e-07 -1.67453e-08 2.96565e-07 2.79667e-07 -1.35434e-08 
3.27276e-07 2.8529e-07 -9.08461e-08 3.06649e-07 2.63875e-07 -4.29289e-08 2.86043e-07 2.94256e-07 -5.21937e-09 
2.83555e-07 2.615e-07 -5.62052e-08 3.43699e-07 3.45949e-07 -8.61827e-09 3.08494e-07 2.7926e-07 -1.23438e-09 
3.18922e-07 2.88934e-07 -2.19081e-08 3.41262e-07 3.33558e-07 -3.698e-08 3.73138e-07 3.29866e-07 -2.90425e-08 
3.15813e-07 2.91145e-07 -5.6847e-08 3.74495e-07 3.32588e-07 -4.79124e-08 3.45435e-07 3.19174e-07 -4.69633e-08 
3.32593e-07 3.08218e-07 1.92447e-08 3.14868e-07 2.91313e-07 -1.12743e-08 3.21584e-07 2.84758e-07 -3.40575e-08 
3.40011e-07 2.97794e-07 -9.26159e-08 3.16799e-07 2.65446e-07 -2.19435e-08 3.52993e-07 3.198e-07 -3.17325e-08 
3.52777e-07 3.06865e-07 -7.47458e-09 3.70012e-07 3.27227e-07 1.71488e-08 2.87019e-07 2.58957e-07 9.63888e-09 
3.19806e-07 2.82041e-07 -1.97945e-08 3.54198e-07 3.00148e-07 -1.61986e-08 2.97589e-07 2.68156e-07 -1.73601e-08 
3.3959e-07 3.17995e-07 1.22341e-08 3.08698e-07 2.67897e-07 7.79681e-11 2.85449e-07 2.7786e-07 -6.44246e-09 
3.45641e-07 3.1274e-07 -1.54254e-08 3.44277e-07 3.68423e-07 -2.42441e-08 4.01227e-07 4.17365e-07 -1.46156e-08 
4.80613e-07 3.99209e-07 -1.34901e-07 4.35036e-07 4.03269e-07 -7.93098e-08 6.07544e-07 6.14586e-07 -1.944e-07 
4.63307e-07 4.17001e-07 -1.03406e-07 5.53202e-07 4.35362e-07 -1.81174e-07 4.5053e-07 3.99761e-07 -7.02095e-08 
3.7332e-07 3.77244e-07 -6.77626e-08 4.17954e-07 4.11604e-07 -1.89195e-08 3.59094e-07 3.61221e-07 2.59155e-08 
3.73552e-07 2.80945e-07 -1.91436e-09 4.81105e-07 4.75539e-07 -9.15851e-08 4.66271e-07 3.30837e-07 -9.0103e-08 
3.56827e-07 3.36705e-07 -2.96103e-08 4.40147e-07 3.96809e-07 7.59245e-08 4.16761e-07 4.13652e-07 -2.40551e-08 
3.42681e-07 4.19192e-07 -3.49733e-08 3.92163e-07 3.79626e-07 4.00827e-08 3.26648e-07 2.18147e-07 3.34544e-09 
3.18512e-07 2.55961e-07 1.87711e-08 4.54271e-07 3.95968e-07 1.81306e-08 4.35624e-07 3.86072e-07 2.30394e-08 
4.06863e-07 3.59172e-07 3.74728e-08 4.3492e-07 3.5804e-07 -2.29068e-08 4.02405e-07 4.48033e-07 3.91465e-08 
4.10704e-07 3.80854e-07 4.23233e-08 4.15714e-07 4.05532e-07 1.15431e-09 3.99801e-07 3.76116e-07 1.18993e-08 
3.91005e-07 3.50617e-07 -4.54175e-08 4.25687e-07 3.9973e-07 -8.02374e-08 5.02311e-07 6.68154e-07 -5.92159e-08 
3.29089e-07 1.07784e-06 -1.05009e-07 4.35103e-07 4.6648e-07 -5.28339e-09 4.94021e-07 4.24759e-07 -5.14304e-08 
4.96362e-07 5.40164e-07 8.56322e-10 8.25903e-07 1.01298e-06 -4.97784e-07 6.6779e-07 8.57226e-07 -1.7637e-07 
5.16703e-07 5.53665e-07 -1.27568e-07 4.17571e-07 4.01517e-07 -5.43566e-08 4.18623e-07 5.52682e-07 1.63868e-07 
2.17383e-07 1.45574e-07 -2.98419e-08 7.54933e-07 6.91951e-07 -1.86923e-07 3.67351e-07 7.42572e-07 4.29625e-08 
7.08788e-07 9.12713e-07 1.14137e-07 4.64476e-07 4.31731e-07 3.21596e-08 2.39507e-07 3.43211e-07 -1.16442e-07 
5.75038e-07 4.25162e-07 4.93228e-08 4.55572e-07 5.10678e-07 -5.71488e-08 4.30057e-07 4.12932e-07 2.50597e-08 
4.70387e-07 4.61974e-07 7.56745e-08 5.43614e-07 4.66552e-07 3.61737e-08 4.63218e-07 4.67552e-07 5.49344e-08 
4.37859e-07 4.4691e-07 -4.03633e-08 3.77033e-07 4.82465e-07 -5.14603e-09 1.35525e-06 9.13864e-07 -2.15574e-08 
4.25799e-07 5.16754e-07 4.7024e-08 4.51311e-07 4.04408e-07 -5.21215e-09 5.23957e-07 4.97433e-07 -3.80441e-08 
8.42515e-07 5.88877e-07 -1.27802e-07 7.01845e-07 8.33179e-07 9.64286e-08 7.39307e-07 4.8261e-07 -4.00064e-08 
5.82783e-07 7.47884e-07 3.83559e-08 4.75042e-07 5.04193e-07 2.16156e-08 5.03904e-07 5.16208e-07 1.32479e-08 
5.87303e-07 5.10099e-07 1.68574e-08 4.68531e-07 4.73576e-07 -3.31241e-08 
f 3 167 double
2.06604e-23 -4.4197e-23 0 -3.84611e-11 3.84221e-12 -2.20922e-12 -5.47817e-24 5.24859e-24 0 
-2.87471e-11 -1.62214e-12 1.24285e-12 -1.47291e-11 -4.2582e-14 -1.78281e-12 -2.66928e-11 4.79825e-13 2.75931e-12 
-1.70275e-11 -1.4324e-12 -1.68311e-12 -3.77397e-11 7.05322e-12 5.18101e-12 -3.82871e-11 2.36325e-12 5.40715e-13 
-1.83621e-11 4.27943e-13 -1.10334e-12 -1.51372e-11 -9.55298e-13 7.62165e-13 -3.07018e-11 4.08953e-13 7.69924e-13 
-1.0202e-11 -3.31461e-13 -1.68065e-13 -2.94368e-11 4.43748e-12 -1.20123e-12 -1.48697e-11 1.82697e-12 -1.99697e-12 
-3.35199e-11 5.63426e-12 -2.10739e-12 -3.25478e-11 5.2474e-12 3.88503e-12 -2.13762e-11 2.27201e-12 3.19336e-12 
-1.44249e-11 8.18787e-13 -2.70402e-12 -3.01643e-11 8.01857e-13 -2.19268e-12 -1.51601e-11 -6.38316e-13 6.04479e-13 
-1.56662e-11 1.08549e-12 7.8603e-13 -1.64673e-11 1.50372e-12 -1.25507e-12 -1.6521e-11 -7.40766e-13 -1.14245e-12 
-2.94895e-11 3.42233e-12 2.91335e-15 -3.17632e-11 6.45851e-12 -2.46163e-12 -2.18415e-11 6.05588e-12 1.0595e-12 
-3.68514e-11 8.32227e-12 1.82536e-12 -1.55142e-11 6.78432e-13 6.85928e-13 -3.42841e-11 1.97267e-12 2.38008e-12 
-3.21711e-11 2.64585e-12 -9.86557e-14 -2.04705e-11 2.78855e-12 -2.83965e-12 -3.47546e-11 4.7022e-12 1.43208e-12 
-1.91399e-11 3.07168e-12 2.07803e-12 7.02111e-25 -5.53158e-24 0 -3.35462e-11 3.48166e-12 6.74317e-13 
-3.52806e-11 -5.616e-12 8.07792e-12 -1.04119e-11 -5.12209e-12 -1.467e-12 -3.70275e-11 3.50382e-12 6.72113e-13 
-2.09293e-11 2.43833e-12 -3.12332e-13 -2.40241e-11 2.56308e-12 1.39189e-12 -3.49186e-11 4.0466e-12 5.96389e-13 
-1.27674e-11 -1.65368e-13 1.3784e-12 -1.76264e-11 -4.38123e-12 2.87243e-12 -3.28785e-11 -9.21956e-13 -9.51771e-13 
5.52226e-24 5.24469e-24 0 -4.38396e-11 2.46212e-12 1.47116e-12 -4.66915e-11 2.47982e-12 2.73659e-12 
-4.23612e-11 4.76991e-12 1.95917e-13 -4.63998e-11 6.90371e-12 3.64551e-12 -4.09859e-11 3.55197e-13 1.14396e-12 
-4.60885e-11 6.06716e-12 1.3506e-12 -3.786e-11 8.96937e-12 5.38455e-12 -4.16159e-11 2.43416e-12 1.81023e-12 
-4.95621e-11 7.36997e-13 -4.25903e-12 -5.17403e-11 9.0096e-12 4.20248e-12 -4.52979e-11 3.35526e-12 -1.18875e-12 
-3.86776e-11 5.18554e-12 4.92837e-13 -4.20115e-11 8.87098e-13 -1.12014e-12 -3.98388e-11 6.03452e-12 -4.63451e-13 
-3.95417e-11 2.84506e-12 1.82484e-12 -4.15229e-11 4.531e-12 3.91611e-12 -3.71132e-11 2.68084e-12 -3.2679e-12 
-4.63379e-11 6.46798e-12 -9.7342e-13 -4.11619e-11 3.40167e-12 -1.14496e-12 -4.21243e-11 3.02641e-12 -4.51057e-13 
-4.38357e-11 4.88692e-12 1.41534e-12 -3.97462e-11 5.80958e-12 -8.28804e-13 -4.51444e-11 3.86064e-13 3.02482e-12 
-4.41642e-11 6.77637e-12 4.1687e-12 -4.323e-11 4.12795e-12 7.09442e-12 -5.33056e-11 6.67898e-12 1.23095e-12 
-5.34311e-11 4.11161e-12 5.88762e-12 -5.65655e-11 6.41548e-12 6.3445e-12 -5.53254e-11 5.66317e-12 -2.08358e-12 
-5.31541e-11 6.44786e-12 4.18522e-12 -6.4956e-11 8.29943e-12 3.98686e-13 -5.61219e-11 4.75091e-12 3.2764e-12 
-6.68222e-11 6.00578e-12 2.43877e-12 -6.67887e-11 5.82755e-12 4.43749e-12 -6.5495e-11 5.51364e-12 2.38322e-12 
-4.93418e-11 4.50306e-12 3.77308e-12 -6.0349e-11 4.9823e-12 1.44107e-13 -5.77705e-11 7.25109e-12 1.87029e-12 
-5.46131e-11 5.0039e-12 -2.04557e-12 -5.30076e-11 3.24388e-12 3.4541e-12 -5.40005e-11 8.66672e-12 2.64144e-12 
-5.57622e-11 6.03785e-12 4.15034e-12 -5.25294e-11 7.01834e-12 -1.65077e-12 -5.94828e-11 5.26332e-12 -2.38788e-13 
-6.48743e-11 7.01824e-12 -3.29576e-12 -6.0082e-11 3.20958e-12 6.62615e-12 -5.26497e-11 7.38008e-12 3.13732e-12 
-5.44427e-11 6.75898e-12 8.75762e-13 -5.77698e-11 7.5882e-12 -1.5028e-12 -5.53617e-11 8.2773e-12 4.80354e-12 
-5.79494e-11 5.75198e-12 3.12387e-12 -5.85621e-11 7.53203e-12 1.30407e-12 -5.68942e-11 5.60723e-12 1.63175e-13 
-7.1236e-11 7.7136e-12 7.86188e-13 -7.22905e-11 6.99757e-12 -6.54475e-13 -8.25572e-11 -3.15943e-13 1.16195e-11 
-7.00449e-11 6.08187e-12 6.82413e-12 -7.50101e-11 9.24029e-12 2.10185e-12 -7.7648e-11 1.33847e-11 1.93995e-12 
-6.12633e-11 1.72123e-12 3.10529e-12 -8.00606e-11 1.01227e-11 1.37072e-12 -6.98488e-11 6.28141e-12 1.73167e-12 
-6.96783e-11 8.55729e-12 1.69232e-12 -7.24682e-11 1.10977e-11 -2.74543e-12 -6.39643e-11 5.51706e-12 3.61132e-12 
-6.76052e-11 -3.68847e-13 3.44658e-12 -7.20972e-11 6.74697e-12 1.67595e-12 -6.59134e-11 5.32184e-12 4.15119e-12 
-6.13751e-11 8.61693e-12 -9.79169e-13 -7.77467e-11 1.1055e-11 -1.26869e-12 -6.87918e-11 8.21425e-12 1.25961e-12 
-6.93326e-11 7.98277e-12 1.04309e-12 -6.93063e-11 5.33258e-12 3.59207e-12 -6.82934e-11 1.43834e-11 2.02023e-12 
-6.31814e-11 1.25398e-11 3.36308e-12 -7.11354e-11 1.06308e-11 -1.69646e-12 -7.11772e-11 7.7062e-12 3.13575e-12 
-7.15244e-11 5.64978e-12 -2.53708e-12 -7.64304e-11 6.14742e-12 -3.22552e-12 -7.53325e-11 1.07323e-11 -2.02848e-12 
-6.9998e-11 1.12758e-11 1.41835e-12 -7.3673e-11 7.30482e-12 5.90238e-12 -7.30476e-11 1.21399e-11 -1.17775e-12 
-6.65848e-11 9.18722e-12 5.765e-13 -7.33064e-11 9.1683e-12 5.71777e-12 -8.21782e-11 1.04694e-11 2.72661e-12 
-9.04199e-11 3.33487e-11 7.76072e-12 -7.60745e-11 7.34698e-12 6.60853e-12 -7.7686e-11 1.12887e-11 5.18372e-12 
-8.3207e-11 1.97357e-11 1.38989e-11 -7.54328e-11 2.58287e-11 -3.72116e-12 -8.00549e-11 1.0887e-11 3.41756e-12 
-8.52554e-11 1.14153e-11 6.3972e-13 -7.0885e-11 1.55243e-11 1.97423e-12 -8.15715e-11 1.57759e-11 5.5039e-12 
-7.3935e-11 2.29088e-12 1.23548e-12 -8.09714e-11 9.88256e-12 4.72678e-12 -7.85309e-11 8.00948e-12 -7.02568e-13 
-6.87745e-11 1.77986e-11 1.04338e-11 -7.70921e-11 1.29324e-11 -8.37808e-12 -6.73058e-11 2.48481e-11 -6.7001e-13 
-8.1699e-11 1.27414e-11 -3.3181e-12 -7.84927e-11 1.21219e-11 3.48596e-14 -7.86282e-11 1.04061e-11 4.34167e-12 
-8.10602e-11 5.04845e-12 -5.13281e-12 -1.13419e-10 1.64122e-11 -1.73743e-11 -8.12409e-11 1.34661e-11 -2.08893e-12 
-7.81979e-11 1.28341e-11 4.86832e-12 -7.69918e-11 1.15232e-11 5.74702e-12 -1.0223e-10 7.593e-12 7.98758e-13 
-8.803e-11 2.66722e-11 1.29326e-11 -7.40539e-11 1.21786e-11 -3.57558e-12 -7.97246e-11 8.44317e-12 5.57171e-12 
-8.28485e-11 1.5671e-11 6.94007e-12 -8.08754e-11 1.20697e-11 5.51981e-12 -9.01887e-11 1.27301e-11 8.4969e-13 
-1.00687e-10 8.66208e-12 -7.83737e-13 -8.01684e-11 2.06427e-11 -1.09584e-11 -8.13403e-11 6.85196e-12 1.06872e-12 
-9.78976e-11 2.46507e-11 1.08365e-11 -8.63885e-11 5.86431e-12 2.26444e-12 
radius 1 167 double
0.0001 0.0001 0.0001 0.0001 0.0001 0.0001 0.0001 0.0001 0.0001 
0.0001 0.0001 0.0001 0.0001 0.0001 0.0001 0.0001 0.0001 0.0001 
0.0001 0.0001 0.0001 0.0001 0.0001 0.0001 0.0001 0.0001 0.0001 
0.0001 0.0001 0.0001 0.0001 0.0001 0.0001 0.0001 0.0001 0.0001 
0.0001 0.0001 0.0001 0.0001 0.0001 0.0001 0.0001 0.0001 0.0001 
0.0001 0.0001 0.0001 0.0001 0.0001 0.0001 0.0001 0.0001 0.0001 
0.0001 0.0001 0.0001 0.0001 0.0001 0.0001 0.0001 0.0001 0.0001 
0.0001 0.0001 0.0001 0.0001 0.0001 0.0001 0.0001 0.0001 0.0001 
0.0001 0.0001 0.0001 0.0001 0.0001 0.0001 0.0001 0.0001 0.0001 
0.0001 0.0001 0.0001 0.0001 0.0001 0.0001 0.0001 0.0001 0.0001 
0.0001 0.0001 0.0001 0.0001 0.0001 0.0001 0.0001 0.0001 0.0001 
0.0001 0.0001 0.0001 0.0001 0.0001 0.0001 0.0001 0.0001 0.0001 
0.0001 0.0001 0.0001 0.0001 0.0001 0.0001 0.0001 0.0001 0.0001 
0.0001 0.0001 0.0001 0.0001 0.0001 0.0001 0.0001 0.0001 0.0001 
0.0001 0.0001 0.0001 0.0001 0.0001 0.0001 0.0001 0.0001 0.0001 
0.0001 0.0001 0.0001 0.0001 0.0001 0.0001 0.0001 0.0001 0.0001 
0.0001 0.0001 0.0001 0.0001 0.0001 0.0001 0.0001 0.0001 0.0001 
0.0001 0.0001 0.0001 0.0001 0.0001 0.0001 0.0001 0.0001 0.0001 
0.0001 0.0001 0.0001 0.0001 0.0001 
omega 3 167 double
0.688232 0.634711 -1.06808 6.38437e-05 0.000184588 -0.00085839 -0.123858 -0.132961 0.448035 
-0.000330328 0.000562557 9.47232e-05 -0.00061072 0.000687742 -0.000170101 -0.000290562 0.000534776 0.00029523 
-0.00043815 0.001415 0.000713762 0.000496925 0.000361389 -0.00016306 0.000297807 -0.000219557 0.000594038 
-0.00125579 0.00108072 5.09961e-07 -0.00105589 0.00106612 -0.00078925 0.000592901 -0.000359679 0.000190914 
-0.000353661 0.000265825 0.000261413 6.47125e-05 0.000770226 0.00056896 -6.44934e-05 0.000296977 -0.000142142 
-0.00045944 0.000389404 0.00100435 3.08986e-05 -0.000483084 0.00033524 -0.000869459 0.00100022 -0.000375368 
-0.000527154 0.00059959 0.000526896 -0.000342092 -0.000103058 -0.000270053 -0.00067654 0.0012195 0.000718416 
0.00100775 -0.00129679 0.000489042 -0.000759945 0.000686415 0.000235335 -0.00113958 0.0011101 -0.000239702 
0.000101863 -8.72093e-05 0.000395271 5.20982e-05 -0.000589037 -0.000553681 -0.000758394 0.000934953 7.18975e-05 
-4.17243e-05 -0.000365277 -0.000259096 -0.00042011 0.000556865 -0.00038801 0.00038121 6.84054e-05 0.000209394 
-0.000600144 0.000157959 0.000251887 -0.0466063 0.0150607 -0.165647 0.000167451 0.0002134 -0.000524063 
-0.000328325 0.000619915 -0.000408401 -0.0924429 0.0540314 0.0391763 -0.000464032 -0.000321639 0.000255937 
-0.000977579 -9.12112e-05 -0.000200767 -0.00096657 0.000687973 -0.000318923 -0.000201047 0.000350246 -0.000409313 
-0.000857241 0.00102119 0.000470559 -0.00117009 0.00147221 -0.000910291 8.21979e-06 -0.000405156 0.000541539 
-0.000469815 0.000713759 2.13634e-05 -0.000768345 0.000915199 0.000113898 0.000161297 0.000120412 -0.00075693 
0.0934847 -0.0898843 0.165283 3.84566e-05 -0.000214235 0.000733982 -0.000148362 0.000179555 -0.000552524 
-0.000209176 -0.000275017 0.000669482 -0.00046022 0.000804837 -0.00066564 -0.000811905 0.000190543 -0.000850039 
-0.000508019 0.000404124 -1.13242e-05 0.000123296 -0.000534012 -0.000405575 -0.000631474 0.000682965 -0.000385835 
0.00129136 -0.000884012 4.35728e-05 -0.000973336 0.000753208 -0.000326274 0.000631144 -0.000408702 0.000526972 
-0.000691265 0.000571928 -0.000304152 -0.000969712 0.0012837 -8.86567e-05 -0.000221631 0.00154512 0.000523602 
-7.22861e-05 9.59275e-05 -3.38361e-05 -0.000376367 0.000108598 -0.000156163 0.000881383 -0.000379401 0.000669531 
-0.000391268 0.00114356 -0.000471496 -0.000150333 0.000984852 0.000128301 -0.000627265 1.4177e-05 0.000285792 
0.000134558 -3.9536e-05 0.000320492 -0.000230181 -0.000481271 0.000205267 0.00024086 0.00072557 0.00071921 
-0.000613772 8.24683e-05 0.000800829 -3.1464e-05 0.000108537 -0.000711037 -0.000718961 0.000614068 -0.000201286 
-0.000483504 0.00130263 -5.5029e-05 -0.000888643 1.15195e-05 -0.000753475 0.000480327 -0.000258467 -0.000614424 
-0.000211885 0.000401765 -0.000646395 -0.000411884 0.000469336 0.000349428 -0.000204274 0.000365653 0.00047548 
-0.00028388 -0.000473688 -0.000381368 0.000206681 -0.00030273 -8.51167e-05 -0.000158286 0.000142987 -0.000266906 
-0.000712577 0.000643321 -0.000101954 -0.0014512 0.00152818 2.16448e-05 -2.0623e-05 -0.000471307 0.000196875 
0.000258854 8.22096e-05 -0.000328844 6.23995e-06 0.000379485 0.000334537 -7.51533e-05 0.000339547 -0.000181937 
0.000543997 -0.000654533 1.20951e-05 -0.000144449 7.41579e-05 -2.81135e-05 -0.000677873 0.000205265 4.06631e-05 
-0.000745673 0.00110328 -0.000405063 0.000171886 0.000305401 -0.000143958 0.000331748 -3.92132e-05 0.000439822 
0.000643194 3.77858e-05 0.000227632 -0.000266664 0.000303507 -0.000206148 0.000257861 0.000622175 0.000404402 
-0.000371521 0.000760474 0.000143938 0.000330151 5.08925e-05 0.000787066 -0.000340376 4.17557e-05 -0.000517003 
-0.000493099 0.000948295 0.000561661 -0.00125286 0.000167019 0.000678121 -0.00056969 0.000576479 0.000773129 
-0.000802553 0.000623118 -0.000782335 -3.85797e-05 0.000705541 0.000283079 -0.00368185 0.000706565 -0.00454 
0.000226825 0.00131596 0.00209572 0.000195211 0.000352745 0.00174392 0.000744643 -0.000733793 0.000442664 
-9.35085e-05 0.000579058 -0.000431298 -0.000162373 0.000192521 -0.000138876 -0.00054422 0.000362581 -0.000283043 
0.000428287 -0.000360357 -2.17549e-05 0.000332994 -0.000886586 -0.000869804 -0.000881474 0.00172924 -0.000294305 
-0.000361278 0.00029012 3.63332e-05 0.00105076 -0.000377438 -0.000146606 -0.000395645 0.000368822 0.000233522 
-0.000705898 -0.0010512 -0.000646404 -0.000390129 -0.000436851 -0.000119136 0.00105288 0.00011118 0.00101342 
-0.000478036 0.000179974 -0.000741325 -0.000469534 0.000707224 -0.000427284 -0.00153792 0.000622488 1.91928e-05 
-1.76702e-05 0.00048373 0.000187714 0.000479727 -0.000406131 9.45657e-05 -0.00118272 -0.001019 0.000465983 
-3.64999e-05 0.00056904 -0.000726151 -0.000383811 -9.14482e-06 3.87227e-05 0.000182679 2.84977e-05 -0.000406096 
-0.000317809 0.000637929 0.000326684 -0.000850256 -0.000204267 -0.000435824 -0.000394825 0.00101926 0.0089417 
-0.00612562 -0.00242547 -0.00544867 -0.000386976 -0.000399319 -0.000737809 -0.000753916 0.000659857 -4.05876e-05 
-0.000155784 0.00113241 -0.000185397 -0.00699756 0.00527486 0.00113919 -0.00178999 0.000850468 -0.0101212 
-0.00104103 -0.00101062 -0.000220828 0.000402255 -0.000293416 0.000603583 -0.00501185 -0.00637841 -0.00133623 
0.00323537 -0.00191018 -0.000103826 0.00132579 0.00210148 0.00514408 8.35006e-05 -0.00338917 -0.000456438 
-0.00758641 0.00378772 0.00205036 0.000357427 -0.000617679 0.000188904 0.000557496 -0.00235917 -0.000132609 
-0.000606154 0.00102376 0.00120984 -0.000378946 0.00192851 0.00201095 0.000805939 0.00108797 -0.000167907 
-0.00438433 0.00174094 0.000131671 -0.000554187 0.000875846 -0.00127284 -0.00139679 0.0002215 -0.000564687 
8.73849e-06 -0.000250327 0.000918831 0.00102828 1.4838e-05 -0.000611431 -0.00349453 0.0105516 -0.00649259 
0.000465436 0.00113109 7.72369e-05 -0.000222175 -1.29076e-05 0.00120371 0.00016871 -0.000449831 9.84031e-05 
0.0129625 0.00662159 0.0102814 0.00107792 -0.00523825 0.0091721 -8.26355e-05 0.000437608 -0.00128277 
-3.96972e-05 0.000560195 -0.00359733 9.0462e-05 0.00382781 -0.00260818 -0.000933415 -4.52825e-07 1.63634e-05 
7.05256e-05 -0.000394424 0.00109188 -0.000328226 0.000499577 -0.000816066 
