# vtk DataFile Version 4.0
Generated by LIGGGHTS
ASCII
DATASET POLYDATA
POINTS 52 float
-0.000483305 -0.000433371 9.99733e-05 -0.000291873 -0.000428084 0.000220947 2.85595e-05 -0.00040407 0.000219611 
0.000184068 -0.000364613 0.000100016 0.000214098 -0.000470746 0.000269009 0.000325746 -0.000304734 0.000267515 
-0.000377864 -0.000208919 0.000104537 -0.000207581 -0.000237546 0.000209293 -3.655e-05 -0.000254437 0.00010172 
-2.52344e-05 -0.000180129 0.000287154 0.00017678 -0.000162283 0.000105842 0.000424211 -0.000256128 9.99717e-05 
-0.00023966 -6.26834e-05 9.99794e-05 -0.00013757 2.91244e-06 0.000266915 4.88661e-06 -5.79133e-05 9.99723e-05 
0.000167409 8.48817e-05 0.000100013 0.000483328 -6.51085e-05 9.99677e-05 0.00030406 -4.78605e-05 0.000230273 
0.000367027 9.75062e-05 9.99715e-05 -0.000366325 0.000157029 9.99826e-05 -0.000499622 0.000246519 0.000219241 
-0.000110871 0.000105225 9.87102e-05 2.6466e-05 0.000119473 0.00024734 2.90898e-05 0.000254623 9.99666e-05 
0.000225676 0.000291414 9.99844e-05 -0.000336799 0.000419134 9.99751e-05 -0.000164544 0.000307642 9.99882e-05 
-0.000105519 -0.000499211 0.000100764 -0.000272154 0.000338051 0.000278806 0.000100822 0.000452466 9.99682e-05 
0.000109673 0.00034736 0.000269865 0.000330121 0.000489453 9.99794e-05 0.000339604 0.000365909 0.000263913 
-0.000211963 -0.000326735 0.000394322 0.00016008 -0.000192797 0.000389124 0.000476082 1.04166e-05 0.000360057 
-0.000328435 0.000131142 0.000309546 -8.44751e-05 3.76917e-05 0.000455974 4.75261e-05 -0.000117696 0.000539462 
3.42789e-06 0.000393593 0.00208558 0.000174324 -0.000379601 0.00122286 0.000174452 0.000323358 0.00134489 
0.000201607 -0.000180051 0.00158622 -0.000370492 0.00016947 0.00158233 -0.000294104 0.000385387 0.00157722 
-9.40644e-05 0.000321798 0.0015852 -0.000147449 -0.000365817 0.00185921 -5.89037e-05 -3.78148e-05 0.00173099 
0.000144866 -0.000322011 0.00205554 -0.000393386 -0.000171032 0.00206709 -0.000233907 -0.00011418 0.00193869 
0.000299367 0.000187399 0.0020953 
VERTICES 52 104
1 0 
1 1 
1 2 
1 3 
1 4 
1 5 
1 6 
1 7 
1 8 
1 9 
1 10 
1 11 
1 12 
1 13 
1 14 
1 15 
1 16 
1 17 
1 18 
1 19 
1 20 
1 21 
1 22 
1 23 
1 24 
1 25 
1 26 
1 27 
1 28 
1 29 
1 30 
1 31 
1 32 
1 33 
1 34 
1 35 
1 36 
1 37 
1 38 
1 39 
1 40 
1 41 
1 42 
1 43 
1 44 
1 45 
1 46 
1 47 
1 48 
1 49 
1 50 
1 51 

POINT_DATA 52
FIELD FieldData 7
id 1 52 int
4 28 18 9 22 20 19 27 1 
29 11 15 14 30 10 16 3 26 
2 12 21 24 23 13 5 17 25 
7 33 8 31 6 39 36 34 32 
35 37 38 48 41 45 40 42 44 
46 51 43 50 52 47 49 
type 1 52 int
1 1 1 1 1 1 1 1 1 
1 1 1 1 1 1 1 1 1 
1 1 1 1 1 1 1 1 1 
1 1 1 1 1 1 1 1 1 
1 1 1 1 1 1 1 1 1 
1 1 1 1 1 1 1 
i 3 52 int
1 1 0 0 1 0 0 0 0 
-1 0 0 0 1 0 0 0 0 
0 0 0 0 0 0 0 0 0 
0 0 0 -1 0 0 -1 0 0 
0 0 0 0 0 0 0 0 0 
0 0 0 -1 0 0 -1 0 0 
0 0 0 0 0 0 1 -1 0 
1 0 0 0 0 0 0 0 0 
0 0 0 0 -1 0 1 0 0 
0 1 0 0 0 0 0 -1 0 
0 0 0 0 -1 0 0 0 0 
0 0 0 0 0 0 -1 0 0 
0 0 0 0 0 0 0 0 0 
0 0 0 0 0 0 0 0 0 
0 0 0 0 0 0 0 0 0 
0 0 0 0 0 0 0 0 0 
0 0 0 0 0 0 0 0 0 
0 0 0 
v 3 52 double
0.00562891 0.000145407 -0.000167765 -0.0136192 0.00424202 -0.0171661 -0.00183264 -0.000409095 0.00450381 
-0.00383199 -0.00183498 -0.000272167 0.00429393 -0.00266346 -0.00607295 0.00443867 -0.000825816 -0.0153163 
0.00483218 0.00551853 0.0116381 0.00321143 0.0181153 0.0182885 4.2852e-06 -0.00170769 -0.00191838 
-0.00519968 -0.00755672 0.00492888 -0.0238128 0.000183652 -0.0032991 0.00224366 -0.000985475 0.000217868 
-0.0089418 0.0136042 -4.64741e-08 -0.0272332 -0.036687 -0.0221329 0.0020396 0.00399747 5.23131e-05 
-1.15346e-06 -0.0029415 -0.000126523 -0.00316953 0.000774697 0.000353276 -0.0173723 0.00332765 -0.00434359 
6.45847e-05 0.00345643 5.52005e-05 0.00449606 -0.00252962 0.000356781 -0.00536885 0.0149869 -0.0227846 
-0.0149325 -0.00654096 -0.0115441 0.0154742 -0.0154911 -0.0144333 0.00282044 0.000586437 4.97394e-05 
0.00225414 0.00151915 -3.23735e-05 -0.00894838 -0.0107337 3.21758e-06 0.00828081 0.00512589 -0.00633543 
0.00455632 0.00922581 -0.0167079 -0.00904287 0.0201458 -0.00577961 -0.00112087 0.00261819 -1.568e-05 
-0.00573899 0.00808594 0.00358943 0.00349246 0.000896035 -1.17348e-11 0.00366298 0.0273437 -0.00694774 
-0.000541153 -0.0490163 0.00714792 0.0347179 0.000474937 -0.0848723 0.0167181 0.0205977 -0.0227831 
0.01693 -0.0191051 -0.0486783 0.0294386 0.000188441 -0.0271295 -0.0320733 0.0338952 -0.0969675 
-0 -0 -0.02 0 0 -0.12509 0 0 -0.115123 
0 0 -0.0922948 0 0 -0.0927068 0 0 -0.0932464 
0 0 -0.0924027 0 0 -0.0562332 0 0 -0.0753529 
-0 -0 -0.02 -0 -0 -0.02 0 0 -0.0400369 
-0 -0 -0.02 
f 3 52 double
3.46604e-07 -2.48463e-07 2.11904e-08 5.73339e-09 1.55974e-08 -6.91259e-08 0 0 -1.0273e-07 
0 0 -1.0273e-07 0 0 -1.0273e-07 0 0 -1.0273e-07 
1.36399e-07 -5.58078e-08 -9.68327e-08 0 0 -1.0273e-07 0 0 -1.0273e-07 
0 0 -1.0273e-07 0 0 -1.0273e-07 -5.08238e-07 1.61091e-07 9.86905e-08 
3.96127e-13 4.22949e-13 -5.17366e-12 -3.70603e-06 -1.06068e-05 2.63706e-05 -3.30195e-08 -6.7458e-08 4.74813e-08 
0 0 -1.0273e-07 2.68668e-07 -2.68893e-07 9.55652e-08 0 0 -1.0273e-07 
-2.00358e-07 3.5476e-07 -3.86758e-08 -2.07054e-08 1.35662e-08 -7.96505e-08 3.12919e-08 -2.06012e-08 -1.09366e-07 
1.60258e-06 4.90032e-06 2.40781e-05 -1.40869e-08 -2.49856e-08 -2.26148e-08 -1.03949e-08 -1.34656e-08 2.78429e-08 
9.934e-09 3.82076e-09 -3.84678e-08 -1.18618e-09 4.39434e-10 -1.97583e-10 8.65603e-07 1.83684e-06 9.56627e-07 
0 0 -1.0273e-07 0 0 -1.0273e-07 -6.83571e-10 7.15606e-09 6.67148e-09 
2.7014e-09 -3.13441e-08 -1.23386e-08 -8.96319e-19 -2.30069e-19 3.40078e-15 0 0 -1.0273e-07 
0 0 -1.0273e-07 0 0 -1.0273e-07 0 0 -1.0273e-07 
0 0 -1.0273e-07 5.15427e-07 -1.68927e-06 6.63521e-06 0 0 -1.0273e-07 
0 0 0 0 0 -1.0273e-07 0 0 -1.0273e-07 
0 0 -1.0273e-07 0 0 -1.0273e-07 0 0 -1.0273e-07 
0 0 -1.0273e-07 0 0 -1.0273e-07 0 0 -1.0273e-07 
0 0 0 0 0 0 0 0 -1.0273e-07 
0 0 0 
radius 1 52 double
0.0001 0.0001 0.0001 0.0001 0.0001 0.0001 0.0001 0.0001 0.0001 
0.0001 0.0001 0.0001 0.0001 0.0001 0.0001 0.0001 0.0001 0.0001 
0.0001 0.0001 0.0001 0.0001 0.0001 0.0001 0.0001 0.0001 0.0001 
0.0001 0.0001 0.0001 0.0001 0.0001 0.0001 0.0001 0.0001 0.0001 
0.0001 0.0001 0.0001 0.0001 0.0001 0.0001 0.0001 0.0001 0.0001 
0.0001 0.0001 0.0001 0.0001 0.0001 0.0001 0.0001 
omega 3 52 double
-17.2293 38.7878 25.2389 -344.176 37.6445 -100.194 -74.5287 106.804 -88.5668 
18.5104 -38.9359 105.816 -42.877 -110.25 47.765 -38.5718 -81.0097 -27.3837 
-83.6709 -39.5815 154.815 433.13 16.2485 3.41066 -43.2043 31.8396 -154.566 
117.697 -115.097 92.273 7.48627 -248.941 72.5539 5.83018 45.9179 101.703 
-136.056 -89.4272 149.636 438.893 208.815 -167.666 10.2268 -4.17665 181.134 
51.8204 22.4784 -28.3607 -2.76985 -28.8799 -63.4729 -184.44 255.668 -91.2035 
7.68539 11.8352 13.4516 25.7485 45.6414 8.24758 -206.662 -148.631 -54.61 
-23.0898 -115.261 -249.692 207.898 16.23 45.0872 -5.94439 27.6778 87.0706 
-15.0426 22.0829 -59.0224 107.363 -89.4999 120.736 -162.841 135.394 -7.66787 
95.2679 -166.378 30.5958 70.6076 -329.528 -134.469 -26.1695 -11.2102 -25.1755 
-39.749 -23.6425 -6.34883 -8.96127 34.9282 -100.147 -194.59 247.149 61.1518 
236.767 -54.8082 -9.34208 -252.492 -206.898 -130.963 -346.647 26.6125 -370.757 
540.563 792.186 167.786 -626.765 260.315 124.585 -22.6258 -377.679 162.487 
0 0 0 0 0 0 0 0 0 
0 0 0 0 0 0 0 0 0 
0 0 0 0 0 0 0 0 0 
0 0 0 0 0 0 0 0 0 
0 0 0 
