# vtk DataFile Version 4.0
Generated by LIGGGHTS
ASCII
DATASET POLYDATA
POINTS 106 float
-0.000472561 -0.000415043 9.99794e-05 -0.000349003 -0.000464603 0.000265954 -0.000274125 -0.00038198 9.99631e-05 
-0.00014027 -0.000328169 0.000244718 -8.82143e-05 -0.000455875 9.98982e-05 5.27403e-05 -0.000419223 0.000236838 
0.000195823 -0.000391179 9.99665e-05 0.000369931 -0.000387166 0.000252723 -0.000453995 -0.000294449 0.00027264 
-0.000390297 -0.000216512 9.99101e-05 -0.00019102 -0.000199864 9.99643e-05 -0.000293698 -0.000174338 0.000269807 
-5.18747e-06 -0.000273773 9.99513e-05 6.09808e-05 -0.00018252 0.000265104 0.000176926 -0.000191089 9.99201e-05 
0.000296157 -0.000194532 0.000260358 0.000474581 -0.000116902 0.000214702 0.000396339 -0.000260822 9.99709e-05 
-0.000472773 3.80006e-05 9.99067e-05 -0.000379509 6.23236e-06 0.00027392 -0.000276874 -1.74201e-05 9.99794e-05 
-0.000109399 -6.38737e-05 0.000221792 -0.000104767 9.46276e-05 9.99549e-05 4.71533e-05 -3.83451e-05 9.99758e-05 
0.000186297 -2.818e-05 0.000243259 0.000323148 -5.47263e-05 9.99031e-05 0.000372732 4.81251e-05 0.000264002 
-0.000335436 0.000183304 9.99389e-05 -0.000476834 0.000178074 0.000242594 -0.000223522 0.000130174 0.000256897 
3.63189e-05 0.000104367 0.000241331 -7.02234e-05 0.00027067 0.00027254 2.73047e-05 0.000245539 9.98776e-05 
0.000177397 0.000113429 9.99519e-05 0.000133831 0.000282285 0.000265032 0.000353325 0.000282009 0.000261702 
0.000371119 0.000162926 9.99743e-05 -0.00032236 0.000304015 0.000258838 -0.000330899 0.000425224 9.99791e-05 
-0.000500388 0.000316127 9.99235e-05 -0.000166109 0.000302185 9.99411e-05 -0.000175176 0.000438714 0.000245797 
8.14678e-05 0.000438015 9.99062e-05 0.000241233 0.000317724 9.99803e-05 0.000216622 0.000463778 0.000244994 
0.000352754 0.000484427 9.99279e-05 0.000474494 0.000442427 0.000252848 -0.000491534 -0.000436439 0.000408277 
-0.000282971 -0.000328529 0.000396717 -0.000179021 -0.000495203 0.000434469 -8.75925e-06 -0.000316025 0.000396641 
0.000200202 -0.000345359 0.000349775 0.000105824 -0.000449524 0.000491943 0.000317365 -0.000495169 0.000412775 
-0.000443871 -0.000138024 0.000396813 -8.43745e-05 -0.000148758 0.000475896 0.000141907 -0.000190619 0.000462085 
0.000402448 -0.000264865 0.000414439 -0.000218239 -3.03534e-05 0.000386224 5.09638e-05 -2.74341e-05 0.000390929 
0.000293393 -6.27399e-05 0.000410745 -0.000359021 0.000165655 0.000403708 -0.000203232 0.00029049 0.000420521 
-8.54772e-05 0.000118323 0.000401055 6.63413e-05 0.000238991 0.000449503 0.000218347 0.00012932 0.000362244 
0.00043588 0.000153529 0.000421729 -0.000362294 0.000411662 0.000422561 2.70255e-05 0.000423558 0.000357832 
0.000250303 0.00031499 0.00043033 0.000446634 0.000353058 0.000429539 -0.000322643 -0.000447381 0.0005751 
-0.000145415 -0.00032997 0.000541969 0.000260539 -0.000331536 0.000540353 0.000248281 -0.000500368 0.00068521 
0.000415537 -0.000458485 0.000583936 -0.000284135 -0.000167791 0.000515647 -6.41949e-05 -0.000198206 0.000668594 
0.000165042 -0.000200844 0.000660404 -0.000445523 2.29609e-05 0.000515953 -0.000136818 2.08531e-05 0.000567928 
0.000126617 -2.06771e-05 0.000575912 0.000292368 8.65088e-05 0.000543797 0.000438996 4.3837e-05 0.000678808 
-0.000359848 0.000282089 0.000574843 -9.72973e-05 0.000218084 0.000573947 0.000361216 0.000268685 0.000592839 
-0.000124035 0.000428295 0.00066728 0.000132769 0.000373717 0.000581404 0.000488027 -0.000287413 0.00069875 
-0.000379657 0.000128567 0.000717778 2.92068e-05 0.000111612 0.000699962 0.000287727 0.000105651 0.000918487 
-0.000351622 -0.000238327 0.00107349 -0.000122544 -0.00033464 0.00134604 7.88162e-05 -0.000397812 0.00160772 
-0.000384867 -2.79851e-05 0.00163575 1.33325e-05 -6.24992e-05 0.00172356 2.21066e-05 0.000221638 0.00172196 
-0.000370272 -0.000343371 0.00197133 -1.73693e-05 -0.000387406 0.00207141 -0.000171239 -0.000173469 0.00205437 
0.000163987 3.50823e-05 0.00201675 -0.000246641 0.000262031 0.00197375 0.000343863 0.00011214 0.00192391 
4.96403e-05 0.000347882 0.00208556 
VERTICES 106 212
1 0 
1 1 
1 2 
1 3 
1 4 
1 5 
1 6 
1 7 
1 8 
1 9 
1 10 
1 11 
1 12 
1 13 
1 14 
1 15 
1 16 
1 17 
1 18 
1 19 
1 20 
1 21 
1 22 
1 23 
1 24 
1 25 
1 26 
1 27 
1 28 
1 29 
1 30 
1 31 
1 32 
1 33 
1 34 
1 35 
1 36 
1 37 
1 38 
1 39 
1 40 
1 41 
1 42 
1 43 
1 44 
1 45 
1 46 
1 47 
1 48 
1 49 
1 50 
1 51 
1 52 
1 53 
1 54 
1 55 
1 56 
1 57 
1 58 
1 59 
1 60 
1 61 
1 62 
1 63 
1 64 
1 65 
1 66 
1 67 
1 68 
1 69 
1 70 
1 71 
1 72 
1 73 
1 74 
1 75 
1 76 
1 77 
1 78 
1 79 
1 80 
1 81 
1 82 
1 83 
1 84 
1 85 
1 86 
1 87 
1 88 
1 89 
1 90 
1 91 
1 92 
1 93 
1 94 
1 95 
1 96 
1 97 
1 98 
1 99 
1 100 
1 101 
1 102 
1 103 
1 104 
1 105 

POINT_DATA 106
FIELD FieldData 7
id 1 106 int
4 46 28 51 7 18 9 20 44 
19 27 47 1 29 11 34 40 15 
3 42 14 30 24 10 38 26 49 
12 32 35 23 37 13 16 31 45 
2 33 17 21 25 36 8 5 22 
6 39 63 62 58 54 41 77 50 
52 67 73 56 53 55 61 60 75 
64 68 43 57 71 48 69 59 90 
65 72 82 70 76 89 81 66 79 
85 74 87 84 80 78 91 83 86 
88 92 93 97 94 96 98 99 95 
106 105 104 100 102 101 103 
type 1 106 int
1 1 1 1 1 1 1 1 1 
1 1 1 1 1 1 1 1 1 
1 1 1 1 1 1 1 1 1 
1 1 1 1 1 1 1 1 1 
1 1 1 1 1 1 1 1 1 
1 1 1 1 1 1 1 1 1 
1 1 1 1 1 1 1 1 1 
1 1 1 1 1 1 1 1 1 
1 1 1 1 1 1 1 1 1 
1 1 1 1 1 1 1 1 1 
1 1 1 1 1 1 1 1 1 
1 1 1 1 1 1 1 
i 3 106 int
1 1 0 0 1 0 0 1 0 
0 0 0 0 1 0 0 0 0 
-1 0 0 0 0 0 0 1 0 
0 0 0 0 0 0 0 0 0 
0 0 0 0 0 0 -1 0 0 
0 0 0 0 0 0 -1 0 0 
0 0 0 0 0 0 0 0 0 
0 0 0 1 0 0 0 0 0 
0 0 0 -1 0 0 0 0 0 
0 0 0 0 0 0 0 0 0 
0 0 0 0 0 0 0 0 0 
0 0 0 0 0 0 0 0 0 
0 0 0 0 0 0 0 -1 0 
1 -1 0 1 0 0 0 -1 0 
0 -1 0 0 0 0 0 0 0 
0 -1 0 0 0 0 0 1 0 
1 0 0 0 0 0 0 0 0 
0 0 0 0 0 0 0 0 0 
0 0 0 0 0 0 0 0 0 
0 0 0 0 0 0 0 0 0 
0 0 0 0 0 0 0 0 0 
0 0 0 0 0 0 0 0 0 
0 0 0 0 0 0 0 0 0 
0 0 0 0 0 0 0 0 0 
0 0 0 0 0 0 0 0 0 
-1 0 0 0 0 0 0 0 0 
0 0 0 0 0 0 0 0 0 
0 0 0 0 0 0 0 0 0 
0 0 0 0 0 0 0 0 0 
0 0 0 0 0 0 0 0 0 
0 0 0 0 0 0 0 0 0 
0 0 0 0 0 0 0 0 0 
0 0 0 0 0 0 0 0 0 
0 0 0 0 0 0 0 0 0 
0 0 0 0 0 0 0 0 0 
0 0 0 
v 3 106 double
4.70663e-06 -0.000763346 -6.59582e-14 -0.000680162 0.000337278 -6.12536e-05 0.000330122 0.000555238 0.000233486 
2.29878e-05 -0.000159128 -3.51786e-05 -0.00140045 -0.000156264 -0.000194335 -0.00139199 0.000752488 -0.000362254 
-0.000671855 0.00137218 0.000143885 -0.000363029 0.000802411 0.0016246 0.000664502 -2.27493e-05 0.000464776 
9.02392e-05 2.39313e-06 0.000128259 0.00020837 0.000198671 0.00017914 -0.000316233 0.000251418 0.000470835 
-3.89186e-05 -0.000218603 -0.000104503 0.000522145 -8.95685e-05 -0.000520709 -0.000727507 0.000171995 0.000505634 
0.000253827 -0.000425136 0.000753851 0.000457314 -0.000354513 3.04529e-06 6.90558e-05 0.000741923 0.000707322 
0.000294269 0.000228524 0.000189606 -0.000285409 0.000266787 0.000872594 -0.000892541 0.000711242 5.82399e-13 
-1.18028e-05 0.000490376 0.000272529 -0.000506973 0.000254414 -0.000125005 -3.59246e-05 0.000743439 0.000138039 
6.94883e-05 0.000706188 0.000318213 5.88178e-05 -8.01061e-05 0.000377307 -0.000499535 0.000345198 0.000421306 
-0.00018354 0.000902412 2.73077e-05 -0.000460934 0.000147393 0.000570417 -0.000420175 0.000954413 0.000235811 
-0.000561237 0.000227638 -0.000396404 -4.41652e-06 9.10245e-05 0.00011423 1.58709e-05 -0.000252597 -0.00014899 
-0.000508749 -0.00032755 -0.000141012 -0.000540574 0.000303175 -7.35585e-05 -0.0007847 0.000432117 0.000238939 
-0.000272637 -0.000799739 6.31906e-05 -0.000887617 0.00043703 0.000841993 -5.77854e-05 0.000947215 0.000313579 
-0.00134905 0.000109513 0.000152563 -0.000223008 -0.000465517 0.000189983 -0.000417587 1.83043e-05 0.000571509 
-0.00092755 0.000153882 0.000194806 -0.000491662 0.000738638 2.46888e-05 -0.00121309 0.00113974 0.000526475 
-0.00179786 0.000969892 0.00036407 -0.00111961 0.000375686 0.000428536 -0.000547839 0.000512114 0.000697925 
-0.000799453 0.000302075 -7.56218e-05 -1.87176e-05 0.00193763 4.20417e-05 -0.000260434 0.000770429 -8.97396e-05 
-0.00116022 -0.000183701 0.000461717 -0.00101886 -0.00135217 -0.000433541 -0.000687152 0.000945938 0.000414803 
-0.00191557 0.00250304 -0.00194876 -0.000316852 0.000365862 0.000608522 0.0015144 0.0016035 -0.000100367 
0.0015052 0.00107657 0.00137229 -0.000426935 0.000215796 0.000828948 0.00032613 0.000259334 -0.000907582 
0.00105141 0.000639108 -0.00140177 -0.000269096 0.000461686 0.000768682 -0.000192919 0.000531805 0.000308145 
-3.87351e-05 7.93702e-05 0.000146196 0.00106622 -0.000542305 0.000159413 0.000408637 0.000653383 0.000291557 
-0.000399206 0.000681265 0.00035962 -0.000323017 0.000490487 0.00116732 -0.00191465 0.000850047 -0.00177557 
-0.000139306 0.00194464 -0.00150325 -0.000346209 0.000592895 0.000593841 -0.0119127 -0.0229719 -0.0475328 
-0.000241731 0.00191692 -0.0004809 0.00233471 0.00201413 -0.00179173 0.00063694 -0.00312763 0.00467259 
-0.00291644 -0.00132264 -0.000672403 -0.000251539 -0.000355581 0.000435567 0.000437693 -0.000605292 0.000405584 
0.00652015 0.00184618 -0.000847929 -0.000860562 -0.00122986 -0.00172249 -0.00444312 -4.30431e-05 -0.0015464 
-0.000896598 -3.5439e-05 -0.000549405 -0.000516603 -0.000518708 -0.000358657 0.0231656 -0.0207647 -0.0242462 
-0.00224787 -0.00168208 -0.000169848 -0.00630916 -0.00583019 0.00265811 0.00708313 0.00105055 -0.0137425 
-0.0398656 0.029868 -0.0281566 -0.00173359 -0.000389923 0.00205277 0.0412296 0.00813422 -0.0213248 
-0.00662483 -0.033347 -0.0278715 0.0350658 -0.0362889 -0.0434318 0 0 -0.147035 
0 0 -0.136302 0 0 -0.115025 0 0 -0.0899796 
0 0 -0.0868699 0 0 -0.0763143 0 0 -0.0765203 
0 0 -0.0310215 -0 -0 -0.02 -0 -0 -0.02 
-0 -0 -0.02 0 0 -0.0302465 0 0 -0.0435097 
-0 -0 -0.02 
f 3 106 double
-8.22183e-24 1.15383e-21 -1.56422e-17 -1.56072e-08 2.27014e-08 -5.20332e-08 -5.35595e-08 4.28708e-08 -3.90248e-08 
-3.04653e-08 1.7325e-08 1.8449e-08 4.47947e-08 1.57265e-08 6.33704e-08 -4.87028e-09 -8.06885e-08 1.06771e-07 
-2.97393e-09 -7.45126e-09 4.99549e-08 -1.23385e-08 4.66278e-08 -7.37261e-08 -2.33247e-08 -6.62268e-08 6.19128e-08 
-3.10202e-08 -8.03554e-09 2.81597e-08 -1.69519e-08 1.16627e-08 -1.27119e-09 -2.55427e-08 -4.59557e-08 1.77482e-08 
1.54089e-08 -2.1284e-08 2.61559e-08 1.73615e-08 -1.49211e-08 3.76197e-08 -8.09628e-08 -3.77195e-08 3.73914e-09 
-1.43848e-07 -1.42425e-07 2.66719e-08 -1.70594e-07 -5.38809e-08 1.47591e-07 1.5162e-07 -1.19724e-07 -1.13767e-07 
-7.64808e-08 -3.32979e-08 6.32147e-08 -3.72769e-08 -3.48617e-09 -3.73493e-08 -1.1228e-20 8.96743e-21 2.35857e-16 
-2.00048e-08 -6.72915e-08 -7.36134e-09 -7.12944e-09 1.70842e-08 3.56634e-08 -1.56941e-07 1.6725e-08 -3.52175e-08 
-5.88595e-08 -1.54821e-08 2.99321e-08 -1.58834e-08 -3.12329e-08 4.94501e-08 -5.70064e-08 2.47984e-08 5.08178e-08 
3.60851e-08 -2.18448e-08 7.80913e-09 -6.0448e-09 -7.41696e-09 -1.0682e-08 -1.43436e-08 -5.35816e-08 7.45823e-09 
7.47411e-08 -6.34528e-09 5.7614e-08 5.75315e-08 6.48571e-08 5.78335e-08 2.03966e-08 5.798e-08 2.19352e-08 
1.09231e-07 -1.95439e-08 -2.13055e-08 8.69708e-08 8.49062e-08 8.59762e-08 1.87936e-08 -9.61503e-09 -7.28455e-08 
-4.86313e-08 7.52759e-08 -1.17115e-08 -1.65272e-08 -5.98842e-08 8.04932e-08 2.27878e-09 2.05626e-08 -5.58971e-08 
-8.08929e-09 9.87882e-09 1.60689e-08 9.45239e-08 -6.16439e-10 1.99104e-08 4.82474e-10 3.52987e-08 3.86984e-08 
2.99879e-08 -3.43082e-08 1.89347e-08 2.16376e-08 -9.65387e-09 -2.42941e-08 1.86715e-08 6.52614e-09 -2.34996e-08 
6.3384e-09 -7.17467e-09 3.94073e-08 1.53933e-08 -8.31309e-09 4.37605e-08 5.2471e-08 -4.22308e-08 7.09385e-08 
6.70243e-08 1.13618e-08 4.51743e-08 -1.69716e-07 -4.39412e-08 8.33666e-08 7.33027e-08 5.24417e-08 9.5354e-08 
-3.99428e-08 -1.17907e-07 8.89046e-08 -1.25733e-09 -2.43492e-08 1.50985e-07 1.39828e-08 -1.68332e-08 -4.10397e-08 
-1.25832e-08 2.80276e-08 -5.38496e-08 3.43116e-08 1.0133e-07 8.25112e-08 -1.45172e-08 -2.06251e-08 1.89292e-07 
1.61744e-08 -6.49425e-08 -2.01259e-08 9.83812e-09 -2.14668e-08 2.08319e-08 1.03029e-07 -8.7216e-09 3.36251e-08 
5.79788e-08 -2.15184e-07 -1.34599e-07 1.54272e-08 -2.06616e-08 -6.32905e-08 -1.30592e-08 -7.43618e-09 -1.59318e-08 
3.46832e-08 2.02211e-08 7.00172e-08 4.683e-08 2.45104e-08 -3.79096e-08 7.28969e-09 1.31782e-08 -3.74427e-08 
-4.61259e-08 4.09575e-08 1.16602e-07 3.02191e-08 -4.44314e-08 1.40006e-08 -4.73423e-08 2.18708e-07 1.24716e-07 
1.23131e-07 -5.99389e-08 -1.19405e-07 4.07785e-08 1.89678e-08 3.22026e-09 0 0 -1.0273e-07 
-2.84376e-08 -8.11026e-08 -4.09262e-08 0 0 -1.0273e-07 -4.0561e-09 1.43421e-07 1.27306e-07 
1.93663e-08 -2.57829e-09 9.88861e-08 -1.47449e-08 1.09633e-08 1.13967e-07 4.86433e-08 6.39609e-08 1.43039e-07 
5.56208e-08 5.609e-09 4.24797e-07 5.13753e-08 -2.76735e-08 -3.2701e-08 -6.90949e-08 4.23568e-08 1.85861e-07 
5.63925e-08 -3.05189e-08 2.33928e-08 -3.45695e-08 2.23153e-07 2.04078e-07 0 0 -1.0273e-07 
3.65614e-08 -4.2913e-08 3.55005e-08 4.66889e-08 7.00569e-08 1.59219e-07 0 0 -1.0273e-07 
0 0 -1.0273e-07 5.27191e-08 -5.70913e-08 2.19619e-07 0 0 -1.0273e-07 
0 0 -1.0273e-07 0 0 -1.0273e-07 0 0 -1.0273e-07 
0 0 -1.0273e-07 0 0 -1.0273e-07 0 0 -1.0273e-07 
0 0 -1.0273e-07 0 0 -1.0273e-07 0 0 -1.0273e-07 
0 0 -1.0273e-07 0 0 0 0 0 0 
0 0 0 0 0 -1.0273e-07 0 0 -1.0273e-07 
0 0 0 
radius 1 106 double
0.0001 0.0001 0.0001 0.0001 0.0001 0.0001 0.0001 0.0001 0.0001 
0.0001 0.0001 0.0001 0.0001 0.0001 0.0001 0.0001 0.0001 0.0001 
0.0001 0.0001 0.0001 0.0001 0.0001 0.0001 0.0001 0.0001 0.0001 
0.0001 0.0001 0.0001 0.0001 0.0001 0.0001 0.0001 0.0001 0.0001 
0.0001 0.0001 0.0001 0.0001 0.0001 0.0001 0.0001 0.0001 0.0001 
0.0001 0.0001 0.0001 0.0001 0.0001 0.0001 0.0001 0.0001 0.0001 
0.0001 0.0001 0.0001 0.0001 0.0001 0.0001 0.0001 0.0001 0.0001 
0.0001 0.0001 0.0001 0.0001 0.0001 0.0001 0.0001 0.0001 0.0001 
0.0001 0.0001 0.0001 0.0001 0.0001 0.0001 0.0001 0.0001 0.0001 
0.0001 0.0001 0.0001 0.0001 0.0001 0.0001 0.0001 0.0001 0.0001 
0.0001 0.0001 0.0001 0.0001 0.0001 0.0001 0.0001 0.0001 0.0001 
0.0001 0.0001 0.0001 0.0001 0.0001 0.0001 0.0001 
omega 3 106 double
7.63424 0.0470711 -4.57065 -2.96382 -23.9626 -3.87047 -5.76701 3.48923 25.8689 
1.10794 10.2185 3.51979 1.38231 -13.8806 4.59322 -8.0504 13.5743 0.583901 
-13.808 -6.05842 13.495 4.05201 -5.77051 -5.81461 -6.53007 -1.11522 -1.52823 
-0.0601829 0.769027 18.3851 -1.85346 2.5505 -20.1827 8.80768 -0.789749 0.662603 
2.12742 -0.363121 -3.11682 -9.83461 0.333686 -9.8248 -1.90705 -8.43874 -3.62732 
-5.33645 18.0562 -11.0385 6.29163 -9.83335 5.5314 -9.84479 1.4784 6.32737 
-3.49422 2.86536 5.50221 -2.06026 -4.87288 -3.99731 -7.11315 -8.92633 1.78507 
-1.19466 -7.79926 22.3333 -3.09068 -3.91073 -9.6572 -7.34721 -0.184719 -15.9609 
-5.92963 -1.27873 3.15962 -1.15367 1.66353 -5.25239 -7.43911 -17.5183 -9.6152 
-7.79011 -1.3185 1.15593 -1.52557 6.75015 7.65759 5.21974 -2.90469 -0.627142 
-0.546035 6.43283 1.96178 -2.10671 1.48843 -4.17851 3.91354 0.772783 -0.303991 
1.49773 -7.04059 -7.52169 -6.43688 -4.79527 14.7496 13.4414 0.17107 -3.54382 
-7.39922 3.88388 3.90085 15.7979 -12.8957 -8.19335 -10.3282 -0.617296 6.30582 
-0.920772 -13.7067 11.1617 5.34064 -2.06264 22.3624 -8.88042 23.9776 3.02614 
-1.96441 -9.56885 10.0462 -7.38888 -5.01233 6.95318 10.9133 8.78759 13.7199 
-9.95302 -18.5241 -22.2791 -0.102601 28.0071 1.51617 -1.15624 -17.1012 1.06816 
3.13714 24.0424 6.06488 -10.2797 -23.087 -9.38743 6.64054 2.01491 1.03795 
17.5203 -16.6166 -7.49208 16.946 38.6581 -19.1724 -0.234862 0.0128791 -0.211759 
-23.9169 -29.5517 15.9895 0.121709 -2.44688 -0.461098 -38.9827 39.7347 -10.2733 
-32.6313 1.16285 -16.7483 0.485582 5.48496 1.57331 5.3693 -2.57465 9.23875 
20.6307 -22.2423 -21.0175 -44.3284 -1.17517 -66.0146 1.50324 -1.61799 -1.22452 
3.18734 7.19277 -4.29488 52.861 41.5574 10.1544 7.76614 2.36203 -2.25226 
1.80655 12.4812 4.39975 9.99387 2.38358 2.38289 0.660331 -24.2493 -19.6095 
-4.64875 -0.765457 -0.847927 -0.105758 -18.6334 -5.45531 381.613 -140.259 -85.428 
-2.8544 -8.45078 -11.4763 60.1058 -59.6656 68.7096 105.837 107.053 -7.12777 
60.602 -1.44883 -72.4742 5.7584 -5.30133 0.597464 16.9006 -0.401117 43.7015 
56.2574 5.20408 150.179 40.4876 -41.1992 10.4166 -3.84504 -65.6815 12.5493 
-12.9164 -9.98474 -37.0645 -1.15867 -0.0842628 13.1966 309.706 231.905 4.22315 
10.8507 -16.3822 -11.9006 62.8994 -90.7554 -10.0621 6.42639 71.2161 -9.31239 
-221.492 -477.253 68.5021 -36.5354 -60.0266 17.6497 -185.127 495.614 -40.6177 
480.036 2.96562 20.5386 289.283 431.071 44.8524 0 0 0 
0 0 0 0 0 0 0 0 0 
0 0 0 0 0 0 0 0 0 
0 0 0 0 0 0 0 0 0 
0 0 0 0 0 0 0 0 0 
0 0 0 
