# vtk DataFile Version 4.0
Generated by LIGGGHTS
ASCII
DATASET POLYDATA
POINTS 59 float
-0.000493326 -0.000451765 9.99803e-05 -0.000302933 -0.000390258 9.99859e-05 2.58052e-06 -0.000411154 0.000225982 
0.000161835 -0.000354439 9.99792e-05 0.000321568 -0.000363116 0.000246018 -0.000387957 -0.000209179 9.99896e-05 
-0.000217123 -0.000241561 0.000203324 -4.59015e-05 -0.000260734 9.9979e-05 3.51021e-05 -0.000176626 0.000266179 
0.00019516 -0.000157067 0.000100099 0.000233452 -0.000190045 0.000295645 0.0004213 -0.000269652 9.99863e-05 
-0.000491575 -3.54379e-05 9.99775e-05 -0.000288459 -3.56317e-05 9.9978e-05 -0.000134837 -6.15999e-05 0.000232482 
-0.000267837 9.09723e-05 0.000254791 -0.000137181 9.74841e-05 0.000100074 1.51785e-05 -6.77955e-05 9.97889e-05 
1.40359e-05 8.00624e-05 0.000234328 0.000326849 -3.12692e-05 0.000183859 -0.000375515 0.00015761 9.99735e-05 
-0.00033341 0.000284246 0.000268275 1.25586e-05 0.000242002 9.99423e-05 0.000176319 0.000111633 9.99794e-05 
0.000250499 0.000300814 9.99697e-05 0.00044495 0.000183432 0.000282797 0.000374437 0.000143836 9.99269e-05 
-0.000343377 0.000413901 0.000106093 -0.00017816 0.000301432 0.000111107 -0.000122279 0.00049473 9.98204e-05 
-0.000132893 0.00040683 0.000279238 8.83832e-05 0.000442752 0.000100216 5.09309e-05 0.00032257 0.000278867 
0.000185813 0.000473598 0.000272572 0.000483167 0.000313166 0.000102736 0.000309628 0.000500794 9.99275e-05 
0.000368443 0.000386555 0.000253115 0.000105835 -0.000326229 0.00037865 0.000302234 -0.000106097 0.000467495 
0.000137131 -1.0697e-05 0.00036582 -0.000400635 0.000132604 0.000399235 -0.00012363 0.000210255 0.000325796 
0.000285668 0.000283503 0.000405862 -0.000364764 0.000432802 0.000431228 -0.0001354 0.000397836 0.000479381 
-5.89037e-05 -3.78148e-05 0.00048696 -0.000147449 -0.000365817 0.000806382 -0.000233907 -0.00011418 0.00104782 
0.000144866 -0.000322011 0.00159968 -0.000393386 -0.000171032 0.00165047 -0.000192209 9.25715e-05 0.001781 
0.000299367 0.000187399 0.00176085 3.42789e-06 0.000393593 0.00172507 2.39452e-05 -0.000376337 0.00209983 
2.85625e-05 -0.000169233 0.00208998 -0.000332403 -1.44896e-05 0.00201253 0.000210881 -5.12428e-05 0.00202796 
0.000384501 9.73277e-05 0.00207592 0.000194303 0.000343746 0.00198682 
VERTICES 59 118
1 0 
1 1 
1 2 
1 3 
1 4 
1 5 
1 6 
1 7 
1 8 
1 9 
1 10 
1 11 
1 12 
1 13 
1 14 
1 15 
1 16 
1 17 
1 18 
1 19 
1 20 
1 21 
1 22 
1 23 
1 24 
1 25 
1 26 
1 27 
1 28 
1 29 
1 30 
1 31 
1 32 
1 33 
1 34 
1 35 
1 36 
1 37 
1 38 
1 39 
1 40 
1 41 
1 42 
1 43 
1 44 
1 45 
1 46 
1 47 
1 48 
1 49 
1 50 
1 51 
1 52 
1 53 
1 54 
1 55 
1 56 
1 57 
1 58 

POINT_DATA 59
FIELD FieldData 7
id 1 59 int
4 28 18 9 20 19 27 1 29 
11 34 15 3 14 30 35 24 10 
23 26 12 33 13 16 5 32 2 
17 25 7 36 8 31 22 21 6 
39 41 40 38 42 37 45 44 46 
43 51 47 50 52 55 49 48 58 
54 53 56 57 59 
type 1 59 int
1 1 1 1 1 1 1 1 1 
1 1 1 1 1 1 1 1 1 
1 1 1 1 1 1 1 1 1 
1 1 1 1 1 1 1 1 1 
1 1 1 1 1 1 1 1 1 
1 1 1 1 1 1 1 1 1 
1 1 1 1 1 
i 3 59 int
1 1 0 0 1 0 0 0 0 
-1 0 0 0 0 0 0 0 0 
0 0 0 0 0 0 0 0 0 
-1 0 0 0 0 0 -1 0 0 
0 0 0 0 0 0 0 0 0 
0 0 0 1 0 0 0 0 0 
0 0 0 -1 0 0 0 0 0 
0 0 0 0 0 0 0 0 0 
0 0 0 -1 0 0 0 0 0 
0 -1 0 1 0 0 0 0 0 
0 -1 0 0 -1 0 0 0 0 
0 0 0 0 -1 0 0 -1 0 
0 0 0 0 0 0 0 0 0 
0 0 0 0 0 0 0 0 0 
0 0 0 0 0 0 0 0 0 
0 0 0 0 0 0 0 0 0 
0 0 0 0 0 0 0 0 0 
0 0 0 0 0 0 0 0 0 
0 0 0 0 0 0 0 0 0 
0 0 0 0 0 0 
v 3 59 double
-0.00153655 0.00434335 -2.05861e-05 0.000522832 0.000187235 -0.000114359 -0.00400512 0.00391838 0.00792593 
-0.00230691 -0.00227673 -4.87338e-07 -0.0043534 0.00431648 -0.000360618 -0.00193223 7.80963e-05 0.000539635 
0.000139029 0.00198737 0.00016533 -0.00120162 -0.00277163 6.26988e-07 0.00809842 0.00208723 0.000158165 
0.00197144 -0.00262 -0.00217002 0.012379 -0.00471563 -0.000258041 -0.0023082 0.00323381 6.63443e-05 
0.00488109 0.00227622 3.94012e-05 0.00139323 -0.000985047 -0.000506057 0.00309971 0.000510008 0.00179723 
-0.00691145 -0.00355777 0.00206609 3.07978e-06 -0.000207861 -0.00170129 0.000198958 0.00208862 -0.000707059 
-0.000141074 -0.000171772 0.000535057 0.00130182 -0.00461238 -0.00288985 -0.00300733 -0.00177629 -0.000147102 
0.00972307 0.0029772 0.00580947 -0.00231174 -0.00384016 -1.39884e-05 -0.000840504 0.00164757 -6.62808e-15 
-0.00442957 0.00379031 0.000855913 -0.00139108 0.0150626 0.000319526 -0.00608811 0.00121073 0.00219264 
-0.000148275 0.000881663 0.00173526 -0.00107051 -0.00228946 0.000650329 0.0031788 0.00812954 0.000362743 
0.00127815 0.0123448 -0.0021713 -0.00084166 -0.00952412 -0.0104683 -0.00197655 -0.0129712 0.00448857 
0.000473454 -0.00374256 -0.00772982 -0.00384835 0.00645594 -0.031801 -0.00151468 0.00338702 0.000892723 
0.00726578 -0.00452834 -0.00705523 0.00945083 0.0168563 0.0101013 0.0648651 0.012541 -0.0170982 
0.0173664 -0.00300027 -0.0121141 -0.0131531 -0.027456 -0.00019018 -0.00992607 0.00734411 -0.00287097 
0.0211592 -0.0155265 -0.013697 -0.0451303 0.0361365 0.00407255 -0.00964061 0.0229866 -0.00388381 
0 0 -0.173453 0 0 -0.154333 0 0 -0.138137 
0 0 -0.0908527 0 0 -0.0851924 0 0 -0.068535 
0 0 -0.0713603 0 0 -0.0761181 -0 -0 -0.02 
-0 -0 -0.02 -0 -0 -0.02 -0 -0 -0.02 
-0 -0 -0.02 0 0 -0.0256653 
f 3 59 double
1.46015e-10 1.86675e-10 -2.74675e-09 -2.12819e-08 3.21373e-08 -2.56398e-08 0 0 -1.0273e-07 
7.34802e-14 2.74789e-13 1.50657e-09 0 0 -1.0273e-07 -3.98032e-09 3.5762e-09 -1.50014e-07 
0 0 -1.0273e-07 -1.10371e-14 -3.21952e-14 3.14394e-09 9.19625e-08 -6.5313e-07 1.43213e-06 
0 0 -1.0273e-07 0 0 -1.0273e-07 5.05244e-11 4.67046e-10 -5.84819e-08 
3.94349e-09 -8.77207e-11 7.45888e-09 2.43785e-08 -1.01276e-07 1.05608e-07 0 0 -1.0273e-07 
0 0 -1.0273e-07 0 0 -1.0273e-07 1.40754e-07 -6.87434e-07 1.59419e-06 
-8.36446e-08 7.13156e-07 2.90455e-07 -9.61874e-09 -2.48148e-07 9.16704e-08 -6.79732e-09 4.40687e-09 7.64231e-08 
0 0 -1.0273e-07 -2.36221e-08 7.62656e-08 1.11224e-07 -2.52687e-22 1.37649e-21 -6.06158e-21 
3.69129e-09 -3.4043e-09 -9.26872e-08 -4.48322e-08 -6.21434e-09 -2.02266e-07 4.7038e-08 1.83716e-07 -6.04964e-08 
-1.79756e-07 3.21361e-07 -1.03371e-07 1.79756e-07 -3.21361e-07 -1.02089e-07 -8.83596e-08 9.30202e-08 2.4636e-06 
0 0 -1.0273e-07 0 0 -1.0273e-07 4.97964e-08 2.63366e-08 1.68652e-07 
0 0 -1.0273e-07 0 0 -1.0273e-07 -3.1151e-08 7.48591e-08 1.67608e-07 
4.56609e-08 -9.94513e-08 8.34633e-08 0 0 -1.0273e-07 0 0 -1.0273e-07 
0 0 -1.0273e-07 -8.29749e-09 4.94117e-09 -1.04713e-07 0 0 -1.0273e-07 
0 0 -1.0273e-07 0 0 -1.0273e-07 0 0 -1.0273e-07 
0 0 -1.0273e-07 0 0 -1.0273e-07 0 0 -1.0273e-07 
0 0 -1.0273e-07 0 0 -1.0273e-07 0 0 -1.0273e-07 
0 0 -1.0273e-07 0 0 -1.0273e-07 0 0 0 
0 0 0 0 0 0 0 0 0 
0 0 0 0 0 -1.0273e-07 
radius 1 59 double
0.0001 0.0001 0.0001 0.0001 0.0001 0.0001 0.0001 0.0001 0.0001 
0.0001 0.0001 0.0001 0.0001 0.0001 0.0001 0.0001 0.0001 0.0001 
0.0001 0.0001 0.0001 0.0001 0.0001 0.0001 0.0001 0.0001 0.0001 
0.0001 0.0001 0.0001 0.0001 0.0001 0.0001 0.0001 0.0001 0.0001 
0.0001 0.0001 0.0001 0.0001 0.0001 0.0001 0.0001 0.0001 0.0001 
0.0001 0.0001 0.0001 0.0001 0.0001 0.0001 0.0001 0.0001 0.0001 
0.0001 0.0001 0.0001 0.0001 0.0001 
omega 3 59 double
-43.455 -15.3748 -15.2377 -5.46016 2.85252 31.4902 14.3395 -142.69 -8.75698 
22.7697 -23.0715 1.84873 34.4176 21.3443 32.0056 -0.760807 -19.2998 1.91074 
87.0785 28.278 -23.3714 27.7193 -12.0175 -156.608 21.1771 56.9191 33.7271 
21.1701 17.4586 -44.0798 -17.6913 90.1206 -18.0955 -32.3819 -23.0846 -68.0346 
-22.7582 49.115 -31.1354 22.5877 16.9993 -47.7314 -44.9437 26.5859 -0.0663963 
-119.204 49.4122 -47.1147 1.94001 2.13557 125.759 -23.3515 1.97231 19.4481 
60.2805 -101.811 -106.762 50.0677 -25.3606 87.0944 14.8945 -30.6511 -80.168 
-4.22628 117.664 40.4282 36.539 -24.4991 38.4861 -16.4774 -8.40591 2.96038 
1.0932 -2.01242 -60.7523 -151.793 97.8971 -75.1589 -5.23571 -63.4401 48.8631 
-24.4591 -53.627 12.2804 18.9406 69.7649 -37.2085 -90.5047 23.1895 45.4572 
10.3726 18.8373 -196.714 131.932 63.923 122.241 73.3594 36.4186 -22.5258 
-97.0845 -41.3484 49.8938 -71.6598 197.303 121.122 -36.8446 -16.4326 18.2781 
154.624 89.9457 32.5634 -343.54 97.1696 -153.149 -193.143 434.303 -105.968 
-116.1 309.274 157.626 597.672 -264.852 -102.457 -0.549591 -298.816 85.72 
387.351 308.282 -216.696 -221.006 -727.163 133.378 -110.292 -124.472 -34.4709 
0 0 0 0 0 0 0 0 0 
0 0 0 0 0 0 0 0 0 
0 0 0 0 0 0 0 0 0 
0 0 0 0 0 0 0 0 0 
0 0 0 0 0 0 
