# vtk DataFile Version 4.0
Generated by LIGGGHTS
ASCII
DATASET POLYDATA
POINTS 1400 float
-4336.82 -4886.74 498.596 -3769.53 -4064.09 498.762 -3313.45 -4954.74 498.696 
-2653.81 -4203.76 499.661 -1605.61 -4279.59 498.62 -364.519 -4453.34 496.168 
632.936 -4519.73 498.882 1613.89 -4726.23 498.74 2612.4 -4772.16 497.808 
3668.35 -4755.04 496.545 4666.56 -4819.17 497.978 -4774.98 -3981.21 498.356 
-4206.54 -3159.72 498.582 -3210.13 -3236.17 497.576 -2213.19 -3306.59 498.279 
-888.259 -3567.23 498.632 165.964 -3606.32 498.658 1164.22 -3673.04 498.626 
2147.42 -3882.41 499.226 3146.84 -3903.69 497.885 3700.53 -3071.88 498.555 
4227.08 -3921.37 497.246 4777.38 -3087.31 498.413 -4619.29 -2192.86 499.266 
-3624.94 -2287.11 498.907 -2628.22 -2356.57 499.128 -1408.46 -2713.37 497.611 
-409.733 -2658.54 499.699 387.503 -2054.37 496.924 1352.92 -2317.79 498.733 
2175.95 -2884.07 498.559 4386.37 -2099.29 497.871 -4686.23 -1117.76 498.476 
-3388.83 -1194.77 498.001 -2389.94 -1176.54 497.363 -1540.95 -1715.65 499.663 
-506.62 -1608.6 498.08 1106.02 -1349.64 497.94 2181.52 -1759.65 498.32 
3417.44 -1854.91 497.395 -4402.34 -159.213 497.878 -3385.26 -191.823 496.771 
-2392.74 -54.4123 499.699 -1529.34 -559.521 496.815 216.482 -887.648 497.784 
1939.58 -789.963 498.832 2920.11 -986.286 498.783 2597.31 -38.2474 498.208 
3598.05 -78.4105 497.691 4070.21 -984.586 498.624 4598.75 -134.268 498 
-4866.5 725.647 498.956 -3866.69 683.989 499.144 -2876.62 820.91 496.694 
-1509.25 438.486 496.954 -551.871 141.926 498.826 511.876 66.9945 499.132 
1624.95 192.126 497.683 3132.25 805.799 498.696 4134.61 764.775 498.638 
-4489.29 1650.38 497.828 -3490.64 1609.38 498.781 -2518.77 1656.67 907.012 
-1636.42 1428.95 497.978 -562.56 1140.98 498.86 5.11962 1963.33 498.443 
440.129 1063.55 499.153 1497.16 1183.4 497.717 2488.78 1591.29 498.764 
3476.91 1743.34 498.442 4512.06 1690.79 497.507 -4953.38 2535.61 497.764 
-3954.88 2494.45 498.607 -2956.46 2453.61 497.294 -1958.61 2373.93 497.029 
-976.902 2179.9 499.058 -291.074 2917.64 498.356 689.246 2691.1 498.166 
1694.72 2198.7 499.595 2953.81 2602.73 498.402 4034.73 2573.1 498.442 
-4417.84 3380.07 498.605 -3419.56 3338.37 498.389 -2363.35 3286.96 497.83 
-1283.73 3131.37 499.683 -605.847 3866.45 498.843 438.331 3658.48 498.9 
1555.74 3188.8 498.256 2580.5 3529.43 499.008 3586.01 3482.57 498.07 
4584.6 3423.27 497.38 -4880.02 4266.95 498.858 -3881.81 4223.55 498.814 
-2190 4909.85 499.555 -2850.09 4159.48 498.206 -1685.63 4046.75 499.066 
-1006.27 4782.1 497.262 57.2409 4620.35 498.218 1042.4 4454.78 497.779 
2042.3 4371.1 498.515 3123.6 4368.89 499.435 4122.43 4330.68 499.609 
-4296.29 -4305.56 1312.49 -3289.84 -4381.24 1315.58 -2339.91 -4419.42 1620.76 
-1531.09 -4894.61 1281.95 -851.812 -4147.26 1310.54 143.873 -4228.94 1323.06 
1309.95 -4233.13 1312.75 2350.65 -4350.21 1363.96 3684.47 -4162.03 1299.29 
4707.16 -4240.94 1311.52 -4741.41 -3405.25 1314.56 -3728.64 -3483.64 1315.32 
-2731.5 -3553.37 1314.72 -1741.41 -3688.76 1292.65 -349.282 -3281.26 1290.59 
726.277 -3542.86 1752.38 1670.28 -3281.92 1265.96 2659.39 -3411.77 1216.46 
3415.24 -3153.63 1814.65 4260.57 -3346.03 1313.26 -4167.19 -2586.36 1314.82 
-3156.62 -2649.79 1302.84 -2072.76 -2679.27 1264.01 -1233.11 -2949.85 1732.65 
-969.922 -2151.75 1195 -5.69711 -2345.61 1365.69 712.318 -2918.34 973.404 
1910.07 -2248.16 1325.92 1164 -2651.79 1852.61 2858.22 -2443.07 1078 
3840.34 -2441.29 1259.54 4837.59 -2491.99 1297.94 -4064.05 -1617.5 1099.06 
-4699.87 -1798.5 1847.44 -3420.93 -1146.89 1927.63 -2883.51 -1693.51 1202.1 
-1772.82 -1126.83 1279.16 -1690.93 -1939.59 1851.57 -906.075 -1315.94 1736.11 
885.964 -1845.42 1335.71 19.2189 -1348.15 1360.91 1701.2 -1267.86 1343.47 
2674.55 -1493.11 1324.38 3664.1 -1362.49 1328.71 4651.56 -1423.28 1183.9 
-4910.42 -529.905 1273.88 -3907.33 -638.735 1219.46 -2897.87 -694.271 1208.79 
-2241.56 -99.72 1667.8 -1301.73 -64.3885 1333.1 -661.884 -736.462 960.378 
818.163 -985.515 1838.03 206.554 -366.113 1349 1141.07 -503.165 1025.52 
1193.52 -38.1481 1906.89 2046.45 -195.691 1317.33 3083.49 -400.239 1290.89 
4082.56 -394.328 1311.89 -4204.08 305.317 1360.14 -3089.42 295.031 1316.5 
-2153.99 768.862 1183.3 -1181.51 983.273 1266.62 -342.59 464.438 1420.85 
1028.42 619.607 1174.39 2267.25 760.739 1008.51 2757.14 399.855 1801.34 
3621.98 497.329 1312.63 4627.42 443.124 1312.13 -4006.72 1282.74 1290.52 
-3068.99 1243.92 1629 -1678.14 1951.97 1357.79 -12.0718 1401.95 1323.54 
889.062 1827.8 960.879 1758.68 1529.05 1396.89 3004.19 1357.44 1321.96 
4000.81 1421.58 1311.65 4998.67 1370.66 1308.71 -4469.51 2224.37 1314.75 
-3471.13 2183.06 1315.9 -2566.53 2208.25 1737.71 -1862.52 2959.55 1296.85 
-437.075 2308.78 1329.58 441.635 2173.85 1785.19 1184.66 2693.1 1364.9 
2481.76 2207.94 1284.79 3476.33 2331.41 1304.73 4531.16 2268.68 1310.81 
-4395.15 3955.07 1315.55 -4931.09 3110.77 1313 -3930.65 3070.27 1314.02 
-3381.23 3919.97 1309.57 -2904.06 3042.87 1300.93 -2280.28 3893.09 1288.18 
-715.216 3283.67 1324.88 259.762 3066.71 1317.9 734.42 3746.35 1874.7 
1460.3 3888.87 1205.08 2085.32 3123 1341.53 3075.37 3245.6 1321.95 
4070.6 3155.3 1308.57 -4855.7 4848.33 1310.78 -3857.37 4797.3 1315.66 
-2794.39 4750.5 1300.57 -1110.13 4200.16 1301.07 -437.927 4943.07 1303.84 
-30.4084 4030.38 1298.37 628.484 4883.14 1299.35 1808.03 4811.66 1363.04 
2581.73 4123.37 1302.56 3146.18 4967.47 1299.89 3613.28 4083.16 1383.84 
4606.49 4000.21 1313.66 4147.12 4922.91 1309.77 -4822.71 -4577.19 2127.25 
-4309.99 -4323.65 2948.47 -3824.87 -4628.18 2131.32 -3037.29 -4018.45 2211.29 
-2270 -4497.54 2636.19 -1463.88 -4295.89 2083.58 -873.095 -4284.04 2907.4 
-261.343 -4566.38 2170.75 731.878 -4503.6 2081.14 1759.68 -4563.98 2141.47 
2528.72 -4526.85 2844.19 3043.85 -4179.96 2063.46 3552.02 -4608.88 2891.01 
4165.65 -4484.04 2112.62 4631.32 -4793.83 2937.49 -4277.4 -3737.74 2134.8 
-3395.41 -3086.13 2169.81 -2298.33 -3216.41 2147.93 -1594.94 -3592.32 2777.94 
-670.221 -3654.9 2159.98 312.462 -3780.77 2631.24 1306.04 -3765.18 2533.98 
2174.87 -3652.34 2056.1 2927.93 -3383.36 2655.3 3891.11 -3631.32 2550.86 
4859.54 -3825.36 2702.55 4709.23 -3013.03 2140.97 -4337.31 -2751.99 2284.14 
-3611.51 -2121.86 2017.23 -3560.16 -2481.83 2948.75 -2611.51 -2273.01 2048.86 
-1631.95 -2613.79 2583.5 -708.642 -2910.24 2825.18 -627.138 -2190.19 2133.3 
834.15 -2913.59 2756.71 34.0394 -2946.68 2159.63 414.517 -2007.28 2206.97 
1787.9 -2537.64 2623.56 2527.51 -2721.48 1977.65 2946.19 -2398.97 2824.99 
3246.09 -2027.37 1947.11 3872.74 -2633.66 2534.33 4931.25 -2223.81 2712.23 
-4185.49 -1656.01 2690.9 -3051.02 -1657.53 2702.45 -2436.14 -1291.42 2005.37 
-1951.9 -1688.18 2783.78 -1045.63 -1269.8 2724.87 -120.685 -1172.42 2333.7 
749.864 -1156.39 2818.85 1375.46 -1732.4 2199.38 2368.07 -1722.93 2314.54 
3232.03 -1210.06 2521.68 4912.38 -1226.53 2668.67 4319.32 -1936.94 1975.46 
4008.91 -1714.11 2898.44 -4373.42 -865.633 2072.21 -4336.21 -28.5908 2690.92 
-3591.42 -169.624 2041.54 -3703.34 -789.833 2815.2 -2735.66 -460.265 2470.25 
-1535.3 -642.708 2119.23 -1006.78 -203.47 2843.61 -586.944 -375.312 1954.76 
327.52 -276.903 2342.65 1594.48 -785.53 2433.89 2494.58 -782.137 2001.17 
3410.69 -272.154 2224.53 4116.66 -971.003 2125.26 4829.28 -276.515 2203.37 
-4785.33 640.134 2100.35 -3800.34 802.015 2146.84 -2783.57 510.791 2242.97 
-1897.84 175.711 2563.88 -1056.02 490.738 2126.17 -238.885 541.971 2697.41 
455.874 654.566 1990.6 1358.41 359.331 2807.12 1831.25 726.981 1988.5 
2259.76 3.14102 2570.46 2190.59 946.169 2895.33 3094.88 525.631 2736.71 
4122.17 427.485 2172.73 -4463.61 1622.12 2112.42 -3507.34 1876.5 2266.63 
-2625.47 1464.48 2495.22 -1798.4 1153.15 2032.84 -1183.86 1199.99 2819.21 
-939.39 1657.84 1961.14 -26.5424 1469.97 2319.23 650.344 1053.15 2923.14 
1052.93 1448.5 2098.9 1595.54 1752.29 2881.71 2440.74 1536.11 2127.97 
3521.2 1226.16 2166.04 4513.61 1346.4 2181.18 -4140.09 2518.36 2698.5 
-4960.08 2531.77 2128.19 -3410.16 2929.71 2154.35 -2785 2417.93 2741.7 
-1159.85 2633.55 1938.26 -1841.03 2077.14 2410.8 -1600.98 2982.87 2763.6 
-599.819 2196.43 2728.87 -248.558 2970.64 2173.1 926.527 2870.51 2313.33 
641.664 2042.61 2792.44 1778.55 2281.4 2054.38 2646.34 2774.91 2089.89 
3120.61 2077.61 2622.94 3991.15 2195.36 2147.76 4125.58 2776.66 2946.42 
-4420.91 3372.69 2130.06 -4921.69 3998.02 2769.14 -3838.95 3912.02 2734.5 
-2981.21 3887.19 2224.03 -2372.94 3100.04 2143.08 -1524.65 3599.31 1981.44 
-586.781 3909.94 2117.64 192.786 3729.3 2713 1853.4 3124.9 2585.4 
1956.7 3973.27 2068.06 1183.98 3844.95 2762.1 2982.5 3906.48 2191.67 
2948.36 3204.93 2939.19 3583.53 3108.07 2176.66 3905.62 3916.03 2668.63 
4579.6 3418.63 2126.56 -4369.1 4531.88 2131.22 -2965.83 4884.42 2275.13 
-2060.09 4598.17 1961.82 -1533.54 4205.17 2772.81 -1034.59 4803.05 2093.13 
-468.222 4568.81 2879.41 187.121 4542.54 2127.74 1183.8 4605.95 2114.52 
1881.67 4713.24 2820.55 2523.5 4796.42 2060.66 2959.95 4576.05 2932.88 
3578.89 4710.03 2160.69 4600.52 4606.94 2139.77 -4922 -4390.31 3733.93 
-3034.31 -4467.89 3277.89 -2153.05 -4234.82 3686.64 -1579.51 -4909.74 3229.27 
-701.595 -4920.17 3704.12 46.8706 -4609.22 3120.46 697.295 -4644.68 3877.98 
1137.05 -4641.02 2982.19 1909.5 -4674.15 3613.4 4189.77 -4035.33 3413.31 
-4459.35 -3242.28 3143.97 -3963.39 -3996.9 3827.41 -3567.02 -3656.31 2975.15 
-3137.71 -3066.34 3656.81 -2569.46 -3623.44 3017.5 -1232.31 -3776.4 3689.7 
-267.425 -3696.17 3440.93 893.056 -3736.73 3443.96 2099.79 -3672.44 3132.15 
2660.61 -3090.25 3718.82 3059.74 -3975.71 3486.26 3589.86 -3124.64 3357.43 
4570.57 -3012.83 3207.26 -4397.58 -2269.19 3451.69 -2548.53 -2626.16 2980.72 
-1753.4 -2941.52 3517.58 -1109.4 -2108.36 3267.35 -803.531 -2882.8 3818.34 
106.922 -2770.49 3424.79 793.125 -2051.71 3260.83 1509.4 -2950.67 3489.71 
2207.39 -2234.94 3477.29 3770.82 -2214.85 3730.14 -3626.43 -1505.59 3504.34 
-2571.48 -1821.8 3571.88 -1671.98 -1406.16 3700.4 -164.426 -1900.36 3016.13 
-664.279 -1321.81 3692.07 373.473 -1273.52 3735.61 1632.74 -1494.77 3135.91 
[...]
POINT_DATA 1400
FIELD FieldData 7
id 1 1400 int
72 12 38 94 7 11 80 109 30 
100 48 107 102 124 89 79 97 81 
90 82 51 91 49 36 60 78 18 
16 28 26 31 14 27 98 15 45 
104 96 22 87 54 37 59 19 1 
2 4 108 43 29 84 33 92 21 
88 42 55 66 46 77 73 20 69 
110 131 13 40 53 23 35 105 52 
8 119 61 25 34 58 6 85 47 
63 57 32 75 65 93 39 83 67 
41 10 9 17 113 3 56 50 24 
166 44 5 164 139 185 103 194 95 
125 135 86 150 137 223 193 133 149 
202 161 99 274 147 168 128 163 132 
157 179 148 155 186 145 278 281 101 
156 181 141 134 212 187 225 165 136 
195 170 62 159 123 142 224 70 121 
172 152 115 197 130 140 160 171 126 
209 153 217 177 112 316 158 118 127 
207 169 154 111 191 143 114 151 129 
175 198 76 167 189 200 116 192 214 
219 196 210 221 146 182 144 74 216 
64 117 68 228 206 138 120 71 122 
183 162 201 178 180 208 215 106 248 
427 242 276 232 273 378 262 289 337 
293 258 386 266 406 239 322 229 307 
275 312 309 245 292 320 327 330 350 
299 412 259 240 301 254 329 190 227 
317 267 356 282 304 305 368 285 268 
314 310 233 354 264 296 375 315 256 
376 204 298 211 323 231 252 283 213 
257 370 324 374 270 297 243 265 234 
253 235 308 271 381 288 302 380 365 
263 230 261 269 218 357 236 255 367 
244 321 250 174 226 294 173 246 355 
279 272 331 290 260 333 372 251 205 
295 222 379 277 352 349 326 237 184 
280 311 332 238 306 247 377 241 335 
334 176 300 249 286 199 363 188 319 
318 203 360 291 220 457 396 397 366 
408 328 417 369 418 402 419 456 437 
422 340 477 423 500 338 494 450 475 
436 488 343 444 345 439 441 429 390 
503 474 428 413 447 336 409 476 443 
467 432 508 445 348 459 416 391 405 
385 325 347 424 341 388 415 344 481 
451 382 400 303 339 435 362 426 440 
364 389 504 287 358 313 498 392 438 
433 425 442 469 403 284 414 399 463 
398 411 353 401 387 478 346 410 361 
393 502 452 509 394 373 404 395 384 
420 454 351 421 448 434 430 342 505 
468 371 359 383 446 473 431 449 610 
520 560 528 499 589 548 485 555 546 
562 529 598 541 532 479 566 583 501 
516 507 558 530 482 613 658 547 524 
491 614 483 618 466 565 616 471 554 
579 556 571 577 487 620 493 537 511 
495 513 553 551 574 522 563 535 518 
552 533 407 526 640 573 496 557 461 
521 489 621 455 593 512 612 490 617 
531 464 543 462 492 525 536 484 564 
465 581 568 586 519 460 602 470 559 
545 534 453 538 514 599 550 609 458 
549 544 480 517 539 510 515 506 527 
486 542 608 497 605 540 523 472 569 
561 597 669 641 572 728 713 653 601 
631 664 720 578 642 700 736 643 590 
666 672 575 694 716 587 659 677 710 
650 741 673 714 585 757 707 709 651 
680 647 652 701 726 596 781 594 638 
630 668 679 667 663 692 646 731 718 
654 693 730 688 607 629 592 682 576 
633 724 622 687 698 674 722 603 567 
656 595 635 645 634 655 678 628 619 
580 611 661 695 648 591 588 644 662 
584 649 624 717 675 729 657 615 665 
704 600 637 676 684 625 582 725 627 
626 639 708 670 702 696 660 604 706 
775 570 711 632 782 636 671 699 623 
734 606 773 780 804 747 776 889 783 
831 764 813 862 840 762 878 744 833 
828 836 752 765 834 793 816 877 733 
763 880 797 761 841 805 799 792 740 
789 860 690 823 790 811 817 772 750 
778 870 838 691 771 795 846 760 786 
835 742 779 715 768 737 802 751 721 
774 697 854 703 801 766 723 683 739 
784 807 770 681 753 759 787 819 719 
754 829 686 850 822 844 738 746 748 
812 689 788 712 755 727 685 826 791 
749 745 843 756 853 809 798 732 769 
803 814 743 837 785 825 824 808 767 
810 876 842 735 890 777 806 758 705 
818 861 899 927 863 910 895 883 932 
946 912 928 884 956 872 1004 923 888 
945 994 868 980 830 913 864 920 999 
998 935 942 953 921 852 885 869 902 
898 949 796 917 926 919 851 1011 886 
896 820 866 952 904 925 849 986 858 
996 874 944 839 894 907 845 827 918 
1009 951 1002 933 915 832 901 914 800 
892 893 873 881 897 950 857 930 848 
887 948 989 929 943 882 1008 906 922 
905 875 815 855 938 937 821 908 867 
1006 916 900 941 879 856 903 891 911 
1001 847 934 940 859 947 794 955 982 
871 924 939 936 865 1013 1113 958 1042 
1099 1104 972 960 1044 1023 973 1047 1112 
961 1108 981 1066 1079 1032 1072 1111 990 
1017 1022 1034 997 1055 965 1075 1027 1087 
1118 1058 1037 975 1068 1053 1061 1041 964 
1121 985 1012 1015 966 971 1019 1028 1120 
909 1043 983 1040 957 1067 1085 1035 1059 
992 976 979 1109 1010 1048 1030 1063 1000 
969 1049 1038 1052 1076 974 1070 1106 1026 
1051 1003 1100 1014 1050 977 1081 1005 968 
1036 978 1031 959 1029 1062 987 967 1039 
1046 1060 954 1018 1056 963 1007 1065 1021 
1110 1033 1115 988 1064 931 1105 1020 995 
962 970 1119 984 993 1094 1045 1054 1024 
1107 991 1213 1078 1173 1220 1132 1095 1196 
1165 1159 1139 1134 1101 1216 1102 1162 1167 
1160 1093 1178 1164 1145 1260 1193 1143 1207 
1096 1117 1137 1127 1203 1122 1168 1170 1128 
1082 1201 1169 1192 1185 1206 1155 1228 1176 
1083 1187 1227 1144 1152 1211 1157 1098 1172 
1025 1129 1171 1124 1140 1147 1103 1195 1222 
1071 1135 1069 1154 1130 1217 1084 1074 1158 
1221 1153 1080 1146 1226 1092 1097 1057 1136 
1131 1156 1149 1202 1090 1184 1142 1123 1163 
1016 1166 1205 1089 1150 1161 1116 1073 1138 
1125 1218 1086 1214 1191 1077 1091 1175 1180 
1148 1133 1209 1151 1114 1231 1141 1126 1088 
1198 1174 1210 1245 1256 1297 1251 1317 1277 
1323 1223 1325 1200 1319 1255 1328 1265 1318 
1329 1194 1264 1250 1294 1296 1252 1320 1279 
1304 1282 1197 1275 1238 1240 1234 1268 1270 
1230 1326 1261 1335 1208 1288 1316 1263 1215 
1324 1302 1241 1219 1181 1342 1242 1322 1225 
1257 1343 1272 1246 1394 1314 1258 1344 1179 
1254 1259 1188 1281 1190 1305 1212 1327 1183 
1287 1341 1309 1186 1244 1249 1182 1232 1332 
1243 1247 1283 1285 1278 1321 1177 1266 1204 
1312 1298 1336 1229 1286 1248 1189 1330 1280 
1340 1290 1267 1239 1237 1253 1269 1374 1236 
1271 1262 1276 1224 1333 1284 1274 1235 1273 
1331 1338 1233 1300 1199 1339 1307 1372 1390 
1367 1365 1352 1389 1368 1361 1310 1345 1346 
1384 1377 1396 1358 1364 1397 1295 1299 1337 
1383 1347 1351 1292 1391 1360 1315 1308 1366 
1395 1301 1354 1289 1373 1379 1311 1350 1303 
1357 1356 1387 1362 1399 1291 1380 1306 1363 
1376 1388 1370 1369 1398 1348 1293 1381 1334 
1349 1378 1392 1382 1385 1359 1386 1353 1371 
1400 1375 1313 1393 1355 
type 1 1400 int
1 1 1 1 1 1 1 1 1 
1 1 1 1 1 1 1 1 1 
1 1 1 1 1 1 1 1 1 
1 1 1 1 1 1 1 1 1 
1 1 1 1 1 1 1 1 1 
1 1 1 1 1 1 1 1 1 
1 1 1 1 1 1 1 1 1 
1 1 1 1 1 1 1 1 1 
1 1 1 1 1 1 1 1 1 
1 1 1 1 1 1 1 1 1 
1 1 1 1 1 1 1 1 1 
1 1 1 1 1 1 1 1 1 
1 1 1 1 1 1 1 1 1 
1 1 1 1 1 1 1 1 1 
1 1 1 1 1 1 1 1 1 
1 1 1 1 1 1 1 1 1 
1 1 1 1 1 1 1 1 1 
1 1 1 1 1 1 1 1 1 
1 1 1 1 1 1 1 1 1 
1 1 1 1 1 1 1 1 1 
1 1 1 1 1 1 1 1 1 
1 1 1 1 1 1 1 1 1 
1 1 1 1 1 1 1 1 1 
1 1 1 1 1 1 1 1 1 
1 1 1 1 1 1 1 1 1 
1 1 1 1 1 1 1 1 1 
1 1 1 1 1 1 1 1 1 
1 1 1 1 1 1 1 1 1 
1 1 1 1 1 1 1 1 1 
1 1 1 1 1 1 1 1 1 
1 1 1 1 1 1 1 1 1 
1 1 1 1 1 1 1 1 1 
1 1 1 1 1 1 1 1 1 
1 1 1 1 1 1 1 1 1 
1 1 1 1 1 1 1 1 1 
1 1 1 1 1 1 1 1 1 
1 1 1 1 1 1 1 1 1 
1 1 1 1 1 1 1 1 1 
1 1 1 1 1 1 1 1 1 
1 1 1 1 1 1 1 1 1 
1 1 1 1 1 1 1 1 1 
1 1 1 1 1 1 1 1 1 
1 1 1 1 1 1 1 1 1 
1 1 1 1 1 1 1 1 1 
1 1 1 1 1 1 1 1 1 
1 1 1 1 1 1 1 1 1 
1 1 1 1 1 1 1 1 1 
1 1 1 1 1 1 1 1 1 
1 1 1 1 1 1 1 1 1 
1 1 1 1 1 1 1 1 1 
1 1 1 1 1 1 1 1 1 
1 1 1 1 1 1 1 1 1 
1 1 1 1 1 1 1 1 1 
1 1 1 1 1 1 1 1 1 
1 1 1 1 1 1 1 1 1 
1 1 1 1 1 1 1 1 1 
1 1 1 1 1 1 1 1 1 
1 1 1 1 1 1 1 1 1 
1 1 1 1 1 1 1 1 1 
1 1 1 1 1 1 1 1 1 
1 1 1 1 1 1 1 1 1 
1 1 1 1 1 1 1 1 1 
1 1 1 1 1 1 1 1 1 
1 1 1 1 1 1 1 1 1 
1 1 1 1 1 1 1 1 1 
1 1 1 1 1 1 1 1 1 
1 1 1 1 1 1 1 1 1 
1 1 1 1 1 1 1 1 1 
1 1 1 1 1 1 1 1 1 
1 1 1 1 1 1 1 1 1 
1 1 1 1 1 1 1 1 1 
1 1 1 1 1 1 1 1 1 
1 1 1 1 1 1 1 1 1 
1 1 1 1 1 1 1 1 1 
1 1 1 1 1 1 1 1 1 
1 1 1 1 1 1 1 1 1 
1 1 1 1 1 1 1 1 1 
1 1 1 1 1 1 1 1 1 
1 1 1 1 1 1 1 1 1 
1 1 1 1 1 1 1 1 1 
1 1 1 1 1 1 1 1 1 
1 1 1 1 1 1 1 1 1 
1 1 1 1 1 1 1 1 1 
1 1 1 1 1 1 1 1 1 
1 1 1 1 1 1 1 1 1 
1 1 1 1 1 1 1 1 1 
1 1 1 1 1 1 1 1 1 
1 1 1 1 1 1 1 1 1 
1 1 1 1 1 1 1 1 1 
1 1 1 1 1 1 1 1 1 
1 1 1 1 1 1 1 1 1 
1 1 1 1 1 1 1 1 1 
1 1 1 1 1 1 1 1 1 
1 1 1 1 1 1 1 1 1 
1 1 1 1 1 1 1 1 1 
1 1 1 1 1 1 1 1 1 
1 1 1 1 1 1 1 1 1 
1 1 1 1 1 1 1 1 1 
1 1 1 1 1 1 1 1 1 
1 1 1 1 1 1 1 1 1 
1 1 1 1 1 1 1 1 1 
1 1 1 1 1 1 1 1 1 
1 1 1 1 1 1 1 1 1 
1 1 1 1 1 1 1 1 1 
1 1 1 1 1 1 1 1 1 
1 1 1 1 1 1 1 1 1 
1 1 1 1 1 1 1 1 1 
1 1 1 1 1 1 1 1 1 
1 1 1 1 1 1 1 1 1 
1 1 1 1 1 1 1 1 1 
1 1 1 1 1 1 1 1 1 
1 1 1 1 1 1 1 1 1 
1 1 1 1 1 1 1 1 1 
1 1 1 1 1 1 1 1 1 
1 1 1 1 1 1 1 1 1 
1 1 1 1 1 1 1 1 1 
1 1 1 1 1 1 1 1 1 
1 1 1 1 1 1 1 1 1 
1 1 1 1 1 1 1 1 1 
1 1 1 1 1 1 1 1 1 
1 1 1 1 1 1 1 1 1 
1 1 1 1 1 1 1 1 1 
1 1 1 1 1 1 1 1 1 
1 1 1 1 1 1 1 1 1 
1 1 1 1 1 1 1 1 1 
1 1 1 1 1 1 1 1 1 
1 1 1 1 1 1 1 1 1 
1 1 1 1 1 1 1 1 1 
1 1 1 1 1 1 1 1 1 
1 1 1 1 1 1 1 1 1 
1 1 1 1 1 1 1 1 1 
1 1 1 1 1 1 1 1 1 
1 1 1 1 1 1 1 1 1 
1 1 1 1 1 1 1 1 1 
1 1 1 1 1 1 1 1 1 
1 1 1 1 1 1 1 1 1 
1 1 1 1 1 1 1 1 1 
1 1 1 1 1 1 1 1 1 
1 1 1 1 1 1 1 1 1 
1 1 1 1 1 1 1 1 1 
1 1 1 1 1 1 1 1 1 
1 1 1 1 1 1 1 1 1 
1 1 1 1 1 1 1 1 1 
1 1 1 1 1 1 1 1 1 
1 1 1 1 1 1 1 1 1 
1 1 1 1 1 1 1 1 1 
1 1 1 1 1 1 1 1 1 
1 1 1 1 1 1 1 1 1 
1 1 1 1 1 1 1 1 1 
1 1 1 1 1 1 1 1 1 
1 1 1 1 1 1 1 1 1 
1 1 1 1 1 1 1 1 1 
1 1 1 1 1 1 1 1 1 
1 1 1 1 1 1 1 1 1 
1 1 1 1 1 1 1 1 1 
1 1 1 1 1 
i 3 1400 int
0 1 0 0 0 0 1 1 0 
0 1 0 0 0 0 0 0 0 
0 1 0 0 0 0 0 1 0 
0 0 0 -1 0 0 0 0 0 
0 0 0 0 0 0 0 0 0 
0 0 0 0 0 0 0 1 0 
0 0 0 0 0 0 0 0 0 
0 0 0 -1 0 0 1 1 0 
0 0 0 0 0 0 0 0 0 
0 0 0 0 0 0 0 0 0 
0 0 0 0 0 0 0 0 0 
0 0 0 0 0 0 0 0 0 
0 0 0 0 0 0 0 0 0 
-1 0 0 0 0 0 0 0 0 
0 0 0 0 0 0 0 0 0 
0 0 0 0 0 0 0 0 0 
0 0 0 0 0 0 0 0 0 
0 0 0 0 0 0 0 0 0 
0 0 0 0 0 0 0 0 0 
0 0 0 0 0 0 0 0 0 
0 -1 0 1 -1 0 0 0 0 
0 0 0 0 0 0 0 0 0 
0 0 0 0 0 0 0 0 0 
0 0 0 -1 0 0 0 0 0 
0 0 0 0 0 0 0 0 0 
0 0 0 0 0 0 0 0 0 
0 0 0 0 0 0 0 0 0 
1 -1 0 0 0 0 0 0 0 
0 0 0 0 -1 0 0 0 0 
0 0 0 0 0 0 0 0 0 
0 0 0 1 0 0 0 0 0 
0 -1 0 0 -1 0 0 -1 0 
0 -1 0 0 -1 0 0 -1 0 
0 0 0 0 0 0 0 0 0 
1 0 0 0 1 0 0 0 0 
0 0 0 0 0 0 0 0 0 
0 0 0 0 1 0 0 0 0 
0 1 0 1 0 0 0 1 0 
0 0 0 0 0 0 0 0 0 
0 0 0 0 0 0 -1 1 0 
0 0 0 0 1 0 0 0 0 
0 0 0 0 0 0 0 1 0 
0 0 0 0 0 0 0 0 0 
0 0 0 0 0 0 0 0 0 
0 0 0 -1 0 0 0 0 0 
0 0 0 0 0 0 0 1 0 
0 0 0 0 0 0 0 0 0 
0 0 0 0 0 0 0 0 0 
0 0 0 -1 0 0 -1 0 0 
1 0 0 1 0 0 0 0 0 
0 0 0 0 0 0 0 0 0 
0 0 0 0 0 0 0 0 0 
0 0 0 0 0 0 -1 0 0 
0 0 0 0 0 0 0 0 0 
0 0 0 0 0 0 0 0 0 
0 0 0 -1 0 0 0 0 0 
0 0 0 0 0 0 0 0 0 
0 0 0 0 0 0 0 0 0 
-1 0 0 0 0 0 0 0 0 
0 0 0 -1 0 0 1 0 0 
0 0 0 0 0 0 0 0 0 
0 0 0 0 0 0 0 0 0 
0 0 0 0 0 0 -1 0 0 
0 0 0 0 0 0 0 -1 0 
0 0 0 0 -1 0 0 0 0 
0 0 0 0 -1 0 0 0 0 
0 0 0 0 0 0 0 0 0 
0 0 0 1 -1 0 0 0 0 
0 0 0 0 0 0 0 0 0 
0 0 0 0 -1 0 0 0 0 
0 0 0 0 0 0 -1 0 0 
0 0 0 -1 0 0 1 0 0 
0 1 0 0 0 0 0 0 0 
0 1 0 0 0 0 0 0 0 
0 0 0 0 0 0 0 0 0 
0 0 0 0 0 0 0 0 0 
0 0 0 0 1 0 0 0 0 
0 1 0 0 0 0 0 0 0 
0 0 0 0 1 0 0 0 0 
0 0 0 0 0 0 0 0 0 
0 0 0 0 0 0 0 0 0 
0 0 0 0 0 0 0 0 0 
0 0 0 0 0 0 0 0 0 
0 0 0 0 0 0 0 0 0 
0 0 0 0 0 0 0 0 0 
0 0 0 -1 0 0 0 0 0 
0 0 0 0 0 0 0 0 0 
0 0 0 0 0 0 0 0 0 
0 0 0 0 0 0 0 0 0 
-1 0 0 -1 0 0 0 0 0 
0 0 0 1 0 0 0 0 0 
1 0 0 0 0 0 1 0 0 
0 0 0 0 0 0 0 0 0 
0 0 0 0 0 0 0 0 0 
0 0 0 0 0 0 0 0 0 
1 0 0 1 0 0 0 0 0 
0 0 0 0 0 0 0 0 0 
0 0 0 0 0 0 0 0 0 
0 0 0 0 0 0 0 0 0 
0 0 0 0 0 0 0 0 0 
1 0 0 0 0 0 0 0 0 
0 0 0 0 0 0 0 0 0 
0 0 0 0 0 0 0 0 0 
0 0 0 0 0 0 0 0 0 
1 0 0 0 0 0 0 0 0 
0 0 0 0 0 0 0 -1 0 
0 0 0 0 0 0 0 0 0 
0 0 0 0 0 0 0 0 0 
0 0 0 -1 0 0 -1 0 0 
0 0 0 1 0 0 0 0 0 
0 0 0 0 0 0 0 0 0 
0 0 0 0 0 0 0 0 0 
0 0 0 0 0 0 0 0 0 
0 0 0 0 0 0 0 0 0 
0 0 0 0 -1 0 0 0 0 
0 0 0 0 0 0 0 -1 0 
0 0 0 0 0 0 0 -1 0 
0 0 0 0 -1 0 0 0 0 
0 0 0 -1 -1 0 1 0 0 
0 0 0 0 0 0 0 0 0 
0 1 0 0 1 0 0 0 0 
0 1 0 0 0 0 -1 1 0 
0 0 0 0 0 0 0 0 0 
0 0 0 0 0 0 0 0 0 
0 0 0 0 0 0 0 0 0 
0 0 0 0 0 0 0 0 0 
0 0 0 0 0 0 0 0 0 
0 1 0 0 0 0 0 0 0 
0 0 0 0 0 0 0 0 0 
0 0 0 0 0 0 0 0 0 
0 0 0 0 0 0 0 0 0 
0 0 0 0 0 0 0 0 0 
0 0 0 0 0 0 0 0 0 
-1 0 0 0 0 0 0 0 0 
0 0 0 0 0 0 0 0 0 
0 0 0 0 0 0 0 0 0 
0 0 0 0 0 0 0 0 0 
0 0 0 0 0 0 -1 0 0 
0 0 0 0 0 0 0 0 0 
0 0 0 0 0 0 0 0 0 
0 0 0 0 0 0 0 0 0 
0 0 0 -1 0 0 0 0 0 
-1 0 0 0 0 0 0 0 0 
0 0 0 1 0 0 0 0 0 
0 0 0 0 0 0 0 0 0 
0 0 0 0 0 0 0 0 0 
0 0 0 0 0 0 0 0 0 
0 0 0 0 0 0 0 0 0 
0 0 0 0 0 0 0 0 0 
0 0 0 0 0 0 0 0 0 
-1 0 0 0 0 0 1 0 0 
0 0 0 0 -1 0 0 0 0 
0 0 0 0 0 0 0 -1 0 
0 0 0 0 0 0 0 0 0 
0 0 0 0 0 0 0 0 0 
1 0 0 1 -1 0 0 0 0 
0 0 0 0 -1 0 0 0 0 
0 0 0 0 0 0 0 0 0 
0 -1 0 0 -1 0 0 0 0 
0 0 0 0 0 0 0 0 0 
0 1 0 0 0 0 0 0 0 
0 0 0 0 0 0 0 0 0 
0 1 0 0 0 0 0 0 0 
0 0 0 0 0 0 0 0 0 
0 0 0 0 0 0 0 0 0 
0 0 0 0 1 0 0 0 0 
0 0 0 0 0 0 0 0 0 
0 0 0 1 0 0 0 0 0 
0 0 0 0 0 0 0 0 0 
0 0 0 0 0 0 0 0 0 
0 0 0 0 0 0 0 0 0 
0 0 0 -1 0 0 0 0 0 
0 0 0 0 0 0 0 0 0 
0 0 0 0 0 0 0 0 0 
0 0 0 0 0 0 0 0 0 
-1 0 0 0 0 0 0 0 0 
0 0 0 0 0 0 0 0 0 
0 0 0 0 0 0 0 0 0 
0 0 0 0 0 0 0 0 0 
0 0 0 0 0 0 0 0 0 
0 0 0 0 0 0 0 0 0 
0 0 0 0 0 0 0 0 0 
-1 0 0 1 0 0 0 0 0 
0 0 0 0 0 0 0 0 0 
0 0 0 0 0 0 0 0 0 
0 0 0 0 0 0 0 0 0 
0 0 0 0 0 0 0 0 0 
0 0 0 0 0 0 0 0 0 
0 0 0 0 0 0 0 0 0 
0 0 0 0 0 0 0 0 0 
0 0 0 0 0 0 0 0 0 
0 0 0 0 0 0 0 0 0 
0 0 0 0 0 0 0 0 0 
0 0 0 0 0 0 0 0 0 
0 0 0 0 0 0 1 0 0 
0 0 0 0 0 0 0 0 0 
1 0 0 0 -1 0 0 -1 0 
0 0 0 0 0 0 0 0 0 
0 -1 0 0 -1 0 1 0 0 
0 0 0 0 0 0 0 0 0 
0 0 0 0 0 0 0 0 0 
0 1 0 0 0 0 0 0 0 
0 0 0 -1 0 0 0 0 0 
0 0 0 0 0 0 0 0 0 
0 1 0 0 0 0 0 0 0 
0 0 0 0 0 0 0 0 0 
0 0 0 0 0 0 0 0 0 
-1 0 0 1 0 0 0 0 0 
0 0 0 0 0 0 0 0 0 
0 0 0 0 0 0 0 0 0 
0 0 0 0 0 0 0 0 0 
0 0 0 0 0 0 1 0 0 
0 0 0 0 0 0 0 0 0 
0 0 0 0 0 0 0 0 0 
0 0 0 0 0 0 0 0 0 
0 0 0 0 0 0 -1 0 0 
0 0 0 1 0 0 1 0 0 
0 0 0 0 0 0 0 0 0 
0 0 0 0 0 0 0 0 0 
0 0 0 0 0 0 0 0 0 
0 0 0 1 0 0 0 0 0 
0 0 0 0 0 0 0 0 0 
0 0 0 0 0 0 0 0 0 
0 0 0 0 0 0 0 0 0 
0 0 0 0 0 0 0 0 0 
0 0 0 0 0 0 0 0 0 
0 0 0 0 0 0 0 0 0 
0 0 0 0 0 0 0 0 0 
0 0 0 0 0 0 0 0 0 
0 0 0 0 0 0 0 0 0 
0 0 0 0 0 0 0 0 0 
0 0 0 0 0 0 0 0 0 
-1 0 0 0 0 0 0 0 0 
0 0 0 0 0 0 0 0 0 
0 0 0 0 0 0 0 0 0 
0 0 0 0 0 0 0 -1 0 
0 0 0 1 0 0 0 0 0 
0 0 0 0 0 0 0 -1 0 
0 -1 0 0 0 0 0 0 0 
0 0 0 0 0 0 0 -1 0 
0 0 0 -1 0 0 0 0 0 
1 0 0 0 0 0 0 0 0 
0 0 0 0 0 0 0 0 0 
0 1 0 0 0 0 0 0 0 
0 0 0 0 0 0 0 0 0 
-1 1 0 1 0 0 0 0 0 
0 0 0 0 0 0 0 0 0 
0 0 0 0 0 0 0 0 0 
0 0 0 0 0 0 0 0 0 
0 0 0 0 0 0 0 0 0 
0 0 0 0 0 0 0 0 0 
0 0 0 0 0 0 0 0 0 
0 0 0 0 0 0 0 0 0 
0 0 0 -1 0 0 0 0 0 
0 0 0 0 0 0 0 0 0 
0 0 0 0 0 0 0 0 0 
0 0 0 0 0 0 0 0 0 
0 0 0 0 0 0 0 0 0 
0 0 0 0 0 0 0 0 0 
0 0 0 0 0 0 0 0 0 
0 0 0 0 0 0 0 0 0 
0 0 0 0 0 0 0 0 0 
0 0 0 0 0 0 0 0 0 
0 0 0 0 0 0 0 0 0 
0 0 0 0 0 0 0 0 0 
0 0 0 1 0 0 0 0 0 
0 0 0 0 0 0 0 0 0 
0 0 0 0 0 0 0 0 0 
0 0 0 0 0 0 0 0 0 
0 0 0 1 0 0 0 0 0 
0 0 0 0 0 0 0 0 0 
0 0 0 0 0 0 0 0 0 
0 0 0 0 0 0 0 0 0 
0 0 0 0 0 0 0 0 0 
0 0 0 0 0 0 0 0 0 
0 0 0 0 0 0 0 0 0 
0 0 0 0 0 0 -1 0 0 
0 0 0 1 0 0 0 0 0 
0 -1 0 0 0 0 0 0 0 
0 0 0 0 0 0 0 -1 0 
0 0 0 0 -1 0 0 0 0 
0 0 0 0 0 0 -1 0 0 
0 0 0 1 0 0 0 0 0 
0 0 0 0 0 0 0 1 0 
0 0 0 0 0 0 0 0 0 
0 0 0 1 0 0 0 0 0 
0 0 0 0 1 0 0 0 0 
0 0 0 0 0 0 0 0 0 
0 0 0 -1 0 0 0 0 0 
0 0 0 0 0 0 0 0 0 
0 0 0 0 0 0 0 0 0 
0 0 0 0 0 0 0 0 0 
0 0 0 0 0 0 0 0 0 
1 0 0 0 0 0 0 0 0 
0 0 0 0 0 0 0 0 0 
0 0 0 0 0 0 0 0 0 
0 0 0 0 0 0 0 0 0 
0 0 0 0 0 0 0 0 0 
0 0 0 0 0 0 0 0 0 
0 0 0 0 0 0 0 0 0 
0 0 0 0 0 0 -1 0 0 
-1 0 0 0 0 0 0 0 0 
0 0 0 0 0 0 0 0 0 
0 0 0 0 0 0 0 0 0 
0 0 0 0 0 0 0 0 0 
0 0 0 0 0 0 0 0 0 
1 0 0 0 0 0 0 0 0 
0 0 0 0 0 0 0 0 0 
0 0 0 0 0 0 0 0 0 
0 0 0 0 0 0 1 0 0 
0 0 0 0 0 0 0 0 0 
0 0 0 0 0 0 0 0 0 
0 0 0 0 0 0 0 0 0 
0 0 0 0 0 0 0 0 0 
0 0 0 0 0 0 0 0 0 
0 0 0 0 0 0 0 0 0 
0 0 0 0 0 0 0 0 0 
0 -1 0 0 0 0 0 0 0 
0 0 0 0 0 0 0 0 0 
0 0 0 0 0 0 0 0 0 
0 0 0 0 -1 0 0 0 0 
0 0 0 0 -1 0 0 0 0 
0 0 0 0 0 0 0 0 0 
0 0 0 0 0 0 0 0 0 
0 0 0 0 0 0 0 0 0 
0 1 0 0 0 0 0 0 0 
1 0 0 0 0 0 0 0 0 
0 0 0 0 0 0 0 0 0 
0 0 0 0 0 0 0 0 0 
0 0 0 0 0 0 0 0 0 
0 0 0 0 0 0 0 0 0 
0 0 0 0 0 0 0 0 0 
0 0 0 0 0 0 0 0 0 
0 0 0 0 0 0 -1 1 0 
0 0 0 0 0 0 1 0 0 
0 0 0 0 0 0 0 0 0 
0 0 0 0 0 0 0 0 0 
0 0 0 0 0 0 0 0 0 
0 0 0 0 0 0 1 0 0 
0 0 0 0 0 0 0 0 0 
0 0 0 0 0 0 0 0 0 
0 0 0 0 0 0 0 0 0 
0 0 0 0 0 0 -1 0 0 
1 0 0 0 0 0 0 0 0 
0 0 0 0 0 0 0 0 0 
0 0 0 0 0 0 0 0 0 
0 0 0 0 0 0 0 0 0 
0 0 0 0 0 0 0 0 0 
0 0 0 0 0 0 0 0 0 
0 0 0 0 0 0 0 0 0 
0 0 0 -1 0 0 0 0 0 
0 0 0 0 0 0 0 0 0 
0 0 0 0 0 0 0 0 0 
0 0 0 0 0 0 0 0 0 
0 0 0 -1 0 0 1 0 0 
0 0 0 0 -1 0 0 0 0 
0 0 0 0 0 0 0 0 0 
0 0 0 0 0 0 0 0 0 
0 0 0 0 0 0 0 -1 0 
0 -1 0 0 -1 0 0 0 0 
0 -1 0 0 0 0 0 0 0 
0 -1 0 0 0 0 0 0 0 
0 0 0 0 0 0 0 0 0 
-1 0 0 0 0 0 0 0 0 
0 1 0 0 0 0 0 0 0 
0 0 0 0 1 0 0 0 0 
0 0 0 0 0 0 0 1 0 
-1 0 0 1 0 0 0 0 0 
0 0 0 0 0 0 0 0 0 
0 0 0 0 0 0 0 0 0 
0 0 0 0 0 0 0 0 0 
0 0 0 0 0 0 0 0 0 
0 0 0 0 0 0 0 0 0 
0 0 0 0 0 0 0 0 0 
0 0 0 0 0 0 0 0 0 
0 0 0 0 0 0 0 0 0 
0 0 0 0 0 0 0 0 0 
0 0 0 0 0 0 0 0 0 
0 0 0 0 0 0 0 0 0 
0 0 0 0 0 0 1 0 0 
0 0 0 0 0 0 0 0 0 
0 0 0 0 0 0 0 0 0 
0 0 0 0 0 0 0 0 0 
0 0 0 0 0 0 0 0 0 
0 0 0 0 0 0 0 0 0 
0 0 0 0 0 0 0 0 0 
0 0 0 0 0 0 0 0 0 
-1 0 0 1 -1 0 0 0 0 
0 0 0 0 0 0 0 0 0 
0 0 0 0 0 0 0 0 0 
0 0 0 0 0 0 -1 0 0 
0 0 0 0 0 0 0 0 0 
0 0 0 0 0 0 0 0 0 
0 0 0 0 0 0 0 0 0 
0 0 0 0 0 0 0 0 0 
0 0 0 0 0 0 0 0 0 
0 0 0 0 0 0 0 0 0 
0 0 0 0 0 0 0 0 0 
-1 0 0 0 0 0 0 0 0 
0 0 0 0 -1 0 0 0 0 
0 0 0 0 0 0 0 0 0 
0 -1 0 0 0 0 0 0 0 
0 0 0 0 0 0 0 0 0 
0 0 0 0 0 0 0 0 0 
0 0 0 0 0 0 0 0 0 
0 0 0 0 0 0 0 0 0 
0 0 0 0 1 0 0 0 0 
0 0 0 0 0 0 0 0 0 
0 1 0 0 0 0 0 0 0 
0 0 0 0 1 0 0 0 0 
0 0 0 0 0 0 0 0 0 
0 0 0 0 0 0 0 0 0 
0 0 0 0 0 0 0 0 0 
0 0 0 0 0 0 0 0 0 
0 0 0 0 0 0 0 0 0 
0 0 0 0 0 0 0 0 0 
0 0 0 0 0 0 0 0 0 
0 0 0 0 0 0 0 0 0 
-1 0 0 0 0 0 0 0 0 
0 0 0 0 0 0 0 0 0 
0 0 0 0 0 0 0 0 0 
0 0 0 0 0 0 0 0 0 
0 0 0 0 0 0 0 0 0 
0 0 0 0 0 0 0 0 0 
0 0 0 0 0 0 0 0 0 
0 0 0 0 0 0 0 0 0 
0 0 0 0 0 0 0 0 0 
0 0 0 0 0 0 0 0 0 
0 0 0 0 0 0 0 0 0 
0 0 0 0 0 0 0 0 0 
0 0 0 0 0 0 0 0 0 
0 0 0 0 0 0 0 0 0 
0 0 0 0 0 0 0 0 0 
0 0 0 0 0 0 0 0 0 
0 0 0 0 0 0 0 0 0 
0 0 0 0 0 0 0 0 0 
0 0 0 0 0 0 0 0 0 
0 0 0 0 0 0 0 0 0 
0 0 0 0 0 0 0 0 0 
-1 0 0 0 0 0 0 -1 0 
0 0 0 0 -1 0 0 0 0 
0 0 0 0 0 0 0 0 0 
0 0 0 0 0 0 -1 0 0 
0 0 0 1 0 0 0 0 0 
0 0 0 0 1 0 0 0 0 
0 0 0 0 1 0 0 0 0 
0 0 0 0 0 0 0 0 0 
0 0 0 -1 0 0 0 0 0 
0 0 0 0 0 0 0 0 0 
0 0 0 0 0 0 0 0 0 
-1 0 0 0 0 0 0 0 0 
0 0 0 0 0 0 0 0 0 
-1 0 0 0 0 0 0 0 0 
0 0 0 0 0 0 0 0 0 
0 0 0 0 0 0 0 0 0 
0 0 0 0 0 0 0 0 0 
0 0 0 0 0 0 0 0 0 
0 0 0 0 0 0 0 0 0 
0 0 0 0 0 0 0 0 0 
0 0 0 0 0 0 0 0 0 
0 0 0 0 0 0 0 0 0 
0 0 0 0 0 0 0 0 0 
0 0 0 0 0 0 0 0 0 
0 0 0 0 0 0 0 0 0 
0 -1 0 0 0 0 0 0 0 
0 0 0 0 0 0 0 0 0 
0 0 0 0 0 0 
v 3 1400 double
3.66861e-06 -1.85766e-05 6.23038e-07 4.7377e-06 -1.92684e-05 1.94037e-06 3.96272e-06 -1.82342e-05 2.58101e-06 
1.16203e-05 -1.66994e-05 -3.78135e-06 8.4944e-06 -2.14224e-05 4.6337e-06 6.11796e-06 -1.7167e-05 7.96958e-07 
3.15584e-06 -1.82441e-05 8.25328e-07 1.87734e-06 -1.64221e-05 4.44662e-06 -1.45825e-06 -1.81435e-05 3.88341e-06 
-1.80287e-06 -1.92372e-05 -2.04414e-06 1.90437e-06 -1.99203e-05 -4.59147e-06 3.23372e-06 -1.93704e-05 -2.26952e-06 
5.15121e-06 -1.81058e-05 4.75918e-06 4.49083e-06 -2.506e-05 1.91267e-06 4.26596e-06 -2.2081e-05 -1.63407e-06 
1.97539e-06 -1.8192e-05 3.31731e-06 3.08657e-06 -1.84928e-05 2.62696e-06 2.55045e-06 -1.58533e-05 6.96072e-06 
-3.33999e-06 -1.42698e-05 -1.25944e-06 -2.08065e-06 -1.63774e-05 1.6631e-06 -7.19747e-07 -2.20357e-05 4.61633e-06 
1.0739e-06 -2.25563e-05 9.55089e-07 2.74368e-07 -2.48311e-05 7.19394e-06 2.87321e-07 -2.50857e-05 -1.01021e-07 
-5.38833e-08 -2.64325e-05 5.62553e-06 3.47113e-06 -2.72296e-05 2.0285e-06 -1.67353e-06 -2.3752e-05 4.09769e-06 
-1.82045e-05 -2.23473e-05 1.49483e-15 1.43191e-06 -2.26501e-05 -1.34398e-06 7.19204e-08 -1.33449e-05 1.33686e-07 
-2.21146e-06 -1.71659e-05 7.4721e-07 6.75522e-07 -2.91792e-05 3.32134e-06 2.6213e-06 -1.78491e-05 -8.03901e-06 
2.41764e-06 -2.68564e-05 -3.15892e-08 4.06035e-06 -2.59854e-05 -3.52351e-06 -4.25974e-05 -7.62246e-05 5.62218e-06 
3.07145e-07 -2.61838e-05 3.61788e-06 9.77222e-07 -1.97494e-05 1.51934e-06 3.26638e-06 -1.47629e-05 -1.64485e-06 
7.48254e-07 -2.70021e-05 2.23682e-06 6.21558e-06 -1.68019e-05 -1.22432e-06 6.06331e-06 -2.2133e-05 9.68265e-08 
-4.42935e-06 -5.69325e-06 2.10318e-15 6.16027e-06 -2.00833e-05 -1.4681e-06 3.6998e-06 -1.49132e-05 7.04255e-07 
2.82983e-06 -1.35681e-05 7.23212e-07 5.30773e-06 -1.61787e-05 -3.11478e-06 1.0279e-06 -1.10622e-05 5.53802e-06 
3.27371e-06 -1.79346e-05 -3.18062e-06 8.22269e-06 -3.29891e-05 5.70216e-06 4.82746e-06 -2.05151e-05 -1.35419e-06 