# vtk DataFile Version 4.0
Generated by LIGGGHTS
ASCII
DATASET POLYDATA
POINTS 899 float
-4336.93 -4886.37 499.214 -3769.32 -4063.99 499.474 -3313.29 -4954.56 499.255 
-2653.12 -4204.12 500.028 -1602.43 -4279.31 499.426 -362.311 -4454.83 497.639 
635.159 -4519.39 499.477 1613.66 -4726.06 499.404 2612.56 -4773.12 498.312 
3668.17 -4756.15 497.356 4666.36 -4819.63 499 -4775.22 -3981.51 498.806 
-4206.64 -3159.51 499.051 -3210.1 -3236.12 498.142 -2213.11 -3306.89 498.819 
-885.837 -3568.78 499.152 168.289 -3607.71 499.706 1165.89 -3672.41 499.206 
2147.65 -3882.49 499.408 3146.86 -3904.28 498.595 3699.84 -3072.2 498.793 
4226.59 -3921.94 498.011 4777.13 -3087.78 498.964 -4619.52 -2192.7 499.53 
-3624.98 -2287.16 499.184 -2627.89 -2357.31 499.268 -1407.5 -2716.08 498.552 
-397.804 -2675.35 499.694 387.345 -2054.46 497.77 1353.32 -2317.85 498.917 
2175.79 -2884.49 498.886 4385.9 -2099.67 498.27 -4687.29 -1117.21 497.968 
-3389.27 -1195.36 498.479 -2389.79 -1176.64 497.91 -1549.13 -1722.75 499.699 
-507.352 -1609.66 499.026 1106.21 -1349.92 498.981 2181.59 -1759.12 498.801 
3417.12 -1855.16 497.852 -4402.49 -158.866 498.284 -3385.53 -192.06 497.496 
-2393.22 -55.2889 499.696 -1528.47 -559.573 497.853 216.297 -889.02 498.82 
1939.32 -789.863 499.386 2919.44 -986.391 498.936 2597.22 -37.8278 498.729 
3598.42 -79.2152 498.053 4068.71 -983.376 499.013 4598.72 -133.698 498.245 
-4866.87 725.482 499.052 -3866.13 684.091 499.401 -2875.85 821.245 497.488 
-1508.01 438.595 497.955 -551.192 141.437 499.309 510.106 65.9387 499.885 
1624.35 191.839 498.326 3132.97 805.425 498.827 4134.34 764.714 498.829 
-4489 1650.59 498.569 -3490.18 1609.54 499.375 -2517.54 1657.33 908.204 
-1635.73 1429.17 498.582 -561.623 1140.56 499.277 5.72957 1962.8 498.986 
440.311 1062.69 499.431 1494.06 1182.96 498.141 2488.76 1589.35 498.834 
3477.85 1743.12 498.792 4512.29 1691.6 498.142 -4953.43 2535.69 498.819 
-3954.46 2494.66 499.432 -2955.86 2453.97 497.827 -1957.54 2374.51 497.76 
-976.152 2179.97 499.221 -291.165 2916.97 498.585 689.259 2691.21 498.824 
1694.64 2197.51 499.68 2953.92 2602.58 498.993 4036.09 2572.39 499.494 
-4417.62 3380.35 499.297 -3419.11 3338.76 498.919 -2362.69 3287.47 498.535 
-1285.98 3130.54 499.694 -607.493 3865.3 499.695 438.211 3658.47 499.228 
1556.17 3187.85 499.164 2578.9 3528.84 499.548 3586.03 3480.99 498.783 
4584.47 3423.17 498.249 -4879.91 4266.78 499.05 -3881.79 4223.8 499.245 
-2188.92 4910.73 499.741 -2849.14 4159.92 498.696 -1686.44 4046.58 499.549 
-1006.4 4782.2 497.853 56.3995 4619.39 499.028 1042.12 4454.93 498.702 
2039.43 4369.86 499.036 3123.2 4367.48 499.606 4122.19 4329.04 499.664 
-4296.42 -4305.48 1313.71 -3289.59 -4381.03 1317.07 -2339.4 -4418.45 1623.6 
-1530.61 -4894.63 1283.71 -851.691 -4148.73 1312.23 148.633 -4231.06 1324.64 
1313.02 -4231.57 1314.51 2347.62 -4350.2 1363.23 3683.7 -4162.96 1300.98 
4707.06 -4240.96 1313 -4741.86 -3405.97 1315.22 -3728.29 -3483.39 1316.48 
-2731.32 -3552.99 1316.2 -1740.31 -3687.56 1293.14 -348.19 -3284.4 1292.32 
729.469 -3543.39 1755.62 1670.14 -3280.09 1267.13 2659 -3412.31 1217.72 
3414.53 -3154.5 1817.1 4259.87 -3346.92 1314.09 -4168.17 -2586.66 1316.45 
-3156.39 -2649.59 1303.63 -2074.56 -2679.92 1266.41 -1235.98 -2948.47 1739.33 
-971.173 -2152.6 1197.36 -6.59751 -2347.77 1366.27 713.886 -2918.71 975.758 
1909.84 -2248.05 1326.81 1165.06 -2651.04 1856.37 2857.74 -2443.46 1079.13 
3839.87 -2442.41 1260.4 4837.24 -2492.62 1298.86 -4065.85 -1616.94 1100.31 
-4700.66 -1798.92 1849.89 -3421.56 -1147.04 1928.74 -2881.25 -1693.76 1202.19 
-1772.32 -1127.13 1280.62 -1691.46 -1939.51 1854.96 -905.491 -1316.29 1738.6 
885.951 -1845.92 1337.36 19.2876 -1349.67 1362.65 1701.04 -1268.11 1344.03 
2674.62 -1492.96 1325.38 3664.65 -1363.74 1329.76 4653.66 -1425.03 1184.46 
-4908.76 -531.407 1274.8 -3907.76 -638.255 1220.81 -2897.87 -694.581 1209.55 
-2241.1 -99.4938 1668.8 -1300.33 -63.8847 1335.07 -661.017 -737.186 961.745 
819.345 -986.001 1840.44 206.157 -367.703 1351.44 1140.77 -503.149 1026.87 
1193.91 -38.7806 1909.89 2046.85 -197.438 1317.41 3083.91 -401.372 1291.62 
4082.73 -395.517 1312.47 -4203.49 306.195 1360.38 -3089.1 295.801 1318.08 
-2152.82 769.649 1184.91 -1179.97 984.252 1267.78 -341.799 463.887 1422.22 
1027.29 618.465 1176.25 2267.42 759.237 1009.19 2757.17 397.68 1801.69 
3622.15 497.107 1313.32 4627.68 442.707 1312.75 -4006.12 1283.65 1292.37 
-3067.47 1244.43 1631.06 -1676.96 1953.26 1359.27 -9.83396 1401.25 1325.27 
887.322 1827.71 962.071 1757.13 1526.66 1397.97 3003.93 1356.73 1322.44 
4000.69 1421.78 1312.12 4998.67 1370.19 1309.36 -4469.21 2224.65 1316.14 
-3470.76 2183.19 1317.42 -2565.25 2208.86 1739.84 -1862.15 2959.88 1299.18 
-439.191 2306.2 1332.46 440.636 2174.05 1787.21 1184.3 2692.3 1366.51 
2480.29 2206.61 1284.72 3475.74 2330.51 1306.33 4531.63 2268.83 1313.04 
-4395.04 3955.71 1316.17 -4930.45 3111.67 1314.22 -3930.06 3071.22 1315.37 
-3380.64 3920.3 1310.56 -2902.95 3043.19 1301.85 -2280.34 3893.6 1289.07 
-716.449 3282.22 1325.18 258.818 3065.11 1319.23 733.882 3744 1877.39 
1459.16 3887.8 1206.62 2085.2 3122.23 1343.79 3075.39 3245.41 1324.02 
4070.55 3155.5 1310.6 -4856.95 4847.16 1312.01 -3857.4 4797.54 1316.84 
-2793.29 4751.68 1301.18 -1109.41 4199.81 1301.92 -438.654 4941.18 1305.48 
-30.3506 4028.68 1300.09 626.84 4882.99 1300.61 1805.74 4811.21 1364.35 
2580 4124.53 1302.92 3145.84 4965.1 1301 3613.87 4083.3 1387.36 
4606.8 4000.62 1314.39 4146.47 4924.52 1312.38 -4823.6 -4579.02 2129.29 
-4311.91 -4321.32 2951.31 -3826.03 -4628.28 2133.74 -3038.28 -4018.95 2214.72 
-2271 -4497.28 2640.82 -1463.24 -4296.76 2087.62 -870.338 -4284.39 2911.96 
-264.148 -4567.69 2169.81 736.42 -4504.07 2084.18 1760.72 -4564.81 2143.96 
2522.93 -4525.74 2845.03 3039.55 -4177.71 2064.16 3553.92 -4607.1 2895.86 
4165.41 -4482.82 2115.65 4625.11 -4792.78 2944.49 -4280.85 -3739.09 2136.86 
-3392.24 -3085.54 2171.84 -2306.26 -3218.24 2155.65 -1602.74 -3592.92 2781.87 
-672.011 -3655.71 2162.3 312.202 -3782.13 2631.54 1307.1 -3766.8 2539.57 
2174.19 -3654.02 2057.54 2924.63 -3381.76 2658.17 3886.49 -3632.44 2556.4 
4855.85 -3826.64 2702.47 4706.69 -3012.17 2142.81 -4338.75 -2753.54 2286.56 
-3612.34 -2122.74 2018.3 -3555.18 -2480.71 2950.7 -2612.37 -2272.94 2051.27 
-1640.07 -2613.5 2589.62 -715.558 -2909.53 2825.45 -626.522 -2191.39 2135.07 
832.041 -2916.58 2759.77 30.9207 -2946.2 2163.36 416.087 -2007.17 2205.24 
1787.89 -2541.33 2628.7 2526.17 -2721.92 1979.61 2943.22 -2397.55 2827.78 
3246.58 -2029.44 1949.42 3870.16 -2634.3 2538.16 4931.2 -2222.8 2713.63 
-4183.54 -1656.67 2692.89 -3049.2 -1652.5 2706.3 -2436.48 -1291.39 2006.34 
-1951.1 -1683.93 2787.56 -1040.24 -1265.56 2727.98 -119.602 -1173.3 2336.53 
751.238 -1157.04 2822.57 1376.89 -1732.64 2201.39 2369.39 -1722.74 2316.44 
3232.24 -1210.62 2522.22 4914.7 -1224.97 2673.79 4318.57 -1939.07 1976.63 
4010.12 -1714.71 2900.24 -4370.55 -865.814 2075.77 -4336.1 -24.9312 2692.39 
-3591.4 -169.321 2043.64 -3702.41 -789.887 2817.51 -2733.8 -460.166 2474.1 
-1535.19 -642.218 2120.58 -1010.05 -201.219 2847.07 -586.377 -375.226 1959.16 
328.596 -277.97 2346.72 1595.34 -786.005 2437.48 2494.24 -781.809 2002.53 
3412.35 -272.206 2225.65 4118.68 -972.555 2126.78 4830.63 -276.777 2203.64 
-4786.92 641.033 2099.03 -3801.41 802.558 2146.3 -2782.71 511.08 2245.72 
-1897.41 175.836 2565.6 -1054.91 491.567 2128.27 -238.974 542.826 2702.5 
456.899 652.351 1994.92 1359.29 358.043 2812.2 1832.51 725.237 1990.41 
2261.49 3.07592 2574.22 2196.79 945.934 2900.72 3096.44 526.088 2737.04 
4123.23 428.438 2173.7 -4463.35 1621.71 2114.42 -3506.35 1875.97 2269.43 
-2623.43 1464.57 2498.34 -1796.12 1154.91 2034.7 -1185.17 1198.08 2825 
-937.264 1659.82 1962.66 -25.0855 1470.04 2322.2 650.455 1051.17 2926.5 
1052.27 1448.87 2102.13 1599.74 1749.01 2883.69 2439.18 1532.75 2128.28 
3521 1228.79 2167.12 4513.37 1348.78 2182.55 -4138.17 2519.41 2700.57 
-4958.5 2533.71 2130.22 -3407.89 2929.42 2155.75 -2783.79 2417.96 2745.88 
-1161.49 2633.91 1940.52 -1840.5 2078.1 2416.17 -1600.46 2985.06 2766.94 
-598.553 2200.93 2730.44 -248.972 2967.34 2174.19 928.587 2868.53 2316.75 
645.079 2040.87 2797.95 1778.13 2279.06 2055.62 2646.9 2771.45 2091.68 
3119.41 2071.52 2623.51 3990.81 2198.82 2150.87 4132.18 2784.23 2946.82 
-4420.89 3375.72 2131.26 -3841.03 3915 2739.13 -2983.25 3888 2226.74 
-2373.67 3101.21 2145.84 -1525.03 3601.17 1984.26 -585.585 3907.75 2121.36 
195.084 3730.38 2718.28 1855.56 3122.07 2589.83 1955.27 3970.08 2070.75 
1187.03 3842.85 2766.41 2980.91 3910.2 2192.88 2943.01 3205.93 2941.68 
3582 3111.8 2179.87 3907.88 3918.31 2674.29 4579.87 3419.57 2129.16 
-4922.69 3999.74 2773.72 -4368.2 4530.81 2133.54 -2965.98 4885.33 2275.9 
-2059.54 4597.6 1963.65 -1531.34 4218.39 2767.91 -1035.39 4800.85 2096.06 
-470.523 4565.54 2884.73 186.384 4541.62 2130.16 1183.39 4603.24 2117.73 
1882.2 4708.67 2823.4 2522.34 4793.01 2061.54 2959.43 4579.13 2935.94 
3578.8 4710.81 2163.79 4596.39 4607.62 2144.99 -4924.1 -4387.24 3738.83 
-3030.06 -4472.24 3293.86 -2150.34 -4227.9 3704.45 -1581.75 -4903.42 3238.53 
-699.301 -4912.58 3705.89 50.5648 -4614.39 3117.18 693.845 -4651.36 3881.27 
1140.21 -4643.31 2987.28 1911.12 -4673.15 3621.82 4192.02 -4028.75 3421.86 
-4464.59 -3244.31 3147.85 -3966.92 -3993.12 3830.32 -3568.78 -3652.55 2978.01 
-3140.51 -3067.88 3665.93 -2570.97 -3626.29 3027.64 -1246.95 -3788.61 3695.05 
-248.996 -3724.19 3458.08 886.899 -3734.16 3447.56 2098.71 -3671.07 3141.74 
2659.2 -3092.95 3732.9 3054.52 -3977.21 3489.15 3585.49 -3125.87 3362.94 
4564.92 -3012.47 3203.55 -4396.12 -2275.19 3451.62 -2558.6 -2628.79 2982.93 
-1772 -2944.84 3523.1 -1116.7 -2109.42 3275.11 -818.743 -2893.47 3818.67 
89.0095 -2785.48 3414.08 780.357 -2054.27 3262.14 1504.96 -2950.41 3497.96 
2206.1 -2238.97 3483.31 3794.77 -2221.57 3734.44 -3626 -1507.32 3508.3 
-2568.98 -1821.47 3571.18 -1672.65 -1400.25 3706.91 -175.208 -1912.38 3006.05 
-672.107 -1318.8 3695.45 349.722 -1281.93 3729 1634.98 -1497.45 3137.55 
[...]
POINT_DATA 899
FIELD FieldData 7
id 1 899 int
72 12 38 94 7 11 80 109 30 
100 48 107 102 124 89 79 97 81 
90 82 51 91 49 36 60 78 18 
16 28 26 31 14 27 98 15 45 
104 96 22 87 54 37 59 19 1 
2 4 108 43 29 84 33 92 21 
88 42 55 66 46 77 73 20 69 
110 131 13 40 53 23 35 105 52 
8 119 61 25 34 58 6 85 47 
63 57 32 75 65 93 39 83 67 
41 10 9 17 113 3 56 50 24 
166 44 5 164 139 185 103 194 95 
125 135 86 150 137 223 193 133 149 
202 161 99 274 147 168 128 163 132 
157 179 148 155 186 145 278 281 101 
156 181 141 134 212 187 225 165 136 
195 170 62 159 123 142 224 70 121 
172 152 115 197 130 140 160 171 126 
209 153 217 177 112 316 158 118 127 
207 169 154 111 191 143 114 151 129 
175 198 76 167 189 200 116 192 214 
219 196 210 221 146 182 144 74 216 
64 117 68 228 206 138 120 71 122 
183 162 201 178 180 208 215 106 248 
427 242 276 232 273 378 262 289 337 
293 258 386 266 406 239 322 229 307 
275 312 309 245 292 320 327 330 350 
299 412 259 240 301 254 329 190 227 
317 267 356 282 304 305 368 285 268 
314 310 233 354 264 296 375 315 256 
376 204 298 211 323 231 252 283 213 
257 370 324 374 270 297 243 265 234 
253 235 308 271 381 288 302 380 365 
263 230 261 269 218 357 236 255 367 
244 321 250 174 226 294 173 246 355 
279 272 331 290 260 333 372 251 205 
295 222 379 277 349 326 237 184 280 
311 332 238 306 247 377 241 335 334 
352 176 300 249 286 199 363 188 319 
318 203 360 291 220 457 396 397 366 
408 328 417 369 418 402 419 456 437 
422 340 477 423 500 338 494 450 475 
436 488 343 444 345 439 441 429 390 
503 474 428 413 447 336 409 476 443 
467 432 508 445 348 459 416 391 405 
385 325 347 424 341 388 415 344 481 
451 382 400 303 339 435 362 426 440 
364 389 504 358 313 392 438 433 425 
442 469 403 284 414 287 399 463 398 
411 353 401 387 478 346 410 361 393 
502 452 509 394 373 404 395 384 420 
454 351 421 448 434 430 342 505 468 
371 359 383 446 473 431 449 610 520 
560 528 499 589 548 485 555 546 562 
529 598 541 532 479 566 583 501 516 
507 558 530 482 613 658 547 524 491 
483 618 466 565 616 471 554 579 556 
571 577 487 620 493 537 511 495 513 
553 551 574 522 563 535 518 552 533 
407 526 640 573 496 557 461 521 489 
621 455 593 512 612 490 597 498 531 
464 543 462 492 525 536 484 564 465 
581 568 586 519 460 602 470 559 545 
534 453 538 599 550 609 458 549 544 
480 517 539 510 515 514 506 527 486 
542 608 497 605 540 523 472 569 561 
617 669 641 572 728 713 653 601 631 
664 720 578 642 700 736 643 590 666 
672 575 694 716 587 659 677 710 650 
714 585 707 614 709 651 680 647 652 
701 726 654 596 638 630 668 679 667 
663 576 646 731 673 718 693 730 688 
594 607 629 592 682 633 724 622 698 
674 722 603 567 656 595 635 645 634 
678 628 619 624 580 611 661 695 648 
591 588 644 662 584 649 717 675 729 
657 615 665 704 600 637 676 684 625 
582 725 627 626 639 708 670 696 660 
604 706 775 570 711 632 782 636 671 
623 699 734 606 773 780 804 747 776 
783 764 813 762 744 836 752 765 793 
816 763 741 757 761 740 789 690 733 
811 797 781 772 750 778 691 838 692 
771 795 751 760 786 742 779 715 768 
737 687 721 774 697 703 766 723 683 
739 784 770 681 753 759 787 819 719 
754 686 685 655 844 738 746 748 809 
689 788 712 755 727 826 822 791 749 
745 756 808 732 769 803 814 702 743 
785 825 767 824 735 777 758 705 840 
799 828 841 805 792 846 817 790 845 
823 800 812 815 829 798 821 837 794 
806 842 833 796 801 834 832 843 818 
830 820 802 839 835 827 810 807 831 
872 851 889 883 862 860 861 873 885 
870 853 850 876 878 891 847 863 895 
868 899 864 890 877 880 884 888 852 
869 858 898 866 854 874 896 894 849 
848 886 893 881 897 857 875 887 867 
882 856 892 859 879 855 871 865 
type 1 899 int
1 1 1 1 1 1 1 1 1 
1 1 1 1 1 1 1 1 1 
1 1 1 1 1 1 1 1 1 
1 1 1 1 1 1 1 1 1 
1 1 1 1 1 1 1 1 1 
1 1 1 1 1 1 1 1 1 
1 1 1 1 1 1 1 1 1 
1 1 1 1 1 1 1 1 1 
1 1 1 1 1 1 1 1 1 
1 1 1 1 1 1 1 1 1 
1 1 1 1 1 1 1 1 1 
1 1 1 1 1 1 1 1 1 
1 1 1 1 1 1 1 1 1 
1 1 1 1 1 1 1 1 1 
1 1 1 1 1 1 1 1 1 
1 1 1 1 1 1 1 1 1 
1 1 1 1 1 1 1 1 1 
1 1 1 1 1 1 1 1 1 
1 1 1 1 1 1 1 1 1 
1 1 1 1 1 1 1 1 1 
1 1 1 1 1 1 1 1 1 
1 1 1 1 1 1 1 1 1 
1 1 1 1 1 1 1 1 1 
1 1 1 1 1 1 1 1 1 
1 1 1 1 1 1 1 1 1 
1 1 1 1 1 1 1 1 1 
1 1 1 1 1 1 1 1 1 
1 1 1 1 1 1 1 1 1 
1 1 1 1 1 1 1 1 1 
1 1 1 1 1 1 1 1 1 
1 1 1 1 1 1 1 1 1 
1 1 1 1 1 1 1 1 1 
1 1 1 1 1 1 1 1 1 
1 1 1 1 1 1 1 1 1 
1 1 1 1 1 1 1 1 1 
1 1 1 1 1 1 1 1 1 
1 1 1 1 1 1 1 1 1 
1 1 1 1 1 1 1 1 1 
1 1 1 1 1 1 1 1 1 
1 1 1 1 1 1 1 1 1 
1 1 1 1 1 1 1 1 1 
1 1 1 1 1 1 1 1 1 
1 1 1 1 1 1 1 1 1 
1 1 1 1 1 1 1 1 1 
1 1 1 1 1 1 1 1 1 
1 1 1 1 1 1 1 1 1 
1 1 1 1 1 1 1 1 1 
1 1 1 1 1 1 1 1 1 
1 1 1 1 1 1 1 1 1 
1 1 1 1 1 1 1 1 1 
1 1 1 1 1 1 1 1 1 
1 1 1 1 1 1 1 1 1 
1 1 1 1 1 1 1 1 1 
1 1 1 1 1 1 1 1 1 
1 1 1 1 1 1 1 1 1 
1 1 1 1 1 1 1 1 1 
1 1 1 1 1 1 1 1 1 
1 1 1 1 1 1 1 1 1 
1 1 1 1 1 1 1 1 1 
1 1 1 1 1 1 1 1 1 
1 1 1 1 1 1 1 1 1 
1 1 1 1 1 1 1 1 1 
1 1 1 1 1 1 1 1 1 
1 1 1 1 1 1 1 1 1 
1 1 1 1 1 1 1 1 1 
1 1 1 1 1 1 1 1 1 
1 1 1 1 1 1 1 1 1 
1 1 1 1 1 1 1 1 1 
1 1 1 1 1 1 1 1 1 
1 1 1 1 1 1 1 1 1 
1 1 1 1 1 1 1 1 1 
1 1 1 1 1 1 1 1 1 
1 1 1 1 1 1 1 1 1 
1 1 1 1 1 1 1 1 1 
1 1 1 1 1 1 1 1 1 
1 1 1 1 1 1 1 1 1 
1 1 1 1 1 1 1 1 1 
1 1 1 1 1 1 1 1 1 
1 1 1 1 1 1 1 1 1 
1 1 1 1 1 1 1 1 1 
1 1 1 1 1 1 1 1 1 
1 1 1 1 1 1 1 1 1 
1 1 1 1 1 1 1 1 1 
1 1 1 1 1 1 1 1 1 
1 1 1 1 1 1 1 1 1 
1 1 1 1 1 1 1 1 1 
1 1 1 1 1 1 1 1 1 
1 1 1 1 1 1 1 1 1 
1 1 1 1 1 1 1 1 1 
1 1 1 1 1 1 1 1 1 
1 1 1 1 1 1 1 1 1 
1 1 1 1 1 1 1 1 1 
1 1 1 1 1 1 1 1 1 
1 1 1 1 1 1 1 1 1 
1 1 1 1 1 1 1 1 1 
1 1 1 1 1 1 1 1 1 
1 1 1 1 1 1 1 1 1 
1 1 1 1 1 1 1 1 1 
1 1 1 1 1 1 1 1 1 
1 1 1 1 1 1 1 1 
i 3 899 int
0 1 0 0 0 0 1 1 0 
0 1 0 0 0 0 0 0 0 
0 1 0 0 0 0 0 1 0 
0 0 0 -1 0 0 0 0 0 
0 0 0 0 0 0 0 0 0 
0 0 0 0 0 0 0 1 0 
0 0 0 0 0 0 0 0 0 
0 0 0 -1 0 0 1 1 0 
0 0 0 0 0 0 0 0 0 
0 0 0 0 0 0 0 0 0 
0 0 0 0 0 0 0 0 0 
0 0 0 0 0 0 0 0 0 
0 0 0 0 0 0 0 0 0 
-1 0 0 0 0 0 0 0 0 
0 0 0 0 0 0 0 0 0 
0 0 0 0 0 0 0 0 0 
0 0 0 0 0 0 0 0 0 
0 0 0 0 0 0 0 0 0 
0 0 0 0 0 0 0 0 0 
0 0 0 0 0 0 0 0 0 
0 -1 0 1 -1 0 0 0 0 
0 0 0 0 0 0 0 0 0 
0 0 0 0 0 0 0 0 0 
0 0 0 -1 0 0 0 0 0 
0 0 0 0 0 0 0 0 0 
0 0 0 0 0 0 0 0 0 
0 0 0 0 0 0 0 0 0 
1 -1 0 0 0 0 0 0 0 
0 0 0 0 -1 0 0 0 0 
0 0 0 0 0 0 0 0 0 
0 0 0 1 0 0 0 0 0 
0 -1 0 0 -1 0 0 -1 0 
0 -1 0 0 -1 0 0 -1 0 
0 0 0 0 0 0 0 0 0 
1 0 0 0 1 0 0 0 0 
0 0 0 0 0 0 0 0 0 
0 0 0 0 1 0 0 0 0 
0 1 0 1 0 0 0 1 0 
0 0 0 0 0 0 0 0 0 
0 0 0 0 0 0 -1 1 0 
0 0 0 0 1 0 0 0 0 
0 0 0 0 0 0 0 1 0 
0 0 0 0 0 0 0 0 0 
0 0 0 0 0 0 0 0 0 
0 0 0 -1 0 0 0 0 0 
0 0 0 0 0 0 0 1 0 
0 0 0 0 0 0 0 0 0 
0 0 0 0 0 0 0 0 0 
0 0 0 -1 0 0 -1 0 0 
1 0 0 1 0 0 0 0 0 
0 0 0 0 0 0 0 0 0 
0 0 0 0 0 0 0 0 0 
0 0 0 0 0 0 -1 0 0 
0 0 0 0 0 0 0 0 0 
0 0 0 0 0 0 0 0 0 
0 0 0 -1 0 0 0 0 0 
0 0 0 0 0 0 0 0 0 
0 0 0 0 0 0 0 0 0 
-1 0 0 0 0 0 0 0 0 
0 0 0 -1 0 0 1 0 0 
0 0 0 0 0 0 0 0 0 
0 0 0 0 0 0 0 0 0 
0 0 0 0 0 0 -1 0 0 
0 0 0 0 0 0 0 -1 0 
0 0 0 0 -1 0 0 0 0 
0 0 0 0 -1 0 0 0 0 
0 0 0 0 0 0 0 0 0 
0 0 0 1 -1 0 0 0 0 
0 0 0 0 0 0 0 0 0 
0 0 0 0 -1 0 0 0 0 
0 0 0 0 0 0 -1 0 0 
0 0 0 -1 0 0 1 0 0 
0 1 0 0 0 0 0 0 0 
0 1 0 0 0 0 0 0 0 
0 0 0 0 0 0 0 0 0 
0 0 0 0 0 0 0 0 0 
0 0 0 0 1 0 0 0 0 
0 1 0 0 0 0 0 0 0 
0 0 0 0 1 0 0 0 0 
0 0 0 0 0 0 0 0 0 
0 0 0 0 0 0 0 0 0 
0 0 0 0 0 0 0 0 0 
0 0 0 0 0 0 0 0 0 
0 0 0 0 0 0 0 0 0 
0 0 0 0 0 0 0 0 0 
0 0 0 -1 0 0 0 0 0 
0 0 0 0 0 0 0 0 0 
0 0 0 0 0 0 0 0 0 
0 0 0 0 0 0 0 0 0 
-1 0 0 -1 0 0 0 0 0 
0 0 0 1 0 0 0 0 0 
1 0 0 0 0 0 1 0 0 
0 0 0 0 0 0 0 0 0 
0 0 0 0 0 0 0 0 0 
0 0 0 0 0 0 0 0 0 
1 0 0 1 0 0 0 0 0 
0 0 0 0 0 0 0 0 0 
0 0 0 0 0 0 0 0 0 
0 0 0 0 0 0 0 0 0 
0 0 0 0 0 0 0 0 0 
1 0 0 0 0 0 0 0 0 
0 0 0 0 0 0 0 0 0 
0 0 0 0 0 0 0 0 0 
0 0 0 0 0 0 0 0 0 
1 0 0 0 0 0 0 0 0 
0 0 0 0 0 0 0 -1 0 
0 0 0 0 0 0 0 0 0 
0 0 0 0 0 0 0 0 0 
0 0 0 -1 0 0 -1 0 0 
0 0 0 0 0 0 0 0 0 
0 0 0 0 0 0 0 0 0 
0 0 0 0 0 0 0 0 0 
0 0 0 0 0 0 0 0 0 
0 0 0 0 0 0 0 0 0 
1 0 0 0 -1 0 0 0 0 
0 0 0 0 0 0 0 -1 0 
0 0 0 0 0 0 0 -1 0 
0 0 0 0 -1 0 0 0 0 
0 0 0 -1 -1 0 1 0 0 
0 0 0 0 0 0 0 0 0 
0 1 0 0 1 0 0 0 0 
0 1 0 0 0 0 -1 1 0 
0 0 0 0 0 0 0 0 0 
0 0 0 0 0 0 0 0 0 
0 0 0 0 0 0 0 0 0 
0 0 0 0 0 0 0 0 0 
0 0 0 0 0 0 0 0 0 
0 1 0 0 0 0 0 0 0 
0 0 0 0 0 0 0 0 0 
0 0 0 0 0 0 0 0 0 
0 0 0 0 0 0 0 0 0 
0 0 0 0 0 0 0 0 0 
0 0 0 0 0 0 0 0 0 
-1 0 0 0 0 0 0 0 0 
0 0 0 0 0 0 0 0 0 
0 0 0 0 0 0 0 0 0 
0 0 0 0 0 0 0 0 0 
0 0 0 0 0 0 -1 0 0 
0 0 0 0 0 0 0 0 0 
0 0 0 0 0 0 0 0 0 
0 0 0 0 0 0 0 0 0 
0 0 0 -1 0 0 0 0 0 
0 0 0 0 0 0 1 0 0 
0 0 0 0 0 0 0 0 0 
0 0 0 0 0 0 0 0 0 
0 0 0 0 0 0 -1 0 0 
0 0 0 0 0 0 0 0 0 
0 0 0 0 0 0 0 0 0 
0 0 0 0 0 0 0 0 0 
0 0 0 0 0 0 -1 0 0 
0 0 0 1 0 0 0 0 0 
0 -1 0 0 0 0 0 0 0 
0 0 0 0 -1 0 0 0 0 
0 0 0 0 0 0 0 0 0 
0 0 0 0 0 0 1 0 0 
1 -1 0 0 0 0 0 0 0 
0 -1 0 0 0 0 0 0 0 
0 0 0 0 0 0 0 -1 0 
0 -1 0 0 0 0 0 0 0 
0 0 0 0 0 0 0 1 0 
0 0 0 0 0 0 0 0 0 
0 0 0 0 0 0 0 1 0 
0 0 0 0 0 0 0 0 0 
0 0 0 0 0 0 0 0 0 
0 0 0 0 0 0 0 0 0 
0 1 0 0 0 0 0 0 0 
0 0 0 0 0 0 0 0 0 
1 0 0 0 0 0 0 0 0 
0 0 0 0 0 0 0 0 0 
0 0 0 0 0 0 0 0 0 
0 0 0 0 0 0 -1 0 0 
0 0 0 0 0 0 0 0 0 
0 0 0 0 0 0 0 0 0 
0 0 0 0 0 0 0 0 0 
0 0 0 -1 0 0 0 0 0 
0 0 0 0 0 0 0 0 0 
0 0 0 0 0 0 0 0 0 
0 0 0 0 0 0 0 0 0 
0 0 0 0 0 0 0 0 0 
0 0 0 0 0 0 0 0 0 
0 0 0 0 0 0 0 0 0 
0 0 0 -1 0 0 1 0 0 
0 -1 0 0 0 0 0 0 0 
0 0 0 0 0 0 0 0 0 
0 0 0 0 0 0 0 0 0 
0 0 0 0 0 0 0 0 0 
0 0 0 0 0 0 0 0 0 
0 0 0 0 0 0 0 0 0 
0 0 0 0 0 0 0 0 0 
0 0 0 0 0 0 0 0 0 
0 0 0 0 0 0 0 0 0 
0 0 0 0 0 0 0 0 0 
0 0 0 0 0 0 0 0 0 
0 0 0 0 0 0 0 0 0 
0 0 0 1 0 0 0 0 0 
0 0 0 0 0 0 1 0 0 
0 -1 0 0 -1 0 0 0 0 
0 0 0 0 0 0 0 -1 0 
0 0 0 1 0 0 0 0 0 
0 0 0 0 0 0 0 0 0 
0 0 0 0 0 0 0 1 0 
0 0 0 0 0 0 0 0 0 
-1 0 0 0 0 0 0 0 0 
0 0 0 0 0 0 0 1 0 
0 0 0 0 0 0 0 0 0 
0 0 0 0 0 0 0 0 0 
0 0 0 0 0 0 -1 0 0 
0 0 0 0 0 0 0 0 0 
0 0 0 0 0 0 0 0 0 
0 0 0 0 0 0 0 0 0 
0 0 0 0 0 0 0 0 0 
1 0 0 0 0 0 0 0 0 
0 0 0 0 0 0 0 0 0 
0 0 0 0 0 0 0 0 0 
0 0 0 -1 0 0 -1 0 0 
1 0 0 0 0 0 0 0 0 
0 0 0 0 0 0 0 0 0 
0 0 0 0 0 0 0 0 0 
0 0 0 0 0 0 1 0 0 
0 0 0 0 0 0 0 0 0 
0 0 0 0 0 0 0 0 0 
0 0 0 0 0 0 0 0 0 
0 0 0 0 0 0 0 0 0 
0 0 0 0 0 0 0 0 0 
0 0 0 0 0 0 0 0 0 
0 0 0 0 0 0 0 0 0 
0 0 0 0 0 0 0 0 0 
0 0 0 0 0 0 0 0 0 
0 0 0 0 0 0 0 0 0 
0 0 0 0 0 0 0 0 0 
-1 0 0 0 0 0 0 0 0 
0 0 0 0 0 0 0 0 0 
0 0 0 0 0 0 0 0 0 
0 0 0 0 -1 0 0 0 0 
1 0 0 0 0 0 0 0 0 
0 0 0 0 -1 0 0 -1 0 
0 0 0 0 0 0 0 0 0 
0 -1 0 0 0 0 0 0 0 
-1 0 0 0 0 0 1 0 0 
0 0 0 0 0 0 0 0 0 
0 0 0 0 0 0 0 0 0 
0 0 0 1 0 0 0 0 0 
0 0 0 0 0 0 0 0 0 
0 0 0 0 0 0 1 0 0 
0 0 0 0 0 0 0 0 0 
0 0 0 0 0 0 0 0 0 
0 0 0 0 0 0 0 0 0 
0 0 0 0 0 0 0 0 0 
0 0 0 0 0 0 0 0 0 
0 0 0 0 0 0 1 0 0 
0 0 0 0 0 0 0 0 0 
0 0 0 0 0 0 0 0 0 
0 0 0 0 0 0 0 0 0 
0 0 0 0 0 0 0 0 0 
0 0 0 0 0 0 0 0 0 
0 0 0 0 0 0 0 0 0 
0 0 0 1 0 0 0 0 0 
0 0 0 0 0 0 0 0 0 
0 0 0 0 0 0 0 0 0 
0 0 0 0 0 0 0 0 0 
1 0 0 0 0 0 0 0 0 
0 0 0 0 0 0 0 0 0 
0 0 0 0 0 0 0 0 0 
0 0 0 0 0 0 0 0 0 
0 0 0 0 0 0 0 0 0 
0 0 0 0 0 0 0 0 0 
0 0 0 0 0 0 -1 0 0 
1 0 0 0 0 0 0 0 0 
0 0 0 0 0 0 0 0 0 
0 0 0 -1 0 0 0 0 0 
0 0 0 0 0 0 0 0 0 
0 0 0 0 0 0 0 0 0 
0 0 0 -1 0 0 0 0 0 
0 0 0 0 0 0 0 0 0 
0 0 0 0 0 0 0 0 0 
0 0 0 0 0 0 0 0 0 
0 0 0 0 0 0 0 0 0 
0 0 0 0 0 0 0 0 0 
0 0 0 0 0 0 0 0 0 
0 0 0 0 0 0 0 0 0 
0 0 0 0 0 0 0 0 0 
0 0 0 0 0 0 0 0 0 
0 0 0 0 0 0 0 0 0 
0 0 0 0 0 0 0 0 0 
0 0 0 0 0 0 0 0 0 
0 0 0 0 0 0 0 0 0 
0 0 0 0 0 0 0 0 0 
0 0 0 0 0 0 0 0 0 
0 0 0 0 0 0 0 0 0 
0 0 0 0 0 0 0 0 0 
0 0 0 0 0 0 0 0 0 
0 0 0 0 0 0 0 0 0 
0 0 0 0 0 0 0 0 0 
0 0 0 0 0 0 0 0 0 
0 0 0 0 0 0 0 0 0 
0 0 0 0 0 0 0 0 0 
0 0 0 0 0 0 0 0 0 
0 0 0 0 0 0 0 0 0 
0 0 0 0 0 0 0 0 0 
0 0 0 0 0 0 
v 3 899 double
-0.000257899 4.38763e-05 -0.000123259 8.22667e-06 -0.000174948 -0.00029774 0.000134888 0.000115009 -0.000282502 
0.000694777 -0.000260641 -0.000230594 0.000108184 0.00080361 0.000303149 0.000244005 -0.00113486 0.000387731 
0.000624385 -0.000789318 -0.000121838 0.000145109 -0.000411943 -0.000211683 3.89862e-06 -0.000530825 -0.000180965 
-0.00048081 -0.00071245 -0.00032955 -0.000296203 -0.000417796 -0.000378196 -9.06998e-05 -0.000512407 -0.00019256 
0.000308746 9.83406e-06 -0.000527323 0.000460904 -0.000484881 -0.000691464 0.000443585 -0.000364848 -0.000262085 
0.000344366 -0.000603122 9.37449e-05 -0.000245894 -0.000908666 -5.03624e-05 -0.000535775 -0.00056984 -0.000470253 
-0.000382783 -0.00066144 -0.000636215 -0.000506843 -0.000406565 -0.000395984 -0.000451815 -0.000901316 -0.000331468 
-0.00020166 -0.000954759 -0.000472871 -0.000537052 -0.000837097 -0.000421133 -9.66355e-05 0.000277438 3.90807e-05 
0.000474187 0.000287308 8.17292e-05 0.000904627 -0.00130985 -0.00102855 0.000698616 -0.000194502 -1.68939e-05 
0.000622471 0.00110027 5.48046e-06 0.000387827 -0.000278293 -0.000357066 -0.000574197 -0.000569546 -0.000865574 
-0.00118164 -0.00073542 -0.000423193 -0.000414534 -0.00145727 -9.79341e-05 0.00321037 -0.000475422 0.000205365 
0.0029268 -0.00130064 -8.21633e-05 0.00266029 -0.000231963 -0.000918039 -0.000322407 0.000497676 4.98013e-08 
0.000916003 -0.000202096 5.53708e-05 0.000174138 -0.00032975 8.54982e-06 -0.000699869 -0.000332911 -0.000435219 
-0.000677319 -0.000839839 -1.77727e-05 0.0011322 -0.000510987 -0.000319835 0.00181793 -0.000272445 -0.000162356 
-0.000565434 7.06761e-05 2.53307e-06 0.00220791 -0.000203706 -0.000970474 0.000731897 0.00016057 8.76719e-05 
-0.000436935 -0.000408773 -0.000399907 -0.00113222 0.000320106 -0.000283302 -0.000349612 0.000486175 -0.00029682 
-0.00100909 -0.000450262 -0.000404899 -0.00127503 -0.0015974 -0.000456601 -0.000657603 0.00111238 0.000536859 
-0.000162272 4.36891e-05 0.000653942 0.000554308 -0.000443549 -0.000853092 0.000534125 -5.68321e-05 -3.36417e-05 
0.00116194 8.69349e-05 -0.000495372 0.00077576 0.000192586 6.87831e-05 0.0012075 8.79284e-05 -4.14959e-06 
-0.000550012 -0.000298382 -0.000225485 -0.000633037 0.000236446 -0.000646787 -0.000693727 -0.000517855 0.000328886 
-0.000148201 -0.000293801 -0.000151506 0.000419169 2.41509e-05 -0.000201525 0.000513696 4.41392e-05 -0.000119539 
0.000622788 8.81351e-05 -0.000128708 0.000468994 0.000350121 -0.000441443 6.11205e-05 3.07485e-06 -9.42171e-05 
0.000355795 0.000160343 -0.000293538 -0.00127024 -0.000154773 2.90537e-05 -0.0017812 -0.000110116 -0.000853715 
-0.000248302 -0.000631933 -8.66273e-05 -0.000518041 -8.63083e-05 -0.000525684 -2.48193e-05 -0.000208582 -0.000654045 
0.000196299 0.000142221 -5.52787e-05 0.00031901 0.000282337 -0.00043015 0.00084686 0.000369798 -0.000210466 
-1.24455e-05 4.19574e-05 0.00028208 0.000341406 0.000231242 -0.000335332 -0.00015009 8.61168e-05 -0.000168387 
-0.000804875 -0.000941896 9.76664e-05 -0.00135755 -0.000728848 -0.000249373 0.000299829 -0.000568924 -0.000171103 
3.281e-05 3.37926e-05 -0.000470899 0.000251418 0.000420323 -0.000693501 0.000659421 0.000350031 -0.000810831 
0.000399166 0.000178766 6.23871e-05 0.000306344 -0.000220083 0.000396482 -0.000221788 5.58101e-05 -0.000150692 
-0.000758586 -6.88904e-05 0.000197002 0.000328375 1.85928e-05 -0.00011969 -0.000636981 -0.00072789 -0.000230167 
-0.000418275 -4.35375e-05 -0.000780745 -0.000182524 -2.24423e-06 -0.000236568 -8.26573e-05 0.000155257 -0.000340106 
0.000336647 -0.000160468 -0.00011223 0.000165039 0.000231547 -0.000791676 0.000257916 0.000188921 -3.57614e-05 
-0.00104075 -0.000385211 -0.000578168 -0.000313786 -3.10252e-05 0.0002872 5.7918e-05 -0.000300418 -2.01673e-05 
0.000188344 -0.000175089 -0.000236545 0.000185793 -0.000215504 -0.000253348 6.15235e-05 1.7715e-05 -0.000119083 
-8.42962e-05 -0.000114755 -0.000272433 0.0003231 -0.000128438 -0.00028497 0.000221682 -6.1774e-05 0.000794188 
-7.51535e-05 0.000269244 0.000421406 0.000178039 -0.0010683 0.000441831 0.00124805 -0.000137595 -0.00046254 
0.000710187 -0.000427148 -0.000614962 -0.000347823 -0.000912839 -0.000568246 -0.00095907 -0.000817589 -0.000708914 
-0.000622958 -0.000546754 -0.00050043 -0.00062335 -0.000861877 -0.000312526 0.000639127 0.000101222 -0.000866613 
0.000826812 -0.000412365 -0.000862026 0.000115433 0.001133 8.86016e-05 0.00047342 -0.000432717 1.64762e-05 
0.000798041 -0.000182607 -0.000265083 -0.00164514 -0.000956949 -0.000504055 -0.00160652 -0.000680632 -0.000446494 
-0.00136858 -0.00109241 -0.000417635 -0.000942795 -0.00135878 -0.000835054 -0.00027361 -4.6335e-05 -0.000583039 
0.00082843 -0.00117639 -0.000356855 0.00126283 -0.000283842 -0.000530613 0.00106427 -3.32003e-05 0.000370209 
0.00164975 -0.000546288 6.32099e-05 0.000989962 -0.000419147 -0.000258804 0.000209041 -0.000568792 -0.000409336 
-0.00133226 -0.000845193 -0.00103353 -0.000399823 -0.000407199 1.32163e-05 -0.0014428 -0.000852229 -0.000360274 
-0.00114725 -0.00144132 -0.000258695 -0.000906641 -0.00146996 0.00034392 0.00166757 -0.000847277 -0.000221386 
-0.000288686 0.00128996 -0.000321629 0.00138744 -0.00145934 7.35187e-06 0.0028587 -0.000774513 -0.000362808 
0.00305895 -0.000965026 -0.00187328 0.00232739 -0.000274681 -0.000275516 0.00156839 2.28861e-05 -0.000169661 
0.000102217 -0.000577266 -0.000209295 0.00146544 -0.000105549 3.734e-05 -0.000460188 -0.000495796 -0.000428615 
-0.000844044 2.44593e-05 -0.000521192 -0.000733047 -0.000911164 0.000418809 0.00088913 -0.0025104 -0.000991465 
0.00125495 -0.00152129 0.000924826 0.00211478 -0.00114896 -0.000432644 0.00300822 0.000531159 -0.000690324 
0.00149867 0.000953613 -0.00018863 0.00260955 0.000361378 -0.000973111 0.00162606 -5.81199e-05 0.000151615 
0.000432061 -0.00069092 0.000366923 0.00145808 -0.000185117 0.000485437 0.000413102 -0.000326022 1.73638e-05 
0.000446311 -0.000453016 0.000316489 0.000340813 0.000430562 -0.000931016 -0.000432587 -3.66688e-05 -1.35356e-05 
-0.00130767 0.000801716 -0.000179155 -0.000433739 -0.00167863 -0.00184213 0.000193739 -0.000482254 0.000293202 
0.00148452 0.000560472 -0.000328209 0.00188429 0.000462051 -0.000668619 0.00213057 0.00024824 0.000258428 
-0.000839471 -0.000765094 0.00034537 -0.00173008 0.000593557 -0.000277222 -0.00313398 0.000434526 3.27085e-05 
-0.00332373 -0.000737879 -6.18478e-05 -0.00149414 0.000525911 0.00136454 -0.00124268 -0.000470623 0.000808953 
-0.000415053 -0.000961696 0.000361418 0.00130516 0.00101148 -3.96459e-05 0.0023776 0.000116761 0.000948329 
-0.00135118 0.000137566 -0.00044849 -0.00234411 -0.000835982 0.000397487 -0.00198998 0.00155697 -0.00054991 
-0.00115543 0.000622835 6.63673e-05 -0.00123608 0.000228572 -0.000162067 0.000819753 0.00149637 -0.00177007 
0.00115504 0.000800511 -0.000554173 0.00105045 0.00094845 -0.000967587 0.00130499 0.0012796 -0.000558274 
-2.57594e-05 -0.0019045 0.00115061 0.000194414 -0.000598112 0.00119616 -0.000924098 -0.000269115 0.000279432 
-0.00262575 0.000255346 -0.00062366 -0.00128925 -0.00116254 -5.90294e-05 0.000733136 9.71009e-05 -0.00081674 
3.2445e-05 0.000192362 -0.000838047 -0.000845416 0.00103499 -0.00158581 0.000455439 0.00079608 -0.000242142 
0.000596422 0.000886769 -0.00129413 0.000907355 0.00100127 -0.00145542 -0.000368369 -0.000295482 -0.0005241 
0.000330127 0.000232677 -0.000915509 -7.03731e-05 0.000680705 -0.000503614 -0.000414818 0.000528414 8.93451e-05 
-0.000659115 -0.000232294 0.000134533 -0.00124174 -6.22127e-05 0.000334782 -0.000930168 -0.00083771 -0.000472013 
-0.000501916 -0.000723876 -0.000940174 -0.000143744 0.000345084 -0.00057235 -5.66864e-05 7.45803e-05 -0.000525426 
-0.000368727 -0.000678136 -0.000552756 -0.000780923 -5.87966e-05 -0.00128419 -0.001167 -0.000709338 0.000421838 
5.17467e-05 -0.000294957 0.000174776 0.000256154 -0.000862479 -0.000438656 0.000153312 -0.000636335 -9.3681e-05 
-0.000162282 0.00115456 -0.000149878 -0.000608815 -0.00101799 -0.000289387 6.95528e-05 -0.00114739 -0.000200189 
0.000294289 -0.000232041 0.000215719 -0.000533829 -0.000397972 -0.000606008 -2.69331e-05 0.000136221 -0.000979217 
-0.000822927 -0.000454396 -0.00124103 -9.20963e-05 -9.47621e-05 -0.000876549 -0.000110314 -0.000838484 -0.000738224 
-0.000190101 -0.000732427 -0.000222677 0.000994273 -0.000599874 0.00127078 -0.000522005 -0.000635841 0.00103802 
0.000590146 0.000430285 -0.000197743 0.00129588 0.000606366 -0.000385621 -0.000352277 -0.00103294 -9.0203e-05 
0.0011878 0.000506438 0.000114055 -0.000152594 0.000820103 -0.000271897 -0.00102546 -0.000223677 0.000250583 
-0.00162359 -0.000322022 -0.00135523 -0.00300197 -2.76064e-05 -0.00268494 0.00108525 0.000249966 -0.000645291 