# vtk DataFile Version 4.0
Generated by LIGGGHTS
ASCII
DATASET POLYDATA
POINTS 1344 float
-4336.88 -4886.71 498.687 -3769.58 -4064.07 498.893 -3313.47 -4954.72 498.814 
-2653.83 -4203.73 499.698 -1605.57 -4279.56 498.712 -364.787 -4453.38 496.409 
632.75 -4519.62 499.024 1613.74 -4726.21 498.895 2612.24 -4772.18 497.946 
3668.2 -4755.1 496.705 4666.45 -4819.19 498.105 -4775.08 -3981.24 498.465 
-4206.62 -3159.7 498.695 -3210.16 -3236.11 497.719 -2213.21 -3306.59 498.424 
-887.903 -3567.09 498.757 165.697 -3606.39 498.844 1164.03 -3672.96 498.784 
2147.3 -3882.38 499.325 3146.69 -3903.69 498.007 3700.42 -3071.87 498.704 
4226.95 -3921.39 497.378 4777.31 -3087.32 498.584 -4619.35 -2192.98 499.392 
-3624.94 -2287 499.025 -2628.19 -2356.54 499.196 -1408.57 -2713.57 497.752 
-408.826 -2659.98 499.699 387.364 -2054.45 497.142 1352.79 -2317.85 498.816 
2175.85 -2884.08 498.658 4386.31 -2099.29 498.036 -4686.53 -1117.7 498.603 
-3389.05 -1194.74 498.138 -2390.15 -1176.59 497.625 -1547.09 -1715.64 499.699 
-506.791 -1608.7 498.263 1105.86 -1349.69 498.107 2181.38 -1759.64 498.477 
3417.42 -1854.87 497.554 -4402.49 -159.167 498.077 -3385.4 -191.796 497.082 
-2392.87 -54.56 499.699 -1529.48 -559.606 497.019 216.346 -887.674 497.966 
1939.45 -789.976 498.949 2919.95 -986.258 498.945 2597.2 -38.1999 498.36 
3597.96 -78.472 497.868 4067.35 -981.429 498.779 4598.64 -134.274 498.151 
-4866.63 725.659 499.075 -3866.81 684.042 499.257 -2876.73 820.899 496.919 
-1509.34 438.43 497.199 -551.998 141.903 498.961 511.701 66.9992 499.258 
1624.77 192.132 497.828 3132.18 805.795 498.807 4134.56 764.739 498.766 
-4489.37 1650.38 497.967 -3490.72 1609.38 498.882 -2518.87 1656.68 907.28 
-1636.52 1428.93 498.139 -562.651 1140.97 498.988 4.9735 1963.33 498.543 
440.02 1063.55 499.285 1496.88 1183.4 497.877 2488.68 1591.26 498.853 
3476.88 1743.35 498.518 4511.93 1690.77 497.627 -4953.51 2535.6 497.886 
-3954.94 2494.46 498.722 -2956.52 2453.6 497.419 -1958.64 2373.94 497.192 
-977.117 2180.04 499.16 -291.234 2917.62 498.427 689.069 2691.12 498.29 
1694.58 2198.68 499.667 2953.69 2602.71 498.505 4034.61 2573.08 498.529 
-4417.91 3380.08 498.705 -3419.6 3338.38 498.508 -2363.38 3286.98 498.005 
-1284.21 3131.38 499.67 -606.062 3866.42 498.912 438.193 3658.52 498.998 
1555.57 3188.8 498.417 2580.38 3529.4 499.072 3585.79 3482.49 498.159 
4584.47 3423.29 497.469 -4880.09 4266.97 498.929 -3881.87 4223.56 498.918 
-2190.19 4910.04 499.493 -2850.1 4159.5 498.381 -1685.96 4046.88 499.139 
-1006.51 4782.05 497.302 57.0761 4620.41 498.317 1042.22 4454.83 497.942 
2042.11 4371.04 498.653 3123.46 4368.84 499.527 4122.35 4330.65 499.637 
-4296.45 -4305.55 1312.69 -3289.97 -4381.2 1315.84 -2340.07 -4419.31 1621.25 
-1531.24 -4894.53 1282.17 -852.123 -4147.15 1310.88 143.529 -4228.99 1323.54 
1309.69 -4233.04 1313.13 2350.32 -4350.2 1364.2 3684.15 -4162.04 1299.55 
4706.94 -4240.92 1311.74 -4741.54 -3405.32 1314.74 -3728.82 -3483.61 1315.52 
-2731.63 -3553.26 1315.07 -1741.54 -3688.78 1292.81 -349.537 -3281.3 1291.07 
725.987 -3542.9 1752.92 1670.02 -3281.96 1266.35 2659.14 -3411.73 1216.72 
3414.89 -3153.67 1815.15 4260.37 -3346.09 1313.5 -4167.45 -2586.39 1315.12 
-3156.71 -2649.71 1303.14 -2073.15 -2679.37 1264.4 -1233.54 -2949.91 1733.31 
-970.301 -2151.84 1195.37 -5.95368 -2345.71 1366.06 712.116 -2918.43 973.739 
1909.91 -2248.23 1326.19 1163.85 -2651.85 1853.22 2858.08 -2443.03 1078.3 
3840.19 -2441.29 1259.91 4837.42 -2492.03 1298.28 -4064.37 -1617.46 1099.34 
-4699.92 -1798.64 1848.01 -3421.41 -1146.96 1928.31 -2883.68 -1693.52 1202.24 
-1773.17 -1126.85 1279.63 -1691.21 -1939.54 1852.28 -906.357 -1315.97 1736.49 
885.807 -1845.52 1336.05 18.9693 -1348.19 1361.24 1701 -1267.86 1343.7 
2674.38 -1493.05 1324.64 3664.03 -1362.44 1329.05 4651.52 -1423.31 1184.13 
-4910.66 -529.821 1274.25 -3907.71 -638.721 1219.9 -2898.2 -694.326 1209.23 
-2241.86 -99.7343 1668.34 -1302.02 -64.471 1333.56 -662.124 -736.502 960.644 
817.892 -985.608 1838.48 206.254 -366.178 1349.4 1140.86 -503.192 1025.79 
1193.27 -38.186 1907.33 2046.3 -195.649 1317.48 3083.26 -400.24 1291.23 
4082.41 -394.362 1312.25 -4204.2 305.354 1360.43 -3089.72 295.009 1316.99 
-2154.21 768.859 1183.65 -1181.69 983.291 1266.94 -342.836 464.429 1421.21 
1028.06 619.544 1174.69 2267.01 760.791 1008.7 2756.8 399.833 1801.67 
3621.78 497.267 1312.89 4627.21 443.124 1312.38 -4006.87 1282.77 1290.81 
-3069.17 1243.89 1629.46 -1678.29 1952.05 1358.14 -12.2269 1401.98 1323.85 
888.813 1827.84 961.072 1758.27 1528.99 1397.2 3003.98 1357.42 1322.18 
4000.6 1421.53 1311.9 4998.49 1370.64 1308.95 -4469.71 2224.31 1314.99 
-3471.3 2183.03 1316.12 -2566.74 2208.15 1738.07 -1862.69 2959.55 1297.21 
-437.524 2308.98 1329.87 441.217 2173.84 1785.45 1184.33 2693.05 1365.2 
2481.47 2207.92 1285.02 3476.06 2331.31 1304.94 4530.9 2268.68 1311.01 
-4395.32 3955.07 1315.7 -4931.35 3110.79 1313.21 -3930.85 3070.27 1314.21 
-3381.44 3919.94 1309.77 -2904.27 3042.81 1301.17 -2280.38 3893.14 1288.38 
-715.641 3283.51 1325.08 259.387 3066.66 1318.11 734.017 3746.3 1875.08 
1459.95 3888.88 1205.39 2084.98 3123 1341.84 3075.05 3245.53 1322.12 
4070.28 3155.3 1308.77 -4855.84 4848.41 1310.86 -3857.54 4797.31 1315.87 
-2794.43 4750.6 1300.83 -1110.45 4200.12 1301.27 -438.354 4943.01 1303.89 
-30.756 4030.35 1298.62 628.155 4883.22 1299.67 1807.72 4811.65 1363.39 
2581.44 4123.27 1302.72 3145.88 4967.37 1300.12 3613.05 4083.11 1383.99 
4606.32 4000.22 1313.78 4146.9 4922.9 1310.04 -4823.03 -4577.16 2127.45 
-4310.51 -4323.69 2949.05 -3825.22 -4628.21 2131.71 -3037.6 -4018.47 2211.77 
-2270.31 -4497.47 2636.86 -1464.08 -4295.79 2084.17 -873.405 -4283.97 2908.25 
-261.67 -4566.38 2171.46 731.534 -4503.63 2081.75 1759.37 -4564 2141.96 
2528.22 -4526.86 2844.78 3043.31 -4179.86 2063.86 3551.64 -4608.99 2891.49 
4165.29 -4484.06 2113.01 4630.81 -4793.96 2938.08 -4277.81 -3737.89 2135.13 
-3395.61 -3086.18 2170.04 -2298.56 -3216.4 2148.61 -1595.29 -3592.41 2778.94 
-670.519 -3654.91 2160.6 312.105 -3780.86 2632.12 1305.69 -3765.22 2534.59 
2174.56 -3652.33 2056.5 2927.54 -3383.35 2655.96 3890.65 -3631.36 2551.49 
4859.09 -3825.49 2703.05 4708.87 -3013.09 2141.43 -4337.66 -2752.2 2284.61 
-3611.83 -2121.99 2017.75 -3560.57 -2482.16 2949.15 -2611.86 -2272.98 2049.56 
-1632.2 -2613.81 2584.45 -708.92 -2910.33 2826.26 -627.468 -2190.32 2133.63 
833.812 -2913.66 2757.47 33.7368 -2946.79 2160.27 414.262 -2007.38 2207.34 
1787.67 -2537.63 2624.39 2527.21 -2721.42 1978.14 2945.84 -2398.96 2825.68 
3245.89 -2027.35 1947.65 3872.37 -2633.68 2534.91 4930.92 -2223.97 2712.89 
-4185.61 -1656.18 2691.71 -3051.43 -1657.68 2703.28 -2436.54 -1291.38 2006.09 
-1952.16 -1688.11 2784.69 -1045.7 -1269.9 2725.3 -121.077 -1172.61 2334.24 
749.437 -1156.59 2819.54 1375.22 -1732.44 2199.94 2367.86 -1722.87 2315.16 
3231.81 -1210.07 2522.34 4912.25 -1226.67 2669.67 4319.17 -1936.98 1976.05 
4008.66 -1714.21 2899.11 -4373.58 -865.717 2072.94 -4336.49 -28.4894 2691.84 
-3591.81 -169.631 2042.25 -3703.69 -789.857 2816.12 -2736.04 -460.307 2471.17 
-1535.69 -642.806 2119.87 -1007.34 -203.707 2844.6 -587.333 -375.456 1955.46 
327.196 -277.011 2343.15 1594.13 -785.626 2434.5 2494.29 -782.167 2001.67 
3410.45 -272.15 2225.12 4116.54 -970.994 2125.91 4829.09 -276.465 2204.08 
-4785.5 640.094 2100.9 -3800.56 802.142 2147.4 -2783.86 510.743 2243.68 
-1898.32 175.533 2564.73 -1056.45 490.581 2126.76 -239.383 541.678 2698.28 
455.49 654.389 1991.21 1357.97 359.341 2807.73 1830.92 726.98 1988.91 
2259.41 3.15127 2571 2190.37 946.343 2895.65 3094.49 525.577 2737.26 
4121.87 427.451 2173.22 -4463.84 1621.98 2112.79 -3507.62 1876.52 2267.03 
-2625.84 1464.42 2495.83 -1798.62 1153.16 2033.3 -1184.2 1199.81 2819.74 
-939.651 1657.86 1961.65 -26.8841 1469.97 2319.82 649.89 1053.16 2923.81 
1052.47 1448.44 2099.34 1594.55 1752.49 2882.3 2440.5 1536.16 2128.18 
3520.89 1226.14 2166.45 4513.35 1346.32 2181.57 -4140.54 2518.3 2698.93 
-4960.43 2531.72 2128.47 -3410.52 2929.63 2154.7 -2785.48 2417.84 2742.28 
-1160.24 2633.51 1938.81 -1841.4 2077.07 2411.43 -1601.45 2982.95 2764.23 
-600.33 2196.42 2729.65 -248.821 2970.59 2173.46 926.067 2870.52 2313.74 
641.109 2042.72 2793.13 1778.19 2281.37 2054.77 2645.97 2774.95 2090.25 
3120.17 2077.52 2623.38 3990.8 2195.28 2148.11 4125.09 2776.67 2946.83 
-4421.22 3372.64 2130.34 -4922.03 3998 2769.51 -3839.43 3912.02 2734.97 
-2981.6 3887.17 2224.38 -2373.34 3099.98 2143.53 -1525.04 3599.38 1981.92 
-587.174 3909.93 2118.06 192.288 3729.36 2713.56 1852.97 3124.87 2585.91 
1956.36 3973.3 2068.43 1183.5 3844.93 2762.66 2982 3906.52 2191.96 
2947.85 3205.06 2939.67 3583.11 3108.1 2177.01 3905.19 3915.95 2669.18 
4579.32 3418.62 2126.88 -4369.31 4531.86 2131.5 -2966.11 4884.39 2275.56 
-2060.08 4598.11 1962.09 -1534.12 4205.33 2773.38 -1034.78 4803.1 2093.43 
-468.686 4568.87 2880.05 186.729 4542.46 2128.19 1183.42 4605.91 2114.99 
1881.2 4713.16 2821.17 2523.16 4796.43 2061.09 2959.42 4576.06 2933.34 
3578.5 4709.87 2161.04 4600.3 4606.95 2140.1 -4922.7 -4390.42 3734.75 
-3034.77 -4467.95 3278.49 -2153.66 -4234.79 3687.84 -1580.03 -4909.66 3230.17 
-702.223 -4920.58 3705.1 46.4427 -4609.2 3121.59 696.897 -4644.77 3879.37 
1136.66 -4641.01 2983.15 1909.34 -4674.02 3614.43 4189.4 -4035.46 3414.05 
-4459.79 -3242.48 3144.66 -3965.21 -3995.59 3828 -3567.41 -3656.43 2975.8 
-3138.25 -3066.4 3657.53 -2569.81 -3623.5 3018.26 -1232.42 -3776.59 3690.64 
-267.441 -3696.53 3442.15 892.94 -3737.09 3444.7 2099.27 -3672.52 3133.09 
2660.23 -3090.48 3719.76 3059.41 -3975.88 3486.94 3589.48 -3124.79 3358.17 
4570.18 -3013.01 3207.91 -4397.88 -2269.66 3452.32 -2548.92 -2626.23 2981.51 
-1753.74 -2941.65 3518.87 -1109.79 -2108.5 3268.56 -803.766 -2882.96 3819.67 
106.483 -2770.59 3425.58 792.606 -2051.84 3261.66 1508.89 -2950.74 3490.81 
2207.04 -2235.03 3478.23 3770.61 -2214.96 3730.9 -3626.89 -1505.59 3505.48 
-2572.04 -1821.97 3573 -1672.59 -1406.31 3701.7 -164.863 -1900.66 3016.56 
[...]
POINT_DATA 1344
FIELD FieldData 7
id 1 1344 int
72 12 38 94 7 11 80 109 30 
100 48 107 102 124 89 79 97 81 
90 82 51 91 49 36 60 78 18 
16 28 26 31 14 27 98 15 45 
104 96 22 87 54 37 59 19 1 
2 4 108 43 29 84 33 92 21 
88 42 55 66 46 77 73 20 69 
110 131 13 40 53 23 35 105 52 
8 119 61 25 34 58 6 85 47 
63 57 32 75 65 93 39 83 67 
41 10 9 17 113 3 56 50 24 
166 44 5 164 139 185 103 194 95 
125 135 86 150 137 223 193 133 149 
202 161 99 274 147 168 128 163 132 
157 179 148 155 186 145 278 281 101 
156 181 141 134 212 187 225 165 136 
195 170 62 159 123 142 224 70 121 
172 152 115 197 130 140 160 171 126 
209 153 217 177 112 316 158 118 127 
207 169 154 111 191 143 114 151 129 
175 198 76 167 189 200 116 192 214 
219 196 210 221 146 182 144 74 216 
64 117 68 228 206 138 120 71 122 
183 162 201 178 180 208 215 106 248 
427 242 276 232 273 378 262 289 337 
293 258 386 266 406 239 322 229 307 
275 312 309 245 292 320 327 330 350 
299 412 259 240 301 254 329 190 227 
317 267 356 282 304 305 368 285 268 
314 310 233 354 264 296 375 315 256 
376 204 298 211 323 231 252 283 213 
257 370 324 374 270 297 243 265 234 
253 235 308 271 381 288 302 380 365 
263 230 261 269 218 357 236 255 367 
244 321 250 174 226 294 173 246 355 
279 272 331 290 260 333 372 251 205 
295 222 379 277 352 349 326 237 184 
280 311 332 238 306 247 377 241 335 
334 176 300 249 286 199 363 188 319 
318 203 360 291 220 457 396 397 366 
408 328 417 369 418 402 419 456 437 
422 340 477 423 500 338 494 450 475 
436 488 343 444 345 439 441 429 390 
503 474 428 413 447 336 409 476 443 
467 432 508 445 348 459 416 391 405 
385 325 347 424 341 388 415 344 481 
451 382 400 303 339 435 362 426 440 
364 389 504 287 358 313 498 392 438 
433 425 442 469 403 284 414 399 463 
398 411 353 401 387 478 346 410 361 
393 502 452 509 394 373 404 395 384 
420 454 351 421 448 434 430 342 505 
468 371 359 383 446 473 431 449 610 
520 560 528 499 589 548 485 555 546 
562 529 598 541 532 479 566 583 501 
516 507 558 530 482 613 658 547 524 
491 614 483 618 466 565 616 471 554 
579 556 571 577 487 620 493 537 511 
495 513 553 551 574 522 563 535 518 
552 533 407 526 640 573 496 557 461 
521 489 621 455 593 512 612 490 617 
531 464 543 462 492 525 536 484 564 
465 581 568 586 519 460 602 470 559 
545 534 453 538 514 599 550 609 458 
549 544 480 517 539 510 515 506 527 
486 542 608 497 605 540 523 472 569 
561 597 669 641 572 728 713 653 601 
631 664 720 578 642 700 736 643 590 
666 672 575 694 716 587 659 677 710 
650 741 673 714 585 757 707 709 651 
680 647 652 701 726 596 781 594 638 
630 668 679 667 663 692 646 731 718 
654 693 730 688 607 629 592 682 576 
633 724 622 687 698 674 722 603 567 
656 595 635 645 634 655 678 628 619 
580 611 661 695 648 591 588 644 662 
584 649 624 717 675 729 657 615 665 
704 600 637 676 684 625 582 725 627 
626 639 708 670 702 696 660 604 706 
775 570 711 632 782 636 671 699 623 
734 606 773 780 804 747 776 889 783 
831 764 813 862 840 762 878 744 833 
828 836 752 765 834 793 816 877 733 
763 880 797 761 841 805 799 792 740 
789 860 690 823 790 811 817 772 750 
778 870 838 691 771 795 846 760 786 
835 742 779 715 768 737 802 751 721 
774 697 854 703 801 766 723 683 739 
784 807 770 681 753 759 787 819 719 
754 829 686 850 822 844 738 746 748 
812 689 788 712 755 727 685 826 791 
749 745 843 756 853 809 798 732 769 
803 814 743 837 785 825 824 808 767 
810 876 842 735 890 777 806 758 705 
818 861 899 927 863 910 895 883 932 
946 912 928 884 956 872 1004 923 888 
945 994 868 980 830 913 864 920 999 
998 935 942 953 921 852 885 869 902 
898 949 796 917 926 919 851 1011 886 
896 820 866 952 904 925 849 986 858 
996 874 944 839 894 907 845 827 918 
1009 951 1002 933 915 832 901 914 800 
892 893 873 943 881 897 950 857 930 
848 887 948 989 929 882 1008 906 922 
905 875 815 855 938 937 821 908 867 
1006 916 900 941 879 856 903 891 911 
1001 847 934 940 859 947 794 955 982 
871 924 939 936 865 1013 1113 958 1042 
1099 1104 972 960 1044 1111 1023 973 1047 
1112 961 1108 981 1066 1079 1032 1072 990 
1017 1022 1034 997 1055 965 1075 1027 1087 
1118 1058 1037 975 1068 1053 1061 1041 964 
985 1012 1015 966 971 1019 1028 909 1043 
983 1040 957 1067 1085 1035 1059 992 976 
979 1109 1010 1048 1030 1063 1000 969 1049 
1038 1052 1076 974 1070 1106 1026 1051 1003 
1100 1014 1050 977 1081 1005 968 1036 978 
1031 959 1029 1062 987 967 1039 1046 954 
1018 1056 963 1007 1065 1021 1033 1115 988 
1064 931 1105 1020 995 962 970 1119 984 
993 1094 1045 1054 1024 1107 991 1213 1078 
1173 1220 1132 1095 1165 1159 1139 1134 1101 
1216 1102 1162 1167 1160 1093 1178 1164 1145 
1260 1193 1143 1207 1096 1117 1137 1127 1203 
1122 1168 1170 1128 1082 1201 1169 1192 1121 
1185 1206 1155 1176 1083 1227 1144 1120 1152 
1211 1157 1098 1172 1025 1129 1171 1124 1140 
1147 1103 1195 1222 1071 1135 1069 1154 1130 
1217 1084 1183 1074 1158 1221 1153 1080 1146 
1226 1092 1097 1057 1136 1131 1156 1149 1202 
1090 1142 1123 1163 1016 1204 1166 1089 1150 
1161 1060 1116 1073 1138 1125 1218 1086 1205 
1110 1214 1191 1091 1077 1175 1180 1148 1133 
1209 1151 1114 1141 1126 1088 1198 1174 1210 
1245 1277 1223 1200 1255 1265 1194 1264 1196 
1250 1268 1252 1279 1197 1275 1240 1234 1270 
1230 1261 1282 1208 1288 1238 1228 1215 1187 
1219 1181 1225 1212 1246 1272 1287 1258 1179 
1259 1188 1190 1186 1244 1281 1182 1232 1283 
1248 1285 1184 1177 1266 1249 1243 1236 1229 
1286 1189 1280 1267 1237 1253 1269 1271 1262 
1224 1276 1274 1284 1235 1251 1231 1273 1233 
1199 1256 1263 1241 1257 1242 1254 1247 1278 
1239 1342 1329 1314 1328 1344 1297 1317 1310 
1304 1316 1299 1320 1326 1324 1291 1343 1302 
1301 1321 1306 1331 1290 1313 1298 1339 1307 
1323 1296 1318 1325 1337 1315 1335 1292 1295 
1311 1308 1322 1305 1289 1309 1303 1341 1327 
1330 1293 1334 1332 1336 1338 1300 1333 1340 
1312 1294 1319 
type 1 1344 int
1 1 1 1 1 1 1 1 1 
1 1 1 1 1 1 1 1 1 
1 1 1 1 1 1 1 1 1 
1 1 1 1 1 1 1 1 1 
1 1 1 1 1 1 1 1 1 
1 1 1 1 1 1 1 1 1 
1 1 1 1 1 1 1 1 1 
1 1 1 1 1 1 1 1 1 
1 1 1 1 1 1 1 1 1 
1 1 1 1 1 1 1 1 1 
1 1 1 1 1 1 1 1 1 
1 1 1 1 1 1 1 1 1 
1 1 1 1 1 1 1 1 1 
1 1 1 1 1 1 1 1 1 
1 1 1 1 1 1 1 1 1 
1 1 1 1 1 1 1 1 1 
1 1 1 1 1 1 1 1 1 
1 1 1 1 1 1 1 1 1 
1 1 1 1 1 1 1 1 1 
1 1 1 1 1 1 1 1 1 
1 1 1 1 1 1 1 1 1 
1 1 1 1 1 1 1 1 1 
1 1 1 1 1 1 1 1 1 
1 1 1 1 1 1 1 1 1 
1 1 1 1 1 1 1 1 1 
1 1 1 1 1 1 1 1 1 
1 1 1 1 1 1 1 1 1 
1 1 1 1 1 1 1 1 1 
1 1 1 1 1 1 1 1 1 
1 1 1 1 1 1 1 1 1 
1 1 1 1 1 1 1 1 1 
1 1 1 1 1 1 1 1 1 
1 1 1 1 1 1 1 1 1 
1 1 1 1 1 1 1 1 1 
1 1 1 1 1 1 1 1 1 
1 1 1 1 1 1 1 1 1 
1 1 1 1 1 1 1 1 1 
1 1 1 1 1 1 1 1 1 
1 1 1 1 1 1 1 1 1 
1 1 1 1 1 1 1 1 1 
1 1 1 1 1 1 1 1 1 
1 1 1 1 1 1 1 1 1 
1 1 1 1 1 1 1 1 1 
1 1 1 1 1 1 1 1 1 
1 1 1 1 1 1 1 1 1 
1 1 1 1 1 1 1 1 1 
1 1 1 1 1 1 1 1 1 
1 1 1 1 1 1 1 1 1 
1 1 1 1 1 1 1 1 1 
1 1 1 1 1 1 1 1 1 
1 1 1 1 1 1 1 1 1 
1 1 1 1 1 1 1 1 1 
1 1 1 1 1 1 1 1 1 
1 1 1 1 1 1 1 1 1 
1 1 1 1 1 1 1 1 1 
1 1 1 1 1 1 1 1 1 
1 1 1 1 1 1 1 1 1 
1 1 1 1 1 1 1 1 1 
1 1 1 1 1 1 1 1 1 
1 1 1 1 1 1 1 1 1 
1 1 1 1 1 1 1 1 1 
1 1 1 1 1 1 1 1 1 
1 1 1 1 1 1 1 1 1 
1 1 1 1 1 1 1 1 1 
1 1 1 1 1 1 1 1 1 
1 1 1 1 1 1 1 1 1 
1 1 1 1 1 1 1 1 1 
1 1 1 1 1 1 1 1 1 
1 1 1 1 1 1 1 1 1 
1 1 1 1 1 1 1 1 1 
1 1 1 1 1 1 1 1 1 
1 1 1 1 1 1 1 1 1 
1 1 1 1 1 1 1 1 1 
1 1 1 1 1 1 1 1 1 
1 1 1 1 1 1 1 1 1 
1 1 1 1 1 1 1 1 1 
1 1 1 1 1 1 1 1 1 
1 1 1 1 1 1 1 1 1 
1 1 1 1 1 1 1 1 1 
1 1 1 1 1 1 1 1 1 
1 1 1 1 1 1 1 1 1 
1 1 1 1 1 1 1 1 1 
1 1 1 1 1 1 1 1 1 
1 1 1 1 1 1 1 1 1 
1 1 1 1 1 1 1 1 1 
1 1 1 1 1 1 1 1 1 
1 1 1 1 1 1 1 1 1 
1 1 1 1 1 1 1 1 1 
1 1 1 1 1 1 1 1 1 
1 1 1 1 1 1 1 1 1 
1 1 1 1 1 1 1 1 1 
1 1 1 1 1 1 1 1 1 
1 1 1 1 1 1 1 1 1 
1 1 1 1 1 1 1 1 1 
1 1 1 1 1 1 1 1 1 
1 1 1 1 1 1 1 1 1 
1 1 1 1 1 1 1 1 1 
1 1 1 1 1 1 1 1 1 
1 1 1 1 1 1 1 1 1 
1 1 1 1 1 1 1 1 1 
1 1 1 1 1 1 1 1 1 
1 1 1 1 1 1 1 1 1 
1 1 1 1 1 1 1 1 1 
1 1 1 1 1 1 1 1 1 
1 1 1 1 1 1 1 1 1 
1 1 1 1 1 1 1 1 1 
1 1 1 1 1 1 1 1 1 
1 1 1 1 1 1 1 1 1 
1 1 1 1 1 1 1 1 1 
1 1 1 1 1 1 1 1 1 
1 1 1 1 1 1 1 1 1 
1 1 1 1 1 1 1 1 1 
1 1 1 1 1 1 1 1 1 
1 1 1 1 1 1 1 1 1 
1 1 1 1 1 1 1 1 1 
1 1 1 1 1 1 1 1 1 
1 1 1 1 1 1 1 1 1 
1 1 1 1 1 1 1 1 1 
1 1 1 1 1 1 1 1 1 
1 1 1 1 1 1 1 1 1 
1 1 1 1 1 1 1 1 1 
1 1 1 1 1 1 1 1 1 
1 1 1 1 1 1 1 1 1 
1 1 1 1 1 1 1 1 1 
1 1 1 1 1 1 1 1 1 
1 1 1 1 1 1 1 1 1 
1 1 1 1 1 1 1 1 1 
1 1 1 1 1 1 1 1 1 
1 1 1 1 1 1 1 1 1 
1 1 1 1 1 1 1 1 1 
1 1 1 1 1 1 1 1 1 
1 1 1 1 1 1 1 1 1 
1 1 1 1 1 1 1 1 1 
1 1 1 1 1 1 1 1 1 
1 1 1 1 1 1 1 1 1 
1 1 1 1 1 1 1 1 1 
1 1 1 1 1 1 1 1 1 
1 1 1 1 1 1 1 1 1 
1 1 1 1 1 1 1 1 1 
1 1 1 1 1 1 1 1 1 
1 1 1 1 1 1 1 1 1 
1 1 1 1 1 1 1 1 1 
1 1 1 1 1 1 1 1 1 
1 1 1 1 1 1 1 1 1 
1 1 1 1 1 1 1 1 1 
1 1 1 1 1 1 1 1 1 
1 1 1 1 1 1 1 1 1 
1 1 1 1 1 1 1 1 1 
1 1 1 1 1 1 1 1 1 
1 1 1 
i 3 1344 int
0 1 0 0 0 0 1 1 0 
0 1 0 0 0 0 0 0 0 
0 1 0 0 0 0 0 1 0 
0 0 0 -1 0 0 0 0 0 
0 0 0 0 0 0 0 0 0 
0 0 0 0 0 0 0 1 0 
0 0 0 0 0 0 0 0 0 
0 0 0 -1 0 0 1 1 0 
0 0 0 0 0 0 0 0 0 
0 0 0 0 0 0 0 0 0 
0 0 0 0 0 0 0 0 0 
0 0 0 0 0 0 0 0 0 
0 0 0 0 0 0 0 0 0 
-1 0 0 0 0 0 0 0 0 
0 0 0 0 0 0 0 0 0 
0 0 0 0 0 0 0 0 0 
0 0 0 0 0 0 0 0 0 
0 0 0 0 0 0 0 0 0 
0 0 0 0 0 0 0 0 0 
0 0 0 0 0 0 0 0 0 
0 -1 0 1 -1 0 0 0 0 
0 0 0 0 0 0 0 0 0 
0 0 0 0 0 0 0 0 0 
0 0 0 -1 0 0 0 0 0 
0 0 0 0 0 0 0 0 0 
0 0 0 0 0 0 0 0 0 
0 0 0 0 0 0 0 0 0 
1 -1 0 0 0 0 0 0 0 
0 0 0 0 -1 0 0 0 0 
0 0 0 0 0 0 0 0 0 
0 0 0 1 0 0 0 0 0 
0 -1 0 0 -1 0 0 -1 0 
0 -1 0 0 -1 0 0 -1 0 
0 0 0 0 0 0 0 0 0 
1 0 0 0 1 0 0 0 0 
0 0 0 0 0 0 0 0 0 
0 0 0 0 1 0 0 0 0 
0 1 0 1 0 0 0 1 0 
0 0 0 0 0 0 0 0 0 
0 0 0 0 0 0 -1 1 0 
0 0 0 0 1 0 0 0 0 
0 0 0 0 0 0 0 1 0 
0 0 0 0 0 0 0 0 0 
0 0 0 0 0 0 0 0 0 
0 0 0 -1 0 0 0 0 0 
0 0 0 0 0 0 0 1 0 
0 0 0 0 0 0 0 0 0 
0 0 0 0 0 0 0 0 0 
0 0 0 -1 0 0 -1 0 0 
1 0 0 1 0 0 0 0 0 
0 0 0 0 0 0 0 0 0 
0 0 0 0 0 0 0 0 0 
0 0 0 0 0 0 -1 0 0 
0 0 0 0 0 0 0 0 0 
0 0 0 0 0 0 0 0 0 
0 0 0 -1 0 0 0 0 0 
0 0 0 0 0 0 0 0 0 
0 0 0 0 0 0 0 0 0 
-1 0 0 0 0 0 0 0 0 
0 0 0 -1 0 0 1 0 0 
0 0 0 0 0 0 0 0 0 
0 0 0 0 0 0 0 0 0 
0 0 0 0 0 0 -1 0 0 
0 0 0 0 0 0 0 -1 0 
0 0 0 0 -1 0 0 0 0 
0 0 0 0 -1 0 0 0 0 
0 0 0 0 0 0 0 0 0 
0 0 0 1 -1 0 0 0 0 
0 0 0 0 0 0 0 0 0 
0 0 0 0 -1 0 0 0 0 
0 0 0 0 0 0 -1 0 0 
0 0 0 -1 0 0 1 0 0 
0 1 0 0 0 0 0 0 0 
0 1 0 0 0 0 0 0 0 
0 0 0 0 0 0 0 0 0 
0 0 0 0 0 0 0 0 0 
0 0 0 0 1 0 0 0 0 
0 1 0 0 0 0 0 0 0 
0 0 0 0 1 0 0 0 0 
0 0 0 0 0 0 0 0 0 
0 0 0 0 0 0 0 0 0 
0 0 0 0 0 0 0 0 0 
0 0 0 0 0 0 0 0 0 
0 0 0 0 0 0 0 0 0 
0 0 0 0 0 0 0 0 0 
0 0 0 -1 0 0 0 0 0 
0 0 0 0 0 0 0 0 0 
0 0 0 0 0 0 0 0 0 
0 0 0 0 0 0 0 0 0 
-1 0 0 -1 0 0 0 0 0 
0 0 0 1 0 0 0 0 0 
1 0 0 0 0 0 1 0 0 
0 0 0 0 0 0 0 0 0 
0 0 0 0 0 0 0 0 0 
0 0 0 0 0 0 0 0 0 
1 0 0 1 0 0 0 0 0 
0 0 0 0 0 0 0 0 0 
0 0 0 0 0 0 0 0 0 
0 0 0 0 0 0 0 0 0 
0 0 0 0 0 0 0 0 0 
1 0 0 0 0 0 0 0 0 
0 0 0 0 0 0 0 0 0 
0 0 0 0 0 0 0 0 0 
0 0 0 0 0 0 0 0 0 
1 0 0 0 0 0 0 0 0 
0 0 0 0 0 0 0 -1 0 
0 0 0 0 0 0 0 0 0 
0 0 0 0 0 0 0 0 0 
0 0 0 -1 0 0 -1 0 0 
0 0 0 1 0 0 0 0 0 
0 0 0 0 0 0 0 0 0 
0 0 0 0 0 0 0 0 0 
0 0 0 0 0 0 0 0 0 
0 0 0 0 0 0 0 0 0 
0 0 0 0 -1 0 0 0 0 
0 0 0 0 0 0 0 -1 0 
0 0 0 0 0 0 0 -1 0 
0 0 0 0 -1 0 0 0 0 
0 0 0 -1 -1 0 1 0 0 
0 0 0 0 0 0 0 0 0 
0 1 0 0 1 0 0 0 0 
0 1 0 0 0 0 -1 1 0 
0 0 0 0 0 0 0 0 0 
0 0 0 0 0 0 0 0 0 
0 0 0 0 0 0 0 0 0 
0 0 0 0 0 0 0 0 0 
0 0 0 0 0 0 0 0 0 
0 1 0 0 0 0 0 0 0 
0 0 0 0 0 0 0 0 0 
0 0 0 0 0 0 0 0 0 
0 0 0 0 0 0 0 0 0 
0 0 0 0 0 0 0 0 0 
0 0 0 0 0 0 0 0 0 
-1 0 0 0 0 0 0 0 0 
0 0 0 0 0 0 0 0 0 
0 0 0 0 0 0 0 0 0 
0 0 0 0 0 0 0 0 0 
0 0 0 0 0 0 -1 0 0 
0 0 0 0 0 0 0 0 0 
0 0 0 0 0 0 0 0 0 
0 0 0 0 0 0 0 0 0 
0 0 0 -1 0 0 0 0 0 
-1 0 0 0 0 0 0 0 0 
0 0 0 1 0 0 0 0 0 
0 0 0 0 0 0 0 0 0 
0 0 0 0 0 0 0 0 0 
0 0 0 0 0 0 0 0 0 
0 0 0 0 0 0 0 0 0 
0 0 0 0 0 0 0 0 0 
0 0 0 0 0 0 0 0 0 
-1 0 0 0 0 0 1 0 0 
0 0 0 0 -1 0 0 0 0 
0 0 0 0 0 0 0 -1 0 
0 0 0 0 0 0 0 0 0 
0 0 0 0 0 0 0 0 0 
1 0 0 1 -1 0 0 0 0 
0 0 0 0 -1 0 0 0 0 
0 0 0 0 0 0 0 0 0 
0 -1 0 0 -1 0 0 0 0 
0 0 0 0 0 0 0 0 0 
0 1 0 0 0 0 0 0 0 
0 0 0 0 0 0 0 0 0 
0 1 0 0 0 0 0 0 0 
0 0 0 0 0 0 0 0 0 
0 0 0 0 0 0 0 0 0 
0 0 0 0 1 0 0 0 0 
0 0 0 0 0 0 0 0 0 
0 0 0 1 0 0 0 0 0 
0 0 0 0 0 0 0 0 0 
0 0 0 0 0 0 0 0 0 
0 0 0 0 0 0 0 0 0 
0 0 0 -1 0 0 0 0 0 
0 0 0 0 0 0 0 0 0 
0 0 0 0 0 0 0 0 0 
0 0 0 0 0 0 0 0 0 
-1 0 0 0 0 0 0 0 0 
0 0 0 0 0 0 0 0 0 
0 0 0 0 0 0 0 0 0 
0 0 0 0 0 0 0 0 0 
0 0 0 0 0 0 0 0 0 
0 0 0 0 0 0 0 0 0 
0 0 0 0 0 0 0 0 0 
-1 0 0 1 0 0 0 0 0 
0 0 0 0 0 0 0 0 0 
0 0 0 0 0 0 0 0 0 
0 0 0 0 0 0 0 0 0 
0 0 0 0 0 0 0 0 0 
0 0 0 0 0 0 0 0 0 
0 0 0 0 0 0 0 0 0 
0 0 0 0 0 0 0 0 0 
0 0 0 0 0 0 0 0 0 
0 0 0 0 0 0 0 0 0 
0 0 0 0 0 0 0 0 0 
0 0 0 0 0 0 0 0 0 
0 0 0 0 0 0 1 0 0 
0 0 0 0 0 0 0 0 0 
1 0 0 0 -1 0 0 -1 0 
0 0 0 0 0 0 0 0 0 
0 -1 0 0 -1 0 1 0 0 
0 0 0 0 0 0 0 0 0 
0 0 0 0 0 0 0 0 0 
0 1 0 0 0 0 0 0 0 
0 0 0 -1 0 0 0 0 0 
0 0 0 0 0 0 0 0 0 
0 1 0 0 0 0 0 0 0 
0 0 0 0 0 0 0 0 0 
0 0 0 0 0 0 0 0 0 
-1 0 0 1 0 0 0 0 0 
0 0 0 0 0 0 0 0 0 
0 0 0 0 0 0 0 0 0 
0 0 0 0 0 0 0 0 0 
0 0 0 0 0 0 1 0 0 
0 0 0 0 0 0 0 0 0 
0 0 0 0 0 0 0 0 0 
0 0 0 0 0 0 0 0 0 
0 0 0 0 0 0 -1 0 0 
0 0 0 1 0 0 1 0 0 
0 0 0 0 0 0 0 0 0 
0 0 0 0 0 0 0 0 0 
0 0 0 0 0 0 0 0 0 
0 0 0 1 0 0 0 0 0 
0 0 0 0 0 0 0 0 0 
0 0 0 0 0 0 0 0 0 
0 0 0 0 0 0 0 0 0 
0 0 0 0 0 0 0 0 0 
0 0 0 0 0 0 0 0 0 
0 0 0 0 0 0 0 0 0 
0 0 0 0 0 0 0 0 0 
0 0 0 0 0 0 0 0 0 
0 0 0 0 0 0 0 0 0 
0 0 0 0 0 0 0 0 0 
0 0 0 0 0 0 0 0 0 
-1 0 0 0 0 0 0 0 0 
0 0 0 0 0 0 0 0 0 
0 0 0 0 0 0 0 0 0 
0 0 0 0 0 0 0 -1 0 
0 0 0 1 0 0 0 0 0 
0 0 0 0 0 0 0 -1 0 
0 -1 0 0 0 0 0 0 0 
0 0 0 0 0 0 0 -1 0 
0 0 0 -1 0 0 0 0 0 
1 0 0 0 0 0 0 0 0 
0 0 0 0 0 0 0 0 0 
0 1 0 0 0 0 0 0 0 
0 0 0 0 0 0 0 0 0 
-1 1 0 1 0 0 0 0 0 
0 0 0 0 0 0 0 0 0 
0 0 0 0 0 0 0 0 0 
0 0 0 0 0 0 0 0 0 
0 0 0 0 0 0 0 0 0 
0 0 0 0 0 0 0 0 0 
0 0 0 0 0 0 0 0 0 
0 0 0 0 0 0 0 0 0 
0 0 0 -1 0 0 0 0 0 
0 0 0 0 0 0 0 0 0 
0 0 0 0 0 0 0 0 0 
0 0 0 0 0 0 0 0 0 
0 0 0 0 0 0 0 0 0 
0 0 0 0 0 0 0 0 0 
0 0 0 0 0 0 0 0 0 
0 0 0 0 0 0 0 0 0 
0 0 0 0 0 0 0 0 0 
0 0 0 0 0 0 0 0 0 
0 0 0 0 0 0 0 0 0 
0 0 0 0 0 0 0 0 0 
0 0 0 1 0 0 0 0 0 
0 0 0 0 0 0 0 0 0 
0 0 0 0 0 0 0 0 0 
0 0 0 0 0 0 0 0 0 
0 0 0 1 0 0 0 0 0 
0 0 0 0 0 0 0 0 0 
0 0 0 0 0 0 0 0 0 
0 0 0 0 0 0 0 0 0 
0 0 0 0 0 0 0 0 0 
0 0 0 0 0 0 0 0 0 
0 0 0 0 0 0 0 0 0 
0 0 0 0 0 0 -1 0 0 
0 0 0 1 0 0 0 0 0 
0 -1 0 0 0 0 0 0 0 
0 0 0 0 0 0 0 -1 0 
0 0 0 0 -1 0 0 0 0 
0 0 0 0 0 0 -1 0 0 
0 0 0 1 0 0 0 0 0 
0 0 0 0 0 0 0 1 0 
0 0 0 0 0 0 0 0 0 
0 0 0 1 0 0 0 0 0 
0 0 0 0 1 0 0 0 0 
0 0 0 0 0 0 0 0 0 
0 0 0 -1 0 0 0 0 0 
0 0 0 0 0 0 0 0 0 
0 0 0 0 0 0 0 0 0 
0 0 0 0 0 0 0 0 0 
0 0 0 0 0 0 0 0 0 
1 0 0 0 0 0 0 0 0 
0 0 0 0 0 0 0 0 0 
0 0 0 0 0 0 0 0 0 
0 0 0 0 0 0 0 0 0 
0 0 0 0 0 0 0 0 0 
0 0 0 0 0 0 0 0 0 
0 0 0 0 0 0 0 0 0 
0 0 0 0 0 0 -1 0 0 
-1 0 0 0 0 0 0 0 0 
0 0 0 0 0 0 0 0 0 
0 0 0 0 0 0 0 0 0 
0 0 0 0 0 0 0 0 0 
0 0 0 0 0 0 0 0 0 
0 0 0 0 0 0 0 0 0 
0 0 0 0 0 0 0 0 0 
0 0 0 0 0 0 0 0 0 
0 0 0 0 0 0 0 0 0 
1 0 0 0 0 0 0 0 0 
0 0 0 0 0 0 0 0 0 
0 0 0 0 0 0 0 0 0 
0 0 0 0 0 0 0 0 0 
0 0 0 0 0 0 0 0 0 
0 0 0 0 0 0 0 0 0 
0 0 0 0 0 0 0 0 0 
0 -1 0 0 0 0 0 0 0 
0 0 0 0 0 0 0 0 0 
0 0 0 0 0 0 0 0 0 
0 0 0 0 -1 0 0 0 0 
0 0 0 0 -1 0 0 0 0 
0 0 0 0 0 0 0 0 0 
0 0 0 0 0 0 0 0 0 
0 0 0 0 0 0 0 0 0 
0 1 0 0 0 0 0 0 0 
0 0 0 1 0 0 0 0 0 
0 0 0 0 0 0 0 0 0 
0 0 0 0 0 0 0 0 0 
0 0 0 0 0 0 0 0 0 
0 0 0 0 0 0 0 0 0 
0 0 0 0 0 0 0 0 0 
0 0 0 0 0 0 0 0 0 
0 0 0 0 0 0 -1 1 0 
0 0 0 0 0 0 1 0 0 
0 0 0 0 0 0 0 0 0 
0 0 0 0 0 0 0 0 0 
0 0 0 0 0 0 0 0 0 
0 0 0 0 0 0 0 0 0 
0 0 0 0 0 0 0 0 0 
0 0 0 0 0 0 0 0 0 
0 0 0 0 0 0 0 0 0 
-1 0 0 1 0 0 0 0 0 
0 0 0 0 0 0 0 0 0 
0 0 0 0 0 0 0 0 0 
0 0 0 0 0 0 0 0 0 
0 0 0 0 0 0 0 0 0 
0 0 0 0 0 0 0 0 0 
0 0 0 0 0 0 0 0 0 
0 0 0 0 0 0 -1 0 0 
0 0 0 0 0 0 0 0 0 
0 0 0 0 0 0 0 0 0 
0 0 0 0 0 0 0 0 0 
0 0 0 0 0 0 1 0 0 
0 0 0 0 -1 0 0 0 0 
0 0 0 0 0 0 0 0 0 
0 0 0 0 0 0 0 0 0 
0 0 0 0 -1 0 0 -1 0 
0 -1 0 0 0 0 0 -1 0 
0 0 0 0 0 0 0 -1 0 
0 0 0 0 0 0 0 0 0 
0 0 0 0 0 0 -1 0 0 
0 0 0 0 0 0 0 1 0 
0 0 0 0 0 0 0 0 0 
0 1 0 0 0 0 0 0 0 
0 1 0 -1 0 0 1 0 0 
0 0 0 0 0 0 0 0 0 
0 0 0 0 0 0 0 0 0 
0 0 0 0 0 0 0 0 0 
0 0 0 0 0 0 0 0 0 
0 0 0 0 0 0 0 0 0 
0 0 0 0 0 0 0 0 0 
0 0 0 0 0 0 0 0 0 
0 0 0 0 0 0 0 0 0 
0 0 0 0 0 0 0 0 0 
0 0 0 0 0 0 0 0 0 
0 0 0 0 0 0 0 0 0 
0 0 0 1 0 0 0 0 0 
1 0 0 0 0 0 0 0 0 
0 0 0 0 0 0 0 0 0 
0 0 0 0 0 0 0 0 0 
0 0 0 0 0 0 0 0 0 
0 0 0 0 0 0 0 0 0 
0 0 0 0 0 0 0 0 0 
0 0 0 0 0 0 0 0 0 
0 0 0 0 0 0 -1 0 0 
1 -1 0 0 0 0 0 0 0 
0 0 0 0 0 0 0 0 0 
0 0 0 0 0 0 0 0 0 
0 0 0 -1 0 0 0 0 0 
0 0 0 0 0 0 0 0 0 
0 0 0 0 0 0 0 0 0 
0 0 0 0 0 0 0 0 0 
0 0 0 -1 0 0 0 0 0 
0 0 0 0 0 0 0 0 0 
0 0 0 0 0 0 0 0 0 
0 0 0 0 0 0 0 0 0 
-1 0 0 0 0 0 0 0 0 
0 0 0 0 0 0 0 -1 0 
0 0 0 0 0 0 0 0 0 
0 -1 0 0 0 0 0 0 0 
0 0 0 0 0 0 0 0 0 
0 0 0 0 0 0 0 0 0 
0 0 0 0 0 0 0 0 0 
0 0 0 0 0 0 0 0 0 
0 0 0 0 0 0 0 0 0 
0 0 0 0 0 0 0 0 0 
0 0 0 0 0 0 0 0 0 
0 0 0 0 0 0 0 0 0 
0 0 0 0 0 0 0 0 0 
0 0 0 0 0 0 0 0 0 
-1 0 0 0 0 0 0 0 0 
0 0 0 0 0 0 0 0 0 
0 0 0 0 0 0 0 0 0 
0 0 0 0 0 0 0 0 0 
0 0 0 0 0 0 0 0 0 
0 0 0 0 0 0 0 0 0 
0 0 0 0 0 0 0 0 0 
0 0 0 0 0 0 0 0 0 
0 0 0 0 0 0 0 0 0 
0 0 0 0 0 0 0 0 0 
0 0 0 0 0 0 0 0 0 
0 0 0 0 0 0 0 0 0 
-1 0 0 0 0 0 0 0 0 
0 -1 0 0 -1 0 0 -1 0 
0 0 0 0 0 0 0 0 0 
0 0 0 0 0 0 0 0 0 
0 0 0 0 0 0 0 0 0 
0 0 0 0 0 0 0 0 0 
0 0 0 0 0 0 0 0 0 
0 0 0 0 0 0 0 0 0 
0 0 0 0 0 0 0 0 0 
0 0 0 0 0 0 0 0 0 
0 0 0 0 0 0 0 0 0 
0 0 0 0 0 0 0 0 0 
0 0 0 0 0 0 0 0 0 
0 0 0 0 0 0 0 0 0 
0 0 0 0 0 0 0 0 0 
0 0 0 0 0 0 0 0 0 
0 0 0 0 0 0 0 0 0 
0 0 0 0 0 0 0 0 0 
0 0 0 0 0 0 0 0 0 
0 0 0 0 0 0 0 0 0 
0 0 0 0 0 0 0 0 0 
0 0 0 0 0 0 0 0 0 
0 0 0 0 0 0 0 0 0 
0 0 0 0 0 0 0 0 0 
0 0 0 0 0 0 0 0 0 

v 3 1344 double
-9.218e-06 5.64992e-06 -3.29352e-05 -5.58059e-06 1.52393e-05 -4.46671e-05 -9.77538e-06 6.3231e-06 -5.91822e-05 
-4.07968e-05 3.84695e-05 -4.18026e-05 5.35573e-05 -1.30543e-05 -4.93677e-05 8.96036e-05 3.06609e-05 -6.74224e-05 
4.88807e-05 -6.19288e-06 -6.03706e-05 3.69537e-05 1.7629e-05 -6.10002e-05 4.61085e-05 2.59263e-05 -7.44791e-05 
9.85111e-06 8.01733e-06 -7.07766e-05 -1.4268e-05 2.43337e-05 -5.13245e-05 -1.34078e-05 1.89134e-05 -5.23256e-05 
-8.81187e-06 -2.51455e-06 -4.82553e-05 7.8802e-06 1.63614e-05 -6.9031e-05 1.55756e-05 1.03931e-05 -6.01602e-05 
8.26083e-05 5.27725e-05 -5.1635e-05 3.1657e-05 8.41158e-05 -5.0494e-05 -3.61749e-06 5.03216e-05 -4.89904e-05 
2.15983e-05 1.50773e-05 -3.96059e-05 2.36109e-05 1.3671e-06 -5.11141e-05 5.92656e-06 2.49998e-05 -6.08974e-05 
-3.24614e-06 3.90272e-05 -5.53674e-05 9.13476e-06 4.79299e-05 -8.05127e-05 1.51698e-05 0.000135727 -5.12422e-05 
-8.61185e-06 8.00297e-06 -6.11264e-05 -2.44779e-05 -3.28389e-05 -2.20391e-05 8.27655e-05 8.45992e-05 -3.29322e-05 
-0.000184299 -1.78553e-05 -4.3693e-09 8.05779e-05 0.000111126 -3.60129e-05 4.51593e-05 2.57584e-05 -2.13465e-05 
-3.86834e-07 2.91517e-05 -3.4759e-05 -1.84394e-05 6.61436e-05 -6.73127e-05 9.58531e-05 2.3117e-05 -4.39867e-05 
9.15914e-05 8.24913e-05 -2.25236e-05 9.71929e-05 7.43978e-05 -5.3707e-05 -9.60263e-05 -2.87663e-05 2.78635e-16 
0.000117015 8.92868e-05 -3.7292e-06 9.40963e-05 8.03895e-05 9.72958e-06 1.96143e-05 1.82561e-05 -1.66814e-05 
-2.65695e-05 5.43317e-05 -5.71898e-05 3.65525e-05 1.64357e-05 -4.39374e-05 5.1755e-05 3.02275e-05 -7.40913e-05 
-1.09534e-05 0.000170579 2.99025e-08 0.000114466 5.58335e-05 -3.57135e-05 1.5632e-05 8.83909e-05 8.77588e-06 
2.9721e-05 2.5542e-05 1.55301e-05 4.47405e-06 1.53795e-05 -2.94863e-05 2.98199e-05 8.67118e-06 -3.54123e-05 
-9.30957e-06 1.08297e-07 -5.11282e-05 -4.32043e-05 7.04981e-05 -4.21662e-05 2.05669e-05 1.36372e-06 -4.22225e-05 
2.83585e-05 -1.07792e-05 -3.28397e-05 2.66212e-05 1.25162e-05 -4.22414e-05 4.07975e-05 1.13098e-05 -6.01508e-05 
6.75973e-05 3.11097e-05 -7.04358e-05 0.000103331 7.30985e-05 2.5948e-05 2.86197e-05 3.66834e-05 -4.80707e-06 
5.68963e-05 2.89817e-05 1.94805e-05 -3.28717e-05 -1.15169e-06 -4.14272e-05 -1.44671e-05 -1.72873e-05 -2.92984e-05 
1.18197e-05 -7.04949e-06 -6.44676e-05 8.12837e-06 4.71119e-06 -4.21279e-05 4.50851e-05 -4.82627e-06 -7.03285e-05 
3.17763e-05 2.41565e-05 -4.69975e-05 3.84137e-05 4.77507e-05 -3.13563e-05 -4.90573e-06 3.65153e-05 -3.75251e-05 
-5.80324e-06 2.13571e-05 9.12737e-06 2.65258e-05 2.53189e-05 -1.07082e-05 1.46421e-05 3.23638e-05 -3.52537e-05 