/*--------------------------------*- C++ -*----------------------------------*\
| =========                 |                                                 |
| \\      /  F ield         | OpenFOAM: The Open Source CFD Toolbox           |
|  \\    /   O peration     | Version:  5.x                                   |
|   \\  /    A nd           | Web:      www.OpenFOAM.org                      |
|    \\/     M anipulation  |                                                 |
\*---------------------------------------------------------------------------*/
FoamFile
{
    version     2.0;
    format      ascii;
    class       surfaceScalarField;
    location    "600";
    object      phi;
}
// * * * * * * * * * * * * * * * * * * * * * * * * * * * * * * * * * * * * * //

dimensions      [0 3 -1 0 0 0 0];

internalField   nonuniform List<scalar> 
89
(
-0.0250001
-0.0250001
-0.0250001
-0.0250001
-0.025
-0.025
-0.025
-0.025
-0.025
-0.0249999
-0.0249998
-0.0249997
-0.0249995
-0.0249993
-0.0249989
-0.0249983
-0.0249974
-0.0249962
-0.0249946
-0.0249922
-0.024989
-0.0249846
-0.0249786
-0.0249704
-0.0249592
-0.024944
-0.0249234
-0.0248954
-0.0248576
-0.0248065
-0.0247376
-0.0246448
-0.0245197
-0.0243509
-0.0241221
-0.0238228
-0.0234481
-0.0230406
-0.022589
-0.0232786
-0.0232527
-0.0229705
-0.0226233
-0.0224851
-0.0227872
-0.0230278
-0.0228959
-0.0226236
-0.0225097
-0.0227079
-0.0229943
-0.0230032
-0.0231645
-0.0233249
-0.0237532
-0.0240984
-0.0243509
-0.0245358
-0.0246715
-0.0247707
-0.0248408
-0.024891
-0.0249271
-0.0249527
-0.0249706
-0.0249829
-0.0249913
-0.0249968
-0.0250003
-0.0250024
-0.0250036
-0.0250042
-0.0250044
-0.0250043
-0.025004
-0.0250037
-0.0250032
-0.0250028
-0.0250023
-0.0250019
-0.0250015
-0.0250012
-0.0250009
-0.0250006
-0.0250004
-0.0250003
-0.0250002
-0.0250002
-0.0250001
)
;

boundaryField
{
    inlet
    {
        type            calculated;
        value           uniform -0.0250001;
    }
    outlet
    {
        type            calculated;
        value           uniform 0.0250001;
    }
    repeat_boundary
    {
        type            calculated;
        value           uniform 0;
    }
    procBoundary3to1
    {
        type            processor;
        value           nonuniform List<scalar> 
90
(
1.23639e-08
2.20878e-08
3.43633e-08
4.84488e-08
6.47539e-08
8.37779e-08
1.05994e-07
1.31838e-07
1.61735e-07
1.96076e-07
2.35179e-07
2.79221e-07
3.2814e-07
3.8148e-07
4.38168e-07
4.96219e-07
5.52389e-07
6.01428e-07
6.3473e-07
6.39352e-07
5.95747e-07
4.80516e-07
2.8452e-07
-6.80482e-08
-6.72253e-07
-1.59908e-06
-2.98547e-06
-5.02061e-06
-7.96293e-06
-1.21657e-05
-1.81117e-05
-2.64632e-05
-3.81481e-05
-5.45905e-05
-7.81655e-05
-0.00010545
-0.000138034
-0.00015674
-0.000181747
0.000270536
-1.14213e-05
-7.20595e-05
-0.000116167
-9.38096e-05
0.000112092
1.39553e-05
-0.000292558
-0.000445436
-0.000180891
2.6459e-05
9.44038e-05
-3.82282e-05
9.47225e-06
0.000215608
0.000298046
0.000252114
0.000194492
0.000148729
0.000113714
8.69589e-05
6.6573e-05
5.10012e-05
3.90945e-05
2.99911e-05
2.30297e-05
1.7703e-05
1.36235e-05
1.04961e-05
8.09656e-06
6.25433e-06
4.83924e-06
3.75183e-06
2.91587e-06
2.2728e-06
1.77754e-06
1.39535e-06
1.09946e-06
8.69345e-07
6.89291e-07
5.47383e-07
4.34658e-07
3.44431e-07
2.71762e-07
2.13002e-07
1.65467e-07
1.27216e-07
9.68764e-08
7.35696e-08
5.65206e-08
4.85262e-08
)
;
    }
    procBoundary3to2
    {
        type            processor;
        value           nonuniform List<scalar> 
90
(
-1.47483e-08
-2.83386e-08
-4.45347e-08
-6.25715e-08
-8.31104e-08
-1.07149e-07
-1.35909e-07
-1.70939e-07
-2.14273e-07
-2.68516e-07
-3.36997e-07
-4.2397e-07
-5.34886e-07
-6.76765e-07
-8.58674e-07
-1.09238e-06
-1.39317e-06
-1.78095e-06
-2.28164e-06
-2.92906e-06
-3.7674e-06
-4.85446e-06
-6.26589e-06
-8.09994e-06
-1.04859e-05
-1.35941e-05
-1.76485e-05
-2.29437e-05
-2.98679e-05
-3.8933e-05
-5.08152e-05
-6.64143e-05
-8.69665e-05
-0.00011428
-0.000150662
-0.000193889
-0.000236693
-0.000250789
-0.000269893
0.000419003
-1.45397e-05
-0.000210089
-0.000231154
-4.43718e-05
0.000189975
0.000226631
0.000160532
0.000173231
6.69312e-05
0.000171803
0.000192008
4.72029e-05
0.000151963
-5.51139e-05
0.000130309
9.31991e-05
5.81192e-05
3.61429e-05
2.20627e-05
1.22397e-05
3.53191e-06
-8.71088e-07
-3.04579e-06
-4.38861e-06
-5.13865e-06
-5.40841e-06
-5.33477e-06
-5.04167e-06
-4.62635e-06
-4.15638e-06
-3.67457e-06
-3.20734e-06
-2.77024e-06
-2.37162e-06
-2.01514e-06
-1.70141e-06
-1.42898e-06
-1.19532e-06
-9.97301e-07
-8.31419e-07
-6.94033e-07
-5.81536e-07
-4.90455e-07
-4.17525e-07
-3.59741e-07
-3.14391e-07
-2.79052e-07
-2.5147e-07
-2.29425e-07
-2.18066e-07
)
;
    }
}


// ************************************************************************* //
