/*--------------------------------*- C++ -*----------------------------------*\
| =========                 |                                                 |
| \\      /  F ield         | OpenFOAM: The Open Source CFD Toolbox           |
|  \\    /   O peration     | Version:  5.x                                   |
|   \\  /    A nd           | Web:      www.OpenFOAM.org                      |
|    \\/     M anipulation  |                                                 |
\*---------------------------------------------------------------------------*/
FoamFile
{
    version     2.0;
    format      ascii;
    class       volVectorField;
    location    "600";
    object      Us;
}
// * * * * * * * * * * * * * * * * * * * * * * * * * * * * * * * * * * * * * //

dimensions      [0 1 -1 0 0 0 0];

internalField   nonuniform List<vector> 
90
(
(0 0 0)
(0 0 0)
(0 0 0)
(0 0 0)
(0 0 0)
(0 0 0)
(0 0 0)
(0 0 0)
(0 0 0)
(0 0 0)
(0 0 0)
(0 0 0)
(0 0 0)
(0 0 0)
(0 0 0)
(0 0 0)
(0 0 0)
(0 0 0)
(0 0 0)
(0 0 0)
(0 0 0)
(0 0 0)
(0 0 0)
(0 0 0)
(0 0 0)
(0 0 0)
(0 0 0)
(0 0 0)
(0 0 0)
(0 0 0)
(0 0 0)
(0 0 0)
(0 0 0)
(0 0 0)
(0 0 0)
(0 0 0)
(0 0 0)
(0 0 0)
(0 0 0)
(0 0 0)
(5.35872e-06 3.9648e-06 -1.39367e-08)
(1.11183e-05 6.77144e-06 -2.89477e-07)
(1.53652e-05 8.84538e-06 -2.96532e-07)
(2.05582e-05 1.09398e-05 2.3244e-07)
(2.65762e-05 1.41465e-05 7.77569e-07)
(3.12316e-05 1.7141e-05 8.47656e-07)
(3.64803e-05 1.991e-05 7.98224e-07)
(4.12279e-05 2.26588e-05 1.80491e-06)
(4.64559e-05 2.56319e-05 2.39066e-06)
(4.9446e-05 2.81256e-05 2.88148e-06)
(5.35725e-05 2.99772e-05 3.09472e-06)
(5.53479e-05 2.87535e-05 -8.86186e-06)
(3.28751e-05 6.61623e-06 -9.18371e-05)
(8.6101e-05 -7.63939e-05 -0.00027834)
(0 0 0)
(0 0 0)
(0 0 0)
(0 0 0)
(0 0 0)
(0 0 0)
(0 0 0)
(0 0 0)
(0 0 0)
(0 0 0)
(0 0 0)
(0 0 0)
(0 0 0)
(0 0 0)
(0 0 0)
(0 0 0)
(0 0 0)
(0 0 0)
(0 0 0)
(0 0 0)
(0 0 0)
(0 0 0)
(0 0 0)
(0 0 0)
(0 0 0)
(0 0 0)
(0 0 0)
(0 0 0)
(0 0 0)
(0 0 0)
(0 0 0)
(0 0 0)
(0 0 0)
(0 0 0)
(0 0 0)
(0 0 0)
)
;

boundaryField
{
    inlet
    {
        type            fixedValue;
        value           uniform (0 0 0);
    }
    outlet
    {
        type            fixedValue;
        value           uniform (0 0 0);
    }
    repeat_boundary
    {
        type            fixedValue;
        value           uniform (0 0 0);
    }
    procBoundary3to1
    {
        type            processor;
        value           nonuniform List<vector> 
90
(
(0 0 0)
(0 0 0)
(0 0 0)
(0 0 0)
(0 0 0)
(0 0 0)
(0 0 0)
(0 0 0)
(0 0 0)
(0 0 0)
(0 0 0)
(0 0 0)
(0 0 0)
(0 0 0)
(0 0 0)
(0 0 0)
(0 0 0)
(0 0 0)
(0 0 0)
(0 0 0)
(0 0 0)
(0 0 0)
(0 0 0)
(0 0 0)
(0 0 0)
(0 0 0)
(0 0 0)
(0 0 0)
(0 0 0)
(0 0 0)
(0 0 0)
(0 0 0)
(0 0 0)
(0 0 0)
(0 0 0)
(0 0 0)
(0 0 0)
(0 0 0)
(0 0 0)
(0 0 0)
(4.30428e-06 3.00625e-06 6.41658e-08)
(9.43337e-06 5.59627e-06 3.05256e-07)
(1.34971e-05 7.96951e-06 5.91884e-07)
(1.93531e-05 1.12294e-05 -5.23675e-08)
(2.52423e-05 1.39396e-05 -1.52036e-07)
(3.04235e-05 1.73387e-05 -9.69396e-09)
(3.69782e-05 2.08522e-05 1.24265e-06)
(4.19433e-05 2.42181e-05 5.43507e-07)
(4.67237e-05 2.66465e-05 -4.34453e-07)
(5.03643e-05 2.86227e-05 -5.57194e-07)
(5.47904e-05 3.08313e-05 1.99488e-07)
(5.54039e-05 3.09018e-05 -9.63954e-07)
(5.89701e-05 3.51424e-05 -1.39853e-06)
(0 0 0)
(0 0 0)
(0 0 0)
(0 0 0)
(0 0 0)
(0 0 0)
(0 0 0)
(0 0 0)
(0 0 0)
(0 0 0)
(0 0 0)
(0 0 0)
(0 0 0)
(0 0 0)
(0 0 0)
(0 0 0)
(0 0 0)
(0 0 0)
(0 0 0)
(0 0 0)
(0 0 0)
(0 0 0)
(0 0 0)
(0 0 0)
(0 0 0)
(0 0 0)
(0 0 0)
(0 0 0)
(0 0 0)
(0 0 0)
(0 0 0)
(0 0 0)
(0 0 0)
(0 0 0)
(0 0 0)
(0 0 0)
(0 0 0)
)
;
    }
    procBoundary3to2
    {
        type            processor;
        value           nonuniform List<vector> 
90
(
(0 0 0)
(0 0 0)
(0 0 0)
(0 0 0)
(0 0 0)
(0 0 0)
(0 0 0)
(0 0 0)
(0 0 0)
(0 0 0)
(0 0 0)
(0 0 0)
(0 0 0)
(0 0 0)
(0 0 0)
(0 0 0)
(0 0 0)
(0 0 0)
(0 0 0)
(0 0 0)
(0 0 0)
(0 0 0)
(0 0 0)
(0 0 0)
(0 0 0)
(0 0 0)
(0 0 0)
(0 0 0)
(0 0 0)
(0 0 0)
(0 0 0)
(0 0 0)
(0 0 0)
(0 0 0)
(0 0 0)
(0 0 0)
(0 0 0)
(0 0 0)
(0 0 0)
(0 0 0)
(6.64133e-06 1.9902e-06 2.40505e-07)
(1.08864e-05 5.39699e-06 7.91337e-07)
(1.56287e-05 8.14553e-06 7.56214e-07)
(2.05902e-05 1.07064e-05 1.06344e-06)
(2.53878e-05 1.37901e-05 1.01385e-06)
(3.11147e-05 1.63746e-05 1.30817e-06)
(3.70867e-05 1.89313e-05 1.51167e-06)
(4.22581e-05 2.28109e-05 1.23206e-06)
(4.72936e-05 2.56501e-05 7.97598e-07)
(5.13106e-05 2.84653e-05 4.73839e-07)
(5.44298e-05 3.18555e-05 2.91654e-07)
(4.29181e-05 3.19783e-05 -1.15869e-05)
(2.18973e-05 0.000170708 -5.94678e-05)
(0.000124719 0.000554293 -0.0001055)
(0 0 0)
(0 0 0)
(0 0 0)
(0 0 0)
(0 0 0)
(0 0 0)
(0 0 0)
(0 0 0)
(0 0 0)
(0 0 0)
(0 0 0)
(0 0 0)
(0 0 0)
(0 0 0)
(0 0 0)
(0 0 0)
(0 0 0)
(0 0 0)
(0 0 0)
(0 0 0)
(0 0 0)
(0 0 0)
(0 0 0)
(0 0 0)
(0 0 0)
(0 0 0)
(0 0 0)
(0 0 0)
(0 0 0)
(0 0 0)
(0 0 0)
(0 0 0)
(0 0 0)
(0 0 0)
(0 0 0)
(0 0 0)
)
;
    }
}


// ************************************************************************* //
