/*--------------------------------*- C++ -*----------------------------------*\
| =========                 |                                                 |
| \\      /  F ield         | OpenFOAM: The Open Source CFD Toolbox           |
|  \\    /   O peration     | Version:  5.x                                   |
|   \\  /    A nd           | Web:      www.OpenFOAM.org                      |
|    \\/     M anipulation  |                                                 |
\*---------------------------------------------------------------------------*/
FoamFile
{
    version     2.0;
    format      ascii;
    class       volVectorField;
    location    "3000";
    object      stored_U;
}
// * * * * * * * * * * * * * * * * * * * * * * * * * * * * * * * * * * * * * //

dimensions      [0 1 -1 0 0 0 0];

internalField   nonuniform List<vector> 
180
(
(1.02468e-07 6.1858e-08 -0.000996687)
(3.14669e-07 2.05652e-07 -0.000996497)
(5.3191e-07 3.48481e-07 -0.000996393)
(7.38237e-07 4.77017e-07 -0.000996431)
(9.31349e-07 5.87842e-07 -0.000996503)
(1.10875e-06 6.77021e-07 -0.000996597)
(1.26793e-06 7.40519e-07 -0.000996716)
(1.40711e-06 7.74891e-07 -0.000996859)
(1.52517e-06 7.77206e-07 -0.000997027)
(1.62178e-06 7.45096e-07 -0.000997219)
(1.69741e-06 6.76777e-07 -0.000997431)
(1.7534e-06 5.71055e-07 -0.000997663)
(1.792e-06 4.27324e-07 -0.000997912)
(1.81636e-06 2.45519e-07 -0.000998174)
(1.83058e-06 2.60853e-08 -0.000998445)
(1.83967e-06 -2.30101e-07 -0.000998718)
(1.84955e-06 -5.21828e-07 -0.000998991)
(1.86676e-06 -8.47789e-07 -0.000999258)
(1.89856e-06 -1.20666e-06 -0.000999514)
(1.95262e-06 -1.59735e-06 -0.000999753)
(2.03778e-06 -2.01878e-06 -0.000999962)
(2.16378e-06 -2.47011e-06 -0.00100014)
(2.34036e-06 -2.95223e-06 -0.00100028)
(2.57788e-06 -3.46663e-06 -0.00100038)
(2.88743e-06 -4.01551e-06 -0.00100044)
(3.28052e-06 -4.60259e-06 -0.00100044)
(3.76906e-06 -5.23334e-06 -0.00100039)
(4.36543e-06 -5.91531e-06 -0.0010003)
(5.08248e-06 -6.65837e-06 -0.00100016)
(5.93367e-06 -7.47514e-06 -0.000999983)
(6.93315e-06 -8.38123e-06 -0.000999786)
(8.09595e-06 -9.39572e-06 -0.00099958)
(9.43815e-06 -1.05415e-05 -0.000999384)
(1.09772e-05 -1.18459e-05 -0.000999221)
(1.2732e-05 -1.33408e-05 -0.000999119)
(1.47236e-05 -1.50638e-05 -0.000999111)
(1.69756e-05 -1.70584e-05 -0.000999232)
(1.95141e-05 -1.93749e-05 -0.000999526)
(2.23689e-05 -2.20713e-05 -0.00100004)
(2.55738e-05 -2.52142e-05 -0.00100083)
(2.91673e-05 -2.88801e-05 -0.00100196)
(3.31933e-05 -3.31569e-05 -0.0010035)
(3.7702e-05 -3.8145e-05 -0.00100552)
(4.27511e-05 -4.39589e-05 -0.0010081)
(4.8407e-05 -5.07294e-05 -0.00101134)
(5.4746e-05 -5.8605e-05 -0.00101532)
(6.18564e-05 -6.7754e-05 -0.00102015)
(6.98405e-05 -7.83655e-05 -0.0010259)
(7.88188e-05 -9.06488e-05 -0.00103268)
(8.89282e-05 -0.000104845 -0.00104071)
(0.000100321 -0.000121236 -0.0010502)
(0.000113171 -0.000140146 -0.00106137)
(0.000127676 -0.000161942 -0.00107447)
(0.000144061 -0.000187046 -0.0010898)
(0.000162579 -0.000215938 -0.00110769)
(0.000183518 -0.000249169 -0.00112852)
(0.000207205 -0.000287365 -0.00115276)
(0.000234022 -0.000331243 -0.00118093)
(0.000264405 -0.000381622 -0.00121361)
(0.000298852 -0.000439432 -0.0012515)
(0.000337934 -0.000505736 -0.00129536)
(0.000382305 -0.000581743 -0.00134607)
(0.000432716 -0.000668827 -0.00140481)
(0.000490014 -0.000768583 -0.001473)
(0.000555163 -0.000882845 -0.00155212)
(0.000629269 -0.0010137 -0.00164374)
(0.000713613 -0.00116351 -0.00174964)
(0.000809673 -0.00133498 -0.00187183)
(0.000919155 -0.00153112 -0.00201273)
(0.00104402 -0.00175548 -0.00217447)
(0.00118662 -0.00201191 -0.00235934)
(0.00134967 -0.00230484 -0.00257069)
(0.00153632 -0.00263926 -0.00281207)
(0.00175042 -0.00302083 -0.00308484)
(0.00199633 -0.00345566 -0.00339312)
(0.00227942 -0.00395069 -0.00374571)
(0.00260721 -0.00451353 -0.00415131)
(0.00299479 -0.00514637 -0.00477432)
(0.00348909 -0.00571162 -0.00617929)
(0.00510754 -0.00209124 0.00606441)
(0.0126097 0.0357267 -0.0133051)
(0.0259965 0.0461525 -0.00390225)
(0.0329735 0.0417946 0.00247807)
(0.00695337 0.017179 -0.0277327)
(-0.00179849 0.00198662 0.00163061)
(-0.0131875 -0.0148107 0.0410935)
(-0.0113373 -0.0091496 -0.0934349)
(-0.00410924 -0.00563099 0.0727491)
(-0.0109856 -0.0051464 -0.0294271)
(-0.00967621 -0.0131109 -0.0415964)
(-0.00129526 -0.0176287 -0.0298638)
(-0.00291859 -0.0341398 0.0316765)
(0.00118816 -0.032837 -0.0280412)
(0.00137274 -0.00625231 0.00234643)
(0.0189017 0.0160095 -0.302388)
(0.00887491 0.0188196 0.145783)
(-0.00979196 0.0133827 -0.175487)
(0.00433148 0.0445488 -0.144366)
(0.032847 0.0448786 -0.0456111)
(0.00768353 0.0151012 0.0600891)
(-0.00668485 0.00325149 -0.0928385)
(0.00329401 0.0117809 0.107354)
(-0.00194837 0.00587713 0.0309346)
(-0.00636656 -0.00235799 0.039222)
(-0.0190659 0.00942664 0.00112161)
(-0.00877846 0.00992757 0.0511185)
(-0.0039491 0.00630934 -0.0116976)
(-0.00379574 0.00277092 -0.00489601)
(-0.00345786 0.00218282 0.00141539)
(-0.00300036 0.00190517 -0.000118461)
(-0.00260251 0.00166793 -0.000385576)
(-0.00225596 0.00146033 -0.000484149)
(-0.00195472 0.00127859 -0.000568556)
(-0.00169315 0.00111931 -0.000641912)
(-0.00146616 0.000979703 -0.000703814)
(-0.00126927 0.000857345 -0.000755987)
(-0.00109858 0.000750047 -0.000799782)
(-0.000950658 0.000655942 -0.000836281)
(-0.000822521 0.000573433 -0.000866543)
(-0.000711554 0.000501107 -0.000891528)
(-0.000615478 0.000437721 -0.000912124)
(-0.000532267 0.000382181 -0.000929169)
(-0.000460327 0.000333518 -0.000942845)
(-0.000398071 0.000290931 -0.000953796)
(-0.000344217 0.000253657 -0.000962925)
(-0.000297646 0.000221041 -0.000970416)
(-0.000257381 0.000192507 -0.000976557)
(-0.000222579 0.000167549 -0.0009816)
(-0.000192507 0.000145723 -0.000985743)
(-0.000166527 0.000126638 -0.00098914)
(-0.000144088 0.000109953 -0.000991905)
(-0.000124708 9.53699e-05 -0.000994122)
(-0.000107968 8.26278e-05 -0.000995886)
(-9.35077e-05 7.14971e-05 -0.000997319)
(-8.10234e-05 6.17729e-05 -0.000998474)
(-7.02443e-05 5.32795e-05 -0.000999343)
(-6.09371e-05 4.58645e-05 -0.000999946)
(-5.29036e-05 3.9395e-05 -0.00100031)
(-4.59707e-05 3.37551e-05 -0.00100048)
(-3.99878e-05 2.88431e-05 -0.00100046)
(-3.48241e-05 2.45691e-05 -0.00100028)
(-3.03625e-05 2.08618e-05 -0.000999887)
(-2.64993e-05 1.76631e-05 -0.000999351)
(-2.31484e-05 1.49149e-05 -0.000998761)
(-2.02377e-05 1.2562e-05 -0.000998177)
(-1.7706e-05 1.05534e-05 -0.000997636)
(-1.55016e-05 8.84327e-06 -0.000997153)
(-1.35783e-05 7.39128e-06 -0.000996745)
(-1.18991e-05 6.16045e-06 -0.000996443)
(-1.04338e-05 5.11753e-06 -0.000996249)
(-9.15576e-06 4.23399e-06 -0.000996153)
(-8.04189e-06 3.48539e-06 -0.000996143)
(-7.07181e-06 2.85094e-06 -0.000996207)
(-6.22767e-06 2.31301e-06 -0.000996332)
(-5.49374e-06 1.85669e-06 -0.000996505)
(-4.85613e-06 1.46941e-06 -0.000996712)
(-4.30248e-06 1.14065e-06 -0.00099694)
(-3.8218e-06 8.61594e-07 -0.000997176)
(-3.40426e-06 6.24966e-07 -0.00099741)
(-3.04104e-06 4.24754e-07 -0.000997632)
(-2.72417e-06 2.56059e-07 -0.000997833)
(-2.44648e-06 1.14883e-07 -0.00099801)
(-2.20246e-06 -2.18737e-09 -0.000998162)
(-1.98734e-06 -9.78831e-08 -0.000998287)
(-1.79687e-06 -1.74531e-07 -0.000998387)
(-1.62734e-06 -2.34234e-07 -0.000998465)
(-1.47562e-06 -2.79007e-07 -0.000998527)
(-1.33912e-06 -3.10688e-07 -0.000998578)
(-1.21593e-06 -3.3068e-07 -0.000998624)
(-1.10454e-06 -3.40826e-07 -0.000998672)
(-1.00388e-06 -3.42985e-07 -0.000998727)
(-9.13286e-07 -3.3893e-07 -0.000998795)
(-8.3239e-07 -3.30329e-07 -0.000998879)
(-7.61121e-07 -3.18823e-07 -0.000998982)
(-6.99622e-07 -3.05956e-07 -0.000999105)
(-6.48165e-07 -2.93146e-07 -0.000999247)
(-6.07057e-07 -2.81613e-07 -0.000999405)
(-5.77834e-07 -2.73606e-07 -0.000999576)
(-5.56806e-07 -2.66024e-07 -0.000999756)
(-5.47205e-07 -2.64238e-07 -0.000999924)
)
;

boundaryField
{
    inlet
    {
        type            calculated;
        value           uniform (-5.47205e-07 -2.64238e-07 -0.000999924);
    }
    outlet
    {
        type            calculated;
        value           uniform (1.02468e-07 6.1858e-08 -0.000996687);
    }
    repeat_boundary
    {
        type            calculated;
        value           nonuniform List<vector> 
360
(
(0 6.1858e-08 -0.000996687)
(0 2.05652e-07 -0.000996497)
(0 3.48481e-07 -0.000996393)
(0 4.77017e-07 -0.000996431)
(0 5.87842e-07 -0.000996503)
(0 6.77021e-07 -0.000996597)
(0 7.40519e-07 -0.000996716)
(0 7.74891e-07 -0.000996859)
(0 7.77206e-07 -0.000997027)
(0 7.45096e-07 -0.000997219)
(0 6.76777e-07 -0.000997431)
(0 5.71055e-07 -0.000997663)
(0 4.27324e-07 -0.000997912)
(0 2.45519e-07 -0.000998174)
(0 2.60853e-08 -0.000998445)
(0 -2.30101e-07 -0.000998718)
(0 -5.21828e-07 -0.000998991)
(0 -8.47789e-07 -0.000999258)
(0 -1.20666e-06 -0.000999514)
(0 -1.59735e-06 -0.000999753)
(0 -2.01878e-06 -0.000999962)
(0 -2.47011e-06 -0.00100014)
(0 -2.95223e-06 -0.00100028)
(0 -3.46663e-06 -0.00100038)
(0 -4.01551e-06 -0.00100044)
(0 -4.60259e-06 -0.00100044)
(0 -5.23334e-06 -0.00100039)
(0 -5.91531e-06 -0.0010003)
(0 -6.65837e-06 -0.00100016)
(0 -7.47514e-06 -0.000999983)
(0 -8.38123e-06 -0.000999786)
(0 -9.39572e-06 -0.00099958)
(0 -1.05415e-05 -0.000999384)
(0 -1.18459e-05 -0.000999221)
(0 -1.33408e-05 -0.000999119)
(0 -1.50638e-05 -0.000999111)
(0 -1.70584e-05 -0.000999232)
(0 -1.93749e-05 -0.000999526)
(0 -2.20713e-05 -0.00100004)
(0 -2.52142e-05 -0.00100083)
(0 -2.88801e-05 -0.00100196)
(0 -3.31569e-05 -0.0010035)
(0 -3.8145e-05 -0.00100552)
(0 -4.39589e-05 -0.0010081)
(0 -5.07294e-05 -0.00101134)
(0 -5.8605e-05 -0.00101532)
(0 -6.7754e-05 -0.00102015)
(0 -7.83655e-05 -0.0010259)
(0 -9.06488e-05 -0.00103268)
(0 -0.000104845 -0.00104071)
(0 -0.000121236 -0.0010502)
(0 -0.000140146 -0.00106137)
(0 -0.000161942 -0.00107447)
(0 -0.000187046 -0.0010898)
(0 -0.000215938 -0.00110769)
(0 -0.000249169 -0.00112852)
(0 -0.000287365 -0.00115276)
(0 -0.000331243 -0.00118093)
(0 -0.000381622 -0.00121361)
(0 -0.000439432 -0.0012515)
(0 -0.000505736 -0.00129536)
(0 -0.000581743 -0.00134607)
(0 -0.000668827 -0.00140481)
(0 -0.000768583 -0.001473)
(0 -0.000882845 -0.00155212)
(0 -0.0010137 -0.00164374)
(0 -0.00116351 -0.00174964)
(0 -0.00133498 -0.00187183)
(0 -0.00153112 -0.00201273)
(0 -0.00175548 -0.00217447)
(0 -0.00201191 -0.00235934)
(0 -0.00230484 -0.00257069)
(0 -0.00263926 -0.00281207)
(0 -0.00302083 -0.00308484)
(0 -0.00345566 -0.00339312)
(0 -0.00395069 -0.00374571)
(0 -0.00451353 -0.00415131)
(0 -0.00514637 -0.00477432)
(0 -0.00571162 -0.00617929)
(0 -0.00209124 0.00606441)
(0 0.0357267 -0.0133051)
(0 0.0461525 -0.00390225)
(0 0.0417946 0.00247807)
(0 0.017179 -0.0277327)
(0 0.00198662 0.00163061)
(0 -0.0148107 0.0410935)
(0 -0.0091496 -0.0934349)
(0 -0.00563099 0.0727491)
(0 -0.0051464 -0.0294271)
(0 -0.0131109 -0.0415964)
(0 -0.0176287 -0.0298638)
(0 -0.0341398 0.0316765)
(0 -0.032837 -0.0280412)
(0 -0.00625231 0.00234643)
(0 0.0160095 -0.302388)
(0 0.0188196 0.145783)
(0 0.0133827 -0.175487)
(0 0.0445488 -0.144366)
(0 0.0448786 -0.0456111)
(0 0.0151012 0.0600891)
(0 0.00325149 -0.0928385)
(0 0.0117809 0.107354)
(0 0.00587713 0.0309346)
(0 -0.00235799 0.039222)
(0 0.00942664 0.00112161)
(0 0.00992757 0.0511185)
(0 0.00630934 -0.0116976)
(0 0.00277092 -0.00489601)
(0 0.00218282 0.00141539)
(0 0.00190517 -0.000118461)
(0 0.00166793 -0.000385576)
(0 0.00146033 -0.000484149)
(0 0.00127859 -0.000568556)
(0 0.00111931 -0.000641912)
(0 0.000979703 -0.000703814)
(0 0.000857345 -0.000755987)
(0 0.000750047 -0.000799782)
(0 0.000655942 -0.000836281)
(0 0.000573433 -0.000866543)
(0 0.000501107 -0.000891528)
(0 0.000437721 -0.000912124)
(0 0.000382181 -0.000929169)
(0 0.000333518 -0.000942845)
(0 0.000290931 -0.000953796)
(0 0.000253657 -0.000962925)
(0 0.000221041 -0.000970416)
(0 0.000192507 -0.000976557)
(0 0.000167549 -0.0009816)
(0 0.000145723 -0.000985743)
(0 0.000126638 -0.00098914)
(0 0.000109953 -0.000991905)
(0 9.53699e-05 -0.000994122)
(0 8.26278e-05 -0.000995886)
(0 7.14971e-05 -0.000997319)
(0 6.17729e-05 -0.000998474)
(0 5.32795e-05 -0.000999343)
(0 4.58645e-05 -0.000999946)
(0 3.9395e-05 -0.00100031)
(0 3.37551e-05 -0.00100048)
(0 2.88431e-05 -0.00100046)
(0 2.45691e-05 -0.00100028)
(0 2.08618e-05 -0.000999887)
(0 1.76631e-05 -0.000999351)
(0 1.49149e-05 -0.000998761)
(0 1.2562e-05 -0.000998177)
(0 1.05534e-05 -0.000997636)
(0 8.84327e-06 -0.000997153)
(0 7.39128e-06 -0.000996745)
(0 6.16045e-06 -0.000996443)
(0 5.11753e-06 -0.000996249)
(0 4.23399e-06 -0.000996153)
(0 3.48539e-06 -0.000996143)
(0 2.85094e-06 -0.000996207)
(0 2.31301e-06 -0.000996332)
(0 1.85669e-06 -0.000996505)
(0 1.46941e-06 -0.000996712)
(0 1.14065e-06 -0.00099694)
(0 8.61594e-07 -0.000997176)
(0 6.24966e-07 -0.00099741)
(0 4.24754e-07 -0.000997632)
(0 2.56059e-07 -0.000997833)
(0 1.14883e-07 -0.00099801)
(0 -2.18737e-09 -0.000998162)
(0 -9.78831e-08 -0.000998287)
(0 -1.74531e-07 -0.000998387)
(0 -2.34234e-07 -0.000998465)
(0 -2.79007e-07 -0.000998527)
(0 -3.10688e-07 -0.000998578)
(0 -3.3068e-07 -0.000998624)
(0 -3.40826e-07 -0.000998672)
(0 -3.42985e-07 -0.000998727)
(0 -3.3893e-07 -0.000998795)
(0 -3.30329e-07 -0.000998879)
(0 -3.18823e-07 -0.000998982)
(0 -3.05956e-07 -0.000999105)
(0 -2.93146e-07 -0.000999247)
(0 -2.81613e-07 -0.000999405)
(0 -2.73606e-07 -0.000999576)
(0 -2.66024e-07 -0.000999756)
(0 -2.64238e-07 -0.000999924)
(1.02468e-07 0 -0.000996687)
(3.14669e-07 0 -0.000996497)
(5.3191e-07 0 -0.000996393)
(7.38237e-07 0 -0.000996431)
(9.31349e-07 0 -0.000996503)
(1.10875e-06 0 -0.000996597)
(1.26793e-06 0 -0.000996716)
(1.40711e-06 0 -0.000996859)
(1.52517e-06 0 -0.000997027)
(1.62178e-06 0 -0.000997219)
(1.69741e-06 0 -0.000997431)
(1.7534e-06 0 -0.000997663)
(1.792e-06 0 -0.000997912)
(1.81636e-06 0 -0.000998174)
(1.83058e-06 0 -0.000998445)
(1.83967e-06 0 -0.000998718)
(1.84955e-06 0 -0.000998991)
(1.86676e-06 0 -0.000999258)
(1.89856e-06 0 -0.000999514)
(1.95262e-06 0 -0.000999753)
(2.03778e-06 0 -0.000999962)
(2.16378e-06 0 -0.00100014)
(2.34036e-06 0 -0.00100028)
(2.57788e-06 0 -0.00100038)
(2.88743e-06 0 -0.00100044)
(3.28052e-06 0 -0.00100044)
(3.76906e-06 0 -0.00100039)
(4.36543e-06 0 -0.0010003)
(5.08248e-06 0 -0.00100016)
(5.93367e-06 0 -0.000999983)
(6.93315e-06 0 -0.000999786)
(8.09595e-06 0 -0.00099958)
(9.43815e-06 0 -0.000999384)
(1.09772e-05 0 -0.000999221)
(1.2732e-05 0 -0.000999119)
(1.47236e-05 0 -0.000999111)
(1.69756e-05 0 -0.000999232)
(1.95141e-05 0 -0.000999526)
(2.23689e-05 0 -0.00100004)
(2.55738e-05 0 -0.00100083)
(2.91673e-05 0 -0.00100196)
(3.31933e-05 0 -0.0010035)
(3.7702e-05 0 -0.00100552)
(4.27511e-05 0 -0.0010081)
(4.8407e-05 0 -0.00101134)
(5.4746e-05 0 -0.00101532)
(6.18564e-05 0 -0.00102015)
(6.98405e-05 0 -0.0010259)
(7.88188e-05 0 -0.00103268)
(8.89282e-05 0 -0.00104071)
(0.000100321 0 -0.0010502)
(0.000113171 0 -0.00106137)
(0.000127676 0 -0.00107447)
(0.000144061 0 -0.0010898)
(0.000162579 0 -0.00110769)
(0.000183518 0 -0.00112852)
(0.000207205 0 -0.00115276)
(0.000234022 0 -0.00118093)
(0.000264405 0 -0.00121361)
(0.000298852 0 -0.0012515)
(0.000337934 0 -0.00129536)
(0.000382305 0 -0.00134607)
(0.000432716 0 -0.00140481)
(0.000490014 0 -0.001473)
(0.000555163 0 -0.00155212)
(0.000629269 0 -0.00164374)
(0.000713613 0 -0.00174964)
(0.000809673 0 -0.00187183)
(0.000919155 0 -0.00201273)
(0.00104402 0 -0.00217447)
(0.00118662 0 -0.00235934)
(0.00134967 0 -0.00257069)
(0.00153632 0 -0.00281207)
(0.00175042 0 -0.00308484)
(0.00199633 0 -0.00339312)
(0.00227942 0 -0.00374571)
(0.00260721 0 -0.00415131)
(0.00299479 0 -0.00477432)
(0.00348909 0 -0.00617929)
(0.00510754 0 0.00606441)
(0.0126097 0 -0.0133051)
(0.0259965 0 -0.00390225)
(0.0329735 0 0.00247807)
(0.00695337 0 -0.0277327)
(-0.00179849 0 0.00163061)
(-0.0131875 0 0.0410935)
(-0.0113373 0 -0.0934349)
(-0.00410924 0 0.0727491)
(-0.0109856 0 -0.0294271)
(-0.00967621 0 -0.0415964)
(-0.00129526 0 -0.0298638)
(-0.00291859 0 0.0316765)
(0.00118816 0 -0.0280412)
(0.00137274 0 0.00234643)
(0.0189017 0 -0.302388)
(0.00887491 0 0.145783)
(-0.00979196 0 -0.175487)
(0.00433148 0 -0.144366)
(0.032847 0 -0.0456111)
(0.00768353 0 0.0600891)
(-0.00668485 0 -0.0928385)
(0.00329401 0 0.107354)
(-0.00194837 0 0.0309346)
(-0.00636656 0 0.039222)
(-0.0190659 0 0.00112161)
(-0.00877846 0 0.0511185)
(-0.0039491 0 -0.0116976)
(-0.00379574 0 -0.00489601)
(-0.00345786 0 0.00141539)
(-0.00300036 0 -0.000118461)
(-0.00260251 0 -0.000385576)
(-0.00225596 0 -0.000484149)
(-0.00195472 0 -0.000568556)
(-0.00169315 0 -0.000641912)
(-0.00146616 0 -0.000703814)
(-0.00126927 0 -0.000755987)
(-0.00109858 0 -0.000799782)
(-0.000950658 0 -0.000836281)
(-0.000822521 0 -0.000866543)
(-0.000711554 0 -0.000891528)
(-0.000615478 0 -0.000912124)
(-0.000532267 0 -0.000929169)
(-0.000460327 0 -0.000942845)
(-0.000398071 0 -0.000953796)
(-0.000344217 0 -0.000962925)
(-0.000297646 0 -0.000970416)
(-0.000257381 0 -0.000976557)
(-0.000222579 0 -0.0009816)
(-0.000192507 0 -0.000985743)
(-0.000166527 0 -0.00098914)
(-0.000144088 0 -0.000991905)
(-0.000124708 0 -0.000994122)
(-0.000107968 0 -0.000995886)
(-9.35077e-05 0 -0.000997319)
(-8.10234e-05 0 -0.000998474)
(-7.02443e-05 0 -0.000999343)
(-6.09371e-05 0 -0.000999946)
(-5.29036e-05 0 -0.00100031)
(-4.59707e-05 0 -0.00100048)
(-3.99878e-05 0 -0.00100046)
(-3.48241e-05 0 -0.00100028)
(-3.03625e-05 0 -0.000999887)
(-2.64993e-05 0 -0.000999351)
(-2.31484e-05 0 -0.000998761)
(-2.02377e-05 0 -0.000998177)
(-1.7706e-05 0 -0.000997636)
(-1.55016e-05 0 -0.000997153)
(-1.35783e-05 0 -0.000996745)
(-1.18991e-05 0 -0.000996443)
(-1.04338e-05 0 -0.000996249)
(-9.15576e-06 0 -0.000996153)
(-8.04189e-06 0 -0.000996143)
(-7.07181e-06 0 -0.000996207)
(-6.22767e-06 0 -0.000996332)
(-5.49374e-06 0 -0.000996505)
(-4.85613e-06 0 -0.000996712)
(-4.30248e-06 0 -0.00099694)
(-3.8218e-06 0 -0.000997176)
(-3.40426e-06 0 -0.00099741)
(-3.04104e-06 0 -0.000997632)
(-2.72417e-06 0 -0.000997833)
(-2.44648e-06 0 -0.00099801)
(-2.20246e-06 0 -0.000998162)
(-1.98734e-06 0 -0.000998287)
(-1.79687e-06 0 -0.000998387)
(-1.62734e-06 0 -0.000998465)
(-1.47562e-06 0 -0.000998527)
(-1.33912e-06 0 -0.000998578)
(-1.21593e-06 0 -0.000998624)
(-1.10454e-06 0 -0.000998672)
(-1.00388e-06 0 -0.000998727)
(-9.13286e-07 0 -0.000998795)
(-8.3239e-07 0 -0.000998879)
(-7.61121e-07 0 -0.000998982)
(-6.99622e-07 0 -0.000999105)
(-6.48165e-07 0 -0.000999247)
(-6.07057e-07 0 -0.000999405)
(-5.77834e-07 0 -0.000999576)
(-5.56806e-07 0 -0.000999756)
(-5.47205e-07 0 -0.000999924)
)
;
    }
    procBoundary3to1
    {
        type            processor;
        value           nonuniform List<vector> 
180
(
(-4.06568e-08 6.18671e-08 -0.000999401)
(-1.53313e-07 2.05679e-07 -0.000999298)
(-2.60464e-07 3.48475e-07 -0.000999081)
(-3.52538e-07 4.77022e-07 -0.000998822)
(-4.25794e-07 5.87845e-07 -0.000998501)
(-4.75905e-07 6.77021e-07 -0.000998121)
(-4.98482e-07 7.40519e-07 -0.000997692)
(-4.89729e-07 7.74891e-07 -0.000997224)
(-4.46355e-07 7.77206e-07 -0.000996728)
(-3.65617e-07 7.45096e-07 -0.000996213)
(-2.45343e-07 6.76777e-07 -0.00099569)
(-8.39437e-08 5.71055e-07 -0.000995169)
(1.19596e-07 4.27323e-07 -0.000994657)
(3.65738e-07 2.45519e-07 -0.000994162)
(6.54438e-07 2.60862e-08 -0.00099369)
(9.85245e-07 -2.30099e-07 -0.000993241)
(1.35739e-06 -5.21831e-07 -0.000992816)
(1.76988e-06 -8.47791e-07 -0.000992412)
(2.22161e-06 -1.20666e-06 -0.000992021)
(2.71154e-06 -1.59735e-06 -0.000991634)
(3.23878e-06 -2.01878e-06 -0.000991238)
(3.80278e-06 -2.47011e-06 -0.000990809)
(4.40405e-06 -2.95223e-06 -0.000990322)
(5.0437e-06 -3.46663e-06 -0.000989755)
(5.72359e-06 -4.01551e-06 -0.000989081)
(6.44679e-06 -4.60259e-06 -0.000988264)
(7.21781e-06 -5.23334e-06 -0.000987267)
(8.04282e-06 -5.91531e-06 -0.000986048)
(8.92983e-06 -6.65838e-06 -0.000984561)
(9.88897e-06 -7.47514e-06 -0.000982757)
(1.09327e-05 -8.38124e-06 -0.000980582)
(1.2076e-05 -9.39572e-06 -0.000977979)
(1.33366e-05 -1.05415e-05 -0.000974884)
(1.47354e-05 -1.18459e-05 -0.000971229)
(1.62966e-05 -1.33408e-05 -0.00096694)
(1.80477e-05 -1.50638e-05 -0.000961935)
(2.00205e-05 -1.70584e-05 -0.000956121)
(2.22506e-05 -1.93749e-05 -0.000949397)
(2.47783e-05 -2.20713e-05 -0.000941649)
(2.76489e-05 -2.52142e-05 -0.000932744)
(3.09134e-05 -2.88801e-05 -0.000922534)
(3.46286e-05 -3.31569e-05 -0.000910849)
(3.88579e-05 -3.8145e-05 -0.000897495)
(4.36721e-05 -4.3959e-05 -0.000882252)
(4.91499e-05 -5.07294e-05 -0.000864871)
(5.53785e-05 -5.8605e-05 -0.000845069)
(6.24545e-05 -6.7754e-05 -0.000822536)
(7.04841e-05 -7.83654e-05 -0.00079694)
(7.95821e-05 -9.06487e-05 -0.000767879)
(8.98777e-05 -0.000104845 -0.000734823)
(0.000101518 -0.000121236 -0.000697176)
(0.000114669 -0.000140145 -0.000654295)
(0.000129515 -0.000161941 -0.000605448)
(0.000146262 -0.000187045 -0.000549803)
(0.000165144 -0.000215937 -0.000486411)
(0.000186425 -0.000249166 -0.0004142)
(0.000210396 -0.000287362 -0.000331949)
(0.000237378 -0.000331239 -0.000238279)
(0.000267726 -0.000381615 -0.000131629)
(0.000301832 -0.000439422 -1.02346e-05)
(0.000340135 -0.000505721 0.000127892)
(0.000383116 -0.000581722 0.000284997)
(0.000431307 -0.000668797 0.000463776)
(0.000485306 -0.000768541 0.000667386)
(0.000545783 -0.000882785 0.000899255)
(0.000613468 -0.00101362 0.00116315)
(0.000689159 -0.0011634 0.00146333)
(0.000773721 -0.00133481 0.00180437)
(0.00086807 -0.0015309 0.00219221)
(0.000973263 -0.00175516 0.00263312)
(0.00109037 -0.00201146 0.00313364)
(0.00122056 -0.00230422 0.00370168)
(0.00136504 -0.00263841 0.00434597)
(0.00152507 -0.00301966 0.0050762)
(0.00170194 -0.00345405 0.00590229)
(0.00189708 -0.0039485 0.00683967)
(0.00211333 -0.00451092 0.00793057)
(0.00235683 -0.00514716 0.00921986)
(0.00266248 -0.00579701 0.00981114)
(0.00383777 -0.00466664 0.0324729)
(0.0143618 0.0117251 0.00990641)
(0.0251095 0.0128302 0.047817)
(0.0320651 0.00610569 0.0416583)
(0.0267349 -0.00554206 0.0308242)
(0.00903255 -0.00751822 0.0667457)
(0.00787515 -0.00507148 0.0107217)
(0.00689692 -0.0125123 0.0934258)
(-0.000672285 0.000662595 0.0561531)
(0.015934 0.00672765 0.0171321)
(0.00458385 0.0273088 0.137075)
(-0.0054199 0.0200929 -0.0482711)
(-0.00173686 -0.0196426 0.0618357)
(0.00513135 -0.0339733 0.137287)
(-0.00640941 -0.00967643 0.0560257)
(-0.00347997 0.00529647 -0.012369)
(0.022619 0.0160125 0.139191)
(0.0096873 0.020186 -0.0637851)
(-0.0302602 0.0458681 0.0509744)
(-0.0338957 0.0500776 -0.0891445)
(-0.000819988 -0.00100656 -0.0375849)
(0.00971803 0.0062299 0.196673)
(0.00137703 0.00292324 -0.00350508)
(-0.00496282 -0.00857154 0.00401787)
(-0.00661102 -0.0187813 0.0674093)
(-0.00785158 0.00196294 0.0535197)
(-0.0025039 -0.00469907 0.0576978)
(-0.00289776 -0.00223533 -0.0190398)
(-0.00227293 0.00188694 0.00380885)
(-0.00186887 0.00214976 0.00728018)
(-0.00161255 0.00190635 0.00490278)
(-0.00139855 0.00166962 0.0040579)
(-0.00121377 0.00146151 0.00340879)
(-0.00105434 0.00127938 0.00284029)
(-0.000916586 0.00111985 0.00234492)
(-0.000797384 0.000980066 0.00191353)
(-0.000694144 0.000857591 0.00153819)
(-0.000604586 0.000750213 0.00121191)
(-0.000526809 0.000656055 0.000927633)
(-0.000459215 0.00057351 0.000679736)
(-0.000400382 0.00050116 0.000463686)
(-0.000349255 0.000437757 0.000275403)
(-0.000304754 0.000382206 0.000111292)
(-0.000265996 0.000333536 -3.17572e-05)
(-0.000232223 0.000290943 -0.000156453)
(-0.00020278 0.000253666 -0.000265154)
(-0.000177098 0.000221048 -0.000359916)
(-0.000154685 0.000192512 -0.000442526)
(-0.000135113 0.000167553 -0.000514545)
(-0.000118012 0.000145725 -0.00057733)
(-0.000103061 0.00012664 -0.000632062)
(-8.99828e-05 0.000109955 -0.000679771)
(-7.85367e-05 9.53712e-05 -0.000721352)
(-6.85154e-05 8.26288e-05 -0.000757584)
(-5.97401e-05 7.14979e-05 -0.000789147)
(-5.20567e-05 6.17736e-05 -0.000816631)
(-4.53326e-05 5.32801e-05 -0.000840553)
(-3.94501e-05 4.58649e-05 -0.000861361)
(-3.43024e-05 3.93954e-05 -0.000879449)
(-2.97979e-05 3.37554e-05 -0.000895159)
(-2.58569e-05 2.88433e-05 -0.000908785)
(-2.24094e-05 2.45693e-05 -0.000920623)
(-1.9398e-05 2.08619e-05 -0.000930968)
(-1.67751e-05 1.76632e-05 -0.000940007)
(-1.44957e-05 1.4915e-05 -0.000947861)
(-1.25181e-05 1.25621e-05 -0.000954661)
(-1.08046e-05 1.05535e-05 -0.000960537)
(-9.32133e-06 8.84333e-06 -0.000965609)
(-8.03807e-06 7.39134e-06 -0.000969986)
(-6.92789e-06 6.16048e-06 -0.000973766)
(-5.96703e-06 5.11754e-06 -0.000977039)
(-5.13472e-06 4.23397e-06 -0.00097988)
(-4.41306e-06 3.48539e-06 -0.000982354)
(-3.78606e-06 2.85094e-06 -0.00098452)
(-3.2407e-06 2.31301e-06 -0.000986422)
(-2.76563e-06 1.8567e-06 -0.000988097)
(-2.35126e-06 1.46942e-06 -0.000989576)
(-1.9895e-06 1.14065e-06 -0.000990883)
(-1.67352e-06 8.61601e-07 -0.000992038)
(-1.39768e-06 6.24972e-07 -0.000993058)
(-1.15726e-06 4.24759e-07 -0.000993957)
(-9.48409e-07 2.56063e-07 -0.000994746)
(-7.67946e-07 1.14886e-07 -0.000995437)
(-6.12813e-07 -2.18521e-09 -0.000996042)
(-4.8048e-07 -9.78819e-08 -0.000996571)
(-3.68792e-07 -1.74526e-07 -0.00099703)
(-2.75794e-07 -2.34235e-07 -0.000997426)
(-1.99604e-07 -2.79038e-07 -0.000997767)
(-1.38642e-07 -3.10639e-07 -0.000998065)
(-9.12129e-08 -3.30675e-07 -0.000998325)
(-5.57307e-08 -3.40823e-07 -0.000998551)
(-3.02999e-08 -3.42985e-07 -0.000998748)
(-1.3205e-08 -3.38929e-07 -0.000998923)
(-2.80527e-09 -3.30329e-07 -0.000999081)
(2.53708e-09 -3.18822e-07 -0.000999227)
(4.38312e-09 -3.05957e-07 -0.000999362)
(4.16435e-09 -2.93164e-07 -0.000999491)
(3.04607e-09 -2.81599e-07 -0.000999614)
(3.35084e-09 -2.73553e-07 -0.000999735)
(2.05648e-09 -2.65952e-07 -0.000999855)
(4.24722e-09 -2.64216e-07 -0.000999957)
)
;
    }
    procBoundary3to2
    {
        type            processor;
        value           nonuniform List<vector> 
180
(
(1.02476e-07 -8.12654e-08 -0.00100085)
(3.14693e-07 -2.62327e-07 -0.00100077)
(5.31903e-07 -4.43892e-07 -0.00100061)
(7.38241e-07 -6.13757e-07 -0.00100042)
(9.31352e-07 -7.693e-07 -0.00100021)
(1.10875e-06 -9.07632e-07 -0.000999961)
(1.26793e-06 -1.02589e-06 -0.000999698)
(1.40711e-06 -1.12195e-06 -0.00099943)
(1.52517e-06 -1.19432e-06 -0.000999173)
(1.62178e-06 -1.2423e-06 -0.000998941)
(1.69741e-06 -1.26597e-06 -0.000998748)
(1.7534e-06 -1.26629e-06 -0.00099861)
(1.792e-06 -1.24508e-06 -0.000998543)
(1.81636e-06 -1.2051e-06 -0.000998562)
(1.83058e-06 -1.15006e-06 -0.00099868)
(1.83968e-06 -1.08453e-06 -0.000998911)
(1.84954e-06 -1.01399e-06 -0.000999266)
(1.86676e-06 -9.44675e-07 -0.000999753)
(1.89857e-06 -8.8361e-07 -0.00100038)
(1.95262e-06 -8.38433e-07 -0.00100115)
(2.03779e-06 -8.17787e-07 -0.00100208)
(2.16379e-06 -8.31119e-07 -0.00100317)
(2.34037e-06 -8.88541e-07 -0.00100443)
(2.57789e-06 -1.00081e-06 -0.00100586)
(2.88745e-06 -1.17937e-06 -0.00100747)
(3.28055e-06 -1.43634e-06 -0.00100926)
(3.76909e-06 -1.78461e-06 -0.00101125)
(4.36546e-06 -2.23794e-06 -0.00101344)
(5.08253e-06 -2.81106e-06 -0.00101585)
(5.93373e-06 -3.51988e-06 -0.0010185)
(6.93322e-06 -4.38174e-06 -0.00102142)
(8.09604e-06 -5.41574e-06 -0.00102465)
(9.43826e-06 -6.64313e-06 -0.00102821)
(1.09773e-05 -8.08769e-06 -0.00103218)
(1.27322e-05 -9.77635e-06 -0.00103661)
(1.47239e-05 -1.17399e-05 -0.00104157)
(1.69758e-05 -1.40137e-05 -0.00104716)
(1.95144e-05 -1.66387e-05 -0.00105349)
(2.23693e-05 -1.96622e-05 -0.00106067)
(2.55744e-05 -2.31394e-05 -0.00106886)
(2.9168e-05 -2.71345e-05 -0.0010782)
(3.31942e-05 -3.17222e-05 -0.00108889)
(3.77031e-05 -3.69898e-05 -0.00110115)
(4.27526e-05 -4.30389e-05 -0.00111521)
(4.84089e-05 -4.99879e-05 -0.00113136)
(5.47484e-05 -5.79743e-05 -0.0011499)
(6.18594e-05 -6.71581e-05 -0.00117118)
(6.98443e-05 -7.77247e-05 -0.00119563)
(7.88236e-05 -8.98891e-05 -0.00122368)
(8.89343e-05 -0.0001039 -0.00125587)
(0.000100329 -0.000120045 -0.00129279)
(0.000113181 -0.000138655 -0.0013351)
(0.000127689 -0.000160113 -0.00138357)
(0.000144076 -0.000184857 -0.00143906)
(0.000162599 -0.000213389 -0.00150251)
(0.000183543 -0.000246282 -0.00157508)
(0.000207237 -0.0002842 -0.00165814)
(0.000234062 -0.00032792 -0.00175331)
(0.000264455 -0.000378343 -0.00186234)
(0.000298916 -0.000436505 -0.00198728)
(0.000338014 -0.000503602 -0.00213044)
(0.000382406 -0.000581016 -0.00229453)
(0.000432843 -0.000670342 -0.00248262)
(0.000490173 -0.000773424 -0.00269828)
(0.000555362 -0.000892391 -0.0029456)
(0.000629519 -0.00102971 -0.00322932)
(0.000713927 -0.00118823 -0.00355488)
(0.000810065 -0.00137125 -0.00392861)
(0.000919646 -0.00158261 -0.00435779)
(0.00104464 -0.00182673 -0.00485088)
(0.00118739 -0.00210876 -0.00541769)
(0.00135063 -0.00243467 -0.00606979)
(0.00153753 -0.00281143 -0.00682183)
(0.00175193 -0.00324726 -0.00768685)
(0.00199823 -0.00375136 -0.00868157)
(0.00228178 -0.00433465 -0.00983326)
(0.00261098 -0.00501127 -0.0112096)
(0.00299925 -0.00579201 -0.0129203)
(0.00349388 -0.00662491 -0.0128243)
(0.00444345 -0.00516844 -0.0126858)
(0.0107923 0.0113308 -0.0374681)
(0.0158004 0.0123198 -0.051127)
(0.0162486 0.00539947 -0.0471759)
(0.016743 0.00507036 -0.0810351)
(-0.00157715 -0.0200444 -0.0236852)
(-0.0076302 -0.0143229 -0.136534)
(-0.00852902 -0.0226003 -0.000925088)
(-0.00826014 -0.0041706 -0.126961)
(-0.00719668 0.023017 -0.114931)
(-0.00511529 0.0263378 0.0463218)
(-0.00438231 0.0130859 -0.0569524)
(-0.0056776 0.00465794 -0.149634)
(-0.00585924 -0.00265303 0.0329227)
(0.0125297 -0.00747145 -0.0697574)
(0.0309703 0.00231111 -0.0423082)
(0.0246797 0.0119739 -0.0540022)
(0.00249974 0.00924251 -0.181978)
(0.030521 0.0261658 0.0161474)
(0.0331367 0.015228 -0.136918)
(-0.00210812 0.00850021 -0.145017)
(-0.0126457 0.022533 -0.0419588)
(-0.00212381 0.0223862 0.11974)
(0.00388143 0.00785975 -0.0613394)
(-0.000627059 -0.00219392 0.0427661)
(-0.00947405 0.00149789 -0.00530664)
(-0.0167769 0.0127984 0.0305133)
(-0.00712399 0.0114827 -0.0408286)
(-0.0042649 0.00496996 -0.0106553)
(-0.00347073 0.00382212 -0.00951199)
(-0.00299532 0.00330633 -0.00875643)
(-0.00259843 0.00288059 -0.00782273)
(-0.00225303 0.00250889 -0.0069545)
(-0.00195264 0.00218369 -0.00619153)
(-0.00169167 0.00189939 -0.00552435)
(-0.0014651 0.00165109 -0.00494077)
(-0.00126852 0.00143442 -0.00443076)
(-0.00109805 0.00124549 -0.00398537)
(-0.000950283 0.00108088 -0.00359668)
(-0.000822256 0.00093755 -0.00325765)