
//   run_liggghts_init_DEM   //

/home/pse/CFDEM/CFDEMcoupling-PUBLIC-5.x/tutorials/cfdemSolverPiso/ErgunTestMPI_cgs/DEM

LIGGGHTS (Version LIGGGHTS-PUBLIC 3.8.0, compiled 2022-08-02-13:30:07 by pse, git commit 86544c3f1215bc9744d7929e3eacf53ba086af9e)
log             ../DEM/log.liggghts
atom_style      granular
atom_modify     map array
communicate     single vel yes

boundary        m m m
newton          off

units           cgs

region          reg block -1.5 1.5 -1.5 1.5 -0.1 5.54 units box
create_box      1 reg
Created orthogonal box = (-1.5 -1.5 -0.1) to (1.5 1.5 5.54)
  1 by 2 by 2 MPI processor grid

neighbor        0.1 bin
neigh_modify    delay 0


# Material properties required for granular pair styles
soft_particles yes
fix         m1 all property/global youngsModulus peratomtype 5.e6
fix         m2 all property/global poissonsRatio peratomtype 0.45
fix         m3 all property/global coefficientRestitution peratomtypepair 1 0.3
fix         m4 all property/global coefficientFriction peratomtypepair 1 0.5

# pair style
pair_style  gran model hertz tangential history # Hertzian without cohesion
pair_coeff  * *

# timestep, gravity
timestep    0.00001
fix         gravi all gravity 981 vector 0.0 0.0 -1.0

# walls
fix     zwalls1  all wall/gran model hertz tangential history primitive type 1 zplane 0.0
fix     zwalls2  all wall/gran model hertz tangential history primitive type 1 zplane 5.53
fix     cylwalls all wall/gran model hertz tangential history primitive type 1 zcylinder 1.385 0. 0.

# particle distributions and insertion
region  bc cylinder z 0.0 0.0 1.2 0. 5.5 units box
fix     pts1 all particletemplate/sphere 15485863 atom_type 1 density constant 2. radius constant 0.05
fix     pdd1 all particledistribution/discrete 15485867 1 pts1 1.0
Fix particledistribution/discrete (id pdd1): distribution based on mass%:
    pts1: d=1.000000e-01 (max. bounding sphere) mass%=100.000000%
Fix particledistribution/discrete (id pdd1): distribution based on number%:
    pts1: d=1.000000e-01 (max. bounding sphere) number%=100.000000%

fix     ins all insert/pack seed 32452843 distributiontemplate pdd1 vel constant 0. 0. -100. insert_every once overlapcheck yes all_in yes particles_in_region 10000 region bc

# apply nve integration to all particles that are inserted as single particles
fix     integr all nve/sphere

# screen output
compute         rke all erotate/sphere
thermo_style    custom step atoms ke c_rke vol
thermo          1000
thermo_modify   lost ignore norm no
compute_modify  thermo_temp dynamic yes
WARNING: Changing thermo_temp compute object. This object is deprecated and will be removed in the future. (../compute.cpp:161)

# insert the first particles so that dump is not empty
run         1
Setting up run at Tue Aug  2 14:01:47 2022

INFO: Resetting random generator for region bc
INFO: Particle insertion ins: inserting every 0 steps
Memory usage per processor = 4.34856 Mbytes
    Step    Atoms         KinEng            rke         Volume 
       0        0              0              0          50.76 
insertion: proc 1 at 0 %
insertion: proc 2 at 0 %
insertion: proc 3 at 0 %
insertion: proc 0 at 0 %
insertion: proc 3 at 10 %
insertion: proc 1 at 10 %
insertion: proc 2 at 10 %
insertion: proc 0 at 10 %
insertion: proc 2 at 20 %
insertion: proc 3 at 20 %
insertion: proc 1 at 20 %
insertion: proc 0 at 20 %
insertion: proc 1 at 30 %
insertion: proc 2 at 30 %
insertion: proc 3 at 30 %
insertion: proc 0 at 30 %
insertion: proc 1 at 40 %
insertion: proc 2 at 40 %
insertion: proc 3 at 40 %
insertion: proc 0 at 40 %
insertion: proc 2 at 50 %
insertion: proc 1 at 50 %
insertion: proc 0 at 50 %
insertion: proc 3 at 50 %
insertion: proc 2 at 60 %
insertion: proc 1 at 60 %
insertion: proc 0 at 60 %
insertion: proc 3 at 60 %
insertion: proc 2 at 70 %
insertion: proc 0 at 70 %
insertion: proc 1 at 70 %
insertion: proc 3 at 70 %
insertion: proc 0 at 80 %
insertion: proc 2 at 80 %
insertion: proc 1 at 80 %
insertion: proc 3 at 80 %
insertion: proc 0 at 90 %
insertion: proc 2 at 90 %
insertion: proc 1 at 90 %
insertion: proc 3 at 90 %
insertion: proc 2 at 100 %
insertion: proc 1 at 100 %
insertion: proc 3 at 100 %
insertion: proc 0 at 100 %
INFO: Particle insertion ins: inserted 10000 particle templates (mass 1.047198e+01) at step 1
 - a total of 10000 particle templates (mass 1.047198e+01) inserted so far.
       1    10000      52365.014              0          50.76 
Loop time of 0.011044 on 4 procs for 1 steps with 10000 atoms, finish time Tue Aug  2 14:01:47 2022


Pair  time (%) = 0.000199859 (1.80966)
Neigh time (%) = 0.00202453 (18.3315)
Comm  time (%) = 0.000192597 (1.74391)
Outpt time (%) = 5.44315e-05 (0.49286)
Other time (%) = 0.00857258 (77.6221)

Nlocal:    2500 ave 2543 max 2463 min
Histogram: 1 0 1 0 0 0 1 0 0 1
Nghost:    664 ave 680 max 644 min
Histogram: 1 0 0 0 0 1 1 0 0 1
Neighs:    15913 ave 16264 max 15746 min
Histogram: 2 0 1 0 0 0 0 0 0 1

Total # of neighbors = 63652
Ave neighs/atom = 6.3652
Neighbor list builds = 1
Dangerous builds = 0
dump        dmp all custom 5000 post/dump.liggghts_init id type x y z ix iy iz vx vy vz fx fy fz omegax omegay omegaz radius
#force : f_couple_cfd[0] f_couple_cfd[1] f_couple_cfd[2]
#node : f_couple_cfd[6]
#cell id : f_couple_cfd[7]

run         10000 upto
Setting up run at Tue Aug  2 14:01:47 2022

Memory usage per processor = 8.20625 Mbytes
    Step    Atoms         KinEng            rke         Volume 
       1    10000      52365.014              0          50.76 
    1000    10000      45458.466      359.18838          50.76 
    2000    10000      33235.151      389.11314          50.76 
    3000    10000      11480.485      461.02642          50.76 
    4000    10000      689.83695       95.77008          50.76 
    5000    10000      153.03596      45.826004          50.76 
    6000    10000      158.58714      36.083582          50.76 
    7000    10000      176.35556      30.866194          50.76 
    8000    10000      61.804718      22.547183          50.76 
    9000    10000      18.971466      9.0630554          50.76 
   10000    10000      7.5970328      3.7032044          50.76 
Loop time of 13.114 on 4 procs for 9999 steps with 10000 atoms, finish time Tue Aug  2 14:02:00 2022


Pair  time (%) = 5.63358 (42.9585)
Neigh time (%) = 0.244733 (1.8662)
Comm  time (%) = 0.196485 (1.49828)
Outpt time (%) = 0.0330888 (0.252317)
Other time (%) = 7.00611 (53.4247)

Nlocal:    2500 ave 5014 max 0 min
Histogram: 2 0 0 0 0 0 0 0 0 2
Nghost:    468.5 ave 939 max 0 min
Histogram: 2 0 0 0 0 0 0 0 0 2
Neighs:    45830.5 ave 92031 max 0 min
Histogram: 2 0 0 0 0 0 0 0 0 2

Total # of neighbors = 183322
Ave neighs/atom = 18.3322
Neighbor list builds = 123
Dangerous builds = 0
write_restart   post/restart/liggghts.restart
System init for write_restart ...
