# vtk DataFile Version 4.0
Generated by LIGGGHTS
ASCII
DATASET POLYDATA
POINTS 1400 float
-0.00437891 -0.00438553 0.000498222 -0.00342172 -0.00467337 0.000498043 -0.00244289 -0.00494689 0.000498607 
-0.00161966 -0.00420573 0.000497755 -0.000495129 -0.00499151 0.000498252 -0.000641142 -0.00400202 0.000498915 
0.000287964 -0.00436992 0.000498283 0.00139334 -0.00456889 0.000497897 0.00240408 -0.0046202 0.000496865 
0.003717 -0.00441715 0.000496848 0.00466416 -0.00409664 0.000498763 -0.00460552 -0.00341232 0.000497258 
-0.00364164 -0.00369833 0.000497534 -0.00268221 -0.00397701 0.000498313 -0.0019736 -0.00327152 0.000498787 
-0.000995847 -0.00306764 0.000498099 3.06564e-05 -0.00324389 0.000498606 0.000954378 -0.00362515 0.000499291 
0.00194788 -0.00373144 0.000497668 0.00294615 -0.00378023 0.000497865 0.00443324 -0.00312464 0.00049849 
-0.00485007 -0.00242946 0.000497701 -0.00389157 -0.00271275 0.000497888 -0.00293297 -0.00299383 0.000499077 
-0.00273154 -0.00200803 0.000499159 -0.00177437 -0.00229202 0.000497726 -0.000343668 -0.00231222 0.00049849 
0.000654839 -0.00230597 0.000497887 0.00150511 -0.0028057 0.000655487 0.00248772 -0.00289069 0.000498169 
0.00348376 -0.00280865 0.000498675 0.00418356 -0.00209485 0.000498456 -0.00464963 -0.00145061 0.000498647 
-0.00369139 -0.00173219 0.000499781 -0.0020019 -0.00130955 0.000496952 -0.00296301 -0.00103306 0.000498372 
-0.00104585 -0.00160127 0.000498814 2.02649e-05 -0.00138248 0.000498649 0.00101791 -0.00132762 0.000497894 
0.00185205 -0.00187712 0.000497972 0.00284854 -0.00195938 0.000498984 0.00242184 -0.00105592 0.000497559 
0.003418 -0.00113833 0.000497934 0.00441609 -0.00109753 0.000498791 -0.00392632 -0.000760468 0.000497128 
-0.00319422 -6.13481e-05 0.000497777 -0.00223412 -0.00033819 0.000497864 -0.00125563 -0.000623579 0.000499204 
0.000360055 -0.000442697 0.000498437 0.00153598 -0.000472919 0.000498059 0.00299905 -0.000231686 0.000497383 
0.00494756 -0.000251135 0.000498284 -0.00416517 0.000208452 0.000498081 -0.00344901 0.000904686 0.000498071 
-0.00247385 0.000632496 0.000498416 -0.00149815 0.000346556 0.000499234 -0.000527116 6.13367e-05 0.000499155 
0.000210924 0.000736093 0.000498667 0.00117056 0.00045747 0.000498076 0.00215888 0.000308191 0.000499245 
0.00293805 0.000934778 0.00049826 0.00382595 0.000326948 0.000497737 0.00473994 0.000728627 0.000498903 
-0.00439902 0.00112737 0.000809663 -0.00271329 0.00171366 0.000497885 -0.00172214 0.00134375 0.000498415 
-0.000760358 0.00103341 0.000497728 -2.35285e-05 0.00170766 0.00049698 0.000937838 0.0014353 0.00049818 
0.00192478 0.00127898 0.000498771 0.00271068 0.00190724 0.000497351 0.00386387 0.00133629 0.000499673 
0.00478814 0.00172747 0.000499692 -0.00424262 0.0020631 0.000498818 -0.00350523 0.00273768 0.000499514 
-0.002517 0.00288583 0.00049633 -0.00151956 0.00284642 0.000498538 -0.00097573 0.00200879 0.000498733 
0.000693226 0.00240396 0.000498627 0.00168102 0.00224739 0.000498278 0.00245741 0.00287581 0.000498359 
0.00348752 0.00253663 0.00049732 0.00447503 0.00268673 0.000497488 -0.00457709 0.00300422 0.00049744 
-0.0048793 0.00395799 0.000496855 -0.00384145 0.0036797 0.00049913 -0.00230747 0.00389639 0.000497732 
-0.00130858 0.00382181 0.000498783 -0.00053602 0.00302019 0.000498078 -0.000325088 0.00399634 0.00049775 
0.000456174 0.00337404 0.000497044 0.00144346 0.00321831 0.000499084 0.00222044 0.003847 0.00049847 
0.00317892 0.00356746 0.000499296 0.00417461 0.0036385 0.000498109 -0.00414392 0.00463526 0.000499678 
-0.00315819 0.00438269 0.000690267 -0.00147539 0.0048056 0.000497659 0.00043606 0.00464246 0.000499113 
0.00141204 0.00443229 0.000497971 0.00294737 0.00454027 0.00049969 0.00394519 0.00461088 0.000498754 
0.0048921 0.00493059 0.000497527 -0.00455034 -0.00493499 0.00131447 -0.00381554 -0.00424928 0.00131167 
-0.00288343 -0.00463249 0.00133821 -0.00203862 -0.00483788 0.00183096 -0.00121653 -0.0046523 0.00129349 
4.57817e-05 -0.00486995 0.00132865 0.00198435 -0.00483144 0.00137627 0.00308799 -0.00469672 0.00121912 
0.0034599 -0.00405949 0.00189145 0.00433436 -0.00468923 0.00123261 -0.00477298 -0.00396199 0.00131308 
-0.00403983 -0.00327557 0.00130878 -0.00308358 -0.00356874 0.00131661 -0.00212668 -0.00397946 0.00132782 
-0.00145636 -0.00323912 0.00136598 -0.000551447 -0.00393386 0.00149132 0.000442909 -0.00395328 0.00139168 
0.00143771 -0.0039966 0.00131349 0.0018844 -0.00315071 0.00160069 0.00243776 -0.0039419 0.0013416 
0.00299541 -0.00300852 0.00134883 0.00375088 -0.00359258 0.0010576 0.00441169 -0.00365657 0.00180227 
-0.00499602 -0.00298806 0.00131229 -0.00424497 -0.00214515 0.00123915 -0.00328166 -0.00240921 0.00123088 
-0.00232952 -0.00271152 0.00124498 -0.00106068 -0.00233864 0.0011935 -0.000312111 -0.00296845 0.00139474 
0.000673695 -0.0029945 0.00122245 0.00123284 -0.00203583 0.00126467 0.00229706 -0.00229723 0.00128686 
0.00405594 -0.00267414 0.00130622 -0.00385255 -0.0012357 0.00136983 -0.00286899 -0.00148956 0.00138072 
-0.00192234 -0.00180647 0.00135713 -0.00102595 -0.00138016 0.00147249 0.000153174 -0.00198875 0.00130228 
0.000532243 -0.00106457 0.00132879 0.00171489 -0.00116462 0.00119478 0.00266636 -0.0013774 0.00141021 
0.00353709 -0.00182639 0.0012109 0.00477875 -0.00194002 0.00128532 0.00422777 -0.00112986 0.00147873 
-0.00483681 -0.000845859 0.00127086 -0.00375653 -0.000205147 0.00130993 -0.00279042 -0.000483203 0.00131485 
-0.00180788 -0.000776008 0.0013178 -0.00110867 -6.36904e-05 0.00132711 -0.000376367 -0.000708207 0.00111859 
0.000955948 -0.000163836 0.00124962 0.00232275 -0.000370611 0.00121635 0.00339187 -0.000599915 0.00133857 
0.00428413 -0.00016189 0.00123926 -0.00478394 0.000317231 0.0012758 -0.00394217 0.000759701 0.00161843 
-0.00302963 0.000487151 0.00131547 -0.00206776 0.000215674 0.00131098 -0.00132984 0.000909068 0.00130773 
-0.000357134 0.000618662 0.00131122 0.000487043 0.000497629 0.00183174 0.00172542 0.00021235 0.00176219 
0.00233598 0.000864636 0.00131051 0.00321039 0.000380738 0.00128247 0.0041083 0.000817758 0.00131901 
-0.00416799 0.00177052 0.00153723 -0.0032492 0.00146158 0.00130097 -0.0022887 0.00118949 0.00130638 
-0.00161901 0.00169873 0.00184435 -0.000582348 0.0015926 0.00131798 0.000393327 0.00135522 0.00133122 
0.00134553 0.00101571 0.00130721 0.002122 0.00184106 0.00130022 0.00323391 0.00151733 0.00125481 
0.00489159 0.00142445 0.00144799 -0.00489209 0.00236751 0.00119879 -0.00292345 0.00240493 0.00126974 
-0.00198872 0.00214561 0.00103214 -0.00110805 0.00247418 0.00137302 -6.56563e-05 0.00244709 0.00116528 
0.000780243 0.00294948 0.00134063 0.00113895 0.00201775 0.00130478 0.00184121 0.00279961 0.00131431 
0.00289695 0.0024712 0.00129876 0.0040656 0.00206395 0.00116034 0.00448723 0.00269523 0.00190946 
-0.00399187 0.00307832 0.00130351 -0.00306342 0.00347184 0.00109053 -0.00358719 0.00378765 0.0018787 
-0.00204204 0.00331306 0.00126175 -0.0010667 0.00347223 0.00140247 -7.174e-05 0.00350924 0.00133201 
0.000828784 0.00394355 0.00122786 0.00261712 0.00342936 0.00131393 0.00383693 0.00308202 0.0012571 
0.00480557 0.00333275 0.00120894 -0.00437967 0.00408149 0.00134979 -0.00363065 0.00472438 0.00150127 
-0.00275042 0.00426501 0.00161264 -0.00180834 0.0042837 0.00128107 -0.000820446 0.00443164 0.00124598 
-7.89875e-05 0.00432476 0.00190754 0.00102128 0.00492351 0.00127419 0.00178479 0.00418742 0.00139083 
0.00275463 0.00440273 0.0014944 0.00367305 0.00406693 0.00129019 0.00370591 0.0049733 0.00193035 
0.00463006 0.00435531 0.00127197 -0.00415314 -0.00460993 0.00217807 -0.00491958 -0.00404278 0.00291455 
-0.00347527 -0.00435652 0.00286961 -0.00278926 -0.00407484 0.00216091 -0.00243723 -0.00456818 0.00295336 
-0.00147368 -0.00469478 0.00272295 -0.00060606 -0.00475463 0.00207549 0.000540387 -0.00407991 0.00287251 
0.000250825 -0.00497497 0.00253781 0.000989846 -0.00448385 0.00207727 0.00192237 -0.00413655 0.0021737 
0.00268288 -0.0047823 0.00212722 0.00258604 -0.00417538 0.0029183 0.00338448 -0.004772 0.00284196 
0.00412685 -0.00413643 0.00263145 0.00485975 -0.00451177 0.00206194 -0.00468076 -0.00343783 0.00215743 
-0.00371914 -0.00371099 0.00214715 -0.00218497 -0.00328913 0.00204643 -0.00139942 -0.00399195 0.00201831 
-0.00186307 -0.00375521 0.00286953 -0.000690262 -0.00399881 0.00272204 -0.000887787 -0.003151 0.00219044 
3.02772e-05 -0.00354357 0.00220321 0.00075725 -0.00300228 0.00289475 0.00101778 -0.00348491 0.00206071 
0.00182695 -0.00323624 0.00259464 0.00270455 -0.00347403 0.00218253 0.00363845 -0.00310104 0.00210658 
0.00447351 -0.00313896 0.00265322 -0.00407317 -0.00264916 0.00208422 -0.00435993 -0.00213546 0.00288933 
-0.00311246 -0.00292022 0.00207547 -0.00253031 -0.00210894 0.00208907 -0.00249291 -0.00277947 0.00284691 
-0.00160423 -0.00247733 0.00202279 -0.00108341 -0.0023249 0.00286033 -0.000580363 -0.00207978 0.00202954 
-0.00023161 -0.00286054 0.00288458 0.000304278 -0.00259154 0.00208426 0.00129999 -0.00252907 0.00212882 
0.00263879 -0.00267304 0.00277588 0.00302463 -0.0022258 0.00196992 0.00363984 -0.00255797 0.00294343 
0.00400545 -0.00210963 0.00212876 0.00495273 -0.00243014 0.00213774 -0.00448295 -0.00161056 0.00204795 
-0.00390269 -0.00125215 0.00277686 -0.00349199 -0.0018372 0.00207883 -0.00277566 -0.00140752 0.00275553 
-0.00163863 -0.00148755 0.00225899 -0.00020522 -0.00115378 0.00199673 -0.00079154 -0.00137463 0.00277477 
6.16376e-05 -0.0019124 0.00277529 0.000748408 -0.00169759 0.00206946 0.000655015 -0.00111629 0.00287537 
0.00188541 -0.0017304 0.00199962 0.00164749 -0.00119486 0.00280895 0.00265126 -0.00156237 0.00261862 
0.0034272 -0.00129833 0.00205033 0.00460942 -0.00135228 0.00237487 -0.00425897 -0.000635529 0.00205726 
-0.00475081 -0.000713625 0.0029212 -0.00328569 -0.000854486 0.00209881 -0.00229758 -0.000740276 0.00218646 
-0.00275484 -0.000179661 0.00287488 -0.00110381 -0.000650196 0.00214892 -0.00101456 -2.53525e-05 0.0029234 
-0.000264133 -0.000151307 0.00193995 -0.000187591 -0.000583325 0.00283623 0.000677934 -0.000174938 0.00254336 
[...]
POINT_DATA 1400
FIELD FieldData 7
id 1 1400 int
17 57 74 16 56 133 69 113 31 
48 91 108 72 7 89 18 107 70 
28 51 102 36 80 12 45 95 19 
104 97 22 14 29 88 60 78 15 
148 61 1 26 65 103 68 10 27 
94 110 105 62 96 82 46 43 101 
37 90 59 42 55 4 114 2 77 
93 54 21 40 25 53 23 35 58 
33 92 109 8 20 112 13 6 5 
47 52 9 38 67 32 3 34 50 
39 44 85 41 79 63 71 24 11 
30 81 87 49 144 164 146 176 149 
222 118 168 278 125 137 124 99 194 
218 190 116 162 197 153 155 206 173 
179 73 115 121 157 161 139 195 136 
231 170 64 128 181 76 202 214 86 
123 98 159 156 117 138 236 209 169 
187 75 147 160 171 211 127 165 120 
212 257 225 177 142 129 119 151 126 
175 207 174 145 66 140 208 84 152 
134 130 131 141 172 100 200 158 205 
196 122 277 106 154 143 183 166 83 
135 215 221 249 111 150 217 167 192 
216 203 223 132 220 343 371 229 452 
331 319 342 301 260 337 291 293 377 
285 334 248 242 219 188 307 340 320 
289 329 273 330 292 270 327 224 350 
163 193 276 199 345 254 394 275 245 
305 227 443 267 253 204 299 239 325 
336 233 283 240 258 338 256 310 316 
266 304 281 357 259 314 303 268 323 
271 308 288 263 302 210 344 296 243 
261 213 284 272 252 235 381 295 191 
317 282 186 361 185 393 389 287 230 
198 348 251 250 234 322 353 332 244 
264 367 226 321 324 379 265 392 237 
246 294 438 279 184 189 286 201 333 
247 335 255 241 228 313 383 232 387 
280 312 262 238 311 318 178 315 269 
355 180 349 326 290 182 306 369 274 
328 297 373 352 396 540 423 408 500 
385 431 446 449 418 436 437 356 366 
386 384 354 439 390 450 370 486 445 
488 300 397 422 347 309 429 380 432 
485 415 374 508 416 413 419 447 378 
417 441 467 407 364 475 375 498 298 
368 428 391 557 405 409 388 398 400 
359 451 382 339 425 455 362 489 341 
424 440 459 460 411 484 442 365 469 
426 399 509 358 463 404 435 454 410 
473 414 490 402 497 444 506 468 420 
372 480 401 395 448 346 562 430 403 
456 427 433 363 412 493 499 360 351 
507 376 434 406 491 578 560 563 524 
528 466 558 552 597 548 532 529 613 
541 479 503 601 561 482 546 536 623 
530 610 481 477 577 566 494 461 537 
471 616 554 587 571 556 496 522 620 
590 567 457 535 513 622 555 551 518 
585 574 487 476 511 495 547 591 504 
550 531 492 565 483 592 533 581 465 
596 579 502 542 464 519 543 462 470 
545 474 621 478 512 538 458 606 505 
619 580 453 526 615 527 553 609 549 
517 559 525 523 569 510 421 514 520 
544 539 521 501 472 534 515 604 600 
608 643 711 572 653 713 664 614 652 
637 658 598 700 672 651 583 712 632 
694 724 647 660 642 573 650 638 607 
709 575 716 731 646 669 692 714 726 
707 629 668 635 667 576 626 633 640 
654 673 603 688 679 703 594 663 687 
593 634 730 678 718 617 612 657 697 
645 729 691 715 618 683 648 624 662 
676 602 630 719 674 661 695 564 686 
665 644 704 568 586 721 584 666 611 
725 689 727 655 685 588 708 698 699 
684 693 582 706 627 639 631 599 670 
705 625 675 656 649 605 636 570 732 
589 516 671 762 595 659 677 710 840 
641 899 797 767 776 720 799 744 813 
842 696 806 780 773 747 765 752 836 
792 804 778 789 741 701 851 733 763 
728 828 786 761 817 764 772 883 793 
740 795 816 760 742 846 682 750 805 
737 860 751 838 680 790 820 835 736 
894 815 823 768 827 771 690 802 807 
896 628 781 811 723 787 854 779 829 
753 784 770 844 812 821 759 893 774 
814 766 782 826 739 832 785 822 839 
681 800 819 722 757 756 788 897 856 
777 850 791 746 748 878 845 809 843 
717 743 755 754 734 738 847 837 825 
775 745 794 769 702 783 735 803 749 
865 758 934 946 869 824 964 872 895 
923 834 945 990 998 975 880 928 863 
913 864 831 903 935 862 890 932 877 
942 852 953 997 994 841 931 955 919 
917 888 912 1011 898 833 884 902 801 
949 881 848 874 996 861 885 830 914 
909 958 873 866 858 952 933 849 921 
915 992 944 908 853 943 1009 904 796 
918 951 925 926 818 930 886 976 929 
867 808 882 870 905 875 901 887 948 
979 900 876 941 950 879 910 922 855 
938 1005 937 940 916 859 857 911 939 
924 892 989 991 889 947 920 798 927 
956 810 936 871 891 960 954 868 1020 
1162 906 1032 1044 1023 1013 1037 1120 1017 
962 981 1042 961 1141 1015 1066 984 1058 
1021 1113 1096 1022 985 1099 1055 1012 1027 
972 1079 1047 973 1041 1034 965 1004 1053 
999 1083 971 980 1025 907 1070 1040 957 
1118 1035 966 1000 1116 969 1019 1061 1043 
1048 1003 1026 986 1030 1002 1097 1038 1028 
978 1052 983 1051 959 1016 1063 1057 967 
1062 1050 1014 988 1010 1018 1092 1008 974 
977 1024 1049 1115 1046 1033 1006 1091 1056 
970 993 1031 1029 1045 1039 1060 1001 968 
1073 995 1007 1107 963 1065 1108 982 987 
1104 1088 1054 1077 1064 1167 1213 1105 1216 
1180 1194 1284 1093 1082 1200 1159 1112 1101 
1170 1134 1207 1219 1137 1185 1173 1127 1132 
1164 1145 1165 1193 1111 1181 1153 1143 1122 
1208 1203 1178 1085 1234 1250 1215 1084 1158 
1117 1102 1201 1157 1129 1133 1075 1160 1155 
1228 1067 1168 1087 1227 1072 1068 1211 1195 
1098 1135 1149 1121 1130 1069 1171 1140 1128 
1144 1059 1169 1071 1125 1100 1163 1147 1124 
1136 1176 1081 1156 1192 1152 1076 1138 1154 
1142 1123 1106 1074 1131 1103 1090 1080 1204 
1214 1086 1166 1110 1089 1198 1191 1161 1184 
1175 1148 1078 1146 1209 1119 1205 1094 1174 
1190 1126 1189 1109 1224 1151 1218 1036 1220 
1114 1196 1095 1150 1199 1139 1304 1328 1307 
1256 1297 1277 1233 1294 1230 1372 1389 1255 
1315 1265 1318 1235 1206 1282 1260 1337 1296 
1252 1325 1279 1197 1251 1317 1275 1361 1263 
1246 1268 1241 1287 1342 1261 1240 1316 1238 
1324 1270 1320 1314 1222 1291 1172 1225 1217 
1243 1182 1288 1187 1269 1394 1247 1258 1278 
1242 1179 1259 1226 1281 1257 1272 1285 1183 
1369 1321 1221 1348 1350 1244 1186 1188 1264 
1283 1229 1336 1202 1302 1248 1309 1177 1293 
1306 1212 1249 1232 1223 1286 1271 1330 1239 
1329 1237 1266 1313 1331 1231 1253 1273 1236 
1298 1344 1319 1280 1340 1274 1210 1339 1245 
1267 1312 1262 1276 1333 1355 1400 1367 1345 
1377 1358 1390 1364 1386 1310 1352 1299 1347 
1322 1335 1366 1397 1354 1387 1346 1384 1396 
1308 1360 1295 1311 1326 1399 1383 1351 1305 
1343 1292 1373 1341 1380 1303 1395 1254 1391 
1332 1327 1357 1289 1379 1385 1334 1381 1376 
1338 1370 1356 1388 1398 1382 1290 1349 1301 
1363 1353 1300 1362 1392 1368 1378 1365 1374 
1371 1375 1359 1323 1393 
type 1 1400 int
1 1 1 1 1 1 1 1 1 
1 1 1 1 1 1 1 1 1 
1 1 1 1 1 1 1 1 1 
1 1 1 1 1 1 1 1 1 
1 1 1 1 1 1 1 1 1 
1 1 1 1 1 1 1 1 1 
1 1 1 1 1 1 1 1 1 
1 1 1 1 1 1 1 1 1 
1 1 1 1 1 1 1 1 1 
1 1 1 1 1 1 1 1 1 
1 1 1 1 1 1 1 1 1 
1 1 1 1 1 1 1 1 1 
1 1 1 1 1 1 1 1 1 
1 1 1 1 1 1 1 1 1 
1 1 1 1 1 1 1 1 1 
1 1 1 1 1 1 1 1 1 
1 1 1 1 1 1 1 1 1 
1 1 1 1 1 1 1 1 1 
1 1 1 1 1 1 1 1 1 
1 1 1 1 1 1 1 1 1 
1 1 1 1 1 1 1 1 1 
1 1 1 1 1 1 1 1 1 
1 1 1 1 1 1 1 1 1 
1 1 1 1 1 1 1 1 1 
1 1 1 1 1 1 1 1 1 
1 1 1 1 1 1 1 1 1 
1 1 1 1 1 1 1 1 1 
1 1 1 1 1 1 1 1 1 
1 1 1 1 1 1 1 1 1 
1 1 1 1 1 1 1 1 1 
1 1 1 1 1 1 1 1 1 
1 1 1 1 1 1 1 1 1 
1 1 1 1 1 1 1 1 1 
1 1 1 1 1 1 1 1 1 
1 1 1 1 1 1 1 1 1 
1 1 1 1 1 1 1 1 1 
1 1 1 1 1 1 1 1 1 
1 1 1 1 1 1 1 1 1 
1 1 1 1 1 1 1 1 1 
1 1 1 1 1 1 1 1 1 
1 1 1 1 1 1 1 1 1 
1 1 1 1 1 1 1 1 1 
1 1 1 1 1 1 1 1 1 
1 1 1 1 1 1 1 1 1 
1 1 1 1 1 1 1 1 1 
1 1 1 1 1 1 1 1 1 
1 1 1 1 1 1 1 1 1 
1 1 1 1 1 1 1 1 1 
1 1 1 1 1 1 1 1 1 
1 1 1 1 1 1 1 1 1 
1 1 1 1 1 1 1 1 1 
1 1 1 1 1 1 1 1 1 
1 1 1 1 1 1 1 1 1 
1 1 1 1 1 1 1 1 1 
1 1 1 1 1 1 1 1 1 
1 1 1 1 1 1 1 1 1 
1 1 1 1 1 1 1 1 1 
1 1 1 1 1 1 1 1 1 
1 1 1 1 1 1 1 1 1 
1 1 1 1 1 1 1 1 1 
1 1 1 1 1 1 1 1 1 
1 1 1 1 1 1 1 1 1 
1 1 1 1 1 1 1 1 1 
1 1 1 1 1 1 1 1 1 
1 1 1 1 1 1 1 1 1 
1 1 1 1 1 1 1 1 1 
1 1 1 1 1 1 1 1 1 
1 1 1 1 1 1 1 1 1 
1 1 1 1 1 1 1 1 1 
1 1 1 1 1 1 1 1 1 
1 1 1 1 1 1 1 1 1 
1 1 1 1 1 1 1 1 1 
1 1 1 1 1 1 1 1 1 
1 1 1 1 1 1 1 1 1 
1 1 1 1 1 1 1 1 1 
1 1 1 1 1 1 1 1 1 
1 1 1 1 1 1 1 1 1 
1 1 1 1 1 1 1 1 1 
1 1 1 1 1 1 1 1 1 
1 1 1 1 1 1 1 1 1 
1 1 1 1 1 1 1 1 1 
1 1 1 1 1 1 1 1 1 
1 1 1 1 1 1 1 1 1 
1 1 1 1 1 1 1 1 1 
1 1 1 1 1 1 1 1 1 
1 1 1 1 1 1 1 1 1 
1 1 1 1 1 1 1 1 1 
1 1 1 1 1 1 1 1 1 
1 1 1 1 1 1 1 1 1 
1 1 1 1 1 1 1 1 1 
1 1 1 1 1 1 1 1 1 
1 1 1 1 1 1 1 1 1 
1 1 1 1 1 1 1 1 1 
1 1 1 1 1 1 1 1 1 
1 1 1 1 1 1 1 1 1 
1 1 1 1 1 1 1 1 1 
1 1 1 1 1 1 1 1 1 
1 1 1 1 1 1 1 1 1 
1 1 1 1 1 1 1 1 1 
1 1 1 1 1 1 1 1 1 
1 1 1 1 1 1 1 1 1 
1 1 1 1 1 1 1 1 1 
1 1 1 1 1 1 1 1 1 
1 1 1 1 1 1 1 1 1 
1 1 1 1 1 1 1 1 1 
1 1 1 1 1 1 1 1 1 
1 1 1 1 1 1 1 1 1 
1 1 1 1 1 1 1 1 1 
1 1 1 1 1 1 1 1 1 
1 1 1 1 1 1 1 1 1 
1 1 1 1 1 1 1 1 1 
1 1 1 1 1 1 1 1 1 
1 1 1 1 1 1 1 1 1 
1 1 1 1 1 1 1 1 1 
1 1 1 1 1 1 1 1 1 
1 1 1 1 1 1 1 1 1 
1 1 1 1 1 1 1 1 1 
1 1 1 1 1 1 1 1 1 
1 1 1 1 1 1 1 1 1 
1 1 1 1 1 1 1 1 1 
1 1 1 1 1 1 1 1 1 
1 1 1 1 1 1 1 1 1 
1 1 1 1 1 1 1 1 1 
1 1 1 1 1 1 1 1 1 
1 1 1 1 1 1 1 1 1 
1 1 1 1 1 1 1 1 1 
1 1 1 1 1 1 1 1 1 
1 1 1 1 1 1 1 1 1 
1 1 1 1 1 1 1 1 1 
1 1 1 1 1 1 1 1 1 
1 1 1 1 1 1 1 1 1 
1 1 1 1 1 1 1 1 1 
1 1 1 1 1 1 1 1 1 
1 1 1 1 1 1 1 1 1 
1 1 1 1 1 1 1 1 1 
1 1 1 1 1 1 1 1 1 
1 1 1 1 1 1 1 1 1 
1 1 1 1 1 1 1 1 1 
1 1 1 1 1 1 1 1 1 
1 1 1 1 1 1 1 1 1 
1 1 1 1 1 1 1 1 1 
1 1 1 1 1 1 1 1 1 
1 1 1 1 1 1 1 1 1 
1 1 1 1 1 1 1 1 1 
1 1 1 1 1 1 1 1 1 
1 1 1 1 1 1 1 1 1 
1 1 1 1 1 1 1 1 1 
1 1 1 1 1 1 1 1 1 
1 1 1 1 1 1 1 1 1 
1 1 1 1 1 1 1 1 1 
1 1 1 1 1 1 1 1 1 
1 1 1 1 1 1 1 1 1 
1 1 1 1 1 1 1 1 1 
1 1 1 1 1 1 1 1 1 
1 1 1 1 1 1 1 1 1 
1 1 1 1 1 
i 3 1400 int
0 0 0 0 1 0 0 0 0 
0 0 0 0 0 0 0 0 0 
0 0 0 0 0 0 0 0 0 
-1 0 0 0 0 0 1 0 0 
0 1 0 0 0 0 0 0 0 
0 0 0 0 0 0 0 1 0 
0 0 0 0 0 0 -1 0 0 
1 1 0 1 1 0 0 0 0 
0 0 0 0 0 0 0 0 0 
0 0 0 0 0 0 0 0 0 
0 0 0 0 0 0 0 0 0 
0 0 0 0 0 0 0 0 0 
0 0 0 0 0 0 0 0 0 
0 0 0 0 0 0 0 0 0 
0 0 0 0 0 0 0 0 0 
0 0 0 0 0 0 0 0 0 
0 0 0 0 0 0 0 0 0 
0 0 0 1 0 0 0 0 0 
0 0 0 0 0 0 0 0 0 
0 0 0 0 0 0 0 0 0 
0 0 0 0 0 0 0 0 0 
0 0 0 0 0 0 0 0 0 
0 0 0 0 0 0 0 0 0 
0 0 0 0 0 0 0 0 0 
-1 0 0 0 0 0 1 -1 0 
0 0 0 1 -1 0 0 0 0 
0 0 0 0 0 0 0 0 0 
0 0 0 -1 0 0 0 0 0 
1 0 0 1 0 0 0 0 0 
0 -1 0 0 0 0 0 -1 0 
0 0 0 0 0 0 0 0 0 
0 0 0 0 0 0 1 -1 0 
0 0 0 0 -1 0 0 -1 0 
0 0 0 0 0 0 -1 -1 0 
-1 -1 0 0 1 0 1 0 0 
0 0 0 0 0 0 0 0 0 
0 1 0 0 1 0 -1 0 0 
0 0 0 0 0 0 1 0 0 
0 0 0 0 1 0 0 0 0 
0 0 0 0 0 0 0 1 0 
0 0 0 0 0 0 0 0 0 
0 0 0 0 0 0 0 0 0 
1 0 0 0 -1 0 0 0 0 
0 0 0 0 0 0 0 0 0 
0 1 0 0 0 0 0 0 0 
0 0 0 0 0 0 0 0 0 
0 0 0 0 0 0 0 1 0 
0 0 0 0 1 0 0 0 0 
0 0 0 -1 0 0 0 0 0 
0 0 0 0 0 0 0 0 0 
0 0 0 0 0 0 0 0 0 
0 0 0 0 0 0 0 0 0 
0 0 0 0 0 0 1 0 0 
0 0 0 0 0 0 0 0 0 
0 0 0 0 0 0 0 0 0 
0 0 0 0 0 0 0 0 0 
0 0 0 0 0 0 0 0 0 
0 0 0 0 0 0 0 0 0 
0 0 0 0 -1 0 -1 0 0 
-1 0 0 1 -1 0 0 0 0 
0 0 0 0 0 0 0 0 0 
0 0 0 0 0 0 0 -1 0 
0 0 0 0 0 0 0 0 0 
0 0 0 0 0 0 0 0 0 
-1 0 0 0 0 0 0 0 0 
0 0 0 0 0 0 0 0 0 
0 0 0 1 0 0 0 0 0 
0 0 0 0 0 0 0 0 0 
0 0 0 0 0 0 0 0 0 
0 0 0 0 -1 0 -1 0 0 
0 0 0 0 0 0 0 0 0 
0 0 0 0 0 0 1 1 0 
0 0 0 0 0 0 0 0 0 
0 0 0 0 1 0 0 0 0 
0 1 0 0 0 0 0 1 0 
-1 0 0 0 1 0 1 0 0 
0 0 0 0 1 0 0 1 0 
0 0 0 0 0 0 0 0 0 
0 0 0 0 0 0 0 0 0 
0 0 0 0 0 0 0 0 0 
0 0 0 0 0 0 0 0 0 
0 0 0 0 0 0 0 0 0 
0 0 0 0 0 0 0 0 0 
0 0 0 0 0 0 0 0 0 
0 0 0 0 0 0 0 0 0 
0 0 0 -1 0 0 1 0 0 
0 0 0 0 0 0 0 0 0 
0 0 0 0 0 0 0 0 0 
0 0 0 0 0 0 0 0 0 
0 0 0 0 0 0 0 0 0 
0 0 0 -1 0 0 0 0 0 
0 0 0 0 0 0 0 0 0 
0 0 0 0 0 0 0 0 0 
0 0 0 0 0 0 0 0 0 
0 0 0 0 0 0 0 0 0 
0 0 0 0 0 0 0 0 0 
0 0 0 0 0 0 1 0 0 
0 0 0 0 0 0 0 0 0 
0 0 0 0 0 0 0 0 0 
0 0 0 0 0 0 0 0 0 
0 0 0 -1 0 0 -1 0 0 
-1 0 0 0 0 0 0 0 0 
0 0 0 0 0 0 0 0 0 
0 0 0 0 0 0 0 0 0 
0 0 0 0 0 0 0 0 0 
0 0 0 0 0 0 0 0 0 
0 0 0 0 0 0 0 0 0 
1 0 0 1 0 0 0 0 0 
0 0 0 0 0 0 0 0 0 
0 0 0 0 0 0 0 0 0 
0 0 0 0 0 0 0 0 0 
0 0 0 0 0 0 0 0 0 
0 0 0 1 0 0 0 0 0 
0 0 0 0 0 0 0 0 0 
0 0 0 0 0 0 0 -1 0 
0 0 0 0 0 0 0 0 0 
0 0 0 -1 -1 0 0 0 0 
-1 0 0 1 0 0 0 0 0 
0 0 0 0 0 0 0 0 0 
0 0 0 0 0 0 0 -1 0 
0 0 0 0 0 0 -1 0 0 
1 1 0 0 0 0 0 0 0 
0 0 0 0 1 0 0 0 0 
0 0 0 0 0 0 0 1 0 
0 0 0 0 0 0 1 0 0 
0 0 0 1 0 0 0 0 0 
1 0 0 0 0 0 0 0 0 
0 0 0 0 0 0 0 0 0 
0 0 0 -1 1 0 -1 0 0 
0 0 0 0 1 0 0 0 0 
0 0 0 0 0 0 0 0 0 
0 0 0 0 0 0 0 0 0 
0 0 0 0 0 0 0 0 0 
0 0 0 0 0 0 0 0 0 
0 0 0 0 0 0 0 0 0 
0 0 0 0 0 0 0 0 0 
0 0 0 0 0 0 0 0 0 
-1 0 0 0 0 0 0 0 0 
0 0 0 0 0 0 0 0 0 
0 0 0 0 0 0 0 0 0 
0 0 0 -1 0 0 0 0 0 
0 0 0 0 0 0 0 0 0 
0 0 0 0 0 0 0 0 0 
0 0 0 0 0 0 0 0 0 
0 0 0 0 0 0 0 0 0 
0 0 0 0 0 0 0 0 0 
0 0 0 0 0 0 0 0 0 
0 0 0 0 0 0 0 0 0 
0 0 0 0 0 0 0 0 0 
0 0 0 0 0 0 0 0 0 
0 0 0 0 0 0 0 0 0 
0 0 0 1 0 0 0 0 0 
1 0 0 0 0 0 0 0 0 
0 0 0 0 0 0 0 0 0 
0 0 0 0 0 0 0 0 0 
0 0 0 0 0 0 0 0 0 
0 -1 0 0 0 0 0 0 0 
0 0 0 0 -1 0 0 -1 0 
0 0 0 0 0 0 0 0 0 
0 0 0 0 -1 0 0 0 0 
0 0 0 0 0 0 1 0 0 
0 0 0 0 0 0 0 0 0 
0 0 0 0 0 0 0 0 0 
0 0 0 0 0 0 0 0 0 
0 0 0 0 0 0 0 0 0 
0 0 0 0 0 0 0 0 0 
0 0 0 0 0 0 0 0 0 
0 0 0 0 0 0 0 0 0 
0 0 0 -1 0 0 0 0 0 
0 0 0 0 0 0 0 0 0 
0 0 0 0 0 0 0 0 0 
0 0 0 0 0 0 0 0 0 
0 0 0 0 0 0 0 0 0 
0 0 0 0 0 0 0 0 0 
0 0 0 0 0 0 0 0 0 
0 0 0 0 0 0 0 0 0 
0 0 0 0 0 0 0 0 0 
0 0 0 0 0 0 0 0 0 
0 0 0 0 0 0 0 0 0 
0 0 0 0 0 0 0 0 0 
0 0 0 0 0 0 0 0 0 
0 0 0 0 0 0 0 0 0 
0 0 0 0 0 0 0 0 0 
0 0 0 0 0 0 1 0 0 
0 0 0 0 0 0 0 0 0 
0 0 0 0 0 0 0 0 0 
0 0 0 0 0 0 0 0 0 
0 0 0 0 0 0 1 0 0 
0 0 0 0 0 0 0 0 0 
0 0 0 0 0 0 0 0 0 
0 0 0 0 0 0 0 0 0 
1 -1 0 0 0 0 0 0 0 
0 0 0 0 0 0 0 0 0 
0 0 0 0 0 0 0 0 0 
0 0 0 0 0 0 0 -1 0 
0 0 0 0 0 0 0 0 0 
0 -1 0 0 0 0 0 0 0 
0 0 0 0 0 0 0 0 0 
0 1 0 0 0 0 0 0 0 
0 0 0 0 0 0 0 0 0 
0 0 0 0 0 0 0 0 0 
0 1 0 0 0 0 0 0 0 
0 0 0 0 0 0 0 0 0 
0 0 0 0 1 0 0 0 0 
0 0 0 0 0 0 0 0 0 
0 1 0 0 0 0 0 0 0 
0 0 0 0 0 0 0 0 0 
0 0 0 0 0 0 0 0 0 
0 0 0 0 0 0 0 0 0 
0 0 0 -1 0 0 0 0 0 
0 0 0 0 0 0 0 0 0 
0 0 0 0 0 0 0 0 0 
0 0 0 0 0 0 0 0 0 
-1 0 0 0 0 0 0 0 0 
0 0 0 0 0 0 0 0 0 
0 0 0 0 0 0 0 0 0 
0 0 0 0 0 0 0 0 0 
0 0 0 -1 0 0 0 0 0 
0 0 0 0 0 0 0 0 0 
0 0 0 0 0 0 0 0 0 
0 0 0 0 0 0 0 0 0 
0 0 0 0 0 0 0 0 0 
0 0 0 0 0 0 0 0 0 
0 0 0 0 0 0 0 0 0 
0 0 0 0 0 0 0 0 0 
0 0 0 0 0 0 0 0 0 
0 0 0 0 0 0 0 0 0 
0 0 0 0 0 0 0 0 0 
0 0 0 0 0 0 0 0 0 
0 0 0 0 0 0 0 0 0 
0 0 0 0 0 0 1 0 0 
0 0 0 1 0 0 0 0 0 
0 0 0 0 0 0 0 0 0 
0 0 0 0 0 0 0 0 0 
-1 0 0 0 0 0 0 0 0 
0 0 0 0 0 0 0 -1 0 
0 0 0 0 0 0 0 0 0 
0 -1 0 0 -1 0 0 0 0 
0 -1 0 0 0 0 0 -1 0 
0 -1 0 1 0 0 1 0 0 
0 0 0 0 0 0 0 0 0 
0 1 0 0 0 0 0 0 0 
0 0 0 0 0 0 0 0 0 
0 0 0 0 0 0 0 1 0 
0 0 0 0 0 0 0 0 0 
0 0 0 0 0 0 0 0 0 
0 0 0 0 0 0 0 0 0 
0 0 0 0 0 0 0 0 0 
0 0 0 0 0 0 0 0 0 
0 0 0 0 0 0 0 0 0 
0 0 0 0 0 0 0 0 0 
0 0 0 0 0 0 0 0 0 
0 0 0 0 0 0 0 0 0 
0 0 0 0 0 0 0 0 0 
0 0 0 0 0 0 0 0 0 
0 0 0 0 0 0 0 0 0 
0 0 0 0 0 0 0 0 0 
0 0 0 0 0 0 0 0 0 
0 0 0 0 0 0 0 0 0 
0 0 0 0 0 0 0 0 0 
0 0 0 0 0 0 0 0 0 
0 0 0 0 0 0 0 0 0 
0 0 0 0 0 0 0 0 0 
0 0 0 0 0 0 0 0 0 
0 0 0 0 0 0 0 0 0 
0 0 0 0 0 0 1 0 0 
0 0 0 0 0 0 0 0 0 
0 0 0 0 0 0 0 0 0 
0 0 0 0 0 0 0 0 0 
0 0 0 0 0 0 0 0 0 
0 0 0 0 0 0 0 0 0 
0 0 0 0 0 0 0 0 0 
0 0 0 0 0 0 0 0 0 
0 0 0 0 0 0 0 0 0 
0 0 0 0 0 0 0 0 0 
0 0 0 0 0 0 0 0 0 
0 0 0 0 0 0 0 0 0 
0 0 0 0 0 0 0 0 0 
0 0 0 0 0 0 0 0 0 
0 0 0 0 0 0 0 0 0 
0 0 0 0 0 0 0 -1 0 
0 0 0 0 0 0 0 0 0 
0 0 0 0 0 0 0 0 0 
1 0 0 0 0 0 0 0 0 
0 0 0 0 0 0 0 0 0 
0 0 0 0 0 0 0 0 0 
0 0 0 0 0 0 0 0 0 
0 0 0 0 0 0 0 0 0 
0 0 0 0 0 0 0 1 0 
0 0 0 0 0 0 0 0 0 
0 0 0 0 0 0 0 0 0 
0 0 0 0 0 0 1 0 0 
0 0 0 0 0 0 0 0 0 
0 0 0 0 0 0 0 0 0 
0 0 0 0 0 0 0 0 0 
0 0 0 0 0 0 0 0 0 
0 0 0 0 0 0 0 0 0 
0 0 0 0 0 0 0 0 0 
0 0 0 0 0 0 0 0 0 
0 0 0 0 0 0 1 0 0 
0 0 0 0 0 0 0 0 0 
0 0 0 0 0 0 0 0 0 
0 0 0 0 0 0 0 0 0 
0 0 0 0 0 0 -1 0 0 
0 0 0 0 0 0 0 0 0 
0 0 0 0 0 0 0 0 0 
0 0 0 0 0 0 0 0 0 
0 0 0 0 0 0 0 0 0 
0 0 0 0 0 0 0 0 0 
0 0 0 0 0 0 0 0 0 
0 0 0 0 0 0 0 0 0 
0 0 0 0 0 0 0 0 0 
0 0 0 0 0 0 0 0 0 
0 0 0 0 0 0 0 0 0 
0 0 0 0 0 0 0 0 0 
0 0 0 -1 0 0 1 0 0 
0 0 0 0 0 0 0 0 0 
0 0 0 0 0 0 0 0 0 
0 -1 0 0 0 0 0 0 0 
0 0 0 0 -1 0 0 0 0 
0 -1 0 0 0 0 0 -1 0 
0 0 0 0 0 0 0 0 0 
0 0 0 0 0 0 0 0 0 
0 0 0 0 -1 0 0 0 0 
0 0 0 0 1 0 0 0 0 
0 0 0 0 0 0 -1 0 0 
-1 1 0 1 0 0 1 0 0 
0 0 0 0 0 0 0 0 0 
0 0 0 0 0 0 0 0 0 
0 0 0 0 0 0 0 0 0 
0 1 0 -1 0 0 0 0 0 
0 0 0 0 0 0 0 0 0 
0 0 0 0 0 0 0 0 0 
0 0 0 0 0 0 -1 0 0 
1 0 0 0 0 0 0 0 0 
0 0 0 0 0 0 0 0 0 
0 0 0 0 0 0 0 0 0 
-1 0 0 0 0 0 0 0 0 
0 0 0 0 0 0 0 0 0 
0 0 0 0 0 0 0 0 0 
0 0 0 0 0 0 0 0 0 
0 0 0 0 0 0 0 0 0 
0 0 0 0 0 0 0 0 0 
0 0 0 0 0 0 0 0 0 
0 0 0 0 0 0 0 0 0 
0 0 0 0 0 0 0 0 0 
0 0 0 0 0 0 0 0 0 
0 0 0 0 0 0 0 0 0 
0 0 0 0 0 0 0 0 0 
0 0 0 0 0 0 0 0 0 
0 0 0 0 0 0 0 0 0 
0 0 0 0 0 0 0 0 0 
0 0 0 0 0 0 1 0 0 
0 0 0 0 0 0 0 -1 0 
0 0 0 0 0 0 0 0 0 
0 0 0 0 0 0 0 0 0 
-1 0 0 0 0 0 0 0 0 
0 0 0 0 0 0 0 0 0 
0 0 0 0 0 0 0 0 0 
0 -1 0 0 0 0 0 0 0 
0 -1 0 0 0 0 0 0 0 
0 0 0 0 0 0 0 0 0 
0 0 0 0 0 0 0 0 0 
0 1 0 0 0 0 0 0 0 
0 0 0 0 0 0 0 0 0 
0 0 0 -1 0 0 0 0 0 
0 0 0 0 0 0 1 0 0 
0 0 0 0 0 0 0 0 0 
0 0 0 0 0 0 0 0 0 
0 0 0 0 0 0 0 0 0 
0 0 0 0 0 0 0 0 0 
1 0 0 1 0 0 0 0 0 
0 0 0 0 0 0 0 0 0 
0 0 0 0 0 0 0 0 0 
0 0 0 0 0 0 1 0 0 
0 0 0 0 0 0 0 0 0 
0 0 0 0 0 0 0 0 0 
0 0 0 0 0 0 0 0 0 
0 0 0 0 0 0 0 0 0 
0 0 0 0 0 0 0 0 0 
0 0 0 0 0 0 1 0 0 
0 0 0 0 0 0 0 0 0 
0 0 0 0 0 0 0 0 0 
0 0 0 0 0 0 0 0 0 
0 0 0 0 0 0 0 0 0 
0 0 0 0 0 0 0 0 0 
0 0 0 0 0 0 0 0 0 
0 0 0 0 0 0 0 0 0 
0 0 0 0 0 0 0 0 0 
0 0 0 0 0 0 0 0 0 
0 0 0 0 0 0 0 0 0 
0 0 0 0 0 0 0 0 0 
0 0 0 0 0 0 0 0 0 
0 0 0 0 0 0 0 0 0 
0 0 0 0 0 0 0 0 0 
0 0 0 0 0 0 -1 0 0 
0 0 0 0 0 0 0 0 0 
0 0 0 0 0 0 0 0 0 
0 0 0 0 0 0 0 0 0 
0 0 0 0 0 0 0 0 0 
0 0 0 0 0 0 0 0 0 
0 0 0 0 0 0 0 -1 0 
0 0 0 0 -1 0 0 0 0 
0 0 0 0 0 0 0 0 0 
0 0 0 0 0 0 0 0 0 
0 0 0 0 0 0 0 0 0 
0 1 0 0 1 0 0 0 0 
0 0 0 0 0 0 0 0 0 
0 0 0 0 0 0 0 0 0 
0 0 0 0 0 0 0 0 0 
0 0 0 0 0 0 0 0 0 
0 0 0 0 0 0 0 0 0 
0 0 0 0 0 0 0 0 0 
0 0 0 0 0 0 0 0 0 
0 0 0 0 0 0 0 0 0 
0 0 0 0 0 0 0 0 0 
0 0 0 0 0 0 0 0 0 
0 0 0 0 0 0 0 0 0 
1 0 0 0 0 0 0 0 0 
0 0 0 0 0 0 0 0 0 
0 0 0 0 0 0 0 0 0 
0 0 0 0 0 0 0 0 0 
0 0 0 0 0 0 0 0 0 
0 0 0 0 0 0 0 0 0 
0 0 0 0 0 0 0 0 0 
0 0 0 0 0 0 0 0 0 
0 0 0 -1 0 0 -1 0 0 
0 0 0 0 0 0 0 0 0 
0 0 0 0 0 0 0 0 0 
0 0 0 0 0 0 0 0 0 
0 0 0 0 0 0 0 0 0 
0 0 0 0 0 0 0 0 0 
0 0 0 0 0 0 0 0 0 
0 0 0 0 -1 0 0 0 0 
0 0 0 0 0 0 0 0 0 
0 0 0 0 0 0 0 0 0 
0 0 0 0 0 0 0 0 0 
0 0 0 0 0 0 0 0 0 
0 0 0 -1 0 0 0 0 0 
-1 0 0 -1 0 0 0 0 0 
0 -1 0 0 0 0 0 -1 0 
0 0 0 0 0 0 0 0 0 
0 0 0 0 0 0 0 0 0 
0 1 0 0 0 0 0 0 0 
0 0 0 0 0 0 0 0 0 
0 0 0 0 0 0 0 0 0 
0 0 0 0 0 0 0 0 0 
0 0 0 0 0 0 0 0 0 
0 0 0 0 0 0 0 0 0 
0 0 0 0 0 0 0 0 0 
0 0 0 0 0 0 0 0 0 
0 0 0 0 0 0 1 0 0 
0 0 0 0 0 0 0 0 0 
0 0 0 0 0 0 0 0 0 
0 0 0 0 0 0 0 0 0 
0 0 0 0 0 0 0 0 0 
0 0 0 0 0 0 0 0 0 
0 0 0 0 0 0 0 0 0 
0 0 0 0 0 0 0 0 0 
0 0 0 0 0 0 0 0 0 
0 0 0 0 0 0 0 0 0 
0 0 0 0 0 0 0 0 0 
0 0 0 0 0 0 0 0 0 
0 0 0 0 0 0 0 0 0 
0 0 0 0 0 0 0 0 0 
0 0 0 0 0 0 0 0 0 
0 -1 0 0 0 0 
v 3 1400 double
-1.10885e-07 -5.14958e-07 -1.823e-05 1.21672e-06 -2.37291e-06 -1.74952e-05 2.13315e-06 -3.3979e-08 -1.4683e-05 
-1.21484e-06 -2.01247e-06 -1.7496e-05 8.82675e-06 -3.58034e-06 -1.52435e-05 1.06894e-07 -4.6e-07 -1.5495e-05 
2.47156e-06 -5.37593e-06 -1.50913e-05 1.85164e-06 -7.23566e-06 -1.49985e-05 3.95575e-06 3.54267e-06 -1.86913e-05 
1.27246e-06 2.78449e-06 -1.99632e-05 1.28428e-06 2.54638e-07 -1.75456e-05 -5.34328e-07 -2.89157e-06 -1.9133e-05 
-4.12485e-07 -2.77975e-06 -1.62674e-05 -7.14618e-07 -4.23063e-06 -1.50249e-05 -2.39486e-06 2.43692e-07 -1.32583e-05 
-5.8623e-07 4.75151e-06 -1.46046e-05 1.92348e-06 8.64071e-06 -1.39226e-05 -3.33686e-07 -4.28179e-06 -7.39421e-06 
1.95118e-06 -4.50398e-06 -1.75995e-05 1.9287e-06 -5.11432e-07 -1.80237e-05 -2.10376e-07 -8.61973e-07 -1.68088e-05 
-1.45314e-06 -3.30189e-06 -1.86268e-05 -2.26858e-06 -4.24327e-06 -1.48628e-05 -9.25256e-07 -1.50004e-06 -1.11362e-05 
-9.78404e-07 -7.89901e-07 -8.89988e-06 -3.84674e-06 5.26299e-07 -1.70147e-05 -1.58278e-06 1.77534e-06 -1.46881e-05 
1.4083e-06 -3.33e-06 -1.73062e-05 1.16882e-06 -1.9382e-06 -1.3233e-05 9.92133e-07 -2.75268e-06 -1.37151e-05 
6.5575e-08 -1.83732e-06 -1.58158e-05 -9.81515e-07 -1.08571e-06 -1.53591e-05 -2.54566e-06 -1.86446e-06 -1.44041e-05 
-1.19023e-06 2.66458e-06 -7.17035e-06 5.37529e-07 -2.11736e-07 -1.73416e-05 6.39304e-06 8.09696e-06 -1.51472e-05 
-1.59652e-06 -4.9389e-06 -1.62752e-05 8.04313e-07 1.9264e-06 -1.433e-05 -1.29952e-06 3.13134e-06 -1.8263e-05 
-4.60873e-07 -9.5559e-07 -1.93701e-05 3.59583e-07 -1.78082e-06 -1.48366e-05 1.3412e-06 -1.3514e-06 -1.92159e-05 
-1.34261e-06 -2.17843e-06 -1.81875e-05 -6.31425e-07 -1.82603e-06 -1.69657e-05 -1.30316e-06 7.08382e-07 -1.93581e-05 
-6.97858e-07 7.3313e-07 -1.85658e-05 2.9037e-06 3.46359e-06 -1.56228e-05 2.87678e-06 -4.6519e-06 -1.22933e-05 
-4.63999e-07 -2.86069e-06 -1.5577e-05 -1.75189e-06 1.51918e-07 -1.26908e-05 -1.44985e-06 -2.00083e-06 -1.65608e-05 