# vtk DataFile Version 4.0
Generated by LIGGGHTS
ASCII
DATASET POLYDATA
POINTS 623 float
-0.0043768 -0.00438439 0.000499209 -0.00342082 -0.00467299 0.000498627 -0.00243732 -0.00494515 0.000499881 
-0.00160404 -0.00419537 0.000498954 -0.000488304 -0.00498162 0.00049912 0.000301064 -0.00436665 0.000498986 
0.00137697 -0.00456092 0.000498877 0.00239889 -0.00462687 0.000498083 0.0037196 -0.00442199 0.000497527 
0.00466549 -0.00410028 0.000499277 -0.00460797 -0.00341191 0.000499226 -0.00364167 -0.00369818 0.000498953 
-0.00268178 -0.00397607 0.000499281 -0.00197265 -0.00326719 0.000499615 -0.00099445 -0.00306379 0.000499131 
-0.000625139 -0.00399168 0.000499244 2.88046e-05 -0.00323344 0.000499243 0.000954384 -0.00360992 0.000499652 
0.00194544 -0.00373686 0.000498303 0.00294662 -0.00378839 0.000498118 0.00443224 -0.00312822 0.000499249 
-0.00485201 -0.00243168 0.000499328 -0.00389296 -0.00271384 0.00049947 -0.00293334 -0.00299297 0.000499427 
-0.00177126 -0.0022882 0.000498476 -0.000345908 -0.00230447 0.000498843 0.000652608 -0.0023216 0.000498187 
0.00151088 -0.00279906 0.000681774 0.00248791 -0.00289817 0.000498352 0.00348363 -0.00281291 0.000499384 
0.00418256 -0.00209822 0.000499684 -0.00465047 -0.00145315 0.000499464 -0.00369065 -0.00173231 0.000499769 
-0.00272665 -0.00199604 0.000499471 -0.00200367 -0.00129704 0.000498346 -0.00296554 -0.00102525 0.000499352 
-0.00105006 -0.00159563 0.00049971 1.00636e-05 -0.00137105 0.000499078 0.00100823 -0.00132904 0.000498684 
0.0018453 -0.00187461 0.000498786 0.00284092 -0.00196319 0.000499664 0.0024173 -0.0010545 0.000498998 
0.00341303 -0.00114323 0.000499108 0.00441157 -0.00110966 0.00049972 -0.00392974 -0.000761328 0.000498547 
-0.00320493 -5.50748e-05 0.000499106 -0.00223728 -0.000325277 0.000499943 -0.00127152 -0.000616239 0.000499692 
0.00035565 -0.000429576 0.000499278 0.00152639 -0.000472526 0.00049846 0.00299604 -0.000234474 0.000499011 
0.0049496 -0.000266206 0.000499473 -0.00417031 0.000208136 0.000499507 -0.00345433 0.000913002 0.00049934 
-0.00248835 0.000642223 0.000498865 -0.00150574 0.000356629 0.000499523 -0.000546079 7.16384e-05 0.000499357 
0.000205684 0.000730461 0.000499167 0.00116723 0.000459916 0.000499078 0.00215444 0.000304307 0.000499598 
0.00293192 0.000935177 0.00049917 0.00382263 0.000327195 0.000498762 0.00473572 0.000732541 0.000499352 
-0.00440317 0.00112644 0.000817038 -0.00273831 0.00175608 0.000498942 -0.0017197 0.00137286 0.000499735 
-0.000769741 0.00104593 0.000499209 -1.78912e-05 0.00170434 0.000498556 0.000945329 0.00143492 0.00049969 
0.00193317 0.00127865 0.00049933 0.00271921 0.00191114 0.000498669 0.0038558 0.00134038 0.000498821 
0.00479128 0.00173074 0.000499757 -0.00423866 0.00205905 0.000499485 -0.00456984 0.00300204 0.000498856 
-0.00350886 0.00274124 0.000499632 -0.0025216 0.00289375 0.000497879 -0.00152332 0.00285426 0.000499842 
-0.000963435 0.00202681 0.000498994 0.000697779 0.00240333 0.000499729 0.00168536 0.00224762 0.000498891 
0.00246079 0.00287793 0.000499449 0.00349498 0.00254115 0.000498318 0.00448373 0.00268273 0.000498436 
-0.00487374 0.00395434 0.000497771 -0.00384016 0.00368434 0.00049895 -0.00230398 0.00389753 0.000498486 
-0.001307 0.00382913 0.000499582 -0.00053839 0.00302101 0.000499168 -0.000321876 0.00399621 0.000498834 
0.000468886 0.00337635 0.000498435 0.00145631 0.00322186 0.000499574 0.00222766 0.00385745 0.000499238 
0.00318373 0.00356768 0.000499648 0.00418016 0.00363371 0.000498991 -0.00414466 0.00463775 0.000499671 
-0.00315397 0.00438439 0.000690455 -0.00146688 0.00481509 0.000498305 0.00043884 0.0046435 0.000499762 
0.00141663 0.00444055 0.000498652 0.00295519 0.00454275 0.000500288 0.00395251 0.00460642 0.000499508 
0.00489841 0.00492723 0.000498118 -0.00454819 -0.00493524 0.00131717 -0.00381402 -0.00425181 0.0013147 
-0.00288208 -0.00462189 0.00133792 -0.00203993 -0.00485465 0.00182282 -0.00121459 -0.00464736 0.00130021 
5.0397e-05 -0.00485992 0.00133162 0.00198686 -0.00482767 0.00138559 0.00308493 -0.00468533 0.00122078 
0.00344136 -0.0040428 0.00189848 0.00433754 -0.00469432 0.001233 -0.004775 -0.00396273 0.0013158 
-0.00403963 -0.00327786 0.00131307 -0.00307466 -0.00356772 0.00132275 -0.00212343 -0.00397239 0.00132813 
-0.00145943 -0.00322744 0.00136796 -0.000551239 -0.00392676 0.00149373 0.000442625 -0.00394247 0.00139196 
0.00143778 -0.00399546 0.00131947 0.00187664 -0.00315008 0.00162022 0.00243754 -0.00393276 0.00134413 
0.00299475 -0.00301344 0.00135096 0.00375069 -0.0035973 0.00105913 0.00441615 -0.00363702 0.0018033 
-0.00499552 -0.0029876 0.00131723 -0.00424628 -0.00214247 0.00123949 -0.00328148 -0.00240198 0.0012272 
-0.00232989 -0.00270606 0.00124489 -0.00106016 -0.00232798 0.00119768 -0.000314373 -0.00296146 0.00139723 
0.000700591 -0.00298822 0.00124173 0.00122284 -0.00203456 0.001265 0.00229164 -0.00230752 0.00128008 
0.0040544 -0.00267941 0.00130936 -0.00385292 -0.00123374 0.00137478 -0.00287345 -0.00149368 0.00137753 
-0.00192195 -0.00180042 0.00135714 -0.00102765 -0.00136886 0.00147391 0.000157435 -0.0019877 0.00130156 
0.000523887 -0.00105764 0.00132808 0.00170815 -0.00116482 0.00119381 0.00265858 -0.00138682 0.00141045 
0.00353078 -0.0018342 0.00121133 0.00477667 -0.00193768 0.00128732 0.00420849 -0.00113781 0.00147773 
-0.0048424 -0.000857034 0.00127891 -0.00376331 -0.000207173 0.00131434 -0.00278921 -0.000470418 0.00132117 
-0.00181679 -0.000768862 0.00132499 -0.00111961 -5.25973e-05 0.00132568 -0.000381912 -0.00069364 0.00112011 
0.000952647 -0.00015907 0.00125373 0.00232302 -0.000372414 0.00122327 0.00336469 -0.00061748 0.00134762 
0.00427932 -0.000171407 0.00123475 -0.00479279 0.000312164 0.0012744 -0.00395679 0.000764486 0.00163439 
-0.00304781 0.000498976 0.00131517 -0.00207778 0.00023376 0.00131343 -0.00134177 0.000921124 0.00130869 
-0.000365389 0.000626169 0.00131137 0.000492583 0.000496051 0.00185113 0.00172299 0.000210532 0.00177196 
0.00232946 0.000860639 0.00131607 0.00319645 0.000364922 0.00127583 0.00408666 0.000825694 0.00132401 
-0.00418251 0.00175261 0.00156474 -0.00326057 0.00147491 0.00130255 -0.00229815 0.00120892 0.00129895 
-0.0016309 0.00171247 0.00184589 -0.000581094 0.00160165 0.00131807 0.000396418 0.00134339 0.00133214 
0.00133921 0.00101175 0.00131506 0.0021292 0.00184048 0.00130202 0.00323022 0.00151057 0.00126074 
0.0048799 0.00142342 0.00144732 -0.00488248 0.00236424 0.00120108 -0.00294588 0.00242282 0.00126987 
-0.00200729 0.00216844 0.00104062 -0.00111399 0.00245082 0.00139193 -5.18478e-05 0.00245168 0.00116036 
0.000799914 0.00294352 0.00133627 0.00114352 0.00200578 0.00130257 0.00184751 0.00279908 0.00131631 
0.00290518 0.00247591 0.00130052 0.00407121 0.00205825 0.00115884 0.00447733 0.00268532 0.00189687 
-0.00398671 0.00308992 0.00130611 -0.0030725 0.00346904 0.00110142 -0.00358886 0.00379089 0.00189796 
-0.00204932 0.00331574 0.00126868 -0.00106754 0.00344946 0.00139307 -7.21864e-05 0.00349958 0.00132894 
0.000854468 0.00394015 0.0012275 0.00261943 0.00343344 0.00131504 0.00382141 0.00309368 0.00126349 
0.00481242 0.00333146 0.00121246 -0.00437089 0.00408157 0.00134997 -0.00362575 0.00473007 0.00149973 
-0.00274229 0.0042734 0.00159504 -0.00179514 0.0042824 0.00127761 -0.000808949 0.00444081 0.00124896 
-5.7512e-05 0.00432167 0.00189724 0.0010247 0.00492371 0.00128035 0.00181045 0.00418872 0.0013814 
0.00277802 0.00440584 0.00150051 0.00370559 0.00408467 0.00131503 0.00466616 0.00435985 0.00128719 
-0.0041708 -0.00459735 0.00218154 -0.00493282 -0.00403703 0.00292941 -0.00347483 -0.00437277 0.00286227 
-0.0027789 -0.00408206 0.00217282 -0.00244031 -0.00458977 0.00296418 -0.00147762 -0.00469581 0.00271587 
-0.0006018 -0.0047542 0.00208136 -0.000693328 -0.00399655 0.00272658 0.000536929 -0.004081 0.00288339 
0.000261228 -0.00497583 0.00253251 0.00100243 -0.00448014 0.00208179 0.00192915 -0.0041183 0.00218182 
0.00153904 -0.00461882 0.00295146 0.00269234 -0.00476552 0.00213438 0.00261063 -0.00414668 0.00291249 
0.00339654 -0.00476095 0.00286104 0.00411496 -0.00410383 0.00263453 0.00484093 -0.00450058 0.00207339 
-0.00467126 -0.00344835 0.00216555 -0.00370732 -0.00371226 0.00214948 -0.00218 -0.00329111 0.00205699 
-0.00140247 -0.00398188 0.00202082 -0.00183973 -0.00378189 0.002897 -0.000886583 -0.00314564 0.00219724 
3.11751e-05 -0.00354156 0.00220989 0.00101805 -0.00348151 0.0020656 0.00181171 -0.00322535 0.00261548 
0.0026834 -0.00346004 0.00218889 0.00362833 -0.00308208 0.00211988 0.00446378 -0.00313305 0.00266508 
-0.00407552 -0.00265013 0.00209122 -0.00432434 -0.00214265 0.0029173 -0.00311009 -0.00291443 0.00207906 
-0.00252857 -0.00210204 0.00209207 -0.00248311 -0.00275949 0.00284634 -0.00160499 -0.00247512 0.00202239 
-0.00108725 -0.00233662 0.00286576 -0.000584839 -0.00207788 0.00203978 -0.000235306 -0.00285706 0.00289524 
0.000749619 -0.00301498 0.00290595 0.000293962 -0.00258366 0.00209249 0.00129026 -0.00252228 0.00213355 
0.00262454 -0.0026575 0.00278568 0.00301168 -0.00222816 0.00196907 0.0039966 -0.00212668 0.00213961 
0.00494951 -0.00242734 0.00214302 -0.00447067 -0.00161763 0.00206037 -0.00389447 -0.00124912 0.00278919 
-0.00349242 -0.00183907 0.00208283 -0.00277115 -0.00140446 0.00276507 -0.00164002 -0.00147885 0.00225966 
-0.000210187 -0.00114235 0.00200268 -0.000796819 -0.0013832 0.00278544 5.22788e-05 -0.00190673 0.0027892 
0.000737539 -0.00168944 0.00206832 0.000642811 -0.00110939 0.0029117 0.00188907 -0.00173492 0.00199243 
0.00163082 -0.00120176 0.00279616 0.00264168 -0.00157567 0.00262928 0.00341707 -0.00131693 0.00205891 
0.00461606 -0.00135584 0.00237507 -0.00426358 -0.000638611 0.00206486 -0.00477563 -0.00066338 0.00292655 
-0.00328482 -0.000853037 0.00210297 -0.00229816 -0.000730028 0.00219936 -0.00265286 -3.19598e-05 0.00281986 
-0.00112035 -0.000632152 0.00214302 -0.00101834 -1.5764e-05 0.00292492 -0.000272612 -0.000140402 0.00194517 
-0.000200877 -0.000582031 0.00283838 0.000676806 -0.000172362 0.0025692 0.00122619 -0.000784863 0.00198482 
[...]
POINT_DATA 623
FIELD FieldData 7
id 1 623 int
17 57 74 16 56 69 113 31 48 
91 108 72 7 89 18 133 107 70 
28 51 102 36 80 12 95 19 104 
97 22 14 29 88 60 45 78 15 
148 61 1 26 65 103 68 10 27 
94 110 105 62 96 82 46 43 101 
37 90 59 42 55 4 114 2 77 
93 54 21 40 25 53 23 35 58 
33 92 9 109 8 20 112 13 6 
5 47 52 38 67 32 3 34 50 
39 44 85 41 79 63 71 24 11 
30 81 87 49 144 164 146 176 149 
222 118 168 278 125 137 124 99 194 
218 190 116 162 197 153 155 206 173 
179 73 115 121 157 161 139 195 136 
231 170 64 128 181 76 202 214 86 
123 98 159 156 117 138 236 209 169 
187 75 147 160 171 211 127 165 120 
212 257 225 177 142 129 119 151 126 
175 207 174 145 66 140 208 84 152 
134 130 131 141 172 100 200 158 205 
196 122 277 106 154 143 183 166 83 
135 215 221 249 111 150 217 167 192 
216 203 132 220 343 371 229 452 331 
319 340 342 301 260 337 385 291 293 
377 285 334 248 242 219 188 307 320 
289 273 330 292 270 327 224 350 163 
193 276 199 345 254 394 329 275 245 
305 227 267 253 204 299 239 325 336 
233 283 240 258 338 256 310 316 266 
304 281 357 259 314 303 268 323 271 
308 288 263 302 210 344 296 243 261 
213 284 272 252 235 381 295 191 317 
282 186 361 185 393 389 287 230 198 
348 251 250 234 322 353 332 244 264 
226 321 324 379 265 237 246 294 438 
279 184 189 286 201 333 247 335 255 
241 228 392 313 383 232 387 280 312 
262 238 311 318 178 315 269 355 180 
349 326 290 182 306 369 274 328 223 
297 373 352 396 540 423 408 500 431 
446 449 418 436 437 356 366 386 384 
354 439 390 450 370 445 486 488 397 
300 422 347 309 429 380 485 443 415 
374 508 416 413 419 447 378 417 441 
467 432 407 364 475 498 298 368 428 
391 405 409 388 398 375 400 359 451 
382 339 425 362 489 341 424 440 459 
460 411 484 442 365 367 426 399 509 
358 463 404 435 454 410 469 473 414 
490 402 497 444 506 468 420 372 480 
401 395 448 346 430 403 456 427 433 
363 412 493 499 360 472 351 507 376 
562 434 406 491 560 466 558 529 524 
479 503 561 482 546 481 477 494 566 
471 554 496 522 461 537 457 513 555 
518 487 511 476 495 547 504 492 455 
565 483 465 502 464 519 462 470 474 
478 512 538 458 505 453 526 527 520 
517 510 421 544 521 501 534 515 531 
557 553 563 533 551 545 542 530 539 
516 541 604 608 570 514 528 535 606 
595 564 552 580 543 525 549 600 523 
532 586 550 615 568 556 536 548 559 
579 613 583 601 575 577 620 585 594 
567 592 596 621 611 581 582 569 599 
609 610 572 605 589 623 597 598 590 
616 578 573 607 614 587 571 618 576 
622 612 603 593 591 602 574 617 584 
619 588 
type 1 623 int
1 1 1 1 1 1 1 1 1 
1 1 1 1 1 1 1 1 1 
1 1 1 1 1 1 1 1 1 
1 1 1 1 1 1 1 1 1 
1 1 1 1 1 1 1 1 1 
1 1 1 1 1 1 1 1 1 
1 1 1 1 1 1 1 1 1 
1 1 1 1 1 1 1 1 1 
1 1 1 1 1 1 1 1 1 
1 1 1 1 1 1 1 1 1 
1 1 1 1 1 1 1 1 1 
1 1 1 1 1 1 1 1 1 
1 1 1 1 1 1 1 1 1 
1 1 1 1 1 1 1 1 1 
1 1 1 1 1 1 1 1 1 
1 1 1 1 1 1 1 1 1 
1 1 1 1 1 1 1 1 1 
1 1 1 1 1 1 1 1 1 
1 1 1 1 1 1 1 1 1 
1 1 1 1 1 1 1 1 1 
1 1 1 1 1 1 1 1 1 
1 1 1 1 1 1 1 1 1 
1 1 1 1 1 1 1 1 1 
1 1 1 1 1 1 1 1 1 
1 1 1 1 1 1 1 1 1 
1 1 1 1 1 1 1 1 1 
1 1 1 1 1 1 1 1 1 
1 1 1 1 1 1 1 1 1 
1 1 1 1 1 1 1 1 1 
1 1 1 1 1 1 1 1 1 
1 1 1 1 1 1 1 1 1 
1 1 1 1 1 1 1 1 1 
1 1 1 1 1 1 1 1 1 
1 1 1 1 1 1 1 1 1 
1 1 1 1 1 1 1 1 1 
1 1 1 1 1 1 1 1 1 
1 1 1 1 1 1 1 1 1 
1 1 1 1 1 1 1 1 1 
1 1 1 1 1 1 1 1 1 
1 1 1 1 1 1 1 1 1 
1 1 1 1 1 1 1 1 1 
1 1 1 1 1 1 1 1 1 
1 1 1 1 1 1 1 1 1 
1 1 1 1 1 1 1 1 1 
1 1 1 1 1 1 1 1 1 
1 1 1 1 1 1 1 1 1 
1 1 1 1 1 1 1 1 1 
1 1 1 1 1 1 1 1 1 
1 1 1 1 1 1 1 1 1 
1 1 1 1 1 1 1 1 1 
1 1 1 1 1 1 1 1 1 
1 1 1 1 1 1 1 1 1 
1 1 1 1 1 1 1 1 1 
1 1 1 1 1 1 1 1 1 
1 1 1 1 1 1 1 1 1 
1 1 1 1 1 1 1 1 1 
1 1 1 1 1 1 1 1 1 
1 1 1 1 1 1 1 1 1 
1 1 1 1 1 1 1 1 1 
1 1 1 1 1 1 1 1 1 
1 1 1 1 1 1 1 1 1 
1 1 1 1 1 1 1 1 1 
1 1 1 1 1 1 1 1 1 
1 1 1 1 1 1 1 1 1 
1 1 1 1 1 1 1 1 1 
1 1 1 1 1 1 1 1 1 
1 1 1 1 1 1 1 1 1 
1 1 1 1 1 1 1 1 1 
1 1 1 1 1 1 1 1 1 
1 1 
i 3 623 int
0 0 0 0 1 0 0 0 0 
0 0 0 0 0 0 0 0 0 
0 0 0 0 0 0 -1 0 0 
0 0 0 1 0 0 0 1 0 
0 0 0 0 0 0 0 0 0 
0 0 0 0 0 0 0 1 0 
0 0 0 0 0 0 -1 0 0 
1 1 0 1 1 0 0 0 0 
0 0 0 0 0 0 0 0 0 
0 0 0 0 0 0 0 0 0 
0 0 0 0 0 0 0 0 0 
0 0 0 0 0 0 0 0 0 
0 0 0 0 0 0 0 0 0 
0 0 0 0 0 0 0 0 0 
0 0 0 0 0 0 0 0 0 
0 0 0 0 0 0 0 0 0 
0 0 0 0 0 0 0 0 0 
0 0 0 1 0 0 0 0 0 
0 0 0 0 0 0 0 0 0 
0 0 0 0 0 0 0 0 0 
0 0 0 0 0 0 0 0 0 
0 0 0 0 0 0 0 0 0 
0 0 0 0 0 0 0 0 0 
0 0 0 0 0 0 0 0 0 
-1 0 0 0 0 0 0 0 0 
1 -1 0 0 0 0 1 -1 0 
0 0 0 0 0 0 0 0 0 
0 0 0 0 0 0 -1 0 0 
1 0 0 1 0 0 0 0 0 
0 -1 0 0 0 0 0 -1 0 
0 0 0 0 0 0 0 0 0 
0 0 0 0 0 0 1 -1 0 
0 0 0 0 -1 0 0 -1 0 
0 0 0 0 0 0 -1 -1 0 
-1 -1 0 0 1 0 1 0 0 
0 0 0 0 0 0 0 0 0 
0 1 0 0 1 0 -1 0 0 
0 0 0 0 0 0 1 0 0 
0 0 0 0 1 0 0 0 0 
0 0 0 0 0 0 0 1 0 
0 0 0 0 0 0 0 0 0 
0 0 0 0 0 0 0 0 0 
1 0 0 0 -1 0 0 0 0 
0 0 0 0 0 0 0 0 0 
0 1 0 0 0 0 0 0 0 
0 0 0 0 0 0 0 0 0 
0 0 0 0 0 0 0 1 0 
0 0 0 0 1 0 0 0 0 
0 0 0 -1 0 0 0 0 0 
0 0 0 0 0 0 0 0 0 
0 0 0 0 0 0 0 0 0 
0 0 0 0 0 0 0 0 0 
0 0 0 0 0 0 1 0 0 
0 0 0 0 0 0 0 0 0 
0 0 0 0 0 0 0 0 0 
0 0 0 0 0 0 0 0 0 
0 0 0 0 0 0 0 0 0 
0 0 0 0 0 0 0 0 0 
0 0 0 0 -1 0 -1 0 0 
-1 0 0 1 -1 0 0 0 0 
0 0 0 0 0 0 0 0 0 
0 0 0 0 0 0 0 -1 0 
0 0 0 0 0 0 0 0 0 
0 0 0 0 0 0 0 0 0 
-1 0 0 0 0 0 0 0 0 
0 0 0 0 0 0 0 0 0 
0 0 0 1 0 0 0 0 0 
0 0 0 0 0 0 0 0 0 
0 0 0 0 0 0 0 0 0 
0 0 0 0 -1 0 0 0 0 
0 0 0 0 0 0 0 0 0 
0 0 0 1 1 0 0 0 0 
0 0 0 0 0 0 0 0 0 
0 0 0 0 1 0 0 0 0 
0 0 0 0 1 0 0 0 0 
0 1 0 -1 0 0 0 1 0 
1 0 0 0 0 0 0 1 0 
0 1 0 0 0 0 0 0 0 
0 0 0 0 0 0 0 0 0 
0 0 0 0 0 0 0 0 0 
0 0 0 0 0 0 0 0 0 
0 0 0 0 0 0 0 0 0 
0 0 0 0 0 0 0 0 0 
0 0 0 0 0 0 0 0 0 
0 0 0 0 0 0 0 0 0 
-1 0 0 1 0 0 0 0 0 
0 0 0 0 0 0 0 0 0 
0 0 0 0 0 0 0 0 0 
0 0 0 0 0 0 0 0 0 
0 0 0 0 0 0 0 0 0 
-1 0 0 0 0 0 0 0 0 
0 0 0 0 0 0 0 0 0 
0 0 0 0 0 0 0 0 0 
0 0 0 0 0 0 0 0 0 
0 0 0 0 0 0 0 0 0 
0 0 0 0 0 0 0 0 0 
0 0 0 1 0 0 0 0 0 
0 0 0 0 0 0 0 0 0 
0 0 0 0 0 0 0 0 0 
0 0 0 0 0 0 0 0 0 
-1 0 0 -1 0 0 -1 0 0 
0 0 0 0 0 0 0 0 0 
0 0 0 0 0 0 0 0 0 
0 0 0 0 0 0 0 0 0 
0 0 0 0 0 0 0 0 0 
0 0 0 0 0 0 0 0 0 
0 0 0 1 0 0 0 0 0 
0 0 0 0 0 0 0 0 0 
0 0 0 0 0 0 0 0 0 
0 0 0 0 0 0 0 0 0 
0 0 0 0 0 0 0 0 0 
0 0 0 1 0 0 1 0 0 
0 0 0 0 0 0 0 0 0 
0 0 0 0 0 0 0 0 0 
0 -1 0 0 0 0 0 0 0 
0 0 0 0 0 0 -1 -1 0 
0 0 0 -1 0 0 1 0 0 
0 0 0 0 0 0 0 0 0 
0 0 0 0 0 0 0 0 0 
0 -1 0 0 0 0 -1 0 0 
0 0 0 -1 0 0 1 1 0 
0 0 0 0 0 0 0 0 0 
0 1 0 0 0 0 0 0 0 
0 1 0 0 0 0 0 0 0 
1 0 0 0 0 0 1 0 0 
0 0 0 1 0 0 0 0 0 
0 0 0 0 0 0 0 0 0 
0 0 0 0 0 0 -1 0 0 
-1 1 0 0 0 0 0 0 0 
0 1 0 0 0 0 0 0 0 
0 0 0 0 0 0 0 0 0 
0 0 0 0 0 0 0 0 0 
0 0 0 0 0 0 0 0 0 
0 0 0 0 0 0 0 0 0 
0 0 0 0 0 0 0 0 0 
0 0 0 0 0 0 0 0 0 
0 0 0 0 0 0 0 0 0 
0 0 0 0 0 0 0 0 0 
0 0 0 0 0 0 0 0 0 
0 0 0 -1 0 0 -1 0 0 
0 0 0 0 0 0 0 0 0 
0 0 0 0 0 0 0 0 0 
0 0 0 0 0 0 0 0 0 
0 0 0 0 0 0 0 0 0 
0 0 0 0 0 0 0 0 0 
0 0 0 0 0 0 0 0 0 
0 0 0 0 0 0 0 0 0 
0 0 0 0 0 0 0 0 0 
0 0 0 0 0 0 0 0 0 
0 0 0 0 0 0 0 0 0 
0 0 0 0 0 0 1 0 0 
0 0 0 1 0 0 0 0 0 
0 0 0 0 0 0 0 0 0 
0 0 0 0 0 0 0 0 0 
0 0 0 0 0 0 0 0 0 
0 -1 0 0 0 0 0 0 0 
0 0 0 0 -1 0 0 -1 0 
0 0 0 0 0 0 0 0 0 
0 0 0 0 0 0 0 -1 0 
0 0 0 0 0 0 0 0 0 
0 0 0 0 0 0 0 0 0 
0 0 0 0 0 0 0 0 0 
0 0 0 0 0 0 0 0 0 
0 0 0 0 0 0 0 0 0 
0 0 0 0 0 0 0 0 0 
0 0 0 0 0 0 0 0 0 
0 0 0 0 0 0 0 0 0 
0 0 0 0 0 0 0 0 0 
0 0 0 0 0 0 0 0 0 
0 0 0 0 0 0 0 0 0 
0 0 0 0 0 0 0 0 0 
0 0 0 0 0 0 0 0 0 
1 0 0 0 0 0 0 0 0 
0 0 0 0 0 0 0 0 0 
0 0 0 0 0 0 1 0 0 
0 0 0 0 0 0 0 0 0 
0 0 0 0 0 0 0 -1 0 
0 0 0 0 0 0 0 0 0 
0 0 0 0 0 0 0 -1 0 
0 0 0 0 0 0 0 0 0 
0 0 0 0 0 0 0 0 0 
0 0 0 0 0 0 0 0 0 
0 0 0 0 0 0 0 0 0 
0 0 0 0 0 0 0 0 0 
0 0 0 0 0 0 0 0 0 
0 -1 0 0 0 0 0 0 0 
0 0 0 0 0 0 0 0 0 
0 0 0 0 0 0 0 0 0 
0 0 0 0 0 0 0 0 0 
0 0 0 0 0 0 0 0 0 
0 0 0 0 0 0 0 0 0 
0 0 0 0 0 0 0 0 0 
0 0 0 0 0 0 0 0 0 
0 0 0 0 0 0 0 0 0 
0 0 0 0 0 0 0 0 0 
0 0 0 0 0 0 0 0 0 
0 0 0 0 0 0 0 0 0 
0 0 0 0 0 0 0 0 0 
0 0 0 0 0 0 0 0 0 
0 0 0 0 0 0 0 0 0 
0 0 0 0 0 0 0 0 0 
0 0 0 0 0 0 0 0 0 
0 0 0 0 0 0 0 0 0 
0 0 0 0 0 0 0 0 0 
0 0 0 0 0 0 0 0 0 
0 0 0 0 0 0 0 0 0 
0 0 0 0 0 0 0 0 0 
0 0 0 0 0 0 
v 3 623 double
-0.000612085 0.00147915 -3.16464e-05 -0.000665191 0.000879192 0.000864433 -9.39074e-05 0.00281974 0.00020822 
-0.000866206 -0.000951704 0.000306203 -0.000740756 6.31063e-05 -0.000394818 -0.000879146 -0.00174649 -0.000554549 
0.000964229 -0.000501963 0.000409127 0.000272525 -0.000373173 -0.000331697 -0.000402292 0.000250173 -0.000899845 
-0.000675475 0.000569391 -0.000233385 -0.000172298 0.000991913 0.000817902 0.000146597 0.00104715 0.000178112 
0.00041143 0.00198154 0.000924646 0.000872208 0.000186495 0.00028065 0.000505528 -0.000641999 0.000391485 
-0.000399353 -0.00107005 -0.000731068 0.00100788 0.000958514 0.000179655 0.000457645 -0.000893006 -9.6348e-05 
0.000576193 0.000477951 0.00070982 0.000275627 0.00061825 -0.000782559 8.67158e-05 0.00104397 0.000651311 
0.000603676 0.00144744 0.00011053 0.000761101 0.00180579 0.000168379 0.000570862 0.00250762 0.000259761 
-0.00141949 0.000402495 -0.000444845 -0.000243659 0.00112327 0.000412806 -0.000631664 0.003267 -0.000644835 
-0.000776338 0.00425962 -0.000760141 -0.000500622 0.000576403 0.000315197 0.000137063 -0.000381743 0.000221488 
0.00115286 -0.000139962 -0.00071659 -0.000633991 0.00161588 -0.000573181 -0.000852693 0.00141159 -0.000137435 
-0.00188871 -0.0030219 -0.000295172 -0.000353573 0.000322471 0.000213341 -0.0014492 -0.00261581 -0.000151642 
-0.00121903 0.000113007 -0.000114991 -0.000561427 0.00257476 -0.00151304 -0.000534884 0.0071862 -0.00597864 
-0.000444931 0.00163589 0.000311605 -0.00022523 0.000934436 -0.000423589 0.00221782 0.00157574 -0.00205756 
0.000418082 0.0013004 -0.000532336 0.000566351 0.00058461 -0.00149703 -3.66781e-05 0.00133335 0.000895602 
-0.00112032 -0.00199086 0.00178097 -0.00173006 -0.00279569 -0.000822629 -0.000500734 0.000537095 0.000207996 
8.53578e-05 0.00284469 -0.0004883 0.00189772 0.00359758 -0.000820155 0.00106376 0.00255043 -0.00387786 
0.00125848 0.00238614 0.00168953 0.00182732 0.00136205 -0.00061912 0.000320224 -0.000862724 0.000970676 
0.000238391 -0.00436319 0.00187844 -0.0013485 0.00189093 0.00187792 -0.00123409 0.00153657 -0.000491524 
0.0012457 0.000116374 0.00034701 0.00286171 0.0037839 -0.00058948 0.00189854 0.00144323 -0.00402246 
0.000413184 -0.000293127 0.000184507 0.000517403 0.0014384 0.000522986 0.00186273 -0.000923665 -0.000742186 
0.00130855 -0.000464655 -0.000265544 0.00157002 -0.000683272 0.000530495 -0.00377318 0.000106577 0.00106024 
0.00127282 -0.000824887 0.000923865 -0.000166679 -7.16701e-05 0.000384478 0.0007708 0.00091045 1.95171e-05 
0.00103805 -0.00207289 3.9599e-05 0.000285396 -0.00236878 0.000901879 0.000333556 -0.00209721 0.00221222 
0.00127969 -0.000198717 -0.000241835 -0.0017807 -8.89564e-06 0.00012013 0.000395618 -0.000279791 0.00153904 
-0.0021825 8.02703e-05 0.000795028 -0.000708944 -0.00146578 0.00174855 -0.000343975 -0.000646709 -0.000120608 
-0.000845177 -0.000307719 0.000319461 -0.000233283 0.000309952 0.00020528 -0.000413713 -0.00194667 -0.00128643 
0.000174191 -0.00101785 -9.17837e-05 -0.00105146 -0.00137246 0.000339374 -0.000311287 -0.000805366 0.00105577 
0.00106361 4.04226e-05 0.00100254 0.00158995 -1.68481e-05 0.00171839 0.000602968 0.000255634 0.000787906 
-0.000120683 -0.00122441 -0.000458915 -0.000620393 -0.00118113 0.00144243 -0.000448654 -0.000667011 0.00100537 
-0.00158487 0.00016078 0.00123196 -0.00232898 -0.000763841 0.000409609 0.000353846 -0.00172758 0.000171236 
0.000603996 -0.000256969 -0.000164804 0.000534503 -0.00016728 0.00101181 0.000454757 0.00164697 -0.000165085 
0.00140876 0.00175965 0.00291615 -0.00107995 -0.00148065 0.000226245 -0.000356278 -0.00112947 -0.000462777 
-0.00101876 -0.00163638 0.000405417 -0.000177021 -0.000774474 1.39629e-05 -0.000149436 0.000258096 0.00114549 
0.000221918 0.000672573 0.000241117 -0.000750645 0.00148449 0.00156976 -0.000615885 0.00626081 -0.00121413 
-0.00368181 0.00229969 0.00306961 -0.00393272 0.00387419 0.00362748 -0.00312499 -0.000768498 0.00125264 
-0.00154848 -0.000410149 0.000267169 -0.00035192 -0.000269932 -0.00181828 0.000610838 0.000363957 -0.00131598 
-0.00198666 -0.000202022 -0.00224112 -0.000434496 0.00172946 -0.000410992 -0.00279631 0.00181644 0.0016503 
0.00225009 0.00418625 -0.00011227 -0.00564014 -0.00319756 0.00232697 -0.00365843 0.00103779 0.003716 
-0.00171049 0.00131659 -0.000100399 -0.00193921 0.000796411 -0.00212557 -7.71816e-05 0.000694429 -0.00339778 
0.00193413 0.000673524 -0.00198154 0.000649523 0.0018313 -0.00161583 0.00492061 0.00127059 0.000609956 
0.000971559 0.000112107 -0.000206994 -0.00100107 0.000381396 -0.000633329 -0.00328641 0.00185649 -0.000402355 
0.00116457 0.00218453 0.00073382 -1.89134e-05 -0.00112202 0.00231358 -0.000641511 -0.00219891 0.00124434 
-0.000546769 -0.000440678 0.00063665 -0.00202828 0.000913548 -0.00258953 -0.00370092 -0.00134253 -0.00118134 
-0.000720765 0.00348888 -0.00174487 -0.00225269 0.00458829 -0.00283557 5.48448e-05 0.00103632 0.000326636 
0.000123605 0.000253885 -3.52484e-05 -0.00355545 0.00105551 0.00369146 -0.00377755 -0.00515385 -0.000726273 
-0.000590757 0.00136498 -0.000139945 0.00111544 0.000964839 -0.000530902 -0.00148513 0.00492255 0.0027265 
-0.00539738 0.00910182 -0.0137137 0.00216498 0.00120416 -0.00539011 0.00443616 0.000518961 -0.00134258 
0.000984962 0.00146688 -0.000470953 0.000623444 -0.001029 -0.000490244 0.00553445 0.000161033 -0.00388025 
0.00204908 0.00187477 0.000339763 -0.00600102 -0.00141401 0.00053876 0.000757411 -0.0025281 0.00287805 
-0.00119227 0.00193433 0.000925032 -0.000657584 1.99983e-05 0.0029186 -0.00169848 0.00420156 -0.00347732 
0.000762354 0.00599504 -0.00231802 0.00722372 0.00607285 -0.00630136 0.00612155 0.0026642 -0.00151996 
0.000677197 0.000946526 0.00238428 -0.000805337 -0.00483915 -0.000271968 0.000764156 0.00289682 0.00275688 
-0.000363282 -0.00326052 0.00307065 -0.0015346 -0.0063542 0.00171031 0.00236596 -0.00027189 0.00231304 
0.00138935 0.000749043 0.00165717 0.000549084 0.00262169 -0.000163704 0.000824133 0.00651627 4.76574e-05 
0.00183803 6.11651e-05 -0.000655489 0.00371946 0.00224661 0.00109869 0.00202932 -0.000434078 0.00206175 
0.000295809 -0.00302835 -0.000303584 0.0021618 -0.00225651 0.00122426 0.00271317 -0.00322313 0.00214466 
0.00197544 0.00134767 0.000385549 -0.000529043 6.20042e-05 0.00100414 -0.0011148 0.000652676 0.000642765 
0.000516219 0.00202744 -3.67778e-05 -0.000470155 -0.00421774 0.000721012 -0.000138247 -0.00250183 0.000866082 
0.00366124 0.00167531 0.000393097 -0.000445017 -0.0013855 0.00163334 0.00352971 -0.00572524 0.00384755 
0.00222269 -0.000525393 5.92393e-05 -0.00138709 0.00151982 0.000523332 0.000428478 -0.00237761 0.00231234 
0.00122863 -0.00103832 0.00106211 -5.84341e-06 -0.000739254 -0.00161692 -0.0008354 -0.00357837 0.000318459 
-0.00264499 -0.00288849 0.00141236 -0.000803755 -0.000392537 0.00464657 -0.00171129 -0.00367131 0.00120237 
0.00221364 -0.000787097 0.00417863 0.00125385 0.00132839 0.0013712 -0.00189373 0.00291924 0.00207576 
-0.00183712 0.000381757 0.00227762 -0.00179604 0.00102262 0.00233088 -0.00119169 -0.00289287 0.00166238 
-0.00180342 0.000854581 0.00074535 -0.000511448 -0.00239195 0.000925488 -0.000408204 -0.00195192 -0.000620622 
0.000607092 -0.000303629 0.00341355 0.000147902 0.00104397 0.000695235 -0.00052402 0.000997693 0.00442596 
-7.92091e-05 -0.00311262 0.00224072 -0.000160081 -0.00166467 0.000382931 -0.000800676 -0.000381991 -0.000238972 
-0.000824056 -0.00209706 0.00078451 -0.00115544 -0.000177874 0.000129848 -0.00159333 -0.000152797 0.00131944 
-0.000605637 0.00111259 0.00150632 0.0006424 -0.00141078 0.00152693 -6.84868e-05 0.00092331 0.000437082 
-0.0007661 0.00389269 -0.00147353 -0.00407972 -0.00148624 0.00120291 -0.00305954 0.00362061 0.00328122 
-0.00153669 0.00181602 0.00292439 0.00070416 -0.000942917 -0.00212638 -0.00121315 -0.000635003 -0.00179845 
-0.00211516 -0.000475815 0.000695748 0.00116382 -0.00317975 -0.000655965 0.00393029 0.00153834 -0.00639927 
-0.00140397 6.0948e-05 -0.00119065 -0.000780456 0.00276022 -0.00250118 0.00336718 0.000812075 0.00189935 
-0.000966232 0.00137014 0.00416436 0.000764275 -0.00285761 -0.00276398 0.00388401 -0.00957557 -0.00095175 
-5.8099e-05 -0.00427919 -0.00680693 -0.00261787 -0.0015721 -0.00318145 -0.00121639 0.00135307 -0.000652823 
-0.00318934 0.000675105 0.00330495 -0.0018943 0.00219037 -0.000238926 -0.00185487 0.00384041 -0.000319149 
-0.00711921 -0.000115462 -0.00116242 0.00197398 0.000468639 0.0020246 -0.0107961 4.50938e-07 -0.00024003 
-0.00573899 0.00094157 -0.00450173 -0.00360253 0.00350929 -0.00924322 0.00129676 -0.00491404 -0.0111472 
0.000462074 -0.00321767 -0.00193846 0.00256886 0.000836049 -0.00170806 0.000432802 0.000218201 0.00190038 
-0.00375495 0.00204955 0.00658888 0.00102683 -0.0108186 0.00990874 0.000155855 0.00111994 -0.00181084 
-0.00103297 0.000810264 -0.000377421 0.000311969 0.00469185 -0.00208763 -0.00165997 0.00323404 -0.00279151 
-0.00949474 0.00218513 0.00457302 -0.0101454 0.000998973 -0.00223404 -0.0108539 -0.0047233 -0.00125989 
-0.00438564 0.000339053 -0.00651115 -0.00972754 -0.00148543 0.00191874 -0.0049529 -0.000647333 -0.00366437 
-0.00286735 -0.00223179 -0.00115705 0.000750621 0.00114125 -0.00200924 0.00286729 -0.000335604 0.00118285 
-0.00117254 -0.00386906 0.00265345 -0.00651014 -0.00223744 0.00136078 -0.00924935 -0.00480828 0.0045737 
-0.00149691 0.000373751 0.00363853 0.00465644 -0.00408485 0.003647 -0.00183917 0.00451621 -0.000526538 
0.00199453 0.000485667 0.000758806 -0.013079 0.00880798 -0.00131253 -0.0229194 0.00113419 0.00881504 
-0.0199584 -0.00314444 -0.0105683 -0.010189 -0.000825478 0.00222048 -0.00625935 0.00530897 -0.00632232 
-0.0155257 0.00163212 -0.0110088 0.00202086 0.0143401 -0.0106238 0.00941465 0.00661519 -0.00433157 
-0.00495436 -0.00992277 -0.00457767 -0.00694524 -0.00135945 0.00271806 -0.00313486 -0.00376661 0.0114756 
-0.00296667 -0.00344531 0.00763576 -0.00215896 -0.00290892 0.00202234 -0.00704263 -0.00846792 0.00473502 
-0.000328676 -0.000198008 0.000897539 -0.00692946 0.00256146 0.00135477 -0.00256905 0.00253202 0.000748207 
-0.00884981 0.00838004 0.0036942 -0.000581451 0.0038622 0.000385767 -0.00946453 0.0138771 -0.018502 
-0.0043511 0.00803063 -0.00262343 -0.00259515 0.00713674 -0.00550842 0.00468433 0.00834841 0.00246814 
0.00450987 0.00107304 0.00510272 0.00450826 -0.0017426 0.00498607 0.00552083 0.00104165 0.00346869 
-0.00591896 -0.00396388 0.00230261 -0.00136699 -0.000599423 0.00777291 0.00133897 -0.00193654 0.00122843 
-0.00291981 -0.000209926 0.0033845 -0.00255651 0.00271801 0.00245292 -0.00181357 -0.00200152 0.00339356 
0.00114923 0.00490896 0.00280316 0.00456135 0.0056864 0.000871348 0.000218984 0.0015598 0.00179433 
-0.000114368 -0.00318009 0.00642784 -0.00492253 -0.00492239 0.00391886 -0.0041674 0.00219841 0.0100231 
0.00559463 0.00255494 0.000899197 -0.00794494 -0.0102767 0.0094405 0.000704119 -0.00652899 0.00420259 
-0.000323843 -0.00121639 0.000235148 -0.00191588 -0.00543938 0.00142475 0.00292102 -0.00213832 -0.000851882 
0.000307508 -0.00215058 0.000251123 0.000641122 0.000890114 0.00207529 -0.000307934 0.00113012 0.00237804 
-0.00121326 0.00053328 0.00215912 -0.00129872 0.00322646 0.00456654 0.00230026 0.00211326 0.00137984 
-0.000835507 0.000317913 0.00513178 -0.000601637 0.00117636 0.00378177 -0.00302216 -0.00363858 0.00464083 
-0.00109545 -0.00462704 0.00449646 0.00773277 -0.00601293 0.00968871 -0.00169992 0.00128449 -0.00403138 
0.0068622 0.00300274 0.00249126 0.00145339 0.000828206 0.00122567 0.00136672 -0.00458552 0.00422749 
-0.00168506 0.000231165 0.000292959 0.00144409 -0.00431084 0.00196215 0.000226462 0.000445311 -0.00119194 
-0.00460396 -0.0013506 0.00433302 -0.00213897 -0.00244463 0.00402737 0.00324735 7.48456e-06 0.00189429 
-0.00763589 -0.00217476 0.00734092 0.00358126 -0.00419944 0.000788195 0.00467662 -0.000391011 0.00769628 
0.00133779 -0.00352182 0.00494327 0.00208681 -0.00983607 0.00511986 -0.0016863 -0.0111371 -7.43255e-05 
-0.00207467 -0.00253022 0.000726746 0.00149201 0.00250914 0.00208752 0.00389046 0.00138185 0.0028954 
0.000824944 -0.000253659 0.00246138 -0.00254786 0.0023461 0.00275956 -0.00313784 0.00140887 0.00182205 