# vtk DataFile Version 4.0
Generated by LIGGGHTS
ASCII
DATASET POLYDATA
POINTS 566 float
-0.00437433 -0.00438252 0.000499478 -0.00341699 -0.00466898 0.000498736 -0.0024369 -0.00494746 0.000499479 
-0.0015984 -0.00419132 0.000499337 -0.000487512 -0.00497594 0.000499496 0.000303874 -0.0043643 0.000499057 
0.00136929 -0.00456592 0.000499279 0.00238937 -0.00463858 0.000499137 0.00372063 -0.00442501 0.000498576 
0.00466637 -0.00410196 0.000499377 -0.00460827 -0.00341062 0.00049886 -0.00364379 -0.00369521 0.000499089 
-0.00268424 -0.00397953 0.000498893 -0.00197334 -0.00326516 0.000499345 -0.000995603 -0.00305776 0.000499411 
-0.000620435 -0.00398431 0.000499571 3.11565e-05 -0.0032262 0.000499164 0.000955235 -0.00360676 0.000499347 
0.00194477 -0.00374398 0.000499087 0.0029454 -0.00379418 0.000498647 0.00442983 -0.00313113 0.000498772 
-0.00485446 -0.00243464 0.000498647 -0.00389408 -0.00271237 0.000498925 -0.0029342 -0.00299061 0.000499588 
-0.0017676 -0.0022859 0.000498913 -0.000346043 -0.00229848 0.000499537 0.000653022 -0.00232245 0.000499455 
0.00151083 -0.00279857 0.000689449 0.00248575 -0.00290471 0.000498838 0.00348196 -0.00281266 0.000499685 
0.00418145 -0.00209718 0.000498934 -0.00464953 -0.00145692 0.000499603 -0.00368793 -0.00172969 0.000499725 
-0.00272365 -0.00199309 0.000499582 -0.00200572 -0.00129767 0.00049867 -0.00297134 -0.00102404 0.000499197 
-0.00104857 -0.00158722 0.000499627 6.80926e-06 -0.00136301 0.000499429 0.001006 -0.001327 0.000498991 
0.00184158 -0.00187442 0.000499062 0.00283652 -0.00196887 0.000499699 0.00241513 -0.00105555 0.000499201 
0.00341068 -0.00115092 0.000499174 0.00440955 -0.00111974 0.000499576 -0.00393562 -0.000758055 0.00049857 
-0.00321669 -5.47451e-05 0.000499402 -0.0022427 -0.000326782 0.000499706 -0.00127494 -0.000613268 0.000499388 
0.000358145 -0.000418423 0.000499671 0.0015289 -0.000475053 0.000498781 0.00299699 -0.000241967 0.00049881 
0.00494616 -0.000276474 0.000499283 -0.00418087 0.000210338 0.000499318 -0.00347573 0.000918338 0.000498919 
-0.00249706 0.000639806 0.000499186 -0.00151679 0.000360646 0.000499299 -0.00054864 7.412e-05 0.000498864 
0.000209505 0.000725284 0.000499093 0.00117208 0.000458302 0.000498933 0.00215864 0.000300791 0.000499468 
0.00293548 0.000930387 0.000499266 0.00382664 0.000314062 0.000498646 0.0047326 0.000734177 0.000499283 
-0.00440845 0.00112717 0.000823465 -0.00275054 0.00176746 0.000499204 -0.00171478 0.00138242 0.000499265 
-0.000770781 0.00104916 0.000499266 -1.11543e-05 0.00170017 0.000498741 0.0009516 0.00143279 0.000499215 
0.00193995 0.00127579 0.000499563 0.0027235 0.00190705 0.000498827 0.0038509 0.00133365 0.000498598 
0.00480319 0.00173126 0.000499285 -0.00423785 0.00205586 0.000498856 -0.00456385 0.00300016 0.000498882 
-0.00351137 0.0027415 0.000499317 -0.00252242 0.00288191 0.00049816 -0.00152374 0.00285302 0.000499751 
-0.000953569 0.00203257 0.000499249 0.000703379 0.00240076 0.000499878 0.0016905 0.00224355 0.000499122 
0.00246657 0.00287286 0.000499225 0.0035006 0.00253541 0.000499061 0.00448914 0.00268094 0.000498832 
-0.00487221 0.00395192 0.000498722 -0.00383887 0.00368683 0.000499226 -0.00231625 0.00388421 0.000498702 
-0.00131374 0.00383018 0.000499656 -0.000539787 0.00302851 0.000499466 0.000472735 0.00337293 0.000498601 
0.00145981 0.00321616 0.000499579 0.00222825 0.00385542 0.000499523 0.00318507 0.00356694 0.000500342 
0.00418166 0.00363122 0.000499447 -0.0041403 0.00464037 0.000499694 -0.00315563 0.0043876 0.000698262 
-0.00146537 0.00481808 0.000498833 -0.000328639 0.00400535 0.000498636 0.000438037 0.00464555 0.00049976 
0.00141483 0.00443581 0.000499126 0.00295779 0.00453995 0.000499773 0.00395509 0.00460397 0.000499352 
0.00490121 0.00492666 0.000498895 -0.00454617 -0.00493477 0.00131921 -0.00380825 -0.00424706 0.0013154 
-0.00287959 -0.00461726 0.00133897 -0.00204603 -0.00487899 0.00182408 -0.00122328 -0.00464585 0.0013062 
4.75281e-05 -0.00484952 0.0013343 0.00198632 -0.00483005 0.0013931 0.00143463 -0.00399887 0.00131924 
0.0030812 -0.00468928 0.00121871 0.0034105 -0.00403098 0.00189491 0.00433997 -0.00469396 0.00123524 
-0.00477098 -0.00396204 0.0013152 -0.00403121 -0.00326991 0.00131678 -0.00307671 -0.00356539 0.00131867 
-0.00211934 -0.00396869 0.00132308 -0.00146277 -0.00321691 0.00136825 -0.000553524 -0.00392875 0.00149625 
0.000440194 -0.00393172 0.00138924 0.00187901 -0.00315673 0.00162893 0.002438 -0.00393553 0.00134741 
0.00299356 -0.00301404 0.00135185 0.00374862 -0.00359876 0.00105957 0.00441835 -0.00363553 0.00180001 
-0.00498986 -0.00298731 0.00131966 -0.00424876 -0.00213737 0.00123517 -0.00328273 -0.00239396 0.00122491 
-0.00233119 -0.00270009 0.00124207 -0.00105792 -0.00231844 0.00120156 -0.000318772 -0.00296213 0.00139686 
0.000703685 -0.00297733 0.00125294 0.00122268 -0.00203833 0.00127028 0.00228538 -0.00231318 0.00127853 
0.00405915 -0.00268155 0.00131005 -0.00386688 -0.00122568 0.00137817 -0.00286827 -0.00147861 0.00138317 
-0.00191656 -0.00179836 0.0013582 -0.00102733 -0.00135682 0.00147268 0.000161455 -0.00198513 0.00130167 
0.000528732 -0.00105623 0.00133373 0.00170681 -0.00116749 0.00119628 0.00265676 -0.0013945 0.0014078 
0.00352847 -0.00184152 0.00121073 0.00477212 -0.00194437 0.00128995 0.00419805 -0.00114791 0.00147627 
-0.00484414 -0.000864185 0.00128044 -0.00377624 -0.000202831 0.00131474 -0.0028063 -0.000468044 0.00131331 
-0.00182779 -0.000756795 0.0013196 -0.00112144 -5.00455e-05 0.00132247 -0.000374851 -0.000684251 0.00112579 
0.000958362 -0.000157852 0.00125556 0.0023212 -0.000372697 0.00122323 0.00335416 -0.000627676 0.00134845 
0.00427998 -0.000180724 0.00123821 -0.00480488 0.000304361 0.00127461 -0.00397342 0.000739862 0.00163493 
-0.00305712 0.000499982 0.00131532 -0.0020843 0.000237672 0.00131565 -0.00134547 0.000923456 0.00130699 
-0.000360295 0.000621909 0.00131292 0.000502642 0.000494702 0.00186006 0.00172725 0.000209811 0.00177681 
0.00233434 0.000857129 0.00131736 0.00319783 0.000356532 0.0012739 0.00408266 0.000818663 0.00132262 
-0.0041924 0.00174214 0.00158033 -0.00327045 0.00147643 0.00130148 -0.00230427 0.00122042 0.00128993 
-0.00163689 0.00170815 0.00185151 -0.000578281 0.00159714 0.00131681 0.000400122 0.00133822 0.00133411 
0.00134674 0.00100989 0.00131361 0.00114765 0.00200033 0.00130169 0.00213507 0.00183652 0.00130354 
0.00323706 0.00151864 0.00126486 0.00486906 0.00142332 0.00144805 -0.00487645 0.00236441 0.0012029 
-0.00295907 0.00242596 0.00127272 -0.00201748 0.00217438 0.00104316 -0.00112046 0.00243547 0.00139879 
-5.32433e-05 0.00245215 0.00115513 0.000802288 0.00293895 0.00133674 0.00184949 0.00279419 0.00131809 
0.00290855 0.00247257 0.00130134 0.00409064 0.00204521 0.00115805 0.00445846 0.00265113 0.0018909 
-0.00398329 0.00309395 0.00130726 -0.00306504 0.00347288 0.00109443 -0.00358837 0.00379269 0.00190719 
-0.00206088 0.0033082 0.0012732 -0.00107677 0.00343432 0.00138729 -8.17027e-05 0.0034904 0.00132053 
0.000859711 0.00393172 0.00123138 0.00141905 0.0034531 0.00193404 0.00262086 0.00342989 0.00131426 
0.00381918 0.00309489 0.00126328 0.00480836 0.00331377 0.00120983 -0.00436247 0.0040838 0.00134738 
-0.00362252 0.00473549 0.00151027 -0.002742 0.00427114 0.00160192 -0.00180099 0.00427258 0.00126517 
-0.000815789 0.00443973 0.0012534 -4.62608e-05 0.00431799 0.0018793 0.00101794 0.0049176 0.00127986 
0.00181603 0.00418265 0.00137842 0.00278415 0.00439865 0.00149742 0.00371726 0.00408742 0.00132106 
0.00467821 0.00436059 0.0012921 -0.0041393 -0.00461779 0.00218164 -0.00346704 -0.00440718 0.00290266 
-0.00277668 -0.00408326 0.00217732 -0.00148445 -0.00468813 0.00271449 -0.000605117 -0.00474486 0.0020853 
0.000549203 -0.00408898 0.00287392 0.000262945 -0.00498096 0.00252082 0.00101327 -0.00448729 0.00208314 
0.00191902 -0.00407912 0.00218894 0.00267975 -0.00472592 0.00213354 0.00257743 -0.00411271 0.00293922 
0.00369959 -0.0049939 0.00194208 0.00335809 -0.00473714 0.00289884 0.00411299 -0.00415598 0.00259742 
0.00487349 -0.00452155 0.00206235 -0.00495667 -0.0040296 0.00294076 -0.00467146 -0.00345744 0.00217242 
-0.0037058 -0.00371543 0.00215517 -0.00385394 -0.00314182 0.00295994 -0.00219698 -0.00328035 0.00204425 
-0.00140564 -0.00397313 0.00202194 -0.00182032 -0.00367436 0.00288176 -0.000693621 -0.00399106 0.00273638 
-0.000881961 -0.00314129 0.00220324 3.2633e-05 -0.00354328 0.0022148 0.00102378 -0.0034865 0.00207357 
0.00181387 -0.00320387 0.00266043 0.00267808 -0.00342582 0.00220615 0.00363077 -0.00308217 0.00211792 
0.00446305 -0.00314218 0.00266813 -0.0040898 -0.002648 0.002097 -0.00443378 -0.00213351 0.00288206 
-0.00312492 -0.00290702 0.00206865 -0.00253015 -0.00210439 0.00208573 -0.00251398 -0.00275706 0.00284521 
-0.0016046 -0.00247537 0.00202361 -0.00107904 -0.00232937 0.00286135 -0.000556116 -0.00207176 0.00202976 
-0.000224554 -0.00284865 0.00289749 0.00077098 -0.00297471 0.00289507 0.000299492 -0.00258831 0.00208717 
0.00129546 -0.0025264 0.00213948 0.00261793 -0.00262838 0.00280639 0.00300017 -0.00223088 0.00197258 
0.00398028 -0.00213784 0.00214498 0.00493564 -0.00243167 0.0021469 -0.00451652 -0.00160316 0.00203659 
-0.0039247 -0.00127956 0.00277451 -0.00349562 -0.00184458 0.00206988 -0.00278393 -0.00141467 0.00276284 
-0.00164649 -0.0014655 0.00226052 -0.000209156 -0.00113476 0.00200292 -0.000794606 -0.00137494 0.00277653 
6.84625e-05 -0.00189904 0.00279067 0.000740243 -0.0016913 0.00207578 0.000651536 -0.00110433 0.00295708 
0.00189597 -0.00173995 0.00199796 0.00163533 -0.00121154 0.00280514 0.00263517 -0.00159851 0.0026555 
0.00340729 -0.00132275 0.00206428 0.00457473 -0.00136941 0.00238083 -0.00427576 -0.000632654 0.00207131 
-0.00475181 -0.000719926 0.00294638 -0.00330273 -0.000857653 0.00211525 -0.00231611 -0.00072006 0.00219048 
-0.001115 -0.000626351 0.00214955 -0.000264961 -0.000137779 0.00195523 -0.000193646 -0.00057414 0.00285163 
0.000687357 -0.000182889 0.00257138 0.00123365 -0.000782146 0.00198743 0.00168516 -0.000218377 0.00267862 
[...]
POINT_DATA 566
FIELD FieldData 7
id 1 566 int
17 57 74 16 56 69 113 31 48 
91 108 72 7 89 18 133 107 70 
28 51 102 36 80 12 95 19 104 
97 22 14 29 88 60 45 78 15 
148 61 1 26 65 103 68 10 27 
94 110 105 62 96 82 46 43 101 
37 90 59 42 55 4 114 2 77 
93 54 21 40 25 53 23 35 58 
33 92 9 109 8 20 112 13 6 
5 47 52 38 67 32 3 34 39 
44 85 41 79 63 71 24 50 11 
30 81 87 49 144 164 146 176 149 
222 118 162 168 278 125 137 124 99 
194 218 190 116 197 153 155 206 173 
179 73 115 121 157 161 139 195 136 
231 170 64 128 181 76 202 214 86 
123 98 159 156 117 138 236 209 169 
187 75 147 160 171 211 127 165 120 
212 257 225 177 142 129 119 151 126 
175 207 174 145 172 66 140 208 84 
152 134 130 131 141 100 200 158 205 
196 122 277 106 154 143 183 238 166 
83 135 215 221 249 111 150 217 167 
192 216 203 132 220 371 229 331 319 
342 301 260 337 291 293 223 377 285 
334 343 248 242 356 219 188 307 340 
320 289 273 330 292 270 327 224 350 
163 193 276 199 345 254 394 329 275 
245 305 227 267 253 204 299 239 325 
336 233 283 240 258 338 256 310 316 
266 304 281 357 259 314 268 271 308 
288 263 302 210 344 296 243 261 213 
303 272 252 323 235 381 295 191 317 
282 186 361 185 389 393 287 379 230 
198 251 250 234 322 332 244 264 226 
321 324 265 237 246 294 438 279 184 
189 286 201 333 247 255 241 228 313 
383 232 387 280 312 262 311 318 178 
315 269 355 180 349 326 290 182 306 
369 274 328 297 373 352 396 452 423 
408 500 385 431 446 449 418 436 437 
366 384 354 390 450 370 445 397 300 
386 422 347 309 429 443 374 416 413 
419 447 378 417 441 467 380 432 407 
415 364 400 498 298 368 428 391 405 
409 388 398 375 359 284 451 382 339 
425 362 489 341 424 440 509 459 348 
411 353 442 365 367 426 399 392 358 
404 435 410 469 335 414 402 444 420 
372 401 395 448 346 473 430 403 427 
433 363 412 499 360 472 351 376 434 
406 486 466 439 485 488 477 494 503 
457 481 487 475 476 474 504 464 492 
455 502 460 484 478 463 505 454 470 
453 490 506 468 480 421 497 456 501 
507 461 493 479 495 465 491 483 523 
544 510 539 542 482 508 496 462 458 
471 554 565 520 540 528 561 529 524 
558 537 555 518 511 513 526 538 517 
521 527 562 534 515 560 548 541 516 
546 532 563 566 530 553 556 535 552 
522 533 547 551 531 557 536 550 543 
525 564 512 519 549 559 545 514 
type 1 566 int
1 1 1 1 1 1 1 1 1 
1 1 1 1 1 1 1 1 1 
1 1 1 1 1 1 1 1 1 
1 1 1 1 1 1 1 1 1 
1 1 1 1 1 1 1 1 1 
1 1 1 1 1 1 1 1 1 
1 1 1 1 1 1 1 1 1 
1 1 1 1 1 1 1 1 1 
1 1 1 1 1 1 1 1 1 
1 1 1 1 1 1 1 1 1 
1 1 1 1 1 1 1 1 1 
1 1 1 1 1 1 1 1 1 
1 1 1 1 1 1 1 1 1 
1 1 1 1 1 1 1 1 1 
1 1 1 1 1 1 1 1 1 
1 1 1 1 1 1 1 1 1 
1 1 1 1 1 1 1 1 1 
1 1 1 1 1 1 1 1 1 
1 1 1 1 1 1 1 1 1 
1 1 1 1 1 1 1 1 1 
1 1 1 1 1 1 1 1 1 
1 1 1 1 1 1 1 1 1 
1 1 1 1 1 1 1 1 1 
1 1 1 1 1 1 1 1 1 
1 1 1 1 1 1 1 1 1 
1 1 1 1 1 1 1 1 1 
1 1 1 1 1 1 1 1 1 
1 1 1 1 1 1 1 1 1 
1 1 1 1 1 1 1 1 1 
1 1 1 1 1 1 1 1 1 
1 1 1 1 1 1 1 1 1 
1 1 1 1 1 1 1 1 1 
1 1 1 1 1 1 1 1 1 
1 1 1 1 1 1 1 1 1 
1 1 1 1 1 1 1 1 1 
1 1 1 1 1 1 1 1 1 
1 1 1 1 1 1 1 1 1 
1 1 1 1 1 1 1 1 1 
1 1 1 1 1 1 1 1 1 
1 1 1 1 1 1 1 1 1 
1 1 1 1 1 1 1 1 1 
1 1 1 1 1 1 1 1 1 
1 1 1 1 1 1 1 1 1 
1 1 1 1 1 1 1 1 1 
1 1 1 1 1 1 1 1 1 
1 1 1 1 1 1 1 1 1 
1 1 1 1 1 1 1 1 1 
1 1 1 1 1 1 1 1 1 
1 1 1 1 1 1 1 1 1 
1 1 1 1 1 1 1 1 1 
1 1 1 1 1 1 1 1 1 
1 1 1 1 1 1 1 1 1 
1 1 1 1 1 1 1 1 1 
1 1 1 1 1 1 1 1 1 
1 1 1 1 1 1 1 1 1 
1 1 1 1 1 1 1 1 1 
1 1 1 1 1 1 1 1 1 
1 1 1 1 1 1 1 1 1 
1 1 1 1 1 1 1 1 1 
1 1 1 1 1 1 1 1 1 
1 1 1 1 1 1 1 1 1 
1 1 1 1 1 1 1 1 1 
1 1 1 1 1 1 1 1 
i 3 566 int
0 0 0 0 1 0 0 0 0 
0 0 0 0 0 0 0 0 0 
0 0 0 0 0 0 -1 0 0 
0 0 0 1 0 0 0 1 0 
0 0 0 0 0 0 0 0 0 
0 0 0 0 0 0 0 1 0 
0 0 0 0 0 0 -1 0 0 
1 1 0 1 1 0 0 0 0 
0 0 0 0 0 0 0 0 0 
0 0 0 0 0 0 0 0 0 
0 0 0 0 0 0 0 0 0 
0 0 0 0 0 0 0 0 0 
0 0 0 0 0 0 0 0 0 
0 0 0 0 0 0 0 0 0 
0 0 0 0 0 0 0 0 0 
0 0 0 0 0 0 0 0 0 
0 0 0 0 0 0 0 0 0 
0 0 0 1 0 0 0 0 0 
0 0 0 0 0 0 0 0 0 
0 0 0 0 0 0 0 0 0 
0 0 0 0 0 0 0 0 0 
0 0 0 0 0 0 0 0 0 
0 0 0 0 0 0 0 0 0 
0 0 0 0 0 0 0 0 0 
-1 0 0 0 0 0 0 0 0 
1 -1 0 0 0 0 1 -1 0 
0 0 0 0 0 0 0 0 0 
0 0 0 0 0 0 -1 0 0 
1 0 0 1 0 0 0 0 0 
0 -1 0 0 0 0 0 0 0 
0 0 0 0 0 0 0 0 0 
0 0 0 1 -1 0 0 0 0 
0 -1 0 0 -1 0 0 -1 0 
0 0 0 0 0 0 -1 -1 0 
-1 -1 0 0 1 0 1 0 0 
0 0 0 0 0 0 0 0 0 
0 1 0 0 1 0 0 0 0 
-1 0 0 0 0 0 0 0 0 
1 0 0 0 0 0 0 1 0 
0 0 0 0 0 0 0 0 0 
0 1 0 0 0 0 0 0 0 
0 0 0 0 0 0 0 0 0 
1 0 0 0 -1 0 0 0 0 
0 0 0 0 0 0 0 0 0 
0 1 0 0 0 0 0 0 0 
0 0 0 0 0 0 0 0 0 
0 0 0 0 0 0 0 1 0 
0 0 0 0 1 0 0 0 0 
0 0 0 -1 0 0 0 0 0 
0 0 0 0 0 0 0 0 0 
0 0 0 0 0 0 0 0 0 
0 0 0 0 0 0 0 0 0 
0 0 0 0 0 0 1 0 0 
0 0 0 0 0 0 0 0 0 
0 0 0 0 0 0 0 0 0 
0 0 0 0 0 0 0 0 0 
0 0 0 0 0 0 0 0 0 
0 0 0 0 0 0 0 0 0 
0 0 0 0 0 0 0 -1 0 
-1 0 0 -1 0 0 1 -1 0 
0 0 0 0 0 0 0 0 0 
0 0 0 0 0 0 0 -1 0 
0 0 0 0 0 0 0 0 0 
0 0 0 0 0 0 0 0 0 
-1 0 0 0 0 0 0 0 0 
0 0 0 0 0 0 0 0 0 
0 0 0 0 0 0 1 0 0 
0 0 0 0 0 0 0 0 0 
0 0 0 0 0 0 0 0 0 
0 0 0 0 0 0 0 -1 0 
0 0 0 0 0 0 0 0 0 
0 0 0 0 0 0 0 0 0 
0 0 0 0 0 0 0 1 0 
0 0 0 0 1 0 0 0 0 
-1 1 0 0 1 0 -1 0 0 
0 1 0 0 0 0 1 0 0 
0 0 0 1 0 0 0 1 0 
0 1 0 0 0 0 0 0 0 
0 0 0 0 0 0 0 0 0 
0 0 0 0 0 0 0 0 0 
0 0 0 0 0 0 0 0 0 
0 0 0 0 0 0 0 0 0 
0 0 0 0 0 0 0 0 0 
0 0 0 0 0 0 0 0 0 
0 0 0 0 0 0 0 0 0 
0 0 0 -1 0 0 1 0 0 
0 0 0 0 0 0 0 0 0 
0 0 0 0 0 0 0 0 0 
0 0 0 0 0 0 0 0 0 
0 0 0 0 0 0 0 0 0 
0 0 0 -1 0 0 0 0 0 
0 0 0 0 0 0 0 0 0 
0 0 0 0 0 0 0 0 0 
0 0 0 0 0 0 0 0 0 
0 0 0 0 0 0 0 0 0 
0 0 0 0 0 0 0 0 0 
0 0 0 0 0 0 0 0 0 
0 0 0 0 0 0 0 0 0 
0 0 0 0 0 0 0 0 0 
0 0 0 0 0 0 0 0 0 
-1 0 0 -1 0 0 -1 0 0 
0 0 0 0 0 0 0 0 0 
0 0 0 0 0 0 0 0 0 
0 0 0 0 0 0 0 0 0 
0 0 0 0 0 0 0 0 0 
0 0 0 0 0 0 1 0 0 
0 0 0 0 0 0 0 0 0 
0 0 0 0 0 0 0 0 0 
0 0 0 0 0 0 0 0 0 
0 0 0 0 0 0 0 0 0 
0 0 0 1 0 0 0 0 0 
0 0 0 0 0 0 0 0 0 
0 0 0 0 0 0 0 -1 0 
0 0 0 0 0 0 0 0 0 
-1 -1 0 0 0 0 -1 0 0 
1 0 0 0 0 0 0 0 0 
0 0 0 0 0 0 0 0 0 
0 0 0 0 -1 0 0 0 0 
0 0 0 -1 0 0 1 1 0 
0 0 0 1 1 0 0 0 0 
0 1 0 0 0 0 0 0 0 
0 0 0 0 1 0 0 0 0 
0 0 0 1 0 0 0 0 0 
0 0 0 0 0 0 0 0 0 
0 0 0 0 0 0 0 0 0 
-1 0 0 0 0 0 0 1 0 
1 0 0 0 0 0 0 0 0 
0 0 0 0 0 0 0 0 0 
0 0 0 0 0 0 0 0 0 
0 0 0 0 0 0 0 0 0 
0 0 0 0 0 0 0 0 0 
0 0 0 0 0 0 0 0 0 
0 0 0 0 0 0 0 0 0 
0 0 0 0 0 0 0 0 0 
0 0 0 0 0 0 0 0 0 
0 0 0 0 0 0 -1 0 0 
-1 0 0 0 0 0 1 0 0 
0 0 0 0 0 0 0 0 0 
0 0 0 0 0 0 0 0 0 
0 0 0 0 0 0 0 0 0 
0 0 0 0 0 0 0 0 0 
0 0 0 0 0 0 0 0 0 
0 0 0 0 0 0 0 0 0 
0 0 0 1 0 0 0 0 0 
0 0 0 0 0 0 0 0 0 
0 0 0 0 0 0 0 0 0 
0 0 0 0 0 0 0 0 0 
0 0 0 0 0 0 0 0 0 
0 0 0 0 0 0 0 0 0 
0 0 0 0 0 0 0 0 0 
0 0 0 0 0 0 0 -1 0 
0 0 0 0 0 0 0 0 0 
0 0 0 0 -1 0 0 0 0 
0 0 0 0 1 0 0 0 0 
0 0 0 0 0 0 0 0 0 
0 0 0 0 0 0 0 0 0 
0 0 0 0 0 0 0 0 0 
0 0 0 0 0 0 0 0 0 
0 0 0 0 0 0 0 0 0 
0 0 0 1 0 0 0 0 0 
0 0 0 0 0 0 0 0 0 
0 0 0 0 0 0 0 0 0 
0 0 0 0 0 0 1 0 0 
0 0 0 0 0 0 0 0 0 
0 0 0 0 -1 0 0 -1 0 
0 0 0 0 0 0 0 0 0 
0 0 0 0 0 0 0 0 0 
0 0 0 0 0 0 0 0 0 
0 0 0 0 0 0 0 0 0 
0 0 0 0 0 0 0 0 0 
0 0 0 0 0 0 0 0 0 
0 0 0 0 0 0 0 0 0 
0 0 0 0 0 0 0 0 0 
0 0 0 0 0 0 0 0 0 
0 0 0 0 0 0 0 0 0 
0 0 0 0 0 0 0 0 0 
0 0 0 0 0 0 0 0 0 
0 0 0 0 0 0 0 0 0 
0 0 0 0 0 0 0 0 0 
0 0 0 0 0 0 0 0 0 
0 0 0 0 0 0 0 0 0 
0 0 0 0 0 0 0 0 0 
0 0 0 0 0 0 0 0 0 
0 0 0 0 0 0 0 0 0 
0 0 0 0 0 0 0 0 0 
0 0 0 0 0 0 0 0 0 
0 0 0 0 0 0 0 0 0 
0 0 0 0 0 0 0 0 0 
0 0 0 0 0 0 
v 3 566 double
0.000174393 0.000920818 -0.000231378 0.000540524 0.000724935 -0.000375842 -0.000276497 -0.000351783 0.000225866 
0.000184601 -0.000589263 -0.00046002 0.000368271 -0.000737265 -0.000372585 -0.000664453 -0.000147385 -0.00038914 
-0.000232089 0.000178427 -0.000152614 -0.000609212 -4.6919e-05 -3.03603e-05 -0.000314978 0.000118859 -3.7452e-05 
0.000104991 -0.000378957 -0.000200311 -0.000939256 0.00123705 0.000703877 -0.000528017 0.000873714 -0.000617444 
0.00013914 -1.102e-06 -0.000219637 6.881e-05 0.00025404 -0.000285125 0.00032913 0.000163237 -0.000318937 
-0.000140335 -9.75757e-05 -0.000375045 -0.000249229 -0.000161651 0.000125475 0.00011427 -0.000683315 -0.00033206 
-0.000456812 6.31548e-05 -0.000488073 1.93704e-05 0.00054113 -0.000128354 0.000563826 0.000227823 0.0014125 
-0.000293686 0.00111012 0.00110396 -3.13741e-05 0.000423986 9.4378e-05 1.07227e-05 0.000363827 -0.000249012 
-0.000264229 -0.000364252 -0.000597093 -0.000287735 0.000434214 -0.000561259 -0.000700143 -0.00058791 -0.000456969 
-0.000688283 -0.000417878 9.29201e-05 0.000112353 -0.000127691 -0.000197229 -0.000315919 0.000265784 0.000112463 
0.000356737 -0.000525074 0.00164043 0.000154389 0.000544614 0.000204079 0.000119317 0.000721011 6.33797e-05 
-5.90276e-05 0.000197142 -0.000370425 -0.000483025 -7.56716e-05 -0.000236014 0.00152508 -0.000425655 -0.000260033 
-0.000269078 0.000110417 -0.000323122 0.000157641 -0.000947038 -0.000546416 0.000788008 -0.000230743 0.000452615 
0.0008351 -0.000383285 -0.000218207 0.000319497 -0.000355946 -0.000123682 0.000472663 -8.67974e-06 0.000707368 
-0.000436862 -0.000555784 0.00111403 -8.40515e-06 -0.000312246 0.000747489 0.00107607 -0.000309383 0.000248059 
-0.000435197 -0.000279206 -5.82018e-05 -0.000412011 0.000246338 0.000383833 -0.00126895 -0.000119807 -1.05456e-05 
-0.000360519 0.000521762 -0.000339556 0.000449386 -6.68882e-05 0.000141704 0.000279749 -1.34256e-05 0.000430189 
-0.000255893 -0.000122199 0.000503022 0.000668411 -0.000499193 0.00024379 0.000548336 -0.000640694 7.93662e-05 
-0.000678319 0.000160343 0.000322438 0.00178865 -0.00103121 0.000111223 0.000366173 -0.00108437 4.74633e-05 
-0.000295722 -0.000249456 -0.00015853 4.55258e-06 -2.20677e-05 -4.39815e-05 -1.08176e-05 0.000192549 -8.15107e-06 
-0.000622378 -0.000105275 -0.000436684 -0.00035456 0.000828513 -0.000186274 -0.000474341 9.53659e-05 0.000299253 
-7.62912e-05 -0.000710749 0.000563309 0.000834198 -0.00070557 -2.47383e-06 -0.000112796 -0.000773271 0.000405448 
0.00104386 0.000292273 -0.000306457 0.000326371 -0.00030517 -0.000467465 -0.000150122 -0.000155382 -0.000104637 
-0.000567045 -3.85172e-05 -0.000424226 -0.00069863 -3.11974e-05 -1.94248e-05 0.000592819 0.000606758 0.000292337 
4.92154e-05 -9.07487e-05 0.00057643 -0.000128011 -0.000446424 0.000368296 0.00024963 -6.22724e-05 4.68235e-05 
0.000372805 -0.000440142 0.000207148 0.00032219 0.000477434 -0.000795565 0.000522703 -0.000261764 -9.88773e-05 
0.000539616 -0.000496378 0.000309504 -0.000498798 2.48887e-05 0.000321857 -0.000474636 -0.000224672 -0.000296603 
-0.000182022 -1.04057e-05 -0.000354746 -9.3701e-05 -0.000120636 2.43763e-05 0.00046439 0.000290466 0.00016237 
1.09626e-07 -0.000183224 -0.000243048 -4.03776e-05 0.000132381 -0.000321659 0.00026058 0.000200836 0.000129858 
0.000834011 -0.000428972 -0.000411879 0.000647157 -0.00016189 -0.000434576 -0.000379317 0.000270947 0.000104817 
-3.51995e-05 4.54286e-05 0.000104439 -0.000283513 -0.000110236 -1.27666e-05 -8.35692e-05 -0.000124582 -0.000234668 
0.000204181 6.19319e-05 -8.8765e-06 0.000650579 0.00079193 -2.52192e-05 -0.000499704 -0.000282817 -0.000302452 
0.000587865 -0.000803893 -0.000320555 0.00258234 -0.000147435 -0.00323188 0.000810136 -7.38926e-05 -0.00160972 
4.41274e-05 0.000253763 -0.000105759 -0.000562415 -0.000368417 0.000118966 -0.000135514 -0.00024061 7.78495e-05 
0.000233296 -0.000395383 -0.000959457 0.000106728 0.000371834 -0.00166218 -0.000107869 0.00144459 -0.00130954 
-7.49476e-05 -0.000344712 -0.000359428 0.000260314 -0.00101616 -0.00251715 -6.00424e-05 1.37072e-05 -0.00135939 
0.000198161 -0.00083304 -0.000775368 -0.00332912 0.00167565 -5.20304e-05 -0.00142259 0.00203684 -0.00135048 
-0.0015214 -0.000329149 -3.10918e-05 -8.8969e-05 -0.00138273 0.000841244 -0.000162987 -0.000620572 -0.00147874 
-0.000487667 0.000719345 -0.000685869 -0.000207935 8.9616e-05 0.000902513 0.00126486 0.00159361 0.000162522 
-0.00126117 0.00167961 -0.00256639 -0.002319 0.00115028 -0.00255784 -0.000200003 -0.000235867 -0.000202964 
-0.00145187 0.000285668 -0.00102414 -0.000716168 -0.000243132 0.0006621 -0.000979491 -0.000215755 0.000150548 
2.6139e-05 -0.000395599 -4.46065e-05 -0.000231362 -0.00110344 0.000600815 -0.000768418 -0.000713125 0.000827751 
-0.000149127 0.00116361 0.00257656 0.00149949 -0.000199617 0.00131555 0.000501966 -0.00023648 -0.000670889 
8.80858e-05 0.000816338 -0.0013156 -0.000236309 -0.000184025 -0.00111163 9.89542e-05 0.000820914 -0.000112314 
-0.00298465 -0.000229691 -0.00164261 -0.000979961 -0.000159779 -0.00075499 -0.00016806 -0.00126467 -0.000422591 
-0.000123733 0.00087262 0.0017811 0.00121905 0.000159774 0.00133318 0.00230764 -0.000906664 -0.00131861 
0.000214781 0.000612028 -0.00146634 -0.000140121 -0.000118264 -0.00117354 -0.000172583 -0.000340251 -0.000457556 
0.000554583 -0.000882222 -7.18295e-06 0.000624453 -0.00109322 -0.000492644 -0.000108334 -0.00104959 0.00207802 
-0.000137396 -0.000382294 0.00190108 0.00149051 0.000911479 0.00297845 2.67789e-05 0.00149476 0.00206305 
-0.0020105 -0.00102526 0.000871263 0.00205586 -0.00363931 -0.00199794 -0.000972014 -0.000499713 -0.000117604 
0.000401518 0.000528371 0.000908936 0.00242649 -8.15759e-05 0.000320186 0.000783459 -0.00175322 -3.30452e-05 
-0.000377923 -0.000267169 -0.000499412 0.000278286 -1.4735e-05 0.000137626 -0.00104388 0.000778314 0.00189873 
-0.000557636 0.00214998 -0.000277537 0.000619538 0.000339089 0.000189571 0.00187493 0.00192775 0.000727928 
5.32767e-05 6.03592e-05 0.000304962 0.00010408 -0.00529913 -0.00207179 0.00188826 -0.000475983 -0.000142562 
0.000118096 -0.00134592 -0.000258779 0.000433746 -0.00020618 2.41262e-05 -4.52819e-05 -0.000367879 -0.00078584 
-0.000856702 0.000253192 -0.000796724 -0.000752497 0.00101896 -0.000412134 0.000402092 8.45469e-05 6.08971e-05 
0.00118564 0.000492447 -0.000103021 -9.27542e-05 0.000225815 -0.000139692 -0.000739824 -8.06162e-05 0.000423802 
0.000758768 -0.00150422 -0.00107829 0.00102683 -0.00227984 -0.000432034 -0.000159427 0.000553081 -7.6322e-05 
-0.000578777 -5.32853e-05 5.07248e-05 -0.00102174 0.00175533 0.000134109 -0.00203435 0.000552864 -0.000821843 
-0.000647091 0.000910864 -0.000700227 0.00214513 -0.00227641 5.28578e-05 0.000926064 -1.19603e-05 0.00109371 
0.00232553 4.99751e-05 0.000677523 0.00182731 -0.000995992 -0.000366383 0.00155072 -0.000354272 0.000561448 
0.00176356 -0.00029636 -0.00127171 0.00164387 0.000697554 -0.000232091 -0.00128352 0.000857305 -0.00108069 
-0.000546003 0.000206319 -0.000269338 -0.00466934 0.00357343 -0.000659841 0.0012661 0.0017196 -0.000396668 
0.000500287 0.00123855 -0.000639848 0.000527827 -0.000129559 -0.000282068 0.000436615 -0.00106329 -0.00204697 
5.08576e-06 -0.002158 -0.00110395 -0.000180542 -0.000284138 0.000176439 0.000238958 0.000124521 0.000422798 
-0.00133474 0.00123592 -0.000173481 -0.000691843 -0.000269002 0.000321043 0.000360021 -0.000566368 -0.000551474 
0.000464587 -0.000218324 -0.000307439 0.00058337 -0.00102752 1.7164e-05 -0.00127326 -0.000737942 0.000345301 
-0.000478779 0.000146871 -0.00124783 0.000340749 0.000452613 -3.24902e-05 0.00168869 -0.00180561 0.000865099 
0.00321105 -0.00667159 -0.00552416 0.000451987 -8.47394e-05 0.000489026 -5.80161e-05 0.000851449 -0.000692213 
-0.000926127 -0.000380726 -0.000260035 -0.000438206 -0.000801082 -0.000503823 -0.000273123 -0.000286954 0.000267031 
-0.000165884 0.000357086 -0.000775811 0.000979886 -0.000521347 -0.00202754 -0.00403727 -0.00269681 0.000800344 
-0.00167604 0.000970869 -0.00114886 -0.00880539 0.00214603 -0.00763132 -0.000831368 0.0011018 0.000117839 
0.000978615 0.000291146 0.00113207 -0.00104983 0.00118763 -7.95868e-05 -0.0036927 0.00257588 -0.00195113 
-0.00269854 0.000280105 -0.00138708 -0.00287034 -0.00138278 -0.000475541 -0.000793825 -0.00361775 -0.0013571 
4.19936e-05 -0.00183253 -0.00228758 -0.000563325 -0.000220173 0.00058396 -0.000452105 -0.000152033 0.000920254 
0.000336852 -0.0019547 -0.00235431 0.000675518 0.00155678 -0.00248412 -0.000353123 0.002592 -0.00188971 
-0.00058121 0.00162958 -0.00323484 -0.00395272 -0.00228729 -0.00689281 -0.00110188 0.00108396 -0.00245067 
-0.000333974 0.00348013 -0.00565424 0.000227015 0.00248243 -0.00158865 -0.0022186 0.0018759 -0.00129034 
7.88842e-05 -0.000110456 -0.000327618 0.00102616 0.000289722 0.000437909 -0.000377837 0.00107228 -0.00237829 
-0.000902558 -0.00109716 -0.000709494 0.000154841 -0.000604494 -0.00157869 -0.000103764 -0.00131937 0.000378893 
0.000101761 0.00427583 -0.00234138 0.000728563 0.00219455 -0.000320852 -0.00276224 0.00356633 -0.00118131 
0.000785417 0.00109876 0.000457361 0.000875076 0.00140186 1.46834e-05 -0.00388717 0.00195743 0.00452872 
0.000411493 0.000368329 -0.00122661 0.00368169 -0.00539641 -0.00254056 0.00025853 -0.000405317 -0.00211494 
-0.00444946 0.00147307 -0.000489143 -0.00251459 -0.00115641 -0.00329977 -0.000887617 0.000889509 0.000353126 
-0.000733054 0.000849854 0.000543909 0.000447139 -0.000410956 -0.00189322 0.000826919 2.72972e-05 0.000241893 
0.000859101 0.000106138 -7.83426e-05 0.00112093 0.000913901 0.00439569 0.000163366 0.00119957 0.00110741 
-0.000447667 0.00203121 -0.00101382 0.00141388 0.000410985 -0.00288492 0.00290176 0.0036284 -0.00132603 
0.00133386 -0.00221047 -0.00227229 0.0002853 -0.00117389 0.000387353 0.000574389 -0.00230322 0.00125466 
-0.00068467 -0.000409492 -0.00110558 0.00193076 0.000165188 0.00109194 -0.00083883 0.000309353 -0.0008915 
-0.000335084 -0.000285721 -0.00139064 -0.00075426 0.00366104 -0.00219369 0.000218775 0.00343374 -0.00164326 
-0.00012909 -0.00015524 0.00236629 5.71493e-05 0.000405877 -0.0012139 -0.000923033 9.05346e-05 0.000370935 
0.00344606 -0.0122581 0.00137134 0.000136261 0.00316437 0.00170347 0.00103083 -0.000703921 0.00264158 
0.0024098 -0.00208472 0.00132954 0.000836438 -0.000653799 -0.000307796 0.00556884 -7.20868e-05 -0.000108751 
-0.00126745 -0.000622379 -0.00160658 0.000482123 -0.000335997 -0.00053553 0.00134951 -0.00020652 -0.000960515 
0.00115115 -0.000754115 0.00207009 -0.000900504 0.00299751 -0.00351351 0.00291382 0.00288569 -0.00402162 
-0.000818996 0.000763322 -0.00105343 0.00336554 0.0016861 -0.00186409 0.00247326 0.00309609 0.0018962 
-0.000349544 -0.000254105 0.00362584 0.00251004 0.000824755 -0.00121533 -0.000776879 -0.00417681 -0.00109848 
0.0025586 -0.00647359 -0.00434992 0.00126363 -0.00270175 0.000485386 -9.85342e-05 0.000293557 -0.00105263 
0.00163671 0.000513051 -0.00203189 0.000241276 0.000362069 -0.000178018 0.00205646 0.0015182 -0.00271999 
-0.000768685 0.00151514 -0.000723161 -0.00222267 0.00109174 -7.88118e-05 0.00267272 0.000975622 -0.00133475 
0.0020482 -0.000215179 -0.000978033 0.00110778 0.00176425 -0.00358698 0.00026886 0.00215079 0.00115568 
-0.00129109 0.00250214 0.000491065 0.00534864 0.00304653 0.00498247 0.00115811 0.00147129 0.00218778 
-0.000756753 2.01104e-05 -0.00110064 -0.00178068 -0.00252575 -0.00398868 0.001206 -0.000109571 -0.000192617 
0.000795969 -0.000901376 -0.00176922 0.00218057 -0.00267093 0.00207998 -0.000736635 0.0134549 -0.00368241 
-2.3735e-05 0.00116549 -0.000342761 -0.000500861 0.00165509 -0.00116986 -0.00291954 0.0019087 -0.00196408 
-0.00120761 -0.00185731 -0.0009517 0.0016557 -0.00454062 -0.00151739 0.00125904 -0.000463592 0.00294149 
0.000941038 0.00121474 -0.000136734 -6.87128e-05 -0.00239714 -0.00133272 0.000676045 5.34924e-05 0.000900926 
-0.00171339 -0.0055326 -0.00581285 -2.42097e-05 -0.00302134 -0.00179937 -0.0002815 -0.00108596 -0.00164214 
0.00145025 0.0013229 -0.00110742 -0.00343133 -0.00128579 0.00085413 0.00092685 0.00154415 -0.000817635 
0.00133701 0.00428083 -0.00174337 -0.000261638 0.00136485 -0.00111296 0.00119895 0.000830381 -0.000521072 
-0.000546408 0.00481252 -0.00210151 -0.00179704 -0.000371568 0.00161187 -0.00570393 0.00149326 -0.00498686 
0.00240488 -0.000736932 -0.00400598 -0.000512327 -0.00232476 -0.00322849 0.00434463 0.00324503 -0.00430212 
-0.000149421 -0.00549467 -0.00252765 -0.00148851 0.00153729 -0.00125569 -0.000420656 -0.00140756 0.000376745 
0.000259931 0.00111535 -0.0013037 -0.000958562 -0.000394609 -0.000958208 0.00101986 -0.000888403 -0.00149652 
0.000739686 0.00110214 -0.000268585 0.000571107 0.000632794 -0.000648608 0.000354357 0.0038772 -0.00181947 
0.00200753 0.00115732 -0.00181479 0.00299024 -0.000509226 -0.00258539 -0.00201345 0.00128499 -0.00176986 
-0.000294099 -0.0015196 -0.0021874 -0.00351971 -0.00681453 -0.00778213 0.00104177 -0.00135922 -0.000954949 