/*--------------------------------*- C++ -*----------------------------------*\
| =========                 |                                                 |
| \\      /  F ield         | OpenFOAM: The Open Source CFD Toolbox           |
|  \\    /   O peration     | Version:  5.x                                   |
|   \\  /    A nd           | Web:      www.OpenFOAM.org                      |
|    \\/     M anipulation  |                                                 |
\*---------------------------------------------------------------------------*/
FoamFile
{
    version     2.0;
    format      ascii;
    class       surfaceScalarField;
    location    "1000";
    object      phi;
}
// * * * * * * * * * * * * * * * * * * * * * * * * * * * * * * * * * * * * * //

dimensions      [0 3 -1 0 0 0 0];

internalField   nonuniform List<scalar> 
179
(
-249.982
-249.982
-249.982
-249.981
-249.98
-249.979
-249.978
-249.977
-249.975
-249.973
-249.971
-249.969
-249.966
-249.964
-249.961
-249.958
-249.956
-249.953
-249.95
-249.947
-249.944
-249.94
-249.937
-249.933
-249.93
-249.926
-249.921
-249.916
-249.91
-249.904
-249.897
-249.888
-249.879
-249.868
-249.855
-249.841
-249.825
-249.806
-249.786
-249.763
-249.737
-249.708
-249.675
-249.639
-249.599
-249.555
-249.506
-249.452
-249.393
-249.327
-249.254
-249.173
-249.084
-248.986
-248.877
-248.756
-248.623
-248.475
-248.31
-248.128
-247.924
-247.697
-247.445
-247.164
-246.851
-246.503
-246.114
-245.681
-245.198
-244.659
-244.055
-243.382
-242.63
-241.791
-240.855
-239.809
-238.645
-237.335
-235.885
-234.926
-235.925
-233.981
-234.531
-235.187
-235.405
-234.529
-232.521
-228.9
-227.218
-225.516
-225.505
-225.746
-227.844
-231.779
-234.562
-237.28
-239.595
-240.496
-240.106
-238.292
-234.825
-233.252
-239.388
-244.303
-248.885
-249.416
-249.636
-249.843
-250.054
-250.255
-250.43
-250.579
-250.702
-250.799
-250.873
-250.925
-250.958
-250.973
-250.974
-250.963
-250.943
-250.915
-250.882
-250.844
-250.804
-250.762
-250.719
-250.676
-250.632
-250.589
-250.547
-250.505
-250.464
-250.425
-250.387
-250.351
-250.317
-250.285
-250.255
-250.228
-250.203
-250.181
-250.161
-250.143
-250.128
-250.115
-250.103
-250.094
-250.086
-250.079
-250.073
-250.067
-250.062
-250.058
-250.054
-250.049
-250.045
-250.04
-250.035
-250.03
-250.025
-250.02
-250.015
-250.01
-250.005
-250.001
-249.997
-249.993
-249.99
-249.988
-249.986
-249.986
-249.986
-249.986
-249.987
-249.989
-249.991
-249.994
-249.997
)
;

boundaryField
{
    inlet
    {
        type            calculated;
        value           uniform -250;
    }
    outlet
    {
        type            calculated;
        value           uniform 249.981;
    }
    repeat_boundary
    {
        type            calculated;
        value           uniform 0;
    }
    procBoundary0to1
    {
        type            processor;
        value           nonuniform List<scalar> 
180
(
3.00324e-05
0.000103134
0.00017695
0.00024683
0.000306185
0.000353461
0.000385404
0.000399097
0.000391861
0.000361283
0.000305222
0.000221991
0.000120313
-2.55284e-05
-0.000209403
-0.000426829
-0.000677368
-0.000961912
-0.00128089
-0.00163444
-0.00202255
-0.00244516
-0.00290217
-0.00339365
-0.00391995
-0.00448184
-0.00508066
-0.0057185
-0.00639828
-0.0071239
-0.00790037
-0.00873389
-0.00963184
-0.0106027
-0.0116552
-0.0127996
-0.014049
-0.015418
-0.0169226
-0.0185804
-0.0204104
-0.0224329
-0.0246694
-0.0271422
-0.0298748
-0.032891
-0.036215
-0.0398711
-0.0438832
-0.0482745
-0.0530673
-0.058282
-0.0639368
-0.070047
-0.076624
-0.0836739
-0.0911966
-0.0991839
-0.107617
-0.116464
-0.125677
-0.135189
-0.144906
-0.154703
-0.164422
-0.173868
-0.182783
-0.190869
-0.197871
-0.203464
-0.207385
-0.209737
-0.209253
-0.202488
-0.189609
-0.168941
-0.138235
-0.0921595
0.00984329
0.519862
0.551744
0.591034
0.956451
0.90306
0.509526
0.553681
0.759609
-0.0642268
0.796002
-0.314398
-0.0134353
0.135674
1.74497
3.23798
2.21253
1.44182
0.308732
-0.633266
-1.72278
-1.95634
-2.76595
-2.97143
-2.4362
0.0391634
-0.718884
-0.854998
-0.624199
-0.443246
-0.311844
-0.21281
-0.144032
-0.0895283
-0.0475232
-0.0159486
0.00721317
0.0237264
0.0349047
0.0419634
0.0460007
0.0477295
0.0478954
0.0469937
0.0453454
0.0432006
0.0407511
0.038142
0.03548
0.0328423
0.030282
0.0278341
0.0255199
0.0233503
0.0213296
0.0194566
0.0177264
0.0161314
0.0146626
0.0133109
0.0120675
0.0109233
0.00987012
0.00890046
0.00800746
0.00718474
0.00642788
0.00573321
0.00509764
0.00451852
0.00399342
0.00352009
0.00309626
0.00271956
0.00238746
0.00209722
0.00184585
0.00163017
0.00144681
0.00129224
0.0011629
0.00105521
0.000965712
0.000891124
0.000828418
0.000774871
0.000728098
0.000686026
0.000646869
0.000609071
0.000571306
0.000532495
0.000491789
0.00044845
0.000401542
0.000354541
0.000320516
0.000310586
0.000313586
0.000297127
0.000280365
0.000273806
)
;
    }
    procBoundary0to2
    {
        type            processor;
        value           nonuniform List<scalar> 
180
(
6.17237e-05
0.000175299
0.000296266
0.000415449
0.000525767
0.000626352
0.000714447
0.000787659
0.000843849
0.000881158
0.000898031
0.000893234
0.000865888
0.000815532
0.000742119
0.000645694
0.000526928
0.000386805
0.000226676
4.82423e-05
-0.00014416
-0.000345178
-0.000556873
-0.000776781
-0.00100251
-0.00123186
-0.00146297
-0.00169448
-0.00192568
-0.0021567
-0.00238872
-0.00262413
-0.0028668
-0.00309855
-0.0033217
-0.00355467
-0.0038041
-0.00407812
-0.00438649
-0.00474066
-0.00515386
-0.00564122
-0.0062199
-0.00690928
-0.00773119
-0.0087102
-0.00987402
-0.011254
-0.0128857
-0.0148097
-0.0170724
-0.0197271
-0.022835
-0.0264667
-0.0307072
-0.0356772
-0.0415164
-0.0484014
-0.0565701
-0.0663737
-0.0783852
-0.0924145
-0.108452
-0.127348
-0.149621
-0.175882
-0.206854
-0.243387
-0.286483
-0.33732
-0.397188
-0.4644
-0.54372
-0.637198
-0.747238
-0.87625
-1.02873
-1.21401
-1.46114
-1.48073
0.447478
-2.53361
-0.40542
-0.247698
-0.29127
-1.42915
-2.7683
-3.55654
-2.47756
-1.38774
0.00218844
0.105328
0.353235
0.696126
0.570237
1.27661
2.0059
1.53351
1.33298
0.142162
-0.700311
1.39587
8.57497
4.87709
5.30155
1.39493
0.840743
0.652838
0.521708
0.411324
0.316777
0.236433
0.168838
0.11256
0.0662241
0.028539
-0.00168469
-0.0255265
-0.0439547
-0.0578297
-0.0679066
-0.0748397
-0.0791954
-0.0814601
-0.0820487
-0.0813136
-0.0795521
-0.077013
-0.073904
-0.0703969
-0.0666324
-0.0627254
-0.0587682
-0.0548333
-0.0509735
-0.0472307
-0.0435995
-0.0399819
-0.036642
-0.03356
-0.0307183
-0.0281006
-0.0256921
-0.0234788
-0.0214471
-0.019584
-0.0178766
-0.0163125
-0.0148797
-0.0135669
-0.0123633
-0.0112589
-0.0102444
-0.0093104
-0.00845002
-0.00765736
-0.00692727
-0.00625525
-0.00563747
-0.00507065
-0.00455199
-0.00407901
-0.00364955
-0.00326159
-0.00291319
-0.00260243
-0.00232734
-0.00208586
-0.00187581
-0.00169491
-0.00154079
-0.00141104
-0.00130329
-0.00121528
-0.00114473
-0.00108958
-0.00104795
-0.00101637
-0.000998575
-0.00100281
)
;
    }
}


// ************************************************************************* //
