/*--------------------------------*- C++ -*----------------------------------*\
| =========                 |                                                 |
| \\      /  F ield         | OpenFOAM: The Open Source CFD Toolbox           |
|  \\    /   O peration     | Version:  5.x                                   |
|   \\  /    A nd           | Web:      www.OpenFOAM.org                      |
|    \\/     M anipulation  |                                                 |
\*---------------------------------------------------------------------------*/
FoamFile
{
    version     2.0;
    format      ascii;
    class       volVectorField;
    location    "1000";
    object      U;
}
// * * * * * * * * * * * * * * * * * * * * * * * * * * * * * * * * * * * * * //

dimensions      [0 1 -1 0 0 0 0];

internalField   nonuniform List<vector> 
180
(
(3.55804e-10 1.30204e-09 -0.000999926)
(1.53545e-09 3.6508e-09 -0.000999927)
(2.67747e-09 6.1756e-09 -0.000999927)
(3.71112e-09 8.66512e-09 -0.000999925)
(4.49164e-09 1.09722e-08 -0.000999923)
(4.97711e-09 1.30729e-08 -0.000999919)
(5.08844e-09 1.49094e-08 -0.000999915)
(4.75228e-09 1.64312e-08 -0.000999909)
(3.89955e-09 1.75935e-08 -0.000999903)
(2.46575e-09 1.8358e-08 -0.000999896)
(3.91093e-10 1.86931e-08 -0.000999888)
(-2.37951e-09 1.85745e-08 -0.000999879)
(-5.89542e-09 1.79856e-08 -0.00099987)
(-1.01978e-08 1.69196e-08 -0.00099986)
(-1.53279e-08 1.53749e-08 -0.00099985)
(-2.13256e-08 1.33572e-08 -0.000999839)
(-2.82276e-08 1.08801e-08 -0.000999828)
(-3.60675e-08 7.9654e-09 -0.000999817)
(-4.48775e-08 4.64198e-09 -0.000999805)
(-5.46892e-08 9.45709e-10 -0.000999793)
(-6.55362e-08 -3.08193e-09 -0.000999781)
(-7.7455e-08 -7.39387e-09 -0.000999768)
(-9.04871e-08 -1.19375e-08 -0.000999755)
(-1.04683e-07 -1.66583e-08 -0.000999741)
(-1.20103e-07 -2.15012e-08 -0.000999726)
(-1.36826e-07 -2.64131e-08 -0.00099971)
(-1.54946e-07 -3.13449e-08 -0.000999693)
(-1.74582e-07 -3.62535e-08 -0.000999674)
(-1.95878e-07 -4.11047e-08 -0.000999653)
(-2.19008e-07 -4.58757e-08 -0.000999629)
(-2.44176e-07 -5.05573e-08 -0.000999601)
(-2.71625e-07 -5.51569e-08 -0.00099957)
(-3.0163e-07 -5.9701e-08 -0.000999534)
(-3.34505e-07 -6.42372e-08 -0.000999493)
(-3.70583e-07 -6.88273e-08 -0.000999446)
(-4.10243e-07 -7.35467e-08 -0.000999393)
(-4.53939e-07 -7.84894e-08 -0.000999332)
(-5.02175e-07 -8.37683e-08 -0.000999263)
(-5.5551e-07 -8.95147e-08 -0.000999185)
(-6.14551e-07 -9.58772e-08 -0.000999098)
(-6.79965e-07 -1.03021e-07 -0.000998999)
(-7.52469e-07 -1.11128e-07 -0.000998889)
(-8.32835e-07 -1.20392e-07 -0.000998767)
(-9.21888e-07 -1.31021e-07 -0.00099863)
(-1.0205e-06 -1.43234e-07 -0.000998479)
(-1.12961e-06 -1.57261e-07 -0.000998311)
(-1.25017e-06 -1.73342e-07 -0.000998125)
(-1.38321e-06 -1.91731e-07 -0.000997919)
(-1.52978e-06 -2.1269e-07 -0.000997692)
(-1.69096e-06 -2.36499e-07 -0.000997441)
(-1.86787e-06 -2.63459e-07 -0.000997164)
(-2.06163e-06 -2.93891e-07 -0.000996857)
(-2.27339e-06 -3.28153e-07 -0.000996518)
(-2.50427e-06 -3.66643e-07 -0.000996144)
(-2.75537e-06 -4.09811e-07 -0.000995729)
(-3.02773e-06 -4.58177e-07 -0.00099527)
(-3.32231e-06 -5.12352e-07 -0.000994762)
(-3.63998e-06 -5.73073e-07 -0.000994199)
(-3.98143e-06 -6.41239e-07 -0.000993574)
(-4.34716e-06 -7.17968e-07 -0.000992881)
(-4.73742e-06 -8.04717e-07 -0.000992108)
(-5.15219e-06 -9.03427e-07 -0.000991247)
(-5.59098e-06 -1.0164e-06 -0.000990288)
(-6.05258e-06 -1.14623e-06 -0.000989222)
(-6.53526e-06 -1.29601e-06 -0.000988034)
(-7.03654e-06 -1.46948e-06 -0.000986711)
(-7.55282e-06 -1.67112e-06 -0.000985237)
(-8.07913e-06 -1.90631e-06 -0.000983594)
(-8.60885e-06 -2.18151e-06 -0.000981761)
(-9.13334e-06 -2.50448e-06 -0.000979715)
(-9.64156e-06 -2.88455e-06 -0.000977427)
(-1.01197e-05 -3.33292e-06 -0.000974871)
(-1.05502e-05 -3.86194e-06 -0.000972003)
(-1.09115e-05 -4.48635e-06 -0.000968784)
(-1.11757e-05 -5.2228e-06 -0.000965541)
(-1.13072e-05 -6.08967e-06 -0.00096363)
(-1.12634e-05 -7.12088e-06 -0.000958993)
(-1.09313e-05 -8.44353e-06 -0.000912439)
(-9.10955e-06 -1.03268e-05 -0.000645396)
(5.64863e-06 -4.87803e-06 -0.0019249)
(0.000125217 0.000133117 -0.000819622)
(3.6943e-05 -7.28146e-05 -0.00244134)
(0.000100948 3.8275e-05 -0.00188139)
(0.000127502 6.91347e-05 -0.00210266)
(5.56186e-05 0.000172359 -0.00284593)
(6.55294e-05 8.45831e-05 -0.00194468)
(9.81261e-05 4.61909e-05 -0.00311146)
(0.000123242 -0.000158956 -0.00124526)
(0.000179792 -8.01444e-05 -0.00307629)
(-1.73231e-05 -1.82808e-05 -0.00190167)
(-0.000159606 4.25421e-05 -0.00244154)
(-0.00015397 -1.63318e-06 -0.00269671)
(5.5245e-05 -4.05621e-05 -0.000836234)
(0.000268069 -5.75585e-05 -0.00316666)
(0.000300951 8.268e-05 -0.00269416)
(0.000212008 0.00013002 -0.00217021)
(0.000128623 0.00016311 -0.00214724)
(0.000116847 6.7314e-05 -0.0035067)
(0.000298912 -0.000108327 -0.00310371)
(0.000184449 -9.94832e-05 -0.0013836)
(-2.83556e-06 -2.93512e-05 -0.00317101)
(-0.000323217 0.000189269 -0.00172767)
(-4.29196e-06 0.000674949 -0.0017121)
(0.000282561 0.000442845 -0.000300148)
(0.000151084 0.000175806 -0.0024323)
(3.24602e-05 1.45111e-06 -0.0010311)
(1.33789e-05 -8.03073e-06 -0.000972473)
(1.17032e-05 -9.4098e-06 -0.000992025)
(1.12123e-05 -9.89251e-06 -0.00099958)
(1.06495e-05 -1.01261e-05 -0.00100082)
(1.00014e-05 -1.02018e-05 -0.00100141)
(9.30251e-06 -1.01461e-05 -0.00100202)
(8.58433e-06 -9.98156e-06 -0.00100256)
(7.87061e-06 -9.72875e-06 -0.001003)
(7.17807e-06 -9.40615e-06 -0.00100334)
(6.51789e-06 -9.03032e-06 -0.00100359)
(5.89714e-06 -8.61578e-06 -0.00100376)
(5.31974e-06 -8.17514e-06 -0.00100386)
(4.78722e-06 -7.71913e-06 -0.00100389)
(4.29938e-06 -7.25682e-06 -0.00100387)
(3.85486e-06 -6.79568e-06 -0.00100381)
(3.45162e-06 -6.34141e-06 -0.00100371)
(3.08716e-06 -5.89849e-06 -0.00100359)
(2.7588e-06 -5.4704e-06 -0.00100345)
(2.46376e-06 -5.05971e-06 -0.00100329)
(2.19924e-06 -4.66827e-06 -0.00100313)
(1.96254e-06 -4.29727e-06 -0.00100296)
(1.75106e-06 -3.94742e-06 -0.00100279)
(1.56236e-06 -3.61897e-06 -0.00100261)
(1.39415e-06 -3.31186e-06 -0.00100244)
(1.24433e-06 -3.02575e-06 -0.00100227)
(1.11094e-06 -2.7601e-06 -0.0010021)
(9.92198e-07 -2.51423e-06 -0.00100194)
(8.86488e-07 -2.28731e-06 -0.00100178)
(7.92338e-07 -2.07832e-06 -0.00100162)
(7.08425e-07 -1.88628e-06 -0.00100147)
(6.33565e-07 -1.71022e-06 -0.00100133)
(5.66718e-07 -1.54917e-06 -0.0010012)
(5.0698e-07 -1.4021e-06 -0.00100108)
(4.53519e-07 -1.26802e-06 -0.00100097)
(4.056e-07 -1.14598e-06 -0.00100086)
(3.62592e-07 -1.03508e-06 -0.00100077)
(3.23948e-07 -9.34447e-07 -0.00100068)
(2.89199e-07 -8.43254e-07 -0.00100061)
(2.57939e-07 -7.60708e-07 -0.00100054)
(2.29821e-07 -6.86058e-07 -0.00100048)
(2.04543e-07 -6.18597e-07 -0.00100044)
(1.81844e-07 -5.5766e-07 -0.00100039)
(1.61497e-07 -5.0263e-07 -0.00100036)
(1.43298e-07 -4.52935e-07 -0.00100033)
(1.27067e-07 -4.08051e-07 -0.0010003)
(1.12638e-07 -3.67497e-07 -0.00100028)
(9.98565e-08 -3.30841e-07 -0.00100026)
(8.85797e-08 -2.97692e-07 -0.00100024)
(7.86704e-08 -2.67702e-07 -0.00100022)
(6.99972e-08 -2.40561e-07 -0.00100021)
(6.2434e-08 -2.15995e-07 -0.00100019)
(5.5859e-08 -1.93762e-07 -0.00100017)
(5.01552e-08 -1.73653e-07 -0.00100015)
(4.52111e-08 -1.55481e-07 -0.00100013)
(4.09213e-08 -1.39084e-07 -0.00100011)
(3.71875e-08 -1.24321e-07 -0.00100009)
(3.39198e-08 -1.11065e-07 -0.00100007)
(3.10371e-08 -9.92019e-08 -0.00100005)
(2.84684e-08 -8.86279e-08 -0.00100003)
(2.61532e-08 -7.92475e-08 -0.00100001)
(2.40416e-08 -7.09709e-08 -0.000999994)
(2.20945e-08 -6.37133e-08 -0.000999979)
(2.02831e-08 -5.73931e-08 -0.000999966)
(1.85881e-08 -5.19318e-08 -0.000999956)
(1.69983e-08 -4.72541e-08 -0.000999949)
(1.55098e-08 -4.32872e-08 -0.000999944)
(1.41237e-08 -3.99622e-08 -0.000999943)
(1.28441e-08 -3.72147e-08 -0.000999944)
(1.16787e-08 -3.49846e-08 -0.000999947)
(1.06412e-08 -3.3216e-08 -0.000999953)
(9.74759e-09 -3.18631e-08 -0.000999961)
(9.08622e-09 -3.08134e-08 -0.000999971)
(8.47673e-09 -3.02199e-08 -0.000999982)
(8.18994e-09 -2.97839e-08 -0.000999994)
)
;

boundaryField
{
    inlet
    {
        type            zeroGradient;
    }
    outlet
    {
        type            zeroGradient;
    }
    repeat_boundary
    {
        type            slip;
    }
    procBoundary0to1
    {
        type            processor;
        value           nonuniform List<vector> 
180
(
(3.55701e-10 -1.84728e-09 -0.000999905)
(1.53553e-09 -4.9805e-09 -0.000999905)
(2.67747e-09 -8.39894e-09 -0.000999905)
(3.71112e-09 -1.18096e-08 -0.000999907)
(4.49164e-09 -1.50712e-08 -0.00099991)
(4.9771e-09 -1.81709e-08 -0.000999914)
(5.08844e-09 -2.10625e-08 -0.000999917)
(4.75228e-09 -2.37078e-08 -0.000999921)
(3.89955e-09 -2.60756e-08 -0.000999926)
(2.46575e-09 -2.8142e-08 -0.000999931)
(3.91092e-10 -2.98914e-08 -0.000999936)
(-2.37951e-09 -3.13172e-08 -0.000999942)
(-5.89543e-09 -3.24224e-08 -0.000999948)
(-1.01978e-08 -3.32218e-08 -0.000999955)
(-1.53279e-08 -3.37378e-08 -0.000999961)
(-2.13256e-08 -3.40027e-08 -0.000999968)
(-2.82276e-08 -3.40595e-08 -0.000999976)
(-3.60675e-08 -3.3963e-08 -0.000999983)
(-4.48775e-08 -3.37791e-08 -0.000999991)
(-5.46893e-08 -3.35847e-08 -0.001)
(-6.55362e-08 -3.34669e-08 -0.00100001)
(-7.7455e-08 -3.35233e-08 -0.00100002)
(-9.04871e-08 -3.38603e-08 -0.00100003)
(-1.04683e-07 -3.45922e-08 -0.00100004)
(-1.20103e-07 -3.58405e-08 -0.00100005)
(-1.36826e-07 -3.77319e-08 -0.00100006)
(-1.54946e-07 -4.03969e-08 -0.00100007)
(-1.74582e-07 -4.39692e-08 -0.00100008)
(-1.95878e-07 -4.85867e-08 -0.0010001)
(-2.19008e-07 -5.4392e-08 -0.00100011)
(-2.44176e-07 -6.15342e-08 -0.00100013)
(-2.71625e-07 -7.01725e-08 -0.00100015)
(-3.01631e-07 -8.04838e-08 -0.00100016)
(-3.34505e-07 -9.26764e-08 -0.00100018)
(-3.70583e-07 -1.07014e-07 -0.00100021)
(-4.10243e-07 -1.23783e-07 -0.00100023)
(-4.53939e-07 -1.43246e-07 -0.00100025)
(-5.02176e-07 -1.65701e-07 -0.00100028)
(-5.5551e-07 -1.91493e-07 -0.00100031)
(-6.14552e-07 -2.21023e-07 -0.00100035)
(-6.79966e-07 -2.54761e-07 -0.00100038)
(-7.5247e-07 -2.93266e-07 -0.00100042)
(-8.32836e-07 -3.37196e-07 -0.00100047)
(-9.2189e-07 -3.87337e-07 -0.00100051)
(-1.02051e-06 -4.44624e-07 -0.00100056)
(-1.12961e-06 -5.10167e-07 -0.00100061)
(-1.25017e-06 -5.85288e-07 -0.00100067)
(-1.38321e-06 -6.71552e-07 -0.00100072)
(-1.52978e-06 -7.70815e-07 -0.00100078)
(-1.69096e-06 -8.8527e-07 -0.00100083)
(-1.86787e-06 -1.0175e-06 -0.00100088)
(-2.06164e-06 -1.17056e-06 -0.00100093)
(-2.2734e-06 -1.34801e-06 -0.00100096)
(-2.50429e-06 -1.55407e-06 -0.00100098)
(-2.75539e-06 -1.79365e-06 -0.00100098)
(-3.02775e-06 -2.07254e-06 -0.00100096)
(-3.32234e-06 -2.39747e-06 -0.00100091)
(-3.64001e-06 -2.77636e-06 -0.00100081)
(-3.98147e-06 -3.21844e-06 -0.00100067)
(-4.34721e-06 -3.73452e-06 -0.00100047)
(-4.73748e-06 -4.33724e-06 -0.00100019)
(-5.15227e-06 -5.04139e-06 -0.000999815)
(-5.59107e-06 -5.86426e-06 -0.000999328)
(-6.05269e-06 -6.8261e-06 -0.000998703)
(-6.5354e-06 -7.95012e-06 -0.000997914)
(-7.0367e-06 -9.26312e-06 -0.000996931)
(-7.55301e-06 -1.07964e-05 -0.00099571)
(-8.07938e-06 -1.25866e-05 -0.000994204)
(-8.60915e-06 -1.46763e-05 -0.000992356)
(-9.13371e-06 -1.71155e-05 -0.000990097)
(-9.64202e-06 -1.99624e-05 -0.000987348)
(-1.01203e-05 -2.32847e-05 -0.000984017)
(-1.0551e-05 -2.71614e-05 -0.00097998)
(-1.09124e-05 -3.16849e-05 -0.0009751)
(-1.11769e-05 -3.69639e-05 -0.000969572)
(-1.13096e-05 -4.313e-05 -0.000964661)
(-1.12632e-05 -5.03127e-05 -0.000956335)
(-1.09148e-05 -5.86109e-05 -0.000899986)
(-8.94259e-06 -6.7223e-05 -0.000556906)
(4.73503e-06 -7.45962e-05 -0.00202214)
(-1.20218e-05 -0.000179609 -0.000798783)
(1.18728e-05 -6.81956e-05 -0.00284787)
(4.55714e-05 -8.06493e-05 -0.00194967)
(7.67575e-05 -2.39727e-05 -0.00240594)
(6.5416e-05 -0.000104137 -0.00192902)
(1.96315e-05 -9.32016e-05 -0.00276421)
(3.92091e-05 -9.5182e-05 -0.000383139)
(-9.83547e-05 0.000225461 -0.0029903)
(9.80932e-06 0.000266231 -0.00127828)
(6.90677e-05 0.000359351 -0.00231967)
(0.000201802 0.000331283 -0.00267505)
(0.000184309 0.000106307 -0.00195181)
(0.000196172 3.64198e-05 -0.00257486)
(0.000276402 7.05894e-05 -0.00233369)
(0.00011979 7.05798e-05 -0.00266849)
(2.23216e-05 -1.10911e-05 -0.00128531)
(-2.78992e-05 6.39061e-05 -0.002461)
(-0.000117479 0.000103189 -0.00197468)
(-0.000253327 0.000363404 -0.00199442)
(-0.000231092 0.000494059 -0.00254854)
(-0.000220449 0.000424119 -0.00189663)
(3.10611e-06 0.000273696 -0.00224245)
(-0.000167919 0.000103123 -0.000727871)
(-7.84749e-05 7.67196e-05 -0.00127127)
(-9.94409e-05 -1.69727e-05 -0.00207819)
(-9.12976e-06 -3.26584e-05 -0.00111613)
(9.3979e-06 -3.16297e-05 -0.000972773)
(1.1403e-05 -3.10338e-05 -0.000996715)
(1.1187e-05 -2.99347e-05 -0.00100936)
(1.06452e-05 -2.85483e-05 -0.0010131)
(9.99902e-06 -2.69775e-05 -0.00101508)
(9.30076e-06 -2.52973e-05 -0.00101637)
(8.58302e-06 -2.35704e-05 -0.00101703)
(7.86964e-06 -2.18442e-05 -0.00101719)
(7.17734e-06 -2.01532e-05 -0.00101698)
(6.51735e-06 -1.85216e-05 -0.0010165)
(5.89673e-06 -1.69659e-05 -0.00101583)
(5.31943e-06 -1.54967e-05 -0.00101503)
(4.787e-06 -1.41197e-05 -0.00101416)
(4.29921e-06 -1.28369e-05 -0.00101325)
(3.85474e-06 -1.16481e-05 -0.00101234)
(3.45152e-06 -1.05512e-05 -0.00101143)
(3.08709e-06 -9.54307e-06 -0.00101056)
(2.75875e-06 -8.61973e-06 -0.00100972)
(2.46372e-06 -7.77648e-06 -0.00100892)
(2.19921e-06 -7.00835e-06 -0.00100817)
(1.96251e-06 -6.3102e-06 -0.00100746)
(1.75104e-06 -5.67692e-06 -0.00100681)
(1.56234e-06 -5.10346e-06 -0.0010062)
(1.39414e-06 -4.58498e-06 -0.00100564)
(1.24432e-06 -4.11681e-06 -0.00100511)
(1.11093e-06 -3.69456e-06 -0.00100463)
(9.92193e-07 -3.3141e-06 -0.00100419)
(8.86484e-07 -2.9716e-06 -0.00100378)
(7.92335e-07 -2.66361e-06 -0.00100341)
(7.08422e-07 -2.38689e-06 -0.00100307)
(6.33563e-07 -2.1384e-06 -0.00100276)
(5.66717e-07 -1.91537e-06 -0.00100247)
(5.06979e-07 -1.71521e-06 -0.00100222)
(4.53518e-07 -1.53557e-06 -0.00100198)
(4.05599e-07 -1.37428e-06 -0.00100177)
(3.62591e-07 -1.22947e-06 -0.00100159)
(3.23948e-07 -1.09944e-06 -0.00100142)
(2.89198e-07 -9.8269e-07 -0.00100127)
(2.57939e-07 -8.77886e-07 -0.00100114)
(2.29821e-07 -7.83835e-07 -0.00100102)
(2.04543e-07 -6.99475e-07 -0.00100092)
(1.81844e-07 -6.23857e-07 -0.00100083)
(1.61497e-07 -5.56129e-07 -0.00100075)
(1.43298e-07 -4.9553e-07 -0.00100067)
(1.27067e-07 -4.41369e-07 -0.00100061)
(1.12637e-07 -3.93027e-07 -0.00100055)
(9.98564e-08 -3.49937e-07 -0.0010005)
(8.85797e-08 -3.11586e-07 -0.00100045)
(7.86703e-08 -2.77502e-07 -0.00100041)
(6.99972e-08 -2.47253e-07 -0.00100037)
(6.2434e-08 -2.20445e-07 -0.00100033)
(5.58589e-08 -1.96711e-07 -0.00100029)
(5.01552e-08 -1.75718e-07 -0.00100026)
(4.52111e-08 -1.5716e-07 -0.00100022)
(4.09213e-08 -1.40755e-07 -0.00100019)
(3.71875e-08 -1.26248e-07 -0.00100016)
(3.39198e-08 -1.1341e-07 -0.00100013)
(3.10371e-08 -1.02032e-07 -0.0010001)
(2.84684e-08 -9.19342e-08 -0.00100008)
(2.61532e-08 -8.2955e-08 -0.00100006)
(2.40416e-08 -7.49563e-08 -0.00100003)
(2.20945e-08 -6.78205e-08 -0.00100002)
(2.02831e-08 -6.14491e-08 -0.001)
(1.85881e-08 -5.57615e-08 -0.000999989)
(1.69983e-08 -5.06929e-08 -0.00099998)
(1.55096e-08 -4.61927e-08 -0.000999973)
(1.41233e-08 -4.22225e-08 -0.000999969)
(1.28435e-08 -3.87532e-08 -0.000999968)
(1.16781e-08 -3.57661e-08 -0.000999969)
(1.06409e-08 -3.32468e-08 -0.000999973)
(9.74741e-09 -3.1185e-08 -0.000999977)
(9.08621e-09 -2.96441e-08 -0.000999984)
(8.47673e-09 -2.84255e-08 -0.00099999)
(8.18994e-09 -2.77696e-08 -0.000999997)
)
;
    }
    procBoundary0to2
    {
        type            processor;
        value           nonuniform List<vector> 
180
(
(-2.79327e-09 1.30205e-09 -0.000999877)
(-7.09606e-09 3.65076e-09 -0.000999877)
(-1.18971e-08 6.17559e-09 -0.000999877)
(-1.67636e-08 8.66512e-09 -0.000999878)
(-2.15518e-08 1.09722e-08 -0.000999879)
(-2.62668e-08 1.30729e-08 -0.00099988)
(-3.08835e-08 1.49094e-08 -0.000999881)
(-3.53868e-08 1.64312e-08 -0.000999883)
(-3.97696e-08 1.75935e-08 -0.000999884)
(-4.40342e-08 1.8358e-08 -0.000999885)
(-4.81935e-08 1.86931e-08 -0.000999886)
(-5.22712e-08 1.85745e-08 -0.000999886)
(-5.63035e-08 1.79856e-08 -0.000999886)
(-6.03391e-08 1.69196e-08 -0.000999886)
(-6.44406e-08 1.53749e-08 -0.000999885)
(-6.86855e-08 1.33572e-08 -0.000999884)
(-7.31672e-08 1.08801e-08 -0.000999882)
(-7.7996e-08 7.9654e-09 -0.000999879)
(-8.32986e-08 4.64198e-09 -0.000999875)
(-8.92196e-08 9.45708e-10 -0.00099987)
(-9.59212e-08 -3.08193e-09 -0.000999864)
(-1.03584e-07 -7.39387e-09 -0.000999857)
(-1.1241e-07 -1.19375e-08 -0.000999847)
(-1.22616e-07 -1.66583e-08 -0.000999837)
(-1.34442e-07 -2.15012e-08 -0.000999824)
(-1.48144e-07 -2.64131e-08 -0.000999809)
(-1.63998e-07 -3.13449e-08 -0.000999792)
(-1.82298e-07 -3.62535e-08 -0.000999772)
(-2.0336e-07 -4.11047e-08 -0.000999749)
(-2.27524e-07 -4.58757e-08 -0.000999723)
(-2.55153e-07 -5.05573e-08 -0.000999694)
(-2.8664e-07 -5.51569e-08 -0.000999662)
(-3.22413e-07 -5.9701e-08 -0.000999625)
(-3.62944e-07 -6.42372e-08 -0.000999585)
(-4.0877e-07 -6.88273e-08 -0.00099954)
(-4.60479e-07 -7.35467e-08 -0.00099949)
(-5.18695e-07 -7.84895e-08 -0.000999435)
(-5.84108e-07 -8.37684e-08 -0.000999374)
(-6.57488e-07 -8.95147e-08 -0.000999307)
(-7.39697e-07 -9.58773e-08 -0.000999233)
(-8.31705e-07 -1.03021e-07 -0.000999152)
(-9.34606e-07 -1.11128e-07 -0.000999063)
(-1.04964e-06 -1.20392e-07 -0.000998966)
(-1.1782e-06 -1.31021e-07 -0.000998859)
(-1.32189e-06 -1.43234e-07 -0.000998741)
(-1.48251e-06 -1.57261e-07 -0.000998612)
(-1.66212e-06 -1.73343e-07 -0.000998469)
(-1.86303e-06 -1.91731e-07 -0.000998312)
(-2.0879e-06 -2.1269e-07 -0.000998139)
(-2.33973e-06 -2.365e-07 -0.000997948)
(-2.62191e-06 -2.63459e-07 -0.000997736)
(-2.93829e-06 -2.93892e-07 -0.000997502)
(-3.29324e-06 -3.28155e-07 -0.000997244)
(-3.69169e-06 -3.66645e-07 -0.000996957)
(-4.1392e-06 -4.09814e-07 -0.000996641)
(-4.64207e-06 -4.58181e-07 -0.000996291)
(-5.20741e-06 -5.12357e-07 -0.000995905)
(-5.84324e-06 -5.73081e-07 -0.000995481)
(-6.5586e-06 -6.4125e-07 -0.000995015)
(-7.36366e-06 -7.17982e-07 -0.000994505)
(-8.26988e-06 -8.04737e-07 -0.00099395)
(-9.29007e-06 -9.03456e-07 -0.000993348)
(-1.04387e-05 -1.01644e-06 -0.000992697)
(-1.17323e-05 -1.14629e-06 -0.000991994)
(-1.31892e-05 -1.29609e-06 -0.000991238)
(-1.48299e-05 -1.46959e-06 -0.000990428)
(-1.66777e-05 -1.67128e-06 -0.000989564)
(-1.87589e-05 -1.90654e-06 -0.000988648)
(-2.1103e-05 -2.18182e-06 -0.000987683)
(-2.37435e-05 -2.50492e-06 -0.000986674)
(-2.67182e-05 -2.88517e-06 -0.000985627)
(-3.00698e-05 -3.33378e-06 -0.000984544)
(-3.38475e-05 -3.86315e-06 -0.000983417)
(-3.81066e-05 -4.48808e-06 -0.000982252)
(-4.29099e-05 -5.22547e-06 -0.000981411)
(-4.83312e-05 -6.09453e-06 -0.000982456)
(-5.44356e-05 -7.14041e-06 -0.000982571)
(-6.09094e-05 -8.56017e-06 -0.000944739)
(-6.49198e-05 -1.09108e-05 -0.000610964)
(-5.84916e-05 -8.57857e-06 -0.00202444)
(2.52724e-05 3.58547e-05 -0.00108036)
(7.71536e-05 -8.91796e-05 -0.00295867)
(9.82222e-05 2.69295e-05 -0.00225911)
(3.17864e-05 4.11874e-05 -0.00243812)
(-7.93736e-05 -6.14751e-05 -0.00261851)
(-0.000163834 -0.0001598 -0.00289877)
(-3.67567e-05 -0.000269514 -0.00132137)
(0.000101843 -0.000176294 -0.00326522)
(0.000116172 -0.000154554 -0.00231748)
(0.000139651 1.54112e-06 -0.00371736)
(2.80597e-05 0.000129713 -0.00227308)
(3.13664e-05 0.000167289 -0.00332552)
(3.04793e-05 0.00018455 -0.00226309)
(0.000132636 0.00023998 -0.00321407)
(0.000130464 0.000143004 -0.00274738)
(9.84192e-05 0.00010638 -0.00314339)
(0.000220961 5.45096e-05 -0.00301623)
(0.000358522 3.46698e-05 -0.00355562)
(0.000245185 0.000178511 -0.00271034)
(0.000103146 6.76617e-05 -0.0016092)
(-0.000128269 -8.91907e-05 -0.00309703)
(0.000103549 0.000122669 -0.000835445)
(0.000181189 0.000213711 -0.000489261)
(0.000534173 0.000142894 -0.00495834)
(0.000176924 0.000105938 -0.0022079)
(3.81866e-06 1.07866e-05 -0.00101878)
(-9.87014e-06 -6.59163e-06 -0.000984923)
(-9.8911e-06 -9.26938e-06 -0.00100328)
(-8.83418e-06 -9.88113e-06 -0.00100593)
(-7.77586e-06 -1.01269e-05 -0.00100367)
(-6.77692e-06 -1.02032e-05 -0.0010014)
(-5.85071e-06 -1.01473e-05 -0.000999633)
(-5.00602e-06 -9.98253e-06 -0.000998221)
(-4.24602e-06 -9.72954e-06 -0.000997095)
(-3.56985e-06 -9.40679e-06 -0.000996221)
(-2.97405e-06 -9.03084e-06 -0.000995566)
(-2.45351e-06 -8.61621e-06 -0.000995099)
(-2.00222e-06 -8.17548e-06 -0.000994792)
(-1.61362e-06 -7.71941e-06 -0.000994619)
(-1.28097e-06 -7.25705e-06 -0.000994557)
(-9.97689e-07 -6.79587e-06 -0.000994584)
(-7.58265e-07 -6.34156e-06 -0.000994677)
(-5.57514e-07 -5.89862e-06 -0.000994823)
(-3.906e-07 -5.4705e-06 -0.00099501)
(-2.5307e-07 -5.05979e-06 -0.000995227)
(-1.40888e-07 -4.66833e-06 -0.000995465)
(-5.04272e-08 -4.29733e-06 -0.000995715)
(2.15296e-08 -3.94746e-06 -0.000995972)
(7.78425e-08 -3.619e-06 -0.000996229)
(1.21018e-07 -3.31189e-06 -0.000996483)
(1.53253e-07 -3.02577e-06 -0.000996729)
(1.76465e-07 -2.76012e-06 -0.000996966)
(1.9232e-07 -2.51425e-06 -0.000997191)
(2.02192e-07 -2.28732e-06 -0.000997402)
(2.0704e-07 -2.07833e-06 -0.000997598)
(2.07811e-07 -1.88629e-06 -0.000997781)
(2.05385e-07 -1.71023e-06 -0.000997952)
(2.00526e-07 -1.54918e-06 -0.000998111)
(1.93867e-07 -1.40211e-06 -0.000998258)
(1.8597e-07 -1.26802e-06 -0.000998396)
(1.77295e-07 -1.14598e-06 -0.000998524)
(1.682e-07 -1.03508e-06 -0.000998645)
(1.58955e-07 -9.34448e-07 -0.000998758)
(1.49762e-07 -8.43255e-07 -0.000998865)
(1.40761e-07 -7.60709e-07 -0.000998965)
(1.32044e-07 -6.86059e-07 -0.00099906)
(1.23664e-07 -6.18597e-07 -0.000999148)
(1.15648e-07 -5.5766e-07 -0.000999231)
(1.07998e-07 -5.0263e-07 -0.000999308)
(1.00704e-07 -4.52936e-07 -0.00099938)
(9.37482e-08 -4.08051e-07 -0.000999446)
(8.71076e-08 -3.67497e-07 -0.000999506)
(8.076e-08 -3.30841e-07 -0.00099956)
(7.46862e-08 -2.97692e-07 -0.000999608)
(6.8871e-08 -2.67702e-07 -0.00099965)
(6.3305e-08 -2.40561e-07 -0.000999687)
(5.79842e-08 -2.15995e-07 -0.000999718)
(5.29104e-08 -1.93762e-07 -0.000999745)
(4.80897e-08 -1.73653e-07 -0.000999767)
(4.35319e-08 -1.55481e-07 -0.000999784)
(3.92505e-08 -1.39084e-07 -0.000999798)
(3.52604e-08 -1.24321e-07 -0.000999809)
(3.15754e-08 -1.11065e-07 -0.000999818)
(2.82067e-08 -9.92019e-08 -0.000999824)
(2.51621e-08 -8.86279e-08 -0.000999829)
(2.24457e-08 -7.92475e-08 -0.000999834)
(2.00562e-08 -7.0971e-08 -0.000999838)
(1.79873e-08 -6.37133e-08 -0.000999843)
(1.62271e-08 -5.73931e-08 -0.000999848)
(1.47584e-08 -5.19318e-08 -0.000999855)
(1.35594e-08 -4.72539e-08 -0.000999862)
(1.26036e-08 -4.32863e-08 -0.000999871)
(1.1862e-08 -3.9961e-08 -0.000999882)
(1.13047e-08 -3.72155e-08 -0.000999894)
(1.08971e-08 -3.49848e-08 -0.000999907)
(1.06102e-08 -3.32161e-08 -0.000999922)
(1.04256e-08 -3.18631e-08 -0.000999938)
(1.02556e-08 -3.08135e-08 -0.000999955)
(1.02712e-08 -3.022e-08 -0.000999972)
(1.02043e-08 -2.9784e-08 -0.000999988)
)
;
    }
}


// ************************************************************************* //
