/*--------------------------------*- C++ -*----------------------------------*\
| =========                 |                                                 |
| \\      /  F ield         | OpenFOAM: The Open Source CFD Toolbox           |
|  \\    /   O peration     | Version:  5.x                                   |
|   \\  /    A nd           | Web:      www.OpenFOAM.org                      |
|    \\/     M anipulation  |                                                 |
\*---------------------------------------------------------------------------*/
FoamFile
{
    version     2.0;
    format      ascii;
    class       volVectorField;
    location    "10000";
    object      stored_U;
}
// * * * * * * * * * * * * * * * * * * * * * * * * * * * * * * * * * * * * * //

dimensions      [0 1 -1 0 0 0 0];

internalField   nonuniform List<vector> 
2250
(
(-5.47084e-12 2.11265e-11 -0.000999999)
(-2.16333e-11 2.18557e-11 -0.001)
(-4.42326e-11 1.82427e-11 -0.001)
(-2.99641e-11 1.99464e-11 -0.001)
(-4.56116e-11 3.29402e-12 -0.001)
(-4.79481e-12 5.20417e-11 -0.000999999)
(-2.4607e-11 4.81977e-11 -0.000999999)
(-4.62364e-11 4.04196e-11 -0.000999999)
(-4.50269e-11 3.3382e-11 -0.001)
(-6.02446e-11 -6.62185e-12 -0.001)
(-9.42379e-12 7.21821e-11 -0.000999999)
(-3.34045e-11 6.60227e-11 -0.000999999)
(-5.91438e-11 5.5219e-11 -0.000999999)
(-7.709e-11 3.86584e-11 -0.001)
(-7.21638e-11 1.21751e-11 -0.001)
(-1.10944e-11 9.20627e-11 -0.000999999)
(-4.17197e-11 8.47723e-11 -0.000999999)
(-7.36031e-11 6.27863e-11 -0.000999999)
(-8.80723e-11 5.29195e-11 -0.000999999)
(-7.49424e-11 2.50887e-11 -0.001)
(-1.69025e-11 9.46859e-11 -0.000999999)
(-6.28753e-11 8.74454e-11 -0.000999999)
(-9.10008e-11 8.60378e-11 -0.000999999)
(-1.14789e-10 8.29785e-11 -0.000999999)
(-1.8984e-11 1.36712e-10 -0.001)
(-1.95384e-11 6.14677e-11 -0.001)
(-7.46745e-11 5.94386e-11 -0.001)
(-1.38279e-10 5.3726e-11 -0.001)
(-1.28942e-10 5.09782e-11 -0.001)
(-1.72146e-10 6.0773e-12 -0.001)
(-2.17287e-11 1.56572e-10 -0.000999999)
(-8.27116e-11 1.46326e-10 -0.000999999)
(-1.47055e-10 1.29788e-10 -0.001)
(-1.7704e-10 1.00094e-10 -0.001)
(-2.13878e-10 1.6652e-11 -0.001)
(-3.01118e-11 2.23216e-10 -0.000999999)
(-1.01925e-10 2.07938e-10 -0.000999999)
(-1.84813e-10 1.76852e-10 -0.000999999)
(-2.42415e-10 1.4073e-10 -0.001)
(-2.29073e-10 1.04619e-10 -0.001)
(-3.74294e-11 2.87344e-10 -0.000999999)
(-1.29524e-10 2.62539e-10 -0.000999999)
(-2.1427e-10 2.08783e-10 -0.000999999)
(-2.49277e-10 1.94131e-10 -0.000999999)
(-2.31115e-10 1.23374e-10 -0.001)
(-5.54438e-11 2.91224e-10 -0.000999999)
(-1.81056e-10 2.73517e-10 -0.000999999)
(-2.53224e-10 2.7128e-10 -0.000999999)
(-3.27819e-10 2.67479e-10 -0.000999999)
(-9.69001e-11 3.84876e-10 -0.000999999)
(-4.57495e-11 9.9118e-11 -0.001)
(-1.50366e-10 9.69272e-11 -0.001)
(-2.55716e-10 8.83937e-11 -0.001)
(-2.98721e-10 7.42752e-11 -0.001)
(-3.51148e-10 4.08682e-11 -0.001)
(-4.82313e-11 2.68459e-10 -0.001)
(-1.61642e-10 2.59085e-10 -0.001)
(-2.78996e-10 2.34652e-10 -0.001)
(-3.47068e-10 1.9216e-10 -0.001)
(-3.9015e-10 1.34222e-10 -0.001)
(-5.57232e-11 3.96826e-10 -0.000999999)
(-1.85024e-10 3.76687e-10 -0.000999999)
(-3.2321e-10 3.36966e-10 -0.001)
(-3.99845e-10 3.03193e-10 -0.001)
(-3.99668e-10 2.94605e-10 -0.001)
(-6.91044e-11 5.15863e-10 -0.000999999)
(-2.22286e-10 4.79942e-10 -0.000999999)
(-3.52506e-10 4.29144e-10 -0.000999999)
(-3.89502e-10 4.24518e-10 -0.001)
(-4.05432e-10 3.502e-10 -0.001)
(-9.25329e-11 5.32199e-10 -0.000999999)
(-2.72737e-10 5.11612e-10 -0.000999999)
(-3.78724e-10 5.03078e-10 -0.000999999)
(-4.78839e-10 4.95349e-10 -0.000999999)
(-2.93913e-10 5.71215e-10 -0.000999999)
(-7.86387e-11 1.43265e-10 -0.001)
(-2.48617e-10 1.42364e-10 -0.001)
(-4.07541e-10 1.32794e-10 -0.001)
(-4.98725e-10 1.18302e-10 -0.001)
(-5.50939e-10 1.00717e-10 -0.001)
(-7.99772e-11 4.02483e-10 -0.001)
(-2.59929e-10 3.90852e-10 -0.001)
(-4.32538e-10 3.65966e-10 -0.001)
(-5.31972e-10 3.28545e-10 -0.001)
(-5.71329e-10 3.1104e-10 -0.001)
(-9.11589e-11 6.05562e-10 -0.000999999)
(-2.86433e-10 5.80542e-10 -0.001)
(-4.70717e-10 5.47881e-10 -0.001)
(-5.54711e-10 5.1774e-10 -0.001)
(-5.68585e-10 5.31166e-10 -0.001)
(-1.06093e-10 7.75734e-10 -0.000999999)
(-3.18791e-10 7.45592e-10 -0.000999999)
(-4.95364e-10 7.18551e-10 -0.000999999)
(-5.48642e-10 7.11343e-10 -0.001)
(-5.54879e-10 6.95842e-10 -0.001)
(-1.22695e-10 8.38172e-10 -0.000999999)
(-3.45161e-10 8.30002e-10 -0.000999999)
(-5.04981e-10 8.20891e-10 -0.000999999)
(-5.77315e-10 8.0733e-10 -0.000999999)
(-5.26177e-10 8.01797e-10 -0.000999999)
(-1.23259e-10 1.98395e-10 -0.001)
(-3.73304e-10 1.95625e-10 -0.001)
(-5.90249e-10 1.87965e-10 -0.001)
(-7.2526e-10 1.81208e-10 -0.001)
(-7.88738e-10 1.773e-10 -0.001)
(-1.26659e-10 5.65809e-10 -0.001)
(-3.84922e-10 5.52184e-10 -0.001)
(-6.05905e-10 5.36312e-10 -0.001)
(-7.37436e-10 5.19943e-10 -0.001)
(-7.94515e-10 5.2161e-10 -0.001)
(-1.3817e-10 8.63452e-10 -0.001)
(-4.04663e-10 8.44533e-10 -0.001)
(-6.23692e-10 8.30863e-10 -0.001)
(-7.41422e-10 8.1038e-10 -0.001)
(-7.83758e-10 8.28944e-10 -0.001)
(-1.47205e-10 1.09796e-09 -0.000999999)
(-4.19215e-10 1.08739e-09 -0.000999999)
(-6.40061e-10 1.07799e-09 -0.000999999)
(-7.39338e-10 1.05569e-09 -0.001)
(-7.54664e-10 1.1201e-09 -0.001)
(-1.50844e-10 1.22581e-09 -0.000999999)
(-4.26768e-10 1.23667e-09 -0.000999999)
(-6.55309e-10 1.23292e-09 -0.000999999)
(-6.99359e-10 1.22977e-09 -0.000999999)
(-7.3357e-10 1.16602e-09 -0.000999999)
(-1.84493e-10 2.67754e-10 -0.001)
(-5.3106e-10 2.65593e-10 -0.001)
(-8.13382e-10 2.63932e-10 -0.001)
(-1.00468e-09 2.67145e-10 -0.001)
(-1.10033e-09 2.75108e-10 -0.001)
(-1.87542e-10 7.78542e-10 -0.001)
(-5.36486e-10 7.72948e-10 -0.001)
(-8.13438e-10 7.74253e-10 -0.001)
(-9.95462e-10 7.82333e-10 -0.001)
(-1.09896e-09 7.97554e-10 -0.001)
(-1.91947e-10 1.21079e-09 -0.001)
(-5.37943e-10 1.21063e-09 -0.001)
(-8.05618e-10 1.21776e-09 -0.001)
(-9.8336e-10 1.22087e-09 -0.001)
(-1.08776e-09 1.23259e-09 -0.001)
(-1.9009e-10 1.54223e-09 -0.000999999)
(-5.31939e-10 1.54817e-09 -0.000999999)
(-8.0323e-10 1.54475e-09 -0.000999999)
(-9.80649e-10 1.52236e-09 -0.001)
(-1.06406e-09 1.55538e-09 -0.001)
(-1.89054e-10 1.73394e-09 -0.000999999)
(-5.38492e-10 1.74333e-09 -0.000999999)
(-8.31453e-10 1.74473e-09 -0.000999999)
(-9.72734e-10 1.75799e-09 -0.000999999)
(-9.7691e-10 1.7212e-09 -0.001)
(-2.56675e-10 3.67121e-10 -0.001)
(-7.24901e-10 3.71919e-10 -0.001)
(-1.10218e-09 3.76586e-10 -0.001)
(-1.37485e-09 3.85499e-10 -0.001)
(-1.52278e-09 3.96161e-10 -0.001)
(-2.53102e-10 1.08277e-09 -0.001)
(-7.1757e-10 1.09303e-09 -0.001)
(-1.09073e-09 1.10628e-09 -0.001)
(-1.35791e-09 1.1252e-09 -0.001)
(-1.52715e-09 1.1417e-09 -0.001)
(-2.4909e-10 1.70103e-09 -0.001)
(-7.04989e-10 1.7148e-09 -0.001)
(-1.0722e-09 1.72939e-09 -0.001)
(-1.34213e-09 1.74546e-09 -0.001)
(-1.52084e-09 1.76401e-09 -0.001)
(-2.42741e-10 2.15966e-09 -0.000999999)
(-6.92622e-10 2.1669e-09 -0.000999999)
(-1.06012e-09 2.16475e-09 -0.000999999)
(-1.32332e-09 2.15657e-09 -0.001)
(-1.51456e-09 2.06106e-09 -0.001)
(-2.46138e-10 2.40182e-09 -0.000999998)
(-7.04202e-10 2.39973e-09 -0.000999998)
(-1.08255e-09 2.39824e-09 -0.000999999)
(-1.44581e-09 2.39136e-09 -0.000999999)
(-1.33911e-09 2.47788e-09 -0.001)
(-3.40255e-10 5.1683e-10 -0.001)
(-9.72293e-10 5.2671e-10 -0.001)
(-1.49928e-09 5.30605e-10 -0.001)
(-1.89568e-09 5.35361e-10 -0.001)
(-2.10678e-09 5.40749e-10 -0.001)
(-3.32059e-10 1.51602e-09 -0.001)
(-9.61411e-10 1.53324e-09 -0.001)
(-1.49353e-09 1.54106e-09 -0.001)
(-1.88919e-09 1.55001e-09 -0.001)
(-2.12049e-09 1.56029e-09 -0.001)
(-3.26745e-10 2.36924e-09 -0.001)
(-9.52197e-10 2.38082e-09 -0.001)
(-1.48547e-09 2.38455e-09 -0.001)
(-1.88016e-09 2.3939e-09 -0.001)
(-2.11599e-09 2.41334e-09 -0.001)
(-3.252e-10 2.99016e-09 -0.000999999)
(-9.50847e-10 2.98362e-09 -0.000999999)
(-1.48052e-09 2.97869e-09 -0.000999999)
(-1.86042e-09 2.97841e-09 -0.001)
(-2.11904e-09 2.87557e-09 -0.001)
(-3.39166e-10 3.29928e-09 -0.000999998)
(-9.69611e-10 3.28328e-09 -0.000999998)
(-1.49073e-09 3.27048e-09 -0.000999998)
(-1.98328e-09 3.24197e-09 -0.000999999)
(-1.98064e-09 3.34132e-09 -0.000999999)
(-4.53069e-10 7.21966e-10 -0.001)
(-1.31845e-09 7.27674e-10 -0.001)
(-2.05789e-09 7.25529e-10 -0.001)
(-2.60753e-09 7.24242e-10 -0.001)
(-2.88497e-09 7.31538e-10 -0.001)
(-4.49668e-10 2.09429e-09 -0.001)
(-1.31889e-09 2.10253e-09 -0.001)
(-2.06536e-09 2.0963e-09 -0.001)
(-2.6066e-09 2.09276e-09 -0.001)
(-2.89623e-09 2.10584e-09 -0.001)
(-4.49878e-10 3.24848e-09 -0.001)
(-1.32321e-09 3.24903e-09 -0.001)
(-2.07175e-09 3.23993e-09 -0.001)
(-2.60313e-09 3.23368e-09 -0.001)
(-2.89353e-09 3.24895e-09 -0.001)
(-4.55545e-10 4.08009e-09 -0.000999998)
(-1.33394e-09 4.06846e-09 -0.000999999)
(-2.08078e-09 4.06687e-09 -0.000999999)
(-2.59761e-09 4.06079e-09 -0.001)
(-2.902e-09 4.05967e-09 -0.001)
(-4.69493e-10 4.50735e-09 -0.000999997)
(-1.34453e-09 4.49315e-09 -0.000999997)
(-2.07949e-09 4.4802e-09 -0.000999998)
(-2.61033e-09 4.44727e-09 -0.000999999)
(-2.94629e-09 4.35876e-09 -0.000999999)
(-6.21277e-10 9.84743e-10 -0.001)
(-1.81181e-09 9.82026e-10 -0.001)
(-2.81834e-09 9.77154e-10 -0.001)
(-3.53428e-09 9.76495e-10 -0.001)
(-3.89699e-09 9.84106e-10 -0.001)
(-6.27147e-10 2.84933e-09 -0.001)
(-1.82493e-09 2.84565e-09 -0.001)
(-2.82945e-09 2.83363e-09 -0.001)
(-3.53428e-09 2.82804e-09 -0.001)
(-3.90515e-09 2.83569e-09 -0.001)
(-6.31773e-10 4.42043e-09 -0.001)
(-1.83676e-09 4.41891e-09 -0.001)
(-2.84159e-09 4.40832e-09 -0.001)
(-3.53924e-09 4.38662e-09 -0.001)
(-3.91378e-09 4.39146e-09 -0.001)
(-6.37363e-10 5.55345e-09 -0.000999998)
(-1.84585e-09 5.56012e-09 -0.000999999)
(-2.86184e-09 5.56161e-09 -0.000999999)
(-3.55119e-09 5.52376e-09 -0.001)
(-3.93297e-09 5.67222e-09 -0.001)
(-6.36017e-10 6.16925e-09 -0.000999996)
(-1.83963e-09 6.17318e-09 -0.000999997)
(-2.87803e-09 6.15603e-09 -0.000999997)
(-3.42862e-09 6.10297e-09 -0.000999998)
(-4.11265e-09 5.80995e-09 -0.000999999)
(-8.61615e-10 1.32909e-09 -0.001)
(-2.48887e-09 1.3227e-09 -0.001)
(-3.83458e-09 1.32277e-09 -0.001)
(-4.78336e-09 1.32446e-09 -0.00100001)
(-5.27888e-09 1.32479e-09 -0.00100001)
(-8.72312e-10 3.86759e-09 -0.001)
(-2.50277e-09 3.86478e-09 -0.001)
(-3.84043e-09 3.85867e-09 -0.001)
(-4.79083e-09 3.8533e-09 -0.001)
(-5.29182e-09 3.84741e-09 -0.00100001)
(-8.73695e-10 6.0373e-09 -0.001)
(-2.51041e-09 6.04858e-09 -0.001)
(-3.85376e-09 6.0379e-09 -0.001)
(-4.80416e-09 6.00342e-09 -0.001)
(-5.314e-09 5.98795e-09 -0.001)
(-8.72899e-10 7.61138e-09 -0.000999998)
(-2.51417e-09 7.63711e-09 -0.000999998)
(-3.88575e-09 7.62484e-09 -0.000999999)
(-4.84085e-09 7.56287e-09 -0.001)
(-5.35672e-09 7.71828e-09 -0.001)
(-8.62957e-10 8.47288e-09 -0.000999995)
(-2.51205e-09 8.48791e-09 -0.000999996)
(-3.92813e-09 8.45543e-09 -0.000999997)
(-4.71073e-09 8.3944e-09 -0.000999998)
(-5.50468e-09 8.11787e-09 -0.001)
(-1.18305e-09 1.80601e-09 -0.001)
(-3.39239e-09 1.80572e-09 -0.001)
(-5.20776e-09 1.81294e-09 -0.00100001)
(-6.52352e-09 1.81176e-09 -0.00100001)
(-7.22212e-09 1.80977e-09 -0.00100001)
(-1.18921e-09 5.28573e-09 -0.001)
(-3.39577e-09 5.29866e-09 -0.001)
(-5.21208e-09 5.2958e-09 -0.001)
(-6.53966e-09 5.28084e-09 -0.00100001)
(-7.23783e-09 5.26395e-09 -0.00100001)
(-1.18284e-09 8.28927e-09 -0.001)
(-3.39956e-09 8.31236e-09 -0.001)
(-5.23606e-09 8.28551e-09 -0.001)
(-6.5684e-09 8.23271e-09 -0.001)
(-7.27636e-09 8.18925e-09 -0.00100001)
(-1.18245e-09 1.04623e-08 -0.000999997)
(-3.41601e-09 1.04841e-08 -0.000999998)
(-5.29192e-09 1.04455e-08 -0.000999999)
(-6.63601e-09 1.0378e-08 -0.001)
(-7.33826e-09 1.03932e-08 -0.001)
(-1.18171e-09 1.16199e-08 -0.000999993)
(-3.43721e-09 1.16285e-08 -0.000999994)
(-5.34226e-09 1.15838e-08 -0.000999996)
(-6.62063e-09 1.15215e-08 -0.000999997)
(-7.46389e-09 1.13738e-08 -0.001)
(-1.59943e-09 2.48243e-09 -0.001)
(-4.5971e-09 2.48994e-09 -0.00100001)
(-7.08803e-09 2.49689e-09 -0.00100001)
(-8.91701e-09 2.48631e-09 -0.00100001)
(-9.90528e-09 2.47571e-09 -0.00100001)
(-1.59993e-09 7.26463e-09 -0.001)
(-4.59666e-09 7.28699e-09 -0.001)
(-7.1058e-09 7.26905e-09 -0.00100001)
(-8.95593e-09 7.22784e-09 -0.00100001)
(-9.93591e-09 7.18284e-09 -0.00100001)
(-1.59451e-09 1.13798e-08 -0.001)
(-4.61625e-09 1.13934e-08 -0.001)
(-7.16147e-09 1.1332e-08 -0.001)
(-9.02104e-09 1.12492e-08 -0.00100001)
(-1.00041e-08 1.11616e-08 -0.00100001)
(-1.60869e-09 1.43391e-08 -0.000999996)
(-4.66711e-09 1.4339e-08 -0.000999997)
(-7.25028e-09 1.42708e-08 -0.000999999)
(-9.12641e-09 1.41762e-08 -0.001)
(-1.00908e-08 1.41031e-08 -0.001)
(-1.62277e-09 1.58861e-08 -0.000999991)
(-4.71302e-09 1.58849e-08 -0.000999992)
(-7.32456e-09 1.58297e-08 -0.000999994)
(-9.18878e-09 1.57545e-08 -0.000999997)
(-1.02076e-08 1.5644e-08 -0.001)
(-2.15363e-09 3.42341e-09 -0.00100001)
(-6.23612e-09 3.42789e-09 -0.00100001)
(-9.67816e-09 3.42245e-09 -0.00100001)
(-1.2194e-08 3.39674e-09 -0.00100001)
(-1.35672e-08 3.3646e-09 -0.00100002)
(-2.16011e-09 9.97744e-09 -0.001)
(-6.25624e-09 9.985e-09 -0.00100001)
(-9.72865e-09 9.93483e-09 -0.00100001)
(-1.22762e-08 9.8577e-09 -0.00100001)
(-1.36355e-08 9.77171e-09 -0.00100002)
(-2.16993e-09 1.5568e-08 -0.001)
(-6.31096e-09 1.55557e-08 -0.001)
(-9.82497e-09 1.54576e-08 -0.001)
(-1.23815e-08 1.53427e-08 -0.00100001)
(-1.37418e-08 1.52144e-08 -0.00100001)
(-2.20306e-09 1.95936e-08 -0.000999995)
(-6.39762e-09 1.9575e-08 -0.000999996)
(-9.94203e-09 1.94769e-08 -0.000999999)
(-1.25196e-08 1.93549e-08 -0.001)
(-1.38719e-08 1.92222e-08 -0.00100001)
(-2.22701e-09 2.16996e-08 -0.000999988)
(-6.46656e-09 2.16933e-08 -0.000999989)
(-1.00453e-08 2.16132e-08 -0.000999992)
(-1.26362e-08 2.14983e-08 -0.000999996)
(-1.40172e-08 2.13651e-08 -0.001)
(-2.91991e-09 4.69973e-09 -0.00100001)
(-8.49725e-09 4.69137e-09 -0.00100001)
(-1.32377e-08 4.66827e-09 -0.00100002)
(-1.66921e-08 4.62623e-09 -0.00100002)
(-1.85588e-08 4.57661e-09 -0.00100003)
(-2.94324e-09 1.36549e-08 -0.00100001)
(-8.55493e-09 1.36355e-08 -0.00100001)
(-1.33293e-08 1.35527e-08 -0.00100001)
(-1.68171e-08 1.34406e-08 -0.00100002)
(-1.86735e-08 1.33195e-08 -0.00100002)
(-2.9719e-09 2.12582e-08 -0.001)
(-8.64351e-09 2.12273e-08 -0.001)
(-1.34592e-08 2.11007e-08 -0.00100001)
(-1.69586e-08 2.09469e-08 -0.00100001)
(-1.88267e-08 2.07745e-08 -0.00100002)
(-3.01587e-09 2.67738e-08 -0.000999993)
(-8.75466e-09 2.67536e-08 -0.000999995)
(-1.36102e-08 2.66141e-08 -0.000999999)
(-1.71435e-08 2.64431e-08 -0.001)
(-1.90286e-08 2.62411e-08 -0.00100001)
(-3.04469e-09 2.96742e-08 -0.000999984)
(-8.85629e-09 2.9663e-08 -0.000999986)
(-1.37701e-08 2.95275e-08 -0.00099999)
(-1.73317e-08 2.93309e-08 -0.000999995)
(-1.92725e-08 2.90948e-08 -0.001)
(-3.98043e-09 6.42596e-09 -0.00100001)
(-1.15941e-08 6.40798e-09 -0.00100002)
(-1.80797e-08 6.36966e-09 -0.00100002)
(-2.28114e-08 6.31056e-09 -0.00100003)
(-2.53232e-08 6.24866e-09 -0.00100004)
(-4.01885e-09 1.86608e-08 -0.00100001)
(-1.16862e-08 1.86248e-08 -0.00100001)
(-1.82133e-08 1.85113e-08 -0.00100002)
(-2.29779e-08 1.83562e-08 -0.00100002)
(-2.54917e-08 1.81903e-08 -0.00100003)
(-4.06079e-09 2.90537e-08 -0.001)
(-1.18037e-08 2.90159e-08 -0.001)
(-1.83848e-08 2.88471e-08 -0.00100001)
(-2.3178e-08 2.86244e-08 -0.00100002)
(-2.57127e-08 2.83757e-08 -0.00100002)
(-4.11372e-09 3.66398e-08 -0.000999991)
(-1.19506e-08 3.66097e-08 -0.000999994)
(-1.86055e-08 3.63939e-08 -0.000999999)
(-2.34497e-08 3.61238e-08 -0.00100001)
(-2.60166e-08 3.58213e-08 -0.00100001)
(-4.16272e-09 4.06247e-08 -0.000999979)
(-1.21223e-08 4.05917e-08 -0.000999981)
(-1.88713e-08 4.0363e-08 -0.000999986)
(-2.37506e-08 4.00462e-08 -0.000999993)
(-2.64012e-08 3.96608e-08 -0.001)
(-5.42097e-09 8.78503e-09 -0.00100002)
(-1.57819e-08 8.76521e-09 -0.00100002)
(-2.46101e-08 8.70862e-09 -0.00100003)
(-3.10436e-08 8.62708e-09 -0.00100004)
(-3.44255e-08 8.54391e-09 -0.00100005)
(-5.46869e-09 2.55256e-08 -0.00100001)
(-1.59072e-08 2.54807e-08 -0.00100002)
(-2.47976e-08 2.53173e-08 -0.00100002)
(-3.12704e-08 2.50937e-08 -0.00100003)
(-3.46712e-08 2.48438e-08 -0.00100004)
(-5.52661e-09 3.97643e-08 -0.001)
(-1.60723e-08 3.97062e-08 -0.00100001)
(-2.50468e-08 3.94553e-08 -0.00100001)
(-3.15794e-08 3.91174e-08 -0.00100002)
(-3.5002e-08 3.87263e-08 -0.00100003)
(-5.60482e-09 5.01632e-08 -0.000999989)
(-1.62952e-08 5.00893e-08 -0.000999992)
(-2.53874e-08 4.97596e-08 -0.000999999)
(-3.19998e-08 4.9331e-08 -0.00100001)
(-3.54526e-08 4.88558e-08 -0.00100002)
(-5.69882e-09 5.56182e-08 -0.000999971)
(-1.65753e-08 5.55426e-08 -0.000999975)
(-2.58058e-08 5.51864e-08 -0.000999982)
(-3.24831e-08 5.47146e-08 -0.000999991)
(-3.59936e-08 5.41661e-08 -0.001)
(-7.36188e-09 1.20249e-08 -0.00100003)
(-2.14255e-08 1.20017e-08 -0.00100003)
(-3.34018e-08 1.19153e-08 -0.00100004)
(-4.20955e-08 1.18002e-08 -0.00100005)
(-4.66658e-08 1.1664e-08 -0.00100007)
(-7.42315e-09 3.49559e-08 -0.00100002)
(-2.16016e-08 3.48908e-08 -0.00100002)
(-3.36705e-08 3.4643e-08 -0.00100003)
(-4.24311e-08 3.43103e-08 -0.00100005)
(-4.70418e-08 3.39075e-08 -0.00100006)
(-7.5101e-09 5.44664e-08 -0.00100001)
(-2.18505e-08 5.43653e-08 -0.00100001)
(-3.40499e-08 5.39846e-08 -0.00100002)
(-4.29155e-08 5.34661e-08 -0.00100003)
(-4.7561e-08 5.28421e-08 -0.00100005)
(-7.63091e-09 6.86935e-08 -0.000999985)
(-2.21916e-08 6.85626e-08 -0.00099999)
(-3.4571e-08 6.80703e-08 -0.000999999)
(-4.35742e-08 6.7397e-08 -0.00100001)
(-4.82557e-08 6.6608e-08 -0.00100003)
(-7.77529e-09 7.6166e-08 -0.000999961)
(-2.26095e-08 7.60392e-08 -0.000999966)
(-3.52165e-08 7.54969e-08 -0.000999975)
(-4.43778e-08 7.47807e-08 -0.000999988)
(-4.90363e-08 7.39883e-08 -0.001)
(-9.98408e-09 1.64697e-08 -0.00100004)
(-2.90443e-08 1.64361e-08 -0.00100004)
(-4.52524e-08 1.6306e-08 -0.00100006)
(-5.70057e-08 1.61357e-08 -0.00100007)
(-6.31894e-08 1.59197e-08 -0.00100009)
(-1.00696e-08 4.78979e-08 -0.00100003)
(-2.92987e-08 4.7796e-08 -0.00100003)
(-4.56441e-08 4.74223e-08 -0.00100005)
(-5.75066e-08 4.6919e-08 -0.00100006)
(-6.37563e-08 4.63032e-08 -0.00100008)
(-1.01995e-08 7.46504e-08 -0.00100001)
(-2.96728e-08 7.44899e-08 -0.00100001)
(-4.62211e-08 7.39097e-08 -0.00100003)
(-5.82395e-08 7.31105e-08 -0.00100004)
(-6.45666e-08 7.21569e-08 -0.00100006)
(-1.03762e-08 9.41694e-08 -0.00099998)
(-3.01874e-08 9.39541e-08 -0.000999987)
(-4.70252e-08 9.31968e-08 -0.000999999)
(-5.92603e-08 9.2154e-08 -0.00100002)
(-6.56614e-08 9.09038e-08 -0.00100004)
(-1.05987e-08 1.04426e-07 -0.000999948)
(-3.08315e-08 1.042e-07 -0.000999954)
(-4.80227e-08 1.03356e-07 -0.000999967)
(-6.05325e-08 1.02236e-07 -0.000999984)
(-6.68744e-08 1.01004e-07 -0.00100001)
(-1.35268e-08 2.25659e-08 -0.00100005)
(-3.93249e-08 2.25149e-08 -0.00100006)
(-6.12279e-08 2.23233e-08 -0.00100008)
(-7.71187e-08 2.20657e-08 -0.0010001)
(-8.54707e-08 2.17514e-08 -0.00100013)
(-1.36486e-08 6.56537e-08 -0.00100004)
(-3.96909e-08 6.54937e-08 -0.00100005)
(-6.18008e-08 6.49327e-08 -0.00100006)
(-7.78459e-08 6.41622e-08 -0.00100009)
(-8.62961e-08 6.32441e-08 -0.00100011)
(-1.38419e-08 1.02361e-07 -0.00100001)
(-4.02545e-08 1.02101e-07 -0.00100002)
(-6.26836e-08 1.01206e-07 -0.00100004)
(-7.89626e-08 9.99683e-08 -0.00100006)
(-8.7549e-08 9.85111e-08 -0.00100009)
(-1.41092e-08 1.2917e-07 -0.000999974)
(-4.10484e-08 1.28796e-07 -0.000999983)
(-6.39355e-08 1.27627e-07 -0.001)
(-8.05423e-08 1.26035e-07 -0.00100002)
(-8.92675e-08 1.24119e-07 -0.00100005)
(-1.44673e-08 1.43281e-07 -0.000999929)
(-4.20522e-08 1.42867e-07 -0.000999938)
(-6.54473e-08 1.41564e-07 -0.000999956)
(-8.24707e-08 1.39816e-07 -0.000999979)
(-9.1205e-08 1.37858e-07 -0.00100001)
(-1.8298e-08 3.09322e-08 -0.00100008)
(-5.31715e-08 3.08516e-08 -0.00100009)
(-8.27491e-08 3.05649e-08 -0.00100011)
(-1.04182e-07 3.01632e-08 -0.00100014)
(-1.1542e-07 2.96684e-08 -0.00100017)
(-1.84754e-08 9.00138e-08 -0.00100006)
(-5.37068e-08 8.9753e-08 -0.00100007)
(-8.36049e-08 8.88963e-08 -0.00100009)
(-1.05289e-07 8.76951e-08 -0.00100012)
(-1.1666e-07 8.62645e-08 -0.00100015)
(-1.87708e-08 1.40378e-07 -0.00100002)
(-5.45737e-08 1.39938e-07 -0.00100003)
(-8.49752e-08 1.38558e-07 -0.00100005)
(-1.07024e-07 1.36648e-07 -0.00100008)
(-1.18584e-07 1.34409e-07 -0.00100012)
(-1.91899e-08 1.77176e-07 -0.000999966)
(-5.58047e-08 1.76568e-07 -0.000999978)
(-8.6898e-08 1.7479e-07 -0.001)
(-1.09439e-07 1.72377e-07 -0.00100003)
(-1.21236e-07 1.69488e-07 -0.00100007)
(-1.97245e-08 1.96657e-07 -0.000999904)
(-5.73096e-08 1.95975e-07 -0.000999916)
(-8.91686e-08 1.93989e-07 -0.00099994)
(-1.12326e-07 1.91288e-07 -0.000999972)
(-1.24323e-07 1.88195e-07 -0.00100001)
(-2.47149e-08 4.24153e-08 -0.00100011)
(-7.18134e-08 4.22803e-08 -0.00100012)
(-1.11749e-07 4.18331e-08 -0.00100015)
(-1.40645e-07 4.1201e-08 -0.00100019)
(-1.55676e-07 4.04369e-08 -0.00100024)
(-2.49817e-08 1.23436e-07 -0.00100008)
(-7.26239e-08 1.23e-07 -0.00100009)
(-1.13055e-07 1.21676e-07 -0.00100012)
(-1.42326e-07 1.19826e-07 -0.00100016)
(-1.57535e-07 1.17643e-07 -0.00100021)
(-2.5441e-08 1.92544e-07 -0.00100003)
(-7.39622e-08 1.91812e-07 -0.00100004)
(-1.1515e-07 1.89711e-07 -0.00100007)
(-1.44962e-07 1.86824e-07 -0.00100011)
(-1.60434e-07 1.83437e-07 -0.00100016)
(-2.60888e-08 2.43112e-07 -0.000999955)
(-7.58372e-08 2.42156e-07 -0.000999971)
(-1.18047e-07 2.39475e-07 -0.001)
(-1.48603e-07 2.35829e-07 -0.00100004)
(-1.64471e-07 2.31484e-07 -0.00100009)
(-2.68697e-08 2.70085e-07 -0.00099987)
(-7.80785e-08 2.6901e-07 -0.000999887)
(-1.21481e-07 2.65993e-07 -0.000999919)
(-1.52953e-07 2.61846e-07 -0.000999963)
(-1.69303e-07 2.57022e-07 -0.00100001)
(-3.33515e-08 5.81683e-08 -0.00100015)
(-9.69228e-08 5.79348e-08 -0.00100017)
(-1.50798e-07 5.72414e-08 -0.00100021)
(-1.89671e-07 5.6294e-08 -0.00100026)
(-2.0967e-07 5.5196e-08 -0.00100032)
(-3.37648e-08 1.69291e-07 -0.00100011)
(-9.81603e-08 1.68569e-07 -0.00100013)
(-1.52746e-07 1.66562e-07 -0.00100017)
(-1.92101e-07 1.63803e-07 -0.00100022)
(-2.12381e-07 1.60566e-07 -0.00100029)
(-3.44691e-08 2.64175e-07 -0.00100004)
(-1.00181e-07 2.63008e-07 -0.00100006)
(-1.55871e-07 2.59861e-07 -0.0010001)
(-1.9605e-07 2.5553e-07 -0.00100016)
(-2.16751e-07 2.50394e-07 -0.00100022)
(-3.54457e-08 3.33813e-07 -0.000999941)
(-1.02997e-07 3.3232e-07 -0.000999963)
(-1.6023e-07 3.28276e-07 -0.001)
(-2.01571e-07 3.2271e-07 -0.00100006)
(-2.22904e-07 3.16081e-07 -0.00100013)
(-3.66105e-08 3.71261e-07 -0.000999824)
(-1.06376e-07 3.69553e-07 -0.000999847)
(-1.65486e-07 3.64944e-07 -0.000999891)
(-2.08245e-07 3.58568e-07 -0.000999951)
(-2.30351e-07 3.51086e-07 -0.00100002)
(-4.49896e-08 7.9753e-08 -0.00100021)
(-1.30725e-07 7.93658e-08 -0.00100024)
(-2.03234e-07 7.83402e-08 -0.00100029)
(-2.55294e-07 7.69546e-08 -0.00100036)
(-2.81833e-07 7.53287e-08 -0.00100044)
(-4.56219e-08 2.32177e-07 -0.00100016)
(-1.3256e-07 2.3104e-07 -0.00100018)
(-2.0606e-07 2.2807e-07 -0.00100024)
(-2.58825e-07 2.23973e-07 -0.00100031)
(-2.85816e-07 2.1912e-07 -0.00100039)
(-4.66669e-08 3.62579e-07 -0.00100006)
(-1.35553e-07 3.6078e-07 -0.00100009)
(-2.10716e-07 3.56065e-07 -0.00100014)
(-2.64762e-07 3.49519e-07 -0.00100022)
(-2.9244e-07 3.41728e-07 -0.0010003)
(-4.81247e-08 4.58679e-07 -0.000999923)
(-1.3979e-07 4.56346e-07 -0.000999953)
(-2.1733e-07 4.50185e-07 -0.00100001)
(-2.73166e-07 4.41646e-07 -0.00100009)
(-3.01842e-07 4.31498e-07 -0.00100018)
(-4.98893e-08 5.10825e-07 -0.000999762)
(-1.4495e-07 5.08093e-07 -0.000999793)
(-2.25424e-07 5.00985e-07 -0.000999853)
(-2.83449e-07 4.91141e-07 -0.000999935)
(-3.13283e-07 4.79538e-07 -0.00100003)
(-6.0674e-08 1.09289e-07 -0.00100029)
(-1.76167e-07 1.08703e-07 -0.00100033)
(-2.73517e-07 1.07216e-07 -0.0010004)
(-3.4305e-07 1.05159e-07 -0.00100049)
(-3.78133e-07 1.02711e-07 -0.0010006)
(-6.15937e-08 3.1836e-07 -0.00100022)
(-1.78813e-07 3.1665e-07 -0.00100026)
(-2.77621e-07 3.1226e-07 -0.00100033)
(-3.48256e-07 3.06141e-07 -0.00100043)
(-3.83988e-07 2.98879e-07 -0.00100054)
(-6.31228e-08 4.97726e-07 -0.00100009)
(-1.8325e-07 4.9497e-07 -0.00100013)
(-2.84586e-07 4.87871e-07 -0.0010002)
(-3.57127e-07 4.78004e-07 -0.0010003)
(-3.93957e-07 4.66287e-07 -0.00100042)
(-6.53147e-08 6.30592e-07 -0.0009999)
(-1.8965e-07 6.26904e-07 -0.000999941)
(-2.94598e-07 6.17509e-07 -0.00100002)
(-3.69845e-07 6.0451e-07 -0.00100012)
(-4.08256e-07 5.8906e-07 -0.00100024)
(-6.80316e-08 7.03487e-07 -0.000999678)
(-1.97574e-07 6.99105e-07 -0.000999721)
(-3.0699e-07 6.8814e-07 -0.000999802)
(-3.85576e-07 6.72976e-07 -0.000999913)
(-4.2584e-07 6.55021e-07 -0.00100004)
(-8.18041e-08 1.4965e-07 -0.00100041)
(-2.37263e-07 1.48808e-07 -0.00100046)
(-3.67765e-07 1.46646e-07 -0.00100055)
(-4.60362e-07 1.4362e-07 -0.00100068)
(-5.06371e-07 1.40019e-07 -0.00100083)
(-8.31002e-08 4.36291e-07 -0.00100031)
(-2.41044e-07 4.33758e-07 -0.00100036)
(-3.73708e-07 4.27292e-07 -0.00100046)
(-4.67932e-07 4.18264e-07 -0.00100059)
(-5.14898e-07 4.07504e-07 -0.00100074)
(-8.5346e-08 6.83062e-07 -0.00100013)
(-2.47601e-07 6.78849e-07 -0.00100018)
(-3.84013e-07 6.68271e-07 -0.00100028)
(-4.81086e-07 6.53552e-07 -0.00100041)
(-5.29768e-07 6.35988e-07 -0.00100057)
(-8.86348e-08 8.6704e-07 -0.000999873)
(-2.57181e-07 8.61277e-07 -0.000999928)
(-3.99022e-07 8.47116e-07 -0.00100003)
(-5.00221e-07 8.27442e-07 -0.00100017)
(-5.51344e-07 8.04014e-07 -0.00100034)
(-9.27832e-08 9.69523e-07 -0.000999567)
(-2.69228e-07 9.62569e-07 -0.000999625)
(-4.17862e-07 9.45762e-07 -0.000999736)
(-5.24188e-07 9.2249e-07 -0.000999887)
(-5.78251e-07 8.94858e-07 -0.00100006)
(-1.10341e-07 2.0464e-07 -0.00100057)
(-3.19644e-07 2.03447e-07 -0.00100064)
(-4.94393e-07 2.00364e-07 -0.00100076)
(-6.17122e-07 1.96037e-07 -0.00100093)
(-6.76738e-07 1.90793e-07 -0.00100113)
(-1.12153e-07 5.97167e-07 -0.00100044)
(-3.24974e-07 5.93487e-07 -0.00100051)
(-5.02819e-07 5.84184e-07 -0.00100064)
(-6.27961e-07 5.71116e-07 -0.00100081)
(-6.89089e-07 5.55314e-07 -0.00100101)
(-1.15398e-07 9.36597e-07 -0.00100019)
(-3.34449e-07 9.30319e-07 -0.00100026)
(-5.1778e-07 9.1484e-07 -0.00100039)
(-6.4725e-07 8.93126e-07 -0.00100058)
(-7.11005e-07 8.67053e-07 -0.00100078)
(-1.20241e-07 1.19187e-06 -0.00099984)
(-3.48575e-07 1.18308e-06 -0.000999915)
(-5.40034e-07 1.16191e-06 -0.00100006)
(-6.75756e-07 1.1323e-06 -0.00100025)
(-7.43218e-07 1.09706e-06 -0.00100047)
(-1.26479e-07 1.33703e-06 -0.00099942)
(-3.66747e-07 1.32615e-06 -0.000999499)
(-5.68584e-07 1.30044e-06 -0.000999649)
(-7.12096e-07 1.26482e-06 -0.000999854)
(-7.8409e-07 1.22253e-06 -0.00100009)
(-1.49153e-07 2.7915e-07 -0.00100079)
(-4.31374e-07 2.77538e-07 -0.00100089)
(-6.65146e-07 2.73341e-07 -0.00100106)
(-8.2693e-07 2.67333e-07 -0.00100129)
(-9.02818e-07 2.59889e-07 -0.00100155)
(-1.51606e-07 8.15571e-07 -0.00100062)
(-4.38611e-07 8.1049e-07 -0.00100071)
(-6.7672e-07 7.97573e-07 -0.00100089)
(-8.42084e-07 7.79143e-07 -0.00100112)
(-9.20321e-07 7.56553e-07 -0.00100139)
(-1.56111e-07 1.28223e-06 -0.00100028)
(-4.5185e-07 1.27321e-06 -0.00100038)
(-6.97861e-07 1.25103e-06 -0.00100056)
(-8.69638e-07 1.21964e-06 -0.0010008)
(-9.51935e-07 1.18169e-06 -0.00100108)
(-1.63101e-07 1.63742e-06 -0.000999804)
(-4.72336e-07 1.62421e-06 -0.000999906)
(-7.30321e-07 1.5928e-06 -0.0010001)
(-9.11433e-07 1.5488e-06 -0.00100035)
(-9.99471e-07 1.49626e-06 -0.00100065)
(-1.72473e-07 1.84491e-06 -0.000999226)
(-4.99677e-07 1.82792e-06 -0.000999334)
(-7.73287e-07 1.78868e-06 -0.000999539)
(-9.66171e-07 1.73437e-06 -0.000999816)
(-1.06122e-06 1.66984e-06 -0.00100014)
(-2.02551e-07 3.79276e-07 -0.0010011)
(-5.84383e-07 3.7735e-07 -0.00100123)
(-8.96974e-07 3.72044e-07 -0.00100147)
(-1.10858e-06 3.64171e-07 -0.00100178)
(-1.20247e-06 3.54175e-07 -0.00100213)
(-2.05619e-07 1.10994e-06 -0.00100087)
(-5.93549e-07 1.10353e-06 -0.001001)
(-9.11996e-07 1.0866e-06 -0.00100124)
(-1.12873e-06 1.06185e-06 -0.00100155)
(-1.22628e-06 1.03082e-06 -0.00100191)
(-2.11516e-07 1.75085e-06 -0.00100041)
(-6.11088e-07 1.73851e-06 -0.00100055)
(-9.40499e-07 1.70784e-06 -0.00100079)
(-1.16662e-06 1.66391e-06 -0.00100112)
(-1.27069e-06 1.60988e-06 -0.00100148)
(-2.21338e-07 2.24656e-06 -0.000999769)
(-6.39997e-07 2.22708e-06 -0.000999906)
(-9.86633e-07 2.18134e-06 -0.00100016)
(-1.22671e-06 2.11703e-06 -0.00100051)
(-1.33991e-06 2.03943e-06 -0.0010009)
(-2.35313e-07 2.54636e-06 -0.000998977)
(-6.80708e-07 2.51997e-06 -0.000999124)
(-1.05059e-06 2.46039e-06 -0.000999402)
(-1.30853e-06 2.37792e-06 -0.000999776)
(-1.43272e-06 2.27973e-06 -0.0010002)
(-2.77341e-07 5.12158e-07 -0.00100151)
(-7.9729e-07 5.10478e-07 -0.0010017)
(-1.21544e-06 5.04808e-07 -0.00100203)
(-1.48879e-06 4.95671e-07 -0.00100246)
(-1.59946e-06 4.83193e-07 -0.00100293)
(-2.80571e-07 1.50225e-06 -0.00100121)
(-8.07259e-07 1.49564e-06 -0.00100139)
(-1.23273e-06 1.47599e-06 -0.00100172)
(-1.51346e-06 1.44556e-06 -0.00100216)
(-1.63013e-06 1.40523e-06 -0.00100263)
(-2.87426e-07 2.38065e-06 -0.00100061)
(-8.28125e-07 2.36526e-06 -0.00100079)
(-1.268e-06 2.32555e-06 -0.00100112)
(-1.56258e-06 2.26701e-06 -0.00100156)
(-1.69012e-06 2.1926e-06 -0.00100205)
(-3.0056e-07 3.07484e-06 -0.000999743)
(-8.67043e-07 3.04716e-06 -0.00099993)
(-1.33103e-06 2.98229e-06 -0.00100028)
(-1.64642e-06 2.89019e-06 -0.00100074)
(-1.78876e-06 2.7774e-06 -0.00100125)
(-3.21014e-07 3.51359e-06 -0.000998663)
(-9.26697e-07 3.47292e-06 -0.000998864)
(-1.42502e-06 3.38291e-06 -0.00099924)
(-1.76748e-06 3.2583e-06 -0.000999741)
(-1.92721e-06 3.10954e-06 -0.00100031)
(-3.84973e-07 6.85095e-07 -0.00100205)
(-1.1011e-06 6.85439e-07 -0.00100232)
(-1.66154e-06 6.82221e-07 -0.00100281)
(-2.00796e-06 6.74458e-07 -0.00100341)
(-2.12658e-06 6.61112e-07 -0.00100405)
(-3.86728e-07 2.01573e-06 -0.00100166)
(-1.10752e-06 2.01302e-06 -0.00100193)
(-1.67587e-06 1.99686e-06 -0.0010024)
(-2.03314e-06 1.96624e-06 -0.001003)
(-2.16233e-06 1.91931e-06 -0.00100363)
(-3.92389e-07 3.21547e-06 -0.00100089)
(-1.12616e-06 3.20003e-06 -0.00100114)
(-1.71169e-06 3.15502e-06 -0.0010016)
(-2.08958e-06 3.08388e-06 -0.00100219)
(-2.23774e-06 2.98723e-06 -0.00100283)
(-4.0842e-07 4.19196e-06 -0.000999744)
(-1.17432e-06 4.15448e-06 -0.001)
(-1.79209e-06 4.06601e-06 -0.00100047)
(-2.20096e-06 3.93835e-06 -0.00100107)
(-2.3738e-06 3.77814e-06 -0.00100175)
(-4.37925e-07 4.84309e-06 -0.000998282)
(-1.26032e-06 4.78062e-06 -0.000998557)
(-1.92789e-06 4.64531e-06 -0.000999064)