FoamFile
{version 2.0; format ascii;class Cloud<passiveParticle>; location 0;object  positions;}
41
(
( 0.000370218 0.0001719 9.99508e-05 ) 0 
( 0.000232597 0.000316988 9.97964e-05 ) 0 
( 0.000366555 0.000466454 9.99694e-05 ) 0 
( 7.21684e-05 0.000436311 9.98686e-05 ) 0 
( 3.39284e-05 0.000240073 9.98314e-05 ) 0 
( 0.000181639 0.000104309 9.99707e-05 ) 0 
( 0.000219022 0.000463667 0.00023497 ) 0 
( 3.90778e-05 9.91986e-05 0.000241679 ) 0 
( 0.000129639 0.000288021 0.000268609 ) 0 
( 0.000485124 0.000440263 0.000259803 ) 0 
( 0.000203381 0.000125248 0.00035822 ) 0 
( 0.00034376 0.000287222 0.000263176 ) 0 
( 0.00036349 5.44255e-05 0.000261624 ) 0 
( 0.000337516 0.000484986 0.000394566 ) 0 
( 0.000452582 0.000127104 0.000425529 ) 0 
( 0.000457457 0.000327485 0.000422558 ) 0 
( 4.58948e-05 0.000261261 0.000448083 ) 0 
( 0.000241011 0.00030657 0.000433606 ) 0 
( 0.000491498 0.000462119 0.000566455 ) 0 
( 0.000289869 8.62098e-05 0.000534154 ) 0 
( 0.000379301 0.0002555 0.00059185 ) 0 
( 0.000287903 0.000433037 0.000581164 ) 0 
( 9.55426e-05 0.000381668 0.000599695 ) 0 
( 2.59503e-05 0.000119354 0.00058745 ) 0 
( 0.000190248 0.000213493 0.0006517 ) 0 
( 0.000451558 7.8884e-05 0.000651502 ) 0 
( 0.00034733 0.000232415 0.000787843 ) 0 
( 0.000215276 0.000379893 0.000759746 ) 0 
( 8.96387e-05 2.16569e-05 0.000749881 ) 0 
( 0.000148387 0.000212951 0.000847155 ) 0 
( 6.62897e-06 9.28157e-05 0.000920895 ) 0 
( 0.000284301 6.9429e-05 0.000884967 ) 0 
( 3.98906e-05 0.000469069 0.000795493 ) 0 
( 0.000382185 0.000422073 0.000861381 ) 0 
( 0.000466654 9.54858e-05 0.000962739 ) 0 
( 0.000280986 0.000291778 0.000974333 ) 0 
( 0.000166893 0.000137873 0.00103166 ) 0 
( 0.000479993 0.000292564 0.000993789 ) 0 
( 4.70248e-05 0.000347897 0.000954377 ) 0 
( 0.000349186 0.000161952 0.0011103 ) 0 
( 0.000161598 0.000364224 0.00111747 ) 0 
)
