FoamFile
{version 2.0; format ascii;class vectorField; location 0;object  v;}
41
(
( 2.4891e-05 4.04069e-05 -1.61713e-05 )  
( 1.65876e-05 4.70547e-05 -9.51303e-06 )  
( -3.02758e-05 5.07969e-07 -8.77889e-06 )  
( -1.20705e-05 -7.49215e-06 -1.44125e-05 )  
( -4.48412e-06 2.20399e-05 -2.25999e-05 )  
( 4.42566e-05 -6.8464e-05 3.58745e-07 )  
( 3.35582e-06 3.53833e-05 1.30481e-05 )  
( 1.53543e-05 6.60923e-05 -2.3842e-05 )  
( -3.33868e-05 5.91304e-05 -2.14967e-05 )  
( -2.93939e-05 2.36978e-05 -1.62719e-05 )  
( -3.20721e-05 7.10529e-05 -1.49788e-05 )  
( -2.7599e-06 9.83015e-05 -4.6102e-06 )  
( -4.58966e-05 0.00010619 -8.6773e-07 )  
( 1.78147e-05 4.1233e-05 6.72885e-06 )  
( 4.5949e-06 5.81111e-05 -4.65778e-05 )  
( -1.00827e-05 2.64462e-05 -4.90951e-06 )  
( -4.89384e-05 3.27369e-05 -4.79757e-05 )  
( -5.16212e-05 7.90207e-05 -2.21319e-05 )  
( 3.49438e-05 -2.38952e-05 -1.76849e-05 )  
( 2.17926e-05 4.77303e-05 -6.16437e-05 )  
( -4.9222e-06 3.36426e-05 -2.47272e-05 )  
( -2.68285e-05 2.9967e-05 -1.07176e-05 )  
( -3.519e-05 -1.88678e-05 -2.8414e-05 )  
( 1.07594e-05 -3.70627e-06 -8.27746e-05 )  
( 9.04401e-06 2.36224e-05 -5.81043e-05 )  
( 1.86564e-05 1.44291e-05 -8.50719e-05 )  
( -5.01014e-05 -1.90521e-05 -5.22374e-05 )  
( 4.52792e-06 2.86515e-05 -8.205e-05 )  
( -1.56931e-05 7.12247e-05 -3.62196e-05 )  
( -8.50077e-07 1.78379e-05 -8.4415e-05 )  
( 1.37498e-05 1.29347e-05 -8.50362e-05 )  
( -2.08497e-05 -3.95134e-05 -9.16005e-05 )  
( 1.80226e-05 6.5553e-05 -8.06181e-05 )  
( 1.32493e-05 2.24611e-05 -9.9945e-05 )  
( -3.20372e-05 -3.97661e-05 -0.00016979 )  
( -4.33955e-06 2.43185e-05 -5.89433e-05 )  
( -2.12831e-05 8.69529e-05 -6.761e-05 )  
( 5.67096e-07 -4.31583e-05 -0.000145156 )  
( -1.91063e-05 1.64702e-05 -0.000125734 )  
( 6.31734e-05 -8.71718e-05 -0.000170344 )  
( -2.2195e-05 4.05467e-05 -0.000107799 )  
)
