FoamFile
{version 2.0; format ascii;class Cloud<passiveParticle>; location 0;object  positions;}
42
(
( 386.311 -486.307 99.8628 ) 0 
( 113.946 -410.039 99.8466 ) 0 
( 94.5533 -210.17 99.9205 ) 0 
( 288.214 -312.063 99.8251 ) 0 
( 104.076 -0.477869 99.949 ) 0 
( 400.148 -324.206 264.915 ) 0 
( 461.381 -145.385 144.465 ) 0 
( 269.274 -113.064 99.8689 ) 0 
( 40.6355 -329.884 267.677 ) 0 
( 201.458 -40.6534 273.387 ) 0 
( 219.046 -239.745 272.839 ) 0 
( 0.356708 -100.828 238.339 ) 0 
( 187.37 -404.898 380.849 ) 0 
( 90.1028 -224.679 430.3 ) 0 
( 63.1529 -26.5511 427.611 ) 0 
( 377.892 -130.253 325.348 ) 0 
( 329.974 -281.4 447.211 ) 0 
( 452.684 -136.715 510.665 ) 0 
( 243.118 -102.362 470.22 ) 0 
( 327.61 -480.412 501.766 ) 0 
( 432.173 -320.944 616.1 ) 0 
( 154.329 -393.943 577.59 ) 0 
( 102.137 -94.363 611.711 ) 0 
( 38.2621 -269.895 682.923 ) 0 
( 255.386 -228.115 625.108 ) 0 
( 364.738 -81.3062 708.969 ) 0 
( 289.799 -411.221 723.554 ) 0 
( 165.753 -159.058 789.863 ) 0 
( 480.711 -467.412 743.198 ) 0 
( 343.646 -245.334 821.335 ) 0 
( 100.888 -428.948 786.669 ) 0 
( 255.512 -395.377 919.874 ) 0 
( 9.59709 -246.061 879.369 ) 0 
( 53.0209 -19.9571 878.839 ) 0 
( 232.953 -180.057 976.958 ) 0 
( 390.513 -39.4284 987.907 ) 0 
( 422.788 -236.003 1005.37 ) 0 
( 490.248 -410.4 934.558 ) 0 
( 90.5249 -355.752 1025.66 ) 0 
( 48.9049 -136.009 1041.64 ) 0 
( 323.551 -376.737 1107.01 ) 0 
( 175.649 -235.047 1160.48 ) 0 
)
