FoamFile
{version 2.0; format ascii;class vectorField; location 0;object  v;}
42
(
( -1.09771e-05 3.35621e-05 -7.66029e-05 )  
( -9.2469e-06 -5.33399e-06 -0.000175739 )  
( 2.81463e-06 1.0086e-05 -8.85535e-05 )  
( -4.22822e-05 1.98718e-05 -0.000184462 )  
( 3.83805e-05 -1.82584e-06 -8.19611e-05 )  
( -3.06788e-05 4.13972e-07 -0.000415047 )  
( 3.02791e-05 3.66935e-05 -0.000259205 )  
( 5.71778e-05 8.54321e-06 -0.000188388 )  
( -5.90773e-05 -6.30028e-06 -0.000262721 )  
( 5.97011e-05 2.5258e-05 -0.000322193 )  
( -7.5535e-05 -1.18244e-06 -0.000319092 )  
( 2.23594e-06 -9.98464e-05 -0.000191749 )  
( -6.32959e-05 2.09238e-05 -0.000300608 )  
( -9.63648e-05 -9.37998e-05 -0.000266249 )  
( 2.75161e-05 5.19711e-05 -0.000316154 )  
( -7.81406e-05 -3.81804e-06 -0.000377342 )  
( 1.13169e-05 -0.000117351 -0.000536356 )  
( -9.35342e-05 3.87723e-08 -0.000364254 )  
( -6.02633e-05 -5.86538e-05 -0.00025596 )  
( -4.13343e-05 -2.16899e-05 -0.000428254 )  
( 2.74395e-05 0.000130141 -0.000145738 )  
( 6.74216e-05 5.78322e-06 -0.000167711 )  
( -5.12647e-05 2.21989e-05 -0.00014463 )  
( -3.04724e-06 -5.1591e-05 -5.74751e-05 )  
( 1.57499e-06 6.63099e-05 -8.51144e-05 )  
( 0.000123433 6.28202e-05 -0.000146658 )  
( 4.38031e-05 4.01847e-05 -0.000125964 )  
( -8.60397e-05 -2.0095e-05 -1.09156e-05 )  
( 3.35677e-05 -2.00528e-05 -0.00014424 )  
( 0.000161509 6.68085e-05 6.49352e-06 )  
( 3.91796e-05 4.8268e-06 9.99192e-06 )  
( 1.32119e-06 -5.42205e-06 -0.000108499 )  
( -2.6626e-05 -0.000109349 0.000100211 )  
( -1.58288e-05 -8.40729e-05 -3.7137e-05 )  
( 8.4997e-05 -0.000108381 -1.10421e-05 )  
( 3.65063e-05 2.29134e-05 4.34118e-05 )  
( -1.56505e-05 -1.75446e-05 -5.49133e-05 )  
( 0.00012093 3.68815e-06 -6.7895e-05 )  
( 0.000118463 -0.000127434 8.81495e-05 )  
( -1.37594e-06 0.000122418 0.00013481 )  
( 7.01705e-05 -6.14194e-05 -0.000324351 )  
( 9.67695e-05 -0.000123869 5.38465e-05 )  
)
