/*--------------------------------*- C++ -*----------------------------------*\
| =========                 |                                                 |
| \\      /  F ield         | OpenFOAM: The Open Source CFD Toolbox           |
|  \\    /   O peration     | Version:  5.x                                   |
|   \\  /    A nd           | Web:      www.OpenFOAM.org                      |
|    \\/     M anipulation  |                                                 |
\*---------------------------------------------------------------------------*/
FoamFile
{
    version     2.0;
    format      ascii;
    class       surfaceScalarField;
    location    "100";
    object      phi;
}
// * * * * * * * * * * * * * * * * * * * * * * * * * * * * * * * * * * * * * //

dimensions      [0 3 -1 0 0 0 0];

internalField   nonuniform List<scalar> 
89
(
-45.9149
-48.406
-51.2751
-54.1828
-56.7359
-58.7777
-60.1689
-61.3406
-62.2441
-63.2505
-64.5665
-66.4491
-68.9428
-71.9198
-75.0597
-77.8745
-79.8349
-80.4433
-79.2316
-75.3929
-68.0242
-57.018
-42.8363
-27.9259
-14.0958
-4.97989
-2.08854
-3.78441
-9.24523
-19.2263
-34.0018
-49.8405
-63.9232
-74.8692
-82.295
-86.7083
-90.3685
-93.6407
-93.1087
-88.3074
-81.5646
-71.2456
-58.6712
-44.3633
-28.4582
-8.9651
16.9444
48.7791
80.5074
107.588
135.268
162.392
186.05
204.31
220.734
230.933
236.762
245.827
262.205
287.935
314.635
344.718
383.859
432.963
473.968
475.291
416.952
333.806
224.533
99.4326
-12.8842
-80.2512
-121.101
-145.789
-157.463
-158.736
-157.727
-148.578
-134.851
-114.629
-88.5901
-61.3595
-32.0843
-3.89529
22.9347
47.319
68.7295
87.5817
104.08
)
;

boundaryField
{
    inlet
    {
        type            calculated;
        value           uniform 118.665;
    }
    outlet
    {
        type            calculated;
        value           uniform 43.8588;
    }
    repeat_boundary
    {
        type            calculated;
        value           uniform 0;
    }
    procBoundary3to1
    {
        type            processor;
        value           nonuniform List<scalar> 
90
(
2.32295
2.63384
3.02131
3.24977
3.05827
2.62707
2.01442
2.05724
2.09955
2.39488
2.88141
3.64437
4.44089
5.07366
5.38166
5.22506
4.59648
3.69422
2.66647
1.40918
-0.435804
-2.53761
-4.64965
-5.18831
-5.1438
-4.6161
-2.96685
-2.24608
-2.34728
-1.95765
-0.241762
0.559823
0.275543
-1.09055
-2.60785
-3.09687
-2.62859
-2.54812
-4.55314
-5.17316
-3.72167
-2.80875
-0.0774749
3.17973
5.46438
5.97495
4.3634
0.930145
-1.61721
-3.62132
-5.72354
-5.47932
-4.3982
-2.51797
-4.20241
-1.38966
0.0880528
0.427832
-0.519458
-1.12786
1.36715
2.37522
-7.13734
-22.8012
-23.2708
-1.45162
40.9924
59.854
81.8799
90.881
77.5648
45.2962
34.2447
25.7629
19.5798
15.7169
14.7093
8.34438
1.0622
-6.27689
-12.6647
-17.1605
-20.1293
-20.4694
-20.438
-19.9988
-19.385
-19.1875
-18.257
-17.8712
)
;
    }
    procBoundary3to2
    {
        type            processor;
        value           nonuniform List<scalar> 
90
(
-0.266859
-0.142658
-0.152206
-0.342081
-0.505186
-0.585318
-0.623251
-0.885528
-1.19603
-1.38847
-1.56534
-1.76173
-1.94718
-2.09669
-2.24183
-2.41027
-2.63613
-3.0858
-3.87813
-5.24785
-6.93291
-8.46855
-9.53206
-9.72211
-8.68634
-4.49985
0.0754391
3.94195
7.80809
11.9388
15.0173
15.2789
13.8072
12.0366
10.0336
7.51012
6.28879
5.82016
4.02117
0.37187
-3.02112
-7.51034
-12.4969
-17.4876
-21.3694
-25.4681
-30.2728
-32.7647
-30.111
-23.4595
-21.9563
-21.6454
-19.2591
-15.7428
-12.221
-8.80984
-5.91694
-9.49258
-15.8582
-24.6021
-28.0678
-32.4583
-32.0033
-26.3023
-17.7347
0.128333
17.3467
23.2919
27.3939
34.2189
34.7518
22.0711
6.60566
-1.0749
-7.90637
-14.4437
-15.7182
-17.4937
-14.7895
-13.945
-13.3741
-10.0701
-9.14587
-7.71955
-6.39215
-4.38545
-2.02552
0.33532
1.75879
3.28668
)
;
    }
}


// ************************************************************************* //
