/*--------------------------------*- C++ -*----------------------------------*\
| =========                 |                                                 |
| \\      /  F ield         | OpenFOAM: The Open Source CFD Toolbox           |
|  \\    /   O peration     | Version:  5.x                                   |
|   \\  /    A nd           | Web:      www.OpenFOAM.org                      |
|    \\/     M anipulation  |                                                 |
\*---------------------------------------------------------------------------*/
FoamFile
{
    version     2.0;
    format      ascii;
    class       volVectorField;
    location    "900";
    object      stored_U;
}
// * * * * * * * * * * * * * * * * * * * * * * * * * * * * * * * * * * * * * //

dimensions      [0 1 -1 0 0 0 0];

internalField   nonuniform List<vector> 
90
(
(1.86701e-09 -5.65425e-09 -0.000999988)
(2.54487e-09 -1.00078e-08 -0.000999987)
(3.50069e-09 -1.54176e-08 -0.000999985)
(4.56308e-09 -2.15908e-08 -0.000999982)
(5.69775e-09 -2.8752e-08 -0.000999978)
(6.88267e-09 -3.72477e-08 -0.000999973)
(8.07546e-09 -4.75113e-08 -0.000999965)
(9.2005e-09 -6.00818e-08 -0.000999955)
(1.01374e-08 -7.56308e-08 -0.000999943)
(1.07064e-08 -9.50023e-08 -0.000999926)
(1.06488e-08 -1.19258e-07 -0.000999905)
(9.59974e-09 -1.4974e-07 -0.000999877)
(7.05187e-09 -1.88143e-07 -0.000999842)
(2.31269e-09 -2.36618e-07 -0.000999798)
(-5.55016e-09 -2.97889e-07 -0.00099974)
(-1.79529e-08 -3.755e-07 -0.000999666)
(-3.68263e-08 -4.73985e-07 -0.00099957)
(-6.48165e-08 -5.99167e-07 -0.000999446)
(-1.05549e-07 -7.58547e-07 -0.000999285)
(-1.63981e-07 -9.61799e-07 -0.000999075)
(-2.46877e-07 -1.22143e-06 -0.000998803)
(-3.63408e-07 -1.55361e-06 -0.000998447)
(-5.25904e-07 -1.97933e-06 -0.000997983)
(-7.51163e-07 -2.52575e-06 -0.000997377)
(-1.06168e-06 -3.22819e-06 -0.000996584)
(-1.48781e-06 -4.1325e-06 -0.000995545)
(-2.0704e-06 -5.29832e-06 -0.000994184)
(-2.86418e-06 -6.80324e-06 -0.000992401)
(-3.94239e-06 -8.74837e-06 -0.00099006)
(-5.40312e-06 -1.12658e-05 -0.000986981)
(-7.37779e-06 -1.45286e-05 -0.000982928)
(-1.00437e-05 -1.87674e-05 -0.000977694)
(-1.36497e-05 -2.43026e-05 -0.000971111)
(-1.85622e-05 -3.15816e-05 -0.000962052)
(-2.51654e-05 -4.09758e-05 -0.000945582)
(-3.19633e-05 -5.01893e-05 -0.000921059)
(-3.60104e-05 -5.5064e-05 -0.000916594)
(-3.33758e-05 -4.96057e-05 -0.00105006)
(-2.54507e-05 -3.40292e-05 -0.000362121)
(0.000103322 0.000137799 -0.00194679)
(-5.74486e-06 -8.26324e-06 -0.0016921)
(-3.69587e-05 -6.83004e-05 -0.00154091)
(-3.37633e-05 -5.81962e-05 -0.00241105)
(-6.61543e-05 -5.90205e-05 -0.00214473)
(-8.39572e-05 -7.69911e-05 -0.0024337)
(-5.13311e-05 -3.69758e-05 -0.00181218)
(-6.43256e-05 2.61345e-05 -0.00260187)
(-1.74386e-05 5.41987e-05 -0.00174618)
(1.50135e-05 8.6011e-05 -0.00234286)
(-5.24083e-05 -2.30393e-05 -0.00227988)
(-3.25871e-05 -3.80405e-05 -0.00165633)
(-1.27437e-05 -1.04506e-05 -0.00162185)
(2.36524e-05 6.16998e-05 -0.00180689)
(4.21189e-05 3.48494e-05 -0.00102177)
(5.91024e-05 3.98661e-05 -0.000867796)
(6.01122e-05 3.1481e-05 -0.000912271)
(4.90362e-05 2.37253e-05 -0.000940618)
(3.85033e-05 1.75355e-05 -0.000954963)
(3.01213e-05 1.29016e-05 -0.000964997)
(2.35912e-05 9.45141e-06 -0.000972868)
(1.85105e-05 6.89627e-06 -0.000979003)
(1.45509e-05 5.01025e-06 -0.000983735)
(1.14585e-05 3.62038e-06 -0.000987383)
(9.03851e-06 2.59928e-06 -0.000990199)
(7.14119e-06 1.85165e-06 -0.000992376)
(5.65103e-06 1.30648e-06 -0.000994061)
(4.47866e-06 9.10869e-07 -0.000995367)
(3.55482e-06 6.25476e-07 -0.000996381)
(2.82568e-06 4.21062e-07 -0.00099717)
(2.24934e-06 2.75913e-07 -0.000997783)
(1.79312e-06 1.73939e-07 -0.000998261)
(1.43148e-06 1.03262e-07 -0.000998634)
(1.14448e-06 5.52142e-08 -0.000998927)
(9.16527e-07 2.35354e-08 -0.000999156)
(7.35174e-07 3.27412e-09 -0.000999334)
(5.90615e-07 -9.22715e-09 -0.000999474)
(4.7522e-07 -1.64392e-08 -0.000999584)
(3.83012e-07 -2.00492e-08 -0.000999672)
(3.0925e-07 -2.13001e-08 -0.000999741)
(2.5018e-07 -2.10839e-08 -0.000999796)
(2.02836e-07 -2.00213e-08 -0.00099984)
(1.64876e-07 -1.85305e-08 -0.000999875)
(1.34453e-07 -1.68867e-08 -0.000999903)
(1.10109e-07 -1.52649e-08 -0.000999925)
(9.06918e-08 -1.37711e-08 -0.000999942)
(7.52886e-08 -1.24639e-08 -0.000999955)
(6.31415e-08 -1.13645e-08 -0.000999966)
(5.36012e-08 -1.04507e-08 -0.000999974)
(4.64911e-08 -9.6872e-09 -0.000999982)
(4.35589e-08 -9.33169e-09 -0.000999985)
)
;

boundaryField
{
    inlet
    {
        type            calculated;
        value           uniform (4.35589e-08 -9.33169e-09 -0.000999985);
    }
    outlet
    {
        type            calculated;
        value           uniform (1.86701e-09 -5.65425e-09 -0.000999988);
    }
    repeat_boundary
    {
        type            calculated;
        value           nonuniform List<vector> 
180
(
(1.86701e-09 0 -0.000999988)
(2.54487e-09 0 -0.000999987)
(3.50069e-09 0 -0.000999985)
(4.56308e-09 0 -0.000999982)
(5.69775e-09 0 -0.000999978)
(6.88267e-09 0 -0.000999973)
(8.07546e-09 0 -0.000999965)
(9.2005e-09 0 -0.000999955)
(1.01374e-08 0 -0.000999943)
(1.07064e-08 0 -0.000999926)
(1.06488e-08 0 -0.000999905)
(9.59974e-09 0 -0.000999877)
(7.05187e-09 0 -0.000999842)
(2.31269e-09 0 -0.000999798)
(-5.55016e-09 0 -0.00099974)
(-1.79529e-08 0 -0.000999666)
(-3.68263e-08 0 -0.00099957)
(-6.48165e-08 0 -0.000999446)
(-1.05549e-07 0 -0.000999285)
(-1.63981e-07 0 -0.000999075)
(-2.46877e-07 0 -0.000998803)
(-3.63408e-07 0 -0.000998447)
(-5.25904e-07 0 -0.000997983)
(-7.51163e-07 0 -0.000997377)
(-1.06168e-06 0 -0.000996584)
(-1.48781e-06 0 -0.000995545)
(-2.0704e-06 0 -0.000994184)
(-2.86418e-06 0 -0.000992401)
(-3.94239e-06 0 -0.00099006)
(-5.40312e-06 0 -0.000986981)
(-7.37779e-06 0 -0.000982928)
(-1.00437e-05 0 -0.000977694)
(-1.36497e-05 0 -0.000971111)
(-1.85622e-05 0 -0.000962052)
(-2.51654e-05 0 -0.000945582)
(-3.19633e-05 0 -0.000921059)
(-3.60104e-05 0 -0.000916594)
(-3.33758e-05 0 -0.00105006)
(-2.54507e-05 0 -0.000362121)
(0.000103322 0 -0.00194679)
(-5.74486e-06 0 -0.0016921)
(-3.69587e-05 0 -0.00154091)
(-3.37633e-05 0 -0.00241105)
(-6.61543e-05 0 -0.00214473)
(-8.39572e-05 0 -0.0024337)
(-5.13311e-05 0 -0.00181218)
(-6.43256e-05 0 -0.00260187)
(-1.74386e-05 0 -0.00174618)
(1.50135e-05 0 -0.00234286)
(-5.24083e-05 0 -0.00227988)
(-3.25871e-05 0 -0.00165633)
(-1.27437e-05 0 -0.00162185)
(2.36524e-05 0 -0.00180689)
(4.21189e-05 0 -0.00102177)
(5.91024e-05 0 -0.000867796)
(6.01122e-05 0 -0.000912271)
(4.90362e-05 0 -0.000940618)
(3.85033e-05 0 -0.000954963)
(3.01213e-05 0 -0.000964997)
(2.35912e-05 0 -0.000972868)
(1.85105e-05 0 -0.000979003)
(1.45509e-05 0 -0.000983735)
(1.14585e-05 0 -0.000987383)
(9.03851e-06 0 -0.000990199)
(7.14119e-06 0 -0.000992376)
(5.65103e-06 0 -0.000994061)
(4.47866e-06 0 -0.000995367)
(3.55482e-06 0 -0.000996381)
(2.82568e-06 0 -0.00099717)
(2.24934e-06 0 -0.000997783)
(1.79312e-06 0 -0.000998261)
(1.43148e-06 0 -0.000998634)
(1.14448e-06 0 -0.000998927)
(9.16527e-07 0 -0.000999156)
(7.35174e-07 0 -0.000999334)
(5.90615e-07 0 -0.000999474)
(4.7522e-07 0 -0.000999584)
(3.83012e-07 0 -0.000999672)
(3.0925e-07 0 -0.000999741)
(2.5018e-07 0 -0.000999796)
(2.02836e-07 0 -0.00099984)
(1.64876e-07 0 -0.000999875)
(1.34453e-07 0 -0.000999903)
(1.10109e-07 0 -0.000999925)
(9.06918e-08 0 -0.000999942)
(7.52886e-08 0 -0.000999955)
(6.31415e-08 0 -0.000999966)
(5.36012e-08 0 -0.000999974)
(4.64911e-08 0 -0.000999982)
(4.35589e-08 0 -0.000999985)
(0 -5.65425e-09 -0.000999988)
(0 -1.00078e-08 -0.000999987)
(0 -1.54176e-08 -0.000999985)
(0 -2.15908e-08 -0.000999982)
(0 -2.8752e-08 -0.000999978)
(0 -3.72477e-08 -0.000999973)
(0 -4.75113e-08 -0.000999965)
(0 -6.00818e-08 -0.000999955)
(0 -7.56308e-08 -0.000999943)
(0 -9.50023e-08 -0.000999926)
(0 -1.19258e-07 -0.000999905)
(0 -1.4974e-07 -0.000999877)
(0 -1.88143e-07 -0.000999842)
(0 -2.36618e-07 -0.000999798)
(0 -2.97889e-07 -0.00099974)
(0 -3.755e-07 -0.000999666)
(0 -4.73985e-07 -0.00099957)
(0 -5.99167e-07 -0.000999446)
(0 -7.58547e-07 -0.000999285)
(0 -9.61799e-07 -0.000999075)
(0 -1.22143e-06 -0.000998803)
(0 -1.55361e-06 -0.000998447)
(0 -1.97933e-06 -0.000997983)
(0 -2.52575e-06 -0.000997377)
(0 -3.22819e-06 -0.000996584)
(0 -4.1325e-06 -0.000995545)
(0 -5.29832e-06 -0.000994184)
(0 -6.80324e-06 -0.000992401)
(0 -8.74837e-06 -0.00099006)
(0 -1.12658e-05 -0.000986981)
(0 -1.45286e-05 -0.000982928)
(0 -1.87674e-05 -0.000977694)
(0 -2.43026e-05 -0.000971111)
(0 -3.15816e-05 -0.000962052)
(0 -4.09758e-05 -0.000945582)
(0 -5.01893e-05 -0.000921059)
(0 -5.5064e-05 -0.000916594)
(0 -4.96057e-05 -0.00105006)
(0 -3.40292e-05 -0.000362121)
(0 0.000137799 -0.00194679)
(0 -8.26324e-06 -0.0016921)
(0 -6.83004e-05 -0.00154091)
(0 -5.81962e-05 -0.00241105)
(0 -5.90205e-05 -0.00214473)
(0 -7.69911e-05 -0.0024337)
(0 -3.69758e-05 -0.00181218)
(0 2.61345e-05 -0.00260187)
(0 5.41987e-05 -0.00174618)
(0 8.6011e-05 -0.00234286)
(0 -2.30393e-05 -0.00227988)
(0 -3.80405e-05 -0.00165633)
(0 -1.04506e-05 -0.00162185)
(0 6.16998e-05 -0.00180689)
(0 3.48494e-05 -0.00102177)
(0 3.98661e-05 -0.000867796)
(0 3.1481e-05 -0.000912271)
(0 2.37253e-05 -0.000940618)
(0 1.75355e-05 -0.000954963)
(0 1.29016e-05 -0.000964997)
(0 9.45141e-06 -0.000972868)
(0 6.89627e-06 -0.000979003)
(0 5.01025e-06 -0.000983735)
(0 3.62038e-06 -0.000987383)
(0 2.59928e-06 -0.000990199)
(0 1.85165e-06 -0.000992376)
(0 1.30648e-06 -0.000994061)
(0 9.10869e-07 -0.000995367)
(0 6.25476e-07 -0.000996381)
(0 4.21062e-07 -0.00099717)
(0 2.75913e-07 -0.000997783)
(0 1.73939e-07 -0.000998261)
(0 1.03262e-07 -0.000998634)
(0 5.52142e-08 -0.000998927)
(0 2.35354e-08 -0.000999156)
(0 3.27412e-09 -0.000999334)
(0 -9.22715e-09 -0.000999474)
(0 -1.64392e-08 -0.000999584)
(0 -2.00492e-08 -0.000999672)
(0 -2.13001e-08 -0.000999741)
(0 -2.10839e-08 -0.000999796)
(0 -2.00213e-08 -0.00099984)
(0 -1.85305e-08 -0.000999875)
(0 -1.68867e-08 -0.000999903)
(0 -1.52649e-08 -0.000999925)
(0 -1.37711e-08 -0.000999942)
(0 -1.24639e-08 -0.000999955)
(0 -1.13645e-08 -0.000999966)
(0 -1.04507e-08 -0.000999974)
(0 -9.6872e-09 -0.000999982)
(0 -9.33169e-09 -0.000999985)
)
;
    }
    procBoundary0to1
    {
        type            processor;
        value           nonuniform List<vector> 
90
(
(1.86699e-09 -3.75559e-09 -0.000999979)
(2.54483e-09 -6.22359e-09 -0.000999977)
(3.50062e-09 -9.3314e-09 -0.000999974)
(4.56297e-09 -1.28127e-08 -0.000999971)
(5.69767e-09 -1.67204e-08 -0.000999966)
(6.88269e-09 -2.11505e-08 -0.00099996)
(8.07546e-09 -2.61996e-08 -0.000999953)
(9.20041e-09 -3.19575e-08 -0.000999944)
(1.01372e-08 -3.85018e-08 -0.000999934)
(1.07061e-08 -4.5891e-08 -0.000999922)
(1.06483e-08 -5.41541e-08 -0.000999909)
(9.59889e-09 -6.32736e-08 -0.000999894)
(7.05041e-09 -7.31613e-08 -0.000999878)
(2.31011e-09 -8.36258e-08 -0.00099986)
(-5.55474e-09 -9.43285e-08 -0.000999842)
(-1.79612e-08 -1.04634e-07 -0.000999823)
(-3.68413e-08 -1.13556e-07 -0.000999807)
(-6.48437e-08 -1.19595e-07 -0.000999794)
(-1.05598e-07 -1.20519e-07 -0.000999789)
(-1.64072e-07 -1.13063e-07 -0.000999795)
(-2.47045e-07 -9.25109e-08 -0.00099982)
(-3.63714e-07 -5.22022e-08 -0.000999873)
(-5.26461e-07 1.7059e-08 -0.000999968)
(-7.52165e-07 1.28402e-07 -0.00100012)
(-1.06347e-06 2.99734e-07 -0.00100036)
(-1.49102e-06 5.56024e-07 -0.00100073)
(-2.07614e-06 9.3175e-07 -0.00100127)
(-2.87445e-06 1.47415e-06 -0.00100205)
(-3.96075e-06 2.24778e-06 -0.00100317)
(-5.43575e-06 3.34081e-06 -0.00100474)
(-7.43512e-06 4.87377e-06 -0.00100693)
(-1.01434e-05 7.01335e-06 -0.00101008)
(-1.38291e-05 1.00033e-05 -0.00101496)
(-1.89249e-05 1.42294e-05 -0.00102179)
(-2.59235e-05 2.01491e-05 -0.00102503)
(-3.19064e-05 2.55085e-05 -0.00101755)
(-3.67244e-05 3.13679e-05 -0.00105102)
(-3.28168e-05 3.13579e-05 -0.00128603)
(-2.41213e-05 2.27981e-05 -0.00036874)
(8.99516e-05 -5.15027e-05 -0.00259664)
(-3.63545e-06 9.44486e-08 -0.00119158)
(-6.68646e-05 1.84037e-05 -0.00305144)
(-2.51558e-05 1.58648e-05 -0.00180937)
(-8.88836e-05 2.33751e-05 -0.00332501)
(-7.41753e-05 -4.94788e-05 -0.00215444)
(-8.79852e-05 -1.81559e-05 -0.00331448)
(-5.58372e-05 3.3878e-05 -0.00195651)
(-2.51631e-05 0.00012914 -0.00332854)
(1.22019e-05 2.16222e-05 -0.00232752)
(-5.54544e-05 -4.23948e-05 -0.00275321)
(-4.27279e-05 -5.63268e-05 -0.0026486)
(-1.43198e-05 -2.62166e-05 -0.00168038)
(-3.56168e-06 1.14832e-05 -0.0024696)
(7.28684e-05 -3.73467e-05 -0.00107494)
(7.66693e-05 -4.88122e-05 -0.00106775)
(6.26599e-05 -4.19942e-05 -0.00108207)
(4.82669e-05 -3.24616e-05 -0.00106803)
(3.78031e-05 -2.51104e-05 -0.00105265)
(2.96859e-05 -1.94201e-05 -0.001041)
(2.33312e-05 -1.50134e-05 -0.00103218)
(1.83557e-05 -1.16101e-05 -0.00102532)
(1.44584e-05 -8.98379e-06 -0.00101995)
(1.14031e-05 -6.95561e-06 -0.00101574)
(9.00524e-06 -5.38917e-06 -0.00101243)
(7.12114e-06 -4.17888e-06 -0.00100984)
(5.6389e-06 -3.2433e-06 -0.00100779)
(4.4713e-06 -2.51966e-06 -0.00100618)
(3.55033e-06 -1.95962e-06 -0.00100491)
(2.82294e-06 -1.52591e-06 -0.00100391)
(2.24766e-06 -1.18979e-06 -0.00100311)
(1.79209e-06 -9.29085e-07 -0.00100248)
(1.43084e-06 -7.26679e-07 -0.00100198)
(1.14409e-06 -5.69353e-07 -0.00100159)
(9.16281e-07 -4.46911e-07 -0.00100127)
(7.35021e-07 -3.51493e-07 -0.00100102)
(5.9052e-07 -2.77034e-07 -0.00100082)
(4.7516e-07 -2.18846e-07 -0.00100066)
(3.82974e-07 -1.73298e-07 -0.00100053)
(3.09226e-07 -1.37581e-07 -0.00100043)
(2.50165e-07 -1.09524e-07 -0.00100034)
(2.02826e-07 -8.74478e-08 -0.00100028)
(1.6487e-07 -7.00543e-08 -0.00100023)
(1.3445e-07 -5.6343e-08 -0.00100018)
(1.10106e-07 -4.55433e-08 -0.00100015)
(9.06906e-08 -3.70629e-08 -0.00100012)
(7.52884e-08 -3.04458e-08 -0.0010001)
(6.31447e-08 -2.53266e-08 -0.00100008)
(5.36222e-08 -2.13905e-08 -0.00100006)
(4.64678e-08 -1.84442e-08 -0.00100004)
(4.35559e-08 -1.71858e-08 -0.00100003)
)
;
    }
    procBoundary0to2
    {
        type            processor;
        value           nonuniform List<vector> 
90
(
(3.76587e-09 -5.65447e-09 -0.00100004)
(6.32895e-09 -1.00078e-08 -0.00100004)
(9.58636e-09 -1.54172e-08 -0.00100005)
(1.33407e-08 -2.15905e-08 -0.00100005)
(1.77292e-08 -2.8752e-08 -0.00100006)
(2.29804e-08 -3.72483e-08 -0.00100007)
(2.93881e-08 -4.75125e-08 -0.00100008)
(3.73255e-08 -6.00829e-08 -0.0010001)
(4.72672e-08 -7.56323e-08 -0.00100012)
(5.98188e-08 -9.50045e-08 -0.00100015)
(7.57549e-08 -1.19262e-07 -0.00100019)
(9.60688e-08 -1.49745e-07 -0.00100023)
(1.22038e-07 -1.88152e-07 -0.00100029)
(1.55312e-07 -2.36632e-07 -0.00100036)
(1.98023e-07 -2.97912e-07 -0.00100046)
(2.52933e-07 -3.75538e-07 -0.00100057)
(3.23635e-07 -4.74047e-07 -0.00100072)
(4.14809e-07 -5.99269e-07 -0.00100091)
(5.32566e-07 -7.58715e-07 -0.00100116)
(6.84897e-07 -9.62079e-07 -0.00100146)
(8.82272e-07 -1.22189e-06 -0.00100186)
(1.13838e-06 -1.5544e-06 -0.00100236)
(1.4711e-06 -1.98064e-06 -0.001003)
(1.904e-06 -2.52797e-06 -0.00100383)
(2.46791e-06 -3.23194e-06 -0.00100489)
(3.20344e-06 -4.13888e-06 -0.00100625)
(4.16413e-06 -5.3092e-06 -0.001008)
(5.42052e-06 -6.82185e-06 -0.00101027)
(7.06568e-06 -8.78021e-06 -0.00101319)
(9.22263e-06 -1.13199e-05 -0.00101696)
(1.20541e-05 -1.46189e-05 -0.00102183)
(1.57762e-05 -1.89108e-05 -0.00102824)
(2.06886e-05 -2.45182e-05 -0.00103714)
(2.72521e-05 -3.19465e-05 -0.00104887)
(3.60569e-05 -4.1831e-05 -0.00105789)
(4.37678e-05 -5.01975e-05 -0.00105453)
(4.98799e-05 -5.52016e-05 -0.00109997)
(4.5704e-05 -4.70619e-05 -0.00135527)
(2.85663e-05 -2.94673e-05 -0.000377116)
(-8.13861e-05 0.000119606 -0.00276908)
(1.95837e-06 -6.60152e-06 -0.00130801)
(6.41262e-05 -0.000110223 -0.00293964)
(5.3093e-05 -5.92015e-05 -0.00231767)
(8.09823e-06 -7.50211e-05 -0.00316393)
(-5.70169e-05 -7.34895e-05 -0.00216177)
(-7.37022e-05 -4.37441e-05 -0.00320976)
(-4.62358e-05 3.58202e-05 -0.00224403)
(-6.39526e-05 0.000155354 -0.00334897)
(-3.21298e-05 3.15028e-05 -0.00180175)
(-8.27939e-05 -1.80603e-05 -0.00331907)
(-5.83458e-05 -3.32633e-05 -0.00204837)
(-6.84966e-05 -2.72246e-05 -0.00208096)
(-2.20316e-05 3.66585e-05 -0.00202821)
(4.22972e-05 8.11712e-05 -0.00149917)
(-1.20517e-05 5.68926e-05 -0.000903164)
(-1.29253e-05 3.60659e-05 -0.00102588)
(-7.94183e-06 2.38966e-05 -0.00102032)
(-4.62094e-06 1.73647e-05 -0.00101152)
(-2.48203e-06 1.27852e-05 -0.00100657)
(-1.04441e-06 9.38755e-06 -0.00100374)
(-1.00162e-07 6.86244e-06 -0.00100187)
(4.93062e-07 4.9924e-06 -0.00100063)
(8.43488e-07 3.61086e-06 -0.000999828)
(1.02622e-06 2.59418e-06 -0.000999335)
(1.09609e-06 1.84893e-06 -0.000999058)
(1.09235e-06 1.30503e-06 -0.000998926)
(1.0427e-06 9.10094e-07 -0.000998891)
(9.66407e-07 6.25066e-07 -0.000998917)
(8.76688e-07 4.20845e-07 -0.00099898)
(7.82407e-07 2.75799e-07 -0.000999064)
(6.89344e-07 1.73879e-07 -0.000999157)
(6.01083e-07 1.03231e-07 -0.000999251)
(5.19636e-07 5.5198e-08 -0.000999342)
(4.45911e-07 2.3527e-08 -0.000999427)
(3.80304e-07 3.26975e-09 -0.000999506)
(3.22746e-07 -9.22945e-09 -0.000999578)
(2.72775e-07 -1.64404e-08 -0.000999642)
(2.29741e-07 -2.00498e-08 -0.000999698)
(1.92955e-07 -2.13005e-08 -0.000999748)
(1.61731e-07 -2.10842e-08 -0.000999791)
(1.35404e-07 -2.00215e-08 -0.000999828)
(1.13349e-07 -1.85307e-08 -0.000999859)
(9.49951e-08 -1.68868e-08 -0.000999886)
(7.98291e-08 -1.52649e-08 -0.000999909)
(6.73995e-08 -1.37709e-08 -0.000999928)
(5.73071e-08 -1.24638e-08 -0.000999943)
(4.91834e-08 -1.13648e-08 -0.000999956)
(4.26851e-08 -1.04533e-08 -0.000999966)
(3.7708e-08 -9.68467e-09 -0.000999977)
(3.57014e-08 -9.33159e-09 -0.000999983)
)
;
    }
}


// ************************************************************************* //
