/*--------------------------------*- C++ -*----------------------------------*\
| =========                 |                                                 |
| \\      /  F ield         | OpenFOAM: The Open Source CFD Toolbox           |
|  \\    /   O peration     | Version:  5.x                                   |
|   \\  /    A nd           | Web:      www.OpenFOAM.org                      |
|    \\/     M anipulation  |                                                 |
\*---------------------------------------------------------------------------*/
FoamFile
{
    version     2.0;
    format      ascii;
    class       volVectorField;
    location    "6000";
    object      stored_U;
}
// * * * * * * * * * * * * * * * * * * * * * * * * * * * * * * * * * * * * * //

dimensions      [0 1 -1 0 0 0 0];

internalField   nonuniform List<vector> 
180
(
(3.19464e-11 1.33276e-08 -0.00100008)
(4.64214e-11 1.73103e-08 -0.00100008)
(1.07942e-10 2.39459e-08 -0.00100008)
(1.93932e-10 3.21174e-08 -0.00100008)
(2.90945e-10 4.11731e-08 -0.00100009)
(4.00083e-10 5.08459e-08 -0.00100009)
(5.28568e-10 6.10848e-08 -0.0010001)
(6.85639e-10 7.19364e-08 -0.0010001)
(8.80809e-10 8.34873e-08 -0.00100011)
(1.12443e-09 9.58415e-08 -0.00100012)
(1.42833e-09 1.09113e-07 -0.00100013)
(1.80621e-09 1.23425e-07 -0.00100014)
(2.274e-09 1.38908e-07 -0.00100016)
(2.84974e-09 1.55706e-07 -0.00100017)
(3.55363e-09 1.73972e-07 -0.00100019)
(4.40854e-09 1.93874e-07 -0.00100021)
(5.44076e-09 2.15593e-07 -0.00100023)
(6.68061e-09 2.39326e-07 -0.00100025)
(8.1629e-09 2.65291e-07 -0.00100028)
(9.92766e-09 2.93721e-07 -0.0010003)
(1.20208e-08 3.24873e-07 -0.00100033)
(1.44952e-08 3.59028e-07 -0.00100037)
(1.74116e-08 3.96493e-07 -0.0010004)
(2.084e-08 4.37602e-07 -0.00100045)
(2.48616e-08 4.8272e-07 -0.00100049)
(2.95699e-08 5.32247e-07 -0.00100054)
(3.50738e-08 5.86617e-07 -0.0010006)
(4.14993e-08 6.46305e-07 -0.00100066)
(4.89932e-08 7.11826e-07 -0.00100072)
(5.77261e-08 7.83743e-07 -0.0010008)
(6.78967e-08 8.62665e-07 -0.00100087)
(7.97361e-08 9.49256e-07 -0.00100096)
(9.35137e-08 1.04423e-06 -0.00100106)
(1.09543e-07 1.14838e-06 -0.00100116)
(1.28188e-07 1.26253e-06 -0.00100128)
(1.49873e-07 1.3876e-06 -0.0010014)
(1.75091e-07 1.52457e-06 -0.00100154)
(2.04413e-07 1.6745e-06 -0.00100168)
(2.38506e-07 1.83853e-06 -0.00100184)
(2.78137e-07 2.01789e-06 -0.00100202)
(3.24201e-07 2.2139e-06 -0.00100221)
(3.77732e-07 2.42796e-06 -0.00100241)
(4.39926e-07 2.66159e-06 -0.00100264)
(5.12169e-07 2.91639e-06 -0.00100288)
(5.96063e-07 3.19408e-06 -0.00100314)
(6.93458e-07 3.49647e-06 -0.00100342)
(8.06495e-07 3.82549e-06 -0.00100373)
(9.37645e-07 4.18317e-06 -0.00100406)
(1.08976e-06 4.57163e-06 -0.00100441)
(1.26615e-06 4.99311e-06 -0.00100479)
(1.47061e-06 5.44991e-06 -0.0010052)
(1.70754e-06 5.9444e-06 -0.00100564)
(1.98204e-06 6.47902e-06 -0.0010061)
(2.29997e-06 7.05623e-06 -0.0010066)
(2.66813e-06 7.67846e-06 -0.00100713)
(3.09435e-06 8.3481e-06 -0.00100768)
(3.58772e-06 9.06742e-06 -0.00100826)
(4.15871e-06 9.83852e-06 -0.00100887)
(4.81948e-06 1.06632e-05 -0.00100951)
(5.58404e-06 1.15429e-05 -0.00101016)
(6.46864e-06 1.24786e-05 -0.00101083)
(7.49208e-06 1.34703e-05 -0.00101151)
(8.67613e-06 1.45176e-05 -0.00101219)
(1.0046e-05 1.56184e-05 -0.00101285)
(1.16308e-05 1.67695e-05 -0.00101348)
(1.34645e-05 1.79659e-05 -0.00101407)
(1.55862e-05 1.92e-05 -0.00101458)
(1.80415e-05 2.04615e-05 -0.00101499)
(2.08832e-05 2.17364e-05 -0.00101525)
(2.41724e-05 2.30066e-05 -0.00101533)
(2.79792e-05 2.42486e-05 -0.00101518)
(3.23826e-05 2.54306e-05 -0.0010147)
(3.74641e-05 2.65069e-05 -0.00101376)
(4.32813e-05 2.74019e-05 -0.00101218)
(4.97833e-05 2.79701e-05 -0.00101024)
(5.66081e-05 2.7917e-05 -0.00100962)
(6.25739e-05 2.67409e-05 -0.00101068)
(6.5673e-05 2.38194e-05 -0.000995605)
(6.19483e-05 1.90044e-05 -0.000924724)
(4.71954e-05 1.33213e-05 -0.000784716)
(1.18042e-05 -5.2948e-06 -0.00326412)
(1.29657e-05 2.85087e-06 4.57352e-05)
(-0.000215464 0.000323487 -0.0040074)
(-9.74907e-05 0.000126513 -0.00265339)
(-6.26629e-05 -3.1137e-05 -0.00108705)
(-0.000283787 5.36339e-05 -0.00515323)
(-8.85867e-05 -2.74869e-06 -0.000479777)
(-0.000901914 -0.000402598 -0.00521227)
(-2.97226e-05 1.30093e-05 -3.3061e-05)
(0.000584017 -0.000805347 -0.0045635)
(1.78732e-06 -2.56475e-05 -0.000204827)
(0.000414303 -0.000439261 -0.00408374)
(0.000124408 -0.000239313 -0.00151952)
(0.00028416 -0.000639074 -0.00474436)
(1.90487e-05 -3.81547e-05 -0.000572399)
(7.24796e-05 -0.000325398 -0.00296357)
(0.000328353 -0.000562362 -0.00227082)
(2.48303e-05 -2.86098e-06 -0.000241128)
(1.18008e-05 -0.00012569 -0.00409716)
(-2.5806e-05 1.98568e-05 -0.000647391)
(-0.000177308 0.000134956 -0.00246707)
(-8.4962e-05 0.000112492 -0.00125434)
(-0.000139088 -6.00124e-06 -0.00125932)
(-8.23759e-05 1.26856e-05 -0.00103933)
(-3.4979e-05 5.82223e-05 -0.000939175)
(-5.79502e-05 0.000100767 -0.000873885)
(-6.63727e-05 0.000118102 -0.000844422)
(-6.33186e-05 0.000117874 -0.000857003)
(-5.62019e-05 0.000109252 -0.000878084)
(-4.8549e-05 9.78867e-05 -0.000895306)
(-4.14588e-05 8.64616e-05 -0.000909185)
(-3.52021e-05 7.59676e-05 -0.000921132)
(-2.97919e-05 6.66387e-05 -0.000931598)
(-2.51547e-05 5.84374e-05 -0.000940717)
(-2.11937e-05 5.12514e-05 -0.000948627)
(-1.78156e-05 4.49601e-05 -0.000955485)
(-1.49379e-05 3.94521e-05 -0.000961432)
(-1.24894e-05 3.46289e-05 -0.00096659)
(-1.0409e-05 3.04045e-05 -0.000971063)
(-8.64368e-06 2.67034e-05 -0.000974941)
(-7.14824e-06 2.34601e-05 -0.000978304)
(-5.88359e-06 2.06172e-05 -0.000981219)
(-4.81618e-06 1.81246e-05 -0.000983746)
(-3.91719e-06 1.59385e-05 -0.000985936)
(-3.16184e-06 1.40208e-05 -0.000987835)
(-2.52886e-06 1.23381e-05 -0.000989479)
(-2.00005e-06 1.08611e-05 -0.000990905)
(-1.55982e-06 9.56442e-06 -0.00099214)
(-1.19488e-06 8.42576e-06 -0.000993211)
(-8.93741e-07 7.42558e-06 -0.000994137)
(-6.46411e-07 6.54672e-06 -0.000994938)
(-4.44371e-07 5.77417e-06 -0.000995629)
(-2.80366e-07 5.09481e-06 -0.000996226)
(-1.48275e-07 4.49717e-06 -0.000996745)
(-4.3254e-08 3.97141e-06 -0.000997195)
(3.91292e-08 3.50875e-06 -0.000997582)
(1.02888e-07 3.10136e-06 -0.000997915)
(1.514e-07 2.7424e-06 -0.000998201)
(1.87407e-07 2.42592e-06 -0.000998447)
(2.13216e-07 2.14675e-06 -0.000998659)
(2.30808e-07 1.90038e-06 -0.000998842)
(2.41722e-07 1.68291e-06 -0.000999002)
(2.47204e-07 1.49092e-06 -0.000999141)
(2.48313e-07 1.32137e-06 -0.000999261)
(2.4596e-07 1.17159e-06 -0.000999364)
(2.40918e-07 1.03924e-06 -0.000999454)
(2.33829e-07 9.22251e-07 -0.000999532)
(2.25227e-07 8.18804e-07 -0.000999599)
(2.15549e-07 7.27302e-07 -0.000999657)
(2.05155e-07 6.4634e-07 -0.000999706)
(1.94336e-07 5.74679e-07 -0.000999749)
(1.83327e-07 5.11231e-07 -0.000999786)
(1.72314e-07 4.55035e-07 -0.000999818)
(1.61445e-07 4.05245e-07 -0.000999845)
(1.50835e-07 3.61116e-07 -0.000999868)
(1.40571e-07 3.21989e-07 -0.000999888)
(1.30719e-07 2.87284e-07 -0.000999905)
(1.21327e-07 2.56489e-07 -0.000999919)
(1.12427e-07 2.29152e-07 -0.000999931)
(1.04039e-07 2.04876e-07 -0.00099994)
(9.61732e-08 1.83308e-07 -0.000999949)
(8.88321e-08 1.6414e-07 -0.000999956)
(8.20112e-08 1.47098e-07 -0.000999961)
(7.5701e-08 1.31942e-07 -0.000999966)
(6.98877e-08 1.18462e-07 -0.00099997)
(6.45545e-08 1.06473e-07 -0.000999973)
(5.96823e-08 9.58128e-08 -0.000999975)
(5.525e-08 8.63388e-08 -0.000999978)
(5.12356e-08 7.79278e-08 -0.00099998)
(4.76166e-08 7.0472e-08 -0.000999981)
(4.43702e-08 6.38775e-08 -0.000999983)
(4.14741e-08 5.80632e-08 -0.000999985)
(3.89066e-08 5.29589e-08 -0.000999986)
(3.66473e-08 4.85043e-08 -0.000999988)
(3.46766e-08 4.46474e-08 -0.000999989)
(3.29774e-08 4.13432e-08 -0.000999991)
(3.15369e-08 3.85533e-08 -0.000999992)
(3.03489e-08 3.62665e-08 -0.000999994)
(2.94521e-08 3.45329e-08 -0.000999995)
(2.89851e-08 3.35349e-08 -0.000999997)
)
;

boundaryField
{
    inlet
    {
        type            calculated;
        value           uniform (2.89851e-08 3.35349e-08 -0.000999997);
    }
    outlet
    {
        type            calculated;
        value           uniform (3.19464e-11 1.33276e-08 -0.00100008);
    }
    repeat_boundary
    {
        type            calculated;
        value           nonuniform List<vector> 
360
(
(3.19464e-11 0 -0.00100008)
(4.64214e-11 0 -0.00100008)
(1.07942e-10 0 -0.00100008)
(1.93932e-10 0 -0.00100008)
(2.90945e-10 0 -0.00100009)
(4.00083e-10 0 -0.00100009)
(5.28568e-10 0 -0.0010001)
(6.85639e-10 0 -0.0010001)
(8.80809e-10 0 -0.00100011)
(1.12443e-09 0 -0.00100012)
(1.42833e-09 0 -0.00100013)
(1.80621e-09 0 -0.00100014)
(2.274e-09 0 -0.00100016)
(2.84974e-09 0 -0.00100017)
(3.55363e-09 0 -0.00100019)
(4.40854e-09 0 -0.00100021)
(5.44076e-09 0 -0.00100023)
(6.68061e-09 0 -0.00100025)
(8.1629e-09 0 -0.00100028)
(9.92766e-09 0 -0.0010003)
(1.20208e-08 0 -0.00100033)
(1.44952e-08 0 -0.00100037)
(1.74116e-08 0 -0.0010004)
(2.084e-08 0 -0.00100045)
(2.48616e-08 0 -0.00100049)
(2.95699e-08 0 -0.00100054)
(3.50738e-08 0 -0.0010006)
(4.14993e-08 0 -0.00100066)
(4.89932e-08 0 -0.00100072)
(5.77261e-08 0 -0.0010008)
(6.78967e-08 0 -0.00100087)
(7.97361e-08 0 -0.00100096)
(9.35137e-08 0 -0.00100106)
(1.09543e-07 0 -0.00100116)
(1.28188e-07 0 -0.00100128)
(1.49873e-07 0 -0.0010014)
(1.75091e-07 0 -0.00100154)
(2.04413e-07 0 -0.00100168)
(2.38506e-07 0 -0.00100184)
(2.78137e-07 0 -0.00100202)
(3.24201e-07 0 -0.00100221)
(3.77732e-07 0 -0.00100241)
(4.39926e-07 0 -0.00100264)
(5.12169e-07 0 -0.00100288)
(5.96063e-07 0 -0.00100314)
(6.93458e-07 0 -0.00100342)
(8.06495e-07 0 -0.00100373)
(9.37645e-07 0 -0.00100406)
(1.08976e-06 0 -0.00100441)
(1.26615e-06 0 -0.00100479)
(1.47061e-06 0 -0.0010052)
(1.70754e-06 0 -0.00100564)
(1.98204e-06 0 -0.0010061)
(2.29997e-06 0 -0.0010066)
(2.66813e-06 0 -0.00100713)
(3.09435e-06 0 -0.00100768)
(3.58772e-06 0 -0.00100826)
(4.15871e-06 0 -0.00100887)
(4.81948e-06 0 -0.00100951)
(5.58404e-06 0 -0.00101016)
(6.46864e-06 0 -0.00101083)
(7.49208e-06 0 -0.00101151)
(8.67613e-06 0 -0.00101219)
(1.0046e-05 0 -0.00101285)
(1.16308e-05 0 -0.00101348)
(1.34645e-05 0 -0.00101407)
(1.55862e-05 0 -0.00101458)
(1.80415e-05 0 -0.00101499)
(2.08832e-05 0 -0.00101525)
(2.41724e-05 0 -0.00101533)
(2.79792e-05 0 -0.00101518)
(3.23826e-05 0 -0.0010147)
(3.74641e-05 0 -0.00101376)
(4.32813e-05 0 -0.00101218)
(4.97833e-05 0 -0.00101024)
(5.66081e-05 0 -0.00100962)
(6.25739e-05 0 -0.00101068)
(6.5673e-05 0 -0.000995605)
(6.19483e-05 0 -0.000924724)
(4.71954e-05 0 -0.000784716)
(1.18042e-05 0 -0.00326412)
(1.29657e-05 0 4.57352e-05)
(-0.000215464 0 -0.0040074)
(-9.74907e-05 0 -0.00265339)
(-6.26629e-05 0 -0.00108705)
(-0.000283787 0 -0.00515323)
(-8.85867e-05 0 -0.000479777)
(-0.000901914 0 -0.00521227)
(-2.97226e-05 0 -3.3061e-05)
(0.000584017 0 -0.0045635)
(1.78732e-06 0 -0.000204827)
(0.000414303 0 -0.00408374)
(0.000124408 0 -0.00151952)
(0.00028416 0 -0.00474436)
(1.90487e-05 0 -0.000572399)
(7.24796e-05 0 -0.00296357)
(0.000328353 0 -0.00227082)
(2.48303e-05 0 -0.000241128)
(1.18008e-05 0 -0.00409716)
(-2.5806e-05 0 -0.000647391)
(-0.000177308 0 -0.00246707)
(-8.4962e-05 0 -0.00125434)
(-0.000139088 0 -0.00125932)
(-8.23759e-05 0 -0.00103933)
(-3.4979e-05 0 -0.000939175)
(-5.79502e-05 0 -0.000873885)
(-6.63727e-05 0 -0.000844422)
(-6.33186e-05 0 -0.000857003)
(-5.62019e-05 0 -0.000878084)
(-4.8549e-05 0 -0.000895306)
(-4.14588e-05 0 -0.000909185)
(-3.52021e-05 0 -0.000921132)
(-2.97919e-05 0 -0.000931598)
(-2.51547e-05 0 -0.000940717)
(-2.11937e-05 0 -0.000948627)
(-1.78156e-05 0 -0.000955485)
(-1.49379e-05 0 -0.000961432)
(-1.24894e-05 0 -0.00096659)
(-1.0409e-05 0 -0.000971063)
(-8.64368e-06 0 -0.000974941)
(-7.14824e-06 0 -0.000978304)
(-5.88359e-06 0 -0.000981219)
(-4.81618e-06 0 -0.000983746)
(-3.91719e-06 0 -0.000985936)
(-3.16184e-06 0 -0.000987835)
(-2.52886e-06 0 -0.000989479)
(-2.00005e-06 0 -0.000990905)
(-1.55982e-06 0 -0.00099214)
(-1.19488e-06 0 -0.000993211)
(-8.93741e-07 0 -0.000994137)
(-6.46411e-07 0 -0.000994938)
(-4.44371e-07 0 -0.000995629)
(-2.80366e-07 0 -0.000996226)
(-1.48275e-07 0 -0.000996745)
(-4.3254e-08 0 -0.000997195)
(3.91292e-08 0 -0.000997582)
(1.02888e-07 0 -0.000997915)
(1.514e-07 0 -0.000998201)
(1.87407e-07 0 -0.000998447)
(2.13216e-07 0 -0.000998659)
(2.30808e-07 0 -0.000998842)
(2.41722e-07 0 -0.000999002)
(2.47204e-07 0 -0.000999141)
(2.48313e-07 0 -0.000999261)
(2.4596e-07 0 -0.000999364)
(2.40918e-07 0 -0.000999454)
(2.33829e-07 0 -0.000999532)
(2.25227e-07 0 -0.000999599)
(2.15549e-07 0 -0.000999657)
(2.05155e-07 0 -0.000999706)
(1.94336e-07 0 -0.000999749)
(1.83327e-07 0 -0.000999786)
(1.72314e-07 0 -0.000999818)
(1.61445e-07 0 -0.000999845)
(1.50835e-07 0 -0.000999868)
(1.40571e-07 0 -0.000999888)
(1.30719e-07 0 -0.000999905)
(1.21327e-07 0 -0.000999919)
(1.12427e-07 0 -0.000999931)
(1.04039e-07 0 -0.00099994)
(9.61732e-08 0 -0.000999949)
(8.88321e-08 0 -0.000999956)
(8.20112e-08 0 -0.000999961)
(7.5701e-08 0 -0.000999966)
(6.98877e-08 0 -0.00099997)
(6.45545e-08 0 -0.000999973)
(5.96823e-08 0 -0.000999975)
(5.525e-08 0 -0.000999978)
(5.12356e-08 0 -0.00099998)
(4.76166e-08 0 -0.000999981)
(4.43702e-08 0 -0.000999983)
(4.14741e-08 0 -0.000999985)
(3.89066e-08 0 -0.000999986)
(3.66473e-08 0 -0.000999988)
(3.46766e-08 0 -0.000999989)
(3.29774e-08 0 -0.000999991)
(3.15369e-08 0 -0.000999992)
(3.03489e-08 0 -0.000999994)
(2.94521e-08 0 -0.000999995)
(2.89851e-08 0 -0.000999997)
(0 1.33276e-08 -0.00100008)
(0 1.73103e-08 -0.00100008)
(0 2.39459e-08 -0.00100008)
(0 3.21174e-08 -0.00100008)
(0 4.11731e-08 -0.00100009)
(0 5.08459e-08 -0.00100009)
(0 6.10848e-08 -0.0010001)
(0 7.19364e-08 -0.0010001)
(0 8.34873e-08 -0.00100011)
(0 9.58415e-08 -0.00100012)
(0 1.09113e-07 -0.00100013)
(0 1.23425e-07 -0.00100014)
(0 1.38908e-07 -0.00100016)
(0 1.55706e-07 -0.00100017)
(0 1.73972e-07 -0.00100019)
(0 1.93874e-07 -0.00100021)
(0 2.15593e-07 -0.00100023)
(0 2.39326e-07 -0.00100025)
(0 2.65291e-07 -0.00100028)
(0 2.93721e-07 -0.0010003)
(0 3.24873e-07 -0.00100033)
(0 3.59028e-07 -0.00100037)
(0 3.96493e-07 -0.0010004)
(0 4.37602e-07 -0.00100045)
(0 4.8272e-07 -0.00100049)
(0 5.32247e-07 -0.00100054)
(0 5.86617e-07 -0.0010006)
(0 6.46305e-07 -0.00100066)
(0 7.11826e-07 -0.00100072)
(0 7.83743e-07 -0.0010008)
(0 8.62665e-07 -0.00100087)
(0 9.49256e-07 -0.00100096)
(0 1.04423e-06 -0.00100106)
(0 1.14838e-06 -0.00100116)
(0 1.26253e-06 -0.00100128)
(0 1.3876e-06 -0.0010014)
(0 1.52457e-06 -0.00100154)
(0 1.6745e-06 -0.00100168)
(0 1.83853e-06 -0.00100184)
(0 2.01789e-06 -0.00100202)
(0 2.2139e-06 -0.00100221)
(0 2.42796e-06 -0.00100241)
(0 2.66159e-06 -0.00100264)
(0 2.91639e-06 -0.00100288)
(0 3.19408e-06 -0.00100314)
(0 3.49647e-06 -0.00100342)
(0 3.82549e-06 -0.00100373)
(0 4.18317e-06 -0.00100406)
(0 4.57163e-06 -0.00100441)
(0 4.99311e-06 -0.00100479)
(0 5.44991e-06 -0.0010052)
(0 5.9444e-06 -0.00100564)
(0 6.47902e-06 -0.0010061)
(0 7.05623e-06 -0.0010066)
(0 7.67846e-06 -0.00100713)
(0 8.3481e-06 -0.00100768)
(0 9.06742e-06 -0.00100826)
(0 9.83852e-06 -0.00100887)
(0 1.06632e-05 -0.00100951)
(0 1.15429e-05 -0.00101016)
(0 1.24786e-05 -0.00101083)
(0 1.34703e-05 -0.00101151)
(0 1.45176e-05 -0.00101219)
(0 1.56184e-05 -0.00101285)
(0 1.67695e-05 -0.00101348)
(0 1.79659e-05 -0.00101407)
(0 1.92e-05 -0.00101458)
(0 2.04615e-05 -0.00101499)
(0 2.17364e-05 -0.00101525)
(0 2.30066e-05 -0.00101533)
(0 2.42486e-05 -0.00101518)
(0 2.54306e-05 -0.0010147)
(0 2.65069e-05 -0.00101376)
(0 2.74019e-05 -0.00101218)
(0 2.79701e-05 -0.00101024)
(0 2.7917e-05 -0.00100962)
(0 2.67409e-05 -0.00101068)
(0 2.38194e-05 -0.000995605)
(0 1.90044e-05 -0.000924724)
(0 1.33213e-05 -0.000784716)
(0 -5.2948e-06 -0.00326412)
(0 2.85087e-06 4.57352e-05)
(0 0.000323487 -0.0040074)
(0 0.000126513 -0.00265339)
(0 -3.1137e-05 -0.00108705)
(0 5.36339e-05 -0.00515323)
(0 -2.74869e-06 -0.000479777)
(0 -0.000402598 -0.00521227)
(0 1.30093e-05 -3.3061e-05)
(0 -0.000805347 -0.0045635)
(0 -2.56475e-05 -0.000204827)
(0 -0.000439261 -0.00408374)
(0 -0.000239313 -0.00151952)
(0 -0.000639074 -0.00474436)
(0 -3.81547e-05 -0.000572399)
(0 -0.000325398 -0.00296357)
(0 -0.000562362 -0.00227082)
(0 -2.86098e-06 -0.000241128)
(0 -0.00012569 -0.00409716)
(0 1.98568e-05 -0.000647391)
(0 0.000134956 -0.00246707)
(0 0.000112492 -0.00125434)
(0 -6.00124e-06 -0.00125932)
(0 1.26856e-05 -0.00103933)
(0 5.82223e-05 -0.000939175)
(0 0.000100767 -0.000873885)
(0 0.000118102 -0.000844422)
(0 0.000117874 -0.000857003)
(0 0.000109252 -0.000878084)
(0 9.78867e-05 -0.000895306)
(0 8.64616e-05 -0.000909185)
(0 7.59676e-05 -0.000921132)
(0 6.66387e-05 -0.000931598)
(0 5.84374e-05 -0.000940717)
(0 5.12514e-05 -0.000948627)
(0 4.49601e-05 -0.000955485)
(0 3.94521e-05 -0.000961432)
(0 3.46289e-05 -0.00096659)
(0 3.04045e-05 -0.000971063)
(0 2.67034e-05 -0.000974941)
(0 2.34601e-05 -0.000978304)
(0 2.06172e-05 -0.000981219)
(0 1.81246e-05 -0.000983746)
(0 1.59385e-05 -0.000985936)
(0 1.40208e-05 -0.000987835)
(0 1.23381e-05 -0.000989479)
(0 1.08611e-05 -0.000990905)
(0 9.56442e-06 -0.00099214)
(0 8.42576e-06 -0.000993211)
(0 7.42558e-06 -0.000994137)
(0 6.54672e-06 -0.000994938)
(0 5.77417e-06 -0.000995629)
(0 5.09481e-06 -0.000996226)
(0 4.49717e-06 -0.000996745)
(0 3.97141e-06 -0.000997195)
(0 3.50875e-06 -0.000997582)
(0 3.10136e-06 -0.000997915)
(0 2.7424e-06 -0.000998201)
(0 2.42592e-06 -0.000998447)
(0 2.14675e-06 -0.000998659)
(0 1.90038e-06 -0.000998842)
(0 1.68291e-06 -0.000999002)
(0 1.49092e-06 -0.000999141)
(0 1.32137e-06 -0.000999261)
(0 1.17159e-06 -0.000999364)
(0 1.03924e-06 -0.000999454)
(0 9.22251e-07 -0.000999532)
(0 8.18804e-07 -0.000999599)
(0 7.27302e-07 -0.000999657)
(0 6.4634e-07 -0.000999706)
(0 5.74679e-07 -0.000999749)
(0 5.11231e-07 -0.000999786)
(0 4.55035e-07 -0.000999818)
(0 4.05245e-07 -0.000999845)
(0 3.61116e-07 -0.000999868)
(0 3.21989e-07 -0.000999888)
(0 2.87284e-07 -0.000999905)
(0 2.56489e-07 -0.000999919)
(0 2.29152e-07 -0.000999931)
(0 2.04876e-07 -0.00099994)
(0 1.83308e-07 -0.000999949)
(0 1.6414e-07 -0.000999956)
(0 1.47098e-07 -0.000999961)
(0 1.31942e-07 -0.000999966)
(0 1.18462e-07 -0.00099997)
(0 1.06473e-07 -0.000999973)
(0 9.58128e-08 -0.000999975)
(0 8.63388e-08 -0.000999978)
(0 7.79278e-08 -0.00099998)
(0 7.0472e-08 -0.000999981)
(0 6.38775e-08 -0.000999983)
(0 5.80632e-08 -0.000999985)
(0 5.29589e-08 -0.000999986)
(0 4.85043e-08 -0.000999988)
(0 4.46474e-08 -0.000999989)
(0 4.13432e-08 -0.000999991)
(0 3.85533e-08 -0.000999992)
(0 3.62665e-08 -0.000999994)
(0 3.45329e-08 -0.000999995)
(0 3.35349e-08 -0.000999997)
)
;
    }
    procBoundary1to0
    {
        type            processor;
        value           nonuniform List<vector> 
180
(
(3.19467e-11 1.42851e-08 -0.00100008)
(4.64217e-11 1.86192e-08 -0.00100008)
(1.07942e-10 2.58055e-08 -0.00100008)
(1.93933e-10 3.46496e-08 -0.00100009)
(2.90945e-10 4.44659e-08 -0.00100009)
(4.00084e-10 5.49787e-08 -0.00100009)
(5.28569e-10 6.61447e-08 -0.0010001)
(6.85639e-10 7.80285e-08 -0.00100011)
(8.8081e-10 9.07407e-08 -0.00100012)
(1.12443e-09 1.04413e-07 -0.00100013)
(1.42833e-09 1.19193e-07 -0.00100014)
(1.80621e-09 1.3524e-07 -0.00100015)
(2.274e-09 1.52728e-07 -0.00100017)
(2.84975e-09 1.71848e-07 -0.00100019)
(3.55363e-09 1.92809e-07 -0.0010002)
(4.40854e-09 2.1584e-07 -0.00100023)
(5.44077e-09 2.41191e-07 -0.00100025)
(6.68062e-09 2.6914e-07 -0.00100028)
(8.16291e-09 2.99993e-07 -0.00100031)
(9.92767e-09 3.34087e-07 -0.00100034)
(1.20208e-08 3.71797e-07 -0.00100038)
(1.44952e-08 4.13535e-07 -0.00100042)
(1.74116e-08 4.59762e-07 -0.00100047)
(2.08401e-08 5.10987e-07 -0.00100052)
(2.48616e-08 5.67774e-07 -0.00100058)
(2.957e-08 6.30752e-07 -0.00100065)
(3.50738e-08 7.00622e-07 -0.00100072)
(4.14994e-08 7.78161e-07 -0.0010008)
(4.89933e-08 8.64238e-07 -0.00100089)
(5.77263e-08 9.5982e-07 -0.00100099)
(6.78969e-08 1.06599e-06 -0.0010011)
(7.97365e-08 1.18394e-06 -0.00100122)
(9.35141e-08 1.31504e-06 -0.00100136)
(1.09543e-07 1.46077e-06 -0.00100151)
(1.28189e-07 1.62283e-06 -0.00100169)
(1.49874e-07 1.80309e-06 -0.00100188)
(1.75092e-07 2.00367e-06 -0.00100209)
(2.04415e-07 2.2269e-06 -0.00100233)
(2.38508e-07 2.47545e-06 -0.0010026)
(2.78141e-07 2.75225e-06 -0.00100289)
(3.24206e-07 3.06062e-06 -0.00100322)
(3.77738e-07 3.40427e-06 -0.00100359)
(4.39934e-07 3.78736e-06 -0.00100401)
(5.1218e-07 4.21455e-06 -0.00100447)
(5.96077e-07 4.69108e-06 -0.00100499)
(6.93478e-07 5.22283e-06 -0.00100557)
(8.06521e-07 5.81638e-06 -0.00100622)
(9.3768e-07 6.47915e-06 -0.00100695)
(1.08981e-06 7.21946e-06 -0.00100777)
(1.26621e-06 8.04668e-06 -0.00100869)
(1.47069e-06 8.97132e-06 -0.00100971)
(1.70766e-06 1.00052e-05 -0.00101087)
(1.98219e-06 1.11618e-05 -0.00101216)
(2.30017e-06 1.24559e-05 -0.00101361)
(2.6684e-06 1.39047e-05 -0.00101525)
(3.09471e-06 1.55271e-05 -0.00101708)
(3.58821e-06 1.73448e-05 -0.00101915)
(4.15937e-06 1.9382e-05 -0.00102147)
(4.82036e-06 2.16663e-05 -0.00102409)
(5.58522e-06 2.42288e-05 -0.00102704)
(6.47022e-06 2.71047e-05 -0.00103036)
(7.4942e-06 3.03337e-05 -0.0010341)
(8.67896e-06 3.39609e-05 -0.00103833)
(1.00498e-05 3.80374e-05 -0.0010431)
(1.16359e-05 4.26212e-05 -0.00104848)
(1.34712e-05 4.77781e-05 -0.00105457)
(1.55952e-05 5.35826e-05 -0.00106145)
(1.80536e-05 6.01197e-05 -0.00106924)
(2.08995e-05 6.74859e-05 -0.00107806)
(2.41942e-05 7.57905e-05 -0.00108805)
(2.80088e-05 8.51564e-05 -0.00109937)
(3.24239e-05 9.57155e-05 -0.00111223)
(3.75253e-05 0.000107587 -0.00112674)
(4.33805e-05 0.0001208 -0.00114304)
(4.99595e-05 0.000135062 -0.00116171)
(5.69312e-05 0.000149242 -0.00118514)
(6.32553e-05 0.00016041 -0.00121522)
(6.65938e-05 0.000162727 -0.00123235)
(6.30846e-05 0.000146969 -0.00118569)
(4.8074e-05 0.000104045 -0.000981614)
(1.21138e-05 1.89768e-05 -0.00377305)
(1.26596e-05 -2.50161e-05 -1.89238e-06)
(-0.000379808 0.000126664 -0.00441304)
(-4.70665e-05 -1.85464e-05 -0.000541163)
(-0.000442213 -0.000261483 -0.00472525)
(-5.5111e-05 -7.58391e-05 -0.000279949)
(-0.000671425 -0.000461085 -0.00501532)
(-0.000337154 -0.000244088 -0.00446107)
(-1.36252e-05 -2.35917e-05 -0.00109122)
(0.000191606 0.000338729 -0.00503392)
(0.000188691 1.42413e-05 -0.00142257)
(0.00066461 -0.000521156 -0.00432648)
(5.79075e-05 -2.15523e-05 -8.65583e-05)
(0.000443419 -0.00027354 -0.00507708)
(7.94325e-05 -0.000225642 -0.00272545)
(4.64111e-05 -0.000114858 -0.00244416)
(0.000230917 -0.000115044 -0.00363405)
(0.000174529 -0.000124321 -0.00260991)
(4.76286e-06 -2.64352e-05 -0.00239114)
(-0.000215063 -8.2064e-05 -0.00379286)
(-6.73596e-05 -8.58576e-05 -0.00178379)
(-8.28816e-05 -0.000120567 -0.00340434)
(-0.000100614 -0.00016013 -0.00269919)
(2.04085e-05 -4.9606e-05 -0.00111129)
(1.11057e-05 -8.34048e-06 -0.00181094)
(-3.43009e-05 -4.35664e-05 -0.00104034)
(-5.59795e-05 -6.20599e-05 -0.00105775)
(-5.92991e-05 -6.47951e-05 -0.00107852)
(-5.47985e-05 -6.02263e-05 -0.0010736)
(-4.80408e-05 -5.33421e-05 -0.00106079)
(-4.12315e-05 -4.62274e-05 -0.00105004)
(-3.50696e-05 -3.9649e-05 -0.00104171)
(-2.97017e-05 -3.3837e-05 -0.00103481)
(-2.50898e-05 -2.88005e-05 -0.00102892)
(-2.11463e-05 -2.44693e-05 -0.00102391)
(-1.77809e-05 -2.07554e-05 -0.00101967)
(-1.49126e-05 -1.75756e-05 -0.00101609)
(-1.2471e-05 -1.48558e-05 -0.00101308)
(-1.03955e-05 -1.25319e-05 -0.00101055)
(-8.63392e-06 -1.05484e-05 -0.00100843)
(-7.14116e-06 -8.85726e-06 -0.00100665)
(-5.87846e-06 -7.41716e-06 -0.00100518)
(-4.81248e-06 -6.19244e-06 -0.00100395)
(-3.91452e-06 -5.15238e-06 -0.00100294)
(-3.15992e-06 -4.27049e-06 -0.00100211)
(-2.52749e-06 -3.52398e-06 -0.00100143)
(-1.99906e-06 -2.89326e-06 -0.00100087)
(-1.55912e-06 -2.36148e-06 -0.00100043)
(-1.19439e-06 -1.91422e-06 -0.00100007)
(-8.9339e-07 -1.53899e-06 -0.000999788)
(-6.46164e-07 -1.22503e-06 -0.00099957)
(-4.44198e-07 -9.63115e-07 -0.000999405)
(-2.80246e-07 -7.4533e-07 -0.000999284)
(-1.48192e-07 -5.64945e-07 -0.000999195)
(-4.31965e-08 -4.16383e-07 -0.000999134)
(3.91686e-08 -2.94729e-07 -0.000999098)
(1.02915e-07 -1.9567e-07 -0.000999082)
(1.51418e-07 -1.15583e-07 -0.000999082)
(1.8742e-07 -5.15028e-08 -0.000999094)
(2.13224e-07 -7.81202e-10 -0.000999116)
(2.30814e-07 3.89882e-08 -0.000999146)
(2.41726e-07 6.97226e-08 -0.000999181)
(2.47207e-07 9.29727e-08 -0.000999218)
(2.48315e-07 1.10013e-07 -0.000999257)
(2.45962e-07 1.21947e-07 -0.000999297)
(2.40919e-07 1.29717e-07 -0.000999337)
(2.3383e-07 1.3412e-07 -0.000999378)
(2.25227e-07 1.35827e-07 -0.000999418)
(2.15549e-07 1.35399e-07 -0.000999457)
(2.05155e-07 1.33305e-07 -0.000999495)
(1.94337e-07 1.29933e-07 -0.000999531)
(1.83327e-07 1.25604e-07 -0.000999565)
(1.72314e-07 1.20584e-07 -0.000999598)
(1.61445e-07 1.15089e-07 -0.000999629)
(1.50835e-07 1.09298e-07 -0.000999658)
(1.40571e-07 1.03354e-07 -0.000999685)
(1.30719e-07 9.73728e-08 -0.000999711)
(1.21327e-07 9.14476e-08 -0.000999734)
(1.12427e-07 8.56513e-08 -0.000999756)
(1.04039e-07 8.00407e-08 -0.000999776)
(9.61732e-08 7.46586e-08 -0.000999795)
(8.88322e-08 6.95367e-08 -0.000999812)
(8.20113e-08 6.46969e-08 -0.000999828)
(7.5701e-08 6.01534e-08 -0.000999843)
(6.98877e-08 5.59136e-08 -0.000999857)
(6.45546e-08 5.19795e-08 -0.000999869)
(5.96823e-08 4.83486e-08 -0.000999881)
(5.525e-08 4.50151e-08 -0.000999892)
(5.12356e-08 4.19702e-08 -0.000999902)
(4.76166e-08 3.92029e-08 -0.000999912)
(4.43702e-08 3.67009e-08 -0.000999921)
(4.14741e-08 3.44509e-08 -0.000999929)
(3.89066e-08 3.24391e-08 -0.000999937)
(3.66473e-08 3.06516e-08 -0.000999945)
(3.46766e-08 2.90745e-08 -0.000999952)
(3.29774e-08 2.7695e-08 -0.000999959)
(3.15369e-08 2.65043e-08 -0.000999966)
(3.03489e-08 2.55025e-08 -0.000999972)
(2.94521e-08 2.47379e-08 -0.000999979)
(2.89852e-08 2.43525e-08 -0.000999985)
)
;
    }
    procBoundary1to3
    {
        type            processor;
        value           nonuniform List<vector> 
180
(
(-9.2555e-10 1.33276e-08 -0.000999901)
(-1.26245e-09 1.73103e-08 -0.0009999)
(-1.75161e-09 2.39458e-08 -0.000999898)
(-2.33826e-09 3.21172e-08 -0.000999895)
(-3.00184e-09 4.11729e-08 -0.000999892)
(-3.73279e-09 5.08457e-08 -0.000999887)
(-4.53132e-09 6.10846e-08 -0.000999882)
(-5.4065e-09 7.19362e-08 -0.000999876)
(-6.37256e-09 8.34871e-08 -0.000999868)
(-7.4473e-09 9.58412e-08 -0.00099986)
(-8.65144e-09 1.09113e-07 -0.00099985)
(-1.00086e-08 1.23424e-07 -0.000999839)
(-1.15455e-08 1.38908e-07 -0.000999827)
(-1.32925e-08 1.55706e-07 -0.000999813)
(-1.52836e-08 1.73971e-07 -0.000999798)
(-1.75574e-08 1.93873e-07 -0.000999781)
(-2.01574e-08 2.15592e-07 -0.000999762)
(-2.31328e-08 2.39325e-07 -0.000999741)
(-2.65389e-08 2.65289e-07 -0.000999718)
(-3.04384e-08 2.93719e-07 -0.000999693)
(-3.49024e-08 3.24871e-07 -0.000999664)
(-4.00115e-08 3.59026e-07 -0.000999634)
(-4.58573e-08 3.9649e-07 -0.0009996)
(-5.25441e-08 4.37598e-07 -0.000999562)
(-6.0191e-08 4.82716e-07 -0.000999521)
(-6.89341e-08 5.32242e-07 -0.000999476)
(-7.89291e-08 5.86611e-07 -0.000999427)
(-9.03544e-08 6.46298e-07 -0.000999373)
(-1.03415e-07 7.11818e-07 -0.000999313)
(-1.18347e-07 7.83733e-07 -0.000999248)
(-1.3542e-07 8.62653e-07 -0.000999177)
(-1.54946e-07 9.49241e-07 -0.000999099)
(-1.77283e-07 1.04421e-06 -0.000999015)
(-2.02844e-07 1.14835e-06 -0.000998922)
(-2.32103e-07 1.2625e-06 -0.000998821)
(-2.65608e-07 1.38756e-06 -0.00099871)
(-3.03987e-07 1.52453e-06 -0.00099859)
(-3.47965e-07 1.67445e-06 -0.00099846)
(-3.98373e-07 1.83847e-06 -0.000998318)
(-4.56169e-07 2.01782e-06 -0.000998164)
(-5.22454e-07 2.21382e-06 -0.000997997)
(-5.98493e-07 2.42786e-06 -0.000997816)
(-6.85739e-07 2.66147e-06 -0.000997621)
(-7.85861e-07 2.91625e-06 -0.00099741)
(-9.00778e-07 3.1939e-06 -0.000997182)
(-1.03269e-06 3.49626e-06 -0.000996937)
(-1.18413e-06 3.82524e-06 -0.000996674)
(-1.358e-06 4.18287e-06 -0.000996392)
(-1.55764e-06 4.57128e-06 -0.00099609)
(-1.78688e-06 4.99268e-06 -0.000995767)
(-2.05011e-06 5.44939e-06 -0.000995424)
(-2.3524e-06 5.94379e-06 -0.000995059)
(-2.69957e-06 6.4783e-06 -0.000994673)
(-3.09829e-06 7.05536e-06 -0.000994266)
(-3.55626e-06 7.67742e-06 -0.000993839)
(-4.08232e-06 8.34686e-06 -0.000993394)
(-4.68667e-06 9.06595e-06 -0.000992932)
(-5.38102e-06 9.83677e-06 -0.000992456)
(-6.17889e-06 1.06611e-05 -0.000991971)
(-7.09584e-06 1.15404e-05 -0.000991482)
(-8.14982e-06 1.24756e-05 -0.000990996)
(-9.36155e-06 1.34668e-05 -0.000990522)
(-1.07549e-05 1.45133e-05 -0.000990071)
(-1.23575e-05 1.56133e-05 -0.000989659)
(-1.42011e-05 1.67634e-05 -0.000989304)
(-1.63227e-05 1.79585e-05 -0.000989028)
(-1.87648e-05 1.9191e-05 -0.00098886)
(-2.15768e-05 2.04504e-05 -0.000988835)
(-2.48158e-05 2.17228e-05 -0.000988995)
(-2.85477e-05 2.29898e-05 -0.000989391)
(-3.28478e-05 2.42279e-05 -0.000990087)
(-3.77991e-05 2.54055e-05 -0.000991153)
(-4.34821e-05 2.64781e-05 -0.000992621)
(-4.99349e-05 2.73746e-05 -0.000994553)
(-5.7048e-05 2.79603e-05 -0.0009976)
(-6.43228e-05 2.79607e-05 -0.00100368)
(-7.02887e-05 2.68944e-05 -0.00101185)
(-7.23125e-05 2.4117e-05 -0.0010023)
(-6.51291e-05 1.93651e-05 -0.000936743)
(-4.2886e-05 1.34637e-05 -0.000910388)
(-9.18972e-06 -5.83701e-06 -0.00286594)
(5.37005e-05 -5.80181e-06 -5.38464e-05)
(5.445e-05 0.000510883 -0.00380608)
(5.72749e-05 2.14282e-05 -0.000171882)
(-9.60934e-05 -4.91821e-05 -0.0039692)
(1.74592e-06 6.40861e-05 -0.00414831)
(4.75359e-05 3.51468e-05 -0.000474403)
(-0.00034258 -0.000209813 -0.00384496)
(-0.000404366 -0.00015817 -0.0037714)
(-2.57605e-05 -4.7818e-05 -0.000364442)
(-0.000256945 -0.000667601 -0.00302645)
(0.000219349 -0.000314964 -0.00394677)
(-2.93574e-05 -2.94321e-05 -0.000461103)
(-0.000202499 -0.000714743 -0.00475977)
(-0.000125114 -0.000851017 -0.00346905)
(-1.7797e-05 -1.7627e-05 -0.000269474)
(-0.000172893 -0.00096987 -0.00522726)
(-1.46613e-05 -1.65139e-05 -0.000283736)
(-0.00033182 -0.000348774 -0.00533808)
(-5.97978e-05 8.83419e-06 -0.00140424)
(0.000361806 0.000388207 -0.00437591)
(5.58606e-05 2.38584e-05 -0.000390507)
(3.76639e-05 1.43202e-05 -0.00356224)
(6.24879e-05 7.19674e-05 -0.00149428)
(0.000102114 0.000113847 -0.00142105)
(0.000131259 0.000119492 -0.00131409)
(0.000137726 0.000117882 -0.00123923)
(0.000130259 0.000114032 -0.00120565)
(0.000117531 0.000106595 -0.00118428)
(0.000104077 9.65584e-05 -0.00116357)
(9.15765e-05 8.58303e-05 -0.00114396)