/*--------------------------------*- C++ -*----------------------------------*\
| =========                 |                                                 |
| \\      /  F ield         | OpenFOAM: The Open Source CFD Toolbox           |
|  \\    /   O peration     | Version:  5.x                                   |
|   \\  /    A nd           | Web:      www.OpenFOAM.org                      |
|    \\/     M anipulation  |                                                 |
\*---------------------------------------------------------------------------*/
FoamFile
{
    version     2.0;
    format      ascii;
    class       volVectorField;
    location    "0.05";
    object      stored_U;
}
// * * * * * * * * * * * * * * * * * * * * * * * * * * * * * * * * * * * * * //

dimensions      [0 1 -1 0 0 0 0];

internalField   nonuniform List<vector> 
2250
(
(-1.53761e-10 -3.09773e-11 -0.000999999)
(-1.42089e-10 -2.93809e-11 -0.000999999)
(-1.12866e-10 -2.95308e-11 -0.000999999)
(-7.28076e-11 -2.88091e-11 -0.000999999)
(-2.50278e-11 -2.80268e-11 -0.000999999)
(-1.52436e-10 -9.86887e-11 -0.000999999)
(-1.40949e-10 -8.87486e-11 -0.000999999)
(-1.12533e-10 -8.69322e-11 -0.000999999)
(-7.14894e-11 -8.44244e-11 -0.000999999)
(-2.43317e-11 -8.26794e-11 -0.001)
(-1.49859e-10 -1.63938e-10 -0.000999999)
(-1.30649e-10 -1.39406e-10 -0.000999999)
(-1.08793e-10 -1.35073e-10 -0.001)
(-6.88698e-11 -1.32582e-10 -0.001)
(-2.34838e-11 -1.31066e-10 -0.001)
(-1.51909e-10 -2.20286e-10 -0.000999999)
(-1.12103e-10 -1.82035e-10 -0.001)
(-1.05727e-10 -1.76028e-10 -0.001)
(-6.77493e-11 -1.76868e-10 -0.001)
(-2.30669e-11 -1.76873e-10 -0.001)
(-1.87521e-10 -1.1261e-10 -0.001)
(-8.65191e-11 -1.79006e-10 -0.001)
(-1.03645e-10 -1.8553e-10 -0.001)
(-7.00714e-11 -1.88479e-10 -0.001)
(-2.3821e-11 -1.89666e-10 -0.001)
(-4.33068e-10 -8.90569e-11 -0.000999999)
(-4.01509e-10 -8.39412e-11 -0.000999999)
(-3.13345e-10 -8.18361e-11 -0.000999999)
(-2.00511e-10 -7.90185e-11 -0.000999999)
(-6.87304e-11 -7.69694e-11 -0.000999999)
(-4.26426e-10 -2.76325e-10 -0.000999999)
(-3.95084e-10 -2.50814e-10 -0.000999999)
(-3.09032e-10 -2.42159e-10 -0.000999999)
(-1.96138e-10 -2.3464e-10 -0.000999999)
(-6.69333e-11 -2.29901e-10 -0.001)
(-4.17037e-10 -4.51809e-10 -0.000999999)
(-3.68164e-10 -3.92638e-10 -0.000999999)
(-2.97818e-10 -3.77907e-10 -0.001)
(-1.89084e-10 -3.70104e-10 -0.001)
(-6.45526e-11 -3.64532e-10 -0.001)
(-4.1736e-10 -6.30575e-10 -0.000999999)
(-3.21211e-10 -5.22118e-10 -0.001)
(-2.8655e-10 -4.96535e-10 -0.001)
(-1.83485e-10 -4.88683e-10 -0.001)
(-6.20637e-11 -4.81838e-10 -0.001)
(-5.30694e-10 -3.34673e-10 -0.001)
(-2.33998e-10 -4.93413e-10 -0.001)
(-2.64409e-10 -5.17462e-10 -0.001)
(-1.75295e-10 -5.27645e-10 -0.001)
(-5.86257e-11 -5.29598e-10 -0.001)
(-7.56379e-10 -1.51191e-10 -0.000999999)
(-6.97343e-10 -1.43364e-10 -0.000999999)
(-5.41663e-10 -1.37462e-10 -0.000999999)
(-3.46577e-10 -1.32926e-10 -0.000999999)
(-1.19385e-10 -1.30953e-10 -0.000999999)
(-7.44041e-10 -4.54329e-10 -0.000999999)
(-6.8496e-10 -4.24753e-10 -0.000999999)
(-5.3225e-10 -4.09319e-10 -0.000999999)
(-3.40963e-10 -3.97961e-10 -0.000999999)
(-1.179e-10 -3.91601e-10 -0.001)
(-7.2552e-10 -7.18403e-10 -0.000999999)
(-6.53719e-10 -6.58487e-10 -0.000999999)
(-5.15964e-10 -6.40276e-10 -0.001)
(-3.3029e-10 -6.27579e-10 -0.001)
(-1.14011e-10 -6.16935e-10 -0.001)
(-7.05566e-10 -1.00827e-09 -0.000999999)
(-6.06896e-10 -8.61901e-10 -0.001)
(-5.01434e-10 -8.26351e-10 -0.001)
(-3.18893e-10 -8.05516e-10 -0.001)
(-1.08506e-10 -7.88533e-10 -0.001)
(-8.28025e-10 -7.1064e-10 -0.001)
(-4.71801e-10 -8.70699e-10 -0.001)
(-4.59615e-10 -8.83167e-10 -0.001)
(-2.93984e-10 -8.89451e-10 -0.001)
(-9.85485e-11 -8.86943e-10 -0.001)
(-1.15705e-09 -2.19898e-10 -0.000999998)
(-1.05237e-09 -2.0892e-10 -0.000999999)
(-8.22431e-10 -2.01252e-10 -0.000999999)
(-5.29667e-10 -1.9636e-10 -0.000999999)
(-1.83939e-10 -1.95067e-10 -0.001)
(-1.14434e-09 -6.47108e-10 -0.000999998)
(-1.0357e-09 -6.16578e-10 -0.000999999)
(-8.11397e-10 -5.99356e-10 -0.000999999)
(-5.24819e-10 -5.86689e-10 -0.001)
(-1.83345e-10 -5.79778e-10 -0.001)
(-1.12749e-09 -1.00386e-09 -0.000999999)
(-1.00667e-09 -9.56199e-10 -0.000999999)
(-7.94176e-10 -9.38437e-10 -0.001)
(-5.12232e-10 -9.22614e-10 -0.001)
(-1.78477e-10 -9.09227e-10 -0.001)
(-1.09844e-09 -1.36094e-09 -0.000999999)
(-9.70377e-10 -1.22679e-09 -0.001)
(-7.77956e-10 -1.18802e-09 -0.001)
(-4.97469e-10 -1.16061e-09 -0.001)
(-1.71735e-10 -1.14084e-09 -0.001)
(-1.17994e-09 -1.20731e-09 -0.000999999)
(-8.33784e-10 -1.32266e-09 -0.001)
(-7.28137e-10 -1.31592e-09 -0.001)
(-4.67567e-10 -1.30961e-09 -0.001)
(-1.61172e-10 -1.30051e-09 -0.001)
(-1.69051e-09 -3.00625e-10 -0.000999998)
(-1.52311e-09 -2.88786e-10 -0.000999999)
(-1.19901e-09 -2.82345e-10 -0.000999999)
(-7.7558e-10 -2.78152e-10 -0.000999999)
(-2.70079e-10 -2.77499e-10 -0.001)
(-1.68253e-09 -8.7692e-10 -0.000999998)
(-1.50761e-09 -8.49135e-10 -0.000999999)
(-1.19061e-09 -8.36358e-10 -0.000999999)
(-7.72695e-10 -8.25358e-10 -0.001)
(-2.70435e-10 -8.19552e-10 -0.001)
(-1.67869e-09 -1.3606e-09 -0.000999998)
(-1.48549e-09 -1.32247e-09 -0.000999999)
(-1.17763e-09 -1.3092e-09 -0.001)
(-7.61899e-10 -1.29492e-09 -0.001)
(-2.66374e-10 -1.28384e-09 -0.001)
(-1.67022e-09 -1.78669e-09 -0.000999999)
(-1.45641e-09 -1.6858e-09 -0.001)
(-1.16329e-09 -1.64702e-09 -0.001)
(-7.49975e-10 -1.62053e-09 -0.001)
(-2.61882e-10 -1.60551e-09 -0.001)
(-1.737e-09 -1.76377e-09 -0.000999999)
(-1.34576e-09 -1.87188e-09 -0.001)
(-1.11248e-09 -1.86105e-09 -0.001)
(-7.23664e-10 -1.84669e-09 -0.001)
(-2.54516e-10 -1.83258e-09 -0.001)
(-2.42623e-09 -4.03835e-10 -0.000999997)
(-2.1772e-09 -3.9653e-10 -0.000999998)
(-1.7215e-09 -3.92712e-10 -0.000999999)
(-1.1136e-09 -3.89603e-10 -0.000999999)
(-3.8694e-10 -3.89679e-10 -0.001)
(-2.42531e-09 -1.17448e-09 -0.000999998)
(-2.17003e-09 -1.16115e-09 -0.000999998)
(-1.71776e-09 -1.15546e-09 -0.000999999)
(-1.11331e-09 -1.14805e-09 -0.001)
(-3.88412e-10 -1.14476e-09 -0.001)
(-2.43521e-09 -1.83019e-09 -0.000999998)
(-2.16226e-09 -1.81286e-09 -0.000999999)
(-1.71172e-09 -1.80788e-09 -0.001)
(-1.10724e-09 -1.79906e-09 -0.001)
(-3.86558e-10 -1.79271e-09 -0.001)
(-2.4514e-09 -2.39335e-09 -0.000999999)
(-2.14788e-09 -2.32083e-09 -0.001)
(-1.70417e-09 -2.28519e-09 -0.001)
(-1.10178e-09 -2.26134e-09 -0.001)
(-3.8554e-10 -2.25071e-09 -0.001)
(-2.54772e-09 -2.46946e-09 -0.001)
(-2.05424e-09 -2.58123e-09 -0.001)
(-1.65242e-09 -2.58281e-09 -0.001)
(-1.07727e-09 -2.56958e-09 -0.001)
(-3.80264e-10 -2.55298e-09 -0.001)
(-3.44752e-09 -5.48631e-10 -0.000999997)
(-3.08963e-09 -5.48714e-10 -0.000999998)
(-2.44641e-09 -5.46436e-10 -0.000999999)
(-1.57864e-09 -5.44009e-10 -0.000999999)
(-5.46372e-10 -5.44343e-10 -0.001)
(-3.45372e-09 -1.59324e-09 -0.000999997)
(-3.0931e-09 -1.60078e-09 -0.000999998)
(-2.44625e-09 -1.59879e-09 -0.000999999)
(-1.58054e-09 -1.59422e-09 -0.001)
(-5.48738e-10 -1.59255e-09 -0.001)
(-3.46913e-09 -2.48653e-09 -0.000999998)
(-3.1011e-09 -2.49966e-09 -0.000999999)
(-2.44471e-09 -2.49935e-09 -0.001)
(-1.57859e-09 -2.49466e-09 -0.001)
(-5.48771e-10 -2.49063e-09 -0.001)
(-3.49117e-09 -3.221e-09 -0.000999999)
(-3.10612e-09 -3.20572e-09 -0.001)
(-2.44168e-09 -3.17457e-09 -0.001)
(-1.57691e-09 -3.15164e-09 -0.001)
(-5.49511e-10 -3.13983e-09 -0.001)
(-3.57263e-09 -3.50718e-09 -0.001)
(-3.05461e-09 -3.556e-09 -0.001)
(-2.39087e-09 -3.56745e-09 -0.001)
(-1.5501e-09 -3.55711e-09 -0.001)
(-5.42976e-10 -3.53835e-09 -0.001)
(-4.85355e-09 -7.57586e-10 -0.000999995)
(-4.34958e-09 -7.62049e-10 -0.000999997)
(-3.44394e-09 -7.58705e-10 -0.000999998)
(-2.21662e-09 -7.56126e-10 -0.000999999)
(-7.64682e-10 -7.55958e-10 -0.001)
(-4.86393e-09 -2.19674e-09 -0.000999996)
(-4.35873e-09 -2.21798e-09 -0.000999998)
(-3.44443e-09 -2.21268e-09 -0.000999999)
(-2.2194e-09 -2.20812e-09 -0.001)
(-7.67306e-10 -2.20577e-09 -0.001)
(-4.87433e-09 -3.41957e-09 -0.000999997)
(-4.37387e-09 -3.46049e-09 -0.000999999)
(-3.44086e-09 -3.45576e-09 -0.001)
(-2.21828e-09 -3.44961e-09 -0.001)
(-7.67945e-10 -3.44354e-09 -0.001)
(-4.88081e-09 -4.37443e-09 -0.000999998)
(-4.39526e-09 -4.41083e-09 -0.001)
(-3.43408e-09 -4.38821e-09 -0.001)
(-2.21417e-09 -4.36377e-09 -0.001)
(-7.67856e-10 -4.34682e-09 -0.001)
(-4.89198e-09 -4.97316e-09 -0.001)
(-4.38768e-09 -4.91117e-09 -0.001)
(-3.39413e-09 -4.91305e-09 -0.001)
(-2.18552e-09 -4.90201e-09 -0.001)
(-7.59324e-10 -4.88063e-09 -0.001)
(-6.77176e-09 -1.0512e-09 -0.000999994)
(-6.07238e-09 -1.05491e-09 -0.000999996)
(-4.80831e-09 -1.04845e-09 -0.000999998)
(-3.09028e-09 -1.04541e-09 -0.000999999)
(-1.06429e-09 -1.0446e-09 -0.001)
(-6.78148e-09 -3.04445e-09 -0.000999995)
(-6.08088e-09 -3.06765e-09 -0.000999997)
(-4.80779e-09 -3.05389e-09 -0.000999999)
(-3.09415e-09 -3.04752e-09 -0.001)
(-1.06737e-09 -3.04328e-09 -0.001)
(-6.77943e-09 -4.71844e-09 -0.000999996)
(-6.09352e-09 -4.7815e-09 -0.000999998)
(-4.79767e-09 -4.76672e-09 -0.001)
(-3.09155e-09 -4.75494e-09 -0.001)
(-1.0678e-09 -4.74443e-09 -0.001)
(-6.75483e-09 -5.94793e-09 -0.000999998)
(-6.12963e-09 -6.04266e-09 -0.001)
(-4.78195e-09 -6.03298e-09 -0.001)
(-3.08147e-09 -6.00808e-09 -0.001)
(-1.06599e-09 -5.98774e-09 -0.001)
(-6.64676e-09 -6.96936e-09 -0.001)
(-6.17858e-09 -6.76603e-09 -0.001)
(-4.76355e-09 -6.74413e-09 -0.001)
(-3.05816e-09 -6.73135e-09 -0.00100001)
(-1.05891e-09 -6.70926e-09 -0.00100001)
(-9.37981e-09 -1.45343e-09 -0.000999992)
(-8.4195e-09 -1.45335e-09 -0.000999995)
(-6.67215e-09 -1.44373e-09 -0.000999997)
(-4.28763e-09 -1.44064e-09 -0.000999999)
(-1.47628e-09 -1.43913e-09 -0.001)
(-9.38612e-09 -4.2076e-09 -0.000999993)
(-8.42543e-09 -4.22588e-09 -0.000999996)
(-6.67194e-09 -4.20382e-09 -0.000999998)
(-4.29372e-09 -4.19572e-09 -0.001)
(-1.48014e-09 -4.18872e-09 -0.001)
(-9.36938e-09 -6.50312e-09 -0.000999995)
(-8.43196e-09 -6.58252e-09 -0.000999998)
(-6.65519e-09 -6.55921e-09 -0.001)
(-4.28895e-09 -6.54183e-09 -0.001)
(-1.47998e-09 -6.52665e-09 -0.001)
(-9.31157e-09 -8.10879e-09 -0.000999997)
(-8.48216e-09 -8.26237e-09 -0.001)
(-6.63224e-09 -8.27393e-09 -0.001)
(-4.27438e-09 -8.25501e-09 -0.001)
(-1.47752e-09 -8.23617e-09 -0.00100001)
(-9.07306e-09 -9.61648e-09 -0.001)
(-8.59712e-09 -9.29367e-09 -0.001)
(-6.64845e-09 -9.24083e-09 -0.00100001)
(-4.26748e-09 -9.22802e-09 -0.00100001)
(-1.47685e-09 -9.20746e-09 -0.00100001)
(-1.29314e-08 -2.00124e-09 -0.000999989)
(-1.16217e-08 -1.99632e-09 -0.000999993)
(-9.21981e-09 -1.98479e-09 -0.000999996)
(-5.92681e-09 -1.98144e-09 -0.000999999)
(-2.04084e-09 -1.97809e-09 -0.001)
(-1.29351e-08 -5.79553e-09 -0.00099999)
(-1.16269e-08 -5.80503e-09 -0.000999994)
(-9.22218e-09 -5.77765e-09 -0.000999998)
(-5.93486e-09 -5.76735e-09 -0.001)
(-2.04489e-09 -5.75592e-09 -0.001)
(-1.29055e-08 -8.95371e-09 -0.000999993)
(-1.16263e-08 -9.0403e-09 -0.000999997)
(-9.20033e-09 -9.01229e-09 -0.001)
(-5.92772e-09 -8.99096e-09 -0.001)
(-2.04417e-09 -8.9713e-09 -0.001)
(-1.28196e-08 -1.11242e-08 -0.000999996)
(-1.16863e-08 -1.13139e-08 -0.001)
(-9.17417e-09 -1.13484e-08 -0.001)
(-5.91208e-09 -1.13408e-08 -0.00100001)
(-2.04255e-09 -1.13238e-08 -0.00100001)
(-1.2478e-08 -1.31287e-08 -0.001)
(-1.18505e-08 -1.27407e-08 -0.001)
(-9.22804e-09 -1.26565e-08 -0.00100001)
(-5.92554e-09 -1.26429e-08 -0.00100001)
(-2.04884e-09 -1.26206e-08 -0.00100001)
(-1.778e-08 -2.74781e-09 -0.000999985)
(-1.59989e-08 -2.73768e-09 -0.00099999)
(-1.27026e-08 -2.72472e-09 -0.000999995)
(-8.16552e-09 -2.71943e-09 -0.000999999)
(-2.81097e-09 -2.71333e-09 -0.001)
(-1.77841e-08 -7.9646e-09 -0.000999987)
(-1.60054e-08 -7.96127e-09 -0.000999992)
(-1.2708e-08 -7.92922e-09 -0.000999997)
(-8.17441e-09 -7.9145e-09 -0.001)
(-2.81506e-09 -7.89747e-09 -0.001)
(-1.77431e-08 -1.23293e-08 -0.00099999)
(-1.59943e-08 -1.24019e-08 -0.000999996)
(-1.26808e-08 -1.2367e-08 -0.001)
(-8.16492e-09 -1.23418e-08 -0.001)
(-2.81428e-09 -1.23154e-08 -0.00100001)
(-1.76432e-08 -1.53244e-08 -0.000999995)
(-1.60443e-08 -1.55265e-08 -0.001)
(-1.26496e-08 -1.55669e-08 -0.001)
(-8.14785e-09 -1.55669e-08 -0.00100001)
(-2.81251e-09 -1.55429e-08 -0.00100001)
(-1.72125e-08 -1.78623e-08 -0.001)
(-1.62369e-08 -1.74352e-08 -0.00100001)
(-1.27223e-08 -1.73269e-08 -0.00100001)
(-8.17174e-09 -1.73037e-08 -0.00100001)
(-2.82002e-09 -1.72689e-08 -0.00100002)
(-2.44103e-08 -3.76488e-09 -0.000999979)
(-2.19867e-08 -3.74862e-09 -0.000999987)
(-1.74616e-08 -3.73291e-09 -0.000999993)
(-1.1221e-08 -3.72417e-09 -0.000999998)
(-3.86158e-09 -3.71585e-09 -0.001)
(-2.44177e-08 -1.09259e-08 -0.000999982)
(-2.19952e-08 -1.09012e-08 -0.000999989)
(-1.74695e-08 -1.08612e-08 -0.000999996)
(-1.12317e-08 -1.08394e-08 -0.001)
(-3.86723e-09 -1.08154e-08 -0.001)
(-2.43619e-08 -1.69589e-08 -0.000999986)
(-2.19641e-08 -1.69871e-08 -0.000999994)
(-1.7434e-08 -1.69378e-08 -0.001)
(-1.1218e-08 -1.69047e-08 -0.00100001)
(-3.86551e-09 -1.6864e-08 -0.00100001)
(-2.42541e-08 -2.11584e-08 -0.000999993)
(-2.19758e-08 -2.13047e-08 -0.001)
(-1.73896e-08 -2.1322e-08 -0.00100001)
(-1.11923e-08 -2.13143e-08 -0.00100001)
(-3.85916e-09 -2.12684e-08 -0.00100001)
(-2.37879e-08 -2.4219e-08 -0.001)
(-2.21278e-08 -2.38161e-08 -0.00100001)
(-1.74451e-08 -2.36854e-08 -0.00100001)
(-1.12067e-08 -2.36387e-08 -0.00100002)
(-3.86034e-09 -2.35784e-08 -0.00100002)
(-3.34799e-08 -5.15004e-09 -0.000999972)
(-3.01757e-08 -5.12449e-09 -0.000999982)
(-2.39624e-08 -5.1031e-09 -0.000999991)
(-1.53957e-08 -5.09022e-09 -0.000999998)
(-5.29818e-09 -5.07878e-09 -0.001)
(-3.34894e-08 -1.49581e-08 -0.000999975)
(-3.01841e-08 -1.48993e-08 -0.000999986)
(-2.39725e-08 -1.48438e-08 -0.000999994)
(-1.54093e-08 -1.48107e-08 -0.001)
(-5.30586e-09 -1.47736e-08 -0.001)
(-3.34064e-08 -2.32615e-08 -0.000999981)
(-3.01191e-08 -2.32132e-08 -0.000999992)
(-2.39207e-08 -2.31381e-08 -0.001)
(-1.53838e-08 -2.30868e-08 -0.00100001)
(-5.29915e-09 -2.30197e-08 -0.00100001)
(-3.32807e-08 -2.91453e-08 -0.00099999)
(-3.0063e-08 -2.9169e-08 -0.001)
(-2.38494e-08 -2.91288e-08 -0.00100001)
(-1.53377e-08 -2.90904e-08 -0.00100002)
(-5.28335e-09 -2.90086e-08 -0.00100002)
(-3.28511e-08 -3.27926e-08 -0.001)
(-3.01027e-08 -3.24621e-08 -0.00100001)
(-2.38443e-08 -3.23074e-08 -0.00100002)
(-1.53212e-08 -3.22257e-08 -0.00100003)
(-5.27297e-09 -3.21292e-08 -0.00100003)
(-4.5876e-08 -7.03319e-09 -0.000999962)
(-4.13654e-08 -6.99405e-09 -0.000999976)
(-3.28418e-08 -6.96256e-09 -0.000999988)
(-2.11009e-08 -6.9428e-09 -0.000999997)
(-7.26231e-09 -6.92316e-09 -0.001)
(-4.58807e-08 -2.04294e-08 -0.000999966)
(-4.13706e-08 -2.03271e-08 -0.00099998)
(-3.28512e-08 -2.0243e-08 -0.000999993)
(-2.11134e-08 -2.01878e-08 -0.001)
(-7.26878e-09 -2.01254e-08 -0.00100001)
(-4.57482e-08 -3.17878e-08 -0.000999975)
(-4.12579e-08 -3.16532e-08 -0.000999989)
(-3.27665e-08 -3.15318e-08 -0.001)
(-2.10631e-08 -3.14442e-08 -0.00100001)
(-7.25194e-09 -3.13387e-08 -0.00100001)
(-4.55676e-08 -3.99619e-08 -0.000999986)
(-4.11177e-08 -3.98291e-08 -0.001)
(-3.26469e-08 -3.97017e-08 -0.00100001)
(-2.0984e-08 -3.96063e-08 -0.00100002)
(-7.22387e-09 -3.94756e-08 -0.00100003)
(-4.52062e-08 -4.44783e-08 -0.001)
(-4.09978e-08 -4.41845e-08 -0.00100001)
(-3.25466e-08 -4.39889e-08 -0.00100003)
(-2.09156e-08 -4.38613e-08 -0.00100003)
(-7.19701e-09 -4.37173e-08 -0.00100004)
(-6.28079e-08 -9.59e-09 -0.000999948)
(-5.66465e-08 -9.5324e-09 -0.000999967)
(-4.49693e-08 -9.48337e-09 -0.000999984)
(-2.88916e-08 -9.44964e-09 -0.000999996)
(-9.9428e-09 -9.41538e-09 -0.001)
(-6.27997e-08 -2.78481e-08 -0.000999954)
(-5.66435e-08 -2.76942e-08 -0.000999973)
(-4.49693e-08 -2.75596e-08 -0.00099999)
(-2.88944e-08 -2.74639e-08 -0.001)
(-9.94418e-09 -2.73637e-08 -0.00100001)
(-6.25837e-08 -4.33225e-08 -0.000999965)
(-5.64659e-08 -4.31036e-08 -0.000999985)
(-4.48264e-08 -4.29047e-08 -0.001)
(-2.88046e-08 -4.2757e-08 -0.00100001)
(-9.91358e-09 -4.25998e-08 -0.00100002)
(-6.22845e-08 -5.4531e-08 -0.000999981)
(-5.62299e-08 -5.42681e-08 -0.001)
(-4.4629e-08 -5.40309e-08 -0.00100002)
(-2.86765e-08 -5.38541e-08 -0.00100003)
(-9.86968e-09 -5.36571e-08 -0.00100004)
(-6.18697e-08 -6.05584e-08 -0.001)
(-5.5966e-08 -6.01395e-08 -0.00100002)
(-4.44164e-08 -5.98464e-08 -0.00100004)
(-2.85378e-08 -5.96451e-08 -0.00100005)
(-9.82001e-09 -5.9432e-08 -0.00100005)
(-8.59374e-08 -1.30684e-08 -0.000999929)
(-7.75162e-08 -1.29801e-08 -0.000999956)
(-6.15325e-08 -1.29013e-08 -0.000999979)
(-3.95266e-08 -1.28444e-08 -0.000999995)
(-1.36002e-08 -1.27915e-08 -0.001)
(-8.5906e-08 -3.79396e-08 -0.000999937)
(-7.74902e-08 -3.77022e-08 -0.000999964)
(-6.15096e-08 -3.74847e-08 -0.000999987)
(-3.95135e-08 -3.73264e-08 -0.001)
(-1.35959e-08 -3.71767e-08 -0.00100001)
(-8.55629e-08 -5.90019e-08 -0.000999953)
(-7.72083e-08 -5.86625e-08 -0.00099998)
(-6.1276e-08 -5.83426e-08 -0.001)
(-3.93671e-08 -5.81043e-08 -0.00100002)
(-1.35473e-08 -5.78744e-08 -0.00100003)
(-8.50675e-08 -7.4259e-08 -0.000999974)
(-7.68365e-08 -7.38515e-08 -0.001)
(-6.096e-08 -7.3474e-08 -0.00100002)
(-3.91639e-08 -7.31852e-08 -0.00100004)
(-1.34789e-08 -7.28959e-08 -0.00100005)
(-8.44098e-08 -8.25605e-08 -0.001)
(-7.64236e-08 -8.18761e-08 -0.00100003)
(-6.0615e-08 -8.1401e-08 -0.00100005)
(-3.89349e-08 -8.10742e-08 -0.00100006)
(-1.33991e-08 -8.07561e-08 -0.00100007)
(-1.1754e-07 -1.78081e-08 -0.000999904)
(-1.06027e-07 -1.76663e-08 -0.00099994)
(-8.41621e-08 -1.75421e-08 -0.000999971)
(-5.40588e-08 -1.74531e-08 -0.000999994)
(-1.85991e-08 -1.73767e-08 -0.00100001)
(-1.17466e-07 -5.16938e-08 -0.000999915)
(-1.05954e-07 -5.13096e-08 -0.000999951)
(-8.41027e-08 -5.09676e-08 -0.000999982)
(-5.40252e-08 -5.07205e-08 -0.001)
(-1.85889e-08 -5.05024e-08 -0.00100002)
(-1.16938e-07 -8.03813e-08 -0.000999936)
(-1.05502e-07 -7.98273e-08 -0.000999972)
(-8.37358e-08 -7.9323e-08 -0.001)
(-5.3796e-08 -7.895e-08 -0.00100003)
(-1.8513e-08 -7.86128e-08 -0.00100004)
(-1.16178e-07 -1.01143e-07 -0.000999965)
(-1.04903e-07 -1.00482e-07 -0.001)
(-8.32371e-08 -9.98847e-08 -0.00100003)
(-5.34767e-08 -9.94291e-08 -0.00100005)
(-1.84057e-08 -9.90062e-08 -0.00100007)
(-1.15161e-07 -1.12423e-07 -0.001)
(-1.04243e-07 -1.11427e-07 -0.00100004)
(-8.26898e-08 -1.10686e-07 -0.00100007)
(-5.31165e-08 -1.10166e-07 -0.00100009)
(-1.82824e-08 -1.09695e-07 -0.0010001)
(-1.60735e-07 -2.42608e-08 -0.000999869)
(-1.45006e-07 -2.40408e-08 -0.000999919)
(-1.15112e-07 -2.38526e-08 -0.000999961)
(-7.39437e-08 -2.3718e-08 -0.000999992)
(-2.5442e-08 -2.36063e-08 -0.00100001)
(-1.60585e-07 -7.04294e-08 -0.000999884)
(-1.4486e-07 -6.98248e-08 -0.000999934)
(-1.14998e-07 -6.93019e-08 -0.000999976)
(-7.3877e-08 -6.89241e-08 -0.00100001)
(-2.54207e-08 -6.8604e-08 -0.00100002)
(-1.59784e-07 -1.09525e-07 -0.000999913)
(-1.44152e-07 -1.08632e-07 -0.000999963)
(-1.14433e-07 -1.07847e-07 -0.001)
(-7.35218e-08 -1.07271e-07 -0.00100004)
(-2.53021e-08 -1.06776e-07 -0.00100005)
(-1.58658e-07 -1.37832e-07 -0.000999953)
(-1.43192e-07 -1.36741e-07 -0.001)
(-1.13653e-07 -1.35782e-07 -0.00100004)
(-7.30266e-08 -1.35068e-07 -0.00100007)
(-2.51362e-08 -1.34447e-07 -0.00100009)
(-1.57205e-07 -1.5296e-07 -0.001)
(-1.42103e-07 -1.5156e-07 -0.00100005)
(-1.12769e-07 -1.50446e-07 -0.00100009)
(-7.24577e-08 -1.49642e-07 -0.00100012)
(-2.49433e-08 -1.4895e-07 -0.00100014)
(-2.19823e-07 -3.30497e-08 -0.000999822)
(-1.98353e-07 -3.27207e-08 -0.00099989)
(-1.57486e-07 -3.24377e-08 -0.000999948)
(-1.01179e-07 -3.22322e-08 -0.000999991)
(-3.48163e-08 -3.20664e-08 -0.00100001)
(-2.19543e-07 -9.59579e-08 -0.000999843)
(-1.98097e-07 -9.50368e-08 -0.000999911)
(-1.57283e-07 -9.42409e-08 -0.000999969)
(-1.01052e-07 -9.36611e-08 -0.00100001)
(-3.47738e-08 -9.31893e-08 -0.00100003)
(-2.18318e-07 -1.49237e-07 -0.000999882)
(-1.97008e-07 -1.47844e-07 -0.00099995)
(-1.56412e-07 -1.46631e-07 -0.00100001)
(-1.00504e-07 -1.45745e-07 -0.00100005)
(-3.45904e-08 -1.45019e-07 -0.00100007)
(-2.16618e-07 -1.87817e-07 -0.000999937)
(-1.95506e-07 -1.86083e-07 -0.001)
(-1.55206e-07 -1.84571e-07 -0.00100006)
(-9.9741e-08 -1.83462e-07 -0.0010001)
(-3.43346e-08 -1.82546e-07 -0.00100012)
(-2.14516e-07 -2.08183e-07 -0.001)
(-1.93762e-07 -2.0611e-07 -0.00100007)
(-1.53805e-07 -2.04418e-07 -0.00100012)
(-9.88486e-08 -2.03182e-07 -0.00100016)
(-3.40327e-08 -2.02164e-07 -0.00100018)
(-3.00707e-07 -4.50442e-08 -0.000999758)
(-2.7142e-07 -4.45466e-08 -0.000999851)
(-2.15546e-07 -4.4116e-08 -0.000999931)
(-1.38508e-07 -4.38002e-08 -0.000999989)
(-4.76681e-08 -4.35565e-08 -0.00100002)
(-3.00209e-07 -1.3079e-07 -0.000999786)
(-2.70976e-07 -1.29382e-07 -0.000999879)
(-2.15187e-07 -1.28163e-07 -0.000999959)
(-1.38281e-07 -1.27271e-07 -0.00100002)
(-4.75925e-08 -1.26574e-07 -0.00100005)
(-2.98323e-07 -2.03381e-07 -0.00099984)
(-2.69299e-07 -2.01229e-07 -0.000999932)
(-2.13846e-07 -1.99364e-07 -0.00100001)
(-1.37432e-07 -1.97999e-07 -0.00100007)
(-4.7307e-08 -1.96925e-07 -0.0010001)
(-2.9571e-07 -2.55884e-07 -0.000999914)
(-2.66979e-07 -2.53188e-07 -0.00100001)
(-2.11988e-07 -2.50852e-07 -0.00100008)
(-1.36253e-07 -2.49139e-07 -0.00100014)
(-4.691e-08 -2.47785e-07 -0.00100017)
(-2.92537e-07 -2.83455e-07 -0.001)
(-2.64268e-07 -2.80286e-07 -0.00100009)
(-2.09816e-07 -2.77666e-07 -0.00100017)
(-1.3487e-07 -2.75756e-07 -0.00100022)
(-4.64419e-08 -2.74246e-07 -0.00100025)
(-4.11485e-07 -6.14298e-08 -0.00099967)
(-3.71553e-07 -6.06648e-08 -0.000999798)
(-2.95155e-07 -6.0006e-08 -0.000999908)
(-1.8972e-07 -5.9522e-08 -0.000999987)
(-6.53069e-08 -5.91631e-08 -0.00100003)
(-4.10631e-07 -1.78353e-07 -0.000999709)
(-3.70789e-07 -1.7618e-07 -0.000999837)
(-2.9454e-07 -1.74309e-07 -0.000999946)
(-1.89331e-07 -1.72932e-07 -0.00100003)
(-6.51773e-08 -1.71895e-07 -0.00100007)
(-4.07732e-07 -2.77255e-07 -0.000999783)
(-3.68198e-07 -2.73918e-07 -0.000999909)
(-2.92467e-07 -2.7105e-07 -0.00100002)
(-1.88007e-07 -2.68939e-07 -0.0010001)
(-6.47285e-08 -2.67335e-07 -0.00100014)
(-4.03708e-07 -3.48657e-07 -0.000999884)
(-3.64611e-07 -3.4446e-07 -0.00100001)
(-2.89602e-07 -3.4086e-07 -0.00100011)
(-1.86177e-07 -3.38214e-07 -0.00100019)
(-6.41086e-08 -3.36199e-07 -0.00100023)
(-3.98873e-07 -3.85904e-07 -0.001)
(-3.60402e-07 -3.81085e-07 -0.00100012)
(-2.86246e-07 -3.77019e-07 -0.00100023)
(-1.84035e-07 -3.74063e-07 -0.00100031)
(-6.33814e-08 -3.71812e-07 -0.00100035)
(-5.63292e-07 -8.38255e-08 -0.000999551)
(-5.08886e-07 -8.26493e-08 -0.000999727)
(-4.04426e-07 -8.16389e-08 -0.000999877)
(-2.60065e-07 -8.0893e-08 -0.000999986)
(-8.95452e-08 -8.03554e-08 -0.00100004)
(-5.61871e-07 -2.43332e-07 -0.000999604)
(-5.07596e-07 -2.39976e-07 -0.000999779)
(-4.03389e-07 -2.37093e-07 -0.000999929)
(-2.594e-07 -2.34961e-07 -0.00100004)
(-8.93205e-08 -2.33404e-07 -0.0010001)
(-5.57426e-07 -3.78095e-07 -0.000999705)
(-5.03585e-07 -3.7292e-07 -0.000999878)
(-4.00173e-07 -3.68492e-07 -0.00100003)
(-2.57331e-07 -3.65219e-07 -0.00100013)
(-8.86152e-08 -3.6281e-07 -0.00100019)
(-5.51252e-07 -4.75173e-07 -0.000999843)
(-4.9803e-07 -4.68638e-07 -0.00100001)
(-3.95742e-07 -4.63069e-07 -0.00100016)
(-2.54485e-07 -4.58971e-07 -0.00100026)
(-8.76447e-08 -4.5595e-07 -0.00100032)
(-5.43922e-07 -5.25275e-07 -0.001)
(-4.91482e-07 -5.17973e-07 -0.00100017)
(-3.90541e-07 -5.11704e-07 -0.00100031)
(-2.51154e-07 -5.07131e-07 -0.00100042)
(-8.65077e-08 -5.03772e-07 -0.00100047)
(-7.71453e-07 -1.14465e-07 -0.000999388)
(-6.97408e-07 -1.12661e-07 -0.000999629)
(-5.54603e-07 -1.11102e-07 -0.000999836)
(-3.56837e-07 -1.09941e-07 -0.000999986)
(-1.22907e-07 -1.09125e-07 -0.00100007)
(-7.69126e-07 -3.32169e-07 -0.000999461)
(-6.95265e-07 -3.27004e-07 -0.000999701)
(-5.5286e-07 -3.22543e-07 -0.000999906)
(-3.55703e-07 -3.19227e-07 -0.00100006)
(-1.22518e-07 -3.16871e-07 -0.00100014)
(-7.62328e-07 -5.15802e-07 -0.000999599)
(-6.89059e-07 -5.07826e-07 -0.000999836)
(-5.47863e-07 -5.00973e-07 -0.00100004)
(-3.52469e-07 -4.95892e-07 -0.00100019)
(-1.21409e-07 -4.92257e-07 -0.00100027)
(-7.52889e-07 -6.47696e-07 -0.000999787)
(-6.80486e-07 -6.37614e-07 -0.00100002)
(-5.41001e-07 -6.28997e-07 -0.00100022)
(-3.48037e-07 -6.22641e-07 -0.00100036)
(-1.19888e-07 -6.18091e-07 -0.00100044)
(-7.41764e-07 -7.14991e-07 -0.00100001)
(-6.70362e-07 -7.03836e-07 -0.00100023)
(-5.32937e-07 -6.94213e-07 -0.00100043)
(-3.4285e-07 -6.87143e-07 -0.00100057)
(-1.18109e-07 -6.82106e-07 -0.00100065)
(-1.05705e-06 -1.56427e-07 -0.000999165)
(-9.56455e-07 -1.53668e-07 -0.000999497)
(-7.6134e-07 -1.5125e-07 -0.000999781)
(-4.90271e-07 -1.49431e-07 -0.000999989)
(-1.68952e-07 -1.48177e-07 -0.0010001)
(-1.05328e-06 -4.53751e-07 -0.000999265)
(-9.52935e-07 -4.45838e-07 -0.000999595)
(-7.5843e-07 -4.38926e-07 -0.000999877)
(-4.88347e-07 -4.3374e-07 -0.00100008)
(-1.68282e-07 -4.30136e-07 -0.00100019)
(-1.04292e-06 -7.04033e-07 -0.000999454)
(-9.43367e-07 -6.91825e-07 -0.000999779)
(-7.50652e-07 -6.81222e-07 -0.00100006)
(-4.83264e-07 -6.73299e-07 -0.00100026)
(-1.66524e-07 -6.6777e-07 -0.00100037)
(-1.02856e-06 -8.8307e-07 -0.000999711)
(-9.30192e-07 -8.67661e-07 -0.00100003)
(-7.40007e-07 -8.54356e-07 -0.0010003)
(-4.76333e-07 -8.44473e-07 -0.0010005)
(-1.64131e-07 -8.37588e-07 -0.00100061)
(-1.01161e-06 -9.7336e-07 -0.00100001)
(-9.14656e-07 -9.56236e-07 -0.00100032)
(-7.27528e-07 -9.41463e-07 -0.00100059)
(-4.68257e-07 -9.30537e-07 -0.00100078)
(-1.61352e-07 -9.22941e-07 -0.00100089)
(-1.44908e-06 -2.14e-07 -0.00099886)
(-1.31288e-06 -2.09788e-07 -0.000999316)
(-1.04662e-06 -2.0602e-07 -0.000999708)
(-6.74885e-07 -2.03134e-07 -0.000999996)
(-2.32757e-07 -2.01174e-07 -0.00100015)
(-1.44307e-06 -6.20462e-07 -0.000998997)
(-1.30715e-06 -6.08385e-07 -0.00099945)
(-1.04177e-06 -5.97639e-07 -0.000999839)
(-6.71605e-07 -5.89436e-07 -0.00100013)
(-2.31597e-07 -5.83831e-07 -0.00100028)
(-1.42735e-06 -9.61782e-07 -0.000999256)
(-1.29242e-06 -9.43177e-07 -0.000999702)
(-1.02959e-06 -9.26752e-07 -0.00100008)
(-6.63515e-07 -9.14295e-07 -0.00100037)
(-2.28766e-07 -9.0577e-07 -0.00100052)
(-1.40559e-06 -1.20464e-06 -0.000999609)
(-1.27221e-06 -1.18119e-06 -0.00100005)
(-1.01303e-06 -1.16068e-06 -0.00100042)
(-6.52596e-07 -1.14525e-06 -0.00100069)
(-2.24965e-07 -1.13474e-06 -0.00100084)
(-1.37983e-06 -1.32534e-06 -0.00100002)
(-1.24846e-06 -1.29912e-06 -0.00100044)
(-9.93736e-07 -1.27641e-06 -0.00100081)
(-6.39995e-07 -1.2595e-06 -0.00100107)
(-2.20608e-07 -1.24801e-06 -0.00100122)
(-1.98741e-06 -2.93224e-07 -0.000998439)
(-1.80413e-06 -2.86774e-07 -0.000999066)
(-1.44159e-06 -2.80836e-07 -0.000999609)
(-9.3156e-07 -2.76163e-07 -0.00100001)
(-3.21684e-07 -2.73019e-07 -0.00100023)
(-1.97793e-06 -8.49732e-07 -0.000998629)
(-1.79479e-06 -8.31298e-07 -0.000999251)
(-1.43343e-06 -8.14438e-07 -0.000999789)
(-9.25877e-07 -8.01226e-07 -0.00100019)
(-3.19637e-07 -7.92299e-07 -0.0010004)
(-1.95418e-06 -1.31564e-06 -0.000998986)
(-1.77204e-06 -1.28735e-06 -0.000999598)
(-1.41413e-06 -1.26178e-06 -0.00100013)
(-9.12761e-07 -1.24194e-06 -0.00100051)
(-3.1498e-07 -1.22854e-06 -0.00100072)
(-1.92142e-06 -1.64485e-06 -0.00099947)
(-1.74106e-06 -1.60931e-06 -0.00100007)
(-1.38821e-06 -1.57765e-06 -0.00100058)
(-8.9535e-07 -1.55343e-06 -0.00100096)
(-3.08848e-07 -1.53716e-06 -0.00100116)
(-1.88254e-06 -1.80521e-06 -0.00100003)
(-1.70485e-06 -1.76527e-06 -0.00100061)
(-1.35838e-06 -1.73037e-06 -0.00100111)
(-8.75585e-07 -1.7041e-06 -0.00100148)
(-3.0195e-07 -1.68661e-06 -0.00100167)
(-2.72649e-06 -4.02602e-07 -0.000997858)
(-2.48255e-06 -3.92667e-07 -0.000998721)
(-1.99097e-06 -3.83127e-07 -0.000999476)
(-1.29099e-06 -3.75338e-07 -0.00100004)
(-4.46699e-07 -3.70115e-07 -0.00100035)
(-2.71169e-06 -1.16626e-06 -0.00099812)
(-2.4672e-06 -1.13805e-06 -0.000998976)
(-1.97696e-06 -1.11118e-06 -0.000999721)
(-1.28089e-06 -1.08934e-06 -0.00100028)
(-4.42982e-07 -1.07462e-06 -0.00100058)
(-2.67608e-06 -1.80319e-06 -0.000998614)
(-2.43182e-06 -1.76027e-06 -0.000999454)
(-1.94581e-06 -1.72007e-06 -0.00100018)
(-1.25901e-06 -1.68783e-06 -0.00100072)
(-4.35059e-07 -1.66613e-06 -0.00100102)
(-2.62718e-06 -2.24924e-06 -0.000999283)
(-2.38426e-06 -2.19566e-06 -0.0010001)
(-1.90478e-06 -2.14669e-06 -0.00100081)
(-1.23071e-06 -2.10819e-06 -0.00100133)
(-4.24917e-07 -2.0825e-06 -0.00100161)
(-2.56928e-06 -2.46036e-06 -0.00100005)
(-2.32928e-06 -2.3999e-06 -0.00100085)
(-1.8585e-06 -2.34637e-06 -0.00100153)
(-1.19939e-06 -2.30535e-06 -0.00100203)
(-4.13836e-07 -2.27847e-06 -0.0010023)
(-3.74006e-06 -5.54102e-07 -0.000997048)
(-3.42179e-06 -5.38628e-07 -0.000998238)
(-2.76016e-06 -5.22863e-07 -0.000999292)
(-1.79977e-06 -5.09403e-07 -0.00100009)
(-6.24734e-07 -5.00327e-07 -0.00100054)
(-3.71709e-06 -1.60555e-06 -0.000997411)
(-3.39613e-06 -1.56213e-06 -0.000998589)
(-2.73542e-06 -1.51832e-06 -0.000999626)
(-1.7812e-06 -1.48087e-06 -0.00100041)
(-6.17736e-07 -1.4554e-06 -0.00100085)
(-3.66434e-06 -2.47841e-06 -0.000998102)
(-3.34045e-06 -2.41328e-06 -0.000999255)
(-2.68372e-06 -2.34908e-06 -0.00100026)
(-1.74317e-06 -2.29507e-06 -0.00100102)
(-6.03557e-07 -2.25845e-06 -0.00100144)
(-3.59239e-06 -3.08284e-06 -0.000999028)
(-3.26704e-06 -3.00265e-06 -0.00100015)
(-2.61757e-06 -2.92657e-06 -0.00100112)
(-1.69579e-06 -2.86419e-06 -0.00100185)
(-5.86191e-07 -2.82235e-06 -0.00100224)
(-3.50815e-06 -3.35729e-06 -0.00100009)
(-3.1842e-06 -3.26635e-06 -0.00100118)
(-2.54548e-06 -3.18457e-06 -0.00100212)
(-1.64529e-06 -3.11996e-06 -0.00100281)
(-5.67951e-07 -3.07809e-06 -0.00100318)
(-5.12609e-06 -7.64381e-07 -0.000995906)
(-4.72655e-06 -7.39669e-07 -0.000997553)
(-3.84748e-06 -7.12528e-07 -0.000999033)
(-2.53183e-06 -6.88293e-07 -0.0010002)
(-8.83183e-07 -6.71736e-07 -0.00100085)
(-5.09052e-06 -2.21995e-06 -0.000996409)
(-4.6822e-06 -2.15216e-06 -0.000998032)
(-3.80212e-06 -2.07844e-06 -0.00099948)
(-2.49643e-06 -2.01123e-06 -0.00100062)
(-8.69504e-07 -1.96433e-06 -0.00100125)
(-5.01417e-06 -3.42047e-06 -0.000997391)
(-4.59301e-06 -3.32108e-06 -0.000998975)
(-3.71308e-06 -3.2161e-06 -0.00100037)
(-2.42647e-06 -3.12184e-06 -0.00100145)
(-8.42326e-07 -3.0564e-06 -0.00100204)
(-4.91021e-06 -4.24076e-06 -0.00099868)
(-4.47816e-06 -4.12173e-06 -0.00100021)
(-3.60338e-06 -4.00294e-06 -0.00100155)
(-2.34407e-06 -3.8991e-06 -0.00100256)
(-8.11268e-07 -3.8279e-06 -0.00100311)
(-4.79333e-06 -4.59206e-06 -0.00100018)
(-4.3552e-06 -4.45554e-06 -0.00100166)
(-3.49075e-06 -4.33187e-06 -0.00100295)
(-2.26029e-06 -4.2285e-06 -0.00100391)