FoamFile
{version 2.0; format ascii;class Cloud<passiveParticle>; location 0;object  positions;}
42
(
( -0.000477731 4.20216e-05 9.98619e-05 ) 0 
( -0.000332562 0.000179474 9.98463e-05 ) 0 
( -0.000323904 0.000425882 9.98218e-05 ) 0 
( -0.000494889 0.000322235 9.97876e-05 ) 0 
( -0.000102328 9.36854e-05 9.98782e-05 ) 0 
( -0.000170199 0.000296602 9.99001e-05 ) 0 
( -0.000485723 0.000184606 0.00024435 ) 0 
( -0.000324806 0.000302582 0.000257052 ) 0 
( -0.0002187 0.000133097 0.000257517 ) 0 
( -0.000174137 0.000433472 0.000246042 ) 0 
( -6.89603e-05 0.00026506 0.000269345 ) 0 
( -0.000380744 1.69675e-05 0.000272833 ) 0 
( -7.43017e-07 0.000432143 0.000355314 ) 0 
( -0.00035301 0.000167427 0.000401541 ) 0 
( -8.19143e-05 0.000114585 0.00040213 ) 0 
( -0.000409944 1.76775e-05 0.000520982 ) 0 
( -0.000363369 0.000415941 0.000417047 ) 0 
( -0.000202041 0.000297841 0.000414761 ) 0 
( -0.000148869 2.26373e-05 0.000580364 ) 0 
( -0.000145458 0.000222306 0.000591017 ) 0 
( -0.000403541 0.00028044 0.000558485 ) 0 
( -0.000225872 0.00040717 0.000580338 ) 0 
( -2.14372e-05 0.000289219 0.000732877 ) 0 
( -0.000305833 0.000118709 0.000658512 ) 0 
( -0.000496745 0.000340573 0.000724775 ) 0 
( -0.000156685 0.000461004 0.000759947 ) 0 
( -0.000321101 3.88652e-06 0.000821493 ) 0 
( -0.000351627 0.000478029 0.000718642 ) 0 
( -0.000269686 0.000297034 0.000741297 ) 0 
( -0.00044179 0.000162927 0.000798288 ) 0 
( -0.000112722 0.000112728 0.000755123 ) 0 
( -0.000330846 0.000265752 0.000929104 ) 0 
( -0.000139715 0.000312062 0.000892507 ) 0 
( -0.000190027 0.000124117 0.000939163 ) 0 
( -0.000422943 0.00044114 0.000901719 ) 0 
( -0.000352913 8.46162e-05 0.0010482 ) 0 
( -0.000242749 0.000454936 0.000987221 ) 0 
( -1.38783e-05 0.000207661 0.00108332 ) 0 
( -0.00018712 0.000129429 0.00115062 ) 0 
( -0.000407696 0.000452437 0.00110079 ) 0 
( -0.000169881 0.000326601 0.00112214 ) 0 
( -0.000358522 0.000262491 0.00113937 ) 0 
)
