# vtk DataFile Version 4.0
Generated by LIGGGHTS
ASCII
DATASET POLYDATA
POINTS 1400 float
-4.94233 -4.19904 0.499785 -2.84078 -4.07521 0.499975 -1.84429 -4.15891 0.499978 
-0.823126 -4.61404 0.499596 0.119907 -4.94617 0.499599 1.18708 -4.07063 0.499833 
1.58992 -4.98566 0.499883 2.38391 -4.45179 0.790315 3.23558 -4.88781 0.499696 
-4.38477 -3.37715 0.615201 -3.40036 -3.24658 0.499718 -2.36945 -3.19337 0.499727 
-0.976512 -3.62445 0.499474 0.161203 -3.71767 0.499967 1.32037 -3.07967 0.499792 
2.86046 -3.62224 0.499538 3.65686 -3.01792 0.499643 4.0775 -3.9809 0.499972 
4.64675 -3.15766 0.499943 -3.98309 -2.40069 0.499856 -2.9302 -2.36409 0.499661 
-1.48685 -2.80794 0.768552 -0.912272 -2.03497 0.499662 -0.321938 -2.84212 0.499755 
0.626855 -2.35941 0.499766 2.33552 -2.61835 0.499641 3.20549 -2.12563 0.499621 
-4.74435 -1.75228 0.4999 -3.48546 -1.54856 0.66085 -1.96916 -1.97446 0.499681 
-0.690863 -1.05999 0.499858 0.265656 -1.42505 0.499907 1.28078 -1.54655 0.499921 
2.96903 -1.15411 0.499935 2.22386 -1.70111 0.881316 4.25587 -1.76841 0.499755 
-4.07033 -0.753945 0.499556 -3.07574 -0.650888 0.499906 -2.00745 -0.963521 0.499826 
-0.751378 -0.0654129 0.582055 0.953519 -0.601665 0.499929 1.96268 -0.814736 0.499617 
2.74095 -0.180604 0.499517 3.92407 -0.825224 0.499834 4.92396 -0.807767 0.499977 
-4.7057 0.121193 0.499638 -3.70742 0.177772 0.499856 -2.71286 0.280717 0.499599 
-1.74353 0.0355204 0.499786 0.155049 0.348601 0.499474 1.15432 0.377891 0.499731 
2.10789 0.554 0.742843 3.01991 0.883543 0.499626 3.69752 0.148521 0.499733 
4.50611 0.736725 0.499677 -4.46854 1.09266 0.499975 -3.3309 1.03187 0.858703 
-3.38126 1.96381 0.499817 -2.42115 1.23925 0.499787 -1.45321 1.4958 0.49957 
-0.504187 1.13005 0.499662 0.479988 1.30556 0.499782 1.4357 1.29217 0.792464 
2.33593 1.61405 0.499647 3.81858 1.54875 0.499732 -4.35582 2.20543 0.499705 
-3.63954 2.92974 0.499569 -2.40599 2.2424 0.499618 -1.48629 2.43339 0.845013 
-0.599424 2.12631 0.499903 0.287235 2.58887 0.499976 1.21804 2.22335 0.499976 
2.14579 2.59658 0.499975 3.11674 2.35722 0.499521 4.62649 2.1578 0.499828 
4.05837 2.98367 0.499977 -4.23798 3.81186 0.499973 -4.88807 3.05202 0.499758 
-3.23666 3.84478 0.51613 -2.19595 3.13484 0.906989 -1.3112 3.3599 0.499723 
-0.311792 3.39037 0.499741 1.56241 3.40942 0.499646 2.56367 3.50509 0.499958 
3.66619 3.91026 0.499976 4.70901 3.97873 0.499829 -4.75025 4.81973 0.499523 
-3.75782 4.69802 0.499831 -2.75331 4.92879 0.499611 -2.25727 4.04582 0.49974 
-1.67103 4.85617 0.499782 -0.869592 4.25679 0.499624 0.84385 4.34877 0.499573 
2.44623 4.49827 0.499906 4.20084 4.85143 0.499484 -4.38924 -4.6024 1.23112 
-3.35352 -4.7591 1.23561 -2.18713 -4.73578 1.25252 -1.27378 -4.3258 1.34407 
-0.18993 -4.32102 1.21594 0.764201 -4.75442 1.23946 1.55809 -4.17496 1.42242 
2.51069 -4.04621 1.69728 2.94525 -4.96826 1.45282 3.38139 -4.09668 1.20849 
3.94254 -4.65928 1.81485 4.58095 -4.03621 1.36336 -4.61784 -3.49451 1.61712 
-3.744 -3.83868 1.2284 -2.79127 -3.97546 1.49921 -1.92554 -3.50107 1.34092 
-0.940313 -3.39188 1.47072 0.820394 -3.52219 1.2511 1.55741 -3.01589 1.84161 
2.07565 -3.39356 1.07485 3.91424 -3.30518 1.50743 -4.81598 -2.55582 1.09073 
-4.44968 -2.10156 1.92069 -3.90492 -2.82772 1.40051 -2.90508 -2.94371 1.31361 
-1.8251 -2.29561 1.55785 -0.838983 -2.39834 1.42794 0.217618 -2.7289 1.33369 
0.764602 -2.08585 1.86944 1.40267 -2.31062 1.13328 2.24077 -2.30467 1.67836 
2.98348 -2.86032 1.22142 3.8678 -2.35068 1.21369 -4.25109 -1.3582 1.27521 
-3.50458 -1.89357 1.66954 -2.61188 -1.76847 1.23704 -2.62161 -1.01116 1.88958 
-1.42554 -1.44785 1.15296 -0.0744046 -1.75569 1.38018 0.726521 -1.15792 1.34612 
1.69694 -1.2171 1.5797 3.06409 -1.79401 1.43202 3.94448 -1.32508 1.36538 
4.86693 -1.39341 1.74457 -4.46022 -0.369066 1.33553 -3.51243 -0.69567 1.39827 
-2.35654 -0.33928 1.19843 -1.37837 -0.250185 1.38558 -0.656355 -0.927911 1.52394 
0.0524154 -0.547819 0.92995 0.148394 -0.489151 1.92334 1.59357 -0.195217 1.19198 
2.50761 -0.688717 1.32816 3.66948 -0.210023 1.61262 4.49195 -0.0936948 1.05612 
-4.87474 0.65969 1.32493 -3.90309 0.454352 1.44056 -2.19031 0.643963 1.27029 
-1.2175 0.689059 1.04368 -0.575903 0.221217 1.75095 0.0178931 0.901073 1.32106 
0.660995 0.135609 1.33497 1.43548 0.648659 1.70435 2.87544 0.335592 1.34486 
3.71889 0.856162 1.2138 4.33259 0.478563 1.90664 -4.6139 1.9102 1.41942 
-3.62283 1.78344 1.45305 -2.14357 1.73695 1.32126 -2.86882 1.19868 1.75114 
-1.55998 1.13766 1.86869 -0.878043 1.60823 1.30921 0.0744981 1.8921 1.20055 
1.21392 1.92947 1.53007 2.30429 1.12604 1.57534 3.0748 1.62005 1.17335 
4.5261 1.45036 1.1994 -4.27402 2.8411 1.26691 -3.00161 2.624 1.2059 
-1.51582 2.31876 1.83793 -0.536279 2.77694 1.25655 0.559702 2.6846 1.5693 
1.55164 2.84826 1.32698 2.21379 2.09929 1.36498 3.06277 2.39949 1.79938 
3.84096 2.27726 1.18398 4.74398 2.67307 1.34853 -4.83914 3.51277 1.75335 
-3.55532 3.52133 1.40876 -2.61404 3.48711 1.74388 -1.38809 3.24727 1.49009 
-0.00919129 3.49455 1.71142 -0.856223 3.99985 1.87827 0.707164 3.49974 1.00959 
1.93923 3.91924 1.27267 2.42051 3.16043 1.7108 3.27034 3.11684 1.13086 
4.274 3.55372 1.29334 -4.46763 4.33809 1.32871 -3.588 4.4441 1.79208 
-2.69384 4.40101 1.34651 -1.60584 4.19157 1.24399 -0.728592 4.81652 1.31576 
-0.00726519 4.19921 1.00237 0.193509 4.6796 1.85578 1.04476 4.31603 1.47821 
1.95357 4.9069 1.42674 2.94022 4.05337 1.24663 3.84924 4.45718 1.34818 
4.72836 4.94093 1.34368 -4.91055 -4.50861 2.09581 -4.45548 -4.77274 2.94582 
-3.83775 -4.43571 2.04831 -2.7791 -4.88738 2.04376 -2.75302 -4.09699 2.65526 
-1.94896 -4.20936 2.07209 -1.71191 -4.75837 2.87348 -0.585033 -4.62705 2.13353 
0.377043 -4.36205 2.07352 1.25942 -4.84307 2.10357 2.93225 -4.62791 2.39262 
2.10359 -4.11175 2.6082 4.27795 -4.87058 2.73252 -4.40015 -3.77923 2.55056 
-3.5663 -3.43001 2.12324 -2.47254 -3.28228 2.14859 -1.06119 -3.78382 2.3822 
-1.90429 -3.6263 2.89551 -0.0640262 -3.47436 1.94422 -0.572285 -3.09322 2.9148 
0.28383 -3.73311 2.84532 1.1975 -3.83366 2.29031 1.87096 -3.15593 2.78712 
2.59917 -3.13634 2.10224 3.55142 -3.85404 2.26033 3.15571 -3.22408 2.92841 
4.55925 -3.68578 2.29991 -4.83671 -2.89413 2.39139 -3.74844 -2.52073 2.49718 
-2.69045 -2.30945 2.07411 -2.07444 -2.63013 2.79342 -1.2772 -2.82094 2.22102 
-1.22422 -2.1255 2.94306 -0.178337 -2.49175 2.22027 0.697656 -2.96972 2.3494 
0.726151 -2.13536 2.89908 1.63034 -2.23958 2.46756 3.37749 -2.50942 2.07038 
4.47893 -2.27855 2.00137 4.07353 -2.89636 2.67507 -4.7668 -1.62228 2.7515 
-3.45516 -1.19956 2.40832 -2.11092 -1.63041 2.52435 -0.803442 -1.69984 2.14209 
-0.224488 -1.80977 2.94968 0.4519 -1.30654 2.41207 1.65744 -1.24632 2.57827 
2.74198 -1.80378 2.38369 4.13957 -1.09486 2.36216 4.291 -1.91503 2.91342 
-4.38083 -0.898743 2.17966 -3.20013 -0.248217 2.23606 -2.37478 -0.658103 2.79179 
-1.51014 -0.994447 2.0402 -0.331055 -0.0488304 2.68195 -0.72819 -0.957752 2.80768 
0.586947 -0.401488 2.86262 1.14279 -0.514216 2.0256 1.72605 -0.300546 2.89524 
2.14211 -0.0637071 2.01754 2.69591 -0.490777 2.73226 3.17726 -0.98508 2.00848 
3.72751 -0.306544 2.81867 4.76153 -0.422888 1.96058 4.93447 -0.681424 2.91035 
-4.42249 0.0996077 2.21782 -4.92231 0.950782 2.37729 -3.70097 0.895325 2.31467 
-2.04695 0.0533851 2.06439 -2.77407 0.601084 2.5471 -1.13381 0.529373 2.53752 
0.863228 0.49201 2.50906 2.32512 0.78418 2.5147 3.20204 0.359115 2.28912 
3.91381 0.93408 2.69188 -4.27615 1.71282 2.3394 -3.28468 1.79602 2.43675 
-2.25877 1.5064 2.481 -1.25114 1.73697 2.60682 -0.497094 1.18326 2.12989 
0.590926 1.32278 2.02366 0.0503306 1.73743 2.75593 1.58885 1.42911 2.31022 
3.19949 1.34576 2.12653 4.14092 1.69795 2.08804 -4.66984 2.61346 2.15634 
-3.61963 2.62598 1.99145 -3.91656 2.73027 2.9403 -2.49657 2.36596 2.02917 
-1.61324 2.65364 2.77487 -0.542176 2.17942 2.05799 0.108187 2.83038 2.4493 
0.879433 2.19421 2.43439 1.83971 2.39613 2.24316 2.71015 2.41587 2.73481 
3.69581 2.45145 2.57132 4.82597 2.24182 2.93563 -4.00361 3.49498 2.30213 
-4.86644 3.33316 2.82196 -3.12717 3.92728 2.51352 -2.44832 3.19627 2.68579 
-0.845292 3.10151 2.31705 0.398391 3.95082 2.50899 1.07107 3.44531 1.96895 
1.80208 3.31366 2.63821 2.79846 3.40644 2.60307 3.52621 3.62453 1.95316 
4.36606 3.08087 2.1792 4.127 3.89718 2.70433 -4.43836 4.23673 2.81197 
-3.50243 4.87316 2.69106 -2.23837 4.28627 2.22913 -1.50632 4.9043 1.93794 
-1.37444 4.3111 2.7317 -0.403492 4.53265 2.64399 0.54071 4.9306 2.76073 
1.58094 4.23467 2.31797 1.7648 4.98772 2.94961 2.55841 4.32646 2.12944 
3.51614 4.56788 2.2842 4.81953 4.36334 2.15431 -4.85745 -4.83377 3.85917 
-3.65488 -4.18847 3.07671 -2.83572 -4.08581 3.65126 -2.27421 -4.86849 3.91945 
-0.791681 -4.43385 3.09224 0.103927 -4.57687 3.51323 1.07285 -4.32019 3.15497 
2.01284 -4.59866 3.84666 3.50306 -4.43409 3.19029 4.80295 -4.14078 3.16984 
4.19898 -4.44039 3.90831 -4.07715 -3.33678 3.38672 -3.15887 -3.21511 3.01045 
-2.37507 -3.13095 3.62518 -1.86074 -3.96188 3.83607 -0.486936 -3.70298 3.70252 
0.498198 -3.63967 3.86113 1.64824 -3.68308 3.67862 1.02264 -3.00459 3.2942 
2.60123 -3.87793 3.44313 4.00029 -3.59494 3.40967 4.91797 -3.23454 3.57595 
-4.54074 -2.46269 3.24344 -3.6049 -2.52261 3.7243 -2.96652 -2.19435 3.02817 
-2.15571 -2.03157 3.59015 -1.40388 -2.96559 3.45476 0.109981 -2.64931 3.49547 
1.14599 -2.15443 3.80633 2.01662 -2.75599 3.74642 3.01368 -2.76239 3.82255 
3.35719 -2.25058 3.0355 4.06136 -2.62378 3.63923 -4.72058 -1.12705 3.73582 
-3.85181 -1.74481 3.1464 -3.01223 -1.22723 3.31084 -1.6078 -1.24112 3.29574 
-0.710034 -1.38311 3.71236 0.94465 -1.23705 3.27921 0.247772 -1.71544 3.82566 
1.88679 -1.03968 3.54916 2.21241 -1.92696 3.22282 3.02118 -1.69042 3.79215 
3.35064 -1.25393 2.95541 4.527 -1.77069 3.87396 -4.00948 -0.724377 3.09158 
-3.45825 -0.260841 3.82011 -1.46113 -0.30174 2.98613 -1.73251 -0.0175336 3.90527 
-0.141161 -0.581589 3.52437 2.26263 -0.136825 3.75729 3.13812 -0.615831 3.69522 
3.93418 -0.0206312 3.80351 4.14726 -0.938693 3.4703 -4.47706 0.1509 3.21476 
[...]
POINT_DATA 1400
FIELD FieldData 7
id 1 1400 int
48 62 69 126 50 115 30 89 31 
120 60 12 7 23 28 51 64 29 
24 49 79 129 104 11 56 59 14 
20 99 45 1 18 22 78 82 109 
27 15 19 105 26 4 86 43 67 
54 65 37 80 16 35 110 2 114 
46 33 108 3 71 21 42 55 119 
53 97 52 94 8 84 25 13 6 
63 47 36 41 9 81 87 118 40 
34 44 5 76 38 58 57 17 10 
88 32 39 72 112 161 165 151 214 
77 106 168 213 198 136 231 123 166 
127 284 210 220 100 157 93 197 103 
212 194 172 174 132 83 180 102 160 
70 135 164 217 155 191 61 85 150 
207 159 66 196 139 258 117 169 147 
98 227 91 158 309 130 101 167 143 
73 125 113 124 171 215 137 193 68 
153 133 190 187 146 74 131 186 163 
128 134 142 203 122 173 154 138 175 
95 211 162 222 185 121 144 206 96 
116 235 92 170 107 178 152 111 141 
90 148 75 156 149 192 145 260 291 
189 263 321 244 380 195 199 221 316 
322 336 333 280 266 281 348 140 303 
255 253 318 245 233 319 205 262 272 
225 312 248 324 249 289 298 228 247 
223 282 234 274 283 204 254 285 279 
241 313 302 224 359 264 184 188 257 
230 177 355 181 269 179 369 270 295 
208 271 265 216 250 277 238 273 256 
331 176 326 259 232 226 218 311 239 
261 236 219 243 353 183 315 200 276 
240 201 297 293 379 252 296 325 314 
182 237 209 275 327 242 278 306 292 
376 229 267 328 290 320 268 398 202 
332 251 431 349 404 484 310 377 343 
428 341 346 396 422 350 448 455 371 
399 405 342 339 344 389 288 400 375 
384 420 330 402 433 432 287 356 503 
335 323 360 419 329 378 440 305 391 
354 453 368 415 317 474 337 407 383 
470 401 373 338 358 308 414 361 301 
421 387 334 424 435 509 304 429 372 
299 393 347 294 340 412 367 300 352 
479 418 489 461 374 403 366 246 362 
286 459 430 388 406 390 416 381 345 
445 423 392 357 409 413 385 425 363 
382 451 397 410 307 364 365 351 386 
477 468 558 542 513 426 446 443 516 
539 457 514 501 456 553 500 492 557 
478 465 482 505 481 518 507 544 460 
411 529 581 555 488 417 370 458 442 
595 548 439 490 528 462 498 472 556 
510 549 471 427 515 535 434 506 550 
534 444 527 408 537 525 493 614 541 
499 522 552 437 480 475 554 469 601 
463 521 449 609 512 447 452 524 504 
450 531 617 497 519 559 543 394 438 
454 483 473 546 486 395 562 545 466 
520 523 496 530 487 532 491 495 511 
436 604 494 547 502 464 590 441 602 
467 540 615 476 672 626 616 611 536 
576 669 631 572 608 589 570 709 718 
571 648 569 632 588 587 485 579 649 
655 582 533 563 633 586 618 508 634 
538 670 665 580 610 564 625 658 568 
607 675 654 651 719 664 676 594 660 
647 627 596 517 593 561 685 711 573 
605 612 600 621 574 567 641 577 673 
591 674 653 671 560 662 599 629 551 
721 622 695 613 656 584 619 598 689 
526 585 566 583 714 666 578 639 628 
575 663 620 693 650 657 623 565 652 
667 597 606 603 701 592 659 688 804 
728 642 741 643 727 686 831 680 774 
661 822 636 732 733 750 722 745 699 
668 738 825 696 700 780 703 767 720 
764 697 724 702 717 752 769 821 740 
775 716 682 713 802 698 690 729 683 
823 766 706 815 772 795 710 746 646 
739 677 624 737 743 811 768 630 694 
761 679 759 773 687 640 762 787 708 
725 778 726 635 707 771 784 637 756 
715 748 845 644 783 678 754 786 684 
819 753 785 779 758 691 765 751 730 
776 704 757 692 705 824 760 723 763 
638 790 681 883 747 749 731 645 899 
886 837 826 879 800 854 880 798 865 
950 832 851 807 808 876 828 735 744 
957 833 844 884 791 897 874 835 777 
834 869 846 849 947 810 914 836 818 
794 770 742 755 905 848 901 856 863 
891 829 878 712 842 864 788 843 866 
820 873 809 872 890 781 896 734 805 
857 858 907 736 806 867 827 923 792 
841 855 812 906 813 782 889 789 882 
793 803 944 847 801 814 1003 877 839 
816 852 888 911 861 840 796 893 859 
953 931 799 871 797 958 904 868 887 
830 920 850 838 894 817 935 929 898 
986 1005 862 1029 926 951 938 990 1020 
937 969 941 1010 909 915 903 925 1000 
1043 934 961 860 968 1030 940 881 997 
875 995 948 1067 943 981 949 960 971 
870 959 982 853 984 1006 1034 955 966 
924 1065 998 1025 892 939 921 913 1018 
932 1009 942 993 928 930 900 1007 974 
946 1050 1011 1059 967 1016 954 979 1049 
1053 956 922 1004 992 910 1047 976 917 
977 912 991 999 908 885 965 919 1008 
1013 918 970 927 973 1064 980 933 895 
1001 1037 916 983 994 996 963 1046 987 
936 1012 945 1015 964 902 1114 1098 1121 
1187 1119 1014 1039 1077 1104 972 1099 989 
1127 1024 1045 1180 1108 1032 1158 1125 1027 
1107 1054 1041 1076 1133 1122 1103 1073 1126 
1072 1021 1071 975 1090 1058 1026 1142 1097 
1023 1081 1066 1089 1028 978 952 1084 1128 
1052 1088 1118 1056 1101 1022 1038 1134 1063 
1085 1100 1061 1035 988 1112 1095 1110 1086 
1070 1117 1040 1093 1120 1068 1069 1055 1017 
1123 1111 1175 1079 1019 985 1115 1087 1096 
1106 1051 1124 1116 1140 1188 1075 1057 1036 
1002 1031 962 1109 1060 1083 1094 1033 1177 
1048 1176 1102 1105 1062 1091 1130 1044 1074 
1161 1042 1129 1272 1168 1221 1242 1170 1191 
1244 1184 1299 1182 1211 1245 1351 1236 1139 
1147 1229 1218 1156 1233 1154 1215 1146 1198 
1225 1181 1169 1202 1179 1222 1162 1217 1226 
1206 1171 1167 1300 1150 1164 1152 1197 1201 
1141 1080 1192 1138 1224 1189 1297 1205 1155 
1255 1160 1196 1214 1247 1144 1092 1183 1166 
1223 1209 1149 1082 1157 1194 1136 1178 1292 
1153 1288 1145 1078 1231 1113 1219 1172 1207 
1220 1204 1193 1241 1195 1186 1165 1203 1227 
1131 1185 1173 1216 1137 1132 1159 1163 1246 
1234 1210 1208 1212 1243 1135 1148 1174 1151 
1199 1235 1143 1283 1230 1337 1293 1304 1294 
1323 1213 1382 1291 1342 1331 1253 1269 1317 
1310 1254 1347 1261 1262 1273 1238 1308 1389 
1265 1252 1353 1339 1281 1301 1239 1341 1307 
1320 1354 1282 1274 1287 1285 1350 1251 1343 
1309 1270 1348 1318 1302 1376 1237 1290 1315 
1333 1303 1264 1276 1296 1346 1275 1240 1334 
1263 1258 1355 1271 1228 1357 1327 1250 1359 
1256 1257 1340 1284 1352 1358 1298 1267 1380 
1248 1326 1249 1319 1286 1322 1266 1278 1324 
1200 1268 1190 1316 1289 1277 1330 1377 1336 
1313 1400 1259 1311 1280 1232 1329 1295 1321 
1279 1344 1260 1385 1312 1399 1335 1394 1362 
1360 1392 1363 1305 1371 1365 1325 1374 1378 
1368 1328 1375 1364 1370 1383 1381 1398 1356 
1386 1388 1306 1366 1384 1314 1391 1372 1338 
1395 1349 1332 1393 1361 1379 1373 1387 1390 
1397 1396 1367 1369 1345 
type 1 1400 int
1 1 1 1 1 1 1 1 1 
1 1 1 1 1 1 1 1 1 
1 1 1 1 1 1 1 1 1 
1 1 1 1 1 1 1 1 1 
1 1 1 1 1 1 1 1 1 
1 1 1 1 1 1 1 1 1 
1 1 1 1 1 1 1 1 1 
1 1 1 1 1 1 1 1 1 
1 1 1 1 1 1 1 1 1 
1 1 1 1 1 1 1 1 1 
1 1 1 1 1 1 1 1 1 
1 1 1 1 1 1 1 1 1 
1 1 1 1 1 1 1 1 1 
1 1 1 1 1 1 1 1 1 
1 1 1 1 1 1 1 1 1 
1 1 1 1 1 1 1 1 1 
1 1 1 1 1 1 1 1 1 
1 1 1 1 1 1 1 1 1 
1 1 1 1 1 1 1 1 1 
1 1 1 1 1 1 1 1 1 
1 1 1 1 1 1 1 1 1 
1 1 1 1 1 1 1 1 1 
1 1 1 1 1 1 1 1 1 
1 1 1 1 1 1 1 1 1 
1 1 1 1 1 1 1 1 1 
1 1 1 1 1 1 1 1 1 
1 1 1 1 1 1 1 1 1 
1 1 1 1 1 1 1 1 1 
1 1 1 1 1 1 1 1 1 
1 1 1 1 1 1 1 1 1 
1 1 1 1 1 1 1 1 1 
1 1 1 1 1 1 1 1 1 
1 1 1 1 1 1 1 1 1 
1 1 1 1 1 1 1 1 1 
1 1 1 1 1 1 1 1 1 
1 1 1 1 1 1 1 1 1 
1 1 1 1 1 1 1 1 1 
1 1 1 1 1 1 1 1 1 
1 1 1 1 1 1 1 1 1 
1 1 1 1 1 1 1 1 1 
1 1 1 1 1 1 1 1 1 
1 1 1 1 1 1 1 1 1 
1 1 1 1 1 1 1 1 1 
1 1 1 1 1 1 1 1 1 
1 1 1 1 1 1 1 1 1 
1 1 1 1 1 1 1 1 1 
1 1 1 1 1 1 1 1 1 
1 1 1 1 1 1 1 1 1 
1 1 1 1 1 1 1 1 1 
1 1 1 1 1 1 1 1 1 
1 1 1 1 1 1 1 1 1 
1 1 1 1 1 1 1 1 1 
1 1 1 1 1 1 1 1 1 
1 1 1 1 1 1 1 1 1 
1 1 1 1 1 1 1 1 1 
1 1 1 1 1 1 1 1 1 
1 1 1 1 1 1 1 1 1 
1 1 1 1 1 1 1 1 1 
1 1 1 1 1 1 1 1 1 
1 1 1 1 1 1 1 1 1 
1 1 1 1 1 1 1 1 1 
1 1 1 1 1 1 1 1 1 
1 1 1 1 1 1 1 1 1 
1 1 1 1 1 1 1 1 1 
1 1 1 1 1 1 1 1 1 
1 1 1 1 1 1 1 1 1 
1 1 1 1 1 1 1 1 1 
1 1 1 1 1 1 1 1 1 
1 1 1 1 1 1 1 1 1 
1 1 1 1 1 1 1 1 1 
1 1 1 1 1 1 1 1 1 
1 1 1 1 1 1 1 1 1 
1 1 1 1 1 1 1 1 1 
1 1 1 1 1 1 1 1 1 
1 1 1 1 1 1 1 1 1 
1 1 1 1 1 1 1 1 1 
1 1 1 1 1 1 1 1 1 
1 1 1 1 1 1 1 1 1 
1 1 1 1 1 1 1 1 1 
1 1 1 1 1 1 1 1 1 
1 1 1 1 1 1 1 1 1 
1 1 1 1 1 1 1 1 1 
1 1 1 1 1 1 1 1 1 
1 1 1 1 1 1 1 1 1 
1 1 1 1 1 1 1 1 1 
1 1 1 1 1 1 1 1 1 
1 1 1 1 1 1 1 1 1 
1 1 1 1 1 1 1 1 1 
1 1 1 1 1 1 1 1 1 
1 1 1 1 1 1 1 1 1 
1 1 1 1 1 1 1 1 1 
1 1 1 1 1 1 1 1 1 
1 1 1 1 1 1 1 1 1 
1 1 1 1 1 1 1 1 1 
1 1 1 1 1 1 1 1 1 
1 1 1 1 1 1 1 1 1 
1 1 1 1 1 1 1 1 1 
1 1 1 1 1 1 1 1 1 
1 1 1 1 1 1 1 1 1 
1 1 1 1 1 1 1 1 1 
1 1 1 1 1 1 1 1 1 
1 1 1 1 1 1 1 1 1 
1 1 1 1 1 1 1 1 1 
1 1 1 1 1 1 1 1 1 
1 1 1 1 1 1 1 1 1 
1 1 1 1 1 1 1 1 1 
1 1 1 1 1 1 1 1 1 
1 1 1 1 1 1 1 1 1 
1 1 1 1 1 1 1 1 1 
1 1 1 1 1 1 1 1 1 
1 1 1 1 1 1 1 1 1 
1 1 1 1 1 1 1 1 1 
1 1 1 1 1 1 1 1 1 
1 1 1 1 1 1 1 1 1 
1 1 1 1 1 1 1 1 1 
1 1 1 1 1 1 1 1 1 
1 1 1 1 1 1 1 1 1 
1 1 1 1 1 1 1 1 1 
1 1 1 1 1 1 1 1 1 
1 1 1 1 1 1 1 1 1 
1 1 1 1 1 1 1 1 1 
1 1 1 1 1 1 1 1 1 
1 1 1 1 1 1 1 1 1 
1 1 1 1 1 1 1 1 1 
1 1 1 1 1 1 1 1 1 
1 1 1 1 1 1 1 1 1 
1 1 1 1 1 1 1 1 1 
1 1 1 1 1 1 1 1 1 
1 1 1 1 1 1 1 1 1 
1 1 1 1 1 1 1 1 1 
1 1 1 1 1 1 1 1 1 
1 1 1 1 1 1 1 1 1 
1 1 1 1 1 1 1 1 1 
1 1 1 1 1 1 1 1 1 
1 1 1 1 1 1 1 1 1 
1 1 1 1 1 1 1 1 1 
1 1 1 1 1 1 1 1 1 
1 1 1 1 1 1 1 1 1 
1 1 1 1 1 1 1 1 1 
1 1 1 1 1 1 1 1 1 
1 1 1 1 1 1 1 1 1 
1 1 1 1 1 1 1 1 1 
1 1 1 1 1 1 1 1 1 
1 1 1 1 1 1 1 1 1 
1 1 1 1 1 1 1 1 1 
1 1 1 1 1 1 1 1 1 
1 1 1 1 1 1 1 1 1 
1 1 1 1 1 1 1 1 1 
1 1 1 1 1 1 1 1 1 
1 1 1 1 1 1 1 1 1 
1 1 1 1 1 1 1 1 1 
1 1 1 1 1 1 1 1 1 
1 1 1 1 1 1 1 1 1 
1 1 1 1 1 1 1 1 1 
1 1 1 1 1 1 1 1 1 
1 1 1 1 1 
i 3 1400 int
0 0 0 0 0 0 0 0 0 
0 0 0 0 0 0 0 0 0 
0 1 0 0 0 0 0 0 0 
0 0 0 0 0 0 0 0 0 
0 0 0 0 0 0 0 0 0 
0 0 0 0 0 0 0 0 0 
0 0 0 0 0 0 0 0 0 
0 0 0 0 0 0 0 0 0 
0 0 0 0 0 0 0 0 0 
1 0 0 0 0 0 0 0 0 
0 0 0 0 0 0 0 0 0 
0 0 0 0 0 0 0 0 0 
0 0 0 0 0 0 0 0 0 
0 0 0 0 0 0 0 0 0 
0 0 0 0 0 0 -1 0 0 
0 0 0 0 0 0 0 0 0 
0 0 0 0 0 0 0 0 0 
0 0 0 0 0 0 0 0 0 
0 0 0 0 0 0 0 0 0 
0 0 0 0 0 0 0 0 0 
0 0 0 0 0 0 0 0 0 
0 0 0 0 0 0 0 0 0 
0 0 0 0 0 0 0 0 0 
0 0 0 0 0 0 0 0 0 
0 0 0 0 0 0 0 0 0 
0 0 0 0 0 0 1 0 0 
0 0 0 0 0 0 0 0 0 
0 0 0 0 0 0 0 0 0 
0 0 0 0 0 0 0 0 0 
0 0 0 0 -1 0 0 0 0 
0 -1 0 0 0 0 0 0 0 
0 0 0 0 -1 0 0 0 0 
0 1 0 0 0 0 0 0 0 
0 0 0 0 0 0 0 0 0 
0 0 0 0 0 0 0 0 0 
0 0 0 0 0 0 0 0 0 
0 0 0 0 0 0 0 0 0 
0 0 0 0 0 0 0 0 0 
0 0 0 0 0 0 0 0 0 
0 0 0 0 0 0 0 0 0 
0 0 0 0 0 0 0 0 0 
0 0 0 0 0 0 0 0 0 
0 0 0 0 0 0 0 0 0 
0 0 0 0 0 0 0 0 0 
0 0 0 0 0 0 0 0 0 
0 0 0 0 0 0 0 0 0 
0 0 0 0 0 0 0 0 0 
0 0 0 0 0 0 0 0 0 
0 0 0 0 0 0 0 0 0 
0 0 0 0 0 0 0 0 0 
0 0 0 0 0 0 0 0 0 
0 0 0 0 0 0 0 0 0 
0 0 0 0 0 0 0 0 0 
0 0 0 0 0 0 0 0 0 
0 0 0 0 0 0 0 0 0 
0 0 0 0 0 0 0 0 0 
0 0 0 0 0 0 0 0 0 
0 0 0 0 0 0 0 0 0 
0 0 0 0 0 0 0 0 0 
0 0 0 0 0 0 0 0 0 
0 0 0 0 0 0 0 0 0 
0 0 0 0 0 0 0 0 0 
0 0 0 0 0 0 0 0 0 
0 0 0 0 0 0 0 0 0 
0 0 0 0 0 0 0 0 0 
0 0 0 0 0 0 0 0 0 
0 0 0 0 -1 0 0 0 0 
0 0 0 0 0 0 0 0 0 
0 0 0 0 0 0 0 0 0 
0 0 0 0 1 0 0 0 0 
0 0 0 0 0 0 0 0 0 
0 0 0 0 0 0 0 0 0 
0 0 0 0 0 0 0 0 0 
0 0 0 0 0 0 0 0 0 
0 0 0 0 0 0 0 0 0 
0 0 0 0 0 0 0 0 0 
0 0 0 0 0 0 0 0 0 
0 0 0 0 0 0 0 0 0 
0 0 0 0 0 0 0 0 0 
0 0 0 0 0 0 0 0 0 
0 0 0 0 0 0 0 0 0 
0 0 0 0 0 0 0 0 0 
0 0 0 0 0 0 0 0 0 
0 0 0 0 0 0 0 0 0 
0 0 0 0 0 0 0 0 0 
0 0 0 0 0 0 0 0 0 
0 0 0 0 0 0 0 0 0 
0 0 0 0 0 0 0 0 0 
0 0 0 0 0 0 0 0 0 
0 0 0 0 0 0 -1 0 0 
0 0 0 0 0 0 0 0 0 
0 0 0 0 0 0 0 0 0 
0 0 0 0 0 0 0 0 0 
0 0 0 0 0 0 0 0 0 
0 0 0 0 0 0 0 0 0 
0 0 0 0 0 0 0 0 0 
0 0 0 0 0 0 0 0 0 
0 0 0 0 0 0 0 0 0 
0 0 0 0 0 0 0 0 0 
0 0 0 0 0 0 0 0 0 
0 0 0 -1 0 0 0 0 0 
0 0 0 0 0 0 0 0 0 
0 0 0 0 0 0 0 0 0 
0 0 0 0 0 0 0 0 0 
0 0 0 0 0 0 0 0 0 
0 0 0 0 0 0 0 0 0 
0 0 0 0 0 0 0 -1 0 
0 0 0 0 -1 0 0 0 0 
0 0 0 -1 0 0 0 0 0 
0 0 0 0 0 0 0 0 0 
0 0 0 0 0 0 0 0 0 
0 0 0 0 0 0 -1 0 0 
0 0 0 0 0 0 0 0 0 
0 0 0 0 0 0 0 0 0 
0 0 0 0 0 0 0 0 0 
0 0 0 0 0 0 -1 0 0 
0 0 0 0 0 0 0 0 0 
0 0 0 0 0 0 0 0 0 
0 0 0 0 0 0 0 0 0 
0 0 0 0 0 0 0 0 0 
0 0 0 0 0 0 0 0 0 
0 0 0 0 0 0 0 0 0 
0 0 0 0 0 0 0 0 0 
0 0 0 0 0 0 0 0 0 
0 0 0 0 0 0 0 0 0 
0 0 0 0 0 0 0 0 0 
0 0 0 0 0 0 0 0 0 
0 0 0 0 0 0 0 0 0 
0 0 0 0 0 0 0 0 0 
0 0 0 0 0 0 0 0 0 
0 0 0 0 0 0 0 0 0 
0 0 0 0 0 0 0 0 0 
0 0 0 0 0 0 0 0 0 
0 0 0 0 0 0 0 0 0 
0 0 0 0 0 0 0 0 0 
0 0 0 0 0 0 0 0 0 
0 0 0 0 0 0 0 0 0 
0 0 0 0 0 0 0 0 0 
0 0 0 0 0 0 0 0 0 
0 0 0 0 0 0 0 0 0 
0 0 0 0 0 0 0 0 0 
0 0 0 0 0 0 0 0 0 
0 0 0 0 0 0 0 0 0 
0 0 0 0 0 0 0 0 0 
0 0 0 0 0 0 0 0 0 
0 0 0 0 0 0 0 -1 0 
0 0 0 0 0 0 0 0 0 
1 0 0 0 0 0 0 0 0 
0 0 0 0 0 0 0 0 0 
0 0 0 0 0 0 0 1 0 
0 0 0 0 0 0 0 0 0 
0 0 0 0 0 0 0 0 0 
0 0 0 0 0 0 0 0 0 
0 0 0 0 0 0 0 0 0 
0 0 0 0 0 0 0 0 0 
0 0 0 0 0 0 0 0 0 
0 0 0 0 0 0 0 0 0 
0 0 0 0 0 0 -1 0 0 
0 0 0 0 0 0 0 0 0 
0 0 0 0 0 0 0 0 0 
0 0 0 0 0 0 0 0 0 
0 0 0 0 0 0 0 0 0 
0 0 0 0 0 0 0 0 0 
0 0 0 0 0 0 0 0 0 
0 0 0 0 0 0 0 0 0 
0 0 0 0 0 0 0 0 0 
0 0 0 0 0 0 0 0 0 
0 0 0 0 0 0 0 0 0 
0 0 0 0 0 0 0 0 0 
0 0 0 0 0 0 0 0 0 
0 0 0 0 0 0 0 0 0 
0 0 0 0 0 0 0 0 0 
0 0 0 0 0 0 0 0 0 
0 0 0 0 0 0 0 0 0 
0 0 0 0 0 0 0 0 0 
0 0 0 0 0 0 0 0 0 
0 0 0 0 0 0 0 0 0 
0 0 0 0 0 0 0 0 0 
0 0 0 0 0 0 0 0 0 
0 0 0 0 0 0 0 0 0 
0 0 0 0 0 0 0 0 0 
0 0 0 0 0 0 0 0 0 
0 0 0 0 0 0 0 0 0 
0 0 0 0 0 0 0 0 0 
0 0 0 0 0 0 0 0 0 
0 0 0 0 0 0 0 0 0 
0 0 0 0 0 0 0 0 0 
0 0 0 0 0 0 0 0 0 
0 0 0 0 0 0 0 0 0 
0 0 0 0 0 0 0 0 0 
0 0 0 0 0 0 0 0 0 
0 0 0 0 0 0 0 0 0 
0 0 0 0 0 0 0 0 0 
0 0 0 0 0 0 0 0 0 
0 0 0 0 0 0 0 0 0 
0 0 0 0 0 0 0 0 0 
0 0 0 0 0 0 0 0 0 
0 0 0 0 0 0 0 0 0 
0 0 0 0 0 0 0 0 0 
0 0 0 0 0 0 0 0 0 
0 0 0 0 0 0 0 0 0 
0 0 0 0 0 0 0 0 0 
0 0 0 0 0 0 0 0 0 
0 0 0 0 0 0 0 0 0 
0 0 0 0 0 0 0 0 0 
0 0 0 0 0 0 0 0 0 
0 0 0 0 0 0 0 0 0 
0 0 0 0 0 0 0 0 0 
0 0 0 0 0 0 0 0 0 
0 0 0 0 0 0 0 0 0 
0 0 0 0 0 0 0 0 0 
0 0 0 0 0 0 0 0 0 
0 0 0 0 0 0 0 0 0 
0 0 0 0 0 0 0 0 0 
0 0 0 0 0 0 0 0 0 
0 0 0 0 0 0 0 0 0 
0 0 0 0 0 0 0 0 0 
0 0 0 0 0 0 0 0 0 
0 0 0 0 0 0 0 0 0 
0 0 0 0 0 0 0 0 0 
0 0 0 0 0 0 0 0 0 
0 0 0 0 0 0 0 0 0 
0 0 0 0 0 0 0 0 0 
0 0 0 0 0 0 0 0 0 
0 0 0 0 0 0 0 0 0 
0 0 0 0 0 0 0 0 0 
0 0 0 0 0 0 0 0 0 
0 0 0 0 0 0 0 0 0 
0 0 0 0 0 0 0 0 0 
0 0 0 0 0 0 0 0 0 
0 0 0 0 0 0 0 0 0 
0 0 0 0 0 0 0 0 0 
0 0 0 0 0 0 0 0 0 
0 0 0 0 0 0 0 0 0 
0 0 0 0 0 0 0 0 0 
0 0 0 0 0 0 0 0 0 
0 0 0 0 0 0 0 0 0 
0 0 0 0 0 0 0 0 0 
0 0 0 0 0 0 0 0 0 
0 0 0 0 0 0 0 0 0 
0 0 0 0 0 0 0 0 0 
0 0 0 0 0 0 0 0 0 
0 0 0 0 0 0 0 0 0 
0 0 0 0 0 0 0 0 0 
0 0 0 0 0 0 0 0 0 
0 0 0 0 0 0 0 0 0 
0 0 0 0 0 0 0 0 0 
0 0 0 0 0 0 0 0 0 
0 0 0 0 0 0 0 0 0 
0 0 0 0 0 0 0 0 0 
0 0 0 0 0 0 0 0 0 
0 0 0 1 0 0 0 0 0 
0 0 0 0 0 0 0 0 0 
0 0 0 0 0 0 0 0 0 
0 0 0 0 0 0 0 0 0 
0 0 0 0 0 0 0 0 0 
0 0 0 0 0 0 0 0 0 
0 0 0 0 0 0 0 0 0 
0 0 0 0 0 0 0 0 0 
0 -1 0 0 0 0 0 0 0 
0 0 0 0 0 0 0 0 0 
0 0 0 0 0 0 0 0 0 
0 0 0 0 0 0 0 0 0 
-1 0 0 0 0 0 0 0 0 
0 0 0 0 0 0 0 1 0 
0 0 0 0 0 0 0 0 0 
0 0 0 0 0 0 0 0 0 
0 0 0 0 0 0 0 0 0 
0 0 0 0 0 0 0 0 0 
0 0 0 0 0 0 0 0 0 
0 0 0 0 0 0 0 0 0 
0 0 0 0 0 0 0 0 0 
0 0 0 0 0 0 0 0 0 
0 0 0 0 0 0 0 0 0 
0 0 0 0 0 0 0 0 0 
0 0 0 0 0 0 0 0 0 
0 0 0 0 0 0 0 0 0 
0 0 0 0 0 0 0 0 0 
0 0 0 0 0 0 1 0 0 
0 0 0 0 0 0 0 0 0 
0 0 0 0 0 0 0 0 0 
0 0 0 0 0 0 0 0 0 
0 0 0 0 0 0 0 0 0 
0 0 0 0 0 0 0 0 0 
0 0 0 0 0 0 0 0 0 
0 0 0 0 0 0 0 0 0 
0 0 0 0 0 0 0 0 0 
0 0 0 0 0 0 0 0 0 
0 0 0 0 0 0 0 0 0 
0 0 0 0 0 0 0 0 0 
0 0 0 0 0 0 0 0 0 
0 0 0 0 0 0 0 0 0 
0 0 0 0 0 0 0 0 0 
0 0 0 0 0 0 0 0 0 
0 0 0 0 0 0 0 0 0 
0 0 0 0 0 0 0 0 0 
0 0 0 0 0 0 0 0 0 
0 0 0 0 0 0 0 0 0 
0 0 0 0 0 0 0 0 0 
0 0 0 1 0 0 0 0 0 
0 0 0 0 0 0 0 0 0 
0 0 0 0 0 0 0 0 0 
0 0 0 0 -1 0 0 0 0 
0 0 0 0 0 0 0 0 0 
0 0 0 0 0 0 0 0 0 
0 0 0 0 0 0 0 0 0 
0 0 0 0 0 0 0 0 0 
0 0 0 0 0 0 0 0 0 
0 0 0 0 0 0 0 0 0 
0 0 0 0 0 0 1 0 0 
0 0 0 0 0 0 0 0 0 
0 0 0 0 0 0 0 0 0 
0 0 0 0 0 0 0 0 0 
0 0 0 0 0 0 0 0 0 
0 0 0 0 0 0 0 0 0 
0 0 0 0 0 0 0 0 0 
0 0 0 0 0 0 0 0 0 
0 0 0 0 0 0 0 0 0 
0 0 0 0 0 0 0 0 0 
0 0 0 0 0 0 0 0 0 
0 0 0 0 0 0 0 0 0 
0 0 0 0 0 0 0 0 0 
1 0 0 0 0 0 0 0 0 
0 0 0 0 0 0 0 0 0 
0 0 0 0 0 0 0 0 0 
0 0 0 0 0 0 0 0 0 
0 0 0 0 0 0 0 0 0 
0 0 0 0 0 0 0 0 0 
0 0 0 0 0 0 0 0 0 
0 0 0 0 0 0 0 0 0 
0 0 0 0 0 0 0 0 0 
0 0 0 0 0 0 0 0 0 
0 0 0 0 0 0 0 0 0 
0 0 0 0 0 0 0 0 0 
0 0 0 0 0 0 0 0 0 
0 0 0 0 0 0 0 0 0 
0 0 0 0 0 0 0 0 0 
0 0 0 0 0 0 1 0 0 
0 0 0 0 0 0 0 -1 0 
0 0 0 0 -1 0 0 0 0 
0 0 0 0 0 0 0 0 0 
0 0 0 0 0 0 0 0 0 
0 0 0 0 0 0 0 0 0 
0 0 0 0 0 0 0 0 0 
0 0 0 0 0 0 0 0 0 
0 0 0 -1 0 0 0 0 0 
0 0 0 0 0 0 0 0 0 
0 0 0 0 0 0 0 0 0 
0 0 0 0 0 0 0 0 0 
0 0 0 0 0 0 0 0 0 
0 0 0 0 0 0 0 0 0 
0 0 0 0 0 0 0 0 0 
0 0 0 0 0 0 0 0 0 
0 0 0 0 0 0 0 0 0 
0 0 0 0 0 0 0 0 0 
0 0 0 0 0 0 0 0 0 
0 0 0 0 0 0 0 0 0 
0 0 0 0 0 0 0 0 0 
0 0 0 0 0 0 0 0 0 
0 0 0 0 0 0 0 0 0 
0 0 0 0 0 0 0 0 0 
0 0 0 0 0 0 0 0 0 
0 0 0 0 0 0 0 0 0 
0 0 0 0 0 0 0 0 0 
0 0 0 0 0 0 0 0 0 
0 0 0 0 0 0 0 0 0 
0 0 0 0 0 0 0 0 0 
0 0 0 0 0 0 0 0 0 
0 0 0 0 0 0 0 0 0 
0 0 0 0 0 0 0 0 0 
0 0 0 0 0 0 0 0 0 
0 0 0 0 0 0 0 0 0 
0 0 0 0 0 0 0 0 0 
0 0 0 0 0 0 0 0 0 
0 0 0 0 0 0 0 0 0 
0 0 0 0 0 0 0 0 0 
0 0 0 0 0 0 0 0 0 
0 0 0 0 0 0 0 -1 0 
0 0 0 0 0 0 0 0 0 
0 -1 0 0 0 0 0 0 0 
0 0 0 0 0 0 0 0 0 
0 0 0 0 0 0 0 0 0 
0 0 0 0 0 0 0 0 0 
0 0 0 0 0 0 0 0 0 
0 0 0 0 0 0 0 0 0 
0 0 0 0 0 0 0 0 0 
0 0 0 0 0 0 0 0 0 
0 0 0 1 0 0 0 0 0 
0 0 0 0 0 0 0 0 0 
0 0 0 0 0 0 0 0 0 
0 0 0 0 0 0 0 0 0 
0 0 0 0 0 0 0 0 0 
0 0 0 0 0 0 0 0 0 
0 0 0 0 0 0 0 0 0 
0 0 0 0 0 0 0 0 0 
0 0 0 0 0 0 0 0 0 
0 0 0 0 0 0 0 0 0 
0 0 0 0 0 0 0 0 0 
0 0 0 0 0 0 0 0 0 
0 0 0 0 0 0 0 0 0 
0 0 0 0 0 0 0 0 0 
0 0 0 0 0 0 0 0 0 
0 0 0 -1 0 0 0 0 0 
0 0 0 0 0 0 0 0 0 
0 0 0 0 0 0 0 0 0 
0 0 0 -1 0 0 0 0 0 
0 0 0 1 0 0 0 0 0 
0 0 0 0 0 0 0 0 0 
0 0 0 0 0 0 0 0 0 
0 0 0 0 0 0 0 0 0 
0 0 0 0 0 0 0 0 0 
0 0 0 0 0 0 0 0 0 
0 0 0 0 0 0 0 0 0 
0 0 0 0 0 0 0 0 0 
0 0 0 0 0 0 0 0 0 
0 0 0 0 0 0 0 0 0 
0 0 0 0 0 0 0 -1 0 
0 0 0 0 0 0 0 0 0 
0 0 0 0 0 0 0 0 0 
0 0 0 0 0 0 0 0 0 
0 0 0 0 0 0 0 0 0 
0 0 0 0 0 0 -1 0 0 
0 0 0 0 0 0 0 0 0 
0 0 0 0 0 0 0 0 0 
0 0 0 0 0 0 0 0 0 
0 0 0 0 0 0 0 0 0 
0 0 0 0 0 0 0 0 0 
0 0 0 0 0 0 0 0 0 
0 0 0 0 0 0 0 0 0 
0 0 0 0 0 0 0 0 0 
0 0 0 0 0 0 0 0 0 
0 0 0 0 0 0 0 0 0 
0 0 0 0 0 0 0 0 0 
0 0 0 0 0 0 0 0 0 
0 0 0 0 0 0 0 0 0 
0 0 0 0 0 0 0 0 0 
0 0 0 0 0 0 0 0 0 
0 0 0 0 0 0 0 0 0 
0 0 0 0 0 0 0 0 0 
0 0 0 0 0 0 -1 0 0 
0 0 0 0 0 0 0 0 0 
0 0 0 0 0 0 0 0 0 
0 0 0 0 0 0 0 0 0 
0 0 0 0 0 0 0 0 0 
0 0 0 0 0 0 0 0 0 
0 0 0 0 0 0 0 0 0 
0 0 0 0 0 0 0 0 0 
0 0 0 0 0 0 0 0 0 
0 0 0 0 0 0 0 0 0 
0 0 0 0 0 0 0 0 0 
0 0 0 0 -1 0 0 0 0 
0 0 0 0 0 0 0 0 0 
0 0 0 0 0 0 0 -1 0 
0 0 0 0 0 0 0 0 0 
0 0 0 0 0 0 0 0 0 
0 0 0 0 0 0 0 0 0 
0 0 0 0 0 0 0 0 0 
0 0 0 0 0 0 0 0 0 
0 0 0 0 0 0 0 0 0 
0 0 0 0 0 0 0 0 0 
0 0 0 0 0 0 0 0 0 
0 0 0 0 0 0 0 0 0 
0 0 0 0 0 0 0 0 0 
0 0 0 0 0 0 0 0 0 
0 0 0 0 0 0 0 0 0 
0 0 0 0 0 0 0 0 0 
0 -1 0 0 0 0 
v 3 1400 double
7.90264e-06 1.05032e-06 4.96652e-07 1.23662e-06 3.35825e-07 -2.94552e-07 -4.97257e-07 -3.58866e-07 1.84291e-07 
3.19638e-06 6.73049e-07 -1.24874e-06 4.2191e-06 2.33469e-06 -7.60454e-07 4.80764e-06 1.79433e-06 8.22045e-07 
3.19956e-06 1.11304e-06 -6.42786e-07 4.27429e-06 1.63709e-07 9.80785e-07 4.75453e-06 4.60641e-06 8.60818e-07 
5.77796e-06 1.54119e-06 8.66562e-07 5.05352e-06 2.75219e-06 1.54945e-06 6.19323e-06 -3.76841e-07 3.34891e-07 
7.5111e-06 1.08912e-06 -6.22344e-07 -5.70962e-07 2.80199e-06 5.79502e-08 5.70212e-06 2.66065e-06 -1.00033e-06 
4.02669e-06 1.09852e-06 7.98221e-07 4.1827e-06 8.7479e-07 -1.09754e-06 2.05667e-06 8.00435e-06 -1.31137e-06 
4.05935e-06 -5.83863e-07 -2.16714e-06 5.45622e-06 1.91305e-06 -4.06616e-07 6.79845e-06 9.47282e-07 -1.33807e-06 
7.29279e-06 9.73181e-07 4.54661e-07 5.74181e-06 2.0693e-06 2.64778e-07 9.20995e-06 3.29836e-06 3.61665e-08 
7.96156e-06 4.84636e-06 -7.60712e-07 4.40864e-06 9.67258e-07 6.19624e-07 4.31604e-06 9.42061e-07 -7.60043e-07 
3.80717e-06 1.35894e-06 -1.25478e-07 6.42626e-06 1.49555e-06 -7.22806e-07 6.9415e-06 2.17685e-06 -1.16137e-06 
4.80854e-06 1.03666e-06 -2.75954e-07 4.62438e-06 1.91285e-06 -1.72316e-07 4.23674e-06 2.20036e-06 3.00339e-07 
5.61767e-06 9.09797e-07 -9.29065e-07 7.6804e-06 1.73517e-06 3.95671e-07 3.66831e-06 1.27675e-06 -3.47929e-07 
4.63321e-06 1.40074e-06 1.80491e-08 4.3461e-06 1.70415e-06 -2.1638e-07 6.48099e-06 2.7006e-06 -9.93056e-07 
6.36413e-06 2.96312e-07 -3.90328e-07 3.99361e-06 1.92987e-06 -1.05913e-06 5.92855e-06 1.43161e-06 5.87674e-08 
5.90406e-06 1.31503e-06 6.91024e-09 4.15389e-06 1.42825e-06 3.42874e-07 -2.4635e-07 -3.07294e-06 2.00781e-12 
5.89129e-06 2.72508e-06 -4.51937e-07 3.82846e-06 1.66874e-06 -1.61101e-06 3.95729e-06 1.84214e-06 2.70285e-07 
4.82211e-06 3.12879e-06 -7.63016e-07 4.62944e-06 1.64445e-06 1.57273e-07 4.80758e-06 1.90472e-06 -2.36778e-06 
6.08516e-06 1.04095e-06 1.71232e-06 5.81163e-06 3.45874e-06 1.23563e-06 5.03434e-06 2.02851e-06 1.17759e-06 