# vtk DataFile Version 4.0
Generated by LIGGGHTS
ASCII
DATASET POLYDATA
POINTS 1400 float
-4.94262 -4.19895 0.499988 -2.84105 -4.0759 0.499983 -1.82645 -4.15583 0.499997 
-0.823342 -4.61421 0.499967 0.119789 -4.94656 0.499971 1.18757 -4.07016 0.499997 
1.58969 -4.98575 0.500493 2.38346 -4.45158 0.791333 3.2356 -4.88626 0.499983 
-4.38439 -3.3774 0.615788 -3.3998 -3.24659 0.499984 -2.37025 -3.19368 0.499995 
-0.976064 -3.62384 0.499963 0.175204 -3.74503 0.499997 1.32071 -3.07907 0.499994 
2.86048 -3.6224 0.499973 3.65681 -3.01758 0.499976 4.07627 -3.9817 0.49999 
4.64686 -3.15812 0.500008 -3.98252 -2.40138 0.499986 -2.92902 -2.36436 0.499958 
-1.48777 -2.80791 0.769013 -0.91317 -2.03497 0.499979 -0.319808 -2.83989 0.499986 
0.629268 -2.35664 0.499987 2.33535 -2.61793 0.499975 3.20553 -2.12522 0.499981 
-4.7442 -1.75343 0.499977 -3.48504 -1.54907 0.661446 -1.96806 -1.97309 0.499982 
-0.689749 -1.06027 0.499981 0.267471 -1.42434 0.499995 1.28164 -1.54546 0.499995 
2.96812 -1.15383 0.499999 2.223 -1.7006 0.881894 4.25594 -1.76892 0.500002 
-4.07015 -0.754387 0.499967 -3.07546 -0.651046 0.500959 -2.00725 -0.963286 0.499997 
-0.751858 -0.0656867 0.583234 0.953191 -0.600935 0.499997 1.96372 -0.813555 0.499957 
2.74187 -0.17978 0.499975 3.92438 -0.825495 0.499986 4.9261 -0.809287 0.499997 
-4.70573 0.121072 0.499973 -3.70736 0.177471 0.500021 -2.71275 0.280833 0.499962 
-1.7432 0.035901 0.499992 0.154833 0.347779 0.499966 1.15433 0.378626 0.499962 
2.10803 0.55417 0.744023 3.02009 0.883624 0.499968 3.698 0.148524 0.499981 
4.50649 0.737004 0.499975 -4.42102 1.09852 0.499997 -3.3286 1.03141 0.859376 
-3.38088 1.96313 0.499986 -2.41895 1.23964 0.499991 -1.45208 1.49485 0.499978 
-0.504123 1.13041 0.499974 0.480142 1.30696 0.499979 1.43579 1.29277 0.794048 
2.33616 1.61443 0.499967 3.81855 1.54855 0.499969 -4.3561 2.20552 0.499977 
-3.63894 2.92925 0.499972 -2.40476 2.24285 0.499966 -1.48646 2.43177 0.847774 
-0.600261 2.12578 0.499982 0.286411 2.58814 0.499997 1.21745 2.22329 0.50001 
2.14524 2.59634 0.499994 3.11633 2.35769 0.49996 4.62475 2.15789 0.499997 
4.05873 2.98264 0.499997 -4.23901 3.81822 0.499997 -4.88834 3.05303 0.499976 
-3.23598 3.84425 0.519126 -1.31113 3.35954 0.499978 -0.31159 3.38963 0.499971 
1.56225 3.40881 0.499968 2.56481 3.50565 0.499997 3.66408 3.90717 0.499997 
4.70854 3.97885 0.499992 -4.75025 4.81973 0.499962 -3.75782 4.69707 0.499979 
-2.75279 4.92803 0.499982 -2.25652 4.04493 0.499994 -1.67154 4.85614 0.49998 
-0.869735 4.25684 0.499963 0.844006 4.34796 0.499981 2.4467 4.49887 0.499984 
4.20071 4.85196 0.499965 -4.38941 -4.60182 1.23151 -3.35379 -4.75979 1.23599 
-2.18706 -4.73663 1.25387 -1.27406 -4.32572 1.34468 -0.194904 -4.32803 1.22329 
0.764154 -4.75511 1.24029 1.55771 -4.17482 1.42324 2.51039 -4.04618 1.69857 
2.94508 -4.96723 1.45339 3.38121 -4.09694 1.20963 3.94301 -4.65886 1.81672 
4.58055 -4.03574 1.36368 -4.62034 -3.4921 1.6203 -3.74317 -3.83872 1.22898 
-2.79077 -3.97689 1.50069 -1.92591 -3.50075 1.34171 -0.940455 -3.39166 1.47194 
0.822176 -3.51968 1.25073 1.55651 -3.01538 1.84228 2.07563 -3.39322 1.07566 
3.91342 -3.30517 1.50936 -4.81585 -2.55643 1.09158 -4.44925 -2.10066 1.92359 
-3.90414 -2.82985 1.40012 -2.90378 -2.9445 1.31404 -1.82541 -2.29544 1.55854 
-0.839156 -2.39777 1.42886 0.219725 -2.72592 1.33418 0.766585 -2.08436 1.87208 
1.40206 -2.30969 1.13358 2.24002 -2.30391 1.67925 2.98351 -2.85931 1.22219 
3.86761 -2.35068 1.21466 -4.25116 -1.35915 1.2755 -3.50417 -1.8939 1.67047 
-2.61178 -1.76787 1.23719 -2.62234 -1.01109 1.89073 -1.42484 -1.44638 1.1538 
-0.0882214 -1.73921 1.37996 0.727337 -1.15861 1.34729 1.69777 -1.21638 1.58164 
3.06397 -1.79372 1.43274 3.94453 -1.32448 1.36635 4.86712 -1.39279 1.746 
-4.45991 -0.368928 1.33629 -3.478 -0.543339 1.41 -2.35702 -0.339502 1.19897 
-1.37889 -0.24951 1.38646 -0.656401 -0.926478 1.52687 0.052788 -0.548325 0.931864 
0.14948 -0.488341 1.92535 1.59493 -0.193115 1.19202 2.50812 -0.687418 1.32921 
3.67002 -0.209466 1.61457 4.49221 -0.0931865 1.05741 -4.87477 0.659894 1.32525 
-3.90284 0.45492 1.44066 -2.19037 0.643825 1.27149 -1.21757 0.689501 1.04452 
-0.580075 0.226028 1.75489 0.0174221 0.900802 1.32169 0.661604 0.136079 1.33563 
1.43547 0.649178 1.70687 2.87557 0.335465 1.3465 3.71892 0.856371 1.21473 
4.33281 0.479337 1.9082 -4.61358 1.91015 1.42 -3.62223 1.78346 1.45363 
-2.14275 1.73748 1.32212 -2.86841 1.19877 1.7534 -1.55993 1.13767 1.87031 
-0.877402 1.60755 1.31052 0.0750849 1.89224 1.20236 1.21474 1.92947 1.53276 
2.30459 1.12659 1.57783 3.07479 1.62023 1.17403 4.52592 1.45058 1.20024 
-4.27328 2.84065 1.2679 -3.00136 2.62287 1.20678 -1.51671 2.3196 1.84097 
-0.534926 2.776 1.2573 0.56037 2.6846 1.57198 1.55196 2.84835 1.32807 
2.21427 2.09965 1.36578 3.06325 2.39901 1.80118 3.84089 2.27724 1.18441 
4.74419 2.67333 1.34894 -4.83842 3.51335 1.75517 -3.55404 3.52057 1.41059 
-2.19526 3.13447 0.909398 -2.61274 3.48793 1.74649 -1.3868 3.2472 1.49075 
-0.00909977 3.4945 1.71303 0.707185 3.49897 1.01055 1.9397 3.91888 1.27281 
2.42146 3.16065 1.71206 3.27016 3.11725 1.1319 4.27378 3.55406 1.29404 
-4.46758 4.33896 1.32997 -3.58774 4.44372 1.79352 -2.69343 4.40153 1.34804 
-1.60475 4.19147 1.24411 -0.857333 4.00083 1.88054 -0.728302 4.81642 1.31652 
-0.00729401 4.19856 1.00293 0.193545 4.67871 1.85679 1.04512 4.31535 1.47898 
1.95342 4.90684 1.42677 2.94039 4.0542 1.24731 3.84955 4.45793 1.34931 
4.72846 4.94098 1.34464 -4.90977 -4.50864 2.09705 -4.4556 -4.77245 2.94799 
-3.83765 -4.43517 2.04869 -2.77993 -4.88658 2.04505 -2.75226 -4.09692 2.65794 
-1.9486 -4.20933 2.07363 -1.72807 -4.76296 2.87673 -0.58523 -4.62711 2.13492 
0.377295 -4.36283 2.07481 1.26014 -4.8441 2.10405 2.93149 -4.62833 2.3941 
2.10378 -4.11068 2.61064 4.27806 -4.86981 2.73497 -4.39957 -3.77912 2.5525 
-3.56571 -3.43052 2.12443 -2.47205 -3.28219 2.15038 -1.06131 -3.78373 2.38386 
-1.90394 -3.62521 2.89839 -0.0645147 -3.47489 1.94705 -0.573695 -3.09229 2.91685 
0.136957 -3.80497 2.86927 1.19755 -3.83352 2.29144 1.87197 -3.15439 2.78913 
2.59914 -3.13592 2.10294 3.55063 -3.85421 2.2623 3.15455 -3.22382 2.9299 
4.55965 -3.68571 2.30018 -4.83665 -2.89393 2.39328 -3.75004 -2.52255 2.50074 
-2.68909 -2.30901 2.07454 -2.07337 -2.62928 2.79446 -1.27446 -2.81989 2.22403 
-1.22281 -2.12536 2.94483 -0.178174 -2.49242 2.22137 0.697478 -2.9697 2.35212 
0.726181 -2.13514 2.90221 1.62768 -2.23917 2.4687 3.37763 -2.50905 2.07187 
4.4793 -2.27812 2.00239 4.07414 -2.89631 2.67595 -4.76539 -1.62164 2.75418 
-3.4556 -1.19917 2.4106 -2.11609 -1.62717 2.52922 -0.801372 -1.69985 2.14401 
-0.223424 -1.81158 2.95239 0.451731 -1.30601 2.41523 1.65484 -1.24581 2.58038 
2.74194 -1.80327 2.38454 4.14036 -1.09453 2.36472 4.2924 -1.91534 2.91532 
-4.38108 -0.89762 2.18142 -3.32771 -0.228391 2.61364 -2.37186 -0.661265 2.79342 
-1.5156 -0.993372 2.04066 -0.330879 -0.0479434 2.6838 -0.725605 -0.958429 2.81071 
0.587216 -0.399357 2.86835 1.17215 -0.455866 2.05928 1.72576 -0.300133 2.8976 
2.14142 -0.0635947 2.01939 2.69676 -0.489953 2.7334 3.17767 -0.984952 2.00973 
3.7262 -0.307238 2.82147 4.76214 -0.422151 1.96231 4.93466 -0.68097 2.91265 
-4.42235 0.100844 2.2183 -4.92248 0.951625 2.37968 -3.70021 0.895324 2.31526 
-2.04801 0.0526998 2.0654 -2.77357 0.601578 2.54985 -1.13403 0.530421 2.54098 
0.864242 0.493237 2.51268 2.3248 0.784108 2.51712 3.20133 0.358892 2.29162 
3.91351 0.934183 2.69386 -4.27538 1.71297 2.34018 -3.28383 1.79596 2.43951 
-2.25839 1.50631 2.48367 -1.25095 1.73682 2.60889 -0.496364 1.18301 2.13181 
0.589911 1.32301 2.02453 0.0505998 1.73724 2.75914 1.5881 1.42906 2.31388 
3.1994 1.34532 2.12736 4.14127 1.69769 2.08957 -4.67009 2.61335 2.1572 
-3.6192 2.62549 1.99304 -3.9141 2.73081 2.94272 -2.49736 2.36548 2.03122 
-1.61245 2.65412 2.77846 -0.54203 2.17936 2.05975 0.107787 2.83061 2.45164 
0.879748 2.19408 2.43705 1.84019 2.39532 2.24474 2.71053 2.41489 2.73677 
3.69641 2.45132 2.5734 4.82716 2.24174 2.93765 -4.00267 3.49509 2.30395 
-4.86541 3.33262 2.82389 -3.12764 3.92939 2.51769 -2.44778 3.19643 2.6887 
-0.845559 3.10218 2.319 0.397679 3.94969 2.51012 1.07225 3.44528 1.97113 
1.80322 3.31287 2.64055 2.79825 3.40733 2.60488 3.52649 3.62427 1.95482 
4.36634 3.081 2.18018 4.12717 3.89703 2.70633 -4.4383 4.23675 2.81394 
-3.50376 4.87416 2.6922 -2.23979 4.29023 2.23223 -1.50622 4.90408 1.93869 
-1.3751 4.31228 2.73402 -0.403674 4.5324 2.6454 0.540638 4.92996 2.76265 
1.58091 4.23354 2.31934 1.76354 4.98666 2.95137 2.55839 4.32695 2.13028 
3.51638 4.56786 2.28574 4.81956 4.36336 2.1558 -4.83657 -4.84481 3.86972 
-3.65455 -4.18846 3.07912 -2.83523 -4.08569 3.65438 -2.27273 -4.86753 3.92319 
-0.790368 -4.43327 3.09423 0.104218 -4.5791 3.51663 1.05153 -4.3076 3.15973 
2.01152 -4.59919 3.85094 3.50251 -4.43404 3.1917 4.80283 -4.14127 3.17524 
4.20055 -4.43862 3.91607 -4.0776 -3.33731 3.38982 -3.15965 -3.21504 3.01248 
-2.37598 -3.13016 3.62778 -1.86035 -3.96038 3.83952 -0.490549 -3.70117 3.70587 
0.497004 -3.64707 3.85353 1.64961 -3.68239 3.68226 1.02356 -3.00458 3.2968 
2.60148 -3.87777 3.4461 3.99975 -3.59553 3.41438 4.91727 -3.23415 3.58024 
-4.54103 -2.46299 3.24585 -3.60339 -2.52358 3.72591 -2.9663 -2.19521 3.02857 
-2.15582 -2.0296 3.59043 -1.40457 -2.96402 3.45826 0.110109 -2.65073 3.4977 
1.14605 -2.15478 3.80956 2.01421 -2.75334 3.74485 3.01343 -2.76184 3.82501 
3.35834 -2.25079 3.03772 4.06063 -2.62415 3.64383 -4.72049 -1.12688 3.73858 
-3.85133 -1.74547 3.14879 -3.0114 -1.22813 3.31265 -1.60631 -1.24187 3.29839 
-0.708884 -1.38519 3.7156 0.943192 -1.23655 3.2835 0.245424 -1.71756 3.83063 
1.88501 -1.03736 3.55419 2.21248 -1.92279 3.22441 3.02021 -1.69059 3.7939 
3.35069 -1.2541 2.95712 4.52698 -1.77077 3.87663 -4.02512 -0.757822 3.1054 
-3.4581 -0.259805 3.82272 -1.45912 -0.30251 2.9887 -1.73136 -0.025469 3.91015 
-0.139775 -0.584269 3.52957 2.26514 -0.137257 3.76704 3.1394 -0.617925 3.69916 
3.93416 -0.0207948 3.8077 4.14728 -0.938552 3.4727 -4.47682 0.1515 3.21552 
-3.51415 0.546404 3.23376 -2.62453 0.0938476 3.39838 -1.94269 0.754723 3.08479 
[...]
POINT_DATA 1400
FIELD FieldData 7
id 1 1400 int
48 62 69 126 50 115 30 89 31 
120 60 12 7 23 28 51 64 29 
24 49 79 129 104 11 56 59 14 
20 99 45 1 18 22 78 82 109 
27 15 19 105 26 4 86 43 67 
54 65 37 80 16 35 110 2 114 
46 33 108 3 71 21 42 55 119 
53 97 52 94 8 84 25 13 6 
63 47 36 41 9 81 87 40 34 
44 5 76 38 58 57 17 10 88 
32 39 72 112 161 165 151 214 77 
106 168 213 198 136 231 123 166 127 
284 210 220 100 157 93 197 103 212 
194 172 174 132 83 180 102 160 70 
135 164 217 155 191 61 85 150 207 
159 66 196 139 258 117 169 147 98 
227 91 158 309 130 101 167 143 73 
125 113 124 171 215 137 193 68 153 
133 190 187 146 74 131 186 163 128 
134 142 203 122 173 154 138 175 95 
211 162 222 118 185 121 144 96 116 
235 92 170 107 178 152 111 206 141 
90 148 75 156 149 192 145 260 291 
189 263 321 244 380 195 199 221 316 
322 336 333 280 266 281 348 140 303 
255 253 318 245 233 319 205 262 272 
225 312 248 324 249 289 298 228 247 
223 282 234 274 283 204 254 285 279 
241 313 302 224 359 264 184 188 257 
230 177 355 181 269 179 369 270 295 
208 271 265 216 250 277 238 273 256 
331 176 326 259 232 226 218 311 239 
261 236 219 243 353 183 315 200 276 
240 201 297 293 379 252 296 325 314 
182 237 209 275 327 242 278 306 292 
376 229 267 328 290 320 268 398 202 
332 251 431 349 404 484 310 377 343 
428 341 346 396 422 350 448 455 371 
399 405 342 339 344 389 288 400 375 
384 420 330 402 433 432 287 356 503 
335 323 360 419 329 378 440 305 391 
354 453 368 415 317 474 337 407 383 
470 401 373 338 358 308 414 361 301 
421 387 334 424 435 509 304 429 372 
299 393 347 294 340 412 367 300 352 
479 418 489 461 374 403 366 246 362 
286 459 430 388 406 390 416 381 345 
445 423 392 357 409 413 385 425 363 
382 451 397 410 307 364 365 351 386 
477 468 558 542 513 426 446 443 516 
539 457 514 501 456 553 500 492 557 
478 465 482 505 481 518 507 544 460 
411 529 581 555 488 417 370 458 442 
595 548 439 490 528 462 498 472 556 
510 549 471 427 515 535 434 506 550 
534 444 527 408 537 525 493 614 541 
499 522 552 437 480 475 554 469 601 
463 521 449 609 512 447 452 524 504 
450 531 617 497 519 559 543 394 438 
454 483 473 546 486 395 562 545 466 
520 523 496 530 487 532 491 495 511 
436 604 494 547 502 464 590 441 602 
467 540 615 476 672 626 616 611 536 
576 669 631 572 608 589 570 709 718 
571 648 633 569 632 588 587 485 579 
649 655 582 533 563 586 618 508 634 
538 670 665 580 610 564 625 658 568 
607 675 654 651 719 664 676 594 660 
647 627 596 517 593 561 685 711 573 
605 612 600 621 574 567 641 577 673 
591 674 653 671 560 662 599 629 551 
721 622 695 613 656 584 619 598 689 
526 585 566 583 714 666 578 639 628 
575 663 620 693 650 657 623 565 652 
667 597 606 603 701 592 659 688 804 
728 642 741 643 727 686 831 680 774 
661 822 636 732 733 750 722 745 699 
668 738 825 696 700 780 703 767 720 
764 697 724 702 717 752 769 821 740 
775 716 682 713 802 698 690 729 683 
823 766 706 815 772 795 710 746 646 
739 677 624 737 743 811 768 630 694 
761 679 759 773 687 640 762 787 708 
725 778 726 635 707 771 784 637 756 
715 748 845 644 783 678 754 786 684 
819 753 785 779 758 691 765 751 730 
776 704 757 692 705 760 723 763 638 
790 681 747 749 731 645 899 886 837 
826 879 800 854 880 798 865 950 832 
851 807 808 828 735 744 957 833 844 
884 791 897 874 835 777 834 869 846 
849 947 810 914 836 818 794 770 742 
755 905 848 901 856 863 891 829 878 
712 842 864 788 866 820 873 890 781 
896 734 805 857 858 843 907 736 806 
867 827 809 923 792 841 855 812 906 
813 782 889 789 882 793 803 944 847 
801 814 1003 877 839 816 852 888 911 
861 840 796 893 859 953 931 799 871 
797 958 904 868 824 887 830 920 850 
838 894 883 817 935 929 898 986 1005 
862 1029 926 951 1012 938 990 1020 937 
969 941 1010 909 876 915 903 925 1000 
1043 934 961 860 968 1030 940 881 997 
875 995 984 948 1067 943 981 949 960 
971 959 870 982 853 1006 1034 955 966 
924 998 1025 892 939 921 913 932 1018 
1009 942 993 872 928 930 900 1007 974 
946 1050 1011 1059 967 1016 954 979 1049 
1053 956 922 1004 992 910 1047 976 917 
977 912 991 999 908 885 965 919 1008 
1013 918 970 927 973 1064 980 933 895 
1001 1037 916 983 994 996 963 1046 987 
936 945 1015 964 902 1114 1098 1121 1187 
1119 1014 1039 1104 972 989 1099 1127 1024 
1045 1180 1108 1032 1158 1077 1125 1027 1054 
1041 1058 1076 1133 1122 1103 1073 1126 1072 
1021 1071 975 1090 1026 1142 1097 1023 1081 
1066 1089 1028 978 952 1084 1128 1052 1088 
1065 1118 1101 1022 1038 1063 1085 1100 1061 
1035 988 1112 1095 1056 1110 1086 1070 1117 
1040 1093 1120 1068 1069 1055 1017 1123 1111 
1175 1079 1019 985 1115 1087 1096 1106 1051 
1124 1116 1140 1188 1075 1057 1036 1002 1031 
962 1109 1060 1083 1094 1033 1177 1048 1102 
1105 1062 1091 1130 1044 1074 1161 1042 1129 
1272 1168 1221 1242 1170 1191 1244 1184 1299 
1182 1211 1245 1351 1236 1139 1147 1229 1218 
1156 1154 1107 1215 1198 1225 1181 1169 1202 
1179 1222 1162 1217 1226 1206 1146 1171 1167 
1300 1150 1164 1152 1197 1201 1141 1080 1192 
1138 1224 1189 1297 1205 1160 1196 1214 1247 
1144 1092 1134 1155 1183 1166 1223 1209 1149 
1082 1157 1194 1136 1178 1220 1292 1153 1288 
1204 1145 1078 1231 1113 1219 1172 1207 1193 
1241 1186 1165 1203 1131 1227 1185 1173 1216 
1195 1137 1132 1159 1163 1246 1234 1210 1208 
1212 1176 1243 1135 1148 1174 1151 1199 1235 
1143 1230 1342 1337 1293 1304 1294 1382 1344 
1291 1331 1253 1269 1233 1323 1213 1310 1254 
1261 1262 1238 1308 1265 1252 1317 1339 1281 
1301 1239 1341 1307 1320 1354 1282 1274 1287 
1285 1350 1251 1343 1255 1270 1348 1302 1237 
1290 1333 1303 1264 1276 1296 1275 1240 1334 
1263 1271 1228 1357 1327 1250 1359 1256 1257 
1340 1284 1258 1298 1267 1248 1249 1319 1286 
1322 1266 1278 1324 1200 1268 1190 1289 1277 
1330 1377 1313 1259 1280 1232 1329 1295 1321 
1279 1260 1336 1283 1369 1335 1394 1362 1312 
1360 1363 1399 1347 1305 1273 1371 1392 1365 
1325 1364 1374 1378 1368 1389 1328 1353 1375 
1376 1370 1383 1309 1381 1318 1398 1315 1356 
1366 1386 1346 1388 1306 1384 1355 1358 1314 
1391 1338 1372 1395 1349 1352 1390 1380 1326 
1332 1393 1361 1379 1373 1387 1396 1316 1397 
1400 1311 1367 1345 1385 
type 1 1400 int
1 1 1 1 1 1 1 1 1 
1 1 1 1 1 1 1 1 1 
1 1 1 1 1 1 1 1 1 
1 1 1 1 1 1 1 1 1 
1 1 1 1 1 1 1 1 1 
1 1 1 1 1 1 1 1 1 
1 1 1 1 1 1 1 1 1 
1 1 1 1 1 1 1 1 1 
1 1 1 1 1 1 1 1 1 
1 1 1 1 1 1 1 1 1 
1 1 1 1 1 1 1 1 1 
1 1 1 1 1 1 1 1 1 
1 1 1 1 1 1 1 1 1 
1 1 1 1 1 1 1 1 1 
1 1 1 1 1 1 1 1 1 
1 1 1 1 1 1 1 1 1 
1 1 1 1 1 1 1 1 1 
1 1 1 1 1 1 1 1 1 
1 1 1 1 1 1 1 1 1 
1 1 1 1 1 1 1 1 1 
1 1 1 1 1 1 1 1 1 
1 1 1 1 1 1 1 1 1 
1 1 1 1 1 1 1 1 1 
1 1 1 1 1 1 1 1 1 
1 1 1 1 1 1 1 1 1 
1 1 1 1 1 1 1 1 1 
1 1 1 1 1 1 1 1 1 
1 1 1 1 1 1 1 1 1 
1 1 1 1 1 1 1 1 1 
1 1 1 1 1 1 1 1 1 
1 1 1 1 1 1 1 1 1 
1 1 1 1 1 1 1 1 1 
1 1 1 1 1 1 1 1 1 
1 1 1 1 1 1 1 1 1 
1 1 1 1 1 1 1 1 1 
1 1 1 1 1 1 1 1 1 
1 1 1 1 1 1 1 1 1 
1 1 1 1 1 1 1 1 1 
1 1 1 1 1 1 1 1 1 
1 1 1 1 1 1 1 1 1 
1 1 1 1 1 1 1 1 1 
1 1 1 1 1 1 1 1 1 
1 1 1 1 1 1 1 1 1 
1 1 1 1 1 1 1 1 1 
1 1 1 1 1 1 1 1 1 
1 1 1 1 1 1 1 1 1 
1 1 1 1 1 1 1 1 1 
1 1 1 1 1 1 1 1 1 
1 1 1 1 1 1 1 1 1 
1 1 1 1 1 1 1 1 1 
1 1 1 1 1 1 1 1 1 
1 1 1 1 1 1 1 1 1 
1 1 1 1 1 1 1 1 1 
1 1 1 1 1 1 1 1 1 
1 1 1 1 1 1 1 1 1 
1 1 1 1 1 1 1 1 1 
1 1 1 1 1 1 1 1 1 
1 1 1 1 1 1 1 1 1 
1 1 1 1 1 1 1 1 1 
1 1 1 1 1 1 1 1 1 
1 1 1 1 1 1 1 1 1 
1 1 1 1 1 1 1 1 1 
1 1 1 1 1 1 1 1 1 
1 1 1 1 1 1 1 1 1 
1 1 1 1 1 1 1 1 1 
1 1 1 1 1 1 1 1 1 
1 1 1 1 1 1 1 1 1 
1 1 1 1 1 1 1 1 1 
1 1 1 1 1 1 1 1 1 
1 1 1 1 1 1 1 1 1 
1 1 1 1 1 1 1 1 1 
1 1 1 1 1 1 1 1 1 
1 1 1 1 1 1 1 1 1 
1 1 1 1 1 1 1 1 1 
1 1 1 1 1 1 1 1 1 
1 1 1 1 1 1 1 1 1 
1 1 1 1 1 1 1 1 1 
1 1 1 1 1 1 1 1 1 
1 1 1 1 1 1 1 1 1 
1 1 1 1 1 1 1 1 1 
1 1 1 1 1 1 1 1 1 
1 1 1 1 1 1 1 1 1 
1 1 1 1 1 1 1 1 1 
1 1 1 1 1 1 1 1 1 
1 1 1 1 1 1 1 1 1 
1 1 1 1 1 1 1 1 1 
1 1 1 1 1 1 1 1 1 
1 1 1 1 1 1 1 1 1 
1 1 1 1 1 1 1 1 1 
1 1 1 1 1 1 1 1 1 
1 1 1 1 1 1 1 1 1 
1 1 1 1 1 1 1 1 1 
1 1 1 1 1 1 1 1 1 
1 1 1 1 1 1 1 1 1 
1 1 1 1 1 1 1 1 1 
1 1 1 1 1 1 1 1 1 
1 1 1 1 1 1 1 1 1 
1 1 1 1 1 1 1 1 1 
1 1 1 1 1 1 1 1 1 
1 1 1 1 1 1 1 1 1 
1 1 1 1 1 1 1 1 1 
1 1 1 1 1 1 1 1 1 
1 1 1 1 1 1 1 1 1 
1 1 1 1 1 1 1 1 1 
1 1 1 1 1 1 1 1 1 
1 1 1 1 1 1 1 1 1 
1 1 1 1 1 1 1 1 1 
1 1 1 1 1 1 1 1 1 
1 1 1 1 1 1 1 1 1 
1 1 1 1 1 1 1 1 1 
1 1 1 1 1 1 1 1 1 
1 1 1 1 1 1 1 1 1 
1 1 1 1 1 1 1 1 1 
1 1 1 1 1 1 1 1 1 
1 1 1 1 1 1 1 1 1 
1 1 1 1 1 1 1 1 1 
1 1 1 1 1 1 1 1 1 
1 1 1 1 1 1 1 1 1 
1 1 1 1 1 1 1 1 1 
1 1 1 1 1 1 1 1 1 
1 1 1 1 1 1 1 1 1 
1 1 1 1 1 1 1 1 1 
1 1 1 1 1 1 1 1 1 
1 1 1 1 1 1 1 1 1 
1 1 1 1 1 1 1 1 1 
1 1 1 1 1 1 1 1 1 
1 1 1 1 1 1 1 1 1 
1 1 1 1 1 1 1 1 1 
1 1 1 1 1 1 1 1 1 
1 1 1 1 1 1 1 1 1 
1 1 1 1 1 1 1 1 1 
1 1 1 1 1 1 1 1 1 
1 1 1 1 1 1 1 1 1 
1 1 1 1 1 1 1 1 1 
1 1 1 1 1 1 1 1 1 
1 1 1 1 1 1 1 1 1 
1 1 1 1 1 1 1 1 1 
1 1 1 1 1 1 1 1 1 
1 1 1 1 1 1 1 1 1 
1 1 1 1 1 1 1 1 1 
1 1 1 1 1 1 1 1 1 
1 1 1 1 1 1 1 1 1 
1 1 1 1 1 1 1 1 1 
1 1 1 1 1 1 1 1 1 
1 1 1 1 1 1 1 1 1 
1 1 1 1 1 1 1 1 1 
1 1 1 1 1 1 1 1 1 
1 1 1 1 1 1 1 1 1 
1 1 1 1 1 1 1 1 1 
1 1 1 1 1 1 1 1 1 
1 1 1 1 1 1 1 1 1 
1 1 1 1 1 1 1 1 1 
1 1 1 1 1 1 1 1 1 
1 1 1 1 1 1 1 1 1 
1 1 1 1 1 1 1 1 1 
1 1 1 1 1 
i 3 1400 int
0 0 0 0 0 0 0 0 0 
0 0 0 0 0 0 0 0 0 
0 1 0 0 0 0 0 0 0 
0 0 0 0 0 0 0 0 0 
0 0 0 0 0 0 0 0 0 
0 0 0 0 0 0 0 0 0 
0 0 0 0 0 0 0 0 0 
0 0 0 0 0 0 0 0 0 
0 0 0 0 0 0 0 0 0 
1 0 0 0 0 0 0 0 0 
0 0 0 0 0 0 0 0 0 
0 0 0 0 0 0 0 0 0 
0 0 0 0 0 0 0 0 0 
0 0 0 0 0 0 0 0 0 
0 0 0 0 0 0 -1 0 0 
0 0 0 0 0 0 0 0 0 
0 0 0 0 0 0 0 0 0 
0 0 0 0 0 0 0 0 0 
0 0 0 0 0 0 0 0 0 
0 0 0 0 0 0 0 0 0 
0 0 0 0 0 0 0 0 0 
0 0 0 0 0 0 0 0 0 
0 0 0 0 0 0 0 0 0 
0 0 0 0 0 0 0 0 0 
0 0 0 0 0 0 0 0 0 
0 0 0 0 0 0 1 0 0 
0 0 0 0 0 0 0 0 0 
0 0 0 0 0 0 0 0 0 
0 0 0 0 0 0 0 0 0 
0 -1 0 0 0 0 0 -1 0 
0 0 0 0 0 0 0 0 0 
0 -1 0 0 0 0 0 1 0 
0 0 0 0 0 0 0 0 0 
0 0 0 0 0 0 0 0 0 
0 0 0 0 0 0 0 0 0 
0 0 0 0 0 0 0 0 0 
0 0 0 0 0 0 0 0 0 
0 0 0 0 0 0 0 0 0 
0 0 0 0 0 0 0 0 0 
0 0 0 0 0 0 0 0 0 
0 0 0 0 0 0 0 0 0 
0 0 0 0 0 0 0 0 0 
0 0 0 0 0 0 0 0 0 
0 0 0 0 0 0 0 0 0 
0 0 0 0 0 0 0 0 0 
0 0 0 0 0 0 0 0 0 
0 0 0 0 0 0 0 0 0 
0 0 0 0 0 0 0 0 0 
0 0 0 0 0 0 0 0 0 
0 0 0 0 0 0 0 0 0 
0 0 0 0 0 0 0 0 0 
0 0 0 0 0 0 0 0 0 
0 0 0 0 0 0 0 0 0 
0 0 0 0 0 0 0 0 0 
0 0 0 0 0 0 0 0 0 
0 0 0 0 0 0 0 0 0 
0 0 0 0 0 0 0 0 0 
0 0 0 0 0 0 0 0 0 
0 0 0 0 0 0 0 0 0 
0 0 0 0 0 0 0 0 0 
0 0 0 0 0 0 0 0 0 
0 0 0 0 0 0 0 0 0 
0 0 0 0 0 0 0 0 0 
0 0 0 0 0 0 0 0 0 
0 0 0 0 0 0 0 0 0 
0 0 0 0 0 0 0 0 0 
0 0 0 0 -1 0 0 0 0 
0 0 0 0 0 0 0 0 0 
0 0 0 0 0 0 0 0 0 
0 0 0 0 1 0 0 0 0 
0 0 0 0 0 0 0 0 0 
0 0 0 0 0 0 0 0 0 
0 0 0 0 0 0 0 0 0 
0 0 0 0 0 0 0 0 0 
0 0 0 0 0 0 0 0 0 
0 0 0 0 0 0 0 0 0 
0 0 0 0 0 0 0 0 0 
0 0 0 0 0 0 0 0 0 
0 0 0 0 0 0 0 0 0 
0 0 0 0 0 0 0 0 0 
0 0 0 0 0 0 0 0 0 
0 0 0 0 0 0 0 0 0 
0 0 0 0 0 0 0 0 0 
0 0 0 0 0 0 0 0 0 
0 0 0 0 0 0 0 0 0 
0 0 0 0 0 0 0 0 0 
0 0 0 0 0 0 0 0 0 
0 0 0 0 0 0 0 0 0 
0 0 0 0 0 0 0 0 0 
0 0 0 0 0 0 -1 0 0 
0 0 0 0 0 0 0 0 0 
0 0 0 0 0 0 0 0 0 
0 0 0 0 0 0 0 0 0 
0 0 0 0 0 0 0 0 0 
0 0 0 0 0 0 0 0 0 
0 0 0 0 0 0 0 0 0 
0 0 0 0 0 0 0 0 0 
0 0 0 0 0 0 0 0 0 
0 0 0 0 0 0 0 0 0 
0 0 0 0 0 0 0 0 0 
0 0 0 -1 0 0 0 0 0 
0 0 0 0 0 0 0 0 0 
0 0 0 0 0 0 0 0 0 
0 0 0 0 0 0 0 0 0 
0 0 0 0 0 0 0 0 0 
0 0 0 0 0 0 0 0 0 
0 0 0 0 0 0 0 -1 0 
0 0 0 0 -1 0 0 0 0 
0 0 0 -1 0 0 0 0 0 
0 0 0 0 0 0 0 0 0 
0 0 0 0 0 0 0 0 0 
0 0 0 0 0 0 -1 0 0 
0 0 0 0 0 0 0 0 0 
0 0 0 0 0 0 0 0 0 
0 0 0 0 0 0 0 0 0 
0 0 0 0 0 0 -1 0 0 
0 0 0 0 0 0 0 0 0 
0 0 0 0 0 0 0 0 0 
0 0 0 0 0 0 0 0 0 
0 0 0 0 0 0 0 0 0 
0 0 0 0 0 0 0 0 0 
0 0 0 0 0 0 0 0 0 
0 0 0 0 0 0 0 0 0 
0 0 0 0 0 0 0 0 0 
0 0 0 0 0 0 0 0 0 
0 0 0 0 0 0 0 0 0 
0 0 0 0 0 0 0 0 0 
0 0 0 0 0 0 0 0 0 
0 0 0 0 0 0 0 0 0 
0 0 0 0 0 0 0 0 0 
0 0 0 0 0 0 0 0 0 
0 0 0 0 0 0 0 0 0 
0 0 0 0 0 0 0 0 0 
0 0 0 0 0 0 0 0 0 
0 0 0 0 0 0 0 0 0 
0 0 0 0 0 0 0 0 0 
0 0 0 0 0 0 0 0 0 
0 0 0 0 0 0 0 0 0 
0 0 0 0 0 0 0 0 0 
0 0 0 0 0 0 0 0 0 
0 0 0 0 0 0 0 0 0 
0 0 0 0 0 0 0 0 0 
0 0 0 0 0 0 0 0 0 
0 0 0 0 0 0 0 0 0 
0 0 0 0 0 0 0 0 0 
0 0 0 0 0 0 0 -1 0 
0 0 0 0 0 0 0 0 0 
1 0 0 0 0 0 0 0 0 
0 0 0 0 0 0 0 0 0 
0 0 0 0 0 0 0 1 0 
0 0 0 0 0 0 0 0 0 
0 0 0 0 0 0 0 0 0 
0 0 0 0 0 0 0 0 0 
0 0 0 0 0 0 0 0 0 
0 0 0 0 0 0 0 0 0 
0 0 0 0 0 0 0 0 0 
0 0 0 0 0 0 0 0 0 
0 0 0 0 0 0 -1 0 0 
0 0 0 0 0 0 0 0 0 
0 0 0 0 0 0 0 0 0 
0 0 0 0 0 0 0 0 0 
0 0 0 0 0 0 0 0 0 
0 0 0 0 0 0 0 0 0 
0 0 0 0 0 0 0 0 0 
0 0 0 0 0 0 0 0 0 
0 0 0 0 0 0 0 0 0 
0 0 0 0 0 0 0 0 0 
0 0 0 0 0 0 0 0 0 
0 0 0 0 0 0 0 0 0 
0 0 0 0 0 0 0 0 0 
0 0 0 0 0 0 0 0 0 
0 0 0 0 0 0 0 0 0 
0 0 0 0 0 0 0 0 0 
0 0 0 0 0 0 0 0 0 
0 0 0 0 0 0 0 0 0 
0 0 0 0 0 0 0 0 0 
0 0 0 0 0 0 0 0 0 
0 0 0 0 0 0 0 0 0 
0 0 0 0 0 0 0 0 0 
0 0 0 0 0 0 0 0 0 
0 0 0 0 0 0 0 0 0 
0 0 0 0 0 0 0 0 0 
0 0 0 0 0 0 0 0 0 
0 0 0 0 0 0 0 0 0 
0 0 0 0 0 0 0 0 0 
0 0 0 0 0 0 0 0 0 
0 0 0 0 0 0 0 0 0 
0 0 0 0 0 0 0 0 0 
0 0 0 0 0 0 0 0 0 
0 0 0 0 0 0 0 0 0 
0 0 0 0 0 0 0 0 0 
0 0 0 0 0 0 0 0 0 
0 0 0 0 0 0 0 0 0 
0 0 0 0 0 0 0 0 0 
0 0 0 0 0 0 0 0 0 
0 0 0 0 0 0 0 0 0 
0 0 0 0 0 0 0 0 0 
0 0 0 0 0 0 0 0 0 
0 0 0 0 0 0 0 0 0 
0 0 0 0 0 0 0 0 0 
0 0 0 0 0 0 0 0 0 
0 0 0 0 0 0 0 0 0 
0 0 0 0 0 0 0 0 0 
0 0 0 0 0 0 0 0 0 
0 0 0 0 0 0 0 0 0 
0 0 0 0 0 0 0 0 0 
0 0 0 0 0 0 0 0 0 
0 0 0 0 0 0 0 0 0 
0 0 0 0 0 0 0 0 0 
0 0 0 0 0 0 0 0 0 
0 0 0 0 0 0 0 0 0 
0 0 0 0 0 0 0 0 0 
0 0 0 0 0 0 0 0 0 
0 0 0 0 0 0 0 0 0 
0 0 0 0 0 0 0 0 0 
0 0 0 0 0 0 0 0 0 
0 0 0 0 0 0 0 0 0 
0 0 0 0 0 0 0 0 0 
0 0 0 0 0 0 0 0 0 
0 0 0 0 0 0 0 0 0 
0 0 0 0 0 0 0 0 0 
0 0 0 0 0 0 0 0 0 
0 0 0 0 0 0 0 0 0 
0 0 0 0 0 0 0 0 0 
0 0 0 0 0 0 0 0 0 
0 0 0 0 0 0 0 0 0 
0 0 0 0 0 0 0 0 0 
0 0 0 0 0 0 0 0 0 
0 0 0 0 0 0 0 0 0 
0 0 0 0 0 0 0 0 0 
0 0 0 0 0 0 0 0 0 
0 0 0 0 0 0 0 0 0 
0 0 0 0 0 0 0 0 0 
0 0 0 0 0 0 0 0 0 
0 0 0 0 0 0 0 0 0 
0 0 0 0 0 0 0 0 0 
0 0 0 0 0 0 0 0 0 
0 0 0 0 0 0 0 0 0 
0 0 0 0 0 0 0 0 0 
0 0 0 0 0 0 0 0 0 
0 0 0 0 0 0 0 0 0 
0 0 0 0 0 0 0 0 0 
0 0 0 0 0 0 0 0 0 
0 0 0 0 0 0 0 0 0 
0 0 0 0 0 0 0 0 0 
0 0 0 0 0 0 0 0 0 
0 0 0 0 0 0 0 0 0 
0 0 0 0 0 0 0 0 0 
0 0 0 0 0 0 0 0 0 
0 0 0 0 0 0 0 0 0 
0 0 0 0 0 0 0 0 0 
0 0 0 1 0 0 0 0 0 
0 0 0 0 0 0 0 0 0 
0 0 0 0 0 0 0 0 0 
0 0 0 0 0 0 0 0 0 
0 0 0 0 0 0 0 0 0 
0 0 0 0 0 0 0 0 0 
0 0 0 0 0 0 0 0 0 
0 0 0 0 0 0 0 0 0 
0 -1 0 0 0 0 0 0 0 
0 0 0 0 0 0 0 0 0 
0 0 0 0 0 0 0 0 0 
0 0 0 -1 0 0 0 0 0 
0 0 0 0 0 0 0 0 0 
0 1 0 0 0 0 0 0 0 
0 0 0 0 0 0 0 0 0 
0 0 0 0 0 0 0 0 0 
0 0 0 0 0 0 0 0 0 
0 0 0 0 0 0 0 0 0 
0 0 0 0 0 0 0 0 0 
0 0 0 0 0 0 0 0 0 
0 0 0 0 0 0 0 0 0 
0 0 0 0 0 0 0 0 0 
0 0 0 0 0 0 0 0 0 
0 0 0 0 0 0 0 0 0 
0 0 0 0 0 0 0 0 0 
0 0 0 0 0 0 0 0 0 
0 0 0 0 0 0 1 0 0 
0 0 0 0 0 0 0 0 0 
0 0 0 0 0 0 0 0 0 
0 0 0 0 0 0 0 0 0 
0 0 0 0 0 0 0 0 0 
0 0 0 0 0 0 0 0 0 
0 0 0 0 0 0 0 0 0 
0 0 0 0 0 0 0 0 0 
0 0 0 0 0 0 0 0 0 
0 0 0 0 0 0 0 0 0 
0 0 0 0 0 0 0 0 0 
0 0 0 0 0 0 0 0 0 
0 0 0 0 0 0 0 0 0 
0 0 0 0 0 0 0 0 0 
0 0 0 0 0 0 0 0 0 
0 0 0 0 0 0 0 0 0 
0 0 0 0 0 0 0 0 0 
0 0 0 0 0 0 0 0 0 
0 0 0 0 0 0 0 0 0 
0 0 0 0 0 0 0 0 0 
0 0 0 0 0 0 0 0 0 
1 0 0 0 0 0 0 0 0 
0 0 0 0 0 0 0 0 0 
0 0 0 0 0 0 0 0 0 
0 0 0 0 0 0 0 -1 0 
0 0 0 0 0 0 0 0 0 
0 0 0 0 0 0 0 0 0 
0 0 0 0 0 0 0 0 0 
0 0 0 0 0 0 0 0 0 
0 0 0 0 0 0 0 0 0 
0 0 0 0 0 0 0 0 0 
0 0 0 0 0 0 0 0 0 
0 0 0 0 0 0 1 0 0 
0 0 0 0 0 0 0 0 0 
0 0 0 0 0 0 0 0 0 
0 0 0 0 0 0 0 0 0 
0 0 0 0 0 0 0 0 0 
0 0 0 0 0 0 0 0 0 
0 0 0 0 0 0 0 0 0 
0 0 0 0 0 0 0 0 0 
0 0 0 0 0 0 0 0 0 
0 0 0 0 0 0 0 0 0 
0 0 0 0 0 0 0 0 0 
0 0 0 0 0 0 0 0 0 
0 0 0 0 0 0 1 0 0 
0 0 0 0 0 0 0 0 0 
0 0 0 0 0 0 0 0 0 
0 0 0 0 0 0 0 0 0 
0 0 0 0 0 0 0 0 0 
0 0 0 0 0 0 0 0 0 
0 0 0 0 0 0 0 0 0 
0 0 0 0 0 0 0 0 0 
0 0 0 0 0 0 0 0 0 
0 0 0 0 0 0 0 0 0 
0 0 0 0 0 0 0 0 0 
0 0 0 0 0 0 0 0 0 
0 0 0 0 0 0 0 0 0 
0 0 0 0 0 0 0 0 0 
0 0 0 0 0 0 0 0 0 
0 0 0 0 0 0 0 0 0 
0 0 0 0 0 0 1 0 0 
0 0 0 0 0 0 0 -1 0 
0 0 0 0 0 0 0 0 0 
0 0 0 0 0 0 0 1 0 
0 0 0 0 0 0 0 0 0 
0 0 0 0 0 0 0 0 0 
0 0 0 0 0 0 0 0 0 
0 0 0 0 0 0 -1 0 0 
0 0 0 0 0 0 0 0 0 
0 0 0 0 0 0 0 0 0 
0 0 0 0 0 0 0 0 0 
0 0 0 0 0 0 0 0 0 
0 0 0 0 0 0 0 0 0 
0 0 0 0 0 0 0 0 0 
0 0 0 0 0 0 0 0 0 
0 0 0 0 0 0 0 0 0 
0 0 0 0 0 0 0 0 0 
0 0 0 0 0 0 0 0 0 
0 0 0 0 0 0 0 0 0 
0 0 0 0 0 0 0 0 0 
0 0 0 0 0 0 0 0 0 
0 0 0 0 0 0 0 0 0 
0 0 0 0 0 0 0 0 0 
0 0 0 0 0 0 0 0 0 
0 0 0 0 0 0 0 0 0 
0 0 0 0 0 0 0 0 0 
0 0 0 0 0 0 0 0 0 
0 0 0 0 0 0 0 0 0 
0 0 0 0 0 0 0 0 0 
0 0 0 0 0 0 0 0 0 
0 0 0 0 0 0 0 0 0 
0 0 0 0 0 0 0 0 0 
0 0 0 0 0 0 0 0 0 
0 0 0 0 0 0 0 0 0 
0 0 0 0 0 0 0 0 0 
0 0 0 0 0 0 0 0 0 
0 0 0 0 0 0 0 0 0 
0 0 0 0 0 0 0 0 0 
0 0 0 0 0 0 0 0 0 
0 0 0 0 0 0 0 -1 0 
0 0 0 0 0 0 0 0 0 
0 0 0 0 0 0 0 0 0 
0 0 0 0 0 0 0 0 0 
0 0 0 0 0 0 0 0 0 
0 0 0 0 0 0 0 0 0 
0 0 0 0 0 0 0 0 0 
0 0 0 0 0 0 0 0 0 
0 0 0 0 0 0 0 0 0 
0 0 0 0 0 0 0 0 0 
1 0 0 0 0 0 0 0 0 
0 0 0 0 0 0 0 0 0 
0 0 0 0 0 0 0 0 0 
0 0 0 0 0 0 0 0 0 
0 0 0 0 0 0 0 0 0 
0 0 0 0 0 0 0 0 0 
0 0 0 0 0 0 0 0 0 
0 0 0 0 0 0 0 0 0 
0 0 0 0 0 0 0 0 0 
0 0 0 0 0 0 0 0 0 
0 0 0 0 0 0 0 0 0 
-1 0 0 0 0 0 0 0 0 
0 0 0 0 0 0 0 0 0 
0 0 0 0 0 0 0 0 0 
0 0 0 0 0 0 0 0 0 
0 0 0 0 0 0 -1 0 0 
0 0 0 0 0 0 0 0 0 
0 0 0 0 0 0 0 0 0 
0 0 0 0 0 0 0 0 0 
0 0 0 0 0 0 0 0 0 
0 0 0 0 0 0 0 0 0 
0 0 0 0 0 0 0 0 0 
0 0 0 0 0 0 0 0 0 
0 0 0 0 0 0 0 0 0 
0 0 0 0 0 0 0 0 0 
0 0 0 0 0 0 0 0 0 
0 0 0 0 0 0 0 0 0 
0 0 0 0 0 0 0 0 0 
0 0 0 0 0 0 0 0 0 
0 0 0 0 0 0 0 0 0 
0 0 0 0 0 0 0 0 0 
0 0 0 0 0 0 0 0 0 
0 0 0 0 0 0 0 0 0 
0 0 0 0 0 0 0 0 0 
0 0 0 0 0 0 0 0 0 
0 0 0 0 0 0 0 0 0 
0 0 0 0 0 0 0 0 0 
0 0 0 0 0 0 0 0 0 
0 0 0 0 0 0 0 0 0 
0 0 0 0 0 0 0 0 0 
0 0 0 0 0 0 0 0 0 
0 0 0 0 0 0 0 0 0 
0 0 0 0 0 0 0 0 0 
0 0 0 0 0 0 0 0 0 
0 0 0 0 0 0 0 0 0 
0 0 0 0 0 0 0 0 0 
0 0 0 0 0 0 0 0 0 
0 0 0 0 0 0 0 0 0 
0 0 0 0 0 0 0 0 0 
0 0 0 0 0 0 0 0 0 
0 0 0 0 0 0 0 0 0 
0 0 0 0 0 0 0 0 0 
0 0 0 0 0 0 0 0 0 
0 0 0 0 0 0 0 0 0 
0 0 0 0 0 0 0 0 0 
0 0 0 0 0 0 0 0 0 
0 0 0 0 0 0 0 0 0 
0 0 0 0 0 0 0 0 0 
0 0 0 0 0 0 0 0 0 
0 0 0 0 0 0 0 0 0 
0 0 0 0 0 0 0 0 0 
0 0 0 0 0 0 0 0 0 
0 0 0 0 0 0 0 0 0 
0 0 0 0 0 0 0 0 0 
0 0 0 0 0 0 0 0 0 
0 0 0 0 0 0 0 0 0 
0 0 0 0 0 0 0 0 0 
0 0 0 0 0 0 0 0 0 
0 0 0 0 0 0 0 0 0 
0 0 0 0 0 0 0 0 0 
0 0 0 0 0 0 0 0 0 
0 0 0 0 0 0 0 0 0 
0 0 0 0 0 0 0 0 0 
0 0 0 0 0 0 0 0 0 
0 0 0 0 0 0 0 0 0 
0 0 0 0 0 0 0 0 0 
0 0 0 0 0 0 0 0 0 
0 0 0 0 0 0 0 0 0 
0 0 0 0 0 0 0 0 0 
0 0 0 0 0 0 0 0 0 
0 0 0 0 0 0 
v 3 1400 double
3.54969e-07 -4.5474e-06 2.84847e-06 2.55763e-06 1.13766e-06 -8.06366e-07 -2.18173e-05 -1.17174e-06 -1.70836e-16 
-3.86688e-07 2.3331e-06 2.01514e-07 3.17536e-06 8.74283e-06 -8.72515e-07 -1.01716e-05 -6.72819e-06 -1.98531e-06 
1.49134e-05 6.99602e-07 5.61066e-06 8.23648e-06 3.62381e-06 1.29267e-05 8.30686e-06 1.58151e-05 1.06885e-06 
-2.88725e-07 -3.23024e-06 3.41194e-06 -1.89257e-06 -1.37688e-06 -5.35162e-08 -2.55999e-06 7.70942e-06 2.20545e-07 
-1.84653e-08 6.8871e-06 -4.79749e-06 -3.57795e-05 9.15432e-05 -4.31569e-06 -1.33389e-05 -3.29922e-06 1.81256e-06 
-1.1448e-06 3.36433e-06 1.26407e-06 -6.62334e-07 -2.523e-06 -7.36648e-09 5.2337e-06 -7.91781e-06 1.1764e-06 
-3.34543e-07 -2.38385e-06 3.15324e-06 -2.42747e-06 2.9507e-06 5.8663e-06 -7.39504e-06 2.24082e-06 1.50661e-06 
1.42886e-06 -1.91352e-06 -1.64199e-06 -3.65036e-06 3.35471e-06 1.49586e-07 2.3903e-06 3.17477e-07 5.24059e-07 
-1.10238e-06 4.08284e-06 -3.46329e-06 -2.98443e-06 3.01334e-07 5.10395e-08 3.00318e-06 -1.50993e-06 -1.80663e-06 
-9.51436e-06 2.7589e-05 -3.08045e-05 -7.32981e-06 2.51067e-06 -1.75353e-06 -2.48808e-07 -1.10301e-06 2.11537e-06 
-1.36107e-05 9.00668e-06 2.39951e-06 -2.99631e-06 -3.43381e-06 9.48989e-07 -1.04465e-05 -1.33888e-06 -4.28867e-06 
8.08244e-06 5.93508e-08 -8.70161e-07 -6.66699e-06 1.11141e-06 1.96323e-06 -1.21931e-05 4.75178e-06 -1.09904e-05 
-2.12414e-06 3.39047e-06 -2.65152e-06 -1.28199e-05 3.81374e-06 -3.4954e-06 -7.70778e-07 -4.29661e-06 4.11428e-07 
-6.33202e-06 1.15543e-05 -1.32664e-05 -3.98941e-07 4.67852e-06 1.14982e-06 -1.0681e-06 3.98492e-06 -1.16467e-06 
6.49491e-07 -8.06904e-07 -2.79942e-06 -1.45447e-05 -1.85534e-06 1.86735e-06 2.97363e-05 -4.21928e-06 9.55731e-16 
-1.52724e-06 3.9499e-06 4.21466e-07 -2.87741e-06 3.32864e-06 -5.31555e-07 -2.74764e-06 -7.23476e-07 2.10879e-06 
2.0856e-06 6.93527e-06 -1.27959e-06 1.2482e-06 3.78141e-06 3.08783e-06 1.29114e-06 4.62683e-06 1.57824e-07 