FoamFile
{version 2.0; format ascii;class vectorField; location 0;object  v;}
353
(
( 5.54201e-06 4.80343e-06 1.13012e-06 )  
( 4.31302e-06 5.14917e-06 1.9517e-06 )  
( -7.53693e-07 2.87329e-06 5.35148e-08 )  
( -1.97752e-06 1.21838e-06 -2.44329e-10 )  
( 4.0113e-06 2.83094e-06 3.53347e-07 )  
( 4.41184e-06 3.10867e-06 -2.09968e-06 )  
( 7.20623e-06 2.52006e-06 1.9983e-07 )  
( 6.16712e-06 8.34714e-07 1.73755e-07 )  
( 3.40955e-06 2.71086e-06 -3.73111e-07 )  
( -4.65797e-07 3.30284e-06 8.93459e-07 )  
( 7.49736e-06 4.90453e-06 -3.02041e-07 )  
( 4.55517e-06 2.96588e-06 -9.38633e-07 )  
( 7.90419e-06 5.51075e-06 3.09168e-07 )  
( 6.14431e-06 5.27357e-06 3.60929e-07 )  
( 4.40996e-06 5.10351e-06 -2.06414e-06 )  
( 4.65559e-07 3.56698e-06 1.2216e-10 )  
( 5.29448e-06 3.72351e-06 -6.96095e-07 )  
( 1.14323e-05 8.05612e-06 -9.7075e-07 )  
( 9.34831e-06 6.26189e-06 -2.11072e-06 )  
( 1.09578e-05 4.4321e-06 2.09673e-12 )  
( 1.12796e-05 8.302e-06 -1.9362e-06 )  
( 1.20055e-05 6.08411e-06 -2.38313e-06 )  
( 1.01833e-05 5.02912e-06 2.20613e-06 )  
( 6.95276e-06 4.82482e-06 -4.75755e-07 )  
( 5.64394e-06 3.27863e-06 1.62887e-06 )  
( 4.96819e-06 2.81988e-06 -1.50128e-07 )  
( 9.93411e-06 6.6153e-06 -8.86474e-07 )  
( 4.35012e-06 2.47674e-06 1.38374e-06 )  
( 1.02457e-05 6.72201e-06 -1.51392e-06 )  
( 5.35641e-06 3.86944e-06 3.672e-07 )  
( 8.63533e-06 5.8742e-06 -9.58365e-07 )  
( 1.02151e-05 6.33777e-06 -1.85052e-06 )  
( 1.02592e-05 5.87638e-06 -1.09924e-07 )  
( 7.89743e-06 7.27663e-06 9.04312e-07 )  
( 1.21012e-05 8.73489e-06 -6.53436e-07 )  
( 9.57668e-06 7.85141e-06 -1.5112e-07 )  
( 1.07788e-05 5.98669e-06 -1.00128e-06 )  
( 1.06297e-05 8.11603e-06 4.49365e-07 )  
( 1.15993e-05 6.08873e-06 -1.53027e-07 )  
( 1.08411e-05 6.17741e-06 5.14252e-07 )  
( 1.07904e-05 6.96604e-06 -2.82513e-07 )  
( 1.15389e-05 4.62197e-06 3.15491e-07 )  
( 1.11411e-05 6.81337e-06 -6.32872e-07 )  
( 1.29905e-05 6.47786e-06 1.44308e-06 )  
( 1.37522e-05 8.50427e-06 -1.43924e-06 )  
( 1.05734e-05 7.77671e-06 -1.86407e-06 )  
( 1.0424e-05 5.68114e-06 5.45734e-07 )  
( 1.02187e-05 7.59879e-06 1.06722e-06 )  
( 1.53598e-05 1.03063e-05 -1.01257e-06 )  
( 1.32052e-05 8.90233e-06 4.19167e-07 )  
( 1.34121e-05 7.80195e-06 4.89126e-07 )  
( 1.13866e-05 4.47241e-06 5.40936e-07 )  
( 9.30636e-06 5.35326e-06 2.89109e-07 )  
( 1.06087e-05 6.09889e-06 5.55124e-07 )  
( 1.1723e-05 6.97285e-06 -1.0701e-06 )  
( 1.27897e-05 9.60438e-06 -1.3588e-06 )  
( 1.59843e-05 9.18168e-06 6.0971e-07 )  
( 1.45394e-05 8.31337e-06 -5.92946e-09 )  
( 1.53807e-05 8.18976e-06 -7.56454e-07 )  
( 1.6691e-05 9.10003e-06 1.34886e-07 )  
( 1.47731e-05 6.72375e-06 5.82685e-07 )  
( 1.48676e-05 1.1108e-05 1.74132e-06 )  
( 1.65772e-05 7.89583e-06 -6.18517e-07 )  
( 1.28306e-05 7.43682e-06 -2.8142e-07 )  
( 1.36814e-05 9.54417e-06 -1.77726e-06 )  
( 1.59122e-05 7.99875e-06 -2.63548e-06 )  
( 1.67214e-05 1.04213e-05 -2.07779e-06 )  
( 1.38554e-05 6.6511e-06 8.50524e-08 )  
( 1.51221e-05 6.33124e-06 8.81682e-07 )  
( 1.83626e-05 1.07809e-05 -1.6687e-06 )  
( 1.45698e-05 1.02677e-05 7.08145e-07 )  
( 1.75739e-05 1.00595e-05 -4.78353e-07 )  
( 1.54903e-05 1.20732e-05 -2.16497e-06 )  
( 1.79287e-05 8.67421e-06 -7.46819e-07 )  
( 1.78363e-05 8.60675e-06 1.32104e-06 )  
( 1.74901e-05 7.81435e-06 4.05638e-07 )  
( 1.77105e-05 1.14912e-05 -6.81953e-07 )  
( 1.71587e-05 8.7987e-06 5.25683e-07 )  
( 1.23478e-05 6.50752e-06 -2.37134e-06 )  
( 1.50669e-05 8.93872e-06 -5.77421e-07 )  
( 1.59962e-05 1.07908e-05 1.32201e-07 )  
( 1.46982e-05 6.5065e-06 1.09621e-06 )  
( 2.31242e-05 1.04698e-05 2.51447e-07 )  
( 1.93119e-05 1.08942e-05 -1.88656e-06 )  
( 2.21899e-05 1.2397e-05 2.21636e-07 )  
( 1.8193e-05 9.49622e-06 8.31338e-07 )  
( 1.94051e-05 8.42193e-06 4.54133e-07 )  
( 2.55986e-05 1.03022e-05 2.35374e-06 )  
( 2.09391e-05 1.03771e-05 1.70589e-07 )  
( 1.69187e-05 9.51176e-06 1.197e-06 )  
( 1.62569e-05 1.04377e-05 -1.09631e-06 )  
( 1.98801e-05 5.90259e-06 -1.41613e-06 )  
( 1.93047e-05 8.8865e-06 1.6921e-06 )  
( 1.90604e-05 9.26524e-06 1.21969e-06 )  
( 1.92812e-05 1.09442e-05 -2.80877e-07 )  
( 1.73233e-05 1.0211e-05 -4.74846e-07 )  
( 1.91433e-05 1.33146e-05 2.06718e-06 )  
( 1.86584e-05 1.16686e-05 -1.09945e-06 )  
( 2.69065e-05 1.29299e-05 1.00948e-06 )  
( 1.29e-05 8.78939e-06 -1.05715e-07 )  
( 2.67624e-05 1.15479e-05 1.16648e-06 )  
( 1.90529e-05 9.91506e-06 6.19556e-07 )  
( 2.38403e-05 1.24812e-05 -5.97187e-07 )  
( 1.72695e-05 1.137e-05 6.09611e-07 )  
( 1.7983e-05 1.20519e-05 7.4904e-07 )  
( 2.0202e-05 1.17846e-05 8.30758e-08 )  
( 2.36304e-05 1.37858e-05 5.99439e-07 )  
( 2.38776e-05 1.19921e-05 -1.74845e-07 )  
( 1.96875e-05 1.1274e-05 1.12925e-06 )  
( 1.8487e-05 1.15928e-05 -8.82417e-08 )  
( 2.51178e-05 1.25289e-05 -2.16415e-06 )  
( 2.4831e-05 1.18221e-05 -4.20887e-08 )  
( 2.5761e-05 1.40653e-05 -6.33019e-07 )  
( 2.50594e-05 1.37737e-05 -7.04856e-07 )  
( 2.39977e-05 1.19201e-05 -2.23543e-06 )  
( 2.25715e-05 1.36655e-05 1.2635e-06 )  
( 2.66976e-05 1.38359e-05 6.22522e-07 )  
( 2.82384e-05 1.02348e-05 7.50293e-06 )  
( 2.23738e-05 1.33985e-05 -1.07366e-06 )  
( 2.22116e-05 1.14868e-05 7.03591e-07 )  
( 2.63445e-05 1.29845e-05 1.00636e-06 )  
( 2.42386e-05 1.53058e-05 -6.71046e-07 )  
( 2.51091e-05 1.34434e-05 2.54202e-07 )  
( 2.83515e-05 1.49907e-05 3.68145e-06 )  
( 2.5396e-05 1.25687e-05 1.01215e-06 )  
( 2.45202e-05 1.52648e-05 -2.55002e-06 )  
( 2.8255e-05 1.50724e-05 2.71899e-06 )  
( 2.84214e-05 1.53854e-05 -5.07289e-07 )  
( 2.36132e-05 1.01608e-05 -3.89806e-07 )  
( 3.29551e-05 1.32537e-05 1.10994e-06 )  
( 2.57523e-05 1.54113e-05 -1.86117e-07 )  
( 2.9209e-05 1.38229e-05 1.36033e-06 )  
( 2.64342e-05 1.41706e-05 1.39178e-06 )  
( 2.92015e-05 1.66673e-05 2.20421e-06 )  
( 3.0739e-05 1.77717e-05 5.04327e-06 )  
( 2.92323e-05 1.24324e-05 5.69386e-07 )  
( 2.68589e-05 1.58957e-05 -1.88864e-07 )  
( 2.59965e-05 1.28364e-05 3.1842e-06 )  
( 3.16111e-05 1.55385e-05 1.66406e-06 )  
( 3.01262e-05 1.6298e-05 4.25068e-07 )  
( 3.72652e-05 2.06752e-05 4.46906e-08 )  
( 2.8205e-05 1.80544e-05 -7.03692e-08 )  
( 2.84997e-05 1.32664e-05 8.51785e-07 )  
( 3.38766e-05 1.66472e-05 1.95723e-06 )  
( 2.92209e-05 1.66246e-05 4.96311e-07 )  
( 2.80694e-05 1.76473e-05 -1.26687e-07 )  
( 3.04687e-05 1.8937e-05 2.16798e-06 )  
( 2.95205e-05 1.6863e-05 3.66806e-07 )  
( 3.00059e-05 1.8347e-05 -7.22501e-07 )  
( 2.54974e-05 1.47818e-05 6.61728e-07 )  
( 2.6642e-05 1.53633e-05 -1.30254e-06 )  
( 3.08823e-05 1.74266e-05 -1.64795e-07 )  
( 2.81121e-05 1.49874e-05 1.09557e-06 )  
( 2.7879e-05 1.33727e-05 1.3749e-06 )  
( 3.3387e-05 1.71661e-05 -1.32299e-06 )  
( 2.81747e-05 1.18151e-05 4.08782e-06 )  
( 3.52274e-05 2.48299e-05 -1.83501e-06 )  
( 3.02819e-05 1.7018e-05 8.02403e-07 )  
( 3.44553e-05 1.88478e-05 -1.73923e-06 )  
( 3.33282e-05 2.04132e-05 -3.98787e-07 )  
( 3.51038e-05 1.30992e-05 -1.10756e-06 )  
( 3.39112e-05 2.07596e-05 1.4698e-06 )  
( 2.79544e-05 1.77553e-05 1.92022e-06 )  
( 3.60587e-05 1.92619e-05 -9.17901e-08 )  
( 2.92951e-05 1.66201e-05 1.44241e-06 )  
( 3.29487e-05 1.93847e-05 4.25412e-07 )  
( 2.85905e-05 1.62518e-05 -1.23255e-07 )  
( 3.30821e-05 2.04452e-05 3.001e-07 )  
( 3.03945e-05 1.58724e-05 9.81653e-07 )  
( 3.08478e-05 1.83268e-05 1.3555e-06 )  
( 3.35629e-05 2.04278e-05 1.96537e-06 )  
( 3.94347e-05 2.27804e-05 -1.05878e-06 )  
( 3.41216e-05 1.79853e-05 4.70369e-07 )  
( 3.10015e-05 1.4869e-05 4.14749e-06 )  
( 3.14736e-05 1.61288e-05 3.81467e-06 )  
( 3.69073e-05 1.83296e-05 1.54273e-06 )  
( 3.52059e-05 1.8772e-05 -1.07727e-06 )  
( 3.32859e-05 2.00731e-05 2.20859e-06 )  
( 3.25043e-05 1.95619e-05 -2.96903e-07 )  
( 4.09806e-05 2.30578e-05 7.12549e-07 )  
( 3.80444e-05 1.74912e-05 -2.49632e-07 )  
( 3.90486e-05 2.43076e-05 3.65148e-06 )  
( 3.5579e-05 1.98771e-05 4.64082e-06 )  
( 3.92552e-05 1.85453e-05 1.0483e-06 )  
( 3.9664e-05 2.05479e-05 3.46899e-07 )  
( 3.38934e-05 1.84117e-05 -2.76245e-07 )  
( 3.80367e-05 2.07761e-05 3.71087e-06 )  
( 3.78963e-05 1.9144e-05 2.06264e-06 )  
( 3.68383e-05 1.90902e-05 1.18264e-06 )  
( 3.47595e-05 1.98491e-05 -7.12609e-07 )  
( 3.57337e-05 1.99538e-05 1.315e-06 )  
( 3.89188e-05 1.80286e-05 -2.35996e-06 )  
( 3.73576e-05 1.95137e-05 1.91662e-06 )  
( 3.82909e-05 2.27839e-05 2.3746e-06 )  
( 3.5374e-05 2.12111e-05 -1.38892e-06 )  
( 3.43688e-05 1.90627e-05 1.42353e-06 )  
( 3.53353e-05 2.0593e-05 1.84839e-06 )  
( 4.15617e-05 2.09014e-05 -5.05451e-07 )  
( 3.80221e-05 2.09112e-05 2.05675e-06 )  
( 4.04239e-05 2.03158e-05 1.23749e-06 )  
( 3.99005e-05 1.99202e-05 1.36431e-06 )  
( 4.03325e-05 1.97385e-05 -1.22885e-06 )  
( 3.97414e-05 2.26299e-05 -5.55173e-07 )  
( 4.13704e-05 2.03003e-05 2.38598e-06 )  
( 4.1507e-05 2.62942e-05 5.34656e-06 )  
( 4.34189e-05 2.26415e-05 5.30937e-06 )  
( 4.11518e-05 2.18862e-05 1.11831e-06 )  
( 3.95765e-05 2.14541e-05 4.94291e-08 )  
( 3.772e-05 2.40833e-05 2.81423e-06 )  
( 4.10252e-05 2.15005e-05 2.20482e-06 )  
( 4.96362e-05 2.34474e-05 -1.65501e-06 )  
( 4.55034e-05 2.79477e-05 7.28303e-06 )  
( 4.17704e-05 2.38629e-05 1.81684e-06 )  
( 4.32381e-05 2.3886e-05 8.25388e-07 )  
( 4.26123e-05 2.35123e-05 -3.59048e-08 )  
( 3.8467e-05 2.26049e-05 1.95884e-06 )  
( 4.11957e-05 2.10916e-05 1.93881e-06 )  
( 3.88002e-05 2.07818e-05 -1.54574e-06 )  
( 4.19602e-05 2.16432e-05 1.91936e-06 )  
( 4.20664e-05 2.37164e-05 1.70505e-06 )  
( 4.31429e-05 2.36761e-05 2.98644e-06 )  
( 3.96919e-05 1.98653e-05 1.00184e-06 )  
( 4.51256e-05 2.32318e-05 2.04937e-08 )  
( 4.11499e-05 2.40096e-05 4.73602e-06 )  
( 4.57938e-05 2.54983e-05 5.52578e-06 )  
( 4.45145e-05 2.56097e-05 5.63227e-06 )  
( 4.50399e-05 2.63466e-05 2.62011e-06 )  
( 4.56793e-05 2.51602e-05 -1.69791e-06 )  
( 4.56547e-05 2.66586e-05 1.42334e-06 )  
( 4.64384e-05 2.35162e-05 6.51999e-06 )  
( 4.59784e-05 2.52974e-05 -2.25202e-07 )  
( 3.9134e-05 2.15033e-05 -4.54141e-07 )  
( 4.26182e-05 2.33079e-05 1.51596e-06 )  
( 4.41359e-05 2.49169e-05 8.14006e-07 )  
( 4.80236e-05 2.59574e-05 3.01957e-06 )  
( 5.06666e-05 2.43885e-05 2.61569e-06 )  
( 4.04425e-05 2.34798e-05 2.34947e-06 )  
( 4.35508e-05 2.32251e-05 3.72418e-07 )  
( 4.99781e-05 2.80621e-05 4.46405e-06 )  
( 4.55805e-05 2.61266e-05 -4.80947e-07 )  
( 4.67897e-05 2.86261e-05 2.19128e-06 )  
( 4.84209e-05 2.72155e-05 1.8292e-06 )  
( 5.04761e-05 2.68344e-05 1.82933e-07 )  
( 4.84098e-05 2.42409e-05 2.40885e-06 )  
( 4.64394e-05 2.54621e-05 -1.36387e-07 )  
( 4.74559e-05 2.61086e-05 1.2317e-06 )  
( 4.00705e-05 2.76347e-05 6.65727e-06 )  
( 4.8703e-05 2.71743e-05 -5.83788e-07 )  
( 4.26525e-05 2.68081e-05 4.85622e-06 )  
( 4.92742e-05 2.4076e-05 -3.35551e-10 )  
( 4.74705e-05 2.61666e-05 6.41016e-06 )  
( 4.82462e-05 2.46216e-05 3.00727e-06 )  
( 4.85048e-05 2.59682e-05 7.28615e-07 )  
( 4.46771e-05 2.5794e-05 3.42218e-06 )  
( 4.68842e-05 2.68192e-05 2.44397e-07 )  
( 4.7511e-05 2.95863e-05 6.41203e-06 )  
( 4.76457e-05 2.88729e-05 7.14856e-06 )  
( 4.90339e-05 2.70837e-05 4.53648e-07 )  
( 4.70025e-05 2.47588e-05 4.23051e-06 )  
( 5.05003e-05 2.70965e-05 2.70416e-06 )  
( 4.68415e-05 2.61349e-05 -1.39836e-06 )  
( 4.99061e-05 2.7254e-05 9.94575e-07 )  
( 4.92881e-05 2.51911e-05 5.40015e-06 )  
( 4.70834e-05 2.94659e-05 7.33553e-06 )  
( 4.71711e-05 2.89853e-05 4.19513e-06 )  
( 4.73875e-05 2.51585e-05 4.87621e-06 )  
( 5.03776e-05 2.78222e-05 3.96727e-06 )  
( 4.89143e-05 2.89708e-05 5.20203e-06 )  
( 4.884e-05 2.88519e-05 8.15897e-07 )  
( 5.29711e-05 2.97659e-05 9.91101e-07 )  
( 4.95919e-05 2.99255e-05 6.46847e-06 )  
( 4.88475e-05 2.67625e-05 2.86863e-06 )  
( 4.86288e-05 2.72356e-05 2.16981e-07 )  
( 5.02752e-05 3.14231e-05 6.9546e-06 )  
( 4.87808e-05 3.0743e-05 4.52892e-06 )  
( 5.169e-05 2.93644e-05 3.4417e-06 )  
( 4.94367e-05 2.90675e-05 1.79754e-06 )  
( 5.15121e-05 2.88741e-05 1.7606e-06 )  
( 4.91604e-05 2.80303e-05 1.69246e-06 )  
( 5.11833e-05 2.90856e-05 3.22508e-06 )  
( 5.10842e-05 2.89263e-05 6.59408e-06 )  
( 5.2706e-05 2.64491e-05 6.99922e-06 )  
( 4.80463e-05 2.90658e-05 -3.15356e-06 )  
( 4.87886e-05 2.77253e-05 2.08364e-06 )  
( 5.40505e-05 2.89747e-05 5.91897e-06 )  
( 5.38441e-05 2.85687e-05 5.70824e-06 )  
( 4.9213e-05 2.58736e-05 -4.73532e-07 )  
( 5.17013e-05 3.06146e-05 8.69264e-07 )  
( 5.15974e-05 2.9418e-05 3.51207e-06 )  
( 5.41805e-05 2.96033e-05 1.7517e-06 )  
( 6.03607e-05 3.0709e-05 -3.10341e-06 )  
( 4.71614e-05 2.90427e-05 -1.17698e-06 )  
( 5.18099e-05 2.96731e-05 6.75241e-06 )  
( 5.52243e-05 2.80945e-05 4.50584e-06 )  
( 4.8384e-05 2.84539e-05 -1.10373e-07 )  
( 5.36979e-05 2.85621e-05 3.65312e-06 )  
( 5.6215e-05 3.12329e-05 2.86029e-06 )  
( 5.14558e-05 2.94468e-05 1.59487e-06 )  
( 5.42744e-05 3.11994e-05 7.34643e-06 )  
( 6.02496e-05 3.71224e-05 3.57541e-06 )  
( 5.09125e-05 2.994e-05 2.33389e-06 )  
( 5.54604e-05 2.89495e-05 4.61254e-06 )  
( 5.19829e-05 2.9661e-05 1.16237e-06 )  
( 5.54032e-05 3.05498e-05 4.0773e-06 )  
( 5.55789e-05 3.09306e-05 1.04867e-06 )  
( 4.81857e-05 2.97703e-05 9.07681e-06 )  
( 5.47305e-05 2.76734e-05 3.7829e-06 )  
( 5.90422e-05 3.22592e-05 8.79655e-06 )  
( 4.79725e-05 3.07114e-05 -3.4529e-06 )  
( 6.08208e-05 3.03353e-05 9.19733e-06 )  
( 5.20171e-05 2.94042e-05 7.33808e-07 )  
( 5.81887e-05 3.07635e-05 5.72574e-06 )  
( 5.83288e-05 3.1914e-05 -7.78078e-07 )  
( 5.02226e-05 3.68535e-05 -5.97826e-07 )  
( 5.70374e-05 2.85449e-05 5.94518e-06 )  
( 5.35614e-05 2.79881e-05 2.02529e-06 )  
( 5.4508e-05 3.39507e-05 8.22519e-07 )  
( 5.74706e-05 2.87736e-05 5.36518e-06 )  
( 5.93851e-05 3.5531e-05 2.52722e-06 )  
( 5.77983e-05 3.40481e-05 1.05406e-05 )  
( 5.14323e-05 3.15338e-05 2.92903e-06 )  
( 5.95845e-05 3.49357e-05 5.93651e-06 )  
( 4.90205e-05 3.25534e-05 -3.90946e-06 )  
( 5.71536e-05 2.81728e-05 3.79455e-06 )  
( 5.9856e-05 3.23462e-05 6.93755e-06 )  
( 5.54137e-05 2.9331e-05 1.48618e-06 )  
( 5.5699e-05 2.75115e-05 4.73574e-07 )  
( 4.39974e-05 4.77326e-06 6.88254e-06 )  
( 5.51475e-05 3.40914e-05 -1.81989e-06 )  
( 5.4622e-05 3.17869e-05 3.7583e-06 )  
( 6.44582e-05 3.45399e-05 6.3356e-06 )  
( 7.04921e-05 1.70085e-05 -3.0157e-06 )  
( 5.6718e-05 3.37738e-05 9.31998e-06 )  
( 6.34616e-05 3.1103e-05 1.0832e-05 )  
( 5.58432e-05 3.82978e-05 1.49207e-06 )  
( 5.70408e-05 3.06107e-05 4.30846e-06 )  
( 5.63234e-05 2.96511e-05 4.62121e-06 )  
( 5.51633e-05 2.68084e-05 2.95662e-06 )  
( 5.9067e-05 2.73077e-06 1.23549e-06 )  
( 5.70955e-05 2.49075e-05 4.02744e-06 )  
( 5.77666e-05 3.23391e-06 3.07294e-06 )  
( 1.64098e-05 1.78214e-05 6.45907e-06 )  
( 5.32125e-05 3.02815e-05 -4.38705e-07 )  
( -0.000228264 -0.000250956 -4.93281e-05 )  
( 8.87782e-05 -8.40835e-06 -6.4851e-06 )  
( 5.85037e-05 3.47446e-05 1.87723e-06 )  
( 7.07529e-05 2.18876e-05 -4.74515e-06 )  
( -0.000294539 0.000516381 -0.000253585 )  
( 5.89857e-05 3.40939e-05 2.4672e-07 )  
( 0.000370139 -6.83628e-05 -0.000169178 )  
( 0.000316361 -0.000374575 -0.000369459 )  
( -0.000239235 5.10694e-05 -0.000859512 )  
( 7.17741e-05 5.06713e-07 -1.42156e-05 )  
)
