/*--------------------------------*- C++ -*----------------------------------*\
| =========                 |                                                 |
| \\      /  F ield         | OpenFOAM: The Open Source CFD Toolbox           |
|  \\    /   O peration     | Version:  5.x                                   |
|   \\  /    A nd           | Web:      www.OpenFOAM.org                      |
|    \\/     M anipulation  |                                                 |
\*---------------------------------------------------------------------------*/
FoamFile
{
    version     2.0;
    format      ascii;
    class       surfaceScalarField;
    location    "2000";
    object      phi;
}
// * * * * * * * * * * * * * * * * * * * * * * * * * * * * * * * * * * * * * //

dimensions      [0 3 -1 0 0 0 0];

internalField   nonuniform List<scalar> 
179
(
-249.992
-249.991
-249.991
-249.99
-249.989
-249.988
-249.987
-249.985
-249.983
-249.981
-249.979
-249.976
-249.973
-249.969
-249.965
-249.96
-249.955
-249.949
-249.943
-249.935
-249.927
-249.918
-249.908
-249.896
-249.883
-249.869
-249.853
-249.835
-249.815
-249.793
-249.768
-249.741
-249.709
-249.675
-249.636
-249.592
-249.544
-249.489
-249.428
-249.36
-249.283
-249.198
-249.102
-248.995
-248.874
-248.74
-248.589
-248.419
-248.229
-248.016
-247.776
-247.506
-247.203
-246.861
-246.477
-246.044
-245.555
-245.004
-244.381
-243.678
-242.882
-241.982
-240.961
-239.805
-238.493
-237.004
-235.312
-233.389
-231.2
-228.707
-225.864
-222.62
-218.915
-214.678
-209.828
-204.272
-197.913
-190.715
-182.972
-175.949
-174.39
-174.591
-170.257
-170.413
-170.839
-171.572
-176.252
-172.648
-163.274
-159.914
-157.267
-166.447
-169.347
-171.098
-171.796
-174.842
-175.981
-177.656
-173.052
-172.735
-179.626
-182.848
-189.802
-197.081
-203.089
-209.345
-214.984
-219.907
-224.155
-227.812
-230.959
-233.667
-235.996
-237.998
-239.721
-241.202
-242.475
-243.571
-244.515
-245.326
-246.019
-246.611
-247.116
-247.548
-247.916
-248.231
-248.499
-248.729
-248.928
-249.097
-249.24
-249.363
-249.466
-249.555
-249.629
-249.692
-249.744
-249.788
-249.825
-249.856
-249.881
-249.903
-249.921
-249.936
-249.948
-249.959
-249.967
-249.974
-249.98
-249.984
-249.988
-249.991
-249.993
-249.995
-249.997
-249.998
-249.999
-250
-250
-250.001
-250.001
-250.001
-250.001
-250.001
-250.001
-250.001
-250.001
-250.001
-250.001
-250.001
-250.001
-250.001
-250.001
-250.001
-250
-250
-250
-250
-250
)
;

boundaryField
{
    inlet
    {
        type            calculated;
        value           uniform -250;
    }
    outlet
    {
        type            calculated;
        value           uniform 249.992;
    }
    repeat_boundary
    {
        type            calculated;
        value           uniform 0;
    }
    procBoundary2to0
    {
        type            processor;
        value           nonuniform List<scalar> 
180
(
-0.000161118
-0.00030263
-0.000487504
-0.000686513
-0.000895029
-0.00111411
-0.00134612
-0.00159372
-0.00185978
-0.00214743
-0.00246006
-0.00280138
-0.00317535
-0.00358632
-0.00403905
-0.00453886
-0.00509163
-0.00570385
-0.00638274
-0.00713631
-0.00797342
-0.00890396
-0.00993893
-0.0110905
-0.0123724
-0.0137998
-0.0153896
-0.0171608
-0.0191346
-0.0213347
-0.0237877
-0.0265232
-0.0295745
-0.0329788
-0.0367776
-0.0410176
-0.0457512
-0.0510369
-0.0569406
-0.0635361
-0.0709061
-0.0791422
-0.0883473
-0.0986371
-0.110141
-0.123005
-0.137391
-0.153484
-0.17149
-0.19164
-0.214197
-0.239454
-0.267742
-0.299435
-0.334953
-0.374771
-0.419426
-0.469521
-0.525742
-0.58886
-0.659753
-0.739459
-0.829157
-0.930169
-1.04401
-1.17242
-1.31737
-1.48116
-1.66643
-1.87622
-2.11405
-2.38404
-2.69096
-3.04036
-3.43856
-3.8921
-4.40268
-4.93275
-5.28772
-4.90034
-1.08755
-0.000988667
-4.28534
-0.272516
2.91396
0.300196
5.34672
2.6334
-1.88748
-2.43275
-0.0330036
6.07394
1.69784
4.23804
1.27461
3.37338
1.18076
1.79896
0.141207
0.303497
2.04366
2.25096
5.47234
3.65922
2.29755
2.42697
2.23114
1.9515
1.66551
1.41412
1.19908
1.0158
0.859809
0.727236
0.614749
0.519501
0.439083
0.371491
0.315111
0.265107
0.219365
0.18098
0.148839
0.122004
0.0996964
0.0812837
0.0662926
0.0544728
0.0460714
0.0369642
0.0291948
0.0227834
0.0175182
0.0132191
0.00948959
0.00590913
0.00326513
0.00128172
-0.000207759
-0.00131674
-0.00212793
-0.00275958
-0.00321608
-0.00350579
-0.00366371
-0.00371956
-0.00369899
-0.00362032
-0.00349911
-0.00334814
-0.00317764
-0.00299307
-0.0028061
-0.0026181
-0.00243515
-0.00225641
-0.00208407
-0.0019199
-0.00176438
-0.0016181
-0.00148134
-0.0013542
-0.00123659
-0.0011283
-0.00102903
-0.000938451
-0.000856174
-0.000781806
-0.000714968
-0.000655301
-0.000602443
-0.000556058
-0.000515814
-0.00048139
-0.000452508
-0.000428903
-0.000410266
-0.000396473
-0.000386349
-0.000383372
)
;
    }
    procBoundary2to3
    {
        type            processor;
        value           nonuniform List<scalar> 
180
(
-8.95848e-06
2.12311e-06
7.05037e-06
1.01551e-05
1.24735e-05
1.3979e-05
1.43122e-05
1.2932e-05
9.10647e-06
1.87689e-06
-9.61201e-06
-1.45721e-05
-2.10284e-05
-2.91853e-05
-3.92847e-05
-5.16115e-05
-6.65047e-05
-8.43701e-05
-0.000105695
-0.000131066
-0.000161189
-0.000196916
-0.000239268
-0.000289472
-0.000348996
-0.000419591
-0.000503345
-0.000602733
-0.000720684
-0.000860647
-0.00102668
-0.00122353
-0.00145676
-0.00173282
-0.00205926
-0.0024448
-0.00289965
-0.00343649
-0.0040702
-0.00477753
-0.00552688
-0.00640112
-0.00742357
-0.00862209
-0.01003
-0.0116869
-0.0136401
-0.0159458
-0.018671
-0.0218952
-0.025713
-0.030237
-0.0356008
-0.0419637
-0.049515
-0.0584802
-0.069128
-0.0817779
-0.0968109
-0.114681
-0.135928
-0.161185
-0.191023
-0.226211
-0.267706
-0.316634
-0.374324
-0.442338
-0.522516
-0.617024
-0.728418
-0.859706
-1.01443
-1.19674
-1.41148
-1.66391
-1.95624
-2.26491
-2.45548
-2.12255
-0.4712
0.202155
-0.0489694
0.428405
-2.48743
0.432265
-0.666287
-6.23711
-7.48674
-0.927609
-2.61412
3.10641
1.20206
-2.48697
-0.576914
-0.327217
-0.041441
-0.123812
-4.74551
-0.620691
4.84804
0.970871
1.4818
3.61998
3.71033
3.82891
3.40777
2.97181
2.58266
2.24316
1.94821
1.69195
1.46929
1.2758
1.10769
0.961643
0.834774
0.724586
0.628909
0.545867
0.473809
0.411275
0.356998
0.309883
0.268979
0.233462
0.202622
0.175841
0.152594
0.132435
0.114958
0.099807
0.0866733
0.0752902
0.0654264
0.0568793
0.0494678
0.0430379
0.0374573
0.0326122
0.0284045
0.0247492
0.0215728
0.0188115
0.0164102
0.0143212
0.0125031
0.0109201
0.00954152
0.00834041
0.00729356
0.00638085
0.0055848
0.0048903
0.00428421
0.00375513
0.00329317
0.00288972
0.0025373
0.00222943
0.00196043
0.0017254
0.00152006
0.00134069
0.00118406
0.00104738
0.000928204
0.000824445
0.000734275
0.000656117
0.000588607
0.000530567
0.000480994
0.000439041
0.000404011
0.00037534
0.000352603
0.000335386
0.000323956
0.000325614
)
;
    }
}


// ************************************************************************* //
