FoamFile
{version 2.0; format ascii;class vectorField; location 0;object  v;}
350
(
( -4.43241e-06 -1.20842e-06 -2.3375e-05 )  
( 9.62162e-07 5.78704e-06 -3.53669e-05 )  
( -9.98689e-06 1.53545e-06 -2.8492e-05 )  
( 7.28609e-06 9.4293e-06 -3.76583e-05 )  
( -3.32318e-06 -1.56651e-06 -2.01725e-05 )  
( 1.37823e-05 1.20202e-05 -2.54341e-05 )  
( -4.98611e-06 9.09012e-06 -3.7698e-05 )  
( 1.17775e-05 3.09596e-06 -2.4521e-05 )  
( 7.62106e-10 8.85619e-06 -2.34335e-05 )  
( 8.59159e-08 1.94719e-06 -4.30459e-05 )  
( -1.33151e-05 -8.35401e-07 -3.04769e-05 )  
( 7.09545e-05 8.61246e-05 -1.87148e-05 )  
( 6.28678e-06 -7.80794e-07 -3.14737e-05 )  
( 1.01739e-05 -2.1541e-05 -1.05167e-05 )  
( -1.08784e-05 -5.55901e-06 -2.71659e-05 )  
( -1.13049e-05 1.77716e-05 -7.75057e-05 )  
( -6.1668e-06 -3.19922e-06 -2.6531e-05 )  
( -1.99981e-05 -6.99245e-06 -1.52757e-05 )  
( 4.8059e-06 -2.36819e-06 -3.61761e-05 )  
( -1.10568e-05 1.43865e-06 -2.62699e-05 )  
( -1.99338e-05 8.94598e-06 -1.49764e-05 )  
( 7.9671e-06 4.09262e-06 -2.76524e-05 )  
( 1.01462e-05 5.37203e-06 -5.01114e-05 )  
( -2.58572e-06 3.12827e-06 -2.64418e-05 )  
( -1.39668e-05 -1.91133e-06 -5.7151e-05 )  
( -2.55653e-06 1.50093e-05 -3.54622e-05 )  
( -4.96936e-06 6.51768e-06 -2.6038e-05 )  
( -7.24655e-06 7.12631e-06 -5.03517e-05 )  
( 1.62867e-05 4.40987e-06 -6.26839e-05 )  
( -8.1323e-06 -2.27003e-07 -3.10098e-05 )  
( -1.9386e-05 -3.07971e-06 -5.71144e-05 )  
( 4.83808e-06 1.17049e-05 -0.000102208 )  
( -7.59194e-06 1.1698e-05 -5.82319e-05 )  
( 5.92659e-06 7.69388e-06 -7.32311e-05 )  
( -7.51148e-06 9.33358e-06 -4.17397e-05 )  
( -1.35794e-05 9.03766e-07 -5.65679e-05 )  
( -1.24138e-05 9.99153e-07 -4.23887e-05 )  
( 7.56374e-06 1.19106e-05 -6.17999e-05 )  
( -1.08134e-05 9.42972e-06 -6.28839e-05 )  
( -1.58657e-05 1.13697e-05 -9.10849e-05 )  
( 9.29824e-06 1.68788e-05 -6.05011e-05 )  
( -5.58176e-06 6.29606e-06 -5.52986e-05 )  
( 7.47725e-06 3.4432e-06 -5.40248e-05 )  
( -1.02115e-05 6.36592e-06 -5.03176e-05 )  
( 2.06104e-06 1.30863e-05 -6.2822e-05 )  
( -7.39982e-06 1.81446e-05 -6.59789e-05 )  
( 1.80056e-05 1.25655e-05 -0.000102077 )  
( -1.50087e-05 -7.86427e-06 -9.01072e-05 )  
( -2.75518e-06 7.85211e-06 -7.58791e-05 )  
( -1.31557e-05 -2.59154e-06 -6.0469e-05 )  
( -8.76949e-06 -2.41406e-06 -7.03952e-05 )  
( -3.96232e-06 1.78741e-05 -8.83241e-05 )  
( 2.88631e-06 6.58965e-06 -0.000105153 )  
( -1.08239e-05 -2.36497e-06 -0.000106879 )  
( -1.64287e-06 2.57826e-05 -0.000121529 )  
( -1.07205e-05 6.28021e-06 -4.98875e-05 )  
( -2.26877e-06 5.85727e-06 -8.49356e-05 )  
( -1.01439e-05 -2.05962e-06 -0.000109075 )  
( -4.58577e-06 7.6895e-06 -0.000130447 )  
( -1.65499e-05 4.24637e-06 -0.000137043 )  
( 2.09415e-06 3.66343e-05 -0.000114263 )  
( 1.86016e-05 1.87264e-05 -6.90296e-05 )  
( -1.05963e-05 -3.24125e-08 -0.000143742 )  
( -2.09391e-06 6.61335e-06 -8.74569e-05 )  
( -7.28721e-06 7.55481e-06 -7.99413e-05 )  
( 4.60468e-06 1.29895e-05 -0.0001042 )  
( -7.83646e-07 5.7408e-06 -6.5853e-05 )  
( -3.80639e-06 1.61993e-06 -0.000116539 )  
( -2.14274e-06 1.23304e-05 -0.000110562 )  
( 3.98134e-06 5.36257e-07 -0.000111212 )  
( -2.2696e-05 -4.64728e-08 -0.000109215 )  
( -1.14061e-05 2.79459e-06 -0.00010554 )  
( -3.92778e-06 -3.20685e-06 -9.87515e-05 )  
( 6.49837e-06 2.60966e-05 -0.00014705 )  
( -5.34425e-06 1.91057e-05 -0.00012001 )  
( -1.21971e-05 2.21345e-06 -0.000134 )  
( -3.89123e-06 1.95903e-05 -9.31153e-05 )  
( -7.84057e-06 2.67409e-06 -0.000141339 )  
( -1.79023e-05 9.35284e-06 -0.000154754 )  
( -3.4159e-05 -1.7134e-05 -9.452e-05 )  
( -1.86804e-05 -3.01641e-06 -0.000145758 )  
( 1.34239e-05 -4.48833e-06 -5.89881e-05 )  
( -1.36049e-05 1.14561e-05 -0.000132778 )  
( -9.14141e-06 1.50695e-05 -0.000148038 )  
( -4.07767e-06 2.20664e-05 -0.000149972 )  
( -1.26968e-05 5.97689e-06 -0.000141078 )  
( -1.16133e-06 1.9902e-06 -0.000148889 )  
( -1.03352e-05 1.31048e-05 -0.000184657 )  
( -3.90178e-06 4.14069e-05 -0.000163659 )  
( -1.73759e-05 1.57337e-05 -0.000164989 )  
( 7.38808e-07 2.75716e-05 -9.00564e-05 )  
( -8.94743e-06 1.26308e-05 -0.000170048 )  
( -2.50561e-05 2.03786e-05 -0.000125053 )  
( -1.70945e-05 9.51908e-06 -0.000145619 )  
( -2.18291e-07 1.52757e-05 -0.000178334 )  
( -1.9567e-05 1.06866e-06 -0.000168526 )  
( -8.54164e-06 3.18248e-06 -0.000152822 )  
( -1.19822e-05 3.35338e-06 -0.000180156 )  
( -9.80476e-06 1.23823e-06 -0.000164366 )  
( -1.38663e-05 1.71581e-05 -0.000167762 )  
( -4.50663e-06 1.91043e-05 -0.0002057 )  
( 6.23267e-06 2.79195e-05 -8.87504e-05 )  
( -1.29665e-05 5.49643e-06 -0.000190189 )  
( -1.48986e-05 8.30312e-06 -0.000170192 )  
( 2.77704e-06 6.82231e-06 -0.000136129 )  
( -1.50638e-05 1.95957e-05 -0.000178744 )  
( -2.06901e-05 6.88046e-06 -0.000165973 )  
( 6.0887e-06 9.21967e-06 -0.000122557 )  
( -1.82219e-05 1.49281e-05 -0.000163623 )  
( -4.95242e-06 3.78199e-06 -0.000139468 )  
( -1.76615e-05 1.03018e-05 -0.000179735 )  
( -8.67666e-06 7.9243e-06 -0.000179857 )  
( -1.21068e-05 8.62946e-06 -0.00018927 )  
( -1.25164e-05 3.83926e-05 -0.000146009 )  
( 4.53966e-06 1.06492e-05 -0.000160189 )  
( -9.42815e-06 2.17137e-05 -0.000175872 )  
( -2.17996e-05 1.17888e-05 -0.000171676 )  
( -6.27509e-06 1.37056e-05 -0.000192687 )  
( -1.84216e-05 1.93455e-05 -0.000219784 )  
( -1.23763e-05 7.76256e-06 -0.000204264 )  
( -1.23133e-05 7.67511e-06 -0.000124731 )  
( -1.54751e-05 3.45665e-06 -0.000198575 )  
( -8.4931e-06 5.25875e-06 -0.000218615 )  
( -1.09859e-05 1.40758e-05 -0.000187193 )  
( -8.08953e-06 1.26094e-05 -0.000211861 )  
( -7.19791e-06 1.54333e-05 -0.00020536 )  
( -1.97059e-05 1.50831e-06 -0.000194558 )  
( -1.99555e-05 7.01962e-06 -0.000205217 )  
( -1.83474e-05 1.5734e-05 -0.000191144 )  
( -9.86195e-06 7.35799e-06 -0.000178964 )  
( -1.42778e-05 7.34699e-06 -0.000221398 )  
( -1.35331e-05 1.0662e-05 -0.000212549 )  
( -1.49467e-05 1.24217e-05 -0.000210879 )  
( -2.06678e-05 2.15291e-05 -0.000185868 )  
( -1.83709e-05 1.18466e-05 -0.000199834 )  
( -4.60417e-06 6.27431e-06 -0.000207699 )  
( -1.05589e-05 -5.01234e-06 -0.000206394 )  
( -1.80411e-05 8.6458e-06 -0.000202458 )  
( -8.58017e-06 7.2102e-06 -0.000220455 )  
( -2.13084e-05 6.7733e-06 -0.000203764 )  
( -2.22937e-05 9.35658e-06 -0.000194534 )  
( -1.58254e-05 1.1669e-05 -0.000198449 )  
( -1.30149e-05 1.14493e-06 -0.000231775 )  
( -1.41036e-05 7.50869e-06 -0.000219348 )  
( -1.98149e-05 7.79477e-06 -0.00022772 )  
( -3.0317e-06 8.87398e-06 -0.000234902 )  
( -8.35125e-06 -4.59651e-07 -0.000226282 )  
( -1.73655e-05 1.56759e-05 -0.000182905 )  
( -1.25246e-05 -5.4881e-07 -0.000228293 )  
( -7.49742e-06 1.29839e-05 -0.00018839 )  
( -1.72231e-05 1.11937e-05 -0.000217828 )  
( -1.40528e-05 6.16192e-06 -0.000220421 )  
( -1.03655e-05 1.25073e-05 -0.000221965 )  
( -1.37665e-05 3.51263e-06 -0.000214439 )  
( -6.30541e-06 -5.19927e-06 -0.000243369 )  
( -8.60497e-06 5.8874e-07 -0.000247547 )  
( -8.20036e-06 5.88567e-06 -0.000234449 )  
( -5.03611e-06 5.95494e-06 -0.000218654 )  
( -1.11049e-05 1.1035e-05 -0.000235516 )  
( -6.82664e-06 1.93237e-05 -0.000206915 )  
( -1.42904e-05 1.04725e-05 -0.000209736 )  
( -1.29785e-05 2.22527e-05 -0.000210265 )  
( -9.25692e-06 7.12791e-06 -0.00024143 )  
( -1.08586e-05 1.25072e-05 -0.000238244 )  
( -1.45739e-05 1.17514e-05 -0.000211619 )  
( -2.79249e-06 1.9549e-05 -0.000234361 )  
( -1.2715e-05 5.46955e-06 -0.000219086 )  
( -9.37085e-06 9.75506e-06 -0.000235187 )  
( -8.62121e-06 1.21848e-06 -0.000248157 )  
( -5.30082e-06 -2.11004e-06 -0.000231648 )  
( 1.64513e-05 -1.03517e-05 -0.000232935 )  
( -1.10942e-05 5.88721e-06 -0.000233841 )  
( -5.74039e-06 -8.08512e-07 -0.000249254 )  
( -8.9543e-06 6.91271e-06 -0.000251806 )  
( -9.51134e-06 5.41202e-06 -0.000230603 )  
( -1.15326e-05 2.77671e-06 -0.000239303 )  
( -4.01961e-06 4.2198e-06 -0.000238335 )  
( -6.15795e-06 1.17702e-05 -0.000237615 )  
( -2.53364e-05 1.35709e-05 -0.000228764 )  
( -1.16348e-05 8.55966e-06 -0.000246674 )  
( 3.45646e-06 7.20784e-06 -0.000232573 )  
( 2.12009e-06 -1.46342e-05 -0.000261259 )  
( -1.5293e-07 1.40321e-05 -0.000235529 )  
( -8.12856e-06 1.77269e-05 -0.00024449 )  
( -6.83931e-06 -1.80264e-06 -0.000251838 )  
( -7.49695e-06 7.24907e-06 -0.000264978 )  
( -6.47999e-07 -7.14285e-06 -0.000251592 )  
( -1.82029e-05 1.66815e-06 -0.000272468 )  
( -4.44928e-08 3.41069e-06 -0.000256025 )  
( -8.48675e-07 9.46178e-07 -0.000252147 )  
( -2.12432e-06 -1.06315e-06 -0.000265947 )  
( -9.79962e-06 8.67539e-06 -0.000240268 )  
( -1.46232e-05 -7.88982e-06 -0.000241095 )  
( -5.57769e-06 5.64621e-06 -0.00025762 )  
( -2.88294e-06 5.20371e-06 -0.000261372 )  
( -8.90264e-06 5.84762e-06 -0.000236405 )  
( 5.80711e-06 1.18146e-06 -0.000251862 )  
( -1.62532e-05 5.05201e-06 -0.000252427 )  
( -7.10165e-06 5.37851e-06 -0.00025901 )  
( -1.15034e-06 -3.44699e-06 -0.000260803 )  
( 3.04519e-06 -6.58318e-07 -0.000262664 )  
( -2.82943e-06 1.82437e-06 -0.000258175 )  
( -3.73196e-05 -1.82238e-05 -0.000255954 )  
( -4.65825e-07 4.15295e-06 -0.000259986 )  
( -2.51236e-07 3.34555e-06 -0.000260344 )  
( 6.55212e-07 2.6163e-06 -0.000265074 )  
( 3.76843e-06 -2.10805e-05 -0.00029057 )  
( -7.44389e-06 -1.82879e-06 -0.000268041 )  
( -3.40547e-06 -2.76333e-06 -0.000266871 )  
( -1.34231e-05 8.41644e-07 -0.000243873 )  
( -3.34721e-06 -1.90037e-05 -0.000282215 )  
( 1.83518e-05 5.48868e-06 -0.000249425 )  
( 1.896e-06 -3.04924e-06 -0.000266773 )  
( -4.24745e-06 3.81808e-06 -0.000264013 )  
( -1.21932e-05 2.05738e-07 -0.00027988 )  
( -2.30662e-05 -3.54855e-06 -0.000253965 )  
( -2.17957e-05 -1.66839e-05 -0.000267278 )  
( -8.45949e-06 -1.46147e-05 -0.000274255 )  
( -4.79218e-06 -1.33141e-05 -0.000291862 )  
( 2.07942e-07 -1.40815e-05 -0.00026663 )  
( -1.90516e-05 -1.99035e-06 -0.000280274 )  
( -1.15914e-06 9.33919e-06 -0.0002683 )  
( -2.99264e-05 -2.69394e-05 -0.000279401 )  
( -5.4949e-06 -4.72398e-06 -0.000278627 )  
( -1.53737e-05 -1.58727e-05 -0.000251657 )  
( -2.65619e-05 1.00412e-06 -0.000268294 )  
( -1.09741e-05 2.13882e-06 -0.000278164 )  
( -3.12098e-06 -1.8346e-05 -0.00028141 )  
( -2.30324e-05 -1.45703e-05 -0.000262736 )  
( -3.34407e-06 -2.29498e-05 -0.00028225 )  
( -2.24108e-07 -7.70408e-06 -0.000275234 )  
( -3.18676e-05 -9.46727e-06 -0.000274465 )  
( -1.43128e-05 -1.11184e-05 -0.000278114 )  
( -1.7055e-05 -8.70701e-07 -0.000258259 )  
( -1.34794e-05 -1.14494e-05 -0.000280269 )  
( -1.35822e-05 -2.9252e-06 -0.00026428 )  
( -2.32784e-05 -1.78536e-05 -0.000256996 )  
( -5.93888e-06 -4.04631e-06 -0.000269975 )  
( -2.95695e-05 1.60249e-06 -0.000283564 )  
( -5.05963e-06 4.16795e-06 -0.000271608 )  
( -2.60977e-05 -2.95648e-05 -0.000298168 )  
( 1.60717e-06 5.57018e-06 -0.000285925 )  
( -2.29716e-05 -2.51753e-05 -0.000268324 )  
( -2.53267e-05 -2.69134e-05 -0.000269602 )  
( -6.968e-06 -5.43312e-06 -0.000298147 )  
( -4.35712e-05 2.53602e-05 -0.000276516 )  
( -2.07944e-05 -2.05691e-05 -0.000264103 )  
( -1.07843e-05 -3.07183e-06 -0.00027572 )  
( -4.26475e-05 -2.50018e-05 -0.000295671 )  
( 7.12985e-06 1.45922e-05 -0.000296617 )  
( 1.83293e-05 5.26087e-05 -0.000298622 )  
( -2.57033e-05 -4.26923e-05 -0.000286169 )  
( -2.29003e-05 -1.54109e-05 -0.000255337 )  
( -2.64931e-05 -1.84938e-05 -0.000278916 )  
( -1.45439e-05 8.91748e-06 -0.000292184 )  
( -6.23557e-05 -3.65422e-05 -0.000333768 )  
( -4.3286e-06 8.09619e-05 -0.000266096 )  
( -9.76131e-06 2.75815e-06 -0.000287713 )  
( -1.58324e-05 -3.38179e-06 -0.000298478 )  
( -3.58215e-05 -2.87552e-05 -0.000250493 )  
( -2.32459e-05 -7.38492e-06 -0.000288184 )  
( -2.81242e-05 -1.40631e-05 -0.000286659 )  
( -2.39461e-05 3.31218e-07 -0.000288868 )  
( 2.5184e-06 0.000141866 -0.000264956 )  
( -1.29194e-05 -1.63801e-05 -0.000277672 )  
( -5.51093e-06 4.73862e-05 -0.000285508 )  
( -5.12058e-05 -3.68697e-05 -0.000254611 )  
( -7.1043e-05 -4.81322e-05 -0.000298559 )  
( -5.12955e-05 -9.06662e-06 -0.00028961 )  
( -8.95601e-06 6.36477e-06 -0.000301929 )  
( -3.77749e-05 -3.05835e-05 -0.000274127 )  
( -4.23897e-05 -2.48898e-05 -0.000304076 )  
( -4.72372e-05 -2.42926e-05 -0.000269031 )  
( -3.09216e-05 -1.90791e-05 -0.00028383 )  
( -4.63667e-05 -5.19998e-05 -0.000317498 )  
( -4.39945e-05 -2.90661e-05 -0.000285442 )  
( -1.67987e-05 -2.60366e-05 -0.000275419 )  
( -1.94939e-06 -1.88533e-07 -0.000302237 )  
( -4.55042e-05 -1.92543e-05 -0.000321829 )  
( -4.03814e-07 4.07735e-05 -0.000314633 )  
( -1.36377e-05 2.32519e-05 -0.000327735 )  
( -5.14925e-06 1.83569e-05 -0.000322124 )  
( 1.24038e-05 3.39879e-05 -0.000289672 )  
( -4.18892e-05 -3.33266e-05 -0.000273855 )  
( -3.04529e-05 2.29433e-05 -0.000301988 )  
( -8.15388e-05 -2.37006e-05 -0.000323211 )  
( -2.68255e-05 3.06315e-05 -0.000314031 )  
( -4.50676e-05 -2.47842e-05 -0.000340706 )  
( -1.43464e-05 -7.23384e-06 -0.000280557 )  
( -2.62277e-05 1.81727e-05 -0.000312167 )  
( -9.27881e-06 2.1753e-05 -0.000304626 )  
( -5.04968e-06 1.07885e-05 -0.000298995 )  
( -3.54926e-05 -3.95693e-05 -0.000248177 )  
( -8.13632e-07 1.63269e-05 -0.000307985 )  
( -3.05189e-06 3.61484e-05 -0.000315776 )  
( -4.91351e-05 -3.03837e-06 -0.000322689 )  
( -1.45261e-05 4.22303e-05 -0.000335242 )  
( -3.07029e-05 3.32209e-05 -0.000347512 )  
( 1.59146e-05 1.49547e-05 -0.000310671 )  
( -4.97156e-07 8.17661e-05 -0.000312959 )  
( -2.93385e-06 5.13565e-05 -0.000340771 )  
( -1.29305e-05 7.04065e-08 -0.000247089 )  
( -1.53682e-05 3.21778e-05 -0.000309197 )  
( -7.03104e-05 -1.65438e-05 -0.00024362 )  
( -3.59702e-05 -2.00319e-06 -0.00028554 )  
( -4.13586e-05 -2.89779e-05 -0.000273429 )  
( -1.60907e-05 5.06345e-05 -0.000302878 )  
( -4.22634e-05 1.68747e-05 -0.000379749 )  
( -5.312e-05 1.39672e-05 -0.000335051 )  
( -1.97811e-05 1.24025e-05 -0.000287322 )  
( -3.21567e-05 -2.89527e-05 -0.000243557 )  
( -5.18748e-05 -3.981e-05 -0.000243896 )  
( -5.26747e-06 2.38878e-05 -0.000229717 )  
( -1.30864e-05 4.44055e-05 -0.000278887 )  
( -8.83298e-06 3.49394e-05 -0.000310611 )  
( -6.08326e-05 -6.50419e-06 -0.000322861 )  
( -2.19831e-05 -1.23201e-05 -0.000266024 )  
( -1.69817e-05 4.08086e-05 -0.000369856 )  
( -6.36401e-05 -8.74261e-06 -0.000301438 )  
( 4.62797e-06 1.59221e-05 -0.000376658 )  
( -4.82363e-05 5.98029e-05 -0.000329408 )  
( 9.66722e-06 3.26925e-05 -0.000285483 )  
( 3.5548e-06 4.03551e-05 -0.000314933 )  
( -3.86807e-05 -3.05488e-05 -0.000246618 )  
( 4.9123e-05 0.000148262 -0.000331861 )  
( -1.36028e-05 8.5044e-05 -0.000248674 )  
( -9.94651e-05 2.99382e-05 -0.000385859 )  
( -4.78227e-05 -1.4661e-06 -0.00036112 )  
( -5.64606e-05 -1.84348e-05 -0.00029366 )  
( 4.86024e-06 5.69518e-05 -0.000330811 )  
( -9.80261e-05 7.47265e-05 -0.000461216 )  
( -6.56466e-05 3.88806e-05 -0.000359382 )  
( -7.07942e-06 1.21075e-05 -0.000275706 )  
( -3.40013e-05 -2.0852e-05 -0.000262936 )  
( 8.24e-06 4.05499e-05 -0.000336352 )  
( -7.02097e-05 -1.46396e-06 -0.000252042 )  
( -6.41901e-05 0.000109212 -0.000349712 )  
( -6.72363e-05 0.000134785 -0.000411695 )  
( 1.16212e-06 6.05342e-05 -0.00034436 )  
( -8.31288e-05 1.68198e-05 -0.000369306 )  
( 3.60046e-05 -3.32005e-06 -0.000325488 )  
( -0.000116548 4.36965e-06 -0.000431753 )  
( -4.97543e-05 3.11922e-06 -0.000255034 )  
( 2.45186e-05 0.000128161 -0.000299355 )  
( 1.10229e-05 0.000181519 -0.000320384 )  
( -4.49756e-05 -2.81567e-05 -0.000244246 )  
( -5.35042e-05 -3.12453e-05 -0.000277354 )  
( -6.81384e-05 1.19674e-05 -0.000329865 )  
( -6.76805e-05 -3.1643e-06 -0.00040036 )  
( -0.000147194 -2.79529e-05 -0.000359217 )  
)
