/*--------------------------------*- C++ -*----------------------------------*\
  =========                 |
  \\      /  F ield         | OpenFOAM: The Open Source CFD Toolbox
   \\    /   O peration     | Website:  https://openfoam.org
    \\  /    A nd           | Version:  9
     \\/     M anipulation  |
\*---------------------------------------------------------------------------*/
FoamFile
{
    format      ascii;
    class       surfaceScalarField;
    location    "0.002";
    object      phi;
}
// * * * * * * * * * * * * * * * * * * * * * * * * * * * * * * * * * * * * * //

dimensions      [0 3 -1 0 0 0 0];

internalField   nonuniform List<scalar> 
1436
(
3.42952e-17
-9.61652e-17
-2.49993e-10
-9.05028e-17
-2.49988e-10
4.00589e-17
-2.50011e-10
-2.50004e-10
5.32175e-17
-1.91589e-16
-2.49993e-10
-1.74478e-16
-2.49987e-10
7.08785e-17
-2.50011e-10
-2.50004e-10
8.18226e-17
-3.05389e-16
-2.49993e-10
-2.76966e-16
-2.49987e-10
1.11502e-16
-2.50012e-10
-2.50004e-10
1.12673e-16
-4.22241e-16
-2.49993e-10
-3.8355e-16
-2.49986e-10
1.53381e-16
-2.50012e-10
-2.50005e-10
1.4493e-16
-5.41938e-16
-2.49993e-10
-4.94037e-16
-2.49986e-10
1.95524e-16
-2.50013e-10
-2.50005e-10
1.78963e-16
-6.65784e-16
-2.49992e-10
-6.10046e-16
-2.49985e-10
2.37993e-16
-2.50014e-10
-2.50006e-10
2.15273e-16
-7.95324e-16
-2.49992e-10
-7.33291e-16
-2.49984e-10
2.81102e-16
-2.50015e-10
-2.50006e-10
2.54358e-16
-9.32094e-16
-2.49991e-10
-8.65478e-16
-2.49983e-10
3.25182e-16
-2.50016e-10
-2.50007e-10
2.96681e-16
-1.07768e-15
-2.49991e-10
-1.00831e-15
-2.49982e-10
3.70582e-16
-2.50018e-10
-2.50008e-10
3.42666e-16
-1.23378e-15
-2.4999e-10
-1.16354e-15
-2.4998e-10
4.1768e-16
-2.50019e-10
-2.50009e-10
3.9271e-16
-1.40221e-15
-2.49989e-10
-1.33295e-15
-2.49978e-10
4.66892e-16
-2.50021e-10
-2.5001e-10
4.47182e-16
-1.58496e-15
-2.49989e-10
-1.51844e-15
-2.49976e-10
5.18674e-16
-2.50023e-10
-2.50011e-10
5.06435e-16
-1.78419e-15
-2.49988e-10
-1.72205e-15
-2.49974e-10
5.73527e-16
-2.50026e-10
-2.50013e-10
5.70809e-16
-2.00231e-15
-2.49986e-10
-1.94593e-15
-2.49972e-10
6.31995e-16
-2.50028e-10
-2.50014e-10
6.40633e-16
-2.24192e-15
-2.49985e-10
-2.19243e-15
-2.49969e-10
6.94664e-16
-2.50031e-10
-2.50016e-10
7.16236e-16
-2.50591e-15
-2.49983e-10
-2.46414e-15
-2.49966e-10
7.62157e-16
-2.50034e-10
-2.50018e-10
7.97948e-16
-2.79744e-15
-2.49981e-10
-2.76386e-15
-2.49962e-10
8.35128e-16
-2.50038e-10
-2.5002e-10
8.86106e-16
-3.11997e-15
-2.49979e-10
-3.0947e-15
-2.49958e-10
9.14257e-16
-2.50042e-10
-2.50022e-10
9.81057e-16
-3.47734e-15
-2.49976e-10
-3.4601e-15
-2.49954e-10
1.00024e-15
-2.50047e-10
-2.50024e-10
1.08316e-15
-3.87371e-15
-2.49973e-10
-3.86386e-15
-2.49949e-10
1.09379e-15
-2.50051e-10
-2.50027e-10
1.19279e-15
-4.31368e-15
-2.4997e-10
-4.31023e-15
-2.49943e-10
1.19559e-15
-2.50057e-10
-2.5003e-10
1.31031e-15
-4.80231e-15
-2.49966e-10
-4.8039e-15
-2.49937e-10
1.30635e-15
-2.50063e-10
-2.50033e-10
1.43618e-15
-5.34515e-15
-2.49962e-10
-5.35011e-15
-2.4993e-10
1.42692e-15
-2.5007e-10
-2.50037e-10
1.571e-15
-5.94831e-15
-2.49958e-10
-5.95468e-15
-2.49922e-10
1.55825e-15
-2.50077e-10
-2.50041e-10
1.71531e-15
-6.6185e-15
-2.49952e-10
-6.62407e-15
-2.49914e-10
1.70111e-15
-2.50085e-10
-2.50046e-10
1.86967e-15
-7.36314e-15
-2.49947e-10
-7.36548e-15
-2.49905e-10
1.85627e-15
-2.50094e-10
-2.50051e-10
2.03465e-15
-8.19038e-15
-2.4994e-10
-8.1869e-15
-2.49894e-10
2.02452e-15
-2.50105e-10
-2.50057e-10
2.21085e-15
-9.10925e-15
-2.49933e-10
-9.09719e-15
-2.49883e-10
2.20696e-15
-2.50116e-10
-2.50063e-10
2.39917e-15
-1.01297e-14
-2.49925e-10
-1.01062e-14
-2.4987e-10
2.40454e-15
-2.50128e-10
-2.50071e-10
2.60051e-15
-1.12627e-14
-2.49916e-10
-1.12248e-14
-2.49857e-10
2.6182e-15
-2.50142e-10
-2.50079e-10
2.81567e-15
-1.25204e-14
-2.49906e-10
-1.24651e-14
-2.49841e-10
2.84891e-15
-2.50157e-10
-2.50088e-10
3.0455e-15
-1.39162e-14
-2.49895e-10
-1.38405e-14
-2.49824e-10
3.09771e-15
-2.50174e-10
-2.50099e-10
3.29088e-15
-1.54651e-14
-2.49882e-10
-1.53657e-14
-2.49805e-10
3.36571e-15
-2.50193e-10
-2.5011e-10
3.553e-15
-1.71834e-14
-2.49868e-10
-1.70572e-14
-2.49785e-10
3.65442e-15
-2.50214e-10
-2.50124e-10
3.83315e-15
-1.90893e-14
-2.49853e-10
-1.8933e-14
-2.49762e-10
3.9656e-15
-2.50237e-10
-2.50138e-10
4.1325e-15
-2.12031e-14
-2.49836e-10
-2.10131e-14
-2.49737e-10
4.30103e-15
-2.50262e-10
-2.50155e-10
4.45225e-15
-2.3547e-14
-2.49817e-10
-2.33195e-14
-2.49709e-10
4.66274e-15
-2.50291e-10
-2.50174e-10
4.79369e-15
-2.61457e-14
-2.49795e-10
-2.58767e-14
-2.49679e-10
5.05312e-15
-2.50322e-10
-2.50194e-10
5.15817e-15
-2.90265e-14
-2.49771e-10
-2.87114e-14
-2.49645e-10
5.475e-15
-2.50356e-10
-2.50218e-10
5.54715e-15
-3.22199e-14
-2.49745e-10
-3.18533e-14
-2.49607e-10
5.93177e-15
-2.50395e-10
-2.50244e-10
5.96255e-15
-3.57592e-14
-2.49715e-10
-3.5335e-14
-2.49566e-10
6.42746e-15
-2.50437e-10
-2.50273e-10
6.40612e-15
-3.96816e-14
-2.49682e-10
-3.91925e-14
-2.49521e-10
6.96689e-15
-2.50484e-10
-2.50305e-10
6.87947e-15
-4.40282e-14
-2.49645e-10
-4.34653e-14
-2.49471e-10
7.55595e-15
-2.50536e-10
-2.50341e-10
7.38419e-15
-4.88445e-14
-2.49604e-10
-4.81969e-14
-2.49415e-10
8.20127e-15
-2.50593e-10
-2.50381e-10
7.92177e-15
-5.41811e-14
-2.49558e-10
-5.34352e-14
-2.49354e-10
8.91047e-15
-2.50656e-10
-2.50426e-10
8.49354e-15
-6.00936e-14
-2.49506e-10
-5.92326e-14
-2.49286e-10
9.69225e-15
-2.50726e-10
-2.50476e-10
9.10055e-15
-6.66441e-14
-2.49449e-10
-6.56468e-14
-2.49212e-10
1.05564e-14
-2.50803e-10
-2.50531e-10
9.74342e-15
-7.39012e-14
-2.49385e-10
-7.27407e-14
-2.49129e-10
1.15135e-14
-2.50889e-10
-2.50593e-10
1.04222e-14
-8.19409e-14
-2.49314e-10
-8.05834e-14
-2.49039e-10
1.2575e-14
-2.50983e-10
-2.50661e-10
1.11361e-14
-9.08475e-14
-2.49234e-10
-8.92504e-14
-2.48938e-10
1.37529e-14
-2.51088e-10
-2.50737e-10
1.18835e-14
-1.00715e-13
-2.49146e-10
-9.8824e-14
-2.48828e-10
1.50596e-14
-2.51204e-10
-2.50821e-10
1.26611e-14
-1.11646e-13
-2.49047e-10
-1.09394e-13
-2.48706e-10
1.6508e-14
-2.51332e-10
-2.50914e-10
1.34642e-14
-1.23757e-13
-2.48937e-10
-1.21058e-13
-2.48571e-10
1.81131e-14
-2.51474e-10
-2.51017e-10
1.42859e-14
-1.37174e-13
-2.48815e-10
-1.33923e-13
-2.48423e-10
1.98952e-14
-2.51631e-10
-2.51131e-10
1.51167e-14
-1.5204e-13
-2.48678e-10
-1.48103e-13
-2.4826e-10
2.1887e-14
-2.51805e-10
-2.51258e-10
1.59436e-14
-1.68513e-13
-2.48526e-10
-1.63723e-13
-2.4808e-10
2.41463e-14
-2.51998e-10
-2.51398e-10
1.67494e-14
-1.86767e-13
-2.48356e-10
-1.80917e-13
-2.47882e-10
2.67784e-14
-2.52211e-10
-2.51552e-10
1.75116e-14
-2.06999e-13
-2.48167e-10
-1.99829e-13
-2.47665e-10
2.99683e-14
-2.52448e-10
-2.51722e-10
1.82009e-14
-2.2943e-13
-2.47956e-10
-2.2061e-13
-2.47426e-10
3.40273e-14
-2.52712e-10
-2.51909e-10
1.87799e-14
-2.5431e-13
-2.4772e-10
-2.43415e-13
-2.47164e-10
3.93787e-14
-2.53005e-10
-2.52113e-10
1.92012e-14
-2.81927e-13
-2.47458e-10
-2.68402e-13
-2.46876e-10
4.40218e-14
-2.53331e-10
-2.52338e-10
1.94058e-14
-3.12592e-13
-2.47165e-10
-2.95744e-13
-2.46561e-10
4.9453e-14
-2.53693e-10
-2.52584e-10
1.93196e-14
-3.46656e-13
-2.46838e-10
-3.25621e-13
-2.46216e-10
5.58482e-14
-2.54096e-10
-2.52854e-10
1.885e-14
-3.84514e-13
-2.46472e-10
-3.58212e-13
-2.45839e-10
6.34303e-14
-2.54544e-10
-2.53149e-10
1.78842e-14
-4.26618e-13
-2.46064e-10
-3.93694e-13
-2.45428e-10
7.24806e-14
-2.55043e-10
-2.53471e-10
1.63181e-14
-4.73478e-13
-2.45607e-10
-4.32232e-13
-2.44979e-10
8.32913e-14
-2.556e-10
-2.5382e-10
1.42706e-14
-5.2568e-13
-2.45095e-10
-4.73976e-13
-2.44491e-10
9.60051e-14
-2.56221e-10
-2.54198e-10
1.252e-14
-5.83887e-13
-2.44524e-10
-5.19054e-13
-2.43959e-10
1.10932e-13
-2.56916e-10
-2.54606e-10
8.54522e-15
-6.4885e-13
-2.43883e-10
-5.67564e-13
-2.43383e-10
1.28452e-13
-2.57693e-10
-2.55045e-10
2.88743e-15
-7.21423e-13
-2.43165e-10
-6.19558e-13
-2.4276e-10
1.49013e-13
-2.58564e-10
-2.55515e-10
-4.75175e-15
-8.02587e-13
-2.42357e-10
-6.75025e-13
-2.4209e-10
1.73137e-13
-2.59539e-10
-2.56017e-10
-1.49736e-14
-8.93469e-13
-2.41449e-10
-7.33857e-13
-2.41371e-10
2.01485e-13
-2.60634e-10
-2.56549e-10
-2.86287e-14
-9.95366e-13
-2.40425e-10
-7.95821e-13
-2.40604e-10
2.34849e-13
-2.61864e-10
-2.5711e-10
-4.66701e-14
-1.10978e-12
-2.39268e-10
-8.60509e-13
-2.39789e-10
2.74168e-13
-2.63248e-10
-2.57697e-10
-7.02727e-14
-1.23838e-12
-2.3796e-10
-9.27237e-13
-2.38932e-10
3.20496e-13
-2.64806e-10
-2.58303e-10
-1.00949e-13
-1.38263e-12
-2.36476e-10
-9.94756e-13
-2.38038e-10
3.74525e-13
-2.66563e-10
-2.58923e-10
-1.41466e-13
-1.54223e-12
-2.34793e-10
-1.05927e-12
-2.3712e-10
4.34387e-13
-2.6854e-10
-2.59548e-10
-2.00641e-13
-1.71091e-12
-2.32881e-10
-1.10876e-12
-2.36212e-10
4.91684e-13
-2.70742e-10
-2.60165e-10
-2.87259e-13
-1.83838e-12
-2.30755e-10
-1.06919e-12
-2.35429e-10
5.00283e-13
-2.7308e-10
-2.60734e-10
-4.93831e-13
-1.73624e-12
-2.28526e-10
-7.10223e-13
-2.35213e-10
4.31681e-13
-2.75248e-10
-2.61013e-10
-4.19374e-13
-2.90453e-13
-2.27816e-10
1.42087e-13
-2.35774e-10
1.03411e-13
-2.75641e-10
-2.60767e-10
1.26882e-13
-2.8202e-15
-2.2794e-10
-1.48489e-13
-2.35499e-10
2.0803e-14
-2.75665e-10
-2.60895e-10
5.05181e-12
1.58372e-13
-2.33151e-10
-6.18269e-12
-2.24264e-10
-1.35821e-12
-2.74148e-10
-2.68436e-10
9.49751e-13
-9.76863e-14
-2.34003e-10
-1.37145e-12
-2.21943e-10
1.3336e-13
-2.74379e-10
-2.69674e-10
-3.73737e-12
-3.27933e-12
-2.26986e-10
2.25287e-12
-2.27933e-10
1.61534e-12
-2.79274e-10
-2.65806e-10
-9.57406e-12
-4.24722e-12
-2.13165e-10
1.44328e-12
-2.3895e-10
3.93771e-13
-2.83915e-10
-2.63969e-10
-8.42161e-13
-9.77392e-13
-2.11345e-10
2.47406e-12
-2.42267e-10
2.17317e-12
-2.87065e-10
-2.59322e-10
-4.55549e-12
-4.08657e-12
-2.02703e-10
2.10799e-12
-2.4893e-10
2.18257e-12
-2.93335e-10
-2.55032e-10
8.61147e-13
2.62129e-13
-2.03827e-10
-2.53403e-12
-2.45535e-10
-1.6677e-12
-2.91405e-10
-2.59233e-10
4.47384e-12
9.75127e-12
-2.18052e-10
-2.08007e-12
-2.38981e-10
-4.29102e-12
-2.77363e-10
-2.65605e-10
2.90376e-12
1.39297e-11
-2.34885e-10
5.46216e-13
-2.36624e-10
-6.49639e-12
-2.56936e-10
-2.71555e-10
1.29325e-12
1.12932e-11
-2.47472e-10
-1.27214e-13
-2.35203e-10
-1.19362e-12
-2.4445e-10
-2.72876e-10
-2.66145e-13
1.44081e-11
-2.61614e-10
8.4878e-12
-2.43957e-10
-2.70219e-11
-2.03019e-10
-2.9141e-10
-1.93092e-12
1.9223e-11
-2.78906e-10
4.88282e-12
-2.50771e-10
-4.04994e-12
-1.79746e-10
-2.90577e-10
-1.46676e-12
2.40858e-12
-2.79848e-10
2.23977e-12
-2.54477e-10
-2.20939e-12
-1.75128e-10
-2.90546e-10
-2.96138e-12
-7.23708e-13
-2.76163e-10
5.56883e-12
-2.63007e-10
1.77717e-12
-1.77629e-10
-2.832e-10
-6.86728e-12
-9.79015e-12
-2.59505e-10
5.75186e-12
-2.75626e-10
5.9586e-12
-1.93378e-10
-2.7149e-10
-3.00683e-12
-8.28744e-12
-2.48211e-10
5.48757e-12
-2.84121e-10
1.34402e-11
-2.15106e-10
-2.52563e-10
-3.12707e-12
-8.38002e-12
-2.36704e-10
3.62107e-12
-2.90869e-10
7.89963e-12
-2.31385e-10
-2.41042e-10
-1.70514e-12
-5.16025e-12
-2.29839e-10
-7.04192e-13
-2.91869e-10
7.90063e-14
-2.36624e-10
-2.41667e-10
-3.80222e-12
-5.51809e-12
-2.20519e-10
-1.82023e-12
-2.93851e-10
-4.69865e-12
-2.37444e-10
-2.48187e-10
-4.91018e-12
-1.86876e-12
-2.1374e-10
-2.14606e-12
-2.96615e-10
-4.00042e-12
-2.35312e-10
-2.54333e-10
-7.45727e-13
-4.23628e-13
-2.12571e-10
-1.89616e-12
-2.95464e-10
-3.27367e-12
-2.32461e-10
-2.59503e-10
9.36453e-13
5.763e-13
-2.14084e-10
-1.20981e-12
-2.93317e-10
-6.78973e-13
-2.31206e-10
-2.61392e-10
1.52622e-12
3.55445e-13
-2.15966e-10
-1.09281e-12
-2.90698e-10
1.12084e-12
-2.31971e-10
-2.61364e-10
2.89511e-12
6.19607e-13
-2.19481e-10
-1.01602e-12
-2.86787e-10
1.94043e-12
-2.33292e-10
-2.6044e-10
2.97837e-12
3.89906e-13
-2.2285e-10
-9.80623e-13
-2.82827e-10
1.79802e-12
-2.34699e-10
-2.59623e-10
2.74185e-12
2.78965e-13
-2.25871e-10
-8.96265e-13
-2.79189e-10
1.6112e-12
-2.36031e-10
-2.58909e-10
2.46015e-12
2.2599e-13
-2.28557e-10
-7.8899e-13
-2.7594e-10
1.45813e-12
-2.37263e-10
-2.5824e-10
2.19619e-12
1.90567e-13
-2.30944e-10
-6.86027e-13
-2.73057e-10
1.32276e-12
-2.38395e-10
-2.57603e-10
1.95904e-12
1.6157e-13
-2.33065e-10
-5.95528e-13
-2.70503e-10
1.19877e-12
-2.39432e-10
-2.57e-10
1.74755e-12
1.36128e-13
-2.34949e-10
-5.17251e-13
-2.68238e-10
1.08555e-12
-2.40382e-10
-2.56432e-10
1.5591e-12
1.15555e-13
-2.36624e-10
-4.49549e-13
-2.66229e-10
9.82569e-13
-2.41249e-10
-2.55899e-10
1.39117e-12
9.78308e-14
-2.38113e-10
-3.90977e-13
-2.64447e-10
8.88989e-13
-2.4204e-10
-2.55402e-10
1.24152e-12
8.2198e-14
-2.39437e-10
-3.40304e-13
-2.62865e-10
8.03996e-13
-2.42761e-10
-2.54938e-10
1.10813e-12
6.84597e-14
-2.40614e-10
-2.9646e-13
-2.6146e-10
7.26846e-13
-2.4342e-10
-2.54508e-10
9.89235e-13
5.64265e-14
-2.4166e-10
-2.58514e-13
-2.60212e-10
6.56853e-13
-2.4402e-10
-2.5411e-10
8.83232e-13
4.5923e-14
-2.42589e-10
-2.25656e-13
-2.59103e-10
5.93386e-13
-2.44567e-10
-2.53742e-10
7.8871e-13
3.67843e-14
-2.43415e-10
-1.97189e-13
-2.58117e-10
5.35867e-13
-2.45066e-10
-2.53404e-10
7.0441e-13
2.88604e-14
-2.44148e-10
-1.72506e-13
-2.5724e-10
4.83765e-13
-2.45521e-10
-2.53092e-10
6.29213e-13
2.20135e-14
-2.44799e-10
-1.51085e-13
-2.56459e-10
4.3659e-13
-2.45935e-10
-2.52807e-10
5.62125e-13
1.6117e-14
-2.45377e-10
-1.32473e-13
-2.55765e-10
3.93897e-13
-2.46313e-10
-2.52545e-10
5.02258e-13
1.10544e-14
-2.4589e-10
-1.16279e-13
-2.55146e-10
3.55277e-13
-2.46657e-10
-2.52306e-10
4.48826e-13
6.71545e-15
-2.46346e-10
-1.02167e-13
-2.54594e-10
3.20357e-13
-2.4697e-10
-2.52087e-10
4.01127e-13
3.70736e-15
-2.4675e-10
-8.98448e-14
-2.54103e-10
2.88796e-13
-2.47255e-10
-2.51888e-10
3.58538e-13
1.32133e-15
-2.4711e-10
-7.90611e-14
-2.53665e-10
2.60282e-13
-2.47513e-10
-2.51707e-10
3.20506e-13
-1.06663e-15
-2.47429e-10
-6.95995e-14
-2.53275e-10
2.3453e-13
-2.47749e-10
-2.51541e-10
2.86532e-13
-3.49074e-15
-2.47711e-10
-6.12736e-14
-2.52927e-10
2.11287e-13
-2.47963e-10
-2.51391e-10
2.56163e-13
-4.97725e-15
-2.47962e-10
-5.39109e-14
-2.52617e-10
1.90329e-13
-2.48158e-10
-2.51254e-10
2.29004e-13
-5.19241e-15
-2.48186e-10
-4.76729e-14
-2.5234e-10
1.71447e-13
-2.48335e-10
-2.5113e-10
2.04713e-13
-5.31472e-15
-2.48385e-10
-4.25081e-14
-2.52093e-10
1.54437e-13
-2.48494e-10
-2.51018e-10
1.8299e-13
-5.36296e-15
-2.48563e-10
-3.812e-14
-2.51871e-10
1.39112e-13
-2.48639e-10
-2.50917e-10
1.63567e-13
-5.35297e-15
-2.48721e-10
-3.42873e-14
-2.51674e-10
1.25304e-13
-2.4877e-10
-2.50826e-10
1.46204e-13
-5.2978e-15
-2.48862e-10
-3.08545e-14
-2.51497e-10
1.12858e-13
-2.48888e-10
-2.50744e-10
1.30687e-13
-5.20813e-15
-2.48987e-10
-2.77216e-14
-2.51338e-10
1.01639e-13
-2.48995e-10
-2.5067e-10
1.16822e-13
-5.09253e-15
-2.49099e-10
-2.48312e-14
-2.51197e-10
9.15216e-14
-2.49092e-10
-2.50604e-10
1.04435e-13
-4.95778e-15
-2.49199e-10
-2.2155e-14
-2.5107e-10
8.23975e-14
-2.49179e-10
-2.50544e-10
9.33707e-14
-4.80912e-15
-2.49288e-10
-1.96851e-14
-2.50958e-10
7.41685e-14
-2.49258e-10
-2.50489e-10
8.3488e-14
-4.65052e-15
-2.49367e-10
-1.74235e-14
-2.50857e-10
6.67472e-14
-2.4933e-10
-2.5044e-10
7.46605e-14
-4.48489e-15
-2.49437e-10
-1.53734e-14
-2.50767e-10
6.00552e-14
-2.49394e-10
-2.50396e-10
6.67749e-14
-4.31425e-15
-2.495e-10
-1.35352e-14
-2.50687e-10
5.40221e-14
-2.49453e-10
-2.50356e-10
5.97298e-14
-4.13993e-15
-2.49556e-10
-1.19043e-14
-2.50615e-10
4.85846e-14
-2.49506e-10
-2.50319e-10
5.34347e-14
-3.96268e-15
-2.49605e-10
-1.04719e-14
-2.50551e-10
4.36854e-14
-2.49553e-10
-2.50286e-10
4.78086e-14
-3.78265e-15
-2.4965e-10
-9.22461e-15
-2.50494e-10
3.92727e-14
-2.49596e-10
-2.50256e-10
4.27789e-14
-3.60506e-15
-2.49689e-10
-8.14621e-15
-2.50443e-10
3.53002e-14
-2.49635e-10
-2.50229e-10
3.82807e-14
-3.43495e-15
-2.49724e-10
-7.21881e-15
-2.50398e-10
3.17262e-14
-2.4967e-10
-2.50205e-10
3.42564e-14
-3.27486e-15
-2.49755e-10
-6.42412e-15
-2.50357e-10
2.85122e-14
-2.49702e-10
-2.50183e-10
3.0655e-14
-3.12593e-15
-2.49782e-10
-5.74438e-15
-2.50321e-10
2.56237e-14
-2.49731e-10
-2.50163e-10
2.7431e-14
-2.98857e-15
-2.49807e-10
-5.16298e-15
-2.50288e-10
2.30289e-14
-2.49757e-10
-2.50145e-10
2.45437e-14
-2.86295e-15
-2.49829e-10
-4.66491e-15
-2.50259e-10
2.06995e-14
-2.4978e-10
-2.50129e-10
2.1957e-14
-2.53515e-15
-2.49848e-10
-4.23684e-15
-2.50232e-10
1.86096e-14
-2.49801e-10
-2.50115e-10
1.96404e-14
-2.16571e-15
-2.49865e-10
-3.86721e-15
-2.50209e-10
1.67342e-14
-2.4982e-10
-2.50102e-10
1.75675e-14
-1.89849e-15
-2.49881e-10
-3.54603e-15
-2.50188e-10
1.50498e-14
-2.49837e-10
-2.5009e-10
1.57139e-14
-1.70767e-15
-2.49895e-10
-3.2648e-15
-2.50169e-10
1.35362e-14
-2.49853e-10
-2.5008e-10
1.40574e-14
-1.57137e-15
-2.49907e-10
-3.01648e-15
-2.50152e-10
1.21755e-14
-2.49866e-10
-2.50071e-10
1.25775e-14
-1.47252e-15
-2.49919e-10
-2.79534e-15
-2.50137e-10
1.09522e-14
-2.49879e-10
-2.50062e-10
1.12559e-14
-1.39846e-15
-2.49928e-10
-2.59672e-15
-2.50123e-10
9.85247e-15
-2.4989e-10
-2.50055e-10
1.00759e-14
-1.34015e-15
-2.49937e-10
-2.41687e-15
-2.50111e-10
8.86407e-15
-2.49901e-10
-2.50049e-10
9.02265e-15
-1.29124e-15
-2.49945e-10
-2.25281e-15
-2.501e-10
7.97613e-15
-2.4991e-10
-2.50043e-10
8.08263e-15
-1.24757e-15
-2.49952e-10
-2.10215e-15
-2.5009e-10
7.1789e-15
-2.49919e-10
-2.50038e-10
7.24383e-15
-1.20658e-15
-2.49958e-10
-1.96301e-15
-2.50081e-10
6.46369e-15
-2.49927e-10
-2.50034e-10
6.49554e-15
-1.16681e-15
-2.49963e-10
-1.83391e-15
-2.50073e-10
5.82264e-15
-2.49934e-10
-2.5003e-10
5.8282e-15
-1.12757e-15
-2.49968e-10
-1.71369e-15
-2.50066e-10
5.24871e-15
-2.49941e-10
-2.50027e-10
5.23331e-15
-1.08862e-15
-2.49973e-10
-1.60144e-15
-2.50059e-10
4.73554e-15
-2.49947e-10
-2.50024e-10
4.70334e-15
-1.05001e-15
-2.49976e-10
-1.4964e-15
-2.50053e-10
4.27741e-15
-2.49953e-10
-2.50021e-10
4.23164e-15
-1.01197e-15
-2.4998e-10
-1.39773e-15
-2.50048e-10
3.86915e-15
-2.49958e-10
-2.50019e-10
3.81232e-15
-9.74792e-16
-2.49983e-10
-1.30516e-15
-2.50043e-10
3.50611e-15
-2.49963e-10
-2.50016e-10
3.44019e-15
-9.38767e-16
-2.49985e-10
-1.21852e-15
-2.50039e-10
3.1841e-15
-2.49967e-10
-2.50015e-10
3.11069e-15
-9.04172e-16
-2.49988e-10
-1.13773e-15
-2.50035e-10
2.89937e-15
-2.49971e-10
-2.50013e-10
2.81983e-15
-8.71159e-16
-2.4999e-10
-1.06273e-15
-2.50031e-10
2.64853e-15
-2.49975e-10
-2.50011e-10
2.56414e-15
-8.39663e-16
-2.49991e-10
-9.93476e-16
-2.50027e-10
2.42859e-15
-2.49978e-10
-2.5001e-10
2.3406e-15
-8.09869e-16
-2.49993e-10
-9.29951e-16
-2.50024e-10
2.23686e-15
-2.49981e-10
-2.50009e-10
2.14661e-15
-7.81927e-16
-2.49994e-10
-8.7214e-16
-2.50021e-10
2.07099e-15
-2.49984e-10
-2.50007e-10
1.97994e-15
-7.55931e-16
-2.49995e-10
-8.20026e-16
-2.50018e-10
1.92889e-15
-2.49986e-10
-2.50006e-10
1.83872e-15
-7.31926e-16
-2.49996e-10
-7.73512e-16
-2.50015e-10
1.8088e-15
-2.49989e-10
-2.50005e-10
1.72138e-15
-7.09905e-16
-2.49997e-10
-7.32555e-16
-2.50012e-10
1.70916e-15
-2.49991e-10
-2.50004e-10
1.62665e-15
-6.89719e-16
-2.49998e-10
-6.97179e-16
-2.5001e-10
1.6286e-15
-2.49993e-10
-2.50003e-10
1.5537e-15
-6.70877e-16
-2.49999e-10
-6.67553e-16
-2.50007e-10
1.56568e-15
-2.49995e-10
-2.50002e-10
1.50213e-15
-6.52163e-16
-2.49999e-10
-6.44823e-16
-2.50004e-10
1.5175e-15
-2.49996e-10
-2.50001e-10
1.5133e-15
-6.56202e-16
-6.54222e-16
1.52336e-15
)
;

boundaryField
{
    inlet
    {
        type            calculated;
        value           nonuniform List<scalar> 4(-2.5e-10 -2.49998e-10 -2.50002e-10 -2.5e-10);
    }
    outlet
    {
        type            calculated;
        value           nonuniform List<scalar> 4(2.49993e-10 2.50011e-10 2.49988e-10 2.50004e-10);
    }
    repeat_boundary
    {
        type            calculated;
        value           uniform 0;
    }
}


// ************************************************************************* //
