/*--------------------------------*- C++ -*----------------------------------*\
  =========                 |
  \\      /  F ield         | OpenFOAM: The Open Source CFD Toolbox
   \\    /   O peration     | Website:  https://openfoam.org
    \\  /    A nd           | Version:  9
     \\/     M anipulation  |
\*---------------------------------------------------------------------------*/
FoamFile
{
    format      ascii;
    class       volVectorField;
    location    "0.002";
    object      stored_U;
}
// * * * * * * * * * * * * * * * * * * * * * * * * * * * * * * * * * * * * * //

dimensions      [0 1 -1 0 0 0 0];

internalField   nonuniform List<vector> 
720
(
(1.18417e-09 -2.55675e-09 -0.000999979)
(1.18419e-09 -2.57686e-09 -0.000999954)
(1.16407e-09 -2.55675e-09 -0.00100004)
(1.16407e-09 -2.57686e-09 -0.00100002)
(2.04086e-09 -5.12484e-09 -0.000999978)
(2.04086e-09 -5.09745e-09 -0.000999952)
(2.06825e-09 -5.12484e-09 -0.00100004)
(2.06825e-09 -5.09746e-09 -0.00100002)
(3.20413e-09 -8.39689e-09 -0.000999977)
(3.2041e-09 -8.26056e-09 -0.000999951)
(3.34044e-09 -8.39689e-09 -0.00100005)
(3.34044e-09 -8.26058e-09 -0.00100002)
(4.47288e-09 -1.1901e-08 -0.000999975)
(4.47287e-09 -1.1641e-08 -0.000999949)
(4.73285e-09 -1.1901e-08 -0.00100005)
(4.73285e-09 -1.1641e-08 -0.00100002)
(5.82217e-09 -1.55684e-08 -0.000999974)
(5.82217e-09 -1.52077e-08 -0.000999946)
(6.18284e-09 -1.55684e-08 -0.00100005)
(6.18284e-09 -1.52077e-08 -0.00100002)
(7.24999e-09 -1.9436e-08 -0.000999973)
(7.24999e-09 -1.89844e-08 -0.000999943)
(7.70157e-09 -1.9436e-08 -0.00100005)
(7.70157e-09 -1.89844e-08 -0.00100002)
(8.7705e-09 -2.3549e-08 -0.000999971)
(8.7705e-09 -2.30159e-08 -0.000999939)
(9.30368e-09 -2.35491e-08 -0.00100006)
(9.30368e-09 -2.30159e-08 -0.00100002)
(1.03991e-08 -2.7958e-08 -0.000999969)
(1.0399e-08 -2.73501e-08 -0.000999935)
(1.10069e-08 -2.7958e-08 -0.00100006)
(1.10069e-08 -2.73501e-08 -0.00100003)
(1.2152e-08 -3.27168e-08 -0.000999967)
(1.2152e-08 -3.20386e-08 -0.00099993)
(1.28302e-08 -3.27168e-08 -0.00100007)
(1.28302e-08 -3.20386e-08 -0.00100003)
(1.4047e-08 -3.7883e-08 -0.000999964)
(1.4047e-08 -3.71369e-08 -0.000999924)
(1.4793e-08 -3.7883e-08 -0.00100007)
(1.4793e-08 -3.7137e-08 -0.00100003)
(1.61034e-08 -4.35183e-08 -0.000999961)
(1.61034e-08 -4.27057e-08 -0.000999918)
(1.69159e-08 -4.35183e-08 -0.00100008)
(1.69159e-08 -4.27057e-08 -0.00100003)
(1.83421e-08 -4.96894e-08 -0.000999957)
(1.83421e-08 -4.88111e-08 -0.00099991)
(1.92203e-08 -4.96894e-08 -0.00100009)
(1.92203e-08 -4.88112e-08 -0.00100004)
(2.07861e-08 -5.64686e-08 -0.000999953)
(2.07861e-08 -5.55258e-08 -0.000999901)
(2.17289e-08 -5.64687e-08 -0.0010001)
(2.17289e-08 -5.55258e-08 -0.00100004)
(2.34602e-08 -6.39353e-08 -0.000999948)
(2.34602e-08 -6.29293e-08 -0.000999892)
(2.44662e-08 -6.39353e-08 -0.00100011)
(2.44662e-08 -6.29293e-08 -0.00100005)
(2.63909e-08 -7.21765e-08 -0.000999943)
(2.63909e-08 -7.11089e-08 -0.000999881)
(2.74585e-08 -7.21765e-08 -0.00100012)
(2.74585e-08 -7.11089e-08 -0.00100005)
(2.9607e-08 -8.12884e-08 -0.000999937)
(2.9607e-08 -8.01604e-08 -0.000999869)
(3.0735e-08 -8.12884e-08 -0.00100013)
(3.0735e-08 -8.01604e-08 -0.00100006)
(3.31391e-08 -9.13776e-08 -0.00099993)
(3.31391e-08 -9.01893e-08 -0.000999855)
(3.43274e-08 -9.13776e-08 -0.00100014)
(3.43274e-08 -9.01893e-08 -0.00100007)
(3.702e-08 -1.02562e-07 -0.000999922)
(3.702e-08 -1.01311e-07 -0.00099984)
(3.82707e-08 -1.02562e-07 -0.00100016)
(3.82707e-08 -1.01312e-07 -0.00100008)
(4.1285e-08 -1.14973e-07 -0.000999913)
(4.1285e-08 -1.13655e-07 -0.000999823)
(4.26034e-08 -1.14973e-07 -0.00100018)
(4.26033e-08 -1.13655e-07 -0.00100008)
(4.59723e-08 -1.28756e-07 -0.000999903)
(4.59723e-08 -1.27361e-07 -0.000999804)
(4.73676e-08 -1.28756e-07 -0.0010002)
(4.73675e-08 -1.27361e-07 -0.00100009)
(5.11229e-08 -1.44073e-07 -0.000999892)
(5.11228e-08 -1.42587e-07 -0.000999783)
(5.26094e-08 -1.44073e-07 -0.00100022)
(5.26094e-08 -1.42587e-07 -0.00100011)
(5.67814e-08 -1.61103e-07 -0.00099988)
(5.67814e-08 -1.59505e-07 -0.00099976)
(5.83793e-08 -1.61103e-07 -0.00100024)
(5.83793e-08 -1.59505e-07 -0.00100012)
(6.29965e-08 -1.80043e-07 -0.000999866)
(6.29965e-08 -1.78308e-07 -0.000999734)
(6.47319e-08 -1.80044e-07 -0.00100027)
(6.47318e-08 -1.78308e-07 -0.00100013)
(6.98211e-08 -2.01116e-07 -0.00099985)
(6.9821e-08 -1.99211e-07 -0.000999706)
(7.17264e-08 -2.01116e-07 -0.0010003)
(7.17264e-08 -1.99211e-07 -0.00100015)
(7.73129e-08 -2.24565e-07 -0.000999832)
(7.73128e-08 -2.22451e-07 -0.000999674)
(7.94271e-08 -2.24566e-07 -0.00100033)
(7.94271e-08 -2.22451e-07 -0.00100017)
(8.5535e-08 -2.50662e-07 -0.000999812)
(8.5535e-08 -2.48294e-07 -0.000999638)
(8.79032e-08 -2.50662e-07 -0.00100037)
(8.79032e-08 -2.48294e-07 -0.00100019)
(9.45563e-08 -2.79706e-07 -0.00099979)
(9.45562e-08 -2.77033e-07 -0.000999599)
(9.72295e-08 -2.79706e-07 -0.00100041)
(9.72294e-08 -2.77033e-07 -0.00100021)
(1.04452e-07 -3.12031e-07 -0.000999765)
(1.04452e-07 -3.08996e-07 -0.000999555)
(1.07486e-07 -3.12031e-07 -0.00100045)
(1.07486e-07 -3.08997e-07 -0.00100023)
(1.15303e-07 -3.48006e-07 -0.000999737)
(1.15303e-07 -3.44549e-07 -0.000999507)
(1.1876e-07 -3.48007e-07 -0.0010005)
(1.1876e-07 -3.4455e-07 -0.00100026)
(1.27199e-07 -3.88043e-07 -0.000999705)
(1.27198e-07 -3.84097e-07 -0.000999453)
(1.31144e-07 -3.88043e-07 -0.00100055)
(1.31144e-07 -3.84097e-07 -0.00100029)
(1.40235e-07 -4.32595e-07 -0.000999669)
(1.40235e-07 -4.2809e-07 -0.000999393)
(1.44739e-07 -4.32596e-07 -0.00100062)
(1.44739e-07 -4.28091e-07 -0.00100033)
(1.54516e-07 -4.82169e-07 -0.000999629)
(1.54515e-07 -4.77031e-07 -0.000999327)
(1.59653e-07 -4.8217e-07 -0.00100068)
(1.59653e-07 -4.77032e-07 -0.00100037)
(1.70154e-07 -5.37325e-07 -0.000999585)
(1.70154e-07 -5.31476e-07 -0.000999254)
(1.76003e-07 -5.37326e-07 -0.00100076)
(1.76003e-07 -5.31477e-07 -0.00100041)
(1.87271e-07 -5.98687e-07 -0.000999535)
(1.87271e-07 -5.92046e-07 -0.000999173)
(1.93913e-07 -5.98689e-07 -0.00100084)
(1.93913e-07 -5.92047e-07 -0.00100046)
(2.05999e-07 -6.66947e-07 -0.000999479)
(2.05998e-07 -6.59428e-07 -0.000999083)
(2.13518e-07 -6.66949e-07 -0.00100093)
(2.13517e-07 -6.5943e-07 -0.00100051)
(2.26478e-07 -7.42872e-07 -0.000999417)
(2.26477e-07 -7.34388e-07 -0.000998983)
(2.34961e-07 -7.42874e-07 -0.00100103)
(2.34961e-07 -7.3439e-07 -0.00100057)
(2.4886e-07 -8.27315e-07 -0.000999347)
(2.48859e-07 -8.17777e-07 -0.000998873)
(2.58398e-07 -8.27318e-07 -0.00100114)
(2.58398e-07 -8.17779e-07 -0.00100064)
(2.7331e-07 -9.21221e-07 -0.000999268)
(2.73309e-07 -9.10538e-07 -0.000998751)
(2.83993e-07 -9.21225e-07 -0.00100126)
(2.83993e-07 -9.10541e-07 -0.00100072)
(3.00005e-07 -1.02564e-06 -0.000999181)
(3.00004e-07 -1.01372e-06 -0.000998616)
(3.11923e-07 -1.02564e-06 -0.0010014)
(3.11922e-07 -1.01373e-06 -0.00100081)
(3.29137e-07 -1.14174e-06 -0.000999083)
(3.29136e-07 -1.1285e-06 -0.000998467)
(3.42374e-07 -1.14174e-06 -0.00100155)
(3.42373e-07 -1.1285e-06 -0.0010009)
(3.60911e-07 -1.2708e-06 -0.000998974)
(3.6091e-07 -1.25617e-06 -0.000998302)
(3.75546e-07 -1.27081e-06 -0.00100171)
(3.75544e-07 -1.25617e-06 -0.00100101)
(3.95553e-07 -1.41426e-06 -0.000998852)
(3.95551e-07 -1.39817e-06 -0.000998119)
(4.11647e-07 -1.41427e-06 -0.0010019)
(4.11645e-07 -1.39817e-06 -0.00100113)
(4.33304e-07 -1.5737e-06 -0.000998715)
(4.33302e-07 -1.55611e-06 -0.000997917)
(4.50901e-07 -1.57371e-06 -0.0010021)
(4.50898e-07 -1.55611e-06 -0.00100127)
(4.7443e-07 -1.75088e-06 -0.000998563)
(4.74427e-07 -1.73177e-06 -0.000997693)
(4.93539e-07 -1.75089e-06 -0.00100232)
(4.93536e-07 -1.73178e-06 -0.00100142)
(5.19218e-07 -1.94773e-06 -0.000998393)
(5.19215e-07 -1.92714e-06 -0.000997445)
(5.39809e-07 -1.94775e-06 -0.00100257)
(5.39805e-07 -1.92716e-06 -0.00100159)
(5.67984e-07 -2.16642e-06 -0.000998203)
(5.67981e-07 -2.14443e-06 -0.000997171)
(5.89968e-07 -2.16644e-06 -0.00100285)
(5.89963e-07 -2.14445e-06 -0.00100179)
(6.21072e-07 -2.40931e-06 -0.000997991)
(6.21068e-07 -2.3861e-06 -0.000996868)
(6.44289e-07 -2.40934e-06 -0.00100315)
(6.44282e-07 -2.38612e-06 -0.001002)
(6.78858e-07 -2.67906e-06 -0.000997755)
(6.78852e-07 -2.65486e-06 -0.000996532)
(7.03057e-07 -2.67909e-06 -0.00100348)
(7.03049e-07 -2.65489e-06 -0.00100224)
(7.41755e-07 -2.97858e-06 -0.000997491)
(7.41748e-07 -2.95376e-06 -0.00099616)
(7.66578e-07 -2.97861e-06 -0.00100385)
(7.66568e-07 -2.95379e-06 -0.00100251)
(8.10215e-07 -3.3111e-06 -0.000997198)
(8.10207e-07 -3.28614e-06 -0.000995748)
(8.35174e-07 -3.31115e-06 -0.00100426)
(8.35163e-07 -3.28618e-06 -0.00100281)
(8.84738e-07 -3.68021e-06 -0.00099687)
(8.84727e-07 -3.65576e-06 -0.000995292)
(9.09196e-07 -3.68027e-06 -0.00100471)
(9.09182e-07 -3.65581e-06 -0.00100314)
(9.65868e-07 -4.08989e-06 -0.000996506)
(9.65855e-07 -4.06673e-06 -0.000994787)
(9.89025e-07 -4.08996e-06 -0.0010052)
(9.89007e-07 -4.0668e-06 -0.00100351)
(1.05421e-06 -4.54454e-06 -0.0009961)
(1.05419e-06 -4.52366e-06 -0.000994228)
(1.07508e-06 -4.54463e-06 -0.00100575)
(1.07506e-06 -4.52374e-06 -0.00100393)
(1.15042e-06 -5.04905e-06 -0.000995649)
(1.1504e-06 -5.03162e-06 -0.000993609)
(1.16785e-06 -5.04916e-06 -0.00100636)
(1.16782e-06 -5.03172e-06 -0.00100439)
(1.25523e-06 -5.60886e-06 -0.000995146)
(1.2552e-06 -5.59621e-06 -0.000992923)
(1.26788e-06 -5.609e-06 -0.00100703)
(1.26785e-06 -5.59633e-06 -0.00100491)
(1.36944e-06 -6.23001e-06 -0.000994588)
(1.36941e-06 -6.22362e-06 -0.000992164)
(1.37584e-06 -6.23019e-06 -0.00100777)
(1.3758e-06 -6.22377e-06 -0.00100548)
(1.49393e-06 -6.91925e-06 -0.000993966)
(1.49389e-06 -6.92067e-06 -0.000991323)
(1.49252e-06 -6.91947e-06 -0.0010086)
(1.49247e-06 -6.92086e-06 -0.00100612)
(1.62967e-06 -7.68409e-06 -0.000993276)
(1.62963e-06 -7.69485e-06 -0.000990393)
(1.61893e-06 -7.68437e-06 -0.00100952)
(1.61886e-06 -7.69508e-06 -0.00100682)
(1.77774e-06 -8.53294e-06 -0.000992508)
(1.77769e-06 -8.55436e-06 -0.000989362)
(1.75634e-06 -8.53329e-06 -0.00101054)
(1.75625e-06 -8.55465e-06 -0.0010076)
(1.93931e-06 -9.47524e-06 -0.000991655)
(1.93924e-06 -9.50817e-06 -0.000988222)
(1.9064e-06 -9.47567e-06 -0.00101167)
(1.90629e-06 -9.50854e-06 -0.00100845)
(2.11567e-06 -1.05216e-05 -0.000990709)
(2.11559e-06 -1.05661e-05 -0.000986959)
(2.07122e-06 -1.05221e-05 -0.00101293)
(2.07108e-06 -1.05665e-05 -0.0010094)
(2.30823e-06 -1.16832e-05 -0.000989657)
(2.30813e-06 -1.17392e-05 -0.000985562)
(2.25223e-06 -1.16839e-05 -0.00101433)
(2.25206e-06 -1.17398e-05 -0.00101045)
(2.51854e-06 -1.29727e-05 -0.000988491)
(2.51841e-06 -1.30401e-05 -0.000984016)
(2.4511e-06 -1.29735e-05 -0.00101588)
(2.4509e-06 -1.30408e-05 -0.00101161)
(2.74829e-06 -1.44038e-05 -0.000987196)
(2.74814e-06 -1.44824e-05 -0.000982307)
(2.66982e-06 -1.44049e-05 -0.0010176)
(2.66956e-06 -1.44833e-05 -0.00101289)
(2.99936e-06 -1.59922e-05 -0.000985761)
(2.99918e-06 -1.6081e-05 -0.000980415)
(2.91071e-06 -1.59935e-05 -0.0010195)
(2.91039e-06 -1.6082e-05 -0.00101431)
(3.27388e-06 -1.77549e-05 -0.000984171)
(3.27366e-06 -1.78524e-05 -0.000978322)
(3.17657e-06 -1.77565e-05 -0.00102162)
(3.17616e-06 -1.78537e-05 -0.00101588)
(3.5744e-06 -1.97109e-05 -0.000982415)
(3.57413e-06 -1.98148e-05 -0.000976001)
(3.47069e-06 -1.97129e-05 -0.00102396)
(3.47018e-06 -1.98164e-05 -0.00101761)
(3.9044e-06 -2.18809e-05 -0.000980483)
(3.90407e-06 -2.19885e-05 -0.000973421)
(3.79702e-06 -2.18834e-05 -0.00102658)
(3.79639e-06 -2.19905e-05 -0.00101951)
(4.2685e-06 -2.42875e-05 -0.000978352)
(4.26809e-06 -2.4396e-05 -0.000970561)
(4.16032e-06 -2.42907e-05 -0.00102948)
(4.15953e-06 -2.43986e-05 -0.0010216)
(4.67025e-06 -2.6957e-05 -0.000975994)
(4.66976e-06 -2.70613e-05 -0.000967401)
(4.56628e-06 -2.69609e-05 -0.00103271)
(4.56529e-06 -2.70645e-05 -0.00102388)
(5.1132e-06 -2.99183e-05 -0.000973382)
(5.11259e-06 -3.00102e-05 -0.000963913)
(5.02175e-06 -2.99232e-05 -0.00103631)
(5.0205e-06 -3.00142e-05 -0.00102639)
(5.60111e-06 -3.3204e-05 -0.000970487)
(5.60036e-06 -3.32708e-05 -0.000960065)
(5.53503e-06 -3.32102e-05 -0.00104033)
(5.53345e-06 -3.32757e-05 -0.00102912)
(6.13776e-06 -3.68507e-05 -0.00096726)
(6.13681e-06 -3.68731e-05 -0.000955812)
(6.1163e-06 -3.68586e-05 -0.00104479)
(6.11422e-06 -3.68793e-05 -0.00103207)
(6.7264e-06 -4.08991e-05 -0.000963634)
(6.72497e-06 -4.08491e-05 -0.000951101)
(6.778e-06 -4.09101e-05 -0.00104973)
(6.77498e-06 -4.08576e-05 -0.00103523)
(7.36876e-06 -4.53928e-05 -0.00095976)
(7.36488e-06 -4.52298e-05 -0.000946064)
(7.53365e-06 -4.54117e-05 -0.00105535)
(7.52876e-06 -4.52461e-05 -0.00103878)
(8.0646e-06 -5.03685e-05 -0.000956644)
(8.04434e-06 -5.00369e-05 -0.000941567)
(8.38594e-06 -5.04135e-05 -0.00106294)
(8.37778e-06 -5.00867e-05 -0.00104388)
(8.7977e-06 -5.58131e-05 -0.000954783)
(8.67552e-06 -5.52236e-05 -0.000938051)
(9.26159e-06 -5.58895e-05 -0.00107395)
(9.23453e-06 -5.53002e-05 -0.00105118)
(9.40908e-06 -6.13754e-05 -0.000941342)
(8.75465e-06 -6.02453e-05 -0.000924032)
(9.87139e-06 -6.16749e-05 -0.0010771)
(9.80826e-06 -6.07239e-05 -0.00104669)
(9.11694e-06 -6.4721e-05 -0.000890654)
(6.30682e-06 -6.20902e-05 -0.000868927)
(8.91488e-06 -6.58601e-05 -0.00104511)
(8.93807e-06 -6.43246e-05 -0.000996092)
(7.14872e-06 -5.71187e-05 -0.000712708)
(-1.64763e-06 -5.15071e-05 -0.000712931)
(4.22428e-06 -5.98374e-05 -0.000770441)
(5.50177e-06 -5.95735e-05 -0.000823804)
(8.57347e-06 -9.05714e-06 -0.00294429)
(-1.55986e-05 -9.88012e-06 -0.00256545)
(-1.05382e-05 -1.34243e-05 -0.00340039)
(-5.71995e-06 -3.50775e-05 -0.00329302)
(2.34517e-05 -1.10071e-05 1.10806e-05)
(-1.81438e-06 -1.17844e-05 -6.19882e-06)
(7.00224e-06 -1.4855e-05 8.24016e-06)
(3.54796e-06 -4.61159e-05 6.2041e-06)
(0.000196204 4.35247e-07 -0.0034882)
(0.000186538 -0.000254218 -0.00273268)
(-7.34901e-05 -5.63255e-06 -0.00401126)
(-6.12661e-05 -0.00026369 -0.00399978)
(1.73982e-05 -2.05729e-05 -4.15867e-05)
(3.96111e-05 -7.74076e-05 -0.00313536)
(2.0925e-06 -2.11246e-05 -0.00045306)
(5.31044e-06 -3.46567e-05 -2.63934e-05)
(-0.000486989 -0.000259418 -0.0029175)
(-5.39839e-05 -2.29934e-06 -0.00087082)
(9.51899e-05 -0.000156849 -0.00392419)
(0.00014448 0.000337509 -0.00501266)
(-0.000537268 -0.000298452 -0.00266643)
(-0.00055955 0.000280825 -0.00433978)
(2.95123e-05 -0.000234492 -0.00416568)
(5.29041e-06 -1.44031e-05 -0.000100499)
(-5.6311e-05 -7.78813e-05 -0.000625977)
(-6.50991e-05 -5.7925e-06 -0.000307116)
(2.58009e-05 -8.6841e-05 -0.000833256)
(0.000310943 0.00037387 -0.00526899)
(-0.000148081 -0.000180273 -0.0050503)
(-0.000363634 0.000293038 -0.00315648)
(0.000309136 -0.000380477 -0.00460615)
(2.44666e-05 -8.00198e-06 -0.000457037)
(3.52091e-06 -2.79803e-05 -0.000284011)
(6.22334e-05 -0.000124101 -0.00186939)
(-6.83676e-05 2.38491e-05 -0.00130158)
(-9.71217e-05 -0.000152592 -0.00474511)
(0.000313354 0.000303439 -0.00450204)
(0.000296799 -0.000130809 -0.00334465)
(-0.000303617 0.00077859 -0.0028913)
(-9.14803e-05 -9.70809e-05 -0.0014197)
(0.000227908 0.000444295 -0.00179077)
(8.35473e-05 -7.85902e-06 -0.00191667)
(-0.00037427 0.000957133 -0.00316669)
(-0.000321765 7.55725e-05 -0.00524014)
(6.98492e-05 0.000922851 -0.00330173)
(1.93608e-05 4.86005e-05 -0.00380941)
(-0.000181652 0.000221706 -0.000840929)
(9.5502e-06 -3.47129e-05 6.29802e-07)
(-1.62448e-06 8.09201e-05 -0.000369933)
(-3.18927e-05 8.04716e-05 -0.0011977)
(-0.000859552 0.00135358 -0.00294302)
(-0.00119085 0.00100576 -0.00440368)
(-0.000148193 0.00140052 -0.00324567)
(-0.000136019 0.000663335 -0.00410685)
(-0.000262507 0.000394057 -0.00249602)
(-9.83759e-05 2.61918e-05 -0.000456562)
(-0.000175369 0.000403538 -0.00292133)
(-7.24478e-06 -6.22723e-06 -6.39481e-05)
(7.22153e-06 -2.92756e-05 -6.64577e-05)
(-0.000264588 0.000424065 -0.00449775)
(-7.09301e-05 -3.46935e-05 -0.00113017)
(-0.000261257 0.000555573 -0.00435999)
(9.82973e-05 -2.76467e-05 -0.00504791)
(8.94507e-05 0.000138236 -0.00132647)
(-0.000441013 -0.000946036 -0.00368079)
(-0.00015939 0.000235387 -0.00183972)
(6.06068e-05 -8.39241e-05 -0.000569406)
(0.000618444 0.000349501 -0.00320465)
(-9.80375e-05 -0.000208321 -0.00098739)
(-0.000220874 0.00028037 -0.00220945)
(0.000764066 -0.000658474 -0.00281736)
(0.000583289 0.000312993 -0.00267205)
(-0.000166072 -0.000382217 -0.00341755)
(-0.000198963 0.000341596 -0.00361203)
(0.000629096 -0.000499822 -0.00191511)
(0.000331264 0.000160971 -0.0047635)
(-0.000124214 -0.000226028 -0.00196789)
(-8.47479e-05 -7.44238e-05 -0.00197443)
(8.86334e-06 -0.000332207 -0.001507)
(-3.26084e-06 -4.90766e-05 -0.00106893)
(-0.000227282 -0.000207013 -0.00270654)
(-0.000244058 -7.96934e-05 -0.00279982)
(-0.000258724 -0.000362622 -0.00242139)
(-0.000223162 -0.000102932 -0.00305489)
(-0.000129191 -0.000118007 -0.00248768)
(-0.000388359 -7.70775e-05 -0.00260169)
(-0.000146511 -0.000143023 -0.00194946)
(-0.000272168 -8.21478e-05 -0.00134104)
(-3.42491e-05 -5.14421e-05 -0.00149655)
(-7.455e-05 -5.51338e-05 -0.00178778)
(-6.3519e-05 -1.66281e-05 -0.00189635)
(-0.000272872 -0.000112829 -0.0015908)
(2.11809e-05 5.28645e-05 -0.00172437)
(4.83736e-05 -2.43953e-05 -0.0017048)
(-8.57267e-06 3.11354e-05 -0.00163857)
(-8.14698e-05 -6.79806e-05 -0.00117418)
(3.63224e-05 2.22861e-05 -0.000805203)
(7.37642e-05 -1.74416e-05 -0.0013801)
(3.34955e-05 4.42674e-05 -0.0012552)
(1.66365e-05 -5.25541e-05 -0.00117982)
(9.42992e-05 3.44741e-05 -0.000950001)
(0.000100557 -2.34446e-05 -0.00122757)
(5.56961e-05 3.98827e-05 -0.0010664)
(4.72869e-05 -3.90669e-05 -0.00105269)
(9.95181e-05 2.49235e-05 -0.00087964)
(0.000100448 -2.87509e-05 -0.00112807)
(5.00918e-05 2.62269e-05 -0.000939617)
(4.80028e-05 -3.29838e-05 -0.00103057)
(9.17186e-05 1.96191e-05 -0.000888405)
(9.17739e-05 -2.81866e-05 -0.00110729)
(4.4533e-05 1.98488e-05 -0.000947197)
(4.41689e-05 -2.90231e-05 -0.00103296)
(8.20735e-05 1.62633e-05 -0.000905036)
(8.20437e-05 -2.53796e-05 -0.00109969)
(4.04854e-05 1.62959e-05 -0.000959456)
(4.04298e-05 -2.55318e-05 -0.00103279)
(7.30467e-05 1.36592e-05 -0.00091692)
(7.30192e-05 -2.23687e-05 -0.0010898)
(3.70058e-05 1.36609e-05 -0.000963782)
(3.69972e-05 -2.24071e-05 -0.00103049)
(6.49688e-05 1.14891e-05 -0.0009263)
(6.49477e-05 -1.96638e-05 -0.00107974)
(3.38002e-05 1.14875e-05 -0.00096621)
(3.37975e-05 -1.96827e-05 -0.00102809)
(5.77918e-05 9.6424e-06 -0.000934619)
(5.77756e-05 -1.73034e-05 -0.00107081)
(3.08335e-05 9.64075e-06 -0.000968691)
(3.08317e-05 -1.73167e-05 -0.00102588)
(5.14194e-05 8.064e-06 -0.000942051)
(5.14068e-05 -1.52466e-05 -0.00106298)
(2.80992e-05 8.0626e-06 -0.000971146)
(2.80978e-05 -1.52567e-05 -0.00102381)
(4.57601e-05 6.71622e-06 -0.000948644)
(4.57504e-05 -1.34522e-05 -0.00105605)
(2.55844e-05 6.71505e-06 -0.000973449)
(2.55831e-05 -1.34601e-05 -0.00102186)
(4.0733e-05 5.56761e-06 -0.000954486)
(4.07254e-05 -1.18852e-05 -0.0010499)
(2.32746e-05 5.56665e-06 -0.000975589)
(2.32735e-05 -1.18913e-05 -0.00102003)
(3.62663e-05 4.59076e-06 -0.000959662)
(3.62604e-05 -1.05152e-05 -0.00104445)
(2.1156e-05 4.58996e-06 -0.000977577)
(2.11552e-05 -1.052e-05 -0.00101831)
(3.22967e-05 3.76177e-06 -0.00096425)
(3.22921e-05 -9.31611e-06 -0.00103961)
(1.92155e-05 3.7611e-06 -0.000979423)
(1.92148e-05 -9.31981e-06 -0.00101672)
(2.87679e-05 3.05993e-06 -0.000968315)
(2.87643e-05 -8.26525e-06 -0.00103531)
(1.74402e-05 3.05937e-06 -0.000981134)
(1.74396e-05 -8.26814e-06 -0.00101524)
(2.56302e-05 2.46717e-06 -0.000971917)
(2.56275e-05 -7.34321e-06 -0.00103149)
(1.5818e-05 2.46671e-06 -0.000982718)
(1.58174e-05 -7.34546e-06 -0.00101387)
(2.28396e-05 1.96783e-06 -0.000975106)
(2.28375e-05 -6.53321e-06 -0.0010281)
(1.43371e-05 1.96745e-06 -0.000984184)
(1.43367e-05 -6.53498e-06 -0.0010126)
(2.0357e-05 1.54824e-06 -0.00097793)
(2.03553e-05 -5.8208e-06 -0.00102508)
(1.29869e-05 1.54792e-06 -0.00098554)
(1.29865e-05 -5.82218e-06 -0.00101144)
(1.81477e-05 1.19646e-06 -0.000980428)
(1.81464e-05 -5.1935e-06 -0.00102239)
(1.17569e-05 1.19619e-06 -0.000986794)
(1.17566e-05 -5.19458e-06 -0.00101038)
(1.6181e-05 9.02004e-07 -0.000982635)
(1.618e-05 -4.64053e-06 -0.00102)
(1.06379e-05 9.01782e-07 -0.000987954)
(1.06376e-05 -4.64137e-06 -0.0010094)
(1.44295e-05 6.55647e-07 -0.000984583)
(1.44287e-05 -4.15258e-06 -0.00101787)
(9.62079e-06 6.55462e-07 -0.000989029)
(9.62058e-06 -4.15324e-06 -0.00100851)
(1.28688e-05 4.49184e-07 -0.000986306)
(1.28682e-05 -3.7216e-06 -0.00101596)
(8.69763e-06 4.4903e-07 -0.000990021)
(8.69746e-06 -3.72212e-06 -0.0010077)
(1.14777e-05 2.7651e-07 -0.000987836)
(1.14772e-05 -3.34061e-06 -0.00101427)
(7.86033e-06 2.76383e-07 -0.000990927)
(7.86019e-06 -3.34102e-06 -0.00100696)
(1.02379e-05 1.33063e-07 -0.000989199)
(1.02376e-05 -3.00356e-06 -0.00101276)
(7.10111e-06 1.32957e-07 -0.000991751)
(7.101e-06 -3.00388e-06 -0.00100628)
(9.13304e-06 1.4853e-08 -0.000990412)
(9.13274e-06 -2.70519e-06 -0.00101141)
(6.41283e-06 1.47656e-08 -0.000992501)
(6.41274e-06 -2.70545e-06 -0.00100568)
(8.14844e-06 -8.16336e-08 -0.000991493)
(8.1482e-06 -2.44099e-06 -0.0010102)
(5.78896e-06 -8.17059e-08 -0.000993182)
(5.78888e-06 -2.44119e-06 -0.00100512)
(7.27105e-06 -1.59451e-07 -0.000992454)
(7.27087e-06 -2.2068e-06 -0.00100913)
(5.22361e-06 -1.59511e-07 -0.000993802)
(5.22354e-06 -2.20696e-06 -0.00100462)
(6.48895e-06 -2.21272e-07 -0.00099331)
(6.48881e-06 -1.99845e-06 -0.00100817)
(4.7117e-06 -2.21321e-07 -0.000994365)
(4.71165e-06 -1.99857e-06 -0.00100416)
(5.79158e-06 -2.69431e-07 -0.000994071)
(5.79146e-06 -1.81242e-06 -0.00100732)
(4.24853e-06 -2.69471e-07 -0.000994877)
(4.24849e-06 -1.81252e-06 -0.00100373)
(5.16958e-06 -3.05967e-07 -0.000994748)
(5.16949e-06 -1.64578e-06 -0.00100657)
(3.82972e-06 -3.06001e-07 -0.000995343)
(3.82969e-06 -1.64586e-06 -0.00100335)
(4.61469e-06 -3.32662e-07 -0.000995349)
(4.61462e-06 -1.49607e-06 -0.0010059)
(3.45124e-06 -3.3269e-07 -0.000995766)
(3.45122e-06 -1.49613e-06 -0.001003)
(4.11955e-06 -3.5107e-07 -0.000995884)
(4.11949e-06 -1.3612e-06 -0.0010053)
(3.10939e-06 -3.51093e-07 -0.000996152)
(3.10937e-06 -1.36125e-06 -0.00100268)
(3.67765e-06 -3.62547e-07 -0.000996358)
(3.67761e-06 -1.23941e-06 -0.00100476)
(2.80077e-06 -3.62566e-07 -0.000996502)
(2.80076e-06 -1.23945e-06 -0.0010024)
(3.28321e-06 -3.68273e-07 -0.000996779)
(3.28317e-06 -1.12919e-06 -0.00100428)
(2.52228e-06 -3.68288e-07 -0.00099682)
(2.52226e-06 -1.12922e-06 -0.00100214)
(2.93106e-06 -3.69275e-07 -0.000997152)
(2.93103e-06 -1.02926e-06 -0.00100385)
(2.27106e-06 -3.69288e-07 -0.00099711)
(2.27105e-06 -1.02929e-06 -0.00100191)
(2.61664e-06 -3.66447e-07 -0.000997483)
(2.61662e-06 -9.38531e-07 -0.00100346)
(2.04454e-06 -3.66457e-07 -0.000997374)
(2.04453e-06 -9.38551e-07 -0.0010017)
(2.33585e-06 -3.60561e-07 -0.000997775)
(2.33584e-06 -8.56036e-07 -0.00100311)
(1.84037e-06 -3.6057e-07 -0.000997615)
(1.84036e-06 -8.56051e-07 -0.00100151)
(2.08507e-06 -3.52291e-07 -0.000998034)
(2.08506e-06 -7.80949e-07 -0.0010028)
(1.65641e-06 -3.52298e-07 -0.000997834)
(1.6564e-06 -7.80962e-07 -0.00100134)
(1.86106e-06 -3.42216e-07 -0.000998263)
(1.86105e-06 -7.12545e-07 -0.00100252)
(1.49072e-06 -3.42221e-07 -0.000998033)
(1.49072e-06 -7.12555e-07 -0.00100119)
(1.66091e-06 -3.30842e-07 -0.000998465)
(1.6609e-06 -6.50184e-07 -0.00100227)
(1.34156e-06 -3.30847e-07 -0.000998215)
(1.34156e-06 -6.50191e-07 -0.00100106)
(1.48204e-06 -3.18604e-07 -0.000998645)
(1.48203e-06 -5.93297e-07 -0.00100205)
(1.20734e-06 -3.18608e-07 -0.00099838)
(1.20734e-06 -5.93303e-07 -0.00100094)
(1.32226e-06 -3.05644e-07 -0.000998805)
(1.32225e-06 -5.41377e-07 -0.00100184)
(1.08652e-06 -3.05647e-07 -0.000998528)
(1.08652e-06 -5.41382e-07 -0.00100083)
(1.17962e-06 -2.92048e-07 -0.000998949)
(1.17961e-06 -4.93969e-07 -0.00100166)
(9.77693e-07 -2.92051e-07 -0.000998662)
(9.77691e-07 -4.93973e-07 -0.00100074)
(1.05233e-06 -2.77963e-07 -0.000999077)
(1.05233e-06 -4.50666e-07 -0.00100149)
(8.79628e-07 -2.77966e-07 -0.000998782)
(8.79626e-07 -4.50669e-07 -0.00100065)
(9.38786e-07 -2.63564e-07 -0.00099919)
(9.38783e-07 -4.11101e-07 -0.00100135)
(7.91247e-07 -2.63565e-07 -0.000998892)
(7.91246e-07 -4.11104e-07 -0.00100058)
(8.37517e-07 -2.49023e-07 -0.00099929)
(8.37515e-07 -3.74946e-07 -0.00100121)
(7.11594e-07 -2.49025e-07 -0.000998992)
(7.11593e-07 -3.74948e-07 -0.00100051)
(7.4721e-07 -2.34506e-07 -0.000999378)
(7.47208e-07 -3.41904e-07 -0.00100109)
(6.39812e-07 -2.34507e-07 -0.000999083)
(6.39811e-07 -3.41905e-07 -0.00100045)
(6.66684e-07 -2.20157e-07 -0.000999456)
(6.66683e-07 -3.11707e-07 -0.00100099)
(5.75134e-07 -2.20158e-07 -0.000999166)
(5.75133e-07 -3.11708e-07 -0.0010004)
(5.94885e-07 -2.061e-07 -0.000999524)
(5.94884e-07 -2.84112e-07 -0.00100089)
(5.16872e-07 -2.06101e-07 -0.000999241)
(5.16872e-07 -2.84113e-07 -0.00100035)
(5.30867e-07 -1.92438e-07 -0.000999584)
(5.30867e-07 -2.58901e-07 -0.0010008)
(4.64405e-07 -1.92439e-07 -0.000999311)
(4.64404e-07 -2.58902e-07 -0.00100031)
(4.73791e-07 -1.79254e-07 -0.000999637)
(4.7379e-07 -2.35873e-07 -0.00100072)
(4.17171e-07 -1.79254e-07 -0.000999374)
(4.17171e-07 -2.35873e-07 -0.00100027)
(4.22903e-07 -1.66608e-07 -0.000999683)
(4.22903e-07 -2.14846e-07 -0.00100065)
(3.74665e-07 -1.66609e-07 -0.000999432)
(3.74665e-07 -2.14847e-07 -0.00100024)
(3.77537e-07 -1.54549e-07 -0.000999723)
(3.77536e-07 -1.95656e-07 -0.00100058)
(3.3643e-07 -1.54549e-07 -0.000999485)
(3.36429e-07 -1.95656e-07 -0.00100021)
(3.37095e-07 -1.43105e-07 -0.000999759)
(3.37094e-07 -1.78149e-07 -0.00100053)
(3.02051e-07 -1.43105e-07 -0.000999533)
(3.0205e-07 -1.78149e-07 -0.00100019)
(3.01047e-07 -1.32296e-07 -0.000999789)
(3.01047e-07 -1.62188e-07 -0.00100047)
(2.71155e-07 -1.32296e-07 -0.000999577)
(2.71154e-07 -1.62188e-07 -0.00100017)
(2.68921e-07 -1.22129e-07 -0.000999816)
(2.68921e-07 -1.47646e-07 -0.00100043)
(2.43403e-07 -1.22129e-07 -0.000999617)
(2.43403e-07 -1.47646e-07 -0.00100015)
(2.40297e-07 -1.12603e-07 -0.00099984)
(2.40297e-07 -1.34408e-07 -0.00100038)
(2.18492e-07 -1.12603e-07 -0.000999653)
(2.18492e-07 -1.34408e-07 -0.00100013)
(2.14803e-07 -1.0371e-07 -0.00099986)
(2.14803e-07 -1.22367e-07 -0.00100034)
(1.96146e-07 -1.0371e-07 -0.000999686)
(1.96146e-07 -1.22367e-07 -0.00100011)
(1.92105e-07 -9.54371e-08 -0.000999878)
(1.92105e-07 -1.11427e-07 -0.00100031)
(1.76115e-07 -9.54372e-08 -0.000999716)
(1.76115e-07 -1.11427e-07 -0.0010001)
(1.7191e-07 -8.77661e-08 -0.000999893)
(1.7191e-07 -1.01499e-07 -0.00100028)
(1.58177e-07 -8.77661e-08 -0.000999744)
(1.58176e-07 -1.01499e-07 -0.00100009)
(1.53954e-07 -8.06767e-08 -0.000999907)
(1.53954e-07 -9.25021e-08 -0.00100025)
(1.42129e-07 -8.06767e-08 -0.000999769)
(1.42129e-07 -9.25022e-08 -0.00100007)
(1.38005e-07 -7.41464e-08 -0.000999918)
(1.38005e-07 -8.43616e-08 -0.00100022)
(1.2779e-07 -7.41464e-08 -0.000999792)
(1.2779e-07 -8.43616e-08 -0.00100006)
(1.23857e-07 -6.81516e-08 -0.000999929)
(1.23857e-07 -7.70099e-08 -0.0010002)
(1.14999e-07 -6.81516e-08 -0.000999813)
(1.14999e-07 -7.70099e-08 -0.00100006)
(1.11326e-07 -6.26681e-08 -0.000999938)
(1.11326e-07 -7.03851e-08 -0.00100017)
(1.03609e-07 -6.26681e-08 -0.000999832)
(1.03609e-07 -7.03852e-08 -0.00100005)
(1.00251e-07 -5.76716e-08 -0.000999946)
(1.00251e-07 -6.44309e-08 -0.00100015)
(9.34913e-08 -5.76716e-08 -0.000999849)
(9.34913e-08 -6.44309e-08 -0.00100004)
(9.04866e-08 -5.31384e-08 -0.000999952)
(9.04866e-08 -5.90957e-08 -0.00100014)
(8.45293e-08 -5.31384e-08 -0.000999865)
(8.45292e-08 -5.90957e-08 -0.00100003)
(8.19079e-08 -4.90454e-08 -0.000999959)
(8.19079e-08 -5.43332e-08 -0.00100012)
(7.66201e-08 -4.90454e-08 -0.00099988)
(7.66201e-08 -5.43332e-08 -0.00100003)
(7.44036e-08 -4.53706e-08 -0.000999964)
(7.44036e-08 -5.01014e-08 -0.0010001)
(6.96728e-08 -4.53706e-08 -0.000999894)
(6.96728e-08 -5.01014e-08 -0.00100002)
(6.78763e-08 -4.20931e-08 -0.000999969)
(6.78763e-08 -4.63626e-08 -0.00100009)
(6.36068e-08 -4.20931e-08 -0.000999907)
(6.36068e-08 -4.63626e-08 -0.00100002)
(6.22416e-08 -3.91933e-08 -0.000999974)
(6.22416e-08 -4.3083e-08 -0.00100008)
(5.83519e-08 -3.91933e-08 -0.000999919)
(5.83519e-08 -4.3083e-08 -0.00100002)
(5.74261e-08 -3.66535e-08 -0.000999978)
(5.74261e-08 -4.02327e-08 -0.00100007)
(5.38469e-08 -3.66535e-08 -0.00099993)
(5.38469e-08 -4.02327e-08 -0.00100001)
(5.33671e-08 -3.44572e-08 -0.000999982)
(5.33671e-08 -3.77848e-08 -0.00100006)
(5.00396e-08 -3.44572e-08 -0.000999941)
(5.00396e-08 -3.77848e-08 -0.00100001)
(5.00115e-08 -3.25898e-08 -0.000999986)
(5.00115e-08 -3.57161e-08 -0.00100005)
(4.68852e-08 -3.25898e-08 -0.000999951)
(4.68852e-08 -3.57161e-08 -0.00100001)
(4.73169e-08 -3.10343e-08 -0.000999989)
(4.73169e-08 -3.40075e-08 -0.00100004)
(4.43437e-08 -3.10343e-08 -0.000999961)
(4.43437e-08 -3.40075e-08 -0.00100001)
(4.52536e-08 -2.97682e-08 -0.000999992)
(4.52536e-08 -3.2648e-08 -0.00100003)
(4.23738e-08 -2.97682e-08 -0.00099997)
(4.23738e-08 -3.2648e-08 -0.001)
(4.38502e-08 -2.87367e-08 -0.000999996)
(4.38502e-08 -3.16907e-08 -0.00100002)
(4.08962e-08 -2.87367e-08 -0.00099998)
(4.08962e-08 -3.16907e-08 -0.001)
(4.3155e-08 -2.80029e-08 -0.000999999)
(4.3155e-08 -3.12704e-08 -0.00100001)
(3.98874e-08 -2.80029e-08 -0.000999989)
(3.98874e-08 -3.12704e-08 -0.001)
)
;

boundaryField
{
    inlet
    {
        type            calculated;
        value           nonuniform List<vector> 4((4.3155e-08 -2.80029e-08 -0.000999999) (3.98874e-08 -2.80029e-08 -0.000999989) (4.3155e-08 -3.12704e-08 -0.00100001) (3.98874e-08 -3.12704e-08 -0.001));
    }
    outlet
    {
        type            calculated;
        value           nonuniform List<vector> 4((1.18417e-09 -2.55675e-09 -0.000999979) (1.16407e-09 -2.55675e-09 -0.00100004) (1.18419e-09 -2.57686e-09 -0.000999954) (1.16407e-09 -2.57686e-09 -0.00100002));
    }
    repeat_boundary
    {
        type            calculated;
        value           nonuniform List<vector> 
1440
(
(1.18417e-09 0 -0.000999979)
(2.04086e-09 0 -0.000999978)
(3.20413e-09 0 -0.000999977)
(4.47288e-09 0 -0.000999975)
(5.82217e-09 0 -0.000999974)
(7.24999e-09 0 -0.000999973)
(8.7705e-09 0 -0.000999971)
(1.03991e-08 0 -0.000999969)
(1.2152e-08 0 -0.000999967)
(1.4047e-08 0 -0.000999964)
(1.61034e-08 0 -0.000999961)
(1.83421e-08 0 -0.000999957)
(2.07861e-08 0 -0.000999953)
(2.34602e-08 0 -0.000999948)
(2.63909e-08 0 -0.000999943)
(2.9607e-08 0 -0.000999937)
(3.31391e-08 0 -0.00099993)
(3.702e-08 0 -0.000999922)