/*--------------------------------*- C++ -*----------------------------------*\
  =========                 |
  \\      /  F ield         | OpenFOAM: The Open Source CFD Toolbox
   \\    /   O peration     | Website:  https://openfoam.org
    \\  /    A nd           | Version:  9
     \\/     M anipulation  |
\*---------------------------------------------------------------------------*/
FoamFile
{
    format      ascii;
    class       volVectorField;
    location    "0.002";
    object      U;
}
// * * * * * * * * * * * * * * * * * * * * * * * * * * * * * * * * * * * * * //

dimensions      [0 1 -1 0 0 0 0];

internalField   nonuniform List<vector> 
720
(
(1.14001e-09 -2.78201e-09 -0.000999973)
(1.14002e-09 -2.67997e-09 -0.000999951)
(1.24206e-09 -2.78201e-09 -0.00100004)
(1.24206e-09 -2.67996e-09 -0.00100002)
(1.84754e-09 -5.49838e-09 -0.000999973)
(1.84754e-09 -5.15164e-09 -0.00099995)
(2.19427e-09 -5.49838e-09 -0.00100004)
(2.19427e-09 -5.15165e-09 -0.00100002)
(2.89532e-09 -8.94617e-09 -0.000999972)
(2.8953e-09 -8.34501e-09 -0.000999949)
(3.49647e-09 -8.94618e-09 -0.00100005)
(3.49646e-09 -8.34503e-09 -0.00100002)
(4.06795e-09 -1.26288e-08 -0.000999971)
(4.06794e-09 -1.17885e-08 -0.000999947)
(4.90824e-09 -1.26288e-08 -0.00100005)
(4.90824e-09 -1.17885e-08 -0.00100002)
(5.31878e-09 -1.64814e-08 -0.000999971)
(5.31878e-09 -1.54229e-08 -0.000999945)
(6.37727e-09 -1.64814e-08 -0.00100005)
(6.37727e-09 -1.54229e-08 -0.00100002)
(6.65331e-09 -2.05289e-08 -0.00099997)
(6.65331e-09 -1.92801e-08 -0.000999942)
(7.90217e-09 -2.05289e-08 -0.00100005)
(7.90217e-09 -1.92801e-08 -0.00100002)
(8.08662e-09 -2.48143e-08 -0.000999968)
(8.08662e-09 -2.3407e-08 -0.000999938)
(9.49392e-09 -2.48143e-08 -0.00100006)
(9.49392e-09 -2.3407e-08 -0.00100002)
(9.6359e-09 -2.93857e-08 -0.000999967)
(9.6359e-09 -2.78555e-08 -0.000999934)
(1.11661e-08 -2.93857e-08 -0.00100006)
(1.11661e-08 -2.78555e-08 -0.00100003)
(1.13187e-08 -3.42953e-08 -0.000999965)
(1.13187e-08 -3.26799e-08 -0.000999929)
(1.2934e-08 -3.42953e-08 -0.00100007)
(1.2934e-08 -3.268e-08 -0.00100003)
(1.31526e-08 -3.96e-08 -0.000999962)
(1.31526e-08 -3.79381e-08 -0.000999924)
(1.48145e-08 -3.96e-08 -0.00100007)
(1.48145e-08 -3.79381e-08 -0.00100003)
(1.51558e-08 -4.53619e-08 -0.00099996)
(1.51558e-08 -4.36913e-08 -0.000999917)
(1.68264e-08 -4.5362e-08 -0.00100008)
(1.68264e-08 -4.36913e-08 -0.00100004)
(1.73467e-08 -5.16494e-08 -0.000999956)
(1.73467e-08 -5.00058e-08 -0.00099991)
(1.89903e-08 -5.16494e-08 -0.00100009)
(1.89903e-08 -5.00058e-08 -0.00100004)
(1.97445e-08 -5.85372e-08 -0.000999952)
(1.97445e-08 -5.69526e-08 -0.000999902)
(2.1329e-08 -5.85372e-08 -0.0010001)
(2.1329e-08 -5.69526e-08 -0.00100005)
(2.23692e-08 -6.61078e-08 -0.000999948)
(2.23692e-08 -6.46095e-08 -0.000999892)
(2.38675e-08 -6.61078e-08 -0.00100011)
(2.38675e-08 -6.46095e-08 -0.00100005)
(2.5242e-08 -7.44522e-08 -0.000999942)
(2.5242e-08 -7.3061e-08 -0.000999881)
(2.66332e-08 -7.44522e-08 -0.00100012)
(2.66332e-08 -7.3061e-08 -0.00100006)
(2.83853e-08 -8.36704e-08 -0.000999936)
(2.83853e-08 -8.24e-08 -0.000999869)
(2.96558e-08 -8.36705e-08 -0.00100013)
(2.96558e-08 -8.24e-08 -0.00100007)
(3.18233e-08 -9.38731e-08 -0.000999928)
(3.18233e-08 -9.27287e-08 -0.000999856)
(3.29677e-08 -9.38731e-08 -0.00100014)
(3.29677e-08 -9.27287e-08 -0.00100007)
(3.55819e-08 -1.05182e-07 -0.00099992)
(3.55818e-08 -1.0416e-07 -0.000999841)
(3.66038e-08 -1.05182e-07 -0.00100016)
(3.66038e-08 -1.0416e-07 -0.00100008)
(3.96892e-08 -1.17732e-07 -0.000999911)
(3.96892e-08 -1.16819e-07 -0.000999824)
(4.0602e-08 -1.17732e-07 -0.00100018)
(4.0602e-08 -1.16819e-07 -0.00100009)
(4.41761e-08 -1.3167e-07 -0.0009999)
(4.41761e-08 -1.30844e-07 -0.000999805)
(4.50027e-08 -1.31671e-07 -0.0010002)
(4.50027e-08 -1.30844e-07 -0.0010001)
(4.9076e-08 -1.47162e-07 -0.000999887)
(4.9076e-08 -1.46389e-07 -0.000999784)
(4.98495e-08 -1.47162e-07 -0.00100022)
(4.98494e-08 -1.46389e-07 -0.00100011)
(5.44255e-08 -1.64388e-07 -0.000999873)
(5.44255e-08 -1.63625e-07 -0.000999761)
(5.51889e-08 -1.64388e-07 -0.00100024)
(5.51889e-08 -1.63625e-07 -0.00100013)
(6.02649e-08 -1.83547e-07 -0.000999858)
(6.02649e-08 -1.82741e-07 -0.000999735)
(6.10707e-08 -1.83547e-07 -0.00100026)
(6.10707e-08 -1.82742e-07 -0.00100014)
(6.66378e-08 -2.04861e-07 -0.00099984)
(6.66378e-08 -2.03951e-07 -0.000999706)
(6.7548e-08 -2.04861e-07 -0.00100029)
(6.7548e-08 -2.03951e-07 -0.00100016)
(7.35921e-08 -2.28574e-07 -0.000999821)
(7.35921e-08 -2.27488e-07 -0.000999674)
(7.46776e-08 -2.28574e-07 -0.00100032)
(7.46776e-08 -2.27488e-07 -0.00100017)
(8.11802e-08 -2.54955e-07 -0.000999799)
(8.11801e-08 -2.53615e-07 -0.000999638)
(8.252e-08 -2.54955e-07 -0.00100036)
(8.252e-08 -2.53615e-07 -0.00100019)
(8.94586e-08 -2.84303e-07 -0.000999774)
(8.94586e-08 -2.82622e-07 -0.000999599)
(9.114e-08 -2.84304e-07 -0.0010004)
(9.11399e-08 -2.82622e-07 -0.00100021)
(9.84893e-08 -3.1695e-07 -0.000999746)
(9.84892e-08 -3.14833e-07 -0.000999556)
(1.00607e-07 -3.16951e-07 -0.00100044)
(1.00607e-07 -3.14833e-07 -0.00100024)
(1.08339e-07 -3.53262e-07 -0.000999716)
(1.08339e-07 -3.50607e-07 -0.000999508)
(1.10994e-07 -3.53263e-07 -0.00100049)
(1.10994e-07 -3.50607e-07 -0.00100027)
(1.19079e-07 -3.93646e-07 -0.000999682)
(1.19079e-07 -3.90343e-07 -0.000999455)
(1.22381e-07 -3.93646e-07 -0.00100054)
(1.22381e-07 -3.90344e-07 -0.0010003)
(1.30788e-07 -4.38551e-07 -0.000999644)
(1.30787e-07 -4.34485e-07 -0.000999396)
(1.34853e-07 -4.38551e-07 -0.0010006)
(1.34853e-07 -4.34485e-07 -0.00100033)
(1.43548e-07 -4.88477e-07 -0.000999602)
(1.43548e-07 -4.83523e-07 -0.000999332)
(1.48502e-07 -4.88478e-07 -0.00100066)
(1.48502e-07 -4.83524e-07 -0.00100037)
(1.57449e-07 -5.43979e-07 -0.000999555)
(1.57449e-07 -5.38003e-07 -0.000999261)
(1.63424e-07 -5.4398e-07 -0.00100073)
(1.63424e-07 -5.38005e-07 -0.00100042)
(1.72586e-07 -6.05671e-07 -0.000999502)
(1.72586e-07 -5.98531e-07 -0.000999182)
(1.79726e-07 -6.05673e-07 -0.00100081)
(1.79726e-07 -5.98532e-07 -0.00100047)
(1.89061e-07 -6.74236e-07 -0.000999444)
(1.8906e-07 -6.65775e-07 -0.000999095)
(1.97522e-07 -6.74238e-07 -0.0010009)
(1.97521e-07 -6.65777e-07 -0.00100052)
(2.06981e-07 -7.50431e-07 -0.000999379)
(2.06981e-07 -7.4048e-07 -0.000999)
(2.16932e-07 -7.50434e-07 -0.001001)
(2.16932e-07 -7.40482e-07 -0.00100059)
(2.26463e-07 -8.35097e-07 -0.000999306)
(2.26462e-07 -8.23468e-07 -0.000998894)
(2.38091e-07 -8.351e-07 -0.0010011)
(2.3809e-07 -8.23471e-07 -0.00100066)
(2.47628e-07 -9.29165e-07 -0.000999225)
(2.47627e-07 -9.15652e-07 -0.000998778)
(2.61141e-07 -9.29169e-07 -0.00100122)
(2.6114e-07 -9.15655e-07 -0.00100073)
(2.70605e-07 -1.03367e-06 -0.000999135)
(2.70604e-07 -1.01804e-06 -0.000998649)
(2.86237e-07 -1.03368e-06 -0.00100135)
(2.86236e-07 -1.01804e-06 -0.00100082)
(2.95533e-07 -1.14977e-06 -0.000999034)
(2.95532e-07 -1.13175e-06 -0.000998507)
(3.13547e-07 -1.14977e-06 -0.0010015)
(3.13546e-07 -1.13176e-06 -0.00100092)
(3.22556e-07 -1.27872e-06 -0.000998922)
(3.22555e-07 -1.25802e-06 -0.000998351)
(3.43256e-07 -1.27873e-06 -0.00100166)
(3.43254e-07 -1.25803e-06 -0.00100103)
(3.51829e-07 -1.42196e-06 -0.000998796)
(3.51828e-07 -1.39822e-06 -0.000998178)
(3.75561e-07 -1.42196e-06 -0.00100184)
(3.75559e-07 -1.39823e-06 -0.00100115)
(3.83515e-07 -1.58104e-06 -0.000998656)
(3.83513e-07 -1.55387e-06 -0.000997987)
(4.10681e-07 -1.58105e-06 -0.00100203)
(4.10679e-07 -1.55388e-06 -0.00100129)
(4.17787e-07 -1.7577e-06 -0.0009985)
(4.17784e-07 -1.72664e-06 -0.000997776)
(4.48855e-07 -1.75772e-06 -0.00100225)
(4.48852e-07 -1.72665e-06 -0.00100144)
(4.54826e-07 -1.9539e-06 -0.000998326)
(4.54823e-07 -1.91837e-06 -0.000997543)
(4.90347e-07 -1.95391e-06 -0.00100249)
(4.90343e-07 -1.91839e-06 -0.00100161)
(4.94824e-07 -2.17175e-06 -0.000998131)
(4.9482e-07 -2.13113e-06 -0.000997286)
(5.35446e-07 -2.17178e-06 -0.00100276)
(5.35441e-07 -2.13115e-06 -0.0010018)
(5.37982e-07 -2.41366e-06 -0.000997914)
(5.37978e-07 -2.36717e-06 -0.000997002)
(5.84474e-07 -2.41369e-06 -0.00100305)
(5.84468e-07 -2.36719e-06 -0.00100201)
(5.84512e-07 -2.68226e-06 -0.000997672)
(5.84506e-07 -2.62898e-06 -0.000996689)
(6.37789e-07 -2.68229e-06 -0.00100338)
(6.37781e-07 -2.62901e-06 -0.00100224)
(6.34631e-07 -2.98048e-06 -0.000997402)
(6.34624e-07 -2.91933e-06 -0.000996343)
(6.9579e-07 -2.98053e-06 -0.00100374)
(6.9578e-07 -2.91936e-06 -0.0010025)
(6.88566e-07 -3.31159e-06 -0.000997101)
(6.88557e-07 -3.24124e-06 -0.000995962)
(7.58922e-07 -3.31164e-06 -0.00100413)
(7.5891e-07 -3.24128e-06 -0.00100279)
(7.46546e-07 -3.6792e-06 -0.000996766)
(7.46535e-07 -3.59806e-06 -0.000995541)
(8.27684e-07 -3.67926e-06 -0.00100457)
(8.27669e-07 -3.59812e-06 -0.00100311)
(8.08802e-07 -4.08732e-06 -0.000996392)
(8.08789e-07 -3.99349e-06 -0.000995077)
(9.02636e-07 -4.0874e-06 -0.00100506)
(9.02617e-07 -3.99356e-06 -0.00100346)
(8.75564e-07 -4.54042e-06 -0.000995975)
(8.75548e-07 -4.43158e-06 -0.000994565)
(9.84404e-07 -4.54052e-06 -0.0010056)
(9.84381e-07 -4.43167e-06 -0.00100386)
(9.47051e-07 -5.04344e-06 -0.000995511)
(9.47031e-07 -4.9168e-06 -0.000994001)
(1.07369e-06 -5.04356e-06 -0.0010062)
(1.07367e-06 -4.91691e-06 -0.00100429)
(1.02347e-06 -5.60188e-06 -0.000994993)
(1.02345e-06 -5.45406e-06 -0.000993379)
(1.1713e-06 -5.60204e-06 -0.00100686)
(1.17127e-06 -5.45419e-06 -0.00100477)
(1.105e-06 -6.22187e-06 -0.000994416)
(1.10497e-06 -6.04875e-06 -0.000992695)
(1.27813e-06 -6.22206e-06 -0.00100759)
(1.27808e-06 -6.04892e-06 -0.0010053)
(1.19178e-06 -6.91019e-06 -0.000993773)
(1.19174e-06 -6.70678e-06 -0.000991942)
(1.39521e-06 -6.91044e-06 -0.0010084)
(1.39515e-06 -6.70699e-06 -0.00100589)
(1.2839e-06 -7.67445e-06 -0.000993056)
(1.28386e-06 -7.4346e-06 -0.000991114)
(1.52377e-06 -7.67476e-06 -0.0010093)
(1.5237e-06 -7.43486e-06 -0.00100654)
(1.38138e-06 -8.52313e-06 -0.000992257)
(1.38133e-06 -8.23921e-06 -0.000990204)
(1.66532e-06 -8.52351e-06 -0.0010103)
(1.66523e-06 -8.23954e-06 -0.00100725)
(1.48414e-06 -9.46579e-06 -0.000991366)
(1.48408e-06 -9.12818e-06 -0.000989204)
(1.82177e-06 -9.46626e-06 -0.00101141)
(1.82167e-06 -9.12858e-06 -0.00100803)
(1.59197e-06 -1.05132e-05 -0.000990372)
(1.59188e-06 -1.01096e-05 -0.000988107)
(1.99563e-06 -1.05138e-05 -0.00101264)
(1.99549e-06 -1.01101e-05 -0.00100889)
(1.70446e-06 -1.16772e-05 -0.000989263)
(1.70436e-06 -1.11925e-05 -0.000986904)
(2.18923e-06 -1.16779e-05 -0.00101402)
(2.18906e-06 -1.11931e-05 -0.00100983)
(1.821e-06 -1.29709e-05 -0.000988025)
(1.82088e-06 -1.23866e-05 -0.000985587)
(2.40534e-06 -1.29718e-05 -0.00101554)
(2.40513e-06 -1.23874e-05 -0.00101086)
(1.94068e-06 -1.44091e-05 -0.000986642)
(1.94053e-06 -1.37025e-05 -0.000984147)
(2.6473e-06 -1.44102e-05 -0.00101724)
(2.64704e-06 -1.37035e-05 -0.00101199)
(2.06219e-06 -1.60084e-05 -0.000985096)
(2.06201e-06 -1.51515e-05 -0.000982573)
(2.91912e-06 -1.60098e-05 -0.00101913)
(2.91879e-06 -1.51527e-05 -0.00101322)
(2.18377e-06 -1.77874e-05 -0.000983368)
(2.18355e-06 -1.67457e-05 -0.000980857)
(3.22566e-06 -1.77892e-05 -0.00102124)
(3.22525e-06 -1.67471e-05 -0.00101456)
(2.30306e-06 -1.97672e-05 -0.000981434)
(2.30279e-06 -1.84976e-05 -0.000978988)
(3.57281e-06 -1.97694e-05 -0.00102359)
(3.5723e-06 -1.84994e-05 -0.00101601)
(2.41715e-06 -2.19713e-05 -0.000979272)
(2.41681e-06 -2.04211e-05 -0.000976953)
(3.96765e-06 -2.19741e-05 -0.00102621)
(3.96701e-06 -2.04233e-05 -0.00101758)
(2.52259e-06 -2.44262e-05 -0.000976853)
(2.52218e-06 -2.25304e-05 -0.000974743)
(4.41866e-06 -2.44296e-05 -0.00102915)
(4.41786e-06 -2.25332e-05 -0.00101927)
(2.61449e-06 -2.71617e-05 -0.00097414)
(2.61399e-06 -2.48406e-05 -0.000972352)
(4.93601e-06 -2.7166e-05 -0.00103244)
(4.93501e-06 -2.4844e-05 -0.00102109)
(2.6864e-06 -3.02118e-05 -0.000971094)
(2.68579e-06 -2.73668e-05 -0.000969774)
(5.53189e-06 -3.02172e-05 -0.00103612)
(5.53063e-06 -2.73711e-05 -0.00102303)
(2.73004e-06 -3.3615e-05 -0.000967669)
(2.72929e-06 -3.01248e-05 -0.000967003)
(6.22095e-06 -3.36217e-05 -0.00104025)
(6.21935e-06 -3.01301e-05 -0.0010251)
(2.73483e-06 -3.74149e-05 -0.000963792)
(2.73387e-06 -3.31298e-05 -0.000964023)
(7.02086e-06 -3.74235e-05 -0.00104488)
(7.01875e-06 -3.31366e-05 -0.00102726)
(2.6868e-06 -4.16609e-05 -0.00095937)
(2.68528e-06 -3.63965e-05 -0.000960814)
(7.95284e-06 -4.16728e-05 -0.00105001)
(7.94976e-06 -3.64058e-05 -0.00102948)
(2.56711e-06 -4.64065e-05 -0.000954531)
(2.56256e-06 -3.99348e-05 -0.000957557)
(9.04019e-06 -4.64271e-05 -0.0010559)
(9.03523e-06 -3.99529e-05 -0.00103193)
(2.35023e-06 -5.16978e-05 -0.000950279)
(2.32602e-06 -4.37391e-05 -0.000955207)
(1.02943e-05 -5.17454e-05 -0.00106383)
(1.02865e-05 -4.37939e-05 -0.0010358)
(1.98569e-06 -5.75199e-05 -0.000947112)
(1.84466e-06 -4.77172e-05 -0.000954324)
(1.1645e-05 -5.7611e-05 -0.0010754)
(1.16152e-05 -4.78073e-05 -0.00104174)
(1.26468e-06 -6.34753e-05 -0.000931936)
(5.42855e-07 -5.12215e-05 -0.000943254)
(1.27827e-05 -6.37946e-05 -0.00107917)
(1.27268e-05 -5.17587e-05 -0.00103547)
(-6.2679e-07 -6.7097e-05 -0.000874315)
(-3.59277e-06 -5.10416e-05 -0.000889113)
(1.24537e-05 -6.82607e-05 -0.00104315)
(1.25246e-05 -5.34468e-05 -0.000977795)
(-4.34937e-06 -5.97481e-05 -0.000687331)
(-1.33082e-05 -3.77958e-05 -0.000732627)
(8.98002e-06 -6.23582e-05 -0.000771343)
(1.03292e-05 -4.61977e-05 -0.000782067)
(-3.6441e-07 -1.33797e-05 -0.00319509)
(-2.22598e-05 3.50733e-06 -0.00274017)
(-1.56828e-06 -1.55209e-05 -0.00364009)
(3.45445e-06 -2.2189e-05 -0.00348504)
(3.09899e-05 -5.00829e-06 3.72507e-05)
(2.66129e-05 -2.0517e-05 8.93246e-06)
(6.343e-06 2.84578e-06 4.12946e-05)
(9.54059e-06 -4.70444e-05 2.76486e-05)
(0.00020788 4.84896e-06 -0.00386267)
(0.000201297 -0.00025451 -0.0029097)
(-6.51469e-05 9.81839e-07 -0.00428114)
(-5.15534e-05 -0.000262992 -0.00440722)
(2.37555e-05 -1.58175e-05 -2.90784e-05)
(7.18317e-05 -9.05161e-05 -0.00323538)
(1.97809e-06 -3.7093e-06 -0.000444826)
(1.85977e-05 -3.64853e-05 -8.6326e-07)
(-0.000462617 -0.000245429 -0.00306264)
(-2.14009e-05 5.90808e-06 -0.000861467)
(7.69574e-05 -0.000140818 -0.0039591)
(0.000129823 0.000308705 -0.00540383)
(-0.000531828 -0.000293566 -0.00264197)
(-0.000544542 0.000257992 -0.00454619)
(1.24522e-05 -0.000221291 -0.00420583)
(3.24579e-05 -4.70013e-06 -7.94682e-05)
(-6.01232e-05 -8.32928e-05 -0.000588933)
(-4.34118e-05 2.40875e-06 -0.000311942)
(3.09198e-05 -7.9104e-05 -0.000802996)
(0.0002836 0.000343961 -0.00543246)
(-0.000149367 -0.000182826 -0.00523608)
(-0.000363454 0.000269292 -0.0033115)
(0.000281154 -0.000371944 -0.0046937)
(3.50586e-05 -2.56842e-06 -0.000392378)
(1.33248e-05 -1.74708e-05 -0.000254011)
(8.76831e-05 -0.00014495 -0.00190213)
(-7.977e-05 4.09678e-05 -0.00128998)
(-0.000108886 -0.000169277 -0.00474224)
(0.000341485 0.000340598 -0.00466552)
(0.000342875 -0.000145535 -0.00343886)
(-0.000332868 0.00084772 -0.0029124)
(-9.2777e-05 -0.000106449 -0.00138629)
(0.000247015 0.00049543 -0.00177672)
(0.000110834 -1.26747e-05 -0.00190439)
(-0.000402677 0.00102871 -0.00316524)
(-0.00034386 7.40472e-05 -0.00571119)
(9.81478e-05 0.00100183 -0.00341835)
(4.57828e-05 2.54035e-05 -0.00390348)
(-0.00020339 0.000263209 -0.000774047)
(2.84426e-05 -1.50437e-05 0.000162502)
(-2.11319e-05 0.000127528 -0.000347063)
(-1.96262e-05 6.24705e-05 -0.00120665)
(-0.000999805 0.00145803 -0.00290799)
(-0.00133496 0.000931337 -0.0048816)
(-0.000119304 0.00150506 -0.00339804)
(-0.000100119 0.000586553 -0.0044821)
(-0.000339657 0.000480457 -0.00279608)
(-0.000130448 4.96063e-05 -0.000446882)
(-0.000183501 0.000429366 -0.00299188)
(-1.88926e-05 -7.03991e-06 8.18763e-05)
(2.69201e-05 -9.12419e-06 0.000132179)
(-0.00032574 0.000385278 -0.00460336)
(-0.000104658 -5.84149e-05 -0.00113309)
(-0.000289171 0.000546912 -0.0047651)
(0.00013696 -5.40408e-05 -0.00547547)
(0.00011735 0.000169151 -0.00128634)
(-0.00047147 -0.00102512 -0.00384439)
(-0.000192379 0.000248845 -0.00187398)
(8.89033e-05 -6.30083e-05 -0.000498508)
(0.000658107 0.000355111 -0.00326036)
(-0.000109345 -0.000216304 -0.000986203)
(-0.000245811 0.000290041 -0.00222854)
(0.000807414 -0.000707884 -0.00281938)
(0.000620024 0.000315383 -0.00267899)
(-0.000167608 -0.000405924 -0.00351385)
(-0.000215494 0.000337808 -0.00368009)
(0.00066343 -0.000539021 -0.00184337)
(0.000343957 0.000163385 -0.00479812)
(-0.000127316 -0.000225354 -0.00198595)
(-0.000102538 -7.27366e-05 -0.0019701)
(1.69343e-05 -0.000350981 -0.00143867)
(-1.27667e-05 -5.2584e-05 -0.000984782)
(-0.000227618 -0.000203284 -0.00275799)
(-0.000256387 -8.41089e-05 -0.00283262)
(-0.000257428 -0.000402756 -0.00237667)
(-0.000218839 -0.000118918 -0.00311472)
(-0.000140972 -0.000101195 -0.00250303)
(-0.000400676 -9.1426e-05 -0.00264739)
(-0.00014664 -0.000164513 -0.00188007)
(-0.000271379 -9.62175e-05 -0.00133947)
(-2.64052e-05 -1.5021e-05 -0.00148629)
(-8.00888e-05 -6.60381e-05 -0.00180791)
(-6.41049e-05 -3.44827e-05 -0.001829)
(-0.000270162 -0.000121635 -0.00160915)
(2.17812e-05 4.32735e-05 -0.00176395)
(4.75171e-05 -2.95987e-05 -0.00172946)
(-6.05408e-06 1.36936e-05 -0.00159904)
(-7.61509e-05 -7.27717e-05 -0.00117335)
(3.84917e-05 1.49207e-05 -0.000810769)
(7.52492e-05 -2.01672e-05 -0.00139742)
(3.98808e-05 2.80748e-05 -0.00122761)
(2.38753e-05 -5.76191e-05 -0.00118631)
(9.66707e-05 2.50143e-05 -0.000957244)
(0.000103522 -2.713e-05 -0.00124223)
(6.35507e-05 3.05032e-05 -0.00104537)
(5.50471e-05 -4.34265e-05 -0.00105581)
(0.000102965 1.78084e-05 -0.000884623)
(0.000104074 -3.22752e-05 -0.00113936)
(5.75345e-05 1.92223e-05 -0.000920964)
(5.52761e-05 -3.68181e-05 -0.00103268)
(9.53213e-05 1.35407e-05 -0.000892085)
(9.54076e-05 -3.14829e-05 -0.00111722)
(5.1039e-05 1.38043e-05 -0.000930971)
(5.06185e-05 -3.24266e-05 -0.0010348)
(8.548e-05 1.10388e-05 -0.000908032)
(8.54507e-05 -2.83718e-05 -0.00110872)
(4.61449e-05 1.10786e-05 -0.000945624)
(4.60765e-05 -2.85487e-05 -0.00103442)
(7.6184e-05 9.1969e-06 -0.000919373)
(7.61537e-05 -2.50279e-05 -0.00109794)
(4.19476e-05 9.19972e-06 -0.000951854)
(4.19364e-05 -2.5071e-05 -0.00103188)
(6.78379e-05 7.6894e-06 -0.000928252)
(6.78143e-05 -2.20074e-05 -0.00108701)
(3.81243e-05 7.68784e-06 -0.000955838)
(3.81208e-05 -2.20273e-05 -0.00102926)
(6.04082e-05 6.41196e-06 -0.000936153)
(6.03899e-05 -1.93604e-05 -0.00107729)
(3.46222e-05 6.41024e-06 -0.000959665)
(3.46199e-05 -1.93741e-05 -0.00102689)
(5.38008e-05 5.32171e-06 -0.000943249)
(5.37866e-05 -1.70459e-05 -0.00106876)
(3.14227e-05 5.32025e-06 -0.000963294)
(3.14208e-05 -1.70563e-05 -0.00102469)
(4.79243e-05 4.39236e-06 -0.000949567)
(4.79133e-05 -1.50207e-05 -0.0010612)
(2.85032e-05 4.39115e-06 -0.000966615)
(2.85016e-05 -1.50288e-05 -0.00102262)
(4.26969e-05 3.6023e-06 -0.000955182)
(4.26884e-05 -1.32474e-05 -0.00105449)
(2.5841e-05 3.6013e-06 -0.00096964)
(2.58397e-05 -1.32537e-05 -0.0010207)
(3.80462e-05 2.93254e-06 -0.000960173)
(3.80395e-05 -1.16936e-05 -0.00104853)
(2.34154e-05 2.93171e-06 -0.000972398)
(2.34143e-05 -1.16984e-05 -0.00101891)
(3.39078e-05 2.36641e-06 -0.000964609)
(3.39026e-05 -1.03309e-05 -0.00104324)
(2.12069e-05 2.36573e-06 -0.000974913)
(2.1206e-05 -1.03347e-05 -0.00101725)
(3.02245e-05 1.88943e-06 -0.000968552)
(3.02205e-05 -9.13485e-06 -0.00103854)
(1.91975e-05 1.88886e-06 -0.000977206)
(1.91968e-05 -9.13781e-06 -0.00101571)
(2.69458e-05 1.48892e-06 -0.000972054)
(2.69427e-05 -8.08424e-06 -0.00103436)
(1.73706e-05 1.48845e-06 -0.000979296)
(1.73699e-05 -8.08655e-06 -0.0010143)
(2.40267e-05 1.15388e-06 -0.000975166)
(2.40242e-05 -7.1606e-06 -0.00103064)
(1.57106e-05 1.15349e-06 -0.000981202)
(1.571e-05 -7.16241e-06 -0.001013)
(2.14271e-05 8.74737e-07 -0.00097793)
(2.14252e-05 -6.34791e-06 -0.00102733)
(1.42032e-05 8.74411e-07 -0.000982938)
(1.42028e-05 -6.34932e-06 -0.0010118)
(1.91117e-05 6.43158e-07 -0.000980384)
(1.91102e-05 -5.63226e-06 -0.00102439)
(1.28353e-05 6.42888e-07 -0.000984519)
(1.2835e-05 -5.63336e-06 -0.00101071)
(1.7049e-05 4.51911e-07 -0.000982562)
(1.70478e-05 -5.00154e-06 -0.00102177)
(1.15948e-05 4.51686e-07 -0.00098596)
(1.15945e-05 -5.0024e-06 -0.0010097)
(1.52109e-05 2.94711e-07 -0.000984495)
(1.521e-05 -4.44523e-06 -0.00101943)
(1.04704e-05 2.94525e-07 -0.000987273)
(1.04702e-05 -4.44591e-06 -0.00100879)
(1.35726e-05 1.66124e-07 -0.000986212)
(1.35719e-05 -3.95414e-06 -0.00101735)
(9.45195e-06 1.65969e-07 -0.000988468)
(9.45175e-06 -3.95468e-06 -0.00100795)
(1.21122e-05 6.1706e-08 -0.000987737)
(1.21116e-05 -3.52028e-06 -0.0010155)
(8.52989e-06 6.1578e-08 -0.000989553)
(8.52972e-06 -3.5207e-06 -0.00100719)
(1.08101e-05 -2.23236e-08 -0.000989092)
(1.08096e-05 -3.13665e-06 -0.00101385)
(7.6955e-06 -2.24295e-08 -0.00099054)
(7.69536e-06 -3.13698e-06 -0.0010065)
(9.64879e-06 -8.93722e-08 -0.000990293)
(9.64844e-06 -2.79712e-06 -0.00101238)
(6.94085e-06 -8.94598e-08 -0.000991438)
(6.94074e-06 -2.79738e-06 -0.00100586)
(8.61274e-06 -1.42577e-07 -0.000991359)
(8.61246e-06 -2.49632e-06 -0.00101106)
(6.25885e-06 -1.42649e-07 -0.000992256)
(6.25876e-06 -2.49652e-06 -0.00100529)
(7.68811e-06 -1.84417e-07 -0.000992306)
(7.68789e-06 -2.22951e-06 -0.00100989)
(5.64291e-06 -1.84477e-07 -0.000992998)
(5.64283e-06 -2.22967e-06 -0.00100477)
(6.86284e-06 -2.16647e-07 -0.000993151)
(6.86267e-06 -1.99263e-06 -0.00100884)
(5.08678e-06 -2.16696e-07 -0.00099367)
(5.08671e-06 -1.99275e-06 -0.0010043)
(6.12623e-06 -2.40777e-07 -0.000993903)
(6.1261e-06 -1.78222e-06 -0.00100791)
(4.58473e-06 -2.40818e-07 -0.000994277)
(4.58468e-06 -1.78232e-06 -0.00100387)
(5.4688e-06 -2.58116e-07 -0.000994573)
(5.4687e-06 -1.59531e-06 -0.00100707)
(4.13156e-06 -2.5815e-07 -0.000994826)
(4.13152e-06 -1.59539e-06 -0.00100349)
(4.88207e-06 -2.69791e-07 -0.000995171)
(4.88199e-06 -1.42932e-06 -0.00100633)
(3.72251e-06 -2.69819e-07 -0.000995323)
(3.72248e-06 -1.42938e-06 -0.00100314)
(4.35849e-06 -2.7677e-07 -0.000995703)
(4.35843e-06 -1.28193e-06 -0.00100566)
(3.3533e-06 -2.76793e-07 -0.000995773)
(3.35327e-06 -1.28198e-06 -0.00100283)
(3.89129e-06 -2.79881e-07 -0.000996177)
(3.89124e-06 -1.1511e-06 -0.00100506)
(3.02006e-06 -2.799e-07 -0.00099618)
(3.02003e-06 -1.15114e-06 -0.00100255)
(3.47443e-06 -2.79833e-07 -0.0009966)
(3.47439e-06 -1.03495e-06 -0.00100452)
(2.7193e-06 -2.79848e-07 -0.000996548)
(2.71928e-06 -1.03498e-06 -0.00100229)
(3.10248e-06 -2.77228e-07 -0.000996976)
(3.10245e-06 -9.318e-07 -0.00100405)
(2.4479e-06 -2.7724e-07 -0.00099688)
(2.44788e-06 -9.31826e-07 -0.00100207)
(2.77061e-06 -2.72576e-07 -0.000997312)
(2.77058e-06 -8.4014e-07 -0.00100362)
(2.20303e-06 -2.72586e-07 -0.000997181)
(2.20302e-06 -8.4016e-07 -0.00100186)
(2.47446e-06 -2.6631e-07 -0.00099761)
(2.47444e-06 -7.586e-07 -0.00100324)
(1.98216e-06 -2.66318e-07 -0.000997453)
(1.98215e-06 -7.58616e-07 -0.00100167)
(2.21017e-06 -2.58795e-07 -0.000997876)
(2.21015e-06 -6.85962e-07 -0.0010029)
(1.78299e-06 -2.58802e-07 -0.000997699)
(1.78299e-06 -6.85975e-07 -0.0010015)
(1.97427e-06 -2.50336e-07 -0.000998113)
(1.97426e-06 -6.21146e-07 -0.0010026)
(1.60346e-06 -2.50342e-07 -0.000997921)
(1.60345e-06 -6.21156e-07 -0.00100135)
(1.76368e-06 -2.41193e-07 -0.000998324)
(1.76367e-06 -5.63198e-07 -0.00100233)
(1.44167e-06 -2.41197e-07 -0.000998122)
(1.44167e-06 -5.63206e-07 -0.00100121)
(1.57565e-06 -2.31575e-07 -0.000998511)
(1.57565e-06 -5.11286e-07 -0.00100209)
(1.29594e-06 -2.31579e-07 -0.000998303)
(1.29594e-06 -5.11292e-07 -0.00100108)
(1.40774e-06 -2.21662e-07 -0.000998678)
(1.40773e-06 -4.64682e-07 -0.00100187)
(1.16472e-06 -2.21665e-07 -0.000998467)
(1.16471e-06 -4.64687e-07 -0.00100097)
(1.25776e-06 -2.11599e-07 -0.000998826)
(1.25776e-06 -4.22756e-07 -0.00100168)
(1.0466e-06 -2.11602e-07 -0.000998614)
(1.0466e-06 -4.2276e-07 -0.00100087)
(1.12378e-06 -2.0151e-07 -0.000998958)
(1.12378e-06 -3.84962e-07 -0.00100151)
(9.40327e-07 -2.01512e-07 -0.000998748)
(9.40324e-07 -3.84965e-07 -0.00100077)
(1.00407e-06 -1.91502e-07 -0.000999075)
(1.00406e-06 -3.50826e-07 -0.00100135)
(8.4474e-07 -1.91503e-07 -0.000998868)
(8.44738e-07 -3.50829e-07 -0.00100069)
(8.97078e-07 -1.81667e-07 -0.000999179)
(8.97076e-07 -3.1994e-07 -0.00100121)
(7.58804e-07 -1.81668e-07 -0.000998977)
(7.58803e-07 -3.19942e-07 -0.00100062)
(8.01442e-07 -1.72086e-07 -0.000999271)
(8.0144e-07 -2.91947e-07 -0.00100109)
(6.81581e-07 -1.72087e-07 -0.000999076)
(6.8158e-07 -2.91949e-07 -0.00100055)
(7.15931e-07 -1.62832e-07 -0.000999353)
(7.15929e-07 -2.66538e-07 -0.00100098)
(6.12224e-07 -1.62833e-07 -0.000999165)
(6.12223e-07 -2.6654e-07 -0.00100049)
(6.39489e-07 -1.53882e-07 -0.000999427)
(6.39488e-07 -2.43443e-07 -0.00100088)
(5.49928e-07 -1.53882e-07 -0.000999245)
(5.49927e-07 -2.43444e-07 -0.00100043)
(5.71191e-07 -1.45187e-07 -0.000999493)
(5.7119e-07 -2.22423e-07 -0.00100079)
(4.93954e-07 -1.45187e-07 -0.000999316)
(4.93953e-07 -2.22424e-07 -0.00100038)
(5.10193e-07 -1.36727e-07 -0.000999552)
(5.10192e-07 -2.03272e-07 -0.00100071)
(4.43649e-07 -1.36728e-07 -0.000999381)
(4.43648e-07 -2.03272e-07 -0.00100034)
(4.55735e-07 -1.28505e-07 -0.000999605)
(4.55735e-07 -1.85805e-07 -0.00100064)
(3.98435e-07 -1.28505e-07 -0.000999439)
(3.98435e-07 -1.85805e-07 -0.0010003)
(4.0713e-07 -1.20534e-07 -0.000999652)
(4.0713e-07 -1.69862e-07 -0.00100058)
(3.57802e-07 -1.20534e-07 -0.000999492)
(3.57802e-07 -1.69862e-07 -0.00100027)
(3.63759e-07 -1.12834e-07 -0.000999694)
(3.63759e-07 -1.55301e-07 -0.00100052)
(3.21292e-07 -1.12834e-07 -0.00099954)
(3.21292e-07 -1.55301e-07 -0.00100024)
(3.25066e-07 -1.05428e-07 -0.000999731)
(3.25066e-07 -1.41995e-07 -0.00100047)
(2.88499e-07 -1.05428e-07 -0.000999583)
(2.88498e-07 -1.41995e-07 -0.00100021)
(2.90553e-07 -9.83372e-08 -0.000999764)
(2.90553e-07 -1.29834e-07 -0.00100042)
(2.59057e-07 -9.83374e-08 -0.000999623)
(2.59057e-07 -1.29834e-07 -0.00100018)
(2.59776e-07 -9.15804e-08 -0.000999794)
(2.59776e-07 -1.18716e-07 -0.00100038)
(2.3264e-07 -9.15806e-08 -0.00099966)
(2.3264e-07 -1.18716e-07 -0.00100016)
(2.32337e-07 -8.51726e-08 -0.00099982)
(2.32337e-07 -1.08554e-07 -0.00100034)
(2.08955e-07 -8.51727e-08 -0.000999693)
(2.08955e-07 -1.08555e-07 -0.00100014)
(2.07882e-07 -7.91246e-08 -0.000999843)
(2.07882e-07 -9.92687e-08 -0.00100031)
(1.87738e-07 -7.91247e-08 -0.000999724)
(1.87738e-07 -9.92688e-08 -0.00100013)
(1.86096e-07 -7.34431e-08 -0.000999864)
(1.86096e-07 -9.0788e-08 -0.00100028)
(1.68751e-07 -7.34431e-08 -0.000999752)
(1.68751e-07 -9.07881e-08 -0.00100011)
(1.66699e-07 -6.81307e-08 -0.000999882)
(1.66699e-07 -8.30487e-08 -0.00100025)
(1.51781e-07 -6.81308e-08 -0.000999778)
(1.51781e-07 -8.30487e-08 -0.0010001)
(1.49443e-07 -6.31867e-08 -0.000999898)
(1.49443e-07 -7.59936e-08 -0.00100023)
(1.36636e-07 -6.31867e-08 -0.000999801)
(1.36636e-07 -7.59937e-08 -0.00100009)
(1.34107e-07 -5.86069e-08 -0.000999912)
(1.34107e-07 -6.95717e-08 -0.0010002)
(1.23142e-07 -5.86069e-08 -0.000999823)
(1.23142e-07 -6.95718e-08 -0.00100008)
(1.20497e-07 -5.43847e-08 -0.000999925)
(1.20497e-07 -6.37369e-08 -0.00100018)
(1.11145e-07 -5.43847e-08 -0.000999843)
(1.11145e-07 -6.37369e-08 -0.00100007)
(1.08441e-07 -5.05114e-08 -0.000999936)
(1.08441e-07 -5.84479e-08 -0.00100016)
(1.00504e-07 -5.05114e-08 -0.000999861)
(1.00504e-07 -5.84479e-08 -0.00100006)
(9.77877e-08 -4.69765e-08 -0.000999946)
(9.77877e-08 -5.36676e-08 -0.00100015)
(9.10966e-08 -4.69765e-08 -0.000999877)
(9.10966e-08 -5.36676e-08 -0.00100006)
(8.84043e-08 -4.37683e-08 -0.000999954)
(8.84043e-08 -4.9363e-08 -0.00100013)
(8.28096e-08 -4.37683e-08 -0.000999892)
(8.28096e-08 -4.9363e-08 -0.00100005)
(8.01744e-08 -4.08745e-08 -0.000999962)
(8.01744e-08 -4.55044e-08 -0.00100012)
(7.55444e-08 -4.08745e-08 -0.000999906)
(7.55444e-08 -4.55045e-08 -0.00100004)
(7.29968e-08 -3.82821e-08 -0.000999968)
(7.29968e-08 -4.20658e-08 -0.0010001)
(6.92131e-08 -3.82821e-08 -0.000999919)
(6.92131e-08 -4.20658e-08 -0.00100004)
(6.67839e-08 -3.5978e-08 -0.000999974)
(6.67839e-08 -3.90237e-08 -0.00100009)
(6.37383e-08 -3.59781e-08 -0.00099993)
(6.37383e-08 -3.90237e-08 -0.00100003)
(6.14602e-08 -3.39495e-08 -0.000999979)
(6.14602e-08 -3.63575e-08 -0.00100008)
(5.90522e-08 -3.39495e-08 -0.00099994)
(5.90522e-08 -3.63575e-08 -0.00100003)
(5.69613e-08 -3.21842e-08 -0.000999983)
(5.69613e-08 -3.40491e-08 -0.00100007)
(5.50963e-08 -3.21842e-08 -0.00099995)
(5.50963e-08 -3.40491e-08 -0.00100002)
(5.32333e-08 -3.06698e-08 -0.000999987)
(5.32333e-08 -3.20826e-08 -0.00100005)
(5.18205e-08 -3.06698e-08 -0.000999959)
(5.18205e-08 -3.20826e-08 -0.00100002)
(5.02329e-08 -2.93915e-08 -0.00099999)
(5.02329e-08 -3.04449e-08 -0.00100004)
(4.91795e-08 -2.93915e-08 -0.000999967)
(4.91795e-08 -3.04449e-08 -0.00100001)
(4.79338e-08 -2.83244e-08 -0.000999993)
(4.79338e-08 -2.91342e-08 -0.00100003)
(4.7124e-08 -2.83244e-08 -0.000999975)
(4.7124e-08 -2.91342e-08 -0.00100001)
(4.63558e-08 -2.74278e-08 -0.000999996)
(4.63558e-08 -2.82014e-08 -0.00100002)
(4.55822e-08 -2.74278e-08 -0.000999982)
(4.55822e-08 -2.82014e-08 -0.00100001)
(4.55605e-08 -2.67747e-08 -0.000999999)
(4.55605e-08 -2.78001e-08 -0.00100001)
(4.45351e-08 -2.67747e-08 -0.000999989)
(4.45351e-08 -2.78001e-08 -0.001)
)
;

boundaryField
{
    inlet
    {
        type            zeroGradient;
    }
    outlet
    {
        type            zeroGradient;
    }
    repeat_boundary
    {
        type            slip;
    }
}


// ************************************************************************* //
