/*--------------------------------*- C++ -*----------------------------------*\
| =========                 |                                                 |
| \\      /  F ield         | OpenFOAM: The Open Source CFD Toolbox           |
|  \\    /   O peration     | Version:  5.x                                   |
|   \\  /    A nd           | Web:      www.OpenFOAM.org                      |
|    \\/     M anipulation  |                                                 |
\*---------------------------------------------------------------------------*/
FoamFile
{
    version     2.0;
    format      ascii;
    class       volVectorField;
    location    "1000";
    object      stored_U;
}
// * * * * * * * * * * * * * * * * * * * * * * * * * * * * * * * * * * * * * //

dimensions      [0 1 -1 0 0 0 0];

internalField   nonuniform List<vector> 
90
(
(4.09082e-09 -4.26634e-09 -0.00100001)
(6.6362e-09 -6.98341e-09 -0.00100001)
(9.94352e-09 -1.03864e-08 -0.00100001)
(1.38058e-08 -1.41733e-08 -0.00100001)
(1.83694e-08 -1.8387e-08 -0.00100001)
(2.38787e-08 -2.31222e-08 -0.00100001)
(3.06469e-08 -2.84765e-08 -0.00100001)
(3.90705e-08 -3.45411e-08 -0.00100001)
(4.96521e-08 -4.13947e-08 -0.00100001)
(6.30323e-08 -4.9095e-08 -0.001)
(8.00291e-08 -5.76668e-08 -0.001)
(1.01692e-07 -6.70837e-08 -0.000999995)
(1.29373e-07 -7.72423e-08 -0.000999986)
(1.64816e-07 -8.79287e-08 -0.000999972)
(2.1028e-07 -9.87245e-08 -0.000999952)
(2.68697e-07 -1.08924e-07 -0.000999924)
(3.43882e-07 -1.17428e-07 -0.000999883)
(4.4081e-07 -1.22569e-07 -0.000999826)
(5.65977e-07 -1.21877e-07 -0.000999746)
(7.27879e-07 -1.11748e-07 -0.000999635)
(9.37631e-07 -8.70193e-08 -0.00099948)
(1.20974e-06 -4.04679e-08 -0.000999268)
(1.56312e-06 3.78626e-08 -0.000998977)
(2.02295e-06 1.62701e-07 -0.000998578)
(2.62162e-06 3.53072e-07 -0.000998037)
(3.40183e-06 6.357e-07 -0.000997302)
(4.41968e-06 1.04734e-06 -0.000996306)
(5.74879e-06 1.63817e-06 -0.000994959)
(7.48584e-06 2.4764e-06 -0.000993138)
(9.75815e-06 3.6546e-06 -0.000990672)
(1.27343e-05 5.29855e-06 -0.000987335)
(1.66404e-05 7.58012e-06 -0.000982954)
(2.17853e-05 1.07396e-05 -0.000977533)
(2.85667e-05 1.51132e-05 -0.000970195)
(3.7253e-05 2.10271e-05 -0.000955032)
(4.58114e-05 2.73416e-05 -0.000926097)
(5.00643e-05 3.15184e-05 -0.000917891)
(4.71283e-05 3.21409e-05 -0.0011012)
(3.08377e-05 2.37982e-05 -0.000296514)
(-8.86598e-05 -5.55576e-05 -0.00210271)
(3.56015e-06 1.26509e-07 -0.00158102)
(3.97621e-05 3.59725e-06 -0.0016195)
(6.34421e-05 3.36666e-05 -0.0028906)
(2.27681e-06 -7.9081e-06 -0.00151852)
(-6.19278e-05 -5.92616e-05 -0.00277559)
(-4.75564e-05 -2.63481e-05 -0.0020004)
(-4.86429e-05 6.97739e-05 -0.00253248)
(-3.97148e-05 4.66399e-05 -0.00200145)
(-3.66644e-05 9.29143e-06 -0.00268649)
(-4.25735e-05 -5.82073e-05 -0.00163397)
(-7.80911e-05 -6.56617e-05 -0.00277561)
(-2.41861e-05 -5.08928e-05 -0.00112609)
(-7.32708e-05 -7.06462e-05 -0.00200359)
(1.09367e-05 -4.09596e-05 -0.00109338)
(-2.02413e-05 -4.57991e-05 -0.000943031)
(-1.36018e-05 -3.9896e-05 -0.000954672)
(-8.35166e-06 -3.18695e-05 -0.000976288)
(-4.93193e-06 -2.46085e-05 -0.000983961)
(-2.71608e-06 -1.89446e-05 -0.000988366)
(-1.22186e-06 -1.45877e-05 -0.000991674)
(-2.37499e-07 -1.12473e-05 -0.000994162)
(3.85885e-07 -8.68395e-06 -0.000995969)
(7.57737e-07 -6.71393e-06 -0.000997267)
(9.56753e-07 -5.19771e-06 -0.000998195)
(1.03929e-06 -4.02924e-06 -0.000998853)
(1.0456e-06 -3.12761e-06 -0.000999312)
(1.00412e-06 -2.43102e-06 -0.000999629)
(9.34626e-07 -1.89219e-06 -0.000999842)
(8.5065e-07 -1.47489e-06 -0.000999982)
(7.61274e-07 -1.15132e-06 -0.00100007)
(6.72412e-07 -9.00135e-07 -0.00100012)
(5.87727e-07 -7.04882e-07 -0.00100015)
(5.09268e-07 -5.52902e-07 -0.00100016)
(4.38007e-07 -4.34443e-07 -0.00100016)
(3.74344e-07 -3.41988e-07 -0.00100015)
(3.18267e-07 -2.69737e-07 -0.00100014)
(2.69456e-07 -2.13197e-07 -0.00100013)
(2.27375e-07 -1.68885e-07 -0.00100011)
(1.91367e-07 -1.34093e-07 -0.0010001)
(1.60782e-07 -1.06717e-07 -0.00100009)
(1.34971e-07 -8.51261e-08 -0.00100008)
(1.13328e-07 -6.80553e-08 -0.00100007)
(9.52998e-08 -5.45313e-08 -0.00100006)
(8.0388e-08 -4.38075e-08 -0.00100005)
(6.8148e-08 -3.5314e-08 -0.00100004)
(5.81805e-08 -2.86134e-08 -0.00100003)
(5.01082e-08 -2.33529e-08 -0.00100003)
(4.35821e-08 -1.92291e-08 -0.00100002)
(3.86783e-08 -1.61707e-08 -0.00100002)
(3.6704e-08 -1.49082e-08 -0.00100001)
)
;

boundaryField
{
    inlet
    {
        type            calculated;
        value           uniform (3.6704e-08 -1.49082e-08 -0.00100001);
    }
    outlet
    {
        type            calculated;
        value           uniform (4.09082e-09 -4.26634e-09 -0.00100001);
    }
    repeat_boundary
    {
        type            calculated;
        value           nonuniform List<vector> 
180
(
(0 -4.26634e-09 -0.00100001)
(0 -6.98341e-09 -0.00100001)
(0 -1.03864e-08 -0.00100001)
(0 -1.41733e-08 -0.00100001)
(0 -1.8387e-08 -0.00100001)
(0 -2.31222e-08 -0.00100001)
(0 -2.84765e-08 -0.00100001)
(0 -3.45411e-08 -0.00100001)
(0 -4.13947e-08 -0.00100001)
(0 -4.9095e-08 -0.001)
(0 -5.76668e-08 -0.001)
(0 -6.70837e-08 -0.000999995)
(0 -7.72423e-08 -0.000999986)
(0 -8.79287e-08 -0.000999972)
(0 -9.87245e-08 -0.000999952)
(0 -1.08924e-07 -0.000999924)
(0 -1.17428e-07 -0.000999883)
(0 -1.22569e-07 -0.000999826)
(0 -1.21877e-07 -0.000999746)
(0 -1.11748e-07 -0.000999635)
(0 -8.70193e-08 -0.00099948)
(0 -4.04679e-08 -0.000999268)
(0 3.78626e-08 -0.000998977)
(0 1.62701e-07 -0.000998578)
(0 3.53072e-07 -0.000998037)
(0 6.357e-07 -0.000997302)
(0 1.04734e-06 -0.000996306)
(0 1.63817e-06 -0.000994959)
(0 2.4764e-06 -0.000993138)
(0 3.6546e-06 -0.000990672)
(0 5.29855e-06 -0.000987335)
(0 7.58012e-06 -0.000982954)
(0 1.07396e-05 -0.000977533)
(0 1.51132e-05 -0.000970195)
(0 2.10271e-05 -0.000955032)
(0 2.73416e-05 -0.000926097)
(0 3.15184e-05 -0.000917891)
(0 3.21409e-05 -0.0011012)
(0 2.37982e-05 -0.000296514)
(0 -5.55576e-05 -0.00210271)
(0 1.26509e-07 -0.00158102)
(0 3.59725e-06 -0.0016195)
(0 3.36666e-05 -0.0028906)
(0 -7.9081e-06 -0.00151852)
(0 -5.92616e-05 -0.00277559)
(0 -2.63481e-05 -0.0020004)
(0 6.97739e-05 -0.00253248)
(0 4.66399e-05 -0.00200145)
(0 9.29143e-06 -0.00268649)
(0 -5.82073e-05 -0.00163397)
(0 -6.56617e-05 -0.00277561)
(0 -5.08928e-05 -0.00112609)
(0 -7.06462e-05 -0.00200359)
(0 -4.09596e-05 -0.00109338)
(0 -4.57991e-05 -0.000943031)
(0 -3.9896e-05 -0.000954672)
(0 -3.18695e-05 -0.000976288)
(0 -2.46085e-05 -0.000983961)
(0 -1.89446e-05 -0.000988366)
(0 -1.45877e-05 -0.000991674)
(0 -1.12473e-05 -0.000994162)
(0 -8.68395e-06 -0.000995969)
(0 -6.71393e-06 -0.000997267)
(0 -5.19771e-06 -0.000998195)
(0 -4.02924e-06 -0.000998853)
(0 -3.12761e-06 -0.000999312)
(0 -2.43102e-06 -0.000999629)
(0 -1.89219e-06 -0.000999842)
(0 -1.47489e-06 -0.000999982)
(0 -1.15132e-06 -0.00100007)
(0 -9.00135e-07 -0.00100012)
(0 -7.04882e-07 -0.00100015)
(0 -5.52902e-07 -0.00100016)
(0 -4.34443e-07 -0.00100016)
(0 -3.41988e-07 -0.00100015)
(0 -2.69737e-07 -0.00100014)
(0 -2.13197e-07 -0.00100013)
(0 -1.68885e-07 -0.00100011)
(0 -1.34093e-07 -0.0010001)
(0 -1.06717e-07 -0.00100009)
(0 -8.51261e-08 -0.00100008)
(0 -6.80553e-08 -0.00100007)
(0 -5.45313e-08 -0.00100006)
(0 -4.38075e-08 -0.00100005)
(0 -3.5314e-08 -0.00100004)
(0 -2.86134e-08 -0.00100003)
(0 -2.33529e-08 -0.00100003)
(0 -1.92291e-08 -0.00100002)
(0 -1.61707e-08 -0.00100002)
(0 -1.49082e-08 -0.00100001)
(4.09082e-09 0 -0.00100001)
(6.6362e-09 0 -0.00100001)
(9.94352e-09 0 -0.00100001)
(1.38058e-08 0 -0.00100001)
(1.83694e-08 0 -0.00100001)
(2.38787e-08 0 -0.00100001)
(3.06469e-08 0 -0.00100001)
(3.90705e-08 0 -0.00100001)
(4.96521e-08 0 -0.00100001)
(6.30323e-08 0 -0.001)
(8.00291e-08 0 -0.001)
(1.01692e-07 0 -0.000999995)
(1.29373e-07 0 -0.000999986)
(1.64816e-07 0 -0.000999972)
(2.1028e-07 0 -0.000999952)
(2.68697e-07 0 -0.000999924)
(3.43882e-07 0 -0.000999883)
(4.4081e-07 0 -0.000999826)
(5.65977e-07 0 -0.000999746)
(7.27879e-07 0 -0.000999635)
(9.37631e-07 0 -0.00099948)
(1.20974e-06 0 -0.000999268)
(1.56312e-06 0 -0.000998977)
(2.02295e-06 0 -0.000998578)
(2.62162e-06 0 -0.000998037)
(3.40183e-06 0 -0.000997302)
(4.41968e-06 0 -0.000996306)
(5.74879e-06 0 -0.000994959)
(7.48584e-06 0 -0.000993138)
(9.75815e-06 0 -0.000990672)
(1.27343e-05 0 -0.000987335)
(1.66404e-05 0 -0.000982954)
(2.17853e-05 0 -0.000977533)
(2.85667e-05 0 -0.000970195)
(3.7253e-05 0 -0.000955032)
(4.58114e-05 0 -0.000926097)
(5.00643e-05 0 -0.000917891)
(4.71283e-05 0 -0.0011012)
(3.08377e-05 0 -0.000296514)
(-8.86598e-05 0 -0.00210271)
(3.56015e-06 0 -0.00158102)
(3.97621e-05 0 -0.0016195)
(6.34421e-05 0 -0.0028906)
(2.27681e-06 0 -0.00151852)
(-6.19278e-05 0 -0.00277559)
(-4.75564e-05 0 -0.0020004)
(-4.86429e-05 0 -0.00253248)
(-3.97148e-05 0 -0.00200145)
(-3.66644e-05 0 -0.00268649)
(-4.25735e-05 0 -0.00163397)
(-7.80911e-05 0 -0.00277561)
(-2.41861e-05 0 -0.00112609)
(-7.32708e-05 0 -0.00200359)
(1.09367e-05 0 -0.00109338)
(-2.02413e-05 0 -0.000943031)
(-1.36018e-05 0 -0.000954672)
(-8.35166e-06 0 -0.000976288)
(-4.93193e-06 0 -0.000983961)
(-2.71608e-06 0 -0.000988366)
(-1.22186e-06 0 -0.000991674)
(-2.37499e-07 0 -0.000994162)
(3.85885e-07 0 -0.000995969)
(7.57737e-07 0 -0.000997267)
(9.56753e-07 0 -0.000998195)
(1.03929e-06 0 -0.000998853)
(1.0456e-06 0 -0.000999312)
(1.00412e-06 0 -0.000999629)
(9.34626e-07 0 -0.000999842)
(8.5065e-07 0 -0.000999982)
(7.61274e-07 0 -0.00100007)
(6.72412e-07 0 -0.00100012)
(5.87727e-07 0 -0.00100015)
(5.09268e-07 0 -0.00100016)
(4.38007e-07 0 -0.00100016)
(3.74344e-07 0 -0.00100015)
(3.18267e-07 0 -0.00100014)
(2.69456e-07 0 -0.00100013)
(2.27375e-07 0 -0.00100011)
(1.91367e-07 0 -0.0010001)
(1.60782e-07 0 -0.00100009)
(1.34971e-07 0 -0.00100008)
(1.13328e-07 0 -0.00100007)
(9.52998e-08 0 -0.00100006)
(8.0388e-08 0 -0.00100005)
(6.8148e-08 0 -0.00100004)
(5.81805e-08 0 -0.00100003)
(5.01082e-08 0 -0.00100003)
(4.35821e-08 0 -0.00100002)
(3.86783e-08 0 -0.00100002)
(3.6704e-08 0 -0.00100001)
)
;
    }
    procBoundary3to1
    {
        type            processor;
        value           nonuniform List<vector> 
90
(
(1.98493e-09 -4.26631e-09 -0.000999974)
(2.70083e-09 -6.98336e-09 -0.000999972)
(3.67371e-09 -1.03863e-08 -0.00099997)
(4.72579e-09 -1.41732e-08 -0.000999966)
(5.80777e-09 -1.83869e-08 -0.000999962)
(6.88316e-09 -2.3122e-08 -0.000999956)
(7.89436e-09 -2.84762e-08 -0.000999949)
(8.74872e-09 -3.45408e-08 -0.000999941)
(9.3048e-09 -4.13942e-08 -0.000999931)
(9.35554e-09 -4.90943e-08 -0.00099992)
(8.60641e-09 -5.76658e-08 -0.000999907)
(6.64516e-09 -6.70821e-08 -0.000999893)
(2.90595e-09 -7.72398e-08 -0.000999877)
(-3.37411e-09 -8.79248e-08 -0.00099986)
(-1.3306e-08 -9.87181e-08 -0.000999842)
(-2.84526e-08 -1.08914e-07 -0.000999825)
(-5.09549e-08 -1.17411e-07 -0.00099981)
(-8.3748e-08 -1.2254e-07 -0.0009998)
(-1.30848e-07 -1.21828e-07 -0.000999798)
(-1.97736e-07 -1.11662e-07 -0.00099981)
(-2.91868e-07 -8.68677e-08 -0.000999843)
(-4.23311e-07 -4.01974e-08 -0.000999908)
(-6.05595e-07 3.83491e-08 -0.00100002)
(-8.57402e-07 1.63581e-07 -0.0010002)
(-1.20327e-06 3.54671e-07 -0.00100048)
(-1.67648e-06 6.38613e-07 -0.00100089)
(-2.32189e-06 1.05266e-06 -0.00100149)
(-3.19977e-06 1.64786e-06 -0.00100237)
(-4.39119e-06 2.49401e-06 -0.00100361)
(-6.00525e-06 3.68637e-06 -0.00100535)
(-8.18904e-06 5.3553e-06 -0.00100775)
(-1.11432e-05 7.68189e-06 -0.00101121)
(-1.51592e-05 1.09314e-05 -0.00101659)
(-2.06805e-05 1.55025e-05 -0.00102408)
(-2.80299e-05 2.17229e-05 -0.00102774)
(-3.38763e-05 2.70252e-05 -0.00102057)
(-3.76361e-05 3.21768e-05 -0.00105582)
(-3.18322e-05 3.08557e-05 -0.00129004)
(-2.04746e-05 2.04343e-05 -0.000372864)
(9.33682e-05 -5.38178e-05 -0.00259935)
(-3.2077e-06 -6.62736e-07 -0.00119277)
(-6.63905e-05 1.70822e-05 -0.00305768)
(-2.34015e-05 1.30055e-05 -0.00181029)
(-8.73313e-05 2.08198e-05 -0.00333037)
(-7.11652e-05 -5.45659e-05 -0.00215525)
(-8.50739e-05 -2.2779e-05 -0.00331717)
(-5.15718e-05 2.65549e-05 -0.00195681)
(-2.32018e-05 0.00012444 -0.003328)
(1.57367e-05 1.42202e-05 -0.00232604)
(-5.24209e-05 -5.00706e-05 -0.00275066)
(-3.97368e-05 -6.51957e-05 -0.00264303)
(-1.13847e-05 -3.5318e-05 -0.00167711)
(-5.74747e-06 1.17835e-05 -0.00246465)
(6.99818e-05 -3.57323e-05 -0.00106909)
(7.40159e-05 -4.6186e-05 -0.00106405)
(6.15175e-05 -4.01313e-05 -0.00107923)
(4.7377e-05 -3.10164e-05 -0.00106589)
(3.71464e-05 -2.40173e-05 -0.00105091)
(2.92095e-05 -1.85895e-05 -0.00103966)
(2.29868e-05 -1.43804e-05 -0.00103115)
(1.81074e-05 -1.11269e-05 -0.00102454)
(1.42804e-05 -8.61431e-06 -0.00101935)
(1.12762e-05 -6.67368e-06 -0.00101528)
(8.91571e-06 -5.17446e-06 -0.00101209)
(7.05877e-06 -4.01582e-06 -0.00100957)
(5.59619e-06 -3.11986e-06 -0.00100759)
(4.44272e-06 -2.42654e-06 -0.00100603)
(3.53179e-06 -1.88959e-06 -0.0010048)
(2.8114e-06 -1.47338e-06 -0.00100382)
(2.2409e-06 -1.15045e-06 -0.00100305)
(1.7885e-06 -8.99628e-07 -0.00100243)
(1.42929e-06 -7.04586e-07 -0.00100195)
(1.1438e-06 -5.52729e-07 -0.00100156)
(9.16727e-07 -4.34341e-07 -0.00100125)
(7.35907e-07 -3.41929e-07 -0.001001)
(5.9168e-07 -2.69701e-07 -0.0010008)
(4.76431e-07 -2.13176e-07 -0.00100065)
(3.84191e-07 -1.68872e-07 -0.00100052)
(3.10279e-07 -1.34085e-07 -0.00100042)
(2.50976e-07 -1.06713e-07 -0.00100034)
(2.0335e-07 -8.51235e-08 -0.00100028)
(1.65078e-07 -6.80538e-08 -0.00100022)
(1.34322e-07 -5.45304e-08 -0.00100018)
(1.09628e-07 -4.3807e-08 -0.00100015)
(8.98465e-08 -3.53139e-08 -0.00100012)
(7.40642e-08 -2.86143e-08 -0.0010001)
(6.15224e-08 -2.33569e-08 -0.00100008)
(5.1605e-08 -1.92464e-08 -0.00100006)
(4.41736e-08 -1.61506e-08 -0.00100004)
(4.12577e-08 -1.49045e-08 -0.00100003)
)
;
    }
    procBoundary3to2
    {
        type            processor;
        value           nonuniform List<vector> 
90
(
(4.09102e-09 -6.3724e-09 -0.00100004)
(6.63615e-09 -1.09187e-08 -0.00100004)
(9.94323e-09 -1.66559e-08 -0.00100005)
(1.38057e-08 -2.32532e-08 -0.00100005)
(1.83694e-08 -3.09487e-08 -0.00100006)
(2.3879e-08 -4.01181e-08 -0.00100007)
(3.06475e-08 -5.12297e-08 -0.00100009)
(3.90712e-08 -6.48637e-08 -0.00100011)
(4.96531e-08 -8.17432e-08 -0.00100013)
(6.30338e-08 -1.02774e-07 -0.00100016)
(8.00316e-08 -1.29093e-07 -0.0010002)
(1.01696e-07 -1.62136e-07 -0.00100025)
(1.29379e-07 -2.03717e-07 -0.00100031)
(1.64827e-07 -2.56131e-07 -0.00100039)
(2.10297e-07 -3.2233e-07 -0.00100049)
(2.68726e-07 -4.06105e-07 -0.00100062)
(3.43931e-07 -5.12316e-07 -0.00100078)
(4.40892e-07 -6.47209e-07 -0.00100098)
(5.66113e-07 -8.1883e-07 -0.00100124)
(7.28107e-07 -1.03757e-06 -0.00100157)
(9.38015e-07 -1.31684e-06 -0.00100198)
(1.21039e-06 -1.67403e-06 -0.00100252)
(1.56423e-06 -2.13165e-06 -0.0010032)
(2.02486e-06 -2.71894e-06 -0.00100408)
(2.62493e-06 -3.47392e-06 -0.00100521)
(3.40759e-06 -4.44606e-06 -0.00100665)
(4.42972e-06 -5.69986e-06 -0.00100852)
(5.7663e-06 -7.31957e-06 -0.00101093)
(7.5163e-06 -9.41553e-06 -0.00101403)
(9.81054e-06 -1.21325e-05 -0.00101804)
(1.28221e-05 -1.56603e-05 -0.0010232)
(1.6782e-05 -2.02491e-05 -0.00103)
(2.20152e-05 -2.62488e-05 -0.00103949)
(2.90239e-05 -3.42096e-05 -0.00105205)
(3.80529e-05 -4.43631e-05 -0.0010616)
(4.52462e-05 -5.21128e-05 -0.00105863)
(4.98005e-05 -5.51893e-05 -0.001106)
(4.32978e-05 -4.41134e-05 -0.00135852)
(2.33752e-05 -2.29211e-05 -0.00038046)
(-8.59233e-05 0.000125286 -0.00276736)
(2.42157e-06 -7.38838e-06 -0.0013051)
(6.49322e-05 -0.00011161 -0.00293543)
(5.43136e-05 -6.12815e-05 -0.00231335)
(9.29681e-06 -7.69238e-05 -0.00316002)
(-5.45567e-05 -7.78142e-05 -0.00215808)
(-7.18701e-05 -4.68342e-05 -0.00320625)
(-4.31205e-05 3.08517e-05 -0.00224143)
(-6.25604e-05 0.00015138 -0.00334563)
(-2.75803e-05 2.21985e-05 -0.00180059)
(-8.20092e-05 -2.30176e-05 -0.0033162)
(-5.72013e-05 -4.17035e-05 -0.00206726)
(-4.71328e-05 -1.79507e-05 -0.00205913)
(9.84071e-06 3.60441e-05 -0.00203374)
(4.53972e-05 7.13154e-05 -0.00150122)
(-1.13802e-05 5.91341e-05 -0.000896507)
(-1.27137e-05 3.77517e-05 -0.00103054)
(-8.04638e-06 2.46889e-05 -0.0010222)
(-4.76276e-06 1.79572e-05 -0.00101259)
(-2.62156e-06 1.32838e-05 -0.0010074)
(-1.17184e-06 9.80678e-06 -0.00100444)
(-2.11556e-07 7.21091e-06 -0.00100246)
(3.99261e-07 5.27898e-06 -0.00100111)
(7.64643e-07 3.84563e-06 -0.00100021)
(9.60348e-07 2.78579e-06 -0.000999642)
(1.04117e-06 2.0049e-06 -0.000999302)
(1.04661e-06 1.43173e-06 -0.00099912)
(1.00469e-06 1.0128e-06 -0.000999045)
(9.34958e-07 7.08095e-07 -0.000999039)
(8.50857e-07 4.87728e-07 -0.000999077)
(7.6141e-07 3.29421e-07 -0.000999141)
(6.72505e-07 2.1662e-07 -0.000999218)
(5.87793e-07 1.37083e-07 -0.000999299)
(5.09316e-07 8.18676e-08 -0.000999379)
(4.38042e-07 4.4421e-08 -0.000999456)
(3.7437e-07 1.96602e-08 -0.000999527)
(3.18285e-07 3.72812e-09 -0.000999594)
(2.6947e-07 -6.19059e-09 -0.000999654)
(2.27385e-07 -1.20505e-08 -0.000999707)
(1.91374e-07 -1.51696e-08 -0.000999754)
(1.60786e-07 -1.65161e-08 -0.000999795)
(1.34974e-07 -1.67433e-08 -0.00099983)
(1.1333e-07 -1.6303e-08 -0.00099986)
(9.53013e-08 -1.55077e-08 -0.000999886)
(8.03892e-08 -1.45671e-08 -0.000999908)
(6.81493e-08 -1.36156e-08 -0.000999927)
(5.81829e-08 -1.27322e-08 -0.000999942)
(5.01156e-08 -1.19496e-08 -0.000999954)
(4.36072e-08 -1.12523e-08 -0.000999965)
(3.86489e-08 -1.06222e-08 -0.000999975)
(3.66976e-08 -1.03447e-08 -0.000999981)
)
;
    }
}


// ************************************************************************* //
