/*--------------------------------*- C++ -*----------------------------------*\
| =========                 |                                                 |
| \\      /  F ield         | OpenFOAM: The Open Source CFD Toolbox           |
|  \\    /   O peration     | Version:  5.x                                   |
|   \\  /    A nd           | Web:      www.OpenFOAM.org                      |
|    \\/     M anipulation  |                                                 |
\*---------------------------------------------------------------------------*/
FoamFile
{
    version     2.0;
    format      ascii;
    class       volScalarField;
    location    "7000";
    object      p;
}
// * * * * * * * * * * * * * * * * * * * * * * * * * * * * * * * * * * * * * //

dimensions      [0 2 -2 0 0 0 0];

internalField   nonuniform List<scalar> 
180
(
-814.293
-1507.77
-1813.65
-1964.72
-1981.92
-1939.58
-2150.08
-2383.92
-2444.37
-2379.94
-2328.18
-2321.09
-2547.01
-2764.53
-2818.04
-2756.97
-2721.62
-2724.12
-2733.5
-2729.07
-2721.3
-2788.75
-2887.76
-2903.85
-2865.87
-2839.87
-3043.05
-3257.43
-3303.72
-3213.16
-3167.54
-3162.76
-3153.62
-3398.05
-3651.37
-3842.36
-4002.63
-4048.81
-3978.16
-4129.58
-4343.97
-4430.08
-4439.79
-4419.28
-4404.89
-4554.09
-4717.64
-4754.47
-4688.25
-4651.82
-4643.04
-4630.25
-4607.63
-4579.74
-4554.09
-4520.81
-4620.77
-4751.11
-4823.68
-4977.83
-5201.73
-5476.72
-5613.91
-5613.95
-5612.86
-5878.38
-6190.21
-6469.9
-6746.28
-7030.29
-7317.45
-7606.23
-7897.65
-8193.24
-8495.57
-8805.2
-9126.68
-9461.33
-9806.34
-10169.9
-10554.6
-10957.3
-11380.6
-11819.4
-12271.1
-12733.1
-13203.6
-13680.9
-14163.5
-14650
-15139
-15629.3
-16119.2
-16608.5
-17094.6
-17580
-18060.7
-18544.6
-19017.1
-19488
-19945.9
-20385.6
-20819.3
-21293.4
-21765.9
-22141.5
-22428.8
-22670.7
-22876.7
-23047.2
-23190
-23306.1
-23392.9
-23499.6
-23625.4
-23757.6
-23936.4
-24174.2
-24463.2
-24780.1
-25113.3
-25456.1
-25797.9
-26123
-26438.7
-26767.7
-27109.1
-27469.4
-27865.8
-28274.3
-28711.8
-29164.7
-29629.4
-30129.9
-30660
-31226.5
-31804.8
-32390.2
-32975.7
-33559.5
-34134.9
-34707.8
-35284.5
-35866
-36451.8
-37021
-37569.8
-38057.7
-38250.2
-38186.4
-38211.3
-38634.3
-39102.8
-39533.6
-39929.8
-40292.5
-40628.4
-40938.3
-41210.7
-41463.8
-41716.9
-41978.7
-42253.8
-42542.8
-42839.2
-43144.5
-43457.4
-43775
-44092.1
-44379.4
-44595.7
-44741.5
-44840.7
-44894.4
-44967.4
-44904.7
-44742.9
-44725.8
-44782
-44827.8
)
;

boundaryField
{
    inlet
    {
        type            zeroGradient;
    }
    outlet
    {
        type            fixedValue;
        value           uniform 0;
    }
    repeat_boundary
    {
        type            zeroGradient;
    }
    procBoundary0to1
    {
        type            processor;
        value           nonuniform List<scalar> 
180
(
-640.653
-1174.59
-1324.48
-1634.07
-2047.52
-2487.34
-2694.71
-2709.68
-2617.47
-2542.04
-2685.94
-2852.84
-2880.82
-2823.31
-2772.98
-2755.88
-2745.62
-2721.21
-2699.27
-2882.53
-3088.08
-3135.93
-3051.44
-3007.17
-2994.08
-3194.34
-3417.94
-3464.55
-3383.61
-3362.01
-3350.71
-3524.88
-3739.47
-3797.61
-3856.52
-4007.75
-4061.32
-4033.56
-4026.14
-4255.99
-4489.6
-4549
-4482.4
-4447.63
-4550.96
-4685.52
-4717.45
-4691.51
-4674.22
-4667.32
-4919.88
-5190.64
-5259.37
-5167.22
-5158.16
-5167.64
-5156.37
-5422.04
-5702.44
-5778.45
-5696.92
-5945.71
-6239.1
-6321.72
-6269.25
-6249.29
-6271.97
-6276.63
-6574
-6946.27
-7080.99
-6996.76
-7184.2
-7453.27
-7512.18
-7403.64
-7535.01
-8291.21
-8700.81
-8729.57
-8829.12
-9309.91
-9812.62
-10488.9
-11212.7
-11913
-12594.4
-13269.4
-13936.1
-14596
-15248.5
-15894.4
-16532.7
-17163.6
-17786
-18397.9
-19001.7
-19585.8
-20177.5
-20726.4
-21318.4
-21735.9
-22076.6
-22242.5
-22279.5
-22449.8
-22753.4
-23006
-23213.1
-23303.4
-23317.7
-23319.2
-23324.5
-23348.6
-23418.9
-23495.8
-23499
-23520.1
-23648
-23927.1
-24295
-24741.9
-25278.2
-25775.5
-26021.1
-26358.9
-26673.2
-26773.3
-27093.3
-27593.7
-28125.6
-28513.2
-28681
-29155.6
-29630.8
-29555
-29674.5
-30341.4
-31673.2
-32912.9
-34175.3
-35349.2
-36399.5
-37320.2
-38117.5
-38796
-39362.4
-39832.2
-40213.9
-40517.1
-40757.5
-40951.8
-41123.9
-41290.7
-41470.7
-41665.3
-41851.6
-41853.3
-41757.9
-41756
-41857.9
-41952.1
-42002.8
-42163.3
-42373.9
-42432.8
-42500.3
-42632.4
-42722.1
-42818.8
-42979.3
-43036.7
-42987.8
-42850.5
-42695.2
-42551.7
-42399.6
-42297.9
-42310.8
-42317.6
)
;
    }
    procBoundary0to2
    {
        type            processor;
        value           nonuniform List<scalar> 
180
(
-825.479
-1526.92
-1835.65
-1987.03
-2003.97
-1962.34
-1925.42
-1902.28
-2119.36
-2337.8
-2382.92
-2299.94
-2237.45
-2214.74
-2421.05
-2662.13
-2725.2
-2642.33
-2723.98
-2876.53
-2904.06
-2843.29
-2978.87
-3156.75
-3191.53
-3121.18
-3068.26
-3049.68
-3034.91
-3005.98
-2973.75
-3126.54
-3305.99
-3341.59
-3242.11
-3335.23
-3734.64
-4162.3
-4397.54
-4442.96
-4531.27
-4666.3
-4698.08
-4787.03
-4915.27
-4946.72
-4905.25
-4875.22
-4868.25
-4862.73
-4845.96
-4831.27
-4818.83
-4804.89
-4791.17
-4965.24
-5165.1
-5217.48
-5173.33
-5220.02
-5233.27
-5177.54
-5267.13
-5384.84
-5394.43
-5321.77
-5402.1
-5804.36
-6223.4
-6613.42
-6981.44
-7334.34
-7674.69
-8004.39
-8329.29
-8652.25
-8976.31
-9305.82
-9646.63
-10003.2
-10373.1
-10773.4
-11194.9
-11634.7
-12088.4
-12554.5
-13030.8
-13516
-14008.8
-14507.4
-15011.4
-15518.3
-16024.7
-16523.3
-16974.4
-17345.3
-17637.3
-17878.6
-18122.2
-18409.1
-18749.6
-19116.3
-19468.2
-19803.2
-20136.7
-20471
-20795.5
-21114.4
-21424.7
-21728.7
-22028.6
-22319
-22606.9
-22890.8
-23178.2
-23469
-23770.7
-24081.7
-24402.8
-24734.5
-25071.1
-25416.9
-25761.8
-26115.4
-26467.2
-26830.9
-27199.2
-27586.3
-27984.7
-28403
-28836
-29282.6
-29743.2
-30212.6
-30694.7
-31183.4
-31679
-32177.7
-32677.1
-33176
-33673.5
-34166.4
-34654.1
-35133.2
-35601.1
-36057.4
-36498.2
-36925.1
-37333.5
-37724
-38109
-38496.3
-38884
-39268.1
-39650.1
-40029.5
-40411
-40794.9
-41189.9
-41597.1
-42029
-42483.9
-42970.3
-43477.2
-44013.1
-44556.1
-45126.3
-45688.3
-46279.9
-46882.6
-47588
-48323.7
-49172.3
-49960.3
-50861.1
-51342.6
-51169.3
-50656.2
-50983.6
-51312.3
)
;
    }
}


// ************************************************************************* //
