FoamFile
{version 2.0; format ascii;class vectorField; location 0;object  v;}
353
(
( 3.03794e-06 7.08172e-06 4.77969e-07 )  
( 5.61043e-06 6.68244e-06 1.8903e-06 )  
( 7.70533e-07 -1.6816e-06 -4.17712e-08 )  
( -8.08221e-07 -2.49682e-06 4.09652e-08 )  
( 1.87451e-06 4.83112e-06 -1.24961e-07 )  
( 2.37521e-06 4.77324e-06 -1.41687e-06 )  
( 3.48366e-06 5.42783e-06 4.4257e-07 )  
( 2.53638e-06 3.6185e-06 6.0946e-07 )  
( 6.94151e-07 5.31534e-06 -4.28646e-07 )  
( 3.7572e-06 3.20979e-06 1.45305e-06 )  
( 3.93518e-06 7.18178e-06 3.68488e-07 )  
( 2.10473e-06 5.42848e-06 -7.12512e-07 )  
( 4.77789e-06 8.33596e-06 -3.90502e-08 )  
( 3.6894e-06 7.67315e-06 4.89053e-07 )  
( 2.15796e-06 7.74081e-06 -1.15571e-06 )  
( 3.42148e-06 -5.25438e-07 1.69536e-08 )  
( 3.30179e-06 5.37355e-06 -3.05324e-07 )  
( 6.73575e-06 1.16304e-05 -8.25413e-07 )  
( 4.00923e-06 1.13894e-05 -1.88357e-06 )  
( 9.84953e-06 3.56193e-06 2.20439e-12 )  
( 7.5455e-06 1.20399e-05 -2.13856e-06 )  
( 6.64943e-06 1.02239e-05 -2.03304e-06 )  
( 4.80421e-06 9.42528e-06 1.84825e-06 )  
( 3.59091e-06 7.91977e-06 -5.04688e-07 )  
( 3.00734e-06 6.40457e-06 1.19319e-06 )  
( 3.17107e-06 5.09642e-06 -1.55503e-07 )  
( 5.54512e-06 1.03892e-05 -1.18585e-06 )  
( 2.64446e-06 3.7348e-06 1.57108e-06 )  
( 4.8438e-06 1.14463e-05 -1.1644e-06 )  
( 2.68743e-06 7.82023e-06 1.528e-06 )  
( 4.15091e-06 9.77224e-06 -2.85717e-07 )  
( 5.07036e-06 1.06585e-05 -1.35702e-06 )  
( 5.31233e-06 1.06782e-05 6.31599e-07 )  
( 3.51303e-06 1.15999e-05 1.24204e-06 )  
( 6.54274e-06 1.33394e-05 -1.12809e-06 )  
( 5.58714e-06 1.24032e-05 -4.37997e-07 )  
( 4.38043e-06 1.13566e-05 -1.10489e-06 )  
( 7.63424e-06 1.17967e-05 7.99197e-07 )  
( 5.91854e-06 1.09852e-05 1.92749e-06 )  
( 5.49593e-06 1.09412e-05 1.00276e-06 )  
( 5.47646e-06 1.05407e-05 2.74106e-08 )  
( 5.09298e-06 9.46373e-06 7.19321e-07 )  
( 5.29169e-06 1.10092e-05 9.81749e-07 )  
( 7.20641e-06 1.09296e-05 1.48391e-06 )  
( 7.71989e-06 1.30059e-05 -1.17185e-06 )  
( 4.63808e-06 1.20748e-05 -8.3211e-07 )  
( 6.78095e-06 1.07812e-05 1.49418e-06 )  
( 5.8218e-06 1.32908e-05 8.38676e-07 )  
( 7.90854e-06 1.58995e-05 -9.8878e-07 )  
( 7.05262e-06 1.44289e-05 -2.61832e-07 )  
( 6.48409e-06 1.33422e-05 9.18146e-07 )  
( 5.26184e-06 9.98325e-06 3.66616e-07 )  
( 6.06784e-06 8.26674e-06 -8.09003e-07 )  
( 5.03558e-06 1.08038e-05 -9.332e-07 )  
( 6.30308e-06 1.19709e-05 -1.01071e-06 )  
( 6.61658e-06 1.47918e-05 -7.52986e-07 )  
( 7.58641e-06 1.48234e-05 -2.64542e-07 )  
( 6.96569e-06 1.59803e-05 1.93697e-06 )  
( 8.17875e-06 1.33271e-05 1.90744e-07 )  
( 8.68992e-06 1.46515e-05 7.97494e-07 )  
( 8.47855e-06 1.16534e-05 1.09501e-06 )  
( 7.08506e-06 1.7436e-05 2.08073e-06 )  
( 1.0282e-05 1.19788e-05 -8.3899e-07 )  
( 5.29784e-06 1.02931e-05 -9.94569e-07 )  
( 6.63964e-06 1.54202e-05 -1.74515e-06 )  
( 8.45122e-06 1.32541e-05 -7.90657e-07 )  
( 8.46346e-06 1.65832e-05 -1.22301e-06 )  
( 6.27673e-06 1.23678e-05 -3.49756e-08 )  
( 8.77281e-06 1.31421e-05 8.1043e-07 )  
( 9.75925e-06 1.69516e-05 -1.08778e-06 )  
( 7.85823e-06 1.70808e-05 1.02301e-06 )  
( 1.07661e-05 1.80688e-05 1.67298e-06 )  
( 8.08073e-06 1.89217e-05 -1.50609e-06 )  
( 9.61132e-06 1.62433e-05 -2.26654e-06 )  
( 9.42051e-06 1.80757e-05 2.79567e-06 )  
( 9.28913e-06 1.49914e-05 1.04835e-06 )  
( 8.34144e-06 1.75878e-05 -2.37627e-06 )  
( 9.37294e-06 1.45492e-05 1.63357e-06 )  
( 3.88083e-06 1.37691e-05 -2.35559e-06 )  
( 8.36373e-06 1.49033e-05 -3.74898e-07 )  
( 8.39936e-06 1.64971e-05 7.56472e-08 )  
( 8.24822e-06 1.30381e-05 5.75522e-07 )  
( 1.27778e-05 1.88399e-05 -2.9916e-07 )  
( 1.08712e-05 1.74779e-05 -2.06438e-06 )  
( 1.25403e-05 2.08324e-05 1.82188e-06 )  
( 8.38625e-06 1.72701e-05 9.13586e-07 )  
( 1.05219e-05 1.64718e-05 7.8998e-08 )  
( 1.5899e-05 1.91359e-05 2.40844e-06 )  
( 1.05753e-05 1.78117e-05 5.44677e-07 )  
( 8.56937e-06 1.73584e-05 3.16178e-07 )  
( 8.95292e-06 1.66058e-05 -1.09903e-06 )  
( 1.15668e-05 1.47762e-05 -4.33264e-07 )  
( 1.19586e-05 1.61159e-05 6.35755e-07 )  
( 1.20094e-05 1.6697e-05 1.4314e-06 )  
( 1.00028e-05 1.9044e-05 7.89774e-07 )  
( 8.97804e-06 1.69476e-05 5.52808e-07 )  
( 9.74237e-06 2.37791e-05 1.85953e-06 )  
( 9.19681e-06 2.05241e-05 -3.73629e-07 )  
( 1.58044e-05 2.25462e-05 2.40897e-06 )  
( 5.92125e-06 1.45108e-05 -9.86059e-07 )  
( 1.55398e-05 2.21307e-05 4.66243e-07 )  
( 1.04306e-05 1.70908e-05 -3.49722e-07 )  
( 1.4337e-05 2.10984e-05 1.38194e-07 )  
( 8.89971e-06 2.07105e-05 6.74433e-07 )  
( 8.62977e-06 2.0319e-05 3.18602e-06 )  
( 1.10573e-05 1.88504e-05 -8.63055e-07 )  
( 1.31126e-05 2.21745e-05 -5.56571e-08 )  
( 1.52364e-05 2.05978e-05 8.92252e-07 )  
( 8.90727e-06 2.29366e-05 1.0859e-06 )  
( 1.1093e-05 1.94975e-05 2.54623e-07 )  
( 1.3103e-05 2.17126e-05 1.16391e-06 )  
( 1.43003e-05 2.35221e-05 1.68441e-07 )  
( 1.50163e-05 2.36327e-05 8.69696e-08 )  
( 1.43169e-05 2.17821e-05 -8.74088e-07 )  
( 1.19683e-05 2.26232e-05 -3.1824e-06 )  
( 1.1353e-05 2.43638e-05 1.70319e-06 )  
( 1.48435e-05 2.45863e-05 -1.02115e-07 )  
( 1.66089e-05 1.97363e-05 5.94641e-06 )  
( 1.28667e-05 2.31861e-05 1.41824e-06 )  
( 1.12215e-05 2.11353e-05 1.41659e-06 )  
( 1.42576e-05 2.28915e-05 8.05574e-08 )  
( 1.37574e-05 2.46565e-05 3.21087e-07 )  
( 1.47378e-05 2.26392e-05 -3.27086e-07 )  
( 1.50737e-05 2.68235e-05 3.6335e-06 )  
( 1.48015e-05 2.18716e-05 1.64802e-07 )  
( 1.28071e-05 2.80046e-05 -2.44026e-06 )  
( 1.68e-05 2.63681e-05 2.3654e-06 )  
( 1.76131e-05 2.79247e-05 -1.70777e-06 )  
( 1.24168e-05 1.98166e-05 6.00155e-07 )  
( 1.98579e-05 2.52388e-05 6.80184e-07 )  
( 1.53898e-05 2.46643e-05 1.51656e-06 )  
( 1.66385e-05 2.56014e-05 -1.8533e-07 )  
( 1.53249e-05 2.45682e-05 4.13964e-07 )  
( 1.67786e-05 2.79873e-05 3.26662e-06 )  
( 1.65945e-05 2.75531e-05 6.36388e-06 )  
( 1.67975e-05 2.36879e-05 6.71279e-07 )  
( 1.60079e-05 2.76812e-05 -7.26068e-08 )  
( 1.53564e-05 2.34456e-05 9.07569e-07 )  
( 1.84648e-05 2.79444e-05 1.29408e-06 )  
( 1.74704e-05 2.82461e-05 -3.71103e-09 )  
( 2.2993e-05 3.32752e-05 5.47343e-07 )  
( 1.75326e-05 2.91866e-05 9.35982e-07 )  
( 1.72084e-05 2.52038e-05 4.02083e-07 )  
( 2.00305e-05 2.92407e-05 2.02522e-06 )  
( 1.79523e-05 2.91316e-05 4.00541e-08 )  
( 1.52967e-05 3.05582e-05 -3.47673e-06 )  
( 1.77288e-05 3.14302e-05 2.84345e-06 )  
( 1.84602e-05 2.83453e-05 6.48216e-07 )  
( 1.83145e-05 2.876e-05 5.8441e-07 )  
( 1.36985e-05 2.55831e-05 6.81294e-07 )  
( 1.54323e-05 2.68016e-05 -7.85196e-07 )  
( 1.74087e-05 3.07918e-05 -2.09435e-06 )  
( 1.60422e-05 2.65556e-05 8.31607e-07 )  
( 1.53411e-05 2.46983e-05 7.19717e-07 )  
( 1.84772e-05 3.14024e-05 -1.37843e-07 )  
( 1.61022e-05 2.36304e-05 2.0307e-06 )  
( 2.01405e-05 3.56e-05 -1.22982e-06 )  
( 1.72503e-05 3.01974e-05 9.45145e-07 )  
( 2.08966e-05 3.09674e-05 -7.57885e-07 )  
( 1.87499e-05 3.46177e-05 -1.19341e-06 )  
( 2.08646e-05 2.59289e-05 -1.67235e-06 )  
( 1.92167e-05 3.41635e-05 1.05542e-06 )  
( 1.55089e-05 3.04767e-05 2.62554e-06 )  
( 2.26605e-05 3.21327e-05 7.512e-07 )  
( 1.60433e-05 3.06352e-05 -1.92514e-07 )  
( 1.77416e-05 3.14853e-05 -6.12936e-07 )  
( 1.69171e-05 2.78723e-05 6.41088e-07 )  
( 1.91937e-05 3.37267e-05 7.05057e-07 )  
( 1.69944e-05 2.89763e-05 6.14285e-07 )  
( 1.65531e-05 3.28722e-05 -4.01999e-07 )  
( 1.9703e-05 3.35917e-05 1.24408e-06 )  
( 2.29782e-05 3.64093e-05 -1.05461e-06 )  
( 2.12895e-05 3.09717e-05 1.21952e-06 )  
( 1.75784e-05 2.81583e-05 2.85352e-06 )  
( 1.91297e-05 3.00174e-05 4.76825e-06 )  
( 2.2356e-05 3.19929e-05 1.60314e-06 )  
( 2.00934e-05 3.33665e-05 -3.51466e-07 )  
( 1.95983e-05 3.33425e-05 1.42664e-06 )  
( 1.89351e-05 3.30631e-05 -9.18189e-07 )  
( 2.22837e-05 3.52119e-05 -5.43581e-07 )  
( 2.37424e-05 3.17751e-05 8.11534e-07 )  
( 2.37726e-05 3.98683e-05 3.49691e-06 )  
( 2.11657e-05 3.26391e-05 3.36864e-06 )  
( 2.43031e-05 3.24053e-05 1.3082e-06 )  
( 2.60209e-05 3.50031e-05 -7.68431e-08 )  
( 2.03457e-05 3.10748e-05 -7.49326e-07 )  
( 2.27587e-05 3.64836e-05 2.02448e-06 )  
( 2.29966e-05 3.31921e-05 2.23328e-06 )  
( 2.24908e-05 3.46722e-05 -7.94288e-07 )  
( 1.96313e-05 3.36129e-05 3.96634e-07 )  
( 2.0658e-05 3.46764e-05 9.8156e-07 )  
( 2.22684e-05 3.36877e-05 -5.11317e-07 )  
( 2.22024e-05 3.36836e-05 1.42569e-06 )  
( 2.22274e-05 3.68541e-05 2.12376e-06 )  
( 2.02285e-05 3.53027e-05 -1.28912e-06 )  
( 2.08572e-05 3.13969e-05 9.51206e-07 )  
( 2.09882e-05 3.63459e-05 7.14374e-07 )  
( 2.46339e-05 3.63359e-05 -1.4362e-07 )  
( 2.34593e-05 3.58569e-05 1.02864e-06 )  
( 2.52082e-05 3.56799e-05 2.13967e-06 )  
( 2.38936e-05 3.56846e-05 1.42574e-06 )  
( 2.37529e-05 3.56121e-05 2.62161e-06 )  
( 2.36347e-05 3.68678e-05 1.90691e-07 )  
( 2.70772e-05 3.59861e-05 -7.93447e-07 )  
( 2.53587e-05 4.22322e-05 4.30835e-06 )  
( 2.58533e-05 3.82403e-05 2.85848e-06 )  
( 2.49645e-05 3.71746e-05 1.90025e-06 )  
( 2.3726e-05 3.67762e-05 -1.1141e-06 )  
( 2.18761e-05 3.98179e-05 1.90394e-06 )  
( 2.46996e-05 3.63675e-05 1.99271e-06 )  
( 3.14521e-05 3.97558e-05 -6.75515e-07 )  
( 2.91904e-05 4.33343e-05 5.26089e-06 )  
( 2.50818e-05 3.8849e-05 1.3353e-06 )  
( 2.47873e-05 3.97836e-05 2.54378e-06 )  
( 2.60281e-05 3.99317e-05 -6.78102e-07 )  
( 2.21458e-05 3.83939e-05 1.41329e-06 )  
( 2.40903e-05 3.68129e-05 2.77554e-06 )  
( 2.33116e-05 3.58029e-05 -2.54952e-06 )  
( 2.55036e-05 3.72993e-05 1.90133e-06 )  
( 2.56305e-05 3.86043e-05 1.41959e-06 )  
( 2.6265e-05 3.90596e-05 1.2832e-06 )  
( 2.50429e-05 3.44372e-05 1.60064e-06 )  
( 2.81703e-05 3.95355e-05 1.74068e-06 )  
( 2.47976e-05 3.82915e-05 3.22581e-06 )  
( 2.95315e-05 4.13711e-05 5.28681e-06 )  
( 2.6188e-05 4.293e-05 5.76347e-06 )  
( 2.84833e-05 4.24638e-05 8.23578e-07 )  
( 2.80484e-05 4.22728e-05 -1.0931e-06 )  
( 2.89487e-05 4.26083e-05 1.06252e-06 )  
( 2.78884e-05 3.93714e-05 4.37837e-06 )  
( 2.8592e-05 4.20036e-05 1.36438e-06 )  
( 2.47303e-05 3.54035e-05 -7.73775e-08 )  
( 2.61006e-05 3.99625e-05 3.77172e-07 )  
( 2.76997e-05 4.13305e-05 -2.8321e-07 )  
( 3.01934e-05 4.21023e-05 2.47005e-07 )  
( 3.07695e-05 4.15817e-05 -3.57054e-07 )  
( 2.38299e-05 3.9419e-05 8.92114e-07 )  
( 2.70074e-05 3.96733e-05 2.01543e-06 )  
( 3.13261e-05 4.78182e-05 2.38154e-06 )  
( 2.84928e-05 4.32603e-05 -4.61437e-07 )  
( 2.86113e-05 4.6439e-05 4.42488e-06 )  
( 3.04621e-05 4.43854e-05 4.23274e-07 )  
( 3.27807e-05 4.5162e-05 -1.27507e-07 )  
( 2.94853e-05 4.23949e-05 2.88714e-06 )  
( 2.83885e-05 4.28191e-05 1.50489e-06 )  
( 3.05107e-05 4.25895e-05 -3.43924e-07 )  
( 2.55692e-05 4.27228e-05 3.86866e-06 )  
( 3.12775e-05 4.44505e-05 2.22302e-06 )  
( 2.56807e-05 4.30295e-05 2.70999e-06 )  
( 3.02141e-05 4.21439e-05 -5.7353e-07 )  
( 2.88032e-05 4.30136e-05 3.31874e-06 )  
( 2.96431e-05 3.95974e-05 1.60818e-06 )  
( 2.96883e-05 4.38244e-05 6.37346e-07 )  
( 2.72342e-05 4.20292e-05 1.05619e-06 )  
( 2.91002e-05 4.30588e-05 6.47188e-07 )  
( 2.89769e-05 4.83191e-05 4.34619e-06 )  
( 3.08663e-05 4.45074e-05 3.90949e-06 )  
( 3.11451e-05 4.47717e-05 2.04281e-06 )  
( 2.76652e-05 4.08436e-05 4.4259e-07 )  
( 3.08614e-05 4.54255e-05 4.54616e-06 )  
( 2.91307e-05 4.36932e-05 1.22233e-06 )  
( 3.02351e-05 4.17158e-05 5.52e-07 )  
( 3.06172e-05 4.34084e-05 5.00373e-06 )  
( 2.96346e-05 4.75911e-05 5.10753e-06 )  
( 2.7076e-05 4.81836e-05 1.51625e-07 )  
( 3.02338e-05 4.49579e-05 6.34865e-06 )  
( 3.18042e-05 4.49619e-05 1.29663e-06 )  
( 3.13953e-05 4.94099e-05 5.8388e-06 )  
( 2.99857e-05 4.52374e-05 1.85566e-06 )  
( 3.33543e-05 4.75117e-05 1.33268e-06 )  
( 3.1279e-05 4.84347e-05 2.31952e-06 )  
( 2.97926e-05 4.24935e-05 1.97123e-07 )  
( 3.08183e-05 4.54293e-05 3.58286e-07 )  
( 3.15451e-05 4.79591e-05 4.11946e-06 )  
( 3.21001e-05 4.87312e-05 2.30723e-06 )  
( 3.36848e-05 4.28439e-05 3.81632e-06 )  
( 3.05014e-05 4.56549e-05 8.81239e-07 )  
( 3.09283e-05 4.63904e-05 3.28475e-06 )  
( 2.92684e-05 4.5047e-05 2.08765e-06 )  
( 3.15313e-05 4.95516e-05 6.46541e-06 )  
( 3.62473e-05 4.41733e-05 5.76657e-06 )  
( 3.0015e-05 4.4968e-05 4.11214e-06 )  
( 3.12482e-05 4.80976e-05 -6.05043e-07 )  
( 3.15042e-05 4.0567e-05 -1.4273e-06 )  
( 3.23877e-05 4.6871e-05 3.08164e-06 )  
( 3.04414e-05 5.23549e-05 5.37007e-06 )  
( 3.0715e-05 4.40136e-05 1.37495e-06 )  
( 3.25784e-05 4.69651e-05 1.60617e-06 )  
( 3.29513e-05 4.39535e-05 -5.46616e-07 )  
( 3.2853e-05 4.87358e-05 4.65602e-06 )  
( 3.39983e-05 4.71884e-05 3.61565e-07 )  
( 3.20592e-05 4.81947e-05 2.61267e-06 )  
( 3.16312e-05 4.81247e-05 5.04632e-06 )  
( 3.30119e-05 5.05115e-05 4.75463e-06 )  
( 3.20363e-05 4.73407e-05 2.71653e-06 )  
( 3.09362e-05 5.11233e-05 5.21644e-06 )  
( 3.46434e-05 4.98313e-05 9.51658e-07 )  
( 3.29692e-05 4.87549e-05 3.8023e-06 )  
( 2.86492e-05 4.84118e-05 9.21978e-07 )  
( 3.76446e-05 5.02743e-05 3.02656e-08 )  
( 3.20461e-05 4.874e-05 5.48046e-06 )  
( 3.4591e-05 5.12757e-05 8.44675e-06 )  
( 3.50871e-05 4.92879e-05 1.90753e-07 )  
( 3.60901e-05 4.90537e-05 4.77852e-06 )  
( 3.48648e-05 4.78206e-05 1.68306e-06 )  
( 2.89507e-05 4.97109e-05 4.01532e-06 )  
( 3.36438e-05 4.97104e-05 7.44894e-06 )  
( 3.37255e-05 5.43197e-05 5.40932e-07 )  
( 3.25505e-05 5.09528e-05 1.06545e-06 )  
( 3.13795e-05 5.11852e-05 7.06495e-06 )  
( 3.09455e-05 4.35258e-05 1.33977e-06 )  
( 3.28814e-05 4.96058e-05 4.60283e-06 )  
( 3.92444e-05 6.30917e-05 -6.56659e-06 )  
( 3.20239e-05 4.97894e-05 2.42659e-06 )  
( 3.50287e-05 4.84583e-05 4.83813e-06 )  
( 3.4023e-05 5.25257e-05 6.91726e-06 )  
( 3.57566e-05 4.949e-05 8.22007e-07 )  
( 3.3026e-05 5.02913e-05 8.62009e-06 )  
( 3.74059e-05 4.94642e-05 1.68394e-06 )  
( 3.35754e-05 5.19201e-05 2.34799e-06 )  
( 3.28756e-05 5.41218e-05 5.79192e-06 )  
( 3.96547e-05 5.43445e-05 -2.62748e-07 )  
( 3.2078e-05 5.27225e-05 -2.86554e-06 )  
( 3.66406e-05 5.3524e-05 4.41136e-06 )  
( 3.91055e-05 5.64094e-05 5.0962e-06 )  
( 3.45218e-05 4.8772e-05 3.18232e-06 )  
( 3.14212e-05 5.12317e-05 6.13865e-06 )  
( 3.13019e-05 1.25761e-05 3.0403e-06 )  
( 3.70012e-05 5.23755e-05 2.39787e-06 )  
( 3.59037e-05 6.07659e-05 -4.75539e-06 )  
( 4.38691e-05 4.37437e-05 3.98227e-06 )  
( 6.10071e-05 9.32679e-05 -1.90112e-05 )  
( 3.79671e-05 5.60135e-05 4.98152e-06 )  
( 3.40511e-05 5.1171e-05 5.26855e-06 )  
( 3.78561e-05 5.13404e-05 -1.56375e-06 )  
( 3.7037e-05 5.73112e-05 8.18861e-06 )  
( 3.87565e-05 5.8898e-05 -1.80325e-06 )  
( 3.78145e-05 5.87218e-05 6.20401e-06 )  
( 3.53315e-05 5.38019e-05 8.22774e-06 )  
( 3.59797e-05 4.59839e-05 5.37281e-06 )  
( 3.68213e-05 5.11452e-05 5.10967e-06 )  
( -1.50493e-05 2.7509e-05 -4.53307e-06 )  
( 3.16308e-05 5.09636e-05 -3.70488e-06 )  
( -0.00058501 -0.000559838 -0.000283104 )  
( 4.12803e-05 4.77019e-05 5.94417e-06 )  
( 3.89846e-05 5.00302e-05 2.49e-06 )  
( 3.97127e-05 6.03506e-05 9.57722e-06 )  
( 3.58578e-06 4.97331e-05 -1.369e-05 )  
( 3.71108e-05 5.33574e-05 4.70708e-07 )  
( 4.28449e-05 4.93022e-05 4.87915e-06 )  
( 1.98383e-05 1.80987e-06 1.22894e-06 )  
( -1.17138e-06 3.64986e-05 -2.46137e-05 )  
( 4.56687e-05 3.2548e-05 -5.04126e-06 )  
)
