FoamFile
{version 2.0; format ascii;class Cloud<passiveParticle>; location 0;object  positions;}
41
(
( 243.394 142.863 99.9163 ) 0 
( 294.284 336.209 99.9226 ) 0 
( 101.777 390.386 99.8494 ) 0 
( 436.396 194.894 99.775 ) 0 
( 50.9235 197.084 99.8299 ) 0 
( 373.672 26.8338 197.531 ) 0 
( 230.802 482.719 221.387 ) 0 
( 171.367 268.777 242.484 ) 0 
( 359.804 215.695 283.168 ) 0 
( 63.4036 103.86 276.109 ) 0 
( 404.381 483.873 320.58 ) 0 
( 43.6525 471.511 290.906 ) 0 
( 425.842 55.3551 388.393 ) 0 
( 206.451 397.086 400.246 ) 0 
( 234.201 111.575 398.711 ) 0 
( 83.2883 240.933 420.25 ) 0 
( 388.675 328.654 445.537 ) 0 
( 132.517 98.8493 570.344 ) 0 
( 28.3582 427.401 485.783 ) 0 
( 329.858 51.5474 563.691 ) 0 
( 228.171 273.784 556.078 ) 0 
( 413.08 225.835 615.116 ) 0 
( 13.6332 260.746 606.569 ) 0 
( 255.742 156.33 716.976 ) 0 
( 136.428 422.103 653.908 ) 0 
( 335.23 403.295 664.38 ) 0 
( 496.805 334.075 760.798 ) 0 
( 251.189 10.1724 853.333 ) 0 
( 60.8734 139.211 758.106 ) 0 
( 401.951 182.776 850.79 ) 0 
( 183.606 314.518 815.734 ) 0 
( 147.857 159.518 936.964 ) 0 
( 349.38 438.25 860.753 ) 0 
( 293.269 289.252 981.65 ) 0 
( 64.4705 431.783 925.462 ) 0 
( 197.185 2.42169 1050.43 ) 0 
( 410.826 448.613 1052.02 ) 0 
( 347.833 128.62 1087.5 ) 0 
( 78.4235 292.958 1068.72 ) 0 
( 246.981 308.366 1175.25 ) 0 
( 211.632 465.397 1056.56 ) 0 
)
