FoamFile
{version 2.0; format ascii;class Cloud<passiveParticle>; location 0;object  positions;}
344
(
( 1.96269 -0.814727 0.499617 ) 0 
( 3.20549 -2.12563 0.499621 ) 0 
( 0.265658 -1.42505 0.499906 ) 0 
( 1.28077 -1.54655 0.499922 ) 0 
( 0.161251 -3.71769 0.499967 ) 0 
( 4.64675 -3.15766 0.499944 ) 0 
( 0.953523 -0.601663 0.499929 ) 0 
( 1.32036 -3.07967 0.499793 ) 0 
( 4.07731 -3.97969 0.499975 ) 0 
( 1.58992 -4.98566 0.499883 ) 0 
( 3.23558 -4.88781 0.4997 ) 0 
( 3.92407 -0.825223 0.499834 ) 0 
( 0.119908 -4.94617 0.499601 ) 0 
( 2.86045 -3.62224 0.499538 ) 0 
( 0.626866 -2.35939 0.499768 ) 0 
( 2.33551 -2.61835 0.499639 ) 0 
( 3.65685 -3.01792 0.499644 ) 0 
( 3.94448 -1.32508 1.36538 ) 0 
( 4.92392 -0.807878 0.499977 ) 0 
( 2.98348 -2.86031 1.22142 ) 0 
( 2.96904 -1.15411 0.499937 ) 0 
( 2.22386 -1.7011 0.881316 ) 0 
( 0.217623 -2.72888 1.3337 ) 0 
( 2.74096 -0.180597 0.499516 ) 0 
( 2.3839 -4.45178 0.790316 ) 0 
( 1.59357 -0.195211 1.19198 ) 0 
( 2.07565 -3.39355 1.07485 ) 0 
( 0.0524169 -0.547812 0.92995 ) 0 
( 0.820398 -3.52218 1.25109 ) 0 
( 1.40266 -2.31062 1.13328 ) 0 
( 0.764199 -4.75441 1.23947 ) 0 
( 4.25587 -1.76841 0.499755 ) 0 
( 1.18708 -4.07063 0.499833 ) 0 
( 4.58095 -4.03621 1.36336 ) 0 
( 4.49195 -0.0936932 1.05612 ) 0 
( 3.8678 -2.35068 1.21369 ) 0 
( 3.38138 -4.09667 1.20849 ) 0 
( 0.726523 -1.15791 1.34612 ) 0 
( 1.55741 -3.01588 1.84162 ) 0 
( 2.50761 -0.688706 1.32816 ) 0 
( 3.06409 -1.794 1.43202 ) 0 
( 2.24077 -2.30466 1.67835 ) 0 
( 1.55809 -4.17495 1.42242 ) 0 
( 1.14279 -0.51421 2.0256 ) 0 
( 3.17727 -0.985075 2.00848 ) 0 
( 0.764602 -2.08583 1.86945 ) 0 
( 2.14211 -0.0637028 2.01754 ) 0 
( 4.86693 -1.39341 1.74457 ) 0 
( 3.91423 -3.30518 1.50743 ) 0 
( 2.94524 -4.96825 1.45283 ) 0 
( 0.377035 -4.36204 2.07352 ) 0 
( 4.55924 -3.68578 2.29992 ) 0 
( 1.69694 -1.21708 1.57971 ) 0 
( 2.51068 -4.0462 1.69729 ) 0 
( 1.25943 -4.84304 2.1036 ) 0 
( 4.47893 -2.27854 2.00137 ) 0 
( 0.148388 -0.489136 1.92334 ) 0 
( 1.63034 -2.23956 2.46755 ) 0 
( 0.586939 -0.401469 2.86262 ) 0 
( 3.94253 -4.65928 1.81485 ) 0 
( 3.55142 -3.85404 2.26034 ) 0 
( 2.74198 -1.80377 2.38368 ) 0 
( 2.59917 -3.13633 2.10224 ) 0 
( 3.37749 -2.50942 2.07038 ) 0 
( 1.1975 -3.83365 2.29031 ) 0 
( 0.283833 -3.73309 2.84532 ) 0 
( 2.69591 -0.490774 2.73226 ) 0 
( 4.76153 -0.422886 1.96058 ) 0 
( 1.65743 -1.2463 2.57827 ) 0 
( 4.07353 -2.89635 2.67507 ) 0 
( 0.451894 -1.30651 2.41206 ) 0 
( 3.35718 -2.25058 3.03551 ) 0 
( 0.697651 -2.9697 2.34939 ) 0 
( 4.93446 -0.681423 2.91035 ) 0 
( 0.726143 -2.13533 2.89907 ) 0 
( 4.29099 -1.91503 2.91343 ) 0 
( 2.20946 -1.92726 3.22087 ) 0 
( 3.66948 -0.210016 1.61262 ) 0 
( 4.13957 -1.09486 2.36217 ) 0 
( 2.93223 -4.6279 2.39264 ) 0 
( 1.87096 -3.1559 2.78711 ) 0 
( 3.15571 -3.22408 2.92842 ) 0 
( 2.10358 -4.11173 2.6082 ) 0 
( 0.944645 -1.23703 3.27921 ) 0 
( 0.109977 -2.64927 3.49546 ) 0 
( 4.27794 -4.87058 2.73253 ) 0 
( 2.60121 -3.87793 3.44313 ) 0 
( 3.50303 -4.43408 3.19032 ) 0 
( 1.02264 -3.00454 3.29419 ) 0 
( 1.07294 -4.32015 3.155 ) 0 
( 4.00028 -3.59494 3.40968 ) 0 
( 4.80294 -4.14077 3.16984 ) 0 
( 3.35063 -1.25393 2.9554 ) 0 
( 1.72605 -0.300524 2.89524 ) 0 
( 4.06134 -2.62378 3.63924 ) 0 
( 3.72751 -0.306541 2.81867 ) 0 
( 0.103868 -4.57686 3.51327 ) 0 
( 0.247769 -1.71541 3.82565 ) 0 
( 3.13811 -0.615825 3.69522 ) 0 
( 4.91796 -3.23453 3.57595 ) 0 
( 3.02117 -1.69041 3.79215 ) 0 
( 4.19898 -4.44038 3.90833 ) 0 
( 0.498464 -3.64037 3.8605 ) 0 
( 4.14725 -0.938689 3.4703 ) 0 
( 1.14599 -2.15439 3.80631 ) 0 
( 1.64734 -3.68329 3.67956 ) 0 
( 2.26262 -0.136805 3.75731 ) 0 
( 0.683826 -0.695329 4.07773 ) 0 
( 0.354478 -2.48795 4.45143 ) 0 
( 4.76655 -2.61762 4.34812 ) 0 
( 3.80761 -1.2152 4.36922 ) 0 
( 2.01265 -4.59877 3.84652 ) 0 
( 3.01365 -2.7624 3.82254 ) 0 
( 2.01669 -2.75647 3.74528 ) 0 
( 1.88678 -1.03965 3.54916 ) 0 
( 1.11673 -4.34403 4.21036 ) 0 
( 0.0436914 -4.3132 4.47585 ) 0 
( 4.52699 -1.77068 3.87396 ) 0 
( 3.18839 -4.23175 4.17079 ) 0 
( 1.17515 -3.03347 4.28183 ) 0 
( 3.93417 -0.0206277 3.80351 ) 0 
( 2.49921 -1.03665 4.33939 ) 0 
( 1.94682 -3.9484 4.60319 ) 0 
( 4.68587 -3.69195 4.43416 ) 0 
( 2.78322 -3.4025 4.55512 ) 0 
( 3.61172 -2.19435 4.42235 ) 0 
( 4.63674 -0.56778 4.25929 ) 0 
( 3.7497 -3.20607 4.39001 ) 0 
( 3.06121 -2.63431 5.13173 ) 0 
( 0.711778 -1.49126 4.68228 ) 0 
( 3.87423 -4.06902 4.87962 ) 0 
( 3.04835 -1.57969 4.97444 ) 0 
( 1.78311 -4.93806 4.75845 ) 0 
( 2.35485 -0.527001 5.18733 ) 0 
( 3.23591 -0.462753 4.69621 ) 0 
( 1.96194 -2.9424 4.89195 ) 0 
( 4.68774 -1.74817 4.86029 ) 0 
( 1.61598 -0.574971 4.41863 ) 0 
( 2.75593 -4.75738 4.90327 ) 0 
( 1.67696 -1.59582 4.44335 ) 0 
( 2.47041 -2.20416 4.44939 ) 0 
( 0.709036 -3.68469 4.88042 ) 0 
( 4.12895 -0.613802 5.11929 ) 0 
( 1.35853 -1.01572 5.2784 ) 0 
( 1.54258 -3.6434 5.46822 ) 0 
( 3.28199 -4.33363 5.64053 ) 0 
( 0.090642 -4.69854 5.39729 ) 0 
( 1.18486 -2.31957 4.98236 ) 0 
( 1.91161 -2.82258 5.90413 ) 0 
( 4.48976 -3.07267 5.19421 ) 0 
( 3.57916 -3.38337 5.54459 ) 0 
( 3.21127 -0.836547 5.62335 ) 0 
( 1.49109 -0.0251314 5.24547 ) 0 
( 2.05891 -1.98418 5.33359 ) 0 
( 4.72198 -4.02149 5.40767 ) 0 
( 1.26996 -2.05683 5.94345 ) 0 
( 2.833 -0.507513 6.4887 ) 0 
( 0.53893 -0.0590777 5.60931 ) 0 
( 2.19639 -4.37989 5.64074 ) 0 
( 2.58263 -3.46399 5.53273 ) 0 
( 0.790423 -2.99769 5.60242 ) 0 
( 3.93519 -2.47831 5.77616 ) 0 
( 3.91983 -1.52935 5.46199 ) 0 
( 2.92892 -1.75119 5.95224 ) 0 
( 0.536982 -1.43675 5.66506 ) 0 
( 4.08908 -4.04476 6.18128 ) 0 
( 4.94256 -1.03815 5.51642 ) 0 
( 1.01177 -3.81337 6.29812 ) 0 
( 1.06912 -4.51106 5.31297 ) 0 
( 2.11516 -1.17135 5.91326 ) 0 
( 1.60725 -0.353268 6.18286 ) 0 
( 2.48782 -4.94298 6.41385 ) 0 
( 3.55615 -1.19777 6.50012 ) 0 
( 4.64829 -0.0806543 5.7867 ) 0 
( 1.10354 -4.80847 6.26689 ) 0 
( 2.08577 -1.96947 6.51468 ) 0 
( 3.77209 -3.151 6.49772 ) 0 
( 0.334219 -2.31194 6.18688 ) 0 
( 1.19093 -1.22768 6.49663 ) 0 
( 0.130639 -3.34101 6.31018 ) 0 
( 2.27132 -2.89589 6.84151 ) 0 
( 2.94436 -2.73691 6.1194 ) 0 
( 4.81412 -1.98072 5.82437 ) 0 
( 1.13755 -2.8507 6.53657 ) 0 
( 0.20235 -4.39198 6.39444 ) 0 
( 2.08194 -1.02234 6.9014 ) 0 
( 0.872316 -3.51427 7.24201 ) 0 
( 3.76803 -0.190477 6.6465 ) 0 
( 2.00499 -3.74927 6.39267 ) 0 
( 0.676837 -0.371661 6.54886 ) 0 
( 1.58958 -1.74138 7.39149 ) 0 
( 4.49141 -0.861717 6.39096 ) 0 
( 1.89789 -3.63935 7.39588 ) 0 
( 3.57704 -2.18417 6.6619 ) 0 
( 2.8456 -1.6435 7.07679 ) 0 
( 4.58909 -2.58233 6.59049 ) 0 
( 0.433959 -1.19328 7.28403 ) 0 
( 3.43496 -4.67826 6.59442 ) 0 
( 0.719344 -2.13212 7.09194 ) 0 
( 2.8429 -0.73177 7.48712 ) 0 
( 2.72067 -4.47462 7.26602 ) 0 
( 0.788578 -4.53449 7.19166 ) 0 
( 4.6978 -0.113551 7.02123 ) 0 
( 4.07105 -0.850065 7.3339 ) 0 
( 4.79925 -4.54611 6.67522 ) 0 
( 4.54929 -1.66424 6.9845 ) 0 
( 3.00338 -3.78666 6.42982 ) 0 
( 1.76264 -4.53184 6.96596 ) 0 
( 3.6122 -3.91284 7.21296 ) 0 
( 1.43859 -2.72572 7.48181 ) 0 
( 0.49961 -2.78829 7.81988 ) 0 
( 1.2608 -0.632173 7.31745 ) 0 
( 2.08504 -0.0564522 7.44289 ) 0 
( 4.39927 -3.29804 7.26235 ) 0 
( 3.18045 -2.88251 7.25751 ) 0 
( 3.52345 -1.54135 7.8048 ) 0 
( 4.06563 -2.36544 7.51508 ) 0 
( 1.56281 -1.71595 8.39071 ) 0 
( 1.23337 -4.10698 7.97845 ) 0 
( 1.97811 -0.907105 7.9575 ) 0 
( 4.61105 -4.21511 7.59963 ) 0 
( 3.58411 -0.171445 7.90072 ) 0 
( 2.37415 -2.75035 7.83368 ) 0 
( 1.20676 -2.64187 8.51582 ) 0 
( 1.81289 -4.96728 7.86456 ) 0 
( 4.61257 -1.67096 7.98231 ) 0 
( 0.434714 -3.634 8.35015 ) 0 
( 2.48134 -1.77011 7.99928 ) 0 
( 0.977268 -0.921147 8.23173 ) 0 
( 0.266665 -0.125946 8.27907 ) 0 
( 1.83625 -3.40398 8.36572 ) 0 
( 1.71184 -0.881363 8.92098 ) 0 
( 4.22529 -4.64501 8.41572 ) 0 
( 1.19105 -4.75876 8.73547 ) 0 
( 4.22185 -0.815721 8.32222 ) 0 
( 4.48132 -2.94089 8.21907 ) 0 
( 3.28469 -2.44802 8.15197 ) 0 
( 0.351495 -4.59583 8.0889 ) 0 
( 1.15159 -1.74901 9.30156 ) 0 
( 2.83573 -3.64245 7.80828 ) 0 
( 0.576096 -1.86664 8.48454 ) 0 
( 0.0933675 -4.05939 9.18823 ) 0 
( 1.78283 -2.86822 9.30118 ) 0 
( 0.0811458 -1.95237 9.36504 ) 0 
( 0.452813 -1.07015 9.07623 ) 0 
( 2.26879 -1.98131 9.04719 ) 0 
( 1.72646 -4.02048 9.1452 ) 0 
( 2.32031 -4.27863 8.3822 ) 0 
( 2.6418 -2.87248 8.78932 ) 0 
( 0.256207 -2.76023 8.8024 ) 0 
( 3.77089 -3.64234 8.16246 ) 0 
( 3.15341 -1.64136 8.72829 ) 0 
( 2.82519 -0.685266 8.48573 ) 0 
( 0.967851 -0.217192 8.9934 ) 0 
( 3.27847 -4.41087 8.63576 ) 0 
( 1.1509 -0.850149 9.75744 ) 0 
( 4.90754 -4.63832 9.17992 ) 0 
( 3.35451 -2.06792 9.60992 ) 0 
( 0.944159 -3.39852 9.17758 ) 0 
( 4.16621 -1.62616 8.90524 ) 0 
( 3.59737 -0.828367 9.10472 ) 0 
( 2.19057 -3.90669 10.0235 ) 0 
( 4.60269 -3.78075 8.74783 ) 0 
( 2.7002 -3.79494 9.17054 ) 0 
( 2.84906 -3.00038 9.75913 ) 0 
( 4.68024 -0.824734 9.21073 ) 0 
( 3.88577 -2.58529 8.93918 ) 0 
( 0.777172 -2.57592 9.72098 ) 0 
( 3.66493 -3.53211 9.17248 ) 0 
( 0.586717 -1.6335 10.1666 ) 0 
( 2.61147 -1.0993 9.37043 ) 0 
( 4.0809 -0.233391 9.7502 ) 0 
( 1.83557 -2.10106 9.94044 ) 0 
( 2.07323 -0.706212 10.1158 ) 0 
( 4.46057 -2.20652 9.66446 ) 0 
( 0.986399 -4.38953 9.70721 ) 0 
( 0.126613 -0.767362 9.97161 ) 0 
( 0.0764569 -4.74011 9.92834 ) 0 
( 1.31784 -3.42531 10.1046 ) 0 
( 4.5863 -3.5399 9.71814 ) 0 
( 3.96393 -4.44534 9.4487 ) 0 
( 4.07295 -1.30132 9.84635 ) 0 
( 3.24239 -3.993 9.98694 ) 0 
( 3.1885 -0.598353 10.0154 ) 0 
( 1.45854 -1.35253 10.5677 ) 0 
( 3.82835 -2.92629 9.95105 ) 0 
( 1.29539 -0.237872 10.5347 ) 0 
( 2.14937 -3.02058 10.4849 ) 0 
( 0.365691 -3.84775 10.2744 ) 0 
( 3.86946 -2.05851 10.467 ) 0 
( 2.76441 -2.23685 10.3993 ) 0 
( 3.64191 -4.85351 10.3029 ) 0 
( 4.24243 -0.638876 10.6498 ) 0 
( 2.65362 -4.78086 10.169 ) 0 
( 3.47282 -1.23624 10.8749 ) 0 
( 0.0922051 -1.54396 11.1043 ) 0 
( 3.20306 -3.25388 10.6593 ) 0 
( 1.92436 -2.15704 10.936 ) 0 
( 3.28022 -4.22198 10.9886 ) 0 
( 0.152012 -4.34718 11.1139 ) 0 
( 1.74399 -3.82782 10.9147 ) 0 
( 0.656316 -3.00365 10.7247 ) 0 
( 2.48555 -1.34787 10.7623 ) 0 
( 4.06005 -3.79784 10.5283 ) 0 
( 0.928693 -2.08187 11.0003 ) 0 
( 1.85174 -0.778976 11.2863 ) 0 
( 3.30608 -2.37846 11.2286 ) 0 
( 1.04649 -4.51076 10.6979 ) 0 
( 4.68479 -4.4758 10.1411 ) 0 
( 0.456324 -0.6336 10.9079 ) 0 
( 4.62024 -1.2863 11.3115 ) 0 
( 1.02092 -3.89217 11.6024 ) 0 
( 2.52934 -3.84865 11.5333 ) 0 
( 3.82118 -3.48393 11.4472 ) 0 
( 4.91833 -3.70993 11.7076 ) 0 
( 1.46083 -2.9571 11.3167 ) 0 
( 2.56814 -1.83658 11.6308 ) 0 
( 1.37395 -1.54477 11.7166 ) 0 
( 2.82952 -0.549375 11.2563 ) 0 
( 3.4803 -4.95324 11.6407 ) 0 
( 4.85818 -1.94358 10.5624 ) 0 
( 2.10859 -4.9692 10.9859 ) 0 
( 4.3167 -2.87806 10.8249 ) 0 
( 2.4499 -2.85653 11.4244 ) 0 
( 4.13661 -4.27506 11.9712 ) 0 
( 4.55561 -2.25109 11.5663 ) 0 
( 0.302599 -3.20086 11.6801 ) 0 
( 2.26529 -0.244828 12.0236 ) 0 
( 1.82816 -2.3743 12.0415 ) 0 
( 4.03748 -0.482105 11.6159 ) 0 
( 0.171337 -4.10653 12.0843 ) 0 
( 0.348829 -2.20979 11.8048 ) 0 
( 3.75419 -2.48684 12.116 ) 0 
( 1.81468 -3.45267 12.1099 ) 0 
( 3.77405 -1.54643 11.7766 ) 0 
( 4.28495 -4.62347 11.0456 ) 0 
( 3.00636 -1.0095 12.1263 ) 0 
( 0.4698 -1.28872 12.1749 ) 0 
( 2.0445 -1.16296 12.3527 ) 0 
( 3.09399 -3.23737 12.0878 ) 0 
( 0.993811 -0.552205 11.7472 ) 0 
( 4.43483 -1.8371 12.4685 ) 0 
( 1.31271 -4.84861 11.6007 ) 0 
( 1.77519 -4.41616 12.3747 ) 0 
)
