FoamFile
{version 2.0; format ascii;class vectorField; location 0;object  v;}
344
(
( 2.05699e-06 5.39468e-06 8.81018e-07 )  
( 1.84548e-06 3.53249e-06 -2.80756e-07 )  
( 7.27492e-07 4.41347e-06 4.4063e-07 )  
( 2.08326e-06 3.19832e-06 4.89542e-07 )  
( 1.35037e-06 4.87496e-06 -7.37554e-10 )  
( 1.94868e-06 1.62867e-06 -9.7046e-07 )  
( 1.10722e-06 3.16749e-06 2.89412e-07 )  
( 1.14006e-06 3.59319e-06 3.13001e-07 )  
( 5.06172e-07 1.90812e-06 -1.81567e-07 )  
( 1.40613e-06 2.18736e-06 -4.90926e-07 )  
( 2.73855e-06 5.92403e-06 2.82479e-07 )  
( 2.3764e-06 2.48248e-06 -2.61554e-07 )  
( 1.74378e-06 6.12241e-06 -6.33755e-07 )  
( 7.09044e-07 3.52163e-06 8.50913e-07 )  
( 8.93752e-06 9.5484e-06 -1.05549e-06 )  
( 1.1398e-06 4.3833e-06 4.57579e-07 )  
( 1.33091e-06 2.47336e-06 1.00966e-06 )  
( 6.42096e-06 7.5494e-06 1.14945e-06 )  
( 2.84044e-06 2.62776e-06 1.26189e-07 )  
( 2.59575e-06 8.33979e-06 2.42365e-06 )  
( 2.74152e-06 2.96334e-06 -1.32901e-07 )  
( 3.84565e-06 5.36248e-06 9.10334e-07 )  
( 9.20615e-06 1.4936e-05 -1.64328e-07 )  
( 2.98907e-06 4.47751e-06 -1.96054e-08 )  
( 1.82375e-06 2.12917e-06 1.07734e-06 )  
( 3.9953e-06 9.61486e-06 -3.81363e-07 )  
( 2.85598e-06 8.02263e-06 1.63256e-06 )  
( 3.22516e-06 6.55284e-06 7.73563e-07 )  
( 6.43994e-06 1.13254e-05 -2.34327e-06 )  
( 4.83398e-06 5.06791e-06 9.86974e-07 )  
( 4.3526e-06 1.11445e-05 -2.00556e-06 )  
( 1.26483e-06 2.68858e-06 -5.75287e-07 )  
( 3.16082e-06 3.87065e-06 6.78772e-07 )  
( 6.34668e-06 1.07918e-05 -6.83799e-07 )  
( 5.16354e-06 8.7317e-06 2.00678e-06 )  
( 2.29193e-06 8.18646e-06 4.51108e-07 )  
( 2.38124e-06 9.46535e-06 2.28842e-06 )  
( 4.1036e-06 4.96495e-06 -1.87897e-06 )  
( 5.43579e-06 1.04503e-05 2.86096e-06 )  
( 3.30396e-06 7.15052e-06 1.91665e-07 )  
( 6.21045e-06 6.95575e-06 8.71383e-07 )  
( 5.40366e-06 9.52572e-06 2.12118e-06 )  
( 4.45749e-06 1.01621e-05 9.3107e-07 )  
( 4.59974e-06 7.11978e-06 -1.2129e-06 )  
( 6.14592e-06 1.0622e-05 -1.62557e-06 )  
( 9.03496e-06 1.19841e-05 3.5346e-06 )  
( 6.98609e-06 1.21826e-05 -6.94878e-07 )  
( 6.4684e-06 1.29986e-05 2.23546e-06 )  
( 5.77437e-06 1.01596e-05 -1.85418e-06 )  
( 5.53323e-06 1.22541e-05 1.28939e-06 )  
( 4.51748e-06 1.32699e-05 -2.45514e-06 )  
( 5.36467e-06 1.48561e-05 -1.76192e-06 )  
( 3.56004e-06 7.67661e-06 -7.15799e-07 )  
( 4.11087e-06 1.27256e-05 3.0126e-06 )  
( 3.56459e-06 1.23741e-05 -1.452e-06 )  
( 4.89165e-06 1.32084e-05 8.12462e-07 )  
( 5.39164e-06 1.12139e-05 6.33137e-07 )  
( 8.08937e-06 1.29105e-05 3.17394e-06 )  
( 1.08521e-05 1.73753e-05 2.5758e-06 )  
( 6.52414e-06 1.31532e-05 4.52318e-07 )  
( 6.22602e-06 1.38371e-05 -1.82657e-06 )  
( 6.72392e-06 1.73947e-05 -7.18666e-07 )  
( 7.33162e-06 1.20501e-05 4.931e-06 )  
( 5.49914e-06 1.42918e-05 3.34047e-07 )  
( 4.23892e-06 1.16763e-05 1.38264e-06 )  
( 2.80759e-06 1.17739e-05 6.23679e-07 )  
( 7.87147e-06 1.24283e-05 1.33672e-06 )  
( 8.13715e-06 1.44386e-05 2.23218e-06 )  
( 7.14927e-06 1.49042e-05 -7.728e-07 )  
( 4.04221e-06 1.2948e-05 -3.25353e-07 )  
( 1.02525e-05 1.51592e-05 1.54182e-06 )  
( 8.53983e-06 1.93052e-05 -1.50698e-07 )  
( 5.77862e-06 1.44486e-05 2.74486e-06 )  
( 1.17771e-05 1.90612e-05 1.49024e-06 )  
( 1.07227e-05 1.66811e-05 1.53395e-06 )  
( 8.13945e-06 1.80464e-05 4.4986e-07 )  
( 1.1741e-05 2.20355e-05 2.30929e-06 )  
( 4.22886e-06 9.08496e-06 -2.59023e-06 )  
( 9.83435e-06 1.62939e-05 1.47741e-06 )  
( 7.13361e-06 1.40807e-05 6.64416e-07 )  
( 8.16309e-06 1.27641e-05 3.92065e-06 )  
( 5.00058e-06 1.86653e-05 -4.54252e-06 )  
( 4.98801e-06 1.21023e-05 2.14178e-06 )  
( 1.11875e-05 1.76862e-05 1.93987e-06 )  
( 1.04329e-05 1.96264e-05 2.57456e-06 )  
( 8.80995e-06 1.51691e-05 -9.47577e-07 )  
( 7.354e-06 1.98313e-05 -3.03151e-07 )  
( 8.53243e-06 1.89599e-05 -6.45043e-07 )  
( 9.69061e-06 1.79321e-05 2.67409e-06 )  
( 2.2828e-06 1.23205e-05 -2.63004e-07 )  
( 9.3032e-06 2.02745e-05 -1.36593e-06 )  
( 7.60564e-06 1.81581e-05 -1.96559e-06 )  
( 1.07181e-05 1.90233e-05 -1.02535e-06 )  
( 5.98428e-06 1.66904e-05 -1.097e-06 )  
( 1.08762e-05 2.07401e-05 -1.22059e-06 )  
( 1.12617e-05 1.60149e-05 1.76672e-06 )  
( 1.0642e-05 2.47056e-05 -4.68828e-06 )  
( 1.16902e-05 1.93903e-05 6.66879e-07 )  
( 1.08253e-05 2.01437e-05 1.47691e-07 )  
( 1.07234e-05 1.8816e-05 -2.1594e-06 )  
( 1.26381e-05 2.27276e-05 -2.78614e-07 )  
( 9.72702e-06 2.02857e-05 -4.73154e-07 )  
( 1.20621e-05 1.9964e-05 5.631e-06 )  
( 1.08121e-05 2.15941e-05 6.06534e-07 )  
( 1.24803e-05 2.1291e-05 6.10132e-07 )  
( 1.31354e-05 2.04386e-05 1.44506e-06 )  
( 1.19018e-05 2.19669e-05 8.93092e-07 )  
( 1.16267e-05 2.27227e-05 1.61509e-07 )  
( 1.43959e-05 2.30429e-05 2.90315e-06 )  
( 1.3522e-05 2.20697e-05 -2.70154e-06 )  
( 1.34306e-05 2.29994e-05 7.40563e-07 )  
( 1.02914e-05 1.96558e-05 2.92632e-07 )  
( 1.15446e-05 2.33774e-05 1.48774e-06 )  
( 1.22351e-05 2.03089e-05 -2.25102e-06 )  
( 1.18473e-05 2.14313e-05 -8.69121e-08 )  
( 1.41302e-05 2.20872e-05 7.37222e-06 )  
( 2.1448e-05 2.66719e-05 -4.28548e-06 )  
( 1.12001e-05 2.14288e-05 7.36442e-08 )  
( 1.2191e-05 2.57827e-05 4.18049e-08 )  
( 1.55817e-05 2.47283e-05 2.18966e-06 )  
( 1.13275e-05 2.19808e-05 2.30397e-07 )  
( 1.43499e-05 2.5655e-05 -1.84037e-06 )  
( 1.73541e-05 1.75975e-05 6.05873e-06 )  
( 1.28671e-05 2.30713e-05 -1.76072e-06 )  
( 1.46176e-05 2.58174e-05 2.08169e-06 )  
( 1.35982e-05 2.31866e-05 -1.17186e-06 )  
( 1.13878e-05 2.44086e-05 3.33215e-07 )  
( 1.34602e-05 2.39075e-05 -2.31745e-07 )  
( 1.71801e-05 2.79906e-05 1.12213e-06 )  
( 1.30185e-05 2.41397e-05 4.51317e-08 )  
( 1.474e-05 2.65447e-05 -7.66917e-07 )  
( 1.69107e-05 2.83585e-05 -3.20399e-06 )  
( 1.61856e-05 2.27871e-05 1.97057e-06 )  
( 1.12739e-05 2.75699e-05 -3.36606e-06 )  
( 1.36841e-05 2.6107e-05 6.54697e-07 )  
( 1.56595e-05 2.71503e-05 1.57403e-06 )  
( 1.85747e-05 2.74078e-05 6.46077e-07 )  
( 1.32069e-05 2.34284e-05 -2.17001e-06 )  
( 1.5018e-05 2.75854e-05 2.83936e-06 )  
( 1.35185e-05 2.57062e-05 -1.20796e-06 )  
( 1.49321e-05 2.58771e-05 1.68499e-06 )  
( 1.64807e-05 2.61902e-05 9.95963e-07 )  
( 1.42393e-05 2.92958e-05 2.13498e-06 )  
( 1.53722e-05 2.60942e-05 -5.10374e-07 )  
( 1.78469e-05 3.0388e-05 3.82946e-06 )  
( 1.9323e-05 3.03383e-05 5.97103e-07 )  
( 1.81245e-05 2.63443e-05 -3.55484e-06 )  
( 1.61822e-05 2.69071e-05 8.68356e-07 )  
( 1.92245e-05 3.13103e-05 6.52702e-07 )  
( 1.77516e-05 2.61527e-05 -1.82926e-06 )  
( 1.79634e-05 2.80582e-05 6.84964e-07 )  
( 2.03178e-05 2.55325e-05 2.1415e-08 )  
( 1.49595e-05 2.81018e-05 -2.42998e-06 )  
( 1.68053e-05 2.8409e-05 6.8361e-07 )  
( 1.60782e-05 2.70889e-05 -2.79754e-07 )  
( 1.95059e-05 3.20892e-05 1.60352e-06 )  
( 2.35953e-05 3.7187e-05 3.598e-06 )  
( 1.85773e-05 2.94395e-05 1.08351e-06 )  
( 1.80268e-05 3.04992e-05 4.15658e-06 )  
( 1.75421e-05 2.92912e-05 1.70718e-06 )  
( 1.88642e-05 2.61928e-05 3.01035e-06 )  
( 1.8355e-05 2.85568e-05 -3.75395e-06 )  
( 1.64071e-05 2.81526e-05 -2.29299e-06 )  
( 2.43769e-05 3.46117e-05 -2.73928e-06 )  
( 1.80618e-05 3.06708e-05 5.9846e-07 )  
( 2.00383e-05 3.1579e-05 1.24414e-06 )  
( 1.69851e-05 3.40287e-05 9.29222e-07 )  
( 2.11714e-05 3.33138e-05 4.02084e-06 )  
( 1.8723e-05 2.8093e-05 1.62384e-06 )  
( 1.87773e-05 3.02582e-05 -1.57259e-06 )  
( 2.02864e-05 3.17697e-05 -2.90256e-06 )  
( 2.15141e-05 3.31649e-05 4.87243e-06 )  
( 2.01213e-05 3.49651e-05 2.0328e-06 )  
( 1.60348e-05 3.19444e-05 -8.10558e-07 )  
( 2.19051e-05 3.39049e-05 2.24501e-06 )  
( 2.14807e-05 3.47048e-05 2.60317e-06 )  
( 2.23516e-05 3.2923e-05 3.85319e-07 )  
( 2.10447e-05 3.31425e-05 2.39567e-06 )  
( 2.18328e-05 3.36685e-05 9.93657e-07 )  
( 2.08924e-05 3.25602e-05 9.03093e-08 )  
( 2.70002e-05 3.71116e-05 4.21857e-06 )  
( 2.36045e-05 3.57381e-05 2.49969e-06 )  
( 2.1888e-05 3.49052e-05 1.39586e-06 )  
( 2.10623e-05 3.4147e-05 2.97191e-06 )  
( 2.02622e-05 3.52339e-05 1.45548e-06 )  
( 2.25295e-05 3.53691e-05 -1.45269e-06 )  
( 2.267e-05 3.5254e-05 4.39914e-06 )  
( 2.31319e-05 3.64848e-05 2.88697e-06 )  
( 2.19532e-05 3.28941e-05 2.55336e-06 )  
( 2.19295e-05 3.48958e-05 2.13298e-06 )  
( 2.5148e-05 3.54579e-05 -3.4254e-08 )  
( 1.94212e-05 3.45359e-05 2.91388e-06 )  
( 2.56026e-05 3.7372e-05 6.90195e-07 )  
( 2.29297e-05 3.46535e-05 -3.52734e-06 )  
( 2.52076e-05 3.84612e-05 -6.85972e-07 )  
( 2.17876e-05 3.53127e-05 1.56974e-06 )  
( 2.42453e-05 3.88973e-05 3.89013e-06 )  
( 2.24656e-05 3.27542e-05 3.4516e-06 )  
( 2.3928e-05 3.73013e-05 1.09591e-06 )  
( 2.61522e-05 3.93596e-05 5.11031e-07 )  
( 2.64264e-05 3.78825e-05 1.5207e-06 )  
( 2.19594e-05 3.56373e-05 4.47343e-07 )  
( 2.40021e-05 3.60826e-05 2.3129e-06 )  
( 2.84674e-05 4.1146e-05 3.88194e-06 )  
( 2.32294e-05 3.52633e-05 -5.15606e-07 )  
( 2.10677e-05 3.64563e-05 3.63453e-06 )  
( 2.23104e-05 3.22661e-05 1.32258e-06 )  
( 2.19885e-05 3.64888e-05 3.43888e-06 )  
( 2.35611e-05 3.46152e-05 2.27287e-06 )  
( 2.62142e-05 3.6542e-05 9.8145e-07 )  
( 2.52955e-05 3.76902e-05 2.79368e-06 )  
( 2.56408e-05 3.79206e-05 5.89226e-07 )  
( 2.47899e-05 3.69279e-05 -1.85487e-06 )  
( 2.33229e-05 3.66425e-05 3.88422e-07 )  
( 2.76254e-05 3.8122e-05 1.87929e-06 )  
( 2.72597e-05 4.0166e-05 -8.64438e-07 )  
( 2.67986e-05 3.95097e-05 -3.61692e-06 )  
( 2.85289e-05 4.18063e-05 1.55491e-07 )  
( 2.34736e-05 4.05874e-05 -9.76159e-07 )  
( 2.7099e-05 3.97816e-05 -3.42039e-07 )  
( 2.6736e-05 3.88581e-05 -3.71033e-08 )  
( 2.6656e-05 4.63821e-05 4.77685e-06 )  
( 2.76359e-05 4.10156e-05 -1.03928e-07 )  
( 2.95319e-05 4.31357e-05 1.64254e-06 )  
( 2.51856e-05 4.00062e-05 3.92168e-06 )  
( 2.02846e-05 4.13055e-05 4.42642e-06 )  
( 2.67199e-05 4.19238e-05 1.9819e-06 )  
( 2.6962e-05 4.15165e-05 1.34484e-06 )  
( 2.66101e-05 4.05962e-05 2.17713e-07 )  
( 2.88359e-05 4.23993e-05 -4.09842e-06 )  
( 2.7404e-05 4.19124e-05 8.32575e-07 )  
( 2.62428e-05 4.1755e-05 -1.29132e-06 )  
( 2.89238e-05 4.08147e-05 7.51143e-07 )  
( 3.05393e-05 4.19681e-05 -1.34564e-08 )  
( 2.94064e-05 4.74633e-05 2.16035e-06 )  
( 2.67994e-05 4.15111e-05 -2.35819e-06 )  
( 2.68905e-05 4.16279e-05 5.42853e-07 )  
( 2.64167e-05 3.97406e-05 6.89415e-07 )  
( 2.9964e-05 4.56556e-05 -1.09889e-06 )  
( 2.53761e-05 3.97456e-05 4.68493e-07 )  
( 3.06329e-05 4.40552e-05 -8.51863e-07 )  
( 2.76241e-05 4.41884e-05 2.74955e-06 )  
( 2.85064e-05 4.35703e-05 2.41077e-06 )  
( 3.24767e-05 4.52141e-05 -2.30555e-06 )  
( 3.01514e-05 4.52385e-05 1.27568e-08 )  
( 2.89951e-05 4.54418e-05 1.48658e-06 )  
( 3.07171e-05 4.25156e-05 8.20201e-07 )  
( 2.70125e-05 4.18077e-05 1.59859e-06 )  
( 2.66643e-05 4.42715e-05 9.25108e-07 )  
( 2.89577e-05 4.34471e-05 -7.46448e-07 )  
( 2.59788e-05 4.08837e-05 5.54686e-07 )  
( 2.91838e-05 4.34601e-05 1.10243e-06 )  
( 2.94006e-05 3.98777e-05 1.12584e-07 )  
( 3.04152e-05 4.54081e-05 1.44536e-06 )  
( 2.87284e-05 4.40399e-05 -4.18067e-07 )  
( 3.0312e-05 4.86472e-05 1.34771e-06 )  
( 2.98082e-05 4.62361e-05 -1.98413e-06 )  
( 3.65195e-05 4.93601e-05 3.12731e-06 )  
( 2.9619e-05 4.36193e-05 1.42909e-06 )  
( 3.01534e-05 4.67475e-05 5.56971e-07 )  
( 2.90587e-05 4.47346e-05 2.03693e-06 )  
( 3.31364e-05 4.78293e-05 1.04414e-06 )  
( 2.91733e-05 4.24854e-05 -9.35206e-07 )  
( 2.96604e-05 4.50535e-05 -1.23186e-07 )  
( 3.44768e-05 4.82645e-05 -5.13789e-07 )  
( 3.06859e-05 4.58282e-05 1.67674e-06 )  
( 3.01074e-05 4.62424e-05 -1.66858e-07 )  
( 3.14697e-05 4.56725e-05 -5.75499e-07 )  
( 2.92271e-05 4.61597e-05 -2.68851e-06 )  
( 3.07439e-05 4.43674e-05 1.01382e-06 )  
( 3.17153e-05 4.65946e-05 3.0814e-06 )  
( 3.17249e-05 4.77717e-05 3.55531e-06 )  
( 2.71307e-05 4.55008e-05 6.22197e-07 )  
( 3.06978e-05 4.93703e-05 2.69108e-06 )  
( 3.07113e-05 4.58316e-05 -1.9981e-07 )  
( 3.13977e-05 4.42059e-05 -9.73192e-07 )  
( 3.19756e-05 4.59571e-05 6.35494e-07 )  
( 3.1438e-05 4.70806e-05 -1.30319e-07 )  
( 3.29863e-05 4.82817e-05 7.13868e-07 )  
( 3.04935e-05 4.76343e-05 -1.83423e-06 )  
( 2.93616e-05 4.62485e-05 -2.77416e-06 )  
( 3.24448e-05 4.87707e-05 2.24904e-06 )  
( 3.05785e-05 4.75262e-05 3.563e-07 )  
( 3.16589e-05 4.85246e-05 1.85274e-06 )  
( 3.09766e-05 4.81756e-05 2.03767e-06 )  
( 3.5438e-05 4.17259e-05 -7.56637e-07 )  
( 3.28437e-05 4.97959e-05 3.15803e-06 )  
( 3.47878e-05 5.02353e-05 -3.04644e-06 )  
( 3.4434e-05 4.6756e-05 -2.53047e-07 )  
( 3.58838e-05 5.36546e-05 4.81522e-06 )  
( 3.49806e-05 5.01441e-05 1.29993e-06 )  
( 3.35167e-05 5.06615e-05 1.05165e-06 )  
( 3.34253e-05 4.97666e-05 2.78016e-06 )  
( 3.30237e-05 4.78736e-05 2.99185e-06 )  
( 3.16237e-05 5.26725e-05 4.56145e-06 )  
( 3.39295e-05 5.00098e-05 5.49987e-07 )  
( 3.22857e-05 4.78702e-05 -3.09611e-07 )  
( 3.39577e-05 4.9104e-05 -6.04447e-07 )  
( 3.32101e-05 5.46239e-05 1.13111e-06 )  
( 3.9305e-05 5.57574e-05 5.53399e-06 )  
( 3.2979e-05 4.95431e-05 2.47287e-08 )  
( 3.34259e-05 4.68157e-05 1.36891e-06 )  
( 3.15247e-05 4.98522e-05 1.57147e-06 )  
( 3.17722e-05 5.2299e-05 -5.1948e-07 )  
( 3.16898e-05 4.76954e-05 3.33241e-06 )  
( 3.17085e-05 4.92353e-05 3.07104e-06 )  
( 3.42439e-05 5.3335e-05 2.21143e-06 )  
( 3.2751e-05 5.1106e-05 -1.00433e-06 )  
( 3.17666e-05 5.20997e-05 -3.06996e-06 )  
( 3.38951e-05 5.05408e-05 3.67161e-06 )  
( 3.46822e-05 4.95354e-05 -9.76653e-07 )  
( 3.69672e-05 5.56579e-05 6.16408e-06 )  
( 3.12081e-05 5.32856e-05 1.36787e-06 )  
( 3.03213e-05 5.11745e-05 -1.69797e-07 )  
( 3.31859e-05 4.86197e-05 1.46802e-06 )  
( 3.32732e-05 5.14314e-05 -2.39785e-08 )  
( 3.21638e-05 4.96465e-05 1.41951e-06 )  
( 2.77646e-05 5.22267e-05 4.12246e-06 )  
( 3.19132e-05 4.9058e-05 3.61835e-06 )  
( 3.24258e-05 5.31163e-05 -1.70142e-06 )  
( 3.63362e-05 4.82311e-05 4.33731e-06 )  
( 3.17454e-05 4.55683e-05 1.67179e-06 )  
( 3.24617e-05 5.16384e-05 3.91885e-06 )  
( 3.39566e-05 5.21923e-05 -7.21522e-07 )  
( 3.08698e-05 5.29599e-05 1.76832e-06 )  
( 3.60156e-05 5.12624e-05 2.70084e-06 )  
( 3.71911e-05 5.56799e-05 5.90292e-06 )  
( 3.22574e-05 4.95677e-05 3.88593e-06 )  
( 3.39428e-05 5.28201e-05 -2.07685e-06 )  
( 3.94039e-05 4.96107e-05 4.24952e-06 )  
( 3.39495e-05 5.26523e-05 4.7913e-06 )  
( 2.70544e-05 5.56039e-05 3.44787e-06 )  
( 3.48587e-05 5.13676e-05 3.34441e-06 )  
( 3.22168e-05 5.61011e-05 2.14459e-06 )  
( 3.54532e-05 5.3028e-05 5.14351e-06 )  
( 3.33922e-05 5.19101e-05 -2.93196e-06 )  
( 3.23616e-05 5.15357e-05 2.13521e-06 )  
( 2.95866e-05 5.44948e-05 3.80674e-06 )  
( 3.27243e-05 4.86161e-05 2.20703e-06 )  
( 3.18101e-05 5.36677e-05 -2.2805e-07 )  
( 3.20151e-05 5.49912e-05 5.23672e-06 )  
( 4.25861e-05 5.65867e-05 4.73092e-07 )  
( 3.74936e-05 5.46541e-05 -1.05874e-06 )  
( 3.99947e-05 5.63768e-05 -1.00758e-06 )  
)
