/*--------------------------------*- C++ -*----------------------------------*\
| =========                 |                                                 |
| \\      /  F ield         | OpenFOAM: The Open Source CFD Toolbox           |
|  \\    /   O peration     | Version:  5.x                                   |
|   \\  /    A nd           | Web:      www.OpenFOAM.org                      |
|    \\/     M anipulation  |                                                 |
\*---------------------------------------------------------------------------*/
FoamFile
{
    version     2.0;
    format      ascii;
    class       volVectorField;
    location    "0.09";
    object      U;
}
// * * * * * * * * * * * * * * * * * * * * * * * * * * * * * * * * * * * * * //

dimensions      [0 1 -1 0 0 0 0];

internalField   nonuniform List<vector> 
2250
(
(-3.36185e-11 -1.8377e-10 -0.000999999)
(-1.02394e-10 -1.85566e-10 -0.000999999)
(-1.44667e-10 -1.82459e-10 -0.001)
(-1.4201e-10 -1.78196e-10 -0.001)
(-2.38033e-10 -1.81992e-10 -0.001)
(-3.64341e-11 -1.67154e-10 -0.001)
(-1.01287e-10 -1.65927e-10 -0.001)
(-1.58476e-10 -1.6916e-10 -0.001)
(-2.04705e-10 -1.98715e-10 -0.001)
(-2.42972e-10 -2.64497e-10 -0.001)
(-3.19922e-11 -1.25622e-10 -0.001)
(-1.03985e-10 -1.22529e-10 -0.001)
(-1.77422e-10 -1.35397e-10 -0.001)
(-2.37315e-10 -1.53977e-10 -0.001)
(-2.57913e-10 -1.85491e-10 -0.001)
(-3.30473e-11 -7.45434e-11 -0.001)
(-1.10738e-10 -7.91464e-11 -0.001)
(-1.89877e-10 -8.74725e-11 -0.001)
(-2.54761e-10 -9.41148e-11 -0.001)
(-2.72771e-10 -1.08853e-10 -0.001)
(-3.63356e-11 -2.56886e-11 -0.001)
(-1.16479e-10 -2.91042e-11 -0.001)
(-1.91945e-10 -3.17198e-11 -0.001)
(-2.58108e-10 -3.15845e-11 -0.001)
(-2.77547e-10 -3.56176e-11 -0.001)
(-9.43476e-11 -4.98341e-10 -0.000999999)
(-2.78558e-10 -4.97176e-10 -0.000999999)
(-4.01239e-10 -5.03276e-10 -0.001)
(-4.1492e-10 -5.06542e-10 -0.001)
(-6.5917e-10 -4.69694e-10 -0.001)
(-9.89809e-11 -4.50495e-10 -0.001)
(-2.89894e-10 -4.52472e-10 -0.001)
(-4.47993e-10 -4.7078e-10 -0.001)
(-5.45489e-10 -5.36164e-10 -0.001)
(-6.7277e-10 -6.73935e-10 -0.001)
(-9.53235e-11 -3.52944e-10 -0.001)
(-2.97838e-10 -3.51298e-10 -0.001)
(-4.84854e-10 -3.71423e-10 -0.001)
(-6.18085e-10 -4.15504e-10 -0.001)
(-6.94524e-10 -4.86882e-10 -0.001)
(-9.65998e-11 -2.15651e-10 -0.001)
(-3.07595e-10 -2.23876e-10 -0.001)
(-5.12085e-10 -2.44439e-10 -0.001)
(-6.6087e-10 -2.63011e-10 -0.001)
(-7.16971e-10 -2.91258e-10 -0.001)
(-1.02922e-10 -7.35213e-11 -0.001)
(-3.2553e-10 -8.01493e-11 -0.001)
(-5.22869e-10 -9.2187e-11 -0.001)
(-6.63495e-10 -9.19495e-11 -0.001)
(-7.16296e-10 -9.61386e-11 -0.001)
(-1.72535e-10 -8.99814e-10 -0.000999999)
(-4.94034e-10 -9.01572e-10 -0.000999999)
(-7.58153e-10 -9.19845e-10 -0.001)
(-8.94679e-10 -9.47355e-10 -0.001)
(-1.1243e-09 -8.91965e-10 -0.001)
(-1.7209e-10 -8.15835e-10 -0.001)
(-5.02211e-10 -8.2e-10 -0.001)
(-7.9341e-10 -8.48311e-10 -0.001)
(-9.97258e-10 -9.04226e-10 -0.001)
(-1.15819e-09 -1.01281e-09 -0.001)
(-1.74989e-10 -6.33243e-10 -0.001)
(-5.2481e-10 -6.43425e-10 -0.001)
(-8.42262e-10 -6.80802e-10 -0.001)
(-1.05917e-09 -7.26637e-10 -0.001)
(-1.17293e-09 -7.82445e-10 -0.001)
(-1.81041e-10 -4.02145e-10 -0.001)
(-5.48479e-10 -4.249e-10 -0.001)
(-8.76428e-10 -4.54164e-10 -0.001)
(-1.09877e-09 -4.65377e-10 -0.001)
(-1.19056e-09 -4.99708e-10 -0.001)
(-1.96638e-10 -1.39472e-10 -0.001)
(-5.74928e-10 -1.55651e-10 -0.001)
(-8.80865e-10 -1.67221e-10 -0.001)
(-1.10236e-09 -1.61808e-10 -0.001)
(-1.19465e-09 -1.73022e-10 -0.001)
(-2.6331e-10 -1.4031e-09 -0.000999999)
(-7.6091e-10 -1.41538e-09 -0.000999999)
(-1.21221e-09 -1.43664e-09 -0.000999999)
(-1.54185e-09 -1.46971e-09 -0.001)
(-1.66041e-09 -1.46941e-09 -0.001)
(-2.6828e-10 -1.28041e-09 -0.000999999)
(-7.79646e-10 -1.29989e-09 -0.001)
(-1.22585e-09 -1.33025e-09 -0.001)
(-1.56707e-09 -1.35205e-09 -0.001)
(-1.71556e-09 -1.38346e-09 -0.001)
(-2.80326e-10 -9.9972e-10 -0.001)
(-8.08277e-10 -1.02322e-09 -0.001)
(-1.26419e-09 -1.05969e-09 -0.001)
(-1.59504e-09 -1.09001e-09 -0.001)
(-1.73993e-09 -1.12385e-09 -0.001)
(-2.89938e-10 -6.43782e-10 -0.001)
(-8.37677e-10 -6.69847e-10 -0.001)
(-1.29235e-09 -6.89159e-10 -0.001)
(-1.63102e-09 -6.98174e-10 -0.001)
(-1.76837e-09 -7.44592e-10 -0.001)
(-3.04677e-10 -2.25889e-10 -0.001)
(-8.50812e-10 -2.41596e-10 -0.001)
(-1.28979e-09 -2.41022e-10 -0.001)
(-1.64698e-09 -2.41545e-10 -0.001)
(-1.78197e-09 -2.60247e-10 -0.001)
(-3.9146e-10 -2.03771e-09 -0.000999998)
(-1.12619e-09 -2.05571e-09 -0.000999999)
(-1.7706e-09 -2.06619e-09 -0.000999999)
(-2.23354e-09 -2.08553e-09 -0.001)
(-2.36333e-09 -2.11619e-09 -0.001)
(-3.98064e-10 -1.85835e-09 -0.000999999)
(-1.13599e-09 -1.87791e-09 -0.000999999)
(-1.75635e-09 -1.88864e-09 -0.001)
(-2.25942e-09 -1.89056e-09 -0.001)
(-2.42259e-09 -1.93315e-09 -0.001)
(-4.07706e-10 -1.44984e-09 -0.001)
(-1.15304e-09 -1.4675e-09 -0.001)
(-1.783e-09 -1.49052e-09 -0.001)
(-2.27802e-09 -1.5151e-09 -0.001)
(-2.46416e-09 -1.53974e-09 -0.001)
(-4.13147e-10 -9.244e-10 -0.001)
(-1.1739e-09 -9.36611e-10 -0.001)
(-1.80355e-09 -9.44879e-10 -0.001)
(-2.30835e-09 -9.58691e-10 -0.001)
(-2.50002e-09 -9.92131e-10 -0.001)
(-4.17581e-10 -3.19865e-10 -0.001)
(-1.16957e-09 -3.25576e-10 -0.001)
(-1.8013e-09 -3.18278e-10 -0.001)
(-2.32048e-09 -3.26795e-10 -0.001)
(-2.50831e-09 -3.34878e-10 -0.001)
(-5.57263e-10 -2.82776e-09 -0.000999997)
(-1.59718e-09 -2.83461e-09 -0.000999998)
(-2.46928e-09 -2.83207e-09 -0.000999999)
(-3.1354e-09 -2.83737e-09 -0.000999999)
(-3.26191e-09 -2.9361e-09 -0.001)
(-5.55548e-10 -2.5447e-09 -0.000999998)
(-1.58305e-09 -2.55127e-09 -0.000999999)
(-2.43464e-09 -2.53618e-09 -0.000999999)
(-3.12908e-09 -2.52881e-09 -0.001)
(-3.37198e-09 -2.53381e-09 -0.001)
(-5.59462e-10 -1.98654e-09 -0.000999999)
(-1.584e-09 -1.98852e-09 -0.000999999)
(-2.44644e-09 -1.99384e-09 -0.001)
(-3.13295e-09 -2.01166e-09 -0.001)
(-3.40054e-09 -2.00355e-09 -0.001)
(-5.54054e-10 -1.25513e-09 -0.001)
(-1.58654e-09 -1.24851e-09 -0.001)
(-2.45721e-09 -1.2524e-09 -0.001)
(-3.13839e-09 -1.26541e-09 -0.001)
(-3.41664e-09 -1.25386e-09 -0.001)
(-5.49718e-10 -4.26056e-10 -0.001)
(-1.57593e-09 -4.23405e-10 -0.001)
(-2.45826e-09 -4.19117e-10 -0.001)
(-3.1282e-09 -4.29097e-10 -0.001)
(-3.40216e-09 -4.14709e-10 -0.001)
(-7.64536e-10 -3.84207e-09 -0.000999996)
(-2.19216e-09 -3.83354e-09 -0.000999997)
(-3.3812e-09 -3.81969e-09 -0.000999998)
(-4.32813e-09 -3.81121e-09 -0.000999999)
(-4.53569e-09 -3.91779e-09 -0.001)
(-7.5449e-10 -3.41701e-09 -0.000999997)
(-2.16381e-09 -3.40958e-09 -0.000999998)
(-3.3387e-09 -3.38113e-09 -0.000999999)
(-4.27181e-09 -3.35757e-09 -0.001)
(-4.63248e-09 -3.28576e-09 -0.001)
(-7.51254e-10 -2.67895e-09 -0.000999998)
(-2.14995e-09 -2.6666e-09 -0.000999999)
(-3.32873e-09 -2.66102e-09 -0.001)
(-4.23279e-09 -2.6586e-09 -0.001)
(-4.62773e-09 -2.59173e-09 -0.001)
(-7.37476e-10 -1.69157e-09 -0.000999999)
(-2.14067e-09 -1.67966e-09 -0.000999999)
(-3.32991e-09 -1.68391e-09 -0.001)
(-4.202e-09 -1.68485e-09 -0.001)
(-4.61095e-09 -1.6315e-09 -0.001)
(-7.35108e-10 -5.71104e-10 -0.000999999)
(-2.13503e-09 -5.71001e-10 -0.001)
(-3.32714e-09 -5.70423e-10 -0.001)
(-4.17229e-09 -5.74414e-10 -0.001)
(-4.57781e-09 -5.48213e-10 -0.001)
(-1.03801e-09 -5.2084e-09 -0.000999994)
(-2.97744e-09 -5.19396e-09 -0.000999995)
(-4.61419e-09 -5.17326e-09 -0.000999996)
(-5.88199e-09 -5.15594e-09 -0.000999998)
(-6.31599e-09 -5.17773e-09 -0.001)
(-1.02126e-09 -4.6291e-09 -0.000999996)
(-2.94786e-09 -4.61327e-09 -0.000999997)
(-4.57072e-09 -4.58867e-09 -0.000999998)
(-5.80197e-09 -4.53936e-09 -0.001)
(-6.33533e-09 -4.43954e-09 -0.001)
(-1.01423e-09 -3.64716e-09 -0.000999997)
(-2.92838e-09 -3.63463e-09 -0.000999998)
(-4.5396e-09 -3.6239e-09 -0.000999999)
(-5.73279e-09 -3.59299e-09 -0.001)
(-6.29806e-09 -3.49774e-09 -0.001)
(-1.0024e-09 -2.31972e-09 -0.000999998)
(-2.91751e-09 -2.31506e-09 -0.000999999)
(-4.528e-09 -2.31221e-09 -0.001)
(-5.67509e-09 -2.2959e-09 -0.001)
(-6.2541e-09 -2.2281e-09 -0.001)
(-1.0038e-09 -7.89611e-10 -0.000999999)
(-2.91103e-09 -7.94088e-10 -0.001)
(-4.5114e-09 -7.89824e-10 -0.001)
(-5.63786e-09 -7.85732e-10 -0.001)
(-6.21272e-09 -7.62683e-10 -0.001)
(-1.40573e-09 -7.08948e-09 -0.000999992)
(-4.04027e-09 -7.07945e-09 -0.000999993)
(-6.28177e-09 -7.06302e-09 -0.000999995)
(-7.96558e-09 -7.04264e-09 -0.000999997)
(-8.66943e-09 -7.01304e-09 -0.001)
(-1.38552e-09 -6.33744e-09 -0.000999994)
(-4.01568e-09 -6.32492e-09 -0.000999995)
(-6.2407e-09 -6.30697e-09 -0.000999997)
(-7.88432e-09 -6.23659e-09 -0.000999999)
(-8.64288e-09 -6.14319e-09 -0.001)
(-1.38233e-09 -5.01663e-09 -0.000999996)
(-3.998e-09 -5.01567e-09 -0.000999997)
(-6.19253e-09 -4.99291e-09 -0.000999999)
(-7.80175e-09 -4.93796e-09 -0.001)
(-8.58869e-09 -4.83896e-09 -0.001)
(-1.37586e-09 -3.21428e-09 -0.000999998)
(-3.98221e-09 -3.21116e-09 -0.000999998)
(-6.16153e-09 -3.19141e-09 -0.001)
(-7.72938e-09 -3.15899e-09 -0.001)
(-8.52741e-09 -3.09473e-09 -0.001)
(-1.37127e-09 -1.10232e-09 -0.000999998)
(-3.96171e-09 -1.10196e-09 -0.000999999)
(-6.12816e-09 -1.09089e-09 -0.001)
(-7.69023e-09 -1.07975e-09 -0.001)
(-8.48331e-09 -1.06567e-09 -0.00100001)
(-1.89397e-09 -9.66876e-09 -0.000999989)
(-5.47109e-09 -9.66894e-09 -0.00099999)
(-8.51907e-09 -9.66113e-09 -0.000999993)
(-1.0777e-08 -9.63842e-09 -0.000999996)
(-1.17724e-08 -9.62017e-09 -0.000999999)
(-1.87923e-09 -8.69233e-09 -0.000999992)
(-5.4527e-09 -8.6929e-09 -0.000999993)
(-8.4739e-09 -8.66821e-09 -0.000999996)
(-1.0689e-08 -8.58016e-09 -0.000999999)
(-1.17299e-08 -8.47831e-09 -0.001)
(-1.87963e-09 -6.9007e-09 -0.000999995)
(-5.43082e-09 -6.90774e-09 -0.000999996)
(-8.4051e-09 -6.86173e-09 -0.000999998)
(-1.0587e-08 -6.7877e-09 -0.001)
(-1.16721e-08 -6.68678e-09 -0.001)
(-1.87424e-09 -4.43227e-09 -0.000999997)
(-5.40027e-09 -4.42028e-09 -0.000999998)
(-8.35186e-09 -4.38222e-09 -0.001)
(-1.05127e-08 -4.33913e-09 -0.001)
(-1.16125e-08 -4.28808e-09 -0.00100001)
(-1.85669e-09 -1.52249e-09 -0.000999998)
(-5.36243e-09 -1.51072e-09 -0.000999999)
(-8.30732e-09 -1.49697e-09 -0.001)
(-1.04725e-08 -1.48145e-09 -0.001)
(-1.15753e-08 -1.47594e-09 -0.00100001)
(-2.5464e-09 -1.31754e-08 -0.000999985)
(-7.39207e-09 -1.31825e-08 -0.000999987)
(-1.14991e-08 -1.31651e-08 -0.00099999)
(-1.45196e-08 -1.31116e-08 -0.000999994)
(-1.59885e-08 -1.30891e-08 -0.000999999)
(-2.54325e-09 -1.18786e-08 -0.000999989)
(-7.37447e-09 -1.18906e-08 -0.000999991)
(-1.14478e-08 -1.18439e-08 -0.000999994)
(-1.44223e-08 -1.17491e-08 -0.000999998)
(-1.58752e-08 -1.16282e-08 -0.001)
(-2.538e-09 -9.43213e-09 -0.000999993)
(-7.33531e-09 -9.435e-09 -0.000999994)
(-1.13559e-08 -9.36257e-09 -0.000999997)
(-1.43038e-08 -9.27741e-09 -0.001)
(-1.58129e-08 -9.18816e-09 -0.00100001)
(-2.52958e-09 -6.05321e-09 -0.000999995)
(-7.28647e-09 -6.03123e-09 -0.000999997)
(-1.12875e-08 -5.98057e-09 -0.001)
(-1.4246e-08 -5.9406e-09 -0.001)
(-1.57722e-08 -5.90923e-09 -0.00100001)
(-2.50104e-09 -2.07735e-09 -0.000999997)
(-7.23767e-09 -2.05666e-09 -0.000999998)
(-1.12426e-08 -2.04533e-09 -0.001)
(-1.42047e-08 -2.03263e-09 -0.00100001)
(-1.5747e-08 -2.03017e-09 -0.00100001)
(-3.44008e-09 -1.79151e-08 -0.00099998)
(-9.99277e-09 -1.79164e-08 -0.000999982)
(-1.55058e-08 -1.78655e-08 -0.000999986)
(-1.95037e-08 -1.77584e-08 -0.000999992)
(-2.17928e-08 -1.76111e-08 -0.000999998)
(-3.437e-09 -1.61568e-08 -0.000999986)
(-9.9593e-09 -1.61629e-08 -0.000999988)
(-1.54534e-08 -1.60907e-08 -0.000999992)
(-1.94411e-08 -1.60086e-08 -0.000999997)
(-2.15299e-08 -1.59266e-08 -0.001)
(-3.41846e-09 -1.28145e-08 -0.00099999)
(-9.89673e-09 -1.28045e-08 -0.000999992)
(-1.53492e-08 -1.27173e-08 -0.000999996)
(-1.93394e-08 -1.26376e-08 -0.001)
(-2.14505e-08 -1.25892e-08 -0.00100001)
(-3.40465e-09 -8.21519e-09 -0.000999994)
(-9.83719e-09 -8.18985e-09 -0.000999996)
(-1.52828e-08 -8.1411e-09 -0.001)
(-1.93104e-08 -8.12002e-09 -0.00100001)
(-2.14188e-08 -8.10871e-09 -0.00100001)
(-3.37288e-09 -2.81798e-09 -0.000999995)
(-9.78873e-09 -2.79685e-09 -0.000999998)
(-1.52484e-08 -2.79234e-09 -0.001)
(-1.92694e-08 -2.79085e-09 -0.00100001)
(-2.13919e-08 -2.78659e-09 -0.00100001)
(-4.66496e-09 -2.43118e-08 -0.000999973)
(-1.35297e-08 -2.43034e-08 -0.000999976)
(-2.09814e-08 -2.42204e-08 -0.000999982)
(-2.63582e-08 -2.40761e-08 -0.000999989)
(-2.96318e-08 -2.3775e-08 -0.000999998)
(-4.64567e-09 -2.1913e-08 -0.000999981)
(-1.347e-08 -2.19004e-08 -0.000999984)
(-2.09274e-08 -2.18164e-08 -0.000999989)
(-2.63263e-08 -2.17555e-08 -0.000999997)
(-2.92769e-08 -2.17273e-08 -0.00100001)
(-4.61503e-09 -1.73704e-08 -0.000999987)
(-1.33926e-08 -1.73512e-08 -0.00099999)
(-2.08334e-08 -1.72743e-08 -0.000999995)
(-2.62689e-08 -1.72151e-08 -0.001)
(-2.91724e-08 -1.72106e-08 -0.00100001)
(-4.59645e-09 -1.11371e-08 -0.000999992)
(-1.33403e-08 -1.11222e-08 -0.000999994)
(-2.07862e-08 -1.10951e-08 -0.001)
(-2.62591e-08 -1.10919e-08 -0.00100001)
(-2.91278e-08 -1.1093e-08 -0.00100002)
(-4.57281e-09 -3.82342e-09 -0.000999994)
(-1.33047e-08 -3.81417e-09 -0.000999997)
(-2.0761e-08 -3.81879e-09 -0.001)
(-2.62155e-08 -3.82748e-09 -0.00100001)
(-2.90741e-08 -3.82309e-09 -0.00100002)
(-6.32683e-09 -3.29957e-08 -0.000999964)
(-1.83493e-08 -3.29891e-08 -0.000999968)
(-2.85057e-08 -3.28853e-08 -0.000999976)
(-3.58445e-08 -3.27334e-08 -0.000999986)
(-4.01493e-08 -3.23951e-08 -0.000999998)
(-6.29211e-09 -2.97357e-08 -0.000999974)
(-1.82726e-08 -2.97161e-08 -0.000999978)
(-2.84406e-08 -2.96378e-08 -0.000999986)
(-3.58113e-08 -2.95864e-08 -0.000999996)
(-3.98247e-08 -2.9583e-08 -0.00100001)
(-6.25706e-09 -2.35819e-08 -0.000999983)
(-1.81969e-08 -2.35706e-08 -0.000999987)
(-2.83717e-08 -2.35195e-08 -0.000999994)
(-3.57894e-08 -2.34725e-08 -0.001)
(-3.96977e-08 -2.34734e-08 -0.00100002)
(-6.24029e-09 -1.51387e-08 -0.000999989)
(-1.81649e-08 -1.51494e-08 -0.000999993)
(-2.83357e-08 -1.51419e-08 -0.001)
(-3.57605e-08 -1.51236e-08 -0.00100001)
(-3.96243e-08 -1.51035e-08 -0.00100002)
(-6.23071e-09 -5.20691e-09 -0.000999992)
(-1.81377e-08 -5.21691e-09 -0.000999996)
(-2.82885e-08 -5.22183e-09 -0.001)
(-3.5681e-08 -5.22226e-09 -0.00100001)
(-3.95133e-08 -5.20782e-09 -0.00100003)
(-8.59057e-09 -4.48725e-08 -0.000999951)
(-2.49402e-08 -4.48727e-08 -0.000999957)
(-3.87897e-08 -4.47384e-08 -0.000999967)
(-4.87989e-08 -4.457e-08 -0.000999981)
(-5.44091e-08 -4.42802e-08 -0.000999998)
(-8.54787e-09 -4.04548e-08 -0.000999965)
(-2.48493e-08 -4.04463e-08 -0.00099997)
(-3.87015e-08 -4.0365e-08 -0.000999981)
(-4.8749e-08 -4.02914e-08 -0.000999995)
(-5.41438e-08 -4.02662e-08 -0.00100001)
(-8.51416e-09 -3.2107e-08 -0.000999977)
(-2.47767e-08 -3.21153e-08 -0.000999982)
(-3.8629e-08 -3.20614e-08 -0.000999992)
(-4.86997e-08 -3.19757e-08 -0.00100001)
(-5.39596e-08 -3.19071e-08 -0.00100002)
(-8.50127e-09 -2.06408e-08 -0.000999985)
(-2.47422e-08 -2.06681e-08 -0.000999991)
(-3.85526e-08 -2.06349e-08 -0.001)
(-4.85884e-08 -2.05509e-08 -0.00100001)
(-5.38229e-08 -2.0451e-08 -0.00100003)
(-8.49099e-09 -7.11062e-09 -0.00099999)
(-2.46857e-08 -7.12706e-09 -0.000999995)
(-3.84334e-08 -7.11163e-09 -0.00100001)
(-4.84204e-08 -7.0797e-09 -0.00100002)
(-5.36269e-08 -7.03308e-09 -0.00100004)
(-1.1689e-08 -6.11446e-08 -0.000999934)
(-3.3952e-08 -6.11416e-08 -0.000999942)
(-5.281e-08 -6.09415e-08 -0.000999956)
(-6.64475e-08 -6.06979e-08 -0.000999975)
(-7.38886e-08 -6.03619e-08 -0.000999997)
(-1.16355e-08 -5.51499e-08 -0.000999953)
(-3.38163e-08 -5.51461e-08 -0.00099996)
(-5.26394e-08 -5.50029e-08 -0.000999974)
(-6.629e-08 -5.48145e-08 -0.000999993)
(-7.35714e-08 -5.46437e-08 -0.00100002)
(-1.15931e-08 -4.37867e-08 -0.000999969)
(-3.37052e-08 -4.37919e-08 -0.000999976)
(-5.24705e-08 -4.36623e-08 -0.00099999)
(-6.60877e-08 -4.34585e-08 -0.00100001)
(-7.32596e-08 -4.32303e-08 -0.00100003)
(-1.15661e-08 -2.81565e-08 -0.000999981)
(-3.36086e-08 -2.81606e-08 -0.000999988)
(-5.22932e-08 -2.80505e-08 -0.001)
(-6.58492e-08 -2.78798e-08 -0.00100002)
(-7.30119e-08 -2.768e-08 -0.00100004)
(-1.15287e-08 -9.69955e-09 -0.000999987)
(-3.34834e-08 -9.69851e-09 -0.000999994)
(-5.2083e-08 -9.65277e-09 -0.00100001)
(-6.55876e-08 -9.58614e-09 -0.00100003)
(-7.27313e-08 -9.51279e-09 -0.00100005)
(-1.59161e-08 -8.33877e-08 -0.000999911)
(-4.62258e-08 -8.33574e-08 -0.000999921)
(-7.19056e-08 -8.3024e-08 -0.00099994)
(-9.05414e-08 -8.26038e-08 -0.000999966)
(-1.00435e-07 -8.20764e-08 -0.000999997)
(-1.58339e-08 -7.52241e-08 -0.000999937)
(-4.59787e-08 -7.51848e-08 -0.000999947)
(-7.15289e-08 -7.48871e-08 -0.000999965)
(-9.00899e-08 -7.44571e-08 -0.000999991)
(-9.99223e-08 -7.39787e-08 -0.00100002)
(-1.5752e-08 -5.97005e-08 -0.000999958)
(-4.57534e-08 -5.9654e-08 -0.000999968)
(-7.11672e-08 -5.93906e-08 -0.000999987)
(-8.96322e-08 -5.90193e-08 -0.00100001)
(-9.94377e-08 -5.85837e-08 -0.00100004)
(-1.56866e-08 -3.8353e-08 -0.000999974)
(-4.55557e-08 -3.83108e-08 -0.000999984)
(-7.08769e-08 -3.81222e-08 -0.001)
(-8.92711e-08 -3.78848e-08 -0.00100003)
(-9.90561e-08 -3.76129e-08 -0.00100006)
(-1.56171e-08 -1.31986e-08 -0.000999983)
(-4.53655e-08 -1.31785e-08 -0.000999993)
(-7.05959e-08 -1.3115e-08 -0.00100001)
(-8.89461e-08 -1.30308e-08 -0.00100004)
(-9.87001e-08 -1.29557e-08 -0.00100007)
(-2.16542e-08 -1.13722e-07 -0.000999879)
(-6.28669e-08 -1.13617e-07 -0.000999893)
(-9.77984e-08 -1.1306e-07 -0.000999919)
(-1.23229e-07 -1.12343e-07 -0.000999954)
(-1.36604e-07 -1.11496e-07 -0.000999996)
(-2.15081e-08 -1.02557e-07 -0.000999914)
(-6.24341e-08 -1.02432e-07 -0.000999928)
(-9.71338e-08 -1.01919e-07 -0.000999953)
(-1.22411e-07 -1.01199e-07 -0.000999988)
(-1.35734e-07 -1.00372e-07 -0.00100003)
(-2.13609e-08 -8.13261e-08 -0.000999944)
(-6.20458e-08 -8.12097e-08 -0.000999957)
(-9.65507e-08 -8.08047e-08 -0.000999983)
(-1.21681e-07 -8.02524e-08 -0.00100002)
(-1.35011e-07 -7.95962e-08 -0.00100006)
(-2.12556e-08 -5.22053e-08 -0.000999965)
(-6.17598e-08 -5.21385e-08 -0.000999979)
(-9.61528e-08 -5.18921e-08 -0.001)
(-1.21186e-07 -5.15775e-08 -0.00100004)
(-1.34457e-07 -5.12162e-08 -0.00100008)
(-2.11684e-08 -1.79581e-08 -0.000999977)
(-6.15191e-08 -1.79378e-08 -0.000999991)
(-9.57915e-08 -1.78625e-08 -0.00100002)
(-1.20764e-07 -1.77585e-08 -0.00100005)
(-1.33975e-07 -1.76663e-08 -0.00100009)
(-2.94199e-08 -1.55066e-07 -0.000999836)
(-8.53984e-08 -1.54839e-07 -0.000999855)
(-1.3287e-07 -1.53982e-07 -0.00099989)
(-1.67472e-07 -1.52838e-07 -0.000999938)
(-1.85845e-07 -1.51464e-07 -0.000999994)
(-2.91769e-08 -1.39756e-07 -0.000999884)
(-8.47298e-08 -1.39528e-07 -0.000999903)
(-1.31886e-07 -1.38769e-07 -0.000999937)
(-1.66267e-07 -1.3773e-07 -0.000999984)
(-1.84433e-07 -1.36519e-07 -0.00100004)
(-2.89648e-08 -1.10776e-07 -0.000999924)
(-8.41639e-08 -1.10608e-07 -0.000999943)
(-1.31052e-07 -1.10034e-07 -0.000999977)
(-1.6522e-07 -1.09232e-07 -0.00100002)
(-1.83306e-07 -1.08284e-07 -0.00100008)
(-2.88253e-08 -7.11156e-08 -0.000999954)
(-8.37812e-08 -7.10325e-08 -0.000999972)
(-1.30477e-07 -7.06913e-08 -0.00100001)
(-1.64496e-07 -7.02115e-08 -0.00100005)
(-1.82466e-07 -6.96683e-08 -0.00100011)
(-2.87115e-08 -2.44717e-08 -0.00099997)
(-8.34496e-08 -2.44489e-08 -0.000999988)
(-1.2996e-07 -2.43378e-08 -0.00100002)
(-1.63868e-07 -2.41803e-08 -0.00100007)
(-1.81746e-07 -2.40194e-08 -0.00100012)
(-3.99456e-08 -2.11488e-07 -0.000999778)
(-1.15987e-07 -2.11099e-07 -0.000999803)
(-1.80528e-07 -2.09835e-07 -0.000999851)
(-2.27579e-07 -2.08091e-07 -0.000999916)
(-2.52617e-07 -2.0597e-07 -0.000999993)
(-3.95848e-08 -1.90501e-07 -0.000999843)
(-1.15004e-07 -1.90156e-07 -0.000999868)
(-1.79067e-07 -1.89035e-07 -0.000999915)
(-2.25765e-07 -1.87485e-07 -0.000999979)
(-2.50517e-07 -1.85665e-07 -0.00100006)
(-3.92937e-08 -1.50992e-07 -0.000999898)
(-1.14186e-07 -1.50744e-07 -0.000999923)
(-1.7783e-07 -1.49875e-07 -0.00099997)
(-2.24207e-07 -1.48648e-07 -0.00100003)
(-2.48766e-07 -1.47217e-07 -0.00100011)
(-3.90888e-08 -9.69542e-08 -0.000999938)
(-1.13608e-07 -9.68039e-08 -0.000999963)
(-1.76928e-07 -9.62674e-08 -0.00100001)
(-2.23077e-07 -9.54925e-08 -0.00100007)
(-2.47462e-07 -9.46191e-08 -0.00100015)
(-3.89129e-08 -3.33699e-08 -0.00099996)
(-1.13105e-07 -3.33177e-08 -0.000999985)
(-1.76149e-07 -3.3136e-08 -0.00100003)
(-2.22109e-07 -3.28785e-08 -0.00100009)
(-2.46367e-07 -3.25902e-08 -0.00100017)
(-5.42556e-08 -2.88598e-07 -0.000999699)
(-1.57587e-07 -2.87957e-07 -0.000999733)
(-2.45344e-07 -2.86043e-07 -0.000999798)
(-3.09349e-07 -2.83396e-07 -0.000999886)
(-3.43155e-07 -2.80304e-07 -0.00099999)
(-5.37268e-08 -2.59853e-07 -0.000999788)
(-1.56099e-07 -2.59294e-07 -0.000999822)
(-2.43069e-07 -2.57556e-07 -0.000999885)
(-3.06515e-07 -2.55137e-07 -0.000999973)
(-3.40123e-07 -2.52306e-07 -0.00100008)
(-5.32835e-08 -2.05929e-07 -0.000999863)
(-1.54839e-07 -2.05487e-07 -0.000999897)
(-2.4115e-07 -2.04117e-07 -0.000999959)
(-3.04096e-07 -2.02196e-07 -0.00100005)
(-3.37441e-07 -1.99937e-07 -0.00100015)
(-5.2951e-08 -1.32211e-07 -0.000999918)
(-1.53911e-07 -1.31925e-07 -0.000999951)
(-2.39719e-07 -1.31058e-07 -0.00100001)
(-3.02294e-07 -1.29813e-07 -0.0010001)
(-3.35414e-07 -1.28369e-07 -0.0010002)
(-5.26862e-08 -4.54967e-08 -0.000999948)
(-1.53152e-07 -4.53998e-08 -0.000999981)
(-2.38534e-07 -4.51049e-08 -0.00100004)
(-3.00793e-07 -4.4679e-08 -0.00100013)
(-3.33765e-07 -4.41811e-08 -0.00100023)
(-7.371e-08 -3.94057e-07 -0.000999591)
(-2.14119e-07 -3.92984e-07 -0.000999638)
(-3.33387e-07 -3.89996e-07 -0.000999725)
(-4.20485e-07 -3.85913e-07 -0.000999846)
(-4.66319e-07 -3.81276e-07 -0.000999987)
(-7.28999e-08 -3.54654e-07 -0.000999713)
(-2.118e-07 -3.53689e-07 -0.000999759)
(-3.29828e-07 -3.50955e-07 -0.000999845)
(-4.16048e-07 -3.47165e-07 -0.000999963)
(-4.61702e-07 -3.42712e-07 -0.0010001)
(-7.21893e-08 -2.80958e-07 -0.000999816)
(-2.09812e-07 -2.80169e-07 -0.000999861)
(-3.26813e-07 -2.77996e-07 -0.000999946)
(-4.12238e-07 -2.74958e-07 -0.00100006)
(-4.57539e-07 -2.71366e-07 -0.0010002)
(-7.1662e-08 -1.80331e-07 -0.00099989)
(-2.08332e-07 -1.79834e-07 -0.000999936)
(-3.24537e-07 -1.78425e-07 -0.00100002)
(-4.09362e-07 -1.76428e-07 -0.00100014)
(-4.5439e-07 -1.74088e-07 -0.00100027)
(-7.1272e-08 -6.20467e-08 -0.000999931)
(-2.0718e-07 -6.18845e-08 -0.000999976)
(-3.22717e-07 -6.13952e-08 -0.00100006)
(-4.07061e-07 -6.06994e-08 -0.00100017)
(-4.51923e-07 -5.98854e-08 -0.00100031)
(-1.00126e-07 -5.38363e-07 -0.000999446)
(-2.90851e-07 -5.36566e-07 -0.000999509)
(-4.52881e-07 -5.31892e-07 -0.000999628)
(-5.71365e-07 -5.25541e-07 -0.000999791)
(-6.33877e-07 -5.18307e-07 -0.000999983)
(-9.8843e-08 -4.84274e-07 -0.000999612)
(-2.87211e-07 -4.82615e-07 -0.000999674)
(-4.4735e-07 -4.78309e-07 -0.000999791)
(-5.64445e-07 -4.72379e-07 -0.000999951)
(-6.26598e-07 -4.65412e-07 -0.00100014)
(-9.77208e-08 -3.8348e-07 -0.000999753)
(-2.84069e-07 -3.8213e-07 -0.000999814)
(-4.42578e-07 -3.78654e-07 -0.000999929)
(-5.58463e-07 -3.73835e-07 -0.00100009)
(-6.2012e-07 -3.68224e-07 -0.00100027)
(-9.68906e-08 -2.46077e-07 -0.000999855)
(-2.81703e-07 -2.45207e-07 -0.000999916)
(-4.38945e-07 -2.42914e-07 -0.00100003)
(-5.53938e-07 -2.39753e-07 -0.00100018)
(-6.15242e-07 -2.3609e-07 -0.00100037)
(-9.62821e-08 -8.46623e-08 -0.000999911)
(-2.79918e-07 -8.4363e-08 -0.000999971)
(-4.36181e-07 -8.35607e-08 -0.00100008)
(-5.50491e-07 -8.24685e-08 -0.00100024)
(-6.11542e-07 -8.11951e-08 -0.00100042)
(-1.35942e-07 -7.35944e-07 -0.000999249)
(-3.94897e-07 -7.32967e-07 -0.000999335)
(-6.14974e-07 -7.25684e-07 -0.000999495)
(-7.76028e-07 -7.15815e-07 -0.000999717)
(-8.61508e-07 -7.04574e-07 -0.000999978)
(-1.33909e-07 -6.61594e-07 -0.000999476)
(-3.89192e-07 -6.58793e-07 -0.000999561)
(-6.06378e-07 -6.51994e-07 -0.000999718)
(-7.65378e-07 -6.42724e-07 -0.000999935)
(-8.50156e-07 -6.32033e-07 -0.00100019)
(-1.32141e-07 -5.23654e-07 -0.000999669)
(-3.84199e-07 -5.21351e-07 -0.000999752)
(-5.98813e-07 -5.15769e-07 -0.000999906)
(-7.5606e-07 -5.08181e-07 -0.00100012)
(-8.40117e-07 -4.99495e-07 -0.00100037)
(-1.30801e-07 -3.35939e-07 -0.000999808)
(-3.80391e-07 -3.34399e-07 -0.00099989)
(-5.93058e-07 -3.30725e-07 -0.00100004)
(-7.49001e-07 -3.25775e-07 -0.00100025)
(-8.32529e-07 -3.20092e-07 -0.0010005)
(-1.29836e-07 -1.15564e-07 -0.000999885)
(-3.77647e-07 -1.15019e-07 -0.000999966)
(-5.88899e-07 -1.13751e-07 -0.00100012)
(-7.43854e-07 -1.12052e-07 -0.00100032)
(-8.26942e-07 -1.10087e-07 -0.00100057)
(-1.84454e-07 -1.00668e-06 -0.000998982)
(-5.35928e-07 -1.00177e-06 -0.000999099)
(-8.3487e-07 -9.90373e-07 -0.000999317)
(-1.05385e-06 -9.75049e-07 -0.000999617)
(-1.17084e-06 -9.57716e-07 -0.000999972)
(-1.81249e-07 -9.04307e-07 -0.000999294)
(-5.26943e-07 -8.99598e-07 -0.000999408)
(-8.21412e-07 -8.88801e-07 -0.00099962)
(-1.03747e-06 -8.74284e-07 -0.000999914)
(-1.1533e-06 -8.57857e-07 -0.00100026)
(-1.78413e-07 -7.15389e-07 -0.000999558)
(-5.18953e-07 -7.11441e-07 -0.000999669)
(-8.09431e-07 -7.02512e-07 -0.000999876)
(-1.0229e-06 -6.90545e-07 -0.00100016)
(-1.13765e-06 -6.76973e-07 -0.0010005)
(-1.7623e-07 -4.58837e-07 -0.000999749)
(-5.12841e-07 -4.56184e-07 -0.000999858)
(-8.00313e-07 -4.50324e-07 -0.00100006)
(-1.01179e-06 -4.42474e-07 -0.00100034)
(-1.12572e-06 -4.33552e-07 -0.00100068)
(-1.74733e-07 -1.57831e-07 -0.000999853)
(-5.08626e-07 -1.56902e-07 -0.000999961)
(-7.93954e-07 -1.54888e-07 -0.00100016)
(-1.00397e-06 -1.52179e-07 -0.00100044)
(-1.11722e-06 -1.49109e-07 -0.00100077)
(-2.50156e-07 -1.37798e-06 -0.000998623)
(-7.27066e-07 -1.36981e-06 -0.00099878)
(-1.13321e-06 -1.35187e-06 -0.000999075)
(-1.43138e-06 -1.32807e-06 -0.000999483)
(-1.59147e-06 -1.30134e-06 -0.000999966)
(-2.45016e-07 -1.23676e-06 -0.00099905)
(-7.12729e-07 -1.22878e-06 -0.000999203)
(-1.11196e-06 -1.21154e-06 -0.000999489)
(-1.4058e-06 -1.18863e-06 -0.000999886)
(-1.56433e-06 -1.16291e-06 -0.00100036)
(-2.40408e-07 -9.77847e-07 -0.000999411)
(-6.99893e-07 -9.71086e-07 -0.000999559)
(-1.09289e-06 -9.56763e-07 -0.000999838)
(-1.38273e-06 -9.37621e-07 -0.00100022)
(-1.53976e-06 -9.16099e-07 -0.00100068)
(-2.36838e-07 -6.27216e-07 -0.000999673)
(-6.90015e-07 -6.22659e-07 -0.000999818)
(-1.07822e-06 -6.13188e-07 -0.00100009)
(-1.36494e-06 -6.00477e-07 -0.00100047)
(-1.5208e-06 -5.86185e-07 -0.00100092)
(-2.34477e-07 -2.15799e-07 -0.000999816)
(-6.83408e-07 -2.14207e-07 -0.000999959)
(-1.06828e-06 -2.10928e-07 -0.00100023)
(-1.35277e-06 -2.06514e-07 -0.0010006)
(-1.50766e-06 -2.01562e-07 -0.00100104)
(-3.39023e-07 -1.88757e-06 -0.000998137)
(-9.85929e-07 -1.87385e-06 -0.00099835)
(-1.53787e-06 -1.84551e-06 -0.00099875)
(-1.94427e-06 -1.80843e-06 -0.000999303)
(-2.16375e-06 -1.76724e-06 -0.00099996)
(-3.30597e-07 -1.69258e-06 -0.000998725)
(-9.62761e-07 -1.67894e-06 -0.00099893)
(-1.50403e-06 -1.65125e-06 -0.000999315)
(-1.90393e-06 -1.61467e-06 -0.00099985)
(-2.12167e-06 -1.57404e-06 -0.00100049)
(-3.23062e-07 -1.33761e-06 -0.000999219)
(-9.42014e-07 -1.32591e-06 -0.000999416)
(-1.47337e-06 -1.30271e-06 -0.000999788)
(-1.86704e-06 -1.27164e-06 -0.00100031)
(-2.08301e-06 -1.23712e-06 -0.00100092)
(-3.17047e-07 -8.58593e-07 -0.000999579)
(-9.25705e-07 -8.50524e-07 -0.00099977)
(-1.44938e-06 -8.35046e-07 -0.00100013)
(-1.83808e-06 -8.14116e-07 -0.00100063)
(-2.0525e-06 -7.90896e-07 -0.00100124)
(-3.13167e-07 -2.95581e-07 -0.000999777)
(-9.15147e-07 -2.92738e-07 -0.000999964)
(-1.43363e-06 -2.87396e-07 -0.00100032)
(-1.81881e-06 -2.80094e-07 -0.00100081)
(-2.03197e-06 -2.71998e-07 -0.00100141)
(-4.59078e-07 -2.58763e-06 -0.000997479)
(-1.33654e-06 -2.56434e-06 -0.000997767)
(-2.08698e-06 -2.51926e-06 -0.00099831)
(-2.64117e-06 -2.46115e-06 -0.000999063)
(-2.94355e-06 -2.39765e-06 -0.000999956)
(-4.44791e-07 -2.31868e-06 -0.000998294)
(-1.29811e-06 -2.29492e-06 -0.000998565)
(-2.03203e-06 -2.24993e-06 -0.000999082)
(-2.57677e-06 -2.19072e-06 -0.000999802)
(-2.87834e-06 -2.1261e-06 -0.00100066)
(-4.32309e-07 -1.83165e-06 -0.000998968)
(-1.26438e-06 -1.81082e-06 -0.000999227)
(-1.98248e-06 -1.77305e-06 -0.000999724)
(-2.51732e-06 -1.72188e-06 -0.00100041)
(-2.81745e-06 -1.66599e-06 -0.00100124)
(-4.21568e-07 -1.17814e-06 -0.000999469)
(-1.23669e-06 -1.16315e-06 -0.000999712)
(-1.94259e-06 -1.13793e-06 -0.00100019)
(-2.46936e-06 -1.10285e-06 -0.00100086)
(-2.76781e-06 -1.06478e-06 -0.00100166)
(-4.14929e-07 -4.06008e-07 -0.000999744)
(-1.21971e-06 -4.0076e-07 -0.00099998)
(-1.91758e-06 -3.92264e-07 -0.00100045)
(-2.43854e-06 -3.80036e-07 -0.0010011)
(-2.73559e-06 -3.66808e-07 -0.00100189)
(-6.21342e-07 -3.5501e-06 -0.000996583)
(-1.81222e-06 -3.50974e-06 -0.000996973)
(-2.83354e-06 -3.43756e-06 -0.000997715)
(-3.58968e-06 -3.34611e-06 -0.000998742)
(-4.01028e-06 -3.24688e-06 -0.000999959)
(-5.95298e-07 -3.18145e-06 -0.000997734)
(-1.74497e-06 -3.13846e-06 -0.000998085)
(-2.74102e-06 -3.0645e-06 -0.000998776)
(-3.4837e-06 -2.96679e-06 -0.000999741)
(-3.90884e-06 -2.86199e-06 -0.0010009)
(-5.74552e-07 -2.51137e-06 -0.000998643)
(-1.69088e-06 -2.4725e-06 -0.000998974)
(-2.66145e-06 -2.41194e-06 -0.000999639)
(-3.38713e-06 -2.32593e-06 -0.00100056)
(-3.81368e-06 -2.2342e-06 -0.00100166)
(-5.53477e-07 -1.62386e-06 -0.000999351)
(-1.64194e-06 -1.59382e-06 -0.000999644)
(-2.59378e-06 -1.55388e-06 -0.00100028)
(-3.30548e-06 -1.49325e-06 -0.00100115)
(-3.7314e-06 -1.43024e-06 -0.00100221)
(-5.41481e-07 -5.60308e-07 -0.000999739)
(-1.61493e-06 -5.50151e-07 -0.00100002)
(-2.55456e-06 -5.37703e-07 -0.00100065)
(-3.2557e-06 -5.16852e-07 -0.00100149)
(-3.68136e-06 -4.95378e-07 -0.00100252)
(-8.41773e-07 -4.87247e-06 -0.000995324)
(-2.46227e-06 -4.80088e-06 -0.000995861)
(-3.85524e-06 -4.68505e-06 -0.000996896)
(-4.88488e-06 -4.54101e-06 -0.000998312)
(-5.48185e-06 -4.37974e-06 -0.000999972)
(-7.87713e-07 -4.37815e-06 -0.000997043)
(-2.33196e-06 -4.29612e-06 -0.00099747)
(-3.68799e-06 -4.17333e-06 -0.000998381)
(-4.69885e-06 -4.00705e-06 -0.000999667)
(-5.32244e-06 -3.83005e-06 -0.00100119)
(-7.55217e-07 -3.44748e-06 -0.000998208)
(-2.25198e-06 -3.36949e-06 -0.00099862)
(-3.56563e-06 -3.27842e-06 -0.000999521)
(-4.54156e-06 -3.12943e-06 -0.00100074)
(-5.17916e-06 -2.97612e-06 -0.00100218)
(-7.0647e-07 -2.25917e-06 -0.000999263)
(-2.15852e-06 -2.19013e-06 -0.000999555)
(-3.44701e-06 -2.13304e-06 -0.00100042)
(-4.39588e-06 -2.02228e-06 -0.00100152)
(-5.03848e-06 -1.91738e-06 -0.00100288)
(-6.82701e-07 -7.78758e-07 -0.000999813)