/*--------------------------------*- C++ -*----------------------------------*\
| =========                 |                                                 |
| \\      /  F ield         | OpenFOAM: The Open Source CFD Toolbox           |
|  \\    /   O peration     | Version:  5.x                                   |
|   \\  /    A nd           | Web:      www.OpenFOAM.org                      |
|    \\/     M anipulation  |                                                 |
\*---------------------------------------------------------------------------*/
FoamFile
{
    version     2.0;
    format      ascii;
    class       volScalarField;
    location    "10000";
    object      p;
}
// * * * * * * * * * * * * * * * * * * * * * * * * * * * * * * * * * * * * * //

dimensions      [0 2 -2 0 0 0 0];

internalField   nonuniform List<scalar> 
180
(
-116.249
-218.446
-262.023
-284.983
-292.385
-291.996
-314.906
-386.68
-465.365
-534.017
-599.145
-630.313
-647.493
-684.272
-738.836
-771.442
-796.443
-838.755
-881.149
-930.652
-956.573
-971.335
-1007.09
-1034.57
-1057.96
-1102.27
-1131.31
-1145.57
-1174.69
-1200.61
-1212.38
-1235.14
-1264.78
-1305.88
-1349.99
-1392.74
-1487.72
-1589.29
-1697.53
-1760.16
-1803.37
-1827.67
-1821.61
-1857.23
-1946.18
-1983.73
-2008.44
-2039.05
-2039.83
-2063.09
-2104.01
-2137.82
-2232.72
-2350.41
-2402.02
-2403.01
-2406.56
-2497.15
-2551.21
-2584.14
-2659.11
-2739.86
-2816.07
-2881.87
-2936.21
-2992.25
-3050.37
-3106.87
-3160.54
-3211.6
-3263.9
-3316.63
-3367.39
-3418.03
-3468.07
-3517.45
-3568.55
-3623.65
-3659.65
-3688.37
-3731.11
-3784.21
-3831.57
-3874.71
-3920.07
-3958.87
-4030.48
-4183.77
-4265.76
-4286.42
-4283.71
-4287.1
-4298.29
-4357.89
-4448.24
-4507.82
-4565.77
-4692.71
-4855.63
-5004.34
-5122.1
-5228.68
-5380.09
-5463.24
-5468.94
-5478.79
-5612.5
-5771.59
-5907.13
-5970.28
-6007.05
-6047.41
-6085.52
-6165.83
-6263.14
-6389.05
-6510.13
-6609.42
-6707.98
-6773.73
-6827.04
-6923.8
-7024.05
-7115.35
-7204.88
-7299.52
-7384.66
-7472.24
-7564.28
-7654.79
-7749.61
-7839.78
-7936.47
-8029.43
-8127.54
-8224.09
-8320.79
-8419.82
-8521.41
-8626.35
-8728.12
-8831.56
-8935.67
-9041.41
-9146.12
-9250.49
-9354.97
-9458.34
-9561.84
-9663.68
-9766.27
-9867.67
-9970.86
-10073.6
-10179.3
-10285.5
-10394.5
-10505.6
-10619.6
-10735.8
-10855.9
-10978.8
-11106.5
-11237.8
-11374.6
-11515.6
-11663
-11815.1
-11974.9
-12140.2
-12313.2
-12496.5
-12684.8
-12888.6
-13101.9
-13325.3
-13561
-13814.3
-13932.6
-13955.1
)
;

boundaryField
{
    inlet
    {
        type            zeroGradient;
    }
    outlet
    {
        type            fixedValue;
        value           uniform 0;
    }
    repeat_boundary
    {
        type            zeroGradient;
    }
    procBoundary1to0
    {
        type            processor;
        value           nonuniform List<scalar> 
180
(
-134.571
-329.415
-372.336
-388.343
-408.308
-451.34
-496.009
-512.775
-554.294
-597.756
-613.564
-616.425
-618.314
-627.952
-685.979
-734.021
-749.317
-747.471
-793.277
-855.933
-882.965
-882.1
-921.738
-967.502
-1002.74
-1033.37
-1069.29
-1105.81
-1118.09
-1149.99
-1188.01
-1202.11
-1205.15
-1213.65
-1249.81
-1336.61
-1383.27
-1395.89
-1424.12
-1506.39
-1599.77
-1648.01
-1678
-1757.14
-1845.91
-1924.27
-2003.42
-2044.1
-2055.89
-2059.95
-2088.33
-2157.64
-2241.56
-2320.33
-2390.25
-2456.14
-2527.04
-2608.27
-2673.4
-2710.83
-2728.45
-2744.54
-2764.48
-2782.11
-2827.83
-2934.3
-2989.63
-2994.03
-3014.42
-3117.25
-3182.57
-3222.99
-3349.3
-3420.87
-3424.32
-3389.86
-3425.96
-3549.4
-3610.57
-3599.44
-3604.99
-3687.23
-3788.24
-3907.49
-4030.21
-4080.56
-4072.24
-4071.22
-4162.57
-4268.81
-4367.57
-4459.82
-4547.39
-4632
-4716.48
-4802.92
-4891
-4980.49
-5071.34
-5163.71
-5255.78
-5348.02
-5441.19
-5532.67
-5627.29
-5725.82
-5830.08
-5929.58
-6030.88
-6091.74
-6144.62
-6229.7
-6335.74
-6414.08
-6474.71
-6600.67
-6677.24
-6733.17
-6877.65
-6958.97
-7011.4
-7051.8
-7066.15
-7119.16
-7174.88
-7224.57
-7356.58
-7507.06
-7674.02
-7763.87
-7820.94
-7877.58
-7912.34
-7982.17
-8048.99
-8077.48
-8079.58
-8137.54
-8252.53
-8366.01
-8497.1
-8633.45
-8763.83
-8890.16
-9015.55
-9137.6
-9259.47
-9378.46
-9497.43
-9614.77
-9731.78
-9848.02
-9963.52
-10078.2
-10191.2
-10303.2
-10413.7
-10523
-10630.8
-10737.6
-10842.9
-10947.9
-11051.3
-11155.2
-11257.9
-11360.7
-11462.9
-11564
-11665.4
-11764.5
-11861.5
-11960.2
-12053
-12142.2
-12231.2
-12313.8
-12390.5
-12450.2
-12504.1
-12523.4
)
;
    }
    procBoundary1to3
    {
        type            processor;
        value           nonuniform List<scalar> 
180
(
-140.848
-263.96
-304.985
-374.849
-420.114
-433.855
-432.912
-468.562
-508.608
-522.377
-521.961
-521.682
-560.954
-599.725
-629.962
-707.09
-801.775
-852.51
-862.077
-850.881
-841.696
-843.031
-884.976
-918.355
-945.186
-1033.1
-1138.24
-1184.27
-1189.11
-1189.02
-1202.11
-1210.73
-1230.49
-1279.37
-1339.89
-1397.76
-1454.9
-1514.4
-1575.02
-1637.22
-1698.08
-1760
-1820.05
-1877.72
-1934.84
-1989.22
-2042.2
-2090.37
-2141.32
-2183.12
-2222.68
-2282.14
-2322.35
-2348.43
-2400.33
-2484.08
-2583.16
-2652.79
-2711.66
-2776.34
-2810.49
-2820.12
-2829.5
-2841.63
-2899.59
-2951.61
-3001.21
-3047.76
-3062.01
-3102.34
-3152.74
-3168.34
-3163.84
-3163.19
-3166.29
-3168.11
-3224.95
-3282.47
-3290.25
-3308.76
-3436.48
-3575.38
-3700.24
-3817.16
-3926.23
-4029.62
-4129.48
-4225.04
-4326.79
-4403.33
-4473.48
-4527.54
-4574.4
-4648.54
-4723.85
-4837.48
-4961.49
-5066.07
-5166.26
-5246.31
-5285.2
-5292.01
-5292.6
-5295.78
-5331.5
-5436.19
-5546.06
-5649.83
-5746.69
-5834.27
-5927.68
-6024.44
-6121.27
-6215.99
-6313.22
-6409.34
-6503.92
-6598.66
-6692.86
-6785.25
-6875.66
-6964.01
-7050.76
-7139.7
-7232.2
-7329.21
-7425.43
-7523.88
-7621.2
-7720.7
-7818.99
-7919.63
-8019.53
-8121.72
-8223.19
-8327.32
-8430.49
-8537.28
-8642.03
-8749.86
-8854.16
-8961.33
-9065.81
-9173.19
-9279.01
-9386.42
-9494.14
-9600.88
-9710.42
-9816.6
-9926.44
-10031.9
-10142
-10248.9
-10356.4
-10466.5
-10570.9
-10682.1
-10791.3
-10900.9
-11013.1
-11120.3
-11234.4
-11342.1
-11455.6
-11562.9
-11671.5
-11774.1
-11885.8
-11993.9
-12096
-12199.2
-12291.1
-12389.5
-12467
-12559.7
-12635
-12674.9
-12705.8
-12715.9
)
;
    }
}


// ************************************************************************* //
