/*--------------------------------*- C++ -*----------------------------------*\
| =========                 |                                                 |
| \\      /  F ield         | OpenFOAM: The Open Source CFD Toolbox           |
|  \\    /   O peration     | Version:  5.x                                   |
|   \\  /    A nd           | Web:      www.OpenFOAM.org                      |
|    \\/     M anipulation  |                                                 |
\*---------------------------------------------------------------------------*/
FoamFile
{
    version     2.0;
    format      ascii;
    class       volVectorField;
    location    "10000";
    object      U;
}
// * * * * * * * * * * * * * * * * * * * * * * * * * * * * * * * * * * * * * //

dimensions      [0 1 -1 0 0 0 0];

internalField   nonuniform List<vector> 
180
(
(-0.0470795 -0.0430758 118.611)
(-0.0938389 -0.0239079 119.188)
(-0.0799493 -0.00536058 118.752)
(-0.154184 0.0739704 118.898)
(-0.196628 0.139648 118.842)
(-0.251478 0.178353 118.843)
(-0.231849 0.105646 118.647)
(-0.149226 0.0498416 118.582)
(-0.0190526 -0.0737078 118.601)
(0.134566 -0.205211 118.636)
(0.253457 -0.383054 118.441)
(0.268885 -0.49921 118.813)
(0.325327 -0.522086 118.665)
(0.420091 -0.479541 118.721)
(0.559103 -0.585884 118.612)
(0.575211 -0.684034 119.051)
(0.560953 -0.616298 118.878)
(0.585364 -0.529513 119.064)
(0.477945 -0.41199 119.136)
(0.177838 -0.15868 119.09)
(0.213599 -0.365713 119.394)
(0.182726 -0.27298 119.425)
(0.0700303 -0.140113 119.311)
(0.103627 -0.241213 119.708)
(0.0667654 -0.358949 119.649)
(0.0174238 -0.303138 119.723)
(0.038615 -0.322958 119.975)
(0.0665814 -0.296031 120.091)
(-0.166175 0.147054 119.92)
(-0.159099 0.116474 120.165)
(-0.195912 0.0680442 120.276)
(-0.335283 0.296944 120.062)
(-0.285233 0.315216 120.401)
(-0.466512 0.419972 120.013)
(-0.453095 0.449565 120.443)
(-0.538677 0.561759 120.14)
(-0.586248 0.666515 120.009)
(-0.555856 0.687225 120.1)
(-0.692891 0.834164 119.624)
(-0.614942 0.850934 120.151)
(-0.557069 0.870211 119.43)
(-0.339878 0.739161 119.617)
(-0.358716 0.7942 119.71)
(-0.322765 0.805582 118.875)
(-0.077412 0.746382 118.91)
(-0.176628 0.886652 119.21)
(0.114067 0.732416 118.352)
(0.161329 0.707925 118.457)
(0.135706 0.784786 118.57)
(0.331454 0.627351 117.647)
(0.344942 0.694066 118.119)
(0.419758 0.592671 117.589)
(0.5592 0.407222 117.426)
(0.759419 -0.021668 116.922)
(0.814279 -0.0693432 117.328)
(0.783101 -0.0273653 117.284)
(0.886932 -0.277126 116.876)
(1.03943 -0.583648 116.506)
(1.04544 -0.537036 117.209)
(1.24675 -0.7675 116.82)
(1.55554 -1.00129 116.857)
(1.82444 -1.28979 116.97)
(2.24478 -1.52527 117.035)
(2.57001 -1.70287 117.225)
(2.76883 -1.79939 117.402)
(2.92714 -1.7143 117.586)
(3.12887 -1.61331 117.865)
(3.33868 -1.55813 118.11)
(3.34325 -1.51777 118.424)
(3.31276 -1.37043 118.721)
(3.24377 -1.16634 119.007)
(3.17341 -1.01609 119.294)
(3.03661 -0.906363 119.6)
(2.84697 -0.846528 119.893)
(2.75347 -0.834335 120.201)
(2.59687 -0.695723 120.51)
(2.49477 -0.703008 120.812)
(2.32714 -0.627844 121.02)
(2.27756 -0.807699 121.533)
(2.30429 -0.931047 121.747)
(2.48028 -1.21078 122.034)
(2.59955 -1.40851 122.345)
(2.55532 -1.35462 122.757)
(2.56751 -1.35433 122.966)
(2.49385 -1.29427 123.246)
(2.45397 -1.23526 123.635)
(1.63181 -0.642768 123.641)
(1.01658 -0.234509 123.389)
(1.20251 -0.299748 124.185)
(1.13368 -0.223497 124.199)
(0.92311 0.0211699 124.063)
(0.875845 0.116042 124.143)
(0.964167 0.0258589 124.216)
(0.469202 0.0539516 123.84)
(0.201913 0.107778 123.949)
(0.110048 0.137895 124.074)
(-0.165006 0.367095 123.745)
(-0.541405 0.314239 123.393)
(-0.693991 0.253809 123.216)
(-0.831741 0.315081 123.073)
(-0.939705 0.304186 122.917)
(-1.14607 0.244431 122.742)
(-1.15293 -0.601031 121.796)
(-1.27012 -0.718443 122.489)
(-1.30397 -0.78885 122.489)
(-1.09659 -1.24524 121.807)
(-0.569825 -1.89586 121.578)
(0.0431167 -2.36937 121.581)
(0.579381 -2.73463 121.363)
(0.515268 -2.8122 121.975)
(1.08189 -3.06489 121.281)
(0.958258 -3.07759 121.802)
(1.1975 -3.18955 121.437)
(1.31095 -3.17456 121.644)
(2.00209 -3.35767 121.498)
(2.79192 -3.6047 121.634)
(3.36661 -3.79462 121.785)
(3.63941 -3.90524 122.081)
(3.69708 -3.93675 121.912)
(3.60415 -3.9114 122.66)
(3.75655 -3.93981 122.454)
(3.98011 -4.16649 122.803)
(4.09194 -4.41331 123.054)
(4.4614 -5.43247 123.546)
(4.41565 -6.13797 123.974)
(4.75716 -7.19855 124.539)
(4.63203 -7.34598 125.392)
(4.80816 -8.39754 125.863)
(4.64537 -8.84548 126.835)
(4.97644 -10.0038 127.303)
(5.01632 -10.6045 128.262)
(5.41945 -11.5014 128.799)
(5.84576 -12.3495 129.582)
(6.37998 -13.1967 130.257)
(6.99405 -14.0997 130.807)
(7.36073 -14.6889 131.528)
(8.09867 -15.5102 131.918)
(8.83498 -16.4346 132.56)
(9.51825 -17.2259 132.843)
(10.0202 -17.9698 133.359)
(10.6756 -18.6816 133.587)
(11.4317 -19.5053 133.936)
(12.5145 -20.3544 134.113)
(13.6818 -21.3321 134.367)
(15.113 -22.3193 134.513)
(16.444 -23.3611 134.653)
(17.8774 -24.3135 134.7)
(19.0411 -25.2241 134.69)
(20.2485 -26.0114 134.574)
(21.1191 -26.7181 134.375)
(22.027 -27.2965 134.052)
(22.6054 -27.7944 133.68)
(23.2423 -28.1912 133.167)
(23.614 -28.5282 132.633)
(24.0869 -28.8233 131.941)
(24.4089 -29.136 131.236)
(24.8404 -29.4297 130.343)
(25.2058 -29.8029 129.504)
(25.6429 -30.1374 128.445)
(26.0622 -30.5786 127.497)
(26.481 -30.8863 126.308)
(26.9067 -31.3163 125.279)
(27.2455 -31.5486 123.988)
(27.5745 -31.8975 122.916)
(27.7561 -31.9734 121.583)
(27.8645 -32.1432 120.526)
(27.8127 -31.9282 119.214)
(27.597 -31.7922 118.243)
(27.2585 -31.1414 116.991)
(26.7385 -30.5558 116.162)
(26.116 -29.4397 115.036)
(25.3895 -28.2685 114.324)
(24.5393 -26.9563 113.477)
(23.8982 -25.2115 112.797)
(23.1268 -23.8089 112.32)
(22.6417 -22.1047 111.821)
(22.3214 -20.8754 111.81)
(21.8259 -18.876 110.789)
(23.0469 -19.7055 112.001)
(23.7504 -20.3158 111.941)
)
;

boundaryField
{
    inlet
    {
        type            zeroGradient;
    }
    outlet
    {
        type            zeroGradient;
    }
    repeat_boundary
    {
        type            slip;
    }
    procBoundary1to0
    {
        type            processor;
        value           nonuniform List<vector> 
180
(
(-0.049705 -0.0846609 118.755)
(-0.0504287 -0.0818745 118.824)
(-0.136511 -0.0703352 119.272)
(-0.139621 -0.0684216 118.907)
(-0.21789 -0.0633307 119.191)
(-0.133116 -0.070326 118.738)
(-0.258816 -0.0371157 119.133)
(-0.311527 -0.0195905 119.383)
(-0.196426 -0.0373134 118.751)
(-0.220354 -0.103437 119.277)
(-0.172302 -0.129455 119.202)
(-0.183163 -0.115468 119.167)
(-0.168724 -0.0936118 119.201)
(-0.0897855 -0.120582 119.304)
(0.136107 -0.118586 118.784)
(0.160853 -0.236288 119.246)
(0.177396 -0.277698 119.208)
(0.243671 -0.193642 119.29)
(0.471269 -0.0980029 118.727)
(0.532316 -0.126806 119.057)
(0.551245 -0.0854601 119.118)
(0.610206 0.0495405 119.147)
(0.705311 0.0285187 118.561)
(0.720522 -0.0127049 119.101)
(0.748222 -0.133561 118.628)
(0.813092 -0.0263152 118.985)
(0.778469 0.00072661 118.464)
(0.794045 -0.070519 118.736)
(0.815989 -0.0517644 118.89)
(0.675073 -0.0251132 118.34)
(0.677133 0.0036737 118.708)
(0.650043 -0.161426 118.694)
(0.709308 -0.0989495 118.64)
(0.756433 0.00512656 118.715)
(0.476488 -0.062393 118.579)
(0.153097 0.13336 118.392)
(0.161077 0.215669 118.829)
(0.268873 0.105287 118.903)
(0.0847991 -0.0111579 118.619)
(-0.103449 0.0249831 118.823)
(-0.45812 0.280814 118.562)
(-0.432178 0.379263 119.169)
(-0.544361 0.340161 118.824)
(-0.75747 0.266579 118.804)
(-0.988957 0.286756 118.888)
(-1.18115 0.303371 118.954)
(-1.45111 0.175088 118.733)
(-1.39963 0.0870249 119.137)
(-1.39142 0.0246355 119.144)
(-1.44871 0.0203228 119.192)
(-1.56258 -0.045641 119.149)
(-1.67393 -0.271092 119.228)
(-1.72849 -0.487902 119.324)
(-1.76613 -0.7021 119.495)
(-1.7216 -0.813273 119.575)
(-1.70326 -0.971988 119.769)
(-1.46696 -1.04658 119.837)
(-1.18133 -1.04007 119.921)
(-0.978649 -1.07559 120.093)
(-0.998972 -1.10786 120.318)
(-1.07427 -1.08255 120.379)
(-1.13443 -1.01589 120.449)
(-1.08836 -0.99747 120.503)
(-1.01365 -1.04866 120.708)
(-0.584929 -0.93621 120.511)
(-0.0400258 -0.672492 120.259)
(-0.064721 -0.807998 120.689)
(0.0403186 -0.781117 120.742)
(0.436811 -0.533409 120.272)
(0.555306 -0.492497 119.953)
(0.474631 -0.509488 120.472)
(0.645619 -0.309353 120.111)
(1.14052 0.223626 119.281)
(1.12613 0.277161 119.835)
(1.11083 0.275527 119.616)
(1.20266 0.116261 119.451)
(1.29154 0.27997 118.716)
(1.04165 0.526417 118.466)
(1.00727 0.535474 118.732)
(1.0595 0.549821 118.689)
(0.819276 0.585324 117.86)
(0.684899 0.643895 117.898)
(0.360146 0.794999 117.421)
(-0.0927656 0.866596 117.357)
(-0.678904 1.01656 116.671)
(-0.659849 1.01776 117.062)
(-0.681098 1.03966 116.964)
(-1.19506 1.24704 116.362)
(-1.71368 1.289 116.198)
(-1.99013 1.04646 116.181)
(-2.31185 0.560925 116.092)
(-2.44994 0.0356763 116.1)
(-2.60695 -0.498305 116.105)
(-2.62928 -1.01622 116.212)
(-2.63303 -1.46824 116.346)
(-2.64686 -1.83937 116.553)
(-2.6818 -2.17319 116.775)
(-2.70311 -2.44846 117.064)
(-2.68073 -2.7205 117.375)
(-2.65625 -2.9362 117.7)
(-2.59629 -3.14257 118.073)
(-2.5351 -3.3013 118.418)
(-2.48179 -3.47243 118.818)
(-2.35879 -3.57728 119.217)
(-2.31222 -3.75107 119.598)
(-2.25217 -3.83237 120.037)
(-2.15977 -3.84286 120.363)
(-2.15881 -3.89774 120.866)
(-1.90266 -3.95713 120.871)
(-2.00783 -4.05369 121.776)
(-1.77463 -4.04221 121.601)
(-1.73839 -4.05913 122.208)
(-1.48829 -4.09426 121.986)
(-1.60678 -4.13598 122.915)
(-1.3197 -4.07408 122.901)
(-1.02387 -4.093 122.65)
(-1.11626 -4.1389 123.643)
(-0.908409 -4.13453 123.288)
(-0.259528 -4.12029 122.908)
(-0.34109 -4.12385 123.898)
(0.0334261 -4.20041 123.165)
(-0.120815 -4.08809 123.511)
(-0.129028 -4.0564 123.656)
(0.204407 -4.30055 122.914)
(0.217118 -4.29348 123.628)
(0.393783 -4.43698 123.134)
(0.396081 -4.7381 123.095)
(-0.0470475 -5.11775 123.209)
(-0.938581 -5.55296 122.806)
(-0.99937 -5.5549 123.909)
(-1.54301 -5.62601 123.312)
(-1.6584 -5.69012 123.845)
(-1.65284 -5.66361 124.163)
(-1.99069 -5.37676 123.685)
(-1.94869 -5.30616 124.255)
(-1.82537 -5.16906 124.318)
(-1.76933 -5.08933 124.404)
(-2.08125 -4.69709 123.791)
(-2.22585 -4.26432 124.041)
(-2.42721 -3.92196 123.602)
(-2.71312 -3.47733 123.382)
(-3.16444 -2.87372 122.917)
(-3.92866 -2.27698 122.592)
(-5.02 -1.53974 121.944)
(-6.5461 -0.865075 121.435)
(-8.44466 -0.135579 120.734)
(-10.5786 0.49637 120.093)
(-12.877 1.0909 119.411)
(-15.1988 1.58437 118.725)
(-17.4166 1.96218 118.099)
(-19.3887 2.26583 117.436)
(-21.1348 2.43181 116.847)
(-22.6852 2.56709 116.223)
(-24.1895 2.5785 115.643)
(-25.7084 2.5562 115.064)
(-27.3536 2.44775 114.497)
(-29.0485 2.24771 113.978)
(-30.8298 1.98992 113.465)
(-32.5218 1.60786 113.019)
(-34.1558 1.2041 112.582)
(-35.5514 0.686205 112.226)
(-36.7866 0.188015 111.851)
(-37.7029 -0.424098 111.603)
(-38.4354 -0.960789 111.268)
(-38.8407 -1.67065 111.129)
(-39.0545 -2.24354 110.859)
(-39.0141 -2.90375 110.814)
(-38.7617 -3.53267 110.624)
(-38.3627 -4.05198 110.638)
(-37.7464 -4.66458 110.551)
(-37.0725 -5.16513 110.653)
(-36.3655 -5.39017 110.574)
(-35.6854 -5.8647 110.808)
(-34.978 -5.80314 110.74)
(-33.9699 -5.74621 110.939)
(-33.1485 -5.53802 110.91)
(-32.249 -5.62861 110.998)
(-31.1094 -5.93964 111.081)
(-30.6275 -6.18556 110.894)
(-29.1648 -6.77391 111.056)
)
;
    }
    procBoundary1to3
    {
        type            processor;
        value           nonuniform List<vector> 
180
(
(-0.00484717 -0.0472027 118.057)
(-0.0271423 -0.0279433 118.709)
(-0.0284559 -0.000439134 118.487)
(0.00226944 0.0235433 118.086)
(0.0389677 0.16301 118.524)
(0.0260963 0.239025 118.497)
(-0.0798479 0.236266 118.588)
(-0.0769432 0.146689 118.15)
(-0.0772963 0.178816 118.5)
(-0.044243 0.178709 118.531)
(-0.052414 0.166729 118.374)
(-0.110565 0.0895794 118.59)
(-0.0543951 -0.0527627 117.965)
(-0.0312784 -0.127376 118.604)
(0.00978113 -0.178192 118.157)
(0.0377096 -0.167175 118.253)
(-0.0584002 -0.343402 117.869)
(-0.0367843 -0.412896 118.267)
(0.0115881 -0.327637 118.2)
(0.0317543 -0.247297 118.028)
(-0.123356 -0.370967 118.071)
(-0.356788 -0.615676 117.989)
(-0.226911 -0.863042 117.555)
(-0.337246 -1.00014 117.982)
(-0.206975 -1.10076 117.576)
(-0.0321226 -0.978609 117.424)
(0.251189 -0.582115 117.165)
(0.394183 -0.625029 117.554)
(0.440213 -0.55998 117.515)
(0.370221 -0.389661 117.28)
(0.311302 -0.38663 117.366)
(0.325536 -0.491498 117.405)
(0.331731 -0.35626 117.337)
(0.265493 -0.0720687 117.317)
(0.260417 0.231226 117.387)
(0.241409 0.54221 117.489)
(0.317505 0.730698 117.551)
(0.319309 0.903457 117.666)
(0.43695 1.03078 117.803)
(0.444191 1.16971 117.957)
(0.450932 1.27855 118.117)
(0.399965 1.47372 118.248)
(0.393489 1.70382 118.429)
(0.391883 1.8315 118.588)
(0.367981 1.86837 118.76)
(0.320995 1.88398 118.929)
(0.356439 1.94093 119.083)
(0.416643 1.94983 119.332)
(0.547769 2.0141 119.389)
(0.669899 2.02458 119.822)
(0.726926 2.00959 119.885)
(0.717853 1.94152 120.055)
(0.860268 1.96162 120.469)
(0.913933 1.93625 120.727)
(0.71445 1.73906 120.65)
(0.608526 1.46458 121.067)
(0.221907 0.817393 120.836)
(0.251005 0.70098 121.536)
(-0.0432854 0.330624 121.066)
(-0.0639944 0.274057 121.343)
(-0.0669098 0.312669 121.478)
(-0.157789 0.31908 121.452)
(-0.175771 0.367737 121.398)
(-0.0736055 0.319509 121.606)
(-0.159815 -0.0747996 120.997)
(-0.018532 -0.100005 121.739)
(-0.102711 -0.349566 120.962)
(0.0116997 -0.424729 121.391)
(-0.0142706 -0.47866 121.507)
(0.0728212 -0.627781 120.837)
(0.286212 -0.696959 121.198)
(0.0922685 -0.725152 121.224)
(0.117795 -0.819629 121.03)
(0.14067 -0.960963 121)
(-0.0752349 -1.07768 120.85)
(-0.171283 -1.2206 121.035)
(-0.317892 -1.31329 120.154)
(-0.445502 -1.5733 120.583)
(-0.586573 -1.69767 120.709)
(-0.550834 -1.67106 119.995)
(-0.429092 -1.64606 119.771)
(-0.473714 -1.55008 119.684)
(-0.501937 -1.60228 119.398)
(-0.584811 -1.66865 119.131)
(-0.654061 -1.71497 118.853)
(-0.769244 -1.86683 118.543)
(-0.840982 -2.02356 118.197)
(-1.04048 -2.23922 117.951)
(-1.03137 -2.25776 117.351)
(-1.10792 -2.29862 117.478)
(-0.839695 -2.19011 116.568)
(-0.793147 -2.0569 116.884)
(-0.270038 -1.76349 116.107)
(0.107029 -1.49087 116.149)
(0.817224 -1.15056 115.875)
(1.91191 -0.550579 115.586)
(2.54867 -0.118574 115.675)
(2.8662 0.170359 115.747)
(3.09019 0.291871 115.545)
(3.23423 0.394587 115.669)
(3.29385 0.492092 115.821)
(3.24558 0.505722 115.764)
(3.171 0.442381 115.693)
(3.14155 0.379505 115.721)
(3.64592 0.686846 115.448)
(4.49136 1.21806 115.405)
(5.29145 1.63324 115.608)
(6.15153 1.84269 115.564)
(6.63852 1.96454 115.791)
(6.99241 1.98078 115.885)
(7.17102 2.06608 116.018)
(7.449 2.23299 116.239)
(7.64152 2.42684 116.456)
(7.89522 2.49716 116.77)
(8.06138 2.63909 116.985)
(8.26232 2.78521 117.392)
(8.31041 2.94865 117.637)
(8.26157 3.10786 118.054)
(8.01555 3.21724 118.325)
(7.64391 3.15436 118.737)
(7.07135 2.91804 118.962)
(6.38558 2.42779 119.257)
(5.55067 1.69387 119.329)
(4.6642 0.859124 119.399)
(3.66769 -0.0134172 119.208)
(2.6317 -0.722914 118.944)
(1.53321 -1.34423 118.472)
(0.500302 -1.57168 117.926)
(-0.551744 -1.5593 117.242)
(-1.50502 -1.02656 116.457)
(-2.47201 -0.217561 115.65)
(-3.30919 1.12263 114.711)
(-4.08707 2.6596 113.889)
(-4.71206 4.69043 112.859)
(-5.20694 6.77193 112.115)
(-5.5788 9.15838 111.075)
(-5.74998 11.5369 110.521)
(-5.86023 14.0396 109.532)
(-5.66077 16.3951 109.21)
(-5.50797 18.6422 108.298)
(-4.94322 20.7285 108.247)
(-4.60886 22.6245 107.418)
(-3.75404 24.5168 107.605)
(-3.28862 26.1375 106.866)
(-2.22281 28.0039 107.235)
(-1.61637 29.401 106.624)
(-0.434325 31.2936 107.089)
(0.367148 32.4777 106.692)
(1.56289 34.3017 107.16)
(2.58749 35.381 107.052)
(3.79889 36.9633 107.47)
(4.83548 37.7957 107.667)
(6.20926 39.2996 107.98)
(7.19412 39.8183 108.465)
(8.64795 41.2059 108.717)
(9.95446 41.8784 109.297)
(11.005 42.4389 109.722)
(12.0755 42.9389 110.092)
(13.2523 43.2714 110.643)
(14.168 43.5982 110.923)
(15.2889 43.9943 111.373)
(16.4637 44.4001 111.771)
(17.6999 44.7978 112.01)
(19.022 44.9392 112.684)
(20.2122 44.9676 112.7)
(21.4195 44.572 113.62)
(22.2844 43.9139 113.521)
(23.1296 42.9129 114.623)
(23.7232 41.3694 114.284)
(24.2769 39.5857 115.533)
(24.5587 37.1108 115.171)
(24.7965 34.3451 116.229)
(25.0149 31.2407 115.993)
(25.0843 27.1434 116.588)
(25.4968 24.1239 116.654)
(25.8073 18.4615 116.592)
(26.3798 15.9134 116.704)
(26.7652 14.4038 116.745)
(27.6688 14.3739 116.635)
(28.0152 13.4806 116.9)
)
;
    }
}


// ************************************************************************* //
