/*--------------------------------*- C++ -*----------------------------------*\
| =========                 |                                                 |
| \\      /  F ield         | OpenFOAM: The Open Source CFD Toolbox           |
|  \\    /   O peration     | Version:  5.x                                   |
|   \\  /    A nd           | Web:      www.OpenFOAM.org                      |
|    \\/     M anipulation  |                                                 |
\*---------------------------------------------------------------------------*/
FoamFile
{
    version     2.0;
    format      ascii;
    class       volScalarField;
    location    "2000";
    object      p;
}
// * * * * * * * * * * * * * * * * * * * * * * * * * * * * * * * * * * * * * //

dimensions      [0 2 -2 0 0 0 0];

internalField   nonuniform List<scalar> 
180
(
9.65124e-09
2.90233e-08
4.84879e-08
6.80011e-08
8.75669e-08
1.07204e-07
1.26929e-07
1.46757e-07
1.66705e-07
1.86793e-07
2.07041e-07
2.27471e-07
2.48106e-07
2.68972e-07
2.90096e-07
3.11517e-07
3.33284e-07
3.5545e-07
3.78071e-07
4.01209e-07
4.24932e-07
4.49313e-07
4.74431e-07
5.00374e-07
5.27239e-07
5.55131e-07
5.84164e-07
6.14389e-07
6.45874e-07
6.78703e-07
7.12973e-07
7.488e-07
7.86318e-07
8.25684e-07
8.67078e-07
9.10706e-07
9.56809e-07
1.00565e-06
1.05749e-06
1.11265e-06
1.17153e-06
1.23453e-06
1.30218e-06
1.37504e-06
1.4538e-06
1.53923e-06
1.63223e-06
1.73387e-06
1.84538e-06
1.96819e-06
2.104e-06
2.2548e-06
2.42294e-06
2.6112e-06
2.82287e-06
3.06188e-06
3.33291e-06
3.64155e-06
3.99446e-06
4.39967e-06
4.86678e-06
5.40736e-06
6.03529e-06
6.76726e-06
7.62338e-06
8.62782e-06
9.80973e-06
1.12042e-05
1.28534e-05
1.48082e-05
1.71299e-05
1.98924e-05
2.31848e-05
2.71114e-05
3.17809e-05
3.73175e-05
4.40678e-05
5.31966e-05
6.56732e-05
7.21028e-05
3.62842e-07
0.00115847
0.00192452
0.00216368
0.00275738
0.00398311
0.00600203
0.00689248
0.0115149
0.0144398
0.0158526
0.0163821
0.0177109
0.0207801
0.0218641
0.0237098
0.0251603
0.026278
0.0276097
0.0285171
0.0298084
0.0313434
0.0317578
0.0320919
0.0322484
0.0322496
0.0322641
0.0322808
0.0322954
0.0323077
0.0323183
0.0323274
0.0323354
0.0323422
0.0323481
0.0323532
0.0323576
0.0323614
0.0323647
0.0323675
0.03237
0.0323721
0.032374
0.0323755
0.0323769
0.0323781
0.0323791
0.03238
0.0323808
0.0323814
0.0323819
0.0323824
0.0323828
0.0323831
0.0323834
0.0323837
0.0323839
0.032384
0.0323842
0.0323843
0.0323844
0.0323845
0.0323845
0.0323846
0.0323846
0.0323846
0.0323847
0.0323847
0.0323847
0.0323847
0.0323847
0.0323847
0.0323847
0.0323847
0.0323847
0.0323847
0.0323847
0.0323847
0.0323847
0.0323847
0.0323847
0.0323847
0.0323847
0.0323847
0.0323847
0.0323847
0.0323847
0.0323847
0.0323846
0.0323846
0.0323846
0.0323846
0.0323846
0.0323846
0.0323846
0.0323846
0.0323846
0.0323846
0.0323846
0.0323846
)
;

boundaryField
{
    inlet
    {
        type            zeroGradient;
    }
    outlet
    {
        type            fixedValue;
        value           uniform 0;
    }
    repeat_boundary
    {
        type            zeroGradient;
    }
    procBoundary0to1
    {
        type            processor;
        value           nonuniform List<scalar> 
180
(
9.27106e-09
2.79064e-08
4.6605e-08
6.52562e-08
8.38341e-08
1.02322e-07
1.20708e-07
1.38984e-07
1.57153e-07
1.75223e-07
1.93214e-07
2.11157e-07
2.29092e-07
2.47071e-07
2.65157e-07
2.83414e-07
3.01907e-07
3.20709e-07
3.39901e-07
3.59567e-07
3.79797e-07
4.00685e-07
4.22328e-07
4.44827e-07
4.68286e-07
4.92812e-07
5.18523e-07
5.45617e-07
5.74302e-07
6.04801e-07
6.37359e-07
6.72247e-07
7.09774e-07
7.50292e-07
7.94205e-07
8.41981e-07
8.94162e-07
9.51393e-07
1.01445e-06
1.08422e-06
1.16171e-06
1.2481e-06
1.34472e-06
1.45312e-06
1.57504e-06
1.71248e-06
1.86771e-06
2.04332e-06
2.24221e-06
2.46772e-06
2.72359e-06
3.01406e-06
3.34391e-06
3.71856e-06
4.14409e-06
4.62736e-06
5.17609e-06
5.7989e-06
6.50546e-06
7.30654e-06
8.21411e-06
9.24144e-06
1.04031e-05
1.17153e-05
1.31953e-05
1.48623e-05
1.67365e-05
1.88398e-05
2.1195e-05
2.38262e-05
2.67577e-05
3.00144e-05
3.36209e-05
3.75973e-05
4.1946e-05
4.66609e-05
5.19026e-05
5.84074e-05
6.63942e-05
6.58656e-05
1.37809e-06
0.00127381
0.00264461
0.00277927
0.00427853
0.00632456
0.00895795
0.00998054
0.0115107
0.01257
0.0133297
0.0148368
0.0154643
0.0170128
0.0199889
0.0220419
0.0224839
0.0237511
0.0277779
0.0301763
0.0316766
0.0321127
0.032271
0.0323255
0.0323504
0.0323579
0.0323603
0.0323631
0.032366
0.0323685
0.0323707
0.0323726
0.0323742
0.0323756
0.0323769
0.0323779
0.0323788
0.0323796
0.0323803
0.0323809
0.0323814
0.0323819
0.0323822
0.0323826
0.0323829
0.0323831
0.0323833
0.0323835
0.0323837
0.0323838
0.032384
0.0323841
0.0323842
0.0323842
0.0323843
0.0323844
0.0323844
0.0323844
0.0323845
0.0323845
0.0323845
0.0323846
0.0323846
0.0323846
0.0323846
0.0323846
0.0323846
0.0323846
0.0323846
0.0323846
0.0323846
0.0323846
0.0323847
0.0323847
0.0323847
0.0323847
0.0323847
0.0323847
0.0323847
0.0323846
0.0323846
0.0323846
0.0323846
0.0323846
0.0323846
0.0323846
0.0323846
0.0323846
0.0323846
0.0323846
0.0323846
0.0323846
0.0323846
0.0323846
0.0323846
0.0323846
0.0323846
0.0323846
0.0323846
0.0323846
)
;
    }
    procBoundary0to2
    {
        type            processor;
        value           nonuniform List<scalar> 
180
(
9.26989e-09
2.78685e-08
4.65204e-08
6.51133e-08
8.36112e-08
1.01986e-07
1.20214e-07
1.38269e-07
1.5613e-07
1.73775e-07
1.91182e-07
2.08325e-07
2.252e-07
2.41803e-07
2.58132e-07
2.74183e-07
2.89951e-07
3.05427e-07
3.20593e-07
3.35422e-07
3.49874e-07
3.63892e-07
3.77399e-07
3.90294e-07
4.02447e-07
4.13697e-07
4.23843e-07
4.32645e-07
4.39814e-07
4.45013e-07
4.47847e-07
4.47866e-07
4.44551e-07
4.3732e-07
4.25515e-07
4.08406e-07
3.85157e-07
3.54654e-07
3.15613e-07
2.66556e-07
2.05858e-07
1.31821e-07
4.25078e-08
-6.43027e-08
-1.91156e-07
-3.40981e-07
-5.1715e-07
-7.23561e-07
-9.64717e-07
-1.24584e-06
-1.57298e-06
-1.95315e-06
-2.39451e-06
-2.90654e-06
-3.50027e-06
-4.18852e-06
-4.98626e-06
-5.9109e-06
-6.98279e-06
-8.22568e-06
-9.66737e-06
-1.13404e-05
-1.32828e-05
-1.5539e-05
-1.81602e-05
-2.12059e-05
-2.47453e-05
-2.88583e-05
-3.3638e-05
-3.9192e-05
-4.56452e-05
-5.3142e-05
-6.18492e-05
-7.19623e-05
-8.37168e-05
-9.73863e-05
-0.000113153
-0.000130814
-0.000150603
-0.000180571
-0.000263916
0.000488601
0.00115395
0.0014852
0.00320388
0.00529299
0.00783692
0.00862563
0.00936844
0.011411
0.0166004
0.0194355
0.0214709
0.0221063
0.0239696
0.0253694
0.0260409
0.0272146
0.0276565
0.0290885
0.0316689
0.0322952
0.0324558
0.0324467
0.0324391
0.0324342
0.032428
0.0324226
0.0324181
0.0324141
0.0324105
0.0324074
0.0324046
0.0324022
0.0324001
0.0323982
0.0323965
0.0323951
0.0323938
0.0323926
0.0323916
0.0323907
0.03239
0.0323893
0.0323887
0.0323881
0.0323876
0.0323872
0.0323868
0.0323865
0.0323863
0.032386
0.0323858
0.0323857
0.0323855
0.0323854
0.0323853
0.0323852
0.0323851
0.0323851
0.032385
0.032385
0.0323849
0.0323849
0.0323849
0.0323848
0.0323848
0.0323848
0.0323848
0.0323848
0.0323847
0.0323847
0.0323847
0.0323847
0.0323847
0.0323847
0.0323847
0.0323847
0.0323847
0.0323847
0.0323847
0.0323847
0.0323847
0.0323846
0.0323846
0.0323846
0.0323846
0.0323846
0.0323846
0.0323846
0.0323846
0.0323846
0.0323846
0.0323846
0.0323846
0.0323846
0.0323846
0.0323846
0.0323846
0.0323846
)
;
    }
}


// ************************************************************************* //
