/*--------------------------------*- C++ -*----------------------------------*\
| =========                 |                                                 |
| \\      /  F ield         | OpenFOAM: The Open Source CFD Toolbox           |
|  \\    /   O peration     | Version:  5.x                                   |
|   \\  /    A nd           | Web:      www.OpenFOAM.org                      |
|    \\/     M anipulation  |                                                 |
\*---------------------------------------------------------------------------*/
FoamFile
{
    version     2.0;
    format      ascii;
    class       surfaceScalarField;
    location    "2000";
    object      phi;
}
// * * * * * * * * * * * * * * * * * * * * * * * * * * * * * * * * * * * * * //

dimensions      [0 3 -1 0 0 0 0];

internalField   nonuniform List<scalar> 
179
(
-250.026
-250.026
-250.026
-250.027
-250.028
-250.029
-250.031
-250.032
-250.034
-250.037
-250.039
-250.042
-250.045
-250.049
-250.054
-250.058
-250.064
-250.07
-250.077
-250.085
-250.093
-250.103
-250.113
-250.126
-250.139
-250.154
-250.171
-250.19
-250.211
-250.234
-250.26
-250.29
-250.323
-250.36
-250.401
-250.447
-250.498
-250.556
-250.621
-250.693
-250.775
-250.866
-250.968
-251.082
-251.21
-251.354
-251.516
-251.697
-251.9
-252.129
-252.385
-252.673
-252.997
-253.361
-253.77
-254.23
-254.748
-255.331
-255.987
-256.725
-257.557
-258.495
-259.552
-260.745
-262.091
-263.611
-265.328
-267.27
-269.467
-271.955
-274.773
-277.968
-281.595
-285.715
-290.4
-295.73
-301.793
-308.627
-316.023
-322.902
-324.258
-324.3
-322.419
-321.372
-313.919
-311.759
-300.918
-289.222
-291.031
-302.579
-304.412
-310.256
-309.643
-310.92
-310.653
-308.452
-313.489
-313.221
-313.119
-310.451
-305.906
-301.489
-292.828
-288.383
-284.664
-279.992
-275.527
-271.645
-268.332
-265.508
-263.103
-261.056
-259.314
-257.834
-256.577
-255.51
-254.605
-253.836
-253.184
-252.632
-252.169
-251.781
-251.457
-251.186
-250.961
-250.774
-250.618
-250.489
-250.379
-250.289
-250.215
-250.155
-250.106
-250.067
-250.036
-250.012
-249.993
-249.979
-249.969
-249.961
-249.956
-249.953
-249.951
-249.95
-249.95
-249.951
-249.953
-249.955
-249.957
-249.959
-249.962
-249.964
-249.966
-249.969
-249.971
-249.973
-249.975
-249.977
-249.979
-249.981
-249.983
-249.984
-249.986
-249.987
-249.988
-249.99
-249.991
-249.992
-249.993
-249.993
-249.994
-249.995
-249.996
-249.996
-249.997
-249.998
-249.998
-249.999
-249.999
)
;

boundaryField
{
    inlet
    {
        type            calculated;
        value           uniform -250;
    }
    outlet
    {
        type            calculated;
        value           uniform 250.025;
    }
    repeat_boundary
    {
        type            calculated;
        value           uniform 0;
    }
    procBoundary0to1
    {
        type            processor;
        value           nonuniform List<scalar> 
180
(
-8.31779e-06
-8.62435e-07
2.87841e-06
5.72085e-06
8.97316e-06
1.3084e-05
1.8343e-05
2.49827e-05
3.32374e-05
4.33486e-05
5.55679e-05
7.01611e-05
8.74131e-05
0.00010763
0.00013739
0.00017425
0.000217381
0.000267538
0.00032559
0.000392541
0.000469565
0.000558027
0.000659521
0.000775898
0.000909308
0.00106323
0.0012538
0.00147262
0.00172416
0.00201344
0.00234619
0.00272895
0.00316925
0.00367573
0.0042583
0.00492834
0.00570269
0.00660382
0.00763743
0.00882451
0.0101949
0.0117711
0.0135836
0.0156712
0.0180716
0.020834
0.0240123
0.0276679
0.0318723
0.0367076
0.0422711
0.0486692
0.0560272
0.0644909
0.0742247
0.0854198
0.0982971
0.113109
0.130148
0.149751
0.172304
0.198258
0.228127
0.262512
0.302103
0.347704
0.400247
0.460811
0.530654
0.611239
0.704271
0.811739
0.935972
1.07969
1.24607
1.43854
1.65962
1.90221
2.10795
1.9792
0.268805
0.0409328
-6.167
-1.31881
-4.53951
-1.86013
-5.49349
-9.0628
-0.0791164
9.11526
1.79992
11.9181
1.08503
5.51543
1.00746
1.17236
6.21754
1.53074
0.039387
-2.36475
-2.50083
-2.16666
-3.18867
-0.785283
-1.42235
-2.24431
-2.23383
-1.93078
-1.64808
-1.4095
-1.20603
-1.03137
-0.881362
-0.75262
-0.642191
-0.547523
-0.466416
-0.39698
-0.33759
-0.286852
-0.243549
-0.206604
-0.175097
-0.148239
-0.125353
-0.105862
-0.0892721
-0.0751629
-0.0631809
-0.0530368
-0.0444614
-0.0372223
-0.0311211
-0.0259888
-0.0216814
-0.0180741
-0.0150554
-0.0125332
-0.0104305
-0.0086831
-0.00723669
-0.00604551
-0.00507327
-0.00429168
-0.00345957
-0.00275807
-0.0021812
-0.00170839
-0.00132229
-0.00100831
-0.000754159
-0.000549558
-0.000385862
-0.000255857
-0.000153517
-7.38291e-05
-1.26162e-05
3.35907e-05
6.76667e-05
9.19899e-05
0.000108523
0.000118883
0.000124396
0.000126153
0.000125041
0.000121791
0.000117002
0.000113226
0.000112802
0.00011014
0.000106155
0.000101502
9.66576e-05
9.19661e-05
8.76711e-05
8.3922e-05
8.07211e-05
7.82072e-05
7.57145e-05
7.24249e-05
)
;
    }
    procBoundary0to2
    {
        type            processor;
        value           nonuniform List<scalar> 
180
(
0.000161118
0.00030263
0.000487504
0.000686513
0.000895029
0.00111411
0.00134612
0.00159372
0.00185978
0.00214743
0.00246006
0.00280138
0.00317535
0.00358632
0.00403905
0.00453886
0.00509163
0.00570385
0.00638274
0.00713631
0.00797342
0.00890396
0.00993893
0.0110905
0.0123724
0.0137998
0.0153896
0.0171608
0.0191346
0.0213347
0.0237877
0.0265232
0.0295745
0.0329788
0.0367776
0.0410176
0.0457512
0.0510369
0.0569406
0.0635361
0.0709061
0.0791422
0.0883473
0.0986371
0.110141
0.123005
0.137391
0.153484
0.17149
0.19164
0.214197
0.239454
0.267742
0.299435
0.334953
0.374771
0.419426
0.469521
0.525742
0.58886
0.659753
0.739459
0.829157
0.930169
1.04401
1.17242
1.31737
1.48116
1.66643
1.87622
2.11405
2.38404
2.69096
3.04036
3.43856
3.8921
4.40268
4.93275
5.28772
4.90034
1.08755
0.000988667
4.28534
0.272516
-2.91396
-0.300196
-5.34672
-2.6334
1.88748
2.43275
0.0330036
-6.07394
-1.69784
-4.23804
-1.27461
-3.37338
-1.18076
-1.79896
-0.141207
-0.303497
-2.04366
-2.25096
-5.47234
-3.65922
-2.29755
-2.42697
-2.23114
-1.9515
-1.66551
-1.41412
-1.19908
-1.0158
-0.859809
-0.727236
-0.614749
-0.519501
-0.439083
-0.371491
-0.315111
-0.265107
-0.219365
-0.18098
-0.148839
-0.122004
-0.0996964
-0.0812837
-0.0662926
-0.0544728
-0.0460714
-0.0369642
-0.0291948
-0.0227834
-0.0175182
-0.0132191
-0.00948959
-0.00590913
-0.00326513
-0.00128172
0.000207759
0.00131674
0.00212793
0.00275958
0.00321608
0.00350579
0.00366371
0.00371956
0.00369899
0.00362032
0.00349911
0.00334814
0.00317764
0.00299307
0.0028061
0.0026181
0.00243515
0.00225641
0.00208407
0.0019199
0.00176438
0.0016181
0.00148134
0.0013542
0.00123659
0.0011283
0.00102903
0.000938451
0.000856174
0.000781806
0.000714968
0.000655301
0.000602443
0.000556058
0.000515814
0.00048139
0.000452508
0.000428903
0.000410266
0.000396473
0.000386349
0.000383372
)
;
    }
}


// ************************************************************************* //
