/*--------------------------------*- C++ -*----------------------------------*\
| =========                 |                                                 |
| \\      /  F ield         | OpenFOAM: The Open Source CFD Toolbox           |
|  \\    /   O peration     | Version:  5.x                                   |
|   \\  /    A nd           | Web:      www.OpenFOAM.org                      |
|    \\/     M anipulation  |                                                 |
\*---------------------------------------------------------------------------*/
FoamFile
{
    version     2.0;
    format      ascii;
    class       volVectorField;
    location    "2000";
    object      U;
}
// * * * * * * * * * * * * * * * * * * * * * * * * * * * * * * * * * * * * * //

dimensions      [0 1 -1 0 0 0 0];

internalField   nonuniform List<vector> 
180
(
(-3.69129e-10 5.78242e-09 -0.0010001)
(-1.37638e-10 1.0634e-08 -0.0010001)
(-5.8733e-11 1.70577e-08 -0.0010001)
(-2.46368e-11 2.40065e-08 -0.00100011)
(1.42308e-11 3.12957e-08 -0.00100011)
(7.25344e-11 3.89594e-08 -0.00100011)
(1.59275e-10 4.70802e-08 -0.00100012)
(2.81604e-10 5.57525e-08 -0.00100013)
(4.47397e-10 6.50785e-08 -0.00100013)
(6.65494e-10 7.51686e-08 -0.00100014)
(9.45902e-10 8.61429e-08 -0.00100015)
(1.29999e-09 9.81325e-08 -0.00100016)
(1.74072e-09 1.11279e-07 -0.00100017)
(2.28282e-09 1.25738e-07 -0.00100019)
(2.94305e-09 1.4168e-07 -0.00100021)
(3.74295e-09 1.59294e-07 -0.00100022)
(4.70805e-09 1.78791e-07 -0.00100024)
(5.86771e-09 2.00403e-07 -0.00100027)
(7.25567e-09 2.24388e-07 -0.00100029)
(8.91068e-09 2.51032e-07 -0.00100032)
(1.08772e-08 2.80654e-07 -0.00100035)
(1.32064e-08 3.13607e-07 -0.00100039)
(1.59569e-08 3.50285e-07 -0.00100043)
(1.91961e-08 3.9113e-07 -0.00100048)
(2.30014e-08 4.36629e-07 -0.00100053)
(2.74617e-08 4.8733e-07 -0.00100058)
(3.26803e-08 5.43844e-07 -0.00100065)
(3.8781e-08 6.06854e-07 -0.00100072)
(4.59071e-08 6.77126e-07 -0.0010008)
(5.42237e-08 7.55515e-07 -0.00100089)
(6.39215e-08 8.42976e-07 -0.00100099)
(7.52205e-08 9.40582e-07 -0.0010011)
(8.8375e-08 1.04953e-06 -0.00100122)
(1.03679e-07 1.17116e-06 -0.00100136)
(1.21471e-07 1.30698e-06 -0.00100152)
(1.42144e-07 1.45867e-06 -0.00100169)
(1.66151e-07 1.62811e-06 -0.00100189)
(1.94017e-07 1.81744e-06 -0.00100211)
(2.26352e-07 2.02902e-06 -0.00100235)
(2.63862e-07 2.26552e-06 -0.00100262)
(3.07362e-07 2.52992e-06 -0.00100293)
(3.57794e-07 2.82558e-06 -0.00100327)
(4.16248e-07 3.15622e-06 -0.00100366)
(4.83983e-07 3.52606e-06 -0.00100409)
(5.62452e-07 3.93981e-06 -0.00100458)
(6.53335e-07 4.4028e-06 -0.00100512)
(7.58572e-07 4.92098e-06 -0.00100573)
(8.80399e-07 5.50106e-06 -0.00100641)
(1.0214e-06 6.15059e-06 -0.00100718)
(1.18456e-06 6.87808e-06 -0.00100804)
(1.37332e-06 7.6931e-06 -0.00100901)
(1.59165e-06 8.60643e-06 -0.0010101)
(1.84413e-06 9.63024e-06 -0.00101132)
(2.13606e-06 1.07782e-05 -0.00101269)
(2.47354e-06 1.20659e-05 -0.00101423)
(2.86363e-06 1.35108e-05 -0.00101597)
(3.31446e-06 1.51325e-05 -0.00101792)
(3.83542e-06 1.69535e-05 -0.00102011)
(4.43735e-06 1.89991e-05 -0.00102258)
(5.13275e-06 2.12978e-05 -0.00102536)
(5.93608e-06 2.3882e-05 -0.0010285)
(6.864e-06 2.67886e-05 -0.00103203)
(7.93577e-06 3.00592e-05 -0.00103601)
(9.17366e-06 3.37412e-05 -0.0010405)
(1.06034e-05 3.78884e-05 -0.00104556)
(1.22549e-05 4.25619e-05 -0.00105128)
(1.41625e-05 4.78315e-05 -0.00105773)
(1.63662e-05 5.37763e-05 -0.00106503)
(1.89123e-05 6.04868e-05 -0.00107329)
(2.18545e-05 6.80663e-05 -0.00108263)
(2.52551e-05 7.66327e-05 -0.00109321)
(2.91865e-05 8.63211e-05 -0.00110521)
(3.37328e-05 9.72858e-05 -0.00111879)
(3.8992e-05 0.000109703 -0.00113417)
(4.50779e-05 0.00012377 -0.00115183)
(5.21223e-05 0.000139689 -0.00117336)
(6.02623e-05 0.000157479 -0.00120004)
(6.91298e-05 0.000175205 -0.00121553)
(7.6903e-05 0.000185091 -0.00117275)
(7.26124e-05 0.000159643 -0.000987803)
(1.97049e-05 3.55379e-05 -0.00382497)
(-4.84289e-06 -3.33643e-05 3.45566e-05)
(-0.000325209 0.000177884 -0.00444115)
(-5.79336e-05 -1.38142e-05 -0.000619957)
(-0.000450959 -0.000308326 -0.00488787)
(-2.8201e-05 -8.67167e-05 -0.000162776)
(-0.000652003 -0.000516364 -0.00535199)
(-0.000317632 -0.000187405 -0.00424472)
(-3.75754e-05 6.09075e-05 -0.00148003)
(0.000210106 0.000354488 -0.00494291)
(0.000214161 5.77327e-05 -0.00167981)
(0.000758651 -0.000444605 -0.00427634)
(-1.67641e-05 5.07054e-05 -8.07765e-05)
(0.000435287 -0.000228307 -0.00501878)
(8.67913e-05 -0.000222718 -0.00304215)
(3.31586e-05 -0.000104823 -0.00243597)
(0.00022904 -9.53208e-05 -0.00380811)
(0.000189306 -8.20349e-05 -0.0026883)
(-3.46986e-06 -1.29746e-06 -0.00252601)
(-0.000241714 -7.04869e-05 -0.00393224)
(-0.000132271 -7.61755e-05 -0.0018856)
(-0.000105466 -0.000116583 -0.00347158)
(-9.60585e-05 -0.00019165 -0.00279835)
(5.43348e-05 -0.000100244 -0.0011962)
(-4.03631e-05 -5.24201e-05 -0.00180921)
(-8.67485e-05 -6.75455e-05 -0.00109489)
(-8.60696e-05 -7.24784e-05 -0.00108104)
(-7.4517e-05 -6.61793e-05 -0.00108802)
(-6.369e-05 -5.69848e-05 -0.00108015)
(-5.45089e-05 -4.84021e-05 -0.00106782)
(-4.66752e-05 -4.09783e-05 -0.00105701)
(-3.99543e-05 -3.46339e-05 -0.00104807)
(-3.41838e-05 -2.92249e-05 -0.00104054)
(-2.92311e-05 -2.46189e-05 -0.00103413)
(-2.49822e-05 -2.07007e-05 -0.00102868)
(-2.13385e-05 -1.73709e-05 -0.00102405)
(-1.82151e-05 -1.45445e-05 -0.00102013)
(-1.55392e-05 -1.21486e-05 -0.00101679)
(-1.3248e-05 -1.01212e-05 -0.00101396)
(-1.12879e-05 -8.40927e-06 -0.00101156)
(-9.61215e-06 -6.96669e-06 -0.00100954)
(-8.17997e-06 -5.75258e-06 -0.00100785)
(-6.95633e-06 -4.73205e-06 -0.00100643)
(-5.91119e-06 -3.87545e-06 -0.00100525)
(-5.01882e-06 -3.15755e-06 -0.00100427)
(-4.25715e-06 -2.5569e-06 -0.00100345)
(-3.60731e-06 -2.05536e-06 -0.00100276)
(-3.05318e-06 -1.63762e-06 -0.0010022)
(-2.58107e-06 -1.29095e-06 -0.00100172)
(-2.17953e-06 -1.00505e-06 -0.00100132)
(-1.83829e-06 -7.70348e-07 -0.001001)
(-1.54855e-06 -5.7861e-07 -0.00100073)
(-1.30275e-06 -4.2287e-07 -0.00100051)
(-1.09444e-06 -2.97247e-07 -0.00100034)
(-9.18117e-07 -1.96775e-07 -0.0010002)
(-7.69018e-07 -1.17176e-07 -0.00100009)
(-6.42984e-07 -5.46278e-08 -0.00100001)
(-5.36512e-07 -6.02019e-09 -0.000999941)
(-4.46648e-07 3.12006e-08 -0.000999893)
(-3.7089e-07 5.91414e-08 -0.000999858)
(-3.07116e-07 7.95421e-08 -0.000999834)
(-2.53532e-07 9.38412e-08 -0.000999817)
(-2.08606e-07 1.03245e-07 -0.000999806)
(-1.71041e-07 1.08754e-07 -0.000999801)
(-1.39747e-07 1.11181e-07 -0.0009998)
(-1.1373e-07 1.11228e-07 -0.000999802)
(-9.21412e-08 1.09466e-07 -0.000999807)
(-7.42653e-08 1.0636e-07 -0.000999814)
(-5.94987e-08 1.02283e-07 -0.000999822)
(-4.73332e-08 9.75354e-08 -0.000999831)
(-3.73402e-08 9.23543e-08 -0.000999841)
(-2.91593e-08 8.69273e-08 -0.000999851)
(-2.24877e-08 8.14007e-08 -0.00099986)
(-1.70702e-08 7.58876e-08 -0.00099987)
(-1.26926e-08 7.0475e-08 -0.00099988)
(-9.17466e-09 6.5228e-08 -0.000999889)
(-6.36548e-09 6.01941e-08 -0.000999897)
(-4.13883e-09 5.54062e-08 -0.000999906)
(-2.38919e-09 5.08858e-08 -0.000999914)
(-1.0286e-09 4.66455e-08 -0.000999921)
(1.60508e-11 4.26906e-08 -0.000999928)
(8.05477e-10 3.9021e-08 -0.000999934)
(1.38991e-09 3.56324e-08 -0.00099994)
(1.81081e-09 3.25177e-08 -0.000999946)
(2.10225e-09 2.96673e-08 -0.000999951)
(2.29213e-09 2.70704e-08 -0.000999956)
(2.40315e-09 2.47152e-08 -0.000999961)
(2.45364e-09 2.25894e-08 -0.000999965)
(2.45929e-09 2.06813e-08 -0.000999969)
(2.43427e-09 1.89799e-08 -0.000999972)
(2.3897e-09 1.74745e-08 -0.000999976)
(2.33408e-09 1.61549e-08 -0.000999979)
(2.274e-09 1.50115e-08 -0.000999982)
(2.21448e-09 1.40355e-08 -0.000999984)
(2.15919e-09 1.32187e-08 -0.000999987)
(2.11003e-09 1.25536e-08 -0.00099999)
(2.06514e-09 1.20306e-08 -0.000999992)
(2.02962e-09 1.16478e-08 -0.000999994)
(1.98051e-09 1.13684e-08 -0.000999997)
(1.84659e-09 1.10856e-08 -0.000999999)
)
;

boundaryField
{
    inlet
    {
        type            zeroGradient;
    }
    outlet
    {
        type            zeroGradient;
    }
    repeat_boundary
    {
        type            slip;
    }
    procBoundary0to1
    {
        type            processor;
        value           nonuniform List<vector> 
180
(
(-3.69129e-10 5.51066e-09 -0.0010001)
(-1.37638e-10 1.01307e-08 -0.0010001)
(-5.87333e-11 1.62207e-08 -0.0010001)
(-2.46372e-11 2.27974e-08 -0.00100011)
(1.42304e-11 2.96839e-08 -0.00100011)
(7.2534e-11 3.69106e-08 -0.00100011)
(1.59275e-10 4.45489e-08 -0.00100012)
(2.81603e-10 5.26818e-08 -0.00100012)
(4.47396e-10 6.13984e-08 -0.00100013)
(6.65493e-10 7.07932e-08 -0.00100014)
(9.45902e-10 8.0968e-08 -0.00100015)
(1.29999e-09 9.20316e-08 -0.00100015)
(1.74072e-09 1.04104e-07 -0.00100017)
(2.28281e-09 1.17316e-07 -0.00100018)
(2.94305e-09 1.31809e-07 -0.00100019)
(3.74295e-09 1.47739e-07 -0.00100021)
(4.70805e-09 1.65275e-07 -0.00100022)
(5.86771e-09 1.84602e-07 -0.00100024)
(7.25566e-09 2.05924e-07 -0.00100026)
(8.91067e-09 2.29466e-07 -0.00100029)
(1.08772e-08 2.55474e-07 -0.00100031)
(1.32064e-08 2.84219e-07 -0.00100034)
(1.59569e-08 3.16001e-07 -0.00100037)
(1.91961e-08 3.51149e-07 -0.00100041)
(2.30014e-08 3.90026e-07 -0.00100045)
(2.74617e-08 4.3303e-07 -0.00100049)
(3.26803e-08 4.80601e-07 -0.00100054)
(3.8781e-08 5.33219e-07 -0.00100059)
(4.59071e-08 5.91413e-07 -0.00100065)
(5.42237e-08 6.55763e-07 -0.00100071)
(6.39214e-08 7.26905e-07 -0.00100078)
(7.52204e-08 8.05539e-07 -0.00100086)
(8.83749e-08 8.92431e-07 -0.00100094)
(1.03679e-07 9.88421e-07 -0.00100103)
(1.21471e-07 1.09443e-06 -0.00100113)
(1.42144e-07 1.21146e-06 -0.00100125)
(1.66151e-07 1.34062e-06 -0.00100137)
(1.94016e-07 1.48309e-06 -0.0010015)
(2.26352e-07 1.6402e-06 -0.00100165)
(2.63861e-07 1.81335e-06 -0.00100181)
(3.07361e-07 2.00411e-06 -0.00100199)
(3.57794e-07 2.21418e-06 -0.00100219)
(4.16247e-07 2.44541e-06 -0.0010024)
(4.83982e-07 2.69981e-06 -0.00100263)
(5.62451e-07 2.97957e-06 -0.00100288)
(6.53334e-07 3.28704e-06 -0.00100316)
(7.5857e-07 3.62476e-06 -0.00100346)
(8.80397e-07 3.99546e-06 -0.00100378)
(1.0214e-06 4.40207e-06 -0.00100413)
(1.18456e-06 4.84775e-06 -0.00100452)
(1.37331e-06 5.33582e-06 -0.00100493)
(1.59164e-06 5.86986e-06 -0.00100538)
(1.84412e-06 6.45362e-06 -0.00100586)
(2.13604e-06 7.09104e-06 -0.00100638)
(2.47352e-06 7.78626e-06 -0.00100693)
(2.8636e-06 8.54354e-06 -0.00100753)
(3.31441e-06 9.3673e-06 -0.00100817)
(3.83534e-06 1.0262e-05 -0.00100884)
(4.43725e-06 1.12321e-05 -0.00100956)
(5.13261e-06 1.2282e-05 -0.00101032)
(5.93589e-06 1.34161e-05 -0.00101111)
(6.86374e-06 1.46381e-05 -0.00101194)
(7.93541e-06 1.59517e-05 -0.00101281)
(9.17316e-06 1.73597e-05 -0.00101369)
(1.06027e-05 1.8864e-05 -0.0010146)
(1.22539e-05 2.04656e-05 -0.00101551)
(1.41611e-05 2.21635e-05 -0.00101641)
(1.63643e-05 2.39553e-05 -0.00101728)
(1.89097e-05 2.58358e-05 -0.00101811)
(2.1851e-05 2.77965e-05 -0.00101885)
(2.52503e-05 2.98253e-05 -0.00101948)
(2.91799e-05 3.19048e-05 -0.00101995)
(3.37238e-05 3.40119e-05 -0.00102017)
(3.89797e-05 3.61156e-05 -0.00102006)
(4.50595e-05 3.81718e-05 -0.00101976)
(5.20774e-05 4.01095e-05 -0.00102033)
(6.00819e-05 4.17998e-05 -0.00102198)
(6.87184e-05 4.29244e-05 -0.00100968)
(7.5194e-05 4.20858e-05 -0.000947828)
(6.82027e-05 3.56416e-05 -0.000786481)
(1.72256e-05 3.15065e-06 -0.00327738)
(2.60539e-05 -1.12299e-05 5.34962e-05)
(-0.000193269 0.000327141 -0.00411944)
(-7.89805e-05 0.000108273 -0.00242141)
(-6.28708e-05 -4.52042e-05 -0.0015002)
(-0.000253199 2.72298e-05 -0.00480625)
(-6.4213e-05 -2.78303e-05 -0.000719493)
(-0.000816615 -0.000477103 -0.00530144)
(2.28329e-05 -2.59437e-05 6.95043e-05)
(0.000801243 -0.000935844 -0.00482129)
(1.19046e-05 -6.35723e-05 -4.61991e-05)
(0.000466699 -0.000438252 -0.0041971)
(0.000151271 -0.000239815 -0.00162131)
(0.00026182 -0.000534599 -0.00427066)
(-1.62399e-06 -4.94587e-05 -0.00099301)
(6.60937e-05 -0.000265114 -0.00278137)
(0.00032471 -0.000524659 -0.00237866)
(-1.52124e-06 -6.61511e-06 -0.000111094)
(4.78789e-06 -0.000101247 -0.00421714)
(-3.7012e-05 4.31461e-05 -0.000934959)
(-0.000196903 0.000189607 -0.00250802)
(-0.00011196 0.000162144 -0.00131751)
(-0.000166286 2.44522e-05 -0.00124194)
(-0.000114472 5.65507e-05 -0.00103228)
(-6.95899e-05 9.92857e-05 -0.000929485)
(-8.95156e-05 0.000127232 -0.000865267)
(-8.58179e-05 0.000124205 -0.000842554)
(-7.45029e-05 0.000110885 -0.000858927)
(-6.37494e-05 9.70303e-05 -0.000880015)
(-5.4562e-05 8.45885e-05 -0.000896678)
(-4.67148e-05 7.37039e-05 -0.000910344)
(-3.99832e-05 6.42237e-05 -0.000922166)
(-3.42049e-05 5.59719e-05 -0.000932463)
(-2.92466e-05 4.87894e-05 -0.000941402)
(-2.49935e-05 4.25368e-05 -0.000949153)
(-2.13467e-05 3.7093e-05 -0.000955874)
(-1.82211e-05 3.23526e-05 -0.000961703)
(-1.55436e-05 2.82241e-05 -0.000966758)
(-1.32512e-05 2.46278e-05 -0.000971142)
(-1.12902e-05 2.14945e-05 -0.000974945)
(-9.61385e-06 1.87642e-05 -0.000978243)
(-8.18121e-06 1.63846e-05 -0.000981105)
(-6.95723e-06 1.43101e-05 -0.000983587)
(-5.91185e-06 1.25014e-05 -0.000985741)
(-5.0193e-06 1.0924e-05 -0.00098761)
(-4.2575e-06 9.54805e-06 -0.000989233)
(-3.60756e-06 8.34757e-06 -0.000990641)
(-3.05336e-06 7.29992e-06 -0.000991863)
(-2.5812e-06 6.38541e-06 -0.000992924)
(-2.17962e-06 5.58689e-06 -0.000993845)
(-1.83836e-06 4.88947e-06 -0.000994644)
(-1.5486e-06 4.28018e-06 -0.000995339)
(-1.30279e-06 3.74772e-06 -0.000995943)
(-1.09447e-06 3.28227e-06 -0.000996467)
(-9.18137e-07 2.87529e-06 -0.000996923)
(-7.69033e-07 2.51934e-06 -0.000997319)
(-6.42994e-07 2.20793e-06 -0.000997664)
(-5.3652e-07 1.93542e-06 -0.000997964)
(-4.46654e-07 1.6969e-06 -0.000998226)
(-3.70894e-07 1.48808e-06 -0.000998453)
(-3.07119e-07 1.30524e-06 -0.000998652)
(-2.53534e-07 1.1451e-06 -0.000998825)
(-2.08607e-07 1.00485e-06 -0.000998976)
(-1.71042e-07 8.81994e-07 -0.000999108)
(-1.39748e-07 7.74389e-07 -0.000999223)
(-1.13731e-07 6.80117e-07 -0.000999323)
(-9.21417e-08 5.97501e-07 -0.000999409)
(-7.42656e-08 5.25082e-07 -0.000999485)
(-5.94989e-08 4.61582e-07 -0.000999551)
(-4.73334e-08 4.05889e-07 -0.000999608)
(-3.73403e-08 3.57031e-07 -0.000999658)
(-2.91594e-08 3.14158e-07 -0.000999701)
(-2.24877e-08 2.76528e-07 -0.000999739)
(-1.70702e-08 2.43493e-07 -0.000999771)
(-1.26926e-08 2.14485e-07 -0.0009998)
(-9.17468e-09 1.89008e-07 -0.000999825)
(-6.3655e-09 1.6663e-07 -0.000999847)
(-4.13884e-09 1.4697e-07 -0.000999866)
(-2.3892e-09 1.29697e-07 -0.000999882)
(-1.02861e-09 1.1452e-07 -0.000999897)
(1.6046e-11 1.01187e-07 -0.000999909)
(8.05473e-10 8.94735e-08 -0.000999921)
(1.38991e-09 7.91865e-08 -0.00099993)
(1.81081e-09 7.01559e-08 -0.000999939)
(2.10224e-09 6.22333e-08 -0.000999946)
(2.29213e-09 5.52891e-08 -0.000999953)
(2.40315e-09 4.92104e-08 -0.000999959)
(2.45364e-09 4.38988e-08 -0.000999964)
(2.45929e-09 3.92682e-08 -0.000999969)
(2.43427e-09 3.52433e-08 -0.000999973)
(2.3897e-09 3.17591e-08 -0.000999977)
(2.33408e-09 2.87596e-08 -0.00099998)
(2.274e-09 2.61972e-08 -0.000999983)
(2.21448e-09 2.40312e-08 -0.000999986)
(2.15918e-09 2.22278e-08 -0.000999988)
(2.11002e-09 2.07597e-08 -0.00099999)
(2.06513e-09 1.9608e-08 -0.000999993)
(2.02961e-09 1.87504e-08 -0.000999995)
(1.98047e-09 1.819e-08 -0.000999997)
(1.84656e-09 1.79505e-08 -0.000999999)
)
;
    }
    procBoundary0to2
    {
        type            processor;
        value           nonuniform List<vector> 
180
(
(-6.40894e-10 5.78242e-09 -0.000999968)
(-6.40938e-10 1.0634e-08 -0.000999967)
(-8.95712e-10 1.70577e-08 -0.000999965)
(-1.23374e-09 2.40064e-08 -0.000999963)
(-1.59761e-09 3.12957e-08 -0.00099996)
(-1.97624e-09 3.89594e-08 -0.000999956)
(-2.37203e-09 4.70802e-08 -0.000999951)
(-2.78905e-09 5.57525e-08 -0.000999945)
(-3.23273e-09 6.50785e-08 -0.000999938)
(-3.70984e-09 7.51685e-08 -0.00099993)
(-4.229e-09 8.61428e-08 -0.00099992)
(-4.80092e-09 9.81324e-08 -0.000999909)
(-5.43442e-09 1.11279e-07 -0.000999897)
(-6.13951e-09 1.25738e-07 -0.000999883)
(-6.92773e-09 1.4168e-07 -0.000999868)
(-7.81231e-09 1.59294e-07 -0.00099985)
(-8.80846e-09 1.78791e-07 -0.000999831)
(-9.93369e-09 2.00403e-07 -0.000999809)
(-1.12082e-08 2.24388e-07 -0.000999784)
(-1.26554e-08 2.51032e-07 -0.000999756)
(-1.43025e-08 2.80653e-07 -0.000999725)
(-1.61808e-08 3.13606e-07 -0.00099969)
(-1.83272e-08 3.50285e-07 -0.000999652)
(-2.07842e-08 3.91129e-07 -0.000999608)
(-2.36019e-08 4.36628e-07 -0.00099956)
(-2.68386e-08 4.87329e-07 -0.000999506)
(-3.05626e-08 5.43843e-07 -0.000999446)
(-3.48536e-08 6.06853e-07 -0.000999378)
(-3.98054e-08 6.77124e-07 -0.000999303)
(-4.55278e-08 7.55512e-07 -0.000999219)
(-5.21496e-08 8.42973e-07 -0.000999125)
(-5.98219e-08 9.40578e-07 -0.00099902)
(-6.87221e-08 1.04952e-06 -0.000998902)
(-7.90584e-08 1.17115e-06 -0.000998771)
(-9.10749e-08 1.30697e-06 -0.000998624)
(-1.05058e-07 1.45866e-06 -0.00099846)
(-1.21344e-07 1.6281e-06 -0.000998276)
(-1.40325e-07 1.81742e-06 -0.00099807)
(-1.62462e-07 2.02899e-06 -0.000997839)
(-1.88296e-07 2.26549e-06 -0.000997581)
(-2.18443e-07 2.52989e-06 -0.000997292)
(-2.53592e-07 2.82553e-06 -0.000996969)
(-2.94544e-07 3.15617e-06 -0.000996607)
(-3.42236e-07 3.52599e-06 -0.000996202)
(-3.97757e-07 3.93973e-06 -0.000995748)
(-4.62381e-07 4.40269e-06 -0.00099524)
(-5.37593e-07 4.92084e-06 -0.00099467)
(-6.25132e-07 5.50089e-06 -0.000994031)
(-7.27028e-07 6.15038e-06 -0.000993313)
(-8.45658e-07 6.87781e-06 -0.000992508)
(-9.83803e-07 7.69276e-06 -0.000991604)
(-1.14472e-06 8.60599e-06 -0.000990587)
(-1.33223e-06 9.62968e-06 -0.000989444)
(-1.55079e-06 1.07775e-05 -0.000988158)
(-1.80567e-06 1.2065e-05 -0.00098671)
(-2.103e-06 1.35096e-05 -0.000985079)
(-2.45e-06 1.51311e-05 -0.000983241)
(-2.85514e-06 1.69517e-05 -0.000981167)
(-3.32835e-06 1.89967e-05 -0.000978826)
(-3.88131e-06 2.12948e-05 -0.000976181)
(-4.52771e-06 2.38782e-05 -0.00097319)
(-5.28364e-06 2.67837e-05 -0.000969807)
(-6.16803e-06 3.00529e-05 -0.000965976)
(-7.20307e-06 3.37332e-05 -0.000961635)
(-8.41473e-06 3.78781e-05 -0.000956712)
(-9.83349e-06 4.25488e-05 -0.000951126)
(-1.1495e-05 4.78146e-05 -0.000944783)
(-1.34413e-05 5.37546e-05 -0.000937572)
(-1.57212e-05 6.04589e-05 -0.000929371)
(-1.83926e-05 6.80304e-05 -0.000920033)
(-2.15229e-05 7.65865e-05 -0.000909392)
(-2.51916e-05 8.62614e-05 -0.000897255)
(-2.94916e-05 9.72087e-05 -0.000883383)
(-3.45315e-05 0.000109603 -0.000867494)
(-4.04373e-05 0.000123636 -0.00084944)
(-4.73434e-05 0.000139482 -0.000829693)
(-5.52505e-05 0.000157052 -0.00080813)
(-6.32001e-05 0.000174608 -0.000773365)
(-6.6436e-05 0.000183046 -0.000696063)
(-5.18761e-05 0.000154568 -0.000563902)
(-8.08232e-06 3.93227e-05 -0.00216942)
(5.38026e-05 3.15397e-05 8.7532e-05)
(2.54097e-05 0.000130208 -0.00336953)
(7.37682e-05 4.54176e-05 -0.000103393)
(-0.00012736 -7.8696e-05 -0.0043644)
(0.000117609 1.97305e-05 -0.000112112)
(-0.000134538 -0.00024028 -0.00360521)
(-0.000309953 -0.00018535 -0.00151005)
(-0.000332464 0.000131571 -0.00231279)
(-0.000157621 -1.81671e-05 -0.000174541)
(-9.84634e-05 -3.30073e-06 -0.0044094)
(4.23938e-05 -0.000116844 -0.00164724)
(0.00011664 -0.000276528 -0.00207759)
(-0.000212644 -0.000217248 -0.00296416)
(-7.72469e-05 5.00175e-05 0.000146098)
(-7.8272e-05 -0.000262961 -0.00336543)
(-7.80181e-06 -2.49382e-05 -0.000821181)
(-1.43088e-05 -9.59879e-05 -0.00183988)
(-0.000228092 -5.58778e-08 -0.00266405)
(-4.36385e-05 4.78653e-05 -1.65497e-05)
(0.000113625 -0.000173296 -0.00298961)
(8.13626e-05 -0.000109887 -0.000972716)
(8.53136e-05 -0.000244298 -0.00121483)
(0.000165718 -0.000216124 -0.000909775)
(0.00014509 -0.000100753 -0.000802143)
(0.000136715 -8.85159e-05 -0.000848578)
(0.000120369 -7.85476e-05 -0.000849739)
(0.000104615 -6.74582e-05 -0.000868567)
(9.06617e-05 -5.72452e-05 -0.000888166)
(7.85251e-05 -4.84801e-05 -0.000904342)
(6.80099e-05 -4.10196e-05 -0.000917877)
(5.89018e-05 -3.46622e-05 -0.000929513)
(5.10115e-05 -2.92453e-05 -0.000939546)
(4.4176e-05 -2.46338e-05 -0.000948179)
(3.82543e-05 -2.07115e-05 -0.000955602)
(3.31247e-05 -1.73788e-05 -0.000961985)
(2.86814e-05 -1.45503e-05 -0.000967474)
(2.48331e-05 -1.21529e-05 -0.000972196)
(2.15006e-05 -1.01243e-05 -0.000976261)
(1.86157e-05 -8.41152e-06 -0.000979757)
(1.61186e-05 -6.96834e-06 -0.000982754)
(1.3957e-05 -5.75378e-06 -0.000985315)
(1.20857e-05 -4.73293e-06 -0.000987502)
(1.04656e-05 -3.87609e-06 -0.000989369)
(9.06266e-06 -3.15801e-06 -0.000990963)
(7.84776e-06 -2.55724e-06 -0.000992324)
(6.79559e-06 -2.05561e-06 -0.000993485)
(5.88434e-06 -1.63781e-06 -0.000994479)
(5.09526e-06 -1.29108e-06 -0.000995332)
(4.4124e-06 -1.00515e-06 -0.000996064)
(3.82152e-06 -7.70419e-07 -0.000996688)
(3.31023e-06 -5.78661e-07 -0.000997218)
(2.86783e-06 -4.22908e-07 -0.000997668)
(2.48507e-06 -2.97275e-07 -0.000998051)
(2.15395e-06 -1.96796e-07 -0.000998375)
(1.86749e-06 -1.17191e-07 -0.000998648)
(1.61957e-06 -5.46387e-08 -0.000998876)
(1.40492e-06 -6.02815e-09 -0.000999068)
(1.21905e-06 3.11947e-08 -0.000999229)
(1.05805e-06 5.91371e-08 -0.000999364)
(9.18578e-07 7.95389e-08 -0.000999477)
(7.97731e-07 9.38388e-08 -0.000999572)
(6.92996e-07 1.03243e-07 -0.00099965)
(6.02199e-07 1.08752e-07 -0.000999716)
(5.2346e-07 1.1118e-07 -0.00099977)
(4.55159e-07 1.11227e-07 -0.000999815)
(3.95894e-07 1.09466e-07 -0.000999852)
(3.44456e-07 1.06359e-07 -0.000999883)
(2.998e-07 1.02283e-07 -0.000999908)
(2.61021e-07 9.75351e-08 -0.000999928)
(2.27337e-07 9.23541e-08 -0.000999945)
(1.98072e-07 8.69272e-08 -0.000999958)
(1.7264e-07 8.14006e-08 -0.000999969)
(1.50535e-07 7.58876e-08 -0.000999978)
(1.31317e-07 7.04749e-08 -0.000999985)
(1.14605e-07 6.52279e-08 -0.000999991)
(1.0007e-07 6.0194e-08 -0.000999995)
(8.74247e-08 5.54062e-08 -0.000999998)
(7.64218e-08 5.08858e-08 -0.001)
(6.68464e-08 4.66455e-08 -0.001)
(5.85122e-08 4.26906e-08 -0.001)
(5.1258e-08 3.9021e-08 -0.001)
(4.4944e-08 3.56324e-08 -0.00100001)
(3.9449e-08 3.25177e-08 -0.00100001)
(3.46682e-08 2.96673e-08 -0.00100001)
(3.05109e-08 2.70704e-08 -0.00100001)
(2.68984e-08 2.47152e-08 -0.00100001)
(2.3763e-08 2.25894e-08 -0.001)
(2.10462e-08 2.06813e-08 -0.001)
(1.86977e-08 1.89799e-08 -0.001)
(1.66742e-08 1.74745e-08 -0.001)
(1.49388e-08 1.61549e-08 -0.001)
(1.34597e-08 1.50115e-08 -0.001)
(1.22103e-08 1.40355e-08 -0.001)
(1.11683e-08 1.32187e-08 -0.001)
(1.03161e-08 1.25536e-08 -0.001)
(9.64254e-09 1.20306e-08 -0.001)
(9.13215e-09 1.16478e-08 -0.001)
(8.80211e-09 1.13684e-08 -0.001)
(8.71146e-09 1.10856e-08 -0.000999999)
)
;
    }
}


// ************************************************************************* //
