FoamFile
{version 2.0; format ascii;class Cloud<passiveParticle>; location 0;object  positions;}
351
(
( 244.869 291.068 49.8437 ) 0 
( 489.653 229.083 49.858 ) 0 
( 373.427 72.5673 49.8938 ) 0 
( 249.056 390.857 49.8276 ) 0 
( 157.715 350.233 49.9113 ) 0 
( 432.557 311.149 49.9747 ) 0 
( 75.7729 1.29805 49.867 ) 0 
( 170.12 110.629 49.825 ) 0 
( 359.358 482.682 49.946 ) 0 
( 474.246 84.149 49.8745 ) 0 
( 198.507 14.8103 49.8164 ) 0 
( 285.271 185.877 49.9807 ) 0 
( 486.407 391.695 140.612 ) 0 
( 75.016 413.364 49.9803 ) 0 
( 168.201 449.655 49.8184 ) 0 
( 429.136 411.072 49.8999 ) 0 
( 80.6518 210.744 49.9149 ) 0 
( 342.181 268.345 49.848 ) 0 
( 26.3183 374.47 134.818 ) 0 
( 413.532 164.192 49.9085 ) 0 
( 438.633 477.77 123.659 ) 0 
( 70.6134 101.313 49.8826 ) 0 
( 187.776 208.999 49.9132 ) 0 
( 64.5694 313.835 49.8959 ) 0 
( 132.114 166.536 123.334 ) 0 
( 229.518 144.007 122.917 ) 0 
( 259.658 490.218 49.8067 ) 0 
( 24.8512 160.683 116 ) 0 
( 23.7437 52.5869 123.372 ) 0 
( 323.096 100.905 131.457 ) 0 
( 405.739 235.467 119.46 ) 0 
( 267.291 87.4042 49.8055 ) 0 
( 97.3379 219.653 200.428 ) 0 
( 226.8 243.072 135.435 ) 0 
( 114.604 463.099 132.939 ) 0 
( 135.262 271.615 107.367 ) 0 
( 225.643 443.571 131.335 ) 0 
( 125.319 364.297 143.412 ) 0 
( 341.772 376.874 84.2955 ) 0 
( 422.419 90.466 135.088 ) 0 
( 488.159 165.225 126.681 ) 0 
( 471.668 236.757 194.444 ) 0 
( 239.051 45.3375 135.933 ) 0 
( 26.1521 32.9714 225.358 ) 0 
( 312.077 299.308 139.956 ) 0 
( 342.92 459.821 145.963 ) 0 
( 175.494 97.3663 192.832 ) 0 
( 316.213 199.589 145.748 ) 0 
( 132.791 47.4981 117.605 ) 0 
( 39.0539 265.745 133.628 ) 0 
( 106.965 479.481 231.022 ) 0 
( 362.161 79.6038 220.806 ) 0 
( 436.22 14.9855 202.701 ) 0 
( 222.343 342.84 133.234 ) 0 
( 370.088 5.63575 128.088 ) 0 
( 398.818 168.336 193.084 ) 0 
( 269.677 124.983 212.44 ) 0 
( 333.444 181.315 267.531 ) 0 
( 443.349 218.913 288.511 ) 0 
( 289.475 10.9928 220.899 ) 0 
( 66.0108 342.652 220.859 ) 0 
( 76.6997 110.459 185.247 ) 0 
( 373.454 263.409 210.625 ) 0 
( 293.885 384.328 189.251 ) 0 
( 437.673 120.611 271.763 ) 0 
( 178.618 411.79 213.57 ) 0 
( 10.4717 259.955 229.078 ) 0 
( 406.453 331.898 145.742 ) 0 
( 439.229 435.855 216.693 ) 0 
( 275.258 249.034 222.568 ) 0 
( 16.3577 451.127 198.171 ) 0 
( 352.362 461.207 259.03 ) 0 
( 214.634 70.7389 280.76 ) 0 
( 322.158 299.587 294.861 ) 0 
( 29.8105 165.263 254.408 ) 0 
( 472.633 333.416 220.593 ) 0 
( 192.661 193.254 214.888 ) 0 
( 192.277 254.834 293.587 ) 0 
( 50.8892 417.355 285.501 ) 0 
( 165.925 292.668 200.111 ) 0 
( 237.192 335.577 255.489 ) 0 
( 261.605 474.016 219.376 ) 0 
( 311.213 71.2082 306.315 ) 0 
( 421.405 412.077 312.015 ) 0 
( 136.178 453.644 322.949 ) 0 
( 50.6492 90.9621 317.903 ) 0 
( 369.673 234.608 354.126 ) 0 
( 235.61 451.657 313.161 ) 0 
( 432.96 46.1586 338.197 ) 0 
( 375.744 134.57 348.894 ) 0 
( 93.3145 271.578 285.661 ) 0 
( 79.6579 7.78275 365.098 ) 0 
( 239.714 165.846 298.588 ) 0 
( 377.786 359.849 237.68 ) 0 
( 219.442 358.053 351.191 ) 0 
( 316.975 394.795 324.791 ) 0 
( 140.564 359.504 289.763 ) 0 
( 126.198 146.841 273.257 ) 0 
( 119.071 48.1623 258.975 ) 0 
( 281.529 129.664 381.761 ) 0 
( 143.173 296.282 370.152 ) 0 
( 43.9624 284.244 371.974 ) 0 
( 144.929 86.3814 350.626 ) 0 
( 492.351 263.594 363.22 ) 0 
( 351.062 49.4961 395.313 ) 0 
( 419.218 312.192 315.153 ) 0 
( 269.953 241.147 356.91 ) 0 
( 435.889 364.856 398.816 ) 0 
( 81.6716 376.835 371.349 ) 0 
( 346.266 476.823 373.811 ) 0 
( 235.372 41.0679 383.356 ) 0 
( 250.977 306.053 430.505 ) 0 
( 69.624 192.461 341.875 ) 0 
( 63.3905 122.652 413.043 ) 0 
( 92.6889 323.015 454.71 ) 0 
( 164.324 406.064 419.356 ) 0 
( 320.396 204.314 435.571 ) 0 
( 95.8359 481.919 409.859 ) 0 
( 0.543645 203.741 413.281 ) 0 
( 194.013 497.416 391.644 ) 0 
( 383.544 127.92 448.313 ) 0 
( 102.775 226.811 429.619 ) 0 
( 194.945 119.324 430.543 ) 0 
( 466.613 76.2706 427.901 ) 0 
( 420.33 271.886 431.969 ) 0 
( 344.757 324.465 390.149 ) 0 
( 9.85941 448.929 370.916 ) 0 
( 450.693 482.805 376.236 ) 0 
( 453.705 176.575 395.131 ) 0 
( 167.09 188.062 363.567 ) 0 
( 65.8 40.3212 469.57 ) 0 
( 288.753 73.9072 469.499 ) 0 
( 334.359 290.748 483.771 ) 0 
( 157.775 265.227 503.698 ) 0 
( 122.425 150.906 491.569 ) 0 
( 397.656 440.712 451.456 ) 0 
( 391.012 211.421 505.896 ) 0 
( 317.369 389.207 481.286 ) 0 
( 40.8578 408.578 456.886 ) 0 
( 264.864 428.354 405.822 ) 0 
( 167.718 485.341 487.244 ) 0 
( 45.6328 211.769 511.244 ) 0 
( 468.443 276.997 535.472 ) 0 
( 362.426 123.77 545.929 ) 0 
( 219.498 374.294 496.401 ) 0 
( 68.1186 491.616 505.353 ) 0 
( 129.496 65.1026 542.419 ) 0 
( 379.438 37.2484 490.319 ) 0 
( 468.915 149.708 495.676 ) 0 
( 186.82 27.7156 469.625 ) 0 
( 229.324 201.092 476.479 ) 0 
( 249.478 287.765 536.49 ) 0 
( 37.7179 19.4847 563.221 ) 0 
( 44.3631 117.409 544.215 ) 0 
( 41.2674 348.33 536.604 ) 0 
( 413.73 350.442 495.191 ) 0 
( 172.699 451.702 581.179 ) 0 
( 376.66 282.553 574.614 ) 0 
( 448.508 190.153 584.814 ) 0 
( 182.557 97.3022 620.729 ) 0 
( 123.827 398.941 511.764 ) 0 
( 449.704 434.086 536.453 ) 0 
( 73.9437 438.929 590.048 ) 0 
( 258.632 462.612 522.092 ) 0 
( 216.795 111.565 527.713 ) 0 
( 213.919 17.6452 567.087 ) 0 
( 300.309 202.298 546.783 ) 0 
( 172.123 190.872 568.946 ) 0 
( 357.013 471.574 537.417 ) 0 
( 2.68836 286.905 605.325 ) 0 
( 208.684 261.704 629.259 ) 0 
( 125.934 15.3027 628.968 ) 0 
( 88.5356 167.564 618.542 ) 0 
( 250.708 389.818 590.101 ) 0 
( 168.566 335.1 574.325 ) 0 
( 450.448 69.717 552.731 ) 0 
( 250.876 169.944 627.364 ) 0 
( 96.314 260.432 582.322 ) 0 
( 444.147 353.389 595.17 ) 0 
( 285.384 82.1294 594.181 ) 0 
( 349.178 378.708 575.423 ) 0 
( 369.724 28.7768 599.97 ) 0 
( 35.1075 85.3849 638.449 ) 0 
( 110.615 17.6606 727.719 ) 0 
( 464.929 268.826 644.269 ) 0 
( 82.0545 347.425 629.426 ) 0 
( 358.74 199.848 627.836 ) 0 
( 408.935 113.592 635.436 ) 0 
( 311.222 439.78 652.015 ) 0 
( 319.713 120.181 680.062 ) 0 
( 487.262 163.104 672.921 ) 0 
( 296.51 309.414 627.898 ) 0 
( 36.4328 170.49 703.781 ) 0 
( 407.986 440.967 627 ) 0 
( 373.128 357.801 670.178 ) 0 
( 290.973 233.772 693.035 ) 0 
( 300.99 22.2153 672.875 ) 0 
( 398.309 26.6136 695.715 ) 0 
( 121.983 268.509 678.553 ) 0 
( 183.189 191.812 697.563 ) 0 
( 172.217 354.773 672.24 ) 0 
( 43.4076 85.8525 756.533 ) 0 
( 395.664 272.021 716.294 ) 0 
( 465.871 88.4154 735.861 ) 0 
( 98.6002 480.359 677.597 ) 0 
( 118.673 112.252 696.189 ) 0 
( 213.489 445.867 672.213 ) 0 
( 202.94 29.3346 691.155 ) 0 
( 211.43 282.463 729.058 ) 0 
( 444.63 356.083 740.035 ) 0 
( 7.91174 337.672 790.791 ) 0 
( 235.175 114.161 733.095 ) 0 
( 376.832 439.669 727.448 ) 0 
( 445.075 1.51818 780.756 ) 0 
( 397.381 172.051 715.72 ) 0 
( 29.9102 300.493 700.637 ) 0 
( 315.598 62.9041 763.152 ) 0 
( 46.1375 400.219 706.331 ) 0 
( 266.298 367.003 703.787 ) 0 
( 280.537 460.139 744.971 ) 0 
( 311.447 169.371 766.73 ) 0 
( 185.493 488.931 804.818 ) 0 
( 64.6383 461.532 783.083 ) 0 
( 276.521 17.7736 844.499 ) 0 
( 477.918 179.904 774.423 ) 0 
( 310.754 279.617 779.63 ) 0 
( 466.115 495.397 793.201 ) 0 
( 220.238 203.372 789.688 ) 0 
( 404.454 421.698 821.821 ) 0 
( 107.737 330.179 755.935 ) 0 
( 128.549 121.035 795.391 ) 0 
( 41.0799 161.325 822.311 ) 0 
( 107.833 212.218 759.983 ) 0 
( 392.801 115.935 798.333 ) 0 
( 146.614 421.276 742.34 ) 0 
( 321.4 378.803 786.353 ) 0 
( 192.985 44.681 791.313 ) 0 
( 257.189 114.898 830.638 ) 0 
( 101.222 27.2109 826.988 ) 0 
( 173.396 90.3218 879.348 ) 0 
( 140.157 201.127 854.152 ) 0 
( 119.137 391.975 833.882 ) 0 
( 275.658 327.422 860.136 ) 0 
( 172.216 289.88 820.855 ) 0 
( 44.0914 3.86798 905.891 ) 0 
( 389.082 221.419 802.262 ) 0 
( 219.547 374.128 791.848 ) 0 
( 73.2971 273.58 830.941 ) 0 
( 453.05 472.756 892.719 ) 0 
( 315.071 463.705 838.765 ) 0 
( 373.707 37.4549 857.339 ) 0 
( 227.586 435.785 878.339 ) 0 
( 383.341 318.262 836.504 ) 0 
( 263.652 77.9757 923.345 ) 0 
( 498.867 64.4258 836.825 ) 0 
( 456.614 149.67 867.531 ) 0 
( 471.241 277.654 811.447 ) 0 
( 23.9906 407.432 860.595 ) 0 
( 341.175 128.351 883.383 ) 0 
( 74.5386 98.1924 892.287 ) 0 
( 143.334 263.198 932.488 ) 0 
( 243.576 267.143 933.159 ) 0 
( 180.979 350.097 900.349 ) 0 
( 444.002 369.404 897.37 ) 0 
( 24.4964 483.181 925.946 ) 0 
( 55.5283 211.86 907.567 ) 0 
( 299.92 215.033 855.184 ) 0 
( 132.528 160.285 945.119 ) 0 
( 80.496 336.987 907.914 ) 0 
( 390.309 445.765 965.83 ) 0 
( 352.365 44.1448 954.99 ) 0 
( 118.102 223.754 1021.23 ) 0 
( 7.52643 385.042 956.812 ) 0 
( 464.119 298.065 964.626 ) 0 
( 194.388 97.7269 992.791 ) 0 
( 308.078 192.756 952.337 ) 0 
( 222.781 173.83 903.724 ) 0 
( 476.259 187.506 961.998 ) 0 
( 345.783 388.464 897.003 ) 0 
( 422.796 239.796 894.595 ) 0 
( 298.724 475.11 936.86 ) 0 
( 129.345 33.5841 949.075 ) 0 
( 445.037 66.0721 921.292 ) 0 
( 133.261 436.839 922.173 ) 0 
( 302.654 271.697 1013.9 ) 0 
( 349.559 360.29 998.197 ) 0 
( 204.919 488.86 968.722 ) 0 
( 195.012 313.774 1007.28 ) 0 
( 51.8765 293.374 993.438 ) 0 
( 29.3179 370.185 1053.52 ) 0 
( 450.075 33.1882 1015.9 ) 0 
( 262.613 376.889 951.514 ) 0 
( 114.195 371.549 995.702 ) 0 
( 37.0254 169.919 996.802 ) 0 
( 184.727 4.28076 1027.28 ) 0 
( 214.467 198.815 1000.73 ) 0 
( 343.38 292.469 924.864 ) 0 
( 391.306 135.173 969.63 ) 0 
( 391.7 233.308 989.414 ) 0 
( 293.962 446.328 1032.95 ) 0 
( 300.238 111.534 1010.44 ) 0 
( 63.5953 455.868 1014.11 ) 0 
( 383.165 91.0281 1062.62 ) 0 
( 109.548 71.6565 1039.77 ) 0 
( 198.879 410.997 1031.43 ) 0 
( 472.172 243.231 1048.39 ) 0 
( 30.2501 71.7997 978.177 ) 0 
( 12.5149 106.628 1070.6 ) 0 
( 230.905 132.609 1079.58 ) 0 
( 489.335 420.951 970.168 ) 0 
( 30.7971 2.93507 1051.06 ) 0 
( 490.837 342.484 1050.62 ) 0 
( 165.69 119.342 1154.51 ) 0 
( 186.429 220.971 1094.38 ) 0 
( 40.566 247.201 1081.83 ) 0 
( 153.182 26.1918 1120.25 ) 0 
( 118.819 308.993 1074 ) 0 
( 298.484 41.6661 1082.27 ) 0 
( 182.011 483.133 1099.01 ) 0 
( 96.5951 156.369 1092.02 ) 0 
( 276.764 260.875 1110.13 ) 0 
( 336.273 190.035 1061.19 ) 0 
( 273.874 353.41 1064.1 ) 0 
( 437.062 166.035 1101.61 ) 0 
( 390.657 298.532 1065.7 ) 0 
( 336.145 335.029 1141.42 ) 0 
( 314.584 125.444 1134.68 ) 0 
( 239.798 52.7095 1163.27 ) 0 
( 203.814 275.582 1177.73 ) 0 
( 192.054 357.756 1121.68 ) 0 
( 110.359 248.492 1153.87 ) 0 
( 442.291 366.808 1135.42 ) 0 
( 268.85 405.409 1164.6 ) 0 
( 70.5917 76.2082 1146.68 ) 0 
( 352.993 429.407 1112.51 ) 0 
( 9.44291 174.797 1143.79 ) 0 
( 434.173 424.868 1053.96 ) 0 
( 278.574 495.521 1122.04 ) 0 
( 455.628 486.944 1129.79 ) 0 
( 114.038 410.597 1088.07 ) 0 
( 469.924 118.604 1208.45 ) 0 
( 60.9019 346.779 1146.74 ) 0 
( 89.7302 163.525 1202.42 ) 0 
( 425.716 54.1182 1145.64 ) 0 
( 447.383 267.162 1142.96 ) 0 
( 241.169 182.986 1170.95 ) 0 
( 24.9299 449.741 1209.29 ) 0 
( 371.15 102.825 1213.93 ) 0 
( 117.055 464.173 1173.26 ) 0 
( 358.526 222.226 1153.84 ) 0 
( 429.881 209.209 1222.74 ) 0 
)
