/*--------------------------------*- C++ -*----------------------------------*\
| =========                 |                                                 |
| \\      /  F ield         | OpenFOAM: The Open Source CFD Toolbox           |
|  \\    /   O peration     | Version:  5.x                                   |
|   \\  /    A nd           | Web:      www.OpenFOAM.org                      |
|    \\/     M anipulation  |                                                 |
\*---------------------------------------------------------------------------*/
FoamFile
{
    version     2.0;
    format      ascii;
    class       volScalarField;
    location    "0.03";
    object      p;
}
// * * * * * * * * * * * * * * * * * * * * * * * * * * * * * * * * * * * * * //

dimensions      [0 2 -2 0 0 0 0];

internalField   nonuniform List<scalar> 
2250
(
-2.88639e-10
-2.90043e-10
-2.89285e-10
-3.04007e-10
-3.6118e-10
-2.99882e-10
-2.95475e-10
-2.93799e-10
-3.05593e-10
-3.4931e-10
-3.1179e-10
-3.02287e-10
-2.9159e-10
-2.87373e-10
-3.04733e-10
-3.4161e-10
-3.26304e-10
-2.98924e-10
-2.69393e-10
-2.53073e-10
-3.94473e-10
-3.73257e-10
-3.20191e-10
-2.61004e-10
-2.16119e-10
-8.5928e-10
-8.55693e-10
-8.43639e-10
-8.54284e-10
-9.23387e-10
-8.88246e-10
-8.71267e-10
-8.516e-10
-8.45655e-10
-8.74536e-10
-9.30372e-10
-9.00769e-10
-8.57672e-10
-8.15142e-10
-7.99065e-10
-1.02719e-09
-9.83571e-10
-8.97612e-10
-7.97666e-10
-7.25609e-10
-1.19594e-09
-1.13183e-09
-9.81718e-10
-8.20899e-10
-7.3683e-10
-1.40326e-09
-1.38271e-09
-1.341e-09
-1.29431e-09
-1.25119e-09
-1.44542e-09
-1.4118e-09
-1.35456e-09
-1.28394e-09
-1.22179e-09
-1.53095e-09
-1.48281e-09
-1.39851e-09
-1.29546e-09
-1.20301e-09
-1.70357e-09
-1.63783e-09
-1.50007e-09
-1.32864e-09
-1.16435e-09
-1.9832e-09
-1.8822e-09
-1.65921e-09
-1.39282e-09
-1.18825e-09
-1.89663e-09
-1.85698e-09
-1.77627e-09
-1.65906e-09
-1.53315e-09
-1.96038e-09
-1.91482e-09
-1.81804e-09
-1.69169e-09
-1.59047e-09
-2.10048e-09
-2.04198e-09
-1.92539e-09
-1.78455e-09
-1.66167e-09
-2.34462e-09
-2.27053e-09
-2.10823e-09
-1.90532e-09
-1.67169e-09
-2.70837e-09
-2.59826e-09
-2.35103e-09
-2.00789e-09
-1.54093e-09
-2.33144e-09
-2.279e-09
-2.16483e-09
-2.0056e-09
-1.88666e-09
-2.42411e-09
-2.37119e-09
-2.24209e-09
-2.08468e-09
-1.98668e-09
-2.61241e-09
-2.54517e-09
-2.39621e-09
-2.22162e-09
-2.08524e-09
-2.90942e-09
-2.82856e-09
-2.63649e-09
-2.4033e-09
-2.14752e-09
-3.34231e-09
-3.23099e-09
-2.95385e-09
-2.56417e-09
-1.93968e-09
-2.69064e-09
-2.62201e-09
-2.47267e-09
-2.27155e-09
-2.11893e-09
-2.80343e-09
-2.73246e-09
-2.56381e-09
-2.35288e-09
-2.17664e-09
-3.02096e-09
-2.93322e-09
-2.73541e-09
-2.49015e-09
-2.27506e-09
-3.35451e-09
-3.25244e-09
-3.00238e-09
-2.70827e-09
-2.45992e-09
-3.85612e-09
-3.7099e-09
-3.36634e-09
-2.97603e-09
-2.54233e-09
-2.94474e-09
-2.84617e-09
-2.64601e-09
-2.36155e-09
-2.03691e-09
-3.06086e-09
-2.95622e-09
-2.73374e-09
-2.42488e-09
-2.06401e-09
-3.29148e-09
-3.17268e-09
-2.92128e-09
-2.5828e-09
-2.22759e-09
-3.64419e-09
-3.50771e-09
-3.20666e-09
-2.85069e-09
-2.57703e-09
-4.15697e-09
-3.9534e-09
-3.57462e-09
-3.22274e-09
-3.05749e-09
-3.09777e-09
-2.96916e-09
-2.71335e-09
-2.32401e-09
-1.78895e-09
-3.21673e-09
-3.0848e-09
-2.81566e-09
-2.40887e-09
-1.87839e-09
-3.45516e-09
-3.31701e-09
-3.03872e-09
-2.63559e-09
-2.15829e-09
-3.79868e-09
-3.64413e-09
-3.34961e-09
-2.96945e-09
-2.5973e-09
-4.21673e-09
-4.01726e-09
-3.7077e-09
-3.38593e-09
-3.18833e-09
-3.20564e-09
-3.07108e-09
-2.77557e-09
-2.30797e-09
-1.67133e-09
-3.35091e-09
-3.21918e-09
-2.92488e-09
-2.45909e-09
-1.85989e-09
-3.60344e-09
-3.4719e-09
-3.1931e-09
-2.76329e-09
-2.22655e-09
-3.92639e-09
-3.79179e-09
-3.54484e-09
-3.17361e-09
-2.70852e-09
-4.24137e-09
-4.13066e-09
-3.94674e-09
-3.65389e-09
-3.2921e-09
-3.31505e-09
-3.18948e-09
-2.85938e-09
-2.33626e-09
-1.67927e-09
-3.5082e-09
-3.38295e-09
-3.05898e-09
-2.54726e-09
-1.9147e-09
-3.79188e-09
-3.66815e-09
-3.37388e-09
-2.91403e-09
-2.34059e-09
-4.13292e-09
-4.02436e-09
-3.79542e-09
-3.42738e-09
-2.9485e-09
-4.47148e-09
-4.42838e-09
-4.31064e-09
-4.07086e-09
-3.76052e-09
-3.38444e-09
-3.23571e-09
-2.84243e-09
-2.24279e-09
-1.51062e-09
-3.61948e-09
-3.46238e-09
-3.07478e-09
-2.49238e-09
-1.77482e-09
-3.967e-09
-3.81729e-09
-3.47028e-09
-2.95304e-09
-2.31149e-09
-4.40496e-09
-4.28448e-09
-4.01657e-09
-3.61112e-09
-3.10758e-09
-4.89608e-09
-4.83033e-09
-4.67933e-09
-4.4334e-09
-4.19712e-09
-3.30583e-09
-3.07762e-09
-2.58785e-09
-1.88057e-09
-9.96028e-10
-3.57306e-09
-3.34395e-09
-2.87116e-09
-2.20025e-09
-1.36595e-09
-4.04604e-09
-3.84512e-09
-3.42828e-09
-2.83628e-09
-2.09229e-09
-4.6746e-09
-4.51447e-09
-4.17767e-09
-3.68137e-09
-3.03418e-09
-5.39662e-09
-5.26903e-09
-5.01578e-09
-4.61222e-09
-4.13614e-09
-3.02517e-09
-2.69992e-09
-2.1013e-09
-1.26736e-09
-2.27029e-10
-3.36361e-09
-3.06532e-09
-2.49919e-09
-1.71964e-09
-7.67029e-10
-4.0476e-09
-3.79728e-09
-3.29075e-09
-2.58679e-09
-1.70856e-09
-4.95294e-09
-4.74319e-09
-4.30443e-09
-3.66538e-09
-2.80984e-09
-5.96752e-09
-5.76195e-09
-5.36511e-09
-4.74538e-09
-3.91169e-09
-2.59886e-09
-2.20053e-09
-1.4619e-09
-4.43109e-10
7.7559e-10
-3.09343e-09
-2.73418e-09
-2.02081e-09
-1.04716e-09
9.74882e-11
-4.05747e-09
-3.73549e-09
-3.06261e-09
-2.14463e-09
-1.04349e-09
-5.29499e-09
-4.99011e-09
-4.37432e-09
-3.52597e-09
-2.44707e-09
-6.63693e-09
-6.31006e-09
-5.75061e-09
-4.96509e-09
-3.89598e-09
-2.08514e-09
-1.60267e-09
-6.26668e-10
7.08851e-10
2.24427e-09
-2.79908e-09
-2.32512e-09
-1.34802e-09
-3.32953e-11
1.47371e-09
-4.08116e-09
-3.6116e-09
-2.65831e-09
-1.38709e-09
1.01581e-10
-5.71504e-09
-5.2444e-09
-4.36325e-09
-3.1929e-09
-1.75874e-09
-7.48157e-09
-7.01875e-09
-6.2626e-09
-5.23179e-09
-3.81842e-09
-1.40936e-09
-7.52231e-10
5.93639e-10
2.40156e-09
4.46146e-09
-2.35728e-09
-1.66818e-09
-3.14128e-10
1.47739e-09
3.53548e-09
-4.03343e-09
-3.33889e-09
-2.02045e-09
-2.74309e-10
1.78209e-09
-6.24184e-09
-5.56735e-09
-4.3449e-09
-2.69655e-09
-6.82677e-10
-8.73771e-09
-8.13709e-09
-7.07111e-09
-5.53872e-09
-3.49383e-09
-3.98439e-10
5.472e-10
2.3684e-09
4.78879e-09
7.58916e-09
-1.61788e-09
-6.42598e-10
1.16021e-09
3.55189e-09
6.35306e-09
-3.88272e-09
-2.92874e-09
-1.17832e-09
1.18104e-09
3.99094e-09
-6.98185e-09
-6.07622e-09
-4.40432e-09
-2.0856e-09
7.16217e-10
-1.06162e-08
-9.79382e-09
-8.22246e-09
-5.92576e-09
-3.05293e-09
1.0646e-09
2.36808e-09
4.76504e-09
7.98893e-09
1.18021e-08
-5.66737e-10
7.25223e-10
3.08441e-09
6.29302e-09
1.01175e-08
-3.72308e-09
-2.46993e-09
-1.38591e-10
3.08137e-09
6.91586e-09
-8.08229e-09
-6.85667e-09
-4.53626e-09
-1.29244e-09
2.54704e-09
-1.32043e-08
-1.20004e-08
-9.68013e-09
-6.39378e-09
-2.48786e-09
2.99793e-09
4.71637e-09
7.88748e-09
1.22482e-08
1.74627e-08
7.25521e-10
2.41175e-09
5.57253e-09
9.95886e-09
1.51911e-08
-3.67192e-09
-1.99613e-09
1.19014e-09
5.61838e-09
1.08449e-08
-9.70615e-09
-8.00767e-09
-4.77419e-09
-3.02028e-10
4.92478e-09
-1.676e-08
-1.50253e-08
-1.17148e-08
-7.19872e-09
-1.94521e-09
5.46789e-09
7.7436e-09
1.20358e-08
1.79896e-08
2.50726e-08
2.30445e-09
4.57561e-09
8.89801e-09
1.48886e-08
2.19673e-08
-3.74539e-09
-1.44861e-09
2.91649e-09
8.93466e-09
1.60026e-08
-1.20503e-08
-9.72033e-09
-5.3012e-09
7.5376e-10
7.84725e-09
-2.1817e-08
-1.94344e-08
-1.49099e-08
-8.81473e-09
-1.65091e-09
8.73953e-09
1.18268e-08
1.76748e-08
2.57421e-08
3.52527e-08
4.40648e-09
7.51375e-09
1.33877e-08
2.1468e-08
3.09708e-08
-3.88219e-09
-7.58218e-10
5.13831e-09
1.32419e-08
2.27854e-08
-1.53354e-08
-1.22025e-08
-6.25671e-09
1.90415e-09
1.15466e-08
-2.8877e-08
-2.5685e-08
-1.96448e-08
-1.13977e-08
-1.48377e-09
1.32587e-08
1.74603e-08
2.53641e-08
3.62181e-08
4.89665e-08
7.34341e-09
1.1545e-08
1.94516e-08
3.03226e-08
4.31116e-08
-4.03439e-09
1.60361e-10
8.09526e-09
1.90333e-08
3.1938e-08
-1.97836e-08
-1.55788e-08
-7.58426e-09
3.44154e-09
1.64687e-08
-3.8348e-08
-3.41003e-08
-2.60645e-08
-1.49231e-08
-1.56955e-09
1.95722e-08
2.52409e-08
3.58982e-08
5.05401e-08
6.77276e-08
1.14624e-08
1.71135e-08
2.7787e-08
4.24801e-08
5.97558e-08
-4.13036e-09
1.52399e-09
1.22567e-08
2.70568e-08
4.44553e-08
-2.56639e-08
-1.9985e-08
-9.19435e-09
5.6899e-09
2.31461e-08
-5.09732e-08
-4.53154e-08
-3.45339e-08
-1.95608e-08
-1.92939e-09
2.83962e-08
3.60489e-08
5.04874e-08
7.03218e-08
9.35977e-08
1.72915e-08
2.49444e-08
3.94265e-08
5.93296e-08
8.26793e-08
-3.99798e-09
3.67634e-09
1.82372e-08
3.82553e-08
6.16812e-08
-3.33837e-08
-2.56827e-08
-1.10585e-08
9.05987e-09
3.2571e-08
-6.79781e-08
-6.03079e-08
-4.5656e-08
-2.54204e-08
-1.67432e-09
4.07731e-08
5.11524e-08
7.07622e-08
9.76547e-08
1.2917e-07
2.56155e-08
3.60103e-08
5.56838e-08
8.2651e-08
1.14211e-07
-3.4085e-09
7.02638e-09
2.68053e-08
5.39197e-08
8.56079e-08
-4.35076e-08
-3.30168e-08
-1.31159e-08
1.42172e-08
4.61944e-08
-9.08203e-08
-8.02677e-08
-6.02201e-08
-3.26423e-08
-2.75815e-10
5.8141e-08
7.22349e-08
9.88902e-08
1.35364e-07
1.77991e-07
3.7467e-08
5.16038e-08
7.83595e-08
1.14943e-07
1.57685e-07
-2.06428e-09
1.21605e-08
3.90788e-08
7.59289e-08
1.19004e-07
-5.67476e-08
-4.24076e-08
-1.52491e-08
2.202e-08
6.56306e-08
-1.21421e-07
-1.06911e-07
-7.94705e-08
-4.17812e-08
2.29429e-09
8.24236e-08
1.01629e-07
1.37929e-07
1.87453e-07
2.45167e-07
5.42887e-08
7.35998e-08
1.10046e-07
1.59785e-07
2.17769e-07
5.16766e-10
1.99689e-08
5.66962e-08
1.0691e-07
1.65519e-07
-7.40469e-08
-5.44041e-08
-1.72626e-08
3.3609e-08
9.30547e-08
-1.62528e-07
-1.42624e-07
-1.05061e-07
-5.34747e-08
6.84712e-09
1.16233e-07
1.42555e-07
1.92072e-07
2.59414e-07
3.37589e-07
7.80661e-08
1.04527e-07
1.54274e-07
2.2202e-07
3.00688e-07
4.96405e-09
3.16365e-08
8.18741e-08
1.5038e-07
2.30076e-07
-9.66983e-08
-6.97279e-08
-1.88478e-08
5.06538e-08
1.3166e-07
-2.1774e-07
-1.90436e-07
-1.38912e-07
-6.82619e-08
1.43102e-08
1.62942e-07
1.99181e-07
2.66891e-07
3.58619e-07
4.64455e-07
1.11231e-07
1.47621e-07
2.15741e-07
3.08125e-07
4.14811e-07
1.19668e-08
4.86829e-08
1.1757e-07
2.11128e-07
3.19433e-07
-1.26503e-07
-8.93931e-08
-1.95376e-08
7.55597e-08
1.85985e-07
-2.91933e-07
-2.54422e-07
-1.83588e-07
-8.67685e-08
2.61101e-08
2.2663e-07
2.76926e-07
3.69913e-07
4.95138e-07
6.38345e-07
1.56689e-07
2.07174e-07
3.00847e-07
4.27048e-07
5.71633e-07
2.23244e-08
7.32005e-08
1.68041e-07
2.96062e-07
4.43251e-07
-1.65974e-07
-1.14661e-07
-1.83623e-08
1.12066e-07
2.62844e-07
-3.9194e-07
-3.40169e-07
-2.42397e-07
-1.09286e-07
4.55573e-08
3.12063e-07
3.83093e-07
5.11326e-07
6.82897e-07
8.76666e-07
2.17813e-07
2.88908e-07
4.18386e-07
5.91319e-07
7.87319e-07
3.69559e-08
1.0836e-07
2.39709e-07
4.15399e-07
6.15655e-07
-2.18382e-07
-1.46752e-07
-1.32039e-08
1.66138e-07
3.7227e-07
-5.26604e-07
-4.54677e-07
-3.18991e-07
-1.35468e-07
7.7273e-08
4.24114e-07
5.27697e-07
7.0457e-07
9.41231e-07
1.204e-06
2.9749e-07
4.00184e-07
5.8003e-07
8.18126e-07
1.08467e-06
5.6631e-08
1.59126e-07
3.42312e-07
5.84266e-07
8.57383e-07
-2.88152e-07
-1.86873e-07
6.09752e-12
2.46883e-07
5.2932e-07
-7.06467e-07
-6.06267e-07
-4.16824e-07
-1.63377e-07
1.29349e-07
5.65455e-07
7.26034e-07
9.66145e-07
1.29727e-06
1.65687e-06
3.94942e-07
5.49673e-07
7.99916e-07
1.12966e-06
1.49661e-06
8.10143e-08
2.34114e-07
4.9155e-07
8.25722e-07
1.20071e-06
-3.8295e-07
-2.37279e-07
2.89878e-08
3.67192e-07
7.58074e-07
-9.42401e-07
-8.04151e-07
-5.36999e-07
-1.87155e-07
2.18569e-07
7.31146e-07
1.01062e-06
1.31081e-06
1.79087e-06
2.2998e-06
4.96632e-07
7.44033e-07
1.09106e-06
1.54781e-06
2.07816e-06
1.07466e-07
3.53933e-07
7.16951e-07
1.17852e-06
1.7023e-06
-5.20688e-07
-3.06892e-07
9.06706e-08
5.39111e-07
1.09894e-06
-1.23117e-06
-1.0539e-06
-6.70598e-07
-1.94845e-07
3.74146e-07
8.97744e-07
1.47974e-06
1.72745e-06
2.48877e-06
3.26326e-06
5.51703e-07
9.70231e-07
1.45157e-06
2.05604e-06
2.9371e-06
1.34823e-07
5.91029e-07
1.08574e-06
1.72748e-06
2.47293e-06
-7.57433e-07
-4.45754e-07
2.38251e-07
7.31407e-07
1.64056e-06
-1.49397e-06
-1.33468e-06
-7.66803e-07
-1.66288e-07
6.43794e-07
9.89348e-07
2.34582e-06
2.16167e-06
3.51415e-06
4.80016e-06
4.2795e-07
1.16812e-06
1.88003e-06
2.49321e-06
4.25575e-06
2.03663e-07
1.23045e-06
1.76123e-06
2.73671e-06
3.67662e-06
-1.26025e-06
-9.00411e-07
6.89976e-07
6.86724e-07
2.57838e-06
-1.54811e-06
-1.5384e-06
-6.21598e-07
-7.48576e-08
1.07511e-06
7.50762e-07
3.87163e-06
2.39816e-06
4.95981e-06
7.33211e-06
-1.93856e-07
1.15285e-06
2.43596e-06
2.4139e-06
6.12741e-06
2.4277e-07
2.68638e-06
2.95439e-06
4.71485e-06
5.29238e-06
-2.31969e-06
-2.20104e-06
1.90822e-06
-4.73458e-08
4.18676e-06
-1.31963e-06
-1.5076e-06
4.88688e-08
6.83106e-08
1.5159e-06
-1.64758e-06
1.6566e-07
-1.02171e-06
3.35656e-06
4.60409e-06
-2.61033e-06
-2.56942e-06
-7.36008e-07
4.49266e-07
6.66074e-06
-2.47066e-06
-1.95672e-07
-2.05697e-06
2.52117e-06
1.89381e-06
-6.80352e-06
-6.24555e-06
-1.71299e-06
-2.49002e-06
5.45292e-06
-1.49707e-06
-3.37259e-06
-2.62577e-06
-1.28372e-06
5.50468e-07
6.77093e-06
2.80544e-05
1.21752e-05
2.44654e-05
3.56278e-05
2.23049e-06
1.02332e-05
1.68416e-05
5.50521e-06
1.82065e-05
7.16933e-06
2.55599e-05
2.29207e-05
3.54957e-05
2.24036e-05
3.7533e-06
-6.3921e-07
2.63537e-05
2.96305e-06
1.83917e-05
7.17181e-06
9.94203e-06
1.74962e-05
1.35334e-05
1.12102e-05
-1.40088e-05
-2.45792e-05
-1.09199e-05
-1.21469e-05
-9.20068e-06
-7.41606e-06
-2.08177e-05
-1.33723e-05
-5.61708e-06
1.41178e-05
-1.51165e-05
-2.1371e-05
-1.28669e-05
-1.875e-05
-1.60477e-05
-3.12845e-05
-1.57314e-05
-1.68248e-05
-1.20184e-05
1.55607e-05
-2.13474e-06
-7.16666e-06
-4.78618e-06
-5.40808e-06
3.08196e-06
-2.2704e-05
7.59279e-05
-3.78751e-06
3.75874e-05
9.44668e-05
6.31924e-06
-8.51687e-06
2.53657e-05
-3.85108e-05
-9.37144e-05
-4.74626e-05
5.72954e-05
6.51918e-05
0.000132269
-7.41721e-06
-1.59289e-05
-2.07084e-05
9.16322e-05
-1.95893e-05
-6.94753e-05
-2.12559e-05
7.47013e-06
4.98365e-05
1.02842e-05
-3.87749e-05
0.000774481
0.00113533
0.0011027
0.000626744
0.000940897
0.00149161
0.000918407
0.000848832
0.000604004
0.000497315
0.00132877
0.00075433
0.000955796
0.000809061
0.000732792
0.000613271
0.000449327
0.00110479
0.000722754
0.000269299
0.000247701
0.00072694
0.00078152
0.000434623
0.000147527
0.00222249
0.00174358
0.00196386
0.0018323
0.00112407
0.00198294
0.00200889
0.00169639
0.00172612
0.0012549
0.00198181
0.00169768
0.00156023
0.00193337
0.00148397
0.00153313
0.00158279
0.00145525
0.00161714
0.00116754
0.00156197
0.00174797
0.00142627
0.00201556
0.00169826
0.00227581
0.0021416
0.00228608
0.00234964
0.00225864
0.0024401
0.00236859
0.00242405
0.00242878
0.00189291
0.00240486
0.00230184
0.00224323
0.00233236
0.00227141
0.0022966
0.00244887
0.00210721
0.00221793
0.00208816
0.00244042
0.00241888
0.00230217
0.00225657
0.00241097
0.00247484
0.00246491
0.0028387
0.00278138
0.00312097
0.00290502
0.00277509
0.00295176
0.00323804
0.00383156
0.00260987
0.00261267
0.00268421
0.00258391
0.00273643
0.00390993
0.00305035
0.00289648
0.00300826
0.00299472
0.00287486
0.00307521
0.00273771
0.0031132
0.00321803
0.00440738
0.0035854
0.00407986
0.00356232
0.00401254
0.00339026
0.00346192
0.00362248
0.00371198
0.00375273
0.00351958
0.00364608
0.00296286
0.00350935
0.00364424
0.00408551
0.00398076
0.0033106
0.0038438
0.00339595
0.00362627
0.00343384
0.00342326
0.0037934
0.00352714
0.00525041
0.00524297
0.0044961
0.00478234
0.00467622
0.00463498
0.00412699
0.00444275
0.00422014
0.00407206
0.00434166
0.00434486
0.004791
0.00430831
0.00464287
0.00416586
0.00412877
0.00406992
0.00451129
0.00412603
0.00394382
0.00386472
0.00453586
0.00443026
0.00392698
0.00582085
0.00582989
0.00468777
0.00516359
0.0049691
0.00537904
0.00528895
0.0050896
0.00497511
0.00503531
0.00509142
0.00496655
0.00508642
0.00512451
0.00517118
0.00532867
0.00469186
0.00497392
0.0049088
0.00491376
0.00502163
0.00529051
0.00498685
0.00497104
0.00489102
0.00621395
0.00629295
0.00604744
0.00563709
0.00636578
0.00589803
0.00620077
0.00590681
0.00560063
0.00649757
0.00555576
0.0056466
0.0054738
0.00569555
0.00554169
0.00561545
0.00567064
0.00553717
0.00550636
0.00559643
0.0054423
0.00541047
0.00518862
0.00504141
0.00540664
0.00628864
0.00649922
0.00656411
0.00623409
0.00651842
0.0063964
0.00649436
0.0067478
0.00627542
0.00678612
0.00630192
0.00626928
0.00618772
0.00611015
0.0063217
0.00564829
0.00630189
0.006207
0.00616679
0.00586578
0.00580031
0.00597181
0.00598844
0.00564407
0.00598363
0.00695491
0.00689763
0.00686787
0.00683923
0.00681382
0.00703056
0.00689423
0.00681811
0.00676845
0.0068823
0.0068363
0.00688782
0.00687744
0.00644662
0.00674078
0.00668909
0.00687696
0.00672158
0.00664912
0.00680528
0.00680555
0.00681449
0.00682468
0.00662481
0.00674318
0.00702647
0.00704584
0.00702277
0.00699295
0.00701808
0.00703044
0.00704686
0.00691943
0.00701935
0.00696349
0.0069977
0.00705181
0.00704308
0.00696118
0.00703372
0.00698294
0.00701767
0.00699671
0.00696947
0.00702252
0.00700366
0.00698712
0.00701016
0.00695848
0.00696409
0.00697608
0.00698
0.00699813
0.00697625
0.00695492
0.00699258
0.00698814
0.00699404
0.00698595
0.00697714
0.00700244
0.00699555
0.00700134
0.00699308
0.00698842
0.00699297
0.00698576
0.0070032
0.00699456
0.0069933
0.00699605
0.006997
0.00699787
0.00699498
0.00699164
0.00699649
0.00699149
0.00698988
0.0069861
0.00698726
0.0069942
0.00699214
0.00697755
0.00698488
0.00698068
0.00699334
0.0069941
0.00699351
0.00698112
0.00698906
0.00698192
0.00698422
0.00698487
0.00697861
0.0069915
0.0069944
0.00699558
0.00699481
0.00698462
0.00698703
0.00699192
0.00699059
0.00699162
0.00698948
0.00698851
0.00699251
0.00699132
0.0069903
0.00699049
0.0069886
0.00699442
0.00699308
0.00699413
0.00699024
0.00699263
0.0069895
0.00698793
0.00699111
0.00698848
0.00699233
0.00699562
0.0069951
0.00699412
0.00699106
0.00699179
0.00699208
0.00699132
0.00699179
0.00699107
0.00699096
0.00699216
0.00699152
0.00699132
0.00699131
0.00699116
0.00699342
0.00699268
0.0069931
0.00699137
0.0069926
0.00699052
0.00698993
0.00699142
0.00699027
0.0069925
0.00699444
0.00699409
0.00699355
0.00699205
0.00699251
0.00699228
0.00699193
0.00699217
0.00699199
0.00699216
0.00699231
0.00699202
0.00699214
0.00699209
0.00699232
0.00699303
0.00699266
0.00699284
0.00699221
0.00699279
0.00699157
0.00699135
0.00699209
0.00699175
0.00699281
0.00699381
0.00699359
0.0069933
0.00699267
0.00699294
0.00699254
0.00699242
0.00699255
0.00699257
0.00699279
0.00699259
0.00699248
0.0069926
0.00699263
0.00699288
0.00699293
0.00699278
0.00699286
0.00699272
0.00699303
0.00699232
0.00699225
0.00699263
0.00699262
0.00699308
0.00699348
0.00699335
0.00699324
0.00699304
0.00699321
0.0069928
0.00699278
0.00699286
0.00699295
0.00699314
0.00699285
0.00699283
0.00699291
0.00699299
0.00699318
0.00699299
0.00699295
0.00699301
0.00699305
0.00699325
0.00699282
0.00699282
0.006993
0.00699307
0.0069933
0.00699335
0.0069933
0.00699328
0.00699326
0.0069934
0.00699303
0.00699304
0.0069931
0.0069932
0.00699335
0.00699306
0.00699307
0.00699313
0.00699322
0.00699337
0.00699312
0.00699313
0.00699319
0.00699327
0.00699341
0.00699313
0.00699315
0.00699323
0.00699332
0.00699346
0.00699336
0.00699335
0.00699337
0.00699342
0.00699353
0.00699321
0.00699323
0.00699328
0.00699337
0.00699348
0.00699324
0.00699325
0.00699331
0.00699338
0.0069935
0.00699328
0.00699329
0.00699334
0.00699342
0.00699353
0.00699332
0.00699334
0.00699339
0.00699346
0.00699356
0.00699342
0.00699343
0.00699347
0.00699352
0.00699361
0.00699336
0.00699337
0.00699342
0.00699348
0.00699357
0.00699337
0.00699339
0.00699343
0.0069935
0.00699358
0.0069934
0.00699342
0.00699346
0.00699352
0.0069936
0.00699344
0.00699346
0.0069935
0.00699355
0.00699363
0.0069935
0.00699351
0.00699355
0.0069936
0.00699367
0.00699346
0.00699348
0.00699351
0.00699356
0.00699363
0.00699347
0.00699349
0.00699352
0.00699357
0.00699364
0.0069935
0.00699351
0.00699354
0.00699359
0.00699365
0.00699353
0.00699354
0.00699357
0.00699362
0.00699367
0.00699357
0.00699358
0.00699361
0.00699365
0.0069937
0.00699354
0.00699356
0.00699358
0.00699362
0.00699367
0.00699355
0.00699357
0.00699359
0.00699363
0.00699367
0.00699357
0.00699358
0.00699361
0.00699364
0.00699369
0.00699359
0.0069936
0.00699363
0.00699366
0.0069937
0.00699362
0.00699363
0.00699365
0.00699368
0.00699372
0.0069936
0.00699361
0.00699363
0.00699366
0.0069937
0.00699361
0.00699362
0.00699364
0.00699367
0.0069937
0.00699362
0.00699363
0.00699365
0.00699368
0.00699371
0.00699364
0.00699365
0.00699366
0.00699369
0.00699372
0.00699366
0.00699367
0.00699368
0.00699371
0.00699374
0.00699365
0.00699366
0.00699367
0.00699369
0.00699372
0.00699365
0.00699366
0.00699367
0.00699369
0.00699372
0.00699366
0.00699367
0.00699368
0.0069937
0.00699373
0.00699367
0.00699368
0.00699369
0.00699371
0.00699374
0.00699369
0.00699369
0.00699371
0.00699372
0.00699375
0.00699368
0.00699369
0.0069937
0.00699371
0.00699373
0.00699368
0.00699369
0.0069937
0.00699371
0.00699373
0.00699369
0.0069937
0.00699371
0.00699372
0.00699374
0.0069937
0.0069937
0.00699371
0.00699373
0.00699374
0.00699371
0.00699371
0.00699372
0.00699374
0.00699375
0.0069937
0.00699371
0.00699372
0.00699373
0.00699374
0.00699371
0.00699371
0.00699372
0.00699373
0.00699374
0.00699371
0.00699372
0.00699372
0.00699373
0.00699375
0.00699372
0.00699372
0.00699373
0.00699374
0.00699375
0.00699372
0.00699373
0.00699374
0.00699374
0.00699376
0.00699372
0.00699373
0.00699373
0.00699374
0.00699375
0.00699372
0.00699373
0.00699373
0.00699374
0.00699375
0.00699373
0.00699373
0.00699374
0.00699374
0.00699375
0.00699373
0.00699373
0.00699374
0.00699375
0.00699376
0.00699374
0.00699374
0.00699374
0.00699375
0.00699376
0.00699374
0.00699374
0.00699374
0.00699375
0.00699375
0.00699374
0.00699374
0.00699374
0.00699375
0.00699376
0.00699374
0.00699374
0.00699374
0.00699375
0.00699376
0.00699374
0.00699374
0.00699375
0.00699375
0.00699376
0.00699375
0.00699375
0.00699375
0.00699376
0.00699376
0.00699375
0.00699375
0.00699375
0.00699375
0.00699376
0.00699375
0.00699375
0.00699375
0.00699375
0.00699376
0.00699375
0.00699375
0.00699375
0.00699376
0.00699376
0.00699375
0.00699375
0.00699375
0.00699376
0.00699376
0.00699375
0.00699375
0.00699376
0.00699376
0.00699376
0.00699375
0.00699375
0.00699376
0.00699376
0.00699376
0.00699375
0.00699375
0.00699376
0.00699376
0.00699376
0.00699375
0.00699376
0.00699376
0.00699376
0.00699376
0.00699376
0.00699376
0.00699376
0.00699376
0.00699377
0.00699376
0.00699376
0.00699376
0.00699376
0.00699377
0.00699376
0.00699376
0.00699376
0.00699376
0.00699376
0.00699376
0.00699376
0.00699376
0.00699376
0.00699377
0.00699376
0.00699376
0.00699376
0.00699376
0.00699377
0.00699376
0.00699376
0.00699376
0.00699376
0.00699377
0.00699376
0.00699376
0.00699376
0.00699377
0.00699377
0.00699376
0.00699376
0.00699376
0.00699376
0.00699377
0.00699376
0.00699376
0.00699376
0.00699377
0.00699377
0.00699376
0.00699376
0.00699376
0.00699377
0.00699377
0.00699376
0.00699376
0.00699376
0.00699377
0.00699377
0.00699376
0.00699376
0.00699377
0.00699377
0.00699377
0.00699376
0.00699376
0.00699377
0.00699377
0.00699377
0.00699376
0.00699376
0.00699377
0.00699377
0.00699377
0.00699376
0.00699377
0.00699377
0.00699377
0.00699377
0.00699377
0.00699377
0.00699377
0.00699377
0.00699377
0.00699377
0.00699377
0.00699377
0.00699377
0.00699377
0.00699377
0.00699377
0.00699377
0.00699377
0.00699377
0.00699377
0.00699377
0.00699377
0.00699377
0.00699377
0.00699377
0.00699377
0.00699377
0.00699377
0.00699377
0.00699377
0.00699377
0.00699377
0.00699377
0.00699377
0.00699377
0.00699377
0.00699377
0.00699377
0.00699377
0.00699377
0.00699377
0.00699377
0.00699377
0.00699377
0.00699377
0.00699377
0.00699377
0.00699377
0.00699377
0.00699377
0.00699377
0.00699377
0.00699377
0.00699377
0.00699377
0.00699377
0.00699377
0.00699377
0.00699377
0.00699377
0.00699377
0.00699377
0.00699377
0.00699377
0.00699377
0.00699377
0.00699377
0.00699377
0.00699377
0.00699377
0.00699377
0.00699377
0.00699377
0.00699377
0.00699377
0.00699377
0.00699377
0.00699377
0.00699377
0.00699377
0.00699377
0.00699377
0.00699377
0.00699377
0.00699377
0.00699377
0.00699377
0.00699377
0.00699377
0.00699377
0.00699377
0.00699377
0.00699377
0.00699377
0.00699377
0.00699377
0.00699377
0.00699377
0.00699377
0.00699377
0.00699377
0.00699377
0.00699377
0.00699377
0.00699377
0.00699377
0.00699377
0.00699377
0.00699377
0.00699377
0.00699377
0.00699377
0.00699377
0.00699377
0.00699377
0.00699377
0.00699377
0.00699377
0.00699377
0.00699377
0.00699377
0.00699377
0.00699377
0.00699377
0.00699377
0.00699377
0.00699377
0.00699377
0.00699377
0.00699377
0.00699377
0.00699377
0.00699377
0.00699377
0.00699377
0.00699377
0.00699377
0.00699377
0.00699377
0.00699377
0.00699377
0.00699377
0.00699377
0.00699377
0.00699377
0.00699377
0.00699377
0.00699377
0.00699377
0.00699377
0.00699377
0.00699377
0.00699377
0.00699377
0.00699377
0.00699377
0.00699377
0.00699377
0.00699377
0.00699377
0.00699377
0.00699377
0.00699377
0.00699377
0.00699377
0.00699377
0.00699377
0.00699377
0.00699377
0.00699377
0.00699377
0.00699377
0.00699377
0.00699377
0.00699377
0.00699377
0.00699377
0.00699377
0.00699377
0.00699377
0.00699377
0.00699377
0.00699377
0.00699377
0.00699377
0.00699377
0.00699377
0.00699377
0.00699377
0.00699377
0.00699377
0.00699377
0.00699377
0.00699377
0.00699377
0.00699377
0.00699377
0.00699377
0.00699377
0.00699377
0.00699377
0.00699377
0.00699377
0.00699377
0.00699377
0.00699377
0.00699377
0.00699377
0.00699377
0.00699377
0.00699377
0.00699377
0.00699377
0.00699377
0.00699377
0.00699377
0.00699377
0.00699377
0.00699377
0.00699377
0.00699377
0.00699377
0.00699377
0.00699377
0.00699377
0.00699377
0.00699377
0.00699377
0.00699377
0.00699377
0.00699377
0.00699377
0.00699377
0.00699377
0.00699377
0.00699377
0.00699377
0.00699377
0.00699377
0.00699377
0.00699377
0.00699377
0.00699377
0.00699377
0.00699377
0.00699377
0.00699377
0.00699377
0.00699377
0.00699377
0.00699377
0.00699377
0.00699377
0.00699377
0.00699377
0.00699377
0.00699377
0.00699377
0.00699377
0.00699377
0.00699377
0.00699377
0.00699377
0.00699377
0.00699377
0.00699377
0.00699377
0.00699377
0.00699377
0.00699377
0.00699377
0.00699377
0.00699377
0.00699377
0.00699377
0.00699377
0.00699377
0.00699377
0.00699377
0.00699377
0.00699377
0.00699377
0.00699377
0.00699377
0.00699377
0.00699377
0.00699377
0.00699377
0.00699377
0.00699377
0.00699377
0.00699377
0.00699377
0.00699377
0.00699377
0.00699377
0.00699377
0.00699377
0.00699377
0.00699377
0.00699377
0.00699377
0.00699377
0.00699377
0.00699377
0.00699377
0.00699377
0.00699377
0.00699377
0.00699377
0.00699377
0.00699377
0.00699377
0.00699377
0.00699377
0.00699377
0.00699377
0.00699377
0.00699377
0.00699377
0.00699377
0.00699377
0.00699377
0.00699377
0.00699377
0.00699377
0.00699377
0.00699377
0.00699377
0.00699377
0.00699377
0.00699377
0.00699377
0.00699377
0.00699377
0.00699377
0.00699377
0.00699377
0.00699377
0.00699377
0.00699377
0.00699377
0.00699377
0.00699377
0.00699377
0.00699377
0.00699377
0.00699377
0.00699377
0.00699377
0.00699377
0.00699377
0.00699377
0.00699377
0.00699377
0.00699377
0.00699377
0.00699377
0.00699377
0.00699377
0.00699377
0.00699377
0.00699377
0.00699377
0.00699377
0.00699377
0.00699377
0.00699377
0.00699377
0.00699377
0.00699377
0.00699377
0.00699377
0.00699377
0.00699377
0.00699377
0.00699377
0.00699377
0.00699377
0.00699377
0.00699377
0.00699377
0.00699377
0.00699377
0.00699377
0.00699377
0.00699377
0.00699377
0.00699377
)
;

boundaryField
{
    inlet
    {
        type            zeroGradient;
    }
    outlet
    {
        type            fixedValue;
        value           uniform 0;
    }
    repeat_boundary
    {
        type            zeroGradient;
    }
    procBoundary0to1
    {
        type            processor;
        value           nonuniform List<scalar> 
450
(
-3.68154e-10
-3.57882e-10
-3.00667e-10
-1.92481e-10
4.09975e-12
-9.53788e-10
-9.1799e-10
-8.32856e-10
-6.69594e-10
-3.42612e-10
-1.29538e-09
-1.29487e-09
-1.32023e-09
-1.35931e-09
-1.38795e-09
-1.54792e-09
-1.62066e-09
-1.73948e-09
-1.95857e-09
-2.42656e-09
-1.84482e-09
-1.92938e-09
-2.01006e-09
-2.18116e-09
-2.65749e-09
-2.0092e-09
-2.03595e-09
-2.06652e-09
-2.15349e-09
-2.385e-09
-1.83569e-09
-1.84066e-09
-1.96575e-09
-2.16332e-09
-2.32062e-09
-1.45305e-09
-1.53082e-09
-1.83183e-09
-2.23445e-09
-2.52908e-09
-1.17024e-09
-1.34363e-09
-1.73998e-09
-2.25385e-09
-2.74924e-09
-1.02179e-09
-1.23888e-09
-1.66625e-09
-2.24644e-09
-2.90851e-09
-7.21603e-10
-9.79467e-10
-1.52963e-09
-2.28698e-09
-3.08167e-09
-7.00285e-11
-4.48456e-10
-1.24729e-09
-2.29932e-09
-3.33224e-09
8.84972e-10
3.35944e-10
-7.11201e-10
-2.07723e-09
-3.59528e-09
2.14872e-09
1.46868e-09
2.50956e-10
-1.39834e-09
-3.4896e-09
3.97809e-09
3.20788e-09
1.80949e-09
-1.54771e-10
-2.68657e-09
6.70373e-09
5.78484e-09
4.03933e-09
1.57923e-09
-1.45833e-09
1.05528e-08
9.34383e-09
7.01055e-09
3.78233e-09
-7.45718e-11
1.57666e-08
1.41205e-08
1.09522e-08
6.63542e-09
1.61065e-09
2.27931e-08
2.05446e-08
1.6212e-08
1.02869e-08
3.39102e-09
3.22696e-08
2.91755e-08
2.32194e-08
1.49826e-08
5.22334e-09
4.5002e-08
4.07534e-08
3.26198e-08
2.13429e-08
7.93975e-09
6.21806e-08
5.63961e-08
4.53286e-08
2.99751e-08
1.17597e-08
8.56258e-08
7.77616e-08
6.26191e-08
4.15673e-08
1.65922e-08
1.1784e-07
1.07079e-07
8.63258e-08
5.75988e-08
2.37841e-08
1.62026e-07
1.47275e-07
1.19006e-07
8.00948e-08
3.44559e-08
2.22522e-07
2.02477e-07
1.64209e-07
1.11483e-07
4.91984e-08
3.05425e-07
2.78395e-07
2.26768e-07
1.55321e-07
7.0346e-08
4.18895e-07
3.82573e-07
3.13053e-07
2.1634e-07
1.00852e-07
5.73811e-07
5.25123e-07
4.31634e-07
3.00831e-07
1.44002e-07
7.84827e-07
7.19773e-07
5.94598e-07
4.18291e-07
2.0575e-07
1.0716e-06
9.85135e-07
8.19045e-07
5.8253e-07
2.95739e-07
1.46006e-06
1.34548e-06
1.12861e-06
8.12234e-07
4.29096e-07
1.98212e-06
1.82905e-06
1.55677e-06
1.13154e-06
6.31181e-07
2.66899e-06
2.45268e-06
2.1543e-06
1.56087e-06
9.49199e-07
3.53575e-06
3.16391e-06
3.0185e-06
2.05168e-06
1.47279e-06
4.56873e-06
3.80625e-06
4.36278e-06
2.40879e-06
2.36327e-06
5.68235e-06
4.22466e-06
6.47074e-06
2.38184e-06
3.70475e-06
6.02624e-06
3.12858e-06
4.41951e-06
-6.31172e-08
-1.20985e-07
1.78295e-05
1.38207e-05
3.26705e-05
9.85476e-06
2.5023e-05
1.70642e-05
9.41129e-06
-1.23094e-05
-5.35456e-06
-2.53863e-05
6.72162e-06
3.59268e-05
6.32919e-05
-6.57483e-05
8.11291e-06
0.000477098
0.000769766
0.0007281
0.000760366