/*--------------------------------*- C++ -*----------------------------------*\
| =========                 |                                                 |
| \\      /  F ield         | OpenFOAM: The Open Source CFD Toolbox           |
|  \\    /   O peration     | Version:  5.x                                   |
|   \\  /    A nd           | Web:      www.OpenFOAM.org                      |
|    \\/     M anipulation  |                                                 |
\*---------------------------------------------------------------------------*/
FoamFile
{
    version     2.0;
    format      ascii;
    class       surfaceScalarField;
    location    "0.03";
    object      phi;
}
// * * * * * * * * * * * * * * * * * * * * * * * * * * * * * * * * * * * * * //

dimensions      [0 3 -1 0 0 0 0];

internalField   nonuniform List<scalar> 
5825
(
-3.92879e-17
-3.43913e-17
-9.99997e-10
-8.08156e-17
-3.97097e-17
-9.99997e-10
-9.7146e-17
-4.02745e-17
-9.99998e-10
-7.97125e-17
-4.2631e-17
-9.99998e-10
-5.22297e-17
-9.99998e-10
-4.46324e-17
-7.48607e-17
-9.99997e-10
-8.18083e-17
-7.84811e-17
-9.99997e-10
-9.98374e-17
-8.7142e-17
-9.99998e-10
-9.04541e-17
-1.02399e-16
-9.99998e-10
-1.242e-16
-9.99998e-10
-4.77811e-17
-8.81341e-17
-9.99998e-10
-9.05232e-17
-9.34455e-17
-9.99998e-10
-1.14793e-16
-1.11885e-16
-9.99998e-10
-1.13049e-16
-1.41029e-16
-9.99998e-10
-1.80357e-16
-9.99998e-10
-5.27668e-17
-7.87858e-17
-9.99998e-10
-1.09285e-16
-8.81202e-17
-9.99998e-10
-1.43906e-16
-1.20508e-16
-9.99998e-10
-1.54185e-16
-1.65913e-16
-9.99998e-10
-2.2684e-16
-9.99999e-10
-6.01777e-17
-9.99998e-10
-1.392e-16
-9.99998e-10
-1.86742e-16
-9.99998e-10
-2.15302e-16
-9.99999e-10
-9.99999e-10
-1.20087e-16
-1.04565e-16
-9.99997e-10
-2.44021e-16
-1.17602e-16
-9.99997e-10
-3.11456e-16
-1.23752e-16
-9.99997e-10
-3.18651e-16
-1.38053e-16
-9.99998e-10
-1.67404e-16
-9.99998e-10
-1.33126e-16
-2.17804e-16
-9.99997e-10
-2.51813e-16
-2.28848e-16
-9.99997e-10
-3.265e-16
-2.51672e-16
-9.99998e-10
-3.50387e-16
-2.8558e-16
-9.99998e-10
-3.19221e-16
-9.99998e-10
-1.42649e-16
-2.60498e-16
-9.99997e-10
-2.75128e-16
-2.76758e-16
-9.99997e-10
-3.5954e-16
-3.23775e-16
-9.99998e-10
-3.8375e-16
-3.87713e-16
-9.99998e-10
-4.52937e-16
-9.99998e-10
-1.5893e-16
-2.40939e-16
-9.99998e-10
-3.23201e-16
-2.75317e-16
-9.99998e-10
-4.23225e-16
-3.52933e-16
-9.99998e-10
-4.55796e-16
-4.45028e-16
-9.99998e-10
-5.33167e-16
-9.99999e-10
-1.88399e-16
-9.99998e-10
-3.97059e-16
-9.99998e-10
-5.0897e-16
-9.99998e-10
-5.43464e-16
-9.99999e-10
-9.99999e-10
-2.25868e-16
-1.95435e-16
-9.99997e-10
-4.49904e-16
-2.11173e-16
-9.99997e-10
-6.0812e-16
-2.2517e-16
-9.99997e-10
-7.09304e-16
-2.45256e-16
-9.99997e-10
-2.52751e-16
-9.99998e-10
-2.41595e-16
-3.8584e-16
-9.99997e-10
-4.66332e-16
-4.02694e-16
-9.99997e-10
-6.30047e-16
-4.30443e-16
-9.99997e-10
-7.17203e-16
-4.58958e-16
-9.99998e-10
-4.7114e-16
-9.99998e-10
-2.57189e-16
-4.81725e-16
-9.99997e-10
-4.94546e-16
-5.072e-16
-9.99997e-10
-6.5784e-16
-5.64987e-16
-9.99997e-10
-7.27774e-16
-6.35275e-16
-9.99998e-10
-7.0041e-16
-9.99998e-10
-2.81823e-16
-4.93115e-16
-9.99997e-10
-5.52756e-16
-5.41661e-16
-9.99997e-10
-7.28058e-16
-6.30481e-16
-9.99998e-10
-8.03834e-16
-7.43486e-16
-9.99998e-10
-8.94351e-16
-9.99998e-10
-3.29365e-16
-9.99998e-10
-6.42046e-16
-9.99998e-10
-8.27425e-16
-9.99998e-10
-9.45261e-16
-9.99998e-10
-9.99999e-10
-3.60627e-16
-3.10401e-16
-9.99996e-10
-7.07051e-16
-3.23204e-16
-9.99996e-10
-9.75584e-16
-3.38616e-16
-9.99997e-10
-1.13637e-15
-3.46485e-16
-9.99997e-10
-3.17995e-16
-9.99997e-10
-3.73138e-16
-5.97467e-16
-9.99996e-10
-7.26815e-16
-6.1974e-16
-9.99996e-10
-9.87962e-16
-6.44538e-16
-9.99997e-10
-1.11183e-15
-6.6172e-16
-9.99997e-10
-6.68189e-16
-9.99998e-10
-3.91798e-16
-7.81347e-16
-9.99997e-10
-7.51885e-16
-8.11899e-16
-9.99997e-10
-1.00456e-15
-8.66345e-16
-9.99997e-10
-1.11864e-15
-9.3284e-16
-9.99997e-10
-1.01644e-15
-9.99998e-10
-4.17573e-16
-8.56669e-16
-9.99997e-10
-8.0639e-16
-9.06148e-16
-9.99997e-10
-1.07078e-15
-9.92413e-16
-9.99997e-10
-1.21518e-15
-1.12407e-15
-9.99998e-10
-1.39198e-15
-9.99998e-10
-4.63288e-16
-9.99997e-10
-8.91515e-16
-9.99998e-10
-1.18976e-15
-9.99998e-10
-1.47968e-15
-9.99998e-10
-9.99999e-10
-5.26136e-16
-4.56146e-16
-9.99995e-10
-1.0253e-15
-4.65045e-16
-9.99995e-10
-1.41138e-15
-4.79991e-16
-9.99996e-10
-1.59628e-15
-4.81511e-16
-9.99996e-10
-4.6754e-16
-9.99997e-10
-5.34505e-16
-8.79218e-16
-9.99995e-10
-1.04638e-15
-9.07103e-16
-9.99996e-10
-1.41922e-15
-9.35342e-16
-9.99996e-10
-1.58884e-15
-9.6441e-16
-9.99997e-10
-1.00378e-15
-9.99997e-10
-5.5604e-16
-1.18079e-15
-9.99996e-10
-1.07492e-15
-1.21145e-15
-9.99996e-10
-1.4477e-15
-1.27005e-15
-9.99996e-10
-1.62886e-15
-1.34891e-15
-9.99997e-10
-1.45465e-15
-9.99998e-10
-5.80636e-16
-1.32075e-15
-9.99996e-10
-1.1337e-15
-1.36411e-15
-9.99996e-10
-1.52647e-15
-1.46129e-15
-9.99997e-10
-1.74877e-15
-1.62324e-15
-9.99998e-10
-1.95305e-15
-9.99998e-10
-6.19053e-16
-9.99997e-10
-1.22978e-15
-9.99997e-10
-1.67253e-15
-9.99998e-10
-2.08141e-15
-9.99998e-10
-9.99999e-10
-7.45479e-16
-6.57114e-16
-9.99994e-10
-1.44346e-15
-6.66688e-16
-9.99994e-10
-1.98475e-15
-6.86294e-16
-9.99995e-10
-2.25782e-15
-7.01135e-16
-9.99995e-10
-7.36863e-16
-9.99997e-10
-7.54461e-16
-1.26366e-15
-9.99994e-10
-1.46851e-15
-1.2927e-15
-9.99994e-10
-2.00608e-15
-1.33104e-15
-9.99995e-10
-2.30025e-15
-1.38208e-15
-9.99996e-10
-1.44187e-15
-9.99997e-10
-7.7787e-16
-1.70492e-15
-9.99995e-10
-1.50729e-15
-1.73385e-15
-9.99995e-10
-2.05651e-15
-1.80621e-15
-9.99996e-10
-2.35787e-15
-1.89341e-15
-9.99996e-10
-1.96811e-15
-9.99997e-10
-8.01328e-16
-1.90286e-15
-9.99995e-10
-1.58053e-15
-1.96076e-15
-9.99996e-10
-2.14346e-15
-2.08246e-15
-9.99996e-10
-2.43852e-15
-2.22991e-15
-9.99997e-10
-2.47342e-15
-9.99998e-10
-8.53198e-16
-9.99996e-10
-1.70391e-15
-9.99997e-10
-2.28303e-15
-9.99997e-10
-2.67576e-15
-9.99998e-10
-9.99999e-10
-1.05169e-15
-9.43883e-16
-9.99992e-10
-2.01196e-15
-9.53443e-16
-9.99992e-10
-2.78299e-15
-9.74996e-16
-9.99993e-10
-3.26627e-15
-1.00208e-15
-9.99994e-10
-1.04908e-15
-9.99996e-10
-1.06103e-15
-1.7882e-15
-9.99992e-10
-2.03848e-15
-1.81125e-15
-9.99993e-10
-2.81754e-15
-1.84904e-15
-9.99993e-10
-3.32097e-15
-1.89561e-15
-9.99995e-10
-1.92061e-15
-9.99996e-10
-1.07939e-15
-2.41798e-15
-9.99993e-10
-2.07702e-15
-2.44822e-15
-9.99993e-10
-2.86328e-15
-2.51923e-15
-9.99994e-10
-3.34219e-15
-2.58148e-15
-9.99995e-10
-2.57963e-15
-9.99996e-10
-1.10374e-15
-2.74257e-15
-9.99994e-10
-2.14985e-15
-2.82824e-15
-9.99994e-10
-2.92462e-15
-2.94379e-15
-9.99995e-10
-3.34428e-15
-3.02679e-15
-9.99996e-10
-3.1034e-15
-9.99997e-10
-1.179e-15
-9.99995e-10
-2.26763e-15
-9.99996e-10
-3.00429e-15
-9.99996e-10
-3.42055e-15
-9.99997e-10
-9.99998e-10
-1.45676e-15
-1.32934e-15
-9.99989e-10
-2.76887e-15
-1.33204e-15
-9.9999e-10
-3.85207e-15
-1.34296e-15
-9.99991e-10
-4.60404e-15
-1.36076e-15
-9.99992e-10
-1.36602e-15
-9.99994e-10
-1.45931e-15
-2.50322e-15
-9.9999e-10
-2.78676e-15
-2.51671e-15
-9.9999e-10
-3.88011e-15
-2.53532e-15
-9.99991e-10
-4.61969e-15
-2.54689e-15
-9.99993e-10
-2.52139e-15
-9.99994e-10
-1.46643e-15
-3.42129e-15
-9.99991e-10
-2.80618e-15
-3.4514e-15
-9.99991e-10
-3.89127e-15
-3.48836e-15
-9.99992e-10
-4.58981e-15
-3.49953e-15
-9.99993e-10
-3.46887e-15
-9.99995e-10
-1.48819e-15
-4.00182e-15
-9.99992e-10
-2.84444e-15
-4.07123e-15
-9.99993e-10
-3.90223e-15
-4.12174e-15
-9.99993e-10
-4.55148e-15
-4.14046e-15
-9.99995e-10
-4.17174e-15
-9.99996e-10
-1.54481e-15
-9.99994e-10
-2.89583e-15
-9.99994e-10
-3.92581e-15
-9.99995e-10
-4.58406e-15
-9.99996e-10
-9.99998e-10
-1.96852e-15
-1.82622e-15
-9.99985e-10
-3.76352e-15
-1.82101e-15
-9.99986e-10
-5.24286e-15
-1.81709e-15
-9.99987e-10
-6.24873e-15
-1.81677e-15
-9.99989e-10
-1.78946e-15
-9.99991e-10
-1.96322e-15
-3.47721e-15
-9.99986e-10
-3.77018e-15
-3.4856e-15
-9.99987e-10
-5.25576e-15
-3.47997e-15
-9.99988e-10
-6.23616e-15
-3.45692e-15
-9.9999e-10
-3.40861e-15
-9.99992e-10
-1.96182e-15
-4.80751e-15
-9.99987e-10
-3.76487e-15
-4.82801e-15
-9.99988e-10
-5.23208e-15
-4.81302e-15
-9.99989e-10
-6.18605e-15
-4.77007e-15
-9.99991e-10
-4.72469e-15
-9.99993e-10
-1.9706e-15
-5.71196e-15
-9.99989e-10
-3.75019e-15
-5.7186e-15
-9.9999e-10
-5.18941e-15
-5.67834e-15
-9.99991e-10
-6.13644e-15
-5.63223e-15
-9.99993e-10
-5.6541e-15
-9.99995e-10
-1.96202e-15
-9.99991e-10
-3.70928e-15
-9.99992e-10
-5.14662e-15
-9.99993e-10
-6.15746e-15
-9.99995e-10
-9.99997e-10
-2.6446e-15
-2.48792e-15
-9.9998e-10
-5.10419e-15
-2.48707e-15
-9.99981e-10
-7.09453e-15
-2.47879e-15
-9.99983e-10
-8.38339e-15
-2.46955e-15
-9.99986e-10
-2.45091e-15
-9.99989e-10
-2.64371e-15
-4.80124e-15
-9.99981e-10
-5.1096e-15
-4.81116e-15
-9.99982e-10
-7.10196e-15
-4.78634e-15
-9.99984e-10
-8.38574e-15
-4.73897e-15
-9.99987e-10
-4.67603e-15
-9.9999e-10
-2.64044e-15
-6.66145e-15
-9.99983e-10
-5.0846e-15
-6.66619e-15
-9.99984e-10
-7.05363e-15
-6.60495e-15
-9.99986e-10
-8.3244e-15
-6.50646e-15
-9.99988e-10
-6.38944e-15
-9.99991e-10
-2.62909e-15
-7.89395e-15
-9.99985e-10
-5.02367e-15
-7.85895e-15
-9.99986e-10
-6.95574e-15
-7.74936e-15
-9.99988e-10
-8.2097e-15
-7.60593e-15
-9.99991e-10
-7.44988e-15
-9.99994e-10
-2.57369e-15
-9.99988e-10
-4.912e-15
-9.99989e-10
-6.81056e-15
-9.99991e-10
-8.05375e-15
-9.99993e-10
-9.99996e-10
-3.60201e-15
-3.41456e-15
-9.99973e-10
-6.95494e-15
-3.42744e-15
-9.99975e-10
-9.62905e-15
-3.41696e-15
-9.99977e-10
-1.1343e-14
-3.39598e-15
-9.99981e-10
-3.37484e-15
-9.99985e-10
-3.61477e-15
-6.59273e-15
-9.99975e-10
-6.96176e-15
-6.59893e-15
-9.99976e-10
-9.63007e-15
-6.54877e-15
-9.99978e-10
-1.13498e-14
-6.46774e-15
-9.99982e-10
-6.36367e-15
-9.99986e-10
-3.6037e-15
-9.11951e-15
-9.99977e-10
-6.91141e-15
-9.10735e-15
-9.99978e-10
-9.54819e-15
-9.00611e-15
-9.99981e-10
-1.12486e-14
-8.85622e-15
-9.99984e-10
-8.65463e-15
-9.99988e-10
-3.56944e-15
-1.0749e-14
-9.9998e-10
-6.81086e-15
-1.07103e-14
-9.99982e-10
-9.39857e-15
-1.05576e-14
-9.99984e-10
-1.106e-14
-1.03394e-14
-9.99988e-10
-1.00312e-14
-9.99992e-10
-3.50311e-15
-9.99984e-10
-6.65461e-15
-9.99986e-10
-9.16914e-15
-9.99988e-10
-1.07616e-14
-9.99991e-10
-9.99995e-10
-4.96133e-15
-4.70984e-15
-9.99964e-10
-9.49486e-15
-4.7201e-15
-9.99966e-10
-1.30962e-14
-4.69108e-15
-9.99969e-10
-1.5431e-14
-4.63817e-15
-9.99974e-10
-4.56529e-15
-9.99979e-10
-4.97168e-15
-9.00142e-15
-9.99965e-10
-9.48846e-15
-8.98632e-15
-9.99967e-10
-1.30739e-14
-8.89957e-15
-9.99971e-10
-1.5394e-14
-8.7747e-15
-9.99975e-10
-8.62318e-15
-9.99981e-10
-4.93419e-15
-1.24096e-14
-9.99969e-10
-9.40178e-15
-1.23776e-14
-9.99971e-10
-1.29495e-14
-1.2241e-14
-9.99974e-10
-1.52448e-14
-1.20615e-14
-9.99979e-10
-1.18522e-14
-9.99984e-10
-4.87212e-15
-1.46076e-14
-9.99973e-10
-9.26516e-15
-1.45643e-14
-9.99975e-10
-1.27706e-14
-1.43926e-14
-9.99978e-10
-1.50433e-14
-1.4175e-14
-9.99983e-10
-1.38649e-14
-9.99989e-10
-4.79252e-15
-9.99979e-10
-9.09005e-15
-9.9998e-10
-1.2544e-14
-9.99984e-10
-1.47373e-14
-9.99989e-10
-9.99994e-10
-6.81244e-15
-6.45829e-15
-9.99951e-10
-1.29384e-14
-6.44268e-15
-9.99953e-10
-1.78103e-14
-6.38805e-15
-9.99958e-10
-2.09729e-14
-6.30233e-15
-9.99964e-10
-6.1769e-15
-9.99972e-10
-6.79733e-15
-1.22463e-14
-9.99953e-10
-1.29144e-14
-1.22083e-14
-9.99955e-10
-1.77673e-14
-1.20964e-14
-9.9996e-10
-2.08966e-14
-1.19464e-14
-9.99967e-10
-1.17774e-14
-9.99974e-10
-6.72965e-15
-1.68763e-14
-9.99957e-10
-1.28026e-14
-1.68365e-14
-9.9996e-10
-1.76191e-14
-1.66838e-14
-9.99965e-10
-2.07293e-14
-1.64932e-14
-9.99971e-10
-1.62942e-14
-9.99979e-10
-6.6491e-15
-1.98784e-14
-9.99964e-10
-1.26487e-14
-1.98467e-14
-9.99966e-10
-1.74289e-14
-1.96765e-14
-9.99971e-10
-2.05287e-14
-1.94564e-14
-9.99977e-10
-1.91225e-14
-9.99985e-10
-6.56845e-15
-9.99971e-10
-1.24758e-14
-9.99973e-10
-1.72101e-14
-9.99978e-10
-2.01929e-14
-9.99985e-10
-9.99992e-10
-9.28321e-15
-8.79103e-15
-9.99932e-10
-1.76243e-14
-8.76066e-15
-9.99936e-10
-2.42519e-14
-8.70079e-15
-9.99942e-10
-2.8517e-14
-8.60872e-15
-9.99951e-10
-8.47982e-15
-9.99962e-10
-9.25387e-15
-1.66793e-14
-9.99936e-10
-1.76064e-14
-1.6647e-14
-9.99939e-10
-2.42175e-14
-1.6534e-14
-9.99946e-10
-2.8457e-14
-1.6381e-14
-9.99955e-10
-1.62183e-14
-9.99965e-10
-9.18156e-15
-2.30185e-14
-9.99942e-10
-1.7493e-14
-2.29991e-14
-9.99945e-10
-2.4066e-14
-2.28396e-14
-9.99952e-10
-2.82985e-14
-2.26222e-14
-9.99961e-10
-2.23845e-14
-9.99971e-10
-9.10763e-15
-2.71453e-14
-9.9995e-10
-1.73312e-14
-2.71482e-14
-9.99954e-10
-2.38481e-14
-2.69562e-14
-9.9996e-10
-2.80556e-14
-2.66628e-14
-9.99969e-10
-2.61863e-14
-9.9998e-10
-9.04463e-15
-9.99961e-10
-1.71352e-14
-9.99964e-10
-2.35607e-14
-9.9997e-10
-2.75778e-14
-9.99979e-10
-9.9999e-10
-1.26355e-14
-1.19691e-14
-9.99908e-10
-2.40587e-14
-1.19622e-14
-9.99912e-10
-3.30972e-14
-1.19114e-14
-9.99921e-10
-3.8875e-14
-1.18202e-14
-9.99934e-10
-1.17058e-14
-9.99948e-10
-1.263e-14
-2.27989e-14
-9.99912e-10
-2.40641e-14
-2.27934e-14
-9.99917e-10
-3.30825e-14
-2.26705e-14
-9.99926e-10
-3.88536e-14
-2.2496e-14
-9.99938e-10
-2.23218e-14
-9.99952e-10
-1.25708e-14
-3.14767e-14
-9.99921e-10
-2.39403e-14
-3.14752e-14
-9.99925e-10
-3.29086e-14
-3.12747e-14
-9.99934e-10
-3.86858e-14
-3.09966e-14
-9.99946e-10
-3.0697e-14
-9.99961e-10
-1.2496e-14
-3.71196e-14
-9.99932e-10
-2.37367e-14
-3.711e-14
-9.99937e-10
-3.26295e-14
-3.68394e-14
-9.99946e-10
-3.83905e-14
-3.64647e-14
-9.99958e-10
-3.59552e-14
-9.99972e-10
-1.23998e-14
-9.99946e-10
-2.34618e-14
-9.99951e-10
-3.22525e-14
-9.99959e-10
-3.78814e-14
-9.99972e-10
-9.99986e-10
-1.72626e-14
-1.63735e-14
-9.99874e-10
-3.28866e-14
-1.63974e-14
-9.99881e-10
-4.52091e-14
-1.63279e-14
-9.99893e-10
-5.30821e-14
-1.62031e-14
-9.99909e-10
-1.60657e-14
-9.99929e-10
-1.72883e-14
-3.12148e-14
-9.9988e-10
-3.28915e-14
-3.12123e-14
-9.99887e-10
-4.51864e-14
-3.10347e-14
-9.99899e-10
-5.30682e-14
-3.07944e-14
-9.99915e-10
-3.05601e-14
-9.99935e-10
-1.72144e-14
-4.30293e-14
-9.99892e-10
-3.2713e-14
-4.30019e-14
-9.99898e-10
-4.49471e-14
-4.27193e-14
-9.9991e-10
-5.28398e-14
-4.2362e-14
-9.99927e-10
-4.199e-14
-9.99946e-10
-1.70879e-14
-5.06439e-14
-9.99908e-10
-3.24264e-14
-5.05704e-14
-9.99914e-10
-4.4589e-14
-5.02066e-14
-9.99926e-10
-5.24736e-14
-4.9778e-14
-9.99943e-10
-4.92755e-14
-9.99962e-10
-1.68994e-14
-9.99927e-10
-3.20594e-14
-9.99933e-10
-4.41562e-14
-9.99945e-10
-5.1971e-14
-9.99961e-10
-9.9998e-10
-2.36286e-14
-2.24452e-14
-9.99828e-10
-4.49272e-14
-2.24572e-14
-9.99837e-10
-6.17384e-14
-2.23225e-14
-9.99854e-10
-7.25174e-14
-2.21295e-14
-9.99876e-10
-2.19326e-14
-9.99903e-10
-2.36429e-14
-4.26967e-14
-9.99836e-10
-4.48917e-14
-4.26571e-14
-9.99845e-10
-6.16836e-14
-4.2393e-14
-9.99862e-10
-7.24864e-14
-4.20636e-14
-9.99885e-10
-4.172e-14
-9.99912e-10
-2.35079e-14
-5.87519e-14
-9.99852e-10
-4.46271e-14
-5.86803e-14
-9.99861e-10
-6.13568e-14
-5.83142e-14
-9.99877e-10
-7.21472e-14
-5.78696e-14
-9.999e-10
-5.73707e-14
-9.99927e-10
-2.33024e-14
-6.90306e-14
-9.99874e-10
-4.42564e-14
-6.89279e-14
-9.99883e-10
-6.09118e-14
-6.84972e-14
-9.99899e-10
-7.16512e-14
-6.79923e-14
-9.99922e-10
-6.73763e-14
-9.99948e-10
-2.30441e-14
-9.999e-10
-4.38227e-14
-9.99908e-10
-6.04047e-14
-9.99925e-10
-7.10347e-14
-9.99947e-10
-9.99973e-10
-3.23056e-14
-3.07266e-14
-9.99765e-10
-6.1343e-14
-3.0686e-14
-9.99777e-10
-8.43436e-14
-3.04718e-14
-9.998e-10
-9.91441e-14
-3.02081e-14
-9.99831e-10
-2.99331e-14
-9.99868e-10
-3.22682e-14
-5.83521e-14
-9.99777e-10
-6.12634e-14
-5.82723e-14
-9.99788e-10
-8.42691e-14
-5.79184e-14
-9.99811e-10
-9.90938e-14
-5.74721e-14
-9.99843e-10
-5.69491e-14
-9.9988e-10
-3.20593e-14
-8.02505e-14
-9.99798e-10
-6.09094e-14
-8.01642e-14
-9.9981e-10
-8.38275e-14
-7.97046e-14
-9.99833e-10
-9.85743e-14
-7.9102e-14
-9.99864e-10
-7.83724e-14
-9.99901e-10
-3.17901e-14
-9.42716e-14
-9.99828e-10
-6.0444e-14
-9.41827e-14
-9.9984e-10
-8.32255e-14
-9.36597e-14
-9.99862e-10
-9.78444e-14
-9.29665e-14
-9.99893e-10
-9.21085e-14
-9.9993e-10
-3.14883e-14
-9.99864e-10
-5.99177e-14
-9.99875e-10
-8.25322e-14
-9.99897e-10
-9.69859e-14
-9.99928e-10
-9.99964e-10
-4.41303e-14
-4.20169e-14
-9.99679e-10
-8.38335e-14
-4.19353e-14
-9.99695e-10
-1.15371e-13
-4.16528e-14
-9.99727e-10
-1.35683e-13
-4.12957e-14
-9.9977e-10
-4.08724e-14
-9.99821e-10
-4.40529e-14
-7.98041e-14
-9.99695e-10
-8.3736e-14
-7.97055e-14
-9.99711e-10
-1.15274e-13
-7.92192e-14
-9.99742e-10
-1.35565e-13
-7.85439e-14
-9.99785e-10
-7.77011e-14
-9.99836e-10
-4.3777e-14
-1.0977e-13
-9.99725e-10
-8.32498e-14
-1.09665e-13
-9.99741e-10
-1.14606e-13
-1.09005e-13
-9.99772e-10
-1.34727e-13
-1.08064e-13
-9.99814e-10
-1.06914e-13
-9.99864e-10
-4.34208e-14
-1.28949e-13
-9.99766e-10
-8.25829e-14
-1.28827e-13
-9.99782e-10
-1.13667e-13
-1.28072e-13
-9.99812e-10
-1.33575e-13
-1.26966e-13
-9.99854e-10
-1.25615e-13
-9.99904e-10
-4.30064e-14
-9.99814e-10
-8.18228e-14
-9.9983e-10
-1.12561e-13
-9.9986e-10
-1.32224e-13
-9.99901e-10
-9.9995e-10
-6.03458e-14
-5.75136e-14
-9.99561e-10
-1.14738e-13
-5.74193e-14
-9.99583e-10
-1.57958e-13
-5.70257e-14
-9.99626e-10
-1.8576e-13
-5.64684e-14
-9.99686e-10
-5.57702e-14
-9.99755e-10
-6.02569e-14
-1.09292e-13
-9.99583e-10
-1.14599e-13
-1.09143e-13
-9.99605e-10
-1.57757e-13
-1.08384e-13
-9.99648e-10
-1.85478e-13
-1.07294e-13
-9.99707e-10
-1.05968e-13
-9.99776e-10
-5.9864e-14
-1.50293e-13
-9.99624e-10
-1.1384e-13
-1.50078e-13
-9.99646e-10
-1.56678e-13
-1.49027e-13
-9.99688e-10
-1.84159e-13
-1.47531e-13
-9.99747e-10
-1.45744e-13
-9.99815e-10
-5.93066e-14
-1.76443e-13
-9.9968e-10
-1.12782e-13
-1.76193e-13
-9.99702e-10
-1.55182e-13
-1.74994e-13
-9.99744e-10
-1.82367e-13
-1.73224e-13
-9.99801e-10
-1.71111e-13
-9.99869e-10
-5.86553e-14
-9.99746e-10
-1.11575e-13
-9.99768e-10
-1.53415e-13
-9.99809e-10
-1.80255e-13
-9.99865e-10
-9.99932e-10
-8.26469e-14
-7.88656e-14
-9.994e-10
-1.5715e-13
-7.87203e-14
-9.9943e-10
-2.16304e-13
-7.80859e-14
-9.99489e-10
-2.54321e-13
-7.71813e-14
-9.9957e-10
-7.60966e-14
-9.99666e-10
-8.25089e-14
-1.49819e-13
-9.99429e-10
-1.56864e-13
-1.49514e-13
-9.9946e-10
-2.15887e-13
-1.48293e-13
-9.99518e-10
-2.53805e-13
-1.46597e-13
-9.99599e-10
-1.44615e-13
-9.99694e-10
-8.187e-14
-2.05897e-13
-9.99486e-10
-1.55643e-13
-2.05461e-13
-9.99516e-10
-2.14204e-13
-2.03807e-13
-9.99574e-10
-2.51832e-13
-2.01513e-13
-9.99654e-10
-1.98837e-13
-9.99748e-10
-8.09678e-14
-2.41589e-13
-9.99563e-10
-1.53979e-13
-2.41122e-13
-9.99593e-10
-2.11909e-13
-2.39211e-13
-9.9965e-10
-2.49145e-13
-2.36511e-13
-9.99729e-10
-2.33421e-13
-9.99821e-10
-7.99529e-14
-9.99655e-10
-1.52057e-13
-9.99684e-10
-2.09217e-13
-9.9974e-10
-2.46057e-13
-9.99817e-10
-9.99908e-10
-1.13262e-13
-1.08265e-13
-9.99178e-10
-2.15286e-13
-1.07971e-13
-9.9922e-10
-2.96278e-13
-1.06951e-13
-9.99301e-10
-3.48329e-13
-1.05558e-13
-9.99413e-10
-1.03943e-13
-9.99544e-10
-1.12977e-13
-2.05538e-13
-9.99219e-10
-2.14742e-13
-2.04972e-13
-9.99261e-10
-2.95549e-13
-2.03081e-13
-9.99341e-10
-3.47493e-13
-2.00508e-13
-9.99452e-10
-1.97524e-13
-9.99583e-10
-1.11953e-13
-2.82356e-13
-9.99297e-10
-2.12852e-13
-2.81601e-13
-9.99338e-10
-2.92992e-13
-2.79035e-13
-9.99418e-10
-3.44521e-13
-2.75511e-13
-9.99527e-10
-2.71387e-13
-9.99656e-10
-1.1056e-13
-3.31245e-13
-9.99404e-10
-2.10273e-13
-3.30392e-13
-9.99445e-10
-2.89465e-13
-3.27347e-13
-9.99523e-10
-3.40385e-13
-3.23182e-13
-9.9963e-10
-3.18391e-13
-9.99757e-10
-1.08958e-13
-9.99529e-10
-2.07214e-13
-9.99569e-10
-2.85311e-13
-9.99646e-10
-3.35594e-13
-9.99751e-10
-9.99874e-10
-1.55263e-13
-1.48758e-13
-9.98874e-10
-2.95092e-13
-1.48239e-13
-9.98932e-10
-4.06116e-13
-1.46681e-13
-9.99043e-10
-4.77479e-13
-1.44571e-13
-9.99197e-10
-1.42126e-13
-9.99377e-10
-1.54756e-13
-2.82323e-13
-9.9893e-10
-2.94185e-13
-2.8138e-13
-9.98988e-10
-4.04912e-13
-2.78484e-13
-9.99099e-10
-4.761e-13
-2.74533e-13
-9.99251e-10
-2.69895e-13
-9.9943e-10
-1.53185e-13
-3.87731e-13
-9.99038e-10
-2.91289e-13
-3.86461e-13
-9.99095e-10
-4.00979e-13
-3.82463e-13
-9.99204e-10
-4.71483e-13
-3.76976e-13
-9.99354e-10
-3.70484e-13
-9.99531e-10
-1.51043e-13
-4.54705e-13
-9.99186e-10
-2.87274e-13
-4.53166e-13
-9.99242e-10
-3.95488e-13
-4.48384e-13
-9.99349e-10
-4.64988e-13
-4.41873e-13
-9.99496e-10
-4.34202e-13
-9.99669e-10
-1.4848e-13
-9.99359e-10
-2.82471e-13
-9.99413e-10
-3.8898e-13
-9.99518e-10
-4.57318e-13
-9.99661e-10
-9.9983e-10
-2.13008e-13
-2.04696e-13
-9.98456e-10
-4.04853e-13
-2.03863e-13
-9.98536e-10
-5.57148e-13
-2.01486e-13
-9.9869e-10
-6.55072e-13
-1.9824e-13
-9.98901e-10
-1.94443e-13
-9.99149e-10
-2.1219e-13
-3.88391e-13
-9.98534e-10
-4.03367e-13
-3.8684e-13
-9.98614e-10
-5.5514e-13
-3.82359e-13
-9.98766e-10
-6.5273e-13
-3.76227e-13
-9.98975e-10
-3.68996e-13
-9.99222e-10
-2.09779e-13
-5.33124e-13
-9.98684e-10
-3.98886e-13
-5.30986e-13
-9.98762e-10
-5.49031e-13
-5.24775e-13
-9.98912e-10
-6.45528e-13
-5.16278e-13
-9.99118e-10
-5.06279e-13
-9.9936e-10
-2.06448e-13
-6.24725e-13
-9.98888e-10
-3.92652e-13
-6.22143e-13
-9.98965e-10
-5.40531e-13
-6.14775e-13
-9.99111e-10
-6.35536e-13
-6.04734e-13
-9.99312e-10
-5.92991e-13
-9.99549e-10
-2.02468e-13
-9.99126e-10
-3.85256e-13
-9.99201e-10
-5.30482e-13
-9.99343e-10
-6.23791e-13
-9.99539e-10
-9.9977e-10
-2.92558e-13
-2.82193e-13
-9.97881e-10
-5.55966e-13
-2.8084e-13
-9.97992e-10
-7.6495e-13
-2.77172e-13
-9.98203e-10
-8.99343e-13
-2.72155e-13
-9.98494e-10
-2.66263e-13
-9.98835e-10
-2.91224e-13
-5.35192e-13
-9.9799e-10
-5.53517e-13
-5.32641e-13
-9.981e-10
-7.61622e-13
-5.25696e-13
-9.98309e-10
-8.95434e-13
-5.1622e-13
-9.98597e-10
-5.05123e-13
-9.98936e-10
-2.87497e-13
-7.34049e-13
-9.98197e-10
-5.46574e-13
-7.30526e-13
-9.98305e-10
-7.52176e-13
-7.20928e-13
-9.98511e-10
-8.84369e-13
-7.07877e-13
-9.98794e-10
-6.9266e-13
-9.99126e-10
-2.82343e-13
-8.59298e-13
-9.9848e-10
-5.36949e-13
-8.55117e-13
-9.98585e-10
-7.39125e-13
-8.43779e-13
-9.98786e-10
-8.69159e-13
-8.2836e-13
-9.99062e-10
-8.10453e-13
-9.99386e-10
-2.76254e-13
-9.9881e-10
-5.25577e-13
-9.98912e-10
-7.23693e-13
-9.99106e-10
-8.51244e-13
-9.99373e-10
-9.99688e-10
-4.02312e-13
-3.89832e-13
-9.97089e-10
-7.64275e-13
-3.87633e-13
-9.97242e-10
-1.05113e-12
-3.81962e-13
-9.97534e-10
-1.23551e-12
-3.74249e-13
-9.97935e-10
-3.65267e-13
-9.98405e-10
-4.0014e-13
-7.38894e-13
-9.97241e-10
-7.60274e-13
-7.34738e-13
-9.97392e-10
-1.04573e-12
-7.23987e-13
-9.97682e-10
-1.22923e-12
-7.09448e-13
-9.98079e-10
-6.92563e-13
-9.98544e-10
-3.94373e-13
-1.01238e-12
-9.97529e-10
-7.49534e-13
-1.00663e-12
-9.97678e-10
-1.03123e-12
-9.91811e-13
-9.97961e-10
-1.21237e-12
-9.71788e-13
-9.9835e-10
-9.48536e-13
-9.98807e-10
-3.86394e-13
-1.18356e-12
-9.97923e-10
-7.34689e-13
-1.17676e-12
-9.98067e-10
-1.01121e-12
-1.15921e-12
-9.98342e-10
-1.18911e-12
-1.13545e-12
-9.9872e-10
-1.10782e-12
-9.99164e-10
-3.76994e-13
-9.9838e-10
-7.17114e-13
-9.98519e-10
-9.87441e-13
-9.98784e-10
-1.16146e-12
-9.99149e-10
-9.99578e-10
-5.54181e-13
-5.39894e-13
-9.95995e-10
-1.05201e-12
-5.36317e-13
-9.96208e-10
-1.44576e-12
-5.27512e-13
-9.96613e-10
-1.69852e-12
-5.15724e-13
-9.97167e-10
-5.02127e-13
-9.97814e-10
-5.50645e-13
-1.0225e-12
-9.96208e-10
-1.0455e-12
-1.01568e-12
-9.96418e-10
-1.43712e-12
-9.99035e-13
-9.96819e-10
-1.68859e-12
-9.76782e-13
-9.97366e-10
-9.51148e-13
-9.98007e-10
-5.41632e-13
-1.39898e-12
-9.96611e-10
-1.02889e-12
-1.38957e-12
-9.96817e-10
-1.41492e-12
-1.36663e-12
-9.97208e-10
-1.66297e-12
-1.3359e-12
-9.97743e-10
-1.30047e-12
-9.98371e-10
-5.29185e-13
-1.6326e-12
-9.9716e-10
-1.00593e-12
-1.62148e-12
-9.97358e-10
-1.3842e-12
-1.59426e-12
-9.97736e-10
-1.62748e-12
-1.55774e-12
-9.98255e-10
-1.5156e-12
-9.98864e-10
-5.14533e-13
-9.97794e-10
-9.78702e-13
-9.97984e-10
-1.34771e-12
-9.98347e-10
-1.5853e-12
-9.98846e-10
-9.99433e-10
-7.65259e-13
-7.50023e-13
-9.9448e-10
-1.45053e-12
-7.44056e-13
-9.94779e-10
-1.9907e-12
-7.3034e-13
-9.95343e-10
-2.33641e-12
-7.12349e-13
-9.96109e-10
-6.91854e-13
-9.97e-10
-7.59376e-13
-1.41893e-12
-9.94779e-10
-1.43998e-12
-1.40762e-12
-9.95074e-10
-1.97702e-12
-1.3817e-12
-9.9563e-10
-2.32088e-12
-1.34762e-12
-9.96387e-10
-1.30891e-12
-9.97269e-10
-7.45104e-13
-1.93782e-12
-9.95347e-10
-1.41415e-12
-1.92226e-12
-9.95633e-10
-1.94302e-12
-1.8865e-12
-9.96174e-10
-2.2821e-12
-1.83939e-12
-9.96912e-10
-1.78585e-12
-9.97775e-10
-7.25453e-13
-2.25614e-12
-9.96116e-10
-1.37844e-12
-2.23782e-12
-9.9639e-10
-1.89593e-12
-2.19544e-12
-9.96909e-10
-2.2284e-12
-2.13943e-12
-9.97622e-10
-2.07569e-12
-9.98457e-10
-7.02358e-13
-9.97e-10
-1.33613e-12
-9.9726e-10
-1.84001e-12
-9.97755e-10
-2.16457e-12
-9.98437e-10
-9.9924e-10
-1.0606e-12
-1.04569e-12
-9.92374e-10
-2.00469e-12
-1.03551e-12
-9.92799e-10
-2.74459e-12
-1.01402e-12
-9.93589e-10
-3.21493e-12
-9.86488e-13
-9.94652e-10
-9.559e-13
-9.95878e-10
-1.05064e-12
-1.976e-12
-9.92798e-10
-1.9876e-12
-1.95685e-12
-9.93216e-10
-2.72296e-12
-1.91603e-12
-9.93993e-10
-3.19101e-12
-1.86381e-12
-9.95042e-10
-1.8059e-12
-9.96254e-10
-1.02757e-12
-2.69223e-12
-9.93603e-10
-1.94701e-12
-2.66596e-12
-9.94004e-10
-2.67085e-12
-2.60965e-12
-9.94756e-10
-3.13285e-12
-2.53748e-12
-9.95776e-10
-2.45742e-12
-9.96961e-10
-9.9585e-13
-3.12484e-12
-9.94687e-10
-1.89091e-12
-3.09422e-12
-9.95066e-10
-2.59874e-12
-3.02773e-12
-9.95783e-10
-3.05242e-12
-2.94184e-12
-9.96764e-10
-2.84618e-12
-9.9791e-10
-9.58882e-13
-9.95925e-10
-1.82471e-12
-9.96279e-10
-2.51307e-12
-9.96956e-10
-2.95659e-12
-9.97891e-10
-9.98991e-10
-1.4788e-12
-1.46422e-12
-9.89431e-10
-2.77969e-12
-1.44624e-12
-9.90052e-10
-3.79006e-12
-1.41222e-12
-9.91166e-10
-4.42338e-12
-1.36991e-12
-9.92649e-10
-1.32501e-12
-9.94329e-10
-1.46146e-12
-2.76447e-12
-9.90037e-10
-2.75189e-12
-2.73068e-12
-9.90641e-10
-3.7559e-12
-2.66542e-12
-9.91736e-10
-4.38729e-12
-2.58523e-12
-9.93195e-10
-2.50017e-12
-9.94857e-10
-1.42278e-12
-3.75474e-12
-9.9119e-10
-2.68718e-12
-3.70862e-12
-9.91762e-10
-3.67592e-12
-3.61855e-12
-9.92814e-10
-4.30146e-12
-3.5079e-12
-9.94228e-10
-3.39041e-12
-9.95853e-10
-1.36971e-12
-4.33995e-12
-9.92732e-10
-2.59771e-12
-4.28743e-12
-9.93259e-10
-3.56546e-12
-4.18176e-12
-9.94252e-10
-4.18302e-12
-4.05031e-12
-9.95604e-10
-3.90921e-12
-9.97179e-10
-1.30901e-12
-9.94476e-10
-2.49289e-12
-9.94956e-10
-3.43462e-12
-9.95882e-10
-4.04165e-12
-9.97163e-10
-9.98677e-10
-2.08361e-12
-2.06069e-12
-9.85286e-10
-3.87163e-12
-2.02655e-12
-9.86238e-10
-5.2455e-12
-1.97289e-12
-9.8782e-10
-6.08121e-12
-1.907e-12
-9.89906e-10
-1.8433e-12
-9.92199e-10
-2.05164e-12
-3.89187e-12
-9.86154e-10
-3.82682e-12
-3.82859e-12
-9.87064e-10
-5.19123e-12
-3.7224e-12
-9.88622e-10
-6.02881e-12
-3.59813e-12
-9.90666e-10
-3.47685e-12
-9.92942e-10
-1.98336e-12
-5.26364e-12
-9.87835e-10
-3.72177e-12
-5.17737e-12
-9.88675e-10
-5.06759e-12
-5.03003e-12
-9.90161e-10
-5.90538e-12
-4.8593e-12
-9.92129e-10
-4.69192e-12
-9.94359e-10
-1.88921e-12
-6.04972e-12
-9.90057e-10
-3.57575e-12
-5.95536e-12
-9.90795e-10
-4.89741e-12
-5.78406e-12
-9.92177e-10
-5.73552e-12
-5.58341e-12
-9.94042e-10
-5.38105e-12
-9.96213e-10
-1.78497e-12
-9.92543e-10
-3.40655e-12
-9.93182e-10
-4.69849e-12
-9.94443e-10
-5.53307e-12
-9.96203e-10
-9.98303e-10
-2.99089e-12
-2.91511e-12
-9.7938e-10
-5.42152e-12
-2.84269e-12
-9.80965e-10
-7.28619e-12
-2.76305e-12
-9.83192e-10
-8.34558e-12
-2.65584e-12
-9.86191e-10
-2.57221e-12
-9.89309e-10
-2.92662e-12
-5.52894e-12
-9.80614e-10
-5.35419e-12
-5.4009e-12
-9.82078e-10
-7.1972e-12
-5.22592e-12
-9.84316e-10
-8.27552e-12
-5.02822e-12
-9.87216e-10
-4.86298e-12
-9.90342e-10
-2.79826e-12
-7.43262e-12
-9.83133e-10
-5.18064e-12
-7.25491e-12
-9.84439e-10
-7.00207e-12
-7.00781e-12
-9.86558e-10
-8.10472e-12
-6.73854e-12
-9.89316e-10
-6.5128e-12
-9.92388e-10
-2.61551e-12
-8.48085e-12
-9.86394e-10
-4.93544e-12
-8.29769e-12
-9.87432e-10
-6.73458e-12
-8.01056e-12
-9.89375e-10
-7.87209e-12
-7.7056e-12
-9.91937e-10
-7.42897e-12
-9.94972e-10
-2.42189e-12
-9.90035e-10
-4.65243e-12
-9.90827e-10
-6.43435e-12
-9.92528e-10
-7.59775e-12
-9.9494e-10
-9.97906e-10
-4.4363e-12
-4.1365e-12
-9.70808e-10
-7.61649e-12
-3.95507e-12
-9.73829e-10
-1.01908e-11
-3.87368e-12
-9.76744e-10
-1.14237e-11
-3.6738e-12
-9.81284e-10
-3.58958e-12
-9.85572e-10
-4.29082e-12
-7.96592e-12
-9.72493e-10
-7.5493e-12
-7.68494e-12
-9.7509e-10
-1.00287e-11
-7.40051e-12
-9.7831e-10
-1.13519e-11
-7.06605e-12
-9.825e-10
-6.85285e-12
-9.86962e-10
-4.03642e-12
-1.06058e-11
-9.76457e-10
-7.26117e-12
-1.01904e-11
-9.78709e-10
-9.70606e-12
-9.77421e-12
-9.81739e-10
-1.11243e-11
-9.32221e-12
-9.85642e-10
-9.05547e-12
-9.89954e-10
-3.63729e-12
-1.20126e-11
-9.8135e-10
-6.84287e-12
-1.1614e-11
-9.82803e-10
-9.26109e-12
-1.1104e-11
-9.85627e-10
-1.08361e-11
-1.06466e-11
-9.89038e-10
-1.02928e-11
-9.93494e-10
-3.22714e-12
-9.8706e-10
-6.33604e-12
-9.87768e-10
-8.81539e-12
-9.90013e-10
-1.05001e-11
-9.93251e-10
-9.97607e-10
-6.94859e-12
-5.83291e-12
-9.58026e-10
-1.05713e-11
-5.2776e-12
-9.64929e-10
-1.4467e-11
-5.42956e-12
-9.67419e-10
-1.56287e-11
-4.91772e-12
-9.75204e-10
-4.96471e-12
-9.8144e-10
-6.56505e-12
-1.1745e-11
-9.60016e-10
-1.07262e-11
-1.10923e-11
-9.65114e-10
-1.40865e-11
-1.06679e-11
-9.69711e-10
-1.56528e-11
-1.0036e-11
-9.75816e-10
-9.73212e-12
-9.83211e-10
-6.06644e-12
-1.53587e-11
-9.66777e-10
-1.02555e-11
-1.42352e-11
-9.71377e-10
-1.35146e-11
-1.36078e-11
-9.75541e-10
-1.53096e-11
-1.27127e-11
-9.8117e-10
-1.25527e-11
-9.87527e-10
-5.0754e-12
-1.74029e-11
-9.7423e-10
-9.59115e-12
-1.63965e-11
-9.76126e-10
-1.26524e-11
-1.53926e-11
-9.80781e-10
-1.50572e-11
-1.47466e-11
-9.84599e-10
-1.42803e-11
-9.92299e-10
-4.01995e-12
-9.84772e-10
-8.55242e-12
-9.84016e-10
-1.20306e-11
-9.86858e-10
-1.47051e-11
-9.9081e-10
-9.97689e-10
-1.18092e-11
-8.06963e-12
-9.38147e-10
-1.42278e-11
-6.28046e-12
-9.5623e-10
-2.12303e-11
-7.7437e-12
-9.52673e-10
-2.1523e-11
-5.9862e-12
-9.68926e-10
-6.72989e-12
-9.78703e-10
-1.06168e-11
-1.79836e-11
-9.39486e-10
-1.53574e-11
-1.64163e-11
-9.50238e-10
-1.99458e-11
-1.59959e-11
-9.56871e-10
-2.20794e-11
-1.46198e-11
-9.65049e-10
-1.38384e-11
-9.81058e-10
-9.8207e-12
-2.26084e-11
-9.52332e-10
-1.44634e-11
-1.91268e-11
-9.64024e-10
-1.89611e-11
-1.88202e-11
-9.68219e-10
-2.12138e-11
-1.63818e-11
-9.77156e-10
-1.72613e-11
-9.86414e-10
-7.0125e-12
-2.64277e-11
-9.63399e-10
-1.39233e-11
-2.35831e-11
-9.64759e-10
-1.66778e-11
-2.12723e-11
-9.75574e-10