/*--------------------------------*- C++ -*----------------------------------*\
| =========                 |                                                 |
| \\      /  F ield         | OpenFOAM: The Open Source CFD Toolbox           |
|  \\    /   O peration     | Version:  5.x                                   |
|   \\  /    A nd           | Web:      www.OpenFOAM.org                      |
|    \\/     M anipulation  |                                                 |
\*---------------------------------------------------------------------------*/
FoamFile
{
    version     2.0;
    format      ascii;
    class       volVectorField;
    location    "0.03";
    object      U;
}
// * * * * * * * * * * * * * * * * * * * * * * * * * * * * * * * * * * * * * //

dimensions      [0 1 -1 0 0 0 0];

internalField   nonuniform List<vector> 
2250
(
(-1.93649e-11 -1.69441e-11 -0.000999997)
(-6.03046e-11 -1.98423e-11 -0.000999997)
(-8.99349e-11 -2.02171e-11 -0.000999998)
(-9.01183e-11 -2.14354e-11 -0.000999998)
(-1.09974e-10 -2.62461e-11 -0.000999998)
(-2.22695e-11 -5.48679e-11 -0.000999997)
(-6.36985e-11 -5.95557e-11 -0.000999998)
(-9.17368e-11 -6.41952e-11 -0.000999998)
(-9.63392e-11 -7.29736e-11 -0.000999998)
(-1.12867e-10 -8.85703e-11 -0.000999998)
(-2.39539e-11 -8.24735e-11 -0.000999998)
(-6.96483e-11 -8.68321e-11 -0.000999998)
(-1.03549e-10 -1.00355e-10 -0.000999998)
(-1.14672e-10 -1.22674e-10 -0.000999998)
(-1.23398e-10 -1.54299e-10 -0.000999998)
(-2.64491e-11 -8.46732e-11 -0.000999998)
(-8.1414e-11 -9.08743e-11 -0.000999998)
(-1.2758e-10 -1.14746e-10 -0.000999998)
(-1.50292e-10 -1.52235e-10 -0.000999998)
(-1.4495e-10 -2.1607e-10 -0.000999999)
(-3.00077e-11 -1.01736e-10 -0.000999998)
(-9.95797e-11 -1.03655e-10 -0.000999998)
(-1.64901e-10 -1.22577e-10 -0.000999998)
(-2.15959e-10 -1.50405e-10 -0.000999999)
(-1.73026e-10 -1.79969e-10 -0.000999999)
(-5.93915e-11 -5.16114e-11 -0.000999997)
(-1.83585e-10 -5.88295e-11 -0.000999997)
(-2.81294e-10 -6.2114e-11 -0.000999998)
(-3.18347e-10 -6.92053e-11 -0.000999998)
(-3.60349e-10 -8.39445e-11 -0.000999998)
(-6.66278e-11 -1.62494e-10 -0.000999997)
(-1.9441e-10 -1.74868e-10 -0.000999997)
(-2.92243e-10 -1.8931e-10 -0.000999998)
(-3.40808e-10 -2.13042e-10 -0.000999998)
(-3.68263e-10 -2.44184e-10 -0.000999998)
(-7.15142e-11 -2.42595e-10 -0.000999997)
(-2.10453e-10 -2.55633e-10 -0.000999998)
(-3.20015e-10 -2.90415e-10 -0.000999998)
(-3.73821e-10 -3.39599e-10 -0.000999998)
(-3.80567e-10 -3.94954e-10 -0.000999998)
(-7.92034e-11 -2.53327e-10 -0.000999998)
(-2.41788e-10 -2.75758e-10 -0.000999998)
(-3.76212e-10 -3.35415e-10 -0.000999998)
(-4.45365e-10 -4.17059e-10 -0.000999998)
(-4.11323e-10 -5.47646e-10 -0.000999999)
(-9.35156e-11 -3.01183e-10 -0.000999998)
(-2.92121e-10 -3.09338e-10 -0.000999998)
(-4.61302e-10 -3.51922e-10 -0.000999998)
(-5.8609e-10 -4.03573e-10 -0.000999999)
(-4.40179e-10 -4.3339e-10 -0.000999999)
(-1.11358e-10 -9.63611e-11 -0.000999997)
(-3.40236e-10 -1.05066e-10 -0.000999997)
(-5.35604e-10 -1.11875e-10 -0.000999997)
(-6.61586e-10 -1.21914e-10 -0.000999998)
(-7.10346e-10 -1.26207e-10 -0.000999998)
(-1.20087e-10 -2.92871e-10 -0.000999997)
(-3.56251e-10 -3.09182e-10 -0.000999997)
(-5.53503e-10 -3.29697e-10 -0.000999997)
(-6.77256e-10 -3.53712e-10 -0.000999998)
(-7.05117e-10 -3.64116e-10 -0.000999998)
(-1.27271e-10 -4.39908e-10 -0.000999997)
(-3.77133e-10 -4.59811e-10 -0.000999997)
(-5.8116e-10 -5.02397e-10 -0.000999998)
(-6.97334e-10 -5.51808e-10 -0.000999998)
(-6.96606e-10 -5.94849e-10 -0.000999998)
(-1.39165e-10 -4.89715e-10 -0.000999997)
(-4.1793e-10 -5.26791e-10 -0.000999998)
(-6.45503e-10 -5.99992e-10 -0.000999998)
(-7.69747e-10 -6.89636e-10 -0.000999998)
(-6.87174e-10 -7.76223e-10 -0.000999999)
(-1.63357e-10 -5.67312e-10 -0.000999998)
(-4.86454e-10 -5.83974e-10 -0.000999998)
(-7.43966e-10 -6.26987e-10 -0.000999998)
(-8.73563e-10 -6.49939e-10 -0.000999999)
(-6.81317e-10 -6.50873e-10 -0.000999999)
(-1.75847e-10 -1.509e-10 -0.000999996)
(-5.34879e-10 -1.58773e-10 -0.000999997)
(-8.50607e-10 -1.66507e-10 -0.000999997)
(-1.06385e-09 -1.71422e-10 -0.000999997)
(-1.13525e-09 -1.58964e-10 -0.000999998)
(-1.83779e-10 -4.5487e-10 -0.000999997)
(-5.51299e-10 -4.72606e-10 -0.000999997)
(-8.64942e-10 -4.92725e-10 -0.000999997)
(-1.05851e-09 -5.06244e-10 -0.000999997)
(-1.11829e-09 -4.97606e-10 -0.000999998)
(-1.93016e-10 -6.9838e-10 -0.000999997)
(-5.72928e-10 -7.231e-10 -0.000999997)
(-8.85933e-10 -7.6288e-10 -0.000999997)
(-1.07096e-09 -8.05511e-10 -0.000999998)
(-1.1081e-09 -8.55863e-10 -0.000999998)
(-2.07107e-10 -8.2528e-10 -0.000999997)
(-6.14425e-10 -8.65543e-10 -0.000999997)
(-9.47343e-10 -9.36207e-10 -0.000999998)
(-1.15154e-09 -1.03483e-09 -0.000999998)
(-1.08187e-09 -1.14102e-09 -0.000999998)
(-2.31477e-10 -9.44207e-10 -0.000999998)
(-6.82109e-10 -9.67632e-10 -0.000999998)
(-1.05513e-09 -1.01116e-09 -0.000999998)
(-1.27573e-09 -1.02103e-09 -0.000999998)
(-1.03629e-09 -9.88525e-10 -0.000999999)
(-2.57261e-10 -2.22268e-10 -0.000999996)
(-7.76799e-10 -2.29642e-10 -0.000999996)
(-1.23049e-09 -2.37534e-10 -0.000999996)
(-1.51666e-09 -2.39675e-10 -0.000999997)
(-1.64811e-09 -2.34886e-10 -0.000999997)
(-2.64702e-10 -6.68632e-10 -0.000999996)
(-7.9321e-10 -6.88554e-10 -0.000999996)
(-1.24299e-09 -7.10652e-10 -0.000999996)
(-1.51715e-09 -7.27566e-10 -0.000999997)
(-1.64765e-09 -7.43531e-10 -0.000999997)
(-2.76305e-10 -1.04224e-09 -0.000999996)
(-8.19028e-10 -1.06985e-09 -0.000999996)
(-1.27197e-09 -1.11383e-09 -0.000999997)
(-1.55268e-09 -1.16938e-09 -0.000999997)
(-1.66967e-09 -1.25004e-09 -0.000999998)
(-2.90176e-10 -1.26245e-09 -0.000999997)
(-8.62693e-10 -1.29953e-09 -0.000999997)
(-1.34253e-09 -1.37871e-09 -0.000999997)
(-1.65339e-09 -1.49919e-09 -0.000999998)
(-1.68165e-09 -1.67075e-09 -0.000999998)
(-3.10672e-10 -1.4406e-09 -0.000999997)
(-9.32624e-10 -1.46819e-09 -0.000999997)
(-1.47158e-09 -1.53364e-09 -0.000999998)
(-1.8447e-09 -1.58597e-09 -0.000999998)
(-1.66427e-09 -1.59046e-09 -0.000999999)
(-3.70518e-10 -3.26264e-10 -0.000999994)
(-1.10018e-09 -3.33251e-10 -0.000999995)
(-1.72965e-09 -3.43212e-10 -0.000999995)
(-2.13912e-09 -3.5143e-10 -0.000999996)
(-2.35207e-09 -3.70539e-10 -0.000999997)
(-3.77589e-10 -9.66103e-10 -0.000999995)
(-1.11869e-09 -9.86705e-10 -0.000999995)
(-1.75127e-09 -1.01604e-09 -0.000999995)
(-2.1708e-09 -1.04999e-09 -0.000999996)
(-2.38023e-09 -1.09977e-09 -0.000999997)
(-3.89883e-10 -1.50034e-09 -0.000999995)
(-1.15037e-09 -1.52823e-09 -0.000999995)
(-1.79638e-09 -1.58434e-09 -0.000999996)
(-2.22721e-09 -1.65486e-09 -0.000999997)
(-2.41928e-09 -1.73116e-09 -0.000999998)
(-4.02446e-10 -1.82358e-09 -0.000999996)
(-1.19968e-09 -1.86683e-09 -0.000999996)
(-1.8779e-09 -1.96585e-09 -0.000999997)
(-2.31775e-09 -2.08889e-09 -0.000999997)
(-2.45165e-09 -2.21699e-09 -0.000999998)
(-4.29387e-10 -2.08154e-09 -0.000999997)
(-1.28892e-09 -2.11558e-09 -0.000999997)
(-2.01832e-09 -2.20177e-09 -0.000999997)
(-2.47838e-09 -2.28859e-09 -0.000999998)
(-2.49195e-09 -2.35678e-09 -0.000999999)
(-5.27965e-10 -4.73892e-10 -0.000999993)
(-1.54399e-09 -4.79153e-10 -0.000999993)
(-2.41872e-09 -4.89723e-10 -0.000999994)
(-3.04868e-09 -5.03514e-10 -0.000999995)
(-3.35314e-09 -5.27631e-10 -0.000999996)
(-5.33328e-10 -1.37824e-09 -0.000999993)
(-1.56193e-09 -1.3946e-09 -0.000999994)
(-2.44782e-09 -1.42434e-09 -0.000999994)
(-3.09266e-09 -1.46129e-09 -0.000999995)
(-3.38626e-09 -1.49785e-09 -0.000999996)
(-5.42635e-10 -2.12471e-09 -0.000999994)
(-1.59041e-09 -2.15088e-09 -0.000999994)
(-2.49015e-09 -2.20597e-09 -0.000999995)
(-3.12828e-09 -2.26089e-09 -0.000999996)
(-3.39311e-09 -2.2817e-09 -0.000999997)
(-5.55296e-10 -2.61082e-09 -0.000999995)
(-1.639e-09 -2.66694e-09 -0.000999995)
(-2.55784e-09 -2.76122e-09 -0.000999996)
(-3.1685e-09 -2.84405e-09 -0.000999997)
(-3.38099e-09 -2.88921e-09 -0.000999998)
(-5.93616e-10 -2.9691e-09 -0.000999996)
(-1.73566e-09 -3.00943e-09 -0.000999996)
(-2.66718e-09 -3.07816e-09 -0.000999997)
(-3.25628e-09 -3.12653e-09 -0.000999998)
(-3.37706e-09 -3.14606e-09 -0.000999999)
(-7.327e-10 -6.68884e-10 -0.000999991)
(-2.13111e-09 -6.69917e-10 -0.000999991)
(-3.34033e-09 -6.75424e-10 -0.000999992)
(-4.26256e-09 -6.84682e-10 -0.000999993)
(-4.69296e-09 -6.87857e-10 -0.000999995)
(-7.33854e-10 -1.9349e-09 -0.000999991)
(-2.14047e-09 -1.94235e-09 -0.000999991)
(-3.36158e-09 -1.95731e-09 -0.000999992)
(-4.28332e-09 -1.97205e-09 -0.000999994)
(-4.70713e-09 -1.96172e-09 -0.000999995)
(-7.37813e-10 -2.99293e-09 -0.000999992)
(-2.1539e-09 -3.01417e-09 -0.000999992)
(-3.37655e-09 -3.04216e-09 -0.000999993)
(-4.2754e-09 -3.05298e-09 -0.000999994)
(-4.67316e-09 -3.02802e-09 -0.000999996)
(-7.4928e-10 -3.75489e-09 -0.000999993)
(-2.18387e-09 -3.80171e-09 -0.000999994)
(-3.40038e-09 -3.84532e-09 -0.000999994)
(-4.26935e-09 -3.86671e-09 -0.000999995)
(-4.61609e-09 -3.90306e-09 -0.000999997)
(-7.77416e-10 -4.23151e-09 -0.000999995)
(-2.23701e-09 -4.2633e-09 -0.000999995)
(-3.44137e-09 -4.28128e-09 -0.000999996)
(-4.33315e-09 -4.26131e-09 -0.000999997)
(-4.54078e-09 -4.18569e-09 -0.000999998)
(-9.90136e-10 -9.1905e-10 -0.000999987)
(-2.89174e-09 -9.16442e-10 -0.000999988)
(-4.5452e-09 -9.14978e-10 -0.000999989)
(-5.79672e-09 -9.15236e-10 -0.000999991)
(-6.41659e-09 -9.01855e-10 -0.000999993)
(-9.87665e-10 -2.67839e-09 -0.000999988)
(-2.89145e-09 -2.67921e-09 -0.000999988)
(-4.55273e-09 -2.67471e-09 -0.00099999)
(-5.79476e-09 -2.66291e-09 -0.000999991)
(-6.41927e-09 -2.62462e-09 -0.000999993)
(-9.87711e-10 -4.18638e-09 -0.000999989)
(-2.88847e-09 -4.19911e-09 -0.00099999)
(-4.53772e-09 -4.18842e-09 -0.000999991)
(-5.75802e-09 -4.15469e-09 -0.000999992)
(-6.37954e-09 -4.10828e-09 -0.000999994)
(-9.92357e-10 -5.31818e-09 -0.000999991)
(-2.88538e-09 -5.32822e-09 -0.000999991)
(-4.5083e-09 -5.30019e-09 -0.000999992)
(-5.71487e-09 -5.25799e-09 -0.000999994)
(-6.3254e-09 -5.26109e-09 -0.000999996)
(-9.87624e-10 -5.93988e-09 -0.000999993)
(-2.86011e-09 -5.9472e-09 -0.000999993)
(-4.46724e-09 -5.91738e-09 -0.000999994)
(-5.71892e-09 -5.85946e-09 -0.000999996)
(-6.25429e-09 -5.76723e-09 -0.000999997)
(-1.33076e-09 -1.25275e-09 -0.000999983)
(-3.9108e-09 -1.25294e-09 -0.000999984)
(-6.15844e-09 -1.24907e-09 -0.000999985)
(-7.81274e-09 -1.24458e-09 -0.000999987)
(-8.68456e-09 -1.23501e-09 -0.00099999)
(-1.3311e-09 -3.68255e-09 -0.000999984)
(-3.9122e-09 -3.68621e-09 -0.000999984)
(-6.16181e-09 -3.66939e-09 -0.000999986)
(-7.81357e-09 -3.64049e-09 -0.000999988)
(-8.69218e-09 -3.59896e-09 -0.000999991)
(-1.32992e-09 -5.79286e-09 -0.000999985)
(-3.89809e-09 -5.79707e-09 -0.000999986)
(-6.12458e-09 -5.75345e-09 -0.000999988)
(-7.75752e-09 -5.68012e-09 -0.00099999)
(-8.65554e-09 -5.59116e-09 -0.000999992)
(-1.32428e-09 -7.356e-09 -0.000999987)
(-3.86163e-09 -7.33718e-09 -0.000999988)
(-6.04485e-09 -7.25082e-09 -0.00099999)
(-7.65162e-09 -7.13031e-09 -0.000999992)
(-8.60689e-09 -6.99727e-09 -0.000999994)
(-1.29712e-09 -8.17468e-09 -0.00099999)
(-3.77856e-09 -8.16072e-09 -0.000999991)
(-5.91738e-09 -8.09502e-09 -0.000999992)
(-7.50397e-09 -8.01481e-09 -0.000999994)
(-8.56334e-09 -7.94522e-09 -0.000999997)
(-1.81418e-09 -1.72089e-09 -0.000999977)
(-5.33033e-09 -1.72752e-09 -0.000999978)
(-8.37432e-09 -1.72221e-09 -0.00099998)
(-1.05887e-08 -1.71148e-09 -0.000999983)
(-1.17708e-08 -1.70071e-09 -0.000999987)
(-1.82099e-09 -5.05709e-09 -0.000999978)
(-5.33851e-09 -5.06475e-09 -0.000999979)
(-8.37412e-09 -5.03375e-09 -0.000999981)
(-1.05872e-08 -4.98176e-09 -0.000999984)
(-1.17742e-08 -4.91878e-09 -0.000999988)
(-1.81568e-09 -7.94019e-09 -0.00099998)
(-5.30751e-09 -7.93302e-09 -0.000999981)
(-8.30738e-09 -7.85677e-09 -0.000999983)
(-1.04943e-08 -7.74121e-09 -0.000999986)
(-1.17083e-08 -7.59339e-09 -0.00099999)
(-1.7988e-09 -1.00413e-08 -0.000999983)
(-5.23984e-09 -1.0011e-08 -0.000999984)
(-8.1823e-09 -9.88257e-09 -0.000999986)
(-1.03243e-08 -9.69863e-09 -0.000999989)
(-1.16195e-08 -9.42238e-09 -0.000999993)
(-1.76641e-09 -1.11416e-08 -0.000999986)
(-5.12927e-09 -1.11141e-08 -0.000999987)
(-7.99454e-09 -1.10099e-08 -0.00099999)
(-1.00341e-08 -1.08863e-08 -0.000999992)
(-1.15934e-08 -1.08433e-08 -0.000999996)
(-2.50055e-09 -2.37515e-09 -0.000999969)
(-7.30087e-09 -2.37963e-09 -0.00099997)
(-1.14088e-08 -2.36495e-09 -0.000999973)
(-1.44054e-08 -2.33835e-09 -0.000999977)
(-1.59901e-08 -2.30222e-09 -0.000999982)
(-2.50527e-09 -6.92965e-09 -0.00099997)
(-7.29995e-09 -6.92412e-09 -0.000999972)
(-1.13891e-08 -6.8656e-09 -0.000999975)
(-1.437e-08 -6.77611e-09 -0.000999979)
(-1.59707e-08 -6.66427e-09 -0.000999984)
(-2.48671e-09 -1.08198e-08 -0.000999973)
(-7.23755e-09 -1.07911e-08 -0.000999975)
(-1.12827e-08 -1.06788e-08 -0.000999977)
(-1.42321e-08 -1.05265e-08 -0.000999982)
(-1.5862e-08 -1.03494e-08 -0.000999986)
(-2.45612e-09 -1.36555e-08 -0.000999977)
(-7.13823e-09 -1.36118e-08 -0.000999978)
(-1.11245e-08 -1.34564e-08 -0.000999981)
(-1.40411e-08 -1.32564e-08 -0.000999985)
(-1.57296e-08 -1.2994e-08 -0.00099999)
(-2.41717e-09 -1.51592e-08 -0.000999981)
(-7.01186e-09 -1.51227e-08 -0.000999983)
(-1.09267e-08 -1.49892e-08 -0.000999986)
(-1.37697e-08 -1.48324e-08 -0.00099999)
(-1.56701e-08 -1.47631e-08 -0.000999995)
(-3.43457e-09 -3.25797e-09 -0.000999957)
(-9.97603e-09 -3.24888e-09 -0.000999959)
(-1.55296e-08 -3.22168e-09 -0.000999964)
(-1.95894e-08 -3.17941e-09 -0.000999969)
(-2.17289e-08 -3.11758e-09 -0.000999976)
(-3.42583e-09 -9.45419e-09 -0.000999959)
(-9.95236e-09 -9.42316e-09 -0.000999961)
(-1.54894e-08 -9.33973e-09 -0.000999966)
(-1.95224e-08 -9.22215e-09 -0.000999971)
(-2.16919e-08 -9.07565e-09 -0.000999978)
(-3.39233e-09 -1.47176e-08 -0.000999963)
(-9.86261e-09 -1.46723e-08 -0.000999965)
(-1.53583e-08 -1.45393e-08 -0.000999969)
(-1.93634e-08 -1.43678e-08 -0.000999975)
(-2.15607e-08 -1.41825e-08 -0.000999982)
(-3.35284e-09 -1.85792e-08 -0.000999969)
(-9.74589e-09 -1.85354e-08 -0.000999971)
(-1.51849e-08 -1.83725e-08 -0.000999975)
(-1.91664e-08 -1.81655e-08 -0.00099998)
(-2.14049e-08 -1.7912e-08 -0.000999987)
(-3.31331e-09 -2.06411e-08 -0.000999975)
(-9.61977e-09 -2.06127e-08 -0.000999977)
(-1.49876e-08 -2.04683e-08 -0.000999981)
(-1.89029e-08 -2.02905e-08 -0.000999987)
(-2.12838e-08 -2.01622e-08 -0.000999993)
(-4.68121e-09 -4.436e-09 -0.000999942)
(-1.35926e-08 -4.41938e-09 -0.000999945)
(-2.11511e-08 -4.39005e-09 -0.00099995)
(-2.66594e-08 -4.34508e-09 -0.000999958)
(-2.95613e-08 -4.28107e-09 -0.000999967)
(-4.66508e-09 -1.28757e-08 -0.000999944)
(-1.35638e-08 -1.28392e-08 -0.000999947)
(-2.11167e-08 -1.27529e-08 -0.000999953)
(-2.66008e-08 -1.26306e-08 -0.000999961)
(-2.95267e-08 -1.24846e-08 -0.00099997)
(-4.62946e-09 -2.00641e-08 -0.00099995)
(-1.34712e-08 -2.00301e-08 -0.000999953)
(-2.09831e-08 -1.98924e-08 -0.000999958)
(-2.64429e-08 -1.97046e-08 -0.000999966)
(-2.93808e-08 -1.94986e-08 -0.000999975)
(-4.59332e-09 -2.53583e-08 -0.000999957)
(-1.33537e-08 -2.53382e-08 -0.00099996)
(-2.07913e-08 -2.516e-08 -0.000999966)
(-2.62082e-08 -2.49009e-08 -0.000999973)
(-2.91856e-08 -2.45728e-08 -0.000999982)
(-4.56157e-09 -2.81577e-08 -0.000999966)
(-1.32237e-08 -2.81446e-08 -0.000999969)
(-2.05446e-08 -2.79694e-08 -0.000999974)
(-2.58557e-08 -2.77336e-08 -0.000999982)
(-2.89664e-08 -2.75035e-08 -0.000999991)
(-6.37378e-09 -6.042e-09 -0.00099992)
(-1.85394e-08 -6.03661e-09 -0.000999924)
(-2.88708e-08 -6.01177e-09 -0.000999932)
(-3.63635e-08 -5.96657e-09 -0.000999943)
(-4.03017e-08 -5.90837e-09 -0.000999955)
(-6.36906e-09 -1.75786e-08 -0.000999924)
(-1.85326e-08 -1.75655e-08 -0.000999928)
(-2.88551e-08 -1.74783e-08 -0.000999936)
(-3.63287e-08 -1.73443e-08 -0.000999946)
(-4.02759e-08 -1.71978e-08 -0.000999959)
(-6.33985e-09 -2.74345e-08 -0.000999932)
(-1.8441e-08 -2.74193e-08 -0.000999936)
(-2.87047e-08 -2.7255e-08 -0.000999943)
(-3.61535e-08 -2.70253e-08 -0.000999954)
(-4.0099e-08 -2.67845e-08 -0.000999966)
(-6.30239e-09 -3.46749e-08 -0.000999942)
(-1.83008e-08 -3.46532e-08 -0.000999946)
(-2.84612e-08 -3.44148e-08 -0.000999953)
(-3.58598e-08 -3.40829e-08 -0.000999964)
(-3.98376e-08 -3.36839e-08 -0.000999976)
(-6.25293e-09 -3.84428e-08 -0.000999954)
(-1.81138e-08 -3.84137e-08 -0.000999957)
(-2.81327e-08 -3.81691e-08 -0.000999965)
(-3.54226e-08 -3.78467e-08 -0.000999975)
(-3.954e-08 -3.75347e-08 -0.000999988)
(-8.71079e-09 -8.2681e-09 -0.000999891)
(-2.53409e-08 -8.27677e-09 -0.000999897)
(-3.94495e-08 -8.2417e-09 -0.000999907)
(-4.96596e-08 -8.17824e-09 -0.000999922)
(-5.50223e-08 -8.10759e-09 -0.000999939)
(-8.72034e-09 -2.40635e-08 -0.000999897)
(-2.53464e-08 -2.40642e-08 -0.000999902)
(-3.9425e-08 -2.39388e-08 -0.000999913)
(-4.9619e-08 -2.37534e-08 -0.000999927)
(-5.49933e-08 -2.3564e-08 -0.000999944)
(-8.68299e-09 -3.75292e-08 -0.000999907)
(-2.52188e-08 -3.74976e-08 -0.000999912)
(-3.9214e-08 -3.72641e-08 -0.000999923)
(-4.93808e-08 -3.69617e-08 -0.000999937)
(-5.47547e-08 -3.66554e-08 -0.000999954)
(-8.61855e-09 -4.73507e-08 -0.00099992)
(-2.50099e-08 -4.72794e-08 -0.000999926)
(-3.88892e-08 -4.69535e-08 -0.000999936)
(-4.90125e-08 -4.65549e-08 -0.00099995)
(-5.44116e-08 -4.6113e-08 -0.000999967)
(-8.5227e-09 -5.24402e-08 -0.000999937)
(-2.47301e-08 -5.23663e-08 -0.000999942)
(-3.84873e-08 -5.2044e-08 -0.000999952)
(-4.85402e-08 -5.16512e-08 -0.000999966)
(-5.40294e-08 -5.12623e-08 -0.000999983)
(-1.19255e-08 -1.13364e-08 -0.000999852)
(-3.46448e-08 -1.13367e-08 -0.000999859)
(-5.38833e-08 -1.12677e-08 -0.000999874)
(-6.78284e-08 -1.11692e-08 -0.000999893)
(-7.5172e-08 -1.10684e-08 -0.000999917)
(-1.1927e-08 -3.29423e-08 -0.000999859)
(-3.46195e-08 -3.29135e-08 -0.000999866)
(-5.38166e-08 -3.27109e-08 -0.000999881)
(-6.77567e-08 -3.24459e-08 -0.0009999)
(-7.51214e-08 -3.2171e-08 -0.000999924)
(-1.1858e-08 -5.12823e-08 -0.000999873)
(-3.44168e-08 -5.1204e-08 -0.00099988)
(-5.35183e-08 -5.08853e-08 -0.000999894)
(-6.74196e-08 -5.04941e-08 -0.000999914)
(-7.47675e-08 -5.00687e-08 -0.000999937)
(-1.17532e-08 -6.45951e-08 -0.000999891)
(-3.41252e-08 -6.44806e-08 -0.000999899)
(-5.31067e-08 -6.4079e-08 -0.000999913)
(-6.6943e-08 -6.35979e-08 -0.000999932)
(-7.42745e-08 -6.30359e-08 -0.000999955)
(-1.16223e-08 -7.15316e-08 -0.000999914)
(-3.37761e-08 -7.14251e-08 -0.000999921)
(-5.26326e-08 -7.10187e-08 -0.000999935)
(-6.63764e-08 -7.05211e-08 -0.000999954)
(-7.37199e-08 -6.99815e-08 -0.000999977)
(-1.63059e-08 -1.55201e-08 -0.000999798)
(-4.73275e-08 -1.54914e-08 -0.000999808)
(-7.35984e-08 -1.53818e-08 -0.000999827)
(-9.27021e-08 -1.52476e-08 -0.000999855)
(-1.02776e-07 -1.51071e-08 -0.000999886)
(-1.62787e-08 -4.50497e-08 -0.000999807)
(-4.72482e-08 -4.49684e-08 -0.000999817)
(-7.34921e-08 -4.46804e-08 -0.000999837)
(-9.26016e-08 -4.43206e-08 -0.000999864)
(-1.02682e-07 -4.39156e-08 -0.000999896)
(-1.61718e-08 -7.00673e-08 -0.000999826)
(-4.69627e-08 -6.99537e-08 -0.000999836)
(-7.30905e-08 -6.95426e-08 -0.000999856)
(-9.21162e-08 -6.90123e-08 -0.000999882)
(-1.02128e-07 -6.83799e-08 -0.000999914)
(-1.60347e-08 -8.82272e-08 -0.000999852)
(-4.65908e-08 -8.81026e-08 -0.000999862)
(-7.25507e-08 -8.76066e-08 -0.000999881)
(-9.14428e-08 -8.69503e-08 -0.000999908)
(-1.01357e-07 -8.61502e-08 -0.000999939)
(-1.58819e-08 -9.77139e-08 -0.000999882)
(-4.61722e-08 -9.75843e-08 -0.000999892)
(-7.19341e-08 -9.70347e-08 -0.000999911)
(-9.06598e-08 -9.63049e-08 -0.000999938)
(-1.00473e-07 -9.54539e-08 -0.000999969)
(-2.22744e-08 -2.12237e-08 -0.000999723)
(-6.4672e-08 -2.11718e-08 -0.000999737)
(-1.00639e-07 -2.10279e-08 -0.000999764)
(-1.26841e-07 -2.08464e-08 -0.000999801)
(-1.40621e-07 -2.06306e-08 -0.000999845)
(-2.22246e-08 -6.16122e-08 -0.000999737)
(-6.45565e-08 -6.14937e-08 -0.00099975)
(-1.00501e-07 -6.11043e-08 -0.000999777)
(-1.26682e-07 -6.05813e-08 -0.000999815)
(-1.40432e-07 -5.99402e-08 -0.000999858)
(-2.20838e-08 -9.58405e-08 -0.000999762)
(-6.41703e-08 -9.56967e-08 -0.000999776)
(-9.99175e-08 -9.51169e-08 -0.000999803)
(-1.25921e-07 -9.43002e-08 -0.00099984)
(-1.3956e-07 -9.32943e-08 -0.000999883)
(-2.19027e-08 -1.20689e-07 -0.000999798)
(-6.36516e-08 -1.20523e-07 -0.000999812)
(-9.91048e-08 -1.19808e-07 -0.000999838)
(-1.24865e-07 -1.18772e-07 -0.000999874)
(-1.38349e-07 -1.1751e-07 -0.000999917)
(-2.1693e-08 -1.33639e-07 -0.000999839)
(-6.30571e-08 -1.33441e-07 -0.000999853)
(-9.81604e-08 -1.3262e-07 -0.000999879)
(-1.23624e-07 -1.31465e-07 -0.000999915)
(-1.36937e-07 -1.30077e-07 -0.000999957)
(-3.04597e-08 -2.90531e-08 -0.000999622)
(-8.84896e-08 -2.89917e-08 -0.000999641)
(-1.37771e-07 -2.87917e-08 -0.000999678)
(-1.73662e-07 -2.85088e-08 -0.000999729)
(-1.92485e-07 -2.8154e-08 -0.000999789)
(-3.04012e-08 -8.43693e-08 -0.00099964)
(-8.83379e-08 -8.42094e-08 -0.000999659)
(-1.37545e-07 -8.36257e-08 -0.000999696)
(-1.73348e-07 -8.27914e-08 -0.000999747)
(-1.92118e-07 -8.17674e-08 -0.000999807)
(-3.02012e-08 -1.31242e-07 -0.000999675)
(-8.77542e-08 -1.31002e-07 -0.000999694)
(-1.36614e-07 -1.30087e-07 -0.000999731)
(-1.72137e-07 -1.28779e-07 -0.000999781)
(-1.90772e-07 -1.27206e-07 -0.00099984)
(-2.99182e-08 -1.65198e-07 -0.000999724)
(-8.6935e-08 -1.64892e-07 -0.000999743)
(-1.35322e-07 -1.63753e-07 -0.000999779)
(-1.70475e-07 -1.62101e-07 -0.000999828)
(-1.88911e-07 -1.60133e-07 -0.000999887)
(-2.95881e-08 -1.82866e-07 -0.000999781)
(-8.59928e-08 -1.82511e-07 -0.0009998)
(-1.33816e-07 -1.81226e-07 -0.000999835)
(-1.68517e-07 -1.79398e-07 -0.000999884)
(-1.86713e-07 -1.77192e-07 -0.000999941)
(-4.17175e-08 -3.98417e-08 -0.000999483)
(-1.21201e-07 -3.97503e-08 -0.000999509)
(-1.88682e-07 -3.94282e-08 -0.00099956)
(-2.37786e-07 -3.89692e-08 -0.00099963)
(-2.63567e-07 -3.84194e-08 -0.000999712)
(-4.16298e-08 -1.15676e-07 -0.000999508)
(-1.20936e-07 -1.15399e-07 -0.000999534)
(-1.8825e-07 -1.14459e-07 -0.000999585)
(-2.37219e-07 -1.13141e-07 -0.000999654)
(-2.62942e-07 -1.11589e-07 -0.000999736)
(-4.13051e-08 -1.79856e-07 -0.000999557)
(-1.19994e-07 -1.79405e-07 -0.000999582)
(-1.8678e-07 -1.77951e-07 -0.000999632)
(-2.35371e-07 -1.75932e-07 -0.000999701)
(-2.60902e-07 -1.73573e-07 -0.000999782)
(-4.08475e-08 -2.26261e-07 -0.000999623)
(-1.18693e-07 -2.25708e-07 -0.000999649)
(-1.84776e-07 -2.23902e-07 -0.000999698)
(-2.32851e-07 -2.21377e-07 -0.000999766)
(-2.58088e-07 -2.18469e-07 -0.000999846)
(-4.0333e-08 -2.5041e-07 -0.000999702)
(-1.17203e-07 -2.49794e-07 -0.000999727)
(-1.82438e-07 -2.4778e-07 -0.000999775)
(-2.29938e-07 -2.44956e-07 -0.000999842)
(-2.54768e-07 -2.41606e-07 -0.00099992)
(-5.71725e-08 -5.46981e-08 -0.000999292)
(-1.66063e-07 -5.4525e-08 -0.000999328)
(-2.58467e-07 -5.40076e-08 -0.000999398)
(-3.25698e-07 -5.33013e-08 -0.000999494)
(-3.61088e-07 -5.24834e-08 -0.000999607)
(-5.70043e-08 -1.58746e-07 -0.000999327)
(-1.65576e-07 -1.58241e-07 -0.000999363)
(-2.57719e-07 -1.56767e-07 -0.000999432)
(-3.24777e-07 -1.54758e-07 -0.000999527)
(-3.60083e-07 -1.52429e-07 -0.00099964)
(-5.64841e-08 -2.46708e-07 -0.000999394)
(-1.64099e-07 -2.45934e-07 -0.000999429)
(-2.55469e-07 -2.43679e-07 -0.000999498)
(-3.2198e-07 -2.40593e-07 -0.000999592)
(-3.56978e-07 -2.3699e-07 -0.000999703)
(-5.5778e-08 -3.1027e-07 -0.000999486)
(-1.62086e-07 -3.09324e-07 -0.000999521)
(-2.52378e-07 -3.06484e-07 -0.000999588)
(-3.18101e-07 -3.02593e-07 -0.000999681)
(-3.52691e-07 -2.98096e-07 -0.00099979)
(-5.49663e-08 -3.43278e-07 -0.000999594)
(-1.59723e-07 -3.42224e-07 -0.000999628)
(-2.48723e-07 -3.39066e-07 -0.000999694)
(-3.13593e-07 -3.34737e-07 -0.000999785)
(-3.47647e-07 -3.29666e-07 -0.000999891)
(-7.83757e-08 -7.51632e-08 -0.000999031)
(-2.27637e-07 -7.48674e-08 -0.00099908)
(-3.54294e-07 -7.40779e-08 -0.000999176)
(-4.46462e-07 -7.30086e-08 -0.000999308)
(-4.95033e-07 -7.17695e-08 -0.000999463)
(-7.80864e-08 -2.18095e-07 -0.000999079)
(-2.26828e-07 -2.17261e-07 -0.000999128)
(-3.53084e-07 -2.15005e-07 -0.000999223)
(-4.44976e-07 -2.11933e-07 -0.000999354)
(-4.93397e-07 -2.08345e-07 -0.000999508)
(-7.72901e-08 -3.38848e-07 -0.000999171)
(-2.24565e-07 -3.37583e-07 -0.00099922)
(-3.49629e-07 -3.34095e-07 -0.000999313)
(-4.40648e-07 -3.29317e-07 -0.000999443)
(-4.88592e-07 -3.2368e-07 -0.000999595)
(-7.62041e-08 -4.26006e-07 -0.000999298)
(-2.21445e-07 -4.24401e-07 -0.000999346)
(-3.44817e-07 -4.19957e-07 -0.000999438)
(-4.3458e-07 -4.13884e-07 -0.000999564)
(-4.81944e-07 -4.06722e-07 -0.000999714)
(-7.49046e-08 -4.71036e-07 -0.000999446)
(-2.17711e-07 -4.69238e-07 -0.000999493)
(-3.39092e-07 -4.64305e-07 -0.000999583)
(-4.27413e-07 -4.57601e-07 -0.000999707)
(-4.74139e-07 -4.49773e-07 -0.000999852)
(-1.07531e-07 -1.03441e-07 -0.000998672)
(-3.12318e-07 -1.02974e-07 -0.00099874)
(-4.86078e-07 -1.0177e-07 -0.000998872)
(-6.12522e-07 -1.00125e-07 -0.000999053)
(-6.79176e-07 -9.81985e-08 -0.000999266)
(-1.07072e-07 -3.00095e-07 -0.000998738)
(-3.11025e-07 -2.98758e-07 -0.000998805)
(-4.84114e-07 -2.95284e-07 -0.000998936)
(-6.10071e-07 -2.90531e-07 -0.000999116)
(-6.76481e-07 -2.84942e-07 -0.000999328)
(-1.0585e-07 -4.6606e-07 -0.000998866)
(-3.07532e-07 -4.63992e-07 -0.000998932)
(-4.78754e-07 -4.58581e-07 -0.000999061)
(-6.03335e-07 -4.51176e-07 -0.000999239)
(-6.69032e-07 -4.42458e-07 -0.000999447)
(-1.0416e-07 -5.85545e-07 -0.000999041)
(-3.02683e-07 -5.82903e-07 -0.000999106)
(-4.71298e-07 -5.76032e-07 -0.000999232)
(-5.93975e-07 -5.66648e-07 -0.000999406)
(-6.58749e-07 -5.55633e-07 -0.00099961)
(-1.02141e-07 -6.46881e-07 -0.000999246)
(-2.96917e-07 -6.43932e-07 -0.00099931)
(-4.62473e-07 -6.36303e-07 -0.000999432)
(-5.82936e-07 -6.25914e-07 -0.000999601)
(-6.46728e-07 -6.13839e-07 -0.0009998)
(-1.47701e-07 -1.42627e-07 -0.000998178)
(-4.28942e-07 -1.4188e-07 -0.000998272)
(-6.67454e-07 -1.40022e-07 -0.000998453)
(-8.40959e-07 -1.37478e-07 -0.000998703)
(-9.32494e-07 -1.34491e-07 -0.000998996)
(-1.46965e-07 -4.13651e-07 -0.00099827)
(-4.2685e-07 -4.11495e-07 -0.000998363)
(-6.64259e-07 -4.06116e-07 -0.000998543)
(-8.36957e-07 -3.98769e-07 -0.000998791)
(-9.28109e-07 -3.90158e-07 -0.000999082)
(-1.45073e-07 -6.42001e-07 -0.000998447)
(-4.21438e-07 -6.38649e-07 -0.000998539)
(-6.55962e-07 -6.30275e-07 -0.000998716)
(-8.2658e-07 -6.18875e-07 -0.000998959)
(-9.16663e-07 -6.05561e-07 -0.000999246)
(-1.42457e-07 -8.05854e-07 -0.00099869)
(-4.13942e-07 -8.01606e-07 -0.000998779)
(-6.44484e-07 -7.91012e-07 -0.000998952)
(-8.12279e-07 -7.76602e-07 -0.00099919)
(-9.00906e-07 -7.59817e-07 -0.000999469)
(-1.39368e-07 -8.89289e-07 -0.000998972)
(-4.05088e-07 -8.84554e-07 -0.00099906)
(-6.30921e-07 -8.72795e-07 -0.000999227)
(-7.95384e-07 -8.56753e-07 -0.000999458)
(-8.82443e-07 -8.38158e-07 -0.00099973)
(-2.03138e-07 -1.97072e-07 -0.000997499)
(-5.89785e-07 -1.95872e-07 -0.000997628)
(-9.17364e-07 -1.92998e-07 -0.000997878)
(-1.15544e-06 -1.89088e-07 -0.000998223)
(-1.28116e-06 -1.84535e-07 -0.000998626)
(-2.01951e-07 -5.71322e-07 -0.000997626)
(-5.86409e-07 -5.67852e-07 -0.000997754)
(-9.12226e-07 -5.59528e-07 -0.000998003)
(-1.14906e-06 -5.48249e-07 -0.000998344)
(-1.27417e-06 -5.35136e-07 -0.000998745)
(-1.99021e-07 -8.85958e-07 -0.000997873)
(-5.78029e-07 -8.80555e-07 -0.000997999)
(-8.99445e-07 -8.67613e-07 -0.000998242)
(-1.1332e-06 -8.50118e-07 -0.000998577)
(-1.25668e-06 -8.29804e-07 -0.00099897)
(-1.94967e-07 -1.11074e-06 -0.000998209)
(-5.66443e-07 -1.1039e-06 -0.000998332)
(-8.81788e-07 -1.08753e-06 -0.000998569)
(-1.1113e-06 -1.06537e-06 -0.000998895)
(-1.23259e-06 -1.0396e-06 -0.000999278)
(-1.90195e-07 -1.22401e-06 -0.0009986)
(-5.52756e-07 -1.21637e-06 -0.00099872)
(-8.60856e-07 -1.19816e-06 -0.000998948)
(-1.08527e-06 -1.17338e-06 -0.000999264)
(-1.20419e-06 -1.14472e-06 -0.000999634)
(-2.79881e-07 -2.73005e-07 -0.000996561)
(-8.12162e-07 -2.71073e-07 -0.00099674)
(-1.26227e-06 -2.66609e-07 -0.000997087)
(-1.5888e-06 -2.60634e-07 -0.000997562)
(-1.7613e-06 -2.5374e-07 -0.000998118)
(-2.77964e-07 -7.91028e-07 -0.000996739)
(-8.06716e-07 -7.8541e-07 -0.000996917)
(-1.25408e-06 -7.72506e-07 -0.00099726)
(-1.57878e-06 -7.55248e-07 -0.000997731)
(-1.7503e-06 -7.35354e-07 -0.000998282)
(-2.73374e-07 -1.22526e-06 -0.000997083)
(-7.93684e-07 -1.2165e-06 -0.000997257)
(-1.23441e-06 -1.19646e-06 -0.000997593)
(-1.5546e-06 -1.16963e-06 -0.000998054)
(-1.72368e-06 -1.13872e-06 -0.000998594)
(-2.6704e-07 -1.53362e-06 -0.000997552)
(-7.75687e-07 -1.52257e-06 -0.000997721)
(-1.20721e-06 -1.49718e-06 -0.000998046)
(-1.52111e-06 -1.46315e-06 -0.000998493)
(-1.68701e-06 -1.4239e-06 -0.000999018)
(-2.59589e-07 -1.68695e-06 -0.000998095)
(-7.5441e-07 -1.67457e-06 -0.000998257)
(-1.17492e-06 -1.64623e-06 -0.00099857)
(-1.48132e-06 -1.60803e-06 -0.000999)
(-1.64365e-06 -1.56415e-06 -0.000999507)
(-3.86635e-07 -3.79387e-07 -0.000995264)
(-1.12071e-06 -3.76196e-07 -0.000995515)
(-1.73928e-06 -3.69241e-07 -0.000995996)
(-2.18647e-06 -3.60118e-07 -0.000996653)
(-2.42244e-06 -3.49721e-07 -0.000997419)
(-3.83459e-07 -1.09848e-06 -0.000995514)
(-1.11185e-06 -1.08923e-06 -0.000995762)
(-1.72626e-06 -1.06913e-06 -0.000996238)
(-2.17084e-06 -1.04272e-06 -0.000996888)
(-2.40535e-06 -1.01268e-06 -0.000997647)
(-3.76163e-07 -1.69895e-06 -0.000995998)
(-1.09141e-06 -1.68459e-06 -0.000996239)
(-1.69591e-06 -1.65335e-06 -0.000996703)
(-2.13405e-06 -1.61223e-06 -0.000997337)
(-2.36514e-06 -1.56551e-06 -0.000998079)
(-3.66128e-07 -2.12202e-06 -0.000996653)
(-1.06319e-06 -2.10394e-06 -0.000996885)
(-1.6539e-06 -2.06439e-06 -0.000997332)
(-2.08309e-06 -2.01221e-06 -0.000997946)
(-2.30974e-06 -1.95288e-06 -0.000998665)
(-3.54353e-07 -2.32852e-06 -0.000997408)
(-1.0299e-06 -2.30837e-06 -0.00099763)
(-1.60409e-06 -2.26413e-06 -0.000998057)
(-2.02254e-06 -2.20535e-06 -0.000998646)
(-2.24409e-06 -2.13852e-06 -0.000999338)
(-5.36242e-07 -5.29156e-07 -0.000993464)
(-1.55111e-06 -5.2376e-07 -0.000993819)
(-2.40088e-06 -5.12862e-07 -0.000994491)
(-3.01127e-06 -4.98897e-07 -0.000995401)
(-3.33197e-06 -4.83371e-07 -0.000996455)
(-5.30864e-07 -1.53098e-06 -0.000993819)
(-1.53657e-06 -1.51541e-06 -0.000994167)
(-2.3802e-06 -1.48379e-06 -0.000994831)
(-2.98707e-06 -1.44333e-06 -0.00099573)
(-3.30582e-06 -1.39842e-06 -0.000996773)
(-5.18992e-07 -2.36358e-06 -0.000994501)
(-1.50397e-06 -2.33948e-06 -0.000994838)
(-2.3331e-06 -2.29025e-06 -0.000995482)
(-2.93138e-06 -2.22724e-06 -0.000996357)
(-3.24576e-06 -2.15736e-06 -0.000997377)