/*--------------------------------*- C++ -*----------------------------------*\
| =========                 |                                                 |
| \\      /  F ield         | OpenFOAM: The Open Source CFD Toolbox           |
|  \\    /   O peration     | Version:  5.x                                   |
|   \\  /    A nd           | Web:      www.OpenFOAM.org                      |
|    \\/     M anipulation  |                                                 |
\*---------------------------------------------------------------------------*/
FoamFile
{
    version     2.0;
    format      ascii;
    class       volVectorField;
    location    "20000";
    object      stored_U;
}
// * * * * * * * * * * * * * * * * * * * * * * * * * * * * * * * * * * * * * //

dimensions      [0 1 -1 0 0 0 0];

internalField   nonuniform List<vector> 
2250
(
(-6.96198e-11 1.45679e-10 -0.001)
(-1.32894e-11 1.67862e-10 -0.001)
(-2.03953e-11 1.74013e-10 -0.001)
(5.7995e-12 1.69301e-10 -0.001)
(1.15373e-12 1.57824e-10 -0.001)
(-4.23075e-11 1.67533e-10 -0.000999999)
(-3.85406e-11 1.4117e-10 -0.000999999)
(-2.50297e-11 1.53318e-10 -0.000999999)
(-1.46579e-11 1.35331e-10 -0.000999999)
(-9.10143e-12 1.18727e-10 -0.001)
(-4.79894e-11 9.00971e-11 -0.000999999)
(-2.74916e-11 9.79454e-11 -0.000999999)
(-2.62191e-11 1.02418e-10 -0.000999999)
(-2.85617e-11 8.94139e-11 -0.000999999)
(-1.51952e-11 8.08624e-11 -0.000999999)
(-3.78032e-11 4.71095e-11 -0.000999999)
(-2.62113e-11 5.67863e-11 -0.000999999)
(-3.35559e-11 5.18282e-11 -0.000999999)
(-3.60613e-11 4.4231e-11 -0.000999999)
(-1.7486e-11 4.14941e-11 -0.000999999)
(-3.39283e-11 1.08433e-11 -0.000999999)
(-2.26771e-11 1.70782e-11 -0.000999999)
(-3.86733e-11 1.42638e-11 -0.000999999)
(-3.87266e-11 1.18757e-11 -0.000999999)
(-1.78153e-11 1.14905e-11 -0.000999999)
(-2.18027e-10 3.95174e-10 -0.001)
(-7.22092e-11 4.67155e-10 -0.001)
(-8.892e-11 4.83951e-10 -0.001)
(-3.76579e-11 4.75532e-10 -0.001)
(-2.13283e-11 4.52471e-10 -0.001)
(-1.49086e-10 4.59683e-10 -0.000999999)
(-1.25477e-10 4.04235e-10 -0.000999999)
(-1.07636e-10 4.16418e-10 -0.001)
(-8.21244e-11 3.76306e-10 -0.001)
(-4.08838e-11 3.46353e-10 -0.001)
(-1.50263e-10 2.75688e-10 -0.000999999)
(-1.15506e-10 2.85285e-10 -0.000999999)
(-1.1685e-10 2.86318e-10 -0.000999999)
(-1.07099e-10 2.60891e-10 -0.000999999)
(-5.06374e-11 2.47839e-10 -0.000999999)
(-1.32697e-10 1.57021e-10 -0.000999999)
(-1.14845e-10 1.71342e-10 -0.000999999)
(-1.32016e-10 1.56365e-10 -0.000999999)
(-1.20164e-10 1.39887e-10 -0.000999999)
(-5.34866e-11 1.38425e-10 -0.000999999)
(-1.32061e-10 4.7942e-11 -0.000999999)
(-1.15821e-10 5.65946e-11 -0.000999999)
(-1.47955e-10 4.66065e-11 -0.000999999)
(-1.24515e-10 4.03552e-11 -0.000999999)
(-5.17408e-11 4.19147e-11 -0.000999999)
(-3.96553e-10 6.62574e-10 -0.001)
(-2.32101e-10 7.77236e-10 -0.001)
(-2.28678e-10 8.07995e-10 -0.001)
(-1.56803e-10 8.03258e-10 -0.001)
(-6.80466e-11 7.84532e-10 -0.001)
(-3.12279e-10 7.22748e-10 -0.000999999)
(-2.50182e-10 6.87681e-10 -0.000999999)
(-2.44692e-10 6.88121e-10 -0.001)
(-1.92047e-10 6.52984e-10 -0.001)
(-8.29497e-11 6.30353e-10 -0.001)
(-2.96561e-10 5.23775e-10 -0.000999999)
(-2.66691e-10 5.09361e-10 -0.000999999)
(-2.63354e-10 4.94748e-10 -0.000999999)
(-2.13448e-10 4.70832e-10 -0.000999999)
(-8.95702e-11 4.64897e-10 -0.001)
(-2.8982e-10 3.22779e-10 -0.000999999)
(-2.79196e-10 3.13442e-10 -0.000999999)
(-2.83197e-10 2.88603e-10 -0.000999999)
(-2.21046e-10 2.75913e-10 -0.000999999)
(-8.80367e-11 2.80383e-10 -0.000999999)
(-3.04262e-10 1.13699e-10 -0.000999999)
(-3.00127e-10 1.06137e-10 -0.000999999)
(-3.0022e-10 9.2055e-11 -0.000999999)
(-2.20677e-10 8.85157e-11 -0.000999999)
(-8.44026e-11 9.18159e-11 -0.000999999)
(-5.47388e-10 1.07769e-09 -0.001)
(-4.92715e-10 1.16412e-09 -0.001)
(-4.19616e-10 1.19219e-09 -0.001)
(-3.01591e-10 1.19678e-09 -0.001)
(-1.15591e-10 1.1888e-09 -0.001)
(-5.1827e-10 1.01616e-09 -0.000999999)
(-4.42182e-10 1.03482e-09 -0.001)
(-4.18798e-10 1.02334e-09 -0.001)
(-3.09446e-10 1.01206e-09 -0.001)
(-1.19091e-10 1.00482e-09 -0.001)
(-5.06752e-10 8.4e-10 -0.000999999)
(-4.85474e-10 7.99304e-10 -0.000999999)
(-4.42337e-10 7.70382e-10 -0.000999999)
(-3.18282e-10 7.58565e-10 -0.001)
(-1.21034e-10 7.57997e-10 -0.001)
(-5.20838e-10 5.3266e-10 -0.000999999)
(-5.11782e-10 5.02007e-10 -0.000999999)
(-4.59499e-10 4.76851e-10 -0.000999999)
(-3.20383e-10 4.70722e-10 -0.000999999)
(-1.1822e-10 4.76898e-10 -0.000999999)
(-5.42156e-10 1.88985e-10 -0.000999998)
(-5.40068e-10 1.72401e-10 -0.000999999)
(-4.7262e-10 1.59546e-10 -0.000999999)
(-3.16667e-10 1.58357e-10 -0.000999999)
(-1.13713e-10 1.62365e-10 -0.000999999)
(-6.88101e-10 1.68435e-09 -0.001)
(-7.8508e-10 1.68642e-09 -0.001)
(-6.29261e-10 1.68576e-09 -0.001)
(-4.32611e-10 1.6911e-09 -0.001)
(-1.55371e-10 1.69102e-09 -0.001)
(-7.60919e-10 1.43172e-09 -0.000999999)
(-7.08437e-10 1.4714e-09 -0.001)
(-6.142e-10 1.46449e-09 -0.001)
(-4.20165e-10 1.46938e-09 -0.001)
(-1.50414e-10 1.46991e-09 -0.001)
(-7.91638e-10 1.21785e-09 -0.000999999)
(-7.52397e-10 1.17107e-09 -0.000999999)
(-6.31191e-10 1.14476e-09 -0.000999999)
(-4.24444e-10 1.13606e-09 -0.000999999)
(-1.52137e-10 1.13241e-09 -0.001)
(-8.15675e-10 7.84679e-10 -0.000999998)
(-7.81489e-10 7.52093e-10 -0.000999999)
(-6.49157e-10 7.27776e-10 -0.000999999)
(-4.30297e-10 7.19961e-10 -0.000999999)
(-1.51841e-10 7.22583e-10 -0.000999999)
(-8.34906e-10 2.74689e-10 -0.000999998)
(-8.07585e-10 2.594e-10 -0.000999998)
(-6.61965e-10 2.46979e-10 -0.000999999)
(-4.27365e-10 2.45337e-10 -0.000999999)
(-1.47777e-10 2.48593e-10 -0.000999999)
(-9.27483e-10 2.46612e-09 -0.001)
(-1.10214e-09 2.38194e-09 -0.001)
(-8.61991e-10 2.34684e-09 -0.001)
(-5.72674e-10 2.34963e-09 -0.001)
(-2.01788e-10 2.34471e-09 -0.001)
(-1.05591e-09 2.01979e-09 -0.000999999)
(-1.04891e-09 2.06245e-09 -0.000999999)
(-8.43891e-10 2.06314e-09 -0.001)
(-5.59746e-10 2.06679e-09 -0.001)
(-1.98164e-10 2.06264e-09 -0.001)
(-1.14139e-09 1.6813e-09 -0.000999998)
(-1.05878e-09 1.66237e-09 -0.000999999)
(-8.57651e-10 1.63789e-09 -0.000999999)
(-5.69236e-10 1.62286e-09 -0.000999999)
(-2.02021e-10 1.61739e-09 -0.000999999)
(-1.16929e-09 1.10332e-09 -0.000999998)
(-1.0923e-09 1.07039e-09 -0.000999998)
(-8.83329e-10 1.04188e-09 -0.000999999)
(-5.7705e-10 1.03493e-09 -0.000999999)
(-2.00454e-10 1.03947e-09 -0.000999999)
(-1.18799e-09 3.80659e-10 -0.000999998)
(-1.11794e-09 3.64997e-10 -0.000999998)
(-8.91294e-10 3.52855e-10 -0.000999998)
(-5.68462e-10 3.5532e-10 -0.000999999)
(-1.95078e-10 3.59623e-10 -0.000999999)
(-1.42327e-09 3.383e-09 -0.001)
(-1.45871e-09 3.30444e-09 -0.001)
(-1.16185e-09 3.25899e-09 -0.001)
(-7.61829e-10 3.2528e-09 -0.001)
(-2.68363e-10 3.23738e-09 -0.001)
(-1.47421e-09 2.8965e-09 -0.000999999)
(-1.47879e-09 2.89619e-09 -0.000999999)
(-1.16166e-09 2.89164e-09 -0.001)
(-7.60729e-10 2.88496e-09 -0.001)
(-2.69273e-10 2.87747e-09 -0.001)
(-1.59211e-09 2.30688e-09 -0.000999998)
(-1.46358e-09 2.3109e-09 -0.000999998)
(-1.17301e-09 2.29174e-09 -0.000999999)
(-7.70385e-10 2.27901e-09 -0.000999999)
(-2.70304e-10 2.27995e-09 -0.000999999)
(-1.62245e-09 1.50353e-09 -0.000999997)
(-1.49389e-09 1.47767e-09 -0.000999998)
(-1.19344e-09 1.4585e-09 -0.000999998)
(-7.68013e-10 1.46398e-09 -0.000999999)
(-2.63906e-10 1.47286e-09 -0.000999999)
(-1.64203e-09 5.11536e-10 -0.000999997)
(-1.50559e-09 4.99638e-10 -0.000999997)
(-1.18427e-09 4.96911e-10 -0.000999998)
(-7.51634e-10 5.06457e-10 -0.000999998)
(-2.58099e-10 5.10778e-10 -0.000999998)
(-2.15112e-09 4.53984e-09 -0.001)
(-1.97398e-09 4.52946e-09 -0.001)
(-1.5738e-09 4.50502e-09 -0.001)
(-1.01686e-09 4.48531e-09 -0.001)
(-3.54275e-10 4.46024e-09 -0.001)
(-2.131e-09 4.07973e-09 -0.000999998)
(-2.01263e-09 4.05103e-09 -0.000999999)
(-1.5955e-09 4.03477e-09 -0.001)
(-1.03044e-09 4.0201e-09 -0.001)
(-3.59534e-10 4.01236e-09 -0.001)
(-2.2112e-09 3.20393e-09 -0.000999997)
(-2.01894e-09 3.19544e-09 -0.000999998)
(-1.60462e-09 3.18765e-09 -0.000999998)
(-1.03137e-09 3.18829e-09 -0.000999999)
(-3.5423e-10 3.19528e-09 -0.000999999)
(-2.23606e-09 2.03666e-09 -0.000999996)
(-2.02884e-09 2.03531e-09 -0.000999997)
(-1.6025e-09 2.04262e-09 -0.000999998)
(-1.01651e-09 2.06104e-09 -0.000999998)
(-3.4638e-10 2.06755e-09 -0.000999998)
(-2.24295e-09 6.8818e-10 -0.000999996)
(-2.00897e-09 6.91889e-10 -0.000999997)
(-1.57567e-09 7.04077e-10 -0.000999997)
(-1.00039e-09 7.15539e-10 -0.000999997)
(-3.43094e-10 7.1678e-10 -0.000999998)
(-3.01665e-09 6.18979e-09 -0.001)
(-2.75299e-09 6.18258e-09 -0.001)
(-2.13352e-09 6.17894e-09 -0.001)
(-1.36171e-09 6.14996e-09 -0.001)
(-4.69158e-10 6.12623e-09 -0.001)
(-3.05077e-09 5.59374e-09 -0.000999998)
(-2.72574e-09 5.61006e-09 -0.000999999)
(-2.16456e-09 5.58527e-09 -0.000999999)
(-1.38116e-09 5.56711e-09 -0.001)
(-4.7265e-10 5.56102e-09 -0.001)
(-3.06578e-09 4.44456e-09 -0.000999996)
(-2.76146e-09 4.42345e-09 -0.000999997)
(-2.17632e-09 4.421e-09 -0.000999998)
(-1.37499e-09 4.43048e-09 -0.000999998)
(-4.64471e-10 4.43284e-09 -0.000999999)
(-3.07643e-09 2.80349e-09 -0.000999995)
(-2.74921e-09 2.82663e-09 -0.000999996)
(-2.15733e-09 2.85109e-09 -0.000999997)
(-1.36056e-09 2.86784e-09 -0.000999997)
(-4.61747e-10 2.86351e-09 -0.000999997)
(-3.06235e-09 9.5411e-10 -0.000999994)
(-2.70847e-09 9.72305e-10 -0.000999995)
(-2.13078e-09 9.89462e-10 -0.000999996)
(-1.35425e-09 9.94582e-10 -0.000999996)
(-4.62401e-10 9.91124e-10 -0.000999997)
(-4.0734e-09 8.53067e-09 -0.000999999)
(-3.82061e-09 8.42622e-09 -0.001)
(-2.89852e-09 8.43192e-09 -0.001)
(-1.84165e-09 8.40306e-09 -0.001)
(-6.26929e-10 8.38672e-09 -0.001)
(-4.23243e-09 7.61056e-09 -0.000999997)
(-3.72019e-09 7.69824e-09 -0.000999998)
(-2.93311e-09 7.66111e-09 -0.000999999)
(-1.85585e-09 7.64491e-09 -0.001)
(-6.26228e-10 7.63281e-09 -0.001)
(-4.22519e-09 6.11542e-09 -0.000999994)
(-3.77006e-09 6.09343e-09 -0.000999996)
(-2.95163e-09 6.08381e-09 -0.000999997)
(-1.8549e-09 6.08753e-09 -0.000999998)
(-6.24247e-10 6.07177e-09 -0.000999998)
(-4.22877e-09 3.89024e-09 -0.000999993)
(-3.75168e-09 3.9141e-09 -0.000999994)
(-2.93874e-09 3.92969e-09 -0.000999995)
(-1.85587e-09 3.92958e-09 -0.000999996)
(-6.30223e-10 3.90898e-09 -0.000999996)
(-4.21175e-09 1.34227e-09 -0.000999992)
(-3.72321e-09 1.35569e-09 -0.000999993)
(-2.9302e-09 1.36341e-09 -0.000999994)
(-1.86421e-09 1.35841e-09 -0.000999995)
(-6.36058e-10 1.34875e-09 -0.000999996)
(-5.56093e-09 1.16877e-08 -0.000999999)
(-5.18536e-09 1.15267e-08 -0.001)
(-3.97392e-09 1.14921e-08 -0.001)
(-2.5137e-09 1.14594e-08 -0.001)
(-8.49033e-10 1.1435e-08 -0.001)
(-5.76248e-09 1.04009e-08 -0.000999995)
(-5.1254e-09 1.04696e-08 -0.000999997)
(-4.00547e-09 1.04297e-08 -0.000999999)
(-2.53003e-09 1.04108e-08 -0.001)
(-8.53637e-10 1.03761e-08 -0.001)
(-5.78691e-09 8.32717e-09 -0.000999992)
(-5.15656e-09 8.31772e-09 -0.000999994)
(-4.03241e-09 8.29344e-09 -0.000999996)
(-2.54676e-09 8.2772e-09 -0.000999997)
(-8.63534e-10 8.23731e-09 -0.000999997)
(-5.80675e-09 5.3596e-09 -0.00099999)
(-5.15895e-09 5.35841e-09 -0.000999992)
(-4.04561e-09 5.34611e-09 -0.000999993)
(-2.56979e-09 5.32271e-09 -0.000999994)
(-8.77435e-10 5.28666e-09 -0.000999995)
(-5.80141e-09 1.85845e-09 -0.000999989)
(-5.1598e-09 1.85566e-09 -0.000999991)
(-4.05989e-09 1.84752e-09 -0.000999992)
(-2.59065e-09 1.83341e-09 -0.000999993)
(-8.87556e-10 1.81807e-09 -0.000999994)
(-7.70187e-09 1.58811e-08 -0.000999998)
(-7.02198e-09 1.57267e-08 -0.001)
(-5.46809e-09 1.5654e-08 -0.001)
(-3.46909e-09 1.56083e-08 -0.001)
(-1.179e-09 1.55617e-08 -0.001)
(-7.84949e-09 1.42015e-08 -0.000999993)
(-7.03236e-09 1.42008e-08 -0.000999996)
(-5.50924e-09 1.41544e-08 -0.000999998)
(-3.49958e-09 1.41189e-08 -0.000999999)
(-1.19247e-09 1.406e-08 -0.001)
(-7.91183e-09 1.13191e-08 -0.000999989)
(-7.06903e-09 1.12904e-08 -0.000999992)
(-5.54956e-09 1.1247e-08 -0.000999994)
(-3.53566e-09 1.1206e-08 -0.000999995)
(-1.21042e-09 1.11499e-08 -0.000999996)
(-7.95476e-09 7.29761e-09 -0.000999986)
(-7.10423e-09 7.27005e-09 -0.000999989)
(-5.5931e-09 7.22743e-09 -0.000999991)
(-3.57443e-09 7.18706e-09 -0.000999992)
(-1.22665e-09 7.14708e-09 -0.000999993)
(-7.95934e-09 2.52282e-09 -0.000999985)
(-7.12514e-09 2.50956e-09 -0.000999987)
(-5.62127e-09 2.48812e-09 -0.000999989)
(-3.5948e-09 2.47049e-09 -0.000999991)
(-1.23399e-09 2.45602e-09 -0.000999992)
(-1.06361e-08 2.15231e-08 -0.000999998)
(-9.58934e-09 2.14047e-08 -0.001)
(-7.54051e-09 2.13196e-08 -0.001)
(-4.82006e-09 2.12643e-08 -0.00100001)
(-1.65357e-09 2.11952e-08 -0.00100001)
(-1.07392e-08 1.93363e-08 -0.000999991)
(-9.64534e-09 1.92883e-08 -0.000999994)
(-7.59605e-09 1.92267e-08 -0.000999997)
(-4.85567e-09 1.91749e-08 -0.000999999)
(-1.6666e-09 1.91051e-08 -0.001)
(-1.08172e-08 1.53691e-08 -0.000999986)
(-9.69896e-09 1.53173e-08 -0.000999989)
(-7.65331e-09 1.52523e-08 -0.000999992)
(-4.90355e-09 1.51956e-08 -0.000999994)
(-1.68575e-09 1.5135e-08 -0.000999995)
(-1.0876e-08 9.88835e-09 -0.000999981)
(-9.76183e-09 9.8445e-09 -0.000999985)
(-7.71702e-09 9.78262e-09 -0.000999988)
(-4.94267e-09 9.74177e-09 -0.00099999)
(-1.69733e-09 9.70882e-09 -0.000999991)
(-1.08867e-08 3.40573e-09 -0.000999979)
(-9.7855e-09 3.38877e-09 -0.000999983)
(-7.74061e-09 3.36328e-09 -0.000999986)
(-4.94841e-09 3.35027e-09 -0.000999988)
(-1.69638e-09 3.3415e-09 -0.000999989)
(-1.46259e-08 2.92163e-08 -0.000999997)
(-1.31233e-08 2.91228e-08 -0.001)
(-1.03746e-08 2.90366e-08 -0.00100001)
(-6.64905e-09 2.89686e-08 -0.00100001)
(-2.28549e-09 2.88666e-08 -0.00100001)
(-1.47024e-08 2.63279e-08 -0.000999988)
(-1.3212e-08 2.62432e-08 -0.000999993)
(-1.04446e-08 2.61622e-08 -0.000999996)
(-6.69584e-09 2.60953e-08 -0.000999999)
(-2.30282e-09 2.60098e-08 -0.001)
(-1.47843e-08 2.08932e-08 -0.00099998)
(-1.3289e-08 2.08178e-08 -0.000999985)
(-1.05217e-08 2.07323e-08 -0.000999989)
(-6.74961e-09 2.06703e-08 -0.000999992)
(-2.31976e-09 2.0606e-08 -0.000999993)
(-1.48587e-08 1.34271e-08 -0.000999975)
(-1.33724e-08 1.3366e-08 -0.000999979)
(-1.05911e-08 1.33007e-08 -0.000999983)
(-6.78082e-09 1.32679e-08 -0.000999986)
(-2.32654e-09 1.32365e-08 -0.000999988)
(-1.48784e-08 4.61929e-09 -0.000999972)
(-1.33892e-08 4.59694e-09 -0.000999977)
(-1.05987e-08 4.57697e-09 -0.000999981)
(-6.77434e-09 4.56901e-09 -0.000999983)
(-2.32074e-09 4.56152e-09 -0.000999985)
(-1.99867e-08 3.97584e-08 -0.000999996)
(-1.79139e-08 3.96488e-08 -0.001)
(-1.41939e-08 3.95317e-08 -0.00100001)
(-9.10256e-09 3.9429e-08 -0.00100001)
(-3.12964e-09 3.92845e-08 -0.00100001)
(-2.00808e-08 3.58798e-08 -0.000999984)
(-1.80543e-08 3.57424e-08 -0.00099999)
(-1.43041e-08 3.56219e-08 -0.000999995)
(-9.18089e-09 3.55279e-08 -0.000999999)
(-3.15878e-09 3.54133e-08 -0.001)
(-2.01929e-08 2.84647e-08 -0.000999973)
(-1.81717e-08 2.83513e-08 -0.00099998)
(-1.44074e-08 2.82429e-08 -0.000999985)
(-9.2405e-09 2.81728e-08 -0.000999989)
(-3.17444e-09 2.80916e-08 -0.000999991)
(-2.02981e-08 1.82915e-08 -0.000999966)
(-1.82755e-08 1.8207e-08 -0.000999972)
(-1.44812e-08 1.81414e-08 -0.000999978)
(-9.27577e-09 1.81028e-08 -0.000999981)
(-3.18458e-09 1.80566e-08 -0.000999983)
(-2.03264e-08 6.29397e-09 -0.000999962)
(-1.82863e-08 6.26489e-09 -0.000999968)
(-1.44829e-08 6.24835e-09 -0.000999974)
(-9.2713e-09 6.23543e-09 -0.000999977)
(-3.17897e-09 6.22289e-09 -0.00099998)
(-2.72198e-08 5.42061e-08 -0.000999995)
(-2.44072e-08 5.40177e-08 -0.001)
(-1.93747e-08 5.38215e-08 -0.00100001)
(-1.24441e-08 5.36682e-08 -0.00100002)
(-4.28314e-09 5.34821e-08 -0.00100002)
(-2.73984e-08 4.89607e-08 -0.000999978)
(-2.4649e-08 4.87235e-08 -0.000999987)
(-1.95525e-08 4.85334e-08 -0.000999994)
(-1.25517e-08 4.83999e-08 -0.000999999)
(-4.31674e-09 4.82444e-08 -0.001)
(-2.75881e-08 3.88427e-08 -0.000999964)
(-2.48345e-08 3.86662e-08 -0.000999973)
(-1.96969e-08 3.85198e-08 -0.00099998)
(-1.26368e-08 3.84175e-08 -0.000999985)
(-4.34361e-09 3.82941e-08 -0.000999988)
(-2.7743e-08 2.49578e-08 -0.000999954)
(-2.49711e-08 2.48438e-08 -0.000999962)
(-1.97994e-08 2.47539e-08 -0.00099997)
(-1.27006e-08 2.4685e-08 -0.000999975)
(-4.36461e-09 2.46102e-08 -0.000999978)
(-2.77763e-08 8.58952e-09 -0.000999948)
(-2.49899e-08 8.55293e-09 -0.000999957)
(-1.98165e-08 8.52312e-09 -0.000999964)
(-1.27068e-08 8.49782e-09 -0.00099997)
(-4.36165e-09 8.476e-09 -0.000999972)
(-3.70789e-08 7.39607e-08 -0.000999993)
(-3.32864e-08 7.36294e-08 -0.001)
(-2.64393e-08 7.33109e-08 -0.00100001)
(-1.69712e-08 7.30778e-08 -0.00100002)
(-5.83359e-09 7.28104e-08 -0.00100003)
(-3.74089e-08 6.6842e-08 -0.000999971)
(-3.36714e-08 6.64547e-08 -0.000999982)
(-2.67129e-08 6.61594e-08 -0.000999992)
(-1.71396e-08 6.59487e-08 -0.000999999)
(-5.89103e-09 6.57059e-08 -0.001)
(-3.7726e-08 5.30309e-08 -0.000999951)
(-3.3969e-08 5.27522e-08 -0.000999963)
(-2.69434e-08 5.25229e-08 -0.000999973)
(-1.72934e-08 5.23463e-08 -0.00099998)
(-5.94684e-09 5.2153e-08 -0.000999984)
(-3.79601e-08 3.40694e-08 -0.000999937)
(-3.41782e-08 3.38952e-08 -0.000999949)
(-2.71163e-08 3.37392e-08 -0.000999959)
(-1.74047e-08 3.36235e-08 -0.000999966)
(-5.98129e-09 3.35072e-08 -0.00099997)
(-3.8016e-08 1.17279e-08 -0.00099993)
(-3.42328e-08 1.16675e-08 -0.000999942)
(-2.71614e-08 1.16083e-08 -0.000999952)
(-1.74249e-08 1.15704e-08 -0.000999959)
(-5.98569e-09 1.15322e-08 -0.000999963)
(-5.05665e-08 1.00885e-07 -0.000999991)
(-4.54317e-08 1.00338e-07 -0.00100001)
(-3.60455e-08 9.98301e-08 -0.00100002)
(-2.31077e-08 9.94465e-08 -0.00100003)
(-7.9345e-09 9.90325e-08 -0.00100003)
(-5.11148e-08 9.11952e-08 -0.00099996)
(-4.60174e-08 9.06016e-08 -0.000999976)
(-3.64949e-08 9.01239e-08 -0.000999989)
(-2.34138e-08 8.97621e-08 -0.000999999)
(-8.04933e-09 8.93823e-08 -0.001)
(-5.16267e-08 7.23765e-08 -0.000999934)
(-4.65029e-08 7.19224e-08 -0.00099995)
(-3.68824e-08 7.15374e-08 -0.000999963)
(-2.36706e-08 7.12466e-08 -0.000999973)
(-8.13773e-09 7.09636e-08 -0.000999979)
(-5.2002e-08 4.6499e-08 -0.000999914)
(-4.68549e-08 4.62e-08 -0.000999931)
(-3.71674e-08 4.59412e-08 -0.000999944)
(-2.38449e-08 4.5764e-08 -0.000999954)
(-8.19195e-09 4.55865e-08 -0.00099996)
(-5.21183e-08 1.60063e-08 -0.000999904)
(-4.69696e-08 1.58955e-08 -0.000999921)
(-3.7245e-08 1.58026e-08 -0.000999935)
(-2.38882e-08 1.57468e-08 -0.000999945)
(-8.20969e-09 1.5683e-08 -0.00099995)
(-6.89249e-08 1.37582e-07 -0.000999988)
(-6.19936e-08 1.36663e-07 -0.00100001)
(-4.9146e-08 1.35846e-07 -0.00100003)
(-3.15213e-08 1.35233e-07 -0.00100004)
(-1.08346e-08 1.34639e-07 -0.00100005)
(-6.9841e-08 1.2432e-07 -0.000999946)
(-6.28916e-08 1.23415e-07 -0.000999968)
(-4.98682e-08 1.22647e-07 -0.000999986)
(-3.19956e-08 1.22075e-07 -0.000999999)
(-1.10009e-08 1.21541e-07 -0.00100001)
(-7.06714e-08 9.87147e-08 -0.00099991)
(-6.36669e-08 9.79802e-08 -0.000999932)
(-5.04829e-08 9.73613e-08 -0.000999951)
(-3.2384e-08 9.69146e-08 -0.000999964)
(-1.11283e-08 9.65038e-08 -0.000999971)
(-7.12826e-08 6.34204e-08 -0.000999884)
(-6.42428e-08 6.29327e-08 -0.000999906)
(-5.09293e-08 6.25322e-08 -0.000999925)
(-3.26588e-08 6.2255e-08 -0.000999939)
(-1.12204e-08 6.1979e-08 -0.000999946)
(-7.14901e-08 2.18216e-08 -0.00099987)
(-6.44307e-08 2.16474e-08 -0.000999893)
(-5.10601e-08 2.1512e-08 -0.000999912)
(-3.27502e-08 2.14195e-08 -0.000999925)
(-1.12604e-08 2.13166e-08 -0.000999933)
(-9.3872e-08 1.87624e-07 -0.000999984)
(-8.45535e-08 1.86096e-07 -0.00100001)
(-6.70386e-08 1.84796e-07 -0.00100004)
(-4.30129e-08 1.83852e-07 -0.00100006)
(-1.479e-08 1.83009e-07 -0.00100006)
(-9.54021e-08 1.69438e-07 -0.000999927)
(-8.59453e-08 1.68026e-07 -0.000999956)
(-6.81342e-08 1.66839e-07 -0.000999981)
(-4.37029e-08 1.65978e-07 -0.000999999)
(-1.50212e-08 1.65216e-07 -0.00100001)
(-9.6752e-08 1.34573e-07 -0.000999878)
(-8.71522e-08 1.33422e-07 -0.000999908)
(-6.90819e-08 1.3246e-07 -0.000999933)
(-4.43042e-08 1.31766e-07 -0.000999952)
(-1.52241e-08 1.31143e-07 -0.000999962)
(-9.77336e-08 8.64617e-08 -0.000999842)
(-8.80553e-08 8.57087e-08 -0.000999873)
(-6.97847e-08 8.5083e-08 -0.000999899)
(-4.47558e-08 8.46267e-08 -0.000999917)
(-1.53836e-08 8.41985e-08 -0.000999927)
(-9.80775e-08 2.97431e-08 -0.000999823)
(-8.83608e-08 2.94842e-08 -0.000999854)
(-7.00266e-08 2.92713e-08 -0.00099988)
(-4.49338e-08 2.91097e-08 -0.000999899)
(-1.54562e-08 2.89515e-08 -0.00099991)
(-1.27918e-07 2.55774e-07 -0.000999979)
(-1.1525e-07 2.5337e-07 -0.00100002)
(-9.13748e-08 2.51327e-07 -0.00100005)
(-5.86068e-08 2.49849e-07 -0.00100008)
(-2.01454e-08 2.48596e-07 -0.00100009)
(-1.30351e-07 2.30964e-07 -0.000999901)
(-1.17438e-07 2.2873e-07 -0.000999941)
(-9.30716e-08 2.26882e-07 -0.000999975)
(-5.96908e-08 2.25532e-07 -0.001)
(-2.05168e-08 2.24382e-07 -0.00100001)
(-1.32499e-07 1.83447e-07 -0.000999834)
(-1.19332e-07 1.81649e-07 -0.000999875)
(-9.45657e-08 1.80133e-07 -0.00099991)
(-6.06558e-08 1.79019e-07 -0.000999936)
(-2.08499e-08 1.78071e-07 -0.000999949)
(-1.34067e-07 1.17881e-07 -0.000999785)
(-1.20748e-07 1.16702e-07 -0.000999827)
(-9.56928e-08 1.15697e-07 -0.000999863)
(-6.13928e-08 1.14949e-07 -0.000999889)
(-2.11103e-08 1.14317e-07 -0.000999903)
(-1.34657e-07 4.05611e-08 -0.00099976)
(-1.21283e-07 4.01497e-08 -0.000999802)
(-9.61302e-08 3.97988e-08 -0.000999838)
(-6.16886e-08 3.95312e-08 -0.000999864)
(-2.12151e-08 3.93096e-08 -0.000999878)
(-1.74471e-07 3.48502e-07 -0.000999972)
(-1.56992e-07 3.4484e-07 -0.00100003)
(-1.24437e-07 3.41658e-07 -0.00100007)
(-7.98158e-08 3.39335e-07 -0.0010001)
(-2.74448e-08 3.37462e-07 -0.00100012)
(-1.78218e-07 3.14892e-07 -0.000999865)
(-1.60466e-07 3.11347e-07 -0.00099992)
(-1.27143e-07 3.08401e-07 -0.000999967)
(-8.15508e-08 3.0624e-07 -0.001)
(-2.80374e-08 3.04511e-07 -0.00100002)
(-1.81572e-07 2.50131e-07 -0.000999774)
(-1.63482e-07 2.4728e-07 -0.000999831)
(-1.29534e-07 2.44857e-07 -0.000999879)
(-8.30926e-08 2.43074e-07 -0.000999914)
(-2.85669e-08 2.41664e-07 -0.000999932)
(-1.84071e-07 1.60754e-07 -0.000999708)
(-1.65735e-07 1.58873e-07 -0.000999766)
(-1.31338e-07 1.57262e-07 -0.000999815)
(-8.42537e-08 1.56082e-07 -0.00099985)
(-2.89645e-08 1.55168e-07 -0.000999869)
(-1.85083e-07 5.53254e-08 -0.000999673)
(-1.66656e-07 5.46603e-08 -0.000999731)
(-1.32068e-07 5.40942e-08 -0.000999781)
(-8.47127e-08 5.3683e-08 -0.000999817)
(-2.91169e-08 5.33714e-08 -0.000999836)
(-2.37953e-07 4.74826e-07 -0.000999963)
(-2.13837e-07 4.69177e-07 -0.00100004)
(-1.6941e-07 4.64236e-07 -0.0010001)
(-1.08664e-07 4.60615e-07 -0.00100014)
(-3.73721e-08 4.57822e-07 -0.00100017)
(-2.43767e-07 4.29336e-07 -0.000999817)
(-2.19298e-07 4.23762e-07 -0.000999893)
(-1.7371e-07 4.19067e-07 -0.000999957)
(-1.11403e-07 4.15636e-07 -0.001)
(-3.82977e-08 4.13055e-07 -0.00100003)
(-2.49022e-07 3.4116e-07 -0.000999693)
(-2.24107e-07 3.36616e-07 -0.000999771)
(-1.77524e-07 3.32747e-07 -0.000999837)
(-1.13841e-07 3.29928e-07 -0.000999885)
(-3.91269e-08 3.27827e-07 -0.00099991)
(-2.52999e-07 2.19298e-07 -0.000999602)
(-2.27703e-07 2.16303e-07 -0.000999682)
(-1.80382e-07 2.13749e-07 -0.00099975)
(-1.15657e-07 2.11904e-07 -0.000999799)
(-3.9742e-08 2.10525e-07 -0.000999825)
(-2.54685e-07 7.54814e-08 -0.000999555)
(-2.2922e-07 7.44309e-08 -0.000999635)
(-1.81572e-07 7.35413e-08 -0.000999704)
(-1.1642e-07 7.29037e-08 -0.000999753)
(-4.00103e-08 7.24184e-08 -0.00099978)
(-3.24286e-07 6.47091e-07 -0.000999951)
(-2.91268e-07 6.382e-07 -0.00100005)
(-2.30541e-07 6.30483e-07 -0.00100013)
(-1.4779e-07 6.24825e-07 -0.00100019)
(-5.08055e-08 6.20629e-07 -0.00100023)
(-3.3347e-07 5.85365e-07 -0.000999753)
(-2.99783e-07 5.7665e-07 -0.000999856)
(-2.37317e-07 5.69216e-07 -0.000999943)
(-1.52115e-07 5.63799e-07 -0.00100001)
(-5.22732e-08 5.5989e-07 -0.00100004)
(-3.41811e-07 4.65459e-07 -0.000999583)
(-3.07417e-07 4.58235e-07 -0.00099969)
(-2.43375e-07 4.52083e-07 -0.00099978)
(-1.55981e-07 4.47612e-07 -0.000999846)
(-5.3591e-08 4.44391e-07 -0.000999881)
(-3.48147e-07 2.99336e-07 -0.000999459)
(-3.13148e-07 2.94573e-07 -0.000999569)
(-2.47918e-07 2.90518e-07 -0.000999662)
(-1.58901e-07 2.87552e-07 -0.000999729)
(-5.45999e-08 2.85401e-07 -0.000999766)
(-3.50926e-07 1.03056e-07 -0.000999394)
(-3.15639e-07 1.01399e-07 -0.000999505)
(-2.49916e-07 9.99864e-08 -0.0009996)
(-1.60219e-07 9.89397e-08 -0.000999668)
(-5.50661e-08 9.81778e-08 -0.000999705)
(-4.41558e-07 8.81922e-07 -0.000999936)
(-3.96438e-07 8.67853e-07 -0.00100007)
(-3.13412e-07 8.55739e-07 -0.00100018)
(-2.00741e-07 8.46838e-07 -0.00100027)
(-6.89653e-08 8.40479e-07 -0.00100031)
(-4.56148e-07 7.98184e-07 -0.000999665)
(-4.09762e-07 7.84499e-07 -0.000999806)
(-3.24083e-07 7.72742e-07 -0.000999925)
(-2.07598e-07 7.64148e-07 -0.00100001)
(-7.1315e-08 7.58124e-07 -0.00100006)
(-4.69464e-07 6.3531e-07 -0.000999433)
(-4.21879e-07 6.23818e-07 -0.00099958)
(-3.33741e-07 6.13994e-07 -0.000999705)
(-2.13817e-07 6.06793e-07 -0.000999795)
(-7.34598e-08 6.01769e-07 -0.000999843)
(-4.79612e-07 4.08918e-07 -0.000999263)
(-4.31063e-07 4.01277e-07 -0.000999415)
(-3.41079e-07 3.9473e-07 -0.000999544)
(-2.18591e-07 3.89882e-07 -0.000999637)
(-7.51211e-08 3.86547e-07 -0.000999687)
(-4.84233e-07 1.4086e-07 -0.000999174)
(-4.35252e-07 1.38186e-07 -0.000999329)
(-3.44479e-07 1.35881e-07 -0.00099946)
(-2.20802e-07 1.34158e-07 -0.000999555)
(-7.58744e-08 1.33001e-07 -0.000999605)
(-6.00622e-07 1.20175e-06 -0.000999918)
(-5.38685e-07 1.1796e-06 -0.0010001)
(-4.25363e-07 1.16053e-06 -0.00100025)
(-2.72236e-07 1.14644e-06 -0.00100036)
(-9.34871e-08 1.13669e-06 -0.00100042)
(-6.23739e-07 1.08868e-06 -0.000999548)
(-5.59702e-07 1.067e-06 -0.00099974)
(-4.42284e-07 1.04828e-06 -0.000999902)
(-2.83202e-07 1.03449e-06 -0.00100002)
(-9.72783e-08 1.02511e-06 -0.00100008)
(-6.45056e-07 8.6771e-07 -0.000999231)
(-5.79088e-07 8.49267e-07 -0.000999433)
(-4.57846e-07 8.33398e-07 -0.000999604)
(-2.93306e-07 8.21685e-07 -0.000999728)
(-1.00783e-07 8.13837e-07 -0.000999794)
(-6.61467e-07 5.59189e-07 -0.000998998)
(-5.93994e-07 5.46758e-07 -0.000999208)
(-4.69826e-07 5.36062e-07 -0.000999386)
(-3.01088e-07 5.28165e-07 -0.000999515)
(-1.03468e-07 5.22977e-07 -0.000999584)
(-6.69242e-07 1.92764e-07 -0.000998875)
(-6.01098e-07 1.8837e-07 -0.00099909)
(-4.75541e-07 1.84581e-07 -0.000999272)
(-3.04758e-07 1.81798e-07 -0.000999403)
(-1.04716e-07 1.8e-07 -0.000999474)
(-8.1578e-07 1.63703e-06 -0.000999895)
(-7.30373e-07 1.60224e-06 -0.00100014)
(-5.76112e-07 1.57208e-06 -0.00100034)
(-3.68514e-07 1.54966e-06 -0.00100049)
(-1.26523e-07 1.5346e-06 -0.00100057)
(-8.52411e-07 1.48541e-06 -0.000999391)
(-7.63836e-07 1.45071e-06 -0.000999653)
(-6.03197e-07 1.4206e-06 -0.000999873)
(-3.86185e-07 1.3983e-06 -0.00100003)
(-1.32664e-07 1.38361e-06 -0.00100012)
(-8.8676e-07 1.18611e-06 -0.000998957)
(-7.95182e-07 1.15619e-06 -0.000999235)
(-6.28488e-07 1.13035e-06 -0.00099947)
(-4.02661e-07 1.11124e-06 -0.00099964)
(-1.38378e-07 1.09888e-06 -0.000999731)
(-9.13527e-07 7.65597e-07 -0.000998636)
(-8.19571e-07 7.45245e-07 -0.000998928)
(-6.48101e-07 7.27734e-07 -0.000999175)
(-4.15382e-07 7.14831e-07 -0.000999354)
(-1.42763e-07 7.06588e-07 -0.00099945)
(-9.26618e-07 2.64147e-07 -0.000998468)
(-8.31517e-07 2.56928e-07 -0.000998766)
(-6.57672e-07 2.50729e-07 -0.000999019)
(-4.21581e-07 2.46186e-07 -0.000999203)
(-1.4491e-07 2.43289e-07 -0.000999302)
(-1.10567e-06 2.22896e-06 -0.000999869)
(-9.87761e-07 2.17419e-06 -0.0010002)
(-7.78359e-07 2.12628e-06 -0.00100047)
(-4.97685e-07 2.09037e-06 -0.00100067)
(-1.7086e-07 2.06688e-06 -0.00100077)
(-1.16396e-06 2.02731e-06 -0.000999183)
(-1.04142e-06 1.97134e-06 -0.000999538)
(-8.22015e-07 1.92259e-06 -0.000999837)
(-5.26351e-07 1.88625e-06 -0.00100005)
(-1.80862e-07 1.86298e-06 -0.00100017)
(-1.2197e-06 1.62306e-06 -0.000998587)
(-1.09248e-06 1.57422e-06 -0.00099897)
(-8.63389e-07 1.53192e-06 -0.000999293)
(-5.53433e-07 1.50047e-06 -0.000999528)
(-1.90282e-07 1.48066e-06 -0.000999654)
(-1.26358e-06 1.05003e-06 -0.000998145)
(-1.13253e-06 1.01665e-06 -0.00099855)
(-8.9569e-07 9.87842e-07 -0.000998893)
(-5.74512e-07 9.66492e-07 -0.000999143)
(-1.976e-07 9.53148e-07 -0.000999278)
(-1.28559e-06 3.62755e-07 -0.000997911)
(-1.15257e-06 3.50912e-07 -0.000998327)
(-9.11862e-07 3.40705e-07 -0.000998681)
(-5.85093e-07 3.33147e-07 -0.000998938)
(-2.01291e-07 3.28434e-07 -0.000999078)
(-1.49385e-06 3.03281e-06 -0.000999842)
(-1.33132e-06 2.94619e-06 -0.00100028)
(-1.04812e-06 2.86963e-06 -0.00100064)
(-6.7017e-07 2.81165e-06 -0.0010009)
(-2.30144e-07 2.77444e-06 -0.00100104)
(-1.58712e-06 2.76766e-06 -0.000998909)
(-1.41777e-06 2.67694e-06 -0.000999389)
(-1.119e-06 2.59746e-06 -0.000999793)
(-7.17132e-07 2.53764e-06 -0.00100009)
(-2.46626e-07 2.50011e-06 -0.00100024)
(-1.67816e-06 2.22454e-06 -0.00099809)
(-1.50152e-06 2.14439e-06 -0.000998616)
(-1.18735e-06 2.07457e-06 -0.000999061)
(-7.62291e-07 2.0222e-06 -0.000999388)
(-2.62451e-07 1.9898e-06 -0.000999564)
(-1.75051e-06 1.44432e-06 -0.000997475)
(-1.56769e-06 1.38926e-06 -0.000998039)
(-1.24109e-06 1.34146e-06 -0.000998517)
(-7.97705e-07 1.30571e-06 -0.000998869)
(-2.74846e-07 1.28378e-06 -0.00099906)
(-1.78757e-06 5.00054e-07 -0.000997147)
(-1.60151e-06 4.80484e-07 -0.00099773)
(-1.26859e-06 4.63506e-07 -0.000998226)
(-8.15837e-07 4.50816e-07 -0.000998591)
(-2.81195e-07 4.43071e-07 -0.000998791)
(-2.00868e-06 4.12172e-06 -0.000999822)
(-1.78549e-06 3.98391e-06 -0.00100039)
(-1.40526e-06 3.86068e-06 -0.00100087)
(-8.99523e-07 3.76609e-06 -0.00100122)
(-3.09254e-07 3.70601e-06 -0.0010014)
(-2.15877e-06 3.77985e-06 -0.000998555)
(-1.92551e-06 3.63194e-06 -0.000999198)
(-1.52117e-06 3.50119e-06 -0.000999743)
(-9.77209e-07 3.4015e-06 -0.00100014)
(-3.36769e-07 3.33962e-06 -0.00100036)
(-2.3086e-06 3.05661e-06 -0.000997425)
(-2.06416e-06 2.92413e-06 -0.000998146)
(-1.63559e-06 2.80778e-06 -0.000998761)
(-1.05403e-06 2.71929e-06 -0.000999218)
(-3.64048e-07 2.665e-06 -0.00099947)
(-2.42857e-06 1.99569e-06 -0.000996564)
(-2.17427e-06 1.90434e-06 -0.000997348)
(-1.72587e-06 1.82448e-06 -0.000998018)
(-1.11429e-06 1.76396e-06 -0.000998518)
(-3.85355e-07 1.72717e-06 -0.000998796)
(-2.491e-06 6.93332e-07 -0.000996097)
(-2.23145e-06 6.60837e-07 -0.000996914)
(-1.77281e-06 6.32449e-07 -0.000997614)
(-1.14567e-06 6.10947e-07 -0.000998138)
(-3.96458e-07 5.97926e-07 -0.00099843)
(-2.68209e-06 5.58968e-06 -0.000999827)
(-2.37778e-06 5.36912e-06 -0.00100056)