FoamFile
{version 2.0; format ascii;class Cloud<passiveParticle>; location 0;object  positions;}
41
(
( 0.000196939 -0.0003906 9.99357e-05 ) 0 
( 4.48821e-05 -4.1631e-05 9.99136e-05 ) 0 
( 0.000177037 -0.000191666 9.98691e-05 ) 0 
( 0.000408394 -0.000255458 9.98035e-05 ) 0 
( 4.80358e-05 -0.00041705 0.0002335 ) 0 
( 0.000384704 -0.000387218 0.000248242 ) 0 
( 0.000324134 -5.61907e-05 9.97974e-05 ) 0 
( 6.34233e-05 -0.000192955 0.000267961 ) 0 
( 0.000299008 -0.000200798 0.000257894 ) 0 
( 0.000185634 -3.6772e-05 0.000242468 ) 0 
( 0.000474181 -0.000110149 0.000220244 ) 0 
( 0.000208332 -0.000359759 0.000338317 ) 0 
( 5.05324e-05 -3.46773e-05 0.000389694 ) 0 
( 0.000407074 -0.000257855 0.000415999 ) 0 
( 0.000294194 -6.82547e-05 0.000407398 ) 0 
( 0.000284489 -0.00037258 0.000524487 ) 0 
( 0.000150937 -0.000202289 0.00044738 ) 0 
( 0.000108892 -0.000457915 0.000481232 ) 0 
( 0.000266707 -0.000192701 0.00061004 ) 0 
( 0.000141038 -4.29942e-05 0.000567782 ) 0 
( 0.000494008 -0.000332617 0.000579734 ) 0 
( 0.000434464 -0.000105623 0.000544906 ) 0 
( 4.6025e-05 -0.000300129 0.000586711 ) 0 
( 0.000165502 -0.000436655 0.000671803 ) 0 
( 0.000426813 -0.000215954 0.00072753 ) 0 
( 0.000284319 -1.756e-05 0.000704907 ) 0 
( 0.000364197 -0.000425561 0.0007001 ) 0 
( 0.000243156 -0.000289832 0.000783171 ) 0 
( 0.000450625 -3.73377e-05 0.000814138 ) 0 
( 5.34118e-05 -0.00022755 0.000792953 ) 0 
( 0.00020066 -0.000110569 0.00086085 ) 0 
( 0.000220582 -0.000462085 0.000882105 ) 0 
( 0.000396704 -0.000288891 0.000911258 ) 0 
( 0.000357253 -8.86736e-05 0.0009833 ) 0 
( 8.13474e-05 -0.00033933 0.000956335 ) 0 
( 0.000361506 -0.000463414 0.00102397 ) 0 
( 4.14963e-05 -0.000144482 0.00097701 ) 0 
( 0.000241192 -0.000244595 0.00103018 ) 0 
( 0.000463637 -9.42088e-06 0.00113295 ) 0 
( 9.77511e-05 -0.00044647 0.00112438 ) 0 
( 0.000366603 -0.000322067 0.00116533 ) 0 
)
