/*--------------------------------*- C++ -*----------------------------------*\
| =========                 |                                                 |
| \\      /  F ield         | OpenFOAM: The Open Source CFD Toolbox           |
|  \\    /   O peration     | Version:  5.x                                   |
|   \\  /    A nd           | Web:      www.OpenFOAM.org                      |
|    \\/     M anipulation  |                                                 |
\*---------------------------------------------------------------------------*/
FoamFile
{
    version     2.0;
    format      ascii;
    class       volVectorField;
    location    "800";
    object      U;
}
// * * * * * * * * * * * * * * * * * * * * * * * * * * * * * * * * * * * * * //

dimensions      [0 1 -1 0 0 0 0];

internalField   nonuniform List<vector> 
90
(
(0.0712665 -0.0210774 -4.35011)
(0.0742064 -0.0206123 -4.32317)
(0.0755525 -0.017918 -4.30791)
(0.077207 -0.016033 -4.28801)
(0.0789037 -0.013689 -4.27045)
(0.0808219 -0.0114523 -4.25202)
(0.0825493 -0.0091314 -4.23418)
(0.0838509 -0.00683961 -4.21632)
(0.0849606 -0.00456023 -4.19887)
(0.0858194 -0.00232782 -4.18177)
(0.0865573 -0.000132707 -4.16518)
(0.087297 0.00200387 -4.14903)
(0.0882833 0.00408933 -4.13321)
(0.0897962 0.00613154 -4.11761)
(0.0913838 0.00807328 -4.10237)
(0.0926919 0.00986754 -4.08739)
(0.0947062 0.0115831 -4.0725)
(0.0972417 0.01322 -4.05768)
(0.099081 0.0147224 -4.04299)
(0.100739 0.0161093 -4.02842)
(0.102777 0.0173909 -4.01388)
(0.104942 0.0185566 -3.99938)
(0.106719 0.0196109 -3.98492)
(0.108313 0.0205499 -3.97056)
(0.109744 0.0213816 -3.9563)
(0.111053 0.0221129 -3.94217)
(0.112263 0.0227509 -3.92817)
(0.113403 0.0233036 -3.91428)
(0.11449 0.0237789 -3.90052)
(0.115542 0.0241845 -3.88687)
(0.11657 0.0245282 -3.87333)
(0.117586 0.0248176 -3.85987)
(0.118598 0.02506 -3.8465)
(0.119612 0.0252619 -3.8332)
(0.120633 0.0254297 -3.81997)
(0.121667 0.0255691 -3.80678)
(0.122717 0.0256854 -3.79363)
(0.123785 0.025783 -3.78052)
(0.124874 0.025866 -3.76744)
(0.125984 0.0259377 -3.75438)
(0.127117 0.0260008 -3.74133)
(0.128275 0.0260574 -3.72829)
(0.129456 0.0261091 -3.71525)
(0.130663 0.0261569 -3.70222)
(0.131893 0.0262011 -3.68918)
(0.133149 0.0262418 -3.67614)
(0.134429 0.0262785 -3.6631)
(0.135732 0.0263105 -3.65004)
(0.13706 0.0263367 -3.63698)
(0.13841 0.0263555 -3.6239)
(0.139782 0.0263656 -3.6108)
(0.141176 0.0263649 -3.5977)
(0.142591 0.0263517 -3.58457)
(0.144026 0.0263238 -3.57143)
(0.14548 0.026279 -3.55827)
(0.146952 0.0262153 -3.54508)
(0.148441 0.0261304 -3.53187)
(0.149946 0.0260221 -3.51864)
(0.151466 0.0258883 -3.50539)
(0.153 0.0257269 -3.4921)
(0.154547 0.0255359 -3.47879)
(0.156106 0.0253135 -3.46545)
(0.157676 0.025058 -3.45208)
(0.159256 0.0247679 -3.43867)
(0.160845 0.0244422 -3.42523)
(0.162441 0.0240799 -3.41176)
(0.164045 0.0236806 -3.39825)
(0.165655 0.0232444 -3.38471)
(0.167271 0.022772 -3.37113)
(0.168893 0.0222649 -3.35751)
(0.170519 0.0217254 -3.34386)
(0.172151 0.0211567 -3.33018)
(0.173788 0.0205634 -3.31646)
(0.17543 0.0199527 -3.30272)
(0.177079 0.019337 -3.28895)
(0.178735 0.0187292 -3.27516)
(0.180398 0.0181293 -3.26137)
(0.182069 0.0175271 -3.24759)
(0.183746 0.0169136 -3.23382)
(0.185431 0.0162812 -3.22009)
(0.187125 0.0156243 -3.2064)
(0.188828 0.0149382 -3.19278)
(0.190549 0.0142172 -3.17921)
(0.192297 0.0134508 -3.16563)
(0.194089 0.0126221 -3.15194)
(0.195965 0.0117227 -3.13861)
(0.197882 0.0107968 -3.12636)
(0.19979 0.00990913 -3.11539)
(0.201853 0.00884835 -3.10023)
(0.203305 0.00775981 -3.07946)
)
;

boundaryField
{
    inlet
    {
        type            zeroGradient;
    }
    outlet
    {
        type            zeroGradient;
    }
    repeat_boundary
    {
        type            slip;
    }
    procBoundary1to0
    {
        type            processor;
        value           nonuniform List<vector> 
90
(
(0.0620915 -0.0488838 -5.41585)
(0.0626853 -0.0500852 -5.41884)
(0.0632305 -0.0519883 -5.41954)
(0.064396 -0.0527533 -5.41837)
(0.0639968 -0.0525341 -5.42586)
(0.0651652 -0.0534356 -5.42027)
(0.0650147 -0.0534719 -5.42469)
(0.0650036 -0.0532633 -5.42478)
(0.0643795 -0.0527809 -5.42778)
(0.0638596 -0.0528151 -5.42927)
(0.0633509 -0.0535726 -5.42951)
(0.0633714 -0.0539677 -5.43031)
(0.0638563 -0.0539261 -5.43078)
(0.0650939 -0.0535911 -5.42722)
(0.0639919 -0.0530079 -5.43298)
(0.0641898 -0.0530459 -5.43224)
(0.0661997 -0.0521436 -5.42728)
(0.0661563 -0.0502078 -5.43127)
(0.0654425 -0.0491897 -5.43481)
(0.0663727 -0.048505 -5.4346)
(0.0682011 -0.0474468 -5.43173)
(0.0670701 -0.04632 -5.43643)
(0.0665099 -0.0454766 -5.4374)
(0.0655752 -0.044811 -5.43951)
(0.0646066 -0.0442815 -5.44139)
(0.0635582 -0.0438563 -5.44338)
(0.0624688 -0.0435263 -5.44532)
(0.0613587 -0.0432712 -5.44725)
(0.0602444 -0.0430827 -5.44911)
(0.059139 -0.0429527 -5.4509)
(0.0580525 -0.0428761 -5.4526)
(0.0569924 -0.0428492 -5.45421)
(0.0559639 -0.0428694 -5.45572)
(0.0549706 -0.0429346 -5.45711)
(0.0540144 -0.043043 -5.4584)
(0.0530961 -0.0431931 -5.45957)
(0.0522156 -0.0433833 -5.46062)
(0.051372 -0.0436122 -5.46155)
(0.0505638 -0.0438778 -5.46234)
(0.0497893 -0.0441786 -5.46301)
(0.0490463 -0.0445124 -5.46355)
(0.0483327 -0.0448772 -5.46395)
(0.0476461 -0.045271 -5.46421)
(0.0469844 -0.0456915 -5.46434)
(0.0463454 -0.0461367 -5.46432)
(0.0457269 -0.0466043 -5.46416)
(0.0451267 -0.0470926 -5.46386)
(0.0445431 -0.0475996 -5.46342)
(0.0439741 -0.0481236 -5.46283)
(0.043418 -0.0486631 -5.46209)
(0.0428729 -0.0492168 -5.46121)
(0.0423374 -0.0497836 -5.46018)
(0.04181 -0.0503625 -5.45901)
(0.041289 -0.0509527 -5.45769)
(0.0407732 -0.0515537 -5.45622)
(0.0402613 -0.052165 -5.4546)
(0.0397521 -0.0527864 -5.45283)
(0.0392444 -0.0534176 -5.45091)
(0.0387372 -0.0540584 -5.44883)
(0.0382297 -0.0547089 -5.4466)
(0.037721 -0.055369 -5.44421)
(0.0372104 -0.0560386 -5.44167)
(0.0366975 -0.0567175 -5.43896)
(0.0361816 -0.0574057 -5.43609)
(0.0356626 -0.0581028 -5.43305)
(0.0351403 -0.0588084 -5.42984)
(0.0346146 -0.0595219 -5.42645)
(0.0340857 -0.0602424 -5.42289)
(0.0335539 -0.060969 -5.41915)
(0.0330196 -0.0617004 -5.41522)
(0.0324834 -0.0624347 -5.4111)
(0.0319462 -0.0631697 -5.40679)
(0.031409 -0.0639024 -5.40229)
(0.030873 -0.0646306 -5.39759)
(0.0303396 -0.0653534 -5.3927)
(0.0298104 -0.0660677 -5.3876)
(0.0292867 -0.0667607 -5.38231)
(0.0287699 -0.0674135 -5.37681)
(0.0282614 -0.0680064 -5.3711)
(0.0277628 -0.0685179 -5.3652)
(0.0272759 -0.0689228 -5.35912)
(0.026803 -0.0691875 -5.35286)
(0.0263486 -0.0692656 -5.34645)
(0.0259182 -0.0691095 -5.33987)
(0.0255182 -0.0686802 -5.33305)
(0.0251535 -0.0679712 -5.32625)
(0.024783 -0.0667216 -5.32007)
(0.0244481 -0.0642698 -5.31476)
(0.0242247 -0.0607624 -5.30695)
(0.0241508 -0.0596217 -5.29612)
)
;
    }
    procBoundary1to3
    {
        type            processor;
        value           nonuniform List<vector> 
90
(
(0.107394 -0.0298505 -5.23315)
(0.112394 -0.0297099 -5.21309)
(0.115021 -0.0272653 -5.19535)
(0.118272 -0.0257706 -5.17666)
(0.120803 -0.0236666 -5.15758)
(0.123229 -0.0217068 -5.13782)
(0.125346 -0.0195768 -5.11753)
(0.127261 -0.017474 -5.09676)
(0.128958 -0.0153423 -5.0756)
(0.130479 -0.0132185 -5.05412)
(0.131845 -0.0111106 -5.0324)
(0.133082 -0.00903659 -5.01051)
(0.13423 -0.00698343 -4.98852)
(0.135312 -0.00497401 -4.96647)
(0.136329 -0.00304024 -4.94438)
(0.137291 -0.00118753 -4.92233)
(0.138221 0.000584928 -4.90038)
(0.139132 0.00227996 -4.87854)
(0.140013 0.00389036 -4.85687)
(0.140854 0.00540432 -4.83541)
(0.141675 0.00683237 -4.81419)
(0.14248 0.0081711 -4.79323)
(0.143254 0.00941977 -4.77256)
(0.143995 0.0105748 -4.7522)
(0.144705 0.0116411 -4.73218)
(0.145392 0.0126234 -4.71252)
(0.14606 0.0135265 -4.69324)
(0.146717 0.0143566 -4.67436)
(0.147373 0.0151199 -4.65588)
(0.148034 0.015823 -4.63781)
(0.148709 0.016473 -4.62015)
(0.149407 0.0170771 -4.60291)
(0.150135 0.0176427 -4.58607)
(0.1509 0.018177 -4.56963)
(0.151708 0.0186871 -4.55359)
(0.152565 0.0191799 -4.53792)
(0.153476 0.0196619 -4.52261)
(0.154444 0.0201391 -4.50765)
(0.155473 0.0206172 -4.49302)
(0.156566 0.0211012 -4.47871)
(0.157723 0.0215957 -4.46469)
(0.158947 0.0221045 -4.45096)
(0.160237 0.0226309 -4.43749)
(0.161594 0.0231777 -4.42428)
(0.163018 0.0237473 -4.41129)
(0.164507 0.0243413 -4.39853)
(0.16606 0.0249612 -4.38598)
(0.167675 0.0256078 -4.37362)
(0.169352 0.026282 -4.36145)
(0.171087 0.0269841 -4.34946)
(0.17288 0.0277145 -4.33763)
(0.174728 0.0284732 -4.32597)
(0.17663 0.0292602 -4.31446)
(0.178584 0.0300756 -4.30311)
(0.180588 0.0309194 -4.2919)
(0.182641 0.0317916 -4.28083)
(0.184741 0.0326924 -4.26991)
(0.186887 0.033622 -4.25913)
(0.189078 0.0345807 -4.24849)
(0.191313 0.0355693 -4.23799)
(0.193591 0.0365884 -4.22763)
(0.195913 0.0376391 -4.21741)
(0.198276 0.0387227 -4.20734)
(0.200683 0.0398408 -4.19741)
(0.203132 0.0409956 -4.18764)
(0.205625 0.0421893 -4.17801)
(0.208162 0.0434249 -4.16854)
(0.210744 0.0447059 -4.15923)
(0.213374 0.0460364 -4.15008)
(0.216053 0.0474214 -4.14109)
(0.218786 0.0488666 -4.13226)
(0.221573 0.0503786 -4.1236)
(0.224419 0.0519652 -4.11511)
(0.227332 0.0536367 -4.10676)
(0.230324 0.055407 -4.09855)
(0.233405 0.0572903 -4.09055)
(0.236584 0.0593012 -4.08267)
(0.239838 0.0614411 -4.07488)
(0.243142 0.0637097 -4.06719)
(0.246467 0.066109 -4.05958)
(0.249786 0.0686432 -4.05206)
(0.253058 0.071318 -4.04462)
(0.25623 0.0741391 -4.03729)
(0.259247 0.0771099 -4.03003)
(0.262058 0.0802304 -4.02276)
(0.264649 0.0834964 -4.01568)
(0.266785 0.0869974 -4.00926)
(0.267526 0.0907387 -4.00426)
(0.266989 0.0945982 -3.99823)
(0.267607 0.0967616 -3.98775)
)
;
    }
}


// ************************************************************************* //
