/*--------------------------------*- C++ -*----------------------------------*\
| =========                 |                                                 |
| \\      /  F ield         | OpenFOAM: The Open Source CFD Toolbox           |
|  \\    /   O peration     | Version:  5.x                                   |
|   \\  /    A nd           | Web:      www.OpenFOAM.org                      |
|    \\/     M anipulation  |                                                 |
\*---------------------------------------------------------------------------*/
FoamFile
{
    version     2.0;
    format      ascii;
    class       volVectorField;
    location    "0.09";
    object      U;
}
// * * * * * * * * * * * * * * * * * * * * * * * * * * * * * * * * * * * * * //

dimensions      [0 1 -1 0 0 0 0];

internalField   nonuniform List<vector> 
2250
(
(-4.70141e-11 -3.18651e-11 -0.000999998)
(-1.26943e-10 -2.94625e-11 -0.000999998)
(-1.97652e-10 -2.46544e-11 -0.000999999)
(-2.5537e-10 -2.08834e-11 -0.000999999)
(-2.44495e-10 -2.38104e-11 -0.001)
(-4.46401e-11 -8.07757e-11 -0.000999998)
(-1.19886e-10 -6.81164e-11 -0.000999999)
(-1.89428e-10 -7.06784e-11 -0.000999999)
(-2.55047e-10 -6.07515e-11 -0.000999999)
(-2.49661e-10 -5.14159e-11 -0.001)
(-3.43256e-11 -1.19065e-10 -0.000999999)
(-1.16936e-10 -1.12446e-10 -0.000999999)
(-1.90691e-10 -1.07585e-10 -0.000999999)
(-2.36669e-10 -8.99175e-11 -0.000999999)
(-2.34791e-10 -6.60471e-11 -0.001)
(-3.78127e-11 -1.49748e-10 -0.000999999)
(-1.08166e-10 -1.50712e-10 -0.000999999)
(-1.66903e-10 -1.36123e-10 -0.000999999)
(-2.1354e-10 -1.25949e-10 -0.000999999)
(-2.1047e-10 -1.04832e-10 -0.001)
(-3.50701e-11 -1.72942e-10 -0.000999999)
(-1.03048e-10 -1.69035e-10 -0.000999999)
(-1.65898e-10 -1.67515e-10 -0.000999999)
(-2.0535e-10 -1.46899e-10 -0.001)
(-1.58558e-10 -9.60952e-11 -0.001)
(-1.21302e-10 -8.15047e-11 -0.000999998)
(-3.36757e-10 -7.67657e-11 -0.000999998)
(-5.15128e-10 -7.53206e-11 -0.000999998)
(-6.62111e-10 -6.71628e-11 -0.000999999)
(-6.81598e-10 -5.47145e-11 -0.000999999)
(-1.16638e-10 -2.12288e-10 -0.000999998)
(-3.30967e-10 -1.95328e-10 -0.000999998)
(-5.06422e-10 -1.88011e-10 -0.000999999)
(-6.42825e-10 -1.71757e-10 -0.000999999)
(-6.70805e-10 -1.2513e-10 -0.000999999)
(-1.04277e-10 -3.10283e-10 -0.000999998)
(-3.1272e-10 -2.96463e-10 -0.000999998)
(-4.92544e-10 -2.74231e-10 -0.000999999)
(-6.00651e-10 -2.44974e-10 -0.000999999)
(-6.27473e-10 -1.9253e-10 -0.000999999)
(-1.02356e-10 -3.94629e-10 -0.000999999)
(-2.94367e-10 -3.92097e-10 -0.000999999)
(-4.54941e-10 -3.68615e-10 -0.000999999)
(-5.61194e-10 -3.38295e-10 -0.000999999)
(-5.82234e-10 -3.4687e-10 -0.001)
(-1.01189e-10 -4.73722e-10 -0.000999999)
(-2.8604e-10 -4.6645e-10 -0.000999999)
(-4.38691e-10 -4.58763e-10 -0.000999999)
(-5.78937e-10 -4.12747e-10 -0.001)
(-4.70367e-10 -3.12464e-10 -0.001)
(-1.96261e-10 -1.34026e-10 -0.000999997)
(-5.60845e-10 -1.2443e-10 -0.000999998)
(-8.62295e-10 -1.19825e-10 -0.000999998)
(-1.07698e-09 -1.09652e-10 -0.000999998)
(-1.14524e-09 -9.48076e-11 -0.000999999)
(-1.86782e-10 -3.73197e-10 -0.000999998)
(-5.4733e-10 -3.55268e-10 -0.000999998)
(-8.49119e-10 -3.45458e-10 -0.000999998)
(-1.05422e-09 -3.10471e-10 -0.000999998)
(-1.13229e-09 -2.5634e-10 -0.000999999)
(-1.7813e-10 -5.71918e-10 -0.000999998)
(-5.33463e-10 -5.59485e-10 -0.000999998)
(-8.19202e-10 -5.27805e-10 -0.000999998)
(-9.90232e-10 -4.84666e-10 -0.000999999)
(-1.096e-09 -4.34666e-10 -0.000999999)
(-1.73409e-10 -7.28163e-10 -0.000999998)
(-5.02166e-10 -7.23469e-10 -0.000999998)
(-7.7431e-10 -6.80165e-10 -0.000999999)
(-9.61216e-10 -6.52142e-10 -0.000999999)
(-1.09415e-09 -7.15081e-10 -0.001)
(-1.72152e-10 -8.49988e-10 -0.000999999)
(-4.84036e-10 -8.50639e-10 -0.000999999)
(-7.47756e-10 -8.4351e-10 -0.000999999)
(-1.02514e-09 -8.34609e-10 -0.000999999)
(-1.02796e-09 -7.76948e-10 -0.001)
(-2.78292e-10 -2.04799e-10 -0.000999997)
(-8.17042e-10 -2.05314e-10 -0.000999997)
(-1.27062e-09 -1.94132e-10 -0.000999997)
(-1.5784e-09 -1.83063e-10 -0.000999998)
(-1.70752e-09 -1.62796e-10 -0.000999998)
(-2.78957e-10 -5.91205e-10 -0.000999997)
(-8.0751e-10 -5.84212e-10 -0.000999997)
(-1.25082e-09 -5.72917e-10 -0.000999997)
(-1.55033e-09 -5.34387e-10 -0.000999998)
(-1.69843e-09 -4.90424e-10 -0.000999999)
(-2.70777e-10 -9.3396e-10 -0.000999997)
(-7.99229e-10 -9.18427e-10 -0.000999997)
(-1.22335e-09 -8.94735e-10 -0.000999998)
(-1.49932e-09 -8.53474e-10 -0.000999998)
(-1.67914e-09 -8.21011e-10 -0.000999999)
(-2.61703e-10 -1.1889e-09 -0.000999998)
(-7.66467e-10 -1.17909e-09 -0.000999998)
(-1.18587e-09 -1.14097e-09 -0.000999998)
(-1.47681e-09 -1.12766e-09 -0.000999999)
(-1.70515e-09 -1.17596e-09 -0.000999999)
(-2.58649e-10 -1.34601e-09 -0.000999998)
(-7.48819e-10 -1.35014e-09 -0.000999998)
(-1.17171e-09 -1.34312e-09 -0.000999999)
(-1.53428e-09 -1.37668e-09 -0.000999999)
(-1.71951e-09 -1.40816e-09 -0.001)
(-3.96238e-10 -3.06385e-10 -0.000999995)
(-1.16002e-09 -3.06156e-10 -0.000999996)
(-1.79431e-09 -2.98199e-10 -0.000999996)
(-2.24117e-09 -2.94727e-10 -0.000999997)
(-2.4475e-09 -2.76425e-10 -0.000999998)
(-3.96181e-10 -8.99571e-10 -0.000999996)
(-1.15347e-09 -9.006e-10 -0.000999996)
(-1.78634e-09 -8.83007e-10 -0.000999996)
(-2.22378e-09 -8.55381e-10 -0.000999997)
(-2.43496e-09 -8.1337e-10 -0.000999998)
(-3.96297e-10 -1.42013e-09 -0.000999996)
(-1.14397e-09 -1.41109e-09 -0.000999996)
(-1.75262e-09 -1.39323e-09 -0.000999997)
(-2.17609e-09 -1.35611e-09 -0.000999998)
(-2.4211e-09 -1.32028e-09 -0.000999998)
(-3.84471e-10 -1.80484e-09 -0.000999997)
(-1.12383e-09 -1.79574e-09 -0.000999997)
(-1.73139e-09 -1.77588e-09 -0.000999998)
(-2.15107e-09 -1.77019e-09 -0.000999998)
(-2.44355e-09 -1.80931e-09 -0.000999999)
(-3.83726e-10 -2.00275e-09 -0.000999998)
(-1.11134e-09 -2.01347e-09 -0.000999998)
(-1.72683e-09 -2.00905e-09 -0.000999998)
(-2.20952e-09 -2.053e-09 -0.000999999)
(-2.45669e-09 -2.09156e-09 -0.001)
(-5.59737e-10 -4.51609e-10 -0.000999994)
(-1.61883e-09 -4.50333e-10 -0.000999994)
(-2.49065e-09 -4.48206e-10 -0.000999995)
(-3.12878e-09 -4.43834e-10 -0.000999996)
(-3.42434e-09 -4.22169e-10 -0.000999997)
(-5.58664e-10 -1.31354e-09 -0.000999994)
(-1.61761e-09 -1.31513e-09 -0.000999994)
(-2.48875e-09 -1.29418e-09 -0.000999995)
(-3.10845e-09 -1.27413e-09 -0.000999996)
(-3.40457e-09 -1.23049e-09 -0.000999997)
(-5.59938e-10 -2.04868e-09 -0.000999995)
(-1.60007e-09 -2.04573e-09 -0.000999995)
(-2.45437e-09 -2.03121e-09 -0.000999996)
(-3.07115e-09 -2.00242e-09 -0.000999997)
(-3.38992e-09 -1.96222e-09 -0.000999998)
(-5.5198e-10 -2.6058e-09 -0.000999996)
(-1.5963e-09 -2.60429e-09 -0.000999996)
(-2.44547e-09 -2.59487e-09 -0.000999997)
(-3.03985e-09 -2.58266e-09 -0.000999998)
(-3.39285e-09 -2.54881e-09 -0.000999999)
(-5.53639e-10 -2.85966e-09 -0.000999996)
(-1.58406e-09 -2.87012e-09 -0.000999997)
(-2.43238e-09 -2.8661e-09 -0.000999998)
(-3.02512e-09 -2.89436e-09 -0.000999999)
(-3.43594e-09 -2.9616e-09 -0.001)
(-7.77278e-10 -6.40985e-10 -0.000999991)
(-2.21863e-09 -6.34453e-10 -0.000999992)
(-3.39959e-09 -6.33845e-10 -0.000999993)
(-4.27409e-09 -6.22846e-10 -0.000999994)
(-4.69327e-09 -6.0596e-10 -0.000999995)
(-7.70996e-10 -1.84004e-09 -0.000999992)
(-2.21428e-09 -1.83161e-09 -0.000999992)
(-3.39399e-09 -1.81696e-09 -0.000999993)
(-4.2537e-09 -1.80476e-09 -0.000999994)
(-4.67716e-09 -1.77505e-09 -0.000999996)
(-7.67027e-10 -2.84311e-09 -0.000999993)
(-2.19628e-09 -2.84467e-09 -0.000999993)
(-3.37899e-09 -2.83585e-09 -0.000999994)
(-4.24022e-09 -2.8269e-09 -0.000999995)
(-4.66325e-09 -2.80522e-09 -0.000999997)
(-7.67555e-10 -3.60826e-09 -0.000999994)
(-2.20186e-09 -3.61734e-09 -0.000999994)
(-3.37627e-09 -3.61215e-09 -0.000999995)
(-4.22356e-09 -3.60017e-09 -0.000999996)
(-4.66485e-09 -3.54555e-09 -0.000999998)
(-7.69668e-10 -3.94766e-09 -0.000999995)
(-2.19332e-09 -3.9516e-09 -0.000999995)
(-3.36141e-09 -3.94535e-09 -0.000999996)
(-4.17364e-09 -3.95698e-09 -0.000999998)
(-4.74711e-09 -4.05006e-09 -0.000999999)
(-1.04904e-09 -8.73915e-10 -0.000999988)
(-2.98701e-09 -8.61883e-10 -0.000999989)
(-4.59012e-09 -8.62949e-10 -0.00099999)
(-5.76817e-09 -8.51341e-10 -0.000999992)
(-6.36531e-09 -8.60468e-10 -0.000999994)
(-1.03732e-09 -2.49833e-09 -0.000999989)
(-2.97967e-09 -2.48278e-09 -0.000999989)
(-4.58753e-09 -2.48727e-09 -0.000999991)
(-5.77579e-09 -2.49004e-09 -0.000999992)
(-6.37805e-09 -2.50451e-09 -0.000999994)
(-1.03109e-09 -3.85453e-09 -0.00099999)
(-2.97687e-09 -3.86304e-09 -0.00099999)
(-4.60569e-09 -3.86753e-09 -0.000999992)
(-5.79624e-09 -3.89241e-09 -0.000999993)
(-6.37709e-09 -3.90489e-09 -0.000999995)
(-1.03915e-09 -4.87566e-09 -0.000999991)
(-2.98575e-09 -4.89786e-09 -0.000999992)
(-4.61696e-09 -4.90068e-09 -0.000999993)
(-5.81384e-09 -4.90225e-09 -0.000999995)
(-6.39775e-09 -4.90209e-09 -0.000999997)
(-1.0447e-09 -5.34174e-09 -0.000999993)
(-2.99273e-09 -5.34991e-09 -0.000999993)
(-4.60947e-09 -5.34344e-09 -0.000999995)
(-5.79764e-09 -5.34784e-09 -0.000999996)
(-6.46581e-09 -5.41152e-09 -0.000999998)
(-1.39292e-09 -1.16354e-09 -0.000999984)
(-4.00615e-09 -1.1568e-09 -0.000999985)
(-6.20712e-09 -1.15893e-09 -0.000999986)
(-7.81515e-09 -1.1612e-09 -0.000999989)
(-8.65539e-09 -1.19729e-09 -0.000999991)
(-1.3866e-09 -3.34819e-09 -0.000999985)
(-4.00639e-09 -3.34448e-09 -0.000999985)
(-6.22225e-09 -3.36886e-09 -0.000999987)
(-7.86729e-09 -3.39098e-09 -0.000999989)
(-8.69909e-09 -3.44293e-09 -0.000999992)
(-1.38596e-09 -5.19487e-09 -0.000999986)
(-4.02806e-09 -5.21376e-09 -0.000999987)
(-6.26482e-09 -5.23442e-09 -0.000999988)
(-7.90388e-09 -5.27914e-09 -0.000999991)
(-8.71148e-09 -5.3018e-09 -0.000999993)
(-1.39655e-09 -6.55675e-09 -0.000999988)
(-4.03669e-09 -6.59e-09 -0.000999989)
(-6.2877e-09 -6.59629e-09 -0.00099999)
(-7.93561e-09 -6.6045e-09 -0.000999992)
(-8.73665e-09 -6.62663e-09 -0.000999995)
(-1.40776e-09 -7.20313e-09 -0.00099999)
(-4.05536e-09 -7.22479e-09 -0.000999991)
(-6.27847e-09 -7.22013e-09 -0.000999992)
(-7.93422e-09 -7.21983e-09 -0.000999995)
(-8.77988e-09 -7.25013e-09 -0.000999997)
(-1.86402e-09 -1.55122e-09 -0.000999978)
(-5.41636e-09 -1.55604e-09 -0.000999979)
(-8.44709e-09 -1.56231e-09 -0.000999981)
(-1.06523e-08 -1.57535e-09 -0.000999984)
(-1.18025e-08 -1.61244e-09 -0.000999988)
(-1.86941e-09 -4.50482e-09 -0.000999979)
(-5.43409e-09 -4.52414e-09 -0.00099998)
(-8.48103e-09 -4.55103e-09 -0.000999982)
(-1.07212e-08 -4.57337e-09 -0.000999985)
(-1.18472e-08 -4.61883e-09 -0.000999989)
(-1.87891e-09 -7.02407e-09 -0.000999981)
(-5.46429e-09 -7.04889e-09 -0.000999982)
(-8.51151e-09 -7.06713e-09 -0.000999984)
(-1.07401e-08 -7.09713e-09 -0.000999987)
(-1.18612e-08 -7.09551e-09 -0.000999991)
(-1.88219e-09 -8.84753e-09 -0.000999983)
(-5.46472e-09 -8.8796e-09 -0.000999984)
(-8.52936e-09 -8.87794e-09 -0.000999987)
(-1.07509e-08 -8.875e-09 -0.00099999)
(-1.18703e-08 -8.86785e-09 -0.000999993)
(-1.89564e-09 -9.74441e-09 -0.000999986)
(-5.47829e-09 -9.77299e-09 -0.000999987)
(-8.50576e-09 -9.76886e-09 -0.000999989)
(-1.073e-08 -9.76403e-09 -0.000999993)
(-1.19146e-08 -9.795e-09 -0.000999996)
(-2.53224e-09 -2.09528e-09 -0.00099997)
(-7.38356e-09 -2.10485e-09 -0.000999972)
(-1.15218e-08 -2.11296e-09 -0.000999975)
(-1.45101e-08 -2.11914e-09 -0.000999979)
(-1.60703e-08 -2.14022e-09 -0.000999984)
(-2.54261e-09 -6.1055e-09 -0.000999971)
(-7.41036e-09 -6.13543e-09 -0.000999973)
(-1.1556e-08 -6.13679e-09 -0.000999976)
(-1.45627e-08 -6.1398e-09 -0.00099998)
(-1.60961e-08 -6.16054e-09 -0.000999985)
(-2.5562e-09 -9.51768e-09 -0.000999974)
(-7.4173e-09 -9.53785e-09 -0.000999975)
(-1.15469e-08 -9.53147e-09 -0.000999978)
(-1.45609e-08 -9.53512e-09 -0.000999983)
(-1.61001e-08 -9.51505e-09 -0.000999987)
(-2.54659e-09 -1.19688e-08 -0.000999977)
(-7.4074e-09 -1.19919e-08 -0.000999979)
(-1.15534e-08 -1.19828e-08 -0.000999982)
(-1.45481e-08 -1.19672e-08 -0.000999986)
(-1.60665e-08 -1.19202e-08 -0.000999991)
(-2.5587e-09 -1.32145e-08 -0.000999981)
(-7.40926e-09 -1.3237e-08 -0.000999983)
(-1.15206e-08 -1.32236e-08 -0.000999986)
(-1.44982e-08 -1.31845e-08 -0.00099999)
(-1.60863e-08 -1.31952e-08 -0.000999995)
(-3.46371e-09 -2.84941e-09 -0.000999959)
(-1.0086e-08 -2.85509e-09 -0.000999962)
(-1.56987e-08 -2.85744e-09 -0.000999966)
(-1.97353e-08 -2.84755e-09 -0.000999971)
(-2.18604e-08 -2.85528e-09 -0.000999978)
(-3.47053e-09 -8.29411e-09 -0.000999961)
(-1.01065e-08 -8.31441e-09 -0.000999963)
(-1.57181e-08 -8.27784e-09 -0.000999968)
(-1.97675e-08 -8.25963e-09 -0.000999973)
(-2.18783e-08 -8.26556e-09 -0.00099998)
(-3.47609e-09 -1.28997e-08 -0.000999965)
(-1.00732e-08 -1.29084e-08 -0.000999967)
(-1.5672e-08 -1.28691e-08 -0.000999971)
(-1.97597e-08 -1.28461e-08 -0.000999976)
(-2.186e-08 -1.28246e-08 -0.000999983)
(-3.45752e-09 -1.62156e-08 -0.000999969)
(-1.00533e-08 -1.62335e-08 -0.000999971)
(-1.5656e-08 -1.62141e-08 -0.000999975)
(-1.97254e-08 -1.61775e-08 -0.000999981)
(-2.17677e-08 -1.615e-08 -0.000999988)
(-3.46632e-09 -1.79362e-08 -0.000999975)
(-1.00419e-08 -1.79494e-08 -0.000999977)
(-1.56139e-08 -1.79087e-08 -0.000999981)
(-1.96956e-08 -1.78016e-08 -0.000999986)
(-2.16566e-08 -1.76871e-08 -0.000999993)
(-4.73632e-09 -3.87791e-09 -0.000999945)
(-1.37572e-08 -3.87695e-09 -0.000999948)
(-2.13751e-08 -3.87093e-09 -0.000999954)
(-2.68734e-08 -3.84523e-09 -0.000999961)
(-2.97617e-08 -3.83946e-09 -0.000999971)
(-4.73695e-09 -1.12631e-08 -0.000999947)
(-1.3767e-08 -1.1265e-08 -0.00099995)
(-2.13799e-08 -1.12006e-08 -0.000999956)
(-2.68886e-08 -1.1156e-08 -0.000999964)
(-2.97884e-08 -1.11368e-08 -0.000999973)
(-4.72773e-09 -1.74919e-08 -0.000999952)
(-1.36995e-08 -1.74879e-08 -0.000999955)
(-2.13042e-08 -1.74102e-08 -0.000999961)
(-2.68595e-08 -1.73425e-08 -0.000999968)
(-2.97336e-08 -1.72979e-08 -0.000999977)
(-4.70383e-09 -2.20037e-08 -0.000999958)
(-1.36549e-08 -2.20087e-08 -0.000999961)
(-2.12348e-08 -2.19506e-08 -0.000999967)
(-2.67796e-08 -2.18655e-08 -0.000999974)
(-2.95922e-08 -2.18629e-08 -0.000999983)
(-4.69542e-09 -2.43523e-08 -0.000999966)
(-1.36061e-08 -2.43549e-08 -0.000999969)
(-2.11581e-08 -2.42718e-08 -0.000999974)
(-2.67719e-08 -2.41049e-08 -0.000999982)
(-2.93327e-08 -2.38505e-08 -0.000999991)
(-6.45832e-09 -5.27324e-09 -0.000999925)
(-1.87352e-08 -5.27303e-09 -0.000999929)
(-2.91078e-08 -5.25511e-09 -0.000999937)
(-3.66386e-08 -5.2127e-09 -0.000999948)
(-4.05516e-08 -5.18355e-09 -0.00099996)
(-6.46033e-09 -1.52933e-08 -0.000999929)
(-1.87398e-08 -1.52823e-08 -0.000999933)
(-2.9097e-08 -1.51955e-08 -0.00099994)
(-3.66302e-08 -1.51075e-08 -0.000999951)
(-4.05835e-08 -1.50306e-08 -0.000999963)
(-6.43339e-09 -2.37411e-08 -0.000999935)
(-1.86441e-08 -2.37172e-08 -0.000999939)
(-2.89847e-08 -2.35946e-08 -0.000999947)
(-3.65413e-08 -2.34568e-08 -0.000999957)
(-4.04745e-08 -2.3336e-08 -0.000999969)
(-6.39722e-09 -2.98777e-08 -0.000999943)
(-1.85523e-08 -2.98492e-08 -0.000999947)
(-2.88369e-08 -2.97315e-08 -0.000999955)
(-3.63759e-08 -2.95694e-08 -0.000999965)
(-4.02868e-08 -2.94919e-08 -0.000999978)
(-6.35447e-09 -3.30665e-08 -0.000999953)
(-1.84434e-08 -3.30521e-08 -0.000999957)
(-2.8701e-08 -3.29239e-08 -0.000999965)
(-3.63017e-08 -3.27254e-08 -0.000999975)
(-3.99385e-08 -3.23927e-08 -0.000999987)
(-8.78991e-09 -7.17099e-09 -0.000999899)
(-2.54931e-08 -7.17539e-09 -0.000999904)
(-3.96231e-08 -7.13439e-09 -0.000999915)
(-4.99221e-08 -7.07581e-09 -0.000999929)
(-5.52527e-08 -7.01344e-09 -0.000999946)
(-8.79732e-09 -2.07801e-08 -0.000999903)
(-2.54872e-08 -2.07576e-08 -0.000999909)
(-3.95905e-08 -2.06396e-08 -0.000999919)
(-4.98866e-08 -2.04991e-08 -0.000999933)
(-5.52663e-08 -2.03376e-08 -0.00099995)
(-8.74873e-09 -3.22524e-08 -0.000999912)
(-2.53618e-08 -3.22022e-08 -0.000999917)
(-3.94347e-08 -3.20424e-08 -0.000999927)
(-4.97118e-08 -3.18225e-08 -0.000999942)
(-5.50823e-08 -3.15886e-08 -0.000999958)
(-8.69424e-09 -4.05828e-08 -0.000999923)
(-2.52219e-08 -4.05251e-08 -0.000999929)
(-3.92113e-08 -4.03595e-08 -0.000999939)
(-4.94388e-08 -4.01062e-08 -0.000999953)
(-5.48128e-08 -3.98552e-08 -0.00099997)
(-8.62305e-09 -4.49335e-08 -0.000999937)
(-2.50649e-08 -4.49053e-08 -0.000999942)
(-3.90104e-08 -4.47335e-08 -0.000999953)
(-4.92075e-08 -4.44898e-08 -0.000999967)
(-5.43969e-08 -4.40938e-08 -0.000999983)
(-1.19547e-08 -9.75712e-09 -0.000999862)
(-3.46712e-08 -9.75426e-09 -0.00099987)
(-5.39001e-08 -9.68644e-09 -0.000999884)
(-6.79267e-08 -9.61757e-09 -0.000999903)
(-7.52462e-08 -9.51816e-09 -0.000999926)
(-1.19559e-08 -2.82648e-08 -0.000999868)
(-3.46421e-08 -2.82254e-08 -0.000999876)
(-5.38539e-08 -2.80764e-08 -0.00099989)
(-6.78742e-08 -2.78865e-08 -0.000999909)
(-7.52203e-08 -2.7637e-08 -0.000999932)
(-1.18901e-08 -4.38734e-08 -0.00099988)
(-3.44953e-08 -4.38137e-08 -0.000999887)
(-5.36561e-08 -4.36281e-08 -0.000999901)
(-6.76116e-08 -4.33228e-08 -0.000999921)
(-7.49523e-08 -4.29845e-08 -0.000999944)
(-1.18248e-08 -5.52041e-08 -0.000999896)
(-3.43218e-08 -5.51463e-08 -0.000999903)
(-5.33637e-08 -5.49383e-08 -0.000999917)
(-6.72388e-08 -5.45892e-08 -0.000999937)
(-7.45853e-08 -5.41967e-08 -0.000999959)
(-1.17405e-08 -6.11623e-08 -0.000999914)
(-3.413e-08 -6.11284e-08 -0.000999922)
(-5.30916e-08 -6.0903e-08 -0.000999936)
(-6.687e-08 -6.05831e-08 -0.000999955)
(-7.41025e-08 -6.0112e-08 -0.000999978)
(-1.62568e-08 -1.32829e-08 -0.000999812)
(-4.71622e-08 -1.32662e-08 -0.000999822)
(-7.33375e-08 -1.31827e-08 -0.000999842)
(-9.23963e-08 -1.31047e-08 -0.000999868)
(-1.02453e-07 -1.29766e-08 -0.0009999)
(-1.62456e-08 -3.84987e-08 -0.000999821)
(-4.71181e-08 -3.8451e-08 -0.000999831)
(-7.32986e-08 -3.82792e-08 -0.00099985)
(-9.23471e-08 -3.80333e-08 -0.000999877)
(-1.02391e-07 -3.77156e-08 -0.000999908)
(-1.61749e-08 -5.97958e-08 -0.000999836)
(-4.69595e-08 -5.97503e-08 -0.000999847)
(-7.30483e-08 -5.95199e-08 -0.000999866)
(-9.20011e-08 -5.91198e-08 -0.000999893)
(-1.0203e-07 -5.8695e-08 -0.000999924)
(-1.61033e-08 -7.52475e-08 -0.000999858)
(-4.67407e-08 -7.51994e-08 -0.000999869)
(-7.26689e-08 -7.49151e-08 -0.000999888)
(-9.15332e-08 -7.44551e-08 -0.000999914)
(-1.01564e-07 -7.39519e-08 -0.000999945)
(-1.60023e-08 -8.33763e-08 -0.000999884)
(-4.64922e-08 -8.33271e-08 -0.000999894)
(-7.2294e-08 -8.30111e-08 -0.000999913)
(-9.1038e-08 -8.25751e-08 -0.000999939)
(-1.01013e-07 -8.20198e-08 -0.00099997)
(-2.21305e-08 -1.81085e-08 -0.000999744)
(-6.42331e-08 -1.80918e-08 -0.000999758)
(-9.99052e-08 -1.79944e-08 -0.000999785)
(-1.25833e-07 -1.78908e-08 -0.000999821)
(-1.39582e-07 -1.77355e-08 -0.000999864)
(-2.21214e-08 -5.25275e-08 -0.000999756)
(-6.4195e-08 -5.2483e-08 -0.00099977)
(-9.98704e-08 -5.2263e-08 -0.000999796)
(-1.25786e-07 -5.19203e-08 -0.000999833)
(-1.39491e-07 -5.15226e-08 -0.000999875)
(-2.20397e-08 -8.16223e-08 -0.000999778)
(-6.39914e-08 -8.15733e-08 -0.000999792)
(-9.95167e-08 -8.12323e-08 -0.000999818)
(-1.2532e-07 -8.06909e-08 -0.000999854)
(-1.38975e-07 -8.01246e-08 -0.000999897)
(-2.1941e-08 -1.027e-07 -0.000999808)
(-6.36674e-08 -1.02629e-07 -0.000999821)
(-9.89892e-08 -1.0219e-07 -0.000999848)
(-1.24694e-07 -1.01549e-07 -0.000999884)
(-1.38309e-07 -1.00845e-07 -0.000999926)
(-2.17998e-08 -1.13739e-07 -0.000999843)
(-6.32987e-08 -1.13639e-07 -0.000999856)
(-9.8424e-08 -1.13142e-07 -0.000999882)
(-1.23976e-07 -1.12464e-07 -0.000999918)
(-1.37539e-07 -1.11678e-07 -0.00099996)
(-3.01835e-08 -2.47384e-08 -0.000999652)
(-8.76091e-08 -2.47261e-08 -0.000999671)
(-1.3625e-07 -2.45886e-08 -0.000999707)
(-1.7161e-07 -2.44226e-08 -0.000999757)
(-1.90338e-07 -2.42049e-08 -0.000999816)
(-3.01814e-08 -7.17576e-08 -0.000999668)
(-8.75624e-08 -7.16896e-08 -0.000999687)
(-1.36172e-07 -7.13418e-08 -0.000999723)
(-1.71515e-07 -7.08197e-08 -0.000999773)
(-1.90196e-07 -7.02431e-08 -0.000999831)
(-3.00528e-08 -1.11469e-07 -0.000999698)
(-8.72241e-08 -1.11349e-07 -0.000999717)
(-1.35616e-07 -1.10792e-07 -0.000999752)
(-1.70821e-07 -1.09994e-07 -0.000999802)
(-1.89409e-07 -1.09132e-07 -0.00099986)
(-2.98828e-08 -1.40211e-07 -0.000999738)
(-8.66987e-08 -1.40043e-07 -0.000999757)
(-1.34819e-07 -1.39323e-07 -0.000999793)
(-1.69875e-07 -1.38354e-07 -0.000999842)
(-1.88345e-07 -1.37288e-07 -0.0009999)
(-2.96563e-08 -1.55201e-07 -0.000999786)
(-8.60887e-08 -1.54991e-07 -0.000999805)
(-1.33908e-07 -1.54176e-07 -0.00099984)
(-1.68786e-07 -1.53064e-07 -0.000999889)
(-1.87076e-07 -1.51774e-07 -0.000999946)
(-4.12092e-08 -3.38323e-08 -0.000999526)
(-1.19559e-07 -3.37954e-08 -0.000999552)
(-1.85889e-07 -3.35823e-08 -0.000999602)
(-2.34179e-07 -3.33069e-08 -0.00099967)
(-2.59683e-07 -3.29728e-08 -0.00099975)
(-4.1186e-08 -9.80603e-08 -0.000999548)
(-1.19449e-07 -9.79061e-08 -0.000999574)
(-1.85705e-07 -9.73299e-08 -0.000999623)
(-2.33959e-07 -9.65183e-08 -0.000999691)
(-2.59435e-07 -9.56032e-08 -0.000999771)
(-4.09701e-08 -1.52226e-07 -0.000999588)
(-1.18871e-07 -1.5196e-07 -0.000999614)
(-1.84821e-07 -1.51062e-07 -0.000999663)
(-2.32871e-07 -1.49826e-07 -0.000999731)
(-2.58238e-07 -1.48427e-07 -0.00099981)
(-4.06794e-08 -1.91429e-07 -0.000999644)
(-1.18032e-07 -1.91082e-07 -0.00099967)
(-1.83574e-07 -1.89922e-07 -0.000999718)
(-2.31353e-07 -1.88389e-07 -0.000999785)
(-2.56567e-07 -1.86682e-07 -0.000999863)
(-4.03143e-08 -2.11822e-07 -0.00099971)
(-1.17028e-07 -2.11429e-07 -0.000999735)
(-1.82104e-07 -2.10148e-07 -0.000999783)
(-2.29631e-07 -2.08413e-07 -0.000999849)
(-2.54548e-07 -2.06375e-07 -0.000999926)
(-5.62469e-08 -4.62674e-08 -0.000999354)
(-1.63131e-07 -4.61703e-08 -0.00099939)
(-2.53608e-07 -4.58535e-08 -0.000999457)
(-3.1956e-07 -4.54173e-08 -0.00099955)
(-3.54349e-07 -4.49077e-08 -0.000999659)
(-5.61685e-08 -1.34016e-07 -0.000999384)
(-1.62905e-07 -1.33723e-07 -0.000999419)
(-2.53267e-07 -1.32821e-07 -0.000999486)
(-3.19141e-07 -1.31582e-07 -0.000999579)
(-3.53901e-07 -1.30143e-07 -0.000999688)
(-5.58393e-08 -2.07952e-07 -0.000999439)
(-1.61992e-07 -2.07489e-07 -0.000999475)
(-2.519e-07 -2.06098e-07 -0.000999541)
(-3.17449e-07 -2.04194e-07 -0.000999633)
(-3.52083e-07 -2.01965e-07 -0.000999741)
(-5.53805e-08 -2.61462e-07 -0.000999516)
(-1.6071e-07 -2.60866e-07 -0.000999551)
(-2.49975e-07 -2.59079e-07 -0.000999617)
(-3.15046e-07 -2.5667e-07 -0.000999708)
(-3.4953e-07 -2.53885e-07 -0.000999814)
(-5.48265e-08 -2.89214e-07 -0.000999605)
(-1.59155e-07 -2.8855e-07 -0.00099964)
(-2.47669e-07 -2.86593e-07 -0.000999705)
(-3.12256e-07 -2.83958e-07 -0.000999795)
(-3.46492e-07 -2.80898e-07 -0.0009999)
(-7.67372e-08 -6.32845e-08 -0.000999119)
(-2.22548e-07 -6.31122e-08 -0.000999168)
(-3.46003e-07 -6.26473e-08 -0.000999259)
(-4.36039e-07 -6.19811e-08 -0.000999386)
(-4.83577e-07 -6.12149e-08 -0.000999535)
(-7.659e-08 -1.83272e-07 -0.000999159)
(-2.22165e-07 -1.82798e-07 -0.000999208)
(-3.45428e-07 -1.81435e-07 -0.0009993)
(-4.35319e-07 -1.7957e-07 -0.000999426)
(-4.82799e-07 -1.77382e-07 -0.000999574)
(-7.61088e-08 -2.84325e-07 -0.000999236)
(-2.20788e-07 -2.83589e-07 -0.000999284)
(-3.43359e-07 -2.81483e-07 -0.000999375)
(-4.32753e-07 -2.78609e-07 -0.0009995)
(-4.80028e-07 -2.75225e-07 -0.000999647)
(-7.54156e-08 -3.57384e-07 -0.00099934)
(-2.18862e-07 -3.56427e-07 -0.000999388)
(-3.40453e-07 -3.53744e-07 -0.000999478)
(-4.29112e-07 -3.50068e-07 -0.000999602)
(-4.76143e-07 -3.45761e-07 -0.000999748)
(-7.45911e-08 -3.95115e-07 -0.000999463)
(-2.16536e-07 -3.9403e-07 -0.00099951)
(-3.36953e-07 -3.91049e-07 -0.000999599)
(-4.24771e-07 -3.87018e-07 -0.000999721)
(-4.71602e-07 -3.82424e-07 -0.000999865)
(-1.04706e-07 -8.66511e-08 -0.000998798)
(-3.03668e-07 -8.63857e-08 -0.000998864)
(-4.72137e-07 -8.5682e-08 -0.00099899)
(-5.95031e-07 -8.46835e-08 -0.000999162)
(-6.60062e-07 -8.35378e-08 -0.000999366)
(-1.04474e-07 -2.50925e-07 -0.000998853)
(-3.03042e-07 -2.50179e-07 -0.000998919)
(-4.71186e-07 -2.48132e-07 -0.000999045)
(-5.93848e-07 -2.45331e-07 -0.000999217)
(-6.58781e-07 -2.42061e-07 -0.00099942)
(-1.03752e-07 -3.89164e-07 -0.000998958)
(-3.00978e-07 -3.8799e-07 -0.000999024)
(-4.68078e-07 -3.8482e-07 -0.000999148)
(-5.89997e-07 -3.80512e-07 -0.000999319)
(-6.54583e-07 -3.75481e-07 -0.00099952)
(-1.0271e-07 -4.88884e-07 -0.000999102)
(-2.98075e-07 -4.8736e-07 -0.000999167)
(-4.63713e-07 -4.83323e-07 -0.00099929)
(-5.84579e-07 -4.77791e-07 -0.000999458)
(-6.4868e-07 -4.71359e-07 -0.000999657)
(-1.01471e-07 -5.40134e-07 -0.00099927)
(-2.94591e-07 -5.38386e-07 -0.000999334)
(-4.58446e-07 -5.33824e-07 -0.000999455)
(-5.78033e-07 -5.27627e-07 -0.000999621)
(-6.41796e-07 -5.20614e-07 -0.000999817)
(-1.42951e-07 -1.18818e-07 -0.000998358)
(-4.14537e-07 -1.18402e-07 -0.000998449)
(-6.44443e-07 -1.17325e-07 -0.000998621)
(-8.12189e-07 -1.15842e-07 -0.000998857)
(-9.01178e-07 -1.1413e-07 -0.000999135)
(-1.42581e-07 -3.44009e-07 -0.000998435)
(-4.13505e-07 -3.4281e-07 -0.000998526)
(-6.42895e-07 -3.39728e-07 -0.000998697)
(-8.1029e-07 -3.35527e-07 -0.000998932)
(-8.99124e-07 -3.30657e-07 -0.000999209)
(-1.41471e-07 -5.33249e-07 -0.000998579)
(-4.10394e-07 -5.31356e-07 -0.000998669)
(-6.38225e-07 -5.26566e-07 -0.000998839)
(-8.04518e-07 -5.20081e-07 -0.000999072)
(-8.92813e-07 -5.12582e-07 -0.000999346)
(-1.39892e-07 -6.6936e-07 -0.000998777)
(-4.05981e-07 -6.66906e-07 -0.000998866)
(-6.31627e-07 -6.60754e-07 -0.000999033)
(-7.96402e-07 -6.52395e-07 -0.000999263)
(-8.83895e-07 -6.4273e-07 -0.000999533)
(-1.38e-07 -7.38909e-07 -0.000999008)
(-4.00675e-07 -7.36081e-07 -0.000999095)
(-6.23628e-07 -7.29055e-07 -0.000999259)
(-7.86493e-07 -7.19526e-07 -0.000999485)
(-8.73326e-07 -7.08685e-07 -0.000999751)
(-1.95322e-07 -1.63165e-07 -0.000997757)
(-5.66227e-07 -1.62497e-07 -0.000997882)
(-8.79995e-07 -1.60863e-07 -0.000998117)
(-1.10891e-06 -1.58661e-07 -0.00099844)
(-1.23065e-06 -1.56144e-07 -0.000998819)
(-1.94714e-07 -4.72294e-07 -0.000997863)
(-5.64547e-07 -4.70353e-07 -0.000997987)
(-8.77521e-07 -4.65692e-07 -0.000998221)
(-1.10594e-06 -4.59405e-07 -0.000998543)
(-1.22742e-06 -4.52219e-07 -0.000998921)
(-1.93003e-07 -7.31598e-07 -0.000998062)
(-5.59811e-07 -7.28528e-07 -0.000998185)
(-8.70482e-07 -7.2124e-07 -0.000998417)
(-1.09733e-06 -7.11468e-07 -0.000998735)
(-1.21801e-06 -7.00287e-07 -0.000999109)
(-1.90574e-07 -9.1743e-07 -0.000998335)
(-5.53056e-07 -9.1344e-07 -0.000998456)
(-8.60471e-07 -9.0401e-07 -0.000998683)
(-1.08511e-06 -8.91346e-07 -0.000998997)
(-1.20466e-06 -8.76814e-07 -0.000999366)
(-1.87646e-07 -1.01169e-06 -0.000998652)
(-5.4489e-07 -1.00707e-06 -0.000998771)
(-8.4827e-07 -9.96211e-07 -0.000998994)
(-1.07013e-06 -9.81601e-07 -0.000999301)
(-1.18857e-06 -9.64956e-07 -0.000999664)
(-2.6721e-07 -2.24409e-07 -0.000996934)
(-7.74098e-07 -2.23318e-07 -0.000997105)
(-1.20224e-06 -2.20852e-07 -0.000997427)
(-1.51446e-06 -2.1757e-07 -0.000997869)
(-1.68081e-06 -2.13894e-07 -0.000998387)
(-2.66201e-07 -6.49504e-07 -0.00099708)
(-7.71374e-07 -6.46327e-07 -0.000997251)
(-1.19832e-06 -6.39234e-07 -0.000997571)
(-1.50985e-06 -6.29844e-07 -0.00099801)
(-1.67583e-06 -6.19281e-07 -0.000998527)
(-2.63527e-07 -1.00525e-06 -0.000997356)
(-7.64075e-07 -1.00022e-06 -0.000997525)
(-1.18769e-06 -9.89079e-07 -0.000997841)
(-1.49705e-06 -9.74393e-07 -0.000998275)
(-1.66192e-06 -9.5783e-07 -0.000998786)
(-2.59732e-07 -1.25905e-06 -0.000997732)
(-7.53675e-07 -1.25252e-06 -0.000997898)
(-1.17251e-06 -1.23802e-06 -0.000998208)
(-1.47878e-06 -1.21887e-06 -0.000998635)
(-1.64219e-06 -1.19731e-06 -0.000999138)
(-2.55166e-07 -1.38649e-06 -0.000998169)
(-7.41028e-07 -1.37892e-06 -0.000998331)
(-1.15388e-06 -1.36209e-06 -0.000998634)
(-1.45634e-06 -1.33979e-06 -0.000999052)
(-1.61825e-06 -1.3147e-06 -0.000999546)
(-3.66331e-07 -3.09128e-07 -0.000995804)
(-1.05961e-06 -3.07265e-07 -0.000996042)
(-1.64335e-06 -3.03532e-07 -0.000996483)
(-2.06864e-06 -2.9862e-07 -0.000997087)
(-2.29539e-06 -2.93243e-07 -0.000997795)
(-3.64579e-07 -8.95053e-07 -0.000996007)
(-1.05513e-06 -8.89683e-07 -0.000996243)
(-1.63717e-06 -8.78866e-07 -0.000996681)
(-2.06151e-06 -8.64853e-07 -0.000997282)
(-2.28782e-06 -8.49439e-07 -0.000997986)
(-3.6029e-07 -1.38384e-06 -0.000996391)
(-1.04375e-06 -1.37541e-06 -0.000996623)
(-1.62112e-06 -1.35836e-06 -0.000997056)
(-2.04264e-06 -1.33639e-06 -0.000997649)
(-2.26761e-06 -1.31221e-06 -0.000998346)
(-3.54239e-07 -1.73059e-06 -0.000996911)
(-1.0276e-06 -1.71966e-06 -0.000997137)
(-1.59816e-06 -1.69727e-06 -0.000997561)
(-2.01561e-06 -1.66846e-06 -0.000998144)
(-2.23891e-06 -1.63682e-06 -0.00099883)
(-3.46934e-07 -1.90218e-06 -0.000997515)
(-1.00773e-06 -1.88962e-06 -0.000997735)
(-1.5697e-06 -1.86347e-06 -0.000998147)
(-1.9822e-06 -1.82958e-06 -0.000998717)
(-2.20393e-06 -1.79214e-06 -0.000999389)
(-5.04124e-07 -4.26262e-07 -0.000994251)
(-1.45316e-06 -4.22829e-07 -0.000994586)
(-2.24761e-06 -4.17248e-07 -0.000995191)
(-2.82564e-06 -4.09821e-07 -0.000996018)
(-3.13283e-06 -4.02133e-07 -0.000996982)
(-5.00848e-07 -1.23672e-06 -0.00099453)
(-1.44564e-06 -1.22716e-06 -0.00099486)
(-2.2379e-06 -1.21076e-06 -0.000995462)
(-2.81476e-06 -1.18982e-06 -0.000996284)
(-3.12171e-06 -1.1678e-06 -0.000997244)
(-4.93689e-07 -1.90945e-06 -0.000995072)
(-1.42765e-06 -1.89479e-06 -0.000995394)
(-2.21376e-06 -1.86875e-06 -0.000995987)
(-2.78729e-06 -1.83603e-06 -0.000996797)
(-3.09333e-06 -1.80145e-06 -0.000997747)
(-4.83683e-07 -2.38328e-06 -0.000995789)
(-1.40223e-06 -2.36429e-06 -0.0009961)
(-2.17916e-06 -2.32953e-06 -0.00099668)
(-2.74778e-06 -2.28638e-06 -0.000997475)
(-3.05247e-06 -2.24064e-06 -0.000998411)
(-4.71506e-07 -2.61266e-06 -0.000996632)
(-1.37032e-06 -2.59155e-06 -0.000996929)
(-2.13555e-06 -2.55088e-06 -0.00099749)
(-2.6984e-06 -2.49971e-06 -0.000998265)
(-3.00275e-06 -2.44429e-06 -0.000999182)
(-6.98848e-07 -5.87061e-07 -0.000992112)
(-1.99906e-06 -5.79965e-07 -0.000992595)
(-3.0761e-06 -5.7214e-07 -0.000993425)
(-3.85955e-06 -5.60413e-07 -0.000994559)
(-4.26982e-06 -5.4989e-07 -0.000995872)
(-6.91993e-07 -1.71535e-06 -0.000992489)
(-1.98614e-06 -1.69691e-06 -0.000992958)
(-3.06095e-06 -1.67257e-06 -0.000993787)
(-3.84298e-06 -1.64084e-06 -0.000994909)
(-4.25424e-06 -1.6103e-06 -0.000996219)
(-6.79338e-07 -2.64258e-06 -0.00099327)
(-1.95692e-06 -2.61552e-06 -0.000993724)
(-3.0247e-06 -2.57635e-06 -0.000994537)
(-3.80347e-06 -2.52756e-06 -0.000995644)
(-4.21689e-06 -2.47958e-06 -0.00099694)
(-6.61734e-07 -3.29064e-06 -0.00099425)
(-1.91636e-06 -3.25542e-06 -0.00099468)
(-2.97302e-06 -3.20093e-06 -0.000995479)