# vtk DataFile Version 4.0
Generated by LIGGGHTS
ASCII
DATASET POLYDATA
POINTS 200 float
-91.1294 -112.078 11.3826 -97.2894 -97.3047 37.1713 -80.4901 -91.9684 11.13 
-114.495 -109.829 10.7837 -24.2287 -77.6417 9.99966 -33.5419 -95.2165 13.9343 
-9.54029 -98.6324 18.8909 -23.5571 -114.921 11.1933 7.58311 -108.781 35.6593 
15.148 -88.4211 11.0233 26.4783 -104.266 15.6711 1.75265 -81.5466 30.0901 
46.5082 -105.596 16.5404 47.3652 -86.6365 10.3429 58.9743 -96.4037 31.081 
68.5762 -98.5394 10.5877 73.404 -112.016 26.0297 65.8583 -78.6788 14.0969 
53.5642 -114.743 36.9409 93.2696 -103.594 14.6109 107.563 -89.9715 11.2691 
111.747 -93.6876 35.2876 84.1635 -85.8977 10.1853 -102.804 -44.7965 25.3175 
-103.285 -67.1054 10.5804 -73.6861 -71.5975 13.0529 -47.6888 -60.8043 10.0943 
-75.9569 -51.4335 11.6242 -50.2211 -41.4987 15.9707 -20.9381 -69.4273 31.7149 
-17.1857 -58.4873 11.8982 -0.937861 -53.5417 22.845 -27.601 -40.7357 10.1122 
8.67449 -67.329 9.99533 30.18 -74.0866 9.99955 35.4873 -53.8611 36.1794 
16.6502 -68.766 36.484 18.4709 -50.0375 14.5687 16.1428 -47.6214 35.6711 
44.7549 -70.4064 27.9513 49.2811 -55.1461 14.7034 63.7756 -41.45 10.3199 
111.224 -73.2374 21.8894 79.9557 -47.3424 20.5383 112.056 -53.9859 15.8509 
96.3913 -43.0192 10.0004 91.1407 -69.3273 21.0112 92.6012 -39.7882 37.0497 
-84.8133 -35.2116 28.6477 -101.205 -24.034 12.6282 -103.02 -28.1709 37.8989 
-82.0676 -9.91595 10.6839 -53.2196 -23.9722 25.6066 -67.8457 -29.0668 11.1166 
-59.9622 -9.49168 10.4674 -40.36 -6.29093 24.1043 -69.1262 -1.19867 27.3182 
-8.2075 -19.4871 10.0149 -21.4553 -32.6754 31.019 -28.9231 -21.2425 14.9661 
-20.8772 -2.97972 13.3656 4.3174 -33.0253 20.8871 37.0199 -24.57 13.1499 
24.4585 -6.64944 12.7262 56.0851 -0.760125 18.1538 63.4018 -21.4432 11.8827 
76.4015 -2.54583 10.1448 83.7295 -27.4875 10.0375 111.532 -6.71754 17.491 
104.657 -24.4817 10.9849 -111.306 21.4784 17.7002 -100.949 2.69061 10.2825 
-89.237 1.03289 26.6802 -65.4944 32.5669 13.6221 -55.3849 11.2171 11.2726 
-53.0983 7.16481 36.6663 -45.5883 30.1226 10.5011 -19.9641 14.0616 23.9468 
-18.2837 32.7388 16.9485 15.6786 8.62001 24.5166 1.07867 15.6407 11.5035 
33.1539 33.5785 19.3693 41.9697 13.4794 15.8655 74.2161 25.6038 10.632 
98.3063 10.009 10.0719 -96.0379 64.5579 32.6378 -84.1453 64.5417 14.8834 
-84.2063 44.7938 10.0458 -63.9361 46.7068 28.6744 -61.871 59.5265 11.1482 
-43.2693 50.2006 10.2085 -43.3753 40.8367 27.8927 -19.2532 57.1058 10.0006 
-37.927 62.5916 29.5141 -20.9201 47.1796 32.8343 -37.6508 69.4783 10.0072 
22.0656 48.2016 10.4832 23.4223 53.4523 36.1203 53.3699 70.4583 18.5531 
51.6276 39.7302 11.0978 68.9828 58.1487 20.8743 107.966 54.0539 11.8321 
84.6039 66.8071 9.99957 88.5703 53.6518 29.4861 105.874 74.9164 12.9632 
-95.7404 81.9743 22.1641 -102.4 101.415 10.1099 -95.7276 110.457 37.9866 
-72.581 104.486 28.7868 -52.8739 100.401 20.8942 -75.0547 86.2315 10.5772 
-55.3433 79.9977 11.8918 -12.7073 113.954 33.4035 -17.676 77.1906 21.7399 
-21.0894 97.7745 23.657 20.0326 90.6296 37.0895 34.8741 82.3711 15.567 
9.97932 98.3112 13.5997 30.6824 104.921 11.1762 25.67 110.96 30.8108 
72.3039 84.088 16.8807 54.7399 95.1682 35.3841 50.0435 98.4033 10.0315 
69.7314 104.11 10.7046 107.195 97.3327 11.0495 89.517 106.806 12.2565 
95.2526 109.052 35.4608 -80.4867 -81.9249 41.1002 -105.703 -108.921 58.7185 
-32.0633 -88.9951 52.9883 35.91 -105.368 43.544 16.869 -90.6346 74.3546 
33.941 -106.834 73.2284 60.5206 -77.3369 38.6318 59.6702 -84.8247 65.0937 
72.9739 -94.2276 53.4585 91.0803 -79.2299 46.4313 104.705 -98.2315 75.2762 
114.018 -77.4437 47.5064 -84.5267 -55.7639 51.8051 -105.584 -50.1206 50.676 
-42.2054 -55.1107 43.6036 -46.2533 -73.4282 52.5067 -18.2726 -39.136 71.0769 
36.8407 -59.0116 73.2875 57.2942 -64.0535 62.4456 75.9782 -69.9352 57.8102 
107.588 -57.3226 40.6001 86.7377 -58.2449 43.9965 -109.925 -9.30134 38.5854 
-79.3463 -13.3634 44.9252 -87.587 -30.6171 64.4332 -43.2643 -34.0485 48.7319 
-65.1554 -27.8253 41.8716 -3.27817 -32.4638 41.0692 -11.0083 -19.5401 56.9132 
11.5716 -14.5416 71.5493 35.6109 -1.93034 64.0935 50.788 -8.99672 39.5025 
62.2372 -23.2917 49.145 98.0237 -12.7325 41.9338 83.0187 -21.1701 52.3155 
109.404 -33.4755 46.6531 97.2843 -28.3667 71.101 -91.5916 15.9305 71.0801 
-111.405 29.1203 49.1298 -70.7131 31.7525 46.3407 -74.5648 7.99043 50.3195 
-32.7725 7.50983 39.0029 -28.0262 29.7999 42.6006 28.6766 33.1513 39.2411 
31.6381 12.4414 40.5376 67.4762 16.7575 39.554 55.8135 23.7523 58.0876 
85.2779 37.7108 47.0915 108.146 0.0988899 55.3742 -105.165 49.7781 43.8261 
-98.7317 61.7455 58.7604 -80.6139 73.6646 69.0613 -41.3707 60.4355 58.016 
36.2085 73.9276 72.9946 76.4135 56.9452 58.2926 -84.2844 80.3058 39.9095 
-102.429 96.3709 63.0003 -42.6576 89.7502 39.0169 -72.4713 96.837 57.3729 
74.4311 113.175 47.4562 105.156 93.2861 54.5924 -103.056 -80.7938 77.9076 
-103.46 -106.318 81.8149 72.0057 -85.7774 85.5009 72.8943 -66.3755 93.9371 
-91.97 -33.115 92.6825 105.691 12.4302 98.7172 -64.9072 64.5741 92.1234 
86.7356 42.8759 96.6947 -53.5403 91.7561 97.4113 69.1739 113.589 95.7541 
-45.3264 -114.212 124.421 -65.2983 -23.212 159.91 
VERTICES 200 400
1 0 
1 1 
1 2 
1 3 
1 4 
1 5 
1 6 
1 7 
1 8 
1 9 
1 10 
1 11 
1 12 
1 13 
1 14 
1 15 
1 16 
1 17 
1 18 
1 19 
1 20 
1 21 
1 22 
1 23 
1 24 
1 25 
1 26 
1 27 
1 28 
1 29 
1 30 
1 31 
1 32 
1 33 
1 34 
1 35 
1 36 
1 37 
1 38 
1 39 
1 40 
1 41 
1 42 
1 43 
1 44 
1 45 
1 46 
1 47 
1 48 
1 49 
1 50 
1 51 
1 52 
1 53 
1 54 
1 55 
1 56 
1 57 
1 58 
1 59 
1 60 
1 61 
1 62 
1 63 
1 64 
1 65 
1 66 
1 67 
1 68 
1 69 
1 70 
1 71 
1 72 
1 73 
1 74 
1 75 
1 76 
1 77 
1 78 
1 79 
1 80 
1 81 
1 82 
1 83 
1 84 
1 85 
1 86 
1 87 
1 88 
1 89 
1 90 
1 91 
1 92 
1 93 
1 94 
1 95 
1 96 
1 97 
1 98 
1 99 
1 100 
1 101 
1 102 
1 103 
1 104 
1 105 
1 106 
1 107 
1 108 
1 109 
1 110 
1 111 
1 112 
1 113 
1 114 
1 115 
1 116 
1 117 
1 118 
1 119 
1 120 
1 121 
1 122 
1 123 
1 124 
1 125 
1 126 
1 127 
1 128 
1 129 
1 130 
1 131 
1 132 
1 133 
1 134 
1 135 
1 136 
1 137 
1 138 
1 139 
1 140 
1 141 
1 142 
1 143 
1 144 
1 145 
1 146 
1 147 
1 148 
1 149 
1 150 
1 151 
1 152 
1 153 
1 154 
1 155 
1 156 
1 157 
1 158 
1 159 
1 160 
1 161 
1 162 
1 163 
1 164 
1 165 
1 166 
1 167 
1 168 
1 169 
1 170 
1 171 
1 172 
1 173 
1 174 
1 175 
1 176 
1 177 
1 178 
1 179 
1 180 
1 181 
1 182 
1 183 
1 184 
1 185 
1 186 
1 187 
1 188 
1 189 
1 190 
1 191 
1 192 
1 193 
1 194 
1 195 
1 196 
1 197 
1 198 
1 199 

POINT_DATA 200
FIELD FieldData 7
id 1 200 int
106 35 20 190 26 104 169 97 153 
38 112 17 110 37 47 49 34 89 
143 48 39 1 50 105 80 10 93 
95 24 193 78 43 45 28 52 184 
181 113 188 101 67 33 108 22 63 
31 122 144 84 44 133 69 29 23 
85 185 172 19 2 94 74 174 83 
25 5 68 3 30 72 41 79 87 
123 81 32 166 40 125 194 61 82 
53 65 8 62 4 13 18 111 100 
86 167 157 141 183 55 21 137 7 
73 99 11 88 66 120 14 90 124 
162 27 16 92 149 64 58 148 91 
96 77 180 103 142 114 15 71 9 
192 150 109 195 135 171 57 70 54 
152 146 117 75 46 51 131 160 163 
196 134 161 36 121 127 155 119 198 
165 60 56 199 145 42 158 98 59 
178 107 179 116 187 115 126 191 132 
147 128 200 139 159 177 76 12 130 
136 164 182 138 189 170 6 168 140 
102 175 197 154 118 173 129 186 151 
156 176 
type 1 200 int
1 1 1 1 1 1 1 1 1 
1 1 1 1 1 1 1 1 1 
1 1 1 1 1 1 1 1 1 
1 1 1 1 1 1 1 1 1 
1 1 1 1 1 1 1 1 1 
1 1 1 1 1 1 1 1 1 
1 1 1 1 1 1 1 1 1 
1 1 1 1 1 1 1 1 1 
1 1 1 1 1 1 1 1 1 
1 1 1 1 1 1 1 1 1 
1 1 1 1 1 1 1 1 1 
1 1 1 1 1 1 1 1 1 
1 1 1 1 1 1 1 1 1 
1 1 1 1 1 1 1 1 1 
1 1 1 1 1 1 1 1 1 
1 1 1 1 1 1 1 1 1 
1 1 1 1 1 1 1 1 1 
1 1 1 1 1 1 1 1 1 
1 1 1 1 1 1 1 1 1 
1 1 1 1 1 1 1 1 1 
1 1 1 1 1 1 1 1 1 
1 1 1 1 1 1 1 1 1 
1 1 
i 3 200 int
0 0 0 0 0 0 0 0 0 
0 0 0 0 0 0 0 0 0 
0 0 0 0 0 0 0 0 0 
0 0 0 0 0 0 0 0 0 
0 0 0 0 0 0 0 0 0 
0 1 0 0 1 0 0 0 0 
0 1 0 0 0 0 0 0 0 
0 1 0 0 0 0 0 0 0 
0 0 0 0 0 0 0 0 0 
0 0 0 0 0 0 0 0 0 
0 0 0 0 0 0 0 0 0 
0 0 0 0 0 0 0 0 0 
0 0 0 0 0 0 0 0 0 
0 0 0 0 0 0 0 0 0 
-1 0 0 0 0 0 0 0 0 
0 0 0 0 0 0 0 0 0 
0 0 0 0 0 0 0 0 0 
0 0 0 0 0 0 0 0 0 
0 0 0 0 0 0 0 0 0 
0 0 0 0 0 0 0 0 0 
0 0 0 0 0 0 0 0 0 
0 0 0 0 0 0 0 0 0 
0 0 0 0 0 0 -1 0 0 
0 0 0 0 0 0 0 0 0 
0 0 0 0 0 0 0 0 0 
0 0 0 0 0 0 0 0 0 
0 0 0 0 0 0 0 0 0 
0 0 0 0 0 0 0 0 0 
-1 0 0 0 0 0 0 0 0 
0 0 0 0 0 0 0 0 0 
0 0 0 0 0 0 0 0 0 
0 0 0 0 0 0 0 0 0 
0 0 0 0 0 0 0 0 0 
0 0 0 0 0 0 0 0 0 
0 0 0 0 0 0 0 0 0 
0 0 0 0 0 0 0 0 0 
0 -1 0 0 -1 0 0 0 0 
0 0 0 0 -1 0 0 0 0 
0 0 0 0 0 0 0 0 0 
0 0 0 0 0 0 0 0 0 
0 0 0 0 0 0 0 0 0 
0 0 0 0 0 0 0 0 0 
0 0 0 0 0 0 1 1 0 
0 0 0 0 0 0 0 0 0 
0 1 0 0 0 0 0 0 0 
0 0 0 -1 0 0 0 0 0 
-1 0 0 0 0 0 0 0 0 
0 0 0 0 0 0 0 0 0 
0 0 0 0 0 0 0 0 0 
0 0 0 0 0 0 1 0 0 
0 0 0 1 0 0 0 0 0 
0 0 0 0 0 0 0 0 0 
0 0 0 0 0 0 0 0 0 
0 0 0 0 0 0 0 0 0 
0 0 0 0 0 0 0 0 0 
1 0 0 0 0 0 0 0 0 
0 0 0 0 0 0 0 0 0 
0 0 0 0 0 0 0 0 0 
0 0 0 0 0 0 1 0 0 
0 0 0 0 0 0 0 0 0 
0 0 0 0 0 0 0 0 0 
0 0 0 0 0 0 0 0 0 
0 0 0 0 0 0 0 0 0 
0 0 0 0 0 0 -1 0 0 
0 0 0 0 0 0 0 0 0 
-1 0 0 0 -1 0 0 -1 0 
1 1 0 0 1 0 
v 3 200 double
0.00950145 -0.0100577 0.00578981 -0.0509386 -0.0230573 0.0374594 -0.067258 0.00627573 0.00451797 
0.00977818 0.00108923 0.00134827 -0.0279819 -0.00352289 7.20509e-05 -0.0296242 -0.00302733 0.00881926 
0.0215181 -0.0232717 -0.0315646 0.0246156 -0.000397782 -0.00579527 0.0245448 0.00963727 0.018172 
0.0285346 -0.0145364 0.00348838 0.0630078 0.00428669 0.00559167 -0.000570307 -0.0352548 0.0224719 
0.0474764 -0.00688441 0.00208489 0.0321523 0.00135708 -0.00666125 0.0463641 0.0362226 0.0441052 
0.0174068 0.0177192 0.00639421 -0.0023923 -0.0199829 -0.00687981 0.0581889 -0.0272238 0.0106362 
0.0656178 0.030476 0.0475645 0.0208275 0.00226407 0.00948765 0.00939775 0.0126966 -0.00576312 
0.0430624 0.0706976 0.0129729 0.0313105 0.0234917 -0.00966804 0.00398521 -0.0398202 0.0199358 
-0.0733597 -0.00731146 0.00331508 -0.101183 -0.041057 0.00842121 -0.0204519 -0.0460007 -0.000311817 
-0.0500796 -0.018538 -0.00166042 -0.0249379 -0.0481469 0.0153846 0.0375307 -0.00663051 0.0216913 
0.021705 -0.0118923 0.00780047 0.000684826 -0.00759016 0.0177448 -0.0154911 -0.0274792 -0.00651677 
-0.0103548 -0.0143741 0.00132303 0.000438894 -0.0294228 1.51055e-06 0.0206125 -0.00676362 0.00802541 
0.0325407 -0.0583804 0.00586246 0.019338 -0.0270801 0.0152475 -0.000544179 -0.0349963 0.0167545 
0.0163121 0.000960509 0.0238295 0.0153714 -0.0132539 -0.0075195 0.016148 -0.00471757 0.00155655 
-0.0721946 -0.0281428 0.0296317 0.0123132 -0.00265871 0.00858759 -0.00408458 -0.0196127 0.00633324 
0.00837409 -0.00655232 -0.00131003 -0.00306651 -0.0506428 0.0348862 0.00537212 -0.01695 0.0415298 
-0.0134555 -0.00393711 0.0514157 -0.0425293 -0.0436582 0.00543556 0.0150265 -0.0422103 0.0347322 
-0.0257047 -0.0404343 0.000831499 -0.0119705 -0.0421584 0.0131599 -0.00408029 -0.0560345 -0.00247421 
-0.0262849 -0.0322333 0.00236176 0.0113762 -0.0426305 -0.0192882 -0.0151314 -0.0369112 -0.0114188 
-0.00124652 -0.0191552 -0.00049951 0.0424968 -0.0330696 0.00531701 -0.0016267 -0.0278544 0.00968532 
-0.0165015 -0.0211011 0.0102971 0.0310944 -0.00300373 0.00632374 0.0567674 -0.0415253 0.0010856 
0.0283621 -0.0436069 0.0105297 0.0194861 0.00841787 0.0254377 0.00356416 -0.00497862 0.00547022 
0.0246073 -0.00481333 -0.00194463 0.0162895 0.00226058 -0.00163053 -0.0064433 0.000867317 0.0144367 
0.0203899 -0.00690659 0.0031848 -0.0377287 -0.0139585 0.0228759 0.00232185 -0.00475471 0.00274672 
-0.0233318 -0.0284415 0.0161681 0.0201366 0.012507 0.00678402 -0.0485334 -0.0498174 0.000760255 
-0.0103368 -0.0467098 -0.0100509 -0.0692856 -0.0289361 0.000378511 -0.0178344 -0.0202796 0.0119568 
-0.0255878 -0.020744 0.011205 0.0392891 0.00166125 -0.0120051 -0.00158206 -0.0281174 0.00395308 
0.0170606 -0.00473361 0.0166539 0.0268933 0.00521958 0.0126636 0.0177289 0.00835911 0.00987108 
-0.0520101 -0.0124939 -0.00152657 -0.0120659 0.0243743 0.0172906 -0.0102104 -0.0259861 0.0168589 
-0.0376447 -0.0240839 0.00284913 -0.0419118 -0.0109939 0.0352417 -0.00478182 -0.0346324 0.0089208 
-0.0289063 -0.0272206 0.00179006 -0.0385572 -0.0235809 0.00425491 -0.00883853 -0.00587556 0.000269258 
-0.0149853 -0.0148935 -0.00220501 -0.0372399 -0.0162776 0.0196903 -0.0197301 -0.0304143 -0.0128744 
0.00506271 -0.0186967 -0.0105676 -0.0251353 -0.000727055 0.0226739 0.0452161 0.0223038 0.0103319 
0.0261358 -0.0139911 0.00214842 0.036461 0.0140903 0.0225284 0.0136061 0.00746976 0.0011356 
0.0254093 -0.00184851 -9.16566e-07 0.0221421 0.011788 0.0331044 0.0331278 0.0385575 0.0189848 
0.00936863 0.00459387 0.0407185 0.00358405 -0.00893758 -0.000441091 0.0108403 0.0526238 0.0357981 
-0.00670756 -0.0454365 0.0545965 -0.0173269 -0.0465379 0.0287994 -0.0217616 -0.00989829 0.00188878 
-0.022268 -0.0307239 0.00864578 0.0307501 -0.0176038 0.022577 -0.0307821 -0.000776566 0.0351526 
-0.0218323 -0.00539605 0.0100353 0.0228071 0.0457375 0.04525 0.0190803 0.0109188 0.0128502 
-0.011958 0.0206343 0.00711293 -0.00635113 0.012471 -0.00637667 0.0450729 0.0114199 0.0243458 
0.0465317 0.0242056 0.0120964 0.0763602 0.0197235 0.0286114 -0.0043031 0.0111045 0.00492355 
0.00174817 0.0281429 -0.0159571 0.00739998 -0.000733958 0.00391141 0.00578224 0.00319572 0.00459606 
-0.0414453 0.03729 0.0174998 -0.0408745 0.00555481 0.064184 -0.0492218 0.0108028 0.0950278 
-0.0765465 -0.0128067 0.034738 0.0169198 0.0105157 0.0210675 0.00738104 -0.0650112 0.104707 
-0.0591374 0.00733186 0.135799 0.00100641 0.0034304 0.0495833 -0.0347662 -0.0204727 0.134786 
-0.0618276 -0.00991514 0.0871621 -0.0277586 -0.00940391 0.0235745 0.0244098 0.00333103 0.0855955 
-0.0879896 -0.0983591 0.107008 0.0235389 -0.071389 0.059149 0.0113617 -0.0727384 0.0634004 
0.00503372 0.0224152 0.0479523 -0.0393551 0.00464078 0.0439304 0.0122134 -0.00593801 0.113295 
-0.00102587 0.157983 0.10752 0.00181099 0.012295 0.108943 0.00305732 0.00317844 0.0917725 
-0.00195165 -0.0296732 0.0408111 -0.000790348 -0.021228 0.0415739 0.0358875 -0.0561951 0.0318153 
-0.000712883 -0.0326364 0.0101895 0.0992112 -0.118452 0.0574765 0.0427064 0.00769908 0.058847 
-0.0124231 -0.0548556 0.00985143 0.03637 -0.0396943 0.0267659 0.0336235 -0.0685921 0.0796483 
-0.0614056 0.103111 0.0568701 0.0353768 0.0666315 0.0867275 0.053226 -0.0266409 0.0368711 
0.032997 -0.0347978 0.0819429 0.011501 -0.0594826 0.0607722 0.0162492 -0.0326076 0.0988194 
0.0148441 -0.040457 0.048359 0.0860777 -0.0005934 0.100453 -0.0248593 -0.065377 0.127269 
0.152332 -0.0177255 0.0687259 -0.026065 -0.0202844 0.0649922 -0.0026518 -0.0277498 0.0334197 
-0.00742607 -0.0506374 0.0206422 -0.0364257 -0.0258117 0.0225159 0.0614447 0.00774425 0.0314438 
0.0549869 0.0460356 -0.000180662 0.0538498 -0.00996428 0.0820917 0.0539664 0.0199676 0.0953172 
0.14619 0.00261619 0.0585351 0.0797438 -0.0610411 0.0558155 0.04782 0.0155242 0.0583324 
-0.0861996 -0.0184204 0.0669597 -0.0785787 -0.00492757 0.137467 0.0186188 0.0450643 0.0591938 
-0.0425142 0.065392 0.109178 -0.0144829 -0.00787855 0.0576796 -0.001014 0.0407659 0.0448405 
-0.0128063 0.0717946 0.108723 -0.0795359 0.0174947 0.0305609 -0.107466 0.0318298 0.0623216 
0.00063983 -0.0241115 0.00555657 -0.0425494 0.0942447 0.116762 -0.0472588 0.0143018 0.121291 
0.0432065 -0.0593629 0.147782 0.0285936 -0.0322605 0.114109 -0.161467 -0.0412989 0.185509 
-0.136949 -0.0496028 0.131358 0.142021 0.0223645 0.187342 0.00788275 0.042737 0.172991 
-0.09523 0.0863434 0.174734 0.0754309 -0.0984574 0.210548 0.0321593 -0.0689761 0.140347 
0.192618 0.0122523 0.218674 -0.0519131 0.273761 0.298965 
f 3 200 double
0 0 -0.10273 0 0 -0.10273 0 0 -0.10273 
0 0 -0.10273 -0.00436253 -0.00635049 -0.118139 0 0 -0.10273 
0 0 -0.10273 0 0 -0.10273 0 0 -0.10273 
0 0 -0.10273 0 0 -0.10273 0 0 -0.10273 
-14.9145 -25.1708 10.9885 14.9145 25.1708 -11.194 -0.286616 -0.425442 0.308974 
0 0 -0.10273 0 0 -0.10273 0 0 -0.10273 
0.286616 0.425442 -0.514434 0 0 -0.10273 0 0 -0.10273 
0 0 -0.10273 0 0 -0.10273 0 0 -0.10273 
0 0 -0.10273 0 0 -0.10273 0 0 -0.10273 
0 0 -0.10273 0 0 -0.10273 0 0 -0.10273 
0 0 -0.10273 0 0 -0.10273 0 0 -0.10273 
0.243329 -0.112088 0.433078 -0.042833 -0.0273106 -0.00113214 0 0 -0.10273 
0 0 -0.10273 0 0 -0.10273 0 0 -0.10273 
0 0 -0.10273 0 0 -0.10273 0 0 -0.10273 
0 0 -0.10273 -0.092501 0.0215853 -0.0641195 1.39822 -1.46979 -0.352816 
-1.30572 1.4482 0.108746 0 0 -0.10273 0 0 -0.10273 
0 0 -0.10273 0 0 -0.10273 0 0 -0.10273 
0 0 -0.10273 0 0 -0.10273 0 0 -0.10273 
0 0 -0.10273 0 0 -0.10273 0 0 -0.10273 
0 0 -0.10273 0 0 -0.10273 0 0 -0.10273 
0 0 -0.10273 0 0 -0.10273 0 0 -0.10273 
0 0 -0.10273 0 0 -0.10273 0 0 -0.10273 
0 0 -0.10273 0 0 -0.10273 0 0 -0.10273 
0 0 -0.10273 0 0 -0.10273 0 0 -0.10273 
0 0 -0.10273 0 0 -0.10273 0 0 -0.10273 
0 0 -0.10273 0 0 -0.10273 0 0 -0.10273 
0 0 -0.10273 0 0 -0.10273 0 0 -0.10273 
0 0 -0.10273 0 0 -0.10273 0 0 -0.10273 
0 0 -0.10273 0 0 -0.10273 0 0 -0.10273 
0 0 -0.10273 0 0 -0.10273 0 0 -0.10273 
0 0 -0.10273 0 0 -0.10273 0 0 -0.10273 
0 0 -0.10273 0 0 -0.10273 0 0 -0.10273 
0 0 -0.10273 0 0 -0.10273 0 0 -0.10273 
0 0 -0.10273 0 0 -0.10273 0 0 -0.10273 
0.0140784 -0.0474262 -0.00378664 0 0 -0.10273 0 0 -0.10273 
0 0 -0.10273 0 0 -0.10273 0 0 -0.10273 
0 0 -0.10273 0 0 -0.10273 0 0 -0.10273 
0 0 -0.10273 0 0 -0.10273 0 0 -0.10273 
0 0 -0.10273 0 0 -0.10273 0 0 -0.10273 
0 0 -0.10273 0 0 -0.10273 0 0 -0.10273 
0 0 -0.10273 0 0 -0.10273 0 0 -0.10273 
0 0 -0.10273 0 0 -0.10273 0 0 -0.10273 
0 0 -0.10273 0 0 -0.10273 0 0 -0.10273 
0 0 -0.10273 0 0 -0.10273 0 0 -0.10273 
0 0 -0.10273 0 0 -0.10273 0 0 -0.10273 
0 0 -0.10273 0 0 -0.10273 0 0 -0.10273 
0 0 -0.10273 0 0 -0.10273 0 0 -0.10273 
0 0 -0.10273 0 0 -0.10273 0 0 -0.10273 
0 0 -0.10273 0 0 -0.10273 0 0 -0.10273 
0 0 -0.10273 0 0 -0.10273 0 0 -0.10273 
0 0 -0.10273 0 0 -0.10273 0 0 -0.10273 
0 0 -0.10273 0 0 -0.10273 0 0 -0.10273 
0 0 -0.10273 0 0 -0.10273 0 0 -0.10273 
0 0 -0.10273 0 0 -0.10273 0 0 -0.10273 
0 0 -0.10273 0 0 -0.10273 0 0 -0.10273 
0 0 -0.10273 0 0 -0.10273 0 0 -0.10273 
0 0 -0.10273 0 0 -0.10273 0 0 -0.10273 
0 0 -0.10273 0 0 -0.10273 0 0 -0.10273 
0 0 -0.10273 0 0 -0.10273 0 0 -0.10273 
0 0 -0.10273 0 0 -0.10273 0 0 -0.10273 
0 0 -0.10273 0 0 -0.10273 0 0 -0.10273 
0 0 -0.10273 0 0 -0.10273 0 0 -0.10273 
0 0 -0.10273 0 0 -0.10273 0 0 -0.10273 
0 0 -0.10273 0 0 -0.10273 0 0 -0.10273 
0 0 -0.10273 0 0 -0.10273 0 0 -0.10273 
0 0 -0.10273 0 0 -0.10273 0 0 -0.10273 
0 0 -0.10273 0 0 -0.10273 
radius 1 200 double
10 10 10 10 10 10 10 10 10 
10 10 10 10 10 10 10 10 10 
10 10 10 10 10 10 10 10 10 
10 10 10 10 10 10 10 10 10 
10 10 10 10 10 10 10 10 10 
10 10 10 10 10 10 10 10 10 
10 10 10 10 10 10 10 10 10 
10 10 10 10 10 10 10 10 10 
10 10 10 10 10 10 10 10 10 
10 10 10 10 10 10 10 10 10 
10 10 10 10 10 10 10 10 10 
10 10 10 10 10 10 10 10 10 
10 10 10 10 10 10 10 10 10 
10 10 10 10 10 10 10 10 10 
10 10 10 10 10 10 10 10 10 
10 10 10 10 10 10 10 10 10 
10 10 10 10 10 10 10 10 10 
10 10 10 10 10 10 10 10 10 
10 10 10 10 10 10 10 10 10 
10 10 10 10 10 10 10 10 10 
10 10 10 10 10 10 10 10 10 
10 10 10 10 10 10 10 10 10 
10 10 
omega 3 200 double
0.00132013 0.000155606 -0.00451082 -0.00338357 -0.00881959 0.00533831 -0.00284012 -0.00647579 0.00860279 
-0.00260037 0.000378603 0.000352676 0.00206278 -0.00397327 -0.00979281 -0.000907559 0.0325786 0.00755204 
0.000593172 0.0177535 0.00177045 -0.00187716 0.0115877 -2.73113e-05 -0.0082241 -0.0184978 0.0115355 
-0.00378163 0.000264917 0.00553657 0.00417769 0.00497853 -0.00190606 0.00695751 -0.00167194 -0.0015257 
-0.000218774 0.000868386 -0.00220447 8.66758e-05 0.00627291 0.00227097 0.000761521 -0.000141512 0.0024692 
-0.00189508 0.00283725 -0.00316316 0.00313847 -0.00706368 -0.000334036 0.00395833 -0.0040451 -0.00118705 
0.0088251 -0.0246898 0.0167864 -0.00225179 0.00653096 -0.00266702 0.00417536 -0.00180618 0.000371682 
-0.0016421 0.00263299 -0.00515961 -0.000197516 -0.00248471 0.00275622 0.00152636 0.000353733 0.000444301 
-0.000884236 -0.00350858 0.00289913 -0.00457757 -0.00412192 -0.00271615 -0.00264178 -0.00484121 -0.00252534 
0.00363611 0.00416076 -0.00275022 0.00508761 -0.00241614 0.00187368 -0.00583878 -0.00912049 0.0089833 
0.00102442 0.00384898 0.00446258 0.000249527 0.000195816 -0.00327292 -0.00219638 -0.00402893 -0.000170926 
0.001916 2.5201e-06 -0.00137414 0.00344579 -0.000745696 0.00154149 0.0166927 -0.0103946 0.00529395 
-0.0191521 0.00670831 0.00557525 -0.000728147 -0.000632592 0.00023645 0.0162018 -0.00125608 -0.000530288 
-0.00718566 0.00476042 -0.00380519 0.00628058 0.00460627 -0.00287463 0.000808646 4.47328e-05 0.000941368 
-0.00387256 0.00362077 0.0024317 -0.00151465 -0.000185275 -0.00103737 -0.000643284 -0.00121987 -0.00223561 
0.000118287 0.000688684 0.000318032 0.000602598 -0.00344934 -0.00317815 0.00439241 0.000526243 -0.000592775 
-0.000783967 -8.14273e-05 -0.00206795 0.000578813 -0.00665564 -0.00188322 0.000881248 0.000130321 -6.4988e-05 
0.00342648 -0.00311872 -0.00333191 -0.00585274 0.00170287 -0.00382385 -0.00330975 0.00229109 0.00231998 
0.00468991 -0.00202603 0.00282155 0.00209673 0.000342924 0.00351766 -0.016296 0.00202665 -0.00873482 
0.00113649 -0.000457194 -0.000310658 -0.0035722 -0.00276737 0.000361321 0.00308688 0.00861295 -0.000832336 
0.00184734 -0.000266564 0.00193937 -0.00161233 -0.00171243 0.00471845 -0.000472944 0.00390013 -0.00285544 
-0.00109823 0.00258856 0.00488849 -0.00261111 0.00600931 -0.00178471 -0.00134254 0.00232183 0.00200013 
0.00100324 -0.00344296 0.000742736 -0.000258661 -0.000567699 -0.00109064 -0.00119873 -0.00440613 0.00246139 
0.00176298 0.00333401 -0.000422864 0.00489212 0.00686496 0.00226856 -0.000574974 0.00112522 0.00171804 
-0.00469474 0.00385403 0.00561229 -0.00360031 0.0019574 0.000106027 -0.002305 0.00750288 0.00706977 
0.0032657 -0.00396552 -0.00266139 0.00191745 -0.00678843 -0.00278582 -0.00172643 0.000694084 -0.0015138 
0.00208259 -0.00169668 0.00276667 -0.0123275 0.00306768 0.00320798 0.00284294 -0.000169242 0.00775344 
0.00371015 -0.0011668 -0.0103407 0.000786888 -0.00374881 0.00250376 0.00403466 0.0102085 -0.00391056 
0.00308811 -0.0052441 0.00322741 -0.00456553 0.00200442 -0.00840917 0.00417875 -0.000539097 -0.00119517 
0.000217525 -0.00161346 -0.00244657 -0.0118402 -0.000642223 -0.00292956 0.00346394 -0.000456186 -0.00140247 
0.00200151 -0.00286634 -0.00153313 -0.00304195 0.0067624 -0.00320162 -0.00294673 0.000241151 -0.00128622 
-0.00398088 0.0114749 0.00165459 0.00626752 -0.00256078 0.0059099 0.000957162 -0.00211018 0.00133645 
0.00362453 0.00127691 -0.000347534 -0.00738111 -0.00572968 0.00452971 -0.00224898 0.00370534 -0.00151037 
-0.000727895 0.00296769 0.00736834 -0.00308073 -0.00344099 -0.000967639 -0.0089631 -0.000127829 -0.0122783 
0.00189481 0.00304858 -0.00705745 -0.00837042 0.0037492 0.000295462 0.00916193 0.0111217 0.0101917 
-0.00217099 0.00184732 -0.00227056 -0.000768172 -0.00034784 0.00353175 0.00353056 -0.0034007 0.00957068 
0.00471913 -0.00913708 -0.00363514 0.00896371 -0.0041823 -0.000805226 -0.00322597 0.00180796 -0.00220908 
0.00325811 -0.0024953 0.000147258 -0.000794035 -0.0249023 -0.012441 0.00903446 -0.0101073 0.00461025 
-0.00913763 -0.00551578 -0.0101012 -0.00158359 -0.00351469 -0.00687268 -0.00321591 0.00234618 0.00279753 
-0.00133421 0.00541715 -0.00501372 0.00717326 -0.00117867 0.00258622 -0.000566142 0.00628541 -0.0106167 
-0.00252041 -0.00198418 0.00555278 -0.00687025 0.00606391 -0.0072255 -0.00110791 -0.000431659 -0.00090526 
-0.000200713 0.000257279 -0.00145068 -0.00160123 0.000470538 -0.00281243 0.0036054 -0.00151 0.00176629 
0.000439033 0.00290336 -0.00337745 0.00989805 0.0106331 -0.00338723 -0.00335352 0.00573144 -0.00479 
0.0342642 -0.0415043 0.000776792 -0.00465318 -0.0216923 -0.00450752 0.0151885 -0.00777249 0.00705994 
0.00956397 -0.00967598 -0.00967577 -0.00728512 -0.00749921 -0.00300099 -0.0016104 0.0109923 -0.00706491 
0.00398063 0.00264472 0.00714852 -0.00203046 0.00130728 -0.00129296 -0.0113544 -0.0190208 -0.00920641 
0.00608342 -0.00971806 -0.00723525 0.00949725 0.00191945 -0.00423808 -0.00394059 -0.00304981 0.00520848 
0.00588467 0.0146415 -0.00588362 -0.00385607 0.00122563 0.00473977 -0.00020555 0.0199503 -0.0150804 
-0.0154412 0.0204719 0.000492402 -0.0050035 -0.00124854 0.000899047 0.00673651 0.00242081 -0.00204705 
-0.00320591 -0.00536907 -0.00178298 0.000502391 0.00762762 -0.0037191 0.00117794 0.0132338 0.00509204 
-0.00924267 0.0066681 -0.00710839 0.00362265 -0.0054473 -0.00556928 -0.0117837 0.000999983 0.00389863 
0.00548529 -0.00278072 0.00507717 0.00492887 0.00239904 -0.00154749 0.0019154 -0.0184931 -0.00633372 
0.0186031 -0.000550166 -0.00515112 -0.014589 -0.00166659 0.00890706 0.000896901 0.00110709 6.99048e-05 
-0.000466164 -0.00863109 0.000133867 0.0139857 -0.00203679 -0.00761557 -0.00522537 0.00940292 0.00158985 
-0.00125761 0.00107883 -0.000113402 0.0184845 -0.00422311 -0.0152613 0.0249773 0.0192153 0.00362842 
0.0170041 0.0292788 -0.00375591 0.00729004 -0.00102216 0.00798456 0.0139548 -0.000494172 0.00911445 
0.00632048 0.00130542 0.00136667 -0.00907829 -0.00407 -0.00155759 0.0022761 0.00586177 0.0112949 
0.00239024 -0.00151284 -0.00691419 0.00116497 -5.02564e-05 0.00276613 0.0025073 -0.000101789 -0.0129513 
0.00108415 0.0137747 0.00897956 -0.0239462 -0.011139 -0.0162508 0.0204059 0.0141723 0.00314637 
0.00733832 -0.00919308 -0.00118547 0.00829748 0.000625044 0.00268962 0.00629901 -0.000599064 -0.0036095 
0.00164447 -0.00510417 -0.00236326 0.0227525 0.03143 -0.000719713 0.00137412 -0.009569 0.00586478 
-0.00849521 -0.0181856 -0.0100647 0.00190037 -0.00387029 0.0169307 -0.0135003 0.0126678 -0.00119773 
-0.00256663 0.00866043 -0.00500138 -0.0101809 0.0129595 0.00187605 0.00616895 -0.00764677 0.00417156 
-0.00524884 0.0141903 0.00296363 0.0193047 -0.0193627 0.00046341 0.0019394 -0.0273083 0.0126219 
0.000613527 -0.0258206 0.00512237 -0.0144887 0.0255473 0.00386759 -0.0179056 0.0137717 0.00713578 
-0.00903539 -0.026295 0.00519177 0.0178598 -0.00616373 3.66213e-06 0.0265068 -0.0033898 -0.00252821 
-0.00490483 0.0126199 -0.000660619 -0.0178387 -0.0113593 0.00164486 
