# vtk DataFile Version 4.0
Generated by LIGGGHTS
ASCII
DATASET POLYDATA
POINTS 200 float
-91.505 -110.859 10.7481 -92.1955 -94.999 33.3764 -73.7643 -92.596 10.6292 
-76.3992 -82.4804 34.6328 -21.4522 -77.321 10.0052 -30.5795 -94.9138 13.0033 
-11.6921 -96.3053 21.9983 -15.7683 -113.593 32.3384 -26.0186 -114.881 11.7238 
5.04983 -109.691 33.7546 11.6615 -86.2215 11.0207 20.4062 -105.162 14.7909 
1.80968 -78.0211 27.7939 40.6234 -107.046 17.0169 40.5819 -88.2223 10.0408 
54.3747 -96.3807 27.3894 60.42 -77.68 33.6244 64.6252 -102.175 10.5977 
73.6696 -110.004 26.7181 114.527 -109.938 10.5998 92.2677 -104.787 13.2989 
106.818 -91.1234 11.7447 107.44 -100.757 33.9412 81.8708 -83.5811 10.6578 
-102.713 -41.0759 23.1426 -106.608 -68.6223 36.5756 -91.5552 -65.0278 10.1909 
-63.9233 -69.7884 12.1119 -44.1725 -55.0954 37.4447 -45.6436 -56.2042 10.0764 
-70.5935 -47.2832 11.791 -24.6912 -68.7643 29.4968 -19.3562 -57.2981 11.0691 
-1.00634 -52.7827 21.0214 9.97289 -66.0295 10.2688 30.1132 -71.1589 10.0027 
34.3885 -54.17 34.8587 13.4166 -63.0123 35.9135 16.5308 -47.3098 12.9945 
15.2143 -43.0521 34.351 43.121 -70.5133 25.5271 47.657 -53.9161 15.4255 
64.9483 -72.7097 13.0392 62.1009 -40.8595 10.1565 114.223 -72.4316 18.9251 
78.7346 -47.1749 19.7056 112.284 -52.3126 15.008 95.6798 -42.3325 10.0603 
91.4473 -64.263 17.4736 107.208 -53.3408 36.6508 -83.4678 -34.8179 23.4571 
-96.9519 -19.6682 12.0356 -104.409 -23.374 34.6371 -79.5133 -5.92509 10.2849 
-113.508 -3.68125 35.356 -52.0226 -19.7564 24.2416 -67.4348 -23.4621 11.3144 
-47.7273 -36.684 14.3832 -57.3367 -6.26961 10.1828 -41.4976 -2.02788 25.9841 
-26.0746 -38.181 10.6902 -8.08285 -17.5716 10.0158 -25.705 -29.3685 30.4383 
-6.91517 -28.4944 38.3435 -28.7645 -18.3973 13.9534 -19.2428 -0.880611 12.2978 
1.20795 -32.7249 20.2057 31.3432 -20.4175 12.9923 21.6223 -2.28875 11.6242 
44.9075 -6.15962 35.1519 54.1364 -1.60191 15.561 62.9598 -20.7845 11.2293 
73.9407 -2.06449 10.2902 82.0664 -27.5274 10.1605 112.176 -6.80427 15.9983 
102.557 -23.5165 10.6476 92.0649 -38.0933 32.8506 97.0553 -7.93329 34.366 
-107.533 22.8743 15.3636 -101.148 3.20549 10.0255 -87.8004 4.36547 25.7607 
-67.508 31.3162 12.8947 -66.7003 2.05659 27.9315 -50.5316 16.1988 11.1475 
-52.0646 11.8358 37.6223 -38.6694 32.8695 10.3105 -18.1408 16.218 22.7155 
-32.0299 12.5736 36.8897 -15.7222 34.8292 15.7741 11.7496 8.45388 25.6681 
1.23688 18.4524 11.0591 31.4926 33.5088 17.6483 22.5322 32.3769 36.0476 
39.2804 12.9575 14.5501 62.0913 17.7539 31.2957 73.3588 24.2389 11.0652 
103.507 11.2583 10.1755 -94.782 60.8494 28.906 -82.9718 67.6141 13.1185 
-80.0795 47.2524 10.76 -59.7449 47.8061 25.1012 -61.3929 62.9897 10.207 
-40.4079 53.086 10.033 -39.4807 43.1782 27.4693 -18.3409 57.7827 10.0599 
-36.4284 64.081 29.6855 -17.1961 48.8074 30.8162 -35.6778 72.5197 11.2456 
21.5145 50.6144 11.4975 25.9358 53.525 33.8039 48.8483 68.2279 17.4709 
49.014 41.1293 10.8339 65.3367 56.7397 18.5724 107.336 49.5695 11.0526 
82.0702 66.9678 9.99889 86.3561 52.473 26.1266 101.831 74.7981 11.6325 
-96.6773 81.5149 18.0432 -103.333 102.095 10.1114 -96.8116 105.194 34.3577 
-82.1285 79.296 35.8924 -71.9102 109.029 23.2781 -51.1412 105.055 17.9652 
-72.8785 87.2213 10.3393 -53.1165 83.0701 10.9782 -14.5978 77.2682 18.1756 
-18.9202 97.6219 21.3627 -34.704 88.0008 35.9118 17.7519 86.0558 32.5154 
32.9661 81.2793 14.2329 11.1751 96.2477 12.8394 31.3175 103.674 11.7648 
21.2415 109.763 28.3656 67.5774 81.2764 15.8193 49.3402 90.3985 32.4297 
48.1338 110.801 31.6601 49.9648 96.1495 11.3874 69.345 101.411 12.0739 
106.824 96.6816 10.5911 88.9247 105.521 11.8093 99.3971 105.323 33.6617 
-100.781 -110.001 49.1666 -107.781 -100.382 66.9877 -98.33 -82.224 65.7294 
-24.4087 -87.7144 49.4655 31.0143 -105.797 41.1467 16.1309 -84.1335 63.8348 
63.3491 -85.4398 53.1791 74.3671 -114.414 46.8514 69.1464 -82.5513 74.041 
39.8547 -107.567 59.5995 79.4704 -93.6321 43.556 95.5668 -79.673 42.4225 
102.264 -98.5646 66.6676 -86.8806 -48.625 45.8411 -106.72 -42.8468 44.2869 
-40.854 -76.1491 49.3793 -19.494 -38.5422 59.6983 36.9433 -74.8099 62.4864 
55.5679 -61.9011 51.9815 74.9932 -69.2268 49.2631 86.8149 -56.087 39.7557 
89.041 -62.2456 75.3372 -79.3742 -9.90347 44.0308 -97.5081 -18.772 58.6365 
-47.5349 -34.8184 42.7981 -63.814 -22.536 40.6638 -14.3706 -12.6809 48.8993 
17.7122 -24.8528 65.8132 32.0732 -8.59349 55.3717 59.4954 -19.9849 41.5162 
80.7823 -18.2069 42.5016 107.561 -29.3052 41.8978 88.6765 -28.3073 61.0067 
-89.1056 22.4682 58.3041 -68.1066 33.7809 39.7924 -74.2996 10.7654 46.9284 
-24.3836 32.3811 40.2999 26.1394 7.83783 40.5066 70.6589 37.4492 41.189 
50.4169 21.7555 48.5068 103.362 30.8929 42.2082 100.595 7.64901 51.0668 
-112.05 46.43 39.3815 -90.1117 63.5875 52.0154 -72.756 74.1574 55.2655 
-43.2325 55.9291 52.0476 -65.6954 60.3004 74.7752 40.46 67.3884 62.0278 
77.8618 57.733 52.4756 -101.148 89.1914 52.079 -61.0834 101.602 76.3075 
-61.7248 93.654 51.0917 109.411 83.8616 42.8671 65.9579 -109.514 81.6703 
-78.2751 -28.1547 79.4976 91.4885 10.1937 79.9339 96.2586 34.2416 79.1722 
-64.5882 114.563 102.505 -60.107 -50.5881 129.965 
VERTICES 200 400
1 0 
1 1 
1 2 
1 3 
1 4 
1 5 
1 6 
1 7 
1 8 
1 9 
1 10 
1 11 
1 12 
1 13 
1 14 
1 15 
1 16 
1 17 
1 18 
1 19 
1 20 
1 21 
1 22 
1 23 
1 24 
1 25 
1 26 
1 27 
1 28 
1 29 
1 30 
1 31 
1 32 
1 33 
1 34 
1 35 
1 36 
1 37 
1 38 
1 39 
1 40 
1 41 
1 42 
1 43 
1 44 
1 45 
1 46 
1 47 
1 48 
1 49 
1 50 
1 51 
1 52 
1 53 
1 54 
1 55 
1 56 
1 57 
1 58 
1 59 
1 60 
1 61 
1 62 
1 63 
1 64 
1 65 
1 66 
1 67 
1 68 
1 69 
1 70 
1 71 
1 72 
1 73 
1 74 
1 75 
1 76 
1 77 
1 78 
1 79 
1 80 
1 81 
1 82 
1 83 
1 84 
1 85 
1 86 
1 87 
1 88 
1 89 
1 90 
1 91 
1 92 
1 93 
1 94 
1 95 
1 96 
1 97 
1 98 
1 99 
1 100 
1 101 
1 102 
1 103 
1 104 
1 105 
1 106 
1 107 
1 108 
1 109 
1 110 
1 111 
1 112 
1 113 
1 114 
1 115 
1 116 
1 117 
1 118 
1 119 
1 120 
1 121 
1 122 
1 123 
1 124 
1 125 
1 126 
1 127 
1 128 
1 129 
1 130 
1 131 
1 132 
1 133 
1 134 
1 135 
1 136 
1 137 
1 138 
1 139 
1 140 
1 141 
1 142 
1 143 
1 144 
1 145 
1 146 
1 147 
1 148 
1 149 
1 150 
1 151 
1 152 
1 153 
1 154 
1 155 
1 156 
1 157 
1 158 
1 159 
1 160 
1 161 
1 162 
1 163 
1 164 
1 165 
1 166 
1 167 
1 168 
1 169 
1 170 
1 171 
1 172 
1 173 
1 174 
1 175 
1 176 
1 177 
1 178 
1 179 
1 180 
1 181 
1 182 
1 183 
1 184 
1 185 
1 186 
1 187 
1 188 
1 189 
1 190 
1 191 
1 192 
1 193 
1 194 
1 195 
1 196 
1 197 
1 198 
1 199 

POINT_DATA 200
FIELD FieldData 7
id 1 200 int
106 35 20 150 26 104 169 149 97 
153 38 112 17 110 37 47 70 49 
34 190 48 39 1 50 105 75 80 
10 131 93 95 193 78 43 28 52 
184 181 113 188 101 67 89 33 108 
22 63 31 122 36 84 44 133 69 
127 29 23 24 85 185 45 19 2 
60 94 74 174 83 25 42 5 68 
3 30 72 41 144 98 79 87 123 
81 172 32 166 40 125 126 194 61 
82 53 132 65 128 8 62 4 13 
18 111 100 86 167 157 141 183 55 
21 137 7 73 99 11 88 66 120 
14 90 124 182 162 27 16 92 64 
58 189 148 91 96 77 180 103 142 
143 114 15 71 9 192 109 102 140 
195 135 171 54 6 175 57 152 146 
117 46 51 160 163 196 134 161 121 
197 155 119 198 165 56 199 145 158 
59 178 107 179 187 115 191 147 139 
200 116 159 177 76 12 130 173 136 
164 138 186 170 168 151 154 118 129 
156 176 
type 1 200 int
1 1 1 1 1 1 1 1 1 
1 1 1 1 1 1 1 1 1 
1 1 1 1 1 1 1 1 1 
1 1 1 1 1 1 1 1 1 
1 1 1 1 1 1 1 1 1 
1 1 1 1 1 1 1 1 1 
1 1 1 1 1 1 1 1 1 
1 1 1 1 1 1 1 1 1 
1 1 1 1 1 1 1 1 1 
1 1 1 1 1 1 1 1 1 
1 1 1 1 1 1 1 1 1 
1 1 1 1 1 1 1 1 1 
1 1 1 1 1 1 1 1 1 
1 1 1 1 1 1 1 1 1 
1 1 1 1 1 1 1 1 1 
1 1 1 1 1 1 1 1 1 
1 1 1 1 1 1 1 1 1 
1 1 1 1 1 1 1 1 1 
1 1 1 1 1 1 1 1 1 
1 1 1 1 1 1 1 1 1 
1 1 1 1 1 1 1 1 1 
1 1 1 1 1 1 1 1 1 
1 1 
i 3 200 int
0 0 0 0 0 0 0 0 0 
0 0 0 0 0 0 0 0 0 
0 0 0 0 0 0 0 0 0 
0 0 0 0 0 0 0 0 0 
0 0 0 0 0 0 0 0 0 
0 0 0 0 0 0 0 1 0 
0 1 0 -1 0 0 0 0 0 
0 0 0 0 1 0 0 0 0 
0 0 0 0 0 0 0 0 0 
0 0 0 0 0 0 0 0 0 
0 0 0 0 0 0 0 0 0 
0 0 0 0 0 0 0 0 0 
0 0 0 0 0 0 0 0 0 
0 0 0 0 0 0 0 0 0 
0 0 0 0 0 0 -1 0 0 
0 0 0 0 0 0 0 0 0 
0 0 0 0 0 0 0 0 0 
0 0 0 0 0 0 0 0 0 
1 0 0 0 0 0 0 0 0 
0 0 0 0 0 0 0 0 0 
0 0 0 0 0 0 0 0 0 
0 0 0 0 0 0 0 0 0 
0 0 0 0 0 0 0 0 0 
0 0 0 0 0 0 0 0 0 
0 0 0 0 0 0 -1 0 0 
0 0 0 0 0 0 0 0 0 
0 0 0 0 0 0 0 0 0 
0 0 0 0 0 0 0 0 0 
0 0 0 0 0 0 0 0 0 
0 0 0 0 0 0 0 0 0 
0 0 0 0 0 0 0 0 0 
0 0 0 0 0 0 0 0 0 
-1 0 0 0 0 0 0 0 0 
0 0 0 0 0 0 0 0 0 
0 0 0 0 0 0 0 0 0 
0 0 0 0 0 0 0 0 0 
0 0 0 0 0 0 0 0 0 
0 0 0 0 0 0 0 0 0 
0 0 0 0 0 0 0 0 0 
0 0 0 0 0 0 0 0 0 
0 0 0 0 -1 0 0 -1 0 
0 0 0 0 0 0 0 0 0 
0 0 0 0 0 0 0 0 0 
0 0 0 0 0 0 0 0 0 
0 0 0 0 0 0 0 0 0 
0 0 0 0 0 0 0 0 0 
0 0 0 0 0 0 0 0 0 
1 1 0 0 0 0 0 0 0 
0 0 0 0 0 0 0 0 0 
0 0 0 0 1 0 0 0 0 
0 1 0 0 0 0 -1 0 0 
0 0 0 0 0 0 0 0 0 
0 0 0 0 0 0 0 0 0 
0 0 0 0 0 0 0 0 0 
-1 0 0 0 0 0 1 0 0 
0 0 0 0 0 0 0 0 0 
0 0 0 0 0 0 0 0 0 
0 0 0 0 0 0 0 0 0 
0 0 0 0 0 0 0 0 0 
0 0 0 0 0 0 0 0 0 
0 0 0 0 0 0 0 0 0 
1 0 0 0 0 0 0 0 0 
0 0 0 0 0 0 0 0 0 
0 0 0 0 0 0 0 -1 0 
0 0 0 0 0 0 0 0 0 
0 0 0 0 0 0 -1 0 0 
1 0 0 0 1 0 
v 3 200 double
0.00261317 -0.0126291 0.00684644 -0.0509386 -0.0230573 0.0384404 -0.067258 0.00627573 0.00549897 
-0.0408745 0.00555481 0.065165 -0.0271601 -0.00232632 -0.00112447 -0.0296242 -0.00302733 0.00980026 
0.0215181 -0.0232717 -0.0305836 0.0304511 -0.0316589 -0.00154554 0.0246156 -0.000397782 -0.00481427 
0.0534469 -0.0101732 0.0316552 0.0356411 -0.0229145 5.08732e-05 0.0643595 0.0068683 0.00843169 
-0.000570307 -0.0352548 0.0234529 0.0645982 0.0210011 -0.00268042 0.0793764 0.0235515 0.00362722 
0.0366264 -0.0141607 0.0346837 0.00100641 0.0034304 0.0505643 0.0443927 0.0395132 0.00429591 
-0.00522791 -0.0213048 -0.0112212 0.00977818 0.00108923 0.00232927 0.000204902 0.0149754 0.0156274 
0.00624905 0.00951191 -0.00390998 0.0430624 0.0706976 0.0139539 0.0293728 -0.042994 -0.00551069 
-0.0134864 -0.00940327 0.0373409 -0.103406 -0.0709604 0.11314 -0.122811 -0.0224648 0.00437757 
-0.0961938 -0.00984365 0.0101178 0.0296604 -0.0157227 0.0711372 -0.0204519 -0.0460007 0.000669183 
-0.0550687 -0.0497513 -0.001395 0.0375307 -0.00663051 0.0226723 0.021705 -0.0118923 0.00878147 
0.000684826 -0.00759016 0.0187258 -0.0138077 -0.0105504 -0.00248926 0.0010134 -0.0290565 -0.000238574 
0.00525515 0.00900507 0.0165483 0.0297026 -0.0460407 -0.00229269 0.0200786 -0.0296547 0.0162512 
0.0176513 -0.0631047 0.0193298 0.0196176 0.0150509 0.00727036 0.020469 -0.0168204 0.00858228 
-0.0027363 -0.0677205 0.0111243 0.00863173 -0.0131466 0.00323692 -0.0298397 0.00803583 0.0281371 
0.0114253 -0.00106185 0.0088085 -0.000319564 -0.0189821 0.00946883 0.0091713 -0.0101863 -0.00221728 
-0.00306651 -0.0506428 0.0358672 0.0134651 -0.057072 0.0366405 -0.0134555 -0.00393711 0.0523967 
-0.0425293 -0.0436582 0.00641656 0.017015 -0.0753249 0.0195886 -0.0253716 -0.0393507 0.00732042 
0.0154782 -0.0601436 0.0311248 -0.0119705 -0.0421584 0.0141409 -0.00555542 -0.0562681 -0.00114707 
-0.0249379 -0.0481469 0.0163656 -0.0248098 -0.0319996 0.00299662 0.0113762 -0.0426305 -0.0183072 
-0.0138793 -0.0155864 -0.00398342 -0.00124652 -0.0191552 0.00048149 0.0424968 -0.0330696 0.00629801 
0.03637 -0.0396943 0.0277469 -0.00204879 -0.033178 0.0101695 -0.0166072 -0.0240236 0.0104214 
0.0310944 -0.00300373 0.00730474 0.0567674 -0.0415253 0.0020666 0.0283621 -0.0436069 0.0115107 
0.0680591 -0.0313052 0.0541376 0.0194861 0.00841787 0.0264187 0.00592622 -0.00946104 0.00803076 
0.0246073 -0.00481333 -0.000963627 0.0169976 -0.00172208 -0.000844204 -0.0064433 0.000867317 0.0154177 
0.0222097 -0.0152683 0.00328963 0.00495919 -0.017218 0.0411993 0.0254023 -0.0318691 0.0943027 
-0.0377287 -0.0139585 0.0238569 -0.00504003 -0.0134186 -0.0121429 -0.00899438 -0.0365013 0.00397218 
0.0201366 0.012507 0.00776502 -0.0298019 -0.029935 -0.00276876 -0.0485334 -0.0498174 0.00174126 
-0.0103368 -0.0467098 -0.00906989 -0.0690587 -0.0254523 0.00379727 -0.0176715 -0.0189131 0.0118612 
-0.00742607 -0.0506374 0.0216232 -0.0268348 -0.0257571 0.0130638 0.0392891 0.00166125 -0.0110241 
-0.00158206 -0.0281174 0.00493408 0.0158634 0.0093934 0.017782 0.0614447 0.00774425 0.0324248 
0.0268933 0.00521958 0.0136446 0.0538498 -0.00996428 0.0830727 -0.0104343 0.0246303 -0.0347538 
-0.0520101 -0.0124939 -0.000545566 -0.0341171 0.0273629 0.0642123 -0.0148383 -0.0399877 0.0187955 
-0.0396672 -0.0168533 -0.0103378 -0.0419118 -0.0109939 0.0362227 -0.00478182 -0.0346324 0.0099018 
-0.0285617 -0.0309507 0.00108986 -0.0391286 -0.0233347 0.00447936 -0.00916674 -0.00690659 -0.000319168 
-0.0149853 -0.0148935 -0.00122401 -0.0372399 -0.0162776 0.0206713 -0.0197301 -0.0304143 -0.0118934 
0.00625994 -0.0328237 -0.00973367 -0.0251353 -0.000727055 0.0236549 0.0452161 0.0223038 0.0113129 
0.0261358 -0.0139911 0.00312942 0.036461 0.0140903 0.0235094 0.00172645 0.0678818 0.0122727 
0.0252811 -0.00141676 0.000246714 0.0221421 0.011788 0.0340854 0.0450075 -0.0218546 0.00980975 
0.00936863 0.00459387 0.0416995 0.0104723 -0.00636613 0.000464286 0.0108403 0.0526238 0.0367791 
-0.0343466 -0.00910177 0.0376653 -0.00670756 -0.0454365 0.0555775 -0.0173269 -0.0465379 0.0297804 
-0.0217616 -0.00989829 0.00286978 -0.022268 -0.0307239 0.00962678 -0.0307821 -0.000776566 0.0361336 
-0.0215333 0.00865908 0.0361198 -0.0795359 0.0174947 0.0315419 0.0228071 0.0457375 0.046231 
0.0190803 0.0109188 0.0138312 -0.011958 0.0206343 0.00809393 -0.00635113 0.012471 -0.00539567 
0.0161708 0.0312303 0.0128245 0.0510134 0.0488978 -0.000185137 0.0388078 0.0670891 0.0303876 
0.0458121 0.0405063 0.0535547 0.00154833 0.0242492 -0.0158885 0.00658653 0.0118916 -0.00268701 
-0.00149176 0.0155299 0.00368112 0.00691262 0.014978 0.00695624 -0.0414453 0.03729 0.0184808 
-0.0492218 0.0108028 0.0960088 0.0432065 -0.0593629 0.148763 -0.0472588 0.0143018 0.122272 
-0.0765465 -0.0128067 0.035719 0.0721368 -0.000283577 0.0261377 0.00738104 -0.0650112 0.105688 
-0.0327123 0.0229021 0.0988648 0.00063983 -0.0241115 0.00653757 0.0285936 -0.0322605 0.11509 
-0.0591374 0.00733186 0.13678 -0.0725168 -0.00181733 0.116967 -0.0618914 0.0185046 0.0570153 
0.0244098 0.00333103 0.0865765 0.0235389 -0.071389 0.06013 0.0113617 -0.0727384 0.0643814 
-0.0639818 0.0427786 0.0227075 0.0122134 -0.00593801 0.114276 -0.00102587 0.157983 0.108501 
0.0236527 -0.043331 0.105667 0.0239071 -0.0189064 0.0710166 -0.000695378 -0.0231309 0.0453076 
-0.161467 -0.0412989 0.18649 0.00442712 -0.0426604 0.00237302 0.0992112 -0.118452 0.0584575 
0.0427064 0.00769908 0.059828 -0.0175631 -0.0448316 0.0196299 0.0336235 -0.0685921 0.0806293 
-0.0614056 0.103111 0.0578511 0.0353768 0.0666315 0.0877085 0.0181639 -0.0301334 0.0666383 
0.0315701 -0.0255711 0.0968453 0.0270031 -0.0440795 0.0452319 0.0860777 -0.0005934 0.101434 
-0.0248593 -0.065377 0.12825 -0.026065 -0.0202844 0.0659732 -0.0026518 -0.0277498 0.0344007 
-0.0364257 -0.0258117 0.0234969 0.0549869 0.0460356 0.000800338 0.14619 0.00261619 0.0595161 
0.0539664 0.0199676 0.0962982 0.152332 -0.0177255 0.0697069 0.0709309 -0.0917426 0.0288735 
0.103204 0.0624033 0.0215288 -0.0861996 -0.0184204 0.0679407 -0.0785787 -0.00492757 0.138448 
0.0186188 0.0450643 0.0601748 0.00788275 0.042737 0.173972 -0.0425142 0.065392 0.110159 
-0.0144829 -0.00787855 0.0586606 -0.0128063 0.0717946 0.109704 0.0754309 -0.0984574 0.211529 
-0.107466 0.0318298 0.0633026 -0.0425494 0.0942447 0.117743 0.0321593 -0.0689761 0.141328 
-0.136949 -0.0496028 0.132339 0.142021 0.0223645 0.188323 -0.09523 0.0863434 0.175715 
0.192618 0.0122523 0.219655 -0.0519131 0.273761 0.299946 
f 3 200 double
0 0 -0.10273 0 0 -0.10273 0 0 -0.10273 
0 0 -0.10273 0 0 -0.10273 0 0 -0.10273 
0 0 -0.10273 0 0 -0.10273 0 0 -0.10273 
0 0 -0.10273 0 0 -0.10273 0 0 -0.10273 
0 0 -0.10273 0 0 -0.10273 0 0 -0.10273 
0 0 -0.10273 0 0 -0.10273 0 0 -0.10273 
0 0 -0.10273 0 0 -0.10273 0 0 -0.10273 
0 0 -0.10273 0 0 -0.10273 0 0 -0.10273 
0 0 -0.10273 0 0 -0.10273 0 0 -0.10273 
0 0 -0.10273 0 0 -0.10273 0 0 -0.10273 
0 0 -0.10273 0 0 -0.10273 0 0 -0.10273 
0 0 -0.10273 0 0 -0.10273 0 0 -0.10273 
0 0 -0.10273 0 0 -0.10273 0 0 -0.10273 
0 0 -0.10273 -19.5436 -87.2563 137.155 19.5436 87.2563 -137.36 
0 0 -0.10273 0 0 -0.10273 0 0 -0.10273 
0 0 -0.10273 2.33943 -3.68605 0.587025 -2.33943 3.68605 -0.792486 
0 0 -0.10273 0 0 -0.10273 0 0 -0.10273 
0 0 -0.10273 0 0 -0.10273 0 0 -0.10273 
217.292 54.651 4.68312 0 0 -0.10273 -1.42906 -17.4464 -1.12904 
0 0 -0.10273 1.42906 17.4464 0.923577 0 0 -0.10273 
0 0 -0.10273 0 0 -0.10273 0 0 -0.10273 
0 0 -0.10273 0 0 -0.10273 0 0 -0.10273 
0 0 -0.10273 0 0 -0.10273 0 0 -0.10273 
0 0 -0.10273 0 0 -0.10273 0 0 -0.10273 
0 0 -0.10273 0 0 -0.10273 0 0 -0.10273 
0 0 -0.10273 -0.649699 6.85093 -0.485928 -217.292 -54.651 -4.88858 
0 0 -0.10273 0 0 -0.10273 0 0 -0.10273 
0 0 -0.10273 0 0 -0.10273 0 0 -0.10273 
0 0 -0.10273 0 0 -0.10273 0 0 -0.10273 
0 0 -0.10273 0 0 -0.10273 0 0 -0.10273 
0 0 -0.10273 0 0 -0.10273 0 0 -0.10273 
0 0 -0.10273 0 0 -0.10273 0 0 -0.10273 
0 0 -0.10273 0 0 -0.10273 0 0 -0.10273 
0 0 -0.10273 0 0 -0.10273 0 0 -0.10273 
0 0 -0.10273 0 0 -0.10273 0 0 -0.10273 
0 0 -0.10273 0 0 -0.10273 0 0 -0.10273 
0 0 -0.10273 0 0 -0.10273 0 0 -0.10273 
0 0 -0.10273 0 0 -0.10273 0 0 -0.10273 
0.00309787 -0.0104375 -0.0809551 0 0 -0.10273 0 0 -0.10273 
0 0 -0.10273 0 0 -0.10273 0 0 -0.10273 
0 0 -0.10273 0 0 -0.10273 0 0 -0.10273 
0 0 -0.10273 0 0 -0.10273 0 0 -0.10273 
0 0 -0.10273 0 0 -0.10273 0 0 -0.10273 
0 0 -0.10273 0 0 -0.10273 0 0 -0.10273 
0 0 -0.10273 0 0 -0.10273 0 0 -0.10273 
0 0 -0.10273 0 0 -0.10273 0 0 -0.10273 
0 0 -0.10273 0 0 -0.10273 0 0 -0.10273 
0 0 -0.10273 0 0 -0.10273 0 0 -0.10273 
0 0 -0.10273 0 0 -0.10273 0 0 -0.10273 
0 0 -0.10273 0 0 -0.10273 0 0 -0.10273 
0 0 -0.10273 0 0 -0.10273 0 0 -0.10273 
0 0 -0.10273 0 0 -0.10273 0 0 -0.10273 
0 0 -0.10273 0 0 -0.10273 0 0 -0.10273 
0 0 -0.10273 0 0 -0.10273 -4.69222 -14.0565 -1.72668 
0 0 -0.10273 0 0 -0.10273 0 0 -0.10273 
0 0 -0.10273 0 0 -0.10273 0 0 -0.10273 
0 0 -0.10273 0 0 -0.10273 0 0 -0.10273 
0 0 -0.10273 5.34192 7.20556 1.90442 0 0 -0.10273 
0 0 -0.10273 0 0 -0.10273 0 0 -0.10273 
0 0 -0.10273 0 0 -0.10273 0 0 -0.10273 
0 0 -0.10273 0 0 -0.10273 0 0 -0.10273 
0 0 -0.10273 0 0 -0.10273 0 0 -0.10273 
0 0 -0.10273 0 0 -0.10273 0 0 -0.10273 
0 0 -0.10273 0 0 -0.10273 0 0 -0.10273 
0 0 -0.10273 0 0 -0.10273 0 0 -0.10273 
0 0 -0.10273 0 0 -0.10273 0 0 -0.10273 
0 0 -0.10273 0 0 -0.10273 
radius 1 200 double
10 10 10 10 10 10 10 10 10 
10 10 10 10 10 10 10 10 10 
10 10 10 10 10 10 10 10 10 
10 10 10 10 10 10 10 10 10 
10 10 10 10 10 10 10 10 10 
10 10 10 10 10 10 10 10 10 
10 10 10 10 10 10 10 10 10 
10 10 10 10 10 10 10 10 10 
10 10 10 10 10 10 10 10 10 
10 10 10 10 10 10 10 10 10 
10 10 10 10 10 10 10 10 10 
10 10 10 10 10 10 10 10 10 
10 10 10 10 10 10 10 10 10 
10 10 10 10 10 10 10 10 10 
10 10 10 10 10 10 10 10 10 
10 10 10 10 10 10 10 10 10 
10 10 10 10 10 10 10 10 10 
10 10 10 10 10 10 10 10 10 
10 10 10 10 10 10 10 10 10 
10 10 10 10 10 10 10 10 10 
10 10 10 10 10 10 10 10 10 
10 10 10 10 10 10 10 10 10 
10 10 
omega 3 200 double
0.00126703 0.00026684 -0.00557452 -0.00338357 -0.00881959 0.00533831 -0.00284012 -0.00647579 0.00860279 
0.00989805 0.0106331 -0.00338723 0.00236189 -0.00417872 -0.00979281 -0.000907559 0.0325786 0.00755204 
0.000593172 0.0177535 0.00177045 0.00287427 -0.0266642 -0.0115003 -0.00187716 0.0115877 -2.73113e-05 
-0.0112016 -0.0229789 0.0113202 -0.00241163 0.00128118 0.00581524 0.0057114 0.00680765 -0.00292627 
0.00695751 -0.00167194 -0.0015257 -0.00118443 0.00226957 -0.00741378 -0.00236043 0.0079384 0.00199147 
0.00590418 0.000821315 0.00558067 -0.00728512 -0.00749921 -0.00300099 -0.00398087 0.0043855 -0.00256875 
0.00231607 -0.00706845 0.000104703 -0.00260037 0.000378603 0.000352676 -4.40048e-05 0.00829715 -0.00174122 
0.00412087 -0.00175407 0.00043253 -0.0016421 0.00263299 -0.00515961 0.0019488 0.000733875 0.0027134 
0.00025701 -0.00159539 0.0035567 0.00803657 -0.00840889 -0.00824815 0.00119651 -0.0103041 0.00218896 
-0.00394763 -0.00415888 -0.00535521 0.0053252 0.0180502 0.000592895 -0.00264178 -0.00484121 -0.00252534 
0.00426605 0.00412381 -0.00538928 -0.00583878 -0.00912049 0.0089833 0.00102442 0.00384898 0.00446258 
0.000249527 0.000195816 -0.00327292 0.00213063 0.000655691 -0.000982887 0.00353736 -0.000889317 0.00154149 
0.0175471 -0.00848478 0.00303645 -0.0212003 0.00695383 0.00654391 -0.000825725 -0.0006573 0.0006277 
0.015008 0.000899214 -0.00181913 -0.0090405 0.00533715 -0.00369091 0.00471135 0.00507442 -0.00224225 
0.00218478 -0.00141853 0.00157702 0.000937705 0.000344707 0.00183544 -0.00118649 -0.00282856 0.00316538 
-0.00135698 0.000126669 -0.00157176 0.000134735 -0.00158504 -0.00209882 8.35219e-05 0.000447399 -0.00141935 
0.000602598 -0.00344934 -0.00317815 -0.00125276 -0.00405991 -0.00279588 -0.000783967 -8.14273e-05 -0.00206795 
0.000578813 -0.00665564 -0.00188322 -0.000807468 -0.00170694 0.000537974 0.00393705 -0.00253901 -0.00347682 
0.00121806 0.0130755 0.00496834 -0.00585274 0.00170287 -0.00382385 -0.00323841 0.00226826 0.00260872 
0.00508761 -0.00241614 0.00187368 0.00476125 -0.00204886 0.00311029 0.00209673 0.000342924 0.00351766 
-0.00233733 -0.00391073 -0.000934743 0.00113649 -0.000457194 -0.000310658 -0.0035722 -0.00276737 0.000361321 
0.00492887 0.00239904 -0.00154749 0.00331471 0.00858465 -0.00110234 0.00178052 -0.000273478 0.0022482 
-0.00161233 -0.00171243 0.00471845 -0.000472944 0.00390013 -0.00285544 -0.00109823 0.00258856 0.00488849 
-0.00151162 -0.000212826 0.0018834 -0.00261111 0.00600931 -0.00178471 -0.00180928 0.002294 0.0026196 
0.00100324 -0.00344296 0.000742736 -0.000227347 -0.000536554 -0.00161315 -0.00119873 -0.00440613 0.00246139 
0.00188696 0.00323609 0.00076654 0.00466723 0.000438134 -0.000666668 0.0136362 -0.0039983 -0.00720583 
0.00489212 0.00686496 0.00226856 -0.00273951 0.00296448 0.00171804 -0.00385484 0.00663941 0.00409171 
-0.00360031 0.0019574 0.000106027 -0.0159667 0.00423232 -0.0101105 -0.002305 0.00750288 0.00706977 
0.0032657 -0.00396552 -0.00266139 0.0025435 -0.00678906 -0.0028439 -0.00193135 0.000751592 -0.00183877 
0.00632048 0.00130542 0.00136667 0.00231326 -0.00177876 0.00262669 -0.0123275 0.00306768 0.00320798 
0.00284294 -0.000169242 0.00775344 0.00501139 -0.00104016 -0.011936 0.0022761 0.00586177 0.0112949 
0.000786888 -0.00374881 0.00250376 0.00116497 -5.02564e-05 0.00276613 0.00809625 0.0172385 -0.00391056 
0.00308811 -0.0052441 0.00322741 -0.00789989 0.00300983 -0.00964525 0.00335967 -0.000372564 -0.00268667 
-0.00229338 0.000214757 -0.00393807 -0.0118402 -0.000642223 -0.00292956 0.00346394 -0.000456186 -0.00140247 
0.00259208 -0.00274317 -0.00152413 -0.00307743 0.0068862 -0.00313454 -0.00320446 0.000323195 -0.00128622 
-0.00398088 0.0114749 0.00165459 0.00626752 -0.00256078 0.0059099 0.000957162 -0.00211018 0.00133645 
0.00492576 0.00140354 -0.00194283 -0.00738111 -0.00572968 0.00452971 -0.00224898 0.00370534 -0.00151037 
-0.000727895 0.00296769 0.00736834 -0.00308073 -0.00344099 -0.000967639 -0.0067924 0.000171405 -0.0114933 
0.00200275 0.00308062 -0.00705745 -0.00837042 0.0037492 0.000295462 0.0113326 0.0114209 0.0109767 
-0.00217099 0.00184732 -0.00227056 -0.000821271 -0.000236606 0.00246805 0.00353056 -0.0034007 0.00957068 
-0.000971323 -0.00812538 0.00663227 0.00471913 -0.00913708 -0.00363514 0.00896371 -0.0041823 -0.000805226 
-0.00322597 0.00180796 -0.00220908 0.00325811 -0.0024953 0.000147258 0.00903446 -0.0101073 0.00461025 
-0.00546932 -0.00727771 -0.00916055 0.00190037 -0.00387029 0.0169307 -0.00158359 -0.00351469 -0.00687268 
-0.00321591 0.00234618 0.00279753 -0.00133421 0.00541715 -0.00501372 0.00717326 -0.00117867 0.00258622 
-0.00354365 0.0018043 -0.010832 -0.00459069 -0.00201529 0.00478496 -0.00705781 0.00576339 0.00150525 
0.012643 -0.0317914 0.0346116 0.00217529 -0.00189319 -0.00090526 -0.00234408 0.000484161 -0.000616095 
-0.00197675 6.51576e-05 -0.00539186 0.00200936 -0.00160889 0.00185271 0.000439033 0.00290336 -0.00337745 
-0.00335352 0.00573144 -0.00479 -0.00524884 0.0141903 0.00296363 0.00616895 -0.00764677 0.00417156 
0.0342642 -0.0415043 0.000776792 -0.00624613 -0.0279068 0.000608583 0.0151885 -0.00777249 0.00705994 
-0.000335644 0.0148296 -0.00788761 -0.00256663 0.00866043 -0.00500138 0.0193047 -0.0193627 0.00046341 
0.00956397 -0.00967598 -0.00967577 0.00616606 0.00671749 0.00684158 -0.00121096 0.00467619 -0.00333714 
-0.0113544 -0.0190208 -0.00920641 0.00949725 0.00191945 -0.00423808 -0.00394059 -0.00304981 0.00520848 
-0.00441553 0.00463435 0.0112163 -0.00020555 0.0199503 -0.0150804 -0.0154412 0.0204719 0.000492402 
-0.00525939 0.000691716 0.000352386 0.00815746 0.00820366 -0.0038732 0.000685725 0.00778916 -0.00348965 
0.0019394 -0.0273083 0.0126219 -0.00822798 0.00813707 -0.00819017 0.00362265 -0.0054473 -0.00556928 
-0.0117837 0.000999983 0.00389863 0.00649998 -0.00131175 0.00399539 0.0019154 -0.0184931 -0.00633372 
0.0186031 -0.000550166 -0.00515112 -0.014589 -0.00166659 0.00890706 -0.00287468 -0.00995101 0.00194737 
-0.0048546 0.00837237 0.00104205 -0.00191205 0.000858743 -0.00187092 0.0184845 -0.00422311 -0.0152613 
0.0249773 0.0192153 0.00362842 0.00729004 -0.00102216 0.00798456 0.0139548 -0.000494172 0.00911445 
-0.00907829 -0.00407 -0.00155759 0.00239024 -0.00151284 -0.00691419 0.00108415 0.0137747 0.00897956 
0.0025073 -0.000101789 -0.0129513 0.0170041 0.0292788 -0.00375591 -0.0247066 -0.0119116 -0.0151695 
0.0194169 0.0137341 0.00114278 0.00733832 -0.00919308 -0.00118547 0.00829748 0.000625044 0.00268962 
0.00629901 -0.000599064 -0.0036095 -0.0179056 0.0137717 0.00713578 0.00164447 -0.00510417 -0.00236326 
0.0227525 0.03143 -0.000719713 -0.00849521 -0.0181856 -0.0100647 0.0178598 -0.00616373 3.66213e-06 
-0.0135003 0.0126678 -0.00119773 -0.0101809 0.0129595 0.00187605 0.0265068 -0.0033898 -0.00252821 
0.000613527 -0.0258206 0.00512237 -0.0144887 0.0255473 0.00386759 -0.00903539 -0.026295 0.00519177 
-0.00490483 0.0126199 -0.000660619 -0.0178387 -0.0113593 0.00164486 
