/*--------------------------------*- C++ -*----------------------------------*\
  =========                 |
  \\      /  F ield         | OpenFOAM: The Open Source CFD Toolbox
   \\    /   O peration     | Website:  https://openfoam.org
    \\  /    A nd           | Version:  9
     \\/     M anipulation  |
\*---------------------------------------------------------------------------*/
FoamFile
{
    format      ascii;
    class       surfaceScalarField;
    location    "0.05";
    object      phi;
}
// * * * * * * * * * * * * * * * * * * * * * * * * * * * * * * * * * * * * * //

dimensions      [0 3 -1 0 0 0 0];

internalField   nonuniform List<scalar> 
25100
(
-7.21232e-17
-5.93957e-17
-9.99998e-10
-1.30884e-16
-6.34851e-17
-9.99998e-10
-1.78459e-16
-6.74038e-17
-9.99999e-10
-2.10646e-16
-7.16214e-17
-9.99999e-10
-1.73786e-16
-7.55889e-17
-9.99999e-10
-1.42416e-16
-7.87419e-17
-1e-09
-1.14306e-16
-7.2483e-17
-1e-09
-7.55818e-17
-6.49844e-17
-1e-09
-3.53672e-17
-5.79497e-17
-1e-09
-5.62715e-17
-1e-09
-7.62459e-17
-1.06341e-16
-9.99998e-10
-1.35131e-16
-1.09756e-16
-9.99998e-10
-1.83157e-16
-1.11312e-16
-9.99999e-10
-2.15393e-16
-1.15629e-16
-9.99999e-10
-1.77203e-16
-1.24731e-16
-9.99999e-10
-1.36566e-16
-1.32126e-16
-1e-09
-1.07142e-16
-1.28577e-16
-1e-09
-6.89815e-17
-1.25443e-16
-1e-09
-3.38717e-17
-1.22163e-16
-1e-09
-1.20709e-16
-1e-09
-7.94033e-17
-1.39787e-16
-9.99998e-10
-1.36796e-16
-1.3906e-16
-9.99999e-10
-1.87191e-16
-1.37148e-16
-9.99999e-10
-2.25016e-16
-1.40692e-16
-9.99999e-10
-1.82757e-16
-1.5039e-16
-1e-09
-1.33322e-16
-1.72666e-16
-1e-09
-1.03523e-16
-1.75411e-16
-1e-09
-6.56871e-17
-1.78e-16
-1e-09
-3.26688e-17
-1.73492e-16
-1e-09
-1.67304e-16
-1e-09
-7.8338e-17
-1.56201e-16
-9.99999e-10
-1.35304e-16
-1.48543e-16
-9.99999e-10
-1.90744e-16
-1.40715e-16
-9.99999e-10
-2.37546e-16
-1.42675e-16
-1e-09
-2.03498e-16
-1.6166e-16
-1e-09
-1.35595e-16
-2.25235e-16
-1e-09
-1.04921e-16
-2.29091e-16
-1e-09
-6.11016e-17
-2.30654e-16
-1e-09
-2.68342e-17
-2.09596e-16
-1e-09
-1.92092e-16
-1e-09
-6.87783e-17
-1.40545e-16
-9.99999e-10
-1.24978e-16
-1.38506e-16
-9.99999e-10
-1.88887e-16
-1.37436e-16
-9.99999e-10
-2.58363e-16
-1.41927e-16
-1e-09
-2.69326e-16
-1.74871e-16
-1e-09
-1.4164e-16
-7.05583e-17
-1e-09
-1.08178e-16
-1.25461e-16
-1e-09
-4.10036e-17
-1.58843e-16
-1e-09
-1.02425e-17
-1.76207e-16
-1e-09
-1.79434e-16
-1e-09
-6.66933e-17
-1.19017e-16
-9.99999e-10
-1.25702e-16
-1.16101e-16
-9.99999e-10
-1.95069e-16
-1.12028e-16
-1e-09
-2.90178e-16
-9.32233e-17
-1e-09
-1.65234e-16
-3.1776e-17
-1e-09
-2.1003e-16
-8.01628e-17
-1e-09
-1.45671e-16
-8.25059e-17
-1e-09
-5.83979e-17
-9.96321e-17
-1e-09
-1.40866e-17
-1.37655e-16
-1e-09
-1.65441e-16
-1e-09
-6.33968e-17
-1.02813e-16
-1e-09
-1.22189e-16
-1.00722e-16
-1e-09
-1.76477e-16
-9.63947e-17
-1e-09
-2.26748e-16
-8.28941e-17
-1e-09
-1.9936e-16
-5.23289e-17
-1e-09
-2.1189e-16
-7.18502e-17
-1e-09
-1.57935e-16
-8.00319e-17
-1e-09
-9.53953e-17
-1.02143e-16
-1e-09
-4.14992e-17
-1.24463e-16
-1e-09
-1.31997e-16
-1e-09
-6.06587e-17
-7.83142e-17
-1e-09
-1.18263e-16
-7.83583e-17
-1e-09
-1.64024e-16
-7.53357e-17
-1e-09
-1.96967e-16
-6.76812e-17
-1e-09
-2.14738e-16
-5.42433e-17
-1e-09
-2.24059e-16
-5.83308e-17
-1e-09
-1.80012e-16
-6.82966e-17
-1e-09
-1.18175e-16
-7.87789e-17
-1e-09
-4.95968e-17
-8.27655e-17
-1e-09
-7.98829e-17
-1e-09
-6.01923e-17
-4.3503e-17
-1e-09
-1.15266e-16
-4.30476e-17
-1e-09
-1.56346e-16
-4.07494e-17
-1e-09
-1.8339e-16
-3.85182e-17
-1e-09
-2.18611e-16
-3.8791e-17
-1e-09
-2.34678e-16
-3.72866e-17
-1e-09
-1.90157e-16
-3.86175e-17
-1e-09
-1.22231e-16
-3.5049e-17
-1e-09
-4.68453e-17
-2.91845e-17
-1e-09
-2.66673e-17
-1e-09
-5.93616e-17
-1e-09
-1.12619e-16
-1e-09
-1.53768e-16
-1e-09
-1.82905e-16
-1e-09
-2.16516e-16
-1e-09
-2.35791e-16
-1e-09
-1.85921e-16
-1e-09
-1.16149e-16
-1e-09
-4.42733e-17
-1e-09
-1e-09
-2.01588e-16
-1.63864e-16
-9.99998e-10
-3.68067e-16
-1.72367e-16
-9.99998e-10
-4.97222e-16
-1.81485e-16
-9.99998e-10
-5.74496e-16
-1.92974e-16
-9.99999e-10
-5.05255e-16
-2.1169e-16
-9.99999e-10
-4.16275e-16
-2.13846e-16
-9.99999e-10
-3.35751e-16
-2.00778e-16
-1e-09
-2.30284e-16
-1.84416e-16
-1e-09
-1.17748e-16
-1.73515e-16
-1e-09
-1.7732e-16
-1e-09
-2.10161e-16
-2.9527e-16
-9.99998e-10
-3.78265e-16
-3.0343e-16
-9.99998e-10
-5.0969e-16
-3.09505e-16
-9.99998e-10
-5.94073e-16
-3.26308e-16
-9.99999e-10
-5.08674e-16
-3.60838e-16
-9.99999e-10
-4.04867e-16
-3.68197e-16
-9.99999e-10
-3.20825e-16
-3.61691e-16
-1e-09
-2.2053e-16
-3.5199e-16
-1e-09
-1.21899e-16
-3.45308e-16
-1e-09
-3.41648e-16
-1e-09
-2.17729e-16
-3.87648e-16
-9.99998e-10
-3.84919e-16
-3.8767e-16
-9.99998e-10
-5.25527e-16
-3.87982e-16
-9.99999e-10
-6.28065e-16
-4.06418e-16
-9.99999e-10
-5.11161e-16
-4.35404e-16
-9.99999e-10
-4.0043e-16
-4.58912e-16
-1e-09
-3.09668e-16
-4.77692e-16
-1e-09
-2.13805e-16
-4.83531e-16
-1e-09
-1.19036e-16
-4.72282e-16
-1e-09
-4.60326e-16
-1e-09
-2.17551e-16
-4.42862e-16
-9.99998e-10
-3.86471e-16
-4.32037e-16
-9.99999e-10
-5.43819e-16
-4.20629e-16
-9.99999e-10
-6.68697e-16
-4.34138e-16
-9.99999e-10
-5.19514e-16
-4.72629e-16
-1e-09
-4.27257e-16
-5.25339e-16
-1e-09
-3.10979e-16
-5.80475e-16
-1e-09
-2.02116e-16
-5.8542e-16
-1e-09
-1.08325e-16
-5.47113e-16
-1e-09
-5.26603e-16
-1e-09
-2.02924e-16
-4.05611e-16
-9.99999e-10
-3.71109e-16
-3.96535e-16
-9.99999e-10
-5.44804e-16
-3.81261e-16
-9.99999e-10
-7.11654e-16
-3.52267e-16
-1e-09
-6.22823e-16
-3.8845e-16
-1e-09
-4.92714e-16
-3.89801e-16
-1e-09
-3.14569e-16
-3.76576e-16
-1e-09
-1.63682e-16
-4.35741e-16
-1e-09
-8.85587e-17
-4.80591e-16
-1e-09
-4.88439e-16
-1e-09
-1.92739e-16
-3.34217e-16
-9.99999e-10
-3.60404e-16
-3.26923e-16
-9.99999e-10
-5.30903e-16
-3.28118e-16
-9.99999e-10
-6.99239e-16
-3.17549e-16
-1e-09
-6.33471e-16
-2.54555e-16
-1e-09
-5.08829e-16
-2.1784e-16
-1e-09
-3.97824e-16
-2.81933e-16
-1e-09
-2.11157e-16
-3.4208e-16
-1e-09
-9.91e-17
-4.20573e-16
-1e-09
-4.58417e-16
-1e-09
-1.83294e-16
-2.95381e-16
-9.99999e-10
-3.60299e-16
-2.9146e-16
-1e-09
-5.09892e-16
-2.79939e-16
-1e-09
-6.26781e-16
-2.53958e-16
-1e-09
-5.57506e-16
-2.06985e-16
-1e-09
-5.75521e-16
-2.49874e-16
-1e-09
-4.39396e-16
-2.74752e-16
-1e-09
-2.82135e-16
-3.17359e-16
-1e-09
-1.30862e-16
-3.47755e-16
-1e-09
-3.48331e-16
-1e-09
-1.77275e-16
-2.29429e-16
-1e-09
-3.49675e-16
-2.28141e-16
-1e-09
-4.87615e-16
-2.17872e-16
-1e-09
-5.87592e-16
-2.00174e-16
-1e-09
-5.76054e-16
-1.74217e-16
-1e-09
-6.13693e-16
-1.97654e-16
-1e-09
-4.82166e-16
-2.09327e-16
-1e-09
-3.14268e-16
-2.20499e-16
-1e-09
-1.32821e-16
-2.18877e-16
-1e-09
-2.12639e-16
-1e-09
-1.74566e-16
-1.2659e-16
-1e-09
-3.39534e-16
-1.23651e-16
-1e-09
-4.70082e-16
-1.17612e-16
-1e-09
-5.63598e-16
-1.14283e-16
-1e-09
-5.97027e-16
-1.12993e-16
-1e-09
-6.29892e-16
-1.13215e-16
-1e-09
-4.92124e-16
-1.04608e-16
-1e-09
-3.12842e-16
-9.17433e-17
-1e-09
-1.26433e-16
-8.1691e-17
-1e-09
-8.49651e-17
-1e-09
-1.70881e-16
-1e-09
-3.32673e-16
-1e-09
-4.65768e-16
-1e-09
-5.61201e-16
-1e-09
-5.94878e-16
-1e-09
-6.22355e-16
-1e-09
-4.77864e-16
-1e-09
-3.0265e-16
-1e-09
-1.29462e-16
-1e-09
-1e-09
-3.39923e-16
-2.7525e-16
-9.99997e-10
-6.23707e-16
-2.83547e-16
-9.99997e-10
-8.37044e-16
-2.96323e-16
-9.99998e-10
-9.48048e-16
-3.16579e-16
-9.99998e-10
-9.04485e-16
-3.58726e-16
-9.99999e-10
-7.76854e-16
-3.53786e-16
-9.99999e-10
-6.33091e-16
-3.35533e-16
-9.99999e-10
-4.52471e-16
-3.18969e-16
-1e-09
-2.4614e-16
-3.14162e-16
-1e-09
-3.19987e-16
-1e-09
-3.48416e-16
-4.97255e-16
-9.99997e-10
-6.38667e-16
-5.07352e-16
-9.99997e-10
-8.59283e-16
-5.20371e-16
-9.99998e-10
-9.91925e-16
-5.52713e-16
-9.99998e-10
-9.02188e-16
-6.16781e-16
-9.99999e-10
-7.61353e-16
-6.09959e-16
-9.99999e-10
-6.19286e-16
-5.99934e-16
-1e-09
-4.49443e-16
-5.85444e-16
-1e-09
-2.52637e-16
-5.76661e-16
-1e-09
-5.67814e-16
-1e-09
-3.57607e-16
-6.53599e-16
-9.99998e-10
-6.52129e-16
-6.56192e-16
-9.99998e-10
-8.90676e-16
-6.67862e-16
-9.99998e-10
-1.05455e-15
-7.09398e-16
-9.99998e-10
-8.87923e-16
-7.71046e-16
-9.99999e-10
-7.53848e-16
-7.29111e-16
-9.99999e-10
-6.02902e-16
-7.71866e-16
-1e-09
-4.40715e-16
-7.79906e-16
-1e-09
-2.45296e-16
-7.68858e-16
-1e-09
-7.60768e-16
-1e-09
-3.59056e-16
-7.49166e-16
-9.99998e-10
-6.64536e-16
-7.40986e-16
-9.99998e-10
-9.32421e-16
-7.53848e-16
-9.99998e-10
-1.12901e-15
-8.0623e-16
-9.99999e-10
-8.02442e-16
-9.0595e-16
-9.99999e-10
-8.20447e-16
-7.08527e-16
-1e-09
-6.07231e-16
-8.49122e-16
-1e-09
-4.29958e-16
-8.88647e-16
-1e-09
-2.40092e-16
-8.88334e-16
-1e-09
-8.9672e-16
-1e-09
-3.47996e-16
-7.41779e-16
-9.99998e-10
-6.76286e-16
-7.25768e-16
-9.99998e-10
-9.72032e-16
-6.87055e-16
-9.99999e-10
-1.22803e-15
-5.60936e-16
-9.99999e-10
-7.1213e-16
-4.22321e-16
-1e-09
-9.74061e-16
-1.10828e-15
-1e-09
-6.24333e-16
-8.2621e-16
-1e-09
-4.21497e-16
-7.91203e-16
-1e-09
-2.46912e-16
-8.19902e-16
-1e-09
-8.27664e-16
-1e-09
-3.2902e-16
-6.28371e-16
-9.99999e-10
-6.44781e-16
-6.30437e-16
-9.99999e-10
-8.89197e-16
-6.42782e-16
-9.99999e-10
-9.71571e-16
-6.8116e-16
-1e-09
-1.38664e-15
-7.49535e-16
-1e-09
-7.34378e-16
-4.42178e-16
-1e-09
-6.46275e-16
-5.91365e-16
-1e-09
-4.57378e-16
-7.00555e-16
-1e-09
-2.59795e-16
-7.5999e-16
-1e-09
-7.53749e-16
-1e-09
-3.27106e-16
-5.69774e-16
-9.99999e-10
-6.52375e-16
-5.6945e-16
-9.99999e-10
-8.99575e-16
-5.51299e-16
-1e-09
-1.02953e-15
-5.31698e-16
-1e-09
-1.06396e-15
-5.19972e-16
-1e-09
-8.8203e-16
-5.0252e-16
-1e-09
-7.22225e-16
-5.48437e-16
-1e-09
-5.05754e-16
-5.95384e-16
-1e-09
-2.48323e-16
-6.05587e-16
-1e-09
-5.95624e-16
-1e-09
-3.2326e-16
-4.3786e-16
-9.99999e-10
-6.36009e-16
-4.32763e-16
-1e-09
-8.82449e-16
-4.1292e-16
-1e-09
-1.04416e-15
-3.87972e-16
-1e-09
-9.90157e-16
-3.60818e-16
-1e-09
-9.59162e-16
-3.77952e-16
-1e-09
-7.69381e-16
-3.87757e-16
-1e-09
-5.18027e-16
-3.94106e-16
-1e-09
-2.39555e-16
-3.91901e-16
-1e-09
-3.98317e-16
-1e-09
-3.1607e-16
-2.36718e-16
-1e-09
-6.16208e-16
-2.30406e-16
-1e-09
-8.5685e-16
-2.20119e-16
-1e-09
-1.0261e-15
-2.11087e-16
-1e-09
-1.00031e-15
-1.931e-16
-1e-09
-9.75581e-16
-1.92957e-16
-1e-09
-7.74081e-16
-1.82211e-16
-1e-09
-5.16027e-16
-1.76827e-16
-1e-09
-2.45961e-16
-1.83157e-16
-1e-09
-2.01668e-16
-1e-09
-3.08768e-16
-1e-09
-6.04516e-16
-1e-09
-8.45861e-16
-1e-09
-1.00787e-15
-1e-09
-9.94945e-16
-1e-09
-9.65832e-16
-1e-09
-7.6711e-16
-1e-09
-5.2178e-16
-1e-09
-2.64199e-16
-1e-09
-1e-09
-5.00686e-16
-4.04103e-16
-9.99996e-10
-9.19186e-16
-4.11429e-16
-9.99996e-10
-1.23678e-15
-4.27315e-16
-9.99997e-10
-1.40149e-15
-4.52113e-16
-9.99997e-10
-1.38831e-15
-5.00405e-16
-9.99998e-10
-1.23108e-15
-5.0552e-16
-9.99999e-10
-1.02751e-15
-4.75316e-16
-9.99999e-10
-7.51822e-16
-4.64182e-16
-1e-09
-4.07743e-16
-4.6429e-16
-1e-09
-4.585e-16
-1e-09
-5.07939e-16
-7.23266e-16
-9.99996e-10
-9.39268e-16
-7.32369e-16
-9.99997e-10
-1.26568e-15
-7.51513e-16
-9.99997e-10
-1.45516e-15
-7.90834e-16
-9.99997e-10
-1.3981e-15
-8.57559e-16
-9.99998e-10
-1.2055e-15
-8.69035e-16
-9.99999e-10
-1.01995e-15
-8.4369e-16
-9.99999e-10
-7.54466e-16
-8.29094e-16
-1e-09
-4.02996e-16
-8.19744e-16
-1e-09
-8.07845e-16
-1e-09
-5.13513e-16
-9.51274e-16
-9.99997e-10
-9.58471e-16
-9.54385e-16
-9.99997e-10
-1.30413e-15
-9.83364e-16
-9.99997e-10
-1.52221e-15
-1.04075e-15
-9.99998e-10
-1.40225e-15
-1.12456e-15
-9.99998e-10
-1.18121e-15
-1.06715e-15
-9.99999e-10
-1.00328e-15
-1.09699e-15
-1e-09
-7.45256e-16
-1.09859e-15
-1e-09
-3.93619e-16
-1.09496e-15
-1e-09
-1.09605e-15
-1e-09
-5.12664e-16
-1.06401e-15
-9.99997e-10
-9.87898e-16
-1.07703e-15
-9.99997e-10
-1.3616e-15
-1.13883e-15
-9.99998e-10
-1.61578e-15
-1.24279e-15
-9.99998e-10
-1.30671e-15
-1.46666e-15
-9.99999e-10
-1.22501e-15
-1.07646e-15
-9.99999e-10
-1.00147e-15
-1.16397e-15
-1e-09
-7.42445e-16
-1.22374e-15
-1e-09
-3.99037e-16
-1.27521e-15
-1e-09
-1.30874e-15
-1e-09
-5.20454e-16
-1.1799e-15
-9.99998e-10
-1.04836e-15
-1.17493e-15
-9.99998e-10
-1.4579e-15
-1.15658e-15
-9.99998e-10
-1.83007e-15
-1.03358e-15
-9.99999e-10
-1.03263e-15
-7.32045e-16
-9.99999e-10
-1.31366e-15
-1.74443e-15
-1e-09
-1.02235e-15
-1.41034e-15
-1e-09
-7.81429e-16
-1.28324e-15
-1e-09
-4.32506e-16
-1.26599e-15
-1e-09
-1.26754e-15
-1e-09
-5.10805e-16
-1.09099e-15
-9.99998e-10
-1.03672e-15
-1.09971e-15
-9.99998e-10
-1.37564e-15
-1.07978e-15
-9.99999e-10
-1.42746e-15
-1.09547e-15
-9.99999e-10
-1.98568e-15
-1.17618e-15
-1e-09
-1.06615e-15
-8.65146e-16
-1e-09
-9.59697e-16
-1.02676e-15
-1e-09
-7.70938e-16
-1.1481e-15
-1e-09
-4.39721e-16
-1.16232e-15
-1e-09
-1.12241e-15
-1e-09
-5.14573e-16
-9.7173e-16
-9.99999e-10
-1.01478e-15
-9.69122e-16
-9.99999e-10
-1.3708e-15
-9.35578e-16
-9.99999e-10
-1.50114e-15
-9.06138e-16
-1e-09
-1.66826e-15
-9.06568e-16
-1e-09
-1.21093e-15
-8.22098e-16
-1e-09
-1.04877e-15
-8.94077e-16
-1e-09
-7.79225e-16
-9.43913e-16
-1e-09
-4.00218e-16
-9.47716e-16
-1e-09
-9.48005e-16
-1e-09
-5.07378e-16
-7.20289e-16
-9.99999e-10
-9.83506e-16
-7.07397e-16
-1e-09
-1.34488e-15
-6.75846e-16
-1e-09
-1.54095e-15
-6.37842e-16
-1e-09
-1.52113e-15
-6.02965e-16
-1e-09
-1.30967e-15
-5.83091e-16
-1e-09
-1.09907e-15
-6.19712e-16
-1e-09
-7.84574e-16
-6.43763e-16
-1e-09
-4.02523e-16
-6.62376e-16
-1e-09
-6.86866e-16
-1e-09
-4.91793e-16
-3.79904e-16
-1e-09
-9.51926e-16
-3.71443e-16
-1e-09
-1.30606e-15
-3.54966e-16
-1e-09
-1.51766e-15
-3.31279e-16
-1e-09
-1.49446e-15
-2.92724e-16
-1e-09
-1.35004e-15
-2.82842e-16
-1e-09
-1.12185e-15
-3.04926e-16
-1e-09
-8.03207e-16
-3.27819e-16
-1e-09
-4.28405e-16
-3.55115e-16
-1e-09
-3.75199e-16
-1e-09
-4.82092e-16
-1e-09
-9.33065e-16
-1e-09
-1.27891e-15
-1e-09
-1.4788e-15
-1e-09
-1.47839e-15
-1e-09
-1.37061e-15
-1e-09
-1.1425e-15
-1e-09
-8.2857e-16
-1e-09
-4.48334e-16
-1e-09
-1e-09
-7.02503e-16
-5.67935e-16
-9.99995e-10
-1.28961e-15
-5.73141e-16
-9.99995e-10
-1.7421e-15
-5.87978e-16
-9.99996e-10
-1.99678e-15
-6.04145e-16
-9.99996e-10
-1.98365e-15
-6.22152e-16
-9.99997e-10
-1.79654e-15
-6.47541e-16
-9.99998e-10
-1.52662e-15
-6.17603e-16
-9.99999e-10
-1.11816e-15
-6.14714e-16
-9.99999e-10
-5.87101e-16
-6.13703e-16
-1e-09
-5.96435e-16
-1e-09
-7.07446e-16
-1.00923e-15
-9.99995e-10
-1.31041e-15
-1.01383e-15
-9.99995e-10
-1.7646e-15
-1.03319e-15
-9.99996e-10
-2.02321e-15
-1.06297e-15
-9.99997e-10
-2.01495e-15
-1.09292e-15
-9.99997e-10
-1.77266e-15
-1.15155e-15
-9.99998e-10
-1.52774e-15
-1.12024e-15
-9.99999e-10
-1.12017e-15
-1.11696e-15
-1e-09
-5.71684e-16
-1.11426e-15
-1e-09
-1.11011e-15
-1e-09
-7.0618e-16
-1.33709e-15
-9.99996e-10
-1.32976e-15
-1.34396e-15
-9.99996e-10
-1.79349e-15
-1.38563e-15
-9.99996e-10
-2.05419e-15
-1.43513e-15
-9.99997e-10
-2.06741e-15
-1.48016e-15
-9.99998e-10
-1.74512e-15
-1.54209e-15
-9.99998e-10
-1.52256e-15
-1.51791e-15
-9.99999e-10
-1.11768e-15
-1.51426e-15
-1e-09
-5.70925e-16
-1.52347e-15
-1e-09
-1.53249e-15
-1e-09
-7.07979e-16
-1.49645e-15
-9.99996e-10
-1.37177e-15
-1.54833e-15
-9.99996e-10
-1.84308e-15
-1.63192e-15
-9.99997e-10
-2.1078e-15
-1.72346e-15
-9.99998e-10
-2.09549e-15
-1.90228e-15
-9.99998e-10
-1.72319e-15
-1.75218e-15
-9.99999e-10
-1.51602e-15
-1.70212e-15
-1e-09
-1.12825e-15
-1.72953e-15
-1e-09
-5.84871e-16
-1.79062e-15
-1e-09
-1.82219e-15
-1e-09
-7.53726e-16
-1.74415e-15
-9.99997e-10
-1.45481e-15
-1.75833e-15
-9.99997e-10
-1.92815e-15
-1.79549e-15
-9.99998e-10
-2.27799e-15
-1.8164e-15
-9.99998e-10
-2.02313e-15
-1.75e-15
-9.99999e-10
-1.6548e-15
-1.88429e-15
-1e-09
-1.51222e-15
-1.94506e-15
-1e-09
-1.17788e-15
-1.88938e-15
-1e-09
-6.15547e-16
-1.86871e-15
-1e-09
-1.87191e-15
-1e-09
-7.62399e-16
-1.74853e-15
-9.99998e-10
-1.49703e-15
-1.73719e-15
-9.99998e-10
-1.98221e-15
-1.66094e-15
-9.99998e-10
-2.14994e-15
-1.58704e-15
-9.99999e-10
-2.12154e-15
-1.54396e-15
-1e-09
-1.73337e-15
-1.60433e-15
-1e-09
-1.49338e-15
-1.65877e-15
-1e-09
-1.16019e-15
-1.72281e-15
-1e-09
-6.24497e-16
-1.70819e-15
-1e-09
-1.6773e-15
-1e-09
-7.43859e-16
-1.49542e-15
-9.99998e-10
-1.41872e-15
-1.47993e-15
-9.99999e-10
-1.9054e-15
-1.4348e-15
-9.99999e-10
-2.12054e-15
-1.38793e-15
-1e-09
-2.21157e-15
-1.34743e-15
-1e-09
-1.77654e-15
-1.32324e-15
-1e-09
-1.5351e-15
-1.37539e-15
-1e-09
-1.14428e-15
-1.42245e-15
-1e-09
-5.9989e-16
-1.44301e-15
-1e-09
-1.45994e-15
-1e-09
-7.23401e-16
-1.07604e-15
-9.99999e-10
-1.37564e-15
-1.05765e-15
-9.99999e-10
-1.86158e-15
-1.02448e-15
-1e-09
-2.11103e-15
-9.82279e-16
-1e-09
-2.15497e-15
-9.35299e-16
-1e-09
-1.84429e-15
-9.07712e-16
-1e-09
-1.5822e-15
-9.68631e-16
-1e-09
-1.16608e-15
-1.0169e-15
-1e-09
-6.20594e-16
-1.05512e-15
-1e-09
-1.07848e-15
-1e-09
-7.01992e-16
-5.62355e-16
-1e-09
-1.34209e-15
-5.55963e-16
-1e-09
-1.81808e-15
-5.37765e-16
-1e-09
-2.07318e-15
-5.07038e-16
-1e-09
-2.12493e-15
-4.71174e-16
-1e-09
-1.90585e-15
-4.58048e-16
-1e-09
-1.62916e-15
-5.07974e-16
-1e-09
-1.20417e-15
-5.45456e-16
-1e-09
-6.46583e-16
-5.69528e-16
-1e-09
-5.69724e-16
-1e-09
-6.94432e-16
-1e-09
-1.32029e-15
-1e-09
-1.78254e-15
-1e-09
-2.03601e-15
-1e-09
-2.10423e-15
-1e-09
-1.95119e-15
-1e-09
-1.66247e-15
-1e-09
-1.22514e-15
-1e-09
-6.46473e-16
-1e-09
-1e-09
-9.5956e-16
-7.86744e-16
-9.99993e-10
-1.76423e-15
-7.87272e-16
-9.99994e-10
-2.38809e-15
-7.93457e-16
-9.99994e-10
-2.76307e-15
-7.89557e-16
-9.99995e-10
-2.75748e-15
-7.63264e-16
-9.99996e-10
-2.53856e-15
-7.92788e-16
-9.99997e-10
-2.16511e-15
-7.94232e-16
-9.99998e-10
-1.56805e-15
-7.98446e-16
-9.99999e-10
-8.07081e-16
-7.95909e-16
-1e-09
-7.85936e-16
-1e-09
-9.59932e-16
-1.4108e-15
-9.99993e-10
-1.77655e-15
-1.4107e-15
-9.99994e-10
-2.39151e-15
-1.42215e-15
-9.99994e-10
-2.74717e-15
-1.43482e-15
-9.99995e-10
-2.79473e-15
-1.42921e-15
-9.99996e-10
-2.54654e-15
-1.49609e-15
-9.99997e-10
-2.17413e-15
-1.49978e-15
-9.99998e-10
-1.5694e-15
-1.51726e-15
-9.99999e-10
-8.00494e-16
-1.52829e-15
-1e-09
-1.53643e-15
-1e-09
-9.54095e-16
-1.91053e-15
-9.99994e-10
-1.78798e-15
-1.92649e-15
-9.99994e-10
-2.40346e-15
-1.96175e-15
-9.99995e-10
-2.74126e-15
-1.98659e-15
-9.99996e-10
-2.85875e-15
-1.97617e-15
-9.99997e-10
-2.55169e-15
-2.13741e-15
-9.99998e-10
-2.18988e-15
-2.10031e-15
-9.99999e-10
-1.5808e-15
-2.10839e-15
-1e-09
-8.12694e-16
-2.1267e-15
-1e-09
-2.13067e-15
-1e-09
-9.64541e-16
-2.22817e-15
-9.99995e-10
-1.82364e-15
-2.29297e-15
-9.99995e-10
-2.42826e-15
-2.33901e-15
-9.99996e-10
-2.73042e-15
-2.34978e-15
-9.99997e-10
-2.99607e-15
-2.34772e-15
-9.99998e-10
-2.50834e-15
-2.61127e-15
-9.99999e-10
-2.19562e-15
-2.52089e-15
-1e-09
-1.60084e-15
-2.5059e-15
-1e-09
-8.22139e-16
-2.51998e-15
-1e-09
-2.51496e-15
-1e-09
-1.02149e-15
-2.48695e-15
-9.99996e-10
-1.87096e-15
-2.50686e-15
-9.99996e-10
-2.43991e-15
-2.56259e-15
-9.99997e-10
-2.72547e-15
-2.7007e-15
-9.99998e-10
-3.31212e-15
-3.03344e-15
-9.99999e-10
-2.38615e-15
-2.13444e-15
-1e-09
-2.15331e-15
-2.51182e-15
-1e-09
-1.60719e-15
-2.60913e-15
-1e-09
-8.19066e-16
-2.64207e-15
-1e-09
-2.65898e-15
-1e-09
-1.03458e-15
-2.51987e-15
-9.99997e-10
-1.92876e-15
-2.48724e-15
-9.99997e-10
-2.6e-15
-2.41365e-15
-9.99998e-10
-3.00351e-15
-2.31719e-15
-9.99999e-10
-2.41332e-15
-2.20667e-15
-1e-09
-2.73661e-15
-2.57219e-15
-1e-09
-2.27009e-15
-2.48931e-15
-1e-09
-1.64141e-15
-2.47517e-15
-1e-09
-8.44679e-16
-2.46438e-15
-1e-09
-2.46268e-15
-1e-09
-9.94425e-16
-2.11653e-15
-9.99998e-10
-1.85542e-15
-2.09723e-15
-9.99998e-10
-2.51212e-15
-2.06922e-15
-9.99999e-10
-2.92552e-15
-2.0324e-15
-1e-09
-2.80656e-15
-1.94231e-15
-1e-09
-2.65684e-15
-2.05567e-15
-1e-09
-2.24135e-15
-2.04855e-15
-1e-09
-1.63068e-15
-2.08105e-15
-1e-09
-8.51911e-16
-2.11658e-15
-1e-09
-2.13234e-15
-1e-09
-9.69838e-16
-1.51624e-15
-9.99999e-10
-1.82871e-15
-1.50617e-15
-9.99999e-10
-2.47699e-15
-1.48997e-15
-1e-09
-2.86195e-15
-1.46553e-15
-1e-09
-2.90118e-15
-1.41886e-15
-1e-09
-2.66457e-15
-1.43623e-15
-1e-09
-2.27391e-15
-1.47632e-15
-1e-09
-1.66819e-15
-1.52075e-15
-1e-09
-8.73597e-16
-1.55209e-15
-1.00001e-09
-1.55408e-15
-1.00001e-09
-9.56013e-16
-7.98323e-16
-9.99999e-10
-1.81178e-15
-7.98946e-16
-1e-09
-2.451e-15
-7.86948e-16
-1e-09
-2.82192e-15
-7.68283e-16
-1e-09
-2.91689e-15
-7.55698e-16
-1e-09
-2.70615e-15
-7.5818e-16
-1e-09
-2.31636e-15
-7.8719e-16
-1e-09
-1.69942e-15
-8.0527e-16
-1.00001e-09
-8.79135e-16
-8.04581e-16
-1.00001e-09
-7.83911e-16
-1.00001e-09
-9.54089e-16
-1e-09
-1.79536e-15
-1e-09
-2.42674e-15
-1e-09
-2.80643e-15
-1e-09
-2.90903e-15
-1e-09
-2.72721e-15
-1e-09
-2.32796e-15
-1e-09
-1.69479e-15
-1.00001e-09
-8.58174e-16
-1.00001e-09
-1.00001e-09
-1.28204e-15
-1.0801e-15
-9.99991e-10
-2.37943e-15
-1.07415e-15
-9.99991e-10
-3.23153e-15
-1.06992e-15
-9.99992e-10
-3.76212e-15
-1.05408e-15
-9.99993e-10
-3.82489e-15
-1.01767e-15
-9.99995e-10
-3.56076e-15
-1.03327e-15
-9.99996e-10
-3.01919e-15
-1.06859e-15
-9.99998e-10
-2.16899e-15
-1.07499e-15
-9.99999e-10
-1.12515e-15
-1.07691e-15
-1e-09
-1.08624e-15
-1e-09
-1.27629e-15
-1.98772e-15
-9.99991e-10
-2.38161e-15
-1.98677e-15
-9.99992e-10
-3.22408e-15
-1.98835e-15
-9.99992e-10
-3.73777e-15
-1.99477e-15
-9.99994e-10
-3.85086e-15
-1.99691e-15
-9.99995e-10
-3.6026e-15
-2.016e-15
-9.99997e-10
-3.03254e-15
-2.06636e-15
-9.99998e-10
-2.17644e-15
-2.09772e-15
-9.99999e-10
-1.13932e-15
-2.11474e-15
-1e-09
-2.11954e-15
-1e-09
-1.26987e-15
-2.75148e-15
-9.99992e-10
-2.38346e-15
-2.77053e-15
-9.99992e-10
-3.23003e-15
-2.78431e-15
-9.99993e-10
-3.73859e-15
-2.79851e-15
-9.99994e-10
-3.8709e-15
-2.79678e-15
-9.99996e-10
-3.6503e-15
-2.89629e-15
-9.99997e-10
-3.06342e-15
-2.90839e-15
-9.99999e-10
-2.19403e-15
-2.93073e-15
-1e-09
-1.14926e-15
-2.93942e-15
-1e-09
-2.92269e-15
-1e-09
-1.28238e-15
-3.30292e-15
-9.99993e-10
-2.398e-15
-3.33068e-15
-9.99994e-10
-3.2437e-15
-3.32538e-15
-9.99994e-10
-3.73184e-15
-3.30299e-15
-9.99996e-10
-3.94955e-15
-3.22386e-15
-9.99997e-10
-3.64747e-15
-3.57753e-15
-9.99998e-10
-3.08488e-15
-3.54785e-15
-1e-09
-2.20396e-15
-3.52241e-15
-1e-09
-1.13965e-15
-3.48289e-15
-1e-09
-3.44154e-15
-1e-09
-1.2987e-15
-3.5023e-15
-9.99995e-10
-2.39482e-15
-3.51163e-15
-9.99995e-10
-3.22867e-15
-3.52518e-15
-9.99996e-10
-3.65095e-15
-3.59694e-15
-9.99997e-10
-4.34796e-15
-3.98616e-15
-9.99999e-10
-3.57811e-15
-3.18383e-15
-1e-09
-3.0363e-15
-3.44616e-15
-1e-09
-2.15884e-15
-3.57332e-15
-1e-09
-1.10334e-15
-3.63391e-15
-1e-09
-3.65434e-15
-1e-09
-1.30001e-15
-3.41219e-15
-9.99996e-10
-2.40741e-15
-3.40177e-15
-9.99996e-10
-3.32226e-15
-3.4059e-15
-9.99997e-10
-3.99001e-15
-3.37528e-15
-9.99998e-10
-3.5516e-15
-3.2786e-15
-9.99999e-10
-3.82536e-15
-3.52099e-15
-1e-09
-3.16201e-15
-3.43522e-15
-1e-09
-2.22033e-15
-3.42618e-15
-1e-09
-1.13512e-15
-3.45592e-15
-1e-09
-3.47666e-15
-1e-09
-1.28244e-15
-2.89275e-15
-9.99997e-10
-2.41344e-15
-2.89424e-15
-9.99998e-10
-3.30708e-15
-2.90291e-15
-9.99998e-10
-3.92871e-15
-2.89766e-15
-1e-09
-3.80992e-15
-2.81914e-15
-1e-09
-3.74469e-15
-2.92568e-15
-1e-09
-3.1382e-15
-2.9065e-15
-1e-09
-2.24896e-15
-2.93153e-15
-1e-09
-1.16594e-15
-2.96682e-15
-1.00001e-09
-2.96715e-15
-1.00001e-09
-1.27645e-15
-2.09747e-15
-9.99998e-10
-2.4215e-15
-2.10741e-15
-9.99999e-10
-3.30211e-15
-2.11334e-15
-1e-09
-3.87523e-15
-2.11539e-15
-1e-09
-3.9142e-15
-2.09634e-15
-1e-09
-3.74161e-15
-2.13369e-15
-1e-09
-3.16356e-15
-2.13031e-15
-1e-09
-2.2872e-15
-2.1455e-15
-1.00001e-09
-1.17441e-15
-2.15376e-15
-1.00001e-09
-2.13875e-15
-1.00001e-09
-1.28083e-15
-1.11578e-15
-9.99999e-10
-2.42661e-15
-1.12229e-15
-1e-09
-3.30325e-15
-1.11976e-15
-1e-09
-3.86206e-15
-1.12181e-15
-1e-09
-3.94922e-15
-1.12958e-15
-1e-09
-3.73992e-15
-1.14325e-15
-1e-09
-3.17589e-15
-1.12332e-15
-1.00001e-09
-2.29526e-15
-1.11059e-15
-1.00001e-09
-1.16415e-15
-1.09333e-15
-1.00001e-09
-1.07069e-15
-1.00001e-09
-1.2826e-15
-1e-09
-2.41825e-15
-1e-09
-3.29785e-15
-1e-09
-3.86416e-15
-1e-09
-3.94999e-15
-1e-09
-3.71117e-15
-1e-09
-3.15395e-15
-1.00001e-09
-2.27302e-15
-1.00001e-09
-1.14138e-15
-1.00001e-09
-1.00001e-09
-1.69645e-15
-1.47426e-15
-9.99987e-10
-3.20782e-15
-1.46867e-15
-9.99988e-10
-4.38451e-15
-1.46503e-15
-9.99989e-10
-5.13499e-15
-1.45768e-15
-9.99991e-10
-5.3073e-15
-1.4431e-15
-9.99993e-10
-4.9633e-15
-1.45408e-15
-9.99995e-10
-4.19619e-15
-1.48666e-15
-9.99997e-10
-3.019e-15
-1.49413e-15
-9.99998e-10
-1.58811e-15
-1.50004e-15
-1e-09
-1.51038e-15
-1e-09
-1.69106e-15
-2.79681e-15
-9.99988e-10
-3.21212e-15
-2.80167e-15
-9.99989e-10
-4.38786e-15
-2.79996e-15
-9.9999e-10
-5.13468e-15
-2.80605e-15
-9.99991e-10
-5.33201e-15
-2.82338e-15
-9.99993e-10
-5.00492e-15
-2.81113e-15
-9.99995e-10
-4.2139e-15
-2.86279e-15
-9.99997e-10
-3.03251e-15
-2.88764e-15
-9.99999e-10
-1.60517e-15
-2.88899e-15
-1e-09
-2.87103e-15
-1e-09
-1.68901e-15
-3.8983e-15
-9.99989e-10
-3.21089e-15
-3.91221e-15
-9.9999e-10
-4.39426e-15
-3.90815e-15
-9.99991e-10
-5.14948e-15
-3.92009e-15
-9.99993e-10
-5.32106e-15
-3.95978e-15
-9.99994e-10
-5.05248e-15
-3.94591e-15
-9.99997e-10
-4.23936e-15
-3.98697e-15
-9.99998e-10
-3.03455e-15
-4.00088e-15
-1e-09
-1.5945e-15
-3.98452e-15
-1e-09
-3.95052e-15
-1e-09
-1.6939e-15
-4.654e-15
-9.99991e-10
-3.20693e-15
-4.64348e-15
-9.99991e-10
-4.40636e-15
-4.62619e-15
-9.99992e-10
-5.17491e-15
-4.6411e-15
-9.99994e-10
-5.29009e-15
-4.63469e-15
-9.99996e-10
-5.07983e-15
-4.72904e-15
-9.99998e-10
-4.2524e-15
-4.77321e-15
-1e-09
-3.01861e-15
-4.75143e-15
-1e-09
-1.57046e-15
-4.70188e-15
-1e-09
-4.6593e-15
-1e-09
-1.67001e-15
-4.89014e-15
-9.99992e-10
-3.19117e-15
-4.89332e-15
-9.99993e-10
-4.43553e-15
-4.87404e-15
-9.99994e-10
-5.16835e-15
-4.82918e-15
-9.99996e-10
-5.37428e-15
-4.88709e-15
-9.99998e-10
-5.07499e-15
-4.89958e-15
-1e-09
-4.21932e-15
-4.91091e-15
-1e-09
-2.9656e-15
-4.93533e-15
-1e-09
-1.53689e-15
-4.9517e-15
-1e-09
-4.94607e-15
-1e-09
-1.66228e-15
-4.62704e-15
-9.99994e-10
-3.17169e-15
-4.65616e-15
-9.99995e-10
-4.40826e-15
-4.70529e-15
-9.99996e-10
-5.23624e-15
-4.71622e-15
-9.99998e-10
-5.39011e-15
-4.65625e-15
-1e-09
-5.07951e-15
-4.6317e-15
-1e-09
-4.22055e-15
-4.60745e-15
-1e-09
-2.98092e-15
-4.65254e-15
-1e-09
-1.54422e-15
-4.722e-15
-1.00001e-09
-4.74877e-15
-1.00001e-09
-1.68247e-15
-3.96216e-15
-9.99996e-10
-3.22486e-15
-3.9902e-15
-9.99997e-10
-4.43534e-15
-4.0187e-15
-9.99998e-10
-5.21989e-15
-4.03356e-15
-9.99999e-10
-5.37164e-15
-4.01497e-15
-1e-09
-5.0624e-15
-3.98303e-15
-1e-09
-4.25505e-15
-3.98707e-15
-1.00001e-09
-3.04896e-15
-4.01013e-15
-1.00001e-09
-1.58346e-15
-4.03641e-15
-1.00001e-09
-4.02922e-15
-1.00001e-09
-1.6998e-15
-2.90061e-15
-9.99998e-10
-3.25153e-15
-2.92613e-15
-9.99998e-10
-4.45026e-15
-2.94285e-15
-9.99999e-10
-5.21084e-15
-2.96233e-15
-1e-09
-5.36283e-15
-2.9871e-15
-1e-09
-5.07678e-15
-2.97583e-15
-1e-09
-4.27866e-15
-2.93917e-15
-1.00001e-09
-3.07796e-15
-2.92773e-15
-1.00001e-09
-1.58665e-15
-2.92554e-15
-1.00001e-09
-2.91283e-15
-1.00001e-09
-1.71774e-15
-1.54722e-15
-9.99999e-10
-3.26763e-15
-1.55603e-15
-9.99999e-10
-4.46961e-15
-1.56083e-15
-1e-09
-5.23903e-15
-1.57344e-15
-1e-09
-5.35246e-15
-1.58965e-15
-1e-09
-5.04138e-15
-1.5888e-15
-1.00001e-09
-4.26418e-15
-1.5369e-15
-1.00001e-09
-3.07555e-15
-1.51316e-15
-1.00001e-09
-1.58043e-15
-1.50335e-15
-1.00001e-09
-1.49011e-15
-1.00001e-09
-1.71958e-15
-9.99999e-10
-3.26458e-15
-1e-09
-4.47182e-15
-1e-09
-5.24535e-15
-1e-09
-5.33648e-15
-1e-09
-4.97865e-15
-1.00001e-09
-4.22882e-15
-1.00001e-09
-3.05916e-15
-1.00001e-09
-1.56698e-15
-1.00001e-09
-1.00001e-09
-2.2683e-15
-2.02501e-15
-9.99983e-10
-4.35465e-15
-2.03362e-15
-9.99984e-10
-5.98134e-15
-2.03926e-15
-9.99986e-10
-7.02726e-15
-2.04064e-15
-9.99988e-10
-7.31071e-15
-2.02618e-15
-9.9999e-10
-6.87253e-15
-2.04637e-15
-9.99993e-10
-5.82609e-15
-2.06088e-15
-9.99996e-10
-4.20486e-15
-2.06851e-15
-9.99998e-10
-2.21023e-15
-2.06232e-15
-1e-09
-2.04601e-15
-1e-09
-2.27702e-15
-3.9093e-15
-9.99984e-10
-4.37109e-15
-3.92548e-15
-9.99985e-10
-5.99672e-15
-3.92207e-15
-9.99986e-10
-7.03048e-15
-3.91186e-15
-9.99989e-10
-7.3487e-15
-3.89502e-15
-9.99991e-10
-6.90181e-15
-3.90344e-15
-9.99994e-10
-5.8479e-15
-3.91382e-15
-9.99997e-10
-4.2094e-15
-3.91135e-15
-9.99999e-10
-2.20375e-15
-3.88518e-15
-1e-09
-3.85128e-15
-1e-09
-2.28334e-15
-5.42092e-15
-9.99985e-10
-4.36793e-15
-5.43338e-15
-9.99986e-10
-5.98685e-15
-5.41874e-15
-9.99988e-10
-7.01198e-15
-5.40574e-15
-9.9999e-10
-7.35782e-15
-5.41013e-15
-9.99993e-10
-6.90987e-15
-5.41972e-15
-9.99995e-10
-5.84608e-15
-5.40868e-15
-9.99998e-10
-4.18422e-15
-5.38613e-15
-1e-09
-2.17979e-15
-5.35424e-15
-1e-09
-5.32721e-15
-1e-09
-2.28325e-15
-6.36415e-15
-9.99988e-10
-4.35277e-15
-6.36191e-15
-9.99988e-10
-5.97458e-15
-6.35433e-15
-9.9999e-10
-7.00382e-15
-6.36729e-15
-9.99992e-10
-7.35401e-15
-6.36634e-15
-9.99995e-10
-6.88522e-15
-6.3764e-15
-9.99997e-10
-5.82281e-15
-6.39066e-15
-1e-09
-4.15272e-15
-6.3482e-15
-1e-09
-2.16596e-15
-6.31676e-15
-1e-09
-6.29544e-15
-1e-09
-2.26468e-15
-6.73774e-15
-9.9999e-10
-4.34484e-15
-6.74445e-15
-9.99991e-10
-5.99961e-15
-6.75268e-15
-9.99992e-10
-7.00107e-15
-6.74916e-15
-9.99994e-10
-7.34476e-15
-6.73662e-15
-9.99997e-10
-6.83462e-15
-6.61531e-15
-1e-09
-5.76895e-15
-6.74811e-15
-1e-09
-4.12024e-15
-6.7387e-15
-1e-09
-2.15882e-15
-6.71529e-15
-1.00001e-09
-6.67822e-15
-1.00001e-09
-2.25592e-15
-6.3714e-15
-9.99992e-10
-4.35378e-15
-6.40047e-15
-9.99993e-10
-6.00986e-15
-6.41356e-15
-9.99995e-10
-6.99984e-15
-6.38436e-15
-9.99997e-10
-7.22998e-15
-6.31701e-15
-1e-09
-6.93352e-15
-6.38721e-15
-1e-09
-5.73639e-15
-6.29755e-15
-1e-09
-4.09232e-15
-6.33012e-15
-1.00001e-09
-2.13798e-15
-6.38693e-15
-1.00001e-09
-6.40577e-15
-1.00001e-09
-2.27128e-15
-5.44577e-15
-9.99995e-10
-4.37103e-15
-5.48345e-15
-9.99996e-10
-5.99714e-15
-5.50884e-15
-9.99997e-10
-7.0012e-15
-5.52596e-15
-9.99999e-10
-7.33117e-15
-5.52779e-15
-1e-09
-6.84845e-15
-5.46819e-15
-1e-09
-5.76061e-15
-5.43393e-15
-1.00001e-09
-4.15034e-15
-5.43465e-15
-1.00001e-09
-2.17375e-15
-5.45092e-15
-1.00001e-09
-5.44842e-15
-1.00001e-09
-2.29504e-15
-3.99495e-15
-9.99997e-10
-4.39515e-15
-4.02561e-15
-9.99998e-10
-6.01369e-15
-4.04388e-15
-9.99999e-10
-7.01184e-15
-4.0661e-15
-1e-09
-7.29534e-15
-4.10297e-15
-1e-09
-6.82305e-15
-4.05464e-15
-1.00001e-09
-5.76172e-15
-3.98807e-15
-1.00001e-09
-4.16885e-15
-3.96797e-15
-1.00001e-09
-2.18476e-15
-3.9733e-15
-1.00001e-09
-3.96568e-15
-1.00001e-09
-2.31599e-15
-2.1267e-15
-9.99998e-10
-4.41255e-15
-2.13899e-15
-9.99999e-10
-6.03554e-15
-2.14393e-15
-1e-09
-7.04973e-15
-2.14624e-15
-1e-09
-7.25197e-15
-2.15528e-15
-1.00001e-09
-6.75618e-15
-2.14113e-15
-1.00001e-09
-5.73889e-15