FoamFile
{version 2.0; format ascii;class vectorField; location 0;object  v;}
346
(
( 3.29939e-06 -5.74579e-06 -2.20558e-07 )  
( 2.73475e-07 -2.70606e-06 1.39439e-07 )  
( -1.21046e-07 -3.40888e-06 -5.42082e-07 )  
( 7.73586e-07 -6.44414e-06 -1.99789e-08 )  
( 1.11554e-06 -2.1848e-06 2.99318e-07 )  
( 2.00143e-06 -2.31579e-06 8.19092e-07 )  
( 1.88117e-06 -4.85439e-06 -2.04907e-07 )  
( 3.15228e-06 -9.78432e-06 1.90435e-06 )  
( -2.47306e-06 -5.53064e-06 -3.69364e-07 )  
( 1.077e-06 -4.55295e-06 4.92055e-07 )  
( -7.03231e-07 -4.46839e-06 -1.48362e-06 )  
( -2.21375e-07 -3.061e-06 -2.50865e-06 )  
( 2.1258e-06 -3.97907e-06 1.08621e-06 )  
( -7.81645e-07 -3.86239e-06 1.27606e-06 )  
( 7.67812e-06 -1.41273e-05 -7.53457e-07 )  
( -1.32791e-06 -2.8619e-06 2.65862e-07 )  
( 1.56248e-06 -5.58589e-06 1.78861e-06 )  
( -6.24114e-07 -2.43777e-06 -4.72008e-07 )  
( 1.20172e-06 -5.73102e-06 -2.7903e-07 )  
( 1.42516e-06 -6.46281e-06 -9.87882e-07 )  
( 2.52781e-06 -9.07702e-06 1.54954e-06 )  
( -1.43507e-06 -3.53595e-06 4.74722e-08 )  
( 8.7682e-07 -3.4519e-06 -6.66903e-07 )  
( 3.46112e-06 -8.49107e-06 -3.15607e-06 )  
( -1.71292e-07 -4.67163e-06 1.18175e-06 )  
( 4.6043e-06 -5.65627e-06 1.27033e-06 )  
( 9.75362e-07 -8.41529e-06 2.29295e-06 )  
( -2.37876e-06 -2.99784e-06 -1.69932e-06 )  
( -1.04703e-06 -1.43664e-06 5.66382e-07 )  
( 2.731e-07 -4.7642e-06 3.4123e-07 )  
( 1.11307e-06 -7.30932e-06 2.14298e-06 )  
( -7.47988e-07 -1.03741e-05 -8.26776e-07 )  
( 4.76324e-06 -1.80675e-05 -1.39122e-06 )  
( -1.31723e-07 -1.11113e-05 3.1853e-07 )  
( 3.1658e-06 -7.35041e-06 -7.50178e-08 )  
( -1.21522e-06 -8.03918e-06 -6.62791e-07 )  
( 1.75848e-06 -9.24135e-06 1.33709e-06 )  
( 2.9927e-06 -6.87195e-06 -1.35389e-07 )  
( 4.9623e-06 -5.70537e-06 2.27585e-06 )  
( 1.38332e-06 -7.46046e-06 -2.40794e-06 )  
( 1.67223e-06 -1.12652e-05 2.53895e-06 )  
( 2.59681e-06 -1.25681e-05 -1.14465e-06 )  
( 1.06075e-07 -1.05126e-05 -1.37137e-06 )  
( 8.19202e-07 -1.42702e-05 5.24585e-06 )  
( 4.08474e-06 -9.66551e-06 -6.79984e-08 )  
( 2.97744e-06 -1.39433e-05 1.23107e-06 )  
( 1.20958e-06 -1.22827e-05 2.42587e-06 )  
( 3.16954e-06 -1.10284e-05 2.62057e-06 )  
( 5.34765e-06 -4.2486e-06 3.17442e-06 )  
( 2.75712e-06 -9.20711e-06 -1.00394e-06 )  
( -5.38644e-07 -1.20795e-05 2.87705e-06 )  
( 1.24426e-06 -9.74495e-06 4.465e-07 )  
( 4.93175e-06 -1.05761e-05 -2.62318e-09 )  
( 3.26015e-06 -1.3299e-05 -6.14539e-07 )  
( -4.68758e-07 -1.11321e-05 -9.94243e-07 )  
( 2.16717e-06 -1.27955e-05 2.67704e-06 )  
( -2.17932e-06 -1.41625e-05 -1.2916e-06 )  
( -1.08579e-07 -1.27066e-05 -2.53567e-06 )  
( 1.45827e-06 -1.3073e-05 3.21803e-06 )  
( 4.0964e-07 -1.10103e-05 -6.82552e-06 )  
( 2.00764e-06 -1.08384e-05 1.84495e-06 )  
( -2.27425e-06 -1.45314e-05 -1.28125e-06 )  
( 1.48627e-06 -1.12944e-05 7.42901e-07 )  
( 2.92439e-06 -9.89051e-06 2.11135e-06 )  
( 1.73969e-06 -6.03453e-06 8.16764e-07 )  
( 2.71856e-06 -1.21131e-05 2.70723e-06 )  
( -3.82037e-07 -8.51686e-06 -3.36884e-06 )  
( -5.37759e-07 -1.348e-05 -1.74643e-06 )  
( -5.10312e-06 -1.53626e-05 -7.63778e-06 )  
( 3.09232e-06 -1.22475e-05 6.39088e-06 )  
( -1.93695e-07 -1.39278e-05 -4.00477e-06 )  
( 2.33625e-06 -1.36496e-05 2.84107e-06 )  
( 3.24534e-06 -1.17535e-05 6.64751e-06 )  
( -1.25669e-06 -1.09293e-05 -2.58938e-06 )  
( 1.12276e-06 -5.00559e-06 3.53826e-06 )  
( 1.41864e-06 -1.42048e-05 -1.07856e-05 )  
( -1.20786e-06 -1.3016e-05 1.76434e-06 )  
( 2.27512e-06 -1.2865e-05 -4.5633e-06 )  
( -4.87786e-07 -1.26439e-05 2.35254e-07 )  
( 3.32659e-06 -1.18712e-05 -7.29758e-06 )  
( -4.04882e-06 -7.8562e-06 -8.45316e-06 )  
( -2.56029e-07 -9.37348e-06 2.87975e-06 )  
( 2.98488e-06 -1.04159e-05 -3.39503e-07 )  
( -2.23176e-06 -1.20651e-05 -1.46756e-06 )  
( -2.02134e-06 -1.2929e-05 -9.23456e-06 )  
( -5.71077e-06 -1.43993e-05 -2.24556e-06 )  
( -6.46703e-06 -1.1999e-05 -8.3926e-06 )  
( -2.80889e-06 -1.28797e-05 1.68078e-06 )  
( -1.96638e-06 -1.34992e-05 -6.45492e-07 )  
( -4.13482e-06 -1.23249e-05 -9.75112e-06 )  
( -2.54681e-06 -1.59525e-05 2.20746e-06 )  
( -1.69544e-06 -1.35784e-05 -2.38157e-06 )  
( -2.96559e-06 -1.28363e-05 -4.2025e-07 )  
( 3.4781e-06 -1.39182e-05 8.71454e-07 )  
( -3.8318e-06 -1.44729e-05 -1.10558e-05 )  
( -9.37674e-06 -1.34594e-05 -5.61818e-06 )  
( -2.59624e-06 -1.81689e-05 -3.33146e-06 )  
( -3.08198e-06 -1.90005e-05 -1.36063e-05 )  
( -9.60929e-07 -1.32517e-05 -1.55754e-05 )  
( -1.48091e-05 -1.08394e-05 -9.005e-06 )  
( -1.31414e-05 -9.55583e-06 -1.98367e-05 )  
( -4.29785e-06 -1.01461e-05 -1.68911e-05 )  
( -8.98284e-06 -1.71824e-05 -1.33951e-05 )  
( -6.96371e-06 -1.48748e-05 -2.11624e-07 )  
( -9.08676e-07 -1.2896e-05 8.58225e-06 )  
( -7.47565e-06 -1.28412e-05 -6.17253e-06 )  
( 3.33583e-06 -1.7562e-05 -8.02605e-07 )  
( 3.49828e-07 -8.1307e-06 2.16027e-06 )  
( -5.84264e-06 -1.30235e-05 2.94396e-06 )  
( -5.98934e-06 -2.79306e-06 -2.00249e-06 )  
( -7.03115e-06 -1.74096e-05 -1.42332e-05 )  
( -3.09898e-06 -1.56376e-05 -1.41134e-06 )  
( -9.74593e-06 -9.85346e-06 -7.98656e-06 )  
( -3.54032e-06 -1.30831e-05 7.0783e-06 )  
( 1.25561e-06 -1.76527e-05 6.52866e-06 )  
( -2.0321e-06 -1.97499e-05 -4.71196e-06 )  
( -2.10572e-06 -6.53232e-06 7.77773e-07 )  
( -7.78068e-06 -3.73953e-06 -1.0974e-05 )  
( -7.665e-06 -1.90445e-05 -1.93347e-05 )  
( -3.62261e-06 -1.90672e-05 -1.72098e-05 )  
( -4.32092e-06 -1.69435e-05 -1.10496e-05 )  
( -9.67489e-06 -9.18097e-06 5.39626e-07 )  
( 1.33405e-05 -3.14884e-05 2.78176e-06 )  
( -6.18875e-06 -1.58041e-05 -1.28105e-06 )  
( -3.53581e-06 -1.39675e-05 -1.81055e-05 )  
( -1.13122e-05 -7.52085e-06 -1.11516e-05 )  
( -5.55909e-06 -6.69734e-06 -8.67512e-07 )  
( -9.97581e-06 -1.08055e-05 -2.10189e-05 )  
( -4.02249e-06 -1.14357e-05 -2.04231e-05 )  
( -8.6464e-06 -7.93583e-06 -8.21588e-06 )  
( -1.41499e-05 -7.24972e-06 -2.39351e-05 )  
( -7.91249e-06 -1.3532e-05 -1.5919e-05 )  
( -1.33517e-05 -9.90322e-06 -7.83819e-06 )  
( 1.09609e-06 -1.10647e-05 -3.39729e-05 )  
( -5.88596e-06 -2.01911e-05 -2.87139e-05 )  
( -1.59149e-05 -4.17531e-06 -2.03114e-05 )  
( -2.53503e-05 1.68537e-05 -1.55876e-05 )  
( -1.22775e-05 -9.98396e-06 -1.50716e-05 )  
( -9.13979e-06 -1.01592e-05 -1.04678e-05 )  
( -9.77237e-06 -2.02334e-05 -2.64504e-05 )  
( -1.64829e-05 -1.55437e-05 -1.10768e-05 )  
( -4.33089e-06 -2.00596e-05 -2.33675e-05 )  
( -9.41999e-06 -1.24856e-05 -3.61917e-05 )  
( -6.51581e-06 -1.61735e-05 -1.71039e-05 )  
( -1.0851e-05 -1.03563e-05 -3.88744e-05 )  
( -7.93633e-06 -8.42088e-06 -2.49774e-05 )  
( -2.0779e-06 -1.46974e-05 -1.31167e-05 )  
( -1.00311e-05 -1.57956e-05 -3.33694e-05 )  
( -1.19906e-05 -9.0235e-06 -2.87594e-05 )  
( -3.68929e-06 -1.88337e-05 -2.42299e-05 )  
( -1.16811e-05 -1.38131e-05 -2.93779e-05 )  
( -4.97238e-06 -1.16359e-05 -3.06362e-05 )  
( -2.1931e-06 -1.81304e-05 -1.74026e-05 )  
( -8.91717e-06 -1.33658e-05 -1.40844e-05 )  
( -2.76828e-06 -1.7739e-05 -3.19304e-05 )  
( -2.06292e-05 4.5094e-06 -4.18854e-05 )  
( -1.47984e-05 -1.90774e-06 -1.99495e-05 )  
( -9.75232e-06 -1.22492e-05 -5.35936e-05 )  
( -1.55787e-05 -1.81676e-05 -3.22173e-05 )  
( -9.84533e-06 -1.485e-05 -3.00407e-05 )  
( -9.84715e-06 -1.09969e-05 -5.52808e-05 )  
( -1.02567e-05 -1.12756e-06 -4.99203e-05 )  
( -6.02982e-06 -1.45981e-05 -4.46586e-05 )  
( -3.29079e-06 -1.03113e-05 -3.72422e-05 )  
( -8.58218e-06 -1.09536e-05 -4.57892e-05 )  
( -1.12303e-05 -1.1472e-05 -4.71397e-05 )  
( -8.58858e-06 -7.25658e-07 -6.91637e-05 )  
( -5.37062e-06 -1.42099e-05 -3.97983e-05 )  
( -9.39593e-06 -1.39313e-05 -4.3942e-05 )  
( -5.10805e-06 2.64441e-07 -6.28804e-05 )  
( -3.27338e-06 -3.84851e-06 -6.46674e-05 )  
( -1.45196e-05 2.44451e-06 -7.42463e-05 )  
( -1.68223e-05 -2.07229e-05 -2.54563e-05 )  
( -5.95237e-06 -5.55444e-06 -5.45934e-05 )  
( -1.28346e-05 -7.78424e-06 -5.89311e-05 )  
( -8.09116e-06 -1.56015e-05 -5.18621e-05 )  
( -5.69881e-06 -5.2907e-06 -5.09132e-05 )  
( -8.39433e-06 -1.07847e-05 -5.05664e-05 )  
( -1.14752e-05 -5.92359e-06 -4.95822e-05 )  
( -8.68686e-06 -2.14941e-05 -4.16577e-05 )  
( -3.53119e-05 -6.42404e-06 -1.85017e-05 )  
( -9.24088e-06 -4.34056e-06 -2.5666e-05 )  
( 1.22983e-05 3.44857e-06 -6.40616e-05 )  
( -7.95662e-06 1.41641e-06 -4.33876e-05 )  
( -1.13452e-05 3.84144e-08 -7.30069e-05 )  
( -2.20411e-06 -3.48378e-06 -7.57638e-05 )  
( -1.36685e-05 -1.82385e-05 -6.9616e-05 )  
( -1.04451e-05 -1.02121e-05 -7.07995e-05 )  
( -2.82784e-06 1.99987e-06 -6.93296e-05 )  
( -8.16133e-06 1.00013e-05 -6.89164e-05 )  
( -5.93894e-06 -2.25042e-06 -6.84024e-05 )  
( -9.20296e-06 -2.76332e-06 -5.76189e-05 )  
( -1.52437e-06 2.24334e-05 -9.18832e-05 )  
( -1.13726e-05 -1.21222e-06 -7.01194e-05 )  
( -1.59846e-05 -9.42437e-06 -5.97272e-05 )  
( -1.48622e-05 4.64123e-06 -8.29896e-05 )  
( -4.75683e-06 1.27253e-05 -9.64744e-05 )  
( -7.27498e-06 -1.33798e-05 -5.21478e-05 )  
( -1.66252e-05 -7.3421e-06 -6.94505e-05 )  
( 1.36589e-06 -7.12388e-06 -8.51915e-05 )  
( -1.86238e-05 -6.04312e-06 -6.13171e-05 )  
( -5.58169e-06 8.4746e-06 -8.28217e-05 )  
( -4.4282e-06 5.48776e-06 -9.32114e-05 )  
( 1.07261e-05 1.28079e-05 -9.09315e-05 )  
( -1.44303e-05 -1.24734e-05 -8.41245e-05 )  
( -3.9724e-06 -4.9541e-06 -9.44486e-05 )  
( -1.36289e-06 1.29562e-06 -9.77146e-05 )  
( -1.10021e-05 -1.4853e-06 -8.44875e-05 )  
( -1.18017e-05 -4.21811e-06 -9.1307e-05 )  
( -1.96828e-05 -5.5624e-06 -6.83855e-05 )  
( -2.82232e-05 -9.37317e-06 -9.50718e-05 )  
( 1.0062e-07 4.82961e-06 -9.04461e-05 )  
( -1.86998e-06 -5.93622e-06 -0.000110052 )  
( -1.55084e-05 -1.44688e-05 -0.000101262 )  
( -1.75423e-05 -1.52652e-05 -8.98224e-05 )  
( -1.22692e-05 7.43044e-06 -0.000106871 )  
( -3.46365e-06 6.89788e-06 -7.75839e-05 )  
( -1.34841e-05 5.81766e-06 -8.07803e-05 )  
( -6.55298e-06 -2.29157e-06 -0.000113866 )  
( 1.6653e-06 -1.06224e-05 -0.000104726 )  
( -1.12663e-05 2.93463e-07 -0.000117716 )  
( -1.21686e-05 8.54816e-06 -8.57818e-05 )  
( -1.17777e-05 -9.61331e-06 -0.000111914 )  
( -1.43475e-05 -5.62038e-06 -0.000112054 )  
( -1.07481e-05 -1.23952e-05 -0.000106556 )  
( -1.17394e-05 -1.41918e-05 -0.000122076 )  
( -1.18915e-05 -9.0666e-06 -0.000128568 )  
( 1.49696e-06 1.71108e-05 -0.000117121 )  
( -1.85226e-05 4.81164e-06 -9.70336e-05 )  
( -1.45691e-05 -3.02133e-06 -0.000115586 )  
( 2.40903e-06 3.4851e-06 -8.23874e-05 )  
( -6.04321e-06 -1.14638e-06 -0.00013016 )  
( -1.66355e-06 1.47936e-06 -0.000141467 )  
( 1.40246e-06 -1.0073e-06 -0.000139769 )  
( 2.10882e-06 1.08009e-05 -0.000121679 )  
( -2.41282e-05 2.15976e-06 -0.000154047 )  
( -5.4936e-06 -2.61389e-06 -0.000131073 )  
( 5.1283e-06 -1.64415e-06 -0.000146616 )  
( -1.60921e-05 -1.04875e-05 -0.000127778 )  
( -1.18684e-05 -4.93775e-06 -0.000134634 )  
( -1.50201e-05 -3.14096e-06 -0.000127594 )  
( -2.09154e-05 -2.20828e-06 -0.000125012 )  
( -6.08016e-06 -1.56692e-05 -0.000113798 )  
( 1.71713e-06 5.59904e-06 -0.000110767 )  
( 9.34091e-07 1.70781e-05 -8.05477e-05 )  
( -8.2672e-06 7.11573e-06 -0.000119248 )  
( 1.61359e-06 7.58064e-06 -0.000129525 )  
( -8.1609e-06 -5.45368e-06 -0.000146293 )  
( 2.67e-07 5.88959e-06 -0.000152158 )  
( -1.75352e-05 2.46969e-05 -0.00013888 )  
( 1.28219e-05 -2.30877e-07 -0.000142892 )  
( -2.22194e-06 2.07576e-05 -0.000156642 )  
( 5.04061e-06 2.45416e-06 -0.000128264 )  
( -4.6706e-06 -4.22745e-06 -0.000140918 )  
( -7.32267e-06 -3.62746e-06 -0.000165492 )  
( -3.91734e-05 -4.4015e-06 -0.000143198 )  
( -3.24583e-06 -8.73827e-07 -0.000134712 )  
( 1.73211e-06 -5.37594e-06 -0.000147133 )  
( 7.34167e-07 -1.24699e-05 -0.000152474 )  
( 1.14219e-05 1.44615e-05 -0.000149829 )  
( -3.11143e-06 3.41442e-06 -0.000152637 )  
( -2.86334e-05 -2.89654e-06 -0.00016534 )  
( -5.78695e-06 1.72767e-05 -0.000165686 )  
( -8.09777e-06 1.13043e-05 -0.000148729 )  
( -6.36722e-06 6.14099e-06 -0.000179264 )  
( -2.9058e-06 -7.65683e-06 -0.000162856 )  
( -1.46878e-05 -2.90356e-06 -0.000162543 )  
( -2.31043e-06 1.45174e-05 -0.00016014 )  
( 7.25908e-06 1.7276e-05 -0.000153153 )  
( 7.06004e-06 -7.31171e-06 -0.000159314 )  
( -8.71919e-06 1.16654e-05 -0.000152627 )  
( -3.02587e-06 5.44236e-06 -0.000157469 )  
( -8.63719e-06 1.55894e-06 -0.000193984 )  
( 9.7279e-06 -2.2106e-06 -0.000179648 )  
( -6.45656e-06 1.81561e-05 -0.000196465 )  
( 8.10187e-06 2.04087e-05 -0.00016996 )  
( -3.51008e-06 1.3491e-05 -0.000195672 )  
( 8.83211e-06 5.41401e-06 -0.000178968 )  
( 8.08252e-06 -6.93846e-06 -0.000165343 )  
( -1.29975e-05 5.21504e-06 -0.000165175 )  
( 6.10752e-06 -2.50911e-06 -0.000161287 )  
( 5.5764e-06 2.34254e-06 -0.000186494 )  
( 3.09192e-06 6.24483e-06 -0.000147726 )  
( 6.84437e-06 2.87932e-06 -0.000157626 )  
( -2.4701e-05 -1.9875e-06 -0.000162547 )  
( -1.60369e-06 1.77598e-05 -0.000184353 )  
( -1.44335e-05 -2.97843e-06 -0.00018943 )  
( -5.1088e-07 -5.45405e-06 -0.000191125 )  
( 2.49862e-06 -1.96901e-06 -0.00016816 )  
( 2.19248e-05 7.35312e-06 -0.000168837 )  
( 1.67369e-05 -1.33683e-05 -0.000180862 )  
( -9.61608e-06 3.04643e-06 -0.000243139 )  
( -8.47045e-06 1.3946e-05 -0.000180879 )  
( 1.02537e-05 -1.86473e-06 -0.000177637 )  
( 1.15347e-05 1.92381e-05 -0.000179283 )  
( 2.4653e-05 5.65253e-06 -0.000193492 )  
( -1.23353e-06 1.31555e-05 -0.000195844 )  
( -5.28001e-06 1.28518e-05 -0.000203815 )  
( -2.6747e-05 1.95805e-06 -0.000216625 )  
( -1.34214e-05 1.28652e-05 -0.000184018 )  
( 1.2446e-05 -9.59315e-06 -0.00017292 )  
( 5.18835e-06 3.90092e-06 -0.000207764 )  
( -2.12485e-06 2.27264e-05 -0.000210449 )  
( 2.90972e-05 2.54848e-05 -0.000199375 )  
( -2.41131e-05 -1.29273e-05 -0.00025088 )  
( -4.97949e-06 -2.14294e-06 -0.000245846 )  
( 1.26565e-05 3.16119e-05 -0.000200824 )  
( 1.60416e-05 2.61866e-06 -0.000192654 )  
( -9.59407e-06 1.60498e-05 -0.000207233 )  
( 3.46517e-07 -1.03207e-05 -0.000213248 )  
( -1.33723e-05 1.57967e-06 -0.000174915 )  
( 1.46168e-06 1.27961e-05 -0.000202083 )  
( 8.22155e-06 2.66623e-05 -0.000176905 )  
( 1.14134e-05 5.67586e-05 -0.00019723 )  
( -7.89748e-06 1.39485e-06 -0.000221399 )  
( 5.0891e-06 5.02975e-06 -0.000249092 )  
( 1.09661e-05 3.10517e-05 -0.000216263 )  
( 1.90079e-05 1.46573e-05 -0.000224083 )  
( 2.44761e-05 3.07449e-05 -0.000184536 )  
( 3.171e-05 2.73152e-05 -0.000215201 )  
( -4.43329e-06 -3.78857e-05 -0.000225268 )  
( -3.81395e-06 1.16184e-05 -0.000239328 )  
( 2.76392e-06 1.43745e-05 -0.000197318 )  
( 1.46606e-05 -1.01315e-05 -0.000242097 )  
( 1.98698e-05 -3.26161e-06 -0.000206233 )  
( 2.61477e-05 1.03923e-05 -0.000209584 )  
( 4.53745e-06 3.14076e-05 -0.000177627 )  
( 8.13991e-06 7.73035e-06 -0.000194593 )  
( 7.34577e-06 1.74304e-05 -0.000200433 )  
( -4.18788e-06 1.88356e-05 -0.0002092 )  
( 1.85606e-05 2.08788e-05 -0.000201913 )  
( 6.00016e-06 6.30946e-05 -0.000198733 )  
( 1.89652e-06 -1.1115e-05 -0.000231524 )  
( -7.34615e-06 -2.31613e-05 -0.000201756 )  
( 4.21342e-05 6.72393e-05 -0.000180464 )  
( 2.67902e-05 -3.53794e-06 -0.000215062 )  
( -1.31502e-05 -4.89996e-05 -0.000241335 )  
( 6.91442e-06 3.66113e-05 -0.000219883 )  
( 3.85136e-06 1.74813e-05 -0.000211223 )  
( 2.44231e-06 -2.80304e-06 -0.000248113 )  
( 4.3076e-05 6.62976e-06 -0.00022475 )  
( 5.06935e-05 1.68959e-05 -0.000218464 )  
( 6.33345e-06 2.81796e-05 -0.000227064 )  
( 1.45272e-06 5.13609e-05 -0.000244353 )  
( -1.82931e-06 4.81641e-05 -0.00019074 )  
( 2.87472e-05 -1.84777e-05 -0.000239069 )  
)
