FoamFile
{version 2.0; format ascii;class Cloud<passiveParticle>; location 0;object  positions;}
41
(
( 0.000196944 -0.000390597 9.99356e-05 ) 0 
( 4.48915e-05 -4.16242e-05 9.9911e-05 ) 0 
( 0.000177039 -0.000191663 9.98677e-05 ) 0 
( 0.000408396 -0.000255462 9.98025e-05 ) 0 
( 4.80377e-05 -0.000417051 0.000233498 ) 0 
( 0.000384707 -0.000387219 0.000248241 ) 0 
( 0.000324134 -5.61929e-05 9.97935e-05 ) 0 
( 6.34237e-05 -0.00019296 0.000267969 ) 0 
( 0.000299013 -0.000200803 0.000257891 ) 0 
( 0.00018564 -3.67763e-05 0.000242467 ) 0 
( 0.000474183 -0.000110147 0.000220242 ) 0 
( 0.000208332 -0.000359757 0.000338315 ) 0 
( 5.05376e-05 -3.4677e-05 0.000389694 ) 0 
( 0.000407078 -0.000257854 0.000416005 ) 0 
( 0.000294204 -6.82563e-05 0.000407396 ) 0 
( 0.000284495 -0.000372577 0.000524495 ) 0 
( 0.00015094 -0.00020229 0.000447392 ) 0 
( 0.000108903 -0.000457919 0.000481235 ) 0 
( 0.000266716 -0.000192694 0.000610057 ) 0 
( 0.000141041 -4.29948e-05 0.000567795 ) 0 
( 0.000494016 -0.000332614 0.000579755 ) 0 
( 0.000434474 -0.000105629 0.000544914 ) 0 
( 4.6026e-05 -0.000300139 0.000586717 ) 0 
( 0.000165511 -0.000436648 0.000671817 ) 0 
( 0.000426815 -0.000215947 0.000727561 ) 0 
( 0.000284325 -1.75512e-05 0.000704924 ) 0 
( 0.000364195 -0.000425559 0.000700123 ) 0 
( 0.000243152 -0.000289829 0.00078319 ) 0 
( 0.000450627 -3.73225e-05 0.000814159 ) 0 
( 5.3415e-05 -0.000227542 0.000792973 ) 0 
( 0.000200674 -0.000110562 0.000860872 ) 0 
( 0.000220568 -0.000462089 0.000882113 ) 0 
( 0.000396694 -0.000288903 0.000911288 ) 0 
( 0.000357263 -8.86736e-05 0.000983328 ) 0 
( 8.1345e-05 -0.000339324 0.00095635 ) 0 
( 0.000361454 -0.000463467 0.00102402 ) 0 
( 4.15145e-05 -0.000144482 0.000977029 ) 0 
( 0.000241184 -0.000244586 0.00103016 ) 0 
( 0.000463653 -9.41566e-06 0.00113297 ) 0 
( 9.77442e-05 -0.000446329 0.00112447 ) 0 
( 0.000366683 -0.000321992 0.00116524 ) 0 
)
