FoamFile
{version 2.0; format ascii;class vectorField; location 0;object  v;}
41
(
( 0.000103583 -2.42756e-06 2.02437e-05 )  
( -6.17192e-07 -2.42227e-05 3.44843e-05 )  
( 1.47045e-05 -1.2424e-05 3.58207e-05 )  
( 2.24968e-05 -4.42141e-05 6.19811e-05 )  
( 2.14054e-05 -1.15832e-05 0.000108518 )  
( 2.11846e-05 -2.3517e-05 0.000137626 )  
( 4.13089e-06 -1.43314e-05 4.56267e-05 )  
( 5.85055e-06 -2.80808e-06 0.000136954 )  
( 2.92123e-05 -3.64752e-05 0.000108154 )  
( 2.53699e-05 -2.1036e-05 0.000132953 )  
( 1.80384e-05 -1.86298e-05 8.95926e-05 )  
( 6.23144e-06 -1.12239e-05 0.000131929 )  
( -4.05178e-06 -4.02645e-05 0.000179117 )  
( 4.67579e-06 -3.59145e-05 0.00019066 )  
( 4.34002e-05 -2.72078e-05 0.000158387 )  
( 1.51381e-05 -1.87453e-05 0.000232637 )  
( -1.69872e-05 -2.67002e-05 0.000200149 )  
( 3.26332e-05 -2.71837e-05 0.000174095 )  
( 3.11804e-06 -2.31306e-05 0.000234148 )  
( -3.32259e-06 -1.44934e-05 0.000242057 )  
( -4.2213e-07 -1.74569e-05 0.000267892 )  
( 2.17696e-05 -5.27951e-05 0.000224859 )  
( 2.79e-05 -5.89584e-05 0.000206484 )  
( -1.8673e-05 -1.69991e-05 0.00022522 )  
( -4.23132e-06 -1.40654e-05 0.000284601 )  
( 4.37666e-06 -1.80382e-05 0.000242592 )  
( -1.11047e-05 1.3569e-06 0.000263994 )  
( -3.65331e-05 -2.43779e-05 0.000263902 )  
( -3.10047e-05 1.42487e-06 0.000274672 )  
( -3.62067e-05 -3.32676e-05 0.000267694 )  
( 1.15426e-05 -2.33001e-05 0.000278123 )  
( -9.61443e-06 -1.919e-06 0.000300696 )  
( -5.54192e-05 2.86797e-07 0.000327791 )  
( 1.82737e-05 -7.0621e-05 0.000258122 )  
( -2.5068e-05 1.11833e-05 0.000279035 )  
( -4.79818e-06 2.70873e-05 0.000328827 )  
( 6.16318e-06 -1.81958e-05 0.000229501 )  
( -2.56027e-05 -1.7354e-05 0.000224303 )  
( -1.64685e-05 -9.95746e-05 0.00029753 )  
( 3.2583e-05 -3.93132e-05 0.000229113 )  
( -2.87688e-05 0.0001317 0.000253846 )  
)
