/*--------------------------------*- C++ -*----------------------------------*\
| =========                 |                                                 |
| \\      /  F ield         | OpenFOAM: The Open Source CFD Toolbox           |
|  \\    /   O peration     | Version:  5.x                                   |
|   \\  /    A nd           | Web:      www.OpenFOAM.org                      |
|    \\/     M anipulation  |                                                 |
\*---------------------------------------------------------------------------*/
FoamFile
{
    version     2.0;
    format      ascii;
    class       volVectorField;
    location    "200";
    object      U;
}
// * * * * * * * * * * * * * * * * * * * * * * * * * * * * * * * * * * * * * //

dimensions      [0 1 -1 0 0 0 0];

internalField   nonuniform List<vector> 
90
(
(1.06707e-09 -1.26565e-09 -0.001)
(2.54331e-09 -3.13379e-09 -0.001)
(4.32974e-09 -5.11479e-09 -0.001)
(6.48645e-09 -7.14627e-09 -0.000999999)
(9.16238e-09 -9.25859e-09 -0.000999998)
(1.25218e-08 -1.15013e-08 -0.000999997)
(1.67439e-08 -1.39432e-08 -0.000999995)
(2.20439e-08 -1.66727e-08 -0.000999993)
(2.86687e-08 -1.97974e-08 -0.00099999)
(3.69288e-08 -2.34406e-08 -0.000999987)
(4.72152e-08 -2.77368e-08 -0.000999983)
(6.00313e-08 -3.28239e-08 -0.000999978)
(7.60312e-08 -3.88307e-08 -0.00099997)
(9.60696e-08 -4.586e-08 -0.000999961)
(1.21266e-07 -5.39643e-08 -0.000999949)
(1.53084e-07 -6.31117e-08 -0.000999932)
(1.93438e-07 -7.31382e-08 -0.000999909)
(2.44828e-07 -8.36785e-08 -0.000999878)
(3.10517e-07 -9.40711e-08 -0.000999836)
(3.94775e-07 -1.03214e-07 -0.000999779)
(5.032e-07 -1.0937e-07 -0.000999701)
(6.43077e-07 -1.10042e-07 -0.000999596)
(8.23864e-07 -1.01785e-07 -0.000999455)
(1.05786e-06 -7.9844e-08 -0.000999265)
(1.36107e-06 -3.77198e-08 -0.000999012)
(1.75436e-06 3.37307e-08 -0.000998672)
(2.26545e-06 1.48191e-07 -0.000998211)
(2.93101e-06 3.25909e-07 -0.000997588)
(3.79936e-06 5.94938e-07 -0.000996747)
(4.93424e-06 9.94213e-07 -0.000995611)
(6.41994e-06 1.57769e-06 -0.000994079)
(8.36802e-06 2.41989e-06 -0.000992014)
(1.09265e-05 3.6236e-06 -0.000989234)
(1.4295e-05 5.33158e-06 -0.000985442)
(1.8812e-05 7.77796e-06 -0.000979767)
(2.44091e-05 1.1e-05 -0.000973115)
(3.23109e-05 1.58051e-05 -0.000983931)
(4.27633e-05 2.25245e-05 -0.00106408)
(6.06237e-05 3.4368e-05 -0.000401962)
(-1.1541e-05 -6.5971e-06 -0.00209839)
(6.07606e-06 5.60759e-06 -0.00157446)
(4.54851e-05 1.71977e-05 -0.00166926)
(6.5299e-05 4.0293e-05 -0.00282832)
(1.31061e-05 2.22532e-05 -0.00164675)
(-4.91033e-05 -2.60073e-05 -0.00267347)
(-3.93946e-05 4.56851e-06 -0.00207004)
(-3.6942e-05 9.90693e-05 -0.00248862)
(-2.22072e-05 9.12077e-05 -0.00202469)
(-2.03477e-05 5.02835e-05 -0.00261504)
(-1.53488e-05 2.98318e-06 -0.00169473)
(-4.70307e-05 -3.73331e-05 -0.00258474)
(3.72964e-05 3.92257e-05 -0.00124894)
(6.02498e-05 5.50409e-05 -0.00189806)
(-2.65547e-05 -1.31844e-05 -0.00103303)
(-2.96213e-05 -4.65053e-05 -0.000935363)
(-1.88564e-05 -3.67753e-05 -0.000950756)
(-1.29471e-05 -2.73435e-05 -0.000968852)
(-8.87332e-06 -2.02977e-05 -0.000977968)
(-6.01627e-06 -1.50692e-05 -0.000984144)
(-4.01299e-06 -1.11822e-05 -0.000988649)
(-2.61778e-06 -8.29284e-06 -0.000991926)
(-1.65468e-06 -6.1458e-06 -0.000994293)
(-9.96786e-07 -4.55067e-06 -0.000995996)
(-5.53508e-07 -3.36629e-06 -0.000997217)
(-2.60146e-07 -2.48695e-06 -0.000998094)
(-7.31238e-08 -1.83576e-06 -0.00099872)
(4.11966e-08 -1.35386e-06 -0.000999158)
(1.07371e-07 -9.97073e-07 -0.000999459)
(1.41717e-07 -7.33053e-07 -0.000999666)
(1.55494e-07 -5.378e-07 -0.000999807)
(1.5624e-07 -3.93587e-07 -0.000999901)
(1.49138e-07 -2.87228e-07 -0.000999963)
(1.37676e-07 -2.08925e-07 -0.001)
(1.24101e-07 -1.51428e-07 -0.00100003)
(1.09859e-07 -1.09352e-07 -0.00100004)
(9.58669e-08 -7.86806e-08 -0.00100005)
(8.26804e-08 -5.64195e-08 -0.00100005)
(7.06178e-08 -4.03298e-08 -0.00100005)
(5.98415e-08 -2.87387e-08 -0.00100005)
(5.04133e-08 -2.03952e-08 -0.00100005)
(4.23272e-08 -1.43707e-08 -0.00100004)
(3.55301e-08 -9.98472e-09 -0.00100004)
(2.99369e-08 -6.7446e-09 -0.00100004)
(2.54356e-08 -4.30793e-09 -0.00100003)
(2.18978e-08 -2.4447e-09 -0.00100003)
(1.91884e-08 -1.01024e-09 -0.00100002)
(1.71687e-08 6.64132e-11 -0.00100002)
(1.57009e-08 8.10293e-10 -0.00100001)
(1.46222e-08 1.21428e-09 -0.00100001)
(1.39895e-08 1.46844e-09 -0.001)
)
;

boundaryField
{
    inlet
    {
        type            zeroGradient;
    }
    outlet
    {
        type            zeroGradient;
    }
    repeat_boundary
    {
        type            slip;
    }
    procBoundary3to1
    {
        type            processor;
        value           nonuniform List<vector> 
90
(
(1.35047e-09 -1.26565e-09 -0.000999981)
(3.31651e-09 -3.13378e-09 -0.000999981)
(5.40914e-09 -5.11479e-09 -0.00099998)
(7.55985e-09 -7.14627e-09 -0.000999978)
(9.80113e-09 -9.25861e-09 -0.000999976)
(1.21845e-08 -1.15013e-08 -0.000999973)
(1.47799e-08 -1.39431e-08 -0.000999969)
(1.76766e-08 -1.66727e-08 -0.000999963)
(2.09807e-08 -1.97974e-08 -0.000999956)
(2.48127e-08 -2.34405e-08 -0.000999947)
(2.93013e-08 -2.77367e-08 -0.000999936)
(3.45741e-08 -3.28238e-08 -0.000999922)
(4.07434e-08 -3.88306e-08 -0.000999905)
(4.78867e-08 -4.58599e-08 -0.000999885)
(5.60179e-08 -5.39641e-08 -0.000999861)
(6.50488e-08 -6.31114e-08 -0.000999835)
(7.47323e-08 -7.31378e-08 -0.000999805)
(8.45835e-08 -8.36777e-08 -0.000999772)
(9.37768e-08 -9.40698e-08 -0.000999737)
(1.01e-07 -1.03212e-07 -0.000999701)
(1.04275e-07 -1.09367e-07 -0.000999666)
(1.00795e-07 -1.10036e-07 -0.000999633)
(8.67014e-08 -1.01773e-07 -0.000999605)
(5.6697e-08 -7.98214e-08 -0.000999585)
(3.61141e-09 -3.76773e-08 -0.000999581)
(-8.2877e-08 3.3811e-08 -0.000999604)
(-2.17687e-07 1.48342e-07 -0.000999678)
(-4.231e-07 3.26195e-07 -0.000999833)
(-7.29838e-07 5.95475e-07 -0.00100011)
(-1.1804e-06 9.95225e-07 -0.00100055)
(-1.83349e-06 1.57959e-06 -0.00100125)
(-2.77003e-06 2.42348e-06 -0.00100232)
(-4.10152e-06 3.63038e-06 -0.0010039)
(-5.98226e-06 5.3435e-06 -0.00100612)
(-8.62348e-06 7.75858e-06 -0.00100875)
(-1.22995e-05 1.11641e-05 -0.00101287)
(-1.73153e-05 1.59053e-05 -0.00104328)
(-2.47839e-05 2.25863e-05 -0.0011713)
(-4.17991e-05 3.40625e-05 -0.000394246)
(2.52443e-05 -7.06127e-06 -0.00253088)
(-3.50571e-06 4.9952e-06 -0.00122016)
(-6.20331e-05 2.63513e-05 -0.00295887)
(-1.66265e-05 2.96728e-05 -0.00193703)
(-7.74879e-05 3.84207e-05 -0.00317171)
(-6.91831e-05 -2.32987e-05 -0.0022727)
(-7.26672e-05 1.0749e-06 -0.00323084)
(-3.40219e-05 6.76973e-05 -0.00199108)
(-5.60769e-06 0.000147321 -0.00327837)
(4.44606e-05 5.24327e-05 -0.00239799)
(-2.41953e-05 -1.68424e-06 -0.0025592)
(8.55349e-06 -4.42372e-05 -0.00287466)
(4.43481e-05 -6.22905e-05 -0.00145399)
(3.72597e-05 2.15135e-05 -0.00243201)
(8.08157e-05 -3.76698e-05 -0.00109057)
(5.90286e-05 -4.79499e-05 -0.00106168)
(4.30063e-05 -3.66879e-05 -0.00106389)
(3.25346e-05 -2.72589e-05 -0.00105196)
(2.47399e-05 -2.02559e-05 -0.00103944)
(1.8843e-05 -1.50469e-05 -0.00102983)
(1.43747e-05 -1.11701e-05 -0.00102262)
(1.09852e-05 -8.28629e-06 -0.00101718)
(8.41039e-06 -6.14225e-06 -0.00101306)
(6.45131e-06 -4.54884e-06 -0.00100993)
(4.95815e-06 -3.36511e-06 -0.00100756)
(3.81805e-06 -2.48636e-06 -0.00100576)
(2.94588e-06 -1.83545e-06 -0.0010044)
(2.27742e-06 -1.35369e-06 -0.00100336)
(1.76412e-06 -9.96979e-07 -0.00100257)
(1.36922e-06 -7.33002e-07 -0.00100197)
(1.06483e-06 -5.37772e-07 -0.00100151)
(8.29753e-07 -3.93571e-07 -0.00100116)
(6.47876e-07 -2.87219e-07 -0.00100089)
(5.06909e-07 -2.0892e-07 -0.00100068)
(3.97469e-07 -1.51425e-07 -0.00100052)
(3.12375e-07 -1.0935e-07 -0.0010004)
(2.46111e-07 -7.86797e-08 -0.00100031)
(1.94431e-07 -5.6419e-08 -0.00100024)
(1.54055e-07 -4.03295e-08 -0.00100019)
(1.22445e-07 -2.87385e-08 -0.00100015)
(9.7634e-08 -2.03951e-08 -0.00100012)
(7.81004e-08 -1.43706e-08 -0.00100009)
(6.26731e-08 -9.98469e-09 -0.00100008)
(5.04555e-08 -6.74467e-09 -0.00100006)
(4.07703e-08 -4.30822e-09 -0.00100005)
(3.31139e-08 -2.44429e-09 -0.00100004)
(2.71163e-08 -1.01018e-09 -0.00100004)
(2.25203e-08 6.61285e-11 -0.00100003)
(1.91317e-08 8.09714e-10 -0.00100002)
(1.67447e-08 1.21493e-09 -0.00100001)
(1.5487e-08 1.4686e-09 -0.001)
)
;
    }
    procBoundary3to2
    {
        type            processor;
        value           nonuniform List<vector> 
90
(
(1.06751e-09 -9.82627e-10 -0.00100002)
(2.54416e-09 -2.36132e-09 -0.00100002)
(4.32843e-09 -4.03424e-09 -0.00100002)
(6.4863e-09 -6.07274e-09 -0.00100002)
(9.16212e-09 -8.61959e-09 -0.00100003)
(1.25209e-08 -1.18378e-08 -0.00100003)
(1.6745e-08 -1.59082e-08 -0.00100004)
(2.2044e-08 -2.10401e-08 -0.00100005)
(2.86688e-08 -2.74854e-08 -0.00100007)
(3.69288e-08 -3.55566e-08 -0.00100008)
(4.72154e-08 -4.56508e-08 -0.0010001)
(6.00315e-08 -5.82813e-08 -0.00100012)
(7.60315e-08 -7.41187e-08 -0.00100015)
(9.60702e-08 -9.40434e-08 -0.00100019)
(1.21267e-07 -1.19213e-07 -0.00100024)
(1.53085e-07 -1.51148e-07 -0.0010003)
(1.93441e-07 -1.91846e-07 -0.00100037)
(2.44832e-07 -2.43926e-07 -0.00100047)
(3.10524e-07 -3.10817e-07 -0.00100059)
(3.94787e-07 -3.96998e-07 -0.00100075)
(5.03219e-07 -5.08309e-07 -0.00100095)
(6.4311e-07 -6.52348e-07 -0.00100121)
(8.23918e-07 -8.38986e-07 -0.00100154)
(1.05795e-06 -1.08107e-06 -0.00100197)
(1.36123e-06 -1.39528e-06 -0.00100252)
(1.75463e-06 -1.80368e-06 -0.00100323)
(2.26591e-06 -2.33523e-06 -0.00100414)
(2.93181e-06 -3.02869e-06 -0.00100532)
(3.80075e-06 -3.93507e-06 -0.00100684)
(4.93667e-06 -5.1218e-06 -0.00100882)
(6.42424e-06 -6.67806e-06 -0.00101139)
(8.37564e-06 -8.72208e-06 -0.00101474)
(1.09401e-05 -1.1411e-05 -0.00101912)
(1.43172e-05 -1.49557e-05 -0.00102475)
(1.87727e-05 -1.96375e-05 -0.00103142)
(2.46787e-05 -2.58152e-05 -0.00104011)
(3.25519e-05 -3.39628e-05 -0.0010791)
(4.27661e-05 -4.49842e-05 -0.00123417)
(5.94946e-05 -6.72626e-05 -0.000380874)
(-1.24119e-05 2.96987e-05 -0.00272287)
(5.23652e-06 -5.28184e-06 -0.00132783)
(6.83372e-05 -0.000103254 -0.00292895)
(6.03436e-05 -4.72999e-05 -0.00233707)
(1.86187e-05 -6.22001e-05 -0.00315094)
(-4.40655e-05 -5.0746e-05 -0.00218825)
(-6.70062e-05 -2.26459e-05 -0.00318641)
(-3.39665e-05 6.61671e-05 -0.00227293)
(-5.41769e-05 0.000183386 -0.00329223)
(-1.2845e-05 8.59731e-05 -0.00188404)
(-6.80459e-05 2.80154e-05 -0.00312354)
(-9.3891e-05 -6.38977e-06 -0.0023329)
(4.26971e-05 9.85248e-05 -0.00185483)
(-2.6462e-05 4.21464e-05 -0.00212204)
(-4.17729e-05 2.86662e-05 -0.00138153)
(-2.90834e-05 3.14843e-05 -0.000980606)
(-1.89465e-05 2.48688e-05 -0.00101481)
(-1.29002e-05 1.81686e-05 -0.00101765)
(-8.85019e-06 1.33359e-05 -0.00101266)
(-6.00447e-06 9.80179e-06 -0.00100853)
(-4.00688e-06 7.21231e-06 -0.0010057)
(-2.6146e-06 5.31404e-06 -0.00100376)
(-1.65304e-06 3.92151e-06 -0.00100242)
(-9.95995e-07 2.89869e-06 -0.00100152)
(-5.52963e-07 2.14614e-06 -0.00100091)
(-2.59896e-07 1.59168e-06 -0.0010005)
(-7.29916e-08 1.18349e-06 -0.00100023)
(4.12692e-08 8.82505e-07 -0.00100006)
(1.07412e-07 6.59755e-07 -0.000999959)
(1.4174e-07 4.94492e-07 -0.000999904)
(1.55508e-07 3.71558e-07 -0.000999876)
(1.56248e-07 2.7994e-07 -0.000999867)
(1.49143e-07 2.11517e-07 -0.000999867)
(1.37679e-07 1.60312e-07 -0.000999875)
(1.24103e-07 1.21942e-07 -0.000999885)
(1.09861e-07 9.3165e-08 -0.000999897)
(9.58678e-08 7.15638e-08 -0.00099991)
(8.2681e-08 5.53313e-08 -0.000999923)
(7.06182e-08 4.31075e-08 -0.000999935)
(5.98418e-08 3.38649e-08 -0.000999947)
(5.04135e-08 2.68255e-08 -0.000999958)
(4.23274e-08 2.14025e-08 -0.000999968)
(3.55301e-08 1.71583e-08 -0.000999977)
(2.99367e-08 1.37739e-08 -0.000999985)
(2.54351e-08 1.10264e-08 -0.000999991)
(2.18986e-08 8.772e-09 -0.000999996)
(1.91885e-08 6.91778e-09 -0.001)
(1.71686e-08 5.41803e-09 -0.001)
(1.57014e-08 4.24075e-09 -0.001)
(1.46217e-08 3.33712e-09 -0.001)
(1.39896e-08 2.96585e-09 -0.001)
)
;
    }
}


// ************************************************************************* //
