# Probe 0 (0 0 0.05)
# Probe 1 (0 0 -0.04)
#       Probe             0             1
#        Time
         0.01    0.00991468   5.15654e-10
         0.02    0.00635903  -2.48656e-10
         0.03    0.00699377  -2.16119e-10
         0.04    0.00634447  -4.42232e-10
         0.05    0.00617574   5.29432e-10
         0.06    0.00617227  -1.63077e-10
         0.07    0.00565904   3.92804e-11
         0.08    0.00661296   -1.0823e-10
         0.09    0.00750724   1.02666e-09
          0.1    0.00918995  -3.29622e-09
