/*--------------------------------*- C++ -*----------------------------------*\
| =========                 |                                                 |
| \\      /  F ield         | OpenFOAM: The Open Source CFD Toolbox           |
|  \\    /   O peration     | Version:  5.x                                   |
|   \\  /    A nd           | Web:      www.OpenFOAM.org                      |
|    \\/     M anipulation  |                                                 |
\*---------------------------------------------------------------------------*/
FoamFile
{
    version     2.0;
    format      ascii;
    class       volVectorField;
    location    "500";
    object      U;
}
// * * * * * * * * * * * * * * * * * * * * * * * * * * * * * * * * * * * * * //

dimensions      [0 1 -1 0 0 0 0];

internalField   nonuniform List<vector> 
90
(
(0.0686255 -0.0667867 -5.19272)
(0.0724172 -0.0699118 -5.19075)
(0.0783288 -0.0742505 -5.19773)
(0.0835357 -0.0777624 -5.19935)
(0.0891335 -0.08115 -5.20295)
(0.0946055 -0.084054 -5.20521)
(0.100192 -0.0866343 -5.20759)
(0.105724 -0.0888322 -5.20939)
(0.111207 -0.0906703 -5.21075)
(0.116485 -0.0921849 -5.2115)
(0.121479 -0.0935389 -5.21168)
(0.126172 -0.0948515 -5.21166)
(0.131382 -0.0963219 -5.21013)
(0.136174 -0.0975391 -5.20941)
(0.141135 -0.098727 -5.20608)
(0.145891 -0.0994939 -5.20405)
(0.150799 -0.100114 -5.19993)
(0.155689 -0.100622 -5.19556)
(0.160677 -0.100983 -5.18998)
(0.16577 -0.101222 -5.18344)
(0.171014 -0.101312 -5.1757)
(0.176443 -0.101229 -5.16667)
(0.182093 -0.100926 -5.15619)
(0.18799 -0.100353 -5.14411)
(0.194159 -0.0994445 -5.13025)
(0.200611 -0.0981309 -5.11443)
(0.207353 -0.0963383 -5.09645)
(0.214377 -0.0939932 -5.07614)
(0.221671 -0.0910256 -5.05332)
(0.229208 -0.0873729 -5.02781)
(0.236954 -0.0829843 -4.99949)
(0.244868 -0.077824 -4.96822)
(0.2529 -0.0718754 -4.93394)
(0.260998 -0.0651439 -4.89659)
(0.269103 -0.0576603 -4.85619)
(0.277155 -0.0494825 -4.81278)
(0.285093 -0.0406978 -4.76646)
(0.29285 -0.031424 -4.71737)
(0.300357 -0.0218065 -4.66569)
(0.307544 -0.0120155 -4.61168)
(0.314335 -0.00225079 -4.55566)
(0.320643 0.00725165 -4.49798)
(0.326374 0.016236 -4.43882)
(0.331514 0.0244992 -4.37882)
(0.336086 0.0319551 -4.31848)
(0.340126 0.0386085 -4.2582)
(0.343665 0.0445087 -4.19836)
(0.346724 0.049717 -4.13931)
(0.349309 0.0542939 -4.08136)
(0.351423 0.0582943 -4.02477)
(0.35306 0.0617639 -3.96979)
(0.354213 0.0647384 -3.91661)
(0.354877 0.067244 -3.86543)
(0.355049 0.0693002 -3.81637)
(0.354734 0.0709217 -3.76962)
(0.353949 0.0721255 -3.7253)
(0.352727 0.0729326 -3.68352)
(0.351105 0.0733684 -3.64438)
(0.349132 0.0734653 -3.60798)
(0.346867 0.0732645 -3.57438)
(0.344375 0.0728183 -3.54362)
(0.341734 0.0721903 -3.51573)
(0.33903 0.0714583 -3.49071)
(0.336361 0.0707105 -3.4685)
(0.333833 0.0700465 -3.44906)
(0.331561 0.0695776 -3.4323)
(0.329666 0.0694212 -3.41808)
(0.328283 0.0697062 -3.40615)
(0.327563 0.0705672 -3.39623)
(0.327694 0.0721428 -3.38836)
(0.328863 0.0745662 -3.38264)
(0.331109 0.0779106 -3.37756)
(0.334088 0.0820292 -3.37349)
(0.337648 0.0868574 -3.3701)
(0.341674 0.0923531 -3.36726)
(0.346079 0.0984917 -3.36486)
(0.350816 0.105267 -3.36279)
(0.355842 0.112684 -3.36097)
(0.361128 0.12076 -3.35934)
(0.36665 0.129521 -3.35783)
(0.372379 0.139001 -3.3564)
(0.378277 0.149246 -3.35501)
(0.384284 0.160303 -3.35363)
(0.39033 0.172231 -3.35218)
(0.396362 0.185083 -3.35051)
(0.402362 0.198684 -3.34869)
(0.407903 0.21359 -3.34743)
(0.411832 0.229751 -3.34798)
(0.413973 0.247267 -3.34819)
(0.416766 0.258642 -3.3388)
)
;

boundaryField
{
    inlet
    {
        type            zeroGradient;
    }
    outlet
    {
        type            zeroGradient;
    }
    repeat_boundary
    {
        type            slip;
    }
    procBoundary3to1
    {
        type            processor;
        value           nonuniform List<vector> 
90
(
(0.0264766 -0.126249 -4.6102)
(0.0275052 -0.132919 -4.57634)
(0.0311191 -0.140266 -4.55131)
(0.0335833 -0.146682 -4.52086)
(0.0363764 -0.152898 -4.49114)
(0.0388783 -0.158472 -4.4591)
(0.0413382 -0.163571 -4.42631)
(0.0436618 -0.168103 -4.3922)
(0.0459057 -0.172099 -4.35719)
(0.0480655 -0.17559 -4.32125)
(0.0501656 -0.178598 -4.28452)
(0.0522439 -0.181195 -4.24703)
(0.0543647 -0.183502 -4.20882)
(0.0565431 -0.185363 -4.16992)
(0.0588287 -0.186746 -4.13032)
(0.0612656 -0.18754 -4.09013)
(0.0639061 -0.187667 -4.04931)
(0.0667841 -0.187207 -4.00794)
(0.0699389 -0.18611 -3.96599)
(0.073399 -0.184382 -3.9235)
(0.0771879 -0.182001 -3.88043)
(0.0813212 -0.178951 -3.83682)
(0.0858069 -0.175208 -3.79265)
(0.0906452 -0.17075 -3.74794)
(0.0958279 -0.165551 -3.70272)
(0.10134 -0.159591 -3.65704)
(0.107159 -0.15285 -3.61094)
(0.113256 -0.145318 -3.56452)
(0.119599 -0.136993 -3.51786)
(0.12615 -0.127882 -3.47108)
(0.13287 -0.11801 -3.42432)
(0.13972 -0.107418 -3.37773)
(0.146659 -0.0961653 -3.33148)
(0.153648 -0.0843311 -3.28573)
(0.160654 -0.0720168 -3.24067)
(0.167643 -0.0593454 -3.19645)
(0.174588 -0.0464614 -3.15326)
(0.181466 -0.0335304 -3.11123)
(0.18826 -0.0207353 -3.07051)
(0.19496 -0.00827393 -3.03117)
(0.201565 0.0036368 -2.99321)
(0.208095 0.0147578 -2.95667)
(0.214579 0.0248468 -2.92182)
(0.220933 0.0337618 -2.88824)
(0.227044 0.0415047 -2.85576)
(0.232807 0.0481433 -2.82433)
(0.238142 0.0537512 -2.79386)
(0.242987 0.0583914 -2.76427)
(0.247304 0.0621178 -2.73551)
(0.251067 0.0649765 -2.70753)
(0.25427 0.0670069 -2.6803)
(0.25692 0.0682426 -2.65379)
(0.259035 0.0687118 -2.62798)
(0.260646 0.0684387 -2.60282)
(0.261788 0.0674469 -2.57827)
(0.262506 0.065761 -2.55428)
(0.262847 0.0634065 -2.53079)
(0.262858 0.0604102 -2.50773)
(0.262588 0.0568027 -2.48502)
(0.262084 0.0526205 -2.46258)
(0.261391 0.0479074 -2.44032)
(0.260549 0.042717 -2.41816)
(0.259593 0.0371141 -2.39599)
(0.258554 0.0311712 -2.37375)
(0.257466 0.0249782 -2.35138)
(0.256345 0.01864 -2.32884)
(0.255194 0.0122745 -2.3061)
(0.254017 0.00601516 -2.28296)
(0.25276 -6.72212e-06 -2.2597)
(0.251428 -0.00563787 -2.2363)
(0.250019 -0.0107805 -2.21289)
(0.248509 -0.0155206 -2.18958)
(0.246872 -0.0200202 -2.16651)
(0.245086 -0.0243911 -2.14377)
(0.243128 -0.0287293 -2.12145)
(0.240979 -0.0331143 -2.0996)
(0.238622 -0.0376134 -2.07829)
(0.236041 -0.0422861 -2.05756)
(0.233224 -0.0471861 -2.03748)
(0.230162 -0.0523635 -2.01807)
(0.226853 -0.0578663 -1.99938)
(0.223297 -0.0637387 -1.98147)
(0.21951 -0.0700258 -1.96438)
(0.215504 -0.0767787 -1.94797)
(0.211294 -0.0840714 -1.93224)
(0.206959 -0.0921992 -1.91747)
(0.202422 -0.101058 -1.90501)
(0.198104 -0.110606 -1.89625)
(0.193821 -0.120776 -1.88524)
(0.189904 -0.128696 -1.85784)
)
;
    }
    procBoundary3to2
    {
        type            processor;
        value           nonuniform List<vector> 
90
(
(0.0944252 -0.0278906 -5.41488)
(0.0998949 -0.0288559 -5.43862)
(0.106915 -0.031044 -5.48404)
(0.112942 -0.0317277 -5.51621)
(0.119336 -0.0323177 -5.55719)
(0.125393 -0.0320843 -5.59643)
(0.131502 -0.0314511 -5.63955)
(0.137452 -0.030227 -5.6834)
(0.143375 -0.0285659 -5.72958)
(0.14912 -0.0264209 -5.77703)
(0.154699 -0.0238763 -5.82619)
(0.159997 -0.0209467 -5.8766)
(0.164899 -0.017686 -5.92837)
(0.169586 -0.0141367 -5.98131)
(0.174115 -0.0103774 -6.03534)
(0.178597 -0.00648124 -6.0904)
(0.183149 -0.00253136 -6.14638)
(0.187743 0.00137277 -6.20327)
(0.192494 0.0051311 -6.26103)
(0.197457 0.008633 -6.31963)
(0.202717 0.0117707 -6.37908)
(0.208341 0.0144368 -6.4394)
(0.214386 0.0165298 -6.50063)
(0.220881 0.0179563 -6.56282)
(0.227826 0.0186345 -6.62604)
(0.235179 0.0184964 -6.69037)
(0.242853 0.0174899 -6.75589)
(0.250714 0.0155796 -6.82266)
(0.258575 0.0127475 -6.89075)
(0.266209 0.00899172 -6.9602)
(0.273349 0.00432539 -7.03104)
(0.279699 -0.00122569 -7.10326)
(0.284952 -0.00762564 -7.17683)
(0.288799 -0.0148313 -7.25169)
(0.290946 -0.0227953 -7.32773)
(0.291129 -0.0314687 -7.40484)
(0.289125 -0.0408025 -7.48287)
(0.284762 -0.050749 -7.56164)
(0.277925 -0.0612612 -7.64099)
(0.268562 -0.0722917 -7.72072)
(0.256679 -0.0837918 -7.80063)
(0.242333 -0.0957077 -7.88052)
(0.22563 -0.107976 -7.96021)
(0.206728 -0.120517 -8.0395)
(0.185853 -0.133231 -8.11821)
(0.163279 -0.145999 -8.19619)
(0.139309 -0.158683 -8.27328)
(0.114252 -0.171138 -8.34936)
(0.0884076 -0.183213 -8.42432)
(0.0620556 -0.194768 -8.49805)
(0.0354464 -0.205678 -8.57046)
(0.00879568 -0.215842 -8.64143)
(-0.0177163 -0.225187 -8.71087)
(-0.0439423 -0.233674 -8.77869)
(-0.0697586 -0.241295 -8.8448)
(-0.095059 -0.248074 -8.90911)
(-0.11975 -0.254062 -8.97155)
(-0.143745 -0.259329 -9.03205)
(-0.166961 -0.263958 -9.09057)
(-0.189316 -0.268041 -9.1471)
(-0.210728 -0.271673 -9.20165)
(-0.231115 -0.27495 -9.25423)
(-0.250405 -0.277964 -9.30492)
(-0.268534 -0.280803 -9.35379)
(-0.285459 -0.283548 -9.40095)
(-0.301158 -0.286272 -9.44653)
(-0.315642 -0.289039 -9.49067)
(-0.328944 -0.2919 -9.53359)
(-0.341114 -0.294903 -9.5755)
(-0.352215 -0.298087 -9.61652)
(-0.362411 -0.301477 -9.65663)
(-0.372124 -0.305055 -9.69671)
(-0.381576 -0.308678 -9.73656)
(-0.390862 -0.312293 -9.7763)
(-0.400078 -0.315878 -9.81605)
(-0.409288 -0.319406 -9.85576)
(-0.41853 -0.322863 -9.89549)
(-0.427838 -0.326242 -9.9352)
(-0.437237 -0.329532 -9.9749)
(-0.446748 -0.332725 -10.0146)
(-0.456392 -0.33581 -10.0541)
(-0.466195 -0.338768 -10.0935)
(-0.476188 -0.341573 -10.1328)
(-0.486402 -0.344199 -10.1718)
(-0.496862 -0.346639 -10.2108)
(-0.507579 -0.348902 -10.2489)
(-0.518744 -0.350742 -10.2848)
(-0.530749 -0.351637 -10.3196)
(-0.54354 -0.351866 -10.3636)
(-0.550085 -0.353017 -10.3962)
)
;
    }
}


// ************************************************************************* //
