FoamFile
{version 2.0; format ascii;class vectorField; location 0;object  v;}
344
(
( 5.09662e-06 2.98194e-06 6.9832e-07 )  
( 3.31181e-06 1.94304e-06 -2.60189e-07 )  
( 3.84732e-06 2.8043e-06 2.20045e-07 )  
( 5.2277e-06 2.83814e-06 1.32676e-07 )  
( 7.01102e-07 2.94436e-06 2.3036e-08 )  
( 3.89257e-06 4.83687e-07 -1.79957e-06 )  
( 3.36913e-06 2.41405e-06 -4.87756e-07 )  
( 4.81572e-06 3.19721e-06 -4.61342e-07 )  
( 8.64482e-07 6.63367e-06 -9.89222e-07 )  
( 3.00835e-06 1.35045e-06 -5.04876e-07 )  
( 4.30871e-06 5.74833e-06 7.78832e-07 )  
( 3.81667e-06 1.77931e-06 1.93787e-07 )  
( 3.99681e-06 3.4612e-06 -4.67014e-07 )  
( 3.41237e-06 1.34847e-06 1.07839e-06 )  
( 8.23852e-06 6.23443e-06 -8.03446e-07 )  
( 3.47639e-06 2.09759e-06 9.22863e-07 )  
( 3.60558e-06 1.32269e-06 -1.02656e-07 )  
( 1.06258e-05 3.37403e-06 1.99907e-07 )  
( -1.28551e-06 3.62651e-06 9.08869e-13 )  
( 6.29296e-06 4.35741e-06 1.4657e-06 )  
( 4.7845e-06 1.68605e-06 -4.86424e-07 )  
( 6.26253e-06 2.96319e-06 1.10484e-06 )  
( 1.11743e-05 8.4349e-06 -8.54943e-07 )  
( 5.3117e-06 2.57042e-06 3.25778e-07 )  
( 3.57046e-06 8.91836e-07 9.86096e-07 )  
( 9.17743e-06 5.75094e-06 -7.28667e-08 )  
( 6.12962e-06 5.21227e-06 1.50945e-06 )  
( 7.08739e-06 3.52749e-06 5.28398e-07 )  
( 9.72856e-06 6.35929e-06 5.29403e-07 )  
( 9.74606e-06 3.46989e-06 -1.28459e-07 )  
( 9.49398e-06 6.40094e-06 -2.23427e-06 )  
( 2.83711e-06 1.7651e-06 -3.72424e-07 )  
( 4.60104e-06 2.45028e-06 1.17545e-06 )  
( 1.06475e-05 6.35758e-06 1.27199e-06 )  
( 8.00696e-06 5.1868e-06 1.34463e-06 )  
( 5.87963e-06 4.15803e-06 -4.53954e-07 )  
( 6.87809e-06 4.30986e-06 8.97154e-07 )  
( 7.97696e-06 3.69907e-06 -1.09393e-06 )  
( 9.40964e-06 6.10831e-06 2.52748e-06 )  
( 7.99554e-06 2.77809e-06 7.29154e-08 )  
( 9.96509e-06 3.57804e-06 8.49708e-07 )  
( 9.2492e-06 5.87958e-06 2.36233e-06 )  
( 9.62025e-06 5.77597e-06 3.52834e-07 )  
( 9.35729e-06 5.22973e-06 -1.39642e-06 )  
( 1.12697e-05 6.01113e-06 -7.17179e-07 )  
( 1.25806e-05 6.00344e-06 1.32422e-06 )  
( 1.27433e-05 7.20784e-06 -8.75643e-07 )  
( 1.13227e-05 6.55817e-06 7.30121e-07 )  
( 8.88984e-06 5.22074e-06 -2.87055e-06 )  
( 1.04252e-05 7.99791e-06 1.79431e-06 )  
( 1.10692e-05 6.92889e-06 -1.76513e-06 )  
( 1.19633e-05 6.03748e-06 5.85884e-06 )  
( 7.82205e-06 4.91288e-06 -5.43414e-07 )  
( 9.75744e-06 7.60764e-06 2.98703e-06 )  
( 1.1025e-05 6.725e-06 -1.8566e-06 )  
( 1.07725e-05 5.9684e-06 -7.80573e-07 )  
( 1.13949e-05 5.27027e-06 1.81607e-08 )  
( 1.29166e-05 7.37675e-06 3.38474e-06 )  
( 1.88881e-05 9.30498e-06 1.14709e-06 )  
( 1.03854e-05 7.05942e-06 -3.52613e-07 )  
( 9.42267e-06 7.5686e-06 -2.77244e-06 )  
( 1.35401e-05 1.0025e-05 4.72967e-07 )  
( 1.17593e-05 7.8038e-06 4.12118e-06 )  
( 1.10086e-05 7.75668e-06 -5.96848e-07 )  
( 1.05385e-05 5.90189e-06 2.12e-06 )  
( 8.67212e-06 4.91139e-06 1.4574e-06 )  
( 1.38579e-05 7.36087e-06 1.26069e-06 )  
( 1.19594e-05 8.30821e-06 1.2931e-06 )  
( 1.52393e-05 8.96475e-06 -9.9682e-07 )  
( 1.02341e-05 7.38592e-06 -1.21555e-07 )  
( 1.78767e-05 8.34715e-06 1.00063e-06 )  
( 1.6705e-05 1.06876e-05 -6.53766e-07 )  
( 1.16327e-05 7.67845e-06 4.1255e-06 )  
( 1.88562e-05 1.03932e-05 -2.66168e-07 )  
( 1.86595e-05 9.66337e-06 2.04824e-06 )  
( 1.59154e-05 9.82022e-06 -6.2212e-07 )  
( 2.04491e-05 1.26863e-05 3.7983e-06 )  
( 8.00321e-06 5.90545e-06 -2.1842e-06 )  
( 1.52717e-05 9.08071e-06 6.83154e-07 )  
( 1.29898e-05 7.0481e-06 1.37806e-06 )  
( 1.39686e-05 7.23238e-06 3.38582e-06 )  
( 1.20581e-05 1.07963e-05 -3.06702e-06 )  
( 1.17158e-05 6.49514e-06 2.43211e-06 )  
( 2.04961e-05 1.04772e-05 1.67e-06 )  
( 1.89466e-05 1.18265e-05 3.84837e-06 )  
( 1.60295e-05 8.07058e-06 -2.17377e-06 )  
( 1.56604e-05 1.12776e-05 8.43654e-07 )  
( 1.77316e-05 9.78075e-06 -1.99927e-06 )  
( 1.72061e-05 1.04013e-05 3.17317e-06 )  
( 9.06029e-06 6.36436e-06 6.7747e-07 )  
( 1.91261e-05 1.05736e-05 -3.0915e-06 )  
( 1.76016e-05 1.00899e-05 -6.20744e-06 )  
( 1.85238e-05 1.09724e-05 -3.06291e-07 )  
( 1.62703e-05 9.9261e-06 -1.91792e-07 )  
( 2.0317e-05 1.11851e-05 -3.12528e-06 )  
( 1.70364e-05 9.71154e-06 9.31933e-07 )  
( 1.66647e-05 1.29029e-05 -4.82353e-06 )  
( 2.07101e-05 1.10056e-05 4.99524e-07 )  
( 2.1313e-05 1.14068e-05 1.84852e-06 )  
( 2.0056e-05 9.5663e-06 -3.91449e-06 )  
( 2.22507e-05 1.252e-05 -5.69905e-09 )  
( 2.09659e-05 1.08353e-05 -3.47932e-06 )  
( 2.02157e-05 9.76282e-06 3.69601e-06 )  
( 2.0405e-05 1.21541e-05 6.58959e-07 )  
( 2.30768e-05 1.2831e-05 -5.18634e-07 )  
( 2.095e-05 1.21241e-05 4.83415e-07 )  
( 2.23874e-05 1.26355e-05 4.90527e-07 )  
( 2.15384e-05 1.31498e-05 3.1753e-07 )  
( 2.60232e-05 1.55521e-05 4.03093e-06 )  
( 2.30362e-05 1.1037e-05 -4.42164e-06 )  
( 2.37035e-05 1.22087e-05 -1.24693e-07 )  
( 2.12864e-05 1.2701e-05 1.77384e-06 )  
( 2.13021e-05 1.31105e-05 9.93407e-07 )  
( 2.13841e-05 1.15639e-05 4.7662e-07 )  
( 2.17816e-05 1.25976e-05 -2.78438e-07 )  
( 2.37195e-05 1.31367e-05 5.72148e-06 )  
( 3.28737e-05 1.31984e-05 -4.84661e-06 )  
( 2.13184e-05 1.13884e-05 -9.1538e-07 )  
( 2.23762e-05 1.46013e-05 -7.58701e-07 )  
( 2.60775e-05 1.56606e-05 1.58068e-06 )  
( 2.158e-05 1.29222e-05 -3.83123e-07 )  
( 2.48363e-05 1.5353e-05 -1.56986e-06 )  
( 2.66356e-05 1.08381e-05 5.68132e-06 )  
( 2.31075e-05 1.19754e-05 -3.80741e-06 )  
( 2.57861e-05 1.49501e-05 2.11125e-06 )  
( 2.45973e-05 1.26202e-05 -1.92838e-06 )  
( 2.23809e-05 1.37151e-05 -2.90973e-07 )  
( 2.4246e-05 1.25585e-05 -2.28158e-06 )  
( 2.98523e-05 1.67104e-05 1.30839e-06 )  
( 2.45965e-05 1.30639e-05 -9.62843e-07 )  
( 2.63361e-05 1.50506e-05 -2.54972e-06 )  
( 2.82905e-05 1.77078e-05 -3.19771e-06 )  
( 2.7389e-05 1.21872e-05 1.62245e-06 )  
( 2.37423e-05 1.62645e-05 -3.00404e-06 )  
( 2.56845e-05 1.48043e-05 6.8183e-07 )  
( 2.67452e-05 1.59946e-05 1.42623e-06 )  
( 2.98454e-05 1.6006e-05 -2.85579e-07 )  
( 2.36494e-05 1.34309e-05 -2.57884e-06 )  
( 2.67749e-05 1.63446e-05 1.59608e-06 )  
( 2.44296e-05 1.57268e-05 -2.30395e-06 )  
( 2.59799e-05 1.51856e-05 2.52154e-06 )  
( 2.98739e-05 1.57671e-05 2.04132e-06 )  
( 2.62406e-05 1.68924e-05 1.46117e-06 )  
( 2.75198e-05 1.4803e-05 -1.13752e-06 )  
( 3.08058e-05 1.82189e-05 4.1999e-06 )  
( 3.25959e-05 1.74847e-05 -2.47966e-07 )  
( 3.02778e-05 1.77941e-05 -2.53027e-06 )  
( 2.89955e-05 1.71373e-05 3.84142e-07 )  
( 3.21626e-05 1.82385e-05 1.25172e-06 )  
( 2.94599e-05 1.4804e-05 -3.29176e-06 )  
( 3.13254e-05 1.5812e-05 -3.36817e-08 )  
( 3.06379e-05 1.44137e-05 1.49035e-07 )  
( 2.56543e-05 1.6945e-05 -2.37718e-06 )  
( 2.93391e-05 1.71656e-05 1.31394e-06 )  
( 2.80698e-05 1.51309e-05 -1.88584e-06 )  
( 3.26271e-05 1.89832e-05 2.3011e-06 )  
( 3.98351e-05 2.36542e-05 2.15148e-06 )  
( 3.13552e-05 1.70534e-05 -4.15869e-07 )  
( 3.05995e-05 1.81355e-05 2.73801e-06 )  
( 3.10206e-05 1.74401e-05 2.28557e-06 )  
( 3.19679e-05 1.70178e-05 2.32684e-06 )  
( 3.1313e-05 1.61475e-05 -4.28103e-06 )  
( 2.81426e-05 1.60599e-05 -2.67693e-06 )  
( 3.7774e-05 2.1787e-05 -3.27319e-06 )  
( 3.09188e-05 1.64999e-05 -1.95795e-07 )  
( 3.38546e-05 1.82205e-05 8.11697e-07 )  
( 2.92097e-05 2.15956e-05 3.58275e-09 )  
( 3.76997e-05 1.96314e-05 5.63258e-06 )  
( 3.11911e-05 1.57902e-05 3.23646e-06 )  
( 3.22139e-05 1.76987e-05 -2.03044e-06 )  
( 3.39108e-05 1.9908e-05 -3.09064e-06 )  
( 3.59191e-05 2.05785e-05 3.31811e-06 )  
( 3.44555e-05 2.05566e-05 2.19081e-06 )  
( 2.91305e-05 1.85241e-05 -1.54818e-06 )  
( 3.6868e-05 2.01002e-05 3.14352e-06 )  
( 3.4709e-05 2.15755e-05 2.67378e-06 )  
( 3.71363e-05 1.94007e-05 2.01464e-07 )  
( 3.46989e-05 1.96777e-05 2.35416e-06 )  
( 3.65313e-05 2.03746e-05 1.88705e-06 )  
( 3.78246e-05 1.90367e-05 -2.17961e-06 )  
( 4.2839e-05 2.37506e-05 4.37005e-06 )  
( 3.84822e-05 2.35908e-05 2.86336e-06 )  
( 3.39271e-05 2.24919e-05 3.65358e-07 )  
( 3.63071e-05 2.09433e-05 4.03184e-06 )  
( 3.78109e-05 2.0917e-05 -7.31523e-07 )  
( 3.71672e-05 2.32755e-05 -2.95271e-06 )  
( 4.19423e-05 2.0737e-05 5.87111e-06 )  
( 3.92134e-05 2.2836e-05 1.46757e-06 )  
( 3.78239e-05 1.88267e-05 4.0627e-06 )  
( 3.60781e-05 2.05309e-05 1.16909e-07 )  
( 4.15277e-05 2.35688e-05 1.34339e-06 )  
( 3.35946e-05 2.05105e-05 2.28197e-06 )  
( 4.16439e-05 2.26807e-05 1.19016e-08 )  
( 3.71123e-05 2.10163e-05 -3.78644e-06 )  
( 3.87804e-05 2.40356e-05 -4.52076e-07 )  
( 3.65698e-05 2.13753e-05 8.29172e-07 )  
( 4.00443e-05 2.53759e-05 1.46199e-06 )  
( 3.68201e-05 1.97198e-05 3.11037e-06 )  
( 4.08176e-05 2.44024e-05 3.90025e-07 )  
( 4.12169e-05 2.45088e-05 8.69725e-07 )  
( 4.56109e-05 2.51994e-05 -1.13313e-06 )  
( 3.69995e-05 2.0807e-05 1.2162e-06 )  
( 4.06202e-05 2.14473e-05 6.15316e-07 )  
( 4.51512e-05 2.45751e-05 6.8295e-07 )  
( 3.81961e-05 2.10067e-05 -2.41807e-06 )  
( 3.90325e-05 2.23951e-05 3.32058e-06 )  
( 3.78197e-05 1.78518e-05 1.43398e-06 )  
( 3.75139e-05 2.14654e-05 3.33923e-06 )  
( 3.75538e-05 2.09763e-05 3.19663e-06 )  
( 4.50124e-05 2.31458e-05 1.53573e-06 )  
( 4.39855e-05 2.40674e-05 8.01414e-07 )  
( 4.05813e-05 2.50015e-05 -2.31165e-07 )  
( 4.02004e-05 2.21493e-05 -2.01232e-06 )  
( 4.01153e-05 2.15211e-05 7.12285e-08 )  
( 4.37435e-05 2.54845e-05 2.10504e-06 )  
( 4.21931e-05 2.55636e-05 -2.57501e-06 )  
( 4.51164e-05 2.62103e-05 -5.63407e-06 )  
( 4.61658e-05 2.68958e-05 1.70168e-06 )  
( 4.13278e-05 2.37013e-05 -1.43464e-06 )  
( 4.13212e-05 2.52049e-05 -6.60581e-07 )  
( 4.438e-05 2.27176e-05 -1.12931e-06 )  
( 4.28263e-05 2.87713e-05 4.02106e-06 )  
( 4.55273e-05 2.72463e-05 9.43873e-07 )  
( 4.91953e-05 2.68793e-05 4.56951e-07 )  
( 4.16051e-05 2.40096e-05 3.84543e-06 )  
( 3.99919e-05 2.5922e-05 3.667e-06 )  
( 4.5286e-05 2.42246e-05 1.14633e-06 )  
( 4.27099e-05 2.77729e-05 2.22339e-06 )  
( 4.33881e-05 2.64843e-05 -2.31443e-08 )  
( 4.88381e-05 2.57575e-05 -1.60689e-06 )  
( 4.69523e-05 2.62022e-05 1.65761e-07 )  
( 5.03174e-05 2.6926e-05 1.30725e-06 )  
( 4.66269e-05 2.39553e-05 -1.53327e-06 )  
( 4.84781e-05 2.53072e-05 -1.34246e-06 )  
( 4.85181e-05 3.1321e-05 1.52953e-06 )  
( 4.51591e-05 2.57236e-05 -5.90228e-06 )  
( 4.42994e-05 2.69686e-05 8.53342e-07 )  
( 3.99062e-05 2.25726e-05 1.2823e-06 )  
( 4.90368e-05 2.77911e-05 5.29691e-08 )  
( 4.20719e-05 2.58686e-05 -7.21723e-07 )  
( 4.9541e-05 2.64008e-05 -3.60445e-06 )  
( 4.70321e-05 2.60842e-05 3.29547e-06 )  
( 4.70854e-05 2.78457e-05 1.32365e-06 )  
( 5.15206e-05 2.7295e-05 -3.63574e-06 )  
( 5.21287e-05 2.67315e-05 -2.39108e-06 )  
( 4.80552e-05 2.79703e-05 1.98599e-06 )  
( 4.8752e-05 2.58124e-05 -9.78752e-07 )  
( 4.49045e-05 2.52601e-05 -5.51042e-07 )  
( 4.52628e-05 2.7177e-05 7.7373e-07 )  
( 4.96842e-05 2.51128e-05 -2.12672e-06 )  
( 4.14794e-05 3.02355e-05 1.46231e-07 )  
( 4.73999e-05 2.81146e-05 -3.18222e-08 )  
( 4.8337e-05 2.50838e-05 1.18549e-06 )  
( 5.04171e-05 2.75003e-05 2.64151e-06 )  
( 4.69971e-05 2.78067e-05 -4.78704e-06 )  
( 4.99841e-05 2.88127e-05 4.17408e-06 )  
( 4.72027e-05 2.8226e-05 -2.99298e-06 )  
( 5.46544e-05 3.07011e-05 1.00151e-06 )  
( 4.88414e-05 2.74834e-05 2.28067e-07 )  
( 5.01497e-05 2.99264e-05 -8.43607e-07 )  
( 4.91081e-05 2.7395e-05 9.89299e-07 )  
( 5.38627e-05 3.18709e-05 -1.78875e-06 )  
( 4.63543e-05 2.6011e-05 -3.93375e-06 )  
( 4.83174e-05 2.69712e-05 -2.75589e-06 )  
( 5.02836e-05 2.94551e-05 -7.70899e-07 )  
( 5.1401e-05 2.83419e-05 1.48115e-06 )  
( 4.98645e-05 2.94328e-05 -2.58797e-06 )  
( 5.10842e-05 2.70394e-05 -5.95969e-07 )  
( 4.8097e-05 2.89078e-05 -4.87309e-06 )  
( 5.18161e-05 2.49508e-05 2.91003e-07 )  
( 4.91911e-05 2.90382e-05 3.37727e-06 )  
( 5.26658e-05 2.92195e-05 1.40265e-06 )  
( 4.67517e-05 2.77761e-05 2.11708e-06 )  
( 4.98486e-05 2.9788e-05 4.31033e-06 )  
( 5.12363e-05 2.91775e-05 -2.41101e-06 )  
( 5.0957e-05 2.91697e-05 7.0282e-07 )  
( 6.05453e-05 3.27652e-05 -7.1091e-06 )  
( 5.22958e-05 2.95958e-05 2.64766e-06 )  
( 5.48012e-05 3.32549e-05 -1.7382e-06 )  
( 4.77894e-05 3.10251e-05 -4.5422e-06 )  
( 4.77824e-05 2.86072e-05 -3.91983e-06 )  
( 5.19399e-05 3.12645e-05 8.9128e-07 )  
( 5.01145e-05 2.94585e-05 -2.34488e-06 )  
( 5.21354e-05 2.87266e-05 2.95956e-06 )  
( 5.68176e-05 2.31424e-05 1.95238e-06 )  
( 5.31565e-05 2.64827e-05 -5.32205e-06 )  
( 5.59106e-05 3.23423e-05 7.54302e-06 )  
( 5.74198e-05 3.17166e-05 -3.95019e-06 )  
( 5.66497e-05 2.83631e-05 -2.5195e-07 )  
( 5.56492e-05 3.6139e-05 2.45476e-06 )  
( 5.654e-05 3.12764e-05 8.33555e-07 )  
( 5.2732e-05 3.17841e-05 -1.09112e-06 )  
( 5.48204e-05 3.12521e-05 1.01197e-06 )  
( 5.22559e-05 3.15108e-05 2.19594e-06 )  
( 5.39668e-05 3.5484e-05 4.10819e-06 )  
( 7.32512e-05 2.94436e-05 -1.74524e-05 )  
( 5.37791e-05 3.02022e-05 -2.77016e-06 )  
( 5.86218e-05 2.82382e-05 1.89309e-06 )  
( 5.38533e-05 3.39135e-05 1.56289e-07 )  
( 6.16032e-05 3.34583e-05 4.52236e-06 )  
( 5.87213e-05 3.64803e-05 -1.64422e-06 )  
( 5.66284e-05 2.73492e-05 -1.34189e-06 )  
( 5.4863e-05 2.94919e-05 2.91646e-06 )  
( 5.02335e-05 3.43567e-05 -2.70635e-06 )  
( 6.09185e-05 2.16255e-05 -3.33074e-07 )  
( 5.33475e-05 2.98711e-05 1.06979e-06 )  
( 5.65303e-05 3.27964e-05 2.70672e-06 )  
( 5.9247e-05 3.54605e-05 1.379e-06 )  
( 4.88348e-05 3.27511e-05 -2.79277e-06 )  
( 6.62162e-05 2.84477e-05 -3.41666e-06 )  
( 5.7643e-05 3.17029e-05 -2.0578e-06 )  
( 6.05627e-05 3.80339e-05 -3.78904e-06 )  
( 5.72681e-05 4.11102e-05 -1.73752e-06 )  
( 6.00043e-05 3.11012e-05 1.92172e-06 )  
( 6.19652e-05 2.8139e-05 8.11299e-07 )  
( 5.20625e-05 3.24827e-05 1.30698e-06 )  
( 5.55465e-05 3.08932e-05 3.87933e-06 )  
( 4.14595e-05 3.87098e-05 5.77612e-07 )  
( 5.56162e-05 2.88332e-05 1.46485e-06 )  
( 5.83791e-05 3.3289e-05 -3.27627e-06 )  
( 5.74971e-05 2.92792e-05 2.61105e-06 )  
( 5.16842e-05 3.13484e-05 1.30165e-06 )  
( 5.36718e-05 3.38224e-05 -6.86844e-08 )  
( 5.47505e-05 3.06904e-05 -3.1848e-06 )  
( 6.10929e-05 3.00634e-05 4.70731e-07 )  
( 5.9979e-05 3.28832e-05 -6.85007e-07 )  
( 6.323e-05 3.84811e-05 -6.39269e-07 )  
( 6.58172e-05 3.12184e-05 5.06576e-06 )  
( 5.95808e-05 4.40913e-05 -1.04795e-05 )  
( 1.9516e-05 -3.08266e-05 3.96979e-06 )  
( 7.24047e-05 3.29979e-05 6.71439e-06 )  
( 5.91909e-06 4.5105e-05 -3.21321e-05 )  
( 6.05305e-05 3.50186e-05 2.9444e-06 )  
( 5.83756e-05 3.99647e-05 2.11908e-06 )  
( 5.84876e-05 3.34584e-05 1.46261e-06 )  
( 4.84473e-05 3.18285e-05 -6.45387e-06 )  
( 5.06166e-05 2.26786e-05 -2.81254e-07 )  
( 5.95109e-05 2.82369e-05 -5.3898e-06 )  
( 4.87277e-05 3.11039e-05 -3.40792e-08 )  
( 5.82253e-05 3.87609e-05 -9.04811e-07 )  
( 5.70113e-05 3.29566e-05 4.20919e-06 )  
( 6.64967e-05 4.28405e-05 -4.6659e-06 )  
( 6.12732e-05 3.81239e-05 3.06439e-06 )  
( 7.40852e-05 3.80764e-05 -2.00223e-07 )  
)
