/*--------------------------------*- C++ -*----------------------------------*\
| =========                 |                                                 |
| \\      /  F ield         | OpenFOAM: The Open Source CFD Toolbox           |
|  \\    /   O peration     | Version:  5.x                                   |
|   \\  /    A nd           | Web:      www.OpenFOAM.org                      |
|    \\/     M anipulation  |                                                 |
\*---------------------------------------------------------------------------*/
FoamFile
{
    version     2.0;
    format      ascii;
    class       volScalarField;
    location    "80000";
    object      p;
}
// * * * * * * * * * * * * * * * * * * * * * * * * * * * * * * * * * * * * * //

dimensions      [0 2 -2 0 0 0 0];

internalField   nonuniform List<scalar> 
2250
(
3.55839e-10
3.25961e-10
2.77793e-10
2.6752e-10
2.82024e-10
3.58261e-10
3.3033e-10
3.14174e-10
3.15901e-10
3.24908e-10
2.97385e-10
2.97162e-10
3.13797e-10
3.30267e-10
3.39707e-10
2.22139e-10
2.53238e-10
2.95702e-10
3.24316e-10
3.35802e-10
1.77338e-10
2.27648e-10
2.81803e-10
3.15012e-10
3.26903e-10
1.13807e-09
1.04028e-09
9.34464e-10
9.12496e-10
9.33684e-10
1.09014e-09
1.01672e-09
9.89629e-10
9.9398e-10
1.00288e-09
8.98282e-10
9.09471e-10
9.60817e-10
1.00099e-09
1.01421e-09
6.87022e-10
7.84903e-10
8.96449e-10
9.65537e-10
9.87255e-10
5.69507e-10
7.16769e-10
8.51242e-10
9.30613e-10
9.58852e-10
1.86488e-09
1.77401e-09
1.68004e-09
1.64772e-09
1.63696e-09
1.78085e-09
1.70807e-09
1.69078e-09
1.68726e-09
1.67502e-09
1.49692e-09
1.54607e-09
1.61845e-09
1.6619e-09
1.66611e-09
1.20886e-09
1.3719e-09
1.51439e-09
1.59717e-09
1.62304e-09
1.06096e-09
1.28168e-09
1.44949e-09
1.54929e-09
1.5914e-09
2.332e-09
2.37749e-09
2.37541e-09
2.34055e-09
2.29264e-09
2.32936e-09
2.33816e-09
2.34789e-09
2.33627e-09
2.30941e-09
2.11553e-09
2.19647e-09
2.26247e-09
2.29728e-09
2.29928e-09
1.86153e-09
2.03165e-09
2.15653e-09
2.23498e-09
2.26887e-09
1.73054e-09
1.95054e-09
2.10312e-09
2.20307e-09
2.25347e-09
2.66658e-09
2.86469e-09
2.96061e-09
2.94683e-09
2.90101e-09
2.85339e-09
2.92319e-09
2.94806e-09
2.94047e-09
2.9205e-09
2.81015e-09
2.86449e-09
2.89777e-09
2.92212e-09
2.92806e-09
2.66362e-09
2.7639e-09
2.83525e-09
2.89496e-09
2.9257e-09
2.57884e-09
2.72047e-09
2.81612e-09
2.88959e-09
2.92353e-09
3.20394e-09
3.3678e-09
3.4772e-09
3.49326e-09
3.47965e-09
3.45125e-09
3.4907e-09
3.50263e-09
3.50275e-09
3.49388e-09
3.53566e-09
3.51644e-09
3.50813e-09
3.51586e-09
3.51375e-09
3.50981e-09
3.50148e-09
3.50834e-09
3.52822e-09
3.52852e-09
3.4887e-09
3.50223e-09
3.51962e-09
3.53477e-09
3.52277e-09
3.91203e-09
3.882e-09
3.9243e-09
3.94846e-09
3.95581e-09
4.03666e-09
3.99624e-09
3.97764e-09
3.96992e-09
3.957e-09
4.15908e-09
4.07683e-09
4.03107e-09
4.00446e-09
3.97549e-09
4.24153e-09
4.14189e-09
4.08392e-09
4.03863e-09
3.98961e-09
4.29264e-09
4.18046e-09
4.10995e-09
4.04247e-09
3.97384e-09
4.51657e-09
4.33236e-09
4.27774e-09
4.27209e-09
4.27311e-09
4.50421e-09
4.40283e-09
4.3432e-09
4.30159e-09
4.27183e-09
4.62747e-09
4.51443e-09
4.42348e-09
4.33963e-09
4.27776e-09
4.80012e-09
4.63884e-09
4.50295e-09
4.37342e-09
4.27797e-09
4.91857e-09
4.70603e-09
4.53307e-09
4.37238e-09
4.25812e-09
4.97053e-09
4.72325e-09
4.59312e-09
4.54316e-09
4.53054e-09
4.88885e-09
4.7515e-09
4.64238e-09
4.55304e-09
4.50896e-09
5.02466e-09
4.87557e-09
4.71424e-09
4.56119e-09
4.47577e-09
5.26126e-09
5.02609e-09
4.78561e-09
4.56793e-09
4.44265e-09
5.42413e-09
5.10498e-09
4.81058e-09
4.56024e-09
4.42339e-09
5.28576e-09
5.09148e-09
4.97151e-09
4.91385e-09
4.90598e-09
5.24183e-09
5.09597e-09
4.95473e-09
4.8357e-09
4.79173e-09
5.42111e-09
5.20859e-09
4.96832e-09
4.76045e-09
4.66677e-09
5.68391e-09
5.34113e-09
4.99076e-09
4.704e-09
4.56934e-09
5.84867e-09
5.40293e-09
4.99391e-09
4.67843e-09
4.54353e-09
5.50828e-09
5.49161e-09
5.46909e-09
5.45916e-09
5.48166e-09
5.58017e-09
5.45805e-09
5.32438e-09
5.21416e-09
5.18272e-09
5.781e-09
5.51066e-09
5.22517e-09
4.99872e-09
4.90832e-09
6.00573e-09
5.57365e-09
5.15739e-09
4.84189e-09
4.7142e-09
6.12083e-09
5.58775e-09
5.11697e-09
4.77897e-09
4.65929e-09
5.90533e-09
6.01083e-09
6.07156e-09
6.12525e-09
6.18241e-09
5.95892e-09
5.8484e-09
5.73902e-09
5.65621e-09
5.63121e-09
6.05456e-09
5.76219e-09
5.47577e-09
5.25912e-09
5.17058e-09
6.15232e-09
5.69901e-09
5.27869e-09
4.97216e-09
4.85338e-09
6.17518e-09
5.63658e-09
5.16885e-09
4.84533e-09
4.73839e-09
6.56126e-09
6.63032e-09
6.69597e-09
6.77351e-09
6.83152e-09
6.38363e-09
6.24184e-09
6.12872e-09
6.04851e-09
6.00468e-09
6.23946e-09
5.93354e-09
5.65143e-09
5.44161e-09
5.34025e-09
6.12075e-09
5.67897e-09
5.28184e-09
4.99679e-09
4.87821e-09
6.00619e-09
5.50122e-09
5.07017e-09
4.77857e-09
4.67261e-09
7.24435e-09
7.2296e-09
7.22947e-09
7.25536e-09
7.26184e-09
6.75969e-09
6.54453e-09
6.37383e-09
6.24879e-09
6.16323e-09
6.28528e-09
5.92565e-09
5.6187e-09
5.39327e-09
5.26784e-09
5.84847e-09
5.40231e-09
5.02406e-09
4.75613e-09
4.63077e-09
5.53402e-09
5.06908e-09
4.68322e-09
4.42457e-09
4.30095e-09
7.83804e-09
7.72486e-09
7.59424e-09
7.49998e-09
7.42603e-09
6.9511e-09
6.62111e-09
6.35198e-09
6.14957e-09
6.01986e-09
6.0202e-09
5.57972e-09
5.22659e-09
4.96841e-09
4.82098e-09
5.1665e-09
4.71923e-09
4.35081e-09
4.08768e-09
3.94479e-09
4.62623e-09
4.21973e-09
3.86773e-09
3.61493e-09
3.45676e-09
8.29692e-09
8.05143e-09
7.76347e-09
7.53024e-09
7.38061e-09
6.80837e-09
6.35989e-09
5.98385e-09
5.69431e-09
5.5276e-09
5.28944e-09
4.78498e-09
4.37068e-09
4.06308e-09
3.8893e-09
4.00453e-09
3.55054e-09
3.15316e-09
2.8523e-09
2.67069e-09
3.29068e-09
2.89242e-09
2.5044e-09
2.19444e-09
2.00075e-09
8.63134e-09
8.20444e-09
7.73748e-09
7.36159e-09
7.13985e-09
6.32953e-09
5.73212e-09
5.2131e-09
4.81449e-09
4.59644e-09
4.12575e-09
3.5079e-09
2.96881e-09
2.56215e-09
2.33103e-09
2.43868e-09
1.85245e-09
1.31496e-09
8.9339e-10
6.53704e-10
1.58573e-09
1.00186e-09
4.39294e-10
5.9322e-13
-2.29924e-10
8.99539e-09
8.20425e-09
7.45369e-09
6.88775e-09
6.57079e-09
5.61626e-09
4.70198e-09
3.91855e-09
3.33892e-09
3.01807e-09
2.58049e-09
1.65442e-09
8.46805e-10
2.42682e-10
-9.06048e-11
4.05495e-10
-5.50664e-10
-1.39783e-09
-2.03184e-09
-2.35279e-09
-6.72967e-10
-1.68915e-09
-2.58171e-09
-3.21637e-09
-3.52466e-09
9.12702e-09
7.81455e-09
6.66621e-09
5.8292e-09
5.3686e-09
4.46333e-09
3.03329e-09
1.82072e-09
9.40972e-10
4.50758e-10
4.10066e-10
-1.07272e-09
-2.34275e-09
-3.26435e-09
-3.74788e-09
-2.46425e-09
-4.03415e-09
-5.36987e-09
-6.30795e-09
-6.77496e-09
-3.92374e-09
-5.57182e-09
-6.94092e-09
-7.87773e-09
-8.3563e-09
8.72286e-09
6.74482e-09
5.03578e-09
3.78585e-09
3.10026e-09
2.51e-09
3.43543e-10
-1.49988e-09
-2.831e-09
-3.55609e-09
-2.84459e-09
-5.14546e-09
-7.09001e-09
-8.4622e-09
-9.17867e-09
-6.69347e-09
-9.112e-09
-1.11213e-08
-1.25097e-08
-1.32411e-08
-8.6917e-09
-1.11651e-08
-1.31953e-08
-1.4618e-08
-1.5377e-08
8.06381e-09
4.93831e-09
2.29905e-09
3.88022e-10
-6.4152e-10
-4.46128e-10
-3.74286e-09
-6.50734e-09
-8.4927e-09
-9.55478e-09
-7.67257e-09
-1.11223e-08
-1.39918e-08
-1.60157e-08
-1.71005e-08
-1.28788e-08
-1.64288e-08
-1.93617e-08
-2.14379e-08
-2.25614e-08
-1.56087e-08
-1.9182e-08
-2.21502e-08
-2.4291e-08
-2.54289e-08
6.81331e-09
2.10559e-09
-1.85099e-09
-4.71128e-09
-6.23776e-09
-4.91184e-09
-9.73502e-09
-1.37675e-08
-1.6685e-08
-1.82465e-08
-1.47566e-08
-1.97155e-08
-2.38435e-08
-2.68139e-08
-2.84148e-08
-2.18329e-08
-2.68693e-08
-3.10844e-08
-3.41357e-08
-3.57634e-08
-2.55474e-08
-3.06217e-08
-3.48977e-08
-3.79987e-08
-3.96362e-08
4.19291e-09
-2.28314e-09
-7.90824e-09
-1.20447e-08
-1.42664e-08
-1.1632e-08
-1.83498e-08
-2.40848e-08
-2.82858e-08
-3.05262e-08
-2.49876e-08
-3.1896e-08
-3.77464e-08
-4.20134e-08
-4.42761e-08
-3.4633e-08
-4.1652e-08
-4.76178e-08
-5.19529e-08
-5.42373e-08
-3.96943e-08
-4.68183e-08
-5.28489e-08
-5.72074e-08
-5.95275e-08
3.9378e-10
-8.58611e-09
-1.64999e-08
-2.23375e-08
-2.54737e-08
-2.10866e-08
-3.04286e-08
-3.85078e-08
-4.4421e-08
-4.75373e-08
-3.93377e-08
-4.89264e-08
-5.71366e-08
-6.31222e-08
-6.62605e-08
-5.26044e-08
-6.23563e-08
-7.06738e-08
-7.67016e-08
-7.98921e-08
-5.96029e-08
-6.94826e-08
-7.78372e-08
-8.38982e-08
-8.71244e-08
-4.70236e-09
-1.74319e-08
-2.8433e-08
-3.64638e-08
-4.07608e-08
-3.41258e-08
-4.71812e-08
-5.8435e-08
-6.66167e-08
-7.09083e-08
-5.92134e-08
-7.25275e-08
-8.3934e-08
-9.22254e-08
-9.65789e-08
-7.75366e-08
-9.10398e-08
-1.02516e-07
-1.10859e-07
-1.1528e-07
-8.72844e-08
-1.00829e-07
-1.1232e-07
-1.20719e-07
-1.25162e-07
-1.20906e-08
-2.97972e-08
-4.4839e-08
-5.58282e-08
-6.16845e-08
-5.22894e-08
-7.04003e-08
-8.59021e-08
-9.71658e-08
-1.03081e-07
-8.66967e-08
-1.05111e-07
-1.20833e-07
-1.32275e-07
-1.38291e-07
-1.11875e-07
-1.30482e-07
-1.46265e-07
-1.57827e-07
-1.63912e-07
-1.2529e-07
-1.43859e-07
-1.59691e-07
-1.71329e-07
-1.77446e-07
-2.24513e-08
-4.68544e-08
-6.75118e-08
-8.27503e-08
-9.07708e-08
-7.73575e-08
-1.02494e-07
-1.23789e-07
-1.39367e-07
-1.4753e-07
-1.24397e-07
-1.49937e-07
-1.71531e-07
-1.87374e-07
-1.9564e-07
-1.58753e-07
-1.8454e-07
-2.06284e-07
-2.22369e-07
-2.30728e-07
-1.76979e-07
-2.02813e-07
-2.24677e-07
-2.40851e-07
-2.49205e-07
-3.68296e-08
-7.0651e-08
-9.91929e-08
-1.20343e-07
-1.31321e-07
-1.11584e-07
-1.46802e-07
-1.75983e-07
-1.97786e-07
-2.09029e-07
-1.75565e-07
-2.11516e-07
-2.41012e-07
-2.63219e-07
-2.74496e-07
-2.2225e-07
-2.58777e-07
-2.88535e-07
-3.11177e-07
-3.22547e-07
-2.46974e-07
-2.83813e-07
-3.1365e-07
-3.3641e-07
-3.47758e-07
-5.65569e-08
-1.03938e-07
-1.43062e-07
-1.72355e-07
-1.87302e-07
-1.57439e-07
-2.08221e-07
-2.47493e-07
-2.78966e-07
-2.94178e-07
-2.4391e-07
-2.96665e-07
-3.3565e-07
-3.6781e-07
-3.8265e-07
-3.07174e-07
-3.61694e-07
-4.00591e-07
-4.3386e-07
-4.4873e-07
-3.40696e-07
-3.96181e-07
-4.34716e-07
-4.68364e-07
-4.83067e-07
-8.16497e-08
-1.50161e-07
-2.02142e-07
-2.43408e-07
-2.63107e-07
-2.16185e-07
-2.95309e-07
-3.43914e-07
-3.93438e-07
-4.12557e-07
-3.32029e-07
-4.17053e-07
-4.62038e-07
-5.12698e-07
-5.29598e-07
-4.16845e-07
-5.0786e-07
-5.5051e-07
-6.05291e-07
-6.21823e-07
-4.6181e-07
-5.5598e-07
-5.96586e-07
-6.52494e-07
-6.68083e-07
-1.10278e-07
-2.14279e-07
-2.77866e-07
-3.37916e-07
-3.61533e-07
-2.8631e-07
-4.23497e-07
-4.70527e-07
-5.60705e-07
-5.79518e-07
-4.4041e-07
-5.91241e-07
-6.25212e-07
-7.13638e-07
-7.25141e-07
-5.52485e-07
-7.2067e-07
-7.45802e-07
-8.49281e-07
-8.59001e-07
-6.12403e-07
-7.8872e-07
-8.07227e-07
-9.12823e-07
-9.19218e-07
-1.38647e-07
-2.99313e-07
-3.69146e-07
-4.5887e-07
-4.83456e-07
-3.64347e-07
-6.14104e-07
-6.37567e-07
-8.11191e-07
-8.18479e-07
-5.73281e-07
-8.38162e-07
-8.34619e-07
-9.88034e-07
-9.81272e-07
-7.20061e-07
-1.02675e-06
-1.00242e-06
-1.19855e-06
-1.18611e-06
-8.01288e-07
-1.12331e-06
-1.08314e-06
-1.27866e-06
-1.25815e-06
-1.61938e-07
-4.05794e-07
-4.79461e-07
-6.13304e-07
-6.34451e-07
-4.37689e-07
-8.93646e-07
-8.56119e-07
-1.18544e-06
-1.15831e-06
-7.43616e-07
-1.17771e-06
-1.10946e-06
-1.3606e-06
-1.31712e-06
-9.29216e-07
-1.45738e-06
-1.34947e-06
-1.69303e-06
-1.63665e-06
-1.04512e-06
-1.59449e-06
-1.45312e-06
-1.78764e-06
-1.71782e-06
-1.86723e-07
-5.41978e-07
-6.33455e-07
-8.09311e-07
-8.24661e-07
-4.83099e-07
-1.25842e-06
-1.2038e-06
-1.67364e-06
-1.62667e-06
-9.87713e-07
-1.64467e-06
-1.4896e-06
-1.86399e-06
-1.7555e-06
-1.18243e-06
-2.05205e-06
-1.82948e-06
-2.38224e-06
-2.25201e-06
-1.37135e-06
-2.25127e-06
-1.95986e-06
-2.49719e-06
-2.34428e-06
-2.83929e-07
-7.527e-07
-8.72569e-07
-1.07817e-06
-1.08394e-06
-3.05587e-07
-1.85492e-06
-1.62124e-06
-2.39894e-06
-2.30471e-06
-1.38859e-06
-2.31548e-06
-2.03266e-06
-2.56107e-06
-2.33696e-06
-1.4985e-06
-2.85442e-06
-2.51575e-06
-3.34251e-06
-3.09443e-06
-1.84611e-06
-3.16665e-06
-2.67154e-06
-3.49148e-06
-3.19769e-06
-6.72104e-07
-1.07026e-06
-1.25074e-06
-1.39833e-06
-1.4081e-06
-1.96608e-07
-2.76534e-06
-2.22682e-06
-3.44406e-06
-3.25573e-06
-2.2141e-06
-3.25069e-06
-2.81612e-06
-3.48316e-06
-3.04192e-06
-2.04126e-06
-3.84157e-06
-3.5369e-06
-4.63255e-06
-4.21517e-06
-2.64309e-06
-4.44375e-06
-3.63657e-06
-4.88689e-06
-4.33901e-06
2.31388e-06
5.76955e-07
-5.74067e-07
-4.30808e-07
-8.21302e-07
5.8536e-06
-2.54034e-06
2.50581e-07
-3.00905e-06
-2.10453e-06
-1.91491e-07
-3.34149e-06
-2.36391e-06
-3.78771e-06
-2.71584e-06
1.16649e-06
-3.74943e-06
-2.84559e-06
-5.20693e-06
-3.73879e-06
-3.89424e-07
-5.82868e-06
-3.50612e-06
-6.6853e-06
-5.65839e-06
-7.44173e-06
-6.80435e-06
-6.47843e-06
-6.40513e-06
-5.79875e-06
-1.77615e-06
-9.32586e-06
-9.86701e-06
-1.07596e-05
-1.10063e-05
-1.03515e-05
-9.5362e-06
-9.4971e-06
-9.48928e-06
-8.054e-06
-9.77688e-06
-1.03415e-05
-1.18677e-05
-1.18492e-05
-1.15445e-05
-1.1163e-05
-1.08379e-05
-1.105e-05
-1.07549e-05
-9.48231e-06
9.82481e-06
8.60495e-06
-2.02009e-06
6.20451e-06
1.14273e-06
4.10843e-05
-5.38475e-06
1.09896e-05
-3.34526e-06
-1.50492e-08
6.93047e-07
-2.9037e-06
-2.48444e-06
-3.10189e-06
2.39074e-06
1.09546e-05
3.23018e-06
-1.26947e-06
-5.6318e-06
2.80987e-06
4.82915e-06
-1.10475e-05
-2.75502e-06
-1.32587e-05
-1.19844e-05
-2.79802e-05
-2.69056e-05
-1.10646e-05
-2.23468e-05
-1.21068e-05
-6.16257e-05
-2.4966e-05
-3.59774e-05
-2.29348e-05
-2.66506e-05
-2.83086e-05
-2.16213e-05
-2.01872e-05
-2.09675e-05
-2.05666e-05
-3.15018e-05
-2.91602e-05
-2.96234e-05
-2.41463e-05
-3.2627e-05
-3.15349e-05
-2.40497e-05
-2.58436e-05
-2.27092e-05
-1.44614e-05
2.20848e-05
5.9758e-05
-5.52552e-05
2.18457e-05
-2.62284e-05
0.000312412
-5.61442e-05
3.53138e-05
-1.52651e-05
-2.0354e-05
-2.86664e-05
-6.24288e-06
-1.85109e-05
-1.1326e-05
2.85061e-05
2.26373e-05
6.12839e-05
-2.11207e-05
-1.1812e-05
6.03026e-05
-8.24148e-06
-4.34196e-05
9.6034e-06
-2.89801e-05
-7.26312e-05
0.00114841
0.000955545
0.0004647
0.000859095
0.000554415
0.00120427
0.000669325
0.000654626
0.000642024
0.000994657
0.00104153
0.000674684
0.000437034
0.000681944
0.000798318
0.000625953
0.000577651
0.000661642
0.000861161
0.0010376
0.000938006
0.000606349
0.000543148
0.000899513
0.00102901
0.00121258
0.00146166
0.00147791
0.001646
0.00135873
0.00118989
0.00148554
0.0013099
0.00151832
0.00166232
0.00146344
0.00167264
0.00169737
0.00187721
0.00164008
0.0013405
0.00148609
0.00192269
0.00192136
0.00172816
0.00205357
0.00192368
0.00168342
0.00194125
0.00202556
0.00202824
0.00225019
0.00237875
0.00222969
0.0021781
0.00215545
0.00222241
0.00211519
0.00244814
0.00222601
0.00312864
0.00236233
0.00244473
0.00251386
0.00230752
0.00286423
0.00241593
0.00269216
0.00252244
0.00243529
0.00294081
0.0025354
0.00264542
0.00244373
0.00259221
0.00361279
0.00324184
0.00311235
0.00261953
0.00326662
0.00300344
0.00365199
0.00297514
0.00315473
0.00288609
0.00355688
0.00299869
0.00277849
0.00291947
0.00273076
0.00325207
0.00302845
0.00296866
0.00313408
0.00290653
0.00355712
0.00312221
0.00286245
0.00302642
0.00303032
0.00418672
0.00408084
0.00422711
0.00341219
0.00407153
0.00392089
0.00450725
0.00429079
0.00433727
0.00426295
0.00436603
0.00394943
0.00411901
0.00380238
0.00387614
0.00400839
0.00378014
0.00344657
0.0037508
0.00298208
0.00433943
0.00390508
0.00358425
0.00378485
0.00287556
0.00495746
0.00480016
0.00488997
0.00481841
0.00541197
0.00523126
0.00482341
0.00491368
0.00509151
0.00539986
0.00502185
0.00469608
0.00486833
0.00492799
0.00519689
0.00474975
0.00449529
0.00453652
0.00471227
0.00556463
0.00450148
0.00439236
0.00457699
0.00457171
0.00451032
0.0057652
0.00551208
0.00550326
0.00596153
0.00559531
0.00534036
0.00527633
0.00551312
0.0054183
0.00538187
0.00490665
0.00518087
0.00577755
0.00535152
0.00546355
0.00536058
0.00541179
0.0052994
0.00564403
0.00527648
0.00444137
0.00562582
0.00539868
0.00481777
0.00504596
0.0057931
0.00595967
0.0058492
0.00580785
0.00563013
0.0055207
0.00604331
0.00596426
0.00587407
0.00540287
0.00535565
0.0062376
0.00596303
0.00623077
0.00561999
0.00599132
0.0059664
0.00581347
0.00585655
0.00556679
0.00569676
0.00622802
0.00579347
0.00613257
0.00494007
0.00602316
0.00657934
0.00665625
0.00591594
0.00719111
0.00650473
0.00650381
0.00646844
0.00631222
0.00657236
0.00671351
0.00666004
0.00621726
0.00618836
0.00627778
0.00659702
0.00666535
0.00625764
0.00605122
0.00643139
0.0064406
0.00693068
0.00604477
0.00613518
0.00588134
0.00701369
0.00702245
0.00707892
0.00710483
0.00708496
0.00701511
0.00714913
0.007066
0.0069652
0.0071357
0.00705659
0.00721086
0.00714746
0.00708394
0.00703203
0.00714154
0.00718005
0.00700687
0.00655007
0.00711198
0.00716646
0.00722161
0.00716678
0.00675585
0.00716961
0.00722975
0.00724691
0.00712587
0.00718863
0.00713269
0.00723087
0.00726724
0.00723583
0.00720233
0.0072066
0.00722887
0.00723918
0.00720939
0.00727611
0.00720058
0.00723842
0.00724434
0.00720771
0.00720153
0.00720214
0.00724948
0.00723178
0.00721161
0.00723183
0.00723386
0.00719273
0.00719883
0.00718477
0.0071764
0.0071758
0.00721342
0.0072028
0.00719297
0.00717937
0.00717447
0.0072035
0.00719966
0.00720469
0.00716795
0.00718427
0.00721635
0.00721164
0.00720123
0.00719873
0.00719546
0.0072153
0.00721014
0.00720113
0.00718201
0.00719648
0.00719455
0.00719715
0.00719114
0.00718942
0.00717564
0.00719944
0.00720428
0.00719633
0.00719027
0.00718761
0.00720151
0.00720528
0.00719967
0.00720279
0.00719139
0.00720803
0.00720639
0.0072022
0.00719799
0.00719589
0.00721309
0.00720672
0.00720527
0.00720496
0.007202
0.0071953
0.0071968
0.00719386
0.00719259
0.00719057
0.0072003
0.00719924
0.007196
0.00719352
0.00719148
0.00720177
0.00720011
0.00719832
0.0071926
0.00719391
0.00720449
0.00720275
0.00720039
0.00719749
0.00719635
0.00720647
0.00720299
0.00720146
0.00719664
0.00719745
0.00719622
0.00719732
0.0071948
0.00719447
0.00719248
0.00719887
0.00719882
0.00719658
0.00719558
0.00719424
0.00720034
0.00719954
0.00719817
0.00719694
0.00719577
0.00720219
0.007201
0.00719954
0.00719805
0.00719718
0.00720326
0.00720137
0.00720044
0.00719897
0.00719826
0.00719718
0.00719758
0.00719601
0.00719583
0.00719491
0.00719873
0.0071986
0.00719711
0.00719661
0.00719583
0.00719971
0.00719909
0.00719814
0.00719728
0.00719676
0.00720083
0.00719998
0.00719903
0.00719812
0.00719763
0.00720141
0.00720026
0.00719957
0.00719855
0.0071982
0.00719775
0.00719784
0.00719677
0.00719666
0.00719615
0.00719868
0.00719846
0.00719752
0.0071972
0.00719676
0.00719932
0.00719883
0.00719819
0.00719767
0.00719736
0.00719999
0.00719938
0.00719876
0.00719819
0.00719789
0.00720032
0.00719958
0.00719909
0.00719845
0.00719822
0.00719809
0.00719799
0.00719734
0.00719719
0.00719691
0.00719865
0.00719839
0.00719782
0.00719757
0.00719733
0.00719907
0.00719869
0.00719826
0.00719792
0.00719773
0.00719947
0.00719902
0.00719862
0.00719825
0.00719806
0.00719967
0.00719917
0.00719883
0.00719842
0.00719826
0.00719829
0.0071981
0.00719772
0.00719755
0.0071974
0.00719863
0.00719837
0.00719803
0.00719782
0.00719769
0.0071989
0.00719861
0.00719832
0.00719808
0.00719796
0.00719914
0.00719882
0.00719855
0.00719829
0.00719818
0.00719926
0.00719893
0.00719868
0.00719841
0.0071983
0.00719839
0.00719819
0.00719796
0.00719781
0.00719772
0.0071986
0.00719839
0.00719817
0.00719801
0.00719792
0.00719878
0.00719856
0.00719836
0.00719819
0.00719811
0.00719893
0.0071987
0.00719851
0.00719834
0.00719826
0.00719901
0.00719877
0.00719859
0.00719841
0.00719834
0.00719844
0.00719827
0.00719811
0.007198
0.00719794
0.00719858
0.00719841
0.00719826
0.00719814
0.00719808
0.0071987
0.00719853
0.00719839
0.00719827
0.00719821
0.00719879
0.00719863
0.00719849
0.00719837
0.00719831
0.00719884
0.00719868
0.00719854
0.00719842
0.00719837
0.00719846
0.00719833
0.00719822
0.00719814
0.00719809
0.00719855
0.00719843
0.00719832
0.00719824
0.0071982
0.00719864
0.00719852
0.00719841
0.00719833
0.00719829
0.0071987
0.00719858
0.00719848
0.0071984
0.00719836
0.00719874
0.00719862
0.00719851
0.00719843
0.00719839
0.00719847
0.00719837
0.00719829
0.00719823
0.0071982
0.00719853
0.00719844
0.00719837
0.00719831
0.00719828
0.00719859
0.00719851
0.00719843
0.00719837
0.00719834
0.00719864
0.00719855
0.00719848
0.00719842
0.00719839
0.00719866
0.00719858
0.0071985
0.00719844
0.00719841
0.00719847
0.00719841
0.00719835
0.0071983
0.00719828
0.00719852
0.00719846
0.0071984
0.00719836
0.00719833
0.00719856
0.0071985
0.00719844
0.0071984
0.00719838
0.0071986
0.00719853
0.00719848
0.00719844
0.00719841
0.00719861
0.00719855
0.00719849
0.00719845
0.00719843
0.00719848
0.00719843
0.00719839
0.00719835
0.00719834
0.00719851
0.00719846
0.00719842
0.00719839
0.00719838
0.00719854
0.0071985
0.00719845
0.00719842
0.00719841
0.00719857
0.00719852
0.00719848
0.00719845
0.00719843
0.00719858
0.00719853
0.00719849
0.00719846
0.00719845
0.00719848
0.00719844
0.00719841
0.00719839
0.00719838
0.00719851
0.00719847
0.00719844
0.00719842
0.00719841
0.00719853
0.00719849
0.00719846
0.00719844
0.00719843
0.00719854
0.00719851
0.00719848
0.00719846
0.00719845
0.00719855
0.00719852
0.00719849
0.00719847
0.00719846
0.00719848
0.00719846
0.00719843
0.00719842
0.00719841
0.0071985
0.00719848
0.00719845
0.00719844
0.00719843
0.00719852
0.00719849
0.00719847
0.00719845
0.00719845
0.00719853
0.0071985
0.00719848
0.00719847
0.00719846
0.00719854
0.00719851
0.00719849
0.00719847
0.00719846
0.00719849
0.00719847
0.00719845
0.00719844
0.00719843
0.0071985
0.00719848
0.00719846
0.00719845
0.00719844
0.00719851
0.00719849
0.00719847
0.00719846
0.00719846
0.00719852
0.0071985
0.00719848
0.00719847
0.00719847
0.00719852
0.0071985
0.00719849
0.00719848
0.00719847
0.00719849
0.00719847
0.00719846
0.00719845
0.00719845
0.0071985
0.00719848
0.00719847
0.00719846
0.00719846
0.0071985
0.00719849
0.00719848
0.00719847
0.00719847
0.00719851
0.0071985
0.00719848
0.00719848
0.00719847
0.00719851
0.0071985
0.00719849
0.00719848
0.00719848
0.00719849
0.00719848
0.00719847
0.00719846
0.00719846
0.00719849
0.00719848
0.00719848
0.00719847
0.00719847
0.0071985
0.00719849
0.00719848
0.00719848
0.00719847
0.0071985
0.00719849
0.00719849
0.00719848
0.00719848
0.00719851
0.0071985
0.00719849
0.00719848
0.00719848
0.00719849
0.00719848
0.00719847
0.00719847
0.00719847
0.00719849
0.00719849
0.00719848
0.00719848
0.00719847
0.0071985
0.00719849
0.00719848
0.00719848
0.00719848
0.0071985
0.00719849
0.00719849
0.00719848
0.00719848
0.0071985
0.00719849
0.00719849
0.00719848
0.00719848
0.00719849
0.00719848
0.00719848
0.00719848
0.00719847
0.00719849
0.00719849
0.00719848
0.00719848
0.00719848
0.0071985
0.00719849
0.00719849
0.00719848
0.00719848
0.0071985
0.00719849
0.00719849
0.00719849
0.00719848
0.0071985
0.00719849
0.00719849
0.00719849
0.00719849
0.00719849
0.00719849
0.00719848
0.00719848
0.00719848
0.00719849
0.00719849
0.00719849
0.00719848
0.00719848
0.0071985
0.00719849
0.00719849
0.00719849
0.00719848
0.0071985
0.00719849
0.00719849
0.00719849
0.00719849
0.0071985
0.00719849
0.00719849
0.00719849
0.00719849
0.00719849
0.00719849
0.00719849
0.00719848
0.00719848
0.00719849
0.00719849
0.00719849
0.00719849
0.00719849
0.0071985
0.00719849
0.00719849
0.00719849
0.00719849
0.0071985
0.00719849
0.00719849
0.00719849
0.00719849
0.0071985
0.0071985
0.00719849
0.00719849
0.00719849
0.00719849
0.00719849
0.00719849
0.00719849
0.00719849
0.0071985
0.00719849
0.00719849
0.00719849
0.00719849
0.0071985
0.00719849
0.00719849
0.00719849
0.00719849
0.0071985
0.0071985
0.00719849
0.00719849
0.00719849
0.0071985
0.0071985
0.00719849
0.00719849
0.00719849
0.00719849
0.00719849
0.00719849
0.00719849
0.00719849
0.0071985
0.00719849
0.00719849
0.00719849
0.00719849
0.0071985
0.0071985
0.00719849
0.00719849
0.00719849
0.0071985
0.0071985
0.0071985
0.00719849
0.00719849
0.0071985
0.0071985
0.0071985
0.00719849
0.00719849
0.0071985
0.0071985
0.00719849
0.00719849
0.00719849
0.0071985
0.0071985
0.0071985
0.00719849
0.00719849
0.0071985
0.0071985
0.0071985
0.0071985
0.0071985
0.0071985
0.0071985
0.0071985
0.0071985
0.0071985
0.0071985
0.0071985
0.0071985
0.0071985
0.0071985
0.0071985
0.0071985
0.0071985
0.0071985
0.0071985
0.0071985
0.0071985
0.0071985
0.0071985
0.0071985
0.0071985
0.0071985
0.0071985
0.0071985
0.0071985
0.0071985
0.0071985
0.0071985
0.0071985
0.0071985
0.0071985
0.0071985
0.0071985
0.0071985
0.0071985
0.0071985
0.0071985
0.0071985
0.0071985
0.0071985
0.0071985
0.0071985
0.0071985
0.0071985
0.0071985
0.0071985
0.0071985
0.0071985
0.0071985
0.0071985
0.0071985
0.0071985
0.0071985
0.0071985
0.0071985
0.0071985
0.0071985
0.0071985
0.0071985
0.0071985
0.0071985
0.0071985
0.0071985
0.0071985
0.0071985
0.0071985
0.0071985
0.0071985
0.0071985
0.0071985
0.0071985
0.0071985
0.0071985
0.0071985
0.0071985
0.0071985
0.0071985
0.0071985
0.0071985
0.0071985
0.0071985
0.0071985
0.0071985
0.0071985
0.0071985
0.0071985
0.0071985
0.0071985
0.0071985
0.0071985
0.0071985
0.0071985
0.0071985
0.0071985
0.0071985
0.0071985
0.0071985
0.0071985
0.0071985
0.0071985
0.0071985
0.0071985
0.0071985
0.0071985
0.0071985
0.0071985
0.0071985
0.0071985
0.0071985
0.0071985
0.0071985
0.0071985
0.0071985
0.0071985
0.0071985
0.0071985
0.0071985
0.0071985
0.0071985
0.0071985
0.0071985
0.0071985
0.0071985
0.0071985
0.0071985
0.0071985
0.0071985
0.0071985
0.0071985
0.0071985
0.0071985
0.0071985
0.0071985
0.0071985
0.0071985
0.0071985
0.0071985
0.0071985
0.0071985
0.0071985
0.0071985
0.0071985
0.0071985
0.0071985
0.0071985
0.0071985
0.0071985
0.0071985
0.0071985
0.0071985
0.0071985
0.0071985
0.0071985
0.0071985
0.0071985
0.0071985
0.0071985
0.0071985
0.0071985
0.0071985
0.0071985
0.0071985
0.0071985
0.0071985
0.0071985
0.0071985
0.0071985
0.0071985
0.0071985
0.0071985
0.0071985
0.0071985
0.0071985
0.0071985
0.0071985
0.0071985
0.0071985
0.0071985
0.0071985
0.0071985
0.0071985
0.0071985
0.0071985
0.0071985
0.0071985
0.0071985
0.0071985
0.0071985
0.0071985
0.0071985
0.0071985
0.0071985
0.0071985
0.0071985
0.0071985
0.0071985
0.0071985
0.0071985
0.0071985
0.0071985
0.0071985
0.0071985
0.0071985
0.0071985
0.0071985
0.0071985
0.0071985
0.0071985
0.0071985
0.0071985
0.0071985
0.0071985
0.0071985
0.0071985
0.0071985
0.0071985
0.0071985
0.0071985
0.0071985
0.0071985
0.0071985
0.0071985
0.0071985
0.0071985
0.0071985
0.0071985
0.0071985
0.0071985
0.0071985
0.0071985
0.0071985
0.0071985
0.0071985
0.0071985
0.0071985
0.0071985
0.0071985
0.0071985
0.0071985
0.0071985
0.00719851
0.0071985
0.0071985
0.0071985
0.0071985
0.0071985
0.0071985
0.0071985
0.0071985
0.0071985
0.0071985
0.0071985
0.0071985
0.0071985
0.0071985
0.0071985
0.0071985
0.0071985
0.0071985
0.0071985
0.0071985
0.0071985
0.0071985
0.0071985
0.0071985
0.0071985
0.0071985
0.0071985
0.0071985
0.0071985
0.0071985
0.0071985
0.0071985
0.0071985
0.0071985
0.0071985
0.0071985
0.0071985
0.0071985
0.0071985
0.0071985
0.0071985
0.0071985
0.0071985
0.0071985
0.0071985
0.0071985
0.0071985
0.0071985
0.0071985
0.0071985
0.0071985
0.0071985
0.0071985
0.0071985
0.0071985
0.0071985
0.0071985
0.0071985
0.0071985
0.0071985
0.0071985
0.0071985
0.0071985
0.0071985
0.0071985
0.0071985
0.0071985
0.0071985
0.0071985
)
;

boundaryField
{
    inlet
    {
        type            zeroGradient;
    }
    outlet
    {
        type            fixedValue;
        value           uniform 0;
    }
    repeat_boundary
    {
        type            zeroGradient;
    }
    procBoundary3to1
    {
        type            processor;
        value           nonuniform List<scalar> 
450
(
3.69962e-10
3.07488e-10
2.51254e-10
2.42362e-10
2.59422e-10
1.19749e-09
1.01319e-09
8.70603e-10
8.50358e-10
8.78186e-10
2.01537e-09
1.75452e-09
1.59756e-09
1.56585e-09
1.56141e-09
2.52374e-09
2.3663e-09
2.28862e-09
2.2533e-09
2.20844e-09
2.80769e-09
2.83791e-09
2.87563e-09
2.86158e-09
2.81709e-09
3.14676e-09
3.30041e-09
3.39525e-09
3.41553e-09
3.40606e-09
3.58609e-09
3.76227e-09
3.85095e-09
3.8924e-09
3.91215e-09
4.01537e-09
4.17394e-09
4.22751e-09
4.26218e-09
4.28869e-09
4.45642e-09
4.57355e-09
4.5894e-09
4.60794e-09
4.63501e-09
4.92441e-09
5.02682e-09
5.05438e-09
5.08575e-09
5.12513e-09
5.36513e-09
5.57497e-09
5.6872e-09
5.77403e-09
5.84051e-09
5.96945e-09
6.26727e-09
6.45967e-09
6.61332e-09
6.7064e-09
6.93313e-09
7.11175e-09
7.29458e-09
7.46839e-09
7.55465e-09
8.07983e-09
8.03946e-09
8.118e-09
8.22025e-09
8.24757e-09
9.2102e-09
8.9737e-09
8.88319e-09
8.83637e-09
8.77878e-09
1.0326e-08
9.89576e-09
9.60563e-09
9.38713e-09
9.24886e-09
1.14962e-08
1.08484e-08
1.03392e-08
9.9474e-09
9.72666e-09
1.28971e-08
1.18483e-08
1.10422e-08
1.04537e-08
1.01388e-08
1.45518e-08
1.2819e-08
1.15632e-08
1.07044e-08
1.02588e-08
1.61532e-08
1.36486e-08
1.17532e-08
1.04656e-08
9.78513e-09
1.76399e-08
1.42376e-08
1.14768e-08
9.54042e-09
8.48839e-09
1.92914e-08
1.4557e-08
1.06382e-08
7.78968e-09
6.23339e-09
2.1214e-08
1.46503e-08
9.14415e-09
5.02494e-09
2.799e-09
2.36092e-08
1.45204e-08
6.76681e-09
9.48956e-10
-2.12257e-09
2.68426e-08
1.41401e-08
3.28309e-09
-4.71099e-09
-8.85475e-09
3.07936e-08
1.3336e-08
-1.61648e-09
-1.24547e-08
-1.80981e-08
3.54994e-08
1.1693e-08
-8.75741e-09
-2.34337e-08
-3.12066e-08
4.15598e-08
8.78021e-09
-1.93072e-08
-3.929e-08
-5.00826e-08
4.92057e-08
4.12436e-09
-3.47113e-08
-6.21235e-08
-7.73359e-08
5.8603e-08
-3.20755e-09
-5.7731e-08
-9.54468e-08
-1.17247e-07
6.81908e-08
-1.66764e-08
-9.45043e-08
-1.4727e-07
-1.78679e-07
7.17913e-08
-4.60203e-08
-1.56895e-07
-2.33623e-07
-2.77039e-07
6.16238e-08
-1.08408e-07
-2.61445e-07
-3.7628e-07
-4.29734e-07
3.58997e-08
-2.27145e-07
-4.23123e-07
-6.05555e-07
-6.50061e-07
-2.78888e-09
-4.34562e-07
-6.72331e-07
-9.69784e-07
-9.7153e-07
-2.25821e-08
-7.56326e-07
-9.71595e-07
-1.52319e-06
-1.50474e-06
1.9379e-06
-4.75358e-07
5.10603e-07
-4.3086e-07
8.5204e-07
-5.40145e-06
-4.5408e-06
-6.7537e-06
-7.44151e-06
-7.51306e-06
6.7351e-06
-5.45563e-06
6.41479e-06
7.99842e-07
1.06333e-05
-1.86861e-05
5.65101e-07
-1.99463e-05
-1.59924e-05
-2.38427e-05
8.16706e-06
-4.63449e-05
3.88314e-05
-9.88406e-06
5.50091e-05
0.000648749
0.000665919
0.00114814
0.000795806
0.000796093
0.00210386
0.00190169
0.00208776
0.00158066
0.00158654
0.00259871
0.00229934
0.00231674
0.00247941
0.00288246
0.00303226
0.00306121
0.00275139
0.00377351
0.00372189
0.00418858
0.00481805
0.00416632
0.00413972
0.00413021
0.00432959
0.0047979
0.00464204
0.00433261
0.00472241
0.00545854
0.00512223
0.00541522
0.00526713
0.00540639
0.00579175
0.00592507
0.00589879
0.00622851
0.00542173
0.00664414
0.00632905
0.0067184
0.00685297
0.00651963
0.00691679