/*--------------------------------*- C++ -*----------------------------------*\
| =========                 |                                                 |
| \\      /  F ield         | OpenFOAM: The Open Source CFD Toolbox           |
|  \\    /   O peration     | Version:  5.x                                   |
|   \\  /    A nd           | Web:      www.OpenFOAM.org                      |
|    \\/     M anipulation  |                                                 |
\*---------------------------------------------------------------------------*/
FoamFile
{
    version     2.0;
    format      ascii;
    class       surfaceScalarField;
    location    "60000";
    object      phi;
}
// * * * * * * * * * * * * * * * * * * * * * * * * * * * * * * * * * * * * * //

dimensions      [0 3 -1 0 0 0 0];

internalField   nonuniform List<scalar> 
5825
(
1.27061e-05
0.000225801
-999.998
-3.72577e-06
0.000220772
-999.998
-4.77696e-05
0.000182888
-999.998
-3.08e-05
0.000139147
-999.998
0.000110962
-999.999
3.02289e-06
0.000186213
-999.998
-3.32035e-05
0.000172449
-999.998
-6.8213e-05
0.000148171
-999.998
-7.1235e-05
0.000129863
-999.998
0.000132722
-999.998
-1.01545e-05
0.000123774
-999.998
-5.94709e-05
0.000110149
-999.998
-8.896e-05
9.64913e-05
-999.998
-8.71023e-05
8.31884e-05
-999.998
7.78826e-05
-999.998
-2.25353e-05
5.59469e-05
-999.997
-7.42547e-05
4.6418e-05
-999.997
-9.868e-05
4.24054e-05
-999.998
-0.000102216
3.74859e-05
-999.998
3.58367e-05
-999.998
-2.9556e-05
-999.997
-7.94388e-05
-999.997
-0.000100862
-999.997
-0.000107513
-999.998
-999.998
2.53684e-05
0.00062098
-999.998
-4.38769e-05
0.000582836
-999.998
-0.000172055
0.000501396
-999.998
-0.000126784
0.00042382
-999.999
0.000362657
-999.999
-6.44638e-06
0.000502193
-999.998
-0.000120366
0.0004623
-999.998
-0.000202862
0.000409676
-999.998
-0.000188546
0.000362392
-999.998
0.000355317
-999.998
-4.40915e-05
0.000333963
-999.998
-0.000176114
0.000303288
-999.998
-0.00024563
0.000277816
-999.998
-0.000237666
0.000250335
-999.998
0.000247781
-999.998
-7.2819e-05
0.000151919
-999.997
-0.000205469
0.000131224
-999.997
-0.000265477
0.000126513
-999.998
-0.000266509
0.00012137
-999.998
0.000131826
-999.998
-8.72061e-05
-999.997
-0.000213431
-999.997
-0.000262821
-999.997
-0.000264391
-999.998
-999.998
-6.14573e-06
0.00101454
-999.998
-0.000175367
0.000961046
-999.998
-0.000342932
0.000891811
-999.999
-0.000356141
0.000856805
-999.999
0.00085866
-999.999
-6.49429e-05
0.000840371
-999.998
-0.000245198
0.000795639
-999.998
-0.000352534
0.000744961
-999.998
-0.000376669
0.000695126
-999.998
0.000703517
-999.998
-0.000107089
0.000575596
-999.997
-0.000300812
0.00054518
-999.997
-0.000390648
0.000519951
-999.998
-0.000403976
0.00049488
-999.998
0.000514975
-999.998
-0.000134022
0.00026993
-999.997
-0.000331647
0.000247497
-999.997
-0.000411806
0.00024659
-999.997
-0.000412947
0.000252992
-999.997
0.000288551
-999.998
-0.000154584
-999.997
-0.000335401
-999.997
-0.000400053
-999.997
-0.000395173
-999.997
-999.997
-0.000110317
0.00145594
-999.998
-0.000337585
0.00142033
-999.998
-0.000505294
0.00138547
-999.998
-0.000626514
0.00138773
-999.999
0.00146172
-999.999
-0.000150609
0.00125212
-999.998
-0.000368218
0.00122543
-999.998
-0.000492888
0.00118522
-999.998
-0.000588415
0.00114582
-999.998
0.0011912
-999.998
-0.000177636
0.000884682
-999.997
-0.000411842
0.000861311
-999.997
-0.000525363
0.00083711
-999.997
-0.000568656
0.000821122
-999.997
0.000873306
-999.998
-0.000203963
0.000426835
-999.997
-0.000440392
0.000404686
-999.997
-0.000540017
0.000408351
-999.997
-0.000559604
0.000429939
-999.997
0.000483393
-999.997
-0.000227729
-999.996
-0.000434107
-999.997
-0.000516135
-999.997
-0.000514888
-999.997
-999.997
-0.000226913
0.00206693
-999.998
-0.000461557
0.00206256
-999.998
-0.000626087
0.00203358
-999.998
-0.000787509
0.0019954
-999.998
0.00205877
-999.999
-0.000234264
0.00179927
-999.997
-0.000481438
0.00178212
-999.997
-0.000633401
0.00174276
-999.997
-0.000770476
0.00170863
-999.998
0.00175042
-999.998
-0.000252996
0.00128214
-999.996
-0.000523018
0.00125708
-999.997
-0.000668167
0.00123711
-999.997
-0.00073918
0.00123888
-999.997
0.00130288
-999.997
-0.000283924
0.000627583
-999.996
-0.000545085
0.000607081
-999.996
-0.000666374
0.000620182
-999.996
-0.000695952
0.000652509
-999.996
0.00071066
-999.997
-0.000308014
-999.996
-0.000530692
-999.996
-0.000631531
-999.996
-0.000645492
-999.996
-999.996
-0.000317162
0.00294045
-999.998
-0.00058528
0.00293936
-999.998
-0.000812095
0.00289113
-999.998
-0.000962718
0.00282529
-999.998
0.00278959
-999.999
-0.000326296
0.00251653
-999.996
-0.000637398
0.00248868
-999.997
-0.000853153
0.00244794
-999.997
-0.000976102
0.00241995
-999.997
0.0024471
-999.998
-0.000356269
0.00178705
-999.995
-0.000674892
0.0017598
-999.996
-0.000872418
0.0017556
-999.996
-0.000985803
0.00177691
-999.996
0.00182947
-999.997
-0.000389718
0.000890397
-999.995
-0.000682643
0.00088343
-999.995
-0.000851609
0.000911106
-999.995
-0.000938919
0.000944878
-999.995
0.000979141
-999.996
-0.000398679
-999.994
-0.000655742
-999.994
-0.000817133
-999.995
-0.000904852
-999.995
-999.996
-0.000420539
0.00409636
-999.997
-0.000822941
0.00406974
-999.997
-0.0011701
0.00402965
-999.998
-0.00138709
0.00400799
-999.998
0.00399275
-999.999
-0.00046473
0.00345246
-999.995
-0.000886763
0.00341662
-999.996
-0.00120482
0.00339304
-999.996
-0.00136549
0.00338886
-999.996
0.00339333
-999.997
-0.000505676
0.00245895
-999.994
-0.000900472
0.00244852
-999.994
-0.00119159
0.00246741
-999.995
-0.00137939
0.00249693
-999.995
0.0025124
-999.996
-0.000526172
0.00126572
-999.993
-0.000886336
0.00128697
-999.993
-0.00116615
0.00131588
-999.994
-0.00136349
0.00132794
-999.994
0.00130619
-999.995
-0.000507498
-999.993
-0.000856704
-999.993
-0.00115198
-999.993
-0.00138041
-999.994
-999.994
-0.00061394
0.00561531
-999.996
-0.00122433
0.00557877
-999.996
-0.00172901
0.00557118
-999.997
-0.00208145
0.00563244
-999.997
0.00570738
-999.999
-0.000670582
0.00472377
-999.994
-0.00123827
0.00470871
-999.994
-0.00169411
0.00471652
-999.995
-0.00200336
0.00473906
-999.995
0.00473131
-999.996
-0.000698263
0.00341097
-999.992
-0.0012264
0.00343122
-999.992
-0.00167135
0.00345567
-999.993
-0.00199716
0.00346144
-999.993
0.00341996
-999.994
-0.00068751
0.00180897
-999.991
-0.00120317
0.00184676
-999.991
-0.00167077
0.00185426
-999.991
-0.00203568
0.00182417
-999.992
0.00174012
-999.993
-0.000650648
-999.99
-0.00119311
-999.99
-0.00169684
-999.991
-0.00210726
-999.991
-999.992
-0.000914326
0.00767908
-999.995
-0.00175259
0.00767172
-999.995
-0.00246134
0.00770793
-999.996
-0.00297485
0.00778573
-999.997
0.00786942
-999.998
-0.000939783
0.00651004
-999.992
-0.00171276
0.00653148
-999.992
-0.00236441
0.00655062
-999.993
-0.00287935
0.0065537
-999.994
0.00656549
-999.995
-0.000934631
0.00475697
-999.989
-0.00169584
0.00479626
-999.989
-0.00236551
0.00479868
-999.99
-0.00287669
0.00475415
-999.991
0.00466751
-999.992
-0.000905163
0.00255124
-999.987
-0.00169292
0.00257908
-999.988
-0.00241011
0.00255176
-999.988
-0.0029633
0.00248413
-999.989
0.00238899
-999.991
-0.000880449
-999.986
-0.00171599
-999.987
-0.00247178
-999.987
-0.00304902
-999.988
-999.99
-0.00129024
0.010538
-999.993
-0.00241558
0.0105686
-999.993
-0.00338259
0.0106042
-999.994
-0.00412172
0.0106521
-999.995
0.0107149
-999.997
-0.00128109
0.00898556
-999.989
-0.00237154
0.00902931
-999.989
-0.00329416
0.00903311
-999.99
-0.00401056
0.00900513
-999.991
0.00902153
-999.993
-0.00125822
0.00658753
-999.985
-0.00237318
0.00662076
-999.986
-0.00332763
0.00659059
-999.987
-0.00403144
0.00650961
-999.988
0.00642075
-999.99
-0.00123892
0.00351727
-999.983
-0.00240246
0.00351888
-999.983
-0.00340435
0.00347071
-999.984
-0.00412644
0.00339951
-999.986
0.00334985
-999.987
-0.00124228
-999.981
-0.00244523
-999.982
-0.0034666
-999.983
-0.00416748
-999.984
-999.986
-0.00176801
0.0144473
-999.99
-0.00330632
0.0144996
-999.991
-0.00458558
0.014515
-999.992
-0.00550512
0.0145279
-999.994
0.014561
-999.995
-0.00174837
0.0123326
-999.985
-0.00328634
0.012378
-999.985
-0.00454445
0.0123616
-999.987
-0.00543792
0.0123097
-999.988
0.0123051
-999.99
-0.00173071
0.00901869
-999.98
-0.00330785
0.00903568
-999.981
-0.00459887
0.0089883
-999.982
-0.00549132
0.00890576
-999.984
0.00885203
-999.986
-0.00173326
0.00477377
-999.977
-0.00335506
0.00475921
-999.978
-0.00467606
0.00471537
-999.979
-0.00555405
0.00467293
-999.98
0.00467854
-999.982
-0.00175503
-999.975
-0.00339175
-999.976
-0.00470669
-999.977
-0.00553998
-999.979
-999.981
-0.00241896
0.019737
-999.987
-0.0045214
0.019805
-999.988
-0.00618171
0.0198115
-999.989
-0.0072922
0.0197864
-999.992
0.0197407
-999.994
-0.00239712
0.0168268
-999.979
-0.00451612
0.0168695
-999.98
-0.00619722
0.016841
-999.982
-0.00733051
0.0167763
-999.984
0.0167337
-999.987
-0.00239229
0.012261
-999.973
-0.00454803
0.0122712
-999.974
-0.00626344
0.0122255
-999.976
-0.00739155
0.0121663
-999.978
0.0121407
-999.981
-0.00240976
0.00645457
-999.969
-0.00459409
0.00644327
-999.97
-0.00631917
0.00641913
-999.971
-0.00742027
0.00640925
-999.974
0.0064217
-999.976
-0.0024307
-999.966
-0.00460861
-999.967
-0.00631469
-999.969
-0.00739423
-999.971
-999.974
-0.00328814
0.0269007
-999.982
-0.00614894
0.0269806
-999.983
-0.00837746
0.0269767
-999.985
-0.00983062
0.0269214
-999.989
0.0268247
-999.992
-0.00327003
0.0228938
-999.972
-0.00615586
0.0229372
-999.973
-0.00843039
0.0229006
-999.976
-0.00992917
0.022836
-999.979
0.0227866
-999.982
-0.00327964
0.016641
-999.964
-0.00619569
0.0166556
-999.965
-0.00849615
0.0166223
-999.967
-0.00998271
0.0165908
-999.97
0.0165712
-999.974
-0.00330382
0.00874593
-999.958
-0.00622974
0.00875129
-999.959
-0.00852547
0.00874907
-999.961
-0.0100006
0.00875358
-999.964
0.00874618
-999.968
-0.00331147
-999.954
-0.00621964
-999.955
-0.00850251
-999.958
-0.00998684
-999.961
-999.964
-0.0044317
0.0366136
-999.976
-0.00834307
0.0366906
-999.977
-0.0114237
0.0366564
-999.98
-0.0134011
0.0365809
-999.985
0.0364744
-999.99
-0.00443822
0.0311255
-999.962
-0.00837871
0.0311695
-999.964
-0.0114925
0.0311277
-999.967
-0.0135181
0.0310743
-999.971
0.0310369
-999.976
-0.00446753
0.0226013
-999.951
-0.00842497
0.0226288
-999.952
-0.0115463
0.0226134
-999.955
-0.0135636
0.0226009
-999.96
0.0225874
-999.965
-0.00449261
0.0118844
-999.942
-0.00844154
0.0119129
-999.944
-0.0115562
0.0119238
-999.947
-0.0135766
0.011925
-999.951
0.0119131
-999.956
-0.00448247
-999.938
-0.0084139
-999.939
-0.0115298
-999.943
-0.0135587
-999.947
-999.952
-0.00598419
0.0497999
-999.967
-0.0113613
0.0498669
-999.969
-0.0156221
0.0498018
-999.973
-0.0183098
0.0497204
-999.979
0.0496049
-999.986
-0.00603173
0.0423256
-999.949
-0.0114289
0.0423776
-999.951
-0.0156946
0.042341
-999.955
-0.0184389
0.0423024
-999.961
0.042274
-999.968
-0.00607869
0.0307371
-999.933
-0.0114704
0.0307884
-999.935
-0.0157319
0.0307868
-999.939
-0.0184807
0.0307753
-999.945
0.0307607
-999.952
-0.0060983
0.0161813
-999.922
-0.0114738
0.0162302
-999.924
-0.0157404
0.0162375
-999.928
-0.0184979
0.0162207
-999.934
0.016194
-999.941
-0.00607406
-999.915
-0.0114431
-999.918
-0.0157216
-999.922
-0.0184843
-999.928
-999.935
-0.008147
0.0677412
-999.955
-0.0155363
0.0678195
-999.958
-0.0213782
0.0677567
-999.964
-0.0250878
0.0676955
-999.972
0.0676339
-999.982
-0.00822591
0.0575989
-999.93
-0.0156061
0.0576822
-999.933
-0.0214351
0.0576561
-999.939
-0.0251553
0.0576198
-999.947
0.0575711
-999.957
-0.00827596
0.0418593
-999.909
-0.0156374
0.0419411
-999.912
-0.0214701
0.0419327
-999.918
-0.0252139
0.0418919
-999.926
0.0418257
-999.935
-0.00828986
0.0220552
-999.893
-0.0156487
0.0221156
-999.896
-0.0215084
0.0221021
-999.902
-0.0252814
0.022051
-999.91
0.0219796
-999.92
-0.00826137
-999.885
-0.0156296
-999.888
-0.0215104
-999.894
-0.0252972
-999.902
-999.912
-0.0111468
0.0921988
-999.94
-0.0212259
0.0923332
-999.944
-0.0291652
0.0922856
-999.952
-0.0342415
0.0922223
-999.963
0.0921867
-999.975
-0.0112262
0.0784651
-999.905
-0.0212853
0.0786001
-999.91
-0.0292307
0.0785576
-999.918
-0.0342848
0.0784738
-999.928
0.0783441
-999.941
-0.0112716
0.0570687
-999.876
-0.0213348
0.0571782
-999.881
-0.0293147
0.0571319
-999.888
-0.0344189
0.0570258
-999.899
0.056876
-999.912
-0.0112914
0.0300791
-999.855
-0.0213852
0.0301459
-999.859
-0.0294191
0.0300963
-999.867
-0.0345659
0.0300063
-999.878
0.0299069
-999.891
-0.0112673
-999.844
-0.0213899
-999.848
-0.0294431
-999.856
-0.0345881
-999.867
-999.88
-0.0152282
0.125601
-999.918
-0.0288915
0.125819
-999.924
-0.0396542
0.125726
-999.935
-0.046523
0.125562
-999.949
0.125377
-999.967
-0.0153002
0.106987
-999.872
-0.0290007
0.107171
-999.877
-0.0398235
0.107056
-999.888
-0.0467175
0.106855
-999.903
0.106603
-999.92
-0.01536
0.0778546
-999.832
-0.0291258
0.0779856
-999.838
-0.040027
0.0778678
-999.849
-0.0469719
0.0776744
-999.864
0.0774609
-999.881
-0.0154049
0.0410382
-999.803
-0.0292494
0.0411002
-999.809
-0.0402183
0.0410049
-999.82
-0.0471807
0.040889
-999.835
0.0407787
-999.852
-0.0154018
-999.787
-0.029284
-999.793
-0.0402455
-999.804
-0.047187
-999.819
-999.837
-0.0207338
0.171236
-999.889
-0.0392887
0.171518
-999.897
-0.0539293
0.171294
-999.912
-0.0632811
0.17094
-999.932
0.170525
-999.955
-0.0208449
0.145937
-999.826
-0.0395355
0.146153
-999.834
-0.0542897
0.145908
-999.848
-0.0637029
0.14554
-999.869
0.145153
-999.892
-0.0209608
0.10623
-999.771
-0.0397954
0.106367
-999.779
-0.0546615
0.106149
-999.794
-0.0640928
0.10586
-999.815
0.10557
-999.839
-0.0210644
0.0559835
-999.732
-0.0400224
0.0560229
-999.74
-0.0549475
0.0558901
-999.755
-0.0643769
0.0557466
-999.775
0.0555873
-999.799
-0.0211058
-999.71
-0.0400733
-999.718
-0.0549721
-999.734
-0.0643979
-999.754
-999.778
-0.0282093
0.233481
-999.85
-0.0534985
0.233795
-999.86
-0.0734419
0.233373
-999.88
-0.0861915
0.232769
-999.908
0.232109
-999.939
-0.028429
0.199063
-999.763
-0.0539502
0.199286
-999.774
-0.0740573
0.198859
-999.794
-0.0868588
0.19828
-999.822
0.197687
-999.854
-0.0286594
0.144932
-999.689
-0.0544009
0.145055
-999.7
-0.074642
0.144718
-999.72
-0.087453
0.144294
-999.748
0.14384
-999.781
-0.0288653
0.0763554
-999.634
-0.0547513
0.0763848
-999.646
-0.0750627
0.076216
-999.666
-0.0879011
0.0760002
-999.694
0.0757466
-999.727
-0.0289456
-999.605
-0.0548101
-999.616
-0.0751203
-999.637
-0.0879693
-999.666
-999.699
-0.0384205
0.318285
-999.796
-0.0729044
0.318608
-999.811
-0.100051
0.317908
-999.838
-0.11732
0.316964
-999.875
0.315956
-999.918
-0.0388237
0.271528
-999.677
-0.0736441
0.271736
-999.692
-0.10101
0.271056
-999.72
-0.118342
0.270163
-999.758
0.26919
-999.801
-0.0392356
0.197773
-999.576
-0.0743564
0.197886
-999.591
-0.101915
0.197377
-999.619
-0.119321
0.196703
-999.657
0.195942
-999.702
-0.0395712
0.104218
-999.502
-0.0748831
0.104268
-999.517
-0.10259
0.104007
-999.545
-0.120077
0.103644
-999.584
0.103231
-999.629
-0.0396714
-999.462
-0.0749986
-999.477
-0.102743
-999.505
-0.120241
-999.544
-999.59
-0.0524061
0.433915
-999.723
-0.0993813
0.434241
-999.743
-0.13629
0.433146
-999.78
-0.159589
0.431705
-999.831
0.430123
-999.89
-0.0530683
0.370557
-999.561
-0.100529
0.370741
-999.582
-0.137751
0.369671
-999.619
-0.161192
0.36823
-999.671
0.366591
-999.731
-0.0537288
0.27015
-999.422
-0.101649
0.270249
-999.443
-0.139215
0.269416
-999.481
-0.162848
0.26828
-999.534
0.266986
-999.595
-0.0542407
0.142485
-999.32
-0.102512
0.142537
-999.341
-0.14036
0.142075
-999.38
-0.164146
0.14145
-999.433
0.140723
-999.495
-0.0543983
-999.265
-0.102781
-999.286
-0.140705
-999.325
-0.164543
-999.379
-999.442
-0.0715568
0.591897
-999.625
-0.135503
0.592222
-999.652
-0.185604
0.59051
-999.703
-0.216988
0.588226
-999.772
0.585634
-999.852
-0.0725758
0.50627
-999.403
-0.137291
0.506377
-999.431
-0.18792
0.504612
-999.483
-0.219618
0.502216
-999.553
0.499489
-999.635
-0.0736218
0.369613
-999.212
-0.139134
0.369614
-999.241
-0.190359
0.368179
-999.294
-0.222388
0.366238
-999.366
0.364013
-999.449
-0.0744582
0.195176
-999.071
-0.140619
0.195155
-999.1
-0.192323
0.194344
-999.155
-0.224637
0.193233
-999.228
0.19193
-999.313
-0.0747697
-998.995
-0.141174
-999.024
-0.193063
-999.079
-0.225503
-999.154
-999.24
-0.0977129
0.808093
-999.492
-0.184812
0.808291
-999.53
-0.252756
0.805503
-999.599
-0.294963
0.801778
-999.693
0.797554
-999.801
-0.0993448
0.6927
-999.189
-0.187715
0.692535
-999.227
-0.256539
0.689551
-999.298
-0.299261
0.685545
-999.395
0.681005
-999.506
-0.101087
0.506689
-998.925
-0.190821
0.506399
-998.965
-0.260628
0.503912
-999.038
-0.303894
0.500548
-999.137
0.496698
-999.252
-0.102525
0.267932
-998.73
-0.193391
0.267721
-998.771
-0.264048
0.266279
-998.846
-0.307805
0.264293
-998.948
0.262023
-999.066
-0.103136
-998.624
-0.194498
-998.665
-0.265546
-998.742
-0.309506
-998.846
-998.965
-0.133511
1.1042
-999.314
-0.252243
1.10396
-999.366
-0.344183
1.09935
-999.461
-0.400602
1.09321
-999.588
1.08628
-999.734
-0.13624
0.949442
-998.898
-0.257031
0.948619
-998.951
-0.350427
0.943522
-999.049
-0.407673
0.936701
-999.181
0.929004
-999.332
-0.13922
0.696333
-998.532
-0.262327
0.695387
-998.588
-0.357408
0.691012
-998.69
-0.415562
0.685122
-998.828
0.678486
-998.985
-0.141742
0.368882
-998.26
-0.266847
0.368247
-998.318
-0.363414
0.365666
-998.424
-0.422337
0.362206
-998.566
0.358322
-998.729
-0.142936
-998.112
-0.268996
-998.171
-0.366247
-998.279
-0.425497
-998.424
-998.589
-0.182685
1.51034
-999.078
-0.34445
1.50915
-999.149
-0.46838
1.50141
-999.279
-0.543138
1.49108
-999.451
1.47944
-999.648
-0.18726
1.30441
-998.504
-0.352466
1.30216
-998.579
-0.478917
1.29326
-998.714
-0.555058
1.28139
-998.895
1.26817
-999.1
-0.192465
0.96025
-997.996
-0.361705
0.957879
-998.075
-0.491089
0.950079
-998.218
-0.568673
0.939723
-998.408
0.928247
-998.624
-0.197002
0.509969
-997.613
-0.369762
0.508451
-997.696
-0.501682
0.503871
-997.846
-0.580452
0.497818
-998.046
0.491104
-998.27
-0.199299
-997.402
-0.373803
-997.488
-0.506947
-997.642
-0.586274
-997.847
-998.077
-0.250191
2.06884
-998.767
-0.470453
2.06557
-998.865
-0.636757
2.05222
-999.042
-0.73497
2.03442
-999.276
2.01484
-999.539
-0.258052
1.798
-997.975
-0.484256
1.79265
-998.08
-0.654929
1.7768
-998.268
-0.755122
1.75579
-998.516
1.73292
-998.794
-0.26743
1.33058
-997.261
-0.5007
1.32521
-997.374
-0.676493
1.31119
-997.576
-0.778807
1.29266
-997.843
1.27267
-998.138
-0.275771
0.709146
-996.716
-0.515198
0.705828
-996.837
-0.695462
0.697614
-997.052
-0.799445
0.686705
-997.336
0.675038
-997.646
-0.280164
-996.413
-0.522772
-996.539
-0.705396
-996.762
-0.810085
-997.056
-997.375
-0.34275
2.83919
-998.366
-0.642941
2.83129
-998.5
-0.86439
2.80784
-998.745
-0.991828
2.77655
-999.059
2.74376
-999.407
-0.356821
2.48972
-997.269
-0.667157
2.47777
-997.416
-0.896327
2.44925
-997.68
-1.02586
2.41123
-998.022
2.37181
-998.393
-0.374216
1.85615
-996.253
-0.696778
1.84442
-996.418
-0.935306
1.81903
-996.708
-1.06702
1.78499
-997.085
1.75059
-997.485
-0.389944
0.994077
-995.464
-0.723129
0.986879
-995.647
-0.970091
0.972071
-995.958
-1.10282
0.951901
-996.37
0.932083
-996.794
-0.398566
-995.02
-0.737277
-995.214
-0.989016
-995.538
-1.12162
-995.971
-996.409
-0.469328
3.90595
-997.868
-0.880111
3.88786
-998.047
-1.17
3.84671
-998.393
-1.33278
3.78963
-998.804
3.73612
-999.259
-0.49544
3.46981
-996.337
-0.922795
3.44354
-996.544
-1.22787
3.3923
-996.921
-1.38926
3.32089
-997.392
3.25489
-997.876
-0.528762
2.61355
-994.868
-0.976391
2.58773
-995.114
-1.30049
2.54219
-995.533
-1.45921
2.47686
-996.082
2.42022
-996.605
-0.559588
1.40868
-993.699
-1.02421
1.39275
-993.987
-1.36645
1.3669
-994.441
-1.51895
1.3278
-995.068
1.29603
-995.617
-0.577029
-993.035
-1.04973
-993.348
-1.40338
-993.817
-1.55019
-994.496
-995.055
-0.639603
5.39197
-997.3
-1.20945
5.35093
-997.52
-1.57318
5.28067
-998.033
-1.77823
5.16907
-998.541
5.08962
-999.113
-0.690422
4.88014
-995.135
-1.28392
4.82122
-995.421
-1.68449
4.73208
-995.972
-1.86561
4.58841
-996.63
4.48758
-997.206
-0.757065
3.72761
-992.958
-1.37954
3.66819
-993.339
-1.82667
3.59118
-993.945
-1.977
3.45436
-994.798
3.37342
-995.387
-0.820659
2.02539
-991.176
-1.46296
1.98795
-991.665
-1.95914
1.94807
-992.302
-2.06795
1.86384
-993.369
1.82253
-993.932
-0.857422
-990.152
-1.50384
-990.714
-2.03514
-991.338
-2.11421
-992.553
-993.077
-0.854517
7.48453
-996.817
-1.67778
7.38694
-997
-2.07923
7.28047
-997.871
-2.33986
7.03215
-998.373
6.95409
-999.021
-0.961109
6.95444
-993.644
-1.80293
6.81507
-994.007
-2.32009
6.67764
-994.852
-2.4513
6.35202
-995.819
6.24539
-996.284
-1.10296
5.4114
-990.312
-1.96249
5.26165
-990.926
-2.61735
5.15965
-991.772
-2.61329
4.82705
-993.277
4.77106
-993.57
-1.24333
2.96852
-987.49
-2.09032
2.86864
-988.424
-2.90071
2.83736
-989.169
-2.73718
2.62275
-991.328
2.61401
-991.328
-1.3255
-985.858
-2.14459
-987.026
-3.06325
-987.582
-2.79811
-990.196
-989.951
-1.10054
10.5056
-996.949
-2.37291
10.249
-996.777
-2.6384
10.161
-998.597
-2.98486
9.49448
-998.617
9.61725
-999.108
-1.3161
10.1006
-991.923
-2.56897
9.74061
-992.246
-3.23063
9.6154
-993.645
-3.11636
8.77179
-995.211
8.85365
-994.862
-1.64318
8.04819
-986.616
-2.79075
7.62094
-987.659
-3.85888
7.62882
-988.718
-3.35652
6.69759
-991.706
6.91572
-990.627
-1.9718
4.46105
-981.931
-2.99462
4.1598
-983.94
-4.46684
4.28256
-984.351
-3.52682
3.66625
-989.237
3.86887
-987.04
-2.15491
-979.242
-3.07762
-981.944
-4.80007
-981.577
-3.60438
-987.725
-984.701
-1.37173
15.0222
-998.917
-3.44079
14.3428
-997.553
-3.11023
14.5702
-1001.92
-3.57218
12.6128
-1000.04
13.6725
-999.632
-1.75638
15.0675
-990.211
-3.73757
14.0549
-989.976
-4.54007
14.3024
-992.574
-3.92664
12.0323
-995.244
12.8964
-992.571
-2.50724
12.3633
-981.405
-4.02024
11.0879
-983.179
-5.76692
11.7482
-984.417
-4.26876
9.08983
-990.261
10.3469
-985.746
-3.2592
6.9136
-973.222
-4.47239
6.00997
-977.649
-7.04525
6.76152
-976.791
-4.49158
5.03468
-987.736
5.95419
-979.888
-3.6385
-968.69
-4.59457
-974.978
-7.69235
-971.718
-4.56786
-985.815
-975.748
-1.65514
21.7086
-1004.84
-5.17585
20.1218
-1000.37
-3.06416
21.4057
-1011.33
-3.80972
16.2016
-1003.79
20.0503
-1000.78
-2.20961
23.2333
-989.527
-5.60907
20.4056
-986.861
-6.28041
22.0647
-992.562
-5.07086
16.442
-996.694
19.3537
-988.919
-3.85524
19.746
-974.062
-6.07345
16.1593
-976.714
-8.50167
18.9019
-978.826
-5.38812
11.7046
-988.637
15.9874
-977.57
-5.54527
11.0688
-959
-7.12065
8.52645
-968.441
-11.2886
11.1827
-964.904
-5.62233
6.68827
-988.385
9.53711
-968.003
-6.32551
-951.295
-7.19372
-965.583
-12.4958
-955.233
-5.60909
-986.014
-960.491
-2.02875
31.0922
-1018.09
-8.44468
27.9468
-1006.25
-1.44621
31.6356
-1034.14
-2.92051
19.3135
-1011.09
30.0161
-1001.86
-2.27948
37.3894
-993.544
-8.96877
29.8759
-982.101
-8.33859
35.5023
-997.059
-6.94022
22.8105
-1001.59
29.8792
-982.867
-5.86708
32.9567
-963.763
-9.65326
23.5352
-966.587
-11.9077
31.9086
-972.978
-6.56337
13.7982
-984.969
25.391
-963.506
-9.76694
18.2889
-934.565
-12.2113
11.5978
-954.059
-18.531
19.3821
-946.058
-6.73772
8.33135
-994.712
15.8198
-948.063
-11.4139
-921.592
-11.7664
-953.633
-20.6202
-926.997
-6.39885
-991.904
-934.589
-2.75532
43.077
-1043.75
-15.2322
38.6668
-1015.88
6.59555
46.7013
-1088.89
1.89765
19.862
-1022
46.2294
-998.9
-0.904966
63.9086
-1013.47
-15.5706
45.3357
-974.104
-10.1395
60.9451
-1016.73
-10.8216
32.7691
-1013.82
47.4343
-970.473
-8.75745
58.8102
-949.907
-16.0626
34.5315
-948.478
-14.7602
57.4562
-970.792
-6.95774
13.3225
-973.325
41.4464
-938.052
-18.2752
31.6124
-889.092
-22.9698
14.7553
-929.589
-31.6291
35.6967
-915.639
-6.99379
8.10667
-1014.13
27.0902
-913.148
-21.8377
-868.142
-20.3281
-940.387
-34.8098
-876.819
-5.54529
-1013.06
-890.313
5.28395
55.4219
-1103.08
-23.1606
54.5853
-1025.05
29.8461
66.8498
-1209.83
25.991
11.6936
-1059.53
74.4736
-967.783
19.914
135.563
-1113.53
-17.6051
84.887
-966.887
-4.34446
114.428
-1077.57
-20.0241
52.9606
-1039.4
76.2348
-923.808
-5.7995
127.049
-935.594
-24.3083
56.1595
-901.242
-14.2305
111.362
-977.803
-1.08167
6.33503
-939.849
68.3259
-882.624
-37.3189
62.9915
-787.716
-45.3721
19.6823
-885.059
-57.6302
70.9644
-862.984
-2.82217
-7.87552
-1054.73
44.9849
-840.417
-45.9757
-759.176
-41.1048
-925.576
-72.1219
-774.838
8.62599
-1101.69
-813.345
-36.965
49.2299
-1121.78
-77.7355
55.7716
-1029.26
57.4424
83.9777
-1462.85
13.7425
15.1945
-1038.05
87.4998
-900.112
-1.6408
139.26
-1201.92
-73.793
66.9161
-905.879
-29.6166
155.38
-1193.15
-74.2336
44.7814
-1024.37
99.5094
-940.587
-36.3904
111.257
-871.201
-56.2585
28.521
-842.979
-13.5495
149.157
-1014.29
-35.4426
-28.8143
-844.36
91.1468
-863.077
-50.8078
42.731
-668.382
-81.3629
-14.7326
-811.25
-91.0899
78.1382
-782.239
-14.5819
-5.59823
-1154.45
42.3551
-762.255
-54.5124
-661.932
-39.7393
-955.082
-67.4248
-669.014
-22.6312
-1152.08
-778.458
43.3693
-6.24266
-1405.88
-153.016
146.259
-950.194
269.443
116.759
-2309.58
271.32
-61.4972
-1343
278.67
-492.765
271.038
678.505
-2157.7
-12.5161
328.507
-804.573
125.84
519.954
-1734.7
-114.984
211.368
-1056.41
217.23
-428.587
41.4839
659.981
-894.161
-89.2063
137.591
-521.373
72.2636
528.2
-1184
136.696
-161.555
-535.87
244.837
-555.481
-201.71
310.854
-117.545
-212.633
-6.19439
-656.542
-162.957
377.662
-681.376
123.685
-247.585
-1355.07
281.293
-382.966
-239.039
-112.039
-200.442
-999.874
-287.027
-204.767
304.5
-1991.19
-208.74
-294.96
89.7333
-1059.74
-184.497
8.20116
-1108.31
160.027
83.5719
-2822.88
14.0628
41.8464
-1007.68
62.6608
-242.047
-243.249
-73.789
-1750.93
-264.058
-47.4473
-728.115
-238.988
189.33
-1865.53
-123.526
-150.82
-979.21
67.0886
-980.365
-238.189
-167.481
-562.28
-104.193
-108.934
-593.883
-62.2906
149.147
-1185.72
-215.675
-160.65
-372.655
-0.702372
-744.496
-22.0353
-149.31
-113.68
-180.413
-199.441
-407.657
-287.418
-33.2528
-391.972
-14.7339
267.99
-2056.39
-417.846
-169.377
-68.6278
-192.722
130.294
-1398.24
-84.1886
-23.5372
-461.911
-1345.48
-1301.45
-10.5743
-21.7719
-1041.27
-196.018
15.7069
-924.51
-22.1832
-9.41745
-3110.62
6.50506
10.6639
-1064.39
21.4397
-78.516
59.5069
15.506
-1847.72
-55.7383
-14.8757
-582.287
29.1838
132.447
-2092.32
-299.469
16.2912
-656.184
-17.4244
-813.604
3.49211
1.02693
-551.293
-6.09302
-9.78978
-589.384
18.815
28.9476
-1107.13
15.63
-84.7994
-268.38
-9.89671
-731.115
-1.85874
1.64756
-112.442
1.63383
0.343875
-421.284
13.3665
-0.790941
-373.966
30.574
-93.2618
-2065.14
118.258
-214.395
0.938815
-192.013
21.8706
-1418.82
0.303102
-2.76071
180.83
-1619.26
-1104.64
521.527
296.015
-2010.07
167.656
-151.503
-371.523
-558.078
110.837
-2107
-581.366
-186.403
-984.339
14.6109
-956.226
-0.243398
156.259
-1707.72
540.513
31.0078
-1305.55
197.735
-278.875
-1359.82
66.224
-78.8547
-632.222
-63.3077
-3.0732
168.175
56.3357
-619.545
70.1131
-77.4533
-382.861
-64.8489
-286.023
-965.022
-17.2048
-170.672
-224.207
-30.497
-729.189
-50.7641
-0.766777
-4.57543
33.1007
352.081
-934.683
26.9618
-4.95584
-648.894
35.4527
69.028
-2313.33
1.63739
-396.373
222.053
-414.833
80.1057
-924.796
78.7751
-6.38601
164.993
-1636.45
-946.223
240.33
84.8447
-2461.25
23.9181
54.2303
-214.984
18.9281
15.5576
-2135.05
-58.4903
-83.7985
-817.022
-12.6887
-1271.37
360.722
-114.334
-1869.26
444.32
-99.8415
-1235.08
-120.591
-126.888
-652.468
-19.6669
-7.2888
-809.655
-107.319
-157.653
80.9631
2.35186
-817.194
177.726
-35.9934
-543.472
45.3412
-296.019
-663.507
-80.0782
-83.9349
-22.1412
-59.1191
-1104.59
-30.2242
32.7031
-4.70239
67.7432
249.129
-1317.77
-257.873
-11.0039
-608.292
-26.0925
185.854
-2814.9
-380.566
-275.902
135.242
-517.372
15.6447
-556.069
5.65342
-7.39846
-509.065
-935.881
-1624.28
-961.306
219.465
-1166.52
34.5258
81.5984
-1424.42
151.66
263.962
-2757.82
-109.371
271.423
-663.054
134.83
-2330.33
191.367
-392.011
-1449.15
-29.1808
-74.2557
-858.679
-16.7772
139.38
-540.29
54.572
-39.0388
-570.543
49.4896
-236.831
-31.0872
-12.749
-1165.37
159.636
13.4778
-821.929
-47.5439
-68.4316
-248.514
-185.09
347.393
-271.027
19.9911
-831.904
102.348
10.4621
-130.261
127.777
-185.253
-1144.47
-5.41978
-77.4549
-466.072
-23.6336
-33.7897
-2415.5
-192.733
-21.9775
-84.3923
-422.518
4.46973
-830.184
38.0045
-118.388
-298.567
-633.099
-1252.98
-200.421
-2.32579
-1059.16
-62.709
-286.813
-1651.79
-345.054
144.405
-2014.08
-531.809
55.7829
-561.526
-638.714
-2733.83
-77.1137
-22.5414
-1351.82
-128.464
-329.016
-765.125
80.8582
27.3755
-632.582
-22.7254
-0.500527
-410.675
2.58457
-903.503
-120.6
-127.135
-940.174
101.361
77.0756
-1449.98
0.525098
-1.4684
-118.835
48.9386
462.741
-782.682
0.353725
-831.8
86.3908
21.9449
-365.733
-1.88376
-148.386
-830.734
332.158
-47.7871
-753.796
53.439
143.401
-1817.44
102.952
-106.117
-160.599
-239.974
-439.587
-699.581
107.723
-713.485
-188.824
-193.152
-511.353
-140.192
-25.6676
-1018.92
164.727
39.9383
-2028.41
-67.0415
-354.668
-996.703
561.999
-13.1625
-1380.71
-468.911
-927.175
59.8657
-283.331
-1154.02
-98.6957
-409.028
-157.596
22.7324
-86.5527
-1022.13
106.238
-0.708058
-506.635
-331.744
-1179.29
-163.409
-171.118
-888.979
15.5623
-231.73
-1806.25
68.1631
-140.161
-117.827
-79.8767
-138.804
-496.547
-213.101
-756.42
-77.3181
34.5493
-494.082
-35.9579
121.956
-1225.78
55.1879
-135.884
-849.218
-12.82
0.581705
-1888.82
36.3963
-395.955
-3.16689
-202.258
-136.32
-444.472
86.7632
-1072.45
60.6107
-166.418
-207.589
534.07
161.222
-1931.27
447.08
204.384
-1757.08
-93.9451
-212.702
-400.125
-207.756
57.4949
-997.522
238.583
-1355.36
-278.54
-231.244
-483.015
4.71262
-67.7014
-168.764
13.6732
-234.75
-1009.04
39.8574
-60.8178
-414.506
128.848
-684.107
-359.861
-172.289
-588.073
-52.0444
374.734
-2556.5
9.33547
28.6469
-442.604
16.8944
-9.84375
-555.08
-69.4473
-16.5386
-240.21
-177.68
-248.481
-323.165
83.3644
-851.456
-112.271
-15.3039
-1016.16
-273.504
-82.3912
-1655.04
143.054
-1087.94
16.7421
-396.679
-74.7219
-269.643
-0.857829
-1161.62
60.7017
-310.369
-249.108
1011.7
-477.093
-3530.89
-9.47926
-33.6257
-509.314
-17.931
-115.057
-79.8419
-113.969
1.78605
-1031.64
94.7565
-1270.22
54.4006
0.331984
-1014.84
69.2581
286.192
-503.439
-24.3506
-475.895
-554.591
1.06261
48.2675
-486.401
1.92325
-671.202
606.207
4.5284
-1198.48
247.076
424.352
-2335.53
104.452