/*--------------------------------*- C++ -*----------------------------------*\
  =========                 |
  \\      /  F ield         | OpenFOAM: The Open Source CFD Toolbox
   \\    /   O peration     | Website:  https://openfoam.org
    \\  /    A nd           | Version:  9
     \\/     M anipulation  |
\*---------------------------------------------------------------------------*/
FoamFile
{
    format      ascii;
    class       volVectorField;
    location    "20000";
    object      U;
}
// * * * * * * * * * * * * * * * * * * * * * * * * * * * * * * * * * * * * * //

dimensions      [0 1 -1 0 0 0 0];

internalField   nonuniform List<vector> 
9000
(
(-1.34392e-12 2.37671e-11 -0.001)
(-2.21145e-11 1.874e-11 -0.001)
(-5.60128e-11 1.91442e-11 -0.001)
(-5.86712e-11 2.03792e-11 -0.001)
(-6.76961e-11 1.01039e-11 -0.001)
(-8.13402e-11 1.52655e-11 -0.001)
(-6.7624e-11 1.5975e-11 -0.001)
(-5.06639e-11 1.81727e-11 -0.001)
(-3.06655e-11 1.95887e-11 -0.001)
(-1.05258e-11 1.63722e-11 -0.001)
(-6.42008e-12 4.76225e-11 -0.001)
(-2.68437e-11 3.96738e-11 -0.001)
(-5.44766e-11 3.94276e-11 -0.001)
(-6.79036e-11 4.50574e-11 -0.001)
(-7.30619e-11 2.77372e-11 -0.001)
(-7.56988e-11 4.41662e-11 -0.001)
(-6.49035e-11 4.56693e-11 -0.001)
(-4.71594e-11 4.94856e-11 -0.001)
(-3.2501e-11 4.71079e-11 -0.001)
(-1.37298e-11 4.45345e-11 -0.001)
(-9.36326e-12 5.84133e-11 -0.001)
(-3.04501e-11 5.79014e-11 -0.001)
(-5.07484e-11 6.4179e-11 -0.001)
(-7.05363e-11 7.24204e-11 -0.001)
(-6.87932e-11 7.22076e-11 -0.001)
(-6.3658e-11 8.2399e-11 -0.001)
(-6.2465e-11 7.43165e-11 -0.001)
(-4.93262e-11 7.02805e-11 -0.001)
(-3.55924e-11 6.90977e-11 -0.001)
(-1.30266e-11 7.38859e-11 -0.001)
(-7.04196e-12 8.85581e-11 -0.001)
(-2.11951e-11 9.72303e-11 -0.001)
(-3.99632e-11 1.0844e-10 -0.001)
(-5.98785e-11 1.09428e-10 -0.001)
(-6.31533e-11 7.15218e-11 -0.001)
(-7.3594e-11 1.33748e-10 -0.001)
(-7.69638e-11 9.50955e-11 -0.001)
(-5.23769e-11 8.73133e-11 -0.001)
(-2.87559e-11 9.86065e-11 -0.001)
(-8.81385e-12 1.08508e-10 -0.001)
(-8.97537e-13 1.21855e-10 -0.000999999)
(-1.07521e-11 1.29289e-10 -0.000999999)
(-3.85578e-11 1.44893e-10 -0.000999999)
(-1.07457e-10 1.40735e-10 -0.001)
(-4.45322e-11 1.52797e-10 -0.001)
(-4.00489e-11 5.8156e-11 -0.001)
(-1.08946e-10 1.1003e-10 -0.001)
(-4.58069e-11 1.13405e-10 -0.001)
(-1.41885e-11 1.27867e-10 -0.001)
(-2.9519e-12 1.33452e-10 -0.001)
(1.54157e-13 1.46217e-10 -0.000999999)
(1.59526e-12 1.43422e-10 -0.000999999)
(-2.85251e-11 1.35021e-10 -0.000999999)
(-5.20921e-11 1.22529e-10 -0.000999999)
(-1.45774e-10 1.49449e-10 -0.000999999)
(-1.16453e-10 7.43193e-11 -0.001)
(-2.1723e-11 1.30018e-10 -0.001)
(-3.44844e-11 1.43533e-10 -0.001)
(-8.42124e-12 1.46519e-10 -0.001)
(-2.95895e-12 1.44747e-10 -0.001)
(-3.91214e-12 1.5237e-10 -0.000999999)
(-2.22151e-11 1.43156e-10 -0.000999999)
(-5.94537e-11 1.14903e-10 -0.000999999)
(-9.3139e-11 9.97326e-11 -0.000999999)
(-9.28174e-11 7.29092e-11 -0.000999999)
(-5.94005e-11 1.53254e-10 -0.000999999)
(-3.95635e-11 1.32755e-10 -0.000999999)
(-2.92595e-11 1.47567e-10 -0.001)
(-1.26679e-11 1.44878e-10 -0.001)
(-4.40995e-12 1.40113e-10 -0.001)
(-9.30438e-12 1.24079e-10 -0.000999998)
(-3.61506e-11 1.1377e-10 -0.000999999)
(-7.19509e-11 1.03354e-10 -0.000999999)
(-9.40866e-11 9.98984e-11 -0.000999999)
(-9.22188e-11 1.04997e-10 -0.000999999)
(-5.64578e-11 1.10586e-10 -0.000999999)
(-2.73966e-11 1.16076e-10 -0.000999999)
(-2.23463e-11 1.2245e-10 -0.000999999)
(-1.55938e-11 1.19486e-10 -0.000999999)
(-7.43913e-12 1.12606e-10 -0.000999999)
(-1.44409e-11 7.17302e-11 -0.000999998)
(-4.31888e-11 6.85009e-11 -0.000999998)
(-7.3326e-11 6.5335e-11 -0.000999998)
(-9.14942e-11 6.82313e-11 -0.000999999)
(-8.21255e-11 7.82219e-11 -0.000999999)
(-4.83126e-11 8.44476e-11 -0.000999999)
(-2.76916e-11 8.45638e-11 -0.000999999)
(-2.58428e-11 7.99979e-11 -0.000999999)
(-2.22911e-11 7.27704e-11 -0.000999999)
(-1.10587e-11 6.70106e-11 -0.000999999)
(-1.26397e-11 2.16841e-11 -0.000999998)
(-4.26024e-11 2.35033e-11 -0.000999998)
(-7.20797e-11 2.22298e-11 -0.000999998)
(-8.10227e-11 2.46129e-11 -0.000999999)
(-7.58475e-11 3.249e-11 -0.000999999)
(-4.99872e-11 3.0734e-11 -0.000999999)
(-3.17296e-11 3.07017e-11 -0.000999999)
(-3.40496e-11 2.65759e-11 -0.000999999)
(-2.83809e-11 2.24276e-11 -0.000999999)
(-1.30338e-11 2.03884e-11 -0.000999999)
(-1.19557e-11 6.4443e-11 -0.001)
(-7.5878e-11 5.23627e-11 -0.001)
(-1.59824e-10 5.33237e-11 -0.001)
(-1.81199e-10 5.25674e-11 -0.001)
(-2.12701e-10 3.2477e-11 -0.001)
(-2.33586e-10 4.26518e-11 -0.001)
(-1.91493e-10 5.08534e-11 -0.001)
(-1.48391e-10 5.24468e-11 -0.001)
(-1.01424e-10 5.08985e-11 -0.001)
(-3.82558e-11 4.63066e-11 -0.001)
(-2.41725e-11 1.37945e-10 -0.001)
(-8.72792e-11 1.18318e-10 -0.001)
(-1.5993e-10 1.1991e-10 -0.001)
(-2.02634e-10 1.2894e-10 -0.001)
(-2.23329e-10 1.03499e-10 -0.001)
(-2.15753e-10 1.32586e-10 -0.001)
(-1.82106e-10 1.43375e-10 -0.001)
(-1.48635e-10 1.42497e-10 -0.001)
(-1.07652e-10 1.38737e-10 -0.001)
(-4.28262e-11 1.39119e-10 -0.001)
(-3.17832e-11 1.84135e-10 -0.001)
(-9.43035e-11 1.81217e-10 -0.001)
(-1.49548e-10 1.97483e-10 -0.001)
(-1.98123e-10 2.13227e-10 -0.001)
(-2.09647e-10 2.22958e-10 -0.001)
(-1.94137e-10 2.31847e-10 -0.001)
(-1.81957e-10 2.17125e-10 -0.001)
(-1.53301e-10 2.11138e-10 -0.001)
(-1.04708e-10 2.18861e-10 -0.001)
(-3.76794e-11 2.33764e-10 -0.001)
(-2.74095e-11 2.71044e-10 -0.001)
(-7.42782e-11 2.92515e-10 -0.001)
(-1.27936e-10 3.15126e-10 -0.001)
(-1.77169e-10 3.07194e-10 -0.001)
(-2.04653e-10 2.20596e-10 -0.001)
(-2.21594e-10 3.69228e-10 -0.001)
(-2.02885e-10 2.98571e-10 -0.001)
(-1.46895e-10 2.89525e-10 -0.001)
(-8.45781e-11 3.09718e-10 -0.001)
(-2.75044e-11 3.28946e-10 -0.001)
(-1.08566e-11 3.6817e-10 -0.000999999)
(-5.07309e-11 3.82789e-10 -0.000999999)
(-1.3488e-10 4.03807e-10 -0.000999999)
(-2.92649e-10 3.8321e-10 -0.001)
(-1.47628e-10 4.11985e-10 -0.001)
(-1.16312e-10 2.2336e-10 -0.001)
(-2.61699e-10 3.30261e-10 -0.001)
(-1.42147e-10 3.51842e-10 -0.001)
(-6.46282e-11 3.87925e-10 -0.001)
(-1.78533e-11 4.01616e-10 -0.001)
(-1.34815e-11 4.39738e-10 -0.000999999)
(-3.93543e-11 4.25417e-10 -0.000999999)
(-1.27525e-10 4.02098e-10 -0.000999999)
(-1.68885e-10 3.78394e-10 -0.000999999)
(-3.64626e-10 4.50187e-10 -0.000999999)
(-3.03335e-10 2.51852e-10 -0.001)
(-7.42406e-11 3.76658e-10 -0.001)
(-8.91887e-11 4.16124e-10 -0.001)
(-3.39847e-11 4.31553e-10 -0.001)
(-1.2988e-11 4.25377e-10 -0.001)
(-2.58863e-11 4.39417e-10 -0.000999999)
(-8.92003e-11 4.17667e-10 -0.000999999)
(-1.81921e-10 3.66565e-10 -0.000999999)
(-2.44828e-10 3.42567e-10 -0.000999999)
(-2.74176e-10 2.84169e-10 -0.000999999)
(-1.89508e-10 4.50071e-10 -0.000999999)
(-9.73701e-11 4.17961e-10 -0.000999999)
(-8.72769e-11 4.3609e-10 -0.001)
(-5.4549e-11 4.18694e-10 -0.001)
(-2.31711e-11 3.98045e-10 -0.001)
(-3.59802e-11 3.53409e-10 -0.000999998)
(-1.13033e-10 3.40173e-10 -0.000999998)
(-2.02634e-10 3.18144e-10 -0.000999999)
(-2.51308e-10 3.14619e-10 -0.000999999)
(-2.57111e-10 3.2461e-10 -0.000999999)
(-1.69656e-10 3.6566e-10 -0.000999999)
(-8.82538e-11 3.58168e-10 -0.000999999)
(-8.84562e-11 3.57407e-10 -0.000999999)
(-7.12874e-11 3.38417e-10 -0.000999999)
(-3.28909e-11 3.18498e-10 -0.000999999)
(-3.98005e-11 2.19074e-10 -0.000999998)
(-1.25163e-10 2.12134e-10 -0.000999998)
(-2.07473e-10 2.00443e-10 -0.000999998)
(-2.38355e-10 2.14426e-10 -0.000999999)
(-2.2311e-10 2.47851e-10 -0.000999999)
(-1.55896e-10 2.70958e-10 -0.000999999)
(-1.0562e-10 2.52378e-10 -0.000999999)
(-1.07013e-10 2.3077e-10 -0.000999999)
(-9.28715e-11 2.07016e-10 -0.000999999)
(-4.24811e-11 1.91929e-10 -0.000999999)
(-4.32245e-11 7.31091e-11 -0.000999998)
(-1.31812e-10 6.97372e-11 -0.000999998)
(-1.99954e-10 6.6368e-11 -0.000999998)
(-2.03479e-10 7.6869e-11 -0.000999998)
(-2.00197e-10 1.00725e-10 -0.000999999)
(-1.64696e-10 9.9368e-11 -0.000999999)
(-1.28075e-10 9.15536e-11 -0.000999999)
(-1.33504e-10 7.65727e-11 -0.000999999)
(-1.09528e-10 6.48224e-11 -0.000999999)
(-4.74948e-11 5.95965e-11 -0.000999999)
(-2.97987e-11 1.08154e-10 -0.001)
(-1.45859e-10 9.06035e-11 -0.001)
(-2.78458e-10 8.77409e-11 -0.001)
(-3.38616e-10 8.19132e-11 -0.001)
(-3.83898e-10 7.61712e-11 -0.001)
(-3.88816e-10 8.00674e-11 -0.001)
(-3.32886e-10 9.39956e-11 -0.001)
(-2.72408e-10 9.06027e-11 -0.001)
(-1.95114e-10 8.56628e-11 -0.001)
(-7.42723e-11 8.39607e-11 -0.001)
(-4.76282e-11 2.48628e-10 -0.001)
(-1.66925e-10 2.20259e-10 -0.001)
(-2.87833e-10 2.23951e-10 -0.001)
(-3.51062e-10 2.33522e-10 -0.001)
(-3.86748e-10 2.36301e-10 -0.001)
(-3.71829e-10 2.43043e-10 -0.001)
(-3.22989e-10 2.64653e-10 -0.001)
(-2.81305e-10 2.58619e-10 -0.001)
(-2.01963e-10 2.55785e-10 -0.001)
(-7.59435e-11 2.58754e-10 -0.001)
(-5.86174e-11 3.53436e-10 -0.001)
(-1.71361e-10 3.45793e-10 -0.001)
(-2.65828e-10 3.70035e-10 -0.001)
(-3.27069e-10 3.90399e-10 -0.001)
(-3.75298e-10 4.18361e-10 -0.001)
(-3.61273e-10 3.81746e-10 -0.001)
(-3.17942e-10 3.93514e-10 -0.001)
(-2.81804e-10 3.96671e-10 -0.001)
(-1.94819e-10 4.1518e-10 -0.001)
(-7.09085e-11 4.32449e-10 -0.001)
(-5.58883e-11 5.06148e-10 -0.001)
(-1.51005e-10 5.23468e-10 -0.001)
(-2.4326e-10 5.47972e-10 -0.001)
(-3.02812e-10 5.44563e-10 -0.001)
(-3.95452e-10 4.76255e-10 -0.001)
(-3.96604e-10 5.56787e-10 -0.001)
(-3.08055e-10 5.30609e-10 -0.001)
(-2.59631e-10 5.38204e-10 -0.001)
(-1.6531e-10 5.65773e-10 -0.001)
(-5.782e-11 5.84982e-10 -0.001)
(-4.21979e-11 6.57438e-10 -0.000999999)
(-1.30475e-10 6.66984e-10 -0.000999999)
(-2.44832e-10 6.65167e-10 -0.000999999)
(-3.98833e-10 6.13001e-10 -0.001)
(-3.62982e-10 6.1102e-10 -0.001)
(-3.06622e-10 5.67334e-10 -0.001)
(-3.36433e-10 6.18664e-10 -0.001)
(-2.4662e-10 6.44554e-10 -0.001)
(-1.46841e-10 6.8447e-10 -0.001)
(-5.05585e-11 6.99813e-10 -0.001)
(-4.75397e-11 7.68296e-10 -0.000999999)
(-1.44595e-10 7.51866e-10 -0.000999999)
(-2.97352e-10 7.15763e-10 -0.000999999)
(-3.56945e-10 6.72168e-10 -0.000999999)
(-4.40885e-10 7.13797e-10 -0.001)
(-3.88824e-10 5.96262e-10 -0.000999999)
(-2.30984e-10 6.95007e-10 -0.001)
(-1.93882e-10 7.34789e-10 -0.001)
(-1.08615e-10 7.52352e-10 -0.001)
(-4.10534e-11 7.47763e-10 -0.001)
(-6.00455e-11 7.53573e-10 -0.000999999)
(-1.84585e-10 7.31988e-10 -0.000999999)
(-3.24607e-10 6.93443e-10 -0.000999999)
(-4.00622e-10 6.95231e-10 -0.000999999)
(-4.38654e-10 6.62441e-10 -0.000999999)
(-3.25721e-10 7.33388e-10 -0.000999999)
(-1.98135e-10 7.37286e-10 -0.000999999)
(-1.89255e-10 7.50022e-10 -0.000999999)
(-1.32455e-10 7.21988e-10 -0.001)
(-5.37399e-11 6.93955e-10 -0.001)
(-7.05387e-11 5.96765e-10 -0.000999998)
(-2.06203e-10 5.84416e-10 -0.000999998)
(-3.34087e-10 5.66329e-10 -0.000999998)
(-3.8786e-10 5.81062e-10 -0.000999999)
(-4.02724e-10 6.14726e-10 -0.000999999)
(-3.14013e-10 6.63787e-10 -0.000999999)
(-2.14313e-10 6.26957e-10 -0.000999999)
(-2.09159e-10 6.05444e-10 -0.000999999)
(-1.63422e-10 5.68931e-10 -0.000999999)
(-6.78316e-11 5.41313e-10 -0.000999999)
(-7.3511e-11 3.71856e-10 -0.000999998)
(-2.16154e-10 3.6283e-10 -0.000999998)
(-3.2794e-10 3.59025e-10 -0.000999998)
(-3.5221e-10 3.9086e-10 -0.000999998)
(-3.55932e-10 4.37585e-10 -0.000999998)
(-3.13481e-10 4.64651e-10 -0.000999999)
(-2.56466e-10 4.19926e-10 -0.000999999)
(-2.47255e-10 3.78609e-10 -0.000999999)
(-1.95578e-10 3.46186e-10 -0.000999999)
(-8.03161e-11 3.27977e-10 -0.000999999)
(-8.01381e-11 1.24721e-10 -0.000999998)
(-2.19367e-10 1.18193e-10 -0.000999998)
(-3.05467e-10 1.21347e-10 -0.000999998)
(-3.08692e-10 1.40043e-10 -0.000999998)
(-3.28282e-10 1.64153e-10 -0.000999998)
(-3.30937e-10 1.67008e-10 -0.000999998)
(-2.99627e-10 1.45996e-10 -0.000999999)
(-2.8228e-10 1.23195e-10 -0.000999999)
(-2.12984e-10 1.10457e-10 -0.000999999)
(-8.52067e-11 1.05205e-10 -0.000999999)
(-6.0409e-11 1.62353e-10 -0.001)
(-2.39375e-10 1.41333e-10 -0.001)
(-4.20179e-10 1.38014e-10 -0.001)
(-5.05293e-10 1.38677e-10 -0.001)
(-5.64821e-10 1.46222e-10 -0.001)
(-5.79419e-10 1.49519e-10 -0.001)
(-5.25266e-10 1.54292e-10 -0.001)
(-4.45966e-10 1.44157e-10 -0.001)
(-3.20575e-10 1.36281e-10 -0.001)
(-1.20975e-10 1.36169e-10 -0.001)
(-8.18558e-11 4.05103e-10 -0.001)
(-2.64601e-10 3.74014e-10 -0.001)
(-4.23744e-10 3.81182e-10 -0.001)
(-4.9818e-10 3.95513e-10 -0.001)
(-5.55192e-10 4.22255e-10 -0.001)
(-5.72533e-10 4.20743e-10 -0.001)
(-5.31736e-10 4.26584e-10 -0.001)
(-4.64943e-10 4.14208e-10 -0.001)
(-3.2892e-10 4.12666e-10 -0.001)
(-1.21048e-10 4.19058e-10 -0.001)
(-9.2272e-11 6.06186e-10 -0.001)
(-2.64564e-10 5.98187e-10 -0.001)
(-3.99571e-10 6.1856e-10 -0.001)
(-4.65271e-10 6.26578e-10 -0.001)
(-5.40732e-10 6.57861e-10 -0.001)
(-5.76255e-10 6.09635e-10 -0.001)
(-5.3286e-10 6.32461e-10 -0.001)
(-4.60778e-10 6.46558e-10 -0.001)
(-3.15501e-10 6.72648e-10 -0.001)
(-1.13982e-10 6.94012e-10 -0.001)
(-9.09348e-11 8.4189e-10 -0.001)
(-2.534e-10 8.46126e-10 -0.001)
(-3.95398e-10 8.54838e-10 -0.001)
(-4.58846e-10 8.38004e-10 -0.001)
(-5.72101e-10 8.34551e-10 -0.001)
(-5.98043e-10 7.5413e-10 -0.001)
(-4.94847e-10 8.06036e-10 -0.001)
(-4.24748e-10 8.52406e-10 -0.001)
(-2.8008e-10 8.90395e-10 -0.001)
(-9.83337e-11 9.13518e-10 -0.001)
(-8.95281e-11 1.04438e-09 -0.000999999)
(-2.53245e-10 1.04448e-09 -0.000999999)
(-4.07725e-10 1.01758e-09 -0.000999999)
(-4.85462e-10 9.51171e-10 -0.001)
(-6.24603e-10 8.57653e-10 -0.001)
(-6.05058e-10 1.00839e-09 -0.001)
(-4.34584e-10 1.00372e-09 -0.001)
(-3.76409e-10 1.02684e-09 -0.001)
(-2.52595e-10 1.05775e-09 -0.001)
(-8.91212e-11 1.06806e-09 -0.001)
(-9.28358e-11 1.15755e-09 -0.000999999)
(-2.82219e-10 1.14615e-09 -0.000999999)
(-4.88618e-10 1.11411e-09 -0.000999999)
(-6.1879e-10 1.0778e-09 -0.000999999)
(-5.15107e-10 1.01374e-09 -0.000999999)
(-4.51978e-10 1.1016e-09 -0.000999999)
(-4.76321e-10 1.12824e-09 -0.001)
(-3.70694e-10 1.142e-09 -0.001)
(-2.36784e-10 1.15168e-09 -0.001)
(-8.59801e-11 1.14638e-09 -0.001)
(-1.03193e-10 1.10086e-09 -0.000999998)
(-2.98942e-10 1.08422e-09 -0.000999998)
(-4.76063e-10 1.07636e-09 -0.000999998)
(-5.85656e-10 1.10884e-09 -0.000999999)
(-6.00973e-10 1.15634e-09 -0.000999999)
(-4.90631e-10 1.06002e-09 -0.000999999)
(-3.94106e-10 1.0972e-09 -0.000999999)
(-3.52853e-10 1.10305e-09 -0.000999999)
(-2.46063e-10 1.08094e-09 -0.001)
(-9.2304e-11 1.05875e-09 -0.001)
(-1.11548e-10 8.67169e-10 -0.000999998)
(-3.08899e-10 8.61076e-10 -0.000999998)
(-4.6408e-10 8.59864e-10 -0.000999998)
(-5.38857e-10 8.93884e-10 -0.000999998)
(-5.63979e-10 9.5605e-10 -0.000999998)
(-5.11088e-10 9.64945e-10 -0.000999999)
(-4.33226e-10 9.16521e-10 -0.000999999)
(-3.86913e-10 8.77181e-10 -0.000999999)
(-2.79142e-10 8.37424e-10 -0.000999999)
(-1.0623e-10 8.12001e-10 -0.000999999)
(-1.10975e-10 5.40924e-10 -0.000999998)
(-3.08005e-10 5.40231e-10 -0.000999998)
(-4.43297e-10 5.49931e-10 -0.000999998)
(-4.89456e-10 5.86476e-10 -0.000999998)
(-5.29893e-10 6.26735e-10 -0.000999998)
(-5.30175e-10 6.32113e-10 -0.000999998)
(-4.81851e-10 5.87419e-10 -0.000999999)
(-4.3191e-10 5.42347e-10 -0.000999999)
(-3.09688e-10 5.14461e-10 -0.000999999)
(-1.16135e-10 5.06364e-10 -0.000999999)
(-1.13067e-10 1.83022e-10 -0.000999997)
(-3.00381e-10 1.81067e-10 -0.000999998)
(-4.17042e-10 1.90422e-10 -0.000999998)
(-4.61178e-10 2.06482e-10 -0.000999998)
(-5.1733e-10 2.17785e-10 -0.000999998)
(-5.492e-10 2.18032e-10 -0.000999998)
(-5.2183e-10 1.976e-10 -0.000999999)
(-4.58902e-10 1.76981e-10 -0.000999999)
(-3.13508e-10 1.6975e-10 -0.000999999)
(-1.13102e-10 1.72267e-10 -0.000999999)
(-1.06078e-10 2.37209e-10 -0.001)
(-3.55237e-10 2.1836e-10 -0.001)
(-5.74039e-10 2.19725e-10 -0.001)
(-6.63998e-10 2.30299e-10 -0.001)
(-7.59413e-10 2.42093e-10 -0.001)
(-8.52263e-10 2.46531e-10 -0.001)
(-8.16186e-10 2.29966e-10 -0.001)
(-6.86622e-10 2.17559e-10 -0.001)
(-4.78067e-10 2.10584e-10 -0.001)
(-1.75411e-10 2.16016e-10 -0.001)
(-1.25581e-10 6.4103e-10 -0.001)
(-3.73932e-10 6.17672e-10 -0.001)
(-5.63202e-10 6.28569e-10 -0.001)
(-6.42902e-10 6.414e-10 -0.001)
(-7.44663e-10 6.52336e-10 -0.001)
(-8.66149e-10 6.60342e-10 -0.001)
(-8.46934e-10 6.37898e-10 -0.001)
(-7.07508e-10 6.29713e-10 -0.001)
(-4.80157e-10 6.39388e-10 -0.001)
(-1.69907e-10 6.56116e-10 -0.001)
(-1.30779e-10 9.96797e-10 -0.001)
(-3.69645e-10 9.94171e-10 -0.001)
(-5.51455e-10 9.98078e-10 -0.001)
(-6.41525e-10 9.72761e-10 -0.001)
(-7.41963e-10 9.54893e-10 -0.001)
(-8.68414e-10 9.3955e-10 -0.001)
(-8.48515e-10 9.68667e-10 -0.001)
(-6.86585e-10 1.00108e-09 -0.001)
(-4.51347e-10 1.03925e-09 -0.001)
(-1.57791e-10 1.06729e-09 -0.001)
(-1.30077e-10 1.34815e-09 -0.001)
(-3.74613e-10 1.33832e-09 -0.001)
(-5.84649e-10 1.30842e-09 -0.001)
(-6.86087e-10 1.24958e-09 -0.001)
(-7.77912e-10 1.25159e-09 -0.001)
(-8.52403e-10 1.13644e-09 -0.001)
(-7.85438e-10 1.22602e-09 -0.001)
(-6.36918e-10 1.29763e-09 -0.001)
(-4.11835e-10 1.34551e-09 -0.001)
(-1.39837e-10 1.37612e-09 -0.001)
(-1.43086e-10 1.58945e-09 -0.000999999)
(-4.11951e-10 1.58136e-09 -0.000999999)
(-6.40152e-10 1.54031e-09 -0.000999999)
(-6.98403e-10 1.48001e-09 -0.000999999)
(-8.55122e-10 1.34268e-09 -0.001)
(-8.94011e-10 1.4883e-09 -0.001)
(-6.8732e-10 1.52528e-09 -0.001)
(-5.67027e-10 1.54492e-09 -0.001)
(-3.70044e-10 1.5656e-09 -0.001)
(-1.245e-10 1.57148e-09 -0.001)
(-1.41229e-10 1.64301e-09 -0.000999998)
(-4.26866e-10 1.6354e-09 -0.000999998)
(-6.86079e-10 1.62669e-09 -0.000999999)
(-8.83848e-10 1.6235e-09 -0.000999999)
(-7.69973e-10 1.51943e-09 -0.000999999)
(-6.69834e-10 1.66325e-09 -0.000999999)
(-7.28586e-10 1.67138e-09 -0.001)
(-5.96523e-10 1.66557e-09 -0.001)
(-3.82065e-10 1.66586e-09 -0.001)
(-1.30825e-10 1.65649e-09 -0.001)
(-1.53908e-10 1.50746e-09 -0.000999998)
(-4.31528e-10 1.49773e-09 -0.000999998)
(-6.521e-10 1.51555e-09 -0.000999998)
(-8.05886e-10 1.56143e-09 -0.000999998)
(-8.15447e-10 1.65242e-09 -0.000999998)
(-7.41758e-10 1.53504e-09 -0.000999999)
(-6.85018e-10 1.53403e-09 -0.000999999)
(-5.72571e-10 1.53822e-09 -0.000999999)
(-3.75951e-10 1.52803e-09 -0.001)
(-1.30719e-10 1.51333e-09 -0.001)
(-1.53781e-10 1.19534e-09 -0.000999997)
(-4.217e-10 1.20194e-09 -0.000999997)
(-6.22456e-10 1.21807e-09 -0.000999998)
(-7.47033e-10 1.25483e-09 -0.000999998)
(-7.96138e-10 1.31181e-09 -0.000999998)
(-7.88125e-10 1.28268e-09 -0.000999998)
(-7.25493e-10 1.24353e-09 -0.000999999)
(-6.02442e-10 1.21079e-09 -0.000999999)
(-4.04114e-10 1.18056e-09 -0.000999999)
(-1.42695e-10 1.16274e-09 -0.000999999)
(-1.496e-10 7.58383e-10 -0.000999997)
(-4.11119e-10 7.66338e-10 -0.000999997)
(-5.99228e-10 7.8232e-10 -0.000999997)
(-7.12086e-10 8.05244e-10 -0.000999997)
(-7.87543e-10 8.22441e-10 -0.000999998)
(-8.10025e-10 8.05189e-10 -0.000999998)
(-7.56878e-10 7.84822e-10 -0.000999998)
(-6.35476e-10 7.5621e-10 -0.000999999)
(-4.21713e-10 7.42687e-10 -0.000999999)
(-1.46235e-10 7.46328e-10 -0.000999999)
(-1.46997e-10 2.6178e-10 -0.000999997)
(-3.98467e-10 2.64602e-10 -0.000999997)
(-5.82453e-10 2.74161e-10 -0.000999997)
(-7.05543e-10 2.80248e-10 -0.000999997)
(-7.94635e-10 2.79335e-10 -0.000999998)
(-8.24036e-10 2.71635e-10 -0.000999998)
(-7.72842e-10 2.6368e-10 -0.000999998)
(-6.43263e-10 2.54126e-10 -0.000999998)
(-4.1171e-10 2.54676e-10 -0.000999999)
(-1.37297e-10 2.62801e-10 -0.000999999)
(-1.68931e-10 3.4263e-10 -0.001)
(-4.98596e-10 3.33553e-10 -0.001)
(-7.54901e-10 3.38571e-10 -0.001)
(-8.82189e-10 3.4978e-10 -0.001)
(-1.03924e-09 3.44405e-10 -0.001)
(-1.22349e-09 3.48685e-10 -0.001)
(-1.19414e-09 3.29995e-10 -0.001)
(-9.68493e-10 3.26364e-10 -0.001)
(-6.41704e-10 3.28919e-10 -0.001)
(-2.25992e-10 3.40785e-10 -0.001)
(-1.78988e-10 9.82632e-10 -0.001)
(-5.04297e-10 9.76254e-10 -0.001)
(-7.40077e-10 9.83861e-10 -0.001)
(-8.78017e-10 9.77822e-10 -0.001)
(-1.04231e-09 9.42453e-10 -0.001)
(-1.24033e-09 9.59281e-10 -0.001)
(-1.21894e-09 9.39874e-10 -0.001)
(-9.7154e-10 9.5478e-10 -0.001)
(-6.27883e-10 9.80508e-10 -0.001)
(-2.13905e-10 1.00423e-09 -0.001)
(-1.77502e-10 1.55891e-09 -0.001)
(-5.0027e-10 1.56318e-09 -0.001)
(-7.54816e-10 1.54481e-09 -0.001)
(-9.2529e-10 1.48632e-09 -0.001)
(-1.05977e-09 1.41244e-09 -0.001)
(-1.2285e-09 1.43803e-09 -0.001)
(-1.20109e-09 1.4665e-09 -0.001)
(-9.29811e-10 1.51955e-09 -0.001)
(-5.91523e-10 1.5652e-09 -0.001)
(-2.00761e-10 1.59259e-09 -0.001)
(-1.77743e-10 2.0576e-09 -0.001)
(-5.21505e-10 2.03555e-09 -0.001)
(-8.17014e-10 1.97028e-09 -0.001)
(-1.01042e-09 1.87705e-09 -0.001)
(-1.09064e-09 1.8221e-09 -0.001)
(-1.1863e-09 1.85724e-09 -0.001)
(-1.13746e-09 1.90185e-09 -0.001)
(-8.72812e-10 1.95403e-09 -0.001)
(-5.51595e-10 1.99673e-09 -0.001)
(-1.83394e-10 2.03184e-09 -0.001)
(-2.03454e-10 2.32874e-09 -0.000999999)
(-5.91642e-10 2.30973e-09 -0.000999999)
(-9.1338e-10 2.27157e-09 -0.000999999)
(-1.07347e-09 2.24274e-09 -0.000999999)
(-1.07955e-09 2.17229e-09 -0.001)
(-1.14858e-09 2.12474e-09 -0.001)
(-1.10431e-09 2.23418e-09 -0.001)
(-8.34864e-10 2.24994e-09 -0.001)
(-5.09684e-10 2.26461e-09 -0.001)
(-1.61792e-10 2.27296e-09 -0.001)
(-2.01289e-10 2.2904e-09 -0.000999998)
(-5.83335e-10 2.28884e-09 -0.000999998)
(-8.84085e-10 2.30033e-09 -0.000999998)
(-1.10986e-09 2.32485e-09 -0.000999998)
(-1.20813e-09 2.29679e-09 -0.000999999)
(-1.12433e-09 2.28235e-09 -0.000999999)
(-1.01256e-09 2.33462e-09 -0.001)
(-8.42295e-10 2.33706e-09 -0.001)
(-5.24067e-10 2.33331e-09 -0.001)
(-1.70641e-10 2.31051e-09 -0.001)
(-2.09464e-10 2.05816e-09 -0.000999997)
(-5.86233e-10 2.06212e-09 -0.000999997)
(-8.7751e-10 2.08512e-09 -0.000999997)
(-1.07682e-09 2.10641e-09 -0.000999998)
(-1.1221e-09 2.1516e-09 -0.000999998)
(-1.11108e-09 2.1699e-09 -0.000999998)
(-1.04957e-09 2.12222e-09 -0.000999999)
(-8.36109e-10 2.11786e-09 -0.000999999)
(-5.31775e-10 2.10744e-09 -0.001)
(-1.80152e-10 2.08464e-09 -0.001)
(-2.01233e-10 1.65053e-09 -0.000999996)
(-5.60343e-10 1.66513e-09 -0.000999997)
(-8.3985e-10 1.6901e-09 -0.000999997)
(-1.04343e-09 1.71656e-09 -0.000999997)
(-1.14485e-09 1.7258e-09 -0.000999997)
(-1.15354e-09 1.68367e-09 -0.000999998)
(-1.0646e-09 1.67568e-09 -0.000999998)
(-8.57066e-10 1.65859e-09 -0.000999999)
(-5.53294e-10 1.64232e-09 -0.000999999)
(-1.89446e-10 1.63287e-09 -0.000999999)
(-1.98015e-10 1.06353e-09 -0.000999996)
(-5.4985e-10 1.07324e-09 -0.000999996)
(-8.26104e-10 1.08512e-09 -0.000999996)
(-1.04111e-09 1.08898e-09 -0.000999997)
(-1.15487e-09 1.07398e-09 -0.000999997)
(-1.16115e-09 1.05816e-09 -0.000999997)
(-1.07462e-09 1.06226e-09 -0.000999998)
(-8.6939e-10 1.05662e-09 -0.000999998)
(-5.54279e-10 1.05855e-09 -0.000999998)
(-1.86393e-10 1.06667e-09 -0.000999999)
(-1.93175e-10 3.70802e-10 -0.000999996)
(-5.39777e-10 3.75979e-10 -0.000999996)
(-8.22563e-10 3.80552e-10 -0.000999996)
(-1.05251e-09 3.77966e-10 -0.000999996)
(-1.17337e-09 3.67142e-10 -0.000999997)
(-1.16293e-09 3.5724e-10 -0.000999997)
(-1.06397e-09 3.63094e-10 -0.000999998)
(-8.59031e-10 3.65788e-10 -0.000999998)
(-5.4007e-10 3.71775e-10 -0.000999998)
(-1.78908e-10 3.78184e-10 -0.000999998)
(-2.45707e-10 4.93931e-10 -0.001)
(-6.87579e-10 4.97394e-10 -0.001)
(-1.03162e-09 5.00761e-10 -0.001)
(-1.27078e-09 5.0142e-10 -0.001)
(-1.48804e-09 4.80175e-10 -0.001)
(-1.67053e-09 4.79365e-10 -0.001)
(-1.59236e-09 4.80055e-10 -0.001)
(-1.25882e-09 4.89586e-10 -0.001)
(-8.05317e-10 5.00582e-10 -0.001)
(-2.75256e-10 5.09889e-10 -0.001)
(-2.43665e-10 1.45497e-09 -0.001)
(-6.83009e-10 1.46432e-09 -0.001)
(-1.02954e-09 1.46155e-09 -0.001)
(-1.29379e-09 1.43592e-09 -0.001)
(-1.51296e-09 1.37849e-09 -0.001)
(-1.67391e-09 1.38919e-09 -0.001)
(-1.58532e-09 1.39661e-09 -0.001)
(-1.24079e-09 1.42848e-09 -0.001)
(-7.8559e-10 1.4565e-09 -0.001)
(-2.65505e-10 1.4714e-09 -0.001)
(-2.39685e-10 2.30694e-09 -0.001)
(-6.8522e-10 2.31072e-09 -0.001)
(-1.06205e-09 2.2812e-09 -0.001)
(-1.35628e-09 2.22519e-09 -0.001)
(-1.53765e-09 2.15802e-09 -0.001)
(-1.65573e-09 2.18643e-09 -0.001)
(-1.5563e-09 2.19557e-09 -0.001)
(-1.20145e-09 2.24282e-09 -0.001)
(-7.61117e-10 2.27644e-09 -0.001)
(-2.58087e-10 2.29165e-09 -0.001)
(-2.44403e-10 2.95936e-09 -0.001)
(-7.13362e-10 2.93241e-09 -0.001)
(-1.11518e-09 2.87423e-09 -0.001)
(-1.41703e-09 2.80278e-09 -0.001)
(-1.55177e-09 2.68786e-09 -0.001)
(-1.63645e-09 2.94013e-09 -0.001)
(-1.52898e-09 2.86372e-09 -0.001)
(-1.15989e-09 2.86214e-09 -0.001)
(-7.3225e-10 2.88531e-09 -0.001)
(-2.459e-10 2.90353e-09 -0.001)
(-2.72313e-10 3.28312e-09 -0.000999998)
(-7.762e-10 3.25919e-09 -0.000999999)
(-1.19177e-09 3.24323e-09 -0.000999999)
(-1.54264e-09 3.24417e-09 -0.000999999)
(-1.40035e-09 3.32308e-09 -0.001)
(-1.47987e-09 3.05119e-09 -0.001)
(-1.63424e-09 3.18531e-09 -0.001)
(-1.17977e-09 3.19897e-09 -0.001)
(-7.13957e-10 3.21101e-09 -0.001)
(-2.34262e-10 3.21448e-09 -0.001)
(-2.74664e-10 3.22045e-09 -0.000999997)
(-7.59776e-10 3.22518e-09 -0.000999997)
(-1.1303e-09 3.23429e-09 -0.000999998)
(-1.3369e-09 3.25128e-09 -0.000999998)
(-1.7448e-09 3.33626e-09 -0.000999998)
(-1.77424e-09 3.08462e-09 -0.000999999)
(-1.3812e-09 3.20987e-09 -0.001)
(-1.13411e-09 3.22864e-09 -0.001)
(-7.10362e-10 3.21818e-09 -0.001)
(-2.36164e-10 3.1901e-09 -0.001)
(-2.7382e-10 2.88567e-09 -0.000999996)
(-7.68677e-10 2.90263e-09 -0.000999996)
(-1.1657e-09 2.90653e-09 -0.000999997)
(-1.4408e-09 2.89442e-09 -0.000999997)
(-1.56689e-09 2.79699e-09 -0.000999998)
(-1.60612e-09 3.01777e-09 -0.000999998)
(-1.49029e-09 2.94187e-09 -0.000999999)
(-1.17136e-09 2.9159e-09 -0.000999999)
(-7.46271e-10 2.89186e-09 -0.000999999)
(-2.56145e-10 2.86363e-09 -0.001)
(-2.63238e-10 2.31186e-09 -0.000999995)
(-7.44496e-10 2.32654e-09 -0.000999995)
(-1.13858e-09 2.34126e-09 -0.000999996)
(-1.44637e-09 2.34836e-09 -0.000999996)
(-1.62141e-09 2.30664e-09 -0.000999997)
(-1.62964e-09 2.27603e-09 -0.000999997)
(-1.48307e-09 2.29481e-09 -0.000999998)
(-1.18403e-09 2.29164e-09 -0.000999998)
(-7.57049e-10 2.28732e-09 -0.000999999)
(-2.5884e-10 2.28619e-09 -0.000999999)
(-2.63554e-10 1.49809e-09 -0.000999995)
(-7.43764e-10 1.50486e-09 -0.000999995)
(-1.14391e-09 1.50628e-09 -0.000999995)
(-1.47538e-09 1.49316e-09 -0.000999996)
(-1.63928e-09 1.46081e-09 -0.000999996)
(-1.61791e-09 1.45645e-09 -0.000999997)
(-1.47463e-09 1.47652e-09 -0.000999997)
(-1.17874e-09 1.48517e-09 -0.000999998)
(-7.47216e-10 1.49347e-09 -0.000999998)
(-2.52842e-10 1.49978e-09 -0.000999998)
(-2.58833e-10 5.2106e-10 -0.000999994)
(-7.37781e-10 5.26282e-10 -0.000999994)
(-1.14809e-09 5.26624e-10 -0.000999995)
(-1.48893e-09 5.19917e-10 -0.000999995)
(-1.6549e-09 5.10219e-10 -0.000999996)
(-1.61076e-09 5.0117e-10 -0.000999996)
(-1.45145e-09 5.14268e-10 -0.000999997)
(-1.16469e-09 5.21475e-10 -0.000999997)
(-7.38017e-10 5.2599e-10 -0.000999998)
(-2.49171e-10 5.28162e-10 -0.000999998)
(-3.35558e-10 7.11149e-10 -0.001)
(-9.46043e-10 7.22555e-10 -0.001)
(-1.45879e-09 7.20004e-10 -0.001)
(-1.86714e-09 7.1138e-10 -0.001)
(-2.13311e-09 6.99476e-10 -0.001)
(-2.21964e-09 6.94056e-10 -0.00100001)
(-2.03779e-09 7.04655e-10 -0.00100001)
(-1.60558e-09 7.14728e-10 -0.00100001)
(-1.02171e-09 7.23105e-10 -0.00100001)
(-3.48532e-10 7.21111e-10 -0.00100001)
(-3.26166e-10 2.09119e-09 -0.001)
(-9.40358e-10 2.10583e-09 -0.001)
(-1.47278e-09 2.09282e-09 -0.001)
(-1.89125e-09 2.06611e-09 -0.001)
(-2.15457e-09 2.03813e-09 -0.001)
(-2.21881e-09 2.03086e-09 -0.001)
(-2.02113e-09 2.04323e-09 -0.00100001)
(-1.59028e-09 2.06275e-09 -0.00100001)
(-1.0159e-09 2.07278e-09 -0.00100001)
(-3.4981e-10 2.06762e-09 -0.00100001)
(-3.2568e-10 3.27183e-09 -0.001)
(-9.50397e-10 3.2695e-09 -0.001)
(-1.50141e-09 3.24858e-09 -0.001)
(-1.92545e-09 3.22448e-09 -0.001)
(-2.17254e-09 3.19831e-09 -0.001)
(-2.21898e-09 3.1997e-09 -0.001)
(-2.01001e-09 3.18149e-09 -0.001)
(-1.5792e-09 3.19432e-09 -0.001)
(-1.01479e-09 3.20034e-09 -0.00100001)
(-3.50374e-10 3.19611e-09 -0.00100001)
(-3.34875e-10 4.10078e-09 -0.001)
(-9.70125e-10 4.0885e-09 -0.001)
(-1.51795e-09 4.08256e-09 -0.001)
(-1.94159e-09 4.07149e-09 -0.001)
(-2.17943e-09 3.95192e-09 -0.001)
(-2.23588e-09 4.22823e-09 -0.001)
(-2.02658e-09 4.0956e-09 -0.001)
(-1.57138e-09 4.04869e-09 -0.001)
(-1.00784e-09 4.04152e-09 -0.001)
(-3.47863e-10 4.02705e-09 -0.001)
(-3.45866e-10 4.53506e-09 -0.000999998)
(-9.76715e-10 4.52315e-09 -0.000999998)
(-1.51855e-09 4.5331e-09 -0.000999999)
(-2.05609e-09 4.54847e-09 -0.000999999)
(-2.016e-09 4.67946e-09 -0.001)
(-2.07531e-09 4.41196e-09 -0.001)
(-2.18935e-09 4.46713e-09 -0.001)
(-1.63315e-09 4.47442e-09 -0.001)
(-1.0284e-09 4.47259e-09 -0.001)
(-3.5694e-10 4.46044e-09 -0.001)
(-3.5552e-10 4.53567e-09 -0.000999997)
(-9.81019e-10 4.53988e-09 -0.000999997)
(-1.49277e-09 4.52544e-09 -0.000999997)
(-1.79523e-09 4.50813e-09 -0.000999998)
(-2.31591e-09 4.6296e-09 -0.000999998)
(-2.44804e-09 4.30864e-09 -0.000999999)
(-1.9641e-09 4.43728e-09 -0.001)
(-1.56578e-09 4.45944e-09 -0.001)
(-1.01296e-09 4.4474e-09 -0.001)
(-3.51264e-10 4.43422e-09 -0.001)
(-3.50418e-10 4.08939e-09 -0.000999995)
(-9.95848e-10 4.10444e-09 -0.000999995)
(-1.55044e-09 4.07709e-09 -0.000999996)
(-1.95199e-09 4.03545e-09 -0.000999996)
(-2.21549e-09 3.88332e-09 -0.000999997)
(-2.26757e-09 4.1119e-09 -0.000999998)
(-2.03855e-09 4.07271e-09 -0.000999998)
(-1.62289e-09 4.03146e-09 -0.000999999)
(-1.0449e-09 4.0079e-09 -0.000999999)
(-3.61498e-10 3.99484e-09 -0.001)
(-3.48349e-10 3.25422e-09 -0.000999994)
(-1.00131e-09 3.25757e-09 -0.000999994)
(-1.56188e-09 3.24593e-09 -0.000999994)
(-1.989e-09 3.23399e-09 -0.000999995)
(-2.23949e-09 3.17459e-09 -0.000999996)
(-2.25865e-09 3.19156e-09 -0.000999996)
(-2.04454e-09 3.19913e-09 -0.000999997)
(-1.63047e-09 3.19796e-09 -0.000999998)
(-1.0417e-09 3.20178e-09 -0.000999998)
(-3.56562e-10 3.20532e-09 -0.000999998)
(-3.53287e-10 2.10294e-09 -0.000999993)
(-1.01047e-09 2.10629e-09 -0.000999993)
(-1.57407e-09 2.09953e-09 -0.000999993)
(-2.02326e-09 2.08733e-09 -0.000999994)
(-2.25784e-09 2.06108e-09 -0.000999995)
(-2.24296e-09 2.06343e-09 -0.000999995)
(-2.03208e-09 2.076e-09 -0.000999996)
(-1.62009e-09 2.08411e-09 -0.000999997)
(-1.03121e-09 2.09032e-09 -0.000999997)
(-3.51788e-10 2.09369e-09 -0.000999998)
(-3.48383e-10 7.28456e-10 -0.000999992)
(-1.00689e-09 7.34097e-10 -0.000999993)
(-1.57783e-09 7.3152e-10 -0.000999993)
(-2.02352e-09 7.27351e-10 -0.000999994)
(-2.25902e-09 7.27371e-10 -0.000999994)
(-2.23933e-09 7.21887e-10 -0.000999995)
(-2.01982e-09 7.26704e-10 -0.000999996)
(-1.61285e-09 7.30154e-10 -0.000999996)
(-1.02597e-09 7.30718e-10 -0.000999997)
(-3.48505e-10 7.31918e-10 -0.000999997)