/*--------------------------------*- C++ -*----------------------------------*\
| =========                 |                                                 |
| \\      /  F ield         | OpenFOAM: The Open Source CFD Toolbox           |
|  \\    /   O peration     | Version:  5.x                                   |
|   \\  /    A nd           | Web:      www.OpenFOAM.org                      |
|    \\/     M anipulation  |                                                 |
\*---------------------------------------------------------------------------*/
FoamFile
{
    version     2.0;
    format      ascii;
    class       volScalarField;
    location    "400";
    object      p;
}
// * * * * * * * * * * * * * * * * * * * * * * * * * * * * * * * * * * * * * //

dimensions      [0 2 -2 0 0 0 0];

internalField   nonuniform List<scalar> 
90
(
2.09803e-10
6.08351e-10
9.47865e-10
1.19738e-09
1.33666e-09
1.35872e-09
1.26947e-09
1.08556e-09
8.30256e-10
5.27943e-10
1.98044e-10
-1.50779e-10
-5.2535e-10
-9.51024e-10
-1.47284e-09
-2.15503e-09
-3.07975e-09
-4.34683e-09
-6.07634e-09
-8.41153e-09
-1.15409e-08
-1.56258e-08
-2.09119e-08
-2.77338e-08
-3.65501e-08
-4.79893e-08
-6.29097e-08
-8.24719e-08
-1.08229e-07
-1.42241e-07
-1.87238e-07
-2.46851e-07
-3.25657e-07
-4.27993e-07
-5.58201e-07
-7.52906e-07
-1.12632e-06
-1.74504e-06
9.0791e-07
-1.038e-05
3.46929e-06
0.000442656
0.00124149
0.00194801
0.00269318
0.00367037
0.00469444
0.00564047
0.00639151
0.00696848
0.00772681
0.00846571
0.00857475
0.0085753
0.00857587
0.00857649
0.00857699
0.00857735
0.00857763
0.00857783
0.00857797
0.00857809
0.00857817
0.00857823
0.00857827
0.00857831
0.00857833
0.00857835
0.00857836
0.00857837
0.00857838
0.00857839
0.00857839
0.00857839
0.0085784
0.0085784
0.0085784
0.0085784
0.0085784
0.0085784
0.0085784
0.0085784
0.0085784
0.0085784
0.0085784
0.0085784
0.0085784
0.0085784
0.0085784
0.0085784
)
;

boundaryField
{
    inlet
    {
        type            zeroGradient;
    }
    outlet
    {
        type            fixedValue;
        value           uniform 0;
    }
    repeat_boundary
    {
        type            zeroGradient;
    }
    procBoundary0to1
    {
        type            processor;
        value           nonuniform List<scalar> 
90
(
1.83917e-10
5.36604e-10
8.49624e-10
1.10243e-09
1.27981e-09
1.37502e-09
1.39054e-09
1.33746e-09
1.23371e-09
1.10159e-09
9.65422e-10
8.49174e-10
7.74865e-10
7.61823e-10
8.27244e-10
9.88213e-10
1.26543e-09
1.68909e-09
2.30729e-09
3.19214e-09
4.46345e-09
6.21509e-09
8.61364e-09
1.18752e-08
1.62433e-08
2.21354e-08
3.00548e-08
4.06658e-08
5.48508e-08
7.37832e-08
9.90091e-08
1.32533e-07
1.77244e-07
2.39051e-07
3.28774e-07
4.33873e-07
3.78058e-07
-1.08378e-07
5.01533e-06
-1.09594e-05
1.54921e-05
0.000597653
0.00134336
0.00218784
0.00302466
0.00394898
0.00495541
0.00572275
0.00636372
0.00712508
0.00783276
0.00847956
0.00858398
0.00858094
0.00857994
0.00857953
0.00857923
0.008579
0.00857883
0.00857871
0.00857862
0.00857855
0.00857851
0.00857847
0.00857845
0.00857843
0.00857842
0.00857841
0.00857841
0.0085784
0.0085784
0.0085784
0.0085784
0.0085784
0.0085784
0.0085784
0.0085784
0.0085784
0.0085784
0.0085784
0.0085784
0.0085784
0.0085784
0.0085784
0.0085784
0.0085784
0.0085784
0.0085784
0.0085784
0.0085784
)
;
    }
    procBoundary0to2
    {
        type            processor;
        value           nonuniform List<scalar> 
90
(
1.93701e-10
5.68093e-10
9.03046e-10
1.17837e-09
1.37927e-09
1.4992e-09
1.54016e-09
1.51203e-09
1.43085e-09
1.3164e-09
1.18938e-09
1.06859e-09
9.68577e-10
8.97933e-10
8.58545e-10
8.4563e-10
8.48428e-10
8.51139e-10
8.33676e-10
7.71783e-10
6.36102e-10
3.90086e-10
-1.67833e-11
-6.56804e-10
-1.63474e-09
-3.10292e-09
-5.27743e-09
-8.46033e-09
-1.30685e-08
-1.96738e-08
-2.9075e-08
-4.24279e-08
-6.10784e-08
-8.4458e-08
-1.07902e-07
-1.54584e-07
-4.39635e-07
-1.28508e-06
3.95232e-06
-1.41951e-05
1.37616e-05
0.000695969
0.00140403
0.00211737
0.00292578
0.00376219
0.00452879
0.00524924
0.00609015
0.00696093
0.00771979
0.00840676
0.00857084
0.00857767
0.00857637
0.00857697
0.00857738
0.00857766
0.00857786
0.00857801
0.00857812
0.0085782
0.00857826
0.0085783
0.00857833
0.00857835
0.00857836
0.00857837
0.00857838
0.00857839
0.00857839
0.00857839
0.0085784
0.0085784
0.0085784
0.0085784
0.0085784
0.0085784
0.0085784
0.0085784
0.0085784
0.0085784
0.0085784
0.0085784
0.0085784
0.0085784
0.0085784
0.0085784
0.0085784
0.0085784
)
;
    }
}


// ************************************************************************* //
