/*--------------------------------*- C++ -*----------------------------------*\
| =========                 |                                                 |
| \\      /  F ield         | OpenFOAM: The Open Source CFD Toolbox           |
|  \\    /   O peration     | Version:  5.x                                   |
|   \\  /    A nd           | Web:      www.OpenFOAM.org                      |
|    \\/     M anipulation  |                                                 |
\*---------------------------------------------------------------------------*/
FoamFile
{
    version     2.0;
    format      ascii;
    class       surfaceScalarField;
    location    "0.08";
    object      phi;
}
// * * * * * * * * * * * * * * * * * * * * * * * * * * * * * * * * * * * * * //

dimensions      [0 3 -1 0 0 0 0];

internalField   nonuniform List<scalar> 
5825
(
-6.12984e-17
-1.34143e-16
-9.99999e-10
-1.04722e-16
-1.34769e-16
-9.99999e-10
-1.72851e-16
-1.37928e-16
-9.99999e-10
-2.44544e-16
-1.16589e-16
-1e-09
-8.87098e-17
-1e-09
-6.17903e-17
-1.24563e-16
-9.99999e-10
-1.0809e-16
-1.30211e-16
-9.99999e-10
-1.50519e-16
-1.28698e-16
-1e-09
-2.15667e-16
-1.29741e-16
-1e-09
-1.09133e-16
-1e-09
-6.67842e-17
-1.01607e-16
-1e-09
-1.06956e-16
-9.58054e-17
-1e-09
-1.52398e-16
-1.01204e-16
-1e-09
-1.97536e-16
-1.0291e-16
-1e-09
-9.52181e-17
-1e-09
-6.0455e-17
-4.29919e-17
-1e-09
-1.12297e-16
-4.17732e-17
-1e-09
-1.53786e-16
-4.5664e-17
-1e-09
-1.90829e-16
-5.46767e-17
-1e-09
-6.08006e-17
-1e-09
-5.88179e-17
-1e-09
-1.15746e-16
-1e-09
-1.62217e-16
-1e-09
-1.9666e-16
-1e-09
-1e-09
-1.64852e-16
-3.76651e-16
-9.99999e-10
-3.07522e-16
-3.80067e-16
-9.99999e-10
-4.98282e-16
-3.80894e-16
-9.99999e-10
-6.97552e-16
-3.30962e-16
-1e-09
-2.61424e-16
-1e-09
-1.67269e-16
-3.43689e-16
-9.99999e-10
-3.07058e-16
-3.47776e-16
-9.99999e-10
-4.45211e-16
-3.45545e-16
-1e-09
-6.25223e-16
-3.36679e-16
-1e-09
-2.73707e-16
-1e-09
-1.69545e-16
-2.58543e-16
-9.99999e-10
-3.05674e-16
-2.53462e-16
-1e-09
-4.38562e-16
-2.61865e-16
-1e-09
-5.73965e-16
-2.69516e-16
-1e-09
-2.50715e-16
-1e-09
-1.63124e-16
-1.18214e-16
-1e-09
-3.13906e-16
-1.23241e-16
-1e-09
-4.45516e-16
-1.35619e-16
-1e-09
-5.60355e-16
-1.5165e-16
-1e-09
-1.49462e-16
-1e-09
-1.67523e-16
-1e-09
-3.25236e-16
-1e-09
-4.60124e-16
-1e-09
-5.58599e-16
-1e-09
-1e-09
-2.98836e-16
-7.10458e-16
-9.99998e-10
-5.77467e-16
-7.20668e-16
-9.99999e-10
-8.82105e-16
-7.21517e-16
-9.99999e-10
-1.17621e-15
-6.7225e-16
-9.99999e-10
-5.86047e-16
-1e-09
-3.05509e-16
-6.2759e-16
-9.99999e-10
-5.76814e-16
-6.26992e-16
-9.99999e-10
-8.33542e-16
-6.19566e-16
-9.99999e-10
-1.09811e-15
-6.01333e-16
-1e-09
-5.26225e-16
-1e-09
-3.01485e-16
-4.54138e-16
-9.99999e-10
-5.70968e-16
-4.55265e-16
-9.99999e-10
-8.16919e-16
-4.62625e-16
-1e-09
-1.03818e-15
-4.73115e-16
-1e-09
-4.38741e-16
-1e-09
-3.00687e-16
-2.2224e-16
-9.99999e-10
-5.77883e-16
-2.34023e-16
-1e-09
-8.2618e-16
-2.54111e-16
-1e-09
-1.012e-15
-2.57464e-16
-1e-09
-2.42135e-16
-1e-09
-3.11958e-16
-1e-09
-5.96217e-16
-1e-09
-8.27098e-16
-1e-09
-9.9687e-16
-1e-09
-1e-09
-4.82399e-16
-1.13152e-15
-9.99998e-10
-9.2141e-16
-1.13692e-15
-9.99998e-10
-1.29667e-15
-1.13904e-15
-9.99999e-10
-1.57973e-15
-1.12897e-15
-9.99999e-10
-1.11339e-15
-1e-09
-4.83805e-16
-9.75751e-16
-9.99998e-10
-9.2423e-16
-9.74118e-16
-9.99999e-10
-1.29892e-15
-9.60313e-16
-9.99999e-10
-1.58493e-15
-9.4671e-16
-1e-09
-9.16744e-16
-1e-09
-4.78078e-16
-7.06825e-16
-9.99999e-10
-9.12349e-16
-7.12375e-16
-9.99999e-10
-1.28718e-15
-7.17864e-16
-1e-09
-1.56734e-15
-7.19303e-16
-1e-09
-6.84804e-16
-1e-09
-4.81095e-16
-3.6042e-16
-9.99999e-10
-9.1737e-16
-3.78452e-16
-1e-09
-1.28728e-15
-3.91293e-16
-1e-09
-1.54005e-15
-3.75511e-16
-1e-09
-3.4558e-16
-1e-09
-4.9736e-16
-9.99999e-10
-9.27977e-16
-1e-09
-1.26787e-15
-1e-09
-1.51031e-15
-1e-09
-1e-09
-7.11934e-16
-1.63696e-15
-9.99997e-10
-1.34626e-15
-1.63825e-15
-9.99998e-10
-1.8023e-15
-1.64605e-15
-9.99998e-10
-2.02488e-15
-1.68551e-15
-9.99999e-10
-1.7909e-15
-1e-09
-7.07969e-16
-1.40411e-15
-9.99998e-10
-1.354e-15
-1.41093e-15
-9.99998e-10
-1.85829e-15
-1.39518e-15
-9.99999e-10
-2.14233e-15
-1.39222e-15
-1e-09
-1.42875e-15
-1e-09
-7.09937e-16
-1.02685e-15
-9.99999e-10
-1.34024e-15
-1.03203e-15
-9.99999e-10
-1.85797e-15
-1.03213e-15
-9.99999e-10
-2.18328e-15
-1.01701e-15
-1e-09
-9.95729e-16
-1e-09
-7.11388e-16
-5.33634e-16
-9.99999e-10
-1.33961e-15
-5.49043e-16
-9.99999e-10
-1.84128e-15
-5.42367e-16
-1e-09
-2.1673e-15
-5.18423e-16
-1e-09
-4.89782e-16
-1e-09
-7.24643e-16
-9.99999e-10
-1.32963e-15
-9.99999e-10
-1.81236e-15
-1e-09
-2.13721e-15
-1e-09
-1e-09
-1.00271e-15
-2.26336e-15
-9.99996e-10
-1.89009e-15
-2.26869e-15
-9.99997e-10
-2.5155e-15
-2.27086e-15
-9.99998e-10
-2.7267e-15
-2.3252e-15
-9.99999e-10
-2.51137e-15
-1e-09
-1.0001e-15
-1.95026e-15
-9.99997e-10
-1.8919e-15
-1.95977e-15
-9.99998e-10
-2.57557e-15
-1.94507e-15
-9.99998e-10
-2.92364e-15
-1.94879e-15
-9.99999e-10
-2.01537e-15
-1e-09
-1.00345e-15
-1.42506e-15
-9.99998e-10
-1.87843e-15
-1.42498e-15
-9.99998e-10
-2.58179e-15
-1.41825e-15
-9.99999e-10
-2.99775e-15
-1.39446e-15
-1e-09
-1.39293e-15
-1e-09
-9.9857e-16
-7.43676e-16
-9.99999e-10
-1.87047e-15
-7.47702e-16
-9.99999e-10
-2.55647e-15
-7.27092e-16
-1e-09
-3.00116e-15
-7.15797e-16
-1e-09
-7.09716e-16
-1e-09
-1.00017e-15
-9.99999e-10
-1.84516e-15
-9.99999e-10
-2.53945e-15
-1e-09
-2.99207e-15
-1e-09
-1e-09
-1.3889e-15
-3.09145e-15
-9.99995e-10
-2.61778e-15
-3.09617e-15
-9.99996e-10
-3.54086e-15
-3.07846e-15
-9.99997e-10
-3.96903e-15
-3.09195e-15
-9.99998e-10
-3.20266e-15
-1e-09
-1.3868e-15
-2.6629e-15
-9.99996e-10
-2.59926e-15
-2.66017e-15
-9.99997e-10
-3.55745e-15
-2.64978e-15
-9.99998e-10
-4.10459e-15
-2.65373e-15
-9.99999e-10
-2.69161e-15
-1e-09
-1.37609e-15
-1.93148e-15
-9.99997e-10
-2.5885e-15
-1.92957e-15
-9.99998e-10
-3.56141e-15
-1.92232e-15
-9.99999e-10
-4.16384e-15
-1.90496e-15
-1e-09
-1.91396e-15
-1e-09
-1.3686e-15
-1.01123e-15
-9.99998e-10
-2.57996e-15
-1.00602e-15
-9.99999e-10
-3.54278e-15
-9.87441e-16
-1e-09
-4.17923e-15
-9.95529e-16
-1e-09
-1.0058e-15
-1e-09
-1.35953e-15
-9.99998e-10
-2.55546e-15
-9.99999e-10
-3.54367e-15
-1e-09
-4.18477e-15
-1e-09
-1e-09
-1.90814e-15
-4.22626e-15
-9.99993e-10
-3.59763e-15
-4.22327e-15
-9.99994e-10
-4.93566e-15
-4.18487e-15
-9.99995e-10
-5.76428e-15
-4.14833e-15
-9.99997e-10
-4.13288e-15
-1e-09
-1.89586e-15
-3.61189e-15
-9.99995e-10
-3.55956e-15
-3.59778e-15
-9.99996e-10
-4.90566e-15
-3.59578e-15
-9.99997e-10
-5.77966e-15
-3.59195e-15
-9.99999e-10
-3.57245e-15
-1e-09
-1.87187e-15
-2.61116e-15
-9.99996e-10
-3.55623e-15
-2.61805e-15
-9.99997e-10
-4.90118e-15
-2.61416e-15
-9.99998e-10
-5.77245e-15
-2.60411e-15
-1e-09
-2.60362e-15
-1e-09
-1.87201e-15
-1.37698e-15
-9.99997e-10
-3.55156e-15
-1.3687e-15
-9.99998e-10
-4.89052e-15
-1.3582e-15
-9.99999e-10
-5.77683e-15
-1.36926e-15
-1e-09
-1.37035e-15
-1e-09
-1.85771e-15
-9.99998e-10
-3.53308e-15
-9.99999e-10
-4.89092e-15
-1e-09
-5.76714e-15
-1e-09
-1e-09
-2.60124e-15
-5.76895e-15
-9.99991e-10
-4.90698e-15
-5.75802e-15
-9.99992e-10
-6.75896e-15
-5.71571e-15
-9.99994e-10
-8.0085e-15
-5.6651e-15
-9.99996e-10
-5.55849e-15
-9.99999e-10
-2.57748e-15
-4.90022e-15
-9.99993e-10
-4.86582e-15
-4.89259e-15
-9.99994e-10
-6.71826e-15
-4.89585e-15
-9.99996e-10
-7.95932e-15
-4.87701e-15
-9.99999e-10
-4.80191e-15
-1e-09
-2.55783e-15
-3.55344e-15
-9.99995e-10
-4.86811e-15
-3.56925e-15
-9.99996e-10
-6.69756e-15
-3.56141e-15
-9.99998e-10
-7.89365e-15
-3.54649e-15
-1e-09
-3.52537e-15
-1e-09
-2.56511e-15
-1.88122e-15
-9.99996e-10
-4.85936e-15
-1.86765e-15
-9.99997e-10
-6.68172e-15
-1.85822e-15
-9.99999e-10
-7.87527e-15
-1.85841e-15
-1e-09
-1.84165e-15
-1e-09
-2.54296e-15
-9.99997e-10
-4.83857e-15
-9.99998e-10
-6.66588e-15
-1e-09
-7.84054e-15
-1e-09
-1.00001e-09
-3.52747e-15
-7.8473e-15
-9.99988e-10
-6.66828e-15
-7.83795e-15
-9.99989e-10
-9.18998e-15
-7.79961e-15
-9.99992e-10
-1.08854e-14
-7.74747e-15
-9.99995e-10
-7.60313e-15
-9.99999e-10
-3.49998e-15
-6.66238e-15
-9.99991e-10
-6.6308e-15
-6.67551e-15
-9.99992e-10
-9.14695e-15
-6.67143e-15
-9.99995e-10
-1.08074e-14
-6.6295e-15
-9.99998e-10
-6.53105e-15
-1e-09
-3.49799e-15
-4.84869e-15
-9.99993e-10
-6.62604e-15
-4.85908e-15
-9.99995e-10
-9.10214e-15
-4.83903e-15
-9.99997e-10
-1.07162e-14
-4.81402e-15
-1e-09
-4.78191e-15
-1e-09
-3.49702e-15
-2.556e-15
-9.99995e-10
-6.60435e-15
-2.53432e-15
-9.99997e-10
-9.07527e-15
-2.52298e-15
-9.99999e-10
-1.06868e-14
-2.51958e-15
-1e-09
-2.50181e-15
-1.00001e-09
-3.46277e-15
-9.99996e-10
-6.5771e-15
-9.99998e-10
-9.04932e-15
-1e-09
-1.06442e-14
-1e-09
-1.00001e-09
-4.77308e-15
-1.06717e-14
-9.99984e-10
-9.06357e-15
-1.06754e-14
-9.99985e-10
-1.2515e-14
-1.06296e-14
-9.99989e-10
-1.47884e-14
-1.05454e-14
-9.99993e-10
-1.03597e-14
-9.99999e-10
-4.75255e-15
-9.07935e-15
-9.99988e-10
-9.01815e-15
-9.10758e-15
-9.99989e-10
-1.24346e-14
-9.08404e-15
-9.99993e-10
-1.46698e-14
-9.01858e-15
-9.99997e-10
-8.90802e-15
-1e-09
-4.76019e-15
-6.60636e-15
-9.99991e-10
-8.99333e-15
-6.60113e-15
-9.99993e-10
-1.23651e-14
-6.57259e-15
-9.99996e-10
-1.45711e-14
-6.54546e-15
-1e-09
-6.50667e-15
-1.00001e-09
-4.73922e-15
-3.45934e-15
-9.99994e-10
-8.96252e-15
-3.43906e-15
-9.99995e-10
-1.23353e-14
-3.43232e-15
-9.99999e-10
-1.45358e-14
-3.43752e-15
-1e-09
-3.42911e-15
-1.00001e-09
-4.70092e-15
-9.99995e-10
-8.93384e-15
-9.99997e-10
-1.23102e-14
-1e-09
-1.44943e-14
-1e-09
-1.00001e-09
-6.47301e-15
-1.45705e-14
-9.99978e-10
-1.23278e-14
-1.45898e-14
-9.9998e-10
-1.70363e-14
-1.45226e-14
-9.99985e-10
-2.0158e-14
-1.43799e-14
-9.99991e-10
-1.41178e-14
-9.99998e-10
-6.45994e-15
-1.24001e-14
-9.99983e-10
-1.22616e-14
-1.24219e-14
-9.99986e-10
-1.69007e-14
-1.23773e-14
-9.9999e-10
-1.99599e-14
-1.22973e-14
-9.99996e-10
-1.21702e-14
-1e-09
-6.45279e-15
-8.9966e-15
-9.99988e-10
-1.22142e-14
-8.98411e-15
-9.9999e-10
-1.6816e-14
-8.95648e-15
-9.99995e-10
-1.98403e-14
-8.93367e-15
-1e-09
-8.87728e-15
-1.00001e-09
-6.41878e-15
-4.70209e-15
-9.99991e-10
-1.21839e-14
-4.69705e-15
-9.99994e-10
-1.67905e-14
-4.69706e-15
-9.99998e-10
-1.97861e-14
-4.70836e-15
-1e-09
-4.7013e-15
-1.00001e-09
-6.38822e-15
-9.99993e-10
-1.21542e-14
-9.99996e-10
-1.67616e-14
-1e-09
-1.97344e-14
-1.00001e-09
-1.00001e-09
-8.8114e-15
-1.99461e-14
-9.9997e-10
-1.67526e-14
-1.99645e-14
-9.99973e-10
-2.31046e-14
-1.98791e-14
-9.99979e-10
-2.7323e-14
-1.9713e-14
-9.99988e-10
-1.94301e-14
-9.99997e-10
-8.78551e-15
-1.69422e-14
-9.99977e-10
-1.66688e-14
-1.6943e-14
-9.99981e-10
-2.29499e-14
-1.68857e-14
-9.99987e-10
-2.7107e-14
-1.68072e-14
-9.99995e-10
-1.66697e-14
-1.00001e-09
-8.74675e-15
-1.22685e-14
-9.99984e-10
-1.66074e-14
-1.22659e-14
-9.99987e-10
-2.28666e-14
-1.22398e-14
-9.99993e-10
-2.69711e-14
-1.22176e-14
-1e-09
-1.21405e-14
-1.00001e-09
-8.71517e-15
-6.43207e-15
-9.99988e-10
-1.65779e-14
-6.44222e-15
-9.99992e-10
-2.28416e-14
-6.44145e-15
-9.99998e-10
-2.68934e-14
-6.44745e-15
-1.00001e-09
-6.4337e-15
-1.00002e-09
-8.69036e-15
-9.99991e-10
-1.65371e-14
-9.99994e-10
-2.27944e-14
-1e-09
-2.68185e-14
-1.00001e-09
-1.00002e-09
-1.19978e-14
-2.72482e-14
-9.99959e-10
-2.2738e-14
-2.72481e-14
-9.99964e-10
-3.12792e-14
-2.71628e-14
-9.99972e-10
-3.68829e-14
-2.70316e-14
-9.99984e-10
-2.68205e-14
-9.99997e-10
-1.19369e-14
-2.31131e-14
-9.99969e-10
-2.26514e-14
-2.31048e-14
-9.99974e-10
-3.11563e-14
-2.30418e-14
-9.99982e-10
-3.6726e-14
-2.29684e-14
-9.99994e-10
-2.28452e-14
-1.00001e-09
-1.18756e-14
-1.67503e-14
-9.99978e-10
-2.25839e-14
-1.67645e-14
-9.99983e-10
-3.10792e-14
-1.673e-14
-9.99991e-10
-3.66019e-14
-1.66945e-14
-1e-09
-1.66074e-14
-1.00002e-09
-1.18508e-14
-8.81326e-15
-9.99984e-10
-2.25445e-14
-8.82721e-15
-9.99989e-10
-3.10401e-14
-8.81693e-15
-9.99997e-10
-3.6512e-14
-8.80576e-15
-1.00001e-09
-8.78011e-15
-1.00002e-09
-1.18176e-14
-9.99988e-10
-2.24804e-14
-9.99992e-10
-3.09568e-14
-1e-09
-3.64022e-14
-1.00001e-09
-1.00003e-09
-1.62957e-14
-3.70989e-14
-9.99945e-10
-3.08744e-14
-3.70914e-14
-9.99951e-10
-4.24484e-14
-3.70051e-14
-9.99963e-10
-4.98914e-14
-3.68932e-14
-9.99978e-10
-3.67652e-14
-9.99997e-10
-1.62057e-14
-3.14897e-14
-9.99959e-10
-3.07844e-14
-3.14971e-14
-9.99965e-10
-4.23386e-14
-3.14169e-14
-9.99976e-10
-4.97835e-14
-3.13149e-14
-9.99992e-10
-3.11843e-14
-1.00001e-09
-1.61416e-14
-2.28673e-14
-9.99971e-10
-3.06992e-14
-2.28899e-14
-9.99977e-10
-4.2234e-14
-2.283e-14
-9.99988e-10
-4.96539e-14
-2.27518e-14
-1e-09
-2.26418e-14
-1.00002e-09
-1.61108e-14
-1.20476e-14
-9.99979e-10
-3.06327e-14
-1.20584e-14
-9.99985e-10
-4.21505e-14
-1.2029e-14
-9.99996e-10
-4.95397e-14
-1.19816e-14
-1.00001e-09
-1.19261e-14
-1.00003e-09
-1.60579e-14
-9.99984e-10
-3.05305e-14
-9.9999e-10
-4.20046e-14
-1e-09
-4.93696e-14
-1.00002e-09
-1.00003e-09
-2.21167e-14
-5.04683e-14
-9.99925e-10
-4.19937e-14
-5.04769e-14
-9.99934e-10
-5.77723e-14
-5.03413e-14
-9.99949e-10
-6.78066e-14
-5.0146e-14
-9.99971e-10
-4.99453e-14
-9.99996e-10
-2.20145e-14
-4.28985e-14
-9.99944e-10
-4.18552e-14
-4.29218e-14
-9.99953e-10
-5.75829e-14
-4.27842e-14
-9.99968e-10
-6.7617e-14
-4.25814e-14
-9.99989e-10
-4.23513e-14
-1.00001e-09
-2.19407e-14
-3.11891e-14
-9.9996e-10
-4.17104e-14
-3.12036e-14
-9.99969e-10
-5.73773e-14
-3.1092e-14
-9.99984e-10
-6.73847e-14
-3.09245e-14
-1.00001e-09
-3.07394e-14
-1.00003e-09
-2.1883e-14
-1.6424e-14
-9.99972e-10
-4.15898e-14
-1.64292e-14
-9.9998e-10
-5.72029e-14
-1.63632e-14
-9.99996e-10
-6.7192e-14
-1.62574e-14
-1.00002e-09
-1.61511e-14
-1.00004e-09
-2.18017e-14
-9.99979e-10
-4.14248e-14
-9.99987e-10
-5.69628e-14
-1e-09
-6.69293e-14
-1.00002e-09
-1.00005e-09
-3.007e-14
-6.87335e-14
-9.99899e-10
-5.71808e-14
-6.87453e-14
-9.9991e-10
-7.86871e-14
-6.84758e-14
-9.99931e-10
-9.2377e-14
-6.80829e-14
-9.99961e-10
-6.76338e-14
-9.99995e-10
-2.99321e-14
-5.84629e-14
-9.99925e-10
-5.69081e-14
-5.84653e-14
-9.99936e-10
-7.83055e-14
-5.82104e-14
-9.99957e-10
-9.19409e-14
-5.7827e-14
-9.99986e-10
-5.73941e-14
-1.00002e-09
-2.98036e-14
-4.24972e-14
-9.99947e-10
-5.66426e-14
-4.24882e-14
-9.99958e-10
-7.79191e-14
-4.22874e-14
-9.99979e-10
-9.14997e-14
-4.19849e-14
-1.00001e-09
-4.16678e-14
-1.00004e-09
-2.96974e-14
-2.23595e-14
-9.99963e-10
-5.64295e-14
-2.23499e-14
-9.99974e-10
-7.7608e-14
-2.2229e-14
-9.99994e-10
-9.11684e-14
-2.20582e-14
-1.00002e-09
-2.18939e-14
-1.00006e-09
-2.95707e-14
-9.99971e-10
-5.61734e-14
-9.99982e-10
-7.72552e-14
-1e-09
-9.07896e-14
-1.00003e-09
-1.00006e-09
-4.09324e-14
-9.37025e-14
-9.99863e-10
-7.78312e-14
-9.36637e-14
-9.99878e-10
-1.07081e-13
-9.31756e-14
-9.99907e-10
-1.2581e-13
-9.25009e-14
-9.99946e-10
-9.16905e-14
-9.99993e-10
-4.06901e-14
-7.96809e-14
-9.99898e-10
-7.73349e-14
-7.96212e-14
-9.99913e-10
-1.06417e-13
-7.91877e-14
-9.99942e-10
-1.25011e-13
-7.8561e-14
-9.99981e-10
-7.7864e-14
-1.00003e-09
-4.04542e-14
-5.78786e-14
-9.99928e-10
-7.68876e-14
-5.78324e-14
-9.99943e-10
-1.05788e-13
-5.75017e-14
-9.99971e-10
-1.24302e-13
-5.70323e-14
-1.00001e-09
-5.65359e-14
-1.00006e-09
-4.02767e-14
-3.04337e-14
-9.9995e-10
-7.65395e-14
-3.03971e-14
-9.99965e-10
-1.05307e-13
-3.02151e-14
-9.99993e-10
-1.23785e-13
-2.9982e-14
-1.00003e-09
-2.97406e-14
-1.00008e-09
-4.0081e-14
-9.99962e-10
-7.61734e-14
-9.99976e-10
-1.04827e-13
-1e-09
-1.23251e-13
-1.00004e-09
-1.00009e-09
-5.56809e-14
-1.27781e-13
-9.99814e-10
-1.05814e-13
-1.27642e-13
-9.99835e-10
-1.4557e-13
-1.26865e-13
-9.99874e-10
-1.71124e-13
-1.25819e-13
-9.99927e-10
-1.24572e-13
-9.9999e-10
-5.52649e-14
-1.08598e-13
-9.99862e-10
-1.05021e-13
-1.08456e-13
-9.99883e-10
-1.44532e-13
-1.0778e-13
-9.99921e-10
-1.69887e-13
-1.06841e-13
-9.99974e-10
-1.05808e-13
-1.00004e-09
-5.48857e-14
-7.88399e-14
-9.99903e-10
-1.04328e-13
-7.87369e-14
-9.99923e-10
-1.43592e-13
-7.8235e-14
-9.99961e-10
-1.68842e-13
-7.75565e-14
-1.00001e-09
-7.68019e-14
-1.00008e-09
-5.46048e-14
-4.14403e-14
-9.99932e-10
-1.03802e-13
-4.13733e-14
-9.99953e-10
-1.42897e-13
-4.11268e-14
-9.99991e-10
-1.68061e-13
-4.08004e-14
-1.00004e-09
-4.04201e-14
-1.0001e-09
-5.43215e-14
-9.99949e-10
-1.03305e-13
-9.99969e-10
-1.42234e-13
-1.00001e-09
-1.67282e-13
-1.00006e-09
-1.00012e-09
-7.56541e-14
-1.74281e-13
-9.99748e-10
-1.43729e-13
-1.74012e-13
-9.99776e-10
-1.97784e-13
-1.72847e-13
-9.99829e-10
-2.32562e-13
-1.71268e-13
-9.99901e-10
-1.69428e-13
-9.99987e-10
-7.50095e-14
-1.48042e-13
-9.99813e-10
-1.42542e-13
-1.47793e-13
-9.99841e-10
-1.9621e-13
-1.46776e-13
-9.99893e-10
-2.30729e-13
-1.45388e-13
-9.99965e-10
-1.4384e-13
-1.00005e-09
-7.44404e-14
-1.07439e-13
-9.99869e-10
-1.41501e-13
-1.07247e-13
-9.99897e-10
-1.94821e-13
-1.06512e-13
-9.99948e-10
-2.29168e-13
-1.0552e-13
-1.00002e-09
-1.04367e-13
-1.0001e-09
-7.40086e-14
-5.64622e-14
-9.99909e-10
-1.40733e-13
-5.63669e-14
-9.99937e-10
-1.93806e-13
-5.60179e-14
-9.99988e-10
-2.27982e-13
-5.55111e-14
-1.00006e-09
-5.49118e-14
-1.00014e-09
-7.36204e-14
-9.99931e-10
-1.40043e-13
-9.99959e-10
-1.92839e-13
-1.00001e-09
-2.26839e-13
-1.00008e-09
-1.00016e-09
-1.02748e-13
-2.37777e-13
-9.99658e-10
-1.95202e-13
-2.37313e-13
-9.99696e-10
-2.68709e-13
-2.35552e-13
-9.99768e-10
-3.16008e-13
-2.33135e-13
-9.99867e-10
-2.30345e-13
-9.99983e-10
-1.01776e-13
-2.01893e-13
-9.99747e-10
-1.93408e-13
-2.01462e-13
-9.99785e-10
-2.66294e-13
-1.99921e-13
-9.99856e-10
-3.13227e-13
-1.97823e-13
-9.99953e-10
-1.95433e-13
-1.00007e-09
-1.00913e-13
-1.46473e-13
-9.99823e-10
-1.91836e-13
-1.46146e-13
-9.99861e-10
-2.64192e-13
-1.45047e-13
-9.99931e-10
-3.10824e-13
-1.43535e-13
-1.00003e-09
-1.41776e-13
-1.00014e-09
-1.00264e-13
-7.69763e-14
-9.99878e-10
-1.90693e-13
-7.68299e-14
-9.99916e-10
-2.62647e-13
-7.62779e-14
-9.99985e-10
-3.09021e-13
-7.54738e-14
-1.00008e-09
-7.45648e-14
-1.00019e-09
-9.97208e-14
-9.99909e-10
-1.89675e-13
-9.99946e-10
-2.61215e-13
-1.00001e-09
-3.07371e-13
-1.00011e-09
-1.00022e-09
-1.39555e-13
-3.24552e-13
-9.99535e-10
-2.65168e-13
-3.23732e-13
-9.99588e-10
-3.65114e-13
-3.20999e-13
-9.99685e-10
-4.29502e-13
-3.17254e-13
-9.9982e-10
-3.12937e-13
-9.99978e-10
-1.38049e-13
-2.7544e-13
-9.99658e-10
-2.62389e-13
-2.74692e-13
-9.9971e-10
-3.61366e-13
-2.72315e-13
-9.99805e-10
-4.25193e-13
-2.69073e-13
-9.99937e-10
-2.65343e-13
-1.00009e-09
-1.36719e-13
-1.9977e-13
-9.99762e-10
-2.59971e-13
-1.99222e-13
-9.99813e-10
-3.58116e-13
-1.97507e-13
-9.99907e-10
-4.21453e-13
-1.95142e-13
-1.00004e-09
-1.92423e-13
-1.00019e-09
-1.35736e-13
-1.04987e-13
-9.99837e-10
-2.58195e-13
-1.04715e-13
-9.99887e-10
-3.55704e-13
-1.03811e-13
-9.99981e-10
-4.18676e-13
-1.02558e-13
-1.00011e-09
-1.01157e-13
-1.00026e-09
-1.34926e-13
-9.99879e-10
-2.56656e-13
-9.99928e-10
-3.53593e-13
-1.00002e-09
-4.16263e-13
-1.00015e-09
-1.0003e-09
-1.89532e-13
-4.43225e-13
-9.9937e-10
-3.60239e-13
-4.41789e-13
-9.99441e-10
-4.96131e-13
-4.37519e-13
-9.99574e-10
-5.83854e-13
-4.31707e-13
-9.99756e-10
-4.25036e-13
-9.99971e-10
-1.87175e-13
-3.7593e-13
-9.99538e-10
-3.55908e-13
-3.74648e-13
-9.99608e-10
-4.9031e-13
-3.70928e-13
-9.99737e-10
-5.77182e-13
-3.6587e-13
-9.99916e-10
-3.60039e-13
-1.00013e-09
-1.85111e-13
-2.7257e-13
-9.9968e-10
-3.52131e-13
-2.71621e-13
-9.99748e-10
-4.85239e-13
-2.68884e-13
-9.99876e-10
-5.71341e-13
-2.65146e-13
-1.00005e-09
-2.60861e-13
-1.00026e-09
-1.83577e-13
-1.43219e-13
-9.99783e-10
-3.49309e-13
-1.42706e-13
-9.9985e-10
-4.81434e-13
-1.41252e-13
-9.99976e-10
-5.66977e-13
-1.3929e-13
-1.00015e-09
-1.37051e-13
-1.00035e-09
-1.82333e-13
-9.99839e-10
-3.46987e-13
-9.99906e-10
-4.783e-13
-1.00003e-09
-5.63356e-13
-1.0002e-09
-1.00041e-09
-2.57352e-13
-6.05632e-13
-9.99146e-10
-4.89317e-13
-6.03177e-13
-9.99243e-10
-6.74087e-13
-5.96499e-13
-9.99423e-10
-7.93598e-13
-5.87471e-13
-9.9967e-10
-5.77169e-13
-9.99962e-10
-2.53663e-13
-5.13301e-13
-9.99376e-10
-4.82558e-13
-5.11111e-13
-9.99471e-10
-6.65048e-13
-5.05239e-13
-9.99646e-10
-7.83282e-13
-4.97301e-13
-9.99888e-10
-4.8819e-13
-1.00017e-09
-2.50425e-13
-3.72026e-13
-9.99571e-10
-4.76609e-13
-3.70362e-13
-9.99663e-10
-6.57092e-13
-3.65982e-13
-9.99834e-10
-7.74148e-13
-3.6005e-13
-1.00007e-09
-3.53267e-13
-1.00035e-09
-2.47975e-13
-1.9542e-13
-9.99711e-10
-4.72113e-13
-1.94516e-13
-9.99802e-10
-6.51064e-13
-1.92197e-13
-9.9997e-10
-7.67248e-13
-1.89081e-13
-1.0002e-09
-1.8549e-13
-1.00048e-09
-2.46079e-13
-9.99788e-10
-4.68608e-13
-9.99878e-10
-6.46342e-13
-1.00005e-09
-7.61762e-13
-1.00028e-09
-1.00055e-09
-3.49351e-13
-8.28024e-13
-9.98844e-10
-6.64437e-13
-8.2385e-13
-9.98976e-10
-9.15682e-13
-8.13352e-13
-9.99219e-10
-1.07851e-12
-7.99267e-13
-9.99554e-10
-7.833e-13
-9.99951e-10
-3.43531e-13
-7.01177e-13
-9.9916e-10
-6.53838e-13
-6.97421e-13
-9.99287e-10
-9.01587e-13
-6.88103e-13
-9.99523e-10
-1.0625e-12
-6.75571e-13
-9.99851e-10
-6.61311e-13
-1.00024e-09
-3.38378e-13
-5.07966e-13
-9.99425e-10
-6.44416e-13
-5.05075e-13
-9.99549e-10
-8.89026e-13
-4.98061e-13
-9.9978e-10
-1.04819e-12
-4.88623e-13
-1.0001e-09
-4.77889e-13
-1.00048e-09
-3.34436e-13
-2.66799e-13
-9.99618e-10
-6.37238e-13
-2.6524e-13
-9.99738e-10
-8.79446e-13
-2.61524e-13
-9.99965e-10
-1.03728e-12
-2.56524e-13
-1.00028e-09
-2.50805e-13
-1.00065e-09
-3.31537e-13
-9.99723e-10
-6.31897e-13
-9.99843e-10
-8.72242e-13
-1.00007e-09
-1.02896e-12
-1.00038e-09
-1.00074e-09
-4.74028e-13
-1.13281e-12
-9.98437e-10
-9.01916e-13
-1.1257e-12
-9.98614e-10
-1.24359e-12
-1.10908e-12
-9.98944e-10
-1.4656e-12
-1.08698e-12
-9.99399e-10
-1.06218e-12
-9.99938e-10
-4.64747e-13
-9.58299e-13
-9.98869e-10
-8.85165e-13
-9.51834e-13
-9.9904e-10
-1.22148e-12
-9.36933e-13
-9.99359e-10
-1.44072e-12
-9.1702e-13
-9.99801e-10
-8.94605e-13
-1.00033e-09
-4.56442e-13
-6.94024e-13
-9.99233e-10
-8.70121e-13
-6.88993e-13
-9.99398e-10
-1.20152e-12
-6.77686e-13
-9.99707e-10
-1.4182e-12
-6.62538e-13
-1.00014e-09
-6.45471e-13
-1.00065e-09
-4.50024e-13
-3.64599e-13
-9.99497e-10
-8.58571e-13
-3.6187e-13
-9.99657e-10
-1.18617e-12
-3.55851e-13
-9.99959e-10
-1.40085e-12
-3.47729e-13
-1.00038e-09
-3.38589e-13
-1.00088e-09
-4.45495e-13
-9.99642e-10
-8.50315e-13
-9.998e-10
-1.17502e-12
-1.0001e-09
-1.38811e-12
-1.00051e-09
-1.001e-09
-6.4284e-13
-1.55114e-12
-9.97886e-10
-1.22395e-12
-1.53892e-12
-9.98126e-10
-1.6887e-12
-1.5123e-12
-9.98573e-10
-1.99188e-12
-1.47738e-12
-9.99192e-10
-1.43869e-12
-9.99926e-10
-6.27781e-13
-1.31049e-12
-9.98482e-10
-1.19715e-12
-1.29927e-12
-9.9871e-10
-1.65376e-12
-1.27524e-12
-9.99139e-10
-1.95303e-12
-1.24331e-12
-9.99736e-10
-1.20782e-12
-1.00045e-09
-6.14203e-13
-9.49238e-13
-9.9898e-10
-1.17292e-12
-9.40312e-13
-9.99198e-10
-1.62178e-12
-9.2189e-13
-9.99612e-10
-1.91734e-12
-8.9719e-13
-1.00019e-09
-8.69748e-13
-1.00088e-09
-6.03485e-13
-4.9901e-13
-9.99343e-10
-1.15409e-12
-4.94123e-13
-9.99552e-10
-1.59677e-12
-4.84287e-13
-9.99953e-10
-1.88941e-12
-4.70935e-13
-1.00051e-09
-4.56098e-13
-1.00118e-09
-5.96211e-13
-9.99545e-10
-1.14114e-12
-9.99749e-10
-1.57928e-12
-1.00014e-09
-1.86958e-12
-1.00069e-09
-1.00135e-09
-8.7127e-13
-2.12677e-12
-9.97143e-10
-1.66078e-12
-2.10522e-12
-9.97467e-10
-2.2933e-12
-2.06195e-12
-9.98074e-10
-2.70817e-12
-2.00604e-12
-9.98916e-10
-1.94516e-12
-9.99916e-10
-8.46056e-13
-1.79316e-12
-9.97969e-10
-1.61711e-12
-1.77344e-12
-9.98271e-10
-2.23725e-12
-1.73453e-12
-9.98847e-10
-2.64693e-12
-1.68264e-12
-9.9965e-10
-1.62589e-12
-1.00061e-09
-8.23551e-13
-1.30066e-12
-9.98649e-10
-1.57788e-12
-1.2842e-12
-9.98933e-10
-2.18542e-12
-1.25392e-12
-9.99485e-10
-2.58986e-12
-1.2128e-12
-1.00025e-09
-1.16799e-12
-1.00118e-09
-8.04875e-13
-6.84766e-13
-9.99154e-10
-1.54672e-12
-6.7571e-13
-9.99419e-10
-2.14387e-12
-6.59792e-13
-9.9995e-10
-2.54414e-12
-6.3747e-13
-1.00069e-09
-6.13151e-13
-1.00158e-09
-7.92777e-13
-9.99437e-10
-1.52637e-12
-9.99691e-10
-2.11594e-12
-1.00021e-09
-2.51286e-12
-1.00093e-09
-1.00181e-09
-1.18033e-12
-2.92321e-12
-9.96131e-10
-2.25435e-12
-2.8835e-12
-9.96569e-10
-3.11574e-12
-2.81146e-12
-9.974e-10
-3.68473e-12
-2.71981e-12
-9.98549e-10
-2.62222e-12
-9.99915e-10
-1.13578e-12
-2.4539e-12
-9.97303e-10
-2.1808e-12
-2.41879e-12
-9.97691e-10
-3.02328e-12
-2.35628e-12
-9.9846e-10
-3.58633e-12
-2.27078e-12
-9.99536e-10
-2.17893e-12
-1.00083e-09
-1.09818e-12
-1.78834e-12
-9.98216e-10
-2.11768e-12
-1.7557e-12
-9.98577e-10
-2.93847e-12
-1.70613e-12
-9.99314e-10
-3.49424e-12
-1.63555e-12
-1.00033e-09
-1.56116e-12
-1.00156e-09
-1.06293e-12
-9.43937e-13
-9.98936e-10
-2.06548e-12
-9.26147e-13
-9.99246e-10
-2.86743e-12
-9.01656e-13
-9.99953e-10
-3.41797e-12
-8.63462e-13
-1.00091e-09
-8.23744e-13
-1.00209e-09
-1.0416e-12
-9.9934e-10
-2.03423e-12
-9.99624e-10
-2.82204e-12
-1.00033e-09
-3.36845e-12
-1.00125e-09
-1.0024e-09
-1.5999e-12
-4.04031e-12
-9.9471e-10
-3.06548e-12
-3.96153e-12
-9.95314e-10
-4.23877e-12
-3.83642e-12
-9.96474e-10
-5.01991e-12
-3.68002e-12
-9.98062e-10
-3.51648e-12
-9.99932e-10
-1.51257e-12
-3.35035e-12
-9.96481e-10
-2.93317e-12
-3.28818e-12
-9.96944e-10
-4.07817e-12
-3.19296e-12
-9.97958e-10
-4.8546e-12
-3.0505e-12
-9.99389e-10
-2.89955e-12
-1.0011e-09
-1.45086e-12
-2.4769e-12
-9.97639e-10
-2.83622e-12
-2.40365e-12
-9.98076e-10
-3.93947e-12
-2.32568e-12
-9.99078e-10
-4.70483e-12
-2.19788e-12
-1.00042e-09
-2.07214e-12
-1.00203e-09
-1.37461e-12
-1.31126e-12
-9.98728e-10
-2.74779e-12
-1.27249e-12
-9.99004e-10
-3.81183e-12
-1.24124e-12
-9.99973e-10
-4.5745e-12
-1.17346e-12
-1.00117e-09
-1.10958e-12
-1.00268e-09
-1.33639e-12
-9.99314e-10
-2.7038e-12
-9.99529e-10
-3.73651e-12
-1.00054e-09
-4.49698e-12
-1.00166e-09
-1.00314e-09
-2.18049e-12
-5.65906e-12
-9.92542e-10
-4.19471e-12
-5.48597e-12
-9.93426e-10
-5.78989e-12
-5.25371e-12
-9.95136e-10
-6.8524e-12
-4.96893e-12
-9.97414e-10
-4.6671e-12
-9.99955e-10
-1.97373e-12
-4.52794e-12
-9.95638e-10
-3.92356e-12
-4.41937e-12
-9.96061e-10
-5.4825e-12
-4.30116e-12
-9.97352e-10
-6.54513e-12
-4.06637e-12
-9.99229e-10
-3.81225e-12
-1.00134e-09
-1.89123e-12
-3.48881e-12
-9.96787e-10
-3.79949e-12
-3.29463e-12
-9.97293e-10
-5.26349e-12
-3.18982e-12
-9.98726e-10
-6.29858e-12
-2.9351e-12
-1.00052e-09
-2.71855e-12
-1.00243e-09
-1.71325e-12
-1.84201e-12
-9.98661e-10
-3.64373e-12
-1.74897e-12
-9.98619e-10
-5.01122e-12
-1.73707e-12
-1.00006e-09
-6.06955e-12
-1.60699e-12
-1.00144e-09
-1.50896e-12
-1.00321e-09
-1.65383e-12
-9.99503e-10
-3.59503e-12
-9.99337e-10
-4.87909e-12
-1.00099e-09
-5.95502e-12
-1.00219e-09
-1.00396e-09
-3.03429e-12
-8.12017e-12
-9.88827e-10
-5.8497e-12
-7.72348e-12
-9.90248e-10
-8.00695e-12
-7.27054e-12
-9.92982e-10
-9.36491e-12
-6.71399e-12
-9.96573e-10
-6.05296e-12
-9.99866e-10
-2.45328e-12
-6.02058e-12
-9.95284e-10
-5.17255e-12
-5.79239e-12
-9.95273e-10
-7.31877e-12
-5.718e-12
-9.96758e-10
-8.70074e-12
-5.35103e-12
-9.9921e-10
-4.89668e-12
-1.00118e-09
-2.46045e-12
-5.0708e-12
-9.95277e-10
-5.12841e-12
-4.5262e-12
-9.95891e-10
-7.03448e-12
-4.45744e-12
-9.9808e-10
-8.32276e-12
-3.85805e-12
-1.00072e-09
-3.50366e-12
-1.00229e-09
-1.99826e-12
-2.60622e-12
-9.99127e-10
-4.80026e-12
-2.39106e-12
-9.97952e-10
-6.44754e-12
-2.51628e-12
-1.00035e-09
-7.89385e-12
-2.22455e-12
-1.00163e-09
-2.09801e-12
-1.00316e-09
-1.93804e-12
-1.00017e-09
-4.7911e-12
-9.98875e-10
-6.24352e-12
-1.00205e-09
-7.76045e-12
-1.0029e-09
-1.0046e-09
-4.40906e-12
-1.18656e-11
-9.82155e-10
-8.47905e-12
-1.10454e-11
-9.84629e-10
-1.14381e-11
-1.02153e-11
-9.89138e-10
-1.28608e-11
-9.15981e-12
-9.95661e-10
-7.43639e-12
-9.99281e-10
-2.76079e-12
-7.99645e-12
-9.96393e-10
-6.57023e-12
-7.40731e-12
-9.95101e-10
-9.62218e-12
-7.50037e-12
-9.96421e-10
-1.13459e-11
-6.90469e-12
-9.99742e-10
-6.0105e-12
-9.99706e-10
-3.28296e-12
-7.6354e-12
-9.92355e-10
-7.0525e-12
-6.20181e-12
-9.93327e-10
-9.56736e-12
-6.50147e-12
-9.96564e-10
-1.09978e-11
-4.85653e-12
-1.00134e-09
-4.4617e-12
-1.00057e-09
-1.97497e-12
-3.75863e-12
-1.00103e-09
-6.19763e-12
-3.20772e-12
-9.96724e-10
-8.06673e-12
-3.85292e-12
-1.00113e-09
-1.00456e-11
-3.12878e-12
-1.00138e-09
-3.06319e-12
-1.00152e-09
-2.06677e-12
-1.00186e-09
-6.4298e-12
-9.9772e-10
-7.85983e-12
-1.00448e-09
-9.99514e-12
-1.00389e-09
-1.00471e-09
-6.77421e-12
-1.73537e-11
-9.70247e-10
-1.28498e-11
-1.58305e-11
-9.75028e-10
-1.72097e-11
-1.43401e-11
-9.8204e-10
-1.82564e-11
-1.26261e-11
-9.95445e-10
-8.26572e-12
-9.9766e-10
-2.4616e-12
-1.0797e-11
-1.00049e-09
-7.73766e-12
-9.33225e-12
-9.96323e-10
-1.20865e-11
-9.86954e-12
-9.96543e-10
-1.44967e-11
-8.67448e-12
-1.00128e-09
-6.84037e-12
-9.95186e-10
-4.62714e-12
-1.18371e-11
-9.86687e-10
-9.82372e-12
-8.17159e-12
-9.89291e-10
-1.33023e-11
-1.00531e-11
-9.92902e-10
-1.48726e-11
-5.61689e-12
-1.00283e-09
-5.78077e-12
-9.95314e-10
-1.05307e-12
-5.78299e-12
-1.00603e-09
-7.6514e-12
-4.23624e-12
-9.94061e-10
-9.53665e-12
-6.33932e-12
-1.00296e-09
-1.25531e-11
-4.50696e-12
-9.99469e-10
-4.89897e-12
-9.96399e-10
-1.75962e-12
-1.00589e-09
-8.86595e-12
-9.9485e-10
-9.64231e-12
-1.01004e-09
-1.29562e-11
-1.00509e-09
-1.00416e-09
-1.10705e-11
-2.52287e-11
-9.48954e-10
-1.99969e-11
-2.27862e-11
-9.59676e-10
-2.72334e-11
-1.98467e-11
-9.68361e-10
-2.74572e-11
-1.73827e-11
-9.98257e-10
-7.54693e-12
-9.9451e-10
-6.88817e-13
-1.48977e-11
-1.01013e-09
-7.84231e-12
-1.15812e-11
-1.00037e-09
-1.3547e-11
-1.32595e-11
-9.97425e-10
-1.78016e-11
-1.05916e-11
-1.00382e-09
-6.63474e-12
-9.8414e-10
-7.31676e-12
-1.90945e-11
-9.75174e-10
-1.36784e-11
-9.52798e-12
-9.84982e-10
-1.84156e-11
-1.66912e-11
-9.84733e-10
-2.07406e-11
-5.33315e-12
-1.00576e-09
-8.00061e-12
-9.82683e-10
2.57345e-12
-9.71089e-12
-1.01799e-09
-8.76156e-12
-5.46609e-12
-9.86788e-10
-9.60082e-12
-1.15125e-11
-1.0073e-09
-1.51347e-11
-6.66784e-12
-9.92601e-10
-8.93156e-12
-9.83534e-10
-4.58828e-13
-1.01514e-09
-1.29327e-11
-9.87843e-10
-1.10517e-11
-1.02343e-09
-1.70086e-11
-1.0058e-09
-1.00388e-09
-1.94677e-11
-3.60135e-11
-9.10011e-10
-3.3085e-11
-3.36243e-11
-9.35145e-10
-4.56315e-11
-2.6901e-11
-9.41717e-10
-4.45503e-11
-2.30607e-11
-1.01074e-09
-1.7638e-12
-9.91547e-10
4.68562e-12
-2.16691e-11
-1.02916e-09
-6.31103e-12
-1.42535e-11
-1.00875e-09
-1.1768e-11
-1.81296e-11
-1.00074e-09
-2.07138e-11
-1.1021e-11
-1.00691e-09
-2.6666e-12
-9.5972e-10
-1.30262e-11
-3.29202e-11
-9.50896e-10
-1.97977e-11
-7.25319e-12
-9.85211e-10
-2.51259e-11
-3.01618e-11
-9.67373e-10
-3.04624e-11
-2.24115e-12
-1.0092e-09
-1.18725e-11
-9.5412e-10
1.32773e-11
-1.72574e-11
-1.04693e-09
-8.54278e-12
-6.25171e-12