FoamFile
{version 2.0; format ascii;class Cloud<passiveParticle>; location 0;object  positions;}
41
(
( 0.000196945 -0.000390602 9.99294e-05 ) 0 
( 4.48805e-05 -4.16331e-05 9.99112e-05 ) 0 
( 0.000177045 -0.000191666 9.98653e-05 ) 0 
( 0.0004084 -0.000255461 9.97971e-05 ) 0 
( 4.80408e-05 -0.000417046 0.000233494 ) 0 
( 0.00038471 -0.000387216 0.00024823 ) 0 
( 0.000324137 -5.61915e-05 9.979e-05 ) 0 
( 6.34165e-05 -0.000192943 0.00026796 ) 0 
( 0.000299022 -0.000200793 0.000257883 ) 0 
( 0.000185641 -3.67742e-05 0.000242459 ) 0 
( 0.000474183 -0.000110148 0.000220239 ) 0 
( 0.000208338 -0.000359749 0.000338308 ) 0 
( 5.05377e-05 -3.46865e-05 0.000389685 ) 0 
( 0.000407075 -0.000257852 0.000415994 ) 0 
( 0.000294203 -6.82546e-05 0.000407391 ) 0 
( 0.000284494 -0.000372577 0.000524479 ) 0 
( 0.000150931 -0.000202284 0.000447382 ) 0 
( 0.000108905 -0.000457916 0.000481225 ) 0 
( 0.000266714 -0.000192696 0.000610045 ) 0 
( 0.000141036 -4.29915e-05 0.00056779 ) 0 
( 0.000494007 -0.000332612 0.000579738 ) 0 
( 0.000434469 -0.000105614 0.000544908 ) 0 
( 4.60284e-05 -0.000300136 0.00058671 ) 0 
( 0.000165519 -0.00043665 0.000671808 ) 0 
( 0.00042682 -0.000215946 0.000727547 ) 0 
( 0.00028432 -1.75507e-05 0.00070492 ) 0 
( 0.000364194 -0.000425563 0.000700105 ) 0 
( 0.000243158 -0.000289829 0.000783187 ) 0 
( 0.000450629 -3.73222e-05 0.000814159 ) 0 
( 5.34158e-05 -0.00022755 0.000792964 ) 0 
( 0.000200667 -0.000110562 0.000860871 ) 0 
( 0.000220579 -0.000462086 0.000882131 ) 0 
( 0.000396707 -0.000288895 0.000911282 ) 0 
( 0.000357251 -8.86831e-05 0.000983316 ) 0 
( 8.13474e-05 -0.000339321 0.000956355 ) 0 
( 0.000361549 -0.000463347 0.00102395 ) 0 
( 4.14979e-05 -0.000144484 0.000977025 ) 0 
( 0.000241186 -0.000244598 0.00103022 ) 0 
( 0.000463632 -9.43207e-06 0.00113297 ) 0 
( 9.77694e-05 -0.000446591 0.00112432 ) 0 
( 0.000366528 -0.000322086 0.00116541 ) 0 
)
