FoamFile
{version 2.0; format ascii;class Cloud<passiveParticle>; location 0;object  positions;}
43
(
( -3.5431e-06 -0.00027768 9.98267e-05 ) 0 
( -0.000466738 -0.000422007 9.99715e-05 ) 0 
( -9.57283e-05 -0.000455109 9.98354e-05 ) 0 
( -0.000285646 -1.4892e-05 9.99064e-05 ) 0 
( -0.000380593 -0.000192585 9.98184e-05 ) 0 
( -0.000180714 -0.000185101 9.98388e-05 ) 0 
( -0.000275489 -0.000362989 9.99719e-05 ) 0 
( -0.000104336 -5.6189e-05 0.000232233 ) 0 
( -0.00044319 -0.000286702 0.000264654 ) 0 
( -0.000342015 -0.000459128 0.000262316 ) 0 
( -0.000281872 -0.000156713 0.000269835 ) 0 
( -0.000140132 -0.000320718 0.000241009 ) 0 
( -0.00043531 -0.000136523 0.000396402 ) 0 
( -0.000233101 -1.62266e-05 0.000403371 ) 0 
( -1.80841e-05 -0.00032702 0.000399257 ) 0 
( -0.000166028 -0.000480421 0.000426226 ) 0 
( -0.000276027 -0.000318003 0.000387601 ) 0 
( -0.000483295 -0.000424611 0.000403668 ) 0 
( -0.000155903 -0.000320811 0.00054736 ) 0 
( -9.58956e-05 -0.000152416 0.000457767 ) 0 
( -0.000284106 -0.000169356 0.000522821 ) 0 
( -0.00041539 -0.000102352 0.000680734 ) 0 
( -0.000335765 -0.000430314 0.000541712 ) 0 
( -5.55885e-05 -0.000487693 0.000592733 ) 0 
( -0.000333334 -0.000284638 0.000678551 ) 0 
( -2.63934e-05 -0.000122447 0.000642823 ) 0 
( -0.000216746 -0.000120325 0.000704529 ) 0 
( -9.22106e-05 -0.000351427 0.000734377 ) 0 
( -7.02723e-05 -6.77925e-05 0.000830041 ) 0 
( -0.000323048 -0.000195028 0.000856978 ) 0 
( -0.000437741 -8.06965e-05 0.000974262 ) 0 
( -0.000133794 -0.000244691 0.000898241 ) 0 
( -0.000261876 -0.000386434 0.000835093 ) 0 
( -0.000466639 -0.000377405 0.000795155 ) 0 
( -0.000212291 -7.28158e-05 0.000970694 ) 0 
( -8.79124e-05 -0.000438779 0.000918654 ) 0 
( -0.000447617 -0.0003832 0.000994099 ) 0 
( -0.000256712 -0.000334282 0.00102807 ) 0 
( -5.66278e-05 -6.0614e-06 0.00108281 ) 0 
( -6.77191e-05 -0.000291957 0.00108095 ) 0 
( -0.000320144 -9.09912e-05 0.00113809 ) 0 
( -9.76928e-05 -0.000487159 0.00111243 ) 0 
( -0.000468221 -0.000222758 0.00111166 ) 0 
)
