FoamFile
{version 2.0; format ascii;class Cloud<passiveParticle>; location 0;object  positions;}
344
(
( 1.96269 -0.814736 0.499618 ) 0 
( 3.2055 -2.12563 0.499623 ) 0 
( 0.26566 -1.42505 0.499908 ) 0 
( 1.28078 -1.54655 0.499922 ) 0 
( 0.161226 -3.71768 0.499967 ) 0 
( 4.64676 -3.15766 0.499941 ) 0 
( 0.953524 -0.601664 0.499927 ) 0 
( 1.32038 -3.07967 0.499792 ) 0 
( 4.07798 -3.98335 0.499975 ) 0 
( 1.58992 -4.98566 0.499883 ) 0 
( 3.23559 -4.88781 0.499698 ) 0 
( 3.92408 -0.825224 0.499834 ) 0 
( 0.119912 -4.94617 0.4996 ) 0 
( 2.86046 -3.62224 0.49954 ) 0 
( 0.626862 -2.35941 0.499767 ) 0 
( 2.33552 -2.61835 0.499642 ) 0 
( 3.65686 -3.01792 0.499642 ) 0 
( 3.94449 -1.32509 1.36538 ) 0 
( 4.92437 -0.807876 0.499977 ) 0 
( 2.98349 -2.86032 1.22142 ) 0 
( 2.96904 -1.15411 0.499936 ) 0 
( 2.22387 -1.70111 0.881318 ) 0 
( 0.217628 -2.7289 1.33369 ) 0 
( 2.74096 -0.180604 0.499518 ) 0 
( 2.38391 -4.45179 0.790316 ) 0 
( 1.59359 -0.195216 1.19198 ) 0 
( 2.07566 -3.39356 1.07486 ) 0 
( 0.0524269 -0.54782 0.92995 ) 0 
( 0.820407 -3.52219 1.2511 ) 0 
( 1.40268 -2.31062 1.13328 ) 0 
( 0.764213 -4.75442 1.23946 ) 0 
( 4.25587 -1.76841 0.499756 ) 0 
( 1.18708 -4.07063 0.499835 ) 0 
( 4.58097 -4.03622 1.36336 ) 0 
( 4.49196 -0.0936959 1.05612 ) 0 
( 3.86782 -2.35069 1.21369 ) 0 
( 3.3814 -4.09669 1.20848 ) 0 
( 0.726532 -1.15792 1.34612 ) 0 
( 1.55742 -3.01589 1.84162 ) 0 
( 2.50762 -0.68872 1.32816 ) 0 
( 3.0641 -1.79401 1.43202 ) 0 
( 2.24078 -2.30467 1.67836 ) 0 
( 1.55811 -4.17496 1.42242 ) 0 
( 1.14281 -0.514218 2.0256 ) 0 
( 3.17728 -0.985083 2.00849 ) 0 
( 0.764613 -2.08586 1.86944 ) 0 
( 2.14213 -0.0637047 2.01754 ) 0 
( 4.86694 -1.39342 1.74457 ) 0 
( 3.91425 -3.30519 1.50743 ) 0 
( 2.94526 -4.96826 1.45282 ) 0 
( 0.377058 -4.36205 2.07352 ) 0 
( 4.55927 -3.6858 2.29994 ) 0 
( 1.69695 -1.2171 1.5797 ) 0 
( 2.5107 -4.04621 1.69729 ) 0 
( 1.25943 -4.84307 2.10358 ) 0 
( 4.47895 -2.27856 2.00137 ) 0 
( 0.148412 -0.489156 1.92334 ) 0 
( 1.63036 -2.23958 2.46756 ) 0 
( 0.586976 -0.40149 2.86263 ) 0 
( 3.94255 -4.65929 1.81485 ) 0 
( 3.55144 -3.85405 2.26033 ) 0 
( 2.742 -1.80379 2.3837 ) 0 
( 2.59919 -3.13634 2.10224 ) 0 
( 3.37751 -2.50942 2.07038 ) 0 
( 1.19752 -3.83366 2.29031 ) 0 
( 0.283848 -3.73311 2.84533 ) 0 
( 2.69593 -0.490776 2.73226 ) 0 
( 4.76154 -0.422892 1.96058 ) 0 
( 1.65746 -1.24632 2.57827 ) 0 
( 4.07355 -2.89637 2.67507 ) 0 
( 0.451929 -1.30654 2.41207 ) 0 
( 3.35721 -2.25059 3.0355 ) 0 
( 0.69767 -2.96972 2.34941 ) 0 
( 4.93449 -0.681432 2.91035 ) 0 
( 0.726179 -2.13536 2.89909 ) 0 
( 4.29102 -1.91504 2.91343 ) 0 
( 2.21245 -1.92696 3.22284 ) 0 
( 3.66949 -0.210025 1.61262 ) 0 
( 4.13959 -1.09486 2.36217 ) 0 
( 2.93226 -4.62791 2.39263 ) 0 
( 1.87098 -3.15593 2.78712 ) 0 
( 3.15574 -3.22409 2.92841 ) 0 
( 2.10361 -4.11175 2.6082 ) 0 
( 0.944683 -1.23705 3.27922 ) 0 
( 0.110007 -2.64931 3.49548 ) 0 
( 4.27797 -4.87058 2.73252 ) 0 
( 2.60126 -3.87794 3.44314 ) 0 
( 3.50308 -4.43409 3.19029 ) 0 
( 1.02267 -3.00459 3.29421 ) 0 
( 1.07286 -4.32018 3.15497 ) 0 
( 4.00031 -3.59495 3.40967 ) 0 
( 4.80297 -4.14078 3.16984 ) 0 
( 3.35066 -1.25394 2.95541 ) 0 
( 1.72607 -0.300543 2.89524 ) 0 
( 4.06139 -2.62378 3.63923 ) 0 
( 3.72753 -0.306547 2.81867 ) 0 
( 0.103936 -4.57689 3.51325 ) 0 
( 0.2478 -1.71544 3.82566 ) 0 
( 3.13815 -0.615832 3.69523 ) 0 
( 4.918 -3.23455 3.57596 ) 0 
( 3.02121 -1.69042 3.79216 ) 0 
( 4.199 -4.44039 3.90831 ) 0 
( 0.498225 -3.63966 3.86115 ) 0 
( 4.14729 -0.938699 3.47031 ) 0 
( 1.14602 -2.15443 3.80634 ) 0 
( 1.64826 -3.68308 3.67864 ) 0 
( 2.26266 -0.136818 3.75729 ) 0 
( 0.683858 -0.695347 4.07773 ) 0 
( 0.354536 -2.48798 4.45144 ) 0 
( 4.7666 -2.61763 4.34812 ) 0 
( 3.80766 -1.2152 4.36923 ) 0 
( 2.01286 -4.59866 3.84668 ) 0 
( 3.01371 -2.76239 3.82256 ) 0 
( 2.01665 -2.75599 3.74643 ) 0 
( 1.88683 -1.03967 3.54915 ) 0 
( 1.11739 -4.3427 4.21061 ) 0 
( 0.0438163 -4.31315 4.4758 ) 0 
( 4.52704 -1.77069 3.87396 ) 0 
( 3.18847 -4.23173 4.17079 ) 0 
( 1.17521 -3.03352 4.28185 ) 0 
( 3.93421 -0.0206371 3.80351 ) 0 
( 2.49926 -1.03666 4.33939 ) 0 
( 1.94804 -3.94981 4.60479 ) 0 
( 4.68594 -3.69196 4.43419 ) 0 
( 2.78333 -3.40249 4.55515 ) 0 
( 3.61178 -2.19436 4.42234 ) 0 
( 4.63678 -0.56779 4.25929 ) 0 
( 3.74978 -3.20607 4.39002 ) 0 
( 3.06129 -2.6343 5.13175 ) 0 
( 0.71182 -1.49128 4.68228 ) 0 
( 3.8743 -4.06902 4.87964 ) 0 
( 3.04839 -1.57969 4.97446 ) 0 
( 1.78326 -4.93802 4.75856 ) 0 
( 2.35487 -0.527022 5.18734 ) 0 
( 3.23595 -0.462764 4.69623 ) 0 
( 1.962 -2.94241 4.89196 ) 0 
( 4.68777 -1.74819 4.86029 ) 0 
( 1.61601 -0.574994 4.41862 ) 0 
( 2.75603 -4.75736 4.90329 ) 0 
( 1.677 -1.59584 4.44335 ) 0 
( 2.47047 -2.20417 4.44941 ) 0 
( 0.709027 -3.6847 4.88045 ) 0 
( 4.129 -0.613811 5.1193 ) 0 
( 1.35857 -1.01573 5.27839 ) 0 
( 1.54265 -3.64343 5.46822 ) 0 
( 3.28207 -4.33364 5.64056 ) 0 
( 0.090759 -4.69857 5.39719 ) 0 
( 1.18493 -2.3196 4.98236 ) 0 
( 1.91165 -2.8226 5.90413 ) 0 
( 4.48983 -3.07266 5.19422 ) 0 
( 3.57923 -3.38337 5.54461 ) 0 
( 3.21131 -0.836544 5.62338 ) 0 
( 1.49113 -0.0251435 5.24547 ) 0 
( 2.05896 -1.9842 5.33361 ) 0 
( 4.72205 -4.0215 5.40769 ) 0 
( 1.27 -2.05684 5.94345 ) 0 
( 2.83305 -0.50752 6.48871 ) 0 
( 0.538971 -0.0590952 5.6093 ) 0 
( 2.19647 -4.3799 5.64075 ) 0 
( 2.58271 -3.46399 5.53276 ) 0 
( 0.790461 -2.99769 5.60244 ) 0 
( 3.93525 -2.47831 5.77616 ) 0 
( 3.91988 -1.52936 5.462 ) 0 
( 2.92897 -1.75119 5.95226 ) 0 
( 0.537027 -1.43677 5.66506 ) 0 
( 4.08913 -4.04476 6.18129 ) 0 
( 4.94262 -1.03817 5.51643 ) 0 
( 1.01182 -3.81338 6.29812 ) 0 
( 1.06924 -4.51101 5.31303 ) 0 
( 2.11519 -1.17137 5.91327 ) 0 
( 1.60728 -0.353289 6.18285 ) 0 
( 2.48785 -4.943 6.41389 ) 0 
( 3.5562 -1.19777 6.50012 ) 0 
( 4.64833 -0.0806499 5.7867 ) 0 
( 1.10353 -4.80849 6.26694 ) 0 
( 2.08581 -1.9695 6.51468 ) 0 
( 3.77217 -3.15101 6.49774 ) 0 
( 0.334234 -2.31196 6.18688 ) 0 
( 1.19098 -1.22769 6.49664 ) 0 
( 0.13068 -3.34104 6.31017 ) 0 
( 2.2714 -2.89592 6.84152 ) 0 
( 2.94445 -2.7369 6.11942 ) 0 
( 4.81416 -1.98074 5.82437 ) 0 
( 1.13759 -2.85071 6.53656 ) 0 
( 0.202404 -4.39201 6.3944 ) 0 
( 2.08198 -1.02234 6.90141 ) 0 
( 0.872351 -3.5143 7.242 ) 0 
( 3.76809 -0.190472 6.64651 ) 0 
( 2.00504 -3.74931 6.39271 ) 0 
( 0.67688 -0.371681 6.54886 ) 0 
( 1.58962 -1.7414 7.39149 ) 0 
( 4.49147 -0.861727 6.39095 ) 0 
( 1.89795 -3.63936 7.39588 ) 0 
( 3.5771 -2.18417 6.6619 ) 0 
( 2.84565 -1.64351 7.07677 ) 0 
( 4.58915 -2.58234 6.5905 ) 0 
( 0.434006 -1.19331 7.28402 ) 0 
( 3.43501 -4.67825 6.59443 ) 0 
( 0.719392 -2.13215 7.09193 ) 0 
( 2.84294 -0.731782 7.4871 ) 0 
( 2.7207 -4.47461 7.26604 ) 0 
( 0.788606 -4.5345 7.19166 ) 0 
( 4.69784 -0.113564 7.02124 ) 0 
( 4.07114 -0.850071 7.33389 ) 0 
( 4.79929 -4.54612 6.67523 ) 0 
( 4.54938 -1.66425 6.9845 ) 0 
( 3.00345 -3.78669 6.42985 ) 0 
( 1.76267 -4.53188 6.966 ) 0 
( 3.61225 -3.91284 7.21301 ) 0 
( 1.43867 -2.72575 7.48179 ) 0 
( 0.499701 -2.78831 7.81989 ) 0 
( 1.26083 -0.63219 7.31745 ) 0 
( 2.08508 -0.056472 7.44288 ) 0 
( 4.39935 -3.29806 7.26238 ) 0 
( 3.18053 -2.88251 7.25753 ) 0 
( 3.5235 -1.54135 7.80476 ) 0 
( 4.06573 -2.36541 7.51506 ) 0 
( 1.56287 -1.71597 8.3907 ) 0 
( 1.23343 -4.107 7.97844 ) 0 
( 1.97816 -0.907117 7.95749 ) 0 
( 4.61112 -4.21514 7.59965 ) 0 
( 3.58416 -0.171394 7.90075 ) 0 
( 2.37423 -2.75036 7.83368 ) 0 
( 1.20682 -2.64191 8.51585 ) 0 
( 1.81298 -4.96729 7.86463 ) 0 
( 4.61263 -1.67092 7.98232 ) 0 
( 0.434796 -3.63406 8.35021 ) 0 
( 2.48139 -1.77012 7.99927 ) 0 
( 0.977327 -0.921171 8.23173 ) 0 
( 0.26671 -0.125963 8.27911 ) 0 
( 1.83635 -3.40399 8.36573 ) 0 
( 1.71189 -0.881394 8.92098 ) 0 
( 4.22538 -4.64504 8.41575 ) 0 
( 1.19117 -4.75879 8.73544 ) 0 
( 4.22192 -0.81567 8.32224 ) 0 
( 4.48139 -2.94089 8.21904 ) 0 
( 3.28474 -2.44801 8.15197 ) 0 
( 0.351546 -4.59578 8.08891 ) 0 
( 1.15165 -1.74904 9.30155 ) 0 
( 2.83583 -3.64245 7.8083 ) 0 
( 0.576152 -1.86668 8.48458 ) 0 
( 0.0934234 -4.05945 9.18829 ) 0 
( 1.78292 -2.86827 9.3012 ) 0 
( 0.081212 -1.9524 9.36508 ) 0 
( 0.452866 -1.07018 9.07626 ) 0 
( 2.26887 -1.98129 9.04718 ) 0 
( 1.72657 -4.02053 9.14519 ) 0 
( 2.32043 -4.27863 8.38223 ) 0 
( 2.64187 -2.87248 8.78933 ) 0 
( 0.256281 -2.76028 8.80247 ) 0 
( 3.77098 -3.64236 8.16251 ) 0 
( 3.15347 -1.64131 8.72825 ) 0 
( 2.82524 -0.685253 8.48571 ) 0 
( 0.967904 -0.217217 8.99341 ) 0 
( 3.27858 -4.41088 8.63582 ) 0 
( 1.15097 -0.850156 9.75744 ) 0 
( 4.90758 -4.63838 9.17995 ) 0 
( 3.35467 -2.06781 9.60989 ) 0 
( 0.944265 -3.3986 9.17765 ) 0 
( 4.16632 -1.62612 8.90522 ) 0 
( 3.59745 -0.828324 9.10466 ) 0 
( 2.19066 -3.90677 10.0235 ) 0 
( 4.60272 -3.78075 8.74781 ) 0 
( 2.7003 -3.79493 9.17058 ) 0 
( 2.85266 -3.00043 9.75838 ) 0 
( 4.68032 -0.824672 9.21075 ) 0 
( 3.88587 -2.58525 8.93916 ) 0 
( 0.777241 -2.57596 9.72095 ) 0 
( 3.66501 -3.53207 9.17245 ) 0 
( 0.586831 -1.63352 10.1666 ) 0 
( 2.61155 -1.09928 9.37042 ) 0 
( 4.08097 -0.233346 9.75023 ) 0 
( 1.83564 -2.10108 9.94042 ) 0 
( 2.07329 -0.706221 10.1158 ) 0 
( 4.46064 -2.20648 9.66444 ) 0 
( 0.986678 -4.38976 9.70733 ) 0 
( 0.12673 -0.767379 9.97167 ) 0 
( 0.0766564 -4.74026 9.92835 ) 0 
( 1.31783 -3.42557 10.1047 ) 0 
( 4.5866 -3.54069 9.71833 ) 0 
( 3.96401 -4.44529 9.44868 ) 0 
( 4.07296 -1.30124 9.84632 ) 0 
( 3.24223 -3.9929 9.98722 ) 0 
( 3.2328 -0.681154 10.0331 ) 0 
( 1.45866 -1.35255 10.5677 ) 0 
( 3.83108 -2.9282 9.95198 ) 0 
( 1.29543 -0.237907 10.5347 ) 0 
( 2.14938 -3.02061 10.4847 ) 0 
( 0.365571 -3.84792 10.2746 ) 0 
( 3.86954 -2.05839 10.467 ) 0 
( 2.76436 -2.23686 10.399 ) 0 
( 3.64201 -4.85338 10.3029 ) 0 
( 4.24249 -0.638461 10.65 ) 0 
( 2.65371 -4.78093 10.1691 ) 0 
( 3.47297 -1.23605 10.8749 ) 0 
( 0.0926199 -1.54406 11.1041 ) 0 
( 3.20405 -3.25374 10.6596 ) 0 
( 1.92447 -2.15706 10.9359 ) 0 
( 3.28061 -4.22233 10.9892 ) 0 
( 0.152179 -4.34721 11.1143 ) 0 
( 1.74412 -3.82816 10.9147 ) 0 
( 0.656302 -3.00382 10.7247 ) 0 
( 2.48572 -1.3479 10.7623 ) 0 
( 4.06 -3.7978 10.5285 ) 0 
( 0.929011 -2.08211 11.0001 ) 0 
( 1.85188 -0.77922 11.2864 ) 0 
( 3.30477 -2.37515 11.229 ) 0 
( 1.04649 -4.51099 10.6981 ) 0 
( 4.685 -4.47536 10.141 ) 0 
( 0.456319 -0.63347 10.9081 ) 0 
( 4.62024 -1.28611 11.3115 ) 0 
( 1.02132 -3.89219 11.6028 ) 0 
( 2.52996 -3.84689 11.5328 ) 0 
( 3.82509 -3.48587 11.4491 ) 0 
( 4.82179 -3.55766 11.8458 ) 0 
( 1.46104 -2.95727 11.3164 ) 0 
( 2.5661 -1.83487 11.632 ) 0 
( 1.37973 -1.54894 11.716 ) 0 
( 2.82953 -0.549407 11.2563 ) 0 
( 3.47544 -4.95043 11.6464 ) 0 
( 4.85823 -1.94326 10.5625 ) 0 
( 2.11327 -4.88858 11.0035 ) 0 
( 4.31628 -2.87801 10.8253 ) 0 
( 2.45001 -2.85598 11.4241 ) 0 
( 4.13929 -4.27746 11.9731 ) 0 
( 4.55553 -2.25086 11.5665 ) 0 
( 0.301981 -3.20192 11.6803 ) 0 
( 2.26535 -0.245002 12.0238 ) 0 
( 1.82806 -2.37979 12.0456 ) 0 
( 4.04104 -0.476978 11.616 ) 0 
( 0.198731 -4.17216 12.0977 ) 0 
( 0.362637 -2.21278 11.8138 ) 0 
( 3.74685 -2.43959 12.1236 ) 0 
( 1.79142 -3.48288 12.1003 ) 0 
( 3.76968 -1.49582 11.7938 ) 0 
( 4.28363 -4.6245 11.0447 ) 0 
( 3.00037 -0.965131 12.1496 ) 0 
( 0.463475 -1.28937 12.184 ) 0 
( 2.07677 -1.2731 12.3778 ) 0 
( 3.1038 -3.21872 12.0881 ) 0 
( 0.994291 -0.551839 11.7477 ) 0 
( 4.51462 -1.90635 12.5043 ) 0 
( 1.31237 -4.84888 11.6009 ) 0 
( 1.74065 -4.43456 12.4039 ) 0 
)
