FoamFile
{version 2.0; format ascii;class vectorField; location 0;object  v;}
344
(
( 4.8762e-06 2.58342e-06 1.40921e-06 )  
( 2.92399e-06 1.74877e-06 -8.18811e-08 )  
( 5.20114e-06 1.8414e-06 7.51838e-07 )  
( 2.49326e-06 3.27703e-06 8.74352e-07 )  
( 1.43447e-06 1.9415e-06 -2.62986e-07 )  
( 2.17619e-06 -8.69974e-07 -9.86554e-07 )  
( 2.16599e-06 1.54379e-06 -7.21938e-07 )  
( 1.37417e-06 3.76768e-06 1.6439e-07 )  
( -8.43985e-06 1.14046e-05 1.37345e-13 )  
( 1.56607e-06 1.50979e-06 -1.28848e-07 )  
( 2.01777e-06 1.92395e-06 -1.73045e-09 )  
( 4.66828e-06 1.80121e-06 4.9664e-07 )  
( 2.85881e-06 2.63769e-06 -5.85105e-07 )  
( 9.57954e-07 3.28966e-06 9.11528e-07 )  
( 1.5359e-06 4.81327e-06 -2.15434e-06 )  
( 2.35731e-06 2.41771e-06 8.27631e-07 )  
( 2.01808e-06 1.69935e-06 4.93019e-07 )  
( 9.57788e-06 3.78171e-06 1.06761e-06 )  
( -4.98622e-06 2.04073e-06 -1.02341e-09 )  
( 4.01295e-06 5.06832e-06 1.85502e-06 )  
( 3.45767e-06 1.45946e-06 -4.59371e-07 )  
( 4.51188e-06 2.67929e-06 1.33733e-06 )  
( 6.33622e-06 8.80877e-06 -7.17783e-07 )  
( 4.07184e-06 1.79658e-06 -8.13798e-08 )  
( 2.82112e-06 1.09494e-06 1.33557e-06 )  
( 8.9756e-06 6.87478e-06 6.25037e-07 )  
( 1.9343e-06 5.84246e-06 6.10889e-07 )  
( 5.09739e-06 1.70877e-06 7.73814e-07 )  
( 7.78711e-06 8.90991e-06 9.81069e-07 )  
( 6.02952e-06 4.22508e-06 1.57073e-06 )  
( 5.71713e-06 5.67785e-06 -1.47419e-06 )  
( 3.39721e-06 1.5167e-06 -1.60085e-07 )  
( 2.01003e-06 2.69444e-06 7.41066e-07 )  
( 6.89493e-06 4.9831e-06 1.1909e-06 )  
( 5.97429e-06 3.56398e-06 1.54061e-06 )  
( 4.35994e-06 5.23461e-06 8.67712e-07 )  
( 3.36989e-06 5.31671e-06 1.25777e-07 )  
( 7.64293e-06 4.77471e-06 9.43102e-07 )  
( 6.23926e-06 7.60003e-06 2.37877e-06 )  
( 7.7859e-06 2.95531e-06 6.96518e-07 )  
( 8.12456e-06 4.39247e-06 8.35311e-07 )  
( 7.28183e-06 6.14325e-06 2.74703e-06 )  
( 4.41535e-06 6.78764e-06 6.89367e-08 )  
( 8.46477e-06 5.62556e-06 7.21275e-07 )  
( 9.98001e-06 5.78129e-06 9.40601e-07 )  
( 6.60312e-06 5.88371e-06 3.0188e-06 )  
( 1.15261e-05 5.64223e-06 9.88647e-07 )  
( 9.74034e-06 5.22433e-06 2.8924e-06 )  
( 6.73589e-06 5.86424e-06 6.20218e-07 )  
( 5.05038e-06 4.80559e-06 2.23019e-07 )  
( 5.65684e-06 8.56521e-06 -1.90342e-06 )  
( 1.14689e-05 9.66292e-06 -1.43786e-05 )  
( 7.52324e-06 5.57667e-06 2.30006e-06 )  
( 4.71764e-06 7.4074e-06 8.96343e-07 )  
( 5.30688e-06 6.92819e-06 -9.69504e-07 )  
( 7.96199e-06 6.88755e-06 1.42746e-06 )  
( 8.73622e-06 4.64344e-06 1.02435e-06 )  
( 7.92058e-06 6.9375e-06 3.42761e-06 )  
( 1.40632e-05 9.47107e-06 7.68689e-06 )  
( 6.00237e-06 6.45443e-06 -1.41423e-06 )  
( 5.10574e-06 6.51383e-06 -1.69508e-06 )  
( 9.70081e-06 8.76826e-06 1.80927e-06 )  
( 9.23667e-06 6.53132e-06 4.21888e-06 )  
( 7.20384e-06 7.63118e-06 9.10014e-07 )  
( 5.53152e-06 8.04659e-06 4.99872e-08 )  
( 2.52483e-06 6.41386e-06 -2.35453e-07 )  
( 9.98866e-06 6.41305e-06 1.70501e-06 )  
( 8.16574e-06 6.83521e-06 2.3574e-06 )  
( 9.94104e-06 7.87757e-06 3.03012e-06 )  
( 6.20412e-06 -6.54475e-07 -6.67507e-06 )  
( 1.11338e-05 7.14529e-06 4.91994e-06 )  
( 1.3729e-05 8.21409e-06 2.44144e-06 )  
( 7.55316e-06 8.9916e-06 3.93203e-06 )  
( 1.28716e-05 1.01821e-05 1.6442e-06 )  
( 1.19961e-05 9.05265e-06 5.49722e-06 )  
( 1.27644e-05 9.04766e-06 2.10799e-06 )  
( 1.17232e-05 1.55947e-05 3.60747e-06 )  
( 6.65799e-06 5.86389e-06 -2.1588e-07 )  
( 1.15648e-05 7.04389e-06 2.39103e-06 )  
( 6.98114e-06 7.23182e-06 -1.13091e-06 )  
( 1.01397e-05 6.69108e-06 2.5403e-06 )  
( 7.8453e-06 7.84749e-06 1.83116e-08 )  
( 5.24002e-06 5.84681e-06 -8.68233e-07 )  
( 1.34495e-05 9.78433e-06 5.60251e-06 )  
( 1.19794e-05 9.93848e-06 6.1741e-06 )  
( 1.1112e-05 8.60367e-06 -2.13492e-06 )  
( 5.90021e-06 5.47654e-06 -1.13895e-06 )  
( 1.17466e-05 1.1125e-05 -4.26156e-06 )  
( 1.18087e-05 8.15926e-06 2.01127e-06 )  
( 5.49605e-06 1.00621e-05 -1.4359e-06 )  
( 1.48694e-05 1.03008e-05 -2.5602e-07 )  
( 1.40109e-05 9.37868e-06 -1.75035e-06 )  
( 1.33411e-05 7.94241e-06 1.1175e-06 )  
( 1.00092e-05 9.94838e-06 4.0503e-07 )  
( 1.74321e-05 9.87694e-06 2.95813e-06 )  
( 9.89856e-06 7.68909e-06 7.98165e-07 )  
( 3.62806e-06 3.80251e-06 7.28124e-06 )  
( 1.62595e-05 6.84609e-06 3.78983e-06 )  
( 1.0562e-05 1.03927e-05 -1.38333e-06 )  
( 1.63785e-05 7.70633e-06 2.26117e-06 )  
( 1.56732e-05 1.11843e-05 2.60495e-06 )  
( 1.2253e-05 9.41673e-06 -3.53577e-06 )  
( 1.48354e-05 8.6387e-06 2.63725e-06 )  
( 1.41466e-05 8.88443e-06 2.62384e-06 )  
( 1.50614e-05 8.58748e-06 4.89081e-06 )  
( 1.63364e-05 1.2108e-05 1.47969e-06 )  
( 1.3179e-05 1.4114e-05 5.96455e-06 )  
( 1.51223e-05 1.04763e-05 6.94942e-06 )  
( 1.85786e-05 7.16311e-06 5.06858e-06 )  
( 2.16708e-05 9.96165e-06 1.95592e-06 )  
( 1.53507e-05 1.24203e-05 1.26221e-06 )  
( 1.40318e-05 1.15089e-05 1.01523e-06 )  
( 1.24489e-05 8.90721e-06 -4.58106e-07 )  
( 1.22249e-05 1.41036e-05 -8.25506e-07 )  
( 1.35018e-05 1.39599e-05 3.98332e-06 )  
( 1.64343e-05 1.24029e-05 8.23959e-06 )  
( 2.28403e-06 4.55024e-06 8.52953e-06 )  
( 1.74002e-05 9.63217e-06 1.03579e-06 )  
( 1.35318e-05 1.03241e-05 -4.46241e-06 )  
( 1.94396e-05 7.8074e-06 6.17997e-07 )  
( 1.22553e-05 8.90945e-06 8.46865e-08 )  
( 1.49081e-05 1.08895e-05 3.85716e-06 )  
( 1.93294e-05 4.0995e-06 1.04134e-05 )  
( 1.77205e-05 1.00064e-05 9.73335e-07 )  
( 1.60989e-05 9.454e-06 -7.69841e-07 )  
( 1.74242e-05 1.408e-05 4.00743e-06 )  
( 1.78038e-05 1.32211e-05 1.52852e-06 )  
( 1.408e-05 1.2326e-05 -1.49425e-06 )  
( 1.63179e-05 1.06504e-05 8.16986e-07 )  
( 1.38489e-05 8.25635e-06 6.49961e-06 )  
( 1.56137e-05 1.2435e-05 -5.66205e-06 )  
( 1.70363e-05 1.13868e-05 3.80399e-06 )  
( 1.78817e-05 1.25547e-05 1.38153e-07 )  
( 1.53856e-05 1.05804e-05 5.56298e-06 )  
( 1.61799e-05 1.16556e-05 -1.6623e-06 )  
( 1.8551e-05 1.18429e-05 1.31456e-06 )  
( 2.32801e-05 1.39199e-05 -6.88863e-08 )  
( 1.51775e-05 9.69218e-06 8.00758e-06 )  
( 1.75695e-05 1.11238e-05 -3.40802e-06 )  
( 1.52973e-05 9.46451e-06 7.95241e-06 )  
( 1.76571e-05 1.03799e-05 2.38646e-06 )  
( 1.22793e-05 5.50421e-06 -8.32638e-06 )  
( 1.51452e-05 1.45422e-05 7.67142e-07 )  
( 1.46776e-05 8.58142e-06 7.6962e-06 )  
( 1.96059e-05 1.39519e-05 3.11558e-06 )  
( 1.29396e-05 1.73026e-05 -9.87961e-06 )  
( 2.03044e-05 1.02736e-06 5.94666e-06 )  
( 1.80878e-05 7.44326e-06 2.81291e-06 )  
( 1.92372e-05 1.34187e-05 -1.8638e-06 )  
( 2.3084e-05 1.23933e-05 2.48241e-06 )  
( 1.96966e-05 1.2372e-05 -1.79746e-06 )  
( 7.79729e-06 1.88171e-05 8.78699e-07 )  
( 1.79057e-05 1.09723e-05 5.99526e-06 )  
( 1.84258e-05 8.20423e-06 3.58281e-06 )  
( 1.73014e-05 8.5106e-06 -6.20683e-06 )  
( 2.06261e-05 1.26853e-05 4.11201e-06 )  
( 1.7365e-05 1.38666e-05 4.66629e-06 )  
( 1.63674e-05 2.05423e-05 6.51213e-06 )  
( 2.18317e-05 1.51741e-05 -1.57001e-06 )  
( 2.04451e-05 1.41722e-05 -2.94019e-06 )  
( 2.15514e-05 -9.63367e-08 -3.17768e-06 )  
( 2.26469e-05 1.38955e-05 5.10838e-07 )  
( 2.08302e-05 1.35524e-05 1.41429e-07 )  
( 1.62301e-05 9.30206e-06 3.70086e-06 )  
( 1.63429e-05 9.79194e-06 7.00145e-06 )  
( 2.60139e-05 1.03539e-05 -1.28531e-06 )  
( 1.75997e-05 1.82062e-05 2.11094e-06 )  
( 2.48278e-05 1.06105e-05 4.3747e-06 )  
( 1.61638e-05 1.06163e-05 -1.80437e-06 )  
( 1.68327e-05 1.04823e-05 5.18427e-06 )  
( 2.11749e-05 1.18582e-05 3.87451e-06 )  
( 2.97458e-05 1.25167e-05 -5.56607e-06 )  
( 1.65503e-05 8.73468e-06 3.3434e-06 )  
( 2.19194e-05 5.41192e-06 3.9554e-06 )  
( 2.67939e-05 1.11743e-05 -3.03474e-06 )  
( 2.14362e-05 1.1595e-05 2.97731e-06 )  
( 2.2765e-05 1.20635e-05 -4.58031e-06 )  
( 1.98192e-05 1.84986e-05 4.4925e-06 )  
( 1.92805e-05 1.54841e-05 -3.87838e-07 )  
( 2.23152e-05 1.05565e-05 5.05379e-06 )  
( 2.21996e-05 1.38524e-05 3.47778e-06 )  
( 1.70398e-05 6.97383e-06 -9.02896e-07 )  
( 2.48255e-05 1.42399e-05 -9.2528e-07 )  
( 2.37783e-05 1.15882e-05 6.43113e-06 )  
( 2.45709e-05 1.09358e-05 3.64223e-06 )  
( 1.98434e-05 1.04579e-05 6.92525e-06 )  
( 3.62971e-05 1.20208e-05 6.77063e-06 )  
( 1.91705e-05 1.28324e-05 2.03561e-06 )  
( 2.53143e-05 1.55331e-05 7.35043e-07 )  
( 2.13639e-05 1.67875e-05 5.30768e-06 )  
( 2.7692e-05 6.91835e-06 6.98572e-06 )  
( 1.49945e-05 9.18729e-06 2.74175e-06 )  
( 3.73083e-05 7.51096e-06 1.49147e-06 )  
( 1.88869e-05 8.91398e-06 3.01262e-06 )  
( 1.93872e-05 9.10381e-06 7.0189e-06 )  
( 2.05014e-05 1.38449e-05 -2.49649e-06 )  
( 2.16994e-05 1.36749e-05 1.09496e-05 )  
( 2.83877e-05 5.90095e-06 1.50097e-06 )  
( 2.30401e-05 1.14671e-05 7.92289e-06 )  
( 1.95879e-05 1.08764e-05 7.20363e-06 )  
( 2.69688e-05 1.37938e-05 -6.39927e-06 )  
( 3.74415e-05 9.00328e-06 -5.82387e-06 )  
( 1.83342e-05 8.54326e-06 -2.50282e-06 )  
( 1.55465e-05 1.22397e-05 3.78117e-06 )  
( 2.63535e-05 1.00346e-05 -1.62725e-06 )  
( 1.83383e-05 1.1459e-05 3.40207e-06 )  
( 2.38473e-05 1.57095e-05 -9.97855e-06 )  
( 3.38197e-05 1.26947e-05 -5.69143e-06 )  
( 2.38292e-05 1.77132e-05 -1.379e-05 )  
( 2.80028e-05 9.87664e-06 7.6334e-06 )  
( 2.84948e-05 1.07285e-05 5.37945e-06 )  
( 2.18767e-05 1.57133e-05 6.22934e-06 )  
( 2.1558e-05 1.31336e-05 4.91634e-06 )  
( 2.57367e-05 1.06783e-05 -1.16337e-05 )  
( 2.4672e-05 9.4912e-06 -1.65836e-06 )  
( 2.23381e-05 6.35731e-06 2.6844e-06 )  
( 2.29419e-05 5.64697e-06 2.7427e-06 )  
( 2.71997e-05 1.13415e-05 4.19922e-06 )  
( 3.72265e-05 2.96544e-06 -8.87911e-06 )  
( 2.30636e-05 1.72327e-05 9.71955e-06 )  
( 2.12895e-05 1.52421e-05 -5.71276e-06 )  
( 2.97836e-05 1.2028e-05 5.90463e-06 )  
( 3.24921e-05 8.32876e-06 3.42561e-06 )  
( 3.17888e-05 1.2107e-05 -1.18875e-05 )  
( 3.94146e-05 1.15032e-05 -9.44016e-07 )  
( 1.91467e-05 7.41736e-06 5.52663e-06 )  
( 3.95369e-05 5.09749e-06 -1.47081e-05 )  
( 2.42978e-05 1.27174e-05 6.4029e-06 )  
( 2.25202e-05 1.35604e-05 5.19669e-06 )  
( 1.60701e-05 2.06794e-05 -4.77785e-06 )  
( 3.20078e-05 1.14459e-05 4.04443e-07 )  
( 4.01957e-06 1.27583e-05 5.31237e-06 )  
( 2.61393e-05 1.46798e-05 -3.50853e-06 )  
( 2.6446e-05 6.04783e-06 -1.04051e-05 )  
( 3.09536e-05 1.23528e-05 8.78915e-06 )  
( 2.91084e-05 3.95103e-06 3.09092e-07 )  
( 3.4346e-05 4.76e-06 -2.80248e-07 )  
( 3.94831e-05 -1.73549e-06 -6.82801e-06 )  
( 2.71037e-05 2.23481e-05 1.78226e-07 )  
( 2.07249e-05 1.35058e-05 2.07892e-06 )  
( 3.13406e-05 1.45107e-05 -2.43146e-06 )  
( 4.46403e-05 8.7256e-06 -1.53258e-05 )  
( 2.69795e-05 9.84499e-06 -4.8541e-06 )  
( 3.88914e-05 6.79102e-06 -2.23833e-06 )  
( 2.04666e-05 1.38056e-05 -1.97836e-06 )  
( 2.7002e-05 1.43009e-05 4.15276e-06 )  
( 2.55885e-05 1.75955e-06 -6.6088e-06 )  
( 3.06054e-05 1.41201e-05 7.89752e-06 )  
( 3.15499e-05 9.05881e-06 4.2088e-06 )  
( 3.94016e-05 4.3746e-06 -5.00339e-06 )  
( 3.20868e-05 -3.58563e-06 -1.74906e-05 )  
( 2.3331e-05 9.31232e-06 9.07862e-06 )  
( 2.21067e-05 1.32839e-05 1.02655e-05 )  
( 1.25952e-05 1.72186e-05 -2.22827e-06 )  
( 3.33711e-05 1.42594e-05 1.08931e-05 )  
( 2.36621e-05 5.95736e-06 1.98614e-06 )  
( 3.25985e-05 1.52436e-05 -7.2131e-06 )  
( 3.87893e-05 3.12237e-06 6.31863e-06 )  
( 3.28947e-05 1.05635e-05 -1.20559e-05 )  
( 2.46207e-05 1.18933e-05 9.25637e-06 )  
( 2.74129e-05 8.54497e-06 1.33108e-05 )  
( 5.65181e-06 1.24838e-05 -7.31442e-06 )  
( 2.5572e-05 4.28511e-06 7.34963e-06 )  
( 2.49138e-05 1.08589e-05 1.11062e-05 )  
( 2.87266e-05 1.33471e-05 6.80634e-06 )  
( 3.27318e-05 3.3302e-06 1.10046e-05 )  
( 3.01948e-05 8.79356e-06 -1.82569e-06 )  
( 4.47669e-05 5.69093e-06 1.84766e-06 )  
( 2.4059e-05 1.21057e-05 -5.39875e-07 )  
( 2.78682e-05 2.62554e-05 -1.90325e-06 )  
( 3.2632e-05 1.18878e-05 1.15701e-05 )  
( 4.21997e-05 1.97382e-05 8.21073e-06 )  
( 1.49143e-05 1.15927e-05 6.20701e-09 )  
( 2.97241e-05 1.02957e-05 9.06992e-06 )  
( 2.87158e-05 1.34766e-05 4.77263e-06 )  
( 3.256e-05 -1.26652e-05 -8.35851e-06 )  
( 6.6231e-05 4.08146e-05 -4.94745e-06 )  
( 3.44906e-05 1.51155e-06 -1.14808e-06 )  
( -2.71626e-06 1.64667e-05 5.44716e-06 )  
( 2.62018e-05 -1.0249e-05 1.39894e-05 )  
( 3.34581e-05 1.48982e-05 -9.82157e-06 )  
( 3.61627e-05 1.44812e-05 2.01427e-05 )  
( 2.20276e-05 1.75659e-05 2.68943e-05 )  
( -0.000152084 0.000361892 -2.9567e-05 )  
( 3.39956e-05 -8.71824e-06 -1.24532e-05 )  
( 3.36183e-05 3.17845e-06 -1.55727e-06 )  
( 2.7768e-05 1.24701e-06 5.95398e-06 )  
( 1.76308e-05 -4.8217e-06 1.599e-06 )  
( 4.81416e-05 3.38373e-07 -5.34075e-06 )  
( 3.96545e-05 -1.533e-05 -9.43204e-06 )  
( 3.35052e-05 5.07616e-06 2.30652e-05 )  
( 4.13386e-05 1.33892e-05 -1.80836e-06 )  
( 3.30093e-05 1.18354e-05 1.11293e-05 )  
( 3.03941e-05 2.19921e-05 1.14023e-05 )  
( 3.53791e-05 -1.7049e-05 8.89306e-06 )  
( 5.21125e-06 2.16482e-05 1.80811e-05 )  
( 3.26735e-05 5.44863e-05 1.38407e-05 )  
( 1.76803e-05 -3.7723e-06 5.89662e-06 )  
( 1.17471e-05 -1.99794e-05 3.17897e-06 )  
( 2.29764e-05 1.20863e-05 -5.88262e-06 )  
( 3.90374e-06 1.89325e-05 -7.65681e-06 )  
( 6.76427e-06 4.69646e-06 2.39069e-05 )  
( 2.03245e-05 3.56842e-06 1.91538e-05 )  
( 3.68006e-05 -6.37161e-06 2.81181e-05 )  
( 7.56376e-06 1.37486e-05 5.77679e-06 )  
( 8.81025e-06 1.53302e-05 1.00358e-05 )  
( 0.000108429 -0.000179642 -5.14661e-05 )  
( 2.00872e-05 -7.29907e-06 -4.97576e-06 )  
( 3.54563e-05 2.81696e-05 -1.6094e-05 )  
( -3.21219e-09 1.57892e-05 -1.09649e-05 )  
( 6.77565e-05 3.21741e-05 5.35712e-06 )  
( 2.31729e-05 6.77757e-06 1.07368e-05 )  
( -2.42887e-05 -8.5896e-05 1.21173e-05 )  
( -1.08347e-05 6.953e-05 -2.94017e-05 )  
( 0.000206831 -0.000446498 -0.000390059 )  
( 1.16694e-05 4.56226e-06 2.49154e-05 )  
( 0.000128921 -0.000160216 -5.78477e-05 )  
( 2.20528e-05 1.17121e-05 -1.50039e-05 )  
( 4.41395e-05 6.55495e-06 3.36301e-06 )  
( 0.000223097 -0.000124053 -0.000168227 )  
( 3.08832e-05 9.66138e-07 2.19507e-05 )  
( -0.000133009 -0.000541778 -0.00016879 )  
( 8.40916e-05 8.08264e-06 -1.97464e-05 )  
( 4.7608e-05 -4.50586e-05 -5.05244e-05 )  
( -0.000358424 0.000191335 0.000349226 )  
( 8.211e-05 2.94167e-05 -1.72497e-05 )  
( 3.82898e-05 3.66586e-05 -3.72855e-06 )  
( 4.72968e-05 1.29355e-05 -7.86462e-06 )  
( 0.000332072 0.000166647 -0.000131896 )  
( 2.22907e-05 -2.66981e-05 1.8375e-05 )  
( -6.18614e-05 0.000177884 -3.52459e-05 )  
( 0.000633701 -5.89912e-05 0.00044189 )  
( 0.000178472 -0.000607739 -0.000115183 )  
( 0.000149806 0.000213671 0.000103522 )  
( 0.000117079 -0.000639939 -0.00019623 )  
( 0.000168126 1.32399e-05 2.90961e-05 )  
( 0.000173746 -0.000470498 -0.000246871 )  
( 0.000758779 0.000134826 -5.57482e-05 )  
( 7.35405e-05 -2.57894e-05 -6.56916e-05 )  
( -0.000129973 -0.000352315 -5.06538e-06 )  
( -5.75e-05 -5.93592e-05 -7.90503e-05 )  
( -0.00050454 0.000426501 -0.000182061 )  
( 1.91541e-05 -2.11346e-06 -6.69465e-06 )  
( 0.00016924 0.000160361 -0.000183534 )  
)
