FoamFile
{version 2.0; format ascii;class Cloud<passiveParticle>; location 0;object  positions;}
43
(
( -3.54367e-06 -0.000277679 9.98281e-05 ) 0 
( -0.000466608 -0.000421975 9.99676e-05 ) 0 
( -9.57287e-05 -0.000455109 9.98364e-05 ) 0 
( -0.000285643 -1.48928e-05 9.99059e-05 ) 0 
( -0.000380595 -0.000192585 9.98188e-05 ) 0 
( -0.000180714 -0.000185102 9.98392e-05 ) 0 
( -0.000275488 -0.000363004 9.99679e-05 ) 0 
( -0.000104336 -5.61891e-05 0.000232232 ) 0 
( -0.000443195 -0.000286702 0.000264656 ) 0 
( -0.00034202 -0.000459129 0.000262319 ) 0 
( -0.000281873 -0.000156715 0.000269838 ) 0 
( -0.000140135 -0.000320721 0.000241011 ) 0 
( -0.000435309 -0.000136525 0.000396405 ) 0 
( -0.000233101 -1.62251e-05 0.000403375 ) 0 
( -1.80876e-05 -0.000327021 0.00039926 ) 0 
( -0.000166028 -0.000480416 0.000426232 ) 0 
( -0.000276031 -0.000318005 0.000387606 ) 0 
( -0.000483298 -0.000424609 0.000403671 ) 0 
( -0.000155905 -0.000320806 0.000547374 ) 0 
( -9.5896e-05 -0.000152416 0.000457773 ) 0 
( -0.000284108 -0.000169354 0.000522831 ) 0 
( -0.000415386 -0.00010235 0.000680753 ) 0 
( -0.000335769 -0.000430315 0.000541723 ) 0 
( -5.55899e-05 -0.000487685 0.000592742 ) 0 
( -0.00033333 -0.000284636 0.000678569 ) 0 
( -2.63932e-05 -0.000122452 0.000642833 ) 0 
( -0.000216755 -0.000120321 0.000704545 ) 0 
( -9.22139e-05 -0.000351423 0.000734397 ) 0 
( -7.02756e-05 -6.7793e-05 0.000830058 ) 0 
( -0.000323037 -0.000195011 0.000856992 ) 0 
( -0.000437733 -8.06906e-05 0.00097428 ) 0 
( -0.00013379 -0.000244684 0.000898271 ) 0 
( -0.000261872 -0.00038643 0.000835112 ) 0 
( -0.000466635 -0.000377404 0.000795177 ) 0 
( -0.000212302 -7.28422e-05 0.00097071 ) 0 
( -8.79132e-05 -0.000438772 0.000918675 ) 0 
( -0.000447607 -0.000383194 0.000994132 ) 0 
( -0.000256702 -0.000334273 0.00102809 ) 0 
( -5.66377e-05 -6.06609e-06 0.00108281 ) 0 
( -6.77142e-05 -0.000291953 0.00108099 ) 0 
( -0.000320173 -9.0992e-05 0.0011381 ) 0 
( -9.76845e-05 -0.000487167 0.00111245 ) 0 
( -0.000468267 -0.000222738 0.00111167 ) 0 
)
