FoamFile
{version 2.0; format ascii;class vectorField; location 0;object  v;}
346
(
( -6.70224e-07 -4.22858e-06 -4.20658e-06 )  
( -1.13549e-06 -1.82187e-06 -1.95433e-06 )  
( -2.21966e-06 -2.57477e-06 -4.05771e-06 )  
( -8.88281e-07 -5.93413e-06 -2.51762e-06 )  
( -1.92665e-06 -1.33745e-06 -1.32285e-06 )  
( -1.90299e-06 -1.561e-06 -2.29151e-06 )  
( -2.83758e-06 -2.43455e-06 -2.94509e-06 )  
( 1.37752e-06 -8.17863e-06 -7.76717e-07 )  
( -3.07506e-06 -3.63139e-06 -5.14369e-06 )  
( -8.96544e-07 -2.23195e-06 -2.27762e-06 )  
( -1.38242e-06 -3.8612e-06 -5.47116e-06 )  
( -1.53585e-06 -1.95199e-06 -6.7346e-06 )  
( 4.59304e-07 -2.78577e-06 -2.25694e-06 )  
( -2.34841e-06 -2.22944e-06 -2.37301e-06 )  
( 4.17655e-06 -1.18411e-05 -4.29903e-06 )  
( -2.29793e-06 -3.20913e-06 -3.33984e-06 )  
( 6.4113e-09 -4.36734e-06 -2.42313e-06 )  
( -1.30314e-06 -6.55998e-07 -4.2144e-06 )  
( 6.30045e-07 -5.04716e-06 -4.01098e-06 )  
( -4.85389e-07 -4.37485e-06 -7.77115e-06 )  
( 7.96143e-08 -6.18798e-06 -2.16534e-06 )  
( -1.98026e-06 -2.3251e-06 -3.18847e-06 )  
( 1.86924e-07 -2.29631e-06 -4.38926e-06 )  
( -5.28435e-06 -1.35259e-06 -1.22602e-05 )  
( -3.66703e-06 -2.81499e-06 -2.91368e-06 )  
( -1.09489e-06 -3.5676e-06 -1.44107e-06 )  
( -3.02376e-06 -4.49397e-06 -6.00059e-06 )  
( -3.49915e-06 -1.12604e-06 -6.11198e-06 )  
( -1.59316e-06 -1.40814e-06 -2.14138e-06 )  
( -2.2664e-07 -3.43092e-06 -4.57205e-06 )  
( -2.47396e-06 -5.37657e-06 -3.96924e-06 )  
( -4.89663e-06 -7.57195e-06 -1.01561e-05 )  
( 2.54796e-06 -1.80419e-05 -3.9776e-06 )  
( -3.82597e-06 -6.87355e-06 -9.3744e-06 )  
( -2.8168e-06 -5.37365e-06 -4.92532e-06 )  
( -1.9225e-06 -7.4053e-06 -7.94265e-06 )  
( -2.2134e-06 -5.56564e-06 -4.97368e-06 )  
( 1.96004e-07 -4.34536e-06 -6.17214e-06 )  
( -2.9454e-06 -3.0748e-06 -3.12963e-06 )  
( -1.5439e-06 -5.96197e-06 -8.66388e-06 )  
( -4.9681e-06 -8.4005e-06 -6.49882e-06 )  
( -3.20773e-06 -1.05264e-05 -6.06829e-06 )  
( -1.51801e-06 -1.01696e-05 -8.32628e-06 )  
( -4.99196e-06 -1.05075e-05 -2.36288e-06 )  
( -4.64401e-06 -6.58415e-06 -7.13193e-06 )  
( -1.31574e-06 -1.09101e-05 -5.3926e-06 )  
( -6.64394e-06 -9.37317e-06 -7.93626e-06 )  
( -4.79569e-06 -6.26205e-06 -8.04131e-06 )  
( -5.763e-06 -2.08024e-07 -9.37373e-06 )  
( -1.20886e-06 -6.85361e-06 -5.8612e-06 )  
( -5.89476e-06 -1.11842e-05 -7.21998e-06 )  
( -8.66594e-06 -4.29528e-06 -8.96774e-06 )  
( -2.38257e-06 -6.83776e-06 -8.00338e-06 )  
( -6.35457e-06 -9.01342e-06 -8.69575e-06 )  
( -8.75688e-06 -5.8563e-06 -1.45101e-05 )  
( -2.51818e-06 -1.19767e-05 -5.76064e-06 )  
( -1.10222e-05 -1.18587e-05 -1.47542e-05 )  
( -5.4152e-06 -7.62739e-06 -1.43171e-05 )  
( -6.4499e-06 -9.1472e-06 -9.54271e-06 )  
( -3.37475e-06 -9.09912e-06 -1.81822e-05 )  
( -4.59079e-06 -7.50859e-06 -9.68758e-06 )  
( -5.53158e-06 -1.38578e-05 -1.19299e-05 )  
( -4.70079e-06 -7.14154e-06 -1.00005e-05 )  
( -7.80989e-07 -7.87358e-06 -4.7874e-06 )  
( -1.85681e-06 -3.80582e-06 -4.84899e-06 )  
( -1.96237e-06 -9.92648e-06 -6.93472e-06 )  
( -7.63091e-06 -2.59596e-06 -1.7239e-05 )  
( -9.00477e-06 -8.8034e-06 -1.61481e-05 )  
( -1.32163e-05 -9.49394e-06 -2.59729e-05 )  
( -3.59492e-06 -8.5597e-06 -4.82651e-06 )  
( -3.88133e-06 -1.28483e-05 -1.48929e-05 )  
( -3.6207e-06 -1.19944e-05 -7.88087e-06 )  
( -9.22828e-07 -9.93699e-06 -2.09912e-06 )  
( -1.06473e-05 -5.09452e-06 -1.7899e-05 )  
( -8.82234e-06 7.49009e-08 -1.23701e-05 )  
( -3.47876e-06 -1.32876e-05 -2.26391e-05 )  
( -1.14551e-05 -6.68643e-06 -1.2672e-05 )  
( -3.10982e-06 -1.10961e-05 -1.86567e-05 )  
( -3.98207e-06 -9.68835e-06 -1.11917e-05 )  
( -1.01596e-06 -9.08184e-06 -2.05982e-05 )  
( -1.39378e-05 -6.12635e-06 -2.95315e-05 )  
( -1.22754e-05 -2.98333e-06 -1.31576e-05 )  
( -1.7272e-06 -8.22992e-06 -9.40735e-06 )  
( -9.52462e-06 -6.62139e-06 -1.44686e-05 )  
( -1.17393e-05 -6.28193e-06 -3.07673e-05 )  
( -1.24296e-05 -1.11001e-05 -1.95076e-05 )  
( -1.22521e-05 -8.83893e-06 -2.38803e-05 )  
( -1.08235e-05 -6.37899e-06 -1.27096e-05 )  
( -1.06947e-05 -8.83878e-06 -1.49158e-05 )  
( -1.14482e-05 -7.80391e-06 -2.98058e-05 )  
( -9.32305e-06 -1.32281e-05 -1.18439e-05 )  
( -3.87264e-06 -1.27455e-05 -1.52405e-05 )  
( -7.62199e-06 -9.93456e-06 -1.28173e-05 )  
( -7.25674e-07 -1.18676e-05 -9.96324e-06 )  
( -1.27383e-05 -1.16971e-05 -2.94322e-05 )  
( -1.62155e-05 -9.75272e-06 -2.59017e-05 )  
( -1.32201e-05 -1.26174e-05 -2.34444e-05 )  
( -8.83292e-06 -1.71935e-05 -3.19039e-05 )  
( -4.01821e-06 -1.06644e-05 -3.24587e-05 )  
( -2.25654e-05 -5.27272e-06 -3.33571e-05 )  
( -1.81769e-05 -7.15145e-06 -3.9477e-05 )  
( -1.38731e-05 -6.93104e-06 -4.32235e-05 )  
( -1.65192e-05 -1.54407e-05 -3.73109e-05 )  
( -1.22534e-05 -1.27403e-05 -1.80712e-05 )  
( -1.16389e-05 -6.12165e-06 -5.35612e-06 )  
( -1.63984e-05 -8.52188e-06 -2.48952e-05 )  
( -2.23839e-06 -1.66152e-05 -1.29983e-05 )  
( -1.26305e-05 -4.12305e-06 -1.73729e-05 )  
( -1.54065e-05 -8.18478e-06 -1.18515e-05 )  
( -9.54785e-06 3.88852e-06 -1.47554e-05 )  
( -1.74096e-05 -1.32177e-05 -3.74247e-05 )  
( -1.61044e-05 -1.30502e-05 -2.48498e-05 )  
( -1.86757e-05 -4.037e-06 -3.00926e-05 )  
( -1.43727e-05 -1.05732e-05 -1.04211e-05 )  
( -8.80106e-06 -1.47591e-05 -6.72539e-06 )  
( -1.02755e-05 -1.75416e-05 -2.1218e-05 )  
( -1.19417e-05 2.01642e-07 -1.73028e-05 )  
( -1.55479e-05 2.57519e-06 -2.69736e-05 )  
( -1.57334e-05 -1.40101e-05 -4.31251e-05 )  
( -1.23667e-05 -1.51505e-05 -4.13712e-05 )  
( -1.35201e-05 -1.15774e-05 -3.34556e-05 )  
( -2.0387e-05 -5.48453e-06 -2.11363e-05 )  
( 4.58475e-06 -2.48599e-05 -1.12036e-05 )  
( -1.67956e-05 -1.09628e-05 -1.8155e-05 )  
( -1.46514e-05 -6.5556e-06 -4.5832e-05 )  
( -1.89629e-05 -4.12693e-06 -3.10519e-05 )  
( -1.69648e-05 -2.23827e-06 -2.25558e-05 )  
( -2.23632e-05 -4.6198e-06 -4.80556e-05 )  
( -1.47069e-05 -7.55516e-06 -5.01996e-05 )  
( -2.06978e-05 -3.15657e-06 -2.64767e-05 )  
( -2.186e-05 -4.46198e-06 -4.81503e-05 )  
( -1.70782e-05 -8.29812e-06 -4.17113e-05 )  
( -2.20608e-05 -5.10819e-06 -3.24139e-05 )  
( -7.26782e-06 -6.25427e-06 -6.18427e-05 )  
( -1.49768e-05 -1.65471e-05 -6.13911e-05 )  
( -2.39222e-05 2.09559e-06 -4.00179e-05 )  
( -3.64488e-05 2.12102e-05 -4.06938e-05 )  
( -2.27591e-05 -5.16157e-06 -4.05464e-05 )  
( -1.97922e-05 -5.22739e-06 -3.23992e-05 )  
( -1.83508e-05 -1.72024e-05 -5.31244e-05 )  
( -2.29017e-05 -1.24448e-05 -2.96862e-05 )  
( -1.38795e-05 -1.63529e-05 -5.39176e-05 )  
( -1.97419e-05 -8.20884e-06 -6.37524e-05 )  
( -1.75434e-05 -1.13255e-05 -4.39243e-05 )  
( -1.98788e-05 -3.18341e-06 -6.7275e-05 )  
( -1.84842e-05 -4.20781e-06 -5.68091e-05 )  
( -1.141e-05 -9.71601e-06 -3.95789e-05 )  
( -1.90292e-05 -1.34871e-05 -6.49545e-05 )  
( -2.09176e-05 -3.54899e-06 -5.69303e-05 )  
( -1.41141e-05 -1.51916e-05 -5.43418e-05 )  
( -1.9412e-05 -1.05694e-05 -6.10419e-05 )  
( -1.18348e-05 -1.25667e-05 -6.12727e-05 )  
( -1.21613e-05 -1.45536e-05 -4.51392e-05 )  
( -1.83235e-05 -8.4469e-06 -4.46603e-05 )  
( -1.14365e-05 -1.59148e-05 -6.42256e-05 )  
( -3.07228e-05 8.14945e-06 -7.11445e-05 )  
( -2.4513e-05 1.76717e-07 -3.88924e-05 )  
( -1.88093e-05 -8.54069e-06 -8.61556e-05 )  
( -2.83152e-05 -1.31016e-05 -6.20329e-05 )  
( -2.13356e-05 -9.05725e-06 -6.14007e-05 )  
( -2.09022e-05 -7.1565e-06 -8.76488e-05 )  
( -2.05084e-05 6.46398e-07 -8.26169e-05 )  
( -1.65213e-05 -9.42172e-06 -7.96528e-05 )  
( -1.18415e-05 -7.31276e-06 -7.14448e-05 )  
( -1.77594e-05 -8.2203e-06 -7.55858e-05 )  
( -1.63925e-05 -1.15917e-05 -8.16857e-05 )  
( -1.62394e-05 -5.96961e-07 -9.94718e-05 )  
( -1.47069e-05 -9.26594e-06 -7.18994e-05 )  
( -1.94188e-05 -1.11691e-05 -7.56935e-05 )  
( -1.61425e-05 9.29055e-07 -9.22923e-05 )  
( -1.55956e-05 3.94796e-07 -0.00010129 )  
( -2.36549e-05 5.036e-06 -0.000105908 )  
( -2.65326e-05 -1.74132e-05 -5.26578e-05 )  
( -1.50001e-05 -5.00598e-06 -8.89385e-05 )  
( -2.35321e-05 -6.53845e-06 -8.82125e-05 )  
( -1.90066e-05 -1.30965e-05 -9.48381e-05 )  
( -1.11377e-05 -4.38552e-06 -7.93852e-05 )  
( -1.87764e-05 -8.32562e-06 -8.75918e-05 )  
( -2.04823e-05 -9.81172e-06 -7.24305e-05 )  
( -1.58811e-05 -1.82477e-05 -7.78971e-05 )  
( -4.36258e-05 3.69336e-07 -4.7381e-05 )  
( -1.92957e-05 -2.1098e-06 -5.16472e-05 )  
( -4.55133e-07 4.68847e-06 -0.000100486 )  
( -2.07246e-05 2.84137e-06 -7.55819e-05 )  
( -2.12309e-05 4.02899e-06 -0.000109155 )  
( -1.10588e-05 -4.03457e-06 -0.000105611 )  
( -2.50452e-05 -1.47211e-05 -0.0001072 )  
( -1.733e-05 -7.27923e-06 -0.000109949 )  
( -1.13187e-05 2.59153e-06 -0.000104049 )  
( -1.69033e-05 1.04956e-05 -0.000105964 )  
( -1.85173e-05 8.68183e-07 -0.000103516 )  
( -1.96263e-05 1.85583e-06 -9.51633e-05 )  
( -1.10522e-05 2.17794e-05 -0.000123984 )  
( -2.02706e-05 1.97253e-06 -0.00010808 )  
( -2.58881e-05 -2.9012e-06 -9.99929e-05 )  
( -2.60382e-05 5.033e-06 -0.000115113 )  
( -1.56246e-05 1.50942e-05 -0.000133055 )  
( -1.55519e-05 -8.22872e-06 -9.68214e-05 )  
( -2.63307e-05 -2.68061e-06 -0.00010956 )  
( -1.18217e-05 -4.8671e-06 -0.000126085 )  
( -2.60151e-05 -9.76499e-06 -9.69928e-05 )  
( -1.22797e-05 8.98289e-06 -0.000120666 )  
( -1.32848e-05 6.15946e-06 -0.00012742 )  
( 1.64327e-06 1.18578e-05 -0.000127754 )  
( -2.15172e-05 -9.0942e-06 -0.000124867 )  
( -5.42161e-06 -1.40457e-06 -0.000124395 )  
( -1.32115e-05 3.16912e-07 -0.000135908 )  
( -1.5409e-05 -1.53615e-06 -0.000119701 )  
( -2.2537e-05 -7.9376e-07 -0.000128846 )  
( -2.7416e-05 5.05122e-07 -0.000116071 )  
( -3.84336e-05 -8.82844e-06 -0.000132477 )  
( -6.84799e-06 7.11502e-06 -0.000126297 )  
( -7.82059e-06 -3.31642e-06 -0.000147309 )  
( -2.48884e-05 -1.16718e-05 -0.000143875 )  
( -2.68458e-05 -1.25771e-05 -0.000132468 )  
( -1.53337e-05 6.69604e-06 -0.000151748 )  
( -1.35624e-05 5.09811e-06 -0.000108944 )  
( -2.29504e-05 9.53019e-06 -0.000120731 )  
( 5.36366e-07 3.39981e-06 -0.000148322 )  
( -8.18134e-06 -7.40765e-06 -0.000142145 )  
( -1.92038e-05 -2.07516e-06 -0.000152414 )  
( -1.76552e-05 6.18318e-06 -0.00013161 )  
( -8.90214e-06 -8.30114e-06 -0.000139437 )  
( -1.67083e-05 -2.98444e-06 -0.000144535 )  
( -1.65926e-05 -8.63757e-06 -0.000152525 )  
( -2.12851e-05 -1.20916e-05 -0.000164151 )  
( -1.73725e-05 -9.018e-06 -0.000170858 )  
( -8.04185e-06 1.58311e-05 -0.000154434 )  
( -2.50448e-05 6.76291e-06 -0.000142957 )  
( -2.14433e-05 -4.80286e-07 -0.000161243 )  
( -6.26612e-06 2.02695e-06 -0.000124405 )  
( -4.57479e-06 -1.46859e-06 -0.000178343 )  
( -6.01277e-06 7.42942e-06 -0.000176995 )  
( -4.48521e-06 -3.219e-08 -0.000179683 )  
( 6.96824e-06 2.01045e-06 -0.000166395 )  
( -2.7475e-05 -4.15924e-06 -0.000194818 )  
( -1.88067e-05 -8.58749e-06 -0.000173009 )  
( 2.95186e-07 -5.25632e-06 -0.000188961 )  
( -1.10453e-05 -6.13408e-06 -0.000158211 )  
( -1.64767e-05 -1.62712e-06 -0.000181065 )  
( -1.74374e-05 3.6291e-06 -0.000163368 )  
( -2.53864e-05 -3.12012e-06 -0.000170643 )  
( -6.84673e-06 -1.01324e-05 -0.000149947 )  
( -5.62738e-06 7.81772e-06 -0.000145602 )  
( 1.72817e-06 1.96821e-05 -0.000118784 )  
( -6.98947e-06 2.29531e-06 -0.000162789 )  
( -8.09471e-06 1.92823e-06 -0.000170646 )  
( -4.60838e-06 3.01985e-06 -0.000173328 )  
( -1.69659e-06 9.88866e-06 -0.000180371 )  
( -1.88036e-05 2.63569e-05 -0.000187338 )  
( 3.79597e-06 -5.8801e-06 -0.000182463 )  
( -1.12916e-06 2.2418e-05 -0.000199486 )  
( -2.62724e-06 4.68317e-06 -0.000168297 )  
( -4.81796e-06 -2.29504e-06 -0.000187919 )  
( -3.42504e-06 3.58748e-06 -0.000192 )  
( -4.03763e-05 -4.74542e-07 -0.000188039 )  
( -3.61639e-06 2.05703e-06 -0.000184728 )  
( -5.22017e-06 -3.81374e-06 -0.000189662 )  
( 3.58329e-07 -6.06698e-06 -0.000184448 )  
( -9.2051e-07 2.30046e-05 -0.000216986 )  
( -1.25315e-05 -3.96033e-06 -0.000195302 )  
( -2.73837e-05 -4.39361e-07 -0.000209932 )  
( -4.03806e-06 1.57559e-05 -0.000207946 )  
( -3.59484e-06 4.87889e-06 -0.000191677 )  
( -1.83071e-06 1.61399e-05 -0.000220915 )  
( -8.13997e-06 -5.10703e-06 -0.000205837 )  
( 1.13373e-06 4.00855e-06 -0.000192424 )  
( -5.83512e-06 9.72539e-06 -0.00019092 )  
( 1.54102e-05 8.35528e-06 -0.000199995 )  
( 2.74142e-06 -1.97152e-05 -0.000208094 )  
( -9.85257e-06 1.35946e-05 -0.000199006 )  
( -7.01306e-06 6.95199e-06 -0.000196767 )  
( 7.38838e-06 1.20847e-05 -0.000220669 )  
( 1.48509e-05 -5.85274e-06 -0.000217808 )  
( 7.01798e-06 1.83656e-05 -0.000230384 )  
( 5.46267e-06 1.84719e-05 -0.00021398 )  
( 6.28612e-06 1.88868e-05 -0.00021988 )  
( 9.24122e-06 6.35442e-06 -0.000224334 )  
( 7.80697e-06 -1.60289e-05 -0.000228201 )  
( -8.49646e-06 1.74729e-06 -0.000204699 )  
( 8.92861e-06 -4.13214e-06 -0.000198293 )  
( 1.2749e-05 1.41114e-05 -0.000214766 )  
( 5.96643e-06 3.28564e-06 -0.000199097 )  
( -2.08183e-05 3.51532e-05 -0.000211963 )  
( -9.33683e-06 -4.74117e-06 -0.000213851 )  
( 1.86364e-07 2.30722e-05 -0.000219771 )  
( -1.40627e-05 3.31594e-07 -0.00023185 )  
( 1.91743e-05 7.41941e-06 -0.0002192 )  
( 2.47726e-06 1.65477e-06 -0.000206477 )  
( -2.41618e-06 3.09782e-05 -0.000242095 )  
( 3.34364e-05 -2.02862e-05 -0.000238753 )  
( -7.04741e-06 3.83051e-06 -0.000273498 )  
( 8.69001e-06 9.842e-06 -0.00023576 )  
( 1.64704e-05 -5.49699e-06 -0.000223625 )  
( 2.65868e-05 2.03182e-05 -0.000236719 )  
( 3.7718e-05 5.06436e-06 -0.000238352 )  
( 1.11262e-05 1.65779e-05 -0.000242634 )  
( -4.05429e-07 1.62247e-05 -0.000242051 )  
( -2.20284e-05 2.4659e-06 -0.000250589 )  
( 5.11528e-06 5.33261e-06 -0.000237221 )  
( 1.57491e-05 -1.64314e-05 -0.000211808 )  
( 1.59389e-05 1.1423e-05 -0.000232521 )  
( 3.06023e-06 1.5718e-05 -0.000246755 )  
( 3.38092e-05 2.48645e-05 -0.000251851 )  
( -1.71975e-05 -1.17333e-05 -0.000282841 )  
( 9.50878e-06 7.99345e-07 -0.000267888 )  
( 3.55196e-05 2.83948e-05 -0.000264547 )  
( 2.7745e-05 2.78016e-06 -0.000252377 )  
( 1.88477e-05 1.97513e-05 -0.000252135 )  
( 1.91492e-05 -5.75899e-06 -0.000267282 )  
( 5.29877e-06 -8.42194e-06 -0.000222424 )  
( 8.66549e-06 1.05677e-05 -0.000239527 )  
( 2.62669e-05 2.97406e-05 -0.000216197 )  
( 4.87376e-06 3.50258e-05 -0.000252556 )  
( 9.005e-06 1.61998e-05 -0.000240757 )  
( 1.54126e-05 1.27059e-05 -0.000273504 )  
( 3.40979e-05 2.36329e-05 -0.000266057 )  
( 7.87073e-06 -1.98592e-07 -0.000261678 )  
( 5.14598e-05 1.63238e-05 -0.000246262 )  
( 3.29054e-05 2.34001e-05 -0.000276714 )  
( 9.1039e-06 -2.48406e-05 -0.000260939 )  
( 9.29696e-07 1.45031e-05 -0.00026886 )  
( 2.52703e-05 2.10756e-05 -0.000268124 )  
( 3.48442e-05 -3.05591e-05 -0.000318807 )  
( 1.11089e-05 3.22832e-07 -0.00025036 )  
( 5.10538e-05 -2.68781e-05 -0.000294845 )  
( 2.57575e-05 1.06043e-05 -0.000262467 )  
( 2.28206e-05 1.24571e-05 -0.000247782 )  
( 2.58057e-05 1.87903e-05 -0.000255446 )  
( 1.8705e-06 1.58366e-05 -0.00025021 )  
( 2.50983e-05 1.90971e-05 -0.000252186 )  
( 7.89403e-06 3.81669e-05 -0.00025177 )  
( 9.42603e-06 9.83155e-06 -0.000258753 )  
( 2.80484e-05 2.45489e-05 -0.000279508 )  
( 5.24459e-05 -8.50946e-07 -0.000246627 )  
( 3.92138e-05 3.88388e-06 -0.000265205 )  
( -4.48863e-06 -3.36909e-05 -0.000266174 )  
( 7.90344e-06 4.50551e-05 -0.00025981 )  
( 4.25075e-05 3.81219e-05 -0.000262389 )  
( 6.73057e-06 -1.27152e-05 -0.000269858 )  
( 5.24249e-05 1.61388e-05 -0.00027293 )  
( 5.86784e-05 2.06833e-05 -0.000251518 )  
( 3.94683e-05 -8.43561e-06 -0.000293707 )  
( 2.73198e-05 5.50629e-06 -0.000279551 )  
( 3.09649e-05 1.80411e-05 -0.000275279 )  
( 3.78087e-05 -1.29212e-05 -0.000243982 )  
)
