/*--------------------------------*- C++ -*----------------------------------*\
| =========                 |                                                 |
| \\      /  F ield         | OpenFOAM: The Open Source CFD Toolbox           |
|  \\    /   O peration     | Version:  5.x                                   |
|   \\  /    A nd           | Web:      www.OpenFOAM.org                      |
|    \\/     M anipulation  |                                                 |
\*---------------------------------------------------------------------------*/
FoamFile
{
    version     2.0;
    format      ascii;
    class       surfaceScalarField;
    location    "600";
    object      phi;
}
// * * * * * * * * * * * * * * * * * * * * * * * * * * * * * * * * * * * * * //

dimensions      [0 3 -1 0 0 0 0];

internalField   nonuniform List<scalar> 
89
(
-150.42
-151.349
-152.309
-153.301
-154.323
-155.372
-156.447
-157.548
-158.673
-159.823
-160.998
-162.198
-163.423
-164.672
-165.948
-167.248
-168.575
-169.926
-171.302
-172.702
-174.126
-175.57
-177.035
-178.518
-180.017
-181.53
-183.053
-184.586
-186.123
-187.664
-189.204
-190.741
-192.272
-193.794
-195.305
-196.801
-198.281
-199.743
-201.185
-202.604
-204
-205.37
-206.714
-208.03
-209.317
-210.574
-211.8
-212.996
-214.161
-215.296
-216.401
-217.477
-218.525
-219.547
-220.544
-221.519
-222.472
-223.407
-224.325
-225.228
-226.119
-226.998
-227.868
-228.731
-229.587
-230.438
-231.286
-232.131
-232.975
-233.821
-234.669
-235.519
-236.372
-237.228
-238.087
-238.949
-239.813
-240.68
-241.549
-242.418
-243.289
-244.158
-245.026
-245.89
-246.748
-247.599
-248.442
-249.267
-250.018
)
;

boundaryField
{
    inlet
    {
        type            calculated;
        value           uniform -250.721;
    }
    outlet
    {
        type            calculated;
        value           uniform 149.537;
    }
    repeat_boundary
    {
        type            calculated;
        value           uniform 0;
    }
    procBoundary2to0
    {
        type            processor;
        value           nonuniform List<scalar> 
90
(
0.378692
0.397751
0.407441
0.415316
0.422549
0.427251
0.431157
0.433624
0.435386
0.43633
0.436797
0.436833
0.436627
0.436262
0.435864
0.435516
0.435312
0.435328
0.435641
0.436323
0.437445
0.439076
0.441287
0.444149
0.447732
0.452103
0.457324
0.463447
0.470514
0.478558
0.48759
0.497591
0.508507
0.520233
0.532627
0.545517
0.558715
0.57202
0.585237
0.598181
0.610685
0.622613
0.63386
0.644356
0.654072
0.663012
0.671221
0.67878
0.685794
0.692386
0.69869
0.70484
0.710969
0.717202
0.72365
0.730407
0.737547
0.745124
0.753168
0.761689
0.770679
0.780111
0.789948
0.800145
0.810653
0.821408
0.832348
0.843495
0.85496
0.866643
0.878321
0.889963
0.901443
0.912755
0.923835
0.934658
0.94518
0.955352
0.965115
0.97439
0.983097
0.991121
0.998245
1.00414
1.00865
1.0127
1.01617
1.01349
0.989554
0.972978
)
;
    }
    procBoundary2to3
    {
        type            processor;
        value           nonuniform List<scalar> 
90
(
0.504755
0.530843
0.553276
0.576318
0.599239
0.621574
0.644315
0.666997
0.690258
0.71386
0.738067
0.762757
0.787956
0.81353
0.839357
0.865232
0.890922
0.916145
0.940588
0.963908
0.985751
1.00575
1.02355
1.03881
1.05122
1.06048
1.06636
1.06864
1.06719
1.0619
1.05273
1.03958
1.02253
1.00184
0.977849
0.950931
0.921458
0.889793
0.856282
0.821245
0.78498
0.74776
0.709834
0.671432
0.632762
0.59402
0.555405
0.517119
0.47936
0.442317
0.406172
0.371091
0.337223
0.3047
0.273625
0.244074
0.216093
0.189696
0.16487
0.141575
0.119748
0.0993125
0.0801855
0.0622817
0.0455044
0.029727
0.0151457
0.00169166
-0.0103112
-0.0210107
-0.0307499
-0.0397788
-0.0484017
-0.05671
-0.0648189
-0.0727911
-0.0806963
-0.0885911
-0.0965366
-0.104599
-0.112848
-0.121371
-0.130362
-0.140148
-0.150926
-0.161806
-0.172758
-0.189014
-0.237833
-0.270596
)
;
    }
}


// ************************************************************************* //
