FoamFile
{version 2.0; format ascii;class vectorField; location 0;object  v;}
350
(
( -3.95521e-06 1.22067e-06 -3.32113e-05 )  
( -1.45589e-07 4.02449e-06 -4.097e-05 )  
( -1.24719e-05 -4.21853e-07 -3.48266e-05 )  
( 4.35188e-06 7.01086e-06 -4.48543e-05 )  
( -3.67647e-05 -1.00761e-05 -1.94444e-05 )  
( 9.07436e-06 9.9517e-06 -3.12686e-05 )  
( -1.17531e-05 8.48514e-06 -4.57265e-05 )  
( 1.2057e-05 2.8178e-07 -3.32416e-05 )  
( -3.66892e-07 7.92777e-06 -2.75827e-05 )  
( -2.85936e-06 -3.76353e-06 -5.34981e-05 )  
( -1.45957e-05 -2.55578e-06 -3.62025e-05 )  
( 9.24731e-05 0.000115734 -2.14279e-05 )  
( 5.75386e-06 -3.89751e-06 -3.85389e-05 )  
( -1.0971e-05 -1.31948e-05 1.13369e-06 )  
( -1.17957e-05 -1.01819e-05 -3.16928e-05 )  
( -2.2043e-05 1.39754e-05 -9.11582e-05 )  
( -7.51531e-06 -6.05136e-06 -3.2818e-05 )  
( -1.83993e-05 -4.19029e-06 -2.13947e-05 )  
( 5.19082e-06 -4.72042e-06 -4.24556e-05 )  
( -1.43719e-05 2.10324e-06 -3.18213e-05 )  
( -1.99589e-05 8.00473e-06 -1.84199e-05 )  
( 6.31742e-06 -4.91417e-07 -3.31911e-05 )  
( 3.9774e-06 2.15822e-06 -6.08341e-05 )  
( -3.04287e-06 6.73867e-07 -3.04344e-05 )  
( -2.06722e-05 -4.49159e-06 -6.56543e-05 )  
( -8.47872e-06 1.1897e-05 -4.2141e-05 )  
( -6.62539e-06 4.14687e-06 -3.24297e-05 )  
( -1.67031e-05 2.36082e-06 -5.98463e-05 )  
( 1.3315e-05 6.69632e-07 -7.69177e-05 )  
( -9.73477e-06 -4.05203e-06 -3.75869e-05 )  
( -2.56427e-05 -1.01408e-05 -6.85051e-05 )  
( -3.23527e-06 3.00126e-06 -0.000115511 )  
( -1.1236e-05 3.69774e-06 -8.02494e-05 )  
( -1.19184e-06 4.10932e-06 -8.84994e-05 )  
( -1.04187e-05 3.96738e-06 -5.12113e-05 )  
( -1.6884e-05 -1.09317e-06 -6.81522e-05 )  
( -1.82283e-05 -3.94888e-06 -5.16612e-05 )  
( 1.22514e-06 6.55902e-06 -7.49332e-05 )  
( -1.71431e-05 5.75701e-06 -7.3601e-05 )  
( -2.46844e-05 5.31674e-06 -0.000109604 )  
( 2.08354e-06 1.02628e-05 -7.33914e-05 )  
( -1.2315e-05 -2.47499e-06 -7.07357e-05 )  
( 1.25657e-05 1.31863e-05 -6.61912e-05 )  
( -1.30902e-05 2.76823e-06 -6.18473e-05 )  
( -4.22557e-07 9.36867e-06 -7.21355e-05 )  
( -1.61483e-05 1.27403e-05 -7.89951e-05 )  
( 1.48321e-05 6.89939e-06 -0.000123192 )  
( -2.01789e-05 -1.1177e-05 -9.9629e-05 )  
( -1.16647e-05 1.38176e-06 -9.18166e-05 )  
( -1.51214e-05 -7.38882e-06 -7.32258e-05 )  
( -1.50919e-05 -7.5869e-06 -8.44795e-05 )  
( -9.08134e-06 1.31951e-05 -0.000107584 )  
( -1.70343e-07 2.86724e-07 -0.000128052 )  
( -1.80633e-05 -7.6253e-06 -0.000126825 )  
( -1.26617e-05 1.91182e-05 -0.000142306 )  
( -1.09858e-05 2.03582e-06 -6.10852e-05 )  
( -1.11143e-05 2.67076e-06 -0.00010232 )  
( -1.59983e-05 -4.35321e-06 -0.000128891 )  
( -1.25097e-05 3.20961e-06 -0.00015631 )  
( -2.18189e-05 -8.99816e-07 -0.000161942 )  
( -8.18063e-06 3.03649e-05 -0.000134422 )  
( 1.80373e-05 1.36532e-05 -8.38958e-05 )  
( -1.69169e-05 -2.37007e-06 -0.000168152 )  
( -4.40985e-06 2.41963e-06 -0.000105654 )  
( -1.04383e-05 4.06169e-07 -9.98862e-05 )  
( -5.51386e-06 6.98054e-06 -0.000124336 )  
( -1.69088e-05 -1.06902e-05 -8.34485e-05 )  
( -9.59516e-06 -2.79783e-06 -0.000137962 )  
( -3.88294e-06 3.08015e-06 -0.000132503 )  
( -2.5009e-06 -5.35359e-06 -0.000133647 )  
( -3.0486e-05 -4.49321e-06 -0.000127612 )  
( -1.74014e-05 -5.19339e-06 -0.000123671 )  
( -7.28308e-06 -8.67296e-06 -0.000112238 )  
( -4.06204e-06 2.00578e-05 -0.000171379 )  
( -7.71209e-06 1.81599e-05 -0.000143599 )  
( -2.00421e-05 -1.03963e-05 -0.000164446 )  
( -9.23398e-06 1.29626e-05 -0.000108447 )  
( -1.39183e-05 -4.54377e-06 -0.000164879 )  
( -2.61713e-05 7.90668e-06 -0.000182627 )  
( -3.95142e-05 -8.40028e-06 -0.000112875 )  
( -2.73406e-05 -3.27767e-06 -0.000170776 )  
( -1.36941e-05 -1.75881e-06 -7.60989e-05 )  
( -1.86048e-05 6.13691e-06 -0.000160477 )  
( -1.83341e-05 1.16795e-05 -0.000173523 )  
( -1.27967e-05 1.41356e-05 -0.00017618 )  
( -1.83705e-05 1.67401e-06 -0.000168345 )  
( -8.68029e-06 -1.46142e-07 -0.000174873 )  
( -1.82265e-05 9.93802e-06 -0.000214774 )  
( -1.59557e-05 3.58142e-05 -0.000191263 )  
( -2.18211e-05 6.4425e-06 -0.00020029 )  
( -3.4346e-06 2.0161e-05 -0.000106109 )  
( -1.34186e-05 7.78836e-06 -0.000204792 )  
( -2.65583e-05 1.59873e-05 -0.000156086 )  
( -2.23089e-05 3.13529e-07 -0.000176002 )  
( -1.05224e-05 1.21684e-05 -0.000206564 )  
( -2.62366e-05 5.71488e-07 -0.000195178 )  
( -1.25835e-05 -3.02558e-06 -0.000185204 )  
( -1.32508e-05 -7.13136e-07 -0.000216248 )  
( -1.70796e-05 -2.00908e-06 -0.000194099 )  
( -1.57446e-05 7.1191e-06 -0.000202881 )  
( -1.53868e-05 1.42441e-05 -0.000237886 )  
( -9.77759e-06 3.73816e-05 -9.94214e-05 )  
( -2.26483e-05 4.92568e-06 -0.000218496 )  
( -1.98786e-05 5.59305e-06 -0.000203334 )  
( -2.14104e-06 -6.39629e-06 -0.000165548 )  
( -2.34776e-05 1.69842e-05 -0.00021352 )  
( -3.13523e-05 -1.73494e-06 -0.000195 )  
( 3.2622e-06 1.20831e-06 -0.000148026 )  
( -1.9764e-05 1.02257e-05 -0.000196543 )  
( -1.05055e-05 -3.50638e-06 -0.000164562 )  
( -2.63594e-05 4.40106e-06 -0.000211344 )  
( -1.44583e-05 6.64062e-06 -0.000211065 )  
( -2.19921e-05 5.60104e-06 -0.000219431 )  
( -1.98514e-05 4.02349e-05 -0.000172085 )  
( 2.14743e-06 4.21187e-07 -0.000193992 )  
( -1.30259e-05 1.38619e-05 -0.000214641 )  
( -3.14838e-05 6.59984e-06 -0.000205544 )  
( -8.72039e-06 9.0626e-06 -0.0002336 )  
( -3.06772e-05 1.15158e-05 -0.000255794 )  
( -2.01817e-05 2.22972e-06 -0.000229856 )  
( -1.89302e-05 6.02406e-05 -0.000127728 )  
( -2.33895e-05 -6.29716e-07 -0.000230861 )  
( -1.63031e-05 8.59416e-07 -0.000252124 )  
( -1.76995e-05 3.05397e-06 -0.000219554 )  
( -1.75847e-05 2.13286e-06 -0.000244646 )  
( -9.38432e-06 1.08878e-05 -0.000249592 )  
( -2.66473e-05 3.73398e-07 -0.000224008 )  
( -2.63482e-05 3.20154e-06 -0.000239771 )  
( -1.89137e-05 8.59145e-06 -0.000232894 )  
( -1.50104e-05 -3.59529e-06 -0.000218583 )  
( -1.77207e-05 1.25753e-06 -0.000265365 )  
( -2.14806e-05 4.38622e-06 -0.000247181 )  
( -2.56486e-05 3.6654e-06 -0.000246517 )  
( -2.98648e-05 1.70031e-05 -0.000223678 )  
( -2.23291e-05 7.67229e-06 -0.000236986 )  
( -4.78424e-06 2.68691e-06 -0.000252048 )  
( -2.29539e-05 -9.15837e-06 -0.000236387 )  
( -2.33944e-05 5.93371e-06 -0.000241705 )  
( -1.29414e-05 1.22573e-06 -0.000268402 )  
( -2.55883e-05 8.231e-06 -0.000241845 )  
( -2.22747e-05 5.52392e-06 -0.000235622 )  
( -2.1969e-05 4.49584e-06 -0.000237945 )  
( -1.36798e-05 -2.02816e-06 -0.000277174 )  
( -1.23644e-05 8.12894e-08 -0.000265168 )  
( -2.42627e-05 2.28799e-06 -0.000262874 )  
( -9.64332e-06 3.11781e-06 -0.000259551 )  
( -5.81303e-06 2.90583e-06 -0.000272207 )  
( -2.58914e-05 1.27904e-05 -0.000218682 )  
( -1.79666e-05 -1.99034e-06 -0.000262782 )  
( -8.22627e-06 1.1966e-05 -0.000228124 )  
( -1.99081e-05 7.51693e-06 -0.000261201 )  
( -1.64477e-05 3.19117e-07 -0.000258577 )  
( -1.9194e-05 5.67562e-06 -0.00025881 )  
( -2.10168e-05 -2.87303e-07 -0.000245056 )  
( -1.00233e-06 1.13397e-06 -0.000280978 )  
( -6.40813e-06 1.42552e-06 -0.00028313 )  
( -1.28308e-05 2.28099e-06 -0.000270926 )  
( -6.84634e-06 1.331e-06 -0.000262933 )  
( -9.94014e-06 1.34815e-06 -0.000276771 )  
( -8.80427e-06 7.33676e-06 -0.000251977 )  
( -1.26565e-05 3.36588e-06 -0.000256511 )  
( -1.72265e-05 1.89997e-05 -0.000255581 )  
( -6.84618e-06 -2.85549e-06 -0.000284294 )  
( -1.89733e-05 4.15432e-06 -0.000277109 )  
( -1.40953e-05 8.81677e-06 -0.000255292 )  
( -8.6826e-06 1.05482e-05 -0.000275304 )  
( -1.43197e-05 -9.6428e-06 -0.000265294 )  
( -1.293e-05 5.906e-06 -0.000273758 )  
( -3.41433e-06 2.02898e-06 -0.000286622 )  
( -1.13558e-05 1.83771e-06 -0.000266456 )  
( 2.39792e-06 1.38167e-06 -0.000278163 )  
( -1.06189e-05 4.30448e-06 -0.000278277 )  
( -6.3042e-06 -2.69595e-06 -0.00029592 )  
( -1.04097e-05 -2.72691e-06 -0.000292068 )  
( -6.15935e-06 -3.13806e-06 -0.000284108 )  
( -1.32362e-05 -1.56867e-06 -0.000289784 )  
( -1.87202e-06 1.7117e-06 -0.000288257 )  
( -1.66035e-06 5.65072e-06 -0.000291713 )  
( -1.99561e-05 2.91706e-08 -0.000272199 )  
( -9.40486e-06 3.30178e-06 -0.000299381 )  
( 5.78932e-06 1.80444e-06 -0.000280128 )  
( 2.12302e-05 -4.66169e-06 -0.000302491 )  
( 1.0632e-07 9.11938e-06 -0.000285451 )  
( -2.56702e-05 -1.29031e-05 -0.000297535 )  
( -2.72119e-06 -1.08671e-05 -0.000291322 )  
( -4.42151e-06 -2.95238e-06 -0.000305333 )  
( 1.88648e-06 -1.04759e-05 -0.00030343 )  
( -6.15749e-06 3.77986e-06 -0.000310605 )  
( 3.58403e-06 -8.71093e-07 -0.000307567 )  
( 2.98657e-06 8.01384e-07 -0.000307923 )  
( 5.94785e-06 -1.02169e-05 -0.000312203 )  
( -4.37162e-06 -5.41588e-09 -0.000287307 )  
( 2.42321e-06 -1.16668e-05 -0.000295032 )  
( -7.83117e-06 1.90182e-06 -0.000308947 )  
( 3.8206e-06 5.51646e-06 -0.000304815 )  
( -1.83911e-06 5.58544e-06 -0.000287947 )  
( 1.17632e-05 4.8037e-06 -0.000303545 )  
( 7.85058e-08 -2.15032e-07 -0.000298942 )  
( 8.79618e-07 6.89532e-06 -0.00028671 )  
( 2.79401e-06 5.48182e-06 -0.000311459 )  
( 9.84185e-06 6.82694e-07 -0.000318037 )  
( -3.24216e-06 3.45285e-06 -0.000313247 )  
( -2.09792e-05 -2.42346e-05 -0.000314095 )  
( -3.26901e-06 -6.28495e-06 -0.000304728 )  
( 5.78993e-06 4.48255e-06 -0.000313509 )  
( 7.12395e-06 3.1526e-06 -0.000314525 )  
( 6.56793e-06 -7.08801e-06 -0.000324484 )  
( 4.44333e-06 -6.15814e-06 -0.000325312 )  
( 1.33361e-06 -8.13907e-06 -0.000330097 )  
( -2.79834e-06 -7.97006e-07 -0.000301473 )  
( 4.53862e-06 8.37452e-06 -0.000309344 )  
( 3.21154e-05 1.3519e-06 -0.000304186 )  
( 4.54199e-06 -7.33929e-06 -0.000323134 )  
( 2.79807e-06 2.97073e-07 -0.000310443 )  
( 1.43351e-07 3.50234e-06 -0.000331905 )  
( -7.3912e-06 -2.05276e-06 -0.000302379 )  
( 2.59107e-07 -2.36693e-05 -0.000335208 )  
( 3.52584e-06 8.90987e-07 -0.00032335 )  
( 1.31859e-05 -4.88341e-06 -0.000335413 )  
( 1.75975e-05 -1.34981e-05 -0.000322231 )  
( -1.91645e-06 -2.9772e-07 -0.000320625 )  
( 9.17907e-06 1.16606e-05 -0.00033059 )  
( 9.23606e-06 -1.47256e-05 -0.000344405 )  
( 1.07e-05 1.00146e-05 -0.000330516 )  
( 7.28438e-06 -1.75505e-05 -0.000312806 )  
( -6.02769e-06 5.60813e-06 -0.000310121 )  
( -7.98996e-06 2.32237e-06 -0.000335854 )  
( 7.221e-06 -9.65022e-06 -0.000326575 )  
( 2.8889e-07 -1.53017e-05 -0.00033109 )  
( 1.794e-05 -1.48684e-05 -0.000335534 )  
( 1.82918e-05 -2.00356e-06 -0.000321856 )  
( -1.58225e-05 1.35762e-05 -0.000330542 )  
( -7.89273e-07 -2.67872e-06 -0.000334753 )  
( -8.32285e-06 4.23743e-06 -0.000320698 )  
( 6.85783e-06 -5.17391e-06 -0.000337972 )  
( 3.28608e-06 -1.44648e-06 -0.000313189 )  
( 1.94223e-06 -1.81652e-05 -0.000317643 )  
( 1.40315e-05 -1.83205e-05 -0.000344843 )  
( 2.76714e-05 -3.81233e-06 -0.000306642 )  
( 1.06293e-05 6.59106e-06 -0.000314523 )  
( -4.5101e-06 -1.42901e-05 -0.000344807 )  
( 2.07972e-05 1.06495e-05 -0.000320272 )  
( 1.39506e-05 -1.3425e-05 -0.000346592 )  
( -3.87734e-06 -1.93739e-05 -0.000341561 )  
( 2.36878e-05 -1.14219e-05 -0.00034853 )  
( -3.47052e-06 1.41e-05 -0.000331556 )  
( -4.76664e-06 -2.41798e-05 -0.000317799 )  
( 9.88677e-06 -2.27702e-06 -0.000344076 )  
( -2.74198e-06 -1.24173e-05 -0.000326324 )  
( 1.11482e-05 1.27052e-06 -0.000331311 )  
( 3.19003e-05 2.08402e-05 -0.000343283 )  
( 1.21434e-05 -2.22977e-05 -0.000340314 )  
( 2.18435e-06 -2.04239e-05 -0.000302336 )  
( 1.03415e-05 -2.8659e-05 -0.000356986 )  
( 8.00331e-06 1.50647e-05 -0.000344736 )  
( -4.6329e-05 -4.2459e-05 -0.000398108 )  
( 2.61331e-05 5.39094e-05 -0.000329484 )  
( 1.90253e-05 -2.37026e-07 -0.000332626 )  
( 2.17772e-05 -6.25894e-06 -0.00036264 )  
( 1.69176e-06 -1.6231e-05 -0.000312515 )  
( -6.44254e-06 2.97321e-06 -0.00032494 )  
( 1.37073e-05 -2.52392e-05 -0.000358857 )  
( 8.37163e-06 2.38323e-06 -0.000342088 )  
( 3.08963e-05 8.01411e-05 -0.000307507 )  
( 2.65606e-05 -1.88453e-05 -0.000367381 )  
( 1.99299e-05 2.94593e-05 -0.000339262 )  
( -1.33552e-05 -3.46476e-05 -0.000308726 )  
( 9.87558e-07 -3.57217e-05 -0.000325529 )  
( 2.1767e-05 -1.73776e-05 -0.000383098 )  
( 6.9872e-06 -1.40136e-06 -0.000358653 )  
( 4.55576e-06 -1.88933e-05 -0.000320885 )  
( 1.14724e-05 -2.81134e-05 -0.00036092 )  
( 2.024e-06 -2.66107e-05 -0.000347846 )  
( 7.9949e-06 -9.65821e-06 -0.000316039 )  
( 1.78883e-05 -9.8008e-06 -0.000353712 )  
( 8.12843e-06 -1.7876e-05 -0.000355963 )  
( 1.86536e-05 -5.34313e-07 -0.000349137 )  
( 2.53729e-05 -1.64482e-05 -0.000373917 )  
( -9.77529e-06 -3.12195e-05 -0.000411772 )  
( 2.72948e-05 1.86715e-05 -0.000350555 )  
( 3.31589e-05 3.36087e-05 -0.000345635 )  
( 3.8322e-05 7.63337e-06 -0.000365344 )  
( 2.22192e-05 1.94868e-05 -0.00034533 )  
( 7.23328e-06 -1.28792e-05 -0.000312515 )  
( 4.03165e-05 8.55484e-06 -0.000401304 )  
( -0.000102463 -4.85612e-05 -0.00037633 )  
( 1.99201e-05 4.56597e-06 -0.00037172 )  
( 2.65058e-05 -2.23377e-06 -0.000355881 )  
( 3.36023e-05 -1.75352e-05 -0.000360069 )  
( 9.83046e-06 7.40793e-06 -0.000351808 )  
( 2.09431e-05 1.54397e-05 -0.000389959 )  
( 7.52903e-06 9.47457e-06 -0.000359321 )  
( 1.66529e-05 -1.80747e-05 -0.000307213 )  
( 1.39084e-05 1.03174e-05 -0.000358829 )  
( 1.74436e-05 5.40061e-06 -0.000383572 )  
( 2.42838e-05 1.24609e-05 -0.000360386 )  
( 3.35025e-05 1.70428e-05 -0.000390944 )  
( 2.33711e-05 4.3239e-06 -0.000421106 )  
( 4.41787e-05 1.70648e-05 -0.000334091 )  
( 3.61925e-05 1.67086e-05 -0.000341927 )  
( 9.2995e-06 2.33261e-05 -0.000374407 )  
( 4.08496e-05 -1.62434e-05 -0.000286844 )  
( 1.50921e-05 1.39221e-05 -0.00041051 )  
( 1.18405e-05 -1.03517e-05 -0.000323629 )  
( 4.40223e-05 -1.45327e-05 -0.000378262 )  
( 1.63537e-05 -9.63945e-06 -0.000325432 )  
( 9.61462e-06 2.07313e-05 -0.000372335 )  
( -3.71319e-07 2.30884e-05 -0.000362148 )  
( -1.31745e-06 2.05605e-05 -0.00036573 )  
( -4.37272e-06 -1.6599e-05 -0.000337086 )  
( 2.20787e-05 -2.66088e-05 -0.000298586 )  
( 2.61687e-06 -2.47087e-06 -0.000295193 )  
( 5.71541e-05 1.03187e-05 -0.000294724 )  
( 5.60971e-06 1.34308e-05 -0.000350535 )  
( 1.01993e-05 5.77773e-06 -0.000401753 )  
( 1.03996e-05 8.74509e-06 -0.000339545 )  
( 2.61453e-05 -1.36952e-05 -0.000335751 )  
( 3.91088e-06 -1.83944e-07 -0.000351439 )  
( -1.43296e-07 1.78186e-05 -0.000321673 )  
( 5.79676e-05 -1.37953e-05 -0.000432825 )  
( 3.49217e-05 1.70333e-06 -0.000413173 )  
( 3.24784e-05 1.82742e-05 -0.000337906 )  
( 2.91206e-06 8.37642e-06 -0.00040123 )  
( 1.94643e-05 -8.69958e-06 -0.000307477 )  
( 6.08878e-05 4.31113e-05 -0.000399294 )  
( 1.32213e-05 5.57522e-05 -0.000289045 )  
( -3.16281e-06 -4.06157e-05 -0.000399601 )  
( 8.8104e-06 1.54373e-05 -0.000360404 )  
( 5.80327e-06 1.44064e-05 -0.000329603 )  
( 4.79442e-05 2.2941e-05 -0.000379576 )  
( -2.3256e-05 2.12338e-05 -0.000424986 )  
( 2.80135e-05 -1.47042e-05 -0.000423349 )  
( 7.00153e-05 9.86943e-06 -0.000359301 )  
( 1.99517e-05 -2.96157e-07 -0.000328906 )  
( 2.80823e-06 2.557e-05 -0.0003982 )  
( 7.89265e-06 -3.22681e-05 -0.000345721 )  
( -1.66683e-05 -2.02071e-05 -0.000402238 )  
( -5.96956e-06 4.47209e-06 -0.000401264 )  
( -1.43593e-05 6.39269e-05 -0.000405161 )  
( 1.22193e-05 2.99536e-05 -0.000353606 )  
( -3.48892e-05 6.78766e-05 -0.000382521 )  
( -4.30014e-05 -1.47097e-05 -0.000409685 )  
( -1.09062e-05 3.12706e-05 -0.000297082 )  
( 6.10335e-05 7.66979e-05 -0.000358255 )  
( 3.17036e-05 0.000170941 -0.000371668 )  
( 8.12004e-06 1.40591e-06 -0.000303769 )  
( 1.2588e-05 8.18046e-06 -0.000332528 )  
( -3.10753e-05 -8.03334e-06 -0.000367006 )  
( 1.2083e-06 -2.41201e-05 -0.000458572 )  
( -4.61013e-05 -6.57508e-06 -0.000373244 )  
)
