/*--------------------------------*- C++ -*----------------------------------*\
| =========                 |                                                 |
| \\      /  F ield         | OpenFOAM: The Open Source CFD Toolbox           |
|  \\    /   O peration     | Version:  5.x                                   |
|   \\  /    A nd           | Web:      www.OpenFOAM.org                      |
|    \\/     M anipulation  |                                                 |
\*---------------------------------------------------------------------------*/
FoamFile
{
    version     2.0;
    format      ascii;
    class       volScalarField;
    location    "8000";
    object      p;
}
// * * * * * * * * * * * * * * * * * * * * * * * * * * * * * * * * * * * * * //

dimensions      [0 2 -2 0 0 0 0];

internalField   nonuniform List<scalar> 
180
(
8.59703e-09
2.59515e-08
4.35157e-08
6.10901e-08
7.85994e-08
9.60925e-08
1.13579e-07
1.31074e-07
1.48592e-07
1.66151e-07
1.83771e-07
2.01469e-07
2.19265e-07
2.37176e-07
2.55225e-07
2.73427e-07
2.91798e-07
3.10346e-07
3.29078e-07
3.48e-07
3.67115e-07
3.86431e-07
4.05962e-07
4.25729e-07
4.45766e-07
4.66125e-07
4.86876e-07
5.08115e-07
5.29961e-07
5.52567e-07
5.76113e-07
6.00815e-07
6.26923e-07
6.54724e-07
6.84544e-07
7.1675e-07
7.51749e-07
7.9e-07
8.32014e-07
8.78365e-07
9.29698e-07
9.86744e-07
1.05034e-06
1.12144e-06
1.20114e-06
1.29073e-06
1.39168e-06
1.50572e-06
1.63484e-06
1.78138e-06
1.94804e-06
2.13795e-06
2.35476e-06
2.60267e-06
2.88655e-06
3.21204e-06
3.58564e-06
4.01488e-06
4.50849e-06
5.07655e-06
5.73078e-06
6.48478e-06
7.35435e-06
8.35785e-06
9.51669e-06
1.08558e-05
1.24042e-05
1.4196e-05
1.62706e-05
1.86744e-05
2.14614e-05
2.4696e-05
2.84553e-05
3.28253e-05
3.788e-05
4.36886e-05
5.05734e-05
5.97144e-05
7.1982e-05
8.00664e-05
2.08232e-05
0.000985184
0.00160657
0.00182725
0.00246383
0.00365251
0.00564615
0.00661724
0.0107693
0.0133353
0.0145819
0.0149735
0.0157181
0.0175984
0.0183368
0.0199115
0.0210092
0.0218283
0.0228797
0.0235519
0.0245872
0.0258905
0.026174
0.0264264
0.0265339
0.0265036
0.026495
0.0264917
0.0264887
0.0264858
0.0264833
0.0264812
0.0264794
0.0264779
0.0264766
0.0264755
0.0264746
0.0264738
0.0264732
0.0264726
0.0264722
0.0264718
0.0264714
0.0264711
0.0264709
0.0264707
0.0264705
0.0264704
0.0264703
0.0264702
0.0264701
0.02647
0.02647
0.0264699
0.0264699
0.0264699
0.0264699
0.0264698
0.0264698
0.0264698
0.0264698
0.0264698
0.0264698
0.0264699
0.0264699
0.0264699
0.0264699
0.0264699
0.0264699
0.0264699
0.0264699
0.02647
0.02647
0.02647
0.02647
0.02647
0.02647
0.02647
0.02647
0.0264701
0.0264701
0.0264701
0.0264701
0.0264701
0.0264701
0.0264701
0.0264701
0.0264701
0.0264702
0.0264702
0.0264702
0.0264702
0.0264702
0.0264702
0.0264702
0.0264702
0.0264702
0.0264702
0.0264702
0.0264702
)
;

boundaryField
{
    inlet
    {
        type            zeroGradient;
    }
    outlet
    {
        type            fixedValue;
        value           uniform 0;
    }
    repeat_boundary
    {
        type            zeroGradient;
    }
    procBoundary0to1
    {
        type            processor;
        value           nonuniform List<scalar> 
180
(
8.46253e-09
2.53986e-08
4.24611e-08
5.96265e-08
7.67945e-08
9.40453e-08
1.11392e-07
1.28847e-07
1.46414e-07
1.64096e-07
1.81888e-07
1.99783e-07
2.17771e-07
2.35834e-07
2.53952e-07
2.72104e-07
2.90274e-07
3.08449e-07
3.26626e-07
3.44814e-07
3.63032e-07
3.81318e-07
3.99723e-07
4.18322e-07
4.37207e-07
4.56494e-07
4.7632e-07
4.96848e-07
5.1826e-07
5.40766e-07
5.64596e-07
5.90006e-07
6.17275e-07
6.46711e-07
6.78647e-07
7.13448e-07
7.51516e-07
7.93297e-07
8.39288e-07
8.90045e-07
9.46202e-07
1.00848e-06
1.07771e-06
1.15483e-06
1.24096e-06
1.33735e-06
1.44547e-06
1.567e-06
1.70388e-06
1.85834e-06
2.03294e-06
2.23061e-06
2.45471e-06
2.70907e-06
2.99809e-06
3.32678e-06
3.70087e-06
4.12691e-06
4.61238e-06
5.16583e-06
5.79703e-06
6.51717e-06
7.33903e-06
8.27722e-06
9.3485e-06
1.0572e-05
1.19697e-05
1.35666e-05
1.53914e-05
1.74769e-05
1.98606e-05
2.25861e-05
2.57038e-05
2.92655e-05
3.33051e-05
3.7849e-05
4.31239e-05
5.00179e-05
5.90163e-05
6.46533e-05
3.01619e-05
0.00107732
0.00217429
0.00229911
0.00374099
0.00588515
0.00877827
0.00990408
0.0112762
0.0119968
0.0125329
0.0135642
0.0140701
0.0152874
0.0177232
0.019444
0.0194851
0.0199309
0.0224293
0.0244157
0.0258757
0.0262701
0.0264135
0.0264565
0.0264753
0.0264775
0.0264758
0.0264749
0.0264746
0.0264743
0.026474
0.0264736
0.0264733
0.0264729
0.0264726
0.0264723
0.0264721
0.0264718
0.0264716
0.0264714
0.0264712
0.026471
0.0264709
0.0264707
0.0264706
0.0264705
0.0264704
0.0264703
0.0264703
0.0264702
0.0264702
0.0264701
0.0264701
0.02647
0.02647
0.02647
0.02647
0.02647
0.02647
0.0264699
0.0264699
0.0264699
0.0264699
0.0264699
0.0264699
0.0264699
0.0264699
0.0264699
0.0264699
0.02647
0.02647
0.02647
0.02647
0.02647
0.02647
0.02647
0.02647
0.02647
0.0264701
0.0264701
0.0264701
0.0264701
0.0264701
0.0264701
0.0264701
0.0264701
0.0264701
0.0264701
0.0264702
0.0264702
0.0264702
0.0264702
0.0264702
0.0264702
0.0264702
0.0264702
0.0264702
0.0264702
0.0264702
0.0264702
)
;
    }
    procBoundary0to2
    {
        type            processor;
        value           nonuniform List<scalar> 
180
(
8.04448e-09
2.40597e-08
4.01469e-08
5.63036e-08
7.24134e-08
8.85346e-08
1.04661e-07
1.20782e-07
1.36882e-07
1.52939e-07
1.68921e-07
1.84789e-07
2.00499e-07
2.15998e-07
2.31228e-07
2.46127e-07
2.60626e-07
2.74659e-07
2.88155e-07
3.01045e-07
3.13261e-07
3.24737e-07
3.3541e-07
3.45217e-07
3.54099e-07
3.61995e-07
3.68842e-07
3.7457e-07
3.79098e-07
3.82332e-07
3.84155e-07
3.84423e-07
3.82957e-07
3.79539e-07
3.73896e-07
3.65702e-07
3.54561e-07
3.40002e-07
3.21469e-07
2.98311e-07
2.69769e-07
2.34965e-07
1.92889e-07
1.42376e-07
8.20927e-08
1.0509e-08
-7.41308e-08
-1.73842e-07
-2.90944e-07
-4.28104e-07
-5.88401e-07
-7.75392e-07
-9.93192e-07
-1.24656e-06
-1.54102e-06
-1.88297e-06
-2.27982e-06
-2.74019e-06
-3.27408e-06
-3.89309e-06
-4.61072e-06
-5.44262e-06
-6.40699e-06
-7.525e-06
-8.82125e-06
-1.03243e-05
-1.20676e-05
-1.40897e-05
-1.6436e-05
-1.9159e-05
-2.23203e-05
-2.5991e-05
-3.02536e-05
-3.52089e-05
-4.09916e-05
-4.77721e-05
-5.56251e-05
-6.41869e-05
-7.3232e-05
-8.59208e-05
-0.000136248
0.000459075
0.00113947
0.00156675
0.00366629
0.00608601
0.00847111
0.00939267
0.00994714
0.0111769
0.0145681
0.0169818
0.019033
0.0194296
0.0204376
0.0208909
0.0212959
0.0224122
0.0226756
0.0234849
0.0256958
0.0262426
0.0264213
0.026432
0.0264389
0.0264457
0.0264489
0.0264517
0.0264543
0.0264565
0.0264584
0.02646
0.0264614
0.0264626
0.0264636
0.0264644
0.0264651
0.0264657
0.0264663
0.0264667
0.0264671
0.0264675
0.0264678
0.026468
0.0264682
0.0264684
0.0264686
0.0264687
0.0264689
0.026469
0.0264691
0.0264692
0.0264692
0.0264693
0.0264694
0.0264694
0.0264695
0.0264695
0.0264696
0.0264696
0.0264696
0.0264697
0.0264697
0.0264697
0.0264698
0.0264698
0.0264698
0.0264698
0.0264698
0.0264699
0.0264699
0.0264699
0.0264699
0.0264699
0.02647
0.02647
0.02647
0.02647
0.02647
0.02647
0.0264701
0.0264701
0.0264701
0.0264701
0.0264701
0.0264701
0.0264701
0.0264701
0.0264701
0.0264702
0.0264702
0.0264702
0.0264702
0.0264702
0.0264702
0.0264702
0.0264702
0.0264702
0.0264702
0.0264702
)
;
    }
}


// ************************************************************************* //
