/*--------------------------------*- C++ -*----------------------------------*\
| =========                 |                                                 |
| \\      /  F ield         | OpenFOAM: The Open Source CFD Toolbox           |
|  \\    /   O peration     | Version:  5.x                                   |
|   \\  /    A nd           | Web:      www.OpenFOAM.org                      |
|    \\/     M anipulation  |                                                 |
\*---------------------------------------------------------------------------*/
FoamFile
{
    version     2.0;
    format      ascii;
    class       surfaceScalarField;
    location    "8000";
    object      phi;
}
// * * * * * * * * * * * * * * * * * * * * * * * * * * * * * * * * * * * * * //

dimensions      [0 3 -1 0 0 0 0];

internalField   nonuniform List<scalar> 
179
(
-250.029
-250.03
-250.031
-250.032
-250.033
-250.035
-250.036
-250.039
-250.041
-250.044
-250.048
-250.052
-250.056
-250.061
-250.066
-250.072
-250.079
-250.087
-250.096
-250.105
-250.116
-250.128
-250.141
-250.155
-250.172
-250.19
-250.21
-250.233
-250.258
-250.286
-250.317
-250.352
-250.391
-250.434
-250.483
-250.537
-250.597
-250.663
-250.738
-250.821
-250.914
-251.018
-251.134
-251.263
-251.407
-251.569
-251.749
-251.951
-252.177
-252.43
-252.713
-253.029
-253.384
-253.782
-254.228
-254.728
-255.29
-255.919
-256.626
-257.42
-258.312
-259.314
-260.44
-261.708
-263.134
-264.738
-266.545
-268.581
-270.875
-273.461
-276.376
-279.662
-283.362
-287.509
-292.114
-297.123
-302.366
-307.5
-311.941
-314.892
-315.005
-315.001
-310.448
-309.418
-303.055
-300.962
-290.677
-278.15
-279.769
-290.138
-292.751
-301.272
-299.816
-301.042
-299.64
-298.162
-304.127
-304.608
-305.555
-303.108
-299.352
-295.887
-288.048
-284.13
-282.664
-279.642
-275.995
-272.415
-269.141
-266.241
-263.719
-261.548
-259.691
-258.106
-256.757
-255.611
-254.638
-253.815
-253.119
-252.533
-252.04
-251.626
-251.28
-250.992
-250.753
-250.555
-250.393
-250.26
-250.152
-250.065
-249.996
-249.942
-249.9
-249.868
-249.845
-249.828
-249.818
-249.812
-249.811
-249.812
-249.816
-249.82
-249.826
-249.833
-249.841
-249.849
-249.857
-249.865
-249.873
-249.882
-249.89
-249.897
-249.905
-249.912
-249.919
-249.925
-249.931
-249.937
-249.942
-249.947
-249.951
-249.955
-249.959
-249.963
-249.966
-249.969
-249.972
-249.975
-249.977
-249.98
-249.982
-249.984
-249.985
-249.987
-249.989
-249.99
-249.991
-249.993
-249.994
)
;

boundaryField
{
    inlet
    {
        type            calculated;
        value           uniform -249.995;
    }
    outlet
    {
        type            calculated;
        value           uniform 250.029;
    }
    repeat_boundary
    {
        type            calculated;
        value           uniform 0;
    }
    procBoundary0to1
    {
        type            processor;
        value           nonuniform List<scalar> 
180
(
-1.87401e-07
1.8557e-06
4.56998e-06
7.89564e-06
1.18835e-05
1.6019e-05
2.04347e-05
2.53477e-05
3.10085e-05
3.77743e-05
4.59835e-05
5.6031e-05
6.75448e-05
8.07234e-05
9.61578e-05
0.000114212
0.000136131
0.000162574
0.000194296
0.000232212
0.000277411
0.00033118
0.000395059
0.000470869
0.000560752
0.000667152
0.000792797
0.000940904
0.00111525
0.00132027
0.00156115
0.00184394
0.0021757
0.00256457
0.00302004
0.00355309
0.00417641
0.00490471
0.00575493
0.00674669
0.00790269
0.00924919
0.0108165
0.0126396
0.014759
0.0172218
0.020082
0.0234022
0.0272549
0.0317238
0.0369055
0.0429116
0.0498706
0.0579311
0.0672642
0.0780671
0.090567
0.105025
0.121744
0.141069
0.163401
0.1892
0.218995
0.253396
0.293102
0.33892
0.391773
0.452725
0.52299
0.603939
0.697067
0.80383
0.925128
1.05987
1.20169
1.33333
1.41978
1.41265
1.23884
0.821086
-0.00655828
-0.0246799
-6.36935
-1.17427
-3.85755
-1.73563
-4.87086
-9.23019
0.051469
8.11811
1.92921
12.4755
0.756584
5.54265
0.547125
1.15104
6.8151
1.9258
0.562441
-1.56572
-2.08588
-1.82364
-3.29617
-1.13844
-0.36081
-1.29653
-1.75274
-1.78976
-1.66373
-1.48272
-1.29183
-1.11178
-0.950891
-0.810672
-0.68969
-0.58571
-0.496506
-0.420073
-0.354659
-0.29874
-0.250996
-0.210283
-0.175614
-0.146134
-0.121104
-0.0998865
-0.0819116
-0.0667251
-0.0539623
-0.0432796
-0.0343956
-0.0268259
-0.0204266
-0.01515
-0.0108838
-0.00741276
-0.00430003
-0.00150211
0.000471746
0.00150906
0.00222642
0.00291587
0.00343802
0.00384141
0.00413339
0.00432527
0.00443069
0.00446377
0.00443787
0.00436505
0.00425581
0.00411906
0.00396228
0.00379167
0.00361229
0.00342822
0.00324276
0.00305836
0.00287709
0.00270054
0.00252992
0.0023662
0.00221005
0.0020619
0.00192203
0.00179055
0.00166749
0.00155277
0.00144627
0.00134779
0.00125714
0.00117409
0.00109837
0.00102977
0.000968033
0.000913019
0.000864727
0.000823159
0.000791183
0.000780693
)
;
    }
    procBoundary0to2
    {
        type            processor;
        value           nonuniform List<scalar> 
180
(
0.000459007
0.000577293
0.000773439
0.00101799
0.00129424
0.00159345
0.00191284
0.00225309
0.00261671
0.00300715
0.00342842
0.00388495
0.00438163
0.00492378
0.00551721
0.0061683
0.00688403
0.00767211
0.00854099
0.00950001
0.0105595
0.0117308
0.0130267
0.0144611
0.0160496
0.0178096
0.0197603
0.0219231
0.0243219
0.0269833
0.029937
0.0332159
0.036857
0.0409012
0.0453943
0.0503874
0.0559374
0.0621078
0.0689696
0.0766019
0.085093
0.0945419
0.105059
0.116767
0.129805
0.144327
0.160506
0.178535
0.198631
0.221037
0.246026
0.273901
0.305006
0.339726
0.378493
0.42179
0.470167
0.524235
0.584685
0.652291
0.727927
0.812576
0.907345
1.01348
1.1324
1.26568
1.41513
1.58275
1.77082
1.98181
2.21828
2.48231
2.77397
3.0875
3.40336
3.67617
3.82276
3.7224
3.20032
2.13153
0.12139
0.0212599
1.81509
0.144881
-2.50507
-0.357526
-5.41518
-3.29642
1.56816
2.25032
0.684047
-3.95442
-2.212
-4.31724
-1.94937
-2.62873
-0.849641
-1.44524
0.384667
-0.881401
-1.66931
-1.64174
-4.54228
-2.7793
-1.10487
-1.72605
-1.8936
-1.79065
-1.61027
-1.4171
-1.23052
-1.05906
-0.906707
-0.773901
-0.659183
-0.56048
-0.475726
-0.403048
-0.340796
-0.287536
-0.242022
-0.203176
-0.170066
-0.141884
-0.117934
-0.0976144
-0.0804057
-0.0658603
-0.053593
-0.0432722
-0.0346126
-0.0273687
-0.0213292
-0.0163129
-0.0121651
-0.00875982
-0.00599322
-0.00372473
-0.0017984
-5.19267e-05
0.00136164
0.00198575
0.0024594
0.00288993
0.00321793
0.00345135
0.0036024
0.0036831
0.00370519
0.00367955
0.00361599
0.00352304
0.00340797
0.00327686
0.00313469
0.00298555
0.00283264
0.00267861
0.00252571
0.00237567
0.00222982
0.00208917
0.00195441
0.00182605
0.00170442
0.0015897
0.00148198
0.00138125
0.00128745
0.00120047
0.00112015
0.00104633
0.000978821
0.000917442
0.000862015
0.000812428
0.000768788
0.000731205
0.000702517
0.000692121
)
;
    }
}


// ************************************************************************* //
