/*--------------------------------*- C++ -*----------------------------------*\
| =========                 |                                                 |
| \\      /  F ield         | OpenFOAM: The Open Source CFD Toolbox           |
|  \\    /   O peration     | Version:  5.x                                   |
|   \\  /    A nd           | Web:      www.OpenFOAM.org                      |
|    \\/     M anipulation  |                                                 |
\*---------------------------------------------------------------------------*/
FoamFile
{
    version     2.0;
    format      ascii;
    class       volVectorField;
    location    "8000";
    object      stored_U;
}
// * * * * * * * * * * * * * * * * * * * * * * * * * * * * * * * * * * * * * //

dimensions      [0 1 -1 0 0 0 0];

internalField   nonuniform List<vector> 
180
(
(-3.34127e-11 1.77974e-08 -0.00100008)
(-2.7461e-11 2.206e-08 -0.00100008)
(-1.1913e-11 2.92975e-08 -0.00100009)
(2.5309e-11 3.84636e-08 -0.00100009)
(8.29731e-11 4.88775e-08 -0.00100009)
(1.59297e-10 6.01909e-08 -0.0010001)
(2.587e-10 7.22917e-08 -0.00100011)
(3.87483e-10 8.52035e-08 -0.00100012)
(5.52761e-10 9.90199e-08 -0.00100012)
(7.62148e-10 1.1387e-07 -0.00100014)
(1.02419e-09 1.29903e-07 -0.00100015)
(1.34887e-09 1.47284e-07 -0.00100016)
(1.74808e-09 1.66194e-07 -0.00100018)
(2.23501e-09 1.8683e-07 -0.0010002)
(2.82481e-09 2.09409e-07 -0.00100022)
(3.53566e-09 2.34167e-07 -0.00100024)
(4.38939e-09 2.61366e-07 -0.00100027)
(5.41276e-09 2.91295e-07 -0.00100029)
(6.63814e-09 3.24273e-07 -0.00100033)
(8.10429e-09 3.60655e-07 -0.00100036)
(9.85729e-09 4.00832e-07 -0.0010004)
(1.19516e-08 4.45242e-07 -0.00100045)
(1.44513e-08 4.94366e-07 -0.0010005)
(1.74314e-08 5.48741e-07 -0.00100055)
(2.09794e-08 6.08964e-07 -0.00100061)
(2.51971e-08 6.75696e-07 -0.00100068)
(3.02025e-08 7.49672e-07 -0.00100076)
(3.61324e-08 8.31709e-07 -0.00100084)
(4.31448e-08 9.22715e-07 -0.00100093)
(5.14223e-08 1.0237e-06 -0.00100104)
(6.11758e-08 1.13579e-06 -0.00100115)
(7.26486e-08 1.26022e-06 -0.00100128)
(8.61219e-08 1.3984e-06 -0.00100143)
(1.0192e-07 1.55186e-06 -0.00100159)
(1.20419e-07 1.72233e-06 -0.00100177)
(1.42052e-07 1.91173e-06 -0.00100197)
(1.6732e-07 2.1222e-06 -0.00100219)
(1.96804e-07 2.35612e-06 -0.00100243)
(2.31174e-07 2.61615e-06 -0.00100271)
(2.71206e-07 2.90527e-06 -0.00100301)
(3.178e-07 3.2268e-06 -0.00100335)
(3.71995e-07 3.58442e-06 -0.00100373)
(4.34993e-07 3.9823e-06 -0.00100416)
(5.08185e-07 4.42504e-06 -0.00100463)
(5.93179e-07 4.91783e-06 -0.00100516)
(6.91835e-07 5.46644e-06 -0.00100574)
(8.06298e-07 6.07733e-06 -0.0010064)
(9.39051e-07 6.75776e-06 -0.00100713)
(1.09296e-06 7.51582e-06 -0.00100795)
(1.27132e-06 8.36058e-06 -0.00100887)
(1.47795e-06 9.30219e-06 -0.0010099)
(1.71726e-06 1.0352e-05 -0.00101104)
(1.9943e-06 1.15229e-05 -0.00101232)
(2.31493e-06 1.28289e-05 -0.00101376)
(2.68589e-06 1.42863e-05 -0.00101536)
(3.11493e-06 1.59129e-05 -0.00101716)
(3.611e-06 1.77289e-05 -0.00101917)
(4.1844e-06 1.9757e-05 -0.00102142)
(4.84699e-06 2.20225e-05 -0.00102395)
(5.61244e-06 2.45539e-05 -0.00102678)
(6.49646e-06 2.73834e-05 -0.00102995)
(7.51717e-06 3.0547e-05 -0.00103351)
(8.69539e-06 3.40851e-05 -0.0010375)
(1.00551e-05 3.80435e-05 -0.00104198)
(1.16238e-05 4.24733e-05 -0.00104701)
(1.34333e-05 4.74323e-05 -0.00105266)
(1.552e-05 5.29856e-05 -0.00105901)
(1.79258e-05 5.92062e-05 -0.00106614)
(2.06985e-05 6.61758e-05 -0.00107416)
(2.38925e-05 7.39835e-05 -0.00108317)
(2.75674e-05 8.27206e-05 -0.00109331)
(3.17825e-05 9.24592e-05 -0.00110471)
(3.65768e-05 0.000103192 -0.00111746)
(4.19142e-05 0.000114679 -0.00113155)
(4.75571e-05 0.000126132 -0.0011475)
(5.28429e-05 0.000135714 -0.00116752)
(5.63881e-05 0.000139938 -0.00119254)
(5.59963e-05 0.000133612 -0.00120119)
(4.85516e-05 0.000109214 -0.00113861)
(3.1078e-05 6.01453e-05 -0.000925914)
(-2.00304e-07 -1.62926e-05 -0.00342895)
(-1.16424e-05 2.39988e-06 -0.000189798)
(-0.00036767 5.47187e-05 -0.00399612)
(-3.65625e-05 7.0686e-06 -0.000486724)
(-0.000445473 -0.000150483 -0.00362158)
(-3.55138e-06 1.03209e-05 -0.000334505)
(-0.000724521 -0.000387731 -0.00383706)
(-0.00030689 -0.000197544 -0.00422406)
(-1.26424e-05 5.94702e-05 -0.000988232)
(0.000238343 0.000398564 -0.00478825)
(0.000212041 0.000120804 -0.00132715)
(0.000799172 -0.00033778 -0.00378867)
(-1.33541e-05 1.51535e-05 -0.000200304)
(0.0004813 -0.00019969 -0.00474582)
(0.000102537 -0.000170716 -0.00274506)
(5.56039e-05 -8.46677e-05 -0.0024763)
(0.000281669 -6.3283e-05 -0.00371882)
(0.000218121 -5.94427e-05 -0.0026803)
(8.07002e-07 2.846e-05 -0.00246202)
(-0.000240893 -5.50249e-05 -0.00394165)
(-0.000104487 -5.73608e-05 -0.00180904)
(-9.53218e-05 -9.23033e-05 -0.00349547)
(-0.000127311 -0.000134969 -0.00279411)
(-2.02492e-05 7.21442e-06 -0.00113702)
(1.59447e-06 -4.8837e-06 -0.0018571)
(-3.89152e-05 -4.19037e-05 -0.00106758)
(-6.1069e-05 -6.19933e-05 -0.00108062)
(-6.63014e-05 -6.67498e-05 -0.00109941)
(-6.3256e-05 -6.38052e-05 -0.00109229)
(-5.68713e-05 -5.76737e-05 -0.00107714)
(-4.96304e-05 -5.06338e-05 -0.00106423)
(-4.26649e-05 -4.37604e-05 -0.00105402)
(-3.64083e-05 -3.75101e-05 -0.00104548)
(-3.09534e-05 -3.20144e-05 -0.00103815)
(-2.62538e-05 -2.7255e-05 -0.00103189)
(-2.22237e-05 -2.31597e-05 -0.00102656)
(-1.87746e-05 -1.9646e-05 -0.00102204)
(-1.58269e-05 -1.66361e-05 -0.00101821)
(-1.33105e-05 -1.40607e-05 -0.00101497)
(-1.11651e-05 -1.18595e-05 -0.00101223)
(-9.33823e-06 -9.98021e-06 -0.00100993)
(-7.78482e-06 -8.37761e-06 -0.00100799)
(-6.4659e-06 -7.01266e-06 -0.00100637)
(-5.34791e-06 -5.85169e-06 -0.00100501)
(-4.40195e-06 -4.86564e-06 -0.00100388)
(-3.60311e-06 -4.02951e-06 -0.00100295)
(-2.92999e-06 -3.32171e-06 -0.00100217)
(-2.36415e-06 -2.72367e-06 -0.00100154)
(-1.88973e-06 -2.21943e-06 -0.00100102)
(-1.49316e-06 -1.79524e-06 -0.00100059)
(-1.16279e-06 -1.43931e-06 -0.00100025)
(-8.88695e-07 -1.14156e-06 -0.000999983)
(-6.62295e-07 -8.9328e-07 -0.00099977)
(-4.76172e-07 -6.86973e-07 -0.000999605)
(-3.23997e-07 -5.16228e-07 -0.000999481)
(-2.00463e-07 -3.75605e-07 -0.000999388)
(-1.01149e-07 -2.60519e-07 -0.000999322)
(-2.21032e-08 -1.6697e-07 -0.000999278)
(4.01395e-08 -9.15072e-08 -0.000999254)
(8.84951e-08 -3.11677e-08 -0.000999245)
(1.25449e-07 1.66781e-08 -0.000999249)
(1.53029e-07 5.41535e-08 -0.000999261)
(1.7286e-07 8.30014e-08 -0.00099928)
(1.863e-07 1.04662e-07 -0.000999303)
(1.94526e-07 1.2038e-07 -0.000999329)
(1.98541e-07 1.31217e-07 -0.000999358)
(1.99196e-07 1.38081e-07 -0.000999388)
(1.97204e-07 1.41737e-07 -0.00099942)
(1.93162e-07 1.42832e-07 -0.000999452)
(1.87567e-07 1.41905e-07 -0.000999484)
(1.80827e-07 1.39408e-07 -0.000999516)
(1.7328e-07 1.35714e-07 -0.000999547)
(1.652e-07 1.31133e-07 -0.000999577)
(1.56809e-07 1.25917e-07 -0.000999606)
(1.48284e-07 1.20272e-07 -0.000999633)
(1.39765e-07 1.14367e-07 -0.00099966)
(1.31364e-07 1.08333e-07 -0.000999685)
(1.23162e-07 1.02277e-07 -0.000999708)
(1.15225e-07 9.62827e-08 -0.000999731)
(1.07596e-07 9.04126e-08 -0.000999752)
(1.00309e-07 8.47153e-08 -0.000999771)
(9.33843e-08 7.92264e-08 -0.00099979)
(8.68331e-08 7.39716e-08 -0.000999807)
(8.06611e-08 6.89684e-08 -0.000999823)
(7.48682e-08 6.42279e-08 -0.000999838)
(6.9451e-08 5.97567e-08 -0.000999852)
(6.44031e-08 5.55577e-08 -0.000999865)
(5.97163e-08 5.16309e-08 -0.000999877)
(5.53815e-08 4.79746e-08 -0.000999888)
(5.1389e-08 4.45856e-08 -0.000999899)
(4.77287e-08 4.14598e-08 -0.000999909)
(4.43905e-08 3.85926e-08 -0.000999918)
(4.13647e-08 3.59786e-08 -0.000999927)
(3.86418e-08 3.36126e-08 -0.000999935)
(3.62134e-08 3.14896e-08 -0.000999943)
(3.40733e-08 2.9607e-08 -0.00099995)
(3.22235e-08 2.79706e-08 -0.000999957)
(3.06745e-08 2.65951e-08 -0.000999964)
(2.95103e-08 2.55637e-08 -0.000999971)
(2.89151e-08 2.50439e-08 -0.000999977)
)
;

boundaryField
{
    inlet
    {
        type            calculated;
        value           uniform (2.89151e-08 2.50439e-08 -0.000999977);
    }
    outlet
    {
        type            calculated;
        value           uniform (-3.34127e-11 1.77974e-08 -0.00100008);
    }
    repeat_boundary
    {
        type            calculated;
        value           nonuniform List<vector> 
360
(
(-3.34127e-11 0 -0.00100008)
(-2.7461e-11 0 -0.00100008)
(-1.1913e-11 0 -0.00100009)
(2.5309e-11 0 -0.00100009)
(8.29731e-11 0 -0.00100009)
(1.59297e-10 0 -0.0010001)
(2.587e-10 0 -0.00100011)
(3.87483e-10 0 -0.00100012)
(5.52761e-10 0 -0.00100012)
(7.62148e-10 0 -0.00100014)
(1.02419e-09 0 -0.00100015)
(1.34887e-09 0 -0.00100016)
(1.74808e-09 0 -0.00100018)
(2.23501e-09 0 -0.0010002)
(2.82481e-09 0 -0.00100022)
(3.53566e-09 0 -0.00100024)
(4.38939e-09 0 -0.00100027)
(5.41276e-09 0 -0.00100029)
(6.63814e-09 0 -0.00100033)
(8.10429e-09 0 -0.00100036)
(9.85729e-09 0 -0.0010004)
(1.19516e-08 0 -0.00100045)
(1.44513e-08 0 -0.0010005)
(1.74314e-08 0 -0.00100055)
(2.09794e-08 0 -0.00100061)
(2.51971e-08 0 -0.00100068)
(3.02025e-08 0 -0.00100076)
(3.61324e-08 0 -0.00100084)
(4.31448e-08 0 -0.00100093)
(5.14223e-08 0 -0.00100104)
(6.11758e-08 0 -0.00100115)
(7.26486e-08 0 -0.00100128)
(8.61219e-08 0 -0.00100143)
(1.0192e-07 0 -0.00100159)
(1.20419e-07 0 -0.00100177)
(1.42052e-07 0 -0.00100197)
(1.6732e-07 0 -0.00100219)
(1.96804e-07 0 -0.00100243)
(2.31174e-07 0 -0.00100271)
(2.71206e-07 0 -0.00100301)
(3.178e-07 0 -0.00100335)
(3.71995e-07 0 -0.00100373)
(4.34993e-07 0 -0.00100416)
(5.08185e-07 0 -0.00100463)
(5.93179e-07 0 -0.00100516)
(6.91835e-07 0 -0.00100574)
(8.06298e-07 0 -0.0010064)
(9.39051e-07 0 -0.00100713)
(1.09296e-06 0 -0.00100795)
(1.27132e-06 0 -0.00100887)
(1.47795e-06 0 -0.0010099)
(1.71726e-06 0 -0.00101104)
(1.9943e-06 0 -0.00101232)
(2.31493e-06 0 -0.00101376)
(2.68589e-06 0 -0.00101536)
(3.11493e-06 0 -0.00101716)
(3.611e-06 0 -0.00101917)
(4.1844e-06 0 -0.00102142)
(4.84699e-06 0 -0.00102395)
(5.61244e-06 0 -0.00102678)
(6.49646e-06 0 -0.00102995)
(7.51717e-06 0 -0.00103351)
(8.69539e-06 0 -0.0010375)
(1.00551e-05 0 -0.00104198)
(1.16238e-05 0 -0.00104701)
(1.34333e-05 0 -0.00105266)
(1.552e-05 0 -0.00105901)
(1.79258e-05 0 -0.00106614)
(2.06985e-05 0 -0.00107416)
(2.38925e-05 0 -0.00108317)
(2.75674e-05 0 -0.00109331)
(3.17825e-05 0 -0.00110471)
(3.65768e-05 0 -0.00111746)
(4.19142e-05 0 -0.00113155)
(4.75571e-05 0 -0.0011475)
(5.28429e-05 0 -0.00116752)
(5.63881e-05 0 -0.00119254)
(5.59963e-05 0 -0.00120119)
(4.85516e-05 0 -0.00113861)
(3.1078e-05 0 -0.000925914)
(-2.00304e-07 0 -0.00342895)
(-1.16424e-05 0 -0.000189798)
(-0.00036767 0 -0.00399612)
(-3.65625e-05 0 -0.000486724)
(-0.000445473 0 -0.00362158)
(-3.55138e-06 0 -0.000334505)
(-0.000724521 0 -0.00383706)
(-0.00030689 0 -0.00422406)
(-1.26424e-05 0 -0.000988232)
(0.000238343 0 -0.00478825)
(0.000212041 0 -0.00132715)
(0.000799172 0 -0.00378867)
(-1.33541e-05 0 -0.000200304)
(0.0004813 0 -0.00474582)
(0.000102537 0 -0.00274506)
(5.56039e-05 0 -0.0024763)
(0.000281669 0 -0.00371882)
(0.000218121 0 -0.0026803)
(8.07002e-07 0 -0.00246202)
(-0.000240893 0 -0.00394165)
(-0.000104487 0 -0.00180904)
(-9.53218e-05 0 -0.00349547)
(-0.000127311 0 -0.00279411)
(-2.02492e-05 0 -0.00113702)
(1.59447e-06 0 -0.0018571)
(-3.89152e-05 0 -0.00106758)
(-6.1069e-05 0 -0.00108062)
(-6.63014e-05 0 -0.00109941)
(-6.3256e-05 0 -0.00109229)
(-5.68713e-05 0 -0.00107714)
(-4.96304e-05 0 -0.00106423)
(-4.26649e-05 0 -0.00105402)
(-3.64083e-05 0 -0.00104548)
(-3.09534e-05 0 -0.00103815)
(-2.62538e-05 0 -0.00103189)
(-2.22237e-05 0 -0.00102656)
(-1.87746e-05 0 -0.00102204)
(-1.58269e-05 0 -0.00101821)
(-1.33105e-05 0 -0.00101497)
(-1.11651e-05 0 -0.00101223)
(-9.33823e-06 0 -0.00100993)
(-7.78482e-06 0 -0.00100799)
(-6.4659e-06 0 -0.00100637)
(-5.34791e-06 0 -0.00100501)
(-4.40195e-06 0 -0.00100388)
(-3.60311e-06 0 -0.00100295)
(-2.92999e-06 0 -0.00100217)
(-2.36415e-06 0 -0.00100154)
(-1.88973e-06 0 -0.00100102)
(-1.49316e-06 0 -0.00100059)
(-1.16279e-06 0 -0.00100025)
(-8.88695e-07 0 -0.000999983)
(-6.62295e-07 0 -0.00099977)
(-4.76172e-07 0 -0.000999605)
(-3.23997e-07 0 -0.000999481)
(-2.00463e-07 0 -0.000999388)
(-1.01149e-07 0 -0.000999322)
(-2.21032e-08 0 -0.000999278)
(4.01395e-08 0 -0.000999254)
(8.84951e-08 0 -0.000999245)
(1.25449e-07 0 -0.000999249)
(1.53029e-07 0 -0.000999261)
(1.7286e-07 0 -0.00099928)
(1.863e-07 0 -0.000999303)
(1.94526e-07 0 -0.000999329)
(1.98541e-07 0 -0.000999358)
(1.99196e-07 0 -0.000999388)
(1.97204e-07 0 -0.00099942)
(1.93162e-07 0 -0.000999452)
(1.87567e-07 0 -0.000999484)
(1.80827e-07 0 -0.000999516)
(1.7328e-07 0 -0.000999547)
(1.652e-07 0 -0.000999577)
(1.56809e-07 0 -0.000999606)
(1.48284e-07 0 -0.000999633)
(1.39765e-07 0 -0.00099966)
(1.31364e-07 0 -0.000999685)
(1.23162e-07 0 -0.000999708)
(1.15225e-07 0 -0.000999731)
(1.07596e-07 0 -0.000999752)
(1.00309e-07 0 -0.000999771)
(9.33843e-08 0 -0.00099979)
(8.68331e-08 0 -0.000999807)
(8.06611e-08 0 -0.000999823)
(7.48682e-08 0 -0.000999838)
(6.9451e-08 0 -0.000999852)
(6.44031e-08 0 -0.000999865)
(5.97163e-08 0 -0.000999877)
(5.53815e-08 0 -0.000999888)
(5.1389e-08 0 -0.000999899)
(4.77287e-08 0 -0.000999909)
(4.43905e-08 0 -0.000999918)
(4.13647e-08 0 -0.000999927)
(3.86418e-08 0 -0.000999935)
(3.62134e-08 0 -0.000999943)
(3.40733e-08 0 -0.00099995)
(3.22235e-08 0 -0.000999957)
(3.06745e-08 0 -0.000999964)
(2.95103e-08 0 -0.000999971)
(2.89151e-08 0 -0.000999977)
(0 1.77974e-08 -0.00100008)
(0 2.206e-08 -0.00100008)
(0 2.92975e-08 -0.00100009)
(0 3.84636e-08 -0.00100009)
(0 4.88775e-08 -0.00100009)
(0 6.01909e-08 -0.0010001)
(0 7.22917e-08 -0.00100011)
(0 8.52035e-08 -0.00100012)
(0 9.90199e-08 -0.00100012)
(0 1.1387e-07 -0.00100014)
(0 1.29903e-07 -0.00100015)
(0 1.47284e-07 -0.00100016)
(0 1.66194e-07 -0.00100018)
(0 1.8683e-07 -0.0010002)
(0 2.09409e-07 -0.00100022)
(0 2.34167e-07 -0.00100024)
(0 2.61366e-07 -0.00100027)
(0 2.91295e-07 -0.00100029)
(0 3.24273e-07 -0.00100033)
(0 3.60655e-07 -0.00100036)
(0 4.00832e-07 -0.0010004)
(0 4.45242e-07 -0.00100045)
(0 4.94366e-07 -0.0010005)
(0 5.48741e-07 -0.00100055)
(0 6.08964e-07 -0.00100061)
(0 6.75696e-07 -0.00100068)
(0 7.49672e-07 -0.00100076)
(0 8.31709e-07 -0.00100084)
(0 9.22715e-07 -0.00100093)
(0 1.0237e-06 -0.00100104)
(0 1.13579e-06 -0.00100115)
(0 1.26022e-06 -0.00100128)
(0 1.3984e-06 -0.00100143)
(0 1.55186e-06 -0.00100159)
(0 1.72233e-06 -0.00100177)
(0 1.91173e-06 -0.00100197)
(0 2.1222e-06 -0.00100219)
(0 2.35612e-06 -0.00100243)
(0 2.61615e-06 -0.00100271)
(0 2.90527e-06 -0.00100301)
(0 3.2268e-06 -0.00100335)
(0 3.58442e-06 -0.00100373)
(0 3.9823e-06 -0.00100416)
(0 4.42504e-06 -0.00100463)
(0 4.91783e-06 -0.00100516)
(0 5.46644e-06 -0.00100574)
(0 6.07733e-06 -0.0010064)
(0 6.75776e-06 -0.00100713)
(0 7.51582e-06 -0.00100795)
(0 8.36058e-06 -0.00100887)
(0 9.30219e-06 -0.0010099)
(0 1.0352e-05 -0.00101104)
(0 1.15229e-05 -0.00101232)
(0 1.28289e-05 -0.00101376)
(0 1.42863e-05 -0.00101536)
(0 1.59129e-05 -0.00101716)
(0 1.77289e-05 -0.00101917)
(0 1.9757e-05 -0.00102142)
(0 2.20225e-05 -0.00102395)
(0 2.45539e-05 -0.00102678)
(0 2.73834e-05 -0.00102995)
(0 3.0547e-05 -0.00103351)
(0 3.40851e-05 -0.0010375)
(0 3.80435e-05 -0.00104198)
(0 4.24733e-05 -0.00104701)
(0 4.74323e-05 -0.00105266)
(0 5.29856e-05 -0.00105901)
(0 5.92062e-05 -0.00106614)
(0 6.61758e-05 -0.00107416)
(0 7.39835e-05 -0.00108317)
(0 8.27206e-05 -0.00109331)
(0 9.24592e-05 -0.00110471)
(0 0.000103192 -0.00111746)
(0 0.000114679 -0.00113155)
(0 0.000126132 -0.0011475)
(0 0.000135714 -0.00116752)
(0 0.000139938 -0.00119254)
(0 0.000133612 -0.00120119)
(0 0.000109214 -0.00113861)
(0 6.01453e-05 -0.000925914)
(0 -1.62926e-05 -0.00342895)
(0 2.39988e-06 -0.000189798)
(0 5.47187e-05 -0.00399612)
(0 7.0686e-06 -0.000486724)
(0 -0.000150483 -0.00362158)
(0 1.03209e-05 -0.000334505)
(0 -0.000387731 -0.00383706)
(0 -0.000197544 -0.00422406)
(0 5.94702e-05 -0.000988232)
(0 0.000398564 -0.00478825)
(0 0.000120804 -0.00132715)
(0 -0.00033778 -0.00378867)
(0 1.51535e-05 -0.000200304)
(0 -0.00019969 -0.00474582)
(0 -0.000170716 -0.00274506)
(0 -8.46677e-05 -0.0024763)
(0 -6.3283e-05 -0.00371882)
(0 -5.94427e-05 -0.0026803)
(0 2.846e-05 -0.00246202)
(0 -5.50249e-05 -0.00394165)
(0 -5.73608e-05 -0.00180904)
(0 -9.23033e-05 -0.00349547)
(0 -0.000134969 -0.00279411)
(0 7.21442e-06 -0.00113702)
(0 -4.8837e-06 -0.0018571)
(0 -4.19037e-05 -0.00106758)
(0 -6.19933e-05 -0.00108062)
(0 -6.67498e-05 -0.00109941)
(0 -6.38052e-05 -0.00109229)
(0 -5.76737e-05 -0.00107714)
(0 -5.06338e-05 -0.00106423)
(0 -4.37604e-05 -0.00105402)
(0 -3.75101e-05 -0.00104548)
(0 -3.20144e-05 -0.00103815)
(0 -2.7255e-05 -0.00103189)
(0 -2.31597e-05 -0.00102656)
(0 -1.9646e-05 -0.00102204)
(0 -1.66361e-05 -0.00101821)
(0 -1.40607e-05 -0.00101497)
(0 -1.18595e-05 -0.00101223)
(0 -9.98021e-06 -0.00100993)
(0 -8.37761e-06 -0.00100799)
(0 -7.01266e-06 -0.00100637)
(0 -5.85169e-06 -0.00100501)
(0 -4.86564e-06 -0.00100388)
(0 -4.02951e-06 -0.00100295)
(0 -3.32171e-06 -0.00100217)
(0 -2.72367e-06 -0.00100154)
(0 -2.21943e-06 -0.00100102)
(0 -1.79524e-06 -0.00100059)
(0 -1.43931e-06 -0.00100025)
(0 -1.14156e-06 -0.000999983)
(0 -8.9328e-07 -0.00099977)
(0 -6.86973e-07 -0.000999605)
(0 -5.16228e-07 -0.000999481)
(0 -3.75605e-07 -0.000999388)
(0 -2.60519e-07 -0.000999322)
(0 -1.6697e-07 -0.000999278)
(0 -9.15072e-08 -0.000999254)
(0 -3.11677e-08 -0.000999245)
(0 1.66781e-08 -0.000999249)
(0 5.41535e-08 -0.000999261)
(0 8.30014e-08 -0.00099928)
(0 1.04662e-07 -0.000999303)
(0 1.2038e-07 -0.000999329)
(0 1.31217e-07 -0.000999358)
(0 1.38081e-07 -0.000999388)
(0 1.41737e-07 -0.00099942)
(0 1.42832e-07 -0.000999452)
(0 1.41905e-07 -0.000999484)
(0 1.39408e-07 -0.000999516)
(0 1.35714e-07 -0.000999547)
(0 1.31133e-07 -0.000999577)
(0 1.25917e-07 -0.000999606)
(0 1.20272e-07 -0.000999633)
(0 1.14367e-07 -0.00099966)
(0 1.08333e-07 -0.000999685)
(0 1.02277e-07 -0.000999708)
(0 9.62827e-08 -0.000999731)
(0 9.04126e-08 -0.000999752)
(0 8.47153e-08 -0.000999771)
(0 7.92264e-08 -0.00099979)
(0 7.39716e-08 -0.000999807)
(0 6.89684e-08 -0.000999823)
(0 6.42279e-08 -0.000999838)
(0 5.97567e-08 -0.000999852)
(0 5.55577e-08 -0.000999865)
(0 5.16309e-08 -0.000999877)
(0 4.79746e-08 -0.000999888)
(0 4.45856e-08 -0.000999899)
(0 4.14598e-08 -0.000999909)
(0 3.85926e-08 -0.000999918)
(0 3.59786e-08 -0.000999927)
(0 3.36126e-08 -0.000999935)
(0 3.14896e-08 -0.000999943)
(0 2.9607e-08 -0.00099995)
(0 2.79706e-08 -0.000999957)
(0 2.65951e-08 -0.000999964)
(0 2.55637e-08 -0.000999971)
(0 2.50439e-08 -0.000999977)
)
;
    }
    procBoundary0to1
    {
        type            processor;
        value           nonuniform List<vector> 
180
(
(-3.3413e-11 1.64783e-08 -0.00100008)
(-2.74614e-11 2.02491e-08 -0.00100008)
(-1.19135e-11 2.67403e-08 -0.00100009)
(2.53085e-11 3.49938e-08 -0.00100009)
(8.29725e-11 4.43689e-08 -0.00100009)
(1.59297e-10 5.45331e-08 -0.0010001)
(2.58699e-10 6.53683e-08 -0.0010001)
(3.87482e-10 7.68828e-08 -0.00100011)
(5.5276e-10 8.91489e-08 -0.00100012)
(7.62146e-10 1.0227e-07 -0.00100013)
(1.02419e-09 1.16367e-07 -0.00100014)
(1.34887e-09 1.31571e-07 -0.00100016)
(1.74807e-09 1.48024e-07 -0.00100017)
(2.23501e-09 1.65882e-07 -0.00100019)
(2.82481e-09 1.8531e-07 -0.0010002)
(3.53565e-09 2.06488e-07 -0.00100022)
(4.38938e-09 2.2961e-07 -0.00100025)
(5.41275e-09 2.54885e-07 -0.00100027)
(6.63813e-09 2.82542e-07 -0.0010003)
(8.10427e-09 3.12827e-07 -0.00100033)
(9.85726e-09 3.46005e-07 -0.00100036)
(1.19516e-08 3.82367e-07 -0.0010004)
(1.44513e-08 4.22226e-07 -0.00100044)
(1.74314e-08 4.65925e-07 -0.00100048)
(2.09793e-08 5.13835e-07 -0.00100053)
(2.5197e-08 5.66359e-07 -0.00100059)
(3.02024e-08 6.23936e-07 -0.00100064)
(3.61322e-08 6.87042e-07 -0.00100071)
(4.31446e-08 7.56195e-07 -0.00100078)
(5.1422e-08 8.31959e-07 -0.00100085)
(6.11754e-08 9.14943e-07 -0.00100094)
(7.26481e-08 1.00581e-06 -0.00100103)
(8.61213e-08 1.10528e-06 -0.00100113)
(1.0192e-07 1.21412e-06 -0.00100124)
(1.20418e-07 1.33318e-06 -0.00100135)
(1.4205e-07 1.46335e-06 -0.00100148)
(1.67318e-07 1.60562e-06 -0.00100162)
(1.96801e-07 1.76102e-06 -0.00100177)
(2.3117e-07 1.93067e-06 -0.00100194)
(2.71201e-07 2.11578e-06 -0.00100212)
(3.17793e-07 2.31761e-06 -0.00100231)
(3.71986e-07 2.53752e-06 -0.00100252)
(4.34981e-07 2.77695e-06 -0.00100275)
(5.08168e-07 3.03741e-06 -0.001003)
(5.93157e-07 3.3205e-06 -0.00100326)
(6.91805e-07 3.62789e-06 -0.00100355)
(8.06258e-07 3.96129e-06 -0.00100385)
(9.38997e-07 4.32251e-06 -0.00100418)
(1.09288e-06 4.71337e-06 -0.00100453)
(1.27122e-06 5.13576e-06 -0.0010049)
(1.47782e-06 5.59153e-06 -0.00100529)
(1.71708e-06 6.08255e-06 -0.00100571)
(1.99407e-06 6.61063e-06 -0.00100615)
(2.31462e-06 7.17749e-06 -0.00100662)
(2.68546e-06 7.7847e-06 -0.0010071)
(3.11436e-06 8.43364e-06 -0.0010076)
(3.61024e-06 9.12541e-06 -0.00100812)
(4.18338e-06 9.86072e-06 -0.00100866)
(4.84563e-06 1.06398e-05 -0.0010092)
(5.61062e-06 1.14624e-05 -0.00100974)
(6.49403e-06 1.23272e-05 -0.00101027)
(7.51392e-06 1.32323e-05 -0.00101079)
(8.69104e-06 1.41743e-05 -0.00101128)
(1.00493e-05 1.51486e-05 -0.00101172)
(1.16161e-05 1.61487e-05 -0.00101211)
(1.34229e-05 1.7166e-05 -0.0010124)
(1.55061e-05 1.81897e-05 -0.00101259)
(1.79072e-05 1.92055e-05 -0.00101262)
(2.06735e-05 2.01956e-05 -0.00101248)
(2.38586e-05 2.11376e-05 -0.0010121)
(2.75206e-05 2.20019e-05 -0.00101145)
(3.17154e-05 2.27478e-05 -0.00101046)
(3.64759e-05 2.33128e-05 -0.00100898)
(4.17547e-05 2.35892e-05 -0.00100686)
(4.72987e-05 2.33825e-05 -0.00100446)
(5.24337e-05 2.23652e-05 -0.00100358)
(5.5737e-05 2.01568e-05 -0.00100455)
(5.52575e-05 1.65376e-05 -0.000989497)
(4.79082e-05 1.18485e-05 -0.000915819)
(3.07621e-05 6.03232e-06 -0.000726105)
(4.5586e-07 -1.39588e-05 -0.00293318)
(-1.57502e-06 9.16263e-06 -0.000178405)
(-0.000207476 0.000285855 -0.00350228)
(-8.97188e-05 0.000135361 -0.00251748)
(-5.24626e-05 2.47214e-05 -0.00100413)
(-0.000336526 0.000160945 -0.0040665)
(-4.05515e-05 1.38455e-05 -0.00037191)
(-0.000869037 -0.000360268 -0.00382523)
(-8.95598e-06 -5.05515e-05 -0.000481111)
(0.000703448 -0.00082616 -0.00395743)
(2.12926e-05 -6.38955e-05 -0.000384422)
(0.00055574 -0.000448656 -0.0037786)
(0.00018476 -0.000205172 -0.00138606)
(0.000332485 -0.000619086 -0.00470559)
(3.20311e-05 -1.77693e-05 -0.000506168)
(0.000127056 -0.000307957 -0.00296004)
(0.000391127 -0.000574929 -0.00242192)
(1.85742e-05 -6.47314e-05 -0.000117609)
(2.53731e-05 -0.000112236 -0.00454594)
(3.08105e-05 1.45761e-06 -0.000634289)
(-0.00017708 0.000190646 -0.00255992)
(-9.33707e-05 0.000142849 -0.00122724)
(-0.00015749 -1.07926e-05 -0.00125918)
(-9.20025e-05 1.54342e-06 -0.00101857)
(-3.76132e-05 4.43811e-05 -0.000919773)
(-6.3545e-05 8.89181e-05 -0.000855928)
(-7.45018e-05 0.000111226 -0.000826743)
(-7.28697e-05 0.000116006 -0.000840358)
(-6.61237e-05 0.000110782 -0.000862813)
(-5.80655e-05 0.000101122 -0.000881608)
(-5.01482e-05 9.02558e-05 -0.000897054)
(-4.29225e-05 7.97327e-05 -0.000910446)
(-3.65607e-05 7.01401e-05 -0.000922212)
(-3.10553e-05 6.16119e-05 -0.000932483)
(-2.63262e-05 5.41036e-05 -0.000941407)
(-2.22761e-05 4.75157e-05 -0.000949154)
(-1.88129e-05 4.17409e-05 -0.00095588)
(-1.58548e-05 3.66794e-05 -0.00096172)
(-1.33309e-05 3.22421e-05 -0.00096679)
(-1.11799e-05 2.83511e-05 -0.000971192)
(-9.34899e-06 2.49381e-05 -0.000975012)
(-7.79261e-06 2.19435e-05 -0.000978329)
(-6.47154e-06 1.93153e-05 -0.000981207)
(-5.35198e-06 1.70078e-05 -0.000983705)
(-4.40487e-06 1.49813e-05 -0.000985872)
(-3.60521e-06 1.3201e-05 -0.000987753)
(-2.93149e-06 1.16366e-05 -0.000989385)
(-2.36521e-06 1.02613e-05 -0.0009908)
(-1.89049e-06 9.05203e-06 -0.000992028)
(-1.49369e-06 7.98826e-06 -0.000993093)
(-1.16316e-06 7.05222e-06 -0.000994017)
(-8.88957e-07 6.22834e-06 -0.000994818)
(-6.62477e-07 5.50294e-06 -0.000995512)
(-4.76298e-07 4.86398e-06 -0.000996114)
(-3.24083e-07 4.30094e-06 -0.000996635)
(-2.00521e-07 3.80465e-06 -0.000997087)
(-1.01189e-07 3.3671e-06 -0.000997479)
(-2.21296e-08 2.98119e-06 -0.000997818)
(4.01221e-08 2.64061e-06 -0.00099811)
(8.84836e-08 2.33989e-06 -0.000998363)
(1.25441e-07 2.07423e-06 -0.000998581)
(1.53024e-07 1.83943e-06 -0.00099877)
(1.72856e-07 1.63186e-06 -0.000998934)
(1.86298e-07 1.4483e-06 -0.000999076)
(1.94525e-07 1.28592e-06 -0.0009992)
(1.9854e-07 1.14222e-06 -0.000999307)
(1.99195e-07 1.015e-06 -0.0009994)
(1.97203e-07 9.02327e-07 -0.00099948)
(1.93162e-07 8.02494e-07 -0.000999549)
(1.87566e-07 7.13999e-07 -0.000999609)
(1.80827e-07 6.35521e-07 -0.000999661)
(1.7328e-07 5.65897e-07 -0.000999706)
(1.652e-07 5.04102e-07 -0.000999745)
(1.56809e-07 4.49235e-07 -0.000999778)
(1.48284e-07 4.005e-07 -0.000999807)
(1.39765e-07 3.57199e-07 -0.000999833)
(1.31363e-07 3.18713e-07 -0.000999854)
(1.23162e-07 2.84499e-07 -0.000999873)
(1.15225e-07 2.54078e-07 -0.00099989)
(1.07596e-07 2.27027e-07 -0.000999904)
(1.00309e-07 2.02971e-07 -0.000999917)
(9.33842e-08 1.8158e-07 -0.000999927)
(8.68331e-08 1.62563e-07 -0.000999937)
(8.0661e-08 1.45661e-07 -0.000999945)
(7.48682e-08 1.30644e-07 -0.000999952)
(6.9451e-08 1.1731e-07 -0.000999959)
(6.4403e-08 1.05478e-07 -0.000999964)
(5.97163e-08 9.4988e-08 -0.000999969)
(5.53815e-08 8.56974e-08 -0.000999973)
(5.1389e-08 7.74794e-08 -0.000999977)
(4.77286e-08 7.02217e-08 -0.00099998)
(4.43905e-08 6.38245e-08 -0.000999983)
(4.13647e-08 5.81993e-08 -0.000999985)
(3.86418e-08 5.32684e-08 -0.000999988)
(3.62133e-08 4.89642e-08 -0.000999989)
(3.40733e-08 4.52296e-08 -0.000999991)
(3.22235e-08 4.20234e-08 -0.000999992)
(3.06744e-08 3.93573e-08 -0.000999994)
(2.95103e-08 3.73163e-08 -0.000999995)
(2.89151e-08 3.61504e-08 -0.000999996)
)
;
    }
    procBoundary0to2
    {
        type            processor;
        value           nonuniform List<vector> 
180
(
(-1.35259e-09 1.77973e-08 -0.000999875)
(-1.83841e-09 2.20599e-08 -0.000999873)
(-2.56901e-09 2.92973e-08 -0.00099987)
(-3.44451e-09 3.84634e-08 -0.000999866)
(-4.42561e-09 4.88772e-08 -0.000999861)
(-5.49851e-09 6.01906e-08 -0.000999855)
(-6.66471e-09 7.22914e-08 -0.000999848)
(-7.93321e-09 8.52032e-08 -0.000999839)
(-9.31823e-09 9.90195e-08 -0.000999829)
(-1.08375e-08 1.13869e-07 -0.000999817)
(-1.25118e-08 1.29902e-07 -0.000999804)
(-1.43642e-08 1.47283e-07 -0.000999788)
(-1.64214e-08 1.66193e-07 -0.000999771)
(-1.87132e-08 1.8683e-07 -0.000999751)
(-2.12742e-08 2.09408e-07 -0.000999729)
(-2.41437e-08 2.34166e-07 -0.000999704)
(-2.7367e-08 2.61364e-07 -0.000999676)
(-3.09964e-08 2.91293e-07 -0.000999645)
(-3.5092e-08 3.2427e-07 -0.000999611)
(-3.97232e-08 3.60652e-07 -0.000999572)
(-4.49695e-08 4.00829e-07 -0.000999529)
(-5.09225e-08 4.45237e-07 -0.000999481)
(-5.76869e-08 4.9436e-07 -0.000999427)
(-6.53827e-08 5.48734e-07 -0.000999367)
(-7.41472e-08 6.08955e-07 -0.000999301)
(-8.41367e-08 6.75685e-07 -0.000999227)
(-9.55299e-08 7.49658e-07 -0.000999144)
(-1.0853e-07 8.31692e-07 -0.000999053)
(-1.2337e-07 9.22694e-07 -0.000998951)
(-1.40312e-07 1.02367e-06 -0.000998837)
(-1.59658e-07 1.13575e-06 -0.000998711)
(-1.81752e-07 1.26018e-06 -0.00099857)
(-2.06983e-07 1.39835e-06 -0.000998414)
(-2.35799e-07 1.5518e-06 -0.00099824)
(-2.68708e-07 1.72225e-06 -0.000998047)
(-3.06292e-07 1.91163e-06 -0.000997831)
(-3.49216e-07 2.12208e-06 -0.000997592)
(-3.98242e-07 2.35597e-06 -0.000997325)
(-4.54239e-07 2.61597e-06 -0.000997028)
(-5.18204e-07 2.90505e-06 -0.000996697)
(-5.91278e-07 3.22652e-06 -0.000996329)
(-6.7477e-07 3.58408e-06 -0.000995918)
(-7.70176e-07 3.98186e-06 -0.00099546)
(-8.79213e-07 4.4245e-06 -0.00099495)
(-1.00385e-06 4.91715e-06 -0.000994381)
(-1.14634e-06 5.46559e-06 -0.000993747)
(-1.30927e-06 6.07628e-06 -0.000993039)
(-1.49559e-06 6.75644e-06 -0.000992249)
(-1.70871e-06 7.51417e-06 -0.000991367)
(-1.9525e-06 8.35851e-06 -0.000990383)
(-2.23142e-06 9.2996e-06 -0.000989283)
(-2.55058e-06 1.03488e-05 -0.000988055)
(-2.91582e-06 1.15188e-05 -0.000986682)
(-3.33383e-06 1.28238e-05 -0.000985148)
(-3.81228e-06 1.42799e-05 -0.000983432)
(-4.35996e-06 1.59048e-05 -0.000981514)
(-4.98693e-06 1.77188e-05 -0.000979367)
(-5.70471e-06 1.97442e-05 -0.000976966)
(-6.52649e-06 2.20063e-05 -0.000974277)
(-7.46741e-06 2.45335e-05 -0.000971267)
(-8.54477e-06 2.73576e-05 -0.000967896)
(-9.7784e-06 3.05144e-05 -0.00096412)
(-1.1191e-05 3.40438e-05 -0.000959888)
(-1.28086e-05 3.79912e-05 -0.000955143)
(-1.46609e-05 4.2407e-05 -0.000949823)
(-1.6782e-05 4.73482e-05 -0.000943856)
(-1.92108e-05 5.28787e-05 -0.00093716)
(-2.19917e-05 5.90702e-05 -0.000929646)
(-2.51754e-05 6.60025e-05 -0.000921209)
(-2.8818e-05 7.37624e-05 -0.000911736)
(-3.29793e-05 8.24376e-05 -0.000901101)
(-3.77131e-05 9.20957e-05 -0.000889154)
(-4.30386e-05 0.000102724 -0.000875697)
(-4.88721e-05 0.000114082 -0.000860522)
(-5.48883e-05 0.000125394 -0.000843819)
(-6.02936e-05 0.00013487 -0.000826952)
(-6.34883e-05 0.000139175 -0.000811078)
(-6.15402e-05 0.000133095 -0.000785957)
(-4.98316e-05 0.000109353 -0.000724446)
(-2.39027e-05 6.04117e-05 -0.000547338)
(3.37532e-06 -1.736e-05 -0.00207013)
(7.16855e-06 -1.98878e-06 -0.000200475)
(6.22646e-05 2.35539e-05 -0.0025145)
(-1.32552e-05 -6.83493e-06 -0.0001947)
(-0.000109521 -2.76358e-05 -0.00253254)
(-3.64381e-05 1.30566e-05 -0.000311739)
(-0.000159951 -0.000194949 -0.00283006)
(-0.000195514 -0.000160419 -0.00135873)
(-0.000401053 0.00020826 -0.00240221)
(-4.41886e-05 -5.1882e-05 -0.00033492)
(-0.000103548 0.000147684 -0.00453382)
(3.17183e-05 -5.63231e-05 -0.00101992)
(0.000106722 -0.000197931 -0.00231381)
(-0.000225062 -0.000169621 -0.00293073)
(6.81464e-05 -1.93716e-06 -2.3424e-05)
(-9.23197e-05 -0.000211022 -0.00349214)
(-9.9683e-06 -3.10176e-06 -0.000702536)
(-1.2534e-05 -6.69957e-05 -0.00202675)
(-0.000217332 3.47528e-05 -0.00262253)
(-3.43799e-05 2.562e-05 -7.00619e-05)
(0.000115749 -0.000151414 -0.00295407)
(0.000101401 -9.33648e-05 -0.00102887)
(3.43808e-05 -0.000260561 -0.00121259)
(8.6152e-05 -0.000265573 -0.000884803)
(9.81812e-05 -0.000126095 -0.000777756)
(0.000124661 -0.000110219 -0.000826236)
(0.00013229 -9.70879e-05 -0.000823686)
(0.000127555 -8.34102e-05 -0.000840559)
(0.000116837 -7.10964e-05 -0.000861222)
(0.000104383 -6.06818e-05 -0.000879603)
(9.22521e-05 -5.18436e-05 -0.000895245)
(8.11927e-05 -4.42629e-05 -0.000908799)