/*--------------------------------*- C++ -*----------------------------------*\
| =========                 |                                                 |
| \\      /  F ield         | OpenFOAM: The Open Source CFD Toolbox           |
|  \\    /   O peration     | Version:  5.x                                   |
|   \\  /    A nd           | Web:      www.OpenFOAM.org                      |
|    \\/     M anipulation  |                                                 |
\*---------------------------------------------------------------------------*/
FoamFile
{
    version     2.0;
    format      ascii;
    class       surfaceScalarField;
    location    "1000";
    object      phi;
}
// * * * * * * * * * * * * * * * * * * * * * * * * * * * * * * * * * * * * * //

dimensions      [0 3 -1 0 0 0 0];

internalField   nonuniform List<scalar> 
179
(
-249.989
-249.989
-249.988
-249.988
-249.987
-249.986
-249.985
-249.983
-249.982
-249.98
-249.978
-249.975
-249.972
-249.969
-249.966
-249.962
-249.957
-249.952
-249.946
-249.94
-249.933
-249.925
-249.916
-249.906
-249.894
-249.882
-249.868
-249.852
-249.834
-249.814
-249.791
-249.766
-249.738
-249.706
-249.67
-249.63
-249.585
-249.534
-249.477
-249.413
-249.341
-249.26
-249.169
-249.067
-248.952
-248.823
-248.677
-248.513
-248.328
-248.121
-247.887
-247.623
-247.325
-246.99
-246.612
-246.186
-245.705
-245.163
-244.55
-243.859
-243.078
-242.196
-241.199
-240.072
-238.798
-237.358
-235.729
-233.886
-231.8
-229.439
-226.766
-223.739
-220.311
-216.428
-212.028
-207.043
-201.393
-195.008
-187.968
-181.173
-179.816
-179.697
-174.75
-174.243
-174.454
-174.432
-178.341
-177.546
-169.735
-167.692
-166.299
-174.053
-177.604
-180.939
-184.569
-187.773
-189.842
-192.35
-191.592
-192.212
-199.198
-202.914
-208.476
-213.455
-217.646
-222.165
-226.205
-229.68
-232.649
-235.184
-237.348
-239.196
-240.773
-242.119
-243.268
-244.248
-245.085
-245.799
-246.409
-246.929
-247.373
-247.752
-248.075
-248.352
-248.588
-248.789
-248.961
-249.108
-249.234
-249.342
-249.434
-249.513
-249.581
-249.639
-249.688
-249.731
-249.767
-249.799
-249.826
-249.849
-249.869
-249.886
-249.901
-249.914
-249.925
-249.934
-249.942
-249.95
-249.956
-249.961
-249.966
-249.97
-249.973
-249.976
-249.979
-249.981
-249.984
-249.985
-249.987
-249.988
-249.99
-249.991
-249.992
-249.993
-249.994
-249.994
-249.995
-249.995
-249.996
-249.996
-249.997
-249.997
-249.998
-249.998
-249.998
-249.999
-249.999
-249.999
-250
)
;

boundaryField
{
    inlet
    {
        type            calculated;
        value           uniform -250;
    }
    outlet
    {
        type            calculated;
        value           uniform 249.989;
    }
    repeat_boundary
    {
        type            calculated;
        value           uniform 0;
    }
    procBoundary2to0
    {
        type            processor;
        value           nonuniform List<scalar> 
180
(
-8.24378e-05
-0.000189462
-0.00031466
-0.000445776
-0.000582973
-0.000727871
-0.000882352
-0.00104843
-0.00122826
-0.00142417
-0.0016387
-0.00187459
-0.0021349
-0.00242295
-0.00274243
-0.00309745
-0.00349254
-0.00393278
-0.00442382
-0.00497196
-0.00558426
-0.00626861
-0.00703385
-0.0078899
-0.00884787
-0.00992023
-0.011121
-0.0124658
-0.0139724
-0.0156605
-0.0175524
-0.0196731
-0.0220508
-0.024717
-0.0277072
-0.0310614
-0.0348244
-0.0390467
-0.0437851
-0.0491034
-0.0550736
-0.0617766
-0.0693033
-0.0777566
-0.0872518
-0.0979194
-0.109906
-0.123377
-0.13852
-0.155546
-0.174692
-0.196227
-0.220454
-0.247714
-0.278386
-0.312907
-0.351765
-0.395515
-0.444791
-0.50031
-0.562862
-0.633357
-0.712822
-0.802419
-0.903461
-1.01743
-1.14602
-1.29111
-1.45485
-1.63968
-1.84834
-2.08394
-2.34997
-2.65041
-2.9897
-3.37299
-3.80575
-4.2843
-4.7205
-4.56592
-0.821986
0.0130523
-4.4025
-0.237813
2.11721
0.455811
4.77589
3.1164
-1.35543
-1.66628
-0.665837
4.84163
2.0092
4.4257
2.02294
2.48636
1.09747
1.59814
0.493625
0.89025
1.54258
1.4659
2.81903
1.42414
1.37622
2.01885
1.9113
1.6602
1.42268
1.21804
1.04308
0.893388
0.765278
0.655646
0.561833
0.481555
0.412859
0.35407
0.303755
0.260688
0.22382
0.192252
0.165217
0.142058
0.122214
0.105204
0.0906184
0.0781075
0.0673713
0.0581542
0.0502373
0.0434338
0.0375836
0.0325504
0.0282173
0.0244845
0.0212665
0.0184902
0.0160928
0.0140209
0.0122286
0.0106769
0.00933208
0.0081654
0.00715224
0.00627148
0.00550501
0.00483732
0.00425503
0.00374672
0.00330258
0.00291418
0.00257426
0.00227658
0.00201573
0.00178701
0.00158637
0.00141026
0.00125558
0.00111964
0.00100008
0.000894882
0.000802271
0.000720689
0.000648768
0.000585306
0.000529257
0.000479714
0.000435899
0.000397159
0.000362961
0.000332865
0.000306529
0.000283692
0.000264157
0.000247781
0.000234505
0.000224634
0.000217624
0.000218277
)
;
    }
    procBoundary2to3
    {
        type            processor;
        value           nonuniform List<scalar> 
180
(
-2.16853e-05
-4.80806e-05
-7.98959e-05
-0.000113435
-0.000148714
-0.000186174
-0.000226344
-0.000269791
-0.000317121
-0.000368989
-0.000426105
-0.000489252
-0.000559288
-0.000637167
-0.000723951
-0.000820827
-0.000929123
-0.00105034
-0.00118615
-0.00133845
-0.0015094
-0.00170141
-0.00191725
-0.00216003
-0.0024333
-0.00274109
-0.00308799
-0.00347921
-0.0039207
-0.00441921
-0.00498245
-0.0056192
-0.00633945
-0.00715459
-0.0080776
-0.00912327
-0.0103085
-0.0116524
-0.0131771
-0.0149074
-0.016872
-0.0191034
-0.021639
-0.0245212
-0.0277986
-0.0315269
-0.0357697
-0.0405998
-0.0461005
-0.0523672
-0.0595092
-0.0676517
-0.0769382
-0.0875332
-0.099625
-0.113429
-0.129194
-0.147202
-0.167778
-0.191294
-0.218178
-0.248916
-0.28407
-0.324281
-0.370282
-0.422914
-0.483139
-0.552057
-0.630928
-0.721189
-0.824485
-0.942695
-1.07796
-1.23272
-1.40976
-1.61246
-1.84444
-2.10056
-2.31947
-2.22825
-0.535596
-0.131865
-0.544099
-0.269178
-1.90631
-0.478169
-0.866925
-3.91184
-6.45531
-0.376904
-0.72697
2.91283
1.54089
-1.09019
1.6071
0.717988
0.970454
0.909829
-1.25114
-0.269891
5.44315
2.25006
2.74306
3.55388
2.81594
2.50017
2.12911
1.81544
1.54691
1.31734
1.12148
0.954441
0.812013
0.690609
0.587159
0.499038
0.424001
0.360126
0.305771
0.259534
0.220215
0.186791
0.158387
0.134259
0.113769
0.0963764
0.0816173
0.0690967
0.0584787
0.0494778
0.0418505
0.0353892
0.0299173
0.0252848
0.0213639
0.0180494
0.01525
0.0128867
0.0108926
0.0092104
0.00779173
0.00659527
0.0055856
0.00473243
0.00400985
0.00339707
0.00287739
0.00243664
0.00206278
0.00174565
0.00147664
0.00124849
0.00105503
0.000891014
0.000751995
0.000634704
0.00053627
0.000453953
0.000385252
0.000327925
0.000279975
0.000239632
0.000205357
0.000175857
0.000150115
0.000127427
0.000107393
8.98669e-05
7.48355e-05
6.22905e-05
5.21075e-05
4.39996e-05
3.7608e-05
3.25742e-05
2.85897e-05
2.54241e-05
2.29132e-05
2.11981e-05
1.99802e-05
2.08347e-05
)
;
    }
}


// ************************************************************************* //
