FoamFile
{version 2.0; format ascii;class Cloud<passiveParticle>; location 0;object  positions;}
353
(
( 3.01991 0.883543 0.499627 ) 0 
( 2.56368 3.50508 0.499959 ) 0 
( 1.21804 2.22334 0.499976 ) 0 
( 0.28724 2.58888 0.499976 ) 0 
( 0.155048 0.348602 0.499475 ) 0 
( 1.15432 0.377892 0.499732 ) 0 
( 4.62649 2.15781 0.499829 ) 0 
( 4.70901 3.97873 0.49983 ) 0 
( 0.84385 4.34877 0.499575 ) 0 
( 4.05887 2.98427 0.499976 ) 0 
( 1.56241 3.40942 0.499648 ) 0 
( 4.50611 0.736725 0.499678 ) 0 
( 3.11674 2.35722 0.499523 ) 0 
( 2.33593 1.61405 0.499648 ) 0 
( 0.479987 1.30556 0.499783 ) 0 
( 2.14578 2.59658 0.499975 ) 0 
( 2.44623 4.49827 0.499906 ) 0 
( 0.0744967 1.8921 1.20055 ) 0 
( 1.04476 4.31603 1.47821 ) 0 
( 3.66735 3.91072 0.499976 ) 0 
( 3.27034 3.11684 1.13087 ) 0 
( 3.84096 2.27726 1.18398 ) 0 
( 0.707164 3.49974 1.00959 ) 0 
( 3.81858 1.54875 0.499733 ) 0 
( 2.10789 0.554002 0.742844 ) 0 
( 4.20084 4.85143 0.499486 ) 0 
( 0.0178921 0.901074 1.32106 ) 0 
( 3.69752 0.148521 0.499734 ) 0 
( 1.93923 3.91924 1.27267 ) 0 
( 1.4357 1.29218 0.792466 ) 0 
( 0.660994 0.13561 1.33497 ) 0 
( 4.52609 1.45037 1.1994 ) 0 
( 1.21392 1.92947 1.53007 ) 0 
( 3.71889 0.856165 1.2138 ) 0 
( 2.21379 2.09929 1.36498 ) 0 
( 4.72836 4.94093 1.34368 ) 0 
( 0.193508 4.6796 1.85578 ) 0 
( 2.94022 4.05337 1.24663 ) 0 
( 1.55164 2.84827 1.32698 ) 0 
( 1.95357 4.9069 1.42674 ) 0 
( 3.0748 1.62005 1.17336 ) 0 
( 4.274 3.55372 1.29335 ) 0 
( 1.43548 0.648661 1.70436 ) 0 
( 0.559701 2.6846 1.56931 ) 0 
( 3.06277 2.39949 1.79938 ) 0 
( 2.30429 1.12604 1.57534 ) 0 
( 3.84924 4.45718 1.34819 ) 0 
( 4.33259 0.478565 1.90664 ) 0 
( 1.83971 2.39613 2.24317 ) 0 
( 2.55841 4.32647 2.12944 ) 0 
( 1.07107 3.44531 1.96895 ) 0 
( 4.74398 2.67307 1.34853 ) 0 
( 2.87544 0.335593 1.34486 ) 0 
( 0.590924 1.32278 2.02366 ) 0 
( 2.42051 3.16044 1.71081 ) 0 
( 4.14092 1.69795 2.08805 ) 0 
( 0.39839 3.95082 2.509 ) 0 
( 0.863226 0.492013 2.50906 ) 0 
( 1.58885 1.42911 2.31023 ) 0 
( 0.879432 2.19421 2.4344 ) 0 
( 3.52621 3.62453 1.95317 ) 0 
( 4.81953 4.36334 2.15432 ) 0 
( 3.20204 0.359117 2.28913 ) 0 
( 3.19949 1.34576 2.12653 ) 0 
( 1.58094 4.23467 2.31797 ) 0 
( 2.32512 0.784182 2.51471 ) 0 
( 1.80208 3.31366 2.63822 ) 0 
( 0.108185 2.83038 2.44931 ) 0 
( 4.36606 3.08088 2.1792 ) 0 
( 1.29009 2.67303 3.21025 ) 0 
( 3.69581 2.45145 2.57132 ) 0 
( 0.93775 1.39892 3.06851 ) 0 
( 2.71015 2.41587 2.73482 ) 0 
( 3.3358 1.66112 3.06665 ) 0 
( 0.109052 0.736097 3.11845 ) 0 
( 4.127 3.89718 2.70433 ) 0 
( 1.08666 4.2095 3.18664 ) 0 
( 0.0503292 1.73743 2.75594 ) 0 
( 0.540709 4.93061 2.76073 ) 0 
( 2.79846 3.40644 2.60308 ) 0 
( 3.9138 0.934081 2.69188 ) 0 
( 3.51614 4.56788 2.2842 ) 0 
( 3.02804 0.283765 3.27051 ) 0 
( 1.93333 1.91365 3.11404 ) 0 
( 0.191798 1.53154 3.72366 ) 0 
( 3.65311 4.56776 3.27448 ) 0 
( 4.67736 1.29662 3.22571 ) 0 
( 2.54014 3.04042 3.49691 ) 0 
( 0.320122 2.48448 3.36295 ) 0 
( 2.70908 4.96456 3.27767 ) 0 
( 2.24591 4.10735 3.05376 ) 0 
( 2.54692 1.15582 3.416 ) 0 
( 4.82597 2.24183 2.93564 ) 0 
( 4.25067 3.0238 3.17484 ) 0 
( 4.71565 4.43703 3.30567 ) 0 
( 1.58949 0.648567 3.17832 ) 0 
( 3.42656 2.57814 3.52555 ) 0 
( 1.66521 3.51164 3.60849 ) 0 
( 4.22057 2.73148 4.13042 ) 0 
( 1.7648 4.98772 2.94962 ) 0 
( 2.69912 3.91402 3.95651 ) 0 
( 0.110147 4.4015 3.49163 ) 0 
( 1.68832 1.33906 3.89459 ) 0 
( 3.43219 3.58996 3.35433 ) 0 
( 0.823986 0.19215 3.63159 ) 0 
( 0.672569 3.39268 3.58767 ) 0 
( 3.67815 0.935475 3.66326 ) 0 
( 4.49199 3.6663 3.90205 ) 0 
( 2.61666 2.07467 3.82598 ) 0 
( 4.54478 0.232451 3.02235 ) 0 
( 1.62637 4.43147 3.99856 ) 0 
( 2.55115 1.26557 4.40981 ) 0 
( 0.158948 2.19236 4.47316 ) 0 
( 1.00702 2.06806 3.95832 ) 0 
( 0.694215 4.75147 4.22385 ) 0 
( 3.18537 4.7692 4.13459 ) 0 
( 3.0636 0.420197 4.26009 ) 0 
( 1.82327 2.63564 4.06434 ) 0 
( 1.5835 0.409462 4.24724 ) 0 
( 4.16989 4.58499 4.13016 ) 0 
( 4.17806 1.74616 3.96686 ) 0 
( 0.7088 0.129177 4.64228 ) 0 
( 0.940057 2.94221 4.43916 ) 0 
( 3.42955 2.21413 4.45661 ) 0 
( 0.22069 3.87791 4.33605 ) 0 
( 1.98856 3.5429 4.55389 ) 0 
( 3.34846 3.22695 4.28208 ) 0 
( 1.82431 1.8738 4.72828 ) 0 
( 4.83063 0.390769 3.96723 ) 0 
( 4.29848 3.37455 4.8919 ) 0 
( 0.832721 1.07358 4.33874 ) 0 
( 3.5343 1.23127 4.6074 ) 0 
( 0.0761253 3.08147 4.92286 ) 0 
( 3.53321 4.07999 4.76967 ) 0 
( 2.57734 2.66583 4.72027 ) 0 
( 2.88882 1.79683 5.18673 ) 0 
( 2.31789 0.437116 4.92546 ) 0 
( 4.91252 2.08426 4.55494 ) 0 
( 4.97167 3.60477 5.59441 ) 0 
( 0.311908 2.38748 5.60273 ) 0 
( 2.4781 0.205633 5.88465 ) 0 
( 1.49876 0.988982 5.0792 ) 0 
( 3.08911 0.844101 5.41454 ) 0 
( 3.49251 2.87309 5.20591 ) 0 
( 1.66081 2.78188 5.11317 ) 0 
( 1.12701 4.00879 4.75473 ) 0 
( 3.28086 4.67207 5.53488 ) 0 
( 0.877611 1.78671 5.03815 ) 0 
( 0.500577 0.88497 5.26278 ) 0 
( 3.9245 0.293671 4.75249 ) 0 
( 2.56512 4.26186 4.94179 ) 0 
( 0.297845 4.20555 5.27759 ) 0 
( 4.7718 4.25469 4.86144 ) 0 
( 4.52078 1.09419 4.69629 ) 0 
( 1.19239 0.61457 5.95422 ) 0 
( 4.10846 1.90046 5.12031 ) 0 
( 2.63736 3.31278 5.4803 ) 0 
( 2.03435 1.5962 5.66561 ) 0 
( 0.401783 1.49658 6.04747 ) 0 
( 0.138207 4.63702 6.16533 ) 0 
( 4.37682 2.73006 5.65236 ) 0 
( 3.33629 0.710857 6.37401 ) 0 
( 3.65244 0.0586908 5.68529 ) 0 
( 4.19265 4.97024 6.0447 ) 0 
( 0.668069 3.36056 5.67855 ) 0 
( 1.71705 3.70323 5.50273 ) 0 
( 4.10157 4.97235 5.04918 ) 0 
( 2.94682 2.46355 5.93665 ) 0 
( 4.10597 0.945053 5.59361 ) 0 
( 1.03743 4.22542 6.0178 ) 0 
( 1.98227 2.69835 6.05593 ) 0 
( 2.38029 0.802016 6.68111 ) 0 
( 4.0927 4.08127 5.59807 ) 0 
( 4.69236 1.82221 5.92824 ) 0 
( 1.86144 4.67876 5.67864 ) 0 
( 3.58377 3.3632 6.07246 ) 0 
( 1.56218 1.35296 6.518 ) 0 
( 1.20387 2.08275 5.93603 ) 0 
( 3.48231 1.62075 5.98612 ) 0 
( 1.77622 3.65505 6.49971 ) 0 
( 4.72047 4.18496 6.36921 ) 0 
( 3.012 0.201405 7.17067 ) 0 
( 2.61347 4.13438 6.04969 ) 0 
( 3.67812 4.25426 6.51605 ) 0 
( 0.332959 3.78333 6.64793 ) 0 
( 3.81556 2.45163 6.4317 ) 0 
( 0.919809 2.02118 6.89271 ) 0 
( 4.45078 3.23702 6.55405 ) 0 
( 0.266266 0.528848 6.37071 ) 0 
( 4.59099 0.684347 6.4282 ) 0 
( 2.42068 1.87057 6.54589 ) 0 
( 1.40153 0.450766 6.91819 ) 0 
( 2.68888 3.24637 6.50264 ) 0 
( 3.09641 1.36994 7.08659 ) 0 
( 4.13304 1.51731 6.73823 ) 0 
( 4.82466 2.23367 6.82997 ) 0 
( 1.08063 2.91676 6.47377 ) 0 
( 4.81538 1.04919 7.39566 ) 0 
( 0.946341 4.50241 6.97417 ) 0 
( 4.29365 3.94612 7.24129 ) 0 
( 3.38323 3.01874 7.18488 ) 0 
( 0.53575 0.222534 7.36339 ) 0 
( 3.92889 0.641998 7.1764 ) 0 
( 0.380747 1.19085 7.11127 ) 0 
( 2.00183 1.60404 7.41375 ) 0 
( 0.589991 2.8509 7.34254 ) 0 
( 4.32804 2.86886 7.4754 ) 0 
( 2.85227 4.06822 7.04805 ) 0 
( 1.80794 2.50266 7.02072 ) 0 
( 3.69313 2.09833 7.42275 ) 0 
( 0.0720338 0.894273 8.03736 ) 0 
( 1.78296 0.867021 8.05282 ) 0 
( 1.23312 3.6165 7.33839 ) 0 
( 4.53875 0.12525 7.97898 ) 0 
( 3.75117 3.52048 7.9676 ) 0 
( 2.71358 2.30698 7.39644 ) 0 
( 4.59478 1.94996 7.82877 ) 0 
( 1.94452 4.4871 7.03139 ) 0 
( 3.62753 1.23498 7.92296 ) 0 
( 0.292073 3.75562 7.64659 ) 0 
( 0.921852 4.59157 7.96975 ) 0 
( 4.12782 4.93138 7.20064 ) 0 
( 4.20325 4.39749 8.1289 ) 0 
( 1.0643 1.53535 7.75468 ) 0 
( 2.76158 0.664601 8.02055 ) 0 
( 2.70886 1.65415 8.1537 ) 0 
( 1.68338 3.46088 8.21746 ) 0 
( 4.51384 1.05382 8.34903 ) 0 
( 3.44223 2.29866 8.36962 ) 0 
( 0.103206 2.92568 8.21268 ) 0 
( 4.6832 2.76314 8.40397 ) 0 
( 3.24795 4.76536 7.64582 ) 0 
( 2.87019 3.0537 8.0426 ) 0 
( 2.3456 4.18741 7.90171 ) 0 
( 1.67789 4.37532 8.62185 ) 0 
( 1.22934 0.0345809 8.06177 ) 0 
( 2.19808 3.35578 7.36673 ) 0 
( 4.89146 3.65173 7.98675 ) 0 
( 1.29945 3.35759 9.1349 ) 0 
( 3.39609 4.142 8.66572 ) 0 
( 3.96937 0.0472049 8.7971 ) 0 
( 3.05039 2.97885 9.02324 ) 0 
( 0.825396 0.718441 8.67076 ) 0 
( 3.64641 1.23507 8.92264 ) 0 
( 4.37344 1.91604 8.83544 ) 0 
( 2.45084 3.74491 8.7921 ) 0 
( 1.66711 1.7404 8.52571 ) 0 
( 4.67222 3.7967 8.9514 ) 0 
( 1.36063 2.5649 7.91273 ) 0 
( 0.207112 1.48982 8.82909 ) 0 
( 0.751188 2.31231 8.66402 ) 0 
( 2.13435 0.0376539 8.48709 ) 0 
( 0.260839 4.97539 8.98771 ) 0 
( 2.12404 2.62933 8.55542 ) 0 
( 2.65271 4.80932 8.62182 ) 0 
( 1.06652 1.46476 9.33963 ) 0 
( 0.33267 3.1044 9.16939 ) 0 
( 4.04361 3.03795 9.12161 ) 0 
( 0.631658 3.85815 8.58422 ) 0 
( 4.39257 0.745682 9.3739 ) 0 
( 4.14788 4.63416 9.10436 ) 0 
( 2.22481 4.45877 9.4548 ) 0 
( 2.65484 1.21379 9.0498 ) 0 
( 1.74784 0.792915 9.04931 ) 0 
( 1.51906 2.35571 9.30309 ) 0 
( 3.00583 0.287393 8.91366 ) 0 
( 2.18225 3.07502 9.50981 ) 0 
( 2.26139 0.0991855 9.55403 ) 0 
( 3.23325 4.86794 9.4338 ) 0 
( 3.46559 2.99612 9.93643 ) 0 
( 1.17704 0.386384 9.76257 ) 0 
( 0.17356 4.08928 9.44274 ) 0 
( 3.07871 3.83989 9.56454 ) 0 
( 0.441309 2.19872 9.60786 ) 0 
( 1.03922 2.9046 9.98752 ) 0 
( 1.76163 3.80305 10.051 ) 0 
( 0.296874 0.817047 9.56327 ) 0 
( 3.8294 1.38799 9.8937 ) 0 
( 3.56409 2.18806 9.35581 ) 0 
( 3.30218 0.383493 9.8638 ) 0 
( 1.98574 1.46113 9.75409 ) 0 
( 2.56292 2.16581 9.3415 ) 0 
( 4.89773 4.44587 9.73841 ) 0 
( 1.07904 4.51236 9.4108 ) 0 
( 2.02825 2.35954 10.191 ) 0 
( 1.84756 0.712777 10.4286 ) 0 
( 4.52168 2.38323 9.70698 ) 0 
( 2.61001 4.23733 10.3534 ) 0 
( 0.795684 3.99818 10.2202 ) 0 
( 4.18635 0.567349 10.3398 ) 0 
( 0.304199 0.155546 10.313 ) 0 
( 3.89818 4.23343 9.98582 ) 0 
( 1.1485 1.88706 10.2423 ) 0 
( 3.0822 2.0053 10.2127 ) 0 
( 4.39305 3.36468 9.99962 ) 0 
( 2.59848 0.0557502 10.4944 ) 0 
( 2.76709 2.86254 10.6393 ) 0 
( 4.13975 1.54789 10.8307 ) 0 
( 0.863222 0.967751 10.5131 ) 0 
( 0.701675 4.60898 11.0238 ) 0 
( 4.98921 1.78933 10.3616 ) 0 
( 2.33186 1.54773 10.6896 ) 0 
( 3.36976 3.66929 10.6696 ) 0 
( 2.1445 3.58163 10.9478 ) 0 
( 4.05637 2.51296 10.5825 ) 0 
( 0.116177 1.61204 10.3495 ) 0 
( 3.19818 1.05736 10.5952 ) 0 
( 1.50235 2.81607 10.9086 ) 0 
( 4.76752 4.03468 10.6405 ) 0 
( 0.594995 3.22806 10.8256 ) 0 
( 1.65963 4.98023 10.0939 ) 0 
( 1.76265 0.216959 11.2928 ) 0 
( 0.564284 2.34722 11.3157 ) 0 
( 0.197654 1.13994 11.2392 ) 0 
( 1.24097 1.61989 11.2015 ) 0 
( 3.68986 0.907273 11.4529 ) 0 
( 2.79689 4.38903 11.3239 ) 0 
( 2.68279 0.607193 11.3244 ) 0 
( 3.49884 2.89363 11.3202 ) 0 
( 0.766285 0.265148 11.218 ) 0 
( 4.78873 2.17543 11.262 ) 0 
( 1.51123 4.18615 11.4309 ) 0 
( 3.91909 4.449 10.9698 ) 0 
( 3.14407 1.85268 11.1989 ) 0 
( 2.26963 2.3228 11.3184 ) 0 
( 4.64689 0.145159 11.1205 ) 0 
( 3.51056 0.0917625 10.9027 ) 0 
( 0.210932 0.307157 12.0485 ) 0 
( 4.94926 3.33322 11.3297 ) 0 
( 1.41666 2.37116 11.838 ) 0 
( 0.42035 4.86401 11.9489 ) 0 
( 2.97208 2.41687 12.0239 ) 0 
( 1.10401 3.30822 11.6826 ) 0 
( 1.24946 0.864284 11.8564 ) 0 
( 3.72555 3.79137 11.6978 ) 0 
( 2.09809 1.35351 11.6423 ) 0 
( 2.13498 4.73526 11.9887 ) 0 
( 3.01224 1.34015 12.0474 ) 0 
( 3.96312 1.92586 11.7679 ) 0 
( 3.25456 0.0544575 11.9306 ) 0 
( 4.50077 1.11524 11.9999 ) 0 
( 1.10927 2.92991 12.6083 ) 0 
( 4.12998 4.80403 12.3611 ) 0 
( 1.64228 0.301361 12.5836 ) 0 
( 4.85431 2.01737 12.2472 ) 0 
( 2.77957 3.46746 11.7117 ) 0 
( 3.7671 2.39329 12.6299 ) 0 
( 0.692931 0.908218 12.686 ) 0 
( 4.64802 4.1698 11.7872 ) 0 
( 4.43489 0.156683 12.277 ) 0 
( 0.524769 2.17714 12.9111 ) 0 
( 0.720994 1.68824 12.0608 ) 0 
( 4.29449 2.86799 11.9253 ) 0 
)
