FoamFile
{version 2.0; format ascii;class Cloud<passiveParticle>; location 0;object  positions;}
348
(
( 4122.43 4330.69 499.579 ) 0 
( 1694.74 2198.73 499.563 ) 0 
( 5.14439 1963.33 498.392 ) 0 
( 2488.78 1591.31 498.71 ) 0 
( 1042.42 4454.79 497.71 ) 0 
( 3476.89 1743.34 498.4 ) 0 
( 1555.74 3188.83 498.189 ) 0 
( 440.171 1063.57 499.091 ) 0 
( 4584.61 3423.27 497.319 ) 0 
( 3123.61 4368.9 499.386 ) 0 
( 3132.24 805.805 498.638 ) 0 
( 4034.73 2573.11 498.387 ) 0 
( 57.2689 4620.36 498.159 ) 0 
( 1497.21 1183.4 497.658 ) 0 
( 511.913 66.9997 499.078 ) 0 
( 689.255 2691.11 498.105 ) 0 
( 1460.32 3888.92 1204.96 ) 0 
( 1624.97 192.134 497.624 ) 0 
( 3586.04 3482.59 498.007 ) 0 
( 3075.38 3245.62 1321.82 ) 0 
( 259.79 3066.76 1317.79 ) 0 
( 4134.61 764.781 498.585 ) 0 
( 2580.5 3529.44 498.97 ) 0 
( 2953.8 2602.74 498.349 ) 0 
( 438.337 3658.5 498.846 ) 0 
( 4512.08 1690.8 497.442 ) 0 
( 4147.13 4922.93 1309.64 ) 0 
( 889.089 1827.84 960.793 ) 0 
( 2267.27 760.75 1008.42 ) 0 
( 4000.82 1421.6 1311.52 ) 0 
( 2481.77 2207.96 1284.68 ) 0 
( 2085.33 3123.04 1341.39 ) 0 
( 4627.44 443.144 1312.03 ) 0 
( 3004.21 1357.47 1321.84 ) 0 
( 4998.69 1370.69 1308.6 ) 0 
( 3622 497.358 1312.53 ) 0 
( 628.508 4883.15 1299.22 ) 0 
( 2042.31 4371.12 498.452 ) 0 
( 3521.22 1226.18 2165.84 ) 0 
( 1028.46 619.622 1174.27 ) 0 
( 2581.73 4123.41 1302.46 ) 0 
( 3146.19 4967.51 1299.77 ) 0 
( 187.138 4542.59 2127.55 ) 0 
( 441.651 2173.93 1785.03 ) 0 
( 1758.71 1529.09 1396.76 ) 0 
( 3476.35 2331.43 1304.62 ) 0 
( 1184.68 2693.16 1364.77 ) 0 
( 1808.04 4811.7 1362.9 ) 0 
( 2523.51 4796.47 2060.49 ) 0 
( 2646.36 2774.95 2089.7 ) 0 
( 3613.3 4083.18 1383.69 ) 0 
( 4531.19 2268.7 1310.7 ) 0 
( 4606.5 4000.21 1313.57 ) 0 
( 734.448 3746.4 1874.53 ) 0 
( 4600.5 4606.97 2139.59 ) 0 
( 3991.18 2195.41 2147.57 ) 0 
( 4513.61 1346.45 2181.01 ) 0 
( 4070.62 3155.32 1308.46 ) 0 
( 1956.7 3973.31 2067.9 ) 0 
( 3583.54 3108.11 2176.44 ) 0 
( 1052.93 1448.57 2098.68 ) 0 
( 2982.52 3906.52 2191.5 ) 0 
( 2440.73 1536.12 2127.82 ) 0 
( 1778.57 2281.46 2054.2 ) 0 
( 4122.19 427.521 2172.54 ) 0 
( 455.893 654.618 1990.4 ) 0 
( 3942.28 1631.63 2975.32 ) 0 
( 4930.23 999.062 3019.54 ) 0 
( 1831.25 726.982 1988.33 ) 0 
( 3578.91 4710.08 2160.5 ) 0 
( 3120.63 2077.67 2622.69 ) 0 
( 2259.77 3.18106 2570.21 ) 0 
( 1183.99 3844.99 2761.89 ) 0 
( 192.805 3729.34 2712.75 ) 0 
( 2757.17 399.88 1801.18 ) 0 
( 1881.68 4713.31 2820.3 ) 0 
( 1183.82 4606 2114.33 ) 0 
( 1595.54 1752.34 2881.47 ) 0 
( 1853.43 3124.96 2585.18 ) 0 
( 926.559 2870.55 2313.13 ) 0 
( 4579.6 3418.66 2126.39 ) 0 
( 3905.64 3916.09 2668.39 ) 0 
( 1234.11 2705.39 3249.32 ) 0 
( 2217.82 3843.12 3175.3 ) 0 
( 2960.01 4576.11 2932.65 ) 0 
( 3527.91 2978.27 3720.35 ) 0 
( 485.194 122.616 3243.57 ) 0 
( 4002.68 647.421 3136.89 ) 0 
( 3094.89 525.674 2736.47 ) 0 
( 650.36 1053.21 2922.86 ) 0 
( 641.679 2042.65 2792.17 ) 0 
( 2948.39 3205 2938.92 ) 0 
( 4125.6 2776.72 2946.16 ) 0 
( 2190.53 946.186 2895.17 ) 0 
( 1358.43 359.379 2806.84 ) 0 
( 578.124 4545.89 3137.2 ) 0 
( 88.3131 2814.92 3101.43 ) 0 
( 4781.49 21.1674 3155.69 ) 0 
( 4836.07 2075.57 2991.82 ) 0 
( 4504.41 1592.94 3800.31 ) 0 
( 3040.58 1349.27 3299.5 ) 0 
( 2335.88 2437.86 3125.83 ) 0 
( 3587.81 1988.28 3838.62 ) 0 
( 681.013 3482.62 3547.06 ) 0 
( 2565.58 3203.95 3860.36 ) 0 
( 458.724 1195.07 3892.34 ) 0 
( 2054.16 107.821 3541.64 ) 0 
( 3509.02 4929.48 3775.91 ) 0 
( 4365.81 3579.05 3488.01 ) 0 
( 2972.31 452.167 3729.89 ) 0 
( 1433.75 1024.73 3546.6 ) 0 
( 1419.57 4455.7 3666.9 ) 0 
( 3443.4 3958.61 3551.39 ) 0 
( 4430.75 4558.23 3669.09 ) 0 
( 1824.71 2536.51 4037.41 ) 0 
( 1615 3503.33 3894.44 ) 0 
( 2109.46 808.797 4250.64 ) 0 
( 2945.11 1346.77 4341.06 ) 0 
( 2196.97 1659.55 3735.63 ) 0 
( 532.549 4401.54 4124.58 ) 0 
( 2609.84 4455.69 3860.08 ) 0 
( 487.143 2187.18 3768.62 ) 0 
( 1237.5 1721 4233.84 ) 0 
( 1100.26 213.264 4024.25 ) 0 
( 4433.37 2586.24 3876.25 ) 0 
( 4756.06 636.962 3941.75 ) 0 
( 4060.6 3945.22 4366.72 ) 0 
( 1788.66 3192.98 4826.37 ) 0 
( 3810.16 929.426 4073.11 ) 0 
( 3555.39 2971.34 4719.08 ) 0 
( 3074.88 3811.62 4466.85 ) 0 
( 258.163 499.997 4582.14 ) 0 
( 934.072 2894.87 4315 ) 0 
( 450.469 1440.23 4859.97 ) 0 
( 2767.22 2328.42 4295.36 ) 0 
( 388.847 3621.1 4732.33 ) 0 
( 1900.2 4809.51 4466.82 ) 0 
( 2104.63 1719.86 4729.28 ) 0 
( 4758.12 1106.68 4823.55 ) 0 
( 1290.91 4044.98 4667.23 ) 0 
( 4109.08 1853.35 4680.75 ) 0 
( 3206.79 1937.61 5102.68 ) 0 
( 3616.25 1027.32 5046.56 ) 0 
( 2934.76 371.333 4723.2 ) 0 
( 696.87 434.805 5477.48 ) 0 
( 3267.97 4755.97 4731.68 ) 0 
( 4519.33 2747.48 4858.23 ) 0 
( 2663.88 2836 5149.74 ) 0 
( 4061.38 4368.54 5279.69 ) 0 
( 4206.35 280.394 4720.24 ) 0 
( 1359.95 2313.75 5027.29 ) 0 
( 1257.22 860.685 4767.93 ) 0 
( 2267.7 4051.74 5003.99 ) 0 
( 242.377 3678.31 5948.26 ) 0 
( 3557.36 121.608 5462.25 ) 0 
( 1944.45 430.901 5350.11 ) 0 
( 362.058 4435.79 5308.19 ) 0 
( 3851.11 2540.01 5570.83 ) 0 
( 1117.77 3514.16 5494.06 ) 0 
( 4985.56 1968.47 5275.39 ) 0 
( 2677.44 84.8036 5932.15 ) 0 
( 2659.15 1128.21 5312.67 ) 0 
( 3353.31 938.925 6006.84 ) 0 
( 500.722 2770.8 5244.23 ) 0 
( 4767.71 3680.2 5117.55 ) 0 
( 28.3107 1964.89 5596.29 ) 0 
( 4150.26 1591.57 5672.4 ) 0 
( 1799.17 2833.25 5757.46 ) 0 
( 3170.56 3896.86 5455.93 ) 0 
( 1543.84 4582.48 5469.17 ) 0 
( 4847.65 2923.73 5785.88 ) 0 
( 4401.89 625.665 5636.51 ) 0 
( 1809.36 170.587 6418.84 ) 0 
( 1599.93 2010.02 6287.51 ) 0 
( 2006.93 1123.83 6068.85 ) 0 
( 1175.14 1481.63 5546.62 ) 0 
( 4031.46 3501.1 5772.23 ) 0 
( 2441.96 4995.33 5283.28 ) 0 
( 3121.77 3066.01 6007.37 ) 0 
( 2371.64 2022.21 5651.78 ) 0 
( 4513.38 4831.6 6054.48 ) 0 
( 2318.45 3669.71 5925.45 ) 0 
( 1078.25 841.994 6306.57 ) 0 
( 886.315 2808.46 6164.88 ) 0 
( 3314 4841.41 5744.08 ) 0 
( 1061.01 4164.04 6249.49 ) 0 
( 4677.14 1319.26 6480.55 ) 0 
( 2691.75 612.449 6779.49 ) 0 
( 4899.17 3893.8 6084.81 ) 0 
( 4324.28 2249.83 6401.02 ) 0 
( 640.347 1738.99 6353.41 ) 0 
( 3321.72 4107.15 6420.85 ) 0 
( 149.502 770.841 6668.85 ) 0 
( 241.593 3351.24 6892.56 ) 0 
( 4807.14 328.087 6499.86 ) 0 
( 2233.75 4629.96 6188.49 ) 0 
( 3526.87 64.0035 6458.3 ) 0 
( 3521.45 2661.44 6827.93 ) 0 
( 858.199 124.191 6964.43 ) 0 
( 1604.11 3387.99 6564.27 ) 0 
( 2833.75 4834.33 6958.69 ) 0 
( 4035 743.933 6984.62 ) 0 
( 2681.86 3459.54 6832.25 ) 0 
( 1040.13 2809.88 7151.97 ) 0 
( 4249.99 4196.66 6779.79 ) 0 
( 4380.99 2285.3 7397.88 ) 0 
( 3259.97 1933.85 6100.49 ) 0 
( 2412.79 2558.4 6494.93 ) 0 
( 1818.04 1017.6 7044.3 ) 0 
( 3202.02 20.4553 7401.31 ) 0 
( 4369.73 3211.28 6665.47 ) 0 
( 1324.37 4929.46 6833.31 ) 0 
( 3709.42 1688.59 6958.09 ) 0 
( 3595.74 3576.73 7221.47 ) 0 
( 2377.96 1490.14 7727.21 ) 0 
( 2569.58 1603.29 6742.65 ) 0 
( 1998.73 2988.67 7389.31 ) 0 
( 856.371 1241 7195.5 ) 0 
( 3641.77 4564.65 7480.03 ) 0 
( 256.511 4436.37 7537.04 ) 0 
( 1676.76 2047.95 7283.41 ) 0 
( 3231.67 1012.8 7518.65 ) 0 
( 1962.72 4188.83 7041.94 ) 0 
( 1024.75 3885.88 7208.72 ) 0 
( 3952.56 417.825 7925.55 ) 0 
( 393.176 3510.74 7886.31 ) 0 
( 768.335 2062.7 7756.38 ) 0 
( 1883.23 3806.1 7960.48 ) 0 
( 4935.64 545.072 8045.95 ) 0 
( 2429.33 496.365 7816.66 ) 0 
( 1189.92 4667.3 7809.66 ) 0 
( 1427.86 1356.51 8007.99 ) 0 
( 1439.67 397.032 7729.79 ) 0 
( 4432.26 3250.95 7661.45 ) 0 
( 2778.06 4079.19 7610.09 ) 0 
( 3593.23 2731.84 7821.76 ) 0 
( 2767.45 2351.88 7405.02 ) 0 
( 2133.63 4959.46 7659.72 ) 0 
( 4096.51 1401.82 7833.18 ) 0 
( 2128.15 2382.18 8172.67 ) 0 
( 2072.87 931.935 8641.6 ) 0 
( 3242.37 1834.98 8114.25 ) 0 
( 1299.01 2981.76 8101.64 ) 0 
( 3567.43 3855.35 8180.11 ) 0 
( 4364.53 4457.94 8161.76 ) 0 
( 110.301 4259.44 8509.44 ) 0 
( 1436.05 164.943 8707.39 ) 0 
( 2728.6 3180.62 8044.66 ) 0 
( 505.909 676.878 7950.11 ) 0 
( 4840.43 1430.31 8498.29 ) 0 
( 510.44 1488.95 8532.68 ) 0 
( 1069.46 3850.56 8537.84 ) 0 
( 3792.38 4404.68 8983.96 ) 0 
( 429.531 2664.88 8478.22 ) 0 
( 2056.8 3262.53 8780.15 ) 0 
( 4051.23 895.529 8797.96 ) 0 
( 3192.59 2620.71 8730.59 ) 0 
( 2441.53 4461.38 8469.79 ) 0 
( 4242.66 2223.26 8385.9 ) 0 
( 3062.68 930.302 8500.39 ) 0 
( 2561 1779.97 8842.24 ) 0 
( 3292 4965.64 8324.83 ) 0 
( 1197.12 1048.2 9108.95 ) 0 
( 4963.18 2233.66 9078.88 ) 0 
( 1272.18 2129.4 8622.73 ) 0 
( 4316.95 3386.44 8644.57 ) 0 
( 232.621 3443.53 9072.6 ) 0 
( 3467.95 214.726 9239.34 ) 0 
( 3976.42 3607.17 9557.96 ) 0 
( 3629.2 1770.76 9032.71 ) 0 
( 2470 193.353 9185.05 ) 0 
( 2915.18 4877.95 9245.97 ) 0 
( 1945.59 2418.43 9302.55 ) 0 
( 4969.42 3187.91 9373.98 ) 0 
( 1518.93 4714.69 8758.82 ) 0 
( 168.458 1347.97 9461.61 ) 0 
( 4833.34 4209.38 9009.1 ) 0 
( 1137.86 3019.24 9087.3 ) 0 
( 723.428 4346.67 9332.35 ) 0 
( 2990.9 3575.9 8946.43 ) 0 
( 4037.33 2653.5 9264.5 ) 0 
( 2195.73 4068.66 9355.09 ) 0 
( 547.513 442.189 9644.93 ) 0 
( 2292.09 1170.1 9586.74 ) 0 
( 1475.93 1699.75 9813.42 ) 0 
( 1534.93 4696.42 9798.77 ) 0 
( 4744.38 1194.32 9464.2 ) 0 
( 1340.2 2746.46 10027.1 ) 0 
( 3283.99 1092.35 9680.69 ) 0 
( 4830.07 103.599 9416.78 ) 0 
( 2954.56 2253.38 9629.13 ) 0 
( 694.303 2196.58 9438.41 ) 0 
( 4334.83 4527.92 9814.36 ) 0 
( 2520.42 387.348 10164.3 ) 0 
( 4572.83 2690.97 10145.1 ) 0 
( 2501.54 3145.49 9704.21 ) 0 
( 3126.78 4074.4 9801.96 ) 0 
( 3539.7 4796.13 10356.8 ) 0 
( 4116.09 1835.47 9902.54 ) 0 
( 375.097 2997.48 9955.24 ) 0 
( 804.904 103.082 10549 ) 0 
( 1359.64 3712.65 9771.3 ) 0 
( 1528.79 643.547 9960.46 ) 0 
( 4106.13 578.22 9923.94 ) 0 
( 4731.21 3681.29 10209.5 ) 0 
( 2179.11 2252.14 10260.1 ) 0 
( 442.167 4936.86 10099.8 ) 0 
( 2470.93 4787.21 10136.5 ) 0 
( 1884.77 3028.68 10816.5 ) 0 
( 634.497 1606.31 10343.8 ) 0 
( 1738.73 1295.25 10688.6 ) 0 
( 3596.01 2577.61 10323.2 ) 0 
( 2959.39 3295.64 10601.1 ) 0 
( 557.968 3904.51 10335.9 ) 0 
( 2175.34 3852.81 10330.9 ) 0 
( 3791.92 3841.58 10512 ) 0 
( 4671.35 1217.16 10460.5 ) 0 
( 2703.95 1425.37 10461 ) 0 
( 3680.09 1249.58 10584.8 ) 0 
( 2866.65 2373.31 10975.5 ) 0 
( 3422.71 35.4159 10411.1 ) 0 
( 367.658 2456.99 10795.8 ) 0 
( 2899.12 4249.4 10894.8 ) 0 
( 515.91 914.721 11055.7 ) 0 
( 4259.32 2062.42 10865.3 ) 0 
( 344.491 4578.18 11042.9 ) 0 
( 4135.98 3051.18 11018.3 ) 0 
( 1329.34 2191.23 10858.1 ) 0 
( 1375.58 4108.52 10873 ) 0 
( 4683.2 4519.53 10751.5 ) 0 
( 4190.06 10.7433 11051.4 ) 0 
( 2515.3 3416.1 11488.7 ) 0 
( 3840.73 4583.73 11286.1 ) 0 
( 2444.47 902.512 11277.2 ) 0 
( 1434.94 501.749 11215.2 ) 0 
( 3386.49 569.067 11255.6 ) 0 
( 3498.47 1747.63 11432.4 ) 0 
( 3051.02 1098.85 12047.4 ) 0 
( 3482.9 3666.27 11459.2 ) 0 
( 938.43 3231.09 11067.7 ) 0 
( 661.235 1802.37 11492.1 ) 0 
( 233.501 2887.89 11688 ) 0 
( 2899.97 111.661 11999.8 ) 0 
( 2107.69 1885.5 11406.1 ) 0 
( 4736.63 2483.23 11636.4 ) 0 
( 2114.31 4331.78 11508.4 ) 0 
( 4273.79 1031.19 11358.9 ) 0 
( 4774.9 9.67244 11862.3 ) 0 
)
