/*--------------------------------*- C++ -*----------------------------------*\
| =========                 |                                                 |
| \\      /  F ield         | OpenFOAM: The Open Source CFD Toolbox           |
|  \\    /   O peration     | Version:  5.x                                   |
|   \\  /    A nd           | Web:      www.OpenFOAM.org                      |
|    \\/     M anipulation  |                                                 |
\*---------------------------------------------------------------------------*/
FoamFile
{
    version     2.0;
    format      ascii;
    class       volScalarField;
    location    "0.07";
    object      p;
}
// * * * * * * * * * * * * * * * * * * * * * * * * * * * * * * * * * * * * * //

dimensions      [0 2 -2 0 0 0 0];

internalField   nonuniform List<scalar> 
2250
(
1.33219e-10
1.4625e-10
1.50639e-10
1.64635e-10
1.92412e-10
1.32934e-10
1.32173e-10
1.40054e-10
1.54179e-10
1.67851e-10
1.04423e-10
9.86051e-11
1.0054e-10
1.0389e-10
1.12812e-10
7.00512e-11
6.26877e-11
5.35305e-11
4.99173e-11
7.14437e-11
3.99686e-11
2.4188e-11
-9.73987e-12
-1.23362e-11
3.92804e-11
4.1575e-10
4.37079e-10
4.70055e-10
5.04531e-10
5.42187e-10
4.00573e-10
4.17797e-10
4.38504e-10
4.55878e-10
4.67536e-10
3.42509e-10
3.38789e-10
3.33854e-10
3.26431e-10
3.42462e-10
2.67195e-10
2.34741e-10
1.97648e-10
1.82186e-10
2.32101e-10
1.7988e-10
1.29792e-10
4.38416e-11
3.22822e-11
1.22995e-10
7.53217e-10
7.86639e-10
8.206e-10
8.31469e-10
8.27953e-10
7.30217e-10
7.46744e-10
7.57806e-10
7.45158e-10
7.31939e-10
6.50366e-10
6.38062e-10
6.06266e-10
5.80911e-10
5.90101e-10
5.45503e-10
4.99157e-10
4.27795e-10
3.8352e-10
4.28097e-10
4.39693e-10
3.61712e-10
2.40577e-10
1.89663e-10
2.88336e-10
1.13006e-09
1.15103e-09
1.16265e-09
1.13648e-09
1.08956e-09
1.09488e-09
1.10494e-09
1.08606e-09
1.03407e-09
1.00623e-09
1.00767e-09
9.82307e-10
9.2196e-10
8.68557e-10
8.61119e-10
9.103e-10
8.5156e-10
7.35886e-10
6.45406e-10
6.40172e-10
8.38629e-10
7.48776e-10
5.5313e-10
4.03263e-10
4.65944e-10
1.50355e-09
1.50127e-09
1.475e-09
1.43696e-09
1.40186e-09
1.44965e-09
1.43058e-09
1.38688e-09
1.34409e-09
1.34862e-09
1.35882e-09
1.31501e-09
1.2475e-09
1.19912e-09
1.19356e-09
1.30042e-09
1.22832e-09
1.09236e-09
9.75689e-10
9.21986e-10
1.29936e-09
1.18102e-09
9.19228e-10
6.88555e-10
6.79961e-10
1.85133e-09
1.80444e-09
1.77974e-09
1.76903e-09
1.78324e-09
1.76153e-09
1.71657e-09
1.68858e-09
1.69064e-09
1.73663e-09
1.68361e-09
1.62798e-09
1.5831e-09
1.56225e-09
1.57412e-09
1.65927e-09
1.58785e-09
1.46477e-09
1.37142e-09
1.34004e-09
1.69821e-09
1.5759e-09
1.31943e-09
1.13487e-09
1.1375e-09
2.21065e-09
2.15863e-09
2.15861e-09
2.17386e-09
2.19181e-09
2.1108e-09
2.06787e-09
2.07094e-09
2.097e-09
2.11126e-09
2.03812e-09
1.99425e-09
1.97528e-09
1.95849e-09
1.94489e-09
2.00827e-09
1.95248e-09
1.86083e-09
1.79502e-09
1.78943e-09
2.01339e-09
1.91203e-09
1.73392e-09
1.65071e-09
1.72159e-09
2.70025e-09
2.67703e-09
2.69988e-09
2.70322e-09
2.6561e-09
2.60913e-09
2.59977e-09
2.61595e-09
2.60508e-09
2.53157e-09
2.51744e-09
2.50032e-09
2.48012e-09
2.41804e-09
2.32872e-09
2.41532e-09
2.37464e-09
2.29796e-09
2.20008e-09
2.12183e-09
2.29217e-09
2.21431e-09
2.10362e-09
2.01336e-09
2.01564e-09
3.37669e-09
3.4047e-09
3.41251e-09
3.36461e-09
3.27299e-09
3.30542e-09
3.32727e-09
3.30956e-09
3.22862e-09
3.11671e-09
3.14256e-09
3.13286e-09
3.0737e-09
2.95706e-09
2.81004e-09
2.8856e-09
2.84624e-09
2.75799e-09
2.59768e-09
2.3824e-09
2.56197e-09
2.50911e-09
2.41312e-09
2.19896e-09
1.9524e-09
4.21003e-09
4.25139e-09
4.19457e-09
4.09551e-09
4.02709e-09
4.11705e-09
4.11283e-09
4.03435e-09
3.91259e-09
3.82309e-09
3.81513e-09
3.77808e-09
3.67735e-09
3.54451e-09
3.38856e-09
3.36399e-09
3.31541e-09
3.21257e-09
3.03502e-09
2.76356e-09
2.83434e-09
2.79283e-09
2.68635e-09
2.40766e-09
2.01633e-09
5.09471e-09
5.08029e-09
4.9625e-09
4.84134e-09
4.77773e-09
4.91091e-09
4.84999e-09
4.73482e-09
4.60992e-09
4.52862e-09
4.46259e-09
4.39976e-09
4.28618e-09
4.17107e-09
4.04843e-09
3.85238e-09
3.79527e-09
3.69337e-09
3.57067e-09
3.40528e-09
3.13497e-09
3.08568e-09
2.99595e-09
2.83074e-09
2.591e-09
6.00117e-09
5.92482e-09
5.79476e-09
5.66656e-09
5.56084e-09
5.71825e-09
5.63766e-09
5.52061e-09
5.40192e-09
5.32068e-09
5.18234e-09
5.12187e-09
5.01719e-09
4.92774e-09
4.8673e-09
4.46167e-09
4.40484e-09
4.32003e-09
4.27072e-09
4.25738e-09
3.58121e-09
3.53919e-09
3.48747e-09
3.47861e-09
3.45138e-09
7.07781e-09
6.99566e-09
6.88122e-09
6.73474e-09
6.5972e-09
6.74608e-09
6.69006e-09
6.5737e-09
6.44434e-09
6.35936e-09
6.15268e-09
6.10635e-09
6.00307e-09
5.91625e-09
5.87292e-09
5.3161e-09
5.2667e-09
5.18801e-09
5.15286e-09
5.18107e-09
4.31601e-09
4.27715e-09
4.20648e-09
4.23594e-09
4.29512e-09
8.54177e-09
8.48775e-09
8.3637e-09
8.1695e-09
7.97537e-09
8.1742e-09
8.13457e-09
7.99618e-09
7.81884e-09
7.66608e-09
7.45748e-09
7.40734e-09
7.28386e-09
7.16724e-09
7.06083e-09
6.41944e-09
6.36368e-09
6.27279e-09
6.21362e-09
6.21779e-09
5.23181e-09
5.14045e-09
5.02822e-09
5.07675e-09
5.24195e-09
1.05247e-08
1.04696e-08
1.02985e-08
1.00398e-08
9.74226e-09
1.00492e-08
9.98766e-09
9.8227e-09
9.58556e-09
9.33792e-09
9.07804e-09
9.00964e-09
8.87237e-09
8.73355e-09
8.56717e-09
7.68369e-09
7.61302e-09
7.54204e-09
7.50248e-09
7.51722e-09
6.04535e-09
5.92648e-09
5.89599e-09
6.05401e-09
6.35265e-09
1.30936e-08
1.29966e-08
1.2776e-08
1.24666e-08
1.20905e-08
1.24115e-08
1.23183e-08
1.21436e-08
1.18675e-08
1.15538e-08
1.10577e-08
1.09845e-08
1.08549e-08
1.07007e-08
1.04837e-08
9.13205e-09
9.07136e-09
9.05494e-09
9.03467e-09
9.0071e-09
6.76834e-09
6.7421e-09
6.87005e-09
7.0695e-09
7.30749e-09
1.64051e-08
1.6258e-08
1.59857e-08
1.56024e-08
1.51243e-08
1.54488e-08
1.53312e-08
1.51192e-08
1.47703e-08
1.43343e-08
1.35953e-08
1.35182e-08
1.33615e-08
1.3118e-08
1.27509e-08
1.09719e-08
1.0929e-08
1.09062e-08
1.07835e-08
1.05428e-08
7.74083e-09
7.83035e-09
7.97807e-09
7.99967e-09
7.93556e-09
2.07757e-08
2.05677e-08
2.0174e-08
1.95977e-08
1.88658e-08
1.94763e-08
1.9302e-08
1.89519e-08
1.84184e-08
1.77219e-08
1.6966e-08
1.68347e-08
1.6559e-08
1.61162e-08
1.54798e-08
1.34453e-08
1.33751e-08
1.3235e-08
1.29e-08
1.23434e-08
9.2084e-09
9.30455e-09
9.30521e-09
9.0555e-09
8.60531e-09
2.66435e-08
2.63211e-08
2.56828e-08
2.47503e-08
2.3577e-08
2.48735e-08
2.45767e-08
2.39763e-08
2.31277e-08
2.20197e-08
2.14696e-08
2.12211e-08
2.07452e-08
2.00206e-08
1.90455e-08
1.67507e-08
1.66039e-08
1.62854e-08
1.57217e-08
1.48706e-08
1.11902e-08
1.11973e-08
1.10423e-08
1.06193e-08
9.86204e-09
3.45836e-08
3.40798e-08
3.30823e-08
3.16366e-08
2.98138e-08
3.21555e-08
3.16882e-08
3.07547e-08
2.94456e-08
2.77495e-08
2.75237e-08
2.71283e-08
2.63898e-08
2.52864e-08
2.3853e-08
2.11454e-08
2.0899e-08
2.03718e-08
1.95374e-08
1.83272e-08
1.36836e-08
1.35803e-08
1.33059e-08
1.27474e-08
1.16759e-08
4.54214e-08
4.46877e-08
4.32245e-08
4.10842e-08
3.83634e-08
4.20924e-08
4.14224e-08
4.00681e-08
3.81062e-08
3.55838e-08
3.57514e-08
3.51945e-08
3.40993e-08
3.24456e-08
3.02786e-08
2.70251e-08
2.66525e-08
2.58446e-08
2.45812e-08
2.27367e-08
1.67976e-08
1.65851e-08
1.61231e-08
1.52616e-08
1.35865e-08
6.03369e-08
5.93161e-08
5.72338e-08
5.4134e-08
5.01527e-08
5.5757e-08
5.4824e-08
5.29065e-08
5.00227e-08
4.63041e-08
4.69957e-08
4.62291e-08
4.46196e-08
4.21633e-08
3.88999e-08
3.49138e-08
3.43541e-08
3.31406e-08
3.1247e-08
2.85281e-08
2.06922e-08
2.03536e-08
1.95955e-08
1.82772e-08
1.59106e-08
8.09446e-08
7.95395e-08
7.66145e-08
7.21702e-08
6.63591e-08
7.45884e-08
7.32934e-08
7.06002e-08
6.64479e-08
6.10352e-08
6.23891e-08
6.13171e-08
5.90111e-08
5.546e-08
5.07322e-08
4.55304e-08
4.47164e-08
4.2974e-08
4.02451e-08
3.64644e-08
2.5625e-08
2.51537e-08
2.40284e-08
2.2179e-08
1.92926e-08
1.09448e-07
1.0754e-07
1.03514e-07
9.72537e-08
8.88743e-08
1.00568e-07
9.88079e-08
9.51089e-08
8.93047e-08
8.15321e-08
8.35343e-08
8.20759e-08
7.89526e-08
7.4006e-08
6.72856e-08
5.99788e-08
5.89139e-08
5.65968e-08
5.2813e-08
4.74996e-08
3.21469e-08
3.15655e-08
3.01121e-08
2.76307e-08
2.3803e-08
1.4889e-07
1.46399e-07
1.41054e-07
1.32448e-07
1.20488e-07
1.36469e-07
1.34209e-07
1.29343e-07
1.21432e-07
1.10325e-07
1.12716e-07
1.10901e-07
1.06932e-07
1.00285e-07
9.07813e-08
7.98457e-08
7.86527e-08
7.58825e-08
7.09426e-08
6.34983e-08
4.09295e-08
4.04395e-08
3.90266e-08
3.60413e-08
3.08146e-08
2.03437e-07
2.00434e-07
1.93691e-07
1.82134e-07
1.65169e-07
1.86117e-07
1.83491e-07
1.77451e-07
1.66918e-07
1.51177e-07
1.53061e-07
1.51106e-07
1.46424e-07
1.37825e-07
1.24503e-07
1.07189e-07
1.06192e-07
1.03356e-07
9.73592e-08
8.72764e-08
5.26677e-08
5.28218e-08
5.21049e-08
4.91365e-08
4.28177e-08
2.78635e-07
2.75534e-07
2.6767e-07
2.52634e-07
2.28732e-07
2.54576e-07
2.5204e-07
2.45236e-07
2.31737e-07
2.09655e-07
2.08619e-07
2.071e-07
2.02325e-07
1.9176e-07
1.73348e-07
1.44596e-07
1.44517e-07
1.42508e-07
1.35901e-07
1.22563e-07
6.82374e-08
6.98538e-08
7.09604e-08
6.89852e-08
6.15667e-08
3.81547e-07
3.79495e-07
3.71758e-07
3.53272e-07
3.19846e-07
3.48189e-07
3.46955e-07
3.40835e-07
3.24662e-07
2.94125e-07
2.84395e-07
2.84683e-07
2.81573e-07
2.69802e-07
2.44921e-07
1.9508e-07
1.97415e-07
1.98371e-07
1.92609e-07
1.75485e-07
8.81537e-08
9.27856e-08
9.83495e-08
9.95009e-08
9.11756e-08
5.20695e-07
5.22479e-07
5.18329e-07
4.98032e-07
4.52283e-07
4.74483e-07
4.77426e-07
4.75682e-07
4.58825e-07
4.17698e-07
3.86263e-07
3.91357e-07
3.9406e-07
3.83795e-07
3.51278e-07
2.6162e-07
2.69537e-07
2.78246e-07
2.76961e-07
2.56273e-07
1.11959e-07
1.23027e-07
1.38385e-07
1.47323e-07
1.40151e-07
7.05493e-07
7.17385e-07
7.24738e-07
7.08151e-07
6.48025e-07
6.4141e-07
6.54726e-07
6.65718e-07
6.54114e-07
6.01069e-07
5.2041e-07
5.36664e-07
5.54193e-07
5.52401e-07
5.12304e-07
3.46201e-07
3.66279e-07
3.9272e-07
4.04028e-07
3.81933e-07
1.37717e-07
1.618e-07
1.9733e-07
2.23563e-07
2.21877e-07
9.44407e-07
9.79889e-07
1.01527e-06
1.01649e-06
9.42335e-07
8.5457e-07
8.91069e-07
9.32588e-07
9.40301e-07
8.77069e-07
6.92107e-07
7.32745e-07
7.83488e-07
8.05918e-07
7.61659e-07
4.46894e-07
4.92208e-07
5.57006e-07
5.97951e-07
5.81118e-07
1.60809e-07
2.10076e-07
2.85977e-07
3.48142e-07
3.60765e-07
1.24082e-06
1.32885e-06
1.42405e-06
1.47597e-06
1.3956e-06
1.10982e-06
1.19503e-06
1.30371e-06
1.36066e-06
1.29911e-06
9.04826e-07
9.97164e-07
1.11626e-06
1.19701e-06
1.15877e-06
5.48571e-07
6.44552e-07
7.91503e-07
8.95404e-07
9.01872e-07
1.74551e-07
2.70738e-07
4.24143e-07
5.57377e-07
6.02133e-07
1.5829e-06
1.78475e-06
1.99578e-06
2.1724e-06
2.11361e-06
1.378e-06
1.56117e-06
1.81221e-06
1.9771e-06
1.95975e-06
1.1591e-06
1.36112e-06
1.60953e-06
1.82373e-06
1.81261e-06
6.02047e-07
7.95504e-07
1.12209e-06
1.34706e-06
1.42828e-06
1.70881e-07
3.5363e-07
6.52659e-07
9.22397e-07
1.03138e-06
1.91754e-06
2.35338e-06
2.78254e-06
3.2418e-06
3.27014e-06
1.58583e-06
1.95891e-06
2.5076e-06
2.8839e-06
3.02154e-06
1.42264e-06
1.85906e-06
2.33216e-06
2.85539e-06
2.90203e-06
5.15801e-07
8.81245e-07
1.59634e-06
2.03444e-06
2.32123e-06
1.12918e-07
4.62947e-07
1.04252e-06
1.58022e-06
1.8074e-06
2.10223e-06
2.98778e-06
3.83254e-06
4.89978e-06
5.14166e-06
1.59022e-06
2.30791e-06
3.46807e-06
4.2542e-06
4.7589e-06
1.56073e-06
2.47679e-06
3.3319e-06
4.57369e-06
4.68588e-06
1.37002e-07
8.13263e-07
2.30288e-06
3.14157e-06
3.87492e-06
-1.18327e-07
5.55452e-07
1.67317e-06
2.76026e-06
3.21267e-06
1.87584e-06
3.52543e-06
5.22425e-06
7.49365e-06
8.20089e-06
1.15445e-06
2.47986e-06
4.83732e-06
6.42199e-06
7.67102e-06
1.32115e-06
3.13499e-06
4.68421e-06
7.44904e-06
7.64342e-06
-7.89503e-07
4.68103e-07
3.41786e-06
5.05016e-06
6.67247e-06
-7.39912e-07
5.55986e-07
2.70559e-06
4.91758e-06
5.80446e-06
1.8143e-06
6.10987e-06
8.77468e-06
1.34048e-05
1.58725e-05
5.45184e-07
3.50311e-06
8.29273e-06
1.06356e-05
1.32651e-05
1.31159e-06
5.79128e-06
9.00677e-06
1.51026e-05
1.48662e-05
-1.77297e-06
4.04082e-07
7.05716e-06
9.15408e-06
1.226e-05
-1.97352e-06
1.02556e-06
5.74446e-06
1.0035e-05
1.15746e-05
-6.77693e-06
-2.57456e-06
5.07277e-06
1.17067e-05
1.67675e-05
-7.37411e-06
-3.7588e-06
5.34459e-06
1.20402e-05
1.78607e-05
-7.33095e-06
-2.19129e-06
5.16492e-06
1.40919e-05
1.67558e-05
-1.14863e-05
-5.86885e-06
3.71936e-06
1.02513e-05
1.79074e-05
-8.76311e-06
-4.59052e-06
2.74205e-06
1.06004e-05
1.63544e-05
-4.54166e-06
1.1972e-05
2.0187e-05
3.45004e-05
4.98155e-05
-6.42231e-06
1.98685e-06
2.0717e-05
2.49985e-05
3.17858e-05
-5.42241e-06
1.3478e-05
2.67472e-05
5.31227e-05
5.0681e-05
-9.7595e-06
-3.90827e-06
2.21698e-05
2.62721e-05
3.72205e-05
-9.71133e-06
2.87822e-06
1.79176e-05
3.25486e-05
4.06236e-05
-3.25066e-05
-3.62008e-05
1.5201e-05
1.94337e-06
3.1881e-05
-3.3104e-05
-3.0596e-05
5.62948e-06
3.02849e-05
5.00065e-05
-3.48558e-05
-3.14773e-05
2.71873e-05
3.10703e-05
8.12985e-05
-5.08144e-05
-2.50388e-05
-6.5516e-06
2.29175e-05
6.62071e-05
-3.49774e-05
-3.39376e-06
3.28609e-06
2.616e-05
7.57011e-05
-5.60965e-05
-5.75963e-05
0.000192077
-1.66021e-05
0.000118296
-1.59938e-05
-9.42914e-05
1.65651e-05
8.14079e-05
-5.42159e-05
-8.83579e-05
-5.76818e-05
0.000141285
0.000191022
0.000294721
-9.59048e-05
-2.40789e-06
-2.60927e-05
4.59037e-05
-1.4795e-06
-0.00010548
2.51901e-06
2.82449e-06
9.53556e-05
0.000188619
0.000672413
0.00071519
0.000845839
0.00025436
0.000392177
0.00104271
0.000514064
0.000595434
0.000500062
0.00024728
0.000834331
0.000345505
0.000624287
0.00104313
0.000283116
0.000283518
4.32216e-05
0.000675576
0.000661419
8.98553e-05
-2.297e-05
0.000238092
0.000276581
-0.000135904
-0.000135378
0.00155588
0.000866454
0.000666463
0.00108287
0.000959005
0.00109966
0.00117968
0.000766401
0.000885548
0.00106559
0.00115074
0.000896524
0.000757758
0.00161839
0.00101596
0.00090566
0.00087326
0.000756167
0.00121394
0.00111251
0.00108141
0.0010276
0.000639748
0.00170308
0.000826608
0.000952223
0.000993071
0.00104553
0.00115334
0.00119935
0.00130143
0.00127946
0.00116613
0.00107708
-0.000261237
0.00131292
0.0011344
0.000844341
0.000642393
0.00138109
0.00144756
0.00143522
0.000959207
0.000899265
0.000998647
0.00174373
0.00140403
0.00114268
0.000944031
0.000879824
0.00120636
0.00120889
0.00144186
0.00126849
0.000989612
0.00165896
0.0014282
0.00150656
0.00165919
0.00211098
0.00139834
0.00131807
0.00124051
0.0010126
-4.04276e-05
0.00270329
0.00159756
0.00145569
0.00109716
0.000525284
0.00147681
0.00166573
0.00136873
0.00185587
0.00145533
0.0029521
0.00217269
0.00258028
0.00205323
0.00228
0.0020191
0.00195437
0.0021178
0.00211167
0.00204891
0.00204778
0.00225523
0.00164268
0.0018688
0.00186106
0.00239417
0.00239564
0.00181907
0.00231147
0.00146324
0.00174982
0.00182551
0.00185619
0.00201623
0.00169583
0.00374118
0.00367502
0.00297281
0.00308384
0.00266483
0.00314936
0.00260391
0.00286796
0.00255787
0.00206965
0.00280174
0.00279259
0.00326294
0.00266485
0.00334533
0.00251998
0.00251095
0.00251649
0.00273519
0.00246919
0.0022768
0.00223486
0.00292744
0.00273013
0.00220309
0.00434061
0.00426739
0.00314423
0.00339571
0.00320878
0.00390391
0.00375107
0.00353364
0.00332604
0.00327937
0.00357349
0.00342921
0.0034973
0.00345391
0.00326523
0.00379285
0.00317126
0.00339617
0.00323486
0.00315421
0.00343655
0.00371208
0.00339762
0.00333327
0.00320945
0.00473533
0.00480377
0.00450222
0.00399342
0.00482045
0.00435797
0.00470606
0.00436959
0.00406584
0.00493112
0.00407788
0.00415003
0.00395453
0.00411477
0.0039414
0.00416409
0.00417945
0.00398558
0.00392631
0.003895
0.00397216
0.00392681
0.00367492
0.00348576
0.00379224
0.00486763
0.00507935
0.00514587
0.00468641
0.00508045
0.00497126
0.00506717
0.0053293
0.00481746
0.00532965
0.00489022
0.00486762
0.00477309
0.00466089
0.00489468
0.0042131
0.00484813
0.00476087
0.00470569
0.00436584
0.00441779
0.0045396
0.00457037
0.0041946
0.00449786
0.00559535
0.0055409
0.00549013
0.00547417
0.00549175
0.00568124
0.00552463
0.00546734
0.00545612
0.00552415
0.00546779
0.00551223
0.00547796
0.00508768
0.00547843
0.00531557
0.0054958
0.00534205
0.0052984
0.00545363
0.00544173
0.00541908
0.0054396
0.00527076
0.00536641
0.00566046
0.0056888
0.00568009
0.00567597
0.00566639
0.00567126
0.00568421
0.00560639
0.00568157
0.00564178
0.00565554
0.0056959
0.00570157
0.00564573
0.00568584
0.00565006
0.00568079
0.00565705
0.00564409
0.00567811
0.00572018
0.00568252
0.00565867
0.00563021
0.005643
0.00564497
0.00564346
0.00565267
0.00564475
0.0056214
0.00565618
0.00565183
0.0056499
0.00562939
0.00563493
0.00566409
0.00566082
0.00565813
0.00564592
0.0056245
0.00566293
0.00565931
0.00566428
0.00565506
0.00565279
0.00566341
0.00566816
0.0056629
0.00566071
0.00566035
0.00566086
0.0056591
0.00565354
0.00565022
0.00565233
0.0056584
0.00565845
0.00564252
0.00564694
0.00564398
0.00565985
0.00566089
0.00565739
0.00564813
0.00564865
0.00565382
0.0056564
0.00565304
0.00564987
0.00565468
0.00566176
0.00566409
0.00566321
0.00565578
0.00565629
0.0056559
0.00565476
0.00565465
0.00565277
0.00565083
0.00565677
0.00565582
0.00565403
0.00565313
0.00565139
0.00565945
0.00565834
0.00565773
0.0056546
0.00565455
0.00565757
0.00565663
0.00565742
0.00565543
0.0056563
0.00566179
0.00566173
0.00566111
0.00565923
0.00565895
0.00565707
0.00565618
0.0056557
0.00565483
0.00565445
0.00565675
0.00565623
0.00565472
0.005655
0.00565449
0.00565858
0.00565802
0.00565761
0.00565588
0.00565637
0.0056568
0.00565668
0.00565668
0.00565584
0.00565707
0.00566041
0.00566033
0.00565989
0.00565868
0.00565876
0.0056573
0.00565688
0.00565663
0.00565618
0.00565609
0.0056571
0.00565682
0.00565636
0.00565633
0.0056563
0.00565841
0.00565808
0.00565788
0.00565707
0.00565733
0.00565736
0.00565725
0.00565738
0.00565701
0.00565771
0.00565978
0.00565969
0.00565945
0.00565885
0.00565887
0.00565762
0.00565742
0.0056573
0.00565708
0.0056571
0.00565751
0.00565738
0.00565725
0.00565719
0.00565729
0.00565838
0.0056582
0.00565809
0.00565771
0.00565784
0.0056578
0.00565775
0.00565787
0.00565772
0.00565814
0.00565939
0.00565931
0.00565917
0.00565889
0.00565889
0.00565792
0.00565783
0.00565778
0.00565768
0.00565772
0.00565789
0.00565783
0.00565781
0.00565777
0.00565786
0.00565843
0.00565833
0.00565828
0.00565811
0.00565818
0.00565817
0.00565814
0.00565823
0.00565819
0.00565843
0.00565917
0.00565911
0.00565903
0.0056589
0.00565889
0.00565818
0.00565814
0.00565812
0.00565808
0.00565813
0.0056582
0.00565817
0.00565817
0.00565816
0.00565822
0.00565851
0.00565847
0.00565844
0.00565837
0.00565842
0.00565844
0.00565843
0.00565849
0.00565849
0.00565861
0.00565904
0.00565901
0.00565896
0.00565891
0.0056589
0.00565839
0.00565837
0.00565837
0.00565836
0.00565839
0.00565843
0.00565842
0.00565842
0.00565842
0.00565846
0.0056586
0.00565858
0.00565857
0.00565855
0.00565859
0.00565863
0.00565863
0.00565866
0.00565868
0.00565874
0.00565898
0.00565896
0.00565894
0.00565892
0.00565893
0.00565855
0.00565855
0.00565855
0.00565856
0.00565858
0.00565859
0.00565859
0.00565859
0.0056586
0.00565863
0.00565869
0.00565869
0.00565869
0.00565869
0.00565871
0.00565876
0.00565876
0.00565878
0.00565879
0.00565882
0.00565895
0.00565895
0.00565894
0.00565894
0.00565896
0.00565868
0.00565868
0.00565868
0.00565869
0.00565871
0.00565871
0.00565871
0.00565872
0.00565873
0.00565874
0.00565877
0.00565877
0.00565878
0.00565879
0.0056588
0.00565884
0.00565885
0.00565886
0.00565887
0.00565888
0.00565896
0.00565896
0.00565896
0.00565897
0.00565898
0.00565878
0.00565878
0.00565878
0.00565879
0.0056588
0.0056588
0.0056588
0.00565881
0.00565881
0.00565883
0.00565884
0.00565884
0.00565885
0.00565886
0.00565887
0.0056589
0.0056589
0.00565891
0.00565892
0.00565893
0.00565897
0.00565897
0.00565898
0.00565899
0.005659
0.00565885
0.00565885
0.00565885
0.00565886
0.00565887
0.00565886
0.00565887
0.00565887
0.00565888
0.00565889
0.00565889
0.0056589
0.0056589
0.00565891
0.00565892
0.00565894
0.00565894
0.00565894
0.00565895
0.00565896
0.00565899
0.00565899
0.00565899
0.005659
0.00565901
0.0056589
0.0056589
0.0056589
0.00565891
0.00565892
0.00565891
0.00565891
0.00565892
0.00565892
0.00565893
0.00565893
0.00565894
0.00565894
0.00565895
0.00565895
0.00565897
0.00565897
0.00565897
0.00565898
0.00565898
0.005659
0.005659
0.00565901
0.00565901
0.00565902
0.00565894
0.00565894
0.00565894
0.00565895
0.00565895
0.00565895
0.00565895
0.00565895
0.00565896
0.00565896
0.00565896
0.00565897
0.00565897
0.00565897
0.00565898
0.00565899
0.00565899
0.00565899
0.005659
0.005659
0.00565901
0.00565901
0.00565902
0.00565902
0.00565903
0.00565897
0.00565897
0.00565897
0.00565897
0.00565898
0.00565897
0.00565897
0.00565898
0.00565898
0.00565898
0.00565899
0.00565899
0.00565899
0.00565899
0.005659
0.005659
0.005659
0.00565901
0.00565901
0.00565901
0.00565902
0.00565902
0.00565902
0.00565903
0.00565903
0.00565899
0.00565899
0.00565899
0.00565899
0.005659
0.00565899
0.00565899
0.005659
0.005659
0.005659
0.005659
0.005659
0.005659
0.00565901
0.00565901
0.00565901
0.00565901
0.00565902
0.00565902
0.00565902
0.00565903
0.00565903
0.00565903
0.00565903
0.00565904
0.005659
0.005659
0.00565901
0.00565901
0.00565901
0.00565901
0.00565901
0.00565901
0.00565901
0.00565901
0.00565901
0.00565901
0.00565902
0.00565902
0.00565902
0.00565902
0.00565902
0.00565902
0.00565903
0.00565903
0.00565903
0.00565903
0.00565903
0.00565904
0.00565904
0.00565901
0.00565901
0.00565902
0.00565902
0.00565902
0.00565902
0.00565902
0.00565902
0.00565902
0.00565902
0.00565902
0.00565902
0.00565902
0.00565902
0.00565903
0.00565903
0.00565903
0.00565903
0.00565903
0.00565903
0.00565904
0.00565904
0.00565904
0.00565904
0.00565904
0.00565902
0.00565902
0.00565902
0.00565903
0.00565903
0.00565902
0.00565902
0.00565903
0.00565903
0.00565903
0.00565903
0.00565903
0.00565903
0.00565903
0.00565903
0.00565903
0.00565903
0.00565903
0.00565904
0.00565904
0.00565904
0.00565904
0.00565904
0.00565904
0.00565904
0.00565903
0.00565903
0.00565903
0.00565903
0.00565903
0.00565903
0.00565903
0.00565903
0.00565903
0.00565903
0.00565903
0.00565903
0.00565903
0.00565903
0.00565904
0.00565904
0.00565904
0.00565904
0.00565904
0.00565904
0.00565904
0.00565904
0.00565904
0.00565904
0.00565904
0.00565903
0.00565903
0.00565903
0.00565903
0.00565904
0.00565903
0.00565903
0.00565903
0.00565904
0.00565904
0.00565904
0.00565904
0.00565904
0.00565904
0.00565904
0.00565904
0.00565904
0.00565904
0.00565904
0.00565904
0.00565904
0.00565904
0.00565904
0.00565904
0.00565904
0.00565904
0.00565904
0.00565904
0.00565904
0.00565904
0.00565904
0.00565904
0.00565904
0.00565904
0.00565904
0.00565904
0.00565904
0.00565904
0.00565904
0.00565904
0.00565904
0.00565904
0.00565904
0.00565904
0.00565904
0.00565904
0.00565904
0.00565904
0.00565904
0.00565904
0.00565904
0.00565904
0.00565904
0.00565904
0.00565904
0.00565904
0.00565904
0.00565904
0.00565904
0.00565904
0.00565904
0.00565904
0.00565904
0.00565904
0.00565904
0.00565904
0.00565904
0.00565904
0.00565904
0.00565904
0.00565904
0.00565904
0.00565904
0.00565904
0.00565904
0.00565904
0.00565904
0.00565904
0.00565904
0.00565904
0.00565904
0.00565904
0.00565904
0.00565904
0.00565904
0.00565904
0.00565904
0.00565904
0.00565904
0.00565904
0.00565904
0.00565904
0.00565904
0.00565904
0.00565904
0.00565904
0.00565904
0.00565904
0.00565904
0.00565904
0.00565904
0.00565904
0.00565904
0.00565904
0.00565904
0.00565904
0.00565904
0.00565904
0.00565904
0.00565904
0.00565904
0.00565904
0.00565904
0.00565904
0.00565904
0.00565904
0.00565904
0.00565904
0.00565904
0.00565904
0.00565904
0.00565904
0.00565904
0.00565904
0.00565904
0.00565904
0.00565904
0.00565904
0.00565904
0.00565904
0.00565904
0.00565904
0.00565904
0.00565904
0.00565904
0.00565904
0.00565904
0.00565904
0.00565904
0.00565904
0.00565904
0.00565904
0.00565904
0.00565904
0.00565904
0.00565904
0.00565904
0.00565904
0.00565904
0.00565904
0.00565904
0.00565904
0.00565904
0.00565904
0.00565904
0.00565904
0.00565904
0.00565904
0.00565904
0.00565904
0.00565904
0.00565904
0.00565904
0.00565904
0.00565904
0.00565904
0.00565904
0.00565904
0.00565904
0.00565904
0.00565904
0.00565904
0.00565904
0.00565904
0.00565904
0.00565904
0.00565904
0.00565904
0.00565904
0.00565904
0.00565904
0.00565904
0.00565904
0.00565904
0.00565904
0.00565904
0.00565904
0.00565904
0.00565904
0.00565904
0.00565904
0.00565904
0.00565904
0.00565904
0.00565904
0.00565904
0.00565904
0.00565904
0.00565904
0.00565904
0.00565904
0.00565904
0.00565904
0.00565904
0.00565904
0.00565904
0.00565904
0.00565904
0.00565904
0.00565904
0.00565904
0.00565904
0.00565904
0.00565904
0.00565904
0.00565904
0.00565904
0.00565904
0.00565904
0.00565904
0.00565904
0.00565904
0.00565904
0.00565904
0.00565904
0.00565904
0.00565904
0.00565904
0.00565904
0.00565904
0.00565904
0.00565904
0.00565904
0.00565904
0.00565904
0.00565904
0.00565904
0.00565904
0.00565904
0.00565904
0.00565904
0.00565904
0.00565904
0.00565904
0.00565904
0.00565904
0.00565904
0.00565904
0.00565904
0.00565904
0.00565904
0.00565904
0.00565904
0.00565904
0.00565904
0.00565904
0.00565904
0.00565904
0.00565904
0.00565904
0.00565904
0.00565904
0.00565904
0.00565904
0.00565904
0.00565904
0.00565904
0.00565904
0.00565904
0.00565904
0.00565904
0.00565904
0.00565904
0.00565904
0.00565904
0.00565904
0.00565904
0.00565904
0.00565904
0.00565904
0.00565904
0.00565904
0.00565904
0.00565904
0.00565904
0.00565904
0.00565904
0.00565904
0.00565904
0.00565904
0.00565904
0.00565904
0.00565904
0.00565904
0.00565904
0.00565904
0.00565904
0.00565904
0.00565904
0.00565904
0.00565904
0.00565904
0.00565904
0.00565904
0.00565904
0.00565904
0.00565904
0.00565904
0.00565904
0.00565904
0.00565904
0.00565904
0.00565904
0.00565904
0.00565904
0.00565904
0.00565904
0.00565904
0.00565904
0.00565904
0.00565904
0.00565904
0.00565904
0.00565904
0.00565904
0.00565904
0.00565904
0.00565904
0.00565904
0.00565904
0.00565904
0.00565904
0.00565904
0.00565904
0.00565904
0.00565904
0.00565904
0.00565904
0.00565904
0.00565904
0.00565904
0.00565904
0.00565904
0.00565904
0.00565904
0.00565904
0.00565904
0.00565904
0.00565904
0.00565904
0.00565904
0.00565904
0.00565904
0.00565904
0.00565904
0.00565904
0.00565904
0.00565904
0.00565904
0.00565904
0.00565904
0.00565904
0.00565904
0.00565904
0.00565904
0.00565904
0.00565904
0.00565904
0.00565904
0.00565904
0.00565904
0.00565904
0.00565904
0.00565904
0.00565904
0.00565904
0.00565904
0.00565904
0.00565904
0.00565904
0.00565904
0.00565904
0.00565904
0.00565904
0.00565904
0.00565904
0.00565904
0.00565904
0.00565904
0.00565904
0.00565904
0.00565904
0.00565904
0.00565904
0.00565904
0.00565904
0.00565904
0.00565904
0.00565904
0.00565904
0.00565904
0.00565904
0.00565904
0.00565904
0.00565904
0.00565904
0.00565904
0.00565904
0.00565904
0.00565904
0.00565904
0.00565904
0.00565904
0.00565904
0.00565904
0.00565904
0.00565904
0.00565904
0.00565904
0.00565904
0.00565904
0.00565904
0.00565904
0.00565904
0.00565904
)
;

boundaryField
{
    inlet
    {
        type            zeroGradient;
    }
    outlet
    {
        type            fixedValue;
        value           uniform 0;
    }
    repeat_boundary
    {
        type            zeroGradient;
    }
    procBoundary0to1
    {
        type            processor;
        value           nonuniform List<scalar> 
450
(
1.92344e-10
1.63316e-10
1.2129e-10
8.85361e-11
8.90325e-11
5.27856e-10
4.53008e-10
3.43037e-10
2.12885e-10
7.89438e-11
7.95302e-10
7.07275e-10
5.5857e-10
2.96453e-10
-1.46694e-10
1.03893e-09
9.81513e-10
8.41858e-10
5.13303e-10
-1.16295e-10
1.33778e-09
1.31388e-09
1.19288e-09
8.9858e-10
3.90903e-10
1.71787e-09
1.67944e-09
1.54078e-09
1.29868e-09
1.01151e-09
2.14067e-09
2.04825e-09
1.86845e-09
1.61733e-09
1.33721e-09
2.60649e-09
2.47779e-09
2.25428e-09
1.93207e-09
1.4657e-09
3.20777e-09
3.06466e-09
2.76126e-09
2.33066e-09
1.73137e-09
3.95478e-09
3.75931e-09
3.34874e-09
2.83358e-09
2.2871e-09
4.71443e-09
4.45732e-09
4.01344e-09
3.48821e-09
3.06643e-09
5.49228e-09
5.24431e-09
4.83638e-09
4.27812e-09
3.79509e-09
6.48097e-09
6.2518e-09
5.80462e-09
5.0943e-09
4.31832e-09
7.77122e-09
7.48404e-09
6.89963e-09
6.0047e-09
4.92174e-09
9.42116e-09
9.04096e-09
8.28139e-09
7.16768e-09
5.74359e-09
1.16223e-08
1.11168e-08
1.00717e-08
8.51258e-09
6.44589e-09
1.4462e-08
1.37327e-08
1.22232e-08
9.98597e-09
7.09234e-09
1.79187e-08
1.68628e-08
1.47485e-08
1.17737e-08
8.1889e-09
2.21951e-08
2.0719e-08
1.78788e-08
1.40686e-08
9.7112e-09
2.77739e-08
2.57948e-08
2.20469e-08
1.70416e-08
1.13714e-08
3.53097e-08
3.26877e-08
2.76551e-08
2.0803e-08
1.30378e-08
4.55722e-08
4.19856e-08
3.50735e-08
2.54941e-08
1.4535e-08
5.96053e-08
5.46388e-08
4.5129e-08
3.18317e-08
1.63373e-08
7.90194e-08
7.21828e-08
5.91241e-08
4.09234e-08
1.94134e-08
1.05984e-07
9.66611e-08
7.87988e-08
5.40403e-08
2.45711e-08
1.43532e-07
1.31011e-07
1.06892e-07
7.34384e-08
3.34597e-08
1.96241e-07
1.79524e-07
1.47396e-07
1.02461e-07
4.84022e-08
2.70997e-07
2.48784e-07
2.0626e-07
1.45857e-07
7.26172e-08
3.78703e-07
3.49401e-07
2.93443e-07
2.12279e-07
1.13101e-07
5.36626e-07
4.97847e-07
4.25595e-07
3.16714e-07
1.829e-07
7.72447e-07
7.1946e-07
6.30974e-07
4.834e-07
3.05424e-07
1.13283e-06
1.05288e-06
9.61604e-07
7.51428e-07
5.24796e-07
1.69633e-06
1.55754e-06
1.51427e-06
1.18375e-06
9.26949e-07
2.60232e-06
2.34548e-06
2.45046e-06
1.89542e-06
1.67029e-06
4.11807e-06
3.64996e-06
4.03794e-06
3.12015e-06
3.01296e-06
6.81439e-06
5.96689e-06
6.79478e-06
5.34665e-06
5.39204e-06
1.30173e-05
1.11229e-05
1.41616e-05
1.07113e-05
1.20795e-05
1.6622e-05
1.44178e-05
1.32618e-05
1.20757e-05
1.12047e-05
4.86145e-05
3.74993e-05
4.66375e-05
3.28132e-05
3.99512e-05
8.24205e-05
5.81548e-05
2.23208e-05
4.79044e-05
2.58297e-05
0.000465165
0.000208966
1.79978e-05
-9.40524e-05
6.4221e-05
-0.000739281
0.00101887
0.000502615
0.00058701
0.000746741
0.00255101
0.00193529
0.000971491
0.00215267
0.00155874
0.000991348
0.000597793
0.0015944
0.0010912
-0.000560985
0.00157245
0.00140639
0.00150414
0.00130402
0.00171417
0.00215715
0.00218387
0.00226359
0.00161003
0.00169004
0.00271743
0.00300581
0.00275386
0.0033718
0.0017854
0.00375319
0.0035131
0.00306191
0.00337013
0.00315109
0.0040649
0.00389525
0.00405529
0.00363583
0.00405144
0.00458221
0.00441026
0.00471413
0.00477523
0.00451004
0.00530069
0.00545713
0.00554284
0.00552481
0.00507271
0.00564065
0.00570847
0.00570181
0.00569968
0.00567296
0.0056523
0.00564728
0.00564134
0.00563953
0.00565797
0.00565032
0.00565287
0.00565544