/*--------------------------------*- C++ -*----------------------------------*\
| =========                 |                                                 |
| \\      /  F ield         | OpenFOAM: The Open Source CFD Toolbox           |
|  \\    /   O peration     | Version:  5.x                                   |
|   \\  /    A nd           | Web:      www.OpenFOAM.org                      |
|    \\/     M anipulation  |                                                 |
\*---------------------------------------------------------------------------*/
FoamFile
{
    version     2.0;
    format      ascii;
    class       volScalarField;
    location    "60000";
    object      p;
}
// * * * * * * * * * * * * * * * * * * * * * * * * * * * * * * * * * * * * * //

dimensions      [0 2 -2 0 0 0 0];

internalField   nonuniform List<scalar> 
2250
(
-2.23272e-10
-2.00896e-10
-1.57867e-10
-1.52027e-10
-1.72302e-10
-2.28882e-10
-1.91293e-10
-1.69512e-10
-1.7083e-10
-1.81616e-10
-1.85756e-10
-1.63553e-10
-1.59334e-10
-1.65092e-10
-1.70586e-10
-1.32701e-10
-1.31179e-10
-1.3975e-10
-1.48512e-10
-1.52372e-10
-9.96413e-11
-1.11515e-10
-1.26098e-10
-1.36206e-10
-1.40215e-10
-6.33625e-10
-5.76228e-10
-5.37683e-10
-5.67758e-10
-6.20848e-10
-5.62109e-10
-5.20516e-10
-5.21048e-10
-5.46712e-10
-5.65063e-10
-4.46977e-10
-4.40653e-10
-4.63961e-10
-4.88395e-10
-4.95474e-10
-3.33273e-10
-3.61741e-10
-4.00979e-10
-4.27306e-10
-4.33476e-10
-2.72667e-10
-3.1849e-10
-3.63814e-10
-3.90879e-10
-3.97787e-10
-1.04057e-09
-1.01318e-09
-1.01312e-09
-1.06415e-09
-1.0997e-09
-8.37089e-10
-8.41859e-10
-8.81919e-10
-9.18404e-10
-9.1828e-10
-6.29034e-10
-6.86734e-10
-7.44988e-10
-7.75495e-10
-7.70777e-10
-4.87292e-10
-5.73483e-10
-6.38007e-10
-6.66761e-10
-6.64158e-10
-4.31321e-10
-5.23933e-10
-5.84912e-10
-6.087e-10
-6.03506e-10
-1.31669e-09
-1.42006e-09
-1.43973e-09
-1.44785e-09
-1.42525e-09
-1.10834e-09
-1.16128e-09
-1.19283e-09
-1.19508e-09
-1.16433e-09
-8.51492e-10
-9.40254e-10
-9.84805e-10
-9.86113e-10
-9.60495e-10
-7.0135e-10
-8.04244e-10
-8.45818e-10
-8.40998e-10
-8.15451e-10
-6.61158e-10
-7.55654e-10
-7.81287e-10
-7.63342e-10
-7.33958e-10
-1.48275e-09
-1.67479e-09
-1.70041e-09
-1.65991e-09
-1.60086e-09
-1.37496e-09
-1.44319e-09
-1.42918e-09
-1.37865e-09
-1.3278e-09
-1.1646e-09
-1.21595e-09
-1.19408e-09
-1.13838e-09
-1.0926e-09
-1.03741e-09
-1.07483e-09
-1.03408e-09
-9.63528e-10
-9.17329e-10
-1.01356e-09
-1.01947e-09
-9.53802e-10
-8.72757e-10
-8.38109e-10
-1.68561e-09
-1.86651e-09
-1.89978e-09
-1.85255e-09
-1.79649e-09
-1.66823e-09
-1.71361e-09
-1.66086e-09
-1.57789e-09
-1.5292e-09
-1.54374e-09
-1.52091e-09
-1.42329e-09
-1.31804e-09
-1.27369e-09
-1.45648e-09
-1.37968e-09
-1.24165e-09
-1.12066e-09
-1.09145e-09
-1.43276e-09
-1.30316e-09
-1.14856e-09
-1.04297e-09
-1.05149e-09
-2.12376e-09
-2.21523e-09
-2.23928e-09
-2.20648e-09
-2.1737e-09
-2.08154e-09
-2.07919e-09
-2.00758e-09
-1.92593e-09
-1.90099e-09
-1.99124e-09
-1.90044e-09
-1.76067e-09
-1.65249e-09
-1.64473e-09
-1.91051e-09
-1.74284e-09
-1.56341e-09
-1.46308e-09
-1.49498e-09
-1.84991e-09
-1.64352e-09
-1.48328e-09
-1.43157e-09
-1.51073e-09
-2.82385e-09
-2.77958e-09
-2.77925e-09
-2.76068e-09
-2.74877e-09
-2.66279e-09
-2.60661e-09
-2.53202e-09
-2.47613e-09
-2.47886e-09
-2.54487e-09
-2.41581e-09
-2.28689e-09
-2.22946e-09
-2.27074e-09
-2.41906e-09
-2.23895e-09
-2.11109e-09
-2.0965e-09
-2.1844e-09
-2.29712e-09
-2.14325e-09
-2.07584e-09
-2.11517e-09
-2.22972e-09
-3.49269e-09
-3.39447e-09
-3.38228e-09
-3.36183e-09
-3.3431e-09
-3.31717e-09
-3.24506e-09
-3.17877e-09
-3.14827e-09
-3.16189e-09
-3.20634e-09
-3.08249e-09
-3.00388e-09
-3.00728e-09
-3.06436e-09
-3.04282e-09
-2.93284e-09
-2.90563e-09
-2.96057e-09
-3.04026e-09
-2.89856e-09
-2.883e-09
-2.91963e-09
-2.99465e-09
-3.06583e-09
-4.11766e-09
-3.95933e-09
-3.89101e-09
-3.82879e-09
-3.78962e-09
-4.01576e-09
-3.92195e-09
-3.84277e-09
-3.80788e-09
-3.80752e-09
-3.9677e-09
-3.86424e-09
-3.81822e-09
-3.82489e-09
-3.83741e-09
-3.84062e-09
-3.80719e-09
-3.82128e-09
-3.84625e-09
-3.84364e-09
-3.75987e-09
-3.81994e-09
-3.853e-09
-3.85363e-09
-3.8226e-09
-4.90249e-09
-4.51695e-09
-4.30171e-09
-4.17336e-09
-4.12556e-09
-4.80621e-09
-4.60378e-09
-4.45565e-09
-4.36561e-09
-4.31484e-09
-4.82293e-09
-4.68427e-09
-4.58499e-09
-4.50254e-09
-4.42358e-09
-4.80432e-09
-4.73705e-09
-4.65641e-09
-4.54841e-09
-4.43802e-09
-4.82666e-09
-4.78462e-09
-4.67358e-09
-4.52584e-09
-4.40502e-09
-5.69458e-09
-5.02855e-09
-4.65815e-09
-4.45126e-09
-4.35863e-09
-5.58876e-09
-5.21477e-09
-4.94491e-09
-4.74455e-09
-4.60715e-09
-5.6813e-09
-5.41283e-09
-5.16604e-09
-4.93781e-09
-4.76755e-09
-5.78713e-09
-5.54556e-09
-5.27378e-09
-5.00891e-09
-4.82961e-09
-5.87332e-09
-5.60234e-09
-5.29053e-09
-5.01134e-09
-4.85877e-09
-6.11275e-09
-5.3115e-09
-4.83611e-09
-4.51178e-09
-4.31553e-09
-6.14562e-09
-5.6117e-09
-5.1968e-09
-4.86525e-09
-4.6489e-09
-6.37204e-09
-5.91931e-09
-5.49838e-09
-5.14175e-09
-4.92002e-09
-6.5954e-09
-6.13099e-09
-5.67755e-09
-5.30814e-09
-5.10908e-09
-6.72111e-09
-6.22097e-09
-5.74901e-09
-5.39878e-09
-5.22965e-09
-6.15233e-09
-5.24606e-09
-4.65995e-09
-4.21168e-09
-3.93875e-09
-6.39071e-09
-5.71235e-09
-5.16084e-09
-4.72813e-09
-4.47233e-09
-6.80542e-09
-6.17506e-09
-5.61278e-09
-5.17271e-09
-4.92594e-09
-7.176e-09
-6.51385e-09
-5.93014e-09
-5.49834e-09
-5.26944e-09
-7.37694e-09
-6.67433e-09
-6.08846e-09
-5.6739e-09
-5.43503e-09
-6.03622e-09
-4.89376e-09
-4.17e-09
-3.6431e-09
-3.34721e-09
-6.42683e-09
-5.58447e-09
-4.89967e-09
-4.38351e-09
-4.0954e-09
-7.05567e-09
-6.24539e-09
-5.54585e-09
-5.01889e-09
-4.72459e-09
-7.5904e-09
-6.73095e-09
-6.01464e-09
-5.48573e-09
-5.16895e-09
-7.8668e-09
-6.9587e-09
-6.23602e-09
-5.68997e-09
-5.33338e-09
-5.83325e-09
-4.4359e-09
-3.5367e-09
-2.90712e-09
-2.56343e-09
-6.44468e-09
-5.36342e-09
-4.47327e-09
-3.8158e-09
-3.4532e-09
-7.26525e-09
-6.1933e-09
-5.27591e-09
-4.58932e-09
-4.19312e-09
-7.89622e-09
-6.78573e-09
-5.8515e-09
-5.1323e-09
-4.68689e-09
-8.19548e-09
-7.06035e-09
-6.1026e-09
-5.34545e-09
-4.87544e-09
-5.65204e-09
-3.98441e-09
-2.76897e-09
-1.90023e-09
-1.43454e-09
-6.58771e-09
-5.09398e-09
-3.84228e-09
-2.92484e-09
-2.41552e-09
-7.53795e-09
-6.04408e-09
-4.76193e-09
-3.8019e-09
-3.24984e-09
-8.21635e-09
-6.72326e-09
-5.41911e-09
-4.41276e-09
-3.83129e-09
-8.54565e-09
-7.05038e-09
-5.71497e-09
-4.68927e-09
-4.11616e-09
-5.48877e-09
-3.36432e-09
-1.62228e-09
-3.44382e-10
3.34031e-10
-6.77717e-09
-4.66039e-09
-2.87452e-09
-1.56169e-09
-8.34556e-10
-7.89367e-09
-5.78377e-09
-3.96857e-09
-2.61945e-09
-1.87401e-09
-8.71502e-09
-6.60995e-09
-4.76441e-09
-3.38942e-09
-2.64959e-09
-9.1411e-09
-7.02497e-09
-5.16591e-09
-3.7968e-09
-3.05961e-09
-5.06262e-09
-2.26e-09
1.9247e-10
2.01497e-09
2.97379e-09
-6.82382e-09
-3.91589e-09
-1.43637e-09
3.94441e-10
1.37982e-09
-8.29288e-09
-5.36647e-09
-2.85338e-09
-1.00648e-09
-2.11955e-11
-9.40426e-09
-6.44409e-09
-3.89675e-09
-2.03922e-09
-1.04905e-09
-9.97252e-09
-6.99703e-09
-4.44567e-09
-2.57541e-09
-1.54653e-09
-4.47935e-09
-6.57322e-10
2.71075e-09
5.17786e-09
6.44329e-09
-6.79493e-09
-2.86024e-09
5.24008e-10
3.00907e-09
4.30807e-09
-8.7619e-09
-4.75921e-09
-1.33592e-09
1.1684e-09
2.4966e-09
-1.02224e-08
-6.16017e-09
-2.68721e-09
-1.43189e-10
1.23609e-09
-1.09674e-08
-6.8774e-09
-3.36568e-09
-7.6995e-10
6.43708e-10
-4.12571e-09
1.28668e-09
5.89948e-09
9.18117e-09
1.08498e-08
-6.91664e-09
-1.51755e-09
3.11247e-09
6.47371e-09
8.21911e-09
-9.39537e-09
-3.90317e-09
7.7567e-10
4.19404e-09
6.01521e-09
-1.12072e-08
-5.6473e-09
-8.86699e-10
2.60856e-09
4.48383e-09
-1.21625e-08
-6.52763e-09
-1.69462e-09
1.83876e-09
3.70245e-09
-3.80168e-09
3.81079e-09
1.01254e-08
1.45361e-08
1.68288e-08
-7.14603e-09
3.19112e-10
6.66097e-09
1.12275e-08
1.3623e-08
-1.01916e-08
-2.63889e-09
3.77627e-09
8.44453e-09
1.09228e-08
-1.24274e-08
-4.78826e-09
1.72925e-09
6.46873e-09
8.96046e-09
-1.36261e-08
-5.88226e-09
6.90485e-10
5.42801e-09
7.91789e-09
-2.99024e-09
7.43767e-09
1.59986e-08
2.20089e-08
2.52267e-08
-7.26022e-09
2.98666e-09
1.16327e-08
1.7857e-08
2.11604e-08
-1.11214e-08
-7.88622e-10
7.97806e-09
1.43354e-08
1.76883e-08
-1.39901e-08
-3.53828e-09
5.33506e-09
1.17429e-08
1.51053e-08
-1.55168e-08
-4.97375e-09
3.92557e-09
1.03445e-08
1.37475e-08
-1.38073e-09
1.25555e-08
2.4102e-08
3.23947e-08
3.6869e-08
-7.19436e-09
6.74144e-09
1.85172e-08
2.70301e-08
3.15435e-08
-1.2319e-08
1.76995e-09
1.37395e-08
2.24073e-08
2.69576e-08
-1.61271e-08
-1.87257e-09
1.02192e-08
1.89573e-08
2.35533e-08
-1.81388e-08
-3.80837e-09
8.32464e-09
1.71144e-08
2.17731e-08
1.09107e-09
1.95971e-08
3.5219e-08
4.66291e-08
5.26809e-08
-7.03208e-09
1.18434e-08
2.78877e-08
3.95155e-08
4.56178e-08
-1.4046e-08
5.1788e-09
2.15456e-08
3.33793e-08
3.95692e-08
-1.92081e-08
2.90444e-10
1.68439e-08
2.88197e-08
3.51076e-08
-2.19718e-08
-2.3397e-09
1.43242e-08
2.63988e-08
3.27802e-08
4.16778e-09
2.90992e-08
5.02686e-08
6.57872e-08
7.38905e-08
-6.99693e-09
1.86344e-08
4.04773e-08
5.63146e-08
6.45879e-08
-1.66526e-08
9.67176e-09
3.20652e-08
4.8242e-08
5.67008e-08
-2.3731e-08
3.09737e-09
2.58413e-08
4.22952e-08
5.09363e-08
-2.75501e-08
-4.40899e-10
2.25202e-08
3.91564e-08
4.79096e-08
7.63726e-09
4.15381e-08
7.02975e-08
9.13481e-08
1.02318e-07
-7.45086e-09
2.75816e-08
5.73588e-08
7.89453e-08
9.02479e-08
-2.05113e-08
1.56432e-08
4.63185e-08
6.85053e-08
8.01469e-08
-3.01241e-08
6.8503e-09
3.81727e-08
6.08526e-08
7.27773e-08
-3.52426e-08
2.14227e-09
3.38337e-08
5.67912e-08
6.88805e-08
1.18395e-08
5.79274e-08
9.70944e-08
1.25625e-07
1.4056e-07
-8.4717e-09
3.94909e-08
8.01806e-08
1.09637e-07
1.25127e-07
-2.59587e-08
2.3699e-08
6.58886e-08
9.64172e-08
1.1254e-07
-3.89252e-08
1.19849e-08
5.52863e-08
8.66167e-08
1.03186e-07
-4.58725e-08
5.67384e-09
4.96073e-08
8.13849e-08
9.82335e-08
1.77193e-08
8.00919e-08
1.33359e-07
1.71967e-07
1.92333e-07
-9.67479e-09
5.55132e-08
1.11321e-07
1.51428e-07
1.72735e-07
-3.33133e-08
3.46814e-08
9.31525e-08
1.35221e-07
1.57742e-07
-5.09547e-08
1.90383e-08
7.93426e-08
1.22627e-07
1.45829e-07
-6.05785e-08
1.05254e-08
7.19039e-08
1.1597e-07
1.39609e-07
2.6093e-08
1.09947e-07
1.82798e-07
2.3525e-07
2.63293e-07
-1.02391e-08
7.67648e-08
1.54199e-07
2.08084e-07
2.376e-07
-4.19874e-08
4.95896e-08
1.31974e-07
1.89679e-07
2.21774e-07
-6.5892e-08
2.85536e-08
1.13855e-07
1.73044e-07
2.05999e-07
-7.89826e-08
1.69983e-08
1.04246e-07
1.64707e-07
1.98478e-07
3.90638e-08
1.49801e-07
2.51858e-07
3.23603e-07
3.6337e-07
-6.30802e-09
1.02635e-07
2.14491e-07
2.82372e-07
3.24063e-07
-4.74142e-08
6.794e-08
1.90025e-07
2.67229e-07
3.15577e-07
-7.85547e-08
3.88103e-08
1.65697e-07
2.42643e-07
2.91289e-07
-9.57318e-08
2.26082e-08
1.53762e-07
2.32791e-07
2.83407e-07
6.5608e-08
2.04357e-07
3.55413e-07
4.53966e-07
5.13363e-07
1.50485e-08
1.25203e-07
3.0383e-07
3.68402e-07
4.32704e-07
-3.55211e-08
8.31643e-08
2.86143e-07
3.80472e-07
4.61052e-07
-7.18976e-08
3.88282e-08
2.51958e-07
3.32811e-07
4.11549e-07
-9.29223e-08
1.42404e-08
2.38986e-07
3.2392e-07
4.089e-07
1.2256e-07
2.85749e-07
5.21126e-07
6.52915e-07
7.44022e-07
7.47506e-08
1.2876e-07
4.36328e-07
4.50253e-07
5.65203e-07
1.08956e-08
8.95168e-08
4.55113e-07
5.46354e-07
6.91781e-07
-2.26684e-08
1.11383e-08
4.05049e-07
4.33843e-07
5.80474e-07
-4.80809e-08
-2.96954e-08
3.9713e-07
4.37578e-07
6.00978e-07
2.24295e-07
4.11494e-07
7.75477e-07
9.41488e-07
1.0823e-06
2.02686e-07
1.11104e-07
6.24296e-07
5.20746e-07
7.31576e-07
9.36071e-08
9.51022e-08
7.269e-07
7.82561e-07
1.04967e-06
8.90439e-08
-4.63647e-08
6.46333e-07
5.46513e-07
8.29142e-07
4.92139e-08
-1.1944e-07
6.58821e-07
5.77529e-07
8.91107e-07
3.57421e-07
5.64508e-07
1.12867e-06
1.33636e-06
1.55636e-06
5.90112e-07
-8.259e-08
9.22779e-07
5.6442e-07
9.65404e-07
1.81338e-07
8.00231e-08
1.12902e-06
1.11204e-06
1.60326e-06
2.96833e-07
-1.09189e-07
9.9149e-07
7.00794e-07
1.20419e-06
1.91334e-07
-2.63185e-07
1.05103e-06
7.47485e-07
1.31547e-06
4.22357e-07
8.34926e-07
1.58516e-06
1.92336e-06
2.22319e-06
1.37021e-06
-2.33299e-07
1.39544e-06
6.51129e-07
1.28376e-06
2.20988e-07
1.14637e-07
1.73199e-06
1.61789e-06
2.49339e-06
6.87521e-07
-4.21678e-08
1.51522e-06
9.7851e-07
1.8276e-06
3.78548e-07
-4.5999e-07
1.65741e-06
9.44346e-07
1.92935e-06
3.17267e-06
2.37498e-06
2.51355e-06
3.259e-06
3.44516e-06
7.39636e-06
3.41018e-07
4.08879e-06
1.8271e-06
3.18036e-06
2.32151e-06
8.37666e-07
3.2423e-06
2.68455e-06
4.38577e-06
3.56316e-06
1.10749e-06
3.23349e-06
1.91138e-06
3.96792e-06
2.44144e-06
-5.42165e-07
3.06046e-06
1.16658e-06
2.8109e-06
-6.40736e-06
-3.94864e-06
-1.72753e-06
-8.60847e-07
5.86343e-07
-1.47702e-06
-5.08035e-06
-3.86644e-06
-4.01926e-06
-3.5334e-06
-6.76996e-06
-3.57112e-06
-1.23988e-06
-1.59094e-07
2.12148e-06
-5.37864e-06
-3.5689e-06
-2.85179e-06
-1.6994e-06
-7.76986e-07
-5.93786e-06
-3.40333e-06
-1.07283e-06
3.09656e-07
2.54865e-06
1.59991e-05
1.40727e-05
5.79275e-06
1.45555e-05
1.0403e-05
5.0815e-05
1.50849e-06
2.12998e-05
7.0916e-06
1.1828e-05
8.81879e-06
6.69923e-06
1.01701e-05
1.04789e-05
1.85722e-05
1.90155e-05
1.50406e-05
1.25169e-05
8.88056e-06
2.02684e-05
1.2567e-05
1.09427e-07
1.19466e-05
1.35261e-06
4.44355e-06
-2.73516e-05
-2.32315e-05
-1.65071e-06
-1.23257e-05
1.46111e-07
-5.19383e-05
-1.51143e-05
-2.30365e-05
-1.00087e-05
-1.3002e-05
-2.1382e-05
-9.17219e-06
-4.74374e-06
-3.41527e-06
7.37597e-08
-2.20359e-05
-1.52061e-05
-1.24752e-05
-4.81079e-06
-1.18943e-05
-2.30831e-05
-6.52818e-06
-7.32069e-06
-6.5298e-07
1.01597e-05
4.52925e-05
6.3584e-05
-3.47952e-05
4.63004e-05
-3.39346e-06
0.00036139
-3.27753e-05
6.43573e-05
4.8842e-06
4.34802e-06
-8.01318e-06
1.86602e-05
5.46282e-06
1.87799e-05
7.16674e-05
4.35852e-05
9.68586e-05
3.00166e-06
1.58416e-05
0.000104559
1.01384e-05
-8.95029e-06
3.9499e-05
-6.06142e-06
-4.89643e-05
0.00117191
0.00098125
0.000497444
0.000897869
0.00059673
0.00125332
0.000694546
0.000707539
0.000683216
0.00107671
0.00107225
0.000719858
0.000479648
0.000740086
0.000867891
0.000668389
0.000621306
0.000706995
0.000928956
0.00111273
0.000989162
0.000657601
0.000586303
0.000997362
0.00110628
0.0012203
0.00149795
0.00151105
0.00171881
0.00144179
0.00125409
0.00154112
0.00136589
0.00159738
0.00177538
0.00149539
0.00172644
0.00176585
0.00198503
0.00174121
0.00140604
0.00155189
0.00200219
0.00202694
0.00183215
0.00210124
0.00196838
0.00176961
0.00206168
0.00213595
0.00203906
0.00228237
0.00242723
0.00231002
0.00234565
0.00217187
0.00227996
0.00217793
0.00253917
0.0023665
0.00316823
0.00243763
0.00252792
0.00262076
0.0024346
0.00293557
0.00248541
0.00278406
0.00263662
0.00255693
0.00299403
0.00260402
0.00273834
0.002545
0.0027179
0.00363461
0.00327525
0.00319049
0.00271431
0.00334838
0.0030009
0.00365363
0.00305837
0.00333961
0.00306289
0.00361124
0.00304823
0.00286336
0.0030373
0.00289483
0.00331141
0.00309793
0.00306721
0.00324167
0.00303809
0.00360895
0.00319161
0.00300987
0.00318042
0.00316195
0.00417493
0.00413185
0.00428432
0.00328103
0.00409659
0.00383352
0.00451523
0.00432764
0.00450902
0.00440738
0.00427327
0.00394582
0.00415656
0.00387319
0.00404093
0.00397211
0.00380208
0.00348692
0.00377587
0.00305125
0.00433994
0.0038735
0.00370274
0.00385175
0.00296841
0.00496148
0.00473243
0.00479719
0.00474887
0.00534489
0.00502847
0.00475322
0.00485438
0.00498664
0.00528908
0.00487932
0.00456096
0.00485823
0.00487098
0.00507181
0.00462826
0.00442801
0.00448558
0.00464807
0.00552476
0.00442603
0.00445098
0.00438982
0.00442961
0.00451593
0.00554239
0.00524085
0.0053343
0.00565671
0.00547919
0.00521097
0.0051374
0.00537952
0.00531894
0.00529108
0.00479167
0.00514754
0.00570394
0.00528013
0.00538208
0.0052435
0.00533949
0.00525988
0.00559445
0.00527129
0.00434804
0.0054561
0.00529316
0.004783
0.00508223
0.00569026
0.00583363
0.00574241
0.00577133
0.00553258
0.00547611
0.00594579
0.00584105
0.00572676
0.00530039
0.0052666
0.00612851
0.00580221
0.00612811
0.00553094
0.0059037
0.00589657
0.00574634
0.00581076
0.00552487
0.00559977
0.00623495
0.00588684
0.00608321
0.00493287
0.00595194
0.00652589
0.00658087
0.00592453
0.00717371
0.00644891
0.00641564
0.0063732
0.00624363
0.00648005
0.00664019
0.00657701
0.00612511
0.00615379
0.00622016
0.00651367
0.00658278
0.00616811
0.00599134
0.00637518
0.00634639
0.00686065
0.00601561
0.00610217
0.0058522
0.00692847
0.00695409
0.00702245
0.00706857
0.0070585
0.00695831
0.00706265
0.0069748
0.00689829
0.00706637
0.00697211
0.00713127
0.00708514
0.00699456
0.00698148
0.00704859
0.00709594
0.00692249
0.00647528
0.00705999
0.00706316
0.00713779
0.00708627
0.00667547
0.00709481
0.007142
0.00716391
0.00705081
0.00710813
0.00703254
0.00714715
0.00718611
0.00714978
0.00712102
0.00713281
0.00713769
0.00715893
0.00713007
0.00719664
0.00711959
0.00714183
0.00715596
0.0071245
0.00711809
0.00712248
0.00715505
0.00713975
0.00712781
0.00715197
0.00715489
0.00709609
0.00710441
0.00708834
0.00707166
0.00706229
0.00711978
0.00710956
0.00709907
0.00708199
0.00707624
0.0071096
0.00710693
0.00711373
0.00707226
0.00709144
0.00711907
0.00711776
0.00710989
0.00710723
0.007105
0.00711717
0.00711513
0.00710821
0.00708792
0.00710555
0.00709526
0.00709835
0.00709143
0.00708547
0.00706659
0.00710153
0.00710715
0.00709864
0.00709129
0.00708696
0.0071038
0.0071085
0.00710442
0.00710587
0.00709481
0.0071103
0.00710989
0.00710711
0.00710347
0.00710156
0.00711538
0.00710998
0.00711043
0.00711107
0.00710872
0.00709528
0.00709668
0.00709333
0.00709054
0.00708706
0.00710114
0.00710067
0.00709706
0.00709384
0.00709117
0.00710317
0.00710222
0.00710064
0.00709464
0.00709582
0.0071059
0.00710477
0.00710338
0.00710081
0.0070997
0.00710819
0.00710518
0.007105
0.00710024
0.00710157
0.00709552
0.00709673
0.00709416
0.00709311
0.00709067
0.00709883
0.00709902
0.00709681
0.00709552
0.00709393
0.00710074
0.00710006
0.00709911
0.00709718
0.00709649
0.00710275
0.00710192
0.00710102
0.00709955
0.00709884
0.00710404
0.00710245
0.00710221
0.0071005
0.00710024
0.00709611
0.00709672
0.00709503
0.00709466
0.00709359
0.00709811
0.00709816
0.00709673
0.00709616
0.00709532
0.00709945
0.00709895
0.00709827
0.00709728
0.00709688
0.00710074
0.00710013
0.00709956
0.00709868
0.00709829
0.00710148
0.00710054
0.0071003
0.00709927
0.00709912
0.00709649
0.00709666
0.00709571
0.00709547
0.00709497
0.00709771
0.00709758
0.00709681
0.00709643
0.00709603
0.00709862
0.00709826
0.00709781
0.00709725
0.00709703
0.00709943
0.00709898
0.00709864
0.00709809
0.00709789
0.00709987
0.00709929
0.00709911
0.00709849
0.00709839
0.0070967
0.00709662
0.00709615
0.00709591
0.0070957
0.00709745
0.00709725
0.00709686
0.00709657
0.00709638
0.00709806
0.00709779
0.0070975
0.00709717
0.00709704
0.00709857
0.00709826
0.00709804
0.0070977
0.00709758
0.00709884
0.00709849
0.00709833
0.00709797
0.00709789
0.00709679
0.00709663
0.00709638
0.00709621
0.00709609
0.00709726
0.00709708
0.00709685
0.00709666
0.00709656
0.00709767
0.00709748
0.00709729
0.00709709
0.007097
0.007098
0.00709779
0.00709763
0.00709743
0.00709736
0.00709817
0.00709796
0.00709783
0.00709761
0.00709755
0.0070968
0.00709666
0.00709651
0.00709639
0.00709632
0.00709712
0.00709698
0.00709683
0.00709671
0.00709665
0.0070974
0.00709726
0.00709713
0.00709701
0.00709695
0.00709762
0.00709748
0.00709736
0.00709724
0.00709719
0.00709774
0.0070976
0.00709749
0.00709736
0.00709732
0.00709679
0.00709668
0.00709658
0.0070965
0.00709646
0.00709701
0.00709691
0.00709681
0.00709673
0.00709669
0.00709721
0.00709711
0.00709702
0.00709694
0.0070969
0.00709736
0.00709726
0.00709718
0.0070971
0.00709706
0.00709744
0.00709735
0.00709726
0.00709719
0.00709715
0.00709678
0.0070967
0.00709663
0.00709658
0.00709655
0.00709694
0.00709686
0.00709679
0.00709674
0.00709671
0.00709708
0.00709701
0.00709694
0.00709689
0.00709686
0.00709718
0.00709711
0.00709705
0.007097
0.00709697
0.00709724
0.00709717
0.00709711
0.00709706
0.00709703
0.00709677
0.00709671
0.00709666
0.00709662
0.0070966
0.00709688
0.00709683
0.00709678
0.00709674
0.00709672
0.00709698
0.00709693
0.00709688
0.00709685
0.00709683
0.00709705
0.00709701
0.00709696
0.00709693
0.00709691
0.00709709
0.00709705
0.007097
0.00709697
0.00709695
0.00709676
0.00709672
0.00709668
0.00709666
0.00709664
0.00709684
0.0070968
0.00709677
0.00709674
0.00709673
0.00709691
0.00709687
0.00709684
0.00709682
0.0070968
0.00709696
0.00709693
0.0070969
0.00709687
0.00709686
0.00709699
0.00709696
0.00709693
0.0070969
0.00709689
0.00709675
0.00709672
0.00709669
0.00709668
0.00709667
0.00709681
0.00709678
0.00709676
0.00709674
0.00709673
0.00709686
0.00709683
0.00709681
0.00709679
0.00709678
0.0070969
0.00709687
0.00709685
0.00709683
0.00709682
0.00709692
0.00709689
0.00709687
0.00709685
0.00709684
0.00709674
0.00709672
0.0070967
0.00709669
0.00709668
0.00709679
0.00709677
0.00709675
0.00709674
0.00709673
0.00709682
0.0070968
0.00709679
0.00709677
0.00709677
0.00709685
0.00709683
0.00709682
0.0070968
0.0070968
0.00709687
0.00709685
0.00709683
0.00709682
0.00709681
0.00709674
0.00709672
0.00709671
0.0070967
0.00709669
0.00709677
0.00709675
0.00709674
0.00709673
0.00709673
0.0070968
0.00709678
0.00709677
0.00709676
0.00709675
0.00709682
0.0070968
0.00709679
0.00709678
0.00709678
0.00709683
0.00709681
0.0070968
0.00709679
0.00709679
0.00709673
0.00709672
0.00709671
0.0070967
0.0070967
0.00709676
0.00709674
0.00709673
0.00709673
0.00709672
0.00709677
0.00709676
0.00709676
0.00709675
0.00709674
0.00709679
0.00709678
0.00709677
0.00709676
0.00709676
0.0070968
0.00709679
0.00709678
0.00709677
0.00709677
0.00709673
0.00709672
0.00709671
0.00709671
0.0070967
0.00709674
0.00709674
0.00709673
0.00709672
0.00709672
0.00709676
0.00709675
0.00709674
0.00709674
0.00709674
0.00709677
0.00709676
0.00709675
0.00709675
0.00709675
0.00709677
0.00709677
0.00709676
0.00709676
0.00709675
0.00709672
0.00709672
0.00709671
0.00709671
0.00709671
0.00709674
0.00709673
0.00709673
0.00709672
0.00709672
0.00709675
0.00709674
0.00709674
0.00709673
0.00709673
0.00709675
0.00709675
0.00709674
0.00709674
0.00709674
0.00709676
0.00709675
0.00709675
0.00709674
0.00709674
0.00709672
0.00709672
0.00709671
0.00709671
0.00709671
0.00709673
0.00709672
0.00709672
0.00709672
0.00709672
0.00709674
0.00709673
0.00709673
0.00709673
0.00709673
0.00709674
0.00709674
0.00709673
0.00709673
0.00709673
0.00709674
0.00709674
0.00709674
0.00709674
0.00709673
0.00709672
0.00709671
0.00709671
0.00709671
0.00709671
0.00709672
0.00709672
0.00709672
0.00709672
0.00709672
0.00709673
0.00709673
0.00709672
0.00709672
0.00709672
0.00709673
0.00709673
0.00709673
0.00709673
0.00709673
0.00709673
0.00709673
0.00709673
0.00709673
0.00709673
0.00709671
0.00709671
0.00709671
0.00709671
0.00709671
0.00709672
0.00709672
0.00709672
0.00709671
0.00709671
0.00709672
0.00709672
0.00709672
0.00709672
0.00709672
0.00709673
0.00709672
0.00709672
0.00709672
0.00709672
0.00709673
0.00709673
0.00709672
0.00709672
0.00709672
0.00709671
0.00709671
0.00709671
0.00709671
0.00709671
0.00709671
0.00709671
0.00709671
0.00709671
0.00709671
0.00709672
0.00709672
0.00709672
0.00709671
0.00709671
0.00709672
0.00709672
0.00709672
0.00709672
0.00709672
0.00709672
0.00709672
0.00709672
0.00709672
0.00709672
0.00709671
0.00709671
0.00709671
0.00709671
0.00709671
0.00709671
0.00709671
0.00709671
0.00709671
0.00709671
0.00709671
0.00709671
0.00709671
0.00709671
0.00709671
0.00709672
0.00709671
0.00709671
0.00709671
0.00709671
0.00709672
0.00709672
0.00709671
0.00709671
0.00709671
0.00709671
0.00709671
0.00709671
0.0070967
0.0070967
0.00709671
0.00709671
0.00709671
0.00709671
0.00709671
0.00709671
0.00709671
0.00709671
0.00709671
0.00709671
0.00709671
0.00709671
0.00709671
0.00709671
0.00709671
0.00709671
0.00709671
0.00709671
0.00709671
0.00709671
0.0070967
0.0070967
0.0070967
0.0070967
0.0070967
0.00709671
0.00709671
0.00709671
0.0070967
0.0070967
0.00709671
0.00709671
0.00709671
0.00709671
0.00709671
0.00709671
0.00709671
0.00709671
0.00709671
0.00709671
0.00709671
0.00709671
0.00709671
0.00709671
0.00709671
0.0070967
0.0070967
0.0070967
0.0070967
0.0070967
0.0070967
0.0070967
0.0070967
0.0070967
0.0070967
0.00709671
0.0070967
0.0070967
0.0070967
0.0070967
0.00709671
0.00709671
0.0070967
0.0070967
0.0070967
0.00709671
0.00709671
0.00709671
0.00709671
0.0070967
0.0070967
0.0070967
0.0070967
0.0070967
0.0070967
0.0070967
0.0070967
0.0070967
0.0070967
0.0070967
0.0070967
0.0070967
0.0070967
0.0070967
0.0070967
0.0070967
0.0070967
0.0070967
0.0070967
0.0070967
0.0070967
0.0070967
0.0070967
0.0070967
0.0070967
0.0070967
0.0070967
0.0070967
0.0070967
0.0070967
0.0070967
0.0070967
0.0070967
0.0070967
0.0070967
0.0070967
0.0070967
0.0070967
0.0070967
0.0070967
0.0070967
0.0070967
0.0070967
0.0070967
0.0070967
0.0070967
0.0070967
0.0070967
0.0070967
0.0070967
0.0070967
0.0070967
0.0070967
0.0070967
0.0070967
0.0070967
0.0070967
0.0070967
0.0070967
0.0070967
0.0070967
0.0070967
0.0070967
0.0070967
0.0070967
0.0070967
0.0070967
0.0070967
0.0070967
0.0070967
0.0070967
0.0070967
0.0070967
0.0070967
0.0070967
0.0070967
0.0070967
0.0070967
0.00709669
0.00709669
0.0070967
0.0070967
0.0070967
0.0070967
0.0070967
0.0070967
0.0070967
0.0070967
0.0070967
0.0070967
0.0070967
0.0070967
0.0070967
0.0070967
0.0070967
0.0070967
0.0070967
0.0070967
0.0070967
0.0070967
0.00709669
0.00709669
0.00709669
0.00709669
0.00709669
0.00709669
0.00709669
0.00709669
0.00709669
0.00709669
0.00709669
0.00709669
0.00709669
0.00709669
0.00709669
0.00709669
0.00709669
0.00709669
0.00709669
0.00709669
0.00709669
0.00709669
0.00709669
0.00709669
0.00709669
0.00709669
0.00709669
0.00709669
0.00709669
0.00709669
0.00709669
0.00709669
0.00709669
0.00709669
0.00709669
0.00709669
0.00709669
0.00709669
0.00709669
0.00709669
0.00709669
0.00709669
0.00709669
0.00709669
0.00709669
0.00709669
0.00709669
0.00709669
0.00709669
0.00709669
0.00709669
0.00709669
0.00709669
0.00709669
0.00709669
0.00709669
0.00709669
0.00709669
0.00709669
0.00709669
0.00709669
0.00709669
0.00709669
0.00709669
0.00709669
0.00709669
0.00709669
0.00709669
0.00709669
0.00709669
0.00709669
0.00709669
0.00709669
0.00709669
0.00709669
0.00709669
0.00709669
0.00709669
0.00709669
0.00709669
0.00709669
0.00709669
0.00709669
0.00709669
0.00709669
0.00709669
0.00709669
0.00709669
0.00709669
0.00709669
0.00709669
0.00709669
0.00709669
0.00709669
0.00709669
0.00709669
0.00709669
0.00709669
0.00709669
0.00709669
0.00709669
0.00709669
0.00709669
0.00709669
0.00709669
0.00709669
0.00709669
0.00709669
0.00709669
0.00709669
0.00709669
0.00709669
0.00709669
0.00709669
0.00709669
0.00709669
0.00709669
0.00709669
0.00709669
0.00709669
0.00709669
0.00709669
0.00709669
0.00709669
0.00709669
0.00709669
0.00709669
0.00709669
0.00709669
0.00709669
0.00709669
0.00709669
0.00709669
0.00709669
0.00709669
0.00709669
0.00709669
0.00709669
0.00709669
0.00709669
0.00709669
0.00709669
0.00709669
0.00709669
0.00709669
0.00709669
0.00709669
0.00709669
0.00709669
0.00709669
0.00709669
0.00709669
0.00709669
0.00709669
0.00709669
0.00709669
0.00709669
0.00709669
0.00709669
0.00709669
0.00709669
0.00709669
0.00709669
0.00709669
0.00709669
0.00709669
0.00709669
0.00709669
0.00709669
0.00709669
0.00709669
0.00709669
0.00709669
0.00709669
0.00709669
)
;

boundaryField
{
    inlet
    {
        type            zeroGradient;
    }
    outlet
    {
        type            fixedValue;
        value           uniform 0;
    }
    repeat_boundary
    {
        type            zeroGradient;
    }
    procBoundary3to1
    {
        type            processor;
        value           nonuniform List<scalar> 
450
(
-4.34657e-10
-2.55578e-10
-1.71311e-10
-1.56057e-10
-1.76278e-10
-1.09618e-09
-7.72867e-10
-6.23209e-10
-6.12039e-10
-6.5842e-10
-1.35861e-09
-1.19457e-09
-1.13698e-09
-1.16029e-09
-1.19195e-09
-1.65491e-09
-1.57578e-09
-1.56928e-09
-1.58784e-09
-1.57722e-09
-2.23287e-09
-1.99105e-09
-1.89449e-09
-1.86032e-09
-1.81712e-09
-2.72477e-09
-2.36364e-09
-2.20542e-09
-2.13181e-09
-2.07653e-09
-2.85255e-09
-2.68415e-09
-2.58763e-09
-2.52627e-09
-2.48083e-09
-2.98166e-09
-3.05325e-09
-3.05632e-09
-3.03532e-09
-3.0075e-09
-3.35133e-09
-3.51065e-09
-3.54133e-09
-3.52128e-09
-3.48229e-09
-3.78145e-09
-3.95976e-09
-3.92535e-09
-3.84222e-09
-3.77758e-09
-4.20265e-09
-4.32255e-09
-4.1779e-09
-4.02831e-09
-3.96173e-09
-4.62265e-09
-4.57527e-09
-4.33676e-09
-4.14053e-09
-4.0474e-09
-4.87989e-09
-4.65751e-09
-4.31988e-09
-4.0349e-09
-3.85515e-09
-4.8707e-09
-4.4762e-09
-3.9826e-09
-3.57472e-09
-3.32837e-09
-4.50368e-09
-3.9729e-09
-3.3418e-09
-2.85223e-09
-2.59016e-09
-3.7902e-09
-3.22257e-09
-2.5175e-09
-1.95379e-09
-1.64925e-09
-3.21796e-09
-2.41493e-09
-1.50482e-09
-7.51933e-10
-3.22959e-10
-3.11734e-09
-1.54141e-09
-8.85115e-11
1.04689e-09
1.70153e-09
-2.98399e-09
-2.90424e-10
2.01079e-09
3.71324e-09
4.67095e-09
-2.32481e-09
1.57243e-09
4.89354e-09
7.29722e-09
8.5871e-09
-1.18324e-09
4.11475e-09
8.63705e-09
1.19032e-08
1.35917e-08
4.24826e-10
7.56331e-09
1.36527e-08
1.8058e-08
2.03015e-08
2.70152e-09
1.23442e-08
2.05645e-08
2.654e-08
2.96056e-08
5.95722e-09
1.89555e-08
3.00988e-08
3.8274e-08
4.25327e-08
1.04026e-08
2.80055e-08
4.31962e-08
5.43231e-08
6.01491e-08
1.62909e-08
4.02264e-08
6.08297e-08
7.57909e-08
8.3642e-08
2.40843e-08
5.64484e-08
8.42011e-08
1.04319e-07
1.14924e-07
3.39441e-08
7.78282e-08
1.15234e-07
1.42415e-07
1.56731e-07
4.65203e-08
1.06063e-07
1.56356e-07
1.93134e-07
2.12312e-07
6.29926e-08
1.43049e-07
2.10244e-07
2.60116e-07
2.85551e-07
8.29038e-08
1.90178e-07
2.79007e-07
3.46467e-07
3.7938e-07
1.02026e-07
2.45279e-07
3.60249e-07
4.49265e-07
4.90346e-07
1.06965e-07
2.94814e-07
4.43725e-07
5.5475e-07
6.07593e-07
7.84126e-08
3.06227e-07
5.19471e-07
6.43782e-07
7.23996e-07
1.36134e-08
2.11611e-07
6.04806e-07
6.84436e-07
8.38988e-07
-4.20566e-08
-6.67286e-09
7.56269e-07
6.45737e-07
1.00473e-06
6.25418e-07
-4.89746e-07
1.7645e-06
1.60807e-06
3.2624e-06
-6.15958e-06
-3.99314e-06
-4.47341e-06
-4.76548e-06
-4.56648e-06
4.57622e-06
-5.72738e-06
8.69997e-06
4.27232e-06
1.6405e-05
-2.1444e-05
-6.64414e-07
-1.65798e-05
-1.27855e-05
-2.06059e-05
-1.18109e-05
-7.78734e-05
5.4908e-05
-5.71564e-06
7.33552e-05
0.000666795
0.00065635
0.0011861
0.000824397
0.00083316
0.00211331
0.00193151
0.00210729
0.0016291
0.00168126
0.00261143
0.00231227
0.00233448
0.0025481