/*--------------------------------*- C++ -*----------------------------------*\
| =========                 |                                                 |
| \\      /  F ield         | OpenFOAM: The Open Source CFD Toolbox           |
|  \\    /   O peration     | Version:  5.x                                   |
|   \\  /    A nd           | Web:      www.OpenFOAM.org                      |
|    \\/     M anipulation  |                                                 |
\*---------------------------------------------------------------------------*/
FoamFile
{
    version     2.0;
    format      ascii;
    class       volVectorField;
    location    "60000";
    object      stored_U;
}
// * * * * * * * * * * * * * * * * * * * * * * * * * * * * * * * * * * * * * //

dimensions      [0 1 -1 0 0 0 0];

internalField   nonuniform List<vector> 
2250
(
(-1.60361e-11 2.78872e-10 -0.000999999)
(-1.0901e-10 2.20935e-10 -0.000999999)
(-4.40762e-11 2.22476e-10 -0.001)
(-2.653e-11 2.16208e-10 -0.001)
(-8.02218e-12 2.13653e-10 -0.001)
(-7.98128e-11 1.5713e-10 -0.000999999)
(-5.7562e-11 2.04413e-10 -0.000999999)
(-4.81667e-11 1.98188e-10 -0.000999999)
(-2.96478e-11 1.97619e-10 -0.000999999)
(-1.10293e-11 1.92785e-10 -0.000999999)
(-7.83088e-11 1.68851e-10 -0.000999999)
(-6.7931e-11 1.64675e-10 -0.000999999)
(-5.0841e-11 1.63117e-10 -0.000999999)
(-3.14908e-11 1.62266e-10 -0.000999999)
(-1.24073e-11 1.60065e-10 -0.000999999)
(-7.87788e-11 9.99008e-11 -0.000999998)
(-6.32816e-11 1.06165e-10 -0.000999998)
(-5.05538e-11 1.05177e-10 -0.000999999)
(-3.23539e-11 1.03797e-10 -0.000999999)
(-1.28914e-11 1.02169e-10 -0.000999999)
(-7.80586e-11 3.53563e-11 -0.000999998)
(-6.24842e-11 3.76075e-11 -0.000999998)
(-5.31059e-11 3.59818e-11 -0.000999998)
(-3.42451e-11 3.50244e-11 -0.000999999)
(-1.38161e-11 3.40471e-11 -0.000999999)
(-7.46828e-11 7.66899e-10 -0.000999999)
(-2.86089e-10 6.36799e-10 -0.000999999)
(-1.35621e-10 6.36786e-10 -0.001)
(-8.40019e-11 6.19741e-10 -0.001)
(-2.78631e-11 6.12237e-10 -0.001)
(-2.09545e-10 4.76599e-10 -0.000999999)
(-1.82831e-10 5.75315e-10 -0.000999999)
(-1.45704e-10 5.62361e-10 -0.000999999)
(-9.16319e-11 5.59597e-10 -0.000999999)
(-3.4549e-11 5.49308e-10 -0.000999999)
(-2.17091e-10 4.65457e-10 -0.000999998)
(-2.00351e-10 4.59554e-10 -0.000999999)
(-1.51302e-10 4.57387e-10 -0.000999999)
(-9.5957e-11 4.55421e-10 -0.000999999)
(-3.70742e-11 4.51125e-10 -0.000999999)
(-2.20203e-10 2.84519e-10 -0.000999998)
(-1.90879e-10 2.95643e-10 -0.000999998)
(-1.49783e-10 2.94018e-10 -0.000999998)
(-9.69981e-11 2.91185e-10 -0.000999999)
(-3.79798e-11 2.87132e-10 -0.000999999)
(-2.21974e-10 1.00188e-10 -0.000999998)
(-1.90346e-10 1.03466e-10 -0.000999998)
(-1.55487e-10 1.00264e-10 -0.000999998)
(-1.02061e-10 9.75729e-11 -0.000999998)
(-4.04686e-11 9.48114e-11 -0.000999999)
(-2.69468e-10 1.21923e-09 -0.000999999)
(-4.58953e-10 1.09381e-09 -0.000999999)
(-2.52597e-10 1.10385e-09 -0.001)
(-1.62044e-10 1.09262e-09 -0.001)
(-5.85673e-11 1.08689e-09 -0.001)
(-3.89688e-10 9.04146e-10 -0.000999999)
(-3.51405e-10 1.01539e-09 -0.000999999)
(-2.70046e-10 9.98847e-10 -0.000999999)
(-1.74602e-10 9.8902e-10 -0.000999999)
(-6.47688e-11 9.77723e-10 -0.000999999)
(-3.98855e-10 8.0483e-10 -0.000999998)
(-3.64226e-10 8.02515e-10 -0.000999999)
(-2.7888e-10 7.97449e-10 -0.000999999)
(-1.81289e-10 7.93823e-10 -0.000999999)
(-6.80522e-11 7.8679e-10 -0.000999999)
(-3.97418e-10 5.07412e-10 -0.000999998)
(-3.58744e-10 5.12455e-10 -0.000999998)
(-2.78645e-10 5.09071e-10 -0.000999998)
(-1.83677e-10 5.06312e-10 -0.000999999)
(-7.0254e-11 5.00207e-10 -0.000999999)
(-3.98401e-10 1.76081e-10 -0.000999998)
(-3.61755e-10 1.76037e-10 -0.000999998)
(-2.84512e-10 1.72333e-10 -0.000999998)
(-1.88824e-10 1.69806e-10 -0.000999998)
(-7.30215e-11 1.66616e-10 -0.000999998)
(-4.53858e-10 1.79025e-09 -0.000999999)
(-6.99867e-10 1.66209e-09 -0.001)
(-4.31418e-10 1.66208e-09 -0.001)
(-2.71757e-10 1.6595e-09 -0.001)
(-9.68552e-11 1.65741e-09 -0.001)
(-6.00163e-10 1.38699e-09 -0.000999999)
(-5.72093e-10 1.51599e-09 -0.000999999)
(-4.30242e-10 1.51771e-09 -0.000999999)
(-2.81455e-10 1.51029e-09 -0.000999999)
(-1.02433e-10 1.49793e-09 -0.000999999)
(-6.16804e-10 1.19792e-09 -0.000999998)
(-5.6909e-10 1.20816e-09 -0.000999998)
(-4.36976e-10 1.20485e-09 -0.000999999)
(-2.88644e-10 1.20129e-09 -0.000999999)
(-1.06395e-10 1.19238e-09 -0.000999999)
(-6.12929e-10 7.67195e-10 -0.000999998)
(-5.65104e-10 7.66624e-10 -0.000999998)
(-4.36966e-10 7.64314e-10 -0.000999998)
(-2.915e-10 7.62482e-10 -0.000999998)
(-1.08971e-10 7.55871e-10 -0.000999999)
(-6.08592e-10 2.64031e-10 -0.000999998)
(-5.70815e-10 2.59774e-10 -0.000999998)
(-4.40291e-10 2.5728e-10 -0.000999998)
(-2.95043e-10 2.55778e-10 -0.000999998)
(-1.11307e-10 2.52782e-10 -0.000999998)
(-5.96696e-10 2.59486e-09 -0.000999999)
(-1.01812e-09 2.40433e-09 -0.001)
(-6.79738e-10 2.37614e-09 -0.001)
(-4.27176e-10 2.37168e-09 -0.001)
(-1.48923e-10 2.36895e-09 -0.001)
(-8.19214e-10 1.94316e-09 -0.000999999)
(-8.52025e-10 2.10357e-09 -0.000999999)
(-6.38359e-10 2.13966e-09 -0.000999999)
(-4.16618e-10 2.15151e-09 -0.000999999)
(-1.48994e-10 2.14437e-09 -0.001)
(-8.58536e-10 1.66335e-09 -0.000999998)
(-8.21667e-10 1.69849e-09 -0.000999998)
(-6.31598e-10 1.70722e-09 -0.000999999)
(-4.18321e-10 1.71005e-09 -0.000999999)
(-1.52045e-10 1.70213e-09 -0.000999999)
(-8.56296e-10 1.07299e-09 -0.000999998)
(-8.08067e-10 1.07949e-09 -0.000999998)
(-6.26597e-10 1.08269e-09 -0.000999998)
(-4.1825e-10 1.08444e-09 -0.000999998)
(-1.53564e-10 1.07897e-09 -0.000999998)
(-8.50744e-10 3.68151e-10 -0.000999997)
(-8.10445e-10 3.64539e-10 -0.000999998)
(-6.25442e-10 3.64414e-10 -0.000999998)
(-4.19141e-10 3.64649e-10 -0.000999998)
(-1.55167e-10 3.62074e-10 -0.000999998)
(-9.01704e-10 3.52051e-09 -0.001)
(-1.32398e-09 3.33497e-09 -0.001)
(-9.58831e-10 3.29732e-09 -0.001)
(-6.09944e-10 3.29213e-09 -0.001)
(-2.10798e-10 3.28494e-09 -0.001)
(-1.1022e-09 2.73771e-09 -0.000999999)
(-1.17682e-09 2.88272e-09 -0.000999999)
(-8.933e-10 2.93939e-09 -0.000999999)
(-5.80398e-10 2.97122e-09 -0.001)
(-2.04703e-10 2.97167e-09 -0.001)
(-1.15386e-09 2.27221e-09 -0.000999998)
(-1.12229e-09 2.3276e-09 -0.000999998)
(-8.70121e-10 2.35036e-09 -0.000999998)
(-5.71892e-10 2.36391e-09 -0.000999999)
(-2.04776e-10 2.3582e-09 -0.000999999)
(-1.15336e-09 1.46934e-09 -0.000999997)
(-1.09857e-09 1.486e-09 -0.000999997)
(-8.56701e-10 1.49688e-09 -0.000999998)
(-5.67843e-10 1.50295e-09 -0.000999998)
(-2.05901e-10 1.49451e-09 -0.000999998)
(-1.14782e-09 5.02737e-10 -0.000999997)
(-1.09268e-09 5.04002e-10 -0.000999997)
(-8.51427e-10 5.06684e-10 -0.000999997)
(-5.70266e-10 5.0768e-10 -0.000999998)
(-2.10065e-10 5.02218e-10 -0.000999998)
(-1.49707e-09 4.55765e-09 -0.001)
(-1.60885e-09 4.48965e-09 -0.001)
(-1.25065e-09 4.48295e-09 -0.001)
(-8.0409e-10 4.48965e-09 -0.001)
(-2.77707e-10 4.48125e-09 -0.001)
(-1.54e-09 3.89596e-09 -0.000999998)
(-1.54492e-09 3.96984e-09 -0.000999999)
(-1.19856e-09 4.01911e-09 -0.000999999)
(-7.7452e-10 4.05378e-09 -0.001)
(-2.70119e-10 4.05505e-09 -0.001)
(-1.56754e-09 3.11539e-09 -0.000999997)
(-1.48571e-09 3.17033e-09 -0.000999998)
(-1.16635e-09 3.20053e-09 -0.000999998)
(-7.60209e-10 3.21982e-09 -0.000999998)
(-2.68819e-10 3.21183e-09 -0.000999999)
(-1.55392e-09 2.01179e-09 -0.000999996)
(-1.45963e-09 2.03127e-09 -0.000999997)
(-1.14867e-09 2.04501e-09 -0.000999997)
(-7.56894e-10 2.05025e-09 -0.000999998)
(-2.72102e-10 2.03457e-09 -0.000999998)
(-1.54626e-09 6.88802e-10 -0.000999996)
(-1.44961e-09 6.93342e-10 -0.000999996)
(-1.14493e-09 6.96035e-10 -0.000999997)
(-7.65254e-10 6.94832e-10 -0.000999997)
(-2.80268e-10 6.84921e-10 -0.000999997)
(-2.18562e-09 6.01468e-09 -0.001)
(-2.07442e-09 6.02727e-09 -0.001)
(-1.62604e-09 6.04816e-09 -0.001)
(-1.0414e-09 6.06562e-09 -0.001)
(-3.58087e-10 6.05726e-09 -0.001)
(-2.15232e-09 5.35261e-09 -0.000999998)
(-2.01578e-09 5.41862e-09 -0.000999999)
(-1.58579e-09 5.4623e-09 -0.000999999)
(-1.01893e-09 5.49103e-09 -0.000999999)
(-3.52675e-10 5.48568e-09 -0.001)
(-2.1411e-09 4.25787e-09 -0.000999996)
(-1.96471e-09 4.30326e-09 -0.000999997)
(-1.55316e-09 4.33425e-09 -0.000999998)
(-1.00732e-09 4.35014e-09 -0.000999998)
(-3.53218e-10 4.33581e-09 -0.000999998)
(-2.11381e-09 2.74355e-09 -0.000999995)
(-1.93919e-09 2.76133e-09 -0.000999996)
(-1.53836e-09 2.77176e-09 -0.000999996)
(-1.00892e-09 2.77166e-09 -0.000999997)
(-3.5901e-10 2.75111e-09 -0.000999997)
(-2.10336e-09 9.43528e-10 -0.000999995)
(-1.93262e-09 9.46475e-10 -0.000999995)
(-1.53954e-09 9.46381e-10 -0.000999996)
(-1.02074e-09 9.42313e-10 -0.000999996)
(-3.68077e-10 9.30912e-10 -0.000999996)
(-2.8846e-09 8.18643e-09 -0.000999999)
(-2.80786e-09 8.15575e-09 -0.001)
(-2.15554e-09 8.16697e-09 -0.001)
(-1.36986e-09 8.17518e-09 -0.001)
(-4.68022e-10 8.15906e-09 -0.001)
(-2.92344e-09 7.19974e-09 -0.000999997)
(-2.6806e-09 7.3262e-09 -0.000999998)
(-2.10711e-09 7.37583e-09 -0.000999999)
(-1.35036e-09 7.39994e-09 -0.000999999)
(-4.65491e-10 7.38598e-09 -0.000999999)
(-2.90049e-09 5.77473e-09 -0.000999995)
(-2.63174e-09 5.8227e-09 -0.000999996)
(-2.08113e-09 5.8489e-09 -0.000999997)
(-1.34546e-09 5.85731e-09 -0.000999997)
(-4.68435e-10 5.83784e-09 -0.000999997)
(-2.88121e-09 3.71874e-09 -0.000999994)
(-2.60614e-09 3.73659e-09 -0.000999994)
(-2.07176e-09 3.74267e-09 -0.000999995)
(-1.35004e-09 3.73942e-09 -0.000999996)
(-4.74221e-10 3.71955e-09 -0.000999996)
(-2.8721e-09 1.28281e-09 -0.000999993)
(-2.60274e-09 1.28339e-09 -0.000999994)
(-2.07395e-09 1.28143e-09 -0.000999994)
(-1.35885e-09 1.2773e-09 -0.000999995)
(-4.80615e-10 1.26777e-09 -0.000999995)
(-3.85136e-09 1.11059e-08 -0.000999999)
(-3.69792e-09 1.10427e-08 -0.001)
(-2.8605e-09 1.10398e-08 -0.001)
(-1.82866e-09 1.10272e-08 -0.001)
(-6.25081e-10 1.09989e-08 -0.001)
(-3.93408e-09 9.80317e-09 -0.000999996)
(-3.58545e-09 9.91409e-09 -0.000999997)
(-2.82289e-09 9.94642e-09 -0.000999998)
(-1.81248e-09 9.96394e-09 -0.000999999)
(-6.23701e-10 9.94445e-09 -0.000999999)
(-3.91902e-09 7.83726e-09 -0.000999993)
(-3.55463e-09 7.87534e-09 -0.000999994)
(-2.80975e-09 7.88945e-09 -0.000999995)
(-1.81148e-09 7.89314e-09 -0.000999996)
(-6.26372e-10 7.87315e-09 -0.000999996)
(-3.92019e-09 5.03598e-09 -0.000999991)
(-3.53285e-09 5.05344e-09 -0.000999992)
(-2.80407e-09 5.05704e-09 -0.000999993)
(-1.81336e-09 5.05602e-09 -0.000999994)
(-6.2911e-10 5.04117e-09 -0.000999994)
(-3.91708e-09 1.7373e-09 -0.00099999)
(-3.52684e-09 1.73806e-09 -0.000999991)
(-2.80136e-09 1.73702e-09 -0.000999992)
(-1.81421e-09 1.73556e-09 -0.000999993)
(-6.30815e-10 1.72961e-09 -0.000999993)
(-5.34565e-09 1.49049e-08 -0.000999999)
(-4.77284e-09 1.49209e-08 -0.001)
(-3.80565e-09 1.49218e-08 -0.001)
(-2.46335e-09 1.49024e-08 -0.001)
(-8.47205e-10 1.48679e-08 -0.001)
(-5.34065e-09 1.34865e-08 -0.000999994)
(-4.80553e-09 1.34624e-08 -0.000999996)
(-3.80985e-09 1.34486e-08 -0.000999997)
(-2.45317e-09 1.34554e-08 -0.000999998)
(-8.43218e-10 1.34351e-08 -0.000999999)
(-5.32569e-09 1.06658e-08 -0.00099999)
(-4.81065e-09 1.06702e-08 -0.000999992)
(-3.81141e-09 1.06677e-08 -0.000999993)
(-2.45093e-09 1.06709e-08 -0.000999994)
(-8.42756e-10 1.06532e-08 -0.000999995)
(-5.33792e-09 6.84157e-09 -0.000999988)
(-4.80308e-09 6.85038e-09 -0.000999989)
(-3.80779e-09 6.85208e-09 -0.000999991)
(-2.44672e-09 6.85587e-09 -0.000999992)
(-8.41099e-10 6.8452e-09 -0.000999992)
(-5.33681e-09 2.35653e-09 -0.000999986)
(-4.79105e-09 2.35915e-09 -0.000999988)
(-3.79807e-09 2.36e-09 -0.000999989)
(-2.44e-09 2.36181e-09 -0.00099999)
(-8.3931e-10 2.35786e-09 -0.000999991)
(-7.41003e-09 2.00724e-08 -0.000999998)
(-6.33529e-09 2.01817e-08 -0.001)
(-5.1351e-09 2.0196e-08 -0.001)
(-3.338e-09 2.01866e-08 -0.001)
(-1.15214e-09 2.01522e-08 -0.001)
(-7.2992e-09 1.84342e-08 -0.000999992)
(-6.4867e-09 1.82893e-08 -0.000999994)
(-5.17623e-09 1.82387e-08 -0.000999996)
(-3.33286e-09 1.82351e-08 -0.000999997)
(-1.14397e-09 1.82136e-08 -0.000999998)
(-7.27522e-09 1.45187e-08 -0.000999987)
(-6.53075e-09 1.4481e-08 -0.000999989)
(-5.18766e-09 1.44662e-08 -0.000999991)
(-3.32761e-09 1.44701e-08 -0.000999992)
(-1.13986e-09 1.44515e-08 -0.000999993)
(-7.28406e-09 9.30899e-09 -0.000999983)
(-6.53838e-09 9.30538e-09 -0.000999985)
(-5.18518e-09 9.30488e-09 -0.000999987)
(-3.31908e-09 9.31133e-09 -0.000999988)
(-1.13565e-09 9.29859e-09 -0.000999989)
(-7.27929e-09 3.20559e-09 -0.000999981)
(-6.52254e-09 3.20817e-09 -0.000999983)
(-5.1711e-09 3.20981e-09 -0.000999985)
(-3.30973e-09 3.21271e-09 -0.000999986)
(-1.13338e-09 3.2072e-09 -0.000999987)
(-1.00659e-08 2.72912e-08 -0.000999997)
(-8.69416e-09 2.73991e-08 -0.001)
(-7.0153e-09 2.74069e-08 -0.001)
(-4.54128e-09 2.74041e-08 -0.001)
(-1.5652e-09 2.73628e-08 -0.00100001)
(-9.96044e-09 2.49857e-08 -0.000999988)
(-8.85383e-09 2.48283e-08 -0.000999992)
(-7.06476e-09 2.47706e-08 -0.000999994)
(-4.5407e-09 2.47619e-08 -0.000999996)
(-1.55699e-09 2.47301e-08 -0.000999997)
(-9.94338e-09 1.97201e-08 -0.000999981)
(-8.90921e-09 1.96705e-08 -0.000999984)
(-7.0793e-09 1.96512e-08 -0.000999987)
(-4.53349e-09 1.96547e-08 -0.000999989)
(-1.55104e-09 1.9627e-08 -0.00099999)
(-9.95212e-09 1.2657e-08 -0.000999976)
(-8.9217e-09 1.26491e-08 -0.000999979)
(-7.07803e-09 1.26468e-08 -0.000999982)
(-4.52611e-09 1.26503e-08 -0.000999984)
(-1.54795e-09 1.26303e-08 -0.000999985)
(-9.94289e-09 4.36117e-09 -0.000999973)
(-8.90268e-09 4.36322e-09 -0.000999977)
(-7.06375e-09 4.36442e-09 -0.000999979)
(-4.51723e-09 4.36462e-09 -0.000999981)
(-1.5449e-09 4.35711e-09 -0.000999982)
(-1.36214e-08 3.72343e-08 -0.000999995)
(-1.20065e-08 3.72946e-08 -0.001)
(-9.61839e-09 3.72755e-08 -0.001)
(-6.19578e-09 3.7265e-08 -0.00100001)
(-2.13128e-09 3.72042e-08 -0.00100001)
(-1.35688e-08 3.3851e-08 -0.000999984)
(-1.21436e-08 3.37142e-08 -0.000999988)
(-9.66122e-09 3.36656e-08 -0.000999992)
(-6.19995e-09 3.36548e-08 -0.000999994)
(-2.12667e-09 3.36018e-08 -0.000999996)
(-1.3577e-08 2.67759e-08 -0.000999974)
(-1.21918e-08 2.67368e-08 -0.000999979)
(-9.6746e-09 2.6719e-08 -0.000999982)
(-6.19373e-09 2.6718e-08 -0.000999985)
(-2.1215e-09 2.66748e-08 -0.000999986)
(-1.35973e-08 1.71983e-08 -0.000999967)
(-1.21992e-08 1.71972e-08 -0.000999972)
(-9.67648e-09 1.71928e-08 -0.000999975)
(-6.19131e-09 1.71891e-08 -0.000999978)
(-2.11993e-09 1.71619e-08 -0.000999979)
(-1.35858e-08 5.92724e-09 -0.000999964)
(-1.21746e-08 5.93148e-09 -0.000999968)
(-9.66316e-09 5.93045e-09 -0.000999971)
(-6.17996e-09 5.92734e-09 -0.000999974)
(-2.11308e-09 5.91982e-09 -0.000999975)
(-1.85688e-08 5.07148e-08 -0.000999994)
(-1.64547e-08 5.0786e-08 -0.001)
(-1.31487e-08 5.07554e-08 -0.001)
(-8.45418e-09 5.07333e-08 -0.00100001)
(-2.90729e-09 5.06425e-08 -0.00100001)
(-1.85053e-08 4.60232e-08 -0.000999978)
(-1.66229e-08 4.58546e-08 -0.000999984)
(-1.31983e-08 4.58012e-08 -0.000999989)
(-8.46611e-09 4.5781e-08 -0.000999992)
(-2.90718e-09 4.56972e-08 -0.000999994)
(-1.85297e-08 3.64202e-08 -0.000999965)
(-1.66766e-08 3.63792e-08 -0.000999971)
(-1.32179e-08 3.63563e-08 -0.000999976)
(-8.46856e-09 3.63438e-08 -0.000999979)
(-2.90571e-09 3.62801e-08 -0.000999981)
(-1.85649e-08 2.33918e-08 -0.000999956)
(-1.66849e-08 2.33936e-08 -0.000999961)
(-1.32289e-08 2.33814e-08 -0.000999966)
(-8.47044e-09 2.33713e-08 -0.00099997)
(-2.90288e-09 2.33351e-08 -0.000999972)
(-1.85542e-08 8.05956e-09 -0.000999951)
(-1.6656e-08 8.06433e-09 -0.000999956)
(-1.32136e-08 8.05932e-09 -0.000999961)
(-8.45406e-09 8.05592e-09 -0.000999965)
(-2.89349e-09 8.04575e-09 -0.000999967)
(-2.53717e-08 6.90275e-08 -0.000999992)
(-2.2434e-08 6.91514e-08 -0.001)
(-1.79014e-08 6.91332e-08 -0.00100001)
(-1.15079e-08 6.91015e-08 -0.00100001)
(-3.95922e-09 6.89668e-08 -0.00100001)
(-2.52496e-08 6.26949e-08 -0.000999971)
(-2.26671e-08 6.24616e-08 -0.000999979)
(-1.79857e-08 6.23726e-08 -0.000999985)
(-1.15404e-08 6.23242e-08 -0.00099999)
(-3.9666e-09 6.21968e-08 -0.000999993)
(-2.52767e-08 4.9626e-08 -0.000999953)
(-2.27561e-08 4.95501e-08 -0.000999961)
(-1.8033e-08 4.95006e-08 -0.000999967)
(-1.15618e-08 4.94672e-08 -0.000999972)
(-3.97042e-09 4.93732e-08 -0.000999975)
(-2.5329e-08 3.18715e-08 -0.00099994)
(-2.279e-08 3.18495e-08 -0.000999948)
(-1.80621e-08 3.18197e-08 -0.000999954)
(-1.15698e-08 3.18017e-08 -0.000999959)
(-3.96803e-09 3.17446e-08 -0.000999962)
(-2.53222e-08 1.09783e-08 -0.000999933)
(-2.27659e-08 1.09729e-08 -0.000999941)
(-1.80445e-08 1.09629e-08 -0.000999947)
(-1.1554e-08 1.09581e-08 -0.000999952)
(-3.96159e-09 1.09379e-08 -0.000999955)
(-3.44739e-08 9.41023e-08 -0.00099999)
(-3.05856e-08 9.41905e-08 -0.001)
(-2.43284e-08 9.41603e-08 -0.00100001)
(-1.56344e-08 9.4106e-08 -0.00100002)
(-5.38207e-09 9.39074e-08 -0.00100002)
(-3.43824e-08 8.53687e-08 -0.000999961)
(-3.08476e-08 8.51059e-08 -0.000999971)
(-2.44661e-08 8.49594e-08 -0.00099998)
(-1.57009e-08 8.48635e-08 -0.000999987)
(-5.3987e-09 8.46769e-08 -0.00099999)
(-3.44446e-08 6.76504e-08 -0.000999936)
(-3.09947e-08 6.75137e-08 -0.000999947)
(-2.45627e-08 6.74152e-08 -0.000999956)
(-1.57507e-08 6.73482e-08 -0.000999962)
(-5.41029e-09 6.72036e-08 -0.000999966)
(-3.4535e-08 4.34623e-08 -0.000999918)
(-3.10793e-08 4.33869e-08 -0.000999929)
(-2.46227e-08 4.33274e-08 -0.000999938)
(-1.57791e-08 4.3287e-08 -0.000999944)
(-5.41706e-09 4.31921e-08 -0.000999948)
(-3.45353e-08 1.49709e-08 -0.000999909)
(-3.10725e-08 1.49436e-08 -0.000999919)
(-2.46135e-08 1.49241e-08 -0.000999928)
(-1.57732e-08 1.49089e-08 -0.000999935)
(-5.41525e-09 1.48744e-08 -0.000999939)
(-4.66108e-08 1.28436e-07 -0.000999986)
(-4.17067e-08 1.28336e-07 -0.001)
(-3.30565e-08 1.28219e-07 -0.00100001)
(-2.12294e-08 1.2811e-07 -0.00100002)
(-7.31155e-09 1.27821e-07 -0.00100003)
(-4.67141e-08 1.16161e-07 -0.000999947)
(-4.19651e-08 1.15898e-07 -0.000999961)
(-3.32565e-08 1.15682e-07 -0.000999973)
(-2.13379e-08 1.15522e-07 -0.000999982)
(-7.3382e-09 1.15252e-07 -0.000999987)
(-4.68888e-08 9.21822e-08 -0.000999914)
(-4.2185e-08 9.19698e-08 -0.000999928)
(-3.34221e-08 9.18021e-08 -0.00099994)
(-2.14327e-08 9.16768e-08 -0.000999949)
(-7.36517e-09 9.14554e-08 -0.000999954)
(-4.70585e-08 5.92543e-08 -0.000999889)
(-4.23405e-08 5.9107e-08 -0.000999904)
(-3.35375e-08 5.89963e-08 -0.000999916)
(-2.15026e-08 5.891e-08 -0.000999925)
(-7.38736e-09 5.87672e-08 -0.00099993)
(-4.70767e-08 2.04136e-08 -0.000999876)
(-4.23657e-08 2.03567e-08 -0.000999891)
(-3.35525e-08 2.03159e-08 -0.000999903)
(-2.15082e-08 2.02824e-08 -0.000999912)
(-7.38543e-09 2.02349e-08 -0.000999917)
(-6.30273e-08 1.75195e-07 -0.000999982)
(-5.67587e-08 1.74824e-07 -0.001)
(-4.49048e-08 1.74545e-07 -0.00100002)
(-2.88275e-08 1.74338e-07 -0.00100003)
(-9.9301e-09 1.7392e-07 -0.00100004)
(-6.34281e-08 1.58082e-07 -0.000999928)
(-5.70679e-08 1.57762e-07 -0.000999948)
(-4.51911e-08 1.57441e-07 -0.000999964)
(-2.89913e-08 1.5719e-07 -0.000999976)
(-9.97259e-09 1.56803e-07 -0.000999982)
(-6.37985e-08 1.25567e-07 -0.000999883)
(-5.73995e-08 1.25241e-07 -0.000999902)
(-4.54616e-08 1.24963e-07 -0.000999919)
(-2.91564e-08 1.24745e-07 -0.000999931)
(-1.00225e-08 1.24423e-07 -0.000999937)
(-6.41007e-08 8.07467e-08 -0.00099985)
(-5.76652e-08 8.05008e-08 -0.000999869)
(-4.567e-08 8.03032e-08 -0.000999886)
(-2.92831e-08 8.0154e-08 -0.000999898)
(-1.00596e-08 7.9951e-08 -0.000999904)
(-6.41636e-08 2.78191e-08 -0.000999832)
(-5.77385e-08 2.77234e-08 -0.000999852)
(-4.57184e-08 2.76479e-08 -0.000999868)
(-2.92998e-08 2.7595e-08 -0.00099988)
(-1.00585e-08 2.75289e-08 -0.000999887)
(-8.546e-08 2.38663e-07 -0.000999976)
(-7.70449e-08 2.38027e-07 -0.001)
(-6.09576e-08 2.3753e-07 -0.00100002)
(-3.91314e-08 2.37173e-07 -0.00100004)
(-1.34756e-08 2.36567e-07 -0.00100005)
(-8.61677e-08 2.15265e-07 -0.000999903)
(-7.75541e-08 2.14728e-07 -0.000999929)
(-6.13934e-08 2.14217e-07 -0.000999951)
(-3.93831e-08 2.1383e-07 -0.000999967)
(-1.35477e-08 2.13276e-07 -0.000999976)
(-8.68175e-08 1.71042e-07 -0.000999841)
(-7.8092e-08 1.70506e-07 -0.000999867)
(-6.18351e-08 1.70043e-07 -0.00099989)
(-3.96503e-08 1.69691e-07 -0.000999906)
(-1.36271e-08 1.6923e-07 -0.000999915)
(-8.73246e-08 1.10015e-07 -0.000999796)
(-7.85452e-08 1.09611e-07 -0.000999822)
(-6.21864e-08 1.09278e-07 -0.000999845)
(-3.98566e-08 1.09041e-07 -0.000999861)
(-1.36875e-08 1.08739e-07 -0.00099987)
(-8.74748e-08 3.78998e-08 -0.000999772)
(-7.8688e-08 3.77478e-08 -0.000999798)
(-6.2283e-08 3.76253e-08 -0.000999821)
(-3.99053e-08 3.75434e-08 -0.000999837)
(-1.37016e-08 3.74379e-08 -0.000999847)
(-1.16091e-07 3.2485e-07 -0.000999968)
(-1.04434e-07 3.23918e-07 -0.001)
(-8.26694e-08 3.23136e-07 -0.00100003)
(-5.3058e-08 3.22553e-07 -0.00100005)
(-1.82591e-08 3.21683e-07 -0.00100007)
(-1.17143e-07 2.93237e-07 -0.000999868)
(-1.05344e-07 2.92266e-07 -0.000999904)
(-8.33728e-08 2.91422e-07 -0.000999934)
(-5.34692e-08 2.90814e-07 -0.000999956)
(-1.83885e-08 2.90004e-07 -0.000999967)
(-1.18198e-07 2.33007e-07 -0.000999784)
(-1.06249e-07 2.32102e-07 -0.00099982)
(-8.40944e-08 2.31333e-07 -0.00099985)
(-5.39e-08 2.30771e-07 -0.000999872)
(-1.85194e-08 2.30091e-07 -0.000999884)
(-1.19029e-07 1.49895e-07 -0.000999722)
(-1.07007e-07 1.4923e-07 -0.000999758)
(-8.46739e-08 1.48686e-07 -0.000999789)
(-5.42489e-08 1.48292e-07 -0.000999812)
(-1.86305e-08 1.4783e-07 -0.000999824)
(-1.19325e-07 5.16382e-08 -0.000999689)
(-1.07268e-07 5.13962e-08 -0.000999726)
(-8.48693e-08 5.12001e-08 -0.000999757)
(-5.43696e-08 5.10562e-08 -0.000999779)
(-1.86705e-08 5.08918e-08 -0.000999792)
(-1.57681e-07 4.4207e-07 -0.000999957)
(-1.41527e-07 4.40667e-07 -0.001)
(-1.12008e-07 4.3945e-07 -0.00100004)
(-7.18394e-08 4.38521e-07 -0.00100007)
(-2.47031e-08 4.37279e-07 -0.00100009)
(-1.59287e-07 3.99388e-07 -0.000999821)
(-1.4306e-07 3.97729e-07 -0.00099987)
(-1.13162e-07 3.96344e-07 -0.00099991)
(-7.25355e-08 3.95355e-07 -0.00099994)
(-2.4935e-08 3.94141e-07 -0.000999956)
(-1.60986e-07 3.17404e-07 -0.000999706)
(-1.4457e-07 3.15898e-07 -0.000999755)
(-1.14345e-07 3.14631e-07 -0.000999796)
(-7.32567e-08 3.13706e-07 -0.000999826)
(-2.5167e-08 3.12677e-07 -0.000999843)
(-1.62356e-07 2.04233e-07 -0.000999622)
(-1.45816e-07 2.03146e-07 -0.000999672)
(-1.15312e-07 2.02243e-07 -0.000999714)
(-7.3858e-08 2.01573e-07 -0.000999744)
(-2.5365e-08 2.0088e-07 -0.000999761)
(-1.629e-07 7.03708e-08 -0.000999577)
(-1.46305e-07 6.99751e-08 -0.000999627)
(-1.15698e-07 6.96455e-08 -0.00099967)
(-7.40946e-08 6.93963e-08 -0.0009997)
(-2.54367e-08 6.91556e-08 -0.000999717)
(-2.13923e-07 6.01563e-07 -0.000999941)
(-1.91736e-07 5.99347e-07 -0.00100001)
(-1.51587e-07 5.97418e-07 -0.00100006)
(-9.71265e-08 5.95938e-07 -0.0010001)
(-3.33735e-08 5.94142e-07 -0.00100012)
(-2.16512e-07 5.43768e-07 -0.000999758)
(-1.9419e-07 5.41063e-07 -0.000999823)
(-1.5347e-07 5.38805e-07 -0.000999878)
(-9.83035e-08 5.37165e-07 -0.000999918)
(-3.37759e-08 5.35327e-07 -0.000999939)
(-2.19285e-07 4.32346e-07 -0.000999601)
(-1.96697e-07 4.2985e-07 -0.000999667)
(-1.55435e-07 4.27747e-07 -0.000999724)
(-9.95319e-08 4.26198e-07 -0.000999764)
(-3.41862e-08 4.24632e-07 -0.000999787)
(-2.21578e-07 2.78296e-07 -0.000999486)
(-1.98767e-07 2.76497e-07 -0.000999554)
(-1.57066e-07 2.74978e-07 -0.000999611)
(-1.00556e-07 2.73858e-07 -0.000999653)
(-3.45232e-08 2.72805e-07 -0.000999676)
(-2.22572e-07 9.59176e-08 -0.000999425)
(-1.99675e-07 9.52564e-08 -0.000999494)
(-1.5778e-07 9.46949e-08 -0.000999552)
(-1.00991e-07 9.42855e-08 -0.000999593)
(-3.46618e-08 9.39172e-08 -0.000999617)
(-2.89797e-07 8.18455e-07 -0.000999922)
(-2.5942e-07 8.14873e-07 -0.00100001)
(-2.04788e-07 8.11768e-07 -0.00100008)
(-1.31079e-07 8.09394e-07 -0.00100013)
(-4.50179e-08 8.06735e-07 -0.00100016)
(-2.94072e-07 7.40181e-07 -0.000999672)
(-2.63332e-07 7.35786e-07 -0.00099976)
(-2.07874e-07 7.3207e-07 -0.000999834)
(-1.33053e-07 7.29325e-07 -0.000999888)
(-4.56966e-08 7.26535e-07 -0.000999917)
(-2.9868e-07 5.88977e-07 -0.000999458)
(-2.67528e-07 5.8479e-07 -0.000999549)
(-2.1118e-07 5.81247e-07 -0.000999625)
(-1.35149e-07 5.78635e-07 -0.00099968)
(-4.64063e-08 5.76219e-07 -0.00099971)
(-3.02557e-07 3.79346e-07 -0.000999302)
(-2.71033e-07 3.76316e-07 -0.000999394)
(-2.13952e-07 3.73742e-07 -0.000999473)
(-1.369e-07 3.7186e-07 -0.000999529)
(-4.6992e-08 3.7021e-07 -0.00099956)
(-3.04377e-07 1.30791e-07 -0.000999218)
(-2.7268e-07 1.29676e-07 -0.000999312)
(-2.15245e-07 1.28727e-07 -0.000999391)
(-1.37711e-07 1.28043e-07 -0.000999448)
(-4.72665e-08 1.27456e-07 -0.00099948)
(-3.91838e-07 1.11318e-06 -0.000999896)
(-3.50212e-07 1.10733e-06 -0.00100001)
(-2.75974e-07 1.10229e-06 -0.00100011)
(-1.76482e-07 1.09846e-06 -0.00100018)
(-6.06034e-08 1.09445e-06 -0.00100021)
(-3.98946e-07 1.00741e-06 -0.000999556)
(-3.56576e-07 1.00016e-06 -0.000999675)
(-2.81076e-07 9.93972e-07 -0.000999775)
(-1.79788e-07 9.89339e-07 -0.000999847)
(-6.17394e-08 9.85054e-07 -0.000999886)
(-4.06752e-07 8.02551e-07 -0.000999265)
(-3.63649e-07 7.95469e-07 -0.000999388)
(-2.86702e-07 7.89436e-07 -0.000999491)
(-1.83397e-07 7.84978e-07 -0.000999566)
(-6.29716e-08 7.81179e-07 -0.000999607)
(-4.13382e-07 5.17435e-07 -0.000999051)
(-3.69651e-07 5.12269e-07 -0.000999178)
(-2.91462e-07 5.07875e-07 -0.000999284)
(-1.8643e-07 5.04647e-07 -0.000999361)
(-6.40033e-08 5.02022e-07 -0.000999404)
(-4.16693e-07 1.78503e-07 -0.000998937)
(-3.72612e-07 1.76604e-07 -0.000999066)
(-2.93808e-07 1.74995e-07 -0.000999174)
(-1.87932e-07 1.73813e-07 -0.000999252)
(-6.45179e-08 1.72874e-07 -0.000999296)
(-5.28515e-07 1.51316e-06 -0.000999863)
(-4.71175e-07 1.50368e-06 -0.00100002)
(-3.70635e-07 1.49544e-06 -0.00100014)
(-2.36841e-07 1.48921e-06 -0.00100024)
(-8.13367e-08 1.48306e-06 -0.00100028)
(-5.40311e-07 1.37107e-06 -0.000999402)
(-4.8177e-07 1.35886e-06 -0.000999561)
(-3.79181e-07 1.34838e-06 -0.000999694)
(-2.42429e-07 1.34048e-06 -0.00099979)
(-8.32644e-08 1.33375e-06 -0.000999842)
(-5.53709e-07 1.09414e-06 -0.000999005)
(-4.9386e-07 1.08201e-06 -0.000999171)
(-3.88882e-07 1.07164e-06 -0.000999311)
(-2.4873e-07 1.06392e-06 -0.000999412)
(-8.54403e-08 1.05782e-06 -0.000999467)
(-5.65202e-07 7.06615e-07 -0.000998712)
(-5.04216e-07 6.97714e-07 -0.000998885)
(-3.97128e-07 6.90129e-07 -0.00099903)
(-2.54034e-07 6.8452e-07 -0.000999135)
(-8.72628e-08 6.80261e-07 -0.000999193)
(-5.71182e-07 2.44016e-07 -0.000998554)
(-5.09563e-07 2.40743e-07 -0.000998731)
(-4.01399e-07 2.3796e-07 -0.000998879)
(-2.56809e-07 2.35894e-07 -0.000998986)
(-8.82233e-08 2.34358e-07 -0.000999047)
(-7.10378e-07 2.05499e-06 -0.000999823)
(-6.3089e-07 2.03967e-06 -0.00100002)
(-4.95475e-07 2.02612e-06 -0.00100019)
(-3.16515e-07 2.01589e-06 -0.00100031)
(-1.08722e-07 2.00627e-06 -0.00100038)
(-7.30072e-07 1.86596e-06 -0.000999198)
(-6.4874e-07 1.84507e-06 -0.000999409)
(-5.09903e-07 1.82706e-06 -0.000999585)
(-3.26018e-07 1.81346e-06 -0.000999712)
(-1.12056e-07 1.80258e-06 -0.000999782)
(-7.53318e-07 1.49308e-06 -0.000998655)
(-6.69781e-07 1.47201e-06 -0.000998879)
(-5.26905e-07 1.45393e-06 -0.000999068)
(-3.37236e-07 1.4404e-06 -0.000999204)
(-1.15999e-07 1.43031e-06 -0.00099928)
(-7.73412e-07 9.66804e-07 -0.000998251)
(-6.87809e-07 9.51308e-07 -0.000998487)
(-5.41313e-07 9.38081e-07 -0.000998685)
(-3.46609e-07 9.28242e-07 -0.000998829)
(-1.19253e-07 9.21183e-07 -0.00099891)
(-7.84172e-07 3.34426e-07 -0.000998033)
(-6.97495e-07 3.28718e-07 -0.000998276)
(-5.49094e-07 3.23838e-07 -0.000998479)
(-3.51705e-07 3.20202e-07 -0.000998627)
(-1.21032e-07 3.17641e-07 -0.000998711)
(-9.49662e-07 2.78701e-06 -0.000999776)
(-8.39331e-07 2.76211e-06 -0.00100003)
(-6.58448e-07 2.73948e-06 -0.00100025)
(-4.20918e-07 2.72262e-06 -0.00100041)
(-1.44717e-07 2.70707e-06 -0.00100049)
(-9.83124e-07 2.53896e-06 -0.000998931)
(-8.69273e-07 2.50311e-06 -0.000999206)
(-6.82652e-07 2.47181e-06 -0.000999438)
(-4.36974e-07 2.44822e-06 -0.000999605)
(-1.50547e-07 2.42999e-06 -0.000999698)
(-1.02409e-06 2.04043e-06 -0.000998189)
(-9.06477e-07 2.00341e-06 -0.000998488)
(-7.13097e-07 1.97154e-06 -0.000998741)
(-4.57588e-07 1.94744e-06 -0.000998926)
(-1.57992e-07 1.93017e-06 -0.000999032)
(-1.05942e-06 1.32673e-06 -0.00099763)
(-9.38068e-07 1.29959e-06 -0.000997949)
(-7.38363e-07 1.2764e-06 -0.00099822)
(-4.74161e-07 1.2591e-06 -0.000998417)
(-1.63807e-07 1.24719e-06 -0.000998531)
(-1.07878e-06 4.60099e-07 -0.000997324)
(-9.55529e-07 4.50106e-07 -0.000997656)
(-7.52468e-07 4.41519e-07 -0.000997936)
(-4.83502e-07 4.3509e-07 -0.000998141)
(-1.67112e-07 4.3072e-07 -0.00099826)
(-1.25969e-06 3.77027e-06 -0.000999731)
(-1.10623e-06 3.73069e-06 -0.00100005)
(-8.68591e-07 3.69184e-06 -0.00100033)
(-5.57094e-07 3.66481e-06 -0.00100053)
(-1.92204e-07 3.6384e-06 -0.00100065)
(-1.31719e-06 3.45328e-06 -0.000998595)
(-1.15552e-06 3.39192e-06 -0.000998938)
(-9.0806e-07 3.33677e-06 -0.000999239)
(-5.83066e-07 3.29567e-06 -0.000999451)
(-2.02224e-07 3.26372e-06 -0.000999578)
(-1.39107e-06 2.79459e-06 -0.000997577)
(-1.22273e-06 2.72896e-06 -0.000997965)
(-9.64523e-07 2.67207e-06 -0.000998309)
(-6.23055e-07 2.62834e-06 -0.00099856)
(-2.17288e-07 2.59747e-06 -0.000998715)
(-1.45362e-06 1.82903e-06 -0.000996795)
(-1.27791e-06 1.78153e-06 -0.000997218)
(-1.00833e-06 1.74098e-06 -0.00099759)
(-6.51861e-07 1.71075e-06 -0.00099786)
(-2.27501e-07 1.69038e-06 -0.000998028)
(-1.48845e-06 6.36812e-07 -0.000996361)
(-1.30922e-06 6.19376e-07 -0.000996804)
(-1.03392e-06 6.04181e-07 -0.000997195)
(-6.69156e-07 5.92705e-07 -0.000997479)
(-2.3378e-07 5.84967e-07 -0.000997657)
(-1.65323e-06 5.0738e-06 -0.000999719)
(-1.43715e-06 5.01851e-06 -0.00100008)
(-1.13715e-06 4.94745e-06 -0.00100044)
(-7.361e-07 4.90909e-06 -0.0010007)
(-2.56698e-07 4.86111e-06 -0.00100087)
(-1.75159e-06 4.69316e-06 -0.000998211)
(-1.51326e-06 4.59091e-06 -0.000998573)
(-1.19585e-06 4.49113e-06 -0.000998973)
(-7.7121e-07 4.42019e-06 -0.000999213)
(-2.72531e-07 4.36069e-06 -0.000999388)
(-1.88994e-06 3.84053e-06 -0.000996808)
(-1.63916e-06 3.72299e-06 -0.000997262)
(-1.30742e-06 3.62011e-06 -0.000997753)
(-8.56719e-07 3.53829e-06 -0.000998093)
(-3.06614e-07 3.47968e-06 -0.000998347)
(-2.00216e-06 2.53914e-06 -0.000995701)
(-1.73351e-06 2.45713e-06 -0.000996211)
(-1.38006e-06 2.38704e-06 -0.000996743)
(-9.03533e-07 2.3357e-06 -0.000997102)
(-3.23248e-07 2.30113e-06 -0.000997367)