FoamFile
{version 2.0; format ascii;class vectorField; location 0;object  v;}
356
(
( -1.6261e-06 -3.8658e-07 -1.08604e-06 )  
( -4.96611e-08 -2.04378e-06 -9.53922e-07 )  
( 7.3862e-07 -1.95465e-06 -4.21839e-07 )  
( -9.92442e-08 -2.73781e-06 1.54426e-07 )  
( 4.06413e-07 -1.02406e-06 -1.17382e-07 )  
( 1.43828e-07 -1.79668e-06 -5.81094e-07 )  
( 9.38695e-07 -2.13101e-06 -1.6034e-06 )  
( 6.0548e-08 -1.64333e-06 7.14397e-07 )  
( 4.06989e-07 -3.07373e-06 -5.66422e-07 )  
( 4.79723e-07 -4.01308e-06 -6.84751e-08 )  
( -4.61037e-06 -1.9004e-06 -4.89869e-07 )  
( 1.48755e-06 -5.33402e-06 -1.03309e-06 )  
( -7.04013e-07 -3.61323e-06 -9.0772e-07 )  
( -3.10134e-07 -2.26065e-06 -7.70705e-07 )  
( 1.42652e-07 -1.68547e-06 -9.08363e-07 )  
( 1.23226e-06 -2.56457e-06 -1.00346e-07 )  
( -6.66006e-07 -2.76322e-06 -5.88259e-07 )  
( -8.48667e-07 -5.09987e-07 -1.3327e-06 )  
( 7.74391e-08 -3.31669e-06 -1.33757e-06 )  
( -4.05723e-06 -3.45532e-06 5.08336e-07 )  
( -1.00206e-07 -3.16898e-06 -1.04941e-06 )  
( -9.42988e-07 -4.26658e-07 4.09114e-07 )  
( -1.47733e-06 -2.90805e-06 -1.89071e-06 )  
( 1.47856e-06 -2.67175e-06 -6.6823e-07 )  
( 1.01337e-06 -2.07105e-06 -1.27957e-08 )  
( 9.17299e-07 -2.05581e-06 2.33785e-07 )  
( 1.7976e-06 -2.44279e-06 -4.32104e-07 )  
( -2.34395e-07 -1.88386e-06 -1.14687e-06 )  
( 6.27251e-06 -5.52879e-06 9.02705e-07 )  
( 1.58365e-06 -4.02691e-06 1.0331e-06 )  
( 2.87237e-06 -4.47053e-06 -4.13577e-06 )  
( -2.4747e-07 -4.58412e-06 -1.46562e-06 )  
( -2.02011e-06 -5.29162e-06 -2.21083e-06 )  
( 7.94716e-07 -3.47178e-06 1.24534e-06 )  
( 3.16228e-06 -4.00406e-06 -1.82674e-06 )  
( -8.31489e-06 -6.9467e-06 -3.15603e-07 )  
( -1.60267e-06 -3.9687e-06 -2.23386e-06 )  
( 7.96842e-07 -6.25079e-06 7.45283e-08 )  
( 8.37829e-07 -9.59018e-06 1.41096e-06 )  
( -4.75479e-06 -2.0105e-05 6.39113e-06 )  
( -2.46697e-06 -7.13958e-06 3.75025e-06 )  
( 3.79024e-06 -4.7144e-06 -6.26235e-07 )  
( -3.79542e-06 -8.04044e-06 -5.17565e-06 )  
( -1.35996e-06 -4.31156e-06 -8.66818e-07 )  
( -2.46457e-06 -1.10015e-05 -6.47768e-06 )  
( 1.15759e-05 -3.43541e-06 -2.13743e-06 )  
( -4.7529e-06 -4.9278e-06 -1.31811e-06 )  
( -7.51955e-06 -3.55332e-06 -2.29187e-06 )  
( -3.28463e-06 -7.13195e-06 -1.3201e-06 )  
( -2.19991e-06 -6.5379e-06 -1.89501e-06 )  
( -1.02878e-06 -2.03934e-06 -2.44683e-06 )  
( 1.43986e-06 -6.0048e-06 -1.47195e-06 )  
( -5.28683e-07 -4.50679e-06 -2.58238e-06 )  
( 1.80342e-06 -4.53917e-06 -1.70325e-06 )  
( -1.77344e-06 -4.08654e-06 -2.33171e-06 )  
( 5.94918e-07 -1.06767e-05 6.8379e-08 )  
( -1.92515e-06 -1.01486e-05 -6.75936e-07 )  
( 5.76365e-07 -4.10873e-06 -2.53376e-06 )  
( 2.77062e-06 -2.1594e-06 -1.82381e-06 )  
( -3.46374e-06 -7.58411e-06 -4.7125e-06 )  
( 1.36843e-06 -5.5042e-06 -5.75195e-06 )  
( -4.43093e-07 -1.10503e-05 -2.5815e-06 )  
( -2.36357e-06 -1.26325e-05 2.88562e-06 )  
( -3.95645e-06 -6.18281e-06 -4.04787e-06 )  
( -9.07255e-08 -9.86845e-06 -2.78501e-06 )  
( -4.06176e-06 -5.76659e-06 -5.93381e-06 )  
( 1.71293e-05 -1.08724e-05 -8.03092e-07 )  
( 1.51983e-06 -1.08382e-05 -4.51209e-06 )  
( -3.1595e-06 -1.35369e-05 1.85908e-07 )  
( -1.00948e-05 -8.13467e-06 -1.44993e-06 )  
( -1.48875e-06 -5.69903e-06 -2.38942e-06 )  
( 2.26188e-06 -8.87386e-06 6.08439e-07 )  
( -1.81178e-06 -6.11727e-06 -4.793e-06 )  
( -4.18663e-06 -7.53613e-06 -2.79548e-06 )  
( -2.1221e-06 -6.46e-06 -4.37469e-06 )  
( -5.89806e-06 -9.3537e-06 -2.15343e-06 )  
( -8.32225e-06 -4.55036e-06 -3.69562e-06 )  
( -8.0563e-06 -7.54325e-06 -2.00211e-06 )  
( -9.10635e-06 -1.18082e-05 -1.97555e-07 )  
( -5.87456e-06 -6.93893e-06 -8.8178e-06 )  
( 4.2019e-06 -4.14273e-06 -3.0428e-06 )  
( -8.49923e-07 -3.18591e-06 -5.8376e-06 )  
( -2.61205e-06 -1.20889e-05 -2.87044e-06 )  
( -2.97794e-06 -6.04309e-06 -1.03928e-05 )  
( -2.49091e-07 -5.35054e-06 -3.01e-06 )  
( -7.7643e-06 -5.22402e-06 -8.18072e-06 )  
( 3.82354e-06 -5.52837e-06 -1.09397e-05 )  
( 2.04379e-06 -7.87728e-06 -7.0956e-06 )  
( -9.59694e-09 -6.44657e-06 -1.01232e-05 )  
( -5.64825e-06 -1.08077e-05 -1.43983e-05 )  
( -1.03977e-05 -6.12604e-06 -8.52098e-06 )  
( -4.33417e-06 -5.65073e-06 -7.34528e-06 )  
( -5.09748e-06 -2.46997e-05 2.80784e-06 )  
( -6.3608e-06 -7.33574e-06 -1.20009e-05 )  
( -8.78828e-06 -9.51528e-07 -7.59903e-06 )  
( -6.07488e-06 -5.71631e-06 -8.01905e-06 )  
( -2.61628e-07 -3.79187e-06 -4.79907e-06 )  
( -3.34217e-06 -4.52282e-06 -7.94362e-06 )  
( 1.92895e-06 -7.13243e-06 -1.29272e-05 )  
( -8.6564e-06 -5.21418e-06 -1.35859e-05 )  
( -7.06425e-06 -4.8e-06 -9.1322e-06 )  
( -2.53308e-06 -5.54604e-06 -1.09338e-05 )  
( -1.00368e-05 -6.66036e-06 -9.12046e-06 )  
( -6.82183e-06 -6.29373e-06 -1.49985e-05 )  
( -4.38196e-06 -5.77348e-06 -2.11521e-05 )  
( -1.71007e-05 -1.02597e-05 -9.12746e-06 )  
( -8.1405e-06 -6.86083e-06 -1.57147e-05 )  
( -6.53265e-06 -3.65099e-06 -1.10563e-05 )  
( -1.65228e-06 -1.20716e-05 -2.18732e-05 )  
( -7.51148e-06 -1.31553e-05 -4.39628e-06 )  
( -8.02172e-06 -1.2208e-05 -1.09242e-05 )  
( -7.99483e-06 -3.99881e-06 -1.50318e-05 )  
( -4.5096e-06 -5.59065e-06 -2.04756e-05 )  
( -8.29715e-06 -1.01954e-05 -1.3828e-05 )  
( -5.65573e-06 -1.03559e-06 -1.79288e-05 )  
( -7.4755e-06 -4.07523e-06 -2.125e-05 )  
( -1.20071e-05 -2.40385e-06 -2.10704e-05 )  
( -2.18623e-05 8.21025e-07 -1.39428e-05 )  
( -8.86963e-06 -5.87273e-06 -1.69787e-05 )  
( -1.30401e-05 -2.66339e-06 -9.99748e-06 )  
( -2.97273e-06 -7.47206e-07 -1.43324e-05 )  
( -1.18813e-05 -3.71075e-06 -1.69925e-05 )  
( -1.48139e-05 -7.94348e-06 -1.53824e-05 )  
( -5.96315e-06 -3.17732e-06 -2.55903e-05 )  
( -1.20845e-05 -5.51883e-06 -2.86507e-05 )  
( -1.4701e-05 -8.96612e-06 -9.28023e-06 )  
( -7.87392e-06 -3.17592e-07 -3.14979e-05 )  
( -1.57244e-06 -8.59606e-07 -1.10366e-05 )  
( -3.95881e-06 -5.78422e-06 -2.76777e-05 )  
( -2.07342e-06 -6.02007e-06 -1.15163e-05 )  
( -4.1069e-06 -6.59001e-06 -1.84374e-05 )  
( -6.01767e-06 -1.21155e-06 -2.18593e-05 )  
( -8.78438e-06 -4.3072e-06 -2.60106e-05 )  
( -9.50248e-06 -2.24768e-06 -2.17626e-05 )  
( -1.72378e-05 -2.35183e-06 -1.40372e-05 )  
( 2.75497e-06 -1.05264e-05 -2.75225e-05 )  
( -1.58531e-05 -4.79039e-06 -3.34742e-05 )  
( -2.05849e-06 1.53048e-06 -1.73163e-05 )  
( -4.94709e-06 1.32859e-06 -2.07492e-05 )  
( -1.77081e-05 1.14928e-06 -1.51098e-05 )  
( -3.93999e-06 3.36068e-06 -2.28125e-05 )  
( -1.7184e-05 -7.04657e-06 -2.03518e-05 )  
( -6.12453e-06 -3.54087e-07 -2.15642e-05 )  
( -1.05715e-05 -6.93171e-06 -2.70766e-05 )  
( -1.59856e-05 -1.80692e-06 -3.03536e-05 )  
( -1.1981e-05 -3.30907e-06 -2.61232e-05 )  
( -2.87242e-05 -5.66053e-06 -3.91422e-05 )  
( -8.35005e-06 3.5195e-06 -2.69333e-05 )  
( -4.49e-06 -3.68761e-06 -3.23782e-05 )  
( -1.43773e-05 -1.6246e-07 -2.36946e-05 )  
( -5.38455e-06 2.03664e-06 -3.43409e-05 )  
( -1.0306e-05 -5.16856e-06 -3.95431e-05 )  
( -1.3375e-05 -6.9476e-06 -2.94005e-05 )  
( -8.40764e-06 3.36043e-06 -3.71507e-05 )  
( -1.51353e-05 -5.69179e-07 -3.41951e-05 )  
( -1.11673e-06 -7.1365e-06 -4.99879e-05 )  
( -2.2051e-06 3.30574e-06 -2.72111e-05 )  
( -2.53976e-06 -8.62622e-07 -4.03247e-05 )  
( -1.03602e-05 -3.882e-06 -2.2339e-05 )  
( -1.68382e-05 -5.11043e-06 -2.39531e-05 )  
( -1.483e-05 -6.90747e-06 -4.93645e-05 )  
( -1.30124e-05 -7.50982e-06 -2.15368e-05 )  
( -1.32889e-05 1.21228e-06 -5.80013e-05 )  
( -4.23718e-06 3.31064e-07 -3.90756e-05 )  
( -9.11336e-06 -3.61347e-06 -3.77371e-05 )  
( -1.41827e-05 -1.92935e-06 -6.2094e-05 )  
( -9.34732e-06 -9.57571e-07 -3.56778e-05 )  
( -1.07214e-05 3.16562e-06 -6.02644e-05 )  
( -2.26567e-05 -3.09903e-06 -2.33111e-05 )  
( -1.34498e-05 -5.27077e-06 -5.05973e-05 )  
( -1.3287e-05 5.7605e-06 -3.59608e-05 )  
( -1.01111e-05 -3.56522e-06 -6.88906e-05 )  
( 2.62555e-06 5.92793e-07 -5.15543e-05 )  
( -1.42235e-05 7.45851e-06 -5.59906e-05 )  
( -1.43841e-05 6.09937e-07 -5.3812e-05 )  
( -1.17373e-05 -6.47414e-06 -6.30947e-05 )  
( -1.14726e-05 6.35275e-06 -7.3694e-05 )  
( -3.4148e-06 3.04817e-06 -4.34965e-05 )  
( -1.58957e-05 5.39506e-06 -3.40958e-05 )  
( -1.84007e-05 8.80715e-07 -5.02714e-05 )  
( -1.03821e-05 1.36526e-06 -5.35271e-05 )  
( -1.42139e-05 -1.20362e-07 -4.67065e-05 )  
( -6.74511e-06 -4.50642e-06 -6.76677e-05 )  
( -1.82226e-05 -2.28007e-06 -5.05834e-05 )  
( -7.4484e-06 3.27021e-06 -3.58184e-05 )  
( -1.23359e-05 2.11743e-06 -3.58869e-05 )  
( -1.2943e-05 4.478e-06 -5.46765e-05 )  
( 1.00933e-05 5.86066e-06 -6.92417e-05 )  
( 1.94047e-06 -6.43321e-06 -0.00010046 )  
( -9.12968e-06 5.45798e-06 -8.67269e-05 )  
( -1.07411e-05 -1.37315e-06 -8.05233e-05 )  
( -2.32002e-05 4.79798e-06 -6.00429e-05 )  
( -5.73266e-06 3.95076e-06 -4.93277e-05 )  
( -1.12626e-05 3.61379e-06 -6.03033e-05 )  
( -1.15591e-05 8.49667e-06 -4.92401e-05 )  
( -1.70086e-05 6.50263e-06 -7.40814e-05 )  
( -9.61871e-06 -1.07942e-06 -6.16138e-05 )  
( -1.07081e-05 -1.65671e-06 -4.42296e-05 )  
( -1.84479e-05 -1.5923e-05 -9.14752e-05 )  
( -1.89983e-05 3.3172e-06 -5.59604e-05 )  
( -1.41034e-05 5.35162e-06 -5.87889e-05 )  
( -1.96403e-05 6.58445e-06 -9.27043e-05 )  
( -1.71798e-05 7.45087e-06 -6.80342e-05 )  
( -5.39022e-06 -5.45545e-06 -0.000101302 )  
( -1.73059e-05 4.24821e-06 -7.41604e-05 )  
( -2.64684e-05 1.16258e-05 -8.12988e-05 )  
( -1.75733e-05 -1.99219e-07 -5.26318e-05 )  
( -1.66134e-05 1.09967e-05 -6.97069e-05 )  
( -1.48847e-05 6.74009e-06 -8.17438e-05 )  
( -1.48022e-05 1.39909e-05 -5.49464e-05 )  
( -1.71321e-05 1.74983e-05 -4.99934e-05 )  
( -6.35754e-06 1.13133e-05 -0.00010333 )  
( -1.1778e-05 9.18464e-07 -8.06142e-05 )  
( -8.40245e-06 1.68764e-06 -9.57906e-05 )  
( -2.3239e-05 -2.6549e-06 -7.81652e-05 )  
( -1.64597e-05 2.71505e-06 -8.06209e-05 )  
( 3.23644e-07 1.38893e-05 -7.96713e-05 )  
( -4.3327e-05 -1.05642e-05 -5.80653e-05 )  
( -1.24106e-05 -1.64136e-05 -9.44649e-05 )  
( -7.15921e-06 6.66595e-07 -0.000111602 )  
( -2.1577e-05 4.25518e-06 -6.00835e-05 )  
( -1.3435e-05 -2.11961e-06 -9.5191e-05 )  
( -1.44279e-05 2.70869e-06 -0.000107462 )  
( -9.4599e-06 1.37688e-06 -9.40106e-05 )  
( -2.29344e-06 -4.38858e-06 -9.80964e-05 )  
( -1.74031e-06 3.37909e-06 -0.000110486 )  
( 4.25786e-06 8.20676e-07 -9.61223e-05 )  
( -2.04713e-05 -1.54387e-06 -7.10566e-05 )  
( -1.07919e-05 -4.59864e-07 -8.74638e-05 )  
( -9.83972e-06 -1.93257e-07 -0.000102359 )  
( 2.942e-06 2.34536e-05 -0.000113198 )  
( -1.71827e-05 -1.442e-05 -0.000100007 )  
( -2.31996e-05 5.39037e-06 -9.91828e-05 )  
( 2.85611e-06 2.01671e-05 -0.000118468 )  
( -1.21942e-05 1.48924e-05 -9.67366e-05 )  
( -1.25323e-06 1.25978e-06 -0.000125634 )  
( -1.34942e-05 -1.42039e-05 -0.000134534 )  
( -1.02533e-05 -1.06955e-05 -0.000126298 )  
( -1.38655e-05 -7.35868e-06 -0.000128538 )  
( -6.37022e-06 2.64362e-06 -0.000115862 )  
( -1.50004e-05 7.2217e-06 -0.00010698 )  
( -1.54144e-05 5.51793e-06 -8.94926e-05 )  
( -6.53374e-06 9.38746e-07 -0.000112724 )  
( -1.89391e-05 -9.22658e-06 -0.000135162 )  
( -3.07009e-05 -1.23226e-05 -0.000101342 )  
( -1.09779e-05 3.48536e-06 -0.000116612 )  
( -1.96127e-05 -3.50094e-06 -0.000156467 )  
( -1.82731e-05 2.4086e-06 -0.000128177 )  
( 1.2141e-05 -7.76252e-06 -0.00011537 )  
( -3.32959e-05 -1.2582e-05 -0.000149401 )  
( -5.34284e-06 1.26817e-05 -0.000116707 )  
( -5.79448e-06 3.51677e-06 -0.000137989 )  
( -2.74017e-05 1.30175e-05 -9.92111e-05 )  
( -1.80921e-05 2.16125e-05 -0.000172961 )  
( 4.06854e-06 -4.14832e-06 -0.000103367 )  
( -1.3226e-05 -8.22589e-06 -0.000123408 )  
( 8.1251e-07 1.56292e-06 -0.000128218 )  
( -1.25729e-05 -5.00223e-06 -0.000118779 )  
( -1.30585e-05 1.04945e-05 -0.000122551 )  
( -7.09034e-06 -7.27448e-06 -0.000121419 )  
( -7.84242e-07 9.83102e-06 -0.000115999 )  
( 1.68011e-06 1.21466e-05 -0.000129485 )  
( -1.25629e-05 -1.36594e-06 -0.000145825 )  
( -2.89129e-06 -6.77012e-06 -0.000132905 )  
( -3.58704e-06 9.94488e-06 -0.000161497 )  
( -1.20602e-05 2.00893e-05 -0.000116393 )  
( -2.06385e-05 -1.59033e-06 -0.000145556 )  
( -1.34304e-05 5.15948e-06 -0.000137974 )  
( 4.40185e-06 -1.48283e-06 -0.000157643 )  
( -1.26791e-06 9.23378e-06 -0.000142682 )  
( -8.85942e-06 3.4471e-06 -0.000135773 )  
( 3.59077e-06 8.31533e-07 -0.000144898 )  
( -1.03145e-05 9.57771e-06 -0.000155632 )  
( -3.47303e-06 -2.51775e-06 -0.000155718 )  
( -8.48491e-06 6.18398e-06 -0.000171842 )  
( 4.06649e-07 1.09857e-05 -0.000123428 )  
( 1.29048e-05 -1.00694e-06 -0.000144359 )  
( -3.14261e-06 -2.20065e-06 -0.000148699 )  
( 1.29382e-05 -1.90375e-05 -0.000177831 )  
( 2.658e-05 -2.10814e-05 -0.000183289 )  
( -2.9234e-05 5.22127e-05 -0.000180681 )  
( 1.03676e-05 -2.73704e-06 -0.000173653 )  
( -2.01979e-06 1.09269e-05 -0.000149873 )  
( -7.3328e-06 -2.13432e-06 -0.000155972 )  
( -2.05124e-05 -8.55353e-06 -0.000158796 )  
( 4.15029e-06 1.01014e-05 -0.000146014 )  
( 7.31681e-06 -2.07449e-06 -0.000148594 )  
( -1.24681e-05 1.8095e-05 -0.000163555 )  
( -3.73263e-06 -4.00695e-07 -0.000160742 )  
( -4.89018e-06 1.51586e-05 -0.000203458 )  
( -8.28528e-06 1.57966e-05 -0.00018453 )  
( 1.31259e-05 -7.23344e-06 -0.000150869 )  
( 9.42766e-06 1.72238e-06 -0.000196813 )  
( 1.20939e-06 1.43104e-05 -0.000174999 )  
( 5.10873e-05 -2.60071e-05 -0.000203497 )  
( -9.97419e-06 1.35044e-05 -0.000207668 )  
( -2.34907e-06 3.83527e-05 -0.000222338 )  
( 3.37031e-05 -1.54928e-05 -0.000181125 )  
( -7.06291e-06 -1.26065e-06 -0.000184646 )  
( -6.04976e-06 -1.53971e-05 -0.000183603 )  
( -7.72112e-06 -1.7923e-05 -0.000185587 )  
( 2.57493e-05 -2.22282e-05 -0.000204366 )  
( 1.66153e-05 -3.29758e-05 -0.000171765 )  
( -7.89386e-07 8.68916e-06 -0.000190978 )  
( -3.70415e-06 -8.03056e-06 -0.000184752 )  
( 2.65835e-05 -1.09858e-05 -0.000193654 )  
( 4.51045e-05 -2.59802e-05 -0.000203489 )  
( 3.16835e-06 -1.92161e-05 -0.000206241 )  
( -2.63824e-06 -1.13211e-05 -0.000210662 )  
( 1.51768e-05 1.66193e-05 -0.000204827 )  
( -1.99633e-07 2.14368e-05 -0.000205576 )  
( 1.05987e-08 1.55094e-05 -0.000182828 )  
( 2.42982e-05 -5.60622e-06 -0.000187548 )  
( 3.5867e-05 1.34862e-05 -0.000164285 )  
( -5.73945e-06 -1.24012e-05 -0.000203862 )  
( 3.72234e-06 2.13875e-05 -0.000215171 )  
( 4.70981e-05 1.4724e-05 -0.000210873 )  
( 1.93573e-05 3.0756e-05 -0.000234543 )  
( 1.84852e-05 1.83894e-06 -0.000209636 )  
( -3.14517e-06 2.3746e-05 -0.000209083 )  
( 2.23766e-05 3.22621e-05 -0.000245155 )  
( 1.7986e-05 -2.44335e-05 -0.000201018 )  
( 3.34376e-05 -1.09337e-05 -0.000206684 )  
( 1.50135e-05 2.97881e-05 -0.000181447 )  
( 3.04197e-06 3.34264e-05 -0.000217571 )  
( 6.53873e-06 2.9234e-05 -0.000235508 )  
( 4.88967e-06 2.18721e-05 -0.000209908 )  
( 2.34529e-05 2.48376e-06 -0.000208622 )  
( 1.00585e-05 -2.24895e-05 -0.000181329 )  
( 1.48001e-05 2.29243e-05 -0.000222695 )  
( 1.4846e-05 2.57783e-05 -0.000207806 )  
( 4.96639e-05 -5.67475e-07 -0.000209679 )  
( 2.39011e-05 4.46975e-05 -0.000251907 )  
( 3.74408e-05 -2.21508e-05 -0.000229642 )  
( 1.02104e-05 -3.16855e-05 -0.000214761 )  
( 7.52087e-06 9.48204e-06 -0.000213934 )  
( 4.56309e-05 -7.16923e-06 -0.000219431 )  
( -1.39159e-06 1.2203e-05 -0.000248409 )  
( 2.36328e-05 3.1729e-05 -0.000229441 )  
( 3.7697e-05 -4.83434e-06 -0.000222807 )  
( -5.33809e-06 -1.49191e-05 -0.000195221 )  
( 4.5049e-05 3.23453e-05 -0.000198801 )  
( 1.39837e-05 5.48704e-06 -0.000229513 )  
( 2.15496e-05 -1.61374e-05 -0.000210836 )  
( 4.90102e-05 1.17683e-05 -0.000240495 )  
( 5.13673e-06 7.18608e-05 -0.000218689 )  
( 3.77782e-05 -1.69776e-05 -0.000212639 )  
( 7.0473e-06 4.97439e-05 -0.000234821 )  
( -6.47505e-06 -4.01988e-05 -0.000219206 )  
( -1.15398e-06 2.38388e-05 -0.000256516 )  
( -2.84906e-05 -4.13481e-05 -0.000218266 )  
( -3.03335e-05 5.76054e-05 -0.000251625 )  
( 2.25372e-07 2.58488e-05 -0.000218984 )  
( 1.54394e-05 5.16652e-05 -0.000231924 )  
( 6.06284e-05 5.16376e-05 -0.000245729 )  
( -1.59293e-05 6.62727e-06 -0.000242555 )  
)
