/*--------------------------------*- C++ -*----------------------------------*\
| =========                 |                                                 |
| \\      /  F ield         | OpenFOAM: The Open Source CFD Toolbox           |
|  \\    /   O peration     | Version:  5.x                                   |
|   \\  /    A nd           | Web:      www.OpenFOAM.org                      |
|    \\/     M anipulation  |                                                 |
\*---------------------------------------------------------------------------*/
FoamFile
{
    version     2.0;
    format      ascii;
    class       surfaceScalarField;
    location    "8000";
    object      phi;
}
// * * * * * * * * * * * * * * * * * * * * * * * * * * * * * * * * * * * * * //

dimensions      [0 3 -1 0 0 0 0];

internalField   nonuniform List<scalar> 
179
(
2.70963e+07
2.70952e+07
2.70938e+07
2.70908e+07
2.70882e+07
2.7086e+07
2.70889e+07
2.70893e+07
2.70896e+07
2.70959e+07
2.71054e+07
2.71115e+07
2.71066e+07
2.71003e+07
2.70926e+07
2.70823e+07
2.70661e+07
2.7052e+07
2.70452e+07
2.70357e+07
2.7027e+07
2.70199e+07
2.70109e+07
2.69978e+07
2.69829e+07
2.69665e+07
2.69523e+07
2.69385e+07
2.69202e+07
2.69049e+07
2.69021e+07
2.69032e+07
2.69126e+07
2.6924e+07
2.69323e+07
2.69477e+07
2.69703e+07
2.69891e+07
2.70048e+07
2.70201e+07
2.70424e+07
2.7075e+07
2.70985e+07
2.71166e+07
2.71311e+07
2.71376e+07
2.71391e+07
2.71561e+07
2.71687e+07
2.71758e+07
2.71706e+07
2.71787e+07
2.71873e+07
2.71927e+07
2.71918e+07
2.71861e+07
2.71874e+07
2.71897e+07
2.71982e+07
2.72076e+07
2.7213e+07
2.72207e+07
2.72359e+07
2.72547e+07
2.72661e+07
2.72703e+07
2.72622e+07
2.72553e+07
2.72438e+07
2.72224e+07
2.71896e+07
2.71571e+07
2.71182e+07
2.70648e+07
2.7013e+07
2.69883e+07
2.69844e+07
2.7012e+07
2.70691e+07
2.71735e+07
2.73112e+07
2.74637e+07
2.76338e+07
2.78081e+07
2.79864e+07
2.81531e+07
2.83106e+07
2.84573e+07
2.85883e+07
2.87139e+07
2.88348e+07
2.8941e+07
2.90274e+07
2.91028e+07
2.91703e+07
2.92297e+07
2.92736e+07
2.93111e+07
2.93444e+07
2.9377e+07
2.94091e+07
2.94365e+07
2.94305e+07
2.93659e+07
2.92268e+07
2.9002e+07
2.87132e+07
2.83808e+07
2.80164e+07
2.76336e+07
2.72434e+07
2.68601e+07
2.64931e+07
2.61481e+07
2.58325e+07
2.55466e+07
2.52993e+07
2.50797e+07
2.48828e+07
2.47065e+07
2.45537e+07
2.44152e+07
2.4292e+07
2.4194e+07
2.41179e+07
2.40685e+07
2.40409e+07
2.40253e+07
2.4028e+07
2.40518e+07
2.41e+07
2.41752e+07
2.42754e+07
2.43805e+07
2.45031e+07
2.46362e+07
2.4778e+07
2.49242e+07
2.50639e+07
2.51951e+07
2.53124e+07
2.54311e+07
2.55447e+07
2.56568e+07
2.57603e+07
2.5859e+07
2.59502e+07
2.60307e+07
2.60942e+07
2.6133e+07
2.61452e+07
2.61266e+07
2.60724e+07
2.59794e+07
2.58427e+07
2.5654e+07
2.54056e+07
2.50998e+07
2.47326e+07
2.42988e+07
2.38083e+07
2.32643e+07
2.27097e+07
2.21368e+07
2.16093e+07
2.11085e+07
2.06888e+07
2.03213e+07
2.00522e+07
1.98601e+07
1.97572e+07
1.97009e+07
1.97338e+07
1.97968e+07
1.99448e+07
2.00978e+07
2.0234e+07
2.03226e+07
2.04347e+07
)
;

boundaryField
{
    inlet
    {
        type            calculated;
        value           uniform 2.0527e+07;
    }
    outlet
    {
        type            calculated;
        value           uniform -2.70972e+07;
    }
    repeat_boundary
    {
        type            calculated;
        value           uniform 0;
    }
    procBoundary3to1
    {
        type            processor;
        value           nonuniform List<scalar> 
180
(
2183.56
2322.89
2451.36
2597.27
1840.57
301.932
-659.504
-1566.44
-2600.89
-9183.5
-16596.2
-10980
2425.11
3739.33
10037.3
10630.4
15299.2
18794.4
11102.2
15680.9
15397
14644.2
14480.6
14659.4
14788.7
19089.4
19028.6
18789.9
20816.2
18407.8
12949.3
11732.9
7616.02
4575.92
3238.63
-1068.11
-4530.1
-2467.69
-4183.69
-7769.71
-5070.74
-4320.36
-4537.87
537.567
4608.82
10110.8
12709.3
-922.344
4959.94
5310.94
15032.6
9730.03
3924.32
4113.91
8922.71
11829.4
4689.98
3417.71
-2448.03
-6101.61
-7780.1
-12196.7
-18896.2
-24334.9
-19181.9
-13391.8
-3352.38
-1045.05
3703.12
12322.2
16373
11081.2
22899.3
35761
38635.1
35675.6
34973.5
23080.3
16227.5
6211.5
-3009.03
-10908.7
-24946.9
-27013.6
-29639.8
-30011.6
-37810.9
-43718.6
-43991.7
-45686.5
-45594.9
-42293.8
-39688
-40103.2
-38489.9
-37155
-35079.6
-33574.6
-32105.6
-35064.2
-33324.9
-31092.3
-12329
29442.5
78909.1
137391
187044
227479
257261
274958
275536
263030
237141
209246
173314
141405
99806.1
73182.9
51342.2
33695.7
13667
4097.89
-8591.72
-27815.4
-48487.5
-68980.6
-89709
-94522.5
-109230
-120966
-137584
-155813
-172718
-171198
-185276
-196719
-209372
-219598
-220013
-218327
-210214
-216013
-213797
-212896
-203159
-194815
-183611
-167866
-146279
-115912
-85200.7
-50466.1
-11909.9
28672
73002.8
123621
181850
236733
297367
359297
419551
465755
491406
500379
483668
448862
396715
339537
264336
184385
114310
56273.6
-6699.49
-20107.6
-64117.4
-40410.1
-22983.1
1007.57
16153.2
41352.7
)
;
    }
    procBoundary3to2
    {
        type            processor;
        value           nonuniform List<scalar> 
180
(
-1244.37
-1282.18
-1056.69
418.121
794.605
1863.27
-2240.72
1143.8
2363.14
2831.95
7114.63
4899.46
2413.35
2639.6
-2379.83
-357.345
930.747
-4675.57
-4285.88
-6254.12
-6613.07
-7598.47
-5448.08
-1565.24
72.1471
-2667.81
-4844.15
-4996.6
-2521.72
-3032.86
-10153.5
-12908.7
-17000
-15921.6
-11587.1
-14278.2
-18156.4
-16285.3
-11561.3
-7496.93
-17190.2
-28327.7
-18945.9
-18662.6
-19116.6
-16559.6
-14176
-16084.2
-17551
-12422.7
-9851.69
-17810.2
-12589.3
-9446.25
-8111.76
-6080.39
-6003.69
-5754.45
-6001.53
-3262.19
2352.06
4529.25
3695.09
5447.26
7868.91
9120.32
11483.5
7934.48
7848.81
8998.01
16481.8
21355.7
16067.7
17610.9
13177.6
-10974.2
-31126.4
-50652.3
-73338.2
-110589
-134733
-141555
-145107
-147330
-148662
-136711
-119623
-103033
-87038.3
-79849
-75350.9
-63884.3
-46708.2
-35276.3
-29054
-22208.7
-8824.38
-3956.57
-1191.96
2508.15
1217.05
3655.94
18336.9
35142.1
60210.4
87419.5
101775
104931
107092
107845
114670
120309
129881
135664
142357
144437
147479
146446
145545
142661
139139
134395
131746
125852
124608
118341
117271
110163
106505
97160.2
89367.4
80655.3
72474.4
66122.7
62690.2
63630.9
67538.3
73461.3
80320.8
87125.6
92856.7
97302.1
100224
100798
99614.1
96115.5
92473.7
87366.6
82722.1
77167.9
72930.3
69142.1
66045.8
64387.3
63688.9
65097.8
66530.3
69086.6
69811.4
74442.3
70958.5
78287.7
63223.5
72513.6
43814.6
51926.1
23027.8
27897.9
4752.77
7718.32
-11393.5
74.8513
-26225.6
-42890.3
-83864.2
-112612
-113247
-89532.3
-128321
-133616
)
;
    }
}


// ************************************************************************* //
