/*--------------------------------*- C++ -*----------------------------------*\
| =========                 |                                                 |
| \\      /  F ield         | OpenFOAM: The Open Source CFD Toolbox           |
|  \\    /   O peration     | Version:  5.x                                   |
|   \\  /    A nd           | Web:      www.OpenFOAM.org                      |
|    \\/     M anipulation  |                                                 |
\*---------------------------------------------------------------------------*/
FoamFile
{
    version     2.0;
    format      ascii;
    class       volVectorField;
    location    "8000";
    object      stored_U;
}
// * * * * * * * * * * * * * * * * * * * * * * * * * * * * * * * * * * * * * //

dimensions      [0 1 -1 0 0 0 0];

internalField   nonuniform List<vector> 
180
(
(0.0297373 -0.0889453 106.81)
(-0.0050273 -0.087763 108.025)
(0.00822725 -0.0715226 107.325)
(0.0276957 -0.0779098 107.696)
(0.00571119 -0.0907116 107.297)
(0.224413 -0.0431818 106.892)
(0.271499 0.171172 107.757)
(0.319741 0.285328 107.76)
(0.378557 0.0365839 107.218)
(0.522752 -0.042595 107.592)
(0.428071 -0.666347 107.156)
(0.514026 -0.666616 107.896)
(0.581503 -0.458168 107.699)
(0.570655 -0.188477 107.458)
(0.382244 -0.377459 107.64)
(0.230642 -0.887768 107.682)
(0.222963 -0.700209 106.758)
(0.194687 -0.820977 107.868)
(0.185902 -1.0981 106.6)
(0.20113 -1.08478 107.426)
(0.327508 -1.25759 106.842)
(0.305958 -1.38644 107.207)
(0.534271 -1.53088 106.315)
(0.596697 -1.5097 107.095)
(0.60377 -1.19888 106.46)
(0.704974 -1.21377 106.771)
(0.743921 -1.36235 106.956)
(0.666628 -1.43743 106.241)
(0.615848 -1.53834 107.111)
(0.579825 -1.07111 105.891)
(0.728202 -1.0027 106.873)
(0.772861 -1.04175 106.723)
(0.639374 -1.23744 106.424)
(0.453712 -1.42809 106.871)
(0.337492 -1.25717 106.615)
(0.422453 -0.554194 106.196)
(0.381157 -0.456207 106.983)
(0.439597 -0.454902 106.849)
(0.560671 -0.56882 106.656)
(0.556852 -0.369802 107.146)
(0.470827 0.0961723 106.703)
(0.497941 0.22836 107.38)
(0.549501 0.48314 106.799)
(0.590948 0.427664 107.6)
(0.90091 1.53653 107.092)
(0.92477 1.18188 107.747)
(1.08346 1.46549 107.421)
(1.05307 1.32675 107.814)
(1.00169 1.12592 108.032)
(1.01457 1.36378 108.012)
(0.843722 1.32845 108.1)
(1.01561 0.990435 108.197)
(1.39562 0.638523 108.736)
(1.34491 0.577026 108.541)
(0.655515 0.883437 108.764)
(0.595224 0.916877 108.476)
(0.894643 0.601376 108.906)
(0.918836 0.622858 108.876)
(0.730688 0.605749 108.841)
(0.511856 0.647363 109.025)
(0.735264 0.630993 108.739)
(0.672276 0.540948 109.124)
(0.687402 0.529366 108.941)
(0.753885 0.560471 109.068)
(1.01296 0.23277 108.617)
(0.760453 -0.0586185 109.21)
(0.716633 -0.276588 108.43)
(0.850514 -0.235157 108.666)
(0.964069 -0.167007 108.822)
(1.08069 -0.271078 107.835)
(1.12812 -0.352689 108.5)
(0.987216 -0.784726 107.698)
(0.732427 -1.01932 108.145)
(0.992907 -0.811772 107.571)
(2.52942 -0.563877 107.158)
(4.52248 0.360199 107.533)
(6.1709 1.01016 107.465)
(7.84771 2.1241 107.954)
(9.00342 2.6217 108.226)
(9.9124 3.43944 108.951)
(10.4189 4.06058 109.477)
(10.8198 4.44902 110.307)
(10.7894 4.51219 110.912)
(10.3693 4.57528 111.834)
(10.1765 4.63888 112.468)
(9.96757 4.65073 113.068)
(9.22666 4.60545 113.751)
(8.39312 4.38992 114.353)
(7.36335 4.19617 114.792)
(7.14583 4.1988 115.581)
(6.89981 4.1861 115.583)
(6.31492 3.96943 116.168)
(6.05127 4.00952 116.806)
(6.01551 4.0761 116.851)
(5.53234 3.66585 117.208)
(4.99226 3.57844 117.585)
(4.07815 3.21146 117.704)
(2.57585 1.81312 117.706)
(2.50945 1.95621 118.282)
(2.56708 2.37428 117.553)
(2.58664 2.30718 118.236)
(2.21831 1.89092 117.629)
(0.956645 -0.160448 117.451)
(-0.264943 -2.28492 116.871)
(-1.18098 -4.5165 116.529)
(-1.75505 -6.96423 114.666)
(-1.9555 -8.24492 114.287)
(-1.92677 -9.08121 112.293)
(-2.27482 -8.60765 110.979)
(-2.73804 -7.02706 108.959)
(-3.508 -4.13546 107.95)
(-4.48779 -0.888463 105.824)
(-5.40026 2.88295 104.954)
(-6.23127 6.18853 102.987)
(-6.73512 9.9186 102.36)
(-7.02851 12.9448 100.707)
(-7.08688 16.4164 100.266)
(-6.9205 18.9951 98.962)
(-6.68833 22.0797 98.5864)
(-6.25288 24.6259 97.6395)
(-5.80741 27.29 97.2415)
(-5.21603 29.6013 96.6127)
(-4.80986 31.9531 96.1422)
(-4.06747 34.1289 95.8258)
(-3.74686 36.3458 95.4063)
(-2.88297 38.4052 95.45)
(-2.52347 40.5036 95.0908)
(-1.51595 42.4098 95.4157)
(-1.02191 44.2835 95.1369)
(0.140996 46.1061 95.5645)
(0.953114 47.8953 95.5843)
(2.13679 49.3596 96.0751)
(3.29666 50.7846 96.458)
(4.64365 51.6891 97.007)
(6.02185 52.7653 97.525)
(7.49035 53.5022 98.0874)
(9.02869 54.3795 98.6384)
(10.6769 55.0131 99.3012)
(12.3581 55.4515 99.8081)
(14.0951 55.7366 100.411)
(15.8238 55.7824 100.792)
(17.4654 56.043 101.399)
(19.0016 55.9751 101.701)
(20.3978 55.4944 102.329)
(21.5867 54.7223 102.619)
(22.5896 53.6071 103.13)
(23.254 51.9089 103.431)
(23.7257 49.7043 103.84)
(23.8861 46.94 104.026)
(23.9067 43.7361 104.214)
(23.7064 39.8383 104.16)
(23.4627 35.2185 104.103)
(23.153 29.8621 103.756)
(22.8845 24.0281 103.38)
(22.6395 18.0826 102.701)
(22.551 12.0334 101.883)
(22.5396 5.7967 100.815)
(22.9213 -0.084088 99.36)
(23.2564 -5.77946 98.0609)
(24.0163 -10.3337 95.7799)
(24.9964 -14.4423 94.3705)
(26.2118 -16.8625 91.3019)
(28.5001 -18.0943 90.0306)
(30.1309 -17.4742 86.6435)
(33.1141 -14.9504 85.7618)
(34.4762 -10.9549 82.7771)
(36.6403 -5.44671 82.2611)
(37.109 0.765012 80.1022)
(37.882 7.83057 79.9216)
(36.3137 14.1832 78.7491)
(35.447 19.4518 79.0889)
(32.2347 23.3659 78.5803)
(30.575 25.9745 79.4095)
(27.6312 26.7373 79.5745)
(26.4543 26.6282 80.462)
(24.6964 25.1693 81.1514)
(22.9603 22.3297 81.8088)
(22.202 19.4784 82.3983)
(22.3213 18.6249 82.8352)
(22.2288 19.0179 83.5537)
)
;

boundaryField
{
    inlet
    {
        type            calculated;
        value           uniform (22.2288 19.0179 83.5537);
    }
    outlet
    {
        type            calculated;
        value           uniform (0.0297373 -0.0889453 106.81);
    }
    repeat_boundary
    {
        type            calculated;
        value           nonuniform List<vector> 
360
(
(0 -0.0889453 106.81)
(0 -0.087763 108.025)
(0 -0.0715226 107.325)
(0 -0.0779098 107.696)
(0 -0.0907116 107.297)
(0 -0.0431818 106.892)
(0 0.171172 107.757)
(0 0.285328 107.76)
(0 0.0365839 107.218)
(0 -0.042595 107.592)
(0 -0.666347 107.156)
(0 -0.666616 107.896)
(0 -0.458168 107.699)
(0 -0.188477 107.458)
(0 -0.377459 107.64)
(0 -0.887768 107.682)
(0 -0.700209 106.758)
(0 -0.820977 107.868)
(0 -1.0981 106.6)
(0 -1.08478 107.426)
(0 -1.25759 106.842)
(0 -1.38644 107.207)
(0 -1.53088 106.315)
(0 -1.5097 107.095)
(0 -1.19888 106.46)
(0 -1.21377 106.771)
(0 -1.36235 106.956)
(0 -1.43743 106.241)
(0 -1.53834 107.111)
(0 -1.07111 105.891)
(0 -1.0027 106.873)
(0 -1.04175 106.723)
(0 -1.23744 106.424)
(0 -1.42809 106.871)
(0 -1.25717 106.615)
(0 -0.554194 106.196)
(0 -0.456207 106.983)
(0 -0.454902 106.849)
(0 -0.56882 106.656)
(0 -0.369802 107.146)
(0 0.0961723 106.703)
(0 0.22836 107.38)
(0 0.48314 106.799)
(0 0.427664 107.6)
(0 1.53653 107.092)
(0 1.18188 107.747)
(0 1.46549 107.421)
(0 1.32675 107.814)
(0 1.12592 108.032)
(0 1.36378 108.012)
(0 1.32845 108.1)
(0 0.990435 108.197)
(0 0.638523 108.736)
(0 0.577026 108.541)
(0 0.883437 108.764)
(0 0.916877 108.476)
(0 0.601376 108.906)
(0 0.622858 108.876)
(0 0.605749 108.841)
(0 0.647363 109.025)
(0 0.630993 108.739)
(0 0.540948 109.124)
(0 0.529366 108.941)
(0 0.560471 109.068)
(0 0.23277 108.617)
(0 -0.0586185 109.21)
(0 -0.276588 108.43)
(0 -0.235157 108.666)
(0 -0.167007 108.822)
(0 -0.271078 107.835)
(0 -0.352689 108.5)
(0 -0.784726 107.698)
(0 -1.01932 108.145)
(0 -0.811772 107.571)
(0 -0.563877 107.158)
(0 0.360199 107.533)
(0 1.01016 107.465)
(0 2.1241 107.954)
(0 2.6217 108.226)
(0 3.43944 108.951)
(0 4.06058 109.477)
(0 4.44902 110.307)
(0 4.51219 110.912)
(0 4.57528 111.834)
(0 4.63888 112.468)
(0 4.65073 113.068)
(0 4.60545 113.751)
(0 4.38992 114.353)
(0 4.19617 114.792)
(0 4.1988 115.581)
(0 4.1861 115.583)
(0 3.96943 116.168)
(0 4.00952 116.806)
(0 4.0761 116.851)
(0 3.66585 117.208)
(0 3.57844 117.585)
(0 3.21146 117.704)
(0 1.81312 117.706)
(0 1.95621 118.282)
(0 2.37428 117.553)
(0 2.30718 118.236)
(0 1.89092 117.629)
(0 -0.160448 117.451)
(0 -2.28492 116.871)
(0 -4.5165 116.529)
(0 -6.96423 114.666)
(0 -8.24492 114.287)
(0 -9.08121 112.293)
(0 -8.60765 110.979)
(0 -7.02706 108.959)
(0 -4.13546 107.95)
(0 -0.888463 105.824)
(0 2.88295 104.954)
(0 6.18853 102.987)
(0 9.9186 102.36)
(0 12.9448 100.707)
(0 16.4164 100.266)
(0 18.9951 98.962)
(0 22.0797 98.5864)
(0 24.6259 97.6395)
(0 27.29 97.2415)
(0 29.6013 96.6127)
(0 31.9531 96.1422)
(0 34.1289 95.8258)
(0 36.3458 95.4063)
(0 38.4052 95.45)
(0 40.5036 95.0908)
(0 42.4098 95.4157)
(0 44.2835 95.1369)
(0 46.1061 95.5645)
(0 47.8953 95.5843)
(0 49.3596 96.0751)
(0 50.7846 96.458)
(0 51.6891 97.007)
(0 52.7653 97.525)
(0 53.5022 98.0874)
(0 54.3795 98.6384)
(0 55.0131 99.3012)
(0 55.4515 99.8081)
(0 55.7366 100.411)
(0 55.7824 100.792)
(0 56.043 101.399)
(0 55.9751 101.701)
(0 55.4944 102.329)
(0 54.7223 102.619)
(0 53.6071 103.13)
(0 51.9089 103.431)
(0 49.7043 103.84)
(0 46.94 104.026)
(0 43.7361 104.214)
(0 39.8383 104.16)
(0 35.2185 104.103)
(0 29.8621 103.756)
(0 24.0281 103.38)
(0 18.0826 102.701)
(0 12.0334 101.883)
(0 5.7967 100.815)
(0 -0.084088 99.36)
(0 -5.77946 98.0609)
(0 -10.3337 95.7799)
(0 -14.4423 94.3705)
(0 -16.8625 91.3019)
(0 -18.0943 90.0306)
(0 -17.4742 86.6435)
(0 -14.9504 85.7618)
(0 -10.9549 82.7771)
(0 -5.44671 82.2611)
(0 0.765012 80.1022)
(0 7.83057 79.9216)
(0 14.1832 78.7491)
(0 19.4518 79.0889)
(0 23.3659 78.5803)
(0 25.9745 79.4095)
(0 26.7373 79.5745)
(0 26.6282 80.462)
(0 25.1693 81.1514)
(0 22.3297 81.8088)
(0 19.4784 82.3983)
(0 18.6249 82.8352)
(0 19.0179 83.5537)
(0.0297373 0 106.81)
(-0.0050273 0 108.025)
(0.00822725 0 107.325)
(0.0276957 0 107.696)
(0.00571119 0 107.297)
(0.224413 0 106.892)
(0.271499 0 107.757)
(0.319741 0 107.76)
(0.378557 0 107.218)
(0.522752 0 107.592)
(0.428071 0 107.156)
(0.514026 0 107.896)
(0.581503 0 107.699)
(0.570655 0 107.458)
(0.382244 0 107.64)
(0.230642 0 107.682)
(0.222963 0 106.758)
(0.194687 0 107.868)
(0.185902 0 106.6)
(0.20113 0 107.426)
(0.327508 0 106.842)
(0.305958 0 107.207)
(0.534271 0 106.315)
(0.596697 0 107.095)
(0.60377 0 106.46)
(0.704974 0 106.771)
(0.743921 0 106.956)
(0.666628 0 106.241)
(0.615848 0 107.111)
(0.579825 0 105.891)
(0.728202 0 106.873)
(0.772861 0 106.723)
(0.639374 0 106.424)
(0.453712 0 106.871)
(0.337492 0 106.615)
(0.422453 0 106.196)
(0.381157 0 106.983)
(0.439597 0 106.849)
(0.560671 0 106.656)
(0.556852 0 107.146)
(0.470827 0 106.703)
(0.497941 0 107.38)
(0.549501 0 106.799)
(0.590948 0 107.6)
(0.90091 0 107.092)
(0.92477 0 107.747)
(1.08346 0 107.421)
(1.05307 0 107.814)
(1.00169 0 108.032)
(1.01457 0 108.012)
(0.843722 0 108.1)
(1.01561 0 108.197)
(1.39562 0 108.736)
(1.34491 0 108.541)
(0.655515 0 108.764)
(0.595224 0 108.476)
(0.894643 0 108.906)
(0.918836 0 108.876)
(0.730688 0 108.841)
(0.511856 0 109.025)
(0.735264 0 108.739)
(0.672276 0 109.124)
(0.687402 0 108.941)
(0.753885 0 109.068)
(1.01296 0 108.617)
(0.760453 0 109.21)
(0.716633 0 108.43)
(0.850514 0 108.666)
(0.964069 0 108.822)
(1.08069 0 107.835)
(1.12812 0 108.5)
(0.987216 0 107.698)
(0.732427 0 108.145)
(0.992907 0 107.571)
(2.52942 0 107.158)
(4.52248 0 107.533)
(6.1709 0 107.465)
(7.84771 0 107.954)
(9.00342 0 108.226)
(9.9124 0 108.951)
(10.4189 0 109.477)
(10.8198 0 110.307)
(10.7894 0 110.912)
(10.3693 0 111.834)
(10.1765 0 112.468)
(9.96757 0 113.068)
(9.22666 0 113.751)
(8.39312 0 114.353)
(7.36335 0 114.792)
(7.14583 0 115.581)
(6.89981 0 115.583)
(6.31492 0 116.168)
(6.05127 0 116.806)
(6.01551 0 116.851)
(5.53234 0 117.208)
(4.99226 0 117.585)
(4.07815 0 117.704)
(2.57585 0 117.706)
(2.50945 0 118.282)
(2.56708 0 117.553)
(2.58664 0 118.236)
(2.21831 0 117.629)
(0.956645 0 117.451)
(-0.264943 0 116.871)
(-1.18098 0 116.529)
(-1.75505 0 114.666)
(-1.9555 0 114.287)
(-1.92677 0 112.293)
(-2.27482 0 110.979)
(-2.73804 0 108.959)
(-3.508 0 107.95)
(-4.48779 0 105.824)
(-5.40026 0 104.954)
(-6.23127 0 102.987)
(-6.73512 0 102.36)
(-7.02851 0 100.707)
(-7.08688 0 100.266)
(-6.9205 0 98.962)
(-6.68833 0 98.5864)
(-6.25288 0 97.6395)
(-5.80741 0 97.2415)
(-5.21603 0 96.6127)
(-4.80986 0 96.1422)
(-4.06747 0 95.8258)
(-3.74686 0 95.4063)
(-2.88297 0 95.45)
(-2.52347 0 95.0908)
(-1.51595 0 95.4157)
(-1.02191 0 95.1369)
(0.140996 0 95.5645)
(0.953114 0 95.5843)
(2.13679 0 96.0751)
(3.29666 0 96.458)
(4.64365 0 97.007)
(6.02185 0 97.525)
(7.49035 0 98.0874)
(9.02869 0 98.6384)
(10.6769 0 99.3012)
(12.3581 0 99.8081)
(14.0951 0 100.411)
(15.8238 0 100.792)
(17.4654 0 101.399)
(19.0016 0 101.701)
(20.3978 0 102.329)
(21.5867 0 102.619)
(22.5896 0 103.13)
(23.254 0 103.431)
(23.7257 0 103.84)
(23.8861 0 104.026)
(23.9067 0 104.214)
(23.7064 0 104.16)
(23.4627 0 104.103)
(23.153 0 103.756)
(22.8845 0 103.38)
(22.6395 0 102.701)
(22.551 0 101.883)
(22.5396 0 100.815)
(22.9213 0 99.36)
(23.2564 0 98.0609)
(24.0163 0 95.7799)
(24.9964 0 94.3705)
(26.2118 0 91.3019)
(28.5001 0 90.0306)
(30.1309 0 86.6435)
(33.1141 0 85.7618)
(34.4762 0 82.7771)
(36.6403 0 82.2611)
(37.109 0 80.1022)
(37.882 0 79.9216)
(36.3137 0 78.7491)
(35.447 0 79.0889)
(32.2347 0 78.5803)
(30.575 0 79.4095)
(27.6312 0 79.5745)
(26.4543 0 80.462)
(24.6964 0 81.1514)
(22.9603 0 81.8088)
(22.202 0 82.3983)
(22.3213 0 82.8352)
(22.2288 0 83.5537)
)
;
    }
    procBoundary3to1
    {
        type            processor;
        value           nonuniform List<vector> 
180
(
(0.0432803 -0.0841137 109.014)
(0.0258211 -0.0829564 110.289)
(0.00536171 -0.0710612 109.395)
(0.049881 -0.07357 110.114)
(0.00603562 -0.0627694 109.192)
(0.111054 -0.0323998 109.843)
(0.136948 0.0163754 109.785)
(0.179795 -0.00148456 109.696)
(0.260593 -0.103396 109.932)
(0.218264 0.0256049 109.396)
(0.420636 -0.0246124 109.816)
(1.38839 -1.01181 109.569)
(1.35317 -1.05312 110.302)
(1.12369 -0.906935 110.354)
(1.2483 -1.01577 110.28)
(1.72204 -1.41679 110.548)
(2.11083 -1.58333 110.751)
(2.33339 -1.52235 111.133)
(2.43434 -1.38712 111.405)
(2.51542 -1.22276 111.731)
(2.61135 -1.05747 112.049)
(2.66169 -0.904168 112.365)
(2.62723 -0.795324 112.675)
(2.5559 -0.693956 113.009)
(2.43345 -0.613609 113.32)
(2.29885 -0.539391 113.612)
(2.2289 -0.480062 113.879)
(2.1641 -0.464418 114.16)
(2.06988 -0.335172 114.49)
(2.05198 -0.0985948 114.784)
(2.06671 0.0791937 115.032)
(2.07267 0.225952 115.204)
(2.07768 0.498563 115.492)
(2.13271 0.813047 115.604)
(2.10179 1.00187 115.898)
(1.76673 1.51178 115.83)
(1.75202 1.44617 116.109)
(1.81632 1.19436 116.248)
(1.31821 1.02941 115.734)
(0.561247 1.34461 115.872)
(0.300254 1.48495 116.117)
(-0.247955 1.50491 115.658)
(-0.2529 0.731993 114.426)
(-0.498579 0.851827 115.704)
(-0.304209 0.630112 115.438)
(0.305748 0.132737 115.081)
(0.233269 0.243261 115.188)
(-0.485238 0.605079 113.593)
(-0.453088 0.500864 114.574)
(-0.454593 0.469428 114.233)
(-0.770785 0.711303 114.359)
(-0.797126 0.553457 112.433)
(-0.536184 0.290387 114.085)
(-0.424614 0.054952 112.269)
(-0.475915 -0.0103245 113.462)
(-0.600425 -0.0724728 112.35)
(-0.515559 -0.142996 112.429)
(-0.777328 0.0424596 112.614)
(-0.717152 -0.114555 111.674)
(-0.781726 -0.125539 112.293)
(-0.396563 -0.311295 111.049)
(-0.409302 -0.38116 111.548)
(-0.401975 -0.400136 111.497)
(0.173644 -0.708329 110.704)
(0.231251 -0.887282 111.137)
(0.168606 -1.0403 111.169)
(0.274428 -1.20052 111.006)
(1.01026 -1.30716 110.233)
(0.965707 -1.76889 111.196)
(0.966466 -1.89422 111.153)
(1.27479 -1.65205 111.148)
(2.05603 -1.45899 110.45)
(2.01266 -2.02299 111.466)
(2.13131 -2.18081 111.532)
(2.31737 -2.08482 111.497)
(2.45429 -1.98812 111.98)
(3.14581 -2.3211 111.357)
(3.16064 -2.55827 112.511)
(3.30885 -2.56849 111.907)
(3.61809 -2.70284 112.71)
(4.11682 -1.83975 112.128)
(4.27857 -1.95055 112.778)
(4.6151 -1.34725 112.646)
(4.94232 -0.769295 112.558)
(4.96872 -0.805477 113.179)
(5.23746 -0.646077 112.784)
(5.34475 -0.544966 113.094)
(5.22641 -0.491793 113.186)
(4.84267 -0.380425 113.313)
(4.85587 -0.390082 113.601)
(5.14366 -0.426034 113.723)
(4.59068 -0.0852971 113.431)
(4.64397 -0.0487198 114.181)
(4.25044 0.221416 113.806)
(4.25292 0.229729 114.23)
(3.85812 0.375846 113.721)
(3.77466 0.466616 114.485)
(2.95296 0.0813195 113.723)
(3.0853 0.0878052 114.586)
(2.59984 -1.45596 114.162)
(2.76762 -1.44415 114.472)
(2.82442 -1.5399 115.035)
(1.92288 -2.1568 114.762)
(2.00602 -4.29551 114.746)
(2.34069 -6.17873 116.063)
(3.48995 -8.41861 116.242)
(4.84846 -10.6468 117.844)
(5.79839 -12.1238 118.885)
(7.28767 -13.8928 120.507)
(8.92631 -15.7047 121.798)
(10.452 -17.4093 123.498)
(11.3658 -18.5487 124.443)
(12.4219 -19.5632 125.926)
(13.247 -20.1804 126.327)
(14.034 -20.8191 127.367)
(14.1668 -21 127.891)
(14.6223 -21.4309 128.085)
(16.3972 -22.8943 127.839)
(17.7499 -24.3958 127.936)
(19.0172 -25.5692 127.734)
(20.8704 -26.9129 127.28)
(22.917 -28.6772 126.964)
(23.389 -29.5221 127.138)
(23.6115 -29.8377 126.795)
(24.4205 -30.3561 126.078)
(24.6777 -30.6621 125.666)
(25.39 -31.7146 124.858)
(27.1554 -33.2714 123.709)
(27.7366 -33.9254 124.09)
(28.7291 -34.7212 122.793)
(28.8851 -34.8012 122.69)
(28.8296 -34.7527 122.357)
(29.5815 -35.5445 120.858)
(31.439 -36.6067 119.809)
(31.6516 -36.6542 119.972)
(32.2787 -37.2803 117.267)
(31.7088 -36.8772 117.417)
(32.0897 -37.1635 114.861)
(32.8673 -37.9888 113.227)
(33.2928 -38.5363 111.343)
(33.3775 -38.8977 109.485)
(33.0003 -38.6629 108.996)
(33.3333 -39.0353 106.297)
(32.9658 -39.0381 104.839)
(32.8652 -39.3266 102.695)
(32.3539 -38.8193 100.727)
(32.1265 -38.2527 99.4476)
(31.9375 -37.7686 97.3973)
(31.6449 -37.3945 96.9909)
(30.9957 -37.0411 94.8984)
(30.2651 -35.8792 94.3765)
(28.4489 -34.3405 93.1485)
(26.2828 -32.2709 92.4981)
(24.4011 -29.8924 92.0305)
(22.7071 -27.8574 91.1297)
(21.4803 -26.3755 91.2875)
(20.2523 -24.8589 90.7452)
(18.9401 -23.2801 91.0497)
(18.5006 -22.477 91.6675)
(18.7584 -22.4582 91.9346)
(19.2109 -22.7461 93.6266)
(18.9971 -22.265 94.2121)
(19.3329 -21.5442 95.9097)
(19.8742 -21.0718 97.3699)
(20.2942 -20.4794 98.8544)
(20.5609 -20.2077 100.284)
(20.8513 -20.5684 101.612)
(21.0385 -21.1153 102.449)
(21.7665 -21.026 103.196)
(21.6302 -21.1173 104.017)
(21.1499 -21.0338 104.245)
(18.8056 -19.0679 103.199)
(18.5437 -19.4489 103.335)
(18.3298 -19.3956 103.31)
(16.462 -17.7407 101.35)
(15.7936 -17.8237 101.588)
(16.7182 -17.7768 100.213)
(15.7194 -18.2482 100.255)
(14.8194 -18.0207 99.8164)
(14.1731 -17.5211 98.9498)
)
;
    }
    procBoundary3to2
    {
        type            processor;
        value           nonuniform List<vector> 
180
(
(0.0250449 -0.0695298 107.732)
(-0.00791338 -0.077475 108.219)
(-0.0562657 -0.021501 108.49)
(-0.0280132 -0.0411328 108.417)
(-0.00322576 -0.0717188 107.949)
(0.116084 -0.123907 107.681)
(0.136029 -0.0468627 108.474)
(0.117012 0.0214375 108.494)
(0.240077 -0.0133114 107.432)
(0.271432 -0.0128308 108.315)
(0.432228 -0.199328 108.326)
(0.580219 -0.130108 107.332)
(0.68401 -0.147873 108.253)
(0.293815 0.0990775 107.177)
(0.163835 0.0690949 108.245)
(0.0192169 0.340274 107.171)
(0.0346328 0.419101 108.114)
(0.252417 0.608547 107.231)
(0.230156 0.632022 107.875)
(0.319178 0.636428 108.127)
(0.36354 0.613241 107.103)
(0.371448 0.611376 108.274)
(0.432127 0.847741 107.475)
(0.483831 0.683747 107.929)
(0.60078 0.468061 107.828)
(0.633597 0.559974 107.867)
(0.455776 0.829019 107.303)
(0.399881 0.995635 107.933)
(0.334135 1.03341 107.876)
(0.369554 0.843141 107.661)
(0.498845 0.650534 108.009)
(0.399248 1.03418 107.435)
(0.342186 1.10837 108.088)
(0.153163 1.21897 107.535)
(0.0686332 1.37516 107.541)
(-0.00470402 1.57736 108.151)
(-0.0587291 1.50238 107.855)
(-0.0154666 1.14883 107.848)
(0.11535 0.929774 107.843)
(0.0609513 1.03378 107.528)
(0.0104048 1.07288 107.936)
(-0.120966 0.785969 106.97)
(-0.0690666 0.712901 108.053)
(0.0508304 0.165721 106.758)
(0.0479088 0.215511 107.621)
(0.102207 0.0441159 107.202)
(0.260232 -0.296868 106.167)
(0.244933 -0.308476 107.073)
(0.245395 -0.326146 106.52)
(0.134099 -0.333082 106.246)
(0.196535 -0.51909 106.307)
(0.289922 -0.607102 105.521)
(0.0647494 -0.600972 104.992)
(0.327627 -0.924958 105.394)
(0.295998 -0.89292 105.203)
(-0.243155 -0.424178 105.061)
(-0.292749 -0.643661 103.9)
(-0.122326 -0.894613 105.02)
(-0.0190125 -1.24497 103.395)
(-0.258142 -1.0761 104.042)
(-0.348055 -1.05733 104.155)
(-0.568617 -0.953599 102.54)
(-0.808623 -0.890027 103.496)
(-0.714382 -1.1372 103.405)
(-0.973522 -1.11441 102.246)
(-1.11647 -1.06859 102.822)
(-1.80744 -1.51076 102.784)
(-1.58795 -1.23216 101.346)
(-1.68374 -1.2594 102.309)
(-2.01641 -1.37184 102.172)
(-1.49801 -1.26726 101.547)
(-0.888694 -0.89441 100.478)
(-1.40456 -1.0971 101.463)
(-1.51626 -0.920582 101.197)
(-1.39804 -0.484179 101.189)
(-0.698602 -0.364893 99.8418)
(-0.157522 -0.216529 100.518)
(1.54454 -0.213663 98.4408)
(1.20677 -0.192836 99.7265)
(1.84592 0.248354 97.8405)
(1.63971 0.850672 97.5422)
(1.6551 1.07448 97.262)
(1.70653 0.857296 96.24)
(0.0555254 3.01238 94.8004)
(-0.258756 3.1151 95.7193)
(-0.716339 3.43501 94.6375)
(-0.872878 3.40341 94.2181)
(-1.08792 3.32857 93.8597)
(-1.38312 3.1404 93.721)
(-1.42123 3.2171 94.1789)
(-1.40167 2.97067 93.3531)
(-2.32268 2.60807 93.2286)
(-3.42393 2.48057 93.0922)
(-3.72044 2.99059 93.6944)
(-3.65495 3.0337 93.7829)
(-3.47019 2.82179 93.1338)
(-3.47516 2.83071 93.9706)
(-3.69693 3.07606 93.9095)
(-3.99898 2.8413 93.8473)
(-4.23575 2.84461 94.6093)
(-5.51352 2.56515 94.0632)
(-5.66294 3.00038 95.5698)
(-6.06706 2.62622 94.9948)
(-5.95455 2.70775 96.25)
(-6.41257 2.2846 96.1716)
(-7.0028 1.61663 96.8458)
(-6.9367 1.01241 97.5048)
(-6.698 0.389368 97.9545)
(-6.44438 -0.212636 98.3615)
(-6.24347 -0.628544 98.8274)
(-6.25066 -0.828272 99.1957)
(-5.82445 -1.36733 99.7958)
(-5.72724 -1.29712 100.238)
(-5.19211 -1.4829 100.951)
(-5.09634 -1.14277 101.463)
(-4.79424 -1.03184 102.293)
(-4.83867 -0.61957 102.946)
(-4.75519 -0.418054 103.726)
(-4.83946 -0.0571434 104.517)
(-4.93421 0.119977 105.218)
(-5.03961 0.519878 106.065)
(-5.2787 0.882107 106.65)
(-5.44596 1.31176 107.591)
(-5.80656 1.63822 108.176)
(-6.04312 2.37801 108.972)
(-6.422 2.91005 109.569)
(-6.65603 3.66697 110.335)
(-6.97946 4.01387 111.094)
(-7.0888 4.47121 111.815)
(-7.33905 4.76034 112.587)
(-7.54816 5.21482 113.217)
(-8.02073 5.67332 114.022)
(-8.58956 6.33399 114.663)
(-9.57236 7.3661 115.536)
(-10.9145 8.56942 116.398)
(-12.6876 10.0717 117.555)
(-14.6927 11.617 118.694)
(-16.8915 13.3 120.082)
(-19.1334 14.8579 121.453)
(-21.3514 16.3161 122.997)
(-23.445 17.4886 124.5)
(-25.3281 18.4022 126.085)
(-26.9501 18.9534 127.608)
(-28.2458 19.2071 129.15)
(-29.1965 19.0692 130.574)
(-29.839 18.7551 131.997)
(-30.1498 18.1538 133.264)
(-30.16 17.4662 134.557)
(-29.9099 16.5385 135.587)
(-29.4786 15.6723 136.779)
(-28.9827 14.6793 137.583)
(-28.4609 13.8273 138.659)
(-27.9803 12.9608 139.22)
(-27.6718 12.409 140.237)
(-27.4907 11.8928 140.7)
(-27.6087 11.5838 141.598)
(-27.7389 11.3233 142.045)
(-28.3665 11.4247 142.913)
(-28.8462 11.3693 143.256)
(-29.9329 11.8086 144.317)
(-30.7298 12.007 144.521)
(-32.2379 12.9328 145.746)
(-33.3037 13.8643 145.931)
(-35.3429 15.8177 147.091)
(-35.9784 17.7897 147.687)
(-38.1311 20.4539 148.41)
(-37.9348 23.2323 149.73)
(-39.1697 25.99 150.088)
(-38.1627 29.3081 151.696)
(-37.2837 31.8272 152.327)
(-35.4712 33.7425 153.925)
(-33.2007 35.3241 154.831)
(-28.4812 36.0417 156.544)
(-24.0249 35.8168 157.172)
(-19.3535 35.107 158.713)
(-17.2423 33.9542 158.679)
(-14.8697 33.4429 160.258)
(-14.6494 32.1535 159.383)
(-11.1755 30.8656 161.427)
(-11.0095 28.9527 160.262)
)
;
    }
}


// ************************************************************************* //
