/*--------------------------------*- C++ -*----------------------------------*\
| =========                 |                                                 |
| \\      /  F ield         | OpenFOAM: The Open Source CFD Toolbox           |
|  \\    /   O peration     | Version:  5.x                                   |
|   \\  /    A nd           | Web:      www.OpenFOAM.org                      |
|    \\/     M anipulation  |                                                 |
\*---------------------------------------------------------------------------*/
FoamFile
{
    version     2.0;
    format      ascii;
    class       volVectorField;
    location    "8000";
    object      U;
}
// * * * * * * * * * * * * * * * * * * * * * * * * * * * * * * * * * * * * * //

dimensions      [0 1 -1 0 0 0 0];

internalField   nonuniform List<vector> 
180
(
(0.0409676 -0.0893562 107.912)
(0.0551447 -0.0916805 108.652)
(0.0518736 -0.0929423 108.587)
(0.0162526 -0.0941879 108.635)
(-0.00159148 -0.0784654 107.927)
(-0.035956 -0.0724247 108.506)
(0.135602 -0.00259588 108.315)
(0.0286131 0.0884005 108.324)
(-0.0423732 0.195605 108.375)
(-0.134909 0.407124 108.495)
(-0.310661 0.74822 108.264)
(-0.221731 0.52619 108.687)
(0.096814 0.100067 108.122)
(0.199185 0.0401555 108.573)
(0.489697 -0.250504 108.316)
(0.222497 -0.111892 108.357)
(-0.00995529 -0.0646781 108.243)
(0.293843 0.0866438 108.434)
(0.143659 0.777963 108.023)
(0.347107 0.346736 108.272)
(0.38342 0.28221 108.062)
(0.379873 0.211089 108.118)
(0.228749 0.124677 108.053)
(0.109812 0.0317443 108.035)
(0.0409093 -0.0696786 108.151)
(0.303762 -0.653138 107.57)
(0.412092 -0.764431 107.777)
(0.471588 -0.840178 107.928)
(0.268229 -1.0022 107.96)
(0.103731 -1.0164 107.241)
(0.509472 -0.794159 108.052)
(0.645207 -0.925167 107.272)
(0.750554 -0.869904 107.619)
(0.785393 -0.810074 107.893)
(0.697931 -1.1054 107.589)
(0.946979 -1.14298 107.524)
(0.915782 -0.898643 108.327)
(0.793308 -0.83869 107.514)
(0.836207 -0.877195 107.918)
(0.575311 -0.59883 108.288)
(0.887648 -0.840864 108.137)
(1.35076 -1.18401 108.15)
(0.970843 -0.924633 108.434)
(0.958606 -1.04296 108.377)
(0.9723 -1.1524 108.514)
(0.970271 -1.31065 108.547)
(0.945066 -1.48003 108.703)
(1.06941 -0.115799 108.347)
(0.998893 -0.134612 108.584)
(0.768304 -0.21825 108.802)
(0.857612 -0.841742 108.95)
(1.18378 -0.425636 108.347)
(0.903765 0.0244712 108.856)
(0.787256 0.025747 108.703)
(0.697189 -0.362673 108.981)
(0.649959 -0.711369 108.493)
(0.648957 -0.251258 108.969)
(0.636448 -0.207518 108.628)
(0.688624 0.179303 108.855)
(0.580605 0.284377 108.699)
(0.431496 0.336072 108.858)
(0.309742 0.539787 109.056)
(0.369471 0.865997 108.581)
(0.298845 1.0029 109.277)
(0.171563 1.17073 108.881)
(0.132516 1.25526 109.137)
(0.0544194 1.24603 109.13)
(0.401281 0.618245 108.957)
(0.460499 0.380415 108.903)
(0.464315 0.0468802 109.007)
(0.133328 0.213631 109.045)
(-0.185755 0.527229 108.339)
(0.117009 -0.232274 108.927)
(0.225925 -0.617584 108.338)
(0.893824 -0.92083 107.948)
(2.68352 -0.329447 108.058)
(4.45347 0.189745 107.833)
(6.29636 1.2464 108.031)
(7.76634 1.87476 108.067)
(8.98321 2.66606 108.523)
(9.70769 3.40253 108.884)
(10.2835 4.01431 109.599)
(10.6049 4.26332 110.123)
(10.4632 4.3885 110.913)
(10.2758 4.53144 111.609)
(10.2376 4.61451 112.279)
(9.742 4.63376 112.89)
(9.13416 4.51977 113.647)
(8.08885 4.29483 113.974)
(7.50525 4.22302 114.775)
(7.27346 4.25101 115.063)
(6.80235 4.04592 115.413)
(6.29312 3.98923 116.161)
(6.19631 4.06421 116.135)
(5.88691 3.83684 116.571)
(5.41664 3.69926 116.775)
(4.61461 3.4839 117.21)
(4.54098 3.36681 117.128)
(4.23686 3.18765 117.229)
(3.92203 3.27504 117.465)
(3.93341 3.53938 117.45)
(3.69548 3.29711 117.88)
(2.51783 1.9979 117.778)
(1.0796 -0.142701 117.436)
(-0.0935389 -2.18461 117.642)
(-1.05383 -4.81712 116.091)
(-1.61456 -6.45825 115.774)
(-1.74586 -7.88888 114.143)
(-1.99462 -8.46783 112.98)
(-2.32924 -8.11426 111.007)
(-2.85382 -6.28689 110.048)
(-3.64145 -3.85253 107.915)
(-4.49235 -0.456966 106.983)
(-5.39582 2.66522 104.969)
(-6.10234 6.39222 104.195)
(-6.60351 9.48145 102.49)
(-6.90334 13.0883 101.865)
(-6.92514 15.9079 100.563)
(-6.85744 19.0475 100.02)
(-6.54631 21.7816 99.086)
(-6.23512 24.5755 98.5301)
(-5.6503 27.0454 97.9343)
(-5.3221 29.4771 97.3422)
(-4.53929 31.6801 97.0333)
(-4.23451 33.916 96.4821)
(-3.36349 35.9702 96.4887)
(-3.02522 38.0654 96.0458)
(-2.08301 40.0368 96.264)
(-1.61055 41.9234 95.9643)
(-0.598706 43.7102 96.2322)
(0.203118 45.5654 96.2166)
(1.26404 47.0731 96.5564)
(2.33838 48.6815 96.8713)
(3.56839 49.8297 97.3019)
(4.87125 50.9827 97.7549)
(6.25199 51.8438 98.2937)
(7.69881 52.7759 98.7899)
(9.24881 53.6622 99.4402)
(10.8565 54.2839 99.9357)
(12.523 54.7847 100.589)
(14.231 54.958 100.948)
(15.9062 55.1829 101.572)
(17.5011 55.3464 101.877)
(19.0202 55.2138 102.469)
(20.3493 54.791 102.792)
(21.5542 54.0648 103.281)
(22.4531 52.8628 103.593)
(23.1636 51.2166 104.004)
(23.5536 49.0278 104.243)
(23.7704 46.4605 104.511)
(23.7336 43.2817 104.553)
(23.5881 39.4677 104.608)
(23.3258 34.8664 104.412)
(23.0727 29.5607 104.157)
(22.7741 23.8524 103.7)
(22.6246 18.0187 103.002)
(22.4456 11.8343 102.282)
(22.6229 5.8538 100.884)
(22.845 -0.196505 99.9976)
(23.2944 -5.36189 97.7728)
(24.1706 -10.2701 96.7161)
(24.8458 -13.9186 93.6705)
(26.8694 -16.4889 92.5181)
(28.1333 -17.5862 89.1056)
(30.992 -16.7889 87.9822)
(32.5566 -14.4747 84.8938)
(35.0455 -10.3756 83.9386)
(35.9569 -5.36513 81.6124)
(37.5825 0.934969 80.9651)
(36.8927 7.37523 79.4547)
(36.9376 13.4533 79.4023)
(34.5695 18.3689 78.599)
(33.0828 22.2889 78.9848)
(30.3527 24.4241 78.9098)
(28.6214 25.4485 79.4916)
(26.8589 25.2095 80.1209)
(25.7258 23.834 80.6097)
(23.5545 21.0553 81.4453)
(23.9011 19.5112 81.3983)
(24.728 18.7722 81.9037)
)
;

boundaryField
{
    inlet
    {
        type            zeroGradient;
    }
    outlet
    {
        type            zeroGradient;
    }
    repeat_boundary
    {
        type            slip;
    }
    procBoundary3to1
    {
        type            processor;
        value           nonuniform List<vector> 
180
(
(0.050225 -0.0845167 110.116)
(0.0764831 -0.0867942 110.869)
(0.0979491 -0.0880475 110.818)
(0.100261 -0.0892456 110.701)
(0.0951687 -0.0742402 110.618)
(0.0556287 -0.0292101 110.811)
(0.0551998 0.024647 110.392)
(0.167053 -0.00888728 110.683)
(0.207197 -0.00290452 110.797)
(0.0157634 0.312909 110.834)
(-0.115245 0.57849 110.417)
(0.00378553 0.366101 110.767)
(0.609462 -0.292101 110.45)
(0.618442 -0.33766 110.575)
(0.839224 -0.554575 110.802)
(1.03953 -0.734887 110.696)
(1.48234 -1.11186 110.712)
(2.03427 -1.48226 111.197)
(2.3028 -1.51175 111.226)
(2.46046 -1.41059 111.519)
(2.57705 -1.29316 111.735)
(2.69513 -1.14591 111.952)
(2.76599 -1.03542 112.182)
(2.75393 -0.953683 112.432)
(2.61554 -0.866833 112.684)
(2.43917 -0.708285 112.946)
(2.38215 -0.551629 113.218)
(2.35321 -0.556437 113.482)
(2.23021 -0.543248 113.786)
(2.19655 -0.356109 114.061)
(2.20883 -0.160377 114.304)
(2.10294 0.0358898 114.516)
(2.07069 0.251011 114.847)
(2.30518 0.406676 114.922)
(2.08997 0.790365 115.221)
(1.74614 1.1146 115.252)
(1.88025 1.19678 115.545)
(2.13762 0.949028 115.305)
(1.83958 1.08409 115.732)
(1.24615 1.13338 115.576)
(0.915039 1.1834 115.674)
(0.210955 1.50931 115.884)
(0.63186 1.30083 115.528)
(0.984208 1.04896 115.836)
(0.38137 0.846023 115.703)
(0.557128 0.660865 115.475)
(0.431143 0.60827 115.9)
(0.651206 0.288417 115.781)
(1.02246 -0.126194 115.57)
(0.858379 -0.12891 115.963)
(0.910438 -0.267297 115.705)
(1.00878 -0.279634 115.819)
(1.13297 -0.277881 115.765)
(1.19753 -0.338974 115.618)
(1.09961 -0.343387 115.599)
(0.978679 -0.248245 115.589)
(0.837258 -0.16119 115.532)
(0.720842 -0.122351 115.402)
(0.641271 -0.0604718 115.277)
(0.393482 0.0223193 115.113)
(0.17451 0.101398 114.916)
(0.0244984 0.218563 114.722)
(-0.313988 0.390333 114.327)
(-0.650628 0.645727 114.498)
(-0.387256 0.160979 113.304)
(-0.230273 -0.318166 113.438)
(0.22047 -0.985504 113.143)
(-0.53869 -0.537837 113.607)
(-0.326893 -0.685561 112.238)
(-0.336925 -0.984026 112.898)
(0.401865 -1.44327 112.404)
(0.119108 -1.28117 112.751)
(0.754786 -1.46954 112.196)
(1.41503 -1.95775 112.489)
(1.66103 -1.96073 112.611)
(1.62208 -2.34502 112.905)
(1.44221 -2.87397 112.917)
(1.66124 -3.02452 113.096)
(1.68107 -3.13917 113.181)
(1.71882 -3.15158 113.287)
(1.72139 -3.17133 113.345)
(1.68646 -3.17321 113.528)
(3.11673 -2.28955 113.157)
(3.183 -2.23438 113.336)
(3.11689 -2.15798 113.483)
(2.69766 -2.23621 113.531)
(3.5539 -1.63698 113.277)
(4.60596 -1.02852 113.42)
(4.77361 -0.757263 113.38)
(4.85056 -0.532043 113.509)
(4.71132 -0.535371 113.504)
(4.45477 -0.638976 113.656)
(4.03919 -0.796534 113.669)
(4.01847 -0.836617 113.706)
(4.40264 -0.755094 113.745)
(4.5051 -0.713948 113.855)
(4.61203 -0.638834 113.983)
(4.71151 -0.610473 114.1)
(4.82871 -0.579918 114.276)
(4.95416 -0.458968 114.493)
(3.83661 -0.884258 114.526)
(4.1566 -0.831853 114.673)
(3.62586 -1.03106 115.128)
(2.78047 -2.25086 114.782)
(2.47386 -4.1643 115.828)
(2.99478 -6.22529 116.031)
(4.10303 -8.55499 117.231)
(4.95699 -10.3198 118.198)
(6.15702 -12.0935 119.727)
(7.56233 -13.8491 120.899)
(9.17465 -15.705 122.687)
(10.2743 -17.1091 123.706)
(11.4121 -18.4005 125.343)
(12.3084 -19.2612 126.051)
(13.2743 -20.0801 127.11)
(13.8218 -20.6062 127.707)
(13.962 -20.8724 128.222)
(14.9107 -21.6164 128.218)
(16.3233 -23.0077 128.301)
(17.5928 -24.3444 128.255)
(19.0436 -25.5377 128.131)
(21.1803 -27.2087 127.932)
(22.5076 -28.5917 127.873)
(22.9777 -29.2452 127.761)
(23.7187 -29.8607 127.166)
(24.2219 -30.2592 126.699)
(24.4774 -30.7269 126.474)
(26.1121 -32.2622 125.03)
(26.645 -32.8915 125.515)
(27.6954 -33.8266 124.414)
(28.2947 -34.3039 123.984)
(28.4705 -34.4496 123.664)
(28.5827 -34.7875 122.92)
(30.4713 -36.0115 121.291)
(30.5451 -35.9868 121.216)
(30.5903 -36.0847 120.461)
(30.4841 -36.2298 119.314)
(30.8844 -36.4316 117.485)
(31.7796 -37.0873 115.44)
(32.294 -37.6709 114.378)
(32.9653 -38.4282 111.824)
(32.6088 -38.2765 111.24)
(32.769 -38.5796 109.194)
(32.4584 -38.624 107.115)
(32.5339 -38.9739 105.41)
(32.2805 -38.861 103.407)
(32.0857 -38.507 102.399)
(31.9788 -38.0601 99.8019)
(31.6439 -37.624 99.5293)
(31.2288 -37.4309 97.606)
(30.8593 -36.7039 96.4924)
(29.7241 -35.6013 95.4648)
(27.8886 -34.0007 94.5104)
(26.063 -31.8747 94.0312)
(24.265 -29.643 92.9684)
(22.7679 -27.792 92.8507)
(21.4879 -26.2002 92.3036)
(19.9789 -24.5366 92.2973)
(19.036 -23.2552 92.3797)
(18.8664 -22.9209 93.0389)
(18.9731 -22.9279 93.6054)
(18.876 -22.8341 94.3669)
(19.0907 -22.31 95.4515)
(19.4964 -21.8432 96.6895)
(19.9916 -21.2666 97.9923)
(20.2957 -20.758 99.2863)
(20.6296 -20.6379 100.661)
(20.6585 -21.013 101.851)
(21.1479 -21.2332 102.637)
(21.4558 -21.2426 103.475)
(21.5949 -21.4578 103.621)
(21.4136 -21.9351 103.644)
(19.7528 -20.9633 103.439)
(19.6066 -21.5351 103.205)
(18.0279 -19.4535 102.36)
(18.1928 -20.4251 102.011)
(18.2373 -20.853 101.841)
(17.9366 -20.095 101.376)
(16.6209 -18.6923 100.602)
(14.9332 -19.9632 101.18)
)
;
    }
    procBoundary3to2
    {
        type            processor;
        value           nonuniform List<vector> 
180
(
(0.0361988 -0.0740586 108.647)
(0.0247783 -0.0793877 108.813)
(0.0309395 -0.0640028 108.979)
(-0.0162115 -0.0292244 109.087)
(-0.0269179 -0.0256623 108.473)
(-0.0253528 0.0523812 108.986)
(0.0707027 -0.0251581 108.835)
(-0.0493739 0.155137 108.828)
(-0.115 0.263205 109.02)
(-0.0493521 0.318767 108.892)
(-0.180874 0.569954 108.87)
(-0.098576 0.424172 109.1)
(-0.261141 0.492719 109.061)
(-0.430258 0.546295 109.066)
(-0.342243 0.475276 109.188)
(-0.314137 0.522 109.118)
(-0.171237 0.521112 109.215)
(-0.0215002 0.496851 109.443)
(0.158545 0.590398 108.782)
(0.17666 0.534126 109.186)
(0.1921 0.40429 109.385)
(0.252255 0.428642 109.397)
(0.229911 0.637435 108.958)
(0.0393959 0.65146 109.475)
(-0.0277259 0.687553 109.172)
(-0.102785 0.730931 109.399)
(-0.135814 0.787868 109.376)
(-0.175076 0.800498 109.466)
(-0.146421 0.657781 109.443)
(0.0545774 0.542797 109.522)
(0.215602 0.529981 109.559)
(0.296047 0.485837 109.557)
(0.416409 0.442079 109.782)
(0.389245 0.752642 109.008)
(0.190502 1.07501 109.26)
(0.160139 1.02876 109.765)
(0.492057 0.827064 109.694)
(0.51108 0.785265 108.623)
(0.112561 1.05304 109.468)
(0.0318171 1.10127 109.337)
(0.495179 0.707804 109.197)
(0.909504 0.327893 109.017)
(0.53096 0.596388 108.82)
(0.519726 0.570459 108.742)
(0.532896 0.502077 108.797)
(0.357123 0.304918 108.177)
(0.261577 0.23981 108.234)
(0.2528 0.0634891 108.592)
(0.429595 -0.272617 107.606)
(0.311067 -0.396069 107.532)
(0.0220907 -0.315997 108.294)
(0.31141 -0.509111 106.795)
(0.361237 -0.4313 106.989)
(0.110208 -0.359349 107.343)
(0.0671672 -0.338432 106.717)
(-0.025372 -0.168102 106.265)
(-0.0310186 -0.380857 106.622)
(-0.0599247 -0.406194 106.101)
(-0.124722 -0.308373 106.253)
(-0.177084 -0.725132 105.301)
(-0.367684 -0.812831 105.554)
(-0.480754 -0.831612 105.535)
(-0.52867 -0.890059 105.497)
(-0.624448 -0.767507 104.654)
(-0.686126 -0.718781 105.118)
(-0.774536 -0.75979 104.478)
(-0.878414 -0.926869 104.553)
(-0.981557 -1.06341 104.258)
(-1.07464 -1.17697 104.213)
(-1.21788 -1.22418 104.128)
(-1.42381 -1.19232 103.057)
(-1.36661 -1.19554 103.391)
(-1.27394 -1.30069 103.788)
(-1.52784 -1.30825 102.884)
(-1.8021 -1.09675 102.527)
(-1.73363 -0.962753 103.087)
(-2.00484 -1.1218 102.337)
(-2.3829 -1.34944 102)
(-2.1329 -1.48535 101.972)
(-0.338404 -1.07454 100.679)
(0.99199 -0.27857 99.6064)
(1.0985 0.886939 99.6013)
(1.08804 1.23129 99.0242)
(1.34652 0.225062 98.2198)
(1.54358 -0.606968 97.7342)
(0.600848 1.07465 96.284)
(-0.210937 2.17647 95.9573)
(-0.805877 3.01904 94.9763)
(-0.911348 3.52654 95.3176)
(-0.984133 3.09181 95.1604)
(-1.14315 2.34983 94.7024)
(-1.62636 2.27362 94.0801)
(-2.39308 2.53712 94.0651)
(-3.13686 2.92883 93.9727)
(-3.30516 3.10626 93.9212)
(-3.44573 2.94691 93.9707)
(-3.6943 2.70066 93.9986)
(-3.9356 2.55721 93.9569)
(-3.92291 3.29438 94.1713)
(-3.93644 3.60072 94.3221)
(-3.88549 3.89859 94.6138)
(-3.87346 4.18378 94.79)
(-3.88312 4.44406 95.1408)
(-3.83081 4.6809 95.5664)
(-4.6908 3.98763 95.9941)
(-5.92413 2.95617 96.5674)
(-6.53667 2.12183 97.3232)
(-6.65404 1.33809 97.8422)
(-6.57717 0.690216 98.3402)
(-6.32239 0.0184697 98.8554)
(-6.36314 -0.222994 99.3428)
(-6.02901 -0.812515 99.8324)
(-5.9498 -0.930575 100.334)
(-5.50539 -1.28575 100.968)
(-5.3343 -1.16075 101.489)
(-4.99173 -1.16759 102.232)
(-4.93453 -0.862395 102.901)
(-4.82448 -0.698742 103.608)
(-4.82442 -0.364191 104.412)
(-4.90129 -0.181062 105.066)
(-4.93568 0.182495 105.933)
(-5.14141 0.51325 106.502)
(-5.26026 0.992412 107.409)
(-5.56849 1.24497 108.054)
(-5.77314 1.86979 108.843)
(-6.13757 2.33531 109.49)
(-6.38248 3.12793 110.201)
(-6.7477 3.61117 110.966)
(-6.91665 4.12664 111.645)
(-7.17241 4.48212 112.431)
(-7.33814 4.91923 113.043)
(-7.69344 5.33105 113.828)
(-8.10488 5.79031 114.435)
(-8.82068 6.58993 115.214)
(-9.83695 7.55563 115.953)
(-11.2771 8.82312 116.965)
(-13.0234 10.1987 117.964)
(-15.0344 11.7739 119.201)
(-17.1811 13.3257 120.449)
(-19.3814 14.8561 121.873)
(-21.5408 16.185 123.295)
(-23.5641 17.3243 124.8)
(-25.3893 18.1304 126.27)
(-26.9574 18.681 127.802)
(-28.1969 18.849 129.225)
(-29.1288 18.8385 130.689)
(-29.7397 18.5104 131.992)
(-30.0426 18.0678 133.421)
(-30.0531 17.2994 134.539)
(-29.816 16.4938 135.865)
(-29.4295 15.5398 136.736)
(-28.9753 14.6906 137.912)
(-28.4594 13.7242 138.536)
(-28.0699 13.0261 139.583)
(-27.7119 12.3787 140.103)
(-27.6744 11.9587 141.031)
(-27.5958 11.4907 141.481)
(-27.9931 11.4369 142.339)
(-28.2397 11.1629 142.683)
(-29.0846 11.41 143.644)
(-29.658 11.3876 143.823)
(-30.9547 12.0202 144.773)
(-31.7887 12.592 145.042)
(-33.8406 13.965 145.814)
(-34.4694 15.5982 146.566)
(-36.7422 17.7098 146.91)
(-36.9925 20.2485 148.206)
(-38.3737 22.6092 148.428)
(-38.2368 25.6403 149.812)
(-37.9022 28.482 150.21)
(-36.5462 30.8208 151.526)
(-35.2485 32.815 152.13)
(-31.8212 34.2645 153.583)
(-27.9436 34.7984 154.273)
(-23.1175 34.4753 155.229)
(-19.2677 34.2398 156.707)
(-18.5923 31.9176 155.658)
(-17.6998 30.8439 155.963)
(-15.5522 30.2439 157.05)
(-15.2518 29.5448 156.787)
)
;
    }
}


// ************************************************************************* //
