/*--------------------------------*- C++ -*----------------------------------*\
| =========                 |                                                 |
| \\      /  F ield         | OpenFOAM: The Open Source CFD Toolbox           |
|  \\    /   O peration     | Version:  5.x                                   |
|   \\  /    A nd           | Web:      www.OpenFOAM.org                      |
|    \\/     M anipulation  |                                                 |
\*---------------------------------------------------------------------------*/
FoamFile
{
    version     2.0;
    format      ascii;
    class       volVectorField;
    location    "6000";
    object      U;
}
// * * * * * * * * * * * * * * * * * * * * * * * * * * * * * * * * * * * * * //

dimensions      [0 1 -1 0 0 0 0];

internalField   nonuniform List<vector> 
180
(
(0.0764567 0.132219 43.0102)
(0.0632266 0.11339 43.3451)
(0.0545741 0.106984 43.3092)
(0.0281017 0.0891263 43.116)
(0.00639147 0.101017 43.278)
(0.00753267 0.119397 43.3423)
(0.018156 0.118708 43.171)
(0.0431693 0.144243 43.2722)
(0.0418837 0.148331 43.3359)
(0.129083 0.260375 43.3613)
(0.0566219 0.167553 43.2299)
(0.0511478 0.14897 43.3903)
(0.0544816 0.147454 43.4176)
(0.0873977 0.183944 43.3734)
(0.110352 0.181619 43.4577)
(0.108421 0.104093 43.3947)
(0.123729 0.0828752 43.4773)
(0.13672 0.0624778 43.5285)
(0.127791 0.148942 43.356)
(0.140618 0.171486 43.6045)
(0.147033 0.245735 43.4385)
(0.163431 0.259153 43.5334)
(0.169285 0.248935 43.6238)
(0.161137 0.293038 43.5455)
(0.156495 0.324328 43.6186)
(0.136002 0.314262 43.6999)
(0.383132 0.266536 43.5192)
(0.389824 0.248347 43.7128)
(0.387547 0.221425 43.7568)
(0.386593 0.270563 43.7306)
(0.357501 0.32463 43.7491)
(0.314416 0.234033 43.86)
(0.413807 0.112285 43.7502)
(0.585412 -0.144595 43.6639)
(0.629261 -0.122313 43.8703)
(0.613061 -0.101502 43.8909)
(0.540364 -0.122448 43.7823)
(0.464655 -0.232479 43.7039)
(0.441463 -0.232318 43.7865)
(0.173771 -0.362597 43.5702)
(0.0794424 -0.355776 43.5413)
(0.0425036 -0.367722 43.5157)
(-0.0307486 -0.413507 43.4737)
(-0.430464 -0.388705 43.0509)
(-0.493243 -0.286531 43.084)
(-0.51439 -0.288081 43.1807)
(-0.689085 -0.252654 42.8286)
(-0.757633 -0.287763 42.7096)
(-0.729494 -0.202443 42.4371)
(-0.706447 -0.12206 42.5472)
(-0.747225 -0.109073 42.5458)
(-0.764357 -0.0258351 42.1181)
(-0.771254 -0.0131036 42.1975)
(-0.78719 0.00812922 42.1853)
(-0.655444 0.0731992 41.8023)
(-0.650799 0.115425 41.8938)
(-0.69662 0.0750765 41.807)
(-0.684783 0.0983155 41.7388)
(-0.418299 0.211605 41.5469)
(-0.242897 0.271952 41.4843)
(-0.0982506 0.337264 41.3895)
(-0.0923509 0.390333 41.4885)
(-0.111853 0.402318 41.4331)
(-0.160926 0.400891 41.4074)
(0.0264744 0.474604 41.2617)
(0.166743 0.567896 41.3127)
(0.248707 0.640844 41.1923)
(0.200099 0.743291 41.4046)
(0.209936 0.775838 41.2486)
(0.160908 0.874101 41.3494)
(0.104106 0.92757 41.4298)
(0.203914 0.909256 41.2556)
(0.0998392 1.03068 41.4741)
(0.0111873 1.05602 41.4467)
(-0.0251134 1.21528 41.4739)
(-0.0803296 1.37891 41.559)
(-0.222769 1.3273 41.5724)
(-0.175176 1.23748 41.5726)
(-0.219903 1.32539 41.618)
(-0.297672 1.44889 41.71)
(-0.335273 1.54815 41.6454)
(-0.464098 1.63 41.7408)
(-0.635365 1.7562 41.8138)
(-0.715099 1.97875 41.7573)
(-0.759473 2.35016 41.9235)
(-0.893403 2.50338 41.936)
(-1.08645 2.74094 42.0465)
(-1.20517 2.85591 42.0739)
(-1.52679 3.22643 42.2822)
(-1.71692 3.3847 42.3114)
(-2.14412 3.78466 42.4655)
(-2.26901 3.99462 42.4948)
(-2.74808 4.59409 42.7335)
(-2.95105 4.85771 42.7976)
(-3.51466 5.50402 43.0552)
(-3.40938 5.65711 43.0749)
(-3.27828 5.9547 43.3575)
(-3.34113 6.40264 43.6526)
(-3.6326 6.84237 43.9867)
(-4.04305 7.47706 44.3416)
(-4.76634 8.31282 44.7261)
(-5.67393 9.46144 45.3661)
(-6.63725 10.7194 45.6774)
(-8.28184 12.6853 46.9747)
(-9.87346 14.7645 47.4368)
(-12.1268 16.4705 50.6877)
(-19.5897 26.73 55.0743)
(-22.5019 31.3726 58.7583)
(-24.6164 37.3598 63.8529)
(-25.409 42.2126 69.5337)
(-24.6558 46.5804 71.8612)
(-23.3835 50.6509 75.5086)
(-20.4131 53.9071 77.3092)
(-18.0122 56.5023 79.6104)
(-13.8442 58.818 80.3376)
(-11.5932 60.9039 81.5641)
(-7.51717 63.1634 81.8157)
(-5.42328 65.4746 82.1492)
(-2.69461 67.637 82.369)
(-0.407564 70.3855 81.7515)
(1.45497 72.1747 82.2588)
(4.28567 74.5909 81.1729)
(6.75262 75.9582 81.9484)
(9.96644 76.8559 80.7699)
(13.4745 77.4354 81.2701)
(17.1764 77.7964 80.4544)
(19.9782 77.6908 80.4419)
(22.0011 76.764 79.8387)
(23.2195 75.1667 80.4085)
(24.0315 71.5138 79.7651)
(24.1883 67.8245 80.3206)
(23.8389 62.7986 79.5024)
(23.1785 58.1623 80.1719)
(22.2851 52.2362 78.5978)
(21.224 47.3063 79.4048)
(20.0654 40.8603 77.2269)
(19.1577 35.1566 77.5954)
(18.2338 28.454 75.344)
(17.7676 21.517 74.3753)
(17.8642 13.708 72.4143)
(18.0482 5.94223 69.496)
(19.0812 -2.83598 67.6261)
(19.2406 -12.1726 63.282)
(21.5133 -22.2599 60.3155)
(22.4423 -30.4578 55.168)
(24.9519 -36.5687 50.8823)
(27.0196 -39.4993 45.7937)
(31.0305 -38.2555 40.7992)
(36.0546 -30.861 36.8052)
(41.5887 -19.7316 32.4265)
(45.855 -6.05732 29.484)
(48.4438 8.17164 27.7738)
(49.1482 20.7016 26.3131)
(47.5529 31.7535 26.2903)
(44.0757 40.3249 25.5919)
(39.7605 46.22 26.3076)
(36.4996 49.6619 27.2092)
(33.9137 47.9515 29.3374)
(33.7147 38.3015 29.7034)
(37.21 25.6833 32.4967)
(42.0341 10.8559 33.3461)
(47.0886 -4.15246 36.1882)
(50.8753 -19.5031 37.2358)
(52.6041 -32.7263 38.8794)
(52.0371 -43.5902 39.2104)
(49.5908 -50.7368 39.8814)
(45.4255 -54.4275 39.6732)
(39.5337 -54.2541 39.5643)
(32.5849 -51.0514 39.0417)
(25.6323 -45.6477 38.2077)
(19.6087 -38.8642 37.1646)
(14.1993 -31.097 36.719)
(10.0964 -23.1059 35.985)
(6.49449 -14.9919 36.1968)
(3.83236 -7.16408 35.716)
(1.26303 0.0324746 36.4801)
(-0.321699 5.7748 36.337)
(-1.49575 10.7866 37.4779)
(-1.98008 14.188 37.3494)
(-3.41275 16.4078 38.6374)
)
;

boundaryField
{
    inlet
    {
        type            zeroGradient;
    }
    outlet
    {
        type            zeroGradient;
    }
    repeat_boundary
    {
        type            slip;
    }
    procBoundary3to1
    {
        type            processor;
        value           nonuniform List<vector> 
180
(
(-0.136051 0.133568 41.7981)
(-0.14291 0.137286 41.8477)
(-0.106097 0.104186 41.9483)
(-0.0813632 0.0976331 41.9102)
(-0.0611252 0.0734486 41.8144)
(-0.061988 0.0668575 41.9023)
(-0.100573 0.12267 41.6128)
(-0.0891221 0.117082 41.8479)
(-0.0899969 0.07035 41.7342)
(-0.0715079 0.113966 41.8126)
(-0.0709138 0.134996 41.5535)
(-0.0471696 0.12497 41.801)
(-0.0325037 0.0818796 41.5227)
(0.0086622 0.1013 41.7867)
(-0.0256225 0.106795 41.4668)
(0.0400063 0.0658079 41.6321)
(0.071625 0.0716381 41.7154)
(0.146213 0.0118163 41.4978)
(0.176959 0.00863344 41.7514)
(0.0888072 0.060702 41.514)
(0.099555 0.0656774 41.6381)
(0.0878308 0.0903482 41.5708)
(0.0710599 0.112191 41.6238)
(0.160514 0.0384724 41.4563)
(0.168138 0.0537365 41.5461)
(0.152247 0.0662118 41.6306)
(0.219474 0.0147455 41.4906)
(0.364134 -0.10281 41.4225)
(0.427908 -0.172292 41.6261)
(0.386364 -0.144206 41.6277)
(0.282739 -0.0619334 41.6561)
(0.268954 -0.245227 41.5274)
(0.302417 -0.287671 41.7379)
(0.317215 -0.367291 41.6043)
(0.260649 -0.353421 41.7995)
(0.223402 -0.387544 41.7609)
(0.207946 -0.379545 41.801)
(0.163869 -0.39572 41.9657)
(0.169519 -0.506388 41.8266)
(0.181218 -0.584973 41.9192)
(0.178949 -0.562461 42.0957)
(0.115338 -0.625508 42.0837)
(0.0738207 -0.686706 42.1326)
(0.057884 -0.684371 42.2678)
(0.0597573 -0.642992 42.2266)
(0.0349795 -0.676024 42.3221)
(0.0111009 -0.671834 42.4057)
(-0.0272391 -0.649726 42.4348)
(0.0580224 -0.628457 42.3957)
(0.0617333 -0.520927 42.5107)
(0.0311361 -0.443334 42.5536)
(-0.0181569 -0.41869 42.562)
(0.119717 -0.511209 42.5335)
(0.296597 -0.513404 42.5948)
(0.427488 -0.518622 42.6475)
(0.4831 -0.491289 42.666)
(0.462237 -0.447754 42.709)
(0.413517 -0.409227 42.7473)
(0.367476 -0.33224 42.7434)
(0.324778 -0.31379 42.806)
(0.276367 -0.322806 42.8215)
(0.273214 -0.37408 42.7742)
(0.247277 -0.346244 42.7956)
(0.276137 -0.299754 42.7673)
(0.238974 -0.286505 42.7795)
(0.193284 -0.27566 42.7798)
(0.153399 -0.225335 42.7206)
(0.112166 -0.149059 42.708)
(0.108168 -0.0572758 42.631)
(0.0866762 0.0207323 42.5934)
(0.056608 0.0925784 42.534)
(-0.0702028 0.205408 42.3837)
(-0.23879 0.338872 42.376)
(-0.389286 0.425076 42.125)
(-0.503361 0.566354 42.0112)
(-0.558134 0.603444 41.8676)
(-0.674228 0.675078 41.5542)
(-0.898643 0.856923 41.4675)
(-1.02449 0.897512 41.1655)
(-1.26763 1.0974 40.8993)
(-1.44531 1.18401 40.5579)
(-1.66234 1.30631 40.2184)
(-1.86933 1.49399 39.8333)
(-2.12929 1.75049 39.4734)
(-2.23496 1.7272 38.8749)
(-2.53298 1.9932 38.3837)
(-2.97264 2.30304 37.9079)
(-2.92104 2.2759 37.2155)
(-3.19106 2.54126 36.4934)
(-3.22345 2.71691 35.8595)
(-3.46335 3.01623 35.0123)
(-3.62384 3.17238 34.1622)
(-4.17333 3.77502 33.2244)
(-4.66688 4.21983 32.0903)
(-5.14964 4.65931 30.9172)
(-5.82275 5.06983 29.5796)
(-6.57327 5.54053 28.1952)
(-7.67259 6.29916 26.5327)
(-8.77213 6.98542 24.9207)
(-10.2665 8.03226 22.7871)
(-11.6733 8.87264 20.8418)
(-14.2591 10.8644 17.9219)
(-16.057 11.5278 15.6147)
(-22.9796 18.1494 11.295)
(-24.9087 14.8409 8.93645)
(-72.5357 69.5643 2.05018)
(-77.5376 100.61 -16.8581)
(-59.6211 88.0582 -26.5376)
(-41.4246 74.5809 -38.2225)
(-21.5902 58.7932 -47.5575)
(-1.82837 41.0506 -55.9261)
(15.3928 22.0585 -62.7608)
(30.4591 3.41515 -67.8673)
(42.5791 -14.7971 -71.5041)
(51.8103 -31.7163 -74.2366)
(57.8812 -46.3661 -75.8249)
(61.2452 -58.438 -76.8241)
(61.9963 -66.9132 -77.2652)
(61.4819 -72.2589 -78.0619)
(59.5977 -73.9938 -78.5229)
(57.671 -73.2634 -78.9818)
(55.7728 -71.9344 -81.2589)
(54.5786 -70.1066 -81.4849)
(55.8583 -71.9059 -82.9961)
(56.2216 -72.6911 -84.0653)
(56.2693 -73.5237 -89.2232)
(54.758 -69.7515 -88.4958)
(53.9123 -67.9425 -90.4832)
(52.5067 -64.4796 -92.2254)
(50.9742 -61.7541 -93.5757)
(49.5091 -58.5853 -95.0042)
(47.8822 -55.8152 -96.02)
(46.2366 -52.9361 -96.8662)
(44.4627 -50.3877 -97.3985)
(42.7239 -47.9278 -97.5478)
(40.8671 -45.7522 -97.6276)
(39.0969 -43.7259 -96.9779)
(37.2741 -41.9876 -96.5714)
(35.6245 -40.4587 -94.8873)
(34.1654 -39.374 -93.8923)
(32.893 -38.4806 -91.1286)
(31.9023 -37.9932 -89.2654)
(31.1059 -37.6686 -85.3488)
(30.6933 -37.9076 -82.2218)
(30.3975 -37.9278 -77.4366)
(30.7483 -38.4746 -73.4077)
(30.8977 -39.1739 -68.1531)
(31.8664 -39.7577 -64.4164)
(31.8774 -41.1996 -59.728)
(32.654 -41.9418 -56.4341)
(32.0854 -43.3932 -53.4356)
(32.1905 -44.1501 -51.7075)
(30.9836 -43.6613 -49.4576)
(31.701 -45.7406 -50.7166)
(30.9079 -44.6686 -48.1031)
(32.3929 -46.3714 -51.4927)
(31.0987 -44.754 -50.1818)
(31.7172 -45.6135 -51.5242)
(33.5694 -47.9318 -52.2153)
(33.3326 -47.6793 -49.0304)
(34.232 -49.0545 -47.8791)
(35.0002 -50.7094 -41.6938)
(35.6272 -51.4807 -36.6825)
(36.1076 -54.3605 -28.9496)
(36.9307 -54.3228 -20.4569)
(36.5246 -55.8976 -13.0809)
(36.1627 -56.5385 -4.89739)
(33.945 -55.179 4.66775)
(31.7615 -51.7632 13.4057)
(29.9137 -46.802 22.1726)
(27.96 -40.9715 30.1783)
(26.0736 -34.3879 36.8044)
(24.2614 -28.0095 42.4498)
(22.2586 -21.5244 47.4414)
(20.6942 -15.9732 50.6676)
(18.8075 -10.9021 54.0641)
(17.2175 -6.83323 55.478)
(15.2149 -3.52686 57.1885)
(13.9999 -0.577665 57.7584)
(12.0386 1.07166 57.8034)
)
;
    }
    procBoundary3to2
    {
        type            processor;
        value           nonuniform List<vector> 
180
(
(0.0761145 -0.0785225 42.5109)
(0.0814709 -0.0869404 42.5472)
(0.0508179 -0.052619 42.7399)
(0.0439105 -0.0332928 42.5068)
(0.0269735 -0.0158742 42.5817)
(0.022511 -0.00377158 42.5935)
(0.0257609 0.0321604 42.5493)
(0.0288976 0.0131042 42.6135)
(0.0111639 0.014053 42.5734)
(-0.00952217 0.00644381 42.4231)
(-0.00577511 0.0241712 42.5966)
(-0.0110253 0.0538691 42.5991)
(0.00232492 0.109635 42.5239)
(0.0472566 0.102082 42.6109)
(0.057872 0.0447446 42.4877)
(0.0561105 0.0452646 42.5736)
(0.0703881 0.0391265 42.5294)
(0.0813239 0.0258941 42.5775)
(-0.0113276 0.0520342 42.4808)
(-0.0783195 0.123001 42.5116)
(-0.0961356 0.0629591 42.4043)
(-0.107237 0.032251 42.5701)
(-0.101238 0.0579553 42.5689)
(-0.0876864 0.188299 42.554)
(-0.0210359 0.106481 42.3946)
(-0.0574803 0.0975798 42.5458)
(-0.0580141 0.089924 42.542)
(-0.0513385 0.0967114 42.4919)
(-0.0548872 0.123504 42.5156)
(0.0585173 -0.140847 42.3912)
(0.0934349 -0.221302 42.0222)
(0.00344829 -0.105904 42.3983)
(-0.0202234 -0.119721 42.1155)
(-0.0278941 -0.186722 42.07)
(-0.020604 -0.215948 42.1145)
(-0.11724 -0.144952 41.7574)
(-0.563019 0.218041 41.5206)
(-0.560705 0.245979 41.8279)
(-0.657872 0.309133 41.8214)
(-0.896203 0.472541 41.6741)
(-0.958035 0.532685 41.6634)
(-0.873805 0.474138 41.7025)
(-0.881118 0.460084 41.6871)
(-0.871266 0.442619 41.7896)
(-0.954531 0.558877 41.6082)
(-0.976064 0.55523 41.8154)
(-0.97989 0.539975 41.9001)
(-1.03463 0.489366 41.9067)
(-1.04662 0.456768 41.9665)
(-0.924682 0.412404 41.913)
(-0.895445 0.408453 42.0191)
(-0.867098 0.405376 42.1831)
(-0.903044 0.32014 42.0705)
(-0.904357 0.295844 42.2054)
(-0.918568 0.352535 42.3255)
(-0.888851 0.299249 42.329)
(-0.83021 0.245745 42.4271)
(-0.803082 0.277862 42.5104)
(-0.784216 0.294704 42.6105)
(-0.807596 0.292215 42.7344)
(-0.840461 0.267177 42.8252)
(-0.799146 0.281994 42.872)
(-0.740276 0.316365 42.9216)
(-0.749704 0.38838 43.1202)
(-0.652424 0.424924 43.0428)
(-0.724887 0.483391 43.2778)
(-0.655012 0.5678 43.3274)
(-0.65666 0.665322 43.3444)
(-0.699854 0.800853 43.5589)
(-0.669622 0.771958 43.534)
(-0.744008 0.891785 43.7801)
(-0.779269 0.972139 43.9612)
(-0.752968 0.947308 43.8486)
(-0.859562 1.08391 44.3204)
(-0.909064 0.861269 44.0818)
(-1.03302 1.09734 44.4727)
(-1.08561 1.2205 44.6822)
(-1.22793 1.30267 44.8289)
(-1.34817 1.2052 44.7648)
(-1.53925 1.23941 45.223)
(-1.61439 1.25043 45.4594)
(-1.66254 1.17554 45.4404)
(-1.82575 1.21282 45.8339)
(-1.92935 1.25314 45.7728)
(-2.17437 1.43367 46.3952)
(-2.29118 1.4966 46.7097)
(-2.24945 1.46195 46.7829)
(-2.21092 1.45596 47.0493)
(-2.37982 1.567 47.6739)
(-2.43577 1.64645 47.768)
(-2.53062 1.8638 48.243)
(-2.61147 1.98915 48.4663)
(-3.20707 2.36154 49.4842)
(-3.55519 2.58136 49.9256)
(-3.96021 2.8165 50.4778)
(-4.29474 2.98891 51.4314)
(-4.05523 2.96273 51.6452)
(-4.26621 3.12527 52.8058)
(-4.53034 3.31815 53.4368)
(-5.01121 3.5244 54.179)
(-5.77246 4.06851 55.152)
(-6.49596 4.47675 56.345)
(-7.34326 5.12258 57.2736)
(-8.0994 5.45174 58.9377)
(-9.08552 6.21061 60.2132)
(-9.46123 6.124 62.2606)
(-10.5133 6.9903 64.1791)
(-10.5804 6.60945 66.9803)
(-11.3789 7.40805 69.7656)
(-11.092 6.87913 73.3736)
(-10.9955 7.41975 76.1388)
(-10.2149 6.92197 79.7778)
(-9.38097 6.94663 82.0261)
(-7.99143 6.33354 85.2592)
(-6.46839 5.73711 87.3612)
(-4.91474 5.12412 89.3133)
(-2.16476 3.79863 91.8731)
(-1.90504 4.38399 92.69)
(-2.68512 6.27011 94.7972)
(-5.7522 9.70151 96.6215)
(-9.89155 13.5481 98.9148)
(-15.0444 17.235 101.415)
(-20.0787 20.7718 104.253)
(-24.3463 22.8468 107.465)
(-28.3124 24.6508 110.316)
(-30.7168 24.6138 113.672)
(-32.8248 24.6576 116.143)
(-33.4658 23.5485 119.139)
(-33.7555 22.4358 121.179)
(-33.302 20.7497 123.738)
(-32.8678 19.257 125.216)
(-31.7755 17.3413 127.398)
(-30.8887 15.7369 128.46)
(-29.7911 14.2299 130.069)
(-28.7646 12.8857 131.166)
(-27.8198 11.8094 132.18)
(-27.154 11.1169 133.008)
(-27.2615 10.8674 133.809)
(-28.4406 11.2881 135)
(-30.2314 11.8094 135.642)
(-32.6199 12.9999 136.985)
(-35.3821 14.0905 137.887)
(-38.0523 15.5578 139.527)
(-40.8396 16.5402 140.737)
(-43.2045 17.6425 142.57)
(-45.4708 18.3557 143.918)
(-47.4346 20.1422 145.834)
(-49.0091 22.9245 147.498)
(-50.125 26.9952 149.281)
(-50.7409 32.7817 151.43)
(-50.4462 39.0609 153.131)
(-49.4308 46.079 155.739)
(-47.4504 52.9529 158.007)
(-44.0055 59.1049 160.767)
(-38.6861 63.4989 163.682)
(-31.1526 65.1156 166.409)
(-21.1719 63.102 168.604)
(-9.13185 56.9733 169.957)
(4.13132 46.3846 170.091)
(17.4566 31.6898 168.297)
(29.9089 14.1544 164.605)
(40.667 -4.39156 159.05)
(49.2558 -22.6902 151.543)
(55.3921 -39.2184 142.246)
(59.1156 -53.2925 131.433)
(60.5765 -63.94 119.626)
(60.109 -71.366 107.278)
(58.0653 -75.1421 95.0688)
(54.6776 -76.0443 83.0686)
(50.3936 -73.8819 72.0388)
(45.2749 -69.6874 61.7149)
(39.8592 -63.517 52.8974)
(33.9631 -56.1626 44.8204)
(28.0797 -48.1016 38.6804)
(22.1961 -39.6958 32.7873)
(16.1002 -31.1907 29.5414)
(11.1872 -24.1359 25.3907)
(5.30309 -16.2434 24.7783)
(1.12047 -10.6118 21.8433)
(-3.1799 -4.89742 23.2084)
)
;
    }
}


// ************************************************************************* //
