# Probe 0 (0 0 50000)
# Probe 1 (0 0 -40000)
#       Probe             0             1
#        Time
        10000             (7.35643e-10 -5.86904e-10 -0.001)             (-1.5205e-10 4.3855e-11 -0.001)
        20000             (1.05757e-09 -9.08424e-10 -0.001)             (-4.45322e-11 1.52797e-10 -0.001)
        30000             (1.27635e-09 -8.38339e-10 -0.001)             (4.30272e-11 1.53958e-10 -0.000999998)
        40000             (1.2678e-09 -9.31856e-10 -0.001)             (-8.00779e-11 1.68738e-10 -0.000999999)
        50000             (1.43506e-09 -1.06898e-09 -0.001)             (-1.62966e-10 5.63664e-11 -0.000999998)
        60000             (1.56799e-09 -1.10401e-09 -0.001)             (-8.83316e-11 2.04553e-10 -0.000999999)
        70000             (1.16534e-09 -1.32228e-09 -0.001)             (-6.08246e-11 2.00313e-10 -0.001)
        80000             (1.29468e-09 -1.14882e-09 -0.001)             (-7.92641e-11 1.96534e-10 -0.001)
        90000             (1.6975e-09 -1.24083e-09 -0.001)             (-8.82028e-12 2.27974e-10 -0.001)
       100000             (1.0043e-09 -1.59045e-09 -0.001)             (8.30517e-11 2.59888e-10 -0.001)
