FoamFile
{version 2.0; format ascii;class Cloud<passiveParticle>; location 0;object  positions;}
356
(
( -150.685 109.003 50.1094 ) 0 
( -2.47863 477.441 50.1985 ) 0 
( -266.298 143.547 50.1297 ) 0 
( -387.175 394.057 50.115 ) 0 
( -23.9836 4.37507 50.1724 ) 0 
( -386.148 494.011 50.0448 ) 0 
( -181.806 204.194 50.1812 ) 0 
( -12.1895 247.699 50.1857 ) 0 
( -482.493 363.91 50.1278 ) 0 
( -297.436 438.225 49.9455 ) 0 
( -205.779 316.947 50.0627 ) 0 
( -485.906 463.92 50.1197 ) 0 
( -425.27 281.933 49.9835 ) 0 
( -449.779 149.358 49.9713 ) 0 
( -125.528 377.093 50.0082 ) 0 
( -304.121 338.467 50.0621 ) 0 
( -351.103 280.866 117.141 ) 0 
( -102.483 476.579 49.9791 ) 0 
( -277.659 44.1936 50.0542 ) 0 
( -197.782 446.276 50.1385 ) 0 
( -25.5862 380.098 50.017 ) 0 
( -499.503 25.9144 127.749 ) 0 
( -437.373 37.2738 50.0898 ) 0 
( -273.797 243.24 50.4525 ) 0 
( -364.944 202.204 50.0449 ) 0 
( -361.389 102.294 50.1137 ) 0 
( -427.543 440.998 128.758 ) 0 
( -351.956 26.6289 114.972 ) 0 
( -29.4598 104.321 50.7607 ) 0 
( -423.372 94.9714 130.6 ) 0 
( -48.7282 310.508 119.554 ) 0 
( -334.811 477.932 134.841 ) 0 
( -151.913 420.182 137.691 ) 0 
( -113.782 277.73 50.0967 ) 0 
( -86.246 183.971 71.3513 ) 0 
( -199.164 259.252 132.158 ) 0 
( -312.104 118.288 136.281 ) 0 
( -492.663 295.169 122.969 ) 0 
( -234.936 481.636 136.38 ) 0 
( -206.439 61.4463 118.508 ) 0 
( -110.416 28.7388 94.513 ) 0 
( -134.54 326.538 168.347 ) 0 
( -110.982 116.833 141.839 ) 0 
( -46.4498 218.043 157.634 ) 0 
( -259.76 134.332 220.434 ) 0 
( -339.484 378.08 137.563 ) 0 
( -140.177 200.531 188.171 ) 0 
( -274.279 310.301 174.116 ) 0 
( -214.057 159.938 134.283 ) 0 
( -49.0923 368.727 201.029 ) 0 
( -416.803 194.692 135.419 ) 0 
( -49.4444 1.50706 169.343 ) 0 
( -242.342 384.063 114.539 ) 0 
( -278.786 35.8831 182.897 ) 0 
( -499.98 95.9682 199.134 ) 0 
( -293.956 212.854 163.12 ) 0 
( -52.526 437.576 127.651 ) 0 
( -296.613 429.377 213.738 ) 0 
( -180.246 12.0428 201.606 ) 0 
( -346.867 345.227 233.799 ) 0 
( -217.132 65.1626 278.914 ) 0 
( -222.465 241.466 228.128 ) 0 
( -129.718 90.9695 236.93 ) 0 
( -428.266 351.526 175.196 ) 0 
( -405.661 81.5892 229.592 ) 0 
( -389.53 465.974 218.271 ) 0 
( -480.971 65.9134 293.646 ) 0 
( -353.82 167.23 229.365 ) 0 
( -23.3736 111.443 190.123 ) 0 
( -395.845 262.192 206.438 ) 0 
( -209.473 380.574 209.772 ) 0 
( -486.32 495.822 188.709 ) 0 
( -319.356 53.4894 273.08 ) 0 
( -315.062 252.429 264.736 ) 0 
( -480.824 161.717 324.319 ) 0 
( -127.339 359.276 262.922 ) 0 
( -173.008 170.857 279.06 ) 0 
( -367.837 415.286 302.413 ) 0 
( -467.855 410.348 245.91 ) 0 
( -41.8391 80.182 283.652 ) 0 
( -177.35 441.474 292.576 ) 0 
( -88.4418 270.511 237.681 ) 0 
( -106.297 448.18 222.256 ) 0 
( -471.19 267.457 272.49 ) 0 
( -453.296 179.249 228.911 ) 0 
( -70.1495 172.757 254.776 ) 0 
( -268.683 403.044 306.553 ) 0 
( -465.486 0.75568 219.164 ) 0 
( -70.2941 408.029 329.179 ) 0 
( -132.892 80.7694 338.303 ) 0 
( -302.119 315.39 341.751 ) 0 
( -491.856 356.72 327.807 ) 0 
( -10.5202 338.646 288.864 ) 0 
( -215.434 320.112 289.513 ) 0 
( -267.541 177.688 311.285 ) 0 
( -34.9751 490.446 284.076 ) 0 
( -398.781 320.923 316.297 ) 0 
( -159.933 367.147 358.407 ) 0 
( -174.952 246.704 344.606 ) 0 
( -395.658 212.295 308.393 ) 0 
( -382.542 114.08 321.695 ) 0 
( -90.5568 299.262 334.053 ) 0 
( -235.03 468.136 374.853 ) 0 
( -192.771 85.7811 450.678 ) 0 
( -444.307 70.0017 386.939 ) 0 
( -20.2704 229.155 321.058 ) 0 
( -305.142 496.115 302.632 ) 0 
( -450.339 465.634 328.061 ) 0 
( -124.648 482.536 368.182 ) 0 
( -337.713 179.466 383.291 ) 0 
( -20.1818 356.741 399.298 ) 0 
( -270.293 90.1614 360.252 ) 0 
( -84.4325 256.951 425.079 ) 0 
( -194.967 153.993 376.738 ) 0 
( -101.711 178.802 350.099 ) 0 
( -327.554 434.376 392.519 ) 0 
( -28.1794 116.374 376.917 ) 0 
( -192.196 12.4965 381.761 ) 0 
( -411.997 262.594 396.772 ) 0 
( -348.064 332.988 428.915 ) 0 
( -417.693 390.567 385.835 ) 0 
( -338.93 239.262 463.857 ) 0 
( -9.66202 23.3356 409.296 ) 0 
( -350.276 80.3976 419.647 ) 0 
( -185.977 299.827 428.972 ) 0 
( -471.966 0.394118 455.497 ) 0 
( -432.375 165.934 412.376 ) 0 
( -95.8452 67.8011 433.815 ) 0 
( -260.725 241.963 395.731 ) 0 
( -274.398 143.678 452.137 ) 0 
( -248.898 373.361 403.636 ) 0 
( -288.746 2.7063 406.053 ) 0 
( -65.8581 442.552 440.232 ) 0 
( -115.517 164.82 449.537 ) 0 
( -462.322 20.6819 554.77 ) 0 
( -297.145 407.413 484.873 ) 0 
( -0.982879 288.669 470.417 ) 0 
( -449.498 92.8977 486.438 ) 0 
( -268.966 307.57 484.846 ) 0 
( -477.501 328.189 436.489 ) 0 
( -398.86 398.757 485.97 ) 0 
( -169.428 426.637 438.444 ) 0 
( -25.7909 124.661 477.457 ) 0 
( -381.922 19.7748 495.014 ) 0 
( -103.824 351.093 454.122 ) 0 
( -202.055 210.271 470.759 ) 0 
( -125.012 98.6778 524.664 ) 0 
( -365.927 147.475 493.033 ) 0 
( -409.703 480.952 428.283 ) 0 
( -227.768 120.086 538.63 ) 0 
( -457.664 469.347 526.509 ) 0 
( -489.961 231.873 460.769 ) 0 
( -54.1409 214.178 511.909 ) 0 
( -210.284 466.972 521.149 ) 0 
( -277.671 206.64 536.711 ) 0 
( -287.119 52.8807 494.11 ) 0 
( -134.068 274.257 511.866 ) 0 
( -41.2287 21.0504 504.684 ) 0 
( -57.6312 331.538 541.437 ) 0 
( -193.761 26.4034 531.462 ) 0 
( -493.237 426.952 441.122 ) 0 
( -44.1598 85.0709 582.162 ) 0 
( -336.049 434.232 573.81 ) 0 
( -6.46026 188.447 597.904 ) 0 
( -187.177 358.95 510.702 ) 0 
( -365.312 192.296 582.676 ) 0 
( -289.135 136.985 616.566 ) 0 
( -89.8653 250.753 598.679 ) 0 
( -359.113 82.9792 569.58 ) 0 
( -242.594 396.907 585.055 ) 0 
( -480.688 363.566 532.074 ) 0 
( -417.944 285.302 505.16 ) 0 
( -140.657 336.897 597.158 ) 0 
( -156.349 188.051 557.281 ) 0 
( -108.199 417.164 529.858 ) 0 
( -11.161 437.722 542.371 ) 0 
( -459.821 206.54 553.123 ) 0 
( -132.149 48.774 612.896 ) 0 
( -343.101 338.901 544.331 ) 0 
( -190.924 127.158 632.973 ) 0 
( -418.87 389.148 607.002 ) 0 
( -314.749 374.264 651.186 ) 0 
( -180.244 230.113 645.021 ) 0 
( -272.132 39.496 592.757 ) 0 
( -308.143 270.325 608.222 ) 0 
( -169.925 415.33 652.31 ) 0 
( -219.296 55.9374 697.328 ) 0 
( -63.0253 396.653 617.409 ) 0 
( -451.96 295.107 599.146 ) 0 
( -217.582 280.603 566.91 ) 0 
( -319.199 487.12 657.235 ) 0 
( -315.333 32.1468 683.377 ) 0 
( -405.184 498.629 607.466 ) 0 
( -124.318 487.492 600.203 ) 0 
( -486.872 353.432 672.889 ) 0 
( -115.489 295.13 684.872 ) 0 
( -382.348 104.594 665.478 ) 0 
( -451.884 113.784 590.321 ) 0 
( -50.3751 40.8918 672.091 ) 0 
( -264.583 248.543 695.7 ) 0 
( -493.206 454.009 623.121 ) 0 
( -430.09 215.314 655.516 ) 0 
( -2.21927 467.01 654.224 ) 0 
( -220.862 329.415 656.463 ) 0 
( -95.2251 156.136 630.69 ) 0 
( -251.569 150.122 710.455 ) 0 
( -392.446 6.69755 624.961 ) 0 
( -47.2368 363.314 711.254 ) 0 
( -184.964 479.76 732.862 ) 0 
( -47.6306 134.826 749.318 ) 0 
( -380.883 301.386 669.714 ) 0 
( -402.095 442.566 691.312 ) 0 
( -330.423 103.963 751.38 ) 0 
( -345.186 189.809 702.186 ) 0 
( -127.785 95.4841 704.16 ) 0 
( -340.105 273.414 756.799 ) 0 
( -123.457 194.125 719.625 ) 0 
( -270.76 429.223 722.869 ) 0 
( -180.221 137.243 779.511 ) 0 
( -38.451 231.404 682.547 ) 0 
( -260.421 333.2 748.851 ) 0 
( -469.955 56.9108 671.679 ) 0 
( -184.474 266.089 754.756 ) 0 
( -9.15095 1.2273 754.298 ) 0 
( -491.567 432.216 734.762 ) 0 
( -0.671659 235.562 775.591 ) 0 
( -90.4806 50.4778 785.26 ) 0 
( -165.733 363.378 737.956 ) 0 
( -202.24 4.21098 781.631 ) 0 
( -449.2 347.232 766.322 ) 0 
( -359.526 186.314 801.801 ) 0 
( -30.0306 430.056 783.775 ) 0 
( -92.1551 452.52 707.633 ) 0 
( -437.025 62.7437 766.085 ) 0 
( -354.965 371.33 743.244 ) 0 
( -143.152 429.455 809.553 ) 0 
( -262.774 211.352 788.79 ) 0 
( -204.96 353.746 830.649 ) 0 
( -313.264 8.8699 780.797 ) 0 
( -8.29725 54.7796 842.3 ) 0 
( -421.263 264.124 814.352 ) 0 
( -256.789 84.3862 816.471 ) 0 
( -479.082 257.865 732.176 ) 0 
( -410.33 438.088 793.176 ) 0 
( -432.732 158.953 739.262 ) 0 
( -380.802 354.324 839.108 ) 0 
( -330.26 497.359 781.553 ) 0 
( -81.3751 295.26 779.848 ) 0 
( -126.592 214.83 818.399 ) 0 
( -292.374 166.41 873.092 ) 0 
( -167.773 409.928 904.476 ) 0 
( -98.1774 354.79 858.391 ) 0 
( -207.378 257.835 858.575 ) 0 
( -39.0286 218.951 866.542 ) 0 
( -69.1097 449.036 874.265 ) 0 
( -294.773 303.121 841.406 ) 0 
( -367.627 70.3637 838.025 ) 0 
( -292.504 399.846 816.412 ) 0 
( -79.7527 130.391 844.415 ) 0 
( -164.129 68.2751 850.537 ) 0 
( -247.403 1.01223 870.842 ) 0 
( -497.404 406.203 831.519 ) 0 
( -351.485 458.917 871.303 ) 0 
( -442.809 145.079 838.384 ) 0 
( -118.375 267.675 902.833 ) 0 
( -478.872 225.151 886.06 ) 0 
( -430.712 25.6973 901.416 ) 0 
( -264.73 84.4174 923.019 ) 0 
( -125.18 112.532 931.641 ) 0 
( -25.2349 242.494 962.682 ) 0 
( -289.748 252.776 927.574 ) 0 
( -235.167 481.67 819.497 ) 0 
( -81.5127 343.775 956.458 ) 0 
( -383.4 198.552 898.544 ) 0 
( -468.31 324.663 881.655 ) 0 
( -379.62 295.935 920.416 ) 0 
( -180.973 30.3338 941.86 ) 0 
( -13.2067 312.62 890.415 ) 0 
( -466.302 114.23 931.51 ) 0 
( -192.711 160.603 875.881 ) 0 
( -314.391 374.143 911.082 ) 0 
( -226.036 329.774 925.364 ) 0 
( -14.508 138.077 919.924 ) 0 
( -433.256 414.549 907.767 ) 0 
( -51.0805 45.5026 932.263 ) 0 
( -208.299 206.791 963.348 ) 0 
( -201.968 112.459 995.705 ) 0 
( -330.349 9.20399 926.826 ) 0 
( -366.27 103.373 932.382 ) 0 
( -58.6322 113.293 1006.07 ) 0 
( -435.716 234.416 975.759 ) 0 
( -246.922 428.371 962.634 ) 0 
( -63.3074 455.334 974.102 ) 0 
( -445.356 344.41 977.832 ) 0 
( -111.146 196.368 984.121 ) 0 
( -497.261 117.46 1032.62 ) 0 
( -262.186 19.5479 999.005 ) 0 
( -318.616 320.256 996.069 ) 0 
( -160.966 290.469 990.167 ) 0 
( -68.4824 386.478 1046.42 ) 0 
( -157.904 389.656 1001.77 ) 0 
( -298.081 164.163 973.001 ) 0 
( -73.436 286.929 1038.29 ) 0 
( -158.977 484.705 971.275 ) 0 
( -343.85 432.602 986.579 ) 0 
( -398.831 291.778 1048.85 ) 0 
( -159.01 167.652 1067.29 ) 0 
( -20.1724 489.641 1057.44 ) 0 
( -439.452 207.842 1085 ) 0 
( -315.345 93.0555 1041.06 ) 0 
( -228.151 65.5009 1081.24 ) 0 
( -401.512 148.359 1014.29 ) 0 
( -431.992 454.645 1028.72 ) 0 
( -222.944 253.126 1058.9 ) 0 
( -246.679 370.422 1043.92 ) 0 
( -133.029 57.9398 1043.25 ) 0 
( -163.234 330.052 1081.6 ) 0 
( -360.182 5.80886 1022.32 ) 0 
( -452.866 34.6124 998.437 ) 0 
( -404.942 73.7512 1080.93 ) 0 
( -40.6444 195.188 1060.71 ) 0 
( -354.964 158.487 1105.3 ) 0 
( -82.3059 116.662 1106.12 ) 0 
( -203.114 459.329 1057.25 ) 0 
( -296.73 308.233 1103.91 ) 0 
( -213.575 498.621 1148.6 ) 0 
( -127.236 245.585 1121.26 ) 0 
( -319.28 231.522 1043.64 ) 0 
( -368.87 250.606 1141.33 ) 0 
( -110.325 465.398 1093.32 ) 0 
( -372.486 385.82 1070.1 ) 0 
( -171.831 111.899 1149.47 ) 0 
( -380.284 347.973 1161.72 ) 0 
( -127.67 471.473 1196.87 ) 0 
( -30.3498 321.352 1121.7 ) 0 
( -489.976 25.28 1102.37 ) 0 
( -19.0994 420.5 1130.22 ) 0 
( -249.527 233.282 1152.74 ) 0 
( -298.625 451.408 1085.64 ) 0 
( -476.309 419.655 1111.62 ) 0 
( -185.923 309.899 1177.01 ) 0 
( -50.0918 247.487 1186.85 ) 0 
( -390.66 99.0005 1178.44 ) 0 
( -392.288 447.772 1157.4 ) 0 
( -314.825 35.1073 1122.67 ) 0 
( -474.64 125.881 1129.99 ) 0 
( -271.013 111.152 1169.96 ) 0 
( -257.477 162.495 1083.28 ) 0 
( -31.1217 33.2292 1126.73 ) 0 
( -108.311 379.707 1148.09 ) 0 
( -421.691 3.7548 1172.61 ) 0 
( -296.456 431.196 1184.73 ) 0 
( -42.2346 106.088 1198.63 ) 0 
( -215.604 397.72 1134.72 ) 0 
( -474.4 366.863 1198.36 ) 0 
( -458.778 295.613 1128.89 ) 0 
)
