# vtk DataFile Version 4.0
Generated by LIGGGHTS
ASCII
DATASET POLYDATA
POINTS 509 float
-4351.41 -4880.38 499.278 -3781.81 -4058.59 499.866 -3320.95 -4953.13 499.348 
-2683.95 -4182.84 499.645 -1612.61 -4262.59 499.689 -358.51 -4440.42 498.82 
639.057 -4505 499.596 1615.77 -4717.93 498.639 2620.33 -4775.98 499.622 
3635.58 -4766.97 499.434 4650.96 -4810.87 499.138 -4796.63 -3973.82 499.619 
-4224.17 -3151.58 499.699 -3221.04 -3217.26 499.089 -2214.69 -3300.35 499.728 
-889.914 -3570.63 499.675 191.409 -3606.43 499.821 1189.59 -3667.18 499.307 
2166.68 -3884.17 499.259 3179.16 -3877.5 499.435 3724.04 -3039.23 499.48 
4202.22 -3917.94 498.596 4771.4 -3062.64 499.789 -4622.08 -2222.45 501.297 
-3626.56 -2303.9 499.153 -2631.23 -2392.03 499.078 -1403.41 -2713.11 499.484 
-401.339 -2678.24 499.449 383.697 -2041.91 499.195 1349.7 -2298.81 499.085 
2158.17 -2884.97 499.232 4384.14 -2121.51 499.256 -4680.61 -1088.15 499.123 
-3367.62 -1218.52 498.365 -2367.56 -1172.25 498.813 -1520.89 -1704.5 499.102 
-514.952 -1604.83 498.695 1097.41 -1332.52 498.976 2205.67 -1754.54 499.484 
3421.89 -1849.74 499.716 4080.87 -1076.07 499.701 -4402.68 -128.236 499.861 
-3359.72 -218.553 498.969 -2376.08 -40.9692 499.549 -1520.61 -560.43 499.189 
198.468 -894.47 498.743 1934.28 -785.623 499.975 2912.94 -989.314 499.017 
2594.36 -34.7202 499.765 3581.17 -194.68 499.459 4580.82 -202.606 499.402 
-4903.9 736.895 499.735 -3809.51 676.033 499.296 -2826.68 855.628 499.639 
-1499.56 439.136 499.071 -519.317 123.118 499.227 510.664 56.0686 498.87 
1621.67 196.163 498.19 3107.32 823.33 499.103 4097.6 681.655 499.003 
-4489.66 1647.28 499.149 -3473.81 1617.56 499.952 -1641.51 1428.26 500.267 
-558.284 1122.33 499.529 10.4252 1944.34 499.189 464.294 1054.29 499.456 
1530.1 1199 498.753 2464.68 1589.61 499.691 3496.64 1743.99 499.647 
4510.69 1685.46 499.528 -4955.87 2531.63 499.341 -3951.5 2495.48 499.356 
-2943.37 2465.18 498.813 -1939.05 2385.87 498.56 -964.782 2163.52 499.491 
-299.263 2909.05 499.142 679.258 2686.19 498.837 1692.22 2224.35 499.605 
2896.8 2567.87 498.94 4046.05 2579.35 499.564 -4421 3377.89 499.725 
-3421.73 3343.32 499.224 -2338.29 3302.33 499.103 -1300.93 3155.49 499.71 
-596.992 3865.38 499.89 448.15 3658.64 499.586 1528.93 3211.4 498.998 
2555.3 3507.23 499.534 3581.67 3465.26 499.502 4580.83 3428.13 499.477 
-4889.83 4277.25 499.229 -3891.67 4225.87 499.515 -2213.41 4934.44 499.619 
-2848.85 4162.37 499.263 -1699.08 4077.12 499.392 -990.084 4784.92 499.021 
46.3274 4630.67 499.659 1033.24 4469.03 499.407 2026.94 4358.08 499.492 
3105.71 4345.13 499.693 4106.03 4336.44 499.699 -4317.57 -4302.92 1314.62 
-3302.34 -4379.74 1317.69 -2350.42 -4417.21 1618.55 -1552.93 -4904.06 1264.36 
-878.269 -4164.94 1306.23 122.73 -4232.52 1349.78 1250 -4253.3 1310.29 
2338.36 -4348.91 1366.94 3681.04 -4169.21 1312.94 4685.3 -4232.22 1314.94 
-4760.57 -3400.24 1317.7 -3741.21 -3482.93 1318.45 -2743.03 -3551.11 1311.21 
-1752.02 -3680.07 1300.39 -340.843 -3312.2 1294.04 714.176 -3542.69 1766 
1683.8 -3298.17 1285.84 2674.81 -3416.14 1228.69 3414.63 -3131.72 1839.28 
4241.69 -3330.19 1306.06 -4180.25 -2586.29 1326.6 -3165.09 -2645.6 1316.82 
-2049.53 -2673.78 1261.26 -1216.86 -2956.61 1736.3 -968.123 -2149.25 1202.56 
-7.83453 -2370.47 1365.05 733.498 -2919.42 981.598 1909.48 -2234.99 1324.49 
1169.97 -2657.96 1855.86 2853.64 -2446.37 1066.01 3829.81 -2418.41 1275.64 
4825.51 -2486.95 1319.97 -4070.88 -1624.13 1082.22 -4615.13 -1878.67 1882.51 
-3431.11 -1179.4 1907.81 -2844.89 -1707.29 1194.52 -1755.38 -1127.25 1287.82 
-1695.19 -1947.47 1857.02 -891.683 -1318.27 1764.43 902.543 -1850.88 1331.5 
20.926 -1371.5 1358.57 1711 -1255.69 1354.78 2700.53 -1495.85 1334.09 
3710.55 -1429.84 1360.36 4697.4 -1460.32 1186.69 -4904.12 -523.025 1293.72 
-3915.2 -645.97 1211.54 -2876.06 -708.105 1223.19 -2229.49 -113.217 1699.79 
-1297.8 -58.4447 1341.66 -663.77 -741.643 980.461 812.268 -995.358 1839.41 
201.452 -373.825 1351.44 1144.31 -494.788 1039.87 1215.37 -20.1419 1915.09 
2046 -170.958 1325.35 3026.62 -423.336 1314.35 4066.46 -496.764 1319.39 
-4146.02 313.519 1368 -3052.39 295.66 1298.54 -2153.63 766.819 1232.38 
-1180.35 988.368 1270.78 -350.321 455.142 1426.4 1062.19 649.73 1189.93 
2259.06 758.295 1023.73 2714.55 399.459 1837.57 3555.84 424.209 1298.35 
4566.71 368.947 1324.06 -4002.49 1300.19 1299.77 -3062.6 1237.24 1632.69 
-2498.28 1688.97 944.139 -1626.21 1964.8 1349.42 -862.592 1672.85 1925.41 
1.6154 1385.27 1327.45 899.073 1827.62 961.552 1723.14 1496.85 1432.42 
3003.48 1387.81 1317.24 3999.91 1319.3 1276.81 4998.93 1331.91 1297.83 
-4451.9 2217.84 1319 -3450.21 2193.28 1316.9 -2561.88 2245.38 1772.91 
-1894.38 2949.45 1322.22 -414.373 2328.34 1318.61 461.172 2198.19 1783.81 
1198.62 2716.58 1351.61 2419.88 2200.3 1295.77 3473.15 2358.39 1287.75 
4518.52 2253.85 1321.92 -4404.44 3954.53 1316.01 -4922.59 3100.04 1320.98 
-3923.36 3074 1320.67 -3395.32 3923.18 1312.62 -2889.04 3061.81 1298 
-2279.87 3902.87 1295.33 -725.486 3278.52 1323.94 253.521 3071.74 1315.89 
743.295 3720.02 1897.93 1447.01 3905.19 1213.33 2099.51 3147.42 1316.82 
3089.08 3279.56 1349.27 4079.55 3152.19 1318.9 -4871.62 4859.62 1312.32 
-3873.12 4800.63 1316.96 -2810.19 4750.75 1305.8 -1112.88 4199.23 1299.64 
-438.888 4937.31 1318.38 -5.2043 4037.04 1306.3 601.738 4891.68 1295.91 
1749 4841.92 1384.93 2508.44 4093.24 1334.51 3132.51 4939.37 1311.57 
3627.29 4100.45 1538.04 4597.04 4008.46 1313.4 4131.84 4934.66 1314.67 
-4840.34 -4565.5 2129.45 -3843.15 -4629.29 2136.81 -3043.26 -4035.2 2229.89 
-2282.56 -4574.92 2615.79 -1481.95 -4281.66 2094.01 -914.616 -4325.01 2916 
-283.639 -4601.8 2191.42 713.309 -4524.32 2109.92 1732.06 -4569.95 2193.03 
2522.98 -4583.23 2829.99 3027.97 -4176.76 2069.27 3506.86 -4432.21 2920.43 
4163.37 -4485.46 2128.91 -4257.07 -3719.89 2146.14 -3437.68 -3116.65 2198.12 
-2402.51 -3245.87 2201.29 -1697.86 -3638.73 2828.39 -680.455 -3685.34 2160.71 
236.967 -3814.29 2632.85 1235.07 -3785.61 2584.04 2160.98 -3673.83 2082.88 
2950.11 -3392.99 2685.23 3964.68 -3593.37 2534.13 4951.11 -3811.15 2754.78 
4725.03 -3051.18 2142.84 -4352.11 -2754.77 2387.8 -3634.5 -2148.5 2045.43 
-2628.94 -2256.29 2065.13 -1682.25 -2666.14 2584.42 -746.068 -2942.55 2826.09 
-658.084 -2209.12 2152.72 807.89 -2809.29 2775.31 18.3033 -2950.4 2178.58 
434.493 -2037.23 2196.79 1788.1 -2551.34 2634.97 2497.63 -2741.71 1953.82 
2927.14 -2408.16 2869.06 3222.54 -2053.87 1980.39 3858.57 -2596.07 2558.2 
4854.57 -2328.3 2821.69 -4149.94 -1646.17 2738.69 -3092.35 -1658.77 2727.86 
-2440.93 -1276.41 1999.62 -1965.58 -1679.12 2780.96 -970.511 -1218.09 2773.04 
-71.7951 -1185.82 2336.47 747.853 -1374.69 2876.27 1387.29 -1734.36 2198 
2368.66 -1731.7 2387.77 3239.87 -1314.78 2653.2 4904.54 -1355.55 2595.64 
4345.75 -1928.38 1996.42 -4381.78 -910.832 2055.48 -4289.73 -60.6101 2663.66 
-3524.73 -190.606 2033.45 -3609.31 -805.981 2817.67 -2683.08 -463.637 2528.24 
-1534.09 -662.422 2162.48 -1003.4 -214.915 2907.85 -585.776 -386.786 1983.93 
346.638 -277.926 2356.85 1537.14 -777.341 2491.88 2214.73 -24.9514 2591.77 
2410.5 -810.531 2001.72 3271.07 -386.762 2282.65 4067.07 -987.639 2191.58 
4826.62 -343.875 2279.94 -4805.11 563.163 2076.87 -3805.34 823.081 2157.83 
-2780.1 508.994 2255.54 -1887.79 169.263 2595.28 -1051.88 487.892 2141.49 
-232.793 589.902 2705.26 457.364 643.329 1984.53 1307.1 299.783 2856.15 
1809.79 764.622 2109.26 3116.86 467.328 2777.89 4031.61 250.112 2159.93 
-4495.88 1613.19 2114.02 -3535.22 1860.12 2255.79 -2626 1485.72 2496.35 
-1776.19 1173.84 2064.1 -1020.49 1232.88 2809.17 30.7612 1478.78 2328.92 
1031.17 1445.03 2151.63 1843.11 1861.57 2951.85 2439.29 1541.8 2127.99 
3518.75 1108.65 2126.82 3924.36 1520.21 2942.54 4504 1280.3 2164.44 
-4138.62 2527.62 2715.27 -4954.52 2506.56 2133.29 -3390.02 2849.4 2136.08 
-2714.46 2437.12 2789.33 -1837.55 2097.15 2446.76 -1150.56 2629.19 1953.26 
-548.648 2193.63 2719.26 -247.098 2994.11 2177.34 993.514 2850.99 2323.92 
667.815 2048.56 2860.63 1768.91 2283.54 2049.02 1922.07 3001.65 2733.1 
2647.49 2768.61 2086.43 3094.02 2079.78 2661.05 3942.1 2106.35 2133 
4330.37 2741.75 2799.57 -4400.5 3389.57 2140.76 -3121.49 3837.6 2270.28 
-3921.57 4020.52 2841.28 -2400.55 3151.75 2165.02 -1639.64 3011.35 2798.18 
-1523.79 3597.08 1986.54 -590.197 3930.93 2110.87 191.498 3716.9 2731.45 
1928.74 3767.29 2082.47 1219.23 3710.67 2785.18 2926.93 3890.62 2220.14 
3596.61 3064.6 2190.4 3864.28 3948.73 2579.27 4597.71 3436.88 2133.23 
-4396.3 4537.72 2130 -4927.99 4018.36 2798.8 -3013.94 4831.76 2280.91 
-2074.96 4613.38 1967.46 -1594.07 4218.59 2766.09 -1102.13 4792.81 2105.41 
-560.64 4721.96 2941.94 208.754 4529.66 2149.71 1206.62 4567.23 2177.78 
1952.57 4443 2831.62 2485.36 4784.44 2057.18 3470.17 4803.85 2244.03 
4595.32 4587.98 2129.65 -3044.12 -4669.93 3823.07 -1651.79 -4932.18 3304.18 
282.555 -4736.62 3018.14 1309.04 -4774.15 3078.63 3143.29 -4715.7 3809.27 
4326.2 -4188.67 3441.15 -3727.22 -4011.17 2958.36 -2672.7 -3652.32 3076.45 
-155.724 -3771.11 3554.51 1269.86 -3330.86 3513.51 2095.14 -3717.65 3088.66 
4431.15 -3111.3 3278.22 -3773.8 -2673.1 3200.11 -2805.31 -3106.86 3904.03 
-2623.72 -2641.39 2986.93 -1134.95 -2103.7 3206.35 42.7885 -2796.67 3423.25 
775.674 -2117.49 3544.06 -3626.11 -1481.77 3582.05 -2649.76 -1264.34 3533.82 
-167.456 -1900.31 3030.51 1833.51 -1730.33 3247.59 4076.25 -1729.54 3010.81 
-4517.39 -848.716 3234.58 -3761.26 -401.658 3721.31 -1210.47 -571.981 3842.06 
-1902.12 -737.881 3111.26 -173.829 -699.853 3210.21 1126.39 -602.759 3386.4 
2382.19 -927.381 3004.66 3182.31 -393.653 3280.63 4130.57 -687.901 3153.95 
-4833.17 974.138 2989.06 -3339.34 139.824 2996.55 -3478.33 650.906 3881.44 
-2525.89 699.664 3203.32 -1472.49 576.276 3412.78 422.033 100.11 3283.79 
1770 95.4436 3717.42 1503.8 1110.5 3601.77 2269.15 957.737 2976.68 
4057.23 536.577 3117.22 4888.13 -9.69036 3237.53 -4204.62 1698.22 3272.59 
-3409.1 1149.12 3017.63 -2306.17 1714.15 3416.1 -1339.42 2042.64 3311.89 
-194.77 1467.82 3324.71 657.808 1047.56 2989.6 3035.33 1429.27 3417.86 
4591.62 1116.06 3795.35 4849.7 1921.84 3037.99 -3326.37 2112.96 3510.51 
95.82 2818.62 3158.59 1132.06 2808.91 3314.41 2535.37 2400.43 3432.77 
3542.49 2599.09 3397.95 -4816.24 3100.39 3179.09 -3460.13 3164.7 3081.99 
-2477.88 3585.26 3062.57 -1288.54 3887.32 3662.37 -737.758 3413.43 2954.52 
-298.845 4031.29 3615.26 537.077 3498.32 3745.48 2885.33 3209.45 2952.55 
2144.27 3673.03 3440.07 4741.48 4318.04 3743.06 -3676.52 4980.16 3041.79 
-2650.53 4565.37 3173.33 677.125 4386.17 3292.33 2210.21 4948.86 3655.94 
2932.06 4490.28 3025.86 4238.07 4858.47 3023.89 -2153.75 -3866.44 3907.76 
-725.032 -4526.99 3900.78 -2052.18 -2164.34 3652.7 -3422.08 -2337.75 4074.51 
-715.642 -1466.64 3854.63 4363.28 229.431 4200.86 538.19 886.052 3968.73 
2716.62 418.353 3691.63 -1705.02 1290.26 4093.7 -1955.87 3143.64 3938.61 
3277.05 2812.04 4339.84 4028.68 1929.82 3964.26 -862.451 2546.92 4039.39 
-4870.64 -4797.57 3470.06 499.052 4764.66 4202.46 2237.86 -851.252 4100.68 
-588.235 915.238 4070.67 3653.93 4249.19 3691.78 -4467.64 794.746 3905.37 
1483.09 4301.09 3882.65 4445.37 -4431.37 4431.41 728.99 -2863.27 4287.05 
-1348.32 311.596 4445.9 -635.872 4001.74 20346.9 4471.39 3880.86 20309.3 
-2276.11 4191 20328.9 -3908.53 4349.4 20274.1 -100.58 2451.03 20349.8 
-4193.43 2048.66 20318.8 4038.23 1684.26 20259.3 -3004.95 3256.25 20471.4 
-2442.29 -1436.01 5406.91 2208.04 3529.35 5272.83 -4422.41 -2155.46 6550.31 
3292.8 -1584.47 6457.68 -2959.71 2899.28 6261.03 -2786.78 -3154.91 7044.13 
2935.3 -2647.08 7109.6 4393.36 991.159 8450.97 1181.25 -4145.28 12222 
-3385.01 1674.29 13371.8 -3177.13 3923 15003 -4301.74 -4255.29 19394.9 
-586.602 -4461.3 20215.9 2563.19 -4487.89 20006 -1725.11 -3969.94 19153.7 
-3688.32 -2643.44 20173.3 -387.429 -1676.31 20057.1 1196.27 -1041.4 20140.3 
2425.25 -1852.84 20191.9 4118.59 -1123.33 20092.5 -495.766 -557.205 20078.6 
730.424 -71.6486 20130.2 1911.55 -109.06 19910.8 -2827.62 571.091 20164.7 
2233.63 892.268 20182.5 486.54 1321.64 20247.7 -4197.03 2982.77 19683.7 
1723.32 2002.18 20245.7 2769.15 2017.36 20078.7 4170.25 2918.8 20151 
-1465.44 3533.88 19431.4 1514.08 3007.89 20147.5 3119.97 3746.39 20189.7 
345.356 4085.78 19320.4 2033.78 4333.83 20247.8 3698.6 -4106.46 20258.6 
-2774.88 -3654.67 20409.2 -543.491 -3012.59 20384.7 432.636 -3734.21 20279.9 
2036.37 -3740.66 20483.7 -1967.55 -2255.29 20324 976.034 -2053.43 20359.3 
1786.79 -2660.83 20497 3887.8 -2929.03 20263.3 4424.28 -2055.01 20469.3 
-4061.88 -1060.09 20312.3 -3103.95 -1451.55 20350.6 -1655.28 -1127.92 20372.2 
-2710.1 -434.724 20479.1 2546.11 -834.868 20414.6 -3909.99 647.704 20276.8 
-1169.91 779.501 20260.6 3436.77 540.721 20448.4 4466.48 23.1715 20292.8 
-2520.34 1575.72 20250 -1417.83 1976.21 20482.3 
VERTICES 509 1018
1 0 
1 1 
1 2 
1 3 
1 4 
1 5 
1 6 
1 7 
1 8 
1 9 
1 10 
1 11 
1 12 
1 13 
1 14 
1 15 
1 16 
1 17 
1 18 
1 19 
1 20 
1 21 
1 22 
1 23 
1 24 
1 25 
1 26 
1 27 
1 28 
1 29 
1 30 
1 31 
1 32 
1 33 
1 34 
1 35 
1 36 
1 37 
1 38 
1 39 
1 40 
1 41 
1 42 
1 43 
1 44 
1 45 
1 46 
1 47 
1 48 
1 49 
1 50 
1 51 
1 52 
1 53 
1 54 
1 55 
1 56 
1 57 
1 58 
1 59 
1 60 
1 61 
1 62 
1 63 
1 64 
1 65 
1 66 
1 67 
1 68 
1 69 
1 70 
1 71 
1 72 
1 73 
1 74 
1 75 
1 76 
1 77 
1 78 
1 79 
1 80 
1 81 
1 82 
1 83 
1 84 
1 85 
1 86 
1 87 
1 88 
1 89 
1 90 
1 91 
1 92 
1 93 
1 94 
1 95 
1 96 
1 97 
1 98 
1 99 
1 100 
1 101 
1 102 
1 103 
1 104 
1 105 
1 106 
1 107 
1 108 
1 109 
1 110 
1 111 
1 112 
1 113 
1 114 
1 115 
1 116 
1 117 
1 118 
1 119 
1 120 
1 121 
1 122 
1 123 
1 124 
1 125 
1 126 
1 127 
1 128 
1 129 
1 130 
1 131 
1 132 
1 133 
1 134 
1 135 
1 136 
1 137 
1 138 
1 139 
1 140 
1 141 
1 142 
1 143 
1 144 
1 145 
1 146 
1 147 
1 148 
1 149 
1 150 
1 151 
1 152 
1 153 
1 154 
1 155 
1 156 
1 157 
1 158 
1 159 
1 160 
1 161 
1 162 
1 163 
1 164 
1 165 
1 166 
1 167 
1 168 
1 169 
1 170 
1 171 
1 172 
1 173 
1 174 
1 175 
1 176 
1 177 
1 178 
1 179 
1 180 
1 181 
1 182 
1 183 
1 184 
1 185 
1 186 
1 187 
1 188 
1 189 
1 190 
1 191 
1 192 
1 193 
1 194 
1 195 
1 196 
1 197 
1 198 
1 199 
1 200 
1 201 
1 202 
1 203 
1 204 
1 205 
1 206 
1 207 
1 208 
1 209 
1 210 
1 211 
1 212 
1 213 
1 214 
1 215 
1 216 
1 217 
1 218 
1 219 
1 220 
1 221 
1 222 
1 223 
1 224 
1 225 
1 226 
1 227 
1 228 
1 229 
1 230 
1 231 
1 232 
1 233 
1 234 
1 235 
1 236 
1 237 
1 238 
1 239 
1 240 
1 241 
1 242 
1 243 
1 244 
1 245 
1 246 
1 247 
1 248 
1 249 
1 250 
1 251 
1 252 
1 253 
1 254 
1 255 
1 256 
1 257 
1 258 
1 259 
1 260 
1 261 
1 262 
1 263 
1 264 
1 265 
1 266 
1 267 
1 268 
1 269 
1 270 
1 271 
1 272 
1 273 
1 274 
1 275 
1 276 
1 277 
1 278 
1 279 
1 280 
1 281 
1 282 
1 283 
1 284 
1 285 
1 286 
1 287 
1 288 
1 289 
1 290 
1 291 
1 292 
1 293 
1 294 
1 295 
1 296 
1 297 
1 298 
1 299 
1 300 
1 301 
1 302 
1 303 
1 304 
1 305 
1 306 
1 307 
1 308 
1 309 
1 310 
1 311 
1 312 
1 313 
1 314 
1 315 
1 316 
1 317 
1 318 
1 319 
1 320 
1 321 
1 322 
1 323 
1 324 
1 325 
1 326 
1 327 
1 328 
1 329 
1 330 
1 331 
1 332 
1 333 
1 334 
1 335 
1 336 
1 337 
1 338 
1 339 
1 340 
1 341 
1 342 
1 343 
1 344 
1 345 
1 346 
1 347 
1 348 
1 349 
1 350 
1 351 
1 352 
1 353 
1 354 
1 355 
1 356 
1 357 
1 358 
1 359 
1 360 
1 361 
1 362 
1 363 
1 364 
1 365 
1 366 
1 367 
1 368 
1 369 
1 370 
1 371 
1 372 
1 373 
1 374 
1 375 
1 376 
1 377 
1 378 
1 379 
1 380 
1 381 
1 382 
1 383 
1 384 
1 385 
1 386 
1 387 
1 388 
1 389 
1 390 
1 391 
1 392 
1 393 
1 394 
1 395 
1 396 
1 397 
1 398 
1 399 
1 400 
1 401 
1 402 
1 403 
1 404 
1 405 
1 406 
1 407 
1 408 
1 409 
1 410 
1 411 
1 412 
1 413 
1 414 
1 415 
1 416 
1 417 
1 418 
1 419 
1 420 
1 421 
1 422 
1 423 
1 424 
1 425 
1 426 
1 427 
1 428 
1 429 
1 430 
1 431 
1 432 
1 433 
1 434 
1 435 
1 436 
1 437 
1 438 
1 439 
1 440 
1 441 
1 442 
1 443 
1 444 
1 445 
1 446 
1 447 
1 448 
1 449 
1 450 
1 451 
1 452 
1 453 
1 454 
1 455 
1 456 
1 457 
1 458 
1 459 
1 460 
1 461 
1 462 
1 463 
1 464 
1 465 
1 466 
1 467 
1 468 
1 469 
1 470 
1 471 
1 472 
1 473 
1 474 
1 475 
1 476 
1 477 
1 478 
1 479 
1 480 
1 481 
1 482 
1 483 
1 484 
1 485 
1 486 
1 487 
1 488 
1 489 
1 490 
1 491 
1 492 
1 493 
1 494 
1 495 
1 496 
1 497 
1 498 
1 499 
1 500 
1 501 
1 502 
1 503 
1 504 
1 505 
1 506 
1 507 
1 508 

POINT_DATA 509
FIELD FieldData 7
id 1 509 int
72 12 38 94 7 11 80 109 30 
100 48 107 102 124 89 79 97 81 
90 82 51 91 49 36 60 78 18 
16 28 26 31 14 27 98 15 45 
104 96 22 87 29 54 37 59 19 
1 2 4 108 43 84 33 92 21 
88 42 55 66 46 77 73 20 110 
131 13 40 53 23 35 105 52 8 
119 61 25 34 58 6 85 47 63 
57 32 75 65 93 39 83 67 41 
10 9 17 113 3 56 50 24 166 
44 5 164 139 185 103 194 95 125 
135 86 150 137 223 193 133 149 202 
161 99 274 147 168 128 163 132 157 
179 148 155 186 145 278 281 101 156 
181 141 134 212 187 225 165 136 195 
170 62 159 123 142 224 70 121 172 
152 115 197 130 140 160 171 126 209 
153 217 177 112 316 158 118 127 207 
69 169 236 154 111 191 143 114 151 
129 175 198 76 167 189 200 116 192 
214 219 196 210 221 146 182 144 74 
216 64 117 68 228 206 138 120 71 
122 183 162 201 178 180 208 215 106 
248 242 276 232 273 378 262 289 337 
293 258 386 266 239 322 229 307 275 
312 309 245 292 320 327 330 350 299 
259 240 301 254 329 190 227 317 267 
356 282 304 305 368 285 268 314 310 
233 354 264 296 375 315 256 204 298 
211 323 231 252 283 213 257 370 302 
324 374 270 297 243 265 234 253 235 
308 271 381 288 365 263 230 261 269 
218 357 255 244 321 250 174 284 226 
294 173 246 355 272 279 290 260 333 
372 251 332 205 295 222 379 277 326 
349 237 331 184 280 311 238 306 247 
241 335 334 176 352 300 249 286 199 
363 188 319 318 203 291 220 396 366 
328 369 431 402 437 340 423 390 338 
436 412 422 343 345 441 429 428 391 
336 443 376 348 416 385 325 347 424 
341 388 344 287 382 400 303 339 362 
426 442 380 364 389 358 313 392 353 
433 367 403 399 393 398 387 346 410 
361 452 394 373 359 395 384 420 377 
351 430 342 371 383 418 360 406 444 
408 413 419 409 415 425 440 438 404 
448 414 401 427 417 407 435 434 451 
446 449 439 405 480 497 468 486 470 
463 502 458 447 421 445 432 411 397 
450 506 500 498 505 456 501 503 477 
488 494 467 474 475 476 489 478 464 
455 484 509 453 469 490 499 454 473 
472 507 485 479 493 466 482 491 483 
471 457 508 481 487 461 496 495 459 
492 465 504 460 462 
type 1 509 int
1 1 1 1 1 1 1 1 1 
1 1 1 1 1 1 1 1 1 
1 1 1 1 1 1 1 1 1 
1 1 1 1 1 1 1 1 1 
1 1 1 1 1 1 1 1 1 
1 1 1 1 1 1 1 1 1 
1 1 1 1 1 1 1 1 1 
1 1 1 1 1 1 1 1 1 
1 1 1 1 1 1 1 1 1 
1 1 1 1 1 1 1 1 1 
1 1 1 1 1 1 1 1 1 
1 1 1 1 1 1 1 1 1 
1 1 1 1 1 1 1 1 1 
1 1 1 1 1 1 1 1 1 
1 1 1 1 1 1 1 1 1 
1 1 1 1 1 1 1 1 1 
1 1 1 1 1 1 1 1 1 
1 1 1 1 1 1 1 1 1 
1 1 1 1 1 1 1 1 1 
1 1 1 1 1 1 1 1 1 
1 1 1 1 1 1 1 1 1 
1 1 1 1 1 1 1 1 1 
1 1 1 1 1 1 1 1 1 
1 1 1 1 1 1 1 1 1 
1 1 1 1 1 1 1 1 1 
1 1 1 1 1 1 1 1 1 
1 1 1 1 1 1 1 1 1 
1 1 1 1 1 1 1 1 1 
1 1 1 1 1 1 1 1 1 
1 1 1 1 1 1 1 1 1 
1 1 1 1 1 1 1 1 1 
1 1 1 1 1 1 1 1 1 
1 1 1 1 1 1 1 1 1 
1 1 1 1 1 1 1 1 1 
1 1 1 1 1 1 1 1 1 
1 1 1 1 1 1 1 1 1 
1 1 1 1 1 1 1 1 1 
1 1 1 1 1 1 1 1 1 
1 1 1 1 1 1 1 1 1 
1 1 1 1 1 1 1 1 1 
1 1 1 1 1 1 1 1 1 
1 1 1 1 1 1 1 1 1 
1 1 1 1 1 1 1 1 1 
1 1 1 1 1 1 1 1 1 
1 1 1 1 1 1 1 1 1 
1 1 1 1 1 1 1 1 1 
1 1 1 1 1 1 1 1 1 
1 1 1 1 1 1 1 1 1 
1 1 1 1 1 1 1 1 1 
1 1 1 1 1 1 1 1 1 
1 1 1 1 1 1 1 1 1 
1 1 1 1 1 1 1 1 1 
1 1 1 1 1 1 1 1 1 
1 1 1 1 1 1 1 1 1 
1 1 1 1 1 1 1 1 1 
1 1 1 1 1 1 1 1 1 
1 1 1 1 1 
i 3 509 int
0 1 0 0 0 0 1 1 0 
0 1 0 0 0 0 0 0 0 
0 1 0 0 0 0 0 1 0 
0 0 0 -1 0 0 0 0 0 
0 0 0 0 0 0 0 0 0 
0 0 0 0 0 0 0 1 0 
0 0 0 0 0 0 0 0 0 
0 0 0 -1 0 0 1 1 0 
0 0 0 0 0 0 0 0 0 
0 0 0 0 0 0 0 0 0 
0 0 0 0 0 0 0 0 0 
0 0 0 0 0 0 0 0 0 
0 0 0 0 0 0 0 0 0 
-1 0 0 0 0 0 0 0 0 
0 0 0 0 0 0 0 0 0 
0 0 0 0 0 0 0 0 0 
0 0 0 0 0 0 0 0 0 
0 0 0 0 0 0 0 0 0 
0 0 0 0 0 0 0 0 0 
0 0 0 0 0 0 0 0 0 
0 -1 0 1 -1 0 0 0 0 
0 0 0 0 0 0 0 0 0 
0 0 0 0 0 0 0 0 0 
-1 0 0 0 0 0 0 0 0 
0 0 0 0 0 0 0 0 0 
0 0 0 0 0 0 0 0 0 
0 0 0 0 0 0 1 -1 0 
0 0 0 0 0 0 0 0 0 
0 -1 0 0 0 0 0 0 0 
0 0 0 0 0 0 0 0 0 
1 0 0 0 0 0 0 -1 0 
0 -1 0 0 -1 0 0 -1 0 
0 -1 0 0 -1 0 0 0 0 
0 0 0 0 0 0 1 0 0 
0 1 0 0 0 0 0 0 0 
0 0 0 0 0 0 0 0 0 
0 1 0 0 0 0 0 1 0 
1 0 0 0 1 0 0 0 0 
0 0 0 0 0 0 0 0 0 
0 0 0 -1 1 0 0 0 0 
0 1 0 0 0 0 0 0 0 
0 0 0 0 1 0 0 0 0 
0 0 0 0 0 0 0 0 0 
0 0 0 0 0 0 0 0 0 
-1 0 0 0 0 0 0 0 0 
0 0 0 0 1 0 0 0 0 
0 0 0 0 0 0 0 0 0 
0 0 0 0 0 0 0 0 0 
-1 0 0 -1 0 0 1 0 0 
1 0 0 0 0 0 0 0 0 
0 0 0 0 0 0 0 0 0 
0 0 0 0 0 0 0 0 0 
0 0 0 -1 0 0 0 0 0 
0 0 0 0 0 0 0 0 0 
0 0 0 0 0 0 0 0 0 
-1 0 0 0 0 0 0 0 0 
0 0 0 0 0 0 0 0 0 
0 0 0 0 0 0 0 0 0 
0 0 0 -1 0 0 0 0 0 
0 0 0 0 0 0 -1 0 0 
1 0 0 0 0 0 0 0 0 
0 0 0 0 0 0 0 0 0 
0 0 0 0 0 0 0 0 0 
-1 0 0 0 0 0 0 0 0 
0 -1 0 0 0 0 0 -1 0 
0 0 0 0 0 0 0 -1 0 
0 0 0 0 0 0 0 0 0 
0 0 0 0 0 0 1 -1 0 
0 0 0 0 0 0 0 0 0 
0 0 0 0 0 0 0 -1 0 
0 0 0 0 0 0 0 0 0 
-1 0 0 0 0 0 -1 0 0 
1 0 0 0 0 0 0 0 0 
0 1 0 0 0 0 0 0 0 
0 0 0 0 0 0 0 0 0 
0 0 0 0 0 0 0 0 0 
0 0 0 0 0 0 0 1 0 
0 0 0 0 0 0 0 0 0 
0 1 0 0 0 0 0 0 0 
0 0 0 0 0 0 0 0 0 
0 0 0 0 0 0 0 0 0 
0 0 0 0 0 0 0 0 0 
0 0 0 0 0 0 0 0 0 
0 0 0 0 0 0 0 0 0 
0 0 0 0 0 0 -1 0 0 
0 0 0 0 0 0 0 0 0 
0 0 0 0 0 0 0 0 0 
0 0 0 0 0 0 0 0 0 
0 0 0 -1 0 0 -1 0 0 
0 0 0 1 0 0 0 0 0 
1 0 0 0 0 0 1 0 0 
0 0 0 0 0 0 0 0 0 
0 0 0 0 0 0 0 0 0 
0 0 0 0 0 0 0 0 0 
0 0 0 1 0 0 1 0 0 
0 0 0 0 0 0 0 0 0 
0 0 0 0 0 0 0 0 0 
0 0 0 0 0 0 0 0 0 
0 0 0 0 0 0 1 0 0 
0 0 0 0 0 0 0 0 0 
0 0 0 0 0 0 0 0 0 
0 0 0 0 0 0 0 0 0 
0 0 0 1 0 0 0 0 0 
0 0 0 0 0 0 0 0 0 
0 0 0 0 0 0 0 0 0 
0 0 0 0 0 0 0 0 0 
0 0 0 0 0 0 -1 0 0 
-1 0 0 0 0 0 0 0 0 
0 0 0 0 0 0 0 -1 0 
0 0 0 0 0 0 0 0 0 
0 0 0 0 0 0 0 0 0 
0 0 0 0 0 0 0 0 0 
0 -1 0 1 0 0 0 0 0 
0 0 0 0 0 0 0 -1 0 
0 0 0 0 0 0 0 -1 0 
0 0 0 0 -1 0 0 0 0 
-1 -1 0 0 0 0 0 0 0 
0 1 0 0 1 0 0 0 0 
-1 1 0 0 0 0 0 0 0 
0 0 0 0 0 0 0 0 0 
0 0 0 0 0 0 0 0 0 
0 0 0 0 0 0 0 0 0 
0 0 0 0 0 0 0 0 0 
0 0 0 0 0 0 0 0 0 
0 0 0 0 0 0 0 0 0 
0 0 0 0 0 0 0 0 0 
0 0 0 0 0 0 0 0 0 
0 0 0 0 0 0 0 0 0 
0 0 0 0 0 0 0 0 0 
0 0 0 0 0 0 0 0 0 
0 0 0 -1 0 0 0 0 0 
0 0 0 1 0 0 0 0 0 
0 0 0 0 0 0 0 0 0 
0 0 0 -1 0 0 0 0 0 
0 0 0 0 0 0 0 0 0 
0 0 0 1 0 0 0 -1 0 
0 0 0 0 0 0 0 0 0 
0 -1 0 0 0 0 0 0 0 
0 0 0 0 0 0 1 -1 0 
0 -1 0 0 0 0 0 -1 0 
0 0 0 0 0 0 0 1 0 
0 1 0 0 0 0 0 0 0 
0 0 0 0 0 0 0 0 0 
0 0 0 0 0 0 0 0 0 
0 0 0 0 0 0 0 0 0 
0 1 0 0 -1 0 0 0 0 
0 0 0 0 0 0 0 0 0 
0 0 0 0 0 0 0 0 0 
0 0 0 0 0 0 0 0 0 
0 0 0 0 0 0 0 0 0 
0 0 0 0 0 0 0 0 0 
0 0 0 0 0 0 0 0 0 
0 0 0 0 0 0 0 0 0 
0 0 0 0 0 0 0 0 0 
0 0 0 0 0 0 0 0 0 
0 0 0 0 0 0 0 0 0 
0 0 0 0 0 0 0 0 0 
0 0 0 0 0 0 0 0 0 
0 0 0 0 0 0 0 0 0 
0 0 0 0 0 0 0 0 0 
0 0 0 0 0 0 0 0 0 
0 0 0 0 0 0 0 0 0 
0 0 0 0 0 0 0 0 0 
0 0 0 0 0 0 0 0 0 
0 0 0 0 0 0 0 0 0 
0 0 0 0 0 0 0 0 0 
0 0 0 0 0 0 0 0 0 
0 0 0 0 0 0 0 0 0 
0 0 0 0 0 0 0 0 0 
0 0 0 0 0 0 
v 3 509 double
0.000612805 0.00111659 0.000988244 0.000395756 0.00423979 -0.00140004 -7.06908e-05 -0.000361129 -0.00100577 
-0.00113956 0.00041331 -0.000422223 -0.000806411 0.00152745 0.000763222 0.00072739 -0.00120415 0.000116953 
7.97413e-05 0.0019192 0.000111074 -0.00142691 -0.000842562 -0.000863579 0.00138528 -0.00276628 2.20163e-05 
0.0040089 0.00424403 0.00172268 -0.00043111 0.000149353 -3.61813e-05 0.000374801 -0.00103355 0.000161315 
0.0011662 0.000573252 -6.91847e-08 0.00120456 -0.000823911 0.000926586 -0.00135072 -0.000972721 0.000118474 
0.00116536 0.00205445 0.000493607 0.00102756 -0.00214515 0.000550106 0.00114828 0.00109256 -6.86742e-05 
4.92227e-05 -0.000959905 -0.00076844 -0.00127637 0.00237042 -0.000851962 -0.000457214 0.00383128 -0.000558325 
0.000187475 0.00222929 0.000727765 0.00878023 0.00243392 -2.95637e-05 0.000245291 -0.00372259 0.000851173 
0.000564846 -0.000519852 0.000277599 -0.000587725 -0.000318683 -0.000155018 -0.000594709 0.00020961 -0.000803628 
0.00277725 -0.000866095 -0.000841549 -0.00027287 -0.00175694 -0.000828127 7.03261e-05 -0.000775757 0.000330094 
0.00104271 0.000439737 -4.29014e-05 0.000898674 0.00148424 0.00102508 0.000814848 0.000327735 -0.000471495 
-0.00408276 -0.000889872 0.00113187 -0.000224249 -0.00021226 0.000781294 0.00266421 -0.00114625 4.90753e-05 
0.000364118 -0.00015076 0.000314197 -0.00426176 -0.00116608 -0.000509466 0.00135423 -0.00015001 0.000126535 
0.00149626 0.00157168 0.000536969 5.81115e-05 -0.0039248 0.000140001 0.000636518 -0.000842845 2.30521e-05 
0.00113088 -0.000143005 0.00119209 0.0010124 -0.00169472 -0.00039306 0.00155927 -0.000371794 -0.00124547 
-0.00614652 -0.00170178 -0.00203472 -0.00392516 -0.000118635 -0.00122654 -0.00341184 -0.000615309 0.000360067 
-0.00032711 -0.00100102 -0.000122904 0.000331572 -0.00370661 -1.72236e-05 0.000431462 -0.00583131 -0.000586495 
0.00234246 -0.000865447 -0.00019976 -0.0012283 -0.00048636 0.00107393 -1.8434e-05 -0.00145694 0.000600792 
-0.000112978 -0.000900674 0.000950032 -0.00210988 0.00185672 -0.000294835 -0.00339156 0.000325577 0.000225679 
-0.00102508 -0.000326196 0.00139969 -0.000484665 0.000128916 0.000667307 0.00222712 -0.000532192 2.59249e-05 
0.00182472 0.000782391 0.000521862 -0.000499694 -0.00110433 0.000309999 -7.37161e-05 -0.000649502 0.00149294 
-0.00123096 0.000246595 0.000930208 -0.000791456 0.00102735 -0.000455148 -0.000758628 0.00124427 6.39524e-05 
0.00106893 0.00166863 0.00176975 -0.000735118 0.000421477 0.000381255 0.00120032 -0.000145666 0.000303754 
-0.000966081 -4.19144e-05 -0.00062079 0.00249904 0.00145154 -0.000163368 0.000336584 -0.000301984 0.000397655 
-0.000411985 -0.000545777 0.000255561 4.71533e-05 -0.000663713 0.00017937 -6.11489e-05 0.00056757 0.000462751 
0.00255671 0.000226944 -0.000763828 0.000233707 -0.000304358 -0.000634289 6.65154e-05 0.00175148 3.07591e-06 
0.00294585 0.00327709 0.000148058 0.00131343 0.00102889 -0.000145961 0.000333512 0.000852194 -0.000129901 
0.000885363 -0.000219953 0.000356604 -0.00133827 -0.00180895 -0.00057482 0.000480314 -0.000390785 0.000184894 
-0.000693294 0.00143155 -0.000414293 0.001377 -0.00038176 -0.000112293 -0.00043634 0.000967328 -8.59257e-05 
0.00160889 0.0031907 -0.000755997 -0.000671506 -0.00189509 -0.00039937 0.000437015 0.00028842 -0.000116997 
-0.00146322 0.00159217 0.000453023 -0.000473375 -7.26697e-05 -0.000380833 0.000497731 0.00142267 3.62912e-05 
4.42432e-05 0.000155476 -0.000529875 -0.00136275 -5.99055e-06 -0.000663602 -0.001771 0.000967832 0.000315145 
-0.00251174 0.00322806 0.000164966 -0.00179834 0.000253072 -0.000609508 -0.00125497 0.00122145 -2.93831e-05 
0.00211004 0.00196616 -2.54593e-06 -0.000147065 4.64554e-05 1.75473e-08 0.000777141 -0.00279217 0.00250598 
0.000812129 -0.000321829 -0.00157339 0.000663283 -0.000449911 0.0023995 0.000495848 0.000978768 0.00127885 
0.000649416 0.00202176 0.000499629 -0.00264607 0.00134005 -0.000566376 -0.0117076 -0.0013284 -0.00741851 
0.000893102 0.00140441 -0.00181448 0.00017122 0.00344849 2.71061e-05 -0.000595235 -0.000756217 0.000976937 
0.00186911 -0.00154316 -0.000432761 0.00203993 0.000904079 -0.000415439 -0.000557703 0.000357387 0.00387515 
0.000320308 0.0028344 0.000772751 0.00271011 0.00386598 -0.00129796 -0.00281438 0.000331166 -0.000150489 
0.00149254 0.00171281 -0.00326359 0.000712008 0.00235953 -0.000719559 -0.00323195 -0.00134755 -0.00322055 
-0.000432974 0.00496053 0.000565858 -0.000219505 0.00077954 -0.00122886 7.91203e-05 0.000106192 0.00158087 
0.000170247 -0.000864124 -0.000216437 -0.000719017 -0.000255401 0.0019919 0.000224502 -0.00760152 -0.00286711 
0.00124778 -0.00621781 0.000834734 0.00240324 -0.00329391 0.000371642 0.000682254 0.00102227 0.00044055 
0.00142795 -0.00316627 -0.000947468 -2.86402e-05 0.00190142 0.00126063 0.00071306 -0.00171564 0.000926811 
0.000581426 -0.000712299 -0.00342649 -0.00029667 0.000355516 -0.00151486 -0.00281244 -0.00155712 0.00259843 
-0.00255399 0.00388494 0.00203937 -0.00107896 0.000437982 0.0017141 0.00206301 0.00106845 -5.20664e-05 
-0.00719943 0.0084883 -0.0103149 0.000227638 0.00168755 0.000820623 -0.00190955 -0.0041355 -3.32718e-05 
-0.0114018 -0.00424041 -0.00319104 -0.00443277 -0.000168574 -0.00218227 -0.00240262 0.00220069 0.00220357 
0.000228136 -0.00241066 0.00263361 0.00216894 0.000249111 -9.96423e-05 0.00143017 -0.00229274 0.000296167 
0.000771372 0.000357632 0.00206347 0.000593222 -0.00124311 0.00169287 -0.00128074 -0.000587637 0.00218788 
-0.00165578 0.000702921 0.00174538 -0.00191978 0.000479726 -0.00200143 -0.00802442 -0.00257108 -0.00196863 
-0.00455761 -0.002003 -0.00519122 -0.00609009 -0.00226618 -0.000184028 -0.00598728 -0.00630938 0.000190905 
-0.00282885 -0.00186858 -0.00251917 -0.0043613 0.000424656 9.58489e-05 0.000146491 0.000414732 0.00188337 
-0.00247168 -0.000860399 0.00199821 0.00373491 -0.00226235 0.00352851 -0.00196192 0.000455045 0.00368457 
-0.00146861 0.00121033 0.00282779 0.000934088 0.00249508 -0.00182 -0.00312163 -0.00140006 0.00189193 
-0.00135179 -0.000200823 0.000499341 -0.000166408 -0.00499032 -0.00193211 0.000357001 -0.000199572 -0.000534756 
0.000821619 -0.0035887 -0.000406967 0.00126201 -0.00258448 0.00121338 0.00289585 -0.00147788 0.0015593 
-0.000609193 0.000143532 5.71531e-05 -0.00178493 0.000273696 0.0015336 -0.00299759 0.00423921 0.00131433 
0.00233096 0.00205201 -0.000741445 0.000105976 -0.00170964 -0.00370717 0.00306404 0.00485697 0.00102197 
-0.00131979 0.00191548 0.000896553 -0.00078163 0.0016594 -0.0027928 0.000448846 -0.000690298 -0.00171031 
0.00207977 0.000515172 0.000529788 0.00253961 0.000773445 -0.000787319 0.00133296 0.00559301 -0.000597752 
-0.00432827 -0.00200449 0.00144233 0.000745172 0.00111453 0.000574596 0.000551467 -0.000278152 0.00128901 
-0.000320314 -0.000287787 0.000555658 0.0026531 0.00551021 0.0011317 0.00267669 -0.00051582 0.000135447 
0.00516044 0.000931543 -0.00084292 -0.000548798 0.000367946 0.000598146 0.00102096 0.000159559 0.000238328 
0.00153402 -6.04837e-05 0.00102512 -0.000637676 0.000624211 0.000508514 -0.000662996 0.00049593 0.00125166 
-0.00482459 -0.0020246 -0.00134698 0.00192125 0.00105188 -0.00197384 0.00218472 -0.000518128 0.000568619 
0.0011325 -5.1906e-05 -0.00230479 -0.00187815 0.000115272 -0.00205049 -0.00082284 0.000964224 0.00188568 