# vtk DataFile Version 4.0
Generated by LIGGGHTS
ASCII
DATASET POLYDATA
POINTS 1011 float
-4336.74 -4886.57 498.803 -3769.47 -4064.02 499.063 -3313.36 -4954.66 499.01 
-2653.82 -4203.48 499.691 -1603.96 -4279.15 498.944 -364.767 -4453.42 496.833 
632.597 -4519.68 499.087 1613.72 -4726.09 499.198 2612.8 -4772.25 498.212 
3668.43 -4755.59 497.066 4666.61 -4819.53 498.507 -4775.24 -3981.37 498.581 
-4206.7 -3159.61 498.955 -3210.2 -3235.97 497.952 -2213.25 -3306.11 498.657 
-886.696 -3567.93 499.067 166.189 -3606.79 499.107 1164.19 -3673.46 499.086 
2147.57 -3882.33 499.506 3146.78 -3903.91 498.364 3700.63 -3071.96 498.857 
4226.8 -3921.63 497.755 4777.33 -3087.33 498.817 -4619.11 -2192.4 499.469 
-3624.65 -2286.64 499.084 -2627.6 -2356.96 499.24 -1407.46 -2714.83 497.951 
-405.243 -2666.88 499.699 387.425 -2054.54 497.415 1352.89 -2317.96 498.924 
2175.99 -2884 498.827 4386.49 -2099.13 498.264 -4686.99 -1117.32 498.959 
-3389.08 -1194.7 498.549 -2389.97 -1176.72 497.978 -1546.16 -1722.69 499.7 
-506.867 -1608.95 498.58 1106.26 -1349.84 498.371 2181.62 -1759.51 498.535 
3417.75 -1854.68 497.851 -4402.37 -158.954 498.514 -3385.17 -191.733 497.708 
-2394.38 -56.4846 499.7 -1529.15 -559.635 497.393 216.517 -887.948 498.169 
1939.77 -789.94 499.124 2920.16 -986.232 499.172 2597.44 -38.1132 498.586 
3598.51 -78.6556 498.342 4069.23 -982.614 499.073 4598.67 -134.06 498.544 
-4866.74 725.84 499.338 -3866.6 684.202 499.518 -2876.36 821.008 497.457 
-1508.98 438.541 497.534 -551.308 141.979 499.165 511.509 66.8898 499.459 
1625 192.109 497.883 3132.7 805.718 499.197 4134.84 764.915 499.208 
-4489.03 1650.49 498.351 -3490.32 1609.45 499.211 -2518.14 1657.02 907.924 
-1636.06 1429.08 498.377 -562.257 1140.97 499.008 5.14532 1963.29 498.692 
440.178 1063.52 499.437 1496.5 1183.53 497.83 2489.04 1591.17 499.121 
3477.6 1743.29 498.688 4512.19 1691.08 498.147 -4953.23 2535.72 498.57 
-3954.6 2494.48 499.123 -2956.1 2453.74 497.696 -1958.21 2374.18 497.462 
-976.914 2180.36 499.265 -290.973 2917.59 498.585 689.337 2691.35 498.57 
1694.93 2198.68 499.706 2954.44 2602.93 498.876 4035.54 2572.79 499.098 
-4417.65 3380.08 499.093 -3419.31 3338.44 498.86 -2363.05 3287.22 498.35 
-1285.3 3131.25 499.522 -607.073 3865.85 499.524 437.819 3658.66 499.076 
1556.19 3188.83 498.562 2580.44 3529.34 499.318 3586.35 3481.82 498.44 
4584.66 3423.39 498.049 -4879.83 4267.17 499.183 -3881.68 4223.66 499.093 
-2189.87 4910.85 499.702 -2849.66 4159.63 498.79 -1686.21 4047.2 499.498 
-1006.38 4782 497.555 56.5367 4620.13 498.703 1042.03 4454.89 498.13 
2041.52 4370.77 498.928 3123.4 4368.43 499.481 4122.37 4329.84 499.669 
-4296.52 -4305.46 1313 -3289.79 -4380.98 1316.14 -2339.47 -4418.58 1621.81 
-1530.43 -4894.01 1282.83 -851.62 -4147.51 1312.08 144.775 -4229.43 1323.8 
1311.33 -4232.67 1314.24 2350.38 -4349.89 1364.06 3683.97 -4162.23 1300.18 
4706.85 -4240.96 1312.41 -4741.26 -3405.39 1314.72 -3728.78 -3483.42 1315.88 
-2731.67 -3552.9 1315.58 -1741.18 -3687.85 1292.85 -349.062 -3282.22 1291.65 
728.302 -3543.82 1753.8 1670.06 -3282.11 1266.66 2659.32 -3411.52 1217.14 
3414.98 -3153.35 1816.22 4260.47 -3346.27 1313.97 -4167.69 -2586.29 1315.75 
-3156.65 -2649.3 1303.49 -2073.41 -2679.95 1265.48 -1233.58 -2949.35 1735.45 
-970.596 -2151.97 1196.02 -6.04728 -2346.39 1366.27 712.74 -2918.93 974.665 
1910 -2248.41 1326.03 1164.85 -2651.86 1854.25 2858.38 -2442.89 1078.72 
3840.35 -2441.12 1260.4 4837.53 -2491.97 1298.95 -4064.7 -1617.02 1100.1 
-4699.8 -1798.39 1849.25 -3421.36 -1146.74 1929.76 -2882.55 -1693.49 1201.94 
-1772.76 -1127.07 1280.38 -1691.25 -1939.88 1853.47 -905.772 -1316.01 1737.26 
886.159 -1845.64 1336.59 19.451 -1348.55 1361.64 1701.35 -1267.95 1343.82 
2674.85 -1492.84 1324.93 3664.65 -1362.23 1329.83 4652.26 -1423.2 1184.46 
-4910.76 -529.085 1274.88 -3907.43 -638.271 1221.07 -2897.93 -694.313 1209.96 
-2241.09 -99.4574 1669.11 -1301.32 -64.2906 1333.94 -661.481 -736.548 961.01 
818.737 -985.418 1838.91 206.776 -366.399 1349.73 1141.3 -503.161 1025.94 
1194.21 -38.0394 1907.7 2046.69 -195.591 1317.74 3083.81 -400.01 1291.73 
4083.02 -394.6 1313.03 -4203.62 305.777 1360.93 -3089.06 295.415 1318.06 
-2153.35 769.267 1184.37 -1180.57 983.699 1267.33 -341.96 464.498 1421.78 
1028.56 619.633 1174.98 2267.74 760.43 1008.86 2757.16 399.44 1801.92 
3622.63 497.342 1313.93 4627.31 443.405 1313.33 -4006.26 1283.22 1291.73 
-3068.16 1244.35 1630.67 -1677.19 1952.59 1358.32 -10.8838 1402.31 1324.69 
888.969 1828.12 961.319 1757.98 1529.42 1397.11 3004.53 1357.5 1322.79 
4001.04 1422 1312.63 4998.93 1370.87 1309.59 -4468.94 2224.51 1315.67 
-3470.59 2182.93 1316.97 -2565.42 2208.45 1739.31 -1861.66 2959.76 1297.96 
-437.193 2310.13 1330.13 441.659 2174.92 1785.87 1184.99 2693.49 1365.52 
2481.81 2207.93 1285.38 3476.23 2330.48 1305.98 4531.61 2268.95 1312.28 
-4394.95 3955.24 1315.99 -4930.67 3111.28 1314.22 -3930.11 3070.4 1314.93 
-3381.19 3919.91 1310.35 -2903.55 3042.85 1301.81 -2280.82 3893.62 1288.55 
-715.388 3283.61 1325.11 259.534 3066.3 1318.73 734.787 3745.95 1875.68 
1460.35 3888.94 1205.54 2085.85 3123.34 1342.38 3075.94 3245.29 1322.99 
4070.7 3155.4 1309.98 -4855.71 4848.98 1311.38 -3857.43 4797.49 1316.2 
-2793.93 4751.51 1301.2 -1109.68 4200.34 1301.61 -438.528 4942.53 1304.67 
-30.4842 4029.91 1299.47 628.115 4883.3 1300.08 1807.83 4811.9 1363.88 
2581.52 4123.48 1302.97 3146.3 4965.99 1300.68 3613.55 4083.35 1385.56 
4606.66 4000.85 1313.98 4147.04 4923.7 1311.23 -4824.06 -4576.9 2128.63 
-4310.99 -4323.07 2951.01 -3826.61 -4628.71 2132.72 -3037.99 -4019.05 2212.71 
-2270.71 -4497.5 2638.51 -1463.76 -4295.87 2086.16 -872.234 -4283.39 2910.4 
-262.383 -4566.73 2171.13 732.304 -4504.1 2082.61 1761.68 -4563.7 2143.04 
2527.59 -4526.16 2845.03 3042.81 -4178.41 2064.47 3550.77 -4608.91 2892.86 
4165.02 -4483.79 2114.49 4628.25 -4793.64 2941.43 -4278.88 -3738.28 2135.65 
-3394.88 -3086.35 2170.24 -2301.43 -3218.45 2152.17 -1594.69 -3593.27 2782.51 
-670.359 -3654.93 2161.63 313.156 -3781.7 2631.73 1307.35 -3765.8 2536.47 
2175.62 -3652.61 2057.35 2927.12 -3382.22 2657.57 3889.48 -3631.26 2553.4 
4857.92 -3825.53 2705.14 4708.42 -3012.87 2142.43 -4337.5 -2752.81 2285.69 
-3611.77 -2122.11 2018.69 -3560.21 -2482.79 2949.79 -2611.56 -2273.48 2050.47 
-1634.74 -2614.76 2586.43 -710.261 -2909.37 2825.5 -627.255 -2190.87 2133.98 
835.142 -2914.68 2758.83 34.429 -2946.63 2161.61 416.329 -2005.99 2205.7 
1788.44 -2537.54 2625.69 2527.92 -2721.28 1978.98 2945.62 -2397.7 2827.16 
3247.32 -2027.14 1949.18 3872.05 -2633.33 2536.56 4931.52 -2223.07 2712.79 
-4184.69 -1655.84 2693 -3050.84 -1658.2 2704.95 -2436.47 -1291.42 2007.06 
-1952.27 -1688.33 2785.61 -1045.39 -1270.4 2725.97 -120.165 -1172.11 2334.7 
750.465 -1156.15 2820.08 1377.52 -1732.16 2199.39 2369.81 -1722.41 2317.64 
3232.05 -1209.6 2523.52 4913.67 -1225.45 2671.65 4319.18 -1936.95 1977.11 
4009.25 -1713.65 2900.53 -4372.45 -864.748 2074.58 -4335.44 -27.4835 2693.45 
-3590.83 -169.058 2044.1 -3702.47 -789.387 2818.31 -2734.42 -459.803 2472.37 
-1535.1 -642.465 2120.54 -1006.9 -202.977 2845.25 -586.672 -375.245 1955.88 
327.838 -276.71 2343.64 1594.92 -785.243 2435.29 2494.73 -781.965 2002.21 
3411.09 -271.732 2226.15 4117.33 -970.712 2127.44 4830 -276.106 2205.57 
-4784.79 640.265 2101.7 -3800.04 802.874 2148.06 -2782.44 511.325 2244.89 
-1896.49 175.895 2565.6 -1055.12 490.96 2127.3 -238.116 541.588 2699.71 
457.034 652.002 1992.29 1358.15 358.325 2809.29 1831.6 727.446 1988.78 
2260.59 3.4694 2572.45 2199.39 946.543 2898.5 3095.58 526.481 2737.97 
4122.75 428.219 2175.5 -4462.95 1622.43 2113.72 -3507.24 1876.61 2268 
-2623.95 1465.25 2497.13 -1796.86 1154.03 2034.13 -1184.35 1204.13 2822.43 
-937.845 1659.24 1961.69 -25.3473 1471.37 2321.01 650.701 1052.81 2924.48 
1051.96 1448.34 2099.43 1600.39 1750.09 2881.22 2440.32 1536.12 2128.1 
3521.88 1227.02 2167.52 4514.77 1347.15 2183.2 -4139.05 2518.53 2701.16 
-4959.02 2532.38 2129.96 -3409.52 2930.17 2156.17 -2783.79 2418.67 2744.28 
-1159.41 2634.51 1940.08 -1839.66 2077.73 2413.26 -1599.92 2984.42 2766.06 
-599.144 2198.36 2730.55 -247.366 2970.08 2174.82 927.638 2870.48 2314.98 
645.191 2042.01 2794.81 1778.68 2281.7 2054.76 2646.98 2774.19 2091.23 
3120.39 2075.87 2624.49 3991.23 2196.01 2149.88 4129.3 2779.65 2947.33 
-4419.73 3373.4 2131.29 -4921.2 3998.39 2771.55 -3838.13 3913.15 2736.7 
-2980.74 3888.31 2225.05 -2372.45 3100.91 2144.61 -1523.88 3599.98 1983.06 
-585.571 3909.65 2120.42 195.228 3729.49 2715.74 1854.79 3124.51 2588.05 
1956.82 3972 2068.95 1186.49 3845.48 2764.97 2981.57 3907.94 2192.96 
2946.15 3206.49 2941.24 3583.36 3110.01 2179.17 3907.13 3916.44 2672.95 
4579.99 3418.79 2128.5 -4368.64 4531.27 2132.28 -2967.05 4885.34 2276.33 
-2059.63 4598.44 1962.21 -1534.34 4210.76 2771.01 -1034.59 4802.51 2094.76 
-468.462 4566.71 2881.88 187.345 4542.52 2129.2 1184.14 4605.33 2115.87 
1881.47 4712.6 2822.73 2523.49 4794.79 2061.85 2958.55 4576.78 2934.94 
3578.48 4709.54 2163.07 4599.08 4607.39 2142.61 -4923.45 -4390.56 3737.7 
-3031.92 -4469.9 3285.53 -2152.51 -4232.76 3696.48 -1581.07 -4906.96 3233.34 
-701.437 -4919.2 3705.81 47.6545 -4611.24 3120.23 696.125 -4646.99 3880.14 
1137.24 -4641.17 2984.64 1910.1 -4673.25 3615.9 4188.15 -4033.73 3417.38 
-4460.91 -3242.08 3146.67 -3968.57 -3989.09 3828.43 -3568.21 -3655.12 2975.91 
-3144.25 -3061.84 3658.65 -2570.45 -3624.21 3024 -1236.62 -3783.62 3695.55 
-258.462 -3707.38 3447.89 891.804 -3736.82 3445.42 2099.95 -3672.32 3137.09 
2660.98 -3090.45 3723.92 3058.5 -3976.16 3488.95 3589.5 -3124.58 3360.31 
4569.46 -3011.47 3207.77 -4397.99 -2271.33 3452.66 -2552.27 -2627.03 2982.03 
-1759.93 -2942.19 3521.42 -1111.46 -2109.6 3270.62 -807.686 -2887.44 3818.86 
100.872 -2775.67 3420.27 788.789 -2051.79 3260.5 1508.85 -2950.92 3494.84 
2206.71 -2235.56 3480.44 3774.68 -2215.49 3732.42 -3627.14 -1506.19 3507.91 
-2572.79 -1822.16 3572.61 -1673.93 -1406.1 3703.14 -168.246 -1905.59 3010.57 
-667.128 -1320.77 3692.4 372.235 -1276.66 3735.89 1633.24 -1494.38 3138.07 
[...]
POINT_DATA 1011
FIELD FieldData 7
id 1 1011 int
72 12 38 94 7 11 80 109 30 
100 48 107 102 124 89 79 97 81 
90 82 51 91 49 36 60 78 18 
16 28 26 31 14 27 98 15 45 
104 96 22 87 54 37 59 19 1 
2 4 108 43 29 84 33 92 21 
88 42 55 66 46 77 73 20 69 
110 131 13 40 53 23 35 105 52 
8 119 61 25 34 58 6 85 47 
63 57 32 75 65 93 39 83 67 
41 10 9 17 113 3 56 50 24 
166 44 5 164 139 185 103 194 95 
125 135 86 150 137 223 193 133 149 
202 161 99 274 147 168 128 163 132 
157 179 148 155 186 145 278 281 101 
156 181 141 134 212 187 225 165 136 
195 170 62 159 123 142 224 70 121 
172 152 115 197 130 140 160 171 126 
209 153 217 177 112 316 158 118 127 
207 169 154 111 191 143 114 151 129 
175 198 76 167 189 200 116 192 214 
219 196 210 221 146 182 144 74 216 
64 117 68 228 206 138 120 71 122 
183 162 201 178 180 208 215 106 248 
427 242 276 232 273 378 262 289 337 
293 258 386 266 406 239 322 229 307 
275 312 309 245 292 320 327 330 350 
299 412 259 240 301 254 329 190 227 
317 267 356 282 304 305 368 285 268 
314 310 233 354 264 296 375 315 256 
376 204 298 211 323 231 252 283 213 
257 370 324 374 270 297 243 265 234 
253 235 308 271 381 288 302 380 365 
263 230 261 269 218 357 236 255 367 
244 321 250 174 226 294 173 246 355 
279 272 331 290 260 333 372 251 205 
295 222 379 277 352 349 326 237 184 
280 311 332 238 306 247 377 241 335 
334 176 300 249 286 199 363 188 319 
318 203 360 291 220 457 396 397 366 
408 328 417 369 418 402 419 456 437 
422 340 477 423 500 338 494 450 475 
436 488 343 444 345 439 441 429 390 
503 474 428 413 447 336 409 476 443 
467 432 508 445 348 459 416 391 405 
385 325 347 424 341 388 415 344 481 
451 382 400 303 339 435 362 426 440 
364 389 504 287 358 313 392 438 433 
425 442 469 403 284 414 399 463 398 
411 353 401 387 478 346 410 361 393 
502 452 509 394 373 468 404 395 384 
420 454 351 421 448 434 430 342 505 
371 359 383 446 473 431 449 610 520 
560 528 499 589 548 485 555 546 562 
529 598 541 532 479 566 583 501 516 
507 558 530 482 613 658 547 524 491 
614 483 618 466 565 616 471 554 579 
556 571 577 487 620 493 537 511 495 
513 553 551 574 522 563 535 518 552 
533 407 526 640 573 496 557 461 521 
489 621 455 593 512 612 490 617 498 
531 464 543 462 492 525 536 484 564 
465 581 568 586 519 460 602 470 559 
545 534 453 538 514 599 550 609 458 
549 544 480 517 539 510 515 506 527 
486 542 608 497 605 540 523 472 569 
561 597 669 641 572 728 713 653 601 
631 664 720 699 578 642 700 736 643 
590 666 672 575 694 716 587 659 677 
710 650 741 714 585 757 707 709 651 
680 647 652 701 673 726 596 781 638 
630 668 679 667 663 692 646 731 718 
654 693 730 688 594 607 629 592 682 
576 633 724 622 687 698 674 722 603 
567 656 595 635 645 634 655 678 628 
619 580 611 661 695 648 591 588 644 
662 584 649 624 717 675 729 657 615 
665 704 600 637 676 684 625 582 725 
627 626 639 708 670 696 660 604 706 
775 570 711 632 782 636 671 734 606 
773 780 804 747 776 889 783 831 764 
813 862 840 762 744 833 828 836 752 
765 834 793 816 733 763 797 761 841 
805 740 789 860 690 823 790 811 817 
772 750 778 838 691 771 795 846 760 
786 835 742 779 715 768 737 802 751 
721 774 697 854 703 801 766 723 683 
739 784 807 770 681 753 759 787 819 
719 754 829 686 850 822 844 738 746 
748 812 689 788 712 755 798 727 685 
826 791 749 745 843 756 809 732 769 
803 814 702 743 837 785 825 824 808 
767 810 842 735 890 777 806 758 705 
818 861 899 910 895 883 932 946 878 
912 863 884 956 872 923 888 945 877 
868 880 830 864 799 917 792 852 885 
869 898 949 796 870 926 919 851 886 
896 820 866 904 849 925 858 933 874 
944 839 894 845 918 827 832 892 800 
893 873 881 897 950 857 848 887 948 
882 815 875 938 821 867 908 853 900 
879 856 891 855 911 936 847 934 940 
859 794 947 876 871 939 865 931 924 
928 953 913 920 955 935 942 902 952 
921 907 909 901 929 922 937 916 941 
903 927 914 905 915 930 906 954 951 
943 997 981 990 972 973 994 964 971 
1011 965 983 996 979 1009 967 976 987 
963 1006 960 975 962 958 961 980 984 
1004 999 998 985 966 957 1000 992 1003 
986 1002 969 988 1005 1010 959 1008 978 
974 993 977 989 968 1007 982 1001 991 
995 970 623 
type 1 1011 int
1 1 1 1 1 1 1 1 1 
1 1 1 1 1 1 1 1 1 
1 1 1 1 1 1 1 1 1 
1 1 1 1 1 1 1 1 1 
1 1 1 1 1 1 1 1 1 
1 1 1 1 1 1 1 1 1 
1 1 1 1 1 1 1 1 1 
1 1 1 1 1 1 1 1 1 
1 1 1 1 1 1 1 1 1 
1 1 1 1 1 1 1 1 1 
1 1 1 1 1 1 1 1 1 
1 1 1 1 1 1 1 1 1 
1 1 1 1 1 1 1 1 1 
1 1 1 1 1 1 1 1 1 
1 1 1 1 1 1 1 1 1 
1 1 1 1 1 1 1 1 1 
1 1 1 1 1 1 1 1 1 
1 1 1 1 1 1 1 1 1 
1 1 1 1 1 1 1 1 1 
1 1 1 1 1 1 1 1 1 
1 1 1 1 1 1 1 1 1 
1 1 1 1 1 1 1 1 1 
1 1 1 1 1 1 1 1 1 
1 1 1 1 1 1 1 1 1 
1 1 1 1 1 1 1 1 1 
1 1 1 1 1 1 1 1 1 
1 1 1 1 1 1 1 1 1 
1 1 1 1 1 1 1 1 1 
1 1 1 1 1 1 1 1 1 
1 1 1 1 1 1 1 1 1 
1 1 1 1 1 1 1 1 1 
1 1 1 1 1 1 1 1 1 
1 1 1 1 1 1 1 1 1 
1 1 1 1 1 1 1 1 1 
1 1 1 1 1 1 1 1 1 
1 1 1 1 1 1 1 1 1 
1 1 1 1 1 1 1 1 1 
1 1 1 1 1 1 1 1 1 
1 1 1 1 1 1 1 1 1 
1 1 1 1 1 1 1 1 1 
1 1 1 1 1 1 1 1 1 
1 1 1 1 1 1 1 1 1 
1 1 1 1 1 1 1 1 1 
1 1 1 1 1 1 1 1 1 
1 1 1 1 1 1 1 1 1 
1 1 1 1 1 1 1 1 1 
1 1 1 1 1 1 1 1 1 
1 1 1 1 1 1 1 1 1 
1 1 1 1 1 1 1 1 1 
1 1 1 1 1 1 1 1 1 
1 1 1 1 1 1 1 1 1 
1 1 1 1 1 1 1 1 1 
1 1 1 1 1 1 1 1 1 
1 1 1 1 1 1 1 1 1 
1 1 1 1 1 1 1 1 1 
1 1 1 1 1 1 1 1 1 
1 1 1 1 1 1 1 1 1 
1 1 1 1 1 1 1 1 1 
1 1 1 1 1 1 1 1 1 
1 1 1 1 1 1 1 1 1 
1 1 1 1 1 1 1 1 1 
1 1 1 1 1 1 1 1 1 
1 1 1 1 1 1 1 1 1 
1 1 1 1 1 1 1 1 1 
1 1 1 1 1 1 1 1 1 
1 1 1 1 1 1 1 1 1 
1 1 1 1 1 1 1 1 1 
1 1 1 1 1 1 1 1 1 
1 1 1 1 1 1 1 1 1 
1 1 1 1 1 1 1 1 1 
1 1 1 1 1 1 1 1 1 
1 1 1 1 1 1 1 1 1 
1 1 1 1 1 1 1 1 1 
1 1 1 1 1 1 1 1 1 
1 1 1 1 1 1 1 1 1 
1 1 1 1 1 1 1 1 1 
1 1 1 1 1 1 1 1 1 
1 1 1 1 1 1 1 1 1 
1 1 1 1 1 1 1 1 1 
1 1 1 1 1 1 1 1 1 
1 1 1 1 1 1 1 1 1 
1 1 1 1 1 1 1 1 1 
1 1 1 1 1 1 1 1 1 
1 1 1 1 1 1 1 1 1 
1 1 1 1 1 1 1 1 1 
1 1 1 1 1 1 1 1 1 
1 1 1 1 1 1 1 1 1 
1 1 1 1 1 1 1 1 1 
1 1 1 1 1 1 1 1 1 
1 1 1 1 1 1 1 1 1 
1 1 1 1 1 1 1 1 1 
1 1 1 1 1 1 1 1 1 
1 1 1 1 1 1 1 1 1 
1 1 1 1 1 1 1 1 1 
1 1 1 1 1 1 1 1 1 
1 1 1 1 1 1 1 1 1 
1 1 1 1 1 1 1 1 1 
1 1 1 1 1 1 1 1 1 
1 1 1 1 1 1 1 1 1 
1 1 1 1 1 1 1 1 1 
1 1 1 1 1 1 1 1 1 
1 1 1 1 1 1 1 1 1 
1 1 1 1 1 1 1 1 1 
1 1 1 1 1 1 1 1 1 
1 1 1 1 1 1 1 1 1 
1 1 1 1 1 1 1 1 1 
1 1 1 1 1 1 1 1 1 
1 1 1 1 1 1 1 1 1 
1 1 1 1 1 1 1 1 1 
1 1 1 1 1 1 1 1 1 
1 1 1 1 1 1 1 1 1 
1 1 1 1 1 1 1 1 1 
1 1 1 
i 3 1011 int
0 1 0 0 0 0 1 1 0 
0 1 0 0 0 0 0 0 0 
0 1 0 0 0 0 0 1 0 
0 0 0 -1 0 0 0 0 0 
0 0 0 0 0 0 0 0 0 
0 0 0 0 0 0 0 1 0 
0 0 0 0 0 0 0 0 0 
0 0 0 -1 0 0 1 1 0 
0 0 0 0 0 0 0 0 0 
0 0 0 0 0 0 0 0 0 
0 0 0 0 0 0 0 0 0 
0 0 0 0 0 0 0 0 0 
0 0 0 0 0 0 0 0 0 
-1 0 0 0 0 0 0 0 0 
0 0 0 0 0 0 0 0 0 
0 0 0 0 0 0 0 0 0 
0 0 0 0 0 0 0 0 0 
0 0 0 0 0 0 0 0 0 
0 0 0 0 0 0 0 0 0 
0 0 0 0 0 0 0 0 0 
0 -1 0 1 -1 0 0 0 0 
0 0 0 0 0 0 0 0 0 
0 0 0 0 0 0 0 0 0 
0 0 0 -1 0 0 0 0 0 
0 0 0 0 0 0 0 0 0 
0 0 0 0 0 0 0 0 0 
0 0 0 0 0 0 0 0 0 
1 -1 0 0 0 0 0 0 0 
0 0 0 0 -1 0 0 0 0 
0 0 0 0 0 0 0 0 0 
0 0 0 1 0 0 0 0 0 
0 -1 0 0 -1 0 0 -1 0 
0 -1 0 0 -1 0 0 -1 0 
0 0 0 0 0 0 0 0 0 
1 0 0 0 1 0 0 0 0 
0 0 0 0 0 0 0 0 0 
0 0 0 0 1 0 0 0 0 
0 1 0 1 0 0 0 1 0 
0 0 0 0 0 0 0 0 0 
0 0 0 0 0 0 -1 1 0 
0 0 0 0 1 0 0 0 0 
0 0 0 0 0 0 0 1 0 
0 0 0 0 0 0 0 0 0 
0 0 0 0 0 0 0 0 0 
0 0 0 -1 0 0 0 0 0 
0 0 0 0 0 0 0 1 0 
0 0 0 0 0 0 0 0 0 
0 0 0 0 0 0 0 0 0 
0 0 0 -1 0 0 -1 0 0 
1 0 0 1 0 0 0 0 0 
0 0 0 0 0 0 0 0 0 
0 0 0 0 0 0 0 0 0 
0 0 0 0 0 0 -1 0 0 
0 0 0 0 0 0 0 0 0 
0 0 0 0 0 0 0 0 0 
0 0 0 -1 0 0 0 0 0 
0 0 0 0 0 0 0 0 0 
0 0 0 0 0 0 0 0 0 
-1 0 0 0 0 0 0 0 0 
0 0 0 -1 0 0 1 0 0 
0 0 0 0 0 0 0 0 0 
0 0 0 0 0 0 0 0 0 
0 0 0 0 0 0 -1 0 0 
0 0 0 0 0 0 0 -1 0 
0 0 0 0 -1 0 0 0 0 
0 0 0 0 -1 0 0 0 0 
0 0 0 0 0 0 0 0 0 
0 0 0 1 -1 0 0 0 0 
0 0 0 0 0 0 0 0 0 
0 0 0 0 -1 0 0 0 0 
0 0 0 0 0 0 -1 0 0 
0 0 0 -1 0 0 1 0 0 
0 1 0 0 0 0 0 0 0 
0 1 0 0 0 0 0 0 0 
0 0 0 0 0 0 0 0 0 
0 0 0 0 0 0 0 0 0 
0 0 0 0 1 0 0 0 0 
0 1 0 0 0 0 0 0 0 
0 0 0 0 1 0 0 0 0 
0 0 0 0 0 0 0 0 0 
0 0 0 0 0 0 0 0 0 
0 0 0 0 0 0 0 0 0 
0 0 0 0 0 0 0 0 0 
0 0 0 0 0 0 0 0 0 
0 0 0 0 0 0 0 0 0 
0 0 0 -1 0 0 0 0 0 
0 0 0 0 0 0 0 0 0 
0 0 0 0 0 0 0 0 0 
0 0 0 0 0 0 0 0 0 
-1 0 0 -1 0 0 0 0 0 
0 0 0 1 0 0 0 0 0 
1 0 0 0 0 0 1 0 0 
0 0 0 0 0 0 0 0 0 
0 0 0 0 0 0 0 0 0 
0 0 0 0 0 0 0 0 0 
1 0 0 1 0 0 0 0 0 
0 0 0 0 0 0 0 0 0 
0 0 0 0 0 0 0 0 0 
0 0 0 0 0 0 0 0 0 
0 0 0 0 0 0 0 0 0 
1 0 0 0 0 0 0 0 0 
0 0 0 0 0 0 0 0 0 
0 0 0 0 0 0 0 0 0 
0 0 0 0 0 0 0 0 0 
1 0 0 0 0 0 0 0 0 
0 0 0 0 0 0 0 -1 0 
0 0 0 0 0 0 0 0 0 
0 0 0 0 0 0 0 0 0 
0 0 0 -1 0 0 -1 0 0 
0 0 0 1 0 0 0 0 0 
0 0 0 0 0 0 0 0 0 
0 0 0 0 0 0 0 0 0 
0 0 0 0 0 0 0 0 0 
0 0 0 0 0 0 0 0 0 
0 0 0 0 -1 0 0 0 0 
0 0 0 0 0 0 0 -1 0 
0 0 0 0 0 0 0 -1 0 
0 0 0 0 -1 0 0 0 0 
0 0 0 -1 -1 0 1 0 0 
0 0 0 0 0 0 0 0 0 
0 1 0 0 1 0 0 0 0 
0 1 0 0 0 0 -1 1 0 
0 0 0 0 0 0 0 0 0 
0 0 0 0 0 0 0 0 0 
0 0 0 0 0 0 0 0 0 
0 0 0 0 0 0 0 0 0 
0 0 0 0 0 0 0 0 0 
0 1 0 0 0 0 0 0 0 
0 0 0 0 0 0 0 0 0 
0 0 0 0 0 0 0 0 0 
0 0 0 0 0 0 0 0 0 
0 0 0 0 0 0 0 0 0 
0 0 0 0 0 0 0 0 0 
-1 0 0 0 0 0 0 0 0 
0 0 0 0 0 0 0 0 0 
0 0 0 0 0 0 0 0 0 
0 0 0 0 0 0 0 0 0 
0 0 0 0 0 0 -1 0 0 
0 0 0 0 0 0 0 0 0 
0 0 0 0 0 0 0 0 0 
0 0 0 0 0 0 0 0 0 
0 0 0 -1 0 0 0 0 0 
-1 0 0 0 0 0 0 0 0 
1 0 0 0 0 0 0 0 0 
0 0 0 0 0 0 0 0 0 
0 0 0 0 0 0 0 0 0 
0 0 0 0 0 0 0 0 0 
0 0 0 0 0 0 0 0 0 
0 0 0 0 0 0 0 0 0 
0 0 0 0 0 0 -1 0 0 
0 0 0 1 0 0 0 0 0 
0 -1 0 0 0 0 0 0 0 
0 0 0 0 0 0 0 -1 0 
0 0 0 0 0 0 0 0 0 
0 0 0 0 0 0 0 0 0 
1 0 0 1 -1 0 0 0 0 
0 -1 0 0 0 0 0 0 0 
0 0 0 0 0 0 0 -1 0 
0 -1 0 0 0 0 0 0 0 
0 0 0 0 0 0 0 1 0 
0 0 0 0 0 0 0 0 0 
0 0 0 0 0 0 0 1 0 
0 0 0 0 0 0 0 0 0 
0 0 0 0 0 0 0 0 0 
0 0 0 0 0 0 0 0 0 
0 1 0 0 0 0 0 0 0 
0 0 0 0 0 0 0 0 0 
1 0 0 0 0 0 0 0 0 
0 0 0 0 0 0 0 0 0 
0 0 0 0 0 0 0 0 0 
0 0 0 0 0 0 0 0 0 
-1 0 0 0 0 0 0 0 0 
0 0 0 0 0 0 0 0 0 
0 0 0 0 0 0 0 0 0 
0 0 0 0 0 0 -1 0 0 
0 0 0 0 0 0 0 0 0 
0 0 0 0 0 0 0 0 0 
0 0 0 0 0 0 0 0 0 
0 0 0 0 0 0 0 0 0 
0 0 0 0 0 0 0 0 0 
0 0 0 0 0 0 0 0 0 
0 0 0 0 0 0 -1 0 0 
1 0 0 0 0 0 0 0 0 
0 0 0 0 0 0 0 0 0 
0 0 0 0 0 0 0 0 0 
0 0 0 0 0 0 0 0 0 
0 0 0 0 0 0 0 0 0 
0 0 0 0 0 0 0 0 0 
0 0 0 0 0 0 0 0 0 
0 0 0 0 0 0 0 0 0 
0 0 0 0 0 0 0 0 0 
0 0 0 0 0 0 0 0 0 
0 0 0 0 0 0 0 0 0 
0 0 0 0 0 0 0 0 0 
0 0 0 0 0 0 1 0 0 
0 0 0 0 0 0 0 0 0 
1 0 0 0 -1 0 0 -1 0 
0 0 0 0 0 0 0 0 0 
0 -1 0 0 -1 0 1 0 0 
0 0 0 0 0 0 0 0 0 
0 0 0 0 0 0 0 0 0 
0 1 0 0 0 0 0 0 0 
0 1 0 0 0 0 -1 0 0 
0 0 0 0 0 0 0 0 0 
0 0 0 0 1 0 0 0 0 
0 0 0 0 0 0 0 0 0 
0 0 0 0 0 0 0 0 0 
0 0 0 -1 0 0 1 0 0 
0 0 0 0 0 0 0 0 0 
0 0 0 0 0 0 0 0 0 
0 0 0 0 0 0 0 0 0 
0 0 0 -1 0 0 0 0 0 
1 0 0 0 0 0 0 0 0 
0 0 0 0 0 0 0 0 0 
0 0 0 0 0 0 0 0 0 
0 0 0 0 0 0 -1 0 0 
0 0 0 1 0 0 1 0 0 
0 0 0 0 0 0 0 0 0 
0 0 0 0 0 0 0 0 0 
0 0 0 0 0 0 0 0 0 
0 0 0 0 0 0 1 0 0 
0 0 0 0 0 0 0 0 0 
0 0 0 0 0 0 0 0 0 
0 0 0 0 0 0 0 0 0 
0 0 0 0 0 0 0 0 0 
0 0 0 0 0 0 0 0 0 
0 0 0 0 0 0 0 0 0 
0 0 0 0 0 0 0 0 0 
0 0 0 0 0 0 0 0 0 
0 0 0 0 0 0 0 0 0 
0 0 0 0 0 0 0 0 0 
0 0 0 0 0 0 0 0 0 
0 0 0 -1 0 0 0 0 0 
0 0 0 0 0 0 0 0 0 
0 0 0 0 0 0 0 0 0 
0 0 0 0 0 0 0 -1 0 
0 0 0 1 0 0 0 0 0 
0 0 0 0 0 0 0 -1 0 
0 -1 0 0 0 0 0 0 0 
0 0 0 0 0 0 -1 0 0 
0 0 0 1 0 0 0 0 0 
0 0 0 0 0 0 0 0 0 
0 0 0 0 1 0 0 0 0 
0 0 0 0 0 0 0 0 0 
0 0 0 1 0 0 0 0 0 
0 0 0 0 0 0 0 0 0 
0 0 0 0 0 0 0 0 0 
0 0 0 0 0 0 0 0 0 
0 0 0 0 0 0 0 0 0 
0 0 0 0 0 0 0 0 0 
0 0 0 0 0 0 0 0 0 
-1 0 0 0 0 0 0 0 0 
0 0 0 0 0 0 0 0 0 
0 0 0 0 0 0 0 0 0 
0 0 0 0 0 0 0 0 0 
0 0 0 0 0 0 0 0 0 
0 0 0 0 0 0 0 0 0 
0 0 0 0 0 0 0 0 0 
0 0 0 0 0 0 0 0 0 
0 0 0 0 0 0 0 0 0 
0 0 0 0 0 0 0 0 0 
0 0 0 0 0 0 0 0 0 
0 0 0 0 0 0 1 0 0 
0 0 0 0 0 0 0 0 0 
0 0 0 0 0 0 0 0 0 
0 0 0 0 0 0 0 0 0 
0 0 0 0 0 0 1 0 0 
0 0 0 0 0 0 0 0 0 
0 0 0 0 0 0 0 0 0 
0 0 0 0 0 0 0 0 0 
0 0 0 0 0 0 0 0 0 
0 0 0 0 0 0 0 0 0 
0 0 0 0 0 0 0 0 0 
0 0 0 0 0 0 0 0 0 
-1 0 0 0 0 0 1 0 0 
0 0 0 0 -1 0 0 0 0 
0 0 0 0 0 0 0 -1 0 
0 0 0 0 -1 0 0 0 0 
0 0 0 0 0 0 -1 0 0 
0 0 0 1 0 0 0 0 0 
0 1 0 0 0 0 0 0 0 
0 0 0 0 0 0 -1 1 0 
1 0 0 0 0 0 0 0 0 
0 1 0 0 0 0 0 0 0 
0 0 0 0 0 0 0 0 0 
0 0 0 0 0 0 0 0 0 
0 0 0 0 0 0 0 0 0 
0 0 0 0 0 0 1 0 0 
0 0 0 0 0 0 0 0 0 
0 0 0 0 0 0 0 0 0 
0 0 0 0 0 0 0 0 0 
0 0 0 0 0 0 0 0 0 
0 0 0 0 0 0 0 0 0 
0 0 0 0 0 0 0 0 0 
-1 0 0 -1 0 0 0 0 0 
0 0 0 0 0 0 0 0 0 
0 0 0 0 0 0 0 0 0 
0 0 0 0 0 0 0 0 0 
0 0 0 0 0 0 0 0 0 
0 0 0 0 0 0 0 0 0 
0 0 0 0 0 0 0 0 0 
0 0 0 0 0 0 0 0 0 
0 0 0 0 0 0 0 0 0 
0 0 0 0 0 0 0 0 0 
0 0 0 0 0 0 0 0 0 
0 0 0 0 0 0 0 0 0 
0 0 0 0 0 0 0 0 0 
0 0 0 0 0 0 0 0 0 
0 0 0 0 0 0 0 -1 0 
0 0 0 0 0 0 0 0 0 
0 0 0 0 0 0 0 0 0 
0 0 0 0 0 0 0 0 0 
0 0 0 0 0 0 0 0 0 
0 0 0 0 0 0 0 0 0 
0 0 0 0 0 0 0 0 0 
0 -1 0 0 0 0 0 0 0 
0 0 0 0 0 0 0 0 0 
0 0 0 0 0 0 0 0 0 
0 0 0 0 0 0 0 0 0 
0 0 0 0 0 0 0 0 0 
0 0 0 0 0 0 0 0 0 
0 0 0 0 0 0 0 0 0 
0 0 0 0 0 0 0 0 0 
0 0 0 0 0 0 0 0 0 
0 0 0 0 0 0 0 0 0 
0 0 0 0 0 0 0 0 0 
0 0 0 0 0 0 0 0 0 
0 0 0 0 0 0 0 0 0 
0 0 0 0 0 0 0 0 0 
0 0 0 0 0 0 0 0 0 
0 0 0 0 0 0 0 0 0 
0 0 0 0 0 0 0 0 0 
0 0 0 0 0 0 0 0 0 
0 0 0 0 0 0 0 0 0 
0 0 0 0 0 0 0 0 0 
0 0 0 0 0 0 0 0 0 
0 0 0 0 0 0 0 -1 0 

v 3 1011 double
-2.98115e-05 -0.000123565 0.00019819 0.000156243 -0.000226982 0.000122701 0.00017585 -0.000197615 0.000205006 
0.000393854 -0.000212897 0.000148767 0.000444882 -0.000256416 0.000294848 1.35751e-05 -0.00015204 0.000366179 
-0.000179851 -2.2986e-05 0.000261254 -0.000323929 -2.11158e-05 0.000287985 -0.000245326 4.07312e-05 9.2685e-05 
-0.000151476 -0.000136954 0.00021682 -0.000107404 6.49758e-05 0.000121104 3.89774e-06 -0.000132091 -5.94032e-06 
-1.82521e-06 -0.0002348 4.8452e-05 0.000130315 -0.000278057 0.000191594 0.000165758 -9.26949e-05 0.000192643 
-0.000250648 -0.000194096 0.000442227 -0.000488601 9.59819e-05 0.00019684 -0.000191371 -0.000161388 0.000235867 
9.35987e-08 5.55592e-05 0.000175828 2.41045e-05 -5.91137e-06 0.000160471 -0.000145378 3.01208e-05 0.00011935 
-2.5397e-05 1.59236e-05 0.000120912 -6.25289e-06 -9.97698e-06 5.09501e-05 0.000106367 -7.99514e-05 2.28732e-05 
0.000274459 -0.000142081 0.000111654 0.000489586 -1.96262e-05 5.868e-07 -0.000108689 -0.000146689 0.000250271 
6.25218e-05 0.000144717 2.10318e-15 0.000164032 -2.46001e-06 0.000308862 -5.77621e-05 -0.000137402 6.52639e-05 
-9.26011e-06 0.000162596 2.68913e-05 4.52166e-05 9.84671e-06 3.14138e-05 0.000172423 -0.000239858 0.000193688 
3.4632e-05 -4.3987e-05 0.000127299 -6.98584e-05 -0.000256762 0.00015714 7.07164e-06 0.000375939 -5.31608e-06 
0.000109651 -0.000205724 0.000272499 7.76616e-05 3.13759e-05 0.000385849 -0.000175719 2.00412e-06 0.000143435 
0.000174772 0.000207543 0.000135967 2.71077e-05 -0.000213466 0.000130292 6.35017e-05 -0.000127034 0.000228874 
0.000262284 -0.000457383 -2.42778e-06 3.73641e-06 -0.000254289 6.94851e-05 8.09663e-05 -4.61719e-05 0.000302478 
-0.000139256 2.3629e-05 0.00018168 -0.000444557 0.000222604 0.000122829 -0.000125843 0.000177153 5.49057e-05 
-0.000163745 -0.000124334 8.75378e-05 0.000788981 -0.000112291 0.000104242 -3.99666e-05 -0.000228846 0.00020512 
1.78675e-05 -0.000234847 0.000107255 8.1713e-05 -0.000171231 0.000168587 0.000208806 -0.000106392 0.000214699 
9.81038e-05 -0.00021162 0.000200608 -5.2537e-07 -6.13826e-05 0.000141948 -0.000179778 1.13848e-05 0.000119621 
-0.000139233 -3.88697e-05 0.000100222 -5.57146e-05 -1.83927e-07 6.68969e-05 -5.93176e-05 -0.000155813 0.000131322 
0.000103303 -0.000219143 7.66283e-05 6.38496e-05 -0.000104388 0.000147948 0.000390081 -0.000115662 0.000328774 
0.000100853 -0.000146002 0.000140442 -6.59693e-05 9.86408e-06 0.000143087 9.62525e-05 -0.000117965 0.000199819 
-5.79638e-05 -0.000101743 8.85647e-05 -0.000257209 -0.000115698 7.4564e-05 -8.50545e-05 5.00362e-05 7.37562e-05 
0.000194474 -6.81358e-05 0.000142396 6.69574e-05 -3.3755e-05 -5.42028e-05 3.35552e-05 -0.000129104 1.60352e-05 
8.81295e-05 -0.000119648 7.9814e-05 0.000197241 -6.85432e-05 0.000109331 0.000325126 -6.07935e-05 0.000103468 
0.000290689 -0.000104745 -0.000113599 -3.38047e-05 -0.000275324 0.000108164 -1.80222e-05 -9.60859e-05 1.66561e-05 
0.0002102 0.000115342 4.06919e-05 0.000287881 9.44695e-05 4.34552e-05 2.15098e-05 0.000189881 -2.45291e-05 
0.000102586 -2.68215e-05 -4.08488e-05 0.000133012 -0.000123665 -1.69725e-05 0.000263268 -7.63339e-05 7.404e-05 
0.000241484 -0.00017006 9.20138e-05 2.35894e-05 -0.000364358 9.91833e-05 1.11994e-05 -0.00025096 0.000120612 
-0.00014696 -0.000169786 8.98261e-05 1.50098e-05 -6.52298e-05 9.84205e-05 -1.46367e-05 -4.21478e-05 -9.7644e-05 
4.03722e-05 5.56975e-05 -5.41614e-05 -4.84222e-05 -9.38851e-06 8.23718e-05 -1.93992e-05 -0.000177238 9.04287e-05 
3.9034e-05 -0.000144238 0.000172558 2.28191e-05 -0.000198945 0.000135912 -1.33977e-05 -0.000405366 0.000198484 
0.000327413 -0.000507971 0.000328574 -4.0962e-05 -0.000283934 0.000305771 -0.000226006 -0.000158158 0.000258324 
-0.000492188 -0.000171211 0.000169445 -0.000368701 -6.07914e-05 0.00012891 -0.000104583 -0.000382474 0.000156574 
0.000163957 -0.0003247 3.21639e-05 0.000384542 -0.000482053 0.000307017 0.000527589 -0.000492098 0.000343466 
0.000553842 -0.000576309 0.000463136 0.000298222 -0.000289047 0.000899157 -8.10412e-05 2.16479e-05 0.000928311 
-3.91945e-05 -0.000320536 0.000506786 -0.000256851 -5.91253e-05 0.000335285 2.45814e-05 -4.99304e-05 0.00021416 
6.84869e-05 -0.000183711 0.000143215 -6.63162e-05 -0.00027275 -6.40519e-05 0.000284685 -0.000451791 9.31778e-05 
0.000320427 -0.000382538 0.000382259 0.000297612 -0.000318541 0.00062813 2.50175e-05 5.63292e-05 0.000519203 
-0.000260291 0.000248918 0.000898089 -0.000152502 0.000293528 -7.98813e-05 -0.000194951 0.000190562 8.47804e-05 
-0.000259141 0.000338594 0.000249991 -0.000102866 8.99308e-06 0.000201308 0.000188352 -0.000315451 -1.62407e-05 
0.000479084 -0.000194248 0.000216392 0.000218858 -0.000124491 0.000468614 0.000504678 -0.000293038 0.000922524 
0.000266339 -0.000288662 0.000467785 0.000166981 -0.00022027 0.000520643 -9.52998e-05 -0.000237297 0.00023885 
-0.000163938 0.000406199 0.000167232 0.000196891 -5.01266e-05 0.000306824 -9.91798e-05 0.000501255 0.000183885 
-3.38097e-05 0.000222521 0.000110485 -4.59533e-05 -4.05187e-05 0.000187571 0.000139725 -0.000349622 5.70869e-05 
0.000115313 -6.86317e-05 0.000200907 4.67998e-05 -0.000112418 0.00082479 0.00049632 -0.000214667 0.000150652 
6.54677e-05 -0.000375958 0.000282074 0.000531939 -0.000175577 0.000717852 0.000127791 -0.000101922 0.000538732 
9.75098e-05 0.000144514 0.000742937 0.000184748 -4.86471e-05 0.000649077 -3.31314e-06 0.000343031 0.000635379 
-8.0295e-05 0.000758247 9.02607e-05 0.000171465 0.000387388 0.000202209 -0.000430132 -1.81812e-05 0.000382813 
0.000161824 -9.87032e-05 0.00044507 -0.000134453 -0.000292808 0.000356439 4.28998e-05 -0.000230504 0.000267868 
4.62181e-06 -0.000336117 0.000322916 6.96649e-05 -0.000257138 0.000169228 0.00031004 -0.000170833 0.000343239 
3.00851e-05 0.00014043 0.000761231 -0.000133388 -0.000122948 0.000529894 -1.67767e-05 0.000214646 0.000451132 
6.35326e-06 0.000357292 0.000775721 0.000297606 9.43091e-05 0.000105468 -0.000379259 0.000528803 0.000281501 
-0.000319433 6.46888e-05 0.000353635 -7.9746e-05 -0.000364415 0.000207299 -3.70584e-05 -0.000209995 0.000365991 
9.84326e-05 -0.000213017 0.000406283 9.61271e-05 0.000183156 0.000257613 0.000116422 -1.37255e-05 0.000401547 
-0.000169377 0.000204288 0.000152959 -0.000249901 -0.000267387 0.000251593 2.00187e-05 5.53365e-05 0.000536838 
-0.000223199 -4.54187e-05 0.000125945 -0.000290394 5.24414e-07 0.000121457 0.000122233 -0.000390826 0.000195166 
0.000280014 -0.00038232 0.000402796 0.00050507 0.000603627 0.000808457 0.000768529 -0.000369704 0.00065067 
0.000123085 -0.000168168 -1.43819e-05 0.000173863 -0.000228433 0.00034275 -9.16742e-05 0.000166871 -1.2701e-05 
-3.06534e-05 5.91565e-05 -9.99391e-05 -2.43287e-05 -0.000164365 -5.02776e-05 -0.000113341 -0.00043394 0.000291561 
0.000150771 -5.94082e-05 0.000111378 0.000109746 -0.00011609 0.000220549 0.000483771 -0.000448738 0.000270055 
-0.000222127 -0.000454816 0.000123253 -0.000227973 -0.000665029 0.000185096 -8.91671e-05 -0.000372969 0.000245564 
-8.32699e-05 9.58008e-05 1.48053e-05 0.000170628 0.000115523 0.000159396 -8.98547e-05 6.59769e-05 -7.87159e-05 
-4.628e-05 -0.00019874 0.000123007 0.00012298 -0.00017704 -0.00019635 0.000311483 0.000245288 -0.000122831 