# vtk DataFile Version 4.0
Generated by LIGGGHTS
ASCII
DATASET POLYDATA
POINTS 282 float
-4352.36 -4942.58 500.066 -4809.22 -4053.88 500.426 -3786.33 -4117.99 497.957 
-3230.81 -4946.09 499.915 -2669.41 -4112.98 499.545 -1631.93 -4235.94 499.57 
-482.63 -4419.2 499.84 516.031 -4376.5 498.819 1462.3 -4710.72 499.697 
2700.67 -4773.51 497.874 3670.68 -4883.03 708.87 4647.83 -4895.14 498.576 
4137.99 -4024.08 501.491 -4239.45 -3231.92 491.573 -3263.01 -3327.21 818.595 
-2314.78 -3175.45 502.134 -901.72 -3510.92 499.743 183.802 -3433.91 499.732 
1130.39 -3105.57 499.031 2045.47 -3891.86 499.701 3094.88 -3839.53 502.22 
3703.83 -3047.1 501.011 4692.99 -3187.76 499.616 -4620.13 -2310.49 496.277 
-3398.11 -2389.41 500.048 -2338.04 -2171.89 542.247 -1450.86 -2671.52 516.394 
-412.314 -2626.27 526.759 442.893 -2079.6 499.488 1440.64 -2155.49 499.549 
2154.93 -2896.73 499.391 4373.5 -2239.92 499.589 -4288.73 -1030.24 501.623 
-3251.86 -1400.56 504.483 -2282.35 -1156.73 501.539 -1425.14 -1670.38 502.328 
-429.194 -1592.5 499.467 1004.99 -1231.43 511.764 2413.16 -1924.13 499.547 
2872.4 -1036.73 498.123 3445.05 -1854.73 511.31 4238.57 -1250.25 494.439 
-4302.85 -28.9744 499.612 -3249.69 -366.394 499.332 -2238.48 -61.4942 499.774 
-1365.36 -552.958 505.144 -43.0441 -666.502 499.712 751.426 -60.3524 542.282 
1902.76 -787.605 499.593 2692.51 -48.904 504.197 3649.5 -403.145 496.923 
4766.5 -395.749 502.293 -4920.74 775.199 497.106 -3603.78 688.201 499.873 
-2545.19 888.658 499.23 -1296.62 452.375 507.9 -235.93 329.886 535.607 
1724.37 220.772 511.462 3182.52 822.901 499.589 4122.1 481.899 499.709 
-4273.21 1533.77 514.194 -3226.06 1610.87 611.372 -1667.62 1380.85 499.572 
-626.618 1250.41 499.478 404.338 1095.86 499.344 1418.41 1175.52 499.752 
2355.21 1526.36 521.318 3344.67 1810.23 499.718 4519.85 1607.91 499.66 
-4851.4 2443.92 499.594 -3820.22 2422.83 534.292 -2052.37 2303.36 501.622 
-1038.37 2161.53 499.67 -393.779 2931.21 499.567 21.8407 2018.4 498.654 
690.83 2815.87 499.444 1493.15 2219.18 502.812 2444.46 2527.05 499.484 
4069.31 2500.68 513.627 -4386.6 3339.55 499.48 -3385.85 3322.17 502.284 
-2371.16 3250.48 501.414 -1379.11 3103.2 499.6 -778.468 3904.01 499.285 
233.94 3709.57 499.418 1384.44 3593.63 501.153 2385.71 3525.03 501.058 
3551.9 3395.07 499.728 4601.07 3345.61 578.3 -4882.75 4208.54 499.666 
-3799.45 4223.67 664.91 -2227.18 4960.78 499.437 -2814.77 4146.18 499.168 
-1788.64 4062.49 499.567 -1170.34 4854.61 499.701 -112.53 4651.54 499.798 
882.553 4474.54 499.699 2046.44 4465.39 499.005 3048.18 4283.66 499.699 
4117.25 4247.66 499.565 -4359.65 -4094.23 1533.28 -3799.59 -4999.24 1331.83 
-1672.96 -4831.15 1304.99 17.3715 -4040.93 1311.98 412.007 -4977.87 1287.39 
2101.49 -4543.58 1261.53 3522.91 -4047.67 1382.84 4693.01 -4343.49 1332.34 
-2626.08 -3787.32 1443.01 -1556.4 -3626.06 1288.08 -624.665 -3267.94 1429.25 
1103.73 -3878.77 1137.18 1865.33 -3783.74 1866.13 2620.26 -3428.83 1290.29 
4793.65 -3360.8 1487.57 -4131.94 -2776.65 1361.78 -3183.86 -2478.06 1494.65 
-2107.97 -2728.56 1386.13 -825.301 -2066.24 1286.53 559.994 -2747.39 1236.92 
1726.83 -2547.81 1373.32 3027.87 -2534.41 1111.61 4030.47 -2716.56 1654.71 
-4974.32 -1545.66 1026.71 -3983.46 -1795.31 1072.39 -2464.58 -1674.18 1426.45 
-1663.26 -1078.65 1314.93 -577.375 -1080.92 1344.43 447.629 -1381.21 1410.39 
1925.26 -1463.34 1240.56 3352.23 -1067.5 1372.22 4118.58 -1718.49 1411.31 
-4873.47 -739.634 1604.1 -3647.13 -865.03 1270.64 -2671.9 -650.817 1270.22 
-862.963 -102.869 1243.94 127.426 -147.746 1377.86 1131.62 -604.748 1337.96 
2440.56 -584.27 1316.86 4190.14 -527.507 1326.19 -3958.75 72.6549 1433.43 
-2997.53 299.072 1200.94 -2058.61 218.739 1534.62 -1351.44 911.843 1396.44 
702.37 776.406 1397.12 1573.43 387.657 1720.84 2373.17 690.924 1114.22 
3383.46 174.908 1276.97 4944.4 190.399 1292.59 -4603.2 1075.33 1398.78 
-4057.42 1913.39 1491.9 -3609.03 1014.8 1537.44 -3048.86 1966.81 1818.95 
-2383.23 1623.87 1157.12 -1147.95 1889.15 1461.46 -125.843 1400.91 1353.03 
779.886 1783.63 1120.57 1777.01 1763.31 1352.8 2933.2 1535.72 1377.99 
3825.38 1114.44 1215.09 4928.57 1957.52 1344.86 -4408.6 2930.72 1411.4 
-2915.66 2540.46 947.347 -1762.92 2751.89 1353.25 -300.17 2410.56 1359.11 
3186.24 2786.42 1212.95 3911.29 2077.94 1481.33 -3420.12 3080.3 1625.6 
-2818.68 3891.21 1464.54 -832.33 3319.12 1309.82 464.132 3048.17 1444.68 
1615.13 3149.9 1367.39 4768.38 3676.02 1631.18 -4096.18 4173.35 1838.95 
-2657.73 4892.21 1398.95 -1243.58 4230.69 1321.36 -592.425 4993.14 1307.83 
309.731 4039.59 1439.85 1471.9 4165.42 1332.06 2964.28 4859.63 1474 
4612.38 4632.86 1376.86 -4974.56 -4855.49 2147.06 -2988.04 -4456.88 2094.62 
2533.11 -4915.67 2388.83 -3211.07 -3385.72 2197.79 -949.298 -3947.16 2104.84 
689.828 -3835.65 2115.6 -4501.89 -2542.2 2254.35 -2758.49 -2212.29 2378.81 
-1280.96 -2755.32 1983.52 -28.9909 -2503.33 2005.61 -4256.55 -1566.24 2005.42 
-1491.05 -1633.96 2143.22 -199.677 -1530.36 2165.51 1585.06 -1565.25 2720.32 
4242.73 -1271.82 2595.09 -4186.92 -620.068 2322.12 -625.026 -381.881 2202.21 
-4772.04 196.381 2303.66 -2677.59 893.227 1939.88 702.566 114.21 2152.33 
3588.33 645.383 2224.98 -1894.5 1518.07 2021.82 -949.696 1320.21 2277.47 
856.603 1179.19 2339.41 2019.19 1191.37 2146.85 -4496.08 2075.51 2446.19 
-1193.07 2991.5 2182.81 488.311 2100.47 2794.92 2830.94 2279.19 2091.07 
4112.5 2048.6 2462.83 1011.6 3633.22 2041.35 2799.47 -1606.89 3089.62 
1080.36 -645.759 3485.11 -2616.24 3860.97 3496.54 2809.43 3059.25 2958.05 
-647.538 -3703.93 4964.79 -2261.44 758.896 4411.14 -468.886 2456.36 4466.44 
-2056.26 -3729.6 5417.61 -2021.88 1830.86 5165.08 -1591.49 3896.9 5683.94 
321.323 3987.97 5604.24 2822.88 -1085.92 6099.64 -1481.5 2739.57 7214.99 
2629.3 1734.75 9727.65 -3462.66 -2630.77 11210.2 1993.97 -3381.9 13787.1 
-3427.48 -4286.56 20269.3 386.739 -4247.06 20126.6 -4094.2 -3349.21 20086.5 
3115.46 -3909.56 20063.2 -4149.25 -1668.09 20191.5 -2906.76 -1788.65 20093.1 
2526.21 -1745.74 20220 -3087.37 -767.986 20136.9 1779.45 -22.2049 20136.7 
3477.36 -346.949 20142.1 -4288.1 771.147 20092.6 -2514.38 142.401 20308.1 
4453.47 91.5905 20144 -2760.93 1391.64 20118 -659.93 1267.5 19951.2 
1165.78 1149.82 20109.2 4494.43 1726.53 20055 -4071.88 2786.63 20226.7 
1469.62 2120.93 20068 3203.78 2190.52 20339.3 -3635.99 3961.52 20008 
-511.304 3320.1 20127 3325.66 3711.71 20279.9 4357.83 3168.1 19842.6 
-2726.19 4441.79 20253.4 1017.45 4029.65 20190.6 4493.43 4369.32 20335.7 
-2325.25 -4435.23 20480.1 4049.34 -4184.37 20465.6 -929.086 -3621.84 20422.3 
1419.08 -3799.59 20408.8 -2343.92 -2956.77 20425.5 -1342.59 -2160.66 20403 
-144.835 -2531.24 20422.2 980.004 -2384.82 20396.8 2960.76 -2778.56 20480.1 
4197.12 -2907 20453.5 1002.32 -1094.95 20402 4241.9 -1625.46 20479.7 
-4138.98 -360.743 20462.1 -1684.03 -990.07 20474 -140.706 -703.542 20492.6 
-1458.33 385.758 20432.4 448.056 446.54 20492.3 3369.78 740.027 20393.6 
-3859.76 1664.8 20427.4 260.365 1641.65 20450.5 2375.22 1349.8 20465.7 
-1102.51 2207.06 20360.4 412.418 2753.43 20350.1 -2862.24 3439.43 20476.9 
-1892.45 3100.29 20499.6 2048.54 3496.57 20443.6 -777.114 4441.2 20400.3 

VERTICES 282 564
1 0 
1 1 
1 2 
1 3 
1 4 
1 5 
1 6 
1 7 
1 8 
1 9 
1 10 
1 11 
1 12 
1 13 
1 14 
1 15 
1 16 
1 17 
1 18 
1 19 
1 20 
1 21 
1 22 
1 23 
1 24 
1 25 
1 26 
1 27 
1 28 
1 29 
1 30 
1 31 
1 32 
1 33 
1 34 
1 35 
1 36 
1 37 
1 38 
1 39 
1 40 
1 41 
1 42 
1 43 
1 44 
1 45 
1 46 
1 47 
1 48 
1 49 
1 50 
1 51 
1 52 
1 53 
1 54 
1 55 
1 56 
1 57 
1 58 
1 59 
1 60 
1 61 
1 62 
1 63 
1 64 
1 65 
1 66 
1 67 
1 68 
1 69 
1 70 
1 71 
1 72 
1 73 
1 74 
1 75 
1 76 
1 77 
1 78 
1 79 
1 80 
1 81 
1 82 
1 83 
1 84 
1 85 
1 86 
1 87 
1 88 
1 89 
1 90 
1 91 
1 92 
1 93 
1 94 
1 95 
1 96 
1 97 
1 98 
1 99 
1 100 
1 101 
1 102 
1 103 
1 104 
1 105 
1 106 
1 107 
1 108 
1 109 
1 110 
1 111 
1 112 
1 113 
1 114 
1 115 
1 116 
1 117 
1 118 
1 119 
1 120 
1 121 
1 122 
1 123 
1 124 
1 125 
1 126 
1 127 
1 128 
1 129 
1 130 
1 131 
1 132 
1 133 
1 134 
1 135 
1 136 
1 137 
1 138 
1 139 
1 140 
1 141 
1 142 
1 143 
1 144 
1 145 
1 146 
1 147 
1 148 
1 149 
1 150 
1 151 
1 152 
1 153 
1 154 
1 155 
1 156 
1 157 
1 158 
1 159 
1 160 
1 161 
1 162 
1 163 
1 164 
1 165 
1 166 
1 167 
1 168 
1 169 
1 170 
1 171 
1 172 
1 173 
1 174 
1 175 
1 176 
1 177 
1 178 
1 179 
1 180 
1 181 
1 182 
1 183 
1 184 
1 185 
1 186 
1 187 
1 188 
1 189 
1 190 
1 191 
1 192 
1 193 
1 194 
1 195 
1 196 
1 197 
1 198 
1 199 
1 200 
1 201 
1 202 
1 203 
1 204 
1 205 
1 206 
1 207 
1 208 
1 209 
1 210 
1 211 
1 212 
1 213 
1 214 
1 215 
1 216 
1 217 
1 218 
1 219 
1 220 
1 221 
1 222 
1 223 
1 224 
1 225 
1 226 
1 227 
1 228 
1 229 
1 230 
1 231 
1 232 
1 233 
1 234 
1 235 
1 236 
1 237 
1 238 
1 239 
1 240 
1 241 
1 242 
1 243 
1 244 
1 245 
1 246 
1 247 
1 248 
1 249 
1 250 
1 251 
1 252 
1 253 
1 254 
1 255 
1 256 
1 257 
1 258 
1 259 
1 260 
1 261 
1 262 
1 263 
1 264 
1 265 
1 266 
1 267 
1 268 
1 269 
1 270 
1 271 
1 272 
1 273 
1 274 
1 275 
1 276 
1 277 
1 278 
1 279 
1 280 
1 281 

POINT_DATA 282
FIELD FieldData 7
id 1 282 int
72 107 12 38 94 7 11 80 109 
30 100 48 91 102 124 89 79 97 
81 90 82 51 49 36 60 78 18 
16 28 26 31 14 27 98 15 45 
104 96 22 4 87 29 54 37 59 
19 1 55 2 108 43 84 33 92 
21 88 42 66 46 77 73 20 110 
131 40 53 23 35 105 52 8 61 
25 34 13 58 6 85 47 63 57 
32 75 65 93 39 83 67 41 10 
9 17 113 3 56 50 24 166 44 
5 164 138 103 95 162 135 86 150 
139 133 149 125 161 99 137 168 128 
163 157 148 155 145 147 62 101 141 
134 121 165 136 140 170 159 123 142 
70 152 115 130 160 171 126 209 153 
177 197 112 158 118 151 129 127 175 
69 169 154 111 116 143 114 214 196 
119 76 167 68 192 210 146 144 74 
117 215 223 120 71 122 183 64 180 
106 206 185 203 176 194 202 220 193 
132 179 156 181 187 195 173 224 212 
211 207 172 174 218 217 189 191 208 
182 200 205 222 216 186 225 221 178 
190 213 184 199 198 188 201 204 219 
264 281 278 229 262 242 258 239 259 
248 268 256 243 261 234 266 272 236 
271 265 249 244 226 246 280 241 228 
277 238 269 273 274 275 245 276 254 
240 227 267 231 263 270 253 252 233 
235 257 282 230 255 250 279 251 237 
232 247 260 
type 1 282 int
1 1 1 1 1 1 1 1 1 
1 1 1 1 1 1 1 1 1 
1 1 1 1 1 1 1 1 1 
1 1 1 1 1 1 1 1 1 
1 1 1 1 1 1 1 1 1 
1 1 1 1 1 1 1 1 1 
1 1 1 1 1 1 1 1 1 
1 1 1 1 1 1 1 1 1 
1 1 1 1 1 1 1 1 1 
1 1 1 1 1 1 1 1 1 
1 1 1 1 1 1 1 1 1 
1 1 1 1 1 1 1 1 1 
1 1 1 1 1 1 1 1 1 
1 1 1 1 1 1 1 1 1 
1 1 1 1 1 1 1 1 1 
1 1 1 1 1 1 1 1 1 
1 1 1 1 1 1 1 1 1 
1 1 1 1 1 1 1 1 1 
1 1 1 1 1 1 1 1 1 
1 1 1 1 1 1 1 1 1 
1 1 1 1 1 1 1 1 1 
1 1 1 1 1 1 1 1 1 
1 1 1 1 1 1 1 1 1 
1 1 1 1 1 1 1 1 1 
1 1 1 1 1 1 1 1 1 
1 1 1 1 1 1 1 1 1 
1 1 1 1 1 1 1 1 1 
1 1 1 1 1 1 1 1 1 
1 1 1 1 1 1 1 1 1 
1 1 1 1 1 1 1 1 1 
1 1 1 1 1 1 1 1 1 
1 1 1 
i 3 282 int
0 1 0 0 0 0 0 0 0 
1 1 0 0 1 0 0 0 0 
0 0 0 0 1 0 0 0 0 
0 1 0 0 0 0 -1 0 0 
0 0 0 0 0 0 0 0 0 
0 0 0 0 0 0 0 0 0 
0 1 0 0 0 0 0 0 0 
0 0 0 -1 0 0 1 1 0 
0 0 0 0 0 0 0 0 0 
0 0 0 0 0 0 0 0 0 
0 0 0 0 0 0 0 0 0 
0 0 0 0 0 0 0 0 0 
0 0 0 0 0 0 0 0 0 
0 0 0 -1 0 0 0 0 0 
0 0 0 0 0 0 0 0 0 
0 0 0 0 0 0 0 0 0 
0 0 0 0 0 0 0 0 0 
0 0 0 0 0 0 0 0 0 
0 0 0 0 0 0 0 0 0 
0 0 0 0 0 0 0 0 0 
0 -1 0 1 -1 0 0 0 0 
0 0 0 0 0 0 0 0 0 
0 0 0 0 0 0 -1 0 0 
0 0 0 0 0 0 0 0 0 
0 0 0 0 0 0 0 0 0 
0 0 0 0 0 0 0 0 0 
0 0 0 1 -1 0 0 0 0 
0 0 0 0 0 0 0 -1 0 
0 0 0 0 0 0 0 0 0 
0 0 0 0 0 0 1 0 0 
0 0 0 0 -1 0 0 -1 0 
0 -1 0 0 -1 0 0 -1 0 
0 -1 0 0 0 0 0 0 0 
0 0 0 1 0 0 0 1 0 
0 0 0 0 0 0 0 0 0 
0 1 0 0 0 0 0 1 0 
0 1 0 0 0 0 0 0 0 
0 0 0 0 0 0 -1 1 0 
0 0 0 0 0 0 0 0 0 
0 0 0 0 0 0 0 0 0 
0 0 0 0 0 0 0 1 0 
0 0 0 0 0 0 0 1 0 
0 0 0 0 0 0 0 0 0 
0 0 0 -1 0 0 -1 0 0 
1 0 0 1 0 0 0 0 0 
0 0 0 0 0 0 0 0 0 
0 0 0 0 0 0 0 0 0 
0 0 0 0 0 0 0 0 0 
0 0 0 0 0 0 -1 0 0 
0 0 0 0 0 0 0 0 0 
1 0 0 0 0 0 0 0 0 
0 0 0 0 0 0 0 0 0 
-1 0 0 0 0 0 0 0 0 
0 0 0 -1 0 0 0 0 0 
0 0 0 0 0 0 0 0 0 
0 0 0 0 0 0 0 -1 0 
0 -1 0 0 0 0 0 -1 0 
0 0 0 0 0 0 0 0 0 
0 0 0 0 0 0 0 0 0 
0 0 0 0 0 0 0 0 0 
-1 0 0 1 0 0 0 0 0 
0 0 0 0 0 0 0 0 0 
0 0 0 0 0 0 0 0 0 
0 1 0 0 0 0 0 0 0 
0 0 0 0 0 0 0 0 0 
0 0 0 0 0 0 0 0 0 
1 0 0 0 0 0 0 0 0 
0 0 0 0 0 0 0 0 0 
0 0 0 0 0 0 0 0 0 
0 0 0 0 0 0 0 0 0 
-1 0 0 0 0 0 0 0 0 
0 0 0 0 0 0 0 0 0 
0 0 0 0 0 0 0 0 0 
0 0 0 0 0 0 0 0 0 
0 0 0 0 0 0 0 0 0 
0 0 0 0 0 0 0 0 0 
0 0 0 0 0 0 0 0 0 
0 0 0 0 0 0 0 0 0 
0 0 0 0 0 0 0 0 0 
0 0 0 0 0 0 0 0 0 
0 0 0 0 0 0 0 0 0 
0 0 0 0 0 0 0 0 0 
0 0 0 0 0 0 0 0 0 
0 0 0 0 0 0 0 0 0 
0 0 0 0 0 0 0 0 0 
0 0 0 0 0 0 0 0 0 
0 0 0 0 0 0 0 0 0 
0 0 0 0 0 0 0 0 0 
0 0 0 0 0 0 0 0 0 
0 0 0 0 0 0 0 0 0 
0 0 0 0 0 0 0 0 0 
0 0 0 0 0 0 0 0 0 
0 0 0 0 0 0 0 0 0 
0 0 0 0 0 0 0 0 0 

v 3 282 double
-0.00111015 -0.00864223 0.00382305 0.0106442 -0.00131261 0.00145929 0.00241471 -0.0355213 -0.0196243 
0.00920604 -0.0128867 0.00599534 0.00170662 -0.0100063 -0.00389054 0.00470116 -0.00231499 0.000344652 
0.000113102 -0.00200863 0.000724938 0.0029088 -0.00803756 0.017607 0.00561918 -0.0015005 2.29123e-05 
0.00696004 -0.0106163 -0.00668515 0.00553055 -0.000831198 -0.00688684 0.000572854 -0.00733689 -0.0120682 
0.0050012 0.000340963 -0.00735982 0.0268576 -0.0192781 -0.0595325 0.000190364 -0.00915516 -0.0014646 
0.00669268 -0.0113578 -0.00416252 0.00547564 0.000680991 -3.48222e-05 0.0038886 -0.0143219 0.000912306 
0.00531392 -0.00157274 0.00216871 0.0170918 -0.00570171 4.12936e-06 0.0287737 -0.0190126 0.000363143 
0.0118378 -0.00229708 -0.0212423 0.0177251 0.00657279 -0.00195435 0.00970705 -0.0320689 -0.00672546 
0.000262506 -0.0028868 0.000833204 -0.00567541 -0.00308082 -0.0560843 -0.000768595 0.000619198 -0.0169988 
0.0196659 -0.00945431 0.0111781 0.00913354 -0.00390624 -0.00121907 0.00122308 0.00121608 0.000680328 
0.0154208 -0.00473418 0.00158217 -0.0066262 -0.00934944 -0.000910512 0.00427507 -0.00148938 0.0112688 
0.00665065 -0.000224052 0.0182959 0.00802763 0.00614036 0.00021101 0.00488953 -0.00534661 -0.00214718 
0.00696362 -0.00571066 -0.00123605 -0.00862614 -0.00115072 -0.00504281 -0.00250032 0.00511987 -0.00118281 
-0.0298507 -0.00945825 -0.00814889 -0.0345693 -0.00459647 -0.00114464 -0.0127236 -0.0143688 0.0104955 
0.00094077 -0.00194856 -8.6524e-05 -0.000432098 0.000886418 0.00172211 -0.0112025 0.00272691 0.000717791 
-0.0059908 0.0266812 0.00585771 0.00427857 0.00240013 -0.000120193 -0.0117465 -0.0019368 0.0220025 
-0.0100455 0.00646868 -0.00316369 -0.00306242 0.00867848 0.00433743 -0.0377984 0.0114728 -0.00291648 
-0.00223081 -0.00214631 -0.0136281 -0.0115639 0.0369068 -0.00615153 0.00179495 0.0037269 -0.000813326 
-0.00848664 0.00588648 -0.000804084 0.00209815 -0.00766507 0.00201123 -0.00616576 0.00121929 0.0161926 
-0.00259595 0.00989065 0.00237083 0.0111994 -0.000162097 0.000549781 3.86172e-05 0.00289309 -0.000339943 
0.0288672 0.00916566 -0.0132978 -0.00112093 0.0225175 -0.00207281 0.00104359 -0.00762719 0.000836702 
-0.015933 -0.00035105 0.00150274 -0.016996 0.00406934 -0.00210591 -0.0172682 0.0101568 -3.78375e-05 
-0.0159379 -0.00745104 -0.00702438 -0.0045319 0.00512452 -2.84617e-05 0.00422198 0.00424018 7.17209e-05 
-0.00679859 0.0118788 -0.000248526 0.0113329 0.00975182 0.011903 0.00790091 -0.00426296 0.00590926 
-0.00672429 0.00364664 -0.000113082 -0.00213611 0.00286086 0.000358706 -0.0135397 0.00243987 0.00188796 
0.00683307 0.00308425 0.00406829 0.00282842 -0.00573205 0.00441391 0.00679671 -0.0019222 0.00473076 
-0.000560128 0.00261506 -0.011115 -0.00372658 -0.0109371 0.00398395 -0.00819972 0.0080443 -0.00915744 
0.00685201 -0.00342614 0.000397165 0.00118676 0.0100664 -0.000222305 0.00333005 0.00411904 0.000510739 
-0.00230361 0.00446574 0.000908496 -0.00145709 -0.00826402 -0.00643499 -6.63544e-05 0.00202058 0.00328612 
0.0164187 0.0047192 -0.000119333 0.0120621 -0.00302236 0.00442616 0.000382713 -0.0074949 -0.000129787 
0.00914614 0.00441426 0.0625638 0.00173145 -0.000867204 0.000517495 0.000992085 -0.00604532 -0.00646154 
0.00225866 -4.6492e-05 -0.000687857 -0.00144218 0.000265188 -8.58558e-05 0.00319053 0.00835795 0.000614649 
0.00290312 0.000809724 1.71119e-05 0.00152824 -0.00466986 0.00206056 -0.0155911 -0.00538117 -1.67072e-06 
-0.000612914 -0.00197938 -0.000997511 0.0271971 -0.00286519 -0.0466886 -0.00551796 -0.0119581 0.011611 
0.00137155 0.0112246 -0.00232001 0.00969963 0.00905102 -0.00702832 0.00540078 -0.0183779 0.0122198 
0.0121614 -0.0141144 0.00183136 -0.0238601 0.0152548 -0.0109048 0.0137747 0.0187589 -0.013664 
0.00345941 0.0272131 -0.0298817 0.00538994 -0.00243741 0.000788139 0.00476679 0.0168578 -0.00405988 
0.0689276 0.0506356 -0.0438098 -0.028729 -0.016687 -0.0272849 0.0562869 -0.0201735 0.030797 
0.0396416 0.0156817 -0.0238965 0.0483079 0.0328934 -0.0784042 -0.00957718 -0.0517926 0.00250623 
-0.0448428 -0.0312645 -0.0283833 0.0146569 0.029991 0.00927792 -0.0020305 -0.0161338 0.000203226 
0.0308226 -0.00880287 -0.0138924 0.0179361 -0.00900605 0.0226161 0.0371349 0.0132079 0.0137107 
0.000911306 -0.0367986 0.0235144 -0.013685 -0.0375147 0.00165477 -0.0218361 -0.0105048 -0.0407315 
-0.0267401 0.0255362 0.0184576 0.018112 -0.00560869 0.00506174 -0.00168743 -0.0275064 0.030797 
-0.0277577 -0.00352675 -0.0125025 -0.0447102 -0.0145523 0.00766307 -0.0230743 -0.00799156 0.00221749 
0.00827368 0.0205569 -0.0269864 -0.00827504 -0.000934138 0.0114791 -0.0106591 0.01055 -0.0132389 
-0.0285977 -0.00110571 0.0340735 -0.0263662 -0.0218193 0.0488874 -0.00480859 0.00316689 0.0138486 
-0.0208402 -0.00885661 0.000935287 -0.0334282 0.0176908 0.00997767 -0.00172951 0.0114403 -0.00196841 
0.011503 0.00314811 -0.00231161 0.0274702 0.0150087 -0.0413268 0.00971888 0.0385492 -0.0185944 
0.0162727 0.0178064 -0.00698812 -0.00279966 -0.00815611 -0.0139133 0.00615695 -0.00789617 -0.0159327 
-0.00889476 -0.0195172 -0.0198452 -0.0497281 0.0298329 -0.000206899 -0.0124571 0.00659672 0.0017649 
-0.0189275 -0.0239577 0.0676235 -0.0170051 -0.0283124 0.0143524 0.00787144 -0.0133542 0.00687115 
0.00757731 -0.00244565 0.000256713 -0.0104382 0.0419831 0.00184575 -0.024978 0.0110263 -0.00407512 
-0.0141062 -0.00718212 0.0011008 0.00126534 0.0246193 0.0123047 -0.00183828 -0.0143655 -0.00971041 
0.0102257 0.0021546 0.00696342 -0.00172477 0.0121719 0.000686275 -0.0245315 -0.0294079 -0.00107801 
0.0088394 0.0152833 -0.00327001 -0.00352752 0.0104051 -0.00263671 0.00209241 0.0114857 0.0104395 
0.00930757 0.0133808 -0.0126893 0.00505589 0.00286962 0.014592 -0.0237616 0.0175792 -0.0216343 
0.0216619 0.00085086 -0.00940767 0.00185616 0.00792296 0.00110838 0.0110239 -0.000759267 0.00972767 
0.0160305 -0.0112412 -0.0112883 0.00811866 0.0151748 0.0289747 0.0414996 0.0436267 0.178463 
-0.00624472 0.00686216 -0.00174809 0.00317129 0.0101032 -0.00165302 0.00132884 0.00731035 0.00120822 
-0.00691764 -0.00128156 0.004086 0.00553406 -6.22976e-05 0.00420279 0.00605871 -0.0618762 0.00443974 
-0.00815627 0.00222417 -0.0126349 0.0263014 -0.0162252 -0.0261983 0.0372784 -0.0662864 -0.07803 
0.0210634 -0.0985746 0.0418715 -0.125043 -0.124178 -0.0159563 0.0118874 -0.0538552 -0.139195 
-0.211403 -0.0108922 -0.135492 -0.127553 -0.0848365 -0.073892 0.0247958 -0.0531693 -0.0015308 
-0.0260465 0.0131395 -0.0347493 -0.00844225 0.000690431 -0.0218638 -0.025437 0.0193641 0.00949653 
-0.156313 0.0254918 0.0767529 -0.022651 -0.0133437 0.0219536 0.116118 0.092721 -0.080663 
0.0516446 0.16934 0.0447121 0.183799 0.098197 -0.186301 -0.125307 -0.112637 0.0650977 
0.0843288 -0.00396596 -0.0139638 0.0215107 -0.00225867 -0.0173431 0.0384804 0.019351 -0.0177414 
0.0100175 -0.0168259 -0.010605 -0.00367315 0.020958 0.00308392 0.00461925 0.0373237 0.013665 
-0.0285296 -0.0439291 0.00851555 -0.056835 0.0137992 0.0336033 -0.11157 -0.00467224 0.0691639 
-0.0259297 0.0126249 -0.00756522 0 0 -0.581089 -0.0177361 -0.0100615 -0.0120091 
0.0371083 -0.0141316 0.00118127 0.0066138 -0.00358521 0.0212901 -0.114101 -0.0972402 0.0195236 
0 0 -0.569317 0 0 -0.569121 -0.0832196 0.116921 -0.0278357 
0 0 -0.543223 0 0 -0.553131 0 0 -0.55215 
0 0 -0.534982 0 0 -0.539593 0 0 -0.530077 
0 0 -0.531549 0 0 -0.522327 0 0 -0.500941 
0 0 -0.449047 0 0 -0.415398 0 0 -0.349279 
-0 -0 -0.01 -0 -0 -0.01 -0 -0 -0.01 
-0 -0 -0.01 -0 -0 -0.01 -0 -0 -0.01 
-0 -0 -0.01 -0 -0 -0.01 -0 -0 -0.01 
-0 -0 -0.01 -0 -0 -0.01 -0 -0 -0.01 
-0 -0 -0.01 -0 -0 -0.01 0 0 -0.0325139 
-0 -0 -0.01 -0 -0 -0.01 -0 -0 -0.01 
-0 -0 -0.01 -0 -0 -0.01 -0 -0 -0.01 
-0 -0 -0.01 -0 -0 -0.01 0 0 -0.0564504 
-0 -0 -0.01 -0 -0 -0.01 -0 -0 -0.01 
-0 -0 -0.01 -0 -0 -0.01 -0 -0 -0.01 
-0 -0 -0.01 -0 -0 -0.01 -0 -0 -0.01 
-0 -0 -0.01 -0 -0 -0.01 -0 -0 -0.01 
-0 -0 -0.01 -0 -0 -0.01 -0 -0 -0.01 
-0 -0 -0.01 -0 -0 -0.01 -0 -0 -0.01 
-0 -0 -0.01 -0 -0 -0.01 -0 -0 -0.01 
-0 -0 -0.01 -0 -0 -0.01 -0 -0 -0.01 
-0 -0 -0.01 -0 -0 -0.01 -0 -0 -0.01 
-0 -0 -0.01 -0 -0 -0.01 -0 -0 -0.01 

f 3 282 double
13802.1 -27235.5 -12636.9 7030.92 -9000.7 -10746.2 -7419.25 -881.551 50429 
118728 -155627 74345.5 22084.6 35358 -91651.4 -77.7101 1482.96 -1268.95 
-6899.71 1375.79 -8980.13 42166 97760.2 -301183 818.072 381.051 -351.266 
-44922.3 7530.16 117498 42535.9 -1475.54 13303.9 -7894.83 -97618.9 -15735.5 
9712.66 7928.99 -12232 83771.1 672156 641608 4793.28 7013.48 -12093.1 
0 0 -12841.3 209.366 -67.5252 -4765.89 -24195.4 47354.2 16896.9 
25521.4 5663.09 -12937.4 0.0242486 0.107778 -175.065 -13753.3 -7566.51 -16293.7 
-10393.7 11347.3 -228.492 -11573.3 28054.7 6747.24 -52306.2 254356 565427 
-4476.49 -6503.23 -13448.7 0 0 -12841.3 0 0 -12841.3 
0 0 -12841.3 32928.3 -25503.3 4757.37 -17091.1 -8207.23 601.881 
-533.186 897.64 13143.9 -31187.6 -84506.9 10324.4 0 0 -12841.3 
1594.42 -584.544 -13732 -17274.1 -19556.7 -41383.9 -31923 -20728.7 -12227.5 
-14231 -11983.6 11779.8 0 0 -12841.3 -92147.8 -77551.6 -29884.4 
70689 125678 91465.4 95287 -15220.9 26509.6 -97156.6 23542 428735 
-2838.88 -1556.54 6627.58 -2020.78 -5748.9 -1652.54 31774.4 -95868.3 2539.53 
0 0 -12841.3 -0.256867 -0.0937405 -157.252 0 0 -12841.3 
11607.5 -25215.4 -36185.7 0 0 -12841.3 71042.8 32733.1 326665 
-7553.13 50461.4 20258.3 -44484.4 -69091.9 115787 -11.5667 -9.62677 -5493.3 
-13181 28713.4 19778.7 268.698 -753.97 -12434.1 -47893.3 -63350.6 -48774.3 
0 0 -12841.3 -64625.2 23798.9 42338.7 43581.6 -13231.5 -34135.8 
20266.8 -25547 57596.9 -16834.8 26467.4 -5187.14 4071.09 -5742.96 -4901.41 
1199.57 -4187.51 8321.76 28707 14987.5 71139.3 1778.23 -4544.59 -3081.05 
0 0 -12841.3 12.7396 1.74197 -1069.45 861.296 7465.72 2189.22 
138.057 581.397 -111.394 70103.3 99755.5 -13807.6 -4031 -12654 -123.461 
2429.93 -2876.83 609.729 207.888 834.928 -199.668 -7504.81 26388.7 17080.1 
8441.45 -757.79 -19570.4 8428.51 8818.1 -12233.6 -3875.58 559.59 -14162.9 
0 0 -12841.3 -136.062 -787.646 -11909.1 27237.1 70643.2 -18870.7 
6035.35 62554.1 -9731.56 432.382 469.708 -694.29 2731.11 -1553.7 9079.74 
-351.126 -2118.73 -1.50994 0 0 -12841.3 -11582.5 -46732.6 -33105.5 
-1.02656 -0.303096 -1189.16 0 0 -12841.3 23.9532 -24.3789 3030.43 
0 0 -12841.3 -6.68293 4491.23 7.19973 7197.28 -49427.2 -58487.2 
1094.01 235.326 -2141.88 564.775 407.991 -85.9686 -371.055 -107.651 -7890.4 
-1054.39 -712.392 181.325 12396.7 34812 68021 0.0141381 0.00493764 -11.5432 
3735.34 -13353.8 -7160.12 -1183.66 -180.838 -12536.4 0 0 -12841.3 
1152.34 4142.07 -2654.84 0 0 -12841.3 -18064.1 -89524.9 152493 
-54444.3 556.023 98622.6 0 0 -12841.3 3074.69 -5018.95 -13356.8 
-15484.8 -12880.1 113264 626.147 3172.18 -5521.64 118.112 215.937 -10730.1 
0 0 -12841.3 -44494.2 35729.3 45044.1 -6602.91 -78874 -23398.7 
-1891.03 5199.79 -12630.6 2258.41 470083 1.75493e+06 0 0 -12841.3 
0 0 -12841.3 0 0 -12841.3 35244.2 -66777 -58170.8 
6143.41 619.806 66.7736 -83948.1 -46694.4 65027.2 0 0 -12841.3 
53833.8 26520.4 523949 -32753.8 -59409.8 43573.6 0 0 -12841.3 
0 0 -12841.3 -5605.73 49781.2 18529.2 0 0 -12841.3 
-407.691 4611 -5327.42 23246.2 15285.3 162925 0 0 -12841.3 
39664.5 76549.5 128714 -95032.3 -63313.7 20563.2 96635.1 91445 -15192.7 
0 0 -12841.3 -4932.25 -6750.32 -42781.9 0 0 -12841.3 
8600.11 26024.1 50194.6 98251.5 -77958.1 153021 0 0 -12841.3 
904.84 4350.61 -1543.89 1456.47 815.208 -9627.5 3785.73 1316.41 -12803.5 
65654.9 -62306.8 56783.2 0 0 -12841.3 0 0 -12841.3 
0 0 -12841.3 -43848 -45257.6 157837 11461.7 29567.2 7041.91 
0 0 -12841.3 -1593.88 5707.09 -8764.89 -28858.9 3937.79 -1872.7 
-62017.7 28770.4 -74769.1 0 0 -12841.3 0 0 -12841.3 
-34505.2 37320 -23546 0 0 -12841.3 766.193 479.653 -12017.1 
-1312.98 -2686.28 -16169.7 -1178.47 -2705.77 -3916.71 32.0671 22.29 -12228.6 
-17303 -78124.5 -13759.9 -2163.87 -2017.08 -3912.28 -66010.1 -18121.5 37165.8 
0 0 -12841.3 0 0 -12841.3 0 0 -12841.3 
12485.1 -39152.7 112814 -409.245 1469.46 -6769.75 19730.7 -3704.73 -35132.2 
0 0 -12841.3 0 0 -12841.3 0 0 -12841.3 
-2833.33 1723.71 -1915.32 -7232.76 5069.03 8678.28 912.862 -514.593 -14234.2 
-12488 -72792.2 39695.1 -2072.48 -15619.7 -1295.96 0 0 -12841.3 
20158.4 -10901.2 234481 0 0 -12841.3 0 0 -12841.3 
0 0 -12841.3 0 0 -12841.3 0 0 -12841.3 
0 0 -12841.3 3582.64 227033 387951 0 0 -12841.3 
0 0 -12841.3 -73896.6 64396.2 85145 32753.8 59409.8 -69256.1 
0 0 -12841.3 0 0 -12841.3 0 0 -12841.3 
0 0 -12841.3 0 0 -12841.3 0 0 -12841.3 
0 0 -12841.3 0 0 -12841.3 4932.25 6750.32 17099.3 
0 0 -12841.3 36919.6 -9044.95 26815.4 49870.3 -11742.1 6364.44 
0 0 -12841.3 0 0 -12841.3 0 0 -12841.3 
-1323.55 207.214 -10863.4 0 0 -12841.3 0 0 -12841.3 
0 0 -12841.3 31666.2 50180.1 -16194 0 0 -12841.3 
0 0 -12841.3 0 0 -12841.3 0 0 -12841.3 
0 0 -12841.3 0 0 -12841.3 0 0 -12841.3 
0 0 -12841.3 0 0 -12841.3 0 0 -12841.3 
0 0 -12841.3 0 0 -12841.3 0 0 -12841.3 
0 0 -12841.3 0 0 -12841.3 0 0 -12841.3 
0 0 0 0 0 0 0 0 0 
0 0 0 0 0 0 0 0 0 
0 0 0 0 0 0 0 0 0 
0 0 0 0 0 0 0 0 0 
0 0 0 0 0 0 0 0 -12841.3 
0 0 0 0 0 0 0 0 0 
0 0 0 0 0 0 0 0 0 
0 0 0 0 0 0 0 0 -12841.3 
0 0 0 0 0 0 0 0 0 
0 0 0 0 0 0 0 0 0 
0 0 0 0 0 0 0 0 0 
0 0 0 0 0 0 0 0 0 
0 0 0 0 0 0 0 0 0 
0 0 0 0 0 0 0 0 0 
0 0 0 0 0 0 0 0 0 
0 0 0 0 0 0 0 0 0 
0 0 0 0 0 0 0 0 0 
0 0 0 0 0 0 0 0 0 

radius 1 282 double
500 500 500 500 500 500 500 500 500 
500 500 500 500 500 500 500 500 500 
500 500 500 500 500 500 500 500 500 
500 500 500 500 500 500 500 500 500 
500 500 500 500 500 500 500 500 500 
500 500 500 500 500 500 500 500 500 
500 500 500 500 500 500 500 500 500 
500 500 500 500 500 500 500 500 500 
500 500 500 500 500 500 500 500 500 
500 500 500 500 500 500 500 500 500 
500 500 500 500 500 500 500 500 500 
500 500 500 500 500 500 500 500 500 
500 500 500 500 500 500 500 500 500 
500 500 500 500 500 500 500 500 500 
500 500 500 500 500 500 500 500 500 
500 500 500 500 500 500 500 500 500 
500 500 500 500 500 500 500 500 500 
500 500 500 500 500 500 500 500 500 
500 500 500 500 500 500 500 500 500 
500 500 500 500 500 500 500 500 500 
500 500 500 500 500 500 500 500 500 
500 500 500 500 500 500 500 500 500 
500 500 500 500 500 500 500 500 500 
500 500 500 500 500 500 500 500 500 
500 500 500 500 500 500 500 500 500 
500 500 500 500 500 500 500 500 500 
500 500 500 500 500 500 500 500 500 
500 500 500 500 500 500 500 500 500 
500 500 500 500 500 500 500 500 500 
500 500 500 500 500 500 500 500 500 
500 500 500 500 500 500 500 500 500 
500 500 500 
omega 3 282 double
7.19202e-06 -8.0998e-06 -4.1969e-06 -1.18419e-05 6.88371e-06 -2.26053e-05 -5.66856e-05 -5.05965e-05 1.56676e-05 
1.9133e-05 1.71459e-05 1.84766e-05 1.48457e-05 4.90325e-06 5.6331e-06 4.32041e-06 9.5679e-06 -6.44753e-06 
4.02383e-06 -2.3344e-07 -1.71217e-05 4.43835e-05 -1.84174e-05 -8.1413e-06 3.07574e-06 1.11477e-05 -1.73716e-05 
1.93896e-05 9.76431e-06 2.48129e-05 8.97451e-06 -1.35642e-05 -6.83516e-07 2.09997e-05 1.06472e-06 -1.02352e-05 
1.21266e-06 3.44447e-06 -2.04981e-05 6.50271e-05 4.41155e-05 -4.39321e-05 2.70336e-07 1.63769e-05 1.70858e-06 
1.24086e-05 1.2371e-05 -1.82436e-05 -1.36961e-06 1.09568e-05 6.76097e-06 1.65803e-05 3.94305e-06 3.62078e-05 
2.78748e-06 1.0771e-05 -2.7344e-05 1.14068e-05 3.41938e-05 -5.95817e-06 2.12247e-05 8.0606e-05 -3.57328e-05 
-2.45306e-06 -4.17357e-05 2.02287e-05 -3.19901e-06 4.82898e-06 -2.03194e-07 8.1767e-05 3.15638e-05 7.38305e-05 
5.46727e-06 -5.19225e-06 -5.24725e-06 -0.000118753 4.88374e-05 4.88905e-05 -6.77952e-06 -5.68341e-06 7.72296e-07 
2.49188e-05 4.80388e-05 -4.8556e-05 -9.26857e-06 -8.88915e-06 -1.22268e-05 -2.46512e-06 3.00732e-06 3.20007e-05 
9.32348e-06 3.07723e-05 3.45514e-05 6.69864e-07 -1.09289e-05 2.70845e-05 -1.20982e-07 7.22522e-06 3.56366e-05 
1.67555e-05 3.20822e-05 2.26469e-05 1.71232e-05 4.45352e-06 -4.65471e-06 -1.65634e-05 5.98163e-07 -1.91171e-05 
2.03589e-05 2.86087e-07 1.76606e-05 -5.19662e-06 2.48544e-05 1.08007e-05 -1.76951e-05 4.41175e-06 4.95505e-06 
5.5492e-06 -5.37856e-05 -2.60343e-05 -7.05197e-05 5.51754e-05 6.37358e-05 2.56712e-05 -5.5805e-05 -0.000109735 
3.39704e-06 3.67987e-06 -1.03387e-06 -7.26605e-07 -1.30176e-06 -1.98955e-05 9.71852e-06 8.16427e-06 1.51131e-05 
-6.10274e-05 -1.45914e-06 9.37964e-06 -4.8016e-06 8.55956e-06 -9.37901e-06 1.76119e-08 9.78044e-06 2.0468e-05 
-1.31905e-05 -1.61155e-05 4.10604e-06 -1.89878e-05 -5.80651e-06 -1.92883e-05 -2.68827e-05 -7.97268e-05 -1.5859e-05 
-3.21939e-05 4.57717e-06 3.22937e-05 -8.06615e-05 -1.45569e-05 -6.84676e-05 -7.45537e-06 3.58963e-06 8.07785e-06 
-8.45549e-06 -1.8607e-05 -2.51924e-05 -3.74758e-05 1.39234e-05 -8.24909e-06 -5.22844e-05 1.36364e-07 -3.73139e-06 
-1.9517e-05 3.03683e-05 1.56223e-05 -2.58767e-06 2.19499e-05 -1.65789e-05 -7.83346e-06 -5.86975e-06 1.48491e-05 
8.31333e-05 3.65301e-06 -3.40616e-05 1.22417e-05 7.60271e-06 -9.23209e-06 1.53452e-05 1.92437e-06 9.04856e-06 
7.50821e-07 -3.19667e-05 2.94325e-05 -1.21553e-05 -2.90417e-05 2.29107e-05 -9.51734e-06 -3.03187e-05 1.25955e-05 
-2.09683e-05 -2.66272e-05 -5.46295e-05 -1.02441e-05 -9.06849e-06 5.18048e-05 -9.39289e-06 8.57698e-06 2.1283e-06 
-2.36839e-05 -1.36772e-05 2.3357e-05 -8.96245e-06 5.08476e-05 7.14918e-05 -8.71223e-06 1.2204e-05 -2.38368e-05 
3.29737e-07 -8.59803e-06 -4.87519e-05 -5.29095e-06 -4.22044e-06 2.34737e-06 5.70487e-06 -2.30127e-05 -3.12234e-05 
-5.91925e-06 1.38267e-05 1.43676e-05 -6.81345e-06 -1.87106e-05 -2.27783e-05 8.25591e-06 1.84135e-05 2.70534e-05 
9.74876e-06 -1.84539e-05 -4.69491e-05 2.12908e-05 -7.41757e-06 -2.92321e-05 -7.57725e-06 5.99833e-06 -4.04463e-05 