# vtk DataFile Version 4.0
Generated by LIGGGHTS
ASCII
DATASET POLYDATA
POINTS 1400 float
-4336.81 -4886.73 498.601 -3769.53 -4064.08 498.766 -3313.45 -4954.73 498.701 
-2653.81 -4203.75 499.667 -1605.62 -4279.58 498.623 -364.522 -4453.33 496.175 
632.937 -4519.72 498.887 1613.89 -4726.22 498.743 2612.41 -4772.15 497.812 
3668.35 -4755.03 496.553 4666.57 -4819.16 497.988 -4774.98 -3981.2 498.362 
-4206.54 -3159.71 498.584 -3210.13 -3236.16 497.581 -2213.19 -3306.58 498.285 
-888.262 -3567.22 498.64 165.958 -3606.3 498.664 1164.22 -3673.02 498.628 
2147.42 -3882.4 499.233 3146.84 -3903.68 497.891 3700.54 -3071.86 498.557 
4227.08 -3921.36 497.252 4777.38 -3087.29 498.414 -4619.28 -2192.84 499.271 
-3624.94 -2287.09 498.909 -2628.22 -2356.56 499.131 -1408.46 -2713.35 497.614 
-407.44 -2664.96 499.699 387.506 -2054.35 496.933 1352.92 -2317.78 498.737 
2175.95 -2884.06 498.564 4386.37 -2099.27 497.875 -4686.23 -1117.75 498.488 
-3388.83 -1194.75 498.008 -2389.93 -1176.53 497.374 -1544.37 -1720.14 499.664 
-506.613 -1608.58 498.087 1106.02 -1349.62 497.947 2181.52 -1759.64 498.327 
3417.45 -1854.89 497.4 -4402.34 -159.2 497.885 -3385.26 -191.807 496.781 
-2394.07 -56.1203 499.699 -1529.34 -559.508 496.826 216.485 -887.635 497.795 
1939.58 -789.954 498.836 2920.11 -986.275 498.793 2597.31 -38.2403 498.21 
3598.06 -78.4014 497.699 4070.23 -984.593 498.625 4598.75 -134.254 498.007 
-4866.5 725.658 498.96 -3866.69 684 499.148 -2876.62 820.924 496.704 
-1509.25 438.499 496.963 -551.866 141.943 498.833 511.879 67.0047 499.135 
1624.96 192.137 497.689 3132.25 805.808 498.701 4134.62 764.786 498.64 
-4489.28 1650.39 497.835 -3490.64 1609.39 498.788 -2518.76 1656.7 907.021 
-1636.42 1428.96 497.983 -562.556 1140.98 498.861 5.11916 1963.34 498.448 
440.127 1063.56 499.159 1497.16 1183.41 497.721 2488.78 1591.3 498.771 
3476.92 1743.35 498.448 4512.06 1690.8 497.516 -4953.38 2535.62 497.77 
-3954.87 2494.46 498.614 -2956.45 2453.62 497.3 -1958.61 2373.94 497.036 
-976.902 2179.91 499.063 -291.073 2917.65 498.362 689.248 2691.11 498.175 
1694.72 2198.71 499.6 2953.82 2602.74 498.407 4034.73 2573.11 498.45 
-4417.84 3380.09 498.61 -3419.56 3338.38 498.395 -2363.34 3286.97 497.836 
-1283.74 3131.37 499.687 -605.849 3866.46 498.851 438.331 3658.49 498.908 
1555.74 3188.81 498.261 2580.5 3529.44 499.014 3586.01 3482.58 498.074 
4584.6 3423.28 497.385 -4880.02 4266.96 498.862 -3881.81 4223.56 498.82 
-2190 4909.86 499.558 -2850.08 4159.49 498.212 -1685.63 4046.76 499.072 
-1006.27 4782.11 497.267 57.2363 4620.35 498.219 1042.4 4454.79 497.786 
2042.3 4371.11 498.522 3123.6 4368.9 499.439 4122.43 4330.69 499.61 
-4296.28 -4305.53 1312.5 -3289.83 -4381.22 1315.59 -2339.91 -4419.38 1620.78 
-1531.09 -4894.57 1281.96 -851.81 -4147.22 1310.55 143.873 -4228.91 1323.07 
1309.95 -4233.11 1312.75 2350.65 -4350.18 1363.97 3684.47 -4162 1299.3 
4707.17 -4240.91 1311.53 -4741.41 -3405.22 1314.56 -3728.64 -3483.61 1315.33 
-2731.5 -3553.34 1314.74 -1741.41 -3688.73 1292.66 -349.279 -3281.23 1290.6 
726.274 -3542.82 1752.4 1670.28 -3281.89 1265.97 2659.4 -3411.75 1216.47 
3415.24 -3153.59 1814.67 4260.57 -3346.01 1313.27 -4167.18 -2586.33 1314.82 
-3156.61 -2649.76 1302.84 -2072.76 -2679.25 1264.02 -1233.11 -2949.81 1732.67 
-969.923 -2151.72 1195.01 -5.69304 -2345.57 1365.7 712.316 -2918.32 973.409 
1910.07 -2248.14 1325.93 1164 -2651.76 1852.63 2858.23 -2443.04 1078.01 
3840.35 -2441.26 1259.55 4837.6 -2491.96 1297.95 -4064.05 -1617.48 1099.07 
-4699.86 -1798.47 1847.46 -3420.93 -1146.85 1927.65 -2883.5 -1693.48 1202.1 
-1772.82 -1126.8 1279.18 -1690.93 -1939.54 1851.59 -906.069 -1315.9 1736.13 
885.971 -1845.39 1335.73 19.2233 -1348.12 1360.93 1701.2 -1267.83 1343.49 
2674.55 -1493.08 1324.39 3664.11 -1362.46 1328.72 4651.56 -1423.25 1183.91 
-4910.41 -529.877 1273.9 -3907.33 -638.708 1219.48 -2897.87 -694.242 1208.81 
-2241.55 -99.6853 1667.82 -1301.72 -64.3584 1333.11 -661.878 -736.436 960.392 
818.172 -985.479 1838.05 206.563 -366.084 1349.01 1141.08 -503.142 1025.53 
1193.53 -38.1101 1906.91 2046.46 -195.678 1317.34 3083.5 -400.212 1290.9 
4082.56 -394.297 1311.91 -4204.08 305.339 1360.15 -3089.42 295.062 1316.52 
-2153.98 768.89 1183.32 -1181.51 983.3 1266.63 -342.582 464.462 1420.87 
1028.43 619.63 1174.4 2267.26 760.757 1008.52 2757.15 399.888 1801.36 
3621.99 497.351 1312.64 4627.42 443.151 1312.14 -4006.72 1282.76 1290.53 
-3068.98 1243.95 1629.02 -1678.13 1952 1357.8 -12.0621 1401.97 1323.56 
889.063 1827.82 960.891 1758.69 1529.08 1396.9 3004.2 1357.47 1321.97 
4000.81 1421.6 1311.66 4998.68 1370.69 1308.72 -4469.5 2224.39 1314.75 
-3471.13 2183.08 1315.91 -2566.52 2208.28 1737.73 -1862.51 2959.58 1296.86 
-437.076 2308.81 1329.6 441.641 2173.88 1785.21 1184.66 2693.13 1364.91 
2481.76 2207.97 1284.8 3476.34 2331.43 1304.74 4531.17 2268.71 1310.82 
-4395.15 3955.09 1315.56 -4931.08 3110.8 1313.01 -3930.64 3070.29 1314.03 
-3381.22 3919.99 1309.58 -2904.05 3042.89 1300.94 -2280.27 3893.11 1288.19 
-715.211 3283.69 1324.89 259.765 3066.73 1317.91 734.422 3746.39 1874.72 
1460.3 3888.9 1205.09 2085.32 3123.03 1341.54 3075.37 3245.63 1321.97 
4070.6 3155.33 1308.58 -4855.7 4848.36 1310.79 -3857.37 4797.32 1315.68 
-2794.38 4750.52 1300.58 -1110.13 4200.19 1301.08 -437.927 4943.09 1303.84 
-30.4091 4030.41 1298.38 628.482 4883.17 1299.36 1808.03 4811.69 1363.05 
2581.74 4123.4 1302.57 3146.18 4967.5 1299.9 3613.29 4083.19 1383.85 
4606.49 4000.24 1313.68 4147.13 4922.94 1309.79 -4822.71 -4577.15 2127.26 
-4309.98 -4323.59 2948.49 -3824.87 -4628.14 2131.33 -3037.29 -4018.41 2211.31 
-2269.99 -4497.48 2636.22 -1463.87 -4295.84 2083.61 -873.087 -4283.97 2907.43 
-261.342 -4566.34 2170.77 731.878 -4503.56 2081.15 1759.68 -4563.93 2141.48 
2528.73 -4526.8 2844.21 3043.86 -4179.91 2063.48 3552.02 -4608.82 2891.04 
4165.65 -4483.99 2112.63 4631.33 -4793.77 2937.52 -4277.4 -3737.71 2134.8 
-3395.41 -3086.09 2169.81 -2298.32 -3216.37 2147.95 -1594.93 -3592.27 2777.98 
-670.213 -3654.86 2160 312.469 -3780.71 2631.27 1306.04 -3765.13 2534 
2174.88 -3652.29 2056.12 2927.94 -3383.31 2655.32 3891.11 -3631.27 2550.89 
4859.55 -3825.31 2702.57 4709.23 -3012.99 2140.98 -4337.31 -2751.96 2284.14 
-3611.51 -2121.82 2017.24 -3560.16 -2481.8 2948.77 -2611.5 -2272.96 2048.88 
-1631.94 -2613.74 2583.53 -708.633 -2910.18 2825.21 -627.142 -2190.17 2133.32 
834.158 -2913.53 2756.74 34.047 -2946.63 2159.65 414.524 -2007.24 2206.99 
1787.91 -2537.59 2623.59 2527.52 -2721.44 1977.67 2946.2 -2398.91 2825.02 
3246.1 -2027.33 1947.13 3872.74 -2633.61 2534.35 4931.26 -2223.76 2712.24 
-4185.48 -1655.96 2690.93 -3051.02 -1657.49 2702.47 -2436.14 -1291.38 2005.39 
-1951.9 -1688.13 2783.81 -1045.62 -1269.75 2724.9 -120.675 -1172.38 2333.73 
749.874 -1156.33 2818.88 1375.47 -1732.36 2199.41 2368.07 -1722.89 2314.57 
3232.04 -1210.01 2521.7 4912.39 -1226.48 2668.7 4319.33 -1936.89 1975.48 
4008.92 -1714.06 2898.47 -4373.42 -865.598 2072.24 -4336.2 -28.5391 2690.96 
-3591.42 -169.583 2041.56 -3703.33 -789.785 2815.23 -2735.66 -460.217 2470.28 
-1535.29 -642.664 2119.26 -1006.77 -203.411 2843.64 -586.935 -375.271 1954.78 
327.532 -276.855 2342.68 1594.49 -785.481 2433.92 2494.58 -782.094 2001.19 
3410.69 -272.106 2224.55 4116.67 -970.958 2125.28 4829.29 -276.471 2203.4 
-4785.32 640.173 2100.37 -3800.33 802.056 2146.86 -2783.56 510.836 2242.99 
-1897.83 175.764 2563.9 -1056.01 490.782 2126.19 -238.875 542.029 2697.43 
455.883 654.603 1990.62 1358.42 359.394 2807.14 1831.27 727.017 1988.51 
2259.78 3.1968 2570.49 2190.59 946.224 2895.34 3094.89 525.687 2736.74 
4122.18 427.527 2172.75 -4463.6 1622.16 2112.44 -3507.33 1876.55 2266.65 
-2625.45 1464.53 2495.24 -1798.39 1153.19 2032.85 -1183.85 1200.04 2819.23 
-939.376 1657.89 1961.15 -26.5306 1470.02 2319.26 650.354 1053.21 2923.17 
1052.94 1448.54 2098.91 1595.54 1752.35 2881.73 2440.75 1536.14 2127.98 
3521.2 1226.2 2166.06 4513.62 1346.44 2181.19 -4140.08 2518.42 2698.52 
-4960.07 2531.81 2128.2 -3410.15 2929.75 2154.36 -2784.98 2417.98 2741.73 
-1159.84 2633.59 1938.29 -1841.02 2077.19 2410.82 -1600.97 2982.92 2763.63 
-599.812 2196.48 2728.89 -248.55 2970.67 2173.11 926.531 2870.56 2313.35 
641.671 2042.67 2792.48 1778.55 2281.44 2054.39 2646.35 2774.95 2089.91 
3120.62 2077.67 2622.97 3991.16 2195.4 2147.77 4125.59 2776.72 2946.44 
-4420.9 3372.73 2130.06 -4921.68 3998.07 2769.17 -3838.94 3912.08 2734.52 
-2981.2 3887.24 2224.04 -2372.94 3100.08 2143.09 -1524.64 3599.35 1981.46 
-586.775 3909.98 2117.66 192.794 3729.36 2713.03 1853.41 3124.95 2585.42 
1956.7 3973.31 2068.08 1183.98 3845 2762.13 2982.5 3906.52 2191.68 
2948.37 3205 2939.22 3583.53 3108.11 2176.68 3905.63 3916.09 2668.65 
4579.61 3418.67 2126.57 -4369.1 4531.92 2131.24 -2965.82 4884.47 2275.15 
-2060.08 4598.19 1961.84 -1533.54 4205.23 2772.84 -1034.59 4803.09 2093.15 
-468.217 4568.86 2879.44 187.121 4542.58 2127.75 1183.81 4605.99 2114.53 
1881.67 4713.3 2820.57 2523.5 4796.47 2060.67 2959.96 4576.1 2932.9 
3578.89 4710.07 2160.71 4600.53 4606.98 2139.8 -4921.99 -4390.23 3733.96 
-3034.3 -4467.82 3277.93 -2153.04 -4234.75 3686.68 -1579.51 -4909.67 3229.31 
-701.583 -4920.09 3704.16 46.8765 -4609.16 3120.48 697.308 -4644.6 3878.01 
1137.06 -4640.97 2982.22 1909.51 -4674.08 3613.42 4189.78 -4035.27 3413.34 
-4459.35 -3242.22 3143.99 -3963.38 -3996.84 3827.44 -3567.01 -3656.24 2975.18 
-3137.7 -3066.27 3656.85 -2569.45 -3623.38 3017.53 -1232.29 -3776.32 3689.73 
-267.412 -3696.1 3440.95 893.059 -3736.67 3443.99 2099.8 -3672.39 3132.18 
2660.62 -3090.18 3718.85 3059.75 -3975.64 3486.29 3589.87 -3124.58 3357.45 
4570.58 -3012.78 3207.28 -4397.58 -2269.17 3451.71 -2548.52 -2626.1 2980.75 
-1753.39 -2941.45 3517.61 -1109.39 -2108.29 3267.38 -803.515 -2882.72 3818.37 
106.937 -2770.41 3424.83 793.141 -2051.64 3260.87 1509.41 -2950.6 3489.75 
2207.4 -2234.88 3477.32 3770.83 -2214.79 3730.17 -3626.41 -1505.52 3504.37 
-2571.47 -1821.73 3571.92 -1671.96 -1406.09 3700.43 -164.411 -1900.3 3016.16 
[...]
POINT_DATA 1400
FIELD FieldData 7
id 1 1400 int
72 12 38 94 7 11 80 109 30 
100 48 107 102 124 89 79 97 81 
90 82 51 91 49 36 60 78 18 
16 28 26 31 14 27 98 15 45 
104 96 22 87 54 37 59 19 1 
2 4 108 43 29 84 33 92 21 
88 42 55 66 46 77 73 20 69 
110 131 13 40 53 23 35 105 52 
8 119 61 25 34 58 6 85 47 
63 57 32 75 65 93 39 83 67 
41 10 9 17 113 3 56 50 24 
166 44 5 164 139 185 103 194 95 
125 135 86 150 137 223 193 133 149 
202 161 99 274 147 168 128 163 132 
157 179 148 155 186 145 278 281 101 
156 181 141 134 212 187 225 165 136 
195 170 62 159 123 142 224 70 121 
172 152 115 197 130 140 160 171 126 
209 153 217 177 112 316 158 118 127 
207 169 154 111 191 143 114 151 129 
175 198 76 167 189 200 116 192 214 
219 196 210 221 146 182 144 74 216 
64 117 68 228 206 138 120 71 122 
183 162 201 178 180 208 215 106 248 
427 242 276 232 273 378 262 289 337 
293 258 386 266 406 239 322 229 307 
275 312 309 245 292 320 327 330 350 
299 412 259 240 301 254 329 190 227 
317 267 356 282 304 305 368 285 268 
314 310 233 354 264 296 375 315 256 
376 204 298 211 323 231 252 283 213 
257 370 324 374 270 297 243 265 234 
253 235 308 271 381 288 302 380 365 
263 230 261 269 218 357 236 255 367 
244 321 250 174 226 294 173 246 355 
279 272 331 290 260 333 372 251 205 
295 222 379 277 352 349 326 237 184 
280 311 332 238 306 247 377 241 335 
334 176 300 249 286 199 363 188 319 
318 203 360 291 220 457 396 397 366 
408 328 417 369 418 402 419 456 437 
422 340 477 423 500 338 494 450 475 
436 488 343 444 345 439 441 429 390 
503 474 428 413 447 336 409 476 443 
467 432 508 445 348 459 416 391 405 
385 325 347 424 341 388 415 344 481 
451 382 400 303 339 435 362 426 440 
364 389 504 287 358 313 498 392 438 
433 425 442 469 403 284 414 399 463 
398 411 353 401 387 478 346 410 361 
393 502 452 509 394 373 404 395 384 
420 454 351 421 448 434 430 342 505 
468 371 359 383 446 473 431 449 610 
520 560 528 499 589 548 485 555 546 
562 529 598 541 532 479 566 583 501 
516 507 558 530 482 613 658 547 524 
491 614 483 618 466 565 616 471 554 
579 556 571 577 487 620 493 537 511 
495 513 553 551 574 522 563 535 518 
552 533 407 526 640 573 496 557 461 
521 489 621 455 593 512 612 490 617 
531 464 543 462 492 525 536 484 564 
465 581 568 586 519 460 602 470 559 
545 534 453 538 514 599 550 609 458 
549 544 480 517 539 510 515 506 527 
486 542 608 497 605 540 523 472 569 
561 597 669 641 572 728 713 653 601 
631 664 720 578 642 700 736 643 590 
666 672 575 694 716 587 659 677 710 
650 741 673 714 585 757 707 709 651 
680 647 652 701 726 596 781 594 638 
630 668 679 667 663 692 646 731 718 
654 693 730 688 607 629 592 682 576 
633 724 622 687 698 674 722 603 567 
656 595 635 645 634 655 678 628 619 
580 611 661 695 648 591 588 644 662 
584 649 624 717 675 729 657 615 665 
704 600 637 676 684 625 582 725 627 
626 639 708 670 702 696 660 604 706 
775 570 711 632 782 636 671 699 623 
734 606 773 780 804 747 776 889 783 
831 764 813 862 840 762 878 744 833 
828 836 752 765 834 793 816 877 733 
763 880 797 761 841 805 799 792 740 
789 860 690 823 790 811 817 772 750 
778 870 838 691 771 795 846 760 786 
835 742 779 715 768 737 802 751 721 
774 697 854 703 801 766 723 683 739 
784 807 770 681 753 759 787 819 719 
754 829 686 850 822 844 738 746 748 
812 689 788 712 755 727 685 826 791 
749 745 843 756 853 809 798 732 769 
803 814 743 837 785 825 824 808 767 
810 876 842 735 890 777 806 758 705 
818 861 899 927 863 910 895 883 932 
946 912 928 884 956 872 1004 923 888 
945 994 868 980 830 913 864 920 999 
998 935 942 953 921 852 885 869 902 
898 949 796 917 926 919 851 1011 886 
896 820 866 952 904 925 849 986 858 
996 874 944 839 894 907 845 827 918 
1009 951 1002 933 915 832 901 914 800 
892 893 873 881 897 950 857 930 848 
887 948 989 929 943 882 1008 906 922 
905 875 815 855 938 937 821 908 867 
1006 916 900 941 879 856 903 891 911 
1001 847 934 940 859 947 794 955 982 
871 924 939 936 865 1013 1113 958 1042 
1099 1104 972 960 1044 1023 973 1047 1112 
961 1108 981 1066 1079 1032 1072 1111 990 
1017 1022 1034 997 1055 965 1075 1027 1087 
1118 1058 1037 975 1068 1053 1061 1041 964 
1121 985 1012 1015 966 971 1019 1028 1120 
909 1043 983 1040 957 1067 1085 1035 1059 
992 976 979 1109 1010 1048 1030 1063 1000 
969 1049 1038 1052 1076 974 1070 1106 1026 
1051 1003 1100 1014 1050 977 1081 1005 968 
1036 978 1031 959 1029 1062 987 967 1039 
1046 1060 954 1018 1056 963 1007 1065 1021 
1110 1033 1115 988 1064 931 1105 1020 995 
962 970 1119 984 993 1094 1045 1054 1024 
1107 991 1213 1078 1173 1220 1132 1095 1196 
1165 1159 1139 1134 1101 1216 1102 1162 1167 
1160 1093 1178 1164 1145 1260 1193 1143 1207 
1096 1117 1137 1127 1203 1122 1168 1170 1128 
1082 1201 1169 1192 1185 1206 1155 1228 1176 
1083 1187 1227 1144 1152 1211 1157 1098 1172 
1025 1129 1171 1124 1140 1147 1103 1195 1222 
1071 1135 1069 1154 1130 1217 1084 1074 1158 
1221 1153 1080 1146 1226 1092 1097 1057 1136 
1131 1156 1149 1202 1090 1184 1142 1123 1163 
1016 1166 1205 1089 1150 1161 1116 1073 1138 
1125 1218 1086 1214 1191 1077 1091 1175 1180 
1148 1133 1209 1151 1114 1231 1141 1126 1088 
1198 1174 1210 1245 1256 1297 1251 1317 1277 
1323 1223 1325 1200 1319 1255 1328 1265 1318 
1329 1194 1264 1250 1294 1296 1252 1320 1279 
1304 1282 1197 1275 1238 1240 1234 1268 1270 
1230 1326 1261 1335 1208 1288 1316 1263 1215 
1324 1302 1241 1219 1181 1342 1242 1322 1225 
1257 1343 1272 1246 1394 1314 1258 1344 1179 
1254 1259 1188 1281 1190 1305 1212 1327 1183 
1287 1341 1309 1186 1244 1249 1182 1232 1332 
1243 1247 1283 1285 1278 1321 1177 1266 1204 
1312 1298 1336 1229 1286 1248 1189 1330 1280 
1340 1290 1267 1239 1237 1253 1269 1374 1236 
1271 1262 1276 1224 1333 1284 1274 1235 1273 
1331 1338 1233 1300 1199 1339 1307 1372 1390 
1367 1365 1352 1389 1368 1361 1310 1345 1346 
1384 1377 1396 1358 1364 1397 1295 1299 1337 
1383 1347 1351 1292 1391 1360 1315 1308 1366 
1395 1301 1354 1289 1373 1379 1311 1350 1303 
1357 1356 1387 1362 1399 1291 1380 1306 1363 
1376 1388 1370 1369 1398 1348 1293 1381 1334 
1349 1378 1392 1382 1385 1359 1386 1353 1371 
1400 1375 1313 1393 1355 
type 1 1400 int
1 1 1 1 1 1 1 1 1 
1 1 1 1 1 1 1 1 1 
1 1 1 1 1 1 1 1 1 
1 1 1 1 1 1 1 1 1 
1 1 1 1 1 1 1 1 1 
1 1 1 1 1 1 1 1 1 
1 1 1 1 1 1 1 1 1 
1 1 1 1 1 1 1 1 1 
1 1 1 1 1 1 1 1 1 
1 1 1 1 1 1 1 1 1 
1 1 1 1 1 1 1 1 1 
1 1 1 1 1 1 1 1 1 
1 1 1 1 1 1 1 1 1 
1 1 1 1 1 1 1 1 1 
1 1 1 1 1 1 1 1 1 
1 1 1 1 1 1 1 1 1 
1 1 1 1 1 1 1 1 1 
1 1 1 1 1 1 1 1 1 
1 1 1 1 1 1 1 1 1 
1 1 1 1 1 1 1 1 1 
1 1 1 1 1 1 1 1 1 
1 1 1 1 1 1 1 1 1 
1 1 1 1 1 1 1 1 1 
1 1 1 1 1 1 1 1 1 
1 1 1 1 1 1 1 1 1 
1 1 1 1 1 1 1 1 1 
1 1 1 1 1 1 1 1 1 
1 1 1 1 1 1 1 1 1 
1 1 1 1 1 1 1 1 1 
1 1 1 1 1 1 1 1 1 
1 1 1 1 1 1 1 1 1 
1 1 1 1 1 1 1 1 1 
1 1 1 1 1 1 1 1 1 
1 1 1 1 1 1 1 1 1 
1 1 1 1 1 1 1 1 1 
1 1 1 1 1 1 1 1 1 
1 1 1 1 1 1 1 1 1 
1 1 1 1 1 1 1 1 1 
1 1 1 1 1 1 1 1 1 
1 1 1 1 1 1 1 1 1 
1 1 1 1 1 1 1 1 1 
1 1 1 1 1 1 1 1 1 
1 1 1 1 1 1 1 1 1 
1 1 1 1 1 1 1 1 1 
1 1 1 1 1 1 1 1 1 
1 1 1 1 1 1 1 1 1 
1 1 1 1 1 1 1 1 1 
1 1 1 1 1 1 1 1 1 
1 1 1 1 1 1 1 1 1 
1 1 1 1 1 1 1 1 1 
1 1 1 1 1 1 1 1 1 
1 1 1 1 1 1 1 1 1 
1 1 1 1 1 1 1 1 1 
1 1 1 1 1 1 1 1 1 
1 1 1 1 1 1 1 1 1 
1 1 1 1 1 1 1 1 1 
1 1 1 1 1 1 1 1 1 
1 1 1 1 1 1 1 1 1 
1 1 1 1 1 1 1 1 1 
1 1 1 1 1 1 1 1 1 
1 1 1 1 1 1 1 1 1 
1 1 1 1 1 1 1 1 1 
1 1 1 1 1 1 1 1 1 
1 1 1 1 1 1 1 1 1 
1 1 1 1 1 1 1 1 1 
1 1 1 1 1 1 1 1 1 
1 1 1 1 1 1 1 1 1 
1 1 1 1 1 1 1 1 1 
1 1 1 1 1 1 1 1 1 
1 1 1 1 1 1 1 1 1 
1 1 1 1 1 1 1 1 1 
1 1 1 1 1 1 1 1 1 
1 1 1 1 1 1 1 1 1 
1 1 1 1 1 1 1 1 1 
1 1 1 1 1 1 1 1 1 
1 1 1 1 1 1 1 1 1 
1 1 1 1 1 1 1 1 1 
1 1 1 1 1 1 1 1 1 
1 1 1 1 1 1 1 1 1 
1 1 1 1 1 1 1 1 1 
1 1 1 1 1 1 1 1 1 
1 1 1 1 1 1 1 1 1 
1 1 1 1 1 1 1 1 1 
1 1 1 1 1 1 1 1 1 
1 1 1 1 1 1 1 1 1 
1 1 1 1 1 1 1 1 1 
1 1 1 1 1 1 1 1 1 
1 1 1 1 1 1 1 1 1 
1 1 1 1 1 1 1 1 1 
1 1 1 1 1 1 1 1 1 
1 1 1 1 1 1 1 1 1 
1 1 1 1 1 1 1 1 1 
1 1 1 1 1 1 1 1 1 
1 1 1 1 1 1 1 1 1 
1 1 1 1 1 1 1 1 1 
1 1 1 1 1 1 1 1 1 
1 1 1 1 1 1 1 1 1 
1 1 1 1 1 1 1 1 1 
1 1 1 1 1 1 1 1 1 
1 1 1 1 1 1 1 1 1 
1 1 1 1 1 1 1 1 1 
1 1 1 1 1 1 1 1 1 
1 1 1 1 1 1 1 1 1 
1 1 1 1 1 1 1 1 1 
1 1 1 1 1 1 1 1 1 
1 1 1 1 1 1 1 1 1 
1 1 1 1 1 1 1 1 1 
1 1 1 1 1 1 1 1 1 
1 1 1 1 1 1 1 1 1 
1 1 1 1 1 1 1 1 1 
1 1 1 1 1 1 1 1 1 
1 1 1 1 1 1 1 1 1 
1 1 1 1 1 1 1 1 1 
1 1 1 1 1 1 1 1 1 
1 1 1 1 1 1 1 1 1 
1 1 1 1 1 1 1 1 1 
1 1 1 1 1 1 1 1 1 
1 1 1 1 1 1 1 1 1 
1 1 1 1 1 1 1 1 1 
1 1 1 1 1 1 1 1 1 
1 1 1 1 1 1 1 1 1 
1 1 1 1 1 1 1 1 1 
1 1 1 1 1 1 1 1 1 
1 1 1 1 1 1 1 1 1 
1 1 1 1 1 1 1 1 1 
1 1 1 1 1 1 1 1 1 
1 1 1 1 1 1 1 1 1 
1 1 1 1 1 1 1 1 1 
1 1 1 1 1 1 1 1 1 
1 1 1 1 1 1 1 1 1 
1 1 1 1 1 1 1 1 1 
1 1 1 1 1 1 1 1 1 
1 1 1 1 1 1 1 1 1 
1 1 1 1 1 1 1 1 1 
1 1 1 1 1 1 1 1 1 
1 1 1 1 1 1 1 1 1 
1 1 1 1 1 1 1 1 1 
1 1 1 1 1 1 1 1 1 
1 1 1 1 1 1 1 1 1 
1 1 1 1 1 1 1 1 1 
1 1 1 1 1 1 1 1 1 
1 1 1 1 1 1 1 1 1 
1 1 1 1 1 1 1 1 1 
1 1 1 1 1 1 1 1 1 
1 1 1 1 1 1 1 1 1 
1 1 1 1 1 1 1 1 1 
1 1 1 1 1 1 1 1 1 
1 1 1 1 1 1 1 1 1 
1 1 1 1 1 1 1 1 1 
1 1 1 1 1 1 1 1 1 
1 1 1 1 1 1 1 1 1 
1 1 1 1 1 1 1 1 1 
1 1 1 1 1 1 1 1 1 
1 1 1 1 1 1 1 1 1 
1 1 1 1 1 1 1 1 1 
1 1 1 1 1 
i 3 1400 int
0 1 0 0 0 0 1 1 0 
0 1 0 0 0 0 0 0 0 
0 1 0 0 0 0 0 1 0 
0 0 0 -1 0 0 0 0 0 
0 0 0 0 0 0 0 0 0 
0 0 0 0 0 0 0 1 0 
0 0 0 0 0 0 0 0 0 
0 0 0 -1 0 0 1 1 0 
0 0 0 0 0 0 0 0 0 
0 0 0 0 0 0 0 0 0 
0 0 0 0 0 0 0 0 0 
0 0 0 0 0 0 0 0 0 
0 0 0 0 0 0 0 0 0 
-1 0 0 0 0 0 0 0 0 
0 0 0 0 0 0 0 0 0 
0 0 0 0 0 0 0 0 0 
0 0 0 0 0 0 0 0 0 
0 0 0 0 0 0 0 0 0 
0 0 0 0 0 0 0 0 0 
0 0 0 0 0 0 0 0 0 
0 -1 0 1 -1 0 0 0 0 
0 0 0 0 0 0 0 0 0 
0 0 0 0 0 0 0 0 0 
0 0 0 -1 0 0 0 0 0 
0 0 0 0 0 0 0 0 0 
0 0 0 0 0 0 0 0 0 
0 0 0 0 0 0 0 0 0 
1 -1 0 0 0 0 0 0 0 
0 0 0 0 -1 0 0 0 0 
0 0 0 0 0 0 0 0 0 
0 0 0 1 0 0 0 0 0 
0 -1 0 0 -1 0 0 -1 0 
0 -1 0 0 -1 0 0 -1 0 
0 0 0 0 0 0 0 0 0 
1 0 0 0 1 0 0 0 0 
0 0 0 0 0 0 0 0 0 
0 0 0 0 1 0 0 0 0 
0 1 0 1 0 0 0 1 0 
0 0 0 0 0 0 0 0 0 
0 0 0 0 0 0 -1 1 0 
0 0 0 0 1 0 0 0 0 
0 0 0 0 0 0 0 1 0 
0 0 0 0 0 0 0 0 0 
0 0 0 0 0 0 0 0 0 
0 0 0 -1 0 0 0 0 0 
0 0 0 0 0 0 0 1 0 
0 0 0 0 0 0 0 0 0 
0 0 0 0 0 0 0 0 0 
0 0 0 -1 0 0 -1 0 0 
1 0 0 1 0 0 0 0 0 
0 0 0 0 0 0 0 0 0 
0 0 0 0 0 0 0 0 0 
0 0 0 0 0 0 -1 0 0 
0 0 0 0 0 0 0 0 0 
0 0 0 0 0 0 0 0 0 
0 0 0 -1 0 0 0 0 0 
0 0 0 0 0 0 0 0 0 
0 0 0 0 0 0 0 0 0 
-1 0 0 0 0 0 0 0 0 
0 0 0 -1 0 0 1 0 0 
0 0 0 0 0 0 0 0 0 
0 0 0 0 0 0 0 0 0 
0 0 0 0 0 0 -1 0 0 
0 0 0 0 0 0 0 -1 0 
0 0 0 0 -1 0 0 0 0 
0 0 0 0 -1 0 0 0 0 
0 0 0 0 0 0 0 0 0 
0 0 0 1 -1 0 0 0 0 
0 0 0 0 0 0 0 0 0 
0 0 0 0 -1 0 0 0 0 
0 0 0 0 0 0 -1 0 0 
0 0 0 -1 0 0 1 0 0 
0 1 0 0 0 0 0 0 0 
0 1 0 0 0 0 0 0 0 
0 0 0 0 0 0 0 0 0 
0 0 0 0 0 0 0 0 0 
0 0 0 0 1 0 0 0 0 
0 1 0 0 0 0 0 0 0 
0 0 0 0 1 0 0 0 0 
0 0 0 0 0 0 0 0 0 
0 0 0 0 0 0 0 0 0 
0 0 0 0 0 0 0 0 0 
0 0 0 0 0 0 0 0 0 
0 0 0 0 0 0 0 0 0 
0 0 0 0 0 0 0 0 0 
0 0 0 -1 0 0 0 0 0 
0 0 0 0 0 0 0 0 0 
0 0 0 0 0 0 0 0 0 
0 0 0 0 0 0 0 0 0 
-1 0 0 -1 0 0 0 0 0 
0 0 0 1 0 0 0 0 0 
1 0 0 0 0 0 1 0 0 
0 0 0 0 0 0 0 0 0 
0 0 0 0 0 0 0 0 0 
0 0 0 0 0 0 0 0 0 
1 0 0 1 0 0 0 0 0 
0 0 0 0 0 0 0 0 0 
0 0 0 0 0 0 0 0 0 
0 0 0 0 0 0 0 0 0 
0 0 0 0 0 0 0 0 0 
1 0 0 0 0 0 0 0 0 
0 0 0 0 0 0 0 0 0 
0 0 0 0 0 0 0 0 0 
0 0 0 0 0 0 0 0 0 
1 0 0 0 0 0 0 0 0 
0 0 0 0 0 0 0 -1 0 
0 0 0 0 0 0 0 0 0 
0 0 0 0 0 0 0 0 0 
0 0 0 -1 0 0 -1 0 0 
0 0 0 1 0 0 0 0 0 
0 0 0 0 0 0 0 0 0 
0 0 0 0 0 0 0 0 0 
0 0 0 0 0 0 0 0 0 
0 0 0 0 0 0 0 0 0 
0 0 0 0 -1 0 0 0 0 
0 0 0 0 0 0 0 -1 0 
0 0 0 0 0 0 0 -1 0 
0 0 0 0 -1 0 0 0 0 
0 0 0 -1 -1 0 1 0 0 
0 0 0 0 0 0 0 0 0 
0 1 0 0 1 0 0 0 0 
0 1 0 0 0 0 -1 1 0 
0 0 0 0 0 0 0 0 0 
0 0 0 0 0 0 0 0 0 
0 0 0 0 0 0 0 0 0 
0 0 0 0 0 0 0 0 0 
0 0 0 0 0 0 0 0 0 
0 1 0 0 0 0 0 0 0 
0 0 0 0 0 0 0 0 0 
0 0 0 0 0 0 0 0 0 
0 0 0 0 0 0 0 0 0 
0 0 0 0 0 0 0 0 0 
0 0 0 0 0 0 0 0 0 
-1 0 0 0 0 0 0 0 0 
0 0 0 0 0 0 0 0 0 
0 0 0 0 0 0 0 0 0 
0 0 0 0 0 0 0 0 0 
0 0 0 0 0 0 -1 0 0 
0 0 0 0 0 0 0 0 0 
0 0 0 0 0 0 0 0 0 
0 0 0 0 0 0 0 0 0 
0 0 0 -1 0 0 0 0 0 
-1 0 0 0 0 0 0 0 0 
0 0 0 1 0 0 0 0 0 
0 0 0 0 0 0 0 0 0 
0 0 0 0 0 0 0 0 0 
0 0 0 0 0 0 0 0 0 
0 0 0 0 0 0 0 0 0 
0 0 0 0 0 0 0 0 0 
0 0 0 0 0 0 0 0 0 
-1 0 0 0 0 0 1 0 0 
0 0 0 0 -1 0 0 0 0 
0 0 0 0 0 0 0 -1 0 
0 0 0 0 0 0 0 0 0 
0 0 0 0 0 0 0 0 0 
1 0 0 1 -1 0 0 0 0 
0 0 0 0 -1 0 0 0 0 
0 0 0 0 0 0 0 0 0 
0 -1 0 0 -1 0 0 0 0 
0 0 0 0 0 0 0 0 0 
0 1 0 0 0 0 0 0 0 
0 0 0 0 0 0 0 0 0 
0 1 0 0 0 0 0 0 0 
0 0 0 0 0 0 0 0 0 
0 0 0 0 0 0 0 0 0 
0 0 0 0 1 0 0 0 0 
0 0 0 0 0 0 0 0 0 
0 0 0 1 0 0 0 0 0 
0 0 0 0 0 0 0 0 0 
0 0 0 0 0 0 0 0 0 
0 0 0 0 0 0 0 0 0 
0 0 0 -1 0 0 0 0 0 
0 0 0 0 0 0 0 0 0 
0 0 0 0 0 0 0 0 0 
0 0 0 0 0 0 0 0 0 
-1 0 0 0 0 0 0 0 0 
0 0 0 0 0 0 0 0 0 
0 0 0 0 0 0 0 0 0 
0 0 0 0 0 0 0 0 0 
0 0 0 0 0 0 0 0 0 
0 0 0 0 0 0 0 0 0 
0 0 0 0 0 0 0 0 0 
-1 0 0 1 0 0 0 0 0 
0 0 0 0 0 0 0 0 0 
0 0 0 0 0 0 0 0 0 
0 0 0 0 0 0 0 0 0 
0 0 0 0 0 0 0 0 0 
0 0 0 0 0 0 0 0 0 
0 0 0 0 0 0 0 0 0 
0 0 0 0 0 0 0 0 0 
0 0 0 0 0 0 0 0 0 
0 0 0 0 0 0 0 0 0 
0 0 0 0 0 0 0 0 0 
0 0 0 0 0 0 0 0 0 
0 0 0 0 0 0 1 0 0 
0 0 0 0 0 0 0 0 0 
1 0 0 0 -1 0 0 -1 0 
0 0 0 0 0 0 0 0 0 
0 -1 0 0 -1 0 1 0 0 
0 0 0 0 0 0 0 0 0 
0 0 0 0 0 0 0 0 0 
0 1 0 0 0 0 0 0 0 
0 0 0 -1 0 0 0 0 0 
0 0 0 0 0 0 0 0 0 
0 1 0 0 0 0 0 0 0 
0 0 0 0 0 0 0 0 0 
0 0 0 0 0 0 0 0 0 
-1 0 0 1 0 0 0 0 0 
0 0 0 0 0 0 0 0 0 
0 0 0 0 0 0 0 0 0 
0 0 0 0 0 0 0 0 0 
0 0 0 0 0 0 1 0 0 
0 0 0 0 0 0 0 0 0 
0 0 0 0 0 0 0 0 0 
0 0 0 0 0 0 0 0 0 
0 0 0 0 0 0 -1 0 0 
0 0 0 1 0 0 1 0 0 
0 0 0 0 0 0 0 0 0 
0 0 0 0 0 0 0 0 0 
0 0 0 0 0 0 0 0 0 
0 0 0 1 0 0 0 0 0 
0 0 0 0 0 0 0 0 0 
0 0 0 0 0 0 0 0 0 
0 0 0 0 0 0 0 0 0 
0 0 0 0 0 0 0 0 0 
0 0 0 0 0 0 0 0 0 
0 0 0 0 0 0 0 0 0 
0 0 0 0 0 0 0 0 0 
0 0 0 0 0 0 0 0 0 
0 0 0 0 0 0 0 0 0 
0 0 0 0 0 0 0 0 0 
0 0 0 0 0 0 0 0 0 
-1 0 0 0 0 0 0 0 0 
0 0 0 0 0 0 0 0 0 
0 0 0 0 0 0 0 0 0 
0 0 0 0 0 0 0 -1 0 
0 0 0 1 0 0 0 0 0 
0 0 0 0 0 0 0 -1 0 
0 -1 0 0 0 0 0 0 0 
0 0 0 0 0 0 0 -1 0 
0 0 0 -1 0 0 0 0 0 
1 0 0 0 0 0 0 0 0 
0 0 0 0 0 0 0 0 0 
0 1 0 0 0 0 0 0 0 
0 0 0 0 0 0 0 0 0 
-1 1 0 1 0 0 0 0 0 
0 0 0 0 0 0 0 0 0 
0 0 0 0 0 0 0 0 0 
0 0 0 0 0 0 0 0 0 
0 0 0 0 0 0 0 0 0 
0 0 0 0 0 0 0 0 0 
0 0 0 0 0 0 0 0 0 
0 0 0 0 0 0 0 0 0 
0 0 0 -1 0 0 0 0 0 
0 0 0 0 0 0 0 0 0 
0 0 0 0 0 0 0 0 0 
0 0 0 0 0 0 0 0 0 
0 0 0 0 0 0 0 0 0 
0 0 0 0 0 0 0 0 0 
0 0 0 0 0 0 0 0 0 
0 0 0 0 0 0 0 0 0 
0 0 0 0 0 0 0 0 0 
0 0 0 0 0 0 0 0 0 
0 0 0 0 0 0 0 0 0 
0 0 0 0 0 0 0 0 0 
0 0 0 1 0 0 0 0 0 
0 0 0 0 0 0 0 0 0 
0 0 0 0 0 0 0 0 0 
0 0 0 0 0 0 0 0 0 
0 0 0 1 0 0 0 0 0 
0 0 0 0 0 0 0 0 0 
0 0 0 0 0 0 0 0 0 
0 0 0 0 0 0 0 0 0 
0 0 0 0 0 0 0 0 0 
0 0 0 0 0 0 0 0 0 
0 0 0 0 0 0 0 0 0 
0 0 0 0 0 0 -1 0 0 
0 0 0 1 0 0 0 0 0 
0 -1 0 0 0 0 0 0 0 
0 0 0 0 0 0 0 -1 0 
0 0 0 0 -1 0 0 0 0 
0 0 0 0 0 0 -1 0 0 
0 0 0 1 0 0 0 0 0 
0 0 0 0 0 0 0 1 0 
0 0 0 0 0 0 0 0 0 
0 0 0 1 0 0 0 0 0 
0 0 0 0 1 0 0 0 0 
0 0 0 0 0 0 0 0 0 
0 0 0 -1 0 0 0 0 0 
0 0 0 0 0 0 0 0 0 
0 0 0 0 0 0 0 0 0 
0 0 0 0 0 0 0 0 0 
0 0 0 0 0 0 0 0 0 
1 0 0 0 0 0 0 0 0 
0 0 0 0 0 0 0 0 0 
0 0 0 0 0 0 0 0 0 
0 0 0 0 0 0 0 0 0 
0 0 0 0 0 0 0 0 0 
0 0 0 0 0 0 0 0 0 
0 0 0 0 0 0 0 0 0 
0 0 0 0 0 0 -1 0 0 
-1 0 0 0 0 0 0 0 0 
0 0 0 0 0 0 0 0 0 
0 0 0 0 0 0 0 0 0 
0 0 0 0 0 0 0 0 0 
0 0 0 0 0 0 0 0 0 
1 0 0 0 0 0 0 0 0 
0 0 0 0 0 0 0 0 0 
0 0 0 0 0 0 0 0 0 
0 0 0 0 0 0 1 0 0 
0 0 0 0 0 0 0 0 0 
0 0 0 0 0 0 0 0 0 
0 0 0 0 0 0 0 0 0 
0 0 0 0 0 0 0 0 0 
0 0 0 0 0 0 0 0 0 
0 0 0 0 0 0 0 0 0 
0 0 0 0 0 0 0 0 0 
0 -1 0 0 0 0 0 0 0 
0 0 0 0 0 0 0 0 0 
0 0 0 0 0 0 0 0 0 
0 0 0 0 -1 0 0 0 0 
0 0 0 0 -1 0 0 0 0 
0 0 0 0 0 0 0 0 0 
0 0 0 0 0 0 0 0 0 
0 0 0 0 0 0 0 0 0 
0 1 0 0 0 0 0 0 0 
1 0 0 0 0 0 0 0 0 
0 0 0 0 0 0 0 0 0 
0 0 0 0 0 0 0 0 0 
0 0 0 0 0 0 0 0 0 
0 0 0 0 0 0 0 0 0 
0 0 0 0 0 0 0 0 0 
0 0 0 0 0 0 0 0 0 
0 0 0 0 0 0 -1 1 0 
0 0 0 0 0 0 1 0 0 
0 0 0 0 0 0 0 0 0 
0 0 0 0 0 0 0 0 0 
0 0 0 0 0 0 0 0 0 
0 0 0 0 0 0 1 0 0 
0 0 0 0 0 0 0 0 0 
0 0 0 0 0 0 0 0 0 
0 0 0 0 0 0 0 0 0 
0 0 0 0 0 0 -1 0 0 
1 0 0 0 0 0 0 0 0 
0 0 0 0 0 0 0 0 0 
0 0 0 0 0 0 0 0 0 
0 0 0 0 0 0 0 0 0 
0 0 0 0 0 0 0 0 0 
0 0 0 0 0 0 0 0 0 
0 0 0 0 0 0 0 0 0 
0 0 0 -1 0 0 0 0 0 
0 0 0 0 0 0 0 0 0 
0 0 0 0 0 0 0 0 0 
0 0 0 0 0 0 0 0 0 
0 0 0 -1 0 0 1 0 0 
0 0 0 0 -1 0 0 0 0 
0 0 0 0 0 0 0 0 0 
0 0 0 0 0 0 0 0 0 
0 0 0 0 0 0 0 -1 0 
0 -1 0 0 -1 0 0 0 0 
0 -1 0 0 0 0 0 0 0 
0 -1 0 0 0 0 0 0 0 
0 0 0 0 0 0 0 0 0 
-1 0 0 0 0 0 0 0 0 
0 1 0 0 0 0 0 0 0 
0 0 0 0 1 0 0 0 0 
0 0 0 0 0 0 0 1 0 
-1 0 0 1 0 0 0 0 0 
0 0 0 0 0 0 0 0 0 
0 0 0 0 0 0 0 0 0 
0 0 0 0 0 0 0 0 0 
0 0 0 0 0 0 0 0 0 
0 0 0 0 0 0 0 0 0 
0 0 0 0 0 0 0 0 0 
0 0 0 0 0 0 0 0 0 
0 0 0 0 0 0 0 0 0 
0 0 0 0 0 0 0 0 0 
0 0 0 0 0 0 0 0 0 
0 0 0 0 0 0 0 0 0 
0 0 0 0 0 0 1 0 0 
0 0 0 0 0 0 0 0 0 
0 0 0 0 0 0 0 0 0 
0 0 0 0 0 0 0 0 0 
0 0 0 0 0 0 0 0 0 
0 0 0 0 0 0 0 0 0 
0 0 0 0 0 0 0 0 0 
0 0 0 0 0 0 0 0 0 
-1 0 0 1 -1 0 0 0 0 
0 0 0 0 0 0 0 0 0 
0 0 0 0 0 0 0 0 0 
0 0 0 0 0 0 -1 0 0 
0 0 0 0 0 0 0 0 0 
0 0 0 0 0 0 0 0 0 
0 0 0 0 0 0 0 0 0 
0 0 0 0 0 0 0 0 0 
0 0 0 0 0 0 0 0 0 
0 0 0 0 0 0 0 0 0 
0 0 0 0 0 0 0 0 0 
-1 0 0 0 0 0 0 0 0 
0 0 0 0 -1 0 0 0 0 
0 0 0 0 0 0 0 0 0 
0 -1 0 0 0 0 0 0 0 
0 0 0 0 0 0 0 0 0 
0 0 0 0 0 0 0 0 0 
0 0 0 0 0 0 0 0 0 
0 0 0 0 0 0 0 0 0 
0 0 0 0 1 0 0 0 0 
0 0 0 0 0 0 0 0 0 
0 1 0 0 0 0 0 0 0 
0 0 0 0 1 0 0 0 0 
0 0 0 0 0 0 0 0 0 
0 0 0 0 0 0 0 0 0 
0 0 0 0 0 0 0 0 0 
0 0 0 0 0 0 0 0 0 
0 0 0 0 0 0 0 0 0 
0 0 0 0 0 0 0 0 0 
0 0 0 0 0 0 0 0 0 
0 0 0 0 0 0 0 0 0 
-1 0 0 0 0 0 0 0 0 
0 0 0 0 0 0 0 0 0 
0 0 0 0 0 0 0 0 0 
0 0 0 0 0 0 0 0 0 
0 0 0 0 0 0 0 0 0 
0 0 0 0 0 0 0 0 0 
0 0 0 0 0 0 0 0 0 
0 0 0 0 0 0 0 0 0 
0 0 0 0 0 0 0 0 0 
0 0 0 0 0 0 0 0 0 
0 0 0 0 0 0 0 0 0 
0 0 0 0 0 0 0 0 0 
0 0 0 0 0 0 0 0 0 
0 0 0 0 0 0 0 0 0 
0 0 0 0 0 0 0 0 0 
0 0 0 0 0 0 0 0 0 
0 0 0 0 0 0 0 0 0 
0 0 0 0 0 0 0 0 0 
0 0 0 0 0 0 0 0 0 
0 0 0 0 0 0 0 0 0 
0 0 0 0 0 0 0 0 0 
-1 0 0 0 0 0 0 -1 0 
0 0 0 0 -1 0 0 0 0 
0 0 0 0 0 0 0 0 0 
0 0 0 0 0 0 -1 0 0 
0 0 0 1 0 0 0 0 0 
0 0 0 0 1 0 0 0 0 
0 0 0 0 1 0 0 0 0 
0 0 0 0 0 0 0 0 0 
0 0 0 -1 0 0 0 0 0 
0 0 0 0 0 0 0 0 0 
0 0 0 0 0 0 0 0 0 
-1 0 0 0 0 0 0 0 0 
0 0 0 0 0 0 0 0 0 
-1 0 0 0 0 0 0 0 0 
0 0 0 0 0 0 0 0 0 
0 0 0 0 0 0 0 0 0 
0 0 0 0 0 0 0 0 0 
0 0 0 0 0 0 0 0 0 
0 0 0 0 0 0 0 0 0 
0 0 0 0 0 0 0 0 0 
0 0 0 0 0 0 0 0 0 
0 0 0 0 0 0 0 0 0 
0 0 0 0 0 0 0 0 0 
0 0 0 0 0 0 0 0 0 
0 0 0 0 0 0 0 0 0 
0 -1 0 0 0 0 0 0 0 
0 0 0 0 0 0 0 0 0 
0 0 0 0 0 0 
v 3 1400 double
3.16329e-07 4.05683e-07 -3.32042e-08 3.14854e-07 4.3632e-07 -4.76993e-08 3.18637e-07 4.03002e-07 -4.94291e-08 
1.5563e-07 3.1134e-07 1.10416e-08 2.56258e-07 4.74226e-07 -1.15332e-07 3.66515e-07 4.10284e-07 2.44974e-08 
2.86302e-07 3.71487e-07 -6.37756e-08 2.95266e-07 4.58772e-07 -4.80425e-08 4.66567e-07 5.48649e-07 -7.10101e-08 
4.77043e-07 4.61607e-07 1.46555e-08 3.69676e-07 4.88356e-07 1.22015e-07 3.2862e-07 4.21062e-07 -2.17078e-08 
1.70574e-07 3.14419e-07 -1.31777e-07 2.31704e-07 5.67611e-07 -5.97928e-08 2.65692e-07 6.14002e-07 -2.04481e-08 
4.60825e-07 5.65056e-07 1.83676e-08 3.81763e-07 4.90447e-07 -6.34524e-08 3.1377e-07 3.76688e-07 -1.52559e-07 
3.8743e-07 3.97929e-07 1.52071e-07 4.42121e-07 4.08353e-07 3.3965e-08 4.17695e-07 5.53614e-07 -9.99448e-08 
3.83272e-07 5.41256e-07 1.92929e-08 3.7647e-07 5.99207e-07 -2.51749e-07 2.60923e-07 8.68155e-07 -3.26168e-08 
2.74707e-07 6.85472e-07 -4.48524e-08 2.53501e-07 6.96432e-07 -1.01598e-07 5.15556e-07 8.11303e-07 -6.19514e-08 
8.77548e-06 -2.1359e-05 -9.36932e-16 4.71517e-07 6.23498e-07 -8.5506e-09 4.2685e-07 3.31473e-07 7.43735e-08 
4.72828e-07 5.21445e-07 2.32391e-08 3.74024e-07 8.30479e-07 -1.49798e-07 3.5561e-07 5.31144e-07 2.75793e-07 
4.42129e-07 7.7246e-07 8.47957e-08 4.82808e-07 6.99549e-07 6.55372e-08 1.27075e-05 1.68639e-05 -1.05885e-08 
7.19771e-07 7.89622e-07 1.64716e-08 5.21398e-07 5.01578e-07 1.48047e-08 3.50784e-07 4.16574e-07 4.07389e-08 
4.2873e-07 7.1628e-07 1.3521e-08 2.7228e-07 4.27792e-07 -4.45681e-09 4.00128e-07 6.11712e-07 2.43133e-08 
-4.42935e-06 -5.69325e-06 2.10318e-15 5.64803e-07 5.58959e-07 1.2405e-07 5.05598e-07 3.95766e-07 1.02815e-07 
4.76375e-07 3.90909e-07 1.82898e-08 3.87126e-07 3.22703e-07 9.07675e-08 4.45114e-07 2.3279e-07 -1.16454e-07 
3.93533e-07 3.55844e-07 6.30304e-08 2.40919e-07 8.50357e-07 -1.90441e-07 2.74357e-07 5.6511e-07 4.10638e-08 