# vtk DataFile Version 4.0
Generated by LIGGGHTS
ASCII
DATASET POLYDATA
POINTS 395 float
-4350.96 -4884.45 499.063 -3789.86 -4057.97 498.67 -3335.22 -4951.44 498.258 
-2712.69 -4165.89 499.682 -1587.61 -4296.93 498.724 -323.629 -4413.82 499.292 
673.773 -4460.02 499.091 1641.18 -4708.55 498.711 2645.56 -4765.89 499.232 
3644.86 -4768.09 499.586 4648.9 -4834.13 498.992 -4794.94 -3989.35 499.188 
-4236.86 -3160.77 499.702 -3239.76 -3224.45 498.59 -2235.05 -3286.92 499.78 
-921.735 -3551.94 499.456 251.842 -3553.6 499.707 1254.34 -3542.96 499.473 
2199.69 -3873.2 500.296 3205.1 -3866.37 499.377 4204.38 -3934.18 499.352 
4765.49 -3091.88 499.479 -4652.91 -2243.36 499.686 -3655.96 -2310.81 499.673 
-2370.38 -2279.79 498.919 -1449.92 -2667.18 499.667 -450.774 -2668.38 499.605 
343.529 -2048.2 499.705 1322.25 -2299.89 500.031 2136.66 -2877.47 499.61 
3702.83 -2971.45 498.843 4339.8 -2188.05 499.81 -4633.88 -1013.38 499.757 
-3380.54 -1260.53 499.956 -2394.01 -1066.06 500.927 -1568.13 -1630.08 501.089 
-560.713 -1617.6 499.371 1050.69 -1338.73 499.556 2257.23 -1862.45 499.682 
2814.17 -1029.61 500.936 3405.08 -1834.76 498.818 4107.92 -1121.9 499.474 
-4390.1 -43.817 500.329 -3404.21 -215.335 499.14 -2418.82 -49.145 502.339 
-1546.08 -535.687 499.274 161.986 -880.646 498.973 1856.55 -745.879 498.662 
2558.01 -30.514 499.475 3515.15 -316.453 502.811 4635.7 -272.647 499.858 
-4979.03 765.983 499.359 -3748.28 722.458 499.787 -2728.13 900.765 499.115 
-1516.34 463.229 498.322 -457.551 90.1033 499.682 544.923 52.8926 506.167 
1589.59 217.534 500.201 3087.09 819.169 499.501 4045.55 536.809 508.246 
-4503.37 1647.6 499.216 -3413.15 1663.19 499.443 -1597.11 1458.86 497.632 
-538.545 1089.78 499.242 31.4102 1952.22 499.094 466.369 1052.2 499.656 
1483.9 1211.79 499.51 2420.17 1562.76 498.581 3451.21 1754.55 499.467 
4481.36 1620.42 501.816 -4968.5 2531.74 499.794 -3965.16 2496.09 501.262 
-2897.84 2509.01 627.697 -1911.87 2411.67 495.955 -934.583 2207.58 499.013 
-244.322 2936.43 510.512 720.2 2676.97 499.363 1656.04 2215.91 499.688 
2723.95 2520.06 499.475 4033.22 2571.19 499.24 -4432.14 3379.96 499.234 
-3433.19 3341.98 498.464 -2316.43 3326.63 499.419 -1241.09 3159.18 499.466 
-551.647 3888.1 499.51 467.597 3644.65 499.315 1576.17 3222.22 498.322 
2542.88 3505.28 499.701 3570.13 3456.09 499.013 4568.83 3418.25 499.612 
-4899.32 4274.01 499.554 -3899.47 4224.77 498.996 -2243.98 4948.07 498.884 
-2864.56 4162.43 498.998 -1658.44 4091.59 499.565 -1002.36 4846.61 498.927 
87.221 4658.89 499.508 1068.58 4467.6 498.628 2094.04 4401.48 498.515 
3099.09 4340.5 499.667 4099.57 4318.71 499.541 -4307.93 -4309.67 1315.28 
-3310.74 -4378.25 1314.53 -2369.45 -4417.01 1647.54 -1606.1 -4936.56 1265.32 
-883.852 -4167.06 1287.89 187.21 -4188.58 1330.2 1263.14 -4187.68 1262.55 
2397.44 -4366.46 1385.39 3690.88 -4189.16 1321.56 4689.95 -4253.45 1313.04 
-4756.01 -3417.27 1318.25 -3743.08 -3491.15 1469.91 -2752.8 -3550.84 1314.38 
-1766.11 -3699.76 1282.03 -314.872 -3323.23 1291.12 749.498 -3512.15 1805.18 
1720.46 -3303 1350.92 2721.26 -3429.83 1261.16 3476.36 -3325.56 1953.66 
4246.82 -3357.36 1314.79 -4175.89 -2601.72 1327.95 -3157.27 -2637.83 1302.24 
-2082.69 -2741.28 1345.5 -1172.62 -2999.95 1692.44 -1061.22 -2102.19 1229.77 
-91.869 -2331.99 1369.21 702.886 -2852.82 1056 1903.4 -2321.6 1314.11 
2860.77 -2463.6 1051.43 3817.42 -2455.64 1346.5 4816.57 -2513.86 1319.06 
-4109.79 -1635.81 1080.67 -4649.46 -1885.6 1884.53 -3496.39 -1354.53 1825.71 
-2799.81 -1698.39 1188.2 -1789.64 -1046.15 1326.29 -1830.62 -1903.01 1841.71 
-917.759 -1292.58 1799.74 858.384 -1849.03 1337.7 0.535826 -1337.35 1393.77 
1696.81 -1304.59 1312.95 2689.22 -1527.33 1364.54 3708.93 -1459.69 1373.85 
4775.28 -1535.22 1118.5 -4961.34 -600.424 1354.87 -3973.87 -652.35 1194.21 
-2970.93 -716.203 1247.92 -2279.36 -191.911 1742.36 -1369.93 11.9771 1377.86 
-701.434 -754.703 985.776 140.609 -342.309 1340.39 1092.61 -535.667 1106.14 
2003.82 -184.233 1317.41 2971.49 -568.422 1379.57 4025.68 -512.212 1339.98 
-4131.99 313.711 1397.23 -3144.87 390.889 1250.82 -2123.89 670.703 1264.07 
-323.68 522.165 1529.59 1013.48 619.276 1215.76 2254.01 746.353 1050.09 
3435.3 313.801 1288.61 4583.55 319.068 1387.88 -4010.75 1300.89 1296.65 
-3073.94 1310.87 1644.63 -2425.59 1710.27 996.993 -1166.6 991.331 1269.82 
-801.444 1652.72 1936.16 35.1358 1440.6 1365.72 882.885 1829.11 1006.24 
1634.47 1390.98 1498.47 2967.42 1402.84 1318.67 3942.26 1191.73 1258.59 
4940.55 1316.22 1336.55 -4517.83 2200.63 1331.72 -3489.1 2182.74 1365.79 
-2556.76 2420.41 1681.7 -1492.72 2024.15 1307.78 -1820.12 2995.77 1304.9 
-387.167 2346.95 1323.62 465.726 2215.84 1827.98 1212.38 2699.57 1368.27 
2274.6 2133.29 1304.1 3383.78 2411.04 1249.63 4435.6 2181.93 1329.08 
-4413.76 3957.47 1314.63 -4937.9 3107.18 1316.42 -3938.88 3078.18 1319.07 
-2877.91 3290.65 1325.87 -2162.26 3993.16 1357.38 -709.366 3294.1 1335.05 
289.283 3084.87 1359.08 953.917 3584.42 1952.04 1537.2 3931.72 1199.6 
2118.11 3118.71 1332.05 3092.51 3358.71 1370.54 4065.16 3142.9 1318.52 
-4864.14 4850.89 1315.01 -3399.67 4025.02 1753.27 -3867.21 4793.5 1320.22 
-2808.73 4755.48 1300.37 -1047.17 4235.94 1294.8 -369.219 4976.51 1329.89 
31.2372 4056.5 1298.86 672.078 4925.01 1292.97 1704.3 4903.63 1416.65 
2533.01 4184.45 1367.82 3143.93 4972.25 1324.99 3600.6 4159.41 1697.67 
4585.87 4001.35 1313.07 4139.5 4913.43 1320.22 -3806.03 -4646.83 2146.56 
-2457.33 -4468.08 2641.59 -1497.9 -4214.17 2105.38 -68.404 -4626.92 2196.47 
1300.54 4680.17 2302.27 902.297 -4389.57 2258.22 3108.83 -4324.43 2125.81 
3947.08 -4849.11 2271.72 5007.33 -4650.76 2173.62 -4375.06 -3808.39 2177.43 
-3137.19 -3887.52 2177.89 -2439.43 -3158.61 2192.35 -596.752 -3778.83 2162.86 
2304.11 -3732.37 2154.36 4827.48 -3462.13 2670.88 -3761.65 -2307.35 2190.75 
-2767.29 -2155 2084.46 -1643.95 -2638.9 2504.71 -711.935 -2201.63 2166.79 
-766.009 -3040.67 2818.23 -4.24105 -2972.22 2175.86 1157.84 -2606.54 1918.32 
1758.25 -3023.56 2599.7 2551.05 -2716.84 1972.2 3296.68 -2035.92 2089.23 
-2508.34 -1171.05 2012.37 -1944.9 -1606.69 2789.17 -967.303 -1404.51 2792.29 
-119.388 -1069.33 2357.86 781.628 -1005.14 1930.9 251.999 -2015.32 2371.57 
1540.17 -1740.15 2239.12 2537.23 -1701.97 2701.74 4356.05 -1912.67 1989.68 
-4365.04 -887.651 2105.06 -3480.08 -218.12 1969.16 -2741.14 -402.447 2617.56 
-1585.31 -701.013 2250.9 -667.625 -308.237 2012.48 253.708 -34.6337 2292.51 
1286.88 34.025 1978.86 2264.03 -879.245 2018.37 3577.27 -162.277 2170.79 
4638.94 -318.014 2247.58 -4736.05 559.447 2155.49 -3791.45 885.591 2199.77 
-2848.08 518.995 2212.1 -1966.94 244.426 2596.39 -1122.1 576.157 2177.59 
-308.728 759.73 2748.35 528.78 897.02 2045.18 1758.22 844.642 2326.31 
2544.6 333.613 1979.41 3350.79 911.248 2104.86 4347.75 969.272 2163.29 
-4500.87 1586.96 2120.33 -3561.89 1870.62 2313.55 -2580.24 1727.13 2437.24 
-1805.97 1298.88 1970.47 -9.76583 1703.61 2544.38 1127.73 1651.12 2320.33 
2415.95 1615.42 2148.48 3739.13 1839.54 1996.92 4976.63 911.171 3049.12 
-3349.66 2863.2 2097.27 -1746.79 2257.83 2234.05 -845.627 2674.64 2148.03 
1779.63 2392.18 2135.79 2730.23 2680.98 2008.13 3897.01 2799.97 2242.39 
3306.07 1979.71 2916.39 4897.13 2402.19 2190.75 -4515.11 3421.86 2165.65 
-3678.96 3664.52 2656.94 -2378.74 3303.72 2195.83 -1459.88 3638.06 1980.92 
-590.379 4047.88 2373.76 78.5889 3005.94 2347.89 1996.76 3755.12 2091.91 
2970.28 3673.92 2318.71 4442.25 3541.99 2661.85 -4383.81 4531.01 2132.97 
-2989.64 4763.21 2284.14 -2005.89 4654.81 2096.46 -1034.43 4892.44 2072.53 
339.157 4440.16 2169.4 2471.31 4899.89 2060.51 4627.02 4419.59 2219.99 
-3775.16 -3786.27 2995.44 1840.39 -4521.73 2575.6 3767.64 -4096.53 2956.22 
-2941.82 -1567.73 2874.58 -750.256 -2333.2 3529.73 4181.7 -2149.56 2948 
-3672.25 -881.484 2827.88 -1192.57 510.068 3172.02 2259.23 1430.78 3119.4 
-4430.96 2019.84 3018.49 -3398.28 2717.4 3085.26 2149.8 2970.56 3039.09 
-2895.41 4178.59 3089.01 2251.66 4092.62 2995.9 3154.67 4740.49 2771.62 
857.444 -2686.34 2871.9 1868.47 -923.511 3208.08 635.5 -1431.55 3236.88 
247.464 -4832.01 3146.68 -2955.8 839.688 3196.75 2709.07 -2937.85 2936.55 
1533.73 -3490.12 3472.78 3958.91 391.583 2937.62 785.301 3627.99 2945.96 
-1978.33 -3673.35 3010.15 -2494.6 -916.902 3645.98 2895.42 2639.2 3603 
-1582.04 2211.35 3211.24 -1964.66 3523.71 3170.51 1444.66 4188.94 3616.92 
-3243.13 -66.3716 3959.83 2883.15 4306.24 20259.1 -1195.5 4314.93 20249.7 
383.95 4134.49 20279.4 -2879.78 4215.61 20404.4 1743.43 3831.65 20447.8 
-1890.23 3224.49 20376.5 3383.94 2191.72 20423.9 1098.11 2820.97 20411.3 
3678.55 1238.62 20334.4 34.6959 2359.03 20380.4 -3011.54 2855.19 20474.3 
-4430.56 2424.36 20379.7 -1800.24 -4469.71 6130.95 3019.58 -4471.2 5895.15 
3776.51 -3780.42 6586.24 -4266.9 -2736.55 5789.7 4493.69 -2881.99 6255.84 
-2000.9 508.35 5551.08 246.892 1769.78 6245.49 -3075.68 3346.76 10959.2 
-4383.35 1592.77 15461.9 -4181.66 4379.11 16994.6 -447.085 -4225.69 19953.5 
-3155.5 -3147.65 17863.7 -2617.47 -3997.95 18052.1 2528.06 -3857.24 20152.5 
3239.68 -3104.58 20000.4 -1442.82 -2653.29 20117.5 -93.8598 -2346.8 19616.2 
781.508 -1199.68 20143.3 4411.21 -1712.91 19752.6 3818.9 -855.615 20068 
-4246.79 100.85 20181.4 3009.16 107.568 20167.3 -1349.65 1194.15 19971.6 
1157.94 1362.98 20165.2 2193.45 2044.1 19122.4 4455.58 2562.44 20238.7 
-4336.12 3398.19 20158.2 -726.055 3041.68 20170.4 2504.34 3416.91 19389.3 
4233.98 3986.15 20027.4 958.647 -4429.68 20496.8 -4170.59 -3880.18 20275.2 
-1371.5 -3955.04 20348.7 468.496 -3566.43 20290.1 1512.56 -3263.53 20469.9 
4252.91 -3938.65 20496.5 -4225.72 -2078.95 20455.8 -2458.69 -2766.39 20457.6 
1386.66 -2056.97 20246.6 2575.33 -2498.95 20496.9 -2676.85 -1504.58 20381 
-633.981 -1430.61 20476.7 2427.16 -1113.31 20470.6 -3839.31 -872.025 20252.5 
-1852.61 -844.513 20257.2 1465.17 -249.496 20475 -3613.51 879.943 20297.7 
-2574.4 360.827 20435.5 -1443.48 105.49 20356.2 113.317 122.546 20406.1 
-2663.42 1383.84 20455.3 -170.23 1312.77 20389 
VERTICES 395 790
1 0 
1 1 
1 2 
1 3 
1 4 
1 5 
1 6 
1 7 
1 8 
1 9 
1 10 
1 11 
1 12 
1 13 
1 14 
1 15 
1 16 
1 17 
1 18 
1 19 
1 20 
1 21 
1 22 
1 23 
1 24 
1 25 
1 26 
1 27 
1 28 
1 29 
1 30 
1 31 
1 32 
1 33 
1 34 
1 35 
1 36 
1 37 
1 38 
1 39 
1 40 
1 41 
1 42 
1 43 
1 44 
1 45 
1 46 
1 47 
1 48 
1 49 
1 50 
1 51 
1 52 
1 53 
1 54 
1 55 
1 56 
1 57 
1 58 
1 59 
1 60 
1 61 
1 62 
1 63 
1 64 
1 65 
1 66 
1 67 
1 68 
1 69 
1 70 
1 71 
1 72 
1 73 
1 74 
1 75 
1 76 
1 77 
1 78 
1 79 
1 80 
1 81 
1 82 
1 83 
1 84 
1 85 
1 86 
1 87 
1 88 
1 89 
1 90 
1 91 
1 92 
1 93 
1 94 
1 95 
1 96 
1 97 
1 98 
1 99 
1 100 
1 101 
1 102 
1 103 
1 104 
1 105 
1 106 
1 107 
1 108 
1 109 
1 110 
1 111 
1 112 
1 113 
1 114 
1 115 
1 116 
1 117 
1 118 
1 119 
1 120 
1 121 
1 122 
1 123 
1 124 
1 125 
1 126 
1 127 
1 128 
1 129 
1 130 
1 131 
1 132 
1 133 
1 134 
1 135 
1 136 
1 137 
1 138 
1 139 
1 140 
1 141 
1 142 
1 143 
1 144 
1 145 
1 146 
1 147 
1 148 
1 149 
1 150 
1 151 
1 152 
1 153 
1 154 
1 155 
1 156 
1 157 
1 158 
1 159 
1 160 
1 161 
1 162 
1 163 
1 164 
1 165 
1 166 
1 167 
1 168 
1 169 
1 170 
1 171 
1 172 
1 173 
1 174 
1 175 
1 176 
1 177 
1 178 
1 179 
1 180 
1 181 
1 182 
1 183 
1 184 
1 185 
1 186 
1 187 
1 188 
1 189 
1 190 
1 191 
1 192 
1 193 
1 194 
1 195 
1 196 
1 197 
1 198 
1 199 
1 200 
1 201 
1 202 
1 203 
1 204 
1 205 
1 206 
1 207 
1 208 
1 209 
1 210 
1 211 
1 212 
1 213 
1 214 
1 215 
1 216 
1 217 
1 218 
1 219 
1 220 
1 221 
1 222 
1 223 
1 224 
1 225 
1 226 
1 227 
1 228 
1 229 
1 230 
1 231 
1 232 
1 233 
1 234 
1 235 
1 236 
1 237 
1 238 
1 239 
1 240 
1 241 
1 242 
1 243 
1 244 
1 245 
1 246 
1 247 
1 248 
1 249 
1 250 
1 251 
1 252 
1 253 
1 254 
1 255 
1 256 
1 257 
1 258 
1 259 
1 260 
1 261 
1 262 
1 263 
1 264 
1 265 
1 266 
1 267 
1 268 
1 269 
1 270 
1 271 
1 272 
1 273 
1 274 
1 275 
1 276 
1 277 
1 278 
1 279 
1 280 
1 281 
1 282 
1 283 
1 284 
1 285 
1 286 
1 287 
1 288 
1 289 
1 290 
1 291 
1 292 
1 293 
1 294 
1 295 
1 296 
1 297 
1 298 
1 299 
1 300 
1 301 
1 302 
1 303 
1 304 
1 305 
1 306 
1 307 
1 308 
1 309 
1 310 
1 311 
1 312 
1 313 
1 314 
1 315 
1 316 
1 317 
1 318 
1 319 
1 320 
1 321 
1 322 
1 323 
1 324 
1 325 
1 326 
1 327 
1 328 
1 329 
1 330 
1 331 
1 332 
1 333 
1 334 
1 335 
1 336 
1 337 
1 338 
1 339 
1 340 
1 341 
1 342 
1 343 
1 344 
1 345 
1 346 
1 347 
1 348 
1 349 
1 350 
1 351 
1 352 
1 353 
1 354 
1 355 
1 356 
1 357 
1 358 
1 359 
1 360 
1 361 
1 362 
1 363 
1 364 
1 365 
1 366 
1 367 
1 368 
1 369 
1 370 
1 371 
1 372 
1 373 
1 374 
1 375 
1 376 
1 377 
1 378 
1 379 
1 380 
1 381 
1 382 
1 383 
1 384 
1 385 
1 386 
1 387 
1 388 
1 389 
1 390 
1 391 
1 392 
1 393 
1 394 

POINT_DATA 395
FIELD FieldData 7
id 1 395 int
72 12 38 94 7 11 80 109 30 
100 48 107 102 124 89 79 97 81 
90 82 91 49 36 60 78 18 16 
28 26 31 51 14 27 98 15 45 
104 96 22 4 87 29 54 37 59 
19 1 2 108 43 84 33 92 21 
88 42 55 66 46 77 73 20 110 
131 13 40 53 23 35 105 52 8 
119 61 25 34 58 6 85 47 63 
57 32 75 65 93 39 83 67 41 
10 9 17 113 3 56 50 24 166 
44 5 164 139 185 103 194 95 125 
135 86 150 137 223 193 133 149 202 
161 99 274 147 168 128 163 132 157 
179 148 155 145 278 281 101 156 181 
141 134 212 187 225 165 136 195 170 
62 159 123 142 224 70 121 152 115 
130 140 160 171 126 209 217 177 112 
158 118 127 207 69 153 236 154 111 
191 143 114 151 129 175 198 169 76 
167 189 200 116 192 214 219 196 210 
146 182 144 74 216 64 117 68 228 
206 221 138 120 71 122 183 162 201 
178 180 208 215 106 242 232 273 262 
319 289 258 266 248 239 276 229 275 
245 330 299 259 240 254 301 190 186 
317 267 282 268 314 310 233 172 227 
264 296 256 204 211 231 252 213 257 
197 324 263 270 243 265 234 253 235 
308 271 288 316 174 226 230 261 269 
218 255 244 250 222 297 246 272 279 
251 205 241 295 173 277 326 237 184 
280 260 238 247 334 176 300 249 199 
188 203 220 322 337 320 285 336 304 
323 283 321 287 294 332 286 318 291 
329 302 338 312 303 292 309 284 311 
307 325 335 290 306 328 298 360 363 
369 383 351 387 367 346 365 372 359 
393 331 293 305 315 327 313 333 355 
379 373 394 343 340 342 370 378 345 
380 374 364 389 344 357 362 361 392 
349 353 377 352 385 371 366 354 390 
386 350 384 376 356 368 347 341 375 
391 388 348 382 339 381 358 395 
type 1 395 int
1 1 1 1 1 1 1 1 1 
1 1 1 1 1 1 1 1 1 
1 1 1 1 1 1 1 1 1 
1 1 1 1 1 1 1 1 1 
1 1 1 1 1 1 1 1 1 
1 1 1 1 1 1 1 1 1 
1 1 1 1 1 1 1 1 1 
1 1 1 1 1 1 1 1 1 
1 1 1 1 1 1 1 1 1 
1 1 1 1 1 1 1 1 1 
1 1 1 1 1 1 1 1 1 
1 1 1 1 1 1 1 1 1 
1 1 1 1 1 1 1 1 1 
1 1 1 1 1 1 1 1 1 
1 1 1 1 1 1 1 1 1 
1 1 1 1 1 1 1 1 1 
1 1 1 1 1 1 1 1 1 
1 1 1 1 1 1 1 1 1 
1 1 1 1 1 1 1 1 1 
1 1 1 1 1 1 1 1 1 
1 1 1 1 1 1 1 1 1 
1 1 1 1 1 1 1 1 1 
1 1 1 1 1 1 1 1 1 
1 1 1 1 1 1 1 1 1 
1 1 1 1 1 1 1 1 1 
1 1 1 1 1 1 1 1 1 
1 1 1 1 1 1 1 1 1 
1 1 1 1 1 1 1 1 1 
1 1 1 1 1 1 1 1 1 
1 1 1 1 1 1 1 1 1 
1 1 1 1 1 1 1 1 1 
1 1 1 1 1 1 1 1 1 
1 1 1 1 1 1 1 1 1 
1 1 1 1 1 1 1 1 1 
1 1 1 1 1 1 1 1 1 
1 1 1 1 1 1 1 1 1 
1 1 1 1 1 1 1 1 1 
1 1 1 1 1 1 1 1 1 
1 1 1 1 1 1 1 1 1 
1 1 1 1 1 1 1 1 1 
1 1 1 1 1 1 1 1 1 
1 1 1 1 1 1 1 1 1 
1 1 1 1 1 1 1 1 1 
1 1 1 1 1 1 1 1 
i 3 395 int
0 1 0 0 0 0 1 1 0 
0 1 0 0 0 0 0 0 0 
0 1 0 0 0 0 0 1 0 
0 0 0 -1 0 0 0 0 0 
0 0 0 0 0 0 0 0 0 
0 0 0 0 0 0 0 1 0 
0 0 0 0 0 0 0 0 0 
-1 0 0 1 1 0 0 0 0 
0 0 0 0 0 0 0 0 0 
0 0 0 0 0 0 0 0 0 
0 0 0 0 0 0 0 0 0 
0 0 0 0 0 0 0 0 0 
0 0 0 0 0 0 0 0 0 
0 0 0 -1 0 0 0 0 0 
0 0 0 0 0 0 0 0 0 
0 0 0 0 0 0 0 0 0 
0 0 0 0 0 0 0 0 0 
0 0 0 0 0 0 0 0 0 
0 0 0 0 0 0 0 0 0 
0 0 0 0 0 0 0 0 0 
0 -1 0 1 -1 0 0 0 0 
0 0 0 0 0 0 0 0 0 
0 0 0 0 0 0 0 0 0 
-1 0 0 0 0 0 0 0 0 
0 0 0 0 0 0 0 0 0 
0 0 0 0 0 0 0 0 0 
0 0 0 0 0 0 1 -1 0 
0 0 0 0 0 0 0 0 0 
0 -1 0 0 0 0 0 0 0 
0 0 0 0 0 0 0 0 0 
1 0 0 0 0 0 0 -1 0 
0 -1 0 0 -1 0 0 -1 0 
0 -1 0 0 -1 0 0 0 0 
0 0 0 0 0 0 1 0 0 
0 1 0 0 0 0 0 0 0 
0 0 0 0 0 0 0 0 0 
0 1 0 0 0 0 0 1 0 
1 0 0 0 1 0 0 0 0 
0 0 0 0 0 0 0 0 0 
0 0 0 -1 1 0 0 0 0 
0 1 0 0 0 0 0 0 0 
0 0 0 0 1 0 0 0 0 
0 0 0 0 0 0 0 0 0 
0 0 0 0 0 0 -1 0 0 
0 0 0 0 0 0 0 0 0 
0 1 0 0 0 0 0 0 0 
0 0 0 0 0 0 0 0 0 
0 0 0 0 0 0 -1 0 0 
-1 0 0 1 0 0 1 0 0 
0 0 0 0 0 0 0 0 0 
0 0 0 0 0 0 0 0 0 
0 0 0 -1 0 0 0 0 0 
0 0 0 0 0 0 0 0 0 
0 0 0 0 0 0 -1 0 0 
0 0 0 0 0 0 0 0 0 
0 0 0 0 0 0 0 0 0 
0 0 0 0 0 0 -1 0 0 
0 0 0 0 0 0 0 0 0 
-1 0 0 1 0 0 0 0 0 
0 0 0 0 0 0 0 0 0 
0 0 0 0 0 0 0 0 0 
0 0 0 0 0 0 -1 0 0 
0 0 0 0 0 0 0 -1 0 
0 -1 0 0 0 0 0 0 0 
0 -1 0 0 0 0 0 0 0 
0 0 0 0 0 0 0 0 0 
1 -1 0 0 0 0 0 0 0 
0 0 0 0 0 0 0 0 0 
0 0 0 0 -1 0 0 0 0 
0 0 0 0 0 0 -1 0 0 
0 0 0 -1 0 0 0 0 0 
0 1 0 0 0 0 0 0 0 
0 -1 0 0 0 0 0 0 0 
0 0 0 0 0 0 0 0 0 
0 0 0 0 0 0 0 0 0 
0 0 0 0 0 0 0 0 0 
0 0 0 0 0 0 0 0 0 
0 0 0 0 0 0 0 0 0 
0 0 0 0 0 0 0 0 0 
0 0 0 0 0 0 0 0 0 
0 0 0 0 0 0 0 0 0 
0 0 0 0 0 0 0 0 0 
1 0 0 1 0 0 1 0 0 
0 0 0 0 0 0 0 0 0 
0 0 0 0 0 0 0 0 0 
0 0 0 1 0 0 1 0 0 
0 0 0 0 0 0 0 0 0 
0 0 0 0 0 0 0 0 0 
0 0 0 0 0 0 0 0 0 
0 0 0 0 0 0 1 0 0 
0 0 0 0 0 0 0 0 0 
0 0 0 -1 0 0 0 0 0 
0 0 0 0 0 0 0 0 0 
0 0 0 0 0 0 0 0 0 
0 0 0 0 0 0 0 0 0 
0 0 0 0 0 0 0 0 0 
0 0 0 0 0 0 0 0 0 
0 0 0 0 0 0 0 -1 0 
0 0 0 0 0 0 0 -1 0 
0 0 0 0 -1 0 -1 -1 0 
0 1 0 0 0 0 0 0 0 
0 0 0 0 0 0 -1 0 0 
0 0 0 0 0 0 0 0 0 
0 0 0 0 0 0 0 0 0 
0 0 0 0 0 0 0 0 0 
0 0 0 0 0 0 0 0 0 
0 1 0 0 0 0 0 0 0 
0 0 0 0 0 0 0 0 0 
0 0 0 0 0 0 0 0 0 
0 0 0 0 0 0 0 0 0 
0 0 0 0 0 0 0 0 0 
0 0 0 0 0 0 0 0 0 
0 0 0 0 0 0 0 0 0 
0 0 0 0 0 0 0 0 0 
0 0 0 0 0 0 0 0 0 
0 0 0 0 0 0 0 0 0 
0 0 0 0 0 0 0 0 0 
0 0 0 0 0 0 0 0 0 
0 0 0 0 0 0 0 0 0 
0 0 0 0 0 0 0 0 0 
0 0 0 0 0 0 0 0 0 
0 0 0 0 0 0 0 0 0 
0 0 0 0 0 0 0 0 0 
0 0 0 0 0 0 0 0 0 
0 0 0 0 0 0 0 0 0 
0 0 0 0 0 0 0 0 0 
0 0 0 0 0 0 0 0 0 
0 0 0 0 0 0 0 0 0 
0 0 0 0 0 0 0 0 0 
0 0 0 0 0 0 0 0 0 
0 0 0 0 0 0 0 0 0 
0 0 0 0 0 0 
v 3 395 double
-0.003812 -0.00561492 -0.000195529 -0.00224107 -0.00161144 0.00530196 0.0010637 -0.00427611 0.00397682 
0.000473992 -0.000477279 -0.000221267 0.00873499 -0.00296744 0.00555291 0.0021706 -0.00533968 0.00103423 
-0.000285781 -0.00257291 -0.00064943 0.00101153 0.0054021 0.00261945 0.0156414 0.00857266 0.00514675 
0.00405942 -0.00369524 -0.000547918 0.00302822 0.000605748 0.00242016 -0.00328519 -0.00351231 -0.00125938 
-0.00979364 0.00321475 0.0038109 -0.00518616 0.00734624 0.0144062 -0.000482386 0.00303305 -0.00642953 
0.00185808 0.00391411 0.000549158 0.00788864 -0.00235709 -0.00597035 0.00208481 -0.00134039 -0.00103874 
0.0170558 0.0150776 0.0040825 -0.00252237 -0.00556695 0.00357509 0.00011098 -0.00581467 0.00118594 
-0.00506599 -0.00460892 0.00012613 -0.0101124 0.00404069 0.0024428 -0.00458479 0.00794968 0.0131199 
0.00800487 0.0133898 0.00972886 0.00369852 0.0023607 0.00108987 -0.000426062 -0.00446594 -0.00197973 
0.00119521 -0.00145086 2.00956e-05 -0.0056037 0.0111642 -0.00433244 -0.00705273 0.0149546 -0.000605479 
0.0031776 -0.00160568 0.00180172 7.90138e-05 -0.000892373 0.000526248 -0.0040684 -0.000193421 -0.000394089 
-0.00360861 0.0120393 0.00628395 -0.00947947 0.000681312 -0.00380958 0.00462076 0.0166023 -0.00219017 
0.0023958 -0.000223579 -0.000617082 -0.00330556 0.00577175 -0.000662997 -0.00493099 -0.00713594 -2.85043e-06 
-0.000570135 0.00229679 -0.0016024 0.000126135 0.00157598 -0.00112474 0.001101 0.000536892 0.000569811 
-0.0030114 -0.000573543 -0.00249664 -0.00167059 -0.00155674 0.000413302 -0.00369063 -0.000437175 -0.00205507 
-0.00471296 -0.000991275 0.000234911 -0.00430123 -0.000347829 -3.45413e-05 0.00139916 0.0018296 -0.00183784 
-0.000205641 -0.00612739 -0.00120149 -0.0010665 -0.00288832 -0.0104436 -0.00345359 0.00314425 0.000380908 
-0.00595692 0.00100076 0.00251849 -0.00215113 -0.00185138 0.000771868 0.00548926 -0.0096518 -0.00550034 
0.00228453 -0.00340253 -0.00653594 -0.00300669 0.00317612 9.68389e-05 0.000478145 -0.00508159 -0.0145772 
0.00315341 0.000771464 -0.00014328 0.000217106 -0.00248078 -0.000789406 -0.00370757 0.00411645 0.00532165 
0.00158742 -0.000423837 -0.000591375 -0.000156975 -0.00212031 -0.000578551 0.00739351 -0.0133226 -0.0371061 
0.00240526 0.00479364 -0.002316 -0.000873039 -0.00457269 2.81346e-05 -0.00528355 -0.00431597 0.000478644 
0.00341273 0.000930188 0.000661117 -0.00119787 -0.00922061 -0.00261514 0.000411429 -0.00764143 -0.000926517 
0.0110668 -0.00737406 -0.0107341 0.0022518 -0.00150471 0.000318105 2.37028e-05 -0.00320118 -0.00205427 
0.001786 -0.000854624 -0.0023699 0.00911576 -0.0109947 -0.0525723 0.00277059 -0.000491793 -0.00259219 
0.00380177 -0.000631388 0.00073487 -0.00066877 -0.00209982 -0.00027027 -0.00102771 -0.00105643 3.91178e-05 
0.000419513 -0.0061724 -0.00121807 0.00319477 -0.00672325 -0.000593946 0.000992001 -0.00373548 -0.000907308 
-0.003135 0.00228856 -0.00437561 0.0025639 -0.00135909 0.00140244 0.00209355 0.00100839 -0.000271354 
0.00127012 -0.00562069 -0.000610053 -0.00773357 -0.00201385 -0.000834941 -0.00907466 -0.000239745 -0.0043339 
-0.00212078 -0.00232485 0.000625458 0.000535761 -0.0047737 0.00238847 0.00178233 -0.00431262 0.000155165 
-0.00069794 -0.00312117 -0.000691405 -0.000292297 -0.0030999 -0.000718261 -0.000376516 0.000511114 0.000731294 
0.000915775 0.000555185 0.000906 0.00818007 -0.00386311 2.19935e-05 0.0123489 -0.0063791 0.00626322 
0.000701929 -0.00141451 -0.00250809 -0.00676752 0.00735233 0.0084078 0.00117309 -0.00129299 0.0131894 
-0.00233136 -0.000394352 -0.0017908 -0.000240246 -0.000820844 -0.000259724 -0.0029626 -0.00591349 0.000245583 
0.00204269 0.00177711 0.00669008 0.00535622 0.000851129 0.0100009 0.0088034 -0.00596634 0.00913572 
0.00250608 -0.00103263 9.77158e-05 0.00743546 -0.0101436 -0.00839012 -0.00333245 0.00174664 0.00283853 
0.00275707 0.00115942 0.00569633 -0.00271633 0.00208942 -0.000271751 0.00294526 -0.00462996 0.000535197 
0.000838005 -0.000982624 -0.00458068 -0.00178838 -0.00115746 0.00366325 0.00229525 0.00659793 0.00751797 
0.00333445 0.00360811 -0.00491336 0.0110589 -0.00435412 -0.00209789 0.00725168 -0.00157325 -0.0129056 
0.0120706 -0.00789097 -0.0116786 0.00836436 0.0021363 0.00621689 0.0152298 0.00595569 0.00646788 
-0.00229159 -0.00184702 4.3734e-05 -0.00150049 -0.000906655 0.00083267 0.00622239 0.0167125 0.02564 
0.00781709 0.00656411 0.00183216 0.0146889 -0.00836726 0.00955738 -0.0126915 0.00662814 -0.00513559 
-0.00569911 -0.00478432 -0.000273999 -0.00479106 0.00343312 -0.00903539 7.51238e-05 -0.00906177 -0.00377119 
-0.000425584 0.00385025 -0.000663249 -0.00162403 0.00251702 0.000224466 0.000699613 -0.000691674 -0.000898783 
-0.0054591 0.00142107 0.00139423 0.00393843 -0.00629539 0.00456414 -0.00180478 0.00263828 0.000480271 
0.00596639 0.015397 0.0170208 0.00469944 0.0172132 0.0139457 0.0395492 0.0248752 0.00359068 
0.000612601 -0.000576747 0.003304 -0.00349697 -0.00553081 -0.0044852 0.00110863 -0.00040777 -0.00845557 
-0.00389686 -0.00221548 0.00147553 -0.00266226 -0.00040781 -0.00237266 0.005112 -0.00965591 0.000466405 
0.00596568 -0.000154487 -0.00287927 -0.0011772 0.000131776 0.00280355 -0.0134169 0.00371299 -0.00515458 
-0.00933612 0.0122969 0.00590262 -0.00137762 -0.000922568 -0.00179488 0.00176131 -0.00684134 -0.00898787 
-0.00460179 -0.00295852 -0.000263456 0.0017135 -0.00478557 0.00454836 0.00133441 -0.00103409 -0.00487479 
0.00161499 -0.0030118 -9.90691e-05 -0.0159255 -0.00965423 -0.0126907 -0.0133413 -0.00556064 -0.00259241 
-0.00384551 0.00543977 -0.00666043 -0.000481217 -0.00158102 -0.000201743 0.00196104 -0.0133382 -0.00586007 
0.00313519 -0.00361667 0.00542191 -0.00122929 -0.00611986 -0.00236729 -0.000563397 -0.00742234 -0.00228199 
-0.0219338 -0.0129037 0.000729415 -0.0119749 -0.0103004 0.0206404 0.003981 0.00552878 0.000670227 
0.00567184 -0.000541769 -0.00251735 -0.018013 -0.0169346 -0.0436209 0.00424492 -0.0146366 -0.00832874 
-0.0135822 -0.0157749 -0.00245368 -0.00104107 -0.00318809 0.00312858 -0.0026197 -0.00535623 0.00172064 
-0.00204227 -0.00549225 -0.00149003 0.00501611 -0.010326 -0.00396739 0.00868842 -0.0118169 0.0233551 
0.0123942 -0.00949578 -0.00833793 0.00250542 -0.00233095 -0.000846087 0.000614596 -0.00108056 -0.00758634 
-0.0644077 0.0062189 -0.0689921 0.0161828 -0.021251 -0.0893799 -0.000993148 -0.00691964 0.00410797 
0.00314848 2.41014e-06 -0.0017118 -0.00104022 -0.00144476 0.00209605 -0.00307268 -0.00145025 2.38918e-05 
0.0013446 -0.00809449 -0.00273482 -0.00195625 -0.0161984 0.000714311 0.0163051 -0.0040563 -0.00761147 
0.00475814 -0.00456057 -0.00412017 0.00645331 -0.00458145 0.00090621 0.0029742 -0.00337711 0.00125388 
-0.039293 0.0261722 -0.0246631 0.00348918 0.0025874 -0.00196611 0.00825333 -0.00127276 -0.0040678 
-0.00876982 -0.00125417 0.0283809 0.0148597 0.00320273 0.0301696 -0.0074267 -0.00380819 0.00145794 
-0.000223662 -0.000522244 -0.00560903 0.0087107 -0.0152039 0.00871738 0.00905193 -0.0218432 0.000721543 
0.00206907 -0.00935274 0.00283628 -0.00746695 0.000754667 -0.0116708 0.00273213 -0.00176996 0.00220917 
0.00016369 0.00452358 0.00428387 0.0012391 -0.0152554 0.00459947 -0.0035372 -0.00728425 -0.00652822 
-0.0183057 -0.00921521 -0.00816521 -0.00792363 -0.00341005 0.000333642 -0.00233232 -0.00330381 0.00187247 
0.00770932 -0.00495366 0.0223384 0.00435626 0.00865475 0.00961046 -0.00432441 0.000140274 -0.00241266 
0.00035569 -0.000771524 -0.00152257 0.00254295 1.16826e-05 0.00584494 -0.0159948 0.00717761 -0.00883913 
-0.0268876 -0.0366722 0.000999269 -0.00175995 0.00911228 -0.00590572 -0.0113326 -0.00949591 0.000696619 
-0.00746135 -0.0313294 -0.0111752 -0.00649763 -0.0218408 -0.0418557 0.00747292 0.00429744 0.0121176 
0.0207411 0.0156494 0.00538974 0.0221556 0.00414665 -0.00393797 -0.0213543 0.0116186 -0.00968739 
0.00161818 0.00281732 0.00169447 -0.00607974 0.00652379 0.00917142 0.00792195 0.00316071 -0.0025131 
-0.00260514 -0.0033438 0.013281 -0.0268721 0.00488222 -0.00973558 0.0209252 -0.0243304 0.00360463 
0.0412709 -0.00349052 0.034236 0.000359328 0.00311194 0.00665275 0.00175055 -0.0028853 -0.0124838 
-0.0166621 0.0265159 -0.0152772 0.00990954 0.00263635 -5.15599e-05 -0.00642378 0.00575589 0.00941229 
0.00388838 0.0104509 0.00574399 -0.00337868 -0.00250603 0.00567095 0.00816688 -0.00889217 0.0147237 
-0.004265 0.00276255 0.00580745 0.0366807 0.0252313 -0.00925679 0.0100477 0.0105332 0.00141749 
0.00285857 -0.00213657 0.00149754 0.00581934 0.00161017 -0.000690617 -0.00280675 -0.000213081 0.0195895 
-0.0388636 0.027859 0.00106402 0.00616095 -0.00605338 -0.0148648 0.00394837 -0.00816679 0.00188751 
-5.74776e-05 0.0146452 0.0109088 -0.00195561 -0.0025111 -0.000307849 -0.00115336 0.0171944 0.00207645 
-0.00517201 -0.00559669 -0.000828718 0.000999213 0.000290026 -0.00337323 0.00877496 0.0108147 -0.0213932 
0.00373156 -0.00376743 -0.00185555 -0.0125123 0.000597366 0.0106895 0.0191721 0.0324961 0.00350843 
0.0275904 -0.0420045 0.0366092 0.00475979 0.00712087 -0.00161326 -0.000761966 0.00513674 0.00566625 
2.45327e-05 0.000526182 0.00140958 0.001502 -0.0051552 -0.00371161 -0.00275651 -0.0181634 -0.0107016 
-0.00888705 0.00466715 -0.000493725 0.00139556 -0.00246657 -0.000919702 0.00233038 -0.00467322 -0.000999956 
0.00489846 -1.34056e-05 -0.00623485 -0.00126478 0.00674485 -0.00860738 -0.00316197 0.00241657 0.0445923 
-0.000607568 0.00340876 0.00145358 0.00159337 0.000870651 -0.00114613 0.00214784 -0.00973247 -0.0121349 
0.00485381 -0.00538391 -0.0221554 -0.0117766 0.00434856 -0.000578192 0.00242727 -0.0012672 -1.8479e-07 
0.005987 0.0038343 0.00354117 0.00889006 0.00168124 0.0177496 0.0157975 -0.0884408 0.0456601 
-0.000388795 0.00738265 0.000652392 0.0172342 0.0262856 -0.0676698 0.0230653 0.0168518 -0.0122248 
0.000534415 0.00321206 -0.00170981 0.000434949 -0.0181885 0.00156337 -0.00412924 0.0113289 0.0108345 
-0.0409286 -0.000544126 0.0265491 0.0113657 -0.0161421 0.00100524 0.00194082 0.0010923 0.000618774 
0.0126566 0.0218895 -0.0283597 -0.00155547 -0.00815932 0.00337812 0.00116104 -0.0101436 0.00872299 
-0.0108249 0.00638107 0.0141784 -0.00624056 -0.0138663 0.0385827 0.0314402 -0.0338155 0.0336872 
0.000969466 -0.00229232 0.000194375 -0.0452277 -0.00705637 -0.0336168 0.0060892 -0.0149955 -0.000861724 
-0.0299801 -0.0254248 -0.0105914 -0.00405133 -0.00166387 0.000606097 -0.00426868 0.00428062 -0.00425974 
-0.00593743 -0.02244 -0.00779284 0.00708102 -0.0021235 0.010644 0.00726975 -0.00207029 -0.00015133 
0.011282 0.0428902 -0.0422156 -0.016568 -0.0175973 -0.0103105 0.0861819 -0.00206093 -0.063432 
0.0351039 0.0587979 -0.0236211 0.0711427 0.00012269 -0.0078895 -0.0773454 -0.0477396 -0.01873 
0.0537326 0.0018038 -0.0327932 -0.0224982 0.00852934 -0.0131984 -0.0647131 -0.00322889 -0.00597247 
0.0144926 -0.0280056 0.0171434 -0.00404837 -0.00156018 0.00184786 -0.0273004 0.03023 -0.0816571 
-0.0106916 0.0303596 0.0213864 0.105535 0.0479678 -0.0106358 -0.00436134 0.016155 0.0121543 
-0.0265208 -0.0496384 -0.00944036 0.0116146 0.0279724 0.116703 0.0785461 -0.189379 -0.0309956 
0.0769505 0.116657 0.030307 0.0944273 -0.0755109 0.0805136 0.0893458 -0.11609 -0.110381 
-0.0295285 -0.0644155 -0.0516818 -0.0333316 0.12098 -0.013949 0.0367994 0.062704 0.0417533 
0.0348154 -0.0986358 0.0601313 0.108302 0.120534 -0.27169 -0.0722811 0.139559 -0.0459295 
0.076889 0.00260043 -0.0194536 0 0 -0.574713 -0.156442 0.0473355 -0.248092 
0 0 -0.561077 -0 -0 -0.01 -0 -0 -0.01 
-0 -0 -0.01 -0 -0 -0.01 -0 -0 -0.01 
-0 -0 -0.01 -0 -0 -0.01 -0 -0 -0.01 
-0 -0 -0.01 -0 -0 -0.01 -0 -0 -0.01 
-0 -0 -0.01 0 0 -0.521739 0 0 -0.526153 
0 0 -0.513106 0 0 -0.528115 0 0 -0.519384 
0 0 -0.53253 0 0 -0.51958 0 0 -0.421284 
0 0 -0.298561 0 0 -0.243037 0 0 -0.0318272 
0 0 -0.204974 0 0 -0.195752 -0 -0 -0.01 
-0 -0 -0.01 -0 -0 -0.01 0 0 -0.0873518 
-0 -0 -0.01 0 0 -0.0703805 -0 -0 -0.01 
-0 -0 -0.01 -0 -0 -0.01 0 0 -0.0256469 
-0 -0 -0.01 0 0 -0.131595 -0 -0 -0.01 
-0 -0 -0.01 -0 -0 -0.01 0 0 -0.109915 
-0 -0 -0.01 -0 -0 -0.01 -0 -0 -0.01 
-0 -0 -0.01 -0 -0 -0.01 -0 -0 -0.01 
-0 -0 -0.01 -0 -0 -0.01 -0 -0 -0.01 
-0 -0 -0.01 -0 -0 -0.01 -0 -0 -0.01 
-0 -0 -0.01 -0 -0 -0.01 -0 -0 -0.01 
-0 -0 -0.01 -0 -0 -0.01 -0 -0 -0.01 
-0 -0 -0.01 -0 -0 -0.01 -0 -0 -0.01 
-0 -0 -0.01 -0 -0 -0.01 
f 3 395 double
40241.5 28397 28716.4 38371 9141.22 -5489.12 39719.8 27825.5 6475.31 
-486.192 -439.954 2510.84 -25317.4 23761.9 7395.38 -20005 -20688 -4947.31 
1072.06 -3074.35 11640.2 24168.1 -11586.1 -8767.83 -44851.7 -86627.5 -16654.8 