FoamFile
{version 2.0; format ascii;class Cloud<passiveParticle>; location 0;object  positions;}
41
(
( 243.395 142.865 99.9145 ) 0 
( 294.28 336.213 99.9195 ) 0 
( 101.775 390.387 99.8444 ) 0 
( 436.397 194.896 99.7699 ) 0 
( 50.9227 197.082 99.8236 ) 0 
( 373.678 26.8349 197.525 ) 0 
( 230.805 482.723 221.38 ) 0 
( 171.364 268.779 242.476 ) 0 
( 359.804 215.702 283.158 ) 0 
( 63.4065 103.867 276.1 ) 0 
( 404.392 483.876 320.562 ) 0 
( 43.6512 471.51 290.887 ) 0 
( 425.852 55.3593 388.381 ) 0 
( 206.461 397.096 400.234 ) 0 
( 234.206 111.583 398.697 ) 0 
( 83.2986 240.949 420.23 ) 0 
( 388.685 328.664 445.521 ) 0 
( 132.531 98.8606 570.326 ) 0 
( 28.3631 427.417 485.755 ) 0 
( 329.874 51.5586 563.669 ) 0 
( 228.186 273.792 556.062 ) 0 
( 413.106 225.844 615.092 ) 0 
( 13.6445 260.77 606.536 ) 0 
( 255.764 156.348 716.945 ) 0 
( 136.438 422.119 653.881 ) 0 
( 335.245 403.305 664.355 ) 0 
( 496.833 334.091 760.775 ) 0 
( 251.189 10.1975 853.324 ) 0 
( 60.8984 139.242 758.07 ) 0 
( 401.957 182.808 850.764 ) 0 
( 183.617 314.529 815.695 ) 0 
( 147.857 159.553 936.945 ) 0 
( 349.4 438.252 860.737 ) 0 
( 293.301 289.261 981.656 ) 0 
( 64.4791 431.805 925.417 ) 0 
( 196.955 2.45957 1050.51 ) 0 
( 410.816 448.582 1052 ) 0 
( 347.808 128.602 1087.5 ) 0 
( 78.4271 293 1068.69 ) 0 
( 247.018 307.878 1175.31 ) 0 
( 211.626 465.417 1056.54 ) 0 
)
