FoamFile
{version 2.0; format ascii;class vectorField; location 0;object  v;}
41
(
( -2.4197e-05 1.49659e-05 -1.98346e-05 )  
( -4.76259e-05 1.04737e-05 -2.08384e-05 )  
( -2.99746e-05 4.36056e-06 -5.39865e-05 )  
( -2.37197e-05 -1.49018e-05 -6.33975e-05 )  
( -3.89027e-05 -1.14646e-05 -4.99066e-05 )  
( -3.61544e-05 -2.27267e-05 -5.92709e-05 )  
( 3.67071e-06 5.51409e-06 -6.94946e-05 )  
( -5.80587e-05 -3.79628e-05 -6.79021e-05 )  
( -4.59216e-05 -5.94797e-05 -0.000133279 )  
( -3.65596e-05 -1.53583e-05 -9.34268e-05 )  
( 8.31732e-06 -6.56e-05 -9.26534e-05 )  
( -1.26935e-05 -0.000102242 -0.000166948 )  
( 1.45464e-05 -3.08324e-05 -9.68791e-05 )  
( 3.0008e-06 -1.63685e-05 -0.000107037 )  
( -4.79556e-06 2.17752e-05 -0.00011552 )  
( -3.88355e-05 -1.49934e-05 -0.000117129 )  
( -7.46047e-06 -7.99718e-05 -0.000139316 )  
( 2.18359e-05 1.316e-05 -0.000144201 )  
( 3.10122e-05 -1.04753e-05 -0.000207656 )  
( 3.82069e-05 1.63754e-05 -0.000111364 )  
( 7.93596e-06 8.90822e-06 -8.86814e-05 )  
( 5.23207e-05 -1.21485e-05 -0.000130452 )  
( 2.91366e-05 1.54784e-05 -0.000116667 )  
( 3.74256e-05 4.39739e-05 -0.000103883 )  
( 5.45438e-05 7.89346e-05 -0.000174666 )  
( 3.28482e-05 8.40686e-05 -0.000217242 )  
( 4.51743e-05 8.67209e-06 -0.000120369 )  
( 6.83299e-05 8.19435e-05 -0.000141593 )  
( -7.60182e-06 -3.5611e-05 -0.00012922 )  
( 3.99023e-05 -7.18931e-06 -0.000141091 )  
( 0.00010423 0.000104343 -9.84279e-05 )  
( -0.000141179 -2.63209e-05 -7.03384e-05 )  
( 6.94654e-05 -0.000103109 -0.000302089 )  
( -0.00024575 4.24025e-05 -0.000336214 )  
( -6.12048e-05 3.91267e-05 -6.53331e-05 )  
( 0.000272827 0.00011704 -7.41906e-05 )  
( -6.161e-05 -0.000306111 -0.000189875 )  
( -0.000202532 0.000113176 -0.00024125 )  
( -0.000173562 -3.29922e-05 -7.33577e-05 )  
( -0.000168291 -0.00105471 -0.000207058 )  
( 2.17417e-05 -0.000125816 -0.000202964 )  
)
