/*--------------------------------*- C++ -*----------------------------------*\
| =========                 |                                                 |
| \\      /  F ield         | OpenFOAM: The Open Source CFD Toolbox           |
|  \\    /   O peration     | Version:  5.x                                   |
|   \\  /    A nd           | Web:      www.OpenFOAM.org                      |
|    \\/     M anipulation  |                                                 |
\*---------------------------------------------------------------------------*/
FoamFile
{
    version     2.0;
    format      ascii;
    class       volVectorField;
    location    "5000";
    object      stored_U;
}
// * * * * * * * * * * * * * * * * * * * * * * * * * * * * * * * * * * * * * //

dimensions      [0 1 -1 0 0 0 0];

internalField   nonuniform List<vector> 
180
(
(-0.0404436 0.0169825 22.5447)
(-0.0394297 0.0181691 23.6599)
(-0.00402588 0.01968 23.7722)
(-0.0657341 0.0243854 22.7298)
(-0.0799122 -0.00179617 23.3489)
(-0.144176 -0.0126513 23.5854)
(-0.101106 -0.0333943 22.7779)
(-0.0344435 -0.00738086 23.3096)
(-0.190468 -0.00892157 23.6502)
(-0.159924 -0.0685675 22.6973)
(-0.112123 -0.0868777 23.705)
(-0.0423244 -0.0874403 22.7887)
(-0.12285 -0.0582712 23.4104)
(-0.175311 -0.0451012 23.3081)
(-0.205591 -0.0430923 23.5237)
(-0.0699382 -0.0874188 22.706)
(0.0457342 -0.0662999 23.3933)
(0.0967963 -0.0924373 23.4248)
(-0.0703906 -0.080642 23.1503)
(-0.181532 -0.0821665 23.3316)
(0.172076 -0.159563 23.1134)
(0.0897629 0.0991051 22.7111)
(-0.0941446 0.523923 23.2594)
(-0.136927 0.505882 23.3677)
(-0.0249618 0.143157 23.2326)
(0.0772452 -0.000788367 23.2485)
(0.013638 0.352372 23.3972)
(-0.0807538 0.715645 23.0272)
(-0.090813 0.947702 23.5015)
(-0.154055 1.03162 23.098)
(-0.169985 1.01209 23.674)
(-0.150613 0.883161 23.8497)
(-0.208452 0.666637 23.459)
(-0.262843 0.501364 23.8244)
(-0.52348 0.538357 23.4516)
(-0.65513 0.551728 24.2724)
(-0.624092 0.468834 23.8982)
(-0.488485 0.339061 24.0397)
(-0.433313 0.237192 24.0187)
(-0.442278 0.205961 24.2536)
(-0.311819 0.0240992 24.0336)
(-0.474382 0.106561 24.4712)
(-0.64012 0.281107 24.5768)
(-0.623061 0.312928 24.5529)
(-0.424665 0.137294 24.6725)
(-0.286094 -0.0493724 24.6191)
(-0.17605 -0.173604 24.3922)
(-0.219526 -0.205528 24.6372)
(-0.214493 -0.242246 24.6272)
(-0.13022 -0.263792 24.7653)
(-0.00658395 -0.159566 23.9288)
(-0.0415133 -0.183426 24.8988)
(-0.0508607 -0.15183 23.9252)
(-0.0345079 -0.17952 24.4869)
(-0.00933085 -0.165257 24.3784)
(0.0273838 -0.168713 24.3765)
(0.0712545 0.097061 23.854)
(-0.106089 0.380481 24.0436)
(-0.202802 0.469245 24.3524)
(-0.231608 0.388435 24.4541)
(-0.194636 0.445261 23.6091)
(-0.234729 0.580548 24.6834)
(-0.114096 0.730221 23.73)
(-0.257731 0.713008 24.4124)
(-0.341763 0.668394 24.5705)
(-0.215947 0.621818 23.6574)
(-0.267142 0.647293 24.5621)
(-0.18695 0.721559 24.5725)
(-0.292133 0.626886 24.1514)
(-0.337492 0.340004 23.9221)
(-0.372259 0.280572 24.3307)
(-0.461843 0.447815 24.5715)
(-0.458433 0.5173 24.3917)
(-0.357165 0.334776 24.3078)
(-0.267181 0.0847778 24.2055)
(-0.246683 -0.0156872 24.1842)
(-0.303163 -0.106133 24.1209)
(-0.393202 -0.238313 24.3765)
(-0.490173 -0.300965 23.1797)
(-0.441148 -0.487387 24.4632)
(-0.498375 -0.41851 23.819)
(-0.343222 -0.0670464 22.7412)
(-0.480739 -0.318999 24.4392)
(-0.313328 -0.212302 23.6441)
(-0.251855 -0.15014 22.7978)
(-0.384829 -0.278657 23.612)
(-0.501413 -0.237236 23.7161)
(-0.841448 -0.0459949 23.9735)
(-0.571456 -0.304294 22.5416)
(-0.811868 -0.543645 24.157)
(-0.466779 -0.685368 23.2505)
(-0.0827402 -0.460833 23.2282)
(0.126615 -0.346022 23.2233)
(0.207234 -0.146663 23.3978)
(0.586957 0.0456342 23.0994)
(0.605986 0.552792 23.5506)
(1.20472 0.534231 22.6349)
(1.04993 1.15467 23.6224)
(0.527004 1.93076 23.9354)
(-0.0221995 2.76491 24.4542)
(1.19932 2.4383 23.3334)
(3.213 2.40086 23.1009)
(2.54564 3.08994 24.6197)
(2.17438 3.57568 24.5159)
(1.75532 4.40239 24.4917)
(2.95836 5.22623 24.9465)
(4.51233 6.37798 23.6017)
(4.4843 8.55143 25.0236)
(1.40392 10.9024 25.1904)
(-1.49492 13.7811 25.2847)
(-4.7467 15.6897 29.283)
(-6.96351 17.3083 31.9314)
(-12.6547 24.4364 32.5559)
(-28.5243 31.1237 40.3519)
(-41.3993 40.5883 48.1816)
(-45.6675 39.0632 57.405)
(-49.972 41.4066 65.847)
(-47.6725 36.1814 75.672)
(-48.1038 35.7439 83.0605)
(-44.5999 30.3803 92.243)
(-43.3858 29.0623 98.0181)
(-40.8013 24.5863 105.722)
(-39.5231 22.5107 110.215)
(-38.7089 19.8212 115.982)
(-36.6174 17.7272 119.225)
(-39.4935 17.5803 122.61)
(-35.748 15.1658 126.458)
(-40.2958 17.3234 128.442)
(-37.6245 16.109 132.568)
(-42.5661 18.4629 134.835)
(-47.0882 20.4992 139.587)
(-49.9451 21.8202 142.153)
(-54.5796 24.3542 146.741)
(-58.1122 26.8631 149.041)
(-62.6711 30.753 155.003)
(-63.6023 31.4115 156.988)
(-66.8065 35.0077 162.88)
(-67.085 35.3273 166.585)
(-67.0962 35.5868 171.218)
(-67.0686 36.3447 174.47)
(-66.9561 43.5383 179.162)
(-64.5631 56.8804 184.657)
(-60.8158 70.9925 190.207)
(-58.2442 83.2606 196.871)
(-55.2984 93.6656 204.026)
(-47.2041 102.196 210.616)
(-31.4746 102.463 213.302)
(-10.6274 92.1182 213.631)
(12.6319 70.9115 212.35)
(35.2289 41.5424 208.328)
(54.6239 8.09952 201.681)
(69.2768 -25.4125 192.179)
(78.5513 -55.5154 179.398)
(82.7997 -79.6893 164.673)
(82.8699 -96.7553 148.977)
(79.8754 -106.756 133.049)
(74.8407 -110.381 117.253)
(68.6874 -108.721 102.164)
(62.12 -103.071 88.1629)
(55.6521 -94.7391 75.5417)
(49.5894 -84.884 64.3629)
(44.079 -74.4355 54.6814)
(39.1517 -64.1005 46.3887)
(34.7629 -54.3451 39.4011)
(30.8441 -45.4613 33.5093)
(27.2921 -37.5679 28.6781)
(24.0571 -30.731 24.711)
(21.0276 -24.8436 21.6044)
(18.2682 -19.9901 19.0378)
(15.632 -15.8323 16.9847)
(13.3538 -12.6863 15.3065)
(11.1555 -9.853 14.0427)
(9.40117 -8.00894 13.0742)
(7.68236 -6.19462 12.3957)
(6.42195 -5.21558 11.847)
(5.21738 -4.05099 11.6067)
(3.89035 -3.74278 11.1827)
(3.32144 -2.60971 11.5804)
(1.76118 -2.38794 10.9197)
(0.180609 -2.22916 11.0676)
)
;

boundaryField
{
    inlet
    {
        type            calculated;
        value           uniform (0.180609 -2.22916 11.0676);
    }
    outlet
    {
        type            calculated;
        value           uniform (-0.0404436 0.0169825 22.5447);
    }
    repeat_boundary
    {
        type            calculated;
        value           nonuniform List<vector> 
360
(
(-0.0404436 0 22.5447)
(-0.0394297 0 23.6599)
(-0.00402588 0 23.7722)
(-0.0657341 0 22.7298)
(-0.0799122 0 23.3489)
(-0.144176 0 23.5854)
(-0.101106 0 22.7779)
(-0.0344435 0 23.3096)
(-0.190468 0 23.6502)
(-0.159924 0 22.6973)
(-0.112123 0 23.705)
(-0.0423244 0 22.7887)
(-0.12285 0 23.4104)
(-0.175311 0 23.3081)
(-0.205591 0 23.5237)
(-0.0699382 0 22.706)
(0.0457342 0 23.3933)
(0.0967963 0 23.4248)
(-0.0703906 0 23.1503)
(-0.181532 0 23.3316)
(0.172076 0 23.1134)
(0.0897629 0 22.7111)
(-0.0941446 0 23.2594)
(-0.136927 0 23.3677)
(-0.0249618 0 23.2326)
(0.0772452 0 23.2485)
(0.013638 0 23.3972)
(-0.0807538 0 23.0272)
(-0.090813 0 23.5015)
(-0.154055 0 23.098)
(-0.169985 0 23.674)
(-0.150613 0 23.8497)
(-0.208452 0 23.459)
(-0.262843 0 23.8244)
(-0.52348 0 23.4516)
(-0.65513 0 24.2724)
(-0.624092 0 23.8982)
(-0.488485 0 24.0397)
(-0.433313 0 24.0187)
(-0.442278 0 24.2536)
(-0.311819 0 24.0336)
(-0.474382 0 24.4712)
(-0.64012 0 24.5768)
(-0.623061 0 24.5529)
(-0.424665 0 24.6725)
(-0.286094 0 24.6191)
(-0.17605 0 24.3922)
(-0.219526 0 24.6372)
(-0.214493 0 24.6272)
(-0.13022 0 24.7653)
(-0.00658395 0 23.9288)
(-0.0415133 0 24.8988)
(-0.0508607 0 23.9252)
(-0.0345079 0 24.4869)
(-0.00933085 0 24.3784)
(0.0273838 0 24.3765)
(0.0712545 0 23.854)
(-0.106089 0 24.0436)
(-0.202802 0 24.3524)
(-0.231608 0 24.4541)
(-0.194636 0 23.6091)
(-0.234729 0 24.6834)
(-0.114096 0 23.73)
(-0.257731 0 24.4124)
(-0.341763 0 24.5705)
(-0.215947 0 23.6574)
(-0.267142 0 24.5621)
(-0.18695 0 24.5725)
(-0.292133 0 24.1514)
(-0.337492 0 23.9221)
(-0.372259 0 24.3307)
(-0.461843 0 24.5715)
(-0.458433 0 24.3917)
(-0.357165 0 24.3078)
(-0.267181 0 24.2055)
(-0.246683 0 24.1842)
(-0.303163 0 24.1209)
(-0.393202 0 24.3765)
(-0.490173 0 23.1797)
(-0.441148 0 24.4632)
(-0.498375 0 23.819)
(-0.343222 0 22.7412)
(-0.480739 0 24.4392)
(-0.313328 0 23.6441)
(-0.251855 0 22.7978)
(-0.384829 0 23.612)
(-0.501413 0 23.7161)
(-0.841448 0 23.9735)
(-0.571456 0 22.5416)
(-0.811868 0 24.157)
(-0.466779 0 23.2505)
(-0.0827402 0 23.2282)
(0.126615 0 23.2233)
(0.207234 0 23.3978)
(0.586957 0 23.0994)
(0.605986 0 23.5506)
(1.20472 0 22.6349)
(1.04993 0 23.6224)
(0.527004 0 23.9354)
(-0.0221995 0 24.4542)
(1.19932 0 23.3334)
(3.213 0 23.1009)
(2.54564 0 24.6197)
(2.17438 0 24.5159)
(1.75532 0 24.4917)
(2.95836 0 24.9465)
(4.51233 0 23.6017)
(4.4843 0 25.0236)
(1.40392 0 25.1904)
(-1.49492 0 25.2847)
(-4.7467 0 29.283)
(-6.96351 0 31.9314)
(-12.6547 0 32.5559)
(-28.5243 0 40.3519)
(-41.3993 0 48.1816)
(-45.6675 0 57.405)
(-49.972 0 65.847)
(-47.6725 0 75.672)
(-48.1038 0 83.0605)
(-44.5999 0 92.243)
(-43.3858 0 98.0181)
(-40.8013 0 105.722)
(-39.5231 0 110.215)
(-38.7089 0 115.982)
(-36.6174 0 119.225)
(-39.4935 0 122.61)
(-35.748 0 126.458)
(-40.2958 0 128.442)
(-37.6245 0 132.568)
(-42.5661 0 134.835)
(-47.0882 0 139.587)
(-49.9451 0 142.153)
(-54.5796 0 146.741)
(-58.1122 0 149.041)
(-62.6711 0 155.003)
(-63.6023 0 156.988)
(-66.8065 0 162.88)
(-67.085 0 166.585)
(-67.0962 0 171.218)
(-67.0686 0 174.47)
(-66.9561 0 179.162)
(-64.5631 0 184.657)
(-60.8158 0 190.207)
(-58.2442 0 196.871)
(-55.2984 0 204.026)
(-47.2041 0 210.616)
(-31.4746 0 213.302)
(-10.6274 0 213.631)
(12.6319 0 212.35)
(35.2289 0 208.328)
(54.6239 0 201.681)
(69.2768 0 192.179)
(78.5513 0 179.398)
(82.7997 0 164.673)
(82.8699 0 148.977)
(79.8754 0 133.049)
(74.8407 0 117.253)
(68.6874 0 102.164)
(62.12 0 88.1629)
(55.6521 0 75.5417)
(49.5894 0 64.3629)
(44.079 0 54.6814)
(39.1517 0 46.3887)
(34.7629 0 39.4011)
(30.8441 0 33.5093)
(27.2921 0 28.6781)
(24.0571 0 24.711)
(21.0276 0 21.6044)
(18.2682 0 19.0378)
(15.632 0 16.9847)
(13.3538 0 15.3065)
(11.1555 0 14.0427)
(9.40117 0 13.0742)
(7.68236 0 12.3957)
(6.42195 0 11.847)
(5.21738 0 11.6067)
(3.89035 0 11.1827)
(3.32144 0 11.5804)
(1.76118 0 10.9197)
(0.180609 0 11.0676)
(0 0.0169825 22.5447)
(0 0.0181691 23.6599)
(0 0.01968 23.7722)
(0 0.0243854 22.7298)
(0 -0.00179617 23.3489)
(0 -0.0126513 23.5854)
(0 -0.0333943 22.7779)
(0 -0.00738086 23.3096)
(0 -0.00892157 23.6502)
(0 -0.0685675 22.6973)
(0 -0.0868777 23.705)
(0 -0.0874403 22.7887)
(0 -0.0582712 23.4104)
(0 -0.0451012 23.3081)
(0 -0.0430923 23.5237)
(0 -0.0874188 22.706)
(0 -0.0662999 23.3933)
(0 -0.0924373 23.4248)
(0 -0.080642 23.1503)
(0 -0.0821665 23.3316)
(0 -0.159563 23.1134)
(0 0.0991051 22.7111)
(0 0.523923 23.2594)
(0 0.505882 23.3677)
(0 0.143157 23.2326)
(0 -0.000788367 23.2485)
(0 0.352372 23.3972)
(0 0.715645 23.0272)
(0 0.947702 23.5015)
(0 1.03162 23.098)
(0 1.01209 23.674)
(0 0.883161 23.8497)
(0 0.666637 23.459)
(0 0.501364 23.8244)
(0 0.538357 23.4516)
(0 0.551728 24.2724)
(0 0.468834 23.8982)
(0 0.339061 24.0397)
(0 0.237192 24.0187)
(0 0.205961 24.2536)
(0 0.0240992 24.0336)
(0 0.106561 24.4712)
(0 0.281107 24.5768)
(0 0.312928 24.5529)
(0 0.137294 24.6725)
(0 -0.0493724 24.6191)
(0 -0.173604 24.3922)
(0 -0.205528 24.6372)
(0 -0.242246 24.6272)
(0 -0.263792 24.7653)
(0 -0.159566 23.9288)
(0 -0.183426 24.8988)
(0 -0.15183 23.9252)
(0 -0.17952 24.4869)
(0 -0.165257 24.3784)
(0 -0.168713 24.3765)
(0 0.097061 23.854)
(0 0.380481 24.0436)
(0 0.469245 24.3524)
(0 0.388435 24.4541)
(0 0.445261 23.6091)
(0 0.580548 24.6834)
(0 0.730221 23.73)
(0 0.713008 24.4124)
(0 0.668394 24.5705)
(0 0.621818 23.6574)
(0 0.647293 24.5621)
(0 0.721559 24.5725)
(0 0.626886 24.1514)
(0 0.340004 23.9221)
(0 0.280572 24.3307)
(0 0.447815 24.5715)
(0 0.5173 24.3917)
(0 0.334776 24.3078)
(0 0.0847778 24.2055)
(0 -0.0156872 24.1842)
(0 -0.106133 24.1209)
(0 -0.238313 24.3765)
(0 -0.300965 23.1797)
(0 -0.487387 24.4632)
(0 -0.41851 23.819)
(0 -0.0670464 22.7412)
(0 -0.318999 24.4392)
(0 -0.212302 23.6441)
(0 -0.15014 22.7978)
(0 -0.278657 23.612)
(0 -0.237236 23.7161)
(0 -0.0459949 23.9735)
(0 -0.304294 22.5416)
(0 -0.543645 24.157)
(0 -0.685368 23.2505)
(0 -0.460833 23.2282)
(0 -0.346022 23.2233)
(0 -0.146663 23.3978)
(0 0.0456342 23.0994)
(0 0.552792 23.5506)
(0 0.534231 22.6349)
(0 1.15467 23.6224)
(0 1.93076 23.9354)
(0 2.76491 24.4542)
(0 2.4383 23.3334)
(0 2.40086 23.1009)
(0 3.08994 24.6197)
(0 3.57568 24.5159)
(0 4.40239 24.4917)
(0 5.22623 24.9465)
(0 6.37798 23.6017)
(0 8.55143 25.0236)
(0 10.9024 25.1904)
(0 13.7811 25.2847)
(0 15.6897 29.283)
(0 17.3083 31.9314)
(0 24.4364 32.5559)
(0 31.1237 40.3519)
(0 40.5883 48.1816)
(0 39.0632 57.405)
(0 41.4066 65.847)
(0 36.1814 75.672)
(0 35.7439 83.0605)
(0 30.3803 92.243)
(0 29.0623 98.0181)
(0 24.5863 105.722)
(0 22.5107 110.215)
(0 19.8212 115.982)
(0 17.7272 119.225)
(0 17.5803 122.61)
(0 15.1658 126.458)
(0 17.3234 128.442)
(0 16.109 132.568)
(0 18.4629 134.835)
(0 20.4992 139.587)
(0 21.8202 142.153)
(0 24.3542 146.741)
(0 26.8631 149.041)
(0 30.753 155.003)
(0 31.4115 156.988)
(0 35.0077 162.88)
(0 35.3273 166.585)
(0 35.5868 171.218)
(0 36.3447 174.47)
(0 43.5383 179.162)
(0 56.8804 184.657)
(0 70.9925 190.207)
(0 83.2606 196.871)
(0 93.6656 204.026)
(0 102.196 210.616)
(0 102.463 213.302)
(0 92.1182 213.631)
(0 70.9115 212.35)
(0 41.5424 208.328)
(0 8.09952 201.681)
(0 -25.4125 192.179)
(0 -55.5154 179.398)
(0 -79.6893 164.673)
(0 -96.7553 148.977)
(0 -106.756 133.049)
(0 -110.381 117.253)
(0 -108.721 102.164)
(0 -103.071 88.1629)
(0 -94.7391 75.5417)
(0 -84.884 64.3629)
(0 -74.4355 54.6814)
(0 -64.1005 46.3887)
(0 -54.3451 39.4011)
(0 -45.4613 33.5093)
(0 -37.5679 28.6781)
(0 -30.731 24.711)
(0 -24.8436 21.6044)
(0 -19.9901 19.0378)
(0 -15.8323 16.9847)
(0 -12.6863 15.3065)
(0 -9.853 14.0427)
(0 -8.00894 13.0742)
(0 -6.19462 12.3957)
(0 -5.21558 11.847)
(0 -4.05099 11.6067)
(0 -3.74278 11.1827)
(0 -2.60971 11.5804)
(0 -2.38794 10.9197)
(0 -2.22916 11.0676)
)
;
    }
    procBoundary2to0
    {
        type            processor;
        value           nonuniform List<vector> 
180
(
(-0.0357784 0.0140698 22.6393)
(-0.0633335 0.015243 23.7467)
(-0.070436 0.016743 23.8466)
(-0.0670647 0.022625 22.9103)
(-0.155636 -0.00130938 23.3239)
(-0.178252 -0.0198693 23.5524)
(-0.136355 -0.0155194 23.3836)
(-0.0762467 0.0130949 23.3182)
(-0.208435 0.00984056 23.6983)
(-0.191759 -0.0818381 22.8896)
(-0.144183 -0.102522 23.7908)
(-0.182706 -0.104995 23.2682)
(-0.155681 -0.0780235 23.5539)
(-0.161867 -0.0656696 23.4735)
(-0.162097 -0.078081 23.5001)
(-0.0825393 -0.0689503 23.6776)
(-0.0963302 -0.127274 23.1293)
(-0.118916 -0.171481 23.4794)
(-0.167639 -0.219645 23.6317)
(-0.102825 -0.211349 23.8029)
(0.000133041 -0.0509121 23.1633)
(0.0355596 0.0115672 23.8097)
(0.234572 0.558227 23.0117)
(0.274259 0.585322 23.8103)
(0.243601 0.552977 23.2435)
(0.0992779 0.235373 23.3716)
(0.0828614 0.154554 23.421)
(0.258905 0.446293 23.1319)
(0.250488 0.501615 23.6048)
(0.057439 0.417138 22.268)
(-0.0205886 0.495753 23.5977)
(-0.096693 0.480215 22.4116)
(-0.127251 0.35793 23.257)
(-0.197216 0.292606 22.5393)
(-0.173308 0.299871 23.2177)
(-0.204759 0.119794 22.1366)
(-0.183262 0.135552 23.2618)
(-0.32034 0.0547928 22.2397)
(-0.288075 0.0935931 22.8914)
(-0.258158 0.170249 22.8216)
(-0.23165 0.312198 22.8833)
(-0.230507 0.129539 22.3236)
(-0.188315 0.0518272 22.8051)
(-0.289303 -0.263004 22.407)
(-0.331533 -0.289105 23.0532)
(-0.348136 -0.456593 22.3096)
(-0.326406 -0.45834 22.8939)
(-0.319253 -0.452017 23.1379)
(-0.30227 -0.403101 22.3177)
(-0.231214 -0.425324 23.3415)
(-0.242729 -0.520209 22.6646)
(-0.246451 -0.517885 23.3652)
(-0.192113 -0.384355 22.6021)
(-0.272569 -0.403817 23.2296)
(-0.319714 -0.40147 23.2879)
(-0.300424 -0.424986 23.0549)
(-0.104452 -0.393944 23.5366)
(-0.106224 -0.163358 22.8255)
(-0.155088 -0.100078 23.6455)
(-0.269374 -0.041946 22.675)
(-0.479619 -0.0452672 23.3978)
(-0.56425 -0.031908 23.6695)
(-0.484152 -0.0833279 22.5387)
(-0.653425 -0.089178 23.6053)
(-0.462018 -0.015545 23.0787)
(-0.645271 -0.0321035 23.2357)
(-0.746803 -0.0728239 23.2908)
(-0.667114 -0.0297941 23.4532)
(-0.623145 -0.267253 22.5515)
(-0.568801 -0.149108 23.7801)
(-0.581079 -0.339568 22.986)
(-0.667931 -0.398806 23.2005)
(-0.833253 -0.616994 22.7406)
(-0.821608 -0.778424 23.5848)
(-0.828894 -0.784317 23.7304)
(-0.914414 -0.708353 23.2108)
(-1.08705 -0.853571 23.3067)
(-1.22789 -1.18155 23.856)
(-1.27965 -1.1574 24.2296)
(-1.22549 -1.0111 23.8393)
(-1.29364 -1.05709 24.3762)
(-1.53387 -1.45833 23.9329)
(-1.90841 -1.65118 25.3221)
(-1.71177 -1.53487 24.6909)
(-1.87434 -1.34437 25.2503)
(-1.91554 -1.21678 25.545)
(-1.98999 -1.24179 25.6112)
(-1.84531 -1.36962 25.469)
(-1.88776 -1.59083 25.6566)
(-2.22123 -1.7257 26.2154)
(-2.23222 -1.5211 26.4414)
(-2.1184 -1.1064 26.7333)
(-2.06949 -1.14739 26.0766)
(-2.60902 -0.77307 27.0934)
(-2.86577 -0.4675 27.4152)
(-2.25849 -0.345511 26.5614)
(-2.84607 0.596243 27.4544)
(-3.03905 1.04919 27.6039)
(-2.6554 1.20208 27.1061)
(-2.48229 1.33042 27.0522)
(-3.08868 1.64517 27.3456)
(-3.17138 2.15566 26.2967)
(-4.72098 3.10595 27.9093)
(-3.67595 2.99268 25.972)
(-4.51152 4.16894 27.1949)
(-3.75524 5.4364 25.5615)
(-6.02238 7.44151 26.214)
(-10.5761 11.1304 24.0323)
(-15.366 13.8747 25.9821)
(-17.9748 16.3093 23.5788)
(-21.6053 18.9395 29.1616)
(-38.8211 34.0585 31.4367)
(-68.4648 56.8597 32.0732)
(-99.9625 70.4377 38.6985)
(-113.173 77.1245 47.2929)
(-118.15 76.8295 51.9916)
(-119.48 74.2681 57.2345)
(-117.374 70.6064 61.7314)
(-114.945 66.0613 64.3673)
(-110.702 61.602 67.5182)
(-106.816 55.9263 67.5154)
(-103.217 50.4943 68.9539)
(-101.059 45.03 67.7784)
(-99.2135 39.5886 67.4461)
(-98.3743 34.7592 65.3494)
(-97.1367 30.8068 64.1715)
(-95.7251 26.8197 62.3607)
(-92.8598 23.4969 61.5689)
(-89.5877 19.6797 60.3297)
(-85.5964 16.8719 60.1564)
(-81.3971 13.5124 59.2125)
(-76.6478 11.2975 58.7392)
(-71.1898 9.09063 57.3153)
(-65.2968 7.79758 56.8315)
(-58.1672 6.33427 54.8798)
(-51.3231 5.0268 53.2109)
(-42.9759 3.61474 50.7841)
(-37.6916 2.96713 48.7981)
(-33.3604 5.5584 45.8127)
(-29.1694 10.5079 44.0963)
(-18.9657 22.9205 39.7475)
(-10.986 29.7389 35.012)
(-5.16875 34.8977 28.295)
(-0.849066 35.3568 18.7397)
(0.662292 23.7357 15.8903)
(-6.98702 -3.46985 9.73336)
(2.47695 -65.8756 -1.58763)
(15.9619 -54.48 -7.33015)
(25.0313 -43.6504 -6.52948)
(26.7686 -39.7896 -5.39467)
(39.7004 -49.1151 -8.10608)
(52.2218 -62.6801 -4.19505)
(65.5636 -85.6413 -2.35384)
(68.3765 -92.2111 1.95446)
(70.6061 -100.406 5.25104)
(70.3132 -105.136 8.66171)
(67.3611 -103.906 14.0232)
(63.2731 -98.0825 19.1739)
(58.6217 -89.1611 23.9961)
(53.9483 -78.602 28.3547)
(49.4257 -67.5293 31.9127)
(45.2548 -56.707 34.618)
(41.4467 -46.7135 36.5203)
(37.9647 -37.8469 37.7373)
(34.8128 -30.2893 38.3211)
(31.9245 -23.9917 38.4732)
(29.2826 -18.9494 38.2007)
(26.828 -14.8828 37.7265)
(24.5268 -11.8391 36.9493)
(22.41 -9.32733 36.214)
(20.3675 -7.68199 35.1339)
(18.5696 -6.10636 34.4662)
(16.8542 -5.3469 33.1591)
(15.2422 -4.3247 32.8161)
(13.7035 -4.02662 31.2306)
(12.0717 -3.43209 31.3888)
(11.1317 -3.2045 29.6061)
(9.86781 -3.16706 30.3587)
(8.80483 -3.07941 28.8766)
(7.12843 -3.24834 28.9971)
)
;
    }
    procBoundary2to3
    {
        type            processor;
        value           nonuniform List<vector> 
180
(
(-0.0394075 0.0117125 21.8351)
(-0.03845 0.0429142 23.3606)
(-0.0477369 0.0401438 22.2218)
(-0.00443787 0.0604524 22.7255)
(-0.0609254 -0.00455213 22.7038)
(0.052532 0.0225903 22.5757)
(0.202244 0.139416 22.4919)
(-0.0526919 0.0660093 22.9621)
(-0.00510674 0.103413 21.8428)
(0.0584009 0.105504 22.7984)
(0.0376751 0.0577936 22.7324)
(-0.0524909 -0.0358997 22.6492)
(-0.112711 -0.0424319 22.4668)
(-0.0816215 0.0605013 22.5629)
(-0.082593 0.0356791 22.7233)
(0.000524724 -0.0171001 22.2193)
(0.205704 0.166704 22.1903)
(0.373714 0.37103 22.7232)
(0.269368 0.231297 22.8644)
(0.108501 0.101659 22.2345)
(0.115206 0.248437 22.34)
(0.188 0.391912 22.7884)
(0.145767 0.277613 22.7548)
(0.119295 0.129732 22.8852)
(-0.00261908 0.204469 22.1642)
(0.0253276 0.275716 23.1375)
(-0.199383 0.435912 22.2494)
(-0.0163182 0.455681 23.0151)
(0.0301255 0.454801 22.9631)
(-0.0662279 0.452734 23.0203)
(-0.246228 0.461068 22.7549)
(-0.318213 0.564269 22.8636)
(-0.265283 0.608252 23.1629)
(-0.221831 0.609709 23.0019)
(-0.262269 0.560024 23.0967)
(-0.419076 0.480156 23.2792)
(-0.473596 0.165885 22.2362)
(-0.471631 0.133097 23.1396)
(-0.513156 0.0852168 22.9754)
(-0.613328 0.0654723 22.7487)
(-0.735904 0.0399167 22.6813)
(-0.856458 -0.0831969 22.7596)
(-0.478819 0.00500617 22.095)
(-0.198005 0.0389713 22.1328)
(-0.098705 0.0458083 22.4897)
(-0.0704525 0.0508893 22.3342)
(-0.125804 0.0190822 22.2415)
(-0.117154 -0.0494706 22.3529)
(0.176281 0.174467 21.7313)
(0.314334 0.281817 22.0074)
(0.330374 0.277504 22.2531)
(0.399673 0.356666 22.3737)
(0.553606 0.603842 21.6818)
(0.464172 0.59702 22.3108)
(0.404208 0.619216 22.2837)
(0.531391 0.669239 22.1912)
(0.674209 0.641705 22.3605)
(0.522763 0.580164 22.2135)
(0.456984 0.577672 22.5588)
(0.494002 0.691775 22.1847)
(0.614035 0.777795 22.2703)
(0.753362 0.942238 22.381)
(0.72084 1.10477 22.6853)
(0.599036 1.14356 22.8087)
(0.629187 1.04395 22.4808)
(0.675673 0.954756 22.7846)
(0.728848 0.949856 22.9091)
(0.744223 0.947214 22.8482)
(0.740492 0.859009 22.999)
(0.761861 0.730765 22.9523)
(0.717971 0.66007 23.2288)
(0.663122 0.607919 23.0313)
(0.591852 0.59804 23.2233)
(0.51075 0.443269 22.8589)
(0.712001 0.4316 23.3565)
(0.843897 0.614034 23.357)
(0.702388 0.791508 23.5692)
(0.434581 0.52123 22.9281)
(0.514748 0.41999 23.7714)
(0.531947 0.212914 23.0335)
(0.417869 0.334937 23.5684)
(0.203782 0.405811 23.6862)
(0.214454 0.447856 23.216)
(0.11919 0.39437 23.1561)
(-0.00406851 0.29432 23.4285)
(-0.134253 0.360004 23.5227)
(-0.505936 0.359034 23.5723)
(-0.672036 0.142577 22.9951)
(-0.560159 -0.205389 22.8406)
(-0.459222 -0.401817 22.9617)
(-0.0532765 -0.536977 22.4894)
(-0.163974 -0.469759 22.9228)
(0.209537 -0.35165 22.4916)
(0.249859 0.0745841 22.5177)
(0.68179 0.438142 22.5101)
(0.693223 0.981132 22.6696)
(1.13215 1.428 22.6987)
(1.22876 1.99517 23.0541)
(1.82663 2.372 23.172)
(2.20475 2.84911 23.7386)
(2.70674 3.27607 23.9959)
(3.1952 3.5345 24.796)
(3.84223 4.11481 25.3422)
(4.67101 4.24391 26.546)
(5.52664 5.17624 27.1123)
(6.697 5.50057 28.8732)
(7.13526 6.79107 29.9276)
(8.02576 7.63674 32.0047)
(8.3905 9.24773 34.196)
(6.80077 12.4906 36.5945)
(5.05934 16.0071 40.958)
(-0.931152 22.493 44.4717)
(-10.2064 31.9402 49.3362)
(-17.1418 36.8589 57.4996)
(-23.258 43.3109 60.8814)
(-27.8125 47.3342 64.9723)
(-30.1601 52.0076 68.4974)
(-36.0275 53.8377 70.1461)
(-28.7921 62.6681 77.068)
(-27.3904 63.2401 78.1203)
(-28.5197 63.0866 79.1604)
(-19.0745 63.6319 83.3022)
(-14.2728 62.8484 83.4694)
(-6.24066 61.4132 82.6453)
(0.02469 61.1313 82.9652)
(8.0782 61.505 79.9963)
(4.57179 61.2897 78.8225)
(1.14234 59.4346 74.1111)
(-0.94 57.609 70.9325)
(0.678726 53.7544 66.0479)
(1.83459 47.5801 62.9971)
(5.99004 41.9373 56.4729)
(7.28034 33.0818 54.0545)
(9.81639 24.7349 45.1816)
(9.73195 13.9063 42.8802)
(12.7844 0.49356 32.0314)
(13.3275 -13.3875 28.3265)
(15.9434 -42.467 19.6892)
(22.7066 -58.9578 12.7601)
(35.5813 -35.2774 -0.144442)
(38.3827 -13.7897 -7.4195)
(42.6649 -14.6199 -10.6778)
(43.756 -13.2553 -11.9151)
(44.525 -11.7591 -19.7388)
(44.9456 -10.2409 -18.7903)
(47.1103 -11.88 -26.9678)
(47.756 -12.2002 -25.1266)
(49.4594 -17.3495 -27.0459)
(51.499 -22.1852 -26.6668)
(53.032 -25.1618 -25.1405)
(54.5192 -36.1348 -23.1392)
(53.5038 -39.616 -21.3187)
(43.4881 -51.1885 -21.4165)
(41.5702 -47.0925 -18.0515)
(34.8155 -44.6131 -18.0952)
(29.4349 -38.4774 -14.8165)
(24.5938 -31.9462 -15.5372)
(21.4694 -25.7825 -12.6466)
(18.1137 -19.2006 -13.0722)
(16.408 -14.4396 -10.3323)
(13.7437 -8.62069 -10.417)
(12.3063 -4.21666 -8.16695)
(10.7819 0.117877 -7.52413)
(10.5378 2.75265 -4.95628)
(10.007 5.4157 -3.48315)
(10.0339 7.00027 -0.729995)
(9.7067 8.73695 1.19804)
(8.48704 11.3626 3.64708)
(6.66885 13.4546 5.17915)
(4.72436 15.1585 7.56783)
(2.60983 15.8383 8.81915)
(0.933242 16.3237 11.0477)
(-0.514926 16.1586 12.0179)
(-1.85152 16.1802 13.7346)
(-3.00516 16.2849 14.6777)
(-3.76555 15.7168 15.3786)
(-4.33388 14.6396 16.8145)
(-5.05636 14.6518 17.3247)
(-5.37049 14.823 17.5283)
(-5.65119 14.1465 18.98)
)
;
    }
}


// ************************************************************************* //
