/*--------------------------------*- C++ -*----------------------------------*\
| =========                 |                                                 |
| \\      /  F ield         | OpenFOAM: The Open Source CFD Toolbox           |
|  \\    /   O peration     | Version:  5.x                                   |
|   \\  /    A nd           | Web:      www.OpenFOAM.org                      |
|    \\/     M anipulation  |                                                 |
\*---------------------------------------------------------------------------*/
FoamFile
{
    version     2.0;
    format      ascii;
    class       volVectorField;
    location    "100000";
    object      U;
}
// * * * * * * * * * * * * * * * * * * * * * * * * * * * * * * * * * * * * * //

dimensions      [0 1 -1 0 0 0 0];

internalField   nonuniform List<vector> 
2250
(
(4.51435e-12 3.15322e-10 -0.001)
(7.03868e-11 3.08907e-10 -0.001)
(1.00783e-10 2.71106e-10 -0.001)
(1.33288e-10 2.08897e-10 -0.001)
(-2.08261e-11 2.37985e-10 -0.001)
(5.14048e-12 3.39828e-10 -0.001)
(3.51365e-11 3.40015e-10 -0.001)
(3.52467e-11 2.83587e-10 -0.001)
(1.18816e-11 2.40566e-10 -0.001)
(1.16289e-11 1.36499e-10 -0.001)
(4.05424e-12 2.64136e-10 -0.000999999)
(1.34892e-11 2.59188e-10 -0.000999999)
(1.30207e-12 2.23101e-10 -0.000999999)
(-1.3808e-11 1.96851e-10 -0.000999999)
(-3.24091e-11 1.746e-10 -0.000999999)
(-2.65715e-13 1.6907e-10 -0.000999999)
(-6.40643e-12 1.61214e-10 -0.000999999)
(-2.71076e-11 1.39598e-10 -0.000999999)
(-3.66046e-11 1.19684e-10 -0.000999999)
(-4.95069e-11 1.083e-10 -0.000999999)
(-4.05289e-12 5.85088e-11 -0.000999999)
(-1.62621e-11 5.48166e-11 -0.000999999)
(-4.01814e-11 4.87535e-11 -0.000999999)
(-4.49275e-11 4.17342e-11 -0.000999999)
(-5.50305e-11 4.0241e-11 -0.000999999)
(4.32663e-11 8.16817e-10 -0.001)
(1.98198e-10 7.8458e-10 -0.001)
(2.18842e-10 6.93501e-10 -0.001)
(2.69422e-10 5.54331e-10 -0.001)
(-6.86153e-11 6.54804e-10 -0.001)
(2.74504e-11 8.83652e-10 -0.000999999)
(8.89122e-11 8.53517e-10 -0.000999999)
(5.59761e-11 7.12245e-10 -0.000999999)
(1.03344e-11 6.16148e-10 -0.000999999)
(1.53995e-11 3.95161e-10 -0.000999999)
(1.1705e-11 6.71924e-10 -0.000999999)
(2.52205e-11 6.41987e-10 -0.000999999)
(-1.86051e-11 5.60836e-10 -0.000999999)
(-4.76869e-11 5.11199e-10 -0.000999999)
(-7.52829e-11 4.57478e-10 -0.000999999)
(-3.56117e-12 4.24704e-10 -0.000999999)
(-2.3394e-11 3.99232e-10 -0.000999999)
(-7.48504e-11 3.54027e-10 -0.000999999)
(-9.29883e-11 3.17799e-10 -0.000999999)
(-1.18337e-10 2.87436e-10 -0.000999999)
(-1.43857e-11 1.46085e-10 -0.000999998)
(-4.61469e-11 1.35489e-10 -0.000999998)
(-9.99293e-11 1.23595e-10 -0.000999998)
(-1.13888e-10 1.10364e-10 -0.000999999)
(-1.35439e-10 1.02302e-10 -0.000999999)
(6.80975e-11 1.29763e-09 -0.000999999)
(1.92614e-10 1.25152e-09 -0.000999999)
(1.33176e-10 1.1564e-09 -0.000999999)
(1.28531e-10 1.04431e-09 -0.001)
(-1.77219e-10 1.1777e-09 -0.001)
(3.0243e-11 1.35349e-09 -0.000999999)
(5.44729e-11 1.28541e-09 -0.000999999)
(-3.19325e-11 1.13576e-09 -0.000999999)
(-7.89938e-11 1.04701e-09 -0.000999999)
(-9.52814e-11 8.6278e-10 -0.000999999)
(-2.1265e-12 1.03972e-09 -0.000999998)
(-2.75827e-11 9.86191e-10 -0.000999998)
(-1.05346e-10 9.06609e-10 -0.000999999)
(-1.44394e-10 8.60886e-10 -0.000999999)
(-1.71686e-10 7.92138e-10 -0.000999999)
(-2.49452e-11 6.56578e-10 -0.000999998)
(-8.0532e-11 6.26243e-10 -0.000999998)
(-1.57294e-10 5.83572e-10 -0.000999998)
(-1.93404e-10 5.45923e-10 -0.000999998)
(-2.28339e-10 5.0443e-10 -0.000999998)
(-3.34834e-11 2.24613e-10 -0.000999998)
(-1.0167e-10 2.16427e-10 -0.000999998)
(-1.85451e-10 2.0383e-10 -0.000999998)
(-2.22993e-10 1.8813e-10 -0.000999998)
(-2.56361e-10 1.73705e-10 -0.000999998)
(2.72607e-11 1.81259e-09 -0.000999999)
(1.43015e-11 1.78014e-09 -0.000999999)
(-1.26331e-10 1.73839e-09 -0.000999999)
(-1.721e-10 1.71329e-09 -0.000999999)
(-3.13491e-10 1.81833e-09 -0.001)
(-1.20892e-11 1.78708e-09 -0.000999998)
(-7.78745e-11 1.72184e-09 -0.000999998)
(-2.03123e-10 1.6407e-09 -0.000999999)
(-2.42493e-10 1.60633e-09 -0.000999999)
(-2.69433e-10 1.51923e-09 -0.000999999)
(-4.09751e-11 1.40949e-09 -0.000999998)
(-1.35483e-10 1.36777e-09 -0.000999998)
(-2.42097e-10 1.32144e-09 -0.000999998)
(-2.93609e-10 1.29245e-09 -0.000999998)
(-3.27329e-10 1.22198e-09 -0.000999998)
(-5.62463e-11 9.02593e-10 -0.000999997)
(-1.68622e-10 8.84774e-10 -0.000999997)
(-2.78585e-10 8.57479e-10 -0.000999998)
(-3.4188e-10 8.22287e-10 -0.000999998)
(-3.91207e-10 7.72746e-10 -0.000999998)
(-6.02473e-11 3.12422e-10 -0.000999997)
(-1.82022e-10 3.08884e-10 -0.000999997)
(-3.04193e-10 2.99415e-10 -0.000999997)
(-3.77584e-10 2.82934e-10 -0.000999997)
(-4.28617e-10 2.63058e-10 -0.000999998)
(-6.77324e-11 2.4934e-09 -0.000999998)
(-2.47551e-10 2.50363e-09 -0.000999999)
(-4.32984e-10 2.52283e-09 -0.000999999)
(-4.7276e-10 2.56968e-09 -0.000999999)
(-5.04471e-10 2.6364e-09 -0.000999999)
(-7.89554e-11 2.34533e-09 -0.000999998)
(-2.55693e-10 2.32668e-09 -0.000999998)
(-4.17924e-10 2.32639e-09 -0.000999998)
(-4.51669e-10 2.33785e-09 -0.000999998)
(-4.93232e-10 2.30401e-09 -0.000999998)
(-9.04139e-11 1.89657e-09 -0.000999997)
(-2.70949e-10 1.884e-09 -0.000999997)
(-4.22165e-10 1.87247e-09 -0.000999997)
(-4.95179e-10 1.85604e-09 -0.000999997)
(-5.52772e-10 1.7735e-09 -0.000999998)
(-9.48267e-11 1.22803e-09 -0.000999996)
(-2.83336e-10 1.22475e-09 -0.000999997)
(-4.46045e-10 1.20966e-09 -0.000999997)
(-5.50517e-10 1.17798e-09 -0.000999997)
(-6.23989e-10 1.11281e-09 -0.000999997)
(-9.5622e-11 4.2789e-10 -0.000999996)
(-2.91085e-10 4.27673e-10 -0.000999996)
(-4.6825e-10 4.20482e-10 -0.000999996)
(-5.90833e-10 4.0479e-10 -0.000999997)
(-6.68804e-10 3.79113e-10 -0.000999997)
(-1.69964e-10 3.47535e-09 -0.000999998)
(-4.91534e-10 3.52423e-09 -0.000999998)
(-7.0552e-10 3.5766e-09 -0.000999999)
(-7.57168e-10 3.63701e-09 -0.000999999)
(-8.12911e-10 3.68602e-09 -0.000999999)
(-1.51072e-10 3.19404e-09 -0.000999997)
(-4.41582e-10 3.22398e-09 -0.000999997)
(-6.5853e-10 3.26288e-09 -0.000999997)
(-7.35359e-10 3.27567e-09 -0.000999998)
(-8.14671e-10 3.23498e-09 -0.000999998)
(-1.45591e-10 2.59528e-09 -0.000999996)
(-4.28696e-10 2.60716e-09 -0.000999996)
(-6.54289e-10 2.60792e-09 -0.000999996)
(-7.85109e-10 2.58618e-09 -0.000999997)
(-8.83449e-10 2.49633e-09 -0.000999997)
(-1.43671e-10 1.68079e-09 -0.000999995)
(-4.33754e-10 1.68311e-09 -0.000999995)
(-6.79739e-10 1.66908e-09 -0.000999996)
(-8.46803e-10 1.63681e-09 -0.000999996)
(-9.51539e-10 1.56951e-09 -0.000999996)
(-1.45864e-10 5.83634e-10 -0.000999995)
(-4.42692e-10 5.82186e-10 -0.000999995)
(-6.9951e-10 5.75025e-10 -0.000999995)
(-8.82965e-10 5.61316e-10 -0.000999996)
(-9.9318e-10 5.37337e-10 -0.000999996)
(-2.57065e-10 4.84659e-09 -0.000999998)
(-7.00787e-10 4.90855e-09 -0.000999998)
(-9.84318e-10 4.95512e-09 -0.000999998)
(-1.1308e-09 4.99648e-09 -0.000999998)
(-1.27857e-09 5.03366e-09 -0.000999999)
(-2.23872e-10 4.4228e-09 -0.000999996)
(-6.43773e-10 4.47498e-09 -0.000999996)
(-9.63907e-10 4.50146e-09 -0.000999996)
(-1.14653e-09 4.48662e-09 -0.000999997)
(-1.27912e-09 4.43525e-09 -0.000999997)
(-2.12667e-10 3.55829e-09 -0.000999995)
(-6.30414e-10 3.57517e-09 -0.000999995)
(-9.73283e-10 3.56656e-09 -0.000999995)
(-1.19699e-09 3.53577e-09 -0.000999996)
(-1.34483e-09 3.46238e-09 -0.000999996)
(-2.13141e-10 2.28997e-09 -0.000999994)
(-6.42093e-10 2.28574e-09 -0.000999994)
(-1.00363e-09 2.26927e-09 -0.000999994)
(-1.25051e-09 2.24198e-09 -0.000999995)
(-1.39409e-09 2.19605e-09 -0.000999995)
(-2.20394e-10 7.88206e-10 -0.000999993)
(-6.54126e-10 7.81914e-10 -0.000999993)
(-1.01546e-09 7.76483e-10 -0.000999994)
(-1.26782e-09 7.68421e-10 -0.000999994)
(-1.41668e-09 7.56982e-10 -0.000999995)
(-3.37361e-10 6.6639e-09 -0.000999997)
(-9.32104e-10 6.7125e-09 -0.000999997)
(-1.37116e-09 6.72808e-09 -0.000999997)
(-1.68672e-09 6.73818e-09 -0.000999998)
(-1.89275e-09 6.77452e-09 -0.000999998)
(-3.1058e-10 6.0692e-09 -0.000999995)
(-9.03244e-10 6.10861e-09 -0.000999995)
(-1.3865e-09 6.10124e-09 -0.000999995)
(-1.71094e-09 6.06753e-09 -0.000999996)
(-1.9097e-09 6.03524e-09 -0.000999996)
(-3.08574e-10 4.8299e-09 -0.000999993)
(-9.11432e-10 4.83244e-09 -0.000999993)
(-1.4131e-09 4.81219e-09 -0.000999993)
(-1.75274e-09 4.78502e-09 -0.000999994)
(-1.9534e-09 4.745e-09 -0.000999995)
(-3.16285e-10 3.0886e-09 -0.000999992)
(-9.29814e-10 3.07666e-09 -0.000999992)
(-1.43437e-09 3.06628e-09 -0.000999992)
(-1.77785e-09 3.0563e-09 -0.000999993)
(-1.97685e-09 3.04719e-09 -0.000999993)
(-3.25194e-10 1.05668e-09 -0.000999991)
(-9.37757e-10 1.04901e-09 -0.000999991)
(-1.43125e-09 1.04907e-09 -0.000999992)
(-1.76858e-09 1.04983e-09 -0.000999992)
(-1.97377e-09 1.05528e-09 -0.000999993)
(-4.40624e-10 9.03285e-09 -0.000999995)
(-1.26378e-09 9.05649e-09 -0.000999996)
(-1.94052e-09 9.0394e-09 -0.000999996)
(-2.44582e-09 9.02433e-09 -0.000999997)
(-2.67914e-09 9.03376e-09 -0.000999998)
(-4.36118e-10 8.20785e-09 -0.000999993)
(-1.27384e-09 8.21417e-09 -0.000999993)
(-1.9729e-09 8.18555e-09 -0.000999994)
(-2.4623e-09 8.15356e-09 -0.000999994)
(-2.7352e-09 8.13681e-09 -0.000999995)
(-4.48357e-10 6.50086e-09 -0.00099999)
(-1.30132e-09 6.48926e-09 -0.000999991)
(-2.00231e-09 6.47075e-09 -0.000999991)
(-2.49458e-09 6.45752e-09 -0.000999992)
(-2.76017e-09 6.44886e-09 -0.000999993)
(-4.58684e-10 4.15171e-09 -0.000999989)
(-1.31578e-09 4.14415e-09 -0.000999989)
(-2.00524e-09 4.14552e-09 -0.00099999)
(-2.48381e-09 4.15355e-09 -0.00099999)
(-2.76241e-09 4.17935e-09 -0.000999991)
(-4.62157e-10 1.42114e-09 -0.000999988)
(-1.31279e-09 1.41929e-09 -0.000999988)
(-1.98987e-09 1.42449e-09 -0.000999989)
(-2.45629e-09 1.43153e-09 -0.000999989)
(-2.74251e-09 1.44788e-09 -0.00099999)
(-6.0671e-10 1.21826e-08 -0.000999994)
(-1.7665e-09 1.21922e-08 -0.000999994)
(-2.748e-09 1.21591e-08 -0.000999995)
(-3.47744e-09 1.213e-08 -0.000999996)
(-3.75196e-09 1.20823e-08 -0.000999997)
(-6.20148e-10 1.10405e-08 -0.00099999)
(-1.79661e-09 1.10279e-08 -0.00099999)
(-2.77697e-09 1.1e-08 -0.000999991)
(-3.48643e-09 1.09775e-08 -0.000999992)
(-3.84585e-09 1.09645e-08 -0.000999994)
(-6.3796e-10 8.75442e-09 -0.000999987)
(-1.82743e-09 8.74512e-09 -0.000999987)
(-2.80005e-09 8.73282e-09 -0.000999988)
(-3.51297e-09 8.72883e-09 -0.000999989)
(-3.86791e-09 8.73557e-09 -0.000999991)
(-6.44246e-10 5.60906e-09 -0.000999985)
(-1.83417e-09 5.6143e-09 -0.000999985)
(-2.79409e-09 5.61897e-09 -0.000999986)
(-3.48315e-09 5.6314e-09 -0.000999987)
(-3.86409e-09 5.66831e-09 -0.000999988)
(-6.41152e-10 1.92809e-09 -0.000999983)
(-1.82461e-09 1.93336e-09 -0.000999984)
(-2.77874e-09 1.9381e-09 -0.000999985)
(-3.45735e-09 1.9444e-09 -0.000999986)
(-3.84519e-09 1.95815e-09 -0.000999987)
(-8.57292e-10 1.6481e-08 -0.000999991)
(-2.47854e-09 1.64962e-08 -0.000999992)
(-3.84096e-09 1.64585e-08 -0.000999993)
(-4.87278e-09 1.6413e-08 -0.000999995)
(-5.28144e-09 1.63306e-08 -0.000999996)
(-8.69729e-10 1.49165e-08 -0.000999987)
(-2.50452e-09 1.49159e-08 -0.000999987)
(-3.87171e-09 1.489e-08 -0.000999988)
(-4.89321e-09 1.48595e-08 -0.00099999)
(-5.36525e-09 1.48388e-08 -0.000999991)
(-8.8335e-10 1.18528e-08 -0.000999982)
(-2.53277e-09 1.18548e-08 -0.000999983)
(-3.89954e-09 1.18349e-08 -0.000999984)
(-4.92401e-09 1.18214e-08 -0.000999985)
(-5.40671e-09 1.18207e-08 -0.000999987)
(-8.87971e-10 7.61881e-09 -0.000999979)
(-2.54411e-09 7.62977e-09 -0.00099998)
(-3.90623e-09 7.62313e-09 -0.000999981)
(-4.90677e-09 7.62137e-09 -0.000999982)
(-5.41466e-09 7.63902e-09 -0.000999984)
(-8.83863e-10 2.62636e-09 -0.000999978)
(-2.53801e-09 2.63343e-09 -0.000999978)
(-3.90203e-09 2.63305e-09 -0.000999979)
(-4.89928e-09 2.63163e-09 -0.000999981)
(-5.40774e-09 2.6325e-09 -0.000999983)
(-1.19027e-09 2.23866e-08 -0.000999988)
(-3.41719e-09 2.24136e-08 -0.000999989)
(-5.27855e-09 2.23632e-08 -0.000999991)
(-6.69269e-09 2.22825e-08 -0.000999993)
(-7.36939e-09 2.21845e-08 -0.000999995)
(-1.19412e-09 2.02631e-08 -0.000999982)
(-3.44723e-09 2.02817e-08 -0.000999982)
(-5.34936e-09 2.02304e-08 -0.000999984)
(-6.77481e-09 2.01559e-08 -0.000999986)
(-7.4445e-09 2.00843e-08 -0.000999988)
(-1.20645e-09 1.60998e-08 -0.000999976)
(-3.48771e-09 1.61046e-08 -0.000999977)
(-5.40742e-09 1.60589e-08 -0.000999978)
(-6.83888e-09 1.60124e-08 -0.00099998)
(-7.51377e-09 1.59734e-08 -0.000999983)
(-1.21695e-09 1.03569e-08 -0.000999972)
(-3.51776e-09 1.03628e-08 -0.000999972)
(-5.44313e-09 1.03365e-08 -0.000999974)
(-6.85927e-09 1.03089e-08 -0.000999976)
(-7.54056e-09 1.02971e-08 -0.000999978)
(-1.21611e-09 3.57144e-09 -0.000999969)
(-3.52101e-09 3.57628e-09 -0.00099997)
(-5.45303e-09 3.5689e-09 -0.000999972)
(-6.86592e-09 3.55801e-09 -0.000999974)
(-7.53934e-09 3.55103e-09 -0.000999976)
(-1.62e-09 3.04319e-08 -0.000999984)
(-4.66218e-09 3.04619e-08 -0.000999985)
(-7.21894e-09 3.03895e-08 -0.000999987)
(-9.13991e-09 3.02782e-08 -0.00099999)
(-1.01899e-08 3.01527e-08 -0.000999993)
(-1.62893e-09 2.75492e-08 -0.000999975)
(-4.72787e-09 2.75685e-08 -0.000999976)
(-7.35677e-09 2.74693e-08 -0.000999978)
(-9.30261e-09 2.73351e-08 -0.000999981)
(-1.02869e-08 2.72034e-08 -0.000999984)
(-1.64815e-09 2.18646e-08 -0.000999967)
(-4.79351e-09 2.18653e-08 -0.000999968)
(-7.45638e-09 2.17901e-08 -0.00099997)
(-9.40591e-09 2.17027e-08 -0.000999973)
(-1.03681e-08 2.16327e-08 -0.000999976)
(-1.66561e-09 1.40589e-08 -0.000999961)
(-4.84249e-09 1.40576e-08 -0.000999962)
(-7.52144e-09 1.40132e-08 -0.000999964)
(-9.45863e-09 1.39655e-08 -0.000999967)
(-1.03983e-08 1.39407e-08 -0.000999971)
(-1.67043e-09 4.84571e-09 -0.000999958)
(-4.85642e-09 4.84627e-09 -0.000999959)
(-7.53702e-09 4.83262e-09 -0.000999961)
(-9.46156e-09 4.81909e-09 -0.000999964)
(-1.03909e-08 4.81423e-09 -0.000999968)
(-2.21371e-09 4.13186e-08 -0.000999978)
(-6.40768e-09 4.13517e-08 -0.00099998)
(-9.96271e-09 4.12725e-08 -0.000999983)
(-1.26144e-08 4.11668e-08 -0.000999987)
(-1.4083e-08 4.10574e-08 -0.000999991)
(-2.23719e-09 3.73883e-08 -0.000999966)
(-6.50739e-09 3.74041e-08 -0.000999967)
(-1.01264e-08 3.72781e-08 -0.00099997)
(-1.27728e-08 3.71291e-08 -0.000999974)
(-1.41724e-08 3.70222e-08 -0.000999978)
(-2.26206e-09 2.9667e-08 -0.000999955)
(-6.58749e-09 2.96719e-08 -0.000999957)
(-1.02432e-08 2.95829e-08 -0.00099996)
(-1.28705e-08 2.94809e-08 -0.000999963)
(-1.42362e-08 2.94215e-08 -0.000999968)
(-2.28269e-09 1.90697e-08 -0.000999948)
(-6.64555e-09 1.90657e-08 -0.000999949)
(-1.03203e-08 1.90165e-08 -0.000999952)
(-1.29324e-08 1.89669e-08 -0.000999956)
(-1.42539e-08 1.89347e-08 -0.00099996)
(-2.29426e-09 6.56978e-09 -0.000999943)
(-6.6638e-09 6.56542e-09 -0.000999945)
(-1.03264e-08 6.55253e-09 -0.000999948)
(-1.29293e-08 6.5434e-09 -0.000999951)
(-1.42415e-08 6.53453e-09 -0.000999956)
(-3.06173e-09 5.60635e-08 -0.000999971)
(-8.88078e-09 5.61217e-08 -0.000999973)
(-1.3815e-08 5.60575e-08 -0.000999977)
(-1.74612e-08 5.59787e-08 -0.000999982)
(-1.94084e-08 5.59276e-08 -0.000999988)
(-3.08816e-09 5.06962e-08 -0.000999954)
(-8.97203e-09 5.07323e-08 -0.000999956)
(-1.39409e-08 5.06244e-08 -0.00099996)
(-1.75409e-08 5.05141e-08 -0.000999965)
(-1.94502e-08 5.04798e-08 -0.000999971)
(-3.11221e-09 4.02484e-08 -0.000999939)
(-9.04662e-09 4.02708e-08 -0.000999941)
(-1.40408e-08 4.01918e-08 -0.000999945)
(-1.7606e-08 4.0107e-08 -0.00099995)
(-1.94983e-08 4.00585e-08 -0.000999956)
(-3.13384e-09 2.58719e-08 -0.000999929)
(-9.1018e-09 2.58766e-08 -0.000999931)
(-1.41086e-08 2.58385e-08 -0.000999935)
(-1.76718e-08 2.57929e-08 -0.00099994)
(-1.95199e-08 2.57327e-08 -0.000999946)
(-3.14563e-09 8.91067e-09 -0.000999923)
(-9.11133e-09 8.90856e-09 -0.000999925)
(-1.41031e-08 8.90237e-09 -0.000999929)
(-1.76804e-08 8.89233e-09 -0.000999934)
(-1.95164e-08 8.86509e-09 -0.00099994)
(-4.23388e-09 7.60906e-08 -0.00099996)
(-1.22746e-08 7.61958e-08 -0.000999963)
(-1.90557e-08 7.61454e-08 -0.000999968)
(-2.39838e-08 7.6073e-08 -0.000999976)
(-2.65912e-08 7.60466e-08 -0.000999984)
(-4.25206e-09 6.87737e-08 -0.000999937)
(-1.23324e-08 6.88488e-08 -0.00099994)
(-1.91379e-08 6.878e-08 -0.000999945)
(-2.40445e-08 6.87023e-08 -0.000999952)
(-2.66192e-08 6.86517e-08 -0.000999961)
(-4.27563e-09 5.46239e-08 -0.000999918)
(-1.23952e-08 5.46727e-08 -0.000999921)
(-1.92124e-08 5.46151e-08 -0.000999926)
(-2.41124e-08 5.45469e-08 -0.000999933)
(-2.66808e-08 5.44611e-08 -0.000999941)
(-4.29534e-09 3.51251e-08 -0.000999904)
(-1.24402e-08 3.51521e-08 -0.000999906)
(-1.92689e-08 3.51222e-08 -0.000999911)
(-2.4195e-08 3.50703e-08 -0.000999918)
(-2.67353e-08 3.49781e-08 -0.000999927)
(-4.30004e-09 1.21005e-08 -0.000999896)
(-1.24403e-08 1.21089e-08 -0.000999899)
(-1.92653e-08 1.2102e-08 -0.000999904)
(-2.42137e-08 1.20831e-08 -0.000999911)
(-2.67449e-08 1.20442e-08 -0.000999919)
(-5.80921e-09 1.03306e-07 -0.000999946)
(-1.68448e-08 1.03462e-07 -0.00099995)
(-2.6131e-08 1.03417e-07 -0.000999957)
(-3.28165e-08 1.03336e-07 -0.000999967)
(-3.6337e-08 1.03305e-07 -0.000999978)
(-5.82577e-09 9.33592e-08 -0.000999915)
(-1.68824e-08 9.34734e-08 -0.000999919)
(-2.61923e-08 9.34353e-08 -0.000999926)
(-3.29052e-08 9.33621e-08 -0.000999935)
(-3.63982e-08 9.32496e-08 -0.000999947)
(-5.85316e-09 7.41711e-08 -0.000999888)
(-1.69406e-08 7.42512e-08 -0.000999892)
(-2.62563e-08 7.42044e-08 -0.000999899)
(-3.30026e-08 7.4135e-08 -0.000999909)
(-3.64771e-08 7.40097e-08 -0.00099992)
(-5.87032e-09 4.77242e-08 -0.000999869)
(-1.69831e-08 4.77743e-08 -0.000999873)
(-2.63157e-08 4.77364e-08 -0.00099988)
(-3.30953e-08 4.76771e-08 -0.000999889)
(-3.65587e-08 4.75921e-08 -0.0009999)
(-5.87276e-09 1.64508e-08 -0.000999858)
(-1.69856e-08 1.64661e-08 -0.000999862)
(-2.63142e-08 1.64506e-08 -0.000999869)
(-3.30889e-08 1.64277e-08 -0.000999879)
(-3.65599e-08 1.64038e-08 -0.00099989)
(-7.93677e-09 1.40283e-07 -0.000999927)
(-2.3024e-08 1.40489e-07 -0.000999932)
(-3.57318e-08 1.40456e-07 -0.000999942)
(-4.48838e-08 1.40388e-07 -0.000999955)
(-4.95948e-08 1.40356e-07 -0.00099997)
(-7.96083e-09 1.26787e-07 -0.000999885)
(-2.30584e-08 1.26944e-07 -0.00099989)
(-3.5773e-08 1.2692e-07 -0.000999899)
(-4.49491e-08 1.2685e-07 -0.000999912)
(-4.96965e-08 1.26754e-07 -0.000999927)
(-7.99401e-09 1.00773e-07 -0.000999848)
(-2.31242e-08 1.00886e-07 -0.000999853)
(-3.58445e-08 1.00833e-07 -0.000999863)
(-4.50504e-08 1.00754e-07 -0.000999876)
(-4.97819e-08 1.00646e-07 -0.000999891)
(-8.01594e-09 6.48787e-08 -0.000999822)
(-2.31794e-08 6.4947e-08 -0.000999827)
(-3.59146e-08 6.48981e-08 -0.000999836)
(-4.51304e-08 6.48357e-08 -0.000999849)
(-4.986e-08 6.47852e-08 -0.000999865)
(-8.02014e-09 2.23745e-08 -0.000999807)
(-2.31824e-08 2.23944e-08 -0.000999812)
(-3.5903e-08 2.23747e-08 -0.000999822)
(-4.50851e-08 2.23522e-08 -0.000999835)
(-4.98271e-08 2.23483e-08 -0.00099985)
(-1.08414e-08 1.90567e-07 -0.000999901)
(-3.14276e-08 1.90829e-07 -0.000999908)
(-4.87579e-08 1.90812e-07 -0.000999921)
(-6.12475e-08 1.90764e-07 -0.000999939)
(-6.75749e-08 1.90724e-07 -0.000999959)
(-1.08729e-08 1.72273e-07 -0.000999843)
(-3.147e-08 1.72489e-07 -0.00099985)
(-4.87923e-08 1.72458e-07 -0.000999863)
(-6.12812e-08 1.72382e-07 -0.000999881)
(-6.76972e-08 1.7233e-07 -0.000999901)
(-1.09145e-08 1.37008e-07 -0.000999794)
(-3.15571e-08 1.37162e-07 -0.0009998)
(-4.88903e-08 1.37091e-07 -0.000999813)
(-6.13767e-08 1.36987e-07 -0.000999831)
(-6.78088e-08 1.36908e-07 -0.000999852)
(-1.09475e-08 8.82517e-08 -0.000999757)
(-3.16333e-08 8.83463e-08 -0.000999764)
(-4.89804e-08 8.82826e-08 -0.000999777)
(-6.14553e-08 8.81971e-08 -0.000999795)
(-6.78919e-08 8.81471e-08 -0.000999816)
(-1.09478e-08 3.04458e-08 -0.000999738)
(-3.16315e-08 3.04781e-08 -0.000999745)
(-4.89684e-08 3.04522e-08 -0.000999758)
(-6.14071e-08 3.04178e-08 -0.000999776)
(-6.7831e-08 3.04043e-08 -0.000999796)
(-1.47976e-08 2.59006e-07 -0.000999866)
(-4.28506e-08 2.59347e-07 -0.000999875)
(-6.64272e-08 2.59313e-07 -0.000999893)
(-8.33917e-08 2.5925e-07 -0.000999917)
(-9.19602e-08 2.59196e-07 -0.000999945)
(-1.48456e-08 2.34255e-07 -0.000999787)
(-4.29381e-08 2.34538e-07 -0.000999796)
(-6.65129e-08 2.34459e-07 -0.000999814)
(-8.34616e-08 2.34324e-07 -0.000999838)
(-9.20705e-08 2.3423e-07 -0.000999866)
(-1.49065e-08 1.86425e-07 -0.000999719)
(-4.30734e-08 1.86623e-07 -0.000999729)
(-6.66758e-08 1.86503e-07 -0.000999746)
(-8.36211e-08 1.86328e-07 -0.000999771)
(-9.22576e-08 1.86192e-07 -0.000999799)
(-1.49565e-08 1.2015e-07 -0.00099967)
(-4.31927e-08 1.20271e-07 -0.000999679)
(-6.68255e-08 1.20161e-07 -0.000999697)
(-8.37614e-08 1.20008e-07 -0.000999721)
(-9.24239e-08 1.19882e-07 -0.00099975)
(-1.49584e-08 4.14678e-08 -0.000999643)
(-4.32057e-08 4.15102e-08 -0.000999653)
(-6.68443e-08 4.14616e-08 -0.000999671)
(-8.37594e-08 4.13948e-08 -0.000999695)
(-9.23817e-08 4.13351e-08 -0.000999724)
(-2.01652e-08 3.52133e-07 -0.000999818)
(-5.83775e-08 3.5258e-07 -0.000999831)
(-9.04472e-08 3.52491e-07 -0.000999855)
(-1.13426e-07 3.5236e-07 -0.000999888)
(-1.25001e-07 3.52277e-07 -0.000999926)
(-2.02636e-08 3.18789e-07 -0.00099971)
(-5.85853e-08 3.19113e-07 -0.000999723)
(-9.06683e-08 3.1891e-07 -0.000999747)
(-1.13622e-07 3.18626e-07 -0.00099978)
(-1.25146e-07 3.1835e-07 -0.000999819)
(-2.03711e-08 2.53898e-07 -0.000999618)
(-5.88341e-08 2.54117e-07 -0.000999631)
(-9.09825e-08 2.53875e-07 -0.000999655)
(-1.13988e-07 2.53538e-07 -0.000999689)
(-1.25495e-07 2.53177e-07 -0.000999727)
(-2.04617e-08 1.63754e-07 -0.000999551)
(-5.90582e-08 1.63876e-07 -0.000999563)
(-9.12724e-08 1.63663e-07 -0.000999588)
(-1.14304e-07 1.63371e-07 -0.000999621)
(-1.25875e-07 1.63058e-07 -0.00099966)
(-2.04835e-08 5.65427e-08 -0.000999514)
(-5.912e-08 5.65813e-08 -0.000999527)
(-9.13609e-08 5.64914e-08 -0.000999552)
(-1.14404e-07 5.6364e-08 -0.000999585)
(-1.25924e-07 5.62209e-08 -0.000999624)
(-2.74965e-08 4.78789e-07 -0.000999753)
(-7.95814e-08 4.79357e-07 -0.000999771)
(-1.23176e-07 4.79184e-07 -0.000999804)
(-1.54196e-07 4.78936e-07 -0.000999848)
(-1.69702e-07 4.78756e-07 -0.0009999)
(-2.7678e-08 4.34096e-07 -0.000999607)
(-7.99834e-08 4.34431e-07 -0.000999624)
(-1.23633e-07 4.33999e-07 -0.000999657)
(-1.54655e-07 4.33421e-07 -0.000999702)
(-1.70059e-07 4.32785e-07 -0.000999754)
(-2.78773e-08 3.46149e-07 -0.00099948)
(-8.04597e-08 3.4634e-07 -0.000999498)
(-1.24252e-07 3.45847e-07 -0.000999532)
(-1.55412e-07 3.45177e-07 -0.000999577)
(-1.70758e-07 3.44393e-07 -0.00099963)
(-2.80514e-08 2.23475e-07 -0.000999388)
(-8.08943e-08 2.23561e-07 -0.000999406)
(-1.24829e-07 2.23148e-07 -0.00099944)
(-1.56087e-07 2.22583e-07 -0.000999485)
(-1.71521e-07 2.21943e-07 -0.000999539)
(-2.81086e-08 7.72069e-08 -0.000999338)
(-8.10521e-08 7.72319e-08 -0.000999356)
(-1.25062e-07 7.70655e-08 -0.00099939)
(-1.56367e-07 7.68292e-08 -0.000999436)
(-1.71765e-07 7.65598e-08 -0.000999489)
(-3.75769e-08 6.51086e-07 -0.000999666)
(-1.08658e-07 6.51772e-07 -0.00099969)
(-1.67863e-07 6.51436e-07 -0.000999735)
(-2.09633e-07 6.50985e-07 -0.000999796)
(-2.30195e-07 6.50613e-07 -0.000999866)
(-3.78658e-08 5.9149e-07 -0.000999466)
(-1.09331e-07 5.91808e-07 -0.00099949)
(-1.68703e-07 5.90984e-07 -0.000999535)
(-2.10554e-07 5.89867e-07 -0.000999597)
(-2.30978e-07 5.88647e-07 -0.000999668)
(-3.82252e-08 4.72538e-07 -0.000999293)
(-1.1022e-07 4.72616e-07 -0.000999318)
(-1.69893e-07 4.7164e-07 -0.000999364)
(-2.11972e-07 4.70327e-07 -0.000999426)
(-2.32384e-07 4.68857e-07 -0.000999498)
(-3.85496e-08 3.05515e-07 -0.000999166)
(-1.11052e-07 3.05494e-07 -0.00099919)
(-1.71038e-07 3.04685e-07 -0.000999237)
(-2.13309e-07 3.03602e-07 -0.000999301)
(-2.33807e-07 3.02419e-07 -0.000999373)
(-3.86763e-08 1.05636e-07 -0.000999097)
(-1.11412e-07 1.05621e-07 -0.000999122)
(-1.71563e-07 1.05302e-07 -0.000999169)
(-2.13907e-07 1.04873e-07 -0.000999232)
(-2.34438e-07 1.04407e-07 -0.000999306)
(-5.14165e-08 8.85585e-07 -0.000999548)
(-1.48511e-07 8.86369e-07 -0.000999581)
(-2.28894e-07 8.85683e-07 -0.000999643)
(-2.85015e-07 8.84801e-07 -0.000999726)
(-3.11977e-07 8.84073e-07 -0.000999821)
(-5.18982e-08 8.06743e-07 -0.000999275)
(-1.49676e-07 8.06904e-07 -0.000999309)
(-2.30436e-07 8.05329e-07 -0.000999371)
(-2.86746e-07 8.03193e-07 -0.000999455)
(-3.13508e-07 8.00974e-07 -0.000999551)
(-5.25568e-08 6.46227e-07 -0.000999038)
(-1.51349e-07 6.45982e-07 -0.000999072)
(-2.32725e-07 6.4407e-07 -0.000999136)
(-2.89373e-07 6.4152e-07 -0.000999221)
(-3.16253e-07 6.38828e-07 -0.000999319)
(-5.31682e-08 4.18675e-07 -0.000998862)
(-1.52944e-07 4.18358e-07 -0.000998897)
(-2.34961e-07 4.16795e-07 -0.000998962)
(-2.9195e-07 4.14718e-07 -0.000999049)
(-3.18894e-07 4.12531e-07 -0.000999149)
(-5.34536e-08 1.44928e-07 -0.000998766)
(-1.53724e-07 1.44796e-07 -0.000998801)
(-2.36077e-07 1.44191e-07 -0.000998867)
(-2.93205e-07 1.43391e-07 -0.000998956)
(-3.20254e-07 1.42551e-07 -0.000999056)
(-7.03874e-08 1.2048e-06 -0.000999391)
(-2.03075e-07 1.20555e-06 -0.000999437)
(-3.12159e-07 1.20417e-06 -0.000999521)
(-3.87279e-07 1.20233e-06 -0.000999634)
(-4.22205e-07 1.20094e-06 -0.000999762)
(-7.12885e-08 1.10191e-06 -0.000999017)
(-2.05298e-07 1.10149e-06 -0.000999064)
(-3.15158e-07 1.09838e-06 -0.00099915)
(-3.90553e-07 1.09419e-06 -0.000999265)
(-4.25231e-07 1.09012e-06 -0.000999395)
(-7.25515e-08 8.85933e-07 -0.00099869)
(-2.08522e-07 8.84857e-07 -0.000998738)
(-3.19629e-07 8.81143e-07 -0.000998826)
(-3.95546e-07 8.76152e-07 -0.000998945)
(-4.30456e-07 8.712e-07 -0.000999079)
(-7.374e-08 5.75631e-07 -0.000998445)
(-2.11583e-07 5.746e-07 -0.000998494)
(-3.23949e-07 5.71631e-07 -0.000998586)
(-4.00446e-07 5.67586e-07 -0.000998708)
(-4.3543e-07 5.63561e-07 -0.000998844)
(-7.4363e-08 1.99575e-07 -0.000998311)
(-2.13199e-07 1.99162e-07 -0.000998361)
(-3.26273e-07 1.98032e-07 -0.000998454)
(-4.03058e-07 1.96471e-07 -0.000998579)
(-4.38109e-07 1.94931e-07 -0.000998716)
(-9.64336e-08 1.63942e-06 -0.000999182)
(-2.77955e-07 1.63963e-06 -0.000999245)
(-4.25828e-07 1.6369e-06 -0.000999361)
(-5.25673e-07 1.63292e-06 -0.000999514)
(-5.7027e-07 1.63053e-06 -0.000999686)
(-9.82284e-08 1.50798e-06 -0.00099867)
(-2.82332e-07 1.50602e-06 -0.000998735)
(-4.31848e-07 1.49993e-06 -0.000998855)
(-5.31947e-07 1.49141e-06 -0.000999013)
(-5.76299e-07 1.48409e-06 -0.000999188)
(-1.00739e-07 1.21873e-06 -0.000998215)
(-2.88581e-07 1.21567e-06 -0.000998283)
(-4.40659e-07 1.20861e-06 -0.000998407)
(-5.41517e-07 1.19858e-06 -0.000998574)
(-5.86158e-07 1.18976e-06 -0.000998754)
(-1.03123e-07 7.95054e-07 -0.000997871)
(-2.94459e-07 7.92374e-07 -0.000997943)
(-4.49057e-07 7.86854e-07 -0.000998072)
(-5.50724e-07 7.78762e-07 -0.000998247)
(-5.95497e-07 7.71777e-07 -0.000998431)
(-1.04463e-07 2.76256e-07 -0.000997682)
(-2.97709e-07 2.75203e-07 -0.000997756)
(-4.5381e-07 2.73128e-07 -0.000997886)
(-5.55889e-07 2.69999e-07 -0.000998067)
(-6.00647e-07 2.6736e-07 -0.000998252)
(-1.3212e-07 2.23115e-06 -0.000998909)
(-3.81053e-07 2.22947e-06 -0.000998994)
(-5.81303e-07 2.22447e-06 -0.000999156)
(-7.12372e-07 2.21521e-06 -0.000999363)
(-7.68533e-07 2.21226e-06 -0.000999592)
(-1.35875e-07 2.0693e-06 -0.000998204)
(-3.89607e-07 2.06344e-06 -0.000998295)
(-5.93573e-07 2.05216e-06 -0.000998462)
(-7.24287e-07 2.03388e-06 -0.000998684)
(-7.80505e-07 2.02216e-06 -0.000998914)
(-1.4107e-07 1.68474e-06 -0.000997566)
(-4.0163e-07 1.67693e-06 -0.000997665)
(-6.1117e-07 1.66419e-06 -0.000997839)
(-7.42381e-07 1.64285e-06 -0.000998081)
(-7.99164e-07 1.62891e-06 -0.000998314)
(-1.461e-07 1.10521e-06 -0.000997077)
(-4.12827e-07 1.09855e-06 -0.000997186)
(-6.27818e-07 1.089e-06 -0.000997365)
(-7.59485e-07 1.07169e-06 -0.000997627)
(-8.16363e-07 1.06127e-06 -0.000997862)
(-1.49105e-07 3.85171e-07 -0.000996805)
(-4.19112e-07 3.82557e-07 -0.000996919)
(-6.37475e-07 3.79095e-07 -0.0009971)
(-7.69245e-07 3.72374e-07 -0.000997376)
(-8.26033e-07 3.68622e-07 -0.00099761)
(-1.80359e-07 3.036e-06 -0.00099856)
(-5.23295e-07 3.02881e-06 -0.000998674)
(-7.94417e-07 3.02147e-06 -0.000998901)
(-9.62284e-07 2.9975e-06 -0.00099918)
(-1.0336e-06 2.99982e-06 -0.000999479)
(-1.88727e-07 2.85103e-06 -0.000997584)
(-5.39665e-07 2.83521e-06 -0.000997712)
(-8.20258e-07 2.81666e-06 -0.000997944)
(-9.84054e-07 2.77345e-06 -0.000998265)
(-1.05795e-06 2.76187e-06 -0.000998546)
(-2.00195e-07 2.34541e-06 -0.000996677)
(-5.62201e-07 2.32539e-06 -0.000996827)
(-8.56594e-07 2.30586e-06 -0.000997063)
(-1.01709e-06 2.25505e-06 -0.000997441)
(-1.09335e-06 2.24177e-06 -0.000997704)
(-2.11831e-07 1.5504e-06 -0.00099597)
(-5.82729e-07 1.53307e-06 -0.000996146)
(-8.90827e-07 1.52043e-06 -0.000996378)
(-1.04802e-06 1.47821e-06 -0.000996816)
(-1.12407e-06 1.47073e-06 -0.000997056)
(-2.19277e-07 5.42453e-07 -0.000995571)
(-5.93895e-07 5.35527e-07 -0.000995765)
(-9.1083e-07 5.31641e-07 -0.000995989)
(-1.06581e-06 5.14963e-07 -0.000996467)
(-1.14117e-06 5.13083e-07 -0.000996689)
(-2.42808e-07 4.12733e-06 -0.000998144)
(-7.19887e-07 4.1036e-06 -0.000998279)
(-1.08776e-06 4.10136e-06 -0.000998615)
(-1.28997e-06 4.03067e-06 -0.00099898)
(-1.39021e-06 4.07094e-06 -0.000999349)
(-2.63065e-07 3.953e-06 -0.000996767)
(-7.49531e-07 3.9097e-06 -0.000996948)
(-1.14611e-06 3.89022e-06 -0.000997269)
(-1.326e-06 3.77297e-06 -0.000997766)
(-1.44244e-06 3.79728e-06 -0.000998033)
(-2.91073e-07 3.29878e-06 -0.000995454)
(-7.88522e-07 3.24348e-06 -0.000995699)
(-1.22504e-06 3.23062e-06 -0.000995988)
(-1.38294e-06 3.0915e-06 -0.000996654)
(-1.5085e-06 3.1192e-06 -0.000996815)
(-3.21982e-07 2.20318e-06 -0.000994404)
(-8.22144e-07 2.15328e-06 -0.000994727)
(-1.2984e-06 2.15544e-06 -0.000994962)
(-1.43727e-06 2.03718e-06 -0.000995805)
(-1.5603e-06 2.06842e-06 -0.000995856)
(-3.42919e-07 7.74701e-07 -0.000993804)
(-8.38522e-07 7.54378e-07 -0.000994181)
(-1.34052e-06 7.58872e-07 -0.000994368)
(-1.46895e-06 7.11773e-07 -0.000995327)
(-1.58764e-06 7.26507e-07 -0.000995302)
(-3.12305e-07 5.59214e-06 -0.000997728)
(-9.91524e-07 5.51904e-06 -0.000997841)
(-1.49545e-06 5.56158e-06 -0.000998382)
(-1.69657e-06 5.33799e-06 -0.000998822)
(-1.88126e-06 5.54734e-06 -0.000999222)
(-3.66922e-07 5.54041e-06 -0.000995712)
(-1.03916e-06 5.4146e-06 -0.00099596)
(-1.63817e-06 5.44376e-06 -0.000996393)
(-1.74808e-06 5.09919e-06 -0.000997239)
(-1.9979e-06 5.29554e-06 -0.000997281)
(-4.43353e-07 4.70912e-06 -0.000993763)
(-1.09532e-06 4.54676e-06 -0.000994195)