FoamFile
{version 2.0; format ascii;class Cloud<passiveParticle>; location 0;object  positions;}
43
(
( -3.54396e-06 -0.000277682 9.98318e-05 ) 0 
( -0.000466579 -0.000421991 9.99705e-05 ) 0 
( -9.57292e-05 -0.00045511 9.9842e-05 ) 0 
( -0.000285643 -1.48939e-05 9.99088e-05 ) 0 
( -0.000380595 -0.000192587 9.98244e-05 ) 0 
( -0.000180715 -0.000185104 9.98437e-05 ) 0 
( -0.000275461 -0.00036306 9.99714e-05 ) 0 
( -0.000104339 -5.619e-05 0.000232235 ) 0 
( -0.000443197 -0.000286704 0.000264668 ) 0 
( -0.000342022 -0.000459133 0.000262327 ) 0 
( -0.000281873 -0.00015672 0.000269849 ) 0 
( -0.000140134 -0.000320724 0.000241018 ) 0 
( -0.000435309 -0.000136528 0.000396419 ) 0 
( -0.000233107 -1.62235e-05 0.000403392 ) 0 
( -1.80855e-05 -0.00032702 0.000399267 ) 0 
( -0.000166029 -0.000480426 0.000426257 ) 0 
( -0.000276031 -0.000318016 0.000387624 ) 0 
( -0.0004833 -0.000424613 0.000403699 ) 0 
( -0.000155902 -0.000320813 0.000547391 ) 0 
( -9.58962e-05 -0.00015242 0.000457786 ) 0 
( -0.000284108 -0.000169364 0.000522844 ) 0 
( -0.000415387 -0.000102354 0.000680774 ) 0 
( -0.00033577 -0.000430326 0.000541751 ) 0 
( -5.55873e-05 -0.00048769 0.000592766 ) 0 
( -0.00033333 -0.000284643 0.000678584 ) 0 
( -2.63968e-05 -0.000122455 0.000642847 ) 0 
( -0.000216757 -0.000120322 0.000704561 ) 0 
( -9.22187e-05 -0.000351421 0.000734421 ) 0 
( -7.02766e-05 -6.77881e-05 0.000830062 ) 0 
( -0.000323042 -0.000195008 0.000856997 ) 0 
( -0.000437745 -8.06929e-05 0.000974275 ) 0 
( -0.000133794 -0.000244672 0.000898281 ) 0 
( -0.000261865 -0.000386422 0.000835127 ) 0 
( -0.000466636 -0.000377389 0.000795197 ) 0 
( -0.000212322 -7.29187e-05 0.000970682 ) 0 
( -8.79095e-05 -0.000438754 0.000918683 ) 0 
( -0.000447601 -0.000383195 0.000994132 ) 0 
( -0.000256696 -0.00033428 0.0010281 ) 0 
( -5.66357e-05 -6.05349e-06 0.0010828 ) 0 
( -6.77189e-05 -0.000291963 0.00108099 ) 0 
( -0.00032024 -9.10375e-05 0.00113803 ) 0 
( -9.76852e-05 -0.000487181 0.00111243 ) 0 
( -0.000468366 -0.000222744 0.00111164 ) 0 
)
