FoamFile
{version 2.0; format ascii;class vectorField; location 0;object  v;}
43
(
( 5.49645e-05 1.38787e-05 0.000120966 )  
( -5.54381e-06 -1.55471e-05 -1.21825e-05 )  
( 3.58142e-05 1.86173e-05 0.00016206 )  
( 3.50129e-05 -1.57271e-05 8.94162e-05 )  
( -2.60671e-05 -5.06631e-05 0.000147685 )  
( -6.27628e-06 -2.12903e-05 0.00012673 )  
( 1.40398e-05 -3.8195e-05 9.3125e-06 )  
( 4.99895e-05 -2.97813e-06 6.39618e-05 )  
( -3.72959e-05 -3.13561e-05 0.000332789 )  
( -4.44384e-05 -7.75551e-05 0.000301071 )  
( -1.00588e-05 -6.1281e-05 0.000254213 )  
( -1.87681e-05 -7.31643e-05 0.000230289 )  
( 3.63033e-05 -5.81685e-05 0.000364528 )  
( -1.36402e-05 8.83838e-05 0.000343125 )  
( -6.13961e-05 -7.3457e-05 0.00029282 )  
( 3.30825e-05 -9.18426e-05 0.000503758 )  
( -4.74746e-05 -0.00011406 0.000412941 )  
( -5.07779e-05 -3.91753e-05 0.000506646 )  
( -0.000133692 -6.58534e-05 0.00061093 )  
( -3.17956e-05 -8.87243e-05 0.000467026 )  
( -5.70248e-05 -6.12866e-05 0.000492067 )  
( -4.79642e-06 4.33724e-05 0.000654066 )  
( -2.6649e-05 -6.49982e-05 0.000599168 )  
( -0.000113975 -4.65478e-05 0.000587144 )  
( -5.70741e-05 5.37965e-06 0.000566207 )  
( -2.75988e-05 -9.15482e-05 0.000447675 )  
( -0.000206087 -0.000141632 0.000618863 )  
( -0.00018605 -0.000104654 0.000713038 )  
( -3.31624e-05 -8.03183e-05 0.000465775 )  
( 8.45465e-05 0.000236419 0.000511685 )  
( 7.956e-06 3.37208e-05 0.000588481 )  
( 4.91935e-05 0.000157064 0.000752977 )  
( -2.36484e-05 0.000213195 0.00065357 )  
( 1.5503e-05 6.49623e-05 0.000772281 )  
( 9.48546e-05 1.34674e-05 0.00065297 )  
( -0.000114477 0.000214327 0.000806776 )  
( 0.000110303 9.9972e-05 0.0008836 )  
( 7.97482e-05 0.000242083 0.000785593 )  
( -0.000183844 -1.00927e-05 0.000332736 )  
( 5.93771e-05 4.03944e-05 0.000794532 )  
( 3.50627e-05 0.000141615 0.000631715 )  
( -4.89956e-05 2.07111e-05 0.000817 )  
( -4.04989e-06 0.000206667 0.000641027 )  
)
