/*--------------------------------*- C++ -*----------------------------------*\
| =========                 |                                                 |
| \\      /  F ield         | OpenFOAM: The Open Source CFD Toolbox           |
|  \\    /   O peration     | Version:  5.x                                   |
|   \\  /    A nd           | Web:      www.OpenFOAM.org                      |
|    \\/     M anipulation  |                                                 |
\*---------------------------------------------------------------------------*/
FoamFile
{
    version     2.0;
    format      ascii;
    class       volVectorField;
    location    "30000";
    object      U;
}
// * * * * * * * * * * * * * * * * * * * * * * * * * * * * * * * * * * * * * //

dimensions      [0 1 -1 0 0 0 0];

internalField   nonuniform List<vector> 
2250
(
(-6.8115e-12 1.79302e-11 -0.001)
(-6.10863e-12 2.16108e-11 -0.001)
(1.2964e-12 2.95996e-11 -0.001)
(1.83799e-11 3.96408e-11 -0.001)
(-3.42092e-11 4.2406e-11 -0.001)
(-3.17826e-12 4.85829e-11 -0.001)
(5.54035e-12 5.37161e-11 -0.001)
(1.9385e-11 6.8387e-11 -0.001)
(3.11808e-11 9.04106e-11 -0.001)
(-2.97783e-11 1.00838e-10 -0.000999999)
(-1.79355e-12 6.73601e-11 -0.000999999)
(1.3584e-11 7.3795e-11 -0.000999999)
(3.79955e-11 9.59057e-11 -0.000999999)
(5.08019e-11 1.24663e-10 -0.000999999)
(-1.23526e-11 1.60958e-10 -0.000999999)
(3.0979e-12 6.90704e-11 -0.000999999)
(3.39309e-11 8.54845e-11 -0.000999999)
(7.0244e-11 1.20549e-10 -0.000999999)
(9.62274e-11 1.69442e-10 -0.000999999)
(9.7328e-12 2.21774e-10 -0.000999999)
(1.44179e-11 1.03936e-10 -0.000999999)
(6.48946e-11 1.10371e-10 -0.000999999)
(1.21943e-10 1.2898e-10 -0.000999999)
(1.52022e-10 1.41256e-10 -0.000999999)
(4.30272e-11 1.53958e-10 -0.000999998)
(-1.57587e-11 5.87841e-11 -0.001)
(-2.14035e-11 6.75189e-11 -0.001)
(-1.88432e-11 8.33479e-11 -0.001)
(-6.09103e-12 1.02834e-10 -0.001)
(-1.35891e-10 1.05128e-10 -0.001)
(-7.15365e-12 1.54447e-10 -0.001)
(3.08007e-12 1.68359e-10 -0.001)
(1.65294e-11 2.03679e-10 -0.001)
(1.55186e-11 2.51375e-10 -0.001)
(-1.28984e-10 2.80538e-10 -0.001)
(-2.16038e-12 2.14435e-10 -0.000999999)
(2.75119e-11 2.33232e-10 -0.000999999)
(6.4121e-11 2.91699e-10 -0.000999999)
(7.05975e-11 3.63284e-10 -0.000999999)
(-8.18081e-11 4.63526e-10 -0.001)
(1.12018e-11 2.32363e-10 -0.000999999)
(7.9907e-11 2.78041e-10 -0.000999999)
(1.46556e-10 3.6701e-10 -0.000999999)
(1.8733e-10 4.85885e-10 -0.000999999)
(-2.23246e-11 6.24469e-10 -0.000999999)
(4.29666e-11 3.21752e-10 -0.000999999)
(1.61683e-10 3.42224e-10 -0.000999999)
(2.71943e-10 3.89378e-10 -0.000999999)
(3.2806e-10 4.30212e-10 -0.000999999)
(6.58718e-11 4.58039e-10 -0.000999999)
(-2.52467e-11 1.20055e-10 -0.001)
(-7.15156e-11 1.25286e-10 -0.001)
(-1.26767e-10 1.38662e-10 -0.001)
(-1.87534e-10 1.52565e-10 -0.001)
(-3.41816e-10 1.56962e-10 -0.001)
(-2.03043e-11 3.13583e-10 -0.001)
(-5.33626e-11 3.26163e-10 -0.001)
(-9.98276e-11 3.67636e-10 -0.001)
(-1.69763e-10 4.1689e-10 -0.001)
(-3.34895e-10 4.667e-10 -0.001)
(-1.33038e-11 4.44771e-10 -0.000999999)
(-1.82696e-11 4.70193e-10 -0.000999999)
(-3.63897e-11 5.46404e-10 -0.001)
(-8.89728e-11 6.3343e-10 -0.001)
(-2.69382e-10 7.75994e-10 -0.001)
(4.25587e-12 5.21378e-10 -0.000999999)
(4.7386e-11 5.78873e-10 -0.000999999)
(6.33579e-11 6.87541e-10 -0.000999999)
(5.97473e-11 8.25724e-10 -0.000999999)
(-1.8303e-10 9.96327e-10 -0.001)
(4.31569e-11 6.46954e-10 -0.000999999)
(1.46885e-10 6.75015e-10 -0.000999999)
(2.1035e-10 7.33379e-10 -0.000999999)
(2.19769e-10 7.98e-10 -0.000999999)
(-5.54221e-11 8.27941e-10 -0.000999999)
(-5.14555e-11 2.06902e-10 -0.001)
(-1.85205e-10 2.03975e-10 -0.001)
(-3.52686e-10 2.08548e-10 -0.001)
(-5.12801e-10 2.13641e-10 -0.001)
(-6.37707e-10 2.22578e-10 -0.001)
(-5.48708e-11 5.4778e-10 -0.001)
(-1.84393e-10 5.52617e-10 -0.001)
(-3.43799e-10 5.84184e-10 -0.001)
(-4.99859e-10 6.23282e-10 -0.001)
(-6.28732e-10 6.89346e-10 -0.001)
(-4.76907e-11 8.00503e-10 -0.000999999)
(-1.5024e-10 8.24309e-10 -0.001)
(-2.828e-10 8.94516e-10 -0.001)
(-4.08685e-10 9.71081e-10 -0.001)
(-5.57451e-10 1.12912e-09 -0.001)
(-3.25671e-11 9.9059e-10 -0.000999999)
(-9.19514e-11 1.03583e-09 -0.000999999)
(-1.971e-10 1.12807e-09 -0.000999999)
(-2.65229e-10 1.23267e-09 -0.001)
(-4.60475e-10 1.44871e-09 -0.001)
(-4.30803e-12 1.14192e-09 -0.000999998)
(-1.46971e-11 1.16548e-09 -0.000999998)
(-8.60137e-11 1.21566e-09 -0.000999999)
(-8.79544e-11 1.28339e-09 -0.000999999)
(-3.87486e-10 1.24079e-09 -0.000999999)
(-1.00162e-10 3.18504e-10 -0.001)
(-3.60449e-10 3.07909e-10 -0.001)
(-6.49107e-10 3.06235e-10 -0.001)
(-8.81533e-10 3.06171e-10 -0.001)
(-9.6487e-10 3.22404e-10 -0.001)
(-1.11544e-10 8.66361e-10 -0.001)
(-3.74087e-10 8.6253e-10 -0.001)
(-6.52099e-10 8.79837e-10 -0.001)
(-8.67011e-10 9.05387e-10 -0.001)
(-9.50699e-10 9.69655e-10 -0.001)
(-1.05757e-10 1.30419e-09 -0.001)
(-3.49357e-10 1.32289e-09 -0.001)
(-6.07536e-10 1.3655e-09 -0.001)
(-7.9339e-10 1.41593e-09 -0.001)
(-8.92645e-10 1.53315e-09 -0.001)
(-9.5331e-11 1.66468e-09 -0.000999999)
(-3.15354e-10 1.68285e-09 -0.000999999)
(-5.59141e-10 1.72466e-09 -0.000999999)
(-6.99381e-10 1.76997e-09 -0.001)
(-8.2631e-10 1.97771e-09 -0.001)
(-9.07151e-11 1.84331e-09 -0.000999998)
(-2.92586e-10 1.85787e-09 -0.000999998)
(-5.20411e-10 1.88227e-09 -0.000999999)
(-5.40384e-10 1.92323e-09 -0.000999999)
(-8.40888e-10 1.80743e-09 -0.001)
(-1.73006e-10 4.53373e-10 -0.001)
(-5.65042e-10 4.41543e-10 -0.001)
(-9.43975e-10 4.36617e-10 -0.001)
(-1.21296e-09 4.36698e-10 -0.001)
(-1.28958e-09 4.53308e-10 -0.001)
(-1.86018e-10 1.27331e-09 -0.001)
(-5.83784e-10 1.26721e-09 -0.001)
(-9.50573e-10 1.2683e-09 -0.001)
(-1.19848e-09 1.27697e-09 -0.001)
(-1.27396e-09 1.3138e-09 -0.001)
(-1.81834e-10 1.96258e-09 -0.001)
(-5.73634e-10 1.97361e-09 -0.001)
(-9.3605e-10 1.97967e-09 -0.001)
(-1.16976e-09 1.98589e-09 -0.001)
(-1.2493e-09 2.0304e-09 -0.001)
(-1.78808e-10 2.53578e-09 -0.000999999)
(-5.70614e-10 2.52523e-09 -0.000999999)
(-9.38425e-10 2.5078e-09 -0.001)
(-1.14781e-09 2.48672e-09 -0.001)
(-1.25047e-09 2.59328e-09 -0.001)
(-1.97185e-10 2.76382e-09 -0.000999998)
(-6.06583e-10 2.76675e-09 -0.000999998)
(-9.74672e-10 2.76324e-09 -0.000999999)
(-1.08429e-09 2.75491e-09 -0.000999999)
(-1.32466e-09 2.58644e-09 -0.001)
(-2.6362e-10 6.16187e-10 -0.001)
(-7.86174e-10 6.10008e-10 -0.001)
(-1.22831e-09 6.06747e-10 -0.001)
(-1.5172e-09 6.07455e-10 -0.001)
(-1.64463e-09 6.13803e-10 -0.001)
(-2.71464e-10 1.78154e-09 -0.001)
(-7.98295e-10 1.77941e-09 -0.001)
(-1.23315e-09 1.76922e-09 -0.001)
(-1.51294e-09 1.75737e-09 -0.001)
(-1.63935e-09 1.74626e-09 -0.001)
(-2.69686e-10 2.78845e-09 -0.001)
(-8.03521e-10 2.79097e-09 -0.001)
(-1.25277e-09 2.76479e-09 -0.001)
(-1.54307e-09 2.72393e-09 -0.001)
(-1.6586e-09 2.68732e-09 -0.001)
(-2.74346e-10 3.59093e-09 -0.000999999)
(-8.27513e-10 3.56378e-09 -0.000999999)
(-1.30037e-09 3.50644e-09 -0.001)
(-1.59049e-09 3.42983e-09 -0.001)
(-1.73049e-09 3.39263e-09 -0.001)
(-3.03638e-10 3.91614e-09 -0.000999998)
(-8.95054e-10 3.91348e-09 -0.000999998)
(-1.38688e-09 3.8907e-09 -0.000999999)
(-1.65688e-09 3.83067e-09 -0.000999999)
(-1.82352e-09 3.67174e-09 -0.001)
(-3.70336e-10 8.25032e-10 -0.001)
(-1.03999e-09 8.28617e-10 -0.001)
(-1.56131e-09 8.29353e-10 -0.001)
(-1.91072e-09 8.28885e-10 -0.001)
(-2.1337e-09 8.21739e-10 -0.001)
(-3.69012e-10 2.43013e-09 -0.001)
(-1.03921e-09 2.43589e-09 -0.001)
(-1.56399e-09 2.42147e-09 -0.001)
(-1.92193e-09 2.39276e-09 -0.001)
(-2.14553e-09 2.34507e-09 -0.001)
(-3.6996e-10 3.82808e-09 -0.001)
(-1.05543e-09 3.82523e-09 -0.001)
(-1.60756e-09 3.78249e-09 -0.001)
(-1.99082e-09 3.71105e-09 -0.001)
(-2.19878e-09 3.62386e-09 -0.001)
(-3.79231e-10 4.87677e-09 -0.001)
(-1.09241e-09 4.85426e-09 -0.001)
(-1.67841e-09 4.79446e-09 -0.001)
(-2.08066e-09 4.70574e-09 -0.001)
(-2.30968e-09 4.57498e-09 -0.001)
(-4.01748e-10 5.36691e-09 -0.000999998)
(-1.14733e-09 5.36595e-09 -0.000999998)
(-1.7563e-09 5.33093e-09 -0.000999999)
(-2.21031e-09 5.24367e-09 -0.000999999)
(-2.4183e-09 5.11765e-09 -0.001)
(-4.96588e-10 1.11415e-09 -0.001)
(-1.36943e-09 1.12641e-09 -0.001)
(-2.04599e-09 1.13006e-09 -0.001)
(-2.53947e-09 1.12753e-09 -0.00100001)
(-2.87594e-09 1.1142e-09 -0.00100001)
(-4.87377e-10 3.29486e-09 -0.001)
(-1.35825e-09 3.30879e-09 -0.001)
(-2.0488e-09 3.29702e-09 -0.001)
(-2.56018e-09 3.26432e-09 -0.001)
(-2.90077e-09 3.21324e-09 -0.00100001)
(-4.89937e-10 5.18323e-09 -0.001)
(-1.3764e-09 5.182e-09 -0.001)
(-2.09461e-09 5.14422e-09 -0.001)
(-2.62821e-09 5.07162e-09 -0.001)
(-2.96348e-09 4.98999e-09 -0.001)
(-4.98564e-10 6.53769e-09 -0.001)
(-1.40754e-09 6.53926e-09 -0.001)
(-2.15953e-09 6.50933e-09 -0.001)
(-2.71455e-09 6.44535e-09 -0.001)
(-3.05894e-09 6.39478e-09 -0.001)
(-5.00925e-10 7.25723e-09 -0.000999998)
(-1.41766e-09 7.26639e-09 -0.000999998)
(-2.18881e-09 7.23544e-09 -0.000999998)
(-2.74276e-09 7.16814e-09 -0.000999999)
(-3.23122e-09 6.99201e-09 -0.001)
(-6.53801e-10 1.52697e-09 -0.00100001)
(-1.83375e-09 1.54168e-09 -0.00100001)
(-2.79125e-09 1.54526e-09 -0.00100001)
(-3.5189e-09 1.5413e-09 -0.00100001)
(-3.97213e-09 1.52917e-09 -0.00100001)
(-6.43218e-10 4.48395e-09 -0.001)
(-1.82192e-09 4.50223e-09 -0.001)
(-2.79705e-09 4.49724e-09 -0.00100001)
(-3.54177e-09 4.47417e-09 -0.00100001)
(-4.00245e-09 4.44327e-09 -0.00100001)
(-6.45376e-10 7.01511e-09 -0.001)
(-1.83284e-09 7.02297e-09 -0.001)
(-2.82501e-09 7.00698e-09 -0.001)
(-3.57981e-09 6.96273e-09 -0.001)
(-4.05204e-09 6.9287e-09 -0.00100001)
(-6.48865e-10 8.81111e-09 -0.001)
(-1.84395e-09 8.84072e-09 -0.001)
(-2.85776e-09 8.85181e-09 -0.001)
(-3.62025e-09 8.83007e-09 -0.001)
(-4.10738e-09 8.93989e-09 -0.001)
(-6.32762e-10 9.81605e-09 -0.000999997)
(-1.80952e-09 9.83792e-09 -0.000999997)
(-2.83606e-09 9.82385e-09 -0.000999998)
(-3.49174e-09 9.79207e-09 -0.000999999)
(-4.31535e-09 9.55899e-09 -0.001)
(-8.67306e-10 2.10584e-09 -0.00100001)
(-2.50241e-09 2.11525e-09 -0.00100001)
(-3.88977e-09 2.11612e-09 -0.00100001)
(-4.93709e-09 2.1115e-09 -0.00100001)
(-5.51684e-09 2.10373e-09 -0.00100001)
(-8.6353e-10 6.12646e-09 -0.00100001)
(-2.50103e-09 6.14354e-09 -0.00100001)
(-3.90112e-09 6.14526e-09 -0.00100001)
(-4.95906e-09 6.1383e-09 -0.00100001)
(-5.54747e-09 6.13405e-09 -0.00100001)
(-8.63614e-10 9.5355e-09 -0.001)
(-2.50053e-09 9.55618e-09 -0.001)
(-3.90301e-09 9.56469e-09 -0.001)
(-4.95811e-09 9.56396e-09 -0.00100001)
(-5.57066e-09 9.58328e-09 -0.00100001)
(-8.61213e-10 1.19858e-08 -0.001)
(-2.4907e-09 1.20306e-08 -0.001)
(-3.89399e-09 1.2067e-08 -0.001)
(-4.94074e-09 1.20924e-08 -0.001)
(-5.59662e-09 1.22826e-08 -0.001)
(-8.41894e-10 1.33381e-08 -0.000999996)
(-2.44289e-09 1.33684e-08 -0.000999996)
(-3.84179e-09 1.3371e-08 -0.000999997)
(-4.74252e-09 1.33688e-08 -0.000999999)
(-5.7512e-09 1.31745e-08 -0.001)
(-1.17477e-09 2.89321e-09 -0.00100001)
(-3.4509e-09 2.89456e-09 -0.00100001)
(-5.42177e-09 2.89173e-09 -0.00100001)
(-6.87969e-09 2.88752e-09 -0.00100001)
(-7.61971e-09 2.88777e-09 -0.00100002)
(-1.18113e-09 8.37396e-09 -0.00100001)
(-3.46466e-09 8.38822e-09 -0.00100001)
(-5.43947e-09 8.39372e-09 -0.00100001)
(-6.897e-09 8.4022e-09 -0.00100001)
(-7.64677e-09 8.42355e-09 -0.00100001)
(-1.17878e-09 1.30037e-08 -0.001)
(-3.45432e-09 1.30365e-08 -0.00100001)
(-5.41897e-09 1.30617e-08 -0.00100001)
(-6.86358e-09 1.30978e-08 -0.00100001)
(-7.64605e-09 1.31601e-08 -0.00100001)
(-1.17332e-09 1.63787e-08 -0.001)
(-3.43233e-09 1.64245e-08 -0.001)
(-5.37908e-09 1.64671e-08 -0.001)
(-6.79897e-09 1.6535e-08 -0.001)
(-7.65119e-09 1.6708e-08 -0.00100001)
(-1.1643e-09 1.81771e-08 -0.000999994)
(-3.398e-09 1.82105e-08 -0.000999995)
(-5.30929e-09 1.82233e-08 -0.000999996)
(-6.62266e-09 1.82352e-08 -0.000999998)
(-7.74818e-09 1.81424e-08 -0.001)
(-1.61526e-09 3.9489e-09 -0.00100001)
(-4.7591e-09 3.94543e-09 -0.00100001)
(-7.48014e-09 3.94055e-09 -0.00100002)
(-9.46052e-09 3.93807e-09 -0.00100002)
(-1.04291e-08 3.94699e-09 -0.00100002)
(-1.62927e-09 1.14264e-08 -0.00100001)
(-4.78433e-09 1.14407e-08 -0.00100001)
(-7.50226e-09 1.14469e-08 -0.00100001)
(-9.47245e-09 1.14631e-08 -0.00100002)
(-1.0454e-08 1.15007e-08 -0.00100002)
(-1.62588e-09 1.77476e-08 -0.00100001)
(-4.77025e-09 1.77895e-08 -0.00100001)
(-7.4732e-09 1.78187e-08 -0.00100001)
(-9.42562e-09 1.78669e-08 -0.00100001)
(-1.04457e-08 1.79442e-08 -0.00100002)
(-1.62127e-09 2.23761e-08 -0.001)
(-4.74809e-09 2.24203e-08 -0.001)
(-7.42608e-09 2.2457e-08 -0.001)
(-9.34746e-09 2.25328e-08 -0.00100001)
(-1.04505e-08 2.26935e-08 -0.00100001)
(-1.62433e-09 2.47884e-08 -0.000999992)
(-4.73302e-09 2.48252e-08 -0.000999993)
(-7.36179e-09 2.48353e-08 -0.000999995)
(-9.18924e-09 2.48439e-08 -0.000999998)
(-1.05387e-08 2.47748e-08 -0.001)
(-2.22595e-09 5.36862e-09 -0.00100002)
(-6.52299e-09 5.36711e-09 -0.00100002)
(-1.02082e-08 5.36229e-09 -0.00100002)
(-1.28709e-08 5.36027e-09 -0.00100003)
(-1.41742e-08 5.3703e-09 -0.00100003)
(-2.24184e-09 1.55677e-08 -0.00100002)
(-6.55237e-09 1.55876e-08 -0.00100002)
(-1.02352e-08 1.55893e-08 -0.00100002)
(-1.28879e-08 1.55981e-08 -0.00100002)
(-1.42054e-08 1.56274e-08 -0.00100003)
(-2.24003e-09 2.42101e-08 -0.00100001)
(-6.54468e-09 2.42578e-08 -0.00100001)
(-1.02188e-08 2.42725e-08 -0.00100001)
(-1.28586e-08 2.42982e-08 -0.00100002)
(-1.42111e-08 2.43493e-08 -0.00100002)
(-2.24029e-09 3.05215e-08 -0.001)
(-6.53749e-09 3.05676e-08 -0.001)
(-1.01965e-08 3.05794e-08 -0.001)
(-1.28118e-08 3.06226e-08 -0.00100001)
(-1.42438e-08 3.07426e-08 -0.00100001)
(-2.25211e-09 3.3803e-08 -0.00099999)
(-6.54635e-09 3.38465e-08 -0.000999991)
(-1.01652e-08 3.38369e-08 -0.000999994)
(-1.26954e-08 3.38182e-08 -0.000999998)
(-1.4398e-08 3.36853e-08 -0.001)
(-3.04849e-09 7.29694e-09 -0.00100003)
(-8.87945e-09 7.30313e-09 -0.00100003)
(-1.38387e-08 7.29775e-09 -0.00100003)
(-1.74186e-08 7.29209e-09 -0.00100004)
(-1.92026e-08 7.29373e-09 -0.00100004)
(-3.06189e-09 2.12028e-08 -0.00100002)
(-8.90999e-09 2.12318e-08 -0.00100002)
(-1.3877e-08 2.12203e-08 -0.00100003)
(-1.74565e-08 2.12062e-08 -0.00100003)
(-1.92501e-08 2.12019e-08 -0.00100004)
(-3.0657e-09 3.30094e-08 -0.00100001)
(-8.92082e-09 3.30587e-08 -0.00100002)
(-1.38929e-08 3.30404e-08 -0.00100002)
(-1.74718e-08 3.30161e-08 -0.00100002)
(-1.92849e-08 3.30029e-08 -0.00100003)
(-3.07553e-09 4.16006e-08 -0.001)
(-8.94382e-09 4.16492e-08 -0.001)
(-1.3922e-08 4.16157e-08 -0.00100001)
(-1.74949e-08 4.15923e-08 -0.00100001)
(-1.93582e-08 4.16343e-08 -0.00100002)
(-3.09639e-09 4.61026e-08 -0.000999987)
(-8.98697e-09 4.61547e-08 -0.000999989)
(-1.39517e-08 4.61121e-08 -0.000999993)
(-1.74533e-08 4.60529e-08 -0.000999998)
(-1.95848e-08 4.58446e-08 -0.001)
(-4.14481e-09 9.93431e-09 -0.00100004)
(-1.20375e-08 9.94829e-09 -0.00100004)
(-1.87228e-08 9.93908e-09 -0.00100004)
(-2.35482e-08 9.92611e-09 -0.00100005)
(-2.60071e-08 9.91411e-09 -0.00100006)
(-4.15748e-09 2.88909e-08 -0.00100003)
(-1.20753e-08 2.89275e-08 -0.00100003)
(-1.87821e-08 2.88953e-08 -0.00100004)
(-2.36192e-08 2.88509e-08 -0.00100004)
(-2.60826e-08 2.88004e-08 -0.00100005)
(-4.17119e-09 4.50026e-08 -0.00100002)
(-1.21133e-08 4.50517e-08 -0.00100002)
(-1.88383e-08 4.49926e-08 -0.00100003)
(-2.36903e-08 4.49107e-08 -0.00100003)
(-2.61597e-08 4.48169e-08 -0.00100004)
(-4.19414e-09 5.67134e-08 -0.001)
(-1.21736e-08 5.67675e-08 -0.001)
(-1.89262e-08 5.66841e-08 -0.00100001)
(-2.37962e-08 5.6585e-08 -0.00100002)
(-2.62822e-08 5.65212e-08 -0.00100002)
(-4.22494e-09 6.29001e-08 -0.000999982)
(-1.22531e-08 6.29635e-08 -0.000999985)
(-1.90234e-08 6.28797e-08 -0.00099999)
(-2.38533e-08 6.27715e-08 -0.000999997)
(-2.65311e-08 6.25348e-08 -0.00100001)
(-5.61631e-09 1.35441e-08 -0.00100005)
(-1.6308e-08 1.35614e-08 -0.00100005)
(-2.53565e-08 1.35443e-08 -0.00100006)
(-3.18837e-08 1.35205e-08 -0.00100007)
(-3.52688e-08 1.34904e-08 -0.00100008)
(-5.63526e-09 3.93881e-08 -0.00100004)
(-1.63656e-08 3.94289e-08 -0.00100005)
(-2.54477e-08 3.93714e-08 -0.00100005)
(-3.20002e-08 3.92912e-08 -0.00100006)
(-3.53917e-08 3.91871e-08 -0.00100007)
(-5.66114e-09 6.13647e-08 -0.00100003)
(-1.64338e-08 6.14186e-08 -0.00100003)
(-2.5547e-08 6.13185e-08 -0.00100004)
(-3.21322e-08 6.11765e-08 -0.00100004)
(-3.55324e-08 6.09956e-08 -0.00100006)
(-5.69812e-09 7.73572e-08 -0.001)
(-1.6532e-08 7.74266e-08 -0.00100001)
(-2.56939e-08 7.72962e-08 -0.00100001)
(-3.23249e-08 7.71162e-08 -0.00100002)
(-3.57346e-08 7.69176e-08 -0.00100003)
(-5.73852e-09 8.58447e-08 -0.000999976)
(-1.66452e-08 8.5924e-08 -0.00099998)
(-2.58611e-08 8.57844e-08 -0.000999987)
(-3.25109e-08 8.55949e-08 -0.000999996)
(-3.60232e-08 8.53103e-08 -0.00100001)
(-7.61452e-09 1.8473e-08 -0.00100007)
(-2.21255e-08 1.84901e-08 -0.00100007)
(-3.44134e-08 1.84612e-08 -0.00100008)
(-4.32824e-08 1.84209e-08 -0.00100009)
(-4.79155e-08 1.83674e-08 -0.00100011)
(-7.64682e-09 5.37136e-08 -0.00100006)
(-2.22162e-08 5.37595e-08 -0.00100006)
(-3.45513e-08 5.36702e-08 -0.00100007)
(-4.34615e-08 5.3542e-08 -0.00100008)
(-4.81095e-08 5.33734e-08 -0.0010001)
(-7.68513e-09 8.36944e-08 -0.00100003)
(-2.23174e-08 8.3763e-08 -0.00100004)
(-3.47029e-08 8.3615e-08 -0.00100005)
(-4.36666e-08 8.33977e-08 -0.00100006)
(-4.83379e-08 8.31168e-08 -0.00100008)
(-7.73716e-09 1.05552e-07 -0.001)
(-2.24594e-08 1.05645e-07 -0.00100001)
(-3.49223e-08 1.05453e-07 -0.00100002)
(-4.39621e-08 1.05169e-07 -0.00100003)
(-4.86625e-08 1.04811e-07 -0.00100005)
(-7.79187e-09 1.1717e-07 -0.000999968)
(-2.26207e-08 1.17269e-07 -0.000999973)
(-3.51839e-08 1.17046e-07 -0.000999982)
(-4.43092e-08 1.16723e-07 -0.000999995)
(-4.90793e-08 1.16305e-07 -0.00100001)
(-1.03442e-08 2.51902e-08 -0.00100009)
(-3.007e-08 2.52085e-08 -0.0010001)
(-4.67864e-08 2.51636e-08 -0.00100011)
(-5.88719e-08 2.51008e-08 -0.00100013)
(-6.5174e-08 2.50212e-08 -0.00100015)
(-1.03931e-08 7.32487e-08 -0.00100008)
(-3.02041e-08 7.33065e-08 -0.00100008)
(-4.69878e-08 7.31736e-08 -0.0010001)
(-5.91309e-08 7.29811e-08 -0.00100011)
(-6.54619e-08 7.27374e-08 -0.00100013)
(-1.04451e-08 1.14158e-07 -0.00100005)
(-3.03473e-08 1.1425e-07 -0.00100005)
(-4.721e-08 1.14034e-07 -0.00100007)
(-5.94275e-08 1.13715e-07 -0.00100008)
(-6.57983e-08 1.13317e-07 -0.0010001)
(-1.0517e-08 1.44027e-07 -0.00100001)
(-3.05508e-08 1.44144e-07 -0.00100001)
(-4.75307e-08 1.43857e-07 -0.00100003)
(-5.98514e-08 1.43433e-07 -0.00100004)
(-6.62796e-08 1.42919e-07 -0.00100006)
(-1.06e-08 1.59911e-07 -0.000999957)
(-3.07967e-08 1.60027e-07 -0.000999963)
(-4.79281e-08 1.59681e-07 -0.000999976)
(-6.0365e-08 1.59177e-07 -0.000999994)
(-6.68966e-08 1.58556e-07 -0.00100001)
(-1.4071e-08 3.43378e-08 -0.00100013)
(-4.09054e-08 3.43628e-08 -0.00100014)
(-6.36522e-08 3.42976e-08 -0.00100015)
(-8.01147e-08 3.42077e-08 -0.00100018)
(-8.86544e-08 3.41005e-08 -0.0010002)
(-1.41375e-08 9.9867e-08 -0.00100011)
(-4.10922e-08 9.99459e-08 -0.00100012)
(-6.39353e-08 9.97535e-08 -0.00100013)
(-8.0471e-08 9.94784e-08 -0.00100016)
(-8.9061e-08 9.91462e-08 -0.00100018)
(-1.42082e-08 1.55682e-07 -0.00100007)
(-4.12945e-08 1.55804e-07 -0.00100007)
(-6.42537e-08 1.55488e-07 -0.00100009)
(-8.08851e-08 1.55031e-07 -0.00100011)
(-8.95311e-08 1.54483e-07 -0.00100014)
(-1.43109e-08 1.96487e-07 -0.00100001)
(-4.15903e-08 1.96622e-07 -0.00100002)
(-6.4719e-08 1.96189e-07 -0.00100003)
(-8.14805e-08 1.95575e-07 -0.00100006)
(-9.0216e-08 1.9487e-07 -0.00100009)
(-1.44438e-08 2.18207e-07 -0.000999942)
(-4.19722e-08 2.18331e-07 -0.000999951)
(-6.53097e-08 2.17806e-07 -0.000999968)
(-8.22043e-08 2.17054e-07 -0.000999992)
(-9.11053e-08 2.16153e-07 -0.00100002)
(-1.9147e-08 4.67888e-08 -0.00100018)
(-5.56554e-08 4.68265e-08 -0.00100019)
(-8.65907e-08 4.67366e-08 -0.00100021)
(-1.08958e-07 4.66133e-08 -0.00100024)
(-1.20509e-07 4.64722e-08 -0.00100028)
(-1.92341e-08 1.36104e-07 -0.00100015)
(-5.59075e-08 1.36212e-07 -0.00100016)
(-8.69787e-08 1.3594e-07 -0.00100018)
(-1.0944e-07 1.35556e-07 -0.00100021)
(-1.21066e-07 1.35103e-07 -0.00100025)
(-1.93332e-08 2.12234e-07 -0.00100009)
(-5.61951e-08 2.12385e-07 -0.0010001)
(-8.74302e-08 2.11926e-07 -0.00100013)
(-1.10017e-07 2.11274e-07 -0.00100016)
(-1.21716e-07 2.10505e-07 -0.00100019)
(-1.94844e-08 2.67971e-07 -0.00100001)
(-5.6629e-08 2.68117e-07 -0.00100003)
(-8.81047e-08 2.67473e-07 -0.00100005)
(-1.10867e-07 2.66578e-07 -0.00100008)
(-1.22692e-07 2.65562e-07 -0.00100012)
(-1.9692e-08 2.97726e-07 -0.000999921)
(-5.72112e-08 2.97843e-07 -0.000999934)
(-8.89818e-08 2.9705e-07 -0.000999957)
(-1.11929e-07 2.95932e-07 -0.000999989)
(-1.23983e-07 2.946e-07 -0.00100003)
(-2.60568e-08 6.37183e-08 -0.00100024)
(-7.5728e-08 6.37731e-08 -0.00100026)
(-1.17773e-07 6.36533e-08 -0.00100029)
(-1.48081e-07 6.3487e-08 -0.00100033)
(-1.63676e-07 6.32942e-08 -0.00100038)
(-2.61718e-08 1.85382e-07 -0.0010002)
(-7.60653e-08 1.85527e-07 -0.00100022)
(-1.18298e-07 1.8515e-07 -0.00100025)
(-1.48737e-07 1.84621e-07 -0.00100029)
(-1.6443e-07 1.83992e-07 -0.00100034)
(-2.63125e-08 2.89188e-07 -0.00100012)
(-7.64706e-08 2.8937e-07 -0.00100014)
(-1.18929e-07 2.88713e-07 -0.00100017)
(-1.49544e-07 2.87787e-07 -0.00100022)
(-1.65325e-07 2.86694e-07 -0.00100027)
(-2.65346e-08 3.65352e-07 -0.00100002)
(-7.71026e-08 3.65506e-07 -0.00100004)
(-1.19901e-07 3.64556e-07 -0.00100007)
(-1.50764e-07 3.63244e-07 -0.00100011)
(-1.66718e-07 3.61742e-07 -0.00100016)
(-2.68448e-08 4.0622e-07 -0.000999894)
(-7.79709e-08 4.06313e-07 -0.000999911)
(-1.21207e-07 4.05117e-07 -0.000999943)
(-1.52358e-07 4.03443e-07 -0.000999987)
(-1.68594e-07 4.0146e-07 -0.00100004)
(-3.54819e-08 8.66968e-08 -0.00100033)
(-1.03089e-07 8.67755e-08 -0.00100035)
(-1.60218e-07 8.6623e-08 -0.00100039)
(-2.0123e-07 8.64072e-08 -0.00100045)
(-2.22215e-07 8.6145e-08 -0.00100052)
(-3.56343e-08 2.523e-07 -0.00100027)
(-1.03534e-07 2.52498e-07 -0.0010003)
(-1.60912e-07 2.52001e-07 -0.00100034)
(-2.02112e-07 2.51297e-07 -0.0010004)
(-2.23212e-07 2.50443e-07 -0.00100047)
(-3.58272e-08 3.93808e-07 -0.00100017)
(-1.04084e-07 3.94039e-07 -0.00100019)
(-1.61761e-07 3.93123e-07 -0.00100024)
(-2.03201e-07 3.91839e-07 -0.00100029)
(-2.24424e-07 3.9031e-07 -0.00100036)
(-3.61443e-08 4.97965e-07 -0.00100003)
(-1.04983e-07 4.98128e-07 -0.00100005)
(-1.63138e-07 4.96742e-07 -0.00100009)
(-2.04936e-07 4.94829e-07 -0.00100015)
(-2.2639e-07 4.92603e-07 -0.00100022)
(-3.65974e-08 5.54276e-07 -0.000999857)
(-1.06265e-07 5.54311e-07 -0.00099988)
(-1.65084e-07 5.52507e-07 -0.000999924)
(-2.07341e-07 5.49985e-07 -0.000999984)
(-2.29129e-07 5.47015e-07 -0.00100005)
(-4.83828e-08 1.17816e-07 -0.00100045)
(-1.40493e-07 1.17939e-07 -0.00100048)
(-2.18128e-07 1.17768e-07 -0.00100054)
(-2.73596e-07 1.17518e-07 -0.00100062)
(-3.01704e-07 1.17203e-07 -0.00100071)
(-4.8574e-08 3.43007e-07 -0.00100037)
(-1.41047e-07 3.43312e-07 -0.00100041)
(-2.18993e-07 3.42712e-07 -0.00100046)
(-2.74711e-07 3.41852e-07 -0.00100054)
(-3.02958e-07 3.40793e-07 -0.00100063)
(-4.88164e-08 5.35849e-07 -0.00100023)
(-1.41734e-07 5.36181e-07 -0.00100027)
(-2.20054e-07 5.34971e-07 -0.00100032)
(-2.76079e-07 5.33265e-07 -0.0010004)
(-3.04511e-07 5.31221e-07 -0.0010005)
(-4.92492e-08 6.78414e-07 -0.00100004)
(-1.42964e-07 6.78591e-07 -0.00100007)
(-2.21946e-07 6.76612e-07 -0.00100013)
(-2.78476e-07 6.73869e-07 -0.00100021)
(-3.07207e-07 6.7062e-07 -0.0010003)
(-4.99083e-08 7.56291e-07 -0.000999808)
(-1.44839e-07 7.56206e-07 -0.000999839)
(-2.24808e-07 7.53491e-07 -0.000999899)
(-2.82072e-07 7.49708e-07 -0.00099998)
(-3.1121e-07 7.45255e-07 -0.00100007)
(-6.61128e-08 1.59844e-07 -0.00100061)
(-1.91815e-07 1.60065e-07 -0.00100065)
(-2.97379e-07 1.59933e-07 -0.00100073)
(-3.72338e-07 1.59724e-07 -0.00100084)
(-4.09774e-07 1.59439e-07 -0.00100097)
(-6.63191e-08 4.65651e-07 -0.00100051)
(-1.92414e-07 4.66193e-07 -0.00100055)
(-2.98326e-07 4.65611e-07 -0.00100063)
(-3.73583e-07 4.64739e-07 -0.00100074)
(-4.11208e-07 4.63633e-07 -0.00100087)
(-6.65752e-08 7.28299e-07 -0.00100032)
(-1.93141e-07 7.28857e-07 -0.00100036)
(-2.99469e-07 7.27407e-07 -0.00100044)
(-3.75086e-07 7.25321e-07 -0.00100055)
(-4.12984e-07 7.22793e-07 -0.00100068)
(-6.71275e-08 9.23599e-07 -0.00100006)
(-1.94715e-07 9.23826e-07 -0.0010001)
(-3.01912e-07 9.21117e-07 -0.00100018)
(-3.78217e-07 9.17329e-07 -0.00100029)
(-4.1651e-07 9.12785e-07 -0.00100041)
(-6.80717e-08 1.0318e-06 -0.000999742)
(-1.97393e-07 1.03149e-06 -0.000999786)
(-3.06009e-07 1.02744e-06 -0.000999867)
(-3.83419e-07 1.02183e-06 -0.000999977)
(-4.22286e-07 1.0152e-06 -0.00100011)
(-9.0608e-08 2.16385e-07 -0.00100083)
(-2.6259e-07 2.16819e-07 -0.00100089)
(-4.06306e-07 2.16885e-07 -0.001001)
(-5.07463e-07 2.1691e-07 -0.00100115)
(-5.56948e-07 2.16857e-07 -0.00100132)
(-9.07533e-08 6.30868e-07 -0.00100069)
(-2.63025e-07 6.31925e-07 -0.00100075)
(-4.07041e-07 6.31717e-07 -0.00100086)
(-5.08513e-07 6.31269e-07 -0.00100101)
(-5.58265e-07 6.30562e-07 -0.00100118)
(-9.09135e-08 9.88236e-07 -0.00100044)
(-2.63488e-07 9.89302e-07 -0.0010005)
(-4.07831e-07 9.87899e-07 -0.00100061)
(-5.09669e-07 9.85777e-07 -0.00100075)
(-5.59802e-07 9.83088e-07 -0.00100092)
(-9.15391e-08 1.25604e-06 -0.00100008)
(-2.65271e-07 1.25644e-06 -0.00100014)
(-4.10635e-07 1.25295e-06 -0.00100025)
(-5.13352e-07 1.24801e-06 -0.0010004)
(-5.64075e-07 1.24201e-06 -0.00100057)
(-9.28486e-08 1.40722e-06 -0.000999657)
(-2.68973e-07 1.40654e-06 -0.000999716)
(-4.16318e-07 1.40055e-06 -0.000999826)
(-5.20613e-07 1.39229e-06 -0.000999976)
(-5.72286e-07 1.38248e-06 -0.00100015)
(-1.24717e-07 2.92017e-07 -0.00100112)
(-3.60929e-07 2.92906e-07 -0.0010012)
(-5.56983e-07 2.93538e-07 -0.00100135)
(-6.9325e-07 2.94263e-07 -0.00100156)
(-7.57935e-07 2.94933e-07 -0.0010018)
(-1.24614e-07 8.52233e-07 -0.00100094)
(-3.60678e-07 8.54398e-07 -0.00100102)
(-5.56751e-07 8.55451e-07 -0.00100118)
(-6.93244e-07 8.56545e-07 -0.00100138)
(-7.58297e-07 8.57386e-07 -0.00100161)
(-1.24399e-07 1.33774e-06 -0.0010006)
(-3.60083e-07 1.33994e-06 -0.00100068)
(-5.56023e-07 1.33943e-06 -0.00100083)
(-6.92747e-07 1.33833e-06 -0.00100103)
(-7.58315e-07 1.33651e-06 -0.00100126)
(-1.24922e-07 1.70541e-06 -0.00100012)
(-3.61571e-07 1.70631e-06 -0.0010002)
(-5.58453e-07 1.70223e-06 -0.00100035)
(-6.96193e-07 1.69632e-06 -0.00100055)
(-7.62688e-07 1.68899e-06 -0.00100078)
(-1.26671e-07 1.91818e-06 -0.000999546)
(-3.66519e-07 1.91691e-06 -0.000999626)
(-5.6609e-07 1.90813e-06 -0.000999776)
(-7.05995e-07 1.89605e-06 -0.000999979)
(-7.74043e-07 1.88163e-06 -0.00100021)
(-1.72751e-07 3.92349e-07 -0.0010015)
(-4.99067e-07 3.942e-07 -0.00100162)
(-7.67337e-07 3.96257e-07 -0.00100184)
(-9.50441e-07 3.98758e-07 -0.00100213)
(-1.03356e-06 4.01292e-07 -0.00100246)
(-1.71966e-07 1.1465e-06 -0.00100127)
(-4.9688e-07 1.15105e-06 -0.00100139)
(-7.64304e-07 1.15548e-06 -0.0010016)
(-9.47286e-07 1.16076e-06 -0.00100188)
(-1.03091e-06 1.1659e-06 -0.0010022)
(-1.70699e-07 1.80457e-06 -0.00100082)
(-4.93296e-07 1.80929e-06 -0.00100093)
(-7.59244e-07 1.81181e-06 -0.00100114)
(-9.41971e-07 1.8144e-06 -0.00100142)
(-1.02632e-06 1.81618e-06 -0.00100173)
(-1.70644e-07 2.31016e-06 -0.00100018)
(-4.93137e-07 2.31226e-06 -0.00100029)
(-7.59315e-07 2.3084e-06 -0.0010005)
(-9.42965e-07 2.30254e-06 -0.00100077)
(-1.02875e-06 2.29478e-06 -0.00100107)
(-1.72885e-07 2.61218e-06 -0.000999405)
(-4.99461e-07 2.60992e-06 -0.000999515)
(-7.69073e-07 2.59718e-06 -0.000999719)
(-9.55588e-07 2.57971e-06 -0.000999992)
(-1.04374e-06 2.55888e-06 -0.0010003)
(-2.414e-07 5.23894e-07 -0.001002)
(-6.96063e-07 5.27777e-07 -0.00100217)
(-1.06483e-06 5.33221e-07 -0.00100249)
(-1.31001e-06 5.39866e-07 -0.0010029)
(-1.41374e-06 5.46783e-07 -0.00100336)
(-2.3896e-07 1.53319e-06 -0.0010017)
(-6.89062e-07 1.5429e-06 -0.00100187)
(-1.0548e-06 1.55559e-06 -0.00100217)
(-1.29897e-06 1.57101e-06 -0.00100257)
(-1.4035e-06 1.58666e-06 -0.00100301)
(-2.35076e-07 2.4221e-06 -0.00100111)
(-6.78021e-07 2.4323e-06 -0.00100127)
(-1.03893e-06 2.44287e-06 -0.00100156)
(-1.28158e-06 2.45545e-06 -0.00100194)
(-1.38737e-06 2.46725e-06 -0.00100236)
(-2.33338e-07 3.11874e-06 -0.00100028)
(-6.72998e-07 3.12356e-06 -0.00100043)
(-1.03182e-06 3.12224e-06 -0.0010007)
(-1.27466e-06 3.11946e-06 -0.00100107)
(-1.38278e-06 3.1142e-06 -0.00100148)
(-2.36043e-07 3.55174e-06 -0.000999233)
(-6.80467e-07 3.54783e-06 -0.000999384)
(-1.04318e-06 3.52945e-06 -0.000999661)
(-1.28961e-06 3.50461e-06 -0.00100003)
(-1.40136e-06 3.47506e-06 -0.00100044)
(-3.41205e-07 6.93602e-07 -0.00100263)
(-9.82861e-07 7.01659e-07 -0.00100289)
(-1.49323e-06 7.14895e-07 -0.00100336)
(-1.82002e-06 7.30685e-07 -0.00100395)
(-1.94238e-06 7.47521e-07 -0.00100461)
(-3.35095e-07 2.03262e-06 -0.00100225)
(-9.64691e-07 2.05335e-06 -0.00100249)
(-1.46696e-06 2.08542e-06 -0.00100294)
(-1.79077e-06 2.12404e-06 -0.0010035)
(-1.91478e-06 2.16399e-06 -0.00100413)
(-3.25064e-07 3.22683e-06 -0.00100151)
(-9.35937e-07 3.24888e-06 -0.00100173)
(-1.42553e-06 3.27901e-06 -0.00100213)
(-1.74503e-06 3.3159e-06 -0.00100265)
(-1.87211e-06 3.35218e-06 -0.00100323)
(-3.1922e-07 4.19003e-06 -0.00100042)
(-9.1884e-07 4.20063e-06 -0.00100063)
(-1.40017e-06 4.20741e-06 -0.00100101)
(-1.71768e-06 4.21512e-06 -0.00100149)
(-1.8491e-06 4.21976e-06 -0.00100203)
(-3.22266e-07 4.81737e-06 -0.000999034)
(-9.26561e-07 4.81052e-06 -0.000999239)
(-1.41126e-06 4.78406e-06 -0.000999615)
(-1.73268e-06 4.74942e-06 -0.0010001)
(-1.87004e-06 4.7087e-06 -0.00100064)
(-4.88477e-07 9.0814e-07 -0.00100341)
(-1.41217e-06 9.24027e-07 -0.00100379)
(-2.12531e-06 9.55219e-07 -0.00100452)
(-2.5588e-06 9.89942e-07 -0.00100538)
(-2.6848e-06 1.02925e-06 -0.00100636)
(-4.75213e-07 2.6604e-06 -0.00100293)
(-1.36925e-06 2.70415e-06 -0.00100329)
(-2.06303e-06 2.78178e-06 -0.00100396)
(-2.48921e-06 2.87137e-06 -0.00100477)
(-2.62006e-06 2.96654e-06 -0.00100567)
(-4.50928e-07 4.25007e-06 -0.00100203)
(-1.29871e-06 4.29765e-06 -0.00100234)
(-1.96213e-06 4.37351e-06 -0.00100291)
(-2.37885e-06 4.46709e-06 -0.00100362)
(-2.5196e-06 4.55977e-06 -0.00100442)
(-4.35956e-07 5.59229e-06 -0.00100066)
(-1.25429e-06 5.6142e-06 -0.00100094)
(-1.8939e-06 5.64096e-06 -0.00100146)
(-2.30307e-06 5.67554e-06 -0.00100208)
(-2.45388e-06 5.7067e-06 -0.0010028)
(-4.3949e-07 6.5092e-06 -0.000998817)
(-1.26076e-06 6.4964e-06 -0.000999094)
(-1.90107e-06 6.45789e-06 -0.000999608)