/*--------------------------------*- C++ -*----------------------------------*\
| =========                 |                                                 |
| \\      /  F ield         | OpenFOAM: The Open Source CFD Toolbox           |
|  \\    /   O peration     | Version:  5.x                                   |
|   \\  /    A nd           | Web:      www.OpenFOAM.org                      |
|    \\/     M anipulation  |                                                 |
\*---------------------------------------------------------------------------*/
FoamFile
{
    version     2.0;
    format      ascii;
    class       surfaceScalarField;
    location    "4000";
    object      phi;
}
// * * * * * * * * * * * * * * * * * * * * * * * * * * * * * * * * * * * * * //

dimensions      [0 3 -1 0 0 0 0];

internalField   nonuniform List<scalar> 
179
(
-250.019
-250.02
-250.02
-250.021
-250.022
-250.023
-250.025
-250.027
-250.029
-250.031
-250.034
-250.037
-250.04
-250.044
-250.048
-250.053
-250.058
-250.064
-250.071
-250.078
-250.086
-250.095
-250.104
-250.115
-250.126
-250.139
-250.153
-250.169
-250.186
-250.205
-250.225
-250.248
-250.272
-250.299
-250.329
-250.361
-250.397
-250.435
-250.477
-250.523
-250.573
-250.627
-250.686
-250.75
-250.819
-250.894
-250.975
-251.062
-251.156
-251.257
-251.365
-251.481
-251.605
-251.736
-251.875
-252.022
-252.177
-252.338
-252.506
-252.679
-252.856
-253.036
-253.215
-253.39
-253.559
-253.716
-253.855
-253.969
-254.049
-254.083
-254.057
-253.957
-253.76
-253.443
-252.976
-252.326
-251.463
-250.379
-249.129
-247.919
-247.513
-247.579
-262.44
-264.781
-268.242
-271.391
-277.489
-281.859
-281.251
-265.635
-257.75
-240.934
-237.101
-223.459
-215.457
-212.668
-191.056
-189.47
-185.661
-187.87
-195.798
-199.709
-203.359
-206.019
-208.444
-212.283
-216.7
-220.969
-224.805
-228.167
-231.09
-233.625
-235.822
-237.726
-239.375
-240.803
-242.04
-243.112
-244.04
-244.843
-245.538
-246.141
-246.662
-247.113
-247.504
-247.842
-248.135
-248.388
-248.607
-248.796
-248.96
-249.101
-249.224
-249.33
-249.421
-249.5
-249.568
-249.627
-249.677
-249.721
-249.759
-249.792
-249.82
-249.845
-249.866
-249.884
-249.9
-249.914
-249.925
-249.935
-249.944
-249.952
-249.958
-249.964
-249.969
-249.973
-249.977
-249.98
-249.982
-249.985
-249.987
-249.989
-249.99
-249.991
-249.993
-249.994
-249.994
-249.995
-249.996
-249.996
-249.997
-249.997
-249.998
-249.998
-249.998
-249.999
-249.999
-249.999
-249.999
)
;

boundaryField
{
    inlet
    {
        type            calculated;
        value           uniform -249.999;
    }
    outlet
    {
        type            calculated;
        value           uniform 250.019;
    }
    repeat_boundary
    {
        type            calculated;
        value           uniform 0;
    }
    procBoundary1to0
    {
        type            processor;
        value           nonuniform List<scalar> 
180
(
-2.56377e-06
-1.16573e-05
-2.21184e-05
-3.26282e-05
-4.32578e-05
-5.44007e-05
-6.63724e-05
-7.94205e-05
-9.37724e-05
-0.00010967
-0.000127389
-0.000147244
-0.000169604
-0.000194903
-0.000223661
-0.000256515
-0.000294302
-0.000337914
-0.000388321
-0.000446646
-0.000514194
-0.000592489
-0.000683305
-0.000788711
-0.000911111
-0.0010533
-0.00121851
-0.00141049
-0.00163356
-0.00189261
-0.00219344
-0.00254271
-0.00294817
-0.00341877
-0.00396483
-0.00459833
-0.00533304
-0.00618491
-0.00717235
-0.00831664
-0.00964243
-0.0111781
-0.0129565
-0.0150156
-0.0173993
-0.0201583
-0.0233513
-0.0270458
-0.0313204
-0.0362653
-0.0419852
-0.0486008
-0.0562516
-0.0650991
-0.0753294
-0.087158
-0.100833
-0.116643
-0.134919
-0.156046
-0.180466
-0.208693
-0.241322
-0.279037
-0.322635
-0.373036
-0.431306
-0.49868
-0.576593
-0.666707
-0.770953
-0.891566
-1.03113
-1.19246
-1.37796
-1.58694
-1.80665
-1.99673
-2.05462
-1.79204
-0.277935
-0.00657556
6.06887
1.06491
4.24562
2.51608
5.99405
10.1784
0.389184
-7.83476
-1.46609
-10.4863
-1.68425
-5.27283
-0.456521
-0.43043
-5.59881
-1.5457
-0.486927
1.79935
2.09365
2.07429
3.27527
1.19661
0.470995
1.50218
1.79374
1.67424
1.45782
1.24859
1.06447
0.905273
0.768495
0.651343
0.551146
0.465538
0.392471
0.330178
0.277136
0.232032
0.193732
0.161259
0.133772
0.110547
0.0909595
0.0744685
0.0606034
0.0488041
0.0388625
0.0305899
0.023739
0.018105
0.0135254
0.00975916
0.00651545
0.00384507
0.00162568
-0.000203578
-0.00172043
-0.00250568
-0.00288082
-0.00313668
-0.00349318
-0.00378017
-0.00397267
-0.00407827
-0.00411002
-0.00407987
-0.00400223
-0.00388888
-0.00374926
-0.00359102
-0.00342036
-0.00324228
-0.00306082
-0.00287919
-0.00269993
-0.002525
-0.00235593
-0.00219382
-0.00203947
-0.00189342
-0.001756
-0.00162737
-0.00150756
-0.00139649
-0.001294
-0.0011999
-0.00111394
-0.00103587
-0.000965397
-0.000902269
-0.000846222
-0.000797006
-0.00075438
-0.000718101
-0.000687896
-0.000663809
-0.000644582
-0.000640477
)
;
    }
    procBoundary1to3
    {
        type            processor;
        value           nonuniform List<scalar> 
180
(
0.000261725
0.0003838
0.000570745
0.000786814
0.00101864
0.00126305
0.0015209
0.00179439
0.00208618
0.00239916
0.00273645
0.0031014
0.00349759
0.00392893
0.00439962
0.00491425
0.00547781
0.00609571
0.0067739
0.00751883
0.00833758
0.00923786
0.0102281
0.0113176
0.0125163
0.0138353
0.0152867
0.0168835
0.0186401
0.0205723
0.022697
0.0250329
0.0276002
0.0304212
0.0335197
0.0369218
0.040656
0.0447529
0.0492457
0.0541703
0.0595656
0.0654732
0.0719379
0.0790075
0.0867343
0.0951764
0.104394
0.114453
0.12542
0.137369
0.150375
0.164521
0.179889
0.196569
0.214651
0.234227
0.255392
0.278238
0.302857
0.329333
0.357742
0.388147
0.420592
0.455094
0.49164
0.530169
0.570567
0.61265
0.656157
0.700736
0.745955
0.791328
0.834778
0.875263
0.911095
0.937502
0.944361
0.912278
0.804838
0.582443
-0.12774
0.0722751
8.79287
1.27602
-0.785449
0.633279
0.104034
-5.80874
-0.996923
-7.78178
-6.41891
-6.32887
-2.14912
-8.36897
-7.54522
-2.35907
-16.0135
-0.0400749
-3.32255
0.409604
5.83446
1.83769
0.374368
1.46264
1.9537
2.33643
2.62277
2.59365
2.37794
2.11321
1.85836
1.62956
1.42818
1.25182
1.09752
0.962508
0.844349
0.740918
0.650361
0.571058
0.501595
0.440735
0.387399
0.340645
0.299647
0.263688
0.232137
0.204445
0.180131
0.158774
0.140008
0.123513
0.109009
0.0962526
0.0850286
0.0751488
0.0664477
0.0587802
0.0520185
0.0460501
0.0407802
0.0361274
0.0320203
0.028394
0.025191
0.0223608
0.0198587
0.0176457
0.0156875
0.0139539
0.0124185
0.0110579
0.0098517
0.00878194
0.00783276
0.00699026
0.00624217
0.00557773
0.00498743
0.00446291
0.00399679
0.00358259
0.00321456
0.00288766
0.00259743
0.00233993
0.0021117
0.00190966
0.00173112
0.00157371
0.00143532
0.00131414
0.00120856
0.0011172
0.00103886
0.000972536
0.000917343
0.000872218
0.000838243
0.000831251
)
;
    }
}


// ************************************************************************* //
