FoamFile
{version 2.0; format ascii;class Cloud<passiveParticle>; location 0;object  positions;}
42
(
( -0.00047773 4.20204e-05 9.98645e-05 ) 0 
( -0.000332561 0.000179473 9.98489e-05 ) 0 
( -0.000323903 0.00042588 9.98235e-05 ) 0 
( -0.000494886 0.000322235 9.9791e-05 ) 0 
( -0.000102327 9.36851e-05 9.98814e-05 ) 0 
( -0.000170186 0.000296638 9.99028e-05 ) 0 
( -0.000485721 0.000184606 0.000244353 ) 0 
( -0.000324803 0.000302581 0.000257055 ) 0 
( -0.000218698 0.000133097 0.000257521 ) 0 
( -0.000174136 0.000433471 0.000246042 ) 0 
( -6.89569e-05 0.00026506 0.000269348 ) 0 
( -0.000380743 1.69668e-05 0.000272836 ) 0 
( -7.39388e-07 0.000432142 0.00035532 ) 0 
( -0.000353008 0.000167426 0.000401544 ) 0 
( -8.19137e-05 0.000114587 0.000402131 ) 0 
( -0.000409942 1.76773e-05 0.000520981 ) 0 
( -0.000363362 0.000415938 0.000417054 ) 0 
( -0.000202036 0.000297842 0.000414766 ) 0 
( -0.000148866 2.26399e-05 0.000580369 ) 0 
( -0.000145452 0.000222305 0.000591027 ) 0 
( -0.000403536 0.000280439 0.000558494 ) 0 
( -0.000225864 0.000407169 0.000580346 ) 0 
( -2.14147e-05 0.000289206 0.000732885 ) 0 
( -0.000305834 0.000118712 0.000658513 ) 0 
( -0.00049674 0.000340572 0.000724795 ) 0 
( -0.000156684 0.000461012 0.000759952 ) 0 
( -0.000321099 3.883e-06 0.000821479 ) 0 
( -0.000351628 0.000478028 0.000718641 ) 0 
( -0.000269683 0.00029703 0.000741302 ) 0 
( -0.000441785 0.000162924 0.000798288 ) 0 
( -0.000112712 0.000112725 0.000755134 ) 0 
( -0.000330834 0.000265748 0.000929093 ) 0 
( -0.000139712 0.000312093 0.000892486 ) 0 
( -0.000190018 0.000124109 0.000939161 ) 0 
( -0.000422942 0.00044113 0.000901693 ) 0 
( -0.000352906 8.46051e-05 0.00104818 ) 0 
( -0.00024275 0.000454942 0.000987194 ) 0 
( -1.38933e-05 0.000207665 0.00108328 ) 0 
( -0.00018711 0.000129434 0.00115059 ) 0 
( -0.000407717 0.000452427 0.00110074 ) 0 
( -0.000169889 0.00032661 0.00112212 ) 0 
( -0.000358533 0.00026249 0.00113933 ) 0 
)
