FoamFile
{version 2.0; format ascii;class vectorField; location 0;object  v;}
42
(
( 2.14844e-05 -2.13497e-05 3.81198e-05 )  
( -1.26135e-06 -4.45942e-06 6.62695e-05 )  
( 2.18456e-05 1.05395e-05 6.55669e-05 )  
( -9.17853e-06 2.06054e-05 7.72192e-05 )  
( 6.0613e-06 4.20818e-06 4.58866e-05 )  
( -2.82144e-06 1.50348e-05 5.00282e-05 )  
( 2.83726e-06 -2.89095e-05 0.000109974 )  
( 3.48107e-06 -3.4346e-06 0.00014414 )  
( 3.72611e-06 -4.4278e-07 0.000105966 )  
( 1.75757e-05 -1.38211e-05 0.000167627 )  
( 9.01108e-06 -1.3617e-05 0.000120246 )  
( 2.19269e-05 -1.96978e-05 9.38657e-05 )  
( 2.62223e-05 -2.73421e-05 0.000144413 )  
( 1.16779e-05 -4.55482e-05 0.000168525 )  
( 7.7755e-06 -1.10952e-05 0.000137877 )  
( 4.4407e-05 -3.89355e-05 0.000247439 )  
( 2.62893e-05 -2.86612e-05 0.000236021 )  
( -7.63151e-06 -5.7069e-05 0.00020711 )  
( -1.42645e-05 8.48312e-06 0.000274197 )  
( 3.02273e-05 -2.93858e-06 0.000275157 )  
( 7.10313e-05 -4.61667e-05 0.000256148 )  
( 1.50404e-05 -7.12492e-05 0.000309395 )  
( 6.19054e-05 2.57296e-05 0.000252348 )  
( -6.79901e-07 -3.4906e-05 0.000348453 )  
( 7.85633e-05 -4.41e-05 0.000324672 )  
( 2.28266e-06 -2.98396e-05 0.000370905 )  
( 2.10069e-05 -2.36987e-05 0.000346813 )  
( 9.09934e-06 -1.19533e-05 0.00033999 )  
( -6.60311e-06 -2.70153e-05 0.00039246 )  
( 4.49319e-06 -4.27277e-05 0.000341657 )  
( 4.97945e-05 6.41399e-05 0.000301288 )  
( -2.41484e-05 2.46444e-05 0.000456086 )  
( 4.55847e-05 0.000105628 0.00035817 )  
( -3.0822e-05 1.85333e-05 0.000291895 )  
( -2.30042e-05 1.98135e-06 0.000369852 )  
( -3.5995e-05 -4.78205e-05 0.000203629 )  
( -1.89394e-05 8.57503e-05 0.00034145 )  
( -1.36815e-05 -1.34553e-05 0.00022439 )  
( -1.67886e-05 -5.26293e-06 1.7915e-05 )  
( -5.35593e-05 -6.38741e-05 0.000365471 )  
( -8.99214e-06 -2.52291e-05 0.000133401 )  
( 1.94065e-05 -7.47207e-05 0.000186825 )  
)
