/*--------------------------------*- C++ -*----------------------------------*\
| =========                 |                                                 |
| \\      /  F ield         | OpenFOAM: The Open Source CFD Toolbox           |
|  \\    /   O peration     | Version:  5.x                                   |
|   \\  /    A nd           | Web:      www.OpenFOAM.org                      |
|    \\/     M anipulation  |                                                 |
\*---------------------------------------------------------------------------*/
FoamFile
{
    version     2.0;
    format      ascii;
    class       volVectorField;
    location    "4000";
    object      stored_U;
}
// * * * * * * * * * * * * * * * * * * * * * * * * * * * * * * * * * * * * * //

dimensions      [0 1 -1 0 0 0 0];

internalField   nonuniform List<vector> 
180
(
(-0.0010053 -0.0041185 10.8094)
(0.0735571 -0.111952 12.7044)
(0.0471234 -0.0712326 12.1109)
(0.0386282 -0.0255432 11.5668)
(-0.127401 0.0859654 11.741)
(0.0561003 -0.00488221 11.0865)
(-0.00521909 0.0842437 12.1587)
(-0.138408 0.104986 12.0671)
(-0.433016 0.122571 11.8126)
(-0.442265 0.023801 12.2356)
(-0.0607837 -0.102551 11.1924)
(-0.0739872 -0.0171362 12.1831)
(-0.029139 -0.0320624 12.1687)
(-0.201934 0.0301286 12.2277)
(-0.314101 0.101205 11.9306)
(0.0366298 -0.0411931 11.1148)
(-0.0618046 0.0387624 12.5848)
(-0.332427 0.221624 12.5118)
(-0.812324 0.644243 12.2472)
(-0.849861 0.700365 12.8433)
(-0.299061 0.223967 11.8929)
(-0.285116 0.130428 13.4638)
(0.032327 -0.10712 11.4308)
(0.0106653 0.0374814 12.8602)
(0.0479803 0.0733898 12.9489)
(-0.191721 0.287138 12.357)
(-0.600298 0.532784 12.7544)
(-0.137181 -0.0538652 12.968)
(-0.265506 0.0497976 11.7346)
(-0.267037 -0.0419466 12.7819)
(-0.18683 -0.265058 12.9542)
(-0.0731407 -0.603224 12.7582)
(-0.147131 -0.725767 12.1694)
(-0.167142 -0.609806 13.1218)
(-0.0838421 -0.385642 12.1274)
(-0.109427 -0.113122 12.0184)
(-0.274016 0.297563 12.5852)
(0.0576819 0.191151 11.5292)
(-0.0588247 0.421676 12.6947)
(-0.340987 0.523902 12.8344)
(-0.568185 0.596883 12.5713)
(-0.528864 0.579382 13.3738)
(-0.274445 0.363912 11.3334)
(-0.267068 0.44551 13.9146)
(-0.0842175 0.0579566 11.907)
(-0.419602 0.515373 13.0991)
(-0.587618 0.735734 13.1313)
(-0.675947 0.648004 13.0498)
(-1.0951 1.24745 13.1244)
(-0.961459 0.877658 13.5518)
(-0.909125 0.833161 13.4814)
(-0.79599 0.841764 14.5553)
(-0.40237 0.448188 12.3233)
(-0.194361 0.489275 15.1589)
(-0.0476364 0.14506 12.803)
(0.342671 0.341462 14.8905)
(0.384112 0.166426 13.6814)
(0.326063 0.0447538 13.5036)
(0.150939 0.0674376 13.7823)
(0.0350319 0.0561148 13.6956)
(-0.162108 0.264434 14.0176)
(-0.236564 0.265018 13.0653)
(-0.35427 0.320343 14.3278)
(-0.559548 0.579427 14.6093)
(-0.906852 0.989058 14.4125)
(-1.03216 1.03313 14.5462)
(-0.788406 0.596594 14.4201)
(-0.618425 0.309699 15.3235)
(-0.712662 0.288549 13.6161)
(-0.747066 0.305134 15.6065)
(-0.868919 0.390057 13.7757)
(-0.475433 0.179731 15.1116)
(-0.219914 -0.0817834 15.0438)
(0.141749 -0.221601 14.7392)
(0.772363 -0.666718 14.6673)
(0.405065 -0.542573 14.7249)
(0.507064 -0.275306 13.2821)
(0.554311 -0.269651 14.5857)
(0.488147 -0.0882933 13.9075)
(1.00182 -0.432158 14.1965)
(1.08055 -0.42789 12.8234)
(0.976814 -0.275732 13.657)
(1.13195 -0.283566 13.3366)
(1.40355 -0.292397 13.6504)
(1.43194 -0.135279 12.0658)
(1.37882 0.0299173 12.8279)
(1.52794 0.0168835 13.3555)
(1.85015 0.193462 11.6503)
(2.29512 0.365048 12.2045)
(2.43779 0.364549 12.4759)
(2.87139 0.796697 11.8813)
(3.36427 1.37383 11.7778)
(3.03099 1.26342 10.9259)
(4.33824 1.49931 11.1792)
(5.24097 1.54597 11.8478)
(4.86813 2.18194 10.264)
(7.11096 3.20811 10.928)
(8.36404 3.68233 11.8374)
(6.77173 3.63889 10.3308)
(8.1715 5.4603 11.5275)
(8.23536 6.00708 11.9737)
(8.13403 6.64053 11.7904)
(8.23497 7.32773 12.1233)
(8.37208 7.99359 12.982)
(7.02789 8.10054 13.1264)
(6.76668 8.59292 13.3927)
(6.33073 11.3961 15.4426)
(5.41905 11.2159 15.4021)
(0.991851 9.6822 15.958)
(0.913104 13.3596 18.6152)
(-0.32568 14.8185 20.0223)
(-2.57251 14.4587 21.5578)
(-7.7548 14.1959 24.9626)
(-12.3969 13.1345 29.4674)
(-18.0365 13.884 32.7064)
(-19.5384 13.3584 39.6414)
(-25.2304 16.1613 43.4501)
(-27.5603 19.9537 50.9398)
(-35.2152 21.9565 56.7345)
(-40.7559 25.4926 66.1735)
(-44.3077 30.4197 73.6755)
(-57.0393 30.6939 81.8979)
(-68.2426 42.1116 94.9471)
(-76.1433 45.2461 105.844)
(-87.0532 51.1259 119.619)
(-96.983 50.0588 132.911)
(-101.198 53.4423 148.028)
(-101.62 54.9073 163.157)
(-102.389 61.8608 176.564)
(-102.907 64.7264 191.682)
(-107.765 79.0005 203.982)
(-102.827 76.328 220.745)
(-98.8774 82.6369 225.568)
(-97.8552 117.398 247.418)
(-94.6761 117.831 251.828)
(-96.0846 138.711 262.906)
(-59.8038 178.332 290.698)
(-37.483 190.94 300.077)
(-21.0528 200.838 303.389)
(31.6726 169.641 315.257)
(98.5434 63.0338 314.477)
(131.718 -32.6892 297.081)
(141.322 -111.048 276.22)
(133.521 -155.163 250.34)
(118.521 -175.779 226.501)
(101.187 -178.348 203.487)
(85.1932 -168.483 183.137)
(71.7117 -151.989 164.378)
(61.1693 -133.294 147.889)
(53.3863 -115.093 133.393)
(47.8083 -98.82 120.803)
(43.7855 -84.8717 109.834)
(40.6178 -73.1225 100.103)
(37.8277 -63.2884 91.3614)
(35.2092 -55.0324 83.4772)
(32.679 -48.0492 76.3453)
(30.2227 -42.0881 69.8903)
(27.8524 -36.9525 64.0487)
(25.5887 -32.4938 58.74)
(23.4474 -28.5979 53.8975)
(21.4366 -25.1787 49.4826)
(19.5614 -22.1684 45.459)
(17.8181 -19.5143 41.7991)
(16.2035 -17.1726 38.4714)
(14.7133 -15.107 35.4501)
(13.3407 -13.2842 32.7104)
(12.0789 -11.678 30.2318)
(10.9183 -10.2597 27.9928)
(9.85289 -9.01506 25.9778)
(8.86737 -7.9087 24.1717)
(7.95928 -6.94806 22.5678)
(7.10657 -6.0711 21.1884)
(6.32645 -5.35323 19.9466)
(5.56758 -4.645 18.9188)
(4.89753 -4.15448 17.8951)
(4.04682 -3.58821 17.3487)
(3.61484 -3.15626 15.9478)
(2.82085 -3.1299 16.7605)
(2.314 -2.50677 15.7558)
(0.979779 -2.34711 15.7901)
)
;

boundaryField
{
    inlet
    {
        type            calculated;
        value           uniform (0.979779 -2.34711 15.7901);
    }
    outlet
    {
        type            calculated;
        value           uniform (-0.0010053 -0.0041185 10.8094);
    }
    repeat_boundary
    {
        type            calculated;
        value           nonuniform List<vector> 
360
(
(-0.0010053 0 10.8094)
(0.0735571 0 12.7044)
(0.0471234 0 12.1109)
(0.0386282 0 11.5668)
(-0.127401 0 11.741)
(0.0561003 0 11.0865)
(-0.00521909 0 12.1587)
(-0.138408 0 12.0671)
(-0.433016 0 11.8126)
(-0.442265 0 12.2356)
(-0.0607837 0 11.1924)
(-0.0739872 0 12.1831)
(-0.029139 0 12.1687)
(-0.201934 0 12.2277)
(-0.314101 0 11.9306)
(0.0366298 0 11.1148)
(-0.0618046 0 12.5848)
(-0.332427 0 12.5118)
(-0.812324 0 12.2472)
(-0.849861 0 12.8433)
(-0.299061 0 11.8929)
(-0.285116 0 13.4638)
(0.032327 0 11.4308)
(0.0106653 0 12.8602)
(0.0479803 0 12.9489)
(-0.191721 0 12.357)
(-0.600298 0 12.7544)
(-0.137181 0 12.968)
(-0.265506 0 11.7346)
(-0.267037 0 12.7819)
(-0.18683 0 12.9542)
(-0.0731407 0 12.7582)
(-0.147131 0 12.1694)
(-0.167142 0 13.1218)
(-0.0838421 0 12.1274)
(-0.109427 0 12.0184)
(-0.274016 0 12.5852)
(0.0576819 0 11.5292)
(-0.0588247 0 12.6947)
(-0.340987 0 12.8344)
(-0.568185 0 12.5713)
(-0.528864 0 13.3738)
(-0.274445 0 11.3334)
(-0.267068 0 13.9146)
(-0.0842175 0 11.907)
(-0.419602 0 13.0991)
(-0.587618 0 13.1313)
(-0.675947 0 13.0498)
(-1.0951 0 13.1244)
(-0.961459 0 13.5518)
(-0.909125 0 13.4814)
(-0.79599 0 14.5553)
(-0.40237 0 12.3233)
(-0.194361 0 15.1589)
(-0.0476364 0 12.803)
(0.342671 0 14.8905)
(0.384112 0 13.6814)
(0.326063 0 13.5036)
(0.150939 0 13.7823)
(0.0350319 0 13.6956)
(-0.162108 0 14.0176)
(-0.236564 0 13.0653)
(-0.35427 0 14.3278)
(-0.559548 0 14.6093)
(-0.906852 0 14.4125)
(-1.03216 0 14.5462)
(-0.788406 0 14.4201)
(-0.618425 0 15.3235)
(-0.712662 0 13.6161)
(-0.747066 0 15.6065)
(-0.868919 0 13.7757)
(-0.475433 0 15.1116)
(-0.219914 0 15.0438)
(0.141749 0 14.7392)
(0.772363 0 14.6673)
(0.405065 0 14.7249)
(0.507064 0 13.2821)
(0.554311 0 14.5857)
(0.488147 0 13.9075)
(1.00182 0 14.1965)
(1.08055 0 12.8234)
(0.976814 0 13.657)
(1.13195 0 13.3366)
(1.40355 0 13.6504)
(1.43194 0 12.0658)
(1.37882 0 12.8279)
(1.52794 0 13.3555)
(1.85015 0 11.6503)
(2.29512 0 12.2045)
(2.43779 0 12.4759)
(2.87139 0 11.8813)
(3.36427 0 11.7778)
(3.03099 0 10.9259)
(4.33824 0 11.1792)
(5.24097 0 11.8478)
(4.86813 0 10.264)
(7.11096 0 10.928)
(8.36404 0 11.8374)
(6.77173 0 10.3308)
(8.1715 0 11.5275)
(8.23536 0 11.9737)
(8.13403 0 11.7904)
(8.23497 0 12.1233)
(8.37208 0 12.982)
(7.02789 0 13.1264)
(6.76668 0 13.3927)
(6.33073 0 15.4426)
(5.41905 0 15.4021)
(0.991851 0 15.958)
(0.913104 0 18.6152)
(-0.32568 0 20.0223)
(-2.57251 0 21.5578)
(-7.7548 0 24.9626)
(-12.3969 0 29.4674)
(-18.0365 0 32.7064)
(-19.5384 0 39.6414)
(-25.2304 0 43.4501)
(-27.5603 0 50.9398)
(-35.2152 0 56.7345)
(-40.7559 0 66.1735)
(-44.3077 0 73.6755)
(-57.0393 0 81.8979)
(-68.2426 0 94.9471)
(-76.1433 0 105.844)
(-87.0532 0 119.619)
(-96.983 0 132.911)
(-101.198 0 148.028)
(-101.62 0 163.157)
(-102.389 0 176.564)
(-102.907 0 191.682)
(-107.765 0 203.982)
(-102.827 0 220.745)
(-98.8774 0 225.568)
(-97.8552 0 247.418)
(-94.6761 0 251.828)
(-96.0846 0 262.906)
(-59.8038 0 290.698)
(-37.483 0 300.077)
(-21.0528 0 303.389)
(31.6726 0 315.257)
(98.5434 0 314.477)
(131.718 0 297.081)
(141.322 0 276.22)
(133.521 0 250.34)
(118.521 0 226.501)
(101.187 0 203.487)
(85.1932 0 183.137)
(71.7117 0 164.378)
(61.1693 0 147.889)
(53.3863 0 133.393)
(47.8083 0 120.803)
(43.7855 0 109.834)
(40.6178 0 100.103)
(37.8277 0 91.3614)
(35.2092 0 83.4772)
(32.679 0 76.3453)
(30.2227 0 69.8903)
(27.8524 0 64.0487)
(25.5887 0 58.74)
(23.4474 0 53.8975)
(21.4366 0 49.4826)
(19.5614 0 45.459)
(17.8181 0 41.7991)
(16.2035 0 38.4714)
(14.7133 0 35.4501)
(13.3407 0 32.7104)
(12.0789 0 30.2318)
(10.9183 0 27.9928)
(9.85289 0 25.9778)
(8.86737 0 24.1717)
(7.95928 0 22.5678)
(7.10657 0 21.1884)
(6.32645 0 19.9466)
(5.56758 0 18.9188)
(4.89753 0 17.8951)
(4.04682 0 17.3487)
(3.61484 0 15.9478)
(2.82085 0 16.7605)
(2.314 0 15.7558)
(0.979779 0 15.7901)
(0 -0.0041185 10.8094)
(0 -0.111952 12.7044)
(0 -0.0712326 12.1109)
(0 -0.0255432 11.5668)
(0 0.0859654 11.741)
(0 -0.00488221 11.0865)
(0 0.0842437 12.1587)
(0 0.104986 12.0671)
(0 0.122571 11.8126)
(0 0.023801 12.2356)
(0 -0.102551 11.1924)
(0 -0.0171362 12.1831)
(0 -0.0320624 12.1687)
(0 0.0301286 12.2277)
(0 0.101205 11.9306)
(0 -0.0411931 11.1148)
(0 0.0387624 12.5848)
(0 0.221624 12.5118)
(0 0.644243 12.2472)
(0 0.700365 12.8433)
(0 0.223967 11.8929)
(0 0.130428 13.4638)
(0 -0.10712 11.4308)
(0 0.0374814 12.8602)
(0 0.0733898 12.9489)
(0 0.287138 12.357)
(0 0.532784 12.7544)
(0 -0.0538652 12.968)
(0 0.0497976 11.7346)
(0 -0.0419466 12.7819)
(0 -0.265058 12.9542)
(0 -0.603224 12.7582)
(0 -0.725767 12.1694)
(0 -0.609806 13.1218)
(0 -0.385642 12.1274)
(0 -0.113122 12.0184)
(0 0.297563 12.5852)
(0 0.191151 11.5292)
(0 0.421676 12.6947)
(0 0.523902 12.8344)
(0 0.596883 12.5713)
(0 0.579382 13.3738)
(0 0.363912 11.3334)
(0 0.44551 13.9146)
(0 0.0579566 11.907)
(0 0.515373 13.0991)
(0 0.735734 13.1313)
(0 0.648004 13.0498)
(0 1.24745 13.1244)
(0 0.877658 13.5518)
(0 0.833161 13.4814)
(0 0.841764 14.5553)
(0 0.448188 12.3233)
(0 0.489275 15.1589)
(0 0.14506 12.803)
(0 0.341462 14.8905)
(0 0.166426 13.6814)
(0 0.0447538 13.5036)
(0 0.0674376 13.7823)
(0 0.0561148 13.6956)
(0 0.264434 14.0176)
(0 0.265018 13.0653)
(0 0.320343 14.3278)
(0 0.579427 14.6093)
(0 0.989058 14.4125)
(0 1.03313 14.5462)
(0 0.596594 14.4201)
(0 0.309699 15.3235)
(0 0.288549 13.6161)
(0 0.305134 15.6065)
(0 0.390057 13.7757)
(0 0.179731 15.1116)
(0 -0.0817834 15.0438)
(0 -0.221601 14.7392)
(0 -0.666718 14.6673)
(0 -0.542573 14.7249)
(0 -0.275306 13.2821)
(0 -0.269651 14.5857)
(0 -0.0882933 13.9075)
(0 -0.432158 14.1965)
(0 -0.42789 12.8234)
(0 -0.275732 13.657)
(0 -0.283566 13.3366)
(0 -0.292397 13.6504)
(0 -0.135279 12.0658)
(0 0.0299173 12.8279)
(0 0.0168835 13.3555)
(0 0.193462 11.6503)
(0 0.365048 12.2045)
(0 0.364549 12.4759)
(0 0.796697 11.8813)
(0 1.37383 11.7778)
(0 1.26342 10.9259)
(0 1.49931 11.1792)
(0 1.54597 11.8478)
(0 2.18194 10.264)
(0 3.20811 10.928)
(0 3.68233 11.8374)
(0 3.63889 10.3308)
(0 5.4603 11.5275)
(0 6.00708 11.9737)
(0 6.64053 11.7904)
(0 7.32773 12.1233)
(0 7.99359 12.982)
(0 8.10054 13.1264)
(0 8.59292 13.3927)
(0 11.3961 15.4426)
(0 11.2159 15.4021)
(0 9.6822 15.958)
(0 13.3596 18.6152)
(0 14.8185 20.0223)
(0 14.4587 21.5578)
(0 14.1959 24.9626)
(0 13.1345 29.4674)
(0 13.884 32.7064)
(0 13.3584 39.6414)
(0 16.1613 43.4501)
(0 19.9537 50.9398)
(0 21.9565 56.7345)
(0 25.4926 66.1735)
(0 30.4197 73.6755)
(0 30.6939 81.8979)
(0 42.1116 94.9471)
(0 45.2461 105.844)
(0 51.1259 119.619)
(0 50.0588 132.911)
(0 53.4423 148.028)
(0 54.9073 163.157)
(0 61.8608 176.564)
(0 64.7264 191.682)
(0 79.0005 203.982)
(0 76.328 220.745)
(0 82.6369 225.568)
(0 117.398 247.418)
(0 117.831 251.828)
(0 138.711 262.906)
(0 178.332 290.698)
(0 190.94 300.077)
(0 200.838 303.389)
(0 169.641 315.257)
(0 63.0338 314.477)
(0 -32.6892 297.081)
(0 -111.048 276.22)
(0 -155.163 250.34)
(0 -175.779 226.501)
(0 -178.348 203.487)
(0 -168.483 183.137)
(0 -151.989 164.378)
(0 -133.294 147.889)
(0 -115.093 133.393)
(0 -98.82 120.803)
(0 -84.8717 109.834)
(0 -73.1225 100.103)
(0 -63.2884 91.3614)
(0 -55.0324 83.4772)
(0 -48.0492 76.3453)
(0 -42.0881 69.8903)
(0 -36.9525 64.0487)
(0 -32.4938 58.74)
(0 -28.5979 53.8975)
(0 -25.1787 49.4826)
(0 -22.1684 45.459)
(0 -19.5143 41.7991)
(0 -17.1726 38.4714)
(0 -15.107 35.4501)
(0 -13.2842 32.7104)
(0 -11.678 30.2318)
(0 -10.2597 27.9928)
(0 -9.01506 25.9778)
(0 -7.9087 24.1717)
(0 -6.94806 22.5678)
(0 -6.0711 21.1884)
(0 -5.35323 19.9466)
(0 -4.645 18.9188)
(0 -4.15448 17.8951)
(0 -3.58821 17.3487)
(0 -3.15626 15.9478)
(0 -3.1299 16.7605)
(0 -2.50677 15.7558)
(0 -2.34711 15.7901)
)
;
    }
    procBoundary2to0
    {
        type            processor;
        value           nonuniform List<vector> 
180
(
(-0.0117715 -0.00670417 11.3704)
(-0.142166 -0.12529 13.822)
(-0.250679 -0.219099 13.4541)
(-0.281011 -0.228281 13.097)
(-0.236806 -0.154762 12.8605)
(-0.0828075 0.0324329 13.5292)
(-0.109672 -0.0284588 11.7497)
(-0.12019 0.00951137 13.2944)
(-0.171536 -0.00986947 13.3373)
(-0.242719 -0.0141361 12.8599)
(-0.277163 0.000911657 13.0897)
(-0.282881 -0.0221057 12.9069)
(-0.345151 -0.0423587 13.1279)
(-0.374221 -0.0345444 13.0244)
(-0.33009 0.0347354 13.4447)
(-0.285157 0.00833591 12.495)
(-0.220379 0.155869 13.211)
(-0.176903 0.273773 13.2787)
(-0.119563 0.467501 13.5362)
(-0.194209 0.303351 12.3232)
(-0.299503 0.0401559 12.7616)
(-0.478048 -0.314678 12.9074)
(-0.519289 -0.204457 13.2936)
(-0.441538 0.241964 13.651)
(-0.377028 0.175947 12.0898)
(-0.481503 0.0799586 14.1505)
(-0.243224 -0.0655177 12.1893)
(-0.489269 -0.0779128 13.3578)
(-0.528544 0.0614537 14.3009)
(-0.556377 0.0703614 12.0861)
(-1.0676 -0.0657678 13.7232)
(-0.611249 -0.147886 14.0137)
(-1.28131 -0.542188 13.6887)
(-2.11897 -0.912688 13.8305)
(-1.32912 -0.639381 14.2237)
(-1.22256 -0.625925 14.1525)
(-1.07415 -0.581047 14.3972)
(-0.870664 -0.436103 14.3958)
(-0.624222 -0.0651753 14.3124)
(-0.38453 0.339405 14.5469)
(-0.189089 0.428985 14.5959)
(-0.175796 -0.0889001 12.7117)
(-0.280733 -0.270415 15.0742)
(-0.221204 -0.299545 14.2146)
(0.33843 0.211617 12.8571)
(-0.0634757 -0.204258 14.3465)
(-0.357531 -0.423229 14.3499)
(0.282335 0.543941 13.9858)
(0.650041 1.05117 13.801)
(0.495698 0.678694 13.2958)
(0.612552 0.656053 13.5585)
(0.795398 0.674491 13.6873)
(0.881233 0.486794 12.8464)
(0.696921 0.191786 12.0193)
(0.629831 0.0238693 13.5645)
(0.606875 0.00584032 12.6972)
(0.616397 0.0145687 12.407)
(0.442336 -0.0151051 12.4951)
(0.31501 0.0170352 12.4591)
(0.246586 0.0961794 12.4016)
(0.172118 0.176196 12.3312)
(0.103587 0.275551 12.2811)
(0.0394295 0.353521 12.1782)
(-0.0215912 0.382643 12.169)
(-0.0763119 0.378996 12.0027)
(-0.124102 0.128785 12.1824)
(-0.183463 0.0706103 11.3738)
(-0.289265 0.161885 12.6449)
(-0.261276 0.328069 11.7477)
(-0.219768 -0.0107011 12.1554)
(-0.0764022 -0.260069 12.2344)
(0.117815 -0.439179 12.4168)
(0.0839599 -0.612683 11.8953)
(0.162538 -0.481453 11.5209)
(-0.16784 -0.3741 12.1816)
(-0.0218684 -0.474343 12.5232)
(1.00256 -0.802866 12.1538)
(1.63589 -1.01425 12.0464)
(1.45728 -0.928585 11.7946)
(1.46445 -0.865036 12.2788)
(1.24031 -0.39593 10.888)
(1.2322 -0.331505 11.9927)
(0.735551 -0.0624034 11.3077)
(1.12723 -0.18711 11.4496)
(1.37023 -0.126023 11.1646)
(1.32411 -0.0879467 11.5525)
(1.34469 -0.212192 10.4105)
(1.25336 -0.137281 11.1839)
(1.46732 0.118285 10.3767)
(1.65536 0.317832 10.6824)
(2.17843 0.668436 9.91493)
(2.96049 1.124 9.44003)
(4.14277 1.07295 9.63219)
(8.099 3.80565 7.70375)
(10.4056 4.09909 8.06232)
(10.9035 4.49581 6.82528)
(15.0109 7.21548 5.32901)
(13.7115 11.4336 2.69756)
(7.98229 12.262 0.020043)
(5.4779 13.0168 -1.40317)
(2.25171 12.5902 -3.02004)
(-0.645055 12.9408 -4.23874)
(-4.64812 13.972 -6.22465)
(-6.86149 16.6713 -6.43094)
(-10.413 16.2632 -9.40611)
(-14.3129 17.0468 -9.16485)
(-17.0189 17.0675 -10.2368)
(-19.9908 17.944 -10.8853)
(-23.5818 18.795 -10.7601)
(-26.6165 20.1975 -9.83598)
(-31.7341 20.7991 -8.66841)
(-36.68 21.9717 -6.21269)
(-44.7177 24.042 -3.39623)
(-57.8191 28.2336 0.961954)
(-69.826 32.8756 3.64188)
(-78.5477 35.6943 8.5169)
(-85.5997 37.6019 14.0367)
(-82.214 34.1134 18.4816)
(-72.9875 27.126 26.5935)
(-88.3255 33.0237 36.1445)
(-94.6795 35.9804 42.7238)
(-101.208 40.0647 49.1193)
(-106.472 42.9989 58.6009)
(-101.118 37.4588 65.4456)
(-106.271 36.9136 72.8838)
(-107.426 40.7597 81.8905)
(-107.622 37.9181 87.5089)
(-105.11 41.425 94.8729)
(-107.409 42.7246 96.1834)
(-106.234 47.2801 98.6733)
(-114.683 66.4212 93.6595)
(-95.2103 57.0385 88.964)
(-81.4596 53.7824 81.2077)
(-79.3901 67.3776 72.5671)
(-82.7103 105.915 55.6307)
(-45.7001 122.116 43.7574)
(31.6744 71.9461 24.9563)
(139.747 -97.0818 -0.166056)
(113.476 -96.0785 -28.5842)
(104.889 -99.0906 -32.0566)
(104.945 -108.845 -37.7936)
(99.9452 -111.883 -36.0403)
(86.2067 -152.178 -34.3119)
(77.6367 -135.637 -30.82)
(72.0397 -136.205 -15.7566)
(66.5682 -125.912 -13.9042)
(66.0045 -121.49 1.15418)
(62.2079 -108.279 -0.121509)
(55.4853 -92.324 8.24121)
(51.519 -76.5285 11.7532)
(49.2062 -64.2036 16.787)
(46.7835 -54.1482 19.4118)
(43.5419 -46.393 21.8736)
(41.2193 -40.1813 23.3863)
(38.7771 -35.1523 24.3877)
(36.7222 -30.9976 24.9593)
(34.805 -27.3103 25.3705)
(33.1973 -24.316 25.4322)
(31.4252 -21.977 25.3057)
(29.5865 -20.0345 25.1313)
(27.6766 -18.3088 24.8262)
(25.7687 -16.7177 24.4363)
(23.8882 -15.2263 23.9842)
(22.064 -13.8276 23.4948)
(20.306 -12.5216 22.9692)
(18.625 -11.3081 22.4089)
(17.026 -10.1879 21.8207)
(15.5139 -9.15772 21.2009)
(14.0904 -8.21597 20.5559)
(12.7517 -7.35525 19.8931)
(11.4972 -6.57308 19.2751)
(10.33 -5.864 18.7898)
(9.2705 -5.22961 18.3739)
(8.28178 -4.64404 18.1449)
(7.46684 -4.14591 17.675)
(6.45358 -3.54479 17.8335)
(5.84982 -3.02968 16.7436)
(5.32329 -2.60009 17.3779)
(4.31934 -2.47626 17.9538)
(3.11401 -2.18292 17.9483)
)
;
    }
    procBoundary2to3
    {
        type            processor;
        value           nonuniform List<vector> 
180
(
(9.08494e-05 0.00509984 11.1471)
(0.0805037 0.0970699 13.3639)
(0.134802 0.165766 13.0092)
(0.113024 0.16463 12.6791)
(0.0131886 0.0936255 12.4404)
(-0.182639 -0.070572 12.9607)
(0.00821683 0.0873802 11.5338)
(-0.0929648 0.0345617 12.7223)
(-0.11839 0.0402895 12.7519)
(-0.312007 -0.086987 12.7774)
(-0.195591 -0.0209058 11.3991)
(-0.0331243 0.140769 12.5329)
(0.0174295 0.227075 12.6532)
(-0.171819 0.18197 12.2211)
(-0.411774 0.0420455 12.7314)
(-0.00168002 0.244079 11.4592)
(-0.194645 0.128188 12.4663)
(-0.330522 0.0459556 12.4967)
(-0.640766 -0.0412478 12.3963)
(-0.375588 0.152554 11.7687)
(0.0204279 0.329923 11.9126)
(0.260407 0.48731 11.9401)
(0.270428 0.598521 12.1086)
(0.259187 0.626799 11.8117)
(0.510074 0.638489 12.2298)
(0.482533 0.667161 12.5111)
(0.0179481 0.671726 12.3414)
(-0.295273 0.694861 12.8623)
(-0.317068 0.340075 11.4701)
(-0.281739 0.409469 13.162)
(-0.287804 0.0228378 11.8808)
(-0.131965 0.358912 12.5048)
(-0.264314 0.494345 12.7011)
(-0.0335971 0.539657 12.7616)
(0.393895 1.18883 12.0358)
(0.0993958 0.650416 13.4432)
(0.236974 0.628528 11.7687)
(0.043039 0.535688 13.0503)
(-0.119488 0.707241 12.9118)
(-0.155384 0.32082 12.2956)
(-0.0900469 0.162297 12.8321)
(0.0490275 0.346831 12.761)
(0.0797358 0.00295433 12.1943)
(0.108595 -0.0649999 12.563)
(-0.0252202 -0.190695 12.0618)
(-0.0457292 -0.18263 12.4704)
(-0.179369 -0.200466 12.5665)
(-0.649009 -0.406579 12.2405)
(-1.02286 -0.609587 12.3981)
(-0.825482 -0.624989 11.6213)
(-0.524511 -0.657358 11.5389)
(-0.170063 -0.594308 11.6383)
(0.0721761 -0.465949 11.5608)
(0.175387 -0.384209 11.4875)
(0.255287 -0.323132 11.4693)
(0.278169 -0.272251 11.4706)
(0.30724 -0.22749 11.4986)
(0.251453 -0.186893 11.5254)
(0.148067 -0.149073 11.5392)
(0.0292078 -0.114113 11.5341)
(-0.0960404 -0.0820115 11.5109)
(-0.238274 -0.0532364 11.4652)
(-0.361168 -0.0280027 11.4039)
(-0.427119 -0.00609656 11.3386)
(-0.428917 0.0134618 11.2602)
(-0.355526 0.029989 11.1904)
(-0.303638 0.045936 11.1226)
(-0.268487 0.0620806 11.0991)
(-0.334403 0.0866208 11.017)
(-0.217677 0.0817521 11.1288)
(0.0230227 0.0929842 10.6467)
(-0.233939 0.220234 10.9586)
(-0.0989334 0.11261 11.3294)
(0.740564 -0.214282 11.1462)
(1.41598 -0.502752 11.3427)
(0.92228 -0.215742 10.4739)
(0.910284 -0.280072 11.8912)
(0.465249 0.0619435 10.6577)
(0.943433 -0.36973 11.272)
(1.25592 -0.698018 11.3548)
(1.36033 -0.615839 11.581)
(1.74401 -0.838672 11.0343)
(1.40153 -0.524311 12.0776)
(0.982384 0.110741 11.0773)
(0.925911 1.06142 11.7101)
(0.948204 1.76509 11.4347)
(1.1111 1.67115 12.4725)
(1.43367 1.63725 12.6794)
(1.95226 2.19723 12.8545)
(2.39788 2.71388 13.3962)
(2.34364 2.61369 13.5546)
(2.46016 2.47392 14.3528)
(2.28327 1.99848 14.4372)
(2.79377 2.25881 15.654)
(3.24289 2.48056 16.5419)
(2.79576 1.78824 16.5903)
(2.46316 1.26405 16.7628)
(3.81408 1.61205 19.0801)
(4.4449 1.85717 19.8072)
(5.08611 2.42117 20.8607)
(5.4445 2.98828 22.2938)
(3.873 3.31545 22.4289)
(4.88803 4.03836 25.8581)
(2.59478 5.35055 26.3642)
(3.31745 8.46126 28.3062)
(2.52659 10.8843 29.4831)
(3.51554 12.5492 33.6762)
(4.01456 13.68 36.373)
(1.9123 15.405 37.7465)
(1.01157 17.6036 43.009)
(-3.10035 18.6857 41.7859)
(-11.3836 21.6895 46.1703)
(-21.2897 23.3013 44.8131)
(-29.5505 25.3564 48.455)
(-33.3165 28.5315 46.916)
(-36.9001 32.3906 51.546)
(-42.3998 36.0785 49.2015)
(-58.413 50.4354 48.506)
(-65.0946 54.7445 52.0753)
(-68.7639 56.0017 52.9578)
(-76.1449 67.1023 49.8988)
(-85.722 73.6827 51.6439)
(-93.1504 77.1676 51.9028)
(-100.088 80.8195 52.5754)
(-107.822 85.1089 50.5336)
(-119.024 91.1282 48.4088)
(-112.562 93.5973 52.4455)
(-105.45 96.9646 47.8381)
(-85.449 92.8945 54.1163)
(-74.2218 101.014 46.6597)
(-49.9351 99.2414 45.7814)
(-19.706 86.4174 50.907)
(11.1907 67.5198 45.4048)
(26.8614 29.8788 52.2344)
(43.4846 9.49462 40.0309)
(29.5595 -52.5215 22.0014)
(19.8902 -71.6441 8.72939)
(26.419 -46.714 -0.376502)
(-15.1411 -6.20658 -55.1376)
(-10.7224 69.8129 -5.42686)
(68.6014 22.4806 8.84845)
(103.89 -78.2882 -20.1109)
(97.2715 -142.516 -17.957)
(79.8367 -153.075 -28.1127)
(54.5475 -144.926 -31.7443)
(49.5313 -114.724 -33.3692)
(49.1226 -88.9947 -32.4123)
(51.1088 -75.0686 -31.0762)
(48.8701 -61.6306 -33.1973)
(47.479 -49.5644 -30.492)
(43.3603 -39.4079 -30.7963)
(41.324 -34.369 -28.4372)
(38.6963 -29.4982 -27.4796)
(36.8435 -25.4703 -25.3495)
(34.7936 -22.7244 -23.7799)
(32.8459 -20.0126 -21.9491)
(30.8777 -17.7549 -20.1225)
(28.9496 -15.7137 -18.416)
(27.0769 -13.8154 -16.6259)
(25.265 -12.1816 -14.9771)
(23.5247 -10.6352 -13.3182)
(21.8572 -9.30162 -11.7579)
(20.2676 -8.06347 -10.2389)
(18.7554 -6.97396 -8.79629)
(17.3177 -5.97047 -7.40912)
(15.947 -5.05703 -6.084)
(14.63 -4.18836 -4.80279)
(13.3422 -3.3228 -3.54882)
(12.0853 -2.40941 -2.27278)
(10.8011 -1.41259 -0.923211)
(9.36174 -0.242511 0.438434)
(8.10979 0.572823 1.47855)
(7.69228 0.236551 2.22682)
(7.17233 0.0218933 2.92878)
(5.53416 0.41 4.14644)
(5.11343 0.268432 4.22306)
(2.69537 0.71958 4.85292)
(0.855437 1.12384 5.10754)
(0.371628 1.1826 5.06986)
(-1.80038 1.92602 5.44091)
)
;
    }
}


// ************************************************************************* //
