FoamFile
{version 2.0; format ascii;class Cloud<passiveParticle>; location 0;object  positions;}
348
(
( 4122.43 4330.69 499.579 ) 0 
( 1694.74 2198.73 499.564 ) 0 
( 5.14464 1963.33 498.394 ) 0 
( 2488.78 1591.31 498.712 ) 0 
( 1042.42 4454.79 497.713 ) 0 
( 3476.89 1743.34 498.401 ) 0 
( 1555.74 3188.83 498.191 ) 0 
( 440.171 1063.57 499.092 ) 0 
( 4584.61 3423.27 497.322 ) 0 
( 3123.61 4368.91 499.388 ) 0 
( 3132.24 805.805 498.64 ) 0 
( 4034.73 2573.11 498.391 ) 0 
( 57.2682 4620.36 498.161 ) 0 
( 1497.21 1183.4 497.66 ) 0 
( 511.913 67.0006 499.079 ) 0 
( 689.256 2691.11 498.108 ) 0 
( 1460.33 3888.92 1204.96 ) 0 
( 1624.97 192.135 497.625 ) 0 
( 3586.04 3482.59 498.01 ) 0 
( 3075.39 3245.63 1321.82 ) 0 
( 259.792 3066.76 1317.8 ) 0 
( 4134.61 764.782 498.586 ) 0 
( 2580.5 3529.45 498.972 ) 0 
( 2953.8 2602.74 498.351 ) 0 
( 438.337 3658.5 498.849 ) 0 
( 4512.08 1690.8 497.446 ) 0 
( 4147.13 4922.93 1309.64 ) 0 
( 889.09 1827.84 960.796 ) 0 
( 2267.28 760.752 1008.42 ) 0 
( 4000.83 1421.6 1311.53 ) 0 
( 2481.77 2207.96 1284.68 ) 0 
( 2085.34 3123.04 1341.39 ) 0 
( 4627.44 443.147 1312.04 ) 0 
( 3004.21 1357.47 1321.84 ) 0 
( 4998.69 1370.69 1308.61 ) 0 
( 3622 497.36 1312.53 ) 0 
( 628.509 4883.15 1299.23 ) 0 
( 2042.31 4371.12 498.456 ) 0 
( 3521.22 1226.19 2165.86 ) 0 
( 1028.46 619.624 1174.27 ) 0 
( 2581.74 4123.41 1302.47 ) 0 
( 3146.19 4967.51 1299.78 ) 0 
( 187.141 4542.59 2127.56 ) 0 
( 441.653 2173.93 1785.04 ) 0 
( 1758.71 1529.09 1396.77 ) 0 
( 3476.35 2331.43 1304.62 ) 0 
( 1184.68 2693.16 1364.78 ) 0 
( 1808.04 4811.71 1362.91 ) 0 
( 2523.51 4796.47 2060.5 ) 0 
( 2646.36 2774.96 2089.71 ) 0 
( 3613.3 4083.18 1383.7 ) 0 
( 4531.19 2268.7 1310.71 ) 0 
( 4606.5 4000.22 1313.58 ) 0 
( 734.451 3746.4 1874.54 ) 0 
( 4600.51 4606.97 2139.6 ) 0 
( 3991.18 2195.41 2147.58 ) 0 
( 4513.62 1346.45 2181.02 ) 0 
( 4070.62 3155.32 1308.46 ) 0 
( 1956.71 3973.31 2067.91 ) 0 
( 3583.55 3108.11 2176.46 ) 0 
( 1052.93 1448.58 2098.69 ) 0 
( 2982.52 3906.52 2191.51 ) 0 
( 2440.73 1536.13 2127.82 ) 0 
( 1778.57 2281.46 2054.21 ) 0 
( 4122.19 427.525 2172.55 ) 0 
( 455.895 654.621 1990.4 ) 0 
( 3942.28 1631.63 2975.35 ) 0 
( 4930.23 999.065 3019.55 ) 0 
( 1831.26 726.986 1988.33 ) 0 
( 3578.91 4710.08 2160.51 ) 0 
( 3120.64 2077.67 2622.71 ) 0 
( 2259.77 3.18925 2570.22 ) 0 
( 1184 3844.99 2761.9 ) 0 
( 192.811 3729.34 2712.77 ) 0 
( 2757.18 399.883 1801.19 ) 0 
( 1881.69 4713.31 2820.32 ) 0 
( 1183.82 4606 2114.34 ) 0 
( 1595.55 1752.34 2881.48 ) 0 
( 1853.44 3124.96 2585.2 ) 0 
( 926.562 2870.55 2313.14 ) 0 
( 4579.61 3418.66 2126.41 ) 0 
( 3905.65 3916.09 2668.41 ) 0 
( 1234.12 2705.4 3249.33 ) 0 
( 2217.82 3843.12 3175.33 ) 0 
( 2960.01 4576.11 2932.67 ) 0 
( 3527.91 2978.27 3720.38 ) 0 
( 485.198 122.62 3243.59 ) 0 
( 4002.68 647.425 3136.91 ) 0 
( 3094.89 525.68 2736.48 ) 0 
( 650.363 1053.21 2922.87 ) 0 
( 641.684 2042.66 2792.19 ) 0 
( 2948.39 3205 2938.94 ) 0 
( 4125.6 2776.72 2946.18 ) 0 
( 2190.53 946.199 2895.17 ) 0 
( 1358.43 359.386 2806.86 ) 0 
( 578.13 4545.89 3137.22 ) 0 
( 88.3194 2814.92 3101.45 ) 0 
( 4781.49 21.171 3155.71 ) 0 
( 4836.08 2075.57 2991.84 ) 0 
( 4504.42 1592.94 3800.34 ) 0 
( 3040.58 1349.28 3299.52 ) 0 
( 2335.88 2437.86 3125.85 ) 0 
( 3587.81 1988.28 3838.65 ) 0 
( 681.016 3482.62 3547.08 ) 0 
( 2565.59 3203.96 3860.4 ) 0 
( 458.732 1195.08 3892.37 ) 0 
( 2054.17 107.826 3541.66 ) 0 
( 3509.03 4929.48 3775.93 ) 0 
( 4365.81 3579.05 3488.03 ) 0 
( 2972.32 452.169 3729.92 ) 0 
( 1433.75 1024.74 3546.62 ) 0 
( 1419.57 4455.71 3666.93 ) 0 
( 3443.4 3958.62 3551.42 ) 0 
( 4430.75 4558.23 3669.12 ) 0 
( 1824.72 2536.52 4037.43 ) 0 
( 1615 3503.33 3894.48 ) 0 
( 2109.47 808.802 4250.67 ) 0 
( 2945.11 1346.78 4341.1 ) 0 
( 2196.98 1659.56 3735.65 ) 0 
( 532.555 4401.54 4124.61 ) 0 
( 2609.84 4455.7 3860.11 ) 0 
( 487.15 2187.19 3768.64 ) 0 
( 1237.5 1721.01 4233.87 ) 0 
( 1100.26 213.269 4024.28 ) 0 
( 4433.37 2586.24 3876.29 ) 0 
( 4756.06 636.964 3941.78 ) 0 
( 4060.61 3945.22 4366.75 ) 0 
( 1788.67 3192.98 4826.42 ) 0 
( 3810.16 929.433 4073.14 ) 0 
( 3555.4 2971.34 4719.12 ) 0 
( 3074.89 3811.63 4466.89 ) 0 
( 258.167 500.001 4582.16 ) 0 
( 934.076 2894.87 4315.03 ) 0 
( 450.474 1440.23 4860.01 ) 0 
( 2767.22 2328.43 4295.41 ) 0 
( 388.854 3621.11 4732.37 ) 0 
( 1900.21 4809.52 4466.86 ) 0 
( 2104.63 1719.87 4729.32 ) 0 
( 4758.12 1106.68 4823.58 ) 0 
( 1290.92 4044.99 4667.28 ) 0 
( 4109.09 1853.36 4680.78 ) 0 
( 3206.79 1937.61 5102.73 ) 0 
( 3616.26 1027.32 5046.6 ) 0 
( 2934.77 371.339 4723.23 ) 0 
( 696.872 434.802 5477.52 ) 0 
( 3267.97 4755.98 4731.71 ) 0 
( 4519.34 2747.48 4858.27 ) 0 
( 2663.89 2836 5149.79 ) 0 
( 4061.39 4368.54 5279.75 ) 0 
( 4206.35 280.397 4720.27 ) 0 
( 1359.96 2313.75 5027.34 ) 0 
( 1257.22 860.685 4767.96 ) 0 
( 2267.71 4051.75 5004.04 ) 0 
( 242.387 3678.32 5948.32 ) 0 
( 3557.37 121.611 5462.29 ) 0 
( 1944.45 430.9 5350.15 ) 0 
( 362.067 4435.8 5308.24 ) 0 
( 3851.12 2540.01 5570.89 ) 0 
( 1117.78 3514.17 5494.12 ) 0 
( 4985.57 1968.48 5275.43 ) 0 
( 2677.45 84.8015 5932.21 ) 0 
( 2659.15 1128.21 5312.72 ) 0 
( 3353.31 938.928 6006.89 ) 0 
( 500.727 2770.81 5244.28 ) 0 
( 4767.71 3680.21 5117.6 ) 0 
( 28.3163 1964.89 5596.34 ) 0 
( 4150.27 1591.57 5672.45 ) 0 
( 1799.17 2833.25 5757.52 ) 0 
( 3170.57 3896.86 5455.99 ) 0 
( 1543.85 4582.48 5469.22 ) 0 
( 4847.67 2923.71 5785.92 ) 0 
( 4401.9 625.666 5636.55 ) 0 
( 1809.36 170.584 6418.9 ) 0 
( 1599.94 2010.01 6287.58 ) 0 
( 2006.93 1123.82 6068.91 ) 0 
( 1175.15 1481.63 5546.66 ) 0 
( 4031.47 3501.1 5772.29 ) 0 
( 2441.96 4995.34 5283.34 ) 0 
( 3121.78 3066.01 6007.44 ) 0 
( 2371.65 2022.2 5651.84 ) 0 
( 4513.39 4831.61 6054.54 ) 0 
( 2318.46 3669.71 5925.51 ) 0 
( 1078.26 841.996 6306.63 ) 0 
( 886.316 2808.46 6164.94 ) 0 
( 3314 4841.42 5744.15 ) 0 
( 1061.02 4164.05 6249.56 ) 0 
( 4677.14 1319.26 6480.62 ) 0 
( 2691.75 612.44 6779.57 ) 0 
( 4899.17 3893.81 6084.87 ) 0 
( 4324.29 2249.83 6401.1 ) 0 
( 640.355 1738.99 6353.47 ) 0 
( 3321.73 4107.15 6420.92 ) 0 
( 149.502 770.847 6668.91 ) 0 
( 241.599 3351.25 6892.63 ) 0 
( 4807.13 328.095 6499.93 ) 0 
( 2233.76 4629.96 6188.56 ) 0 
( 3526.87 64.0016 6458.36 ) 0 
( 3521.45 2661.44 6828.01 ) 0 
( 858.201 124.196 6964.5 ) 0 
( 1604.12 3388 6564.35 ) 0 
( 2833.76 4834.35 6958.78 ) 0 
( 4035.01 743.927 6984.7 ) 0 
( 2681.87 3459.54 6832.33 ) 0 
( 1040.13 2809.89 7152.05 ) 0 
( 4250 4196.68 6779.87 ) 0 
( 4380.99 2285.29 7397.97 ) 0 
( 3259.98 1933.84 6100.55 ) 0 
( 2412.79 2558.4 6495.01 ) 0 
( 1818.05 1017.59 7044.37 ) 0 
( 3202.03 20.449 7401.4 ) 0 
( 4369.74 3211.29 6665.56 ) 0 
( 1324.37 4929.47 6833.4 ) 0 
( 3709.42 1688.59 6958.17 ) 0 
( 3595.75 3576.74 7221.56 ) 0 
( 2377.97 1490.15 7727.31 ) 0 
( 2569.59 1603.28 6742.72 ) 0 
( 1998.73 2988.67 7389.4 ) 0 
( 856.375 1241 7195.58 ) 0 
( 3641.77 4564.66 7480.13 ) 0 
( 256.508 4436.39 7537.12 ) 0 
( 1676.77 2047.94 7283.49 ) 0 
( 3231.68 1012.8 7518.74 ) 0 
( 1962.72 4188.83 7042.02 ) 0 
( 1024.75 3885.89 7208.79 ) 0 
( 3952.57 417.825 7925.65 ) 0 
( 393.177 3510.75 7886.4 ) 0 
( 768.341 2062.7 7756.47 ) 0 
( 1883.23 3806.11 7960.59 ) 0 
( 4935.66 545.071 8046.05 ) 0 
( 2429.34 496.364 7816.76 ) 0 
( 1189.92 4667.32 7809.76 ) 0 
( 1427.87 1356.51 8008.09 ) 0 
( 1439.68 397.034 7729.88 ) 0 
( 4432.27 3250.96 7661.54 ) 0 
( 2778.06 4079.2 7610.18 ) 0 
( 3593.24 2731.84 7821.86 ) 0 
( 2767.46 2351.88 7405.12 ) 0 
( 2133.64 4959.48 7659.83 ) 0 
( 4096.52 1401.82 7833.28 ) 0 
( 2128.15 2382.18 8172.77 ) 0 
( 2072.88 931.938 8641.72 ) 0 
( 3242.38 1834.99 8114.36 ) 0 
( 1299.01 2981.77 8101.74 ) 0 
( 3567.44 3855.35 8180.21 ) 0 
( 4364.53 4457.95 8161.86 ) 0 
( 110.305 4259.46 8509.54 ) 0 
( 1436.05 164.944 8707.51 ) 0 
( 2728.6 3180.62 8044.76 ) 0 
( 505.911 676.88 7950.2 ) 0 
( 4840.44 1430.31 8498.41 ) 0 
( 510.441 1488.95 8532.78 ) 0 
( 1069.46 3850.57 8537.95 ) 0 
( 3792.38 4404.68 8984.07 ) 0 
( 429.533 2664.88 8478.32 ) 0 
( 2056.8 3262.54 8780.26 ) 0 
( 4051.25 895.528 8798.07 ) 0 
( 3192.61 2620.72 8730.71 ) 0 
( 2441.53 4461.38 8469.9 ) 0 
( 4242.67 2223.26 8386.01 ) 0 
( 3062.69 930.306 8500.49 ) 0 
( 2561.01 1779.98 8842.36 ) 0 
( 3292 4965.65 8324.94 ) 0 
( 1197.12 1048.2 9109.08 ) 0 
( 4963.2 2233.66 9079 ) 0 
( 1272.18 2129.4 8622.84 ) 0 
( 4316.96 3386.44 8644.68 ) 0 
( 232.627 3443.55 9072.7 ) 0 
( 3467.96 214.731 9239.47 ) 0 
( 3976.42 3607.18 9558.08 ) 0 
( 3629.22 1770.77 9032.84 ) 0 
( 2470.01 193.357 9185.17 ) 0 
( 2915.17 4877.95 9246.1 ) 0 
( 1945.59 2418.44 9302.67 ) 0 
( 4969.43 3187.92 9374.1 ) 0 
( 1518.93 4714.7 8758.95 ) 0 
( 168.446 1347.97 9461.73 ) 0 
( 4833.35 4209.39 9009.2 ) 0 
( 1137.86 3019.24 9087.41 ) 0 
( 723.431 4346.67 9332.48 ) 0 
( 2990.9 3575.91 8946.54 ) 0 
( 4037.35 2653.52 9264.61 ) 0 
( 2195.74 4068.67 9355.22 ) 0 
( 547.494 442.179 9645.06 ) 0 
( 2292.1 1170.1 9586.86 ) 0 
( 1475.93 1699.75 9813.56 ) 0 
( 1534.92 4696.44 9798.92 ) 0 
( 4744.39 1194.31 9464.33 ) 0 
( 1340.18 2746.46 10027.2 ) 0 
( 3283.99 1092.35 9680.82 ) 0 
( 4830.08 103.598 9416.92 ) 0 
( 2954.57 2253.39 9629.26 ) 0 
( 694.3 2196.58 9438.53 ) 0 
( 4334.82 4527.91 9814.49 ) 0 
( 2520.42 387.357 10164.4 ) 0 
( 4572.84 2690.98 10145.3 ) 0 
( 2501.54 3145.5 9704.33 ) 0 
( 3126.76 4074.4 9802.08 ) 0 
( 3539.69 4796.13 10356.9 ) 0 
( 4116.11 1835.47 9902.69 ) 0 
( 375.085 2997.5 9955.35 ) 0 
( 804.889 103.079 10549.1 ) 0 
( 1359.64 3712.66 9771.42 ) 0 
( 1528.8 643.548 9960.59 ) 0 
( 4106.13 578.218 9924.09 ) 0 
( 4731.2 3681.29 10209.7 ) 0 
( 2179.11 2252.15 10260.2 ) 0 
( 442.178 4936.87 10100 ) 0 
( 2470.93 4787.21 10136.7 ) 0 
( 1884.76 3028.67 10816.6 ) 0 
( 634.481 1606.32 10343.9 ) 0 
( 1738.72 1295.25 10688.8 ) 0 
( 3596.02 2577.61 10323.4 ) 0 
( 2959.39 3295.64 10601.3 ) 0 
( 557.968 3904.51 10336.1 ) 0 
( 2175.34 3852.8 10331.1 ) 0 
( 3791.92 3841.59 10512.1 ) 0 
( 4671.35 1217.16 10460.7 ) 0 
( 2703.95 1425.37 10461.1 ) 0 
( 3680.09 1249.57 10585 ) 0 
( 2866.64 2373.3 10975.7 ) 0 
( 3422.71 35.4199 10411.2 ) 0 
( 367.644 2457.01 10795.9 ) 0 
( 2899.12 4249.41 10895 ) 0 
( 515.9 914.734 11055.9 ) 0 
( 4259.31 2062.41 10865.5 ) 0 
( 344.486 4578.17 11043 ) 0 
( 4135.99 3051.19 11018.5 ) 0 
( 1329.32 2191.24 10858.2 ) 0 
( 1375.58 4108.52 10873.2 ) 0 
( 4683.2 4519.52 10751.7 ) 0 
( 4190.04 10.7179 11051.6 ) 0 
( 2515.3 3416.09 11488.8 ) 0 
( 3840.73 4583.77 11286.2 ) 0 
( 2444.46 902.517 11277.4 ) 0 
( 1434.93 501.753 11215.3 ) 0 
( 3386.48 569.062 11255.8 ) 0 
( 3498.46 1747.62 11432.5 ) 0 
( 3051.01 1098.83 12047.6 ) 0 
( 3482.9 3666.29 11459.4 ) 0 
( 938.423 3231.09 11067.8 ) 0 
( 661.204 1802.4 11492.2 ) 0 
( 233.498 2887.87 11688.2 ) 0 
( 2899.95 111.644 12000 ) 0 
( 2107.64 1885.55 11406.3 ) 0 
( 4736.63 2483.24 11636.6 ) 0 
( 2114.3 4331.76 11508.6 ) 0 
( 4273.78 1031.19 11359 ) 0 
( 4774.88 9.68962 11862.5 ) 0 
)
