/*--------------------------------*- C++ -*----------------------------------*\
| =========                 |                                                 |
| \\      /  F ield         | OpenFOAM: The Open Source CFD Toolbox           |
|  \\    /   O peration     | Version:  5.x                                   |
|   \\  /    A nd           | Web:      www.OpenFOAM.org                      |
|    \\/     M anipulation  |                                                 |
\*---------------------------------------------------------------------------*/
FoamFile
{
    version     2.0;
    format      ascii;
    class       volScalarField;
    location    "900";
    object      p;
}
// * * * * * * * * * * * * * * * * * * * * * * * * * * * * * * * * * * * * * //

dimensions      [0 2 -2 0 0 0 0];

internalField   nonuniform List<scalar> 
90
(
-1.19543e-10
-3.57032e-10
-5.86597e-10
-8.03461e-10
-1.0026e-09
-1.17927e-09
-1.32945e-09
-1.45061e-09
-1.54245e-09
-1.60779e-09
-1.65323e-09
-1.68983e-09
-1.73335e-09
-1.80397e-09
-1.92491e-09
-2.13419e-09
-2.47437e-09
-2.99489e-09
-3.75405e-09
-4.8209e-09
-6.27921e-09
-8.24082e-09
-1.08733e-08
-1.45207e-08
-1.9304e-08
-2.55625e-08
-3.37769e-08
-4.45854e-08
-5.88294e-08
-7.76182e-08
-1.02525e-07
-1.36069e-07
-1.81425e-07
-2.37473e-07
-2.92131e-07
-3.59321e-07
-6.71417e-07
-1.43898e-06
3.03609e-06
-1.33814e-05
1.17197e-05
0.000588235
0.0013415
0.00216536
0.00298021
0.00391667
0.00491625
0.0056843
0.00632573
0.00709115
0.00780556
0.00846543
0.00857555
0.00857455
0.00857504
0.00857571
0.00857621
0.00857658
0.00857685
0.00857705
0.00857721
0.00857732
0.00857741
0.00857748
0.00857753
0.00857757
0.00857759
0.00857762
0.00857763
0.00857764
0.00857765
0.00857766
0.00857767
0.00857767
0.00857767
0.00857767
0.00857768
0.00857768
0.00857768
0.00857768
0.00857768
0.00857768
0.00857768
0.00857768
0.00857768
0.00857768
0.00857768
0.00857768
0.00857768
0.00857768
)
;

boundaryField
{
    inlet
    {
        type            zeroGradient;
    }
    outlet
    {
        type            fixedValue;
        value           uniform 0;
    }
    repeat_boundary
    {
        type            zeroGradient;
    }
    procBoundary1to0
    {
        type            processor;
        value           nonuniform List<scalar> 
90
(
-1.64943e-10
-4.91925e-10
-8.06545e-10
-1.10083e-09
-1.3683e-09
-1.60443e-09
-1.80716e-09
-1.97747e-09
-2.12006e-09
-2.24409e-09
-2.36412e-09
-2.50118e-09
-2.68424e-09
-2.95227e-09
-3.35769e-09
-3.95733e-09
-4.82627e-09
-6.06069e-09
-7.78324e-09
-1.01511e-08
-1.33668e-08
-1.76935e-08
-2.34744e-08
-3.11588e-08
-4.13306e-08
-5.47609e-08
-7.24708e-08
-9.58116e-08
-1.26569e-07
-1.67113e-07
-2.20674e-07
-2.91769e-07
-3.8589e-07
-5.06768e-07
-6.55145e-07
-8.59141e-07
-1.27208e-06
-2.03521e-06
5.43521e-07
-1.08231e-05
2.78791e-06
0.000441094
0.00123792
0.00194216
0.00268417
0.00365665
0.00467845
0.0056218
0.00637119
0.00694795
0.00770495
0.00845089
0.00856994
0.00857285
0.00857363
0.00857459
0.00857537
0.00857595
0.00857638
0.0085767
0.00857695
0.00857713
0.00857727
0.00857737
0.00857745
0.00857751
0.00857755
0.00857759
0.00857761
0.00857763
0.00857764
0.00857766
0.00857766
0.00857767
0.00857767
0.00857767
0.00857768
0.00857768
0.00857768
0.00857768
0.00857768
0.00857768
0.00857768
0.00857768
0.00857768
0.00857768
0.00857768
0.00857768
0.00857768
0.00857768
)
;
    }
    procBoundary1to3
    {
        type            processor;
        value           nonuniform List<scalar> 
90
(
-1.35445e-10
-4.00539e-10
-6.47902e-10
-8.65581e-10
-1.0422e-09
-1.16716e-09
-1.23073e-09
-1.22424e-09
-1.14e-09
-9.71194e-10
-7.11387e-10
-3.53848e-10
1.09545e-10
6.89775e-10
1.40261e-09
2.27098e-09
3.32846e-09
4.62352e-09
6.22473e-09
8.22675e-09
1.07591e-08
1.40051e-08
1.82357e-08
2.39391e-08
3.14308e-08
4.13092e-08
5.43965e-08
7.17817e-08
9.49142e-08
1.25722e-07
1.66671e-07
2.20717e-07
2.92054e-07
3.90419e-07
5.36356e-07
7.34267e-07
8.28764e-07
5.71534e-07
4.80615e-06
-7.24798e-06
1.18413e-05
0.00055337
0.00125102
0.00211781
0.0031604
0.0039755
0.00470211
0.00542832
0.0062332
0.00717981
0.0079083
0.00847446
0.00858447
0.00858386
0.00858199
0.00858085
0.00858007
0.00857948
0.00857903
0.0085787
0.00857844
0.00857825
0.00857811
0.00857801
0.00857793
0.00857787
0.00857782
0.00857779
0.00857776
0.00857774
0.00857773
0.00857772
0.00857771
0.0085777
0.0085777
0.00857769
0.00857769
0.00857769
0.00857769
0.00857768
0.00857768
0.00857768
0.00857768
0.00857768
0.00857768
0.00857768
0.00857768
0.00857768
0.00857768
0.00857768
)
;
    }
}


// ************************************************************************* //
