/*--------------------------------*- C++ -*----------------------------------*\
  =========                 |
  \\      /  F ield         | OpenFOAM: The Open Source CFD Toolbox
   \\    /   O peration     | Website:  https://openfoam.org
    \\  /    A nd           | Version:  9
     \\/     M anipulation  |
\*---------------------------------------------------------------------------*/
FoamFile
{
    format      ascii;
    class       surfaceScalarField;
    location    "0.08";
    object      phi;
}
// * * * * * * * * * * * * * * * * * * * * * * * * * * * * * * * * * * * * * //

dimensions      [0 3 -1 0 0 0 0];

internalField   nonuniform List<scalar> 
25100
(
-8.356e-17
-5.96057e-17
-9.99998e-10
-1.37918e-16
-5.3056e-17
-9.99998e-10
-1.95905e-16
-5.38264e-17
-9.99998e-10
-2.39217e-16
-5.24263e-17
-9.99999e-10
-2.31996e-16
-5.02988e-17
-9.99999e-10
-2.05185e-16
-5.2893e-17
-1e-09
-1.82461e-16
-6.00481e-17
-1e-09
-1.36025e-16
-6.01878e-17
-1e-09
-6.68849e-17
-6.13127e-17
-1e-09
-5.91907e-17
-1e-09
-7.70277e-17
-9.16091e-17
-9.99998e-10
-1.38744e-16
-9.04509e-17
-9.99998e-10
-1.94898e-16
-8.62609e-17
-9.99998e-10
-2.37936e-16
-7.99441e-17
-9.99999e-10
-2.3516e-16
-7.21609e-17
-9.99999e-10
-2.12819e-16
-8.79094e-17
-1e-09
-1.83423e-16
-8.0065e-17
-1e-09
-1.37805e-16
-8.72773e-17
-1e-09
-6.50154e-17
-9.16791e-17
-1e-09
-8.8848e-17
-1e-09
-7.58848e-17
-1.32769e-16
-9.99998e-10
-1.34742e-16
-1.2732e-16
-9.99998e-10
-1.88459e-16
-1.16801e-16
-9.99999e-10
-2.30669e-16
-1.03407e-16
-9.99999e-10
-2.49638e-16
-8.71482e-17
-9.99999e-10
-2.05299e-16
-1.21448e-16
-1e-09
-1.90178e-16
-1.1187e-16
-1e-09
-1.42126e-16
-1.18026e-16
-1e-09
-6.2356e-17
-1.15093e-16
-1e-09
-1.20211e-16
-1e-09
-7.0382e-17
-1.70841e-16
-9.99998e-10
-1.24667e-16
-1.57667e-16
-9.99999e-10
-1.75057e-16
-1.34873e-16
-9.99999e-10
-2.15746e-16
-1.10736e-16
-9.99999e-10
-2.81813e-16
-4.62208e-17
-1e-09
-1.96182e-16
-1.55971e-16
-1e-09
-1.95346e-16
-1.39233e-16
-1e-09
-1.39066e-16
-1.3206e-16
-1e-09
-6.76078e-17
-1.40166e-16
-1e-09
-1.53851e-16
-1e-09
-5.56388e-17
-1.59553e-16
-9.99999e-10
-9.9817e-17
-1.65268e-16
-9.99999e-10
-1.48014e-16
-1.68737e-16
-9.99999e-10
-1.50099e-16
-1.91152e-16
-9.99999e-10
-3.99231e-16
-2.90262e-16
-1e-09
-1.82309e-16
2.79411e-17
-1e-09
-1.87295e-16
-1.14864e-16
-1e-09
-1.47216e-16
-1.34067e-16
-1e-09
-8.21299e-17
-1.39649e-16
-1e-09
-1.41622e-16
-1e-09
-6.12984e-17
-1.34143e-16
-9.99999e-10
-1.04722e-16
-1.34769e-16
-9.99999e-10
-1.72851e-16
-1.37928e-16
-9.99999e-10
-2.44544e-16
-1.16589e-16
-1e-09
-7.98119e-17
-8.87098e-17
-1e-09
-3.33089e-16
-2.27345e-16
-1e-09
-2.12152e-16
-1.45394e-16
-1e-09
-1.53522e-16
-1.27867e-16
-1e-09
-8.47983e-17
-1.21115e-16
-1e-09
-1.11312e-16
-1e-09
-6.17903e-17
-1.24563e-16
-9.99999e-10
-1.0809e-16
-1.30211e-16
-9.99999e-10
-1.50519e-16
-1.28698e-16
-1e-09
-2.15667e-16
-1.29741e-16
-1e-09
-2.11219e-16
-1.09133e-16
-1e-09
-2.49299e-16
-1.28722e-16
-1e-09
-1.89615e-16
-1.03754e-16
-1e-09
-1.45193e-16
-1.10756e-16
-1e-09
-7.47013e-17
-9.98564e-17
-1e-09
-9.55447e-17
-1e-09
-6.67842e-17
-1.01607e-16
-1e-09
-1.06956e-16
-9.58054e-17
-1e-09
-1.52398e-16
-1.01204e-16
-1e-09
-1.97536e-16
-1.0291e-16
-1e-09
-2.2514e-16
-9.52181e-17
-1e-09
-2.29259e-16
-9.48227e-17
-1e-09
-1.96633e-16
-8.73431e-17
-1e-09
-1.34839e-16
-7.59534e-17
-1e-09
-7.10198e-17
-6.9148e-17
-1e-09
-7.48185e-17
-1e-09
-6.0455e-17
-4.29919e-17
-1e-09
-1.12297e-16
-4.17732e-17
-1e-09
-1.53786e-16
-4.5664e-17
-1e-09
-1.90829e-16
-5.46767e-17
-1e-09
-2.23861e-16
-6.08006e-17
-1e-09
-2.22916e-16
-5.85183e-17
-1e-09
-1.84915e-16
-4.78813e-17
-1e-09
-1.28181e-16
-4.36034e-17
-1e-09
-7.68801e-17
-4.89557e-17
-1e-09
-5.18711e-17
-1e-09
-5.88179e-17
-1e-09
-1.15746e-16
-1e-09
-1.62217e-16
-1e-09
-1.9666e-16
-1e-09
-2.20606e-16
-1e-09
-2.11816e-16
-1e-09
-1.79972e-16
-1e-09
-1.33167e-16
-1e-09
-7.96744e-17
-1e-09
-1e-09
-2.17654e-16
-1.46617e-16
-9.99998e-10
-3.82219e-16
-1.3517e-16
-9.99998e-10
-5.35097e-16
-1.31538e-16
-9.99998e-10
-6.51869e-16
-1.35134e-16
-9.99998e-10
-6.34642e-16
-1.36013e-16
-9.99999e-10
-5.67368e-16
-1.42084e-16
-9.99999e-10
-5.00404e-16
-1.56354e-16
-1e-09
-3.58952e-16
-1.52649e-16
-1e-09
-1.71765e-16
-1.49181e-16
-1e-09
-1.43575e-16
-1e-09
-2.06293e-16
-2.42787e-16
-9.99998e-10
-3.78943e-16
-2.33965e-16
-9.99998e-10
-5.39545e-16
-2.26194e-16
-9.99998e-10
-6.54508e-16
-2.18053e-16
-9.99999e-10
-6.42889e-16
-2.10689e-16
-9.99999e-10
-5.83006e-16
-2.383e-16
-1e-09
-4.99055e-16
-2.26622e-16
-1e-09
-3.56494e-16
-2.35866e-16
-1e-09
-1.6621e-16
-2.40242e-16
-1e-09
-2.42133e-16
-1e-09
-1.97453e-16
-3.44523e-16
-9.99998e-10
-3.71767e-16
-3.33876e-16
-9.99998e-10
-5.3106e-16
-3.1194e-16
-9.99998e-10
-6.47459e-16
-2.89211e-16
-9.99999e-10
-6.68824e-16
-2.48355e-16
-9.99999e-10
-5.72448e-16
-3.30589e-16
-1e-09
-5.0684e-16
-3.06489e-16
-1e-09
-3.60533e-16
-3.09796e-16
-1e-09
-1.68589e-16
-3.18868e-16
-1e-09
-3.36071e-16
-1e-09
-1.87355e-16
-4.40456e-16
-9.99998e-10
-3.50749e-16
-4.04456e-16
-9.99998e-10
-5.08199e-16
-3.55195e-16
-9.99999e-10
-6.07111e-16
-2.9793e-16
-9.99999e-10
-7.46693e-16
-1.63191e-16
-1e-09
-5.50854e-16
-4.29558e-16
-1e-09
-5.07151e-16
-3.99454e-16
-1e-09
-3.69051e-16
-3.87212e-16
-1e-09
-1.86168e-16
-4.03601e-16
-1e-09
-4.09611e-16
-1e-09
-1.50997e-16
-4.17138e-16
-9.99998e-10
-2.99696e-16
-4.32441e-16
-9.99999e-10
-4.46802e-16
-4.38517e-16
-9.99999e-10
-4.65517e-16
-4.85314e-16
-9.99999e-10
-1.05245e-15
-7.39466e-16
-1e-09
-5.26783e-16
1.63495e-17
-1e-09
-4.8744e-16
-2.64138e-16
-1e-09
-3.82304e-16
-3.4034e-16
-1e-09
-1.92529e-16
-3.68161e-16
-1e-09
-3.77986e-16
-1e-09
-1.64852e-16
-3.76651e-16
-9.99999e-10
-3.07522e-16
-3.80067e-16
-9.99999e-10
-4.98282e-16
-3.80894e-16
-9.99999e-10
-6.97552e-16
-3.30962e-16
-1e-09
-2.9128e-16
-2.61424e-16
-1e-09
-8.25519e-16
-5.24656e-16
-1e-09
-5.93069e-16
-3.80639e-16
-1e-09
-4.13253e-16
-3.30133e-16
-1e-09
-2.05667e-16
-3.09771e-16
-1e-09
-3.06498e-16
-1e-09
-1.67269e-16
-3.43689e-16
-9.99999e-10
-3.07058e-16
-3.47776e-16
-9.99999e-10
-4.45211e-16
-3.45545e-16
-1e-09
-6.25223e-16
-3.36679e-16
-1e-09
-5.37666e-16
-2.73707e-16
-1e-09
-6.76462e-16
-3.54428e-16
-1e-09
-5.25941e-16
-2.85566e-16
-1e-09
-3.86506e-16
-2.80689e-16
-1e-09
-1.98063e-16
-2.68916e-16
-1e-09
-2.7174e-16
-1e-09
-1.69545e-16
-2.58543e-16
-9.99999e-10
-3.05674e-16
-2.53462e-16
-1e-09
-4.38562e-16
-2.61865e-16
-1e-09
-5.73965e-16
-2.69516e-16
-1e-09
-5.89694e-16
-2.50715e-16
-1e-09
-6.22854e-16
-2.62977e-16
-1e-09
-5.21395e-16
-2.28442e-16
-1e-09
-3.76862e-16
-2.12489e-16
-1e-09
-2.02402e-16
-2.12101e-16
-1e-09
-2.19897e-16
-1e-09
-1.63124e-16
-1.18214e-16
-1e-09
-3.13906e-16
-1.23241e-16
-1e-09
-4.45516e-16
-1.35619e-16
-1e-09
-5.60355e-16
-1.5165e-16
-1e-09
-5.98509e-16
-1.49462e-16
-1e-09
-5.9379e-16
-1.44726e-16
-1e-09
-5.04379e-16
-1.28257e-16
-1e-09
-3.76865e-16
-1.26485e-16
-1e-09
-2.10559e-16
-1.31154e-16
-1e-09
-1.3239e-16
-1e-09
-1.67523e-16
-1e-09
-3.25236e-16
-1e-09
-4.60124e-16
-1e-09
-5.58599e-16
-1e-09
-5.90226e-16
-1e-09
-5.76867e-16
-1e-09
-5.00987e-16
-1e-09
-3.80725e-16
-1e-09
-2.11337e-16
-1e-09
-1e-09
-3.56273e-16
-2.32927e-16
-9.99997e-10
-6.57439e-16
-2.2048e-16
-9.99997e-10
-9.24832e-16
-2.23551e-16
-9.99997e-10
-1.10839e-15
-2.36524e-16
-9.99998e-10
-1.10064e-15
-2.50647e-16
-9.99999e-10
-1.01145e-15
-2.51423e-16
-9.99999e-10
-8.72992e-16
-2.61765e-16
-1e-09
-6.12356e-16
-2.4527e-16
-1e-09
-3.02563e-16
-2.40934e-16
-1e-09
-2.37249e-16
-1e-09
-3.44046e-16
-4.15541e-16
-9.99997e-10
-6.61741e-16
-4.11675e-16
-9.99997e-10
-9.40005e-16
-4.09881e-16
-9.99998e-10
-1.12606e-15
-4.09445e-16
-9.99998e-10
-1.10538e-15
-4.28244e-16
-9.99999e-10
-1.02418e-15
-4.17088e-16
-9.99999e-10
-8.59524e-16
-4.15597e-16
-1e-09
-6.09164e-16
-4.2111e-16
-1e-09
-2.99117e-16
-4.26702e-16
-1e-09
-4.34684e-16
-1e-09
-3.40049e-16
-5.92433e-16
-9.99997e-10
-6.6056e-16
-5.82928e-16
-9.99998e-10
-9.39193e-16
-5.63212e-16
-9.99998e-10
-1.14205e-15
-5.56758e-16
-9.99998e-10
-1.09297e-15
-5.28892e-16
-9.99999e-10
-1.02194e-15
-5.67944e-16
-9.99999e-10
-8.62552e-16
-5.65888e-16
-1e-09
-6.14386e-16
-5.70615e-16
-1e-09
-3.07973e-16
-5.90013e-16
-1e-09
-5.99187e-16
-1e-09
-3.3026e-16
-7.22786e-16
-9.99998e-10
-6.41285e-16
-6.91746e-16
-9.99998e-10
-9.32822e-16
-6.56978e-16
-9.99998e-10
-1.1083e-15
-6.07056e-16
-9.99999e-10
-1.13325e-15
-4.61432e-16
-9.99999e-10
-1.01952e-15
-7.2982e-16
-1e-09
-8.64344e-16
-7.26368e-16
-1e-09
-6.33861e-16
-7.2642e-16
-1e-09
-3.18874e-16
-7.22998e-16
-1e-09
-7.09277e-16
-1e-09
-3.00057e-16
-7.31321e-16
-9.99998e-10
-6.08717e-16
-7.33758e-16
-9.99998e-10
-8.89494e-16
-7.02199e-16
-9.99999e-10
-9.63241e-16
-6.98631e-16
-9.99999e-10
-1.44932e-15
-9.62145e-16
-1e-09
-1.01164e-15
-3.53986e-16
-1e-09
-8.54656e-16
-5.21894e-16
-1e-09
-6.25657e-16
-6.14135e-16
-1e-09
-3.03371e-16
-6.64051e-16
-1e-09
-6.89145e-16
-1e-09
-2.98836e-16
-7.10458e-16
-9.99998e-10
-5.77467e-16
-7.20668e-16
-9.99999e-10
-8.82105e-16
-7.21517e-16
-9.99999e-10
-1.17621e-15
-6.7225e-16
-9.99999e-10
-8.46809e-16
-5.86047e-16
-1e-09
-1.18615e-15
-7.11366e-16
-1e-09
-9.76907e-16
-6.4242e-16
-1e-09
-6.80301e-16
-5.90887e-16
-1e-09
-3.34121e-16
-5.80483e-16
-1e-09
-5.90872e-16
-1e-09
-3.05509e-16
-6.2759e-16
-9.99999e-10
-5.76814e-16
-6.26992e-16
-9.99999e-10
-8.33542e-16
-6.19566e-16
-9.99999e-10
-1.09811e-15
-6.01333e-16
-1e-09
-9.65403e-16
-5.26225e-16
-1e-09
-1.11347e-15
-6.06788e-16
-1e-09
-9.09414e-16
-5.35975e-16
-1e-09
-6.63578e-16
-5.17197e-16
-1e-09
-3.37589e-16
-5.12309e-16
-1e-09
-5.20587e-16
-1e-09
-3.01485e-16
-4.54138e-16
-9.99999e-10
-5.70968e-16
-4.55265e-16
-9.99999e-10
-8.16919e-16
-4.62625e-16
-1e-09
-1.03818e-15
-4.73115e-16
-1e-09
-1.01715e-15
-4.38741e-16
-1e-09
-1.05599e-15
-4.65012e-16
-1e-09
-8.91341e-16
-4.17201e-16
-1e-09
-6.61216e-16
-4.0265e-16
-1e-09
-3.47586e-16
-4.04192e-16
-1e-09
-4.08766e-16
-1e-09
-3.00687e-16
-2.2224e-16
-9.99999e-10
-5.77883e-16
-2.34023e-16
-1e-09
-8.2618e-16
-2.54111e-16
-1e-09
-1.012e-15
-2.57464e-16
-1e-09
-1.03855e-15
-2.42135e-16
-1e-09
-1.01386e-15
-2.50265e-16
-1e-09
-8.75333e-16
-2.27431e-16
-1e-09
-6.6324e-16
-2.25895e-16
-1e-09
-3.52906e-16
-2.23665e-16
-1e-09
-2.19692e-16
-1e-09
-3.11958e-16
-1e-09
-5.96217e-16
-1e-09
-8.27098e-16
-1e-09
-9.9687e-16
-1e-09
-1.04068e-15
-1e-09
-9.91014e-16
-1e-09
-8.7127e-16
-1e-09
-6.59265e-16
-1e-09
-3.48308e-16
-1e-09
-1e-09
-5.2107e-16
-3.40483e-16
-9.99996e-10
-9.93191e-16
-3.3889e-16
-9.99996e-10
-1.38722e-15
-3.50991e-16
-9.99997e-10
-1.64034e-15
-3.65074e-16
-9.99997e-10
-1.6627e-15
-3.81194e-16
-9.99998e-10
-1.54564e-15
-3.78971e-16
-9.99999e-10
-1.31615e-15
-3.77451e-16
-9.99999e-10
-9.33683e-16
-3.59843e-16
-1e-09
-4.87206e-16
-3.64495e-16
-1e-09
-3.64063e-16
-1e-09
-5.19703e-16
-6.41148e-16
-9.99996e-10
-1.00857e-15
-6.46956e-16
-9.99996e-10
-1.40581e-15
-6.47193e-16
-9.99997e-10
-1.66206e-15
-6.48778e-16
-9.99997e-10
-1.66665e-15
-6.83668e-16
-9.99998e-10
-1.54907e-15
-6.34778e-16
-9.99999e-10
-1.30172e-15
-6.49284e-16
-1e-09
-9.40421e-16
-6.56161e-16
-1e-09
-4.8738e-16
-6.65012e-16
-1e-09
-6.70248e-16
-1e-09
-5.23104e-16
-9.00611e-16
-9.99997e-10
-1.00914e-15
-8.9261e-16
-9.99997e-10
-1.40703e-15
-8.78184e-16
-9.99997e-10
-1.69236e-15
-8.88005e-16
-9.99998e-10
-1.6186e-15
-9.02982e-16
-9.99998e-10
-1.56147e-15
-8.21291e-16
-9.99999e-10
-1.30566e-15
-8.82679e-16
-1e-09
-9.49125e-16
-9.0147e-16
-1e-09
-4.94508e-16
-9.17729e-16
-1e-09
-9.09037e-16
-1e-09
-5.11915e-16
-1.06238e-15
-9.99997e-10
-9.95143e-16
-1.05126e-15
-9.99997e-10
-1.41687e-15
-1.04199e-15
-9.99998e-10
-1.69427e-15
-1.03655e-15
-9.99998e-10
-1.55363e-15
-1.01593e-15
-9.99999e-10
-1.60897e-15
-9.72448e-16
-9.99999e-10
-1.32127e-15
-1.06189e-15
-1e-09
-9.66173e-16
-1.1027e-15
-1e-09
-4.89115e-16
-1.09327e-15
-1e-09
-1.0736e-15
-1e-09
-4.97941e-16
-1.13649e-15
-9.99997e-10
-9.89371e-16
-1.12677e-15
-9.99998e-10
-1.42568e-15
-1.06211e-15
-9.99998e-10
-1.68131e-15
-9.54981e-16
-9.99999e-10
-1.57318e-15
-9.39779e-16
-1e-09
-1.68509e-15
-1.19314e-15
-1e-09
-1.35451e-15
-9.93666e-16
-1e-09
-9.51548e-16
-1.00938e-15
-1e-09
-4.68663e-16
-1.05039e-15
-1e-09
-1.08331e-15
-1e-09
-4.82399e-16
-1.13152e-15
-9.99998e-10
-9.2141e-16
-1.13692e-15
-9.99998e-10
-1.29667e-15
-1.13904e-15
-9.99999e-10
-1.57973e-15
-1.12897e-15
-9.99999e-10
-1.84994e-15
-1.11339e-15
-1e-09
-1.50538e-15
-8.87677e-16
-1e-09
-1.37554e-15
-9.63191e-16
-1e-09
-9.92289e-16
-9.56535e-16
-1e-09
-5.06632e-16
-9.66725e-16
-1e-09
-9.74517e-16
-1e-09
-4.83805e-16
-9.75751e-16
-9.99998e-10
-9.2423e-16
-9.74118e-16
-9.99999e-10
-1.29892e-15
-9.60313e-16
-9.99999e-10
-1.58493e-15
-9.4671e-16
-1e-09
-1.59032e-15
-9.16744e-16
-1e-09
-1.58752e-15
-8.95364e-16
-1e-09
-1.36039e-15
-8.65305e-16
-1e-09
-9.99354e-16
-8.45687e-16
-1e-09
-5.12486e-16
-8.44952e-16
-1e-09
-8.49553e-16
-1e-09
-4.78078e-16
-7.06825e-16
-9.99999e-10
-9.12349e-16
-7.12375e-16
-9.99999e-10
-1.28718e-15
-7.17864e-16
-1e-09
-1.56734e-15
-7.19303e-16
-1e-09
-1.56435e-15
-6.84804e-16
-1e-09
-1.56116e-15
-6.95851e-16
-1e-09
-1.34156e-15
-6.56446e-16
-1e-09
-1.00066e-15
-6.45241e-16
-1e-09
-5.1912e-16
-6.40512e-16
-1e-09
-6.39531e-16
-1e-09
-4.81095e-16
-3.6042e-16
-9.99999e-10
-9.1737e-16
-3.78452e-16
-1e-09
-1.28728e-15
-3.91293e-16
-1e-09
-1.54005e-15
-3.75511e-16
-1e-09
-1.57558e-15
-3.4558e-16
-1e-09
-1.52206e-15
-3.65146e-16
-1e-09
-1.32896e-15
-3.48086e-16
-1e-09
-9.96128e-16
-3.44852e-16
-1e-09
-5.1958e-16
-3.3698e-16
-1e-09
-3.19804e-16
-1e-09
-4.9736e-16
-9.99999e-10
-9.27977e-16
-1e-09
-1.26787e-15
-1e-09
-1.51031e-15
-1e-09
-1.58943e-15
-1e-09
-1.50146e-15
-1e-09
-1.32246e-15
-1e-09
-9.85391e-16
-1e-09
-5.01735e-16
-1e-09
-1e-09
-7.46722e-16
-5.0375e-16
-9.99995e-10
-1.4133e-15
-5.07424e-16
-9.99995e-10
-1.9524e-15
-5.18744e-16
-9.99996e-10
-2.29e-15
-5.2009e-16
-9.99996e-10
-2.36699e-15
-5.21074e-16
-9.99997e-10
-2.21198e-15
-5.1799e-16
-9.99998e-10
-1.89085e-15
-5.17605e-16
-9.99999e-10
-1.37233e-15
-5.18188e-16
-1e-09
-7.2945e-16
-5.28258e-16
-1e-09
-5.24531e-16
-1e-09
-7.50594e-16
-9.44724e-16
-9.99995e-10
-1.43033e-15
-9.52625e-16
-9.99995e-10
-1.9608e-15
-9.45212e-16
-9.99996e-10
-2.30117e-15
-9.3507e-16
-9.99997e-10
-2.37099e-15
-9.48897e-16
-9.99997e-10
-2.21874e-15
-9.07507e-16
-9.99998e-10
-1.89533e-15
-9.37927e-16
-9.99999e-10
-1.38548e-15
-9.48887e-16
-1e-09
-7.27539e-16
-9.56895e-16
-1e-09
-9.53946e-16
-1e-09
-7.53461e-16
-1.30574e-15
-9.99995e-10
-1.42317e-15
-1.29406e-15
-9.99996e-10
-1.95015e-15
-1.27749e-15
-9.99996e-10
-2.31423e-15
-1.27877e-15
-9.99997e-10
-2.32798e-15
-1.31458e-15
-9.99998e-10
-2.24961e-15
-1.15798e-15
-9.99999e-10
-1.90373e-15
-1.27068e-15
-1e-09
-1.39375e-15
-1.30089e-15
-1e-09
-7.27415e-16
-1.30935e-15
-1e-09
-1.29659e-15
-1e-09
-7.36543e-16
-1.52569e-15
-9.99996e-10
-1.4069e-15
-1.52833e-15
-9.99996e-10
-1.95164e-15
-1.52315e-15
-9.99997e-10
-2.3351e-15
-1.54576e-15
-9.99997e-10
-2.18924e-15
-1.65596e-15
-9.99998e-10
-2.34314e-15
-1.2674e-15
-9.99999e-10
-1.93009e-15
-1.43703e-15
-1e-09
-1.40352e-15
-1.52761e-15
-1e-09
-7.18995e-16
-1.54616e-15
-1e-09
-1.54849e-15
-1e-09
-7.32648e-16
-1.65879e-15
-9.99997e-10
-1.40376e-15
-1.64453e-15
-9.99997e-10
-1.99428e-15
-1.58653e-15
-9.99997e-10
-2.45564e-15
-1.42022e-15
-9.99998e-10
-1.9167e-15
-1.14884e-15
-9.99999e-10
-2.50651e-15
-2.12573e-15
-1e-09
-2.01675e-15
-1.65922e-15
-1e-09
-1.41595e-15
-1.56985e-15
-1e-09
-7.22176e-16
-1.57093e-15
-1e-09
-1.59014e-15
-1e-09
-7.11934e-16
-1.63696e-15
-9.99997e-10
-1.34626e-15
-1.63825e-15
-9.99998e-10
-1.8023e-15
-1.64605e-15
-9.99998e-10
-2.02488e-15
-1.68551e-15
-9.99999e-10
-2.9319e-15
-1.7909e-15
-1e-09
-2.08266e-15
-1.33684e-15
-1e-09
-1.91148e-15
-1.44746e-15
-1e-09
-1.41302e-15
-1.46575e-15
-1e-09
-7.45687e-16
-1.47671e-15
-1e-09
-1.46448e-15
-1e-09
-7.07969e-16
-1.40411e-15
-9.99998e-10
-1.354e-15
-1.41093e-15
-9.99998e-10
-1.85829e-15
-1.39518e-15
-9.99999e-10
-2.14233e-15
-1.39222e-15
-1e-09
-2.41383e-15
-1.42875e-15
-1e-09
-2.20958e-15
-1.29562e-15
-1e-09
-1.93337e-15
-1.29801e-15
-1e-09
-1.42497e-15
-1.27846e-15
-1e-09
-7.3767e-16
-1.27025e-15
-1e-09
-1.26107e-15
-1e-09
-7.09937e-16
-1.02685e-15
-9.99999e-10
-1.34024e-15
-1.03203e-15
-9.99999e-10
-1.85797e-15
-1.03213e-15
-9.99999e-10
-2.18328e-15
-1.01701e-15
-1e-09
-2.2973e-15
-9.95729e-16
-1e-09
-2.20741e-15
-9.73423e-16
-1e-09
-1.9143e-15
-9.58132e-16
-1e-09
-1.41851e-15
-9.48183e-16
-1e-09
-7.31724e-16
-9.29957e-16
-1e-09
-9.15513e-16
-1e-09
-7.11388e-16
-5.33634e-16
-9.99999e-10
-1.33961e-15
-5.49043e-16
-9.99999e-10
-1.84128e-15
-5.42367e-16
-1e-09
-2.1673e-15
-5.18423e-16
-1e-09
-2.27923e-15
-4.89782e-16
-1e-09
-2.18827e-15
-5.00493e-16
-1e-09
-1.90274e-15
-5.0253e-16
-1e-09
-1.40014e-15
-4.9456e-16
-1e-09
-7.19536e-16
-4.76024e-16
-1e-09
-4.47124e-16
-1e-09
-7.24643e-16
-9.99999e-10
-1.32963e-15
-9.99999e-10
-1.81236e-15
-1e-09
-2.13721e-15
-1e-09
-2.28409e-15
-1e-09
-2.18277e-15
-1e-09
-1.89003e-15
-1e-09
-1.3778e-15
-1e-09
-6.89885e-16
-1e-09
-1e-09
-1.04329e-15
-7.28186e-16
-9.99993e-10
-1.94634e-15
-7.25145e-16
-9.99993e-10
-2.67355e-15
-7.26719e-16
-9.99994e-10
-3.13247e-15
-7.12271e-16
-9.99995e-10
-3.28289e-15
-6.94084e-16
-9.99996e-10
-3.0895e-15
-6.92348e-16
-9.99998e-10
-2.6577e-15
-7.08524e-16
-9.99999e-10
-1.94628e-15
-7.27542e-16
-1e-09
-1.02553e-15
-7.31204e-16
-1e-09
-7.19064e-16
-1e-09
-1.04079e-15
-1.34443e-15
-9.99993e-10
-1.9546e-15
-1.34537e-15
-9.99994e-10
-2.66715e-15
-1.32906e-15
-9.99994e-10
-3.12709e-15
-1.29985e-15
-9.99995e-10
-3.28922e-15
-1.27514e-15
-9.99997e-10
-3.1136e-15
-1.27553e-15
-9.99998e-10
-2.68259e-15
-1.30683e-15
-9.99999e-10
-1.95512e-15
-1.31821e-15
-1e-09
-1.01673e-15
-1.32386e-15
-1e-09
-1.31646e-15
-1e-09
-1.03618e-15
-1.84527e-15
-9.99994e-10
-1.9385e-15
-1.83205e-15
-9.99994e-10
-2.63753e-15
-1.80935e-15
-9.99995e-10
-3.1035e-15
-1.78766e-15
-9.99996e-10
-3.28794e-15
-1.7953e-15
-9.99997e-10
-3.14685e-15
-1.68413e-15
-9.99998e-10
-2.69206e-15
-1.78187e-15
-1e-09
-1.96165e-15
-1.81135e-15
-1e-09
-1.0134e-15
-1.81869e-15
-1e-09
-1.82009e-15
-1e-09
-1.01755e-15
-2.16866e-15
-9.99995e-10
-1.91618e-15
-2.17839e-15
-9.99995e-10
-2.61585e-15
-2.16212e-15
-9.99996e-10
-3.10751e-15
-2.17722e-15
-9.99997e-10
-3.15843e-15
-2.34276e-15
-9.99998e-10
-3.23938e-15
-1.80097e-15
-9.99999e-10
-2.71807e-15
-1.99545e-15
-1e-09
-1.97049e-15
-2.10821e-15
-1e-09
-1.02036e-15
-2.16294e-15
-1e-09
-2.19344e-15
-1e-09
-1.01813e-15
-2.33805e-15
-9.99996e-10
-1.9011e-15
-2.3286e-15
-9.99996e-10
-2.63896e-15
-2.31602e-15
-9.99997e-10
-3.28084e-15
-2.17575e-15
-9.99998e-10
-2.67975e-15
-1.72608e-15
-9.99999e-10
-3.42537e-15
-2.88005e-15
-1e-09
-2.82258e-15
-2.44533e-15
-1e-09
-2.01912e-15
-2.29962e-15
-1e-09
-1.05308e-15
-2.26285e-15
-1e-09
-2.25542e-15
-1e-09
-1.00271e-15
-2.26336e-15
-9.99996e-10
-1.89009e-15
-2.26869e-15
-9.99997e-10
-2.5155e-15
-2.27086e-15
-9.99998e-10
-2.7267e-15
-2.3252e-15
-9.99999e-10
-3.866e-15
-2.51137e-15
-1e-09
-2.96723e-15
-2.04616e-15
-1e-09
-2.66299e-15
-2.12406e-15
-1e-09
-1.978e-15
-2.13364e-15
-1e-09
-1.05184e-15
-2.11609e-15
-1e-09
-2.07564e-15
-1e-09
-1.0001e-15
-1.95026e-15
-9.99997e-10
-1.8919e-15
-1.95977e-15
-9.99998e-10
-2.57557e-15
-1.94507e-15
-9.99998e-10
-2.92364e-15
-1.94879e-15
-9.99999e-10
-3.40546e-15
-2.01537e-15
-1e-09
-3.05734e-15
-1.84737e-15
-1e-09
-2.67212e-15
-1.85123e-15
-1e-09
-1.96281e-15
-1.82673e-15
-1e-09
-1.01839e-15
-1.79792e-15
-1e-09
-1.77266e-15
-1.00001e-09
-1.00345e-15
-1.42506e-15
-9.99998e-10
-1.87843e-15
-1.42498e-15
-9.99998e-10
-2.58179e-15
-1.41825e-15
-9.99999e-10
-2.99775e-15
-1.39446e-15
-1e-09
-3.25037e-15
-1.39293e-15
-1e-09
-3.06527e-15
-1.34866e-15
-1e-09
-2.64789e-15
-1.34494e-15
-1e-09
-1.93626e-15
-1.32537e-15
-1e-09
-9.98189e-16
-1.29252e-15
-1.00001e-09
-1.26719e-15
-1.00001e-09
-9.9857e-16
-7.43676e-16
-9.99999e-10
-1.87047e-15
-7.47702e-16
-9.99999e-10
-2.55647e-15
-7.27092e-16
-1e-09
-3.00116e-15
-7.15797e-16
-1e-09
-3.21038e-15
-7.09716e-16
-1e-09
-3.05969e-15
-7.01006e-16
-1e-09
-2.62597e-15
-7.05412e-16
-1e-09
-1.90318e-15
-6.87355e-16
-1.00001e-09
-9.7538e-16
-6.59629e-16
-1.00001e-09
-6.3335e-16
-1.00001e-09
-1.00017e-15
-9.99999e-10
-1.84516e-15
-9.99999e-10
-2.53945e-15
-1e-09
-2.99207e-15
-1e-09
-3.19377e-15
-1e-09
-3.05381e-15
-1e-09
-2.60052e-15
-1e-09
-1.87138e-15
-1.00001e-09
-9.48312e-16
-1.00001e-09
-1.00001e-09
-1.41722e-15
-1.00905e-15
-9.99991e-10
-2.64952e-15
-1.00208e-15
-9.99991e-10
-3.64045e-15
-9.94772e-16
-9.99992e-10
-4.2746e-15
-9.72968e-16
-9.99993e-10
-4.49979e-15
-9.45568e-16
-9.99995e-10
-4.26686e-15
-9.46196e-16
-9.99997e-10
-3.66821e-15
-9.75163e-16
-9.99998e-10
-2.67262e-15
-9.92586e-16
-1e-09
-1.3916e-15
-9.86258e-16
-1e-09
-9.70723e-16
-1e-09
-1.41138e-15
-1.87308e-15
-9.99991e-10
-2.64929e-15
-1.86763e-15
-9.99991e-10
-3.62708e-15
-1.84798e-15
-9.99992e-10
-4.26062e-15
-1.80886e-15
-9.99994e-10
-4.51118e-15
-1.76384e-15
-9.99995e-10
-4.30513e-15
-1.79758e-15
-9.99997e-10
-3.69477e-15
-1.81041e-15
-9.99999e-10
-2.67383e-15
-1.81532e-15
-1e-09
-1.38158e-15
-1.82139e-15
-1e-09
-1.81658e-15
-1e-09
-1.4007e-15
-2.57098e-15
-9.99992e-10
-2.62992e-15
-2.56607e-15
-9.99992e-10
-3.588e-15
-2.54406e-15
-9.99993e-10
-4.2148e-15
-2.50642e-15
-9.99995e-10
-4.54331e-15
-2.47385e-15
-9.99996e-10
-4.31792e-15
-2.47258e-15
-9.99998e-10
-3.69967e-15
-2.50273e-15
-9.99999e-10
-2.68123e-15
-2.51461e-15
-1e-09
-1.38202e-15
-2.52536e-15
-1e-09
-2.54093e-15
-1e-09
-1.3897e-15
-3.04327e-15
-9.99993e-10
-2.6083e-15
-3.055e-15
-9.99993e-10
-3.55015e-15
-3.03651e-15
-9.99994e-10
-4.1783e-15
-3.0143e-15
-9.99996e-10
-4.51797e-15
-3.12668e-15
-9.99997e-10
-4.34105e-15
-2.78781e-15
-9.99999e-10
-3.71103e-15
-2.881e-15
-1e-09
-2.69333e-15
-2.96166e-15
-1e-09
-1.40426e-15
-3.01665e-15
-1e-09
-3.0475e-15
-1e-09
-1.39201e-15
-3.23028e-15
-9.99994e-10
-2.59111e-15
-3.23464e-15
-9.99994e-10
-3.53449e-15
-3.25963e-15
-9.99995e-10
-4.29065e-15
-3.24102e-15
-9.99997e-10
-4.19742e-15
-2.94612e-15
-9.99998e-10
-4.40457e-15
-3.44173e-15
-1e-09
-3.76926e-15
-3.30935e-15
-1e-09
-2.74239e-15
-3.21026e-15
-1e-09
-1.43921e-15
-3.16537e-15
-1e-09
-3.1382e-15
-1e-09
-1.3889e-15
-3.09145e-15
-9.99995e-10
-2.61778e-15
-3.09617e-15
-9.99996e-10
-3.54086e-15
-3.07846e-15
-9.99997e-10
-3.96903e-15
-3.09195e-15
-9.99998e-10
-4.69725e-15
-3.20266e-15
-1e-09
-4.2604e-15
-3.05953e-15
-1e-09
-3.67496e-15
-3.01206e-15
-1e-09
-2.69797e-15
-2.98325e-15
-1e-09
-1.42059e-15
-2.93367e-15
-1.00001e-09
-2.88101e-15
-1.00001e-09
-1.3868e-15
-2.6629e-15
-9.99996e-10
-2.59926e-15
-2.66017e-15
-9.99997e-10
-3.55745e-15
-2.64978e-15
-9.99998e-10
-4.10459e-15
-2.65373e-15
-9.99999e-10
-4.57433e-15
-2.69161e-15
-1e-09
-4.21692e-15
-2.59631e-15
-1e-09
-3.6318e-15
-2.56521e-15
-1e-09
-2.64761e-15
-2.52679e-15
-1.00001e-09
-1.37629e-15
-2.48289e-15
-1.00001e-09
-2.45484e-15
-1.00001e-09
-1.37609e-15
-1.93148e-15
-9.99997e-10
-2.5885e-15
-1.92957e-15
-9.99998e-10
-3.56141e-15
-1.92232e-15
-9.99999e-10
-4.16384e-15
-1.90496e-15
-1e-09
-4.47318e-15
-1.91396e-15
-1e-09
-4.19964e-15
-1.87466e-15
-1e-09
-3.59364e-15
-1.85241e-15
-1.00001e-09
-2.60677e-15
-1.82002e-15
-1.00001e-09
-1.35472e-15
-1.78511e-15
-1.00001e-09
-1.7613e-15
-1.00001e-09
-1.3686e-15
-1.01123e-15
-9.99998e-10
-2.57996e-15
-1.00602e-15
-9.99999e-10
-3.54278e-15
-9.87441e-16
-1e-09
-4.17923e-15
-9.95529e-16
-1e-09
-4.43334e-15
-1.0058e-15
-1e-09
-4.17786e-15
-9.87675e-16
-1e-09
-3.55807e-15
-9.71924e-16
-1.00001e-09
-2.5715e-15
-9.50281e-16
-1.00001e-09
-1.33372e-15
-9.25093e-16
-1.00001e-09
-9.16566e-16
-1.00001e-09
-1.35953e-15
-9.99998e-10
-2.55546e-15
-9.99999e-10
-3.54367e-15
-1e-09
-4.18477e-15
-1e-09
-4.40382e-15
-1e-09
-4.15065e-15
-1e-09
-3.52643e-15
-1.00001e-09
-2.54154e-15
-1.00001e-09
-1.32419e-15
-1.00001e-09
-1.00001e-09
-1.91607e-15
-1.37929e-15
-9.99987e-10
-3.61205e-15
-1.37641e-15
-9.99988e-10
-4.96801e-15
-1.36576e-15
-9.99989e-10
-5.83364e-15
-1.34278e-15
-9.99991e-10
-6.13536e-15
-1.31863e-15
-9.99993e-10
-5.84517e-15
-1.32032e-15
-9.99996e-10
-4.99342e-15
-1.34424e-15
-9.99998e-10
-3.61135e-15
-1.34231e-15
-1e-09
-1.87819e-15
-1.33498e-15
-1e-09
-1.32351e-15
-1e-09
-1.91444e-15
-2.58947e-15
-9.99988e-10
-3.60937e-15
-2.58411e-15
-9.99988e-10
-4.95603e-15
-2.56481e-15
-9.9999e-10
-5.82429e-15
-2.53015e-15
-9.99992e-10
-6.15186e-15
-2.49227e-15
-9.99994e-10
-5.88087e-15
-2.52276e-15
-9.99996e-10
-5.00444e-15
-2.51209e-15
-9.99998e-10
-3.61366e-15
-2.51165e-15
-1e-09
-1.87374e-15
-2.51905e-15
-1e-09
-2.51646e-15
-1e-09
-1.90342e-15
-3.55741e-15
-9.99989e-10
-3.59039e-15
-3.56374e-15
-9.99989e-10
-4.92269e-15
-3.54988e-15
-9.99991e-10
-5.78517e-15
-3.51473e-15
-9.99993e-10
-6.18114e-15
-3.4632e-15
-9.99995e-10
-5.86904e-15
-3.53868e-15
-9.99997e-10
-5.00539e-15
-3.50089e-15
-9.99999e-10
-3.62243e-15
-3.49115e-15
-1e-09
-1.878e-15
-3.50025e-15
-1e-09
-3.51231e-15
-1e-09
-1.90156e-15
-4.20491e-15
-9.9999e-10
-3.57556e-15
-4.21767e-15
-9.99991e-10
-4.88777e-15
-4.21073e-15
-9.99992e-10
-5.72165e-15
-4.15968e-15
-9.99994e-10
-6.23393e-15
-4.15693e-15
-9.99996e-10
-5.82252e-15
-4.1861e-15
-9.99999e-10
-4.99588e-15
-4.14833e-15
-1e-09
-3.63239e-15
-4.1477e-15
-1e-09
-1.89918e-15
-4.16189e-15
-1e-09
-4.16391e-15
-1e-09
-1.9033e-15
-4.42536e-15
-9.99992e-10
-3.56854e-15
-4.44115e-15
-9.99992e-10
-4.84954e-15
-4.46893e-15
-9.99994e-10
-5.71871e-15
-4.5326e-15
-9.99996e-10
-6.24889e-15
-4.57064e-15
-9.99998e-10
-5.74577e-15
-4.21518e-15
-1e-09
-4.98047e-15
-4.3606e-15
-1e-09
-3.64128e-15
-4.37457e-15
-1e-09
-1.90832e-15
-4.34915e-15
-1.00001e-09
-4.31888e-15
-1.00001e-09
-1.90814e-15
-4.22626e-15
-9.99993e-10
-3.59763e-15
-4.22327e-15
-9.99994e-10
-4.93566e-15
-4.18487e-15
-9.99995e-10
-5.76428e-15
-4.14833e-15
-9.99997e-10
-5.8909e-15
-4.13288e-15
-1e-09
-5.8957e-15
-4.28895e-15
-1e-09
-4.98397e-15
-4.16027e-15
-1e-09
-3.61716e-15
-4.09806e-15
-1.00001e-09
-1.88883e-15
-4.04327e-15
-1.00001e-09
-4.00687e-15
-1.00001e-09
-1.89586e-15
-3.61189e-15
-9.99995e-10
-3.55956e-15
-3.59778e-15
-9.99996e-10
-4.90566e-15
-3.59578e-15
-9.99997e-10
-5.77966e-15
-3.59195e-15
-9.99999e-10
-6.06001e-15
-3.57245e-15
-1e-09
-5.77288e-15
-3.57371e-15
-1e-09
-4.90893e-15
-3.50969e-15
-1.00001e-09
-3.56193e-15
-3.46455e-15
-1.00001e-09
-1.86343e-15
-3.43046e-15
-1.00001e-09
-3.41455e-15
-1.00001e-09
-1.87187e-15
-2.61116e-15
-9.99996e-10
-3.55623e-15
-2.61805e-15
-9.99997e-10
-4.90118e-15
-2.61416e-15
-9.99998e-10
-5.77245e-15
-2.60411e-15
-1e-09
-6.07253e-15
-2.60362e-15
-1e-09
-5.71962e-15
-2.58166e-15
-1e-09
-4.86446e-15
-2.53571e-15
-1.00001e-09
-3.53074e-15
-2.50768e-15
-1.00001e-09
-1.85597e-15
-2.48766e-15
-1.00001e-09
-2.47094e-15
-1.00001e-09
-1.87201e-15
-1.37698e-15
-9.99997e-10
-3.55156e-15
-1.3687e-15
-9.99998e-10
-4.89052e-15
-1.3582e-15
-9.99999e-10
-5.77683e-15
-1.36926e-15
-1e-09
-6.04965e-15
-1.37035e-15
-1e-09
-5.67502e-15
-1.35988e-15
-1.00001e-09
-4.83267e-15
-1.33442e-15
-1.00001e-09
-3.51038e-15
-1.32395e-15
-1.00001e-09
-1.84349e-15
-1.30801e-15
-1.00001e-09
-1.31734e-15
-1.00001e-09
-1.85771e-15
-9.99998e-10
-3.53308e-15
-9.99999e-10
-4.89092e-15
-1e-09
-5.76714e-15
-1e-09
-6.02371e-15
-1e-09
-5.63632e-15
-1.00001e-09
-4.80956e-15
-1.00001e-09
-3.48762e-15
-1.00001e-09
-1.85149e-15
-1.00001e-09
-1.00001e-09
-2.6099e-15
-1.89418e-15
-9.99983e-10
-4.9358e-15
-1.89617e-15
-9.99984e-10
-6.78709e-15
-1.88424e-15
-9.99985e-10
-7.96697e-15
-1.86263e-15
-9.99988e-10
-8.35374e-15
-1.84735e-15
-9.99991e-10
-7.95258e-15
-1.84824e-15
-9.99994e-10
-6.75564e-15
-1.84942e-15
-9.99997e-10
-4.8767e-15
-1.83066e-15
-9.99999e-10
-2.55145e-15
-1.83122e-15
-1e-09
-1.82161e-15
-1e-09
-2.61314e-15
-3.56925e-15
-9.99983e-10
-4.93469e-15
-3.56798e-15
-9.99984e-10
-6.78068e-15
-3.54728e-15
-9.99986e-10
-7.97095e-15
-3.52338e-15
-9.99989e-10
-8.37431e-15
-3.4998e-15
-9.99992e-10
-7.97051e-15
-3.50046e-15
-9.99995e-10
-6.7536e-15
-3.47842e-15
-9.99998e-10
-4.88955e-15
-3.4785e-15
-1e-09
-2.55198e-15
-3.482e-15
-1e-09
-3.47586e-15
-1e-09
-2.60408e-15
-4.90298e-15
-9.99985e-10
-4.91417e-15
-4.91353e-15
-9.99986e-10
-6.75823e-15
-4.9041e-15
-9.99988e-10
-7.94705e-15
-4.87844e-15
-9.9999e-10
-8.37425e-15
-4.8316e-15
-9.99993e-10
-7.94776e-15
-4.89515e-15
-9.99996e-10
-6.75524e-15
-4.84034e-15
-9.99999e-10
-4.89449e-15
-4.81728e-15
-1e-09
-2.5552e-15
-4.81663e-15
-1e-09
-4.81118e-15
-1e-09
-2.60324e-15
-5.76721e-15
-9.99987e-10
-4.90295e-15
-5.78174e-15
-9.99988e-10
-6.73332e-15
-5.77909e-15
-9.99989e-10
-7.88884e-15
-5.72497e-15
-9.99992e-10
-8.42109e-15
-5.64822e-15
-9.99995e-10
-7.88417e-15
-5.8519e-15
-9.99998e-10
-6.73324e-15
-5.77561e-15
-1e-09
-4.8948e-15
-5.71939e-15
-1e-09
-2.5619e-15
-5.68813e-15
-1.00001e-09
-5.65754e-15
-1.00001e-09
-2.60245e-15
-6.05506e-15
-9.99989e-10
-4.89853e-15
-6.06813e-15
-9.9999e-10
-6.68991e-15
-6.07432e-15
-9.99992e-10
-7.80821e-15
-6.12728e-15
-9.99994e-10
-8.60377e-15
-6.3146e-15
-9.99997e-10
-7.7501e-15
-5.65626e-15
-1e-09
-6.66443e-15
-5.88204e-15
-1e-09
-4.85977e-15
-5.94523e-15
-1.00001e-09
-2.54329e-15
-5.9362e-15
-1.00001e-09
-5.91096e-15
-1.00001e-09
-2.60124e-15
-5.76895e-15
-9.99991e-10
-4.90698e-15
-5.75802e-15
-9.99992e-10
-6.75896e-15
-5.71571e-15
-9.99994e-10
-8.0085e-15
-5.6651e-15
-9.99996e-10
-7.94739e-15
-5.55849e-15
-9.99999e-10
-7.95999e-15
-5.77183e-15
-1e-09
-6.71286e-15
-5.65708e-15
-1.00001e-09
-4.84965e-15
-5.60854e-15
-1.00001e-09
-2.53249e-15
-5.5804e-15
-1.00001e-09
-5.57347e-15
-1.00001e-09
-2.57748e-15
-4.90022e-15
-9.99993e-10
-4.86582e-15
-4.89259e-15
-9.99994e-10
-6.71826e-15
-4.89585e-15
-9.99996e-10
-7.95932e-15
-4.87701e-15
-9.99999e-10
-8.17994e-15
-4.80191e-15
-1e-09
-7.85496e-15
-4.84732e-15
-1e-09
-6.654e-15
-4.78619e-15
-1.00001e-09
-4.82347e-15
-4.75625e-15
-1.00001e-09
-2.54013e-15
-4.75326e-15
-1.00001e-09
-4.75019e-15
-1.00001e-09
-2.55783e-15
-3.55344e-15
-9.99995e-10
-4.86811e-15
-3.56925e-15
-9.99996e-10
-6.69756e-15
-3.56141e-15
-9.99998e-10
-7.89365e-15
-3.54649e-15
-1e-09
-8.24039e-15
-3.52537e-15
-1e-09
-7.80492e-15
-3.51145e-15
-1.00001e-09
-6.62449e-15
-3.47069e-15
-1.00001e-09
-4.8229e-15
-3.4685e-15
-1.00001e-09
-2.54852e-15
-3.46841e-15
-1.00001e-09
-3.45373e-15
-1.00001e-09
-2.56511e-15
-1.88122e-15
-9.99996e-10
-4.85936e-15