/*--------------------------------*- C++ -*----------------------------------*\
  =========                 |
  \\      /  F ield         | OpenFOAM: The Open Source CFD Toolbox
   \\    /   O peration     | Website:  https://openfoam.org
    \\  /    A nd           | Version:  9
     \\/     M anipulation  |
\*---------------------------------------------------------------------------*/
FoamFile
{
    format      ascii;
    class       volVectorField;
    location    "0.08";
    object      stored_U;
}
// * * * * * * * * * * * * * * * * * * * * * * * * * * * * * * * * * * * * * //

dimensions      [0 1 -1 0 0 0 0];

internalField   nonuniform List<vector> 
9000
(
(-3.45503e-11 -3.21378e-11 -0.000999998)
(-9.2811e-11 -3.07696e-11 -0.000999998)
(-1.35597e-10 -3.10338e-11 -0.000999998)
(-1.69228e-10 -3.28438e-11 -0.000999998)
(-2.01605e-10 -3.61819e-11 -0.000999999)
(-2.26776e-10 -3.71439e-11 -0.000999999)
(-2.1896e-10 -3.84055e-11 -0.000999999)
(-1.75876e-10 -3.70501e-11 -0.001)
(-1.12036e-10 -3.47886e-11 -0.001)
(-3.80915e-11 -3.2439e-11 -0.001)
(-3.31865e-11 -8.52583e-11 -0.000999998)
(-9.18149e-11 -8.37692e-11 -0.000999998)
(-1.37936e-10 -8.89085e-11 -0.000999998)
(-1.74723e-10 -9.94672e-11 -0.000999998)
(-2.06334e-10 -1.13295e-10 -0.000999999)
(-2.29515e-10 -1.14234e-10 -0.000999999)
(-2.19371e-10 -1.09965e-10 -0.001)
(-1.7262e-10 -1.0082e-10 -0.001)
(-1.07685e-10 -9.14218e-11 -0.001)
(-3.58646e-11 -8.45154e-11 -0.001)
(-3.2972e-11 -1.21237e-10 -0.000999998)
(-9.64774e-11 -1.22865e-10 -0.000999998)
(-1.51576e-10 -1.375e-10 -0.000999998)
(-1.9398e-10 -1.61256e-10 -0.000999999)
(-2.16826e-10 -1.90237e-10 -0.000999999)
(-2.23971e-10 -1.8685e-10 -0.000999999)
(-2.06047e-10 -1.70053e-10 -0.001)
(-1.5772e-10 -1.49012e-10 -0.001)
(-9.61397e-11 -1.3016e-10 -0.001)
(-3.14392e-11 -1.18717e-10 -0.001)
(-3.4583e-11 -1.38073e-10 -0.000999998)
(-1.07836e-10 -1.45833e-10 -0.000999998)
(-1.7633e-10 -1.69972e-10 -0.000999999)
(-2.27486e-10 -2.05623e-10 -0.000999999)
(-2.32016e-10 -2.45075e-10 -0.000999999)
(-2.09399e-10 -2.53599e-10 -0.001)
(-1.81568e-10 -2.1808e-10 -0.001)
(-1.32764e-10 -1.8667e-10 -0.001)
(-7.76573e-11 -1.57857e-10 -0.001)
(-2.46784e-11 -1.41405e-10 -0.001)
(-4.05169e-11 -1.64629e-10 -0.000999998)
(-1.2814e-10 -1.69925e-10 -0.000999999)
(-2.11339e-10 -1.84535e-10 -0.000999999)
(-2.69054e-10 -2.02516e-10 -0.000999999)
(-2.64861e-10 -2.34438e-10 -0.001)
(-1.97183e-10 -2.18281e-10 -0.001)
(-1.39232e-10 -2.04462e-10 -0.001)
(-9.75291e-11 -1.84035e-10 -0.001)
(-5.11703e-11 -1.6657e-10 -0.001)
(-1.52787e-11 -1.56781e-10 -0.001)
(-3.95959e-11 -1.95835e-10 -0.000999999)
(-1.27423e-10 -1.94702e-10 -0.000999999)
(-2.08822e-10 -1.86946e-10 -0.000999999)
(-2.77274e-10 -1.71425e-10 -0.001)
(-2.47782e-10 -1.57925e-10 -0.001)
(-1.79704e-10 -1.41289e-10 -0.001)
(-1.47402e-10 -1.46746e-10 -0.001)
(-9.49277e-11 -1.48888e-10 -0.001)
(-5.07338e-11 -1.57141e-10 -0.001)
(-1.52268e-11 -1.64732e-10 -0.001)
(-3.89547e-11 -1.83698e-10 -0.000999999)
(-1.18793e-10 -1.80961e-10 -0.000999999)
(-1.88017e-10 -1.65075e-10 -0.001)
(-2.39847e-10 -1.4037e-10 -0.001)
(-2.34417e-10 -9.9504e-11 -0.001)
(-1.86024e-10 -1.08864e-10 -0.001)
(-1.47055e-10 -1.08268e-10 -0.001)
(-1.07949e-10 -1.20772e-10 -0.001)
(-6.73785e-11 -1.37588e-10 -0.001)
(-2.32259e-11 -1.50564e-10 -0.001)
(-3.64427e-11 -1.41932e-10 -0.000999999)
(-1.08363e-10 -1.37476e-10 -0.001)
(-1.68203e-10 -1.23373e-10 -0.001)
(-2.11673e-10 -1.02384e-10 -0.001)
(-2.16235e-10 -7.37862e-11 -0.001)
(-1.88262e-10 -7.12185e-11 -0.001)
(-1.59291e-10 -8.01251e-11 -0.001)
(-1.24258e-10 -9.43071e-11 -0.001)
(-8.0901e-11 -1.07733e-10 -0.001)
(-2.85352e-11 -1.15949e-10 -0.001)
(-3.41754e-11 -9.07115e-11 -0.001)
(-9.98846e-11 -8.76555e-11 -0.001)
(-1.52885e-10 -7.8003e-11 -0.001)
(-1.90226e-10 -6.40882e-11 -0.001)
(-2.03181e-10 -4.57433e-11 -0.001)
(-1.92303e-10 -4.41258e-11 -0.001)
(-1.70107e-10 -5.21187e-11 -0.001)
(-1.35556e-10 -6.13858e-11 -0.001)
(-8.92785e-11 -6.93368e-11 -0.001)
(-3.16682e-11 -7.41142e-11 -0.001)
(-3.31192e-11 -3.13317e-11 -0.001)
(-9.52373e-11 -3.04071e-11 -0.001)
(-1.44298e-10 -2.69602e-11 -0.001)
(-1.78996e-10 -2.21525e-11 -0.001)
(-1.95818e-10 -1.61496e-11 -0.001)
(-1.94176e-10 -1.52354e-11 -0.001)
(-1.76135e-10 -1.84429e-11 -0.001)
(-1.41168e-10 -2.16276e-11 -0.001)
(-9.35881e-11 -2.4335e-11 -0.001)
(-3.33992e-11 -2.6074e-11 -0.001)
(-9.16835e-11 -8.53541e-11 -0.000999997)
(-2.49206e-10 -8.19995e-11 -0.000999998)
(-3.68743e-10 -8.33594e-11 -0.000999998)
(-4.65871e-10 -8.95797e-11 -0.000999998)
(-5.55504e-10 -1.01474e-10 -0.000999998)
(-6.21438e-10 -1.03017e-10 -0.000999999)
(-5.97117e-10 -1.03804e-10 -0.000999999)
(-4.7734e-10 -9.88077e-11 -0.001)
(-3.03263e-10 -9.20084e-11 -0.001)
(-1.02491e-10 -8.50958e-11 -0.001)
(-8.83392e-11 -2.3054e-10 -0.000999998)
(-2.47461e-10 -2.29234e-10 -0.000999998)
(-3.76968e-10 -2.44396e-10 -0.000999998)
(-4.84928e-10 -2.73033e-10 -0.000999998)
(-5.70073e-10 -3.1061e-10 -0.000999999)
(-6.25018e-10 -3.09379e-10 -0.000999999)
(-5.94102e-10 -2.94204e-10 -0.000999999)
(-4.66399e-10 -2.68217e-10 -0.001)
(-2.90183e-10 -2.43121e-10 -0.001)
(-9.58964e-11 -2.25709e-10 -0.001)
(-9.01664e-11 -3.35268e-10 -0.000999998)
(-2.63096e-10 -3.45699e-10 -0.000999998)
(-4.13225e-10 -3.84403e-10 -0.000999998)
(-5.33047e-10 -4.42229e-10 -0.000999998)
(-5.93007e-10 -5.11872e-10 -0.000999999)
(-6.06304e-10 -4.9209e-10 -0.000999999)
(-5.57158e-10 -4.47982e-10 -0.001)
(-4.27194e-10 -3.94249e-10 -0.001)
(-2.61753e-10 -3.48526e-10 -0.001)
(-8.57162e-11 -3.23937e-10 -0.001)
(-9.82172e-11 -3.97335e-10 -0.000999998)
(-2.96012e-10 -4.26042e-10 -0.000999998)
(-4.73504e-10 -4.84528e-10 -0.000999998)
(-6.12457e-10 -5.65517e-10 -0.000999999)
(-6.19949e-10 -6.44129e-10 -0.000999999)
(-5.61162e-10 -6.52831e-10 -0.001)
(-4.96318e-10 -5.63051e-10 -0.001)
(-3.67036e-10 -4.89382e-10 -0.001)
(-2.20527e-10 -4.26462e-10 -0.001)
(-7.194e-11 -3.96382e-10 -0.001)
(-1.1825e-10 -4.61772e-10 -0.000999998)
(-3.49627e-10 -4.80397e-10 -0.000999999)
(-5.52655e-10 -5.13632e-10 -0.000999999)
(-6.9268e-10 -5.45934e-10 -0.000999999)
(-6.8034e-10 -6.04051e-10 -0.001)
(-5.25054e-10 -5.83316e-10 -0.001)
(-3.93602e-10 -5.36902e-10 -0.001)
(-2.90651e-10 -4.87616e-10 -0.001)
(-1.69483e-10 -4.52244e-10 -0.001)
(-5.63761e-11 -4.36903e-10 -0.001)
(-1.16073e-10 -5.2543e-10 -0.000999999)
(-3.47045e-10 -5.18768e-10 -0.000999999)
(-5.39056e-10 -4.96279e-10 -0.000999999)
(-7.02944e-10 -4.52892e-10 -0.001)
(-6.57339e-10 -4.13373e-10 -0.001)
(-4.94067e-10 -3.84735e-10 -0.001)
(-4.00603e-10 -3.98266e-10 -0.001)
(-2.82401e-10 -4.04347e-10 -0.001)
(-1.70606e-10 -4.25014e-10 -0.001)
(-5.73504e-11 -4.40732e-10 -0.001)
(-1.10518e-10 -4.90367e-10 -0.000999999)
(-3.19356e-10 -4.77417e-10 -0.000999999)
(-4.86726e-10 -4.3473e-10 -0.001)
(-6.09918e-10 -3.75878e-10 -0.001)
(-6.12145e-10 -2.74404e-10 -0.001)
(-5.09967e-10 -2.83751e-10 -0.001)
(-4.13276e-10 -2.97172e-10 -0.001)
(-3.17447e-10 -3.32017e-10 -0.001)
(-2.06823e-10 -3.70767e-10 -0.001)
(-7.29585e-11 -3.95944e-10 -0.001)
(-1.02076e-10 -3.77351e-10 -0.000999999)
(-2.90332e-10 -3.63311e-10 -0.001)
(-4.37451e-10 -3.27502e-10 -0.001)
(-5.42628e-10 -2.77815e-10 -0.001)
(-5.65161e-10 -2.12222e-10 -0.001)
(-5.1678e-10 -2.02455e-10 -0.001)
(-4.48912e-10 -2.29077e-10 -0.001)
(-3.56072e-10 -2.62855e-10 -0.001)
(-2.35406e-10 -2.92252e-10 -0.001)
(-8.32837e-11 -3.08877e-10 -0.001)
(-9.5729e-11 -2.41852e-10 -0.001)
(-2.68688e-10 -2.33804e-10 -0.001)
(-4.0113e-10 -2.10527e-10 -0.001)
(-4.9457e-10 -1.78948e-10 -0.001)
(-5.36733e-10 -1.40289e-10 -0.001)
(-5.26732e-10 -1.36587e-10 -0.001)
(-4.73642e-10 -1.53716e-10 -0.001)
(-3.80622e-10 -1.73307e-10 -0.001)
(-2.53413e-10 -1.904e-10 -0.001)
(-9.00721e-11 -2.00548e-10 -0.001)
(-9.34076e-11 -8.39928e-11 -0.001)
(-2.58004e-10 -8.19785e-11 -0.001)
(-3.81769e-10 -7.39765e-11 -0.001)
(-4.71382e-10 -6.34239e-11 -0.001)
(-5.21712e-10 -5.17878e-11 -0.001)
(-5.29092e-10 -4.94768e-11 -0.001)
(-4.84636e-10 -5.51718e-11 -0.001)
(-3.92014e-10 -6.13564e-11 -0.001)
(-2.62517e-10 -6.72365e-11 -0.001)
(-9.35515e-11 -7.07692e-11 -0.001)
(-1.54698e-10 -1.43756e-10 -0.000999997)
(-4.32854e-10 -1.41397e-10 -0.000999997)
(-6.56144e-10 -1.43622e-10 -0.000999997)
(-8.36093e-10 -1.53022e-10 -0.000999998)
(-9.85077e-10 -1.69948e-10 -0.000999998)
(-1.07787e-09 -1.70578e-10 -0.000999999)
(-1.02126e-09 -1.69229e-10 -0.000999999)
(-8.12041e-10 -1.61501e-10 -0.001)
(-5.15258e-10 -1.52187e-10 -0.001)
(-1.73558e-10 -1.43078e-10 -0.001)
(-1.52355e-10 -4.0388e-10 -0.000999997)
(-4.33191e-10 -4.07961e-10 -0.000999997)
(-6.68996e-10 -4.28277e-10 -0.000999998)
(-8.64216e-10 -4.63696e-10 -0.000999998)
(-1.00468e-09 -5.09588e-10 -0.000999998)
(-1.07921e-09 -5.02887e-10 -0.000999999)
(-1.01406e-09 -4.79572e-10 -0.000999999)
(-7.96394e-10 -4.44214e-10 -0.001)
(-4.97937e-10 -4.12752e-10 -0.001)
(-1.6501e-10 -3.92675e-10 -0.001)
(-1.58359e-10 -6.11164e-10 -0.000999997)
(-4.57292e-10 -6.3283e-10 -0.000999998)
(-7.13141e-10 -6.79408e-10 -0.000999998)
(-9.19211e-10 -7.42074e-10 -0.000999998)
(-1.02635e-09 -8.1796e-10 -0.000999999)
(-1.04997e-09 -7.76115e-10 -0.000999999)
(-9.64528e-10 -7.24763e-10 -0.001)
(-7.46763e-10 -6.59523e-10 -0.001)
(-4.65413e-10 -6.08307e-10 -0.001)
(-1.54547e-10 -5.84881e-10 -0.001)
(-1.72931e-10 -7.63668e-10 -0.000999998)
(-5.00316e-10 -8.03492e-10 -0.000999998)
(-7.78248e-10 -8.64453e-10 -0.000999998)
(-1.00288e-09 -9.44797e-10 -0.000999999)
(-1.03885e-09 -1.05095e-09 -0.000999999)
(-9.86135e-10 -9.50142e-10 -0.000999999)
(-8.97579e-10 -8.87503e-10 -0.001)
(-6.801e-10 -8.14827e-10 -0.001)
(-4.24487e-10 -7.56512e-10 -0.001)
(-1.42702e-10 -7.34555e-10 -0.001)
(-1.96716e-10 -8.54072e-10 -0.000999998)
(-5.56574e-10 -8.79845e-10 -0.000999998)
(-8.54341e-10 -9.10381e-10 -0.000999999)
(-1.1057e-09 -9.23674e-10 -0.000999999)
(-1.03169e-09 -9.14683e-10 -0.000999999)
(-8.86514e-10 -1.00626e-09 -0.001)
(-8.29217e-10 -8.96058e-10 -0.001)
(-6.15856e-10 -8.38663e-10 -0.001)
(-3.86543e-10 -8.08114e-10 -0.001)
(-1.33955e-10 -8.00163e-10 -0.001)
(-1.97082e-10 -8.87332e-10 -0.000999999)
(-5.54939e-10 -8.7941e-10 -0.000999999)
(-8.21968e-10 -8.52342e-10 -0.000999999)
(-1.00717e-09 -7.97859e-10 -0.000999999)
(-1.12145e-09 -6.95792e-10 -0.001)
(-9.67252e-10 -7.78279e-10 -0.001)
(-7.29936e-10 -7.44433e-10 -0.001)
(-5.9224e-10 -7.4187e-10 -0.001)
(-3.87521e-10 -7.59338e-10 -0.001)
(-1.36237e-10 -7.70355e-10 -0.001)
(-1.8704e-10 -8.14669e-10 -0.000999999)
(-5.1977e-10 -7.95e-10 -0.000999999)
(-7.7268e-10 -7.44953e-10 -0.000999999)
(-9.49144e-10 -6.89334e-10 -0.001)
(-1.01236e-09 -6.18712e-10 -0.001)
(-9.35136e-10 -5.2001e-10 -0.001)
(-7.92569e-10 -5.85918e-10 -0.001)
(-6.30886e-10 -6.26249e-10 -0.001)
(-4.16518e-10 -6.62104e-10 -0.001)
(-1.46311e-10 -6.80636e-10 -0.001)
(-1.75772e-10 -6.37527e-10 -0.000999999)
(-4.83545e-10 -6.20188e-10 -0.000999999)
(-7.16202e-10 -5.77781e-10 -0.001)
(-8.80929e-10 -5.23795e-10 -0.001)
(-9.52154e-10 -4.62326e-10 -0.001)
(-9.34682e-10 -4.34061e-10 -0.001)
(-8.36165e-10 -4.66509e-10 -0.001)
(-6.68524e-10 -4.98876e-10 -0.001)
(-4.43293e-10 -5.27126e-10 -0.001)
(-1.5598e-10 -5.43599e-10 -0.001)
(-1.68506e-10 -4.12591e-10 -0.001)
(-4.5872e-10 -4.03191e-10 -0.001)
(-6.7612e-10 -3.77112e-10 -0.001)
(-8.3358e-10 -3.44515e-10 -0.001)
(-9.22521e-10 -3.11111e-10 -0.001)
(-9.39247e-10 -3.03053e-10 -0.001)
(-8.57272e-10 -3.14473e-10 -0.001)
(-6.91495e-10 -3.31519e-10 -0.001)
(-4.62194e-10 -3.48702e-10 -0.001)
(-1.63637e-10 -3.57345e-10 -0.001)
(-1.65343e-10 -1.43806e-10 -0.001)
(-4.46385e-10 -1.41182e-10 -0.001)
(-6.56101e-10 -1.32612e-10 -0.001)
(-8.13158e-10 -1.22522e-10 -0.001)
(-9.08797e-10 -1.13905e-10 -0.001)
(-9.36229e-10 -1.10638e-10 -0.001)
(-8.62962e-10 -1.12613e-10 -0.001)
(-7.01473e-10 -1.1784e-10 -0.001)
(-4.68894e-10 -1.23787e-10 -0.001)
(-1.64914e-10 -1.25142e-10 -0.001)
(-2.31963e-10 -2.14716e-10 -0.000999996)
(-6.64457e-10 -2.14502e-10 -0.000999996)
(-1.02619e-09 -2.16315e-10 -0.000999997)
(-1.30884e-09 -2.2505e-10 -0.000999997)
(-1.51793e-09 -2.41247e-10 -0.000999998)
(-1.62397e-09 -2.40327e-10 -0.000999998)
(-1.51717e-09 -2.37594e-10 -0.000999999)
(-1.20225e-09 -2.30104e-10 -0.001)
(-7.65073e-10 -2.21672e-10 -0.001)
(-2.58651e-10 -2.13141e-10 -0.001)
(-2.31787e-10 -6.20839e-10 -0.000999996)
(-6.66918e-10 -6.29611e-10 -0.000999997)
(-1.03875e-09 -6.46582e-10 -0.000999997)
(-1.33657e-09 -6.7469e-10 -0.000999997)
(-1.5363e-09 -7.1212e-10 -0.000999998)
(-1.62331e-09 -7.00984e-10 -0.000999999)
(-1.50959e-09 -6.75874e-10 -0.000999999)
(-1.18839e-09 -6.43029e-10 -0.001)
(-7.49788e-10 -6.16219e-10 -0.001)
(-2.50949e-10 -5.99586e-10 -0.001)
(-2.40004e-10 -9.63918e-10 -0.000999997)
(-6.90313e-10 -9.89257e-10 -0.000999997)
(-1.07331e-09 -1.02459e-09 -0.000999997)
(-1.3772e-09 -1.06717e-09 -0.000999998)
(-1.54741e-09 -1.12448e-09 -0.000999998)
(-1.59084e-09 -1.06579e-09 -0.000999999)
(-1.46201e-09 -1.02478e-09 -0.000999999)
(-1.14488e-09 -9.70031e-10 -0.001)
(-7.24182e-10 -9.31262e-10 -0.001)
(-2.43591e-10 -9.15604e-10 -0.001)
(-2.55255e-10 -1.2345e-09 -0.000999997)
(-7.25711e-10 -1.26638e-09 -0.000999997)
(-1.11667e-09 -1.30221e-09 -0.000999998)
(-1.43663e-09 -1.35209e-09 -0.000999998)
(-1.53515e-09 -1.45959e-09 -0.000999999)
(-1.52382e-09 -1.25703e-09 -0.000999999)
(-1.41401e-09 -1.24163e-09 -0.001)
(-1.09512e-09 -1.20058e-09 -0.001)
(-6.97229e-10 -1.16879e-09 -0.001)
(-2.36989e-10 -1.15835e-09 -0.001)
(-2.69354e-10 -1.35074e-09 -0.000999998)
(-7.55445e-10 -1.37276e-09 -0.000999998)
(-1.15884e-09 -1.38429e-09 -0.000999998)
(-1.53455e-09 -1.36448e-09 -0.000999999)
(-1.45229e-09 -1.27906e-09 -0.000999999)
(-1.37289e-09 -1.464e-09 -0.001)
(-1.4056e-09 -1.32352e-09 -0.001)
(-1.07224e-09 -1.27508e-09 -0.001)
(-6.84469e-10 -1.25706e-09 -0.001)
(-2.3554e-10 -1.25495e-09 -0.001)
(-2.74635e-10 -1.31846e-09 -0.000999998)
(-7.56541e-10 -1.31848e-09 -0.000999998)
(-1.10821e-09 -1.29842e-09 -0.000999999)
(-1.3314e-09 -1.24827e-09 -0.000999999)
(-1.6346e-09 -1.09657e-09 -0.001)
(-1.56825e-09 -1.2909e-09 -0.001)
(-1.22506e-09 -1.21076e-09 -0.001)
(-1.02885e-09 -1.18647e-09 -0.001)
(-6.7963e-10 -1.18729e-09 -0.001)
(-2.3725e-10 -1.18955e-09 -0.001)
(-2.66931e-10 -1.19317e-09 -0.000999999)
(-7.32874e-10 -1.1801e-09 -0.000999999)
(-1.08845e-09 -1.14362e-09 -0.000999999)
(-1.33271e-09 -1.11607e-09 -0.001)
(-1.49492e-09 -1.10163e-09 -0.001)
(-1.48705e-09 -9.17516e-10 -0.001)
(-1.30119e-09 -9.98605e-10 -0.001)
(-1.04892e-09 -1.02212e-09 -0.001)
(-6.89818e-10 -1.03924e-09 -0.001)
(-2.39878e-10 -1.04744e-09 -0.001)
(-2.59364e-10 -9.54661e-10 -0.000999999)
(-7.04711e-10 -9.44721e-10 -0.000999999)
(-1.04402e-09 -9.09779e-10 -0.001)
(-1.2894e-09 -8.68182e-10 -0.001)
(-1.43607e-09 -8.34549e-10 -0.001)
(-1.46517e-09 -7.82831e-10 -0.001)
(-1.32966e-09 -8.01672e-10 -0.001)
(-1.06963e-09 -8.18136e-10 -0.001)
(-7.06955e-10 -8.3621e-10 -0.001)
(-2.47271e-10 -8.4808e-10 -0.001)
(-2.55274e-10 -6.22001e-10 -0.000999999)
(-6.86126e-10 -6.14739e-10 -0.001)
(-1.01166e-09 -5.93453e-10 -0.001)
(-1.25731e-09 -5.69048e-10 -0.001)
(-1.40939e-09 -5.51761e-10 -0.001)
(-1.45399e-09 -5.35298e-10 -0.001)
(-1.33635e-09 -5.35449e-10 -0.001)
(-1.08344e-09 -5.44389e-10 -0.001)
(-7.21261e-10 -5.5601e-10 -0.001)
(-2.53155e-10 -5.57601e-10 -0.001)
(-2.50539e-10 -2.1595e-10 -0.001)
(-6.73662e-10 -2.12088e-10 -0.001)
(-9.96172e-10 -2.05218e-10 -0.001)
(-1.24502e-09 -1.98622e-10 -0.001)
(-1.39942e-09 -1.95491e-10 -0.001)
(-1.4461e-09 -1.91418e-10 -0.001)
(-1.33628e-09 -1.90183e-10 -0.001)
(-1.08822e-09 -1.93633e-10 -0.001)
(-7.19833e-10 -1.96836e-10 -0.001)
(-2.49372e-10 -1.93167e-10 -0.001)
(-3.356e-10 -3.05201e-10 -0.000999995)
(-9.73196e-10 -3.06527e-10 -0.000999995)
(-1.51745e-09 -3.07491e-10 -0.000999996)
(-1.93312e-09 -3.13865e-10 -0.000999996)
(-2.20564e-09 -3.25719e-10 -0.000999997)
(-2.30796e-09 -3.24304e-10 -0.000999998)
(-2.13085e-09 -3.20179e-10 -0.000999999)
(-1.68513e-09 -3.14141e-10 -0.000999999)
(-1.07555e-09 -3.0792e-10 -0.001)
(-3.65454e-10 -3.00469e-10 -0.001)
(-3.3698e-10 -8.9144e-10 -0.000999995)
(-9.76792e-10 -9.00538e-10 -0.000999995)
(-1.52773e-09 -9.10416e-10 -0.000999996)
(-1.95522e-09 -9.26689e-10 -0.000999997)
(-2.22033e-09 -9.48003e-10 -0.000999997)
(-2.30655e-09 -9.39273e-10 -0.000999998)
(-2.12437e-09 -9.14737e-10 -0.000999999)
(-1.67586e-09 -8.90173e-10 -0.001)
(-1.06431e-09 -8.71421e-10 -0.001)
(-3.59171e-10 -8.58126e-10 -0.001)
(-3.43582e-10 -1.39576e-09 -0.000999996)
(-9.92327e-10 -1.4151e-09 -0.000999996)
(-1.54657e-09 -1.43291e-09 -0.000999996)
(-1.97466e-09 -1.45039e-09 -0.000999997)
(-2.22263e-09 -1.47896e-09 -0.000999998)
(-2.27908e-09 -1.43016e-09 -0.000999999)
(-2.08571e-09 -1.39857e-09 -0.000999999)
(-1.6451e-09 -1.36148e-09 -0.001)
(-1.04719e-09 -1.33683e-09 -0.001)
(-3.54422e-10 -1.32585e-09 -0.001)
(-3.53603e-10 -1.79181e-09 -0.000999996)
(-1.01123e-09 -1.80709e-09 -0.000999996)
(-1.56303e-09 -1.81546e-09 -0.000999997)
(-2.00147e-09 -1.83127e-09 -0.000999998)
(-2.20037e-09 -1.94728e-09 -0.000999998)
(-2.22645e-09 -1.68149e-09 -0.000999999)
(-2.05597e-09 -1.70736e-09 -0.001)
(-1.6145e-09 -1.69338e-09 -0.001)
(-1.03143e-09 -1.68089e-09 -0.001)
(-3.50718e-10 -1.67348e-09 -0.001)
(-3.55329e-10 -1.95605e-09 -0.000999997)
(-1.01233e-09 -1.97058e-09 -0.000999997)
(-1.57054e-09 -1.96605e-09 -0.000999998)
(-2.10647e-09 -1.93073e-09 -0.000999998)
(-2.07286e-09 -1.79854e-09 -0.000999999)
(-2.03915e-09 -2.01054e-09 -0.001)
(-2.09756e-09 -1.87141e-09 -0.001)
(-1.61883e-09 -1.83642e-09 -0.001)
(-1.03072e-09 -1.8262e-09 -0.001)
(-3.50252e-10 -1.82285e-09 -0.001)
(-3.64426e-10 -1.88584e-09 -0.000999998)
(-1.01735e-09 -1.89842e-09 -0.000999998)
(-1.52291e-09 -1.88774e-09 -0.000999998)
(-1.83394e-09 -1.85098e-09 -0.000999999)
(-2.28021e-09 -1.66306e-09 -0.001)
(-2.29934e-09 -1.91814e-09 -0.001)
(-1.88184e-09 -1.81045e-09 -0.001)
(-1.5695e-09 -1.77117e-09 -0.001)
(-1.0215e-09 -1.75914e-09 -0.001)
(-3.50773e-10 -1.75833e-09 -0.001)
(-3.64525e-10 -1.70206e-09 -0.000999998)
(-1.01068e-09 -1.70505e-09 -0.000999998)
(-1.52284e-09 -1.68381e-09 -0.000999999)
(-1.8817e-09 -1.673e-09 -0.000999999)
(-2.13998e-09 -1.70702e-09 -0.001)
(-2.18658e-09 -1.48125e-09 -0.001)
(-1.95065e-09 -1.55265e-09 -0.001)
(-1.5678e-09 -1.55413e-09 -0.001)
(-1.02124e-09 -1.55644e-09 -0.001)
(-3.52538e-10 -1.56139e-09 -0.001)
(-3.6441e-10 -1.37845e-09 -0.000999999)
(-9.95944e-10 -1.38008e-09 -0.000999999)
(-1.49064e-09 -1.35299e-09 -0.000999999)
(-1.85712e-09 -1.31936e-09 -0.001)
(-2.08842e-09 -1.30168e-09 -0.001)
(-2.14496e-09 -1.24055e-09 -0.001)
(-1.95471e-09 -1.23885e-09 -0.001)
(-1.5735e-09 -1.24205e-09 -0.001)
(-1.03171e-09 -1.25243e-09 -0.001)
(-3.58454e-10 -1.25852e-09 -0.001)
(-3.6369e-10 -8.97117e-10 -0.000999999)
(-9.82554e-10 -8.89076e-10 -0.000999999)
(-1.46176e-09 -8.70002e-10 -0.001)
(-1.83014e-09 -8.48959e-10 -0.001)
(-2.06091e-09 -8.36716e-10 -0.001)
(-2.1235e-09 -8.17139e-10 -0.001)
(-1.95192e-09 -8.15321e-10 -0.001)
(-1.58136e-09 -8.20653e-10 -0.001)
(-1.03997e-09 -8.25585e-10 -0.001)
(-3.60797e-10 -8.18971e-10 -0.001)
(-3.54182e-10 -3.08461e-10 -0.000999999)
(-9.65272e-10 -3.00118e-10 -0.001)
(-1.44744e-09 -2.93594e-10 -0.001)
(-1.82005e-09 -2.88653e-10 -0.001)
(-2.05245e-09 -2.87061e-10 -0.001)
(-2.1195e-09 -2.84088e-10 -0.001)
(-1.95452e-09 -2.86862e-10 -0.001)
(-1.58084e-09 -2.90142e-10 -0.001)
(-1.02961e-09 -2.8917e-10 -0.001)
(-3.5263e-10 -2.81141e-10 -0.001)
(-4.80417e-10 -4.23586e-10 -0.000999993)
(-1.39504e-09 -4.24398e-10 -0.000999994)
(-2.17869e-09 -4.25262e-10 -0.000999994)
(-2.77251e-09 -4.29546e-10 -0.000999995)
(-3.11714e-09 -4.35189e-10 -0.000999996)
(-3.18959e-09 -4.33784e-10 -0.000999997)
(-2.91563e-09 -4.28687e-10 -0.000999998)
(-2.30611e-09 -4.23195e-10 -0.000999999)
(-1.47438e-09 -4.17988e-10 -0.001)
(-5.02802e-10 -4.10609e-10 -0.001)
(-4.81332e-10 -1.23136e-09 -0.000999994)
(-1.39855e-09 -1.23579e-09 -0.000999994)
(-2.18789e-09 -1.24085e-09 -0.000999995)
(-2.78761e-09 -1.24894e-09 -0.000999996)
(-3.12708e-09 -1.2555e-09 -0.000999997)
(-3.18874e-09 -1.25121e-09 -0.000999998)
(-2.91016e-09 -1.23083e-09 -0.000999999)
(-2.29958e-09 -1.21284e-09 -0.001)
(-1.46514e-09 -1.19816e-09 -0.001)
(-4.97007e-10 -1.18507e-09 -0.001)
(-4.83411e-10 -1.92149e-09 -0.000999994)
(-1.40484e-09 -1.93016e-09 -0.000999995)
(-2.19597e-09 -1.93716e-09 -0.000999995)
(-2.79256e-09 -1.94136e-09 -0.000999996)
(-3.12547e-09 -1.9482e-09 -0.000999997)
(-3.17099e-09 -1.91977e-09 -0.000999998)
(-2.88266e-09 -1.89743e-09 -0.000999999)
(-2.27789e-09 -1.87299e-09 -0.001)
(-1.45165e-09 -1.85323e-09 -0.001)
(-4.92829e-10 -1.84135e-09 -0.001)
(-4.86429e-10 -2.44701e-09 -0.000999995)
(-1.41059e-09 -2.45168e-09 -0.000999995)
(-2.19911e-09 -2.44997e-09 -0.000999996)
(-2.799e-09 -2.45068e-09 -0.000999997)
(-3.10587e-09 -2.51244e-09 -0.000999998)
(-3.13848e-09 -2.35244e-09 -0.000999999)
(-2.86369e-09 -2.35427e-09 -0.001)
(-2.2558e-09 -2.34509e-09 -0.001)
(-1.43733e-09 -2.33103e-09 -0.001)
(-4.88676e-10 -2.31833e-09 -0.001)
(-4.83574e-10 -2.69652e-09 -0.000999996)
(-1.40305e-09 -2.70665e-09 -0.000999996)
(-2.19465e-09 -2.69799e-09 -0.000999997)
(-2.85506e-09 -2.66662e-09 -0.000999998)
(-3.02723e-09 -2.5836e-09 -0.000999999)
(-3.01295e-09 -2.68436e-09 -0.001)
(-2.87545e-09 -2.60835e-09 -0.001)
(-2.25497e-09 -2.57415e-09 -0.001)
(-1.42957e-09 -2.56211e-09 -0.001)
(-4.84543e-10 -2.55364e-09 -0.001)
(-4.91672e-10 -2.65518e-09 -0.000999997)
(-1.40682e-09 -2.67523e-09 -0.000999997)
(-2.15869e-09 -2.66637e-09 -0.000999998)
(-2.68467e-09 -2.63595e-09 -0.000999998)
(-3.12363e-09 -2.5055e-09 -0.001)
(-3.16307e-09 -2.64882e-09 -0.001)
(-2.75364e-09 -2.5783e-09 -0.001)
(-2.20993e-09 -2.53911e-09 -0.001)
(-1.42187e-09 -2.52947e-09 -0.001)
(-4.84909e-10 -2.53208e-09 -0.001)
(-4.9891e-10 -2.41037e-09 -0.000999997)
(-1.40921e-09 -2.42604e-09 -0.000999998)
(-2.15489e-09 -2.40706e-09 -0.000999998)
(-2.69411e-09 -2.3891e-09 -0.000999999)
(-3.04028e-09 -2.38582e-09 -0.001)
(-3.08573e-09 -2.25065e-09 -0.001)
(-2.76567e-09 -2.26129e-09 -0.001)
(-2.20646e-09 -2.26191e-09 -0.001)
(-1.42741e-09 -2.26606e-09 -0.001)
(-4.91656e-10 -2.27399e-09 -0.001)
(-5.03109e-10 -1.94818e-09 -0.000999998)
(-1.39905e-09 -1.95373e-09 -0.000999999)
(-2.12141e-09 -1.92371e-09 -0.000999999)
(-2.66334e-09 -1.88391e-09 -0.001)
(-2.98511e-09 -1.85406e-09 -0.001)
(-3.03861e-09 -1.79636e-09 -0.001)
(-2.7649e-09 -1.79183e-09 -0.001)
(-2.21499e-09 -1.79954e-09 -0.001)
(-1.43828e-09 -1.80942e-09 -0.001)
(-4.96869e-10 -1.81029e-09 -0.00100001)
(-5.00976e-10 -1.25703e-09 -0.000999999)
(-1.38097e-09 -1.24112e-09 -0.000999999)
(-2.08459e-09 -1.2173e-09 -0.001)
(-2.62412e-09 -1.1915e-09 -0.001)
(-2.95236e-09 -1.17085e-09 -0.001)
(-3.02314e-09 -1.15723e-09 -0.001)
(-2.76854e-09 -1.16792e-09 -0.001)
(-2.22403e-09 -1.17627e-09 -0.001)
(-1.44142e-09 -1.17599e-09 -0.00100001)
(-4.95673e-10 -1.16493e-09 -0.00100001)
(-4.84145e-10 -4.27116e-10 -0.000999999)
(-1.35436e-09 -4.11879e-10 -0.000999999)
(-2.06751e-09 -4.03835e-10 -0.001)
(-2.61168e-09 -3.98758e-10 -0.001)
(-2.94504e-09 -3.96239e-10 -0.001)
(-3.02979e-09 -3.96829e-10 -0.001)
(-2.77859e-09 -4.0842e-10 -0.001)
(-2.21895e-09 -4.11921e-10 -0.001)
(-1.42641e-09 -4.07312e-10 -0.00100001)
(-4.8693e-10 -3.98742e-10 -0.00100001)
(-6.80316e-10 -5.79851e-10 -0.000999991)
(-1.96843e-09 -5.78232e-10 -0.000999992)
(-3.06537e-09 -5.79266e-10 -0.000999993)
(-3.89217e-09 -5.8152e-10 -0.000999994)
(-4.33301e-09 -5.8002e-10 -0.000999995)
(-4.35724e-09 -5.79015e-10 -0.000999997)
(-3.95177e-09 -5.74936e-10 -0.000999998)
(-3.13108e-09 -5.68747e-10 -0.000999999)
(-2.00309e-09 -5.62674e-10 -0.001)
(-6.84559e-10 -5.54933e-10 -0.001)
(-6.78881e-10 -1.67067e-09 -0.000999992)
(-1.97034e-09 -1.66819e-09 -0.000999992)
(-3.07415e-09 -1.67193e-09 -0.000999993)
(-3.89991e-09 -1.67705e-09 -0.000999994)
(-4.33822e-09 -1.67514e-09 -0.000999996)
(-4.35992e-09 -1.67253e-09 -0.000999997)
(-3.94859e-09 -1.66203e-09 -0.000999998)
(-3.12452e-09 -1.64577e-09 -0.000999999)
(-1.9939e-09 -1.6299e-09 -0.001)
(-6.79019e-10 -1.61572e-09 -0.001)
(-6.76095e-10 -2.58931e-09 -0.000999992)
(-1.97027e-09 -2.58942e-09 -0.000999993)
(-3.0799e-09 -2.59615e-09 -0.000999994)
(-3.90278e-09 -2.60221e-09 -0.000999995)
(-4.33662e-09 -2.60971e-09 -0.000999996)
(-4.35231e-09 -2.58851e-09 -0.000999998)
(-3.93253e-09 -2.58139e-09 -0.000999999)
(-3.10514e-09 -2.55906e-09 -0.001)
(-1.98e-09 -2.53591e-09 -0.001)
(-6.74652e-10 -2.52136e-09 -0.001)
(-6.74406e-10 -3.26932e-09 -0.000999993)
(-1.97245e-09 -3.27531e-09 -0.000999994)
(-3.08696e-09 -3.28463e-09 -0.000999995)
(-3.91388e-09 -3.29955e-09 -0.000999996)
(-4.32495e-09 -3.33794e-09 -0.000999997)
(-4.33191e-09 -3.26816e-09 -0.000999999)
(-3.91955e-09 -3.25073e-09 -0.001)
(-3.07976e-09 -3.22427e-09 -0.001)
(-1.96147e-09 -3.19676e-09 -0.001)
(-6.69289e-10 -3.1781e-09 -0.001)
(-6.76319e-10 -3.64374e-09 -0.000999994)
(-1.97944e-09 -3.65449e-09 -0.000999995)
(-3.10379e-09 -3.65348e-09 -0.000999996)
(-3.95609e-09 -3.63808e-09 -0.000999997)
(-4.30541e-09 -3.61612e-09 -0.000999998)
(-4.26505e-09 -3.65413e-09 -0.001)
(-3.88861e-09 -3.60046e-09 -0.001)
(-3.0516e-09 -3.56253e-09 -0.001)
(-1.94019e-09 -3.54399e-09 -0.001)
(-6.61962e-10 -3.53116e-09 -0.001)
(-6.7876e-10 -3.68304e-09 -0.000999995)
(-1.97541e-09 -3.70023e-09 -0.000999996)
(-3.07017e-09 -3.68344e-09 -0.000999997)
(-3.87637e-09 -3.64394e-09 -0.000999998)
(-4.34101e-09 -3.56613e-09 -0.001)
(-4.31652e-09 -3.61235e-09 -0.001)
(-3.8279e-09 -3.57069e-09 -0.001)
(-3.02375e-09 -3.55101e-09 -0.001)
(-1.93704e-09 -3.55407e-09 -0.001)
(-6.6292e-10 -3.55993e-09 -0.001)
(-6.8698e-10 -3.36177e-09 -0.000999997)
(-1.97294e-09 -3.37649e-09 -0.000999997)
(-3.04719e-09 -3.34603e-09 -0.000999998)
(-3.83886e-09 -3.30701e-09 -0.000999999)
(-4.27356e-09 -3.25385e-09 -0.001)
(-4.26962e-09 -3.1805e-09 -0.001)
(-3.82735e-09 -3.17666e-09 -0.001)
(-3.03544e-09 -3.19342e-09 -0.001)
(-1.95597e-09 -3.20978e-09 -0.00100001)
(-6.74197e-10 -3.2189e-09 -0.00100001)
(-6.87522e-10 -2.69017e-09 -0.000999998)
(-1.95336e-09 -2.6866e-09 -0.000999998)
(-3.0003e-09 -2.64545e-09 -0.000999999)
(-3.78423e-09 -2.59312e-09 -0.001)
(-4.21455e-09 -2.54135e-09 -0.001)
(-4.23925e-09 -2.50224e-09 -0.001)
(-3.84081e-09 -2.51195e-09 -0.001)
(-3.05727e-09 -2.53311e-09 -0.00100001)
(-1.96869e-09 -2.54383e-09 -0.00100001)
(-6.77782e-10 -2.53945e-09 -0.00100001)
(-6.78608e-10 -1.71778e-09 -0.000999998)
(-1.92296e-09 -1.69122e-09 -0.000999999)
(-2.95302e-09 -1.6613e-09 -0.001)
(-3.73431e-09 -1.63212e-09 -0.001)
(-4.18219e-09 -1.60849e-09 -0.001)
(-4.23972e-09 -1.60501e-09 -0.001)
(-3.85778e-09 -1.62863e-09 -0.00100001)
(-3.06728e-09 -1.63885e-09 -0.00100001)
(-1.9669e-09 -1.63445e-09 -0.00100001)
(-6.7422e-10 -1.62364e-09 -0.00100001)
(-6.56773e-10 -5.7919e-10 -0.000999999)
(-1.88999e-09 -5.59529e-10 -0.000999999)
(-2.9352e-09 -5.50829e-10 -0.001)
(-3.72417e-09 -5.47214e-10 -0.001)
(-4.17936e-09 -5.4741e-10 -0.001)
(-4.25103e-09 -5.5191e-10 -0.001)
(-3.86706e-09 -5.66605e-10 -0.00100001)
(-3.05742e-09 -5.6837e-10 -0.00100001)
(-1.95282e-09 -5.62216e-10 -0.00100001)
(-6.68534e-10 -5.56747e-10 -0.00100001)
(-9.48221e-10 -7.87463e-10 -0.000999988)
(-2.73524e-09 -7.83031e-10 -0.000999989)
(-4.24453e-09 -7.83289e-10 -0.00099999)
(-5.37021e-09 -7.83245e-10 -0.000999992)
(-5.95617e-09 -7.76438e-10 -0.000999994)
(-5.94397e-09 -7.76162e-10 -0.000999996)
(-5.36537e-09 -7.74599e-10 -0.000999997)
(-4.25604e-09 -7.67145e-10 -0.000999999)
(-2.72376e-09 -7.59575e-10 -0.001)
(-9.32615e-10 -7.52947e-10 -0.001)
(-9.44087e-10 -2.2586e-09 -0.000999989)
(-2.73447e-09 -2.25142e-09 -0.000999989)
(-4.25222e-09 -2.25547e-09 -0.000999991)
(-5.37292e-09 -2.26128e-09 -0.000999992)
(-5.95965e-09 -2.25893e-09 -0.000999994)
(-5.95275e-09 -2.25661e-09 -0.000999996)
(-5.366e-09 -2.2546e-09 -0.000999998)
(-4.2487e-09 -2.23649e-09 -0.000999999)
(-2.71576e-09 -2.21828e-09 -0.001)
(-9.2893e-10 -2.20539e-09 -0.001)
(-9.38849e-10 -3.48766e-09 -0.00099999)
(-2.73302e-09 -3.48656e-09 -0.00099999)
(-4.26215e-09 -3.5002e-09 -0.000999992)
(-5.38385e-09 -3.51751e-09 -0.000999993)
(-5.96277e-09 -3.53965e-09 -0.000999995)
(-5.95092e-09 -3.52166e-09 -0.000999997)
(-5.35546e-09 -3.52088e-09 -0.000999999)
(-4.22805e-09 -3.49364e-09 -0.001)
(-2.70203e-09 -3.46775e-09 -0.001)
(-9.25477e-10 -3.45308e-09 -0.001)
(-9.36947e-10 -4.38781e-09 -0.000999991)
(-2.74074e-09 -4.40367e-09 -0.000999992)
(-4.28321e-09 -4.43362e-09 -0.000999993)
(-5.41297e-09 -4.47199e-09 -0.000999994)
(-5.96446e-09 -4.54095e-09 -0.000999996)
(-5.93465e-09 -4.4791e-09 -0.000999998)
(-5.33861e-09 -4.4552e-09 -0.001)
(-4.19651e-09 -4.41571e-09 -0.001)
(-2.68232e-09 -4.38284e-09 -0.001)
(-9.20772e-10 -4.36406e-09 -0.001)
(-9.47061e-10 -4.91955e-09 -0.000999992)
(-2.77064e-09 -4.93509e-09 -0.000999993)
(-4.32993e-09 -4.94825e-09 -0.000999994)
(-5.49119e-09 -4.95445e-09 -0.000999996)
(-5.96978e-09 -4.95845e-09 -0.000999998)
(-5.86529e-09 -5.01124e-09 -0.001)
(-5.29213e-09 -4.94457e-09 -0.001)
(-4.15628e-09 -4.89875e-09 -0.001)
(-2.65903e-09 -4.87601e-09 -0.001)
(-9.14804e-10 -4.86083e-09 -0.001)
(-9.43903e-10 -5.0335e-09 -0.000999994)
(-2.76024e-09 -5.03949e-09 -0.000999995)
(-4.30196e-09 -5.01262e-09 -0.000999996)
(-5.42325e-09 -4.96709e-09 -0.000999997)
(-6.02127e-09 -4.88624e-09 -0.000999999)
(-5.92068e-09 -4.93731e-09 -0.001)
(-5.2262e-09 -4.9013e-09 -0.001)
(-4.12858e-09 -4.89789e-09 -0.001)
(-2.65392e-09 -4.90712e-09 -0.00100001)
(-9.14498e-10 -4.90699e-09 -0.00100001)
(-9.44143e-10 -4.59447e-09 -0.000999996)
(-2.74024e-09 -4.59319e-09 -0.000999996)
(-4.2569e-09 -4.54795e-09 -0.000999997)
(-5.36468e-09 -4.49224e-09 -0.000999999)
(-5.9401e-09 -4.4322e-09 -0.001)
(-5.88036e-09 -4.3573e-09 -0.001)
(-5.25275e-09 -4.37932e-09 -0.001)
(-4.16272e-09 -4.41738e-09 -0.00100001)
(-2.67761e-09 -4.43911e-09 -0.00100001)
(-9.23508e-10 -4.43976e-09 -0.00100001)
(-9.34494e-10 -3.63948e-09 -0.000999997)
(-2.70503e-09 -3.61995e-09 -0.000999997)
(-4.20043e-09 -3.57293e-09 -0.000999999)
(-5.30744e-09 -3.52063e-09 -0.001)
(-5.88623e-09 -3.48147e-09 -0.001)
(-5.86777e-09 -3.44926e-09 -0.001)
(-5.28628e-09 -3.47649e-09 -0.00100001)
(-4.18892e-09 -3.50128e-09 -0.00100001)
(-2.68483e-09 -3.50563e-09 -0.00100001)
(-9.23093e-10 -3.49492e-09 -0.00100001)