/*--------------------------------*- C++ -*----------------------------------*\
| =========                 |                                                 |
| \\      /  F ield         | OpenFOAM: The Open Source CFD Toolbox           |
|  \\    /   O peration     | Version:  5.x                                   |
|   \\  /    A nd           | Web:      www.OpenFOAM.org                      |
|    \\/     M anipulation  |                                                 |
\*---------------------------------------------------------------------------*/
FoamFile
{
    version     2.0;
    format      ascii;
    class       volScalarField;
    location    "0.009";
    object      p;
}
// * * * * * * * * * * * * * * * * * * * * * * * * * * * * * * * * * * * * * //

dimensions      [0 2 -2 0 0 0 0];

internalField   nonuniform List<scalar> 
180
(
-5.42068e-09
-1.63393e-08
-2.73526e-08
-3.8273e-08
-4.89597e-08
-5.93899e-08
-6.95081e-08
-7.92703e-08
-8.86425e-08
-9.76026e-08
-1.0614e-07
-1.14257e-07
-1.21968e-07
-1.29297e-07
-1.36282e-07
-1.42968e-07
-1.4941e-07
-1.55671e-07
-1.61819e-07
-1.67926e-07
-1.74067e-07
-1.80318e-07
-1.86755e-07
-1.93456e-07
-2.00492e-07
-2.07935e-07
-2.15856e-07
-2.2432e-07
-2.33394e-07
-2.43144e-07
-2.53639e-07
-2.6495e-07
-2.77157e-07
-2.90346e-07
-3.04618e-07
-3.20089e-07
-3.36894e-07
-3.55193e-07
-3.75177e-07
-3.97068e-07
-4.21129e-07
-4.47672e-07
-4.77058e-07
-5.09716e-07
-5.46142e-07
-5.86916e-07
-6.32718e-07
-6.84338e-07
-7.42698e-07
-8.08882e-07
-8.84157e-07
-9.70016e-07
-1.06821e-06
-1.18077e-06
-1.3101e-06
-1.45896e-06
-1.63058e-06
-1.82873e-06
-2.05774e-06
-2.32258e-06
-2.62893e-06
-2.98315e-06
-3.39225e-06
-3.86368e-06
-4.40484e-06
-5.02191e-06
-5.72266e-06
-6.51943e-06
-7.42596e-06
-8.45775e-06
-9.63219e-06
-1.09684e-05
-1.24876e-05
-1.42184e-05
-1.62151e-05
-1.8553e-05
-2.11485e-05
-2.33659e-05
-2.49937e-05
-3.78788e-05
-0.000160415
0.00109119
0.0017676
0.00210406
0.00344986
0.0036045
0.0050799
0.00771472
0.0111864
0.016196
0.0176111
0.0181964
0.0193291
0.0203142
0.0207471
0.0225609
0.0232928
0.0239619
0.0256507
0.0269328
0.0283714
0.0296996
0.0311504
0.0315337
0.0315841
0.0316002
0.0316029
0.0316066
0.0316107
0.0316143
0.0316173
0.0316199
0.031622
0.0316239
0.0316254
0.0316267
0.0316279
0.0316288
0.0316296
0.0316303
0.0316309
0.0316313
0.0316318
0.0316321
0.0316324
0.0316327
0.0316329
0.031633
0.0316332
0.0316333
0.0316334
0.0316335
0.0316336
0.0316337
0.0316337
0.0316338
0.0316338
0.0316339
0.0316339
0.0316339
0.031634
0.031634
0.031634
0.031634
0.031634
0.031634
0.0316341
0.0316341
0.0316341
0.0316341
0.0316341
0.0316341
0.0316341
0.0316341
0.0316341
0.0316341
0.0316341
0.0316341
0.0316341
0.0316341
0.0316341
0.0316341
0.0316341
0.0316341
0.0316341
0.0316341
0.0316341
0.0316341
0.0316341
0.0316341
0.0316341
0.0316341
0.0316341
0.0316341
0.0316341
0.0316341
0.0316341
0.0316341
0.0316341
0.0316341
)
;

boundaryField
{
    inlet
    {
        type            zeroGradient;
    }
    outlet
    {
        type            fixedValue;
        value           uniform 0;
    }
    repeat_boundary
    {
        type            zeroGradient;
    }
    procBoundary0to1
    {
        type            processor;
        value           nonuniform List<scalar> 
180
(
-5.29504e-09
-1.59031e-08
-2.65585e-08
-3.71253e-08
-4.74439e-08
-5.75006e-08
-6.72378e-08
-7.66077e-08
-8.5571e-08
-9.40981e-08
-1.02169e-07
-1.09774e-07
-1.16914e-07
-1.23595e-07
-1.29835e-07
-1.35656e-07
-1.41087e-07
-1.46156e-07
-1.50896e-07
-1.55339e-07
-1.5951e-07
-1.63433e-07
-1.67122e-07
-1.7058e-07
-1.73802e-07
-1.76764e-07
-1.79428e-07
-1.81739e-07
-1.83621e-07
-1.84974e-07
-1.85676e-07
-1.85578e-07
-1.84503e-07
-1.82245e-07
-1.78561e-07
-1.73173e-07
-1.65762e-07
-1.55963e-07
-1.43354e-07
-1.27457e-07
-1.07719e-07
-8.35061e-08
-5.40907e-08
-1.86319e-08
2.38408e-08
7.44502e-08
1.34498e-07
2.05492e-07
2.89186e-07
3.87616e-07
5.03151e-07
6.38547e-07
7.97002e-07
9.82212e-07
1.19845e-06
1.45062e-06
1.7444e-06
2.08626e-06
2.48365e-06
2.94502e-06
3.47995e-06
4.0992e-06
4.81475e-06
5.63962e-06
6.58752e-06
7.67177e-06
8.90826e-06
1.03186e-05
1.19273e-05
1.37621e-05
1.58548e-05
1.82425e-05
2.097e-05
2.40864e-05
2.76306e-05
3.16253e-05
3.62257e-05
4.22227e-05
5.04534e-05
5.42712e-05
-3.05367e-05
0.00074819
0.00132618
0.00124822
0.00510779
0.00660005
0.00797987
0.00898039
0.0095467
0.0110866
0.0139909
0.0168722
0.0188327
0.0197835
0.021551
0.0245547
0.0253546
0.0262397
0.027127
0.0285723
0.0305151
0.0310778
0.031349
0.0315134
0.0315693
0.0315835
0.0315863
0.0315905
0.0315951
0.0315995
0.0316033
0.0316067
0.0316097
0.0316125
0.0316149
0.0316171
0.0316191
0.0316208
0.0316223
0.0316237
0.0316249
0.031626
0.031627
0.0316278
0.0316285
0.0316292
0.0316298
0.0316303
0.0316307
0.0316311
0.0316315
0.0316318
0.0316321
0.0316323
0.0316325
0.0316327
0.0316329
0.031633
0.0316332
0.0316333
0.0316334
0.0316335
0.0316335
0.0316336
0.0316337
0.0316337
0.0316338
0.0316338
0.0316339
0.0316339
0.0316339
0.0316339
0.031634
0.031634
0.031634
0.031634
0.031634
0.031634
0.031634
0.031634
0.031634
0.0316341
0.0316341
0.0316341
0.0316341
0.0316341
0.0316341
0.0316341
0.0316341
0.0316341
0.0316341
0.0316341
0.0316341
0.0316341
0.0316341
0.0316341
0.0316341
0.0316341
0.0316341
0.0316341
)
;
    }
    procBoundary0to2
    {
        type            processor;
        value           nonuniform List<scalar> 
180
(
-5.4231e-09
-1.62388e-08
-2.70904e-08
-3.78749e-08
-4.84404e-08
-5.8778e-08
-6.88371e-08
-7.85791e-08
-8.79752e-08
-9.7008e-08
-1.05671e-07
-1.13971e-07
-1.21926e-07
-1.29564e-07
-1.36925e-07
-1.44061e-07
-1.51031e-07
-1.57902e-07
-1.64748e-07
-1.7165e-07
-1.78691e-07
-1.8596e-07
-1.93547e-07
-2.01544e-07
-2.10043e-07
-2.19141e-07
-2.28934e-07
-2.39521e-07
-2.51007e-07
-2.635e-07
-2.77117e-07
-2.91983e-07
-3.08239e-07
-3.26037e-07
-3.45552e-07
-3.66979e-07
-3.90543e-07
-4.16497e-07
-4.45133e-07
-4.76784e-07
-5.11828e-07
-5.50696e-07
-5.93877e-07
-6.41923e-07
-6.95456e-07
-7.55175e-07
-8.2186e-07
-8.96384e-07
-9.79718e-07
-1.07295e-06
-1.17728e-06
-1.29407e-06
-1.42481e-06
-1.57116e-06
-1.73495e-06
-1.91821e-06
-2.12315e-06
-2.35223e-06
-2.6081e-06
-2.89364e-06
-3.21193e-06
-3.56625e-06
-3.96007e-06
-4.39697e-06
-4.88065e-06
-5.41481e-06
-6.00314e-06
-6.64916e-06
-7.3561e-06
-8.12673e-06
-8.96281e-06
-9.86383e-06
-1.08246e-05
-1.18371e-05
-1.29069e-05
-1.40739e-05
-1.52244e-05
-1.55092e-05
-1.41053e-05
-2.12466e-05
-0.000160343
0.00106272
0.00166702
0.00190085
0.00430942
0.00509657
0.00775739
0.0092079
0.0100348
0.0110656
0.0115277
0.0127155
0.0134074
0.0138328
0.0182441
0.0240294
0.0274345
0.0287404
0.0291961
0.0298608
0.0303321
0.030761
0.0313539
0.0316608
0.0317405
0.0317317
0.0317149
0.0317034
0.0316944
0.0316866
0.0316796
0.0316735
0.0316683
0.0316637
0.0316598
0.0316564
0.0316534
0.0316509
0.0316487
0.0316467
0.0316451
0.0316437
0.0316424
0.0316413
0.0316404
0.0316396
0.0316389
0.0316383
0.0316377
0.0316373
0.0316369
0.0316365
0.0316362
0.0316359
0.0316357
0.0316355
0.0316353
0.0316352
0.031635
0.0316349
0.0316348
0.0316347
0.0316347
0.0316346
0.0316345
0.0316345
0.0316344
0.0316344
0.0316344
0.0316343
0.0316343
0.0316343
0.0316343
0.0316342
0.0316342
0.0316342
0.0316342
0.0316342
0.0316342
0.0316342
0.0316342
0.0316341
0.0316341
0.0316341
0.0316341
0.0316341
0.0316341
0.0316341
0.0316341
0.0316341
0.0316341
0.0316341
0.0316341
0.0316341
0.0316341
0.0316341
0.0316341
0.0316341
0.0316341
0.0316341
)
;
    }
}


// ************************************************************************* //
