/*--------------------------------*- C++ -*----------------------------------*\
| =========                 |                                                 |
| \\      /  F ield         | OpenFOAM: The Open Source CFD Toolbox           |
|  \\    /   O peration     | Version:  5.x                                   |
|   \\  /    A nd           | Web:      www.OpenFOAM.org                      |
|    \\/     M anipulation  |                                                 |
\*---------------------------------------------------------------------------*/
FoamFile
{
    version     2.0;
    format      ascii;
    class       surfaceScalarField;
    location    "0.009";
    object      phi;
}
// * * * * * * * * * * * * * * * * * * * * * * * * * * * * * * * * * * * * * //

dimensions      [0 3 -1 0 0 0 0];

internalField   nonuniform List<scalar> 
179
(
-2.49982e-10
-2.49982e-10
-2.49981e-10
-2.49981e-10
-2.4998e-10
-2.4998e-10
-2.49979e-10
-2.49977e-10
-2.49976e-10
-2.49975e-10
-2.49973e-10
-2.49971e-10
-2.49969e-10
-2.49966e-10
-2.49963e-10
-2.4996e-10
-2.49956e-10
-2.49952e-10
-2.49947e-10
-2.49942e-10
-2.49936e-10
-2.49929e-10
-2.49922e-10
-2.49914e-10
-2.49905e-10
-2.49895e-10
-2.49885e-10
-2.49873e-10
-2.4986e-10
-2.49845e-10
-2.49829e-10
-2.49812e-10
-2.49792e-10
-2.49771e-10
-2.49748e-10
-2.49722e-10
-2.49693e-10
-2.49662e-10
-2.49627e-10
-2.49589e-10
-2.49546e-10
-2.495e-10
-2.49448e-10
-2.49391e-10
-2.49328e-10
-2.49259e-10
-2.49182e-10
-2.49098e-10
-2.49004e-10
-2.48901e-10
-2.48786e-10
-2.4866e-10
-2.4852e-10
-2.48365e-10
-2.48193e-10
-2.48003e-10
-2.47792e-10
-2.47559e-10
-2.473e-10
-2.47012e-10
-2.46693e-10
-2.46339e-10
-2.45946e-10
-2.45511e-10
-2.45029e-10
-2.44494e-10
-2.43899e-10
-2.43236e-10
-2.42498e-10
-2.41675e-10
-2.40758e-10
-2.39736e-10
-2.38599e-10
-2.37337e-10
-2.35947e-10
-2.34435e-10
-2.3281e-10
-2.3111e-10
-2.29381e-10
-2.27671e-10
-2.27122e-10
-2.2725e-10
-2.32269e-10
-2.33086e-10
-2.2609e-10
-2.12053e-10
-2.10365e-10
-2.01812e-10
-2.03248e-10
-2.19335e-10
-2.38193e-10
-2.52932e-10
-2.70064e-10
-2.87362e-10
-2.88273e-10
-2.84345e-10
-2.63746e-10
-2.51415e-10
-2.38519e-10
-2.31588e-10
-2.21501e-10
-2.14542e-10
-2.13338e-10
-2.1338e-10
-2.1293e-10
-2.14145e-10
-2.16458e-10
-2.19177e-10
-2.21946e-10
-2.24596e-10
-2.27052e-10
-2.29292e-10
-2.31323e-10
-2.33157e-10
-2.34812e-10
-2.36305e-10
-2.37651e-10
-2.38864e-10
-2.39958e-10
-2.40944e-10
-2.41832e-10
-2.42633e-10
-2.43355e-10
-2.44005e-10
-2.44592e-10
-2.45121e-10
-2.45597e-10
-2.46027e-10
-2.46414e-10
-2.46764e-10
-2.47079e-10
-2.47363e-10
-2.4762e-10
-2.47851e-10
-2.4806e-10
-2.48248e-10
-2.48418e-10
-2.48572e-10
-2.4871e-10
-2.48835e-10
-2.48948e-10
-2.4905e-10
-2.49142e-10
-2.49225e-10
-2.493e-10
-2.49368e-10
-2.49429e-10
-2.49484e-10
-2.49534e-10
-2.49579e-10
-2.49619e-10
-2.49656e-10
-2.49689e-10
-2.49718e-10
-2.49745e-10
-2.4977e-10
-2.49792e-10
-2.49812e-10
-2.4983e-10
-2.49846e-10
-2.49861e-10
-2.49875e-10
-2.49887e-10
-2.49898e-10
-2.49908e-10
-2.49918e-10
-2.49926e-10
-2.49933e-10
-2.4994e-10
-2.49947e-10
-2.49953e-10
-2.49958e-10
-2.49963e-10
-2.49967e-10
-2.49971e-10
-2.49975e-10
-2.49978e-10
-2.49982e-10
-2.49985e-10
)
;

boundaryField
{
    inlet
    {
        type            calculated;
        value           uniform -2.49988e-10;
    }
    outlet
    {
        type            calculated;
        value           uniform 2.49982e-10;
    }
    repeat_boundary
    {
        type            calculated;
        value           uniform 0;
    }
    procBoundary0to1
    {
        type            processor;
        value           nonuniform List<scalar> 
180
(
1.66391e-17
1.90542e-17
2.13583e-17
2.47404e-17
2.93128e-17
3.50062e-17
4.16362e-17
4.90737e-17
5.72803e-17
6.62824e-17
7.61477e-17
8.69642e-17
9.88308e-17
1.11854e-16
1.26146e-16
1.41827e-16
1.59022e-16
1.77866e-16
1.985e-16
2.21093e-16
2.4583e-16
2.7291e-16
3.02564e-16
3.35055e-16
3.70538e-16
4.09373e-16
4.51912e-16
4.98515e-16
5.49523e-16
6.05145e-16
6.65438e-16
7.30324e-16
7.99616e-16
8.73044e-16
9.50273e-16
1.03089e-15
1.11435e-15
1.19994e-15
1.2867e-15
1.37332e-15
1.45783e-15
1.53769e-15
1.61044e-15
1.67222e-15
1.71809e-15
1.74184e-15
1.7356e-15
1.68954e-15
1.59134e-15
1.42564e-15
1.17321e-15
8.1353e-16
3.28606e-16
-3.09021e-16
-1.13119e-15
-2.17432e-15
-3.4792e-15
-5.09018e-15
-7.05305e-15
-9.41059e-15
-1.21937e-14
-1.54049e-14
-1.89889e-14
-2.27672e-14
-2.62959e-14
-3.10221e-14
-3.84363e-14
-4.72504e-14
-5.77242e-14
-7.01784e-14
-8.50342e-14
-1.02895e-13
-1.2473e-13
-1.52181e-13
-1.87917e-13
-2.36013e-13
-3.22316e-13
-4.43336e-13
-6.17252e-13
-8.74801e-13
-5.0125e-13
1.20293e-13
4.12317e-12
8.65703e-13
-3.60441e-12
-9.86142e-12
-8.21779e-13
-4.30796e-12
1.01387e-12
5.32618e-12
3.33762e-12
2.11419e-12
1.85644e-13
-1.62228e-12
-1.27799e-12
-2.93958e-12
-9.16331e-12
-3.63012e-12
-3.66581e-12
-1.83284e-12
-4.14851e-12
-5.10659e-12
-9.98206e-13
6.61093e-14
4.44639e-13
1.78527e-12
2.53759e-12
2.83434e-12
2.84401e-12
2.70092e-12
2.49278e-12
2.2681e-12
2.05011e-12
1.84791e-12
1.6639e-12
1.49771e-12
1.34803e-12
1.21336e-12
1.09223e-12
9.83284e-13
8.85303e-13
7.97176e-13
7.1791e-13
6.46608e-13
5.82465e-13
5.24757e-13
4.72837e-13
4.26117e-13
3.84072e-13
3.46227e-13
3.12156e-13
2.81479e-13
2.53852e-13
2.28968e-13
2.06551e-13
1.86352e-13
1.68149e-13
1.51743e-13
1.36954e-13
1.23621e-13
1.11598e-13
1.00756e-13
9.09771e-14
8.2156e-14
7.41979e-14
6.70178e-14
6.05388e-14
5.4692e-14
4.94153e-14
4.46525e-14
4.03534e-14
3.64726e-14
3.29691e-14
2.9806e-14
2.69503e-14
2.43719e-14
2.20439e-14
1.9942e-14
1.80441e-14
1.63307e-14
1.47837e-14
1.33872e-14
1.21267e-14
1.09892e-14
9.96294e-15
9.03742e-15
8.20314e-15
7.45161e-15
6.77519e-15
6.16702e-15
5.62097e-15
5.13155e-15
4.69387e-15
4.30365e-15
3.95725e-15
3.65184e-15
3.38585e-15
3.16058e-15
2.9848e-15
2.91485e-15
)
;
    }
    procBoundary0to2
    {
        type            processor;
        value           nonuniform List<scalar> 
180
(
-2.93803e-16
-3.58271e-16
-4.7168e-16
-6.15019e-16
-7.78058e-16
-9.55266e-16
-1.14458e-15
-1.34607e-15
-1.56093e-15
-1.79097e-15
-2.03829e-15
-2.30526e-15
-2.59442e-15
-2.90856e-15
-3.25068e-15
-3.62406e-15
-4.03228e-15
-4.47924e-15
-4.96922e-15
-5.50691e-15
-6.09743e-15
-6.74641e-15
-7.46004e-15
-8.24511e-15
-9.10908e-15
-1.00601e-14
-1.11073e-14
-1.22605e-14
-1.35306e-14
-1.49295e-14
-1.64705e-14
-1.81679e-14
-2.00378e-14
-2.20975e-14
-2.43665e-14
-2.68658e-14
-2.96188e-14
-3.26513e-14
-3.59917e-14
-3.96714e-14
-4.37248e-14
-4.819e-14
-5.31088e-14
-5.85277e-14
-6.44979e-14
-7.10758e-14
-7.83238e-14
-8.63111e-14
-9.51141e-14
-1.04817e-13
-1.15515e-13
-1.27311e-13
-1.40321e-13
-1.54674e-13
-1.70512e-13
-1.87994e-13
-2.07296e-13
-2.28614e-13
-2.52166e-13
-2.78196e-13
-3.06972e-13
-3.38796e-13
-3.74001e-13
-4.12959e-13
-4.56081e-13
-5.03818e-13
-5.56692e-13
-6.15317e-13
-6.80422e-13
-7.52772e-13
-8.32598e-13
-9.18961e-13
-1.01223e-12
-1.10947e-12
-1.20284e-12
-1.27588e-12
-1.30296e-12
-1.25624e-12
-1.11161e-12
-8.35365e-13
-4.72227e-14
6.88147e-15
8.96029e-13
-4.84537e-14
-3.39173e-12
-4.17548e-12
-8.66113e-13
-4.24471e-12
4.22316e-13
1.07607e-11
1.55213e-11
1.26254e-11
1.6947e-11
1.89213e-11
2.18897e-12
-9.89182e-13
-1.14365e-11
-8.7007e-12
-9.23087e-12
-5.09856e-12
-5.93846e-12
-1.85277e-12
-2.04676e-13
-2.42467e-14
-8.95364e-13
-5.69398e-13
-2.24291e-13
-1.15247e-13
-7.50312e-14
-5.07571e-14
-3.65685e-14
-2.68762e-14
-1.94017e-14
-1.33586e-14
-8.5026e-15
-4.70982e-15
-1.8397e-15
2.80391e-16
1.8001e-15
2.84926e-15
3.5362e-15
3.94874e-15
4.15672e-15
4.21498e-15
4.16597e-15
4.04215e-15
3.86803e-15
3.66188e-15
3.43712e-15
3.2034e-15
2.96683e-15
2.73049e-15
2.49863e-15
2.27417e-15
2.05891e-15
1.85391e-15
1.67958e-15
1.53238e-15
1.3992e-15
1.27354e-15
1.15167e-15
1.03225e-15
9.1558e-16
8.02916e-16
6.95871e-16
5.96051e-16
5.04848e-16
4.23369e-16
3.52343e-16
2.92666e-16
2.44587e-16
2.06927e-16
1.78283e-16
1.57189e-16
1.42234e-16
1.32096e-16
1.25562e-16
1.21639e-16
1.19506e-16
1.18505e-16
1.18116e-16
1.17948e-16
1.1772e-16
1.17243e-16
1.16316e-16
1.14787e-16
1.12748e-16
1.10225e-16
1.07352e-16
1.04392e-16
1.01589e-16
9.91703e-17
9.73535e-17
9.63417e-17
9.62976e-17
9.72653e-17
9.8976e-17
1.00663e-16
1.00959e-16
1.14628e-16
)
;
    }
}


// ************************************************************************* //
