/*--------------------------------*- C++ -*----------------------------------*\
| =========                 |                                                 |
| \\      /  F ield         | OpenFOAM: The Open Source CFD Toolbox           |
|  \\    /   O peration     | Version:  5.x                                   |
|   \\  /    A nd           | Web:      www.OpenFOAM.org                      |
|    \\/     M anipulation  |                                                 |
\*---------------------------------------------------------------------------*/
FoamFile
{
    version     2.0;
    format      ascii;
    class       volVectorField;
    location    "0.009";
    object      U;
}
// * * * * * * * * * * * * * * * * * * * * * * * * * * * * * * * * * * * * * //

dimensions      [0 1 -1 0 0 0 0];

internalField   nonuniform List<vector> 
180
(
(6.65261e-10 -1.15405e-08 -0.00099993)
(7.02061e-10 -1.40329e-08 -0.000999928)
(7.54271e-10 -1.83596e-08 -0.000999927)
(8.46423e-10 -2.38973e-08 -0.000999925)
(9.84939e-10 -3.02285e-08 -0.000999923)
(1.16574e-09 -3.71268e-08 -0.00099992)
(1.38096e-09 -4.45067e-08 -0.000999916)
(1.62509e-09 -5.2369e-08 -0.000999912)
(1.89649e-09 -6.07606e-08 -0.000999908)
(2.19645e-09 -6.97521e-08 -0.000999902)
(2.52796e-09 -7.94274e-08 -0.000999895)
(2.89498e-09 -8.98797e-08 -0.000999888)
(3.30209e-09 -1.0121e-07 -0.000999879)
(3.75436e-09 -1.1353e-07 -0.000999869)
(4.25732e-09 -1.26958e-07 -0.000999858)
(4.81704e-09 -1.41625e-07 -0.000999845)
(5.44014e-09 -1.57674e-07 -0.000999831)
(6.13385e-09 -1.75261e-07 -0.000999815)
(6.90611e-09 -1.94556e-07 -0.000999797)
(7.76559e-09 -2.15746e-07 -0.000999777)
(8.72182e-09 -2.39036e-07 -0.000999755)
(9.78524e-09 -2.64652e-07 -0.00099973)
(1.09673e-08 -2.9284e-07 -0.000999703)
(1.22806e-08 -3.23872e-07 -0.000999673)
(1.3739e-08 -3.58047e-07 -0.000999639)
(1.53575e-08 -3.95695e-07 -0.000999602)
(1.71527e-08 -4.37175e-07 -0.000999561)
(1.91428e-08 -4.82887e-07 -0.000999516)
(2.13475e-08 -5.33268e-07 -0.000999466)
(2.37886e-08 -5.88799e-07 -0.000999411)
(2.64897e-08 -6.50012e-07 -0.000999351)
(2.9476e-08 -7.1749e-07 -0.000999284)
(3.27749e-08 -7.91876e-07 -0.00099921)
(3.64152e-08 -8.73878e-07 -0.000999129)
(4.04271e-08 -9.64274e-07 -0.00099904)
(4.48421e-08 -1.06392e-06 -0.000998941)
(4.96922e-08 -1.17377e-06 -0.000998832)
(5.50103e-08 -1.29486e-06 -0.000998713)
(6.08287e-08 -1.42833e-06 -0.00099858)
(6.71791e-08 -1.57545e-06 -0.000998434)
(7.40913e-08 -1.73761e-06 -0.000998274)
(8.15914e-08 -1.91634e-06 -0.000998096)
(8.97015e-08 -2.11333e-06 -0.0009979)
(9.84367e-08 -2.33045e-06 -0.000997683)
(1.07802e-07 -2.56975e-06 -0.000997444)
(1.17791e-07 -2.83349e-06 -0.000997181)
(1.2838e-07 -3.12417e-06 -0.000996889)
(1.39523e-07 -3.44453e-06 -0.000996567)
(1.51146e-07 -3.79763e-06 -0.000996212)
(1.63138e-07 -4.1868e-06 -0.000995819)
(1.75344e-07 -4.61576e-06 -0.000995384)
(1.87548e-07 -5.08859e-06 -0.000994903)
(1.99464e-07 -5.60984e-06 -0.000994371)
(2.10718e-07 -6.18451e-06 -0.000993783)
(2.20831e-07 -6.81815e-06 -0.000993131)
(2.29197e-07 -7.51688e-06 -0.000992409)
(2.35056e-07 -8.2875e-06 -0.00099161)
(2.37464e-07 -9.13754e-06 -0.000990723)
(2.3526e-07 -1.00753e-05 -0.00098974)
(2.2703e-07 -1.11102e-05 -0.000988649)
(2.11066e-07 -1.22522e-05 -0.000987439)
(1.8533e-07 -1.3513e-05 -0.000986096)
(1.47427e-07 -1.49051e-05 -0.000984605)
(9.45905e-08 -1.64424e-05 -0.000982952)
(2.37305e-08 -1.81404e-05 -0.00098112)
(-6.84366e-08 -2.0016e-05 -0.00097909)
(-1.86012e-07 -2.20883e-05 -0.000976836)
(-3.34564e-07 -2.43784e-05 -0.000974327)
(-5.20779e-07 -2.69094e-05 -0.000971532)
(-7.52927e-07 -2.97059e-05 -0.000968418)
(-1.04166e-06 -3.27895e-05 -0.00096495)
(-1.4015e-06 -3.61695e-05 -0.000961085)
(-1.85459e-06 -3.98174e-05 -0.000956721)
(-2.4373e-06 -4.36136e-05 -0.000951728)
(-3.2108e-06 -4.72536e-05 -0.000946392)
(-4.27597e-06 -5.00965e-05 -0.000942389)
(-5.7968e-06 -5.12095e-05 -0.000940758)
(-8.10911e-06 -4.94942e-05 -0.000926417)
(-1.20065e-05 -4.40568e-05 -0.000861417)
(-1.8367e-05 -3.35111e-05 -0.000675468)
(-1.62097e-05 -7.39448e-06 -0.00321991)
(1.81143e-05 -1.26647e-05 7.35871e-05)
(0.000151748 2.22153e-05 -0.00396432)
(1.12176e-05 -2.88727e-05 -2.91271e-05)
(-0.000457413 -0.000259623 -0.00307466)
(-0.000546805 -0.000292134 -0.00268772)
(-7.8532e-05 -9.76252e-05 -0.000491162)
(-0.000149499 -0.000185098 -0.00544366)
(-2.38827e-06 -1.69452e-05 -0.000189388)
(0.000362896 0.000372543 -0.00478685)
(0.000269635 0.000544904 -0.00179428)
(0.000119455 0.00106132 -0.00346868)
(-2.57375e-05 0.000205154 -0.000397288)
(-0.000171411 0.00156966 -0.00346391)
(-0.000186362 0.000318646 -0.00311613)
(-0.000147378 -7.40026e-05 -0.00110343)
(-0.000523438 -0.00113262 -0.00401289)
(-0.000112981 -0.000148045 -0.000774005)
(-0.000175569 -0.000418141 -0.00384911)
(-0.000108988 -0.000157844 -0.00176463)
(-0.00023693 -0.000179252 -0.00295842)
(-0.000140223 -5.00986e-05 -0.00239146)
(-2.82801e-05 2.35243e-05 -0.00152146)
(2.27673e-07 1.44177e-05 -0.00177633)
(4.93653e-06 -2.45217e-05 -0.000797479)
(5.60501e-05 -1.60689e-05 -0.000950253)
(8.85738e-05 -1.19578e-06 -0.00086147)
(0.000102889 4.98893e-06 -0.000863586)
(0.000105094 6.62881e-06 -0.000880171)
(0.000100703 6.61112e-06 -0.000893466)
(9.33505e-05 6.07008e-06 -0.000903783)
(8.51132e-05 5.4098e-06 -0.000912963)
(7.70104e-05 4.77027e-06 -0.000921431)
(6.94566e-05 4.19239e-06 -0.000929148)
(6.25709e-05 3.68079e-06 -0.000936115)
(5.63496e-05 3.22964e-06 -0.000942394)
(5.07465e-05 2.83185e-06 -0.000948054)
(4.57049e-05 2.48123e-06 -0.000953157)
(4.11696e-05 2.1725e-06 -0.000957758)
(3.70895e-05 1.901e-06 -0.000961905)
(3.34184e-05 1.66258e-06 -0.000965644)
(3.01148e-05 1.45344e-06 -0.000969013)
(2.71415e-05 1.27019e-06 -0.00097205)
(2.44651e-05 1.10978e-06 -0.000974787)
(2.20555e-05 9.6945e-07 -0.000977255)
(1.9886e-05 8.46781e-07 -0.000979479)
(1.79322e-05 7.39602e-07 -0.000981484)
(1.61726e-05 6.45996e-07 -0.000983292)
(1.45875e-05 5.64274e-07 -0.000984922)
(1.31594e-05 4.92944e-07 -0.000986391)
(1.18726e-05 4.30696e-07 -0.000987717)
(1.07129e-05 3.76379e-07 -0.000988913)
(9.66759e-06 3.28985e-07 -0.000989991)
(8.72522e-06 2.87627e-07 -0.000990964)
(7.87554e-06 2.51532e-07 -0.000991842)
(7.10932e-06 2.20023e-07 -0.000992635)
(6.41826e-06 1.92507e-07 -0.00099335)
(5.79493e-06 1.68476e-07 -0.000993995)
(5.23261e-06 1.47491e-07 -0.000994577)
(4.72528e-06 1.29174e-07 -0.000995103)
(4.26751e-06 1.13196e-07 -0.000995578)
(3.85441e-06 9.92657e-08 -0.000996007)
(3.48158e-06 8.71296e-08 -0.000996394)
(3.14507e-06 7.65621e-08 -0.000996743)
(2.8413e-06 6.73635e-08 -0.000997058)
(2.56708e-06 5.93575e-08 -0.000997343)
(2.31951e-06 5.23879e-08 -0.000997599)
(2.09598e-06 4.6317e-08 -0.000997831)
(1.89415e-06 4.1024e-08 -0.00099804)
(1.7119e-06 3.64029e-08 -0.000998229)
(1.54732e-06 3.23617e-08 -0.000998399)
(1.39869e-06 2.88211e-08 -0.000998553)
(1.26447e-06 2.57128e-08 -0.000998692)
(1.14325e-06 2.29782e-08 -0.000998817)
(1.03378e-06 2.05673e-08 -0.000998931)
(9.34908e-07 1.8437e-08 -0.000999033)
(8.45623e-07 1.65505e-08 -0.000999126)
(7.64995e-07 1.48763e-08 -0.00099921)
(6.92189e-07 1.33875e-08 -0.000999286)
(6.26454e-07 1.20611e-08 -0.000999355)
(5.6711e-07 1.08776e-08 -0.000999417)
(5.13545e-07 9.82044e-09 -0.000999474)
(4.65208e-07 8.87572e-09 -0.000999525)
(4.21602e-07 8.03188e-09 -0.000999572)
(3.82278e-07 7.27939e-09 -0.000999614)
(3.46835e-07 6.61052e-09 -0.000999653)
(3.1491e-07 6.01905e-09 -0.000999688)
(2.86177e-07 5.50013e-09 -0.000999719)
(2.60343e-07 5.05008e-09 -0.000999748)
(2.37146e-07 4.66626e-09 -0.000999775)
(2.1635e-07 4.34699e-09 -0.000999799)
(1.97745e-07 4.09152e-09 -0.000999821)
(1.81145e-07 3.8999e-09 -0.000999841)
(1.66386e-07 3.77268e-09 -0.00099986)
(1.53329e-07 3.70988e-09 -0.000999877)
(1.41872e-07 3.70773e-09 -0.000999892)
(1.31966e-07 3.75127e-09 -0.000999907)
(1.23694e-07 3.80751e-09 -0.000999921)
(1.17413e-07 3.83201e-09 -0.000999934)
(1.14053e-07 3.90035e-09 -0.000999945)
)
;

boundaryField
{
    inlet
    {
        type            zeroGradient;
    }
    outlet
    {
        type            zeroGradient;
    }
    repeat_boundary
    {
        type            slip;
    }
    procBoundary0to1
    {
        type            processor;
        value           nonuniform List<vector> 
180
(
(6.65258e-10 -1.16205e-08 -0.000999926)
(7.02058e-10 -1.41386e-08 -0.000999924)
(7.54267e-10 -1.85028e-08 -0.000999922)
(8.46419e-10 -2.40936e-08 -0.000999921)
(9.84936e-10 -3.04846e-08 -0.000999918)
(1.16574e-09 -3.74503e-08 -0.000999915)
(1.38096e-09 -4.49077e-08 -0.000999911)
(1.62508e-09 -5.28596e-08 -0.000999907)
(1.89649e-09 -6.13553e-08 -0.000999901)
(2.19645e-09 -7.04676e-08 -0.000999895)
(2.52796e-09 -8.02828e-08 -0.000999888)
(2.89498e-09 -9.08965e-08 -0.000999879)
(3.30209e-09 -1.02413e-07 -0.00099987)
(3.75435e-09 -1.14945e-07 -0.000999859)
(4.25732e-09 -1.28617e-07 -0.000999846)
(4.81703e-09 -1.43561e-07 -0.000999833)
(5.44013e-09 -1.59925e-07 -0.000999817)
(6.13384e-09 -1.77869e-07 -0.000999799)
(6.90609e-09 -1.97569e-07 -0.00099978)
(7.76557e-09 -2.19216e-07 -0.000999758)
(8.72179e-09 -2.43022e-07 -0.000999733)
(9.78521e-09 -2.69219e-07 -0.000999706)
(1.09673e-08 -2.98062e-07 -0.000999676)
(1.22806e-08 -3.29832e-07 -0.000999643)
(1.37389e-08 -3.64837e-07 -0.000999606)
(1.53574e-08 -4.03418e-07 -0.000999565)
(1.71526e-08 -4.45949e-07 -0.00099952)
(1.91427e-08 -4.9284e-07 -0.000999471)
(2.13474e-08 -5.44546e-07 -0.000999416)
(2.37885e-08 -6.01566e-07 -0.000999355)
(2.64894e-08 -6.6445e-07 -0.000999289)
(2.94758e-08 -7.33803e-07 -0.000999216)
(3.27746e-08 -8.10293e-07 -0.000999135)
(3.64148e-08 -8.94652e-07 -0.000999046)
(4.04266e-08 -9.87689e-07 -0.000998948)
(4.48414e-08 -1.09029e-06 -0.00099884)
(4.96915e-08 -1.20344e-06 -0.000998722)
(5.50093e-08 -1.32821e-06 -0.000998591)
(6.08275e-08 -1.46578e-06 -0.000998447)
(6.71777e-08 -1.61744e-06 -0.000998289)
(7.40895e-08 -1.78464e-06 -0.000998115)
(8.15892e-08 -1.96893e-06 -0.000997924)
(8.96987e-08 -2.17204e-06 -0.000997714)
(9.84333e-08 -2.39586e-06 -0.000997483)
(1.07798e-07 -2.64246e-06 -0.000997229)
(1.17786e-07 -2.91411e-06 -0.00099695)
(1.28374e-07 -3.21331e-06 -0.000996644)
(1.39515e-07 -3.54277e-06 -0.000996308)
(1.51135e-07 -3.9055e-06 -0.00099594)
(1.63125e-07 -4.30475e-06 -0.000995537)
(1.75328e-07 -4.7441e-06 -0.000995096)
(1.87528e-07 -5.22743e-06 -0.000994612)
(1.99439e-07 -5.75899e-06 -0.000994084)
(2.10686e-07 -6.3434e-06 -0.000993506)
(2.20791e-07 -6.9857e-06 -0.000992876)
(2.29146e-07 -7.69137e-06 -0.000992188)
(2.34992e-07 -8.46636e-06 -0.000991438)
(2.37383e-07 -9.31713e-06 -0.00099062)
(2.35158e-07 -1.02507e-05 -0.000989731)
(2.269e-07 -1.12746e-05 -0.000988763)
(2.109e-07 -1.23972e-05 -0.000987712)
(1.85119e-07 -1.36272e-05 -0.00098657)
(1.47157e-07 -1.49744e-05 -0.00098533)
(9.42444e-08 -1.64491e-05 -0.000983982)
(2.3284e-08 -1.80627e-05 -0.000982518)
(-6.90212e-08 -1.98276e-05 -0.000980925)
(-1.86809e-07 -2.1757e-05 -0.000979201)
(-3.35759e-07 -2.38646e-05 -0.000977337)
(-5.22924e-07 -2.61646e-05 -0.000975326)
(-7.57706e-07 -2.867e-05 -0.000973158)
(-1.05406e-06 -3.13882e-05 -0.000970828)
(-1.43532e-06 -3.43089e-05 -0.000968324)
(-1.94473e-06 -3.73728e-05 -0.000965588)
(-2.66293e-06 -4.04032e-05 -0.000962521)
(-3.72977e-06 -4.2977e-05 -0.00095939)
(-5.34353e-06 -4.4227e-05 -0.000957843)
(-7.77642e-06 -4.27396e-05 -0.000959699)
(-1.13601e-05 -3.63928e-05 -0.000953266)
(-1.66195e-05 -2.26841e-05 -0.000903675)
(-2.35624e-05 -1.76869e-06 -0.00069295)
(-1.71347e-05 3.00638e-05 -0.00284845)
(4.1279e-05 -6.30301e-06 1.87808e-05)
(0.000167352 -0.000255789 -0.00292163)
(8.94882e-05 -8.83422e-05 -0.00350062)
(5.98264e-06 3.33624e-05 -0.00068168)
(-0.000561384 0.000272572 -0.00482631)
(-1.88325e-05 2.32324e-05 -0.000272371)
(-0.000352127 0.000240032 -0.0035604)
(0.000110763 -0.000167324 -0.00174826)
(0.000429555 -0.000195911 -0.00392427)
(0.000114941 -3.66118e-05 -0.00148707)
(7.86022e-05 -1.29638e-05 -0.00419799)
(2.1658e-05 2.56448e-05 -0.00137363)
(-0.000102177 0.000449843 -0.00388314)
(-3.07911e-05 1.78315e-05 -6.7378e-05)
(-0.000221059 0.000358461 -0.00378928)
(-0.000304339 0.000371256 -0.00250929)
(-0.000307028 0.000349578 -0.00214867)
(-0.000251235 0.00037749 -0.00379631)
(-0.000123256 -4.44242e-05 -0.00186112)
(-0.000273322 -6.59425e-05 -0.00297885)
(-0.000403793 -0.00010701 -0.00263475)
(-0.000101106 -8.03173e-05 -0.0018506)
(4.30412e-06 -5.78651e-05 -0.00177164)
(2.99273e-05 -3.87152e-05 -0.00141831)
(7.18421e-05 -2.61754e-05 -0.00127113)
(9.73793e-05 -2.07124e-05 -0.00116589)
(0.000107432 -1.8949e-05 -0.00114328)
(0.000107249 -1.78373e-05 -0.00113568)
(0.000101559 -1.64723e-05 -0.0011245)
(9.35841e-05 -1.48644e-05 -0.00111183)
(8.50957e-05 -1.31808e-05 -0.0011001)
(7.69146e-05 -1.15551e-05 -0.0010897)
(6.93504e-05 -1.00625e-05 -0.00108045)
(6.24761e-05 -8.73163e-06 -0.00107216)
(5.62705e-05 -7.56279e-06 -0.00106473)
(5.0682e-05 -6.54353e-06 -0.00105808)
(4.56527e-05 -5.65746e-06 -0.00105212)
(4.11275e-05 -4.88828e-06 -0.00104679)
(3.70555e-05 -4.22114e-06 -0.00104201)
(3.3391e-05 -3.64283e-06 -0.00103773)
(3.00927e-05 -3.14181e-06 -0.00103389)
(2.71237e-05 -2.70801e-06 -0.00103044)
(2.44507e-05 -2.33265e-06 -0.00102736)
(2.20439e-05 -2.00809e-06 -0.00102459)
(1.98765e-05 -1.72773e-06 -0.0010221)
(1.79246e-05 -1.4858e-06 -0.00101987)
(1.61664e-05 -1.27725e-06 -0.00101786)
(1.45825e-05 -1.09755e-06 -0.00101607)
(1.31554e-05 -9.42774e-07 -0.00101445)
(1.18693e-05 -8.09516e-07 -0.001013)
(1.07103e-05 -6.94826e-07 -0.0010117)
(9.66544e-06 -5.96153e-07 -0.00101053)
(8.72347e-06 -5.11289e-07 -0.00100949)
(7.87412e-06 -4.38329e-07 -0.00100854)
(7.10817e-06 -3.75625e-07 -0.00100769)
(6.41733e-06 -3.21756e-07 -0.00100693)
(5.79417e-06 -2.75499e-07 -0.00100625)
(5.232e-06 -2.35797e-07 -0.00100563)
(4.72479e-06 -2.01735e-07 -0.00100507)
(4.26711e-06 -1.72504e-07 -0.00100458)
(3.85408e-06 -1.47414e-07 -0.00100413)
(3.48132e-06 -1.25877e-07 -0.00100372)
(3.14485e-06 -1.0739e-07 -0.00100336)
(2.84113e-06 -9.15249e-08 -0.00100303)
(2.56694e-06 -7.7913e-08 -0.00100273)
(2.3194e-06 -6.62403e-08 -0.00100246)
(2.09589e-06 -5.6237e-08 -0.00100222)
(1.89408e-06 -4.76717e-08 -0.00100201)
(1.71184e-06 -4.03452e-08 -0.00100181)
(1.54727e-06 -3.40862e-08 -0.00100163)
(1.39865e-06 -2.87463e-08 -0.00100147)
(1.26444e-06 -2.41975e-08 -0.00100133)
(1.14322e-06 -2.03287e-08 -0.0010012)
(1.03375e-06 -1.70433e-08 -0.00100108)
(9.3489e-07 -1.42573e-08 -0.00100097)
(8.45608e-07 -1.18974e-08 -0.00100088)
(7.64983e-07 -9.89968e-09 -0.00100079)
(6.9218e-07 -8.2083e-09 -0.00100071)
(6.26446e-07 -6.7746e-09 -0.00100064)
(5.67103e-07 -5.5562e-09 -0.00100058)
(5.1354e-07 -4.51637e-09 -0.00100052)
(4.65204e-07 -3.62337e-09 -0.00100047)
(4.21598e-07 -2.8499e-09 -0.00100043)
(3.82276e-07 -2.17256e-09 -0.00100038)
(3.46833e-07 -1.57147e-09 -0.00100035)
(3.14908e-07 -1.02989e-09 -0.00100031)
(2.86176e-07 -5.33813e-10 -0.00100028)
(2.60342e-07 -7.16371e-11 -0.00100025)
(2.37145e-07 3.66219e-10 -0.00100023)
(2.16349e-07 7.87537e-10 -0.0010002)
(1.97745e-07 1.19841e-09 -0.00100018)
(1.81145e-07 1.60307e-09 -0.00100016)
(1.66385e-07 2.00308e-09 -0.00100015)
(1.53329e-07 2.39598e-09 -0.00100013)
(1.41872e-07 2.77343e-09 -0.00100011)
(1.31966e-07 3.121e-09 -0.0010001)
(1.23693e-07 3.41796e-09 -0.00100009)
(1.17412e-07 3.63904e-09 -0.00100007)
(1.14053e-07 3.67262e-09 -0.00100006)
)
;
    }
    procBoundary0to2
    {
        type            processor;
        value           nonuniform List<vector> 
180
(
(5.85249e-10 -1.15406e-08 -0.00100006)
(5.96372e-10 -1.40329e-08 -0.00100006)
(6.1101e-10 -1.83597e-08 -0.00100006)
(6.501e-10 -2.38974e-08 -0.00100006)
(7.28817e-10 -3.02286e-08 -0.00100007)
(8.42154e-10 -3.71269e-08 -0.00100007)
(9.79947e-10 -4.45068e-08 -0.00100008)
(1.13446e-09 -5.23692e-08 -0.00100008)
(1.3018e-09 -6.07608e-08 -0.00100009)
(1.48096e-09 -6.97523e-08 -0.0010001)
(1.67259e-09 -7.94277e-08 -0.0010001)
(1.87815e-09 -8.98799e-08 -0.00100011)
(2.09953e-09 -1.01211e-07 -0.00100012)
(2.33888e-09 -1.1353e-07 -0.00100014)
(2.59854e-09 -1.26958e-07 -0.00100015)
(2.88105e-09 -1.41626e-07 -0.00100016)
(3.18909e-09 -1.57675e-07 -0.00100018)
(3.52554e-09 -1.75262e-07 -0.0010002)
(3.89342e-09 -1.94557e-07 -0.00100022)
(4.29593e-09 -2.15747e-07 -0.00100024)
(4.73638e-09 -2.39038e-07 -0.00100026)
(5.21825e-09 -2.64654e-07 -0.00100029)
(5.74515e-09 -2.92842e-07 -0.00100032)
(6.32078e-09 -3.23875e-07 -0.00100035)
(6.94901e-09 -3.58051e-07 -0.00100038)
(7.63379e-09 -3.95699e-07 -0.00100042)
(8.37923e-09 -4.3718e-07 -0.00100047)
(9.18954e-09 -4.82893e-07 -0.00100051)
(1.0069e-08 -5.33275e-07 -0.00100057)
(1.10217e-08 -5.88808e-07 -0.00100062)
(1.20518e-08 -6.50023e-07 -0.00100069)
(1.31629e-08 -7.17504e-07 -0.00100076)
(1.43583e-08 -7.91893e-07 -0.00100083)
(1.56404e-08 -8.73898e-07 -0.00100092)
(1.70112e-08 -9.64299e-07 -0.00100101)
(1.84713e-08 -1.06395e-06 -0.00100112)
(2.00204e-08 -1.17381e-06 -0.00100123)
(2.16571e-08 -1.2949e-06 -0.00100136)
(2.33781e-08 -1.42838e-06 -0.0010015)
(2.51788e-08 -1.57551e-06 -0.00100165)
(2.70527e-08 -1.73769e-06 -0.00100182)
(2.89916e-08 -1.91644e-06 -0.001002)
(3.09852e-08 -2.11346e-06 -0.00100221)
(3.30213e-08 -2.3306e-06 -0.00100243)
(3.50855e-08 -2.56994e-06 -0.00100268)
(3.71608e-08 -2.83372e-06 -0.00100295)
(3.9228e-08 -3.12444e-06 -0.00100325)
(4.12653e-08 -3.44487e-06 -0.00100358)
(4.32491e-08 -3.79804e-06 -0.00100394)
(4.51549e-08 -4.1873e-06 -0.00100434)
(4.69633e-08 -4.61636e-06 -0.00100477)
(4.86659e-08 -5.08934e-06 -0.00100525)
(5.02608e-08 -5.61075e-06 -0.00100578)
(5.17573e-08 -6.18562e-06 -0.00100637)
(5.31816e-08 -6.81949e-06 -0.00100701)
(5.45829e-08 -7.51852e-06 -0.00100771)
(5.60388e-08 -8.2895e-06 -0.00100849)
(5.76671e-08 -9.13998e-06 -0.00100935)
(5.96396e-08 -1.00783e-05 -0.00101029)
(6.22008e-08 -1.11138e-05 -0.00101133)
(6.56868e-08 -1.22567e-05 -0.00101247)
(7.05488e-08 -1.35184e-05 -0.00101373)
(7.73784e-08 -1.49116e-05 -0.00101512)
(8.69496e-08 -1.64503e-05 -0.00101666)
(1.00251e-07 -1.81501e-05 -0.00101835)
(1.18529e-07 -2.00279e-05 -0.00102022)
(1.43351e-07 -2.21027e-05 -0.00102229)
(1.76537e-07 -2.4396e-05 -0.00102457)
(2.20116e-07 -2.69313e-05 -0.00102709)
(2.75961e-07 -2.97334e-05 -0.00102989)
(3.44594e-07 -3.28256e-05 -0.001033)
(4.22399e-07 -3.62198e-05 -0.00103645)
(4.98378e-07 -3.9893e-05 -0.00104022)
(5.53459e-07 -4.37353e-05 -0.00104419)
(5.74345e-07 -4.74541e-05 -0.0010486)
(6.05054e-07 -5.04478e-05 -0.00105523)
(8.7933e-07 -5.17304e-05 -0.00106627)
(2.01445e-06 -5.02203e-05 -0.00106755)
(4.77426e-06 -4.46592e-05 -0.00101172)
(6.67323e-06 -3.30711e-05 -0.000751067)
(9.02907e-06 8.72997e-07 -0.00362405)
(5.94601e-06 1.79717e-05 8.36973e-05)
(-0.000141165 3.57944e-05 -0.0043093)
(-3.57742e-07 1.28079e-05 -0.000323259)
(6.76667e-05 -0.000133561 -0.00388813)
(-2.0155e-06 -0.000211057 -0.00441558)
(2.55254e-05 -4.88383e-05 -0.000398558)
(0.000296026 -0.000405612 -0.00490833)
(-0.000102026 5.69844e-05 -0.00110567)
(-0.000400629 0.00091611 -0.0028711)
(-0.000502772 0.00113191 -0.00307305)
(-0.00024369 0.000327418 -0.000578013)
(-0.00120482 0.00161554 -0.00298715)
(-0.000237486 0.000359193 -0.00204015)
(5.55276e-05 4.0371e-05 0.000215075)
(0.00016329 -5.86399e-05 -0.00436926)
(0.000166842 -9.28445e-05 -0.000658086)
(0.000846759 -0.000767228 -0.00261202)
(0.000695508 -0.000570502 -0.0017403)
(4.38885e-07 -0.000351013 -0.00127347)
(-0.000272045 -0.000429288 -0.00229273)
(-0.000159237 -0.000169434 -0.00172955)
(-6.6075e-05 -2.28205e-05 -0.00172174)
(-1.82704e-05 1.27276e-06 -0.00149017)
(1.62001e-05 -1.52735e-05 -0.00114859)
(6.14225e-05 -5.16705e-06 -0.000985589)
(7.89865e-05 3.91482e-06 -0.000863117)
(8.49106e-05 7.34295e-06 -0.000877324)
(8.38609e-05 7.74701e-06 -0.000899438)
(7.91766e-05 7.12325e-06 -0.000911525)
(7.30686e-05 6.28602e-06 -0.000919603)
(6.67493e-05 5.49162e-06 -0.000926981)
(6.07377e-05 4.79727e-06 -0.000933941)
(5.51941e-05 4.19935e-06 -0.000940281)
(5.01354e-05 3.68132e-06 -0.00094598)
(4.55337e-05 3.22849e-06 -0.000951108)
(4.13511e-05 2.83049e-06 -0.000955735)
(3.75501e-05 2.48004e-06 -0.000959915)
(3.40961e-05 2.17153e-06 -0.000963694)
(3.09574e-05 1.90024e-06 -0.000967111)
(2.81052e-05 1.66197e-06 -0.000970202)
(2.55135e-05 1.45297e-06 -0.000973001)
(2.31586e-05 1.26982e-06 -0.000975535)
(2.1019e-05 1.10947e-06 -0.00097783)
(1.90751e-05 9.6921e-07 -0.000979909)
(1.73092e-05 8.46589e-07 -0.000981793)
(1.5705e-05 7.39449e-07 -0.000983501)
(1.42479e-05 6.45874e-07 -0.000985048)
(1.29246e-05 5.64176e-07 -0.000986451)
(1.17229e-05 4.92865e-07 -0.000987723)
(1.06318e-05 4.30632e-07 -0.000988876)
(9.64121e-06 3.76328e-07 -0.000989921)
(8.74206e-06 3.28943e-07 -0.000990868)
(7.926e-06 2.87594e-07 -0.000991728)
(7.18543e-06 2.51505e-07 -0.000992507)
(6.51348e-06 2.20001e-07 -0.000993213)
(5.90385e-06 1.9249e-07 -0.000993853)
(5.35084e-06 1.68461e-07 -0.000994433)
(4.84923e-06 1.47479e-07 -0.000994959)
(4.39431e-06 1.29165e-07 -0.000995435)
(3.98176e-06 1.13188e-07 -0.000995866)
(3.60769e-06 9.92594e-08 -0.000996257)
(3.26854e-06 8.71246e-08 -0.000996611)
(2.96109e-06 7.65579e-08 -0.000996931)
(2.6824e-06 6.73602e-08 -0.000997221)
(2.4298e-06 5.93548e-08 -0.000997484)
(2.20087e-06 5.23857e-08 -0.000997722)
(1.99342e-06 4.63152e-08 -0.000997937)
(1.80545e-06 4.10226e-08 -0.000998132)
(1.63515e-06 3.64017e-08 -0.000998309)
(1.48087e-06 3.23608e-08 -0.000998469)
(1.34112e-06 2.88203e-08 -0.000998614)
(1.21456e-06 2.57121e-08 -0.000998745)
(1.09994e-06 2.29777e-08 -0.000998864)
(9.96163e-07 2.05669e-08 -0.000998972)
(9.02212e-07 1.84367e-08 -0.000999069)
(8.17174e-07 1.65502e-08 -0.000999158)
(7.40218e-07 1.48761e-08 -0.000999238)
(6.70593e-07 1.33873e-08 -0.000999311)
(6.07617e-07 1.2061e-08 -0.000999377)
(5.50675e-07 1.08775e-08 -0.000999437)
(4.99208e-07 9.82034e-09 -0.000999491)
(4.52708e-07 8.87564e-09 -0.000999541)
(4.1072e-07 8.03182e-09 -0.000999586)
(3.72826e-07 7.27934e-09 -0.000999626)
(3.38653e-07 6.61048e-09 -0.000999663)
(3.07861e-07 6.01902e-09 -0.000999697)
(2.80143e-07 5.5001e-09 -0.000999728)
(2.55221e-07 5.05006e-09 -0.000999756)
(2.32846e-07 4.66624e-09 -0.000999781)
(2.1279e-07 4.34698e-09 -0.000999804)
(1.94852e-07 4.09151e-09 -0.000999825)
(1.78848e-07 3.89989e-09 -0.000999844)
(1.64616e-07 3.77268e-09 -0.000999861)
(1.52015e-07 3.70987e-09 -0.000999877)
(1.40938e-07 3.70773e-09 -0.000999891)
(1.31336e-07 3.75127e-09 -0.000999904)
(1.23304e-07 3.80751e-09 -0.000999917)
(1.1722e-07 3.83201e-09 -0.000999929)
(1.13825e-07 3.90035e-09 -0.000999939)
)
;
    }
}


// ************************************************************************* //
