/*--------------------------------*- C++ -*----------------------------------*\
| =========                 |                                                 |
| \\      /  F ield         | OpenFOAM: The Open Source CFD Toolbox           |
|  \\    /   O peration     | Version:  5.x                                   |
|   \\  /    A nd           | Web:      www.OpenFOAM.org                      |
|    \\/     M anipulation  |                                                 |
\*---------------------------------------------------------------------------*/
FoamFile
{
    version     2.0;
    format      ascii;
    class       volVectorField;
    location    "600";
    object      U;
}
// * * * * * * * * * * * * * * * * * * * * * * * * * * * * * * * * * * * * * //

dimensions      [0 1 -1 0 0 0 0];

internalField   nonuniform List<vector> 
90
(
(0.0917411 -0.0686943 -5.34996)
(0.0964961 -0.0716115 -5.34349)
(0.100836 -0.0731902 -5.34257)
(0.104986 -0.0747044 -5.33803)
(0.109246 -0.0758576 -5.33384)
(0.113371 -0.0767564 -5.32838)
(0.117607 -0.0774156 -5.32231)
(0.12184 -0.077815 -5.31521)
(0.126195 -0.0779689 -5.30715)
(0.130631 -0.0778654 -5.29799)
(0.135202 -0.0774934 -5.28765)
(0.139896 -0.0768374 -5.27603)
(0.144733 -0.0758776 -5.26304)
(0.149705 -0.0745923 -5.24859)
(0.154812 -0.0729595 -5.23259)
(0.160044 -0.0709577 -5.21495)
(0.165386 -0.0685683 -5.1956)
(0.17082 -0.0657765 -5.17446)
(0.176324 -0.0625727 -5.15149)
(0.181872 -0.0589543 -5.12664)
(0.187437 -0.0549265 -5.09987)
(0.192989 -0.0505032 -5.0712)
(0.198495 -0.0457084 -5.04062)
(0.203924 -0.040576 -5.00818)
(0.209242 -0.0351503 -4.97392)
(0.214418 -0.029486 -4.93793)
(0.219417 -0.0236482 -4.90031)
(0.224207 -0.01771 -4.86116)
(0.228756 -0.0117519 -4.82065)
(0.233034 -0.00586328 -4.77897)
(0.237006 -0.00014633 -4.73629)
(0.240638 0.00529189 -4.69273)
(0.243931 0.0103721 -4.64863)
(0.246909 0.0150729 -4.60425)
(0.2496 0.0194088 -4.55978)
(0.252028 0.0234054 -4.51545)
(0.254212 0.0270893 -4.47144)
(0.256168 0.0304838 -4.42791)
(0.257906 0.0336076 -4.38502)
(0.259434 0.0364744 -4.3429)
(0.260757 0.0390938 -4.30168)
(0.261879 0.0414719 -4.26146)
(0.262808 0.0436126 -4.22232)
(0.263547 0.0455179 -4.18437)
(0.264105 0.0471897 -4.14766)
(0.26449 0.0486302 -4.11227)
(0.264716 0.0498436 -4.07825)
(0.2648 0.0508376 -4.04564)
(0.264762 0.0516231 -4.01448)
(0.264625 0.052214 -3.9848)
(0.264413 0.0526276 -3.95662)
(0.26415 0.0528842 -3.92993)
(0.263865 0.0530074 -3.90472)
(0.263584 0.0530232 -3.88099)
(0.263335 0.0529599 -3.85871)
(0.263147 0.0528472 -3.83784)
(0.263047 0.0527155 -3.81834)
(0.263061 0.0525954 -3.80017)
(0.263214 0.0525168 -3.78325)
(0.26353 0.0525087 -3.76755)
(0.264029 0.0525984 -3.753)
(0.264731 0.0528119 -3.73954)
(0.265655 0.0531737 -3.7271)
(0.266818 0.0537071 -3.71563)
(0.268234 0.054434 -3.70507)
(0.269919 0.055377 -3.69534)
(0.271899 0.0565631 -3.68632)
(0.274222 0.0580291 -3.67796)
(0.276921 0.0598037 -3.67055)
(0.280016 0.0619174 -3.66337)
(0.283389 0.0643186 -3.65669)
(0.287007 0.0669989 -3.65032)
(0.290819 0.0699453 -3.64427)
(0.294804 0.0731565 -3.63849)
(0.298938 0.0766348 -3.63295)
(0.303206 0.0803876 -3.62763)
(0.307592 0.0844263 -3.6225)
(0.312081 0.0887655 -3.61757)
(0.316656 0.093423 -3.6128)
(0.321298 0.0984198 -3.6082)
(0.325979 0.10378 -3.60375)
(0.33066 0.10953 -3.59947)
(0.335278 0.1157 -3.59536)
(0.339761 0.12232 -3.59137)
(0.344054 0.129403 -3.58741)
(0.34818 0.136857 -3.58359)
(0.351683 0.144985 -3.58054)
(0.353534 0.15394 -3.5795)
(0.353637 0.16347 -3.57851)
(0.354878 0.169246 -3.5696)
)
;

boundaryField
{
    inlet
    {
        type            zeroGradient;
    }
    outlet
    {
        type            zeroGradient;
    }
    repeat_boundary
    {
        type            slip;
    }
    procBoundary3to1
    {
        type            processor;
        value           nonuniform List<vector> 
90
(
(0.0477883 -0.108901 -4.48425)
(0.0497357 -0.113492 -4.44778)
(0.0527982 -0.113503 -4.42146)
(0.0556283 -0.114592 -4.39046)
(0.0585439 -0.114614 -4.36068)
(0.0615183 -0.114362 -4.3293)
(0.0645745 -0.113577 -4.29765)
(0.0677329 -0.11237 -4.2652)
(0.0710076 -0.11071 -4.23226)
(0.0744052 -0.108621 -4.19876)
(0.0779311 -0.106099 -4.16479)
(0.0815839 -0.103149 -4.13039)
(0.08536 -0.0997736 -4.09561)
(0.0892515 -0.0959753 -4.0605)
(0.093248 -0.0917584 -4.02513)
(0.0973363 -0.0871291 -3.98955)
(0.101502 -0.082097 -3.95385)
(0.105728 -0.0766758 -3.91811)
(0.109998 -0.0708841 -3.8824)
(0.114294 -0.0647458 -3.84682)
(0.118599 -0.0582913 -3.81145)
(0.122897 -0.0515574 -3.7764)
(0.127171 -0.0445881 -3.74175)
(0.131409 -0.0374345 -3.7076)
(0.135599 -0.030155 -3.67404)
(0.139729 -0.022815 -3.64115)
(0.143794 -0.0154875 -3.60899)
(0.14779 -0.00825087 -3.57764)
(0.151714 -0.00118832 -3.54712)
(0.155572 0.00560897 -3.51746)
(0.159376 0.0120391 -3.48864)
(0.163144 0.0179972 -3.46081)
(0.166849 0.023424 -3.43376)
(0.170446 0.0283233 -3.40744)
(0.173895 0.0327247 -3.38182)
(0.177165 0.0366583 -3.35686)
(0.180231 0.0401503 -3.33254)
(0.183078 0.043223 -3.30882)
(0.185698 0.0458946 -3.2857)
(0.188087 0.0481808 -3.26316)
(0.19025 0.0500953 -3.24118)
(0.192193 0.0516503 -3.21974)
(0.193929 0.0528569 -3.19882)
(0.195471 0.0537253 -3.17841)
(0.196837 0.0542654 -3.15847)
(0.198045 0.0544875 -3.13897)
(0.199114 0.0544036 -3.11987)
(0.200065 0.0540274 -3.10114)
(0.200915 0.0533736 -3.08273)
(0.201685 0.0524584 -3.0646)
(0.20239 0.0512992 -3.04669)
(0.203046 0.0499149 -3.02896)
(0.203668 0.0483256 -3.01136)
(0.204267 0.046552 -2.99385)
(0.204855 0.0446158 -2.97639)
(0.205441 0.0425386 -2.95893)
(0.206032 0.0403417 -2.94146)
(0.206634 0.0380456 -2.92393)
(0.207252 0.0356699 -2.90632)
(0.207891 0.0332328 -2.88861)
(0.208552 0.0307509 -2.8708)
(0.209238 0.02824 -2.85287)
(0.209951 0.025715 -2.83482)
(0.210691 0.0231902 -2.81664)
(0.211458 0.0206796 -2.79834)
(0.212252 0.0181987 -2.77992)
(0.213071 0.0157702 -2.7614)
(0.213913 0.01343 -2.74278)
(0.214774 0.0112083 -2.72411)
(0.215645 0.0090709 -2.70541)
(0.216514 0.0069582 -2.68671)
(0.217369 0.00483475 -2.66805)
(0.218199 0.00266579 -2.64944)
(0.218991 0.00042505 -2.63091)
(0.219735 -0.00191049 -2.61246)
(0.220419 -0.00436061 -2.5941)
(0.221035 -0.00694309 -2.57587)
(0.221573 -0.00967434 -2.55776)
(0.222029 -0.0125703 -2.53979)
(0.222395 -0.0156464 -2.52198)
(0.222669 -0.0189183 -2.50436)
(0.22285 -0.0224028 -2.48695)
(0.222942 -0.0261154 -2.46975)
(0.222949 -0.0300796 -2.4526)
(0.22289 -0.034345 -2.43554)
(0.222991 -0.0391861 -2.41905)
(0.222956 -0.0442585 -2.40421)
(0.222937 -0.0495092 -2.39166)
(0.222909 -0.0550887 -2.37442)
(0.222564 -0.0596436 -2.3458)
)
;
    }
    procBoundary3to2
    {
        type            processor;
        value           nonuniform List<vector> 
90
(
(0.113537 -0.0284954 -5.99535)
(0.119258 -0.0290416 -6.02858)
(0.123507 -0.0294267 -6.07471)
(0.128285 -0.0295218 -6.11058)
(0.132857 -0.0295907 -6.15292)
(0.137469 -0.0294598 -6.19323)
(0.142155 -0.0293873 -6.23635)
(0.146891 -0.0293058 -6.27952)
(0.151761 -0.0293572 -6.32425)
(0.156724 -0.0295397 -6.36965)
(0.161813 -0.0299323 -6.41621)
(0.166992 -0.0305557 -6.46367)
(0.172243 -0.0314565 -6.51217)
(0.177518 -0.0326566 -6.56164)
(0.182763 -0.0341832 -6.61214)
(0.187902 -0.0360513 -6.66366)
(0.192852 -0.0382738 -6.7162)
(0.197514 -0.0408565 -6.76976)
(0.201779 -0.0438017 -6.82432)
(0.205531 -0.0471069 -6.87986)
(0.208651 -0.0507667 -6.93634)
(0.211019 -0.0547724 -6.99371)
(0.212517 -0.0591135 -7.05192)
(0.213038 -0.0637776 -7.1109)
(0.212481 -0.0687509 -7.17056)
(0.210764 -0.0740182 -7.23082)
(0.207818 -0.0795625 -7.29157)
(0.203592 -0.085365 -7.35271)
(0.198057 -0.0914045 -7.41414)
(0.191205 -0.0976574 -7.47573)
(0.183041 -0.104096 -7.53737)
(0.17359 -0.110687 -7.59895)
(0.162901 -0.117389 -7.66035)
(0.151058 -0.124157 -7.72144)
(0.138171 -0.130935 -7.78211)
(0.124365 -0.137664 -7.84228)
(0.109772 -0.144284 -7.90183)
(0.0945257 -0.150735 -7.96069)
(0.0787579 -0.156961 -8.01878)
(0.062594 -0.16291 -8.07601)
(0.0461512 -0.168541 -8.13233)
(0.0295378 -0.173821 -8.18767)
(0.0128525 -0.178728 -8.24196)
(-0.00381529 -0.183254 -8.29516)
(-0.0203846 -0.1874 -8.34722)
(-0.0367808 -0.191182 -8.39811)
(-0.0529334 -0.194621 -8.44779)
(-0.0687764 -0.197753 -8.49624)
(-0.0842487 -0.200617 -8.54346)
(-0.0992948 -0.203258 -8.58945)
(-0.113865 -0.205721 -8.63423)
(-0.127919 -0.208055 -8.67784)
(-0.141421 -0.210303 -8.72031)
(-0.154349 -0.212508 -8.76169)
(-0.166691 -0.214709 -8.80206)
(-0.178444 -0.216937 -8.84147)
(-0.189622 -0.21922 -8.88002)
(-0.200246 -0.221577 -8.91777)
(-0.210349 -0.224023 -8.9548)
(-0.219974 -0.226566 -8.99121)
(-0.229166 -0.229207 -9.02706)
(-0.237976 -0.231942 -9.06244)
(-0.246456 -0.234767 -9.09742)
(-0.254654 -0.237671 -9.13205)
(-0.262616 -0.240644 -9.1664)
(-0.270381 -0.243676 -9.20053)
(-0.277978 -0.246757 -9.23452)
(-0.285423 -0.249889 -9.26841)
(-0.292736 -0.253066 -9.30206)
(-0.300038 -0.256284 -9.33593)
(-0.307334 -0.25951 -9.36974)
(-0.314671 -0.262748 -9.40373)
(-0.322066 -0.265981 -9.43777)
(-0.329536 -0.269213 -9.47197)
(-0.337097 -0.272436 -9.50627)
(-0.344759 -0.27565 -9.54069)
(-0.352535 -0.278849 -9.57522)
(-0.360435 -0.28203 -9.60985)
(-0.36847 -0.285184 -9.64456)
(-0.376653 -0.288303 -9.67934)
(-0.384999 -0.291374 -9.71416)
(-0.393527 -0.29438 -9.74895)
(-0.402267 -0.297293 -9.78369)
(-0.411247 -0.300088 -9.81842)
(-0.420489 -0.302756 -9.85321)
(-0.429994 -0.305304 -9.88735)
(-0.439966 -0.307501 -9.91946)
(-0.450774 -0.308904 -9.9509)
(-0.462331 -0.309748 -9.99131)
(-0.468233 -0.311123 -10.0215)
)
;
    }
}


// ************************************************************************* //
