/*--------------------------------*- C++ -*----------------------------------*\
| =========                 |                                                 |
| \\      /  F ield         | OpenFOAM: The Open Source CFD Toolbox           |
|  \\    /   O peration     | Version:  5.x                                   |
|   \\  /    A nd           | Web:      www.OpenFOAM.org                      |
|    \\/     M anipulation  |                                                 |
\*---------------------------------------------------------------------------*/
FoamFile
{
    version     2.0;
    format      ascii;
    class       volScalarField;
    location    "70000";
    object      p;
}
// * * * * * * * * * * * * * * * * * * * * * * * * * * * * * * * * * * * * * //

dimensions      [0 2 -2 0 0 0 0];

internalField   nonuniform List<scalar> 
2250
(
-2.41662e-10
-2.33972e-10
-2.39623e-10
-2.39743e-10
-2.33911e-10
-2.29632e-10
-2.31327e-10
-2.43096e-10
-2.38941e-10
-2.26072e-10
-1.84973e-10
-1.94014e-10
-2.13273e-10
-2.06391e-10
-1.88184e-10
-1.44727e-10
-1.55328e-10
-1.84652e-10
-1.73136e-10
-1.45984e-10
-1.62118e-10
-1.63462e-10
-1.97406e-10
-1.69298e-10
-1.10469e-10
-7.25634e-10
-6.79354e-10
-6.67025e-10
-6.43383e-10
-6.12598e-10
-6.86793e-10
-6.5207e-10
-6.47063e-10
-6.12141e-10
-5.65485e-10
-5.31371e-10
-5.1607e-10
-5.31473e-10
-4.97543e-10
-4.48612e-10
-3.58234e-10
-3.52543e-10
-3.98473e-10
-3.66579e-10
-3.12921e-10
-2.74968e-10
-2.76071e-10
-3.26116e-10
-2.63752e-10
-1.67882e-10
-1.09961e-09
-9.86906e-10
-9.31986e-10
-8.7072e-10
-8.07794e-10
-1.0112e-09
-9.14582e-10
-8.6437e-10
-7.95039e-10
-7.26541e-10
-7.5258e-10
-6.84065e-10
-6.59829e-10
-6.07027e-10
-5.5758e-10
-4.45863e-10
-3.90199e-10
-4.09706e-10
-3.88074e-10
-3.64937e-10
-2.12057e-10
-1.75554e-10
-1.91626e-10
-1.7743e-10
-1.88169e-10
-1.19068e-09
-1.04745e-09
-9.65979e-10
-8.87028e-10
-8.19966e-10
-1.08253e-09
-9.56445e-10
-8.75334e-10
-8.01309e-10
-7.47297e-10
-8.32777e-10
-7.07286e-10
-6.4026e-10
-5.98896e-10
-5.83384e-10
-5.40477e-10
-3.87897e-10
-3.52136e-10
-3.75772e-10
-4.24148e-10
-3.79155e-10
-1.5591e-10
-1.0148e-10
-2.13069e-10
-3.69849e-10
-1.01528e-09
-8.9797e-10
-8.14874e-10
-7.4071e-10
-6.85627e-10
-9.57731e-10
-8.35429e-10
-7.46553e-10
-6.87102e-10
-6.42462e-10
-8.17259e-10
-6.46511e-10
-5.5009e-10
-5.24687e-10
-5.17701e-10
-6.52533e-10
-4.07214e-10
-3.17146e-10
-3.66276e-10
-4.30547e-10
-6.72219e-10
-2.65448e-10
-1.5672e-10
-3.26771e-10
-4.96039e-10
-7.53036e-10
-6.34663e-10
-5.28376e-10
-4.3547e-10
-3.61436e-10
-7.44739e-10
-6.05453e-10
-4.9022e-10
-4.05525e-10
-3.22514e-10
-6.73335e-10
-4.7417e-10
-3.41797e-10
-2.79451e-10
-2.227e-10
-5.73781e-10
-3.08105e-10
-1.72302e-10
-1.63325e-10
-1.52373e-10
-5.94465e-10
-2.0286e-10
-6.93527e-11
-1.36604e-10
-1.63571e-10
-5.14529e-10
-3.02041e-10
-9.20657e-11
9.31167e-11
2.33187e-10
-4.98139e-10
-2.68459e-10
-4.64178e-11
1.42503e-10
2.95736e-10
-3.90077e-10
-1.29844e-10
9.49629e-11
2.64386e-10
3.96858e-10
-2.42146e-10
3.96881e-11
2.5509e-10
3.99237e-10
5.2105e-10
-1.1243e-10
2.04303e-10
4.07038e-10
5.48103e-10
6.89644e-10
-2.92419e-10
1.30784e-10
5.41927e-10
8.77743e-10
1.08921e-09
-2.27813e-10
2.12204e-10
6.27924e-10
9.58456e-10
1.16128e-09
-1.01533e-11
4.14226e-10
7.89643e-10
1.08502e-09
1.27116e-09
2.43123e-10
6.42978e-10
9.76508e-10
1.26133e-09
1.46163e-09
4.89756e-10
8.79833e-10
1.20421e-09
1.53219e-09
1.76795e-09
5.45336e-11
7.59052e-10
1.38853e-09
1.8518e-09
2.09445e-09
1.95947e-10
8.94467e-10
1.49504e-09
1.92723e-09
2.14641e-09
5.25472e-10
1.14432e-09
1.65836e-09
2.04713e-09
2.26468e-09
8.75368e-10
1.41759e-09
1.85984e-09
2.24046e-09
2.47408e-09
1.1829e-09
1.65923e-09
2.09374e-09
2.51682e-09
2.76244e-09
7.31619e-10
1.6418e-09
2.40115e-09
2.92612e-09
3.1792e-09
9.14046e-10
1.77191e-09
2.47669e-09
2.96823e-09
3.2175e-09
1.23094e-09
1.98165e-09
2.60637e-09
3.07628e-09
3.33638e-09
1.56273e-09
2.21942e-09
2.77702e-09
3.22967e-09
3.47753e-09
1.8216e-09
2.38071e-09
2.91556e-09
3.35906e-09
3.57471e-09
1.70022e-09
2.70667e-09
3.53977e-09
4.12249e-09
4.42254e-09
1.80668e-09
2.76981e-09
3.57171e-09
4.15268e-09
4.47794e-09
1.95226e-09
2.87158e-09
3.65216e-09
4.23886e-09
4.56228e-09
2.1214e-09
2.99631e-09
3.73424e-09
4.28245e-09
4.56226e-09
2.18822e-09
3.02926e-09
3.70479e-09
4.18916e-09
4.43677e-09
2.71808e-09
3.87816e-09
4.85329e-09
5.56385e-09
5.96031e-09
2.72412e-09
3.89125e-09
4.87454e-09
5.61082e-09
6.02933e-09
2.69477e-09
3.89411e-09
4.89861e-09
5.64401e-09
6.03587e-09
2.67639e-09
3.8843e-09
4.85892e-09
5.56498e-09
5.92875e-09
2.56361e-09
3.78973e-09
4.69907e-09
5.38064e-09
5.78484e-09
3.72846e-09
5.1762e-09
6.4022e-09
7.31658e-09
7.82582e-09
3.71505e-09
5.17305e-09
6.42026e-09
7.36042e-09
7.85969e-09
3.58941e-09
5.09972e-09
6.37377e-09
7.31813e-09
7.79221e-09
3.41243e-09
4.97223e-09
6.25014e-09
7.20693e-09
7.71219e-09
3.14665e-09
4.78414e-09
6.12469e-09
7.17431e-09
7.76385e-09
4.7216e-09
6.56516e-09
8.15521e-09
9.3459e-09
9.9783e-09
4.6734e-09
6.52435e-09
8.13725e-09
9.34072e-09
9.94425e-09
4.47534e-09
6.38839e-09
8.02973e-09
9.24809e-09
9.86339e-09
4.16923e-09
6.20499e-09
7.91994e-09
9.21282e-09
9.89205e-09
3.71665e-09
6.01473e-09
7.95587e-09
9.38113e-09
1.00816e-08
5.50939e-09
7.98774e-09
1.01227e-08
1.16995e-08
1.25121e-08
5.39173e-09
7.90431e-09
1.00583e-08
1.16404e-08
1.24443e-08
5.19169e-09
7.758e-09
9.93796e-09
1.15534e-08
1.24022e-08
4.8982e-09
7.6224e-09
9.9046e-09
1.15968e-08
1.24791e-08
4.4736e-09
7.52564e-09
1.00265e-08
1.17739e-08
1.26129e-08
6.17027e-09
9.61942e-09
1.25324e-08
1.46584e-08
1.57607e-08
6.07296e-09
9.5334e-09
1.24536e-08
1.45921e-08
1.57138e-08
5.94794e-09
9.41914e-09
1.2357e-08
1.45338e-08
1.56907e-08
5.7753e-09
9.3635e-09
1.23618e-08
1.4568e-08
1.57237e-08
5.58185e-09
9.32344e-09
1.24104e-08
1.46267e-08
1.57805e-08
7.09917e-09
1.17834e-08
1.57511e-08
1.86431e-08
2.01492e-08
7.03145e-09
1.17058e-08
1.56898e-08
1.85973e-08
2.01092e-08
6.88949e-09
1.15993e-08
1.56024e-08
1.85281e-08
2.0051e-08
6.73697e-09
1.15519e-08
1.55689e-08
1.84968e-08
2.00379e-08
6.56867e-09
1.14568e-08
1.55209e-08
1.85027e-08
2.00947e-08
8.41057e-09
1.47275e-08
2.0137e-08
2.40467e-08
2.60519e-08
8.27142e-09
1.46517e-08
2.00856e-08
2.39805e-08
2.59657e-08
8.03305e-09
1.45195e-08
1.99622e-08
2.38575e-08
2.58701e-08
7.82372e-09
1.44169e-08
1.98592e-08
2.37756e-08
2.58291e-08
7.47564e-09
1.42085e-08
1.97569e-08
2.3746e-08
2.58077e-08
1.00936e-08
1.87214e-08
2.60494e-08
3.12777e-08
3.39481e-08
9.92593e-09
1.86453e-08
2.59611e-08
3.1153e-08
3.38317e-08
9.66601e-09
1.84573e-08
2.57696e-08
3.09886e-08
3.37142e-08
9.39713e-09
1.82518e-08
2.55891e-08
3.08469e-08
3.35795e-08
8.802e-09
1.78742e-08
2.53725e-08
3.06627e-08
3.33577e-08
1.24092e-08
2.41098e-08
3.39586e-08
4.09971e-08
4.46614e-08
1.22733e-08
2.39881e-08
3.38097e-08
4.0852e-08
4.45562e-08
1.19779e-08
2.36969e-08
3.35489e-08
4.0646e-08
4.43616e-08
1.15306e-08
2.33337e-08
3.3251e-08
4.0369e-08
4.40707e-08
1.05935e-08
2.27642e-08
3.28514e-08
3.9986e-08
4.36891e-08
1.547e-08
3.12534e-08
4.45906e-08
5.42257e-08
5.93055e-08
1.52694e-08
3.10549e-08
4.44108e-08
5.40841e-08
5.91705e-08
1.48428e-08
3.06523e-08
4.40633e-08
5.37667e-08
5.88503e-08
1.41657e-08
3.01234e-08
4.35913e-08
5.33127e-08
5.8421e-08
1.30773e-08
2.94224e-08
4.30118e-08
5.27749e-08
5.79292e-08
1.92491e-08
4.07412e-08
5.89828e-08
7.22261e-08
7.91919e-08
1.89718e-08
4.04929e-08
5.87682e-08
7.2029e-08
7.89863e-08
1.84179e-08
3.99797e-08
5.82821e-08
7.15685e-08
7.85626e-08
1.75766e-08
3.92856e-08
5.76227e-08
7.09563e-08
7.79772e-08
1.65313e-08
3.84374e-08
5.68514e-08
7.02465e-08
7.73016e-08
2.41246e-08
5.34889e-08
7.84405e-08
9.65691e-08
1.06095e-07
2.38178e-08
5.31731e-08
7.81387e-08
9.62872e-08
1.05832e-07
2.312e-08
5.2522e-08
7.75117e-08
9.57091e-08
1.05263e-07
2.20745e-08
5.16512e-08
7.66851e-08
9.49028e-08
1.04427e-07
2.08116e-08
5.05655e-08
7.57101e-08
9.3968e-08
1.03478e-07
3.05917e-08
7.06574e-08
1.04741e-07
1.2952e-07
1.42558e-07
3.01838e-08
7.02483e-08
1.0435e-07
1.29162e-07
1.42183e-07
2.93732e-08
6.94894e-08
1.03598e-07
1.28399e-07
1.41359e-07
2.81304e-08
6.84432e-08
1.02559e-07
1.27307e-07
1.40226e-07
2.64194e-08
6.70691e-08
1.01336e-07
1.26066e-07
1.3894e-07
3.92591e-08
9.39908e-08
1.40507e-07
1.74317e-07
1.92072e-07
3.8808e-08
9.35149e-08
1.40013e-07
1.73804e-07
1.91498e-07
3.7995e-08
9.26287e-08
1.39037e-07
1.72744e-07
1.90411e-07
3.65745e-08
9.13191e-08
1.37686e-07
1.71343e-07
1.89003e-07
3.44869e-08
8.9584e-08
1.36078e-07
1.69726e-07
1.87393e-07
5.13952e-08
1.25988e-07
1.89296e-07
2.35346e-07
2.59454e-07
5.09099e-08
1.25343e-07
1.88579e-07
2.34576e-07
2.5868e-07
4.98425e-08
1.24127e-07
1.87253e-07
2.33207e-07
2.57357e-07
4.80412e-08
1.2242e-07
1.85557e-07
2.31491e-07
2.55621e-07
4.56745e-08
1.2027e-07
1.83522e-07
2.29508e-07
2.53673e-07
6.80945e-08
1.69677e-07
2.55723e-07
3.18634e-07
3.51347e-07
6.72239e-08
1.68658e-07
2.54677e-07
3.17542e-07
3.50333e-07
6.55536e-08
1.6692e-07
2.52956e-07
3.15767e-07
3.48593e-07
6.33084e-08
1.64764e-07
2.50887e-07
3.13558e-07
3.46357e-07
6.06424e-08
1.62231e-07
2.48487e-07
3.11114e-07
3.43911e-07
8.99475e-08
2.29367e-07
3.45939e-07
4.32713e-07
4.7666e-07
8.86356e-08
2.27771e-07
3.44515e-07
4.31062e-07
4.75185e-07
8.64312e-08
2.25248e-07
3.42288e-07
4.28374e-07
4.72662e-07
8.38899e-08
2.22485e-07
3.39735e-07
4.25327e-07
4.69859e-07
8.09249e-08
2.19475e-07
3.3692e-07
4.22183e-07
4.66935e-07
1.17738e-07
3.12479e-07
4.6749e-07
5.90257e-07
6.47242e-07
1.16436e-07
3.09709e-07
4.65745e-07
5.87292e-07
6.44934e-07
1.13905e-07
3.05356e-07
4.62888e-07
5.82385e-07
6.41186e-07
1.11437e-07
3.0128e-07
4.60097e-07
5.77906e-07
6.38042e-07
1.08329e-07
2.97102e-07
4.56782e-07
5.73401e-07
6.34476e-07
1.48918e-07
4.33054e-07
6.2774e-07
8.10882e-07
8.78988e-07
1.48908e-07
4.27418e-07
6.26047e-07
8.04948e-07
8.75288e-07
1.47386e-07
4.17752e-07
6.23054e-07
7.94688e-07
8.69338e-07
1.47295e-07
4.10131e-07
6.22247e-07
7.8739e-07
8.66842e-07
1.45006e-07
4.02286e-07
6.18868e-07
7.78869e-07
8.61314e-07
1.74048e-07
6.13627e-07
8.35342e-07
1.12357e-06
1.19424e-06
1.78259e-07
6.02485e-07
8.33795e-07
1.11189e-06
1.18811e-06
1.80237e-07
5.80033e-07
8.30644e-07
1.08901e-06
1.17667e-06
1.89922e-07
5.64691e-07
8.3855e-07
1.07765e-06
1.17917e-06
1.92624e-07
5.44043e-07
8.36243e-07
1.05584e-06
1.1662e-06
1.83973e-07
8.79202e-07
1.10588e-06
1.56851e-06
1.62758e-06
1.98372e-07
8.60349e-07
1.10379e-06
1.54699e-06
1.61682e-06
2.02091e-07
8.11555e-07
1.09503e-06
1.49332e-06
1.58747e-06
2.3603e-07
7.89829e-07
1.12882e-06
1.48556e-06
1.61301e-06
2.48328e-07
7.29751e-07
1.12189e-06
1.42155e-06
1.57018e-06
1.64824e-07
1.25944e-06
1.46154e-06
2.18502e-06
2.25524e-06
2.09792e-07
1.23385e-06
1.45715e-06
2.1483e-06
2.23702e-06
2.00374e-07
1.12542e-06
1.42072e-06
2.02446e-06
2.14329e-06
2.92175e-07
1.12388e-06
1.52915e-06
2.06693e-06
2.22825e-06
3.04494e-07
9.63344e-07
1.49066e-06
1.89512e-06
2.10347e-06
8.98421e-08
1.79533e-06
1.94507e-06
3.04896e-06
3.16334e-06
2.11141e-07
1.77527e-06
1.93407e-06
2.99767e-06
3.13066e-06
1.55764e-07
1.53246e-06
1.81846e-06
2.70256e-06
2.90823e-06
3.61369e-07
1.6171e-06
2.07605e-06
2.88761e-06
3.089e-06
3.60323e-07
1.24641e-06
1.97527e-06
2.50524e-06
2.82055e-06
-1.09632e-07
2.51004e-06
2.59034e-06
4.30655e-06
4.33997e-06
1.62691e-07
2.50639e-06
2.56581e-06
4.2325e-06
4.27443e-06
6.50324e-08
1.95013e-06
2.40903e-06
3.62997e-06
3.87459e-06
6.12661e-07
2.26982e-06
2.8014e-06
4.0414e-06
4.25225e-06
4.56818e-07
1.58084e-06
2.60819e-06
3.30656e-06
3.78928e-06
-5.61599e-07
3.00063e-06
2.83318e-06
5.05632e-06
4.91421e-06
-4.12192e-08
3.22039e-06
3.11132e-06
5.41329e-06
5.26981e-06
1.0446e-08
2.29009e-06
3.3134e-06
4.84194e-06
5.11862e-06
7.47661e-07
3.16052e-06
3.90896e-06
5.69936e-06
5.84977e-06
6.18372e-07
1.99569e-06
3.58902e-06
4.38928e-06
5.10439e-06
2.44201e-06
9.86885e-06
9.35564e-06
1.44761e-05
1.34844e-05
3.5348e-06
8.97613e-06
8.50751e-06
1.34232e-05
1.23324e-05
2.41596e-06
5.19653e-06
6.13804e-06
8.84751e-06
9.66755e-06
1.89424e-06
5.74431e-06
6.35238e-06
9.12367e-06
9.42168e-06
2.14777e-06
2.92861e-06
6.38833e-06
7.28646e-06
9.54308e-06
-7.01575e-06
-2.09848e-06
-6.3419e-07
2.70554e-06
1.99861e-06
-6.44217e-06
-1.42368e-06
-2.46566e-07
3.45826e-06
2.83621e-06
-5.62573e-06
-1.37481e-06
2.56551e-06
3.72151e-06
4.1958e-06
-3.93123e-06
2.23409e-07
3.23991e-06
5.92282e-06
6.32873e-06
-4.6437e-06
3.8274e-07
1.79963e-06
3.28765e-06
4.26864e-06
7.7621e-06
3.13145e-05
2.56111e-05
4.3648e-05
3.45402e-05
1.4514e-05
2.8689e-05
2.12643e-05
3.94657e-05
2.94692e-05
1.32601e-05
1.34691e-05
1.11391e-05
1.62638e-05
2.12144e-05
-3.06865e-07
1.75058e-05
1.45256e-05
2.21464e-05
2.08956e-05
6.80504e-06
1.01077e-06
1.8082e-05
1.54031e-05
2.7564e-05
-1.51889e-05
-1.45639e-05
-6.89414e-06
-1.46984e-05
-7.06733e-06
-2.1992e-05
-1.32604e-05
-9.99743e-06
-1.33825e-05
-1.64715e-06
-1.34956e-05
3.12333e-06
1.01509e-05
5.91566e-06
6.09995e-06
4.43389e-07
-5.02436e-06
7.11493e-06
7.02918e-06
9.97525e-06
-1.94484e-05
8.06165e-06
-3.24755e-06
3.65785e-06
-2.42991e-06
-1.04994e-05
8.49963e-05
7.26708e-05
0.000140059
7.72932e-05
5.37111e-05
8.82285e-05
3.92754e-05
0.000139736
5.94516e-05
0.000186178
4.68183e-05
-3.32614e-05
-2.20586e-05
3.80561e-05
-5.01041e-05
3.12747e-05
2.61105e-05
2.45897e-05
3.8394e-05
-5.12917e-06
-5.1347e-05
6.93787e-05
1.82861e-05
9.12382e-05
0.000939234
0.00113415
0.00123693
0.0010947
0.00107936
0.00092293
0.000968423
0.00100619
0.000961185
0.000942331
0.000741313
0.000861427
0.000687125
0.000824055
0.000753751
0.00105568
0.000651735
0.000663038
0.00072651
0.000504294
0.000663979
0.00066712
0.00119673
0.000850281
0.000853824
0.00170261
0.00203508
0.00161689
0.00207543
0.00248055
0.00198913
0.00141574
0.0016715
0.00118777
0.00129254
0.00147442
0.00176307
0.00188554
0.00194006
0.00308188
0.00190998
0.00172459
0.00164216
0.00193346
0.00131103
0.00211317
0.00193217
0.00211497
0.00164429
0.00167159
0.00287817
0.00320837
0.00284627
0.00296484
0.00299809
0.00297338
0.00269961
0.00279908
0.00291534
0.00309351
0.00330724
0.00252924
0.00246161
0.00280719
0.00299887
0.002085
0.00267069
0.00244017
0.00265497
0.0029796
0.00259627
0.00231612
0.00233749
0.00253347
0.00297536
0.00379522
0.00350046
0.00396091
0.00346516
0.00361178
0.00315311
0.00355175
0.0035681
0.00346905
0.00355966
0.00382186
0.00349572
0.00360711
0.00345747
0.00363634
0.00345685
0.00320368
0.00366323
0.00326061
0.00370409
0.00302244
0.00306821
0.00276432
0.00378786
0.00374773
0.00442229
0.00418245
0.00428135
0.00427693
0.00466772
0.00385524
0.0041487
0.00436591
0.00438723
0.00439319
0.00422113
0.00423676
0.00413405
0.00419977
0.00420724
0.00421597
0.00386171
0.00426129
0.00374888
0.00423672
0.00415088
0.0048012
0.00414242
0.00411428
0.00412595
0.00513339
0.00509862
0.00513707
0.00458652
0.00461987
0.00520013
0.00501695
0.00486184
0.00479641
0.00477536
0.00451732
0.00464085
0.00507933
0.00501916
0.00439233
0.00465517
0.00485326
0.00468084
0.0048781
0.00468733
0.00424573
0.00472766
0.00459048
0.00427267
0.00468058
0.00526912
0.00544714
0.00560314
0.00594188
0.00545621
0.00525233
0.0054561
0.00561341
0.004979
0.00517473
0.00514931
0.00544174
0.00551436
0.00539125
0.0055705
0.00511292
0.00528245
0.00542238
0.00530865
0.0053961
0.00530905
0.00504445
0.00533162
0.00516244
0.00529258
0.00634294
0.00574076
0.00577241
0.00590952
0.00573557
0.00565727
0.00586272
0.0058386
0.00595993
0.00583101
0.00612911
0.00607742
0.00578407
0.00674319
0.00581408
0.00586825
0.00648048
0.00592593
0.00560315
0.00553024
0.0057078
0.00580057
0.00578479
0.00614094
0.00530998
0.00700155
0.0062353
0.0066113
0.00608203
0.0057651
0.00657921
0.00649495
0.00597268
0.00618387
0.00612688
0.00640014
0.00630779
0.0064694
0.00651617
0.00656685
0.00633946
0.00638322
0.00638863
0.00620533
0.00568923
0.00650363
0.00620037
0.00657562
0.00675295
0.00643418
0.0068549
0.00672656
0.00670563
0.0067122
0.00704647
0.00675629
0.00678486
0.00680371
0.00662352
0.00677228
0.00654114
0.00663748
0.00700727
0.00685533
0.00701117
0.00685508
0.0066488
0.00695623
0.0069294
0.00676216
0.00674144
0.00689671
0.00685865
0.00683228
0.00688578
0.0069772
0.00703562
0.00688959
0.00706042
0.00702437
0.00704306
0.00698892
0.00703205
0.00703007
0.0070086
0.0069015
0.00701599
0.00703224
0.00706994
0.00697297
0.00701159
0.00706086
0.00703266
0.00704832
0.00699399
0.00703391
0.00704673
0.00699267
0.00700285
0.00701863
0.00698731
0.00698615
0.00701933
0.00700965
0.00700588
0.00698106
0.00699422
0.0069949
0.00700247
0.00699198
0.00698737
0.00699842
0.0070011
0.00697953
0.00699381
0.00698092
0.00697834
0.00699976
0.00699459
0.00698845
0.00700535
0.00699787
0.00699494
0.00699308
0.006975
0.00697339
0.0069964
0.00697192
0.00700055
0.00699839
0.00698891
0.00699537
0.00699536
0.00700426
0.00699996
0.0069802
0.00699732
0.00699066
0.00699926
0.00699197
0.00699331
0.00700335
0.00699411
0.00700164
0.00699395
0.00699288
0.00700097
0.00698877
0.00698923
0.00699016
0.00699167
0.00699854
0.00699643
0.00699992
0.0069987
0.00699347
0.00699839
0.00699684
0.0070016
0.00699952
0.00699352
0.00699861
0.00699568
0.00699624
0.00699588
0.00699596
0.00699886
0.00699725
0.00699964
0.00699784
0.00700212
0.00700271
0.00699979
0.00699804
0.00699655
0.0069938
0.00699919
0.00699431
0.00699958
0.00699876
0.0069962
0.00699953
0.00699749
0.0070009
0.00699972
0.00699621
0.00699984
0.00699728
0.0069987
0.00699808
0.00699863
0.0070012
0.00699908
0.00700074
0.00699964
0.00700123
0.00700306
0.0070005
0.00700017
0.00699956
0.00699755
0.00700029
0.00699802
0.00700033
0.00699968
0.00699857
0.00700061
0.00699914
0.00700106
0.00700036
0.00699902
0.00700095
0.00699933
0.00700027
0.00699982
0.00700055
0.00700207
0.00700061
0.00700175
0.00700099
0.0070025
0.00700344
0.00700197
0.007002
0.00700149
0.00699973
0.00700112
0.0069999
0.00700107
0.00700069
0.0070003
0.00700141
0.00700052
0.00700151
0.00700113
0.00700083
0.00700179
0.00700087
0.00700139
0.00700111
0.00700186
0.00700264
0.0070018
0.00700237
0.00700198
0.00700323
0.00700369
0.00700286
0.00700295
0.00700264
0.00700122
0.00700182
0.00700126
0.00700177
0.00700158
0.00700156
0.00700205
0.00700161
0.00700205
0.00700187
0.00700202
0.00700242
0.00700197
0.0070022
0.00700206
0.00700275
0.00700307
0.00700265
0.00700285
0.00700268
0.00700371
0.00700387
0.00700345
0.00700348
0.00700332
0.00700223
0.00700242
0.0070022
0.00700238
0.00700231
0.00700245
0.0070026
0.00700242
0.00700256
0.0070025
0.00700282
0.00700292
0.00700273
0.00700279
0.00700274
0.00700335
0.00700341
0.00700323
0.00700326
0.0070032
0.00700402
0.00700402
0.00700383
0.0070038
0.00700373
0.0070029
0.00700293
0.00700285
0.00700289
0.00700287
0.00700306
0.00700307
0.007003
0.00700302
0.007003
0.00700333
0.00700332
0.00700325
0.00700325
0.00700322
0.00700372
0.0070037
0.00700362
0.0070036
0.00700357
0.00700421
0.00700416
0.00700406
0.00700402
0.00700399
0.00700336
0.00700334
0.00700331
0.0070033
0.00700329
0.00700347
0.00700345
0.00700341
0.0070034
0.00700339
0.00700368
0.00700364
0.0070036
0.00700359
0.00700357
0.00700397
0.00700392
0.00700388
0.00700385
0.00700384
0.00700432
0.00700427
0.00700421
0.00700418
0.00700415
0.00700368
0.00700366
0.00700364
0.00700362
0.00700362
0.00700376
0.00700374
0.00700371
0.0070037
0.00700369
0.00700392
0.00700389
0.00700386
0.00700384
0.00700383
0.00700413
0.0070041
0.00700406
0.00700404
0.00700403
0.00700439
0.00700435
0.00700431
0.00700428
0.00700427
0.00700392
0.0070039
0.00700388
0.00700387
0.00700386
0.00700398
0.00700395
0.00700394
0.00700392
0.00700392
0.00700409
0.00700407
0.00700404
0.00700403
0.00700402
0.00700425
0.00700422
0.0070042
0.00700418
0.00700417
0.00700444
0.00700441
0.00700438
0.00700436
0.00700435
0.00700409
0.00700407
0.00700406
0.00700405
0.00700404
0.00700413
0.00700411
0.0070041
0.00700409
0.00700408
0.00700422
0.0070042
0.00700418
0.00700417
0.00700416
0.00700433
0.00700431
0.0070043
0.00700428
0.00700428
0.00700447
0.00700445
0.00700443
0.00700442
0.00700441
0.00700421
0.0070042
0.00700419
0.00700418
0.00700418
0.00700425
0.00700423
0.00700422
0.00700421
0.00700421
0.00700431
0.00700429
0.00700428
0.00700427
0.00700427
0.00700439
0.00700438
0.00700437
0.00700436
0.00700435
0.0070045
0.00700448
0.00700447
0.00700446
0.00700445
0.00700431
0.0070043
0.00700429
0.00700428
0.00700428
0.00700433
0.00700432
0.00700431
0.00700431
0.0070043
0.00700438
0.00700437
0.00700436
0.00700435
0.00700435
0.00700444
0.00700443
0.00700442
0.00700441
0.00700441
0.00700451
0.0070045
0.00700449
0.00700449
0.00700448
0.00700437
0.00700437
0.00700436
0.00700436
0.00700435
0.00700439
0.00700438
0.00700438
0.00700437
0.00700437
0.00700443
0.00700442
0.00700441
0.00700441
0.0070044
0.00700447
0.00700446
0.00700446
0.00700445
0.00700445
0.00700453
0.00700452
0.00700451
0.00700451
0.0070045
0.00700442
0.00700442
0.00700441
0.00700441
0.00700441
0.00700444
0.00700443
0.00700443
0.00700442
0.00700442
0.00700446
0.00700446
0.00700445
0.00700445
0.00700445
0.0070045
0.00700449
0.00700448
0.00700448
0.00700448
0.00700454
0.00700453
0.00700452
0.00700452
0.00700452
0.00700446
0.00700446
0.00700445
0.00700445
0.00700445
0.00700447
0.00700447
0.00700446
0.00700446
0.00700446
0.00700449
0.00700448
0.00700448
0.00700448
0.00700448
0.00700451
0.00700451
0.00700451
0.0070045
0.0070045
0.00700454
0.00700454
0.00700453
0.00700453
0.00700453
0.00700449
0.00700448
0.00700448
0.00700448
0.00700448
0.00700449
0.00700449
0.00700449
0.00700449
0.00700449
0.00700451
0.0070045
0.0070045
0.0070045
0.0070045
0.00700453
0.00700452
0.00700452
0.00700452
0.00700452
0.00700455
0.00700454
0.00700454
0.00700454
0.00700454
0.00700451
0.0070045
0.0070045
0.0070045
0.0070045
0.00700451
0.00700451
0.00700451
0.00700451
0.00700451
0.00700452
0.00700452
0.00700452
0.00700452
0.00700452
0.00700454
0.00700453
0.00700453
0.00700453
0.00700453
0.00700455
0.00700455
0.00700455
0.00700455
0.00700454
0.00700452
0.00700452
0.00700452
0.00700452
0.00700452
0.00700452
0.00700452
0.00700452
0.00700452
0.00700452
0.00700453
0.00700453
0.00700453
0.00700453
0.00700453
0.00700454
0.00700454
0.00700454
0.00700454
0.00700454
0.00700455
0.00700455
0.00700455
0.00700455
0.00700455
0.00700453
0.00700453
0.00700453
0.00700453
0.00700453
0.00700453
0.00700453
0.00700453
0.00700453
0.00700453
0.00700454
0.00700454
0.00700454
0.00700454
0.00700454
0.00700455
0.00700455
0.00700454
0.00700454
0.00700454
0.00700456
0.00700455
0.00700455
0.00700455
0.00700455
0.00700454
0.00700454
0.00700454
0.00700454
0.00700454
0.00700454
0.00700454
0.00700454
0.00700454
0.00700454
0.00700454
0.00700454
0.00700454
0.00700454
0.00700454
0.00700455
0.00700455
0.00700455
0.00700455
0.00700455
0.00700456
0.00700455
0.00700455
0.00700455
0.00700455
0.00700454
0.00700454
0.00700454
0.00700454
0.00700454
0.00700454
0.00700454
0.00700454
0.00700454
0.00700454
0.00700455
0.00700455
0.00700455
0.00700455
0.00700455
0.00700455
0.00700455
0.00700455
0.00700455
0.00700455
0.00700456
0.00700456
0.00700455
0.00700455
0.00700455
0.00700455
0.00700455
0.00700455
0.00700455
0.00700455
0.00700455
0.00700455
0.00700455
0.00700455
0.00700455
0.00700455
0.00700455
0.00700455
0.00700455
0.00700455
0.00700455
0.00700455
0.00700455
0.00700455
0.00700455
0.00700456
0.00700456
0.00700455
0.00700455
0.00700455
0.00700455
0.00700455
0.00700455
0.00700455
0.00700455
0.00700455
0.00700455
0.00700455
0.00700455
0.00700455
0.00700455
0.00700455
0.00700455
0.00700455
0.00700455
0.00700455
0.00700455
0.00700455
0.00700455
0.00700455
0.00700456
0.00700456
0.00700456
0.00700456
0.00700456
0.00700455
0.00700455
0.00700455
0.00700455
0.00700455
0.00700455
0.00700455
0.00700455
0.00700455
0.00700455
0.00700455
0.00700455
0.00700455
0.00700455
0.00700455
0.00700455
0.00700455
0.00700455
0.00700455
0.00700455
0.00700456
0.00700456
0.00700456
0.00700456
0.00700456
0.00700455
0.00700455
0.00700455
0.00700455
0.00700455
0.00700455
0.00700455
0.00700455
0.00700455
0.00700455
0.00700455
0.00700455
0.00700455
0.00700455
0.00700455
0.00700456
0.00700456
0.00700456
0.00700456
0.00700456
0.00700456
0.00700456
0.00700456
0.00700456
0.00700456
0.00700455
0.00700455
0.00700455
0.00700455
0.00700455
0.00700455
0.00700455
0.00700455
0.00700455
0.00700455
0.00700456
0.00700456
0.00700456
0.00700456
0.00700456
0.00700456
0.00700456
0.00700456
0.00700456
0.00700456
0.00700456
0.00700456
0.00700456
0.00700456
0.00700456
0.00700456
0.00700456
0.00700456
0.00700456
0.00700456
0.00700456
0.00700456
0.00700456
0.00700456
0.00700456
0.00700456
0.00700456
0.00700456
0.00700456
0.00700456
0.00700456
0.00700456
0.00700456
0.00700456
0.00700456
0.00700456
0.00700456
0.00700456
0.00700456
0.00700456
0.00700456
0.00700456
0.00700456
0.00700456
0.00700456
0.00700456
0.00700456
0.00700456
0.00700456
0.00700456
0.00700456
0.00700456
0.00700456
0.00700456
0.00700456
0.00700456
0.00700456
0.00700456
0.00700456
0.00700456
0.00700456
0.00700456
0.00700456
0.00700456
0.00700456
0.00700456
0.00700456
0.00700456
0.00700456
0.00700456
0.00700456
0.00700456
0.00700456
0.00700456
0.00700456
0.00700456
0.00700456
0.00700456
0.00700456
0.00700456
0.00700456
0.00700456
0.00700456
0.00700456
0.00700456
0.00700456
0.00700456
0.00700456
0.00700456
0.00700456
0.00700456
0.00700456
0.00700456
0.00700456
0.00700456
0.00700456
0.00700456
0.00700456
0.00700456
0.00700456
0.00700456
0.00700456
0.00700456
0.00700456
0.00700456
0.00700456
0.00700456
0.00700456
0.00700456
0.00700456
0.00700456
0.00700456
0.00700456
0.00700456
0.00700456
0.00700456
0.00700456
0.00700456
0.00700456
0.00700456
0.00700456
0.00700456
0.00700456
0.00700456
0.00700456
0.00700456
0.00700456
0.00700456
0.00700456
0.00700456
0.00700456
0.00700456
0.00700456
0.00700456
0.00700456
0.00700456
0.00700456
0.00700456
0.00700456
0.00700456
0.00700456
0.00700456
0.00700456
0.00700456
0.00700456
0.00700456
0.00700456
0.00700456
0.00700456
0.00700456
0.00700456
0.00700456
0.00700456
0.00700456
0.00700456
0.00700456
0.00700456
0.00700456
0.00700456
0.00700456
0.00700456
0.00700456
0.00700456
0.00700456
0.00700456
0.00700456
0.00700456
0.00700456
0.00700456
0.00700456
0.00700456
0.00700456
0.00700456
0.00700456
0.00700456
0.00700456
0.00700456
0.00700456
0.00700456
0.00700456
0.00700456
0.00700456
0.00700456
0.00700456
0.00700456
0.00700456
0.00700456
0.00700456
0.00700456
0.00700456
0.00700456
0.00700456
0.00700456
0.00700456
0.00700456
0.00700456
0.00700456
0.00700456
0.00700456
0.00700456
0.00700456
0.00700456
0.00700456
0.00700456
0.00700456
0.00700456
0.00700456
0.00700456
0.00700456
0.00700456
0.00700456
0.00700456
0.00700456
0.00700456
0.00700456
0.00700456
0.00700456
0.00700456
0.00700456
0.00700456
0.00700456
0.00700456
0.00700456
0.00700456
0.00700456
0.00700456
0.00700456
0.00700456
0.00700456
0.00700456
0.00700456
0.00700456
0.00700456
0.00700456
0.00700456
0.00700456
0.00700456
0.00700456
0.00700456
0.00700456
)
;

boundaryField
{
    inlet
    {
        type            zeroGradient;
    }
    outlet
    {
        type            fixedValue;
        value           uniform 0;
    }
    repeat_boundary
    {
        type            zeroGradient;
    }
    procBoundary1to0
    {
        type            processor;
        value           nonuniform List<scalar> 
450
(
-2.5702e-10
-2.35185e-10
-1.71948e-10
-9.99085e-11
-4.82932e-11
-7.58061e-10
-6.94106e-10
-5.0232e-10
-2.57509e-10
6.52406e-12
-1.13739e-09
-1.02508e-09
-7.47751e-10
-3.69104e-10
1.32619e-10
-1.23462e-09
-1.11872e-09
-8.88683e-10
-5.5898e-10
-6.70246e-11
-1.08223e-09
-1.03547e-09
-9.48833e-10
-7.97278e-10
-5.17043e-10
-8.71632e-10
-8.80928e-10
-8.70955e-10
-8.2585e-10
-7.09208e-10
-7.19626e-10
-7.13598e-10
-6.42074e-10
-5.43736e-10
-4.42488e-10
-6.19759e-10
-5.5522e-10
-3.35034e-10
-6.72691e-11
1.74193e-10
-4.24199e-10
-2.82139e-10
6.94727e-11
5.01108e-10
1.00206e-09
7.90755e-11
2.53035e-10
5.79114e-10
9.82379e-10
1.54819e-09
8.34014e-10
9.2584e-10
1.06455e-09
1.23822e-09
1.51251e-09
1.55496e-09
1.55141e-09
1.52972e-09
1.50174e-09
1.49293e-09
2.15246e-09
2.13997e-09
2.05922e-09
1.94979e-09
1.87248e-09
2.60599e-09
2.57005e-09
2.44192e-09
2.29508e-09
2.22385e-09
2.70031e-09
2.60792e-09
2.47133e-09
2.36762e-09
2.45051e-09
2.44386e-09
2.38003e-09
2.29254e-09
2.27824e-09
2.59066e-09
2.12209e-09
2.08225e-09
1.96569e-09
1.94116e-09
2.26124e-09
1.70259e-09
1.57349e-09
1.37385e-09
1.30385e-09
1.55009e-09
9.9989e-10
8.23506e-10
6.04643e-10
4.61601e-10
5.65988e-10
6.79023e-11
-7.96759e-11
-3.6651e-10
-7.70967e-10
-1.11501e-09
-1.28294e-09
-1.48229e-09
-1.93435e-09
-2.62228e-09
-3.30856e-09
-3.52232e-09
-3.79875e-09
-4.38147e-09
-5.19848e-09
-5.90097e-09
-6.85342e-09
-7.17775e-09
-7.88378e-09
-8.8323e-09
-9.66374e-09
-1.1573e-08
-1.19982e-08
-1.28064e-08
-1.38621e-08
-1.4913e-08
-1.81922e-08
-1.86378e-08
-1.94764e-08
-2.06409e-08
-2.18885e-08
-2.69337e-08
-2.74079e-08
-2.85196e-08
-3.00754e-08
-3.17391e-08
-3.86243e-08
-3.95171e-08
-4.11947e-08
-4.32849e-08
-4.5544e-08
-5.49373e-08
-5.64275e-08
-5.87232e-08
-6.13797e-08
-6.42375e-08
-7.62087e-08
-7.85825e-08
-8.22235e-08
-8.58558e-08
-8.97872e-08
-9.89412e-08
-1.03872e-07
-1.11524e-07
-1.17306e-07
-1.24752e-07
-1.13276e-07
-1.23976e-07
-1.42427e-07
-1.52479e-07
-1.72279e-07
-1.08392e-07
-1.29801e-07
-1.73305e-07
-1.81136e-07
-2.39875e-07
-7.3465e-08
-1.1544e-07
-2.17187e-07
-1.85102e-07
-3.45057e-07
1.34251e-08
-7.64276e-08
-2.92941e-07
-1.42021e-07
-5.12974e-07
1.67599e-07
-4.40608e-08
-4.42592e-07
-1.87881e-07
-7.77261e-07
2.9064e-07
-8.54003e-08
-6.51112e-07
-1.90638e-07
-1.12187e-06
4.96e-06
2.39071e-06
1.10702e-06
1.7951e-06
-8.27452e-07
-6.80981e-06
-7.87528e-06
-8.27942e-06
-6.94508e-06
-5.97228e-06
2.72842e-05
4.76635e-06
4.75935e-06
1.26533e-05
5.73647e-07
-3.66604e-05
-2.72678e-05
-3.83442e-05
-3.07455e-05
-4.71465e-06
0.000159873
-7.81059e-05
-0.000101069
6.22977e-05
-1.30082e-05
0.000777975
0.000871018
0.000832393
0.000482727
0.000628707
0.00125183
0.00154211
0.00177773
0.00122812
0.00184016
0.00250501
0.00220457
0.00213961
0.00254378
0.00223758
0.00400572
0.00391065
0.00338222
0.00334934
0.00333654
0.00444701
0.00461002
0.00439263
0.00428879
0.00491445
0.00463665
0.00489144
0.00474666
0.00517336
0.00500805
0.00523606
0.00533385
0.00523185
0.00530867
0.00531728
0.00583643
0.00572684