/*--------------------------------*- C++ -*----------------------------------*\
| =========                 |                                                 |
| \\      /  F ield         | OpenFOAM: The Open Source CFD Toolbox           |
|  \\    /   O peration     | Version:  5.x                                   |
|   \\  /    A nd           | Web:      www.OpenFOAM.org                      |
|    \\/     M anipulation  |                                                 |
\*---------------------------------------------------------------------------*/
FoamFile
{
    version     2.0;
    format      ascii;
    class       volVectorField;
    location    "70000";
    object      stored_U;
}
// * * * * * * * * * * * * * * * * * * * * * * * * * * * * * * * * * * * * * //

dimensions      [0 1 -1 0 0 0 0];

internalField   nonuniform List<vector> 
2250
(
(-7.68425e-11 3.98267e-11 -0.001)
(-7.8084e-11 3.32773e-11 -0.001)
(-5.9973e-11 3.06835e-11 -0.001)
(-2.5842e-11 3.42445e-11 -0.001)
(-5.57515e-12 3.82694e-11 -0.001)
(-8.6095e-11 1.12827e-10 -0.001)
(-8.74642e-11 1.02079e-10 -0.001)
(-5.90939e-11 9.63281e-11 -0.001)
(-1.81884e-11 1.02155e-10 -0.001)
(-1.4929e-12 1.09379e-10 -0.001)
(-9.65617e-11 1.70019e-10 -0.001)
(-9.47745e-11 1.54496e-10 -0.001)
(-5.99884e-11 1.45317e-10 -0.001)
(-1.25863e-11 1.52238e-10 -0.001)
(1.85751e-12 1.6156e-10 -0.001)
(-1.07987e-10 1.78996e-10 -0.001)
(-1.12135e-10 1.57843e-10 -0.001)
(-6.13392e-11 1.48102e-10 -0.001)
(-1.61455e-12 1.69818e-10 -0.001)
(8.13504e-12 1.96149e-10 -0.001)
(-1.37884e-10 2.10698e-10 -0.001)
(-1.25701e-10 2.04043e-10 -0.001)
(-4.79895e-11 1.97559e-10 -0.001)
(3.58505e-11 2.13065e-10 -0.001)
(2.85003e-11 2.33088e-10 -0.001)
(-1.9248e-10 1.05466e-10 -0.001)
(-1.74609e-10 9.84312e-11 -0.001)
(-1.26661e-10 9.71759e-11 -0.001)
(-4.83391e-11 1.0634e-10 -0.001)
(-7.70618e-12 1.13181e-10 -0.001)
(-2.07171e-10 3.23174e-10 -0.001)
(-1.83264e-10 3.06144e-10 -0.001)
(-1.18857e-10 2.95135e-10 -0.001)
(-3.20541e-11 3.07712e-10 -0.001)
(-6.20138e-13 3.16986e-10 -0.001)
(-2.29979e-10 5.14093e-10 -0.001)
(-2.02966e-10 4.75976e-10 -0.001)
(-1.25236e-10 4.49186e-10 -0.001)
(-2.58794e-11 4.61229e-10 -0.001)
(2.18756e-12 4.71199e-10 -0.001)
(-2.627e-10 6.05334e-10 -0.001)
(-2.48237e-10 5.30818e-10 -0.001)
(-1.33578e-10 5.10903e-10 -0.001)
(-9.11736e-12 5.57923e-10 -0.001)
(1.02516e-11 5.96268e-10 -0.001)
(-3.48377e-10 6.74007e-10 -0.001)
(-2.97422e-10 6.33488e-10 -0.001)
(-9.80779e-11 6.15057e-10 -0.001)
(6.06536e-11 6.43806e-10 -0.001)
(4.15864e-11 6.749e-10 -0.001)
(-3.0913e-10 1.90972e-10 -0.001)
(-2.45047e-10 1.87464e-10 -0.001)
(-1.74944e-10 1.87279e-10 -0.001)
(-7.36265e-11 1.96169e-10 -0.001)
(-1.51908e-11 1.95874e-10 -0.001)
(-3.22223e-10 5.84303e-10 -0.001)
(-2.49086e-10 5.66616e-10 -0.001)
(-1.66444e-10 5.54935e-10 -0.001)
(-6.46843e-11 5.61996e-10 -0.001)
(-1.51064e-11 5.53881e-10 -0.001)
(-3.41626e-10 9.2979e-10 -0.001)
(-2.7477e-10 8.87733e-10 -0.001)
(-1.79794e-10 8.52912e-10 -0.001)
(-7.36301e-11 8.51568e-10 -0.001)
(-2.21466e-11 8.38691e-10 -0.001)
(-3.78174e-10 1.14238e-09 -0.001)
(-3.25978e-10 1.06557e-09 -0.001)
(-2.02559e-10 1.04153e-09 -0.001)
(-7.72165e-11 1.06424e-09 -0.001)
(-2.62717e-11 1.05633e-09 -0.001)
(-5.04583e-10 1.27498e-09 -0.001)
(-3.75542e-10 1.18059e-09 -0.001)
(-1.81033e-10 1.16202e-09 -0.001)
(-5.67107e-11 1.16719e-09 -0.001)
(-2.79782e-11 1.16346e-09 -0.001)
(-4.68299e-10 2.87564e-10 -0.001)
(-3.5959e-10 2.84649e-10 -0.001)
(-2.64542e-10 2.87276e-10 -0.001)
(-1.43159e-10 2.89539e-10 -0.001)
(-4.44265e-11 2.79861e-10 -0.001)
(-4.74373e-10 8.49673e-10 -0.001)
(-3.60459e-10 8.46965e-10 -0.001)
(-2.60123e-10 8.44993e-10 -0.001)
(-1.50272e-10 8.37835e-10 -0.001)
(-5.36382e-11 8.11566e-10 -0.001)
(-4.67394e-10 1.33185e-09 -0.001)
(-3.64878e-10 1.33568e-09 -0.001)
(-2.74133e-10 1.31354e-09 -0.001)
(-1.75212e-10 1.2874e-09 -0.001)
(-6.91026e-11 1.24777e-09 -0.001)
(-4.65058e-10 1.61557e-09 -0.001)
(-3.7884e-10 1.65309e-09 -0.001)
(-3.08339e-10 1.64093e-09 -0.001)
(-2.13573e-10 1.6007e-09 -0.001)
(-9.07662e-11 1.53645e-09 -0.001)
(-5.91786e-10 1.92033e-09 -0.001)
(-3.39516e-10 1.79801e-09 -0.001)
(-3.26387e-10 1.78441e-09 -0.001)
(-2.76673e-10 1.74126e-09 -0.001)
(-1.30317e-10 1.69451e-09 -0.001)
(-6.97401e-10 3.82501e-10 -0.001)
(-5.71466e-10 3.90278e-10 -0.001)
(-4.28438e-10 3.95313e-10 -0.001)
(-2.65966e-10 3.90908e-10 -0.001)
(-9.22764e-11 3.8246e-10 -0.001)
(-6.86401e-10 1.12304e-09 -0.001)
(-5.5978e-10 1.15506e-09 -0.001)
(-4.2871e-10 1.16418e-09 -0.001)
(-2.78663e-10 1.14889e-09 -0.001)
(-1.00199e-10 1.12434e-09 -0.001)
(-6.47103e-10 1.77172e-09 -0.001)
(-5.31497e-10 1.82654e-09 -0.001)
(-4.35471e-10 1.82483e-09 -0.001)
(-3.04193e-10 1.7878e-09 -0.001)
(-1.14861e-10 1.74223e-09 -0.001)
(-6.05614e-10 2.17067e-09 -0.001)
(-5.06759e-10 2.28698e-09 -0.001)
(-4.67363e-10 2.28502e-09 -0.001)
(-3.57872e-10 2.21425e-09 -0.001)
(-1.42407e-10 2.14045e-09 -0.001)
(-6.9539e-10 2.61692e-09 -0.001)
(-4.17134e-10 2.52375e-09 -0.001)
(-5.07964e-10 2.507e-09 -0.001)
(-4.44504e-10 2.43782e-09 -0.001)
(-1.84472e-10 2.38275e-09 -0.001)
(-9.7422e-10 5.18039e-10 -0.001)
(-8.4916e-10 5.29498e-10 -0.001)
(-6.50223e-10 5.33557e-10 -0.001)
(-4.11952e-10 5.30439e-10 -0.001)
(-1.40875e-10 5.31567e-10 -0.001)
(-9.57138e-10 1.52442e-09 -0.001)
(-8.35323e-10 1.55958e-09 -0.001)
(-6.50527e-10 1.57024e-09 -0.001)
(-4.13735e-10 1.55994e-09 -0.001)
(-1.39038e-10 1.54954e-09 -0.001)
(-9.15347e-10 2.40798e-09 -0.001)
(-8.05101e-10 2.4556e-09 -0.001)
(-6.51065e-10 2.4612e-09 -0.001)
(-4.30455e-10 2.43461e-09 -0.001)
(-1.48631e-10 2.40268e-09 -0.001)
(-8.74964e-10 3.02092e-09 -0.001)
(-7.82217e-10 3.09586e-09 -0.001)
(-6.71365e-10 3.0886e-09 -0.001)
(-4.67555e-10 3.04093e-09 -0.001)
(-1.66416e-10 3.00344e-09 -0.001)
(-9.19135e-10 3.48709e-09 -0.001)
(-7.37423e-10 3.44522e-09 -0.001)
(-7.05694e-10 3.42765e-09 -0.001)
(-5.09789e-10 3.37942e-09 -0.001)
(-1.80561e-10 3.35102e-09 -0.001)
(-1.2998e-09 7.25808e-10 -0.001)
(-1.1634e-09 7.27453e-10 -0.00100001)
(-8.97327e-10 7.31215e-10 -0.00100001)
(-5.58988e-10 7.33181e-10 -0.00100001)
(-1.85875e-10 7.35868e-10 -0.00100001)
(-1.29608e-09 2.12204e-09 -0.001)
(-1.16019e-09 2.12657e-09 -0.001)
(-8.93187e-10 2.13191e-09 -0.001)
(-5.53971e-10 2.1284e-09 -0.00100001)
(-1.82191e-10 2.12167e-09 -0.00100001)
(-1.27912e-09 3.3131e-09 -0.001)
(-1.15588e-09 3.31501e-09 -0.001)
(-8.97077e-10 3.31681e-09 -0.001)
(-5.66237e-10 3.30669e-09 -0.001)
(-1.89062e-10 3.29343e-09 -0.001)
(-1.26861e-09 4.2043e-09 -0.001)
(-1.15664e-09 4.19479e-09 -0.001)
(-9.01317e-10 4.17951e-09 -0.001)
(-5.71071e-10 4.17732e-09 -0.001)
(-1.89446e-10 4.18019e-09 -0.001)
(-1.23526e-09 4.64337e-09 -0.001)
(-1.18061e-09 4.64315e-09 -0.001)
(-9.14118e-10 4.64578e-09 -0.001)
(-5.57483e-10 4.64641e-09 -0.001)
(-1.78607e-10 4.64741e-09 -0.001)
(-1.70335e-09 1.00443e-09 -0.00100001)
(-1.51908e-09 1.00256e-09 -0.00100001)
(-1.17779e-09 1.00417e-09 -0.00100001)
(-7.41485e-10 1.00251e-09 -0.00100001)
(-2.51163e-10 9.94818e-10 -0.00100001)
(-1.7088e-09 2.92377e-09 -0.00100001)
(-1.52211e-09 2.90702e-09 -0.00100001)
(-1.1799e-09 2.89779e-09 -0.00100001)
(-7.50345e-10 2.88779e-09 -0.00100001)
(-2.5752e-10 2.87477e-09 -0.00100001)
(-1.72218e-09 4.52822e-09 -0.001)
(-1.54805e-09 4.49462e-09 -0.00100001)
(-1.19906e-09 4.48123e-09 -0.00100001)
(-7.60446e-10 4.4819e-09 -0.00100001)
(-2.59412e-10 4.4873e-09 -0.00100001)
(-1.73919e-09 5.73319e-09 -0.001)
(-1.56933e-09 5.67574e-09 -0.001)
(-1.19235e-09 5.66072e-09 -0.001)
(-7.35771e-10 5.69389e-09 -0.001)
(-2.44058e-10 5.718e-09 -0.001)
(-1.6639e-09 6.24358e-09 -0.001)
(-1.62037e-09 6.26021e-09 -0.001)
(-1.18032e-09 6.28187e-09 -0.001)
(-6.92068e-10 6.31468e-09 -0.001)
(-2.24856e-10 6.32619e-09 -0.001)
(-2.24322e-09 1.37608e-09 -0.00100001)
(-1.98703e-09 1.36896e-09 -0.00100001)
(-1.57532e-09 1.35803e-09 -0.00100001)
(-1.02668e-09 1.34604e-09 -0.00100001)
(-3.60245e-10 1.33341e-09 -0.00100001)
(-2.25582e-09 3.98715e-09 -0.00100001)
(-2.00873e-09 3.95006e-09 -0.00100001)
(-1.60107e-09 3.91756e-09 -0.00100001)
(-1.05071e-09 3.90091e-09 -0.00100001)
(-3.71138e-10 3.89343e-09 -0.00100001)
(-2.29389e-09 6.16321e-09 -0.00100001)
(-2.0605e-09 6.10084e-09 -0.00100001)
(-1.6272e-09 6.07286e-09 -0.00100001)
(-1.04536e-09 6.08585e-09 -0.00100001)
(-3.61364e-10 6.10388e-09 -0.00100001)
(-2.32017e-09 7.76165e-09 -0.001)
(-2.09938e-09 7.68619e-09 -0.001)
(-1.61568e-09 7.67499e-09 -0.00100001)
(-1.00809e-09 7.71706e-09 -0.00100001)
(-3.4209e-10 7.73046e-09 -0.00100001)
(-2.31696e-09 8.52836e-09 -0.001)
(-2.14733e-09 8.49307e-09 -0.001)
(-1.59555e-09 8.50689e-09 -0.001)
(-9.74815e-10 8.52953e-09 -0.001)
(-3.33659e-10 8.52346e-09 -0.001)
(-3.03335e-09 1.86016e-09 -0.00100001)
(-2.71159e-09 1.83887e-09 -0.00100001)
(-2.18504e-09 1.8196e-09 -0.00100001)
(-1.44016e-09 1.80999e-09 -0.00100001)
(-5.07727e-10 1.81065e-09 -0.00100001)
(-3.05784e-09 5.36869e-09 -0.00100001)
(-2.75717e-09 5.32015e-09 -0.00100001)
(-2.21779e-09 5.29137e-09 -0.00100001)
(-1.44826e-09 5.29239e-09 -0.00100001)
(-5.04724e-10 5.30381e-09 -0.00100001)
(-3.08986e-09 8.31539e-09 -0.00100001)
(-2.79419e-09 8.26254e-09 -0.00100001)
(-2.21654e-09 8.25368e-09 -0.00100001)
(-1.42032e-09 8.27809e-09 -0.00100001)
(-4.87689e-10 8.28271e-09 -0.00100001)
(-3.08757e-09 1.04673e-08 -0.00100001)
(-2.81928e-09 1.04254e-08 -0.00100001)
(-2.20171e-09 1.04117e-08 -0.00100001)
(-1.40341e-09 1.04194e-08 -0.00100001)
(-4.85018e-10 1.03852e-08 -0.00100001)
(-3.14139e-09 1.1601e-08 -0.001)
(-2.84981e-09 1.15351e-08 -0.001)
(-2.22143e-09 1.15249e-08 -0.001)
(-1.42663e-09 1.15004e-08 -0.001)
(-5.02634e-10 1.14579e-08 -0.00100001)
(-4.15993e-09 2.47424e-09 -0.00100002)
(-3.76216e-09 2.46284e-09 -0.00100002)
(-3.01789e-09 2.45854e-09 -0.00100002)
(-1.95799e-09 2.46708e-09 -0.00100002)
(-6.76982e-10 2.48361e-09 -0.00100002)
(-4.17415e-09 7.17348e-09 -0.00100001)
(-3.78467e-09 7.16983e-09 -0.00100002)
(-3.01878e-09 7.18419e-09 -0.00100002)
(-1.93157e-09 7.21258e-09 -0.00100002)
(-6.57168e-10 7.22636e-09 -0.00100002)
(-4.16214e-09 1.11824e-08 -0.00100001)
(-3.75875e-09 1.11949e-08 -0.00100001)
(-2.98021e-09 1.12197e-08 -0.00100001)
(-1.90564e-09 1.1232e-08 -0.00100002)
(-6.51373e-10 1.11958e-08 -0.00100002)
(-4.11123e-09 1.41303e-08 -0.00100001)
(-3.74799e-09 1.41398e-08 -0.00100001)
(-2.98094e-09 1.41013e-08 -0.00100001)
(-1.93397e-09 1.40489e-08 -0.00100001)
(-6.72848e-10 1.3977e-08 -0.00100001)
(-4.11357e-09 1.5663e-08 -0.001)
(-3.78771e-09 1.56407e-08 -0.001)
(-3.06972e-09 1.55974e-08 -0.00100001)
(-2.00288e-09 1.55331e-08 -0.00100001)
(-6.97491e-10 1.54763e-08 -0.00100001)
(-5.64967e-09 3.32578e-09 -0.00100002)
(-5.11867e-09 3.34046e-09 -0.00100002)
(-4.07481e-09 3.35574e-09 -0.00100003)
(-2.60322e-09 3.37662e-09 -0.00100003)
(-8.86197e-10 3.38894e-09 -0.00100003)
(-5.64354e-09 9.68895e-09 -0.00100002)
(-5.09779e-09 9.7371e-09 -0.00100002)
(-4.04541e-09 9.77909e-09 -0.00100002)
(-2.56804e-09 9.80879e-09 -0.00100002)
(-8.69307e-10 9.7941e-09 -0.00100002)
(-5.60646e-09 1.51553e-08 -0.00100002)
(-5.03841e-09 1.51979e-08 -0.00100002)
(-4.00991e-09 1.52164e-08 -0.00100002)
(-2.5743e-09 1.52001e-08 -0.00100002)
(-8.8469e-10 1.51333e-08 -0.00100002)
(-5.56283e-09 1.91892e-08 -0.00100001)
(-5.03748e-09 1.91688e-08 -0.00100001)
(-4.04231e-09 1.90957e-08 -0.00100001)
(-2.62223e-09 1.90335e-08 -0.00100001)
(-9.08377e-10 1.89803e-08 -0.00100002)
(-5.53571e-09 2.12271e-08 -0.001)
(-5.13182e-09 2.11985e-08 -0.00100001)
(-4.14324e-09 2.11393e-08 -0.00100001)
(-2.65298e-09 2.1096e-08 -0.00100001)
(-9.03102e-10 2.10621e-08 -0.00100001)
(-7.63634e-09 4.54393e-09 -0.00100003)
(-6.90492e-09 4.55646e-09 -0.00100003)
(-5.4772e-09 4.57338e-09 -0.00100003)
(-3.48736e-09 4.58924e-09 -0.00100004)
(-1.1875e-09 4.57952e-09 -0.00100004)
(-7.64142e-09 1.32095e-08 -0.00100003)
(-6.88759e-09 1.32448e-08 -0.00100003)
(-5.45353e-09 1.32723e-08 -0.00100003)
(-3.47866e-09 1.32799e-08 -0.00100003)
(-1.19106e-09 1.32319e-08 -0.00100003)
(-7.62782e-09 2.05963e-08 -0.00100002)
(-6.85533e-09 2.06138e-08 -0.00100002)
(-5.45124e-09 2.0609e-08 -0.00100003)
(-3.50903e-09 2.05857e-08 -0.00100003)
(-1.21366e-09 2.05246e-08 -0.00100003)
(-7.63922e-09 2.60165e-08 -0.00100001)
(-6.8759e-09 2.5963e-08 -0.00100002)
(-5.48031e-09 2.59308e-08 -0.00100002)
(-3.52381e-09 2.59277e-08 -0.00100002)
(-1.21463e-09 2.59031e-08 -0.00100002)
(-7.66986e-09 2.88427e-08 -0.00100001)
(-6.941e-09 2.87572e-08 -0.00100001)
(-5.48381e-09 2.87454e-08 -0.00100001)
(-3.48661e-09 2.87585e-08 -0.00100001)
(-1.19088e-09 2.87267e-08 -0.00100001)
(-1.03758e-08 6.18462e-09 -0.00100004)
(-9.37457e-09 6.18868e-09 -0.00100004)
(-7.41159e-09 6.19887e-09 -0.00100005)
(-4.73718e-09 6.2019e-09 -0.00100005)
(-1.62658e-09 6.17493e-09 -0.00100005)
(-1.0399e-08 1.79513e-08 -0.00100004)
(-9.37686e-09 1.79679e-08 -0.00100004)
(-7.41092e-09 1.79742e-08 -0.00100004)
(-4.75791e-09 1.79635e-08 -0.00100004)
(-1.64533e-09 1.79069e-08 -0.00100005)
(-1.04109e-08 2.79243e-08 -0.00100003)
(-9.36979e-09 2.79483e-08 -0.00100003)
(-7.42853e-09 2.79472e-08 -0.00100004)
(-4.77919e-09 2.79388e-08 -0.00100004)
(-1.65361e-09 2.78935e-08 -0.00100004)
(-1.0449e-08 3.51619e-08 -0.00100002)
(-9.35537e-09 3.52129e-08 -0.00100002)
(-7.41865e-09 3.52718e-08 -0.00100003)
(-4.75835e-09 3.53019e-08 -0.00100003)
(-1.63985e-09 3.52442e-08 -0.00100003)
(-1.04967e-08 3.91568e-08 -0.00100001)
(-9.25985e-09 3.90785e-08 -0.00100001)
(-7.33589e-09 3.91225e-08 -0.00100001)
(-4.73855e-09 3.91378e-08 -0.00100002)
(-1.64675e-09 3.90484e-08 -0.00100002)
(-1.40963e-08 8.38627e-09 -0.00100006)
(-1.27185e-08 8.39874e-09 -0.00100006)
(-1.00517e-08 8.40064e-09 -0.00100006)
(-6.45416e-09 8.39407e-09 -0.00100007)
(-2.22912e-09 8.36858e-09 -0.00100007)
(-1.41227e-08 2.43784e-08 -0.00100005)
(-1.27269e-08 2.43938e-08 -0.00100005)
(-1.00737e-08 2.43816e-08 -0.00100006)
(-6.48201e-09 2.43639e-08 -0.00100006)
(-2.24354e-09 2.43177e-08 -0.00100006)
(-1.41533e-08 3.79449e-08 -0.00100004)
(-1.27401e-08 3.79725e-08 -0.00100004)
(-1.00987e-08 3.79662e-08 -0.00100005)
(-6.48377e-09 3.79566e-08 -0.00100005)
(-2.23532e-09 3.78977e-08 -0.00100005)
(-1.42007e-08 4.7761e-08 -0.00100003)
(-1.27074e-08 4.78695e-08 -0.00100003)
(-1.00872e-08 4.79244e-08 -0.00100003)
(-6.47811e-09 4.79101e-08 -0.00100004)
(-2.23336e-09 4.77907e-08 -0.00100004)
(-1.42888e-08 5.32479e-08 -0.00100001)
(-1.25766e-08 5.31457e-08 -0.00100002)
(-1.00531e-08 5.3151e-08 -0.00100002)
(-6.52499e-09 5.31067e-08 -0.00100002)
(-2.26713e-09 5.29605e-08 -0.00100002)
(-1.91037e-08 1.14292e-08 -0.00100008)
(-1.72059e-08 1.1428e-08 -0.00100008)
(-1.36265e-08 1.14192e-08 -0.00100009)
(-8.76472e-09 1.14108e-08 -0.00100009)
(-3.02967e-09 1.13909e-08 -0.00100009)
(-1.91576e-08 3.3212e-08 -0.00100007)
(-1.72472e-08 3.31857e-08 -0.00100007)
(-1.36674e-08 3.31518e-08 -0.00100008)
(-8.78725e-09 3.3131e-08 -0.00100008)
(-3.03449e-09 3.30772e-08 -0.00100008)
(-1.922e-08 5.16785e-08 -0.00100006)
(-1.72999e-08 5.16526e-08 -0.00100006)
(-1.37046e-08 5.16097e-08 -0.00100007)
(-8.79267e-09 5.1575e-08 -0.00100007)
(-3.02897e-09 5.14761e-08 -0.00100007)
(-1.92989e-08 6.50844e-08 -0.00100004)
(-1.73186e-08 6.50845e-08 -0.00100004)
(-1.37417e-08 6.50504e-08 -0.00100005)
(-8.82225e-09 6.4994e-08 -0.00100005)
(-3.03935e-09 6.48581e-08 -0.00100005)
(-1.95046e-08 7.24345e-08 -0.00100001)
(-1.73338e-08 7.22135e-08 -0.00100002)
(-1.37882e-08 7.21315e-08 -0.00100003)
(-8.859e-09 7.20596e-08 -0.00100003)
(-3.04572e-09 7.19099e-08 -0.00100003)
(-2.59195e-08 1.55766e-08 -0.0010001)
(-2.3319e-08 1.55581e-08 -0.00100011)
(-1.84684e-08 1.55484e-08 -0.00100012)
(-1.18838e-08 1.55374e-08 -0.00100012)
(-4.10856e-09 1.55023e-08 -0.00100013)
(-2.60047e-08 4.52051e-08 -0.00100009)
(-2.33898e-08 4.51563e-08 -0.0010001)
(-1.85214e-08 4.51143e-08 -0.00100011)
(-1.19221e-08 4.50784e-08 -0.00100011)
(-4.12312e-09 4.49838e-08 -0.00100012)
(-2.6081e-08 7.02927e-08 -0.00100008)
(-2.34559e-08 7.02429e-08 -0.00100008)
(-1.85781e-08 7.01658e-08 -0.00100009)
(-1.19509e-08 7.01059e-08 -0.00100009)
(-4.12899e-09 6.99736e-08 -0.0010001)
(-2.61947e-08 8.85081e-08 -0.00100005)
(-2.35202e-08 8.84533e-08 -0.00100006)
(-1.86538e-08 8.8376e-08 -0.00100006)
(-1.198e-08 8.83323e-08 -0.00100007)
(-4.12722e-09 8.81958e-08 -0.00100007)
(-2.64811e-08 9.84117e-08 -0.00100002)
(-2.35879e-08 9.80997e-08 -0.00100003)
(-1.86898e-08 9.79769e-08 -0.00100003)
(-1.19594e-08 9.7927e-08 -0.00100004)
(-4.10312e-09 9.77626e-08 -0.00100004)
(-3.51722e-08 2.11683e-08 -0.00100014)
(-3.16166e-08 2.11731e-08 -0.00100015)
(-2.50373e-08 2.11618e-08 -0.00100016)
(-1.61436e-08 2.11341e-08 -0.00100017)
(-5.59184e-09 2.10754e-08 -0.00100017)
(-3.52484e-08 6.1449e-08 -0.00100013)
(-3.16811e-08 6.14348e-08 -0.00100014)
(-2.51202e-08 6.13768e-08 -0.00100015)
(-1.62194e-08 6.13117e-08 -0.00100015)
(-5.62253e-09 6.11805e-08 -0.00100016)
(-3.53295e-08 9.55898e-08 -0.0010001)
(-3.17516e-08 9.5532e-08 -0.00100011)
(-2.52037e-08 9.54244e-08 -0.00100012)
(-1.62534e-08 9.53562e-08 -0.00100013)
(-5.62191e-09 9.51937e-08 -0.00100013)
(-3.54987e-08 1.20342e-07 -0.00100007)
(-3.18512e-08 1.20283e-07 -0.00100008)
(-2.52898e-08 1.20206e-07 -0.00100009)
(-1.62671e-08 1.20168e-07 -0.00100009)
(-5.61031e-09 1.1996e-07 -0.0010001)
(-3.58673e-08 1.33772e-07 -0.00100003)
(-3.18875e-08 1.33388e-07 -0.00100004)
(-2.53055e-08 1.3323e-07 -0.00100005)
(-1.62652e-08 1.33158e-07 -0.00100005)
(-5.60851e-09 1.32897e-07 -0.00100006)
(-4.76836e-08 2.87968e-08 -0.00100019)
(-4.28566e-08 2.88053e-08 -0.00100021)
(-3.39937e-08 2.87729e-08 -0.00100022)
(-2.19496e-08 2.87347e-08 -0.00100023)
(-7.60535e-09 2.86755e-08 -0.00100023)
(-4.77764e-08 8.36093e-08 -0.00100017)
(-4.29595e-08 8.35661e-08 -0.00100019)
(-3.4124e-08 8.34721e-08 -0.0010002)
(-2.20324e-08 8.34039e-08 -0.00100021)
(-7.6265e-09 8.32533e-08 -0.00100021)
(-4.79022e-08 1.30071e-07 -0.00100014)
(-4.30793e-08 1.29935e-07 -0.00100015)
(-3.42149e-08 1.29807e-07 -0.00100017)
(-2.20505e-08 1.29739e-07 -0.00100017)
(-7.61806e-09 1.29499e-07 -0.00100018)
(-4.81424e-08 1.63749e-07 -0.00100009)
(-4.32304e-08 1.63623e-07 -0.00100011)
(-3.43109e-08 1.63528e-07 -0.00100012)
(-2.20904e-08 1.63436e-07 -0.00100013)
(-7.62832e-09 1.6309e-07 -0.00100013)
(-4.86035e-08 1.81879e-07 -0.00100004)
(-4.33e-08 1.81432e-07 -0.00100005)
(-3.43848e-08 1.81197e-07 -0.00100006)
(-2.21695e-08 1.8103e-07 -0.00100007)
(-7.66222e-09 1.80626e-07 -0.00100008)
(-6.47113e-08 3.91873e-08 -0.00100026)
(-5.81851e-08 3.91596e-08 -0.00100028)
(-4.61565e-08 3.91224e-08 -0.0010003)
(-2.97474e-08 3.91055e-08 -0.00100031)
(-1.02824e-08 3.90435e-08 -0.00100031)
(-6.48729e-08 1.13734e-07 -0.00100024)
(-5.83577e-08 1.13624e-07 -0.00100026)
(-4.62919e-08 1.13538e-07 -0.00100027)
(-2.98064e-08 1.13498e-07 -0.00100028)
(-1.02925e-08 1.13291e-07 -0.00100029)
(-6.50315e-08 1.76878e-07 -0.00100019)
(-5.84973e-08 1.76698e-07 -0.00100021)
(-4.63632e-08 1.76577e-07 -0.00100023)
(-2.98337e-08 1.76483e-07 -0.00100024)
(-1.03012e-08 1.76119e-07 -0.00100024)
(-6.52886e-08 2.22713e-07 -0.00100013)
(-5.86674e-08 2.22564e-07 -0.00100015)
(-4.64955e-08 2.22405e-07 -0.00100016)
(-2.99247e-08 2.22218e-07 -0.00100017)
(-1.03315e-08 2.21731e-07 -0.00100018)
(-6.57443e-08 2.47194e-07 -0.00100005)
(-5.88051e-08 2.46734e-07 -0.00100007)
(-4.66854e-08 2.46379e-07 -0.00100009)
(-3.00734e-08 2.46095e-07 -0.0010001)
(-1.0377e-08 2.45532e-07 -0.00100011)
(-8.78682e-08 5.32563e-08 -0.00100036)
(-7.89547e-08 5.32433e-08 -0.00100038)
(-6.24938e-08 5.32401e-08 -0.0010004)
(-4.01682e-08 5.32443e-08 -0.00100042)
(-1.38585e-08 5.31447e-08 -0.00100043)
(-8.80535e-08 1.54588e-07 -0.00100032)
(-7.91173e-08 1.54524e-07 -0.00100035)
(-6.26032e-08 1.54489e-07 -0.00100037)
(-4.02362e-08 1.54454e-07 -0.00100039)
(-1.38871e-08 1.54156e-07 -0.00100039)
(-8.81786e-08 2.40464e-07 -0.00100026)
(-7.92126e-08 2.4032e-07 -0.00100028)
(-6.2673e-08 2.40182e-07 -0.00100031)
(-4.02812e-08 2.40038e-07 -0.00100032)
(-1.38998e-08 2.39559e-07 -0.00100033)
(-8.84506e-08 3.02954e-07 -0.00100017)
(-7.94116e-08 3.02721e-07 -0.0010002)
(-6.28687e-08 3.02421e-07 -0.00100022)
(-4.03956e-08 3.02136e-07 -0.00100024)
(-1.39241e-08 3.01487e-07 -0.00100024)
(-8.89974e-08 3.36177e-07 -0.00100007)
(-7.97446e-08 3.35521e-07 -0.0010001)
(-6.32262e-08 3.34961e-07 -0.00100012)
(-4.06232e-08 3.34527e-07 -0.00100013)
(-1.39878e-08 3.33736e-07 -0.00100014)
(-1.1919e-07 7.24155e-08 -0.00100048)
(-1.06873e-07 7.24604e-08 -0.00100052)
(-8.44072e-08 7.24912e-08 -0.00100055)
(-5.41724e-08 7.25e-08 -0.00100057)
(-1.8682e-08 7.23695e-08 -0.00100058)
(-1.1934e-07 2.10221e-07 -0.00100044)
(-1.06996e-07 2.10261e-07 -0.00100047)
(-8.45173e-08 2.1027e-07 -0.0010005)
(-5.4256e-08 2.10249e-07 -0.00100052)
(-1.87154e-08 2.09882e-07 -0.00100054)
(-1.19395e-07 3.27029e-07 -0.00100035)
(-1.07039e-07 3.26908e-07 -0.00100039)
(-8.4568e-08 3.26744e-07 -0.00100042)
(-5.4261e-08 3.26597e-07 -0.00100044)
(-1.86993e-08 3.25979e-07 -0.00100045)
(-1.19729e-07 4.12134e-07 -0.00100023)
(-1.07297e-07 4.11679e-07 -0.00100027)
(-8.48068e-08 4.11216e-07 -0.0010003)
(-5.43889e-08 4.10839e-07 -0.00100032)
(-1.87298e-08 4.09939e-07 -0.00100033)
(-1.20594e-07 4.57324e-07 -0.00100009)
(-1.07956e-07 4.56196e-07 -0.00100013)
(-8.53638e-08 4.55326e-07 -0.00100016)
(-5.47319e-08 4.54674e-07 -0.00100018)
(-1.88357e-08 4.53545e-07 -0.00100019)
(-1.61632e-07 9.85592e-08 -0.00100066)
(-1.44533e-07 9.86714e-08 -0.00100071)
(-1.1391e-07 9.87586e-08 -0.00100075)
(-7.29907e-08 9.8813e-08 -0.00100078)
(-2.51485e-08 9.86741e-08 -0.00100079)
(-1.61695e-07 2.86019e-07 -0.0010006)
(-1.44602e-07 2.86226e-07 -0.00100064)
(-1.1397e-07 2.86369e-07 -0.00100068)
(-7.30214e-08 2.86454e-07 -0.00100071)
(-2.51544e-08 2.86004e-07 -0.00100073)
(-1.61554e-07 4.4478e-07 -0.00100048)
(-1.44476e-07 4.44792e-07 -0.00100053)
(-1.13883e-07 4.44718e-07 -0.00100057)
(-7.2945e-08 4.4462e-07 -0.0010006)
(-2.51213e-08 4.43782e-07 -0.00100061)
(-1.61854e-07 5.60368e-07 -0.00100032)
(-1.44685e-07 5.59821e-07 -0.00100037)
(-1.14113e-07 5.59264e-07 -0.00100041)
(-7.30965e-08 5.5877e-07 -0.00100043)
(-2.51701e-08 5.57514e-07 -0.00100045)
(-1.6306e-07 6.21843e-07 -0.00100013)
(-1.45579e-07 6.2016e-07 -0.00100018)
(-1.14873e-07 6.18887e-07 -0.00100022)
(-7.35952e-08 6.1791e-07 -0.00100025)
(-2.53356e-08 6.16306e-07 -0.00100026)
(-2.19299e-07 1.34161e-07 -0.0010009)
(-1.9543e-07 1.34473e-07 -0.00100096)
(-1.5358e-07 1.34724e-07 -0.00100102)
(-9.81826e-08 1.34897e-07 -0.00100106)
(-3.3771e-08 1.34733e-07 -0.00100107)
(-2.19042e-07 3.8925e-07 -0.00100081)
(-1.95227e-07 3.89924e-07 -0.00100088)
(-1.53426e-07 3.90433e-07 -0.00100093)
(-9.80968e-08 3.90749e-07 -0.00100097)
(-3.3752e-08 3.90191e-07 -0.00100099)
(-2.18351e-07 6.05029e-07 -0.00100065)
(-1.9464e-07 6.0546e-07 -0.00100072)
(-1.53024e-07 6.05671e-07 -0.00100077)
(-9.78627e-08 6.05711e-07 -0.00100081)
(-3.36772e-08 6.04644e-07 -0.00100083)
(-2.1837e-07 7.61825e-07 -0.00100043)
(-1.94615e-07 7.61365e-07 -0.0010005)
(-1.53135e-07 7.60766e-07 -0.00100055)
(-9.79496e-08 7.60157e-07 -0.00100059)
(-3.36974e-08 7.58483e-07 -0.00100061)
(-2.19905e-07 8.45297e-07 -0.00100018)
(-1.95698e-07 8.4295e-07 -0.00100024)
(-1.5415e-07 8.41079e-07 -0.00100029)
(-9.86453e-08 8.3959e-07 -0.00100033)
(-3.39294e-08 8.37326e-07 -0.00100035)
(-2.97688e-07 1.82796e-07 -0.00100122)
(-2.64109e-07 1.83555e-07 -0.00100131)
(-2.06854e-07 1.8415e-07 -0.00100138)
(-1.31884e-07 1.84553e-07 -0.00100144)
(-4.5253e-08 1.84395e-07 -0.00100146)
(-2.96623e-07 5.30114e-07 -0.00100111)
(-2.63233e-07 5.31813e-07 -0.00100119)
(-2.06213e-07 5.33112e-07 -0.00100127)
(-1.31526e-07 5.33966e-07 -0.00100132)
(-4.51583e-08 5.33415e-07 -0.00100134)
(-2.94669e-07 8.23262e-07 -0.00100089)
(-2.61636e-07 8.24642e-07 -0.00100097)
(-2.05059e-07 8.25578e-07 -0.00100105)
(-1.30806e-07 8.26118e-07 -0.0010011)
(-4.49102e-08 8.24912e-07 -0.00100112)
(-2.93869e-07 1.03574e-06 -0.00100059)
(-2.60957e-07 1.03553e-06 -0.00100068)
(-2.04682e-07 1.03505e-06 -0.00100075)
(-1.30587e-07 1.0345e-06 -0.00100079)
(-4.48319e-08 1.03235e-06 -0.00100082)
(-2.95714e-07 1.14868e-06 -0.00100024)
(-2.62327e-07 1.14542e-06 -0.00100033)
(-2.05981e-07 1.14263e-06 -0.0010004)
(-1.31461e-07 1.14041e-06 -0.00100045)
(-4.51231e-08 1.13722e-06 -0.00100047)
(-4.04617e-07 2.49407e-07 -0.00100167)
(-3.57012e-07 2.51115e-07 -0.00100179)
(-2.78468e-07 2.5244e-07 -0.00100189)
(-1.76884e-07 2.53398e-07 -0.00100196)
(-6.03595e-08 2.5336e-07 -0.00100199)
(-4.0173e-07 7.22549e-07 -0.00100151)
(-3.54602e-07 7.26596e-07 -0.00100163)
(-2.7665e-07 7.29675e-07 -0.00100172)
(-1.75794e-07 7.3189e-07 -0.00100179)
(-6.0046e-08 7.31556e-07 -0.00100182)
(-3.96901e-07 1.12044e-06 -0.00100121)
(-3.5058e-07 1.12424e-06 -0.00100132)
(-2.73643e-07 1.12696e-06 -0.00100142)
(-1.7393e-07 1.12883e-06 -0.00100148)
(-5.94661e-08 1.12754e-06 -0.00100151)
(-3.93943e-07 1.40788e-06 -0.00100081)
(-3.48129e-07 1.40863e-06 -0.00100092)
(-2.71975e-07 1.40877e-06 -0.00100101)
(-1.73019e-07 1.40867e-06 -0.00100107)
(-5.92408e-08 1.40581e-06 -0.0010011)
(-3.958e-07 1.56004e-06 -0.00100033)
(-3.49691e-07 1.55555e-06 -0.00100044)
(-2.73457e-07 1.55146e-06 -0.00100053)
(-1.74094e-07 1.54825e-06 -0.0010006)
(-5.9671e-08 1.54359e-06 -0.00100063)
(-5.51074e-07 3.4091e-07 -0.00100228)
(-4.82896e-07 3.44862e-07 -0.00100245)
(-3.7477e-07 3.47694e-07 -0.00100257)
(-2.3679e-07 3.4998e-07 -0.00100267)
(-7.95876e-08 3.50144e-07 -0.00100271)
(-5.44096e-07 9.86321e-07 -0.00100206)
(-4.76907e-07 9.95863e-07 -0.00100222)
(-3.70239e-07 1.00262e-06 -0.00100234)
(-2.34072e-07 1.00803e-06 -0.00100244)
(-7.89281e-08 1.00801e-06 -0.00100248)
(-5.33027e-07 1.52592e-06 -0.00100165)
(-4.67496e-07 1.53544e-06 -0.0010018)
(-3.63209e-07 1.54187e-06 -0.00100192)
(-2.29906e-07 1.54685e-06 -0.00100201)
(-7.79091e-08 1.54539e-06 -0.00100204)
(-5.25171e-07 1.9132e-06 -0.0010011)
(-4.61031e-07 1.91685e-06 -0.00100124)
(-3.58716e-07 1.91853e-06 -0.00100135)
(-2.27549e-07 1.91976e-06 -0.00100144)
(-7.75231e-08 1.91573e-06 -0.00100148)
(-5.26265e-07 2.11682e-06 -0.00100046)
(-4.62166e-07 2.11086e-06 -0.0010006)
(-3.6009e-07 2.10477e-06 -0.00100071)
(-2.28877e-07 2.10021e-06 -0.00100079)
(-7.83102e-08 2.09305e-06 -0.00100084)
(-7.52457e-07 4.67663e-07 -0.00100311)
(-6.5355e-07 4.76794e-07 -0.00100336)
(-5.04778e-07 4.82248e-07 -0.00100351)
(-3.16847e-07 4.87829e-07 -0.00100367)
(-1.01647e-07 4.87952e-07 -0.0010037)
(-7.3693e-07 1.3504e-06 -0.00100281)
(-6.39931e-07 1.37253e-06 -0.00100304)
(-4.94453e-07 1.38567e-06 -0.00100318)
(-3.10707e-07 1.39901e-06 -0.00100332)
(-1.00808e-07 1.39863e-06 -0.00100336)
(-7.12869e-07 2.08072e-06 -0.00100224)
(-6.19416e-07 2.10351e-06 -0.00100244)
(-4.79041e-07 2.11629e-06 -0.00100259)
(-3.01747e-07 2.12932e-06 -0.00100271)
(-9.96365e-08 2.12658e-06 -0.00100275)
(-6.94545e-07 2.59856e-06 -0.00100149)
(-6.0446e-07 2.61004e-06 -0.00100167)
(-4.68498e-07 2.61436e-06 -0.00100181)
(-2.96271e-07 2.62007e-06 -0.00100192)
(-9.95672e-08 2.61349e-06 -0.00100196)
(-6.93283e-07 2.86766e-06 -0.00100063)
(-6.03611e-07 2.86077e-06 -0.0010008)
(-4.68736e-07 2.85097e-06 -0.00100094)
(-2.97383e-07 2.84511e-06 -0.00100104)
(-1.01219e-07 2.83323e-06 -0.00100109)
(-1.03167e-06 6.44179e-07 -0.00100423)
(-8.85826e-07 6.66719e-07 -0.00100466)
(-6.82104e-07 6.74971e-07 -0.00100479)
(-4.26944e-07 6.89866e-07 -0.00100508)
(-1.16631e-07 6.88064e-07 -0.00100506)
(-9.98797e-07 1.85569e-06 -0.00100381)
(-8.56103e-07 1.91034e-06 -0.00100418)
(-6.59735e-07 1.93e-06 -0.00100431)
(-4.13103e-07 1.96653e-06 -0.00100457)
(-1.17342e-07 1.96055e-06 -0.00100455)
(-9.47613e-07 2.84061e-06 -0.00100302)
(-8.12873e-07 2.89784e-06 -0.00100332)
(-6.26784e-07 2.91632e-06 -0.00100346)
(-3.93283e-07 2.95367e-06 -0.00100365)
(-1.19117e-07 2.94239e-06 -0.00100366)
(-9.07087e-07 3.52534e-06 -0.00100201)
(-7.8052e-07 3.55901e-06 -0.00100225)
(-6.03691e-07 3.56417e-06 -0.00100239)
(-3.81266e-07 3.58576e-06 -0.00100255)
(-1.22991e-07 3.57008e-06 -0.00100258)
(-9.00352e-07 3.87255e-06 -0.00100086)
(-7.74033e-07 3.86947e-06 -0.00100106)
(-5.99647e-07 3.85e-06 -0.00100121)
(-3.80145e-07 3.84575e-06 -0.00100134)
(-1.27832e-07 3.82247e-06 -0.00100139)
(-1.42349e-06 8.87763e-07 -0.00100567)
(-1.20604e-06 9.50788e-07 -0.0010066)
(-9.23922e-07 9.54308e-07 -0.00100646)
(-5.95071e-07 9.97256e-07 -0.00100716)
(-8.47514e-08 9.86011e-07 -0.00100693)
(-1.35645e-06 2.55596e-06 -0.0010051)
(-1.14042e-06 2.7085e-06 -0.00100587)
(-8.78128e-07 2.71303e-06 -0.00100576)
(-5.62013e-07 2.82328e-06 -0.00100636)
(-9.41737e-08 2.78914e-06 -0.00100616)
(-1.24829e-06 3.87596e-06 -0.00100401)
(-1.0504e-06 4.03681e-06 -0.00100455)
(-8.10008e-07 4.03257e-06 -0.00100453)
(-5.14203e-07 4.15056e-06 -0.00100494)
(-1.13353e-07 4.09858e-06 -0.00100482)
(-1.15991e-06 4.76728e-06 -0.00100268)
(-9.8396e-07 4.8731e-06 -0.00100303)
(-7.64069e-07 4.85538e-06 -0.0010031)
(-4.87712e-07 4.93589e-06 -0.00100336)
(-1.37672e-07 4.88422e-06 -0.00100335)
(-1.14221e-06 5.19529e-06 -0.00100114)
(-9.62287e-07 5.22104e-06 -0.00100136)
(-7.46687e-07 5.16588e-06 -0.0010015)
(-4.75205e-07 5.17962e-06 -0.00100164)
(-1.54907e-07 5.12218e-06 -0.00100169)
(-1.9734e-06 1.21317e-06 -0.0010074)
(-1.67402e-06 1.39575e-06 -0.00100963)
(-1.23841e-06 1.36564e-06 -0.00100863)
(-9.00762e-07 1.48429e-06 -0.00101033)
(1.0453e-07 1.44335e-06 -0.00100952)
(-1.84577e-06 3.51575e-06 -0.00100666)
(-1.52158e-06 3.96269e-06 -0.00100845)
(-1.14998e-06 3.86077e-06 -0.00100758)
(-8.2046e-07 4.18576e-06 -0.00100903)
(6.70324e-08 4.05702e-06 -0.00100833)
(-1.61984e-06 5.25831e-06 -0.00100512)
(-1.33002e-06 5.73993e-06 -0.00100628)
(-1.01583e-06 5.58286e-06 -0.00100572)
(-6.96631e-07 5.94738e-06 -0.00100665)
(-1.41894e-08 5.75331e-06 -0.00100619)
(-1.42414e-06 6.39056e-06 -0.00100347)
(-1.1972e-06 6.74508e-06 -0.0010041)
(-9.42075e-07 6.59263e-06 -0.00100389)
(-6.37308e-07 6.87792e-06 -0.00100446)
(-1.12673e-07 6.70602e-06 -0.0010043)
(-1.38775e-06 6.86546e-06 -0.00100145)
(-1.12793e-06 7.03302e-06 -0.00100162)
(-8.82251e-07 6.83242e-06 -0.00100164)
(-5.68382e-07 6.9288e-06 -0.00100178)
(-1.70162e-07 6.76289e-06 -0.00100178)
(-2.71066e-06 1.62024e-06 -0.00100933)
(-2.43579e-06 2.11369e-06 -0.00101441)