/*--------------------------------*- C++ -*----------------------------------*\
| =========                 |                                                 |
| \\      /  F ield         | OpenFOAM: The Open Source CFD Toolbox           |
|  \\    /   O peration     | Version:  5.x                                   |
|   \\  /    A nd           | Web:      www.OpenFOAM.org                      |
|    \\/     M anipulation  |                                                 |
\*---------------------------------------------------------------------------*/
FoamFile
{
    version     2.0;
    format      ascii;
    class       surfaceScalarField;
    location    "8000";
    object      phi;
}
// * * * * * * * * * * * * * * * * * * * * * * * * * * * * * * * * * * * * * //

dimensions      [0 3 -1 0 0 0 0];

internalField   nonuniform List<scalar> 
179
(
2.76478e+07
2.76527e+07
2.76577e+07
2.7663e+07
2.76672e+07
2.76687e+07
2.76696e+07
2.76719e+07
2.76726e+07
2.76654e+07
2.76506e+07
2.76434e+07
2.76521e+07
2.76559e+07
2.76745e+07
2.7698e+07
2.77394e+07
2.77953e+07
2.78485e+07
2.79059e+07
2.79594e+07
2.80171e+07
2.80766e+07
2.81369e+07
2.82011e+07
2.82706e+07
2.83401e+07
2.84103e+07
2.8479e+07
2.85438e+07
2.86043e+07
2.86631e+07
2.87161e+07
2.87667e+07
2.88182e+07
2.88484e+07
2.8863e+07
2.88818e+07
2.8905e+07
2.89203e+07
2.89287e+07
2.89291e+07
2.89306e+07
2.89292e+07
2.89207e+07
2.89213e+07
2.89317e+07
2.8935e+07
2.89446e+07
2.89487e+07
2.89518e+07
2.89412e+07
2.89201e+07
2.89048e+07
2.88996e+07
2.88893e+07
2.88658e+07
2.88361e+07
2.87999e+07
2.87523e+07
2.8697e+07
2.86322e+07
2.85636e+07
2.84795e+07
2.84155e+07
2.83447e+07
2.82833e+07
2.82238e+07
2.81772e+07
2.81453e+07
2.81317e+07
2.81116e+07
2.81145e+07
2.81419e+07
2.81788e+07
2.82166e+07
2.82546e+07
2.82849e+07
2.83093e+07
2.8329e+07
2.83418e+07
2.83446e+07
2.83453e+07
2.83425e+07
2.8349e+07
2.83484e+07
2.83511e+07
2.83558e+07
2.83589e+07
2.83775e+07
2.83935e+07
2.8411e+07
2.84217e+07
2.84299e+07
2.8452e+07
2.84786e+07
2.85108e+07
2.85476e+07
2.85894e+07
2.86318e+07
2.86635e+07
2.86991e+07
2.87498e+07
2.88341e+07
2.89676e+07
2.91663e+07
2.94275e+07
2.97392e+07
3.00825e+07
3.0445e+07
3.08025e+07
3.1133e+07
3.14198e+07
3.16618e+07
3.18488e+07
3.19842e+07
3.20476e+07
3.20718e+07
3.20573e+07
3.2041e+07
3.20239e+07
3.19953e+07
3.19459e+07
3.1849e+07
3.17441e+07
3.16174e+07
3.14709e+07
3.13448e+07
3.121e+07
3.10761e+07
3.09324e+07
3.07745e+07
3.05906e+07
3.04016e+07
3.0168e+07
2.98837e+07
2.95431e+07
2.9158e+07
2.87516e+07
2.83304e+07
2.79102e+07
2.7463e+07
2.70187e+07
2.65724e+07
2.61381e+07
2.5714e+07
2.53089e+07
2.49273e+07
2.45754e+07
2.42708e+07
2.40051e+07
2.37681e+07
2.35556e+07
2.3376e+07
2.32315e+07
2.31312e+07
2.30878e+07
2.31005e+07
2.31718e+07
2.33051e+07
2.34993e+07
2.37428e+07
2.40239e+07
2.43241e+07
2.4655e+07
2.4994e+07
2.53158e+07
2.55776e+07
2.57644e+07
2.58686e+07
2.59076e+07
2.58957e+07
2.58054e+07
2.57079e+07
2.55694e+07
2.54602e+07
2.53676e+07
2.53071e+07
2.5253e+07
)
;

boundaryField
{
    inlet
    {
        type            calculated;
        value           uniform 2.51894e+07;
    }
    outlet
    {
        type            calculated;
        value           uniform -2.76442e+07;
    }
    repeat_boundary
    {
        type            calculated;
        value           uniform 0;
    }
    procBoundary1to0
    {
        type            processor;
        value           nonuniform List<scalar> 
180
(
-1416.1
-2575.56
-2520.83
-2718.19
-2328.48
-1222.32
-1515.89
-3895.46
-3317.95
-1968.72
-1762.71
-3792.86
-6332.86
-34.8748
-8513.75
-12930
-26019
-37137
-42141.6
-41729.6
-38057.8
-43096.9
-44983.2
-45638.4
-49410.8
-50437.6
-50446.9
-51452.7
-47801.9
-46452.8
-47577.4
-47059.6
-45326.2
-46013.5
-48267.9
-31337.3
-19060.5
-21322.5
-27385.6
-23047.8
-13477
-4736.58
-6023.53
1970.7
13074.6
9509.17
2317.42
-4226.51
-4616.4
1169.21
11977.5
20358.9
25030.7
19376.1
14090.4
22116.7
28253.5
33052.5
33750.2
41517.8
47529.4
52633.9
49674.7
59766.9
44807
57441.1
58020.4
58478
50292.8
44198.2
30001.6
31209.9
19982.7
8333.69
1774.49
-2184.25
-3005.61
-7198.15
-8186.96
-13463
-15823.4
-13665.3
-25664.7
-24230
-36153.8
-29458.2
-40476.8
-48361.8
-47090.1
-64338.8
-61621.4
-59725.1
-50454.8
-48250.3
-60579.9
-63822.5
-67246.9
-70379.3
-73874.6
-77514.8
-64964.7
-66740.8
-62994
-54835.6
-54666.7
-61277.2
-74192.6
-84174.3
-86053.1
-87557.9
-81942.5
-67432.6
-49647.4
-32833.4
-13688.9
6045.94
36445.9
48982.6
65815.1
49948
30843.1
32654.5
40808.6
69068.9
56391.4
57702.9
56824.5
31552
25562.9
12973
6119.06
2078.56
11195.5
17757
48375.8
87578.9
131233
165507
186421
202782
210017
231190
230528
233375
231192
229246
221450
213756
205592
188740
180482
186526
200571
208357
217447
223956
225275
224015
226062
225937
225431
222248
210250
200163
152809
109837
74964.5
77671.1
77614.1
80148.2
75335
68186.3
83600.1
77381.5
74381
68796.6
69603
61439.8
70328.1
104961
)
;
    }
    procBoundary1to3
    {
        type            processor;
        value           nonuniform List<scalar> 
180
(
-2183.56
-2322.89
-2451.36
-2597.27
-1840.57
-301.932
659.504
1566.44
2600.89
9183.5
16596.2
10980
-2425.11
-3739.33
-10037.3
-10630.4
-15299.2
-18794.4
-11102.2
-15680.9
-15397
-14644.2
-14480.6
-14659.4
-14788.7
-19089.4
-19028.6
-18789.9
-20816.2
-18407.8
-12949.3
-11732.9
-7616.02
-4575.92
-3238.63
1068.11
4530.1
2467.69
4183.69
7769.71
5070.74
4320.36
4537.87
-537.567
-4608.82
-10110.8
-12709.3
922.344
-4959.94
-5310.94
-15032.6
-9730.03
-3924.32
-4113.91
-8922.71
-11829.4
-4689.98
-3417.71
2448.03
6101.61
7780.1
12196.7
18896.2
24334.9
19181.9
13391.8
3352.38
1045.05
-3703.12
-12322.2
-16373
-11081.2
-22899.3
-35761
-38635.1
-35675.6
-34973.5
-23080.3
-16227.5
-6211.5
3009.03
10908.7
24946.9
27013.6
29639.8
30011.6
37810.9
43718.6
43991.7
45686.5
45594.9
42293.8
39688
40103.2
38489.9
37155
35079.6
33574.6
32105.6
35064.2
33324.9
31092.3
12329
-29442.5
-78909.1
-137391
-187044
-227479
-257261
-274958
-275536
-263030
-237141
-209246
-173314
-141405
-99806.1
-73182.9
-51342.2
-33695.7
-13667
-4097.89
8591.72
27815.4
48487.5
68980.6
89709
94522.5
109230
120966
137584
155813
172718
171198
185276
196719
209372
219598
220013
218327
210214
216013
213797
212896
203159
194815
183611
167866
146279
115912
85200.7
50466.1
11909.9
-28672
-73002.8
-123621
-181850
-236733
-297367
-359297
-419551
-465755
-491406
-500379
-483668
-448862
-396715
-339537
-264336
-184385
-114310
-56273.6
6699.49
20107.6
64117.4
40410.1
22983.1
-1007.57
-16153.2
-41352.7
)
;
    }
}


// ************************************************************************* //
