/*--------------------------------*- C++ -*----------------------------------*\
| =========                 |                                                 |
| \\      /  F ield         | OpenFOAM: The Open Source CFD Toolbox           |
|  \\    /   O peration     | Version:  5.x                                   |
|   \\  /    A nd           | Web:      www.OpenFOAM.org                      |
|    \\/     M anipulation  |                                                 |
\*---------------------------------------------------------------------------*/
FoamFile
{
    version     2.0;
    format      ascii;
    class       volVectorField;
    location    "8000";
    object      U;
}
// * * * * * * * * * * * * * * * * * * * * * * * * * * * * * * * * * * * * * //

dimensions      [0 1 -1 0 0 0 0];

internalField   nonuniform List<vector> 
180
(
(0.050225 -0.0845167 110.116)
(0.0764831 -0.0867942 110.869)
(0.0979491 -0.0880475 110.818)
(0.100261 -0.0892456 110.701)
(0.0951687 -0.0742402 110.618)
(0.0556287 -0.0292101 110.811)
(0.0551998 0.024647 110.392)
(0.167053 -0.00888728 110.683)
(0.207197 -0.00290452 110.797)
(0.0157634 0.312909 110.834)
(-0.115245 0.57849 110.417)
(0.00378553 0.366101 110.767)
(0.609462 -0.292101 110.45)
(0.618442 -0.33766 110.575)
(0.839224 -0.554575 110.802)
(1.03953 -0.734887 110.696)
(1.48234 -1.11186 110.712)
(2.03427 -1.48226 111.197)
(2.3028 -1.51175 111.226)
(2.46046 -1.41059 111.519)
(2.57705 -1.29316 111.735)
(2.69513 -1.14591 111.952)
(2.76599 -1.03542 112.182)
(2.75393 -0.953683 112.432)
(2.61554 -0.866833 112.684)
(2.43917 -0.708285 112.946)
(2.38215 -0.551629 113.218)
(2.35321 -0.556437 113.482)
(2.23021 -0.543248 113.786)
(2.19655 -0.356109 114.061)
(2.20883 -0.160377 114.304)
(2.10294 0.0358898 114.516)
(2.07069 0.251011 114.847)
(2.30518 0.406676 114.922)
(2.08997 0.790365 115.221)
(1.74614 1.1146 115.252)
(1.88025 1.19678 115.545)
(2.13762 0.949028 115.305)
(1.83958 1.08409 115.732)
(1.24615 1.13338 115.576)
(0.915039 1.1834 115.674)
(0.210955 1.50931 115.884)
(0.63186 1.30083 115.528)
(0.984208 1.04896 115.836)
(0.38137 0.846023 115.703)
(0.557128 0.660865 115.475)
(0.431143 0.60827 115.9)
(0.651206 0.288417 115.781)
(1.02246 -0.126194 115.57)
(0.858379 -0.12891 115.963)
(0.910438 -0.267297 115.705)
(1.00878 -0.279634 115.819)
(1.13297 -0.277881 115.765)
(1.19753 -0.338974 115.618)
(1.09961 -0.343387 115.599)
(0.978679 -0.248245 115.589)
(0.837258 -0.16119 115.532)
(0.720842 -0.122351 115.402)
(0.641271 -0.0604718 115.277)
(0.393482 0.0223193 115.113)
(0.17451 0.101398 114.916)
(0.0244984 0.218563 114.722)
(-0.313988 0.390333 114.327)
(-0.650628 0.645727 114.498)
(-0.387256 0.160979 113.304)
(-0.230273 -0.318166 113.438)
(0.22047 -0.985504 113.143)
(-0.53869 -0.537837 113.607)
(-0.326893 -0.685561 112.238)
(-0.336925 -0.984026 112.898)
(0.401865 -1.44327 112.404)
(0.119108 -1.28117 112.751)
(0.754786 -1.46954 112.196)
(1.41503 -1.95775 112.489)
(1.66103 -1.96073 112.611)
(1.62208 -2.34502 112.905)
(1.44221 -2.87397 112.917)
(1.66124 -3.02452 113.096)
(1.68107 -3.13917 113.181)
(1.71882 -3.15158 113.287)
(1.72139 -3.17133 113.345)
(1.68646 -3.17321 113.528)
(3.11673 -2.28955 113.157)
(3.183 -2.23438 113.336)
(3.11689 -2.15798 113.483)
(2.69766 -2.23621 113.531)
(3.5539 -1.63698 113.277)
(4.60596 -1.02852 113.42)
(4.77361 -0.757263 113.38)
(4.85056 -0.532043 113.509)
(4.71132 -0.535371 113.504)
(4.45477 -0.638976 113.656)
(4.03919 -0.796534 113.669)
(4.01847 -0.836617 113.706)
(4.40264 -0.755094 113.745)
(4.5051 -0.713948 113.855)
(4.61203 -0.638834 113.983)
(4.71151 -0.610473 114.1)
(4.82871 -0.579918 114.276)
(4.95416 -0.458968 114.493)
(3.83661 -0.884258 114.526)
(4.1566 -0.831853 114.673)
(3.62586 -1.03106 115.128)
(2.78047 -2.25086 114.782)
(2.47386 -4.1643 115.828)
(2.99478 -6.22529 116.031)
(4.10303 -8.55499 117.231)
(4.95699 -10.3198 118.198)
(6.15702 -12.0935 119.727)
(7.56233 -13.8491 120.899)
(9.17465 -15.705 122.687)
(10.2743 -17.1091 123.706)
(11.4121 -18.4005 125.343)
(12.3084 -19.2612 126.051)
(13.2743 -20.0801 127.11)
(13.8218 -20.6062 127.707)
(13.962 -20.8724 128.222)
(14.9107 -21.6164 128.218)
(16.3233 -23.0077 128.301)
(17.5928 -24.3444 128.255)
(19.0436 -25.5377 128.131)
(21.1803 -27.2087 127.932)
(22.5076 -28.5917 127.873)
(22.9777 -29.2452 127.761)
(23.7187 -29.8607 127.166)
(24.2219 -30.2592 126.699)
(24.4774 -30.7269 126.474)
(26.1121 -32.2622 125.03)
(26.645 -32.8915 125.515)
(27.6954 -33.8266 124.414)
(28.2947 -34.3039 123.984)
(28.4705 -34.4496 123.664)
(28.5827 -34.7875 122.92)
(30.4713 -36.0115 121.291)
(30.5451 -35.9868 121.216)
(30.5903 -36.0847 120.461)
(30.4841 -36.2298 119.314)
(30.8844 -36.4316 117.485)
(31.7796 -37.0873 115.44)
(32.294 -37.6709 114.378)
(32.9653 -38.4282 111.824)
(32.6088 -38.2765 111.24)
(32.769 -38.5796 109.194)
(32.4584 -38.624 107.115)
(32.5339 -38.9739 105.41)
(32.2805 -38.861 103.407)
(32.0857 -38.507 102.399)
(31.9788 -38.0601 99.8019)
(31.6439 -37.624 99.5293)
(31.2288 -37.4309 97.606)
(30.8593 -36.7039 96.4924)
(29.7241 -35.6013 95.4648)
(27.8886 -34.0007 94.5104)
(26.063 -31.8747 94.0312)
(24.265 -29.643 92.9684)
(22.7679 -27.792 92.8507)
(21.4879 -26.2002 92.3036)
(19.9789 -24.5366 92.2973)
(19.036 -23.2552 92.3797)
(18.8664 -22.9209 93.0389)
(18.9731 -22.9279 93.6054)
(18.876 -22.8341 94.3669)
(19.0907 -22.31 95.4515)
(19.4964 -21.8432 96.6895)
(19.9916 -21.2666 97.9923)
(20.2957 -20.758 99.2863)
(20.6296 -20.6379 100.661)
(20.6585 -21.013 101.851)
(21.1479 -21.2332 102.637)
(21.4558 -21.2426 103.475)
(21.5949 -21.4578 103.621)
(21.4136 -21.9351 103.644)
(19.7528 -20.9633 103.439)
(19.6066 -21.5351 103.205)
(18.0279 -19.4535 102.36)
(18.1928 -20.4251 102.011)
(18.2373 -20.853 101.841)
(17.9366 -20.095 101.376)
(16.6209 -18.6923 100.602)
(14.9332 -19.9632 101.18)
)
;

boundaryField
{
    inlet
    {
        type            zeroGradient;
    }
    outlet
    {
        type            zeroGradient;
    }
    repeat_boundary
    {
        type            slip;
    }
    procBoundary1to0
    {
        type            processor;
        value           nonuniform List<vector> 
180
(
(0.0490277 -0.074355 107.218)
(0.0759284 -0.0640272 107.91)
(0.0659102 -0.0556106 107.725)
(0.0915992 -0.0254612 107.58)
(0.0848904 0.0358958 107.596)
(0.0306327 0.140364 107.577)
(0.022691 0.259343 107.646)
(0.0397679 0.120178 107.412)
(-0.00933719 0.0437532 107.537)
(0.144648 -0.242412 107.293)
(0.296939 -0.179407 107.452)
(0.3261 -0.0100949 107.496)
(-0.100847 0.179023 107.431)
(-0.6629 0.321082 107.136)
(-0.208579 0.0384277 107.468)
(-0.0715907 0.0158609 107.136)
(0.524932 0.101185 106.876)
(0.79267 -0.0390102 106.939)
(0.951133 -0.0284279 106.847)
(0.709157 0.150543 106.651)
(0.265234 0.270823 106.211)
(0.52562 0.047268 106.313)
(0.587106 0.179759 105.858)
(0.647309 0.271316 105.899)
(1.14937 0.3984 105.297)
(1.32208 0.331448 105.13)
(1.49552 0.341543 105.113)
(1.58575 0.560601 104.945)
(1.42648 0.665825 104.045)
(1.3606 0.324296 104.593)
(1.43876 0.308158 103.922)
(1.57197 0.130346 103.587)
(1.48489 0.063708 103.473)
(1.36312 0.184594 103.633)
(1.77174 -0.100767 103.219)
(0.880609 -0.728476 102.167)
(-0.136477 -0.537073 103.078)
(-0.187709 -0.42568 102.862)
(0.456276 -1.09329 102.677)
(0.682382 -1.58839 102.48)
(0.244022 -1.29513 102.487)
(0.21454 -1.23506 102.447)
(-0.113116 -1.31667 102.577)
(-1.1126 -1.61663 102.365)
(-1.36021 -1.69264 102.603)
(-1.27398 -1.67551 102.876)
(-0.597679 -1.87871 102.918)
(-0.259143 -2.22583 102.747)
(-0.592726 -2.22625 103.253)
(-0.891804 -2.27626 102.973)
(-1.81176 -2.72242 103.553)
(-2.58016 -2.96218 103.506)
(-3.08581 -2.92754 104.009)
(-2.64862 -2.79549 104.037)
(-2.07933 -2.71341 104.006)
(-2.60146 -2.80063 105.042)
(-2.79135 -2.8612 104.551)
(-3.09841 -3.0057 104.907)
(-3.09977 -3.01297 105.873)
(-3.20281 -3.00488 105.369)
(-3.55961 -3.13718 106.212)
(-3.78699 -3.07046 106.343)
(-3.2191 -2.93429 107.187)
(-3.33614 -3.1968 107.241)
(-2.85656 -3.35264 107.905)
(-3.80872 -3.19438 108.116)
(-4.49947 -3.16529 108.181)
(-3.77357 -3.42154 109.425)
(-3.43228 -3.61332 109.459)
(-2.88277 -3.87545 110.117)
(-2.68968 -3.97112 110.41)
(-2.53751 -3.97402 110.737)
(-2.34831 -3.93345 111.257)
(-2.19085 -3.78493 111.438)
(-1.95057 -3.50274 111.887)
(-1.67822 -3.2907 111.865)
(-1.31336 -3.25536 112.14)
(-1.20317 -3.30836 112.314)
(-1.09591 -3.50755 112.706)
(-0.690322 -3.24563 112.705)
(-0.469703 -2.54411 112.904)
(-0.572483 -2.67934 113.077)
(-1.04834 -4.06513 112.935)
(-1.24652 -4.57087 113.305)
(-0.191539 -2.87862 112.792)
(-0.174683 -2.85516 113.193)
(-0.20729 -2.85551 113.256)
(-0.659429 -3.36899 113.01)
(-1.00036 -3.71057 113.227)
(0.333076 -1.89117 111.699)
(0.410101 -1.71982 112.318)
(0.430506 -1.69631 112.183)
(0.051661 -2.1447 111.72)
(-0.165974 -2.36737 111.613)
(0.393714 -1.63979 111.036)
(0.509633 -1.37818 111.081)
(0.658085 -0.879731 110.266)
(0.781878 -0.592325 110.094)
(0.908529 -0.321294 109.749)
(0.997964 -0.0582046 109.311)
(1.07639 0.207148 109.172)
(0.773598 0.41161 107.209)
(1.05531 0.83167 107.647)
(1.3241 1.13134 107.516)
(1.43294 1.48371 106.805)
(1.31569 1.69354 106.153)
(1.2952 1.21241 105.481)
(1.11743 0.646622 104.857)
(0.238012 0.507116 104.735)
(-1.02367 0.338445 104.151)
(-3.01334 0.747144 103.823)
(-5.21437 0.84145 103.485)
(-7.72324 1.65501 103.287)
(-9.91291 1.99489 103.004)
(-12.3616 2.86639 102.883)
(-14.4238 3.04328 102.829)
(-16.9117 3.82359 102.62)
(-18.7802 3.6306 102.998)
(-21.4568 4.35983 102.262)
(-21.3635 3.80002 103.193)
(-21.4371 3.6021 103.462)
(-23.8172 3.6955 102.655)
(-25.8325 4.17377 102.912)
(-28.5233 3.20304 102.164)
(-28.2399 2.7215 103.17)
(-28.8869 2.26095 103.096)
(-29.0836 2.23246 102.443)
(-28.8492 2.07894 103.058)
(-28.9012 1.96842 102.447)
(-28.9272 1.89431 102.512)
(-28.9805 1.89893 101.511)
(-28.8427 1.95166 102.103)
(-29.5537 2.22151 101.404)
(-32.0247 3.36815 100.887)
(-34.5324 5.03136 100.391)
(-37.5216 6.08443 100.11)
(-40.633 6.94612 99.7557)
(-43.6135 7.21202 99.3573)
(-46.021 7.22695 99.2238)
(-47.8229 6.76208 98.7101)
(-49.0705 5.94719 98.843)
(-50.1168 5.02389 97.9459)
(-50.2059 4.07834 98.3114)
(-50.0895 3.22326 98.1875)
(-50.1458 2.21425 98.0122)
(-49.8908 1.47784 97.9076)
(-49.2492 1.20722 97.7328)
(-48.696 0.933046 97.9333)
(-47.7523 0.202311 97.4027)
(-45.9267 -0.462736 97.2325)
(-44.7942 -1.30876 97.4582)
(-44.0889 -1.8696 97.5771)
(-43.5602 -2.27393 98.0087)
(-42.5249 -2.54433 97.9367)
(-41.4398 -2.89576 98.512)
(-40.4601 -3.23098 98.4867)
(-39.2034 -3.69322 99.2856)
(-37.5603 -3.7455 99.5676)
(-36.6789 -4.22643 100.555)
(-36.6413 -4.89768 101.097)
(-36.8502 -5.78299 101.553)
(-36.5532 -6.12598 102.315)
(-35.8988 -5.94643 102.641)
(-35.5642 -6.16631 103.827)
(-32.2325 -5.69945 103.365)
(-28.8633 -5.64014 103.175)
(-26.128 -5.77219 102.644)
(-26.233 -6.58354 103.348)
(-26.9683 -8.08134 102.887)
(-27.6569 -9.66254 101.982)
(-27.5291 -10.2604 101.302)
(-26.9276 -10.3505 100.506)
(-26.5961 -10.9391 99.8151)
(-26.2121 -11.5365 100.006)
(-24.1366 -10.8733 96.4114)
(-23.9223 -13.3632 97.5305)
(-23.9246 -14.7575 98.2441)
(-22.9507 -14.3422 96.3504)
(-22.2508 -14.3416 94.6855)
(-23.1976 -16.285 96.659)
)
;
    }
    procBoundary1to3
    {
        type            processor;
        value           nonuniform List<vector> 
180
(
(0.0409676 -0.0893562 107.912)
(0.0551447 -0.0916805 108.652)
(0.0518736 -0.0929423 108.587)
(0.0162526 -0.0941879 108.635)
(-0.00159148 -0.0784654 107.927)
(-0.035956 -0.0724247 108.506)
(0.135602 -0.00259588 108.315)
(0.0286131 0.0884005 108.324)
(-0.0423732 0.195605 108.375)
(-0.134909 0.407124 108.495)
(-0.310661 0.74822 108.264)
(-0.221731 0.52619 108.687)
(0.096814 0.100067 108.122)
(0.199185 0.0401555 108.573)
(0.489697 -0.250504 108.316)
(0.222497 -0.111892 108.357)
(-0.00995529 -0.0646781 108.243)
(0.293843 0.0866438 108.434)
(0.143659 0.777963 108.023)
(0.347107 0.346736 108.272)
(0.38342 0.28221 108.062)
(0.379873 0.211089 108.118)
(0.228749 0.124677 108.053)
(0.109812 0.0317443 108.035)
(0.0409093 -0.0696786 108.151)
(0.303762 -0.653138 107.57)
(0.412092 -0.764431 107.777)
(0.471588 -0.840178 107.928)
(0.268229 -1.0022 107.96)
(0.103731 -1.0164 107.241)
(0.509472 -0.794159 108.052)
(0.645207 -0.925167 107.272)
(0.750554 -0.869904 107.619)
(0.785393 -0.810074 107.893)
(0.697931 -1.1054 107.589)
(0.946979 -1.14298 107.524)
(0.915782 -0.898643 108.327)
(0.793308 -0.83869 107.514)
(0.836207 -0.877195 107.918)
(0.575311 -0.59883 108.288)
(0.887648 -0.840864 108.137)
(1.35076 -1.18401 108.15)
(0.970843 -0.924633 108.434)
(0.958606 -1.04296 108.377)
(0.9723 -1.1524 108.514)
(0.970271 -1.31065 108.547)
(0.945066 -1.48003 108.703)
(1.06941 -0.115799 108.347)
(0.998893 -0.134612 108.584)
(0.768304 -0.21825 108.802)
(0.857612 -0.841742 108.95)
(1.18378 -0.425636 108.347)
(0.903765 0.0244712 108.856)
(0.787256 0.025747 108.703)
(0.697189 -0.362673 108.981)
(0.649959 -0.711369 108.493)
(0.648957 -0.251258 108.969)
(0.636448 -0.207518 108.628)
(0.688624 0.179303 108.855)
(0.580605 0.284377 108.699)
(0.431496 0.336072 108.858)
(0.309742 0.539787 109.056)
(0.369471 0.865997 108.581)
(0.298845 1.0029 109.277)
(0.171563 1.17073 108.881)
(0.132516 1.25526 109.137)
(0.0544194 1.24603 109.13)
(0.401281 0.618245 108.957)
(0.460499 0.380415 108.903)
(0.464315 0.0468802 109.007)
(0.133328 0.213631 109.045)
(-0.185755 0.527229 108.339)
(0.117009 -0.232274 108.927)
(0.225925 -0.617584 108.338)
(0.893824 -0.92083 107.948)
(2.68352 -0.329447 108.058)
(4.45347 0.189745 107.833)
(6.29636 1.2464 108.031)
(7.76634 1.87476 108.067)
(8.98321 2.66606 108.523)
(9.70769 3.40253 108.884)
(10.2835 4.01431 109.599)
(10.6049 4.26332 110.123)
(10.4632 4.3885 110.913)
(10.2758 4.53144 111.609)
(10.2376 4.61451 112.279)
(9.742 4.63376 112.89)
(9.13416 4.51977 113.647)
(8.08885 4.29483 113.974)
(7.50525 4.22302 114.775)
(7.27346 4.25101 115.063)
(6.80235 4.04592 115.413)
(6.29312 3.98923 116.161)
(6.19631 4.06421 116.135)
(5.88691 3.83684 116.571)
(5.41664 3.69926 116.775)
(4.61461 3.4839 117.21)
(4.54098 3.36681 117.128)
(4.23686 3.18765 117.229)
(3.92203 3.27504 117.465)
(3.93341 3.53938 117.45)
(3.69548 3.29711 117.88)
(2.51783 1.9979 117.778)
(1.0796 -0.142701 117.436)
(-0.0935389 -2.18461 117.642)
(-1.05383 -4.81712 116.091)
(-1.61456 -6.45825 115.774)
(-1.74586 -7.88888 114.143)
(-1.99462 -8.46783 112.98)
(-2.32924 -8.11426 111.007)
(-2.85382 -6.28689 110.048)
(-3.64145 -3.85253 107.915)
(-4.49235 -0.456966 106.983)
(-5.39582 2.66522 104.969)
(-6.10234 6.39222 104.195)
(-6.60351 9.48145 102.49)
(-6.90334 13.0883 101.865)
(-6.92514 15.9079 100.563)
(-6.85744 19.0475 100.02)
(-6.54631 21.7816 99.086)
(-6.23512 24.5755 98.5301)
(-5.6503 27.0454 97.9343)
(-5.3221 29.4771 97.3422)
(-4.53929 31.6801 97.0333)
(-4.23451 33.916 96.4821)
(-3.36349 35.9702 96.4887)
(-3.02522 38.0654 96.0458)
(-2.08301 40.0368 96.264)
(-1.61055 41.9234 95.9643)
(-0.598706 43.7102 96.2322)
(0.203118 45.5654 96.2166)
(1.26404 47.0731 96.5564)
(2.33838 48.6815 96.8713)
(3.56839 49.8297 97.3019)
(4.87125 50.9827 97.7549)
(6.25199 51.8438 98.2937)
(7.69881 52.7759 98.7899)
(9.24881 53.6622 99.4402)
(10.8565 54.2839 99.9357)
(12.523 54.7847 100.589)
(14.231 54.958 100.948)
(15.9062 55.1829 101.572)
(17.5011 55.3464 101.877)
(19.0202 55.2138 102.469)
(20.3493 54.791 102.792)
(21.5542 54.0648 103.281)
(22.4531 52.8628 103.593)
(23.1636 51.2166 104.004)
(23.5536 49.0278 104.243)
(23.7704 46.4605 104.511)
(23.7336 43.2817 104.553)
(23.5881 39.4677 104.608)
(23.3258 34.8664 104.412)
(23.0727 29.5607 104.157)
(22.7741 23.8524 103.7)
(22.6246 18.0187 103.002)
(22.4456 11.8343 102.282)
(22.6229 5.8538 100.884)
(22.845 -0.196505 99.9976)
(23.2944 -5.36189 97.7728)
(24.1706 -10.2701 96.7161)
(24.8458 -13.9186 93.6705)
(26.8694 -16.4889 92.5181)
(28.1333 -17.5862 89.1056)
(30.992 -16.7889 87.9822)
(32.5566 -14.4747 84.8938)
(35.0455 -10.3756 83.9386)
(35.9569 -5.36513 81.6124)
(37.5825 0.934969 80.9651)
(36.8927 7.37523 79.4547)
(36.9376 13.4533 79.4023)
(34.5695 18.3689 78.599)
(33.0828 22.2889 78.9848)
(30.3527 24.4241 78.9098)
(28.6214 25.4485 79.4916)
(26.8589 25.2095 80.1209)
(25.7258 23.834 80.6097)
(23.5545 21.0553 81.4453)
(23.9011 19.5112 81.3983)
(24.728 18.7722 81.9037)
)
;
    }
}


// ************************************************************************* //
