FoamFile
{version 2.0; format ascii;class vectorField; location 0;object  v;}
348
(
( -5.95995e-07 -3.45259e-06 9.68446e-07 )  
( -4.53916e-06 -5.67636e-06 7.1616e-07 )  
( -2.96615e-06 -2.54736e-06 1.01754e-06 )  
( -2.56636e-06 -8.60598e-06 2.18994e-07 )  
( -1.33018e-06 -4.3028e-06 -2.55454e-07 )  
( -1.17469e-06 -3.13342e-06 -1.6808e-06 )  
( -4.9019e-06 -6.87861e-06 2.47775e-06 )  
( -2.51108e-06 -4.72482e-06 1.35095e-06 )  
( -1.07197e-06 -3.50213e-06 -1.05681e-06 )  
( -1.79953e-06 -4.98326e-06 5.69191e-07 )  
( 2.10982e-07 -3.66633e-06 -6.86347e-07 )  
( -1.12888e-06 -4.28401e-06 -2.58479e-06 )  
( -1.79546e-07 -1.92095e-06 2.61754e-07 )  
( -2.66463e-06 -6.68123e-06 1.39075e-06 )  
( -3.01171e-06 -4.68657e-06 1.76299e-06 )  
( -4.59913e-06 -3.78227e-06 3.00651e-07 )  
( -8.05937e-06 -1.01069e-05 7.84013e-07 )  
( -2.51955e-06 -4.75495e-06 4.36503e-08 )  
( -2.35608e-06 -5.5409e-06 -2.591e-07 )  
( -5.97255e-06 -1.11222e-05 -2.01891e-06 )  
( -7.44375e-06 -6.48343e-06 6.26988e-07 )  
( -4.29103e-08 -4.55336e-06 1.13051e-06 )  
( -5.63055e-06 -4.78498e-06 -9.6507e-07 )  
( -5.13025e-06 -6.74817e-06 -6.85188e-07 )  
( -1.49707e-06 -2.67781e-06 -2.59992e-07 )  
( -3.88145e-07 -4.53164e-06 -1.829e-06 )  
( -1.90817e-06 -8.29098e-06 -5.99514e-06 )  
( -4.49287e-06 -8.90751e-06 1.84489e-06 )  
( -2.84675e-06 -1.09193e-05 -3.27675e-07 )  
( -1.12122e-06 -8.59536e-06 -2.15528e-06 )  
( -7.55269e-06 -1.29632e-05 -3.73754e-07 )  
( -8.06929e-06 -1.24103e-05 1.33459e-06 )  
( -1.29625e-07 -9.19076e-06 -1.42151e-06 )  
( -2.15274e-06 -1.20992e-05 -9.44662e-07 )  
( -9.96756e-07 -7.37793e-06 -2.65833e-06 )  
( -1.15332e-06 -8.51185e-06 -1.49704e-06 )  
( -1.02923e-06 -7.4007e-06 -5.69255e-07 )  
( -1.22836e-06 -3.93021e-06 -1.39466e-06 )  
( -4.77988e-06 -1.35798e-05 -5.84386e-06 )  
( -2.93997e-06 -8.57288e-06 2.03611e-06 )  
( -7.67299e-06 -1.17297e-05 -1.80525e-07 )  
( -4.22122e-06 -9.36734e-06 -2.84534e-06 )  
( -6.00666e-06 -6.49516e-06 -2.61049e-06 )  
( -5.84323e-06 -2.16298e-05 5.9647e-06 )  
( -3.23664e-06 -1.75355e-05 3.95813e-06 )  
( -4.91094e-06 -9.94136e-06 -3.32973e-06 )  
( -1.00901e-05 -1.2878e-05 2.68383e-06 )  
( -3.30081e-06 -1.02959e-05 -9.97667e-07 )  
( -3.59204e-06 -1.48742e-05 -2.51756e-06 )  
( -7.53622e-06 -1.49999e-05 -5.93589e-06 )  
( -2.77361e-06 -1.11757e-05 -3.57853e-06 )  
( -2.27169e-06 -7.80783e-06 -3.1295e-06 )  
( -2.10921e-06 -7.99785e-06 -7.89146e-07 )  
( -8.4162e-06 -9.29565e-06 3.44172e-07 )  
( -3.47729e-06 -1.07226e-05 -1.06813e-05 )  
( -5.80364e-06 -1.16539e-05 -6.81805e-06 )  
( -2.90074e-06 -1.0682e-05 -4.44182e-06 )  
( -4.15344e-06 -1.01778e-05 -3.65461e-06 )  
( -9.7208e-06 -1.51772e-05 -2.26285e-06 )  
( -7.94108e-06 -1.42739e-05 -8.84065e-06 )  
( 4.66871e-07 -1.82958e-05 4.66574e-06 )  
( -5.15468e-06 -1.46894e-05 -5.4966e-06 )  
( -1.04189e-06 -1.53284e-05 4.77661e-06 )  
( -8.03644e-06 -1.75916e-05 3.8416e-06 )  
( -6.15102e-07 -1.16222e-05 -5.88665e-06 )  
( -1.4187e-06 -1.43119e-05 2.50548e-06 )  
( -8.57681e-06 -1.26298e-05 -1.33045e-05 )  
( -3.02059e-06 -1.12384e-05 -8.17467e-06 )  
( 3.35073e-06 -1.63452e-05 3.09291e-06 )  
( -1.42074e-06 -9.20447e-06 -7.56954e-06 )  
( -9.19937e-06 -1.7166e-05 -1.03368e-05 )  
( -4.65922e-06 -1.48729e-05 -7.65926e-08 )  
( -1.05129e-05 -1.50951e-05 -2.30242e-06 )  
( -1.09232e-05 -1.01565e-05 -5.34817e-06 )  
( 3.16347e-07 -1.27242e-05 1.54335e-06 )  
( -6.73732e-06 -1.39305e-05 -8.14393e-06 )  
( -5.7838e-06 -1.09554e-05 -2.16179e-06 )  
( -1.75932e-05 -1.19371e-05 7.91652e-06 )  
( -1.0387e-05 -1.63718e-05 -5.08316e-06 )  
( -1.1473e-05 -1.40922e-05 1.90361e-07 )  
( -7.86459e-06 -1.11302e-05 -5.10198e-06 )  
( -7.08698e-06 -1.25843e-05 -1.0934e-05 )  
( -2.0491e-05 -1.76243e-05 -7.52243e-07 )  
( -1.13711e-05 -1.70494e-05 -1.53646e-05 )  
( -1.96563e-06 -1.3417e-05 -9.72933e-06 )  
( -1.30279e-05 -1.34162e-05 -2.15679e-05 )  
( -4.44503e-06 -1.28812e-05 -5.65782e-06 )  
( -3.05388e-06 -1.19019e-05 -1.46038e-05 )  
( -2.56678e-06 -1.65162e-05 -2.59357e-06 )  
( -7.45021e-06 -1.48077e-05 1.4285e-06 )  
( -1.27092e-05 -1.3568e-05 1.4966e-06 )  
( -1.14818e-05 -1.78192e-05 -1.38677e-05 )  
( -9.90662e-06 -1.28137e-05 -1.37955e-05 )  
( -2.24457e-05 -1.16238e-05 5.97689e-06 )  
( -4.12674e-06 -1.4277e-05 -8.46671e-07 )  
( -9.37321e-06 -9.90737e-06 -1.07845e-05 )  
( -1.51386e-05 -1.04916e-05 -5.10257e-06 )  
( -6.49176e-06 -1.19279e-05 -1.15158e-05 )  
( -8.38252e-06 -1.05043e-05 -1.26304e-05 )  
( -1.25768e-05 -1.18423e-05 -2.04312e-05 )  
( -5.64535e-06 -1.54081e-05 -9.29235e-06 )  
( -9.58843e-06 -1.74659e-05 -8.3383e-06 )  
( -1.1631e-05 -1.24369e-05 -1.99764e-05 )  
( -1.20183e-05 -1.2709e-05 -1.18401e-05 )  
( -1.4368e-05 -1.65391e-05 -2.13221e-05 )  
( -1.55679e-05 -1.39141e-05 -7.11362e-06 )  
( -1.03939e-05 -1.44016e-05 -4.8658e-06 )  
( -7.67259e-06 -1.83954e-05 -1.64844e-05 )  
( -8.98387e-06 -1.35217e-05 -1.77176e-05 )  
( -1.23842e-05 -1.21758e-05 -8.96537e-06 )  
( -1.3538e-05 -1.5819e-05 -2.79073e-06 )  
( -1.09592e-05 -1.46145e-05 -1.78245e-05 )  
( -7.86289e-06 -1.57643e-05 -1.8132e-05 )  
( -2.85375e-06 -1.50283e-05 -2.01697e-05 )  
( -1.5715e-05 -1.6381e-05 -1.0566e-05 )  
( -1.45182e-05 -1.45533e-05 -2.27894e-05 )  
( -1.38953e-05 -1.39715e-05 -1.11331e-05 )  
( -1.6285e-05 -1.78571e-05 -2.58729e-05 )  
( -1.09339e-05 -1.70663e-05 -1.04073e-05 )  
( -9.51653e-06 -9.04295e-06 -1.78755e-05 )  
( -9.38724e-06 -1.93903e-05 -1.81988e-05 )  
( -1.8234e-05 -1.67219e-05 -3.71981e-06 )  
( -1.75265e-05 -1.92771e-05 -1.07551e-05 )  
( -9.10156e-06 -1.3274e-05 -1.16374e-05 )  
( -1.02339e-05 -1.02098e-05 -2.38675e-05 )  
( -1.39213e-05 -1.18115e-05 -2.01512e-05 )  
( -1.16303e-05 -2.40036e-05 -2.03247e-05 )  
( -1.75289e-05 -1.16914e-05 -3.86285e-05 )  
( -1.4981e-05 -1.40982e-05 -2.6817e-05 )  
( -1.49378e-05 -9.59873e-06 -3.99734e-05 )  
( -1.36845e-05 -2.06445e-05 -3.17488e-05 )  
( -1.45964e-05 -1.04813e-05 -1.46423e-05 )  
( -1.39428e-05 -1.29715e-05 -6.57489e-06 )  
( -1.81608e-05 -7.67156e-06 -2.2163e-05 )  
( -1.56623e-05 -1.65219e-05 -2.93046e-05 )  
( -1.23926e-05 -9.61072e-06 -2.87402e-05 )  
( -1.14205e-05 -1.80277e-05 -2.82572e-05 )  
( -1.397e-05 -1.18063e-05 -2.26341e-05 )  
( -1.54568e-05 -9.09921e-06 -3.2968e-05 )  
( -1.36069e-05 -1.41797e-05 -3.06094e-05 )  
( -1.57437e-05 -8.86991e-06 -2.77553e-05 )  
( -1.96709e-05 -6.783e-06 -4.13234e-05 )  
( -1.87861e-05 -1.07343e-05 -3.64645e-05 )  
( -2.02426e-05 -1.16098e-05 -2.06679e-05 )  
( -1.70311e-05 1.05887e-05 -3.14141e-05 )  
( 4.41422e-07 -2.57317e-05 -2.22973e-05 )  
( -1.19093e-05 -1.09224e-05 -3.52138e-05 )  
( -1.7664e-05 -6.24517e-06 -4.46049e-05 )  
( -8.64857e-06 -5.534e-06 -4.55704e-05 )  
( -1.74452e-05 -8.10891e-06 -2.8518e-05 )  
( -1.64118e-05 -7.3116e-06 -3.34452e-05 )  
( -1.52098e-05 -5.99123e-06 -1.64504e-05 )  
( -1.25444e-05 -1.29415e-05 -4.06075e-05 )  
( -1.26132e-05 -4.99414e-06 -4.46237e-05 )  
( -1.42208e-05 -4.91521e-06 -3.84124e-05 )  
( -1.1506e-05 -3.35082e-06 -2.58246e-05 )  
( -1.25834e-05 -9.94484e-06 -3.69167e-05 )  
( -2.19371e-05 -5.01238e-06 -5.78863e-05 )  
( -1.50285e-05 -8.88814e-06 -4.2779e-05 )  
( -2.18465e-05 -1.2164e-05 -4.17099e-05 )  
( -9.0679e-06 4.00603e-06 -4.73341e-05 )  
( -1.39103e-05 -3.13899e-06 -2.82586e-05 )  
( -5.35723e-06 -7.94364e-06 -4.15664e-05 )  
( -1.29511e-05 -8.4964e-06 -3.73746e-05 )  
( -4.42768e-06 -1.16869e-05 -3.36959e-05 )  
( -1.60783e-05 -3.40228e-06 -3.73292e-05 )  
( -2.17002e-05 -1.04145e-05 -5.41321e-05 )  
( -1.61171e-05 -4.00158e-06 -4.96038e-05 )  
( -1.9172e-05 -7.61248e-06 -5.38039e-05 )  
( -9.94786e-06 -1.58299e-05 -4.21896e-05 )  
( -1.32189e-05 2.82627e-05 -3.69213e-05 )  
( -1.55668e-05 -3.02213e-06 -4.60043e-05 )  
( -1.32651e-05 5.92012e-06 -6.26109e-05 )  
( -2.82225e-05 6.05735e-06 -4.71758e-05 )  
( -1.60779e-05 1.0697e-05 -3.94441e-05 )  
( -1.90079e-05 8.41233e-06 -2.5047e-05 )  
( -2.03191e-05 -2.80928e-06 -6.28229e-05 )  
( -1.33737e-05 -1.28375e-05 -4.71194e-05 )  
( -1.45354e-05 -8.55265e-06 -6.55665e-05 )  
( -2.006e-05 -1.77538e-06 -3.99569e-05 )  
( -1.46478e-05 -2.40539e-05 -7.52624e-05 )  
( -1.17619e-05 -5.18652e-06 -6.00172e-05 )  
( -1.79884e-05 -2.63931e-06 -5.11712e-05 )  
( -1.76288e-05 4.74182e-06 -5.44138e-05 )  
( -1.41552e-05 -6.49603e-06 -6.80279e-05 )  
( -9.99788e-06 -6.69877e-06 -5.72141e-05 )  
( -5.51063e-06 3.79653e-06 -8.09315e-05 )  
( -1.21845e-05 1.59374e-05 -7.34236e-05 )  
( 3.7591e-06 -1.97119e-05 -5.5472e-05 )  
( -3.77876e-07 -5.81583e-07 -9.19728e-05 )  
( -2.23797e-05 2.83133e-06 -4.01286e-05 )  
( -8.12157e-06 -2.42632e-06 -7.89406e-05 )  
( -1.29586e-05 -8.56248e-06 -5.23277e-05 )  
( -1.05107e-05 5.09801e-06 -6.01124e-05 )  
( 1.52207e-06 -6.76749e-06 -7.29284e-05 )  
( -9.95536e-06 -6.05704e-06 -6.71136e-05 )  
( -4.43387e-06 3.83019e-06 -6.54575e-05 )  
( 1.46095e-06 -7.34407e-06 -9.20852e-05 )  
( -1.5111e-05 -1.05782e-05 -8.81544e-05 )  
( -4.2718e-06 -2.42926e-06 -7.14733e-05 )  
( -8.01443e-06 -1.11732e-05 -9.73995e-05 )  
( -1.14137e-05 9.49487e-06 -8.70024e-05 )  
( -6.36845e-06 6.25239e-07 -8.1786e-05 )  
( -2.71503e-06 8.83735e-06 -7.96118e-05 )  
( -7.93758e-06 -2.12999e-05 -9.02047e-05 )  
( 1.79942e-05 5.25423e-06 -0.000112279 )  
( -2.17354e-05 9.56424e-06 -5.16103e-05 )  
( -1.10265e-05 2.77486e-06 -6.71452e-05 )  
( -2.05734e-05 5.85249e-06 -6.2773e-05 )  
( -7.02328e-06 1.14577e-05 -9.80891e-05 )  
( -2.66441e-06 -1.61088e-05 -9.41338e-05 )  
( -1.01218e-05 -2.54e-06 -8.10264e-05 )  
( -1.95897e-06 4.64458e-07 -8.52888e-05 )  
( -7.84336e-06 -1.18796e-05 -0.000108431 )  
( -2.00842e-05 -8.09112e-06 -0.000124685 )  
( -1.93772e-05 1.01489e-05 -4.94025e-05 )  
( 6.44817e-06 -1.71544e-06 -8.7921e-05 )  
( -1.9675e-05 3.26717e-06 -7.69407e-05 )  
( -4.65247e-06 -7.62191e-06 -0.000121344 )  
( 7.8189e-06 -3.36648e-06 -8.53347e-05 )  
( -3.62181e-06 5.23712e-06 -6.26382e-05 )  
( -2.11517e-06 2.16959e-06 -9.07343e-05 )  
( -1.52926e-06 -2.38209e-06 -7.8473e-05 )  
( 1.87586e-06 -4.64236e-06 -7.46997e-05 )  
( 1.34249e-06 -4.94035e-06 -0.000113798 )  
( 8.01899e-07 2.51248e-06 -0.000106874 )  
( -1.89832e-05 7.52459e-06 -0.000111744 )  
( 1.62908e-05 -7.31438e-06 -0.000105577 )  
( 1.06688e-06 7.90504e-07 -0.000125731 )  
( -1.54668e-05 -3.34603e-06 -0.00012388 )  
( 8.78483e-06 2.33249e-06 -9.70788e-05 )  
( -2.49524e-05 -9.22829e-06 -0.000125403 )  
( -1.75359e-05 -1.12178e-05 -0.000111163 )  
( -1.55329e-06 -1.64802e-05 -0.000125308 )  
( 3.03523e-06 3.82196e-08 -0.000106331 )  
( 2.77231e-06 -7.0027e-06 -0.000116756 )  
( -1.09673e-06 -1.0207e-05 -0.000106439 )  
( 3.7836e-06 -9.87733e-06 -0.000109606 )  
( 1.4118e-06 -8.22708e-06 -0.00010806 )  
( -2.23422e-06 -1.57717e-05 -0.00011872 )  
( -1.39578e-05 -9.03226e-06 -0.000149472 )  
( -5.82915e-06 -1.42954e-05 -0.0001336 )  
( 1.80443e-06 -4.89571e-06 -0.000106339 )  
( 4.51148e-06 -4.22919e-06 -0.000127537 )  
( -4.66162e-06 4.28867e-06 -0.000139432 )  
( -8.3989e-06 9.68145e-06 -0.000113057 )  
( -1.11803e-05 -4.1591e-06 -0.000145961 )  
( 6.28562e-06 -4.1508e-06 -0.000112259 )  
( -1.89739e-05 -5.04451e-06 -0.000112058 )  
( 2.73267e-06 -1.18332e-05 -0.000135348 )  
( -1.62404e-05 -1.42703e-06 -0.000142707 )  
( 7.15876e-06 -5.47277e-06 -0.00014112 )  
( 2.89779e-05 -3.14991e-06 -0.000159383 )  
( -1.22599e-05 9.78114e-06 -0.000119931 )  
( 6.30619e-06 -2.47716e-05 -0.000132541 )  
( -7.8726e-06 -1.29334e-05 -0.000143595 )  
( 1.03156e-05 -2.8201e-05 -0.000146888 )  
( 7.74325e-06 1.08946e-06 -0.000125299 )  
( 4.91813e-06 -1.8888e-05 -0.000132358 )  
( -2.6238e-05 -1.31342e-05 -0.000109428 )  
( -1.34382e-05 -2.02103e-05 -0.000148743 )  
( -7.5058e-07 -1.80534e-06 -0.000134493 )  
( -1.5731e-05 -3.21183e-06 -0.000170321 )  
( 1.29216e-05 -1.11307e-05 -0.00016079 )  
( -1.70653e-05 -1.24007e-05 -0.000138257 )  
( 9.53068e-06 -8.30287e-06 -0.000153468 )  
( -2.34199e-05 2.62548e-06 -0.000127304 )  
( -1.09956e-05 -9.40849e-06 -0.000155596 )  
( 2.26422e-05 -9.83648e-06 -0.000191073 )  
( -4.42122e-06 -1.71858e-05 -0.000160818 )  
( -1.45276e-05 -9.74736e-06 -0.000168426 )  
( -1.00139e-05 -6.15717e-06 -0.000166403 )  
( -2.15293e-05 -2.27959e-05 -0.000162078 )  
( 1.72786e-05 -2.21123e-05 -0.00017742 )  
( -4.74568e-06 -4.05064e-06 -0.000154263 )  
( -7.20958e-06 -4.31942e-06 -0.000176749 )  
( -1.75912e-06 -1.54943e-06 -0.000164437 )  
( -1.11043e-05 3.8503e-06 -0.000140146 )  
( 2.1114e-06 2.37139e-05 -0.000187416 )  
( 1.81457e-05 -4.51794e-05 -0.000131083 )  
( 1.85007e-06 -1.7711e-05 -0.000149984 )  
( -1.77198e-05 3.35951e-06 -0.000159723 )  
( -1.00814e-05 1.08642e-06 -0.000182888 )  
( -1.24035e-05 -1.55271e-05 -0.000159636 )  
( -1.46628e-05 -1.60649e-05 -0.000176115 )  
( -1.27569e-05 1.38024e-06 -0.00017696 )  
( 1.76589e-05 -1.01143e-05 -0.000165619 )  
( -1.56315e-05 -1.40022e-05 -0.000168144 )  
( 4.61357e-06 -9.97706e-06 -0.000176408 )  
( 8.27098e-06 -2.01059e-07 -0.000175415 )  
( -1.17571e-05 -2.72291e-05 -0.000171359 )  
( -1.02541e-05 -3.45589e-06 -0.000168777 )  
( 1.98843e-05 3.53222e-05 -0.000197171 )  
( -8.81331e-06 -1.93947e-05 -0.000198331 )  
( 1.02222e-05 -2.385e-05 -0.00021267 )  
( -3.09583e-05 -2.08296e-05 -0.00017022 )  
( 3.47364e-05 -1.50701e-05 -0.000173482 )  
( 4.77487e-06 9.40302e-06 -0.000234236 )  
( 1.62938e-05 -2.3526e-05 -0.00019341 )  
( -6.29372e-06 -2.38424e-05 -0.000169208 )  
( -4.53871e-06 -9.52683e-06 -0.000215522 )  
( -1.1777e-05 1.18521e-06 -0.000175142 )  
( -2.03602e-05 -1.46899e-05 -0.000186532 )  
( 8.66507e-06 -7.05861e-06 -0.00018396 )  
( 1.5179e-05 2.51736e-05 -0.000218967 )  
( -6.38186e-06 -1.14893e-05 -0.000178904 )  
( -1.73389e-05 2.48489e-05 -0.000180712 )  
( -7.3012e-06 6.93063e-06 -0.000193008 )  
( -1.82138e-06 3.11228e-06 -0.0001973 )  
( -1.2202e-05 -2.41789e-05 -0.000195796 )  
( -1.23667e-05 -2.36744e-05 -0.000197278 )  
( 1.0158e-05 -2.1979e-05 -0.000217813 )  
( 9.10766e-06 -7.77703e-06 -0.000255942 )  
( 9.30775e-07 4.08e-05 -0.000228743 )  
( -9.92776e-06 -1.32811e-07 -0.000210056 )  
( 1.3418e-06 8.53515e-06 -0.000242761 )  
( 2.39239e-05 -1.61948e-05 -0.000191363 )  
( 2.98361e-05 1.95064e-05 -0.000193051 )  
( 2.56877e-05 6.89227e-07 -0.000214041 )  
( 1.1197e-05 -5.44712e-06 -0.000211518 )  
( -4.01747e-06 -7.70013e-06 -0.000213903 )  
( -3.33673e-06 -2.2857e-05 -0.000199989 )  
( 5.82526e-06 -6.78618e-06 -0.000266875 )  
( -1.75098e-05 -2.67976e-05 -0.000217788 )  
( 3.07039e-05 -1.56356e-05 -0.000206356 )  
( 6.1031e-06 3.49568e-05 -0.000247707 )  
( 2.14333e-05 1.31535e-05 -0.000266007 )  
( -9.1196e-06 -2.62053e-05 -0.000189131 )  
( -2.18685e-06 1.62149e-05 -0.00020755 )  
( 1.12509e-05 3.6253e-05 -0.000264929 )  
( 1.36623e-06 1.12178e-05 -0.000219151 )  
( 3.98459e-05 4.34462e-06 -0.000254382 )  
( 8.88325e-06 -4.6408e-06 -0.000253094 )  
( -1.58506e-05 -3.35564e-05 -0.000215701 )  
( -2.37071e-05 -1.80468e-05 -0.000206895 )  
( 4.46594e-06 1.38704e-05 -0.000217131 )  
( 1.06666e-06 -5.40202e-05 -0.000233886 )  
( 1.02882e-05 -5.73856e-05 -0.000235266 )  
( 2.27447e-05 -9.29181e-07 -0.000275039 )  
( -2.42972e-05 1.28707e-05 -0.000221001 )  
( -3.14218e-05 -4.11463e-05 -0.000210687 )  
( -1.14281e-05 -3.08984e-05 -0.000225463 )  
( -1.78365e-05 -4.0897e-05 -0.000253282 )  
( 1.3929e-05 -1.84697e-05 -0.000215328 )  
( 5.78886e-05 -6.72459e-06 -0.000230319 )  
( 3.41207e-05 2.16112e-06 -0.00023217 )  
( 1.37874e-05 -3.09835e-05 -0.000206897 )  
( 1.20366e-05 -2.70646e-05 -0.000228224 )  
)
