/*--------------------------------*- C++ -*----------------------------------*\
| =========                 |                                                 |
| \\      /  F ield         | OpenFOAM: The Open Source CFD Toolbox           |
|  \\    /   O peration     | Version:  5.x                                   |
|   \\  /    A nd           | Web:      www.OpenFOAM.org                      |
|    \\/     M anipulation  |                                                 |
\*---------------------------------------------------------------------------*/
FoamFile
{
    version     2.0;
    format      ascii;
    class       volVectorField;
    location    "400";
    object      U;
}
// * * * * * * * * * * * * * * * * * * * * * * * * * * * * * * * * * * * * * //

dimensions      [0 1 -1 0 0 0 0];

internalField   nonuniform List<vector> 
90
(
(1.97055e-09 -1.76928e-09 -0.00100001)
(4.0273e-09 -3.58913e-09 -0.00100001)
(6.49714e-09 -5.71486e-09 -0.00100001)
(9.30798e-09 -8.03849e-09 -0.001)
(1.25868e-08 -1.06193e-08 -0.001)
(1.64977e-08 -1.35351e-08 -0.001)
(2.12376e-08 -1.68721e-08 -0.000999998)
(2.70533e-08 -2.07239e-08 -0.000999996)
(3.42516e-08 -2.51859e-08 -0.000999994)
(4.32289e-08 -3.03487e-08 -0.000999991)
(5.44957e-08 -3.62906e-08 -0.000999988)
(6.87128e-08 -4.30675e-08 -0.000999984)
(8.67361e-08 -5.06982e-08 -0.000999979)
(1.09674e-07 -5.91436e-08 -0.000999971)
(1.38963e-07 -6.82786e-08 -0.000999959)
(1.76461e-07 -7.78518e-08 -0.000999942)
(2.24577e-07 -8.74295e-08 -0.000999918)
(2.86435e-07 -9.63155e-08 -0.000999885)
(3.66099e-07 -1.03438e-07 -0.000999837)
(4.68869e-07 -1.07213e-07 -0.000999771)
(6.01669e-07 -1.05174e-07 -0.00099968)
(7.7354e-07 -9.36658e-08 -0.000999556)
(9.96321e-07 -6.74785e-08 -0.000999386)
(1.2855e-06 -1.93015e-08 -0.000999155)
(1.66128e-06 6.08564e-08 -0.000998841)
(2.15057e-06 1.87756e-07 -0.000998413)
(2.7888e-06 3.81907e-07 -0.00099783)
(3.62268e-06 6.71754e-07 -0.000997039)
(4.71382e-06 1.09661e-06 -0.000995967)
(6.14356e-06 1.71053e-06 -0.000994514)
(8.01933e-06 2.58767e-06 -0.000992549)
(1.04838e-05 3.82981e-06 -0.000989908)
(1.37322e-05 5.57938e-06 -0.000986429)
(1.80653e-05 8.05197e-06 -0.000981652)
(2.40315e-05 1.16256e-05 -0.000972566)
(3.04304e-05 1.56866e-05 -0.000959301)
(3.98675e-05 2.20187e-05 -0.000963735)
(4.74459e-05 2.78052e-05 -0.00111458)
(5.88191e-05 3.73142e-05 -0.000336871)
(-4.73854e-05 -2.99752e-05 -0.00211421)
(6.19819e-06 4.3655e-06 -0.00158168)
(4.77332e-05 1.63976e-05 -0.00165944)
(6.87076e-05 3.89232e-05 -0.00285091)
(1.89945e-05 1.9086e-05 -0.00162812)
(-4.38658e-05 -3.02153e-05 -0.00270023)
(-3.29864e-05 1.77341e-07 -0.00205602)
(-3.21363e-05 9.59936e-05 -0.00251134)
(-1.56684e-05 8.50816e-05 -0.00200486)
(-9.41083e-06 4.7451e-05 -0.00266568)
(-3.65082e-06 -1.01712e-06 -0.00161889)
(-4.5555e-05 -2.44345e-05 -0.00273219)
(8.27681e-06 -2.12755e-06 -0.00110022)
(-8.72649e-05 -5.37129e-06 -0.00198692)
(-4.87559e-07 -1.73751e-05 -0.00101973)
(-2.58702e-05 -5.40254e-05 -0.000932942)
(-1.81527e-05 -4.78566e-05 -0.000944097)
(-1.1812e-05 -3.6661e-05 -0.000966076)
(-7.55183e-06 -2.78144e-05 -0.000975995)
(-4.6495e-06 -2.11132e-05 -0.000982572)
(-2.66283e-06 -1.60344e-05 -0.000987451)
(-1.32908e-06 -1.21862e-05 -0.00099108)
(-4.62852e-07 -9.272e-06 -0.000993734)
(7.81009e-08 -7.06359e-06 -0.000995636)
(4.00572e-07 -5.38673e-06 -0.000996988)
(5.76119e-07 -4.11197e-06 -0.000997953)
(6.53982e-07 -3.14247e-06 -0.000998638)
(6.69293e-07 -2.40442e-06 -0.000999117)
(6.46201e-07 -1.84199e-06 -0.00099945)
(6.011e-07 -1.41292e-06 -0.000999677)
(5.44912e-07 -1.0852e-06 -0.000999829)
(4.84773e-07 -8.34576e-07 -0.000999929)
(4.25167e-07 -6.42663e-07 -0.000999993)
(3.68753e-07 -4.95517e-07 -0.00100003)
(3.16962e-07 -3.82559e-07 -0.00100005)
(2.70408e-07 -2.95755e-07 -0.00100007)
(2.2921e-07 -2.28991e-07 -0.00100007)
(1.93244e-07 -1.77606e-07 -0.00100007)
(1.62194e-07 -1.38035e-07 -0.00100006)
(1.35646e-07 -1.07541e-07 -0.00100006)
(1.13147e-07 -8.40215e-08 -0.00100005)
(9.4248e-08 -6.58585e-08 -0.00100004)
(7.85197e-08 -5.18104e-08 -0.00100004)
(6.55645e-08 -4.09301e-08 -0.00100003)
(5.50184e-08 -3.2502e-08 -0.00100002)
(4.65532e-08 -2.59931e-08 -0.00100002)
(3.98767e-08 -2.10143e-08 -0.00100001)
(3.47282e-08 -1.72893e-08 -0.00100001)
(3.0855e-08 -1.46197e-08 -0.00100001)
(2.80103e-08 -1.27939e-08 -0.001)
(2.65184e-08 -1.17722e-08 -0.001)
)
;

boundaryField
{
    inlet
    {
        type            zeroGradient;
    }
    outlet
    {
        type            zeroGradient;
    }
    repeat_boundary
    {
        type            slip;
    }
    procBoundary3to1
    {
        type            processor;
        value           nonuniform List<vector> 
90
(
(1.41282e-09 -1.76927e-09 -0.000999988)
(2.60409e-09 -3.58912e-09 -0.000999986)
(4.03825e-09 -5.71486e-09 -0.000999983)
(5.59026e-09 -8.03849e-09 -0.00099998)
(7.27969e-09 -1.06193e-08 -0.000999975)
(9.13594e-09 -1.35351e-08 -0.000999969)
(1.11858e-08 -1.6872e-08 -0.000999962)
(1.34495e-08 -2.07238e-08 -0.000999954)
(1.5933e-08 -2.51859e-08 -0.000999945)
(1.86176e-08 -3.03486e-08 -0.000999935)
(2.1448e-08 -3.62904e-08 -0.000999924)
(2.43146e-08 -4.30673e-08 -0.000999911)
(2.70315e-08 -5.06978e-08 -0.000999897)
(2.93061e-08 -5.91431e-08 -0.000999881)
(3.06994e-08 -6.82778e-08 -0.000999864)
(3.05724e-08 -7.78506e-08 -0.000999845)
(2.8014e-08 -8.74274e-08 -0.000999824)
(2.17429e-08 -9.63121e-08 -0.000999802)
(9.98209e-09 -1.03433e-07 -0.000999781)
(-9.65806e-09 -1.07203e-07 -0.000999761)
(-4.07255e-08 -1.05156e-07 -0.000999747)
(-8.83219e-08 -9.36335e-08 -0.000999745)
(-1.5946e-07 -6.74202e-08 -0.00099976)
(-2.63756e-07 -1.91955e-08 -0.000999802)
(-4.14276e-07 6.10503e-08 -0.000999887)
(-6.29311e-07 1.88112e-07 -0.00100004)
(-9.33866e-07 3.82564e-07 -0.00100028)
(-1.36208e-06 6.72969e-07 -0.00100066)
(-1.96048e-06 1.09886e-06 -0.00100123)
(-2.79235e-06 1.7147e-06 -0.00100208)
(-3.94361e-06 2.59537e-06 -0.00100331)
(-5.5309e-06 3.84371e-06 -0.00100509)
(-7.71363e-06 5.60117e-06 -0.0010077)
(-1.07108e-05 8.05994e-06 -0.00101121)
(-1.48118e-05 1.14736e-05 -0.00101371)
(-2.03233e-05 1.61939e-05 -0.00101213)
(-2.68683e-05 2.2315e-05 -0.00103977)
(-3.19602e-05 2.78943e-05 -0.00125582)
(-4.60146e-05 3.60141e-05 -0.000350044)
(5.54955e-05 -3.00013e-05 -0.00258178)
(-1.35622e-06 3.42313e-06 -0.00120808)
(-6.13644e-05 2.45268e-05 -0.00298208)
(-1.33681e-05 2.72621e-05 -0.00192792)
(-7.51006e-05 3.63228e-05 -0.00319179)
(-6.44238e-05 -2.55656e-05 -0.00226472)
(-7.05295e-05 -1.57357e-06 -0.00325129)
(-2.87316e-05 6.5622e-05 -0.00197448)
(-7.99257e-06 0.000147349 -0.00331586)
(4.017e-05 5.08488e-05 -0.00232665)
(-2.3713e-05 -1.43988e-05 -0.00275088)
(-4.00867e-06 -2.43892e-05 -0.00263659)
(2.37006e-05 1.46805e-05 -0.0016892)
(-8.81356e-06 5.65051e-05 -0.00245673)
(8.88675e-05 -4.79277e-05 -0.00110523)
(8.12165e-05 -6.02953e-05 -0.00107718)
(6.06744e-05 -4.7742e-05 -0.00108553)
(4.66574e-05 -3.63316e-05 -0.00107027)
(3.6112e-05 -2.76192e-05 -0.00105423)
(2.79927e-05 -2.10033e-05 -0.00104183)
(2.17237e-05 -1.59724e-05 -0.00103242)
(1.68807e-05 -1.21512e-05 -0.00102517)
(1.31355e-05 -9.25225e-06 -0.00101957)
(1.02359e-05 -7.05249e-06 -0.00101524)
(7.98802e-06 -5.38038e-06 -0.00101188)
(6.24302e-06 -4.10844e-06 -0.00100928)
(4.88635e-06 -3.1405e-06 -0.00100726)
(3.82997e-06 -2.40331e-06 -0.00100568)
(3.00615e-06 -1.84137e-06 -0.00100445)
(2.36274e-06 -1.41257e-06 -0.00100349)
(1.85946e-06 -1.085e-06 -0.00100275)
(1.46521e-06 -8.34465e-07 -0.00100216)
(1.15592e-06 -6.426e-07 -0.0010017)
(9.12975e-07 -4.95481e-07 -0.00100134)
(7.21929e-07 -3.82539e-07 -0.00100106)
(5.71577e-07 -2.95744e-07 -0.00100084)
(4.53182e-07 -2.28985e-07 -0.00100066)
(3.59865e-07 -1.77603e-07 -0.00100053)
(2.8625e-07 -1.38033e-07 -0.00100042)
(2.28134e-07 -1.0754e-07 -0.00100033)
(1.82221e-07 -8.40208e-08 -0.00100026)
(1.4593e-07 -6.58581e-08 -0.00100021)
(1.17234e-07 -5.18102e-08 -0.00100016)
(9.45533e-08 -4.09301e-08 -0.00100013)
(7.66614e-08 -3.2502e-08 -0.0010001)
(6.26147e-08 -2.59928e-08 -0.00100008)
(5.16942e-08 -2.10143e-08 -0.00100006)
(4.33543e-08 -1.72897e-08 -0.00100004)
(3.71504e-08 -1.46215e-08 -0.00100003)
(3.26668e-08 -1.27919e-08 -0.00100002)
(3.04411e-08 -1.17719e-08 -0.00100001)
)
;
    }
    procBoundary3to2
    {
        type            processor;
        value           nonuniform List<vector> 
90
(
(1.97099e-09 -2.32738e-09 -0.00100003)
(4.02764e-09 -5.01262e-09 -0.00100003)
(6.4963e-09 -8.17302e-09 -0.00100003)
(9.30774e-09 -1.1756e-08 -0.00100004)
(1.25866e-08 -1.59262e-08 -0.00100004)
(1.64974e-08 -2.08965e-08 -0.00100004)
(2.12383e-08 -2.69245e-08 -0.00100005)
(2.70535e-08 -3.43278e-08 -0.00100006)
(3.42518e-08 -4.35047e-08 -0.00100008)
(4.32292e-08 -5.49602e-08 -0.00100009)
(5.44962e-08 -6.93387e-08 -0.00100012)
(6.87136e-08 -8.74663e-08 -0.00100015)
(8.67373e-08 -1.10404e-07 -0.00100019)
(1.09676e-07 -1.39513e-07 -0.00100024)
(1.38966e-07 -1.76545e-07 -0.0010003)
(1.76466e-07 -2.23745e-07 -0.00100038)
(2.24585e-07 -2.84e-07 -0.00100048)
(2.86449e-07 -3.6102e-07 -0.0010006)
(3.66122e-07 -4.59575e-07 -0.00100076)
(4.68908e-07 -5.85772e-07 -0.00100097)
(6.01733e-07 -7.4762e-07 -0.00100123)
(7.73648e-07 -9.55611e-07 -0.00100156)
(9.96502e-07 -1.22339e-06 -0.00100199)
(1.28581e-06 -1.56878e-06 -0.00100253)
(1.6618e-06 -2.01505e-06 -0.00100324)
(2.15147e-06 -2.5927e-06 -0.00100414)
(2.79036e-06 -3.34172e-06 -0.00100531)
(3.62539e-06 -4.31459e-06 -0.00100683)
(4.71857e-06 -5.58033e-06 -0.00100879)
(6.15189e-06 -7.22976e-06 -0.00101133)
(8.03394e-06 -9.38252e-06 -0.00101464)
(1.05089e-05 -1.21966e-05 -0.00101896)
(1.37697e-05 -1.5883e-05 -0.00102469)
(1.80762e-05 -2.07285e-05 -0.00103203)
(2.37656e-05 -2.71054e-05 -0.0010389)
(3.12522e-05 -3.53872e-05 -0.00104114)
(4.02855e-05 -4.48541e-05 -0.00107598)
(4.71569e-05 -5.12821e-05 -0.00132033)
(5.53732e-05 -6.53538e-05 -0.000346602)
(-4.73297e-05 7.21734e-05 -0.00276355)
(6.44145e-06 -3.31335e-06 -0.00131235)
(6.98963e-05 -0.000103223 -0.00293896)
(6.19944e-05 -4.83457e-05 -0.00232497)
(2.03009e-05 -6.4705e-05 -0.00316052)
(-3.97695e-05 -5.42e-05 -0.00217343)
(-6.25461e-05 -2.83059e-05 -0.00320692)
(-2.47262e-05 5.88472e-05 -0.00225203)
(-4.70538e-05 0.000173902 -0.00334725)
(2.99347e-06 6.92947e-05 -0.0018058)
(-5.73961e-05 9.09157e-06 -0.00332062)
(-1.98269e-05 1.21471e-05 -0.00204116)
(-1.20491e-05 3.45242e-05 -0.00206703)
(2.49936e-05 8.49394e-05 -0.00204945)
(5.78577e-06 4.7324e-05 -0.0014713)
(-2.67247e-05 4.00081e-05 -0.000930917)
(-1.86564e-05 3.06475e-05 -0.00101627)
(-1.1753e-05 2.20445e-05 -0.00101803)
(-7.48492e-06 1.59895e-05 -0.00101193)
(-4.61364e-06 1.16123e-05 -0.00100724)
(-2.64445e-06 8.40177e-06 -0.00100423)
(-1.31974e-06 6.05308e-06 -0.00100221)
(-4.58154e-07 4.34386e-06 -0.00100085)
(8.04386e-08 3.1045e-06 -0.00100001)
(4.01818e-07 2.20682e-06 -0.00099951)
(5.7673e-07 1.55848e-06 -0.000999236)
(6.5429e-07 1.09196e-06 -0.000999109)
(6.69453e-07 7.5745e-07 -0.000999078)
(6.46288e-07 5.18654e-07 -0.000999105)
(6.01149e-07 3.49121e-07 -0.000999164)
(5.44941e-07 2.29578e-07 -0.00099924)
(4.84792e-07 1.45991e-07 -0.000999323)
(4.25179e-07 8.81705e-08 -0.000999406)
(3.68761e-07 4.87508e-08 -0.000999484)
(3.16968e-07 2.24347e-08 -0.000999556)
(2.70412e-07 5.429e-09 -0.000999621)
(2.29213e-07 -5.01118e-09 -0.000999679)
(1.93246e-07 -1.09798e-08 -0.000999729)
(1.62196e-07 -1.39758e-08 -0.000999773)
(1.35647e-07 -1.50517e-08 -0.000999811)
(1.13148e-07 -1.49464e-08 -0.000999843)
(9.42485e-08 -1.41763e-08 -0.00099987)
(7.852e-08 -1.3096e-08 -0.000999892)
(6.55645e-08 -1.19412e-08 -0.000999911)
(5.50183e-08 -1.08591e-08 -0.000999927)
(4.65538e-08 -9.93121e-09 -0.000999941)
(3.9877e-08 -9.19682e-09 -0.000999953)
(3.47288e-08 -8.66393e-09 -0.000999964)
(3.08591e-08 -8.32987e-09 -0.000999974)
(2.8006e-08 -8.13164e-09 -0.000999984)
(2.6518e-08 -7.84901e-09 -0.000999993)
)
;
    }
}


// ************************************************************************* //
