/*--------------------------------*- C++ -*----------------------------------*\
  =========                 |
  \\      /  F ield         | OpenFOAM: The Open Source CFD Toolbox
   \\    /   O peration     | Website:  https://openfoam.org
    \\  /    A nd           | Version:  9
     \\/     M anipulation  |
\*---------------------------------------------------------------------------*/
FoamFile
{
    format      ascii;
    class       volVectorField;
    location    "1000";
    object      Us;
}
// * * * * * * * * * * * * * * * * * * * * * * * * * * * * * * * * * * * * * //

dimensions      [0 1 -1 0 0 0 0];

internalField   nonuniform List<vector> 
360
(
(0 0 0)
(0 0 0)
(0 0 0)
(0 0 0)
(0 0 0)
(0 0 0)
(0 0 0)
(0 0 0)
(0 0 0)
(0 0 0)
(0 0 0)
(0 0 0)
(0 0 0)
(0 0 0)
(0 0 0)
(0 0 0)
(0 0 0)
(0 0 0)
(0 0 0)
(0 0 0)
(0 0 0)
(0 0 0)
(0 0 0)
(0 0 0)
(0 0 0)
(0 0 0)
(0 0 0)
(0 0 0)
(0 0 0)
(0 0 0)
(0 0 0)
(0 0 0)
(0 0 0)
(0 0 0)
(0 0 0)
(0 0 0)
(0 0 0)
(0 0 0)
(0 0 0)
(0 0 0)
(0 0 0)
(0 0 0)
(0 0 0)
(0 0 0)
(0 0 0)
(0 0 0)
(0 0 0)
(0 0 0)
(0 0 0)
(0 0 0)
(0 0 0)
(0 0 0)
(0 0 0)
(0 0 0)
(0 0 0)
(0 0 0)
(0 0 0)
(0 0 0)
(0 0 0)
(0 0 0)
(0 0 0)
(0 0 0)
(0 0 0)
(0 0 0)
(0 0 0)
(0 0 0)
(0 0 0)
(0 0 0)
(0 0 0)
(0 0 0)
(0 0 0)
(0 0 0)
(0 0 0)
(0 0 0)
(0 0 0)
(0 0 0)
(0 0 0)
(0 0 0)
(0 0 0)
(0 0 0)
(0 0 0)
(0 0 0)
(0 0 0)
(0 0 0)
(0 0 0)
(0 0 0)
(0 0 0)
(0 0 0)
(0 0 0)
(0 0 0)
(0 0 0)
(0 0 0)
(0 0 0)
(0 0 0)
(0 0 0)
(0 0 0)
(0 0 0)
(0 0 0)
(0 0 0)
(0 0 0)
(0 0 0)
(0 0 0)
(0 0 0)
(0 0 0)
(0 0 0)
(0 0 0)
(0 0 0)
(0 0 0)
(0 0 0)
(0 0 0)
(0 0 0)
(0 0 0)
(0 0 0)
(0 0 0)
(0 0 0)
(0 0 0)
(0 0 0)
(0 0 0)
(0 0 0)
(0 0 0)
(0 0 0)
(0 0 0)
(0 0 0)
(0 0 0)
(0 0 0)
(0 0 0)
(0 0 0)
(0 0 0)
(0 0 0)
(0 0 0)
(0 0 0)
(0 0 0)
(0 0 0)
(0 0 0)
(0 0 0)
(0 0 0)
(0 0 0)
(0 0 0)
(0 0 0)
(0 0 0)
(0 0 0)
(0 0 0)
(0 0 0)
(0 0 0)
(0 0 0)
(0 0 0)
(0 0 0)
(0 0 0)
(0 0 0)
(0 0 0)
(0 0 0)
(0 0 0)
(0 0 0)
(0 0 0)
(0 0 0)
(0 0 0)
(0 0 0)
(0 0 0)
(0 0 0)
(0 0 0)
(-8.8492e-07 1.09358e-05 -1.41839e-07)
(1.56851e-07 8.01885e-06 1.37958e-07)
(8.136e-07 9.99031e-06 -1.94043e-07)
(7.8926e-07 9.58379e-06 2.07128e-07)
(-8.61979e-08 1.91546e-05 -4.68803e-07)
(1.58364e-06 1.79092e-05 2.40779e-07)
(-2.49409e-07 2.02501e-05 -3.6864e-07)
(1.07331e-06 1.98884e-05 -3.09868e-07)
(1.6791e-06 2.72842e-05 -8.61026e-07)
(1.30461e-06 2.57918e-05 -2.41791e-07)
(1.65896e-06 2.71074e-05 -2.44207e-07)
(1.45428e-06 2.60614e-05 -7.02006e-07)
(2.84796e-06 3.5195e-05 -1.00886e-06)
(1.49661e-06 3.54523e-05 -7.05922e-07)
(2.94948e-06 3.38521e-05 -4.26754e-07)
(2.51514e-06 3.40551e-05 -2.85049e-07)
(4.03504e-06 4.28333e-05 -9.78512e-07)
(3.22263e-06 4.36483e-05 -1.40671e-06)
(4.31475e-06 4.25747e-05 -5.10803e-07)
(3.351e-06 4.37529e-05 -2.61771e-07)
(5.8828e-06 4.95664e-05 -1.35122e-06)
(4.30831e-06 5.16903e-05 -1.52194e-06)
(5.27661e-06 4.98796e-05 -3.65127e-07)
(4.1363e-06 5.20113e-05 -5.86623e-07)
(6.54421e-06 5.7371e-05 -1.51274e-06)
(6.35552e-06 5.92654e-05 -6.77077e-07)
(6.44707e-06 5.61762e-05 -2.14769e-07)
(4.83738e-06 5.99794e-05 -1.0607e-06)
(7.51224e-06 6.47136e-05 -9.76589e-07)
(7.82565e-06 6.71562e-05 -1.95576e-06)
(6.7609e-06 6.55852e-05 1.84889e-07)
(5.95756e-06 6.73491e-05 -9.27098e-08)
(9.0369e-06 7.17358e-05 -5.17725e-07)
(7.25045e-06 7.44501e-05 -2.93456e-06)
(6.61909e-06 7.35748e-05 3.49155e-07)
(6.36821e-06 7.36756e-05 -3.70039e-07)
(1.11641e-05 7.84709e-05 -6.36529e-07)
(9.09565e-06 7.96998e-05 -3.41628e-06)
(6.08417e-06 7.96964e-05 1.62062e-07)
(6.64417e-06 7.97728e-05 -1.09113e-06)
(1.14418e-05 8.64733e-05 -5.80144e-07)
(1.0598e-05 8.68377e-05 -4.42139e-06)
(7.42593e-06 8.82661e-05 4.2982e-07)
(5.63998e-06 8.58255e-05 -8.34747e-07)
(1.07745e-05 9.32607e-05 -1.72968e-07)
(1.12548e-05 9.15155e-05 -5.16527e-06)
(6.15816e-06 9.90994e-05 -3.92236e-07)
(7.06588e-06 8.70754e-05 -3.64419e-06)
(4.03309e-05 0.000154612 -2.25148e-05)
(1.31477e-05 9.35857e-05 -6.47668e-06)
(3.7465e-05 0.000147017 -3.22189e-05)
(-1.91082e-05 7.65614e-05 9.22093e-06)
(0.000152639 0.000420268 -1.34789e-05)
(0 0 0)
(0.000127836 0.000363953 -7.82927e-05)
(-2.97941e-06 4.31896e-05 -5.03939e-06)
(0 0 0)
(0 0 0)
(0 0 0)
(0 0 0)
(0 0 0)
(0 0 0)
(0 0 0)
(0 0 0)
(0 0 0)
(0 0 0)
(0 0 0)
(0 0 0)
(0 0 0)
(0 0 0)
(0 0 0)
(0 0 0)
(0 0 0)
(0 0 0)
(0 0 0)
(0 0 0)
(0 0 0)
(0 0 0)
(0 0 0)
(0 0 0)
(0 0 0)
(0 0 0)
(0 0 0)
(0 0 0)
(0 0 0)
(0 0 0)
(0 0 0)
(0 0 0)
(0 0 0)
(0 0 0)
(0 0 0)
(0 0 0)
(0 0 0)
(0 0 0)
(0 0 0)
(0 0 0)
(0 0 0)
(0 0 0)
(0 0 0)
(0 0 0)
(0 0 0)
(0 0 0)
(0 0 0)
(0 0 0)
(0 0 0)
(0 0 0)
(0 0 0)
(0 0 0)
(0 0 0)
(0 0 0)
(0 0 0)
(0 0 0)
(0 0 0)
(0 0 0)
(0 0 0)
(0 0 0)
(0 0 0)
(0 0 0)
(0 0 0)
(0 0 0)
(0 0 0)
(0 0 0)
(0 0 0)
(0 0 0)
(0 0 0)
(0 0 0)
(0 0 0)
(0 0 0)
(0 0 0)
(0 0 0)
(0 0 0)
(0 0 0)
(0 0 0)
(0 0 0)
(0 0 0)
(0 0 0)
(0 0 0)
(0 0 0)
(0 0 0)
(0 0 0)
(0 0 0)
(0 0 0)
(0 0 0)
(0 0 0)
(0 0 0)
(0 0 0)
(0 0 0)
(0 0 0)
(0 0 0)
(0 0 0)
(0 0 0)
(0 0 0)
(0 0 0)
(0 0 0)
(0 0 0)
(0 0 0)
(0 0 0)
(0 0 0)
(0 0 0)
(0 0 0)
(0 0 0)
(0 0 0)
(0 0 0)
(0 0 0)
(0 0 0)
(0 0 0)
(0 0 0)
(0 0 0)
(0 0 0)
(0 0 0)
(0 0 0)
(0 0 0)
(0 0 0)
(0 0 0)
(0 0 0)
(0 0 0)
(0 0 0)
(0 0 0)
(0 0 0)
(0 0 0)
(0 0 0)
(0 0 0)
(0 0 0)
(0 0 0)
(0 0 0)
(0 0 0)
(0 0 0)
(0 0 0)
(0 0 0)
(0 0 0)
(0 0 0)
(0 0 0)
(0 0 0)
(0 0 0)
(0 0 0)
(0 0 0)
(0 0 0)
(0 0 0)
(0 0 0)
(0 0 0)
)
;

boundaryField
{
    inlet
    {
        type            fixedValue;
        value           uniform (0 0 0);
    }
    outlet
    {
        type            fixedValue;
        value           uniform (0 0 0);
    }
    repeat_boundary
    {
        type            fixedValue;
        value           uniform (0 0 0);
    }
}


// ************************************************************************* //
