/*--------------------------------*- C++ -*----------------------------------*\
| =========                 |                                                 |
| \\      /  F ield         | OpenFOAM: The Open Source CFD Toolbox           |
|  \\    /   O peration     | Version:  5.x                                   |
|   \\  /    A nd           | Web:      www.OpenFOAM.org                      |
|    \\/     M anipulation  |                                                 |
\*---------------------------------------------------------------------------*/
FoamFile
{
    version     2.0;
    format      ascii;
    class       volVectorField;
    location    "500";
    object      Us;
}
// * * * * * * * * * * * * * * * * * * * * * * * * * * * * * * * * * * * * * //

dimensions      [0 1 -1 0 0 0 0];

internalField   nonuniform List<vector> 
90
(
(0 0 0)
(0 0 0)
(0 0 0)
(0 0 0)
(0 0 0)
(0 0 0)
(0 0 0)
(0 0 0)
(0 0 0)
(0 0 0)
(0 0 0)
(0 0 0)
(0 0 0)
(0 0 0)
(0 0 0)
(0 0 0)
(0 0 0)
(0 0 0)
(0 0 0)
(0 0 0)
(0 0 0)
(0 0 0)
(0 0 0)
(0 0 0)
(0 0 0)
(0 0 0)
(0 0 0)
(0 0 0)
(0 0 0)
(0 0 0)
(0 0 0)
(0 0 0)
(0 0 0)
(0 0 0)
(0 0 0)
(0 0 0)
(0 0 0)
(0 0 0)
(0 0 0)
(0 0 0)
(6.42768e-06 2.73509e-06 -3.63019e-07)
(1.2169e-05 4.5432e-06 -1.41742e-06)
(1.71806e-05 5.99414e-06 -2.0351e-06)
(2.34811e-05 6.99056e-06 -1.81003e-06)
(3.0783e-05 9.20332e-06 -1.29997e-06)
(3.65571e-05 1.15981e-05 -1.36825e-06)
(4.35024e-05 1.38534e-05 -1.52281e-06)
(4.95224e-05 1.65103e-05 -7.07689e-07)
(5.61383e-05 1.7281e-05 4.77718e-09)
(6.03296e-05 1.70916e-05 9.1897e-07)
(6.42564e-05 1.86316e-05 5.50876e-07)
(5.86666e-05 1.52625e-05 -1.23823e-05)
(-0.000107671 -4.81333e-05 -0.000176307)
(-3.03363e-05 -8.48127e-05 -0.000184331)
(0 0 0)
(0 0 0)
(0 0 0)
(0 0 0)
(0 0 0)
(0 0 0)
(0 0 0)
(0 0 0)
(0 0 0)
(0 0 0)
(0 0 0)
(0 0 0)
(0 0 0)
(0 0 0)
(0 0 0)
(0 0 0)
(0 0 0)
(0 0 0)
(0 0 0)
(0 0 0)
(0 0 0)
(0 0 0)
(0 0 0)
(0 0 0)
(0 0 0)
(0 0 0)
(0 0 0)
(0 0 0)
(0 0 0)
(0 0 0)
(0 0 0)
(0 0 0)
(0 0 0)
(0 0 0)
(0 0 0)
(0 0 0)
)
;

boundaryField
{
    inlet
    {
        type            fixedValue;
        value           uniform (0 0 0);
    }
    outlet
    {
        type            fixedValue;
        value           uniform (0 0 0);
    }
    repeat_boundary
    {
        type            fixedValue;
        value           uniform (0 0 0);
    }
    procBoundary3to1
    {
        type            processor;
        value           nonuniform List<vector> 
90
(
(0 0 0)
(0 0 0)
(0 0 0)
(0 0 0)
(0 0 0)
(0 0 0)
(0 0 0)
(0 0 0)
(0 0 0)
(0 0 0)
(0 0 0)
(0 0 0)
(0 0 0)
(0 0 0)
(0 0 0)
(0 0 0)
(0 0 0)
(0 0 0)
(0 0 0)
(0 0 0)
(0 0 0)
(0 0 0)
(0 0 0)
(0 0 0)
(0 0 0)
(0 0 0)
(0 0 0)
(0 0 0)
(0 0 0)
(0 0 0)
(0 0 0)
(0 0 0)
(0 0 0)
(0 0 0)
(0 0 0)
(0 0 0)
(0 0 0)
(0 0 0)
(0 0 0)
(0 0 0)
(4.85827e-06 1.93135e-06 -2.79076e-07)
(1.05522e-05 3.17834e-06 -5.69863e-07)
(1.55065e-05 4.84425e-06 -7.08189e-07)
(2.20975e-05 6.8827e-06 -2.38461e-06)
(2.8978e-05 8.63299e-06 -2.56414e-06)
(3.58409e-05 1.1368e-05 -2.39777e-06)
(4.35093e-05 1.37255e-05 -1.16571e-06)
(4.85451e-05 1.41084e-05 -1.96859e-07)
(5.4354e-05 1.71324e-05 2.05325e-06)
(5.76289e-05 1.90505e-05 1.16723e-06)
(5.94604e-05 2.15299e-05 1.91305e-06)
(5.87867e-05 2.08984e-05 3.20849e-06)
(5.57942e-05 7.17516e-05 -1.42901e-05)
(0 0 0)
(0 0 0)
(0 0 0)
(0 0 0)
(0 0 0)
(0 0 0)
(0 0 0)
(0 0 0)
(0 0 0)
(0 0 0)
(0 0 0)
(0 0 0)
(0 0 0)
(0 0 0)
(0 0 0)
(0 0 0)
(0 0 0)
(0 0 0)
(0 0 0)
(0 0 0)
(0 0 0)
(0 0 0)
(0 0 0)
(0 0 0)
(0 0 0)
(0 0 0)
(0 0 0)
(0 0 0)
(0 0 0)
(0 0 0)
(0 0 0)
(0 0 0)
(0 0 0)
(0 0 0)
(0 0 0)
(0 0 0)
(0 0 0)
)
;
    }
    procBoundary3to2
    {
        type            processor;
        value           nonuniform List<vector> 
90
(
(0 0 0)
(0 0 0)
(0 0 0)
(0 0 0)
(0 0 0)
(0 0 0)
(0 0 0)
(0 0 0)
(0 0 0)
(0 0 0)
(0 0 0)
(0 0 0)
(0 0 0)
(0 0 0)
(0 0 0)
(0 0 0)
(0 0 0)
(0 0 0)
(0 0 0)
(0 0 0)
(0 0 0)
(0 0 0)
(0 0 0)
(0 0 0)
(0 0 0)
(0 0 0)
(0 0 0)
(0 0 0)
(0 0 0)
(0 0 0)
(0 0 0)
(0 0 0)
(0 0 0)
(0 0 0)
(0 0 0)
(0 0 0)
(0 0 0)
(0 0 0)
(0 0 0)
(0 0 0)
(7.59431e-06 1.06735e-06 -2.23906e-08)
(1.25131e-05 3.15618e-06 1.70645e-07)
(1.7868e-05 5.21495e-06 -3.90972e-07)
(2.36713e-05 7.17463e-06 -2.25323e-07)
(2.96931e-05 9.24695e-06 -4.52561e-07)
(3.69994e-05 1.11932e-05 -4.90144e-07)
(4.45917e-05 1.34064e-05 -1.4265e-07)
(5.02602e-05 1.62247e-05 -3.87727e-07)
(5.58122e-05 1.83265e-05 -8.30888e-07)
(6.04363e-05 2.07757e-05 -1.63495e-06)
(6.48638e-05 2.24159e-05 -1.6793e-06)
(6.05485e-05 1.71715e-05 -9.44713e-06)
(4.59776e-05 4.78934e-05 -5.66653e-05)
(0.0001231 0.000395516 -5.94275e-05)
(0 0 0)
(0 0 0)
(0 0 0)
(0 0 0)
(0 0 0)
(0 0 0)
(0 0 0)
(0 0 0)
(0 0 0)
(0 0 0)
(0 0 0)
(0 0 0)
(0 0 0)
(0 0 0)
(0 0 0)
(0 0 0)
(0 0 0)
(0 0 0)
(0 0 0)
(0 0 0)
(0 0 0)
(0 0 0)
(0 0 0)
(0 0 0)
(0 0 0)
(0 0 0)
(0 0 0)
(0 0 0)
(0 0 0)
(0 0 0)
(0 0 0)
(0 0 0)
(0 0 0)
(0 0 0)
(0 0 0)
(0 0 0)
)
;
    }
}


// ************************************************************************* //
