FoamFile
{version 2.0; format ascii;class Cloud<passiveParticle>; location 0;object  positions;}
345
(
( 0.00101791 -0.00132762 0.000497892 ) 0 
( 0.00441609 -0.00109753 0.00049879 ) 0 
( 0.00348377 -0.00280865 0.000498674 ) 0 
( 0.00248772 -0.00289069 0.000498168 ) 0 
( 0.00185205 -0.00187712 0.00049797 ) 0 
( 0.00194788 -0.00373144 0.000497667 ) 0 
( 0.00418356 -0.00209485 0.000498455 ) 0 
( 0.00240408 -0.0046202 0.000496863 ) 0 
( 0.00494756 -0.000251136 0.000498283 ) 0 
( 0.003717 -0.00441715 0.000496846 ) 0 
( 0.00294615 -0.00378023 0.000497863 ) 0 
( 2.02653e-05 -0.00138248 0.000498648 ) 0 
( 0.000360055 -0.000442698 0.000498435 ) 0 
( 0.00284854 -0.00195938 0.000498983 ) 0 
( 0.003418 -0.00113833 0.000497932 ) 0 
( 0.000287965 -0.00436992 0.000498282 ) 0 
( 0.000954377 -0.00362515 0.000499291 ) 0 
( 0.00232275 -0.000370612 0.00121634 ) 0 
( 0.000153174 -0.00198875 0.00130227 ) 0 
( 0.00299905 -0.000231686 0.000497382 ) 0 
( 0.00266636 -0.0013774 0.00141021 ) 0 
( 0.00466416 -0.00409664 0.000498761 ) 0 
( 0.00153598 -0.00047292 0.000498057 ) 0 
( 0.00150511 -0.0028057 0.000655486 ) 0 
( 0.00477875 -0.00194002 0.00128532 ) 0 
( 0.00443324 -0.00312464 0.000498488 ) 0 
( 0.00242184 -0.00105592 0.000497557 ) 0 
( 0.000654839 -0.00230597 0.000497885 ) 0 
( 3.06567e-05 -0.00324389 0.000498605 ) 0 
( 0.00139334 -0.00456889 0.000497896 ) 0 
( 0.000442909 -0.00395328 0.00139167 ) 0 
( 0.00198435 -0.00483144 0.00137627 ) 0 
( 0.00353709 -0.00182639 0.0012109 ) 0 
( 0.00433436 -0.00468923 0.0012326 ) 0 
( 0.00229706 -0.00229723 0.00128685 ) 0 
( 0.000673695 -0.0029945 0.00122245 ) 0 
( 0.00339187 -0.000599915 0.00133856 ) 0 
( 0.00243776 -0.0039419 0.0013416 ) 0 
( 0.00299541 -0.00300852 0.00134883 ) 0 
( 0.00422778 -0.00112986 0.00147873 ) 0 
( 0.00428413 -0.000161891 0.00123925 ) 0 
( 0.00143771 -0.0039966 0.00131349 ) 0 
( 0.00308799 -0.00469672 0.00121912 ) 0 
( 0.00441169 -0.00365658 0.00180226 ) 0 
( 0.000955948 -0.000163836 0.00124961 ) 0 
( 0.00123285 -0.00203583 0.00126466 ) 0 
( 0.00188441 -0.00315071 0.00160068 ) 0 
( 0.000532243 -0.00106457 0.00132879 ) 0 
( 0.00375088 -0.00359258 0.0010576 ) 0 
( 0.00224349 -0.00080398 0.00211129 ) 0 
( 0.00171489 -0.00116462 0.00119477 ) 0 
( 4.57835e-05 -0.00486995 0.00132865 ) 0 
( 0.00302464 -0.0022258 0.00196992 ) 0 
( 0.00405594 -0.00267414 0.00130621 ) 0 
( 6.16389e-05 -0.0019124 0.00277528 ) 0 
( 0.00476683 -0.000410592 0.00207802 ) 0 
( 0.00129999 -0.00252907 0.00212882 ) 0 
( 0.00495273 -0.00243014 0.00213774 ) 0 
( 0.00188541 -0.00173041 0.00199962 ) 0 
( 0.000748408 -0.00169759 0.00206945 ) 0 
( 0.000989847 -0.00448385 0.00207726 ) 0 
( 0.00123356 -0.000788696 0.00198459 ) 0 
( 0.0034272 -0.00129833 0.00205032 ) 0 
( 0.00400545 -0.00210963 0.00212875 ) 0 
( 0.00363845 -0.00310104 0.00210658 ) 0 
( 0.00101777 -0.00348491 0.0020607 ) 0 
( 0.000304279 -0.00259154 0.00208426 ) 0 
( 0.0034599 -0.00405949 0.00189145 ) 0 
( 0.00412685 -0.00413644 0.00263145 ) 0 
( 0.000677934 -0.00017494 0.00254334 ) 0 
( 3.02763e-05 -0.00354357 0.0022032 ) 0 
( 0.00268288 -0.00478231 0.00212721 ) 0 
( 0.00270455 -0.00347403 0.00218252 ) 0 
( 0.00258604 -0.00417538 0.00291829 ) 0 
( 0.00394271 -0.000643162 0.00259871 ) 0 
( 0.000250826 -0.00497497 0.0025378 ) 0 
( 0.00166873 -0.000204537 0.00266758 ) 0 
( 0.00460942 -0.00135228 0.00237487 ) 0 
( 0.00263879 -0.00267304 0.00277587 ) 0 
( 0.00103546 -0.00204453 0.00296067 ) 0 
( 0.00164749 -0.00119487 0.00280894 ) 0 
( 0.00265126 -0.00156238 0.00261861 ) 0 
( 0.00447351 -0.00313896 0.00265321 ) 0 
( 0.000757249 -0.00300228 0.00289474 ) 0 
( 0.00182695 -0.00323624 0.00259463 ) 0 
( 0.00485975 -0.00451177 0.00206194 ) 0 
( 0.00192237 -0.00413656 0.0021737 ) 0 
( 0.000655014 -0.00111629 0.00287536 ) 0 
( 0.000540388 -0.00407992 0.0028725 ) 0 
( 0.00297984 -0.000651498 0.00286725 ) 0 
( 0.000352184 -0.00241085 0.00359096 ) 0 
( 0.00371991 -0.0015637 0.00296544 ) 0 
( 0.00332388 -0.00350449 0.00296428 ) 0 
( 0.00454122 -0.00213222 0.00299609 ) 0 
( 0.00442255 -0.00100399 0.00339821 ) 0 
( 0.00338448 -0.004772 0.00284196 ) 0 
( 0.00200256 -0.00203643 0.00320977 ) 0 
( 0.00158709 -0.00464908 0.00296084 ) 0 
( 0.00123923 -0.000584487 0.00348583 ) 0 
( 0.00136704 -0.00374398 0.00331948 ) 0 
( 0.00379629 -0.000231637 0.00349601 ) 0 
( 0.00237013 -0.00113312 0.00349591 ) 0 
( 0.000376029 -8.11229e-05 0.00348963 ) 0 
( 0.00392749 -0.00209859 0.0037832 ) 0 
( 0.00459664 -0.00469924 0.00352093 ) 0 
( 0.00145292 -0.00278315 0.00357666 ) 0 
( 0.00206967 -0.00429453 0.0037648 ) 0 
( 0.00297196 -0.00201441 0.00344976 ) 0 
( 0.000664443 -0.00331404 0.00388219 ) 0 
( 0.00363984 -0.00255797 0.00294342 ) 0 
( 0.00410395 -0.00324119 0.00357417 ) 0 
( 0.00295875 -0.0047499 0.00377443 ) 0 
( 0.0037483 -0.00417523 0.00356738 ) 0 
( 0.00230862 -0.00333481 0.00346419 ) 0 
( 0.00172675 -0.0016367 0.00408312 ) 0 
( 0.000204501 -0.00415172 0.00426213 ) 0 
( 0.00078175 -0.00152832 0.00377637 ) 0 
( 0.00101316 -0.00231789 0.00434305 ) 0 
( 0.00333533 -0.00108054 0.0037498 ) 0 
( 0.000221634 -0.000799564 0.00416663 ) 0 
( 0.00167116 -0.00349911 0.00423791 ) 0 
( 0.0031725 -0.00293844 0.00377374 ) 0 
( 0.0049421 -0.00375378 0.00385861 ) 0 
( 0.00201781 -0.000406813 0.00408561 ) 0 
( 0.000891408 -0.00456703 0.00367024 ) 0 
( 0.00459441 -0.000323321 0.00410699 ) 0 
( 0.00485419 -0.00262429 0.00380706 ) 0 
( 0.000946988 -0.000100184 0.00430842 ) 0 
( 0.00269798 -0.00160104 0.00431571 ) 0 
( 0.00371637 -0.00341956 0.00447597 ) 0 
( 0.00110008 -0.00104559 0.00458985 ) 0 
( 0.00283703 -0.00300924 0.00471241 ) 0 
( 0.00286915 -0.00382192 0.00413264 ) 0 
( 0.00290484 -0.000592179 0.00450736 ) 0 
( 0.00427278 -0.00424733 0.00441247 ) 0 
( 0.00238121 -0.00476242 0.00458931 ) 0 
( 0.00229868 -0.002513 0.00403482 ) 0 
( 0.00413554 -0.00127048 0.00431734 ) 0 
( 0.00143586 -0.00442703 0.00452585 ) 0 
( 0.000832837 -0.0036056 0.00482219 ) 0 
( 0.00448578 -0.00215963 0.00460997 ) 0 
( 0.000464256 -0.00271253 0.00507789 ) 0 
( 0.00148654 -0.00182905 0.00507482 ) 0 
( 0.00342428 -0.00220493 0.00463871 ) 0 
( 0.00377044 -0.000105762 0.00462727 ) 0 
( 0.00221295 -7.19928e-05 0.005006 ) 0 
( 0.00024327 -0.000506604 0.00512107 ) 0 
( 0.00334969 -0.00453115 0.00466694 ) 0 
( 0.00467248 -0.00317342 0.00462403 ) 0 
( 0.00143121 -0.00407931 0.00546638 ) 0 
( 0.00165461 -0.00280657 0.00495703 ) 0 
( 0.00206458 -0.00104649 0.00485105 ) 0 
( 0.00226254 -0.00383797 0.00496694 ) 0 
( 0.00217247 -0.00147484 0.00574728 ) 0 
( 0.000177279 -0.00349364 0.00562977 ) 0 
( 0.00299913 -0.00128998 0.00521668 ) 0 
( 0.00312958 -0.000177526 0.00538974 ) 0 
( 0.00051314 -0.0016231 0.00515596 ) 0 
( 0.00408664 -0.00475592 0.00530353 ) 0 
( 0.00394791 -0.00160328 0.00524052 ) 0 
( 0.00242197 -0.00217872 0.00508195 ) 0 
( 0.00320992 -0.00374808 0.00527042 ) 0 
( 0.0026812 -0.00455729 0.0055186 ) 0 
( 0.00495624 -0.00157505 0.00530768 ) 0 
( 0.00421128 -0.00376492 0.00528492 ) 0 
( 0.00135797 -0.00092831 0.00554727 ) 0 
( 0.000353754 -0.00438703 0.00521998 ) 0 
( 0.000288606 -0.0010612 0.00595072 ) 0 
( 0.00397166 -0.00279679 0.00522775 ) 0 
( 0.00445301 -0.00068886 0.00506616 ) 0 
( 0.00483043 -0.00110826 0.00618039 ) 0 
( 0.00183761 -0.000139128 0.00592883 ) 0 
( 0.00265708 -0.000680211 0.00611148 ) 0 
( 0.00325977 -0.00221798 0.00562378 ) 0 
( 0.00111646 -0.00316429 0.00571873 ) 0 
( 0.00369256 -0.00405579 0.00608775 ) 0 
( 0.00333735 -0.00312344 0.00603847 ) 0 
( 0.00442968 -0.00219779 0.00588295 ) 0 
( 0.000737353 -0.00223856 0.00591224 ) 0 
( 0.00453537 -0.000186151 0.00592587 ) 0 
( 0.000695984 -0.00418271 0.00613468 ) 0 
( 0.00243322 -0.00301738 0.00562499 ) 0 
( 0.00376488 -0.000814196 0.00582336 ) 0 
( 0.00172859 -0.00235921 0.00588609 ) 0 
( 0.00433365 -0.0031724 0.00608012 ) 0 
( 0.00111471 -0.00143689 0.00637157 ) 0 
( 0.00267324 -0.00249776 0.00644318 ) 0 
( 0.00296388 -0.00376655 0.00670592 ) 0 
( 0.00157646 -0.00462145 0.00631 ) 0 
( 0.00303621 -0.00157187 0.00635162 ) 0 
( 0.000974743 -0.00044301 0.00633179 ) 0 
( 0.00183874 -0.000815486 0.00666827 ) 0 
( 0.00171307 -0.00313114 0.00651974 ) 0 
( 0.00431605 -0.00477692 0.00638219 ) 0 
( 0.00220042 -0.00387924 0.00607152 ) 0 
( 0.00116472 -0.00234688 0.00680935 ) 0 
( 0.003676 -0.00232012 0.00652629 ) 0 
( 0.000407341 -0.00483996 0.00683058 ) 0 
( 0.00327378 -0.000715976 0.00689725 ) 0 
( 0.000717896 -0.00328747 0.00662708 ) 0 
( 0.00020393 -0.00179062 0.00662813 ) 0 
( 0.00348602 -0.00459454 0.00690783 ) 0 
( 0.00424258 -0.000409959 0.00685378 ) 0 
( 0.00256012 -0.00482696 0.00647187 ) 0 
( 0.0047259 -0.00244648 0.00680368 ) 0 
( 0.000363633 -4.71049e-06 0.00698972 ) 0 
( 0.00109641 -0.0041483 0.00704796 ) 0 
( 0.00397635 -0.00137201 0.00662391 ) 0 
( 0.0020954 -0.00413811 0.0070309 ) 0 
( 0.00140088 -0.00159607 0.00745168 ) 0 
( 0.00236837 -0.000225799 0.00727743 ) 0 
( 0.00429472 -0.00381201 0.00684617 ) 0 
( 0.000664709 -0.000994428 0.00714501 ) 0 
( 0.00199317 -0.00180373 0.00667403 ) 0 
( 0.00333867 -0.00176427 0.00728396 ) 0 
( 0.00159547 -0.00339605 0.00747533 ) 0 
( 0.00250507 -0.00121444 0.00729736 ) 0 
( 0.00360621 -0.00312175 0.00711752 ) 0 
( 0.00459848 -0.0016278 0.00736221 ) 0 
( 0.00214545 -0.00258348 0.00728619 ) 0 
( 0.00258936 -0.00343304 0.00756949 ) 0 
( 0.00302374 -0.00256243 0.00779513 ) 0 
( 0.0030313 -0.000610452 0.00791835 ) 0 
( 0.00132357 -0.00251031 0.0078488 ) 0 
( 0.000430031 -0.0022558 0.00748287 ) 0 
( 0.00393486 -0.000936584 0.0076447 ) 0 
( 0.000541571 -0.00430511 0.00786357 ) 0 
( 0.0034844 -0.00394604 0.00766787 ) 0 
( 0.00144418 -0.000506648 0.00753314 ) 0 
( 0.000663722 -0.00331442 0.00782592 ) 0 
( 0.00468132 -0.00316199 0.00749975 ) 0 
( 0.00451841 -2.69952e-05 0.00774191 ) 0 
( 0.00161146 -0.00442893 0.00785614 ) 0 
( 0.000206148 -0.000636967 0.00795763 ) 0 
( 0.0021075 -0.000894243 0.00817151 ) 0 
( 0.00371164 -5.96595e-06 0.00833084 ) 0 
( 0.00342929 -0.00154681 0.00825333 ) 0 
( 0.00217799 -0.00283284 0.00825441 ) 0 
( 0.00450793 -0.0041068 0.00777585 ) 0 
( 0.00442071 -0.00177455 0.00833494 ) 0 
( 0.00159932 -0.00362362 0.00844774 ) 0 
( 0.00260968 -0.00438646 0.00786562 ) 0 
( 0.00486105 -0.000923603 0.00802031 ) 0 
( 0.00219985 -0.00187143 0.00798479 ) 0 
( 0.00381707 -0.00480187 0.00806113 ) 0 
( 0.00106754 -0.00107335 0.0082643 ) 0 
( 0.00252775 -3.48396e-05 0.00881331 ) 0 
( 0.000319289 -0.00173255 0.00832704 ) 0 
( 0.00402609 -0.00239233 0.00765556 ) 0 
( 0.000644461 -0.00264729 0.00856861 ) 0 
( 0.00411258 -0.00408642 0.00869266 ) 0 
( 0.00407412 -0.000886241 0.00863541 ) 0 
( 0.00395941 -0.00323641 0.00818711 ) 0 
( 0.00301392 -0.00484792 0.00865433 ) 0 
( 0.00150399 -0.00282888 0.00904622 ) 0 
( 0.0015388 -0.000383037 0.00881488 ) 0 
( 0.00490379 -0.0049038 0.00824078 ) 0 
( 0.00210536 -0.00443841 0.00872616 ) 0 
( 0.00353387 -0.00245848 0.00864821 ) 0 
( 0.00144833 -0.00191626 0.00864249 ) 0 
( 0.00295545 -0.00366837 0.00846952 ) 0 
( 0.00438888 -6.06462e-05 0.00910202 ) 0 
( 0.000677518 -0.00366502 0.00882917 ) 0 
( 0.00118801 -0.00119347 0.00928157 ) 0 
( 0.00481634 -0.0013291 0.00913756 ) 0 
( 0.00363126 -0.00164604 0.00922644 ) 0 
( 0.00273762 -0.00289175 0.0090793 ) 0 
( 0.00155603 -0.00483923 0.00953113 ) 0 
( 0.00271337 -0.00192203 0.00884013 ) 0 
( 0.00436893 -0.00231909 0.00917869 ) 0 
( 0.00196392 -0.00205336 0.00948766 ) 0 
( 0.00217521 -0.00113541 0.0091387 ) 0 
( 0.000606278 -0.00473377 0.00918491 ) 0 
( 0.00480649 -0.00462081 0.00919818 ) 0 
( 0.00363534 -0.00332652 0.00913174 ) 0 
( 0.00384873 -0.00490579 0.00920074 ) 0 
( 0.00461446 -0.00325998 0.00894676 ) 0 
( 0.00310284 -0.000848626 0.00888876 ) 0 
( 0.000490266 -0.000579977 0.00891413 ) 0 
( 0.00304508 -0.000428686 0.00979365 ) 0 
( 0.00206388 -0.000290982 0.00966073 ) 0 
( 0.00397313 -0.000799059 0.00963136 ) 0 
( 0.00112005 -0.0039522 0.00967745 ) 0 
( 0.00056498 -0.0019736 0.00930113 ) 0 
( 0.00308977 -0.00413425 0.00934873 ) 0 
( 8.43429e-05 -0.00397277 0.00957227 ) 0 
( 0.00210552 -0.00362986 0.00931299 ) 0 
( 0.00179909 -0.00125714 0.0100693 ) 0 
( 0.00406525 -0.00403616 0.00968921 ) 0 
( 0.00106514 -0.000289359 0.0096896 ) 0 
( 0.000579858 -0.00294885 0.00951942 ) 0 
( 0.00426346 -0.00305388 0.00985954 ) 0 
( 0.000218318 -0.000329839 0.0102177 ) 0 
( 0.0017868 -0.000418129 0.0106124 ) 0 
( 0.0028428 -0.00337357 0.00994841 ) 0 
( 0.00240633 -0.00453368 0.00995779 ) 0 
( 2.50646e-05 -0.00327446 0.0102844 ) 0 
( 0.00432357 -0.00168069 0.00994657 ) 0 
( 0.00344049 -0.0025149 0.00968156 ) 0 
( 0.00279892 -0.00158509 0.00977707 ) 0 
( 0.000498197 -0.00126455 0.0100017 ) 0 
( 0.00336878 -0.00450016 0.0102357 ) 0 
( 0.00051825 -0.00412989 0.0104588 ) 0 
( 0.00195574 -0.00291468 0.0099946 ) 0 
( 0.00395085 -0.00259608 0.010691 ) 0 
( 0.00209227 -0.00208849 0.0105403 ) 0 
( 0.00360723 -0.000745607 0.0105598 ) 0 
( 0.00116284 -0.00230728 0.0100286 ) 0 
( 0.00366853 -0.00356724 0.0104777 ) 0 
( 0.00440692 -0.00469954 0.0103542 ) 0 
( 0.00488537 -0.000925484 0.0102831 ) 0 
( 0.00182857 -0.00383147 0.0103719 ) 0 
( 0.000458576 -0.00248418 0.0107156 ) 0 
( 0.00296067 -0.00258334 0.0105554 ) 0 
( 0.00263035 -0.000955588 0.0105351 ) 0 
( 0.00348513 -0.00173522 0.0104877 ) 0 
( 0.00431958 -0.000101468 0.0102575 ) 0 
( 0.00102471 -0.0032368 0.0103687 ) 0 
( 0.00486017 -0.00218137 0.0106674 ) 0 
( 0.000884165 -0.000803808 0.0108001 ) 0 
( 0.0013145 -0.0006078 0.0116809 ) 0 
( 0.00134086 -0.00461684 0.0107512 ) 0 
( 0.00191944 -0.00122838 0.0111827 ) 0 
( 0.00274591 -0.00393143 0.0107721 ) 0 
( 0.00320837 -0.00321294 0.0112913 ) 0 
( 0.00107019 -0.00377191 0.0112118 ) 0 
( 0.00277293 -0.00174874 0.0111887 ) 0 
( 0.00430611 -0.0013974 0.0109468 ) 0 
( 0.00113846 -0.00176786 0.0108696 ) 0 
( 0.00462473 -0.00340702 0.0107222 ) 0 
( 0.00220415 -0.00310572 0.0109469 ) 0 
( 0.00425966 -0.000371249 0.0112181 ) 0 
( 0.000197224 -0.000228184 0.0112422 ) 0 
( 0.0019805 -0.00416389 0.0113715 ) 0 
( 0.00370046 -0.00200648 0.0114585 ) 0 
( 0.0017802 -0.00329912 0.0118315 ) 0 
( 0.00131864 -0.0027024 0.0111755 ) 0 
( 0.000464799 -0.00480599 0.0111935 ) 0 
( 0.00391925 -0.00428785 0.0111237 ) 0 
( 0.00273278 -0.000849562 0.0116239 ) 0 
( 0.0045785 -0.00273079 0.0114572 ) 0 
( 8.64123e-05 -0.00362833 0.0113171 ) 0 
( 0.00214645 -0.00238538 0.0116378 ) 0 
( 0.00307579 -0.00482465 0.0111347 ) 0 
( 0.00295042 -0.000118402 0.0109778 ) 0 
)
