FoamFile
{version 2.0; format ascii;class vectorField; location 0;object  v;}
345
(
( -1.69125e-06 4.59901e-06 -1.32352e-05 )  
( -1.09644e-06 3.41747e-07 -1.29207e-05 )  
( 2.02808e-07 1.0914e-07 -1.19715e-05 )  
( 6.29428e-07 -1.32734e-06 -1.04359e-05 )  
( -9.43939e-07 1.19271e-06 -1.40081e-05 )  
( 2.0994e-06 -2.48257e-06 -1.31729e-05 )  
( -1.11417e-06 1.53356e-06 -1.20277e-05 )  
( 4.16606e-06 3.27985e-06 -1.36375e-05 )  
( -1.95314e-06 -2.34818e-06 -1.47375e-05 )  
( 2.15498e-06 3.5919e-06 -1.43886e-05 )  
( 2.31819e-06 1.10457e-06 -1.39595e-05 )  
( -5.68028e-07 3.52873e-06 -1.06142e-05 )  
( -1.5211e-06 3.10558e-07 -1.1848e-05 )  
( 3.52024e-07 -1.3605e-07 -1.09279e-05 )  
( -1.61976e-06 2.81725e-07 -1.3687e-05 )  
( 1.49731e-06 -1.81175e-06 -1.16557e-05 )  
( 9.54e-08 -1.48857e-06 -6.27084e-06 )  
( -3.95722e-06 3.49579e-06 -2.89808e-05 )  
( -4.03077e-06 7.81833e-06 -2.40356e-05 )  
( -1.28747e-06 1.32263e-07 -1.27055e-05 )  
( -1.94845e-06 2.54135e-06 -2.77551e-05 )  
( 1.63465e-06 1.03818e-06 -1.24505e-05 )  
( -2.00479e-06 2.08654e-06 -9.35768e-06 )  
( 8.80178e-07 1.97969e-07 -9.75481e-06 )  
( 1.39555e-07 1.52193e-06 -2.30924e-05 )  
( 4.22431e-07 7.11315e-07 -1.25495e-05 )  
( 2.71442e-07 5.47603e-07 -1.4911e-05 )  
( 6.72438e-07 -4.87656e-10 -1.23564e-05 )  
( 1.52985e-06 8.21263e-06 -1.09986e-05 )  
( 2.72863e-06 -3.90582e-06 -1.13835e-05 )  
( 7.26654e-07 2.4818e-06 -2.90637e-05 )  
( 6.0844e-06 2.76435e-06 -2.53735e-05 )  
( -1.24182e-07 3.61072e-06 -2.36398e-05 )  
( 2.62113e-06 5.19365e-06 -2.22305e-05 )  
( 1.66921e-06 -2.53695e-08 -2.73197e-05 )  
( -1.95975e-06 3.68114e-06 -9.71855e-06 )  
( -2.00907e-06 -9.11986e-08 -2.45414e-05 )  
( 2.07566e-06 3.29711e-06 -2.46514e-05 )  
( 3.16059e-06 1.59724e-06 -2.82546e-05 )  
( -2.34338e-06 1.13583e-06 -2.63255e-05 )  
( -4.06099e-06 -2.2215e-06 -2.62211e-05 )  
( 2.38939e-06 -1.88829e-07 -2.47839e-05 )  
( 6.7612e-06 5.11359e-06 -2.5362e-05 )  
( -5.73591e-08 2.5762e-06 -3.0256e-05 )  
( -5.29979e-06 4.75474e-06 -2.1769e-05 )  
( 1.90234e-06 2.18625e-06 -2.83509e-05 )  
( 2.06789e-06 1.36482e-06 -3.68508e-05 )  
( -2.55523e-06 5.5952e-06 -2.55312e-05 )  
( 1.15445e-06 1.15882e-06 -2.14949e-05 )  
( -5.54282e-06 5.07265e-06 -4.02387e-05 )  
( -2.14827e-06 -2.06058e-06 -2.2158e-05 )  
( 3.90905e-06 -3.07888e-06 -2.32201e-05 )  
( 7.40235e-06 -7.16692e-08 -3.27966e-05 )  
( 1.40287e-06 3.13513e-06 -2.46152e-05 )  
( 3.65722e-06 5.39779e-06 -5.34093e-05 )  
( -5.28287e-06 2.19852e-06 -3.51659e-05 )  
( -2.15081e-06 2.33844e-06 -4.30089e-05 )  
( -3.09293e-06 3.79454e-06 -3.42521e-05 )  
( -1.15966e-06 -1.2037e-06 -3.71955e-05 )  
( -2.15e-06 1.95379e-06 -4.19673e-05 )  
( 1.08961e-07 1.04926e-05 -3.92258e-05 )  
( -4.10462e-06 -2.68206e-07 -3.27756e-05 )  
( -3.60862e-06 1.73944e-06 -3.65441e-05 )  
( -2.64161e-06 3.27689e-06 -3.81729e-05 )  
( 8.21926e-07 4.77599e-06 -3.62492e-05 )  
( -1.87437e-06 9.94407e-06 -4.4871e-05 )  
( 6.75742e-07 6.96477e-06 -3.77801e-05 )  
( 2.10502e-06 4.41083e-06 -2.89692e-05 )  
( 3.43044e-06 7.63933e-07 -3.03395e-05 )  
( -3.38958e-06 5.10076e-06 -5.14775e-05 )  
( -1.91165e-06 1.22631e-05 -4.08119e-05 )  
( 6.89486e-06 1.55351e-06 -4.08133e-05 )  
( 1.07536e-06 7.41977e-06 -3.37846e-05 )  
( 6.43147e-06 9.53798e-07 -4.83522e-05 )  
( -4.08368e-06 -5.09059e-07 -4.47379e-05 )  
( 5.48767e-06 7.5436e-06 -4.72097e-05 )  
( -5.86569e-06 5.96e-06 -4.9313e-05 )  
( -4.63594e-06 1.51586e-06 -3.7874e-05 )  
( -8.90273e-07 5.71222e-06 -4.58371e-05 )  
( -5.00184e-06 3.99162e-06 -5.17284e-05 )  
( -6.17451e-06 4.97451e-06 -5.30704e-05 )  
( -5.26651e-06 6.18788e-06 -4.68384e-05 )  
( 1.20917e-06 5.19488e-06 -4.21864e-05 )  
( -5.10103e-06 8.89066e-06 -5.60306e-05 )  
( -8.31452e-07 6.32476e-06 -4.39836e-05 )  
( 6.10393e-07 1.04444e-06 -3.28227e-05 )  
( 7.17715e-06 5.64755e-06 -3.59938e-05 )  
( -4.83778e-06 3.55808e-06 -5.59716e-05 )  
( 1.52129e-06 1.10117e-05 -5.06701e-05 )  
( -6.22421e-06 2.87748e-06 -4.86855e-05 )  
( -6.45847e-06 6.69246e-06 -5.57777e-05 )  
( -6.8196e-06 2.61091e-06 -5.22398e-05 )  
( 3.79283e-06 2.39106e-06 -4.5954e-05 )  
( -7.64741e-06 3.89448e-06 -4.91458e-05 )  
( -7.6158e-06 2.93932e-06 -5.95345e-05 )  
( 4.44541e-06 -1.24081e-06 -4.0581e-05 )  
( -5.8982e-06 4.4994e-06 -5.69455e-05 )  
( 1.05231e-05 4.71168e-06 -4.66604e-05 )  
( -7.04065e-06 3.88701e-06 -6.06593e-05 )  
( 1.16381e-06 5.81838e-06 -5.59996e-05 )  
( -5.91569e-06 2.24086e-06 -5.858e-05 )  
( -8.00245e-06 3.42384e-06 -5.99041e-05 )  
( -6.26256e-06 -4.48891e-07 -6.19292e-05 )  
( -6.60844e-06 4.71519e-06 -5.72625e-05 )  
( 1.0625e-05 -1.6406e-06 -5.89188e-05 )  
( -4.74334e-06 5.53444e-06 -6.25744e-05 )  
( 4.74822e-06 3.98482e-06 -5.5541e-05 )  
( -5.87819e-06 3.76361e-06 -5.49136e-05 )  
( -5.69712e-06 3.25114e-06 -6.78062e-05 )  
( -3.84538e-06 4.04973e-06 -4.71715e-05 )  
( 5.32144e-06 3.18847e-06 -5.44702e-05 )  
( 8.43581e-06 3.35455e-07 -6.26841e-05 )  
( 9.74655e-06 1.33216e-06 -6.15428e-05 )  
( 2.10219e-06 7.25822e-06 -5.39003e-05 )  
( -6.13903e-06 3.89674e-06 -6.32267e-05 )  
( -1.55388e-06 -1.91617e-06 -7.15445e-05 )  
( -4.38239e-06 7.20577e-06 -6.21576e-05 )  
( -4.54933e-06 5.35891e-06 -6.86734e-05 )  
( -6.05763e-06 2.09582e-06 -6.23974e-05 )  
( -7.39105e-06 8.56583e-07 -6.71833e-05 )  
( -5.87708e-06 5.95459e-06 -6.2358e-05 )  
( 2.50893e-06 1.82812e-06 -5.86985e-05 )  
( 9.75136e-06 -1.88464e-06 -5.74467e-05 )  
( -5.88523e-06 3.19944e-06 -6.47636e-05 )  
( 1.17222e-06 -2.11486e-08 -6.35496e-05 )  
( -8.60165e-06 9.93213e-07 -6.5028e-05 )  
( -3.01626e-06 7.94998e-06 -5.62901e-05 )  
( -5.39626e-06 4.82828e-06 -7.00937e-05 )  
( -5.13851e-06 2.23564e-06 -6.41328e-05 )  
( 2.64605e-06 2.62945e-06 -6.65793e-05 )  
( -5.51007e-06 5.22673e-06 -6.86929e-05 )  
( 5.85039e-08 -2.23475e-07 -7.06756e-05 )  
( 7.12068e-06 1.17972e-06 -6.80344e-05 )  
( -5.7543e-06 2.04489e-06 -6.93034e-05 )  
( 8.77561e-06 -5.63339e-07 -6.72865e-05 )  
( 9.60911e-06 1.0668e-06 -6.58176e-05 )  
( -1.34519e-06 -7.26162e-07 -6.78464e-05 )  
( -7.04812e-06 1.76228e-06 -6.39538e-05 )  
( -1.04705e-05 1.15372e-05 -6.44074e-05 )  
( -2.23718e-06 -4.80741e-06 -7.46304e-05 )  
( -5.41474e-06 3.20209e-06 -6.17477e-05 )  
( -8.34477e-07 -4.7337e-06 -7.31708e-05 )  
( -3.54925e-06 2.93461e-06 -7.20427e-05 )  
( -4.20239e-06 1.06331e-06 -6.67278e-05 )  
( -6.88615e-06 1.19841e-06 -7.14099e-05 )  
( -3.50172e-06 1.98145e-07 -7.16694e-05 )  
( -8.99626e-06 -1.85095e-06 -7.66521e-05 )  
( 8.73639e-06 9.60173e-07 -6.88159e-05 )  
( -1.61791e-06 4.13555e-06 -7.33828e-05 )  
( 3.80647e-06 -5.20659e-06 -7.45344e-05 )  
( -4.7694e-06 6.14582e-06 -6.8336e-05 )  
( -5.2232e-06 1.91319e-06 -7.03075e-05 )  
( 2.16159e-06 -4.07315e-07 -7.01051e-05 )  
( -4.04722e-06 -9.66523e-07 -7.26883e-05 )  
( 1.13164e-06 -8.33647e-06 -7.34696e-05 )  
( -7.41775e-06 1.08791e-06 -7.20131e-05 )  
( -5.62973e-06 1.38397e-06 -7.2623e-05 )  
( -5.58228e-06 -8.44542e-07 -7.82017e-05 )  
( 9.39523e-06 -1.20028e-06 -7.05036e-05 )  
( -7.66017e-06 1.86464e-07 -6.8177e-05 )  
( -3.12483e-06 4.2416e-07 -7.0229e-05 )  
( 4.72276e-06 -9.46321e-08 -7.2572e-05 )  
( 8.89759e-06 -5.13713e-07 -7.03068e-05 )  
( -7.49497e-06 -3.32683e-06 -7.08249e-05 )  
( 7.59033e-06 -1.78537e-06 -7.17406e-05 )  
( -2.41496e-06 -1.69419e-06 -7.36239e-05 )  
( -3.81786e-07 -6.98842e-06 -7.3104e-05 )  
( -7.10613e-06 -6.48671e-06 -7.81261e-05 )  
( 2.09904e-07 -1.55626e-06 -7.13765e-05 )  
( -1.02662e-05 -3.57045e-07 -7.12508e-05 )  
( -1.15943e-05 -4.82992e-06 -7.52156e-05 )  
( -5.3135e-06 -6.48875e-07 -7.56463e-05 )  
( -5.22901e-06 -6.04133e-07 -7.52103e-05 )  
( -1.76845e-06 -3.40731e-06 -7.05792e-05 )  
( -1.46167e-06 -4.34957e-06 -7.35073e-05 )  
( 6.33513e-06 -4.51342e-06 -7.57395e-05 )  
( 2.888e-06 -3.58686e-06 -7.32871e-05 )  
( -2.57864e-06 -2.90092e-06 -7.00276e-05 )  
( 8.05717e-07 -6.03979e-06 -7.55697e-05 )  
( -8.43187e-06 -2.34727e-06 -7.49058e-05 )  
( 5.03158e-06 -7.80079e-06 -7.43517e-05 )  
( -8.65223e-07 -2.76384e-06 -7.36182e-05 )  
( -9.05965e-06 -3.99155e-07 -7.30816e-05 )  
( -2.58858e-07 -3.78104e-06 -7.62751e-05 )  
( 4.69029e-06 -4.65867e-06 -7.28999e-05 )  
( 1.3092e-06 -5.24082e-06 -7.54843e-05 )  
( 2.99085e-06 -2.68064e-06 -7.32667e-05 )  
( 8.07882e-06 -5.08891e-06 -7.39545e-05 )  
( 6.74947e-06 -6.11365e-06 -7.35535e-05 )  
( -3.86284e-06 -1.84588e-06 -7.34737e-05 )  
( -4.25554e-06 -6.23668e-06 -7.66747e-05 )  
( -1.34859e-06 -2.06362e-06 -7.38755e-05 )  
( 4.30469e-06 -5.73477e-06 -7.54453e-05 )  
( 9.92751e-06 -2.31256e-06 -7.19603e-05 )  
( 4.46525e-06 -3.68886e-06 -7.25948e-05 )  
( 3.1779e-06 -9.58469e-06 -7.82453e-05 )  
( -3.83193e-06 -1.81625e-06 -6.9618e-05 )  
( 8.20305e-06 -1.81522e-05 -7.4637e-05 )  
( -4.94265e-07 1.08967e-06 -7.54047e-05 )  
( 4.83235e-06 -1.95907e-05 -7.67162e-05 )  
( -2.17229e-06 -1.20332e-05 -7.65533e-05 )  
( 8.99456e-06 1.336e-06 -6.92158e-05 )  
( -3.78735e-06 5.21589e-06 -7.37309e-05 )  
( 7.28088e-06 -4.43938e-06 -6.96156e-05 )  
( -4.09869e-06 -1.54893e-05 -7.42852e-05 )  
( -3.79597e-06 -1.07513e-05 -7.82787e-05 )  
( 5.40284e-06 -6.22705e-06 -7.22544e-05 )  
( -6.27243e-06 -2.20452e-06 -7.5907e-05 )  
( 7.17162e-06 -5.66247e-06 -7.00577e-05 )  
( 2.94491e-06 -5.64358e-06 -7.04726e-05 )  
( -1.84916e-06 2.42952e-06 -7.47025e-05 )  
( 8.11926e-06 -1.52204e-05 -7.26936e-05 )  
( -1.20348e-06 -6.84913e-06 -7.73162e-05 )  
( 1.90698e-06 -4.78005e-06 -7.2138e-05 )  
( -1.81146e-07 6.89392e-07 -6.8238e-05 )  
( 1.07238e-05 -2.15953e-06 -6.88567e-05 )  
( 3.05743e-07 2.22705e-06 -7.10569e-05 )  
( -2.72861e-05 1.30225e-05 -5.27689e-05 )  
( -9.66492e-06 -7.03735e-06 -7.51365e-05 )  
( 1.38121e-05 -1.11504e-06 -6.58358e-05 )  
( 1.5082e-05 -5.15351e-06 -6.58448e-05 )  
( 1.56627e-05 -1.73565e-06 -5.97776e-05 )  
( -2.00273e-06 -8.68491e-08 -7.05657e-05 )  
( 1.23706e-05 -4.09456e-06 -6.61633e-05 )  
( 5.70912e-06 -1.07293e-05 -7.20558e-05 )  
( 1.68407e-06 8.0614e-06 -7.02926e-05 )  
( 1.22846e-05 -1.13646e-05 -6.52009e-05 )  
( -7.69935e-06 6.26591e-06 -5.45426e-05 )  
( -3.18923e-06 -1.75637e-06 -7.23592e-05 )  
( 9.54952e-06 -7.49259e-06 -6.41375e-05 )  
( -7.22399e-06 -1.69774e-05 -7.4126e-05 )  
( -6.86035e-06 -1.17337e-05 -8.46843e-05 )  
( 5.90503e-06 -3.30755e-06 -6.70914e-05 )  
( -2.21322e-06 -1.68146e-05 -7.45498e-05 )  
( -3.40952e-06 4.95641e-06 -6.98912e-05 )  
( 8.18834e-08 2.918e-06 -7.16267e-05 )  
( 8.15184e-06 1.04994e-05 -6.50225e-05 )  
( 1.68992e-05 -4.62707e-06 -5.86268e-05 )  
( -5.73843e-06 -1.25435e-05 -5.69731e-05 )  
( 3.27911e-05 1.92529e-06 -7.58106e-05 )  
( 8.91783e-06 4.93383e-06 -6.73786e-05 )  
( 1.28665e-06 -8.59344e-06 -6.66339e-05 )  
( 6.61569e-06 -7.0834e-06 -6.99499e-05 )  
( 8.10897e-06 3.82635e-06 -6.26117e-05 )  
( 7.97864e-06 5.68739e-06 -5.71386e-05 )  
( 1.64807e-06 -3.95173e-06 -7.1791e-05 )  
( -6.92265e-06 4.73084e-06 -5.90055e-05 )  
( 5.65087e-07 -8.28757e-06 -7.17927e-05 )  
( -2.17199e-05 1.09848e-05 -4.91796e-05 )  
( 1.40128e-05 1.17518e-06 -6.46076e-05 )  
( 2.00691e-06 8.96073e-06 -3.75478e-05 )  
( 6.34318e-06 5.8319e-07 -6.18357e-05 )  
( 2.25251e-06 5.20589e-06 -6.31297e-05 )  
( 6.10668e-06 4.62942e-06 -6.91373e-05 )  
( 2.11235e-05 3.64025e-06 -6.52269e-05 )  
( -7.55066e-08 1.43208e-05 -5.72564e-05 )  
( 5.84895e-06 -2.9778e-05 -5.92087e-05 )  
( 2.97468e-06 5.92856e-06 -5.93501e-05 )  
( 2.19078e-05 1.52268e-05 -5.34352e-05 )  
( 1.12479e-05 6.01331e-06 -6.29269e-05 )  
( -3.68425e-05 -5.27024e-05 -5.3546e-05 )  
( -1.21713e-05 1.54885e-05 -6.25329e-05 )  
( 9.36484e-06 1.3946e-05 -5.90216e-05 )  
( 9.78674e-06 1.06955e-05 -6.07424e-05 )  
( -1.83095e-06 -7.09658e-06 -5.95366e-05 )  
( 2.18144e-05 2.36169e-05 -6.0623e-05 )  
( 2.50529e-05 1.28214e-05 -4.42199e-05 )  
( 3.56829e-06 3.4558e-05 -6.2349e-05 )  
( 1.2405e-05 1.37329e-05 -5.94511e-05 )  
( 1.46376e-05 1.51597e-05 -4.22107e-05 )  
( 1.82198e-05 1.93458e-05 -6.06821e-05 )  
( 1.29006e-05 1.93692e-05 -6.0789e-05 )  
( 1.51988e-05 -2.2304e-05 -6.24036e-05 )  
( -6.23558e-06 7.91885e-06 -1.95009e-05 )  
( 1.44965e-05 1.71684e-05 -3.63219e-05 )  
( 7.77496e-06 4.76428e-08 -5.86401e-05 )  
( 4.99956e-06 6.17147e-06 -3.09445e-05 )  
( -9.04938e-06 5.5485e-06 -5.91804e-05 )  
( -1.05557e-06 -1.34851e-05 -7.01596e-05 )  
( -1.51445e-06 1.11667e-05 -5.52845e-05 )  
( -3.72694e-06 1.88762e-05 -4.70992e-05 )  
( -1.32844e-06 2.19562e-05 -4.22006e-05 )  
( 3.7257e-05 4.23103e-05 -7.25715e-05 )  
( 1.78727e-05 7.21188e-06 -6.53432e-05 )  
( 1.5802e-05 1.44858e-05 -5.60653e-05 )  
( 2.39226e-05 1.60915e-05 -4.52673e-05 )  
( 1.53516e-05 1.14223e-05 -4.7913e-05 )  
( -1.40411e-06 2.8856e-05 -4.79529e-05 )  
( 1.09533e-05 4.33993e-06 -2.21123e-05 )  
( -5.63499e-07 -8.50461e-06 -4.35623e-05 )  
( 1.3684e-05 1.7373e-05 -6.22101e-05 )  
( -3.596e-06 8.97852e-06 -2.14909e-05 )  
( -1.28613e-05 -2.79908e-05 -5.14877e-05 )  
( -1.43803e-05 2.74702e-05 -3.8856e-05 )  
( -1.3255e-05 8.9851e-07 -2.35352e-05 )  
( 1.32196e-05 -2.49249e-06 -8.05865e-05 )  
( 3.16699e-05 1.67702e-05 -4.51352e-05 )  
( 3.17804e-06 1.57074e-05 -4.83703e-05 )  
( 2.74846e-05 4.07475e-05 -6.12513e-05 )  
( -8.3447e-07 2.39102e-05 -4.63746e-05 )  
( -2.85293e-07 -9.79724e-06 -5.12709e-05 )  
( 1.96284e-05 2.31444e-05 -4.90408e-05 )  
( 2.11435e-05 6.15309e-05 -3.1216e-05 )  
( 3.58433e-05 2.73202e-05 -4.9415e-05 )  
( -7.88585e-06 2.46331e-05 -3.26626e-05 )  
( 2.13935e-05 4.21132e-05 -5.54124e-05 )  
( 2.64558e-06 2.60537e-05 -4.27378e-05 )  
( 3.09293e-05 2.23719e-05 -5.05525e-05 )  
( -1.59639e-05 -1.16907e-05 1.37698e-05 )  
( -1.89395e-05 -1.62514e-05 -1.5099e-05 )  
( 4.46586e-06 8.75123e-06 -4.00234e-05 )  
( 3.01438e-05 1.32386e-05 -4.56951e-05 )  
( 2.07742e-05 3.47243e-05 -5.03433e-05 )  
( -6.8625e-07 4.44094e-05 -8.76139e-05 )  
( -3.30203e-06 3.49949e-05 -4.51682e-05 )  
( 6.82934e-06 2.78008e-05 -3.554e-05 )  
( -2.26679e-06 1.84796e-05 -5.23264e-05 )  
( 6.09132e-05 3.42938e-05 -6.78507e-05 )  
( 4.24909e-06 1.42107e-05 -2.00299e-05 )  
( -3.11836e-07 -1.16312e-05 -1.61508e-05 )  
( 1.38564e-05 5.48805e-06 -2.42872e-05 )  
( -1.41532e-05 3.10749e-05 -6.1395e-05 )  
( 1.92276e-05 3.16338e-05 -3.00815e-05 )  
( 3.89134e-05 -4.96424e-05 -2.64671e-05 )  
( -0.000159465 6.48304e-05 -4.95247e-05 )  
( 7.80899e-05 6.9536e-05 -7.10965e-05 )  
( 1.46805e-05 5.18966e-05 -1.83025e-05 )  
( 1.41799e-05 1.41027e-05 -2.62358e-05 )  
( 3.3918e-05 1.80131e-05 -3.9896e-05 )  
( -5.0455e-06 3.13944e-05 -7.74677e-06 )  
( 1.8092e-05 4.46294e-05 -6.42601e-05 )  
( 8.28367e-06 2.2931e-05 -4.60092e-05 )  
( -1.20607e-05 -4.92146e-05 -3.62965e-06 )  
( 8.45873e-06 -2.42974e-05 -6.31447e-05 )  
( 9.8259e-06 3.47208e-05 -2.66611e-05 )  
( -4.34012e-05 -5.32742e-05 -8.99819e-05 )  
( 1.81919e-05 2.50882e-05 -4.01867e-05 )  
( 4.56104e-06 7.76024e-05 3.16734e-05 )  
( 3.38829e-06 -1.17434e-05 -3.51567e-07 )  
( 1.88933e-05 6.0649e-05 -3.89824e-05 )  
( -1.431e-05 4.69409e-05 -1.46988e-05 )  
( 7.3437e-05 6.94603e-05 -3.69362e-05 )  
( 6.22983e-05 -9.24275e-06 -3.87953e-05 )  
( -4.81724e-05 6.56761e-05 -4.94635e-05 )  
( 1.39692e-05 2.71519e-05 -5.61043e-05 )  
)
