/*--------------------------------*- C++ -*----------------------------------*\
| =========                 |                                                 |
| \\      /  F ield         | OpenFOAM: The Open Source CFD Toolbox           |
|  \\    /   O peration     | Version:  5.x                                   |
|   \\  /    A nd           | Web:      www.OpenFOAM.org                      |
|    \\/     M anipulation  |                                                 |
\*---------------------------------------------------------------------------*/
FoamFile
{
    version     2.0;
    format      ascii;
    class       surfaceScalarField;
    location    "2000";
    object      phi;
}
// * * * * * * * * * * * * * * * * * * * * * * * * * * * * * * * * * * * * * //

dimensions      [0 3 -1 0 0 0 0];

internalField   nonuniform List<scalar> 
179
(
-250.026
-250.026
-250.026
-250.027
-250.028
-250.029
-250.03
-250.032
-250.033
-250.035
-250.037
-250.04
-250.043
-250.046
-250.05
-250.054
-250.058
-250.063
-250.069
-250.075
-250.082
-250.089
-250.097
-250.107
-250.117
-250.128
-250.14
-250.154
-250.169
-250.186
-250.204
-250.224
-250.246
-250.271
-250.297
-250.327
-250.359
-250.394
-250.433
-250.476
-250.522
-250.573
-250.628
-250.689
-250.754
-250.826
-250.904
-250.989
-251.081
-251.18
-251.288
-251.404
-251.529
-251.664
-251.808
-251.962
-252.126
-252.3
-252.484
-252.679
-252.882
-253.094
-253.313
-253.537
-253.764
-253.991
-254.213
-254.426
-254.623
-254.795
-254.933
-255.023
-255.05
-254.994
-254.832
-254.533
-254.063
-253.386
-252.497
-251.618
-251.457
-251.379
-267.167
-269.385
-272.902
-275.131
-280.424
-282.943
-281.488
-264.376
-255.507
-237.319
-234.099
-220.718
-211.79
-208.399
-187.02
-185.346
-182.056
-185.434
-193.477
-197.427
-199.79
-199.762
-202.415
-207.63
-213.087
-217.963
-222.207
-225.89
-229.084
-231.854
-234.256
-236.34
-238.146
-239.713
-241.072
-242.25
-243.272
-244.158
-244.927
-245.594
-246.173
-246.675
-247.111
-247.489
-247.817
-248.102
-248.349
-248.564
-248.75
-248.912
-249.053
-249.175
-249.282
-249.374
-249.455
-249.525
-249.586
-249.639
-249.685
-249.726
-249.761
-249.792
-249.819
-249.842
-249.862
-249.88
-249.895
-249.908
-249.92
-249.93
-249.939
-249.947
-249.953
-249.959
-249.964
-249.969
-249.972
-249.976
-249.979
-249.981
-249.984
-249.986
-249.987
-249.989
-249.99
-249.992
-249.993
-249.994
-249.995
-249.995
-249.996
-249.997
-249.997
-249.998
-249.998
-249.999
-249.999
)
;

boundaryField
{
    inlet
    {
        type            calculated;
        value           uniform -250;
    }
    outlet
    {
        type            calculated;
        value           uniform 250.025;
    }
    repeat_boundary
    {
        type            calculated;
        value           uniform 0;
    }
    procBoundary1to0
    {
        type            processor;
        value           nonuniform List<scalar> 
180
(
8.31779e-06
8.62435e-07
-2.87841e-06
-5.72085e-06
-8.97316e-06
-1.3084e-05
-1.8343e-05
-2.49827e-05
-3.32374e-05
-4.33486e-05
-5.55679e-05
-7.01611e-05
-8.74131e-05
-0.00010763
-0.00013739
-0.00017425
-0.000217381
-0.000267538
-0.00032559
-0.000392541
-0.000469565
-0.000558027
-0.000659521
-0.000775898
-0.000909308
-0.00106323
-0.0012538
-0.00147262
-0.00172416
-0.00201344
-0.00234619
-0.00272895
-0.00316925
-0.00367573
-0.0042583
-0.00492834
-0.00570269
-0.00660382
-0.00763743
-0.00882451
-0.0101949
-0.0117711
-0.0135836
-0.0156712
-0.0180716
-0.020834
-0.0240123
-0.0276679
-0.0318723
-0.0367076
-0.0422711
-0.0486692
-0.0560272
-0.0644909
-0.0742247
-0.0854198
-0.0982971
-0.113109
-0.130148
-0.149751
-0.172304
-0.198258
-0.228127
-0.262512
-0.302103
-0.347704
-0.400247
-0.460811
-0.530654
-0.611239
-0.704271
-0.811739
-0.935972
-1.07969
-1.24607
-1.43854
-1.65962
-1.90221
-2.10795
-1.9792
-0.268805
-0.0409328
6.167
1.31881
4.53951
1.86013
5.49349
9.0628
0.0791164
-9.11526
-1.79992
-11.9181
-1.08503
-5.51543
-1.00746
-1.17236
-6.21754
-1.53074
-0.039387
2.36475
2.50083
2.16666
3.18867
0.785283
1.42235
2.24431
2.23383
1.93078
1.64808
1.4095
1.20603
1.03137
0.881362
0.75262
0.642191
0.547523
0.466416
0.39698
0.33759
0.286852
0.243549
0.206604
0.175097
0.148239
0.125353
0.105862
0.0892721
0.0751629
0.0631809
0.0530368
0.0444614
0.0372223
0.0311211
0.0259888
0.0216814
0.0180741
0.0150554
0.0125332
0.0104305
0.0086831
0.00723669
0.00604551
0.00507327
0.00429168
0.00345957
0.00275807
0.0021812
0.00170839
0.00132229
0.00100831
0.000754159
0.000549558
0.000385862
0.000255857
0.000153517
7.38291e-05
1.26162e-05
-3.35907e-05
-6.76667e-05
-9.19899e-05
-0.000108523
-0.000118883
-0.000124396
-0.000126153
-0.000125041
-0.000121791
-0.000117002
-0.000113226
-0.000112802
-0.00011014
-0.000106155
-0.000101502
-9.66576e-05
-9.19661e-05
-8.76711e-05
-8.3922e-05
-8.07211e-05
-7.82072e-05
-7.57145e-05
-7.24249e-05
)
;
    }
    procBoundary1to3
    {
        type            processor;
        value           nonuniform List<scalar> 
180
(
0.000154551
0.000291921
0.000469495
0.000660138
0.000859442
0.00106841
0.00128908
0.00152383
0.00177516
0.00204577
0.00233851
0.00265642
0.00300292
0.0033817
0.00379679
0.00425257
0.00475378
0.00530566
0.00591392
0.00658488
0.00732544
0.00814325
0.00904667
0.0100449
0.0111482
0.0123677
0.0137157
0.0152057
0.0168524
0.0186721
0.0206825
0.0229031
0.0253554
0.0280625
0.0310502
0.0343464
0.0379815
0.0419888
0.0464044
0.0512675
0.0566212
0.0625131
0.0689948
0.0761222
0.0839563
0.0925625
0.102012
0.112381
0.123751
0.13621
0.14985
0.16477
0.181075
0.198873
0.218278
0.239414
0.262418
0.287423
0.31456
0.343963
0.375762
0.41008
0.44703
0.486707
0.529189
0.57452
0.622708
0.673704
0.727389
0.783554
0.841871
0.901861
0.962855
1.02393
1.08375
1.14011
1.1895
1.22524
1.21878
1.10054
0.107881
-0.0370913
9.62137
0.898682
-1.02195
0.36832
-0.200066
-6.54398
-1.53379
-7.99748
-7.06886
-6.26962
-2.13462
-7.86583
-7.92109
-2.21858
-15.1607
-0.143147
-3.25114
1.01344
5.54251
1.7831
-0.825707
-0.81285
1.23035
2.97117
3.22311
2.9452
2.59645
2.27325
1.98822
1.73891
1.52111
1.33085
1.16463
1.01938
0.892452
0.781505
0.684512
0.599701
0.525526
0.460641
0.403871
0.354189
0.310702
0.272627
0.239283
0.210074
0.18448
0.162046
0.142376
0.125124
0.109987
0.0967025
0.0850396
0.0747977
0.0658012
0.0578968
0.0509504
0.0448448
0.0394775
0.0347587
0.03061
0.0269628
0.0237574
0.0209395
0.0184614
0.0162816
0.0143636
0.0126755
0.0111893
0.0098807
0.00872812
0.00771275
0.00681809
0.00602967
0.00533477
0.00472225
0.00418233
0.00370641
0.00328695
0.00291731
0.0025917
0.00230502
0.0020528
0.00183112
0.00163657
0.00146613
0.00131716
0.00118734
0.00107468
0.000977453
0.000894194
0.000823652
0.000764781
0.000716735
0.00067891
0.000650653
0.000631697
0.000633625
)
;
    }
}


// ************************************************************************* //
