/*--------------------------------*- C++ -*----------------------------------*\
| =========                 |                                                 |
| \\      /  F ield         | OpenFOAM: The Open Source CFD Toolbox           |
|  \\    /   O peration     | Version:  5.x                                   |
|   \\  /    A nd           | Web:      www.OpenFOAM.org                      |
|    \\/     M anipulation  |                                                 |
\*---------------------------------------------------------------------------*/
FoamFile
{
    version     2.0;
    format      ascii;
    class       volVectorField;
    location    "2000";
    object      stored_U;
}
// * * * * * * * * * * * * * * * * * * * * * * * * * * * * * * * * * * * * * //

dimensions      [0 1 -1 0 0 0 0];

internalField   nonuniform List<vector> 
180
(
(-4.25908e-10 5.14249e-09 -0.00100006)
(-2.61252e-10 9.50155e-09 -0.00100007)
(-2.74262e-10 1.52485e-08 -0.00100007)
(-3.39383e-10 2.14499e-08 -0.00100007)
(-4.11103e-10 2.79503e-08 -0.00100007)
(-4.79491e-10 3.47856e-08 -0.00100008)
(-5.3844e-10 4.20263e-08 -0.00100008)
(-5.83193e-10 4.97539e-08 -0.00100009)
(-6.07451e-10 5.80545e-08 -0.00100009)
(-6.03173e-10 6.70196e-08 -0.0010001)
(-5.60304e-10 7.67471e-08 -0.00100011)
(-4.66539e-10 8.7342e-08 -0.00100012)
(-3.07075e-10 9.89176e-08 -0.00100013)
(-6.43608e-11 1.11597e-07 -0.00100014)
(2.82176e-10 1.25513e-07 -0.00100016)
(7.56432e-10 1.40814e-07 -0.00100017)
(1.38597e-09 1.57657e-07 -0.00100019)
(2.20239e-09 1.7622e-07 -0.0010002)
(3.24181e-09 1.96696e-07 -0.00100022)
(4.54537e-09 2.19298e-07 -0.00100025)
(6.15986e-09 2.44261e-07 -0.00100027)
(8.13843e-09 2.71844e-07 -0.0010003)
(1.05415e-08 3.02333e-07 -0.00100033)
(1.34376e-08 3.36045e-07 -0.00100036)
(1.6905e-08 3.73328e-07 -0.0010004)
(2.10324e-08 4.14569e-07 -0.00100044)
(2.5923e-08 4.6019e-07 -0.00100048)
(3.17155e-08 5.1065e-07 -0.00100053)
(3.85669e-08 5.66454e-07 -0.00100059)
(4.66562e-08 6.28155e-07 -0.00100065)
(5.61885e-08 6.96364e-07 -0.00100071)
(6.73995e-08 7.7175e-07 -0.00100078)
(8.05606e-08 8.55047e-07 -0.00100086)
(9.59853e-08 9.47055e-07 -0.00100095)
(1.14035e-07 1.04865e-06 -0.00100104)
(1.35129e-07 1.16078e-06 -0.00100115)
(1.5975e-07 1.2845e-06 -0.00100126)
(1.88461e-07 1.42095e-06 -0.00100138)
(2.21924e-07 1.57137e-06 -0.00100152)
(2.60902e-07 1.73712e-06 -0.00100167)
(3.06273e-07 1.91967e-06 -0.00100183)
(3.59053e-07 2.12062e-06 -0.001002)
(4.20417e-07 2.34171e-06 -0.00100219)
(4.91719e-07 2.5848e-06 -0.0010024)
(5.74518e-07 2.85191e-06 -0.00100262)
(6.70619e-07 3.14522e-06 -0.00100286)
(7.82095e-07 3.46707e-06 -0.00100312)
(9.11337e-07 3.81998e-06 -0.00100341)
(1.0611e-06 4.20661e-06 -0.00100371)
(1.23455e-06 4.62984e-06 -0.00100403)
(1.43533e-06 5.0927e-06 -0.00100438)
(1.66764e-06 5.59841e-06 -0.00100476)
(1.93631e-06 6.15034e-06 -0.00100515)
(2.2469e-06 6.75202e-06 -0.00100558)
(2.60579e-06 7.40715e-06 -0.00100603)
(3.02032e-06 8.1195e-06 -0.0010065)
(3.49892e-06 8.89295e-06 -0.001007)
(4.05131e-06 9.73141e-06 -0.00100751)
(4.68862e-06 1.06388e-05 -0.00100805)
(5.42362e-06 1.16189e-05 -0.00100861)
(6.27101e-06 1.26755e-05 -0.00100918)
(7.24761e-06 1.38119e-05 -0.00100976)
(8.37276e-06 1.5031e-05 -0.00101034)
(9.66866e-06 1.63354e-05 -0.00101091)
(1.11608e-05 1.77265e-05 -0.00101146)
(1.28784e-05 1.92049e-05 -0.00101197)
(1.48551e-05 2.077e-05 -0.00101244)
(1.71295e-05 2.2419e-05 -0.00101283)
(1.9746e-05 2.41474e-05 -0.00101313)
(2.27553e-05 2.59478e-05 -0.0010133)
(2.62162e-05 2.78092e-05 -0.0010133)
(3.01959e-05 2.97166e-05 -0.0010131)
(3.47721e-05 3.16499e-05 -0.00101261)
(4.00341e-05 3.35822e-05 -0.00101174)
(4.60838e-05 3.54756e-05 -0.00101064)
(5.30251e-05 3.7269e-05 -0.00101035)
(6.09025e-05 3.88527e-05 -0.00101102)
(6.94065e-05 3.99565e-05 -0.000997963)
(7.5935e-05 3.92618e-05 -0.000937441)
(6.92563e-05 3.32647e-05 -0.000759563)
(1.33808e-05 3.23899e-06 -0.00303472)
(3.93338e-06 2.33219e-06 -1.92121e-06)
(-0.00018468 0.000298914 -0.00377246)
(-7.68821e-05 0.000100254 -0.00232538)
(-7.2961e-05 -1.97152e-05 -0.00152746)
(-0.000262254 4.6258e-05 -0.00464965)
(-7.86972e-05 -2.75202e-06 -0.000731642)
(-0.00083548 -0.000449121 -0.00486412)
(-1.3059e-06 2.172e-05 -3.61444e-05)
(0.000808045 -0.000940849 -0.00424248)
(2.64896e-07 1.75538e-05 -7.45455e-05)
(0.000511196 -0.000482291 -0.00381585)
(0.00012329 -0.000252939 -0.00159431)
(0.000165538 -0.000545964 -0.00420541)
(-2.32155e-05 -6.64242e-05 -0.00106865)
(-3.33882e-05 -0.000262467 -0.00263634)
(0.000219528 -0.000508769 -0.0017924)
(7.71837e-06 -1.09803e-05 -0.000171772)
(4.95465e-05 -0.000200683 -0.00323385)
(-8.26049e-06 -1.34872e-05 -0.000826532)
(-0.000163989 7.2759e-05 -0.00246712)
(-8.66636e-05 0.000102286 -0.00131834)
(-0.000148315 3.83496e-05 -0.00121163)
(-0.000101688 7.84598e-05 -0.00101925)
(-5.99849e-05 0.000117183 -0.000917704)
(-8.00004e-05 0.000143268 -0.000855414)
(-7.66801e-05 0.000137303 -0.000835222)
(-6.64023e-05 0.000121801 -0.000852757)
(-5.67471e-05 0.000106315 -0.000874611)
(-4.85284e-05 9.25292e-05 -0.000891967)
(-4.15169e-05 8.05002e-05 -0.000906265)
(-3.5507e-05 7.00385e-05 -0.000918639)
(-3.0352e-05 6.09443e-05 -0.000929411)
(-2.59319e-05 5.30386e-05 -0.00093876)
(-2.21435e-05 4.61656e-05 -0.000946866)
(-1.88977e-05 4.01897e-05 -0.000953895)
(-1.61181e-05 3.49931e-05 -0.000959989)
(-1.37391e-05 3.04736e-05 -0.000965274)
(-1.17044e-05 2.65424e-05 -0.000969857)
(-9.96587e-06 2.31224e-05 -0.000973831)
(-8.48163e-06 2.01466e-05 -0.000977278)
(-7.21492e-06 1.7557e-05 -0.000980268)
(-6.13425e-06 1.5303e-05 -0.000982861)
(-5.21264e-06 1.33408e-05 -0.000985112)
(-4.427e-06 1.16323e-05 -0.000987065)
(-3.75754e-06 1.01446e-05 -0.00098876)
(-3.18733e-06 8.84872e-06 -0.000990231)
(-2.70187e-06 7.71988e-06 -0.000991508)
(-2.28877e-06 6.73633e-06 -0.000992618)
(-1.93742e-06 5.87922e-06 -0.000993581)
(-1.63873e-06 5.13215e-06 -0.000994418)
(-1.38497e-06 4.48088e-06 -0.000995144)
(-1.1695e-06 3.91302e-06 -0.000995776)
(-9.86657e-07 3.4178e-06 -0.000996325)
(-8.31604e-07 2.98582e-06 -0.000996802)
(-7.00213e-07 2.60896e-06 -0.000997216)
(-5.8896e-07 2.2801e-06 -0.000997577)
(-4.9484e-07 1.99307e-06 -0.00099789)
(-4.15292e-07 1.74251e-06 -0.000998163)
(-3.48133e-07 1.52373e-06 -0.0009984)
(-2.91505e-07 1.33267e-06 -0.000998607)
(-2.43827e-07 1.16578e-06 -0.000998786)
(-2.03714e-07 1.01998e-06 -0.000998943)
(-1.69977e-07 8.92577e-07 -0.000999079)
(-1.41618e-07 7.81236e-07 -0.000999198)
(-1.17796e-07 6.83915e-07 -0.000999301)
(-9.78015e-08 5.98836e-07 -0.000999391)
(-8.10361e-08 5.24448e-07 -0.00099947)
(-6.69933e-08 4.59399e-07 -0.000999538)
(-5.52462e-08 4.02508e-07 -0.000999598)
(-4.54333e-08 3.52745e-07 -0.00099965)
(-3.72496e-08 3.09212e-07 -0.000999695)
(-3.04383e-08 2.71122e-07 -0.000999735)
(-2.47803e-08 2.37792e-07 -0.000999769)
(-2.00901e-08 2.08622e-07 -0.000999799)
(-1.62093e-08 1.8309e-07 -0.000999825)
(-1.30044e-08 1.60739e-07 -0.000999848)
(-1.03625e-08 1.41171e-07 -0.000999868)
(-8.18836e-09 1.24037e-07 -0.000999885)
(-6.40166e-09 1.09034e-07 -0.000999901)
(-4.93505e-09 9.58948e-08 -0.000999914)
(-3.73206e-09 8.43888e-08 -0.000999925)
(-2.74556e-09 7.43139e-08 -0.000999935)
(-1.93631e-09 6.54939e-08 -0.000999944)
(-1.27192e-09 5.77755e-08 -0.000999951)
(-7.25881e-10 5.10256e-08 -0.000999958)
(-2.76984e-10 4.51289e-08 -0.000999963)
(9.1052e-11 3.99857e-08 -0.000999968)
(3.91343e-10 3.551e-08 -0.000999973)
(6.3689e-10 3.16261e-08 -0.000999977)
(8.38229e-10 2.82692e-08 -0.00099998)
(1.00369e-09 2.53835e-08 -0.000999983)
(1.13989e-09 2.29216e-08 -0.000999986)
(1.25196e-09 2.08437e-08 -0.000999988)
(1.34375e-09 1.91164e-08 -0.00099999)
(1.4174e-09 1.7713e-08 -0.000999992)
(1.47156e-09 1.6615e-08 -0.000999994)
(1.50385e-09 1.58087e-08 -0.000999996)
(1.50502e-09 1.52853e-08 -0.000999997)
(1.44527e-09 1.50254e-08 -0.000999999)
)
;

boundaryField
{
    inlet
    {
        type            calculated;
        value           uniform (1.44527e-09 1.50254e-08 -0.000999999);
    }
    outlet
    {
        type            calculated;
        value           uniform (-4.25908e-10 5.14249e-09 -0.00100006);
    }
    repeat_boundary
    {
        type            calculated;
        value           nonuniform List<vector> 
360
(
(-4.25908e-10 0 -0.00100006)
(-2.61252e-10 0 -0.00100007)
(-2.74262e-10 0 -0.00100007)
(-3.39383e-10 0 -0.00100007)
(-4.11103e-10 0 -0.00100007)
(-4.79491e-10 0 -0.00100008)
(-5.3844e-10 0 -0.00100008)
(-5.83193e-10 0 -0.00100009)
(-6.07451e-10 0 -0.00100009)
(-6.03173e-10 0 -0.0010001)
(-5.60304e-10 0 -0.00100011)
(-4.66539e-10 0 -0.00100012)
(-3.07075e-10 0 -0.00100013)
(-6.43608e-11 0 -0.00100014)
(2.82176e-10 0 -0.00100016)
(7.56432e-10 0 -0.00100017)
(1.38597e-09 0 -0.00100019)
(2.20239e-09 0 -0.0010002)
(3.24181e-09 0 -0.00100022)
(4.54537e-09 0 -0.00100025)
(6.15986e-09 0 -0.00100027)
(8.13843e-09 0 -0.0010003)
(1.05415e-08 0 -0.00100033)
(1.34376e-08 0 -0.00100036)
(1.6905e-08 0 -0.0010004)
(2.10324e-08 0 -0.00100044)
(2.5923e-08 0 -0.00100048)
(3.17155e-08 0 -0.00100053)
(3.85669e-08 0 -0.00100059)
(4.66562e-08 0 -0.00100065)
(5.61885e-08 0 -0.00100071)
(6.73995e-08 0 -0.00100078)
(8.05606e-08 0 -0.00100086)
(9.59853e-08 0 -0.00100095)
(1.14035e-07 0 -0.00100104)
(1.35129e-07 0 -0.00100115)
(1.5975e-07 0 -0.00100126)
(1.88461e-07 0 -0.00100138)
(2.21924e-07 0 -0.00100152)
(2.60902e-07 0 -0.00100167)
(3.06273e-07 0 -0.00100183)
(3.59053e-07 0 -0.001002)
(4.20417e-07 0 -0.00100219)
(4.91719e-07 0 -0.0010024)
(5.74518e-07 0 -0.00100262)
(6.70619e-07 0 -0.00100286)
(7.82095e-07 0 -0.00100312)
(9.11337e-07 0 -0.00100341)
(1.0611e-06 0 -0.00100371)
(1.23455e-06 0 -0.00100403)
(1.43533e-06 0 -0.00100438)
(1.66764e-06 0 -0.00100476)
(1.93631e-06 0 -0.00100515)
(2.2469e-06 0 -0.00100558)
(2.60579e-06 0 -0.00100603)
(3.02032e-06 0 -0.0010065)
(3.49892e-06 0 -0.001007)
(4.05131e-06 0 -0.00100751)
(4.68862e-06 0 -0.00100805)
(5.42362e-06 0 -0.00100861)
(6.27101e-06 0 -0.00100918)
(7.24761e-06 0 -0.00100976)
(8.37276e-06 0 -0.00101034)
(9.66866e-06 0 -0.00101091)
(1.11608e-05 0 -0.00101146)
(1.28784e-05 0 -0.00101197)
(1.48551e-05 0 -0.00101244)
(1.71295e-05 0 -0.00101283)
(1.9746e-05 0 -0.00101313)
(2.27553e-05 0 -0.0010133)
(2.62162e-05 0 -0.0010133)
(3.01959e-05 0 -0.0010131)
(3.47721e-05 0 -0.00101261)
(4.00341e-05 0 -0.00101174)
(4.60838e-05 0 -0.00101064)
(5.30251e-05 0 -0.00101035)
(6.09025e-05 0 -0.00101102)
(6.94065e-05 0 -0.000997963)
(7.5935e-05 0 -0.000937441)
(6.92563e-05 0 -0.000759563)
(1.33808e-05 0 -0.00303472)
(3.93338e-06 0 -1.92121e-06)
(-0.00018468 0 -0.00377246)
(-7.68821e-05 0 -0.00232538)
(-7.2961e-05 0 -0.00152746)
(-0.000262254 0 -0.00464965)
(-7.86972e-05 0 -0.000731642)
(-0.00083548 0 -0.00486412)
(-1.3059e-06 0 -3.61444e-05)
(0.000808045 0 -0.00424248)
(2.64896e-07 0 -7.45455e-05)
(0.000511196 0 -0.00381585)
(0.00012329 0 -0.00159431)
(0.000165538 0 -0.00420541)
(-2.32155e-05 0 -0.00106865)
(-3.33882e-05 0 -0.00263634)
(0.000219528 0 -0.0017924)
(7.71837e-06 0 -0.000171772)
(4.95465e-05 0 -0.00323385)
(-8.26049e-06 0 -0.000826532)
(-0.000163989 0 -0.00246712)
(-8.66636e-05 0 -0.00131834)
(-0.000148315 0 -0.00121163)
(-0.000101688 0 -0.00101925)
(-5.99849e-05 0 -0.000917704)
(-8.00004e-05 0 -0.000855414)
(-7.66801e-05 0 -0.000835222)
(-6.64023e-05 0 -0.000852757)
(-5.67471e-05 0 -0.000874611)
(-4.85284e-05 0 -0.000891967)
(-4.15169e-05 0 -0.000906265)
(-3.5507e-05 0 -0.000918639)
(-3.0352e-05 0 -0.000929411)
(-2.59319e-05 0 -0.00093876)
(-2.21435e-05 0 -0.000946866)
(-1.88977e-05 0 -0.000953895)
(-1.61181e-05 0 -0.000959989)
(-1.37391e-05 0 -0.000965274)
(-1.17044e-05 0 -0.000969857)
(-9.96587e-06 0 -0.000973831)
(-8.48163e-06 0 -0.000977278)
(-7.21492e-06 0 -0.000980268)
(-6.13425e-06 0 -0.000982861)
(-5.21264e-06 0 -0.000985112)
(-4.427e-06 0 -0.000987065)
(-3.75754e-06 0 -0.00098876)
(-3.18733e-06 0 -0.000990231)
(-2.70187e-06 0 -0.000991508)
(-2.28877e-06 0 -0.000992618)
(-1.93742e-06 0 -0.000993581)
(-1.63873e-06 0 -0.000994418)
(-1.38497e-06 0 -0.000995144)
(-1.1695e-06 0 -0.000995776)
(-9.86657e-07 0 -0.000996325)
(-8.31604e-07 0 -0.000996802)
(-7.00213e-07 0 -0.000997216)
(-5.8896e-07 0 -0.000997577)
(-4.9484e-07 0 -0.00099789)
(-4.15292e-07 0 -0.000998163)
(-3.48133e-07 0 -0.0009984)
(-2.91505e-07 0 -0.000998607)
(-2.43827e-07 0 -0.000998786)
(-2.03714e-07 0 -0.000998943)
(-1.69977e-07 0 -0.000999079)
(-1.41618e-07 0 -0.000999198)
(-1.17796e-07 0 -0.000999301)
(-9.78015e-08 0 -0.000999391)
(-8.10361e-08 0 -0.00099947)
(-6.69933e-08 0 -0.000999538)
(-5.52462e-08 0 -0.000999598)
(-4.54333e-08 0 -0.00099965)
(-3.72496e-08 0 -0.000999695)
(-3.04383e-08 0 -0.000999735)
(-2.47803e-08 0 -0.000999769)
(-2.00901e-08 0 -0.000999799)
(-1.62093e-08 0 -0.000999825)
(-1.30044e-08 0 -0.000999848)
(-1.03625e-08 0 -0.000999868)
(-8.18836e-09 0 -0.000999885)
(-6.40166e-09 0 -0.000999901)
(-4.93505e-09 0 -0.000999914)
(-3.73206e-09 0 -0.000999925)
(-2.74556e-09 0 -0.000999935)
(-1.93631e-09 0 -0.000999944)
(-1.27192e-09 0 -0.000999951)
(-7.25881e-10 0 -0.000999958)
(-2.76984e-10 0 -0.000999963)
(9.1052e-11 0 -0.000999968)
(3.91343e-10 0 -0.000999973)
(6.3689e-10 0 -0.000999977)
(8.38229e-10 0 -0.00099998)
(1.00369e-09 0 -0.000999983)
(1.13989e-09 0 -0.000999986)
(1.25196e-09 0 -0.000999988)
(1.34375e-09 0 -0.00099999)
(1.4174e-09 0 -0.000999992)
(1.47156e-09 0 -0.000999994)
(1.50385e-09 0 -0.000999996)
(1.50502e-09 0 -0.000999997)
(1.44527e-09 0 -0.000999999)
(0 5.14249e-09 -0.00100006)
(0 9.50155e-09 -0.00100007)
(0 1.52485e-08 -0.00100007)
(0 2.14499e-08 -0.00100007)
(0 2.79503e-08 -0.00100007)
(0 3.47856e-08 -0.00100008)
(0 4.20263e-08 -0.00100008)
(0 4.97539e-08 -0.00100009)
(0 5.80545e-08 -0.00100009)
(0 6.70196e-08 -0.0010001)
(0 7.67471e-08 -0.00100011)
(0 8.7342e-08 -0.00100012)
(0 9.89176e-08 -0.00100013)
(0 1.11597e-07 -0.00100014)
(0 1.25513e-07 -0.00100016)
(0 1.40814e-07 -0.00100017)
(0 1.57657e-07 -0.00100019)
(0 1.7622e-07 -0.0010002)
(0 1.96696e-07 -0.00100022)
(0 2.19298e-07 -0.00100025)
(0 2.44261e-07 -0.00100027)
(0 2.71844e-07 -0.0010003)
(0 3.02333e-07 -0.00100033)
(0 3.36045e-07 -0.00100036)
(0 3.73328e-07 -0.0010004)
(0 4.14569e-07 -0.00100044)
(0 4.6019e-07 -0.00100048)
(0 5.1065e-07 -0.00100053)
(0 5.66454e-07 -0.00100059)
(0 6.28155e-07 -0.00100065)
(0 6.96364e-07 -0.00100071)
(0 7.7175e-07 -0.00100078)
(0 8.55047e-07 -0.00100086)
(0 9.47055e-07 -0.00100095)
(0 1.04865e-06 -0.00100104)
(0 1.16078e-06 -0.00100115)
(0 1.2845e-06 -0.00100126)
(0 1.42095e-06 -0.00100138)
(0 1.57137e-06 -0.00100152)
(0 1.73712e-06 -0.00100167)
(0 1.91967e-06 -0.00100183)
(0 2.12062e-06 -0.001002)
(0 2.34171e-06 -0.00100219)
(0 2.5848e-06 -0.0010024)
(0 2.85191e-06 -0.00100262)
(0 3.14522e-06 -0.00100286)
(0 3.46707e-06 -0.00100312)
(0 3.81998e-06 -0.00100341)
(0 4.20661e-06 -0.00100371)
(0 4.62984e-06 -0.00100403)
(0 5.0927e-06 -0.00100438)
(0 5.59841e-06 -0.00100476)
(0 6.15034e-06 -0.00100515)
(0 6.75202e-06 -0.00100558)
(0 7.40715e-06 -0.00100603)
(0 8.1195e-06 -0.0010065)
(0 8.89295e-06 -0.001007)
(0 9.73141e-06 -0.00100751)
(0 1.06388e-05 -0.00100805)
(0 1.16189e-05 -0.00100861)
(0 1.26755e-05 -0.00100918)
(0 1.38119e-05 -0.00100976)
(0 1.5031e-05 -0.00101034)
(0 1.63354e-05 -0.00101091)
(0 1.77265e-05 -0.00101146)
(0 1.92049e-05 -0.00101197)
(0 2.077e-05 -0.00101244)
(0 2.2419e-05 -0.00101283)
(0 2.41474e-05 -0.00101313)
(0 2.59478e-05 -0.0010133)
(0 2.78092e-05 -0.0010133)
(0 2.97166e-05 -0.0010131)
(0 3.16499e-05 -0.00101261)
(0 3.35822e-05 -0.00101174)
(0 3.54756e-05 -0.00101064)
(0 3.7269e-05 -0.00101035)
(0 3.88527e-05 -0.00101102)
(0 3.99565e-05 -0.000997963)
(0 3.92618e-05 -0.000937441)
(0 3.32647e-05 -0.000759563)
(0 3.23899e-06 -0.00303472)
(0 2.33219e-06 -1.92121e-06)
(0 0.000298914 -0.00377246)
(0 0.000100254 -0.00232538)
(0 -1.97152e-05 -0.00152746)
(0 4.6258e-05 -0.00464965)
(0 -2.75202e-06 -0.000731642)
(0 -0.000449121 -0.00486412)
(0 2.172e-05 -3.61444e-05)
(0 -0.000940849 -0.00424248)
(0 1.75538e-05 -7.45455e-05)
(0 -0.000482291 -0.00381585)
(0 -0.000252939 -0.00159431)
(0 -0.000545964 -0.00420541)
(0 -6.64242e-05 -0.00106865)
(0 -0.000262467 -0.00263634)
(0 -0.000508769 -0.0017924)
(0 -1.09803e-05 -0.000171772)
(0 -0.000200683 -0.00323385)
(0 -1.34872e-05 -0.000826532)
(0 7.2759e-05 -0.00246712)
(0 0.000102286 -0.00131834)
(0 3.83496e-05 -0.00121163)
(0 7.84598e-05 -0.00101925)
(0 0.000117183 -0.000917704)
(0 0.000143268 -0.000855414)
(0 0.000137303 -0.000835222)
(0 0.000121801 -0.000852757)
(0 0.000106315 -0.000874611)
(0 9.25292e-05 -0.000891967)
(0 8.05002e-05 -0.000906265)
(0 7.00385e-05 -0.000918639)
(0 6.09443e-05 -0.000929411)
(0 5.30386e-05 -0.00093876)
(0 4.61656e-05 -0.000946866)
(0 4.01897e-05 -0.000953895)
(0 3.49931e-05 -0.000959989)
(0 3.04736e-05 -0.000965274)
(0 2.65424e-05 -0.000969857)
(0 2.31224e-05 -0.000973831)
(0 2.01466e-05 -0.000977278)
(0 1.7557e-05 -0.000980268)
(0 1.5303e-05 -0.000982861)
(0 1.33408e-05 -0.000985112)
(0 1.16323e-05 -0.000987065)
(0 1.01446e-05 -0.00098876)
(0 8.84872e-06 -0.000990231)
(0 7.71988e-06 -0.000991508)
(0 6.73633e-06 -0.000992618)
(0 5.87922e-06 -0.000993581)
(0 5.13215e-06 -0.000994418)
(0 4.48088e-06 -0.000995144)
(0 3.91302e-06 -0.000995776)
(0 3.4178e-06 -0.000996325)
(0 2.98582e-06 -0.000996802)
(0 2.60896e-06 -0.000997216)
(0 2.2801e-06 -0.000997577)
(0 1.99307e-06 -0.00099789)
(0 1.74251e-06 -0.000998163)
(0 1.52373e-06 -0.0009984)
(0 1.33267e-06 -0.000998607)
(0 1.16578e-06 -0.000998786)
(0 1.01998e-06 -0.000998943)
(0 8.92577e-07 -0.000999079)
(0 7.81236e-07 -0.000999198)
(0 6.83915e-07 -0.000999301)
(0 5.98836e-07 -0.000999391)
(0 5.24448e-07 -0.00099947)
(0 4.59399e-07 -0.000999538)
(0 4.02508e-07 -0.000999598)
(0 3.52745e-07 -0.00099965)
(0 3.09212e-07 -0.000999695)
(0 2.71122e-07 -0.000999735)
(0 2.37792e-07 -0.000999769)
(0 2.08622e-07 -0.000999799)
(0 1.8309e-07 -0.000999825)
(0 1.60739e-07 -0.000999848)
(0 1.41171e-07 -0.000999868)
(0 1.24037e-07 -0.000999885)
(0 1.09034e-07 -0.000999901)
(0 9.58948e-08 -0.000999914)
(0 8.43888e-08 -0.000999925)
(0 7.43139e-08 -0.000999935)
(0 6.54939e-08 -0.000999944)
(0 5.77755e-08 -0.000999951)
(0 5.10256e-08 -0.000999958)
(0 4.51289e-08 -0.000999963)
(0 3.99857e-08 -0.000999968)
(0 3.551e-08 -0.000999973)
(0 3.16261e-08 -0.000999977)
(0 2.82692e-08 -0.00099998)
(0 2.53835e-08 -0.000999983)
(0 2.29216e-08 -0.000999986)
(0 2.08437e-08 -0.000999988)
(0 1.91164e-08 -0.00099999)
(0 1.7713e-08 -0.000999992)
(0 1.6615e-08 -0.000999994)
(0 1.58087e-08 -0.000999996)
(0 1.52853e-08 -0.000999997)
(0 1.50254e-08 -0.000999999)
)
;
    }
    procBoundary1to0
    {
        type            processor;
        value           nonuniform List<vector> 
180
(
(-4.25908e-10 5.54231e-09 -0.00100006)
(-2.61252e-10 1.04366e-08 -0.00100006)
(-2.74262e-10 1.68134e-08 -0.00100007)
(-3.39382e-10 2.3672e-08 -0.00100007)
(-4.11102e-10 3.08479e-08 -0.00100007)
(-4.7949e-10 3.83768e-08 -0.00100008)
(-5.38439e-10 4.63391e-08 -0.00100008)
(-5.83192e-10 5.48252e-08 -0.00100009)
(-6.0745e-10 6.39335e-08 -0.00100009)
(-6.03172e-10 7.37705e-08 -0.0010001)
(-5.60303e-10 8.44521e-08 -0.00100011)
(-4.66538e-10 9.61052e-08 -0.00100012)
(-3.07073e-10 1.08868e-07 -0.00100013)
(-6.43593e-11 1.22895e-07 -0.00100015)
(2.82178e-10 1.38352e-07 -0.00100016)
(7.56435e-10 1.55425e-07 -0.00100018)
(1.38597e-09 1.7432e-07 -0.0010002)
(2.20239e-09 1.95262e-07 -0.00100022)
(3.24182e-09 2.18503e-07 -0.00100025)
(4.54538e-09 2.4432e-07 -0.00100028)
(6.15986e-09 2.7302e-07 -0.00100031)
(8.13844e-09 3.04945e-07 -0.00100034)
(1.05415e-08 3.40473e-07 -0.00100038)
(1.34376e-08 3.80026e-07 -0.00100042)
(1.6905e-08 4.2407e-07 -0.00100047)
(2.10324e-08 4.73125e-07 -0.00100053)
(2.5923e-08 5.27771e-07 -0.00100059)
(3.17155e-08 5.88663e-07 -0.00100066)
(3.85669e-08 6.56529e-07 -0.00100074)
(4.66562e-08 7.32183e-07 -0.00100082)
(5.61885e-08 8.16533e-07 -0.00100092)
(6.73995e-08 9.10593e-07 -0.00100103)
(8.05606e-08 1.0155e-06 -0.00100115)
(9.59853e-08 1.13251e-06 -0.00100128)
(1.14036e-07 1.26305e-06 -0.00100143)
(1.35129e-07 1.40872e-06 -0.0010016)
(1.5975e-07 1.57129e-06 -0.00100179)
(1.88461e-07 1.75274e-06 -0.001002)
(2.21925e-07 1.95531e-06 -0.00100224)
(2.60902e-07 2.18146e-06 -0.00100251)
(3.06273e-07 2.43401e-06 -0.00100281)
(3.59054e-07 2.71606e-06 -0.00100314)
(4.20417e-07 3.03112e-06 -0.00100352)
(4.91719e-07 3.38312e-06 -0.00100394)
(5.74519e-07 3.77647e-06 -0.00100441)
(6.7062e-07 4.21609e-06 -0.00100494)
(7.82097e-07 4.70753e-06 -0.00100553)
(9.11339e-07 5.25702e-06 -0.0010062)
(1.0611e-06 5.87152e-06 -0.00100694)
(1.23455e-06 6.55887e-06 -0.00100778)
(1.43533e-06 7.32787e-06 -0.00100872)
(1.66765e-06 8.18842e-06 -0.00100978)
(1.93633e-06 9.15163e-06 -0.00101096)
(2.24692e-06 1.023e-05 -0.00101229)
(2.60581e-06 1.14376e-05 -0.00101378)
(3.02034e-06 1.27902e-05 -0.00101545)
(3.49897e-06 1.43056e-05 -0.00101733)
(4.05137e-06 1.60039e-05 -0.00101945)
(4.6887e-06 1.79076e-05 -0.00102182)
(5.42373e-06 2.00423e-05 -0.00102449)
(6.27116e-06 2.24365e-05 -0.00102748)
(7.24783e-06 2.51227e-05 -0.00103085)
(8.37307e-06 2.81373e-05 -0.00103464)
(9.66909e-06 3.15217e-05 -0.0010389)
(1.11614e-05 3.53226e-05 -0.00104369)
(1.28792e-05 3.95927e-05 -0.00104908)
(1.48563e-05 4.43918e-05 -0.00105515)
(1.71311e-05 4.97879e-05 -0.00106198)
(1.97482e-05 5.58577e-05 -0.00106967)
(2.27584e-05 6.26888e-05 -0.00107834)
(2.62204e-05 7.03805e-05 -0.00108811)
(3.02018e-05 7.9046e-05 -0.00109913)
(3.47801e-05 8.88143e-05 -0.00111155)
(4.00449e-05 9.98316e-05 -0.00112553)
(4.60996e-05 0.000112262 -0.00114151)
(5.30633e-05 0.000126275 -0.00116097)
(6.10656e-05 0.00014189 -0.00118498)
(6.9782e-05 0.000157332 -0.0011975)
(7.75858e-05 0.000165212 -0.00115222)
(7.39043e-05 0.000138191 -0.000945271)
(2.2854e-05 1.66943e-05 -0.00356484)
(7.33219e-06 -5.4469e-06 -1.26012e-05)
(-0.000300623 0.000138006 -0.00413713)
(-4.32889e-05 7.88434e-06 -0.000597171)
(-0.000437781 -0.000331796 -0.00459279)
(-1.60405e-05 -1.25655e-05 -0.000163946)
(-0.00066138 -0.000549372 -0.00502315)
(-0.000304622 -0.000199465 -0.00413484)
(-1.79375e-05 4.72898e-05 -0.0014728)
(0.000225364 0.000327066 -0.00478565)
(0.000226298 0.000147193 -0.00158637)
(0.00081948 -0.000290373 -0.00360853)
(1.00067e-06 6.14082e-06 -9.67775e-05)
(0.000346785 -0.000288728 -0.00410607)
(-9.05375e-06 -0.000252124 -0.00282834)
(-4.29742e-05 -0.000118037 -0.00238063)
(0.000116302 -0.00010178 -0.00362535)
(0.000113362 -0.000115923 -0.00250946)
(3.86132e-05 -2.49631e-05 -0.00235593)
(-0.000181351 -5.86491e-05 -0.0036934)
(-8.36037e-05 -7.08605e-05 -0.00177737)
(-8.47996e-05 -0.000110471 -0.00329279)
(-7.08453e-05 -0.000182067 -0.00265922)
(9.98496e-05 -0.00012817 -0.00113892)
(-3.45778e-05 -3.14885e-05 -0.00173338)
(-7.83877e-05 -4.9444e-05 -0.00105523)
(-7.70698e-05 -5.66959e-05 -0.001047)
(-6.64138e-05 -5.22593e-05 -0.0010576)
(-5.66894e-05 -4.48152e-05 -0.00105369)
(-4.84786e-05 -3.78245e-05 -0.001045)
(-4.148e-05 -3.18016e-05 -0.00103731)
(-3.548e-05 -2.6678e-05 -0.00103105)
(-3.03323e-05 -2.23302e-05 -0.00102582)
(-2.59175e-05 -1.86461e-05 -0.00102142)
(-2.2133e-05 -1.55283e-05 -0.0010177)
(-1.889e-05 -1.28935e-05 -0.00101457)
(-1.61125e-05 -1.06705e-05 -0.00101194)
(-1.3735e-05 -8.79863e-06 -0.00100972)
(-1.17014e-05 -7.22635e-06 -0.00100786)
(-9.96369e-06 -5.91013e-06 -0.00100629)
(-8.48004e-06 -4.81175e-06 -0.00100498)
(-7.21376e-06 -3.89707e-06 -0.00100391)
(-6.1334e-06 -3.13708e-06 -0.00100303)
(-5.21203e-06 -2.50723e-06 -0.00100231)
(-4.42655e-06 -1.9867e-06 -0.00100172)
(-3.75721e-06 -1.55786e-06 -0.00100125)
(-3.18709e-06 -1.20582e-06 -0.00100086)
(-2.7017e-06 -9.17966e-07 -0.00100056)
(-2.28864e-06 -6.83682e-07 -0.00100032)
(-1.93732e-06 -4.94003e-07 -0.00100013)
(-1.63867e-06 -3.41382e-07 -0.000999982)
(-1.38492e-06 -2.19475e-07 -0.000999871)
(-1.16947e-06 -1.22951e-07 -0.000999788)
(-9.86631e-07 -4.73432e-08 -0.000999728)
(-8.31585e-07 1.10871e-08 -0.000999687)
(-7.00199e-07 5.5464e-08 -0.00099966)
(-5.8895e-07 8.83913e-08 -0.000999646)
(-4.94833e-07 1.12035e-07 -0.00099964)
(-4.15287e-07 1.2819e-07 -0.000999641)
(-3.48129e-07 1.38341e-07 -0.000999647)
(-2.91502e-07 1.43711e-07 -0.000999657)
(-2.43825e-07 1.45303e-07 -0.000999671)
(-2.03712e-07 1.4402e-07 -0.000999687)
(-1.69976e-07 1.4062e-07 -0.000999705)
(-1.41617e-07 1.35699e-07 -0.000999723)
(-1.17796e-07 1.29724e-07 -0.000999742)
(-9.78011e-08 1.23061e-07 -0.000999761)
(-8.10358e-08 1.15992e-07 -0.00099978)
(-6.69931e-08 1.08736e-07 -0.000999798)
(-5.5246e-08 1.01459e-07 -0.000999815)
(-4.54332e-08 9.42867e-08 -0.000999831)
(-3.72496e-08 8.73088e-08 -0.000999846)
(-3.04383e-08 8.0589e-08 -0.00099986)
(-2.47803e-08 7.41737e-08 -0.000999873)
(-2.009e-08 6.8094e-08 -0.000999886)
(-1.62093e-08 6.23708e-08 -0.000999897)
(-1.30044e-08 5.70148e-08 -0.000999907)
(-1.03625e-08 5.20283e-08 -0.000999917)
(-8.18835e-09 4.74079e-08 -0.000999925)
(-6.40165e-09 4.31457e-08 -0.000999933)
(-4.93504e-09 3.92304e-08 -0.000999941)
(-3.73206e-09 3.56479e-08 -0.000999947)
(-2.74555e-09 3.2383e-08 -0.000999953)
(-1.93631e-09 2.94189e-08 -0.000999958)
(-1.27192e-09 2.67388e-08 -0.000999963)
(-7.2588e-10 2.43251e-08 -0.000999968)
(-2.76984e-10 2.21607e-08 -0.000999972)
(9.10529e-11 2.02281e-08 -0.000999975)
(3.91344e-10 1.85108e-08 -0.000999978)
(6.36891e-10 1.69944e-08 -0.000999981)
(8.3823e-10 1.56651e-08 -0.000999984)
(1.0037e-09 1.45106e-08 -0.000999986)
(1.13989e-09 1.35193e-08 -0.000999988)
(1.25196e-09 1.26807e-08 -0.00099999)
(1.34375e-09 1.19857e-08 -0.000999992)
(1.41741e-09 1.14254e-08 -0.000999994)
(1.47157e-09 1.099e-08 -0.000999995)
(1.50386e-09 1.06697e-08 -0.000999997)
(1.50506e-09 1.04414e-08 -0.000999998)
(1.44529e-09 1.02332e-08 -0.000999999)
)
;
    }
    procBoundary1to3
    {
        type            processor;
        value           nonuniform List<vector> 
180
(
(-8.25734e-10 5.14248e-09 -0.000999945)
(-1.1963e-09 9.50154e-09 -0.000999944)
(-1.83917e-09 1.52485e-08 -0.000999943)
(-2.56145e-09 2.14499e-08 -0.000999941)
(-3.30864e-09 2.79503e-08 -0.000999938)
(-4.07078e-09 3.47855e-08 -0.000999935)
(-4.85123e-09 4.20263e-08 -0.000999931)
(-5.65449e-09 4.97539e-08 -0.000999926)
(-6.48644e-09 5.80545e-08 -0.00099992)
(-7.35401e-09 6.70196e-08 -0.000999913)
(-8.26532e-09 7.67471e-08 -0.000999905)
(-9.22973e-09 8.7342e-08 -0.000999896)
(-1.0258e-08 9.89175e-08 -0.000999886)
(-1.13622e-08 1.11597e-07 -0.000999874)
(-1.25562e-08 1.25513e-07 -0.000999861)
(-1.38554e-08 1.40813e-07 -0.000999847)
(-1.52768e-08 1.57657e-07 -0.00099983)
(-1.68396e-08 1.7622e-07 -0.000999812)
(-1.85648e-08 1.96696e-07 -0.000999791)
(-2.04759e-08 2.19298e-07 -0.000999768)
(-2.25988e-08 2.44261e-07 -0.000999743)
(-2.49623e-08 2.71844e-07 -0.000999714)
(-2.75985e-08 3.02333e-07 -0.000999683)
(-3.05431e-08 3.36044e-07 -0.000999647)
(-3.38366e-08 3.73328e-07 -0.000999608)
(-3.75244e-08 4.14568e-07 -0.000999565)
(-4.1658e-08 4.60189e-07 -0.000999517)
(-4.62966e-08 5.10649e-07 -0.000999463)
(-5.15082e-08 5.66452e-07 -0.000999404)
(-5.73719e-08 6.28153e-07 -0.000999339)
(-6.39803e-08 6.96362e-07 -0.000999266)
(-7.14424e-08 7.71748e-07 -0.000999186)
(-7.98871e-08 8.55044e-07 -0.000999097)
(-8.94677e-08 9.47051e-07 -0.000999)
(-1.00367e-07 1.04864e-06 -0.000998892)
(-1.12804e-07 1.16078e-06 -0.000998773)
(-1.27036e-07 1.28449e-06 -0.000998642)
(-1.43332e-07 1.42094e-06 -0.000998497)
(-1.62009e-07 1.57136e-06 -0.000998337)
(-1.83438e-07 1.7371e-06 -0.000998161)
(-2.08056e-07 1.91965e-06 -0.000997967)
(-2.36371e-07 2.1206e-06 -0.000997754)
(-2.68983e-07 2.34169e-06 -0.00099752)
(-3.06592e-07 2.58477e-06 -0.000997262)
(-3.50019e-07 2.85187e-06 -0.000996979)
(-4.00223e-07 3.14518e-06 -0.00099667)
(-4.58329e-07 3.46702e-06 -0.00099633)
(-5.25655e-07 3.81991e-06 -0.000995959)
(-6.03743e-07 4.20654e-06 -0.000995553)
(-6.94398e-07 4.62975e-06 -0.000995111)
(-7.99736e-07 5.09259e-06 -0.000994629)
(-9.22235e-07 5.59827e-06 -0.000994105)
(-1.0648e-06 6.15017e-06 -0.000993535)
(-1.23083e-06 6.75183e-06 -0.000992918)
(-1.42433e-06 7.40691e-06 -0.000992251)
(-1.64996e-06 8.11922e-06 -0.000991532)
(-1.91321e-06 8.89261e-06 -0.000990757)
(-2.2205e-06 9.731e-06 -0.000989926)
(-2.57936e-06 1.06383e-05 -0.000989038)
(-2.99862e-06 1.16184e-05 -0.000988091)
(-3.48859e-06 1.26748e-05 -0.000987085)
(-4.0614e-06 1.3811e-05 -0.000986023)
(-4.73122e-06 1.503e-05 -0.000984908)
(-5.51472e-06 1.63342e-05 -0.000983744)
(-6.43144e-06 1.7725e-05 -0.000982538)
(-7.50433e-06 1.92032e-05 -0.0009813)
(-8.76031e-06 2.07679e-05 -0.000980046)
(-1.0231e-05 2.24166e-05 -0.000978793)
(-1.19537e-05 2.41445e-05 -0.000977564)
(-1.39721e-05 2.59442e-05 -0.000976393)
(-1.63378e-05 2.78048e-05 -0.000975318)
(-1.91113e-05 2.97112e-05 -0.000974387)
(-2.2364e-05 3.16432e-05 -0.000973646)
(-2.61793e-05 3.35738e-05 -0.00097317)
(-3.06548e-05 3.54652e-05 -0.000973337)
(-3.58933e-05 3.72617e-05 -0.00097519)
(-4.18634e-05 3.88849e-05 -0.000977755)
(-4.75607e-05 4.01703e-05 -0.000965348)
(-4.80441e-05 4.00929e-05 -0.000903405)
(-3.00602e-05 3.51547e-05 -0.000835747)
(8.57213e-06 4.47681e-06 -0.00271354)
(7.37744e-06 2.9756e-06 -1.56278e-05)
(6.30966e-05 0.000476242 -0.00351086)
(9.46148e-06 7.31465e-06 -5.39082e-05)
(-0.000113896 -5.04479e-05 -0.00381703)
(-2.6908e-05 4.63902e-05 -0.00385586)
(-2.15922e-05 7.75067e-06 -0.000531463)
(-0.000334483 -0.000224854 -0.00361424)
(-0.000349349 -0.000201911 -0.00367907)
(-4.75868e-05 -1.97577e-05 -0.000276141)
(-0.000614145 -0.000782309 -0.00295359)
(0.000118204 -0.000349724 -0.00368092)
(3.40196e-06 -3.39417e-05 -0.000766885)
(-0.000226795 -0.000677019 -0.00444002)
(-0.000233314 -0.000852526 -0.00327027)
(-8.55991e-06 5.4297e-06 -0.000190384)
(-0.000181634 -0.000809998 -0.00462837)
(-1.08191e-05 5.25647e-06 -0.000213003)
(-0.000365301 -0.000426997 -0.00512624)
(-0.000111032 -5.64829e-05 -0.00130777)
(0.000330333 0.000356766 -0.00400404)
(-1.80868e-05 -7.34474e-06 -0.000201288)
(6.21133e-05 -9.47043e-05 -0.00323217)
(0.000134373 -8.21464e-05 -0.00143517)
(0.000153133 3.46565e-05 -0.00143752)
(0.000143298 0.00011755 -0.0013095)
(0.000126125 0.00013167 -0.00123098)
(0.000109391 0.0001208 -0.00119709)
(9.46417e-05 0.000106109 -0.00117381)