/*--------------------------------*- C++ -*----------------------------------*\
| =========                 |                                                 |
| \\      /  F ield         | OpenFOAM: The Open Source CFD Toolbox           |
|  \\    /   O peration     | Version:  5.x                                   |
|   \\  /    A nd           | Web:      www.OpenFOAM.org                      |
|    \\/     M anipulation  |                                                 |
\*---------------------------------------------------------------------------*/
FoamFile
{
    version     2.0;
    format      ascii;
    class       volVectorField;
    location    "2000";
    object      U;
}
// * * * * * * * * * * * * * * * * * * * * * * * * * * * * * * * * * * * * * //

dimensions      [0 1 -1 0 0 0 0];

internalField   nonuniform List<vector> 
180
(
(-3.69129e-10 5.51066e-09 -0.0010001)
(-1.37638e-10 1.01307e-08 -0.0010001)
(-5.87333e-11 1.62207e-08 -0.0010001)
(-2.46372e-11 2.27974e-08 -0.00100011)
(1.42304e-11 2.96839e-08 -0.00100011)
(7.2534e-11 3.69106e-08 -0.00100011)
(1.59275e-10 4.45489e-08 -0.00100012)
(2.81603e-10 5.26818e-08 -0.00100012)
(4.47396e-10 6.13984e-08 -0.00100013)
(6.65493e-10 7.07932e-08 -0.00100014)
(9.45902e-10 8.0968e-08 -0.00100015)
(1.29999e-09 9.20316e-08 -0.00100015)
(1.74072e-09 1.04104e-07 -0.00100017)
(2.28281e-09 1.17316e-07 -0.00100018)
(2.94305e-09 1.31809e-07 -0.00100019)
(3.74295e-09 1.47739e-07 -0.00100021)
(4.70805e-09 1.65275e-07 -0.00100022)
(5.86771e-09 1.84602e-07 -0.00100024)
(7.25566e-09 2.05924e-07 -0.00100026)
(8.91067e-09 2.29466e-07 -0.00100029)
(1.08772e-08 2.55474e-07 -0.00100031)
(1.32064e-08 2.84219e-07 -0.00100034)
(1.59569e-08 3.16001e-07 -0.00100037)
(1.91961e-08 3.51149e-07 -0.00100041)
(2.30014e-08 3.90026e-07 -0.00100045)
(2.74617e-08 4.3303e-07 -0.00100049)
(3.26803e-08 4.80601e-07 -0.00100054)
(3.8781e-08 5.33219e-07 -0.00100059)
(4.59071e-08 5.91413e-07 -0.00100065)
(5.42237e-08 6.55763e-07 -0.00100071)
(6.39214e-08 7.26905e-07 -0.00100078)
(7.52204e-08 8.05539e-07 -0.00100086)
(8.83749e-08 8.92431e-07 -0.00100094)
(1.03679e-07 9.88421e-07 -0.00100103)
(1.21471e-07 1.09443e-06 -0.00100113)
(1.42144e-07 1.21146e-06 -0.00100125)
(1.66151e-07 1.34062e-06 -0.00100137)
(1.94016e-07 1.48309e-06 -0.0010015)
(2.26352e-07 1.6402e-06 -0.00100165)
(2.63861e-07 1.81335e-06 -0.00100181)
(3.07361e-07 2.00411e-06 -0.00100199)
(3.57794e-07 2.21418e-06 -0.00100219)
(4.16247e-07 2.44541e-06 -0.0010024)
(4.83982e-07 2.69981e-06 -0.00100263)
(5.62451e-07 2.97957e-06 -0.00100288)
(6.53334e-07 3.28704e-06 -0.00100316)
(7.5857e-07 3.62476e-06 -0.00100346)
(8.80397e-07 3.99546e-06 -0.00100378)
(1.0214e-06 4.40207e-06 -0.00100413)
(1.18456e-06 4.84775e-06 -0.00100452)
(1.37331e-06 5.33582e-06 -0.00100493)
(1.59164e-06 5.86986e-06 -0.00100538)
(1.84412e-06 6.45362e-06 -0.00100586)
(2.13604e-06 7.09104e-06 -0.00100638)
(2.47352e-06 7.78626e-06 -0.00100693)
(2.8636e-06 8.54354e-06 -0.00100753)
(3.31441e-06 9.3673e-06 -0.00100817)
(3.83534e-06 1.0262e-05 -0.00100884)
(4.43725e-06 1.12321e-05 -0.00100956)
(5.13261e-06 1.2282e-05 -0.00101032)
(5.93589e-06 1.34161e-05 -0.00101111)
(6.86374e-06 1.46381e-05 -0.00101194)
(7.93541e-06 1.59517e-05 -0.00101281)
(9.17316e-06 1.73597e-05 -0.00101369)
(1.06027e-05 1.8864e-05 -0.0010146)
(1.22539e-05 2.04656e-05 -0.00101551)
(1.41611e-05 2.21635e-05 -0.00101641)
(1.63643e-05 2.39553e-05 -0.00101728)
(1.89097e-05 2.58358e-05 -0.00101811)
(2.1851e-05 2.77965e-05 -0.00101885)
(2.52503e-05 2.98253e-05 -0.00101948)
(2.91799e-05 3.19048e-05 -0.00101995)
(3.37238e-05 3.40119e-05 -0.00102017)
(3.89797e-05 3.61156e-05 -0.00102006)
(4.50595e-05 3.81718e-05 -0.00101976)
(5.20774e-05 4.01095e-05 -0.00102033)
(6.00819e-05 4.17998e-05 -0.00102198)
(6.87184e-05 4.29244e-05 -0.00100968)
(7.5194e-05 4.20858e-05 -0.000947828)
(6.82027e-05 3.56416e-05 -0.000786481)
(1.72256e-05 3.15065e-06 -0.00327738)
(2.60539e-05 -1.12299e-05 5.34962e-05)
(-0.000193269 0.000327141 -0.00411944)
(-7.89805e-05 0.000108273 -0.00242141)
(-6.28708e-05 -4.52042e-05 -0.0015002)
(-0.000253199 2.72298e-05 -0.00480625)
(-6.4213e-05 -2.78303e-05 -0.000719493)
(-0.000816615 -0.000477103 -0.00530144)
(2.28329e-05 -2.59437e-05 6.95043e-05)
(0.000801243 -0.000935844 -0.00482129)
(1.19046e-05 -6.35723e-05 -4.61991e-05)
(0.000466699 -0.000438252 -0.0041971)
(0.000151271 -0.000239815 -0.00162131)
(0.00026182 -0.000534599 -0.00427066)
(-1.62399e-06 -4.94587e-05 -0.00099301)
(6.60937e-05 -0.000265114 -0.00278137)
(0.00032471 -0.000524659 -0.00237866)
(-1.52124e-06 -6.61511e-06 -0.000111094)
(4.78789e-06 -0.000101247 -0.00421714)
(-3.7012e-05 4.31461e-05 -0.000934959)
(-0.000196903 0.000189607 -0.00250802)
(-0.00011196 0.000162144 -0.00131751)
(-0.000166286 2.44522e-05 -0.00124194)
(-0.000114472 5.65507e-05 -0.00103228)
(-6.95899e-05 9.92857e-05 -0.000929485)
(-8.95156e-05 0.000127232 -0.000865267)
(-8.58179e-05 0.000124205 -0.000842554)
(-7.45029e-05 0.000110885 -0.000858927)
(-6.37494e-05 9.70303e-05 -0.000880015)
(-5.4562e-05 8.45885e-05 -0.000896678)
(-4.67148e-05 7.37039e-05 -0.000910344)
(-3.99832e-05 6.42237e-05 -0.000922166)
(-3.42049e-05 5.59719e-05 -0.000932463)
(-2.92466e-05 4.87894e-05 -0.000941402)
(-2.49935e-05 4.25368e-05 -0.000949153)
(-2.13467e-05 3.7093e-05 -0.000955874)
(-1.82211e-05 3.23526e-05 -0.000961703)
(-1.55436e-05 2.82241e-05 -0.000966758)
(-1.32512e-05 2.46278e-05 -0.000971142)
(-1.12902e-05 2.14945e-05 -0.000974945)
(-9.61385e-06 1.87642e-05 -0.000978243)
(-8.18121e-06 1.63846e-05 -0.000981105)
(-6.95723e-06 1.43101e-05 -0.000983587)
(-5.91185e-06 1.25014e-05 -0.000985741)
(-5.0193e-06 1.0924e-05 -0.00098761)
(-4.2575e-06 9.54805e-06 -0.000989233)
(-3.60756e-06 8.34757e-06 -0.000990641)
(-3.05336e-06 7.29992e-06 -0.000991863)
(-2.5812e-06 6.38541e-06 -0.000992924)
(-2.17962e-06 5.58689e-06 -0.000993845)
(-1.83836e-06 4.88947e-06 -0.000994644)
(-1.5486e-06 4.28018e-06 -0.000995339)
(-1.30279e-06 3.74772e-06 -0.000995943)
(-1.09447e-06 3.28227e-06 -0.000996467)
(-9.18137e-07 2.87529e-06 -0.000996923)
(-7.69033e-07 2.51934e-06 -0.000997319)
(-6.42994e-07 2.20793e-06 -0.000997664)
(-5.3652e-07 1.93542e-06 -0.000997964)
(-4.46654e-07 1.6969e-06 -0.000998226)
(-3.70894e-07 1.48808e-06 -0.000998453)
(-3.07119e-07 1.30524e-06 -0.000998652)
(-2.53534e-07 1.1451e-06 -0.000998825)
(-2.08607e-07 1.00485e-06 -0.000998976)
(-1.71042e-07 8.81994e-07 -0.000999108)
(-1.39748e-07 7.74389e-07 -0.000999223)
(-1.13731e-07 6.80117e-07 -0.000999323)
(-9.21417e-08 5.97501e-07 -0.000999409)
(-7.42656e-08 5.25082e-07 -0.000999485)
(-5.94989e-08 4.61582e-07 -0.000999551)
(-4.73334e-08 4.05889e-07 -0.000999608)
(-3.73403e-08 3.57031e-07 -0.000999658)
(-2.91594e-08 3.14158e-07 -0.000999701)
(-2.24877e-08 2.76528e-07 -0.000999739)
(-1.70702e-08 2.43493e-07 -0.000999771)
(-1.26926e-08 2.14485e-07 -0.0009998)
(-9.17468e-09 1.89008e-07 -0.000999825)
(-6.3655e-09 1.6663e-07 -0.000999847)
(-4.13884e-09 1.4697e-07 -0.000999866)
(-2.3892e-09 1.29697e-07 -0.000999882)
(-1.02861e-09 1.1452e-07 -0.000999897)
(1.6046e-11 1.01187e-07 -0.000999909)
(8.05473e-10 8.94735e-08 -0.000999921)
(1.38991e-09 7.91865e-08 -0.00099993)
(1.81081e-09 7.01559e-08 -0.000999939)
(2.10224e-09 6.22333e-08 -0.000999946)
(2.29213e-09 5.52891e-08 -0.000999953)
(2.40315e-09 4.92104e-08 -0.000999959)
(2.45364e-09 4.38988e-08 -0.000999964)
(2.45929e-09 3.92682e-08 -0.000999969)
(2.43427e-09 3.52433e-08 -0.000999973)
(2.3897e-09 3.17591e-08 -0.000999977)
(2.33408e-09 2.87596e-08 -0.00099998)
(2.274e-09 2.61972e-08 -0.000999983)
(2.21448e-09 2.40312e-08 -0.000999986)
(2.15918e-09 2.22278e-08 -0.000999988)
(2.11002e-09 2.07597e-08 -0.00099999)
(2.06513e-09 1.9608e-08 -0.000999993)
(2.02961e-09 1.87504e-08 -0.000999995)
(1.98047e-09 1.819e-08 -0.000999997)
(1.84656e-09 1.79505e-08 -0.000999999)
)
;

boundaryField
{
    inlet
    {
        type            zeroGradient;
    }
    outlet
    {
        type            zeroGradient;
    }
    repeat_boundary
    {
        type            slip;
    }
    procBoundary1to0
    {
        type            processor;
        value           nonuniform List<vector> 
180
(
(-3.69129e-10 5.78242e-09 -0.0010001)
(-1.37638e-10 1.0634e-08 -0.0010001)
(-5.8733e-11 1.70577e-08 -0.0010001)
(-2.46368e-11 2.40065e-08 -0.00100011)
(1.42308e-11 3.12957e-08 -0.00100011)
(7.25344e-11 3.89594e-08 -0.00100011)
(1.59275e-10 4.70802e-08 -0.00100012)
(2.81604e-10 5.57525e-08 -0.00100013)
(4.47397e-10 6.50785e-08 -0.00100013)
(6.65494e-10 7.51686e-08 -0.00100014)
(9.45902e-10 8.61429e-08 -0.00100015)
(1.29999e-09 9.81325e-08 -0.00100016)
(1.74072e-09 1.11279e-07 -0.00100017)
(2.28282e-09 1.25738e-07 -0.00100019)
(2.94305e-09 1.4168e-07 -0.00100021)
(3.74295e-09 1.59294e-07 -0.00100022)
(4.70805e-09 1.78791e-07 -0.00100024)
(5.86771e-09 2.00403e-07 -0.00100027)
(7.25567e-09 2.24388e-07 -0.00100029)
(8.91068e-09 2.51032e-07 -0.00100032)
(1.08772e-08 2.80654e-07 -0.00100035)
(1.32064e-08 3.13607e-07 -0.00100039)
(1.59569e-08 3.50285e-07 -0.00100043)
(1.91961e-08 3.9113e-07 -0.00100048)
(2.30014e-08 4.36629e-07 -0.00100053)
(2.74617e-08 4.8733e-07 -0.00100058)
(3.26803e-08 5.43844e-07 -0.00100065)
(3.8781e-08 6.06854e-07 -0.00100072)
(4.59071e-08 6.77126e-07 -0.0010008)
(5.42237e-08 7.55515e-07 -0.00100089)
(6.39215e-08 8.42976e-07 -0.00100099)
(7.52205e-08 9.40582e-07 -0.0010011)
(8.8375e-08 1.04953e-06 -0.00100122)
(1.03679e-07 1.17116e-06 -0.00100136)
(1.21471e-07 1.30698e-06 -0.00100152)
(1.42144e-07 1.45867e-06 -0.00100169)
(1.66151e-07 1.62811e-06 -0.00100189)
(1.94017e-07 1.81744e-06 -0.00100211)
(2.26352e-07 2.02902e-06 -0.00100235)
(2.63862e-07 2.26552e-06 -0.00100262)
(3.07362e-07 2.52992e-06 -0.00100293)
(3.57794e-07 2.82558e-06 -0.00100327)
(4.16248e-07 3.15622e-06 -0.00100366)
(4.83983e-07 3.52606e-06 -0.00100409)
(5.62452e-07 3.93981e-06 -0.00100458)
(6.53335e-07 4.4028e-06 -0.00100512)
(7.58572e-07 4.92098e-06 -0.00100573)
(8.80399e-07 5.50106e-06 -0.00100641)
(1.0214e-06 6.15059e-06 -0.00100718)
(1.18456e-06 6.87808e-06 -0.00100804)
(1.37332e-06 7.6931e-06 -0.00100901)
(1.59165e-06 8.60643e-06 -0.0010101)
(1.84413e-06 9.63024e-06 -0.00101132)
(2.13606e-06 1.07782e-05 -0.00101269)
(2.47354e-06 1.20659e-05 -0.00101423)
(2.86363e-06 1.35108e-05 -0.00101597)
(3.31446e-06 1.51325e-05 -0.00101792)
(3.83542e-06 1.69535e-05 -0.00102011)
(4.43735e-06 1.89991e-05 -0.00102258)
(5.13275e-06 2.12978e-05 -0.00102536)
(5.93608e-06 2.3882e-05 -0.0010285)
(6.864e-06 2.67886e-05 -0.00103203)
(7.93577e-06 3.00592e-05 -0.00103601)
(9.17366e-06 3.37412e-05 -0.0010405)
(1.06034e-05 3.78884e-05 -0.00104556)
(1.22549e-05 4.25619e-05 -0.00105128)
(1.41625e-05 4.78315e-05 -0.00105773)
(1.63662e-05 5.37763e-05 -0.00106503)
(1.89123e-05 6.04868e-05 -0.00107329)
(2.18545e-05 6.80663e-05 -0.00108263)
(2.52551e-05 7.66327e-05 -0.00109321)
(2.91865e-05 8.63211e-05 -0.00110521)
(3.37328e-05 9.72858e-05 -0.00111879)
(3.8992e-05 0.000109703 -0.00113417)
(4.50779e-05 0.00012377 -0.00115183)
(5.21223e-05 0.000139689 -0.00117336)
(6.02623e-05 0.000157479 -0.00120004)
(6.91298e-05 0.000175205 -0.00121553)
(7.6903e-05 0.000185091 -0.00117275)
(7.26124e-05 0.000159643 -0.000987803)
(1.97049e-05 3.55379e-05 -0.00382497)
(-4.84289e-06 -3.33643e-05 3.45566e-05)
(-0.000325209 0.000177884 -0.00444115)
(-5.79336e-05 -1.38142e-05 -0.000619957)
(-0.000450959 -0.000308326 -0.00488787)
(-2.8201e-05 -8.67167e-05 -0.000162776)
(-0.000652003 -0.000516364 -0.00535199)
(-0.000317632 -0.000187405 -0.00424472)
(-3.75754e-05 6.09075e-05 -0.00148003)
(0.000210106 0.000354488 -0.00494291)
(0.000214161 5.77327e-05 -0.00167981)
(0.000758651 -0.000444605 -0.00427634)
(-1.67641e-05 5.07054e-05 -8.07765e-05)
(0.000435287 -0.000228307 -0.00501878)
(8.67913e-05 -0.000222718 -0.00304215)
(3.31586e-05 -0.000104823 -0.00243597)
(0.00022904 -9.53208e-05 -0.00380811)
(0.000189306 -8.20349e-05 -0.0026883)
(-3.46986e-06 -1.29746e-06 -0.00252601)
(-0.000241714 -7.04869e-05 -0.00393224)
(-0.000132271 -7.61755e-05 -0.0018856)
(-0.000105466 -0.000116583 -0.00347158)
(-9.60585e-05 -0.00019165 -0.00279835)
(5.43348e-05 -0.000100244 -0.0011962)
(-4.03631e-05 -5.24201e-05 -0.00180921)
(-8.67485e-05 -6.75455e-05 -0.00109489)
(-8.60696e-05 -7.24784e-05 -0.00108104)
(-7.4517e-05 -6.61793e-05 -0.00108802)
(-6.369e-05 -5.69848e-05 -0.00108015)
(-5.45089e-05 -4.84021e-05 -0.00106782)
(-4.66752e-05 -4.09783e-05 -0.00105701)
(-3.99543e-05 -3.46339e-05 -0.00104807)
(-3.41838e-05 -2.92249e-05 -0.00104054)
(-2.92311e-05 -2.46189e-05 -0.00103413)
(-2.49822e-05 -2.07007e-05 -0.00102868)
(-2.13385e-05 -1.73709e-05 -0.00102405)
(-1.82151e-05 -1.45445e-05 -0.00102013)
(-1.55392e-05 -1.21486e-05 -0.00101679)
(-1.3248e-05 -1.01212e-05 -0.00101396)
(-1.12879e-05 -8.40927e-06 -0.00101156)
(-9.61215e-06 -6.96669e-06 -0.00100954)
(-8.17997e-06 -5.75258e-06 -0.00100785)
(-6.95633e-06 -4.73205e-06 -0.00100643)
(-5.91119e-06 -3.87545e-06 -0.00100525)
(-5.01882e-06 -3.15755e-06 -0.00100427)
(-4.25715e-06 -2.5569e-06 -0.00100345)
(-3.60731e-06 -2.05536e-06 -0.00100276)
(-3.05318e-06 -1.63762e-06 -0.0010022)
(-2.58107e-06 -1.29095e-06 -0.00100172)
(-2.17953e-06 -1.00505e-06 -0.00100132)
(-1.83829e-06 -7.70348e-07 -0.001001)
(-1.54855e-06 -5.7861e-07 -0.00100073)
(-1.30275e-06 -4.2287e-07 -0.00100051)
(-1.09444e-06 -2.97247e-07 -0.00100034)
(-9.18117e-07 -1.96775e-07 -0.0010002)
(-7.69018e-07 -1.17176e-07 -0.00100009)
(-6.42984e-07 -5.46278e-08 -0.00100001)
(-5.36512e-07 -6.02019e-09 -0.000999941)
(-4.46648e-07 3.12006e-08 -0.000999893)
(-3.7089e-07 5.91414e-08 -0.000999858)
(-3.07116e-07 7.95421e-08 -0.000999834)
(-2.53532e-07 9.38412e-08 -0.000999817)
(-2.08606e-07 1.03245e-07 -0.000999806)
(-1.71041e-07 1.08754e-07 -0.000999801)
(-1.39747e-07 1.11181e-07 -0.0009998)
(-1.1373e-07 1.11228e-07 -0.000999802)
(-9.21412e-08 1.09466e-07 -0.000999807)
(-7.42653e-08 1.0636e-07 -0.000999814)
(-5.94987e-08 1.02283e-07 -0.000999822)
(-4.73332e-08 9.75354e-08 -0.000999831)
(-3.73402e-08 9.23543e-08 -0.000999841)
(-2.91593e-08 8.69273e-08 -0.000999851)
(-2.24877e-08 8.14007e-08 -0.00099986)
(-1.70702e-08 7.58876e-08 -0.00099987)
(-1.26926e-08 7.0475e-08 -0.00099988)
(-9.17466e-09 6.5228e-08 -0.000999889)
(-6.36548e-09 6.01941e-08 -0.000999897)
(-4.13883e-09 5.54062e-08 -0.000999906)
(-2.38919e-09 5.08858e-08 -0.000999914)
(-1.0286e-09 4.66455e-08 -0.000999921)
(1.60508e-11 4.26906e-08 -0.000999928)
(8.05477e-10 3.9021e-08 -0.000999934)
(1.38991e-09 3.56324e-08 -0.00099994)
(1.81081e-09 3.25177e-08 -0.000999946)
(2.10225e-09 2.96673e-08 -0.000999951)
(2.29213e-09 2.70704e-08 -0.000999956)
(2.40315e-09 2.47152e-08 -0.000999961)
(2.45364e-09 2.25894e-08 -0.000999965)
(2.45929e-09 2.06813e-08 -0.000999969)
(2.43427e-09 1.89799e-08 -0.000999972)
(2.3897e-09 1.74745e-08 -0.000999976)
(2.33408e-09 1.61549e-08 -0.000999979)
(2.274e-09 1.50115e-08 -0.000999982)
(2.21448e-09 1.40355e-08 -0.000999984)
(2.15919e-09 1.32187e-08 -0.000999987)
(2.11003e-09 1.25536e-08 -0.00099999)
(2.06514e-09 1.20306e-08 -0.000999992)
(2.02962e-09 1.16478e-08 -0.000999994)
(1.98051e-09 1.13684e-08 -0.000999997)
(1.84659e-09 1.10856e-08 -0.000999999)
)
;
    }
    procBoundary1to3
    {
        type            processor;
        value           nonuniform List<vector> 
180
(
(-6.40894e-10 5.51065e-09 -0.000999975)
(-6.40938e-10 1.01307e-08 -0.000999974)
(-8.95713e-10 1.62207e-08 -0.000999972)
(-1.23374e-09 2.27973e-08 -0.00099997)
(-1.59761e-09 2.96839e-08 -0.000999967)
(-1.97624e-09 3.69106e-08 -0.000999964)
(-2.37203e-09 4.45489e-08 -0.000999959)
(-2.78905e-09 5.26818e-08 -0.000999954)
(-3.23273e-09 6.13983e-08 -0.000999947)
(-3.70984e-09 7.07932e-08 -0.00099994)
(-4.229e-09 8.09679e-08 -0.000999931)
(-4.80093e-09 9.20315e-08 -0.000999922)
(-5.43442e-09 1.04104e-07 -0.000999911)
(-6.13951e-09 1.17316e-07 -0.000999899)
(-6.92773e-09 1.31809e-07 -0.000999885)
(-7.81232e-09 1.47739e-07 -0.00099987)
(-8.80846e-09 1.65275e-07 -0.000999852)
(-9.93369e-09 1.84602e-07 -0.000999833)
(-1.12082e-08 2.05924e-07 -0.000999812)
(-1.26554e-08 2.29466e-07 -0.000999788)
(-1.43025e-08 2.55474e-07 -0.000999761)
(-1.61808e-08 2.84219e-07 -0.000999732)
(-1.83272e-08 3.16001e-07 -0.000999699)
(-2.07843e-08 3.51149e-07 -0.000999662)
(-2.3602e-08 3.90025e-07 -0.000999622)
(-2.68387e-08 4.33029e-07 -0.000999577)
(-3.05626e-08 4.806e-07 -0.000999528)
(-3.48537e-08 5.33218e-07 -0.000999473)
(-3.98055e-08 5.91412e-07 -0.000999412)
(-4.5528e-08 6.55761e-07 -0.000999345)
(-5.21498e-08 7.26902e-07 -0.000999271)
(-5.98222e-08 8.05536e-07 -0.000999189)
(-6.87225e-08 8.92427e-07 -0.000999099)
(-7.90588e-08 9.88417e-07 -0.000998999)
(-9.10755e-08 1.09442e-06 -0.000998889)
(-1.05059e-07 1.21145e-06 -0.000998768)
(-1.21345e-07 1.34061e-06 -0.000998635)
(-1.40326e-07 1.48308e-06 -0.000998488)
(-1.62464e-07 1.64018e-06 -0.000998327)
(-1.88298e-07 1.81334e-06 -0.00099815)
(-2.18446e-07 2.00409e-06 -0.000997956)
(-2.53595e-07 2.21415e-06 -0.000997742)
(-2.9455e-07 2.44538e-06 -0.000997507)
(-3.42243e-07 2.69978e-06 -0.00099725)
(-3.97766e-07 2.97953e-06 -0.000996968)
(-4.62392e-07 3.28699e-06 -0.000996659)
(-5.37609e-07 3.6247e-06 -0.000996321)
(-6.25152e-07 3.99539e-06 -0.000995952)
(-7.27055e-07 4.40199e-06 -0.000995549)
(-8.45693e-07 4.84764e-06 -0.000995111)
(-9.8385e-07 5.3357e-06 -0.000994634)
(-1.14478e-06 5.86971e-06 -0.000994117)
(-1.33231e-06 6.45344e-06 -0.000993558)
(-1.5509e-06 7.09083e-06 -0.000992953)
(-1.80581e-06 7.786e-06 -0.000992302)
(-2.10319e-06 8.54323e-06 -0.000991602)
(-2.45026e-06 9.36692e-06 -0.000990854)
(-2.85548e-06 1.02615e-05 -0.000990056)
(-3.32881e-06 1.12316e-05 -0.000989208)
(-3.88192e-06 1.22814e-05 -0.000988314)
(-4.52853e-06 1.34153e-05 -0.000987375)
(-5.28473e-06 1.46372e-05 -0.000986396)
(-6.16949e-06 1.59506e-05 -0.000985384)
(-7.20502e-06 1.73584e-05 -0.000984349)
(-8.41735e-06 1.88625e-05 -0.000983303)
(-9.837e-06 2.04637e-05 -0.000982261)
(-1.14997e-05 2.21613e-05 -0.000981244)
(-1.34476e-05 2.39526e-05 -0.00098028)
(-1.57297e-05 2.58325e-05 -0.000979401)
(-1.84039e-05 2.77926e-05 -0.000978651)
(-2.15381e-05 2.98204e-05 -0.000978083)
(-2.5212e-05 3.18989e-05 -0.000977759)
(-2.95191e-05 3.40046e-05 -0.000977743)
(-3.45683e-05 3.61063e-05 -0.000978129)
(-4.04862e-05 3.81606e-05 -0.000979329)
(-4.74094e-05 4.01036e-05 -0.000982466)
(-5.52951e-05 4.1835e-05 -0.00098667)
(-6.31127e-05 4.3153e-05 -0.000976063)
(-6.57787e-05 4.29294e-05 -0.000914991)
(-5.0389e-05 3.74758e-05 -0.000860019)
(-8.00207e-06 4.9528e-06 -0.00288254)
(3.98848e-05 -4.29252e-06 1.08085e-05)
(3.37203e-05 0.000505028 -0.00387902)
(4.04892e-05 8.52827e-06 -4.36616e-05)
(-0.000139351 -7.96761e-05 -0.00406315)
(-3.87652e-05 1.69771e-05 -0.00399663)
(2.02535e-05 -9.4183e-06 -0.000518997)
(-0.000376095 -0.000254231 -0.00375774)
(-0.000420949 -0.000205415 -0.00386401)
(-5.81072e-05 -3.26492e-05 -0.000265134)
(-0.000395495 -0.000766747 -0.00318724)
(0.000249846 -0.000302166 -0.00381767)
(1.12506e-05 -4.25163e-05 -0.000712248)
(-0.000171241 -0.000662949 -0.00456603)
(-0.000114539 -0.000840703 -0.00356588)
(-6.39313e-05 -3.66385e-05 -0.000172362)
(-8.27521e-05 -0.000847229 -0.00535648)
(-5.91749e-05 -1.46431e-05 -2.49972e-05)
(-0.000332321 -0.00034299 -0.00548734)
(-7.08287e-05 4.63211e-05 -0.00141161)
(0.000414573 0.000446375 -0.00459345)
(-7.47099e-06 9.87468e-06 -0.000254545)
(5.29406e-05 -0.000103399 -0.00379291)
(0.000118984 -0.000100154 -0.00149176)
(0.000142782 1.43464e-05 -0.00139049)
(0.000135709 0.000100042 -0.00127216)
(0.000120168 0.000117968 -0.00119956)
(0.0001045 0.000109713 -0.00116996)
(9.05692e-05 9.67835e-05 -0.00115058)
(7.84546e-05 8.44951e-05 -0.00113203)
(6.79574e-05 7.36457e-05 -0.00111514)
(5.88631e-05 6.41818e-05 -0.0011004)
(5.09829e-05 5.59411e-05 -0.00108759)
(4.41549e-05 4.87666e-05 -0.00107643)
(3.82388e-05 4.25199e-05 -0.00106671)
(3.31132e-05 3.70805e-05 -0.00105823)
(2.86729e-05 3.23433e-05 -0.00105084)
(2.48268e-05 2.82172e-05 -0.00104439)
(2.1496e-05 2.46227e-05 -0.00103877)
(1.86122e-05 2.14907e-05 -0.00103386)
(1.6116e-05 1.87614e-05 -0.00102959)
(1.39552e-05 1.63825e-05 -0.00102586)
(1.20844e-05 1.43086e-05 -0.0010226)
(1.04645e-05 1.25002e-05 -0.00101976)
(9.06191e-06 1.09231e-05 -0.00101728)
(7.8472e-06 9.54742e-06 -0.00101511)
(6.79518e-06 8.3471e-06 -0.00101322)
(5.88404e-06 7.29957e-06 -0.00101157)
(5.09504e-06 6.38515e-06 -0.00101013)
(4.41224e-06 5.5867e-06 -0.00100886)
(3.82139e-06 4.88933e-06 -0.00100776)
(3.31014e-06 4.28007e-06 -0.0010068)
(2.86776e-06 3.74764e-06 -0.00100596)
(2.48502e-06 3.28221e-06 -0.00100522)
(2.15391e-06 2.87525e-06 -0.00100458)
(1.86746e-06 2.5193e-06 -0.00100402)
(1.61955e-06 2.2079e-06 -0.00100352)
(1.40491e-06 1.9354e-06 -0.00100309)
(1.21904e-06 1.69689e-06 -0.00100271)
(1.05804e-06 1.48807e-06 -0.00100238)
(9.18572e-07 1.30523e-06 -0.00100209)
(7.97726e-07 1.1451e-06 -0.00100184)
(6.92993e-07 1.00484e-06 -0.00100161)
(6.02197e-07 8.81991e-07 -0.00100142)
(5.23458e-07 7.74387e-07 -0.00100125)
(4.55157e-07 6.80115e-07 -0.0010011)
(3.95893e-07 5.975e-07 -0.00100096)
(3.44456e-07 5.25081e-07 -0.00100085)
(2.99799e-07 4.61581e-07 -0.00100075)
(2.6102e-07 4.05889e-07 -0.00100066)
(2.27336e-07 3.57031e-07 -0.00100058)
(1.98071e-07 3.14158e-07 -0.00100051)
(1.7264e-07 2.76528e-07 -0.00100045)
(1.50535e-07 2.43493e-07 -0.00100039)
(1.31317e-07 2.14484e-07 -0.00100035)
(1.14605e-07 1.89008e-07 -0.0010003)
(1.0007e-07 1.66629e-07 -0.00100027)
(8.74247e-08 1.4697e-07 -0.00100024)
(7.64218e-08 1.29697e-07 -0.00100021)
(6.68463e-08 1.1452e-07 -0.00100018)
(5.85122e-08 1.01187e-07 -0.00100016)
(5.1258e-08 8.94735e-08 -0.00100014)
(4.4944e-08 7.91865e-08 -0.00100012)
(3.9449e-08 7.01559e-08 -0.00100011)
(3.46682e-08 6.22333e-08 -0.0010001)
(3.05109e-08 5.52891e-08 -0.00100008)
(2.68984e-08 4.92104e-08 -0.00100007)
(2.3763e-08 4.38988e-08 -0.00100006)
(2.10462e-08 3.92682e-08 -0.00100006)
(1.86977e-08 3.52433e-08 -0.00100005)
(1.66743e-08 3.17591e-08 -0.00100004)
(1.49388e-08 2.87596e-08 -0.00100004)
(1.34597e-08 2.61972e-08 -0.00100003)
(1.22103e-08 2.40312e-08 -0.00100003)
(1.11683e-08 2.22278e-08 -0.00100002)
(1.03161e-08 2.07597e-08 -0.00100002)
(9.64254e-09 1.9608e-08 -0.00100001)
(9.13217e-09 1.87504e-08 -0.00100001)
(8.80209e-09 1.819e-08 -0.00100001)
(8.71146e-09 1.79505e-08 -0.001)
)
;
    }
}


// ************************************************************************* //
