/*--------------------------------*- C++ -*----------------------------------*\
| =========                 |                                                 |
| \\      /  F ield         | OpenFOAM: The Open Source CFD Toolbox           |
|  \\    /   O peration     | Version:  5.x                                   |
|   \\  /    A nd           | Web:      www.OpenFOAM.org                      |
|    \\/     M anipulation  |                                                 |
\*---------------------------------------------------------------------------*/
FoamFile
{
    version     2.0;
    format      ascii;
    class       volScalarField;
    location    "0.007";
    object      p;
}
// * * * * * * * * * * * * * * * * * * * * * * * * * * * * * * * * * * * * * //

dimensions      [0 2 -2 0 0 0 0];

internalField   nonuniform List<scalar> 
180
(
-4.56876e-09
-1.31803e-08
-2.12088e-08
-2.94322e-08
-3.8042e-08
-4.69032e-08
-5.59424e-08
-6.5059e-08
-7.41594e-08
-8.31655e-08
-9.202e-08
-1.00686e-07
-1.09146e-07
-1.17393e-07
-1.25429e-07
-1.33257e-07
-1.40872e-07
-1.48262e-07
-1.55398e-07
-1.62236e-07
-1.68711e-07
-1.74735e-07
-1.80201e-07
-1.84979e-07
-1.88915e-07
-1.91835e-07
-1.93541e-07
-1.9381e-07
-1.92396e-07
-1.89022e-07
-1.83383e-07
-1.75136e-07
-1.63899e-07
-1.49238e-07
-1.30665e-07
-1.07626e-07
-7.94883e-08
-4.55268e-08
-4.91077e-09
4.3316e-08
1.00255e-07
1.6718e-07
2.4556e-07
3.371e-07
4.43776e-07
5.67883e-07
7.1209e-07
8.79503e-07
1.07374e-06
1.29903e-06
1.5603e-06
1.86332e-06
2.21482e-06
2.62269e-06
3.09617e-06
3.64608e-06
4.28508e-06
5.02806e-06
5.89244e-06
6.89869e-06
8.07088e-06
9.43731e-06
1.10313e-05
1.28921e-05
1.5066e-05
1.76078e-05
2.0582e-05
2.40646e-05
2.81443e-05
3.29274e-05
3.85411e-05
4.51371e-05
5.28973e-05
6.20338e-05
7.27745e-05
8.53669e-05
0.000100283
0.000118768
0.000142387
0.00017015
0.000108269
0.000884636
0.00109262
0.00116137
0.00173477
0.00228815
0.002693
0.00353288
0.00620918
0.00773044
0.0081907
0.00978376
0.0100979
0.0102961
0.0113454
0.0122378
0.0133258
0.0138389
0.0147827
0.0187873
0.019876
0.0200351
0.020127
0.0201642
0.020182
0.0201804
0.02018
0.0201811
0.0201823
0.0201832
0.0201841
0.0201848
0.0201855
0.0201861
0.0201866
0.0201871
0.0201875
0.0201878
0.0201882
0.0201884
0.0201887
0.0201889
0.0201891
0.0201892
0.0201894
0.0201895
0.0201896
0.0201897
0.0201898
0.0201898
0.0201899
0.0201899
0.02019
0.02019
0.0201901
0.0201901
0.0201901
0.0201901
0.0201902
0.0201902
0.0201902
0.0201902
0.0201902
0.0201903
0.0201903
0.0201903
0.0201903
0.0201903
0.0201903
0.0201903
0.0201903
0.0201903
0.0201903
0.0201903
0.0201903
0.0201903
0.0201903
0.0201903
0.0201904
0.0201904
0.0201904
0.0201904
0.0201904
0.0201904
0.0201904
0.0201904
0.0201904
0.0201904
0.0201904
0.0201904
0.0201904
0.0201904
0.0201904
0.0201904
0.0201904
0.0201904
0.0201904
0.0201904
0.0201904
0.0201904
)
;

boundaryField
{
    inlet
    {
        type            zeroGradient;
    }
    outlet
    {
        type            fixedValue;
        value           uniform 0;
    }
    repeat_boundary
    {
        type            zeroGradient;
    }
    procBoundary3to1
    {
        type            processor;
        value           nonuniform List<scalar> 
180
(
-4.55471e-09
-1.31978e-08
-2.13203e-08
-2.96471e-08
-3.83458e-08
-4.73082e-08
-5.64763e-08
-6.57663e-08
-7.51073e-08
-8.44489e-08
-9.37668e-08
-1.03063e-07
-1.12363e-07
-1.21709e-07
-1.31158e-07
-1.40771e-07
-1.50607e-07
-1.60721e-07
-1.71157e-07
-1.81947e-07
-1.93105e-07
-2.04629e-07
-2.16501e-07
-2.28686e-07
-2.41137e-07
-2.53792e-07
-2.66582e-07
-2.79431e-07
-2.92262e-07
-3.04999e-07
-3.17568e-07
-3.2991e-07
-3.41972e-07
-3.53724e-07
-3.65151e-07
-3.76267e-07
-3.87112e-07
-3.9776e-07
-4.08322e-07
-4.18954e-07
-4.29858e-07
-4.41296e-07
-4.53594e-07
-4.6716e-07
-4.82488e-07
-5.00181e-07
-5.2096e-07
-5.45688e-07
-5.75404e-07
-6.11411e-07
-6.55301e-07
-7.09023e-07
-7.74964e-07
-8.56054e-07
-9.55886e-07
-1.07886e-06
-1.23039e-06
-1.41708e-06
-1.64704e-06
-1.93018e-06
-2.27864e-06
-2.70724e-06
-3.23405e-06
-3.88106e-06
-4.67492e-06
-5.64777e-06
-6.83816e-06
-8.29176e-06
-1.00659e-05
-1.22308e-05
-1.48713e-05
-1.80899e-05
-2.20094e-05
-2.67817e-05
-3.26089e-05
-3.97564e-05
-4.84201e-05
-5.82881e-05
-6.8837e-05
-8.32044e-05
-0.000193656
8.04228e-05
0.000197107
1.72947e-05
0.00322231
0.004208
0.00491187
0.00532795
0.00566055
0.00680483
0.00903945
0.0111681
0.0127768
0.013128
0.0136909
0.0149329
0.0152483
0.0160859
0.0167287
0.0178165
0.0194295
0.0198461
0.0200441
0.0201663
0.0202016
0.0202051
0.0202007
0.0201984
0.0201973
0.0201964
0.0201955
0.0201947
0.020194
0.0201934
0.0201929
0.0201925
0.0201921
0.0201918
0.0201915
0.0201913
0.0201911
0.0201909
0.0201908
0.0201907
0.0201906
0.0201905
0.0201905
0.0201904
0.0201904
0.0201903
0.0201903
0.0201903
0.0201903
0.0201903
0.0201903
0.0201903
0.0201903
0.0201903
0.0201903
0.0201903
0.0201903
0.0201903
0.0201903
0.0201903
0.0201903
0.0201903
0.0201903
0.0201903
0.0201903
0.0201903
0.0201903
0.0201903
0.0201903
0.0201903
0.0201903
0.0201904
0.0201904
0.0201904
0.0201904
0.0201904
0.0201904
0.0201904
0.0201904
0.0201904
0.0201904
0.0201904
0.0201904
0.0201904
0.0201904
0.0201904
0.0201904
0.0201904
0.0201904
0.0201904
0.0201904
0.0201904
0.0201904
0.0201904
0.0201904
0.0201904
)
;
    }
    procBoundary3to2
    {
        type            processor;
        value           nonuniform List<scalar> 
180
(
-4.53427e-09
-1.30937e-08
-2.11165e-08
-2.93484e-08
-3.7957e-08
-4.68312e-08
-5.5912e-08
-6.51158e-08
-7.43717e-08
-8.36295e-08
-9.28654e-08
-1.02082e-07
-1.11304e-07
-1.20577e-07
-1.29955e-07
-1.39502e-07
-1.49278e-07
-1.59338e-07
-1.69729e-07
-1.80482e-07
-1.91614e-07
-2.03123e-07
-2.14993e-07
-2.27191e-07
-2.39667e-07
-2.52363e-07
-2.65209e-07
-2.78128e-07
-2.91041e-07
-3.03869e-07
-3.16538e-07
-3.28981e-07
-3.41143e-07
-3.52982e-07
-3.64478e-07
-3.75628e-07
-3.86457e-07
-3.97018e-07
-4.07396e-07
-4.17709e-07
-4.28119e-07
-4.38829e-07
-4.50096e-07
-4.62233e-07
-4.75623e-07
-4.90727e-07
-5.08101e-07
-5.28413e-07
-5.5247e-07
-5.81239e-07
-6.15892e-07
-6.57848e-07
-7.08834e-07
-7.70955e-07
-8.46785e-07
-9.3948e-07
-1.05292e-06
-1.19186e-06
-1.36217e-06
-1.57108e-06
-1.82746e-06
-2.14224e-06
-2.52888e-06
-3.00389e-06
-3.58755e-06
-4.30473e-06
-5.18587e-06
-6.26756e-06
-7.59365e-06
-9.21879e-06
-1.12108e-05
-1.36516e-05
-1.66395e-05
-2.02975e-05
-2.47981e-05
-3.0379e-05
-3.71847e-05
-4.4693e-05
-5.15437e-05
-6.13408e-05
-0.000257056
0.000309269
0.000390114
0.000406677
0.00236717
0.00295281
0.00506125
0.00591636
0.00647803
0.00725391
0.00750766
0.00841054
0.00890261
0.0088694
0.011009
0.0141485
0.0165701
0.0174877
0.0178088
0.0183607
0.0187641
0.0191634
0.0197474
0.0200599
0.0201594
0.0201695
0.0201687
0.0201715
0.020175
0.0201778
0.02018
0.0201819
0.0201834
0.0201847
0.0201857
0.0201866
0.0201873
0.0201879
0.0201884
0.0201887
0.020189
0.0201893
0.0201895
0.0201897
0.0201898
0.0201899
0.02019
0.0201901
0.0201902
0.0201902
0.0201903
0.0201903
0.0201903
0.0201904
0.0201904
0.0201904
0.0201904
0.0201904
0.0201904
0.0201904
0.0201904
0.0201904
0.0201904
0.0201904
0.0201904
0.0201904
0.0201904
0.0201904
0.0201904
0.0201904
0.0201904
0.0201904
0.0201904
0.0201904
0.0201904
0.0201904
0.0201904
0.0201904
0.0201904
0.0201904
0.0201904
0.0201904
0.0201904
0.0201904
0.0201904
0.0201904
0.0201904
0.0201904
0.0201904
0.0201904
0.0201904
0.0201904
0.0201904
0.0201904
0.0201904
0.0201904
0.0201904
0.0201904
0.0201904
0.0201904
)
;
    }
}


// ************************************************************************* //
