/*--------------------------------*- C++ -*----------------------------------*\
| =========                 |                                                 |
| \\      /  F ield         | OpenFOAM: The Open Source CFD Toolbox           |
|  \\    /   O peration     | Version:  5.x                                   |
|   \\  /    A nd           | Web:      www.OpenFOAM.org                      |
|    \\/     M anipulation  |                                                 |
\*---------------------------------------------------------------------------*/
FoamFile
{
    version     2.0;
    format      ascii;
    class       surfaceScalarField;
    location    "0.007";
    object      phi;
}
// * * * * * * * * * * * * * * * * * * * * * * * * * * * * * * * * * * * * * //

dimensions      [0 3 -1 0 0 0 0];

internalField   nonuniform List<scalar> 
179
(
-2.50012e-10
-2.50012e-10
-2.50013e-10
-2.50013e-10
-2.50014e-10
-2.50015e-10
-2.50016e-10
-2.50018e-10
-2.50019e-10
-2.50021e-10
-2.50024e-10
-2.50026e-10
-2.50029e-10
-2.50032e-10
-2.50035e-10
-2.50039e-10
-2.50043e-10
-2.50048e-10
-2.50053e-10
-2.50059e-10
-2.50065e-10
-2.50073e-10
-2.50081e-10
-2.5009e-10
-2.50099e-10
-2.5011e-10
-2.50123e-10
-2.50136e-10
-2.50151e-10
-2.50168e-10
-2.50186e-10
-2.50207e-10
-2.5023e-10
-2.50255e-10
-2.50283e-10
-2.50314e-10
-2.50348e-10
-2.50387e-10
-2.50429e-10
-2.50476e-10
-2.50529e-10
-2.50587e-10
-2.50652e-10
-2.50723e-10
-2.50803e-10
-2.50892e-10
-2.50991e-10
-2.511e-10
-2.51223e-10
-2.51358e-10
-2.51509e-10
-2.51678e-10
-2.51865e-10
-2.52073e-10
-2.52306e-10
-2.52565e-10
-2.52854e-10
-2.53176e-10
-2.53536e-10
-2.53938e-10
-2.54387e-10
-2.5489e-10
-2.55452e-10
-2.56082e-10
-2.56788e-10
-2.5758e-10
-2.58471e-10
-2.59473e-10
-2.60602e-10
-2.61873e-10
-2.63307e-10
-2.64927e-10
-2.66759e-10
-2.68832e-10
-2.71177e-10
-2.73818e-10
-2.76754e-10
-2.7993e-10
-2.83162e-10
-2.8616e-10
-2.87687e-10
-2.87684e-10
-2.98331e-10
-2.98025e-10
-2.93346e-10
-2.89348e-10
-2.82339e-10
-2.761e-10
-2.77763e-10
-2.81943e-10
-2.86088e-10
-2.85886e-10
-3.00885e-10
-2.97661e-10
-2.96781e-10
-2.90063e-10
-2.79252e-10
-2.61483e-10
-2.50183e-10
-2.51017e-10
-2.58423e-10
-2.64881e-10
-2.71286e-10
-2.74297e-10
-2.75355e-10
-2.74351e-10
-2.72685e-10
-2.70869e-10
-2.69091e-10
-2.67423e-10
-2.65885e-10
-2.64475e-10
-2.63184e-10
-2.62004e-10
-2.60926e-10
-2.59941e-10
-2.59042e-10
-2.58222e-10
-2.57474e-10
-2.56793e-10
-2.56172e-10
-2.55606e-10
-2.55092e-10
-2.54623e-10
-2.54197e-10
-2.53809e-10
-2.53457e-10
-2.53136e-10
-2.52845e-10
-2.52581e-10
-2.5234e-10
-2.52122e-10
-2.51924e-10
-2.51744e-10
-2.51581e-10
-2.51433e-10
-2.51298e-10
-2.51176e-10
-2.51065e-10
-2.50965e-10
-2.50874e-10
-2.50792e-10
-2.50717e-10
-2.50649e-10
-2.50588e-10
-2.50532e-10
-2.50482e-10
-2.50436e-10
-2.50394e-10
-2.50357e-10
-2.50323e-10
-2.50292e-10
-2.50264e-10
-2.50239e-10
-2.50216e-10
-2.50195e-10
-2.50176e-10
-2.50159e-10
-2.50144e-10
-2.5013e-10
-2.50117e-10
-2.50105e-10
-2.50095e-10
-2.50086e-10
-2.50077e-10
-2.50069e-10
-2.50062e-10
-2.50056e-10
-2.5005e-10
-2.50044e-10
-2.50039e-10
-2.50035e-10
-2.50031e-10
-2.50027e-10
-2.50023e-10
-2.5002e-10
-2.50017e-10
-2.50013e-10
-2.50011e-10
)
;

boundaryField
{
    inlet
    {
        type            calculated;
        value           uniform -2.50008e-10;
    }
    outlet
    {
        type            calculated;
        value           uniform 2.50012e-10;
    }
    repeat_boundary
    {
        type            calculated;
        value           uniform 0;
    }
    procBoundary3to1
    {
        type            processor;
        value           nonuniform List<scalar> 
180
(
2.47036e-16
3.17695e-16
4.37437e-16
5.84023e-16
7.46881e-16
9.21586e-16
1.10723e-15
1.30469e-15
1.51563e-15
1.74214e-15
1.98654e-15
2.25135e-15
2.53932e-15
2.85342e-15
3.1969e-15
3.57331e-15
3.98652e-15
4.44079e-15
4.94081e-15
5.49172e-15
6.09918e-15
6.76947e-15
7.50948e-15
8.32684e-15
9.23001e-15
1.02283e-14
1.13321e-14
1.25527e-14
1.3903e-14
1.53969e-14
1.705e-14
1.88796e-14
2.09049e-14
2.3147e-14
2.56296e-14
2.83789e-14
3.14239e-14
3.47969e-14
3.85336e-14
4.26738e-14
4.72616e-14
5.23461e-14
5.79816e-14
6.42289e-14
7.11552e-14
7.88355e-14
8.73531e-14
9.68007e-14
1.07282e-13
1.18911e-13
1.31816e-13
1.46141e-13
1.62043e-13
1.79701e-13
1.99315e-13
2.21109e-13
2.45334e-13
2.72272e-13
3.02245e-13
3.35613e-13
3.72784e-13
4.14219e-13
4.60444e-13
5.12056e-13
5.69742e-13
6.34285e-13
7.06589e-13
7.87704e-13
8.78843e-13
9.81391e-13
1.09691e-12
1.22708e-12
1.37346e-12
1.53652e-12
1.71351e-12
1.89398e-12
2.05294e-12
2.14527e-12
2.08968e-12
1.86122e-12
6.73803e-13
-9.33572e-15
7.39921e-12
-3.37328e-13
-2.59111e-12
-3.294e-12
-3.58385e-12
-2.79921e-12
1.42378e-12
1.43608e-12
-9.3097e-13
-9.61425e-13
-9.69143e-12
-5.78268e-12
-2.95172e-12
-5.25056e-12
-5.9049e-12
-5.59861e-12
-3.95147e-12
5.17644e-13
1.80884e-12
2.11175e-12
2.15161e-12
1.30977e-12
1.02513e-12
6.16442e-13
4.77347e-13
4.38246e-13
4.06819e-13
3.69808e-13
3.31154e-13
2.94185e-13
2.60301e-13
2.29917e-13
2.02977e-13
1.79206e-13
1.58261e-13
1.39808e-13
1.23546e-13
1.09208e-13
9.65634e-14
8.54067e-14
7.55598e-14
6.68659e-14
5.91872e-14
5.24035e-14
4.64087e-14
4.11091e-14
3.64231e-14
3.22919e-14
2.86398e-14
2.54019e-14
2.25295e-14
1.99815e-14
1.77219e-14
1.57201e-14
1.39473e-14
1.23773e-14
1.09867e-14
9.75469e-15
8.66297e-15
7.69526e-15
6.83719e-15
6.07636e-15
5.40166e-15
4.80311e-15
4.27198e-15
3.80079e-15
3.38274e-15
3.01196e-15
2.68299e-15
2.39103e-15
2.13182e-15
1.90164e-15
1.69716e-15
1.51546e-15
1.35396e-15
1.21037e-15
1.08266e-15
9.69037e-16
8.67901e-16
7.77905e-16
6.978e-16
6.26457e-16
5.62871e-16
5.06149e-16
4.55495e-16
4.10233e-16
3.69735e-16
3.3342e-16
3.0077e-16
2.71321e-16
2.44664e-16
2.20465e-16
1.98489e-16
1.78688e-16
1.61315e-16
1.46855e-16
1.35547e-16
1.19177e-16
)
;
    }
    procBoundary3to2
    {
        type            processor;
        value           nonuniform List<scalar> 
180
(
-1.02173e-17
-2.3583e-18
7.21391e-18
1.56351e-17
2.29632e-17
2.99125e-17
3.70783e-17
4.48597e-17
5.35419e-17
6.33643e-17
7.45615e-17
8.73812e-17
1.02093e-16
1.18997e-16
1.38416e-16
1.60724e-16
1.86341e-16
2.15797e-16
2.49672e-16
2.88588e-16
3.33247e-16
3.84438e-16
4.43053e-16
5.10096e-16
5.86702e-16
6.74156e-16
7.7392e-16
8.87655e-16
1.01726e-15
1.16491e-15
1.3331e-15
1.52469e-15
1.74299e-15
1.99178e-15
2.2754e-15
2.59886e-15
2.96786e-15
3.38895e-15
3.86965e-15
4.41853e-15
5.04539e-15
5.76144e-15
6.57947e-15
7.51405e-15
8.58179e-15
9.8021e-15
1.11983e-14
1.27963e-14
1.46259e-14
1.67222e-14
1.91268e-14
2.18875e-14
2.50601e-14
2.87102e-14
3.29155e-14
3.77678e-14
4.33747e-14
4.98632e-14
5.73828e-14
6.61089e-14
7.6246e-14
8.80325e-14
1.01746e-13
1.17711e-13
1.3631e-13
1.58001e-13
1.83848e-13
2.1459e-13
2.49605e-13
2.89916e-13
3.37179e-13
3.92757e-13
4.58449e-13
5.36794e-13
6.31422e-13
7.46481e-13
8.83056e-13
1.03078e-12
1.14209e-12
1.13732e-12
8.52937e-13
6.38842e-15
3.24738e-12
3.20272e-14
-2.08856e-12
-7.03985e-13
-3.42466e-12
-3.43979e-12
2.38699e-13
2.74377e-12
5.07616e-12
7.60151e-13
2.46902e-11
2.55846e-12
2.07201e-12
-1.4677e-12
-4.90655e-12
-1.21702e-11
-7.3485e-12
3.1618e-13
5.59712e-12
4.34704e-12
4.25274e-12
1.70201e-12
3.23029e-14
-1.62099e-12
-2.14267e-12
-2.25468e-12
-2.18448e-12
-2.03771e-12
-1.86967e-12
-1.7047e-12
-1.55097e-12
-1.41e-12
-1.28131e-12
-1.16401e-12
-1.05716e-12
-9.59865e-13
-8.71313e-13
-7.90743e-13
-7.1747e-13
-6.50859e-13
-5.90325e-13
-5.3533e-13
-4.85382e-13
-4.40028e-13
-3.98855e-13
-3.61485e-13
-3.27576e-13
-2.96812e-13
-2.68907e-13
-2.43599e-13
-2.2065e-13
-1.99842e-13
-1.8098e-13
-1.63883e-13
-1.48388e-13
-1.34346e-13
-1.21624e-13
-1.10099e-13
-9.9658e-14
-9.02015e-14
-8.16374e-14
-7.38822e-14
-6.68604e-14
-6.05032e-14
-5.47485e-14
-4.95396e-14
-4.48254e-14
-4.05594e-14
-3.66993e-14
-3.32069e-14
-3.00475e-14
-2.71898e-14
-2.46052e-14
-2.2268e-14
-2.01548e-14
-1.82445e-14
-1.6518e-14
-1.4958e-14
-1.35489e-14
-1.22765e-14
-1.11281e-14
-1.00921e-14
-9.15821e-15
-8.31699e-15
-7.56e-15
-6.87964e-15
-6.26908e-15
-5.72217e-15
-5.23342e-15
-4.79788e-15
-4.41115e-15
-4.06931e-15
-3.76887e-15
-3.50679e-15
-3.28071e-15
-3.09054e-15
-2.94302e-15
-2.90148e-15
)
;
    }
}


// ************************************************************************* //
