/*--------------------------------*- C++ -*----------------------------------*\
| =========                 |                                                 |
| \\      /  F ield         | OpenFOAM: The Open Source CFD Toolbox           |
|  \\    /   O peration     | Version:  5.x                                   |
|   \\  /    A nd           | Web:      www.OpenFOAM.org                      |
|    \\/     M anipulation  |                                                 |
\*---------------------------------------------------------------------------*/
FoamFile
{
    version     2.0;
    format      ascii;
    class       volVectorField;
    location    "0.007";
    object      stored_U;
}
// * * * * * * * * * * * * * * * * * * * * * * * * * * * * * * * * * * * * * //

dimensions      [0 1 -1 0 0 0 0];

internalField   nonuniform List<vector> 
180
(
(5.56065e-10 -9.44253e-09 -0.00100007)
(3.30309e-10 -1.21594e-08 -0.00100007)
(9.65397e-11 -1.6672e-08 -0.00100007)
(-8.86129e-11 -2.22574e-08 -0.00100007)
(-2.31182e-10 -2.8489e-08 -0.00100007)
(-3.54775e-10 -3.51821e-08 -0.00100008)
(-4.78706e-10 -4.22963e-08 -0.00100008)
(-6.14421e-10 -4.9862e-08 -0.00100009)
(-7.68023e-10 -5.79409e-08 -0.00100009)
(-9.43135e-10 -6.66093e-08 -0.0010001)
(-1.14249e-09 -7.59522e-08 -0.00100011)
(-1.36865e-09 -8.60618e-08 -0.00100012)
(-1.62429e-09 -9.70383e-08 -0.00100013)
(-1.91241e-09 -1.0899e-07 -0.00100014)
(-2.23646e-09 -1.22036e-07 -0.00100015)
(-2.60051e-09 -1.36305e-07 -0.00100016)
(-3.00943e-09 -1.51939e-07 -0.00100018)
(-3.46914e-09 -1.69093e-07 -0.0010002)
(-3.98685e-09 -1.87939e-07 -0.00100022)
(-4.5714e-09 -2.08666e-07 -0.00100024)
(-5.23351e-09 -2.31482e-07 -0.00100026)
(-5.98615e-09 -2.56618e-07 -0.00100029)
(-6.84481e-09 -2.84328e-07 -0.00100032)
(-7.82786e-09 -3.14894e-07 -0.00100035)
(-8.95688e-09 -3.48627e-07 -0.00100038)
(-1.0257e-08 -3.85872e-07 -0.00100042)
(-1.17572e-08 -4.27009e-07 -0.00100047)
(-1.34907e-08 -4.72459e-07 -0.00100052)
(-1.54953e-08 -5.22688e-07 -0.00100057)
(-1.78138e-08 -5.7821e-07 -0.00100063)
(-2.04941e-08 -6.39592e-07 -0.00100069)
(-2.35901e-08 -7.07463e-07 -0.00100076)
(-2.71621e-08 -7.82514e-07 -0.00100084)
(-3.12773e-08 -8.65511e-07 -0.00100093)
(-3.60103e-08 -9.57299e-07 -0.00100103)
(-4.14447e-08 -1.05881e-06 -0.00100114)
(-4.76734e-08 -1.17107e-06 -0.00100126)
(-5.47999e-08 -1.29522e-06 -0.00100139)
(-6.29401e-08 -1.43252e-06 -0.00100154)
(-7.22233e-08 -1.58434e-06 -0.0010017)
(-8.27943e-08 -1.75222e-06 -0.00100188)
(-9.4815e-08 -1.93786e-06 -0.00100208)
(-1.08467e-07 -2.14311e-06 -0.0010023)
(-1.23953e-07 -2.37004e-06 -0.00100255)
(-1.41499e-07 -2.62093e-06 -0.00100282)
(-1.61361e-07 -2.89828e-06 -0.00100311)
(-1.83819e-07 -3.20488e-06 -0.00100345)
(-2.09189e-07 -3.54379e-06 -0.00100381)
(-2.37822e-07 -3.9184e-06 -0.00100422)
(-2.70109e-07 -4.33243e-06 -0.00100466)
(-3.06482e-07 -4.79001e-06 -0.00100516)
(-3.4742e-07 -5.29565e-06 -0.00100571)
(-3.93452e-07 -5.85436e-06 -0.00100631)
(-4.45161e-07 -6.47164e-06 -0.00100698)
(-5.03189e-07 -7.15354e-06 -0.00100772)
(-5.68241e-07 -7.90672e-06 -0.00100853)
(-6.4109e-07 -8.73851e-06 -0.00100943)
(-7.22585e-07 -9.65698e-06 -0.00101043)
(-8.13655e-07 -1.0671e-05 -0.00101152)
(-9.15317e-07 -1.17903e-05 -0.00101274)
(-1.02868e-06 -1.30255e-05 -0.00101408)
(-1.15496e-06 -1.43885e-05 -0.00101555)
(-1.29548e-06 -1.58921e-05 -0.00101718)
(-1.45166e-06 -1.75505e-05 -0.00101898)
(-1.62504e-06 -1.93791e-05 -0.00102097)
(-1.81731e-06 -2.13951e-05 -0.00102316)
(-2.03024e-06 -2.36171e-05 -0.00102558)
(-2.26614e-06 -2.60661e-05 -0.00102825)
(-2.52801e-06 -2.87649e-05 -0.0010312)
(-2.81881e-06 -3.17378e-05 -0.00103446)
(-3.14217e-06 -3.50105e-05 -0.00103806)
(-3.50456e-06 -3.86072e-05 -0.00104202)
(-3.9198e-06 -4.25407e-05 -0.00104633)
(-4.41781e-06 -4.67828e-05 -0.00105089)
(-5.0547e-06 -5.11898e-05 -0.0010561)
(-5.896e-06 -5.53508e-05 -0.00106397)
(-6.85226e-06 -5.82328e-05 -0.00107597)
(-7.32764e-06 -5.79659e-05 -0.00107652)
(-5.3899e-06 -5.06064e-05 -0.00102473)
(1.57933e-06 -3.15796e-05 -0.00073376)
(1.19922e-05 2.27797e-06 -0.0034554)
(7.11639e-06 -2.25543e-06 -5.75282e-06)
(-5.00714e-05 -0.000230226 -0.00445319)
(4.57898e-06 6.18314e-06 -2.21454e-05)
(0.000155313 0.000310683 -0.0053761)
(2.18583e-06 3.71155e-05 -0.000113873)
(0.000336741 0.000349516 -0.00540375)
(-5.98441e-07 3.54998e-05 -0.000227659)
(-0.000100101 -0.000160588 -0.00500502)
(-8.22162e-05 -7.47671e-05 -0.00124499)
(-0.000362149 4.32916e-05 -0.00604284)
(-1.0233e-05 6.85658e-06 8.54346e-05)
(-0.00149631 0.00084622 -0.00513639)
(-0.000128941 5.45141e-05 -0.000400178)
(-0.00039975 0.000358465 -0.00480954)
(8.72021e-05 0.000157058 -0.00119541)
(0.000658211 0.000349321 -0.00348871)
(0.000574341 0.000294286 -0.00255975)
(0.000380851 0.000193794 -0.0053604)
(-7.27855e-06 -3.9682e-05 -0.000776056)
(-0.000246546 -0.000131218 -0.00338952)
(-0.000256945 -9.28888e-05 -0.00125239)
(-0.000334793 -0.00014152 -0.00171745)
(-0.000131425 -7.71585e-05 -0.00121475)
(-1.57294e-05 -5.55313e-05 -0.00125101)
(5.37121e-05 -3.43839e-05 -0.00111081)
(8.02795e-05 -2.50432e-05 -0.00108174)
(8.68788e-05 -2.06463e-05 -0.00108122)
(8.47113e-05 -1.76883e-05 -0.00107801)
(7.9107e-05 -1.53465e-05 -0.00107158)
(7.25537e-05 -1.33977e-05 -0.00106502)
(6.6079e-05 -1.17381e-05 -0.00105918)
(6.00344e-05 -1.02999e-05 -0.00105395)
(5.44973e-05 -9.0427e-06 -0.00104917)
(4.94539e-05 -7.94115e-06 -0.00104479)
(4.48681e-05 -6.97569e-06 -0.00104079)
(4.07009e-05 -6.12944e-06 -0.00103713)
(3.69153e-05 -5.38756e-06 -0.00103379)
(3.34771e-05 -4.73706e-06 -0.00103075)
(3.03551e-05 -4.16657e-06 -0.00102797)
(2.75205e-05 -3.66614e-06 -0.00102543)
(2.49474e-05 -3.22705e-06 -0.00102312)
(2.26118e-05 -2.84168e-06 -0.00102102)
(2.04921e-05 -2.50335e-06 -0.0010191)
(1.85688e-05 -2.20624e-06 -0.00101735)
(1.68239e-05 -1.94523e-06 -0.00101576)
(1.52411e-05 -1.71587e-06 -0.00101431)
(1.38055e-05 -1.51425e-06 -0.00101299)
(1.25038e-05 -1.33694e-06 -0.00101179)
(1.13236e-05 -1.18096e-06 -0.0010107)
(1.02538e-05 -1.04369e-06 -0.00100971)
(9.28413e-06 -9.22846e-07 -0.00100881)
(8.4054e-06 -8.16426e-07 -0.00100799)
(7.60917e-06 -7.22672e-07 -0.00100724)
(6.88779e-06 -6.4004e-07 -0.00100657)
(6.2343e-06 -5.67176e-07 -0.00100595)
(5.64239e-06 -5.02894e-07 -0.0010054)
(5.10632e-06 -4.46155e-07 -0.00100489)
(4.62087e-06 -3.9605e-07 -0.00100443)
(4.1813e-06 -3.51782e-07 -0.00100401)
(3.78333e-06 -3.12653e-07 -0.00100364)
(3.42304e-06 -2.78051e-07 -0.00100329)
(3.0969e-06 -2.47439e-07 -0.00100298)
(2.80169e-06 -2.20346e-07 -0.0010027)
(2.53451e-06 -1.96356e-07 -0.00100245)
(2.29271e-06 -1.75106e-07 -0.00100221)
(2.07391e-06 -1.56273e-07 -0.001002)
(1.87592e-06 -1.39575e-07 -0.00100181)
(1.69679e-06 -1.24762e-07 -0.00100164)
(1.53474e-06 -1.11613e-07 -0.00100149)
(1.38815e-06 -9.9934e-08 -0.00100134)
(1.25556e-06 -8.95526e-08 -0.00100122)
(1.13565e-06 -8.03171e-08 -0.0010011)
(1.02722e-06 -7.2093e-08 -0.00100099)
(9.29185e-07 -6.47617e-08 -0.0010009)
(8.4057e-07 -5.82186e-08 -0.00100081)
(7.60485e-07 -5.23713e-08 -0.00100073)
(6.88127e-07 -4.71383e-08 -0.00100066)
(6.22771e-07 -4.2448e-08 -0.0010006)
(5.6376e-07 -3.82375e-08 -0.00100054)
(5.10498e-07 -3.44514e-08 -0.00100049)
(4.6245e-07 -3.10414e-08 -0.00100044)
(4.19128e-07 -2.79649e-08 -0.00100039)
(3.80094e-07 -2.51848e-08 -0.00100035)
(3.44951e-07 -2.26687e-08 -0.00100032)
(3.13341e-07 -2.03882e-08 -0.00100029)
(2.8494e-07 -1.83184e-08 -0.00100026)
(2.59457e-07 -1.64376e-08 -0.00100023)
(2.36631e-07 -1.47266e-08 -0.0010002)
(2.16226e-07 -1.31686e-08 -0.00100018)
(1.9803e-07 -1.17487e-08 -0.00100016)
(1.81857e-07 -1.04537e-08 -0.00100014)
(1.67535e-07 -9.27234e-09 -0.00100013)
(1.54917e-07 -8.19534e-09 -0.00100011)
(1.43869e-07 -7.21728e-09 -0.0010001)
(1.34276e-07 -6.33956e-09 -0.00100008)
(1.26053e-07 -5.57514e-09 -0.00100007)
(1.19201e-07 -4.95893e-09 -0.00100006)
(1.14017e-07 -4.47665e-09 -0.00100004)
(1.11258e-07 -4.11525e-09 -0.00100004)
)
;

boundaryField
{
    inlet
    {
        type            calculated;
        value           uniform (1.11258e-07 -4.11525e-09 -0.00100004);
    }
    outlet
    {
        type            calculated;
        value           uniform (5.56065e-10 -9.44253e-09 -0.00100007);
    }
    repeat_boundary
    {
        type            calculated;
        value           nonuniform List<vector> 
360
(
(0 -9.44253e-09 -0.00100007)
(0 -1.21594e-08 -0.00100007)
(0 -1.6672e-08 -0.00100007)
(0 -2.22574e-08 -0.00100007)
(0 -2.8489e-08 -0.00100007)
(0 -3.51821e-08 -0.00100008)
(0 -4.22963e-08 -0.00100008)
(0 -4.9862e-08 -0.00100009)
(0 -5.79409e-08 -0.00100009)
(0 -6.66093e-08 -0.0010001)
(0 -7.59522e-08 -0.00100011)
(0 -8.60618e-08 -0.00100012)
(0 -9.70383e-08 -0.00100013)
(0 -1.0899e-07 -0.00100014)
(0 -1.22036e-07 -0.00100015)
(0 -1.36305e-07 -0.00100016)
(0 -1.51939e-07 -0.00100018)
(0 -1.69093e-07 -0.0010002)
(0 -1.87939e-07 -0.00100022)
(0 -2.08666e-07 -0.00100024)
(0 -2.31482e-07 -0.00100026)
(0 -2.56618e-07 -0.00100029)
(0 -2.84328e-07 -0.00100032)
(0 -3.14894e-07 -0.00100035)
(0 -3.48627e-07 -0.00100038)
(0 -3.85872e-07 -0.00100042)
(0 -4.27009e-07 -0.00100047)
(0 -4.72459e-07 -0.00100052)
(0 -5.22688e-07 -0.00100057)
(0 -5.7821e-07 -0.00100063)
(0 -6.39592e-07 -0.00100069)
(0 -7.07463e-07 -0.00100076)
(0 -7.82514e-07 -0.00100084)
(0 -8.65511e-07 -0.00100093)
(0 -9.57299e-07 -0.00100103)
(0 -1.05881e-06 -0.00100114)
(0 -1.17107e-06 -0.00100126)
(0 -1.29522e-06 -0.00100139)
(0 -1.43252e-06 -0.00100154)
(0 -1.58434e-06 -0.0010017)
(0 -1.75222e-06 -0.00100188)
(0 -1.93786e-06 -0.00100208)
(0 -2.14311e-06 -0.0010023)
(0 -2.37004e-06 -0.00100255)
(0 -2.62093e-06 -0.00100282)
(0 -2.89828e-06 -0.00100311)
(0 -3.20488e-06 -0.00100345)
(0 -3.54379e-06 -0.00100381)
(0 -3.9184e-06 -0.00100422)
(0 -4.33243e-06 -0.00100466)
(0 -4.79001e-06 -0.00100516)
(0 -5.29565e-06 -0.00100571)
(0 -5.85436e-06 -0.00100631)
(0 -6.47164e-06 -0.00100698)
(0 -7.15354e-06 -0.00100772)
(0 -7.90672e-06 -0.00100853)
(0 -8.73851e-06 -0.00100943)
(0 -9.65698e-06 -0.00101043)
(0 -1.0671e-05 -0.00101152)
(0 -1.17903e-05 -0.00101274)
(0 -1.30255e-05 -0.00101408)
(0 -1.43885e-05 -0.00101555)
(0 -1.58921e-05 -0.00101718)
(0 -1.75505e-05 -0.00101898)
(0 -1.93791e-05 -0.00102097)
(0 -2.13951e-05 -0.00102316)
(0 -2.36171e-05 -0.00102558)
(0 -2.60661e-05 -0.00102825)
(0 -2.87649e-05 -0.0010312)
(0 -3.17378e-05 -0.00103446)
(0 -3.50105e-05 -0.00103806)
(0 -3.86072e-05 -0.00104202)
(0 -4.25407e-05 -0.00104633)
(0 -4.67828e-05 -0.00105089)
(0 -5.11898e-05 -0.0010561)
(0 -5.53508e-05 -0.00106397)
(0 -5.82328e-05 -0.00107597)
(0 -5.79659e-05 -0.00107652)
(0 -5.06064e-05 -0.00102473)
(0 -3.15796e-05 -0.00073376)
(0 2.27797e-06 -0.0034554)
(0 -2.25543e-06 -5.75282e-06)
(0 -0.000230226 -0.00445319)
(0 6.18314e-06 -2.21454e-05)
(0 0.000310683 -0.0053761)
(0 3.71155e-05 -0.000113873)
(0 0.000349516 -0.00540375)
(0 3.54998e-05 -0.000227659)
(0 -0.000160588 -0.00500502)
(0 -7.47671e-05 -0.00124499)
(0 4.32916e-05 -0.00604284)
(0 6.85658e-06 8.54346e-05)
(0 0.00084622 -0.00513639)
(0 5.45141e-05 -0.000400178)
(0 0.000358465 -0.00480954)
(0 0.000157058 -0.00119541)
(0 0.000349321 -0.00348871)
(0 0.000294286 -0.00255975)
(0 0.000193794 -0.0053604)
(0 -3.9682e-05 -0.000776056)
(0 -0.000131218 -0.00338952)
(0 -9.28888e-05 -0.00125239)
(0 -0.00014152 -0.00171745)
(0 -7.71585e-05 -0.00121475)
(0 -5.55313e-05 -0.00125101)
(0 -3.43839e-05 -0.00111081)
(0 -2.50432e-05 -0.00108174)
(0 -2.06463e-05 -0.00108122)
(0 -1.76883e-05 -0.00107801)
(0 -1.53465e-05 -0.00107158)
(0 -1.33977e-05 -0.00106502)
(0 -1.17381e-05 -0.00105918)
(0 -1.02999e-05 -0.00105395)
(0 -9.0427e-06 -0.00104917)
(0 -7.94115e-06 -0.00104479)
(0 -6.97569e-06 -0.00104079)
(0 -6.12944e-06 -0.00103713)
(0 -5.38756e-06 -0.00103379)
(0 -4.73706e-06 -0.00103075)
(0 -4.16657e-06 -0.00102797)
(0 -3.66614e-06 -0.00102543)
(0 -3.22705e-06 -0.00102312)
(0 -2.84168e-06 -0.00102102)
(0 -2.50335e-06 -0.0010191)
(0 -2.20624e-06 -0.00101735)
(0 -1.94523e-06 -0.00101576)
(0 -1.71587e-06 -0.00101431)
(0 -1.51425e-06 -0.00101299)
(0 -1.33694e-06 -0.00101179)
(0 -1.18096e-06 -0.0010107)
(0 -1.04369e-06 -0.00100971)
(0 -9.22846e-07 -0.00100881)
(0 -8.16426e-07 -0.00100799)
(0 -7.22672e-07 -0.00100724)
(0 -6.4004e-07 -0.00100657)
(0 -5.67176e-07 -0.00100595)
(0 -5.02894e-07 -0.0010054)
(0 -4.46155e-07 -0.00100489)
(0 -3.9605e-07 -0.00100443)
(0 -3.51782e-07 -0.00100401)
(0 -3.12653e-07 -0.00100364)
(0 -2.78051e-07 -0.00100329)
(0 -2.47439e-07 -0.00100298)
(0 -2.20346e-07 -0.0010027)
(0 -1.96356e-07 -0.00100245)
(0 -1.75106e-07 -0.00100221)
(0 -1.56273e-07 -0.001002)
(0 -1.39575e-07 -0.00100181)
(0 -1.24762e-07 -0.00100164)
(0 -1.11613e-07 -0.00100149)
(0 -9.9934e-08 -0.00100134)
(0 -8.95526e-08 -0.00100122)
(0 -8.03171e-08 -0.0010011)
(0 -7.2093e-08 -0.00100099)
(0 -6.47617e-08 -0.0010009)
(0 -5.82186e-08 -0.00100081)
(0 -5.23713e-08 -0.00100073)
(0 -4.71383e-08 -0.00100066)
(0 -4.2448e-08 -0.0010006)
(0 -3.82375e-08 -0.00100054)
(0 -3.44514e-08 -0.00100049)
(0 -3.10414e-08 -0.00100044)
(0 -2.79649e-08 -0.00100039)
(0 -2.51848e-08 -0.00100035)
(0 -2.26687e-08 -0.00100032)
(0 -2.03882e-08 -0.00100029)
(0 -1.83184e-08 -0.00100026)
(0 -1.64376e-08 -0.00100023)
(0 -1.47266e-08 -0.0010002)
(0 -1.31686e-08 -0.00100018)
(0 -1.17487e-08 -0.00100016)
(0 -1.04537e-08 -0.00100014)
(0 -9.27234e-09 -0.00100013)
(0 -8.19534e-09 -0.00100011)
(0 -7.21728e-09 -0.0010001)
(0 -6.33956e-09 -0.00100008)
(0 -5.57514e-09 -0.00100007)
(0 -4.95893e-09 -0.00100006)
(0 -4.47665e-09 -0.00100004)
(0 -4.11525e-09 -0.00100004)
(5.56065e-10 0 -0.00100007)
(3.30309e-10 0 -0.00100007)
(9.65397e-11 0 -0.00100007)
(-8.86129e-11 0 -0.00100007)
(-2.31182e-10 0 -0.00100007)
(-3.54775e-10 0 -0.00100008)
(-4.78706e-10 0 -0.00100008)
(-6.14421e-10 0 -0.00100009)
(-7.68023e-10 0 -0.00100009)
(-9.43135e-10 0 -0.0010001)
(-1.14249e-09 0 -0.00100011)
(-1.36865e-09 0 -0.00100012)
(-1.62429e-09 0 -0.00100013)
(-1.91241e-09 0 -0.00100014)
(-2.23646e-09 0 -0.00100015)
(-2.60051e-09 0 -0.00100016)
(-3.00943e-09 0 -0.00100018)
(-3.46914e-09 0 -0.0010002)
(-3.98685e-09 0 -0.00100022)
(-4.5714e-09 0 -0.00100024)
(-5.23351e-09 0 -0.00100026)
(-5.98615e-09 0 -0.00100029)
(-6.84481e-09 0 -0.00100032)
(-7.82786e-09 0 -0.00100035)
(-8.95688e-09 0 -0.00100038)
(-1.0257e-08 0 -0.00100042)
(-1.17572e-08 0 -0.00100047)
(-1.34907e-08 0 -0.00100052)
(-1.54953e-08 0 -0.00100057)
(-1.78138e-08 0 -0.00100063)
(-2.04941e-08 0 -0.00100069)
(-2.35901e-08 0 -0.00100076)
(-2.71621e-08 0 -0.00100084)
(-3.12773e-08 0 -0.00100093)
(-3.60103e-08 0 -0.00100103)
(-4.14447e-08 0 -0.00100114)
(-4.76734e-08 0 -0.00100126)
(-5.47999e-08 0 -0.00100139)
(-6.29401e-08 0 -0.00100154)
(-7.22233e-08 0 -0.0010017)
(-8.27943e-08 0 -0.00100188)
(-9.4815e-08 0 -0.00100208)
(-1.08467e-07 0 -0.0010023)
(-1.23953e-07 0 -0.00100255)
(-1.41499e-07 0 -0.00100282)
(-1.61361e-07 0 -0.00100311)
(-1.83819e-07 0 -0.00100345)
(-2.09189e-07 0 -0.00100381)
(-2.37822e-07 0 -0.00100422)
(-2.70109e-07 0 -0.00100466)
(-3.06482e-07 0 -0.00100516)
(-3.4742e-07 0 -0.00100571)
(-3.93452e-07 0 -0.00100631)
(-4.45161e-07 0 -0.00100698)
(-5.03189e-07 0 -0.00100772)
(-5.68241e-07 0 -0.00100853)
(-6.4109e-07 0 -0.00100943)
(-7.22585e-07 0 -0.00101043)
(-8.13655e-07 0 -0.00101152)
(-9.15317e-07 0 -0.00101274)
(-1.02868e-06 0 -0.00101408)
(-1.15496e-06 0 -0.00101555)
(-1.29548e-06 0 -0.00101718)
(-1.45166e-06 0 -0.00101898)
(-1.62504e-06 0 -0.00102097)
(-1.81731e-06 0 -0.00102316)
(-2.03024e-06 0 -0.00102558)
(-2.26614e-06 0 -0.00102825)
(-2.52801e-06 0 -0.0010312)
(-2.81881e-06 0 -0.00103446)
(-3.14217e-06 0 -0.00103806)
(-3.50456e-06 0 -0.00104202)
(-3.9198e-06 0 -0.00104633)
(-4.41781e-06 0 -0.00105089)
(-5.0547e-06 0 -0.0010561)
(-5.896e-06 0 -0.00106397)
(-6.85226e-06 0 -0.00107597)
(-7.32764e-06 0 -0.00107652)
(-5.3899e-06 0 -0.00102473)
(1.57933e-06 0 -0.00073376)
(1.19922e-05 0 -0.0034554)
(7.11639e-06 0 -5.75282e-06)
(-5.00714e-05 0 -0.00445319)
(4.57898e-06 0 -2.21454e-05)
(0.000155313 0 -0.0053761)
(2.18583e-06 0 -0.000113873)
(0.000336741 0 -0.00540375)
(-5.98441e-07 0 -0.000227659)
(-0.000100101 0 -0.00500502)
(-8.22162e-05 0 -0.00124499)
(-0.000362149 0 -0.00604284)
(-1.0233e-05 0 8.54346e-05)
(-0.00149631 0 -0.00513639)
(-0.000128941 0 -0.000400178)
(-0.00039975 0 -0.00480954)
(8.72021e-05 0 -0.00119541)
(0.000658211 0 -0.00348871)
(0.000574341 0 -0.00255975)
(0.000380851 0 -0.0053604)
(-7.27855e-06 0 -0.000776056)
(-0.000246546 0 -0.00338952)
(-0.000256945 0 -0.00125239)
(-0.000334793 0 -0.00171745)
(-0.000131425 0 -0.00121475)
(-1.57294e-05 0 -0.00125101)
(5.37121e-05 0 -0.00111081)
(8.02795e-05 0 -0.00108174)
(8.68788e-05 0 -0.00108122)
(8.47113e-05 0 -0.00107801)
(7.9107e-05 0 -0.00107158)
(7.25537e-05 0 -0.00106502)
(6.6079e-05 0 -0.00105918)
(6.00344e-05 0 -0.00105395)
(5.44973e-05 0 -0.00104917)
(4.94539e-05 0 -0.00104479)
(4.48681e-05 0 -0.00104079)
(4.07009e-05 0 -0.00103713)
(3.69153e-05 0 -0.00103379)
(3.34771e-05 0 -0.00103075)
(3.03551e-05 0 -0.00102797)
(2.75205e-05 0 -0.00102543)
(2.49474e-05 0 -0.00102312)
(2.26118e-05 0 -0.00102102)
(2.04921e-05 0 -0.0010191)
(1.85688e-05 0 -0.00101735)
(1.68239e-05 0 -0.00101576)
(1.52411e-05 0 -0.00101431)
(1.38055e-05 0 -0.00101299)
(1.25038e-05 0 -0.00101179)
(1.13236e-05 0 -0.0010107)
(1.02538e-05 0 -0.00100971)
(9.28413e-06 0 -0.00100881)
(8.4054e-06 0 -0.00100799)
(7.60917e-06 0 -0.00100724)
(6.88779e-06 0 -0.00100657)
(6.2343e-06 0 -0.00100595)
(5.64239e-06 0 -0.0010054)
(5.10632e-06 0 -0.00100489)
(4.62087e-06 0 -0.00100443)
(4.1813e-06 0 -0.00100401)
(3.78333e-06 0 -0.00100364)
(3.42304e-06 0 -0.00100329)
(3.0969e-06 0 -0.00100298)
(2.80169e-06 0 -0.0010027)
(2.53451e-06 0 -0.00100245)
(2.29271e-06 0 -0.00100221)
(2.07391e-06 0 -0.001002)
(1.87592e-06 0 -0.00100181)
(1.69679e-06 0 -0.00100164)
(1.53474e-06 0 -0.00100149)
(1.38815e-06 0 -0.00100134)
(1.25556e-06 0 -0.00100122)
(1.13565e-06 0 -0.0010011)
(1.02722e-06 0 -0.00100099)
(9.29185e-07 0 -0.0010009)
(8.4057e-07 0 -0.00100081)
(7.60485e-07 0 -0.00100073)
(6.88127e-07 0 -0.00100066)
(6.22771e-07 0 -0.0010006)
(5.6376e-07 0 -0.00100054)
(5.10498e-07 0 -0.00100049)
(4.6245e-07 0 -0.00100044)
(4.19128e-07 0 -0.00100039)
(3.80094e-07 0 -0.00100035)
(3.44951e-07 0 -0.00100032)
(3.13341e-07 0 -0.00100029)
(2.8494e-07 0 -0.00100026)
(2.59457e-07 0 -0.00100023)
(2.36631e-07 0 -0.0010002)
(2.16226e-07 0 -0.00100018)
(1.9803e-07 0 -0.00100016)
(1.81857e-07 0 -0.00100014)
(1.67535e-07 0 -0.00100013)
(1.54917e-07 0 -0.00100011)
(1.43869e-07 0 -0.0010001)
(1.34276e-07 0 -0.00100008)
(1.26053e-07 0 -0.00100007)
(1.19201e-07 0 -0.00100006)
(1.14017e-07 0 -0.00100004)
(1.11258e-07 0 -0.00100004)
)
;
    }
    procBoundary3to1
    {
        type            processor;
        value           nonuniform List<vector> 
180
(
(6.5655e-10 -9.4425e-09 -0.000999944)
(5.45926e-10 -1.21594e-08 -0.000999942)
(4.47326e-10 -1.66719e-08 -0.00099994)
(4.08991e-10 -2.22574e-08 -0.000999938)
(4.25176e-10 -2.84889e-08 -0.000999936)
(4.74532e-10 -3.5182e-08 -0.000999934)
(5.39451e-10 -4.22962e-08 -0.00099993)
(6.09794e-10 -4.98619e-08 -0.000999926)
(6.80281e-10 -5.79408e-08 -0.000999921)
(7.47836e-10 -6.66092e-08 -0.000999915)
(8.10021e-10 -7.5952e-08 -0.000999908)
(8.6436e-10 -8.60616e-08 -0.0009999)
(9.08115e-10 -9.70381e-08 -0.000999891)
(9.38221e-10 -1.0899e-07 -0.000999881)
(9.51309e-10 -1.22036e-07 -0.000999869)
(9.43756e-10 -1.36305e-07 -0.000999857)
(9.11755e-10 -1.51938e-07 -0.000999843)
(8.51404e-10 -1.69093e-07 -0.000999827)
(7.58803e-10 -1.87939e-07 -0.000999809)
(6.30151e-10 -2.08665e-07 -0.00099979)
(4.61849e-10 -2.31481e-07 -0.000999768)
(2.5058e-10 -2.56617e-07 -0.000999744)
(-6.60866e-12 -2.84327e-07 -0.000999718)
(-3.12249e-10 -3.14892e-07 -0.000999688)
(-6.68412e-10 -3.48625e-07 -0.000999655)
(-1.07669e-09 -3.85869e-07 -0.000999618)
(-1.53823e-09 -4.27005e-07 -0.000999577)
(-2.05374e-09 -4.72455e-07 -0.000999532)
(-2.62363e-09 -5.22683e-07 -0.000999482)
(-3.2481e-09 -5.78203e-07 -0.000999426)
(-3.92729e-09 -6.39584e-07 -0.000999364)
(-4.6615e-09 -7.07453e-07 -0.000999296)
(-5.45141e-09 -7.82502e-07 -0.00099922)
(-6.29824e-09 -8.65497e-07 -0.000999137)
(-7.20408e-09 -9.57281e-07 -0.000999044)
(-8.17206e-09 -1.05879e-06 -0.000998942)
(-9.20663e-09 -1.17104e-06 -0.000998829)
(-1.03139e-08 -1.29519e-06 -0.000998704)
(-1.15017e-08 -1.43248e-06 -0.000998566)
(-1.27797e-08 -1.58429e-06 -0.000998414)
(-1.41592e-08 -1.75216e-06 -0.000998246)
(-1.56551e-08 -1.93778e-06 -0.00099806)
(-1.72844e-08 -2.14302e-06 -0.000997856)
(-1.90698e-08 -2.36993e-06 -0.00099763)
(-2.10373e-08 -2.62079e-06 -0.000997381)
(-2.32173e-08 -2.89811e-06 -0.000997106)
(-2.5644e-08 -3.20467e-06 -0.000996803)
(-2.83558e-08 -3.54353e-06 -0.000996468)
(-3.13979e-08 -3.91808e-06 -0.000996099)
(-3.48388e-08 -4.33204e-06 -0.000995692)
(-3.87658e-08 -4.78952e-06 -0.000995243)
(-4.32899e-08 -5.29506e-06 -0.000994748)
(-4.85529e-08 -5.85363e-06 -0.000994202)
(-5.47362e-08 -6.47074e-06 -0.0009936)
(-6.20692e-08 -7.15243e-06 -0.000992937)
(-7.08409e-08 -7.90536e-06 -0.000992207)
(-8.14164e-08 -8.73684e-06 -0.000991403)
(-9.42507e-08 -9.65492e-06 -0.000990519)
(-1.09912e-07 -1.06684e-05 -0.000989546)
(-1.29107e-07 -1.17871e-05 -0.000988476)
(-1.52706e-07 -1.30217e-05 -0.0009873)
(-1.81778e-07 -1.43838e-05 -0.000986008)
(-2.17628e-07 -1.58863e-05 -0.000984591)
(-2.61832e-07 -1.75433e-05 -0.000983035)
(-3.16281e-07 -1.93702e-05 -0.000981329)
(-3.832e-07 -2.13842e-05 -0.000979457)
(-4.65142e-07 -2.36037e-05 -0.000977404)
(-5.64925e-07 -2.60495e-05 -0.000975153)
(-6.86413e-07 -2.87442e-05 -0.00097269)
(-8.34594e-07 -3.17118e-05 -0.000969997)
(-1.01641e-06 -3.49764e-05 -0.000967059)
(-1.24347e-06 -3.85583e-05 -0.000963851)
(-1.5395e-06 -4.24584e-05 -0.000960304)
(-1.95747e-06 -4.66146e-05 -0.000956302)
(-2.60993e-06 -5.0799e-05 -0.000952073)
(-3.70166e-06 -5.44004e-05 -0.000949174)
(-5.54902e-06 -5.61196e-05 -0.000949436)
(-8.62648e-06 -5.3561e-05 -0.000941182)
(-1.35633e-05 -4.29052e-05 -0.000889584)
(-2.00311e-05 -2.1109e-05 -0.000676274)
(-1.81736e-05 1.42219e-05 -0.00270374)
(4.85763e-06 6.33074e-06 -1.68006e-05)
(0.000190649 -0.000237844 -0.00275115)
(8.15905e-05 -7.79577e-05 -0.00343118)
(-2.2621e-05 3.61672e-05 -0.000660606)
(-0.000544891 0.000289263 -0.00462036)
(-3.22384e-05 3.61636e-05 -0.000251967)
(-0.000335643 0.0002709 -0.00341777)
(8.5878e-05 -0.000120331 -0.00170099)
(0.000387501 -0.000157923 -0.00390672)
(7.81283e-05 -4.42242e-06 -0.0014566)
(5.13807e-05 2.25596e-05 -0.00432083)
(-7.18551e-06 4.3062e-05 -0.00105956)
(-0.000111207 0.000513485 -0.00439648)
(-4.52814e-06 3.81954e-06 5.01767e-05)
(-0.000264698 0.000479563 -0.00464086)
(-0.00019323 0.000249569 -0.00197184)
(-0.000242861 0.000281666 -0.00219668)
(-0.000215266 0.000330619 -0.00374034)
(-9.10582e-05 -5.09686e-05 -0.00185589)
(-0.000248747 -6.52875e-05 -0.00294761)
(-0.000393309 -9.32649e-05 -0.00257321)
(-9.44712e-05 -6.67069e-05 -0.0018193)
(4.59765e-06 -4.54372e-05 -0.00174194)
(3.09836e-05 -2.80942e-05 -0.00139678)
(7.42479e-05 -1.65359e-05 -0.00125271)
(9.80946e-05 -1.43265e-05 -0.00115049)
(0.00010521 -1.49587e-05 -0.0011293)
(0.000102518 -1.50792e-05 -0.00112298)
(9.54747e-05 -1.42811e-05 -0.00111313)
(8.71465e-05 -1.30012e-05 -0.00110179)
(7.8894e-05 -1.15979e-05 -0.00109133)
(7.12067e-05 -1.02487e-05 -0.00108208)
(6.42056e-05 -9.02087e-06 -0.00107383)
(5.78788e-05 -7.92926e-06 -0.00106642)
(5.21753e-05 -6.96778e-06 -0.00105976)
(4.70369e-05 -6.12363e-06 -0.00105377)
(4.24081e-05 -5.38313e-06 -0.00104838)
(3.8238e-05 -4.73364e-06 -0.00104355)
(3.4481e-05 -4.16392e-06 -0.0010392)
(3.10957e-05 -3.66408e-06 -0.00103529)
(2.80452e-05 -3.22545e-06 -0.00103178)
(2.52962e-05 -2.84043e-06 -0.00102862)
(2.28187e-05 -2.50238e-06 -0.00102577)
(2.05855e-05 -2.20548e-06 -0.00102321)
(1.85725e-05 -1.94464e-06 -0.00102091)
(1.67577e-05 -1.71541e-06 -0.00101884)
(1.51214e-05 -1.51389e-06 -0.00101698)
(1.36459e-05 -1.33666e-06 -0.0010153)
(1.23153e-05 -1.18074e-06 -0.00101379)
(1.11151e-05 -1.04351e-06 -0.00101243)
(1.00325e-05 -9.22708e-07 -0.0010112)
(9.05588e-06 -8.16317e-07 -0.0010101)
(8.17477e-06 -7.22586e-07 -0.0010091)
(7.37977e-06 -6.39972e-07 -0.00100821)
(6.66241e-06 -5.67122e-07 -0.0010074)
(6.01505e-06 -5.02852e-07 -0.00100667)
(5.43081e-06 -4.46122e-07 -0.00100602)
(4.90352e-06 -3.96023e-07 -0.00100543)
(4.42759e-06 -3.51761e-07 -0.0010049)
(3.99799e-06 -3.12636e-07 -0.00100442)
(3.6102e-06 -2.78038e-07 -0.00100398)
(3.26014e-06 -2.47429e-07 -0.00100359)
(2.94412e-06 -2.20338e-07 -0.00100324)
(2.65883e-06 -1.9635e-07 -0.00100293)
(2.40127e-06 -1.75101e-07 -0.00100264)
(2.16875e-06 -1.56269e-07 -0.00100238)
(1.95882e-06 -1.39572e-07 -0.00100215)
(1.7693e-06 -1.24759e-07 -0.00100194)
(1.5982e-06 -1.11611e-07 -0.00100175)
(1.44373e-06 -9.99323e-08 -0.00100158)
(1.30428e-06 -8.95513e-08 -0.00100142)
(1.17839e-06 -8.0316e-08 -0.00100128)
(1.06476e-06 -7.20921e-08 -0.00100116)
(9.62183e-07 -6.47611e-08 -0.00100105)
(8.69601e-07 -5.82181e-08 -0.00100094)
(7.86046e-07 -5.23708e-08 -0.00100085)
(7.10645e-07 -4.71379e-08 -0.00100077)
(6.42613e-07 -4.24477e-08 -0.00100069)
(5.81241e-07 -3.82373e-08 -0.00100062)
(5.25891e-07 -3.44512e-08 -0.00100056)
(4.75987e-07 -3.10412e-08 -0.00100051)
(4.31011e-07 -2.79648e-08 -0.00100046)
(3.90498e-07 -2.51847e-08 -0.00100041)
(3.54026e-07 -2.26686e-08 -0.00100037)
(3.2122e-07 -2.03882e-08 -0.00100033)
(2.91741e-07 -1.83184e-08 -0.0010003)
(2.65286e-07 -1.64376e-08 -0.00100027)
(2.4158e-07 -1.47266e-08 -0.00100024)
(2.20381e-07 -1.31686e-08 -0.00100021)
(2.01471e-07 -1.17487e-08 -0.00100019)
(1.84656e-07 -1.04537e-08 -0.00100017)
(1.69761e-07 -9.27233e-09 -0.00100015)
(1.56637e-07 -8.19534e-09 -0.00100013)
(1.45151e-07 -7.21727e-09 -0.00100012)
(1.35197e-07 -6.33955e-09 -0.0010001)
(1.26703e-07 -5.57514e-09 -0.00100009)
(1.19696e-07 -4.95893e-09 -0.00100007)
(1.14359e-07 -4.47665e-09 -0.00100006)
(1.11302e-07 -4.11525e-09 -0.00100005)
)
;
    }
    procBoundary3to2
    {
        type            processor;
        value           nonuniform List<vector> 
180
(
(5.56066e-10 -9.34205e-09 -0.00100006)
(3.3031e-10 -1.19438e-08 -0.00100006)
(9.65407e-11 -1.63212e-08 -0.00100007)
(-8.86116e-11 -2.17598e-08 -0.00100007)
(-2.3118e-10 -2.78326e-08 -0.00100007)
(-3.54773e-10 -3.43528e-08 -0.00100007)
(-4.78704e-10 -4.12781e-08 -0.00100008)
(-6.14419e-10 -4.86378e-08 -0.00100008)
(-7.68021e-10 -5.64926e-08 -0.00100009)
(-9.43132e-10 -6.49183e-08 -0.0010001)
(-1.14249e-09 -7.39996e-08 -0.0010001)
(-1.36864e-09 -8.38288e-08 -0.00100011)
(-1.62428e-09 -9.45059e-08 -0.00100012)
(-1.9124e-09 -1.0614e-07 -0.00100013)
(-2.23646e-09 -1.18848e-07 -0.00100014)
(-2.6005e-09 -1.32761e-07 -0.00100016)
(-3.00942e-09 -1.48018e-07 -0.00100017)
(-3.46912e-09 -1.64773e-07 -0.00100019)
(-3.98683e-09 -1.83194e-07 -0.00100021)
(-4.57138e-09 -2.03465e-07 -0.00100023)
(-5.23349e-09 -2.25787e-07 -0.00100025)
(-5.98612e-09 -2.50381e-07 -0.00100027)
(-6.84476e-09 -2.7749e-07 -0.0010003)
(-7.82781e-09 -3.07378e-07 -0.00100033)
(-8.95682e-09 -3.40339e-07 -0.00100036)
(-1.02569e-08 -3.76691e-07 -0.0010004)
(-1.17571e-08 -4.1679e-07 -0.00100044)
(-1.34906e-08 -4.61022e-07 -0.00100048)
(-1.54952e-08 -5.09816e-07 -0.00100053)
(-1.78136e-08 -5.63644e-07 -0.00100058)
(-2.04938e-08 -6.23025e-07 -0.00100064)
(-2.35898e-08 -6.88534e-07 -0.0010007)
(-2.71618e-08 -7.60803e-07 -0.00100077)
(-3.12768e-08 -8.40532e-07 -0.00100085)
(-3.60098e-08 -9.28492e-07 -0.00100093)
(-4.14441e-08 -1.02554e-06 -0.00100103)
(-4.76726e-08 -1.1326e-06 -0.00100113)
(-5.47989e-08 -1.25073e-06 -0.00100125)
(-6.29389e-08 -1.38108e-06 -0.00100137)
(-7.22218e-08 -1.52489e-06 -0.00100151)
(-8.27924e-08 -1.68359e-06 -0.00100166)
(-9.48126e-08 -1.8587e-06 -0.00100183)
(-1.08464e-07 -2.05192e-06 -0.00100202)
(-1.23949e-07 -2.26515e-06 -0.00100223)
(-1.41495e-07 -2.50046e-06 -0.00100246)
(-1.61355e-07 -2.76013e-06 -0.00100271)
(-1.83812e-07 -3.0467e-06 -0.00100298)
(-2.0918e-07 -3.36295e-06 -0.00100329)
(-2.37812e-07 -3.71196e-06 -0.00100363)
(-2.70096e-07 -4.09714e-06 -0.001004)
(-3.06465e-07 -4.52226e-06 -0.00100441)
(-3.47399e-07 -4.99149e-06 -0.00100486)
(-3.93425e-07 -5.50942e-06 -0.00100536)
(-4.45128e-07 -6.08116e-06 -0.00100591)
(-5.03148e-07 -6.71234e-06 -0.00100652)
(-5.6819e-07 -7.40922e-06 -0.00100719)
(-6.41026e-07 -8.1787e-06 -0.00100793)
(-7.22505e-07 -9.02847e-06 -0.00100874)
(-8.13555e-07 -9.96702e-06 -0.00100964)
(-9.15191e-07 -1.10038e-05 -0.00101064)
(-1.02852e-06 -1.21492e-05 -0.00101173)
(-1.15476e-06 -1.34148e-05 -0.00101294)
(-1.29523e-06 -1.48136e-05 -0.00101428)
(-1.45134e-06 -1.63598e-05 -0.00101576)
(-1.62464e-06 -1.80693e-05 -0.00101739)
(-1.81681e-06 -1.99596e-05 -0.00101919)
(-2.0296e-06 -2.20503e-05 -0.00102117)
(-2.26533e-06 -2.43627e-05 -0.00102336)
(-2.52696e-06 -2.69204e-05 -0.00102578)
(-2.81744e-06 -2.97496e-05 -0.00102845)
(-3.14033e-06 -3.28788e-05 -0.00103141)
(-3.50207e-06 -3.63348e-05 -0.00103468)
(-3.91672e-06 -4.01325e-05 -0.00103825)
(-4.41572e-06 -4.42397e-05 -0.001042)
(-5.06118e-06 -4.84911e-05 -0.0010462)
(-5.93745e-06 -5.24191e-05 -0.00105271)
(-7.01041e-06 -5.50027e-05 -0.00106356)
(-7.83482e-06 -5.48307e-05 -0.00106511)
(-6.93631e-06 -5.0121e-05 -0.00101589)
(-2.4924e-06 -3.9312e-05 -0.000724989)
(2.36469e-06 -6.2364e-06 -0.00360366)
(-2.94423e-06 8.43277e-06 9.51893e-06)
(-8.15305e-05 2.07729e-05 -0.00422795)
(-2.22611e-06 6.71154e-06 -0.000342732)
(9.82131e-05 -0.000135173 -0.00386641)
(3.94212e-05 -0.000217106 -0.00434681)
(2.00573e-05 -3.63743e-05 -0.000446833)
(0.000350604 -0.0004144 -0.00477256)
(-5.43957e-05 3.66017e-05 -0.00114822)
(-0.000336981 0.000841245 -0.00289375)
(-0.000430934 0.00105479 -0.00318283)
(-0.000166333 0.000216225 -0.000674414)
(-0.00112679 0.00151285 -0.0027618)
(-0.000374668 0.000519015 -0.00282499)
(1.83245e-05 -3.12369e-06 8.01693e-05)
(0.000122061 -3.03391e-05 -0.00552328)
(5.66821e-05 -1.92782e-05 -0.000346426)
(0.000730787 -0.000662134 -0.00270636)
(0.000626573 -0.000518842 -0.00178925)
(5.17843e-06 -0.000318522 -0.00135511)
(-0.000258884 -0.000392894 -0.00228601)
(-0.000151553 -0.00013732 -0.00175513)
(-6.25207e-05 -3.0005e-06 -0.0017618)