/*--------------------------------*- C++ -*----------------------------------*\
| =========                 |                                                 |
| \\      /  F ield         | OpenFOAM: The Open Source CFD Toolbox           |
|  \\    /   O peration     | Version:  5.x                                   |
|   \\  /    A nd           | Web:      www.OpenFOAM.org                      |
|    \\/     M anipulation  |                                                 |
\*---------------------------------------------------------------------------*/
FoamFile
{
    version     2.0;
    format      ascii;
    class       volScalarField;
    location    "400";
    object      p;
}
// * * * * * * * * * * * * * * * * * * * * * * * * * * * * * * * * * * * * * //

dimensions      [0 2 -2 0 0 0 0];

internalField   nonuniform List<scalar> 
90
(
-0.0146594
0.0037361
0.0440532
0.0929923
0.167408
0.239098
0.306917
0.375445
0.444561
0.514442
0.586043
0.658113
0.730118
0.801877
0.872977
0.943252
1.0125
1.08055
1.14728
1.21252
1.27617
1.33812
1.39821
1.45618
1.51183
1.56485
1.615
1.66194
1.70534
1.7448
1.77989
1.81015
1.8351
1.85423
1.86701
1.87294
1.87151
1.86224
1.84472
1.81855
1.78343
1.73912
1.68546
1.62236
1.54981
1.46784
1.37656
1.27609
1.16662
1.04838
0.921555
0.78619
0.642391
0.490475
0.330909
0.164298
-0.00882925
-0.188047
-0.37299
-0.563327
-0.758744
-0.958976
-1.16389
-1.37329
-1.58677
-1.80387
-2.02413
-2.24705
-2.47214
-2.69894
-2.92696
-3.1557
-3.38513
-3.61614
-3.84807
-4.07269
-4.28441
-4.48668
-4.68282
-4.87414
-5.06125
-5.24396
-5.42188
-5.59549
-5.76452
-5.92008
-6.04556
-6.16259
-6.38343
-6.74256
)
;

boundaryField
{
    inlet
    {
        type            zeroGradient;
    }
    outlet
    {
        type            fixedValue;
        value           uniform 0;
    }
    repeat_boundary
    {
        type            zeroGradient;
    }
    procBoundary2to0
    {
        type            processor;
        value           nonuniform List<scalar> 
90
(
0.0136941
0.0530625
0.117005
0.181595
0.247635
0.314458
0.382056
0.450358
0.51868
0.587311
0.65592
0.724401
0.79249
0.859901
0.926312
0.991402
1.05482
1.11619
1.17517
1.23136
1.28441
1.33395
1.3796
1.42106
1.45807
1.4904
1.5178
1.54007
1.55705
1.56863
1.57473
1.57531
1.57037
1.55992
1.54399
1.52262
1.49585
1.46374
1.42629
1.38356
1.33554
1.28224
1.22368
1.15984
1.09072
1.01633
0.936667
0.851739
0.761556
0.666116
0.565385
0.459308
0.347826
0.230791
0.107813
-0.0217453
-0.158549
-0.303223
-0.456334
-0.61831
-0.789366
-0.969509
-1.15854
-1.35603
-1.56138
-1.77382
-1.99248
-2.21646
-2.4448
-2.67658
-2.91094
-3.14708
-3.3843
-3.62204
-3.85974
-4.09693
-4.33354
-4.57008
-4.80707
-5.04481
-5.28358
-5.52359
-5.76468
-6.00593
-6.24721
-6.49378
-6.75529
-7.02194
-7.22545
-7.24598
)
;
    }
    procBoundary2to3
    {
        type            processor;
        value           nonuniform List<scalar> 
90
(
-0.00173122
-9.1872e-05
0.0178053
0.0932396
0.209024
0.303173
0.339551
0.361851
0.412802
0.473063
0.545414
0.643167
0.734858
0.824533
0.911282
0.99542
1.07723
1.15681
1.23418
1.30926
1.38175
1.45142
1.51834
1.58169
1.64133
1.69695
1.74807
1.79463
1.8362
1.87276
1.90408
1.93014
1.95085
1.96614
1.97592
1.97999
1.97808
1.96974
1.95437
1.93118
1.89922
1.85735
1.80437
1.73899
1.66
1.56627
1.4569
1.33124
1.18893
1.02991
0.854516
0.663492
0.457643
0.237759
0.00572422
-0.233885
-0.477101
-0.722716
-0.969859
-1.21788
-1.46608
-1.7137
-1.95983
-2.20365
-2.44449
-2.68163
-2.91431
-3.14171
-3.36301
-3.57738
-3.78419
-3.98279
-4.17195
-4.3502
-4.51919
-4.68792
-4.86227
-5.04041
-5.22042
-5.4009
-5.58067
-5.75877
-5.93428
-6.10624
-6.27381
-6.43756
-6.60019
-6.76066
-6.89855
-6.95523
)
;
    }
}


// ************************************************************************* //
