FoamFile
{version 2.0; format ascii;class Cloud<passiveParticle>; location 0;object  positions;}
43
(
( -452.023 29.0459 99.7537 ) 0 
( -416.733 479.597 99.8653 ) 0 
( -340.644 294.744 99.9026 ) 0 
( -86.7749 441.481 142.369 ) 0 
( -88.3468 53.6262 99.8307 ) 0 
( -498.763 341.604 218.911 ) 0 
( -284.255 445.415 251.395 ) 0 
( -142.12 254.087 99.9088 ) 0 
( -274.93 110.932 142.827 ) 0 
( -448.275 151.983 257.331 ) 0 
( -136.173 106.176 286.604 ) 0 
( -276.051 249.005 287.289 ) 0 
( -27.3965 287.047 260.274 ) 0 
( -310.047 75.5321 380.619 ) 0 
( -422.939 409.569 390.816 ) 0 
( -455.286 203.764 450.281 ) 0 
( -139.964 399.059 381.745 ) 0 
( -280.144 498.593 498.785 ) 0 
( -139.086 388.416 587.824 ) 0 
( -429.316 23.2644 532.286 ) 0 
( -282.347 299.348 480.634 ) 0 
( -108.854 202.131 459.832 ) 0 
( -484.21 421.792 580.602 ) 0 
( -57.9605 60.9467 617.726 ) 0 
( -388.305 225.788 637.403 ) 0 
( -247.301 102.033 568.527 ) 0 
( -313.727 405.357 683.712 ) 0 
( -180.539 231.911 705.087 ) 0 
( -497.717 76.8092 714.092 ) 0 
( -31.4157 385.41 756.263 ) 0 
( -306.459 23.6804 742.715 ) 0 
( -350.896 212.975 833.377 ) 0 
( -209.161 350.855 863.234 ) 0 
( -121.693 71.7191 809.198 ) 0 
( -46.1003 239.32 894.139 ) 0 
( -258.936 103.041 972.793 ) 0 
( -381.257 452.637 865.886 ) 0 
( -483.35 307.42 957.962 ) 0 
( -477.037 110.603 992.683 ) 0 
( -12.1887 108.447 1045.41 ) 0 
( -98.1532 377.858 1028.6 ) 0 
( -298.262 290.094 1031.61 ) 0 
( -146.763 220.462 1142.01 ) 0 
)
