FoamFile
{version 2.0; format ascii;class vectorField; location 0;object  v;}
43
(
( 1.26935e-05 2.53503e-05 6.11251e-06 )  
( 9.4302e-06 1.4075e-05 -3.7113e-06 )  
( 5.8784e-06 2.76863e-06 -2.45096e-06 )  
( 9.42834e-07 -3.87848e-06 4.97747e-05 )  
( 8.33624e-06 -2.22314e-06 9.56531e-06 )  
( 1.98514e-05 4.50036e-05 7.86823e-07 )  
( 4.60861e-05 2.7333e-05 6.29148e-06 )  
( 2.171e-05 2.01106e-05 -7.2522e-06 )  
( 2.72235e-05 5.55998e-06 1.75681e-06 )  
( 2.1538e-05 4.01652e-05 4.45793e-06 )  
( 1.08325e-05 1.71932e-05 1.77539e-05 )  
( 2.22029e-05 2.43141e-05 4.45508e-06 )  
( 4.92502e-05 5.97402e-06 3.57088e-06 )  
( -1.34289e-05 4.44286e-05 4.36638e-05 )  
( 3.63258e-05 3.13559e-05 -1.17617e-05 )  
( -1.1265e-05 3.30393e-05 2.83373e-05 )  
( 3.27952e-05 -2.87028e-05 1.90022e-05 )  
( 3.56565e-05 9.41548e-06 2.04305e-05 )  
( 1.03265e-05 -7.77211e-06 1.93274e-05 )  
( 4.14121e-06 3.78829e-05 5.51435e-06 )  
( 2.14626e-05 9.32619e-06 6.60128e-06 )  
( 1.97765e-05 4.78762e-05 -6.70597e-06 )  
( -1.46528e-06 -1.4967e-05 -4.14416e-05 )  
( -5.8579e-05 5.16894e-07 5.97639e-05 )  
( -4.47709e-05 0.000108782 8.89268e-06 )  
( -7.17217e-05 4.20409e-05 9.76399e-05 )  
( -2.10847e-06 8.25745e-05 -5.97962e-05 )  
( -4.21878e-05 1.52569e-05 7.02403e-05 )  
( 3.71461e-05 9.78965e-06 -5.84759e-05 )  
( -6.98807e-06 3.75121e-05 6.36396e-06 )  
( -8.86945e-05 -8.04616e-05 8.82497e-05 )  
( -2.84385e-05 4.53357e-05 -3.66157e-06 )  
( 3.42206e-06 6.58934e-05 -1.24148e-05 )  
( -5.81865e-05 6.6667e-06 7.12944e-05 )  
( -1.56547e-05 -5.90409e-05 -3.53431e-06 )  
( -1.7326e-05 -2.02187e-05 -2.89376e-05 )  
( 3.9167e-06 4.13067e-05 -8.16483e-05 )  
( 4.51211e-05 -1.35159e-05 -3.40729e-05 )  
( 7.00009e-06 -5.27927e-05 -3.3573e-05 )  
( 4.27246e-05 1.56217e-05 -2.8303e-05 )  
( 2.73759e-05 2.51515e-05 -0.000136647 )  
( 8.57555e-05 6.15587e-05 -6.23847e-05 )  
( -1.11605e-05 5.12993e-06 -5.87966e-05 )  
)
