/*--------------------------------*- C++ -*----------------------------------*\
| =========                 |                                                 |
| \\      /  F ield         | OpenFOAM: The Open Source CFD Toolbox           |
|  \\    /   O peration     | Version:  5.x                                   |
|   \\  /    A nd           | Web:      www.OpenFOAM.org                      |
|    \\/     M anipulation  |                                                 |
\*---------------------------------------------------------------------------*/
FoamFile
{
    version     2.0;
    format      ascii;
    class       volScalarField;
    location    "800";
    object      p;
}
// * * * * * * * * * * * * * * * * * * * * * * * * * * * * * * * * * * * * * //

dimensions      [0 2 -2 0 0 0 0];

internalField   nonuniform List<scalar> 
90
(
6.90884e-11
1.99765e-10
3.10531e-10
3.93077e-10
4.42167e-10
4.58322e-10
4.48331e-10
4.25074e-10
4.06654e-10
4.14943e-10
4.73796e-10
6.07303e-10
8.38465e-10
1.18871e-09
1.67861e-09
2.33005e-09
3.16989e-09
4.23645e-09
5.58717e-09
7.30755e-09
9.52084e-09
1.24051e-08
1.62202e-08
2.1456e-08
2.84248e-08
3.77125e-08
5.00923e-08
6.65704e-08
8.84705e-08
1.17544e-07
1.56042e-07
2.06697e-07
2.73444e-07
3.65396e-07
5.01604e-07
6.84781e-07
7.60022e-07
4.84402e-07
4.70296e-06
-7.41385e-06
1.16333e-05
0.000552807
0.00125045
0.00211742
0.00315986
0.00397562
0.00470244
0.00542995
0.0062358
0.00718423
0.00791481
0.00848242
0.00859376
0.00859316
0.00859142
0.00859034
0.00858959
0.00858902
0.0085886
0.00858827
0.00858803
0.00858785
0.00858771
0.00858761
0.00858754
0.00858748
0.00858743
0.0085874
0.00858738
0.00858736
0.00858734
0.00858733
0.00858732
0.00858732
0.00858731
0.00858731
0.0085873
0.0085873
0.0085873
0.0085873
0.0085873
0.0085873
0.00858729
0.00858729
0.00858729
0.00858729
0.00858729
0.00858729
0.00858729
0.00858729
)
;

boundaryField
{
    inlet
    {
        type            zeroGradient;
    }
    outlet
    {
        type            fixedValue;
        value           uniform 0;
    }
    repeat_boundary
    {
        type            zeroGradient;
    }
    procBoundary3to1
    {
        type            processor;
        value           nonuniform List<scalar> 
90
(
1.67786e-10
4.84495e-10
7.51109e-10
9.40407e-10
1.03375e-09
1.02302e-09
9.11075e-10
7.1077e-10
4.42666e-10
1.3175e-10
-1.96413e-10
-5.19698e-10
-8.22682e-10
-1.09832e-09
-1.34683e-09
-1.569e-09
-1.7956e-09
-2.04881e-09
-2.34937e-09
-2.71414e-09
-3.15372e-09
-3.67796e-09
-4.31231e-09
-5.23515e-09
-6.35833e-09
-7.75964e-09
-9.57025e-09
-1.19749e-08
-1.52215e-08
-1.96312e-08
-2.56977e-08
-3.44064e-08
-4.68939e-08
-5.9772e-08
-5.83114e-08
-5.23323e-08
-2.65903e-07
-9.08383e-07
3.74741e-06
-1.24397e-05
1.31125e-05
0.000591512
0.00134683
0.00217306
0.00299075
0.00392887
0.00493077
0.00569981
0.00634209
0.00710756
0.00782125
0.00847918
0.00858816
0.0085864
0.00858634
0.00858659
0.00858677
0.0085869
0.008587
0.00858707
0.00858712
0.00858717
0.0085872
0.00858722
0.00858724
0.00858725
0.00858727
0.00858727
0.00858728
0.00858728
0.00858729
0.00858729
0.00858729
0.00858729
0.00858729
0.00858729
0.00858729
0.00858729
0.00858729
0.00858729
0.00858729
0.00858729
0.00858729
0.00858729
0.00858729
0.00858729
0.00858729
0.00858729
0.00858729
0.00858729
)
;
    }
    procBoundary3to2
    {
        type            processor;
        value           nonuniform List<scalar> 
90
(
1.85829e-10
5.43006e-10
8.5287e-10
1.09e-09
1.23824e-09
1.29232e-09
1.25841e-09
1.15327e-09
1.00209e-09
8.35435e-10
6.85745e-10
5.83928e-10
5.56683e-10
6.25053e-10
8.04668e-10
1.10791e-09
1.54818e-09
2.14449e-09
2.92758e-09
3.94628e-09
5.27364e-09
7.01239e-09
9.29969e-09
1.23114e-08
1.62618e-08
2.14178e-08
2.8112e-08
3.67656e-08
4.79279e-08
6.23273e-08
8.08415e-08
1.04259e-07
1.33811e-07
1.76349e-07
2.52094e-07
3.6022e-07
2.56647e-07
-2.70195e-07
5.06426e-06
-1.24154e-05
1.59343e-05
0.000701452
0.00141265
0.00212868
0.00293961
0.00377774
0.00454558
0.00526688
0.00610745
0.00697613
0.00772957
0.00842002
0.00858487
0.00859026
0.00858786
0.00858783
0.00858773
0.00858764
0.00858756
0.0085875
0.00858746
0.00858742
0.00858739
0.00858737
0.00858735
0.00858734
0.00858733
0.00858732
0.00858732
0.00858731
0.00858731
0.00858731
0.0085873
0.0085873
0.0085873
0.0085873
0.0085873
0.0085873
0.00858729
0.00858729
0.00858729
0.00858729
0.00858729
0.00858729
0.00858729
0.00858729
0.00858729
0.00858729
0.00858729
0.00858729
)
;
    }
}


// ************************************************************************* //
