/*--------------------------------*- C++ -*----------------------------------*\
| =========                 |                                                 |
| \\      /  F ield         | OpenFOAM: The Open Source CFD Toolbox           |
|  \\    /   O peration     | Version:  5.x                                   |
|   \\  /    A nd           | Web:      www.OpenFOAM.org                      |
|    \\/     M anipulation  |                                                 |
\*---------------------------------------------------------------------------*/
FoamFile
{
    version     2.0;
    format      ascii;
    class       volVectorField;
    location    "4000";
    object      stored_U;
}
// * * * * * * * * * * * * * * * * * * * * * * * * * * * * * * * * * * * * * //

dimensions      [0 1 -1 0 0 0 0];

internalField   nonuniform List<vector> 
180
(
(9.08494e-05 0.00509984 11.1471)
(0.0805037 0.0970699 13.3639)
(0.134802 0.165766 13.0092)
(0.113024 0.16463 12.6791)
(0.0131886 0.0936255 12.4404)
(-0.182639 -0.070572 12.9607)
(0.00821683 0.0873802 11.5338)
(-0.0929648 0.0345617 12.7223)
(-0.11839 0.0402895 12.7519)
(-0.312007 -0.086987 12.7774)
(-0.195591 -0.0209058 11.3991)
(-0.0331243 0.140769 12.5329)
(0.0174295 0.227075 12.6532)
(-0.171819 0.18197 12.2211)
(-0.411774 0.0420455 12.7314)
(-0.00168002 0.244079 11.4592)
(-0.194645 0.128188 12.4663)
(-0.330522 0.0459556 12.4967)
(-0.640766 -0.0412478 12.3963)
(-0.375588 0.152554 11.7687)
(0.0204279 0.329923 11.9126)
(0.260407 0.48731 11.9401)
(0.270428 0.598521 12.1086)
(0.259187 0.626799 11.8117)
(0.510074 0.638489 12.2298)
(0.482533 0.667161 12.5111)
(0.0179481 0.671726 12.3414)
(-0.295273 0.694861 12.8623)
(-0.317068 0.340075 11.4701)
(-0.281739 0.409469 13.162)
(-0.287804 0.0228378 11.8808)
(-0.131965 0.358912 12.5048)
(-0.264314 0.494345 12.7011)
(-0.0335971 0.539657 12.7616)
(0.393895 1.18883 12.0358)
(0.0993958 0.650416 13.4432)
(0.236974 0.628528 11.7687)
(0.043039 0.535688 13.0503)
(-0.119488 0.707241 12.9118)
(-0.155384 0.32082 12.2956)
(-0.0900469 0.162297 12.8321)
(0.0490275 0.346831 12.761)
(0.0797358 0.00295433 12.1943)
(0.108595 -0.0649999 12.563)
(-0.0252202 -0.190695 12.0618)
(-0.0457292 -0.18263 12.4704)
(-0.179369 -0.200466 12.5665)
(-0.649009 -0.406579 12.2405)
(-1.02286 -0.609587 12.3981)
(-0.825482 -0.624989 11.6213)
(-0.524511 -0.657358 11.5389)
(-0.170063 -0.594308 11.6383)
(0.0721761 -0.465949 11.5608)
(0.175387 -0.384209 11.4875)
(0.255287 -0.323132 11.4693)
(0.278169 -0.272251 11.4706)
(0.30724 -0.22749 11.4986)
(0.251453 -0.186893 11.5254)
(0.148067 -0.149073 11.5392)
(0.0292078 -0.114113 11.5341)
(-0.0960404 -0.0820115 11.5109)
(-0.238274 -0.0532364 11.4652)
(-0.361168 -0.0280027 11.4039)
(-0.427119 -0.00609656 11.3386)
(-0.428917 0.0134618 11.2602)
(-0.355526 0.029989 11.1904)
(-0.303638 0.045936 11.1226)
(-0.268487 0.0620806 11.0991)
(-0.334403 0.0866208 11.017)
(-0.217677 0.0817521 11.1288)
(0.0230227 0.0929842 10.6467)
(-0.233939 0.220234 10.9586)
(-0.0989334 0.11261 11.3294)
(0.740564 -0.214282 11.1462)
(1.41598 -0.502752 11.3427)
(0.92228 -0.215742 10.4739)
(0.910284 -0.280072 11.8912)
(0.465249 0.0619435 10.6577)
(0.943433 -0.36973 11.272)
(1.25592 -0.698018 11.3548)
(1.36033 -0.615839 11.581)
(1.74401 -0.838672 11.0343)
(1.40153 -0.524311 12.0776)
(0.982384 0.110741 11.0773)
(0.925911 1.06142 11.7101)
(0.948204 1.76509 11.4347)
(1.1111 1.67115 12.4725)
(1.43367 1.63725 12.6794)
(1.95226 2.19723 12.8545)
(2.39788 2.71388 13.3962)
(2.34364 2.61369 13.5546)
(2.46016 2.47392 14.3528)
(2.28327 1.99848 14.4372)
(2.79377 2.25881 15.654)
(3.24289 2.48056 16.5419)
(2.79576 1.78824 16.5903)
(2.46316 1.26405 16.7628)
(3.81408 1.61205 19.0801)
(4.4449 1.85717 19.8072)
(5.08611 2.42117 20.8607)
(5.4445 2.98828 22.2938)
(3.873 3.31545 22.4289)
(4.88803 4.03836 25.8581)
(2.59478 5.35055 26.3642)
(3.31745 8.46126 28.3062)
(2.52659 10.8843 29.4831)
(3.51554 12.5492 33.6762)
(4.01456 13.68 36.373)
(1.9123 15.405 37.7465)
(1.01157 17.6036 43.009)
(-3.10035 18.6857 41.7859)
(-11.3836 21.6895 46.1703)
(-21.2897 23.3013 44.8131)
(-29.5505 25.3564 48.455)
(-33.3165 28.5315 46.916)
(-36.9001 32.3906 51.546)
(-42.3998 36.0785 49.2015)
(-58.413 50.4354 48.506)
(-65.0946 54.7445 52.0753)
(-68.7639 56.0017 52.9578)
(-76.1449 67.1023 49.8988)
(-85.722 73.6827 51.6439)
(-93.1504 77.1676 51.9028)
(-100.088 80.8195 52.5754)
(-107.822 85.1089 50.5336)
(-119.024 91.1282 48.4088)
(-112.562 93.5973 52.4455)
(-105.45 96.9646 47.8381)
(-85.449 92.8945 54.1163)
(-74.2218 101.014 46.6597)
(-49.9351 99.2414 45.7814)
(-19.706 86.4174 50.907)
(11.1907 67.5198 45.4048)
(26.8614 29.8788 52.2344)
(43.4846 9.49462 40.0309)
(29.5595 -52.5215 22.0014)
(19.8902 -71.6441 8.72939)
(26.419 -46.714 -0.376502)
(-15.1411 -6.20658 -55.1376)
(-10.7224 69.8129 -5.42686)
(68.6014 22.4806 8.84845)
(103.89 -78.2882 -20.1109)
(97.2715 -142.516 -17.957)
(79.8367 -153.075 -28.1127)
(54.5475 -144.926 -31.7443)
(49.5313 -114.724 -33.3692)
(49.1226 -88.9947 -32.4123)
(51.1088 -75.0686 -31.0762)
(48.8701 -61.6306 -33.1973)
(47.479 -49.5644 -30.492)
(43.3603 -39.4079 -30.7963)
(41.324 -34.369 -28.4372)
(38.6963 -29.4982 -27.4796)
(36.8435 -25.4703 -25.3495)
(34.7936 -22.7244 -23.7799)
(32.8459 -20.0126 -21.9491)
(30.8777 -17.7549 -20.1225)
(28.9496 -15.7137 -18.416)
(27.0769 -13.8154 -16.6259)
(25.265 -12.1816 -14.9771)
(23.5247 -10.6352 -13.3182)
(21.8572 -9.30162 -11.7579)
(20.2676 -8.06347 -10.2389)
(18.7554 -6.97396 -8.79629)
(17.3177 -5.97047 -7.40912)
(15.947 -5.05703 -6.084)
(14.63 -4.18836 -4.80279)
(13.3422 -3.3228 -3.54882)
(12.0853 -2.40941 -2.27278)
(10.8011 -1.41259 -0.923211)
(9.36174 -0.242511 0.438434)
(8.10979 0.572823 1.47855)
(7.69228 0.236551 2.22682)
(7.17233 0.0218933 2.92878)
(5.53416 0.41 4.14644)
(5.11343 0.268432 4.22306)
(2.69537 0.71958 4.85292)
(0.855437 1.12384 5.10754)
(0.371628 1.1826 5.06986)
(-1.80038 1.92602 5.44091)
)
;

boundaryField
{
    inlet
    {
        type            calculated;
        value           uniform (-1.80038 1.92602 5.44091);
    }
    outlet
    {
        type            calculated;
        value           uniform (9.08494e-05 0.00509984 11.1471);
    }
    repeat_boundary
    {
        type            calculated;
        value           nonuniform List<vector> 
360
(
(0 0.00509984 11.1471)
(0 0.0970699 13.3639)
(0 0.165766 13.0092)
(0 0.16463 12.6791)
(0 0.0936255 12.4404)
(0 -0.070572 12.9607)
(0 0.0873802 11.5338)
(0 0.0345617 12.7223)
(0 0.0402895 12.7519)
(0 -0.086987 12.7774)
(0 -0.0209058 11.3991)
(0 0.140769 12.5329)
(0 0.227075 12.6532)
(0 0.18197 12.2211)
(0 0.0420455 12.7314)
(0 0.244079 11.4592)
(0 0.128188 12.4663)
(0 0.0459556 12.4967)
(0 -0.0412478 12.3963)
(0 0.152554 11.7687)
(0 0.329923 11.9126)
(0 0.48731 11.9401)
(0 0.598521 12.1086)
(0 0.626799 11.8117)
(0 0.638489 12.2298)
(0 0.667161 12.5111)
(0 0.671726 12.3414)
(0 0.694861 12.8623)
(0 0.340075 11.4701)
(0 0.409469 13.162)
(0 0.0228378 11.8808)
(0 0.358912 12.5048)
(0 0.494345 12.7011)
(0 0.539657 12.7616)
(0 1.18883 12.0358)
(0 0.650416 13.4432)
(0 0.628528 11.7687)
(0 0.535688 13.0503)
(0 0.707241 12.9118)
(0 0.32082 12.2956)
(0 0.162297 12.8321)
(0 0.346831 12.761)
(0 0.00295433 12.1943)
(0 -0.0649999 12.563)
(0 -0.190695 12.0618)
(0 -0.18263 12.4704)
(0 -0.200466 12.5665)
(0 -0.406579 12.2405)
(0 -0.609587 12.3981)
(0 -0.624989 11.6213)
(0 -0.657358 11.5389)
(0 -0.594308 11.6383)
(0 -0.465949 11.5608)
(0 -0.384209 11.4875)
(0 -0.323132 11.4693)
(0 -0.272251 11.4706)
(0 -0.22749 11.4986)
(0 -0.186893 11.5254)
(0 -0.149073 11.5392)
(0 -0.114113 11.5341)
(0 -0.0820115 11.5109)
(0 -0.0532364 11.4652)
(0 -0.0280027 11.4039)
(0 -0.00609656 11.3386)
(0 0.0134618 11.2602)
(0 0.029989 11.1904)
(0 0.045936 11.1226)
(0 0.0620806 11.0991)
(0 0.0866208 11.017)
(0 0.0817521 11.1288)
(0 0.0929842 10.6467)
(0 0.220234 10.9586)
(0 0.11261 11.3294)
(0 -0.214282 11.1462)
(0 -0.502752 11.3427)
(0 -0.215742 10.4739)
(0 -0.280072 11.8912)
(0 0.0619435 10.6577)
(0 -0.36973 11.272)
(0 -0.698018 11.3548)
(0 -0.615839 11.581)
(0 -0.838672 11.0343)
(0 -0.524311 12.0776)
(0 0.110741 11.0773)
(0 1.06142 11.7101)
(0 1.76509 11.4347)
(0 1.67115 12.4725)
(0 1.63725 12.6794)
(0 2.19723 12.8545)
(0 2.71388 13.3962)
(0 2.61369 13.5546)
(0 2.47392 14.3528)
(0 1.99848 14.4372)
(0 2.25881 15.654)
(0 2.48056 16.5419)
(0 1.78824 16.5903)
(0 1.26405 16.7628)
(0 1.61205 19.0801)
(0 1.85717 19.8072)
(0 2.42117 20.8607)
(0 2.98828 22.2938)
(0 3.31545 22.4289)
(0 4.03836 25.8581)
(0 5.35055 26.3642)
(0 8.46126 28.3062)
(0 10.8843 29.4831)
(0 12.5492 33.6762)
(0 13.68 36.373)
(0 15.405 37.7465)
(0 17.6036 43.009)
(0 18.6857 41.7859)
(0 21.6895 46.1703)
(0 23.3013 44.8131)
(0 25.3564 48.455)
(0 28.5315 46.916)
(0 32.3906 51.546)
(0 36.0785 49.2015)
(0 50.4354 48.506)
(0 54.7445 52.0753)
(0 56.0017 52.9578)
(0 67.1023 49.8988)
(0 73.6827 51.6439)
(0 77.1676 51.9028)
(0 80.8195 52.5754)
(0 85.1089 50.5336)
(0 91.1282 48.4088)
(0 93.5973 52.4455)
(0 96.9646 47.8381)
(0 92.8945 54.1163)
(0 101.014 46.6597)
(0 99.2414 45.7814)
(0 86.4174 50.907)
(0 67.5198 45.4048)
(0 29.8788 52.2344)
(0 9.49462 40.0309)
(0 -52.5215 22.0014)
(0 -71.6441 8.72939)
(0 -46.714 -0.376502)
(0 -6.20658 -55.1376)
(0 69.8129 -5.42686)
(0 22.4806 8.84845)
(0 -78.2882 -20.1109)
(0 -142.516 -17.957)
(0 -153.075 -28.1127)
(0 -144.926 -31.7443)
(0 -114.724 -33.3692)
(0 -88.9947 -32.4123)
(0 -75.0686 -31.0762)
(0 -61.6306 -33.1973)
(0 -49.5644 -30.492)
(0 -39.4079 -30.7963)
(0 -34.369 -28.4372)
(0 -29.4982 -27.4796)
(0 -25.4703 -25.3495)
(0 -22.7244 -23.7799)
(0 -20.0126 -21.9491)
(0 -17.7549 -20.1225)
(0 -15.7137 -18.416)
(0 -13.8154 -16.6259)
(0 -12.1816 -14.9771)
(0 -10.6352 -13.3182)
(0 -9.30162 -11.7579)
(0 -8.06347 -10.2389)
(0 -6.97396 -8.79629)
(0 -5.97047 -7.40912)
(0 -5.05703 -6.084)
(0 -4.18836 -4.80279)
(0 -3.3228 -3.54882)
(0 -2.40941 -2.27278)
(0 -1.41259 -0.923211)
(0 -0.242511 0.438434)
(0 0.572823 1.47855)
(0 0.236551 2.22682)
(0 0.0218933 2.92878)
(0 0.41 4.14644)
(0 0.268432 4.22306)
(0 0.71958 4.85292)
(0 1.12384 5.10754)
(0 1.1826 5.06986)
(0 1.92602 5.44091)
(9.08494e-05 0 11.1471)
(0.0805037 0 13.3639)
(0.134802 0 13.0092)
(0.113024 0 12.6791)
(0.0131886 0 12.4404)
(-0.182639 0 12.9607)
(0.00821683 0 11.5338)
(-0.0929648 0 12.7223)
(-0.11839 0 12.7519)
(-0.312007 0 12.7774)
(-0.195591 0 11.3991)
(-0.0331243 0 12.5329)
(0.0174295 0 12.6532)
(-0.171819 0 12.2211)
(-0.411774 0 12.7314)
(-0.00168002 0 11.4592)
(-0.194645 0 12.4663)
(-0.330522 0 12.4967)
(-0.640766 0 12.3963)
(-0.375588 0 11.7687)
(0.0204279 0 11.9126)
(0.260407 0 11.9401)
(0.270428 0 12.1086)
(0.259187 0 11.8117)
(0.510074 0 12.2298)
(0.482533 0 12.5111)
(0.0179481 0 12.3414)
(-0.295273 0 12.8623)
(-0.317068 0 11.4701)
(-0.281739 0 13.162)
(-0.287804 0 11.8808)
(-0.131965 0 12.5048)
(-0.264314 0 12.7011)
(-0.0335971 0 12.7616)
(0.393895 0 12.0358)
(0.0993958 0 13.4432)
(0.236974 0 11.7687)
(0.043039 0 13.0503)
(-0.119488 0 12.9118)
(-0.155384 0 12.2956)
(-0.0900469 0 12.8321)
(0.0490275 0 12.761)
(0.0797358 0 12.1943)
(0.108595 0 12.563)
(-0.0252202 0 12.0618)
(-0.0457292 0 12.4704)
(-0.179369 0 12.5665)
(-0.649009 0 12.2405)
(-1.02286 0 12.3981)
(-0.825482 0 11.6213)
(-0.524511 0 11.5389)
(-0.170063 0 11.6383)
(0.0721761 0 11.5608)
(0.175387 0 11.4875)
(0.255287 0 11.4693)
(0.278169 0 11.4706)
(0.30724 0 11.4986)
(0.251453 0 11.5254)
(0.148067 0 11.5392)
(0.0292078 0 11.5341)
(-0.0960404 0 11.5109)
(-0.238274 0 11.4652)
(-0.361168 0 11.4039)
(-0.427119 0 11.3386)
(-0.428917 0 11.2602)
(-0.355526 0 11.1904)
(-0.303638 0 11.1226)
(-0.268487 0 11.0991)
(-0.334403 0 11.017)
(-0.217677 0 11.1288)
(0.0230227 0 10.6467)
(-0.233939 0 10.9586)
(-0.0989334 0 11.3294)
(0.740564 0 11.1462)
(1.41598 0 11.3427)
(0.92228 0 10.4739)
(0.910284 0 11.8912)
(0.465249 0 10.6577)
(0.943433 0 11.272)
(1.25592 0 11.3548)
(1.36033 0 11.581)
(1.74401 0 11.0343)
(1.40153 0 12.0776)
(0.982384 0 11.0773)
(0.925911 0 11.7101)
(0.948204 0 11.4347)
(1.1111 0 12.4725)
(1.43367 0 12.6794)
(1.95226 0 12.8545)
(2.39788 0 13.3962)
(2.34364 0 13.5546)
(2.46016 0 14.3528)
(2.28327 0 14.4372)
(2.79377 0 15.654)
(3.24289 0 16.5419)
(2.79576 0 16.5903)
(2.46316 0 16.7628)
(3.81408 0 19.0801)
(4.4449 0 19.8072)
(5.08611 0 20.8607)
(5.4445 0 22.2938)
(3.873 0 22.4289)
(4.88803 0 25.8581)
(2.59478 0 26.3642)
(3.31745 0 28.3062)
(2.52659 0 29.4831)
(3.51554 0 33.6762)
(4.01456 0 36.373)
(1.9123 0 37.7465)
(1.01157 0 43.009)
(-3.10035 0 41.7859)
(-11.3836 0 46.1703)
(-21.2897 0 44.8131)
(-29.5505 0 48.455)
(-33.3165 0 46.916)
(-36.9001 0 51.546)
(-42.3998 0 49.2015)
(-58.413 0 48.506)
(-65.0946 0 52.0753)
(-68.7639 0 52.9578)
(-76.1449 0 49.8988)
(-85.722 0 51.6439)
(-93.1504 0 51.9028)
(-100.088 0 52.5754)
(-107.822 0 50.5336)
(-119.024 0 48.4088)
(-112.562 0 52.4455)
(-105.45 0 47.8381)
(-85.449 0 54.1163)
(-74.2218 0 46.6597)
(-49.9351 0 45.7814)
(-19.706 0 50.907)
(11.1907 0 45.4048)
(26.8614 0 52.2344)
(43.4846 0 40.0309)
(29.5595 0 22.0014)
(19.8902 0 8.72939)
(26.419 0 -0.376502)
(-15.1411 0 -55.1376)
(-10.7224 0 -5.42686)
(68.6014 0 8.84845)
(103.89 0 -20.1109)
(97.2715 0 -17.957)
(79.8367 0 -28.1127)
(54.5475 0 -31.7443)
(49.5313 0 -33.3692)
(49.1226 0 -32.4123)
(51.1088 0 -31.0762)
(48.8701 0 -33.1973)
(47.479 0 -30.492)
(43.3603 0 -30.7963)
(41.324 0 -28.4372)
(38.6963 0 -27.4796)
(36.8435 0 -25.3495)
(34.7936 0 -23.7799)
(32.8459 0 -21.9491)
(30.8777 0 -20.1225)
(28.9496 0 -18.416)
(27.0769 0 -16.6259)
(25.265 0 -14.9771)
(23.5247 0 -13.3182)
(21.8572 0 -11.7579)
(20.2676 0 -10.2389)
(18.7554 0 -8.79629)
(17.3177 0 -7.40912)
(15.947 0 -6.084)
(14.63 0 -4.80279)
(13.3422 0 -3.54882)
(12.0853 0 -2.27278)
(10.8011 0 -0.923211)
(9.36174 0 0.438434)
(8.10979 0 1.47855)
(7.69228 0 2.22682)
(7.17233 0 2.92878)
(5.53416 0 4.14644)
(5.11343 0 4.22306)
(2.69537 0 4.85292)
(0.855437 0 5.10754)
(0.371628 0 5.06986)
(-1.80038 0 5.44091)
)
;
    }
    procBoundary3to1
    {
        type            processor;
        value           nonuniform List<vector> 
180
(
(-0.00906183 0.00389294 10.6961)
(-0.128401 0.0897666 12.5314)
(-0.0932153 0.0686384 11.9464)
(-0.0501955 0.0639466 11.4223)
(0.0301368 -0.0718981 11.5617)
(-0.0296168 0.0764095 10.9258)
(0.0233023 0.061152 11.9294)
(-0.0293396 0.00161819 11.8176)
(-0.101045 -0.213937 11.5245)
(-0.216962 -0.210364 11.8578)
(-0.234776 0.0680333 10.9085)
(-0.191824 0.0991559 11.7153)
(-0.245621 0.182322 11.6873)
(-0.324093 0.147223 11.652)
(-0.281922 0.0685735 11.2178)
(-0.249313 0.2246 10.888)
(-0.177292 0.184269 11.3871)
(-0.109418 0.0280575 11.6069)
(-0.0486342 -0.104675 11.7814)
(-0.164591 0.152301 10.4955)
(-0.231995 0.12285 11.5286)
(-0.409731 0.195171 12.0484)
(-0.39672 0.213476 10.2351)
(-0.270974 0.277649 11.1324)
(-0.42508 0.579327 11.3082)
(-0.533551 0.640412 10.8527)
(-0.673519 0.598013 11.1164)
(-0.409386 0.237231 9.77612)
(-0.489934 0.278736 11.0092)
(-0.193448 0.0220817 10.2076)
(-0.585548 0.265663 10.3356)
(-0.378396 0.197331 10.1521)
(-0.402681 0.238796 9.93535)
(-0.319813 0.126728 9.8666)
(-0.197981 0.0744519 9.75426)
(-0.313324 0.206004 9.53499)
(-0.173451 0.104402 9.67774)
(0.105477 0.0445694 8.93249)
(-0.121785 0.41012 9.58076)
(-0.291648 0.396111 9.62637)
(0.43054 -0.476629 9.7067)
(0.693775 -0.766864 8.99402)
(0.532193 -0.396526 9.55321)
(0.132317 -0.220689 8.98413)
(-0.177101 -0.0879008 9.98587)
(0.200873 -0.189024 9.72587)
(0.776071 -0.473728 9.69782)
(0.939284 -0.682088 9.88589)
(0.486525 -0.605834 9.63895)
(0.395817 -0.604372 9.77419)
(0.466304 -0.562218 10.1603)
(0.635647 -0.491046 10.2238)
(0.714672 -0.425151 10.3685)
(0.644517 -0.375122 10.5415)
(0.585232 -0.320797 10.6611)
(0.567434 -0.270871 10.7717)
(0.503575 -0.226977 10.8813)
(0.418477 -0.186923 10.9728)
(0.336799 -0.148792 11.0399)
(0.257029 -0.11337 11.0912)
(0.180739 -0.0807085 11.1274)
(0.110901 -0.051404 11.1491)
(0.0441306 -0.0257241 11.1582)
(-0.0157447 -0.00322435 11.1553)
(-0.0737906 0.016903 11.1425)
(-0.128698 0.0345933 11.1192)
(-0.198431 0.0516468 11.0904)
(-0.235037 0.0702129 11.0402)
(-0.256766 0.0913515 11.0111)
(-0.22755 0.11114 10.9525)
(-0.147898 0.164054 10.9104)
(-0.0985699 0.249545 10.9039)
(0.207499 0.0193234 11.0231)
(0.0365384 0.0731226 10.2985)
(-0.0168153 0.0425575 11.4476)
(0.53339 -0.134791 11.3696)
(1.53853 -0.734513 11.2188)
(1.85836 -1.03509 11.3872)
(1.47201 -0.773591 11.8086)
(1.54201 -0.725179 11.9425)
(1.59601 -0.676325 12.253)
(1.61924 -0.54223 12.3899)
(1.66721 -0.445999 12.8025)
(1.51186 -0.181898 12.6046)
(1.47504 -0.0468151 12.9415)
(1.47585 0.147607 13.1022)
(1.42294 0.338344 13.6052)
(1.56669 0.448936 11.9434)
(1.95601 0.529622 13.4684)
(2.03521 0.670377 13.4159)
(2.29725 1.3224 13.4003)
(2.61054 1.92769 12.8803)
(2.88178 1.77057 14.012)
(3.23428 1.99579 13.2763)
(4.01377 2.65506 13.916)
(3.9469 3.53171 13.5829)
(6.03725 4.09796 16.1905)
(6.89841 4.84292 17.2958)
(6.42236 6.03113 17.1647)
(6.26117 7.0032 17.8417)
(3.21602 10.6494 16.5158)
(5.31586 11.1142 18.4839)
(6.16749 11.1677 18.8714)
(4.00243 13.6341 15.5574)
(6.00334 16.5123 16.2353)
(0.649807 20.0133 13.8955)
(0.280445 21.0816 11.6551)
(-12.0728 27.5636 10.8103)
(-31.0207 15.5603 3.4037)
(-35.1541 13.615 -1.08747)
(-43.7538 14.5552 -5.38774)
(-53.201 17.4154 -11.0193)
(-65.8214 21.438 -18.3783)
(-80.139 26.8135 -25.9289)
(-91.9155 31.7593 -35.9883)
(-99.0465 34.8554 -47.6917)
(-102.239 35.8357 -59.806)
(-105.833 38.1467 -74.1504)
(-110.751 43.0243 -85.9009)
(-118.02 47.4341 -102.33)
(-124.969 56.5468 -116.511)
(-132.488 65.998 -137.645)
(-136.83 76.6268 -153.361)
(-139.33 92.058 -175.37)
(-137.664 104.964 -196.459)
(-120.449 110.639 -215.985)
(-98.3766 119.104 -240.806)
(-66.6134 122.804 -256.743)
(-21.824 111.297 -277.772)
(26.9296 99.3866 -291.913)
(74.6903 63.5916 -302.406)
(114.987 22.3244 -315.468)
(123.079 -47.6383 -308.39)
(109.023 -72.9813 -298.808)
(103.207 -69.8706 -305.921)
(94.2613 -116.809 -279.156)
(96.3384 -119.517 -264.356)
(90.6858 -135.177 -256.003)
(67.7481 -133.521 -229.288)
(67.3713 -131.189 -212.335)
(66.1588 -132.677 -207.251)
(57.0909 -125.334 -178.996)
(52.3803 -117.81 -169.139)
(48.0569 -106.848 -141.976)
(43.5179 -87.3727 -129.439)
(42.1095 -69.7116 -111.163)
(41.1185 -56.197 -99.5252)
(39.4573 -52.8528 -87.582)
(38.2464 -44.9818 -76.8511)
(34.7876 -37.584 -68.1891)
(31.7741 -29.7858 -59.436)
(30.4303 -26.3795 -52.7274)
(26.9223 -24.4782 -47.0577)
(26.531 -19.0607 -39.4134)
(22.7162 -19.1389 -37.2028)
(22.5049 -14.9082 -29.3005)
(20.0632 -14.1741 -27.7358)
(19.2195 -11.6745 -21.5208)
(17.7948 -10.3807 -19.3872)
(16.8225 -8.87738 -14.9092)
(15.7949 -7.71231 -12.5468)
(14.9742 -6.64955 -9.22445)
(14.2039 -5.72608 -6.92721)
(13.574 -4.92086 -4.369)
(13.0315 -4.19755 -2.30775)
(12.6118 -3.54623 -0.273285)
(12.3199 -2.92253 1.4544)
(12.1988 -2.28686 3.08999)
(12.2039 -1.55341 4.76442)
(11.9676 -0.821723 6.46757)
(10.3749 -0.77054 6.76289)
(8.84374 -0.89115 7.08958)
(7.72664 -0.943161 7.68789)
(6.90669 -0.830618 8.47729)
(6.31813 -0.755171 8.69881)
(4.95854 -0.0937506 9.92181)
(4.68749 0.0411468 8.76543)
(2.23744 0.335983 10.8063)
(0.413682 0.744207 10.4544)
(-1.34233 1.46062 9.88454)
)
;
    }
    procBoundary3to2
    {
        type            processor;
        value           nonuniform List<vector> 
180
(
(-0.0010053 -0.0041185 10.8094)
(0.0735571 -0.111952 12.7044)
(0.0471234 -0.0712326 12.1109)
(0.0386282 -0.0255432 11.5668)
(-0.127401 0.0859654 11.741)
(0.0561003 -0.00488221 11.0865)
(-0.00521909 0.0842437 12.1587)
(-0.138408 0.104986 12.0671)
(-0.433016 0.122571 11.8126)
(-0.442265 0.023801 12.2356)
(-0.0607837 -0.102551 11.1924)
(-0.0739872 -0.0171362 12.1831)
(-0.029139 -0.0320624 12.1687)
(-0.201934 0.0301286 12.2277)
(-0.314101 0.101205 11.9306)
(0.0366298 -0.0411931 11.1148)
(-0.0618046 0.0387624 12.5848)
(-0.332427 0.221624 12.5118)
(-0.812324 0.644243 12.2472)
(-0.849861 0.700365 12.8433)
(-0.299061 0.223967 11.8929)
(-0.285116 0.130428 13.4638)
(0.032327 -0.10712 11.4308)
(0.0106653 0.0374814 12.8602)
(0.0479803 0.0733898 12.9489)
(-0.191721 0.287138 12.357)
(-0.600298 0.532784 12.7544)
(-0.137181 -0.0538652 12.968)
(-0.265506 0.0497976 11.7346)
(-0.267037 -0.0419466 12.7819)
(-0.18683 -0.265058 12.9542)
(-0.0731407 -0.603224 12.7582)
(-0.147131 -0.725767 12.1694)
(-0.167142 -0.609806 13.1218)
(-0.0838421 -0.385642 12.1274)
(-0.109427 -0.113122 12.0184)
(-0.274016 0.297563 12.5852)
(0.0576819 0.191151 11.5292)
(-0.0588247 0.421676 12.6947)
(-0.340987 0.523902 12.8344)
(-0.568185 0.596883 12.5713)
(-0.528864 0.579382 13.3738)
(-0.274445 0.363912 11.3334)
(-0.267068 0.44551 13.9146)
(-0.0842175 0.0579566 11.907)
(-0.419602 0.515373 13.0991)
(-0.587618 0.735734 13.1313)
(-0.675947 0.648004 13.0498)
(-1.0951 1.24745 13.1244)
(-0.961459 0.877658 13.5518)
(-0.909125 0.833161 13.4814)
(-0.79599 0.841764 14.5553)
(-0.40237 0.448188 12.3233)
(-0.194361 0.489275 15.1589)
(-0.0476364 0.14506 12.803)
(0.342671 0.341462 14.8905)
(0.384112 0.166426 13.6814)
(0.326063 0.0447538 13.5036)
(0.150939 0.0674376 13.7823)
(0.0350319 0.0561148 13.6956)
(-0.162108 0.264434 14.0176)
(-0.236564 0.265018 13.0653)
(-0.35427 0.320343 14.3278)
(-0.559548 0.579427 14.6093)
(-0.906852 0.989058 14.4125)
(-1.03216 1.03313 14.5462)
(-0.788406 0.596594 14.4201)
(-0.618425 0.309699 15.3235)
(-0.712662 0.288549 13.6161)
(-0.747066 0.305134 15.6065)
(-0.868919 0.390057 13.7757)
(-0.475433 0.179731 15.1116)
(-0.219914 -0.0817834 15.0438)
(0.141749 -0.221601 14.7392)
(0.772363 -0.666718 14.6673)
(0.405065 -0.542573 14.7249)
(0.507064 -0.275306 13.2821)
(0.554311 -0.269651 14.5857)
(0.488147 -0.0882933 13.9075)
(1.00182 -0.432158 14.1965)
(1.08055 -0.42789 12.8234)
(0.976814 -0.275732 13.657)
(1.13195 -0.283566 13.3366)
(1.40355 -0.292397 13.6504)
(1.43194 -0.135279 12.0658)
(1.37882 0.0299173 12.8279)
(1.52794 0.0168835 13.3555)
(1.85015 0.193462 11.6503)
(2.29512 0.365048 12.2045)
(2.43779 0.364549 12.4759)
(2.87139 0.796697 11.8813)
(3.36427 1.37383 11.7778)
(3.03099 1.26342 10.9259)
(4.33824 1.49931 11.1792)
(5.24097 1.54597 11.8478)
(4.86813 2.18194 10.264)
(7.11096 3.20811 10.928)
(8.36404 3.68233 11.8374)
(6.77173 3.63889 10.3308)
(8.1715 5.4603 11.5275)
(8.23536 6.00708 11.9737)
(8.13403 6.64053 11.7904)
(8.23497 7.32773 12.1233)
(8.37208 7.99359 12.982)
(7.02789 8.10054 13.1264)
(6.76668 8.59292 13.3927)
(6.33073 11.3961 15.4426)
(5.41905 11.2159 15.4021)
(0.991851 9.6822 15.958)
(0.913104 13.3596 18.6152)
(-0.32568 14.8185 20.0223)
(-2.57251 14.4587 21.5578)
(-7.7548 14.1959 24.9626)
(-12.3969 13.1345 29.4674)
(-18.0365 13.884 32.7064)
(-19.5384 13.3584 39.6414)
(-25.2304 16.1613 43.4501)
(-27.5603 19.9537 50.9398)
(-35.2152 21.9565 56.7345)
(-40.7559 25.4926 66.1735)
(-44.3077 30.4197 73.6755)
(-57.0393 30.6939 81.8979)
(-68.2426 42.1116 94.9471)
(-76.1433 45.2461 105.844)
(-87.0532 51.1259 119.619)
(-96.983 50.0588 132.911)
(-101.198 53.4423 148.028)
(-101.62 54.9073 163.157)
(-102.389 61.8608 176.564)
(-102.907 64.7264 191.682)
(-107.765 79.0005 203.982)
(-102.827 76.328 220.745)
(-98.8774 82.6369 225.568)
(-97.8552 117.398 247.418)
(-94.6761 117.831 251.828)
(-96.0846 138.711 262.906)
(-59.8038 178.332 290.698)
(-37.483 190.94 300.077)
(-21.0528 200.838 303.389)
(31.6726 169.641 315.257)
(98.5434 63.0338 314.477)
(131.718 -32.6892 297.081)
(141.322 -111.048 276.22)
(133.521 -155.163 250.34)
(118.521 -175.779 226.501)
(101.187 -178.348 203.487)
(85.1932 -168.483 183.137)
(71.7117 -151.989 164.378)
(61.1693 -133.294 147.889)
(53.3863 -115.093 133.393)
(47.8083 -98.82 120.803)
(43.7855 -84.8717 109.834)
(40.6178 -73.1225 100.103)
(37.8277 -63.2884 91.3614)
(35.2092 -55.0324 83.4772)
(32.679 -48.0492 76.3453)
(30.2227 -42.0881 69.8903)
(27.8524 -36.9525 64.0487)
(25.5887 -32.4938 58.74)
(23.4474 -28.5979 53.8975)
(21.4366 -25.1787 49.4826)
(19.5614 -22.1684 45.459)
(17.8181 -19.5143 41.7991)
(16.2035 -17.1726 38.4714)
(14.7133 -15.107 35.4501)
(13.3407 -13.2842 32.7104)
(12.0789 -11.678 30.2318)
(10.9183 -10.2597 27.9928)
(9.85289 -9.01506 25.9778)
(8.86737 -7.9087 24.1717)
(7.95928 -6.94806 22.5678)
(7.10657 -6.0711 21.1884)
(6.32645 -5.35323 19.9466)
(5.56758 -4.645 18.9188)
(4.89753 -4.15448 17.8951)
(4.04682 -3.58821 17.3487)
(3.61484 -3.15626 15.9478)
(2.82085 -3.1299 16.7605)
(2.314 -2.50677 15.7558)
(0.979779 -2.34711 15.7901)
)
;
    }
}


// ************************************************************************* //
