FoamFile
{version 2.0; format ascii;class vectorField; location 0;object  v;}
41
(
( -2.32806e-05 -2.0137e-05 8.84902e-05 )  
( 5.55277e-05 -3.87474e-05 8.35562e-05 )  
( 4.41439e-05 -2.48698e-05 0.00018627 )  
( -2.90812e-05 3.02105e-05 0.000143899 )  
( 3.48372e-05 -1.51361e-05 0.000115141 )  
( -6.24987e-05 2.25372e-06 0.000189468 )  
( 8.49316e-05 -2.45289e-05 0.000212996 )  
( 4.83124e-05 -2.64423e-05 0.000200631 )  
( 1.80846e-05 2.67847e-05 0.000248726 )  
( 1.39492e-05 -1.23929e-05 0.000286181 )  
( -8.86397e-06 5.53018e-05 0.000354086 )  
( 8.71207e-05 -4.13128e-05 0.000526643 )  
( 1.03464e-05 -3.63397e-05 0.00020594 )  
( 2.06326e-05 -2.18735e-05 0.00023269 )  
( 9.52376e-05 -6.76495e-05 0.000269888 )  
( 3.41383e-05 -8.77443e-06 0.000162508 )  
( 7.62734e-05 3.76886e-05 0.000207095 )  
( 0.000104492 -6.41002e-05 0.000158623 )  
( 6.12994e-06 -8.3102e-05 0.000192595 )  
( 0.000111692 8.77777e-05 0.00017843 )  
( 7.27744e-05 -1.57545e-05 0.000107863 )  
( 0.000105239 3.46331e-05 -6.67041e-05 )  
( 3.78297e-05 1.44979e-07 -4.62099e-05 )  
( 3.65656e-05 0.000150903 -0.000135369 )  
( 1.45845e-05 -6.29254e-05 1.63711e-05 )  
( 2.5723e-05 9.15604e-05 -0.000105577 )  
( 6.63093e-05 7.75416e-06 -0.000227235 )  
( 6.71042e-05 2.37597e-05 -0.000366233 )  
( 0.000117933 0.000102247 -0.000191474 )  
( 7.20734e-05 -3.9635e-05 -0.000401929 )  
( 3.6439e-05 -4.22907e-05 -0.000268509 )  
( 1.18192e-05 -7.10866e-05 -0.0003807 )  
( -0.000160342 -0.000178154 -0.000446789 )  
( -0.000167042 -1.8244e-05 -0.000548562 )  
( 0.000179218 -5.47151e-05 -0.000488422 )  
( -0.000105442 7.46956e-05 -0.000249701 )  
( -4.91487e-05 5.04397e-05 -5.29397e-05 )  
( -0.000109882 9.17058e-05 -0.00029974 )  
( 7.30503e-05 -1.1806e-05 -0.000592583 )  
( 1.37954e-05 0.000110208 7.65513e-05 )  
( -0.000223654 3.7448e-05 -0.000345097 )  
)
