/*--------------------------------*- C++ -*----------------------------------*\
| =========                 |                                                 |
| \\      /  F ield         | OpenFOAM: The Open Source CFD Toolbox           |
|  \\    /   O peration     | Version:  5.x                                   |
|   \\  /    A nd           | Web:      www.OpenFOAM.org                      |
|    \\/     M anipulation  |                                                 |
\*---------------------------------------------------------------------------*/
FoamFile
{
    version     2.0;
    format      ascii;
    class       volScalarField;
    location    "0.1";
    object      p;
}
// * * * * * * * * * * * * * * * * * * * * * * * * * * * * * * * * * * * * * //

dimensions      [0 2 -2 0 0 0 0];

internalField   nonuniform List<scalar> 
2250
(
-3.23291e-09
-3.23069e-09
-3.21752e-09
-3.22324e-09
-3.30297e-09
-3.21572e-09
-3.21676e-09
-3.25343e-09
-3.29099e-09
-3.36508e-09
-3.20338e-09
-3.23917e-09
-3.26427e-09
-3.30806e-09
-3.37141e-09
-3.23978e-09
-3.26346e-09
-3.27933e-09
-3.30375e-09
-3.33404e-09
-3.26258e-09
-3.26911e-09
-3.27899e-09
-3.27101e-09
-3.26984e-09
-9.56183e-09
-9.56313e-09
-9.56147e-09
-9.63e-09
-9.83531e-09
-9.55661e-09
-9.59782e-09
-9.67053e-09
-9.76934e-09
-9.92561e-09
-9.58417e-09
-9.66419e-09
-9.71992e-09
-9.79705e-09
-9.89201e-09
-9.64535e-09
-9.7068e-09
-9.72747e-09
-9.73635e-09
-9.75529e-09
-9.6609e-09
-9.70712e-09
-9.69057e-09
-9.63006e-09
-9.58245e-09
-1.56688e-08
-1.57393e-08
-1.58017e-08
-1.58809e-08
-1.5983e-08
-1.5726e-08
-1.58195e-08
-1.59011e-08
-1.59692e-08
-1.60229e-08
-1.58028e-08
-1.58894e-08
-1.59288e-08
-1.59302e-08
-1.59144e-08
-1.58643e-08
-1.59209e-08
-1.58806e-08
-1.57898e-08
-1.57087e-08
-1.58492e-08
-1.58691e-08
-1.57762e-08
-1.5627e-08
-1.55286e-08
-2.1656e-08
-2.17925e-08
-2.18648e-08
-2.18608e-08
-2.17373e-08
-2.17054e-08
-2.17963e-08
-2.18193e-08
-2.17849e-08
-2.16559e-08
-2.17485e-08
-2.1785e-08
-2.17359e-08
-2.16178e-08
-2.14472e-08
-2.17452e-08
-2.17274e-08
-2.16041e-08
-2.14124e-08
-2.12342e-08
-2.16772e-08
-2.16126e-08
-2.14538e-08
-2.12437e-08
-2.10995e-08
-2.74703e-08
-2.75694e-08
-2.75729e-08
-2.75235e-08
-2.73646e-08
-2.73871e-08
-2.7391e-08
-2.73405e-08
-2.72587e-08
-2.70627e-08
-2.73026e-08
-2.72536e-08
-2.71386e-08
-2.6979e-08
-2.67471e-08
-2.71974e-08
-2.70947e-08
-2.6949e-08
-2.67498e-08
-2.65508e-08
-2.70739e-08
-2.69562e-08
-2.67998e-08
-2.66104e-08
-2.64649e-08
-3.28941e-08
-3.28961e-08
-3.28704e-08
-3.29037e-08
-3.29177e-08
-3.26618e-08
-3.2606e-08
-3.25608e-08
-3.25304e-08
-3.24054e-08
-3.24801e-08
-3.23997e-08
-3.23107e-08
-3.22197e-08
-3.20625e-08
-3.23118e-08
-3.21919e-08
-3.21123e-08
-3.20101e-08
-3.1905e-08
-3.21749e-08
-3.20824e-08
-3.19983e-08
-3.19187e-08
-3.18569e-08
-3.79582e-08
-3.79307e-08
-3.79775e-08
-3.81135e-08
-3.82201e-08
-3.76886e-08
-3.76674e-08
-3.77003e-08
-3.77367e-08
-3.77139e-08
-3.74908e-08
-3.74559e-08
-3.74582e-08
-3.74842e-08
-3.74726e-08
-3.73103e-08
-3.72489e-08
-3.728e-08
-3.7317e-08
-3.73586e-08
-3.71991e-08
-3.71889e-08
-3.72085e-08
-3.72675e-08
-3.73168e-08
-4.29633e-08
-4.30136e-08
-4.31657e-08
-4.33125e-08
-4.33758e-08
-4.27197e-08
-4.27863e-08
-4.28972e-08
-4.295e-08
-4.30023e-08
-4.252e-08
-4.25654e-08
-4.26589e-08
-4.27668e-08
-4.28692e-08
-4.23452e-08
-4.23795e-08
-4.24972e-08
-4.26238e-08
-4.27532e-08
-4.22719e-08
-4.23496e-08
-4.24455e-08
-4.25802e-08
-4.26763e-08
-4.80621e-08
-4.81982e-08
-4.83899e-08
-4.84835e-08
-4.85401e-08
-4.77855e-08
-4.79202e-08
-4.80591e-08
-4.80992e-08
-4.82057e-08
-4.75543e-08
-4.7665e-08
-4.78017e-08
-4.79174e-08
-4.80538e-08
-4.73861e-08
-4.75031e-08
-4.76368e-08
-4.77566e-08
-4.78746e-08
-4.73384e-08
-4.74607e-08
-4.75655e-08
-4.76783e-08
-4.77493e-08
-5.30531e-08
-5.31941e-08
-5.33388e-08
-5.33797e-08
-5.34579e-08
-5.26944e-08
-5.28402e-08
-5.29537e-08
-5.29796e-08
-5.3085e-08
-5.2423e-08
-5.25549e-08
-5.26713e-08
-5.27334e-08
-5.28337e-08
-5.22554e-08
-5.24e-08
-5.24807e-08
-5.25336e-08
-5.26001e-08
-5.21994e-08
-5.23029e-08
-5.23618e-08
-5.24138e-08
-5.24706e-08
-5.77097e-08
-5.77925e-08
-5.78426e-08
-5.78277e-08
-5.78278e-08
-5.72707e-08
-5.73728e-08
-5.7422e-08
-5.74189e-08
-5.74509e-08
-5.69445e-08
-5.70451e-08
-5.70947e-08
-5.70914e-08
-5.7141e-08
-5.6742e-08
-5.68474e-08
-5.68587e-08
-5.68692e-08
-5.69309e-08
-5.66343e-08
-5.66803e-08
-5.66966e-08
-5.6735e-08
-5.68523e-08
-6.2049e-08
-6.20532e-08
-6.19945e-08
-6.19063e-08
-6.17901e-08
-6.14732e-08
-6.14952e-08
-6.14678e-08
-6.14254e-08
-6.13978e-08
-6.10212e-08
-6.10518e-08
-6.10395e-08
-6.10212e-08
-6.10712e-08
-6.07171e-08
-6.07539e-08
-6.07458e-08
-6.07909e-08
-6.09163e-08
-6.05364e-08
-6.05399e-08
-6.05636e-08
-6.06545e-08
-6.08686e-08
-6.61407e-08
-6.6058e-08
-6.59237e-08
-6.57962e-08
-6.56707e-08
-6.53176e-08
-6.52603e-08
-6.52013e-08
-6.51664e-08
-6.5176e-08
-6.4657e-08
-6.46272e-08
-6.46188e-08
-6.46633e-08
-6.47718e-08
-6.42055e-08
-6.42094e-08
-6.42515e-08
-6.43773e-08
-6.45721e-08
-6.39702e-08
-6.39785e-08
-6.40489e-08
-6.42004e-08
-6.4453e-08
-6.99632e-08
-6.98354e-08
-6.97484e-08
-6.97071e-08
-6.96921e-08
-6.88605e-08
-6.879e-08
-6.88042e-08
-6.88722e-08
-6.89932e-08
-6.79676e-08
-6.79481e-08
-6.80215e-08
-6.81738e-08
-6.8348e-08
-6.73658e-08
-6.74034e-08
-6.7519e-08
-6.77031e-08
-6.7912e-08
-6.70907e-08
-6.71342e-08
-6.72461e-08
-6.74171e-08
-6.76278e-08
-7.36511e-08
-7.3605e-08
-7.37295e-08
-7.39214e-08
-7.40798e-08
-7.22829e-08
-7.23074e-08
-7.24835e-08
-7.27239e-08
-7.2972e-08
-7.11321e-08
-7.12024e-08
-7.13803e-08
-7.16361e-08
-7.18706e-08
-7.03424e-08
-7.04436e-08
-7.06056e-08
-7.08157e-08
-7.10317e-08
-6.99697e-08
-7.00447e-08
-7.01813e-08
-7.0362e-08
-7.05607e-08
-7.75837e-08
-7.77373e-08
-7.81299e-08
-7.85926e-08
-7.89557e-08
-7.57839e-08
-7.59583e-08
-7.62878e-08
-7.67007e-08
-7.70916e-08
-7.42011e-08
-7.43736e-08
-7.46269e-08
-7.49836e-08
-7.53403e-08
-7.30655e-08
-7.32066e-08
-7.34041e-08
-7.3677e-08
-7.40121e-08
-7.2465e-08
-7.25643e-08
-7.27468e-08
-7.30062e-08
-7.33415e-08
-8.19262e-08
-8.22568e-08
-8.28141e-08
-8.34748e-08
-8.40887e-08
-7.92596e-08
-7.95302e-08
-7.99478e-08
-8.05266e-08
-8.11366e-08
-7.69076e-08
-7.71294e-08
-7.74588e-08
-7.79662e-08
-7.85712e-08
-7.51848e-08
-7.53441e-08
-7.56304e-08
-7.60711e-08
-7.66765e-08
-7.42319e-08
-7.43724e-08
-7.46648e-08
-7.51137e-08
-7.57211e-08
-8.62291e-08
-8.66071e-08
-8.72265e-08
-8.80609e-08
-8.90112e-08
-8.21986e-08
-8.2489e-08
-8.30043e-08
-8.38144e-08
-8.47571e-08
-7.87303e-08
-7.89754e-08
-7.9458e-08
-8.02091e-08
-8.11738e-08
-7.62048e-08
-7.64109e-08
-7.6879e-08
-7.7601e-08
-7.85682e-08
-7.48252e-08
-7.50438e-08
-7.55261e-08
-7.62629e-08
-7.72089e-08
-8.97594e-08
-9.01387e-08
-9.08834e-08
-9.19906e-08
-9.33552e-08
-8.40066e-08
-8.43386e-08
-8.50693e-08
-8.62179e-08
-8.75673e-08
-7.91532e-08
-7.94763e-08
-8.02157e-08
-8.13068e-08
-8.26833e-08
-7.56444e-08
-7.59598e-08
-7.66947e-08
-7.7785e-08
-7.91505e-08
-7.37665e-08
-7.41089e-08
-7.4853e-08
-7.59486e-08
-7.72834e-08
-9.21349e-08
-9.26172e-08
-9.36408e-08
-9.51461e-08
-9.69624e-08
-8.43199e-08
-8.4799e-08
-8.58651e-08
-8.74286e-08
-8.92277e-08
-7.77695e-08
-7.82552e-08
-7.93223e-08
-8.08364e-08
-8.26614e-08
-7.30236e-08
-7.35056e-08
-7.45683e-08
-7.6093e-08
-7.78983e-08
-7.05107e-08
-7.1021e-08
-7.2081e-08
-7.36032e-08
-7.54002e-08
-9.33609e-08
-9.40659e-08
-9.54779e-08
-9.74853e-08
-9.98126e-08
-8.28983e-08
-8.36201e-08
-8.50924e-08
-8.71408e-08
-8.94903e-08
-7.41131e-08
-7.48208e-08
-7.62718e-08
-7.8302e-08
-8.06789e-08
-6.77099e-08
-6.84051e-08
-6.9854e-08
-7.19058e-08
-7.4272e-08
-6.43358e-08
-6.50515e-08
-6.65021e-08
-6.8558e-08
-7.09505e-08
-9.33865e-08
-9.44075e-08
-9.63427e-08
-9.90425e-08
-1.02108e-07
-7.93251e-08
-8.03573e-08
-8.23341e-08
-8.50357e-08
-8.81572e-08
-6.74524e-08
-6.84339e-08
-7.03729e-08
-7.30786e-08
-7.62122e-08
-5.87775e-08
-5.97467e-08
-6.16911e-08
-6.44319e-08
-6.7581e-08
-5.42252e-08
-5.52084e-08
-5.71831e-08
-5.99206e-08
-6.31017e-08
-9.18528e-08
-9.33133e-08
-9.60331e-08
-9.97919e-08
-1.04106e-07
-7.28274e-08
-7.42517e-08
-7.69281e-08
-8.06065e-08
-8.48794e-08
-5.66799e-08
-5.8026e-08
-6.06421e-08
-6.42818e-08
-6.84802e-08
-4.49122e-08
-4.62541e-08
-4.88717e-08
-5.25098e-08
-5.67256e-08
-3.87596e-08
-4.01129e-08
-4.27603e-08
-4.63649e-08
-5.0561e-08
-8.80216e-08
-9.0074e-08
-9.39225e-08
-9.92487e-08
-1.05558e-07
-6.21859e-08
-6.4128e-08
-6.77911e-08
-7.28834e-08
-7.88599e-08
-4.02187e-08
-4.20718e-08
-4.56276e-08
-5.0544e-08
-5.62651e-08
-2.42768e-08
-2.61137e-08
-2.96145e-08
-3.44275e-08
-4.00668e-08
-1.59415e-08
-1.77646e-08
-2.12536e-08
-2.60091e-08
-3.1502e-08
-8.07652e-08
-8.35923e-08
-8.89352e-08
-9.64184e-08
-1.05527e-07
-4.56781e-08
-4.83153e-08
-5.333e-08
-6.0335e-08
-6.86703e-08
-1.58765e-08
-1.84087e-08
-2.32183e-08
-2.98498e-08
-3.76755e-08
5.7032e-09
3.24554e-09
-1.40939e-09
-7.82031e-09
-1.5317e-08
1.70327e-08
1.46228e-08
1.00136e-08
3.74094e-09
-3.45241e-09
-6.85891e-08
-7.24271e-08
-7.97174e-08
-9.00036e-08
-1.0254e-07
-2.09933e-08
-2.4564e-08
-3.13812e-08
-4.08763e-08
-5.22391e-08
1.93291e-08
1.59279e-08
9.4833e-09
5.76013e-10
-9.96679e-09
4.8541e-08
4.52968e-08
3.91069e-08
3.05934e-08
2.06875e-08
6.39246e-08
6.07386e-08
5.4674e-08
4.64593e-08
3.69371e-08
-4.95027e-08
-5.47204e-08
-6.46146e-08
-7.84844e-08
-9.51389e-08
1.49251e-08
1.00962e-08
9.21569e-10
-1.1815e-08
-2.7009e-08
6.93498e-08
6.48464e-08
5.62832e-08
4.44328e-08
3.04429e-08
1.08846e-07
1.0457e-07
9.64154e-08
8.52435e-08
7.21758e-08
1.29627e-07
1.25439e-07
1.17573e-07
1.06828e-07
9.4225e-08
-2.09822e-08
-2.81021e-08
-4.14788e-08
-6.01269e-08
-8.2383e-08
6.6118e-08
5.96034e-08
4.73305e-08
3.03091e-08
1.00622e-08
1.39335e-07
1.3339e-07
1.22117e-07
1.06525e-07
8.80672e-08
1.92578e-07
1.86913e-07
1.76326e-07
1.61743e-07
1.44579e-07
2.20478e-07
2.14971e-07
2.04865e-07
1.90867e-07
1.74397e-07
2.00517e-08
1.05286e-08
-7.4009e-09
-3.24927e-08
-6.26356e-08
1.38098e-07
1.29276e-07
1.12863e-07
9.01638e-08
6.30162e-08
2.35898e-07
2.28036e-07
2.1341e-07
1.93064e-07
1.68686e-07
3.07521e-07
2.99889e-07
2.86317e-07
2.67338e-07
2.44815e-07
3.44705e-07
3.37343e-07
3.24604e-07
3.06516e-07
2.85105e-07
7.70246e-08
6.48085e-08
4.13736e-08
8.1196e-09
-3.27896e-08
2.3896e-07
2.26635e-07
2.04538e-07
1.74279e-07
1.37227e-07
3.67242e-07
3.57031e-07
3.38541e-07
3.12412e-07
2.79626e-07
4.64222e-07
4.53448e-07
4.36398e-07
4.11786e-07
3.81549e-07
5.13199e-07
5.02989e-07
4.87618e-07
4.64412e-07
4.35958e-07
1.51514e-07
1.36913e-07
1.08157e-07
6.62093e-08
1.00693e-08
3.82317e-07
3.63559e-07
3.32732e-07
2.92375e-07
2.3875e-07
5.42392e-07
5.30007e-07
5.0797e-07
4.76735e-07
4.28956e-07
6.77762e-07
6.60945e-07
6.40139e-07
6.08676e-07
5.6408e-07
7.39971e-07
7.25181e-07
7.08263e-07
6.79392e-07
6.37438e-07
2.41782e-07
2.25781e-07
1.9353e-07
1.47678e-07
6.61234e-08
5.90509e-07
5.59715e-07
5.1396e-07
4.61398e-07
3.72632e-07
7.70129e-07
7.57195e-07
7.32698e-07
7.05678e-07
6.23632e-07
9.70784e-07
9.41253e-07
9.15721e-07
8.77823e-07
8.01239e-07
1.04146e-06
1.02013e-06
1.00495e-06
9.73229e-07
9.00591e-07
3.49985e-07
3.34356e-07
2.98364e-07
2.65944e-07
1.31964e-07
8.90588e-07
8.4075e-07
7.705e-07
7.08138e-07
5.47051e-07
1.06283e-06
1.05371e-06
1.02162e-06
1.02892e-06
8.74492e-07
1.37329e-06
1.31975e-06
1.2858e-06
1.24434e-06
1.10762e-06
1.43864e-06
1.40675e-06
1.39895e-06
1.37494e-06
1.24334e-06
4.84883e-07
4.76922e-07
4.28291e-07
4.52844e-07
2.06756e-07
1.31406e-06
1.23553e-06
1.12538e-06
1.06212e-06
7.80182e-07
1.43793e-06
1.45278e-06
1.38238e-06
1.48538e-06
1.1962e-06
1.92183e-06
1.82159e-06
1.77661e-06
1.7353e-06
1.50348e-06
1.95774e-06
1.90722e-06
1.91106e-06
1.92194e-06
1.69147e-06
6.51043e-07
6.80503e-07
5.7543e-07
7.45287e-07
2.76738e-07
1.89842e-06
1.77454e-06
1.59637e-06
1.53724e-06
1.08729e-06
1.89965e-06
1.99635e-06
1.8201e-06
2.11407e-06
1.59121e-06
2.64575e-06
2.45402e-06
2.40973e-06
2.35807e-06
2.00311e-06
2.60842e-06
2.53427e-06
2.56857e-06
2.63839e-06
2.27307e-06
8.95137e-07
1.01393e-06
7.19092e-07
1.04269e-06
2.12582e-07
2.74563e-06
2.51219e-06
2.21881e-06
2.11022e-06
1.47925e-06
2.46829e-06
2.74205e-06
2.36107e-06
2.96295e-06
2.07803e-06
3.50661e-06
3.20825e-06
3.22185e-06
3.1175e-06
2.61583e-06
3.40194e-06
3.27877e-06
3.43385e-06
3.52534e-06
3.01737e-06
2.447e-06
2.93308e-06
2.57556e-06
4.56011e-06
2.49072e-06
4.52173e-06
4.18125e-06
4.55657e-06
4.75997e-06
3.42245e-06
4.34269e-06
5.37791e-06
3.86986e-06
6.34415e-06
3.77713e-06
6.64369e-06
5.37305e-06
5.54615e-06
5.73145e-06
4.00286e-06
5.7308e-06
5.38787e-06
5.18554e-06
6.63414e-06
4.37985e-06
-1.01482e-06
-7.70521e-07
-1.09948e-06
-8.78256e-07
-1.42884e-06
3.90771e-06
3.12526e-06
1.93616e-06
1.5729e-06
9.75027e-07
1.59829e-06
2.09281e-06
2.23607e-06
1.97514e-06
2.13453e-06
3.78587e-06
2.71882e-06
3.29181e-06
2.20015e-06
3.37289e-06
3.46304e-06
2.47781e-06
4.91261e-06
2.48449e-06
5.57069e-06
6.96438e-06
1.02439e-05
6.02778e-06
1.85402e-05
8.65205e-06
9.15111e-06
6.1225e-06
1.24649e-05
1.31654e-05
8.82782e-06
8.2666e-06
1.67684e-05
4.92079e-06
1.75771e-05
6.48393e-06
1.90485e-05
8.87044e-06
1.31707e-05
1.18644e-05
4.19351e-06
1.18118e-05
9.78059e-06
8.59884e-06
1.64198e-05
2.72528e-06
-3.7336e-06
-4.5811e-06
-1.93626e-06
-1.11806e-05
1.33283e-06
1.08835e-05
1.34775e-05
-3.14316e-06
3.92796e-07
5.97972e-06
-2.74935e-06
-8.49166e-06
4.33006e-06
-3.95714e-06
6.19311e-06
-5.49921e-06
-4.19465e-07
-2.56867e-06
-1.67972e-06
3.84956e-06
8.57195e-07
-2.85442e-06
1.48886e-05
-6.88875e-06
2.51412e-05
8.46072e-06
2.22869e-05
-2.14891e-05
5.97932e-05
5.01186e-05
-9.52764e-06
-4.11403e-05
3.4829e-05
3.4524e-05
2.02089e-05
-3.00355e-06
6.20599e-05
-2.32423e-05
2.24518e-05
8.28927e-06
7.60423e-05
-1.7728e-05
3.89702e-05
7.90557e-06
-1.9801e-05
7.29672e-06
1.00346e-06
-1.48006e-05
3.1588e-05
-7.79071e-05
0.000945987
0.000498764
0.00124084
0.000688052
0.000897501
0.000524177
0.000467676
0.000682484
0.000710821
0.000647923
0.000534171
0.00040866
0.000498906
0.000629613
0.000621909
0.000673565
0.000641666
0.000547032
0.000949663
0.00143391
0.000471701
0.00049875
0.000312665
0.000810765
0.000467683
0.00168196
0.0015355
0.00198144
0.00140081
0.00127232
0.00141864
0.00143661
0.00153973
0.00158907
0.00174212
0.00132234
0.000959736
0.00141836
0.0016284
0.00166054
0.00129769
0.00137471
0.00166312
0.00158509
0.00176219
0.00123024
0.00142838
0.00122944
0.0013028
0.00184156
0.00306008
0.00258915
0.00239077
0.00300299
0.00263433
0.00183286
0.00220613
0.00252253
0.00257495
0.00268609
0.00257764
0.00253751
0.002616
0.00239293
0.00237918
0.00226578
0.00234587
0.00264358
0.00232799
0.00284161
0.00274808
0.0026292
0.00251915
0.00279947
0.00266776
0.00323288
0.00327341
0.00316351
0.00289323
0.00315438
0.00336153
0.00301841
0.00315289
0.00333324
0.00344193
0.00420099
0.0033634
0.00338596
0.00325272
0.00345394
0.00261911
0.00347787
0.00340231
0.00348808
0.00410836
0.00363142
0.00408086
0.00368399
0.00372827
0.00387365
0.00363297
0.00440503
0.00396913
0.00354122
0.00369561
0.00441775
0.00432967
0.00393439
0.00412994
0.00396428
0.00436637
0.00413407
0.0043456
0.00405807
0.004674
0.00449644
0.00421112
0.00411643
0.0042169
0.00434298
0.00399657
0.00424802
0.00443529
0.00469156
0.00438361
0.00618053
0.00595673
0.00481875
0.00515006
0.0048948
0.00604545
0.00566589
0.00539808
0.0052228
0.00488826
0.00548652
0.00554097
0.00565316
0.00501233
0.00510632
0.00614
0.00531628
0.0047927
0.00514766
0.00484557
0.0046024
0.00518053
0.00514046
0.00503425
0.0047104
0.00665259
0.00651984
0.00635069
0.00603802
0.0063389
0.00689748
0.00659138
0.00631403
0.00612905
0.00588182
0.00687073
0.00654878
0.0061672
0.00632349
0.00547016
0.00723551
0.0066047
0.00611337
0.00600009
0.00575863
0.00652766
0.00603949
0.00588067
0.00551008
0.00528403
0.00766943
0.00692111
0.00753191
0.00719386
0.00737006
0.00708128
0.00723221
0.00716311
0.00683981
0.0071324
0.00754682
0.00742426
0.00706417
0.00704487
0.00662151
0.00749523
0.00746149
0.00755379
0.00706252
0.00708927
0.0077588
0.00662841
0.00725855
0.00711299
0.00781058
0.00878916
0.0085639
0.00808691
0.00799292
0.00771206
0.00772816
0.00783011
0.00796106
0.00761737
0.00778704
0.00799323
0.00810802
0.00838416
0.00807272
0.00764927
0.00797907
0.00808848
0.00815931
0.00794487
0.00813282
0.00857574
0.00835085
0.00810233
0.00793499
0.00833474
0.00896195
0.00901423
0.00859291
0.00834155
0.00829584
0.00883228
0.00866933
0.00880022
0.00881538
0.00822155
0.00900146
0.00888465
0.00887496
0.00883442
0.00872806
0.0089946
0.00907232
0.00891213
0.00889755
0.00880733
0.00905168
0.0091463
0.00889215
0.00885046
0.00867733
0.00914765
0.00916132
0.00916854
0.00915407
0.00920335
0.00915929
0.00917275
0.00917835
0.00919031
0.0091907
0.00916829
0.00918452
0.00913497
0.00915253
0.00918093
0.00915525
0.00917225
0.00918075
0.00918641
0.00920179
0.00916642
0.00918329
0.00918089
0.0091744
0.00912944
0.00917975
0.00918066
0.00919278
0.00920727
0.00920921
0.00919103
0.00919002
0.00918418
0.00919391
0.00920964
0.00916944
0.00916787
0.00917752
0.00918973
0.00920163
0.00917595
0.00917662
0.00916875
0.00918201
0.00916309
0.00915969
0.00917071
0.00916219
0.00918537
0.00918294
0.0091815
0.00918444
0.00918801
0.00919164
0.00919792
0.00918575
0.00919075
0.00919138
0.00919702
0.00919786
0.00918286
0.00918639
0.00918344
0.00919037
0.00919293
0.0091817
0.009186
0.00918758
0.0091935
0.00919569
0.00918021
0.00918528
0.00918475
0.0091913
0.00918697
0.00918545
0.00918641
0.00918888
0.00919111
0.00919312
0.0091887
0.00919004
0.00919016
0.00919273
0.00919381
0.0091831
0.00918412
0.00918598
0.00919016
0.00919182
0.00918444
0.00918621
0.0091851
0.00919046
0.00918902
0.00918124
0.00918383
0.00918286
0.00918933
0.00918863
0.00918655
0.00918728
0.00918844
0.00918965
0.00919113
0.00918869
0.00918988
0.00918998
0.00919163
0.00919207
0.00918595
0.00918711
0.00918756
0.0091901
0.0091907
0.0091868
0.00918831
0.00918806
0.00919113
0.00919039
0.00918549
0.00918727
0.00918696
0.00919032
0.00918936
0.00918762
0.00918804
0.00918871
0.00918956
0.00919038
0.00918913
0.00918979
0.00918987
0.00919094
0.00919119
0.00918735
0.00918802
0.00918841
0.00919005
0.00919035
0.00918805
0.009189
0.00918881
0.00919089
0.00919026
0.00918722
0.00918825
0.0091881
0.00919035
0.0091898
0.00918832
0.00918858
0.00918898
0.00918957
0.00919007
0.00918934
0.00918975
0.00918982
0.00919052
0.0091907
0.00918827
0.00918872
0.00918896
0.00919001
0.00919012
0.0091888
0.0091894
0.00918928
0.00919063
0.00919024
0.00918831
0.00918893
0.00918889
0.00919031
0.00919002
0.00918878
0.00918898
0.00918923
0.00918965
0.00918996
0.00918952
0.00918973
0.00918982
0.00919028
0.00919042
0.00918887
0.00918916
0.00918931
0.00919001
0.00919009
0.00918925
0.00918961
0.00918956
0.00919042
0.00919023
0.00918896
0.00918935
0.00918934
0.00919025
0.0091901
0.00918915
0.00918927
0.00918944
0.00918974
0.00918994
0.00918963
0.00918976
0.00918984
0.00919014
0.00919026
0.00918925
0.00918945
0.00918954
0.00919001
0.00919007
0.00918952
0.00918975
0.00918973
0.00919028
0.0091902
0.00918935
0.00918959
0.00918961
0.0091902
0.00919013
0.0091894
0.00918948
0.00918959
0.00918982
0.00918994
0.00918971
0.00918979
0.00918985
0.00919006
0.00919015
0.0091895
0.00918963
0.00918969
0.00919001
0.00919006
0.00918968
0.00918983
0.00918983
0.00919018
0.00919015
0.00918959
0.00918974
0.00918976
0.00919015
0.00919012
0.00918957
0.00918963
0.0091897
0.00918985
0.00918996
0.00918977
0.00918982
0.00918987
0.00919
0.00919008
0.00918966
0.00918975
0.0091898
0.00919001
0.00919005
0.00918978
0.00918987
0.00918988
0.00919012
0.00919011
0.00918973
0.00918983
0.00918985
0.00919011
0.0091901
0.0091897
0.00918974
0.00918978
0.00918989
0.00918996
0.00918981
0.00918984
0.00918988
0.00918998
0.00919004
0.00918977
0.00918983
0.00918986
0.00919001
0.00919004
0.00918984
0.0091899
0.00918991
0.00919007
0.00919007
0.00918982
0.00918989
0.00918991
0.00919008
0.00919008
0.00918978
0.00918981
0.00918984
0.00918991
0.00918996
0.00918984
0.00918987
0.0091899
0.00918996
0.00919001
0.00918984
0.00918988
0.0091899
0.00919
0.00919003
0.00918988
0.00918992
0.00918993
0.00919004
0.00919005
0.00918987
0.00918992
0.00918994
0.00919005
0.00919005
0.00918983
0.00918985
0.00918988
0.00918992
0.00918996
0.00918987
0.00918989
0.00918991
0.00918996
0.00919
0.00918988
0.00918991
0.00918992
0.00918999
0.00919002
0.0091899
0.00918993
0.00918994
0.00919001
0.00919003
0.00918991
0.00918994
0.00918995
0.00919002
0.00919004
0.00918987
0.00918988
0.0091899
0.00918993
0.00918996
0.00918989
0.0091899
0.00918992
0.00918996
0.00918999
0.00918991
0.00918992
0.00918993
0.00918998
0.00919001
0.00918992
0.00918994
0.00918995
0.00919
0.00919002
0.00918993
0.00918995
0.00918995
0.00919001
0.00919002
0.00918989
0.0091899
0.00918991
0.00918994
0.00918996
0.00918991
0.00918992
0.00918993
0.00918996
0.00918998
0.00918992
0.00918993
0.00918995
0.00918997
0.00919
0.00918993
0.00918994
0.00918995
0.00918999
0.00919001
0.00918994
0.00918995
0.00918996
0.00918999
0.00919001
0.00918991
0.00918991
0.00918993
0.00918994
0.00918996
0.00918992
0.00918993
0.00918994
0.00918996
0.00918998
0.00918993
0.00918994
0.00918995
0.00918997
0.00918999
0.00918994
0.00918995
0.00918996
0.00918998
0.00919
0.00918994
0.00918995
0.00918996
0.00918998
0.00919
0.00918992
0.00918992
0.00918993
0.00918994
0.00918996
0.00918993
0.00918994
0.00918994
0.00918996
0.00918997
0.00918994
0.00918994
0.00918995
0.00918997
0.00918998
0.00918994
0.00918995
0.00918996
0.00918997
0.00918999
0.00918995
0.00918995
0.00918996
0.00918998
0.00918999
0.00918993
0.00918993
0.00918994
0.00918995
0.00918996
0.00918994
0.00918994
0.00918995
0.00918996
0.00918997
0.00918994
0.00918995
0.00918995
0.00918996
0.00918997
0.00918995
0.00918995
0.00918996
0.00918997
0.00918998
0.00918995
0.00918995
0.00918996
0.00918997
0.00918998
0.00918993
0.00918994
0.00918994
0.00918995
0.00918995
0.00918994
0.00918994
0.00918995
0.00918995
0.00918996
0.00918994
0.00918995
0.00918995
0.00918996
0.00918997
0.00918995
0.00918995
0.00918996
0.00918996
0.00918997
0.00918995
0.00918995
0.00918996
0.00918996
0.00918997
0.00918994
0.00918994
0.00918994
0.00918995
0.00918995
0.00918994
0.00918994
0.00918995
0.00918995
0.00918996
0.00918995
0.00918995
0.00918995
0.00918996
0.00918996
0.00918995
0.00918995
0.00918995
0.00918996
0.00918996
0.00918995
0.00918995
0.00918995
0.00918996
0.00918997
0.00918994
0.00918994
0.00918994
0.00918995
0.00918995
0.00918994
0.00918994
0.00918995
0.00918995
0.00918995
0.00918995
0.00918995
0.00918995
0.00918995
0.00918996
0.00918995
0.00918995
0.00918995
0.00918995
0.00918996
0.00918995
0.00918995
0.00918995
0.00918996
0.00918996
0.00918994
0.00918994
0.00918994
0.00918995
0.00918995
0.00918994
0.00918994
0.00918995
0.00918995
0.00918995
0.00918995
0.00918995
0.00918995
0.00918995
0.00918995
0.00918995
0.00918995
0.00918995
0.00918995
0.00918996
0.00918995
0.00918995
0.00918995
0.00918995
0.00918996
0.00918994
0.00918994
0.00918994
0.00918994
0.00918995
0.00918994
0.00918994
0.00918995
0.00918995
0.00918995
0.00918995
0.00918995
0.00918995
0.00918995
0.00918995
0.00918995
0.00918995
0.00918995
0.00918995
0.00918995
0.00918995
0.00918995
0.00918995
0.00918995
0.00918995
0.00918994
0.00918994
0.00918994
0.00918994
0.00918995
0.00918994
0.00918994
0.00918995
0.00918995
0.00918995
0.00918995
0.00918995
0.00918995
0.00918995
0.00918995
0.00918995
0.00918995
0.00918995
0.00918995
0.00918995
0.00918995
0.00918995
0.00918995
0.00918995
0.00918995
0.00918994
0.00918994
0.00918994
0.00918994
0.00918995
0.00918994
0.00918994
0.00918995
0.00918995
0.00918995
0.00918995
0.00918995
0.00918995
0.00918995
0.00918995
0.00918995
0.00918995
0.00918995
0.00918995
0.00918995
0.00918995
0.00918995
0.00918995
0.00918995
0.00918995
0.00918994
0.00918994
0.00918994
0.00918995
0.00918995
0.00918995
0.00918995
0.00918995
0.00918995
0.00918995
0.00918995
0.00918995
0.00918995
0.00918995
0.00918995
0.00918995
0.00918995
0.00918995
0.00918995
0.00918995
0.00918995
0.00918995
0.00918995
0.00918995
0.00918995
0.00918995
0.00918995
0.00918995
0.00918995
0.00918995
0.00918995
0.00918995
0.00918995
0.00918995
0.00918995
0.00918995
0.00918995
0.00918995
0.00918995
0.00918995
0.00918995
0.00918995
0.00918995
0.00918995
0.00918995
0.00918995
0.00918995
0.00918995
0.00918995
0.00918995
0.00918995
0.00918995
0.00918995
0.00918995
0.00918995
0.00918995
0.00918995
0.00918995
0.00918995
0.00918995
0.00918995
0.00918995
0.00918995
0.00918995
0.00918995
0.00918995
0.00918995
0.00918995
0.00918995
0.00918995
0.00918995
0.00918995
0.00918995
0.00918995
0.00918995
0.00918995
0.00918995
0.00918995
0.00918995
0.00918995
0.00918995
0.00918995
0.00918995
0.00918995
0.00918995
0.00918995
0.00918995
0.00918995
0.00918995
0.00918995
0.00918995
0.00918995
0.00918995
0.00918995
0.00918995
0.00918995
0.00918995
0.00918995
0.00918995
0.00918995
0.00918995
0.00918995
0.00918995
0.00918995
0.00918995
0.00918995
0.00918995
0.00918995
0.00918995
0.00918995
0.00918995
0.00918995
0.00918995
0.00918995
0.00918995
0.00918995
0.00918995
0.00918995
0.00918995
0.00918995
0.00918995
0.00918995
0.00918995
0.00918995
0.00918995
0.00918995
0.00918995
0.00918995
0.00918995
0.00918995
0.00918995
0.00918995
0.00918995
0.00918995
0.00918995
0.00918995
0.00918995
0.00918995
0.00918995
0.00918995
0.00918995
0.00918995
0.00918995
0.00918995
0.00918995
0.00918995
0.00918995
0.00918995
0.00918995
0.00918995
0.00918995
0.00918995
0.00918995
0.00918995
0.00918995
0.00918995
0.00918995
0.00918995
0.00918995
0.00918995
0.00918995
0.00918995
0.00918995
0.00918995
0.00918995
0.00918995
0.00918995
0.00918995
0.00918995
0.00918995
0.00918995
0.00918995
0.00918995
0.00918995
0.00918995
0.00918995
0.00918995
0.00918995
0.00918995
0.00918995
0.00918995
0.00918995
0.00918995
0.00918995
0.00918995
0.00918995
0.00918995
0.00918995
0.00918995
0.00918995
0.00918995
0.00918995
0.00918995
0.00918995
0.00918995
0.00918995
0.00918995
0.00918995
0.00918995
0.00918995
0.00918995
0.00918995
0.00918995
0.00918995
0.00918995
0.00918995
0.00918995
0.00918995
0.00918995
0.00918995
0.00918995
0.00918995
0.00918995
0.00918995
0.00918995
0.00918995
0.00918995
0.00918995
0.00918995
0.00918995
0.00918995
0.00918995
0.00918995
0.00918995
0.00918995
0.00918995
0.00918995
0.00918995
0.00918995
0.00918995
0.00918995
0.00918995
0.00918995
0.00918995
0.00918995
0.00918995
0.00918995
0.00918995
0.00918995
0.00918995
0.00918995
0.00918995
0.00918995
0.00918995
0.00918995
0.00918995
0.00918995
0.00918995
0.00918995
0.00918995
0.00918995
0.00918995
0.00918995
0.00918995
0.00918995
0.00918995
0.00918995
0.00918995
0.00918995
0.00918995
0.00918995
0.00918995
0.00918995
0.00918995
0.00918995
0.00918995
0.00918995
0.00918995
0.00918995
0.00918995
0.00918995
0.00918995
0.00918995
0.00918995
0.00918995
0.00918995
0.00918995
0.00918995
0.00918995
0.00918995
0.00918995
0.00918995
0.00918995
0.00918995
0.00918995
0.00918995
0.00918995
0.00918995
0.00918995
0.00918995
0.00918995
0.00918995
0.00918995
0.00918995
0.00918995
0.00918995
0.00918995
0.00918995
0.00918995
0.00918995
0.00918995
0.00918995
0.00918995
0.00918995
0.00918995
0.00918995
0.00918995
0.00918995
0.00918995
0.00918995
0.00918995
0.00918995
0.00918995
0.00918995
0.00918995
0.00918995
0.00918995
0.00918995
0.00918995
0.00918995
0.00918995
0.00918995
0.00918995
0.00918995
0.00918995
)
;

boundaryField
{
    inlet
    {
        type            zeroGradient;
    }
    outlet
    {
        type            fixedValue;
        value           uniform 0;
    }
    repeat_boundary
    {
        type            zeroGradient;
    }
    procBoundary2to0
    {
        type            processor;
        value           nonuniform List<scalar> 
450
(
-3.26074e-09
-3.24917e-09
-3.23368e-09
-3.25485e-09
-3.29622e-09
-9.61648e-09
-9.59499e-09
-9.60894e-09
-9.70904e-09
-9.88438e-09
-1.57504e-08
-1.57872e-08
-1.58614e-08
-1.60184e-08
-1.62658e-08
-2.17768e-08
-2.18823e-08
-2.19501e-08
-2.20239e-08
-2.22236e-08
-2.76341e-08
-2.77146e-08
-2.77039e-08
-2.76742e-08
-2.78508e-08
-3.3114e-08
-3.31111e-08
-3.30602e-08
-3.30422e-08
-3.31886e-08
-3.82202e-08
-3.81966e-08
-3.82145e-08
-3.82774e-08
-3.82711e-08
-4.32363e-08
-4.32931e-08
-4.34239e-08
-4.35133e-08
-4.32847e-08
-4.83389e-08
-4.84836e-08
-4.86683e-08
-4.87299e-08
-4.84333e-08
-5.337e-08
-5.35178e-08
-5.36728e-08
-5.37167e-08
-5.35618e-08
-5.81342e-08
-5.82122e-08
-5.82793e-08
-5.82969e-08
-5.8287e-08
-6.26614e-08
-6.26433e-08
-6.25952e-08
-6.2544e-08
-6.25382e-08
-6.70103e-08
-6.68963e-08
-6.6776e-08
-6.66935e-08
-6.66643e-08
-7.1146e-08
-7.0993e-08
-7.09435e-08
-7.09876e-08
-7.11038e-08
-7.52365e-08
-7.51796e-08
-7.53625e-08
-7.56852e-08
-7.61458e-08
-7.97523e-08
-7.99091e-08
-8.03553e-08
-8.09538e-08
-8.17741e-08
-8.49617e-08
-8.53087e-08
-8.58921e-08
-8.66403e-08
-8.76537e-08
-9.04946e-08
-9.09061e-08
-9.15276e-08
-9.23994e-08
-9.3545e-08
-9.5684e-08
-9.61074e-08
-9.68544e-08
-9.80144e-08
-9.95072e-08
-1.00244e-07
-1.00757e-07
-1.01801e-07
-1.03415e-07
-1.0548e-07
-1.04351e-07
-1.05063e-07
-1.06534e-07
-1.08697e-07
-1.11403e-07
-1.08228e-07
-1.09256e-07
-1.11312e-07
-1.14229e-07
-1.17797e-07
-1.11916e-07
-1.13419e-07
-1.16317e-07
-1.20366e-07
-1.25312e-07
-1.15223e-07
-1.17386e-07
-1.21471e-07
-1.27145e-07
-1.34086e-07
-1.17694e-07
-1.20734e-07
-1.26424e-07
-1.34358e-07
-1.43996e-07
-1.18696e-07
-1.22863e-07
-1.3071e-07
-1.41702e-07
-1.54851e-07
-1.17385e-07
-1.23049e-07
-1.33866e-07
-1.48908e-07
-1.66672e-07
-1.12634e-07
-1.20417e-07
-1.35313e-07
-1.5587e-07
-1.80086e-07
-1.02719e-07
-1.13527e-07
-1.34024e-07
-1.62333e-07
-1.95733e-07
-8.40016e-08
-9.93318e-08
-1.27869e-07
-1.6719e-07
-2.1357e-07
-4.77181e-08
-7.04618e-08
-1.11702e-07
-1.67373e-07
-2.32689e-07
2.27213e-08
-1.21483e-08
-7.37054e-08
-1.54125e-07
-2.49204e-07
1.46136e-07
9.25673e-08
1.33429e-09
-1.12554e-07
-2.55696e-07
3.43536e-07
2.59442e-07
1.24427e-07
-2.92965e-08
-2.52443e-07
6.41443e-07
4.93936e-07
2.86946e-07
9.11926e-08
-2.65077e-07
1.12673e-06
8.05961e-07
3.91186e-07
1.61986e-07
-3.66522e-07
2.96497e-06
2.84359e-06
2.71502e-06
2.73658e-06
1.44482e-06
1.06191e-06
-8.31923e-07
-1.7957e-06
-2.93778e-06
-2.84225e-06
9.96756e-06
8.7002e-06
9.14484e-06
8.1711e-06
3.96755e-06
7.02497e-06