/*--------------------------------*- C++ -*----------------------------------*\
| =========                 |                                                 |
| \\      /  F ield         | OpenFOAM: The Open Source CFD Toolbox           |
|  \\    /   O peration     | Version:  5.x                                   |
|   \\  /    A nd           | Web:      www.OpenFOAM.org                      |
|    \\/     M anipulation  |                                                 |
\*---------------------------------------------------------------------------*/
FoamFile
{
    version     2.0;
    format      ascii;
    class       volVectorField;
    location    "0.1";
    object      stored_U;
}
// * * * * * * * * * * * * * * * * * * * * * * * * * * * * * * * * * * * * * //

dimensions      [0 1 -1 0 0 0 0];

internalField   nonuniform List<vector> 
2250
(
(-3.45678e-11 -1.52641e-10 -0.00100001)
(-8.91483e-11 -1.45577e-10 -0.00100001)
(-1.42848e-10 -1.7166e-10 -0.00100001)
(-2.11112e-10 -1.89278e-10 -0.00100001)
(-2.65948e-10 -1.90286e-10 -0.00100001)
(-2.63829e-11 -1.05859e-10 -0.00100001)
(-1.05391e-10 -1.10258e-10 -0.00100001)
(-1.88104e-10 -1.32549e-10 -0.00100001)
(-2.4334e-10 -1.59758e-10 -0.00100001)
(-2.48733e-10 -1.76685e-10 -0.00100001)
(-3.86975e-11 -9.65648e-11 -0.00100001)
(-1.15555e-10 -1.03817e-10 -0.00100001)
(-1.9231e-10 -1.04616e-10 -0.00100001)
(-2.55216e-10 -1.08985e-10 -0.00100001)
(-2.49451e-10 -1.03883e-10 -0.00100001)
(-3.33885e-11 -8.2181e-11 -0.00100001)
(-1.13179e-10 -7.26619e-11 -0.00100001)
(-1.9322e-10 -7.81035e-11 -0.00100001)
(-2.42562e-10 -6.47311e-11 -0.00100001)
(-2.39029e-10 -4.09569e-11 -0.00100001)
(-2.89447e-11 -3.00867e-11 -0.00100001)
(-1.11038e-10 -2.57626e-11 -0.00100001)
(-1.83952e-10 -2.82427e-11 -0.00100001)
(-2.17568e-10 -1.69094e-11 -0.00100001)
(-2.24719e-10 -3.7684e-12 -0.00100001)
(-8.22997e-11 -4.27777e-10 -0.00100001)
(-2.39099e-10 -4.34565e-10 -0.00100001)
(-4.11353e-10 -4.76143e-10 -0.00100001)
(-5.76234e-10 -5.11319e-10 -0.00100001)
(-6.95991e-10 -4.78169e-10 -0.00100001)
(-8.61212e-11 -3.31825e-10 -0.00100001)
(-2.87181e-10 -3.52862e-10 -0.00100001)
(-4.96709e-10 -4.04572e-10 -0.00100001)
(-6.37891e-10 -4.50283e-10 -0.00100001)
(-6.55169e-10 -4.72749e-10 -0.00100001)
(-1.02593e-10 -2.83522e-10 -0.00100001)
(-3.11111e-10 -2.99916e-10 -0.00100001)
(-5.08689e-10 -3.10262e-10 -0.00100001)
(-6.44418e-10 -2.98741e-10 -0.00100001)
(-6.35148e-10 -2.76213e-10 -0.00100001)
(-1.01909e-10 -1.99334e-10 -0.00100001)
(-3.13288e-10 -2.0714e-10 -0.00100001)
(-4.95406e-10 -2.04149e-10 -0.00100001)
(-6.03754e-10 -1.61772e-10 -0.00100001)
(-6.09664e-10 -1.05469e-10 -0.00100001)
(-1.0979e-10 -6.91688e-11 -0.00100001)
(-3.14896e-10 -7.73551e-11 -0.00100001)
(-4.62341e-10 -7.1483e-11 -0.00100001)
(-5.44586e-10 -4.52436e-11 -0.00100001)
(-5.75545e-10 -1.3509e-11 -0.00100001)
(-1.68922e-10 -8.21052e-10 -0.00100001)
(-4.85727e-10 -8.37383e-10 -0.00100001)
(-7.66392e-10 -8.72668e-10 -0.00100001)
(-9.48584e-10 -8.97481e-10 -0.00100001)
(-1.17592e-09 -8.09301e-10 -0.00100001)
(-1.76659e-10 -7.15873e-10 -0.00100001)
(-5.21561e-10 -7.3277e-10 -0.00100001)
(-8.27651e-10 -7.69615e-10 -0.00100001)
(-1.02683e-09 -7.9542e-10 -0.00100001)
(-1.09771e-09 -8.34727e-10 -0.00100001)
(-1.84354e-10 -5.78729e-10 -0.00100001)
(-5.38006e-10 -5.91289e-10 -0.00100001)
(-8.28911e-10 -5.88721e-10 -0.00100001)
(-1.01369e-09 -5.57309e-10 -0.00100001)
(-1.05389e-09 -5.26995e-10 -0.00100001)
(-1.8811e-10 -3.77924e-10 -0.00100001)
(-5.30367e-10 -3.86946e-10 -0.00100001)
(-7.93455e-10 -3.63165e-10 -0.00100001)
(-9.64962e-10 -3.15097e-10 -0.00100001)
(-1.02162e-09 -2.75226e-10 -0.00100001)
(-1.92354e-10 -1.29057e-10 -0.00100001)
(-5.21521e-10 -1.33843e-10 -0.00100001)
(-7.55462e-10 -1.21412e-10 -0.00100001)
(-9.23785e-10 -9.73651e-11 -0.00100001)
(-1.00301e-09 -8.21397e-11 -0.00100001)
(-2.86001e-10 -1.31284e-09 -0.001)
(-7.8413e-10 -1.31304e-09 -0.00100001)
(-1.16281e-09 -1.32639e-09 -0.00100001)
(-1.38661e-09 -1.34008e-09 -0.00100001)
(-1.69976e-09 -1.20321e-09 -0.00100001)
(-2.76923e-10 -1.19679e-09 -0.00100001)
(-7.748e-10 -1.18561e-09 -0.00100001)
(-1.17959e-09 -1.18454e-09 -0.00100001)
(-1.45883e-09 -1.18667e-09 -0.00100001)
(-1.60927e-09 -1.22964e-09 -0.00100001)
(-2.72638e-10 -9.34846e-10 -0.00100001)
(-7.69584e-10 -9.28293e-10 -0.00100001)
(-1.16366e-09 -9.18353e-10 -0.00100001)
(-1.4317e-09 -8.86304e-10 -0.00100001)
(-1.57163e-09 -8.66392e-10 -0.00100001)
(-2.68723e-10 -5.9202e-10 -0.00100001)
(-7.56483e-10 -5.86995e-10 -0.00100001)
(-1.13728e-09 -5.69602e-10 -0.00100001)
(-1.40664e-09 -5.42538e-10 -0.00100001)
(-1.55278e-09 -5.37358e-10 -0.00100001)
(-2.66142e-10 -2.00589e-10 -0.00100001)
(-7.44656e-10 -1.98831e-10 -0.00100001)
(-1.11685e-09 -1.90503e-10 -0.00100001)
(-1.3965e-09 -1.80546e-10 -0.00100001)
(-1.55098e-09 -1.83125e-10 -0.00100001)
(-3.95427e-10 -1.8928e-09 -0.001)
(-1.08671e-09 -1.87331e-09 -0.001)
(-1.64793e-09 -1.87662e-09 -0.00100001)
(-1.99774e-09 -1.89601e-09 -0.00100001)
(-2.39765e-09 -1.69225e-09 -0.00100001)
(-3.69431e-10 -1.7188e-09 -0.001)
(-1.05517e-09 -1.69491e-09 -0.00100001)
(-1.64095e-09 -1.68837e-09 -0.00100001)
(-2.07132e-09 -1.67044e-09 -0.00100001)
(-2.29152e-09 -1.72175e-09 -0.00100001)
(-3.68587e-10 -1.3413e-09 -0.00100001)
(-1.0531e-09 -1.33681e-09 -0.00100001)
(-1.62317e-09 -1.34151e-09 -0.00100001)
(-2.03107e-09 -1.31963e-09 -0.00100001)
(-2.27374e-09 -1.30166e-09 -0.00100001)
(-3.62613e-10 -8.47534e-10 -0.00100001)
(-1.05279e-09 -8.47194e-10 -0.00100001)
(-1.62332e-09 -8.5103e-10 -0.00100001)
(-2.03115e-09 -8.46434e-10 -0.00100001)
(-2.27282e-09 -8.65209e-10 -0.00100001)
(-3.6619e-10 -2.85485e-10 -0.00100001)
(-1.05304e-09 -2.9015e-10 -0.00100001)
(-1.61901e-09 -2.88131e-10 -0.00100001)
(-2.04104e-09 -2.88912e-10 -0.00100001)
(-2.28557e-09 -3.01891e-10 -0.00100001)
(-5.12299e-10 -2.62174e-09 -0.001)
(-1.47226e-09 -2.61473e-09 -0.001)
(-2.33424e-09 -2.62544e-09 -0.001)
(-2.98124e-09 -2.63878e-09 -0.00100001)
(-3.27722e-09 -2.51987e-09 -0.00100001)
(-5.02869e-10 -2.37783e-09 -0.001)
(-1.46921e-09 -2.38038e-09 -0.001)
(-2.31626e-09 -2.3861e-09 -0.00100001)
(-2.94772e-09 -2.34789e-09 -0.00100001)
(-3.24834e-09 -2.31707e-09 -0.00100001)
(-5.10808e-10 -1.88722e-09 -0.001)
(-1.47617e-09 -1.89298e-09 -0.00100001)
(-2.30134e-09 -1.9094e-09 -0.00100001)
(-2.91212e-09 -1.8976e-09 -0.00100001)
(-3.2495e-09 -1.8903e-09 -0.00100001)
(-5.05325e-10 -1.20054e-09 -0.00100001)
(-1.48773e-09 -1.21088e-09 -0.00100001)
(-2.32025e-09 -1.22584e-09 -0.00100001)
(-2.92817e-09 -1.23604e-09 -0.00100001)
(-3.26681e-09 -1.26461e-09 -0.00100001)
(-5.18169e-10 -4.05904e-10 -0.00100001)
(-1.49642e-09 -4.20308e-10 -0.00100001)
(-2.32168e-09 -4.18e-10 -0.00100001)
(-2.94504e-09 -4.26084e-10 -0.00100001)
(-3.28713e-09 -4.40204e-10 -0.00100001)
(-7.01665e-10 -3.63379e-09 -0.001)
(-2.07238e-09 -3.64851e-09 -0.001)
(-3.2993e-09 -3.65129e-09 -0.001)
(-4.22179e-09 -3.6308e-09 -0.001)
(-4.49411e-09 -3.64456e-09 -0.00100001)
(-7.18556e-10 -3.31127e-09 -0.001)
(-2.09339e-09 -3.33752e-09 -0.001)
(-3.26648e-09 -3.33336e-09 -0.001)
(-4.14556e-09 -3.29172e-09 -0.00100001)
(-4.53637e-09 -3.24221e-09 -0.00100001)
(-7.22213e-10 -2.64092e-09 -0.001)
(-2.08835e-09 -2.64231e-09 -0.001)
(-3.25299e-09 -2.65229e-09 -0.00100001)
(-4.13065e-09 -2.65027e-09 -0.00100001)
(-4.56909e-09 -2.65136e-09 -0.00100001)
(-7.15359e-10 -1.68538e-09 -0.00100001)
(-2.09961e-09 -1.69965e-09 -0.00100001)
(-3.27355e-09 -1.71172e-09 -0.00100001)
(-4.14404e-09 -1.72367e-09 -0.00100001)
(-4.59326e-09 -1.73674e-09 -0.00100001)
(-7.32279e-10 -5.74577e-10 -0.00100001)
(-2.10753e-09 -5.93726e-10 -0.00100001)
(-3.27031e-09 -5.87341e-10 -0.00100001)
(-4.14764e-09 -5.96526e-10 -0.00100001)
(-4.60348e-09 -5.98282e-10 -0.00100001)
(-1.00697e-09 -5.02789e-09 -0.001)
(-2.95049e-09 -5.03864e-09 -0.001)
(-4.59618e-09 -5.01381e-09 -0.001)
(-5.74658e-09 -4.9681e-09 -0.001)
(-6.23767e-09 -4.99534e-09 -0.00100001)
(-1.02216e-09 -4.57691e-09 -0.001)
(-2.94912e-09 -4.58924e-09 -0.001)
(-4.54487e-09 -4.55482e-09 -0.001)
(-5.72359e-09 -4.52199e-09 -0.00100001)
(-6.2713e-09 -4.53571e-09 -0.00100001)
(-1.01149e-09 -3.6399e-09 -0.001)
(-2.91992e-09 -3.6293e-09 -0.001)
(-4.52818e-09 -3.61902e-09 -0.00100001)
(-5.72739e-09 -3.61366e-09 -0.00100001)
(-6.30807e-09 -3.61126e-09 -0.00100001)
(-1.00534e-09 -2.33386e-09 -0.001)
(-2.9212e-09 -2.34497e-09 -0.00100001)
(-4.52804e-09 -2.34138e-09 -0.00100001)
(-5.715e-09 -2.33557e-09 -0.00100001)
(-6.31845e-09 -2.31776e-09 -0.00100001)
(-1.01686e-09 -8.03363e-10 -0.00100001)
(-2.91763e-09 -8.17962e-10 -0.00100001)
(-4.50971e-09 -8.06458e-10 -0.00100001)
(-5.69284e-09 -8.07826e-10 -0.00100001)
(-6.30801e-09 -7.94391e-10 -0.00100001)
(-1.41508e-09 -6.89465e-09 -0.000999999)
(-4.09613e-09 -6.89004e-09 -0.001)
(-6.29309e-09 -6.84441e-09 -0.001)
(-7.81326e-09 -6.78716e-09 -0.001)
(-8.66618e-09 -6.73638e-09 -0.00100001)
(-1.4138e-09 -6.2445e-09 -0.001)
(-4.06228e-09 -6.23279e-09 -0.001)
(-6.23934e-09 -6.17738e-09 -0.001)
(-7.82918e-09 -6.14947e-09 -0.00100001)
(-8.61344e-09 -6.17654e-09 -0.00100001)
(-1.39287e-09 -4.97223e-09 -0.001)
(-4.01749e-09 -4.9573e-09 -0.001)
(-6.20875e-09 -4.92159e-09 -0.00100001)
(-7.81234e-09 -4.89098e-09 -0.00100001)
(-8.60976e-09 -4.85746e-09 -0.00100001)
(-1.39047e-09 -3.205e-09 -0.001)
(-4.00205e-09 -3.20544e-09 -0.001)
(-6.17139e-09 -3.17728e-09 -0.00100001)
(-7.76393e-09 -3.14567e-09 -0.00100001)
(-8.59585e-09 -3.10715e-09 -0.00100001)
(-1.3855e-09 -1.10943e-09 -0.001)
(-3.97645e-09 -1.10865e-09 -0.00100001)
(-6.13672e-09 -1.09286e-09 -0.00100001)
(-7.72731e-09 -1.08509e-09 -0.00100001)
(-8.57314e-09 -1.07012e-09 -0.00100001)
(-1.92177e-09 -9.42053e-09 -0.000999996)
(-5.55155e-09 -9.41783e-09 -0.000999997)
(-8.54478e-09 -9.36746e-09 -0.000999999)
(-1.06521e-08 -9.30624e-09 -0.001)
(-1.19137e-08 -9.15878e-09 -0.00100001)
(-1.91542e-09 -8.51015e-09 -0.000999999)
(-5.51026e-09 -8.49642e-09 -0.001)
(-8.49032e-09 -8.43699e-09 -0.001)
(-1.06516e-08 -8.38995e-09 -0.00100001)
(-1.17723e-08 -8.38092e-09 -0.00100001)
(-1.8938e-09 -6.78784e-09 -0.001)
(-5.46276e-09 -6.77555e-09 -0.001)
(-8.43695e-09 -6.71864e-09 -0.001)
(-1.05959e-08 -6.66014e-09 -0.00100001)
(-1.17148e-08 -6.6038e-09 -0.00100001)
(-1.89159e-09 -4.37692e-09 -0.001)
(-5.42791e-09 -4.36069e-09 -0.001)
(-8.37269e-09 -4.31556e-09 -0.00100001)
(-1.05353e-08 -4.27823e-09 -0.00100001)
(-1.16848e-08 -4.25154e-09 -0.00100001)
(-1.86689e-09 -1.51254e-09 -0.001)
(-5.38327e-09 -1.49352e-09 -0.00100001)
(-8.33778e-09 -1.48011e-09 -0.00100001)
(-1.05115e-08 -1.4738e-09 -0.00100001)
(-1.16664e-08 -1.47537e-09 -0.00100001)
(-2.58169e-09 -1.28684e-08 -0.000999992)
(-7.47157e-09 -1.28781e-08 -0.000999993)
(-1.15624e-08 -1.28288e-08 -0.000999996)
(-1.44986e-08 -1.27663e-08 -0.001)
(-1.61707e-08 -1.26182e-08 -0.00100001)
(-2.5759e-09 -1.16227e-08 -0.000999996)
(-7.43379e-09 -1.16178e-08 -0.000999997)
(-1.15036e-08 -1.15617e-08 -0.001)
(-1.44548e-08 -1.14973e-08 -0.001)
(-1.60364e-08 -1.14516e-08 -0.00100001)
(-2.55727e-09 -9.24873e-09 -0.000999999)
(-7.38922e-09 -9.23852e-09 -0.001)
(-1.14401e-08 -9.18017e-09 -0.001)
(-1.43883e-08 -9.12675e-09 -0.00100001)
(-1.59555e-08 -9.08494e-09 -0.00100001)
(-2.54981e-09 -5.94361e-09 -0.001)
(-7.34724e-09 -5.91876e-09 -0.001)
(-1.13888e-08 -5.88366e-09 -0.00100001)
(-1.43574e-08 -5.87326e-09 -0.00100001)
(-1.59226e-08 -5.88319e-09 -0.00100002)
(-2.51788e-09 -2.04461e-09 -0.001)
(-7.30456e-09 -2.02036e-09 -0.001)
(-1.13716e-08 -2.01856e-09 -0.00100001)
(-1.43598e-08 -2.02407e-09 -0.00100001)
(-1.59137e-08 -2.04695e-09 -0.00100002)
(-3.47857e-09 -1.75296e-08 -0.000999987)
(-1.00759e-08 -1.75449e-08 -0.000999989)
(-1.56434e-08 -1.7499e-08 -0.000999993)
(-1.96781e-08 -1.74486e-08 -0.000999998)
(-2.18886e-08 -1.73618e-08 -0.00100001)
(-3.46601e-09 -1.58198e-08 -0.000999992)
(-1.0037e-08 -1.58182e-08 -0.000999994)
(-1.5589e-08 -1.57759e-08 -0.000999998)
(-1.96371e-08 -1.57237e-08 -0.001)
(-2.18174e-08 -1.56932e-08 -0.00100001)
(-3.45041e-09 -1.25507e-08 -0.000999997)
(-1.0003e-08 -1.25485e-08 -0.000999999)
(-1.55463e-08 -1.25183e-08 -0.001)
(-1.95951e-08 -1.25039e-08 -0.00100001)
(-2.17529e-08 -1.24923e-08 -0.00100002)
(-3.44226e-09 -8.05207e-09 -0.001)
(-9.98024e-09 -8.04224e-09 -0.001)
(-1.55403e-08 -8.03865e-09 -0.00100001)
(-1.96083e-08 -8.06134e-09 -0.00100001)
(-2.17174e-08 -8.09735e-09 -0.00100002)
(-3.42086e-09 -2.7665e-09 -0.001)
(-9.95593e-09 -2.75554e-09 -0.001)
(-1.55339e-08 -2.76492e-09 -0.00100001)
(-1.96156e-08 -2.77777e-09 -0.00100001)
(-2.17033e-08 -2.80771e-09 -0.00100002)
(-4.70083e-09 -2.38206e-08 -0.00099998)
(-1.36366e-08 -2.38405e-08 -0.000999983)
(-2.12208e-08 -2.38002e-08 -0.000999988)
(-2.67749e-08 -2.37619e-08 -0.000999996)
(-2.97276e-08 -2.37419e-08 -0.00100001)
(-4.68414e-09 -2.14651e-08 -0.000999987)
(-1.36055e-08 -2.14752e-08 -0.00099999)
(-2.11871e-08 -2.14595e-08 -0.000999995)
(-2.67473e-08 -2.14364e-08 -0.001)
(-2.96954e-08 -2.14064e-08 -0.00100001)
(-4.67517e-09 -1.7022e-08 -0.000999993)
(-1.35919e-08 -1.70437e-08 -0.000999996)
(-2.11785e-08 -1.70486e-08 -0.001)
(-2.67215e-08 -1.70619e-08 -0.00100001)
(-2.96414e-08 -1.70435e-08 -0.00100002)
(-4.67683e-09 -1.09378e-08 -0.000999998)
(-1.35992e-08 -1.09565e-08 -0.001)
(-2.11997e-08 -1.09711e-08 -0.00100001)
(-2.67384e-08 -1.09922e-08 -0.00100001)
(-2.95874e-08 -1.10094e-08 -0.00100002)
(-4.66708e-09 -3.76696e-09 -0.001)
(-1.35794e-08 -3.77141e-09 -0.001)
(-2.11714e-08 -3.77813e-09 -0.00100001)
(-2.67077e-08 -3.78202e-09 -0.00100002)
(-2.954e-08 -3.79581e-09 -0.00100003)
(-6.3767e-09 -3.24035e-08 -0.00099997)
(-1.85374e-08 -3.24349e-08 -0.000999974)
(-2.88963e-08 -3.23822e-08 -0.000999982)
(-3.65159e-08 -3.23099e-08 -0.000999992)
(-4.05367e-08 -3.22758e-08 -0.001)
(-6.36773e-09 -2.91844e-08 -0.00099998)
(-1.852e-08 -2.92213e-08 -0.000999984)
(-2.88637e-08 -2.92118e-08 -0.000999992)
(-3.64592e-08 -2.91787e-08 -0.001)
(-4.04288e-08 -2.90896e-08 -0.00100001)
(-6.36535e-09 -2.31634e-08 -0.000999988)
(-1.8512e-08 -2.32076e-08 -0.000999993)
(-2.8849e-08 -2.32061e-08 -0.001)
(-3.63934e-08 -2.31867e-08 -0.00100001)
(-4.03276e-08 -2.31011e-08 -0.00100002)
(-6.37288e-09 -1.4909e-08 -0.000999995)
(-1.85184e-08 -1.49359e-08 -0.000999999)
(-2.88351e-08 -1.49287e-08 -0.00100001)
(-3.63489e-08 -1.49017e-08 -0.00100002)
(-4.02297e-08 -1.48554e-08 -0.00100003)
(-6.356e-09 -5.14399e-09 -0.000999998)
(-1.84695e-08 -5.14645e-09 -0.001)
(-2.87563e-08 -5.13731e-09 -0.00100001)
(-3.62492e-08 -5.12069e-09 -0.00100002)
(-4.01225e-08 -5.10347e-09 -0.00100003)
(-8.69453e-09 -4.41762e-08 -0.000999957)
(-2.52888e-08 -4.42097e-08 -0.000999963)
(-3.94146e-08 -4.40963e-08 -0.000999973)
(-4.97746e-08 -4.39132e-08 -0.000999988)
(-5.52831e-08 -4.3734e-08 -0.001)
(-8.68597e-09 -3.98076e-08 -0.000999971)
(-2.52429e-08 -3.98523e-08 -0.000999976)
(-3.93082e-08 -3.97789e-08 -0.000999987)
(-4.96084e-08 -3.96553e-08 -0.001)
(-5.49931e-08 -3.94479e-08 -0.00100002)
(-8.67394e-09 -3.15955e-08 -0.000999982)
(-2.51886e-08 -3.16262e-08 -0.000999988)
(-3.92112e-08 -3.15547e-08 -0.000999998)
(-4.9443e-08 -3.14389e-08 -0.00100001)
(-5.47798e-08 -3.1254e-08 -0.00100003)
(-8.66377e-09 -2.03271e-08 -0.000999991)
(-2.51419e-08 -2.03268e-08 -0.000999996)
(-3.91105e-08 -2.027e-08 -0.00100001)
(-4.93006e-08 -2.01728e-08 -0.00100002)
(-5.46161e-08 -2.00514e-08 -0.00100004)
(-8.62442e-09 -7.00741e-09 -0.000999995)
(-2.5047e-08 -6.99434e-09 -0.001)
(-3.89777e-08 -6.96979e-09 -0.00100001)
(-4.91281e-08 -6.93377e-09 -0.00100002)
(-5.44318e-08 -6.88703e-09 -0.00100004)
(-1.18736e-08 -6.02511e-08 -0.00099994)
(-3.44889e-08 -6.02509e-08 -0.000999947)
(-5.36773e-08 -6.00238e-08 -0.000999961)
(-6.76836e-08 -5.96869e-08 -0.000999981)
(-7.51788e-08 -5.92803e-08 -0.001)
(-1.18311e-08 -5.43078e-08 -0.000999958)
(-3.43363e-08 -5.43075e-08 -0.000999966)
(-5.34181e-08 -5.41023e-08 -0.00099998)
(-6.73566e-08 -5.38274e-08 -0.000999999)
(-7.46949e-08 -5.34825e-08 -0.00100002)
(-1.17848e-08 -4.30717e-08 -0.000999974)
(-3.41864e-08 -4.30498e-08 -0.000999981)
(-5.31884e-08 -4.2878e-08 -0.000999995)
(-6.70631e-08 -4.26385e-08 -0.00100001)
(-7.43455e-08 -4.23511e-08 -0.00100004)
(-1.17376e-08 -2.76684e-08 -0.000999985)
(-3.40611e-08 -2.76312e-08 -0.000999993)
(-5.29927e-08 -2.75258e-08 -0.00100001)
(-6.682e-08 -2.73603e-08 -0.00100003)
(-7.40972e-08 -2.71674e-08 -0.00100005)
(-1.16809e-08 -9.52e-09 -0.000999991)
(-3.3929e-08 -9.49894e-09 -0.000999999)
(-5.28094e-08 -9.46585e-09 -0.00100001)
(-6.65734e-08 -9.414e-09 -0.00100003)
(-7.38188e-08 -9.34148e-09 -0.00100005)
(-1.61627e-08 -8.2103e-08 -0.000999916)
(-4.68901e-08 -8.20329e-08 -0.000999926)
(-7.29186e-08 -8.16626e-08 -0.000999945)
(-9.18914e-08 -8.11681e-08 -0.000999972)
(-1.02005e-07 -8.05479e-08 -0.001)
(-1.60575e-08 -7.398e-08 -0.000999941)
(-4.65883e-08 -7.39033e-08 -0.000999951)
(-7.24871e-08 -7.35564e-08 -0.00099997)
(-9.13915e-08 -7.31119e-08 -0.000999996)
(-1.01367e-07 -7.26121e-08 -0.00100003)
(-1.59665e-08 -5.86474e-08 -0.000999962)
(-4.63352e-08 -5.85724e-08 -0.000999973)
(-7.21153e-08 -5.83069e-08 -0.000999991)
(-9.09461e-08 -5.79299e-08 -0.00100002)
(-1.00872e-07 -5.75119e-08 -0.00100005)
(-1.58858e-08 -3.76436e-08 -0.000999978)
(-4.61376e-08 -3.759e-08 -0.000999988)
(-7.18254e-08 -3.74358e-08 -0.00100001)
(-9.05832e-08 -3.71939e-08 -0.00100003)
(-1.00502e-07 -3.69038e-08 -0.00100006)
(-1.58228e-08 -1.294e-08 -0.000999986)
(-4.59716e-08 -1.29254e-08 -0.000999996)
(-7.15717e-08 -1.28799e-08 -0.00100002)
(-9.02352e-08 -1.28057e-08 -0.00100004)
(-1.00102e-07 -1.26985e-08 -0.00100007)
(-2.19293e-08 -1.11842e-07 -0.000999883)
(-6.36285e-08 -1.11689e-07 -0.000999897)
(-9.89866e-08 -1.11143e-07 -0.000999923)
(-1.24779e-07 -1.10433e-07 -0.000999959)
(-1.38455e-07 -1.09554e-07 -0.001)
(-2.1761e-08 -1.00745e-07 -0.000999918)
(-6.31817e-08 -1.00605e-07 -0.000999932)
(-9.83719e-08 -1.00117e-07 -0.000999957)
(-1.24049e-07 -9.94558e-08 -0.000999993)
(-1.37575e-07 -9.87113e-08 -0.00100003)
(-2.16279e-08 -7.98731e-08 -0.000999947)
(-6.28234e-08 -7.97645e-08 -0.000999961)
(-9.78212e-08 -7.93847e-08 -0.000999986)
(-1.23371e-07 -7.88164e-08 -0.00100002)
(-1.36852e-07 -7.81795e-08 -0.00100006)
(-2.15219e-08 -5.12722e-08 -0.000999968)
(-6.25443e-08 -5.12124e-08 -0.000999982)
(-9.73976e-08 -5.0975e-08 -0.00100001)
(-1.22826e-07 -5.06169e-08 -0.00100004)
(-1.36285e-07 -5.01741e-08 -0.00100008)
(-2.14459e-08 -1.76283e-08 -0.00099998)
(-6.23146e-08 -1.76178e-08 -0.000999993)
(-9.70247e-08 -1.75427e-08 -0.00100002)
(-1.22327e-07 -1.74278e-08 -0.00100005)
(-1.35724e-07 -1.72705e-08 -0.00100009)
(-2.97557e-08 -1.5244e-07 -0.000999839)
(-8.63957e-08 -1.52188e-07 -0.000999858)
(-1.34475e-07 -1.51371e-07 -0.000999894)
(-1.69552e-07 -1.50267e-07 -0.000999942)
(-1.88137e-07 -1.48915e-07 -0.000999999)
(-2.95197e-08 -1.37318e-07 -0.000999886)
(-8.57593e-08 -1.37109e-07 -0.000999905)
(-1.33557e-07 -1.3639e-07 -0.00099994)
(-1.68407e-07 -1.35367e-07 -0.000999988)
(-1.86767e-07 -1.34191e-07 -0.00100004)
(-2.93296e-08 -1.08883e-07 -0.000999926)
(-8.52282e-08 -1.08722e-07 -0.000999945)
(-1.32712e-07 -1.08135e-07 -0.000999979)
(-1.67351e-07 -1.07268e-07 -0.00100003)
(-1.85638e-07 -1.06282e-07 -0.00100008)
(-2.91821e-08 -6.99098e-08 -0.000999955)
(-8.48103e-08 -6.98143e-08 -0.000999974)
(-1.32069e-07 -6.94302e-08 -0.00100001)
(-1.66529e-07 -6.8884e-08 -0.00100006)
(-1.84761e-07 -6.82216e-08 -0.00100011)
(-2.90685e-08 -2.4047e-08 -0.000999971)
(-8.44611e-08 -2.40226e-08 -0.000999989)
(-1.31507e-07 -2.38943e-08 -0.00100002)
(-1.65809e-07 -2.37109e-08 -0.00100007)
(-1.83974e-07 -2.34853e-08 -0.00100013)
(-4.04288e-08 -2.07919e-07 -0.00099978)
(-1.17409e-07 -2.07509e-07 -0.000999806)
(-1.8274e-07 -2.06247e-07 -0.000999854)
(-2.30376e-07 -2.04495e-07 -0.000999919)
(-2.55666e-07 -2.02384e-07 -0.000999997)
(-4.00791e-08 -1.87302e-07 -0.000999844)
(-1.16437e-07 -1.86949e-07 -0.000999869)
(-1.81287e-07 -1.85809e-07 -0.000999917)
(-2.28554e-07 -1.84207e-07 -0.000999982)
(-2.53524e-07 -1.82358e-07 -0.00100006)
(-3.97836e-08 -1.48498e-07 -0.000999898)
(-1.15593e-07 -1.4821e-07 -0.000999923)
(-1.79968e-07 -1.47274e-07 -0.00099997)
(-2.26923e-07 -1.45953e-07 -0.00100003)
(-2.5175e-07 -1.44438e-07 -0.00100011)
(-3.95539e-08 -9.5342e-08 -0.000999938)
(-1.14941e-07 -9.51564e-08 -0.000999963)
(-1.7898e-07 -9.45448e-08 -0.00100001)
(-2.25684e-07 -9.37064e-08 -0.00100007)
(-2.50405e-07 -9.27239e-08 -0.00100015)
(-3.9374e-08 -3.28023e-08 -0.000999959)
(-1.14405e-07 -3.27436e-08 -0.000999984)
(-1.78144e-07 -3.25345e-08 -0.00100003)
(-2.24647e-07 -3.22482e-08 -0.00100009)
(-2.49277e-07 -3.19214e-08 -0.00100017)
(-5.49325e-08 -2.83729e-07 -0.000999699)
(-1.59511e-07 -2.83046e-07 -0.000999734)
(-2.48229e-07 -2.81082e-07 -0.000999799)
(-3.12912e-07 -2.78343e-07 -0.000999889)
(-3.47336e-07 -2.75114e-07 -0.000999994)
(-5.43917e-08 -2.55535e-07 -0.000999787)
(-1.5799e-07 -2.54914e-07 -0.000999821)
(-2.4593e-07 -2.53103e-07 -0.000999885)
(-3.10071e-07 -2.50614e-07 -0.000999974)
(-3.4407e-07 -2.47758e-07 -0.00100008)
(-5.39169e-08 -2.0253e-07 -0.000999861)
(-1.56644e-07 -2.02012e-07 -0.000999895)
(-2.43889e-07 -2.00533e-07 -0.000999958)
(-3.07563e-07 -1.98517e-07 -0.00100005)
(-3.41309e-07 -1.96192e-07 -0.00100015)
(-5.35543e-08 -1.30009e-07 -0.000999915)
(-1.55627e-07 -1.29671e-07 -0.000999949)
(-2.42369e-07 -1.28721e-07 -0.00100001)
(-3.05684e-07 -1.27436e-07 -0.0010001)
(-3.3925e-07 -1.25956e-07 -0.0010002)
(-5.32759e-08 -4.47325e-08 -0.000999944)
(-1.54826e-07 -4.46185e-08 -0.000999978)
(-2.41143e-07 -4.4296e-08 -0.00100004)
(-3.04176e-07 -4.38588e-08 -0.00100013)
(-3.37597e-07 -4.33687e-08 -0.00100023)
(-7.45934e-08 -3.87366e-07 -0.00099959)
(-2.16598e-07 -3.86223e-07 -0.000999638)
(-3.37096e-07 -3.83151e-07 -0.000999726)
(-4.25015e-07 -3.78887e-07 -0.000999847)
(-4.71893e-07 -3.73918e-07 -0.00099999)
(-7.37475e-08 -3.48701e-07 -0.00099971)
(-2.14211e-07 -3.47627e-07 -0.000999757)
(-3.33474e-07 -3.44777e-07 -0.000999843)
(-4.20568e-07 -3.40892e-07 -0.000999963)
(-4.66894e-07 -3.36448e-07 -0.0010001)
(-7.29914e-08 -2.76249e-07 -0.000999811)
(-2.12089e-07 -2.75359e-07 -0.000999857)
(-3.30306e-07 -2.73046e-07 -0.000999943)
(-4.16682e-07 -2.69927e-07 -0.00100006)
(-4.62602e-07 -2.6633e-07 -0.0010002)
(-7.24298e-08 -1.773e-07 -0.000999884)
(-2.10515e-07 -1.76727e-07 -0.00099993)
(-3.27952e-07 -1.75259e-07 -0.00100001)
(-4.1379e-07 -1.73259e-07 -0.00100013)
(-4.59415e-07 -1.70975e-07 -0.00100027)
(-7.20103e-08 -6.10071e-08 -0.000999925)
(-2.09328e-07 -6.08107e-08 -0.00099997)
(-3.26138e-07 -6.03187e-08 -0.00100005)
(-4.11548e-07 -5.96357e-08 -0.00100017)
(-4.56952e-07 -5.88713e-08 -0.00100031)
(-1.01248e-07 -5.29144e-07 -0.000999443)
(-2.94018e-07 -5.27232e-07 -0.000999507)
(-4.57698e-07 -5.22414e-07 -0.000999627)
(-5.7731e-07 -5.15809e-07 -0.000999791)
(-6.41127e-07 -5.08141e-07 -0.000999986)
(-9.99083e-08 -4.76016e-07 -0.000999606)
(-2.90245e-07 -4.74197e-07 -0.000999669)
(-4.52002e-07 -4.6971e-07 -0.000999787)
(-5.70318e-07 -4.6362e-07 -0.000999948)
(-6.33453e-07 -4.56642e-07 -0.00100014)
(-9.8721e-08 -3.76933e-07 -0.000999744)
(-2.86927e-07 -3.75447e-07 -0.000999807)
(-4.47047e-07 -3.71818e-07 -0.000999922)
(-5.64236e-07 -3.66914e-07 -0.00100008)
(-6.26781e-07 -3.6129e-07 -0.00100027)
(-9.78501e-08 -2.41889e-07 -0.000999845)
(-2.8447e-07 -2.40934e-07 -0.000999906)
(-4.43347e-07 -2.38612e-07 -0.00100002)
(-5.59704e-07 -2.35441e-07 -0.00100018)
(-6.21801e-07 -2.31834e-07 -0.00100036)
(-9.72168e-08 -8.32349e-08 -0.0009999)
(-2.82674e-07 -8.29041e-08 -0.000999961)
(-4.40597e-07 -8.21182e-08 -0.00100007)
(-5.56294e-07 -8.10287e-08 -0.00100023)
(-6.18071e-07 -7.97968e-08 -0.00100041)
(-1.3735e-07 -7.23231e-07 -0.000999243)
(-3.98921e-07 -7.20061e-07 -0.00099933)
(-6.2123e-07 -7.12534e-07 -0.000999492)
(-7.8405e-07 -7.02355e-07 -0.000999716)
(-8.70965e-07 -6.90629e-07 -0.000999979)
(-1.35234e-07 -6.50135e-07 -0.000999467)
(-3.92983e-07 -6.47106e-07 -0.000999552)
(-6.12331e-07 -6.4005e-07 -0.00099971)
(-7.73129e-07 -6.30507e-07 -0.000999929)
(-8.59209e-07 -6.1957e-07 -0.00100019)
(-1.33378e-07 -5.14571e-07 -0.000999656)
(-3.87785e-07 -5.12095e-07 -0.00099974)
(-6.0453e-07 -5.0635e-07 -0.000999895)
(-7.6356e-07 -4.98571e-07 -0.00100011)
(-8.48846e-07 -4.89702e-07 -0.00100036)
(-1.31995e-07 -3.3017e-07 -0.000999793)
(-3.83879e-07 -3.28544e-07 -0.000999875)
(-5.98641e-07 -3.24806e-07 -0.00100003)
(-7.56365e-07 -3.19742e-07 -0.00100024)
(-8.41015e-07 -3.13959e-07 -0.00100049)
(-1.31013e-07 -1.13608e-07 -0.000999868)
(-3.81098e-07 -1.13036e-07 -0.00099995)
(-5.94417e-07 -1.11754e-07 -0.0010001)
(-7.51118e-07 -1.10013e-07 -0.00100031)
(-8.35301e-07 -1.08002e-07 -0.00100056)
(-1.86192e-07 -9.89152e-07 -0.000998974)
(-5.40932e-07 -9.83925e-07 -0.000999091)
(-8.42834e-07 -9.72193e-07 -0.00099931)
(-1.06453e-06 -9.56469e-07 -0.000999613)
(-1.18322e-06 -9.38566e-07 -0.000999971)
(-1.82854e-07 -8.88466e-07 -0.00099928)
(-5.31615e-07 -8.83445e-07 -0.000999395)
(-8.28944e-07 -8.7232e-07 -0.000999608)
(-1.04755e-06 -8.5734e-07 -0.000999904)
(-1.16514e-06 -8.40269e-07 -0.00100025)
(-1.79919e-07 -7.02868e-07 -0.000999539)
(-5.23385e-07 -6.98692e-07 -0.000999651)
(-8.16593e-07 -6.89514e-07 -0.000999859)
(-1.03247e-06 -6.77143e-07 -0.00100015)
(-1.14899e-06 -6.63093e-07 -0.00100049)
(-1.77669e-07 -4.50929e-07 -0.000999726)
(-5.17084e-07 -4.48124e-07 -0.000999836)
(-8.07169e-07 -4.42091e-07 -0.00100004)
(-1.02097e-06 -4.33951e-07 -0.00100032)
(-1.13661e-06 -4.24659e-07 -0.00100066)
(-1.76125e-07 -1.5515e-07 -0.000999829)
(-5.12754e-07 -1.54161e-07 -0.000999938)
(-8.00622e-07 -1.52086e-07 -0.00100014)
(-1.01285e-06 -1.49265e-07 -0.00100042)
(-1.12783e-06 -1.4602e-07 -0.00100075)
(-2.52219e-07 -1.35384e-06 -0.000998609)
(-7.33108e-07 -1.34521e-06 -0.000998768)
(-1.14308e-06 -1.32683e-06 -0.000999065)
(-1.44495e-06 -1.30243e-06 -0.000999475)
(-1.60761e-06 -1.27501e-06 -0.000999961)
(-2.46892e-07 -1.215e-06 -0.00099903)
(-7.18338e-07 -1.20659e-06 -0.000999184)
(-1.12122e-06 -1.18888e-06 -0.000999471)
(-1.41851e-06 -1.16524e-06 -0.00099987)
(-1.57972e-06 -1.13862e-06 -0.00100034)
(-2.42154e-07 -9.60705e-07 -0.000999384)
(-7.05133e-07 -9.53568e-07 -0.000999533)
(-1.10155e-06 -9.388e-07 -0.000999813)
(-1.39466e-06 -9.18994e-07 -0.0010002)
(-1.55442e-06 -8.96682e-07 -0.00100066)
(-2.38429e-07 -6.16415e-07 -0.000999641)
(-6.94874e-07 -6.11555e-07 -0.000999787)
(-1.08634e-06 -6.01766e-07 -0.00100006)
(-1.37617e-06 -5.88547e-07 -0.00100044)
(-1.53474e-06 -5.73656e-07 -0.00100089)
(-2.35977e-07 -2.1212e-07 -0.000999783)
(-6.8806e-07 -2.10418e-07 -0.000999927)
(-1.07607e-06 -2.07036e-07 -0.0010002)
(-1.36354e-06 -2.0242e-07 -0.00100057)
(-1.52122e-06 -1.9724e-07 -0.00100101)
(-3.41415e-07 -1.85449e-06 -0.000998118)
(-9.9311e-07 -1.84009e-06 -0.000998332)
(-1.54986e-06 -1.81103e-06 -0.000998734)
(-1.96104e-06 -1.77302e-06 -0.00099929)
(-2.18478e-06 -1.73092e-06 -0.000999951)
(-3.32663e-07 -1.66297e-06 -0.000998697)
(-9.69157e-07 -1.64858e-06 -0.000998902)
(-1.51497e-06 -1.62008e-06 -0.000999288)
(-1.91954e-06 -1.58239e-06 -0.000999825)
(-2.14171e-06 -1.54061e-06 -0.00100047)
(-3.24876e-07 -1.31426e-06 -0.000999181)
(-9.47778e-07 -1.30185e-06 -0.000999379)
(-1.48342e-06 -1.27792e-06 -0.000999752)
(-1.88154e-06 -1.24581e-06 -0.00100027)
(-2.10199e-06 -1.21015e-06 -0.00100089)
(-3.18534e-07 -8.43994e-07 -0.000999536)
(-9.30776e-07 -8.35373e-07 -0.000999727)
(-1.45852e-06 -8.19393e-07 -0.00100009)
(-1.85147e-06 -7.97657e-07 -0.00100059)
(-2.07042e-06 -7.73619e-07 -0.0010012)
(-3.14513e-07 -2.90599e-07 -0.000999732)
(-9.19906e-07 -2.87588e-07 -0.000999918)
(-1.4423e-06 -2.82093e-07 -0.00100027)
(-1.83162e-06 -2.74512e-07 -0.00100077)
(-2.0494e-06 -2.66162e-07 -0.00100136)
(-4.61789e-07 -2.54237e-06 -0.000997452)
(-1.34483e-06 -2.5179e-06 -0.000997742)
(-2.10126e-06 -2.47165e-06 -0.000998287)
(-2.66192e-06 -2.41217e-06 -0.000999042)
(-2.97137e-06 -2.34708e-06 -0.000999941)
(-4.46683e-07 -2.27875e-06 -0.000998258)
(-1.30461e-06 -2.2535e-06 -0.000998528)
(-2.04424e-06 -2.2071e-06 -0.000999045)
(-2.59539e-06 -2.14602e-06 -0.000999767)
(-2.90462e-06 -2.07944e-06 -0.00100063)
(-4.33791e-07 -1.79994e-06 -0.000998918)
(-1.27002e-06 -1.77777e-06 -0.000999176)
(-1.99344e-06 -1.73896e-06 -0.000999673)
(-2.53423e-06 -1.686e-06 -0.00100036)
(-2.8423e-06 -1.62824e-06 -0.0010012)
(-4.22337e-07 -1.15891e-06 -0.000999412)
(-1.24098e-06 -1.14284e-06 -0.000999654)
(-1.9519e-06 -1.11687e-06 -0.00100013)
(-2.48426e-06 -1.08035e-06 -0.0010008)
(-2.79083e-06 -1.04095e-06 -0.0010016)
(-4.15461e-07 -3.99396e-07 -0.000999685)
(-1.22359e-06 -3.93871e-07 -0.000999919)
(-1.92627e-06 -3.85232e-07 -0.00100039)
(-2.45257e-06 -3.72579e-07 -0.00100104)
(-2.75798e-06 -3.58982e-07 -0.00100183)
(-6.24224e-07 -3.48777e-06 -0.000996541)
(-1.82154e-06 -3.4453e-06 -0.000996933)
(-2.85047e-06 -3.37137e-06 -0.000997679)
(-3.61523e-06 -3.27789e-06 -0.00099871)
(-4.04815e-06 -3.17536e-06 -0.000999933)
(-5.95909e-07 -3.12842e-06 -0.000997692)
(-1.7496e-06 -3.08252e-06 -0.000998039)
(-2.75302e-06 -3.00611e-06 -0.000998726)
(-3.50415e-06 -2.90485e-06 -0.00099969)
(-3.94396e-06 -2.79596e-06 -0.00100085)
(-5.74933e-07 -2.46832e-06 -0.000998574)
(-1.69519e-06 -2.42688e-06 -0.000998903)
(-2.67236e-06 -2.36509e-06 -0.000999567)
(-3.40503e-06 -2.27576e-06 -0.00100049)
(-3.84743e-06 -2.18055e-06 -0.00100159)
(-5.51876e-07 -1.59984e-06 -0.000999281)
(-1.64304e-06 -1.56715e-06 -0.000999566)
(-2.60114e-06 -1.52625e-06 -0.0010002)
(-3.31906e-06 -1.46262e-06 -0.00100106)
(-3.76159e-06 -1.39717e-06 -0.00100212)
(-5.39442e-07 -5.51531e-07 -0.000999664)
(-1.61578e-06 -5.40866e-07 -0.000999932)
(-2.56137e-06 -5.28644e-07 -0.00100056)
(-3.26799e-06 -5.07095e-07 -0.0010014)
(-3.71137e-06 -4.85139e-07 -0.00100243)
(-8.45445e-07 -4.7847e-06 -0.000995241)
(-2.4746e-06 -4.70932e-06 -0.000995786)
(-3.87751e-06 -4.59126e-06 -0.000996831)
(-4.91612e-06 -4.44483e-06 -0.000998262)
(-5.53644e-06 -4.27538e-06 -0.000999923)
(-7.83703e-07 -4.31132e-06 -0.000997016)
(-2.32869e-06 -4.22306e-06 -0.000997424)
(-3.69537e-06 -4.09531e-06 -0.000998319)
(-4.71562e-06 -3.92204e-06 -0.000999598)
(-5.3717e-06 -3.73484e-06 -0.0010011)
(-7.5336e-07 -3.38783e-06 -0.000998105)