/*--------------------------------*- C++ -*----------------------------------*\
| =========                 |                                                 |
| \\      /  F ield         | OpenFOAM: The Open Source CFD Toolbox           |
|  \\    /   O peration     | Version:  5.x                                   |
|   \\  /    A nd           | Web:      www.OpenFOAM.org                      |
|    \\/     M anipulation  |                                                 |
\*---------------------------------------------------------------------------*/
FoamFile
{
    version     2.0;
    format      ascii;
    class       volScalarField;
    location    "100";
    object      p;
}
// * * * * * * * * * * * * * * * * * * * * * * * * * * * * * * * * * * * * * //

dimensions      [0 2 -2 0 0 0 0];

internalField   nonuniform List<scalar> 
90
(
-0.41515
-0.947246
-1.49723
-2.19622
-2.85229
-3.51161
-4.35127
-5.24328
-5.93977
-6.74658
-7.77376
-8.93594
-10.3322
-11.9977
-13.9326
-16.2278
-18.9939
-22.2555
-25.7449
-28.7829
-31.2083
-33.1738
-34.2117
-34.0018
-35.6714
-39.5088
-43.7941
-48.206
-51.6883
-54.187
-55.887
-57.4529
-59.6108
-62.3807
-65.4279
-68.5583
-71.7151
-75.6302
-80.7038
-85.4244
-86.5252
-84.2568
-79.6779
-73.8052
-68.438
-64.0919
-61.7347
-63.1895
-69.4276
-82.3973
-102.794
-125.137
-147.192
-167.973
-186.444
-197.358
-206.28
-215.646
-223.799
-233.376
-246.285
-262.431
-282.373
-309.409
-341.426
-375.347
-383.51
-375.147
-351.391
-319.931
-290.69
-266.997
-252.316
-244.365
-240.772
-237.211
-231.083
-224.917
-218.048
-215.609
-217.682
-220
-222.771
-224.111
-223.648
-223.26
-223.968
-224.683
-225.457
-226.053
)
;

boundaryField
{
    inlet
    {
        type            zeroGradient;
    }
    outlet
    {
        type            fixedValue;
        value           uniform 0;
    }
    repeat_boundary
    {
        type            zeroGradient;
    }
    procBoundary2to0
    {
        type            processor;
        value           nonuniform List<scalar> 
90
(
-0.241589
-0.758319
-1.23771
-1.79363
-2.36344
-2.9404
-3.57483
-4.38066
-5.30026
-6.2534
-7.31153
-8.71579
-10.6408
-12.9709
-15.4402
-17.7233
-19.6761
-21.3337
-22.3284
-22.5315
-22.4848
-22.2378
-22.1836
-22.6547
-23.858
-26.3458
-30.6649
-36.3879
-42.8355
-48.8142
-54.466
-59.9151
-64.2872
-67.3374
-69.5098
-70.6087
-71.6788
-72.8113
-73.9093
-75.9786
-78.5865
-80.6532
-82.2896
-83.5446
-84.2836
-84.9688
-86.7314
-91.3164
-99.4455
-109.347
-119.543
-132.667
-151.927
-174.15
-191.843
-205.457
-215.325
-226.669
-242.71
-246.001
-247.096
-253.549
-263.283
-281.725
-287.748
-288.63
-286.473
-273.326
-256.336
-239.733
-228.267
-220.002
-212.247
-205.977
-201.104
-198.566
-199.011
-201.021
-203.745
-206.121
-208.589
-209.995
-207.914
-207.033
-206.971
-206.956
-208.555
-211.295
-214.124
-215.635
)
;
    }
    procBoundary2to3
    {
        type            processor;
        value           nonuniform List<scalar> 
90
(
-0.28521
-0.616427
-1.62832
-2.8531
-3.15045
-3.37152
-4.07634
-5.15572
-6.13103
-6.9997
-7.95212
-9.06672
-10.3471
-11.8765
-13.66
-15.7248
-18.0582
-20.6296
-23.4384
-26.5999
-30.1823
-34.193
-38.5258
-42.8929
-46.4451
-48.5806
-49.2933
-49.0729
-48.6828
-48.7089
-49.2898
-50.173
-51.5285
-54.5581
-58.7745
-61.3751
-60.4842
-59.3982
-63.0242
-70.75
-78.4594
-84.5688
-88.0093
-89.4551
-90.2186
-90.4271
-90.0865
-90.7226
-94.6072
-102.147
-113.412
-131.424
-149.326
-164.229
-173.755
-178.328
-183.185
-188.231
-196.077
-215.556
-237.94
-268.528
-320.306
-378.572
-390.637
-364.363
-304.041
-243.799
-196.291
-161.445
-153.665
-169.467
-190.035
-210.959
-233.289
-248.495
-266.429
-278.713
-271.717
-264.804
-261.324
-257.035
-250.321
-244.211
-238.463
-233.001
-228.514
-224.935
-222.251
-221.009
)
;
    }
}


// ************************************************************************* //
