/*--------------------------------*- C++ -*----------------------------------*\
| =========                 |                                                 |
| \\      /  F ield         | OpenFOAM: The Open Source CFD Toolbox           |
|  \\    /   O peration     | Version:  5.x                                   |
|   \\  /    A nd           | Web:      www.OpenFOAM.org                      |
|    \\/     M anipulation  |                                                 |
\*---------------------------------------------------------------------------*/
FoamFile
{
    version     2.0;
    format      ascii;
    class       surfaceScalarField;
    location    "100";
    object      phi;
}
// * * * * * * * * * * * * * * * * * * * * * * * * * * * * * * * * * * * * * //

dimensions      [0 3 -1 0 0 0 0];

internalField   nonuniform List<scalar> 
89
(
-32.0128
-35.5229
-39.0137
-42.3927
-45.3586
-48.606
-51.9903
-55.7694
-59.9219
-64.4548
-69.6809
-75.7952
-82.3327
-88.5982
-93.9758
-98.2535
-101.286
-102.933
-102.868
-101.375
-98.2888
-94.0958
-88.654
-82.0874
-74.0744
-62.5608
-48.3933
-33.9419
-20.7595
-8.18699
3.89734
14.1978
22.7086
30.6979
39.4288
47.8489
56.4752
65.8478
73.9032
79.2193
81.5899
77.3194
65.1009
45.5906
21.1183
-7.24136
-36.978
-59.584
-68.4779
-66.2234
-65.9418
-71.2803
-80.8191
-91.4157
-101.558
-112.232
-124.854
-142.108
-167.133
-200.442
-236.288
-277.438
-316.555
-348.48
-371.283
-382.465
-378.296
-372.459
-364.62
-346.536
-322.455
-303.531
-292.545
-280.98
-272.019
-268.078
-267.379
-270.394
-274.192
-283.513
-293.091
-298.311
-302.747
-307.214
-309.755
-312.631
-315.212
-316.322
-316.797
)
;

boundaryField
{
    inlet
    {
        type            calculated;
        value           uniform -316.355;
    }
    outlet
    {
        type            calculated;
        value           uniform 28.6026;
    }
    repeat_boundary
    {
        type            calculated;
        value           uniform 0;
    }
    procBoundary2to0
    {
        type            processor;
        value           nonuniform List<scalar> 
90
(
3.14328
3.3675
3.33867
3.03702
2.46082
2.66213
2.76107
2.89363
2.95657
3.1445
3.66078
4.35251
4.59028
4.16865
3.13563
1.86739
0.396101
-1.43895
-3.94318
-6.74073
-10.0188
-12.6616
-14.9738
-16.2887
-16.6992
-16.0134
-14.0919
-10.5095
-5.37436
-0.633834
2.93279
4.97842
5.2963
4.04743
1.30284
-0.910014
-2.33744
-3.55228
-4.03428
-4.94426
-5.39182
-3.23999
-0.278427
2.02255
3.10279
2.8917
-0.536013
-10.1586
-21.217
-25.7138
-22.2379
-16.3069
-9.72029
-5.14637
-2.07878
1.86407
6.70462
7.76192
9.16606
8.70759
7.77787
8.69206
7.11361
5.62274
5.06793
11.3112
13.177
17.4553
19.5541
16.1351
10.6713
3.14727
-4.38057
-12.6399
-16.8678
-18.3841
-16.4177
-14.4784
-10.9918
-4.62428
-3.79535
-4.85018
-4.71051
-3.25253
-3.85057
-1.50891
0.55486
1.44591
2.2337
2.84382
)
;
    }
    procBoundary2to3
    {
        type            processor;
        value           nonuniform List<scalar> 
90
(
0.266859
0.142658
0.152206
0.342081
0.505186
0.585318
0.623251
0.885528
1.19603
1.38847
1.56534
1.76173
1.94718
2.09669
2.24183
2.41027
2.63613
3.0858
3.87813
5.24785
6.93291
8.46855
9.53206
9.72211
8.68634
4.49985
-0.0754391
-3.94195
-7.80809
-11.9388
-15.0173
-15.2789
-13.8072
-12.0366
-10.0336
-7.51012
-6.28879
-5.82016
-4.02117
-0.37187
3.02112
7.51034
12.4969
17.4876
21.3694
25.4681
30.2728
32.7647
30.111
23.4595
21.9563
21.6454
19.2591
15.7428
12.221
8.80984
5.91694
9.49258
15.8582
24.6021
28.0678
32.4583
32.0033
26.3023
17.7347
-0.128333
-17.3467
-23.2919
-27.3939
-34.2189
-34.7518
-22.0711
-6.60566
1.0749
7.90637
14.4437
15.7182
17.4937
14.7895
13.945
13.3741
10.0701
9.14587
7.71955
6.39215
4.38545
2.02552
-0.33532
-1.75879
-3.28668
)
;
    }
}


// ************************************************************************* //
