/*--------------------------------*- C++ -*----------------------------------*\
| =========                 |                                                 |
| \\      /  F ield         | OpenFOAM: The Open Source CFD Toolbox           |
|  \\    /   O peration     | Version:  5.x                                   |
|   \\  /    A nd           | Web:      www.OpenFOAM.org                      |
|    \\/     M anipulation  |                                                 |
\*---------------------------------------------------------------------------*/
FoamFile
{
    version     2.0;
    format      ascii;
    class       surfaceScalarField;
    location    "900";
    object      phi;
}
// * * * * * * * * * * * * * * * * * * * * * * * * * * * * * * * * * * * * * //

dimensions      [0 3 -1 0 0 0 0];

internalField   nonuniform List<scalar> 
89
(
-0.0250001
-0.0250001
-0.0250002
-0.0250002
-0.0250002
-0.0250002
-0.0250002
-0.0250002
-0.0250002
-0.0250001
-0.025
-0.0249998
-0.0249996
-0.0249992
-0.0249987
-0.0249979
-0.0249968
-0.0249953
-0.0249932
-0.0249903
-0.0249862
-0.0249806
-0.024973
-0.0249626
-0.0249484
-0.0249291
-0.0249029
-0.0248674
-0.0248195
-0.0247549
-0.0246678
-0.0245508
-0.0243933
-0.024181
-0.0238949
-0.0235364
-0.0231259
-0.0227304
-0.0224166
-0.0232697
-0.023246
-0.0229689
-0.0226021
-0.0224778
-0.0228095
-0.0230295
-0.0228927
-0.0226132
-0.0225028
-0.0226904
-0.0229642
-0.0229881
-0.0232432
-0.0233673
-0.0237686
-0.0240967
-0.0243399
-0.0245196
-0.0246524
-0.0247502
-0.0248223
-0.0248743
-0.0249122
-0.0249396
-0.0249592
-0.0249733
-0.0249832
-0.0249901
-0.0249949
-0.024998
-0.0250001
-0.0250013
-0.025002
-0.0250024
-0.0250024
-0.0250024
-0.0250023
-0.0250021
-0.0250019
-0.0250017
-0.0250016
-0.0250014
-0.0250012
-0.0250011
-0.025001
-0.0250008
-0.0250007
-0.0250005
-0.0250004
)
;

boundaryField
{
    inlet
    {
        type            calculated;
        value           uniform -0.0250002;
    }
    outlet
    {
        type            calculated;
        value           uniform 0.0250001;
    }
    repeat_boundary
    {
        type            calculated;
        value           uniform 0;
    }
    procBoundary3to1
    {
        type            processor;
        value           nonuniform List<scalar> 
90
(
1.89722e-08
3.0922e-08
4.64351e-08
6.4327e-08
8.49789e-08
1.08938e-07
1.36718e-07
1.6877e-07
2.05481e-07
2.47143e-07
2.93913e-07
3.45745e-07
4.02264e-07
4.62614e-07
5.25239e-07
5.87022e-07
6.43083e-07
6.85805e-07
7.03331e-07
6.78812e-07
5.96502e-07
4.40362e-07
1.5381e-07
-3.78462e-07
-1.1908e-06
-2.43442e-06
-4.269e-06
-6.92856e-06
-1.07342e-05
-1.61232e-05
-2.36918e-05
-3.42592e-05
-4.89997e-05
-6.97333e-05
-9.85095e-05
-0.00012727
-0.000151003
-0.000151203
-0.00012331
0.000348306
-1.01732e-05
-7.26411e-05
-0.000134356
-9.46118e-05
0.000124877
-3.46396e-06
-0.000303967
-0.000458784
-0.000197164
-6.78082e-06
6.22678e-05
-8.75197e-05
8.1299e-05
0.000267479
0.000297626
0.000249668
0.000194524
0.000149942
0.000115439
8.88721e-05
6.84722e-05
5.28181e-05
4.07871e-05
3.15308e-05
2.44016e-05
1.89055e-05
1.46647e-05
1.13894e-05
8.8579e-06
6.89965e-06
5.38342e-06
4.20798e-06
3.29545e-06
2.58585e-06
2.03298e-06
1.60127e-06
1.2633e-06
9.97939e-07
7.88901e-07
6.2369e-07
4.92729e-07
3.88679e-07
3.05908e-07
2.40087e-07
1.87883e-07
1.46725e-07
1.14555e-07
8.95963e-08
7.07926e-08
6.25546e-08
)
;
    }
    procBoundary3to2
    {
        type            processor;
        value           nonuniform List<scalar> 
90
(
-2.01846e-08
-3.50832e-08
-5.34188e-08
-7.41281e-08
-9.79224e-08
-1.2601e-07
-1.5991e-07
-2.01579e-07
-2.53554e-07
-3.19074e-07
-4.02315e-07
-5.08614e-07
-6.4479e-07
-8.19594e-07
-1.0443e-06
-1.33347e-06
-1.70606e-06
-2.18674e-06
-2.80773e-06
-3.6112e-06
-4.65244e-06
-6.00366e-06
-7.7587e-06
-1.00408e-05
-1.30125e-05
-1.68869e-05
-2.19438e-05
-2.85511e-05
-3.71928e-05
-4.85076e-05
-6.33394e-05
-8.28114e-05
-0.000108476
-0.000142633
-0.00018765
-0.00023119
-0.000259499
-0.000244268
-0.00019044
0.000504841
-1.34797e-05
-0.000204458
-0.000232445
-2.96339e-05
0.000206819
0.000223449
0.000167245
0.000179262
8.66412e-05
0.000194468
0.000211426
0.000111419
0.000173592
-0.000143497
0.000103677
7.83851e-05
4.86651e-05
2.97531e-05
1.73527e-05
8.95014e-06
3.70894e-06
-7.38132e-07
-2.88972e-06
-4.13384e-06
-4.72118e-06
-4.87792e-06
-4.76295e-06
-4.48752e-06
-4.12602e-06
-3.7262e-06
-3.31825e-06
-2.92101e-06
-2.54519e-06
-2.19707e-06
-1.88262e-06
-1.60453e-06
-1.36222e-06
-1.15337e-06
-9.74651e-07
-8.22956e-07
-6.95213e-07
-5.88425e-07
-4.99762e-07
-4.26611e-07
-3.66615e-07
-3.17652e-07
-2.777e-07
-2.44704e-07
-2.17862e-07
-2.05968e-07
)
;
    }
}


// ************************************************************************* //
