FoamFile
{version 2.0; format ascii;class vectorField; location 0;object  v;}
350
(
( 6.16672e-07 1.9196e-06 -1.15862e-05 )  
( 2.30001e-06 2.7715e-06 -1.43178e-05 )  
( -2.58667e-06 9.95877e-07 -1.17468e-05 )  
( 3.43763e-06 3.36916e-06 -1.48416e-05 )  
( -6.8881e-05 -7.50537e-06 -6.78355e-06 )  
( 4.98227e-06 6.31542e-06 -1.08345e-05 )  
( -1.391e-06 3.38309e-06 -1.51462e-05 )  
( 4.90247e-06 1.33557e-06 -1.02886e-05 )  
( 6.86932e-07 5.52853e-06 -9.24961e-06 )  
( 3.87778e-07 -2.89505e-07 -1.75634e-05 )  
( -3.5001e-06 9.07071e-09 -1.24587e-05 )  
( 0.00011663 0.000147918 -7.00331e-06 )  
( 2.795e-06 -3.66302e-07 -1.26341e-05 )  
( -3.43524e-06 -6.86598e-06 -3.41977e-06 )  
( -2.89882e-06 -1.94078e-06 -1.00744e-05 )  
( -2.58139e-06 6.03377e-06 -3.16022e-05 )  
( -6.61076e-07 -1.2456e-06 -1.12526e-05 )  
( -5.38615e-06 4.02367e-07 -6.73284e-06 )  
( 3.00791e-06 -3.64721e-07 -1.43253e-05 )  
( -3.6538e-06 2.64596e-06 -1.06248e-05 )  
( -5.51214e-06 3.18753e-06 -6.11089e-06 )  
( 3.65217e-06 1.66724e-06 -1.05899e-05 )  
( 4.81118e-06 2.63652e-06 -2.07696e-05 )  
( 2.22577e-07 7.80867e-07 -1.02015e-05 )  
( -2.54335e-06 1.10979e-06 -2.232e-05 )  
( 5.25146e-07 6.45467e-06 -1.40887e-05 )  
( -7.64332e-08 2.63545e-06 -1.10141e-05 )  
( -1.61097e-06 2.85098e-06 -2.03695e-05 )  
( 7.49179e-06 1.8151e-06 -2.46875e-05 )  
( -2.01332e-06 1.35906e-07 -1.25647e-05 )  
( -5.2677e-06 -7.8393e-07 -2.24298e-05 )  
( 3.8989e-06 3.85587e-06 -4.05738e-05 )  
( -6.18627e-07 3.80375e-06 -2.7274e-05 )  
( 4.31499e-06 2.89498e-06 -2.9626e-05 )  
( -1.54863e-07 4.11036e-06 -1.71239e-05 )  
( -1.87118e-06 1.60148e-06 -2.35662e-05 )  
( -2.08644e-06 1.32107e-06 -1.69799e-05 )  
( 4.08999e-06 4.35841e-06 -2.49108e-05 )  
( -2.03055e-06 4.75561e-06 -2.58034e-05 )  
( -3.36837e-06 5.14335e-06 -3.71663e-05 )  
( 5.45958e-06 6.63185e-06 -2.50807e-05 )  
( -1.42289e-06 2.1177e-06 -2.34963e-05 )  
( 6.20997e-06 6.05634e-06 -2.17364e-05 )  
( -5.42968e-07 2.65118e-06 -2.1045e-05 )  
( 3.61876e-06 5.55441e-06 -2.52244e-05 )  
( -5.87973e-07 7.49032e-06 -2.66374e-05 )  
( 1.06999e-05 4.79978e-06 -4.05518e-05 )  
( -2.038e-06 -9.89284e-07 -3.5058e-05 )  
( 1.57065e-06 2.74623e-06 -3.04844e-05 )  
( -2.28654e-06 9.68387e-08 -2.45757e-05 )  
( -4.14763e-07 -1.70838e-07 -2.87857e-05 )  
( 1.85829e-06 9.53964e-06 -3.38457e-05 )  
( 4.62834e-06 2.14654e-06 -4.25483e-05 )  
( -1.03591e-06 -3.15479e-07 -4.32288e-05 )  
( 2.30514e-06 9.75377e-06 -4.95353e-05 )  
( -7.27225e-07 2.57293e-06 -2.01301e-05 )  
( 1.20726e-06 2.33277e-06 -3.47998e-05 )  
( 3.85052e-07 1.17476e-06 -4.4201e-05 )  
( 3.3351e-06 2.80451e-06 -5.22254e-05 )  
( -1.53392e-07 2.51954e-06 -5.65792e-05 )  
( 4.92602e-06 1.5123e-05 -4.6258e-05 )  
( 1.3286e-05 8.45923e-06 -2.89971e-05 )  
( 2.22984e-06 1.75634e-06 -5.82115e-05 )  
( 5.56107e-06 4.02384e-06 -3.68915e-05 )  
( 3.22963e-06 3.37651e-06 -3.46276e-05 )  
( 4.37391e-06 4.44707e-06 -4.23885e-05 )  
( -3.89566e-06 -5.16883e-06 -2.78524e-05 )  
( 2.44216e-06 1.17418e-06 -4.59144e-05 )  
( 5.43863e-06 4.7793e-06 -4.7064e-05 )  
( 5.34279e-06 3.31451e-07 -4.42019e-05 )  
( -4.46214e-06 1.19452e-06 -4.38565e-05 )  
( 1.19488e-06 1.83251e-06 -4.34761e-05 )  
( 4.31801e-06 -5.0099e-07 -3.8805e-05 )  
( 6.41924e-06 9.33162e-06 -5.98889e-05 )  
( 3.30356e-06 8.53858e-06 -4.77077e-05 )  
( -1.26082e-06 -1.26377e-06 -5.50688e-05 )  
( 2.59246e-06 7.8581e-06 -3.60821e-05 )  
( 4.28707e-06 1.76077e-06 -5.79591e-05 )  
( -3.40085e-07 5.52593e-06 -6.30657e-05 )  
( -6.0506e-06 -4.12103e-06 -3.86425e-05 )  
( -1.08665e-06 5.88342e-07 -5.81962e-05 )  
( -6.78461e-07 1.89373e-06 -2.46049e-05 )  
( -6.71803e-07 4.10253e-06 -5.38381e-05 )  
( 3.12956e-06 7.0662e-06 -5.87399e-05 )  
( 5.53542e-06 9.28007e-06 -6.08483e-05 )  
( 2.78072e-06 3.00266e-06 -5.80197e-05 )  
( 7.21058e-06 1.96027e-06 -5.8864e-05 )  
( 4.06206e-06 6.27572e-06 -7.54043e-05 )  
( 3.92524e-06 1.65177e-05 -6.69114e-05 )  
( -6.20054e-07 4.18965e-06 -6.64883e-05 )  
( 5.25796e-06 1.15297e-05 -3.69281e-05 )  
( 4.55162e-06 6.38522e-06 -7.33637e-05 )  
( -3.70214e-06 8.65806e-06 -5.24574e-05 )  
( 1.03922e-06 4.59183e-06 -6.21217e-05 )  
( 7.57121e-06 6.6876e-06 -7.24821e-05 )  
( -1.42787e-07 8.84716e-07 -6.61852e-05 )  
( 4.40822e-06 2.79456e-06 -6.32294e-05 )  
( 6.00921e-06 2.5684e-06 -7.6342e-05 )  
( 5.59263e-06 1.57517e-06 -6.56272e-05 )  
( 4.11272e-06 6.57791e-06 -7.36891e-05 )  
( 6.65281e-06 7.55361e-06 -8.42077e-05 )  
( 7.50113e-07 1.56028e-05 -3.09093e-05 )  
( 4.14578e-06 3.47326e-06 -7.50151e-05 )  
( 1.04526e-06 1.82543e-06 -6.97781e-05 )  
( 8.81164e-06 2.62538e-06 -5.79116e-05 )  
( 3.95331e-06 8.49506e-06 -7.24169e-05 )  
( -4.30005e-07 3.78888e-06 -6.9394e-05 )  
( 9.72579e-06 4.65193e-06 -5.26398e-05 )  
( 1.53553e-06 5.44527e-06 -6.67539e-05 )  
( 5.71892e-06 2.66395e-06 -5.64809e-05 )  
( 2.55233e-06 5.05827e-06 -7.45258e-05 )  
( 6.28613e-06 5.20881e-06 -7.34156e-05 )  
( 4.21639e-06 4.5778e-06 -7.64793e-05 )  
( 2.20131e-06 1.53479e-05 -6.0236e-05 )  
( 1.09322e-05 4.2141e-06 -7.02925e-05 )  
( 3.51459e-06 7.65204e-06 -7.36131e-05 )  
( 4.55486e-07 6.03944e-06 -7.23344e-05 )  
( 9.24653e-06 6.42345e-06 -8.09159e-05 )  
( 2.45708e-06 7.17464e-06 -9.1022e-05 )  
( 4.49217e-06 2.2116e-06 -8.05487e-05 )  
( -2.08039e-06 3.18317e-05 -4.07254e-05 )  
( 4.61795e-06 1.92969e-06 -8.09843e-05 )  
( 7.51735e-06 1.62938e-06 -8.93729e-05 )  
( 5.03868e-06 4.91921e-06 -8.0192e-05 )  
( 7.21061e-06 4.80972e-06 -8.87676e-05 )  
( 8.53585e-06 7.42236e-06 -8.98205e-05 )  
( 3.77475e-07 2.31472e-07 -7.7141e-05 )  
( 3.86216e-06 3.67396e-06 -8.25942e-05 )  
( 4.4836e-06 6.15549e-06 -8.38401e-05 )  
( 6.93499e-06 2.40243e-06 -7.71179e-05 )  
( 6.97377e-06 3.08748e-06 -9.21756e-05 )  
( 1.90678e-06 3.10488e-06 -8.90112e-05 )  
( 4.1198e-06 2.91558e-06 -8.72746e-05 )  
( 3.05004e-06 7.52884e-06 -7.73023e-05 )  
( 4.76547e-06 4.85819e-06 -8.10679e-05 )  
( 1.03785e-05 3.53515e-06 -8.98892e-05 )  
( 4.55937e-06 -1.76323e-06 -8.27787e-05 )  
( 4.63657e-06 4.56997e-06 -8.51535e-05 )  
( 7.50377e-06 2.12428e-06 -9.46716e-05 )  
( 7.64563e-07 1.47001e-06 -8.48745e-05 )  
( 2.72819e-06 1.91151e-06 -8.01854e-05 )  
( 5.72017e-06 3.8933e-06 -8.44571e-05 )  
( 8.53521e-06 1.1794e-06 -9.57727e-05 )  
( 8.86092e-06 2.07149e-06 -9.4706e-05 )  
( 4.26797e-07 7.14777e-07 -9.54216e-05 )  
( 9.82578e-06 1.04164e-06 -9.27904e-05 )  
( 8.42603e-06 -6.75531e-07 -9.22721e-05 )  
( 3.18439e-06 6.17262e-06 -7.77114e-05 )  
( 5.43268e-06 -9.87406e-07 -9.44604e-05 )  
( 8.76096e-06 7.27332e-06 -8.39454e-05 )  
( 6.16745e-06 4.46966e-06 -9.06916e-05 )  
( 8.94445e-06 2.12075e-06 -9.06738e-05 )  
( 7.95839e-06 4.02848e-06 -9.27782e-05 )  
( 5.58924e-06 1.84897e-06 -8.63073e-05 )  
( 1.12646e-05 -4.73738e-07 -0.000103235 )  
( 1.2192e-05 2.24948e-07 -0.000100697 )  
( 1.0569e-05 1.72053e-06 -9.62996e-05 )  
( 8.91762e-06 1.7394e-06 -9.49726e-05 )  
( 1.14324e-05 3.45275e-06 -9.69214e-05 )  
( 1.12221e-05 4.21991e-06 -9.11252e-05 )  
( 5.51463e-06 1.15002e-06 -8.92101e-05 )  
( 7.09637e-06 9.1485e-06 -9.01504e-05 )  
( 1.27766e-05 7.91081e-07 -0.000101509 )  
( 8.48931e-06 2.61163e-06 -0.000100357 )  
( 6.35711e-06 4.42222e-06 -9.37143e-05 )  
( 1.29748e-05 4.52566e-06 -0.000100798 )  
( 7.51986e-06 -4.58086e-07 -9.39583e-05 )  
( 9.79716e-06 3.42189e-06 -9.87838e-05 )  
( 1.12907e-05 1.75141e-06 -0.000106032 )  
( 7.85071e-06 -1.02878e-06 -9.43934e-05 )  
( 1.32699e-05 -2.30719e-06 -9.69695e-05 )  
( 8.54007e-06 2.33529e-06 -0.000100102 )  
( 1.27417e-05 1.27848e-07 -0.000103884 )  
( 1.30521e-05 -1.0503e-06 -0.000107214 )  
( 8.58643e-06 8.6165e-07 -0.00010367 )  
( 8.37525e-06 9.07538e-07 -0.00010187 )  
( 1.1574e-05 6.58868e-07 -0.000100317 )  
( 1.02373e-05 2.74482e-06 -0.000106722 )  
( 8.38229e-07 8.93594e-08 -9.91935e-05 )  
( 9.89405e-06 4.44722e-06 -0.000106696 )  
( 1.35343e-05 1.16598e-06 -0.00010135 )  
( 1.60725e-05 -1.68018e-07 -0.000109153 )  
( 1.05934e-05 3.38922e-06 -0.000105238 )  
( 5.3658e-06 -2.32853e-06 -0.000105997 )  
( 1.6829e-05 -4.06005e-07 -0.00010268 )  
( 1.38486e-05 -5.52057e-07 -0.000112774 )  
( 1.53135e-05 -2.94782e-06 -0.000106125 )  
( 4.92407e-06 -1.63895e-06 -0.000116114 )  
( 1.72984e-05 2.52396e-06 -0.000108338 )  
( 1.33667e-05 -1.42274e-07 -0.000110004 )  
( 1.42511e-05 -9.50871e-07 -0.000109792 )  
( 9.12148e-06 1.97684e-07 -0.000107343 )  
( 1.34676e-05 -3.06466e-06 -0.000107885 )  
( 1.2248e-05 -3.31082e-07 -0.000115647 )  
( 1.47181e-05 2.41901e-07 -0.000115678 )  
( 9.66598e-06 1.36029e-06 -0.000105483 )  
( 1.69234e-05 7.42395e-07 -0.000104341 )  
( 1.26535e-05 -5.65628e-07 -0.000112017 )  
( 1.14494e-05 2.11218e-06 -0.000106309 )  
( 1.3515e-05 -2.13499e-06 -0.000120624 )  
( 1.64871e-05 -9.36404e-07 -0.000111447 )  
( 1.4415e-05 -1.02831e-06 -0.000118358 )  
( 3.47475e-07 -9.7775e-06 -0.000116979 )  
( 1.9198e-05 -6.20817e-07 -0.000107935 )  
( 1.3995e-05 -1.49955e-06 -0.000109583 )  
( 1.31832e-05 -3.67927e-07 -0.000111008 )  
( 1.39449e-05 -4.71747e-06 -0.000124085 )  
( 1.53006e-05 3.04836e-07 -0.000118048 )  
( 1.2783e-05 -3.68306e-06 -0.000117576 )  
( 8.40636e-06 -1.29425e-06 -0.000110594 )  
( 1.35416e-05 4.5692e-07 -0.000119294 )  
( 3.15821e-05 9.02236e-07 -0.000110626 )  
( 1.52959e-05 -1.05074e-06 -0.000113253 )  
( 1.03739e-05 -1.6675e-06 -0.000114111 )  
( 9.73348e-06 -1.57085e-06 -0.000117433 )  
( 5.59402e-06 -1.78835e-06 -0.000114778 )  
( 1.02151e-05 -7.21754e-06 -0.000125229 )  
( 1.60035e-05 7.50969e-08 -0.000115723 )  
( 1.5248e-05 -2.53008e-06 -0.000127532 )  
( 1.46954e-05 -7.92552e-06 -0.00010836 )  
( 1.30811e-05 -2.51343e-06 -0.000121727 )  
( 1.33946e-05 1.35268e-06 -0.000118311 )  
( 1.43512e-05 -6.1063e-06 -0.000124939 )  
( 1.54763e-05 3.44465e-06 -0.000116508 )  
( 1.25701e-05 -5.89647e-06 -0.000116281 )  
( 1.02483e-05 -2.77373e-06 -0.000119188 )  
( 6.21561e-06 -8.12362e-07 -0.000121994 )  
( 1.56716e-05 -5.2411e-06 -0.000118856 )  
( 7.66969e-06 -6.62664e-06 -0.000123323 )  
( 1.92277e-05 -6.42915e-06 -0.000118212 )  
( 1.67298e-05 -9.21063e-07 -0.000121046 )  
( 1.44472e-06 5.91272e-06 -0.000119351 )  
( 1.21589e-05 -5.53893e-06 -0.000125736 )  
( 6.83824e-06 -3.30239e-06 -0.000115451 )  
( 1.34576e-05 -2.85569e-06 -0.000121066 )  
( 1.80418e-05 -4.71215e-06 -0.000118819 )  
( 7.88837e-06 -8.03415e-06 -0.000122655 )  
( 1.35357e-05 -8.24417e-06 -0.000126547 )  
( 1.78309e-05 -3.99019e-06 -0.000120653 )  
( 1.31025e-05 -1.71672e-06 -0.00012434 )  
( 1.1551e-05 -9.41265e-06 -0.000129049 )  
( 1.40608e-05 -2.01902e-06 -0.00012809 )  
( 1.20098e-05 -4.06978e-06 -0.000130089 )  
( 9.40699e-06 -1.06613e-05 -0.00013069 )  
( 1.10429e-05 -2.51137e-07 -0.000130502 )  
( 3.27671e-06 6.33972e-06 -0.000125858 )  
( 4.29982e-06 -1.02098e-05 -0.000119972 )  
( 9.60546e-06 -4.47358e-06 -0.000124323 )  
( 6.79307e-06 -1.38552e-05 -0.000132246 )  
( 2.43471e-05 2.93928e-05 -0.000126577 )  
( 1.39204e-05 1.26837e-05 -0.000131838 )  
( 1.85978e-05 -1.28653e-05 -0.000121602 )  
( 4.06263e-06 -1.08084e-05 -0.00011834 )  
( 9.78773e-06 -8.15274e-06 -0.000132711 )  
( 4.71746e-06 4.79134e-06 -0.00013717 )  
( -1.23937e-05 -1.10271e-05 -0.000147263 )  
( 1.20379e-05 1.14296e-05 -0.000136106 )  
( 1.30635e-05 -1.91437e-06 -0.000128628 )  
( 1.07588e-05 7.76475e-07 -0.000132267 )  
( 7.22023e-06 -7.54577e-06 -0.000124884 )  
( 1.15775e-06 5.5086e-06 -0.000124306 )  
( 1.03144e-05 -8.27605e-06 -0.000135286 )  
( 5.09714e-06 -3.52784e-06 -0.00012471 )  
( 1.51505e-05 3.28323e-05 -0.000123684 )  
( 1.1764e-05 -5.55106e-06 -0.000137077 )  
( 8.76984e-06 1.26586e-05 -0.000129357 )  
( 1.62296e-06 -1.08545e-05 -0.000126347 )  
( -6.51812e-07 -2.94945e-05 -0.000132998 )  
( 7.39741e-06 -4.28779e-06 -0.000143736 )  
( 2.85169e-06 6.87068e-06 -0.000139732 )  
( 7.7998e-06 -1.53842e-05 -0.000134253 )  
( 1.0277e-05 -6.66556e-06 -0.000133947 )  
( 8.2146e-06 -6.46922e-06 -0.000132881 )  
( 9.71403e-06 -1.32436e-05 -0.000130647 )  
( 8.64154e-06 1.68651e-05 -0.000134535 )  
( 1.10144e-05 -5.71188e-06 -0.00013064 )  
( 1.21687e-05 -2.60893e-06 -0.000130139 )  
( 1.35956e-05 -1.85513e-06 -0.000145105 )  
( -4.36592e-06 -9.0723e-06 -0.000153297 )  
( 1.12959e-05 1.09264e-05 -0.000131392 )  
( 1.22642e-05 1.63076e-05 -0.000133879 )  
( 1.10478e-05 -8.50016e-06 -0.000151646 )  
( 9.63759e-06 1.10955e-05 -0.000133346 )  
( 3.69214e-06 -1.62695e-05 -0.0001283 )  
( 8.46162e-06 7.49637e-06 -0.000148852 )  
( -3.29784e-05 -1.24484e-05 -0.000139902 )  
( 2.71988e-06 1.98614e-06 -0.00014246 )  
( 9.92346e-06 -4.02934e-06 -0.000135435 )  
( 1.08783e-05 1.82646e-06 -0.00013263 )  
( 1.25804e-05 -1.21217e-05 -0.00013627 )  
( 4.76834e-06 7.2001e-06 -0.000145837 )  
( 1.2832e-06 1.70198e-05 -0.000144213 )  
( 1.15205e-05 -6.63137e-06 -0.000126838 )  
( 4.50454e-06 1.30809e-05 -0.000137757 )  
( 6.58414e-06 1.02399e-05 -0.000148783 )  
( 1.34842e-05 -8.61069e-07 -0.000135021 )  
( 1.03652e-05 9.74041e-06 -0.000157449 )  
( -8.0007e-07 2.6049e-06 -0.00015601 )  
( 1.6029e-05 4.904e-06 -0.000129085 )  
( 1.2317e-05 8.59933e-06 -0.000132091 )  
( 5.51912e-06 1.38774e-05 -0.000151533 )  
( 1.36589e-05 -2.97484e-06 -0.000112749 )  
( -1.90045e-06 2.7096e-06 -0.00015113 )  
( 1.20203e-05 -1.70811e-06 -0.000127756 )  
( 1.30308e-05 -2.91996e-06 -0.000146037 )  
( 8.92506e-06 -9.06312e-06 -0.000136366 )  
( -8.42354e-07 1.97659e-05 -0.000147256 )  
( -5.29003e-06 3.34938e-06 -0.000138836 )  
( -1.15083e-05 1.79261e-06 -0.000147728 )  
( -1.10701e-05 -7.40926e-06 -0.000136016 )  
( 7.55899e-06 -1.02832e-05 -0.000124978 )  
( 8.40566e-09 -9.67693e-06 -0.000125498 )  
( 1.76022e-05 8.06521e-06 -0.000125068 )  
( -9.40311e-06 2.09478e-05 -0.000136553 )  
( 1.25366e-06 -1.85317e-06 -0.000152721 )  
( 4.32382e-06 -7.09137e-06 -0.00014094 )  
( 1.37803e-05 3.06979e-07 -0.000130873 )  
( -9.31092e-06 1.30574e-05 -0.000145993 )  
( -4.37782e-06 -5.12233e-06 -0.000131266 )  
( 1.1482e-05 -6.84925e-06 -0.000164613 )  
( -1.0286e-05 4.17256e-06 -0.000152045 )  
( 6.00944e-06 9.13863e-06 -0.000129167 )  
( -2.41127e-06 1.52459e-05 -0.000160979 )  
( 6.13957e-06 -6.37843e-06 -0.000131232 )  
( 1.58673e-05 1.5417e-05 -0.00015281 )  
( -1.46128e-05 5.40661e-06 -0.000111865 )  
( -1.70373e-05 -1.18544e-05 -0.000157009 )  
( -7.25207e-06 4.59788e-06 -0.000143219 )  
( 5.68149e-07 -3.09606e-06 -0.000139503 )  
( 1.50166e-05 1.56759e-05 -0.000139266 )  
( -2.43756e-05 1.5125e-05 -0.000189403 )  
( -1.17194e-05 2.1893e-07 -0.000155737 )  
( 2.08656e-05 9.47526e-06 -0.000145513 )  
( 6.78983e-06 -4.80108e-06 -0.000129729 )  
( 7.12097e-06 1.32241e-05 -0.000160305 )  
( -6.63748e-06 -7.05249e-07 -0.000146027 )  
( -1.88757e-05 -3.0077e-06 -0.00014975 )  
( -1.38041e-05 1.12372e-05 -0.000168003 )  
( -2.16673e-05 4.89984e-05 -0.000148627 )  
( 8.76531e-06 -1.0017e-06 -0.000137405 )  
( -8.59525e-06 3.17673e-05 -0.000149116 )  
( -4.60038e-05 -5.13611e-06 -0.000180777 )  
( -3.51063e-05 -8.64463e-06 -0.000127808 )  
( -3.28951e-06 2.36986e-05 -0.000145749 )  
( -7.08503e-06 4.51378e-05 -0.000138629 )  
( 5.12503e-06 -6.12966e-06 -0.000129922 )  
( -1.16929e-05 9.31932e-06 -0.000128388 )  
( -3.89454e-05 2.2853e-05 -0.000160628 )  
( -2.21817e-05 -2.17835e-05 -0.000174414 )  
( -2.40279e-05 -1.13743e-05 -0.000155276 )  
)
