/*--------------------------------*- C++ -*----------------------------------*\
| =========                 |                                                 |
| \\      /  F ield         | OpenFOAM: The Open Source CFD Toolbox           |
|  \\    /   O peration     | Version:  5.x                                   |
|   \\  /    A nd           | Web:      www.OpenFOAM.org                      |
|    \\/     M anipulation  |                                                 |
\*---------------------------------------------------------------------------*/
FoamFile
{
    version     2.0;
    format      ascii;
    class       volScalarField;
    location    "0.002";
    object      p;
}
// * * * * * * * * * * * * * * * * * * * * * * * * * * * * * * * * * * * * * //

dimensions      [0 2 -2 0 0 0 0];

internalField   nonuniform List<scalar> 
180
(
-1.63793e-09
-4.39174e-09
-6.7178e-09
-8.86123e-09
-1.06441e-08
-1.22845e-08
-1.37908e-08
-1.51529e-08
-1.63445e-08
-1.734e-08
-1.81262e-08
-1.87093e-08
-1.91185e-08
-1.94062e-08
-1.9646e-08
-1.99284e-08
-2.03565e-08
-2.10409e-08
-2.20951e-08
-2.36313e-08
-2.57572e-08
-2.85734e-08
-3.21718e-08
-3.66349e-08
-4.20352e-08
-4.8435e-08
-5.58873e-08
-6.44364e-08
-7.41192e-08
-8.49658e-08
-9.70011e-08
-1.10246e-07
-1.24719e-07
-1.40436e-07
-1.57414e-07
-1.75674e-07
-1.95238e-07
-2.16137e-07
-2.38409e-07
-2.62105e-07
-2.8729e-07
-3.14046e-07
-3.42477e-07
-3.72713e-07
-4.04912e-07
-4.39267e-07
-4.76008e-07
-5.15411e-07
-5.57807e-07
-6.03587e-07
-6.53223e-07
-7.0728e-07
-7.66443e-07
-8.31545e-07
-9.0361e-07
-9.83899e-07
-1.07398e-06
-1.1758e-06
-1.2918e-06
-1.42502e-06
-1.57929e-06
-1.75938e-06
-1.97128e-06
-2.22255e-06
-2.52273e-06
-2.88412e-06
-3.32308e-06
-3.86209e-06
-4.53058e-06
-5.35827e-06
-6.38112e-06
-7.64271e-06
-9.19568e-06
-1.11064e-05
-1.34687e-05
-1.63992e-05
-1.98887e-05
-2.34301e-05
-2.68879e-05
-4.13576e-05
-0.000144488
0.00108783
0.00176733
0.00210045
0.00342825
0.00357563
0.00491426
0.00728784
0.0104545
0.0150255
0.016309
0.0167994
0.0178561
0.0187593
0.0191187
0.0208179
0.0214498
0.0219914
0.0235
0.0246171
0.0258513
0.0270226
0.0283028
0.0286246
0.0286544
0.0286673
0.0286678
0.0286691
0.0286708
0.0286722
0.0286733
0.0286742
0.0286748
0.0286754
0.0286758
0.0286761
0.0286763
0.0286764
0.0286765
0.0286765
0.0286766
0.0286765
0.0286765
0.0286765
0.0286764
0.0286764
0.0286763
0.0286763
0.0286762
0.0286761
0.028676
0.028676
0.0286759
0.0286758
0.0286757
0.0286756
0.0286755
0.0286754
0.0286753
0.0286753
0.0286752
0.0286751
0.028675
0.028675
0.0286749
0.0286748
0.0286748
0.0286747
0.0286746
0.0286746
0.0286745
0.0286745
0.0286744
0.0286744
0.0286744
0.0286743
0.0286743
0.0286743
0.0286742
0.0286742
0.0286742
0.0286742
0.0286741
0.0286741
0.0286741
0.0286741
0.0286741
0.0286741
0.0286741
0.0286741
0.0286741
0.0286741
0.0286741
0.0286741
0.0286741
0.0286741
0.0286741
0.0286741
0.0286741
0.0286741
)
;

boundaryField
{
    inlet
    {
        type            zeroGradient;
    }
    outlet
    {
        type            fixedValue;
        value           uniform 0;
    }
    repeat_boundary
    {
        type            zeroGradient;
    }
    procBoundary0to1
    {
        type            processor;
        value           nonuniform List<scalar> 
180
(
-9.1389e-10
-2.30982e-09
-3.56215e-09
-4.75886e-09
-5.554e-09
-6.25634e-09
-6.88605e-09
-7.45256e-09
-7.94118e-09
-8.32697e-09
-8.58429e-09
-8.69402e-09
-8.64811e-09
-8.45164e-09
-8.12269e-09
-7.69047e-09
-7.19234e-09
-6.67007e-09
-6.16592e-09
-5.71858e-09
-5.35956e-09
-5.1097e-09
-4.97628e-09
-4.95055e-09
-5.0059e-09
-5.09634e-09
-5.15499e-09
-5.09297e-09
-4.79825e-09
-4.13461e-09
-2.94046e-09
-1.02765e-09
1.81996e-09
5.84806e-09
1.1334e-08
1.85894e-08
2.79633e-08
3.98459e-08
5.46733e-08
7.29336e-08
9.51739e-08
1.2201e-07
1.54139e-07
1.92353e-07
2.37554e-07
2.90781e-07
3.53229e-07
4.26285e-07
5.11562e-07
6.10942e-07
7.26632e-07
8.61219e-07
1.01775e-06
1.19979e-06
1.41157e-06
1.65805e-06
1.94506e-06
2.27948e-06
2.66941e-06
3.12439e-06
3.65567e-06
4.27651e-06
5.00262e-06
5.85262e-06
6.8487e-06
8.01764e-06
9.39234e-06
1.10142e-05
1.29345e-05
1.52077e-05
1.78983e-05
2.1083e-05
2.4853e-05
2.93135e-05
3.45773e-05
4.07733e-05
4.81942e-05
5.7676e-05
6.98463e-05
7.63788e-05
1.26693e-05
0.000804682
0.0013656
0.0013493
0.00508515
0.00651335
0.00783985
0.00878065
0.0092984
0.0107791
0.0135393
0.0161371
0.0181154
0.0187261
0.0201198
0.0223903
0.0229344
0.0238856
0.0246703
0.0259337
0.0277055
0.0281917
0.0284172
0.0285613
0.0286105
0.0286235
0.0286267
0.028631
0.0286359
0.0286403
0.0286441
0.0286476
0.0286506
0.0286534
0.0286558
0.028658
0.0286599
0.0286616
0.0286631
0.0286645
0.0286657
0.0286668
0.0286677
0.0286685
0.0286693
0.0286699
0.0286705
0.028671
0.0286715
0.0286719
0.0286723
0.0286726
0.0286728
0.0286731
0.0286733
0.0286734
0.0286736
0.0286737
0.0286738
0.0286738
0.0286739
0.0286739
0.028674
0.028674
0.028674
0.028674
0.028674
0.028674
0.028674
0.028674
0.028674
0.028674
0.028674
0.028674
0.028674
0.028674
0.028674
0.028674
0.028674
0.028674
0.028674
0.028674
0.028674
0.028674
0.028674
0.028674
0.028674
0.028674
0.028674
0.028674
0.028674
0.028674
0.028674
0.0286741
0.0286741
0.0286741
0.0286741
0.0286741
0.0286741
0.0286741
)
;
    }
    procBoundary0to2
    {
        type            processor;
        value           nonuniform List<scalar> 
180
(
-4.67385e-10
-9.48072e-10
-1.2859e-09
-1.57534e-09
-1.47228e-09
-1.28818e-09
-1.0467e-09
-7.61384e-10
-4.22536e-10
-1.14324e-11
4.89827e-10
1.09078e-09
1.78765e-09
2.56088e-09
3.37475e-09
4.17871e-09
4.90965e-09
5.49489e-09
5.85524e-09
5.90792e-09
5.56906e-09
4.75563e-09
3.38669e-09
1.38438e-09
-1.32545e-09
-4.81352e-09
-9.1479e-09
-1.43951e-08
-2.06216e-08
-2.78958e-08
-3.62897e-08
-4.58815e-08
-5.67573e-08
-6.90137e-08
-8.27599e-08
-9.812e-08
-1.15235e-07
-1.34262e-07
-1.5538e-07
-1.78785e-07
-2.04689e-07
-2.33322e-07
-2.64926e-07
-2.99748e-07
-3.3804e-07
-3.80049e-07
-4.26007e-07
-4.76129e-07
-5.30606e-07
-5.89598e-07
-6.53247e-07
-7.21687e-07
-7.95074e-07
-8.73633e-07
-9.57725e-07
-1.04793e-06
-1.14512e-06
-1.25056e-06
-1.36586e-06
-1.49286e-06
-1.6331e-06
-1.78634e-06
-1.95197e-06
-2.12887e-06
-2.31515e-06
-2.50781e-06
-2.70243e-06
-2.89318e-06
-3.0725e-06
-3.23074e-06
-3.35572e-06
-3.43204e-06
-3.44031e-06
-3.35929e-06
-3.17868e-06
-2.90233e-06
-2.40903e-06
-9.53328e-07
2.43241e-06
-6.93647e-07
-0.000107259
0.00110978
0.00170332
0.00192953
0.00415454
0.00500515
0.00739511
0.00868074
0.00948964
0.0104346
0.0108573
0.0119449
0.0125504
0.0127392
0.0164186
0.0217248
0.0249372
0.0261692
0.0265266
0.0270859
0.0274823
0.0278594
0.0284088
0.0286921
0.0287638
0.0287556
0.0287401
0.0287304
0.0287232
0.0287169
0.0287113
0.0287065
0.0287023
0.0286986
0.0286954
0.0286926
0.0286902
0.0286881
0.0286863
0.0286847
0.0286833
0.0286821
0.028681
0.0286801
0.0286792
0.0286785
0.0286779
0.0286773
0.0286768
0.0286764
0.028676
0.0286757
0.0286754
0.0286752
0.028675
0.0286748
0.0286746
0.0286745
0.0286744
0.0286743
0.0286742
0.0286742
0.0286741
0.0286741
0.028674
0.028674
0.028674
0.028674
0.028674
0.028674
0.028674
0.028674
0.028674
0.028674
0.028674
0.028674
0.028674
0.028674
0.028674
0.028674
0.028674
0.028674
0.028674
0.028674
0.028674
0.028674
0.028674
0.028674
0.028674
0.028674
0.0286741
0.0286741
0.0286741
0.0286741
0.0286741
0.0286741
0.0286741
0.0286741
0.0286741
0.0286741
)
;
    }
}


// ************************************************************************* //
