/*--------------------------------*- C++ -*----------------------------------*\
  =========                 |
  \\      /  F ield         | OpenFOAM: The Open Source CFD Toolbox
   \\    /   O peration     | Website:  https://openfoam.org
    \\  /    A nd           | Version:  9
     \\/     M anipulation  |
\*---------------------------------------------------------------------------*/
FoamFile
{
    format      ascii;
    class       surfaceScalarField;
    location    "0.09";
    object      phi;
}
// * * * * * * * * * * * * * * * * * * * * * * * * * * * * * * * * * * * * * //

dimensions      [0 3 -1 0 0 0 0];

internalField   nonuniform List<scalar> 
25100
(
-9.15722e-17
-6.15814e-17
-9.99998e-10
-1.57925e-16
-5.75795e-17
-9.99998e-10
-2.3319e-16
-4.82045e-17
-9.99999e-10
-2.72704e-16
-4.10283e-17
-9.99999e-10
-2.09734e-16
-4.68106e-17
-9.99999e-10
-1.91504e-16
-5.02177e-17
-1e-09
-1.25576e-16
-2.57086e-17
-1e-09
-1.07275e-16
-5.22115e-17
-1e-09
-5.87081e-17
-3.37033e-17
-1e-09
-4.80833e-17
-1e-09
-8.76073e-17
-9.62282e-17
-9.99998e-10
-1.4858e-16
-7.55745e-17
-9.99998e-10
-2.26442e-16
-9.02792e-17
-9.99999e-10
-2.7874e-16
-7.77175e-17
-9.99999e-10
-2.13998e-16
-5.30792e-17
-1e-09
-1.67716e-16
-4.73812e-17
-1e-09
-1.528e-16
-6.56619e-17
-1e-09
-8.92509e-17
-5.74831e-17
-1e-09
-7.31821e-17
-1.06141e-16
-1e-09
-9.55824e-17
-1e-09
-6.70827e-17
-1.38248e-16
-9.99998e-10
-1.63556e-16
-1.45418e-16
-9.99999e-10
-2.13918e-16
-1.20541e-16
-9.99999e-10
-2.53762e-16
-9.69915e-17
-9.99999e-10
-2.07888e-16
-7.20109e-17
-1e-09
-1.86572e-16
-4.8482e-17
-1e-09
-1.44168e-16
-8.81131e-17
-1e-09
-1.37857e-16
-1.3987e-16
-1e-09
-6.28432e-17
-1.243e-16
-1e-09
-1.4272e-16
-1e-09
-7.43092e-17
-1.53377e-16
-9.99999e-10
-1.39185e-16
-1.50018e-16
-9.99999e-10
-1.90407e-16
-1.47345e-16
-9.99999e-10
-2.28308e-16
-1.50543e-16
-9.99999e-10
-1.84235e-16
-1.46219e-16
-1e-09
-2.26202e-16
-4.43339e-17
-1e-09
-1.94777e-16
-1.2246e-16
-1e-09
-1.22046e-16
-1.5298e-16
-1e-09
-8.13394e-17
-1.89059e-16
-1e-09
-1.91353e-16
-1e-09
-6.94004e-17
-1.83172e-16
-9.99999e-10
-1.3493e-16
-1.80453e-16
-9.99999e-10
-1.9123e-16
-1.80695e-16
-9.99999e-10
-2.20879e-16
-1.38638e-16
-1e-09
-9.71491e-17
-5.20215e-17
-1e-09
-3.12396e-16
-3.27868e-16
-1e-09
-2.26184e-16
-2.20238e-16
-1e-09
-1.58617e-16
-2.07209e-16
-1e-09
-8.45082e-17
-2.15504e-16
-1e-09
-2.09112e-16
-1e-09
-6.63422e-17
-1.78524e-16
-9.99999e-10
-1.35806e-16
-1.84172e-16
-9.99999e-10
-1.49619e-16
-1.75883e-16
-1e-09
-1.22335e-16
-2.11372e-16
-1e-09
-3.72887e-16
-3.08308e-16
-1e-09
-2.03205e-16
-2.01621e-16
-1e-09
-2.185e-16
-2.36024e-16
-1e-09
-1.67395e-16
-2.35813e-16
-1e-09
-7.90539e-17
-2.3046e-16
-1e-09
-2.29502e-16
-1e-09
-7.17326e-17
-1.50728e-16
-1e-09
-1.27899e-16
-1.42447e-16
-1e-09
-1.85181e-16
-1.56415e-16
-1e-09
-2.15537e-16
-1.79196e-16
-1e-09
-2.631e-16
-2.20239e-16
-1e-09
-2.40097e-16
-2.12714e-16
-1e-09
-2.12777e-16
-2.08745e-16
-1e-09
-1.60764e-16
-2.02302e-16
-1e-09
-7.77131e-17
-1.87025e-16
-1e-09
-1.8215e-16
-1e-09
-6.26584e-17
-9.57332e-17
-1e-09
-1.42175e-16
-9.81152e-17
-1e-09
-2.08736e-16
-1.0961e-16
-1e-09
-2.58816e-16
-1.2329e-16
-1e-09
-2.50594e-16
-1.4457e-16
-1e-09
-2.4053e-16
-1.52635e-16
-1e-09
-2.06356e-16
-1.52103e-16
-1e-09
-1.46167e-16
-1.40734e-16
-1e-09
-7.35519e-17
-1.38148e-16
-1e-09
-1.39629e-16
-1e-09
-6.44595e-17
-5.05893e-17
-1e-09
-1.53554e-16
-5.74922e-17
-1e-09
-2.2214e-16
-6.26783e-17
-1e-09
-2.80804e-16
-6.24015e-17
-1e-09
-2.58e-16
-7.03647e-17
-1e-09
-2.4062e-16
-7.32271e-17
-1e-09
-1.94495e-16
-6.92536e-17
-1e-09
-1.43708e-16
-6.82268e-17
-1e-09
-7.51959e-17
-7.21213e-17
-1e-09
-6.805e-17
-1e-09
-7.09111e-17
-1e-09
-1.5828e-16
-1e-09
-2.21233e-16
-1e-09
-2.88671e-16
-1e-09
-2.59783e-16
-1e-09
-2.35732e-16
-1e-09
-1.92899e-16
-1e-09
-1.47329e-16
-1e-09
-7.10803e-17
-1e-09
-1e-09
-2.35444e-16
-1.5673e-16
-9.99998e-10
-4.25225e-16
-1.49751e-16
-9.99998e-10
-5.92949e-16
-1.4768e-16
-9.99998e-10
-7.16736e-16
-1.3207e-16
-9.99999e-10
-6.27943e-16
-1.06384e-16
-9.99999e-10
-4.84142e-16
-1.06941e-16
-1e-09
-4.01995e-16
-7.92417e-17
-1e-09
-2.93275e-16
-1.09775e-16
-1e-09
-1.60306e-16
-1.14635e-16
-1e-09
-1.28201e-16
-1e-09
-2.28698e-16
-2.56945e-16
-9.99998e-10
-4.23285e-16
-2.32194e-16
-9.99998e-10
-5.78274e-16
-2.20051e-16
-9.99998e-10
-6.91023e-16
-2.03218e-16
-9.99999e-10
-6.30882e-16
-1.35073e-16
-9.99999e-10
-4.58891e-16
-1.13912e-16
-1e-09
-4.34769e-16
-1.85295e-16
-1e-09
-2.9889e-16
-1.99178e-16
-1e-09
-1.73885e-16
-2.48284e-16
-1e-09
-2.71051e-16
-1e-09
-2.04674e-16
-3.52983e-16
-9.99998e-10
-4.12022e-16
-3.49343e-16
-9.99998e-10
-5.61789e-16
-3.15787e-16
-9.99999e-10
-6.20659e-16
-2.72217e-16
-9.99999e-10
-6.1112e-16
-2.29026e-16
-9.99999e-10
-5.31707e-16
-1.83744e-16
-1e-09
-4.46779e-16
-2.71193e-16
-1e-09
-3.47602e-16
-3.4662e-16
-1e-09
-1.97429e-16
-3.73305e-16
-1e-09
-3.86748e-16
-1e-09
-2.01747e-16
-4.17435e-16
-9.99998e-10
-3.79624e-16
-4.17408e-16
-9.99999e-10
-5.18235e-16
-4.05137e-16
-9.99999e-10
-5.70286e-16
-3.82513e-16
-9.99999e-10
-5.77434e-16
-4.71455e-16
-1e-09
-6.16133e-16
-2.09592e-16
-1e-09
-5.19985e-16
-3.49966e-16
-1e-09
-3.73699e-16
-4.44006e-16
-1e-09
-2.11613e-16
-4.90631e-16
-1e-09
-5.02316e-16
-1e-09
-2.00643e-16
-5.06723e-16
-9.99999e-10
-3.66196e-16
-4.9452e-16
-9.99999e-10
-4.93693e-16
-4.91875e-16
-9.99999e-10
-6.46276e-16
-4.42506e-16
-1e-09
-3.84065e-16
-2.54452e-16
-1e-09
-7.99822e-16
-8.32332e-16
-1e-09
-6.20456e-16
-6.55054e-16
-1e-09
-4.2044e-16
-5.81383e-16
-1e-09
-2.23424e-16
-5.79665e-16
-1e-09
-5.63248e-16
-1e-09
-1.86785e-16
-4.73156e-16
-9.99999e-10
-3.62903e-16
-4.81612e-16
-9.99999e-10
-4.29408e-16
-4.94629e-16
-1e-09
-3.98301e-16
-5.66692e-16
-1e-09
-9.75712e-16
-7.48198e-16
-1e-09
-6.29097e-16
-6.00431e-16
-1e-09
-5.68262e-16
-6.02142e-16
-1e-09
-4.21438e-16
-6.07915e-16
-1e-09
-2.10922e-16
-5.97911e-16
-1e-09
-5.92528e-16
-1e-09
-1.94561e-16
-4.14045e-16
-1e-09
-3.76303e-16
-4.08286e-16
-1e-09
-5.08471e-16
-4.30884e-16
-1e-09
-5.6062e-16
-4.79885e-16
-1e-09
-7.76843e-16
-5.71708e-16
-1e-09
-6.45323e-16
-5.32739e-16
-1e-09
-5.58387e-16
-5.26829e-16
-1e-09
-4.05142e-16
-5.20247e-16
-1e-09
-2.0278e-16
-5.03296e-16
-1e-09
-4.94357e-16
-1e-09
-1.86509e-16
-2.78468e-16
-1e-09
-3.99492e-16
-2.81337e-16
-1e-09
-5.59278e-16
-2.99046e-16
-1e-09
-6.55172e-16
-3.36979e-16
-1e-09
-7.15651e-16
-3.85007e-16
-1e-09
-6.54097e-16
-3.80323e-16
-1e-09
-5.51816e-16
-3.77803e-16
-1e-09
-3.90339e-16
-3.76849e-16
-1e-09
-1.95199e-16
-3.6645e-16
-1e-09
-3.63307e-16
-1e-09
-1.87686e-16
-1.44657e-16
-1e-09
-4.16798e-16
-1.58678e-16
-1e-09
-5.96289e-16
-1.82594e-16
-1e-09
-7.07156e-16
-1.81884e-16
-1e-09
-7.08434e-16
-1.89826e-16
-1e-09
-6.55155e-16
-1.83904e-16
-1e-09
-5.49648e-16
-1.91487e-16
-1e-09
-3.80466e-16
-1.85852e-16
-1e-09
-1.92429e-16
-1.86606e-16
-1e-09
-1.79138e-16
-1e-09
-2.00772e-16
-1e-09
-4.39809e-16
-1e-09
-5.94074e-16
-1e-09
-7.1547e-16
-1e-09
-6.988e-16
-1e-09
-6.60992e-16
-1e-09
-5.42789e-16
-1e-09
-3.80537e-16
-1e-09
-1.84708e-16
-1e-09
-1e-09
-3.84308e-16
-2.60806e-16
-9.99997e-10
-7.18312e-16
-2.43704e-16
-9.99997e-10
-9.83531e-16
-2.35816e-16
-9.99998e-10
-1.13802e-15
-2.15512e-16
-9.99998e-10
-1.11606e-15
-1.84004e-16
-9.99999e-10
-9.23353e-16
-1.82054e-16
-9.99999e-10
-7.98674e-16
-1.99896e-16
-1e-09
-5.98118e-16
-2.28488e-16
-1e-09
-3.14457e-16
-2.33078e-16
-1e-09
-2.55729e-16
-1e-09
-3.67748e-16
-4.68576e-16
-9.99997e-10
-7.11341e-16
-4.52086e-16
-9.99997e-10
-9.6565e-16
-4.40852e-16
-9.99998e-10
-1.10795e-15
-3.90955e-16
-9.99998e-10
-1.11828e-15
-3.12741e-16
-9.99999e-10
-9.44712e-16
-3.14081e-16
-9.99999e-10
-8.30079e-16
-3.74275e-16
-1e-09
-6.03664e-16
-4.15657e-16
-1e-09
-3.38118e-16
-4.63472e-16
-1e-09
-4.67833e-16
-1e-09
-3.52021e-16
-6.53944e-16
-9.99997e-10
-7.01029e-16
-6.457e-16
-9.99998e-10
-9.15847e-16
-5.92399e-16
-9.99998e-10
-1.0252e-15
-5.55157e-16
-9.99998e-10
-1.12238e-15
-5.28721e-16
-9.99999e-10
-1.00171e-15
-5.57434e-16
-1e-09
-8.68893e-16
-6.00971e-16
-1e-09
-6.51053e-16
-6.52685e-16
-1e-09
-3.43948e-16
-6.69124e-16
-1e-09
-6.62882e-16
-1e-09
-3.43566e-16
-7.72883e-16
-9.99998e-10
-6.48135e-16
-7.7179e-16
-9.99998e-10
-8.78758e-16
-7.3656e-16
-9.99998e-10
-9.87843e-16
-7.02105e-16
-9.99999e-10
-1.16765e-15
-7.87855e-16
-9.99999e-10
-1.03468e-15
-6.83629e-16
-1e-09
-9.17745e-16
-7.50972e-16
-1e-09
-6.67563e-16
-8.19815e-16
-1e-09
-3.39745e-16
-8.45026e-16
-1e-09
-8.7534e-16
-1e-09
-3.41765e-16
-8.92739e-16
-9.99998e-10
-6.15414e-16
-8.96754e-16
-9.99999e-10
-8.54167e-16
-9.14886e-16
-9.99999e-10
-1.06551e-15
-9.49258e-16
-9.99999e-10
-1.08945e-15
-9.11381e-16
-1e-09
-1.13708e-15
-9.88293e-16
-1e-09
-9.98453e-16
-1.04573e-15
-1e-09
-6.93004e-16
-9.94588e-16
-1e-09
-3.69094e-16
-9.81714e-16
-1e-09
-9.606e-16
-1e-09
-3.41479e-16
-8.73011e-16
-9.99999e-10
-6.31031e-16
-8.71944e-16
-9.99999e-10
-8.68143e-16
-8.89168e-16
-9.99999e-10
-9.56856e-16
-9.24555e-16
-1e-09
-1.20167e-15
-1.01395e-15
-1e-09
-1.20044e-15
-1.08263e-15
-1e-09
-9.54561e-16
-1.00372e-15
-1e-09
-6.84089e-16
-1.00191e-15
-1e-09
-3.54293e-16
-9.92221e-16
-1e-09
-9.76791e-16
-1e-09
-3.3803e-16
-7.28947e-16
-9.99999e-10
-6.49479e-16
-7.37141e-16
-1e-09
-9.17393e-16
-7.76398e-16
-1e-09
-1.0401e-15
-8.32406e-16
-1e-09
-1.23974e-15
-8.93775e-16
-1e-09
-1.13276e-15
-8.7019e-16
-1e-09
-9.46954e-16
-8.7295e-16
-1e-09
-6.68714e-16
-8.59255e-16
-1e-09
-3.35304e-16
-8.46326e-16
-1e-09
-8.40995e-16
-1e-09
-3.42008e-16
-5.15054e-16
-1e-09
-6.89763e-16
-5.2837e-16
-1e-09
-9.75117e-16
-5.64519e-16
-1e-09
-1.10167e-15
-5.98573e-16
-1e-09
-1.20774e-15
-6.45286e-16
-1e-09
-1.139e-15
-6.32004e-16
-1e-09
-9.33489e-16
-6.32596e-16
-1e-09
-6.58104e-16
-6.308e-16
-1e-09
-3.31832e-16
-6.15584e-16
-1e-09
-6.02457e-16
-1e-09
-3.53269e-16
-2.74787e-16
-1e-09
-7.25331e-16
-3.08246e-16
-1e-09
-1.00765e-15
-3.31209e-16
-1e-09
-1.15495e-15
-3.19761e-16
-1e-09
-1.18993e-15
-3.42047e-16
-1e-09
-1.14357e-15
-3.33674e-16
-1e-09
-9.30472e-16
-3.25594e-16
-1e-09
-6.43401e-16
-3.11584e-16
-1e-09
-3.193e-16
-3.01558e-16
-1e-09
-2.91337e-16
-1e-09
-3.85866e-16
-1e-09
-7.46749e-16
-1e-09
-9.93891e-16
-1e-09
-1.17658e-15
-1e-09
-1.17571e-15
-1e-09
-1.13439e-15
-1e-09
-9.14295e-16
-1e-09
-6.32012e-16
-1e-09
-3.0888e-16
-1e-09
-1e-09
-5.4961e-16
-4.0322e-16
-9.99996e-10
-1.05945e-15
-4.05537e-16
-9.99996e-10
-1.44499e-15
-3.84006e-16
-9.99997e-10
-1.65861e-15
-3.60452e-16
-9.99997e-10
-1.69944e-15
-3.16674e-16
-9.99998e-10
-1.55523e-15
-3.30588e-16
-9.99999e-10
-1.33379e-15
-3.48473e-16
-1e-09
-9.84177e-16
-3.85478e-16
-1e-09
-5.0888e-16
-3.88796e-16
-1e-09
-3.98491e-16
-1e-09
-5.52258e-16
-7.55654e-16
-9.99996e-10
-1.04081e-15
-7.41915e-16
-9.99996e-10
-1.42616e-15
-7.41449e-16
-9.99997e-10
-1.62066e-15
-6.86485e-16
-9.99998e-10
-1.71976e-15
-6.39832e-16
-9.99998e-10
-1.57747e-15
-6.43715e-16
-9.99999e-10
-1.37394e-15
-6.77812e-16
-1e-09
-9.89828e-16
-7.00483e-16
-1e-09
-5.19927e-16
-7.15448e-16
-1e-09
-7.11042e-16
-1e-09
-5.36553e-16
-1.07728e-15
-9.99997e-10
-1.04067e-15
-1.06154e-15
-9.99997e-10
-1.37127e-15
-1.01455e-15
-9.99997e-10
-1.56676e-15
-9.86952e-16
-9.99998e-10
-1.72944e-15
-9.65677e-16
-9.99999e-10
-1.60591e-15
-1.0438e-15
-9.99999e-10
-1.39419e-15
-1.02989e-15
-1e-09
-1.00462e-15
-1.03237e-15
-1e-09
-5.17226e-16
-1.03678e-15
-1e-09
-1.02401e-15
-1e-09
-5.17828e-16
-1.25619e-15
-9.99997e-10
-9.93559e-16
-1.25155e-15
-9.99997e-10
-1.34336e-15
-1.21706e-15
-9.99998e-10
-1.51797e-15
-1.18476e-15
-9.99999e-10
-1.85804e-15
-1.18949e-15
-9.99999e-10
-1.56165e-15
-1.3601e-15
-1e-09
-1.39455e-15
-1.29903e-15
-1e-09
-1.00986e-15
-1.28292e-15
-1e-09
-5.0773e-16
-1.28244e-15
-1e-09
-1.31056e-15
-1e-09
-5.11476e-16
-1.38638e-15
-9.99998e-10
-9.65731e-16
-1.40117e-15
-9.99998e-10
-1.33833e-15
-1.42012e-15
-9.99999e-10
-1.52454e-15
-1.55516e-15
-9.99999e-10
-2.02742e-15
-1.77327e-15
-1e-09
-1.50329e-15
-1.1438e-15
-1e-09
-1.39004e-15
-1.41605e-15
-1e-09
-1.00688e-15
-1.45284e-15
-1e-09
-5.35244e-16
-1.44596e-15
-1e-09
-1.42849e-15
-1e-09
-5.18922e-16
-1.3655e-15
-9.99999e-10
-9.7576e-16
-1.37613e-15
-9.99999e-10
-1.41629e-15
-1.40119e-15
-9.99999e-10
-1.7101e-15
-1.36522e-15
-1e-09
-1.42904e-15
-1.30412e-15
-1e-09
-1.85514e-15
-1.66603e-15
-1e-09
-1.40603e-15
-1.49428e-15
-1e-09
-9.98094e-16
-1.46963e-15
-1e-09
-5.23267e-16
-1.4581e-15
-1e-09
-1.44408e-15
-1e-09
-5.27136e-16
-1.14629e-15
-9.99999e-10
-1.00574e-15
-1.17354e-15
-9.99999e-10
-1.41236e-15
-1.20712e-15
-1e-09
-1.66592e-15
-1.24979e-15
-1e-09
-1.6847e-15
-1.26065e-15
-1e-09
-1.69689e-15
-1.29678e-15
-1e-09
-1.3856e-15
-1.27876e-15
-1e-09
-9.85112e-16
-1.26263e-15
-1e-09
-5.09943e-16
-1.24501e-15
-1e-09
-1.2214e-15
-1e-09
-5.49522e-16
-8.20342e-16
-1e-09
-1.0403e-15
-8.41823e-16
-1e-09
-1.45548e-15
-8.82602e-16
-1e-09
-1.67349e-15
-9.01002e-16
-1e-09
-1.74243e-15
-9.56977e-16
-1e-09
-1.66912e-15
-9.56098e-16
-1e-09
-1.36976e-15
-9.31696e-16
-1e-09
-9.68982e-16
-9.05671e-16
-1e-09
-4.88845e-16
-8.7817e-16
-1e-09
-8.60137e-16
-1e-09
-5.68313e-16
-4.45547e-16
-1e-09
-1.08038e-15
-4.77858e-16
-1e-09
-1.47229e-15
-4.76083e-16
-1e-09
-1.73463e-15
-4.76607e-16
-1e-09
-1.74362e-15
-5.14165e-16
-1e-09
-1.64449e-15
-5.11207e-16
-1e-09
-1.34288e-15
-4.68786e-16
-1e-09
-9.41533e-16
-4.38512e-16
-1e-09
-4.72365e-16
-4.24425e-16
-1e-09
-4.28645e-16
-1e-09
-5.9925e-16
-1e-09
-1.07635e-15
-1e-09
-1.46935e-15
-1e-09
-1.77192e-15
-1e-09
-1.73497e-15
-1e-09
-1.59809e-15
-1e-09
-1.30978e-15
-1e-09
-9.24866e-16
-1e-09
-4.765e-16
-1e-09
-1e-09
-7.85448e-16
-6.06493e-16
-9.99995e-10
-1.5009e-15
-6.05631e-16
-9.99995e-10
-2.03324e-15
-5.89275e-16
-9.99996e-10
-2.37072e-15
-5.79329e-16
-9.99996e-10
-2.44018e-15
-5.39498e-16
-9.99997e-10
-2.31736e-15
-5.40553e-16
-9.99998e-10
-1.99235e-15
-5.71248e-16
-9.99999e-10
-1.44703e-15
-5.89794e-16
-1e-09
-7.39006e-16
-5.81717e-16
-1e-09
-5.77419e-16
-1e-09
-7.84779e-16
-1.1614e-15
-9.99995e-10
-1.49015e-15
-1.16606e-15
-9.99995e-10
-2.03097e-15
-1.14679e-15
-9.99996e-10
-2.34111e-15
-1.09867e-15
-9.99997e-10
-2.44821e-15
-1.05293e-15
-9.99998e-10
-2.35453e-15
-1.06761e-15
-9.99999e-10
-2.01502e-15
-1.06518e-15
-1e-09
-1.44234e-15
-1.0615e-15
-1e-09
-7.36798e-16
-1.06336e-15
-1e-09
-1.06634e-15
-1e-09
-7.84296e-16
-1.62823e-15
-9.99995e-10
-1.47087e-15
-1.6085e-15
-9.99996e-10
-1.9827e-15
-1.59234e-15
-9.99996e-10
-2.29216e-15
-1.56668e-15
-9.99997e-10
-2.46487e-15
-1.54627e-15
-9.99998e-10
-2.3491e-15
-1.60774e-15
-9.99999e-10
-2.00937e-15
-1.54997e-15
-1e-09
-1.4445e-15
-1.54059e-15
-1e-09
-7.42577e-16
-1.53606e-15
-1e-09
-1.53173e-15
-1e-09
-7.59043e-16
-1.91455e-15
-9.99996e-10
-1.45446e-15
-1.91792e-15
-9.99997e-10
-1.95697e-15
-1.88957e-15
-9.99997e-10
-2.23349e-15
-1.86439e-15
-9.99998e-10
-2.58922e-15
-1.73265e-15
-9.99999e-10
-2.25238e-15
-2.14556e-15
-1e-09
-1.99617e-15
-1.97116e-15
-1e-09
-1.44105e-15
-1.88057e-15
-1e-09
-7.42684e-16
-1.8767e-15
-1e-09
-1.89797e-15
-1e-09
-7.56946e-16
-2.01761e-15
-9.99997e-10
-1.43133e-15
-2.03914e-15
-9.99997e-10
-1.97059e-15
-2.05291e-15
-9.99998e-10
-2.1121e-15
-2.19425e-15
-9.99999e-10
-3.06598e-15
-2.77066e-15
-1e-09
-2.08794e-15
-1.53044e-15
-1e-09
-1.91951e-15
-1.91559e-15
-1e-09
-1.43474e-15
-2.01978e-15
-1e-09
-7.66141e-16
-2.02033e-15
-1e-09
-2.01526e-15
-1e-09
-7.70312e-16
-1.98098e-15
-9.99998e-10
-1.44121e-15
-1.99832e-15
-9.99998e-10
-2.0405e-15
-2.00353e-15
-9.99999e-10
-2.54186e-15
-1.93301e-15
-1e-09
-1.89854e-15
-1.81505e-15
-1e-09
-2.59812e-15
-2.36998e-15
-1e-09
-1.97467e-15
-2.10259e-15
-1e-09
-1.42778e-15
-2.04471e-15
-1e-09
-7.65142e-16
-2.01265e-15
-1e-09
-1.972e-15
-1e-09
-7.83176e-16
-1.66643e-15
-9.99999e-10
-1.45137e-15
-1.68939e-15
-9.99999e-10
-2.00878e-15
-1.70416e-15
-1e-09
-2.44341e-15
-1.74236e-15
-1e-09
-2.27811e-15
-1.74154e-15
-1e-09
-2.35504e-15
-1.82224e-15
-1e-09
-1.94004e-15
-1.76746e-15
-1e-09
-1.39825e-15
-1.73586e-15
-1e-09
-7.30504e-16
-1.69685e-15
-1e-09
-1.65508e-15
-1e-09
-8.00774e-16
-1.18713e-15
-9.99999e-10
-1.46758e-15
-1.20126e-15
-1e-09
-2.04884e-15
-1.23364e-15
-1e-09
-2.43076e-15
-1.24566e-15
-1e-09
-2.40979e-15
-1.29717e-15
-1e-09
-2.27502e-15
-1.31582e-15
-1e-09
-1.90877e-15
-1.25953e-15
-1e-09
-1.36042e-15
-1.20758e-15
-1e-09
-6.92242e-16
-1.18032e-15
-1.00001e-09
-1.17896e-15
-1.00001e-09
-8.10947e-16
-6.30247e-16
-1e-09
-1.49891e-15
-6.42229e-16
-1e-09
-2.05941e-15
-6.26721e-16
-1e-09
-2.48504e-15
-6.4397e-16
-1e-09
-2.43639e-15
-6.5944e-16
-1e-09
-2.21344e-15
-6.68641e-16
-1e-09
-1.85597e-15
-6.0656e-16
-1e-09
-1.3332e-15
-5.82398e-16
-1e-09
-6.9353e-16
-5.89818e-16
-1.00001e-09
-6.07608e-16
-1.00001e-09
-8.21045e-16
-1e-09
-1.48016e-15
-1e-09
-2.07182e-15
-1e-09
-2.49799e-15
-1e-09
-2.44047e-15
-1e-09
-2.14306e-15
-1e-09
-1.8277e-15
-1e-09
-1.33738e-15
-1.00001e-09
-7.11255e-16
-1.00001e-09
-1.00001e-09
-1.10705e-15
-8.92028e-16
-9.99993e-10
-2.08153e-15
-8.88024e-16
-9.99993e-10
-2.82338e-15
-8.82969e-16
-9.99994e-10
-3.32269e-15
-8.71654e-16
-9.99995e-10
-3.40446e-15
-8.28383e-16
-9.99996e-10
-3.24218e-15
-8.1899e-16
-9.99998e-10
-2.77574e-15
-8.38827e-16
-9.99999e-10
-1.9964e-15
-8.38632e-16
-1e-09
-1.02874e-15
-8.39554e-16
-1e-09
-8.35873e-16
-1e-09
-1.10364e-15
-1.69032e-15
-9.99993e-10
-2.08367e-15
-1.69862e-15
-9.99994e-10
-2.82049e-15
-1.66106e-15
-9.99994e-10
-3.29248e-15
-1.63008e-15
-9.99995e-10
-3.40328e-15
-1.58805e-15
-9.99997e-10
-3.26884e-15
-1.59773e-15
-9.99998e-10
-2.78174e-15
-1.57287e-15
-9.99999e-10
-2.0025e-15
-1.56474e-15
-1e-09
-1.02841e-15
-1.57617e-15
-1e-09
-1.57782e-15
-1e-09
-1.10565e-15
-2.33774e-15
-9.99994e-10
-2.0456e-15
-2.3273e-15
-9.99994e-10
-2.78924e-15
-2.33603e-15
-9.99995e-10
-3.25083e-15
-2.31059e-15
-9.99996e-10
-3.41337e-15
-2.27097e-15
-9.99997e-10
-3.24387e-15
-2.31345e-15
-9.99999e-10
-2.77219e-15
-2.23497e-15
-1e-09
-2.01468e-15
-2.23452e-15
-1e-09
-1.03444e-15
-2.21842e-15
-1e-09
-2.23455e-15
-1e-09
-1.08881e-15
-2.78137e-15
-9.99995e-10
-2.05407e-15
-2.79266e-15
-9.99995e-10
-2.76384e-15
-2.76311e-15
-9.99996e-10
-3.1962e-15
-2.74252e-15
-9.99997e-10
-3.46293e-15
-2.54793e-15
-9.99998e-10
-3.14965e-15
-2.97521e-15
-1e-09
-2.76701e-15
-2.79969e-15
-1e-09
-1.99969e-15
-2.68482e-15
-1e-09
-1.05651e-15
-2.69062e-15
-1e-09
-2.68676e-15
-1e-09
-1.09186e-15
-2.83661e-15
-9.99996e-10
-2.02698e-15
-2.85008e-15
-9.99996e-10
-2.75982e-15
-2.8662e-15
-9.99997e-10
-3.01648e-15
-2.93541e-15
-9.99998e-10
-3.90654e-15
-3.46825e-15
-9.99999e-10
-2.98536e-15
-2.32098e-15
-1e-09
-2.66299e-15
-2.67384e-15
-1e-09
-2.00277e-15
-2.77656e-15
-1e-09
-1.05645e-15
-2.77672e-15
-1e-09
-2.77844e-15
-1e-09
-1.09766e-15
-2.71432e-15
-9.99997e-10
-2.04208e-15
-2.71879e-15
-9.99997e-10
-2.81861e-15
-2.69494e-15
-9.99998e-10
-3.45367e-15
-2.63365e-15
-9.99999e-10
-2.81907e-15
-2.55988e-15
-1e-09
-3.34809e-15
-2.98635e-15
-1e-09
-2.72665e-15
-2.78534e-15
-1e-09
-1.99318e-15
-2.71797e-15
-1e-09
-1.06396e-15
-2.65744e-15
-1e-09
-2.59821e-15
-1.00001e-09
-1.09425e-15
-2.28027e-15
-9.99998e-10
-2.02048e-15
-2.293e-15
-9.99998e-10
-2.77421e-15
-2.28709e-15
-9.99999e-10
-3.39382e-15
-2.31495e-15
-1e-09
-3.19096e-15
-2.28862e-15
-1e-09
-3.16402e-15
-2.38355e-15
-1e-09
-2.67078e-15
-2.31869e-15
-1e-09
-1.9368e-15
-2.2806e-15
-1e-09
-1.01364e-15
-2.24534e-15
-1.00001e-09
-2.20934e-15
-1.00001e-09
-1.10009e-15
-1.62756e-15
-9.99999e-10
-2.01569e-15
-1.621e-15
-9.99999e-10
-2.80534e-15
-1.63841e-15
-1e-09
-3.36015e-15
-1.64577e-15
-1e-09
-3.32235e-15
-1.65115e-15
-1e-09
-3.09193e-15
-1.67721e-15
-1e-09
-2.63311e-15
-1.62237e-15
-1e-09
-1.90363e-15
-1.59254e-15
-1.00001e-09
-9.8315e-16
-1.5881e-15
-1.00001e-09
-1.60226e-15
-1.00001e-09
-1.08835e-15
-8.38323e-16
-9.99999e-10
-2.03178e-15
-8.33327e-16
-1e-09
-2.81193e-15
-8.2429e-16
-1e-09
-3.36797e-15
-8.44218e-16
-1e-09
-3.35764e-15
-8.1262e-16
-1e-09
-3.03325e-15
-8.24542e-16
-1e-09
-2.60143e-15
-7.92539e-16
-1.00001e-09
-1.89948e-15
-7.93297e-16
-1.00001e-09
-1.00035e-15
-8.19633e-16
-1.00001e-09
-8.28752e-16
-1.00001e-09
-1.08108e-15
-1e-09
-2.01805e-15
-1e-09
-2.8261e-15
-1e-09
-3.33225e-15
-1e-09
-3.36273e-15
-1e-09
-2.99067e-15
-1e-09
-2.59555e-15
-1.00001e-09
-1.92219e-15
-1.00001e-09
-1.00911e-15
-1.00001e-09
-1.00001e-09
-1.53261e-15
-1.26174e-15
-9.9999e-10
-2.83292e-15
-1.2481e-15
-9.99991e-10
-3.8599e-15
-1.24727e-15
-9.99992e-10
-4.54148e-15
-1.22501e-15
-9.99993e-10
-4.68349e-15
-1.19346e-15
-9.99995e-10
-4.42345e-15
-1.17825e-15
-9.99996e-10
-3.7727e-15
-1.18088e-15
-9.99998e-10
-2.73477e-15
-1.19878e-15
-9.99999e-10
-1.41816e-15
-1.19223e-15
-1e-09
-1.19071e-15
-1e-09
-1.52014e-15
-2.35349e-15
-9.99991e-10
-2.83929e-15
-2.35207e-15
-9.99991e-10
-3.84582e-15
-2.3241e-15
-9.99992e-10
-4.52465e-15
-2.32236e-15
-9.99993e-10
-4.67905e-15
-2.29834e-15
-9.99995e-10
-4.43495e-15
-2.29213e-15
-9.99997e-10
-3.7999e-15
-2.2792e-15
-9.99999e-10
-2.73542e-15
-2.25338e-15
-1e-09
-1.4225e-15
-2.27576e-15
-1e-09
-2.2615e-15
-1e-09
-1.51286e-15
-3.23827e-15
-9.99991e-10
-2.81065e-15
-3.24656e-15
-9.99992e-10
-3.84438e-15
-3.25718e-15
-9.99993e-10
-4.50013e-15
-3.24316e-15
-9.99994e-10
-4.67197e-15
-3.21754e-15
-9.99996e-10
-4.421e-15
-3.24754e-15
-9.99998e-10
-3.77454e-15
-3.16447e-15
-9.99999e-10
-2.75917e-15
-3.159e-15
-1e-09
-1.41402e-15
-3.12784e-15
-1e-09
-3.15286e-15
-1e-09
-1.51331e-15
-3.85448e-15
-9.99993e-10
-2.82102e-15
-3.86817e-15
-9.99993e-10
-3.83058e-15
-3.84596e-15
-9.99994e-10
-4.46733e-15
-3.81937e-15
-9.99996e-10
-4.68702e-15
-3.68354e-15
-9.99997e-10
-4.32776e-15
-3.98795e-15
-9.99999e-10
-3.76836e-15
-3.84509e-15
-1e-09
-2.72921e-15
-3.74705e-15
-1e-09
-1.44662e-15
-3.73489e-15
-1e-09
-3.69999e-15
-1e-09
-1.5167e-15
-3.90435e-15
-9.99994e-10
-2.8015e-15
-3.90255e-15
-9.99994e-10
-3.8129e-15
-3.90619e-15
-9.99996e-10
-4.3351e-15
-3.93593e-15
-9.99997e-10
-4.99025e-15
-4.27845e-15
-9.99999e-10
-4.16935e-15
-3.46876e-15
-1e-09
-3.65814e-15
-3.72825e-15
-1e-09
-2.71285e-15
-3.7958e-15
-1e-09
-1.41752e-15
-3.79421e-15
-1e-09
-3.792e-15
-1.00001e-09
-1.50548e-15
-3.63724e-15
-9.99995e-10
-2.80563e-15
-3.62573e-15
-9.99996e-10
-3.8569e-15
-3.59096e-15
-9.99997e-10
-4.64598e-15
-3.5335e-15
-9.99998e-10
-4.20587e-15
-3.45228e-15
-1e-09
-4.40839e-15
-3.73103e-15
-1e-09
-3.71895e-15
-3.6163e-15
-1e-09
-2.70873e-15
-3.56994e-15
-1e-09
-1.42435e-15
-3.52189e-15
-1.00001e-09
-3.4759e-15
-1.00001e-09
-1.48603e-15
-3.06706e-15
-9.99997e-10
-2.77099e-15
-3.06792e-15
-9.99997e-10
-3.80602e-15
-3.04747e-15
-9.99998e-10
-4.58625e-15
-3.04804e-15
-1e-09
-4.49502e-15
-2.96829e-15
-1e-09
-4.30161e-15
-3.04807e-15
-1e-09
-3.66322e-15
-3.01795e-15
-1e-09
-2.66147e-15
-3.00442e-15
-1.00001e-09
-1.38851e-15
-2.99305e-15
-1.00001e-09
-2.97457e-15
-1.00001e-09
-1.47874e-15
-2.19901e-15
-9.99998e-10
-2.75014e-15
-2.17674e-15
-9.99998e-10
-3.8072e-15
-2.18723e-15
-9.99999e-10
-4.52007e-15
-2.18219e-15
-1e-09
-4.58001e-15
-2.12618e-15
-1e-09
-4.28081e-15
-2.14779e-15
-1e-09
-3.65001e-15
-2.12643e-15
-1.00001e-09
-2.65346e-15
-2.14116e-15
-1.00001e-09
-1.37738e-15
-2.15587e-15
-1.00001e-09
-2.17179e-15
-1.00001e-09
-1.45103e-15
-1.12275e-15
-9.99999e-10
-2.75975e-15
-1.12328e-15
-9.99999e-10
-3.8013e-15
-1.12224e-15
-1e-09
-4.46815e-15
-1.12898e-15
-1e-09
-4.60395e-15
-1.07243e-15
-1e-09
-4.25854e-15
-1.07499e-15
-1e-09
-3.66181e-15
-1.08845e-15
-1.00001e-09
-2.66844e-15
-1.10109e-15
-1.00001e-09
-1.39711e-15
-1.12831e-15
-1.00001e-09
-1.11807e-15
-1.00001e-09
-1.44706e-15
-9.99999e-10
-2.75264e-15
-1e-09
-3.80084e-15
-1e-09
-4.40602e-15
-1e-09
-4.59591e-15
-1e-09
-4.2597e-15
-1.00001e-09
-3.66461e-15
-1.00001e-09
-2.69055e-15
-1.00001e-09
-1.38576e-15
-1.00001e-09
-1.00001e-09
-2.06534e-15
-1.71781e-15
-9.99986e-10
-3.80764e-15
-1.69546e-15
-9.99987e-10
-5.22446e-15
-1.69907e-15
-9.99988e-10
-6.12021e-15
-1.67678e-15
-9.9999e-10
-6.39772e-15
-1.69673e-15
-9.99992e-10
-6.0492e-15
-1.68166e-15
-9.99995e-10
-5.15042e-15
-1.66638e-15
-9.99997e-10
-3.74012e-15
-1.67993e-15
-9.99999e-10
-1.94531e-15
-1.65522e-15
-1e-09
-1.64897e-15
-1e-09
-2.04404e-15
-3.1884e-15
-9.99987e-10
-3.81947e-15
-3.1837e-15
-9.99988e-10
-5.21308e-15
-3.19107e-15
-9.99989e-10
-6.15597e-15
-3.22001e-15
-9.99991e-10
-6.3978e-15
-3.23109e-15
-9.99993e-10
-6.04581e-15
-3.21598e-15
-9.99996e-10
-5.1772e-15
-3.2038e-15
-9.99998e-10
-3.72531e-15
-3.15591e-15
-1e-09
-1.94645e-15
-3.16983e-15
-1e-09
-3.13692e-15
-1e-09
-2.03243e-15
-4.3909e-15
-9.99988e-10
-3.82642e-15
-4.41695e-15
-9.99989e-10
-5.24341e-15
-4.41936e-15
-9.9999e-10
-6.16585e-15
-4.4423e-15
-9.99992e-10
-6.38362e-15
-4.45441e-15
-9.99994e-10
-6.03118e-15
-4.4831e-15
-9.99997e-10
-5.13134e-15
-4.38788e-15
-9.99999e-10
-3.74062e-15
-4.35558e-15
-1e-09
-1.92161e-15
-4.31774e-15
-1e-09
-4.33106e-15
-1e-09
-2.04781e-15
-5.18875e-15
-9.9999e-10
-3.82782e-15
-5.21316e-15
-9.9999e-10
-5.26693e-15
-5.2163e-15
-9.99992e-10
-6.16467e-15
-5.1822e-15
-9.99994e-10
-6.39585e-15
-5.11958e-15
-9.99996e-10
-5.92362e-15
-5.31298e-15
-9.99998e-10
-5.09948e-15
-5.20137e-15
-1e-09
-3.7035e-15
-5.12517e-15
-1e-09
-1.94577e-15
-5.07903e-15
-1e-09
-5.03255e-15
-1e-09
-2.05861e-15
-5.30502e-15
-9.99991e-10
-3.83139e-15
-5.30454e-15
-9.99992e-10
-5.24809e-15
-5.28594e-15
-9.99994e-10
-6.10526e-15
-5.29957e-15
-9.99996e-10
-6.57243e-15
-5.48666e-15
-9.99998e-10
-5.78188e-15
-4.96136e-15
-1e-09
-5.01317e-15
-5.13307e-15
-1e-09
-3.65284e-15
-5.17918e-15
-1e-09
-1.90884e-15
-5.17546e-15
-1.00001e-09
-5.15636e-15
-1.00001e-09
-2.04402e-15
-4.91955e-15
-9.99993e-10
-3.81237e-15
-4.89656e-15
-9.99994e-10
-5.27653e-15
-4.8709e-15
-9.99995e-10
-6.27889e-15
-4.79981e-15
-9.99997e-10
-6.06566e-15
-4.68076e-15
-1e-09
-5.9442e-15
-4.8483e-15
-1e-09
-5.04217e-15
-4.792e-15
-1e-09
-3.64862e-15
-4.77026e-15
-1.00001e-09
-1.90168e-15
-4.75952e-15
-1.00001e-09
-4.73587e-15
-1.00001e-09
-2.01201e-15
-4.16353e-15
-9.99995e-10
-3.78813e-15
-4.15976e-15
-9.99996e-10
-5.21383e-15
-4.13655e-15
-9.99997e-10
-6.19056e-15
-4.10024e-15
-9.99999e-10
-6.24057e-15
-4.00148e-15
-1e-09
-5.90036e-15
-4.03037e-15
-1e-09
-5.01051e-15
-4.02713e-15
-1.00001e-09
-3.6389e-15
-4.03715e-15
-1.00001e-09
-1.89072e-15
-4.04822e-15
-1.00001e-09
-4.04866e-15
-1.00001e-09
-1.99839e-15
-3.00267e-15
-9.99997e-10
-3.76357e-15
-2.98616e-15
-9.99998e-10
-5.17727e-15
-2.98968e-15
-9.99999e-10
-6.10052e-15
-2.96549e-15
-1e-09
-6.28715e-15
-2.87363e-15
-1e-09
-5.9049e-15
-2.87555e-15
-1.00001e-09
-5.02126e-15
-2.88359e-15
-1.00001e-09
-3.65344e-15
-2.92653e-15
-1.00001e-09
-1.90069e-15
-2.94322e-15
-1.00001e-09
-2.95722e-15
-1.00001e-09
-1.97503e-15
-1.55281e-15
-9.99998e-10
-3.76641e-15
-1.56276e-15
-9.99999e-10
-5.15252e-15
-1.55399e-15
-1e-09
-6.01204e-15
-1.5443e-15
-1e-09
-6.28997e-15
-1.49555e-15
-1e-09
-5.91246e-15
-1.48137e-15
-1.00001e-09
-5.06061e-15
-1.51917e-15
-1.00001e-09
-3.6702e-15
-1.53262e-15
-1.00001e-09
-1.9192e-15
-1.55243e-15
-1.00001e-09
-1.52684e-15
-1.00001e-09
-1.97799e-15
-9.99999e-10
-3.74956e-15
-9.99999e-10
-5.13182e-15
-1e-09
-5.9521e-15
-1e-09
-6.26048e-15
-1e-09
-5.93577e-15
-1.00001e-09
-5.06098e-15
-1.00001e-09
-3.68311e-15
-1.00001e-09
-1.89207e-15
-1.00001e-09
-1.00001e-09
-2.74147e-15
-2.2873e-15
-9.99981e-10
-5.13314e-15
-2.27717e-15
-9.99982e-10
-7.07683e-15
-2.28232e-15
-9.99984e-10
-8.29561e-15
-2.28763e-15
-9.99987e-10
-8.72739e-15
-2.36055e-15
-9.9999e-10
-8.27772e-15
-2.34582e-15
-9.99993e-10
-7.02867e-15
-2.29592e-15
-9.99996e-10
-5.09821e-15
-2.28499e-15
-9.99999e-10
-2.6627e-15
-2.25638e-15
-1e-09
-2.23485e-15
-1e-09
-2.73185e-15
-4.28716e-15
-9.99982e-10
-5.15032e-15
-4.29607e-15
-9.99983e-10
-7.09777e-15
-4.34122e-15
-9.99985e-10
-8.38841e-15
-4.3807e-15
-9.99987e-10
-8.73283e-15
-4.41166e-15
-9.99991e-10
-8.24449e-15
-4.40141e-15
-9.99994e-10
-7.03526e-15
-4.36924e-15
-9.99997e-10
-5.0821e-15
-4.31954e-15
-1e-09
-2.65226e-15
-4.30134e-15
-1e-09
-4.26478e-15
-1e-09
-2.73062e-15
-5.92424e-15
-9.99983e-10
-5.19553e-15
-5.95879e-15
-9.99984e-10
-7.13888e-15
-5.95552e-15
-9.99986e-10
-8.41855e-15
-6.00664e-15
-9.99989e-10
-8.72405e-15
-6.02121e-15
-9.99992e-10
-8.20912e-15
-6.05712e-15
-9.99995e-10
-6.98751e-15
-5.96885e-15
-9.99998e-10
-5.06541e-15
-5.90591e-15
-1e-09
-2.62665e-15
-5.87784e-15
-1e-09
-5.86366e-15
-1e-09
-2.75155e-15
-6.95476e-15
-9.99986e-10
-5.1909e-15
-6.99637e-15
-9.99987e-10
-7.19101e-15
-7.01249e-15
-9.99989e-10
-8.4191e-15
-6.96873e-15
-9.99991e-10
-8.75127e-15
-6.93803e-15
-9.99994e-10
-8.10744e-15
-7.05389e-15
-9.99997e-10
-6.92559e-15
-6.99019e-15
-1e-09
-5.03821e-15
-6.93791e-15
-1e-09
-2.62689e-15
-6.86179e-15
-1.00001e-09
-6.81148e-15
-1.00001e-09
-2.7743e-15
-7.19184e-15
-9.99988e-10
-5.20525e-15
-7.20446e-15
-9.99989e-10
-7.16081e-15
-7.17643e-15
-9.99991e-10
-8.38812e-15
-7.20101e-15
-9.99994e-10
-8.84193e-15
-7.29244e-15
-9.99997e-10
-7.99628e-15
-6.88738e-15
-1e-09
-6.86403e-15
-7.03142e-15
-1e-09
-4.95914e-15
-7.0586e-15
-1.00001e-09
-2.59156e-15
-7.04729e-15
-1.00001e-09
-7.00722e-15
-1.00001e-09
-2.76988e-15
-6.72754e-15
-9.99991e-10
-5.17766e-15
-6.70192e-15
-9.99992e-10
-7.19162e-15
-6.69284e-15
-9.99994e-10
-8.46921e-15
-6.60415e-15
-9.99996e-10
-8.46122e-15
-6.46778e-15
-9.99999e-10
-8.11991e-15
-6.57497e-15
-1e-09
-6.86856e-15
-6.50931e-15
-1.00001e-09
-4.94427e-15
-6.48071e-15
-1.00001e-09
-2.56697e-15
-6.49488e-15
-1.00001e-09
-6.49577e-15
-1.00001e-09
-2.73105e-15
-5.71125e-15
-9.99993e-10
-5.17154e-15
-5.71853e-15
-9.99994e-10
-7.11656e-15
-5.69138e-15
-9.99996e-10
-8.38764e-15
-5.62587e-15
-9.99999e-10
-8.57823e-15
-5.53056e-15
-1e-09
-8.07071e-15
-5.52175e-15
-1.00001e-09
-6.83305e-15
-5.4875e-15
-1.00001e-09
-4.96197e-15
-5.50117e-15
-1.00001e-09
-2.5844e-15
-5.53347e-15
-1.00001e-09
-5.54892e-15
-1.00001e-09
-2.72545e-15
-4.14488e-15
-9.99996e-10
-5.1431e-15
-4.14197e-15
-9.99997e-10
-7.0496e-15
-4.12499e-15
-9.99998e-10
-8.29999e-15
-4.08203e-15
-1e-09
-8.59202e-15
-3.979e-15
-1e-09
-8.04424e-15
-3.95733e-15
-1.00001e-09
-6.8472e-15
-3.97743e-15
-1.00001e-09
-4.99711e-15
-4.02931e-15
-1.00001e-09
-2.61226e-15
-4.03727e-15
-1.00001e-09
-4.04747e-15
-1.00002e-09
-2.71299e-15
-2.16857e-15
-9.99997e-10
-5.12506e-15
-2.16858e-15
-9.99998e-10
-7.00591e-15
-2.14598e-15
-1e-09
-8.19842e-15
-2.12293e-15
-1e-09
-8.57395e-15
-2.09414e-15
-1.00001e-09
-8.06343e-15
-2.06547e-15
-1.00001e-09
-6.89485e-15