/*--------------------------------*- C++ -*----------------------------------*\
  =========                 |
  \\      /  F ield         | OpenFOAM: The Open Source CFD Toolbox
   \\    /   O peration     | Website:  https://openfoam.org
    \\  /    A nd           | Version:  9
     \\/     M anipulation  |
\*---------------------------------------------------------------------------*/
FoamFile
{
    format      ascii;
    class       volVectorField;
    location    "0.09";
    object      U;
}
// * * * * * * * * * * * * * * * * * * * * * * * * * * * * * * * * * * * * * //

dimensions      [0 1 -1 0 0 0 0];

internalField   nonuniform List<vector> 
9000
(
(-4.70141e-11 -3.18651e-11 -0.000999998)
(-1.26943e-10 -2.94625e-11 -0.000999998)
(-1.97652e-10 -2.46544e-11 -0.000999999)
(-2.5537e-10 -2.08834e-11 -0.000999999)
(-2.44495e-10 -2.38104e-11 -0.001)
(-2.05467e-10 -2.55054e-11 -0.001)
(-1.62805e-10 -1.34057e-11 -0.001)
(-1.18981e-10 -2.68044e-11 -0.001)
(-8.43234e-11 -1.76039e-11 -0.001)
(-2.96133e-11 -2.47874e-11 -0.001)
(-4.46401e-11 -8.07757e-11 -0.000999998)
(-1.19886e-10 -6.81164e-11 -0.000999999)
(-1.89428e-10 -7.06784e-11 -0.000999999)
(-2.55047e-10 -6.07515e-11 -0.000999999)
(-2.49661e-10 -5.14159e-11 -0.001)
(-1.95511e-10 -5.04798e-11 -0.001)
(-1.64491e-10 -4.72629e-11 -0.001)
(-1.23433e-10 -5.64584e-11 -0.001)
(-8.25007e-11 -7.152e-11 -0.001)
(-3.6888e-11 -7.34904e-11 -0.001)
(-3.43256e-11 -1.19065e-10 -0.000999999)
(-1.16936e-10 -1.12446e-10 -0.000999999)
(-1.90691e-10 -1.07585e-10 -0.000999999)
(-2.36669e-10 -8.99175e-11 -0.000999999)
(-2.34791e-10 -6.60471e-11 -0.001)
(-2.01799e-10 -5.06376e-11 -0.001)
(-1.69169e-10 -7.90848e-11 -0.001)
(-1.43511e-10 -1.00506e-10 -0.001)
(-1.01691e-10 -1.16918e-10 -0.001)
(-3.17836e-11 -1.20925e-10 -0.001)
(-3.78127e-11 -1.49748e-10 -0.000999999)
(-1.08166e-10 -1.50712e-10 -0.000999999)
(-1.66903e-10 -1.36123e-10 -0.000999999)
(-2.1354e-10 -1.25949e-10 -0.000999999)
(-2.1047e-10 -1.04832e-10 -0.001)
(-2.08622e-10 -4.96565e-11 -0.001)
(-2.14401e-10 -1.09343e-10 -0.001)
(-1.61311e-10 -1.50959e-10 -0.001)
(-1.03199e-10 -1.61485e-10 -0.001)
(-4.11273e-11 -1.72197e-10 -0.001)
(-3.50701e-11 -1.72942e-10 -0.000999999)
(-1.03048e-10 -1.69035e-10 -0.000999999)
(-1.65898e-10 -1.67515e-10 -0.000999999)
(-2.0535e-10 -1.46899e-10 -0.001)
(-1.58558e-10 -9.60952e-11 -0.001)
(-2.06509e-10 -1.74462e-10 -0.001)
(-2.70581e-10 -1.74164e-10 -0.001)
(-1.9569e-10 -1.84091e-10 -0.001)
(-1.23292e-10 -2.07097e-10 -0.001)
(-4.27963e-11 -2.05574e-10 -0.001)
(-3.36185e-11 -1.8377e-10 -0.000999999)
(-1.02394e-10 -1.85566e-10 -0.000999999)
(-1.44667e-10 -1.82459e-10 -0.001)
(-1.4201e-10 -1.78196e-10 -0.001)
(-2.38033e-10 -1.81992e-10 -0.001)
(-2.86959e-10 -2.62903e-10 -0.001)
(-2.24113e-10 -2.32466e-10 -0.001)
(-1.94303e-10 -2.24192e-10 -0.001)
(-1.25117e-10 -2.25348e-10 -0.001)
(-4.00287e-11 -2.21248e-10 -0.001)
(-3.64341e-11 -1.67154e-10 -0.001)
(-1.01287e-10 -1.65927e-10 -0.001)
(-1.58476e-10 -1.6916e-10 -0.001)
(-2.04705e-10 -1.98715e-10 -0.001)
(-2.42972e-10 -2.64497e-10 -0.001)
(-2.57001e-10 -2.18641e-10 -0.001)
(-2.32082e-10 -2.27383e-10 -0.001)
(-1.88604e-10 -2.22205e-10 -0.001)
(-1.20837e-10 -2.11252e-10 -0.001)
(-3.91977e-11 -2.07915e-10 -0.001)
(-3.19922e-11 -1.25622e-10 -0.001)
(-1.03985e-10 -1.22529e-10 -0.001)
(-1.77422e-10 -1.35397e-10 -0.001)
(-2.37315e-10 -1.53977e-10 -0.001)
(-2.57913e-10 -1.85491e-10 -0.001)
(-2.4965e-10 -1.83851e-10 -0.001)
(-2.27659e-10 -1.81896e-10 -0.001)
(-1.78187e-10 -1.73195e-10 -0.001)
(-1.11322e-10 -1.6436e-10 -0.001)
(-3.71706e-11 -1.62943e-10 -0.001)
(-3.30473e-11 -7.45434e-11 -0.001)
(-1.10738e-10 -7.91464e-11 -0.001)
(-1.89877e-10 -8.74725e-11 -0.001)
(-2.54761e-10 -9.41148e-11 -0.001)
(-2.72771e-10 -1.08853e-10 -0.001)
(-2.5334e-10 -1.1438e-10 -0.001)
(-2.21385e-10 -1.11913e-10 -0.001)
(-1.71065e-10 -1.0566e-10 -0.001)
(-1.1093e-10 -1.0638e-10 -0.001)
(-3.81014e-11 -1.05167e-10 -0.001)
(-3.63356e-11 -2.56886e-11 -0.001)
(-1.16479e-10 -2.91042e-11 -0.001)
(-1.91945e-10 -3.17198e-11 -0.001)
(-2.58108e-10 -3.15845e-11 -0.001)
(-2.77547e-10 -3.56176e-11 -0.001)
(-2.5212e-10 -3.69528e-11 -0.001)
(-2.18427e-10 -3.49514e-11 -0.001)
(-1.72287e-10 -3.44715e-11 -0.001)
(-1.10817e-10 -3.65109e-11 -0.001)
(-3.61023e-11 -3.4508e-11 -0.001)
(-1.21302e-10 -8.15047e-11 -0.000999998)
(-3.36757e-10 -7.67657e-11 -0.000999998)
(-5.15128e-10 -7.53206e-11 -0.000999998)
(-6.62111e-10 -6.71628e-11 -0.000999999)
(-6.81598e-10 -5.47145e-11 -0.000999999)
(-5.70639e-10 -5.49828e-11 -0.001)
(-4.56274e-10 -4.14133e-11 -0.001)
(-3.54492e-10 -5.72073e-11 -0.001)
(-2.30801e-10 -5.9665e-11 -0.001)
(-8.1261e-11 -6.63235e-11 -0.001)
(-1.16638e-10 -2.12288e-10 -0.000999998)
(-3.30967e-10 -1.95328e-10 -0.000999998)
(-5.06422e-10 -1.88011e-10 -0.000999999)
(-6.42825e-10 -1.71757e-10 -0.000999999)
(-6.70805e-10 -1.2513e-10 -0.000999999)
(-5.58406e-10 -1.16172e-10 -0.001)
(-4.59364e-10 -1.37119e-10 -0.001)
(-3.73415e-10 -1.59247e-10 -0.001)
(-2.4043e-10 -1.86144e-10 -0.001)
(-8.81561e-11 -2.0439e-10 -0.001)
(-1.04277e-10 -3.10283e-10 -0.000999998)
(-3.1272e-10 -2.96463e-10 -0.000999998)
(-4.92544e-10 -2.74231e-10 -0.000999999)
(-6.00651e-10 -2.44974e-10 -0.000999999)
(-6.27473e-10 -1.9253e-10 -0.000999999)
(-5.83766e-10 -1.56372e-10 -0.001)
(-5.00229e-10 -2.34408e-10 -0.001)
(-4.04211e-10 -2.77983e-10 -0.001)
(-2.76761e-10 -3.15539e-10 -0.001)
(-9.99758e-11 -3.34004e-10 -0.001)
(-1.02356e-10 -3.94629e-10 -0.000999999)
(-2.94367e-10 -3.92097e-10 -0.000999999)
(-4.54941e-10 -3.68615e-10 -0.000999999)
(-5.61194e-10 -3.38295e-10 -0.000999999)
(-5.82234e-10 -3.4687e-10 -0.001)
(-6.00332e-10 -1.8112e-10 -0.001)
(-5.81042e-10 -3.19087e-10 -0.001)
(-4.54654e-10 -4.08461e-10 -0.001)
(-2.9714e-10 -4.45274e-10 -0.001)
(-1.07188e-10 -4.57253e-10 -0.001)
(-1.01189e-10 -4.73722e-10 -0.000999999)
(-2.8604e-10 -4.6645e-10 -0.000999999)
(-4.38691e-10 -4.58763e-10 -0.000999999)
(-5.78937e-10 -4.12747e-10 -0.001)
(-4.70367e-10 -3.12464e-10 -0.001)
(-5.55823e-10 -4.89675e-10 -0.001)
(-7.27469e-10 -5.03183e-10 -0.001)
(-5.30452e-10 -5.23444e-10 -0.001)
(-3.26446e-10 -5.48221e-10 -0.001)
(-1.12781e-10 -5.46279e-10 -0.001)
(-9.43476e-11 -4.98341e-10 -0.000999999)
(-2.78558e-10 -4.97176e-10 -0.000999999)
(-4.01239e-10 -5.03276e-10 -0.001)
(-4.1492e-10 -5.06542e-10 -0.001)
(-6.5917e-10 -4.69694e-10 -0.001)
(-7.91136e-10 -7.09029e-10 -0.001)
(-6.14798e-10 -6.38039e-10 -0.001)
(-4.99726e-10 -6.02326e-10 -0.001)
(-3.21011e-10 -5.94727e-10 -0.001)
(-1.06226e-10 -5.8296e-10 -0.001)
(-9.89809e-11 -4.50495e-10 -0.001)
(-2.89894e-10 -4.52472e-10 -0.001)
(-4.47993e-10 -4.7078e-10 -0.001)
(-5.45489e-10 -5.36164e-10 -0.001)
(-6.7277e-10 -6.73935e-10 -0.001)
(-7.24187e-10 -5.71566e-10 -0.001)
(-6.20823e-10 -5.80394e-10 -0.001)
(-4.872e-10 -5.7402e-10 -0.001)
(-3.08305e-10 -5.57354e-10 -0.001)
(-1.02188e-10 -5.48836e-10 -0.001)
(-9.53235e-11 -3.52944e-10 -0.001)
(-2.97838e-10 -3.51298e-10 -0.001)
(-4.84854e-10 -3.71423e-10 -0.001)
(-6.18085e-10 -4.15504e-10 -0.001)
(-6.94524e-10 -4.86882e-10 -0.001)
(-6.97543e-10 -4.59771e-10 -0.001)
(-6.17292e-10 -4.5647e-10 -0.001)
(-4.7677e-10 -4.53277e-10 -0.001)
(-2.96984e-10 -4.40089e-10 -0.001)
(-9.87854e-11 -4.34952e-10 -0.001)
(-9.65998e-11 -2.15651e-10 -0.001)
(-3.07595e-10 -2.23876e-10 -0.001)
(-5.12085e-10 -2.44439e-10 -0.001)
(-6.6087e-10 -2.63011e-10 -0.001)
(-7.16971e-10 -2.91258e-10 -0.001)
(-6.93674e-10 -2.86277e-10 -0.001)
(-6.14282e-10 -2.88147e-10 -0.001)
(-4.70817e-10 -2.84829e-10 -0.001)
(-2.90765e-10 -2.80168e-10 -0.001)
(-9.77769e-11 -2.75093e-10 -0.001)
(-1.02922e-10 -7.35213e-11 -0.001)
(-3.2553e-10 -8.01493e-11 -0.001)
(-5.22869e-10 -9.2187e-11 -0.001)
(-6.63495e-10 -9.19495e-11 -0.001)
(-7.16296e-10 -9.61386e-11 -0.001)
(-6.92997e-10 -9.2716e-11 -0.001)
(-6.146e-10 -9.67981e-11 -0.001)
(-4.67918e-10 -9.41661e-11 -0.001)
(-2.87218e-10 -9.47157e-11 -0.001)
(-9.39825e-11 -9.09339e-11 -0.001)
(-1.96261e-10 -1.34026e-10 -0.000999997)
(-5.60845e-10 -1.2443e-10 -0.000999998)
(-8.62295e-10 -1.19825e-10 -0.000999998)
(-1.07698e-09 -1.09652e-10 -0.000999998)
(-1.14524e-09 -9.48076e-11 -0.000999999)
(-1.0428e-09 -9.43681e-11 -0.000999999)
(-8.82469e-10 -1.03404e-10 -0.001)
(-7.09932e-10 -1.17988e-10 -0.001)
(-4.63761e-10 -1.20281e-10 -0.001)
(-1.59571e-10 -1.31414e-10 -0.001)
(-1.86782e-10 -3.73197e-10 -0.000999998)
(-5.4733e-10 -3.55268e-10 -0.000999998)
(-8.49119e-10 -3.45458e-10 -0.000999998)
(-1.05422e-09 -3.10471e-10 -0.000999998)
(-1.13229e-09 -2.5634e-10 -0.000999999)
(-1.05333e-09 -2.58791e-10 -0.000999999)
(-9.07678e-10 -2.95768e-10 -0.001)
(-7.2806e-10 -3.30135e-10 -0.001)
(-4.78233e-10 -3.56274e-10 -0.001)
(-1.71208e-10 -3.69944e-10 -0.001)
(-1.7813e-10 -5.71918e-10 -0.000999998)
(-5.33463e-10 -5.59485e-10 -0.000999998)
(-8.19202e-10 -5.27805e-10 -0.000999998)
(-9.90232e-10 -4.84666e-10 -0.000999999)
(-1.096e-09 -4.34666e-10 -0.000999999)
(-1.08423e-09 -4.46376e-10 -0.001)
(-9.55429e-10 -4.97525e-10 -0.001)
(-7.71778e-10 -5.43078e-10 -0.001)
(-5.0512e-10 -5.7503e-10 -0.001)
(-1.74157e-10 -5.74816e-10 -0.001)
(-1.73409e-10 -7.28163e-10 -0.000999998)
(-5.02166e-10 -7.23469e-10 -0.000999998)
(-7.7431e-10 -6.80165e-10 -0.000999999)
(-9.61216e-10 -6.52142e-10 -0.000999999)
(-1.09415e-09 -7.15081e-10 -0.001)
(-1.11633e-09 -5.84159e-10 -0.001)
(-1.00451e-09 -6.88388e-10 -0.001)
(-8.05751e-10 -7.56693e-10 -0.001)
(-5.11169e-10 -7.77247e-10 -0.001)
(-1.72061e-10 -7.87831e-10 -0.001)
(-1.72152e-10 -8.49988e-10 -0.000999999)
(-4.84036e-10 -8.50639e-10 -0.000999999)
(-7.47756e-10 -8.4351e-10 -0.000999999)
(-1.02514e-09 -8.34609e-10 -0.000999999)
(-1.02796e-09 -7.76948e-10 -0.001)
(-1.05752e-09 -8.64752e-10 -0.001)
(-1.12797e-09 -9.09781e-10 -0.001)
(-8.60738e-10 -9.24618e-10 -0.001)
(-5.3782e-10 -9.34202e-10 -0.001)
(-1.86199e-10 -9.39086e-10 -0.001)
(-1.72535e-10 -8.99814e-10 -0.000999999)
(-4.94034e-10 -9.01572e-10 -0.000999999)
(-7.58153e-10 -9.19845e-10 -0.001)
(-8.94679e-10 -9.47355e-10 -0.001)
(-1.1243e-09 -8.91965e-10 -0.001)
(-1.24888e-09 -1.0773e-09 -0.001)
(-1.06433e-09 -1.04297e-09 -0.001)
(-8.30273e-10 -1.01197e-09 -0.001)
(-5.27462e-10 -1.00044e-09 -0.001)
(-1.78689e-10 -9.81812e-10 -0.001)
(-1.7209e-10 -8.15835e-10 -0.001)
(-5.02211e-10 -8.2e-10 -0.001)
(-7.9341e-10 -8.48311e-10 -0.001)
(-9.97258e-10 -9.04226e-10 -0.001)
(-1.15819e-09 -1.01281e-09 -0.001)
(-1.20851e-09 -9.52828e-10 -0.001)
(-1.06241e-09 -9.56829e-10 -0.001)
(-8.18346e-10 -9.4733e-10 -0.001)
(-5.09549e-10 -9.32811e-10 -0.001)
(-1.69345e-10 -9.20671e-10 -0.001)
(-1.74989e-10 -6.33243e-10 -0.001)
(-5.2481e-10 -6.43425e-10 -0.001)
(-8.42262e-10 -6.80802e-10 -0.001)
(-1.05917e-09 -7.26637e-10 -0.001)
(-1.17293e-09 -7.82445e-10 -0.001)
(-1.19312e-09 -7.59127e-10 -0.001)
(-1.05882e-09 -7.61026e-10 -0.001)
(-8.06367e-10 -7.53783e-10 -0.001)
(-5.0263e-10 -7.40437e-10 -0.001)
(-1.68228e-10 -7.32437e-10 -0.001)
(-1.81041e-10 -4.02145e-10 -0.001)
(-5.48479e-10 -4.249e-10 -0.001)
(-8.76428e-10 -4.54164e-10 -0.001)
(-1.09877e-09 -4.65377e-10 -0.001)
(-1.19056e-09 -4.99708e-10 -0.001)
(-1.187e-09 -4.89568e-10 -0.001)
(-1.05694e-09 -4.8555e-10 -0.001)
(-7.97746e-10 -4.77624e-10 -0.001)
(-4.89479e-10 -4.65474e-10 -0.001)
(-1.62538e-10 -4.53849e-10 -0.001)
(-1.96638e-10 -1.39472e-10 -0.001)
(-5.74928e-10 -1.55651e-10 -0.001)
(-8.80865e-10 -1.67221e-10 -0.001)
(-1.10236e-09 -1.61808e-10 -0.001)
(-1.19465e-09 -1.73022e-10 -0.001)
(-1.17667e-09 -1.68264e-10 -0.001)
(-1.04487e-09 -1.64881e-10 -0.001)
(-7.84888e-10 -1.58048e-10 -0.001)
(-4.78809e-10 -1.5336e-10 -0.001)
(-1.57112e-10 -1.47949e-10 -0.001)
(-2.78292e-10 -2.04799e-10 -0.000999997)
(-8.17042e-10 -2.05314e-10 -0.000999997)
(-1.27062e-09 -1.94132e-10 -0.000999997)
(-1.5784e-09 -1.83063e-10 -0.000999998)
(-1.70752e-09 -1.62796e-10 -0.000999998)
(-1.659e-09 -1.7057e-10 -0.000999999)
(-1.47396e-09 -1.79224e-10 -0.001)
(-1.17615e-09 -1.97771e-10 -0.001)
(-7.58178e-10 -1.99597e-10 -0.001)
(-2.57927e-10 -2.04007e-10 -0.001)
(-2.78957e-10 -5.91205e-10 -0.000999997)
(-8.0751e-10 -5.84212e-10 -0.000999997)
(-1.25082e-09 -5.72917e-10 -0.000999997)
(-1.55033e-09 -5.34387e-10 -0.000999998)
(-1.69843e-09 -4.90424e-10 -0.000999999)
(-1.67844e-09 -5.02441e-10 -0.000999999)
(-1.50373e-09 -5.25846e-10 -0.001)
(-1.19859e-09 -5.54886e-10 -0.001)
(-7.66084e-10 -5.64084e-10 -0.001)
(-2.6313e-10 -5.6672e-10 -0.001)
(-2.70777e-10 -9.3396e-10 -0.000999997)
(-7.99229e-10 -9.18427e-10 -0.000999997)
(-1.22335e-09 -8.94735e-10 -0.000999998)
(-1.49932e-09 -8.53474e-10 -0.000999998)
(-1.67914e-09 -8.21011e-10 -0.000999999)
(-1.69756e-09 -8.59937e-10 -0.001)
(-1.52909e-09 -8.69265e-10 -0.001)
(-1.21662e-09 -8.80898e-10 -0.001)
(-7.72474e-10 -8.90469e-10 -0.001)
(-2.62018e-10 -8.82896e-10 -0.001)
(-2.61703e-10 -1.1889e-09 -0.000999998)
(-7.66467e-10 -1.17909e-09 -0.000999998)
(-1.18587e-09 -1.14097e-09 -0.000999998)
(-1.47681e-09 -1.12766e-09 -0.000999999)
(-1.70515e-09 -1.17596e-09 -0.000999999)
(-1.72693e-09 -1.16808e-09 -0.001)
(-1.5249e-09 -1.18592e-09 -0.001)
(-1.22008e-09 -1.18639e-09 -0.001)
(-7.6991e-10 -1.18637e-09 -0.001)
(-2.5718e-10 -1.19255e-09 -0.001)
(-2.58649e-10 -1.34601e-09 -0.000999998)
(-7.48819e-10 -1.35014e-09 -0.000999998)
(-1.17171e-09 -1.34312e-09 -0.000999999)
(-1.53428e-09 -1.37668e-09 -0.000999999)
(-1.71951e-09 -1.40816e-09 -0.001)
(-1.70754e-09 -1.33201e-09 -0.001)
(-1.54744e-09 -1.39094e-09 -0.001)
(-1.21729e-09 -1.39772e-09 -0.001)
(-7.81226e-10 -1.3928e-09 -0.001)
(-2.70607e-10 -1.39805e-09 -0.001)
(-2.6331e-10 -1.4031e-09 -0.000999999)
(-7.6091e-10 -1.41538e-09 -0.000999999)
(-1.21221e-09 -1.43664e-09 -0.000999999)
(-1.54185e-09 -1.46971e-09 -0.001)
(-1.66041e-09 -1.46941e-09 -0.001)
(-1.70968e-09 -1.46576e-09 -0.001)
(-1.59061e-09 -1.48961e-09 -0.001)
(-1.22216e-09 -1.48396e-09 -0.001)
(-7.73027e-10 -1.47405e-09 -0.001)
(-2.65022e-10 -1.45911e-09 -0.001)
(-2.6828e-10 -1.28041e-09 -0.000999999)
(-7.79646e-10 -1.29989e-09 -0.001)
(-1.22585e-09 -1.33025e-09 -0.001)
(-1.56707e-09 -1.35205e-09 -0.001)
(-1.71556e-09 -1.38346e-09 -0.001)
(-1.72771e-09 -1.43155e-09 -0.001)
(-1.56565e-09 -1.40802e-09 -0.001)
(-1.2019e-09 -1.38743e-09 -0.001)
(-7.59157e-10 -1.37191e-09 -0.001)
(-2.58252e-10 -1.3527e-09 -0.001)
(-2.80326e-10 -9.9972e-10 -0.001)
(-8.08277e-10 -1.02322e-09 -0.001)
(-1.26419e-09 -1.05969e-09 -0.001)
(-1.59504e-09 -1.09001e-09 -0.001)
(-1.73993e-09 -1.12385e-09 -0.001)
(-1.73419e-09 -1.14303e-09 -0.001)
(-1.54648e-09 -1.11864e-09 -0.001)
(-1.18622e-09 -1.09816e-09 -0.001)
(-7.4088e-10 -1.07618e-09 -0.001)
(-2.48226e-10 -1.05652e-09 -0.001)
(-2.89938e-10 -6.43782e-10 -0.001)
(-8.37677e-10 -6.69847e-10 -0.001)
(-1.29235e-09 -6.89159e-10 -0.001)
(-1.63102e-09 -6.98174e-10 -0.001)
(-1.76837e-09 -7.44592e-10 -0.001)
(-1.72228e-09 -7.43871e-10 -0.001)
(-1.5206e-09 -7.10458e-10 -0.001)
(-1.15943e-09 -6.82518e-10 -0.001)
(-7.19391e-10 -6.61989e-10 -0.001)
(-2.4042e-10 -6.55479e-10 -0.001)
(-3.04677e-10 -2.25889e-10 -0.001)
(-8.50812e-10 -2.41596e-10 -0.001)
(-1.28979e-09 -2.41022e-10 -0.001)
(-1.64698e-09 -2.41545e-10 -0.001)
(-1.78197e-09 -2.60247e-10 -0.001)
(-1.69681e-09 -2.58584e-10 -0.001)
(-1.48239e-09 -2.37838e-10 -0.001)
(-1.13573e-09 -2.22955e-10 -0.001)
(-7.13722e-10 -2.161e-10 -0.001)
(-2.4244e-10 -2.18166e-10 -0.001)
(-3.96238e-10 -3.06385e-10 -0.000999995)
(-1.16002e-09 -3.06156e-10 -0.000999996)
(-1.79431e-09 -2.98199e-10 -0.000999996)
(-2.24117e-09 -2.94727e-10 -0.000999997)
(-2.4475e-09 -2.76425e-10 -0.000999998)
(-2.42162e-09 -2.77579e-10 -0.000999999)
(-2.19417e-09 -2.92056e-10 -0.000999999)
(-1.74485e-09 -3.01345e-10 -0.001)
(-1.11028e-09 -2.97303e-10 -0.001)
(-3.74719e-10 -2.94756e-10 -0.001)
(-3.96181e-10 -8.99571e-10 -0.000999996)
(-1.15347e-09 -9.006e-10 -0.000999996)
(-1.78634e-09 -8.83007e-10 -0.000999996)
(-2.22378e-09 -8.55381e-10 -0.000999997)
(-2.43496e-09 -8.1337e-10 -0.000999998)
(-2.44156e-09 -8.24131e-10 -0.000999999)
(-2.22175e-09 -8.35518e-10 -0.001)
(-1.75321e-09 -8.42407e-10 -0.001)
(-1.10615e-09 -8.39209e-10 -0.001)
(-3.73321e-10 -8.38624e-10 -0.001)
(-3.96297e-10 -1.42013e-09 -0.000999996)
(-1.14397e-09 -1.41109e-09 -0.000999996)
(-1.75262e-09 -1.39323e-09 -0.000999997)
(-2.17609e-09 -1.35611e-09 -0.000999998)
(-2.4211e-09 -1.32028e-09 -0.000999998)
(-2.44833e-09 -1.36441e-09 -0.000999999)
(-2.2165e-09 -1.33107e-09 -0.001)
(-1.75194e-09 -1.3231e-09 -0.001)
(-1.11018e-09 -1.32163e-09 -0.001)
(-3.76322e-10 -1.32209e-09 -0.001)
(-3.84471e-10 -1.80484e-09 -0.000999997)
(-1.12383e-09 -1.79574e-09 -0.000999997)
(-1.73139e-09 -1.77588e-09 -0.000999998)
(-2.15107e-09 -1.77019e-09 -0.000999998)
(-2.44355e-09 -1.80931e-09 -0.000999999)
(-2.45268e-09 -1.80577e-09 -0.001)
(-2.18078e-09 -1.78863e-09 -0.001)
(-1.7442e-09 -1.74599e-09 -0.001)
(-1.10789e-09 -1.74003e-09 -0.001)
(-3.76251e-10 -1.7483e-09 -0.001)
(-3.83726e-10 -2.00275e-09 -0.000999998)
(-1.11134e-09 -2.01347e-09 -0.000999998)
(-1.72683e-09 -2.00905e-09 -0.000999998)
(-2.20952e-09 -2.053e-09 -0.000999999)
(-2.45669e-09 -2.09156e-09 -0.001)
(-2.42765e-09 -1.97275e-09 -0.001)
(-2.1567e-09 -1.99956e-09 -0.001)
(-1.7036e-09 -1.99086e-09 -0.001)
(-1.11603e-09 -1.9851e-09 -0.001)
(-3.87877e-10 -1.99335e-09 -0.001)
(-3.9146e-10 -2.03771e-09 -0.000999998)
(-1.12619e-09 -2.05571e-09 -0.000999999)
(-1.7706e-09 -2.06619e-09 -0.000999999)
(-2.23354e-09 -2.08553e-09 -0.001)
(-2.36333e-09 -2.11619e-09 -0.001)
(-2.36071e-09 -2.05146e-09 -0.001)
(-2.19888e-09 -2.06024e-09 -0.001)
(-1.72999e-09 -2.06736e-09 -0.001)
(-1.11431e-09 -2.04991e-09 -0.001)
(-3.88128e-10 -2.02925e-09 -0.001)
(-3.98064e-10 -1.85835e-09 -0.000999999)
(-1.13599e-09 -1.87791e-09 -0.000999999)
(-1.75635e-09 -1.88864e-09 -0.001)
(-2.25942e-09 -1.89056e-09 -0.001)
(-2.42259e-09 -1.93315e-09 -0.001)
(-2.37174e-09 -1.99143e-09 -0.001)
(-2.17265e-09 -1.95533e-09 -0.001)
(-1.69356e-09 -1.91901e-09 -0.001)
(-1.08181e-09 -1.88456e-09 -0.001)
(-3.70838e-10 -1.84508e-09 -0.001)
(-4.07706e-10 -1.44984e-09 -0.001)
(-1.15304e-09 -1.4675e-09 -0.001)
(-1.783e-09 -1.49052e-09 -0.001)
(-2.27802e-09 -1.5151e-09 -0.001)
(-2.46416e-09 -1.53974e-09 -0.001)
(-2.38288e-09 -1.59284e-09 -0.001)
(-2.12646e-09 -1.53336e-09 -0.001)
(-1.65946e-09 -1.49218e-09 -0.001)
(-1.04389e-09 -1.45949e-09 -0.001)
(-3.51993e-10 -1.43892e-09 -0.001)
(-4.13147e-10 -9.244e-10 -0.001)
(-1.1739e-09 -9.36611e-10 -0.001)
(-1.80355e-09 -9.44879e-10 -0.001)
(-2.30835e-09 -9.58691e-10 -0.001)
(-2.50002e-09 -9.92131e-10 -0.001)
(-2.36506e-09 -1.00788e-09 -0.001)
(-2.07173e-09 -9.48546e-10 -0.001)
(-1.61967e-09 -9.10441e-10 -0.001)
(-1.03114e-09 -9.00751e-10 -0.001)
(-3.52813e-10 -9.0996e-10 -0.00100001)
(-4.17581e-10 -3.19865e-10 -0.001)
(-1.16957e-09 -3.25576e-10 -0.001)
(-1.8013e-09 -3.18278e-10 -0.001)
(-2.32048e-09 -3.26795e-10 -0.001)
(-2.50831e-09 -3.34878e-10 -0.001)
(-2.33485e-09 -3.39778e-10 -0.001)
(-2.02521e-09 -3.08844e-10 -0.001)
(-1.60872e-09 -2.96882e-10 -0.001)
(-1.04314e-09 -3.00756e-10 -0.00100001)
(-3.62115e-10 -3.10155e-10 -0.00100001)
(-5.59737e-10 -4.51609e-10 -0.000999994)
(-1.61883e-09 -4.50333e-10 -0.000999994)
(-2.49065e-09 -4.48206e-10 -0.000999995)
(-3.12878e-09 -4.43834e-10 -0.000999996)
(-3.42434e-09 -4.22169e-10 -0.000999997)
(-3.38138e-09 -4.17949e-10 -0.000999998)
(-3.06146e-09 -4.26841e-10 -0.000999999)
(-2.42261e-09 -4.26985e-10 -0.001)
(-1.53757e-09 -4.27607e-10 -0.001)
(-5.22074e-10 -4.2547e-10 -0.001)
(-5.58664e-10 -1.31354e-09 -0.000999994)
(-1.61761e-09 -1.31513e-09 -0.000999994)
(-2.48875e-09 -1.29418e-09 -0.000999995)
(-3.10845e-09 -1.27413e-09 -0.000999996)
(-3.40457e-09 -1.23049e-09 -0.000999997)
(-3.39199e-09 -1.23313e-09 -0.000999998)
(-3.07587e-09 -1.22846e-09 -0.000999999)
(-2.42774e-09 -1.22418e-09 -0.001)
(-1.5395e-09 -1.23053e-09 -0.001)
(-5.21553e-10 -1.22971e-09 -0.001)
(-5.59938e-10 -2.04868e-09 -0.000999995)
(-1.60007e-09 -2.04573e-09 -0.000999995)
(-2.45437e-09 -2.03121e-09 -0.000999996)
(-3.07115e-09 -2.00242e-09 -0.000999997)
(-3.38992e-09 -1.96222e-09 -0.000999998)
(-3.38575e-09 -1.99027e-09 -0.000999999)
(-3.05819e-09 -1.93774e-09 -0.001)
(-2.42937e-09 -1.93188e-09 -0.001)
(-1.5483e-09 -1.92926e-09 -0.001)
(-5.24413e-10 -1.93933e-09 -0.001)
(-5.5198e-10 -2.6058e-09 -0.000999996)
(-1.5963e-09 -2.60429e-09 -0.000999996)
(-2.44547e-09 -2.59487e-09 -0.000999997)
(-3.03985e-09 -2.58266e-09 -0.000999998)
(-3.39285e-09 -2.54881e-09 -0.000999999)
(-3.36807e-09 -2.62868e-09 -0.001)
(-3.01784e-09 -2.55624e-09 -0.001)
(-2.41977e-09 -2.50591e-09 -0.001)
(-1.55096e-09 -2.49898e-09 -0.001)
(-5.35241e-10 -2.50585e-09 -0.001)
(-5.53639e-10 -2.85966e-09 -0.000999996)
(-1.58406e-09 -2.87012e-09 -0.000999997)
(-2.43238e-09 -2.8661e-09 -0.000999998)
(-3.02512e-09 -2.89436e-09 -0.000999999)
(-3.43594e-09 -2.9616e-09 -0.001)
(-3.3933e-09 -2.7634e-09 -0.001)
(-2.93555e-09 -2.80949e-09 -0.001)
(-2.37248e-09 -2.78478e-09 -0.001)
(-1.55323e-09 -2.78212e-09 -0.001)
(-5.35898e-10 -2.78196e-09 -0.001)
(-5.57263e-10 -2.82776e-09 -0.000999997)
(-1.59718e-09 -2.83461e-09 -0.000999998)
(-2.46928e-09 -2.83207e-09 -0.000999999)
(-3.1354e-09 -2.83737e-09 -0.000999999)
(-3.26191e-09 -2.9361e-09 -0.001)
(-3.21583e-09 -2.77325e-09 -0.001)
(-3.03938e-09 -2.80121e-09 -0.001)
(-2.39282e-09 -2.79828e-09 -0.001)
(-1.55359e-09 -2.76574e-09 -0.001)
(-5.40109e-10 -2.7401e-09 -0.001)
(-5.55548e-10 -2.5447e-09 -0.000999998)
(-1.58305e-09 -2.55127e-09 -0.000999999)
(-2.43464e-09 -2.53618e-09 -0.000999999)
(-3.12908e-09 -2.52881e-09 -0.001)
(-3.37198e-09 -2.53381e-09 -0.001)
(-3.25839e-09 -2.66752e-09 -0.001)
(-2.96052e-09 -2.58452e-09 -0.001)
(-2.33737e-09 -2.54005e-09 -0.001)
(-1.50032e-09 -2.49453e-09 -0.001)
(-5.15187e-10 -2.4498e-09 -0.00100001)
(-5.59462e-10 -1.98654e-09 -0.000999999)
(-1.584e-09 -1.98852e-09 -0.000999999)
(-2.44644e-09 -1.99384e-09 -0.001)
(-3.13295e-09 -2.01166e-09 -0.001)
(-3.40054e-09 -2.00355e-09 -0.001)
(-3.2666e-09 -2.05675e-09 -0.001)
(-2.91192e-09 -1.9981e-09 -0.001)
(-2.30316e-09 -1.96549e-09 -0.001)
(-1.46803e-09 -1.94609e-09 -0.00100001)
(-4.99842e-10 -1.93634e-09 -0.00100001)
(-5.54054e-10 -1.25513e-09 -0.001)
(-1.58654e-09 -1.24851e-09 -0.001)
(-2.45721e-09 -1.2524e-09 -0.001)
(-3.13839e-09 -1.26541e-09 -0.001)
(-3.41664e-09 -1.25386e-09 -0.001)
(-3.25252e-09 -1.27368e-09 -0.001)
(-2.86889e-09 -1.22986e-09 -0.001)
(-2.28533e-09 -1.21481e-09 -0.00100001)
(-1.47466e-09 -1.22597e-09 -0.00100001)
(-5.08817e-10 -1.23952e-09 -0.00100001)
(-5.49718e-10 -4.26056e-10 -0.001)
(-1.57593e-09 -4.23405e-10 -0.001)
(-2.45826e-09 -4.19117e-10 -0.001)
(-3.1282e-09 -4.29097e-10 -0.001)
(-3.40216e-09 -4.14709e-10 -0.001)
(-3.23634e-09 -4.20801e-10 -0.001)
(-2.84758e-09 -4.04393e-10 -0.001)
(-2.29504e-09 -4.04666e-10 -0.00100001)
(-1.49223e-09 -4.18163e-10 -0.00100001)
(-5.14538e-10 -4.24058e-10 -0.00100001)
(-7.77278e-10 -6.40985e-10 -0.000999991)
(-2.21863e-09 -6.34453e-10 -0.000999992)
(-3.39959e-09 -6.33845e-10 -0.000999993)
(-4.27409e-09 -6.22846e-10 -0.000999994)
(-4.69327e-09 -6.0596e-10 -0.000999995)
(-4.63286e-09 -5.98562e-10 -0.000999997)
(-4.16978e-09 -5.99409e-10 -0.000999998)
(-3.30609e-09 -6.08787e-10 -0.001)
(-2.11156e-09 -6.05708e-10 -0.001)
(-7.19841e-10 -6.0504e-10 -0.001)
(-7.70996e-10 -1.84004e-09 -0.000999992)
(-2.21428e-09 -1.83161e-09 -0.000999992)
(-3.39399e-09 -1.81696e-09 -0.000999993)
(-4.2537e-09 -1.80476e-09 -0.000999994)
(-4.67716e-09 -1.77505e-09 -0.000999996)
(-4.63449e-09 -1.76601e-09 -0.000999997)
(-4.18745e-09 -1.75974e-09 -0.000999999)
(-3.31839e-09 -1.75628e-09 -0.001)
(-2.11267e-09 -1.76437e-09 -0.001)
(-7.21489e-10 -1.75713e-09 -0.001)
(-7.67027e-10 -2.84311e-09 -0.000999993)
(-2.19628e-09 -2.84467e-09 -0.000999993)
(-3.37899e-09 -2.83585e-09 -0.000999994)
(-4.24022e-09 -2.8269e-09 -0.000999995)
(-4.66325e-09 -2.80522e-09 -0.000999997)
(-4.62623e-09 -2.81408e-09 -0.000999998)
(-4.16796e-09 -2.7668e-09 -0.001)
(-3.31725e-09 -2.75104e-09 -0.001)
(-2.11978e-09 -2.74655e-09 -0.001)
(-7.17125e-10 -2.75335e-09 -0.001)
(-7.67555e-10 -3.60826e-09 -0.000999994)
(-2.20186e-09 -3.61734e-09 -0.000999994)
(-3.37627e-09 -3.61215e-09 -0.000999995)
(-4.22356e-09 -3.60017e-09 -0.000999996)
(-4.66485e-09 -3.54555e-09 -0.000999998)
(-4.59646e-09 -3.68385e-09 -0.000999999)
(-4.12491e-09 -3.57328e-09 -0.001)
(-3.29896e-09 -3.51634e-09 -0.001)
(-2.12069e-09 -3.49283e-09 -0.001)
(-7.3342e-10 -3.48915e-09 -0.001)
(-7.69668e-10 -3.94766e-09 -0.000999995)
(-2.19332e-09 -3.9516e-09 -0.000999995)
(-3.36141e-09 -3.94535e-09 -0.000999996)
(-4.17364e-09 -3.95698e-09 -0.000999998)
(-4.74711e-09 -4.05006e-09 -0.000999999)
(-4.65392e-09 -3.82781e-09 -0.001)
(-4.00043e-09 -3.87021e-09 -0.001)
(-3.2373e-09 -3.84176e-09 -0.001)
(-2.09949e-09 -3.8318e-09 -0.001)
(-7.19846e-10 -3.81494e-09 -0.001)
(-7.64536e-10 -3.84207e-09 -0.000999996)
(-2.19216e-09 -3.83354e-09 -0.000999997)
(-3.3812e-09 -3.81969e-09 -0.000999998)
(-4.32813e-09 -3.81121e-09 -0.000999999)
(-4.53569e-09 -3.91779e-09 -0.001)
(-4.41686e-09 -3.69682e-09 -0.001)
(-4.13882e-09 -3.75226e-09 -0.001)
(-3.26107e-09 -3.74999e-09 -0.001)
(-2.10131e-09 -3.7238e-09 -0.00100001)
(-7.23482e-10 -3.70285e-09 -0.00100001)
(-7.5449e-10 -3.41701e-09 -0.000999997)
(-2.16381e-09 -3.40958e-09 -0.000999998)
(-3.3387e-09 -3.38113e-09 -0.000999999)
(-4.27181e-09 -3.35757e-09 -0.001)
(-4.63248e-09 -3.28576e-09 -0.001)
(-4.48839e-09 -3.44957e-09 -0.001)
(-4.05367e-09 -3.37736e-09 -0.001)
(-3.20936e-09 -3.34501e-09 -0.00100001)
(-2.0595e-09 -3.31608e-09 -0.00100001)
(-7.05548e-10 -3.28673e-09 -0.00100001)
(-7.51254e-10 -2.67895e-09 -0.000999998)
(-2.14995e-09 -2.6666e-09 -0.000999999)
(-3.32873e-09 -2.66102e-09 -0.001)
(-4.23279e-09 -2.6586e-09 -0.001)
(-4.62773e-09 -2.59173e-09 -0.001)
(-4.50839e-09 -2.63763e-09 -0.001)
(-4.03426e-09 -2.61204e-09 -0.00100001)
(-3.20025e-09 -2.61423e-09 -0.00100001)
(-2.04934e-09 -2.61648e-09 -0.00100001)
(-7.00034e-10 -2.61699e-09 -0.00100001)
(-7.37476e-10 -1.69157e-09 -0.000999999)
(-2.14067e-09 -1.67966e-09 -0.000999999)
(-3.32991e-09 -1.68391e-09 -0.001)
(-4.202e-09 -1.68485e-09 -0.001)
(-4.61095e-09 -1.6315e-09 -0.001)
(-4.50812e-09 -1.64374e-09 -0.001)
(-4.02975e-09 -1.63871e-09 -0.00100001)
(-3.21376e-09 -1.65157e-09 -0.00100001)
(-2.06695e-09 -1.6727e-09 -0.00100001)
(-7.10532e-10 -1.67784e-09 -0.00100001)
(-7.35108e-10 -5.71104e-10 -0.000999999)
(-2.13503e-09 -5.71001e-10 -0.001)
(-3.32714e-09 -5.70423e-10 -0.001)
(-4.17229e-09 -5.74414e-10 -0.001)
(-4.57781e-09 -5.48213e-10 -0.001)
(-4.50679e-09 -5.49481e-10 -0.001)
(-4.03421e-09 -5.55158e-10 -0.00100001)
(-3.22827e-09 -5.61361e-10 -0.00100001)
(-2.0748e-09 -5.75369e-10 -0.00100001)
(-7.06674e-10 -5.71771e-10 -0.00100001)
(-1.04904e-09 -8.73915e-10 -0.000999988)
(-2.98701e-09 -8.61883e-10 -0.000999989)
(-4.59012e-09 -8.62949e-10 -0.00099999)
(-5.76817e-09 -8.51341e-10 -0.000999992)
(-6.36531e-09 -8.60468e-10 -0.000999994)
(-6.33214e-09 -8.52951e-10 -0.000999996)
(-5.69801e-09 -8.45095e-10 -0.000999998)
(-4.51866e-09 -8.5226e-10 -0.000999999)
(-2.89094e-09 -8.40227e-10 -0.001)
(-9.87521e-10 -8.37198e-10 -0.001)
(-1.03732e-09 -2.49833e-09 -0.000999989)
(-2.97967e-09 -2.48278e-09 -0.000999989)
(-4.58753e-09 -2.48727e-09 -0.000999991)
(-5.77579e-09 -2.49004e-09 -0.000999992)
(-6.37805e-09 -2.50451e-09 -0.000999994)
(-6.32795e-09 -2.48989e-09 -0.000999996)
(-5.70748e-09 -2.47557e-09 -0.000999998)
(-4.52189e-09 -2.45892e-09 -0.001)
(-2.88244e-09 -2.45376e-09 -0.001)
(-9.87646e-10 -2.43504e-09 -0.001)
(-1.03109e-09 -3.85453e-09 -0.00099999)
(-2.97687e-09 -3.86304e-09 -0.00099999)
(-4.60569e-09 -3.86753e-09 -0.000999992)
(-5.79624e-09 -3.89241e-09 -0.000999993)
(-6.37709e-09 -3.90489e-09 -0.000999995)
(-6.31516e-09 -3.91134e-09 -0.000999997)
(-5.67785e-09 -3.85787e-09 -0.000999999)
(-4.50569e-09 -3.8175e-09 -0.001)
(-2.87713e-09 -3.80553e-09 -0.001)
(-9.75029e-10 -3.79776e-09 -0.001)
(-1.03915e-09 -4.87566e-09 -0.000999991)
(-2.98575e-09 -4.89786e-09 -0.000999992)
(-4.61696e-09 -4.90068e-09 -0.000999993)
(-5.81384e-09 -4.90225e-09 -0.000999995)
(-6.39775e-09 -4.90209e-09 -0.000999997)
(-6.28172e-09 -4.99106e-09 -0.000999999)
(-5.61437e-09 -4.88545e-09 -0.001)
(-4.47063e-09 -4.82553e-09 -0.001)
(-2.87052e-09 -4.7818e-09 -0.001)
(-9.86961e-10 -4.76697e-09 -0.001)
(-1.0447e-09 -5.34174e-09 -0.000999993)
(-2.99273e-09 -5.34991e-09 -0.000999993)
(-4.60947e-09 -5.34344e-09 -0.000999995)
(-5.79764e-09 -5.34784e-09 -0.000999996)
(-6.46581e-09 -5.41152e-09 -0.000999998)
(-6.29865e-09 -5.26607e-09 -0.001)
(-5.5124e-09 -5.27626e-09 -0.001)
(-4.40271e-09 -5.24593e-09 -0.001)
(-2.82797e-09 -5.21893e-09 -0.00100001)
(-9.68977e-10 -5.18825e-09 -0.00100001)
(-1.03801e-09 -5.2084e-09 -0.000999994)
(-2.97744e-09 -5.19396e-09 -0.000999995)
(-4.61419e-09 -5.17326e-09 -0.000999996)
(-5.88199e-09 -5.15594e-09 -0.000999998)
(-6.31599e-09 -5.17773e-09 -0.001)
(-6.14639e-09 -5.02536e-09 -0.001)
(-5.59432e-09 -5.06617e-09 -0.001)
(-4.41402e-09 -5.06337e-09 -0.00100001)
(-2.82297e-09 -5.05503e-09 -0.00100001)
(-9.65749e-10 -5.0375e-09 -0.00100001)
(-1.02126e-09 -4.6291e-09 -0.000999996)
(-2.94786e-09 -4.61327e-09 -0.000999997)
(-4.57072e-09 -4.58867e-09 -0.000999998)
(-5.80197e-09 -4.53936e-09 -0.001)
(-6.33533e-09 -4.43954e-09 -0.001)
(-6.1871e-09 -4.52153e-09 -0.001)
(-5.55045e-09 -4.49193e-09 -0.00100001)
(-4.39228e-09 -4.48272e-09 -0.00100001)
(-2.81181e-09 -4.48288e-09 -0.00100001)
(-9.60454e-10 -4.47502e-09 -0.00100001)
(-1.01423e-09 -3.64716e-09 -0.000999997)
(-2.92838e-09 -3.63463e-09 -0.000999998)
(-4.5396e-09 -3.6239e-09 -0.000999999)
(-5.73279e-09 -3.59299e-09 -0.001)
(-6.29806e-09 -3.49774e-09 -0.001)
(-6.19873e-09 -3.51255e-09 -0.001)
(-5.55551e-09 -3.51416e-09 -0.00100001)
(-4.4056e-09 -3.54144e-09 -0.00100001)
(-2.82382e-09 -3.55586e-09 -0.00100001)
(-9.65785e-10 -3.56547e-09 -0.00100001)
(-1.0024e-09 -2.31972e-09 -0.000999998)
(-2.91751e-09 -2.31506e-09 -0.000999999)
(-4.528e-09 -2.31221e-09 -0.001)
(-5.67509e-09 -2.2959e-09 -0.001)
(-6.2541e-09 -2.2281e-09 -0.001)
(-6.20272e-09 -2.22252e-09 -0.00100001)
(-5.57864e-09 -2.24364e-09 -0.00100001)
(-4.43393e-09 -2.27119e-09 -0.00100001)
(-2.84224e-09 -2.28988e-09 -0.00100001)
(-9.76126e-10 -2.28652e-09 -0.00100001)
(-1.0038e-09 -7.89611e-10 -0.000999999)
(-2.91103e-09 -7.94088e-10 -0.001)