/*--------------------------------*- C++ -*----------------------------------*\
| =========                 |                                                 |
| \\      /  F ield         | OpenFOAM: The Open Source CFD Toolbox           |
|  \\    /   O peration     | Version:  5.x                                   |
|   \\  /    A nd           | Web:      www.OpenFOAM.org                      |
|    \\/     M anipulation  |                                                 |
\*---------------------------------------------------------------------------*/
FoamFile
{
    version     2.0;
    format      ascii;
    class       volVectorField;
    location    "700";
    object      U;
}
// * * * * * * * * * * * * * * * * * * * * * * * * * * * * * * * * * * * * * //

dimensions      [0 1 -1 0 0 0 0];

internalField   nonuniform List<vector> 
90
(
(0.124474 -0.0460636 -6.42822)
(0.13008 -0.0479938 -6.46592)
(0.134109 -0.0510882 -6.50733)
(0.138471 -0.053424 -6.54457)
(0.14216 -0.056196 -6.58546)
(0.145631 -0.0585123 -6.62616)
(0.148694 -0.0609079 -6.66902)
(0.151433 -0.0628196 -6.71235)
(0.153762 -0.0644371 -6.75686)
(0.155647 -0.0660918 -6.80168)
(0.157018 -0.0679533 -6.84712)
(0.157831 -0.0701796 -6.89285)
(0.158026 -0.0726547 -6.93903)
(0.157562 -0.0753804 -6.98553)
(0.156407 -0.0783048 -7.03239)
(0.154532 -0.0814053 -7.07953)
(0.15192 -0.0846569 -7.1269)
(0.14856 -0.0880371 -7.17445)
(0.144453 -0.0915262 -7.22209)
(0.139604 -0.0951037 -7.26978)
(0.134026 -0.0987494 -7.31743)
(0.127737 -0.102442 -7.36498)
(0.120767 -0.106157 -7.41235)
(0.113163 -0.109869 -7.45948)
(0.104983 -0.113552 -7.50628)
(0.0962906 -0.117179 -7.55271)
(0.0871507 -0.120724 -7.5987)
(0.0776299 -0.124161 -7.6442)
(0.0677937 -0.127472 -7.68916)
(0.0577061 -0.130637 -7.73354)
(0.0474282 -0.133645 -7.77729)
(0.0370185 -0.136487 -7.82037)
(0.0265323 -0.13916 -7.86276)
(0.0160213 -0.141664 -7.90444)
(0.00553404 -0.144008 -7.94537)
(-0.00488457 -0.1462 -7.98555)
(-0.0151932 -0.148256 -8.02498)
(-0.0253536 -0.150194 -8.06364)
(-0.0353309 -0.152032 -8.10155)
(-0.0450941 -0.153792 -8.13871)
(-0.0546167 -0.155497 -8.17515)
(-0.0638778 -0.157169 -8.21088)
(-0.0728617 -0.158828 -8.24595)
(-0.0815582 -0.160493 -8.28038)
(-0.0899633 -0.16218 -8.31422)
(-0.0980783 -0.163905 -8.3475)
(-0.10591 -0.165678 -8.38027)
(-0.11347 -0.167507 -8.41258)
(-0.120775 -0.169398 -8.44447)
(-0.127844 -0.171355 -8.47598)
(-0.134699 -0.173376 -8.50717)
(-0.141363 -0.175463 -8.53806)
(-0.147861 -0.177611 -8.5687)
(-0.154217 -0.179816 -8.59913)
(-0.160454 -0.182075 -8.62937)
(-0.166595 -0.184382 -8.65946)
(-0.17266 -0.186733 -8.68942)
(-0.178667 -0.189124 -8.71928)
(-0.184633 -0.191551 -8.74906)
(-0.190574 -0.19401 -8.77877)
(-0.196501 -0.196499 -8.80843)
(-0.202427 -0.199017 -8.83805)
(-0.208362 -0.201561 -8.86765)
(-0.214313 -0.20413 -8.89724)
(-0.220289 -0.206725 -8.92682)
(-0.226294 -0.209346 -8.95641)
(-0.232332 -0.211991 -8.986)
(-0.238409 -0.214662 -9.01562)
(-0.244524 -0.217359 -9.04527)
(-0.250676 -0.220086 -9.07497)
(-0.256861 -0.222845 -9.10468)
(-0.263093 -0.225637 -9.13445)
(-0.269396 -0.228461 -9.16433)
(-0.275781 -0.231311 -9.19432)
(-0.28226 -0.23418 -9.22441)
(-0.288843 -0.237067 -9.25462)
(-0.295538 -0.239966 -9.28494)
(-0.302355 -0.242872 -9.31536)
(-0.309304 -0.245778 -9.34589)
(-0.316397 -0.248675 -9.3765)
(-0.323648 -0.251552 -9.40717)
(-0.331074 -0.254391 -9.43786)
(-0.338702 -0.257167 -9.46855)
(-0.34656 -0.259857 -9.49927)
(-0.354667 -0.262448 -9.53011)
(-0.363026 -0.264925 -9.56038)
(-0.371814 -0.267167 -9.58887)
(-0.381397 -0.268671 -9.61683)
(-0.391675 -0.269651 -9.65308)
(-0.396889 -0.270991 -9.68051)
)
;

boundaryField
{
    inlet
    {
        type            zeroGradient;
    }
    outlet
    {
        type            zeroGradient;
    }
    repeat_boundary
    {
        type            slip;
    }
    procBoundary2to0
    {
        type            processor;
        value           nonuniform List<vector> 
90
(
(0.0686125 -0.0813039 -5.1566)
(0.0710093 -0.0849733 -5.14926)
(0.0738358 -0.0850445 -5.1537)
(0.075127 -0.0852698 -5.15716)
(0.0764767 -0.0871592 -5.15622)
(0.078235 -0.0887114 -5.15675)
(0.0807159 -0.0893745 -5.1572)
(0.0859594 -0.0892652 -5.15388)
(0.088001 -0.087194 -5.16224)
(0.0937666 -0.0853664 -5.15553)
(0.0960796 -0.0824744 -5.16292)
(0.0986533 -0.0800189 -5.16582)
(0.100636 -0.0776875 -5.17062)
(0.102251 -0.0755322 -5.17564)
(0.103503 -0.0735021 -5.18126)
(0.10442 -0.0715955 -5.18721)
(0.105023 -0.0698046 -5.19347)
(0.105331 -0.0681286 -5.19994)
(0.105364 -0.066569 -5.20654)
(0.10514 -0.0651282 -5.21322)
(0.104681 -0.0638084 -5.21992)
(0.104013 -0.0626104 -5.22658)
(0.103155 -0.0615326 -5.23316)
(0.102116 -0.0605706 -5.23963)
(0.100901 -0.0597175 -5.24595)
(0.0995155 -0.058965 -5.25209)
(0.097968 -0.058304 -5.25801)
(0.0962705 -0.0577253 -5.26369)
(0.0944376 -0.0572196 -5.26911)
(0.0924862 -0.0567783 -5.27425)
(0.0904349 -0.0563933 -5.27911)
(0.0883036 -0.056058 -5.28367)
(0.0861125 -0.0557667 -5.28793)
(0.0838821 -0.0555153 -5.2919)
(0.081632 -0.0553011 -5.29556)
(0.0793809 -0.0551225 -5.29893)
(0.077146 -0.0549796 -5.30201)
(0.0749427 -0.0548735 -5.30482)
(0.0727842 -0.0548066 -5.30735)
(0.0706816 -0.0547823 -5.30962)
(0.0686435 -0.0548042 -5.31162)
(0.0666763 -0.054876 -5.31338)
(0.064784 -0.0550008 -5.31489)
(0.0629689 -0.0551817 -5.31615)
(0.0612311 -0.0554208 -5.31716)
(0.0595694 -0.0557195 -5.31794)
(0.0579814 -0.0560785 -5.31846)
(0.0564637 -0.0564973 -5.31874)
(0.0550124 -0.0569749 -5.31877)
(0.0536232 -0.0575092 -5.31855)
(0.0522916 -0.0580975 -5.31807)
(0.0510134 -0.0587364 -5.31733)
(0.0497844 -0.0594223 -5.31632)
(0.0486009 -0.060151 -5.31505)
(0.0474593 -0.0609184 -5.3135)
(0.0463565 -0.06172 -5.31169)
(0.0452896 -0.0625516 -5.3096)
(0.0442561 -0.0634092 -5.30723)
(0.0432535 -0.0642888 -5.30458)
(0.0422798 -0.065187 -5.30166)
(0.0413329 -0.0661003 -5.29846)
(0.040411 -0.0670258 -5.29499)
(0.0395123 -0.067961 -5.29123)
(0.0386352 -0.0689036 -5.2872)
(0.0377782 -0.0698518 -5.28289)
(0.0369402 -0.0708042 -5.27831)
(0.0361198 -0.0717593 -5.27345)
(0.0353162 -0.0727156 -5.26831)
(0.0345287 -0.073673 -5.2629)
(0.0337569 -0.0746349 -5.25721)
(0.0330005 -0.0756049 -5.25124)
(0.0322591 -0.0765771 -5.24499)
(0.0315322 -0.0775377 -5.23846)
(0.0308195 -0.0784734 -5.23164)
(0.0301207 -0.0793723 -5.22454)
(0.0294364 -0.0802233 -5.21715)
(0.0287677 -0.0810135 -5.20948)
(0.0281166 -0.0817276 -5.20154)
(0.0274858 -0.0823469 -5.19331)
(0.0268791 -0.0828487 -5.18482)
(0.0263006 -0.0832045 -5.17608)
(0.0257557 -0.0833745 -5.16711)
(0.025252 -0.0833037 -5.15792)
(0.024798 -0.0829358 -5.14849)
(0.0244052 -0.082224 -5.13871)
(0.0240875 -0.0811623 -5.12899)
(0.023785 -0.0794354 -5.1201)
(0.0235885 -0.0762305 -5.11227)
(0.023576 -0.071714 -5.1008)
(0.0235553 -0.0701752 -5.08561)
)
;
    }
    procBoundary2to3
    {
        type            processor;
        value           nonuniform List<vector> 
90
(
(0.10376 -0.0543213 -5.35045)
(0.108878 -0.055923 -5.33663)
(0.113386 -0.0544862 -5.32451)
(0.117966 -0.0539497 -5.31036)
(0.122274 -0.0525358 -5.29575)
(0.126473 -0.0510271 -5.27957)
(0.130591 -0.0490968 -5.26245)
(0.134659 -0.0468799 -5.24398)
(0.138712 -0.0443589 -5.22435)
(0.142717 -0.0415834 -5.20342)
(0.146662 -0.0385926 -5.18125)
(0.150508 -0.0354205 -5.15782)
(0.154238 -0.0320964 -5.1332)
(0.15783 -0.0286515 -5.10742)
(0.161273 -0.0251145 -5.08054)
(0.164554 -0.0215162 -5.05265)
(0.167666 -0.0178888 -5.02383)
(0.170599 -0.0142652 -4.99417)
(0.17335 -0.0106796 -4.96378)
(0.175911 -0.00716859 -4.93277)
(0.178276 -0.00377357 -4.90126)
(0.180437 -0.000538305 -4.86933)
(0.1824 0.00250596 -4.83716)
(0.184184 0.00535611 -4.80488)
(0.185807 0.00802537 -4.77261)
(0.187287 0.010528 -4.74046)
(0.188636 0.0128762 -4.70853)
(0.189867 0.0150796 -4.67691)
(0.190991 0.0171454 -4.64569)
(0.192016 0.0190786 -4.61493)
(0.192949 0.0208826 -4.5847)
(0.1938 0.0225598 -4.55506)
(0.194575 0.0241119 -4.52605)
(0.195283 0.0255404 -4.49772)
(0.195931 0.0268472 -4.47011)
(0.196528 0.0280346 -4.44324)
(0.197084 0.029106 -4.41714)
(0.197606 0.0300655 -4.39183)
(0.198108 0.0309191 -4.36732)
(0.198599 0.0316746 -4.34361)
(0.199093 0.0323407 -4.32071)
(0.199601 0.0329274 -4.29862)
(0.200135 0.0334456 -4.27731)
(0.200706 0.0339069 -4.25678)
(0.201326 0.0343233 -4.23702)
(0.202004 0.034707 -4.21799)
(0.20275 0.03507 -4.19967)
(0.203572 0.0354239 -4.18203)
(0.204477 0.0357797 -4.16506)
(0.20547 0.0361475 -4.1487)
(0.206557 0.0365364 -4.13295)
(0.207741 0.0369545 -4.11776)
(0.209024 0.0374087 -4.10311)
(0.210407 0.037905 -4.08898)
(0.211889 0.0384483 -4.07533)
(0.21347 0.0390427 -4.06215)
(0.21515 0.0396918 -4.04941)
(0.216924 0.0403983 -4.0371)
(0.218793 0.041165 -4.02518)
(0.220753 0.0419942 -4.01366)
(0.222803 0.0428885 -4.00251)
(0.224941 0.0438506 -3.99173)
(0.227166 0.0448836 -3.9813)
(0.229479 0.0459914 -3.97121)
(0.23188 0.0471786 -3.96145)
(0.234372 0.0484507 -3.95201)
(0.236958 0.0498145 -3.94289)
(0.239642 0.0512779 -3.93408)
(0.242434 0.0528513 -3.92555)
(0.245352 0.0545503 -3.91727)
(0.248418 0.0563924 -3.9093)
(0.251644 0.0583928 -3.90162)
(0.25503 0.0605602 -3.89408)
(0.258544 0.0628862 -3.88672)
(0.262167 0.0653705 -3.87951)
(0.265883 0.0680148 -3.87243)
(0.269678 0.0708236 -3.86548)
(0.273535 0.0738031 -3.85864)
(0.277438 0.0769611 -3.85191)
(0.281365 0.0803071 -3.8453)
(0.285291 0.0838518 -3.83879)
(0.289177 0.0876086 -3.8324)
(0.292966 0.0915873 -3.82616)
(0.296594 0.095799 -3.82002)
(0.300007 0.100249 -3.8139)
(0.303224 0.104904 -3.80796)
(0.305838 0.109975 -3.80274)
(0.306969 0.115373 -3.79925)
(0.306611 0.121005 -3.79527)
(0.307427 0.124248 -3.78532)
)
;
    }
}


// ************************************************************************* //
