/*--------------------------------*- C++ -*----------------------------------*\
| =========                 |                                                 |
| \\      /  F ield         | OpenFOAM: The Open Source CFD Toolbox           |
|  \\    /   O peration     | Version:  5.x                                   |
|   \\  /    A nd           | Web:      www.OpenFOAM.org                      |
|    \\/     M anipulation  |                                                 |
\*---------------------------------------------------------------------------*/
FoamFile
{
    version     2.0;
    format      ascii;
    class       volScalarField;
    location    "0.03";
    object      p;
}
// * * * * * * * * * * * * * * * * * * * * * * * * * * * * * * * * * * * * * //

dimensions      [0 2 -2 0 0 0 0];

internalField   nonuniform List<scalar> 
2250
(
-2.32243e-10
-2.43845e-10
-3.08777e-10
-3.82325e-10
-4.38687e-10
-2.53668e-10
-2.83508e-10
-3.44375e-10
-3.99788e-10
-4.34212e-10
-3.00545e-10
-3.28831e-10
-3.74591e-10
-4.09431e-10
-4.24264e-10
-3.25429e-10
-3.50061e-10
-3.83566e-10
-4.01209e-10
-4.01665e-10
-3.31172e-10
-3.53887e-10
-3.77861e-10
-3.84127e-10
-3.77462e-10
-7.69557e-10
-8.75144e-10
-9.91732e-10
-1.15621e-09
-1.28894e-09
-9.213e-10
-9.4773e-10
-1.05733e-09
-1.17829e-09
-1.24393e-09
-9.90536e-10
-1.01758e-09
-1.10527e-09
-1.17368e-09
-1.18785e-09
-1.01723e-09
-1.04712e-09
-1.10683e-09
-1.13106e-09
-1.11457e-09
-1.02614e-09
-1.04844e-09
-1.07977e-09
-1.07827e-09
-1.05351e-09
-1.23336e-09
-1.50386e-09
-1.67008e-09
-1.87952e-09
-2.02387e-09
-1.58981e-09
-1.62116e-09
-1.73146e-09
-1.85716e-09
-1.90383e-09
-1.68336e-09
-1.6776e-09
-1.74633e-09
-1.7969e-09
-1.78475e-09
-1.69895e-09
-1.68811e-09
-1.71604e-09
-1.71398e-09
-1.67837e-09
-1.70818e-09
-1.6784e-09
-1.66993e-09
-1.64474e-09
-1.61294e-09
-1.59238e-09
-1.96e-09
-2.20755e-09
-2.42153e-09
-2.5132e-09
-2.05436e-09
-2.13763e-09
-2.2467e-09
-2.33478e-09
-2.33853e-09
-2.21609e-09
-2.19615e-09
-2.22247e-09
-2.23109e-09
-2.19992e-09
-2.26881e-09
-2.20907e-09
-2.18345e-09
-2.15182e-09
-2.11765e-09
-2.3005e-09
-2.21222e-09
-2.1545e-09
-2.11162e-09
-2.08903e-09
-1.99861e-09
-2.29824e-09
-2.55366e-09
-2.69447e-09
-2.69582e-09
-2.38168e-09
-2.48419e-09
-2.56676e-09
-2.5924e-09
-2.55983e-09
-2.59876e-09
-2.57219e-09
-2.55411e-09
-2.52472e-09
-2.49363e-09
-2.73519e-09
-2.63739e-09
-2.56718e-09
-2.51897e-09
-2.497e-09
-2.82588e-09
-2.68626e-09
-2.5915e-09
-2.53935e-09
-2.52261e-09
-2.61078e-09
-2.63155e-09
-2.7072e-09
-2.69372e-09
-2.61783e-09
-2.77282e-09
-2.75594e-09
-2.73673e-09
-2.68695e-09
-2.63817e-09
-2.97543e-09
-2.89041e-09
-2.81388e-09
-2.75391e-09
-2.72811e-09
-3.1883e-09
-3.03694e-09
-2.92853e-09
-2.86766e-09
-2.8462e-09
-3.33462e-09
-3.13151e-09
-3.00958e-09
-2.94627e-09
-2.91796e-09
-3.1284e-09
-2.84322e-09
-2.65823e-09
-2.50183e-09
-2.3997e-09
-3.19436e-09
-2.98558e-09
-2.82479e-09
-2.70732e-09
-2.6535e-09
-3.39749e-09
-3.204e-09
-3.05522e-09
-2.96247e-09
-2.92806e-09
-3.64155e-09
-3.41855e-09
-3.2739e-09
-3.1925e-09
-3.15418e-09
-3.78006e-09
-3.52764e-09
-3.39018e-09
-3.3116e-09
-3.26056e-09
-3.24969e-09
-2.82121e-09
-2.48374e-09
-2.26432e-09
-2.16711e-09
-3.50531e-09
-3.17416e-09
-2.90597e-09
-2.7332e-09
-2.66323e-09
-3.80523e-09
-3.51701e-09
-3.29964e-09
-3.16131e-09
-3.09912e-09
-4.02812e-09
-3.76446e-09
-3.59011e-09
-3.47747e-09
-3.41388e-09
-4.10087e-09
-3.87045e-09
-3.72853e-09
-3.62914e-09
-3.55002e-09
-3.35491e-09
-2.811e-09
-2.3926e-09
-2.12372e-09
-2.0041e-09
-3.82466e-09
-3.4045e-09
-3.05198e-09
-2.80914e-09
-2.69738e-09
-4.20983e-09
-3.85047e-09
-3.56242e-09
-3.35884e-09
-3.25564e-09
-4.38213e-09
-4.11312e-09
-3.89991e-09
-3.73871e-09
-3.63968e-09
-4.41385e-09
-4.23509e-09
-4.06669e-09
-3.92058e-09
-3.80155e-09
-3.86431e-09
-3.07281e-09
-2.51107e-09
-2.12253e-09
-1.92947e-09
-4.31909e-09
-3.74547e-09
-3.27698e-09
-2.93182e-09
-2.75845e-09
-4.69156e-09
-4.23784e-09
-3.85359e-09
-3.56432e-09
-3.40825e-09
-4.85472e-09
-4.53773e-09
-4.24105e-09
-3.99766e-09
-3.84429e-09
-4.93003e-09
-4.70131e-09
-4.43852e-09
-4.20103e-09
-4.03559e-09
-4.36218e-09
-3.43406e-09
-2.71252e-09
-2.16926e-09
-1.88809e-09
-4.84056e-09
-4.11999e-09
-3.51384e-09
-3.05356e-09
-2.81363e-09
-5.23786e-09
-4.66213e-09
-4.15373e-09
-3.76165e-09
-3.54255e-09
-5.49697e-09
-5.04026e-09
-4.60419e-09
-4.24572e-09
-4.03411e-09
-5.66656e-09
-5.24528e-09
-4.82391e-09
-4.47351e-09
-4.2708e-09
-4.35421e-09
-3.5725e-09
-2.76677e-09
-2.10912e-09
-1.7661e-09
-5.17444e-09
-4.39969e-09
-3.66946e-09
-3.10234e-09
-2.79938e-09
-5.75974e-09
-5.064e-09
-4.41681e-09
-3.91197e-09
-3.63344e-09
-6.19194e-09
-5.54848e-09
-4.94631e-09
-4.47022e-09
-4.21277e-09
-6.44181e-09
-5.78796e-09
-5.19835e-09
-4.74517e-09
-4.49841e-09
-4.18962e-09
-3.45183e-09
-2.551e-09
-1.81086e-09
-1.42272e-09
-5.41047e-09
-4.55425e-09
-3.68688e-09
-3.00943e-09
-2.64253e-09
-6.26532e-09
-5.42331e-09
-4.61528e-09
-3.98933e-09
-3.65283e-09
-6.87825e-09
-6.04123e-09
-5.26599e-09
-4.6738e-09
-4.35239e-09
-7.1897e-09
-6.33789e-09
-5.58366e-09
-5.00836e-09
-4.67848e-09
-4.27954e-09
-3.1661e-09
-2.04905e-09
-1.18725e-09
-7.20364e-10
-5.7514e-09
-4.63273e-09
-3.55423e-09
-2.72602e-09
-2.27479e-09
-6.89655e-09
-5.79787e-09
-4.76761e-09
-3.98321e-09
-3.55278e-09
-7.70237e-09
-6.60941e-09
-5.61092e-09
-4.84637e-09
-4.40811e-09
-8.09871e-09
-7.00858e-09
-6.02124e-09
-5.24993e-09
-4.80563e-09
-4.35486e-09
-2.69669e-09
-1.25715e-09
-1.78128e-10
4.24083e-10
-6.23651e-09
-4.67842e-09
-3.27895e-09
-2.22535e-09
-1.64965e-09
-7.79162e-09
-6.27026e-09
-4.91067e-09
-3.88292e-09
-3.30311e-09
-8.87057e-09
-7.37427e-09
-6.03166e-09
-4.99645e-09
-4.41197e-09
-9.41211e-09
-7.92452e-09
-6.57238e-09
-5.53328e-09
-4.97472e-09
-4.20868e-09
-2.01247e-09
-1.44218e-10
1.24851e-09
2.00883e-09
-6.83846e-09
-4.70795e-09
-2.86874e-09
-1.50288e-09
-7.59067e-10
-8.99586e-09
-6.90303e-09
-5.08668e-09
-3.71861e-09
-2.96302e-09
-1.05034e-08
-8.4407e-09
-6.61632e-09
-5.23971e-09
-4.51237e-09
-1.12892e-08
-9.21987e-09
-7.3868e-09
-6.03507e-09
-5.3613e-09
-4.006e-09
-1.11746e-09
1.33844e-09
3.13367e-09
4.07912e-09
-7.61469e-09
-4.77163e-09
-2.35221e-09
-5.70422e-10
3.8709e-10
-1.06132e-08
-7.81673e-09
-5.40093e-09
-3.60658e-09
-2.66033e-09
-1.27823e-08
-9.99359e-09
-7.56259e-09
-5.78393e-09
-4.88829e-09
-1.39435e-08
-1.11295e-08
-8.7067e-09
-6.97001e-09
-6.11893e-09
-3.81601e-09
-3.37017e-11
3.23497e-09
5.60175e-09
6.83445e-09
-8.82585e-09
-5.04885e-09
-1.81668e-09
5.44613e-10
1.78279e-09
-1.30333e-08
-9.28833e-09
-6.05756e-09
-3.70274e-09
-2.49532e-09
-1.61284e-08
-1.23649e-08
-9.13675e-09
-6.81262e-09
-5.6407e-09
-1.77805e-08
-1.39985e-08
-1.07881e-08
-8.49571e-09
-7.32074e-09
-3.84304e-09
1.17333e-09
5.59844e-09
8.79515e-09
1.04418e-08
-1.09102e-08
-5.78409e-09
-1.38368e-09
1.79776e-09
3.43389e-09
-1.67992e-08
-1.16683e-08
-7.28393e-09
-4.12047e-09
-2.49767e-09
-2.10844e-08
-1.59485e-08
-1.15867e-08
-8.44615e-09
-6.81738e-09
-2.33446e-08
-1.82272e-08
-1.38839e-08
-1.07431e-08
-9.09489e-09
-4.36055e-09
2.51293e-09
8.50555e-09
1.28056e-08
1.50134e-08
-1.41569e-08
-7.12569e-09
-1.12866e-09
3.19358e-09
5.42537e-09
-2.23093e-08
-1.52525e-08
-9.25988e-09
-4.92783e-09
-2.67715e-09
-2.8183e-08
-2.11536e-08
-1.51786e-08
-1.08439e-08
-8.57472e-09
-3.12883e-08
-2.42989e-08
-1.83276e-08
-1.39781e-08
-1.17331e-08
-5.33503e-09
4.02814e-09
1.20958e-08
1.7921e-08
2.0981e-08
-1.8781e-08
-9.20095e-09
-1.03916e-09
4.88213e-09
7.98509e-09
-3.00066e-08
-2.037e-08
-1.21632e-08
-6.19333e-09
-3.07089e-09
-3.81308e-08
-2.85026e-08
-2.0275e-08
-1.42826e-08
-1.11746e-08
-4.24675e-08
-3.28329e-08
-2.45836e-08
-1.86041e-08
-1.55184e-08
-6.99541e-09
5.7883e-09
1.68078e-08
2.48634e-08
2.91602e-08
-2.52791e-08
-1.21804e-08
-9.90277e-10
7.16545e-09
1.14595e-08
-4.0666e-08
-2.74671e-08
-1.61876e-08
-7.96727e-09
-3.67175e-09
-5.19023e-08
-3.86374e-08
-2.7296e-08
-1.90586e-08
-1.47732e-08
-5.78869e-08
-4.4548e-08
-3.3189e-08
-2.49681e-08
-2.06477e-08
-9.45755e-09
8.32368e-09
2.35198e-08
3.46232e-08
4.05005e-08
-3.41151e-08
-1.60991e-08
-7.27366e-10
1.04559e-08
1.63284e-08
-5.5168e-08
-3.70095e-08
-2.15107e-08
-1.02431e-08
-4.34308e-09
-7.05572e-08
-5.22813e-08
-3.67146e-08
-2.54155e-08
-1.94659e-08
-7.86493e-08
-6.03299e-08
-4.47638e-08
-3.3432e-08
-2.7446e-08
-1.20159e-08
1.24682e-08
3.32388e-08
4.83306e-08
5.6259e-08
-4.56474e-08
-2.09666e-08
3.89436e-11
1.52877e-08
2.33013e-08
-7.45043e-08
-4.96063e-08
-2.84104e-08
-1.30102e-08
-4.90661e-09
-9.55091e-08
-7.05017e-08
-4.92279e-08
-3.37281e-08
-2.5546e-08
-1.06488e-07
-8.15232e-08
-6.02185e-08
-4.46511e-08
-3.64395e-08
-1.44856e-08
1.87859e-08
4.70208e-08
6.75188e-08
7.83153e-08
-6.07358e-08
-2.7046e-08
1.58182e-09
2.23707e-08
3.33263e-08
-1.00301e-07
-6.63045e-08
-3.7385e-08
-1.63387e-08
-5.25386e-09
-1.29129e-07
-9.49892e-08
-6.59035e-08
-4.46719e-08
-3.34817e-08
-1.44268e-07
-1.10121e-07
-8.09219e-08
-5.95913e-08
-4.83357e-08
-1.72781e-08
2.80176e-08
6.64134e-08
9.43242e-08
1.09067e-07
-8.06779e-08
-3.47287e-08
4.28212e-09
3.26353e-08
4.75887e-08
-1.34995e-07
-8.86026e-08
-4.91224e-08
-2.03733e-08
-5.2293e-09
-1.74747e-07
-1.28036e-07
-8.82134e-08
-5.91628e-08
-4.38277e-08
-1.95699e-07
-1.48805e-07
-1.08768e-07
-7.95633e-08
-6.4183e-08
-2.01126e-08
4.14894e-08
9.36762e-08
1.31628e-07
1.51653e-07
-1.0706e-07
-4.44558e-08
8.70673e-09
4.73748e-08
6.77831e-08
-1.8183e-07
-1.1848e-07
-6.45299e-08
-2.52303e-08
-4.45665e-09
-2.36658e-07
-1.72731e-07
-1.18189e-07
-7.8402e-08
-5.73732e-08
-2.65577e-07
-2.01317e-07
-1.46447e-07
-1.06449e-07
-8.5374e-08
-2.2802e-08
6.09173e-08
1.3197e-07
1.83614e-07
2.10801e-07
-1.42242e-07
-5.68657e-08
1.57109e-08
6.85654e-08
9.64993e-08
-2.45325e-07
-1.58719e-07
-8.48465e-08
-3.09357e-08
-2.36213e-09
-3.21056e-07
-2.33557e-07
-1.58732e-07
-1.04078e-07
-7.51784e-08
-3.61085e-07
-2.73071e-07
-1.97765e-07
-1.42787e-07
-1.13686e-07
-2.49946e-08
8.90038e-08
1.85896e-07
2.5629e-07
2.93328e-07
-1.89335e-07
-7.26853e-08
2.66558e-08
9.91233e-08
1.37444e-07
-3.31865e-07
-2.13225e-07
-1.1175e-07
-3.75001e-08
1.84875e-09
-4.3689e-07
-3.16888e-07
-2.13943e-07
-1.38587e-07
-9.86444e-08
-4.92425e-07
-3.71712e-07
-2.6805e-07
-1.92105e-07
-1.51704e-07
-2.487e-08
1.30266e-07
2.62219e-07
3.58176e-07
4.08799e-07
-2.51923e-07
-9.2527e-08
4.36848e-08
1.43253e-07
1.95931e-07
-4.50016e-07
-2.87396e-07
-1.47564e-07
-4.49345e-08
9.61761e-09
-5.96398e-07
-4.31831e-07
-2.89781e-07
-1.85442e-07
-1.29796e-07
-6.73708e-07
-5.08302e-07
-3.65044e-07
-2.59624e-07
-2.03135e-07
-1.96543e-08
1.91407e-07
3.71122e-07
5.02042e-07
5.71255e-07
-3.34361e-07
-1.17037e-07
7.01931e-08
2.07279e-07
2.79924e-07
-6.11263e-07
-3.89148e-07
-1.95513e-07
-5.27012e-08
2.41262e-08
-8.16902e-07
-5.92142e-07
-3.95141e-07
-2.49963e-07
-1.71693e-07
-9.25206e-07
-6.99487e-07
-5.00108e-07
-3.52974e-07
-2.72614e-07
-3.06183e-09
2.82863e-07
5.28177e-07
7.0713e-07
8.01857e-07
-4.41102e-07
-1.47436e-07
1.11511e-07
3.00619e-07
4.00948e-07
-8.30724e-07
-5.31131e-07
-2.59628e-07
-5.8297e-08
5.33898e-08
-1.12258e-06
-8.19708e-07
-5.43596e-07
-3.41331e-07
-2.30105e-07
-1.27414e-06
-9.71556e-07
-6.89462e-07
-4.83258e-07
-3.64782e-07
4.22266e-08
4.21753e-07
7.57998e-07
1.00227e-06
1.13445e-06
-5.72094e-07
-1.87913e-07
1.76439e-07
4.35666e-07
5.71826e-07
-1.12384e-06
-7.37419e-07
-3.43157e-07
-5.25897e-08
1.22588e-07
-1.54438e-06
-1.15394e-06
-7.56808e-07
-4.79883e-07
-3.21958e-07
-1.75234e-06
-1.37219e-06
-9.53588e-07
-6.6811e-07
-4.80015e-07
1.60105e-07
6.30489e-07
1.10085e-06
1.42875e-06
1.63384e-06
-7.07504e-07
-2.6133e-07
2.8174e-07
6.21832e-07
7.88851e-07
-1.48641e-06
-1.06993e-06
-4.39338e-07
-9.15665e-09
3.02869e-07
-2.11397e-06
-1.67746e-06
-1.06849e-06
-7.14563e-07
-4.902e-07
-2.37924e-06
-2.00443e-06
-1.30351e-06
-9.45158e-07
-6.00014e-07
4.74667e-07
9.15601e-07
1.62563e-06
2.01663e-06
2.43645e-06
-7.9013e-07
-4.37067e-07
4.70256e-07
8.57823e-07
1.0188e-06
-1.8568e-06
-1.67813e-06
-5.03151e-07
1.01725e-07
7.31862e-07
-2.88057e-06
-2.53068e-06
-1.51885e-06
-1.13609e-06
-7.9093e-07
-3.14627e-06
-3.06866e-06
-1.7097e-06
-1.41305e-06
-6.63546e-07
1.32244e-06
1.22912e-06
2.56177e-06
2.7036e-06
3.85265e-06
-7.77101e-07
-8.08121e-07
8.8184e-07
1.14648e-06
1.25875e-06
-2.08018e-06
-2.85004e-06
-4.47554e-07
2.77596e-07
1.70589e-06
-3.97132e-06
-3.86303e-06
-2.19056e-06
-1.8553e-06
-1.29839e-06
-4.01215e-06
-4.89319e-06
-2.17091e-06
-2.23185e-06
-4.70701e-07
3.41382e-06
1.3973e-06
4.43232e-06
3.18386e-06
6.5209e-06
-7.60743e-07
-1.55149e-06
1.72039e-06
1.46312e-06
1.48918e-06
-2.03423e-06
-5.20145e-06
-4.13965e-07
4.97889e-07
3.80118e-06
-5.73509e-06
-5.92087e-06
-3.4488e-06
-2.98731e-06
-2.18398e-06
-5.01773e-06
-8.02141e-06
-2.85643e-06
-3.81585e-06
6.47508e-07
-9.35162e-07
-5.79681e-06
-3.25137e-06
-3.35711e-06
-1.483e-07
-2.71206e-06
-8.16381e-06
-5.73757e-06
-4.97601e-06
-5.57447e-06
-5.53337e-06
-1.18121e-05
-6.8647e-06
-8.27074e-06
-5.23563e-06
-1.20858e-05
-1.17168e-05
-1.0043e-05
-9.51737e-06
-8.05701e-06
-1.06494e-05
-1.41341e-05
-6.77867e-06
-1.02722e-05
-6.97891e-06
4.18699e-05
1.89953e-05
3.49593e-05
1.94882e-05
4.85712e-05
9.47772e-06
8.1529e-06
2.52287e-05
1.84634e-05
1.51661e-05
1.84269e-05
-6.46991e-06
1.41165e-05
2.31964e-05
4.21393e-05
1.54073e-06
-3.87676e-07
5.05725e-06
7.68335e-06
6.55056e-06
1.31351e-05
-1.38761e-05
8.91051e-06
3.18928e-07
3.28169e-05
-3.59905e-05
-3.34756e-05
-2.16924e-05
-2.32915e-05
-2.86114e-05
-5.84881e-06
-3.47402e-05
-3.67991e-05
-3.12233e-05
-2.09529e-05
-3.15303e-05
-3.31971e-05
-3.46075e-05
-4.8956e-05
-4.79094e-05
-4.60868e-05
-3.10829e-05
-4.08337e-05
-3.63124e-05
-1.46353e-05
-4.92057e-05
-2.97465e-05
-2.74701e-05
-3.21517e-05
-2.2403e-05
0.000178733
-4.87636e-06
9.24931e-05
-2.33557e-05
0.000208957
-0.000106224
-3.03461e-05
6.53989e-05
-9.3426e-06
2.00859e-05
4.37047e-05
-7.01276e-05
-2.54875e-05
5.49401e-05
0.00011791
-2.90221e-05
-1.38444e-05
-3.20968e-05
-9.0706e-07
-2.01401e-05
8.33553e-05
-6.12158e-05
-2.6609e-05
-0.000100167
0.000121667
0.000938763
0.000858547
0.000755002
0.000607151
0.000693596
0.000798492
0.000809547
0.000861398
0.000678553
0.00112049
0.00071355
0.0010442
0.000794651
0.000752797
0.000965786
0.000599043
0.000811368
0.000790846
0.00065664
0.00113068
0.000412301
0.000618192
0.000775307
0.000929326
0.0010274
0.00137012
0.00135363
0.00104335
0.00172873
0.0014808
0.00136609
0.00151976
0.00121495
0.00159188
0.00202229
0.00144701
0.00137394
0.0012092
0.0012675
0.00166358
0.00120807
0.00128475
0.00169962
0.00143216
0.00168406
0.000600855
0.00138429
0.00145536
0.00159262
0.00141037
0.00161323
0.00203266
0.00293886
0.00278132
0.0026367
0.00161051
0.00202641
0.00219067
0.00256345
0.00274774
0.00184141
0.001961
0.00270798
0.00257334
0.00262529
0.00164664
0.00235328
0.00237347
0.00225098
0.00236177
0.00199621
0.00177635
0.0019148
0.0020383
0.00200814
0.00198678
0.00279953
0.00319613
0.00299567
0.00329764
0.00265075
0.00265141
0.00288035
0.00291006
0.0028993
0.00195947
0.00288783
0.00315838
0.00301956
0.00288355
0.00280549
0.0029026
0.00308841
0.00284373
0.00313368
0.00301046
0.00270688
0.00274081
0.00253549
0.00230576
0.00359143
0.00347903
0.00310977
0.00330714
0.00354114
0.00378915
0.00353009
0.00350117
0.00362256
0.00316424
0.00222406
0.00356049
0.00363048
0.00355372
0.00345118
0.00357707
0.00314438
0.00365013
0.00335619
0.00327012
0.0038503
0.00334394
0.00356007
0.00314778
0.00391435
0.00489136
0.00428944
0.00368399
0.0042235
0.00452345
0.0042739
0.00422348
0.0039175
0.00398855
0.00394304
0.00418642
0.00421013
0.00385241
0.00412477
0.00433902
0.00415801
0.00417603
0.00379326
0.00419388
0.00327788
0.00411509
0.00403014
0.00386151
0.00400934
0.00369691
0.00462491
0.00502533
0.00541742
0.00554844
0.00530515
0.00477603
0.00485143
0.00468088
0.00442382
0.0045569
0.00563026
0.00483635
0.00443176
0.00455256
0.00441538
0.00460743
0.00476723
0.00432815
0.00470787
0.00446782
0.0046105
0.00451795
0.00431567
0.00504277
0.00417669
0.00503495
0.00571759
0.00547831
0.00539749
0.00502745
0.00550857
0.00575866
0.00526299
0.00564377
0.00548336
0.0056459
0.00531586
0.00582579
0.00520443
0.00571224
0.0054896
0.00525888
0.00506204
0.00530512
0.00556029
0.00518645
0.00608086
0.00532222
0.00532982
0.00544179
0.00605901
0.00614939
0.00571526
0.00599298
0.00537041
0.00585028
0.00609685
0.00602622
0.00643262
0.00617478
0.00596631
0.00603679
0.0059197
0.00613542
0.00611402
0.00611902
0.00622725
0.00603449
0.00620848
0.00600376
0.00611563
0.00655322
0.0059212
0.00584873
0.00547023
0.00639291
0.00642389
0.0068172
0.00688092
0.00666186
0.00691881
0.00646035
0.0068746
0.00679839
0.00677653
0.00648308
0.00672512
0.00659084
0.00672698
0.00638159
0.00657863
0.00684136
0.00681035
0.00677862
0.00675613
0.00704242
0.00683556
0.00685625
0.00696926
0.00685685
0.00688335
0.00694513
0.00705431
0.00699136
0.00702554
0.00705892
0.00698982
0.00704462
0.00697365
0.00697934
0.00689857
0.00699371
0.00703795
0.00700012
0.0069734
0.00705931
0.00699633
0.00703706
0.00698372
0.00701996
0.00705723
0.00698328
0.00705229
0.00702809
0.00705533
0.00697816
0.00697939
0.00696088
0.00699028
0.00699783
0.00697749
0.00699467
0.00699795
0.00699975
0.00699407
0.00699431
0.00698655
0.0069633
0.00699542
0.00698939
0.00700881
0.00699234
0.00700173
0.00700149
0.00700469
0.0070003
0.00699595
0.00700533
0.0069877
0.00699166
0.00698613
0.00698205
0.0069933
0.00699109
0.00699614
0.00699469
0.00699252
0.00700083
0.00699751
0.00699918
0.00698656
0.00698845
0.00699885
0.00699188
0.00699768
0.00700141
0.00699154
0.00700547
0.00699618
0.00700295
0.00700579
0.00698903
0.0070057
0.00699534
0.00700403
0.00699
0.00699081
0.0069917
0.00699303
0.00699575
0.00699286
0.00699375
0.00699687
0.00699578
0.00699644
0.0069927
0.00699146
0.00699435
0.00699445
0.00699664
0.00699836
0.00699279
0.00700025
0.00699594
0.00699932
0.00699935
0.00699194
0.00700064
0.00699484
0.00699888
0.00699206
0.00699264
0.0069934
0.00699405
0.00699531
0.00699324
0.00699389
0.00699533
0.00699507
0.00699563
0.00699379
0.00699284
0.00699498
0.00699466
0.00699595
0.00699624
0.00699345
0.00699746
0.00699538
0.00699722
0.00699694
0.00699302
0.00699784
0.00699494
0.00699711
0.00699301
0.0069935
0.00699403
0.0069944
0.00699498
0.00699355
0.00699392
0.00699468
0.00699469
0.00699512
0.00699408
0.00699355
0.00699492
0.00699465
0.00699539
0.00699512
0.00699383
0.00699596
0.00699497
0.00699597
0.00699554
0.00699365
0.00699625
0.00699486
0.00699601
0.00699345
0.0069938
0.00699417
0.00699441
0.0069947
0.00699373
0.00699393
0.00699442
0.0069945
0.00699477
0.00699407
0.00699389
0.00699466
0.00699454
0.00699496
0.00699453
0.00699398
0.00699512
0.00699471
0.00699523
0.00699475
0.00699394
0.00699531
0.00699469
0.0069953
0.00699365
0.00699389
0.00699414
0.00699431
0.00699446
0.00699381
0.00699396
0.00699426
0.00699435
0.00699452
0.00699402
0.00699399
0.00699442
0.00699441
0.00699463
0.00699423
0.00699402
0.00699465
0.00699449
0.00699477
0.00699436
0.00699401
0.00699474
0.00699451
0.00699483
0.00699374
0.0069939
0.00699407
0.00699419
0.00699428
0.00699384
0.00699396
0.00699414
0.00699423
0.00699432
0.00699396
0.006994
0.00699424
0.00699427
0.00699439
0.00699406
0.00699403
0.00699435
0.00699432
0.00699447
0.00699414
0.00699402
0.00699441
0.00699434
0.00699451
0.00699378
0.00699389
0.00699401
0.00699409
0.00699415
0.00699384
0.00699394
0.00699405
0.00699412
0.00699418
0.00699391
0.00699397
0.00699411
0.00699416
0.00699422
0.00699397
0.006994
0.00699417
0.00699419
0.00699427
0.00699401
0.00699399
0.00699421
0.0069942
0.0069943
0.00699379
0.00699387
0.00699395
0.00699401
0.00699405
0.00699383
0.00699391
0.00699398
0.00699404
0.00699407
0.00699388
0.00699394
0.00699402
0.00699406
0.0069941
0.00699391
0.00699396
0.00699405
0.00699408
0.00699413
0.00699394
0.00699395
0.00699407
0.0069941
0.00699414
0.00699379
0.00699385
0.00699391
0.00699395
0.00699397
0.00699382
0.00699388
0.00699393
0.00699397
0.00699399
0.00699385
0.0069939
0.00699395
0.00699399
0.00699401
0.00699387
0.00699392
0.00699397
0.006994
0.00699403
0.00699389
0.00699392
0.00699398
0.00699401
0.00699404
0.00699379
0.00699383
0.00699387
0.0069939
0.00699392
0.00699381
0.00699385
0.00699389
0.00699392
0.00699393
0.00699383
0.00699387
0.0069939
0.00699393
0.00699395
0.00699385
0.00699388
0.00699392
0.00699394
0.00699396
0.00699386
0.00699389
0.00699392
0.00699395
0.00699396
0.00699379
0.00699382
0.00699385
0.00699387
0.00699388
0.0069938
0.00699383
0.00699386
0.00699388
0.00699389
0.00699382
0.00699384
0.00699387
0.00699389
0.0069939
0.00699383
0.00699385
0.00699388
0.0069939
0.00699391
0.00699383
0.00699386
0.00699388
0.0069939
0.00699391
0.00699378
0.00699381
0.00699383
0.00699384
0.00699385
0.00699379
0.00699382
0.00699383
0.00699385
0.00699386
0.0069938
0.00699382
0.00699384
0.00699386
0.00699386
0.00699381
0.00699383
0.00699385
0.00699386
0.00699387
0.00699382
0.00699384
0.00699385
0.00699387
0.00699387
0.00699378
0.0069938
0.00699381
0.00699382
0.00699383
0.00699379
0.0069938
0.00699382
0.00699383
0.00699383
0.00699379
0.00699381
0.00699382
0.00699383
0.00699384
0.0069938
0.00699382
0.00699383
0.00699384
0.00699384
0.0069938
0.00699382
0.00699383
0.00699384
0.00699385
0.00699378
0.00699379
0.0069938
0.00699381
0.00699381
0.00699378
0.00699379
0.0069938
0.00699381
0.00699382
0.00699379
0.0069938
0.00699381
0.00699382
0.00699382
0.00699379
0.0069938
0.00699381
0.00699382
0.00699382
0.00699379
0.0069938
0.00699381
0.00699382
0.00699383
0.00699377
0.00699378
0.00699379
0.0069938
0.0069938
0.00699378
0.00699379
0.0069938
0.0069938
0.0069938
0.00699378
0.00699379
0.0069938
0.0069938
0.00699381
0.00699379
0.00699379
0.0069938
0.00699381
0.00699381
0.00699379
0.0069938
0.0069938
0.00699381
0.00699381
0.00699377
0.00699378
0.00699379
0.00699379
0.00699379
0.00699378
0.00699378
0.00699379
0.00699379
0.0069938
0.00699378
0.00699379
0.00699379
0.0069938
0.0069938
0.00699378
0.00699379
0.00699379
0.0069938
0.0069938
0.00699378
0.00699379
0.00699379
0.0069938
0.0069938
0.00699377
0.00699378
0.00699378
0.00699378
0.00699379
0.00699377
0.00699378
0.00699378
0.00699379
0.00699379
0.00699378
0.00699378
0.00699379
0.00699379
0.00699379
0.00699378
0.00699378
0.00699379
0.00699379
0.00699379
0.00699378
0.00699378
0.00699379
0.00699379
0.00699379
0.00699377
0.00699378
0.00699378
0.00699378
0.00699378
0.00699377
0.00699378
0.00699378
0.00699378
0.00699378
0.00699378
0.00699378
0.00699378
0.00699378
0.00699379
0.00699378
0.00699378
0.00699378
0.00699379
0.00699379
0.00699378
0.00699378
0.00699378
0.00699379
0.00699379
0.00699377
0.00699377
0.00699378
0.00699378
0.00699378
0.00699377
0.00699378
0.00699378
0.00699378
0.00699378
0.00699377
0.00699378
0.00699378
0.00699378
0.00699378
0.00699378
0.00699378
0.00699378
0.00699378
0.00699378
0.00699378
0.00699378
0.00699378
0.00699378
0.00699378
0.00699377
0.00699377
0.00699378
0.00699378
0.00699378
0.00699377
0.00699377
0.00699378
0.00699378
0.00699378
0.00699377
0.00699378
0.00699378
0.00699378
0.00699378
0.00699377
0.00699378
0.00699378
0.00699378
0.00699378
0.00699378
0.00699378
0.00699378
0.00699378
0.00699378
0.00699377
0.00699377
0.00699377
0.00699378
0.00699378
0.00699377
0.00699377
0.00699378
0.00699378
0.00699378
0.00699377
0.00699377
0.00699378
0.00699378
0.00699378
0.00699377
0.00699378
0.00699378
0.00699378
0.00699378
0.00699377
0.00699378
0.00699378
0.00699378
0.00699378
0.00699377
0.00699377
0.00699377
0.00699377
0.00699378
0.00699377
0.00699377
0.00699377
0.00699378
0.00699378
0.00699377
0.00699377
0.00699378
0.00699378
0.00699378
0.00699377
0.00699377
0.00699378
0.00699378
0.00699378
0.00699377
0.00699377
0.00699378
0.00699378
0.00699378
0.00699377
0.00699377
0.00699377
0.00699377
0.00699377
0.00699377
0.00699377
0.00699377
0.00699377
0.00699377
0.00699377
0.00699377
0.00699377
0.00699377
0.00699377
0.00699377
0.00699377
0.00699377
0.00699377
0.00699378
0.00699377
0.00699377
0.00699377
0.00699377
0.00699378
0.00699377
0.00699377
0.00699377
0.00699377
0.00699377
0.00699377
0.00699377
0.00699377
0.00699377
0.00699377
0.00699377
0.00699377
0.00699377
0.00699377
0.00699377
0.00699377
0.00699377
0.00699377
0.00699377
0.00699377
0.00699377
0.00699377
0.00699377
0.00699377
0.00699377
0.00699377
0.00699377
0.00699377
0.00699377
0.00699377
0.00699377
0.00699377
0.00699377
0.00699377
0.00699377
0.00699377
0.00699377
0.00699377
0.00699377
0.00699377
0.00699377
0.00699377
0.00699377
0.00699377
0.00699377
0.00699377
0.00699377
0.00699377
0.00699377
0.00699377
0.00699377
0.00699377
0.00699377
0.00699377
0.00699377
0.00699377
0.00699377
0.00699377
0.00699377
0.00699377
0.00699377
0.00699377
0.00699377
0.00699377
0.00699377
0.00699377
0.00699377
0.00699377
0.00699377
0.00699377
0.00699377
0.00699377
0.00699377
0.00699377
0.00699377
0.00699377
0.00699377
0.00699377
0.00699377
0.00699377
0.00699377
0.00699377
0.00699377
0.00699377
0.00699377
0.00699377
0.00699377
0.00699377
0.00699377
0.00699377
0.00699377
0.00699377
0.00699377
0.00699377
0.00699377
0.00699377
0.00699377
0.00699377
0.00699377
0.00699377
0.00699377
0.00699377
0.00699377
0.00699377
0.00699377
0.00699377
0.00699377
0.00699377
0.00699377
0.00699377
0.00699377
0.00699377
0.00699377
0.00699377
0.00699377
0.00699377
0.00699377
0.00699377
0.00699377
0.00699377
0.00699377
0.00699377
0.00699377
0.00699377
0.00699377
0.00699377
0.00699377
0.00699377
0.00699377
0.00699377
0.00699377
0.00699377
0.00699377
0.00699377
0.00699377
0.00699377
0.00699377
0.00699377
0.00699377
0.00699377
0.00699377
0.00699377
0.00699377
0.00699377
0.00699377
0.00699377
0.00699377
0.00699377
0.00699377
0.00699377
0.00699377
0.00699377
0.00699377
0.00699377
0.00699377
0.00699377
0.00699377
0.00699377
0.00699377
0.00699377
0.00699377
0.00699377
0.00699377
0.00699377
0.00699377
0.00699377
0.00699377
0.00699377
0.00699377
0.00699377
0.00699377
0.00699377
0.00699377
0.00699377
0.00699377
0.00699377
0.00699377
0.00699377
0.00699377
0.00699377
0.00699377
0.00699377
0.00699377
0.00699377
0.00699377
0.00699377
0.00699377
0.00699377
0.00699377
0.00699377
0.00699377
0.00699377
0.00699377
0.00699377
0.00699377
0.00699377
0.00699377
0.00699377
0.00699377
0.00699377
0.00699377
0.00699377
0.00699377
0.00699377
0.00699377
0.00699377
0.00699377
0.00699377
0.00699377
0.00699377
0.00699377
0.00699377
0.00699377
0.00699377
0.00699377
0.00699377
0.00699377
0.00699377
0.00699377
0.00699377
0.00699377
0.00699377
0.00699377
0.00699377
0.00699377
0.00699377
0.00699377
0.00699377
0.00699377
0.00699377
0.00699377
0.00699377
0.00699377
0.00699377
0.00699377
0.00699377
0.00699377
0.00699377
0.00699377
0.00699377
0.00699377
0.00699377
0.00699377
0.00699377
0.00699377
0.00699377
0.00699377
0.00699377
0.00699377
0.00699377
0.00699377
0.00699377
0.00699377
0.00699377
0.00699377
0.00699377
0.00699377
0.00699377
0.00699377
0.00699377
0.00699377
0.00699377
0.00699377
0.00699377
0.00699377
0.00699377
0.00699377
0.00699377
0.00699377
0.00699377
0.00699377
0.00699377
0.00699377
0.00699377
0.00699377
0.00699377
0.00699377
0.00699377
0.00699377
0.00699377
0.00699377
0.00699377
0.00699377
0.00699377
0.00699377
0.00699377
0.00699377
0.00699377
0.00699377
0.00699377
0.00699377
0.00699377
0.00699377
0.00699377
0.00699377
0.00699377
0.00699377
0.00699377
0.00699377
0.00699377
0.00699377
0.00699377
0.00699377
0.00699377
0.00699377
0.00699377
0.00699377
0.00699377
0.00699377
0.00699377
0.00699377
0.00699377
0.00699377
0.00699377
0.00699377
0.00699377
0.00699377
0.00699377
0.00699377
0.00699377
0.00699377
0.00699377
0.00699377
0.00699377
0.00699377
)
;

boundaryField
{
    inlet
    {
        type            zeroGradient;
    }
    outlet
    {
        type            fixedValue;
        value           uniform 0;
    }
    repeat_boundary
    {
        type            zeroGradient;
    }
    procBoundary3to1
    {
        type            processor;
        value           nonuniform List<scalar> 
450
(
4.09975e-12
-1.93931e-10
-3.01076e-10
-3.78205e-10
-4.32415e-10
-3.42612e-10
-6.56843e-10
-9.09035e-10
-1.1218e-09
-1.26453e-09
-1.38795e-09
-1.34709e-09
-1.54304e-09
-1.80629e-09
-1.9742e-09
-2.42656e-09
-2.06479e-09
-2.13954e-09
-2.34769e-09
-2.45378e-09
-2.65749e-09
-2.49181e-09
-2.54775e-09
-2.63906e-09
-2.63536e-09
-2.385e-09
-2.56904e-09
-2.63324e-09
-2.60468e-09
-2.52096e-09
-2.32062e-09
-2.45006e-09
-2.40681e-09
-2.29226e-09
-2.19445e-09
-2.52908e-09
-2.31231e-09
-2.06663e-09
-1.88305e-09
-1.7934e-09
-2.74924e-09
-2.28249e-09
-1.85006e-09
-1.56715e-09
-1.44558e-09
-2.90851e-09
-2.35594e-09
-1.80328e-09
-1.39072e-09
-1.19392e-09
-3.08167e-09
-2.42015e-09
-1.77504e-09
-1.24349e-09
-9.70379e-10
-3.33224e-09
-2.41225e-09
-1.60759e-09
-9.66377e-10
-6.35049e-10
-3.59528e-09
-2.26792e-09
-1.19128e-09
-4.14694e-10
-2.07088e-11
-3.4896e-09
-1.75738e-09
-3.89479e-10
5.55984e-10
1.04756e-09
-2.68657e-09
-6.94428e-10
9.18843e-10
2.07708e-09
2.70191e-09
-1.45833e-09
8.45457e-10
2.782e-09
4.22629e-09
4.99494e-09
-7.45718e-11
2.82958e-09
5.28447e-09
7.10604e-09
8.04925e-09
1.61065e-09
5.39749e-09
8.6167e-09
1.09717e-08
1.21859e-08
3.39102e-09
8.57702e-09
1.29675e-08
1.61181e-08
1.77194e-08
5.22334e-09
1.24915e-08
1.85206e-08
2.27808e-08
2.49283e-08
7.93975e-09
1.7627e-08
2.57106e-08
3.15056e-08
3.45033e-08
1.17597e-08
2.45482e-08
3.54454e-08
4.34334e-08
4.76554e-08
1.65922e-08
3.40977e-08
4.90454e-08
6.00146e-08
6.58025e-08
2.37841e-08
4.76963e-08
6.80948e-08
8.29457e-08
9.07568e-08
3.44559e-08
6.68664e-08
9.45726e-08
1.14648e-07
1.25226e-07
4.91984e-08
9.35155e-08
1.31237e-07
1.58506e-07
1.72868e-07
7.0346e-08
1.30732e-07
1.81936e-07
2.1898e-07
2.38493e-07
1.00852e-07
1.82703e-07
2.52018e-07
3.02287e-07
3.28848e-07
1.44002e-07
2.55209e-07
3.49091e-07
4.1724e-07
4.53261e-07
2.0575e-07
3.56773e-07
4.83905e-07
5.76174e-07
6.24711e-07
2.95739e-07
5.00225e-07
6.72077e-07
7.96961e-07
8.61944e-07
4.29096e-07
7.05754e-07
9.37342e-07
1.10643e-06
1.19189e-06
6.31181e-07
1.0065e-06
1.31676e-06
1.54749e-06
1.65354e-06
9.49199e-07
1.46446e-06
1.87387e-06
2.20204e-06
2.30168e-06
1.47279e-06
2.22374e-06
2.73374e-06
3.25417e-06
3.20566e-06
2.36327e-06
3.65328e-06
4.14485e-06
5.03882e-06
4.45421e-06
3.70475e-06
6.29432e-06
6.55517e-06
7.93713e-06
6.14626e-06
-1.20985e-07
3.26681e-06
5.36058e-07
8.44239e-06
2.82372e-06
2.5023e-05