FoamFile
{version 2.0; format ascii;class Cloud<passiveParticle>; location 0;object  positions;}
43
(
( -3.54313e-06 -0.000277679 9.98275e-05 ) 0 
( -0.000466574 -0.000421991 9.99723e-05 ) 0 
( -9.57285e-05 -0.000455109 9.98374e-05 ) 0 
( -0.000285645 -1.48914e-05 9.99074e-05 ) 0 
( -0.000380591 -0.000192583 9.98192e-05 ) 0 
( -0.000180712 -0.000185099 9.98399e-05 ) 0 
( -0.000275445 -0.000363089 9.99712e-05 ) 0 
( -0.000104343 -5.61844e-05 0.000232236 ) 0 
( -0.000443188 -0.0002867 0.000264656 ) 0 
( -0.000342015 -0.000459126 0.000262317 ) 0 
( -0.000281872 -0.000156711 0.000269837 ) 0 
( -0.00014013 -0.000320715 0.000241011 ) 0 
( -0.000435309 -0.000136523 0.000396405 ) 0 
( -0.000233099 -1.6225e-05 0.000403372 ) 0 
( -1.80813e-05 -0.000327019 0.000399257 ) 0 
( -0.000166025 -0.000480413 0.000426228 ) 0 
( -0.000276026 -0.000318001 0.000387602 ) 0 
( -0.000483297 -0.00042461 0.000403668 ) 0 
( -0.000155907 -0.000320806 0.000547369 ) 0 
( -9.5896e-05 -0.000152416 0.000457765 ) 0 
( -0.000284105 -0.00016935 0.000522821 ) 0 
( -0.000415383 -0.000102343 0.000680744 ) 0 
( -0.00033577 -0.000430309 0.000541713 ) 0 
( -5.55909e-05 -0.000487686 0.000592735 ) 0 
( -0.000333331 -0.000284631 0.000678555 ) 0 
( -2.63971e-05 -0.00012245 0.000642822 ) 0 
( -0.000216749 -0.00012031 0.000704529 ) 0 
( -9.22172e-05 -0.000351428 0.000734389 ) 0 
( -7.0271e-05 -6.77925e-05 0.000830042 ) 0 
( -0.000323044 -0.000195023 0.000856979 ) 0 
( -0.000437728 -8.06906e-05 0.000974267 ) 0 
( -0.000133792 -0.000244686 0.000898255 ) 0 
( -0.000261874 -0.000386429 0.000835093 ) 0 
( -0.000466639 -0.000377394 0.000795158 ) 0 
( -0.000212326 -7.29749e-05 0.000970654 ) 0 
( -8.79136e-05 -0.000438767 0.000918665 ) 0 
( -0.000447606 -0.000383204 0.000994106 ) 0 
( -0.000256698 -0.000334294 0.00102807 ) 0 
( -5.66366e-05 -6.06238e-06 0.00108281 ) 0 
( -6.77156e-05 -0.000291967 0.00108097 ) 0 
( -0.000320301 -9.10529e-05 0.00113798 ) 0 
( -9.76987e-05 -0.000487171 0.00111243 ) 0 
( -0.000468462 -0.000222745 0.00111162 ) 0 
)
