FoamFile
{version 2.0; format ascii;class vectorField; location 0;object  v;}
43
(
( 6.04036e-05 1.00889e-05 -1.70401e-05 )  
( -1.59122e-05 -4.14065e-06 3.97776e-06 )  
( 2.43496e-05 2.18809e-05 1.06177e-05 )  
( -3.88806e-05 2.28502e-06 -5.10472e-06 )  
( 6.15942e-06 -1.61254e-05 -1.20142e-06 )  
( 1.32792e-05 1.49842e-05 -1.05398e-06 )  
( 2.70555e-05 2.75204e-05 -6.62332e-06 )  
( -5.72842e-05 6.66774e-05 -2.31027e-06 )  
( -1.21423e-05 -2.55597e-05 2.75141e-06 )  
( 4.98614e-06 -2.04042e-06 6.90443e-06 )  
( -1.08614e-05 5.03445e-06 -2.06974e-05 )  
( 1.48441e-05 3.92891e-05 -1.74773e-05 )  
( -3.94186e-06 4.98158e-06 -2.23308e-05 )  
( -3.48809e-06 -9.83176e-06 -4.29156e-05 )  
( -4.08889e-05 6.91395e-05 1.13842e-05 )  
( 1.01209e-05 1.09652e-05 -3.24069e-05 )  
( 4.32951e-05 2.11038e-05 -1.35687e-05 )  
( -4.82732e-05 -1.46151e-05 -1.00332e-05 )  
( 8.26871e-05 -1.25405e-05 -0.000104344 )  
( -2.07144e-06 8.43478e-05 1.39332e-05 )  
( 1.13605e-06 -4.73522e-05 -3.99304e-06 )  
( -3.2842e-06 -5.71567e-05 -0.000168835 )  
( 2.65421e-06 -3.60675e-05 -6.48218e-05 )  
( -3.25294e-05 -7.82731e-05 -2.48162e-05 )  
( -5.57374e-05 -7.75543e-05 -0.00011256 )  
( 2.15631e-05 7.68628e-05 -4.28324e-05 )  
( -2.38001e-05 -7.53344e-05 -1.59865e-05 )  
( 2.62657e-05 -1.6378e-05 -0.000138102 )  
( -4.82163e-06 3.22515e-05 -0.000101944 )  
( -3.22707e-05 -9.38532e-05 -9.52261e-05 )  
( -2.75455e-05 -2.42837e-05 -0.000110487 )  
( -1.78406e-06 -5.62285e-05 -0.000220833 )  
( -2.3326e-05 -7.83809e-05 -0.000127268 )  
( -4.04427e-05 -2.89603e-05 -0.00014845 )  
( 3.32908e-05 1.04855e-05 -0.000157276 )  
( 2.41212e-05 -8.22099e-05 -0.00018978 )  
( -7.88395e-05 -3.9663e-05 -0.000282394 )  
( -6.30655e-05 -9.14295e-05 -0.000196634 )  
( 7.89801e-05 3.61686e-05 3.90392e-05 )  
( 5.28843e-05 2.97039e-05 -0.000313775 )  
( 4.58196e-05 -0.000107405 -0.000216521 )  
( 5.04904e-05 3.71369e-05 -0.000152205 )  
( 0.000110249 -0.000243081 -0.000177963 )  
)
