/*--------------------------------*- C++ -*----------------------------------*\
| =========                 |                                                 |
| \\      /  F ield         | OpenFOAM: The Open Source CFD Toolbox           |
|  \\    /   O peration     | Version:  5.x                                   |
|   \\  /    A nd           | Web:      www.OpenFOAM.org                      |
|    \\/     M anipulation  |                                                 |
\*---------------------------------------------------------------------------*/
FoamFile
{
    version     2.0;
    format      ascii;
    class       volVectorField;
    location    "0.09";
    object      U;
}
// * * * * * * * * * * * * * * * * * * * * * * * * * * * * * * * * * * * * * //

dimensions      [0 1 -1 0 0 0 0];

internalField   nonuniform List<vector> 
2250
(
(-2.86959e-10 -2.62903e-10 -0.001)
(-2.24113e-10 -2.32466e-10 -0.001)
(-1.94303e-10 -2.24192e-10 -0.001)
(-1.25117e-10 -2.25348e-10 -0.001)
(-4.00287e-11 -2.21248e-10 -0.001)
(-2.57001e-10 -2.18641e-10 -0.001)
(-2.32082e-10 -2.27383e-10 -0.001)
(-1.88604e-10 -2.22205e-10 -0.001)
(-1.20837e-10 -2.11252e-10 -0.001)
(-3.91977e-11 -2.07915e-10 -0.001)
(-2.4965e-10 -1.83851e-10 -0.001)
(-2.27659e-10 -1.81896e-10 -0.001)
(-1.78187e-10 -1.73195e-10 -0.001)
(-1.11322e-10 -1.6436e-10 -0.001)
(-3.71706e-11 -1.62943e-10 -0.001)
(-2.5334e-10 -1.1438e-10 -0.001)
(-2.21385e-10 -1.11913e-10 -0.001)
(-1.71065e-10 -1.0566e-10 -0.001)
(-1.1093e-10 -1.0638e-10 -0.001)
(-3.81014e-11 -1.05167e-10 -0.001)
(-2.5212e-10 -3.69528e-11 -0.001)
(-2.18427e-10 -3.49514e-11 -0.001)
(-1.72287e-10 -3.44715e-11 -0.001)
(-1.10817e-10 -3.65109e-11 -0.001)
(-3.61023e-11 -3.4508e-11 -0.001)
(-7.91136e-10 -7.09029e-10 -0.001)
(-6.14798e-10 -6.38039e-10 -0.001)
(-4.99726e-10 -6.02326e-10 -0.001)
(-3.21011e-10 -5.94727e-10 -0.001)
(-1.06226e-10 -5.8296e-10 -0.001)
(-7.24187e-10 -5.71566e-10 -0.001)
(-6.20823e-10 -5.80394e-10 -0.001)
(-4.872e-10 -5.7402e-10 -0.001)
(-3.08305e-10 -5.57354e-10 -0.001)
(-1.02188e-10 -5.48836e-10 -0.001)
(-6.97543e-10 -4.59771e-10 -0.001)
(-6.17292e-10 -4.5647e-10 -0.001)
(-4.7677e-10 -4.53277e-10 -0.001)
(-2.96984e-10 -4.40089e-10 -0.001)
(-9.87854e-11 -4.34952e-10 -0.001)
(-6.93674e-10 -2.86277e-10 -0.001)
(-6.14282e-10 -2.88147e-10 -0.001)
(-4.70817e-10 -2.84829e-10 -0.001)
(-2.90765e-10 -2.80168e-10 -0.001)
(-9.77769e-11 -2.75093e-10 -0.001)
(-6.92997e-10 -9.2716e-11 -0.001)
(-6.146e-10 -9.67981e-11 -0.001)
(-4.67918e-10 -9.41661e-11 -0.001)
(-2.87218e-10 -9.47157e-11 -0.001)
(-9.39825e-11 -9.09339e-11 -0.001)
(-1.24888e-09 -1.0773e-09 -0.001)
(-1.06433e-09 -1.04297e-09 -0.001)
(-8.30273e-10 -1.01197e-09 -0.001)
(-5.27462e-10 -1.00044e-09 -0.001)
(-1.78689e-10 -9.81812e-10 -0.001)
(-1.20851e-09 -9.52828e-10 -0.001)
(-1.06241e-09 -9.56829e-10 -0.001)
(-8.18346e-10 -9.4733e-10 -0.001)
(-5.09549e-10 -9.32811e-10 -0.001)
(-1.69345e-10 -9.20671e-10 -0.001)
(-1.19312e-09 -7.59127e-10 -0.001)
(-1.05882e-09 -7.61026e-10 -0.001)
(-8.06367e-10 -7.53783e-10 -0.001)
(-5.0263e-10 -7.40437e-10 -0.001)
(-1.68228e-10 -7.32437e-10 -0.001)
(-1.187e-09 -4.89568e-10 -0.001)
(-1.05694e-09 -4.8555e-10 -0.001)
(-7.97746e-10 -4.77624e-10 -0.001)
(-4.89479e-10 -4.65474e-10 -0.001)
(-1.62538e-10 -4.53849e-10 -0.001)
(-1.17667e-09 -1.68264e-10 -0.001)
(-1.04487e-09 -1.64881e-10 -0.001)
(-7.84888e-10 -1.58048e-10 -0.001)
(-4.78809e-10 -1.5336e-10 -0.001)
(-1.57112e-10 -1.47949e-10 -0.001)
(-1.70968e-09 -1.46576e-09 -0.001)
(-1.59061e-09 -1.48961e-09 -0.001)
(-1.22216e-09 -1.48396e-09 -0.001)
(-7.73027e-10 -1.47405e-09 -0.001)
(-2.65022e-10 -1.45911e-09 -0.001)
(-1.72771e-09 -1.43155e-09 -0.001)
(-1.56565e-09 -1.40802e-09 -0.001)
(-1.2019e-09 -1.38743e-09 -0.001)
(-7.59157e-10 -1.37191e-09 -0.001)
(-2.58252e-10 -1.3527e-09 -0.001)
(-1.73419e-09 -1.14303e-09 -0.001)
(-1.54648e-09 -1.11864e-09 -0.001)
(-1.18622e-09 -1.09816e-09 -0.001)
(-7.4088e-10 -1.07618e-09 -0.001)
(-2.48226e-10 -1.05652e-09 -0.001)
(-1.72228e-09 -7.43871e-10 -0.001)
(-1.5206e-09 -7.10458e-10 -0.001)
(-1.15943e-09 -6.82518e-10 -0.001)
(-7.19391e-10 -6.61989e-10 -0.001)
(-2.4042e-10 -6.55479e-10 -0.001)
(-1.69681e-09 -2.58584e-10 -0.001)
(-1.48239e-09 -2.37838e-10 -0.001)
(-1.13573e-09 -2.22955e-10 -0.001)
(-7.13722e-10 -2.161e-10 -0.001)
(-2.4244e-10 -2.18166e-10 -0.001)
(-2.36071e-09 -2.05146e-09 -0.001)
(-2.19888e-09 -2.06024e-09 -0.001)
(-1.72999e-09 -2.06736e-09 -0.001)
(-1.11431e-09 -2.04991e-09 -0.001)
(-3.88128e-10 -2.02925e-09 -0.001)
(-2.37174e-09 -1.99143e-09 -0.001)
(-2.17265e-09 -1.95533e-09 -0.001)
(-1.69356e-09 -1.91901e-09 -0.001)
(-1.08181e-09 -1.88456e-09 -0.001)
(-3.70838e-10 -1.84508e-09 -0.001)
(-2.38288e-09 -1.59284e-09 -0.001)
(-2.12646e-09 -1.53336e-09 -0.001)
(-1.65946e-09 -1.49218e-09 -0.001)
(-1.04389e-09 -1.45949e-09 -0.001)
(-3.51993e-10 -1.43892e-09 -0.001)
(-2.36506e-09 -1.00788e-09 -0.001)
(-2.07173e-09 -9.48546e-10 -0.001)
(-1.61967e-09 -9.10441e-10 -0.001)
(-1.03114e-09 -9.00751e-10 -0.001)
(-3.52813e-10 -9.0996e-10 -0.00100001)
(-2.33485e-09 -3.39778e-10 -0.001)
(-2.02521e-09 -3.08844e-10 -0.001)
(-1.60872e-09 -2.96882e-10 -0.001)
(-1.04314e-09 -3.00756e-10 -0.00100001)
(-3.62115e-10 -3.10155e-10 -0.00100001)
(-3.21583e-09 -2.77325e-09 -0.001)
(-3.03938e-09 -2.80121e-09 -0.001)
(-2.39282e-09 -2.79828e-09 -0.001)
(-1.55359e-09 -2.76574e-09 -0.001)
(-5.40109e-10 -2.7401e-09 -0.001)
(-3.25839e-09 -2.66752e-09 -0.001)
(-2.96052e-09 -2.58452e-09 -0.001)
(-2.33737e-09 -2.54005e-09 -0.001)
(-1.50032e-09 -2.49453e-09 -0.001)
(-5.15187e-10 -2.4498e-09 -0.00100001)
(-3.2666e-09 -2.05675e-09 -0.001)
(-2.91192e-09 -1.9981e-09 -0.001)
(-2.30316e-09 -1.96549e-09 -0.001)
(-1.46803e-09 -1.94609e-09 -0.00100001)
(-4.99842e-10 -1.93634e-09 -0.00100001)
(-3.25252e-09 -1.27368e-09 -0.001)
(-2.86889e-09 -1.22986e-09 -0.001)
(-2.28533e-09 -1.21481e-09 -0.00100001)
(-1.47466e-09 -1.22597e-09 -0.00100001)
(-5.08817e-10 -1.23952e-09 -0.00100001)
(-3.23634e-09 -4.20801e-10 -0.001)
(-2.84758e-09 -4.04393e-10 -0.001)
(-2.29504e-09 -4.04666e-10 -0.00100001)
(-1.49223e-09 -4.18163e-10 -0.00100001)
(-5.14538e-10 -4.24058e-10 -0.00100001)
(-4.41686e-09 -3.69682e-09 -0.001)
(-4.13882e-09 -3.75226e-09 -0.001)
(-3.26107e-09 -3.74999e-09 -0.001)
(-2.10131e-09 -3.7238e-09 -0.00100001)
(-7.23482e-10 -3.70285e-09 -0.00100001)
(-4.48839e-09 -3.44957e-09 -0.001)
(-4.05367e-09 -3.37736e-09 -0.001)
(-3.20936e-09 -3.34501e-09 -0.00100001)
(-2.0595e-09 -3.31608e-09 -0.00100001)
(-7.05548e-10 -3.28673e-09 -0.00100001)
(-4.50839e-09 -2.63763e-09 -0.001)
(-4.03426e-09 -2.61204e-09 -0.00100001)
(-3.20025e-09 -2.61423e-09 -0.00100001)
(-2.04934e-09 -2.61648e-09 -0.00100001)
(-7.00034e-10 -2.61699e-09 -0.00100001)
(-4.50812e-09 -1.64374e-09 -0.001)
(-4.02975e-09 -1.63871e-09 -0.00100001)
(-3.21376e-09 -1.65157e-09 -0.00100001)
(-2.06695e-09 -1.6727e-09 -0.00100001)
(-7.10532e-10 -1.67784e-09 -0.00100001)
(-4.50679e-09 -5.49481e-10 -0.001)
(-4.03421e-09 -5.55158e-10 -0.00100001)
(-3.22827e-09 -5.61361e-10 -0.00100001)
(-2.0748e-09 -5.75369e-10 -0.00100001)
(-7.06674e-10 -5.71771e-10 -0.00100001)
(-6.14639e-09 -5.02536e-09 -0.001)
(-5.59432e-09 -5.06617e-09 -0.001)
(-4.41402e-09 -5.06337e-09 -0.00100001)
(-2.82297e-09 -5.05503e-09 -0.00100001)
(-9.65749e-10 -5.0375e-09 -0.00100001)
(-6.1871e-09 -4.52153e-09 -0.001)
(-5.55045e-09 -4.49193e-09 -0.00100001)
(-4.39228e-09 -4.48272e-09 -0.00100001)
(-2.81181e-09 -4.48288e-09 -0.00100001)
(-9.60454e-10 -4.47502e-09 -0.00100001)
(-6.19873e-09 -3.51255e-09 -0.001)
(-5.55551e-09 -3.51416e-09 -0.00100001)
(-4.4056e-09 -3.54144e-09 -0.00100001)
(-2.82382e-09 -3.55586e-09 -0.00100001)
(-9.65785e-10 -3.56547e-09 -0.00100001)
(-6.20272e-09 -2.22252e-09 -0.00100001)
(-5.57864e-09 -2.24364e-09 -0.00100001)
(-4.43393e-09 -2.27119e-09 -0.00100001)
(-2.84224e-09 -2.28988e-09 -0.00100001)
(-9.76126e-10 -2.28652e-09 -0.00100001)
(-6.20212e-09 -7.55557e-10 -0.00100001)
(-5.59325e-09 -7.73484e-10 -0.00100001)
(-4.44364e-09 -7.80397e-10 -0.00100001)
(-2.83805e-09 -7.90992e-10 -0.00100001)
(-9.64534e-10 -7.79752e-10 -0.00100001)
(-8.49331e-09 -6.90577e-09 -0.001)
(-7.62625e-09 -6.90705e-09 -0.001)
(-6.00155e-09 -6.89142e-09 -0.00100001)
(-3.82044e-09 -6.89141e-09 -0.00100001)
(-1.30332e-09 -6.8765e-09 -0.00100001)
(-8.47882e-09 -6.15583e-09 -0.001)
(-7.57728e-09 -6.10762e-09 -0.00100001)
(-5.99261e-09 -6.09876e-09 -0.00100001)
(-3.8378e-09 -6.1229e-09 -0.00100001)
(-1.31289e-09 -6.1362e-09 -0.00100001)
(-8.45756e-09 -4.82357e-09 -0.00100001)
(-7.56918e-09 -4.8164e-09 -0.00100001)
(-6.01767e-09 -4.84933e-09 -0.00100001)
(-3.86961e-09 -4.86982e-09 -0.00100001)
(-1.32741e-09 -4.88555e-09 -0.00100001)
(-8.45517e-09 -3.07007e-09 -0.00100001)
(-7.6021e-09 -3.10048e-09 -0.00100001)
(-6.04595e-09 -3.13565e-09 -0.00100001)
(-3.88286e-09 -3.14479e-09 -0.00100001)
(-1.33701e-09 -3.13223e-09 -0.00100001)
(-8.44681e-09 -1.05113e-09 -0.00100001)
(-7.61999e-09 -1.07276e-09 -0.00100001)
(-6.0508e-09 -1.08278e-09 -0.00100001)
(-3.86474e-09 -1.08826e-09 -0.00100001)
(-1.31786e-09 -1.06957e-09 -0.00100002)
(-1.16048e-08 -9.45356e-09 -0.001)
(-1.04382e-08 -9.42e-09 -0.00100001)
(-8.21655e-09 -9.39698e-09 -0.00100001)
(-5.23328e-09 -9.3976e-09 -0.00100001)
(-1.78757e-09 -9.38838e-09 -0.00100001)
(-1.15551e-08 -8.47994e-09 -0.00100001)
(-1.03556e-08 -8.38885e-09 -0.00100001)
(-8.19881e-09 -8.36634e-09 -0.00100001)
(-5.264e-09 -8.3966e-09 -0.00100001)
(-1.80721e-09 -8.41688e-09 -0.00100002)
(-1.15155e-08 -6.67178e-09 -0.00100001)
(-1.03246e-08 -6.643e-09 -0.00100001)
(-8.22546e-09 -6.66632e-09 -0.00100001)
(-5.3e-09 -6.68292e-09 -0.00100002)
(-1.82279e-09 -6.68781e-09 -0.00100002)
(-1.15098e-08 -4.26484e-09 -0.00100001)
(-1.03489e-08 -4.28747e-09 -0.00100001)
(-8.23863e-09 -4.31654e-09 -0.00100002)
(-5.29773e-09 -4.30695e-09 -0.00100002)
(-1.82382e-09 -4.27695e-09 -0.00100002)
(-1.14926e-08 -1.46543e-09 -0.00100001)
(-1.03563e-08 -1.47954e-09 -0.00100001)
(-8.22965e-09 -1.49151e-09 -0.00100002)
(-5.25851e-09 -1.4852e-09 -0.00100002)
(-1.79705e-09 -1.45906e-09 -0.00100002)
(-1.58292e-08 -1.29003e-08 -0.001)
(-1.42383e-08 -1.28271e-08 -0.00100001)
(-1.12699e-08 -1.28008e-08 -0.00100001)
(-7.21189e-09 -1.27937e-08 -0.00100002)
(-2.47356e-09 -1.27823e-08 -0.00100002)
(-1.57491e-08 -1.15737e-08 -0.00100001)
(-1.41812e-08 -1.15124e-08 -0.00100001)
(-1.12446e-08 -1.14875e-08 -0.00100002)
(-7.22934e-09 -1.14957e-08 -0.00100002)
(-2.48637e-09 -1.14946e-08 -0.00100002)
(-1.57132e-08 -9.17648e-09 -0.00100001)
(-1.41522e-08 -9.1425e-09 -0.00100002)
(-1.12548e-08 -9.14214e-09 -0.00100002)
(-7.24125e-09 -9.1367e-09 -0.00100002)
(-2.49317e-09 -9.11072e-09 -0.00100002)
(-1.57015e-08 -5.90538e-09 -0.00100001)
(-1.41451e-08 -5.89998e-09 -0.00100002)
(-1.12387e-08 -5.89942e-09 -0.00100002)
(-7.2147e-09 -5.86599e-09 -0.00100003)
(-2.47656e-09 -5.8197e-09 -0.00100003)
(-1.56736e-08 -2.03622e-09 -0.00100002)
(-1.41189e-08 -2.03069e-09 -0.00100002)
(-1.11999e-08 -2.03558e-09 -0.00100002)
(-7.15893e-09 -2.01205e-09 -0.00100003)
(-2.45272e-09 -1.98907e-09 -0.00100003)
(-2.16625e-08 -1.76317e-08 -0.00100001)
(-1.93283e-08 -1.74724e-08 -0.00100001)
(-1.53968e-08 -1.74217e-08 -0.00100002)
(-9.89812e-09 -1.73913e-08 -0.00100002)
(-3.40936e-09 -1.73593e-08 -0.00100002)
(-2.15023e-08 -1.56664e-08 -0.00100001)
(-1.93762e-08 -1.572e-08 -0.00100002)
(-1.53794e-08 -1.57047e-08 -0.00100002)
(-9.88794e-09 -1.56743e-08 -0.00100003)
(-3.40247e-09 -1.56346e-08 -0.00100003)
(-2.14558e-08 -1.25292e-08 -0.00100002)
(-1.93666e-08 -1.25091e-08 -0.00100002)
(-1.53532e-08 -1.24748e-08 -0.00100003)
(-9.85841e-09 -1.24361e-08 -0.00100003)
(-3.39798e-09 -1.23788e-08 -0.00100003)
(-2.14194e-08 -8.10307e-09 -0.00100002)
(-1.93194e-08 -8.06512e-09 -0.00100003)
(-1.53062e-08 -8.02057e-09 -0.00100003)
(-9.81475e-09 -7.97521e-09 -0.00100003)
(-3.36721e-09 -7.92948e-09 -0.00100004)
(-2.13707e-08 -2.80292e-09 -0.00100002)
(-1.92467e-08 -2.77671e-09 -0.00100003)
(-1.52348e-08 -2.7653e-09 -0.00100003)
(-9.76376e-09 -2.73274e-09 -0.00100004)
(-3.36014e-09 -2.72685e-09 -0.00100004)
(-2.95446e-08 -2.40203e-08 -0.00100001)
(-2.6272e-08 -2.37928e-08 -0.00100002)
(-2.09659e-08 -2.3698e-08 -0.00100002)
(-1.35172e-08 -2.36324e-08 -0.00100003)
(-4.66906e-09 -2.356e-08 -0.00100003)
(-2.9315e-08 -2.12962e-08 -0.00100001)
(-2.63799e-08 -2.14085e-08 -0.00100002)
(-2.09534e-08 -2.13887e-08 -0.00100003)
(-1.3476e-08 -2.1317e-08 -0.00100004)
(-4.64127e-09 -2.12365e-08 -0.00100004)
(-2.92257e-08 -1.70697e-08 -0.00100002)
(-2.63645e-08 -1.70443e-08 -0.00100003)
(-2.08773e-08 -1.69678e-08 -0.00100004)
(-1.34064e-08 -1.68965e-08 -0.00100004)
(-4.6272e-09 -1.68213e-08 -0.00100005)
(-2.9145e-08 -1.10503e-08 -0.00100003)
(-2.62748e-08 -1.09754e-08 -0.00100003)
(-2.08053e-08 -1.08925e-08 -0.00100004)
(-1.33605e-08 -1.08529e-08 -0.00100005)
(-4.59607e-09 -1.08159e-08 -0.00100005)
(-2.90514e-08 -3.82681e-09 -0.00100003)
(-2.61557e-08 -3.78266e-09 -0.00100004)
(-2.07159e-08 -3.75558e-09 -0.00100004)
(-1.3325e-08 -3.7306e-09 -0.00100005)
(-4.60093e-09 -3.73706e-09 -0.00100005)
(-4.01305e-08 -3.26195e-08 -0.00100001)
(-3.58561e-08 -3.23584e-08 -0.00100002)
(-2.85807e-08 -3.22045e-08 -0.00100003)
(-1.84369e-08 -3.20899e-08 -0.00100004)
(-6.36973e-09 -3.19648e-08 -0.00100005)
(-3.98652e-08 -2.9135e-08 -0.00100002)
(-3.58859e-08 -2.9153e-08 -0.00100003)
(-2.85164e-08 -2.90704e-08 -0.00100004)
(-1.83462e-08 -2.8947e-08 -0.00100005)
(-6.32383e-09 -2.88222e-08 -0.00100005)
(-3.97002e-08 -2.32772e-08 -0.00100003)
(-3.57915e-08 -2.31781e-08 -0.00100004)
(-2.83787e-08 -2.3045e-08 -0.00100005)
(-1.82451e-08 -2.29428e-08 -0.00100006)
(-6.29758e-09 -2.28523e-08 -0.00100006)
(-3.95648e-08 -1.50166e-08 -0.00100004)
(-3.56493e-08 -1.48953e-08 -0.00100005)
(-2.82808e-08 -1.4793e-08 -0.00100006)
(-1.81959e-08 -1.4755e-08 -0.00100006)
(-6.27422e-09 -1.47139e-08 -0.00100007)
(-3.94148e-08 -5.18377e-09 -0.00100004)
(-3.54986e-08 -5.13035e-09 -0.00100005)
(-2.81854e-08 -5.09828e-09 -0.00100006)
(-1.81593e-08 -5.08588e-09 -0.00100007)
(-6.27106e-09 -5.08492e-09 -0.00100007)
(-5.45331e-08 -4.43168e-08 -0.00100001)
(-4.90197e-08 -4.39627e-08 -0.00100003)
(-3.89871e-08 -4.37111e-08 -0.00100005)
(-2.51065e-08 -4.35273e-08 -0.00100006)
(-8.65603e-09 -4.33537e-08 -0.00100006)
(-5.41782e-08 -3.98421e-08 -0.00100003)
(-4.88356e-08 -3.96362e-08 -0.00100004)
(-3.88074e-08 -3.94353e-08 -0.00100006)
(-2.49604e-08 -3.92546e-08 -0.00100007)
(-8.605e-09 -3.90862e-08 -0.00100007)
(-5.39029e-08 -3.16618e-08 -0.00100004)
(-4.86129e-08 -3.14526e-08 -0.00100006)
(-3.86109e-08 -3.12601e-08 -0.00100007)
(-2.48342e-08 -3.11248e-08 -0.00100008)
(-8.55927e-09 -3.10052e-08 -0.00100009)
(-5.37168e-08 -2.03237e-08 -0.00100005)
(-4.84279e-08 -2.01838e-08 -0.00100006)
(-3.84792e-08 -2.00746e-08 -0.00100008)
(-2.47634e-08 -2.00115e-08 -0.00100009)
(-8.5412e-09 -1.99525e-08 -0.00100009)
(-5.35305e-08 -6.98262e-09 -0.00100005)
(-4.82691e-08 -6.94549e-09 -0.00100007)
(-3.83662e-08 -6.91277e-09 -0.00100008)
(-2.47029e-08 -6.90218e-09 -0.00100009)
(-8.5202e-09 -6.88421e-09 -0.0010001)
(-7.41357e-08 -6.01668e-08 -0.00100002)
(-6.68524e-08 -5.96619e-08 -0.00100004)
(-5.30793e-08 -5.92919e-08 -0.00100006)
(-3.41234e-08 -5.90251e-08 -0.00100008)
(-1.17485e-08 -5.87976e-08 -0.00100008)
(-7.36372e-08 -5.41859e-08 -0.00100004)
(-6.64403e-08 -5.37648e-08 -0.00100006)
(-5.27797e-08 -5.34425e-08 -0.00100008)
(-3.39341e-08 -5.32069e-08 -0.00100009)
(-1.16971e-08 -5.29873e-08 -0.0010001)
(-7.32564e-08 -4.29084e-08 -0.00100005)
(-6.61091e-08 -4.26226e-08 -0.00100008)
(-5.25288e-08 -4.23723e-08 -0.0010001)
(-3.37729e-08 -4.21916e-08 -0.00100011)
(-1.16267e-08 -4.20256e-08 -0.00100012)
(-7.30201e-08 -2.74951e-08 -0.00100007)
(-6.5896e-08 -2.73607e-08 -0.00100009)
(-5.2348e-08 -2.72237e-08 -0.00100011)
(-3.36663e-08 -2.71159e-08 -0.00100012)
(-1.16073e-08 -2.70351e-08 -0.00100013)
(-7.27934e-08 -9.44034e-09 -0.00100007)
(-6.57081e-08 -9.42084e-09 -0.00100009)
(-5.21848e-08 -9.37403e-09 -0.00100011)
(-3.35716e-08 -9.35306e-09 -0.00100013)
(-1.15731e-08 -9.32306e-09 -0.00100013)
(-1.00646e-07 -8.15135e-08 -0.00100003)
(-9.09053e-08 -8.08958e-08 -0.00100006)
(-7.21603e-08 -8.0407e-08 -0.00100009)
(-4.63914e-08 -8.00316e-08 -0.0010001)
(-1.59802e-08 -7.97038e-08 -0.00100011)
(-1.00041e-07 -7.34599e-08 -0.00100005)
(-9.0336e-08 -7.29007e-08 -0.00100008)
(-7.17334e-08 -7.2449e-08 -0.00100011)
(-4.61164e-08 -7.21156e-08 -0.00100013)
(-1.58941e-08 -7.18083e-08 -0.00100014)
(-9.95672e-08 -5.81659e-08 -0.00100007)
(-8.98943e-08 -5.77883e-08 -0.0010001)
(-7.13853e-08 -5.74395e-08 -0.00100013)
(-4.58935e-08 -5.71849e-08 -0.00100015)
(-1.58061e-08 -5.69602e-08 -0.00100016)
(-9.92327e-08 -3.7343e-08 -0.00100009)
(-8.95985e-08 -3.71371e-08 -0.00100012)
(-7.11291e-08 -3.69255e-08 -0.00100015)
(-4.57446e-08 -3.67695e-08 -0.00100016)
(-1.57732e-08 -3.66538e-08 -0.00100017)
(-9.88954e-08 -1.28586e-08 -0.0010001)
(-8.92999e-08 -1.28024e-08 -0.00100013)
(-7.08823e-08 -1.27262e-08 -0.00100015)
(-4.56044e-08 -1.26858e-08 -0.00100017)
(-1.57273e-08 -1.26456e-08 -0.00100018)
(-1.36696e-07 -1.10537e-07 -0.00100004)
(-1.23464e-07 -1.09711e-07 -0.00100008)
(-9.80739e-08 -1.09013e-07 -0.00100012)
(-6.30892e-08 -1.08463e-07 -0.00100014)
(-2.17431e-08 -1.07989e-07 -0.00100016)
(-1.35882e-07 -9.96067e-08 -0.00100007)
(-1.22732e-07 -9.88859e-08 -0.00100011)
(-9.74483e-08 -9.82328e-08 -0.00100015)
(-6.26681e-08 -9.77294e-08 -0.00100017)
(-2.16003e-08 -9.73056e-08 -0.00100019)
(-1.35209e-07 -7.89925e-08 -0.0010001)
(-1.2209e-07 -7.84059e-08 -0.00100014)
(-9.69311e-08 -7.78865e-08 -0.00100018)
(-6.23565e-08 -7.75183e-08 -0.0010002)
(-2.15009e-08 -7.72093e-08 -0.00100022)
(-1.34674e-07 -5.08094e-08 -0.00100012)
(-1.2161e-07 -5.04208e-08 -0.00100016)
(-9.65594e-08 -5.00931e-08 -0.0010002)
(-6.21375e-08 -4.98684e-08 -0.00100022)
(-2.14326e-08 -4.96762e-08 -0.00100024)
(-1.34146e-07 -1.75279e-08 -0.00100013)
(-1.21132e-07 -1.73899e-08 -0.00100017)
(-9.61942e-08 -1.72768e-08 -0.00100021)
(-6.19157e-08 -1.72022e-08 -0.00100023)
(-2.13591e-08 -1.71365e-08 -0.00100025)
(-1.85909e-07 -1.50195e-07 -0.00100005)
(-1.67731e-07 -1.48884e-07 -0.00100011)
(-1.33286e-07 -1.47783e-07 -0.00100016)
(-8.57519e-08 -1.46968e-07 -0.00100019)
(-2.95514e-08 -1.46307e-07 -0.00100021)
(-1.84599e-07 -1.35191e-07 -0.0010001)
(-1.66665e-07 -1.3412e-07 -0.00100016)
(-1.32369e-07 -1.3315e-07 -0.0010002)
(-8.51716e-08 -1.3242e-07 -0.00100024)
(-2.93666e-08 -1.31845e-07 -0.00100026)
(-1.83509e-07 -1.07288e-07 -0.00100014)
(-1.6569e-07 -1.06362e-07 -0.00100019)
(-1.31605e-07 -1.05586e-07 -0.00100024)
(-8.47125e-08 -1.05033e-07 -0.00100028)
(-2.92242e-08 -1.0457e-07 -0.00100029)
(-1.82653e-07 -6.90167e-08 -0.00100017)
(-1.64942e-07 -6.83943e-08 -0.00100022)
(-1.31038e-07 -6.78954e-08 -0.00100027)
(-8.43555e-08 -6.75366e-08 -0.0010003)
(-2.90968e-08 -6.72151e-08 -0.00100032)
(-1.8187e-07 -2.38032e-08 -0.00100018)
(-1.64239e-07 -2.35796e-08 -0.00100024)
(-1.30496e-07 -2.341e-08 -0.00100028)
(-8.39997e-08 -2.32802e-08 -0.00100032)
(-2.89716e-08 -2.31657e-08 -0.00100033)
(-2.52813e-07 -2.0406e-07 -0.00100007)
(-2.28101e-07 -2.02031e-07 -0.00100015)
(-1.81217e-07 -2.00323e-07 -0.00100022)
(-1.16581e-07 -1.99107e-07 -0.00100026)
(-4.01771e-08 -1.98147e-07 -0.00100029)
(-2.50764e-07 -1.83635e-07 -0.00100014)
(-2.26375e-07 -1.81883e-07 -0.00100021)
(-1.79844e-07 -1.80397e-07 -0.00100028)
(-1.15754e-07 -1.79319e-07 -0.00100032)
(-3.99175e-08 -1.78474e-07 -0.00100035)
(-2.49029e-07 -1.45626e-07 -0.00100019)
(-2.24863e-07 -1.4419e-07 -0.00100026)
(-1.78678e-07 -1.42997e-07 -0.00100033)
(-1.15021e-07 -1.42125e-07 -0.00100037)
(-3.96714e-08 -1.41411e-07 -0.0010004)
(-2.47706e-07 -9.35918e-08 -0.00100023)
(-2.23718e-07 -9.26521e-08 -0.0010003)
(-1.77777e-07 -9.18751e-08 -0.00100036)
(-1.14441e-07 -9.12953e-08 -0.00100041)
(-3.94672e-08 -9.08165e-08 -0.00100043)
(-2.46564e-07 -3.22516e-08 -0.00100025)
(-2.22697e-07 -3.19174e-08 -0.00100032)
(-1.76977e-07 -3.16537e-08 -0.00100038)
(-1.13918e-07 -3.14488e-08 -0.00100043)
(-3.92865e-08 -3.12829e-08 -0.00100045)
(-3.43603e-07 -2.77027e-07 -0.0010001)
(-3.10361e-07 -2.73991e-07 -0.0010002)
(-2.46495e-07 -2.7141e-07 -0.00100029)
(-1.58581e-07 -2.69566e-07 -0.00100036)
(-5.46615e-08 -2.68119e-07 -0.00100039)
(-3.40526e-07 -2.49424e-07 -0.00100018)
(-3.07537e-07 -2.4656e-07 -0.00100029)
(-2.44363e-07 -2.44225e-07 -0.00100038)
(-1.57284e-07 -2.42551e-07 -0.00100044)
(-5.42339e-08 -2.4126e-07 -0.00100047)
(-3.37856e-07 -1.97531e-07 -0.00100025)
(-3.05162e-07 -1.95291e-07 -0.00100036)
(-2.42521e-07 -1.93419e-07 -0.00100044)
(-1.56112e-07 -1.92047e-07 -0.00100051)
(-5.38336e-08 -1.90985e-07 -0.00100054)
(-3.35837e-07 -1.26818e-07 -0.00100031)
(-3.03387e-07 -1.25373e-07 -0.00100041)
(-2.41116e-07 -1.24168e-07 -0.00100049)
(-1.55222e-07 -1.23282e-07 -0.00100056)
(-5.35315e-08 -1.22614e-07 -0.00100059)
(-3.34178e-07 -4.36702e-08 -0.00100033)
(-3.01898e-07 -4.31635e-08 -0.00100043)
(-2.39959e-07 -4.27599e-08 -0.00100052)
(-1.54495e-07 -4.24606e-08 -0.00100058)
(-5.32929e-08 -4.22425e-08 -0.00100062)
(-4.66989e-07 -3.76012e-07 -0.00100014)
(-4.22095e-07 -3.71401e-07 -0.00100028)
(-3.35299e-07 -3.67494e-07 -0.0010004)
(-2.15779e-07 -3.64654e-07 -0.00100049)
(-7.43945e-08 -3.62482e-07 -0.00100054)
(-4.62316e-07 -3.38387e-07 -0.00100025)
(-4.17712e-07 -3.33946e-07 -0.00100039)
(-3.31994e-07 -3.30327e-07 -0.00100051)
(-2.13708e-07 -3.27713e-07 -0.0010006)
(-7.36881e-08 -3.25762e-07 -0.00100064)
(-4.58221e-07 -2.67706e-07 -0.00100035)
(-4.14035e-07 -2.64244e-07 -0.00100048)
(-3.29113e-07 -2.61344e-07 -0.0010006)
(-2.1189e-07 -2.59231e-07 -0.00100069)
(-7.30769e-08 -2.57677e-07 -0.00100073)
(-4.55134e-07 -1.71742e-07 -0.00100041)
(-4.11297e-07 -1.69522e-07 -0.00100055)
(-3.26976e-07 -1.67684e-07 -0.00100067)
(-2.1055e-07 -1.66353e-07 -0.00100075)
(-7.26267e-08 -1.65371e-07 -0.0010008)
(-4.52723e-07 -5.91089e-08 -0.00100045)
(-4.09137e-07 -5.83512e-08 -0.00100059)
(-3.253e-07 -5.77407e-08 -0.0010007)
(-2.09491e-07 -5.72973e-08 -0.00100079)
(-7.22696e-08 -5.69686e-08 -0.00100083)
(-6.34805e-07 -5.10343e-07 -0.00100019)
(-5.73907e-07 -5.03293e-07 -0.00100038)
(-4.56181e-07 -4.97312e-07 -0.00100054)
(-2.93699e-07 -4.92898e-07 -0.00100066)
(-1.01283e-07 -4.89667e-07 -0.00100073)
(-6.27648e-07 -4.58626e-07 -0.00100034)
(-5.67318e-07 -4.51938e-07 -0.00100053)
(-4.51077e-07 -4.46379e-07 -0.00100069)
(-2.90441e-07 -4.42325e-07 -0.00100081)
(-1.00162e-07 -4.39401e-07 -0.00100087)
(-6.21327e-07 -3.62561e-07 -0.00100047)
(-5.6166e-07 -3.57226e-07 -0.00100066)
(-4.46632e-07 -3.52759e-07 -0.00100082)
(-2.87646e-07 -3.49512e-07 -0.00100093)
(-9.9225e-08 -3.472e-07 -0.001001)
(-6.16568e-07 -2.32447e-07 -0.00100056)
(-5.57444e-07 -2.29038e-07 -0.00100075)
(-4.43357e-07 -2.26209e-07 -0.00100091)
(-2.85577e-07 -2.24139e-07 -0.00100102)
(-9.85224e-08 -2.22627e-07 -0.00100108)
(-6.13e-07 -7.99686e-08 -0.00100061)
(-5.5427e-07 -7.88297e-08 -0.0010008)
(-4.4085e-07 -7.78809e-08 -0.00100095)
(-2.83945e-07 -7.71755e-08 -0.00100107)
(-9.79507e-08 -7.66432e-08 -0.00100113)
(-8.63197e-07 -6.92645e-07 -0.00100025)
(-7.80632e-07 -6.81784e-07 -0.00100052)
(-6.20863e-07 -6.72558e-07 -0.00100074)
(-3.99854e-07 -6.65727e-07 -0.00100091)
(-1.37915e-07 -6.60951e-07 -0.00100099)
(-8.52113e-07 -6.21337e-07 -0.00100046)
(-7.70597e-07 -6.11122e-07 -0.00100072)
(-6.12977e-07 -6.02542e-07 -0.00100094)
(-3.94837e-07 -5.96309e-07 -0.0010011)
(-1.36204e-07 -5.91948e-07 -0.00100119)
(-8.42282e-07 -4.90665e-07 -0.00100064)
(-7.61837e-07 -4.8237e-07 -0.00100089)
(-6.06137e-07 -4.75452e-07 -0.00100111)
(-3.90525e-07 -4.70421e-07 -0.00100127)
(-1.34741e-07 -4.66935e-07 -0.00100135)
(-8.34877e-07 -3.14344e-07 -0.00100076)
(-7.55285e-07 -3.09018e-07 -0.00100101)
(-6.01019e-07 -3.04564e-07 -0.00100123)
(-3.87268e-07 -3.01287e-07 -0.00100138)
(-1.33637e-07 -2.99013e-07 -0.00100147)
(-8.2946e-07 -1.08111e-07 -0.00100083)
(-7.50479e-07 -1.06321e-07 -0.00100108)
(-5.97196e-07 -1.04796e-07 -0.00100129)
(-3.84807e-07 -1.03668e-07 -0.00100145)
(-1.32791e-07 -1.02877e-07 -0.00100153)
(-1.17398e-06 -9.39781e-07 -0.00100035)
(-1.06215e-06 -9.23004e-07 -0.00100071)
(-8.45213e-07 -9.0883e-07 -0.00100101)
(-5.44568e-07 -8.98366e-07 -0.00100124)
(-1.87883e-07 -8.91262e-07 -0.00100136)
(-1.15675e-06 -8.41103e-07 -0.00100063)
(-1.04671e-06 -8.25305e-07 -0.00100098)
(-8.33125e-07 -8.12109e-07 -0.00100128)
(-5.36918e-07 -8.02571e-07 -0.0010015)
(-1.85282e-07 -7.96099e-07 -0.00100162)
(-1.14142e-06 -6.63118e-07 -0.00100086)
(-1.03315e-06 -6.50155e-07 -0.00100121)
(-8.22598e-07 -6.39407e-07 -0.0010015)
(-5.30287e-07 -6.31611e-07 -0.00100172)
(-1.83036e-07 -6.26414e-07 -0.00100183)
(-1.12978e-06 -4.24434e-07 -0.00100103)
(-1.02286e-06 -4.15948e-07 -0.00100137)
(-8.14569e-07 -4.08913e-07 -0.00100166)
(-5.2522e-07 -4.03811e-07 -0.00100187)
(-1.81342e-07 -4.00461e-07 -0.00100199)
(-1.12142e-06 -1.45936e-07 -0.00100112)
(-1.01546e-06 -1.43015e-07 -0.00100146)
(-8.08799e-07 -1.40588e-07 -0.00100174)
(-5.216e-07 -1.38855e-07 -0.00100195)
(-1.80125e-07 -1.37716e-07 -0.00100207)
(-1.5966e-06 -1.27415e-06 -0.00100048)
(-1.44532e-06 -1.24846e-06 -0.00100096)
(-1.15106e-06 -1.2269e-06 -0.00100138)
(-7.42131e-07 -1.21095e-06 -0.00100169)
(-2.56152e-07 -1.20036e-06 -0.00100185)
(-1.57007e-06 -1.13693e-06 -0.00100085)
(-1.4217e-06 -1.11251e-06 -0.00100133)
(-1.13264e-06 -1.09238e-06 -0.00100174)
(-7.3046e-07 -1.07781e-06 -0.00100204)
(-2.52199e-07 -1.0683e-06 -0.0010022)
(-1.54619e-06 -8.94294e-07 -0.00100117)
(-1.40077e-06 -8.73957e-07 -0.00100163)
(-1.11652e-06 -8.57327e-07 -0.00100203)
(-7.20421e-07 -8.45323e-07 -0.00100233)
(-2.48871e-07 -8.37657e-07 -0.00100248)
(-1.52772e-06 -5.71661e-07 -0.00100139)
(-1.38455e-06 -5.58088e-07 -0.00100185)
(-1.10399e-06 -5.47101e-07 -0.00100224)
(-7.12555e-07 -5.392e-07 -0.00100253)
(-2.46249e-07 -5.34191e-07 -0.00100269)
(-1.5148e-06 -1.96493e-07 -0.00100151)
(-1.37324e-06 -1.91761e-07 -0.00100196)
(-1.09534e-06 -1.87998e-07 -0.00100235)
(-7.07174e-07 -1.85334e-07 -0.00100264)
(-2.44455e-07 -1.83653e-07 -0.00100279)
(-2.17169e-06 -1.72617e-06 -0.00100066)
(-1.96721e-06 -1.68688e-06 -0.00100132)
(-1.56852e-06 -1.65436e-06 -0.00100189)
(-1.01222e-06 -1.63002e-06 -0.00100231)
(-3.49606e-07 -1.61436e-06 -0.00100253)
(-2.13096e-06 -1.53393e-06 -0.00100116)
(-1.93118e-06 -1.49603e-06 -0.00100181)
(-1.54056e-06 -1.46564e-06 -0.00100237)
(-9.94463e-07 -1.44351e-06 -0.00100277)
(-3.43669e-07 -1.42981e-06 -0.00100299)
(-2.09367e-06 -1.20275e-06 -0.00100158)
(-1.89891e-06 -1.17053e-06 -0.00100221)
(-1.51622e-06 -1.14498e-06 -0.00100276)
(-9.79623e-07 -1.12642e-06 -0.00100315)
(-3.38943e-07 -1.11515e-06 -0.00100337)
(-2.06408e-06 -7.67614e-07 -0.00100188)
(-1.87316e-06 -7.45742e-07 -0.00100249)
(-1.49642e-06 -7.28676e-07 -0.00100303)
(-9.67042e-07 -7.16157e-07 -0.00100342)
(-3.34739e-07 -7.08688e-07 -0.00100363)
(-2.04397e-06 -2.63871e-07 -0.00100204)
(-1.85587e-06 -2.56206e-07 -0.00100264)
(-1.48348e-06 -2.50474e-07 -0.00100317)
(-9.59147e-07 -2.46322e-07 -0.00100356)
(-3.3227e-07 -2.44016e-07 -0.00100377)
(-2.9552e-06 -2.33674e-06 -0.00100091)
(-2.67838e-06 -2.27578e-06 -0.00100181)
(-2.13907e-06 -2.2275e-06 -0.00100259)
(-1.38205e-06 -2.18999e-06 -0.00100316)
(-4.7796e-07 -2.16709e-06 -0.00100347)
(-2.89242e-06 -2.06464e-06 -0.00100159)
(-2.62331e-06 -2.00482e-06 -0.00100246)
(-2.0969e-06 -1.96006e-06 -0.00100322)
(-1.35489e-06 -1.92672e-06 -0.00100377)
(-4.69034e-07 -1.90787e-06 -0.00100407)
(-2.8339e-06 -1.61173e-06 -0.00100215)
(-2.5738e-06 -1.55957e-06 -0.00100298)
(-2.06128e-06 -1.52075e-06 -0.00100373)
(-1.33427e-06 -1.49146e-06 -0.00100428)
(-4.63243e-07 -1.47533e-06 -0.00100458)
(-2.78561e-06 -1.02725e-06 -0.00100254)
(-2.53199e-06 -9.90875e-07 -0.00100335)
(-2.02875e-06 -9.64601e-07 -0.00100408)
(-1.31273e-06 -9.4387e-07 -0.0010046)
(-4.56059e-07 -9.3315e-07 -0.00100489)
(-2.75371e-06 -3.53792e-07 -0.00100275)
(-2.50548e-06 -3.40901e-07 -0.00100354)
(-2.00991e-06 -3.32678e-07 -0.00100427)
(-1.3021e-06 -3.26279e-07 -0.00100479)
(-4.53575e-07 -3.24032e-07 -0.00100508)
(-4.02388e-06 -3.16019e-06 -0.00100128)
(-3.64698e-06 -3.06191e-06 -0.00100249)
(-2.92032e-06 -2.9931e-06 -0.00100356)
(-1.88932e-06 -2.93342e-06 -0.00100434)
(-6.55176e-07 -2.90084e-06 -0.00100477)
(-3.92643e-06 -2.7702e-06 -0.00100219)
(-3.56242e-06 -2.6723e-06 -0.00100334)
(-2.85713e-06 -2.611e-06 -0.00100439)
(-1.84626e-06 -2.56118e-06 -0.00100514)
(-6.41315e-07 -2.53939e-06 -0.00100555)
(-3.83417e-06 -2.14902e-06 -0.00100292)
(-3.48778e-06 -2.06096e-06 -0.00100401)
(-2.8096e-06 -2.00395e-06 -0.00100507)
(-1.82366e-06 -1.95534e-06 -0.00100581)
(-6.38924e-07 -1.93389e-06 -0.00100625)
(-3.75265e-06 -1.36963e-06 -0.00100342)
(-3.41688e-06 -1.30539e-06 -0.00100446)
(-2.75145e-06 -1.26671e-06 -0.00100548)
(-1.78055e-06 -1.22885e-06 -0.00100616)
(-6.24064e-07 -1.21439e-06 -0.00100657)
(-3.70059e-06 -4.75132e-07 -0.00100372)
(-3.37701e-06 -4.5169e-07 -0.00100472)
(-2.72704e-06 -4.42727e-07 -0.00100575)
(-1.7703e-06 -4.33046e-07 -0.00100642)
(-6.25828e-07 -4.35144e-07 -0.00100686)
(-5.48387e-06 -4.26981e-06 -0.00100185)
(-4.96267e-06 -4.09543e-06 -0.00100343)
(-3.99338e-06 -4.0087e-06 -0.00100494)
(-2.58693e-06 -3.90496e-06 -0.00100599)
(-9.03641e-07 -3.86121e-06 -0.00100661)
(-5.33003e-06 -3.70439e-06 -0.00100305)
(-4.83106e-06 -3.52974e-06 -0.0010045)
(-3.89893e-06 -3.46589e-06 -0.00100601)
(-2.50904e-06 -3.39164e-06 -0.00100697)
(-8.77869e-07 -3.3832e-06 -0.00100753)
(-5.18354e-06 -2.84619e-06 -0.00100404)
(-4.72416e-06 -2.68496e-06 -0.00100534)
(-3.85582e-06 -2.6101e-06 -0.00100693)
(-2.51209e-06 -2.51957e-06 -0.00100791)
(-9.02302e-07 -2.49726e-06 -0.00100862)
(-5.03815e-06 -1.82101e-06 -0.00100464)
(-4.59432e-06 -1.69463e-06 -0.00100584)
(-3.73344e-06 -1.64686e-06 -0.00100735)
(-2.4019e-06 -1.56261e-06 -0.00100816)
(-8.60911e-07 -1.54584e-06 -0.00100875)
(-4.94854e-06 -6.46366e-07 -0.00100509)
(-4.53915e-06 -5.95982e-07 -0.00100617)
(-3.7156e-06 -6.01442e-07 -0.00100778)
(-2.40967e-06 -5.85728e-07 -0.00100856)
(-8.87253e-07 -6.12475e-07 -0.00100928)
(-7.47956e-06 -5.77012e-06 -0.00100283)
(-6.73355e-06 -5.39466e-06 -0.00100468)