/*--------------------------------*- C++ -*----------------------------------*\
| =========                 |                                                 |
| \\      /  F ield         | OpenFOAM: The Open Source CFD Toolbox           |
|  \\    /   O peration     | Version:  5.x                                   |
|   \\  /    A nd           | Web:      www.OpenFOAM.org                      |
|    \\/     M anipulation  |                                                 |
\*---------------------------------------------------------------------------*/
FoamFile
{
    version     2.0;
    format      ascii;
    class       surfaceScalarField;
    location    "1000";
    object      phi;
}
// * * * * * * * * * * * * * * * * * * * * * * * * * * * * * * * * * * * * * //

dimensions      [0 3 -1 0 0 0 0];

internalField   nonuniform List<scalar> 
89
(
-0.0249985
-0.0249985
-0.0249985
-0.0249986
-0.0249986
-0.0249986
-0.0249986
-0.0249985
-0.0249985
-0.0249985
-0.0249984
-0.0249982
-0.0249979
-0.0249976
-0.024997
-0.0249962
-0.0249951
-0.0249935
-0.0249913
-0.0249882
-0.0249838
-0.0249779
-0.0249697
-0.0249586
-0.0249434
-0.0249227
-0.0248947
-0.0248568
-0.0248056
-0.0247366
-0.0246437
-0.0245188
-0.0243509
-0.0241248
-0.0238223
-0.0234501
-0.0230374
-0.0226574
-0.0223873
-0.0232827
-0.0232597
-0.0229827
-0.0226149
-0.0224896
-0.0228204
-0.0230401
-0.022904
-0.0226277
-0.022523
-0.0227127
-0.022994
-0.0229763
-0.0231892
-0.0233273
-0.0237399
-0.0240755
-0.0243245
-0.0245085
-0.0246444
-0.0247443
-0.0248175
-0.0248708
-0.0249096
-0.0249376
-0.0249578
-0.0249721
-0.0249823
-0.0249893
-0.0249942
-0.0249974
-0.0249996
-0.0250009
-0.0250017
-0.0250021
-0.0250023
-0.0250023
-0.0250023
-0.0250021
-0.025002
-0.0250018
-0.0250016
-0.0250014
-0.0250013
-0.0250011
-0.0250009
-0.0250008
-0.0250006
-0.0250005
-0.0250004
)
;

boundaryField
{
    inlet
    {
        type            calculated;
        value           uniform -0.0250002;
    }
    outlet
    {
        type            calculated;
        value           uniform 0.0249985;
    }
    repeat_boundary
    {
        type            calculated;
        value           uniform 0;
    }
    procBoundary3to1
    {
        type            processor;
        value           nonuniform List<scalar> 
90
(
2.32559e-08
3.97017e-08
5.9717e-08
8.1777e-08
1.06152e-07
1.33356e-07
1.63917e-07
1.98321e-07
2.3705e-07
2.80526e-07
3.29041e-07
3.82654e-07
4.41062e-07
5.03411e-07
5.67753e-07
6.30708e-07
6.86825e-07
7.27521e-07
7.40051e-07
7.09606e-07
6.20033e-07
4.61438e-07
9.87158e-08
-4.60977e-07
-1.3294e-06
-2.65712e-06
-4.62283e-06
-7.47208e-06
-1.15404e-05
-1.72913e-05
-2.53581e-05
-3.66096e-05
-5.22906e-05
-7.42535e-05
-0.000104032
-0.000131938
-0.000151116
-0.00014388
-0.000103543
0.000369812
-1.03949e-05
-7.47503e-05
-0.000137318
-9.90747e-05
0.000119859
-8.54233e-06
-0.000309919
-0.000464831
-0.000204194
-2.21711e-05
4.66217e-05
-0.00010561
9.92829e-05
0.000298502
0.000312143
0.000259394
0.000201619
0.000155044
0.00011906
9.1419e-05
7.02507e-05
5.40384e-05
4.16141e-05
3.20831e-05
2.47651e-05
1.91408e-05
1.48139e-05
1.14813e-05
8.91176e-06
6.92809e-06
5.39468e-06
4.20757e-06
3.28707e-06
2.57212e-06
2.01593e-06
1.58255e-06
1.24433e-06
9.79914e-07
7.72843e-07
6.10459e-07
4.83002e-07
3.82914e-07
3.04323e-07
2.42634e-07
1.94216e-07
1.56208e-07
1.26547e-07
1.03679e-07
8.71982e-08
8.05648e-08
)
;
    }
    procBoundary3to2
    {
        type            processor;
        value           nonuniform List<scalar> 
90
(
-2.01439e-08
-3.17821e-08
-4.74199e-08
-6.60963e-08
-8.86961e-08
-1.1659e-07
-1.51454e-07
-1.95353e-07
-2.50772e-07
-3.20993e-07
-4.1032e-07
-5.24295e-07
-6.70071e-07
-8.56893e-07
-1.09674e-06
-1.40516e-06
-1.80242e-06
-2.31489e-06
-2.97706e-06
-3.834e-06
-4.94463e-06
-6.38572e-06
-8.25682e-06
-1.06904e-05
-1.38592e-05
-1.799e-05
-2.33805e-05
-3.04223e-05
-3.96311e-05
-5.16873e-05
-6.74901e-05
-8.82352e-05
-0.000115574
-0.000151877
-0.000198364
-0.000240243
-0.000261543
-0.000236114
-0.000166551
0.000525554
-1.25972e-05
-0.000202251
-0.000230482
-2.61652e-05
0.000210883
0.000228266
0.000173887
0.000188444
9.95532e-05
0.000211771
0.00023474
8.78348e-05
0.000113594
-0.000160432
0.000100421
7.62047e-05
4.73471e-05
2.8948e-05
1.6828e-05
8.48554e-06
2.96069e-06
-7.34139e-07
-2.82375e-06
-4.02741e-06
-4.61769e-06
-4.78894e-06
-4.68966e-06
-4.42762e-06
-4.07701e-06
-3.68657e-06
-3.28703e-06
-2.897e-06
-2.52729e-06
-2.18531e-06
-1.8763e-06
-1.60201e-06
-1.36213e-06
-1.15466e-06
-9.76403e-07
-8.24201e-07
-6.9504e-07
-5.86041e-07
-4.94543e-07
-4.18131e-07
-3.5465e-07
-3.02169e-07
-2.58849e-07
-2.22836e-07
-1.94135e-07
-1.81973e-07
)
;
    }
}


// ************************************************************************* //
