/*--------------------------------*- C++ -*----------------------------------*\
| =========                 |                                                 |
| \\      /  F ield         | OpenFOAM: The Open Source CFD Toolbox           |
|  \\    /   O peration     | Version:  5.x                                   |
|   \\  /    A nd           | Web:      www.OpenFOAM.org                      |
|    \\/     M anipulation  |                                                 |
\*---------------------------------------------------------------------------*/
FoamFile
{
    version     2.0;
    format      ascii;
    class       surfaceScalarField;
    location    "0.06";
    object      phi;
}
// * * * * * * * * * * * * * * * * * * * * * * * * * * * * * * * * * * * * * //

dimensions      [0 3 -1 0 0 0 0];

internalField   nonuniform List<scalar> 
5825
(
-5.82522e-17
-1.88474e-16
-9.99998e-10
-1.25548e-16
-1.90747e-16
-9.99998e-10
-1.68459e-16
-1.83301e-16
-9.99999e-10
-2.11943e-16
-1.79121e-16
-9.99999e-10
-1.75777e-16
-9.99999e-10
-6.03288e-17
-1.50445e-16
-9.99999e-10
-1.19531e-16
-1.47545e-16
-9.99999e-10
-1.68534e-16
-1.42732e-16
-9.99999e-10
-2.10873e-16
-1.39515e-16
-9.99999e-10
-1.36001e-16
-1e-09
-5.68063e-17
-9.89034e-17
-9.99999e-10
-1.15047e-16
-9.64036e-17
-9.99999e-10
-1.66036e-16
-9.41854e-17
-9.99999e-10
-2.07836e-16
-9.20357e-17
-1e-09
-8.60447e-17
-1e-09
-5.38464e-17
-4.77439e-17
-9.99999e-10
-1.12825e-16
-4.62409e-17
-9.99999e-10
-1.63794e-16
-4.56869e-17
-9.99999e-10
-2.01836e-16
-4.50717e-17
-1e-09
-4.1698e-17
-1e-09
-5.20193e-17
-9.99999e-10
-1.11914e-16
-9.99999e-10
-1.6277e-16
-9.99999e-10
-1.97818e-16
-1e-09
-1e-09
-1.82686e-16
-5.12319e-16
-9.99998e-10
-3.53244e-16
-5.04648e-16
-9.99998e-10
-4.86501e-16
-4.85845e-16
-9.99999e-10
-6.38644e-16
-4.70848e-16
-9.99999e-10
-4.32744e-16
-1e-09
-1.7339e-16
-3.99153e-16
-9.99999e-10
-3.37443e-16
-3.86651e-16
-9.99999e-10
-4.80569e-16
-3.72232e-16
-9.99999e-10
-5.87607e-16
-3.58963e-16
-9.99999e-10
-3.42091e-16
-1e-09
-1.58977e-16
-2.62774e-16
-9.99999e-10
-3.23848e-16
-2.53879e-16
-9.99999e-10
-4.70397e-16
-2.48273e-16
-9.99999e-10
-5.71339e-16
-2.43082e-16
-1e-09
-2.28492e-16
-1e-09
-1.48864e-16
-1.27571e-16
-9.99999e-10
-3.1825e-16
-1.25651e-16
-9.99999e-10
-4.65251e-16
-1.2711e-16
-9.99999e-10
-5.59108e-16
-1.27321e-16
-1e-09
-1.16185e-16
-1e-09
-1.46309e-16
-9.99999e-10
-3.18897e-16
-9.99999e-10
-4.64345e-16
-1e-09
-5.47458e-16
-1e-09
-1e-09
-3.24458e-16
-8.36453e-16
-9.99998e-10
-6.11479e-16
-8.17966e-16
-9.99998e-10
-8.49293e-16
-7.94805e-16
-9.99999e-10
-1.00596e-15
-7.8209e-16
-9.99999e-10
-7.49774e-16
-9.99999e-10
-3.01958e-16
-6.60997e-16
-9.99999e-10
-5.874e-16
-6.42124e-16
-9.99999e-10
-8.29578e-16
-6.23088e-16
-9.99999e-10
-9.74436e-16
-6.10818e-16
-9.99999e-10
-5.97443e-16
-1e-09
-2.79741e-16
-4.44632e-16
-9.99999e-10
-5.70093e-16
-4.33478e-16
-9.99999e-10
-8.20523e-16
-4.30258e-16
-9.99999e-10
-9.71669e-16
-4.29494e-16
-1e-09
-4.15118e-16
-1e-09
-2.66713e-16
-2.23102e-16
-9.99999e-10
-5.66809e-16
-2.27155e-16
-9.99999e-10
-8.1915e-16
-2.34265e-16
-1e-09
-9.65368e-16
-2.35323e-16
-1e-09
-2.13226e-16
-1e-09
-2.69923e-16
-9.99999e-10
-5.7257e-16
-9.99999e-10
-8.18066e-16
-1e-09
-9.43539e-16
-1e-09
-1e-09
-4.82577e-16
-1.22008e-15
-9.99998e-10
-9.17917e-16
-1.19886e-15
-9.99998e-10
-1.24748e-15
-1.16888e-15
-9.99998e-10
-1.38572e-15
-1.15985e-15
-9.99999e-10
-1.18737e-15
-9.99999e-10
-4.56294e-16
-9.83106e-16
-9.99998e-10
-8.86975e-16
-9.64269e-16
-9.99999e-10
-1.23176e-15
-9.48929e-16
-9.99999e-10
-1.42076e-15
-9.50347e-16
-9.99999e-10
-9.54728e-16
-1e-09
-4.33099e-16
-6.78936e-16
-9.99999e-10
-8.74159e-16
-6.72884e-16
-9.99999e-10
-1.23734e-15
-6.77503e-16
-9.99999e-10
-1.45099e-15
-6.81725e-16
-1e-09
-6.63225e-16
-1e-09
-4.24453e-16
-3.52658e-16
-9.99999e-10
-8.78725e-16
-3.66598e-16
-9.99999e-10
-1.24079e-15
-3.76768e-16
-1e-09
-1.44187e-15
-3.72038e-16
-1e-09
-3.36817e-16
-1e-09
-4.37186e-16
-9.99999e-10
-8.86678e-16
-1e-09
-1.23252e-15
-1e-09
-1.40628e-15
-1e-09
-1e-09
-6.84175e-16
-1.74073e-15
-9.99997e-10
-1.28559e-15
-1.71789e-15
-9.99998e-10
-1.72977e-15
-1.69389e-15
-9.99998e-10
-1.94261e-15
-1.70602e-15
-9.99999e-10
-1.78962e-15
-1e-09
-6.53992e-16
-1.41665e-15
-9.99998e-10
-1.26009e-15
-1.4028e-15
-9.99998e-10
-1.74268e-15
-1.39996e-15
-9.99999e-10
-2.03158e-15
-1.41297e-15
-1e-09
-1.42021e-15
-1e-09
-6.35451e-16
-9.99935e-16
-9.99999e-10
-1.2599e-15
-1.00375e-15
-9.99999e-10
-1.75981e-15
-1.01562e-15
-9.99999e-10
-2.06e-15
-1.01493e-15
-1e-09
-9.77699e-16
-1e-09
-6.36287e-16
-5.31684e-16
-9.99999e-10
-1.27142e-15
-5.51906e-16
-9.99999e-10
-1.758e-15
-5.58741e-16
-1e-09
-2.03092e-15
-5.43433e-16
-1e-09
-5.0242e-16
-1e-09
-6.5536e-16
-9.99999e-10
-1.2748e-15
-1e-09
-1.73807e-15
-1e-09
-1.98833e-15
-1e-09
-1e-09
-9.35724e-16
-2.41646e-15
-9.99997e-10
-1.7327e-15
-2.3965e-15
-9.99997e-10
-2.3653e-15
-2.40485e-15
-9.99998e-10
-2.73521e-15
-2.45376e-15
-9.99999e-10
-2.53258e-15
-1e-09
-9.0745e-16
-1.99466e-15
-9.99998e-10
-1.73962e-15
-1.9918e-15
-9.99998e-10
-2.41842e-15
-2.00607e-15
-9.99999e-10
-2.83613e-15
-2.01857e-15
-1e-09
-2.00136e-15
-1e-09
-8.99686e-16
-1.43173e-15
-9.99998e-10
-1.75576e-15
-1.44563e-15
-9.99999e-10
-2.43333e-15
-1.45935e-15
-9.99999e-10
-2.84297e-15
-1.44823e-15
-1e-09
-1.40415e-15
-1e-09
-9.0978e-16
-7.67391e-16
-9.99999e-10
-1.76885e-15
-7.86512e-16
-9.99999e-10
-2.42077e-15
-7.86553e-16
-1e-09
-2.80548e-15
-7.68007e-16
-1e-09
-7.43764e-16
-1e-09
-9.26242e-16
-9.99999e-10
-1.76458e-15
-1e-09
-2.39674e-15
-1e-09
-2.77819e-15
-1e-09
-1e-09
-1.24495e-15
-3.29877e-15
-9.99996e-10
-2.33519e-15
-3.29805e-15
-9.99996e-10
-3.2601e-15
-3.34382e-15
-9.99997e-10
-3.84968e-15
-3.39371e-15
-9.99998e-10
-3.38227e-15
-1e-09
-1.23698e-15
-2.77198e-15
-9.99997e-10
-2.38145e-15
-2.78491e-15
-9.99997e-10
-3.32068e-15
-2.81112e-15
-9.99998e-10
-3.86973e-15
-2.81299e-15
-9.99999e-10
-2.78516e-15
-1e-09
-1.24279e-15
-2.00942e-15
-9.99998e-10
-2.40743e-15
-2.02953e-15
-9.99998e-10
-3.32286e-15
-2.04145e-15
-9.99999e-10
-3.86949e-15
-2.03005e-15
-1e-09
-2.01577e-15
-1e-09
-1.25734e-15
-1.07423e-15
-9.99999e-10
-2.41856e-15
-1.08716e-15
-9.99999e-10
-3.31039e-15
-1.0843e-15
-1e-09
-3.86221e-15
-1.0759e-15
-1e-09
-1.08179e-15
-1e-09
-1.26576e-15
-9.99999e-10
-2.40996e-15
-1e-09
-3.29459e-15
-1e-09
-3.86265e-15
-1e-09
-1e-09
-1.67229e-15
-4.53362e-15
-9.99994e-10
-3.21014e-15
-4.55979e-15
-9.99995e-10
-4.50717e-15
-4.60989e-15
-9.99996e-10
-5.30896e-15
-4.62046e-15
-9.99998e-10
-4.55142e-15
-1e-09
-1.68922e-15
-3.84453e-15
-9.99996e-10
-3.26308e-15
-3.8673e-15
-9.99996e-10
-4.53201e-15
-3.89224e-15
-9.99998e-10
-5.28433e-15
-3.88872e-15
-9.99999e-10
-3.88087e-15
-1e-09
-1.70152e-15
-2.79311e-15
-9.99997e-10
-3.28618e-15
-2.81252e-15
-9.99998e-10
-4.52832e-15
-2.82209e-15
-9.99999e-10
-5.28931e-15
-2.82391e-15
-1e-09
-2.8481e-15
-1e-09
-1.71348e-15
-1.48436e-15
-9.99998e-10
-3.29494e-15
-1.49196e-15
-9.99999e-10
-4.52973e-15
-1.49074e-15
-1e-09
-5.31819e-15
-1.49525e-15
-1e-09
-1.51569e-15
-1e-09
-1.71455e-15
-9.99999e-10
-3.28589e-15
-1e-09
-4.52365e-15
-1e-09
-5.32815e-15
-1e-09
-1e-09
-2.30809e-15
-6.28475e-15
-9.99992e-10
-4.44794e-15
-6.31604e-15
-9.99993e-10
-6.17679e-15
-6.33805e-15
-9.99995e-10
-7.23272e-15
-6.31934e-15
-9.99997e-10
-6.26632e-15
-1e-09
-2.32593e-15
-5.32855e-15
-9.99994e-10
-4.47291e-15
-5.34685e-15
-9.99995e-10
-6.1735e-15
-5.35968e-15
-9.99997e-10
-7.2544e-15
-5.36512e-15
-9.99999e-10
-5.37192e-15
-1e-09
-2.33058e-15
-3.86762e-15
-9.99997e-10
-4.48406e-15
-3.88036e-15
-9.99997e-10
-6.17793e-15
-3.88556e-15
-9.99999e-10
-7.273e-15
-3.89812e-15
-1e-09
-3.92273e-15
-1e-09
-2.33375e-15
-2.04739e-15
-9.99998e-10
-4.48807e-15
-2.05306e-15
-9.99999e-10
-6.18992e-15
-2.05246e-15
-1e-09
-7.2998e-15
-2.05942e-15
-1e-09
-2.0672e-15
-1.00001e-09
-2.33055e-15
-9.99999e-10
-4.47654e-15
-1e-09
-6.18165e-15
-1e-09
-7.29046e-15
-1e-09
-1.00001e-09
-3.2069e-15
-8.69579e-15
-9.99989e-10
-6.11769e-15
-8.70831e-15
-9.9999e-10
-8.39753e-15
-8.69774e-15
-9.99993e-10
-9.84356e-15
-8.6883e-15
-9.99996e-10
-8.68489e-15
-9.99999e-10
-3.19974e-15
-7.3693e-15
-9.99993e-10
-6.10938e-15
-7.37766e-15
-9.99994e-10
-8.40019e-15
-7.37452e-15
-9.99996e-10
-9.92088e-15
-7.38743e-15
-9.99999e-10
-7.39301e-15
-1e-09
-3.19058e-15
-5.35058e-15
-9.99995e-10
-6.10521e-15
-5.35563e-15
-9.99997e-10
-8.4112e-15
-5.35066e-15
-9.99999e-10
-9.93709e-15
-5.35775e-15
-1e-09
-5.35503e-15
-1.00001e-09
-3.18272e-15
-2.8279e-15
-9.99998e-10
-6.09863e-15
-2.83373e-15
-9.99999e-10
-8.41693e-15
-2.8297e-15
-1e-09
-9.937e-15
-2.82922e-15
-1e-09
-2.81908e-15
-1.00001e-09
-3.17535e-15
-9.99999e-10
-6.07944e-15
-1e-09
-8.39556e-15
-1e-09
-9.90352e-15
-1.00001e-09
-1.00001e-09
-4.39796e-15
-1.19855e-14
-9.99985e-10
-8.33547e-15
-1.1983e-14
-9.99987e-10
-1.14061e-14
-1.19487e-14
-9.9999e-10
-1.33748e-14
-1.19456e-14
-9.99994e-10
-1.19567e-14
-9.99999e-10
-4.36817e-15
-1.01795e-14
-9.9999e-10
-8.30325e-15
-1.01855e-14
-9.99992e-10
-1.14103e-14
-1.01658e-14
-9.99995e-10
-1.34624e-14
-1.01674e-14
-9.99999e-10
-1.01487e-14
-1e-09
-4.35007e-15
-7.40022e-15
-9.99994e-10
-8.28245e-15
-7.4008e-15
-9.99996e-10
-1.1409e-14
-7.38263e-15
-9.99999e-10
-1.3458e-14
-7.37354e-15
-1e-09
-7.35074e-15
-1.00001e-09
-4.33265e-15
-3.90551e-15
-9.99997e-10
-8.26233e-15
-3.91163e-15
-9.99998e-10
-1.13979e-14
-3.90453e-15
-1e-09
-1.34382e-14
-3.89771e-15
-1.00001e-09
-3.88561e-15
-1.00001e-09
-4.31971e-15
-9.99998e-10
-8.23473e-15
-1e-09
-1.13635e-14
-1e-09
-1.33952e-14
-1.00001e-09
-1.00001e-09
-5.96495e-15
-1.65035e-14
-9.9998e-10
-1.1308e-14
-1.65064e-14
-9.99982e-10
-1.55194e-14
-1.64572e-14
-9.99987e-10
-1.82445e-14
-1.64237e-14
-9.99992e-10
-1.63658e-14
-9.99999e-10
-5.93038e-15
-1.4041e-14
-9.99987e-10
-1.12614e-14
-1.40529e-14
-9.99989e-10
-1.54969e-14
-1.40175e-14
-9.99993e-10
-1.82651e-14
-1.39872e-14
-9.99999e-10
-1.39256e-14
-1.00001e-09
-5.90842e-15
-1.02113e-14
-9.99992e-10
-1.12237e-14
-1.02131e-14
-9.99994e-10
-1.54628e-14
-1.01844e-14
-9.99998e-10
-1.82104e-14
-1.01573e-14
-1e-09
-1.01225e-14
-1.00001e-09
-5.88551e-15
-5.37841e-15
-9.99996e-10
-1.1193e-14
-5.38586e-15
-9.99998e-10
-1.5434e-14
-5.37851e-15
-1e-09
-1.81765e-14
-5.36967e-15
-1.00001e-09
-5.36174e-15
-1.00001e-09
-5.86656e-15
-9.99998e-10
-1.11581e-14
-1e-09
-1.53887e-14
-1e-09
-1.81264e-14
-1.00001e-09
-1.00002e-09
-8.07774e-15
-2.26731e-14
-9.99973e-10
-1.53504e-14
-2.26941e-14
-9.99976e-10
-2.11478e-14
-2.26362e-14
-9.99982e-10
-2.49078e-14
-2.25474e-14
-9.9999e-10
-2.23887e-14
-9.99999e-10
-8.04707e-15
-1.92946e-14
-9.99982e-10
-1.52956e-14
-1.93147e-14
-9.99985e-10
-2.1074e-14
-1.92622e-14
-9.99991e-10
-2.48307e-14
-1.91877e-14
-9.99998e-10
-1.90733e-14
-1.00001e-09
-8.0207e-15
-1.40263e-14
-9.99989e-10
-1.52397e-14
-1.40343e-14
-9.99992e-10
-2.09957e-14
-1.39944e-14
-9.99998e-10
-2.47162e-14
-1.39452e-14
-1.00001e-09
-1.38902e-14
-1.00001e-09
-7.99554e-15
-7.37672e-15
-9.99995e-10
-1.51974e-14
-7.38551e-15
-9.99998e-10
-2.09449e-14
-7.37328e-15
-1e-09
-2.46596e-14
-7.35845e-15
-1.00001e-09
-7.34163e-15
-1.00002e-09
-7.96876e-15
-9.99997e-10
-1.51483e-14
-1e-09
-2.08811e-14
-1.00001e-09
-2.45852e-14
-1.00001e-09
-1.00002e-09
-1.09768e-14
-3.10153e-14
-9.99964e-10
-2.08957e-14
-3.10493e-14
-9.99968e-10
-2.88198e-14
-3.0965e-14
-9.99976e-10
-3.39272e-14
-3.08024e-14
-9.99987e-10
-3.05487e-14
-9.99999e-10
-1.09397e-14
-2.63927e-14
-9.99976e-10
-2.0812e-14
-2.64178e-14
-9.9998e-10
-2.8668e-14
-2.63374e-14
-9.99987e-10
-3.37353e-14
-2.62119e-14
-9.99998e-10
-2.60558e-14
-1.00001e-09
-1.09028e-14
-1.91793e-14
-9.99986e-10
-2.07282e-14
-1.91929e-14
-9.9999e-10
-2.85395e-14
-1.91327e-14
-9.99997e-10
-3.35763e-14
-1.90531e-14
-1.00001e-09
-1.89673e-14
-1.00002e-09
-1.0872e-14
-1.0081e-14
-9.99993e-10
-2.06645e-14
-1.0086e-14
-9.99997e-10
-2.84578e-14
-1.00589e-14
-1e-09
-3.34881e-14
-1.00285e-14
-1.00001e-09
-9.98732e-15
-1.00003e-09
-1.08295e-14
-9.99997e-10
-2.05877e-14
-1e-09
-2.83605e-14
-1.00001e-09
-3.33682e-14
-1.00002e-09
-1.00003e-09
-1.4954e-14
-4.22989e-14
-9.99951e-10
-2.84698e-14
-4.23293e-14
-9.99957e-10
-3.9223e-14
-4.21785e-14
-9.99968e-10
-4.60911e-14
-4.19234e-14
-9.99982e-10
-4.1633e-14
-9.99999e-10
-1.4888e-14
-3.59958e-14
-9.99967e-10
-2.83174e-14
-3.60187e-14
-9.99973e-10
-3.89712e-14
-3.58941e-14
-9.99983e-10
-4.58237e-14
-3.57115e-14
-9.99997e-10
-3.54979e-14
-1.00001e-09
-1.48285e-14
-2.61546e-14
-9.99981e-10
-2.81895e-14
-2.61676e-14
-9.99986e-10
-3.87864e-14
-2.60762e-14
-9.99996e-10
-4.56086e-14
-2.59548e-14
-1.00001e-09
-2.58098e-14
-1.00003e-09
-1.47811e-14
-1.37464e-14
-9.9999e-10
-2.80934e-14
-1.3744e-14
-9.99996e-10
-3.86616e-14
-1.36965e-14
-1.00001e-09
-4.54599e-14
-1.36399e-14
-1.00002e-09
-1.35623e-14
-1.00004e-09
-1.4714e-14
-9.99995e-10
-2.79784e-14
-1e-09
-3.85136e-14
-1.00001e-09
-4.52749e-14
-1.00003e-09
-1.00004e-09
-2.03662e-14
-5.7656e-14
-9.99934e-10
-3.87434e-14
-5.76725e-14
-9.99942e-10
-5.33146e-14
-5.74328e-14
-9.99956e-10
-6.26538e-14
-5.70787e-14
-9.99975e-10
-5.67124e-14
-9.99998e-10
-2.02529e-14
-4.90571e-14
-9.99955e-10
-3.85014e-14
-4.90716e-14
-9.99963e-10
-5.29661e-14
-4.88846e-14
-9.99977e-10
-6.23062e-14
-4.86212e-14
-9.99997e-10
-4.82896e-14
-1.00002e-09
-2.01559e-14
-3.56439e-14
-9.99974e-10
-3.83095e-14
-3.56512e-14
-9.99981e-10
-5.27008e-14
-3.55169e-14
-9.99995e-10
-6.19706e-14
-3.53295e-14
-1.00001e-09
-3.5083e-14
-1.00004e-09
-2.00809e-14
-1.87362e-14
-9.99987e-10
-3.81689e-14
-1.873e-14
-9.99994e-10
-5.25092e-14
-1.86578e-14
-1.00001e-09
-6.17172e-14
-1.85642e-14
-1.00003e-09
-1.84436e-14
-1.00005e-09
-1.99859e-14
-9.99994e-10
-3.80049e-14
-1e-09
-5.22908e-14
-1.00002e-09
-6.14498e-14
-1.00003e-09
-1.00006e-09
-2.7711e-14
-7.86429e-14
-9.9991e-10
-5.26866e-14
-7.86378e-14
-9.99921e-10
-7.24897e-14
-7.82837e-14
-9.9994e-10
-8.52688e-14
-7.77871e-14
-9.99967e-10
-7.72144e-14
-9.99998e-10
-2.75302e-14
-6.68933e-14
-9.9994e-10
-5.23292e-14
-6.68944e-14
-9.9995e-10
-7.20009e-14
-6.66139e-14
-9.99969e-10
-8.47176e-14
-6.62148e-14
-9.99995e-10
-6.56981e-14
-1.00003e-09
-2.73794e-14
-4.86017e-14
-9.99965e-10
-5.20412e-14
-4.86011e-14
-9.99975e-10
-7.16004e-14
-4.84003e-14
-9.99994e-10
-8.41954e-14
-4.8111e-14
-1.00002e-09
-4.77376e-14
-1.00005e-09
-2.72668e-14
-2.55522e-14
-9.99983e-10
-5.18318e-14
-2.55443e-14
-9.99993e-10
-7.13057e-14
-2.54372e-14
-1.00001e-09
-8.38114e-14
-2.52924e-14
-1.00004e-09
-2.51189e-14
-1.00007e-09
-2.71376e-14
-9.99993e-10
-5.15994e-14
-1e-09
-7.09911e-14
-1.00002e-09
-8.34377e-14
-1.00005e-09
-1.00008e-09
-3.76808e-14
-1.07341e-13
-9.99878e-10
-7.16333e-14
-1.073e-13
-9.99892e-10
-9.85909e-14
-1.06775e-13
-9.99918e-10
-1.16e-13
-1.06038e-13
-9.99955e-10
-1.05151e-13
-9.99997e-10
-3.73998e-14
-9.12761e-14
-9.99918e-10
-7.11022e-14
-9.12549e-14
-9.99932e-10
-9.78613e-14
-9.0829e-14
-9.99958e-10
-1.15127e-13
-9.0218e-14
-9.99994e-10
-8.9452e-14
-1.00004e-09
-3.71724e-14
-6.63101e-14
-9.99952e-10
-7.06667e-14
-6.62929e-14
-9.99966e-10
-9.72495e-14
-6.59873e-14
-9.99992e-10
-1.14355e-13
-6.55484e-14
-1.00003e-09
-6.5005e-14
-1.00007e-09
-3.7003e-14
-3.48615e-14
-9.99977e-10
-7.03489e-14
-3.48459e-14
-9.99991e-10
-9.68024e-14
-3.46852e-14
-1.00002e-09
-1.13797e-13
-3.44595e-14
-1.00005e-09
-3.4192e-14
-1.00009e-09
-3.68225e-14
-9.99991e-10
-7.00175e-14
-1e-09
-9.63459e-14
-1.00003e-09
-1.13258e-13
-1.00006e-09
-1.00011e-09
-5.12055e-14
-1.46561e-13
-9.99835e-10
-9.73608e-14
-1.4647e-13
-9.99854e-10
-1.34044e-13
-1.45698e-13
-9.99889e-10
-1.577e-13
-1.44607e-13
-9.99939e-10
-1.43305e-13
-9.99996e-10
-5.07874e-14
-1.24589e-13
-9.99889e-10
-9.65779e-14
-1.24521e-13
-9.99908e-10
-1.32961e-13
-1.2387e-13
-9.99944e-10
-1.56408e-13
-1.22943e-13
-9.99992e-10
-1.21815e-13
-1.00005e-09
-5.04394e-14
-9.04856e-14
-9.99936e-10
-9.59155e-14
-9.04311e-14
-9.99955e-10
-1.32032e-13
-8.99626e-14
-9.9999e-10
-1.55272e-13
-8.92903e-14
-1.00004e-09
-8.84727e-14
-1.00009e-09
-5.01782e-14
-4.756e-14
-9.9997e-10
-9.54296e-14
-4.75265e-14
-9.99988e-10
-1.31348e-13
-4.72765e-14
-1.00002e-09
-1.54437e-13
-4.69183e-14
-1.00007e-09
-4.64905e-14
-1.00013e-09
-4.99211e-14
-9.99988e-10
-9.49476e-14
-1.00001e-09
-1.30675e-13
-1.00004e-09
-1.5364e-13
-1.00009e-09
-1.00014e-09
-6.95856e-14
-2.00142e-13
-9.99776e-10
-1.32336e-13
-1.99955e-13
-9.99802e-10
-1.82218e-13
-1.98791e-13
-9.9985e-10
-2.14365e-13
-1.9716e-13
-9.99917e-10
-1.95197e-13
-9.99996e-10
-6.89528e-14
-1.70074e-13
-9.99851e-10
-1.31156e-13
-1.69906e-13
-9.99876e-10
-1.80593e-13
-1.68902e-13
-9.99924e-10
-2.1241e-13
-1.67485e-13
-9.9999e-10
-1.65813e-13
-1.00007e-09
-6.84066e-14
-1.23472e-13
-9.99914e-10
-1.30136e-13
-1.23348e-13
-9.9994e-10
-1.79174e-13
-1.22618e-13
-9.99987e-10
-2.10729e-13
-1.21578e-13
-1.00005e-09
-1.20349e-13
-1.00013e-09
-6.80027e-14
-6.48856e-14
-9.9996e-10
-1.29382e-13
-6.4818e-14
-9.99986e-10
-1.78117e-13
-6.44223e-14
-1.00003e-09
-2.09479e-13
-6.38684e-14
-1.0001e-09
-6.32257e-14
-1.00017e-09
-6.76318e-14
-9.99985e-10
-1.2867e-13
-1.00001e-09
-1.77136e-13
-1.00006e-09
-2.08333e-13
-1.00012e-09
-1.0002e-09
-9.45891e-14
-2.73355e-13
-9.99696e-10
-1.79908e-13
-2.72965e-13
-9.99731e-10
-2.47709e-13
-2.7115e-13
-9.99797e-10
-2.9133e-13
-2.68647e-13
-9.99888e-10
-2.65705e-13
-9.99995e-10
-9.35948e-14
-2.32187e-13
-9.99798e-10
-1.7807e-13
-2.31847e-13
-9.99833e-10
-2.45209e-13
-2.30288e-13
-9.99898e-10
-2.88399e-13
-2.28115e-13
-9.99987e-10
-2.25611e-13
-1.00009e-09
-9.27423e-14
-1.6851e-13
-9.99885e-10
-1.76487e-13
-1.68265e-13
-9.9992e-10
-2.43033e-13
-1.67121e-13
-9.99984e-10
-2.85886e-13
-1.65527e-13
-1.00007e-09
-1.637e-13
-1.00018e-09
-9.2118e-14
-8.85488e-14
-9.99948e-10
-1.7531e-13
-8.84183e-14
-9.99982e-10
-2.41416e-13
-8.78035e-14
-1.00005e-09
-2.8403e-13
-8.69738e-14
-1.00013e-09
-8.6039e-14
-1.00024e-09
-9.15757e-14
-9.99982e-10
-1.74266e-13
-1.00002e-09
-2.40004e-13
-1.00008e-09
-2.8241e-13
-1.00017e-09
-1.00027e-09
-1.28559e-13
-3.73476e-13
-9.99587e-10
-2.44531e-13
-3.72744e-13
-9.99635e-10
-3.36697e-13
-3.69912e-13
-9.99725e-10
-3.95995e-13
-3.66054e-13
-9.99848e-10
-3.61656e-13
-9.99994e-10
-1.27008e-13
-3.17083e-13
-9.99728e-10
-2.41666e-13
-3.1646e-13
-9.99775e-10
-3.32839e-13
-3.14036e-13
-9.99863e-10
-3.91608e-13
-3.10702e-13
-9.99984e-10
-3.06872e-13
-1.00013e-09
-1.2569e-13
-2.30057e-13
-9.99847e-10
-2.39209e-13
-2.29599e-13
-9.99893e-10
-3.295e-13
-2.27815e-13
-9.9998e-10
-3.87771e-13
-2.25378e-13
-1.0001e-09
-2.22596e-13
-1.00024e-09
-1.24717e-13
-1.20882e-13
-9.99933e-10
-2.3738e-13
-1.20638e-13
-9.99979e-10
-3.2703e-13
-1.19696e-13
-1.00006e-09
-3.84949e-13
-1.18443e-13
-1.00018e-09
-1.17001e-13
-1.00032e-09
-1.23914e-13
-9.99979e-10
-2.35854e-13
-1.00002e-09
-3.24985e-13
-1.00011e-09
-3.82573e-13
-1.00023e-09
-1.00036e-09
-1.74685e-13
-5.10506e-13
-9.99441e-10
-3.32247e-13
-5.09209e-13
-9.99506e-10
-4.57587e-13
-5.04822e-13
-9.99627e-10
-5.38486e-13
-4.9887e-13
-9.99795e-10
-4.92039e-13
-9.99992e-10
-1.7228e-13
-4.33193e-13
-9.99633e-10
-3.27814e-13
-4.32083e-13
-9.99697e-10
-4.51629e-13
-4.28308e-13
-9.99816e-10
-5.3166e-13
-4.23163e-13
-9.9998e-10
-4.17223e-13
-1.00017e-09
-1.70228e-13
-3.14188e-13
-9.99796e-10
-3.23996e-13
-3.13357e-13
-9.99858e-10
-4.46477e-13
-3.10579e-13
-9.99975e-10
-5.25711e-13
-3.06813e-13
-1.00014e-09
-3.02445e-13
-1.00033e-09
-1.687e-13
-1.65053e-13
-9.99914e-10
-3.21156e-13
-1.64609e-13
-9.99975e-10
-4.42665e-13
-1.63163e-13
-1.00009e-09
-5.21287e-13
-1.61198e-13
-1.00025e-09
-1.58867e-13
-1.00044e-09
-1.67495e-13
-9.99977e-10
-3.18912e-13
-1.00004e-09
-4.39619e-13
-1.00015e-09
-5.1768e-13
-1.00031e-09
-1.0005e-09
-2.37258e-13
-6.98106e-13
-9.99242e-10
-4.51269e-13
-6.95878e-13
-9.9933e-10
-6.21739e-13
-6.89094e-13
-9.99495e-10
-7.32056e-13
-6.799e-13
-9.99723e-10
-6.69276e-13
-9.99991e-10
-2.33529e-13
-5.92039e-13
-9.99506e-10
-4.44423e-13
-5.90096e-13
-9.99592e-10
-6.12533e-13
-5.84204e-13
-9.99753e-10
-7.21428e-13
-5.76226e-13
-9.99975e-10
-5.66989e-13
-1.00024e-09
-2.30311e-13
-4.29208e-13
-9.99728e-10
-4.38475e-13
-4.27743e-13
-9.99812e-10
-6.04543e-13
-4.23401e-13
-9.9997e-10
-7.12178e-13
-4.17502e-13
-1.00019e-09
-4.10618e-13
-1.00044e-09
-2.27903e-13
-2.25408e-13
-9.9989e-10
-4.3405e-13
-2.24628e-13
-9.99972e-10
-5.9858e-13
-2.22362e-13
-1.00013e-09
-7.05213e-13
-2.19232e-13
-1.00034e-09
-2.15562e-13
-1.00059e-09
-2.26089e-13
-9.99976e-10
-4.30696e-13
-1.00006e-09
-5.93973e-13
-1.00021e-09
-6.99799e-13
-1.00042e-09
-1.00067e-09
-3.22058e-13
-9.55119e-13
-9.98974e-10
-6.12762e-13
-9.51366e-13
-9.99093e-10
-8.44595e-13
-9.40835e-13
-9.99317e-10
-9.94931e-13
-9.26617e-13
-9.99626e-10
-9.10255e-13
-9.99991e-10
-3.16281e-13
-8.09448e-13
-9.99335e-10
-6.02152e-13
-8.06095e-13
-9.99451e-10
-8.30365e-13
-7.96863e-13
-9.99668e-10
-9.78545e-13
-7.84403e-13
-9.99969e-10
-7.70016e-13
-1.00032e-09
-3.11211e-13
-5.86539e-13
-9.9964e-10
-5.92844e-13
-5.84004e-13
-9.99753e-10
-8.17886e-13
-5.7715e-13
-9.99965e-10
-9.6413e-13
-5.67838e-13
-1.00026e-09
-5.57098e-13
-1.00061e-09
-3.07404e-13
-3.07958e-13
-9.99861e-10
-5.85876e-13
-3.06611e-13
-9.99971e-10
-8.08477e-13
-3.02985e-13
-1.00018e-09
-9.53271e-13
-2.98044e-13
-1.00047e-09
-2.92376e-13
-1.00081e-09
-3.04657e-13
-9.9998e-10
-5.80766e-13
-1.00009e-09
-8.01515e-13
-1.00029e-09
-9.45217e-13
-1.00058e-09
-1.00091e-09
-4.37007e-13
-1.30758e-12
-9.98612e-10
-8.31875e-13
-1.30122e-12
-9.98774e-10
-1.14725e-12
-1.28472e-12
-9.99077e-10
-1.35243e-12
-1.26257e-12
-9.99496e-10
-1.23718e-12
-9.99992e-10
-4.27935e-13
-1.10718e-12
-9.99108e-10
-8.15285e-13
-1.10143e-12
-9.99264e-10
-1.1251e-12
-1.08683e-12
-9.99557e-10
-1.32698e-12
-1.06718e-12
-9.99963e-10
-1.04469e-12
-1.00044e-09
-4.19885e-13
-8.01938e-13
-9.99525e-10
-8.00579e-13
-7.97559e-13
-9.99676e-10
-1.10542e-12
-7.86599e-13
-9.9996e-10
-1.30442e-12
-7.71814e-13
-1.00035e-09
-7.54948e-13
-1.00082e-09
-4.13799e-13
-4.21032e-13
-9.99828e-10
-7.89454e-13
-4.18675e-13
-9.99975e-10
-1.09049e-12
-4.12841e-13
-1.00025e-09
-1.28736e-12
-4.04966e-13
-1.00064e-09
-3.96001e-13
-1.00109e-09
-4.09551e-13
-9.99991e-10
-7.8159e-13
-1.00014e-09
-1.07985e-12
-1.00041e-09
-1.27512e-12
-1.00079e-09
-1.00124e-09
-5.92704e-13
-1.79133e-12
-9.98124e-10
-1.12897e-12
-1.78045e-12
-9.98343e-10
-1.55815e-12
-1.75434e-12
-9.98753e-10
-1.83837e-12
-1.71959e-12
-9.99322e-10
-1.68026e-12
-9.99997e-10
-5.78213e-13
-1.51518e-12
-9.98806e-10
-1.10276e-12
-1.5053e-12
-9.99014e-10
-1.52341e-12
-1.48196e-12
-9.99408e-10
-1.79892e-12
-1.45072e-12
-9.99957e-10
-1.41536e-12
-1.00061e-09
-5.65272e-13
-1.09721e-12
-9.99378e-10
-1.07927e-12
-1.08954e-12
-9.99578e-10
-1.49212e-12
-1.07186e-12
-9.99957e-10
-1.7634e-12
-1.0481e-12
-1.00049e-09
-1.02118e-12
-1.00112e-09
-5.55328e-13
-5.76219e-13
-9.99794e-10
-1.06133e-12
-5.72038e-13
-9.99986e-10
-1.46815e-12
-5.626e-13
-1.00035e-09
-1.73615e-12
-5.49825e-13
-1.00087e-09
-5.35344e-13
-1.00148e-09
-5.48608e-13
-1.00002e-09
-1.0491e-12
-1.00021e-09
-1.4516e-12
-1.00057e-09
-1.71715e-12
-1.00107e-09
-1.00168e-09
-8.03198e-13
-2.45606e-12
-9.97468e-10
-1.53151e-12
-2.43726e-12
-9.97763e-10
-2.11586e-12
-2.39547e-12
-9.98319e-10
-2.49918e-12
-2.34055e-12
-9.99092e-10
-2.27956e-12
-1.00001e-09
-7.79627e-13
-2.07468e-12
-9.98407e-10
-1.48956e-12
-2.05747e-12
-9.98684e-10
-2.06092e-12
-2.01988e-12
-9.99213e-10
-2.43793e-12
-1.96973e-12
-9.99951e-10
-1.91371e-12
-1.00083e-09
-7.5845e-13
-1.5028e-12
-9.99192e-10
-1.45175e-12
-1.48903e-12
-9.99453e-10
-2.01074e-12
-1.46034e-12
-9.99958e-10
-2.3816e-12
-1.42158e-12
-1.00066e-09
-1.37816e-12
-1.00151e-09
-7.41721e-13
-7.89965e-13
-9.99765e-10
-1.42257e-12
-7.82401e-13
-1.00001e-09
-1.97166e-12
-7.67134e-13
-1.0005e-09
-2.3376e-12
-7.46143e-13
-1.00118e-09
-7.22623e-13
-1.002e-09
-7.30796e-13
-1.00008e-09
-1.40342e-12
-1.00032e-09
-1.94552e-12
-1.00079e-09
-2.3078e-12
-1.00146e-09
-1.00226e-09
-1.08727e-12
-3.37163e-12
-9.96585e-10
-2.07689e-12
-3.33822e-12
-9.96981e-10
-2.87323e-12
-3.27027e-12
-9.97735e-10
-3.39964e-12
-3.18224e-12
-9.98786e-10
-3.08642e-12
-1.00004e-09
-1.04763e-12
-2.84212e-12
-9.97889e-10
-2.00845e-12
-2.81158e-12
-9.9825e-10
-2.78499e-12
-2.751e-12
-9.98955e-10
-3.30322e-12
-2.66941e-12
-9.99945e-10
-2.57987e-12
-1.00114e-09
-1.01231e-12
-2.06209e-12
-9.98959e-10
-1.94745e-12
-2.03623e-12
-9.99294e-10
-2.70357e-12
-1.98968e-12
-9.99963e-10
-3.2132e-12
-1.92513e-12
-1.0009e-09
-1.85443e-12
-1.00204e-09
-9.8274e-13
-1.08642e-12
-9.99758e-10
-1.89967e-12
-1.07205e-12
-1.00006e-09
-2.63868e-12
-1.04792e-12
-1.0007e-09
-3.14136e-12
-1.01271e-12
-1.00159e-09
-9.74295e-13
-1.00268e-09
-9.64111e-13
-1.0002e-09
-1.86987e-12
-1.00048e-09
-2.59658e-12
-1.00112e-09
-3.09411e-12
-1.00197e-09
-1.00303e-09
-1.46999e-12
-4.63945e-12
-9.95385e-10
-2.81687e-12
-4.57702e-12
-9.95916e-10
-3.90317e-12
-4.46389e-12
-9.96947e-10
-4.62964e-12
-4.31925e-12
-9.98382e-10
-4.16558e-12
-1.00011e-09
-1.39911e-12
-3.89296e-12
-9.97236e-10
-2.70144e-12
-3.8377e-12
-9.97687e-10
-3.75733e-12
-3.74179e-12
-9.98621e-10
-4.47459e-12
-3.60686e-12
-9.9994e-10
-3.46214e-12
-1.00155e-09
-1.33935e-12
-2.8397e-12
-9.98673e-10
-2.60439e-12
-2.7863e-12
-9.9908e-10
-3.62378e-12
-2.71264e-12
-9.99973e-10
-4.32943e-12
-2.6013e-12
-1.0012e-09
-2.48473e-12
-1.00271e-09
-1.28121e-12
-1.5028e-12
-9.99814e-10
-2.52629e-12
-1.4728e-12
-1.00013e-09
-3.51254e-12
-1.43805e-12
-1.00099e-09
-4.21031e-12
-1.37705e-12
-1.00211e-09
-1.31451e-12
-1.00354e-09
-1.24649e-12
-1.00046e-09
-2.48214e-12
-1.00072e-09
-3.44304e-12
-1.00159e-09
-4.13501e-12
-1.00266e-09
-1.00405e-09
-1.98645e-12
-6.42031e-12
-9.93684e-10
-3.82796e-12
-6.29355e-12
-9.94414e-10
-5.31029e-12
-6.09713e-12
-9.95861e-10
-6.31782e-12
-5.84849e-12
-9.9785e-10
-5.58884e-12
-1.00023e-09
-1.84402e-12
-5.31734e-12
-9.96495e-10
-3.61952e-12
-5.21679e-12
-9.96988e-10
-5.0551e-12
-5.07653e-12
-9.98206e-10
-6.05524e-12
-4.84909e-12
-9.99939e-10
-4.61163e-12
-1.00205e-09
-1.74353e-12
-3.94231e-12
-9.98305e-10
-3.47472e-12
-3.81194e-12
-9.98753e-10
-4.83469e-12
-3.70773e-12
-9.99982e-10
-5.81916e-12
-3.50241e-12
-1.00156e-09
-3.30866e-12
-1.00351e-09
-1.6137e-12
-2.10108e-12
-1.00004e-09
-3.34963e-12
-2.02794e-12
-1.00018e-09
-4.63211e-12
-1.99549e-12
-1.00142e-09
-5.61851e-12
-1.88258e-12
-1.00275e-09
-1.78418e-12
-1.00457e-09
-1.5497e-12
-1.00101e-09
-3.29427e-12
-1.001e-09
-4.51083e-12
-1.00237e-09
-5.501e-12
-1.00355e-09
-1.00534e-09
-2.70002e-12
-9.01131e-12
-9.90977e-10
-5.24333e-12
-8.72211e-12
-9.9208e-10
-7.26002e-12
-8.358e-12
-9.94262e-10
-8.65038e-12
-7.89796e-12
-9.97154e-10
-7.40563e-12
-1.0004e-09
-2.35161e-12
-7.17354e-12
-9.95982e-10
-4.81252e-12
-6.99382e-12
-9.96255e-10
-6.76412e-12
-6.84749e-12
-9.97765e-10
-8.14959e-12
-6.46117e-12
-9.9999e-10
-6.06354e-12
-1.00248e-09
-2.22214e-12
-5.57724e-12
-9.97679e-10
-4.64323e-12
-5.19862e-12
-9.98128e-10
-6.40624e-12
-5.11105e-12
-9.99955e-10
-7.76162e-12
-4.67976e-12
-1.00199e-09
-4.36295e-12
-1.00418e-09
-1.91535e-12
-2.98707e-12
-1.00072e-09
-4.43939e-12
-2.79056e-12
-1.00006e-09
-5.98513e-12
-2.84054e-12
-1.00214e-09
-7.42493e-12
-2.59865e-12
-1.00339e-09
-2.46222e-12
-1.00549e-09
-1.81307e-12
-1.00218e-09
-4.39749e-12
-1.00121e-09
-5.76322e-12
-1.00385e-09
-7.26165e-12
-1.00465e-09
-1.00685e-09
-3.78142e-12
-1.29873e-11
-9.85961e-10
-7.36751e-12
-1.22981e-11
-9.87894e-10
-1.0083e-11
-1.15855e-11
-9.91547e-10
-1.18713e-11
-1.06645e-11
-9.96326e-10
-9.52142e-12
-1.00051e-09
-2.77498e-12
-9.49058e-12
-9.96703e-10
-6.26778e-12
-9.09278e-12
-9.95968e-10
-8.9511e-12
-9.11678e-12
-9.97551e-10
-1.07557e-11
-8.47082e-12
-1.00038e-09
-7.77482e-12
-1.00211e-09
-2.83328e-12
-8.17368e-12
-9.96162e-10
-6.27456e-12
-7.04505e-12
-9.96734e-10
-8.4433e-12
-7.22841e-12
-9.99675e-10
-1.01748e-11
-6.10083e-12
-1.00262e-09
-5.68399e-12
-1.00385e-09
-2.01702e-12
-4.31264e-12
-1.00256e-09
-5.84934e-12
-3.81837e-12
-9.99455e-10
-7.4745e-12
-4.24931e-12
-1.0035e-09
-9.58996e-12
-3.62628e-12
-1.00375e-09
-3.52692e-12
-1.00547e-09
-1.90622e-12
-1.00459e-09
-5.9147e-12
-1.00102e-09
-7.15085e-12
-1.00686e-09
-9.44308e-12
-1.00598e-09
-1.00833e-09
-5.66667e-12
-1.9083e-11
-9.76229e-10
-1.09172e-11
-1.76834e-11
-9.80019e-10
-1.46517e-11
-1.63484e-11
-9.86225e-10
-1.64436e-11
-1.45358e-11
-9.95777e-10
-1.13935e-11
-1.00014e-09
-2.72401e-12
-1.25293e-11
-1.00053e-09
-7.71026e-12
-1.1456e-11
-9.97209e-10
-1.15642e-11
-1.20095e-11
-9.98036e-10
-1.38584e-11
-1.08012e-11
-1.00182e-09
-9.52251e-12
-9.99119e-10
-3.80249e-12
-1.24571e-11
-9.92432e-10
-8.69464e-12
-9.38746e-12
-9.93911e-10
-1.13655e-11
-1.07797e-11
-9.98234e-10
-1.33844e-11
-7.4991e-12
-1.00391e-09
-7.44669e-12
-1.00057e-09
-1.45183e-12
-6.36129e-12
-1.0072e-09
-7.50946e-12
-5.13683e-12
-9.97648e-10
-8.90702e-12
-6.82509e-12
-1.00606e-09
-1.20427e-11
-5.14647e-12
-1.00296e-09
-5.45682e-12
-1.00265e-09
-1.57079e-12
-1.00938e-09
-8.07373e-12
-9.99654e-10
-8.59126e-12
-1.01317e-09
-1.20628e-11
-1.00766e-09
-1.00947e-09
-9.22077e-12
-2.80163e-11
-9.57696e-10
-1.71495e-11
-2.5674e-11
-9.66012e-10
-2.30055e-11
-2.31585e-11
-9.75106e-10
-2.40006e-11
-2.00915e-11
-9.97274e-10
-1.19463e-11
-9.98757e-10
-1.38959e-12
-1.68078e-11
-1.01035e-09
-8.35723e-12
-1.41028e-11
-1.00181e-09
-1.37729e-11
-1.59484e-11
-9.9983e-10
-1.72869e-11
-1.31771e-11
-1.00522e-09
-1.07736e-11
-9.8985e-10
-5.73401e-12
-1.96288e-11
-9.83877e-10
-1.22325e-11
-1.16336e-11
-9.89881e-10
-1.56982e-11
-1.72559e-11
-9.93461e-10
-1.8093e-11
-8.21886e-12
-1.00647e-09
-1.01936e-11
-9.90454e-10
1.01857e-12
-1.01939e-11
-1.01766e-09
-9.06737e-12
-6.65183e-12
-9.92544e-10
-9.40235e-12
-1.1946e-11
-1.01103e-09
-1.46977e-11
-7.54557e-12
-9.98342e-10
-9.48698e-12
-9.93132e-10
-3.6912e-13
-1.0192e-09
-1.15497e-11
-9.95126e-10
-9.66173e-12
-1.027e-09
-1.54768e-11
-1.00939e-09
-1.01081e-09
-1.61436e-11
-4.06e-11
-9.22779e-10
-2.80323e-11
-3.787e-11
-9.42715e-10
-3.93068e-11
-3.24887e-11
-9.5064e-10
-3.86035e-11
-2.75085e-11
-1.0069e-09
-8.51822e-12
-9.96428e-10
3.13144e-12
-2.33198e-11
-1.03076e-09
-7.11266e-12
-1.69959e-11
-1.01244e-09
-1.31568e-11
-2.15456e-11
-1.00473e-09
-2.01786e-11
-1.45979e-11
-1.01111e-09
-9.42714e-12
-9.66717e-10
-1.06562e-11
-3.26557e-11
-9.63885e-10
-1.66922e-11
-1.11764e-11
-9.89665e-10
-2.12139e-11
-3.00296e-11