/*--------------------------------*- C++ -*----------------------------------*\
| =========                 |                                                 |
| \\      /  F ield         | OpenFOAM: The Open Source CFD Toolbox           |
|  \\    /   O peration     | Version:  5.x                                   |
|   \\  /    A nd           | Web:      www.OpenFOAM.org                      |
|    \\/     M anipulation  |                                                 |
\*---------------------------------------------------------------------------*/
FoamFile
{
    version     2.0;
    format      ascii;
    class       volVectorField;
    location    "0.06";
    object      stored_U;
}
// * * * * * * * * * * * * * * * * * * * * * * * * * * * * * * * * * * * * * //

dimensions      [0 1 -1 0 0 0 0];

internalField   nonuniform List<vector> 
2250
(
(-3.16081e-11 -1.87125e-10 -0.000999999)
(-8.59279e-11 -1.86847e-10 -0.000999999)
(-1.22743e-10 -1.80892e-10 -0.000999999)
(-1.37534e-10 -1.67888e-10 -0.000999999)
(-2.05291e-10 -1.37423e-10 -0.000999999)
(-3.13589e-11 -1.70008e-10 -0.000999999)
(-8.43292e-11 -1.68935e-10 -0.000999999)
(-1.24053e-10 -1.64498e-10 -0.000999999)
(-1.53155e-10 -1.64391e-10 -0.001)
(-1.74177e-10 -1.77863e-10 -0.001)
(-3.01557e-11 -1.35356e-10 -0.000999999)
(-8.00251e-11 -1.33499e-10 -0.000999999)
(-1.18179e-10 -1.28617e-10 -0.001)
(-1.50872e-10 -1.24327e-10 -0.001)
(-1.72607e-10 -1.24545e-10 -0.001)
(-2.91859e-11 -8.69663e-11 -0.000999999)
(-7.72619e-11 -8.51804e-11 -0.001)
(-1.14853e-10 -8.28834e-11 -0.001)
(-1.49059e-10 -8.14685e-11 -0.001)
(-1.74339e-10 -8.23115e-11 -0.001)
(-2.81205e-11 -2.97768e-11 -0.001)
(-7.55857e-11 -2.88289e-11 -0.001)
(-1.14214e-10 -2.83176e-11 -0.001)
(-1.49979e-10 -2.84254e-11 -0.001)
(-1.75823e-10 -2.95372e-11 -0.001)
(-8.76674e-11 -5.30536e-10 -0.000999999)
(-2.38376e-10 -5.29023e-10 -0.000999999)
(-3.41294e-10 -5.12809e-10 -0.000999999)
(-3.75261e-10 -4.74979e-10 -0.000999999)
(-5.84628e-10 -3.62342e-10 -0.000999999)
(-8.54753e-11 -4.80797e-10 -0.000999999)
(-2.3073e-10 -4.75731e-10 -0.000999999)
(-3.41267e-10 -4.62492e-10 -0.000999999)
(-4.20976e-10 -4.61704e-10 -0.000999999)
(-5.00325e-10 -5.0672e-10 -0.001)
(-8.15809e-11 -3.82931e-10 -0.000999999)
(-2.19036e-10 -3.76873e-10 -0.000999999)
(-3.27216e-10 -3.64768e-10 -0.001)
(-4.19501e-10 -3.55017e-10 -0.001)
(-4.84786e-10 -3.59888e-10 -0.001)
(-7.8613e-11 -2.44347e-10 -0.000999999)
(-2.11729e-10 -2.39018e-10 -0.001)
(-3.1934e-10 -2.34189e-10 -0.001)
(-4.16049e-10 -2.31764e-10 -0.001)
(-4.87099e-10 -2.34518e-10 -0.001)
(-7.56319e-11 -8.30687e-11 -0.001)
(-2.07966e-10 -8.03629e-11 -0.001)
(-3.19302e-10 -7.98506e-11 -0.001)
(-4.18997e-10 -8.09389e-11 -0.001)
(-4.90401e-10 -8.35855e-11 -0.001)
(-1.48247e-10 -9.39943e-10 -0.000999998)
(-4.11366e-10 -9.38877e-10 -0.000999998)
(-6.04316e-10 -9.18663e-10 -0.000999999)
(-7.22962e-10 -8.69974e-10 -0.000999999)
(-9.73063e-10 -7.21337e-10 -0.000999999)
(-1.42935e-10 -8.49695e-10 -0.000999999)
(-3.93989e-10 -8.40854e-10 -0.000999999)
(-5.92727e-10 -8.19024e-10 -0.000999999)
(-7.3918e-10 -8.12619e-10 -0.000999999)
(-8.93373e-10 -8.34128e-10 -0.001)
(-1.37648e-10 -6.77831e-10 -0.000999999)
(-3.78934e-10 -6.70302e-10 -0.000999999)
(-5.7601e-10 -6.55681e-10 -0.000999999)
(-7.38067e-10 -6.4516e-10 -0.001)
(-8.56559e-10 -6.52791e-10 -0.001)
(-1.34051e-10 -4.32228e-10 -0.000999999)
(-3.70423e-10 -4.2657e-10 -0.001)
(-5.67465e-10 -4.22393e-10 -0.001)
(-7.3622e-10 -4.21579e-10 -0.001)
(-8.55175e-10 -4.27855e-10 -0.001)
(-1.30935e-10 -1.46694e-10 -0.001)
(-3.67516e-10 -1.44068e-10 -0.001)
(-5.69822e-10 -1.44763e-10 -0.001)
(-7.41981e-10 -1.47545e-10 -0.001)
(-8.5836e-10 -1.52001e-10 -0.001)
(-2.16123e-10 -1.44843e-09 -0.000999998)
(-6.13021e-10 -1.45138e-09 -0.000999998)
(-9.30782e-10 -1.43487e-09 -0.000999998)
(-1.17546e-09 -1.3926e-09 -0.000999999)
(-1.37741e-09 -1.27564e-09 -0.000999999)
(-2.09969e-10 -1.31224e-09 -0.000999998)
(-5.90515e-10 -1.30543e-09 -0.000999999)
(-9.0311e-10 -1.28129e-09 -0.000999999)
(-1.14005e-09 -1.26456e-09 -0.000999999)
(-1.35212e-09 -1.24157e-09 -0.001)
(-2.06746e-10 -1.04959e-09 -0.000999999)
(-5.79482e-10 -1.04685e-09 -0.000999999)
(-8.89799e-10 -1.0364e-09 -0.000999999)
(-1.13573e-09 -1.03016e-09 -0.001)
(-1.31351e-09 -1.03809e-09 -0.001)
(-2.0521e-10 -6.73105e-10 -0.000999999)
(-5.75218e-10 -6.71498e-10 -0.000999999)
(-8.86242e-10 -6.71271e-10 -0.001)
(-1.14161e-09 -6.75083e-10 -0.001)
(-1.31073e-09 -6.90058e-10 -0.001)
(-2.03485e-10 -2.29743e-10 -0.001)
(-5.75209e-10 -2.28862e-10 -0.001)
(-8.91499e-10 -2.313e-10 -0.001)
(-1.15209e-09 -2.3588e-10 -0.001)
(-1.31441e-09 -2.44085e-10 -0.001)
(-2.98534e-10 -2.10232e-09 -0.000999997)
(-8.62023e-10 -2.11308e-09 -0.000999998)
(-1.33861e-09 -2.10696e-09 -0.000999998)
(-1.71339e-09 -2.09366e-09 -0.000999998)
(-1.83992e-09 -2.06751e-09 -0.000999999)
(-2.96365e-10 -1.91572e-09 -0.000999998)
(-8.44909e-10 -1.92004e-09 -0.000999998)
(-1.30382e-09 -1.90385e-09 -0.000999999)
(-1.65913e-09 -1.88464e-09 -0.000999999)
(-1.90915e-09 -1.85111e-09 -0.001)
(-2.99288e-10 -1.53558e-09 -0.000999999)
(-8.46502e-10 -1.54427e-09 -0.000999999)
(-1.30305e-09 -1.54488e-09 -0.000999999)
(-1.66064e-09 -1.5508e-09 -0.001)
(-1.89803e-09 -1.56355e-09 -0.001)
(-3.02184e-10 -9.89899e-10 -0.000999999)
(-8.51197e-10 -9.94887e-10 -0.000999999)
(-1.3101e-09 -1.00055e-09 -0.001)
(-1.67763e-09 -1.01221e-09 -0.001)
(-1.90172e-09 -1.03496e-09 -0.001)
(-3.01904e-10 -3.39572e-10 -0.000999999)
(-8.53591e-10 -3.40455e-10 -0.001)
(-1.31762e-09 -3.44215e-10 -0.001)
(-1.69157e-09 -3.50533e-10 -0.001)
(-1.90708e-09 -3.61433e-10 -0.001)
(-4.08872e-10 -2.95176e-09 -0.000999997)
(-1.19031e-09 -2.97235e-09 -0.000999997)
(-1.85721e-09 -2.97818e-09 -0.000999998)
(-2.40403e-09 -2.99615e-09 -0.000999998)
(-2.50522e-09 -3.10611e-09 -0.000999999)
(-4.16553e-10 -2.70687e-09 -0.000999998)
(-1.19458e-09 -2.73005e-09 -0.000999998)
(-1.84535e-09 -2.73347e-09 -0.000999999)
(-2.36165e-09 -2.73646e-09 -0.000999999)
(-2.65e-09 -2.70596e-09 -0.001)
(-4.27116e-10 -2.16784e-09 -0.000999999)
(-1.21181e-09 -2.18949e-09 -0.000999999)
(-1.86337e-09 -2.20171e-09 -0.000999999)
(-2.37644e-09 -2.22349e-09 -0.001)
(-2.67404e-09 -2.23704e-09 -0.001)
(-4.34165e-10 -1.3984e-09 -0.000999999)
(-1.22423e-09 -1.4078e-09 -0.000999999)
(-1.87902e-09 -1.41665e-09 -0.001)
(-2.39674e-09 -1.43379e-09 -0.001)
(-2.68644e-09 -1.45258e-09 -0.001)
(-4.33125e-10 -4.79834e-10 -0.000999999)
(-1.22501e-09 -4.80447e-10 -0.001)
(-1.88551e-09 -4.83797e-10 -0.001)
(-2.40759e-09 -4.90529e-10 -0.001)
(-2.69275e-09 -4.99134e-10 -0.001)
(-5.70158e-10 -4.05202e-09 -0.000999996)
(-1.65988e-09 -4.08079e-09 -0.000999996)
(-2.58209e-09 -4.09103e-09 -0.000999997)
(-3.31521e-09 -4.11524e-09 -0.000999998)
(-3.59926e-09 -4.26395e-09 -0.000999999)
(-5.88359e-10 -3.72622e-09 -0.000999997)
(-1.68936e-09 -3.76565e-09 -0.000999998)
(-2.60761e-09 -3.78647e-09 -0.000999998)
(-3.33506e-09 -3.81697e-09 -0.000999999)
(-3.70417e-09 -3.82554e-09 -0.001)
(-6.02746e-10 -2.97278e-09 -0.000999998)
(-1.71303e-09 -2.99972e-09 -0.000999999)
(-2.63313e-09 -3.0135e-09 -0.000999999)
(-3.35433e-09 -3.03891e-09 -0.001)
(-3.73559e-09 -3.04432e-09 -0.001)
(-6.09743e-10 -1.91009e-09 -0.000999999)
(-1.72423e-09 -1.91654e-09 -0.000999999)
(-2.64631e-09 -1.9222e-09 -0.001)
(-3.36556e-09 -1.93663e-09 -0.001)
(-3.74647e-09 -1.94215e-09 -0.001)
(-6.04506e-10 -6.53091e-10 -0.000999999)
(-1.7181e-09 -6.50158e-10 -0.001)
(-2.64783e-09 -6.51424e-10 -0.001)
(-3.36769e-09 -6.56697e-10 -0.001)
(-3.7506e-09 -6.59772e-10 -0.001)
(-8.08768e-10 -5.47292e-09 -0.000999995)
(-2.34447e-09 -5.50365e-09 -0.000999995)
(-3.633e-09 -5.50702e-09 -0.000999997)
(-4.61397e-09 -5.51347e-09 -0.000999998)
(-5.20743e-09 -5.575e-09 -0.001)
(-8.28516e-10 -5.02061e-09 -0.000999997)
(-2.3791e-09 -5.05988e-09 -0.000999997)
(-3.67416e-09 -5.0785e-09 -0.000999998)
(-4.6676e-09 -5.11385e-09 -0.001)
(-5.19844e-09 -5.1439e-09 -0.001)
(-8.38714e-10 -3.98651e-09 -0.000999998)
(-2.39269e-09 -4.00583e-09 -0.000999998)
(-3.68655e-09 -4.00879e-09 -0.000999999)
(-4.67933e-09 -4.02024e-09 -0.001)
(-5.19788e-09 -4.0189e-09 -0.001)
(-8.40376e-10 -2.54743e-09 -0.000999999)
(-2.3935e-09 -2.54489e-09 -0.000999999)
(-3.68791e-09 -2.54418e-09 -0.001)
(-4.67727e-09 -2.55006e-09 -0.001)
(-5.19524e-09 -2.54599e-09 -0.001)
(-8.29927e-10 -8.67523e-10 -0.000999999)
(-2.37992e-09 -8.60159e-10 -0.001)
(-3.6843e-09 -8.60038e-10 -0.001)
(-4.67203e-09 -8.63486e-10 -0.001)
(-5.19374e-09 -8.63453e-10 -0.001)
(-1.14211e-09 -7.32293e-09 -0.000999993)
(-3.29587e-09 -7.34828e-09 -0.000999994)
(-5.09503e-09 -7.34161e-09 -0.000999996)
(-6.42967e-09 -7.32637e-09 -0.000999998)
(-7.33013e-09 -7.28167e-09 -0.001)
(-1.15182e-09 -6.67612e-09 -0.000999995)
(-3.31153e-09 -6.69822e-09 -0.000999996)
(-5.12368e-09 -6.69965e-09 -0.000999998)
(-6.47857e-09 -6.72043e-09 -0.001)
(-7.22727e-09 -6.74447e-09 -0.001)
(-1.15186e-09 -5.2835e-09 -0.000999997)
(-3.30652e-09 -5.2885e-09 -0.000999998)
(-5.11667e-09 -5.28004e-09 -0.000999999)
(-6.47448e-09 -5.27506e-09 -0.001)
(-7.19361e-09 -5.26716e-09 -0.001)
(-1.14704e-09 -3.36568e-09 -0.000999998)
(-3.29765e-09 -3.357e-09 -0.000999999)
(-5.10934e-09 -3.35453e-09 -0.001)
(-6.46511e-09 -3.35422e-09 -0.001)
(-7.17944e-09 -3.34919e-09 -0.001)
(-1.13493e-09 -1.14501e-09 -0.000999999)
(-3.28261e-09 -1.13702e-09 -0.001)
(-5.10366e-09 -1.13822e-09 -0.001)
(-6.45649e-09 -1.14093e-09 -0.001)
(-7.1718e-09 -1.14167e-09 -0.00100001)
(-1.58321e-09 -9.78152e-09 -0.000999991)
(-4.55973e-09 -9.79893e-09 -0.000999992)
(-7.04862e-09 -9.78754e-09 -0.000999994)
(-8.87504e-09 -9.7647e-09 -0.000999997)
(-1.00843e-08 -9.67354e-09 -0.001)
(-1.5805e-09 -8.85577e-09 -0.000999994)
(-4.5576e-09 -8.86054e-09 -0.000999995)
(-7.06999e-09 -8.85425e-09 -0.000999997)
(-8.92475e-09 -8.86884e-09 -0.001)
(-9.94877e-09 -8.89554e-09 -0.001)
(-1.57175e-09 -7.00466e-09 -0.000999996)
(-4.54121e-09 -7.00189e-09 -0.000999997)
(-7.05615e-09 -6.99314e-09 -0.000999999)
(-8.91629e-09 -6.98332e-09 -0.001)
(-9.90419e-09 -6.977e-09 -0.00100001)
(-1.56485e-09 -4.46568e-09 -0.000999998)
(-4.53229e-09 -4.46097e-09 -0.000999999)
(-7.05019e-09 -4.46305e-09 -0.001)
(-8.90781e-09 -4.46173e-09 -0.001)
(-9.89005e-09 -4.45964e-09 -0.00100001)
(-1.55602e-09 -1.52341e-09 -0.000999999)
(-4.52136e-09 -1.52013e-09 -0.001)
(-7.04276e-09 -1.52369e-09 -0.001)
(-8.89539e-09 -1.52598e-09 -0.001)
(-9.87758e-09 -1.52801e-09 -0.00100001)
(-2.16449e-09 -1.31241e-08 -0.000999988)
(-6.24128e-09 -1.31375e-08 -0.000999989)
(-9.66136e-09 -1.3125e-08 -0.000999992)
(-1.21643e-08 -1.30921e-08 -0.000999996)
(-1.38031e-08 -1.29829e-08 -0.001)
(-2.15646e-09 -1.18211e-08 -0.000999992)
(-6.24104e-09 -1.18235e-08 -0.000999993)
(-9.70353e-09 -1.1828e-08 -0.000999996)
(-1.22381e-08 -1.18589e-08 -0.000999999)
(-1.36477e-08 -1.19052e-08 -0.001)
(-2.14528e-09 -9.36405e-09 -0.000999995)
(-6.22559e-09 -9.36589e-09 -0.000999996)
(-9.69578e-09 -9.36406e-09 -0.000999999)
(-1.22414e-08 -9.3574e-09 -0.001)
(-1.35966e-08 -9.36351e-09 -0.00100001)
(-2.14109e-09 -5.9885e-09 -0.000999997)
(-6.22262e-09 -5.99443e-09 -0.000999999)
(-9.69336e-09 -5.99978e-09 -0.001)
(-1.22364e-08 -5.99706e-09 -0.00100001)
(-1.35853e-08 -5.99794e-09 -0.00100001)
(-2.1363e-09 -2.05142e-09 -0.000999999)
(-6.21345e-09 -2.0542e-09 -0.001)
(-9.67888e-09 -2.05761e-09 -0.001)
(-1.22155e-08 -2.05808e-09 -0.00100001)
(-1.35655e-08 -2.0597e-09 -0.00100001)
(-2.95207e-09 -1.77273e-08 -0.000999984)
(-8.53746e-09 -1.77418e-08 -0.000999985)
(-1.32467e-08 -1.7723e-08 -0.000999989)
(-1.66568e-08 -1.7672e-08 -0.000999994)
(-1.89119e-08 -1.74921e-08 -0.001)
(-2.94402e-09 -1.59302e-08 -0.000999989)
(-8.54414e-09 -1.59417e-08 -0.000999991)
(-1.33038e-08 -1.59542e-08 -0.000999994)
(-1.67604e-08 -1.59911e-08 -0.000999999)
(-1.87037e-08 -1.60656e-08 -0.00100001)
(-2.93454e-09 -1.26397e-08 -0.000999993)
(-8.53104e-09 -1.26516e-08 -0.000999995)
(-1.32947e-08 -1.26489e-08 -0.000999999)
(-1.67681e-08 -1.26364e-08 -0.001)
(-1.86362e-08 -1.26512e-08 -0.00100001)
(-2.93272e-09 -8.10616e-09 -0.000999997)
(-8.52846e-09 -8.11982e-09 -0.000999999)
(-1.32862e-08 -8.11995e-09 -0.001)
(-1.67613e-08 -8.11027e-09 -0.00100001)
(-1.86164e-08 -8.11182e-09 -0.00100001)
(-2.92794e-09 -2.78509e-09 -0.000999998)
(-8.51285e-09 -2.79065e-09 -0.001)
(-1.32583e-08 -2.79062e-09 -0.001)
(-1.6727e-08 -2.78795e-09 -0.00100001)
(-1.85809e-08 -2.7878e-09 -0.00100001)
(-4.03652e-09 -2.40752e-08 -0.000999977)
(-1.17068e-08 -2.40908e-08 -0.00099998)
(-1.82018e-08 -2.40519e-08 -0.000999985)
(-2.28823e-08 -2.39741e-08 -0.000999992)
(-2.58248e-08 -2.3724e-08 -0.001)
(-4.02655e-09 -2.16357e-08 -0.000999985)
(-1.17015e-08 -2.16553e-08 -0.000999987)
(-1.82295e-08 -2.16493e-08 -0.000999992)
(-2.29534e-08 -2.16536e-08 -0.000999999)
(-2.55893e-08 -2.17042e-08 -0.00100001)
(-4.01692e-09 -1.71778e-08 -0.000999991)
(-1.16792e-08 -1.71953e-08 -0.000999994)
(-1.81981e-08 -1.71752e-08 -0.000999998)
(-2.2937e-08 -1.71402e-08 -0.00100001)
(-2.54966e-08 -1.71387e-08 -0.00100001)
(-4.01256e-09 -1.10313e-08 -0.000999996)
(-1.16652e-08 -1.10451e-08 -0.000999998)
(-1.81713e-08 -1.10324e-08 -0.001)
(-2.29148e-08 -1.10099e-08 -0.00100001)
(-2.54553e-08 -1.10015e-08 -0.00100002)
(-4.00326e-09 -3.79443e-09 -0.000999998)
(-1.16368e-08 -3.79924e-09 -0.001)
(-1.81262e-08 -3.79501e-09 -0.00100001)
(-2.2861e-08 -3.78863e-09 -0.00100001)
(-2.53938e-08 -3.78428e-09 -0.00100002)
(-5.52697e-09 -3.28006e-08 -0.000999969)
(-1.60544e-08 -3.28123e-08 -0.000999973)
(-2.49865e-08 -3.27321e-08 -0.000999979)
(-3.14263e-08 -3.26087e-08 -0.000999989)
(-3.51947e-08 -3.23221e-08 -0.001)
(-5.50953e-09 -2.95122e-08 -0.000999979)
(-1.60137e-08 -2.95321e-08 -0.000999983)
(-2.49422e-08 -2.94808e-08 -0.00099999)
(-3.14078e-08 -2.94193e-08 -0.000999999)
(-3.49491e-08 -2.93949e-08 -0.00100001)
(-5.49373e-09 -2.34267e-08 -0.000999988)
(-1.59672e-08 -2.34414e-08 -0.000999991)
(-2.4871e-08 -2.33903e-08 -0.000999998)
(-3.13403e-08 -2.332e-08 -0.00100001)
(-3.48177e-08 -2.32714e-08 -0.00100002)
(-5.48152e-09 -1.50471e-08 -0.000999994)
(-1.59316e-08 -1.50564e-08 -0.000999998)
(-2.48166e-08 -1.50264e-08 -0.001)
(-3.12861e-08 -1.49841e-08 -0.00100001)
(-3.47414e-08 -1.49497e-08 -0.00100002)
(-5.46567e-09 -5.17637e-09 -0.000999997)
(-1.58871e-08 -5.17975e-09 -0.001)
(-2.47485e-08 -5.17132e-09 -0.00100001)
(-3.12019e-08 -5.15894e-09 -0.00100002)
(-3.46436e-08 -5.14625e-09 -0.00100003)
(-7.56495e-09 -4.47562e-08 -0.000999958)
(-2.19801e-08 -4.47583e-08 -0.000999963)
(-3.42074e-08 -4.46155e-08 -0.000999972)
(-4.3052e-08 -4.44151e-08 -0.000999985)
(-4.79534e-08 -4.40963e-08 -0.000999999)
(-7.5322e-09 -4.0317e-08 -0.000999972)
(-2.18847e-08 -4.03269e-08 -0.000999977)
(-3.40696e-08 -4.02112e-08 -0.000999986)
(-4.29067e-08 -4.00654e-08 -0.000999998)
(-4.76791e-08 -3.99259e-08 -0.00100001)
(-7.50255e-09 -3.19898e-08 -0.000999984)
(-2.17982e-08 -3.19944e-08 -0.000999988)
(-3.39422e-08 -3.19004e-08 -0.000999997)
(-4.27665e-08 -3.17786e-08 -0.00100001)
(-4.74801e-08 -3.1659e-08 -0.00100002)
(-7.4789e-09 -2.05426e-08 -0.000999992)
(-2.17333e-08 -2.05456e-08 -0.000999997)
(-3.3848e-08 -2.04908e-08 -0.00100001)
(-4.26615e-08 -2.04159e-08 -0.00100002)
(-4.73487e-08 -2.03407e-08 -0.00100003)
(-7.45459e-09 -7.06614e-09 -0.000999997)
(-2.16654e-08 -7.06806e-09 -0.001)
(-3.37437e-08 -7.05211e-09 -0.00100001)
(-4.2532e-08 -7.02846e-09 -0.00100002)
(-4.72009e-08 -7.00353e-09 -0.00100004)
(-1.03401e-08 -6.11043e-08 -0.000999943)
(-3.00321e-08 -6.10902e-08 -0.00099995)
(-4.6725e-08 -6.08633e-08 -0.000999962)
(-5.88376e-08 -6.05556e-08 -0.000999979)
(-6.53374e-08 -6.01645e-08 -0.000999999)
(-1.02816e-08 -5.50791e-08 -0.000999962)
(-2.98625e-08 -5.50668e-08 -0.000999968)
(-4.6473e-08 -5.48671e-08 -0.000999981)
(-5.85402e-08 -5.46078e-08 -0.000999998)
(-6.49802e-08 -5.43171e-08 -0.00100002)
(-1.02294e-08 -4.36894e-08 -0.000999978)
(-2.97166e-08 -4.3677e-08 -0.000999984)
(-4.62611e-08 -4.35212e-08 -0.000999997)
(-5.82873e-08 -4.33169e-08 -0.00100001)
(-6.46788e-08 -4.30901e-08 -0.00100003)
(-1.01903e-08 -2.80495e-08 -0.00099999)
(-2.96098e-08 -2.80422e-08 -0.000999996)
(-4.61051e-08 -2.79479e-08 -0.00100001)
(-5.8104e-08 -2.78203e-08 -0.00100002)
(-6.44651e-08 -2.76845e-08 -0.00100004)
(-1.01527e-08 -9.64761e-09 -0.000999996)
(-2.95043e-08 -9.6457e-09 -0.001)
(-4.59453e-08 -9.61576e-09 -0.00100001)
(-5.79087e-08 -9.57442e-09 -0.00100003)
(-6.42459e-08 -9.53105e-09 -0.00100005)
(-1.41069e-08 -8.34388e-08 -0.000999923)
(-4.09581e-08 -8.33955e-08 -0.000999932)
(-6.3716e-08 -8.30472e-08 -0.000999948)
(-8.02717e-08 -8.25752e-08 -0.000999972)
(-8.90288e-08 -8.20343e-08 -0.000999999)
(-1.40115e-08 -7.52188e-08 -0.000999948)
(-4.06917e-08 -7.51717e-08 -0.000999957)
(-6.332e-08 -7.48593e-08 -0.000999974)
(-7.97827e-08 -7.4442e-08 -0.000999997)
(-8.84833e-08 -7.39517e-08 -0.00100002)
(-1.39261e-08 -5.96548e-08 -0.00099997)
(-4.04578e-08 -5.96146e-08 -0.000999979)
(-6.29794e-08 -5.93656e-08 -0.000999996)
(-7.93637e-08 -5.90336e-08 -0.00100002)
(-8.80284e-08 -5.86499e-08 -0.00100005)
(-1.38641e-08 -3.82945e-08 -0.000999986)
(-4.02874e-08 -3.82694e-08 -0.000999995)
(-6.27282e-08 -3.81149e-08 -0.00100001)
(-7.90601e-08 -3.79075e-08 -0.00100003)
(-8.76945e-08 -3.76754e-08 -0.00100006)
(-1.38064e-08 -1.31706e-08 -0.000999995)
(-4.01275e-08 -1.31617e-08 -0.001)
(-6.24894e-08 -1.31112e-08 -0.00100002)
(-7.87669e-08 -1.30438e-08 -0.00100004)
(-8.73703e-08 -1.2969e-08 -0.00100007)
(-1.92164e-08 -1.13953e-07 -0.000999895)
(-5.5788e-08 -1.13858e-07 -0.000999907)
(-8.67837e-08 -1.13321e-07 -0.00099993)
(-1.0934e-07 -1.12578e-07 -0.000999961)
(-1.21351e-07 -1.11718e-07 -0.000999998)
(-1.90692e-08 -1.02704e-07 -0.00099993)
(-5.53866e-08 -1.02606e-07 -0.000999942)
(-8.61937e-08 -1.02131e-07 -0.000999965)
(-1.08613e-07 -1.01493e-07 -0.000999996)
(-1.20435e-07 -1.00755e-07 -0.00100003)
(-1.89359e-08 -8.14443e-08 -0.00099996)
(-5.50226e-08 -8.13606e-08 -0.000999972)
(-8.56615e-08 -8.09716e-08 -0.000999994)
(-1.07964e-07 -8.04492e-08 -0.00100003)
(-1.19726e-07 -7.98502e-08 -0.00100006)
(-1.88399e-08 -5.22783e-08 -0.000999982)
(-5.47575e-08 -5.2227e-08 -0.000999993)
(-8.52677e-08 -5.19841e-08 -0.00100002)
(-1.07482e-07 -5.16544e-08 -0.00100005)
(-1.19206e-07 -5.12777e-08 -0.00100008)
(-1.87561e-08 -1.79798e-08 -0.000999993)
(-5.45232e-08 -1.79624e-08 -0.00100001)
(-8.49139e-08 -1.78825e-08 -0.00100003)
(-1.07043e-07 -1.77738e-08 -0.00100006)
(-1.18725e-07 -1.7649e-08 -0.00100009)
(-2.61551e-08 -1.55661e-07 -0.000999857)
(-7.59407e-08 -1.55478e-07 -0.000999873)
(-1.1814e-07 -1.54652e-07 -0.000999905)
(-1.48815e-07 -1.5349e-07 -0.000999947)
(-1.65365e-07 -1.52067e-07 -0.000999998)
(-2.59298e-08 -1.40253e-07 -0.000999905)
(-7.53281e-08 -1.40072e-07 -0.000999921)
(-1.17248e-07 -1.39343e-07 -0.000999952)
(-1.47739e-07 -1.38369e-07 -0.000999995)
(-1.63869e-07 -1.37277e-07 -0.00100004)
(-2.57276e-08 -1.11207e-07 -0.000999946)
(-7.47708e-08 -1.11057e-07 -0.000999962)
(-1.16425e-07 -1.10456e-07 -0.000999993)
(-1.46748e-07 -1.09642e-07 -0.00100003)
(-1.62746e-07 -1.0873e-07 -0.00100008)
(-2.55821e-08 -7.13802e-08 -0.000999975)
(-7.43648e-08 -7.12897e-08 -0.000999992)
(-1.15813e-07 -7.09104e-08 -0.00100002)
(-1.46e-07 -7.03904e-08 -0.00100006)
(-1.61932e-07 -6.98015e-08 -0.00100011)
(-2.54623e-08 -2.45506e-08 -0.000999991)
(-7.40216e-08 -2.45212e-08 -0.00100001)
(-1.15287e-07 -2.43941e-08 -0.00100004)
(-1.45346e-07 -2.42198e-08 -0.00100008)
(-1.61219e-07 -2.40214e-08 -0.00100013)
(-3.5583e-08 -2.12697e-07 -0.000999806)
(-1.03338e-07 -2.12368e-07 -0.000999828)
(-1.60797e-07 -2.11097e-07 -0.00099987)
(-2.02535e-07 -2.09309e-07 -0.000999929)
(-2.25173e-07 -2.07049e-07 -0.000999997)
(-3.52382e-08 -1.91593e-07 -0.000999871)
(-1.02388e-07 -1.91278e-07 -0.000999894)
(-1.59401e-07 -1.90143e-07 -0.000999935)
(-2.00864e-07 -1.88622e-07 -0.000999993)
(-2.22864e-07 -1.86937e-07 -0.00100006)
(-3.49337e-08 -1.51889e-07 -0.000999927)
(-1.01536e-07 -1.51632e-07 -0.000999949)
(-1.58124e-07 -1.50702e-07 -0.00099999)
(-1.99327e-07 -1.49433e-07 -0.00100005)
(-2.21102e-07 -1.48023e-07 -0.00100011)
(-3.47128e-08 -9.74862e-08 -0.000999968)
(-1.00912e-07 -9.73255e-08 -0.00099999)
(-1.57175e-07 -9.67322e-08 -0.00100003)
(-1.98167e-07 -9.59204e-08 -0.00100009)
(-2.1983e-07 -9.50036e-08 -0.00100015)
(-3.45356e-08 -3.35302e-08 -0.000999989)
(-1.00402e-07 -3.34761e-08 -0.00100001)
(-1.56393e-07 -3.3275e-08 -0.00100005)
(-1.97199e-07 -3.3002e-08 -0.00100011)
(-2.18769e-07 -3.26905e-08 -0.00100017)
(-4.83922e-08 -2.90733e-07 -0.000999736)
(-1.40574e-07 -2.9016e-07 -0.000999766)
(-2.18801e-07 -2.88196e-07 -0.000999824)
(-2.7565e-07 -2.85454e-07 -0.000999903)
(-3.06431e-07 -2.81995e-07 -0.000999996)
(-4.78639e-08 -2.61822e-07 -0.000999826)
(-1.39091e-07 -2.61284e-07 -0.000999856)
(-2.16592e-07 -2.59508e-07 -0.000999913)
(-2.72986e-07 -2.57113e-07 -0.000999991)
(-3.02956e-07 -2.54441e-07 -0.00100008)
(-4.7401e-08 -2.07513e-07 -0.000999902)
(-1.37781e-07 -2.07072e-07 -0.000999932)
(-2.14606e-07 -2.05627e-07 -0.000999988)
(-2.70582e-07 -2.03653e-07 -0.00100006)
(-3.00214e-07 -2.01444e-07 -0.00100016)
(-4.70594e-08 -1.33163e-07 -0.000999957)
(-1.36813e-07 -1.32879e-07 -0.000999987)
(-2.13136e-07 -1.31957e-07 -0.00100004)
(-2.68779e-07 -1.30697e-07 -0.00100012)
(-2.98225e-07 -1.2926e-07 -0.00100021)
(-4.67942e-08 -4.57978e-08 -0.000999987)
(-1.36058e-07 -4.56999e-08 -0.00100002)
(-2.1198e-07 -4.53886e-08 -0.00100007)
(-2.67339e-07 -4.4963e-08 -0.00100015)
(-2.96639e-07 -4.44727e-08 -0.00100024)
(-6.57912e-08 -3.97555e-07 -0.000999641)
(-1.91156e-07 -3.96572e-07 -0.000999683)
(-2.97621e-07 -3.9353e-07 -0.000999761)
(-3.75084e-07 -3.89316e-07 -0.000999869)
(-4.16847e-07 -3.84106e-07 -0.000999995)
(-6.4975e-08 -3.57904e-07 -0.000999764)
(-1.88841e-07 -3.5699e-07 -0.000999805)
(-2.94136e-07 -3.54214e-07 -0.000999882)
(-3.7084e-07 -3.50456e-07 -0.000999988)
(-4.11652e-07 -3.46212e-07 -0.00100011)
(-6.42621e-08 -2.83567e-07 -0.000999869)
(-1.86815e-07 -2.82817e-07 -0.000999909)
(-2.91055e-07 -2.80575e-07 -0.000999985)
(-3.6708e-07 -2.7751e-07 -0.00100009)
(-4.07396e-07 -2.74039e-07 -0.00100021)
(-6.37326e-08 -1.81925e-07 -0.000999945)
(-1.85318e-07 -1.8144e-07 -0.000999985)
(-2.88778e-07 -1.80009e-07 -0.00100006)
(-3.64272e-07 -1.78041e-07 -0.00100016)
(-4.04287e-07 -1.75787e-07 -0.00100028)
(-6.33406e-08 -6.25609e-08 -0.000999985)
(-1.84196e-07 -6.23964e-08 -0.00100003)
(-2.87051e-07 -6.19119e-08 -0.0010001)
(-3.62115e-07 -6.12417e-08 -0.0010002)
(-4.01909e-07 -6.04701e-08 -0.00100032)
(-8.94127e-08 -5.43852e-07 -0.000999513)
(-2.59834e-07 -5.42199e-07 -0.000999569)
(-4.04676e-07 -5.3749e-07 -0.000999676)
(-5.10247e-07 -5.3101e-07 -0.000999822)
(-5.66872e-07 -5.23193e-07 -0.000999994)
(-8.81435e-08 -4.89388e-07 -0.000999682)
(-2.56223e-07 -4.87848e-07 -0.000999737)
(-3.99207e-07 -4.83518e-07 -0.000999841)
(-5.03529e-07 -4.77638e-07 -0.000999985)
(-5.59091e-07 -4.70918e-07 -0.00100015)
(-8.70392e-08 -3.8758e-07 -0.000999825)
(-2.53082e-07 -3.86324e-07 -0.000999879)
(-3.94423e-07 -3.82835e-07 -0.000999981)
(-4.97645e-07 -3.78058e-07 -0.00100012)
(-5.52505e-07 -3.72602e-07 -0.00100029)
(-8.62209e-08 -2.48596e-07 -0.000999928)
(-2.50758e-07 -2.47786e-07 -0.000999982)
(-3.90873e-07 -2.45541e-07 -0.00100008)
(-4.93252e-07 -2.42453e-07 -0.00100022)
(-5.47657e-07 -2.38912e-07 -0.00100039)
(-8.56357e-08 -8.54822e-08 -0.000999984)
(-2.4907e-07 -8.52062e-08 -0.00100004)
(-3.88265e-07 -8.44381e-08 -0.00100014)
(-4.90001e-07 -8.33797e-08 -0.00100027)
(-5.44077e-07 -8.21638e-08 -0.00100044)
(-1.2146e-07 -7.44345e-07 -0.00099934)
(-3.53029e-07 -7.41601e-07 -0.000999416)
(-5.50009e-07 -7.34306e-07 -0.00099956)
(-6.93887e-07 -7.24326e-07 -0.000999759)
(-7.70778e-07 -7.12553e-07 -0.000999993)
(-1.19484e-07 -6.69407e-07 -0.000999571)
(-3.47405e-07 -6.66837e-07 -0.000999646)
(-5.41468e-07 -6.6008e-07 -0.000999786)
(-6.83335e-07 -6.50891e-07 -0.000999981)
(-7.58994e-07 -6.40309e-07 -0.00100021)
(-1.17764e-07 -5.29899e-07 -0.000999767)
(-3.42508e-07 -5.27803e-07 -0.00099984)
(-5.34003e-07 -5.22333e-07 -0.000999978)
(-6.74112e-07 -5.14861e-07 -0.00100017)
(-7.48809e-07 -5.06276e-07 -0.00100039)
(-1.16487e-07 -3.39799e-07 -0.000999908)
(-3.38865e-07 -3.38432e-07 -0.000999981)
(-5.28433e-07 -3.34881e-07 -0.00100012)
(-6.67218e-07 -3.30026e-07 -0.0010003)
(-7.41245e-07 -3.24441e-07 -0.00100052)
(-1.15594e-07 -1.16835e-07 -0.000999985)
(-3.36292e-07 -1.16362e-07 -0.00100006)
(-5.24472e-07 -1.15138e-07 -0.00100019)
(-6.62288e-07 -1.13468e-07 -0.00100038)
(-7.35831e-07 -1.11543e-07 -0.00100059)
(-1.64909e-07 -1.01934e-06 -0.000999106)
(-4.79415e-07 -1.01481e-06 -0.000999209)
(-7.47204e-07 -1.00347e-06 -0.000999404)
(-9.43228e-07 -9.88058e-07 -0.000999674)
(-1.04803e-06 -9.70161e-07 -0.000999992)
(-1.61822e-07 -9.16026e-07 -0.000999423)
(-4.70644e-07 -9.11757e-07 -0.000999524)
(-7.33897e-07 -9.01176e-07 -0.000999714)
(-9.26793e-07 -8.86826e-07 -0.000999976)
(-1.02996e-06 -8.70293e-07 -0.00100029)
(-1.5912e-07 -7.24736e-07 -0.000999691)
(-4.62951e-07 -7.21225e-07 -0.000999789)
(-7.22191e-07 -7.12594e-07 -0.000999975)
(-9.1234e-07 -7.00863e-07 -0.00100023)
(-1.01416e-06 -6.87365e-07 -0.00100053)
(-1.57097e-07 -4.64621e-07 -0.000999885)
(-4.57187e-07 -4.62305e-07 -0.000999982)
(-7.13409e-07 -4.56668e-07 -0.00100016)
(-9.01483e-07 -4.49001e-07 -0.00100041)
(-1.00231e-06 -4.4017e-07 -0.00100071)
(-1.55718e-07 -1.59741e-07 -0.000999989)
(-4.53235e-07 -1.58932e-07 -0.00100008)
(-7.07352e-07 -1.56984e-07 -0.00100026)
(-8.93953e-07 -1.54334e-07 -0.00100051)
(-9.94076e-07 -1.51278e-07 -0.00100081)
(-2.23763e-07 -1.39684e-06 -0.00099879)
(-6.507e-07 -1.38938e-06 -0.000998929)
(-1.01467e-06 -1.37169e-06 -0.000999194)
(-1.28172e-06 -1.34785e-06 -0.00099956)
(-1.42506e-06 -1.32044e-06 -0.000999992)
(-2.18904e-07 -1.25412e-06 -0.000999225)
(-6.36945e-07 -1.24701e-06 -0.00099936)
(-9.93903e-07 -1.23036e-06 -0.000999616)
(-1.25621e-06 -1.2079e-06 -0.000999971)
(-1.3972e-06 -1.18216e-06 -0.00100039)
(-2.1461e-07 -9.91652e-07 -0.000999592)
(-6.24763e-07 -9.85748e-07 -0.000999724)
(-9.7545e-07 -9.72049e-07 -0.000999972)
(-1.23352e-06 -9.53523e-07 -0.00100032)
(-1.37257e-06 -9.32282e-07 -0.00100073)
(-2.11366e-07 -6.35623e-07 -0.000999858)
(-6.15568e-07 -6.31693e-07 -0.000999987)
(-9.61506e-07 -6.22691e-07 -0.00100023)
(-1.21633e-06 -6.10491e-07 -0.00100057)
(-1.35392e-06 -5.96487e-07 -0.00100097)
(-2.09215e-07 -2.18538e-07 -0.001)
(-6.0944e-07 -2.17159e-07 -0.00100013)
(-9.52153e-07 -2.14037e-07 -0.00100037)
(-1.20473e-06 -2.09799e-07 -0.0010007)
(-1.34128e-06 -2.04933e-07 -0.00100109)
(-3.03389e-07 -1.91556e-06 -0.000998364)
(-8.82653e-07 -1.90321e-06 -0.000998552)
(-1.37735e-06 -1.8755e-06 -0.00099891)
(-1.74136e-06 -1.83855e-06 -0.000999406)
(-1.93788e-06 -1.79649e-06 -0.000999994)
(-2.95647e-07 -1.718e-06 -0.000998961)
(-8.60877e-07 -1.70611e-06 -0.000999143)
(-1.34474e-06 -1.67971e-06 -0.000999488)
(-1.70165e-06 -1.64436e-06 -0.000999966)
(-1.8949e-06 -1.6042e-06 -0.00100053)
(-2.88742e-07 -1.35767e-06 -0.000999465)
(-8.41423e-07 -1.34767e-06 -0.00099964)
(-1.31545e-06 -1.32577e-06 -0.000999973)
(-1.66584e-06 -1.29627e-06 -0.00100044)
(-1.85634e-06 -1.2627e-06 -0.00100099)
(-2.83451e-07 -8.70309e-07 -0.00099983)
(-8.26589e-07 -8.63567e-07 -0.001)
(-1.29311e-06 -8.4909e-07 -0.00100032)
(-1.63843e-06 -8.2948e-07 -0.00100077)
(-1.82677e-06 -8.07133e-07 -0.00100131)
(-2.80028e-07 -2.99312e-07 -0.00100003)
(-8.16965e-07 -2.96934e-07 -0.00100019)
(-1.27851e-06 -2.91902e-07 -0.00100051)
(-1.62036e-06 -2.85058e-07 -0.00100095)
(-1.80717e-06 -2.77254e-07 -0.00100148)
(-4.10932e-07 -2.62899e-06 -0.00099779)
(-1.19645e-06 -2.6084e-06 -0.000998044)
(-1.86898e-06 -2.56471e-06 -0.000998529)
(-2.36573e-06 -2.50729e-06 -0.000999202)
(-2.63603e-06 -2.44282e-06 -0.001)
(-3.98354e-07 -2.35516e-06 -0.000998612)
(-1.16149e-06 -2.33497e-06 -0.000998854)
(-1.81729e-06 -2.29277e-06 -0.000999317)
(-2.30354e-06 -2.23664e-06 -0.000999962)
(-2.56973e-06 -2.17367e-06 -0.00100073)
(-3.87073e-07 -1.86028e-06 -0.000999303)
(-1.13012e-06 -1.84304e-06 -0.000999534)
(-1.77044e-06 -1.80782e-06 -0.000999977)
(-2.24662e-06 -1.76032e-06 -0.0010006)
(-2.50909e-06 -1.70688e-06 -0.00100134)
(-3.78192e-07 -1.19338e-06 -0.000999806)
(-1.10583e-06 -1.18152e-06 -0.00100003)
(-1.73426e-06 -1.15815e-06 -0.00100046)
(-2.20239e-06 -1.12622e-06 -0.00100105)
(-2.46177e-06 -1.09023e-06 -0.00100177)
(-3.72575e-07 -4.10764e-07 -0.00100008)
(-1.09052e-06 -4.06558e-07 -0.0010003)
(-1.71123e-06 -3.98462e-07 -0.00100071)
(-2.17387e-06 -3.87261e-07 -0.0010013)
(-2.43099e-06 -3.74631e-07 -0.001002)
(-5.55806e-07 -3.61118e-06 -0.000997017)
(-1.6205e-06 -3.57634e-06 -0.000997359)
(-2.53541e-06 -3.50702e-06 -0.000998015)
(-3.21466e-06 -3.41741e-06 -0.00099893)
(-3.58848e-06 -3.31856e-06 -0.00100002)
(-5.34701e-07 -3.23155e-06 -0.000998155)
(-1.5631e-06 -3.19653e-06 -0.000998474)
(-2.4522e-06 -3.12847e-06 -0.000999093)
(-3.11609e-06 -3.03815e-06 -0.000999959)
(-3.48617e-06 -2.93853e-06 -0.001001)
(-5.15913e-07 -2.55166e-06 -0.000999101)
(-1.51216e-06 -2.52101e-06 -0.000999401)
(-2.37675e-06 -2.46437e-06 -0.000999989)
(-3.02471e-06 -2.38671e-06 -0.00100081)
(-3.39049e-06 -2.30078e-06 -0.00100181)
(-5.00204e-07 -1.64061e-06 -0.0009998)
(-1.47155e-06 -1.6187e-06 -0.00100008)
(-2.31747e-06 -1.58129e-06 -0.00100064)
(-2.95222e-06 -1.52824e-06 -0.00100143)
(-3.31381e-06 -1.46969e-06 -0.00100238)
(-4.90491e-07 -5.65785e-07 -0.00100018)
(-1.44693e-06 -5.5797e-07 -0.00100045)
(-2.28096e-06 -5.45257e-07 -0.001001)
(-2.9065e-06 -5.26575e-07 -0.00100176)
(-3.2649e-06 -5.05982e-07 -0.00100269)
(-7.50357e-07 -4.96453e-06 -0.000995971)
(-2.19339e-06 -4.90439e-06 -0.00099643)
(-3.43986e-06 -4.79368e-06 -0.000997324)
(-4.37129e-06 -4.65309e-06 -0.000998568)
(-4.894e-06 -4.50036e-06 -0.00100006)
(-7.1279e-07 -4.43991e-06 -0.00099757)
(-2.09521e-06 -4.37686e-06 -0.000997977)
(-3.30207e-06 -4.26637e-06 -0.000998799)
(-4.21104e-06 -4.11794e-06 -0.000999957)
(-4.73574e-06 -3.95763e-06 -0.00100136)
(-6.80943e-07 -3.50479e-06 -0.000998854)
(-2.01288e-06 -3.44719e-06 -0.000999228)
(-3.18057e-06 -3.35792e-06 -0.00100001)
(-4.06254e-06 -3.22792e-06 -0.00100109)