/*--------------------------------*- C++ -*----------------------------------*\
  =========                 |
  \\      /  F ield         | OpenFOAM: The Open Source CFD Toolbox
   \\    /   O peration     | Website:  https://openfoam.org
    \\  /    A nd           | Version:  9
     \\/     M anipulation  |
\*---------------------------------------------------------------------------*/
FoamFile
{
    format      ascii;
    class       volVectorField;
    location    "8000";
    object      U;
}
// * * * * * * * * * * * * * * * * * * * * * * * * * * * * * * * * * * * * * //

dimensions      [0 1 -1 0 0 0 0];

internalField   nonuniform List<vector> 
720
(
(-2.03796e-11 1.80103e-08 -0.00100012)
(-2.03799e-11 1.66449e-08 -0.00100012)
(-1.38578e-09 1.80102e-08 -0.000999907)
(-1.38578e-09 1.66449e-08 -0.000999926)
(2.31787e-11 2.23541e-08 -0.00100012)
(2.31784e-11 2.04257e-08 -0.00100012)
(-1.90516e-09 2.23539e-08 -0.000999905)
(-1.90516e-09 2.04256e-08 -0.000999924)
(8.5421e-11 2.96917e-08 -0.00100012)
(8.54206e-11 2.69226e-08 -0.00100012)
(-2.68365e-09 2.96915e-08 -0.000999902)
(-2.68365e-09 2.69224e-08 -0.000999922)
(1.59443e-10 3.89627e-08 -0.00100012)
(1.59443e-10 3.52021e-08 -0.00100012)
(-3.60116e-09 3.89625e-08 -0.000999898)
(-3.60116e-09 3.52019e-08 -0.000999919)
(2.47171e-10 4.94909e-08 -0.00100013)
(2.47171e-10 4.46234e-08 -0.00100013)
(-4.62032e-09 4.94906e-08 -0.000999893)
(-4.62032e-09 4.46232e-08 -0.000999916)
(3.44382e-10 6.09244e-08 -0.00100013)
(3.44382e-10 5.48554e-08 -0.00100013)
(-5.72462e-09 6.09241e-08 -0.000999887)
(-5.72462e-09 5.48551e-08 -0.000999911)
(4.54929e-10 7.31493e-08 -0.00100014)
(4.54928e-10 6.57791e-08 -0.00100014)
(-6.9153e-09 7.3149e-08 -0.00099988)
(-6.9153e-09 6.57788e-08 -0.000999905)
(5.85366e-10 8.6189e-08 -0.00100015)
(5.85365e-10 7.74016e-08 -0.00100015)
(-8.20203e-09 8.61887e-08 -0.000999871)
(-8.20203e-09 7.74013e-08 -0.000999899)
(7.43788e-10 1.00139e-07 -0.00100016)
(7.43787e-10 8.97947e-08 -0.00100016)
(-9.6005e-09 1.00139e-07 -0.000999861)
(-9.6005e-09 8.97944e-08 -0.000999891)
(9.39495e-10 1.15132e-07 -0.00100017)
(9.39493e-10 1.03061e-07 -0.00100017)
(-1.11307e-08 1.15131e-07 -0.000999849)
(-1.11307e-08 1.03061e-07 -0.000999882)
(1.18321e-09 1.31321e-07 -0.00100018)
(1.18321e-09 1.17321e-07 -0.00100018)
(-1.28162e-08 1.3132e-07 -0.000999835)
(-1.28162e-08 1.17321e-07 -0.000999872)
(1.48749e-09 1.48878e-07 -0.0010002)
(1.48749e-09 1.32706e-07 -0.00100019)
(-1.46839e-08 1.48877e-07 -0.00099982)
(-1.46839e-08 1.32706e-07 -0.00099986)
(1.86699e-09 1.67989e-07 -0.00100021)
(1.86699e-09 1.49358e-07 -0.00100021)
(-1.67639e-08 1.67988e-07 -0.000999802)
(-1.67639e-08 1.49357e-07 -0.000999847)
(2.33852e-09 1.88858e-07 -0.00100023)
(2.33852e-09 1.67429e-07 -0.00100022)
(-1.90904e-08 1.88857e-07 -0.000999782)
(-1.90904e-08 1.67429e-07 -0.000999832)
(2.92122e-09 2.11711e-07 -0.00100025)
(2.92122e-09 1.87087e-07 -0.00100024)
(-2.17017e-08 2.11709e-07 -0.000999759)
(-2.17017e-08 1.87087e-07 -0.000999816)
(3.63698e-09 2.3679e-07 -0.00100028)
(3.63697e-09 2.08512e-07 -0.00100026)
(-2.46408e-08 2.36789e-07 -0.000999733)
(-2.46408e-08 2.08511e-07 -0.000999798)
(4.51076e-09 2.64366e-07 -0.0010003)
(4.51075e-09 2.31899e-07 -0.00100028)
(-2.79563e-08 2.64365e-07 -0.000999705)
(-2.79564e-08 2.31898e-07 -0.000999777)
(5.5714e-09 2.94736e-07 -0.00100033)
(5.57139e-09 2.57461e-07 -0.00100031)
(-3.17029e-08 2.94734e-07 -0.000999673)
(-3.1703e-08 2.5746e-07 -0.000999755)
(6.85218e-09 3.28226e-07 -0.00100036)
(6.85217e-09 2.85431e-07 -0.00100034)
(-3.59425e-08 3.28223e-07 -0.000999637)
(-3.59425e-08 2.85429e-07 -0.00099973)
(8.39155e-09 3.65198e-07 -0.0010004)
(8.39154e-09 3.16061e-07 -0.00100037)
(-4.07449e-08 3.65194e-07 -0.000999597)
(-4.0745e-08 3.16058e-07 -0.000999702)
(1.0234e-08 4.06051e-07 -0.00100044)
(1.0234e-08 3.49627e-07 -0.0010004)
(-4.61896e-08 4.06047e-07 -0.000999552)
(-4.61897e-08 3.49624e-07 -0.000999672)
(1.24312e-08 4.51229e-07 -0.00100049)
(1.24312e-08 3.8643e-07 -0.00100044)
(-5.23667e-08 4.51224e-07 -0.000999503)
(-5.23668e-08 3.86426e-07 -0.000999638)
(1.50432e-08 5.01221e-07 -0.00100054)
(1.50431e-08 4.26798e-07 -0.00100048)
(-5.9379e-08 5.01215e-07 -0.000999447)
(-5.93791e-08 4.26794e-07 -0.000999601)
(1.81399e-08 5.56574e-07 -0.00100059)
(1.81398e-08 4.71089e-07 -0.00100052)
(-6.73435e-08 5.56566e-07 -0.000999386)
(-6.73437e-08 4.71084e-07 -0.000999561)
(2.18029e-08 6.17891e-07 -0.00100065)
(2.18028e-08 5.19692e-07 -0.00100057)
(-7.63942e-08 6.17882e-07 -0.000999317)
(-7.63945e-08 5.19686e-07 -0.000999516)
(2.61276e-08 6.85846e-07 -0.00100072)
(2.61275e-08 5.73032e-07 -0.00100062)
(-8.66841e-08 6.85835e-07 -0.000999241)
(-8.66844e-08 5.73024e-07 -0.000999468)
(3.12253e-08 7.61187e-07 -0.0010008)
(3.12252e-08 6.3157e-07 -0.00100068)
(-9.83881e-08 7.61173e-07 -0.000999157)
(-9.83886e-08 6.31561e-07 -0.000999414)
(3.72262e-08 8.44747e-07 -0.00100088)
(3.7226e-08 6.95809e-07 -0.00100075)
(-1.11707e-07 8.4473e-07 -0.000999063)
(-1.11707e-07 6.95799e-07 -0.000999356)
(4.42818e-08 9.37454e-07 -0.00100098)
(4.42816e-08 7.66297e-07 -0.00100082)
(-1.2687e-07 9.37433e-07 -0.000998958)
(-1.26871e-07 7.66284e-07 -0.000999292)
(5.2569e-08 1.04034e-06 -0.00100109)
(5.25687e-08 8.43625e-07 -0.0010009)
(-1.4414e-07 1.04032e-06 -0.000998842)
(-1.44141e-07 8.43609e-07 -0.000999222)
(6.22934e-08 1.15456e-06 -0.0010012)
(6.22931e-08 9.28439e-07 -0.00100099)
(-1.6382e-07 1.15453e-06 -0.000998713)
(-1.63821e-07 9.2842e-07 -0.000999146)
(7.36945e-08 1.2814e-06 -0.00100134)
(7.3694e-08 1.02144e-06 -0.00100108)
(-1.86252e-07 1.28136e-06 -0.000998569)
(-1.86254e-07 1.02142e-06 -0.000999064)
(8.70501e-08 1.42228e-06 -0.00100148)
(8.70495e-08 1.12338e-06 -0.00100118)
(-2.11834e-07 1.42223e-06 -0.000998409)
(-2.11836e-07 1.12336e-06 -0.000998973)
(1.02683e-07 1.57881e-06 -0.00100165)
(1.02682e-07 1.23509e-06 -0.0010013)
(-2.41016e-07 1.57875e-06 -0.000998231)
(-2.41019e-07 1.23506e-06 -0.000998875)
(1.20967e-07 1.75277e-06 -0.00100183)
(1.20966e-07 1.35746e-06 -0.00100142)
(-2.74317e-07 1.75269e-06 -0.000998033)
(-2.74321e-07 1.35742e-06 -0.000998768)
(1.42336e-07 1.94614e-06 -0.00100203)
(1.42335e-07 1.49144e-06 -0.00100156)
(-3.12328e-07 1.94604e-06 -0.000997812)
(-3.12334e-07 1.49139e-06 -0.000998651)
(1.67292e-07 2.16114e-06 -0.00100226)
(1.6729e-07 1.63808e-06 -0.0010017)
(-3.55728e-07 2.16102e-06 -0.000997566)
(-3.55736e-07 1.63802e-06 -0.000998524)
(1.96417e-07 2.40026e-06 -0.00100251)
(1.96414e-07 1.7985e-06 -0.00100186)
(-4.05293e-07 2.40011e-06 -0.000997292)
(-4.05302e-07 1.79843e-06 -0.000998386)
(2.30381e-07 2.66625e-06 -0.0010028)
(2.30377e-07 1.9739e-06 -0.00100204)
(-4.61909e-07 2.66607e-06 -0.000996986)
(-4.61921e-07 1.97381e-06 -0.000998236)
(2.69964e-07 2.96222e-06 -0.00100311)
(2.69959e-07 2.16558e-06 -0.00100223)
(-5.26593e-07 2.96199e-06 -0.000996645)
(-5.2661e-07 2.16547e-06 -0.000998074)
(3.16064e-07 3.29161e-06 -0.00100346)
(3.16057e-07 2.37493e-06 -0.00100243)
(-6.0051e-07 3.29133e-06 -0.000996265)
(-6.00532e-07 2.3748e-06 -0.000997898)
(3.69723e-07 3.65829e-06 -0.00100385)
(3.69714e-07 2.60344e-06 -0.00100266)
(-6.8499e-07 3.65794e-06 -0.000995841)
(-6.85019e-07 2.60329e-06 -0.000997708)
(4.32144e-07 4.06659e-06 -0.00100429)
(4.32131e-07 2.8527e-06 -0.0010029)
(-7.81561e-07 4.06615e-06 -0.000995367)
(-7.816e-07 2.85252e-06 -0.000997502)
(5.04717e-07 4.52133e-06 -0.00100478)
(5.047e-07 3.12441e-06 -0.00100316)
(-8.91972e-07 4.52078e-06 -0.000994839)
(-8.92023e-07 3.12419e-06 -0.00099728)
(5.89051e-07 5.02793e-06 -0.00100533)
(5.89028e-07 3.42036e-06 -0.00100344)
(-1.01823e-06 5.02724e-06 -0.000994249)
(-1.01829e-06 3.4201e-06 -0.000997041)
(6.87005e-07 5.59245e-06 -0.00100594)
(6.86974e-07 3.74244e-06 -0.00100375)
(-1.16262e-06 5.5916e-06 -0.00099359)
(-1.16271e-06 3.74214e-06 -0.000996784)
(8.00728e-07 6.22169e-06 -0.00100662)
(8.00687e-07 4.09268e-06 -0.00100408)
(-1.32779e-06 6.22061e-06 -0.000992854)
(-1.32791e-06 4.09231e-06 -0.000996509)
(9.32705e-07 6.92324e-06 -0.00100738)
(9.3265e-07 4.47315e-06 -0.00100444)
(-1.51676e-06 6.9219e-06 -0.000992031)
(-1.51692e-06 4.47271e-06 -0.000996214)
(1.0858e-06 7.70564e-06 -0.00100823)
(1.08573e-06 4.88606e-06 -0.00100482)
(-1.73298e-06 7.70396e-06 -0.000991112)
(-1.73319e-06 4.88553e-06 -0.000995899)
(1.26334e-06 8.57845e-06 -0.00100919)
(1.26324e-06 5.33366e-06 -0.00100523)
(-1.98043e-06 8.57635e-06 -0.000990084)
(-1.9807e-06 5.33304e-06 -0.000995563)
(1.46914e-06 9.55241e-06 -0.00101025)
(1.469e-06 5.81831e-06 -0.00100567)
(-2.26366e-06 9.54978e-06 -0.000988934)
(-2.26402e-06 5.81756e-06 -0.000995208)
(1.70761e-06 1.06395e-05 -0.00101145)
(1.70744e-06 6.34238e-06 -0.00100613)
(-2.58788e-06 1.06362e-05 -0.000987648)
(-2.58837e-06 6.34149e-06 -0.000994831)
(1.98387e-06 1.18534e-05 -0.00101279)
(1.98363e-06 6.90829e-06 -0.00100663)
(-2.95909e-06 1.18492e-05 -0.000986209)
(-2.95973e-06 6.90723e-06 -0.000994435)
(2.30378e-06 1.32091e-05 -0.00101429)
(2.30346e-06 7.51845e-06 -0.00100716)
(-3.38413e-06 1.32039e-05 -0.000984598)
(-3.38498e-06 7.51719e-06 -0.000994019)
(2.67414e-06 1.47237e-05 -0.00101597)
(2.67371e-06 8.17523e-06 -0.00100772)
(-3.87088e-06 1.47172e-05 -0.000982794)
(-3.87201e-06 8.17373e-06 -0.000993584)
(3.10276e-06 1.64165e-05 -0.00101786)
(3.10218e-06 8.88091e-06 -0.00100831)
(-4.42835e-06 1.64082e-05 -0.000980773)
(-4.42984e-06 8.87912e-06 -0.000993134)
(3.59865e-06 1.83088e-05 -0.00101997)
(3.59788e-06 9.63761e-06 -0.00100892)
(-5.06686e-06 1.82985e-05 -0.000978508)
(-5.06884e-06 9.63549e-06 -0.00099267)
(4.17223e-06 2.04251e-05 -0.00102235)
(4.1712e-06 1.04473e-05 -0.00100957)
(-5.79827e-06 2.0412e-05 -0.000975969)
(-5.8009e-06 1.04447e-05 -0.000992195)
(4.83547e-06 2.27924e-05 -0.00102501)
(4.83409e-06 1.13115e-05 -0.00101023)
(-6.63615e-06 2.2776e-05 -0.000973122)
(-6.63964e-06 1.13084e-05 -0.000991714)
(5.60218e-06 2.54416e-05 -0.001028)
(5.60033e-06 1.22314e-05 -0.00101092)
(-7.59608e-06 2.54208e-05 -0.000969928)
(-7.6007e-06 1.22278e-05 -0.000991234)
(6.48828e-06 2.84071e-05 -0.00103136)
(6.48581e-06 1.32077e-05 -0.00101162)
(-8.6959e-06 2.83809e-05 -0.000966344)
(-8.70203e-06 1.32034e-05 -0.000990761)
(7.51211e-06 3.1728e-05 -0.00103514)
(7.5088e-06 1.42404e-05 -0.00101233)
(-9.95607e-06 3.16948e-05 -0.000962321)
(-9.96421e-06 1.42352e-05 -0.000990305)
(8.69479e-06 3.54481e-05 -0.00103938)
(8.69036e-06 1.53284e-05 -0.00101304)
(-1.14001e-05 3.54062e-05 -0.000957802)
(-1.14108e-05 1.53223e-05 -0.000989877)
(1.00607e-05 3.9617e-05 -0.00104415)
(1.00547e-05 1.64699e-05 -0.00101373)
(-1.30547e-05 3.95639e-05 -0.000952726)
(-1.3069e-05 1.64624e-05 -0.000989492)
(1.16378e-05 4.42906e-05 -0.00104952)
(1.16298e-05 1.76613e-05 -0.0010144)
(-1.49509e-05 4.42232e-05 -0.000947021)
(-1.49699e-05 1.76523e-05 -0.000989166)
(1.34583e-05 4.95318e-05 -0.00105556)
(1.34477e-05 1.88977e-05 -0.00101502)
(-1.7124e-05 4.94463e-05 -0.000940606)
(-1.71491e-05 1.88868e-05 -0.000988921)
(1.55596e-05 5.5412e-05 -0.00106236)
(1.55454e-05 2.0172e-05 -0.00101558)
(-1.96142e-05 5.53034e-05 -0.000933392)
(-1.96476e-05 2.01587e-05 -0.000988782)
(1.79842e-05 6.20115e-05 -0.00107001)
(1.79652e-05 2.14748e-05 -0.00101604)
(-2.2468e-05 6.18733e-05 -0.000925275)
(-2.25123e-05 2.14584e-05 -0.000988777)
(2.07811e-05 6.94202e-05 -0.00107864)
(2.07556e-05 2.27932e-05 -0.00101638)
(-2.57379e-05 6.92442e-05 -0.000916138)
(-2.57966e-05 2.27731e-05 -0.000988945)
(2.40059e-05 7.77368e-05 -0.00108837)
(2.39714e-05 2.41108e-05 -0.00101657)
(-2.94825e-05 7.75122e-05 -0.000905851)
(-2.95602e-05 2.4086e-05 -0.000989327)
(2.77196e-05 8.70632e-05 -0.00109934)
(2.76719e-05 2.54048e-05 -0.00101655)
(-3.37642e-05 8.67757e-05 -0.000894269)
(-3.38668e-05 2.53745e-05 -0.000989979)
(3.19826e-05 9.74823e-05 -0.00111171)
(3.19141e-05 2.66417e-05 -0.00101629)
(-3.86392e-05 9.71132e-05 -0.000881221)
(-3.87732e-05 2.66062e-05 -0.000990941)
(3.68341e-05 0.000108996 -0.00112558)
(3.67312e-05 2.77668e-05 -0.00101564)
(-4.41284e-05 0.000108522 -0.000866484)
(-4.4299e-05 2.77287e-05 -0.00099221)
(4.22362e-05 0.00012137 -0.00114099)
(4.20738e-05 2.86808e-05 -0.00101447)
(-5.01473e-05 0.000120766 -0.00084982)
(-5.03525e-05 2.86484e-05 -0.000993818)
(4.7946e-05 0.000133817 -0.00115847)
(4.76843e-05 2.91982e-05 -0.00101315)
(-5.63677e-05 0.000133073 -0.000831387)
(-5.65852e-05 2.91892e-05 -0.000996418)
(5.32956e-05 0.000144501 -0.00118029)
(5.28836e-05 2.90032e-05 -0.00101348)
(-6.19926e-05 0.000143657 -0.000812519)
(-6.21598e-05 2.90438e-05 -0.00100179)
(5.68996e-05 0.000149954 -0.00120737)
(5.6254e-05 2.77332e-05 -0.00101582)
(-6.54255e-05 0.000149207 -0.000794355)
(-6.53444e-05 2.78437e-05 -0.00100821)
(5.65954e-05 0.000145073 -0.0012184)
(5.58672e-05 2.51879e-05 -0.00100234)
(-6.37586e-05 0.000144579 -0.000766597)
(-6.34114e-05 2.53421e-05 -0.000995179)
(4.93124e-05 0.000122443 -0.00116066)
(4.86892e-05 2.17078e-05 -0.000933847)
(-5.24421e-05 0.000122612 -0.000703861)
(-5.19546e-05 2.18634e-05 -0.000926352)
(3.20539e-05 7.5754e-05 -0.000974294)
(3.1739e-05 1.74763e-05 -0.000781891)
(-2.71294e-05 7.60319e-05 -0.000546172)
(-2.66288e-05 1.75643e-05 -0.000902209)
(5.48989e-07 3.10575e-06 -0.00356824)
(-4.23727e-08 -3.0253e-06 -0.0030599)
(-6.37863e-06 1.95549e-06 -0.00209539)
(-1.08056e-05 -3.70642e-07 -0.0027419)
(-3.60155e-06 3.59175e-06 -8.50318e-05)
(-9.53686e-06 -1.29171e-05 -3.1737e-05)
(-3.32663e-05 4.44615e-06 -2.29584e-05)
(-5.85832e-05 6.87013e-06 -0.000125547)
(-0.000364008 8.88432e-05 -0.00417457)
(-0.000205827 0.000298474 -0.00370184)
(3.95574e-05 5.68662e-05 -0.00286088)
(6.53837e-05 0.000481924 -0.00335619)
(-3.56088e-05 1.44795e-05 -0.000564986)
(-8.9455e-05 0.00013046 -0.00264134)
(-3.89635e-05 -4.01472e-06 -0.000277706)
(-6.31506e-05 -8.34566e-06 -0.000225098)
(-0.000432646 -0.000204462 -0.00416692)
(-1.78622e-05 -1.34056e-05 -0.00117198)
(-0.000131398 -8.18243e-05 -0.00367049)
(-0.000132062 -4.26529e-05 -0.00364427)
(-6.88478e-06 -1.70062e-05 -0.000389801)
(-0.000271718 7.33743e-05 -0.00479476)
(-5.25665e-05 -4.34823e-05 -0.000397353)
(-5.94837e-05 4.74702e-05 -0.00403939)
(-0.00067513 -0.000436212 -0.00454136)
(1.04908e-05 -1.7195e-05 -0.000499438)
(-0.00014014 -0.000244671 -0.00320349)
(-7.01945e-05 -3.34229e-05 -0.000501416)
(-0.000293335 -0.000214079 -0.00450688)
(-0.000838968 -0.000380691 -0.00452574)
(-0.000207523 -0.000183245 -0.00137722)
(-0.000325893 -0.00020161 -0.00365653)
(4.61443e-06 2.0259e-05 -0.00104492)
(2.43396e-05 -3.08537e-05 -0.00030576)
(-0.000399165 0.000185575 -0.00259529)
(-0.000383396 -0.000155204 -0.00366187)
(0.00022467 0.000340978 -0.00493575)
(0.000682892 -0.000850171 -0.00423353)
(-2.07555e-05 3.99072e-05 -0.000276152)
(-5.27472e-05 -1.53679e-05 -0.00031364)
(0.000192769 3.7224e-05 -0.00139948)
(6.51959e-05 -5.11717e-05 -0.000306562)
(-8.02531e-05 6.90204e-05 -0.00486114)
(-0.000230966 -0.000669935 -0.002871)
(0.000747385 -0.000423621 -0.00396566)
(0.000512069 -0.000475552 -0.00393312)
(6.48075e-05 -1.46714e-05 -0.00103816)
(0.000212867 -0.000338003 -0.00386207)
(-1.942e-05 -2.08158e-05 -0.000158055)
(0.000143936 -0.000240012 -0.00139984)
(0.000139502 -0.000254838 -0.00229461)
(5.93326e-05 -1.11779e-06 -0.000356693)
(0.000450598 -0.000253941 -0.00481748)
(0.000309412 -0.000648244 -0.00467856)
(-0.000203282 -0.000232806 -0.00276534)
(-0.0001784 -0.000728009 -0.00464487)
(8.94212e-05 -0.000206301 -0.00273576)
(-1.30994e-05 -2.60102e-05 -0.000493542)
(-2.84391e-05 -4.27556e-05 -0.000199631)
(-0.000111616 -0.000842628 -0.00337942)
(5.96675e-05 -8.26838e-05 -0.00244865)
(0.000101332 -0.000329677 -0.00287326)
(-0.000122081 -0.000243934 -0.00318232)
(1.83855e-05 -2.15666e-05 -0.000219565)
(0.000285026 -6.29446e-05 -0.00366789)
(0.000384013 -0.000590721 -0.00216757)
(-3.73182e-05 -7.68074e-05 -0.000687585)
(-0.000185452 -0.00100482 -0.00506176)
(0.000233816 -7.26244e-05 -0.00263609)
(-4.14876e-07 2.49823e-05 -0.000125839)
(-2.21075e-05 -0.000109541 -0.00201065)
(4.29101e-05 -9.89585e-06 -0.000128663)
(4.04897e-05 1.60524e-05 -0.00241909)
(3.1865e-05 -8.82713e-05 -0.0044226)
(-0.000205848 1.09623e-05 -0.0024485)
(-0.000300439 -0.000297972 -0.00525377)
(-0.000210172 -3.37785e-05 -0.0038914)
(-7.83321e-06 2.09597e-05 -0.000623974)
(-7.2209e-05 -3.72552e-05 -9.65768e-05)
(-3.022e-05 6.95394e-05 -0.00142205)
(-9.88646e-05 -9.50395e-05 -0.00176659)
(-0.00017559 0.000215774 -0.00259514)
(0.0001371 -0.000143083 -0.00300486)
(0.000447897 0.000501026 -0.00494164)
(-8.89277e-05 -0.000100317 -0.00345547)
(-0.00010009 0.000168013 -0.001225)
(0.000100106 -7.79063e-05 -0.00106113)
(2.04738e-05 3.85312e-05 -0.000331659)
(-0.000121757 -0.000136501 -0.00276029)
(-0.000157425 -1.12931e-05 -0.00126539)
(2.95791e-05 -0.000247107 -0.00124021)
(1.71794e-05 -9.72351e-06 -0.00407981)
(-1.79067e-05 -1.15587e-05 -0.00111375)
(-9.17344e-05 5.74606e-06 -0.00101692)
(8.31491e-05 -0.000256924 -0.000901556)
(4.34597e-05 2.95198e-05 -0.00147001)
(4.21925e-06 2.27424e-06 -0.00184622)
(-3.65995e-05 4.87478e-05 -0.000921648)
(9.55964e-05 -0.000118055 -0.000786286)
(7.93203e-05 8.22917e-05 -0.00141016)
(-3.58774e-05 -3.5648e-05 -0.00105685)
(-6.0681e-05 9.03872e-05 -0.000856352)
(0.000122755 -0.000104463 -0.000834717)
(0.000110725 0.000112214 -0.0013104)
(-5.83892e-05 -5.67102e-05 -0.00107135)
(-7.19344e-05 0.000112342 -0.000826592)
(0.000130882 -9.2256e-05 -0.000830653)
(0.00012422 0.000120193 -0.00123819)
(-6.41748e-05 -6.23407e-05 -0.00109167)
(-7.08539e-05 0.000117214 -0.000839961)
(0.000126576 -7.93094e-05 -0.000846398)
(0.0001232 0.00011766 -0.00120595)
(-6.16027e-05 -6.01378e-05 -0.00108579)
(-6.45452e-05 0.000112043 -0.000862275)
(0.000116164 -6.76097e-05 -0.000866146)
(0.00011444 0.000110417 -0.00118542)
(-5.55849e-05 -5.46153e-05 -0.00107166)
(-5.68195e-05 0.000102368 -0.000880993)
(0.000103911 -5.77165e-05 -0.000883767)
(0.000102953 0.000100855 -0.00116519)
(-4.86182e-05 -4.80685e-05 -0.0010596)
(-4.9155e-05 9.14375e-05 -0.000896404)
(9.19102e-05 -4.93218e-05 -0.000898775)
(9.13117e-05 9.045e-05 -0.00114578)
(-4.18587e-05 -4.15963e-05 -0.0010501)
(-4.2125e-05 8.08234e-05 -0.000909791)
(8.09396e-05 -4.21179e-05 -0.000911797)
(8.05265e-05 8.02299e-05 -0.00112838)
(-3.57612e-05 -3.56766e-05 -0.00104217)
(-3.59177e-05 7.11311e-05 -0.000921569)
(7.11748e-05 -3.59176e-05 -0.000923187)
(7.0873e-05 7.07617e-05 -0.00111313)
(-3.04322e-05 -3.04568e-05 -0.00103535)
(-3.05365e-05 6.25044e-05 -0.000931864)
(6.25693e-05 -3.05872e-05 -0.000933133)
(6.23428e-05 6.22565e-05 -0.00109974)
(-2.58343e-05 -2.59296e-05 -0.00102952)
(-2.59082e-05 5.49035e-05 -0.000940821)
(5.50107e-05 -2.60111e-05 -0.000941797)
(5.48391e-05 5.47261e-05 -0.00108796)
(-2.18867e-05 -2.20308e-05 -0.00102456)
(-2.19402e-05 4.82303e-05 -0.000948605)
(4.83778e-05 -2.20865e-05 -0.000949339)
(4.82473e-05 4.80986e-05 -0.0010776)
(-1.8505e-05 -1.86838e-05 -0.00102035)
(-1.8544e-05 4.23778e-05 -0.000955371)
(4.25577e-05 -1.87235e-05 -0.000955906)
(4.24583e-05 4.22784e-05 -0.00106847)
(-1.5612e-05 -1.58155e-05 -0.00101678)
(-1.56405e-05 3.7246e-05 -0.000961252)
(3.74499e-05 -1.58443e-05 -0.000961623)
(3.73741e-05 3.71705e-05 -0.00106044)
(-1.31403e-05 -1.33606e-05 -0.00101376)
(-1.31611e-05 3.27454e-05 -0.000966363)
(3.29659e-05 -1.33815e-05 -0.0009666)
(3.29081e-05 3.26879e-05 -0.00105337)
(-1.10312e-05 -1.12619e-05 -0.00101121)
(-1.10463e-05 2.87976e-05 -0.000970804)
(2.90285e-05 -1.12772e-05 -0.000970933)
(2.89844e-05 2.87537e-05 -0.00104715)
(-9.23382e-06 -9.46999e-06 -0.00100906)
(-9.24479e-06 2.53337e-05 -0.000974663)
(2.557e-05 -9.48107e-06 -0.000974704)
(2.55364e-05 2.53002e-05 -0.00104166)
(-7.70427e-06 -7.94185e-06 -0.00100726)
(-7.71222e-06 2.22937e-05 -0.000978015)
(2.25313e-05 -7.94988e-06 -0.000977987)
(2.25056e-05 2.22681e-05 -0.00103683)
(-6.40464e-06 -6.6404e-06 -0.00100575)
(-6.4104e-06 1.96248e-05 -0.000980928)
(1.98607e-05 -6.64621e-06 -0.000980844)
(1.9841e-05 1.96053e-05 -0.00103257)
(-5.30222e-06 -5.53362e-06 -0.0010045)
(-5.30637e-06 1.72812e-05 -0.000983457)
(1.75127e-05 -5.53782e-06 -0.000983331)
(1.74977e-05 1.72663e-05 -0.00102881)
(-4.36877e-06 -4.59387e-06 -0.00100345)
(-4.37175e-06 1.52227e-05 -0.000985654)
(1.54479e-05 -4.59689e-06 -0.000985495)
(1.54364e-05 1.52113e-05 -0.00102549)
(-3.57997e-06 -3.79728e-06 -0.00100258)
(-3.58211e-06 1.3414e-05 -0.000987561)
(1.36314e-05 -3.79945e-06 -0.000987378)
(1.36226e-05 1.34053e-05 -0.00102257)
(-2.91487e-06 -3.12331e-06 -0.00100187)
(-2.9164e-06 1.18244e-05 -0.000989217)
(1.20329e-05 -3.12486e-06 -0.000989018)
(1.20262e-05 1.18177e-05 -0.00101999)
(-2.35542e-06 -2.55423e-06 -0.00100128)
(-2.35651e-06 1.04269e-05 -0.000990654)
(1.06258e-05 -2.55533e-06 -0.000990444)
(1.06206e-05 1.04218e-05 -0.00101771)
(-1.88609e-06 -2.07479e-06 -0.0010008)
(-1.88686e-06 9.19798e-06 -0.000991902)
(9.3867e-06 -2.07557e-06 -0.000991685)
(9.38274e-06 9.19406e-06 -0.0010157)
(-1.49354e-06 -1.67186e-06 -0.00100042)
(-1.49408e-06 8.1169e-06 -0.000992984)
(8.29524e-06 -1.67242e-06 -0.000992765)
(8.2922e-06 8.11389e-06 -0.00101392)
(-1.16633e-06 -1.33419e-06 -0.00100011)
(-1.16672e-06 7.16561e-06 -0.000993924)
(7.33348e-06 -1.33459e-06 -0.000993705)
(7.33115e-06 7.1633e-06 -0.00101234)
(-8.94684e-07 -1.05211e-06 -0.000999863)
(-8.94951e-07 6.32829e-06 -0.000994739)
(6.48572e-06 -1.05238e-06 -0.000994523)
(6.48393e-06 6.32652e-06 -0.00101095)
(-6.70142e-07 -8.17275e-07 -0.000999672)
(-6.70328e-07 5.59105e-06 -0.000995446)
(5.7382e-06 -8.17465e-07 -0.000995235)
(5.73682e-06 5.58969e-06 -0.00100972)
(-4.85433e-07 -6.22541e-07 -0.000999527)
(-4.85562e-07 4.94171e-06 -0.000996058)
(5.07882e-06 -6.22672e-07 -0.000995854)
(5.07776e-06 4.94066e-06 -0.00100864)
(-3.34333e-07 -4.6177e-07 -0.000999418)
(-3.3442e-07 4.36956e-06 -0.000996589)
(4.497e-06 -4.61859e-07 -0.000996393)
(4.49619e-06 4.36875e-06 -0.00100767)
(-2.11561e-07 -3.29728e-07 -0.00099934)
(-2.11621e-07 3.86526e-06 -0.000997049)
(3.98344e-06 -3.29789e-07 -0.000996862)
(3.98281e-06 3.86464e-06 -0.00100682)
(-1.12621e-07 -2.21955e-07 -0.000999287)
(-1.12661e-07 3.42063e-06 -0.000997447)
(3.52996e-06 -2.21997e-07 -0.000997271)
(3.52948e-06 3.42015e-06 -0.00100606)
(-3.35531e-08 -1.34577e-07 -0.000999256)
(-3.358e-08 3.02839e-06 -0.000997791)
(3.12942e-06 -1.34605e-07 -0.000997626)
(3.12905e-06 3.02802e-06 -0.00100539)
(2.91203e-08 -6.42323e-08 -0.000999243)
(2.91024e-08 2.68215e-06 -0.000998087)
(2.7755e-06 -6.42511e-08 -0.000997936)
(2.77522e-06 2.68186e-06 -0.0010048)
(7.82679e-08 -8.0605e-09 -0.000999243)
(7.82561e-08 2.37632e-06 -0.000998343)
(2.46266e-06 -8.07327e-09 -0.000998204)
(2.46243e-06 2.37611e-06 -0.00100427)
(1.1615e-07 3.63384e-08 -0.000999254)
(1.16142e-07 2.10614e-06 -0.000998567)
(2.18595e-06 3.63297e-08 -0.000998437)
(2.18578e-06 2.10597e-06 -0.0010038)
(1.44659e-07 7.10018e-08 -0.000999271)
(1.44653e-07 1.86739e-06 -0.000998761)
(1.94105e-06 7.09958e-08 -0.000998639)
(1.94092e-06 1.86726e-06 -0.00100339)
(1.6537e-07 9.74968e-08 -0.000999293)
(1.65366e-07 1.65637e-06 -0.00099893)
(1.72425e-06 9.74927e-08 -0.000998816)
(1.72415e-06 1.65627e-06 -0.00100302)
(1.79627e-07 1.17159e-07 -0.000999319)
(1.79624e-07 1.4698e-06 -0.000999077)
(1.53227e-06 1.17156e-07 -0.00099897)
(1.53219e-06 1.46972e-06 -0.00100269)
(1.88604e-07 1.31171e-07 -0.000999348)
(1.88602e-07 1.30477e-06 -0.000999204)
(1.36221e-06 1.31169e-07 -0.000999105)
(1.36215e-06 1.30471e-06 -0.0010024)
(1.93306e-07 1.40553e-07 -0.000999379)
(1.93305e-07 1.15876e-06 -0.000999315)
(1.21151e-06 1.40552e-07 -0.000999223)
(1.21146e-06 1.15871e-06 -0.00100215)
(1.94585e-07 1.46173e-07 -0.000999411)
(1.94584e-07 1.02951e-06 -0.00099941)
(1.07792e-06 1.46172e-07 -0.000999325)
(1.07788e-06 1.02947e-06 -0.00100192)
(1.93159e-07 1.48765e-07 -0.000999444)
(1.93158e-07 9.15047e-07 -0.000999493)
(9.59442e-07 1.48764e-07 -0.000999414)
(9.59414e-07 9.15019e-07 -0.00100171)
(1.89628e-07 1.48948e-07 -0.000999477)
(1.89627e-07 8.13643e-07 -0.000999565)
(8.54323e-07 1.48947e-07 -0.000999492)
(8.54301e-07 8.13621e-07 -0.00100153)
(1.84491e-07 1.4724e-07 -0.00099951)
(1.84491e-07 7.23766e-07 -0.000999627)
(7.61018e-07 1.47239e-07 -0.00099956)
(7.61001e-07 7.2375e-07 -0.00100137)
(1.78162e-07 1.44072e-07 -0.000999543)
(1.78162e-07 6.44074e-07 -0.00099968)
(6.78165e-07 1.44071e-07 -0.000999619)
(6.78152e-07 6.44061e-07 -0.00100123)
(1.70981e-07 1.39801e-07 -0.000999574)
(1.7098e-07 5.73383e-07 -0.000999727)
(6.04563e-07 1.398e-07 -0.00099967)
(6.04553e-07 5.73373e-07 -0.0010011)
(1.63225e-07 1.34721e-07 -0.000999605)
(1.63224e-07 5.10651e-07 -0.000999767)
(5.39155e-07 1.34721e-07 -0.000999714)
(5.39147e-07 5.10643e-07 -0.00100098)
(1.55119e-07 1.29074e-07 -0.000999634)
(1.55119e-07 4.54961e-07 -0.000999801)
(4.81006e-07 1.29074e-07 -0.000999753)
(4.81e-07 4.54955e-07 -0.00100088)
(1.46845e-07 1.23057e-07 -0.000999661)
(1.46844e-07 4.05506e-07 -0.000999831)
(4.29294e-07 1.23056e-07 -0.000999787)
(4.29289e-07 4.05501e-07 -0.00100079)
(1.38546e-07 1.16827e-07 -0.000999687)
(1.38546e-07 3.61572e-07 -0.000999856)
(3.83291e-07 1.16827e-07 -0.000999816)
(3.83287e-07 3.61568e-07 -0.00100071)
(1.30337e-07 1.10512e-07 -0.000999712)
(1.30337e-07 3.22531e-07 -0.000999878)
(3.42356e-07 1.10512e-07 -0.000999841)
(3.42353e-07 3.22528e-07 -0.00100064)
(1.22304e-07 1.04212e-07 -0.000999735)
(1.22304e-07 2.8783e-07 -0.000999897)
(3.05922e-07 1.04212e-07 -0.000999863)
(3.0592e-07 2.87828e-07 -0.00100057)
(1.14516e-07 9.80075e-08 -0.000999757)
(1.14516e-07 2.56979e-07 -0.000999913)
(2.73488e-07 9.80073e-08 -0.000999883)
(2.73486e-07 2.56977e-07 -0.00100051)
(1.07021e-07 9.19577e-08 -0.000999777)
(1.07021e-07 2.29547e-07 -0.000999927)
(2.4461e-07 9.19576e-08 -0.000999899)
(2.44609e-07 2.29545e-07 -0.00100046)
(9.98553e-08 8.61091e-08 -0.000999796)
(9.98552e-08 2.05151e-07 -0.000999939)
(2.18898e-07 8.6109e-08 -0.000999913)
(2.18896e-07 2.0515e-07 -0.00100041)
(9.30423e-08 8.04953e-08 -0.000999813)
(9.30423e-08 1.83456e-07 -0.000999949)
(1.96003e-07 8.04952e-08 -0.000999926)
(1.96002e-07 1.83455e-07 -0.00100037)
(8.65973e-08 7.51405e-08 -0.00099983)
(8.65972e-08 1.64161e-07 -0.000999958)
(1.75618e-07 7.51404e-08 -0.000999937)
(1.75618e-07 1.64161e-07 -0.00100033)
(8.05278e-08 7.00607e-08 -0.000999845)
(8.05278e-08 1.47005e-07 -0.000999965)
(1.57472e-07 7.00606e-08 -0.000999946)
(1.57471e-07 1.47004e-07 -0.0010003)
(7.4836e-08 6.52658e-08 -0.000999859)
(7.4836e-08 1.31752e-07 -0.000999971)
(1.41322e-07 6.52657e-08 -0.000999954)
(1.41322e-07 1.31752e-07 -0.00100027)
(6.95196e-08 6.07606e-08 -0.000999872)
(6.95196e-08 1.18197e-07 -0.000999977)
(1.26956e-07 6.07605e-08 -0.000999961)
(1.26955e-07 1.18196e-07 -0.00100024)
(6.4573e-08 5.65461e-08 -0.000999883)
(6.4573e-08 1.06155e-07 -0.000999981)
(1.14182e-07 5.6546e-08 -0.000999967)
(1.14182e-07 1.06155e-07 -0.00100021)
(5.99882e-08 5.26203e-08 -0.000999894)
(5.99881e-08 9.54665e-08 -0.000999985)
(1.02834e-07 5.26203e-08 -0.000999972)
(1.02834e-07 9.54663e-08 -0.00100019)
(5.57554e-08 4.8979e-08 -0.000999905)
(5.57554e-08 8.59865e-08 -0.000999988)
(9.27628e-08 4.8979e-08 -0.000999976)
(9.27627e-08 8.59863e-08 -0.00100017)
(5.18639e-08 4.56164e-08 -0.000999914)
(5.18639e-08 7.75883e-08 -0.00099999)
(8.38358e-08 4.56164e-08 -0.00099998)
(8.38357e-08 7.75882e-08 -0.00100015)
(4.83023e-08 4.25255e-08 -0.000999923)
(4.83023e-08 7.01599e-08 -0.000999992)
(7.59367e-08 4.25255e-08 -0.000999983)
(7.59366e-08 7.01598e-08 -0.00100014)
(4.50586e-08 3.96986e-08 -0.000999931)
(4.50586e-08 6.36023e-08 -0.000999994)
(6.89623e-08 3.96986e-08 -0.000999986)
(6.89622e-08 6.36022e-08 -0.00100012)
(4.2121e-08 3.71273e-08 -0.000999938)
(4.2121e-08 5.78282e-08 -0.000999995)
(6.28219e-08 3.71273e-08 -0.000999988)
(6.28219e-08 5.78281e-08 -0.00100011)
(3.9478e-08 3.48033e-08 -0.000999945)
(3.9478e-08 5.27613e-08 -0.000999996)
(5.74361e-08 3.48033e-08 -0.00099999)
(5.7436e-08 5.27613e-08 -0.00100009)
(3.71189e-08 3.27188e-08 -0.000999951)
(3.71189e-08 4.83355e-08 -0.000999996)
(5.27357e-08 3.27188e-08 -0.000999991)
(5.27356e-08 4.83354e-08 -0.00100008)
(3.5036e-08 3.08688e-08 -0.000999957)
(3.5036e-08 4.44953e-08 -0.000999997)
(4.86625e-08 3.08688e-08 -0.000999992)
(4.86625e-08 4.44953e-08 -0.00100007)
(3.32295e-08 2.92571e-08 -0.000999962)
(3.32295e-08 4.12017e-08 -0.000999997)
(4.51741e-08 2.92571e-08 -0.000999993)
(4.5174e-08 4.12017e-08 -0.00100006)
(3.17011e-08 2.78891e-08 -0.000999968)
(3.17011e-08 3.84773e-08 -0.000999997)
(4.22893e-08 2.78891e-08 -0.000999994)
(4.22893e-08 3.84773e-08 -0.00100005)
(3.05634e-08 2.68757e-08 -0.000999973)
(3.05633e-08 3.63818e-08 -0.000999997)
(4.00695e-08 2.68757e-08 -0.000999995)
(4.00695e-08 3.63818e-08 -0.00100004)
(2.99586e-08 2.63412e-08 -0.000999977)
(2.99586e-08 3.52112e-08 -0.000999997)
(3.88285e-08 2.63412e-08 -0.000999995)
(3.88285e-08 3.52111e-08 -0.00100003)
)
;

boundaryField
{
    inlet
    {
        type            zeroGradient;
    }
    outlet
    {
        type            zeroGradient;
    }
    repeat_boundary
    {
        type            slip;
    }
}


// ************************************************************************* //
