/*--------------------------------*- C++ -*----------------------------------*\
| =========                 |                                                 |
| \\      /  F ield         | OpenFOAM: The Open Source CFD Toolbox           |
|  \\    /   O peration     | Version:  5.x                                   |
|   \\  /    A nd           | Web:      www.OpenFOAM.org                      |
|    \\/     M anipulation  |                                                 |
\*---------------------------------------------------------------------------*/
FoamFile
{
    version     2.0;
    format      ascii;
    class       volVectorField;
    location    "900";
    object      stored_U;
}
// * * * * * * * * * * * * * * * * * * * * * * * * * * * * * * * * * * * * * //

dimensions      [0 1 -1 0 0 0 0];

internalField   nonuniform List<vector> 
90
(
(3.76587e-09 -5.65447e-09 -0.00100004)
(6.32895e-09 -1.00078e-08 -0.00100004)
(9.58636e-09 -1.54172e-08 -0.00100005)
(1.33407e-08 -2.15905e-08 -0.00100005)
(1.77292e-08 -2.8752e-08 -0.00100006)
(2.29804e-08 -3.72483e-08 -0.00100007)
(2.93881e-08 -4.75125e-08 -0.00100008)
(3.73255e-08 -6.00829e-08 -0.0010001)
(4.72672e-08 -7.56323e-08 -0.00100012)
(5.98188e-08 -9.50045e-08 -0.00100015)
(7.57549e-08 -1.19262e-07 -0.00100019)
(9.60688e-08 -1.49745e-07 -0.00100023)
(1.22038e-07 -1.88152e-07 -0.00100029)
(1.55312e-07 -2.36632e-07 -0.00100036)
(1.98023e-07 -2.97912e-07 -0.00100046)
(2.52933e-07 -3.75538e-07 -0.00100057)
(3.23635e-07 -4.74047e-07 -0.00100072)
(4.14809e-07 -5.99269e-07 -0.00100091)
(5.32566e-07 -7.58715e-07 -0.00100116)
(6.84897e-07 -9.62079e-07 -0.00100146)
(8.82272e-07 -1.22189e-06 -0.00100186)
(1.13838e-06 -1.5544e-06 -0.00100236)
(1.4711e-06 -1.98064e-06 -0.001003)
(1.904e-06 -2.52797e-06 -0.00100383)
(2.46791e-06 -3.23194e-06 -0.00100489)
(3.20344e-06 -4.13888e-06 -0.00100625)
(4.16413e-06 -5.3092e-06 -0.001008)
(5.42052e-06 -6.82185e-06 -0.00101027)
(7.06568e-06 -8.78021e-06 -0.00101319)
(9.22263e-06 -1.13199e-05 -0.00101696)
(1.20541e-05 -1.46189e-05 -0.00102183)
(1.57762e-05 -1.89108e-05 -0.00102824)
(2.06886e-05 -2.45182e-05 -0.00103714)
(2.72521e-05 -3.19465e-05 -0.00104887)
(3.60569e-05 -4.1831e-05 -0.00105789)
(4.37678e-05 -5.01975e-05 -0.00105453)
(4.98799e-05 -5.52016e-05 -0.00109997)
(4.5704e-05 -4.70619e-05 -0.00135527)
(2.85663e-05 -2.94673e-05 -0.000377116)
(-8.13861e-05 0.000119606 -0.00276908)
(1.95837e-06 -6.60152e-06 -0.00130801)
(6.41262e-05 -0.000110223 -0.00293964)
(5.3093e-05 -5.92015e-05 -0.00231767)
(8.09823e-06 -7.50211e-05 -0.00316393)
(-5.70169e-05 -7.34895e-05 -0.00216177)
(-7.37022e-05 -4.37441e-05 -0.00320976)
(-4.62358e-05 3.58202e-05 -0.00224403)
(-6.39526e-05 0.000155354 -0.00334897)
(-3.21298e-05 3.15028e-05 -0.00180175)
(-8.27939e-05 -1.80603e-05 -0.00331907)
(-5.83458e-05 -3.32633e-05 -0.00204837)
(-6.84966e-05 -2.72246e-05 -0.00208096)
(-2.20316e-05 3.66585e-05 -0.00202821)
(4.22972e-05 8.11712e-05 -0.00149917)
(-1.20517e-05 5.68926e-05 -0.000903164)
(-1.29253e-05 3.60659e-05 -0.00102588)
(-7.94183e-06 2.38966e-05 -0.00102032)
(-4.62094e-06 1.73647e-05 -0.00101152)
(-2.48203e-06 1.27852e-05 -0.00100657)
(-1.04441e-06 9.38755e-06 -0.00100374)
(-1.00162e-07 6.86244e-06 -0.00100187)
(4.93062e-07 4.9924e-06 -0.00100063)
(8.43488e-07 3.61086e-06 -0.000999828)
(1.02622e-06 2.59418e-06 -0.000999335)
(1.09609e-06 1.84893e-06 -0.000999058)
(1.09235e-06 1.30503e-06 -0.000998926)
(1.0427e-06 9.10094e-07 -0.000998891)
(9.66407e-07 6.25066e-07 -0.000998917)
(8.76688e-07 4.20845e-07 -0.00099898)
(7.82407e-07 2.75799e-07 -0.000999064)
(6.89344e-07 1.73879e-07 -0.000999157)
(6.01083e-07 1.03231e-07 -0.000999251)
(5.19636e-07 5.5198e-08 -0.000999342)
(4.45911e-07 2.3527e-08 -0.000999427)
(3.80304e-07 3.26975e-09 -0.000999506)
(3.22746e-07 -9.22945e-09 -0.000999578)
(2.72775e-07 -1.64404e-08 -0.000999642)
(2.29741e-07 -2.00498e-08 -0.000999698)
(1.92955e-07 -2.13005e-08 -0.000999748)
(1.61731e-07 -2.10842e-08 -0.000999791)
(1.35404e-07 -2.00215e-08 -0.000999828)
(1.13349e-07 -1.85307e-08 -0.000999859)
(9.49951e-08 -1.68868e-08 -0.000999886)
(7.98291e-08 -1.52649e-08 -0.000999909)
(6.73995e-08 -1.37709e-08 -0.000999928)
(5.73071e-08 -1.24638e-08 -0.000999943)
(4.91834e-08 -1.13648e-08 -0.000999956)
(4.26851e-08 -1.04533e-08 -0.000999966)
(3.7708e-08 -9.68467e-09 -0.000999977)
(3.57014e-08 -9.33159e-09 -0.000999983)
)
;

boundaryField
{
    inlet
    {
        type            calculated;
        value           uniform (3.57014e-08 -9.33159e-09 -0.000999983);
    }
    outlet
    {
        type            calculated;
        value           uniform (3.76587e-09 -5.65447e-09 -0.00100004);
    }
    repeat_boundary
    {
        type            calculated;
        value           nonuniform List<vector> 
180
(
(3.76587e-09 0 -0.00100004)
(6.32895e-09 0 -0.00100004)
(9.58636e-09 0 -0.00100005)
(1.33407e-08 0 -0.00100005)
(1.77292e-08 0 -0.00100006)
(2.29804e-08 0 -0.00100007)
(2.93881e-08 0 -0.00100008)
(3.73255e-08 0 -0.0010001)
(4.72672e-08 0 -0.00100012)
(5.98188e-08 0 -0.00100015)
(7.57549e-08 0 -0.00100019)
(9.60688e-08 0 -0.00100023)
(1.22038e-07 0 -0.00100029)
(1.55312e-07 0 -0.00100036)
(1.98023e-07 0 -0.00100046)
(2.52933e-07 0 -0.00100057)
(3.23635e-07 0 -0.00100072)
(4.14809e-07 0 -0.00100091)
(5.32566e-07 0 -0.00100116)
(6.84897e-07 0 -0.00100146)
(8.82272e-07 0 -0.00100186)
(1.13838e-06 0 -0.00100236)
(1.4711e-06 0 -0.001003)
(1.904e-06 0 -0.00100383)
(2.46791e-06 0 -0.00100489)
(3.20344e-06 0 -0.00100625)
(4.16413e-06 0 -0.001008)
(5.42052e-06 0 -0.00101027)
(7.06568e-06 0 -0.00101319)
(9.22263e-06 0 -0.00101696)
(1.20541e-05 0 -0.00102183)
(1.57762e-05 0 -0.00102824)
(2.06886e-05 0 -0.00103714)
(2.72521e-05 0 -0.00104887)
(3.60569e-05 0 -0.00105789)
(4.37678e-05 0 -0.00105453)
(4.98799e-05 0 -0.00109997)
(4.5704e-05 0 -0.00135527)
(2.85663e-05 0 -0.000377116)
(-8.13861e-05 0 -0.00276908)
(1.95837e-06 0 -0.00130801)
(6.41262e-05 0 -0.00293964)
(5.3093e-05 0 -0.00231767)
(8.09823e-06 0 -0.00316393)
(-5.70169e-05 0 -0.00216177)
(-7.37022e-05 0 -0.00320976)
(-4.62358e-05 0 -0.00224403)
(-6.39526e-05 0 -0.00334897)
(-3.21298e-05 0 -0.00180175)
(-8.27939e-05 0 -0.00331907)
(-5.83458e-05 0 -0.00204837)
(-6.84966e-05 0 -0.00208096)
(-2.20316e-05 0 -0.00202821)
(4.22972e-05 0 -0.00149917)
(-1.20517e-05 0 -0.000903164)
(-1.29253e-05 0 -0.00102588)
(-7.94183e-06 0 -0.00102032)
(-4.62094e-06 0 -0.00101152)
(-2.48203e-06 0 -0.00100657)
(-1.04441e-06 0 -0.00100374)
(-1.00162e-07 0 -0.00100187)
(4.93062e-07 0 -0.00100063)
(8.43488e-07 0 -0.000999828)
(1.02622e-06 0 -0.000999335)
(1.09609e-06 0 -0.000999058)
(1.09235e-06 0 -0.000998926)
(1.0427e-06 0 -0.000998891)
(9.66407e-07 0 -0.000998917)
(8.76688e-07 0 -0.00099898)
(7.82407e-07 0 -0.000999064)
(6.89344e-07 0 -0.000999157)
(6.01083e-07 0 -0.000999251)
(5.19636e-07 0 -0.000999342)
(4.45911e-07 0 -0.000999427)
(3.80304e-07 0 -0.000999506)
(3.22746e-07 0 -0.000999578)
(2.72775e-07 0 -0.000999642)
(2.29741e-07 0 -0.000999698)
(1.92955e-07 0 -0.000999748)
(1.61731e-07 0 -0.000999791)
(1.35404e-07 0 -0.000999828)
(1.13349e-07 0 -0.000999859)
(9.49951e-08 0 -0.000999886)
(7.98291e-08 0 -0.000999909)
(6.73995e-08 0 -0.000999928)
(5.73071e-08 0 -0.000999943)
(4.91834e-08 0 -0.000999956)
(4.26851e-08 0 -0.000999966)
(3.7708e-08 0 -0.000999977)
(3.57014e-08 0 -0.000999983)
(0 -5.65447e-09 -0.00100004)
(0 -1.00078e-08 -0.00100004)
(0 -1.54172e-08 -0.00100005)
(0 -2.15905e-08 -0.00100005)
(0 -2.8752e-08 -0.00100006)
(0 -3.72483e-08 -0.00100007)
(0 -4.75125e-08 -0.00100008)
(0 -6.00829e-08 -0.0010001)
(0 -7.56323e-08 -0.00100012)
(0 -9.50045e-08 -0.00100015)
(0 -1.19262e-07 -0.00100019)
(0 -1.49745e-07 -0.00100023)
(0 -1.88152e-07 -0.00100029)
(0 -2.36632e-07 -0.00100036)
(0 -2.97912e-07 -0.00100046)
(0 -3.75538e-07 -0.00100057)
(0 -4.74047e-07 -0.00100072)
(0 -5.99269e-07 -0.00100091)
(0 -7.58715e-07 -0.00100116)
(0 -9.62079e-07 -0.00100146)
(0 -1.22189e-06 -0.00100186)
(0 -1.5544e-06 -0.00100236)
(0 -1.98064e-06 -0.001003)
(0 -2.52797e-06 -0.00100383)
(0 -3.23194e-06 -0.00100489)
(0 -4.13888e-06 -0.00100625)
(0 -5.3092e-06 -0.001008)
(0 -6.82185e-06 -0.00101027)
(0 -8.78021e-06 -0.00101319)
(0 -1.13199e-05 -0.00101696)
(0 -1.46189e-05 -0.00102183)
(0 -1.89108e-05 -0.00102824)
(0 -2.45182e-05 -0.00103714)
(0 -3.19465e-05 -0.00104887)
(0 -4.1831e-05 -0.00105789)
(0 -5.01975e-05 -0.00105453)
(0 -5.52016e-05 -0.00109997)
(0 -4.70619e-05 -0.00135527)
(0 -2.94673e-05 -0.000377116)
(0 0.000119606 -0.00276908)
(0 -6.60152e-06 -0.00130801)
(0 -0.000110223 -0.00293964)
(0 -5.92015e-05 -0.00231767)
(0 -7.50211e-05 -0.00316393)
(0 -7.34895e-05 -0.00216177)
(0 -4.37441e-05 -0.00320976)
(0 3.58202e-05 -0.00224403)
(0 0.000155354 -0.00334897)
(0 3.15028e-05 -0.00180175)
(0 -1.80603e-05 -0.00331907)
(0 -3.32633e-05 -0.00204837)
(0 -2.72246e-05 -0.00208096)
(0 3.66585e-05 -0.00202821)
(0 8.11712e-05 -0.00149917)
(0 5.68926e-05 -0.000903164)
(0 3.60659e-05 -0.00102588)
(0 2.38966e-05 -0.00102032)
(0 1.73647e-05 -0.00101152)
(0 1.27852e-05 -0.00100657)
(0 9.38755e-06 -0.00100374)
(0 6.86244e-06 -0.00100187)
(0 4.9924e-06 -0.00100063)
(0 3.61086e-06 -0.000999828)
(0 2.59418e-06 -0.000999335)
(0 1.84893e-06 -0.000999058)
(0 1.30503e-06 -0.000998926)
(0 9.10094e-07 -0.000998891)
(0 6.25066e-07 -0.000998917)
(0 4.20845e-07 -0.00099898)
(0 2.75799e-07 -0.000999064)
(0 1.73879e-07 -0.000999157)
(0 1.03231e-07 -0.000999251)
(0 5.5198e-08 -0.000999342)
(0 2.3527e-08 -0.000999427)
(0 3.26975e-09 -0.000999506)
(0 -9.22945e-09 -0.000999578)
(0 -1.64404e-08 -0.000999642)
(0 -2.00498e-08 -0.000999698)
(0 -2.13005e-08 -0.000999748)
(0 -2.10842e-08 -0.000999791)
(0 -2.00215e-08 -0.000999828)
(0 -1.85307e-08 -0.000999859)
(0 -1.68868e-08 -0.000999886)
(0 -1.52649e-08 -0.000999909)
(0 -1.37709e-08 -0.000999928)
(0 -1.24638e-08 -0.000999943)
(0 -1.13648e-08 -0.000999956)
(0 -1.04533e-08 -0.000999966)
(0 -9.68467e-09 -0.000999977)
(0 -9.33159e-09 -0.000999983)
)
;
    }
    procBoundary2to0
    {
        type            processor;
        value           nonuniform List<vector> 
90
(
(1.86701e-09 -5.65425e-09 -0.000999988)
(2.54487e-09 -1.00078e-08 -0.000999987)
(3.50069e-09 -1.54176e-08 -0.000999985)
(4.56308e-09 -2.15908e-08 -0.000999982)
(5.69775e-09 -2.8752e-08 -0.000999978)
(6.88267e-09 -3.72477e-08 -0.000999973)
(8.07546e-09 -4.75113e-08 -0.000999965)
(9.2005e-09 -6.00818e-08 -0.000999955)
(1.01374e-08 -7.56308e-08 -0.000999943)
(1.07064e-08 -9.50023e-08 -0.000999926)
(1.06488e-08 -1.19258e-07 -0.000999905)
(9.59974e-09 -1.4974e-07 -0.000999877)
(7.05187e-09 -1.88143e-07 -0.000999842)
(2.31269e-09 -2.36618e-07 -0.000999798)
(-5.55016e-09 -2.97889e-07 -0.00099974)
(-1.79529e-08 -3.755e-07 -0.000999666)
(-3.68263e-08 -4.73985e-07 -0.00099957)
(-6.48165e-08 -5.99167e-07 -0.000999446)
(-1.05549e-07 -7.58547e-07 -0.000999285)
(-1.63981e-07 -9.61799e-07 -0.000999075)
(-2.46877e-07 -1.22143e-06 -0.000998803)
(-3.63408e-07 -1.55361e-06 -0.000998447)
(-5.25904e-07 -1.97933e-06 -0.000997983)
(-7.51163e-07 -2.52575e-06 -0.000997377)
(-1.06168e-06 -3.22819e-06 -0.000996584)
(-1.48781e-06 -4.1325e-06 -0.000995545)
(-2.0704e-06 -5.29832e-06 -0.000994184)
(-2.86418e-06 -6.80324e-06 -0.000992401)
(-3.94239e-06 -8.74837e-06 -0.00099006)
(-5.40312e-06 -1.12658e-05 -0.000986981)
(-7.37779e-06 -1.45286e-05 -0.000982928)
(-1.00437e-05 -1.87674e-05 -0.000977694)
(-1.36497e-05 -2.43026e-05 -0.000971111)
(-1.85622e-05 -3.15816e-05 -0.000962052)
(-2.51654e-05 -4.09758e-05 -0.000945582)
(-3.19633e-05 -5.01893e-05 -0.000921059)
(-3.60104e-05 -5.5064e-05 -0.000916594)
(-3.33758e-05 -4.96057e-05 -0.00105006)
(-2.54507e-05 -3.40292e-05 -0.000362121)
(0.000103322 0.000137799 -0.00194679)
(-5.74486e-06 -8.26324e-06 -0.0016921)
(-3.69587e-05 -6.83004e-05 -0.00154091)
(-3.37633e-05 -5.81962e-05 -0.00241105)
(-6.61543e-05 -5.90205e-05 -0.00214473)
(-8.39572e-05 -7.69911e-05 -0.0024337)
(-5.13311e-05 -3.69758e-05 -0.00181218)
(-6.43256e-05 2.61345e-05 -0.00260187)
(-1.74386e-05 5.41987e-05 -0.00174618)
(1.50135e-05 8.6011e-05 -0.00234286)
(-5.24083e-05 -2.30393e-05 -0.00227988)
(-3.25871e-05 -3.80405e-05 -0.00165633)
(-1.27437e-05 -1.04506e-05 -0.00162185)
(2.36524e-05 6.16998e-05 -0.00180689)
(4.21189e-05 3.48494e-05 -0.00102177)
(5.91024e-05 3.98661e-05 -0.000867796)
(6.01122e-05 3.1481e-05 -0.000912271)
(4.90362e-05 2.37253e-05 -0.000940618)
(3.85033e-05 1.75355e-05 -0.000954963)
(3.01213e-05 1.29016e-05 -0.000964997)
(2.35912e-05 9.45141e-06 -0.000972868)
(1.85105e-05 6.89627e-06 -0.000979003)
(1.45509e-05 5.01025e-06 -0.000983735)
(1.14585e-05 3.62038e-06 -0.000987383)
(9.03851e-06 2.59928e-06 -0.000990199)
(7.14119e-06 1.85165e-06 -0.000992376)
(5.65103e-06 1.30648e-06 -0.000994061)
(4.47866e-06 9.10869e-07 -0.000995367)
(3.55482e-06 6.25476e-07 -0.000996381)
(2.82568e-06 4.21062e-07 -0.00099717)
(2.24934e-06 2.75913e-07 -0.000997783)
(1.79312e-06 1.73939e-07 -0.000998261)
(1.43148e-06 1.03262e-07 -0.000998634)
(1.14448e-06 5.52142e-08 -0.000998927)
(9.16527e-07 2.35354e-08 -0.000999156)
(7.35174e-07 3.27412e-09 -0.000999334)
(5.90615e-07 -9.22715e-09 -0.000999474)
(4.7522e-07 -1.64392e-08 -0.000999584)
(3.83012e-07 -2.00492e-08 -0.000999672)
(3.0925e-07 -2.13001e-08 -0.000999741)
(2.5018e-07 -2.10839e-08 -0.000999796)
(2.02836e-07 -2.00213e-08 -0.00099984)
(1.64876e-07 -1.85305e-08 -0.000999875)
(1.34453e-07 -1.68867e-08 -0.000999903)
(1.10109e-07 -1.52649e-08 -0.000999925)
(9.06918e-08 -1.37711e-08 -0.000999942)
(7.52886e-08 -1.24639e-08 -0.000999955)
(6.31415e-08 -1.13645e-08 -0.000999966)
(5.36012e-08 -1.04507e-08 -0.000999974)
(4.64911e-08 -9.6872e-09 -0.000999982)
(4.35589e-08 -9.33169e-09 -0.000999985)
)
;
    }
    procBoundary2to3
    {
        type            processor;
        value           nonuniform List<vector> 
90
(
(3.76563e-09 -3.75562e-09 -0.00100001)
(6.32898e-09 -6.22363e-09 -0.00100001)
(9.58671e-09 -9.33143e-09 -0.00100001)
(1.33409e-08 -1.28128e-08 -0.00100001)
(1.77292e-08 -1.67205e-08 -0.00100001)
(2.29801e-08 -2.11506e-08 -0.00100001)
(2.93875e-08 -2.61998e-08 -0.00100001)
(3.73249e-08 -3.19578e-08 -0.00100001)
(4.72664e-08 -3.85021e-08 -0.00100001)
(5.98176e-08 -4.58915e-08 -0.001)
(7.57529e-08 -5.41549e-08 -0.000999999)
(9.60655e-08 -6.32748e-08 -0.000999993)
(1.22033e-07 -7.31632e-08 -0.000999984)
(1.55304e-07 -8.36289e-08 -0.00099997)
(1.98009e-07 -9.43333e-08 -0.000999951)
(2.5291e-07 -1.04642e-07 -0.000999924)
(3.23596e-07 -1.1357e-07 -0.000999886)
(4.14745e-07 -1.19617e-07 -0.000999833)
(5.32458e-07 -1.20557e-07 -0.000999758)
(6.84717e-07 -1.13128e-07 -0.000999655)
(8.81967e-07 -9.26269e-08 -0.000999512)
(1.13787e-06 -5.24089e-08 -0.000999315)
(1.47023e-06 1.66875e-08 -0.000999045)
(1.9025e-06 1.2773e-07 -0.000998676)
(2.46531e-06 2.98512e-07 -0.000998174)
(3.19892e-06 5.53795e-07 -0.000997489)
(4.15625e-06 9.27678e-07 -0.00099656)
(5.40676e-06 1.46671e-06 -0.000995302)
(7.04169e-06 2.23422e-06 -0.000993601)
(9.1812e-06 3.31629e-06 -0.000991298)
(1.19844e-05 4.83008e-06 -0.000988181)
(1.56655e-05 6.93626e-06 -0.000984078)
(2.05222e-05 9.8611e-06 -0.000978968)
(2.69602e-05 1.39311e-05 -0.000972019)
(3.5344e-05 1.952e-05 -0.000957707)
(4.41345e-05 2.5803e-05 -0.000930154)
(4.96689e-05 3.05797e-05 -0.000922646)
(4.88678e-05 3.23476e-05 -0.00110444)
(3.56463e-05 2.59537e-05 -0.000299343)
(-8.37547e-05 -5.29718e-05 -0.00210391)
(3.2334e-06 9.85446e-07 -0.00158025)
(3.87454e-05 5.63318e-06 -0.00162162)
(6.22028e-05 3.54715e-05 -0.0028891)
(-6.23571e-07 -3.20462e-06 -0.00152061)
(-6.42508e-05 -5.49629e-05 -0.0027736)
(-5.10308e-05 -2.10338e-05 -0.00200094)
(-5.15185e-05 7.47838e-05 -0.00253079)
(-4.3543e-05 5.39955e-05 -0.00199955)
(-3.97179e-05 1.68603e-05 -0.00268395)
(-4.70929e-05 -4.72206e-05 -0.00162963)
(-7.80434e-05 -5.75955e-05 -0.00276642)
(-2.92848e-05 -3.68885e-05 -0.00112751)
(-6.15909e-05 -4.90921e-05 -0.0020064)
(9.46594e-06 -4.14123e-05 -0.00108754)
(-1.98004e-05 -4.74302e-05 -0.000944377)
(-1.34261e-05 -4.17658e-05 -0.000953515)
(-8.17609e-06 -3.32463e-05 -0.000975205)
(-4.77234e-06 -2.56514e-05 -0.000983072)
(-2.56745e-06 -1.97425e-05 -0.000987707)
(-1.08938e-06 -1.52008e-05 -0.000991175)
(-1.2337e-07 -1.17185e-05 -0.000993782)
(4.81152e-07 -9.04634e-06 -0.000995674)
(8.37367e-07 -6.99168e-06 -0.000997033)
(1.02305e-06 -5.40996e-06 -0.000998012)
(1.09444e-06 -4.19085e-06 -0.000998709)
(1.09146e-06 -3.25019e-06 -0.0009992)
(1.0422e-06 -2.52363e-06 -0.000999542)
(9.66119e-07 -1.96191e-06 -0.000999776)
(8.76509e-07 -1.52723e-06 -0.000999933)
(7.82289e-07 -1.19055e-06 -0.00100003)
(6.89263e-07 -9.29529e-07 -0.00100009)
(6.01025e-07 -7.26937e-07 -0.00100013)
(5.19594e-07 -5.69504e-07 -0.00100014)
(4.4588e-07 -4.46999e-07 -0.00100015)
(3.80282e-07 -3.51544e-07 -0.00100014)
(3.2273e-07 -2.77065e-07 -0.00100013)
(2.72764e-07 -2.18864e-07 -0.00100012)
(2.29732e-07 -1.73308e-07 -0.00100011)
(1.92949e-07 -1.37588e-07 -0.0010001)
(1.61727e-07 -1.09528e-07 -0.00100009)
(1.35401e-07 -8.745e-08 -0.00100008)
(1.13347e-07 -7.00556e-08 -0.00100007)
(9.49938e-08 -5.63437e-08 -0.00100006)
(7.98282e-08 -4.55437e-08 -0.00100005)
(6.73984e-08 -3.70631e-08 -0.00100004)
(5.73053e-08 -3.04452e-08 -0.00100004)
(4.91782e-08 -2.53239e-08 -0.00100003)
(4.26671e-08 -2.13806e-08 -0.00100002)
(3.77291e-08 -1.84561e-08 -0.00100002)
(3.57059e-08 -1.71883e-08 -0.00100001)
)
;
    }
}


// ************************************************************************* //
