/*--------------------------------*- C++ -*----------------------------------*\
| =========                 |                                                 |
| \\      /  F ield         | OpenFOAM: The Open Source CFD Toolbox           |
|  \\    /   O peration     | Version:  5.x                                   |
|   \\  /    A nd           | Web:      www.OpenFOAM.org                      |
|    \\/     M anipulation  |                                                 |
\*---------------------------------------------------------------------------*/
FoamFile
{
    version     2.0;
    format      ascii;
    class       volScalarField;
    location    "0.06";
    object      p;
}
// * * * * * * * * * * * * * * * * * * * * * * * * * * * * * * * * * * * * * //

dimensions      [0 2 -2 0 0 0 0];

internalField   nonuniform List<scalar> 
2250
(
6.67067e-12
8.98369e-12
1.01446e-11
9.06994e-12
1.22393e-11
-5.66071e-12
-4.18806e-12
-6.93025e-12
-1.37008e-11
-2.91909e-11
-3.70051e-11
-4.20256e-11
-4.69912e-11
-5.7712e-11
-8.92871e-11
-8.9185e-11
-9.88592e-11
-1.00895e-10
-1.07834e-10
-1.38707e-10
-1.63683e-10
-1.72956e-10
-1.69072e-10
-1.67149e-10
-1.63077e-10
3.58281e-11
3.71647e-11
3.42547e-11
2.08504e-11
-4.5943e-12
-4.8094e-12
-1.08278e-11
-2.00684e-11
-4.44914e-11
-1.0323e-10
-9.70138e-11
-1.12535e-10
-1.18673e-10
-1.38056e-10
-2.02358e-10
-2.34259e-10
-2.491e-10
-2.37361e-10
-2.29535e-10
-2.6212e-10
-4.10579e-10
-4.07687e-10
-3.77782e-10
-3.37406e-10
-2.88235e-10
1.17481e-10
1.11425e-10
1.034e-10
7.27366e-11
-1.12947e-11
4.74849e-11
3.27428e-11
2.697e-11
-2.52773e-12
-8.2775e-11
-8.72733e-11
-1.00251e-10
-8.43678e-11
-7.59448e-11
-1.02827e-10
-2.65761e-10
-2.60737e-10
-2.07358e-10
-1.40858e-10
-1.02797e-10
-4.75794e-10
-4.41752e-10
-3.5769e-10
-2.4485e-10
-1.66514e-10
2.89641e-10
2.87929e-10
2.91078e-10
2.6502e-10
1.58734e-10
2.07932e-10
2.04413e-10
2.28394e-10
2.29962e-10
1.83349e-10
6.07466e-11
7.43083e-11
1.40989e-10
2.12792e-10
2.67206e-10
-1.24626e-10
-8.37261e-11
3.07086e-11
1.69537e-10
2.85057e-10
-3.62454e-10
-2.90183e-10
-1.39492e-10
3.57508e-11
1.15681e-10
5.8423e-10
6.14405e-10
6.52385e-10
6.62366e-10
5.96411e-10
5.18771e-10
5.55306e-10
6.30236e-10
6.85038e-10
6.96994e-10
3.76321e-10
4.3835e-10
5.65341e-10
7.00075e-10
8.2264e-10
1.86584e-10
2.75953e-10
4.48746e-10
6.45581e-10
8.35975e-10
-9.12553e-11
3.3771e-11
2.42846e-10
4.84631e-10
6.87473e-10
9.89271e-10
1.07261e-09
1.15017e-09
1.19387e-09
1.16793e-09
9.5847e-10
1.0487e-09
1.16187e-09
1.24052e-09
1.26101e-09
8.2013e-10
9.33442e-10
1.09108e-09
1.24103e-09
1.37093e-09
6.20337e-10
7.55296e-10
9.48453e-10
1.16937e-09
1.44106e-09
3.33875e-10
4.93607e-10
7.17273e-10
1.04199e-09
1.55609e-09
1.41654e-09
1.54281e-09
1.63733e-09
1.68005e-09
1.64471e-09
1.41084e-09
1.5354e-09
1.6475e-09
1.70178e-09
1.68003e-09
1.26482e-09
1.40254e-09
1.54382e-09
1.66116e-09
1.7564e-09
1.04849e-09
1.19634e-09
1.3611e-09
1.56759e-09
1.88018e-09
7.77421e-10
9.09115e-10
1.08927e-09
1.4477e-09
2.18048e-09
1.71987e-09
1.85071e-09
1.94205e-09
1.97847e-09
1.9575e-09
1.70314e-09
1.82535e-09
1.9191e-09
1.96019e-09
1.95637e-09
1.53405e-09
1.66067e-09
1.77441e-09
1.87545e-09
1.97827e-09
1.2831e-09
1.40738e-09
1.53828e-09
1.72503e-09
2.00536e-09
9.8113e-10
1.05004e-09
1.18164e-09
1.47997e-09
2.04848e-09
1.77799e-09
1.8809e-09
1.98261e-09
2.06647e-09
2.17391e-09
1.71381e-09
1.81515e-09
1.92082e-09
2.02264e-09
2.158e-09
1.51112e-09
1.61515e-09
1.73933e-09
1.88985e-09
2.08486e-09
1.20238e-09
1.30116e-09
1.44481e-09
1.65109e-09
1.90061e-09
7.99858e-10
8.50679e-10
1.00131e-09
1.23468e-09
1.47548e-09
1.58014e-09
1.65504e-09
1.79663e-09
1.97701e-09
2.25975e-09
1.45856e-09
1.54783e-09
1.70201e-09
1.90747e-09
2.20004e-09
1.217e-09
1.31017e-09
1.48035e-09
1.71112e-09
2.01349e-09
8.37942e-10
9.33323e-10
1.12813e-09
1.38462e-09
1.66423e-09
3.15277e-10
4.08683e-10
6.3575e-10
8.81868e-10
1.01351e-09
1.23644e-09
1.30332e-09
1.48282e-09
1.73451e-09
2.09504e-09
1.0708e-09
1.15774e-09
1.35063e-09
1.61785e-09
1.96694e-09
7.77767e-10
8.6545e-10
1.07021e-09
1.34509e-09
1.68572e-09
3.20247e-10
4.17355e-10
6.49086e-10
9.32528e-10
1.23244e-09
-3.08499e-10
-1.71382e-10
1.07419e-10
3.75631e-10
5.21247e-10
9.09023e-10
9.76607e-10
1.14888e-09
1.3949e-09
1.71568e-09
7.10918e-10
7.85979e-10
9.66931e-10
1.22069e-09
1.53799e-09
3.40421e-10
4.10782e-10
6.06835e-10
8.71259e-10
1.18484e-09
-2.12013e-10
-1.2945e-10
9.60227e-11
3.62834e-10
6.18528e-10
-9.38842e-10
-7.96443e-10
-5.32631e-10
-2.99672e-10
-2.518e-10
7.37244e-10
7.91298e-10
9.01536e-10
1.0735e-09
1.30313e-09
5.03347e-10
5.46653e-10
6.63333e-10
8.46181e-10
1.09359e-09
3.38084e-11
7.26478e-11
2.15995e-10
4.27479e-10
6.88353e-10
-6.25585e-10
-5.71037e-10
-3.9067e-10
-1.61578e-10
5.48416e-11
-1.43534e-09
-1.32003e-09
-1.10851e-09
-9.00041e-10
-9.07643e-10
8.15436e-10
8.27997e-10
8.38241e-10
8.90719e-10
9.95493e-10
5.33287e-10
5.2619e-10
5.41587e-10
6.1166e-10
7.56125e-10
-3.37714e-11
-3.7175e-11
1.66756e-11
1.34569e-10
3.15723e-10
-7.91389e-10
-7.7199e-10
-6.69847e-10
-5.04293e-10
-3.17993e-10
-1.65607e-09
-1.58855e-09
-1.44506e-09
-1.24748e-09
-1.19774e-09
1.2152e-09
1.15256e-09
1.04167e-09
9.50149e-10
9.15201e-10
8.65473e-10
7.88075e-10
6.83084e-10
6.22349e-10
6.51754e-10
2.11772e-10
1.51357e-10
9.33506e-11
8.85268e-11
1.47168e-10
-6.35019e-10
-6.61758e-10
-6.63389e-10
-6.15882e-10
-5.64693e-10
-1.55731e-09
-1.54935e-09
-1.50607e-09
-1.42976e-09
-1.49544e-09
2.02611e-09
1.856e-09
1.61818e-09
1.38786e-09
1.24225e-09
1.57676e-09
1.41154e-09
1.19219e-09
1.01335e-09
9.3114e-10
8.19426e-10
6.86705e-10
5.17525e-10
3.81211e-10
2.77508e-10
-1.56945e-10
-2.44124e-10
-3.59935e-10
-4.73335e-10
-6.46157e-10
-1.228e-09
-1.28473e-09
-1.36921e-09
-1.50189e-09
-1.81497e-09
3.40907e-09
3.11823e-09
2.75836e-09
2.39095e-09
2.1128e-09
2.8206e-09
2.56763e-09
2.24784e-09
1.93765e-09
1.67571e-09
1.88923e-09
1.67863e-09
1.39717e-09
1.09562e-09
7.65795e-10
6.57271e-10
4.92898e-10
2.44678e-10
-6.36769e-11
-4.6179e-10
-7.64153e-10
-8.97409e-10
-1.1285e-09
-1.45626e-09
-1.8979e-09
5.64562e-09
5.24568e-09
4.7395e-09
4.15322e-09
3.57223e-09
4.88169e-09
4.54897e-09
4.09031e-09
3.5366e-09
2.91548e-09
3.64506e-09
3.34545e-09
2.89621e-09
2.31995e-09
1.62651e-09
1.94722e-09
1.67438e-09
1.22793e-09
6.30138e-10
-9.943e-11
-8.96248e-11
-3.36865e-10
-7.8842e-10
-1.40072e-09
-2.11918e-09
9.14167e-09
8.62758e-09
7.85947e-09
6.84365e-09
5.66393e-09
8.14894e-09
7.69933e-09
6.96048e-09
5.94968e-09
4.72587e-09
6.41051e-09
5.96705e-09
5.21897e-09
4.19493e-09
2.94649e-09
3.97779e-09
3.53921e-09
2.78329e-09
1.74778e-09
4.71025e-10
1.04778e-09
6.26645e-10
-1.56096e-10
-1.22859e-09
-2.57894e-09
1.43863e-08
1.36742e-08
1.24281e-08
1.06902e-08
8.5766e-09
1.30494e-08
1.23682e-08
1.11379e-08
9.41583e-09
7.32047e-09
1.05605e-08
9.87453e-09
8.65856e-09
6.97667e-09
4.93826e-09
7.0951e-09
6.42067e-09
5.22395e-09
3.57456e-09
1.5463e-09
2.9651e-09
2.31731e-09
1.11383e-09
-5.36656e-10
-2.63804e-09
2.19585e-08
2.08892e-08
1.89183e-08
1.61591e-08
1.27923e-08
2.0099e-08
1.90466e-08
1.71168e-08
1.44111e-08
1.11186e-08
1.65946e-08
1.55695e-08
1.36999e-08
1.1079e-08
7.89269e-09
1.17657e-08
1.07804e-08
8.96532e-09
6.42515e-09
3.30805e-09
6.03697e-09
5.09308e-09
3.32144e-09
8.54699e-10
-2.27624e-09
3.26642e-08
3.10764e-08
2.81339e-08
2.40101e-08
1.90055e-08
3.00923e-08
2.85571e-08
2.56922e-08
2.16375e-08
1.67058e-08
2.52693e-08
2.3801e-08
2.10195e-08
1.70688e-08
1.22626e-08
1.86187e-08
1.72047e-08
1.45098e-08
1.06944e-08
6.02499e-09
1.07023e-08
9.33939e-09
6.74818e-09
3.0685e-09
-1.58918e-09
4.77183e-08
4.54623e-08
4.12045e-08
3.51962e-08
2.79457e-08
4.42268e-08
4.20587e-08
3.78842e-08
3.19491e-08
2.47877e-08
3.76223e-08
3.55271e-08
3.14546e-08
2.568e-08
1.87377e-08
2.84452e-08
2.64197e-08
2.25036e-08
1.6974e-08
1.03199e-08
1.75041e-08
1.55767e-08
1.18528e-08
6.57266e-09
7.94206e-11
6.88196e-08
6.56616e-08
5.9551e-08
5.09077e-08
4.05221e-08
6.40804e-08
6.10034e-08
5.49801e-08
4.64608e-08
3.62673e-08
5.49774e-08
5.19815e-08
4.61268e-08
3.7893e-08
2.80999e-08
4.22875e-08
3.94182e-08
3.38343e-08
2.59996e-08
1.6681e-08
2.7199e-08
2.45037e-08
1.9226e-08
1.17992e-08
2.81192e-09
9.81969e-08
9.3758e-08
8.50717e-08
7.2811e-08
5.80955e-08
9.1695e-08
8.73302e-08
7.87758e-08
6.67428e-08
5.23501e-08
7.91209e-08
7.48883e-08
6.66229e-08
5.50482e-08
4.1248e-08
6.15889e-08
5.75699e-08
4.97301e-08
3.87467e-08
2.56315e-08
4.07269e-08
3.69654e-08
2.96073e-08
1.92461e-08
6.68174e-09
1.38852e-07
1.32643e-07
1.20459e-07
1.03267e-07
8.25568e-08
1.29903e-07
1.23793e-07
1.11824e-07
9.49967e-08
7.47226e-08
1.12578e-07
1.06683e-07
9.51857e-08
7.90556e-08
5.96368e-08
8.83626e-08
8.27988e-08
7.19675e-08
5.67502e-08
3.84496e-08
5.93941e-08
5.42409e-08
4.41975e-08
3.00161e-08
1.28429e-08
1.94971e-07
1.86398e-07
1.69512e-07
1.45588e-07
1.16512e-07
1.8269e-07
1.74261e-07
1.57729e-07
1.3436e-07
1.05937e-07
1.58896e-07
1.50807e-07
1.35019e-07
1.12709e-07
8.56232e-08
1.25494e-07
1.17911e-07
1.0314e-07
8.22726e-08
5.6999e-08
8.53212e-08
7.83607e-08
6.48034e-08
4.56116e-08
2.22605e-08
2.72316e-07
2.60674e-07
2.37546e-07
2.04465e-07
1.63735e-07
2.55531e-07
2.44114e-07
2.21555e-07
1.89296e-07
1.49645e-07
2.23022e-07
2.12113e-07
1.90655e-07
1.60002e-07
1.22427e-07
1.7708e-07
1.66883e-07
1.46924e-07
1.18486e-07
8.36825e-08
1.21508e-07
1.12148e-07
9.39626e-08
6.80988e-08
3.63746e-08
3.78624e-07
3.6321e-07
3.31921e-07
2.86494e-07
2.2957e-07
3.55817e-07
3.40714e-07
3.1027e-07
2.66036e-07
2.10783e-07
3.11774e-07
2.9734e-07
2.68486e-07
2.26649e-07
1.74537e-07
2.48749e-07
2.35249e-07
2.086e-07
1.70053e-07
1.22236e-07
1.72032e-07
1.59638e-07
1.35538e-07
1.00891e-07
5.81275e-08
5.24037e-07
5.04472e-07
4.6267e-07
4.00953e-07
3.21639e-07
4.93191e-07
4.73862e-07
4.33352e-07
3.73258e-07
2.96419e-07
4.34415e-07
4.15897e-07
3.77679e-07
3.21042e-07
2.48902e-07
3.48142e-07
3.30726e-07
2.95745e-07
2.4381e-07
1.78332e-07
2.42943e-07
2.2681e-07
1.95261e-07
1.49088e-07
9.14264e-08
7.21367e-07
6.98601e-07
6.43466e-07
5.61202e-07
4.51515e-07
6.7945e-07
6.56222e-07
6.03446e-07
5.2282e-07
4.16918e-07
6.03668e-07
5.81295e-07
5.31657e-07
4.55923e-07
3.56644e-07
4.85176e-07
4.63526e-07
4.19026e-07
3.49507e-07
2.60437e-07
3.43605e-07
3.22611e-07
2.8184e-07
2.20594e-07
1.42864e-07
9.86189e-07
9.65828e-07
8.92904e-07
7.87477e-07
6.38387e-07
9.26938e-07
9.02339e-07
8.35894e-07
7.29174e-07
5.87142e-07
8.38032e-07
8.14606e-07
7.51314e-07
6.52449e-07
5.17005e-07
6.70508e-07
6.45133e-07
5.93252e-07
5.00203e-07
3.81795e-07
4.91362e-07
4.62747e-07
4.10563e-07
3.29157e-07
2.24527e-07
1.33663e-06
1.33849e-06
1.23434e-06
1.11234e-06
9.17701e-07
1.24226e-06
1.22291e-06
1.14545e-06
1.00412e-06
8.30487e-07
1.17007e-06
1.15736e-06
1.07358e-06
9.52953e-07
7.67803e-07
9.06042e-07
8.78091e-07
8.37048e-07
7.05723e-07
5.62856e-07
7.26036e-07
6.81024e-07
6.12217e-07
5.00597e-07
3.57911e-07
1.78664e-06
1.85995e-06
1.69085e-06
1.58478e-06
1.34468e-06
1.61609e-06
1.61665e-06
1.5479e-06
1.34704e-06
1.1878e-06
1.65595e-06
1.694e-06
1.55538e-06
1.44424e-06
1.17487e-06
1.17351e-06
1.13386e-06
1.1791e-06
9.54253e-07
8.45283e-07
1.11996e-06
1.04348e-06
9.50626e-07
7.88782e-07
5.82058e-07
2.32778e-06
2.5671e-06
2.27382e-06
2.28132e-06
1.98248e-06
2.02626e-06
2.07089e-06
2.08129e-06
1.75795e-06
1.72122e-06
2.33602e-06
2.52852e-06
2.22633e-06
2.27283e-06
1.80478e-06
1.47535e-06
1.38044e-06
1.68276e-06
1.24821e-06
1.31245e-06
1.75616e-06
1.63476e-06
1.51355e-06
1.29423e-06
9.58731e-07
2.93991e-06
3.52886e-06
3.01384e-06
3.38015e-06
2.95523e-06
2.47609e-06
2.59485e-06
2.8618e-06
2.32342e-06
2.5415e-06
3.2448e-06
3.81618e-06
3.13545e-06
3.78512e-06
2.73589e-06
1.87688e-06
1.67118e-06
2.53474e-06
1.7022e-06
2.13477e-06
2.74999e-06
2.58048e-06
2.44266e-06
2.20587e-06
1.60683e-06
4.14957e-06
6.56289e-06
5.0768e-06
6.39769e-06
6.47456e-06
3.31338e-06
4.17391e-06
5.0981e-06
3.56894e-06
4.17962e-06
5.0932e-06
7.30617e-06
6.30554e-06
8.46902e-06
5.62442e-06
3.12118e-06
2.59322e-06
5.52149e-06
2.89659e-06
3.80081e-06
4.34109e-06
4.44641e-06
4.94894e-06
4.54176e-06
3.22921e-06
-8.84773e-07
-1.7155e-07
-3.7069e-07
1.50339e-06
6.11125e-07
-6.94951e-07
-9.8697e-07
6.51039e-07
1.07904e-06
2.39619e-06
9.25271e-07
1.87609e-06
6.01973e-07
2.96894e-06
1.63878e-07
-1.44514e-06
-6.79385e-07
1.5459e-06
3.65155e-07
2.46151e-06
3.38041e-06
2.04945e-06
1.67065e-06
1.24929e-06
3.68973e-07
7.33567e-06
2.08942e-05
1.06777e-05
2.17461e-05
2.45843e-05
6.47425e-06
1.00516e-05
1.46763e-05
8.0784e-06
7.48355e-06
1.08146e-05
2.4316e-05
1.96767e-05
3.57327e-05
1.88394e-05
1.05467e-05
7.05009e-06
2.28572e-05
1.05474e-05
1.00691e-05
1.31554e-05
1.47858e-05
1.87049e-05
1.70979e-05
8.45604e-06
-1.26837e-05
-2.06085e-05
-2.99229e-06
-1.0302e-05
-8.94992e-06
-6.3766e-06
-1.38093e-05
-3.48311e-06
3.91685e-06
1.71196e-05
-7.46709e-06
-1.15069e-05
1.97416e-06
-4.5011e-06
8.95175e-07
-1.44609e-05
-2.62034e-06
-4.13569e-06
9.00591e-07
1.89396e-05
7.75441e-06
7.77048e-06
8.41644e-06
5.13917e-06
9.03609e-06
-2.00546e-05
2.71025e-05
7.92554e-06
1.53307e-05
6.73003e-05
1.31159e-05
-1.49055e-05
2.75152e-05
-9.63505e-06
-7.93562e-05
-2.29947e-05
3.92787e-05
6.10123e-05
0.000149223
4.3745e-05
3.87274e-06
-9.79859e-06
5.47324e-05
1.09472e-05
-6.23564e-05
-8.38509e-07
1.80354e-05
5.35595e-05
7.12524e-06
-1.77932e-05
0.000746837
0.00108904
0.00105322
0.000574684
0.00086311
0.00143656
0.000885933
0.000853085
0.000631072
0.000433889
0.00131756
0.000751164
0.000993278
0.00100122
0.000692645
0.00061393
0.000534303
0.00108012
0.000828014
0.000217789
0.000258513
0.000728916
0.000742417
0.000352558
0.00010195
0.00215319
0.00165355
0.0018406
0.00171338
0.000988751
0.00190676
0.00195548
0.00158522
0.00162306
0.00114433
0.0018922
0.00162918
0.00144546
0.00200575
0.00138568
0.00145163
0.00147779
0.00135837
0.00165178
0.00116692
0.00150292
0.00164797
0.00127011
0.00182224
0.00156918
0.00218017
0.00202661
0.00212647
0.00216067
0.00208271
0.00232999
0.00228565
0.00224206
0.00214878
0.00166793
0.00227214
0.00218623
0.00197919
0.00187516
0.00205184
0.00218261
0.00255169
0.00188932
0.00169559
0.00193529
0.00223276
0.00221444
0.00207099
0.00205646
0.00218383
0.0022935
0.0023147
0.00261768
0.00254788
0.0028581
0.00272023
0.00257753
0.00270159
0.00294227
0.00352115
0.00242964
0.00248064
0.00239562
0.00221917
0.0025345
0.00363189
0.00265316
0.00260554
0.00268536
0.00262273
0.0025937
0.00275943
0.00245459
0.00289402
0.0029864
0.00401267
0.00329874
0.00381
0.00329761
0.00371566
0.00307112
0.00306931
0.00331915
0.00340937
0.00345424
0.00317839
0.0033109
0.00279334
0.00320896
0.00334607
0.00368569
0.00357441
0.00299815
0.00357161
0.00306096
0.00322814
0.00307217
0.00309645
0.00347636
0.00322394
0.00482171
0.0048511
0.00419426
0.00445634
0.00436834
0.00421871
0.0036698
0.00407507
0.00386265
0.00370664
0.00386755
0.00379331
0.0045134
0.0039376
0.00427071
0.00368642
0.00366795
0.00367483
0.00409185
0.00384061
0.00347817
0.00341885
0.00414137
0.00404779
0.003575
0.00537707
0.00530482
0.00428204
0.00475851
0.00475616
0.00496604
0.00482526
0.00464876
0.00455804
0.00465307
0.00465488
0.00448725
0.00458818
0.00467059
0.00472435
0.00488672
0.00423471
0.00451981
0.00446042
0.00455017
0.00447849
0.00485445
0.00455192
0.00454904
0.00450865
0.0057579
0.00579541
0.00551697
0.00509694
0.00587187
0.00537101
0.00572263
0.00538656
0.00512673
0.00603011
0.00519435
0.00520549
0.00501487
0.00518861
0.00509447
0.0052292
0.00522433
0.00504743
0.0050082
0.00507685
0.00507004
0.00501164
0.00478368
0.00460059
0.00493186
0.00586362
0.00596491
0.00599107
0.00555127
0.00578751
0.00599719
0.00599368
0.00615973
0.0056149
0.00604245
0.00579726
0.00587199
0.0056112
0.0054814
0.00566279
0.00510255
0.00576159
0.00562591
0.00553665
0.00498073
0.00521947
0.00548249
0.00543059
0.00504013
0.00531065
0.00626294
0.00621456
0.00610343
0.0060909
0.00606322
0.00620086
0.00619168
0.00612619
0.00605828
0.0061338
0.00600708
0.00614771
0.00615481
0.00572502
0.00600675
0.0060224
0.00618581
0.0060062
0.00593792
0.00607778
0.00615735
0.00610571
0.00603163
0.00586605
0.00591297
0.00617455
0.00624978
0.00624485
0.00619721
0.00618884
0.00619361
0.00622108
0.00617143
0.00622879
0.00618606
0.00616776
0.00617974
0.00624781
0.0061979
0.00622306
0.00618877
0.00622973
0.00621513
0.00619343
0.00618203
0.0062135
0.00619501
0.00621421
0.0061735
0.00615596
0.00615447
0.00617128
0.00619009
0.00618152
0.00615271
0.00616927
0.00617381
0.00618398
0.0061782
0.00617382
0.0061773
0.00617086
0.0061782
0.00618124
0.00617105
0.00617724
0.00617961
0.0061894
0.00618039
0.00617462
0.00618418
0.00618667
0.00617672
0.0061706
0.0061716
0.00617913
0.0061821
0.00618132
0.00618052
0.0061817
0.00617592
0.00617951
0.00616771
0.00617728
0.00617372
0.006176
0.00617901
0.00617906
0.00617289
0.00617707
0.00616993
0.00617354
0.00617111
0.00616843
0.0061746
0.00618044
0.00618094
0.0061762
0.00616629
0.00616782
0.00617546
0.00617599
0.0061781
0.0061778
0.00617655
0.00617547
0.00617603
0.00617622
0.00617728
0.00617602
0.00617727
0.00617712
0.00617784
0.00617591
0.00617689
0.00617447
0.00617356
0.00617459
0.00617284
0.00617424
0.0061787
0.00617785
0.00617536
0.0061722
0.00617182
0.0061757
0.00617553
0.00617621
0.00617629
0.00617646
0.00617496
0.00617504
0.00617454
0.00617566
0.00617567
0.00617605
0.00617586
0.00617599
0.00617471
0.00617569
0.00617336
0.00617313
0.00617319
0.00617227
0.0061738
0.00617646
0.00617585
0.00617458
0.00617255
0.00617228
0.00617503
0.00617493
0.00617524
0.00617532
0.00617566
0.0061745
0.00617448
0.00617451
0.00617487
0.00617522
0.00617517
0.00617497
0.006175
0.00617437
0.00617489
0.00617335
0.00617315
0.00617326
0.00617273
0.00617356
0.00617515
0.00617461
0.00617392
0.00617289
0.00617259
0.00617445
0.0061744
0.00617456
0.00617463
0.00617492
0.00617411
0.00617409
0.00617418
0.00617433
0.00617463
0.00617444
0.0061743
0.00617428
0.00617398
0.00617422
0.00617327
0.00617315
0.00617322
0.00617294
0.00617334
0.00617423
0.00617392
0.0061735
0.0061729
0.00617262
0.00617398
0.00617396
0.00617404
0.0061741
0.00617429
0.00617377
0.00617377
0.00617384
0.0061739
0.00617408
0.00617388
0.0061738
0.00617377
0.00617362
0.00617373
0.00617316
0.00617309
0.00617314
0.00617298
0.00617314
0.00617358
0.00617342
0.00617316
0.0061728
0.00617257
0.0061736
0.00617359
0.00617364
0.00617368
0.0061738
0.00617349
0.00617348
0.00617352
0.00617355
0.00617364
0.00617346
0.00617342
0.00617339
0.00617332
0.00617337
0.00617304
0.006173
0.00617301
0.00617292
0.00617295
0.00617317
0.00617307
0.0061729
0.00617269
0.00617251
0.0061733
0.0061733
0.00617332
0.00617335
0.00617341
0.00617324
0.00617323
0.00617324
0.00617326
0.0061733
0.00617316
0.00617314
0.00617311
0.00617308
0.00617309
0.00617292
0.0061729
0.00617288
0.00617282
0.00617279
0.00617289
0.00617283
0.00617272
0.00617259
0.00617246
0.00617307
0.00617307
0.00617308
0.00617309
0.00617312
0.00617302
0.00617302
0.00617302
0.00617302
0.00617304
0.00617294
0.00617293
0.00617291
0.00617289
0.00617288
0.0061728
0.00617278
0.00617275
0.00617271
0.00617267
0.00617271
0.00617267
0.0061726
0.00617251
0.00617242
0.00617289
0.00617289
0.00617289
0.00617289
0.00617291
0.00617285
0.00617285
0.00617285
0.00617284
0.00617285
0.00617278
0.00617277
0.00617276
0.00617274
0.00617273
0.00617268
0.00617267
0.00617264
0.00617261
0.00617257
0.00617258
0.00617256
0.00617251
0.00617245
0.00617239
0.00617275
0.00617274
0.00617274
0.00617274
0.00617274
0.00617272
0.00617271
0.00617271
0.0061727
0.0061727
0.00617266
0.00617265
0.00617264
0.00617263
0.00617261
0.00617259
0.00617257
0.00617255
0.00617253
0.0061725
0.0061725
0.00617248
0.00617245
0.00617241
0.00617236
0.00617263
0.00617263
0.00617263
0.00617262
0.00617262
0.00617261
0.00617261
0.0061726
0.00617259
0.00617259
0.00617257
0.00617256
0.00617255
0.00617254
0.00617253
0.00617251
0.0061725
0.00617248
0.00617246
0.00617244
0.00617244
0.00617243
0.00617241
0.00617238
0.00617234
0.00617255
0.00617254
0.00617254
0.00617254
0.00617253
0.00617253
0.00617253
0.00617252
0.00617251
0.00617251
0.0061725
0.00617249
0.00617248
0.00617247
0.00617246
0.00617245
0.00617244
0.00617243
0.00617242
0.0061724
0.0061724
0.00617239
0.00617237
0.00617235
0.00617232
0.00617248
0.00617248
0.00617247
0.00617247
0.00617246
0.00617247
0.00617246
0.00617246
0.00617245
0.00617244
0.00617244
0.00617244
0.00617243
0.00617242
0.00617241
0.00617241
0.0061724
0.00617239
0.00617238
0.00617237
0.00617237
0.00617236
0.00617235
0.00617233
0.00617231
0.00617243
0.00617243
0.00617242
0.00617242
0.00617241
0.00617242
0.00617242
0.00617241
0.00617241
0.0061724
0.0061724
0.0061724
0.00617239
0.00617238
0.00617238
0.00617237
0.00617237
0.00617236
0.00617235
0.00617234
0.00617234
0.00617234
0.00617233
0.00617232
0.0061723
0.00617239
0.00617239
0.00617239
0.00617238
0.00617238
0.00617238
0.00617238
0.00617238
0.00617237
0.00617237
0.00617237
0.00617237
0.00617236
0.00617236
0.00617235
0.00617235
0.00617235
0.00617234
0.00617233
0.00617232
0.00617232
0.00617232
0.00617231
0.0061723
0.00617229
0.00617236
0.00617236
0.00617236
0.00617235
0.00617235
0.00617236
0.00617235
0.00617235
0.00617235
0.00617234
0.00617234
0.00617234
0.00617234
0.00617233
0.00617233
0.00617233
0.00617233
0.00617232
0.00617232
0.00617231
0.00617231
0.00617231
0.0061723
0.0061723
0.00617229
0.00617234
0.00617234
0.00617234
0.00617233
0.00617233
0.00617233
0.00617233
0.00617233
0.00617233
0.00617232
0.00617233
0.00617233
0.00617232
0.00617232
0.00617231
0.00617232
0.00617231
0.00617231
0.00617231
0.0061723
0.0061723
0.0061723
0.0061723
0.00617229
0.00617228
0.00617232
0.00617232
0.00617232
0.00617232
0.00617231
0.00617232
0.00617232
0.00617232
0.00617231
0.00617231
0.00617231
0.00617231
0.00617231
0.00617231
0.0061723
0.0061723
0.0061723
0.0061723
0.0061723
0.00617229
0.00617229
0.00617229
0.00617229
0.00617229
0.00617228
0.00617231
0.00617231
0.00617231
0.00617231
0.0061723
0.00617231
0.00617231
0.00617231
0.0061723
0.0061723
0.0061723
0.0061723
0.0061723
0.0061723
0.0061723
0.0061723
0.0061723
0.00617229
0.00617229
0.00617229
0.00617229
0.00617229
0.00617229
0.00617228
0.00617228
0.0061723
0.0061723
0.0061723
0.0061723
0.0061723
0.0061723
0.0061723
0.0061723
0.0061723
0.00617229
0.0061723
0.00617229
0.00617229
0.00617229
0.00617229
0.00617229
0.00617229
0.00617229
0.00617229
0.00617228
0.00617229
0.00617228
0.00617228
0.00617228
0.00617228
0.00617229
0.00617229
0.00617229
0.00617229
0.00617229
0.00617229
0.00617229
0.00617229
0.00617229
0.00617229
0.00617229
0.00617229
0.00617229
0.00617229
0.00617228
0.00617229
0.00617229
0.00617228
0.00617228
0.00617228
0.00617228
0.00617228
0.00617228
0.00617228
0.00617228
0.00617229
0.00617229
0.00617229
0.00617229
0.00617228
0.00617229
0.00617229
0.00617229
0.00617228
0.00617228
0.00617228
0.00617228
0.00617228
0.00617228
0.00617228
0.00617228
0.00617228
0.00617228
0.00617228
0.00617228
0.00617228
0.00617228
0.00617228
0.00617228
0.00617228
0.00617228
0.00617228
0.00617228
0.00617228
0.00617228
0.00617228
0.00617228
0.00617228
0.00617228
0.00617228
0.00617228
0.00617228
0.00617228
0.00617228
0.00617228
0.00617228
0.00617228
0.00617228
0.00617228
0.00617228
0.00617228
0.00617228
0.00617228
0.00617228
0.00617227
0.00617228
0.00617228
0.00617228
0.00617228
0.00617228
0.00617228
0.00617228
0.00617228
0.00617228
0.00617228
0.00617228
0.00617228
0.00617228
0.00617228
0.00617228
0.00617228
0.00617228
0.00617228
0.00617228
0.00617228
0.00617228
0.00617228
0.00617227
0.00617227
0.00617227
0.00617228
0.00617228
0.00617228
0.00617228
0.00617228
0.00617228
0.00617228
0.00617228
0.00617228
0.00617228
0.00617228
0.00617228
0.00617228
0.00617228
0.00617228
0.00617228
0.00617228
0.00617228
0.00617227
0.00617227
0.00617227
0.00617227
0.00617227
0.00617227
0.00617227
0.00617228
0.00617228
0.00617228
0.00617228
0.00617228
0.00617228
0.00617228
0.00617228
0.00617228
0.00617228
0.00617228
0.00617228
0.00617228
0.00617227
0.00617227
0.00617227
0.00617227
0.00617227
0.00617227
0.00617227
0.00617227
0.00617227
0.00617227
0.00617227
0.00617227
0.00617228
0.00617228
0.00617228
0.00617228
0.00617227
0.00617228
0.00617228
0.00617228
0.00617227
0.00617227
0.00617228
0.00617228
0.00617227
0.00617227
0.00617227
0.00617227
0.00617227
0.00617227
0.00617227
0.00617227
0.00617227
0.00617227
0.00617227
0.00617227
0.00617227
0.00617228
0.00617228
0.00617228
0.00617227
0.00617227
0.00617228
0.00617228
0.00617227
0.00617227
0.00617227
0.00617227
0.00617227
0.00617227
0.00617227
0.00617227
0.00617227
0.00617227
0.00617227
0.00617227
0.00617227
0.00617227
0.00617227
0.00617227
0.00617227
0.00617227
0.00617227
0.00617227
0.00617227
0.00617227
0.00617227
0.00617227
0.00617227
0.00617227
0.00617227
0.00617227
0.00617227
0.00617227
0.00617227
0.00617227
0.00617227
0.00617227
0.00617227
0.00617227
0.00617227
0.00617227
0.00617227
0.00617227
0.00617227
0.00617227
0.00617227
0.00617227
0.00617227
0.00617227
0.00617227
0.00617227
0.00617227
0.00617227
0.00617227
0.00617227
0.00617227
0.00617227
0.00617227
0.00617227
0.00617227
0.00617227
0.00617227
0.00617227
0.00617227
0.00617227
0.00617227
0.00617227
0.00617227
0.00617227
0.00617227
0.00617227
0.00617227
0.00617227
0.00617227
0.00617227
0.00617227
0.00617227
0.00617227
0.00617227
0.00617227
0.00617227
0.00617227
0.00617227
0.00617227
0.00617227
0.00617227
0.00617227
0.00617227
0.00617227
0.00617227
0.00617227
0.00617227
0.00617227
0.00617227
0.00617227
0.00617227
0.00617227
0.00617227
0.00617227
0.00617227
0.00617227
0.00617227
0.00617227
0.00617227
0.00617227
0.00617227
0.00617227
0.00617227
0.00617227
0.00617227
0.00617227
0.00617227
0.00617227
0.00617227
0.00617227
0.00617227
0.00617227
0.00617227
0.00617227
0.00617227
0.00617227
0.00617227
0.00617227
0.00617227
0.00617227
0.00617227
0.00617227
0.00617227
0.00617227
0.00617227
0.00617227
0.00617227
0.00617227
0.00617227
0.00617227
0.00617227
0.00617227
0.00617227
0.00617227
0.00617227
0.00617227
0.00617227
0.00617227
0.00617227
0.00617227
0.00617227
0.00617227
0.00617227
0.00617227
0.00617227
0.00617227
0.00617227
0.00617227
0.00617227
0.00617227
0.00617227
0.00617227
0.00617227
0.00617227
0.00617227
0.00617227
0.00617227
0.00617227
0.00617227
0.00617227
0.00617227
0.00617227
0.00617227
0.00617227
0.00617227
0.00617227
0.00617227
0.00617227
0.00617227
0.00617227
0.00617227
0.00617227
0.00617227
0.00617227
0.00617227
0.00617227
0.00617227
0.00617227
0.00617227
0.00617227
0.00617227
0.00617227
0.00617227
0.00617227
0.00617227
0.00617227
0.00617227
0.00617227
0.00617227
0.00617227
0.00617227
0.00617227
0.00617227
0.00617227
0.00617227
0.00617227
0.00617227
0.00617227
0.00617227
0.00617227
0.00617227
0.00617227
0.00617227
0.00617227
0.00617227
0.00617227
0.00617227
0.00617227
0.00617227
0.00617227
0.00617227
0.00617227
0.00617227
0.00617227
0.00617227
0.00617227
)
;

boundaryField
{
    inlet
    {
        type            zeroGradient;
    }
    outlet
    {
        type            fixedValue;
        value           uniform 0;
    }
    repeat_boundary
    {
        type            zeroGradient;
    }
    procBoundary0to1
    {
        type            processor;
        value           nonuniform List<scalar> 
450
(
7.55368e-12
-2.39561e-11
-6.91072e-11
-8.69069e-11
-5.19683e-11
-1.44925e-11
-9.49317e-11
-1.66204e-10
-1.55946e-10
-1.54115e-11
-2.96617e-11
-9.27172e-11
-9.60505e-11
-3.74222e-11
9.59396e-11
1.19317e-10
1.4157e-10
2.3226e-10
2.78907e-10
2.47455e-10
5.24147e-10
6.18247e-10
7.47256e-10
7.46983e-10
5.70985e-10
1.07273e-09
1.17035e-09
1.29449e-09
1.3151e-09
1.16684e-09
1.563e-09
1.63007e-09
1.75762e-09
1.87169e-09
1.82915e-09
1.93173e-09
1.98664e-09
2.09817e-09
2.23138e-09
2.1831e-09
2.23261e-09
2.27322e-09
2.28456e-09
2.27165e-09
2.09427e-09
2.40966e-09
2.39276e-09
2.25764e-09
2.04688e-09
1.75395e-09
2.31443e-09
2.22514e-09
1.99276e-09
1.66932e-09
1.34399e-09
1.96139e-09
1.82545e-09
1.53927e-09
1.15488e-09
8.3369e-10
1.53807e-09
1.36505e-09
1.01048e-09
5.42627e-10
1.96714e-10
1.1899e-09
9.79529e-10
5.55465e-10
1.31186e-12
-4.3717e-10
1.00739e-09
7.68007e-10
2.6933e-10
-3.89715e-10
-1.00891e-09
1.13e-09
8.3187e-10
1.77117e-10
-6.88729e-10
-1.57302e-09
1.68464e-09
1.25782e-09
3.46466e-10
-8.36657e-10
-2.0836e-09
2.70086e-09
2.07567e-09
8.32391e-10
-7.72793e-10
-2.54187e-09
4.17162e-09
3.28007e-09
1.59297e-09
-6.27882e-10
-3.11018e-09
6.21472e-09
5.00099e-09
2.70845e-09
-3.89396e-10
-3.80618e-09
9.19085e-09
7.58124e-09
4.47013e-09
2.12583e-10
-4.5237e-09
1.36303e-08
1.14519e-08
7.22051e-09
1.44499e-09
-5.10954e-09
2.01255e-08
1.71365e-08
1.14118e-08
3.609e-09
-5.36537e-09
2.93946e-08
2.53442e-08
1.7622e-08
6.98445e-09
-5.48442e-09
4.23766e-08
3.69279e-08
2.64609e-08
1.19036e-08
-5.37439e-09
6.02825e-08
5.29637e-08
3.88686e-08
1.92143e-08
-4.13307e-09
8.48437e-08
7.51281e-08
5.63982e-08
3.00633e-08
-1.46243e-09
1.187e-07
1.05922e-07
8.11705e-08
4.59e-08
3.23611e-09
1.65445e-07
1.48598e-07
1.16138e-07
6.91639e-08
1.20233e-08
2.2979e-07
2.07443e-07
1.65876e-07
1.03391e-07
2.71848e-08
3.18463e-07
2.88049e-07
2.37935e-07
1.53772e-07
5.38269e-08
4.41479e-07
3.95071e-07
3.46163e-07
2.26768e-07
1.03092e-07
6.12116e-07
5.23377e-07
5.2084e-07
3.23532e-07
1.97244e-07
8.47175e-07
6.55084e-07
8.15658e-07
4.33959e-07
3.82612e-07
1.18515e-06
7.92064e-07
1.30711e-06
5.69426e-07
7.26403e-07
1.75317e-06
1.02498e-06
2.19698e-06
8.55557e-07
1.3533e-06
3.40725e-06
2.08037e-06
5.65785e-06
2.34947e-06
4.23789e-06
-2.39581e-07
-1.10953e-06
-6.10518e-07
-2.07955e-06
-2.71075e-06
1.29725e-05
8.77719e-06
2.52173e-05
9.08467e-06
1.65499e-05
5.15972e-06
7.75794e-06
-1.25297e-05
-3.84442e-06
-2.10211e-05
2.20484e-05
5.13363e-05
2.9375e-05
-6.47633e-05
-2.51501e-05
0.000420729
0.000724373
0.000667101
0.000677415
0.000695096
0.00240818
0.00204691
0.001401
0.0019953
0.00107815
0.00270042
0.00265342
0.00289556
0.00262839
0.00158223
0.00311959
0.00285156
0.00306814
0.00288145
0.00279733
0.00359513
0.00362694
0.00376305
0.00321825
0.00335321
0.00417918
0.00455415
0.00416735
0.00484905
0.00337317
0.00506801
0.0048503
0.00443731
0.0049053
0.00462216
0.00515342
0.00504213
0.00514863
0.00475529
0.00504214
0.00540919
0.00514457
0.00542949
0.00523792
0.00526279
0.00597566
0.00616132
0.00614339
0.00607917
0.00561448
0.00620241
0.00621782
0.00624343