/*--------------------------------*- C++ -*----------------------------------*\
| =========                 |                                                 |
| \\      /  F ield         | OpenFOAM: The Open Source CFD Toolbox           |
|  \\    /   O peration     | Version:  5.x                                   |
|   \\  /    A nd           | Web:      www.OpenFOAM.org                      |
|    \\/     M anipulation  |                                                 |
\*---------------------------------------------------------------------------*/
FoamFile
{
    version     2.0;
    format      ascii;
    class       surfaceScalarField;
    location    "9000";
    object      phi;
}
// * * * * * * * * * * * * * * * * * * * * * * * * * * * * * * * * * * * * * //

dimensions      [0 3 -1 0 0 0 0];

internalField   nonuniform List<scalar> 
179
(
-249.984
-249.983
-249.983
-249.982
-249.981
-249.98
-249.978
-249.976
-249.974
-249.971
-249.969
-249.966
-249.962
-249.958
-249.954
-249.949
-249.944
-249.938
-249.932
-249.925
-249.917
-249.908
-249.899
-249.889
-249.877
-249.865
-249.851
-249.836
-249.82
-249.802
-249.783
-249.762
-249.739
-249.714
-249.686
-249.657
-249.624
-249.59
-249.552
-249.511
-249.467
-249.419
-249.367
-249.312
-249.253
-249.189
-249.121
-249.048
-248.971
-248.889
-248.802
-248.71
-248.614
-248.514
-248.409
-248.302
-248.192
-248.08
-247.968
-247.857
-247.75
-247.648
-247.555
-247.474
-247.409
-247.367
-247.352
-247.373
-247.438
-247.559
-247.755
-248.042
-248.439
-248.967
-249.639
-250.456
-251.39
-252.348
-253.116
-253.484
-253.567
-253.608
-243.831
-242.953
-246.026
-245.698
-246.86
-257.635
-267.234
-275.702
-285.533
-290.711
-291.731
-304.501
-313.509
-317.049
-339.069
-339.651
-347.581
-349.694
-340.087
-338.566
-338.703
-336.112
-331.785
-325.269
-317.975
-310.711
-303.892
-297.689
-292.139
-287.216
-282.865
-279.027
-275.644
-272.661
-270.03
-267.711
-265.665
-263.859
-262.266
-260.859
-259.617
-258.52
-257.55
-256.693
-255.935
-255.265
-254.672
-254.147
-253.682
-253.27
-252.905
-252.582
-252.295
-252.041
-251.816
-251.616
-251.438
-251.28
-251.14
-251.016
-250.905
-250.807
-250.719
-250.641
-250.572
-250.51
-250.456
-250.407
-250.363
-250.324
-250.289
-250.259
-250.231
-250.206
-250.184
-250.165
-250.147
-250.131
-250.117
-250.105
-250.094
-250.084
-250.075
-250.067
-250.059
-250.053
-250.047
-250.042
-250.037
-250.033
-250.029
-250.025
-250.022
-250.019
-250.016
-250.013
-250.011
)
;

boundaryField
{
    inlet
    {
        type            calculated;
        value           uniform -250.008;
    }
    outlet
    {
        type            calculated;
        value           uniform 249.984;
    }
    repeat_boundary
    {
        type            calculated;
        value           uniform 0;
    }
    procBoundary3to1
    {
        type            processor;
        value           nonuniform List<scalar> 
180
(
-0.000458379
-0.000555498
-0.00072409
-0.000939647
-0.00118659
-0.00145644
-0.00174586
-0.00205473
-0.00238478
-0.00273869
-0.00311966
-0.00353122
-0.00397721
-0.00446175
-0.00498927
-0.00556457
-0.00619281
-0.00687961
-0.00763103
-0.00845365
-0.00935465
-0.0103418
-0.0114236
-0.0126091
-0.0139085
-0.0153328
-0.0168938
-0.0186049
-0.0204805
-0.022536
-0.0247884
-0.0272562
-0.0299594
-0.0329197
-0.0361604
-0.0397071
-0.0435875
-0.0478319
-0.0524728
-0.0575454
-0.0630873
-0.069139
-0.0757439
-0.0829487
-0.0908035
-0.0993614
-0.108679
-0.118816
-0.129837
-0.14181
-0.154806
-0.168899
-0.184167
-0.200691
-0.218555
-0.237844
-0.258647
-0.28105
-0.305142
-0.33101
-0.358736
-0.388403
-0.420088
-0.453869
-0.489831
-0.528093
-0.568726
-0.6117
-0.656517
-0.702197
-0.744769
-0.784678
-0.820908
-0.849928
-0.865578
-0.857874
-0.817277
-0.739531
-0.639292
-0.561899
-0.049568
0.0206482
-9.01302
-0.872285
0.974744
-0.387834
0.260042
5.72689
1.59406
8.18743
7.22329
7.35435
2.25163
9.22934
7.86019
2.47757
19.245
0.070418
3.37872
0.409879
-5.30888
-1.35711
0.399838
-0.729524
-1.83239
-3.00598
-3.46402
-3.49506
-3.31486
-3.03725
-2.72843
-2.42458
-2.14284
-1.88923
-1.66411
-1.46551
-1.29073
-1.13702
-1.00188
-0.883056
-0.77856
-0.686648
-0.605787
-0.534632
-0.472002
-0.416859
-0.368291
-0.325498
-0.287775
-0.2545
-0.225135
-0.199231
-0.176373
-0.156194
-0.138372
-0.122625
-0.108707
-0.0964007
-0.085516
-0.0758858
-0.0673625
-0.0598158
-0.0531314
-0.0472083
-0.0419581
-0.0373026
-0.033173
-0.0295087
-0.0262561
-0.0233682
-0.0208032
-0.0185244
-0.0164992
-0.0146989
-0.0130981
-0.0116745
-0.010408
-0.00928124
-0.00827855
-0.0073862
-0.00659199
-0.00588512
-0.00525601
-0.00469617
-0.00419809
-0.00375511
-0.0033613
-0.00301143
-0.00270086
-0.00242549
-0.00218168
-0.00196622
-0.00177629
-0.00160943
-0.00146352
-0.00133683
-0.00122823
-0.00113724
-0.00106746
-0.00103891
)
;
    }
    procBoundary3to2
    {
        type            processor;
        value           nonuniform List<scalar> 
180
(
4.78081e-05
7.11253e-05
0.000102407
0.000137901
0.000176523
0.000217796
0.000261705
0.000308528
0.000358716
0.00041285
0.000471628
0.000535856
0.000606455
0.000684464
0.000771073
0.000867645
0.00097573
0.00109709
0.00123373
0.00138793
0.00156227
0.00175967
0.00198347
0.00223741
0.00252575
0.00285334
0.00322562
0.00364882
0.00412995
0.004677
0.00529899
0.0060062
0.00681031
0.00772458
0.00876413
0.00994618
0.0112904
0.0128191
0.0145579
0.0165359
0.0187865
0.0213477
0.0242629
0.0275818
0.0313609
0.0356652
0.0405684
0.0461551
0.0525219
0.059779
0.0680524
0.0774858
0.0882438
0.100514
0.114511
0.13048
0.1487
0.169493
0.193222
0.220306
0.251222
0.286515
0.326807
0.372811
0.425339
0.485321
0.553821
0.632078
0.721483
0.823561
0.939871
1.07163
1.21872
1.37757
1.53742
1.67542
1.75084
1.69799
1.40712
0.929656
0.134034
0.019918
-0.76437
-0.00512865
2.09789
0.0596141
0.901983
5.0474
8.00562
0.280362
2.60765
-2.17595
-1.23186
3.54015
1.14811
1.06278
2.77423
0.511008
4.55183
1.70293
-4.29856
-0.163277
-0.262917
-1.86155
-2.49471
-3.50876
-3.83105
-3.76765
-3.50387
-3.1659
-2.82129
-2.49874
-2.20749
-1.94841
-1.71936
-1.51734
-1.33929
-1.18237
-1.04407
-0.922165
-0.814698
-0.719941
-0.636377
-0.562668
-0.497639
-0.440255
-0.389607
-0.344892
-0.305407
-0.270531
-0.239717
-0.212483
-0.188402
-0.167098
-0.148251
-0.131571
-0.116804
-0.103724
-0.0921356
-0.0818649
-0.0727594
-0.0646847
-0.0575219
-0.0511658
-0.045524
-0.0405146
-0.0360653
-0.0321124
-0.0285995
-0.0254768
-0.0227001
-0.0202306
-0.0180337
-0.0160789
-0.014339
-0.0127903
-0.0114114
-0.0101835
-0.00909006
-0.0081162
-0.00724886
-0.0064764
-0.00578852
-0.00517607
-0.00463094
-0.00414592
-0.00371462
-0.00333137
-0.00299117
-0.00268955
-0.00242258
-0.00218679
-0.00197912
-0.0017969
-0.00163783
-0.00150001
-0.00138214
-0.00128363
-0.00120815
-0.001178
)
;
    }
}


// ************************************************************************* //
