/*--------------------------------*- C++ -*----------------------------------*\
| =========                 |                                                 |
| \\      /  F ield         | OpenFOAM: The Open Source CFD Toolbox           |
|  \\    /   O peration     | Version:  5.x                                   |
|   \\  /    A nd           | Web:      www.OpenFOAM.org                      |
|    \\/     M anipulation  |                                                 |
\*---------------------------------------------------------------------------*/
FoamFile
{
    version     2.0;
    format      ascii;
    class       surfaceScalarField;
    location    "500";
    object      phi;
}
// * * * * * * * * * * * * * * * * * * * * * * * * * * * * * * * * * * * * * //

dimensions      [0 3 -1 0 0 0 0];

internalField   nonuniform List<scalar> 
89
(
-129.808
-129.886
-129.961
-130.033
-130.1
-130.161
-130.212
-130.252
-130.279
-130.292
-130.29
-130.273
-130.241
-130.194
-130.13
-130.048
-129.945
-129.819
-129.668
-129.489
-129.28
-129.036
-128.754
-128.43
-128.059
-127.636
-127.158
-126.619
-126.015
-125.342
-124.597
-123.778
-122.882
-121.91
-120.863
-119.741
-118.548
-117.288
-115.967
-114.592
-113.169
-111.708
-110.22
-108.716
-107.208
-105.707
-104.22
-102.758
-101.326
-99.9315
-98.5794
-97.2748
-96.0218
-94.8243
-93.6858
-92.6095
-91.5981
-90.6539
-89.7789
-88.9745
-88.2415
-87.5801
-86.9898
-86.4694
-86.0168
-85.6291
-85.3026
-85.033
-84.8146
-84.6402
-84.5007
-84.3872
-84.2939
-84.2163
-84.1509
-84.0951
-84.0465
-84.0034
-83.9642
-83.9276
-83.8923
-83.8572
-83.8216
-83.7848
-83.7466
-83.7073
-83.6653
-83.6239
-83.6086
)
;

boundaryField
{
    inlet
    {
        type            calculated;
        value           uniform -83.6117;
    }
    outlet
    {
        type            calculated;
        value           uniform 129.731;
    }
    repeat_boundary
    {
        type            calculated;
        value           uniform 0;
    }
    procBoundary3to1
    {
        type            processor;
        value           nonuniform List<scalar> 
90
(
0.477059
0.501023
0.53113
0.557054
0.582171
0.604356
0.624479
0.642187
0.657646
0.671043
0.682786
0.693211
0.703279
0.711551
0.718733
0.723585
0.726309
0.727383
0.726498
0.723774
0.719069
0.712282
0.703241
0.691751
0.677588
0.660515
0.640287
0.616675
0.589474
0.55852
0.523708
0.485009
0.442481
0.396284
0.346693
0.294102
0.239031
0.182137
0.124197
0.0660703
0.00870259
-0.0468433
-0.0984918
-0.145493
-0.187438
-0.224481
-0.256932
-0.285099
-0.309258
-0.329648
-0.346472
-0.359889
-0.370025
-0.376969
-0.380796
-0.381596
-0.379469
-0.374527
-0.366905
-0.356771
-0.344334
-0.329852
-0.313648
-0.296088
-0.277605
-0.258704
-0.23995
-0.221832
-0.20521
-0.191093
-0.1807
-0.174223
-0.17068
-0.169517
-0.170284
-0.172646
-0.17636
-0.181243
-0.187164
-0.19403
-0.201781
-0.210399
-0.219886
-0.230263
-0.241397
-0.251922
-0.263409
-0.2766
-0.300596
-0.31592
)
;
    }
    procBoundary3to2
    {
        type            processor;
        value           nonuniform List<scalar> 
90
(
-0.400591
-0.422886
-0.456202
-0.48456
-0.514981
-0.543981
-0.5734
-0.602162
-0.630704
-0.658214
-0.684629
-0.709724
-0.735147
-0.759021
-0.782791
-0.805791
-0.829438
-0.853085
-0.877377
-0.902431
-0.928592
-0.956102
-0.985193
-1.01601
-1.04861
-1.08293
-1.11878
-1.15581
-1.19355
-1.23139
-1.2686
-1.30437
-1.33784
-1.36813
-1.39441
-1.41588
-1.43187
-1.4418
-1.44522
-1.44183
-1.43148
-1.41408
-1.38957
-1.35817
-1.32047
-1.27723
-1.22929
-1.17745
-1.12245
-1.06496
-1.00557
-0.944773
-0.882985
-0.820525
-0.757673
-0.694714
-0.631935
-0.569625
-0.508088
-0.447655
-0.38868
-0.331541
-0.276627
-0.224324
-0.175004
-0.129002
-0.0865665
-0.0477907
-0.0131298
0.0167131
0.0411554
0.0607079
0.0773907
0.0919314
0.10492
0.11679
0.127792
0.138133
0.147956
0.157376
0.166487
0.175386
0.184267
0.193471
0.203208
0.212619
0.221352
0.23518
0.285331
0.319066
)
;
    }
}


// ************************************************************************* //
