/*--------------------------------*- C++ -*----------------------------------*\
  =========                 |
  \\      /  F ield         | OpenFOAM: The Open Source CFD Toolbox
   \\    /   O peration     | Website:  https://openfoam.org
    \\  /    A nd           | Version:  9
     \\/     M anipulation  |
\*---------------------------------------------------------------------------*/
FoamFile
{
    format      ascii;
    class       volScalarField;
    location    "0.04";
    object      p;
}
// * * * * * * * * * * * * * * * * * * * * * * * * * * * * * * * * * * * * * //

dimensions      [0 2 -2 0 0 0 0];

internalField   nonuniform List<scalar> 
9000
(
-4.58382e-10
-4.66544e-10
-4.53794e-10
-4.26538e-10
-3.90998e-10
-3.53729e-10
-3.14224e-10
-2.87961e-10
-2.74531e-10
-2.71457e-10
-4.83605e-10
-4.89137e-10
-4.69249e-10
-4.32815e-10
-3.83658e-10
-3.47651e-10
-3.13562e-10
-2.96446e-10
-2.89999e-10
-2.89334e-10
-5.11165e-10
-5.13888e-10
-4.85367e-10
-4.37919e-10
-3.75838e-10
-3.48552e-10
-3.22873e-10
-3.17962e-10
-3.17714e-10
-3.17161e-10
-5.48992e-10
-5.4843e-10
-5.09664e-10
-4.52798e-10
-3.92285e-10
-3.79587e-10
-3.57244e-10
-3.58562e-10
-3.595e-10
-3.55106e-10
-6.12152e-10
-6.01208e-10
-5.4596e-10
-4.78278e-10
-4.42232e-10
-4.20491e-10
-3.98564e-10
-4.05523e-10
-4.05347e-10
-3.95984e-10
-6.03476e-10
-6.01399e-10
-5.56128e-10
-5.03326e-10
-4.56688e-10
-4.15224e-10
-4.10977e-10
-4.04233e-10
-3.94978e-10
-3.8335e-10
-5.64074e-10
-5.60599e-10
-5.14952e-10
-4.60769e-10
-4.07506e-10
-3.89775e-10
-3.58793e-10
-3.42445e-10
-3.30494e-10
-3.19346e-10
-5.33761e-10
-5.26863e-10
-4.80731e-10
-4.20867e-10
-3.55216e-10
-3.27e-10
-2.99023e-10
-2.81808e-10
-2.70596e-10
-2.61628e-10
-5.0512e-10
-4.93991e-10
-4.45886e-10
-3.79857e-10
-3.00664e-10
-2.65042e-10
-2.4715e-10
-2.34102e-10
-2.24534e-10
-2.17688e-10
-4.85646e-10
-4.71022e-10
-4.21631e-10
-3.52188e-10
-2.65452e-10
-2.27146e-10
-2.18956e-10
-2.08951e-10
-1.9992e-10
-1.9456e-10
-1.33739e-09
-1.35369e-09
-1.31634e-09
-1.24541e-09
-1.15376e-09
-1.05048e-09
-9.36729e-10
-8.58563e-10
-8.16855e-10
-8.01829e-10
-1.40218e-09
-1.40954e-09
-1.35522e-09
-1.26221e-09
-1.13897e-09
-1.04305e-09
-9.43186e-10
-8.87946e-10
-8.59691e-10
-8.44789e-10
-1.47598e-09
-1.47606e-09
-1.39966e-09
-1.27787e-09
-1.12313e-09
-1.06261e-09
-9.76242e-10
-9.48056e-10
-9.30106e-10
-9.11847e-10
-1.58236e-09
-1.57273e-09
-1.46773e-09
-1.31547e-09
-1.14973e-09
-1.16422e-09
-1.06222e-09
-1.04274e-09
-1.02448e-09
-9.97437e-10
-1.75807e-09
-1.71713e-09
-1.56311e-09
-1.36371e-09
-1.20239e-09
-1.29182e-09
-1.15525e-09
-1.13068e-09
-1.10769e-09
-1.07276e-09
-1.74603e-09
-1.73189e-09
-1.61153e-09
-1.48052e-09
-1.38092e-09
-1.10464e-09
-1.15177e-09
-1.13324e-09
-1.09171e-09
-1.04966e-09
-1.6299e-09
-1.60788e-09
-1.48081e-09
-1.32937e-09
-1.18369e-09
-1.1013e-09
-1.03556e-09
-9.79478e-10
-9.32509e-10
-8.95279e-10
-1.54337e-09
-1.51384e-09
-1.38645e-09
-1.2206e-09
-1.03235e-09
-9.57771e-10
-8.8506e-10
-8.267e-10
-7.82865e-10
-7.52749e-10
-1.46546e-09
-1.42716e-09
-1.29642e-09
-1.11883e-09
-9.00801e-10
-8.06562e-10
-7.56791e-10
-7.07681e-10
-6.67583e-10
-6.43967e-10
-1.41133e-09
-1.36476e-09
-1.23382e-09
-1.05439e-09
-8.28513e-10
-7.21196e-10
-6.95931e-10
-6.514e-10
-6.11508e-10
-5.92469e-10
-2.09086e-09
-2.10594e-09
-2.05431e-09
-1.96681e-09
-1.86357e-09
-1.70483e-09
-1.52282e-09
-1.39037e-09
-1.31363e-09
-1.27566e-09
-2.17744e-09
-2.18076e-09
-2.10969e-09
-1.99676e-09
-1.85903e-09
-1.71028e-09
-1.54361e-09
-1.43502e-09
-1.36638e-09
-1.32151e-09
-2.28145e-09
-2.27439e-09
-2.17452e-09
-2.02434e-09
-1.84609e-09
-1.75467e-09
-1.59528e-09
-1.51383e-09
-1.45155e-09
-1.40069e-09
-2.43569e-09
-2.41345e-09
-2.27374e-09
-2.07286e-09
-1.83962e-09
-1.91789e-09
-1.70445e-09
-1.62013e-09
-1.55404e-09
-1.49593e-09
-2.68355e-09
-2.61542e-09
-2.40373e-09
-2.10064e-09
-1.73326e-09
-2.17253e-09
-1.87071e-09
-1.72776e-09
-1.6371e-09
-1.56754e-09
-2.68244e-09
-2.64501e-09
-2.47972e-09
-2.32664e-09
-2.29185e-09
-1.56593e-09
-1.69729e-09
-1.68173e-09
-1.61018e-09
-1.54285e-09
-2.52036e-09
-2.4743e-09
-2.29386e-09
-2.08462e-09
-1.94836e-09
-1.65803e-09
-1.5967e-09
-1.50819e-09
-1.42244e-09
-1.36048e-09
-2.40268e-09
-2.35045e-09
-2.16993e-09
-1.9382e-09
-1.7077e-09
-1.53787e-09
-1.43275e-09
-1.32601e-09
-1.23791e-09
-1.18365e-09
-2.30042e-09
-2.24016e-09
-2.05972e-09
-1.82196e-09
-1.54829e-09
-1.39088e-09
-1.2925e-09
-1.18345e-09
-1.09383e-09
-1.04744e-09
-2.22504e-09
-2.15618e-09
-1.98291e-09
-1.75707e-09
-1.4864e-09
-1.32024e-09
-1.23725e-09
-1.12388e-09
-1.03098e-09
-9.92165e-10
-2.62741e-09
-2.63941e-09
-2.5879e-09
-2.5077e-09
-2.43263e-09
-2.24021e-09
-2.0005e-09
-1.82051e-09
-1.7047e-09
-1.63928e-09
-2.71847e-09
-2.71954e-09
-2.65141e-09
-2.55059e-09
-2.44779e-09
-2.25512e-09
-2.03262e-09
-1.86525e-09
-1.74642e-09
-1.67176e-09
-2.83081e-09
-2.81907e-09
-2.72382e-09
-2.59401e-09
-2.46717e-09
-2.30089e-09
-2.09419e-09
-1.94445e-09
-1.82633e-09
-1.74765e-09
-2.99781e-09
-2.96843e-09
-2.8392e-09
-2.66785e-09
-2.48302e-09
-2.45374e-09
-2.19795e-09
-2.03856e-09
-1.91684e-09
-1.83538e-09
-3.25149e-09
-3.18046e-09
-2.99303e-09
-2.72272e-09
-2.33099e-09
-2.78411e-09
-2.41332e-09
-2.16777e-09
-2.00573e-09
-1.90674e-09
-3.27323e-09
-3.21359e-09
-3.03266e-09
-2.86984e-09
-2.9258e-09
-2.12991e-09
-2.14107e-09
-2.06672e-09
-1.96062e-09
-1.87991e-09
-3.12905e-09
-3.07489e-09
-2.88807e-09
-2.67117e-09
-2.59054e-09
-2.16762e-09
-2.05401e-09
-1.91896e-09
-1.79462e-09
-1.71193e-09
-3.02779e-09
-2.97116e-09
-2.78561e-09
-2.5534e-09
-2.36945e-09
-2.10211e-09
-1.9365e-09
-1.76601e-09
-1.62627e-09
-1.54572e-09
-2.93825e-09
-2.87741e-09
-2.70108e-09
-2.48252e-09
-2.26605e-09
-2.04409e-09
-1.84831e-09
-1.6477e-09
-1.49165e-09
-1.41556e-09
-2.86394e-09
-2.79816e-09
-2.64095e-09
-2.45331e-09
-2.25356e-09
-2.03909e-09
-1.82416e-09
-1.60301e-09
-1.43829e-09
-1.3735e-09
-2.91171e-09
-2.91732e-09
-2.86708e-09
-2.78808e-09
-2.72108e-09
-2.54146e-09
-2.28862e-09
-2.09821e-09
-1.96312e-09
-1.88516e-09
-2.9913e-09
-2.9866e-09
-2.92233e-09
-2.82853e-09
-2.74452e-09
-2.56016e-09
-2.32462e-09
-2.1322e-09
-1.98696e-09
-1.90567e-09
-3.09005e-09
-3.07039e-09
-2.98641e-09
-2.8836e-09
-2.81205e-09
-2.6088e-09
-2.3979e-09
-2.20896e-09
-2.06029e-09
-1.977e-09
-3.23572e-09
-3.20077e-09
-3.09907e-09
-2.98736e-09
-2.91163e-09
-2.705e-09
-2.48634e-09
-2.29142e-09
-2.14134e-09
-2.05444e-09
-3.44177e-09
-3.38676e-09
-3.26039e-09
-3.11115e-09
-2.9031e-09
-2.94067e-09
-2.6528e-09
-2.40898e-09
-2.22924e-09
-2.12276e-09
-3.50535e-09
-3.44556e-09
-3.27769e-09
-3.09506e-09
-3.10186e-09
-2.72712e-09
-2.50612e-09
-2.33734e-09
-2.1935e-09
-2.10397e-09
-3.43847e-09
-3.39293e-09
-3.23347e-09
-3.03894e-09
-2.94848e-09
-2.62172e-09
-2.41123e-09
-2.22137e-09
-2.06587e-09
-1.96877e-09
-3.39299e-09
-3.34812e-09
-3.19678e-09
-3.01494e-09
-2.889e-09
-2.61675e-09
-2.36283e-09
-2.12607e-09
-1.9421e-09
-1.84102e-09
-3.3445e-09
-3.30379e-09
-3.17867e-09
-3.04046e-09
-2.93271e-09
-2.68439e-09
-2.35782e-09
-2.05981e-09
-1.84277e-09
-1.74284e-09
-3.2907e-09
-3.25327e-09
-3.15997e-09
-3.06686e-09
-2.99193e-09
-2.75467e-09
-2.36913e-09
-2.03774e-09
-1.8104e-09
-1.72842e-09
-2.95283e-09
-2.94445e-09
-2.88606e-09
-2.78954e-09
-2.68817e-09
-2.56203e-09
-2.38466e-09
-2.24415e-09
-2.13233e-09
-2.07078e-09
-3.00858e-09
-2.98954e-09
-2.91889e-09
-2.81507e-09
-2.71576e-09
-2.59227e-09
-2.42405e-09
-2.26982e-09
-2.14679e-09
-2.08876e-09
-3.08326e-09
-3.05152e-09
-2.97246e-09
-2.88053e-09
-2.82139e-09
-2.67054e-09
-2.51207e-09
-2.34528e-09
-2.21463e-09
-2.15178e-09
-3.20039e-09
-3.16066e-09
-3.07438e-09
-2.99104e-09
-2.95645e-09
-2.72789e-09
-2.5858e-09
-2.41662e-09
-2.28303e-09
-2.20989e-09
-3.36962e-09
-3.32338e-09
-3.21949e-09
-3.1234e-09
-3.03605e-09
-2.76454e-09
-2.64582e-09
-2.481e-09
-2.33707e-09
-2.24752e-09
-3.47206e-09
-3.42401e-09
-3.27519e-09
-3.07768e-09
-2.92798e-09
-2.92835e-09
-2.65957e-09
-2.48191e-09
-2.33537e-09
-2.24866e-09
-3.49167e-09
-3.45494e-09
-3.32658e-09
-3.16067e-09
-3.01037e-09
-2.83614e-09
-2.61514e-09
-2.41733e-09
-2.25886e-09
-2.16374e-09
-3.50942e-09
-3.48067e-09
-3.37771e-09
-3.25796e-09
-3.15556e-09
-2.94419e-09
-2.65031e-09
-2.38817e-09
-2.19189e-09
-2.09084e-09
-3.51363e-09
-3.50389e-09
-3.44817e-09
-3.39666e-09
-3.36496e-09
-3.1378e-09
-2.72686e-09
-2.38156e-09
-2.14432e-09
-2.04501e-09
-3.49416e-09
-3.49736e-09
-3.47992e-09
-3.47489e-09
-3.48452e-09
-3.26135e-09
-2.7669e-09
-2.38705e-09
-2.1445e-09
-2.06784e-09
-2.79742e-09
-2.76996e-09
-2.70366e-09
-2.5985e-09
-2.47406e-09
-2.42475e-09
-2.40242e-09
-2.36144e-09
-2.31286e-09
-2.28996e-09
-2.82376e-09
-2.78782e-09
-2.71487e-09
-2.61696e-09
-2.52539e-09
-2.47587e-09
-2.45038e-09
-2.38642e-09
-2.32571e-09
-2.30553e-09
-2.87888e-09
-2.83887e-09
-2.77149e-09
-2.70244e-09
-2.66402e-09
-2.58369e-09
-2.54674e-09
-2.45343e-09
-2.37734e-09
-2.34581e-09
-2.98162e-09
-2.94124e-09
-2.86996e-09
-2.80851e-09
-2.78437e-09
-2.61114e-09
-2.60463e-09
-2.50443e-09
-2.41679e-09
-2.36881e-09
-3.14717e-09
-3.09521e-09
-2.99548e-09
-2.90663e-09
-2.83856e-09
-2.48792e-09
-2.58465e-09
-2.51359e-09
-2.41719e-09
-2.35221e-09
-3.26537e-09
-3.21394e-09
-3.07443e-09
-2.87535e-09
-2.61693e-09
-2.80957e-09
-2.63292e-09
-2.53794e-09
-2.43429e-09
-2.36622e-09
-3.34286e-09
-3.31021e-09
-3.21601e-09
-3.08877e-09
-2.9144e-09
-2.80556e-09
-2.68442e-09
-2.54853e-09
-2.42518e-09
-2.35344e-09
-3.41278e-09
-3.40134e-09
-3.34906e-09
-3.28155e-09
-3.18989e-09
-3.02946e-09
-2.79699e-09
-2.58189e-09
-2.41995e-09
-2.34546e-09
-3.47139e-09
-3.49384e-09
-3.49808e-09
-3.49832e-09
-3.48624e-09
-3.30284e-09
-2.92904e-09
-2.62966e-09
-2.43283e-09
-2.36119e-09
-3.49293e-09
-3.53231e-09
-3.5686e-09
-3.60252e-09
-3.62286e-09
-3.44478e-09
-2.9901e-09
-2.66594e-09
-2.46971e-09
-2.41565e-09
-2.51908e-09
-2.48117e-09
-2.43403e-09
-2.37103e-09
-2.29813e-09
-2.35036e-09
-2.49683e-09
-2.57103e-09
-2.60181e-09
-2.62076e-09
-2.51939e-09
-2.48052e-09
-2.43838e-09
-2.40044e-09
-2.38725e-09
-2.42037e-09
-2.55216e-09
-2.59411e-09
-2.60697e-09
-2.62076e-09
-2.56583e-09
-2.53405e-09
-2.51054e-09
-2.51128e-09
-2.55897e-09
-2.52912e-09
-2.64328e-09
-2.63888e-09
-2.62458e-09
-2.62217e-09
-2.66172e-09
-2.63461e-09
-2.61407e-09
-2.62799e-09
-2.70412e-09
-2.50242e-09
-2.68288e-09
-2.66135e-09
-2.62133e-09
-2.60028e-09
-2.81155e-09
-2.77216e-09
-2.73815e-09
-2.74986e-09
-2.85093e-09
-2.23491e-09
-2.59892e-09
-2.63004e-09
-2.5723e-09
-2.52769e-09
-2.93307e-09
-2.88433e-09
-2.78627e-09
-2.61621e-09
-2.29209e-09
-2.89783e-09
-2.68709e-09
-2.64688e-09
-2.58648e-09
-2.53812e-09
-3.05023e-09
-3.03716e-09
-3.00798e-09
-2.9515e-09
-2.78977e-09
-2.79127e-09
-2.76213e-09
-2.71188e-09
-2.64247e-09
-2.60627e-09
-3.16339e-09
-3.17903e-09
-3.18611e-09
-3.17291e-09
-3.10503e-09
-3.00938e-09
-2.90262e-09
-2.78882e-09
-2.69483e-09
-2.66101e-09
-3.26971e-09
-3.32161e-09
-3.36946e-09
-3.39416e-09
-3.38323e-09
-3.26804e-09
-3.04798e-09
-2.87531e-09
-2.76172e-09
-2.72697e-09
-3.32656e-09
-3.38909e-09
-3.45088e-09
-3.48814e-09
-3.49489e-09
-3.39291e-09
-3.11957e-09
-2.93464e-09
-2.82203e-09
-2.79326e-09
-2.19996e-09
-2.17821e-09
-2.19841e-09
-2.24464e-09
-2.30461e-09
-2.48528e-09
-2.76351e-09
-2.94286e-09
-3.04807e-09
-3.10139e-09
-2.18575e-09
-2.1742e-09
-2.21195e-09
-2.29177e-09
-2.41214e-09
-2.56022e-09
-2.81151e-09
-2.95036e-09
-3.03004e-09
-3.07256e-09
-2.23159e-09
-2.23594e-09
-2.29981e-09
-2.41466e-09
-2.59002e-09
-2.65053e-09
-2.88184e-09
-2.95978e-09
-3.00218e-09
-3.0293e-09
-2.31637e-09
-2.33119e-09
-2.40946e-09
-2.54841e-09
-2.79657e-09
-2.57268e-09
-2.90688e-09
-2.95445e-09
-2.95569e-09
-2.96406e-09
-2.4189e-09
-2.44105e-09
-2.54282e-09
-2.74625e-09
-3.19148e-09
-2.15122e-09
-2.74559e-09
-2.88357e-09
-2.86433e-09
-2.84585e-09
-2.54193e-09
-2.54919e-09
-2.56889e-09
-2.49319e-09
-2.11735e-09
-3.32749e-09
-2.97861e-09
-2.92144e-09
-2.87714e-09
-2.84524e-09
-2.69252e-09
-2.73093e-09
-2.80825e-09
-2.86977e-09
-2.74142e-09
-2.98452e-09
-2.98309e-09
-2.99535e-09
-2.97676e-09
-2.97747e-09
-2.83275e-09
-2.89076e-09
-2.97345e-09
-3.04473e-09
-3.03769e-09
-3.0742e-09
-3.09341e-09
-3.0896e-09
-3.06953e-09
-3.07391e-09
-2.96306e-09
-3.04301e-09
-3.1323e-09
-3.19878e-09
-3.23298e-09
-3.23508e-09
-3.21129e-09
-3.1895e-09
-3.16517e-09
-3.16297e-09
-3.03433e-09
-3.11148e-09
-3.19403e-09
-3.25278e-09
-3.30029e-09
-3.31851e-09
-3.27388e-09
-3.24955e-09
-3.22605e-09
-3.22453e-09
-1.90501e-09
-1.93383e-09
-2.06543e-09
-2.26848e-09
-2.50868e-09
-2.83416e-09
-3.21365e-09
-3.48906e-09
-3.66539e-09
-3.75435e-09
-1.88943e-09
-1.93755e-09
-2.09284e-09
-2.32294e-09
-2.59788e-09
-2.8927e-09
-3.23328e-09
-3.46569e-09
-3.61566e-09
-3.69764e-09
-1.93503e-09
-2.00359e-09
-2.1851e-09
-2.4345e-09
-2.73639e-09
-2.95922e-09
-3.26819e-09
-3.43363e-09
-3.54484e-09
-3.61716e-09
-2.00563e-09
-2.09252e-09
-2.29625e-09
-2.57071e-09
-2.96832e-09
-2.88162e-09
-3.28625e-09
-3.40392e-09
-3.46224e-09
-3.51658e-09
-2.06555e-09
-2.18104e-09
-2.43083e-09
-2.81485e-09
-3.5779e-09
-2.39379e-09
-3.06845e-09
-3.28691e-09
-3.32931e-09
-3.36483e-09
-2.17587e-09
-2.28445e-09
-2.4744e-09
-2.57871e-09
-2.25951e-09
-3.83055e-09
-3.44398e-09
-3.36588e-09
-3.34529e-09
-3.35019e-09
-2.32833e-09
-2.4399e-09
-2.64781e-09
-2.87529e-09
-2.8544e-09
-3.35812e-09
-3.37241e-09
-3.4293e-09
-3.46456e-09
-3.50616e-09
-2.45972e-09
-2.5716e-09
-2.74895e-09
-2.95386e-09
-3.07826e-09
-3.30382e-09
-3.42549e-09
-3.51868e-09
-3.57061e-09
-3.61303e-09
-2.57586e-09
-2.68739e-09
-2.83784e-09
-3.00248e-09
-3.16304e-09
-3.33883e-09
-3.48877e-09
-3.6031e-09
-3.6639e-09
-3.70089e-09
-2.63384e-09
-2.72961e-09
-2.85912e-09
-3.00128e-09
-3.17297e-09
-3.36258e-09
-3.51762e-09
-3.64229e-09
-3.71284e-09
-3.75658e-09
-1.65562e-09
-1.75936e-09
-2.02353e-09
-2.39996e-09
-2.83796e-09
-3.32787e-09
-3.81941e-09
-4.21028e-09
-4.48137e-09
-4.62785e-09
-1.64177e-09
-1.76687e-09
-2.05187e-09
-2.4403e-09
-2.87957e-09
-3.34738e-09
-3.797e-09
-4.15349e-09
-4.40902e-09
-4.55909e-09
-1.67517e-09
-1.82012e-09
-2.12636e-09
-2.5193e-09
-2.95083e-09
-3.38e-09
-3.78839e-09
-4.0848e-09
-4.31009e-09
-4.45762e-09
-1.72283e-09
-1.89055e-09
-2.22313e-09
-2.63906e-09
-3.15107e-09
-3.35061e-09
-3.79884e-09
-4.02845e-09
-4.19827e-09
-4.33084e-09
-1.75181e-09
-1.95337e-09
-2.3394e-09
-2.87078e-09
-3.80936e-09
-2.96845e-09
-3.57415e-09
-3.86176e-09
-4.02291e-09
-4.1515e-09
-1.82477e-09
-2.03062e-09
-2.39815e-09
-2.75454e-09
-2.70255e-09
-4.21604e-09
-3.97049e-09
-3.9573e-09
-4.02984e-09
-4.11492e-09
-1.93266e-09
-2.12212e-09
-2.47004e-09
-2.89862e-09
-3.09922e-09
-3.78741e-09
-3.88205e-09
-4.02002e-09
-4.14591e-09
-4.2481e-09
-2.01997e-09
-2.1929e-09
-2.48592e-09
-2.86822e-09
-3.19542e-09
-3.63916e-09
-3.87856e-09
-4.08735e-09
-4.23675e-09
-4.3383e-09
-2.0894e-09
-2.24213e-09
-2.48706e-09
-2.80846e-09
-3.15363e-09
-3.55523e-09
-3.87495e-09
-4.13505e-09
-4.3066e-09
-4.41102e-09
-2.11397e-09
-2.24327e-09
-2.46058e-09
-2.74957e-09
-3.09058e-09
-3.50072e-09
-3.85904e-09
-4.15018e-09
-4.34566e-09
-4.46829e-09
-1.41874e-09
-1.60357e-09
-2.00495e-09
-2.55819e-09
-3.1999e-09
-3.9019e-09
-4.57263e-09
-5.14505e-09
-5.56963e-09
-5.8102e-09
-1.39254e-09
-1.59387e-09
-2.00745e-09
-2.55983e-09
-3.17898e-09
-3.86778e-09
-4.5121e-09
-5.06996e-09
-5.49618e-09
-5.7489e-09
-1.38866e-09
-1.605e-09
-2.03561e-09
-2.59044e-09
-3.18495e-09
-3.8535e-09
-4.46452e-09
-4.98047e-09
-5.38974e-09
-5.64448e-09
-1.38402e-09
-1.62328e-09
-2.08838e-09
-2.67231e-09
-3.31635e-09
-3.86741e-09
-4.45329e-09
-4.89458e-09
-5.2574e-09
-5.5022e-09
-1.35141e-09
-1.62904e-09
-2.1604e-09
-2.84308e-09
-3.83178e-09
-3.66629e-09
-4.25188e-09
-4.69056e-09
-5.05053e-09
-5.3012e-09
-1.36544e-09
-1.65268e-09
-2.19556e-09
-2.82635e-09
-3.181e-09
-4.44351e-09
-4.53005e-09
-4.74534e-09
-5.01841e-09
-5.22633e-09
-1.41679e-09
-1.68699e-09
-2.18274e-09
-2.82559e-09
-3.33321e-09
-4.16229e-09
-4.47934e-09
-4.81025e-09
-5.10135e-09
-5.29906e-09
-1.44812e-09
-1.69003e-09
-2.12033e-09
-2.70619e-09
-3.28447e-09
-3.97534e-09
-4.43218e-09
-4.83911e-09
-5.14965e-09
-5.34704e-09
-1.45641e-09
-1.66499e-09
-2.03849e-09
-2.55745e-09
-3.11866e-09
-3.79549e-09
-4.36637e-09
-4.84108e-09
-5.1824e-09
-5.39091e-09
-1.44083e-09
-1.62353e-09
-1.96744e-09
-2.45139e-09
-2.98984e-09
-3.66677e-09
-4.31897e-09
-4.84092e-09
-5.21347e-09
-5.44676e-09
-1.1246e-09
-1.39007e-09
-1.94048e-09
-2.69307e-09
-3.56081e-09
-4.55465e-09
-5.52811e-09
-6.38436e-09
-7.03608e-09
-7.40424e-09
-1.06261e-09
-1.33808e-09
-1.89335e-09
-2.64212e-09
-3.48623e-09
-4.47569e-09
-5.45108e-09
-6.31492e-09
-6.98024e-09
-7.36064e-09
-9.93794e-10
-1.28144e-09
-1.85541e-09
-2.61592e-09
-3.4482e-09
-4.41664e-09
-5.37784e-09
-6.22313e-09
-6.88251e-09
-7.26457e-09
-9.01414e-10
-1.21546e-09
-1.83343e-09
-2.62897e-09
-3.49144e-09
-4.42534e-09
-5.32662e-09
-6.11343e-09
-6.7444e-09
-7.12147e-09
-7.68559e-10
-1.13646e-09
-1.82897e-09
-2.69518e-09
-3.75701e-09
-4.32128e-09
-5.14429e-09
-5.90253e-09
-6.53755e-09
-6.92234e-09
-7.02423e-10
-1.08023e-09
-1.79753e-09
-2.68358e-09
-3.4621e-09
-4.64606e-09
-5.25313e-09
-5.86902e-09
-6.43198e-09
-6.78515e-09
-7.04911e-10
-1.06339e-09
-1.71727e-09
-2.58518e-09
-3.45172e-09
-4.51138e-09
-5.21891e-09
-5.88815e-09
-6.42932e-09
-6.75556e-09
-6.75211e-10
-9.98201e-10
-1.59158e-09
-2.41255e-09
-3.30081e-09
-4.30874e-09
-5.12862e-09
-5.85164e-09
-6.39957e-09
-6.72484e-09
-6.15744e-10
-9.00208e-10
-1.43999e-09
-2.20489e-09
-3.05517e-09
-4.06513e-09
-5.01277e-09
-5.79948e-09
-6.37608e-09
-6.71457e-09
-5.59106e-10
-8.19784e-10
-1.33454e-09
-2.07352e-09
-2.90188e-09
-3.90057e-09
-4.95037e-09
-5.78222e-09
-6.38542e-09
-6.73809e-09
-7.00873e-10
-1.06234e-09
-1.8043e-09
-2.82551e-09
-4.00299e-09
-5.38992e-09
-6.80115e-09
-8.0392e-09
-8.97498e-09
-9.48845e-09
-5.87872e-10
-9.57969e-10
-1.7045e-09
-2.7287e-09
-3.90323e-09
-5.29787e-09
-6.72868e-09
-7.98812e-09
-8.93811e-09
-9.45642e-09
-4.38702e-10
-8.25315e-10
-1.59361e-09
-2.63572e-09
-3.82407e-09
-5.21074e-09
-6.63262e-09
-7.89673e-09
-8.84831e-09
-9.36544e-09
-2.42366e-10
-6.60253e-10
-1.46723e-09
-2.53456e-09
-3.74516e-09
-5.17026e-09
-6.52388e-09
-7.76778e-09
-8.71459e-09
-9.23083e-09
-6.77746e-12
-4.77625e-10
-1.33264e-09
-2.43394e-09
-3.74114e-09
-5.0667e-09
-6.33754e-09
-7.56937e-09
-8.53484e-09
-9.05752e-09
1.69822e-10
-3.15447e-10
-1.21111e-09
-2.37888e-09
-3.63985e-09
-5.00677e-09
-6.30354e-09
-7.44063e-09
-8.3386e-09
-8.83798e-09
2.57165e-10
-1.99734e-10
-1.03812e-09
-2.18366e-09
-3.48213e-09
-4.9573e-09
-6.19564e-09
-7.32024e-09
-8.17455e-09
-8.64676e-09
3.77614e-10
-4.73318e-11
-8.49739e-10
-1.97723e-09
-3.27649e-09
-4.73191e-09
-6.03343e-09
-7.1734e-09
-8.02043e-09
-8.4914e-09
5.19468e-10
1.27597e-10
-6.39246e-10
-1.73814e-09
-3.01613e-09
-4.45245e-09
-5.86456e-09
-7.0459e-09
-7.91169e-09
-8.38656e-09
6.21152e-10
2.44244e-10
-5.10467e-10
-1.59945e-09
-2.87728e-09
-4.29096e-09
-5.77939e-09
-6.98934e-09
-7.86558e-09
-8.33371e-09
-8.6037e-11
-5.90507e-10
-1.60679e-09
-3.01687e-09
-4.66335e-09
-6.55701e-09
-8.50319e-09
-1.01912e-08
-1.14448e-08
-1.21123e-08
7.55214e-11
-4.41949e-10
-1.46661e-09
-2.88699e-09
-4.55095e-09
-6.46418e-09
-8.42937e-09
-1.01436e-08
-1.14068e-08
-1.20721e-08
3.10936e-10
-2.27391e-10
-1.26852e-09
-2.70019e-09
-4.38119e-09
-6.34097e-09
-8.28562e-09
-1.00265e-08
-1.13009e-08
-1.1965e-08
6.20949e-10
5.88728e-11
-9.98039e-10
-2.43204e-09
-4.10118e-09
-6.21967e-09
-8.09641e-09
-9.8616e-09
-1.11551e-08
-1.18195e-08
9.65724e-10
3.89723e-10
-6.59537e-10
-2.07402e-09
-3.72248e-09
-6.10406e-09
-7.90235e-09
-9.66986e-09
-1.09877e-08
-1.16491e-08
1.30221e-09
7.00951e-10
-4.15054e-10
-1.99271e-09
-3.91748e-09
-5.4635e-09
-7.65226e-09
-9.41444e-09
-1.06838e-08
-1.13315e-08
1.57314e-09
9.9215e-10
-1.0163e-10
-1.64365e-09
-3.52468e-09
-5.50523e-09
-7.41848e-09
-9.08246e-09
-1.02948e-08
-1.09251e-08
1.84007e-09
1.27218e-09
1.76184e-10
-1.37712e-09
-3.23297e-09
-5.26026e-09
-7.14212e-09
-8.77797e-09
-9.97682e-09
-1.06059e-08
2.08829e-09
1.53707e-09
4.4927e-10
-1.10564e-09
-2.96513e-09
-4.95611e-09
-6.89457e-09
-8.54538e-09
-9.75007e-09
-1.03697e-08
2.2421e-09
1.69251e-09
6.03405e-10
-9.53036e-10
-2.82581e-09
-4.79917e-09
-6.76018e-09
-8.42013e-09
-9.61651e-09
-1.0226e-08
7.99831e-10
7.77227e-11
-1.32723e-09
-3.27891e-09
-5.58821e-09
-8.12777e-09
-1.06908e-08
-1.28938e-08
-1.45067e-08
-1.53512e-08
1.00289e-09
2.67093e-10
-1.14615e-09
-3.10998e-09
-5.44336e-09
-7.99615e-09
-1.05805e-08
-1.28124e-08
-1.44355e-08
-1.5277e-08
1.34694e-09
5.97032e-10
-8.22759e-10
-2.792e-09
-5.12521e-09
-7.77601e-09
-1.03469e-08
-1.26243e-08
-1.42704e-08
-1.5113e-08
1.81374e-09
1.0588e-09
-3.63258e-10
-2.3326e-09
-4.61348e-09
-7.51501e-09
-1.00447e-08
-1.23775e-08
-1.40539e-08
-1.48903e-08
2.33807e-09
1.60963e-09
2.16353e-10
-1.70194e-09
-3.81675e-09
-7.38656e-09
-9.83579e-09
-1.21494e-08
-1.38211e-08
-1.46306e-08
2.90584e-09
2.15143e-09
6.95448e-10
-1.46544e-09
-4.25229e-09
-6.09909e-09
-9.22989e-09
-1.16751e-08
-1.33615e-08
-1.41801e-08
3.44333e-09
2.67071e-09
1.18607e-09
-9.23257e-10
-3.58328e-09
-6.12446e-09
-8.82923e-09
-1.11041e-08
-1.27297e-08
-1.35466e-08
3.9161e-09
3.13298e-09
1.61759e-09
-5.13171e-10
-3.09281e-09
-5.79327e-09
-8.38316e-09
-1.06114e-08
-1.223e-08
-1.30476e-08
4.29943e-09
3.5169e-09
1.99251e-09
-1.54248e-10
-2.72782e-09
-5.4256e-09
-8.01942e-09
-1.02487e-08
-1.18635e-08
-1.26754e-08
4.51724e-09
3.72914e-09
2.19824e-09
4.63475e-11
-2.52422e-09
-5.23624e-09
-7.81917e-09
-1.00403e-08
-1.16424e-08
-1.24507e-08
2.10804e-09
1.0847e-09
-8.46008e-10
-3.52033e-09
-6.70071e-09
-1.00882e-08
-1.34057e-08
-1.62429e-08
-1.83075e-08
-1.93861e-08
2.36816e-09
1.34126e-09
-5.94505e-10
-3.28155e-09
-6.48566e-09
-9.86727e-09
-1.3218e-08
-1.60868e-08
-1.81689e-08
-1.92481e-08
2.8796e-09
1.85124e-09
-9.19989e-11
-2.79699e-09
-6.00164e-09
-9.47155e-09
-1.28527e-08
-1.57753e-08
-1.7885e-08
-1.89622e-08
3.58933e-09
2.56415e-09
6.00986e-10
-2.14454e-09
-5.32999e-09
-8.9861e-09
-1.23851e-08
-1.53678e-08
-1.74967e-08
-1.85569e-08
4.41355e-09
3.40148e-09
1.41168e-09
-1.33439e-09
-4.34485e-09
-8.7261e-09
-1.20363e-08
-1.49748e-08
-1.70556e-08
-1.8071e-08
5.29615e-09
4.2704e-09
2.262e-09
-6.54047e-10
-4.40516e-09
-7.23639e-09
-1.109e-08
-1.42098e-08
-1.63731e-08
-1.74173e-08
6.15175e-09
5.07434e-09
3.01468e-09
1.39475e-10
-3.44751e-09
-6.83632e-09
-1.04003e-08
-1.33861e-08
-1.55207e-08
-1.65897e-08
6.88957e-09
5.79439e-09
3.7071e-09
8.17381e-10
-2.66134e-09
-6.2295e-09
-9.71888e-09
-1.26906e-08
-1.48343e-08
-1.59136e-08
7.45097e-09
6.35448e-09
4.25926e-09
1.35213e-09
-2.10237e-09
-5.71958e-09
-9.20678e-09
-1.21797e-08
-1.43241e-08
-1.54106e-08
7.7591e-09
6.6589e-09
4.55567e-09
1.63643e-09
-1.80073e-09
-5.46289e-09
-8.93869e-09
-1.18927e-08
-1.40282e-08
-1.50981e-08
4.0966e-09
2.6865e-09
5.64654e-11
-3.57994e-09
-7.90259e-09
-1.24282e-08
-1.67528e-08
-2.04497e-08
-2.31395e-08
-2.45501e-08
4.46485e-09
3.06341e-09
4.26315e-10
-3.22447e-09
-7.56104e-09
-1.20931e-08
-1.64545e-08
-2.01837e-08
-2.28977e-08
-2.43093e-08
5.22883e-09
3.82792e-09
1.16803e-09
-2.52347e-09
-6.88465e-09
-1.1458e-08
-1.59031e-08
-1.96834e-08
-2.24172e-08
-2.38196e-08
6.28336e-09
4.87154e-09
2.16218e-09
-1.61443e-09
-6.04491e-09
-1.06517e-08
-1.51734e-08
-1.90021e-08
-2.17371e-08
-2.31257e-08
7.51813e-09
6.06139e-09
3.25873e-09
-5.96856e-10
-4.98434e-09
-9.96644e-09
-1.44365e-08
-1.82474e-08
-2.09313e-08
-2.22971e-08
8.82211e-09
7.35464e-09
4.54344e-09
6.67405e-10
-4.0916e-09
-8.64735e-09
-1.32464e-08
-1.71611e-08
-1.99479e-08
-2.13354e-08
1.00702e-08
8.56407e-09
5.73275e-09
1.85536e-09
-2.82254e-09
-7.53391e-09
-1.21575e-08
-1.60688e-08
-1.88868e-08
-2.03249e-08
1.11558e-08
9.6433e-09
6.80288e-09
2.90397e-09
-1.74011e-09
-6.52964e-09
-1.12006e-08
-1.51497e-08
-1.79943e-08
-1.94535e-08
1.19654e-08
1.0456e-08
7.60626e-09
3.67646e-09
-9.75606e-10
-5.83496e-09
-1.05166e-08
-1.44716e-08
-1.73296e-08
-1.87886e-08
1.24048e-08
1.0892e-08
8.02569e-09
4.06181e-09
-5.95184e-10
-5.49276e-09
-1.01666e-08
-1.41054e-08
-1.69461e-08
-1.83797e-08
7.11995e-09
5.21618e-09
1.64977e-09
-3.28039e-09
-9.13029e-09
-1.52001e-08
-2.0943e-08
-2.58646e-08
-2.9448e-08
-3.13296e-08
7.67013e-09
5.77576e-09
2.19299e-09
-2.75278e-09
-8.59461e-09
-1.4733e-08
-2.05063e-08
-2.54587e-08
-2.90642e-08
-3.09427e-08
8.78382e-09
6.87662e-09
3.25252e-09
-1.75058e-09
-7.64217e-09
-1.38008e-08
-1.96882e-08
-2.46874e-08
-2.83026e-08
-3.01747e-08
1.02957e-08
8.35433e-09
4.66898e-09
-4.24983e-10
-6.44172e-09
-1.25639e-08
-1.85607e-08
-2.36072e-08
-2.72298e-08
-2.91117e-08
1.20439e-08
1.00205e-08
6.24699e-09
1.06836e-09
-5.02082e-09
-1.11852e-08
-1.72256e-08
-2.23205e-08
-2.59522e-08
-2.78692e-08
1.39262e-08
1.18786e-08
8.03762e-09
2.8733e-09
-3.19454e-09
-9.78291e-09
-1.57588e-08
-2.08701e-08
-2.45733e-08
-2.64902e-08
1.57168e-08
1.36639e-08
9.83483e-09
4.61072e-09
-1.55019e-09
-8.08047e-09
-1.4226e-08
-1.9444e-08
-2.32293e-08
-2.51992e-08
1.72723e-08
1.52163e-08
1.13689e-08
6.08187e-09
-1.76316e-10
-6.70594e-09
-1.29539e-08
-1.82419e-08
-2.20704e-08
-2.40578e-08
1.84223e-08
1.63603e-08
1.24787e-08
7.12231e-09
7.87008e-10
-5.80226e-09
-1.20601e-08
-1.73631e-08
-2.12026e-08
-2.31769e-08
1.90397e-08
1.69688e-08
1.30526e-08
7.63705e-09
1.25782e-09
-5.33161e-09
-1.15909e-08
-1.68884e-08
-2.07062e-08
-2.2678e-08
1.1589e-08
9.0349e-09
4.2086e-09
-2.46366e-09
-1.03605e-08
-1.85591e-08
-2.63194e-08
-3.2977e-08
-3.78219e-08
-4.0361e-08
1.24033e-08
9.84721e-09
4.99134e-09
-1.70546e-09
-9.59139e-09
-1.79232e-08
-2.57143e-08
-3.23998e-08
-3.72574e-08
-3.97941e-08
1.39891e-08
1.14007e-08
6.48753e-09
-2.82506e-10
-8.24823e-09
-1.66421e-08
-2.45376e-08
-3.12694e-08
-3.61403e-08
-3.86855e-08
1.61239e-08
1.34853e-08
8.51035e-09
1.6595e-09
-6.43806e-09
-1.48855e-08
-2.2879e-08
-2.96785e-08
-3.45928e-08
-3.71698e-08
1.85656e-08
1.58611e-08
1.08476e-08
3.95404e-09
-4.24754e-09
-1.28023e-08
-2.08714e-08
-2.77611e-08
-3.27644e-08
-3.54194e-08
2.12399e-08
1.84893e-08
1.33431e-08
6.33605e-09
-1.8833e-09
-1.06093e-08
-1.88826e-08
-2.58301e-08
-3.08776e-08
-3.3541e-08
2.38007e-08
2.10413e-08
1.58728e-08
8.76627e-09
4.0493e-10
-8.4787e-09
-1.68441e-08
-2.3935e-08
-2.90902e-08
-3.17867e-08
2.59897e-08
2.32041e-08
1.79657e-08
1.07394e-08
2.22145e-09
-6.7443e-09
-1.51732e-08
-2.23471e-08
-2.75553e-08
-3.02604e-08
2.75922e-08
2.47769e-08
1.94601e-08
1.21169e-08
3.46831e-09
-5.55613e-09
-1.39996e-08
-2.11956e-08
-2.64048e-08
-2.91167e-08
2.84467e-08
2.56145e-08
2.02451e-08
1.28347e-08
4.10899e-09
-4.90079e-09
-1.33619e-08
-2.0562e-08
-2.57753e-08
-2.85046e-08
1.79527e-08
1.45231e-08
8.00173e-09
-1.01499e-09
-1.166e-08
-2.27963e-08
-3.3373e-08
-4.24265e-08
-4.90137e-08
-5.24644e-08
1.91284e-08
1.56808e-08
9.11235e-09
4.06599e-11
-1.06517e-08
-2.19189e-08
-3.25479e-08
-4.16304e-08
-4.82287e-08
-5.1684e-08
2.13663e-08
1.78675e-08
1.12202e-08
2.03857e-09
-8.79339e-09
-2.01973e-08
-3.09044e-08
-4.00456e-08
-4.6678e-08
-5.01536e-08
2.43874e-08
2.08282e-08
1.40972e-08
4.80465e-09
-6.15512e-09
-1.77942e-08
-2.85808e-08
-3.78318e-08
-4.45472e-08
-4.80624e-08
2.78479e-08
2.42556e-08
1.74888e-08
8.14156e-09
-2.8583e-09
-1.50027e-08
-2.58714e-08
-3.52266e-08
-4.20692e-08
-4.56507e-08
3.16079e-08
2.79412e-08
2.10246e-08
1.14207e-08
-5.07251e-11
-1.14966e-08
-2.29761e-08
-3.25672e-08
-3.95032e-08
-4.3168e-08
3.52328e-08
3.1504e-08
2.44601e-08
1.47159e-08
3.17629e-09
-8.80727e-09
-2.03151e-08
-3.00486e-08
-3.71036e-08
-4.07868e-08
3.82842e-08
3.44892e-08
2.73032e-08
1.73764e-08
5.68977e-09
-6.58453e-09
-1.81188e-08
-2.79404e-08
-3.50579e-08
-3.87683e-08
4.04981e-08
3.66462e-08
2.9338e-08
1.92531e-08
7.39814e-09
-4.98045e-09
-1.65509e-08
-2.64045e-08
-3.35503e-08
-3.73028e-08
4.16747e-08
3.77964e-08
3.04285e-08
2.02749e-08
8.32433e-09
-4.09875e-09
-1.5684e-08
-2.55656e-08
-3.27516e-08
-3.65228e-08
2.67323e-08
2.21221e-08
1.33287e-08
1.16483e-09
-1.31914e-08
-2.83211e-08
-4.2734e-08
-5.50444e-08
-6.40129e-08
-6.87177e-08
2.84079e-08
2.37627e-08
1.48974e-08
2.62722e-09
-1.18833e-08
-2.70823e-08
-4.15905e-08
-5.39504e-08
-6.29474e-08
-6.76609e-08
3.15725e-08
2.6856e-08
1.78698e-08
5.41815e-09
-9.33718e-09
-2.47005e-08
-3.93227e-08
-5.17842e-08
-6.08451e-08
-6.55906e-08
3.58683e-08
3.10694e-08
2.19346e-08
9.2667e-09
-5.69071e-09
-2.13656e-08
-3.61531e-08
-4.87917e-08
-5.79698e-08
-6.27663e-08
4.08262e-08
3.59793e-08
2.67152e-08
1.38424e-08
-1.19204e-09
-1.75386e-08
-3.25597e-08
-4.5366e-08
-5.46835e-08
-5.95203e-08
4.61076e-08
4.11554e-08
3.17285e-08
1.86179e-08
2.89266e-09
-1.30133e-08
-2.85882e-08
-4.17365e-08
-5.12363e-08
-5.62479e-08
5.1181e-08
4.60913e-08
3.64109e-08
2.30298e-08
7.15619e-09
-9.27036e-09
-2.50367e-08
-3.83933e-08
-4.8063e-08
-5.31302e-08
5.54335e-08
5.02323e-08
4.03394e-08
2.66865e-08
1.05977e-08
-6.20587e-09
-2.20989e-08
-3.55991e-08
-4.53898e-08
-5.05342e-08
5.85002e-08
5.32154e-08
4.31693e-08
2.93131e-08
1.29944e-08
-3.97132e-09
-1.99722e-08
-3.3571e-08
-4.34624e-08
-4.86657e-08
6.01216e-08
5.48017e-08
4.46874e-08
3.07497e-08
1.43291e-08
-2.78586e-09
-1.88098e-08
-3.24876e-08
-4.24466e-08
-4.76907e-08
3.85916e-08
3.2405e-08
2.05861e-08
4.22109e-09
-1.51343e-08
-3.56296e-08
-5.52052e-08
-7.19474e-08
-8.41671e-08
-9.05824e-08
4.09824e-08
3.47417e-08
2.28147e-08
6.28859e-09
-1.33032e-08
-3.38714e-08
-5.3597e-08
-7.04378e-08
-8.27176e-08
-8.91481e-08
4.5488e-08
3.91439e-08
2.70226e-08
1.02148e-08
-9.75559e-09
-3.05191e-08
-5.04831e-08
-6.75016e-08
-7.9893e-08
-8.63844e-08
5.16119e-08
4.51349e-08
3.27556e-08
1.55606e-08
-4.83836e-09
-2.58847e-08
-4.62065e-08
-6.3494e-08
-7.60574e-08
-8.26401e-08
5.87084e-08
5.20893e-08
3.94172e-08
2.1747e-08
8.99783e-10
-2.05404e-08
-4.13272e-08
-5.89325e-08
-7.17014e-08
-7.8374e-08
6.61513e-08
5.93757e-08
4.6413e-08
2.85349e-08
7.30087e-09
-1.53285e-08
-3.62876e-08
-5.42169e-08
-6.72423e-08
-7.41033e-08
7.32211e-08
6.62464e-08
5.29291e-08
3.45715e-08
1.2909e-08
-9.93174e-09
-3.14704e-08
-4.98017e-08
-6.31255e-08
-7.015e-08
7.91582e-08
7.202e-08
5.84207e-08
3.96653e-08
1.75745e-08
-5.57289e-09
-2.75149e-08
-4.61603e-08
-5.97306e-08
-6.68825e-08
8.34287e-08
7.61756e-08
6.23776e-08
4.33496e-08
2.09107e-08
-2.46548e-09
-2.46687e-08
-4.35578e-08
-5.73125e-08
-6.4551e-08
8.56762e-08
7.83702e-08
6.4475e-08
4.53333e-08
2.27551e-08
-8.60241e-10
-2.31522e-08
-4.21902e-08
-5.60542e-08