/*--------------------------------*- C++ -*----------------------------------*\
  =========                 |
  \\      /  F ield         | OpenFOAM: The Open Source CFD Toolbox
   \\    /   O peration     | Website:  https://openfoam.org
    \\  /    A nd           | Version:  9
     \\/     M anipulation  |
\*---------------------------------------------------------------------------*/
FoamFile
{
    format      ascii;
    class       volVectorField;
    location    "0.04";
    object      U;
}
// * * * * * * * * * * * * * * * * * * * * * * * * * * * * * * * * * * * * * //

dimensions      [0 1 -1 0 0 0 0];

internalField   nonuniform List<vector> 
9000
(
(-2.85324e-11 -2.77793e-11 -0.000999998)
(-8.24572e-11 -2.88409e-11 -0.000999998)
(-1.28232e-10 -3.05518e-11 -0.000999998)
(-1.64549e-10 -3.33483e-11 -0.000999999)
(-1.77586e-10 -3.85581e-11 -0.000999999)
(-1.69977e-10 -3.89196e-11 -0.000999999)
(-1.51554e-10 -3.39273e-11 -0.001)
(-1.15482e-10 -2.90868e-11 -0.001)
(-6.85651e-11 -2.51647e-11 -0.001)
(-2.20158e-11 -2.34294e-11 -0.001)
(-2.95975e-11 -8.00697e-11 -0.000999998)
(-8.53705e-11 -8.27272e-11 -0.000999998)
(-1.33032e-10 -8.66409e-11 -0.000999998)
(-1.72901e-10 -9.36591e-11 -0.000999999)
(-1.83523e-10 -1.05579e-10 -0.000999999)
(-1.65695e-10 -1.05115e-10 -0.000999999)
(-1.42033e-10 -8.96444e-11 -0.001)
(-1.06947e-10 -7.73738e-11 -0.001)
(-6.30675e-11 -6.96049e-11 -0.001)
(-2.03515e-11 -6.70418e-11 -0.001)
(-3.10672e-11 -1.25082e-10 -0.000999998)
(-8.90401e-11 -1.28626e-10 -0.000999998)
(-1.3944e-10 -1.33024e-10 -0.000999999)
(-1.83818e-10 -1.40265e-10 -0.000999999)
(-1.89406e-10 -1.48238e-10 -0.000999999)
(-1.54412e-10 -1.45251e-10 -0.001)
(-1.24149e-10 -1.23422e-10 -0.001)
(-9.5696e-11 -1.0929e-10 -0.001)
(-5.85068e-11 -1.03729e-10 -0.001)
(-1.96187e-11 -1.03853e-10 -0.001)
(-3.28836e-11 -1.59403e-10 -0.000999999)
(-9.30626e-11 -1.62553e-10 -0.000999999)
(-1.44673e-10 -1.65627e-10 -0.000999999)
(-1.88126e-10 -1.70197e-10 -0.000999999)
(-1.88593e-10 -1.68219e-10 -0.001)
(-1.40927e-10 -1.65316e-10 -0.001)
(-1.06087e-10 -1.47307e-10 -0.001)
(-8.7269e-11 -1.35923e-10 -0.001)
(-5.78421e-11 -1.34755e-10 -0.001)
(-2.06713e-11 -1.37651e-10 -0.001)
(-3.3938e-11 -1.65785e-10 -0.000999999)
(-9.49775e-11 -1.67336e-10 -0.000999999)
(-1.47071e-10 -1.69322e-10 -0.000999999)
(-1.86375e-10 -1.71294e-10 -0.001)
(-1.84584e-10 -1.68781e-10 -0.001)
(-1.33746e-10 -1.46158e-10 -0.001)
(-9.48892e-11 -1.52711e-10 -0.001)
(-8.31584e-11 -1.52234e-10 -0.001)
(-6.05194e-11 -1.54676e-10 -0.001)
(-2.277e-11 -1.57019e-10 -0.001)
(-3.41351e-11 -1.46318e-10 -0.000999999)
(-9.62842e-11 -1.455e-10 -0.000999999)
(-1.48527e-10 -1.46406e-10 -0.001)
(-1.87453e-10 -1.44894e-10 -0.001)
(-1.63462e-10 -1.46259e-10 -0.001)
(-1.25187e-10 -1.37671e-10 -0.001)
(-1.12233e-10 -1.52851e-10 -0.001)
(-8.92815e-11 -1.59758e-10 -0.001)
(-6.29548e-11 -1.61728e-10 -0.001)
(-2.33467e-11 -1.60133e-10 -0.001)
(-3.28091e-11 -1.2557e-10 -0.000999999)
(-9.47416e-11 -1.26116e-10 -0.001)
(-1.46441e-10 -1.27683e-10 -0.001)
(-1.8601e-10 -1.28072e-10 -0.001)
(-1.76992e-10 -1.31947e-10 -0.001)
(-1.40361e-10 -1.49483e-10 -0.001)
(-1.17243e-10 -1.51202e-10 -0.001)
(-9.20374e-11 -1.55103e-10 -0.001)
(-6.12092e-11 -1.54765e-10 -0.001)
(-2.15198e-11 -1.51595e-10 -0.001)
(-3.43829e-11 -1.03859e-10 -0.001)
(-9.80988e-11 -1.07101e-10 -0.001)
(-1.50471e-10 -1.10189e-10 -0.001)
(-1.91691e-10 -1.14804e-10 -0.001)
(-1.84854e-10 -1.22814e-10 -0.001)
(-1.44195e-10 -1.29239e-10 -0.001)
(-1.17827e-10 -1.25337e-10 -0.001)
(-9.28376e-11 -1.25522e-10 -0.001)
(-5.97919e-11 -1.24435e-10 -0.001)
(-2.05269e-11 -1.22751e-10 -0.001)
(-3.57862e-11 -7.02081e-11 -0.001)
(-1.00815e-10 -7.19367e-11 -0.001)
(-1.54128e-10 -7.36467e-11 -0.001)
(-1.98619e-10 -7.71423e-11 -0.001)
(-1.91365e-10 -8.46839e-11 -0.001)
(-1.42849e-10 -8.79416e-11 -0.001)
(-1.13503e-10 -8.09733e-11 -0.001)
(-9.11359e-11 -7.92914e-11 -0.001)
(-5.87091e-11 -7.88331e-11 -0.001)
(-2.00989e-11 -7.82347e-11 -0.001)
(-3.58729e-11 -2.47573e-11 -0.001)
(-1.01171e-10 -2.49676e-11 -0.001)
(-1.55352e-10 -2.53649e-11 -0.001)
(-2.02315e-10 -2.65019e-11 -0.001)
(-1.95248e-10 -2.94533e-11 -0.001)
(-1.40151e-10 -3.0766e-11 -0.001)
(-1.089e-10 -2.70784e-11 -0.001)
(-9.04904e-11 -2.64376e-11 -0.001)
(-5.87744e-11 -2.66336e-11 -0.001)
(-2.00423e-11 -2.6564e-11 -0.001)
(-8.24933e-11 -7.97498e-11 -0.000999998)
(-2.37358e-10 -8.19243e-11 -0.000999998)
(-3.68064e-10 -8.53284e-11 -0.000999998)
(-4.72211e-10 -9.22046e-11 -0.000999998)
(-5.13018e-10 -1.04951e-10 -0.000999999)
(-4.91482e-10 -1.05655e-10 -0.000999999)
(-4.34971e-10 -9.11957e-11 -0.000999999)
(-3.32079e-10 -7.88093e-11 -0.001)
(-2.00063e-10 -7.084e-11 -0.001)
(-6.54788e-11 -6.85348e-11 -0.001)
(-8.46766e-11 -2.28488e-10 -0.000999998)
(-2.43289e-10 -2.33534e-10 -0.000999998)
(-3.79086e-10 -2.42148e-10 -0.000999998)
(-4.92755e-10 -2.59459e-10 -0.000999999)
(-5.27476e-10 -2.85373e-10 -0.000999999)
(-4.78693e-10 -2.8309e-10 -0.000999999)
(-4.08973e-10 -2.43006e-10 -0.001)
(-3.12353e-10 -2.13955e-10 -0.001)
(-1.9026e-10 -1.99063e-10 -0.001)
(-6.34059e-11 -1.96128e-10 -0.001)
(-8.72318e-11 -3.52238e-10 -0.000999998)
(-2.51046e-10 -3.58067e-10 -0.000999998)
(-3.94707e-10 -3.68751e-10 -0.000999998)
(-5.16338e-10 -3.87919e-10 -0.000999999)
(-5.37654e-10 -4.05526e-10 -0.000999999)
(-4.50128e-10 -3.93319e-10 -0.000999999)
(-3.66742e-10 -3.43397e-10 -0.001)
(-2.88824e-10 -3.13834e-10 -0.001)
(-1.83003e-10 -3.04456e-10 -0.001)
(-6.30335e-11 -3.05185e-10 -0.001)
(-8.98541e-11 -4.39495e-10 -0.000999998)
(-2.5915e-10 -4.42635e-10 -0.000999998)
(-4.08942e-10 -4.52372e-10 -0.000999999)
(-5.29556e-10 -4.71257e-10 -0.000999999)
(-5.32834e-10 -4.63009e-10 -0.000999999)
(-4.16558e-10 -4.8727e-10 -0.001)
(-3.29511e-10 -4.27888e-10 -0.001)
(-2.73453e-10 -4.06313e-10 -0.001)
(-1.82213e-10 -4.02744e-10 -0.001)
(-6.47025e-11 -4.04557e-10 -0.001)
(-8.96332e-11 -4.63499e-10 -0.000999999)
(-2.63145e-10 -4.64525e-10 -0.000999999)
(-4.2331e-10 -4.71522e-10 -0.000999999)
(-5.27012e-10 -4.79873e-10 -0.000999999)
(-5.53698e-10 -5.05579e-10 -0.001)
(-4.14787e-10 -4.21999e-10 -0.001)
(-2.85652e-10 -4.54376e-10 -0.001)
(-2.63699e-10 -4.5255e-10 -0.001)
(-1.82023e-10 -4.56466e-10 -0.001)
(-6.56125e-11 -4.58104e-10 -0.001)
(-9.00671e-11 -4.27236e-10 -0.000999999)
(-2.66317e-10 -4.30039e-10 -0.000999999)
(-4.24355e-10 -4.33036e-10 -0.000999999)
(-5.6369e-10 -4.25634e-10 -0.001)
(-4.74964e-10 -4.4265e-10 -0.001)
(-3.65443e-10 -3.92274e-10 -0.001)
(-3.60044e-10 -4.44586e-10 -0.001)
(-2.75531e-10 -4.55754e-10 -0.001)
(-1.88678e-10 -4.5815e-10 -0.001)
(-6.71918e-11 -4.53285e-10 -0.001)
(-9.15428e-11 -3.73805e-10 -0.000999999)
(-2.68049e-10 -3.80698e-10 -0.000999999)
(-4.18878e-10 -3.85076e-10 -0.001)
(-5.36812e-10 -3.84338e-10 -0.001)
(-5.20272e-10 -3.69817e-10 -0.001)
(-4.16748e-10 -4.44838e-10 -0.001)
(-3.4922e-10 -4.27476e-10 -0.001)
(-2.77265e-10 -4.33723e-10 -0.001)
(-1.80541e-10 -4.30162e-10 -0.001)
(-6.17091e-11 -4.22111e-10 -0.001)
(-9.61013e-11 -3.06386e-10 -0.001)
(-2.76761e-10 -3.14831e-10 -0.001)
(-4.27959e-10 -3.21805e-10 -0.001)
(-5.48444e-10 -3.31204e-10 -0.001)
(-5.35405e-10 -3.45602e-10 -0.001)
(-4.23021e-10 -3.61633e-10 -0.001)
(-3.48981e-10 -3.50247e-10 -0.001)
(-2.78266e-10 -3.50727e-10 -0.001)
(-1.77947e-10 -3.49612e-10 -0.001)
(-5.99972e-11 -3.46987e-10 -0.001)
(-9.92874e-11 -2.02851e-10 -0.001)
(-2.82786e-10 -2.06123e-10 -0.001)
(-4.35206e-10 -2.08934e-10 -0.001)
(-5.60578e-10 -2.13914e-10 -0.001)
(-5.50698e-10 -2.24858e-10 -0.001)
(-4.2134e-10 -2.3822e-10 -0.001)
(-3.38324e-10 -2.19684e-10 -0.001)
(-2.76635e-10 -2.19003e-10 -0.001)
(-1.77487e-10 -2.20732e-10 -0.001)
(-5.97415e-11 -2.20238e-10 -0.001)
(-9.8758e-11 -7.0522e-11 -0.001)
(-2.81861e-10 -7.02949e-11 -0.001)
(-4.34862e-10 -7.02699e-11 -0.001)
(-5.63253e-10 -7.08114e-11 -0.001)
(-5.58594e-10 -7.40293e-11 -0.001)
(-4.16922e-10 -7.97811e-11 -0.001)
(-3.29045e-10 -7.04857e-11 -0.001)
(-2.78755e-10 -7.12009e-11 -0.001)
(-1.79262e-10 -7.31337e-11 -0.001)
(-5.97954e-11 -7.3162e-11 -0.001)
(-1.41187e-10 -1.34057e-10 -0.000999997)
(-4.08488e-10 -1.35353e-10 -0.000999997)
(-6.35654e-10 -1.38179e-10 -0.000999998)
(-8.10147e-10 -1.46383e-10 -0.000999998)
(-8.8939e-10 -1.6013e-10 -0.000999998)
(-8.65733e-10 -1.60538e-10 -0.000999999)
(-7.64119e-10 -1.43317e-10 -0.000999999)
(-5.87027e-10 -1.29971e-10 -0.001)
(-3.63143e-10 -1.24115e-10 -0.001)
(-1.22068e-10 -1.23794e-10 -0.001)
(-1.42493e-10 -3.85607e-10 -0.000999997)
(-4.1314e-10 -3.88909e-10 -0.000999998)
(-6.47913e-10 -3.98292e-10 -0.000999998)
(-8.33715e-10 -4.18246e-10 -0.000999998)
(-9.05332e-10 -4.42742e-10 -0.000999999)
(-8.50632e-10 -4.36116e-10 -0.000999999)
(-7.3504e-10 -3.91661e-10 -0.000999999)
(-5.68949e-10 -3.62046e-10 -0.001)
(-3.57897e-10 -3.51651e-10 -0.001)
(-1.22237e-10 -3.51602e-10 -0.001)
(-1.44008e-10 -5.90986e-10 -0.000999998)
(-4.21199e-10 -5.94683e-10 -0.000999998)
(-6.66209e-10 -6.08439e-10 -0.000999998)
(-8.56202e-10 -6.32023e-10 -0.000999998)
(-9.09061e-10 -6.4978e-10 -0.000999999)
(-8.16419e-10 -6.20146e-10 -0.000999999)
(-6.91597e-10 -5.72024e-10 -0.001)
(-5.48211e-10 -5.48202e-10 -0.001)
(-3.5409e-10 -5.42926e-10 -0.001)
(-1.22924e-10 -5.42724e-10 -0.001)
(-1.4511e-10 -7.25191e-10 -0.000999998)
(-4.29489e-10 -7.28756e-10 -0.000999998)
(-6.85256e-10 -7.4477e-10 -0.000999998)
(-8.75108e-10 -7.75535e-10 -0.000999999)
(-8.93509e-10 -7.56572e-10 -0.000999999)
(-7.72931e-10 -8.35798e-10 -0.000999999)
(-6.63145e-10 -7.35449e-10 -0.001)
(-5.39922e-10 -7.16281e-10 -0.001)
(-3.53509e-10 -7.08895e-10 -0.001)
(-1.23076e-10 -7.03722e-10 -0.001)
(-1.46199e-10 -7.84758e-10 -0.000999998)
(-4.39358e-10 -7.87795e-10 -0.000999998)
(-7.12935e-10 -7.98998e-10 -0.000999999)
(-8.68001e-10 -8.07481e-10 -0.000999999)
(-9.69309e-10 -8.94161e-10 -0.000999999)
(-7.95294e-10 -7.48784e-10 -0.001)
(-5.72081e-10 -8.13788e-10 -0.001)
(-5.21703e-10 -8.0099e-10 -0.001)
(-3.42956e-10 -7.98143e-10 -0.001)
(-1.1915e-10 -7.93712e-10 -0.001)
(-1.46626e-10 -7.70504e-10 -0.000999999)
(-4.42155e-10 -7.78518e-10 -0.000999999)
(-7.04892e-10 -7.82416e-10 -0.000999999)
(-9.70257e-10 -7.66895e-10 -0.000999999)
(-8.3483e-10 -8.11792e-10 -0.001)
(-6.92236e-10 -7.10583e-10 -0.001)
(-7.15316e-10 -7.95446e-10 -0.001)
(-5.24327e-10 -7.95973e-10 -0.001)
(-3.47823e-10 -7.94367e-10 -0.001)
(-1.20217e-10 -7.88039e-10 -0.001)
(-1.52599e-10 -6.87554e-10 -0.000999999)
(-4.49669e-10 -7.00721e-10 -0.000999999)
(-7.01265e-10 -7.07188e-10 -0.000999999)
(-8.97354e-10 -7.09569e-10 -0.001)
(-9.13316e-10 -6.45067e-10 -0.001)
(-7.78927e-10 -7.94542e-10 -0.001)
(-6.57165e-10 -7.30639e-10 -0.001)
(-5.2071e-10 -7.37291e-10 -0.001)
(-3.36595e-10 -7.32576e-10 -0.001)
(-1.14293e-10 -7.24312e-10 -0.001)
(-1.58283e-10 -5.50204e-10 -0.000999999)
(-4.60349e-10 -5.60271e-10 -0.001)
(-7.13699e-10 -5.67135e-10 -0.001)
(-9.08139e-10 -5.76946e-10 -0.001)
(-9.19818e-10 -5.82528e-10 -0.001)
(-7.78098e-10 -5.9582e-10 -0.001)
(-6.58054e-10 -5.8311e-10 -0.001)
(-5.26311e-10 -5.90745e-10 -0.001)
(-3.36305e-10 -5.94099e-10 -0.001)
(-1.13328e-10 -5.92268e-10 -0.001)
(-1.61508e-10 -3.56973e-10 -0.001)
(-4.65449e-10 -3.59559e-10 -0.001)
(-7.17864e-10 -3.58695e-10 -0.001)
(-9.12707e-10 -3.56876e-10 -0.001)
(-9.32156e-10 -3.54835e-10 -0.001)
(-7.79507e-10 -3.73546e-10 -0.001)
(-6.52033e-10 -3.59171e-10 -0.001)
(-5.317e-10 -3.67196e-10 -0.001)
(-3.39257e-10 -3.74344e-10 -0.001)
(-1.13559e-10 -3.7313e-10 -0.001)
(-1.59869e-10 -1.22761e-10 -0.001)
(-4.60437e-10 -1.21634e-10 -0.001)
(-7.09542e-10 -1.18892e-10 -0.001)
(-9.02423e-10 -1.1476e-10 -0.001)
(-9.34586e-10 -1.10445e-10 -0.001)
(-7.80883e-10 -1.19045e-10 -0.001)
(-6.50401e-10 -1.1333e-10 -0.001)
(-5.40453e-10 -1.18633e-10 -0.001)
(-3.4231e-10 -1.23056e-10 -0.001)
(-1.12602e-10 -1.22076e-10 -0.001)
(-2.07338e-10 -1.9367e-10 -0.000999997)
(-6.08044e-10 -1.94235e-10 -0.000999997)
(-9.53785e-10 -1.96053e-10 -0.000999997)
(-1.20843e-09 -2.02799e-10 -0.000999998)
(-1.33372e-09 -2.11998e-10 -0.000999998)
(-1.32006e-09 -2.11935e-10 -0.000999999)
(-1.17098e-09 -1.98682e-10 -0.000999999)
(-9.07464e-10 -1.91163e-10 -0.000999999)
(-5.7518e-10 -1.90842e-10 -0.001)
(-1.969e-10 -1.91553e-10 -0.001)
(-2.07937e-10 -5.65016e-10 -0.000999997)
(-6.11264e-10 -5.67543e-10 -0.000999997)
(-9.64207e-10 -5.74758e-10 -0.000999997)
(-1.22685e-09 -5.87921e-10 -0.000999998)
(-1.34555e-09 -5.96752e-10 -0.000999998)
(-1.30932e-09 -5.88664e-10 -0.000999999)
(-1.15248e-09 -5.56329e-10 -0.000999999)
(-9.01374e-10 -5.39819e-10 -0.001)
(-5.77034e-10 -5.38683e-10 -0.001)
(-1.98342e-10 -5.39064e-10 -0.001)
(-2.0917e-10 -8.71631e-10 -0.000999997)
(-6.179e-10 -8.76497e-10 -0.000999997)
(-9.76036e-10 -8.87518e-10 -0.000999998)
(-1.23291e-09 -9.014e-10 -0.000999998)
(-1.33723e-09 -9.03629e-10 -0.000999998)
(-1.28227e-09 -8.67185e-10 -0.000999999)
(-1.12446e-09 -8.39207e-10 -0.000999999)
(-8.91639e-10 -8.29026e-10 -0.001)
(-5.76591e-10 -8.27517e-10 -0.001)
(-1.98666e-10 -8.24682e-10 -0.001)
(-2.11111e-10 -1.07432e-09 -0.000999997)
(-6.25438e-10 -1.08156e-09 -0.000999998)
(-9.89101e-10 -1.0946e-09 -0.000999998)
(-1.24304e-09 -1.12028e-09 -0.000999998)
(-1.31146e-09 -1.09625e-09 -0.000999999)
(-1.245e-09 -1.14944e-09 -0.000999999)
(-1.1144e-09 -1.08115e-09 -0.001)
(-8.89796e-10 -1.06937e-09 -0.001)
(-5.74379e-10 -1.05831e-09 -0.001)
(-1.9712e-10 -1.04965e-09 -0.001)
(-2.14198e-10 -1.1817e-09 -0.000999998)
(-6.35936e-10 -1.18834e-09 -0.000999998)
(-1.01464e-09 -1.19945e-09 -0.000999998)
(-1.23452e-09 -1.20468e-09 -0.000999999)
(-1.3663e-09 -1.27389e-09 -0.000999999)
(-1.26719e-09 -1.17048e-09 -0.001)
(-1.04443e-09 -1.22166e-09 -0.001)
(-8.68894e-10 -1.20307e-09 -0.001)
(-5.59066e-10 -1.19217e-09 -0.001)
(-1.92148e-10 -1.18372e-09 -0.001)
(-2.15371e-10 -1.18943e-09 -0.000999998)
(-6.40768e-10 -1.19823e-09 -0.000999999)
(-1.00536e-09 -1.20603e-09 -0.000999999)
(-1.31749e-09 -1.1948e-09 -0.000999999)
(-1.27717e-09 -1.24607e-09 -0.001)
(-1.19275e-09 -1.17858e-09 -0.001)
(-1.14696e-09 -1.22451e-09 -0.001)
(-8.60382e-10 -1.21215e-09 -0.001)
(-5.57408e-10 -1.2064e-09 -0.001)
(-1.90995e-10 -1.2005e-09 -0.001)
(-2.20648e-10 -1.06684e-09 -0.000999999)
(-6.50178e-10 -1.07884e-09 -0.000999999)
(-1.01114e-09 -1.08654e-09 -0.000999999)
(-1.27461e-09 -1.09393e-09 -0.001)
(-1.35008e-09 -1.05106e-09 -0.001)
(-1.24558e-09 -1.16912e-09 -0.001)
(-1.07802e-09 -1.1007e-09 -0.001)
(-8.50844e-10 -1.10541e-09 -0.001)
(-5.49764e-10 -1.10406e-09 -0.001)
(-1.88517e-10 -1.09939e-09 -0.001)
(-2.25216e-10 -8.39171e-10 -0.000999999)
(-6.58356e-10 -8.46698e-10 -0.000999999)
(-1.02038e-09 -8.4759e-10 -0.001)
(-1.28201e-09 -8.47653e-10 -0.001)
(-1.35239e-09 -8.40845e-10 -0.001)
(-1.24232e-09 -8.51326e-10 -0.001)
(-1.08325e-09 -8.51264e-10 -0.001)
(-8.63809e-10 -8.72567e-10 -0.001)
(-5.53573e-10 -8.8437e-10 -0.001)
(-1.88421e-10 -8.83099e-10 -0.001)
(-2.26524e-10 -5.39351e-10 -0.000999999)
(-6.56918e-10 -5.38588e-10 -0.001)
(-1.01198e-09 -5.28275e-10 -0.001)
(-1.26779e-09 -5.11411e-10 -0.001)
(-1.35368e-09 -4.89068e-10 -0.001)
(-1.25592e-09 -5.07011e-10 -0.001)
(-1.0992e-09 -5.19522e-10 -0.001)
(-8.83952e-10 -5.43322e-10 -0.001)
(-5.6201e-10 -5.57704e-10 -0.001)
(-1.88924e-10 -5.54537e-10 -0.001)
(-2.22984e-10 -1.85133e-10 -0.001)
(-6.44942e-10 -1.82424e-10 -0.001)
(-9.9114e-10 -1.74842e-10 -0.001)
(-1.24022e-09 -1.63623e-10 -0.001)
(-1.34525e-09 -1.49844e-10 -0.001)
(-1.27029e-09 -1.57886e-10 -0.001)
(-1.11742e-09 -1.66577e-10 -0.001)
(-9.00278e-10 -1.78101e-10 -0.001)
(-5.64762e-10 -1.84532e-10 -0.001)
(-1.85959e-10 -1.81578e-10 -0.001)
(-2.92784e-10 -2.71263e-10 -0.000999996)
(-8.66439e-10 -2.73799e-10 -0.000999996)
(-1.36703e-09 -2.75689e-10 -0.000999996)
(-1.72774e-09 -2.79271e-10 -0.000999997)
(-1.89758e-09 -2.8049e-10 -0.000999998)
(-1.87959e-09 -2.788e-10 -0.000999998)
(-1.67629e-09 -2.70973e-10 -0.000999999)
(-1.31274e-09 -2.7105e-10 -0.000999999)
(-8.43174e-10 -2.74847e-10 -0.001)
(-2.90206e-10 -2.73482e-10 -0.001)
(-2.95357e-10 -8.00113e-10 -0.000999996)
(-8.72056e-10 -8.06215e-10 -0.000999996)
(-1.37518e-09 -8.09562e-10 -0.000999996)
(-1.73603e-09 -8.08789e-10 -0.000999997)
(-1.90084e-09 -7.9429e-10 -0.000999998)
(-1.87367e-09 -7.85339e-10 -0.000999998)
(-1.67175e-09 -7.69551e-10 -0.000999999)
(-1.31917e-09 -7.69317e-10 -0.000999999)
(-8.47759e-10 -7.74401e-10 -0.001)
(-2.89904e-10 -7.71794e-10 -0.001)
(-2.9784e-10 -1.24737e-09 -0.000999996)
(-8.76004e-10 -1.25529e-09 -0.000999996)
(-1.3723e-09 -1.25696e-09 -0.000999997)
(-1.71599e-09 -1.2491e-09 -0.000999997)
(-1.87794e-09 -1.22438e-09 -0.000999998)
(-1.85856e-09 -1.19233e-09 -0.000999999)
(-1.66358e-09 -1.18624e-09 -0.000999999)
(-1.32024e-09 -1.18709e-09 -0.001)
(-8.48845e-10 -1.18631e-09 -0.001)
(-2.8966e-10 -1.18338e-09 -0.001)
(-3.00787e-10 -1.55556e-09 -0.000999997)
(-8.79147e-10 -1.5632e-09 -0.000999997)
(-1.36899e-09 -1.56655e-09 -0.000999997)
(-1.70351e-09 -1.57204e-09 -0.000999998)
(-1.84417e-09 -1.54396e-09 -0.000999998)
(-1.83567e-09 -1.553e-09 -0.000999999)
(-1.66669e-09 -1.5257e-09 -0.001)
(-1.31943e-09 -1.5163e-09 -0.001)
(-8.46482e-10 -1.50493e-09 -0.001)
(-2.89312e-10 -1.50085e-09 -0.001)
(-3.02285e-10 -1.71025e-09 -0.000999997)
(-8.83763e-10 -1.71608e-09 -0.000999998)
(-1.38105e-09 -1.72403e-09 -0.000999998)
(-1.69338e-09 -1.72502e-09 -0.000999998)
(-1.8589e-09 -1.75668e-09 -0.000999999)
(-1.84027e-09 -1.70287e-09 -0.001)
(-1.6268e-09 -1.72984e-09 -0.001)
(-1.29956e-09 -1.70601e-09 -0.001)
(-8.36467e-10 -1.69313e-09 -0.001)
(-2.88546e-10 -1.68735e-09 -0.001)
(-3.03229e-10 -1.70425e-09 -0.000999998)
(-8.89461e-10 -1.71056e-09 -0.000999998)
(-1.37779e-09 -1.7208e-09 -0.000999999)
(-1.73613e-09 -1.72272e-09 -0.000999999)
(-1.82206e-09 -1.77065e-09 -0.001)
(-1.80888e-09 -1.75256e-09 -0.001)
(-1.66979e-09 -1.75372e-09 -0.001)
(-1.28279e-09 -1.73716e-09 -0.001)
(-8.31214e-10 -1.73032e-09 -0.001)
(-2.86816e-10 -1.72471e-09 -0.001)
(-3.05365e-10 -1.52287e-09 -0.000999999)
(-8.97015e-10 -1.52966e-09 -0.000999999)
(-1.39308e-09 -1.53407e-09 -0.000999999)
(-1.74313e-09 -1.54201e-09 -0.001)
(-1.88868e-09 -1.53484e-09 -0.001)
(-1.82339e-09 -1.60594e-09 -0.001)
(-1.61148e-09 -1.55966e-09 -0.001)
(-1.27632e-09 -1.57373e-09 -0.001)
(-8.27456e-10 -1.57856e-09 -0.001)
(-2.86264e-10 -1.5751e-09 -0.001)
(-3.07125e-10 -1.19429e-09 -0.000999999)
(-8.97738e-10 -1.19493e-09 -0.000999999)
(-1.39004e-09 -1.18265e-09 -0.001)
(-1.73689e-09 -1.1629e-09 -0.001)
(-1.88596e-09 -1.13446e-09 -0.001)
(-1.83369e-09 -1.14749e-09 -0.001)
(-1.63758e-09 -1.1837e-09 -0.001)
(-1.30178e-09 -1.2261e-09 -0.001)
(-8.35763e-10 -1.24753e-09 -0.001)
(-2.8645e-10 -1.24566e-09 -0.001)
(-3.03763e-10 -7.65569e-10 -0.000999999)
(-8.83033e-10 -7.57428e-10 -0.001)
(-1.36089e-09 -7.32901e-10 -0.001)
(-1.69484e-09 -6.9755e-10 -0.001)
(-1.87316e-09 -6.52826e-10 -0.001)
(-1.87252e-09 -6.70587e-10 -0.001)
(-1.68998e-09 -7.2583e-10 -0.001)
(-1.34014e-09 -7.67497e-10 -0.001)
(-8.49458e-10 -7.87506e-10 -0.001)
(-2.86796e-10 -7.81319e-10 -0.001)
(-2.97031e-10 -2.62992e-10 -0.001)
(-8.61899e-10 -2.573e-10 -0.001)
(-1.32743e-09 -2.4407e-10 -0.001)
(-1.65343e-09 -2.26525e-10 -0.001)
(-1.85526e-09 -2.06006e-10 -0.001)
(-1.90296e-09 -2.12281e-10 -0.001)
(-1.73103e-09 -2.40003e-10 -0.001)
(-1.36078e-09 -2.56584e-10 -0.001)
(-8.49452e-10 -2.63237e-10 -0.001)
(-2.81219e-10 -2.57705e-10 -0.001)
(-4.13247e-10 -3.8288e-10 -0.000999994)
(-1.21891e-09 -3.8814e-10 -0.000999995)
(-1.91962e-09 -3.90296e-10 -0.000999995)
(-2.42511e-09 -3.88483e-10 -0.000999996)
(-2.64019e-09 -3.77122e-10 -0.000999997)
(-2.58187e-09 -3.73915e-10 -0.000999998)
(-2.30536e-09 -3.70945e-10 -0.000999998)
(-1.82478e-09 -3.76418e-10 -0.000999999)
(-1.17639e-09 -3.81289e-10 -0.001)
(-4.04041e-10 -3.77395e-10 -0.001)
(-4.1856e-10 -1.126e-09 -0.000999995)
(-1.22796e-09 -1.13517e-09 -0.000999995)
(-1.92366e-09 -1.13263e-09 -0.000999995)
(-2.41667e-09 -1.11454e-09 -0.000999996)
(-2.6307e-09 -1.0751e-09 -0.000999997)
(-2.58054e-09 -1.06489e-09 -0.000999998)
(-2.31223e-09 -1.06564e-09 -0.000999999)
(-1.83863e-09 -1.07751e-09 -0.000999999)
(-1.18028e-09 -1.08485e-09 -0.001)
(-4.01581e-10 -1.08062e-09 -0.001)
(-4.20977e-10 -1.75792e-09 -0.000999995)
(-1.2257e-09 -1.76491e-09 -0.000999995)
(-1.90275e-09 -1.75502e-09 -0.000999996)
(-2.37245e-09 -1.72709e-09 -0.000999997)
(-2.59582e-09 -1.68968e-09 -0.000999997)
(-2.57747e-09 -1.65691e-09 -0.000999998)
(-2.32239e-09 -1.66729e-09 -0.000999999)
(-1.84754e-09 -1.67452e-09 -0.001)
(-1.18389e-09 -1.67492e-09 -0.001)
(-4.0267e-10 -1.67577e-09 -0.001)
(-4.22102e-10 -2.20124e-09 -0.000999996)
(-1.2216e-09 -2.20728e-09 -0.000999996)
(-1.88585e-09 -2.20695e-09 -0.000999997)
(-2.35149e-09 -2.20762e-09 -0.000999997)
(-2.56069e-09 -2.19952e-09 -0.000999998)
(-2.5585e-09 -2.18617e-09 -0.000999999)
(-2.32994e-09 -2.15281e-09 -0.001)
(-1.84641e-09 -2.13956e-09 -0.001)
(-1.18496e-09 -2.13201e-09 -0.001)
(-4.05729e-10 -2.13446e-09 -0.001)
(-4.22698e-10 -2.41059e-09 -0.000999997)
(-1.22699e-09 -2.41492e-09 -0.000999997)
(-1.90292e-09 -2.42341e-09 -0.000999997)
(-2.36506e-09 -2.42593e-09 -0.000999998)
(-2.57432e-09 -2.46008e-09 -0.000999999)
(-2.5309e-09 -2.43922e-09 -0.001)
(-2.27592e-09 -2.42954e-09 -0.001)
(-1.82688e-09 -2.39371e-09 -0.001)
(-1.1831e-09 -2.38279e-09 -0.001)
(-4.09294e-10 -2.38119e-09 -0.001)
(-4.21789e-10 -2.3763e-09 -0.000999997)
(-1.22957e-09 -2.37812e-09 -0.000999998)
(-1.89663e-09 -2.38196e-09 -0.000999998)
(-2.38827e-09 -2.38036e-09 -0.000999999)
(-2.57401e-09 -2.40779e-09 -0.001)
(-2.52772e-09 -2.42574e-09 -0.001)
(-2.28463e-09 -2.42777e-09 -0.001)
(-1.79986e-09 -2.41449e-09 -0.001)
(-1.17717e-09 -2.40806e-09 -0.001)
(-4.08694e-10 -2.40057e-09 -0.001)
(-4.20077e-10 -2.11653e-09 -0.000999998)
(-1.22802e-09 -2.11471e-09 -0.000999998)
(-1.90483e-09 -2.10459e-09 -0.000999999)
(-2.3908e-09 -2.0999e-09 -0.001)
(-2.61996e-09 -2.07758e-09 -0.001)
(-2.55086e-09 -2.12834e-09 -0.001)
(-2.26455e-09 -2.1334e-09 -0.001)
(-1.8073e-09 -2.17122e-09 -0.001)
(-1.17397e-09 -2.1824e-09 -0.001)
(-4.06463e-10 -2.17621e-09 -0.001)
(-4.16064e-10 -1.66227e-09 -0.000999999)
(-1.21357e-09 -1.65082e-09 -0.000999999)
(-1.88166e-09 -1.61935e-09 -0.001)
(-2.36119e-09 -1.57825e-09 -0.001)
(-2.60234e-09 -1.52451e-09 -0.001)
(-2.58366e-09 -1.53597e-09 -0.001)
(-2.32753e-09 -1.62247e-09 -0.001)
(-1.849e-09 -1.68719e-09 -0.001)
(-1.18656e-09 -1.71512e-09 -0.001)
(-4.06788e-10 -1.71215e-09 -0.001)
(-4.05534e-10 -1.06234e-09 -0.000999999)
(-1.18184e-09 -1.04437e-09 -0.001)
(-1.83206e-09 -1.00663e-09 -0.001)
(-2.29581e-09 -9.59194e-10 -0.001)
(-2.57752e-09 -9.01528e-10 -0.001)
(-2.64867e-09 -9.17223e-10 -0.001)
(-2.41563e-09 -1.01024e-09 -0.001)
(-1.89996e-09 -1.06309e-09 -0.001)
(-1.20227e-09 -1.0835e-09 -0.001)
(-4.06761e-10 -1.07565e-09 -0.001)
(-3.95405e-10 -3.64384e-10 -0.001)
(-1.15358e-09 -3.55661e-10 -0.001)
(-1.79286e-09 -3.39053e-10 -0.001)
(-2.25159e-09 -3.19998e-10 -0.001)
(-2.55531e-09 -2.99229e-10 -0.001)
(-2.687e-09 -3.0272e-10 -0.001)
(-2.46842e-09 -3.42728e-10 -0.001)
(-1.91851e-09 -3.60262e-10 -0.001)
(-1.19888e-09 -3.64935e-10 -0.001)
(-4.002e-10 -3.58458e-10 -0.001)
(-5.79597e-10 -5.39026e-10 -0.000999992)
(-1.69254e-09 -5.4467e-10 -0.000999993)
(-2.64501e-09 -5.44516e-10 -0.000999994)
(-3.33424e-09 -5.34551e-10 -0.000999994)
(-3.61703e-09 -5.08037e-10 -0.000999996)
(-3.50445e-09 -5.06691e-10 -0.000999997)
(-3.1273e-09 -5.0919e-10 -0.000999998)
(-2.49411e-09 -5.17824e-10 -0.000999999)
(-1.60734e-09 -5.22952e-10 -0.000999999)
(-5.50934e-10 -5.19762e-10 -0.001)
(-5.85312e-10 -1.56825e-09 -0.000999993)
(-1.70022e-09 -1.57474e-09 -0.000999993)
(-2.6399e-09 -1.56299e-09 -0.000999994)
(-3.30412e-09 -1.52803e-09 -0.000999995)
(-3.59601e-09 -1.46709e-09 -0.000999996)
(-3.51219e-09 -1.4642e-09 -0.000999997)
(-3.14433e-09 -1.48012e-09 -0.000999998)
(-2.51264e-09 -1.50023e-09 -0.000999999)
(-1.61336e-09 -1.51065e-09 -0.001)
(-5.49779e-10 -1.50968e-09 -0.001)
(-5.84171e-10 -2.43437e-09 -0.000999993)
(-1.6875e-09 -2.4354e-09 -0.000999994)
(-2.6034e-09 -2.41532e-09 -0.000999995)
(-3.24493e-09 -2.3758e-09 -0.000999995)
(-3.56017e-09 -2.33698e-09 -0.000999997)
(-3.52416e-09 -2.32176e-09 -0.000999998)
(-3.16939e-09 -2.33805e-09 -0.000999999)
(-2.52961e-09 -2.35014e-09 -0.001)
(-1.62293e-09 -2.3564e-09 -0.001)
(-5.53942e-10 -2.36095e-09 -0.001)
(-5.81671e-10 -3.04697e-09 -0.000999994)
(-1.67645e-09 -3.05317e-09 -0.000999995)
(-2.5803e-09 -3.05228e-09 -0.000999995)
(-3.22595e-09 -3.05548e-09 -0.000999996)
(-3.54212e-09 -3.09338e-09 -0.000999997)
(-3.51324e-09 -3.06139e-09 -0.000999999)
(-3.17287e-09 -3.02335e-09 -0.001)
(-2.53134e-09 -3.00621e-09 -0.001)
(-1.62903e-09 -3.00674e-09 -0.001)
(-5.58941e-10 -3.0102e-09 -0.001)
(-5.84597e-10 -3.34053e-09 -0.000999995)
(-1.68687e-09 -3.34822e-09 -0.000999996)
(-2.60558e-09 -3.36178e-09 -0.000999996)
(-3.28604e-09 -3.37784e-09 -0.000999997)
(-3.56632e-09 -3.42374e-09 -0.000999999)
(-3.45402e-09 -3.41443e-09 -0.001)
(-3.11415e-09 -3.38094e-09 -0.001)
(-2.51319e-09 -3.34333e-09 -0.001)
(-1.63296e-09 -3.3346e-09 -0.001)
(-5.63246e-10 -3.33304e-09 -0.001)
(-5.83072e-10 -3.29452e-09 -0.000999997)
(-1.69131e-09 -3.29004e-09 -0.000999997)
(-2.6098e-09 -3.2836e-09 -0.000999998)
(-3.28772e-09 -3.27603e-09 -0.000999999)
(-3.57871e-09 -3.27274e-09 -0.001)
(-3.4708e-09 -3.31472e-09 -0.001)
(-3.10167e-09 -3.32774e-09 -0.001)
(-2.4852e-09 -3.3202e-09 -0.001)
(-1.62535e-09 -3.31015e-09 -0.001)
(-5.63776e-10 -3.29792e-09 -0.001)
(-5.73953e-10 -2.93603e-09 -0.000999998)
(-1.66961e-09 -2.9208e-09 -0.000999998)
(-2.59154e-09 -2.88918e-09 -0.000999999)
(-3.27533e-09 -2.86325e-09 -0.001)
(-3.60467e-09 -2.82812e-09 -0.001)
(-3.50903e-09 -2.8644e-09 -0.001)
(-3.11971e-09 -2.91664e-09 -0.001)
(-2.4958e-09 -2.96396e-09 -0.001)
(-1.61724e-09 -2.97439e-09 -0.001)
(-5.57397e-10 -2.96231e-09 -0.001)
(-5.6242e-10 -2.30652e-09 -0.000999999)
(-1.63878e-09 -2.28259e-09 -0.000999999)
(-2.55208e-09 -2.23824e-09 -0.001)
(-3.22672e-09 -2.18928e-09 -0.001)
(-3.57997e-09 -2.12533e-09 -0.001)
(-3.55924e-09 -2.13732e-09 -0.001)
(-3.20123e-09 -2.24591e-09 -0.001)
(-2.54314e-09 -2.31554e-09 -0.001)
(-1.62964e-09 -2.34062e-09 -0.00100001)
(-5.57473e-10 -2.33686e-09 -0.00100001)
(-5.45712e-10 -1.46904e-09 -0.000999999)
(-1.59674e-09 -1.44513e-09 -0.000999999)
(-2.49792e-09 -1.40595e-09 -0.001)
(-3.16223e-09 -1.36357e-09 -0.001)
(-3.5525e-09 -1.31347e-09 -0.001)
(-3.62939e-09 -1.3206e-09 -0.001)
(-3.29774e-09 -1.41938e-09 -0.001)
(-2.59051e-09 -1.4674e-09 -0.00100001)
(-1.64308e-09 -1.48265e-09 -0.00100001)
(-5.58065e-10 -1.47796e-09 -0.00100001)
(-5.34733e-10 -5.02742e-10 -0.000999999)
(-1.56972e-09 -4.93715e-10 -0.001)
(-2.46553e-09 -4.79738e-10 -0.001)
(-3.12809e-09 -4.66141e-10 -0.001)
(-3.53007e-09 -4.51583e-10 -0.001)
(-3.65779e-09 -4.50443e-10 -0.001)
(-3.34125e-09 -4.8712e-10 -0.001)
(-2.60134e-09 -5.00497e-10 -0.00100001)
(-1.63988e-09 -5.02899e-10 -0.00100001)
(-5.54501e-10 -4.99446e-10 -0.00100001)
(-7.98697e-10 -7.471e-10 -0.00099999)
(-2.31098e-09 -7.49227e-10 -0.00099999)
(-3.58308e-09 -7.43591e-10 -0.000999991)
(-4.50324e-09 -7.25911e-10 -0.000999992)
(-4.90509e-09 -6.90421e-10 -0.000999994)
(-4.76964e-09 -6.92988e-10 -0.000999996)
(-4.26259e-09 -7.01796e-10 -0.000999997)
(-3.4077e-09 -7.13077e-10 -0.000999998)
(-2.19596e-09 -7.2014e-10 -0.000999999)
(-7.5391e-10 -7.20916e-10 -0.001)
(-8.00918e-10 -2.15453e-09 -0.00099999)
(-2.3104e-09 -2.15243e-09 -0.000999991)
(-3.56649e-09 -2.12987e-09 -0.000999992)
(-4.45857e-09 -2.08477e-09 -0.000999993)
(-4.8814e-09 -2.01636e-09 -0.000999994)
(-4.78998e-09 -2.02681e-09 -0.000999996)
(-4.29072e-09 -2.05579e-09 -0.000999997)
(-3.43252e-09 -2.08375e-09 -0.000999999)
(-2.20932e-09 -2.10038e-09 -0.001)
(-7.57441e-10 -2.10428e-09 -0.001)
(-7.94033e-10 -3.32922e-09 -0.000999991)
(-2.2866e-09 -3.32215e-09 -0.000999992)
(-3.52229e-09 -3.29366e-09 -0.000999993)
(-4.39857e-09 -3.2495e-09 -0.000999994)
(-4.8567e-09 -3.20776e-09 -0.000999995)
(-4.81829e-09 -3.23494e-09 -0.000999997)
(-4.32777e-09 -3.25263e-09 -0.000999998)
(-3.459e-09 -3.27334e-09 -0.001)
(-2.22488e-09 -3.2881e-09 -0.001)
(-7.6328e-10 -3.29107e-09 -0.001)
(-7.8755e-10 -4.17498e-09 -0.000999992)
(-2.26844e-09 -4.17792e-09 -0.000999993)
(-3.49385e-09 -4.16707e-09 -0.000999994)
(-4.37293e-09 -4.15372e-09 -0.000999995)
(-4.86712e-09 -4.18259e-09 -0.000999996)
(-4.83514e-09 -4.22927e-09 -0.000999998)
(-4.32939e-09 -4.18465e-09 -0.001)
(-3.46841e-09 -4.17214e-09 -0.001)
(-2.23375e-09 -4.17971e-09 -0.001)
(-7.66816e-10 -4.17757e-09 -0.001)
(-7.89177e-10 -4.59846e-09 -0.000999994)
(-2.27063e-09 -4.60768e-09 -0.000999994)
(-3.49783e-09 -4.61893e-09 -0.000999995)
(-4.41409e-09 -4.64829e-09 -0.000999996)
(-4.93209e-09 -4.72531e-09 -0.000999998)
(-4.82051e-09 -4.62314e-09 -0.001)
(-4.27065e-09 -4.64025e-09 -0.001)
(-3.45432e-09 -4.61801e-09 -0.001)
(-2.23866e-09 -4.61324e-09 -0.001)
(-7.69226e-10 -4.60905e-09 -0.001)
(-7.88205e-10 -4.55551e-09 -0.000999995)
(-2.28005e-09 -4.54777e-09 -0.000999996)
(-3.53417e-09 -4.539e-09 -0.000999997)
(-4.47945e-09 -4.54829e-09 -0.000999998)
(-4.84199e-09 -4.57086e-09 -0.000999999)
(-4.74994e-09 -4.52165e-09 -0.001)
(-4.32436e-09 -4.5614e-09 -0.001)
(-3.44169e-09 -4.55632e-09 -0.001)
(-2.23395e-09 -4.54084e-09 -0.001)
(-7.71491e-10 -4.52283e-09 -0.00100001)
(-7.72867e-10 -4.07271e-09 -0.000999997)
(-2.24523e-09 -4.04978e-09 -0.000999997)
(-3.49806e-09 -4.01184e-09 -0.000999998)
(-4.44578e-09 -3.97812e-09 -0.000999999)
(-4.90561e-09 -3.93315e-09 -0.001)
(-4.81107e-09 -4.02658e-09 -0.001)
(-4.30533e-09 -4.04058e-09 -0.001)
(-3.43404e-09 -4.06506e-09 -0.00100001)
(-2.21416e-09 -4.06257e-09 -0.00100001)
(-7.59933e-10 -4.04299e-09 -0.00100001)
(-7.57625e-10 -3.20467e-09 -0.000999998)
(-2.21121e-09 -3.17857e-09 -0.000999999)
(-3.46225e-09 -3.1416e-09 -0.000999999)
(-4.40074e-09 -3.10772e-09 -0.001)
(-4.89034e-09 -3.05703e-09 -0.001)
(-4.85736e-09 -3.07345e-09 -0.001)
(-4.36284e-09 -3.15067e-09 -0.00100001)
(-3.46394e-09 -3.19539e-09 -0.00100001)
(-2.21992e-09 -3.20745e-09 -0.00100001)
(-7.59716e-10 -3.20429e-09 -0.00100001)
(-7.40701e-10 -2.04069e-09 -0.000999999)
(-2.17577e-09 -2.02195e-09 -0.000999999)
(-3.4268e-09 -1.9984e-09 -0.001)
(-4.36095e-09 -1.97737e-09 -0.001)
(-4.87105e-09 -1.94692e-09 -0.001)