/*--------------------------------*- C++ -*----------------------------------*\
| =========                 |                                                 |
| \\      /  F ield         | OpenFOAM: The Open Source CFD Toolbox           |
|  \\    /   O peration     | Version:  5.x                                   |
|   \\  /    A nd           | Web:      www.OpenFOAM.org                      |
|    \\/     M anipulation  |                                                 |
\*---------------------------------------------------------------------------*/
FoamFile
{
    version     2.0;
    format      ascii;
    class       surfaceScalarField;
    location    "5000";
    object      phi;
}
// * * * * * * * * * * * * * * * * * * * * * * * * * * * * * * * * * * * * * //

dimensions      [0 3 -1 0 0 0 0];

internalField   nonuniform List<scalar> 
179
(
-249.98
-249.979
-249.979
-249.978
-249.977
-249.976
-249.974
-249.973
-249.971
-249.969
-249.966
-249.963
-249.96
-249.957
-249.953
-249.949
-249.944
-249.939
-249.933
-249.927
-249.92
-249.913
-249.905
-249.896
-249.886
-249.875
-249.863
-249.851
-249.837
-249.822
-249.805
-249.788
-249.768
-249.748
-249.725
-249.701
-249.675
-249.648
-249.618
-249.586
-249.552
-249.517
-249.479
-249.439
-249.397
-249.353
-249.307
-249.26
-249.212
-249.164
-249.115
-249.067
-249.02
-248.976
-248.936
-248.901
-248.874
-248.857
-248.853
-248.864
-248.896
-248.952
-249.038
-249.161
-249.328
-249.55
-249.842
-250.22
-250.702
-251.308
-252.063
-252.996
-254.143
-255.543
-257.242
-259.285
-261.706
-264.5
-267.538
-270.464
-272.225
-272.079
-264.325
-263.291
-261.92
-259.113
-259.908
-268.038
-276.689
-283.55
-291.623
-295.392
-296.307
-307.594
-314.723
-317.682
-335.252
-335.646
-343.98
-343.473
-334.509
-331.399
-329.689
-325.659
-320.186
-313.329
-306.322
-299.71
-293.725
-288.418
-283.748
-279.65
-276.056
-272.904
-270.139
-267.714
-265.585
-263.717
-262.077
-260.637
-259.372
-258.26
-257.283
-256.424
-255.669
-255.005
-254.42
-253.905
-253.452
-253.052
-252.7
-252.389
-252.115
-251.873
-251.66
-251.471
-251.305
-251.157
-251.027
-250.912
-250.809
-250.719
-250.639
-250.568
-250.505
-250.449
-250.399
-250.355
-250.316
-250.282
-250.251
-250.223
-250.199
-250.177
-250.158
-250.141
-250.126
-250.112
-250.1
-250.089
-250.08
-250.071
-250.063
-250.056
-250.05
-250.045
-250.04
-250.035
-250.031
-250.027
-250.024
-250.021
-250.018
-250.016
-250.013
-250.011
-250.009
-250.007
-250.005
)
;

boundaryField
{
    inlet
    {
        type            calculated;
        value           uniform -250.003;
    }
    outlet
    {
        type            calculated;
        value           uniform 249.98;
    }
    repeat_boundary
    {
        type            calculated;
        value           uniform 0;
    }
    procBoundary3to1
    {
        type            processor;
        value           nonuniform List<scalar> 
180
(
-0.000299121
-0.000399483
-0.000567018
-0.000768818
-0.000989104
-0.00122247
-0.00146842
-0.00172842
-0.00200465
-0.00229959
-0.00261591
-0.00295647
-0.00332428
-0.00372259
-0.00415485
-0.00462478
-0.00513636
-0.00569387
-0.0063019
-0.0069654
-0.00768967
-0.00848043
-0.0093438
-0.0102864
-0.0113152
-0.012438
-0.0136628
-0.0149985
-0.0164542
-0.0180398
-0.019766
-0.021644
-0.0236857
-0.0259035
-0.0283105
-0.0309205
-0.0337479
-0.0368074
-0.0401141
-0.0436835
-0.047531
-0.0516725
-0.0561237
-0.0608998
-0.0660153
-0.0714842
-0.0773184
-0.0835279
-0.0901197
-0.0970974
-0.104461
-0.112203
-0.120313
-0.128772
-0.137549
-0.146606
-0.155889
-0.165334
-0.174864
-0.184393
-0.19383
-0.203051
-0.211855
-0.220022
-0.226822
-0.231318
-0.228855
-0.221506
-0.208322
-0.187837
-0.158292
-0.117569
-0.0630797
0.00853267
0.102268
0.226805
0.397999
0.641823
0.981123
1.40192
1.3672
-0.0287201
-6.7386
-0.783753
-1.19542
-2.90563
-0.0944689
3.52545
0.7258
6.71223
4.96793
5.22604
1.39638
7.87127
6.80228
1.98276
15.7459
0.203228
3.07549
-0.801748
-5.00965
-1.50707
-0.646928
-1.67979
-2.56159
-3.15189
-3.29513
-3.19193
-2.93393
-2.61845
-2.30692
-2.02304
-1.77168
-1.55113
-1.3581
-1.18926
-1.04157
-0.912366
-0.799326
-0.700412
-0.613848
-0.538086
-0.47178
-0.413758
-0.363011
-0.318626
-0.27979
-0.245798
-0.216035
-0.189968
-0.16713
-0.147115
-0.129571
-0.114189
-0.100701
-0.088858
-0.07845
-0.0692958
-0.0612387
-0.0541427
-0.0478892
-0.0423752
-0.0375115
-0.0332196
-0.0294305
-0.0260842
-0.0231277
-0.0205147
-0.0182044
-0.0161612
-0.0143533
-0.0127533
-0.0113366
-0.0100819
-0.00897026
-0.00798514
-0.00711188
-0.00633761
-0.005651
-0.00504205
-0.00450194
-0.00402293
-0.00359815
-0.00322156
-0.00288783
-0.00259225
-0.00233066
-0.0020994
-0.00189522
-0.00171526
-0.00155701
-0.00141826
-0.00129706
-0.00119171
-0.00110075
-0.0010229
-0.000957125
-0.00090217
-0.000860326
-0.000838793
)
;
    }
    procBoundary3to2
    {
        type            processor;
        value           nonuniform List<scalar> 
180
(
2.11202e-05
3.12576e-05
4.47435e-05
6.07223e-05
7.87045e-05
9.83965e-05
0.000119839
0.000143235
0.000168909
0.000197249
0.000228716
0.000263843
0.000303219
0.000347537
0.000397601
0.000454344
0.000518835
0.000592307
0.000676181
0.000772086
0.000881901
0.00100778
0.00115221
0.00131804
0.00150855
0.00172751
0.00197926
0.00226876
0.00260175
0.0029848
0.00342547
0.00393246
0.00451574
0.00518681
0.00595888
0.00684714
0.00786906
0.00904473
0.0103973
0.0119533
0.0137433
0.0158025
0.0181714
0.0208966
0.0240315
0.0276378
0.0317863
0.0365584
0.0420478
0.0483622
0.0556254
0.0639797
0.0735887
0.0846407
0.0973519
0.111971
0.128783
0.148117
0.170351
0.19592
0.225321
0.25913
0.298006
0.342712
0.394126
0.453261
0.521296
0.599603
0.689775
0.793651
0.913352
1.05129
1.21006
1.3918
1.59637
1.816
2.02298
2.15264
2.05659
1.52441
0.394324
-0.117638
-1.01571
-0.249436
-0.17615
0.0991526
0.889029
4.60455
7.92584
0.148368
3.10463
-1.45674
-0.481413
3.41627
0.326473
0.97585
1.82487
0.190944
5.25802
0.295026
-3.95421
-1.6032
-1.0632
-2.35043
-2.91042
-3.70594
-3.71099
-3.42083
-3.05019
-2.68875
-2.36282
-2.07515
-1.82256
-1.60101
-1.40674
-1.23637
-1.08694
-0.955855
-0.840836
-0.739892
-0.651278
-0.573466
-0.50512
-0.445067
-0.392285
-0.345875
-0.305054
-0.269136
-0.23752
-0.209681
-0.185158
-0.163548
-0.144499
-0.127701
-0.112883
-0.0998104
-0.0882761
-0.0781034
-0.0691294
-0.0612109
-0.0542228
-0.0480515
-0.042598
-0.0377761
-0.0335107
-0.0297361
-0.0263946
-0.0234356
-0.0208145
-0.0184922
-0.0164339
-0.0146092
-0.0129913
-0.0115564
-0.0102835
-0.00915425
-0.00815224
-0.00726309
-0.00647407
-0.00577392
-0.00515271
-0.00460165
-0.00411297
-0.00367979
-0.00329605
-0.00295637
-0.002656
-0.00239075
-0.00215691
-0.00195122
-0.0017708
-0.00161314
-0.00147603
-0.00135755
-0.00125606
-0.00117017
-0.00109864
-0.00104006
-0.000996121
-0.000980625
)
;
    }
}


// ************************************************************************* //
