/*--------------------------------*- C++ -*----------------------------------*\
| =========                 |                                                 |
| \\      /  F ield         | OpenFOAM: The Open Source CFD Toolbox           |
|  \\    /   O peration     | Version:  5.x                                   |
|   \\  /    A nd           | Web:      www.OpenFOAM.org                      |
|    \\/     M anipulation  |                                                 |
\*---------------------------------------------------------------------------*/
FoamFile
{
    version     2.0;
    format      ascii;
    class       volVectorField;
    location    "5000";
    object      stored_U;
}
// * * * * * * * * * * * * * * * * * * * * * * * * * * * * * * * * * * * * * //

dimensions      [0 1 -1 0 0 0 0];

internalField   nonuniform List<vector> 
180
(
(-6.72246e-10 1.17416e-08 -0.000999923)
(-8.17765e-10 1.60223e-08 -0.000999921)
(-1.08741e-09 2.28842e-08 -0.00099992)
(-1.45409e-09 3.10947e-08 -0.000999917)
(-1.8949e-09 4.00377e-08 -0.000999914)
(-2.39752e-09 4.95084e-08 -0.00099991)
(-2.96305e-09 5.9495e-08 -0.000999905)
(-3.59955e-09 7.00624e-08 -0.000999898)
(-4.31909e-09 8.13038e-08 -0.000999891)
(-5.1361e-09 9.33248e-08 -0.000999883)
(-6.06692e-09 1.0624e-07 -0.000999874)
(-7.12991e-09 1.20172e-07 -0.000999863)
(-8.34575e-09 1.35254e-07 -0.000999851)
(-9.73787e-09 1.51629e-07 -0.000999837)
(-1.13329e-08 1.69453e-07 -0.000999822)
(-1.31611e-08 1.88892e-07 -0.000999805)
(-1.52574e-08 2.10129e-07 -0.000999787)
(-1.76617e-08 2.33363e-07 -0.000999766)
(-2.04198e-08 2.58809e-07 -0.000999743)
(-2.35846e-08 2.86702e-07 -0.000999717)
(-2.72172e-08 3.17297e-07 -0.000999689)
(-3.13879e-08 3.50872e-07 -0.000999658)
(-3.61781e-08 3.8773e-07 -0.000999624)
(-4.16814e-08 4.28201e-07 -0.000999586)
(-4.80064e-08 4.72645e-07 -0.000999544)
(-5.52782e-08 5.21451e-07 -0.000999499)
(-6.36411e-08 5.75046e-07 -0.000999449)
(-7.32618e-08 6.33892e-07 -0.000999395)
(-8.43325e-08 6.98492e-07 -0.000999335)
(-9.70747e-08 7.69393e-07 -0.000999269)
(-1.11744e-07 8.47189e-07 -0.000999198)
(-1.28634e-07 9.32524e-07 -0.00099912)
(-1.48086e-07 1.0261e-06 -0.000999035)
(-1.70488e-07 1.12866e-06 -0.000998942)
(-1.96292e-07 1.24104e-06 -0.000998841)
(-2.26017e-07 1.36412e-06 -0.000998732)
(-2.6026e-07 1.49885e-06 -0.000998612)
(-2.99709e-07 1.64625e-06 -0.000998483)
(-3.45157e-07 1.80745e-06 -0.000998342)
(-3.97518e-07 1.98362e-06 -0.00099819)
(-4.57845e-07 2.17604e-06 -0.000998026)
(-5.27352e-07 2.38608e-06 -0.000997848)
(-6.07435e-07 2.61518e-06 -0.000997656)
(-6.99706e-07 2.86489e-06 -0.000997449)
(-8.06021e-07 3.13685e-06 -0.000997227)
(-9.28518e-07 3.4328e-06 -0.000996988)
(-1.06966e-06 3.75457e-06 -0.000996733)
(-1.23229e-06 4.10408e-06 -0.000996459)
(-1.41967e-06 4.48334e-06 -0.000996167)
(-1.63556e-06 4.89444e-06 -0.000995857)
(-1.8843e-06 5.33954e-06 -0.000995527)
(-2.17089e-06 5.82087e-06 -0.000995178)
(-2.50106e-06 6.34068e-06 -0.000994811)
(-2.88143e-06 6.90127e-06 -0.000994425)
(-3.31962e-06 7.50491e-06 -0.000994022)
(-3.82437e-06 8.15386e-06 -0.000993603)
(-4.40578e-06 8.85029e-06 -0.000993169)
(-5.07544e-06 9.59625e-06 -0.000992724)
(-5.84668e-06 1.03936e-05 -0.000992271)
(-6.73483e-06 1.12441e-05 -0.000991813)
(-7.75751e-06 1.21489e-05 -0.000991356)
(-8.93497e-06 1.31091e-05 -0.000990906)
(-1.02904e-05 1.41253e-05 -0.00099047)
(-1.18505e-05 1.51974e-05 -0.000990055)
(-1.36458e-05 1.6325e-05 -0.000989672)
(-1.57113e-05 1.75064e-05 -0.000989338)
(-1.80877e-05 1.87387e-05 -0.000989084)
(-2.08231e-05 2.00147e-05 -0.000988951)
(-2.3973e-05 2.13241e-05 -0.000988978)
(-2.76019e-05 2.26531e-05 -0.000989211)
(-3.17843e-05 2.39834e-05 -0.000989708)
(-3.66048e-05 2.52911e-05 -0.000990527)
(-4.21537e-05 2.65439e-05 -0.000991695)
(-4.85062e-05 2.76925e-05 -0.000993264)
(-5.56488e-05 2.86437e-05 -0.000995829)
(-6.32719e-05 2.91921e-05 -0.00100124)
(-7.01249e-05 2.8912e-05 -0.00100887)
(-7.37068e-05 2.70447e-05 -0.000999793)
(-6.84812e-05 2.26327e-05 -0.000937015)
(-4.84847e-05 1.5856e-05 -0.000909946)
(-1.81829e-05 -3.28981e-06 -0.00283528)
(3.84306e-05 -2.75257e-06 -5.21471e-05)
(5.10485e-05 0.000510699 -0.00373784)
(2.93259e-05 1.71854e-05 -0.000186626)
(-0.000101953 -6.41027e-05 -0.00397902)
(-2.55364e-06 4.4541e-05 -0.00416557)
(2.62255e-05 1.4935e-05 -0.00046122)
(-0.000346104 -0.000224367 -0.00385045)
(-0.000419397 -0.000166098 -0.00390855)
(-3.2525e-05 -7.46223e-05 -0.000256607)
(-0.000256967 -0.000690858 -0.00311853)
(0.000194746 -0.000335949 -0.00404885)
(-6.67924e-07 -6.55798e-05 -0.000427199)
(-0.0002489 -0.000758164 -0.00486793)
(-0.000180585 -0.000872986 -0.00365594)
(-1.86349e-05 -4.51575e-05 -0.000194309)
(-0.00026633 -0.00103281 -0.00541669)
(1.50179e-05 -3.71004e-05 -0.000155655)
(-0.000400884 -0.000457288 -0.00524506)
(-0.000111024 -6.08064e-05 -0.00144213)
(0.00027142 0.000289815 -0.00372594)
(3.16707e-05 4.31161e-05 -0.00034484)
(9.21137e-05 7.59697e-05 -0.00290243)
(0.000124933 0.000147718 -0.00153211)
(0.000150211 0.000150981 -0.00149834)
(0.000164323 0.000132699 -0.00136843)
(0.000160845 0.000127993 -0.00128101)
(0.00014706 0.000123751 -0.00124001)
(0.00013036 0.000114399 -0.00121285)
(0.000114311 0.000102291 -0.00118737)
(9.99457e-05 9.00444e-05 -0.00116386)
(8.73459e-05 7.88149e-05 -0.00114321)
(7.63469e-05 6.88779e-05 -0.00112527)
(6.67532e-05 6.01832e-05 -0.00110966)
(5.83849e-05 5.25983e-05 -0.00109604)
(5.10836e-05 4.59849e-05 -0.00108414)
(4.47112e-05 4.02179e-05 -0.00107375)
(3.91478e-05 3.51874e-05 -0.00106467)
(3.4289e-05 3.07979e-05 -0.00105673)
(3.00442e-05 2.69663e-05 -0.00104979)
(2.63345e-05 2.36207e-05 -0.00104372)
(2.30915e-05 2.06982e-05 -0.0010384)
(2.02554e-05 1.81446e-05 -0.00103375)
(1.77743e-05 1.59124e-05 -0.00102967)
(1.5603e-05 1.39604e-05 -0.0010261)
(1.37023e-05 1.22529e-05 -0.00102297)
(1.20377e-05 1.07587e-05 -0.00102022)
(1.05795e-05 9.45069e-06 -0.00101781)
(9.30151e-06 8.30519e-06 -0.00101569)
(8.18118e-06 7.30164e-06 -0.00101383)
(7.19866e-06 6.42212e-06 -0.0010122)
(6.33669e-06 5.65099e-06 -0.00101076)
(5.58018e-06 4.97463e-06 -0.0010095)
(4.916e-06 4.38116e-06 -0.00100839)
(4.33265e-06 3.86024e-06 -0.00100741)
(3.8201e-06 3.40283e-06 -0.00100655)
(3.36959e-06 3.00106e-06 -0.00100579)
(2.97345e-06 2.64798e-06 -0.00100512)
(2.62499e-06 2.33755e-06 -0.00100453)
(2.31837e-06 2.06443e-06 -0.00100401)
(2.04844e-06 1.82398e-06 -0.00100356)
(1.81068e-06 1.61218e-06 -0.00100315)
(1.60116e-06 1.4256e-06 -0.00100279)
(1.41639e-06 1.26118e-06 -0.00100248)
(1.25338e-06 1.11621e-06 -0.0010022)
(1.10951e-06 9.88365e-07 -0.00100195)
(9.82518e-07 8.7557e-07 -0.00100173)
(8.70378e-07 7.76018e-07 -0.00100154)
(7.71324e-07 6.88118e-07 -0.00100137)
(6.83804e-07 6.10474e-07 -0.00100122)
(6.06449e-07 5.4186e-07 -0.00100108)
(5.38058e-07 4.81202e-07 -0.00100096)
(4.77575e-07 4.27555e-07 -0.00100086)
(4.24071e-07 3.80091e-07 -0.00100076)
(3.76729e-07 3.3808e-07 -0.00100068)
(3.34828e-07 3.00884e-07 -0.00100061)
(2.97735e-07 2.67939e-07 -0.00100054)
(2.64891e-07 2.38749e-07 -0.00100048)
(2.35806e-07 2.1288e-07 -0.00100043)
(2.10045e-07 1.89948e-07 -0.00100038)
(1.87227e-07 1.69616e-07 -0.00100034)
(1.67016e-07 1.51586e-07 -0.0010003)
(1.49114e-07 1.35598e-07 -0.00100027)
(1.33261e-07 1.21421e-07 -0.00100024)
(1.19227e-07 1.08853e-07 -0.00100022)
(1.06809e-07 9.77148e-08 -0.00100019)
(9.58305e-08 8.78513e-08 -0.00100017)
(8.61351e-08 7.9125e-08 -0.00100015)
(7.75862e-08 7.14154e-08 -0.00100014)
(7.00643e-08 6.46174e-08 -0.00100012)
(6.34652e-08 5.8639e-08 -0.00100011)
(5.7698e-08 5.34001e-08 -0.00100009)
(5.26843e-08 4.88312e-08 -0.00100008)
(4.83563e-08 4.48723e-08 -0.00100007)
(4.46566e-08 4.14721e-08 -0.00100006)
(4.15364e-08 3.85866e-08 -0.00100005)
(3.89539e-08 3.61773e-08 -0.00100004)
(3.68639e-08 3.42029e-08 -0.00100003)
(3.53447e-08 3.27537e-08 -0.00100002)
(3.43495e-08 3.1807e-08 -0.00100002)
)
;

boundaryField
{
    inlet
    {
        type            calculated;
        value           uniform (3.43495e-08 3.1807e-08 -0.00100002);
    }
    outlet
    {
        type            calculated;
        value           uniform (-6.72246e-10 1.17416e-08 -0.000999923);
    }
    repeat_boundary
    {
        type            calculated;
        value           nonuniform List<vector> 
360
(
(0 1.17416e-08 -0.000999923)
(0 1.60223e-08 -0.000999921)
(0 2.28842e-08 -0.00099992)
(0 3.10947e-08 -0.000999917)
(0 4.00377e-08 -0.000999914)
(0 4.95084e-08 -0.00099991)
(0 5.9495e-08 -0.000999905)
(0 7.00624e-08 -0.000999898)
(0 8.13038e-08 -0.000999891)
(0 9.33248e-08 -0.000999883)
(0 1.0624e-07 -0.000999874)
(0 1.20172e-07 -0.000999863)
(0 1.35254e-07 -0.000999851)
(0 1.51629e-07 -0.000999837)
(0 1.69453e-07 -0.000999822)
(0 1.88892e-07 -0.000999805)
(0 2.10129e-07 -0.000999787)
(0 2.33363e-07 -0.000999766)
(0 2.58809e-07 -0.000999743)
(0 2.86702e-07 -0.000999717)
(0 3.17297e-07 -0.000999689)
(0 3.50872e-07 -0.000999658)
(0 3.8773e-07 -0.000999624)
(0 4.28201e-07 -0.000999586)
(0 4.72645e-07 -0.000999544)
(0 5.21451e-07 -0.000999499)
(0 5.75046e-07 -0.000999449)
(0 6.33892e-07 -0.000999395)
(0 6.98492e-07 -0.000999335)
(0 7.69393e-07 -0.000999269)
(0 8.47189e-07 -0.000999198)
(0 9.32524e-07 -0.00099912)
(0 1.0261e-06 -0.000999035)
(0 1.12866e-06 -0.000998942)
(0 1.24104e-06 -0.000998841)
(0 1.36412e-06 -0.000998732)
(0 1.49885e-06 -0.000998612)
(0 1.64625e-06 -0.000998483)
(0 1.80745e-06 -0.000998342)
(0 1.98362e-06 -0.00099819)
(0 2.17604e-06 -0.000998026)
(0 2.38608e-06 -0.000997848)
(0 2.61518e-06 -0.000997656)
(0 2.86489e-06 -0.000997449)
(0 3.13685e-06 -0.000997227)
(0 3.4328e-06 -0.000996988)
(0 3.75457e-06 -0.000996733)
(0 4.10408e-06 -0.000996459)
(0 4.48334e-06 -0.000996167)
(0 4.89444e-06 -0.000995857)
(0 5.33954e-06 -0.000995527)
(0 5.82087e-06 -0.000995178)
(0 6.34068e-06 -0.000994811)
(0 6.90127e-06 -0.000994425)
(0 7.50491e-06 -0.000994022)
(0 8.15386e-06 -0.000993603)
(0 8.85029e-06 -0.000993169)
(0 9.59625e-06 -0.000992724)
(0 1.03936e-05 -0.000992271)
(0 1.12441e-05 -0.000991813)
(0 1.21489e-05 -0.000991356)
(0 1.31091e-05 -0.000990906)
(0 1.41253e-05 -0.00099047)
(0 1.51974e-05 -0.000990055)
(0 1.6325e-05 -0.000989672)
(0 1.75064e-05 -0.000989338)
(0 1.87387e-05 -0.000989084)
(0 2.00147e-05 -0.000988951)
(0 2.13241e-05 -0.000988978)
(0 2.26531e-05 -0.000989211)
(0 2.39834e-05 -0.000989708)
(0 2.52911e-05 -0.000990527)
(0 2.65439e-05 -0.000991695)
(0 2.76925e-05 -0.000993264)
(0 2.86437e-05 -0.000995829)
(0 2.91921e-05 -0.00100124)
(0 2.8912e-05 -0.00100887)
(0 2.70447e-05 -0.000999793)
(0 2.26327e-05 -0.000937015)
(0 1.5856e-05 -0.000909946)
(0 -3.28981e-06 -0.00283528)
(0 -2.75257e-06 -5.21471e-05)
(0 0.000510699 -0.00373784)
(0 1.71854e-05 -0.000186626)
(0 -6.41027e-05 -0.00397902)
(0 4.4541e-05 -0.00416557)
(0 1.4935e-05 -0.00046122)
(0 -0.000224367 -0.00385045)
(0 -0.000166098 -0.00390855)
(0 -7.46223e-05 -0.000256607)
(0 -0.000690858 -0.00311853)
(0 -0.000335949 -0.00404885)
(0 -6.55798e-05 -0.000427199)
(0 -0.000758164 -0.00486793)
(0 -0.000872986 -0.00365594)
(0 -4.51575e-05 -0.000194309)
(0 -0.00103281 -0.00541669)
(0 -3.71004e-05 -0.000155655)
(0 -0.000457288 -0.00524506)
(0 -6.08064e-05 -0.00144213)
(0 0.000289815 -0.00372594)
(0 4.31161e-05 -0.00034484)
(0 7.59697e-05 -0.00290243)
(0 0.000147718 -0.00153211)
(0 0.000150981 -0.00149834)
(0 0.000132699 -0.00136843)
(0 0.000127993 -0.00128101)
(0 0.000123751 -0.00124001)
(0 0.000114399 -0.00121285)
(0 0.000102291 -0.00118737)
(0 9.00444e-05 -0.00116386)
(0 7.88149e-05 -0.00114321)
(0 6.88779e-05 -0.00112527)
(0 6.01832e-05 -0.00110966)
(0 5.25983e-05 -0.00109604)
(0 4.59849e-05 -0.00108414)
(0 4.02179e-05 -0.00107375)
(0 3.51874e-05 -0.00106467)
(0 3.07979e-05 -0.00105673)
(0 2.69663e-05 -0.00104979)
(0 2.36207e-05 -0.00104372)
(0 2.06982e-05 -0.0010384)
(0 1.81446e-05 -0.00103375)
(0 1.59124e-05 -0.00102967)
(0 1.39604e-05 -0.0010261)
(0 1.22529e-05 -0.00102297)
(0 1.07587e-05 -0.00102022)
(0 9.45069e-06 -0.00101781)
(0 8.30519e-06 -0.00101569)
(0 7.30164e-06 -0.00101383)
(0 6.42212e-06 -0.0010122)
(0 5.65099e-06 -0.00101076)
(0 4.97463e-06 -0.0010095)
(0 4.38116e-06 -0.00100839)
(0 3.86024e-06 -0.00100741)
(0 3.40283e-06 -0.00100655)
(0 3.00106e-06 -0.00100579)
(0 2.64798e-06 -0.00100512)
(0 2.33755e-06 -0.00100453)
(0 2.06443e-06 -0.00100401)
(0 1.82398e-06 -0.00100356)
(0 1.61218e-06 -0.00100315)
(0 1.4256e-06 -0.00100279)
(0 1.26118e-06 -0.00100248)
(0 1.11621e-06 -0.0010022)
(0 9.88365e-07 -0.00100195)
(0 8.7557e-07 -0.00100173)
(0 7.76018e-07 -0.00100154)
(0 6.88118e-07 -0.00100137)
(0 6.10474e-07 -0.00100122)
(0 5.4186e-07 -0.00100108)
(0 4.81202e-07 -0.00100096)
(0 4.27555e-07 -0.00100086)
(0 3.80091e-07 -0.00100076)
(0 3.3808e-07 -0.00100068)
(0 3.00884e-07 -0.00100061)
(0 2.67939e-07 -0.00100054)
(0 2.38749e-07 -0.00100048)
(0 2.1288e-07 -0.00100043)
(0 1.89948e-07 -0.00100038)
(0 1.69616e-07 -0.00100034)
(0 1.51586e-07 -0.0010003)
(0 1.35598e-07 -0.00100027)
(0 1.21421e-07 -0.00100024)
(0 1.08853e-07 -0.00100022)
(0 9.77148e-08 -0.00100019)
(0 8.78513e-08 -0.00100017)
(0 7.9125e-08 -0.00100015)
(0 7.14154e-08 -0.00100014)
(0 6.46174e-08 -0.00100012)
(0 5.8639e-08 -0.00100011)
(0 5.34001e-08 -0.00100009)
(0 4.88312e-08 -0.00100008)
(0 4.48723e-08 -0.00100007)
(0 4.14721e-08 -0.00100006)
(0 3.85866e-08 -0.00100005)
(0 3.61773e-08 -0.00100004)
(0 3.42029e-08 -0.00100003)
(0 3.27537e-08 -0.00100002)
(0 3.1807e-08 -0.00100002)
(-6.72246e-10 0 -0.000999923)
(-8.17765e-10 0 -0.000999921)
(-1.08741e-09 0 -0.00099992)
(-1.45409e-09 0 -0.000999917)
(-1.8949e-09 0 -0.000999914)
(-2.39752e-09 0 -0.00099991)
(-2.96305e-09 0 -0.000999905)
(-3.59955e-09 0 -0.000999898)
(-4.31909e-09 0 -0.000999891)
(-5.1361e-09 0 -0.000999883)
(-6.06692e-09 0 -0.000999874)
(-7.12991e-09 0 -0.000999863)
(-8.34575e-09 0 -0.000999851)
(-9.73787e-09 0 -0.000999837)
(-1.13329e-08 0 -0.000999822)
(-1.31611e-08 0 -0.000999805)
(-1.52574e-08 0 -0.000999787)
(-1.76617e-08 0 -0.000999766)
(-2.04198e-08 0 -0.000999743)
(-2.35846e-08 0 -0.000999717)
(-2.72172e-08 0 -0.000999689)
(-3.13879e-08 0 -0.000999658)
(-3.61781e-08 0 -0.000999624)
(-4.16814e-08 0 -0.000999586)
(-4.80064e-08 0 -0.000999544)
(-5.52782e-08 0 -0.000999499)
(-6.36411e-08 0 -0.000999449)
(-7.32618e-08 0 -0.000999395)
(-8.43325e-08 0 -0.000999335)
(-9.70747e-08 0 -0.000999269)
(-1.11744e-07 0 -0.000999198)
(-1.28634e-07 0 -0.00099912)
(-1.48086e-07 0 -0.000999035)
(-1.70488e-07 0 -0.000998942)
(-1.96292e-07 0 -0.000998841)
(-2.26017e-07 0 -0.000998732)
(-2.6026e-07 0 -0.000998612)
(-2.99709e-07 0 -0.000998483)
(-3.45157e-07 0 -0.000998342)
(-3.97518e-07 0 -0.00099819)
(-4.57845e-07 0 -0.000998026)
(-5.27352e-07 0 -0.000997848)
(-6.07435e-07 0 -0.000997656)
(-6.99706e-07 0 -0.000997449)
(-8.06021e-07 0 -0.000997227)
(-9.28518e-07 0 -0.000996988)
(-1.06966e-06 0 -0.000996733)
(-1.23229e-06 0 -0.000996459)
(-1.41967e-06 0 -0.000996167)
(-1.63556e-06 0 -0.000995857)
(-1.8843e-06 0 -0.000995527)
(-2.17089e-06 0 -0.000995178)
(-2.50106e-06 0 -0.000994811)
(-2.88143e-06 0 -0.000994425)
(-3.31962e-06 0 -0.000994022)
(-3.82437e-06 0 -0.000993603)
(-4.40578e-06 0 -0.000993169)
(-5.07544e-06 0 -0.000992724)
(-5.84668e-06 0 -0.000992271)
(-6.73483e-06 0 -0.000991813)
(-7.75751e-06 0 -0.000991356)
(-8.93497e-06 0 -0.000990906)
(-1.02904e-05 0 -0.00099047)
(-1.18505e-05 0 -0.000990055)
(-1.36458e-05 0 -0.000989672)
(-1.57113e-05 0 -0.000989338)
(-1.80877e-05 0 -0.000989084)
(-2.08231e-05 0 -0.000988951)
(-2.3973e-05 0 -0.000988978)
(-2.76019e-05 0 -0.000989211)
(-3.17843e-05 0 -0.000989708)
(-3.66048e-05 0 -0.000990527)
(-4.21537e-05 0 -0.000991695)
(-4.85062e-05 0 -0.000993264)
(-5.56488e-05 0 -0.000995829)
(-6.32719e-05 0 -0.00100124)
(-7.01249e-05 0 -0.00100887)
(-7.37068e-05 0 -0.000999793)
(-6.84812e-05 0 -0.000937015)
(-4.84847e-05 0 -0.000909946)
(-1.81829e-05 0 -0.00283528)
(3.84306e-05 0 -5.21471e-05)
(5.10485e-05 0 -0.00373784)
(2.93259e-05 0 -0.000186626)
(-0.000101953 0 -0.00397902)
(-2.55364e-06 0 -0.00416557)
(2.62255e-05 0 -0.00046122)
(-0.000346104 0 -0.00385045)
(-0.000419397 0 -0.00390855)
(-3.2525e-05 0 -0.000256607)
(-0.000256967 0 -0.00311853)
(0.000194746 0 -0.00404885)
(-6.67924e-07 0 -0.000427199)
(-0.0002489 0 -0.00486793)
(-0.000180585 0 -0.00365594)
(-1.86349e-05 0 -0.000194309)
(-0.00026633 0 -0.00541669)
(1.50179e-05 0 -0.000155655)
(-0.000400884 0 -0.00524506)
(-0.000111024 0 -0.00144213)
(0.00027142 0 -0.00372594)
(3.16707e-05 0 -0.00034484)
(9.21137e-05 0 -0.00290243)
(0.000124933 0 -0.00153211)
(0.000150211 0 -0.00149834)
(0.000164323 0 -0.00136843)
(0.000160845 0 -0.00128101)
(0.00014706 0 -0.00124001)
(0.00013036 0 -0.00121285)
(0.000114311 0 -0.00118737)
(9.99457e-05 0 -0.00116386)
(8.73459e-05 0 -0.00114321)
(7.63469e-05 0 -0.00112527)
(6.67532e-05 0 -0.00110966)
(5.83849e-05 0 -0.00109604)
(5.10836e-05 0 -0.00108414)
(4.47112e-05 0 -0.00107375)
(3.91478e-05 0 -0.00106467)
(3.4289e-05 0 -0.00105673)
(3.00442e-05 0 -0.00104979)
(2.63345e-05 0 -0.00104372)
(2.30915e-05 0 -0.0010384)
(2.02554e-05 0 -0.00103375)
(1.77743e-05 0 -0.00102967)
(1.5603e-05 0 -0.0010261)
(1.37023e-05 0 -0.00102297)
(1.20377e-05 0 -0.00102022)
(1.05795e-05 0 -0.00101781)
(9.30151e-06 0 -0.00101569)
(8.18118e-06 0 -0.00101383)
(7.19866e-06 0 -0.0010122)
(6.33669e-06 0 -0.00101076)
(5.58018e-06 0 -0.0010095)
(4.916e-06 0 -0.00100839)
(4.33265e-06 0 -0.00100741)
(3.8201e-06 0 -0.00100655)
(3.36959e-06 0 -0.00100579)
(2.97345e-06 0 -0.00100512)
(2.62499e-06 0 -0.00100453)
(2.31837e-06 0 -0.00100401)
(2.04844e-06 0 -0.00100356)
(1.81068e-06 0 -0.00100315)
(1.60116e-06 0 -0.00100279)
(1.41639e-06 0 -0.00100248)
(1.25338e-06 0 -0.0010022)
(1.10951e-06 0 -0.00100195)
(9.82518e-07 0 -0.00100173)
(8.70378e-07 0 -0.00100154)
(7.71324e-07 0 -0.00100137)
(6.83804e-07 0 -0.00100122)
(6.06449e-07 0 -0.00100108)
(5.38058e-07 0 -0.00100096)
(4.77575e-07 0 -0.00100086)
(4.24071e-07 0 -0.00100076)
(3.76729e-07 0 -0.00100068)
(3.34828e-07 0 -0.00100061)
(2.97735e-07 0 -0.00100054)
(2.64891e-07 0 -0.00100048)
(2.35806e-07 0 -0.00100043)
(2.10045e-07 0 -0.00100038)
(1.87227e-07 0 -0.00100034)
(1.67016e-07 0 -0.0010003)
(1.49114e-07 0 -0.00100027)
(1.33261e-07 0 -0.00100024)
(1.19227e-07 0 -0.00100022)
(1.06809e-07 0 -0.00100019)
(9.58305e-08 0 -0.00100017)
(8.61351e-08 0 -0.00100015)
(7.75862e-08 0 -0.00100014)
(7.00643e-08 0 -0.00100012)
(6.34652e-08 0 -0.00100011)
(5.7698e-08 0 -0.00100009)
(5.26843e-08 0 -0.00100008)
(4.83563e-08 0 -0.00100007)
(4.46566e-08 0 -0.00100006)
(4.15364e-08 0 -0.00100005)
(3.89539e-08 0 -0.00100004)
(3.68639e-08 0 -0.00100003)
(3.53447e-08 0 -0.00100002)
(3.43495e-08 0 -0.00100002)
)
;
    }
    procBoundary3to1
    {
        type            processor;
        value           nonuniform List<vector> 
180
(
(2.92352e-11 1.17416e-08 -0.00100009)
(1.04518e-10 1.60224e-08 -0.0010001)
(2.70423e-10 2.28842e-08 -0.0010001)
(4.65359e-10 3.10948e-08 -0.0010001)
(6.74167e-10 4.00378e-08 -0.0010001)
(9.04613e-10 4.95085e-08 -0.00100011)
(1.16949e-09 5.94951e-08 -0.00100011)
(1.47955e-09 7.00626e-08 -0.00100012)
(1.8448e-09 8.1304e-08 -0.00100013)
(2.2755e-09 9.3325e-08 -0.00100014)
(2.78284e-09 1.0624e-07 -0.00100015)
(3.37931e-09 1.20172e-07 -0.00100016)
(4.07901e-09 1.35255e-07 -0.00100017)
(4.89802e-09 1.5163e-07 -0.00100019)
(5.85472e-09 1.69453e-07 -0.0010002)
(6.97028e-09 1.88892e-07 -0.00100022)
(8.26919e-09 2.1013e-07 -0.00100024)
(9.77983e-09 2.33364e-07 -0.00100026)
(1.15352e-08 2.5881e-07 -0.00100029)
(1.35739e-08 2.86703e-07 -0.00100031)
(1.59406e-08 3.17298e-07 -0.00100034)
(1.86877e-08 3.50874e-07 -0.00100038)
(2.1876e-08 3.87732e-07 -0.00100041)
(2.55767e-08 4.28204e-07 -0.00100045)
(2.98724e-08 4.72648e-07 -0.0010005)
(3.48592e-08 5.21455e-07 -0.00100054)
(4.06488e-08 5.7505e-07 -0.0010006)
(4.73706e-08 6.33897e-07 -0.00100065)
(5.51749e-08 6.98498e-07 -0.00100072)
(6.42361e-08 7.69401e-07 -0.00100079)
(7.47559e-08 8.47199e-07 -0.00100086)
(8.69681e-08 9.32536e-07 -0.00100095)
(1.01143e-07 1.02611e-06 -0.00100104)
(1.17594e-07 1.12868e-06 -0.00100114)
(1.36684e-07 1.24106e-06 -0.00100125)
(1.58831e-07 1.36414e-06 -0.00100137)
(1.8452e-07 1.49888e-06 -0.00100149)
(2.14311e-07 1.64629e-06 -0.00100164)
(2.48853e-07 1.8075e-06 -0.00100179)
(2.88894e-07 1.98368e-06 -0.00100196)
(3.35301e-07 2.17611e-06 -0.00100214)
(3.89076e-07 2.38616e-06 -0.00100234)
(4.51377e-07 2.61527e-06 -0.00100255)
(5.23543e-07 2.865e-06 -0.00100278)
(6.07122e-07 3.13699e-06 -0.00100304)
(7.03901e-07 3.43297e-06 -0.00100331)
(8.15947e-07 3.75477e-06 -0.0010036)
(9.45646e-07 4.10432e-06 -0.00100392)
(1.09575e-06 4.48363e-06 -0.00100426)
(1.26945e-06 4.89479e-06 -0.00100462)
(1.47041e-06 5.33996e-06 -0.00100501)
(1.70287e-06 5.82137e-06 -0.00100543)
(1.97173e-06 6.34128e-06 -0.00100588)
(2.28261e-06 6.90198e-06 -0.00100635)
(2.64204e-06 7.50577e-06 -0.00100686)
(3.0575e-06 8.15488e-06 -0.00100739)
(3.53765e-06 8.8515e-06 -0.00100795)
(4.09245e-06 9.5977e-06 -0.00100855)
(4.73337e-06 1.03953e-05 -0.00100917)
(5.47362e-06 1.12461e-05 -0.00100982)
(6.32841e-06 1.21513e-05 -0.00101049)
(7.31518e-06 1.31121e-05 -0.00101119)
(8.45403e-06 1.41288e-05 -0.0010119)
(9.76797e-06 1.52016e-05 -0.00101264)
(1.12834e-05 1.633e-05 -0.00101338)
(1.30307e-05 1.75125e-05 -0.00101413)
(1.5045e-05 1.87461e-05 -0.00101485)
(1.7368e-05 2.00237e-05 -0.00101552)
(2.00483e-05 2.13351e-05 -0.0010161)
(2.31419e-05 2.26665e-05 -0.00101657)
(2.67139e-05 2.4e-05 -0.00101688)
(3.08384e-05 2.53116e-05 -0.00101697)
(3.55977e-05 2.65681e-05 -0.00101673)
(4.10678e-05 2.77174e-05 -0.00101599)
(4.72639e-05 2.8657e-05 -0.00101506)
(5.398e-05 2.91604e-05 -0.00101561)
(6.0294e-05 2.87615e-05 -0.00101803)
(6.42672e-05 2.66914e-05 -0.00100477)
(6.14583e-05 2.20893e-05 -0.000937783)
(4.56938e-05 1.54608e-05 -0.00078753)
(3.15365e-06 -1.84203e-06 -0.0032266)
(1.11401e-06 2.16807e-06 8.23281e-05)
(-0.000224226 0.000325742 -0.00394914)
(-0.000104359 0.000127525 -0.00270137)
(-5.56728e-05 -3.13818e-05 -0.00114735)
(-0.000285279 4.51839e-05 -0.00515297)
(-7.67949e-05 -1.93332e-05 -0.000507063)
(-0.000875301 -0.000410283 -0.00515865)
(-1.87448e-05 -1.07853e-05 -1.76749e-06)
(0.000616696 -0.000860153 -0.00470988)
(2.90398e-05 -7.19515e-05 -0.0001599)
(0.000410722 -0.000472085 -0.00422416)
(0.00010068 -0.000289196 -0.00148986)
(0.000261586 -0.000673619 -0.00479337)
(-3.62256e-06 -8.22375e-05 -0.000636578)
(1.93818e-05 -0.000356153 -0.00292822)
(0.000295015 -0.000636811 -0.00216432)
(-4.20879e-06 3.55671e-05 -0.000111258)
(3.35834e-05 -0.000192679 -0.00355077)
(-2.87023e-05 -6.2787e-06 -0.000646016)
(-0.000156012 5.35132e-05 -0.00246687)
(-8.45197e-05 0.000105764 -0.0012333)
(-0.000144496 4.24627e-05 -0.00123696)
(-8.69914e-05 5.95727e-05 -0.00102685)
(-3.24052e-05 9.09375e-05 -0.000937109)
(-5.24588e-05 0.000123847 -0.000873283)
(-5.96405e-05 0.000134457 -0.000845054)
(-5.59366e-05 0.000129 -0.000858939)
(-4.88132e-05 0.00011682 -0.000880767)
(-4.16178e-05 0.000103257 -0.000898296)
(-3.51909e-05 9.04631e-05 -0.00091228)
(-2.96361e-05 7.90418e-05 -0.000924223)
(-2.48921e-05 6.90274e-05 -0.00093461)
(-2.08613e-05 6.02916e-05 -0.000943596)
(-1.74437e-05 5.26794e-05 -0.000951344)
(-1.45493e-05 4.60462e-05 -0.000958023)
(-1.21006e-05 4.02643e-05 -0.000963783)
(-1.00316e-05 3.52226e-05 -0.000968751)
(-8.28563e-06 3.08246e-05 -0.000973037)
(-6.81461e-06 2.69866e-05 -0.000976735)
(-5.5773e-06 2.3636e-05 -0.000979925)
(-4.53853e-06 2.07099e-05 -0.000982678)
(-3.66826e-06 1.81535e-05 -0.000985054)
(-2.94089e-06 1.59191e-05 -0.000987104)
(-2.33456e-06 1.39656e-05 -0.000988873)
(-1.83065e-06 1.22568e-05 -0.0009904)
(-1.4133e-06 1.07617e-05 -0.000991718)
(-1.06898e-06 9.45297e-06 -0.000992856)
(-7.86197e-07 8.30693e-06 -0.000993837)
(-5.55143e-07 7.30297e-06 -0.000994685)
(-3.67503e-07 6.42313e-06 -0.000995416)
(-2.16216e-07 5.65176e-06 -0.000996046)
(-9.53011e-08 4.97522e-06 -0.000996591)
(2.98472e-10 4.38161e-06 -0.000997061)
(7.48483e-08 3.86058e-06 -0.000997467)
(1.3191e-07 3.4031e-06 -0.000997818)
(1.74533e-07 3.00126e-06 -0.000998121)
(2.05349e-07 2.64814e-06 -0.000998381)
(2.2661e-07 2.33767e-06 -0.000998605)
(2.40228e-07 2.06453e-06 -0.000998797)
(2.47864e-07 1.82405e-06 -0.000998962)
(2.50757e-07 1.61223e-06 -0.000999104)
(2.49835e-07 1.42564e-06 -0.000999228)
(2.45974e-07 1.26121e-06 -0.000999336)
(2.39876e-07 1.11624e-06 -0.000999428)
(2.32077e-07 9.88384e-07 -0.000999508)
(2.23015e-07 8.75585e-07 -0.000999577)
(2.13064e-07 7.76029e-07 -0.000999637)
(2.0254e-07 6.88127e-07 -0.000999688)
(1.917e-07 6.1048e-07 -0.000999732)
(1.80752e-07 5.41865e-07 -0.00099977)
(1.69862e-07 4.81206e-07 -0.000999803)
(1.59159e-07 4.27558e-07 -0.000999831)
(1.48744e-07 3.80093e-07 -0.000999855)
(1.38691e-07 3.38082e-07 -0.000999876)
(1.29056e-07 3.00886e-07 -0.000999894)
(1.19877e-07 2.6794e-07 -0.00099991)
(1.11179e-07 2.3875e-07 -0.000999923)
(1.02976e-07 2.12881e-07 -0.000999934)
(9.52729e-08 1.89949e-07 -0.000999944)
(8.8069e-08 1.69616e-07 -0.000999953)
(8.13572e-08 1.51587e-07 -0.00099996)
(7.51268e-08 1.35598e-07 -0.000999966)
(6.9364e-08 1.21421e-07 -0.000999972)
(6.40526e-08 1.08853e-07 -0.000999976)
(5.91754e-08 9.77149e-08 -0.00099998)
(5.47136e-08 8.78514e-08 -0.000999983)
(5.06485e-08 7.9125e-08 -0.000999986)
(4.6961e-08 7.14155e-08 -0.000999989)
(4.36323e-08 6.46174e-08 -0.000999991)
(4.06441e-08 5.8639e-08 -0.000999992)
(3.7979e-08 5.34001e-08 -0.000999994)
(3.56205e-08 4.88312e-08 -0.000999995)
(3.35529e-08 4.48723e-08 -0.000999996)
(3.17615e-08 4.14722e-08 -0.000999996)
(3.02326e-08 3.85866e-08 -0.000999997)
(2.89535e-08 3.61773e-08 -0.000999997)
(2.79342e-08 3.42029e-08 -0.000999997)
(2.71301e-08 3.27537e-08 -0.000999998)
(2.68101e-08 3.18071e-08 -0.000999998)
)
;
    }
    procBoundary3to2
    {
        type            processor;
        value           nonuniform List<vector> 
180
(
(-6.72246e-10 1.24431e-08 -0.000999915)
(-8.17764e-10 1.69446e-08 -0.000999913)
(-1.08741e-09 2.4242e-08 -0.000999911)
(-1.45409e-09 3.30142e-08 -0.000999908)
(-1.8949e-09 4.26068e-08 -0.000999904)
(-2.39752e-09 5.28105e-08 -0.000999899)
(-2.96305e-09 6.36275e-08 -0.000999892)
(-3.59955e-09 7.51415e-08 -0.000999884)
(-4.31909e-09 8.74677e-08 -0.000999876)
(-5.1361e-09 1.00736e-07 -0.000999865)
(-6.06692e-09 1.1509e-07 -0.000999853)
(-7.12991e-09 1.30681e-07 -0.00099984)
(-8.34575e-09 1.47679e-07 -0.000999824)
(-9.73786e-09 1.66265e-07 -0.000999807)
(-1.13329e-08 1.8664e-07 -0.000999787)
(-1.31611e-08 2.09023e-07 -0.000999765)
(-1.52574e-08 2.33656e-07 -0.000999741)
(-1.76617e-08 2.60805e-07 -0.000999713)
(-2.04198e-08 2.90764e-07 -0.000999682)
(-2.35846e-08 3.2386e-07 -0.000999648)
(-2.72172e-08 3.60454e-07 -0.000999609)
(-3.13879e-08 4.00947e-07 -0.000999566)
(-3.6178e-08 4.45784e-07 -0.000999518)
(-4.16813e-08 4.95459e-07 -0.000999465)
(-4.80063e-08 5.50523e-07 -0.000999406)
(-5.5278e-08 6.11588e-07 -0.000999339)
(-6.36409e-08 6.79335e-07 -0.000999266)
(-7.32616e-08 7.54523e-07 -0.000999183)
(-8.43322e-08 8.37998e-07 -0.000999092)
(-9.70743e-08 9.30702e-07 -0.00099899)
(-1.11743e-07 1.03369e-06 -0.000998876)
(-1.28634e-07 1.14812e-06 -0.000998749)
(-1.48085e-07 1.27532e-06 -0.000998608)
(-1.70487e-07 1.41674e-06 -0.00099845)
(-1.96291e-07 1.57401e-06 -0.000998275)
(-2.26015e-07 1.74896e-06 -0.000998079)
(-2.60257e-07 1.94361e-06 -0.000997861)
(-2.99705e-07 2.16026e-06 -0.000997617)
(-3.45152e-07 2.40144e-06 -0.000997345)
(-3.97511e-07 2.67001e-06 -0.000997041)
(-4.57836e-07 2.96916e-06 -0.000996702)
(-5.27339e-07 3.30247e-06 -0.000996323)
(-6.07419e-07 3.67394e-06 -0.000995899)
(-6.99684e-07 4.08807e-06 -0.000995425)
(-8.05992e-07 4.54991e-06 -0.000994894)
(-9.2848e-07 5.06511e-06 -0.0009943)
(-1.06961e-06 5.64004e-06 -0.000993635)
(-1.23222e-06 6.28183e-06 -0.000992891)
(-1.41958e-06 6.99852e-06 -0.000992056)
(-1.63544e-06 7.79915e-06 -0.00099112)
(-1.88414e-06 8.69386e-06 -0.00099007)
(-2.17067e-06 9.69412e-06 -0.000988891)
(-2.50077e-06 1.08128e-05 -0.000987567)
(-2.88105e-06 1.20645e-05 -0.000986081)
(-3.31911e-06 1.34655e-05 -0.000984409)
(-3.82369e-06 1.50343e-05 -0.00098253)
(-4.40487e-06 1.67919e-05 -0.000980416)
(-5.07423e-06 1.87618e-05 -0.000978036)
(-5.84506e-06 2.09706e-05 -0.000975355)
(-6.73268e-06 2.34485e-05 -0.000972335)
(-7.75465e-06 2.62296e-05 -0.000968929)
(-8.93114e-06 2.93526e-05 -0.000965088)
(-1.02853e-05 3.2861e-05 -0.000960752)
(-1.18437e-05 3.68046e-05 -0.000955855)
(-1.36367e-05 4.12395e-05 -0.000950323)
(-1.56992e-05 4.62294e-05 -0.000944068)
(-1.80717e-05 5.18468e-05 -0.000936992)
(-2.08016e-05 5.81738e-05 -0.000928984)
(-2.39444e-05 6.53037e-05 -0.000919914)
(-2.75638e-05 7.33428e-05 -0.000909636)
(-3.17336e-05 8.2411e-05 -0.000897984)
(-3.65371e-05 9.26417e-05 -0.000884761)
(-4.20635e-05 0.000104172 -0.000869706)
(-4.83871e-05 0.000117096 -0.000852511)
(-5.54979e-05 0.000131309 -0.00083318)
(-6.31092e-05 0.000146071 -0.000812735)
(-7.01845e-05 0.000159033 -0.000791577)
(-7.39931e-05 0.00016458 -0.000758165)
(-6.90956e-05 0.000152085 -0.000686817)
(-4.9056e-05 0.000109446 -0.000528607)
(-2.0218e-05 2.38901e-05 -0.00213505)
(1.63518e-05 1.01785e-05 0.000118089)
(3.3943e-05 8.29048e-05 -0.00324714)
(2.95455e-05 1.76653e-05 -0.000250384)
(-0.000128772 -8.72466e-05 -0.00401455)
(5.53908e-05 -1.487e-05 -0.000296662)
(-0.000121414 -0.000246608 -0.00337781)
(-0.000231721 -0.000197532 -0.00132176)
(-0.00043841 0.000182079 -0.00279584)
(5.20448e-06 4.49916e-05 -0.000113234)
(-0.00010431 2.83442e-05 -0.00519514)
(-1.33923e-05 -2.89319e-05 -0.000924314)
(6.34744e-05 -0.000251233 -0.00226183)
(-0.000303219 -0.000222619 -0.00291136)
(-8.81075e-05 -2.11763e-05 4.22082e-06)
(-0.000188177 -0.000278367 -0.00329774)
(-7.42816e-05 -4.4851e-05 -0.000636725)
(-9.9142e-05 -0.000114954 -0.00183214)
(-0.000289199 -1.41023e-05 -0.00234136)
(6.09499e-05 -9.53483e-07 -0.000430463)
(5.0018e-05 -0.000107346 -0.00263569)
(8.59638e-05 -2.30575e-05 -0.000923658)
(9.80518e-05 -0.000223876 -0.00112271)
(0.000159279 -0.000245276 -0.000833583)
(0.000158604 -0.000107927 -0.000741549)
(0.000171483 -9.61454e-05 -0.000798642)
(0.000164042 -8.47725e-05 -0.000803722)
(0.000148325 -7.28106e-05 -0.000825533)