/*--------------------------------*- C++ -*----------------------------------*\
| =========                 |                                                 |
| \\      /  F ield         | OpenFOAM: The Open Source CFD Toolbox           |
|  \\    /   O peration     | Version:  5.x                                   |
|   \\  /    A nd           | Web:      www.OpenFOAM.org                      |
|    \\/     M anipulation  |                                                 |
\*---------------------------------------------------------------------------*/
FoamFile
{
    version     2.0;
    format      ascii;
    class       surfaceScalarField;
    location    "4000";
    object      phi;
}
// * * * * * * * * * * * * * * * * * * * * * * * * * * * * * * * * * * * * * //

dimensions      [0 3 -1 0 0 0 0];

internalField   nonuniform List<scalar> 
179
(
3.19217e+06
3.19146e+06
3.19098e+06
3.18987e+06
3.19211e+06
3.18899e+06
3.17399e+06
3.16623e+06
3.15796e+06
3.14851e+06
3.14284e+06
3.14207e+06
3.13901e+06
3.1348e+06
3.13181e+06
3.13177e+06
3.13118e+06
3.12601e+06
3.10824e+06
3.09193e+06
3.08851e+06
3.0924e+06
3.08975e+06
3.09321e+06
3.1068e+06
3.12491e+06
3.1426e+06
3.16572e+06
3.19227e+06
3.21934e+06
3.24727e+06
3.26428e+06
3.28334e+06
3.29906e+06
3.31537e+06
3.33405e+06
3.35195e+06
3.3675e+06
3.38131e+06
3.38726e+06
3.38371e+06
3.37862e+06
3.37064e+06
3.35186e+06
3.3242e+06
3.29834e+06
3.26409e+06
3.23012e+06
3.1786e+06
3.11742e+06
3.06184e+06
3.0153e+06
2.9787e+06
2.94879e+06
2.924e+06
2.90564e+06
2.90053e+06
2.89675e+06
2.89401e+06
2.89032e+06
2.88217e+06
2.88273e+06
2.88154e+06
2.87783e+06
2.86342e+06
2.85091e+06
2.84195e+06
2.83548e+06
2.84149e+06
2.85979e+06
2.88734e+06
2.9009e+06
2.91551e+06
2.92568e+06
2.92696e+06
2.93191e+06
2.93437e+06
2.9394e+06
2.94609e+06
2.95508e+06
2.97089e+06
2.98889e+06
3.00717e+06
3.02956e+06
3.06337e+06
3.11186e+06
3.17045e+06
3.23737e+06
3.31326e+06
3.4161e+06
3.52758e+06
3.66095e+06
3.80807e+06
3.94804e+06
4.1367e+06
4.3183e+06
4.53688e+06
4.7957e+06
5.08475e+06
5.38574e+06
5.71398e+06
6.07378e+06
6.44782e+06
6.8327e+06
7.2172e+06
7.69029e+06
8.22744e+06
8.83729e+06
9.46578e+06
1.02755e+07
1.09198e+07
1.14917e+07
1.19505e+07
1.23014e+07
1.2549e+07
1.27758e+07
1.29234e+07
1.30539e+07
1.3175e+07
1.32293e+07
1.33742e+07
1.35208e+07
1.36283e+07
1.37956e+07
1.38599e+07
1.39516e+07
1.39951e+07
1.40913e+07
1.40089e+07
1.3809e+07
1.3155e+07
1.18866e+07
1.01022e+07
7.90878e+06
5.58358e+06
2.86173e+06
-1.16605e+06
-4.42023e+06
-6.34178e+06
-7.70205e+06
-7.69219e+06
-7.80552e+06
-7.9941e+06
-8.49851e+06
-8.7993e+06
-8.83133e+06
-8.72931e+06
-8.60544e+06
-8.38353e+06
-8.08754e+06
-7.73934e+06
-7.38018e+06
-6.98973e+06
-6.54511e+06
-6.12592e+06
-5.65958e+06
-5.22879e+06
-4.78228e+06
-4.35771e+06
-3.93968e+06
-3.53594e+06
-3.14413e+06
-2.76287e+06
-2.38789e+06
-2.00753e+06
-1.61307e+06
-1.25309e+06
-931579
-630003
-323721
-32289.9
219630
434743
622318
778590
923503
1.04776e+06
1.14589e+06
1.22287e+06
)
;

boundaryField
{
    inlet
    {
        type            calculated;
        value           uniform 1.29085e+06;
    }
    outlet
    {
        type            calculated;
        value           uniform -3.19233e+06;
    }
    repeat_boundary
    {
        type            calculated;
        value           uniform 0;
    }
    procBoundary3to1
    {
        type            processor;
        value           nonuniform List<scalar> 
180
(
-122.158
-302.136
-471.992
-736.617
-2779.3
-588.472
4644.49
1414.61
748.755
1102.15
-1974.55
-4647.61
-3959.15
-3300.46
-4461.13
-7008.82
-5902.74
-2457.06
2996.05
1514.05
-4002
-6160.57
-4619.66
-6577.14
-10398.5
-12629.4
-13191.3
-13431.9
-15883.2
-18849.7
-20814.6
-15649.1
-16901.6
-12985.3
-13785.5
-16153.6
-16813.7
-15816.6
-14571.9
-11506.3
-5488.75
-4841.5
-4632.11
231.242
3782.39
7961.97
11300
13065
15881.4
18940
19549.7
17267.6
14400.5
12370
10209.6
7729.13
7606.16
7242.47
5267.67
3830.49
3266.82
2595.86
1732.21
865.531
542.266
-1364.15
-2980.55
-1375.92
-1175.79
-3862.09
-4488.49
-6729.87
-10699.1
-3173.98
7915.25
4914.09
8618.44
11285.9
10558.8
13094.7
14450.4
13972.1
13434.5
13989.8
3075.92
-2902.52
-11381.7
-13590.9
-18460.4
-27475.8
-38510.3
-43453.4
-44341.7
-43580.2
-52477.5
-54667.9
-66731.9
-74167.3
-84043.6
-98166.8
-105551
-141226
-148687
-165619
-204488
-297940
-376913
-458288
-509646
-727337
-613516
-628712
-686567
-751678
-815846
-876239
-913711
-1.06066e+06
-1.23806e+06
-1.32772e+06
-1.53704e+06
-1.75713e+06
-1.96675e+06
-2.17316e+06
-2.33217e+06
-2.34789e+06
-2.46335e+06
-2.326e+06
-2.0615e+06
-1.68191e+06
-1.04095e+06
-125054
740621
1.30818e+06
1.69219e+06
1.98219e+06
2.87712e+06
2.25571e+06
1.34429e+06
1.18889e+06
1.26661e+06
2.33194e+06
2.61931e+06
2.93264e+06
2.44317e+06
2.01205e+06
1.66563e+06
1.45891e+06
1.16121e+06
941242
748659
655245
544480
434465
402370
303887
287507
221918
195024
154498
123581
92337.7
61828.6
29053.5
-13486.7
-63083.1
-62736.6
-57805.2
-71263.3
-113735
-130458
-101696
-73634.7
-65948.2
-46723.1
-73713
-64788.5
-67979.8
-69585.5
-93119.2
)
;
    }
    procBoundary3to2
    {
        type            processor;
        value           nonuniform List<scalar> 
180
(
286.569
1013.56
955.853
1848.27
533.326
3713.9
10357.9
6340
7526.23
8343.81
7648.37
5420.17
7017.81
7511.38
7452.72
7042.12
6495.8
7627.1
14769.4
14803
7422.15
2261.42
7276.85
3112.8
-3190.27
-5484.18
-4499.14
-9682.24
-10664.7
-8225.79
-7119.01
-1360.67
-2159.73
-2735.61
-2521.3
-2528.82
-1083.75
268.322
754.133
5562.33
9038.62
9932.1
12605
18556
23879.2
17890.7
22948.2
20905.3
35646.7
42235.8
36035
29267.9
22208.9
17537.2
14583.8
10627.8
-2491
-3463.54
-2527.62
-142.991
4888.13
-3159.29
-541.901
2842.2
13875.6
13875.2
11936.7
7847.77
-4844.64
-14435.5
-23061.2
-6835.11
-3907.31
-6999.86
-9193.82
-9861.59
-11082.9
-16311
-17255.3
-22080.3
-30263.2
-31968.9
-31715.5
-36387.1
-36878.9
-45593.7
-47204.7
-53326
-57434
-75362.7
-72971.6
-89917.7
-102770
-96389.3
-136185
-126933
-151849
-184654
-205003
-202818
-222695
-218572
-225351
-219258
-180012
-175156
-160237
-151566
-118837
-82372.9
-30851.8
56810.2
227781
400780
568291
649411
766092
930237
1.11691e+06
1.27347e+06
1.39208e+06
1.61051e+06
1.85926e+06
2.00588e+06
2.26786e+06
2.25623e+06
2.41981e+06
2.22986e+06
2.14382e+06
1.88184e+06
1.69493e+06
1.39348e+06
1.04373e+06
885274
633007
739655
1.15068e+06
998481
577266
171348
-1.27647e+06
-2.21861e+06
-2.43072e+06
-2.42823e+06
-2.14237e+06
-1.98002e+06
-1.76766e+06
-1.58279e+06
-1.38312e+06
-1.23724e+06
-1.09686e+06
-1.01441e+06
-934926
-879076
-821556
-770225
-718297
-668424
-619590
-572531
-527320
-484153
-443087
-404039
-366873
-331378
-297248
-263698
-230306
-192536
-160958
-150215
-141473
-121624
-109550
-71205.2
-59468.8
-30164.6
-7400.46
25127.8
)
;
    }
}


// ************************************************************************* //
