/*--------------------------------*- C++ -*----------------------------------*\
| =========                 |                                                 |
| \\      /  F ield         | OpenFOAM: The Open Source CFD Toolbox           |
|  \\    /   O peration     | Version:  5.x                                   |
|   \\  /    A nd           | Web:      www.OpenFOAM.org                      |
|    \\/     M anipulation  |                                                 |
\*---------------------------------------------------------------------------*/
FoamFile
{
    version     2.0;
    format      ascii;
    class       volVectorField;
    location    "4000";
    object      U;
}
// * * * * * * * * * * * * * * * * * * * * * * * * * * * * * * * * * * * * * //

dimensions      [0 1 -1 0 0 0 0];

internalField   nonuniform List<vector> 
180
(
(-0.00528369 0.00524861 12.2763)
(-0.0227386 0.00862355 13.0576)
(-0.023135 0.0286891 13.0958)
(0.016669 0.0719743 12.6487)
(0.121172 0.198934 12.7333)
(0.0418752 0.164734 12.8271)
(-0.280022 -0.0776491 12.6712)
(-0.263493 -0.0727494 12.7237)
(-0.19792 -0.00728126 12.5989)
(-0.267263 -0.0437163 12.667)
(-0.244667 0.0898446 12.5958)
(-0.0991125 0.217799 12.5031)
(-0.174206 0.140631 12.5766)
(-0.214998 0.10295 12.5761)
(-0.172969 0.299156 12.576)
(-0.120787 0.502265 12.4466)
(-0.121106 0.281044 12.5995)
(-0.251239 0.119359 12.4384)
(-0.514832 -0.0568353 12.5696)
(-0.496086 0.00247467 12.4142)
(-0.0851068 0.212384 12.3312)
(0.2069 0.409491 12.1643)
(-0.083527 0.318522 12.4279)
(0.0158424 0.348345 12.5356)
(0.55889 0.573517 12.2506)
(0.665036 0.683015 12.4418)
(0.306335 0.651367 12.6621)
(0.48983 0.649017 12.5728)
(0.733969 0.709749 12.6364)
(0.640542 0.841356 12.9486)
(0.669811 0.894225 12.9524)
(0.278206 0.654154 12.8703)
(0.22811 0.714242 13.1047)
(0.142335 0.74025 13.2351)
(0.199549 0.901378 13.2502)
(0.299117 0.977603 13.2735)
(0.233404 0.879989 13.3927)
(0.164596 0.820894 13.4265)
(0.0907712 0.786905 13.5249)
(-0.011913 0.752217 13.4985)
(-0.0730169 0.724156 13.5755)
(-0.146441 0.678182 13.5422)
(-0.325657 0.537117 13.4729)
(-0.548526 0.350864 13.486)
(-0.747271 0.13624 13.4844)
(-0.512988 -0.0747082 13.0261)
(-0.529268 -0.191022 13.2241)
(-0.450421 -0.293357 12.9292)
(-0.910103 -0.484535 13.0091)
(-1.07731 -0.574352 12.5188)
(-1.0574 -0.692661 12.2896)
(-0.629365 -0.68789 12.1276)
(-0.154033 -0.577325 11.9902)
(0.0674134 -0.494423 11.8804)
(0.109021 -0.40475 11.7402)
(0.17904 -0.295257 11.5711)
(0.52825 -0.314399 11.6861)
(0.393867 -0.304104 11.6181)
(0.0656628 -0.201722 11.5163)
(0.148707 -0.142007 11.6262)
(0.192211 -0.122868 11.5311)
(0.108077 -0.0953287 11.5322)
(-0.0980359 -0.0634673 11.53)
(-0.336473 -0.034408 11.4937)
(-0.500006 -0.0372432 11.5221)
(-0.141029 0.0698638 11.45)
(-0.226687 0.0989502 11.2237)
(-0.742568 -0.0322547 11.4074)
(-0.319483 0.0133203 11.4427)
(0.929078 0.316087 11.3581)
(1.515 0.455464 11.518)
(0.497898 0.228442 11.5395)
(0.362412 0.303541 11.6222)
(0.499862 0.192 11.6895)
(0.65052 -0.139229 11.7142)
(0.681916 -0.344459 11.6423)
(0.650743 -0.184174 11.9556)
(0.857245 -0.235335 11.6206)
(0.832945 -0.199389 11.8173)
(1.06325 -0.484372 11.609)
(1.51646 -0.528727 11.9341)
(1.57787 -0.540518 12.0009)
(1.34482 -0.530463 11.9643)
(1.46234 -0.574298 12.2071)
(1.28976 0.178375 11.9294)
(1.67833 0.28702 12.4176)
(1.427 0.875003 12.6025)
(1.68538 1.09572 12.8236)
(1.90888 1.61376 13.0001)
(2.30372 2.15823 13.532)
(2.56161 2.26661 13.869)
(2.62034 2.35204 14.2381)
(3.22632 2.33383 15.0896)
(2.97247 2.29266 15.3595)
(3.82876 2.29824 16.4259)
(3.31617 2.06484 16.5464)
(4.30576 2.15404 17.8391)
(4.24399 1.91647 18.6484)
(4.84974 1.74356 19.7952)
(5.05937 2.1638 20.6112)
(6.40487 2.60008 22.4832)
(7.0488 2.77927 23.5335)
(7.71756 3.03732 25.0579)
(6.62755 3.75388 26.4627)
(5.35738 5.96436 28.1272)
(4.28449 8.81333 29.5462)
(4.40342 10.9936 31.7698)
(4.91526 13.2209 34.4298)
(3.2599 14.6387 36.4697)
(2.4674 16.308 39.9881)
(0.895625 17.4456 41.3639)
(-4.87728 20.3791 46.0935)
(-14.3232 22.5232 45.9751)
(-24.058 24.4363 49.4978)
(-30.6366 27.0338 49.077)
(-35.423 30.6751 51.1432)
(-39.3836 32.2879 52.1286)
(-49.898 40.6629 51.1402)
(-60.0787 49.4994 52.3481)
(-66.6201 50.8908 54.2967)
(-72.0141 57.4839 52.7258)
(-81.6919 66.0135 53.9122)
(-90.1401 71.7378 54.4222)
(-94.5665 76.2135 55.7634)
(-105.898 82.0537 53.6223)
(-97.9202 83.8095 56.5586)
(-101.046 87.7762 55.9713)
(-86.2146 88.5997 54.4396)
(-76.9704 86.8392 57.3607)
(-59.3998 86.4115 52.6088)
(-42.011 85.9452 50.2886)
(-19.6041 71.9616 49.1016)
(1.27965 64.3812 47.8777)
(17.1116 34.2388 44.1519)
(33.6172 6.79564 24.3128)
(35.6961 -23.5877 20.7116)
(8.14819 -63.0613 6.9473)
(-7.71808 -28.7314 -7.25864)
(12.3946 19.9918 -50.2586)
(38.3738 22.8171 -52.8852)
(76.2928 16.9679 7.43289)
(96.8992 -74.9155 -27.5735)
(86.5459 -104.175 -28.2005)
(74.1 -140.545 -33.6037)
(54.6567 -123.266 -36.703)
(52.8442 -102.972 -36.3199)
(49.8097 -85.1554 -35.4759)
(48.7559 -72.8071 -34.4339)
(44.7392 -58.8127 -35.2221)
(42.6039 -47.8142 -32.2903)
(38.6993 -39.0433 -32.6806)
(37.311 -34.0666 -29.8189)
(34.7962 -28.6365 -29.2426)
(33.3441 -24.8376 -26.8376)
(31.3323 -21.768 -25.5195)
(29.607 -18.8587 -23.509)
(27.7335 -16.5094 -21.8072)
(25.9567 -14.3551 -20.0381)
(24.1941 -12.4454 -18.266)
(22.4936 -10.7964 -16.6133)
(20.8489 -9.24983 -14.9353)
(19.2663 -7.92776 -13.3648)
(17.7472 -6.66881 -11.803)
(16.2866 -5.54371 -10.2943)
(14.8775 -4.44237 -8.75987)
(13.5104 -3.38162 -7.20161)
(12.1696 -2.29098 -5.7027)
(10.8428 -1.15252 -4.38336)
(9.56466 0.0848756 -3.03067)
(8.27748 1.48104 -1.69618)
(7.28413 2.44685 -0.8606)
(6.66475 2.6013 0.237604)
(6.48223 1.9933 1.22527)
(5.7348 2.05049 1.79947)
(5.20436 1.44853 3.03041)
(3.7145 2.28959 3.27331)
(2.70037 2.3289 3.90992)
(0.848246 2.41849 4.47537)
(0.0231342 2.33173 4.70047)
(-1.65566 3.45659 5.04092)
)
;

boundaryField
{
    inlet
    {
        type            zeroGradient;
    }
    outlet
    {
        type            zeroGradient;
    }
    repeat_boundary
    {
        type            slip;
    }
    procBoundary3to1
    {
        type            processor;
        value           nonuniform List<vector> 
180
(
(-0.014207 0.00405188 11.8866)
(-0.0372799 0.00748922 12.8471)
(-0.0480746 0.0165369 12.4934)
(-0.0821877 0.0303025 12.3341)
(-0.116001 0.0468869 12.466)
(0.0144247 -0.116166 12.2389)
(0.164508 -0.299691 12.4167)
(-0.0528733 -0.0435845 12.3063)
(-0.0924923 -0.0440183 12.2459)
(-0.123978 -0.0424307 12.4374)
(-0.259245 0.0535114 12.3386)
(-0.39431 0.130827 12.2247)
(-0.336261 0.12521 12.1957)
(-0.35916 0.121782 12.2626)
(-0.306295 0.0555872 11.8139)
(-0.321148 0.100688 12.1148)
(-0.299244 0.218226 12.0247)
(-0.214851 0.149066 11.694)
(-0.110884 -0.0342781 11.9552)
(-0.0468932 -0.0566624 12.0885)
(-0.162487 0.143595 11.722)
(-0.152679 0.0972265 11.8751)
(-0.107318 0.0126604 11.9626)
(-0.127243 0.156849 11.5487)
(-0.102037 0.242511 11.7046)
(-0.19602 0.281863 11.7422)
(-0.20376 0.352299 11.5604)
(-0.152349 0.355741 11.4317)
(-0.23083 0.471029 11.4281)
(-0.235793 0.567655 11.233)
(-0.298361 0.66497 11.2854)
(-0.408632 0.508514 10.9095)
(-0.41585 0.478215 10.8918)
(-0.349254 0.251948 10.5169)
(-0.473482 0.201059 10.6679)
(-0.451096 0.333546 10.5886)
(-0.198122 0.477468 10.3794)
(0.0481141 0.452419 10.2152)
(-0.135154 0.406844 9.99861)
(-0.130035 0.257662 9.9766)
(0.171955 -0.217426 10.0404)
(0.0365707 -0.129231 9.80511)
(-0.0544193 -0.0311678 9.84538)
(-0.151858 -0.222299 9.95465)
(-0.282425 -0.261387 9.51251)
(-0.0170353 -0.440677 10.0331)
(0.464689 -0.503707 9.53948)
(0.836036 -0.548556 10.0309)
(0.70438 -0.593588 10.0446)
(0.208446 -0.801232 9.9633)
(0.24054 -0.751366 10.2317)
(0.495303 -0.606241 10.2524)
(0.644452 -0.516441 10.3832)
(0.696882 -0.453285 10.5277)
(0.700578 -0.383102 10.6244)
(0.661198 -0.309592 10.7361)
(0.590995 -0.279042 10.8174)
(0.570067 -0.258078 10.9037)
(0.481552 -0.201476 11.0054)
(0.354761 -0.146988 11.0616)
(0.289313 -0.11844 11.11)
(0.215772 -0.0927762 11.1523)
(0.104284 -0.0609554 11.1757)
(0.0245552 -0.0322836 11.187)
(-0.00744766 -0.0142705 11.1807)
(-0.0476259 0.0208067 11.2354)
(-0.0530197 0.0994326 11.1798)
(-0.0326425 0.0879653 11.043)
(-0.25628 0.0525075 11.234)
(-0.151378 -0.0210505 11.121)
(0.0746107 -0.0890372 10.8934)
(-0.351187 0.317776 11.1734)
(-0.303207 0.521129 11.1347)
(0.741069 0.0244672 10.8619)
(1.39738 -0.525646 10.9451)
(0.549382 -0.0705205 11.4612)
(1.15041 -0.505134 11.0115)
(1.45515 -0.639467 11.5036)
(1.44097 -0.639772 11.641)
(1.39415 -0.587108 11.6728)
(1.59092 -0.674894 12.0171)
(1.68046 -0.614817 12.1352)
(1.84854 -0.567559 12.3506)
(1.93466 -0.547961 12.5882)
(1.83638 -0.428039 12.7893)
(1.66274 -0.0864737 12.9985)
(1.87431 -0.00112512 13.2119)
(2.14465 -0.061599 13.3607)
(2.57124 -0.208535 13.5771)
(2.65397 -0.0603238 13.8611)
(2.4171 0.734429 13.6961)
(2.85923 0.976054 14.1474)
(3.26523 1.03378 14.3569)
(4.03747 1.05494 14.6455)
(4.25665 1.72598 14.6113)
(4.98004 2.19929 15.6823)
(5.58088 3.08072 15.9778)
(7.52977 3.99482 17.3695)
(7.36445 5.02394 17.6484)
(7.92459 5.86428 19.4968)
(8.78807 6.08881 20.9313)
(7.27016 8.66838 19.9858)
(8.46248 8.9674 20.5622)
(8.77686 9.34617 20.316)
(9.5721 9.87012 20.1208)
(5.65592 14.2439 17.5989)
(7.11938 16.7517 16.6873)
(3.33969 21.3482 15.6273)
(-0.0654399 21.3644 12.3225)
(-27.0207 31.1725 10.5808)
(-58.0784 24.8317 0.515038)
(-64.1521 25.6153 -6.34417)
(-77.813 29.0544 -14.6555)
(-88.9051 33.0203 -24.0993)
(-97.268 36.005 -35.5421)
(-102.183 37.9039 -47.463)
(-105.865 39.7675 -60.1296)
(-111.038 43.9028 -74.5618)
(-117.18 49.7934 -87.8264)
(-124.305 56.4836 -104.673)
(-130.063 66.9685 -120.008)
(-134.46 77.0354 -140.536)
(-134.362 88.8552 -157.351)
(-130.184 101.62 -180.107)
(-117.404 109.214 -199.789)
(-91.8593 112.154 -219.67)
(-62.1262 114.421 -240.969)
(-21.9772 106.088 -255.12)
(24.1013 85.1428 -271.819)
(66.883 58.4737 -279.793)
(100.908 9.58393 -286.626)
(115.525 -43.7587 -292.275)
(102.527 -99.3324 -281.933)
(89.2855 -113.078 -272.907)
(87.1879 -111.729 -268.827)
(87.6741 -113.186 -258.758)
(88.3391 -121.459 -247.505)
(76.5838 -128.376 -229.278)
(62.3388 -122.462 -210.493)
(63.738 -122.311 -201.942)
(60.8472 -121.436 -191.929)
(54.2693 -113.607 -171.287)
(51.4618 -108.66 -160.103)
(46.6186 -97.9626 -135.862)
(42.5491 -77.268 -125.027)
(42.2395 -63.6742 -106.175)
(41.2917 -54.2772 -95.8259)
(39.414 -50.163 -82.3735)
(37.5189 -40.3692 -72.4895)
(34.1436 -33.6243 -63.5278)
(32.0524 -26.9781 -55.4167)
(30.5314 -24.3861 -48.807)
(27.6718 -20.4532 -41.9357)
(27.5672 -16.7315 -36.3106)
(23.7289 -15.8003 -31.9902)
(24.4988 -12.1248 -25.794)
(20.9585 -11.922 -23.5596)
(21.2722 -9.18671 -17.4853)
(19.1682 -8.58321 -15.8167)
(18.7725 -6.92868 -10.9408)
(17.7423 -6.03284 -9.0462)
(17.2235 -4.97566 -5.47295)
(16.6515 -4.10262 -3.50837)
(16.3843 -3.2352 -0.858797)
(16.2343 -2.32205 1.065)
(16.0572 -1.47138 3.07284)
(14.8297 -1.3103 4.02197)
(13.5991 -1.22687 5.35306)
(12.827 -1.09138 6.26794)
(12.3883 -0.447026 8.07531)
(11.2876 -0.194453 8.34298)
(9.69905 -0.105906 8.82035)
(8.36889 -0.175895 9.42353)
(7.25611 -0.189322 10.0135)
(6.58268 -0.264147 10.3137)
(5.61547 0.489978 11.1782)
(4.68533 1.14079 11.4156)
(3.44569 1.22841 11.4349)
(1.38797 0.92101 11.022)
(0.217933 1.62185 11.5674)
)
;
    }
    procBoundary3to2
    {
        type            processor;
        value           nonuniform List<vector> 
180
(
(-0.00666678 -0.00338492 12.1511)
(-0.0251213 -0.00433424 13.2514)
(-0.0118929 -0.0191664 12.8063)
(-0.0426013 -0.00870263 12.7101)
(-0.0607611 -0.00726903 12.8546)
(-0.281547 0.181143 12.6453)
(-0.502764 0.368284 12.936)
(-0.198595 0.104987 12.6904)
(-0.263173 0.128009 12.8214)
(-0.311367 0.15185 13.0537)
(-0.297366 0.100509 12.9989)
(-0.286972 0.0293667 12.9368)
(-0.336767 0.052907 13.1068)
(-0.359615 0.0576611 13.1228)
(-0.377284 0.082197 12.9425)
(-0.367784 0.11867 13.0849)
(-0.338723 0.135964 13.4159)
(-0.285582 0.138682 12.9726)
(-0.489806 0.322114 13.253)
(-0.595669 0.435041 13.5744)
(-0.455844 0.358411 13.4295)
(-0.391588 0.330389 13.5465)
(-0.562762 0.465828 13.6669)
(-0.289959 0.251239 13.3568)
(-0.313184 0.29641 13.6093)
(-0.260541 0.298973 13.7088)
(0.00366928 0.0947612 13.6401)
(0.211937 -0.06168 13.4589)
(0.0315191 0.152981 13.6385)
(-0.04668 0.107239 13.2648)
(-0.134359 0.0415196 13.4619)
(-0.179817 -0.3495 13.2724)
(-0.0899309 -0.406964 13.3754)
(0.0467016 -0.315557 13.5498)
(-0.00189055 -0.228925 13.0102)
(-0.023168 -0.200855 13.1297)
(-0.0564883 -0.376449 13.303)
(-0.101841 -0.111835 13.2254)
(-0.0689568 0.317397 13.0732)
(-0.267504 0.418462 13.0308)
(-0.451283 0.475686 13.2648)
(-0.470203 0.432063 13.4562)
(-0.496251 0.442767 13.2435)
(-0.733446 0.593778 13.5792)
(-0.947476 0.754796 13.6802)
(-0.753476 0.693506 13.5138)
(-0.872554 0.826846 13.8647)
(-1.02624 0.877871 14.0632)
(-1.65358 1.00539 14.2891)
(-2.16204 1.08924 14.3099)
(-1.71658 1.06095 14.745)
(-1.6733 1.09588 14.8847)
(-1.63362 1.12098 15.0733)
(-1.53114 1.12766 15.2848)
(-1.38824 1.14745 15.3883)
(-1.19612 1.14653 15.9006)
(-0.469924 0.699192 15.0166)
(-0.193291 0.648334 15.6453)
(0.0721797 0.553025 15.9742)
(-0.262904 0.808052 15.7048)
(-0.752466 1.22191 15.6947)
(-0.0784698 0.772498 16.2333)
(-0.0427506 0.410571 15.3934)
(-0.0112668 0.171197 16.0004)
(-0.614463 0.789825 15.4929)
(-0.907938 1.08428 16.2766)
(-0.705686 0.751173 16.1426)
(0.0563189 -0.114476 16.2306)
(0.611301 -0.675525 16.1411)
(0.104292 0.116411 15.7995)
(0.183284 0.225908 16.1437)
(-0.069473 0.294691 15.7073)
(-0.210842 0.193601 15.9024)
(0.00505891 -0.0817128 15.4148)
(0.037729 -0.10329 15.8416)
(0.0764956 -0.0464417 15.8265)
(0.16733 0.0133394 15.6488)
(0.33497 -0.0724781 15.6442)
(0.413655 -0.233377 15.2635)
(0.460542 -0.289751 15.4022)
(0.55508 -0.350632 15.1395)
(0.66968 -0.402211 14.9859)
(0.851129 -0.453541 14.803)
(1.06982 -0.515575 14.6121)
(1.2876 -0.583223 14.5908)
(1.34539 -0.300323 13.8127)
(1.73382 -0.299548 13.897)
(2.00126 -0.347261 14.0435)
(2.24401 -0.0953486 13.1236)
(2.76528 0.00133791 13.1967)
(2.72533 0.440228 12.78)
(3.59232 0.539913 12.4361)
(4.01195 0.607858 12.4101)
(4.14496 1.1232 11.7569)
(5.40151 1.28969 11.6326)
(5.97962 1.37137 11.4509)
(6.53401 2.19392 11.1538)
(8.90937 2.98392 10.769)
(10.2733 3.46269 10.613)
(9.98827 4.49839 10.6333)
(9.36987 5.64957 10.9969)
(8.77717 6.70009 10.8521)
(8.54036 7.03356 11.4175)
(8.16548 8.83752 11.2238)
(7.57964 8.69402 11.9951)
(6.86607 9.51411 12.7758)
(6.03679 10.8545 13.3604)
(5.28976 11.6674 14.227)
(3.76367 13.5117 15.6341)
(2.02499 14.1351 17.183)
(-0.559343 15.8349 19.0077)
(-2.15122 16.7776 21.6237)
(-6.48301 17.3595 24.2486)
(-10.8358 16.5884 29.6569)
(-17.9018 17.4601 33.0243)
(-19.3894 16.5494 40.0012)
(-25.0984 17.4296 44.659)
(-27.2884 20.2109 51.7788)
(-32.452 22.559 58.1718)
(-39.0825 23.7622 66.5131)
(-42.1517 29.4542 75.507)
(-50.4264 28.245 82.9724)
(-62.0573 37.0503 94.8756)
(-69.5544 40.1993 105.72)
(-79.5108 46.9891 118.795)
(-88.9224 47.2013 131.469)
(-96.1424 50.5111 144.998)
(-98.005 50.2568 158.914)
(-99.5492 56.0515 170.849)
(-98.4819 56.5104 185.533)
(-101.919 67.6968 192.722)
(-101.727 72.8038 210.246)
(-95.6192 68.2782 212.8)
(-96.1717 93.514 229.841)
(-91.6103 96.1359 235.572)
(-94.3824 105.593 243.14)
(-79.4641 137.362 261.53)
(-53.0203 169.579 285.589)
(-42.8612 173.315 284.753)
(-20.2435 183.621 295.446)
(38.5347 133.161 304.624)
(89.0764 52.3062 294.329)
(119.143 -32.3728 280.768)
(128.906 -97.5075 259.953)
(125.163 -140.329 238.342)
(113.568 -162.348 215.847)
(99.1179 -167.422 194.002)
(84.7276 -160.628 173.22)
(72.053 -146.966 154.575)
(61.7871 -130.351 138.156)
(53.9224 -113.489 123.919)
(48.1157 -97.8903 111.638)
(43.7805 -84.1573 100.931)
(40.3376 -72.3997 91.5079)
(37.3917 -62.4584 83.1577)
(34.7107 -54.0803 75.7195)
(32.1804 -46.9993 69.066)
(29.7562 -40.9781 63.1006)
(27.4324 -35.8211 57.734)
(25.2171 -31.3731 52.8853)
(23.1188 -27.5119 48.4991)
(21.1461 -24.1431 44.5276)
(19.3008 -21.1941 40.9354)
(17.5824 -18.6064 37.6894)
(15.9894 -16.3335 34.7625)
(14.517 -14.3326 32.1307)
(13.1609 -12.5739 29.7744)
(11.9104 -11.0193 27.6748)
(10.7623 -9.66104 25.8186)
(9.69533 -8.44755 24.1993)
(8.7148 -7.40696 22.8042)
(7.77356 -6.43276 21.5932)
(6.91958 -5.6546 20.4724)
(6.0952 -4.89675 19.5594)
(5.25087 -4.17625 18.6072)
(4.48985 -3.8516 17.8082)
(3.84163 -3.15287 17.3273)
(3.19892 -2.52689 17.2463)
(2.50153 -2.24389 16.5556)
(1.60006 -1.68598 16.5426)
)
;
    }
}


// ************************************************************************* //
