FoamFile
{version 2.0; format ascii;class Cloud<passiveParticle>; location 0;object  positions;}
350
(
( -3.38126 1.96381 0.499818 ) 0 
( -2.40599 2.2424 0.499619 ) 0 
( -4.23633 3.81055 0.499974 ) 0 
( -2.25727 4.04582 0.499741 ) 0 
( -2.75331 4.92879 0.499613 ) 0 
( -1.45321 1.4958 0.499571 ) 0 
( -0.599425 2.12631 0.499905 ) 0 
( -0.869593 4.25679 0.499625 ) 0 
( -4.46756 1.09242 0.499975 ) 0 
( -0.311792 3.39037 0.499742 ) 0 
( -2.71287 0.280718 0.4996 ) 0 
( -1.3112 3.3599 0.499724 ) 0 
( -0.504188 1.13005 0.499663 ) 0 
( -4.35582 2.20543 0.499706 ) 0 
( -4.7057 0.121193 0.49964 ) 0 
( -3.75782 4.69802 0.499833 ) 0 
( -4.75025 4.81973 0.499525 ) 0 
( -3.70742 0.177773 0.499857 ) 0 
( -4.6139 1.9102 1.41943 ) 0 
( -2.42115 1.23925 0.499788 ) 0 
( -1.2175 0.68906 1.04369 ) 0 
( -1.74353 0.0355208 0.499787 ) 0 
( -4.88807 3.05202 0.499758 ) 0 
( -1.48629 2.43339 0.845016 ) 0 
( -3.23666 3.84478 0.516131 ) 0 
( -1.67103 4.85617 0.499784 ) 0 
( -0.00726617 4.19921 1.00238 ) 0 
( -3.63954 2.92974 0.49957 ) 0 
( -4.87474 0.659692 1.32493 ) 0 
( -4.46763 4.33809 1.32871 ) 0 
( -3.3309 1.03187 0.858705 ) 0 
( -1.60585 4.19157 1.244 ) 0 
( -2.19595 3.13484 0.906992 ) 0 
( -1.38809 3.24727 1.49009 ) 0 
( -0.536279 2.77694 1.25655 ) 0 
( -0.575904 0.221218 1.75095 ) 0 
( -2.14358 1.73695 1.32127 ) 0 
( -4.27402 2.8411 1.26692 ) 0 
( -0.728594 4.81652 1.31577 ) 0 
( -3.00161 2.624 1.2059 ) 0 
( -2.19031 0.643963 1.27029 ) 0 
( -0.00919278 3.49455 1.71142 ) 0 
( -0.878044 1.60823 1.30921 ) 0 
( -2.69384 4.40101 1.34651 ) 0 
( -3.62283 1.78344 1.45305 ) 0 
( -4.83914 3.51277 1.75335 ) 0 
( -3.90309 0.454353 1.44056 ) 0 
( -4.27616 1.71282 2.33941 ) 0 
( -3.588 4.4441 1.79209 ) 0 
( -0.845295 3.10152 2.31705 ) 0 
( -2.49657 2.36596 2.02917 ) 0 
( -2.61404 3.48711 1.74388 ) 0 
( -1.55998 1.13767 1.8687 ) 0 
( -2.86882 1.19868 1.75115 ) 0 
( -0.542177 2.17942 2.058 ) 0 
( -1.51582 2.31876 1.83793 ) 0 
( -0.856226 3.99986 1.87827 ) 0 
( -4.42249 0.0996089 2.21782 ) 0 
( -2.04695 0.0533844 2.0644 ) 0 
( -4.66984 2.61347 2.15635 ) 0 
( -3.55532 3.52133 1.40876 ) 0 
( -0.497095 1.18326 2.12989 ) 0 
( -2.23838 4.28627 2.22913 ) 0 
( -1.25114 1.73697 2.60682 ) 0 
( -3.61963 2.62599 1.99145 ) 0 
( -0.619143 2.43039 3.02279 ) 0 
( -2.77407 0.601083 2.54711 ) 0 
( -4.00362 3.49499 2.30213 ) 0 
( -2.25878 1.5064 2.481 ) 0 
( -3.70097 0.895326 2.31467 ) 0 
( -1.50633 4.90431 1.93794 ) 0 
( -4.92231 0.950782 2.3773 ) 0 
( -1.13381 0.529374 2.53753 ) 0 
( -0.403493 4.53266 2.644 ) 0 
( -4.43837 4.23674 2.81197 ) 0 
( -4.86644 3.33316 2.82196 ) 0 
( -1.87954 1.70802 3.38378 ) 0 
( -4.31892 1.13634 3.15517 ) 0 
( -1.94261 0.75502 3.08045 ) 0 
( -2.44832 3.19628 2.68579 ) 0 
( -1.61324 2.65364 2.77487 ) 0 
( -3.12717 3.92729 2.51353 ) 0 
( -3.28468 1.79602 2.43676 ) 0 
( -1.37444 4.3111 2.73171 ) 0 
( -3.51446 0.546356 3.23285 ) 0 
( -0.217862 3.47743 3.13822 ) 0 
( -3.91657 2.73027 2.9403 ) 0 
( -2.62541 0.0968535 3.39773 ) 0 
( -0.834724 0.312136 3.46637 ) 0 
( -3.86031 4.54775 3.56595 ) 0 
( -1.26246 2.78303 3.70203 ) 0 
( -2.89539 1.33159 3.23179 ) 0 
( -4.47706 0.150901 3.21476 ) 0 
( -2.62137 2.26878 3.01644 ) 0 
( -3.50244 4.87316 2.69106 ) 0 
( -1.75359 3.57757 3.29527 ) 0 
( -2.58106 4.73531 3.05419 ) 0 
( -3.18427 3.26711 3.35878 ) 0 
( -0.690664 1.30405 3.31244 ) 0 
( -0.713535 2.01013 4.01999 ) 0 
( -0.869359 4.66505 3.51858 ) 0 
( -2.25926 2.8443 3.74929 ) 0 
( -4.13713 3.54822 3.47129 ) 0 
( -1.42872 0.984924 3.90664 ) 0 
( -2.61299 3.99364 3.74022 ) 0 
( -4.38348 2.06443 3.52166 ) 0 
( -3.65188 1.29222 3.8845 ) 0 
( -4.65914 4.18121 4.04266 ) 0 
( -0.0427601 0.443108 4.06238 ) 0 
( -0.290877 2.95097 4.00205 ) 0 
( -0.91218 3.71229 3.81813 ) 0 
( -1.97402 1.98202 4.34049 ) 0 
( -2.41349 1.057 4.06342 ) 0 
( -1.69423 4.31822 3.96443 ) 0 
( -0.197754 1.26779 4.60607 ) 0 
( -3.40408 2.22894 3.63723 ) 0 
( -4.74853 1.29438 4.04413 ) 0 
( -3.7079 3.89356 4.30638 ) 0 
( -4.88166 2.9069 3.72635 ) 0 
( -3.06251 4.66878 4.32499 ) 0 
( -1.6947 3.39975 4.35971 ) 0 
( -3.95357 2.86545 4.17837 ) 0 
( -3.21076 0.537157 4.3695 ) 0 
( -0.29954 4.75828 4.33498 ) 0 
( -1.2337 1.46049 4.76405 ) 0 
( -2.9282 2.22301 4.5165 ) 0 
( -2.98373 3.20486 4.33619 ) 0 
( -4.10022 1.93277 4.5078 ) 0 
( -2.15377 0.570304 4.89713 ) 0 
( -2.41498 3.72751 4.97084 ) 0 
( -0.517998 2.01574 5.18738 ) 0 
( -0.661957 3.74168 4.78558 ) 0 
( -4.10409 0.864785 4.67613 ) 0 
( -1.00237 2.71966 4.66519 ) 0 
( -4.50851 3.48889 4.74808 ) 0 
( -2.1287 4.66879 4.79387 ) 0 
( -0.875532 0.533932 4.65022 ) 0 
( -2.19258 2.75335 4.93786 ) 0 
( -2.02746 1.37796 5.47262 ) 0 
( -2.96334 0.486585 5.47797 ) 0 
( -3.35168 3.95197 5.23874 ) 0 
( -3.5814 2.96575 5.10106 ) 0 
( -0.670083 2.92761 5.58483 ) 0 
( -4.70601 1.44595 5.22369 ) 0 
( -2.58108 4.43737 5.65498 ) 0 
( -1.47979 2.20911 5.37998 ) 0 
( -4.08341 4.77069 4.6089 ) 0 
( -1.38081 0.432647 5.51613 ) 0 
( -0.618527 4.60533 5.28734 ) 0 
( -2.86679 1.30933 4.91814 ) 0 
( -0.401512 0.616049 5.5997 ) 0 
( -4.50443 2.59163 5.18914 ) 0 
( -4.91726 0.137632 4.90109 ) 0 
( -2.46589 2.24043 5.75152 ) 0 
( -1.49023 3.58382 5.32273 ) 0 
( -4.05376 3.50825 5.79538 ) 0 
( -3.75287 0.266568 6.07706 ) 0 
( -4.74863 2.81063 6.1336 ) 0 
( -0.738408 2.16504 6.22773 ) 0 
( -4.42644 4.39335 5.46901 ) 0 
( -3.80869 1.13856 5.59112 ) 0 
( -3.39483 2.02325 5.37776 ) 0 
( -1.06466 1.35355 5.74347 ) 0 
( -2.78203 3.18868 5.7287 ) 0 
( -3.33436 4.95195 5.24579 ) 0 
( -2.90444 1.3647 5.95241 ) 0 
( -4.2372 1.97586 5.93021 ) 0 
( -0.0327496 2.88732 6.39698 ) 0 
( -1.00019 0.397978 6.44036 ) 0 
( -1.78216 2.92166 6.01273 ) 0 
( -1.91449 3.89993 6.17116 ) 0 
( -4.49232 4.80003 6.41027 ) 0 
( -0.399641 3.8393 5.89341 ) 0 
( -2.17746 0.733481 6.22223 ) 0 
( -3.62269 4.45102 6.06163 ) 0 
( -3.58273 1.6688 6.62103 ) 0 
( -4.64234 0.623736 5.78932 ) 0 
( -3.55275 2.68135 6.11365 ) 0 
( -0.918733 4.62007 6.24098 ) 0 
( -2.63254 1.97061 6.69984 ) 0 
( -0.439616 1.22274 6.51271 ) 0 
( -0.405952 0.533997 7.23655 ) 0 
( -2.00811 2.70603 6.96247 ) 0 
( -4.17136 2.44052 6.86118 ) 0 
( -2.88418 3.88955 6.43446 ) 0 
( -1.54898 4.36837 6.97526 ) 0 
( -2.98587 0.893283 6.83031 ) 0 
( -0.575736 4.03833 6.97837 ) 0 
( -0.958666 3.25708 6.48371 ) 0 
( -4.48253 0.416398 6.75429 ) 0 
( -1.7083 1.88201 6.29683 ) 0 
( -3.85557 3.42788 6.77197 ) 0 
( -1.71313 0.630361 7.10165 ) 0 
( -0.075836 2.06918 6.9702 ) 0 
( -4.69885 1.3779 6.58534 ) 0 
( -1.85572 1.69147 7.26726 ) 0 
( -4.68564 2.81868 7.63054 ) 0 
( -0.390877 3.11092 7.3033 ) 0 
( -1.07345 2.39868 7.14031 ) 0 
( -3.35433 2.2471 7.40413 ) 0 
( -3.86558 0.987487 7.29608 ) 0 
( -3.82987 4.3914 7.03795 ) 0 
( -4.47841 1.74724 7.51293 ) 0 
( -2.85463 4.57192 7.16463 ) 0 
( -0.202902 4.96645 7.04568 ) 0 
( -1.34703 3.47598 7.37877 ) 0 
( -0.901393 1.41444 7.37856 ) 0 
( -2.96178 2.98805 6.85964 ) 0 
( -1.84129 2.81399 7.94228 ) 0 
( -0.938325 4.71941 7.6849 ) 0 
( -4.68341 3.87551 7.10986 ) 0 
( -0.0721193 1.88002 7.95187 ) 0 
( -2.30169 3.73509 7.23241 ) 0 
( -4.81032 4.83595 7.35764 ) 0 
( -3.30627 0.585972 8.05812 ) 0 
( -4.52375 0.389201 7.75292 ) 0 
( -1.18748 2.06969 8.07758 ) 0 
( -3.16907 4.90804 8.05219 ) 0 
( -3.73777 3.12455 7.71727 ) 0 
( -2.46037 0.960056 7.67828 ) 0 
( -0.890361 3.02733 8.1654 ) 0 
( -1.13501 0.604942 7.91707 ) 0 
( -1.44378 0.312881 8.82204 ) 0 
( -4.07312 4.37151 8.00755 ) 0 
( -2.0745 2.68311 8.9057 ) 0 
( -3.15825 3.92589 7.8648 ) 0 
( -4.07556 2.37593 8.28752 ) 0 
( -1.98939 4.43926 7.87005 ) 0 
( -0.719835 1.2973 8.50713 ) 0 
( -2.48699 1.90155 8.01368 ) 0 
( -3.99058 0.0152552 8.51161 ) 0 
( -2.39011 0.517812 8.57226 ) 0 
( -1.21139 3.96687 8.284 ) 0 
( -0.0986896 4.50347 8.18294 ) 0 
( -2.836 2.83813 8.04008 ) 0 
( -3.5253 1.5601 8.11009 ) 0 
( -1.75658 1.28153 8.31164 ) 0 
( -3.43399 4.25555 8.76771 ) 0 
( -0.48844 2.32028 8.74715 ) 0 
( -4.32066 3.32046 8.50572 ) 0 
( -3.07257 1.16601 8.90981 ) 0 
( -2.33899 3.64313 8.36351 ) 0 
( -1.30753 2.2101 9.33913 ) 0 
( -1.52972 4.83325 8.82933 ) 0 
( -2.22316 0.0128088 9.41899 ) 0 
( -4.71982 2.30235 9.06042 ) 0 
( -4.87376 0.395329 8.78632 ) 0 
( -4.90182 4.67798 8.47562 ) 0 
( -3.07243 2.19581 8.76897 ) 0 
( -0.345868 3.67875 8.69346 ) 0 
( -1.07726 3.16215 9.13838 ) 0 
( -0.358739 0.423605 8.83287 ) 0 
( -4.43085 1.19129 8.34271 ) 0 
( -3.04495 2.48848 9.7247 ) 0 
( -3.10836 0.503202 9.73655 ) 0 
( -1.7477 3.90378 9.12646 ) 0 
( -2.49408 4.59321 8.71932 ) 0 
( -4.39164 4.10293 9.12416 ) 0 
( -3.91223 1.71423 9.01905 ) 0 
( -2.24978 1.71203 9.06741 ) 0 
( -0.513159 1.62705 9.50891 ) 0 
( -2.30562 3.16115 9.75296 ) 0 
( -3.92405 0.732008 9.2055 ) 0 
( -0.826457 4.08761 9.46917 ) 0 
( -2.97451 3.16974 8.9732 ) 0 
( -1.39254 1.21851 9.24275 ) 0 
( -1.99994 1.94039 10.0083 ) 0 
( -3.58645 3.68405 9.57389 ) 0 
( -2.87408 1.94798 10.5484 ) 0 
( -3.86147 2.78624 9.2302 ) 0 
( -0.532394 0.873422 10.1658 ) 0 
( -0.465233 2.60952 9.7039 ) 0 
( -4.80123 1.3263 9.26169 ) 0 
( -1.39129 0.399709 9.81673 ) 0 
( -4.07849 0.223933 10.0528 ) 0 
( -2.66541 4.07301 9.55584 ) 0 
( -1.61794 4.15755 10.0849 ) 0 
( -2.22484 0.971379 9.73874 ) 0 
( -1.51855 1.16575 10.4466 ) 0 
( -4.26742 4.97692 9.59375 ) 0 
( -1.38391 2.92443 10.0599 ) 0 
( -3.36149 1.47067 9.81733 ) 0 
( -3.09322 3.2983 10.3535 ) 0 
( -2.43726 4.68978 10.3091 ) 0 
( -4.06293 3.09192 10.2237 ) 0 
( -4.0832 1.31974 10.4928 ) 0 
( -0.970613 4.18875 10.8464 ) 0 
( -1.14727 0.173431 10.7596 ) 0 
( -2.20187 3.60921 10.6833 ) 0 
( -0.365922 3.50318 10.1412 ) 0 
( -1.02356 2.01977 10.2872 ) 0 
( -4.87232 0.827639 10.1254 ) 0 
( -0.086116 4.41575 10.439 ) 0 
( -4.18874 2.11309 9.89327 ) 0 
( -3.41196 4.53544 10.0685 ) 0 
( -2.14976 2.61194 10.7339 ) 0 
( -4.75132 3.19689 9.50612 ) 0 
( -2.83679 3.15697 11.3096 ) 0 
( -4.97094 2.7786 10.5015 ) 0 
( -3.83809 3.22261 11.1892 ) 0 
( -0.145589 2.57934 10.6508 ) 0 
( -2.78266 0.952391 10.5685 ) 0 
( -4.28783 4.06513 10.1761 ) 0 
( -4.38921 0.377365 10.9907 ) 0 
( -3.52328 1.65516 11.2503 ) 0 
( -2.07949 1.68168 11.0939 ) 0 
( -1.89533 4.45677 11.1165 ) 0 
( -4.15599 2.33034 10.8687 ) 0 
( -3.02546 4.13387 10.8987 ) 0 
( -0.926823 3.19168 10.9082 ) 0 
( -1.3134 2.31595 11.1972 ) 0 
( -0.789479 1.03546 11.1185 ) 0 
( -4.38541 4.06275 11.1712 ) 0 
( -3.5022 0.660893 11.355 ) 0 
( -3.44441 2.50767 11.767 ) 0 
( -3.44838 3.92806 11.7811 ) 0 
( -4.99121 1.16173 11.1398 ) 0 
( -4.60274 4.94366 10.5352 ) 0 
( -2.00652 0.570505 11.0849 ) 0 
( -0.128965 3.09721 11.5061 ) 0 
( -2.89491 4.75389 11.6734 ) 0 
( -1.65632 3.50706 11.5151 ) 0 
( -0.476095 4.99193 11.5246 ) 0 
( -0.0723114 4.08803 11.3836 ) 0 
( -0.230121 0.20746 11.1566 ) 0 
( -4.46406 2.58492 11.7854 ) 0 
( -4.59226 0.682008 11.9213 ) 0 
( -3.9423 4.79288 11.6913 ) 0 
( -4.24792 1.62067 11.9385 ) 0 
( -2.48339 3.78725 12.0023 ) 0 
( -4.33979 3.54731 12.0269 ) 0 
( -1.12442 2.63343 12.1264 ) 0 
( -1.37366 1.50561 11.78 ) 0 
( -1.11508 4.28638 11.831 ) 0 
( -0.158331 2.39002 12.2125 ) 0 
( -0.207492 1.32433 12.1347 ) 0 
( -0.264753 4.2315 12.3544 ) 0 
( -0.795732 0.46527 11.9399 ) 0 
( -2.69188 1.14943 11.6783 ) 0 
( -0.407135 1.92678 11.3619 ) 0 
( -2.00511 4.6576 12.1194 ) 0 
( -1.23128 4.65633 12.7528 ) 0 
( -1.02027 1.41131 12.7107 ) 0 
( -2.0956 2.63534 11.7321 ) 0 
( -4.94862 2.96988 12.5708 ) 0 
( -1.55993 0.580514 12.5745 ) 0 
( -3.51159 3.2107 12.475 ) 0 
( -2.20013 1.7945 12.2632 ) 0 
( -3.41042 4.60454 12.5171 ) 0 
( -0.984325 3.55171 12.4967 ) 0 
)
