# Probe 0 (0 0 5000)
# Probe 1 (0 0 -4000)
#       Probe             0             1
#        Time
         1000     0.0239666  -3.94525e-11
         2000     0.0323846   9.65124e-09
         3000     0.0320157   2.22918e-09
         4000     0.0248875  -1.01358e-09
         5000     0.0174249  -1.79685e-09
         6000     0.0193945  -5.10679e-10
         7000     0.0236854  -2.91832e-09
         8000     0.0264702   8.59703e-09
         9000     0.0264919   6.64359e-09
        10000     0.0236401   1.70114e-09
