# Probe 0 (0 0 5000)
# Probe 1 (0 0 -4000)
#       Probe             0             1
#        Time
         1000             (-7.23609e-10 -8.02647e-09 -0.001)             (-6.06966e-10 2.66118e-09 -0.00100003)
         2000             (1.84659e-09 1.10856e-08 -0.000999999)             (-3.69129e-10 5.78242e-09 -0.0010001)
         3000             (1.31053e-08 2.23044e-08 -0.000999995)             (-9.96968e-11 8.37571e-09 -0.00100009)
         4000             (2.22551e-08 2.3328e-08 -0.000999991)             (7.30441e-11 1.07956e-08 -0.00100008)
         5000             (2.64905e-08 2.3724e-08 -0.000999988)             (7.69433e-11 1.26032e-08 -0.00100009)
         6000             (2.8489e-08 2.41005e-08 -0.000999984)             (3.76803e-11 1.44377e-08 -0.00100008)
         7000             (2.95794e-08 2.60017e-08 -0.000999981)             (-3.42696e-11 1.61562e-08 -0.00100009)
         8000             (2.99586e-08 2.63412e-08 -0.000999977)             (-2.03796e-11 1.80103e-08 -0.00100012)
         9000             (3.75112e-08 3.27331e-08 -0.000999972)             (-1.74992e-10 1.96998e-08 -0.00100013)
        10000             (3.90958e-08 3.08474e-08 -0.000999967)             (-3.5883e-10 2.13062e-08 -0.00100011)
