# Probe 0 (0 0 50)
# Probe 1 (0 0 -40)
#       Probe             0             1
#        Time
          100      -215.635     -0.241589
          200      -2.45882      0.121022
          300      -7.50511    0.00854417
          400      -7.24598     0.0136941
          500      -6.35058      0.019253
          600      -5.50273    0.00226545
          700      -4.84642    -0.0084574
          800      -4.19224    -0.0179076
          900      -3.70533   -0.00986671
         1000      -3.13276   -0.00647383
