/*--------------------------------*- C++ -*----------------------------------*\
| =========                 |                                                 |
| \\      /  F ield         | OpenFOAM: The Open Source CFD Toolbox           |
|  \\    /   O peration     | Version:  5.x                                   |
|   \\  /    A nd           | Web:      www.OpenFOAM.org                      |
|    \\/     M anipulation  |                                                 |
\*---------------------------------------------------------------------------*/
FoamFile
{
    version     2.0;
    format      ascii;
    class       surfaceScalarField;
    location    "0.01";
    object      phi;
}
// * * * * * * * * * * * * * * * * * * * * * * * * * * * * * * * * * * * * * //

dimensions      [0 3 -1 0 0 0 0];

internalField   nonuniform List<scalar> 
179
(
-2.50016e-10
-2.50017e-10
-2.50017e-10
-2.50018e-10
-2.50019e-10
-2.5002e-10
-2.50021e-10
-2.50022e-10
-2.50024e-10
-2.50026e-10
-2.50028e-10
-2.5003e-10
-2.50033e-10
-2.50036e-10
-2.50039e-10
-2.50042e-10
-2.50046e-10
-2.50051e-10
-2.50056e-10
-2.50061e-10
-2.50067e-10
-2.50074e-10
-2.50082e-10
-2.5009e-10
-2.50099e-10
-2.50109e-10
-2.50121e-10
-2.50133e-10
-2.50147e-10
-2.50162e-10
-2.50179e-10
-2.50198e-10
-2.50218e-10
-2.50241e-10
-2.50267e-10
-2.50295e-10
-2.50326e-10
-2.5036e-10
-2.50399e-10
-2.50441e-10
-2.50488e-10
-2.50539e-10
-2.50597e-10
-2.5066e-10
-2.5073e-10
-2.50808e-10
-2.50894e-10
-2.5099e-10
-2.51095e-10
-2.51212e-10
-2.51342e-10
-2.51485e-10
-2.51644e-10
-2.5182e-10
-2.52015e-10
-2.5223e-10
-2.52469e-10
-2.52734e-10
-2.53027e-10
-2.53352e-10
-2.53711e-10
-2.5411e-10
-2.54551e-10
-2.5504e-10
-2.55583e-10
-2.56184e-10
-2.5685e-10
-2.57589e-10
-2.58408e-10
-2.59317e-10
-2.60324e-10
-2.61439e-10
-2.6267e-10
-2.64022e-10
-2.65491e-10
-2.67062e-10
-2.68708e-10
-2.70399e-10
-2.72036e-10
-2.73463e-10
-2.74041e-10
-2.73982e-10
-2.69787e-10
-2.69501e-10
-2.74902e-10
-2.79152e-10
-2.819e-10
-2.88632e-10
-2.86915e-10
-2.74394e-10
-2.55792e-10
-2.45487e-10
-2.06874e-10
-1.86934e-10
-1.83124e-10
-1.84146e-10
-1.97541e-10
-2.14422e-10
-2.28712e-10
-2.32262e-10
-2.31364e-10
-2.28481e-10
-2.24147e-10
-2.21828e-10
-2.21846e-10
-2.23146e-10
-2.24815e-10
-2.26636e-10
-2.28494e-10
-2.30297e-10
-2.31995e-10
-2.33568e-10
-2.35015e-10
-2.36342e-10
-2.37557e-10
-2.38668e-10
-2.39683e-10
-2.40609e-10
-2.41455e-10
-2.42227e-10
-2.42931e-10
-2.43572e-10
-2.44157e-10
-2.44689e-10
-2.45175e-10
-2.45616e-10
-2.46018e-10
-2.46384e-10
-2.46716e-10
-2.47019e-10
-2.47294e-10
-2.47544e-10
-2.47771e-10
-2.47978e-10
-2.48165e-10
-2.48336e-10
-2.4849e-10
-2.48631e-10
-2.48759e-10
-2.48875e-10
-2.4898e-10
-2.49075e-10
-2.49162e-10
-2.49241e-10
-2.49312e-10
-2.49377e-10
-2.49435e-10
-2.49489e-10
-2.49537e-10
-2.49581e-10
-2.49621e-10
-2.49657e-10
-2.49689e-10
-2.49719e-10
-2.49746e-10
-2.4977e-10
-2.49792e-10
-2.49812e-10
-2.4983e-10
-2.49846e-10
-2.49861e-10
-2.49875e-10
-2.49887e-10
-2.49898e-10
-2.49908e-10
-2.49917e-10
-2.49925e-10
-2.49932e-10
-2.49939e-10
-2.49945e-10
-2.49951e-10
-2.49956e-10
-2.49961e-10
-2.49965e-10
-2.49969e-10
-2.49972e-10
-2.49976e-10
-2.49979e-10
-2.49981e-10
)
;

boundaryField
{
    inlet
    {
        type            calculated;
        value           uniform -2.49984e-10;
    }
    outlet
    {
        type            calculated;
        value           uniform 2.50016e-10;
    }
    repeat_boundary
    {
        type            calculated;
        value           uniform 0;
    }
    procBoundary2to0
    {
        type            processor;
        value           nonuniform List<scalar> 
180
(
3.1933e-16
3.84845e-16
4.99805e-16
6.46508e-16
8.15016e-16
9.99872e-16
1.1989e-15
1.4121e-15
1.64071e-15
1.88668e-15
2.15237e-15
2.44037e-15
2.75353e-15
3.09493e-15
3.46791e-15
3.8761e-15
4.32346e-15
4.81432e-15
5.3534e-15
5.94591e-15
6.59757e-15
7.31467e-15
8.10415e-15
8.97365e-15
9.93163e-15
1.09874e-14
1.21513e-14
1.34347e-14
1.48502e-14
1.64116e-14
1.81344e-14
2.00355e-14
2.21337e-14
2.44496e-14
2.70062e-14
2.98286e-14
3.29448e-14
3.63854e-14
4.01845e-14
4.43795e-14
4.90118e-14
5.41272e-14
5.97762e-14
6.60146e-14
7.29043e-14
8.05136e-14
8.89179e-14
9.82011e-14
1.08456e-13
1.19784e-13
1.323e-13
1.46127e-13
1.61405e-13
1.78287e-13
1.9694e-13
2.17554e-13
2.40337e-13
2.65514e-13
2.93335e-13
3.24073e-13
3.58036e-13
3.95563e-13
4.37027e-13
4.82842e-13
5.33468e-13
5.8942e-13
6.51274e-13
7.19653e-13
7.95234e-13
8.78693e-13
9.7051e-13
1.07062e-12
1.17811e-12
1.28937e-12
1.39591e-12
1.48204e-12
1.52805e-12
1.52032e-12
1.37341e-12
9.0672e-13
1.41984e-13
-3.62487e-14
-1.60201e-12
-2.59163e-13
3.50656e-12
4.29935e-12
3.68471e-13
4.42707e-12
-3.97629e-13
-8.5835e-12
-1.24723e-11
-9.166e-12
-1.29092e-11
-1.68073e-11
-3.59657e-13
2.81249e-13
9.05155e-12
6.15397e-12
7.32055e-12
3.85876e-12
4.50273e-12
1.17114e-12
-1.9885e-13
-5.87883e-13
3.5475e-13
1.78429e-13
-1.11268e-13
-2.36655e-13
-2.53644e-13
-2.3518e-13
-2.07223e-13
-1.79016e-13
-1.53598e-13
-1.3162e-13
-1.12842e-13
-9.68037e-14
-8.30728e-14
-7.12944e-14
-6.11805e-14
-5.2492e-14
-4.50266e-14
-3.86118e-14
-3.30996e-14
-2.83631e-14
-2.42933e-14
-2.07965e-14
-1.77923e-14
-1.52117e-14
-1.29952e-14
-1.10919e-14
-9.45806e-15
-8.05587e-15
-6.85297e-15
-5.82155e-15
-4.9377e-15
-4.18087e-15
-3.53338e-15
-2.98004e-15
-2.50848e-15
-2.10672e-15
-1.7644e-15
-1.47437e-15
-1.22939e-15
-1.02299e-15
-8.49475e-16
-7.03935e-16
-5.82106e-16
-4.8032e-16
-3.95434e-16
-3.24779e-16
-2.66085e-16
-2.17428e-16
-1.77192e-16
-1.44023e-16
-1.16793e-16
-9.46454e-17
-7.68805e-17
-6.28002e-17
-5.18139e-17
-4.34297e-17
-3.72401e-17
-3.29079e-17
-3.01537e-17
-2.87433e-17
-2.84653e-17
-2.91195e-17
-3.05434e-17
-3.25723e-17
-3.50689e-17
-3.79492e-17
-4.11525e-17
-4.45656e-17
-4.81465e-17
-5.19386e-17
-5.5953e-17
-6.00745e-17
-6.39057e-17
-6.68481e-17
-6.82775e-17
-7.37931e-17
)
;
    }
    procBoundary2to3
    {
        type            processor;
        value           nonuniform List<scalar> 
180
(
-6.86168e-19
-1.79128e-17
-3.81145e-17
-5.80159e-17
-7.73047e-17
-9.60977e-17
-1.14696e-16
-1.33408e-16
-1.52485e-16
-1.72125e-16
-1.92506e-16
-2.138e-16
-2.36192e-16
-2.59886e-16
-2.85107e-16
-3.12103e-16
-3.41146e-16
-3.72535e-16
-4.0659e-16
-4.43652e-16
-4.84081e-16
-5.28252e-16
-5.76548e-16
-6.29358e-16
-6.87064e-16
-7.50034e-16
-8.1861e-16
-8.93097e-16
-9.73746e-16
-1.06073e-15
-1.15411e-15
-1.25385e-15
-1.3597e-15
-1.47124e-15
-1.58773e-15
-1.70812e-15
-1.83086e-15
-1.95396e-15
-2.07673e-15
-2.19738e-15
-2.31323e-15
-2.42125e-15
-2.52067e-15
-2.60944e-15
-2.68465e-15
-2.74336e-15
-2.78318e-15
-2.80459e-15
-2.80585e-15
-2.78354e-15
-2.73381e-15
-2.65164e-15
-2.53024e-15
-2.36049e-15
-2.13032e-15
-1.82441e-15
-1.42414e-15
-9.08025e-16
-2.524e-16
5.68186e-16
1.58351e-15
2.84099e-15
4.44069e-15
6.51146e-15
8.79732e-15
1.16837e-14
1.51628e-14
1.93303e-14
2.42865e-14
3.0119e-14
3.6886e-14
4.45953e-14
5.31539e-14
6.25384e-14
7.3456e-14
8.9011e-14
1.17724e-13
1.72858e-13
2.64345e-13
5.21189e-13
4.35571e-13
-2.31635e-14
-2.59282e-12
-2.69161e-14
1.89424e-12
-4.85414e-14
2.37891e-12
2.30497e-12
-1.31831e-12
-3.93761e-12
-6.12985e-12
-1.13959e-12
-2.57035e-11
-3.13247e-12
-3.45044e-12
7.41124e-13
4.3437e-12
1.0727e-11
6.9697e-12
-3.0872e-13
-5.40018e-12
-4.05474e-12
-4.13458e-12
-1.73179e-12
-3.36373e-13
1.12177e-12
1.78001e-12
2.05781e-12
2.11189e-12
2.03835e-12
1.90467e-12
1.75225e-12
1.60107e-12
1.45881e-12
1.32762e-12
1.20754e-12
1.09797e-12
9.98096e-13
9.07119e-13
8.24275e-13
7.4886e-13
6.80226e-13
6.17781e-13
5.6098e-13
5.09325e-13
4.6236e-13
4.1967e-13
3.80872e-13
3.45619e-13
3.13593e-13
2.84502e-13
2.58083e-13
2.34094e-13
2.12314e-13
1.92542e-13
1.74596e-13
1.5831e-13
1.43531e-13
1.30121e-13
1.17954e-13
1.06918e-13
9.69066e-14
8.78269e-14
7.95927e-14
7.2126e-14
6.5356e-14
5.92181e-14
5.3654e-14
4.86105e-14
4.40393e-14
3.98965e-14
3.61424e-14
3.2741e-14
2.96594e-14
2.6868e-14
2.43397e-14
2.20501e-14
1.99771e-14
1.81006e-14
1.64022e-14
1.48655e-14
1.34755e-14
1.22186e-14
1.10824e-14
1.00559e-14
9.12882e-15
8.29211e-15
7.53746e-15
6.85737e-15
6.24504e-15
5.69435e-15
5.19975e-15
4.75627e-15
4.35947e-15
4.00561e-15
3.69192e-15
3.41726e-15
3.18395e-15
3.00227e-15
2.92413e-15
)
;
    }
}


// ************************************************************************* //
