/*--------------------------------*- C++ -*----------------------------------*\
| =========                 |                                                 |
| \\      /  F ield         | OpenFOAM: The Open Source CFD Toolbox           |
|  \\    /   O peration     | Version:  5.x                                   |
|   \\  /    A nd           | Web:      www.OpenFOAM.org                      |
|    \\/     M anipulation  |                                                 |
\*---------------------------------------------------------------------------*/
FoamFile
{
    version     2.0;
    format      ascii;
    class       surfaceScalarField;
    location    "0.003";
    object      phi;
}
// * * * * * * * * * * * * * * * * * * * * * * * * * * * * * * * * * * * * * //

dimensions      [0 3 -1 0 0 0 0];

internalField   nonuniform List<scalar> 
179
(
-2.4999e-10
-2.4999e-10
-2.49989e-10
-2.49989e-10
-2.49988e-10
-2.49988e-10
-2.49987e-10
-2.49986e-10
-2.49985e-10
-2.49983e-10
-2.49982e-10
-2.4998e-10
-2.49978e-10
-2.49976e-10
-2.49973e-10
-2.49971e-10
-2.49967e-10
-2.49964e-10
-2.4996e-10
-2.49955e-10
-2.4995e-10
-2.49944e-10
-2.49938e-10
-2.49931e-10
-2.49923e-10
-2.49914e-10
-2.49904e-10
-2.49894e-10
-2.49882e-10
-2.49869e-10
-2.49854e-10
-2.49838e-10
-2.49821e-10
-2.49801e-10
-2.4978e-10
-2.49756e-10
-2.49729e-10
-2.497e-10
-2.49667e-10
-2.49631e-10
-2.49592e-10
-2.49548e-10
-2.49499e-10
-2.49445e-10
-2.49386e-10
-2.4932e-10
-2.49248e-10
-2.49168e-10
-2.49079e-10
-2.48981e-10
-2.48873e-10
-2.48754e-10
-2.48623e-10
-2.48478e-10
-2.48318e-10
-2.48141e-10
-2.47947e-10
-2.47733e-10
-2.47498e-10
-2.47239e-10
-2.46954e-10
-2.46642e-10
-2.46298e-10
-2.45921e-10
-2.45507e-10
-2.45053e-10
-2.44556e-10
-2.44011e-10
-2.43416e-10
-2.42765e-10
-2.42053e-10
-2.41277e-10
-2.4043e-10
-2.39507e-10
-2.385e-10
-2.37405e-10
-2.36216e-10
-2.34938e-10
-2.33615e-10
-2.3248e-10
-2.3243e-10
-2.32412e-10
-2.37647e-10
-2.37695e-10
-2.30147e-10
-2.16306e-10
-2.15284e-10
-2.07093e-10
-2.07882e-10
-2.19275e-10
-2.32907e-10
-2.41285e-10
-2.52321e-10
-2.6257e-10
-2.62423e-10
-2.60734e-10
-2.46884e-10
-2.39559e-10
-2.30463e-10
-2.25648e-10
-2.17985e-10
-2.12224e-10
-2.11672e-10
-2.12675e-10
-2.13632e-10
-2.16705e-10
-2.20136e-10
-2.23349e-10
-2.26232e-10
-2.288e-10
-2.31087e-10
-2.33124e-10
-2.34941e-10
-2.36558e-10
-2.37998e-10
-2.39281e-10
-2.40424e-10
-2.41443e-10
-2.42352e-10
-2.43163e-10
-2.43887e-10
-2.44532e-10
-2.45109e-10
-2.45624e-10
-2.46084e-10
-2.46494e-10
-2.46862e-10
-2.4719e-10
-2.47483e-10
-2.47745e-10
-2.4798e-10
-2.4819e-10
-2.48378e-10
-2.48547e-10
-2.48697e-10
-2.48832e-10
-2.48953e-10
-2.49061e-10
-2.49158e-10
-2.49244e-10
-2.49322e-10
-2.49392e-10
-2.49454e-10
-2.4951e-10
-2.49561e-10
-2.49606e-10
-2.49646e-10
-2.49682e-10
-2.49715e-10
-2.49744e-10
-2.4977e-10
-2.49794e-10
-2.49815e-10
-2.49834e-10
-2.49851e-10
-2.49866e-10
-2.4988e-10
-2.49892e-10
-2.49903e-10
-2.49913e-10
-2.49922e-10
-2.4993e-10
-2.49937e-10
-2.49944e-10
-2.4995e-10
-2.49955e-10
-2.4996e-10
-2.49965e-10
-2.49969e-10
-2.49973e-10
-2.49976e-10
-2.49979e-10
-2.49982e-10
-2.49985e-10
-2.49987e-10
-2.4999e-10
-2.49992e-10
-2.49994e-10
-2.49997e-10
)
;

boundaryField
{
    inlet
    {
        type            calculated;
        value           uniform -2.49999e-10;
    }
    outlet
    {
        type            calculated;
        value           uniform 2.4999e-10;
    }
    repeat_boundary
    {
        type            calculated;
        value           uniform 0;
    }
    procBoundary0to1
    {
        type            processor;
        value           nonuniform List<scalar> 
180
(
2.48196e-17
1.91276e-17
2.18029e-17
2.70775e-17
3.2627e-17
3.77396e-17
4.21511e-17
4.57446e-17
4.84481e-17
5.0221e-17
5.10421e-17
5.09128e-17
4.98627e-17
4.79589e-17
4.52866e-17
4.19422e-17
3.80286e-17
3.36628e-17
2.89814e-17
2.41459e-17
1.93645e-17
1.49241e-17
1.12397e-17
8.92862e-18
8.91962e-18
1.26156e-17
2.21341e-17
4.06712e-17
7.30689e-17
1.26724e-16
2.12426e-16
2.51676e-16
2.85836e-16
2.96539e-16
3.12872e-16
3.36048e-16
3.67641e-16
4.09642e-16
4.64509e-16
5.35242e-16
6.25468e-16
7.39537e-16
8.8266e-16
1.06107e-15
1.28222e-15
1.55508e-15
1.89043e-15
2.30093e-15
2.67424e-15
3.12278e-15
3.66083e-15
4.3051e-15
5.07537e-15
5.99517e-15
7.09253e-15
8.40101e-15
9.96107e-15
1.1822e-14
1.40451e-14
1.67101e-14
1.98543e-14
2.35416e-14
2.79034e-14
3.30598e-14
3.91517e-14
4.63437e-14
5.48289e-14
6.48335e-14
7.66202e-14
9.04967e-14
1.0682e-13
1.26004e-13
1.48522e-13
1.74864e-13
2.05355e-13
2.39447e-13
2.73197e-13
2.90343e-13
2.58045e-13
2.05331e-13
7.07901e-14
-4.5974e-14
4.66096e-12
-2.19113e-13
-3.81753e-12
-9.39443e-12
-6.21711e-13
-3.76718e-12
3.73201e-13
3.71429e-12
1.9946e-12
2.58143e-13
-5.26081e-13
-4.68532e-12
-8.25092e-13
-1.58904e-12
-4.91974e-12
-1.74011e-12
-2.44588e-12
-1.19841e-12
-3.56198e-12
-4.76929e-12
-9.23734e-13
1.75425e-13
7.86711e-13
2.4385e-12
2.80849e-12
2.70121e-12
2.46515e-12
2.21843e-12
1.99e-12
1.78409e-12
1.5995e-12
1.4342e-12
1.28617e-12
1.15357e-12
1.03478e-12
9.28335e-13
8.32945e-13
7.47446e-13
6.708e-13
6.02079e-13
5.40457e-13
4.8519e-13
4.35618e-13
3.91147e-13
3.51247e-13
3.15443e-13
2.83312e-13
2.54473e-13
2.28586e-13
2.05347e-13
1.84484e-13
1.65754e-13
1.48937e-13
1.33836e-13
1.20274e-13
1.08092e-13
9.71507e-14
8.73214e-14
7.84908e-14
7.05568e-14
6.3428e-14
5.70222e-14
5.12658e-14
4.60927e-14
4.14435e-14
3.7265e-14
3.35093e-14
3.01336e-14
2.70992e-14
2.43718e-14
2.19203e-14
1.9717e-14
1.77368e-14
1.59575e-14
1.4359e-14
1.29233e-14
1.16342e-14
1.04773e-14
9.43943e-15
8.50905e-15
7.67564e-15
6.92979e-15
6.26306e-15
5.66788e-15
5.13747e-15
4.66574e-15
4.24728e-15
3.87723e-15
3.5513e-15
3.26566e-15
3.01698e-15
2.80231e-15
2.61911e-15
2.46525e-15
2.33898e-15
2.23922e-15
2.16504e-15
2.16992e-15
)
;
    }
    procBoundary0to2
    {
        type            processor;
        value           nonuniform List<scalar> 
180
(
-1.33279e-16
-2.21947e-16
-3.43385e-16
-4.74612e-16
-6.11986e-16
-7.5587e-16
-9.07742e-16
-1.06931e-15
-1.24237e-15
-1.42881e-15
-1.63061e-15
-1.84992e-15
-2.08904e-15
-2.35048e-15
-2.63698e-15
-2.95155e-15
-3.29751e-15
-3.67851e-15
-4.09861e-15
-4.5623e-15
-5.07456e-15
-5.64089e-15
-6.26742e-15
-6.96092e-15
-7.72891e-15
-8.57972e-15
-9.52256e-15
-1.05675e-14
-1.17255e-14
-1.30087e-14
-1.44303e-14
-1.60045e-14
-1.77476e-14
-1.96776e-14
-2.18146e-14
-2.41806e-14
-2.68001e-14
-2.96999e-14
-3.29093e-14
-3.64611e-14
-4.03909e-14
-4.47383e-14
-4.95469e-14
-5.48647e-14
-6.07449e-14
-6.7246e-14
-7.44328e-14
-8.23764e-14
-9.11552e-14
-1.00856e-13
-1.11576e-13
-1.23421e-13
-1.36507e-13
-1.50962e-13
-1.66929e-13
-1.84562e-13
-2.04032e-13
-2.25529e-13
-2.49259e-13
-2.7545e-13
-3.04351e-13
-3.36236e-13
-3.71407e-13
-4.10191e-13
-4.52948e-13
-5.00069e-13
-5.5198e-13
-6.09144e-13
-6.72088e-13
-7.41462e-13
-8.17944e-13
-9.02314e-13
-9.95438e-13
-1.09828e-12
-1.21167e-12
-1.33507e-12
-1.46195e-12
-1.56854e-12
-1.58113e-12
-1.33958e-12
-1.21291e-13
2.74039e-14
5.74477e-13
2.66731e-13
-3.73065e-12
-4.44629e-12
-4.00039e-13
-4.42381e-12
4.16085e-13
7.67806e-12
1.16375e-11
8.11986e-12
1.15627e-11
1.49336e-11
6.78242e-13
-9.95078e-14
-8.93035e-12
-5.5848e-12
-6.64995e-12
-3.61565e-12
-4.10172e-12
-9.90822e-13
3.71407e-13
8.27576e-13
1.7049e-13
6.34126e-13
6.23138e-13
5.11735e-13
4.1767e-13
3.49477e-13
2.96877e-13
2.53566e-13
2.16682e-13
1.82714e-13
1.53852e-13
1.29352e-13
1.08567e-13
9.09312e-14
7.59842e-14
6.33307e-14
5.26326e-14
4.36e-14
3.59843e-14
2.95729e-14
2.41838e-14
1.96611e-14
1.58711e-14
1.27012e-14
1.00785e-14
7.92878e-15
6.18643e-15
4.80523e-15
3.76541e-15
2.65179e-15
1.71747e-15
9.76872e-16
3.9466e-16
-5.77467e-17
-4.03836e-16
-6.63211e-16
-8.522e-16
-9.84391e-16
-1.07106e-15
-1.12149e-15
-1.14531e-15
-1.14615e-15
-1.12838e-15
-1.09625e-15
-1.05415e-15
-1.00506e-15
-9.51313e-16
-8.94738e-16
-8.36787e-16
-7.78153e-16
-7.20639e-16
-6.64943e-16
-6.11066e-16
-5.59321e-16
-5.10284e-16
-4.64873e-16
-4.2316e-16
-3.84977e-16
-3.50431e-16
-3.18442e-16
-2.89026e-16
-2.62001e-16
-2.37008e-16
-2.13661e-16
-1.91922e-16
-1.71648e-16
-1.52736e-16
-1.35114e-16
-1.18723e-16
-1.03509e-16
-8.94064e-17
-7.62929e-17
-6.38744e-17
-5.17351e-17
-4.08739e-17
-1.77787e-17
)
;
    }
}


// ************************************************************************* //
