FoamFile
{version 2.0; format ascii;class Cloud<passiveParticle>; location 0;object  positions;}
42
(
( 386.311 -486.308 99.8678 ) 0 
( 113.946 -410.041 99.8536 ) 0 
( 94.5534 -210.172 99.9261 ) 0 
( 288.215 -312.063 99.8324 ) 0 
( 104.075 -0.478933 99.9521 ) 0 
( 400.15 -324.21 264.927 ) 0 
( 461.379 -145.386 144.473 ) 0 
( 269.273 -113.063 99.8747 ) 0 
( 40.6382 -329.883 267.692 ) 0 
( 201.457 -40.6539 273.4 ) 0 
( 219.047 -239.746 272.851 ) 0 
( 0.354195 -100.824 238.349 ) 0 
( 187.373 -404.901 380.865 ) 0 
( 90.1078 -224.675 430.312 ) 0 
( 63.1543 -26.5513 427.626 ) 0 
( 377.894 -130.249 325.36 ) 0 
( 329.967 -281.39 447.22 ) 0 
( 452.702 -136.692 510.675 ) 0 
( 243.122 -102.358 470.235 ) 0 
( 327.616 -480.417 501.779 ) 0 
( 432.172 -320.945 616.122 ) 0 
( 154.328 -393.943 577.608 ) 0 
( 102.137 -94.3638 611.722 ) 0 
( 38.2581 -269.897 682.935 ) 0 
( 255.385 -228.112 625.12 ) 0 
( 364.756 -81.3075 708.992 ) 0 
( 289.799 -411.221 723.575 ) 0 
( 165.751 -159.059 789.874 ) 0 
( 480.709 -467.414 743.226 ) 0 
( 343.638 -245.333 821.367 ) 0 
( 100.882 -428.946 786.689 ) 0 
( 255.505 -395.389 919.896 ) 0 
( 9.59538 -246.065 879.378 ) 0 
( 53.0178 -19.9667 878.849 ) 0 
( 232.959 -180.014 976.971 ) 0 
( 390.512 -39.4446 987.936 ) 0 
( 422.775 -236.018 1005.39 ) 0 
( 490.236 -410.423 934.601 ) 0 
( 90.5211 -355.753 1025.67 ) 0 
( 48.896 -136.009 1041.64 ) 0 
( 323.454 -376.689 1107.04 ) 0 
( 175.642 -235.036 1160.48 ) 0 
)
