FoamFile
{version 2.0; format ascii;class vectorField; location 0;object  v;}
42
(
( 3.3792e-05 -5.63706e-06 7.12131e-05 )  
( 1.55523e-05 9.4639e-06 1.35478e-05 )  
( -2.6543e-05 2.46963e-05 -2.84698e-06 )  
( -1.81181e-05 3.63927e-07 1.59712e-05 )  
( 6.28939e-06 -1.30594e-05 -1.62836e-05 )  
( -7.60289e-05 -1.54032e-05 1.60919e-05 )  
( 4.90259e-06 6.24494e-05 4.01577e-05 )  
( 2.5362e-06 3.4474e-05 -7.52699e-06 )  
( -6.69877e-05 -1.12349e-05 6.62659e-05 )  
( 5.99153e-05 1.24939e-06 6.42097e-05 )  
( -6.69858e-05 -1.33951e-05 3.36676e-05 )  
( -1.58161e-05 -3.35132e-05 -3.85802e-05 )  
( -7.6479e-05 -1.79555e-05 0.000147738 )  
( -4.92035e-05 -0.000148929 0.000234261 )  
( 2.16009e-05 2.85914e-05 0.000263964 )  
( -5.16617e-05 1.04918e-05 7.3063e-05 )  
( 1.68314e-05 -0.000116787 -2.15647e-05 )  
( -0.000188338 -6.42333e-05 0.000233891 )  
( -2.5807e-05 -6.51982e-05 0.000264633 )  
( -7.59085e-05 -0.000155505 0.000124244 )  
( 4.96003e-05 2.22892e-05 0.000475163 )  
( 1.54489e-05 -2.30974e-05 0.000407398 )  
( -7.60584e-05 -2.37025e-05 0.000397955 )  
( -3.22777e-05 -2.50151e-05 0.000545323 )  
( 1.73928e-05 3.72623e-05 0.000443328 )  
( 7.03043e-06 6.21234e-05 0.000507445 )  
( 3.74205e-06 2.56038e-05 0.000545264 )  
( -5.93683e-05 2.28488e-07 0.000562898 )  
( 2.94474e-05 1.59973e-05 0.000555856 )  
( 1.75123e-05 7.45313e-05 0.000678249 )  
( -6.51689e-06 1.43158e-05 0.000602122 )  
( -7.06279e-05 7.24861e-05 0.000658982 )  
( -2.67029e-05 -2.8202e-05 0.000686115 )  
( -0.000113281 -5.3117e-05 0.000659383 )  
( 2.95408e-05 -3.36718e-05 0.000633543 )  
( -0.000113423 -9.46745e-05 0.000808605 )  
( -5.54517e-05 -1.72117e-05 0.000738523 )  
( 2.07461e-05 1.58724e-05 0.000713212 )  
( -2.09026e-05 6.97354e-05 0.00075331 )  
( 4.75319e-05 8.01041e-08 0.000787917 )  
( 0.000123907 -5.2648e-05 0.00073272 )  
( 0.000253248 -6.44561e-05 0.000681849 )  
)
