/*--------------------------------*- C++ -*----------------------------------*\
| =========                 |                                                 |
| \\      /  F ield         | OpenFOAM: The Open Source CFD Toolbox           |
|  \\    /   O peration     | Version:  5.x                                   |
|   \\  /    A nd           | Web:      www.OpenFOAM.org                      |
|    \\/     M anipulation  |                                                 |
\*---------------------------------------------------------------------------*/
FoamFile
{
    version     2.0;
    format      ascii;
    class       volVectorField;
    location    "0.07";
    object      U;
}
// * * * * * * * * * * * * * * * * * * * * * * * * * * * * * * * * * * * * * //

dimensions      [0 1 -1 0 0 0 0];

internalField   nonuniform List<vector> 
2250
(
(-2.14958e-10 -1.53071e-10 -0.001)
(-2.15005e-10 -1.49999e-10 -0.001)
(-1.35562e-10 -1.4828e-10 -0.001)
(-6.34947e-11 -1.5628e-10 -0.001)
(-1.61998e-11 -1.66825e-10 -0.001)
(-2.06205e-10 -1.70816e-10 -0.001)
(-1.89313e-10 -1.46705e-10 -0.001)
(-1.30152e-10 -1.39308e-10 -0.001)
(-7.61624e-11 -1.47799e-10 -0.001)
(-2.58096e-11 -1.64699e-10 -0.001)
(-2.05554e-10 -1.20766e-10 -0.001)
(-1.83477e-10 -1.12199e-10 -0.001)
(-1.36662e-10 -1.22036e-10 -0.001)
(-8.92758e-11 -1.37656e-10 -0.001)
(-3.3445e-11 -1.46253e-10 -0.001)
(-2.07589e-10 -6.74122e-11 -0.001)
(-1.9055e-10 -7.29743e-11 -0.001)
(-1.55607e-10 -8.92101e-11 -0.001)
(-1.00694e-10 -9.90888e-11 -0.001)
(-3.4689e-11 -1.03231e-10 -0.001)
(-2.15298e-10 -2.03332e-11 -0.001)
(-2.04808e-10 -2.75668e-11 -0.001)
(-1.62431e-10 -3.49995e-11 -0.001)
(-1.03297e-10 -3.47068e-11 -0.001)
(-3.77231e-11 -3.77331e-11 -0.001)
(-5.96287e-10 -4.25679e-10 -0.001)
(-5.25315e-10 -4.02642e-10 -0.001)
(-3.61437e-10 -4.18507e-10 -0.001)
(-1.9211e-10 -4.55026e-10 -0.001)
(-5.67487e-11 -4.88714e-10 -0.001)
(-5.63072e-10 -4.11097e-10 -0.001)
(-5.20978e-10 -3.97646e-10 -0.001)
(-3.78451e-10 -4.15333e-10 -0.001)
(-2.34045e-10 -4.53812e-10 -0.001)
(-8.36601e-11 -4.90236e-10 -0.001)
(-5.62082e-10 -3.24235e-10 -0.001)
(-5.29595e-10 -3.26396e-10 -0.001)
(-4.17673e-10 -3.53169e-10 -0.001)
(-2.68046e-10 -3.86324e-10 -0.001)
(-9.40771e-11 -4.03292e-10 -0.001)
(-5.84581e-10 -2.07647e-10 -0.001)
(-5.49888e-10 -2.24514e-10 -0.001)
(-4.38381e-10 -2.41659e-10 -0.001)
(-2.84919e-10 -2.58593e-10 -0.001)
(-1.013e-10 -2.59287e-10 -0.001)
(-5.96811e-10 -7.1783e-11 -0.001)
(-5.6247e-10 -7.93868e-11 -0.001)
(-4.50901e-10 -8.54027e-11 -0.001)
(-2.85619e-10 -9.26901e-11 -0.001)
(-9.50149e-11 -8.64303e-11 -0.001)
(-1.0894e-09 -8.09953e-10 -0.001)
(-8.12605e-10 -7.59736e-10 -0.001)
(-6.17554e-10 -7.78635e-10 -0.001)
(-3.78831e-10 -8.31277e-10 -0.001)
(-1.27575e-10 -8.67118e-10 -0.001)
(-1.02408e-09 -6.16963e-10 -0.001)
(-8.8924e-10 -6.83651e-10 -0.001)
(-6.90654e-10 -7.46517e-10 -0.001)
(-4.47355e-10 -8.07447e-10 -0.001)
(-1.58321e-10 -8.48673e-10 -0.001)
(-1.01618e-09 -5.37401e-10 -0.001)
(-9.42149e-10 -5.68749e-10 -0.001)
(-7.41438e-10 -6.10729e-10 -0.001)
(-4.82686e-10 -6.41744e-10 -0.001)
(-1.70297e-10 -6.51362e-10 -0.001)
(-1.0268e-09 -3.78207e-10 -0.001)
(-9.62468e-10 -3.83087e-10 -0.001)
(-7.63645e-10 -3.99785e-10 -0.001)
(-4.89155e-10 -4.06483e-10 -0.001)
(-1.69021e-10 -3.84157e-10 -0.001)
(-1.02391e-09 -1.37489e-10 -0.001)
(-9.61883e-10 -1.3645e-10 -0.001)
(-7.63445e-10 -1.38618e-10 -0.001)
(-4.66896e-10 -1.37578e-10 -0.001)
(-1.48394e-10 -1.17011e-10 -0.001)
(-1.61061e-09 -1.19134e-09 -0.001)
(-1.28213e-09 -1.19197e-09 -0.001)
(-9.86284e-10 -1.2147e-09 -0.001)
(-6.2564e-10 -1.25735e-09 -0.001)
(-2.16033e-10 -1.27385e-09 -0.001)
(-1.58547e-09 -9.45562e-10 -0.001)
(-1.36727e-09 -1.00902e-09 -0.001)
(-1.07588e-09 -1.08781e-09 -0.001)
(-6.9228e-10 -1.15223e-09 -0.001)
(-2.40374e-10 -1.18279e-09 -0.001)
(-1.5622e-09 -7.88898e-10 -0.001)
(-1.42437e-09 -8.21889e-10 -0.001)
(-1.12962e-09 -8.60381e-10 -0.001)
(-7.22906e-10 -8.81427e-10 -0.001)
(-2.48677e-10 -8.76603e-10 -0.001)
(-1.55228e-09 -5.38581e-10 -0.001)
(-1.43862e-09 -5.46802e-10 -0.001)
(-1.13542e-09 -5.48107e-10 -0.001)
(-7.10073e-10 -5.34935e-10 -0.001)
(-2.37066e-10 -5.06845e-10 -0.001)
(-1.53966e-09 -1.90418e-10 -0.001)
(-1.43125e-09 -1.91283e-10 -0.001)
(-1.11573e-09 -1.85529e-10 -0.001)
(-6.81288e-10 -1.73582e-10 -0.001)
(-2.21106e-10 -1.57749e-10 -0.001)
(-2.18549e-09 -1.59203e-09 -0.001)
(-1.98777e-09 -1.67287e-09 -0.001)
(-1.50768e-09 -1.71243e-09 -0.001)
(-9.52587e-10 -1.74063e-09 -0.001)
(-3.28982e-10 -1.746e-09 -0.001)
(-2.23004e-09 -1.44855e-09 -0.001)
(-1.9985e-09 -1.44496e-09 -0.001)
(-1.5626e-09 -1.48935e-09 -0.001)
(-9.96679e-10 -1.53458e-09 -0.001)
(-3.42256e-10 -1.54622e-09 -0.001)
(-2.22445e-09 -1.12172e-09 -0.001)
(-2.02855e-09 -1.13964e-09 -0.001)
(-1.59748e-09 -1.15657e-09 -0.001)
(-1.01244e-09 -1.16697e-09 -0.001)
(-3.43401e-10 -1.15409e-09 -0.001)
(-2.21371e-09 -7.3118e-10 -0.001)
(-2.03315e-09 -7.40169e-10 -0.001)
(-1.58992e-09 -7.32107e-10 -0.001)
(-9.96298e-10 -7.12266e-10 -0.001)
(-3.31423e-10 -7.05107e-10 -0.001)
(-2.19654e-09 -2.54136e-10 -0.001)
(-2.0256e-09 -2.54971e-10 -0.001)
(-1.56665e-09 -2.50258e-10 -0.001)
(-9.84885e-10 -2.34598e-10 -0.001)
(-3.3686e-10 -2.40225e-10 -0.001)
(-2.99768e-09 -2.23256e-09 -0.001)
(-2.83159e-09 -2.31844e-09 -0.001)
(-2.18246e-09 -2.36151e-09 -0.001)
(-1.39483e-09 -2.37503e-09 -0.001)
(-4.83125e-10 -2.37972e-09 -0.001)
(-3.04883e-09 -2.0893e-09 -0.001)
(-2.8073e-09 -2.06304e-09 -0.001)
(-2.20248e-09 -2.07705e-09 -0.001)
(-1.40449e-09 -2.08988e-09 -0.001)
(-4.8282e-10 -2.08431e-09 -0.001)
(-3.06784e-09 -1.59992e-09 -0.001)
(-2.81935e-09 -1.61172e-09 -0.001)
(-2.20956e-09 -1.60512e-09 -0.001)
(-1.40613e-09 -1.60881e-09 -0.001)
(-4.81345e-10 -1.60167e-09 -0.001)
(-3.06441e-09 -1.03968e-09 -0.001)
(-2.81223e-09 -1.03989e-09 -0.001)
(-2.19955e-09 -1.02606e-09 -0.001)
(-1.40397e-09 -1.01785e-09 -0.00100001)
(-4.78519e-10 -1.03921e-09 -0.00100001)
(-3.04965e-09 -3.64724e-10 -0.001)
(-2.80026e-09 -3.61233e-10 -0.001)
(-2.18342e-09 -3.57994e-10 -0.001)
(-1.41851e-09 -3.49122e-10 -0.00100001)
(-5.03538e-10 -3.74395e-10 -0.00100001)
(-4.23859e-09 -3.31443e-09 -0.001)
(-3.81552e-09 -3.29262e-09 -0.001)
(-3.04832e-09 -3.29703e-09 -0.001)
(-1.98858e-09 -3.28291e-09 -0.001)
(-6.93438e-10 -3.28551e-09 -0.001)
(-4.19992e-09 -2.89945e-09 -0.001)
(-3.84257e-09 -2.93528e-09 -0.001)
(-3.05356e-09 -2.9471e-09 -0.001)
(-1.96982e-09 -2.93328e-09 -0.00100001)
(-6.83874e-10 -2.91591e-09 -0.00100001)
(-4.20505e-09 -2.28414e-09 -0.001)
(-3.86317e-09 -2.3065e-09 -0.001)
(-3.04667e-09 -2.29346e-09 -0.00100001)
(-1.96303e-09 -2.2931e-09 -0.00100001)
(-6.81388e-10 -2.29381e-09 -0.00100001)
(-4.1985e-09 -1.50056e-09 -0.001)
(-3.85151e-09 -1.49116e-09 -0.00100001)
(-3.04013e-09 -1.478e-09 -0.00100001)
(-1.97439e-09 -1.48559e-09 -0.00100001)
(-6.88637e-10 -1.51666e-09 -0.00100001)
(-4.18645e-09 -5.29585e-10 -0.001)
(-3.83301e-09 -5.2109e-10 -0.00100001)
(-3.03538e-09 -5.18395e-10 -0.00100001)
(-2.00072e-09 -5.21886e-10 -0.00100001)
(-7.13718e-10 -5.47292e-10 -0.00100001)
(-5.86615e-09 -4.73007e-09 -0.001)
(-5.20467e-09 -4.65271e-09 -0.001)
(-4.21631e-09 -4.60669e-09 -0.00100001)
(-2.76752e-09 -4.56013e-09 -0.00100001)
(-9.63262e-10 -4.55644e-09 -0.00100001)
(-5.797e-09 -4.08462e-09 -0.001)
(-5.246e-09 -4.14118e-09 -0.001)
(-4.2013e-09 -4.14378e-09 -0.00100001)
(-2.72941e-09 -4.11297e-09 -0.00100001)
(-9.53739e-10 -4.08895e-09 -0.00100001)
(-5.77062e-09 -3.24153e-09 -0.001)
(-5.26383e-09 -3.26193e-09 -0.00100001)
(-4.18858e-09 -3.24889e-09 -0.00100001)
(-2.72061e-09 -3.24664e-09 -0.00100001)
(-9.46703e-10 -3.24594e-09 -0.00100001)
(-5.74867e-09 -2.11782e-09 -0.00100001)
(-5.25284e-09 -2.10167e-09 -0.00100001)
(-4.18598e-09 -2.09803e-09 -0.00100001)
(-2.73245e-09 -2.10959e-09 -0.00100001)
(-9.588e-10 -2.12776e-09 -0.00100001)
(-5.73376e-09 -7.40418e-10 -0.00100001)
(-5.23368e-09 -7.32741e-10 -0.00100001)
(-4.18861e-09 -7.31163e-10 -0.00100001)
(-2.74911e-09 -7.42977e-10 -0.00100001)
(-9.668e-10 -7.51397e-10 -0.00100001)
(-7.93212e-09 -6.43336e-09 -0.001)
(-7.2283e-09 -6.40546e-09 -0.001)
(-5.80493e-09 -6.3443e-09 -0.00100001)
(-3.76809e-09 -6.28841e-09 -0.00100001)
(-1.29911e-09 -6.27852e-09 -0.00100001)
(-7.92398e-09 -5.77369e-09 -0.001)
(-7.19141e-09 -5.75489e-09 -0.00100001)
(-5.74149e-09 -5.71069e-09 -0.00100001)
(-3.71919e-09 -5.67213e-09 -0.00100001)
(-1.29549e-09 -5.6465e-09 -0.00100001)
(-7.88979e-09 -4.53609e-09 -0.00100001)
(-7.1653e-09 -4.51634e-09 -0.00100001)
(-5.72283e-09 -4.50049e-09 -0.00100001)
(-3.71487e-09 -4.49822e-09 -0.00100001)
(-1.28382e-09 -4.49236e-09 -0.00100001)
(-7.86086e-09 -2.91181e-09 -0.00100001)
(-7.15511e-09 -2.89504e-09 -0.00100001)
(-5.72334e-09 -2.90541e-09 -0.00100001)
(-3.71942e-09 -2.90941e-09 -0.00100001)
(-1.29769e-09 -2.91071e-09 -0.00100001)
(-7.84677e-09 -1.00202e-09 -0.00100001)
(-7.14487e-09 -1.00492e-09 -0.00100001)
(-5.72639e-09 -1.00509e-09 -0.00100001)
(-3.71858e-09 -1.0184e-09 -0.00100001)
(-1.28792e-09 -1.00917e-09 -0.00100001)
(-1.07507e-08 -8.68093e-09 -0.001)
(-9.92242e-09 -8.69204e-09 -0.00100001)
(-7.87567e-09 -8.64368e-09 -0.00100001)
(-5.04936e-09 -8.61106e-09 -0.00100001)
(-1.72698e-09 -8.59877e-09 -0.00100001)
(-1.07713e-08 -7.95317e-09 -0.00100001)
(-9.80143e-09 -7.8494e-09 -0.00100001)
(-7.78484e-09 -7.77107e-09 -0.00100001)
(-5.01374e-09 -7.74525e-09 -0.00100001)
(-1.734e-09 -7.73107e-09 -0.00100002)
(-1.07431e-08 -6.2133e-09 -0.00100001)
(-9.74032e-09 -6.16229e-09 -0.00100001)
(-7.77241e-09 -6.15276e-09 -0.00100001)
(-5.02448e-09 -6.15889e-09 -0.00100002)
(-1.72702e-09 -6.15387e-09 -0.00100002)
(-1.0725e-08 -3.95205e-09 -0.00100001)
(-9.73994e-09 -3.95266e-09 -0.00100001)
(-7.78139e-09 -3.97681e-09 -0.00100002)
(-5.02637e-09 -3.9744e-09 -0.00100002)
(-1.74011e-09 -3.96492e-09 -0.00100002)
(-1.07185e-08 -1.34982e-09 -0.00100001)
(-9.74604e-09 -1.37042e-09 -0.00100001)
(-7.7794e-09 -1.37393e-09 -0.00100002)
(-5.01052e-09 -1.3827e-09 -0.00100002)
(-1.72148e-09 -1.36477e-09 -0.00100002)
(-1.46819e-08 -1.18263e-08 -0.001)
(-1.33783e-08 -1.18061e-08 -0.00100001)
(-1.05759e-08 -1.17756e-08 -0.00100001)
(-6.75881e-09 -1.17762e-08 -0.00100002)
(-2.31083e-09 -1.17589e-08 -0.00100002)
(-1.46506e-08 -1.07249e-08 -0.00100001)
(-1.32717e-08 -1.0628e-08 -0.00100001)
(-1.05235e-08 -1.05775e-08 -0.00100002)
(-6.76103e-09 -1.05831e-08 -0.00100002)
(-2.32882e-09 -1.05854e-08 -0.00100002)
(-1.46215e-08 -8.43013e-09 -0.00100001)
(-1.32309e-08 -8.39708e-09 -0.00100002)
(-1.05322e-08 -8.40596e-09 -0.00100002)
(-6.78747e-09 -8.42337e-09 -0.00100002)
(-2.33271e-09 -8.4152e-09 -0.00100002)
(-1.46135e-08 -5.39082e-09 -0.00100001)
(-1.32463e-08 -5.41497e-09 -0.00100002)
(-1.05497e-08 -5.44239e-09 -0.00100002)
(-6.78609e-09 -5.43353e-09 -0.00100002)
(-2.33593e-09 -5.41348e-09 -0.00100003)
(-1.46037e-08 -1.84987e-09 -0.00100001)
(-1.32566e-08 -1.88002e-09 -0.00100002)
(-1.05308e-08 -1.88476e-09 -0.00100002)
(-6.7559e-09 -1.88048e-09 -0.00100003)
(-2.31815e-09 -1.86357e-09 -0.00100003)
(-2.00737e-08 -1.62079e-08 -0.00100001)
(-1.80179e-08 -1.61104e-08 -0.00100001)
(-1.42691e-08 -1.60856e-08 -0.00100002)
(-9.14097e-09 -1.60944e-08 -0.00100002)
(-3.13786e-09 -1.60588e-08 -0.00100002)
(-1.995e-08 -1.45022e-08 -0.00100001)
(-1.79909e-08 -1.4473e-08 -0.00100002)
(-1.42669e-08 -1.44641e-08 -0.00100002)
(-9.16409e-09 -1.44808e-08 -0.00100003)
(-3.15289e-09 -1.44752e-08 -0.00100003)
(-1.99064e-08 -1.15135e-08 -0.00100002)
(-1.79799e-08 -1.15013e-08 -0.00100002)
(-1.42786e-08 -1.15097e-08 -0.00100003)
(-9.18049e-09 -1.15157e-08 -0.00100003)
(-3.15904e-09 -1.1489e-08 -0.00100003)
(-1.98857e-08 -7.42495e-09 -0.00100002)
(-1.79853e-08 -7.43956e-09 -0.00100002)
(-1.42812e-08 -7.4433e-09 -0.00100003)
(-9.16506e-09 -7.42022e-09 -0.00100003)
(-3.14718e-09 -7.39326e-09 -0.00100004)
(-1.98467e-08 -2.56634e-09 -0.00100002)
(-1.7963e-08 -2.58069e-09 -0.00100003)
(-1.42322e-08 -2.57752e-09 -0.00100003)
(-9.12703e-09 -2.558e-09 -0.00100003)
(-3.1396e-09 -2.55155e-09 -0.00100004)
(-2.7366e-08 -2.21917e-08 -0.00100001)
(-2.44695e-08 -2.2006e-08 -0.00100002)
(-1.93955e-08 -2.19559e-08 -0.00100002)
(-1.24497e-08 -2.19393e-08 -0.00100003)
(-4.28449e-09 -2.18768e-08 -0.00100003)
(-2.71522e-08 -1.98242e-08 -0.00100001)
(-2.44524e-08 -1.97961e-08 -0.00100002)
(-1.93917e-08 -1.97827e-08 -0.00100003)
(-1.24518e-08 -1.9766e-08 -0.00100004)
(-4.28118e-09 -1.97246e-08 -0.00100004)
(-2.70739e-08 -1.57956e-08 -0.00100002)
(-2.44281e-08 -1.57607e-08 -0.00100003)
(-1.93677e-08 -1.57323e-08 -0.00100004)
(-1.24303e-08 -1.57e-08 -0.00100004)
(-4.27954e-09 -1.56535e-08 -0.00100004)
(-2.70223e-08 -1.0212e-08 -0.00100002)
(-2.43866e-08 -1.01778e-08 -0.00100003)
(-1.93308e-08 -1.01387e-08 -0.00100004)
(-1.24025e-08 -1.01059e-08 -0.00100005)
(-4.26325e-09 -1.0083e-08 -0.00100005)
(-2.69396e-08 -3.53507e-09 -0.00100003)
(-2.4307e-08 -3.51574e-09 -0.00100004)
(-1.92591e-08 -3.50094e-09 -0.00100004)
(-1.237e-08 -3.47959e-09 -0.00100005)
(-4.26692e-09 -3.48477e-09 -0.00100005)
(-3.71736e-08 -3.02401e-08 -0.00100001)
(-3.32731e-08 -2.99913e-08 -0.00100002)
(-2.64003e-08 -2.98974e-08 -0.00100003)
(-1.69642e-08 -2.98374e-08 -0.00100004)
(-5.8419e-09 -2.97472e-08 -0.00100004)
(-3.69043e-08 -2.7075e-08 -0.00100002)
(-3.32297e-08 -2.70189e-08 -0.00100003)
(-2.63609e-08 -2.69709e-08 -0.00100004)
(-1.69244e-08 -2.69029e-08 -0.00100005)
(-5.81897e-09 -2.68227e-08 -0.00100005)
(-3.67845e-08 -2.15728e-08 -0.00100003)
(-3.3169e-08 -2.15024e-08 -0.00100004)
(-2.62873e-08 -2.14264e-08 -0.00100005)
(-1.68687e-08 -2.13586e-08 -0.00100006)
(-5.81148e-09 -2.13021e-08 -0.00100006)
(-3.67027e-08 -1.39195e-08 -0.00100003)
(-3.308e-08 -1.38425e-08 -0.00100004)
(-2.62169e-08 -1.37734e-08 -0.00100005)
(-1.68403e-08 -1.37442e-08 -0.00100006)
(-5.80146e-09 -1.37211e-08 -0.00100006)
(-3.65837e-08 -4.8054e-09 -0.00100004)
(-3.2958e-08 -4.76379e-09 -0.00100005)
(-2.61391e-08 -4.74521e-09 -0.00100006)
(-1.68104e-08 -4.7343e-09 -0.00100006)
(-5.80249e-09 -4.73738e-09 -0.00100007)
(-5.04035e-08 -4.10531e-08 -0.00100001)
(-4.51901e-08 -4.07949e-08 -0.00100003)
(-3.59201e-08 -4.06493e-08 -0.00100004)
(-2.3105e-08 -4.05348e-08 -0.00100005)
(-7.95729e-09 -4.04124e-08 -0.00100006)
(-5.01348e-08 -3.68225e-08 -0.00100003)
(-4.5146e-08 -3.67699e-08 -0.00100004)
(-3.58381e-08 -3.66816e-08 -0.00100006)
(-2.30233e-08 -3.65697e-08 -0.00100006)
(-7.92454e-09 -3.64559e-08 -0.00100007)
(-4.99708e-08 -2.93288e-08 -0.00100004)
(-4.50492e-08 -2.92369e-08 -0.00100005)
(-3.57241e-08 -2.91218e-08 -0.00100007)
(-2.29513e-08 -2.90311e-08 -0.00100008)
(-7.91138e-09 -2.89546e-08 -0.00100008)
(-4.98558e-08 -1.88841e-08 -0.00100005)
(-4.49346e-08 -1.87919e-08 -0.00100006)
(-3.5632e-08 -1.87101e-08 -0.00100007)
(-2.2911e-08 -1.86729e-08 -0.00100008)
(-7.9013e-09 -1.86234e-08 -0.00100009)
(-4.97043e-08 -6.50434e-09 -0.00100005)
(-4.47868e-08 -6.46255e-09 -0.00100006)
(-3.55371e-08 -6.44065e-09 -0.00100008)
(-2.28563e-08 -6.43359e-09 -0.00100009)
(-7.88114e-09 -6.41626e-09 -0.00100009)
(-6.84718e-08 -5.57963e-08 -0.00100002)
(-6.1482e-08 -5.5479e-08 -0.00100004)
(-4.89045e-08 -5.52378e-08 -0.00100006)
(-3.147e-08 -5.50461e-08 -0.00100007)
(-1.08401e-08 -5.48712e-08 -0.00100008)
(-6.81479e-08 -5.01029e-08 -0.00100004)
(-6.13841e-08 -5.00009e-08 -0.00100006)
(-4.87478e-08 -4.98329e-08 -0.00100008)
(-3.13445e-08 -4.9674e-08 -0.00100009)
(-1.08022e-08 -4.95091e-08 -0.0010001)
(-6.78971e-08 -3.98668e-08 -0.00100005)
(-6.1212e-08 -3.97185e-08 -0.00100007)
(-4.85833e-08 -3.95496e-08 -0.00100009)
(-3.12443e-08 -3.94188e-08 -0.0010001)
(-1.07679e-08 -3.92899e-08 -0.00100011)
(-6.77106e-08 -2.56449e-08 -0.00100006)
(-6.10608e-08 -2.55238e-08 -0.00100008)
(-4.84478e-08 -2.54129e-08 -0.0010001)
(-3.11596e-08 -2.53325e-08 -0.00100011)
(-1.07458e-08 -2.52369e-08 -0.00100012)
(-6.74935e-08 -8.83246e-09 -0.00100007)
(-6.08595e-08 -8.78654e-09 -0.00100009)
(-4.82992e-08 -8.74589e-09 -0.00100011)
(-3.10568e-08 -8.72798e-09 -0.00100012)
(-1.06985e-08 -8.68451e-09 -0.00100012)
(-9.31309e-08 -7.59006e-08 -0.00100003)
(-8.38179e-08 -7.54268e-08 -0.00100006)
(-6.66076e-08 -7.50262e-08 -0.00100008)
(-4.28554e-08 -7.47219e-08 -0.0010001)
(-1.47681e-08 -7.44526e-08 -0.00100011)
(-9.26414e-08 -6.82923e-08 -0.00100005)
(-8.35027e-08 -6.79712e-08 -0.00100008)
(-6.63091e-08 -6.76468e-08 -0.0010001)
(-4.26529e-08 -6.74011e-08 -0.00100012)
(-1.47053e-08 -6.71447e-08 -0.00100013)
(-9.22356e-08 -5.42377e-08 -0.00100007)
(-8.31723e-08 -5.3938e-08 -0.0010001)
(-6.60453e-08 -5.36654e-08 -0.00100012)
(-4.24872e-08 -5.34583e-08 -0.00100014)
(-1.46381e-08 -5.32509e-08 -0.00100015)
(-9.19196e-08 -3.48749e-08 -0.00100008)
(-8.29221e-08 -3.46605e-08 -0.00100011)
(-6.5829e-08 -3.44845e-08 -0.00100014)
(-4.23403e-08 -3.43395e-08 -0.00100015)
(-1.45967e-08 -3.42003e-08 -0.00100016)
(-9.15795e-08 -1.20196e-08 -0.00100009)
(-8.26175e-08 -1.19403e-08 -0.00100012)
(-6.55977e-08 -1.18715e-08 -0.00100014)
(-4.21872e-08 -1.18319e-08 -0.00100016)
(-1.45344e-08 -1.17749e-08 -0.00100017)
(-1.26583e-07 -1.03127e-07 -0.00100004)
(-1.14202e-07 -1.02432e-07 -0.00100008)
(-9.06619e-08 -1.01822e-07 -0.00100011)
(-5.83062e-08 -1.01369e-07 -0.00100013)
(-2.00928e-08 -1.00969e-07 -0.00100014)
(-1.25857e-07 -9.29774e-08 -0.00100007)
(-1.1355e-07 -9.23181e-08 -0.00100011)
(-9.01538e-08 -9.17697e-08 -0.00100014)
(-5.79857e-08 -9.13791e-08 -0.00100016)
(-1.99862e-08 -9.10026e-08 -0.00100018)
(-1.25237e-07 -7.37395e-08 -0.0010001)
(-1.12994e-07 -7.32041e-08 -0.00100013)
(-8.97335e-08 -7.27735e-08 -0.00100017)
(-5.77214e-08 -7.24586e-08 -0.00100019)
(-1.98886e-08 -7.21547e-08 -0.0010002)
(-1.24755e-07 -4.73994e-08 -0.00100011)
(-1.12573e-07 -4.70375e-08 -0.00100015)
(-8.94077e-08 -4.67628e-08 -0.00100018)
(-5.75057e-08 -4.65467e-08 -0.00100021)
(-1.98169e-08 -4.63576e-08 -0.00100022)
(-1.24256e-07 -1.63348e-08 -0.00100012)
(-1.12133e-07 -1.62061e-08 -0.00100016)
(-8.907e-08 -1.61085e-08 -0.00100019)
(-5.72947e-08 -1.60361e-08 -0.00100022)
(-1.97479e-08 -1.59745e-08 -0.00100023)
(-1.72052e-07 -1.40097e-07 -0.00100005)
(-1.55339e-07 -1.3904e-07 -0.0010001)
(-1.23289e-07 -1.38131e-07 -0.00100015)
(-7.92667e-08 -1.37472e-07 -0.00100018)
(-2.73091e-08 -1.36891e-07 -0.0010002)
(-1.70966e-07 -1.26315e-07 -0.00100009)
(-1.54308e-07 -1.25277e-07 -0.00100014)
(-1.22525e-07 -1.24456e-07 -0.00100019)
(-7.87976e-08 -1.23857e-07 -0.00100022)
(-2.71503e-08 -1.23323e-07 -0.00100024)
(-1.70027e-07 -1.00127e-07 -0.00100013)
(-1.5348e-07 -9.9311e-08 -0.00100018)
(-1.21883e-07 -9.86585e-08 -0.00100022)
(-7.83819e-08 -9.81803e-08 -0.00100026)
(-2.70095e-08 -9.77421e-08 -0.00100027)
(-1.69327e-07 -6.43471e-08 -0.00100016)
(-1.52825e-07 -6.381e-08 -0.00100021)
(-1.21393e-07 -6.33808e-08 -0.00100025)
(-7.80704e-08 -6.30679e-08 -0.00100028)
(-2.68957e-08 -6.27937e-08 -0.0010003)
(-1.68629e-07 -2.21629e-08 -0.00100017)
(-1.52208e-07 -2.19809e-08 -0.00100022)
(-1.20906e-07 -2.18379e-08 -0.00100026)
(-7.77652e-08 -2.17223e-08 -0.0010003)
(-2.68015e-08 -2.1638e-08 -0.00100031)
(-2.3394e-07 -1.90387e-07 -0.00100007)
(-2.11207e-07 -1.88752e-07 -0.00100014)
(-1.67664e-07 -1.87367e-07 -0.0010002)
(-1.07809e-07 -1.86353e-07 -0.00100024)
(-3.7141e-08 -1.85471e-07 -0.00100027)
(-2.32308e-07 -1.71528e-07 -0.00100013)
(-2.09661e-07 -1.69968e-07 -0.0010002)
(-1.66504e-07 -1.68723e-07 -0.00100026)
(-1.07067e-07 -1.67783e-07 -0.0010003)
(-3.68812e-08 -1.66988e-07 -0.00100032)
(-2.30868e-07 -1.35912e-07 -0.00100018)
(-2.08401e-07 -1.34691e-07 -0.00100025)
(-1.65499e-07 -1.33676e-07 -0.0010003)
(-1.06413e-07 -1.32929e-07 -0.00100035)
(-3.66665e-08 -1.32301e-07 -0.00100037)
(-2.29797e-07 -8.73005e-08 -0.00100021)
(-2.07404e-07 -8.65124e-08 -0.00100028)
(-1.64741e-07 -8.58431e-08 -0.00100034)
(-1.0595e-07 -8.53738e-08 -0.00100038)
(-3.65037e-08 -8.49707e-08 -0.0010004)
(-2.28801e-07 -3.00506e-08 -0.00100023)
(-2.06527e-07 -2.97906e-08 -0.0010003)
(-1.64039e-07 -2.95716e-08 -0.00100036)
(-1.055e-07 -2.94014e-08 -0.0010004)
(-3.63537e-08 -2.9265e-08 -0.00100042)
(-3.18114e-07 -2.58645e-07 -0.00100009)
(-2.87325e-07 -2.56158e-07 -0.00100019)
(-2.28129e-07 -2.54009e-07 -0.00100027)
(-1.46689e-07 -2.52409e-07 -0.00100033)
(-5.05337e-08 -2.51103e-07 -0.00100036)
(-3.15641e-07 -2.32982e-07 -0.00100017)
(-2.84934e-07 -2.30557e-07 -0.00100027)
(-2.2627e-07 -2.2856e-07 -0.00100035)
(-1.45493e-07 -2.27082e-07 -0.00100041)
(-5.01218e-08 -2.25905e-07 -0.00100044)
(-3.13426e-07 -1.84501e-07 -0.00100024)
(-2.82903e-07 -1.82582e-07 -0.00100033)
(-2.24681e-07 -1.8098e-07 -0.00100041)
(-1.44497e-07 -1.79825e-07 -0.00100047)
(-4.97943e-08 -1.78911e-07 -0.0010005)
(-3.11741e-07 -1.18402e-07 -0.00100029)
(-2.81385e-07 -1.17203e-07 -0.00100038)
(-2.23512e-07 -1.16184e-07 -0.00100046)
(-1.43776e-07 -1.15455e-07 -0.00100052)
(-4.95503e-08 -1.14857e-07 -0.00100055)
(-3.10292e-07 -4.07351e-08 -0.00100031)
(-2.80115e-07 -4.03473e-08 -0.00100041)
(-2.22493e-07 -4.00095e-08 -0.00100048)
(-1.43114e-07 -3.97565e-08 -0.00100054)
(-4.93195e-08 -3.95446e-08 -0.00100057)
(-4.32776e-07 -3.51385e-07 -0.00100013)
(-3.90864e-07 -3.47486e-07 -0.00100026)
(-3.10372e-07 -3.44138e-07 -0.00100037)
(-1.99585e-07 -3.4167e-07 -0.00100045)
(-6.87706e-08 -3.39792e-07 -0.0010005)
(-4.28831e-07 -3.16209e-07 -0.00100023)
(-3.87206e-07 -3.12486e-07 -0.00100036)
(-3.07499e-07 -3.09361e-07 -0.00100047)
(-1.97779e-07 -3.07126e-07 -0.00100056)
(-6.81629e-08 -3.05397e-07 -0.0010006)
(-4.2537e-07 -2.50282e-07 -0.00100032)
(-3.84017e-07 -2.47294e-07 -0.00100045)
(-3.05047e-07 -2.44819e-07 -0.00100056)
(-1.96252e-07 -2.4304e-07 -0.00100064)
(-6.764e-08 -2.41656e-07 -0.00100068)
(-4.22741e-07 -1.6051e-07 -0.00100039)
(-3.81704e-07 -1.58644e-07 -0.00100052)
(-3.03243e-07 -1.5709e-07 -0.00100062)
(-1.95096e-07 -1.55939e-07 -0.0010007)
(-6.72466e-08 -1.55042e-07 -0.00100074)
(-4.20606e-07 -5.52123e-08 -0.00100042)
(-3.79818e-07 -5.45977e-08 -0.00100055)
(-3.01742e-07 -5.40699e-08 -0.00100066)
(-1.94127e-07 -5.36815e-08 -0.00100074)
(-6.691e-08 -5.33709e-08 -0.00100078)
(-5.88842e-07 -4.7733e-07 -0.00100017)
(-5.31614e-07 -4.71231e-07 -0.00100035)
(-4.22268e-07 -4.66069e-07 -0.00100051)
(-2.71642e-07 -4.62282e-07 -0.00100062)
(-9.36258e-08 -4.59467e-07 -0.00100068)
(-5.82601e-07 -4.28796e-07 -0.00100032)
(-5.26082e-07 -4.23147e-07 -0.00100049)
(-4.17923e-07 -4.18405e-07 -0.00100065)
(-2.68879e-07 -4.14984e-07 -0.00100075)
(-9.2678e-08 -4.12394e-07 -0.00100081)
(-5.77169e-07 -3.39133e-07 -0.00100044)
(-5.21223e-07 -3.34563e-07 -0.00100061)
(-4.14154e-07 -3.30769e-07 -0.00100076)
(-2.66494e-07 -3.28007e-07 -0.00100087)
(-9.18545e-08 -3.25933e-07 -0.00100093)
(-5.73086e-07 -2.1739e-07 -0.00100053)
(-5.17665e-07 -2.14469e-07 -0.0010007)
(-4.11364e-07 -2.12059e-07 -0.00100085)
(-2.64698e-07 -2.10275e-07 -0.00100095)
(-9.12424e-08 -2.08956e-07 -0.00100101)
(-5.69906e-07 -7.47785e-08 -0.00100057)
(-5.14826e-07 -7.37814e-08 -0.00100074)
(-4.09138e-07 -7.29583e-08 -0.00100089)
(-2.63283e-07 -7.23565e-08 -0.001001)
(-9.07634e-08 -7.19137e-08 -0.00100105)
(-8.00874e-07 -6.47978e-07 -0.00100024)
(-7.23305e-07 -6.38658e-07 -0.00100048)
(-5.74696e-07 -6.30773e-07 -0.00100069)
(-3.69746e-07 -6.24988e-07 -0.00100084)
(-1.27415e-07 -6.20774e-07 -0.00100092)
(-7.91326e-07 -5.81271e-07 -0.00100043)
(-7.14756e-07 -5.72547e-07 -0.00100067)
(-5.67987e-07 -5.65278e-07 -0.00100088)
(-3.65469e-07 -5.59971e-07 -0.00100103)
(-1.2596e-07 -5.56158e-07 -0.0010011)
(-7.82914e-07 -4.59041e-07 -0.0010006)
(-7.07312e-07 -4.52006e-07 -0.00100083)
(-5.62186e-07 -4.46163e-07 -0.00100103)
(-3.61803e-07 -4.41911e-07 -0.00100118)
(-1.24721e-07 -4.38887e-07 -0.00100126)
(-7.76584e-07 -2.94022e-07 -0.00100071)
(-7.01806e-07 -2.89475e-07 -0.00100095)
(-5.57887e-07 -2.85716e-07 -0.00100115)
(-3.59087e-07 -2.82993e-07 -0.00100129)
(-1.23807e-07 -2.81061e-07 -0.00100137)
(-7.71832e-07 -1.01119e-07 -0.00100078)
(-6.97548e-07 -9.95454e-08 -0.00100101)
(-5.54578e-07 -9.82566e-08 -0.00100121)
(-3.56998e-07 -9.73335e-08 -0.00100135)
(-1.23099e-07 -9.66761e-08 -0.00100143)
(-1.08929e-06 -8.79211e-07 -0.00100033)
(-9.84155e-07 -8.64936e-07 -0.00100066)
(-7.82071e-07 -8.52928e-07 -0.00100094)
(-5.03207e-07 -8.442e-07 -0.00100115)
(-1.73403e-07 -8.38031e-07 -0.00100126)
(-1.0746e-06 -7.87161e-07 -0.00100059)
(-9.70981e-07 -7.73683e-07 -0.00100091)
(-7.71832e-07 -7.62561e-07 -0.00100119)
(-4.96769e-07 -7.54514e-07 -0.0010014)
(-1.71247e-07 -7.48966e-07 -0.0010015)
(-1.06159e-06 -6.20481e-07 -0.00100081)
(-9.59554e-07 -6.09579e-07 -0.00100113)
(-7.62993e-07 -6.00597e-07 -0.0010014)
(-4.91221e-07 -5.94124e-07 -0.0010016)
(-1.69384e-07 -5.89692e-07 -0.00100171)
(-1.05174e-06 -3.96979e-07 -0.00100097)
(-9.50998e-07 -3.89878e-07 -0.00100128)
(-7.56371e-07 -3.84036e-07 -0.00100155)
(-4.87083e-07 -3.79863e-07 -0.00100175)
(-1.68003e-07 -3.76976e-07 -0.00100185)
(-1.04453e-06 -1.36451e-07 -0.00100105)
(-9.44611e-07 -1.33992e-07 -0.00100136)
(-7.51434e-07 -1.31979e-07 -0.00100163)
(-4.83949e-07 -1.30561e-07 -0.00100183)
(-1.66917e-07 -1.29546e-07 -0.00100193)
(-1.48178e-06 -1.19231e-06 -0.00100045)
(-1.33874e-06 -1.1705e-06 -0.0010009)
(-1.06421e-06 -1.15233e-06 -0.00100129)
(-6.85053e-07 -1.13915e-06 -0.00100157)
(-2.36174e-07 -1.13006e-06 -0.00100172)
(-1.45916e-06 -1.06418e-06 -0.0010008)
(-1.3188e-06 -1.04357e-06 -0.00100124)
(-1.04883e-06 -1.02674e-06 -0.00100162)
(-6.75383e-07 -1.01468e-06 -0.0010019)
(-2.3291e-07 -1.00653e-06 -0.00100204)
(-1.43891e-06 -8.3702e-07 -0.0010011)
(-1.3013e-06 -8.20052e-07 -0.00100153)
(-1.03543e-06 -8.06273e-07 -0.0010019)
(-6.67044e-07 -7.9644e-07 -0.00100217)
(-2.30122e-07 -7.8989e-07 -0.00100232)
(-1.42342e-06 -5.34755e-07 -0.00100131)
(-1.28792e-06 -5.23548e-07 -0.00100173)
(-1.02521e-06 -5.14483e-07 -0.0010021)
(-6.6066e-07 -5.08047e-07 -0.00100237)
(-2.27981e-07 -5.03754e-07 -0.00100251)
(-1.41234e-06 -1.83659e-07 -0.00100142)
(-1.27829e-06 -1.79782e-07 -0.00100184)
(-1.01781e-06 -1.76656e-07 -0.0010022)
(-6.56014e-07 -1.7446e-07 -0.00100247)
(-2.26397e-07 -1.72978e-07 -0.00100261)
(-2.01567e-06 -1.61544e-06 -0.00100062)
(-1.82128e-06 -1.5824e-06 -0.00100123)
(-1.44858e-06 -1.55514e-06 -0.00100176)
(-9.33002e-07 -1.53521e-06 -0.00100214)
(-3.21791e-07 -1.52186e-06 -0.00100235)
(-1.98114e-06 -1.43607e-06 -0.0010011)
(-1.79111e-06 -1.40443e-06 -0.0010017)
(-1.42545e-06 -1.37905e-06 -0.00100221)
(-9.18461e-07 -1.36098e-06 -0.00100258)
(-3.16889e-07 -1.34919e-06 -0.00100278)
(-1.94958e-06 -1.12608e-06 -0.00100149)
(-1.76426e-06 -1.09946e-06 -0.00100207)
(-1.4053e-06 -1.07836e-06 -0.00100258)
(-9.06135e-07 -1.06343e-06 -0.00100295)
(-3.12855e-07 -1.05388e-06 -0.00100314)
(-1.92497e-06 -7.18221e-07 -0.00100177)
(-1.7432e-06 -7.00302e-07 -0.00100234)
(-1.38941e-06 -6.86224e-07 -0.00100284)
(-8.96242e-07 -6.76286e-07 -0.0010032)
(-3.09545e-07 -6.70034e-07 -0.00100339)
(-1.90778e-06 -2.46567e-07 -0.00100192)
(-1.7285e-06 -2.40318e-07 -0.00100248)
(-1.37837e-06 -2.35485e-07 -0.00100297)
(-8.89512e-07 -2.32125e-07 -0.00100333)
(-3.07365e-07 -2.30093e-07 -0.00100352)
(-2.74253e-06 -2.18651e-06 -0.00100086)
(-2.47788e-06 -2.13629e-06 -0.0010017)
(-1.97222e-06 -2.09588e-06 -0.00100241)
(-1.27101e-06 -2.06588e-06 -0.00100293)
(-4.38572e-07 -2.04653e-06 -0.00100321)
(-2.68974e-06 -1.93291e-06 -0.0010015)
(-2.43223e-06 -1.88386e-06 -0.00100231)
(-1.93777e-06 -1.84623e-06 -0.00100301)
(-1.24942e-06 -1.81957e-06 -0.00100352)
(-4.31406e-07 -1.80318e-06 -0.00100379)
(-2.64045e-06 -1.50926e-06 -0.00100202)
(-2.39119e-06 -1.46699e-06 -0.00100281)
(-1.90816e-06 -1.43495e-06 -0.00100349)
(-1.23206e-06 -1.41231e-06 -0.001004)
(-4.26078e-07 -1.39882e-06 -0.00100426)
(-2.60074e-06 -9.60956e-07 -0.00100238)
(-2.35767e-06 -9.31751e-07 -0.00100315)
(-1.88307e-06 -9.10033e-07 -0.00100383)
(-1.21635e-06 -8.94459e-07 -0.00100432)
(-4.209e-07 -8.85556e-07 -0.00100458)
(-2.57362e-06 -3.30105e-07 -0.00100258)
(-2.33508e-06 -3.19758e-07 -0.00100334)
(-1.86684e-06 -3.12511e-07 -0.001004)
(-1.20695e-06 -3.07459e-07 -0.00100449)
(-4.18188e-07 -3.04963e-07 -0.00100475)
(-3.73314e-06 -2.95579e-06 -0.00100122)
(-3.37008e-06 -2.87804e-06 -0.00100234)
(-2.68554e-06 -2.81972e-06 -0.00100332)
(-1.73199e-06 -2.77424e-06 -0.00100403)
(-5.98164e-07 -2.74675e-06 -0.00100441)
(-3.65203e-06 -2.59182e-06 -0.00100206)
(-3.30134e-06 -2.51446e-06 -0.00100315)
(-2.63516e-06 -2.46119e-06 -0.0010041)
(-1.6999e-06 -2.42297e-06 -0.00100479)
(-5.8774e-07 -2.40246e-06 -0.00100517)
(-3.57474e-06 -2.01204e-06 -0.00100274)
(-3.23944e-06 -1.94329e-06 -0.00100379)
(-2.59435e-06 -1.8958e-06 -0.00100474)
(-1.6788e-06 -1.86101e-06 -0.00100542)
(-5.82931e-07 -1.84304e-06 -0.0010058)
(-3.5092e-06 -1.2795e-06 -0.00100321)
(-3.18475e-06 -1.2302e-06 -0.00100422)
(-2.55285e-06 -1.19744e-06 -0.00100515)
(-1.65125e-06 -1.17167e-06 -0.0010058)
(-5.73788e-07 -1.15958e-06 -0.00100617)
(-3.46528e-06 -4.4094e-07 -0.00100348)
(-3.15022e-06 -4.2309e-07 -0.00100446)
(-2.53027e-06 -4.13314e-07 -0.00100538)
(-1.64001e-06 -4.05925e-07 -0.00100603)
(-5.72164e-07 -4.04616e-07 -0.00100641)
(-5.08465e-06 -3.98957e-06 -0.00100175)
(-4.57933e-06 -3.86214e-06 -0.00100325)
(-3.65785e-06 -3.78359e-06 -0.00100459)
(-2.3609e-06 -3.71168e-06 -0.00100555)
(-8.172e-07 -3.67465e-06 -0.00100608)
(-4.95926e-06 -3.45808e-06 -0.00100286)
(-4.47544e-06 -3.32977e-06 -0.00100428)
(-3.58575e-06 -3.26393e-06 -0.00100561)
(-2.31042e-06 -3.21185e-06 -0.00100653)
(-8.00888e-07 -3.1951e-06 -0.00100703)
(-4.83734e-06 -2.66194e-06 -0.00100375)
(-4.38518e-06 -2.54445e-06 -0.00100508)
(-3.54034e-06 -2.47837e-06 -0.00100644)
(-2.29954e-06 -2.42153e-06 -0.00100737)
(-8.07461e-07 -2.40072e-06 -0.00100794)
(-4.72505e-06 -1.69446e-06 -0.00100434)
(-4.2914e-06 -1.60509e-06 -0.0010056)
(-3.46277e-06 -1.55933e-06 -0.0010069)
(-2.23824e-06 -1.5101e-06 -0.00100775)
(-7.85363e-07 -1.49524e-06 -0.00100825)
(-4.65081e-06 -5.90532e-07 -0.00100471)
(-4.24015e-06 -5.564e-07 -0.0010059)
(-3.4377e-06 -5.48832e-07 -0.00100724)
(-2.23408e-06 -5.387e-07 -0.00100808)
(-7.94288e-07 -5.48061e-07 -0.00100865)
(-6.93149e-06 -5.37773e-06 -0.00100263)
(-6.20613e-06 -5.13687e-06 -0.00100453)
(-4.98539e-06 -5.05368e-06 -0.0010064)
(-3.22045e-06 -4.92363e-06 -0.00100768)
(-1.12338e-06 -4.87882e-06 -0.00100845)