FoamFile
{version 2.0; format ascii;class Cloud<passiveParticle>; location 0;object  positions;}
42
(
( 386.307 -486.307 99.8648 ) 0 
( 113.944 -410.041 99.8504 ) 0 
( 94.5543 -210.172 99.9249 ) 0 
( 288.215 -312.064 99.8275 ) 0 
( 104.076 -0.477861 99.9522 ) 0 
( 400.153 -324.209 264.916 ) 0 
( 461.38 -145.386 144.468 ) 0 
( 269.275 -113.064 99.8712 ) 0 
( 40.6382 -329.882 267.682 ) 0 
( 201.454 -40.6553 273.391 ) 0 
( 219.048 -239.747 272.841 ) 0 
( 0.353168 -100.823 238.343 ) 0 
( 187.375 -404.899 380.855 ) 0 
( 90.1037 -224.676 430.295 ) 0 
( 63.151 -26.5579 427.608 ) 0 
( 377.892 -130.253 325.348 ) 0 
( 329.983 -281.397 447.213 ) 0 
( 452.686 -136.713 510.656 ) 0 
( 243.118 -102.365 470.218 ) 0 
( 327.618 -480.426 501.765 ) 0 
( 432.174 -320.955 616.104 ) 0 
( 154.329 -393.942 577.591 ) 0 
( 102.136 -94.3656 611.708 ) 0 
( 38.2589 -269.897 682.92 ) 0 
( 255.388 -228.116 625.106 ) 0 
( 364.742 -81.303 708.974 ) 0 
( 289.795 -411.219 723.564 ) 0 
( 165.755 -159.059 789.865 ) 0 
( 480.709 -467.414 743.214 ) 0 
( 343.641 -245.329 821.353 ) 0 
( 100.878 -428.951 786.667 ) 0 
( 255.519 -395.386 919.89 ) 0 
( 9.59864 -246.072 879.369 ) 0 
( 53.0141 -19.9634 878.841 ) 0 
( 232.947 -180.053 976.973 ) 0 
( 390.507 -39.4504 987.929 ) 0 
( 422.776 -236.022 1005.39 ) 0 
( 490.228 -410.423 934.587 ) 0 
( 90.5188 -355.757 1025.68 ) 0 
( 48.9047 -136.022 1041.64 ) 0 
( 323.512 -376.742 1107.05 ) 0 
( 175.645 -235.049 1160.5 ) 0 
)
