FoamFile
{version 2.0; format ascii;class vectorField; location 0;object  v;}
42
(
( 1.45026e-05 2.20715e-05 1.28207e-05 )  
( 5.15933e-06 2.52207e-05 -7.19998e-06 )  
( -2.27345e-05 3.19789e-05 -1.61128e-05 )  
( -2.316e-05 1.75948e-05 6.77033e-06 )  
( 2.90281e-06 9.98532e-06 4.33359e-06 )  
( -8.60832e-05 5.0075e-05 5.15947e-05 )  
( 9.70695e-06 1.58834e-05 3.37505e-05 )  
( -9.77561e-06 -5.41491e-06 1.56544e-05 )  
( -3.80162e-05 1.65637e-05 -1.39226e-05 )  
( 2.78867e-05 2.07236e-05 3.04873e-06 )  
( -4.51727e-05 1.84145e-05 2.18535e-05 )  
( 3.15381e-06 -3.93726e-05 -1.71491e-05 )  
( -8.46028e-05 4.97982e-06 -1.01832e-05 )  
( -2.70266e-05 -7.25753e-05 0.00010186 )  
( -2.57783e-05 3.36486e-05 9.26038e-05 )  
( -5.0253e-05 -7.47939e-06 5.32155e-05 )  
( -0.000120185 -3.75978e-05 5.2567e-05 )  
( 8.7433e-06 4.53495e-05 8.39757e-05 )  
( -5.73734e-05 -5.50822e-06 3.73202e-05 )  
( -0.00010485 7.93207e-05 1.68384e-05 )  
( 4.1619e-05 1.52361e-05 -8.30097e-06 )  
( -4.27401e-06 -4.3378e-05 -3.08971e-06 )  
( 3.50915e-06 -1.97994e-05 6.6498e-05 )  
( 3.42905e-05 -1.77841e-05 4.13388e-05 )  
( 1.80758e-05 -2.53896e-05 2.96596e-05 )  
( 1.10554e-05 -1.08765e-05 -5.95311e-05 )  
( 2.2011e-05 -2.72699e-05 -7.70814e-05 )  
( -2.13717e-05 -2.59214e-05 3.12937e-05 )  
( 1.71334e-05 -2.61894e-05 -6.68624e-05 )  
( 1.03767e-06 -9.66181e-06 -0.000136693 )  
( 7.50777e-05 -3.40625e-06 1.66116e-06 )  
( -5.28679e-05 7.38025e-05 -0.000109595 )  
( 4.951e-06 -1.54325e-06 1.27182e-05 )  
( -6.38367e-06 1.62137e-05 1.98458e-05 )  
( -2.54184e-06 -6.25125e-05 -1.01597e-05 )  
( -3.66297e-05 -2.35743e-05 -0.000180567 )  
( 1.7255e-06 -3.80192e-05 -0.000167679 )  
( 5.01919e-05 -1.52428e-05 -0.000115634 )  
( 1.64452e-05 2.63944e-05 -4.3936e-05 )  
( -5.25978e-05 -1.30319e-05 -2.0987e-05 )  
( 1.68776e-05 2.78063e-05 -0.000125874 )  
( -0.000151971 7.02832e-05 6.80343e-06 )  
)
