/*--------------------------------*- C++ -*----------------------------------*\
  =========                 |
  \\      /  F ield         | OpenFOAM: The Open Source CFD Toolbox
   \\    /   O peration     | Website:  https://openfoam.org
    \\  /    A nd           | Version:  9
     \\/     M anipulation  |
\*---------------------------------------------------------------------------*/
FoamFile
{
    format      ascii;
    class       volVectorField;
    location    "5000";
    object      stored_U;
}
// * * * * * * * * * * * * * * * * * * * * * * * * * * * * * * * * * * * * * //

dimensions      [0 1 -1 0 0 0 0];

internalField   nonuniform List<vector> 
720
(
(2.92355e-11 1.24431e-08 -0.0010001)
(2.92352e-11 1.17416e-08 -0.00100009)
(-6.72246e-10 1.24431e-08 -0.000999915)
(-6.72246e-10 1.17416e-08 -0.000999923)
(1.04518e-10 1.69446e-08 -0.0010001)
(1.04518e-10 1.60224e-08 -0.0010001)
(-8.17764e-10 1.69446e-08 -0.000999913)
(-8.17765e-10 1.60223e-08 -0.000999921)
(2.70424e-10 2.42421e-08 -0.0010001)
(2.70423e-10 2.28842e-08 -0.0010001)
(-1.08741e-09 2.4242e-08 -0.000999911)
(-1.08741e-09 2.28842e-08 -0.00099992)
(4.65359e-10 3.30143e-08 -0.0010001)
(4.65359e-10 3.10948e-08 -0.0010001)
(-1.45409e-09 3.30142e-08 -0.000999908)
(-1.45409e-09 3.10947e-08 -0.000999917)
(6.74167e-10 4.26069e-08 -0.00100011)
(6.74167e-10 4.00378e-08 -0.0010001)
(-1.8949e-09 4.26068e-08 -0.000999904)
(-1.8949e-09 4.00377e-08 -0.000999914)
(9.04613e-10 5.28106e-08 -0.00100011)
(9.04613e-10 4.95085e-08 -0.00100011)
(-2.39752e-09 5.28105e-08 -0.000999899)
(-2.39752e-09 4.95084e-08 -0.00099991)
(1.16949e-09 6.36276e-08 -0.00100012)
(1.16949e-09 5.94951e-08 -0.00100011)
(-2.96305e-09 6.36275e-08 -0.000999892)
(-2.96305e-09 5.9495e-08 -0.000999905)
(1.47955e-09 7.51417e-08 -0.00100013)
(1.47955e-09 7.00626e-08 -0.00100012)
(-3.59955e-09 7.51415e-08 -0.000999884)
(-3.59955e-09 7.00624e-08 -0.000999898)
(1.8448e-09 8.74679e-08 -0.00100014)
(1.8448e-09 8.1304e-08 -0.00100013)
(-4.31909e-09 8.74677e-08 -0.000999876)
(-4.31909e-09 8.13038e-08 -0.000999891)
(2.2755e-09 1.00737e-07 -0.00100015)
(2.2755e-09 9.3325e-08 -0.00100014)
(-5.1361e-09 1.00736e-07 -0.000999865)
(-5.1361e-09 9.33248e-08 -0.000999883)
(2.78284e-09 1.1509e-07 -0.00100016)
(2.78284e-09 1.0624e-07 -0.00100015)
(-6.06692e-09 1.1509e-07 -0.000999853)
(-6.06692e-09 1.0624e-07 -0.000999874)
(3.37931e-09 1.30682e-07 -0.00100017)
(3.37931e-09 1.20172e-07 -0.00100016)
(-7.12991e-09 1.30681e-07 -0.00099984)
(-7.12991e-09 1.20172e-07 -0.000999863)
(4.07902e-09 1.47679e-07 -0.00100019)
(4.07901e-09 1.35255e-07 -0.00100017)
(-8.34575e-09 1.47679e-07 -0.000999824)
(-8.34575e-09 1.35254e-07 -0.000999851)
(4.89803e-09 1.66266e-07 -0.0010002)
(4.89802e-09 1.5163e-07 -0.00100019)
(-9.73786e-09 1.66265e-07 -0.000999807)
(-9.73787e-09 1.51629e-07 -0.000999837)
(5.85473e-09 1.86641e-07 -0.00100022)
(5.85472e-09 1.69453e-07 -0.0010002)
(-1.13329e-08 1.8664e-07 -0.000999787)
(-1.13329e-08 1.69453e-07 -0.000999822)
(6.97029e-09 2.09024e-07 -0.00100024)
(6.97028e-09 1.88892e-07 -0.00100022)
(-1.31611e-08 2.09023e-07 -0.000999765)
(-1.31611e-08 1.88892e-07 -0.000999805)
(8.26919e-09 2.33657e-07 -0.00100027)
(8.26919e-09 2.1013e-07 -0.00100024)
(-1.52574e-08 2.33656e-07 -0.000999741)
(-1.52574e-08 2.10129e-07 -0.000999787)
(9.77984e-09 2.60806e-07 -0.00100029)
(9.77983e-09 2.33364e-07 -0.00100026)
(-1.76617e-08 2.60805e-07 -0.000999713)
(-1.76617e-08 2.33363e-07 -0.000999766)
(1.15353e-08 2.90765e-07 -0.00100032)
(1.15352e-08 2.5881e-07 -0.00100029)
(-2.04198e-08 2.90764e-07 -0.000999682)
(-2.04198e-08 2.58809e-07 -0.000999743)
(1.35739e-08 3.23862e-07 -0.00100036)
(1.35739e-08 2.86703e-07 -0.00100031)
(-2.35846e-08 3.2386e-07 -0.000999648)
(-2.35846e-08 2.86702e-07 -0.000999717)
(1.59406e-08 3.60456e-07 -0.00100039)
(1.59406e-08 3.17298e-07 -0.00100034)
(-2.72172e-08 3.60454e-07 -0.000999609)
(-2.72172e-08 3.17297e-07 -0.000999689)
(1.86877e-08 4.0095e-07 -0.00100044)
(1.86877e-08 3.50874e-07 -0.00100038)
(-3.13879e-08 4.00947e-07 -0.000999566)
(-3.13879e-08 3.50872e-07 -0.000999658)
(2.18761e-08 4.45787e-07 -0.00100048)
(2.1876e-08 3.87732e-07 -0.00100041)
(-3.6178e-08 4.45784e-07 -0.000999518)
(-3.61781e-08 3.8773e-07 -0.000999624)
(2.55768e-08 4.95463e-07 -0.00100053)
(2.55767e-08 4.28204e-07 -0.00100045)
(-4.16813e-08 4.95459e-07 -0.000999465)
(-4.16814e-08 4.28201e-07 -0.000999586)
(2.98725e-08 5.50528e-07 -0.00100059)
(2.98724e-08 4.72648e-07 -0.0010005)
(-4.80063e-08 5.50523e-07 -0.000999406)
(-4.80064e-08 4.72645e-07 -0.000999544)
(3.48593e-08 6.11593e-07 -0.00100065)
(3.48592e-08 5.21455e-07 -0.00100054)
(-5.5278e-08 6.11588e-07 -0.000999339)
(-5.52782e-08 5.21451e-07 -0.000999499)
(4.06488e-08 6.79341e-07 -0.00100072)
(4.06488e-08 5.7505e-07 -0.0010006)
(-6.36409e-08 6.79335e-07 -0.000999266)
(-6.36411e-08 5.75046e-07 -0.000999449)
(4.73707e-08 7.54531e-07 -0.0010008)
(4.73706e-08 6.33897e-07 -0.00100065)
(-7.32616e-08 7.54523e-07 -0.000999183)
(-7.32618e-08 6.33892e-07 -0.000999395)
(5.51751e-08 8.38008e-07 -0.00100089)
(5.51749e-08 6.98498e-07 -0.00100072)
(-8.43322e-08 8.37998e-07 -0.000999092)
(-8.43325e-08 6.98492e-07 -0.000999335)
(6.42363e-08 9.30715e-07 -0.00100099)
(6.42361e-08 7.69401e-07 -0.00100079)
(-9.70743e-08 9.30702e-07 -0.00099899)
(-9.70747e-08 7.69393e-07 -0.000999269)
(7.47561e-08 1.0337e-06 -0.00100109)
(7.47559e-08 8.47199e-07 -0.00100086)
(-1.11743e-07 1.03369e-06 -0.000998876)
(-1.11744e-07 8.47189e-07 -0.000999198)
(8.69684e-08 1.14814e-06 -0.00100121)
(8.69681e-08 9.32536e-07 -0.00100095)
(-1.28634e-07 1.14812e-06 -0.000998749)
(-1.28634e-07 9.32524e-07 -0.00099912)
(1.01144e-07 1.27535e-06 -0.00100135)
(1.01143e-07 1.02611e-06 -0.00100104)
(-1.48085e-07 1.27532e-06 -0.000998608)
(-1.48086e-07 1.0261e-06 -0.000999035)
(1.17595e-07 1.41677e-06 -0.0010015)
(1.17594e-07 1.12868e-06 -0.00100114)
(-1.70487e-07 1.41674e-06 -0.00099845)
(-1.70488e-07 1.12866e-06 -0.000998942)
(1.36685e-07 1.57405e-06 -0.00100166)
(1.36684e-07 1.24106e-06 -0.00100125)
(-1.96291e-07 1.57401e-06 -0.000998275)
(-1.96292e-07 1.24104e-06 -0.000998841)
(1.58832e-07 1.749e-06 -0.00100185)
(1.58831e-07 1.36414e-06 -0.00100137)
(-2.26015e-07 1.74896e-06 -0.000998079)
(-2.26017e-07 1.36412e-06 -0.000998732)
(1.84521e-07 1.94367e-06 -0.00100206)
(1.8452e-07 1.49888e-06 -0.00100149)
(-2.60257e-07 1.94361e-06 -0.000997861)
(-2.6026e-07 1.49885e-06 -0.000998612)
(2.14312e-07 2.16033e-06 -0.00100229)
(2.14311e-07 1.64629e-06 -0.00100164)
(-2.99705e-07 2.16026e-06 -0.000997617)
(-2.99709e-07 1.64625e-06 -0.000998483)
(2.48855e-07 2.40153e-06 -0.00100255)
(2.48853e-07 1.8075e-06 -0.00100179)
(-3.45152e-07 2.40144e-06 -0.000997345)
(-3.45157e-07 1.80745e-06 -0.000998342)
(2.88896e-07 2.67013e-06 -0.00100283)
(2.88894e-07 1.98368e-06 -0.00100196)
(-3.97511e-07 2.67001e-06 -0.000997041)
(-3.97518e-07 1.98362e-06 -0.00099819)
(3.35304e-07 2.9693e-06 -0.00100316)
(3.35301e-07 2.17611e-06 -0.00100214)
(-4.57836e-07 2.96916e-06 -0.000996702)
(-4.57845e-07 2.17604e-06 -0.000998026)
(3.89081e-07 3.30264e-06 -0.00100352)
(3.89076e-07 2.38616e-06 -0.00100234)
(-5.27339e-07 3.30247e-06 -0.000996323)
(-5.27352e-07 2.38608e-06 -0.000997848)
(4.51383e-07 3.67416e-06 -0.00100392)
(4.51377e-07 2.61527e-06 -0.00100255)
(-6.07419e-07 3.67394e-06 -0.000995899)
(-6.07435e-07 2.61518e-06 -0.000997656)
(5.23552e-07 4.08835e-06 -0.00100437)
(5.23543e-07 2.865e-06 -0.00100278)
(-6.99684e-07 4.08807e-06 -0.000995425)
(-6.99706e-07 2.86489e-06 -0.000997449)
(6.07133e-07 4.55026e-06 -0.00100487)
(6.07122e-07 3.13699e-06 -0.00100304)
(-8.05992e-07 4.54991e-06 -0.000994894)
(-8.06021e-07 3.13685e-06 -0.000997227)
(7.03916e-07 5.06555e-06 -0.00100543)
(7.03901e-07 3.43297e-06 -0.00100331)
(-9.2848e-07 5.06511e-06 -0.0009943)
(-9.28518e-07 3.4328e-06 -0.000996988)
(8.15967e-07 5.64058e-06 -0.00100606)
(8.15947e-07 3.75477e-06 -0.0010036)
(-1.06961e-06 5.64004e-06 -0.000993635)
(-1.06966e-06 3.75457e-06 -0.000996733)
(9.45672e-07 6.28251e-06 -0.00100676)
(9.45646e-07 4.10432e-06 -0.00100392)
(-1.23222e-06 6.28183e-06 -0.000992891)
(-1.23229e-06 4.10408e-06 -0.000996459)
(1.09579e-06 6.99938e-06 -0.00100755)
(1.09575e-06 4.48363e-06 -0.00100426)
(-1.41958e-06 6.99852e-06 -0.000992056)
(-1.41967e-06 4.48334e-06 -0.000996167)
(1.2695e-06 7.80022e-06 -0.00100843)
(1.26945e-06 4.89479e-06 -0.00100462)
(-1.63544e-06 7.79915e-06 -0.00099112)
(-1.63556e-06 4.89444e-06 -0.000995857)
(1.47047e-06 8.69521e-06 -0.00100942)
(1.47041e-06 5.33996e-06 -0.00100501)
(-1.88414e-06 8.69386e-06 -0.00099007)
(-1.8843e-06 5.33954e-06 -0.000995527)
(1.70296e-06 9.69581e-06 -0.00101053)
(1.70287e-06 5.82137e-06 -0.00100543)
(-2.17067e-06 9.69412e-06 -0.000988891)
(-2.17089e-06 5.82087e-06 -0.000995178)
(1.97184e-06 1.08149e-05 -0.00101178)
(1.97173e-06 6.34128e-06 -0.00100588)
(-2.50077e-06 1.08128e-05 -0.000987567)
(-2.50106e-06 6.34068e-06 -0.000994811)
(2.28276e-06 1.20671e-05 -0.00101317)
(2.28261e-06 6.90198e-06 -0.00100635)
(-2.88105e-06 1.20645e-05 -0.000986081)
(-2.88143e-06 6.90127e-06 -0.000994425)
(2.64224e-06 1.34688e-05 -0.00101474)
(2.64204e-06 7.50577e-06 -0.00100686)
(-3.31911e-06 1.34655e-05 -0.000984409)
(-3.31962e-06 7.50491e-06 -0.000994022)
(3.05778e-06 1.50386e-05 -0.00101651)
(3.0575e-06 8.15488e-06 -0.00100739)
(-3.82369e-06 1.50343e-05 -0.00098253)
(-3.82437e-06 8.15386e-06 -0.000993603)
(3.53802e-06 1.67972e-05 -0.00101849)
(3.53765e-06 8.8515e-06 -0.00100795)
(-4.40487e-06 1.67919e-05 -0.000980416)
(-4.40578e-06 8.85029e-06 -0.000993169)
(4.09295e-06 1.87685e-05 -0.00102072)
(4.09245e-06 9.5977e-06 -0.00100855)
(-5.07423e-06 1.87618e-05 -0.000978036)
(-5.07544e-06 9.59625e-06 -0.000992724)
(4.73404e-06 2.09791e-05 -0.00102324)
(4.73337e-06 1.03953e-05 -0.00100917)
(-5.84506e-06 2.09706e-05 -0.000975355)
(-5.84668e-06 1.03936e-05 -0.000992271)
(5.47452e-06 2.34593e-05 -0.00102607)
(5.47362e-06 1.12461e-05 -0.00100982)
(-6.73268e-06 2.34485e-05 -0.000972335)
(-6.73483e-06 1.12441e-05 -0.000991813)
(6.3296e-06 2.62433e-05 -0.00102926)
(6.32841e-06 1.21513e-05 -0.00101049)
(-7.75465e-06 2.62296e-05 -0.000968929)
(-7.75751e-06 1.21489e-05 -0.000991356)
(7.31679e-06 2.93699e-05 -0.00103285)
(7.31518e-06 1.31121e-05 -0.00101119)
(-8.93114e-06 2.93526e-05 -0.000965088)
(-8.93497e-06 1.31091e-05 -0.000990906)
(8.45618e-06 3.2883e-05 -0.00103691)
(8.45403e-06 1.41288e-05 -0.0010119)
(-1.02853e-05 3.2861e-05 -0.000960752)
(-1.02904e-05 1.41253e-05 -0.00099047)
(9.77086e-06 3.68324e-05 -0.00104148)
(9.76797e-06 1.52016e-05 -0.00101264)
(-1.18437e-05 3.68046e-05 -0.000955855)
(-1.18505e-05 1.51974e-05 -0.000990055)
(1.12873e-05 4.12748e-05 -0.00104665)
(1.12834e-05 1.633e-05 -0.00101338)
(-1.36367e-05 4.12395e-05 -0.000950323)
(-1.36458e-05 1.6325e-05 -0.000989672)
(1.30359e-05 4.62743e-05 -0.0010525)
(1.30307e-05 1.75125e-05 -0.00101413)
(-1.56992e-05 4.62294e-05 -0.000944068)
(-1.57113e-05 1.75064e-05 -0.000989338)
(1.5052e-05 5.1904e-05 -0.0010591)
(1.5045e-05 1.87461e-05 -0.00101485)
(-1.80717e-05 5.18468e-05 -0.000936992)
(-1.80877e-05 1.87387e-05 -0.000989084)
(1.73774e-05 5.82466e-05 -0.00106657)
(1.7368e-05 2.00237e-05 -0.00101552)
(-2.08016e-05 5.81738e-05 -0.000928984)
(-2.08231e-05 2.00147e-05 -0.000988951)
(2.00608e-05 6.53966e-05 -0.00107503)
(2.00483e-05 2.13351e-05 -0.0010161)
(-2.39444e-05 6.53037e-05 -0.000919914)
(-2.3973e-05 2.13241e-05 -0.000988978)
(2.31587e-05 7.34614e-05 -0.00108461)
(2.31419e-05 2.26665e-05 -0.00101657)
(-2.75638e-05 7.33428e-05 -0.000909636)
(-2.76019e-05 2.26531e-05 -0.000989211)
(2.67364e-05 8.25628e-05 -0.00109548)
(2.67139e-05 2.4e-05 -0.00101688)
(-3.17336e-05 8.2411e-05 -0.000897984)
(-3.17843e-05 2.39834e-05 -0.000989708)
(3.08694e-05 9.28369e-05 -0.00110781)
(3.08384e-05 2.53116e-05 -0.00101697)
(-3.65371e-05 9.26417e-05 -0.000884761)
(-3.66048e-05 2.52911e-05 -0.000990527)
(3.56424e-05 0.000104426 -0.00112174)
(3.55977e-05 2.65681e-05 -0.00101673)
(-4.20635e-05 0.000104172 -0.000869706)
(-4.21537e-05 2.65439e-05 -0.000991695)
(4.11392e-05 0.000117434 -0.00113739)
(4.10678e-05 2.77174e-05 -0.00101599)
(-4.83871e-05 0.000117096 -0.000852511)
(-4.85062e-05 2.76925e-05 -0.000993264)
(4.73949e-05 0.000131777 -0.00115535)
(4.72639e-05 2.8657e-05 -0.00101506)
(-5.54979e-05 0.000131309 -0.00083318)
(-5.56488e-05 2.86437e-05 -0.000995829)
(5.42425e-05 0.000146745 -0.00117793)
(5.398e-05 2.91604e-05 -0.00101561)
(-6.31092e-05 0.000146071 -0.000812735)
(-6.32719e-05 2.91921e-05 -0.00100124)
(6.09204e-05 0.000159987 -0.00120735)
(6.0294e-05 2.87615e-05 -0.00101803)
(-7.01845e-05 0.000159033 -0.000791577)
(-7.01249e-05 2.8912e-05 -0.00100887)
(6.52205e-05 0.000165681 -0.00122495)
(6.42672e-05 2.66914e-05 -0.00100477)
(-7.39931e-05 0.00016458 -0.000758165)
(-7.37068e-05 2.70447e-05 -0.000999793)
(6.29022e-05 0.000153371 -0.00118116)
(6.14583e-05 2.20893e-05 -0.000937783)
(-6.90956e-05 0.000152085 -0.000686817)
(-6.84812e-05 2.26327e-05 -0.000937015)
(4.71434e-05 0.000110765 -0.000969734)
(4.56938e-05 1.54608e-05 -0.00078753)
(-4.9056e-05 0.000109446 -0.000528607)
(-4.84847e-05 1.5856e-05 -0.000909946)
(4.2564e-06 2.52748e-05 -0.00375939)
(3.15365e-06 -1.84203e-06 -0.0032266)
(-2.0218e-05 2.38901e-05 -0.00213505)
(-1.81829e-05 -3.28981e-06 -0.00283528)
(-7.05355e-06 8.30494e-06 1.74254e-05)
(1.11401e-06 2.16807e-06 8.23281e-05)
(1.63518e-05 1.01785e-05 0.000118089)
(3.84306e-05 -2.75257e-06 -5.21471e-05)
(-0.000384272 0.000127315 -0.00441056)
(-0.000224226 0.000325742 -0.00394914)
(3.3943e-05 8.29048e-05 -0.00324714)
(5.10485e-05 0.000510699 -0.00373784)
(-5.85786e-05 7.48579e-06 -0.000521669)
(-0.000104359 0.000127525 -0.00270137)
(2.95455e-05 1.76653e-05 -0.000250384)
(2.93259e-05 1.71854e-05 -0.000186626)
(-0.000448546 -0.00023061 -0.00457249)
(-5.56728e-05 -3.13818e-05 -0.00114735)
(-0.000128772 -8.72466e-05 -0.00401455)
(-0.000101953 -6.41027e-05 -0.00397902)
(-8.6659e-05 -3.68366e-05 -0.000334226)
(-0.000285279 4.51839e-05 -0.00515297)
(5.53908e-05 -1.487e-05 -0.000296662)
(-2.55364e-06 4.4541e-05 -0.00416557)
(-0.000690713 -0.000464488 -0.00487058)
(-7.67949e-05 -1.93332e-05 -0.000507063)
(-0.000121414 -0.000246608 -0.00337781)
(2.62255e-05 1.4935e-05 -0.00046122)
(-0.000328622 -0.000242334 -0.00450108)
(-0.000875301 -0.000410283 -0.00515865)
(-0.000231721 -0.000197532 -0.00132176)
(-0.000346104 -0.000224367 -0.00385045)
(-1.26485e-05 -4.17222e-05 -0.00108)
(-1.87448e-05 -1.07853e-05 -1.76749e-06)
(-0.00043841 0.000182079 -0.00279584)
(-0.000419397 -0.000166098 -0.00390855)
(0.000188185 0.000313326 -0.00499754)
(0.000616696 -0.000860153 -0.00470988)
(5.20448e-06 4.49916e-05 -0.000113234)
(-3.2525e-05 -7.46223e-05 -0.000256607)
(0.00018679 -5.26602e-06 -0.0014105)
(2.90398e-05 -7.19515e-05 -0.0001599)
(-0.00010431 2.83442e-05 -0.00519514)
(-0.000256967 -0.000690858 -0.00311853)
(0.000642903 -0.00050361 -0.00436482)
(0.000410722 -0.000472085 -0.00422416)
(-1.33923e-05 -2.89319e-05 -0.000924314)
(0.000194746 -0.000335949 -0.00404885)
(3.18516e-05 -7.54808e-05 -4.69248e-05)
(0.00010068 -0.000289196 -0.00148986)
(6.34744e-05 -0.000251233 -0.00226183)
(-6.67924e-07 -6.55798e-05 -0.000427199)
(0.000419108 -0.000259128 -0.00510868)
(0.000261586 -0.000673619 -0.00479337)
(-0.000303219 -0.000222619 -0.00291136)
(-0.0002489 -0.000758164 -0.00486793)
(4.05076e-05 -0.000236764 -0.00268118)
(-3.62256e-06 -8.22375e-05 -0.000636578)
(-8.81075e-05 -2.11763e-05 4.22082e-06)
(-0.000180585 -0.000872986 -0.00365594)
(1.12793e-05 -0.000121039 -0.002356)
(1.93818e-05 -0.000356153 -0.00292822)
(-0.000188177 -0.000278367 -0.00329774)
(-1.86349e-05 -4.51575e-05 -0.000194309)
(0.00019882 -0.000115564 -0.00358448)
(0.000295015 -0.000636811 -0.00216432)
(-7.42816e-05 -4.4851e-05 -0.000636725)
(-0.00026633 -0.00103281 -0.00541669)
(0.000155544 -0.000127478 -0.00252515)
(-4.20879e-06 3.55671e-05 -0.000111258)
(-9.9142e-05 -0.000114954 -0.00183214)
(1.50179e-05 -3.71004e-05 -0.000155655)
(4.23275e-05 -2.71133e-05 -0.00232379)
(3.35834e-05 -0.000192679 -0.00355077)
(-0.000289199 -1.41023e-05 -0.00234136)
(-0.000400884 -0.000457288 -0.00524506)
(-0.000183577 -7.01768e-05 -0.00373344)
(-2.87023e-05 -6.2787e-06 -0.000646016)
(6.09499e-05 -9.53483e-07 -0.000430463)
(-0.000111024 -6.08064e-05 -0.00144213)
(-7.75168e-05 -0.000119972 -0.00170277)
(-0.000156012 5.35132e-05 -0.00246687)
(5.0018e-05 -0.000107346 -0.00263569)
(0.00027142 0.000289815 -0.00372594)
(-8.34797e-05 -0.000117052 -0.00333546)
(-8.45197e-05 0.000105764 -0.0012333)
(8.59638e-05 -2.30575e-05 -0.000923658)
(3.16707e-05 4.31161e-05 -0.00034484)
(-0.000109964 -0.000148841 -0.00265467)
(-0.000144496 4.24627e-05 -0.00123696)
(9.80518e-05 -0.000223876 -0.00112271)
(9.21137e-05 7.59697e-05 -0.00290243)
(-1.46756e-05 -4.47703e-05 -0.00106883)
(-8.69914e-05 5.95727e-05 -0.00102685)
(0.000159279 -0.000245276 -0.000833583)
(0.000124933 0.000147718 -0.00153211)
(8.96875e-06 -7.94985e-06 -0.00179012)
(-3.24052e-05 9.09375e-05 -0.000937109)
(0.000158604 -0.000107927 -0.000741549)
(0.000150211 0.000150981 -0.00149834)
(-3.19062e-05 -4.76566e-05 -0.00101801)
(-5.24588e-05 0.000123847 -0.000873283)
(0.000171483 -9.61454e-05 -0.000798642)
(0.000164323 0.000132699 -0.00136843)
(-5.15122e-05 -6.46595e-05 -0.00103658)
(-5.96405e-05 0.000134457 -0.000845054)
(0.000164042 -8.47725e-05 -0.000803722)
(0.000160845 0.000127993 -0.00128101)
(-5.33294e-05 -6.52887e-05 -0.00105921)
(-5.59366e-05 0.000129 -0.000858939)
(0.000148325 -7.28106e-05 -0.000825533)
(0.00014706 0.000123751 -0.00124001)
(-4.80282e-05 -5.93432e-05 -0.00105627)
(-4.88132e-05 0.00011682 -0.000880767)
(0.00013095 -6.19397e-05 -0.00084956)
(0.00013036 0.000114399 -0.00121285)
(-4.13349e-05 -5.18211e-05 -0.00104552)
(-4.16178e-05 0.000103257 -0.000898296)
(0.000114666 -5.26884e-05 -0.000870265)
(0.000114311 0.000102291 -0.00118737)
(-3.50447e-05 -4.45144e-05 -0.00103664)
(-3.51909e-05 9.04631e-05 -0.00091228)
(0.000100196 -4.48258e-05 -0.000887669)
(9.99457e-05 9.00444e-05 -0.00116386)
(-2.95392e-05 -3.79632e-05 -0.00102993)
(-2.96361e-05 7.90418e-05 -0.000924223)
(8.75317e-05 -3.81013e-05 -0.000902642)
(8.73459e-05 7.88149e-05 -0.00114321)
(-2.48224e-05 -3.22675e-05 -0.00102447)
(-2.48921e-05 6.90274e-05 -0.00093461)
(7.64869e-05 -3.23463e-05 -0.000915633)
(7.63469e-05 6.88779e-05 -0.00112527)
(-2.08104e-05 -2.73754e-05 -0.00101986)
(-2.08613e-05 6.02916e-05 -0.000943596)
(6.68591e-05 -2.74281e-05 -0.000926894)
(6.67532e-05 6.01832e-05 -0.00110966)
(-1.74064e-05 -2.3192e-05 -0.001016)
(-1.74437e-05 5.26794e-05 -0.000951344)
(5.8465e-05 -2.32294e-05 -0.000936643)
(5.83849e-05 5.25983e-05 -0.00109604)
(-1.4522e-05 -1.96204e-05 -0.00101278)
(-1.45493e-05 4.60462e-05 -0.000958023)
(5.11442e-05 -1.96475e-05 -0.000945083)
(5.10836e-05 4.59849e-05 -0.00108414)
(-1.20807e-05 -1.65738e-05 -0.0010101)
(-1.21006e-05 4.02643e-05 -0.000963783)
(4.47571e-05 -1.65936e-05 -0.000952391)
(4.47112e-05 4.02179e-05 -0.00107375)
(-1.0017e-05 -1.39773e-05 -0.00100788)
(-1.00316e-05 3.52226e-05 -0.000968751)
(3.91825e-05 -1.39917e-05 -0.000958722)
(3.91478e-05 3.51874e-05 -0.00106467)
(-8.27505e-06 -1.17661e-05 -0.00100605)
(-8.28563e-06 3.08246e-05 -0.000973037)
(3.43153e-05 -1.17766e-05 -0.000964206)
(3.4289e-05 3.07979e-05 -0.00105673)
(-6.80692e-06 -9.8847e-06 -0.00100454)
(-6.81461e-06 2.69866e-05 -0.000976735)
(3.00641e-05 -9.89231e-06 -0.000968958)
(3.00442e-05 2.69663e-05 -0.00104979)
(-5.57172e-06 -8.28553e-06 -0.0010033)
(-5.5773e-06 2.3636e-05 -0.000979925)
(2.63497e-05 -8.29105e-06 -0.000973076)
(2.63345e-05 2.36207e-05 -0.00104372)
(-4.53448e-06 -6.92769e-06 -0.00100229)
(-4.53853e-06 2.07099e-05 -0.000982678)
(2.3103e-05 -6.93168e-06 -0.000976646)
(2.30915e-05 2.06982e-05 -0.0010384)
(-3.66533e-06 -5.77609e-06 -0.00100148)
(-3.66826e-06 1.81535e-05 -0.000985054)
(2.02641e-05 -5.77898e-06 -0.00097974)
(2.02554e-05 1.81446e-05 -0.00103375)
(-2.93877e-06 -4.80067e-06 -0.00100082)
(-2.94089e-06 1.59191e-05 -0.000987104)
(1.77809e-05 -4.80275e-06 -0.000982422)
(1.77743e-05 1.59124e-05 -0.00102967)
(-2.33304e-06 -3.97563e-06 -0.0010003)
(-2.33456e-06 1.39656e-05 -0.000988873)
(1.56081e-05 -3.97713e-06 -0.000984748)
(1.5603e-05 1.39604e-05 -0.0010261)
(-1.82956e-06 -3.27887e-06 -0.000999886)
(-1.83065e-06 1.22568e-05 -0.0009904)
(1.37061e-05 -3.27994e-06 -0.000986764)
(1.37023e-05 1.22529e-05 -0.00102297)
(-1.41252e-06 -2.69145e-06 -0.000999566)
(-1.4133e-06 1.07617e-05 -0.000991718)
(1.20406e-05 -2.69223e-06 -0.000988513)
(1.20377e-05 1.07587e-05 -0.00102022)
(-1.06842e-06 -2.19716e-06 -0.000999322)
(-1.06898e-06 9.45297e-06 -0.000992856)
(1.05817e-05 -2.19771e-06 -0.00099003)
(1.05795e-05 9.45069e-06 -0.00101781)
(-7.85799e-07 -1.7821e-06 -0.00099914)
(-7.86197e-07 8.30693e-06 -0.000993837)
(9.3032e-06 -1.7825e-06 -0.000991346)
(9.30151e-06 8.30519e-06 -0.00101569)
(-5.54861e-07 -1.43438e-06 -0.00099901)
(-5.55143e-07 7.30297e-06 -0.000994685)
(8.18247e-06 -1.43466e-06 -0.000992488)
(8.18118e-06 7.30164e-06 -0.00101383)
(-3.67304e-07 -1.14384e-06 -0.000998921)
(-3.67503e-07 6.42313e-06 -0.000995416)
(7.19964e-06 -1.14403e-06 -0.000993479)
(7.19866e-06 6.42212e-06 -0.0010122)
(-2.16076e-07 -9.01764e-07 -0.000998866)
(-2.16216e-07 5.65176e-06 -0.000996046)
(6.33743e-06 -9.01903e-07 -0.000994338)
(6.33669e-06 5.65099e-06 -0.00101076)
(-9.52029e-08 -7.00751e-07 -0.000998838)
(-9.53011e-08 4.97522e-06 -0.000996591)
(5.58075e-06 -7.00848e-07 -0.000995084)
(5.58018e-06 4.97463e-06 -0.0010095)
(3.66957e-10 -5.34465e-07 -0.000998831)
(2.98472e-10 4.38161e-06 -0.000997061)
(4.91644e-06 -5.34533e-07 -0.000995731)
(4.916e-06 4.38116e-06 -0.00100839)
(7.48959e-08 -3.97513e-07 -0.00099884)
(7.48483e-08 3.86058e-06 -0.000997467)
(4.33298e-06 -3.9756e-07 -0.000996293)
(4.33265e-06 3.86024e-06 -0.00100741)
(1.31943e-07 -2.85321e-07 -0.000998862)
(1.3191e-07 3.4031e-06 -0.000997818)
(3.82035e-06 -2.85353e-07 -0.000996781)
(3.8201e-06 3.40283e-06 -0.00100655)
(1.74556e-07 -1.93972e-07 -0.000998894)
(1.74533e-07 3.00126e-06 -0.000998121)
(3.36978e-06 -1.93995e-07 -0.000997204)
(3.36959e-06 3.00106e-06 -0.00100579)
(2.05364e-07 -1.20098e-07 -0.000998934)
(2.05349e-07 2.64814e-06 -0.000998381)
(2.9736e-06 -1.20113e-07 -0.000997571)
(2.97345e-06 2.64798e-06 -0.00100512)
(2.26621e-07 -6.08209e-08 -0.00099898)
(2.2661e-07 2.33767e-06 -0.000998605)
(2.62511e-06 -6.08315e-08 -0.000997891)
(2.62499e-06 2.33755e-06 -0.00100453)
(2.40235e-07 -1.36973e-08 -0.000999031)
(2.40228e-07 2.06453e-06 -0.000998797)
(2.31845e-06 -1.37047e-08 -0.000998168)
(2.31837e-06 2.06443e-06 -0.00100401)
(2.47869e-07 2.34098e-08 -0.000999084)
(2.47864e-07 1.82405e-06 -0.000998962)
(2.0485e-06 2.34046e-08 -0.000998408)
(2.04844e-06 1.82398e-06 -0.00100356)
(2.5076e-07 5.22557e-08 -0.000999138)
(2.50757e-07 1.61223e-06 -0.000999104)
(1.81074e-06 5.22521e-08 -0.000998616)
(1.81068e-06 1.61218e-06 -0.00100315)
(2.49837e-07 7.42799e-08 -0.000999192)
(2.49835e-07 1.42564e-06 -0.000999228)
(1.6012e-06 7.42774e-08 -0.000998796)
(1.60116e-06 1.4256e-06 -0.00100279)
(2.45975e-07 9.07662e-08 -0.000999245)
(2.45974e-07 1.26121e-06 -0.000999336)
(1.41642e-06 9.07644e-08 -0.000998952)
(1.41639e-06 1.26118e-06 -0.00100248)
(2.39877e-07 1.02715e-07 -0.000999296)
(2.39876e-07 1.11624e-06 -0.000999428)
(1.2534e-06 1.02714e-07 -0.000999088)
(1.25338e-06 1.11621e-06 -0.0010022)
(2.32078e-07 1.10929e-07 -0.000999345)
(2.32077e-07 9.88384e-07 -0.000999508)
(1.10953e-06 1.10928e-07 -0.000999207)
(1.10951e-06 9.88365e-07 -0.00100195)
(2.23015e-07 1.16068e-07 -0.000999391)
(2.23015e-07 8.75585e-07 -0.000999577)
(9.82532e-07 1.16067e-07 -0.00099931)
(9.82518e-07 8.7557e-07 -0.00100173)
(2.13065e-07 1.18705e-07 -0.000999435)
(2.13064e-07 7.76029e-07 -0.000999637)
(8.70388e-07 1.18705e-07 -0.0009994)
(8.70378e-07 7.76018e-07 -0.00100154)
(2.0254e-07 1.19334e-07 -0.000999476)
(2.0254e-07 6.88127e-07 -0.000999688)
(7.71332e-07 1.19334e-07 -0.000999478)
(7.71324e-07 6.88118e-07 -0.00100137)
(1.917e-07 1.1837e-07 -0.000999516)
(1.917e-07 6.1048e-07 -0.000999732)
(6.8381e-07 1.1837e-07 -0.000999547)
(6.83804e-07 6.10474e-07 -0.00100122)
(1.80752e-07 1.16164e-07 -0.000999553)
(1.80752e-07 5.41865e-07 -0.00099977)
(6.06453e-07 1.16164e-07 -0.000999606)
(6.06449e-07 5.4186e-07 -0.00100108)
(1.69862e-07 1.13006e-07 -0.000999587)
(1.69862e-07 4.81206e-07 -0.000999803)
(5.38061e-07 1.13006e-07 -0.000999658)
(5.38058e-07 4.81202e-07 -0.00100096)
(1.59159e-07 1.0914e-07 -0.00099962)
(1.59159e-07 4.27558e-07 -0.000999831)
(4.77578e-07 1.09139e-07 -0.000999703)
(4.77575e-07 4.27555e-07 -0.00100086)
(1.48744e-07 1.04764e-07 -0.00099965)
(1.48744e-07 3.80093e-07 -0.000999855)
(4.24073e-07 1.04764e-07 -0.000999742)
(4.24071e-07 3.80091e-07 -0.00100076)
(1.38691e-07 1.00043e-07 -0.000999679)
(1.38691e-07 3.38082e-07 -0.000999876)
(3.7673e-07 1.00043e-07 -0.000999776)
(3.76729e-07 3.3808e-07 -0.00100068)
(1.29056e-07 9.51126e-08 -0.000999705)
(1.29056e-07 3.00886e-07 -0.000999894)
(3.34829e-07 9.51125e-08 -0.000999806)
(3.34828e-07 3.00884e-07 -0.00100061)
(1.19877e-07 9.00811e-08 -0.00099973)
(1.19877e-07 2.6794e-07 -0.00099991)
(2.97736e-07 9.0081e-08 -0.000999832)
(2.97735e-07 2.67939e-07 -0.00100054)
(1.11179e-07 8.50368e-08 -0.000999753)
(1.11179e-07 2.3875e-07 -0.000999923)
(2.64892e-07 8.50368e-08 -0.000999854)
(2.64891e-07 2.38749e-07 -0.00100048)
(1.02976e-07 8.00499e-08 -0.000999774)
(1.02976e-07 2.12881e-07 -0.000999934)
(2.35807e-07 8.00499e-08 -0.000999874)
(2.35806e-07 2.1288e-07 -0.00100043)
(9.5273e-08 7.51759e-08 -0.000999794)
(9.52729e-08 1.89949e-07 -0.000999944)
(2.10046e-07 7.51758e-08 -0.000999891)
(2.10045e-07 1.89948e-07 -0.00100038)
(8.8069e-08 7.04576e-08 -0.000999813)
(8.8069e-08 1.69616e-07 -0.000999953)
(1.87228e-07 7.04576e-08 -0.000999906)
(1.87227e-07 1.69616e-07 -0.00100034)
(8.13573e-08 6.59279e-08 -0.00099983)
(8.13572e-08 1.51587e-07 -0.00099996)
(1.67016e-07 6.59279e-08 -0.000999919)
(1.67016e-07 1.51586e-07 -0.0010003)
(7.51268e-08 6.1611e-08 -0.000999845)
(7.51268e-08 1.35598e-07 -0.000999966)
(1.49114e-07 6.1611e-08 -0.00099993)
(1.49114e-07 1.35598e-07 -0.00100027)
(6.9364e-08 5.75241e-08 -0.00099986)
(6.9364e-08 1.21421e-07 -0.000999972)
(1.33261e-07 5.75241e-08 -0.00099994)
(1.33261e-07 1.21421e-07 -0.00100024)
(6.40527e-08 5.36786e-08 -0.000999873)
(6.40526e-08 1.08853e-07 -0.000999976)
(1.19227e-07 5.36786e-08 -0.000999949)
(1.19227e-07 1.08853e-07 -0.00100022)
(5.91754e-08 5.00811e-08 -0.000999886)
(5.91754e-08 9.77149e-08 -0.00099998)
(1.06809e-07 5.00811e-08 -0.000999956)
(1.06809e-07 9.77148e-08 -0.00100019)
(5.47136e-08 4.67345e-08 -0.000999897)
(5.47136e-08 8.78514e-08 -0.000999983)
(9.58305e-08 4.67345e-08 -0.000999963)
(9.58305e-08 8.78513e-08 -0.00100017)
(5.06485e-08 4.36384e-08 -0.000999908)
(5.06485e-08 7.9125e-08 -0.000999986)
(8.61351e-08 4.36384e-08 -0.000999968)
(8.61351e-08 7.9125e-08 -0.00100015)
(4.6961e-08 4.07902e-08 -0.000999918)
(4.6961e-08 7.14155e-08 -0.000999989)
(7.75862e-08 4.07902e-08 -0.000999973)
(7.75862e-08 7.14154e-08 -0.00100014)
(4.36323e-08 3.81853e-08 -0.000999927)
(4.36323e-08 6.46174e-08 -0.000999991)
(7.00644e-08 3.81853e-08 -0.000999977)
(7.00643e-08 6.46174e-08 -0.00100012)
(4.06441e-08 3.58179e-08 -0.000999935)
(4.06441e-08 5.8639e-08 -0.000999992)
(6.34652e-08 3.58179e-08 -0.000999981)
(6.34652e-08 5.8639e-08 -0.00100011)
(3.79791e-08 3.36811e-08 -0.000999943)
(3.7979e-08 5.34001e-08 -0.000999994)
(5.76981e-08 3.36811e-08 -0.000999984)
(5.7698e-08 5.34001e-08 -0.00100009)
(3.56205e-08 3.17674e-08 -0.00099995)
(3.56205e-08 4.88312e-08 -0.000999995)
(5.26843e-08 3.17673e-08 -0.000999987)
(5.26843e-08 4.88312e-08 -0.00100008)
(3.35529e-08 3.00688e-08 -0.000999957)
(3.35529e-08 4.48723e-08 -0.000999996)
(4.83564e-08 3.00688e-08 -0.000999989)
(4.83563e-08 4.48723e-08 -0.00100007)
(3.17615e-08 2.8577e-08 -0.000999963)
(3.17615e-08 4.14722e-08 -0.000999996)
(4.46566e-08 2.8577e-08 -0.000999991)
(4.46566e-08 4.14721e-08 -0.00100006)
(3.02326e-08 2.72828e-08 -0.000999969)
(3.02326e-08 3.85866e-08 -0.000999997)
(4.15364e-08 2.72828e-08 -0.000999993)
(4.15364e-08 3.85866e-08 -0.00100005)
(2.89535e-08 2.61769e-08 -0.000999974)
(2.89535e-08 3.61773e-08 -0.000999997)
(3.89539e-08 2.61769e-08 -0.000999994)
(3.89539e-08 3.61773e-08 -0.00100004)
(2.79342e-08 2.52732e-08 -0.000999979)
(2.79342e-08 3.42029e-08 -0.000999997)
(3.68639e-08 2.52732e-08 -0.000999996)
(3.68639e-08 3.42029e-08 -0.00100003)
(2.71301e-08 2.45391e-08 -0.000999985)
(2.71301e-08 3.27537e-08 -0.000999998)
(3.53447e-08 2.45391e-08 -0.000999997)
(3.53447e-08 3.27537e-08 -0.00100002)
(2.68101e-08 2.42676e-08 -0.000999989)
(2.68101e-08 3.18071e-08 -0.000999998)
(3.43495e-08 2.42676e-08 -0.000999998)
(3.43495e-08 3.1807e-08 -0.00100002)
)
;

boundaryField
{
    inlet
    {
        type            calculated;
        value           nonuniform List<vector> 4((2.68101e-08 2.42676e-08 -0.000999989) (3.43495e-08 2.42676e-08 -0.000999998) (2.68101e-08 3.18071e-08 -0.000999998) (3.43495e-08 3.1807e-08 -0.00100002));
    }
    outlet
    {
        type            calculated;
        value           nonuniform List<vector> 4((2.92355e-11 1.24431e-08 -0.0010001) (-6.72246e-10 1.24431e-08 -0.000999915) (2.92352e-11 1.17416e-08 -0.00100009) (-6.72246e-10 1.17416e-08 -0.000999923));
    }
    repeat_boundary
    {
        type            calculated;
        value           nonuniform List<vector> 
1440
(
(2.92355e-11 0 -0.0010001)
(1.04518e-10 0 -0.0010001)
(2.70424e-10 0 -0.0010001)
(4.65359e-10 0 -0.0010001)
(6.74167e-10 0 -0.00100011)
(9.04613e-10 0 -0.00100011)
(1.16949e-09 0 -0.00100012)
(1.47955e-09 0 -0.00100013)
(1.8448e-09 0 -0.00100014)
(2.2755e-09 0 -0.00100015)
(2.78284e-09 0 -0.00100016)
(3.37931e-09 0 -0.00100017)
(4.07902e-09 0 -0.00100019)
(4.89803e-09 0 -0.0010002)
(5.85473e-09 0 -0.00100022)
(6.97029e-09 0 -0.00100024)
(8.26919e-09 0 -0.00100027)
(9.77984e-09 0 -0.00100029)
(1.15353e-08 0 -0.00100032)
(1.35739e-08 0 -0.00100036)
(1.59406e-08 0 -0.00100039)
(1.86877e-08 0 -0.00100044)
(2.18761e-08 0 -0.00100048)
(2.55768e-08 0 -0.00100053)
(2.98725e-08 0 -0.00100059)
(3.48593e-08 0 -0.00100065)