FoamFile
{version 2.0; format ascii;class Cloud<passiveParticle>; location 0;object  positions;}
41
(
( 243.393 142.865 99.9154 ) 0 
( 294.279 336.211 99.9212 ) 0 
( 101.772 390.387 99.8432 ) 0 
( 436.396 194.893 99.7717 ) 0 
( 50.9199 197.083 99.8263 ) 0 
( 373.672 26.8323 197.527 ) 0 
( 230.797 482.719 221.381 ) 0 
( 171.362 268.775 242.479 ) 0 
( 359.801 215.692 283.159 ) 0 
( 63.4004 103.86 276.101 ) 0 
( 404.377 483.869 320.568 ) 0 
( 43.6407 471.506 290.883 ) 0 
( 425.839 55.3555 388.385 ) 0 
( 206.446 397.085 400.238 ) 0 
( 234.196 111.576 398.701 ) 0 
( 83.2845 240.93 420.242 ) 0 
( 388.672 328.652 445.527 ) 0 
( 132.517 98.8473 570.337 ) 0 
( 28.3544 427.408 485.77 ) 0 
( 329.857 51.5451 563.679 ) 0 
( 228.169 273.784 556.072 ) 0 
( 413.082 225.834 615.109 ) 0 
( 13.6343 260.746 606.562 ) 0 
( 255.743 156.325 716.973 ) 0 
( 136.424 422.105 653.899 ) 0 
( 335.229 403.296 664.378 ) 0 
( 496.801 334.075 760.803 ) 0 
( 251.191 10.1696 853.348 ) 0 
( 60.8707 139.209 758.108 ) 0 
( 401.948 182.772 850.788 ) 0 
( 183.605 314.519 815.729 ) 0 
( 147.857 159.517 936.979 ) 0 
( 349.379 438.254 860.768 ) 0 
( 293.27 289.255 981.674 ) 0 
( 64.462 431.782 925.47 ) 0 
( 197.215 2.41414 1050.43 ) 0 
( 410.828 448.625 1052.03 ) 0 
( 347.847 128.631 1087.52 ) 0 
( 78.4281 292.954 1068.73 ) 0 
( 246.975 308.357 1175.28 ) 0 
( 211.631 465.391 1056.58 ) 0 
)
