FoamFile
{version 2.0; format ascii;class Cloud<passiveParticle>; location 0;object  positions;}
349
(
( 0.00382595 0.000326947 0.000497736 ) 0 
( 0.00215888 0.000308191 0.000499245 ) 0 
( 0.00245741 0.0028758 0.000498358 ) 0 
( 0.00168102 0.00224739 0.000498277 ) 0 
( 0.000436061 0.00464246 0.000499112 ) 0 
( 0.000693225 0.00240396 0.000498626 ) 0 
( 0.00192478 0.00127898 0.000498771 ) 0 
( 0.00141204 0.00443229 0.00049797 ) 0 
( 0.00478926 0.00172741 0.000499693 ) 0 
( 0.00271068 0.00190724 0.00049735 ) 0 
( 0.000456173 0.00337404 0.000497043 ) 0 
( 0.00317892 0.00356746 0.000499296 ) 0 
( 0.000210923 0.000736093 0.000498667 ) 0 
( 0.00144346 0.00321831 0.000499084 ) 0 
( 0.00348752 0.00253663 0.000497319 ) 0 
( 0.0048921 0.00493059 0.000497526 ) 0 
( 0.00447503 0.00268673 0.000497487 ) 0 
( 0.000937838 0.0014353 0.000498179 ) 0 
( 0.00117056 0.000457469 0.000498075 ) 0 
( 0.00386389 0.00133635 0.000499678 ) 0 
( 0.002122 0.00184106 0.00130022 ) 0 
( 0.00473994 0.000728626 0.000498904 ) 0 
( 0.00417461 0.0036385 0.000498108 ) 0 
( 0.00294739 0.00454028 0.000499691 ) 0 
( 0.00383693 0.00308202 0.0012571 ) 0 
( 0.00222044 0.003847 0.00049847 ) 0 
( 0.00394519 0.00461088 0.000498754 ) 0 
( 0.00184121 0.00279961 0.00131431 ) 0 
( 0.00293805 0.000934777 0.00049826 ) 0 
( 0.0041083 0.000817756 0.00131901 ) 0 
( 0.00463006 0.00435531 0.00127197 ) 0 
( 0.00480557 0.00333275 0.00120894 ) 0 
( 0.00323391 0.00151733 0.00125481 ) 0 
( 0.000780243 0.00294948 0.00134063 ) 0 
( 0.00321039 0.000380737 0.00128247 ) 0 
( 0.00134553 0.00101571 0.00130721 ) 0 
( 0.0040656 0.00206394 0.00116034 ) 0 
( 0.00261712 0.00342936 0.00131393 ) 0 
( 0.00102128 0.00492351 0.00127419 ) 0 
( 0.00113895 0.00201775 0.00130477 ) 0 
( 0.000393327 0.00135522 0.00133122 ) 0 
( 0.00233598 0.000864635 0.00131051 ) 0 
( 0.00332377 0.00347787 0.00201763 ) 0 
( 0.000828784 0.00394355 0.00122786 ) 0 
( 0.00470622 0.000636997 0.00209863 ) 0 
( 0.00317854 0.000952394 0.00210107 ) 0 
( 0.000384555 0.00210772 0.00198821 ) 0 
( 0.00283332 1.80606e-06 0.00212542 ) 0 
( 0.00178479 0.00418742 0.00139083 ) 0 
( 0.00289695 0.0024712 0.00129876 ) 0 
( 0.00133013 0.00247511 0.00217119 ) 0 
( 0.00367305 0.00406693 0.00129019 ) 0 
( 0.00448723 0.00269522 0.00190946 ) 0 
( 0.00489159 0.00142445 0.00144799 ) 0 
( 0.00275463 0.00440273 0.00149439 ) 0 
( 0.00370591 0.00497329 0.00193035 ) 0 
( 0.00172542 0.000212348 0.00176218 ) 0 
( 0.0039851 0.00153469 0.00200144 ) 0 
( 0.00140667 0.00344406 0.00194016 ) 0 
( 0.00409671 0.00282732 0.00282022 ) 0 
( 0.00165769 0.00150734 0.00211802 ) 0 
( 0.00244424 0.00283653 0.00211027 ) 0 
( 0.00352314 0.0024949 0.00207478 ) 0 
( 0.000487044 0.000497628 0.00183173 ) 0 
( 0.000441615 0.00349634 0.00218707 ) 0 
( 0.00275467 0.00185663 0.00207223 ) 0 
( 0.00429736 0.0037073 0.00198183 ) 0 
( 0.00089547 0.0043854 0.00212111 ) 0 
( 0.00381624 0.000183854 0.00205226 ) 0 
( 0.000564879 0.00269731 0.00277512 ) 0 
( 0.00122166 0.000685539 0.00248163 ) 0 
( 0.00309838 0.00436204 0.00243272 ) 0 
( 0.0017772 0.0031057 0.00280349 ) 0 
( 0.00379771 0.0037799 0.00284248 ) 0 
( 0.002248 0.000757938 0.00241556 ) 0 
( 0.00229929 0.00382285 0.00217398 ) 0 
( 0.00372291 0.00190102 0.00289119 ) 0 
( 0.00472458 0.00194853 0.00253154 ) 0 
( 0.00183433 0.00470264 0.00224496 ) 0 
( 0.000930045 0.00176648 0.00275031 ) 0 
( 0.00208223 0.00215672 0.00274702 ) 0 
( 0.00297894 0.00256601 0.00290979 ) 0 
( 0.00240624 5.24049e-05 0.00328879 ) 0 
( 0.00283305 0.00355215 0.00297301 ) 0 
( 0.00180348 0.00407846 0.00302299 ) 0 
( 0.00478148 0.00394873 0.00282195 ) 0 
( 0.0009512 0.00459319 0.00310383 ) 0 
( 0.0032701 0.000401486 0.00293002 ) 0 
( 0.00058627 0.000947875 0.00320493 ) 0 
( 0.00173572 0.00128584 0.00309234 ) 0 
( 0.00280449 0.00138982 0.00295293 ) 0 
( 2.8157e-05 0.00401026 0.00293519 ) 0 
( 0.00437788 0.00484742 0.00265808 ) 0 
( 0.00244799 0.00484035 0.00302135 ) 0 
( 0.0040872 0.00096295 0.00281287 ) 0 
( 0.00454899 8.3187e-05 0.00291849 ) 0 
( 0.00093562 0.00358489 0.00305008 ) 0 
( 0.00436682 0.00155193 0.00356973 ) 0 
( 0.000206751 0.00339036 0.00370415 ) 0 
( 0.00460871 0.00347185 0.00368238 ) 0 
( 0.00421548 0.00437755 0.00352478 ) 0 
( 0.00135143 0.00241268 0.00338268 ) 0 
( 0.00334132 0.00219617 0.00376523 ) 0 
( 0.003754 0.00383591 0.00427095 ) 0 
( 0.00240286 0.00093943 0.00374927 ) 0 
( 0.0034814 0.0010912 0.003623 ) 0 
( 0.00352759 0.00315784 0.00357309 ) 0 
( 0.00322283 0.00435373 0.00342367 ) 0 
( 0.00432332 0.000573029 0.00376265 ) 0 
( 0.000605289 0.00181671 0.00369944 ) 0 
( 0.00159491 0.00333694 0.00375894 ) 0 
( 0.000774 0.00269679 0.00414626 ) 0 
( 0.00308072 0.000250025 0.00399874 ) 0 
( 0.00238124 0.00193661 0.00367408 ) 0 
( 9.00688e-05 0.00145343 0.00454348 ) 0 
( 0.00101465 0.0041197 0.00398154 ) 0 
( 0.0025052 0.00292732 0.00371105 ) 0 
( 0.00151892 0.00157519 0.0040235 ) 0 
( 0.00295355 0.00149974 0.00436641 ) 0 
( 0.000818849 0.000880029 0.0041734 ) 0 
( 0.0014076 0.00039897 0.00342027 ) 0 
( 0.00428308 0.00253009 0.00375427 ) 0 
( 0.000126968 0.00453297 0.00377955 ) 0 
( 0.000641927 0.0049664 0.00451651 ) 0 
( 0.00174581 0.00476059 0.00375017 ) 0 
( 0.00225014 0.00333095 0.00459288 ) 0 
( 0.00399615 0.00186476 0.00444257 ) 0 
( 0.00438461 0.00313912 0.0046097 ) 0 
( 0.00299046 0.0044686 0.00439681 ) 0 
( 0.00109972 0.00426388 0.00505739 ) 0 
( 0.000418223 0.00366394 0.00464098 ) 0 
( 0.00179489 0.00250254 0.0042718 ) 0 
( 0.00340935 0.00293576 0.00453814 ) 0 
( 0.00173211 0.000516669 0.0043576 ) 0 
( 0.00199025 0.00431947 0.0046114 ) 0 
( 0.000943198 0.00192692 0.00476114 ) 0 
( 0.00240816 0.00391707 0.00380022 ) 0 
( 0.00123666 0.00101183 0.00507007 ) 0 
( 0.00468069 0.00140344 0.00500515 ) 0 
( 0.00128774 0.00321043 0.00483245 ) 0 
( 0.000144763 0.0044897 0.00524128 ) 0 
( 0.00466813 0.000440617 0.00474406 ) 0 
( 0.00289013 0.00065376 0.00489189 ) 0 
( 0.00393543 0.00246095 0.00524101 ) 0 
( 0.00174398 0.00498365 0.00531621 ) 0 
( 0.000169383 0.000432507 0.00478869 ) 0 
( 0.0035742 0.00439077 0.00521376 ) 0 
( 0.00379748 0.000891895 0.00454965 ) 0 
( 0.00187694 0.003761 0.00543128 ) 0 
( 0.00499459 0.00482355 0.00468758 ) 0 
( 0.00403316 0.00478344 0.00441846 ) 0 
( 0.00263949 0.00235114 0.00478314 ) 0 
( 0.00108355 7.06508e-06 0.00529108 ) 0 
( 0.00207795 0.00150466 0.00484831 ) 0 
( 0.0039471 0.000455845 0.00543554 ) 0 
( 0.000943272 0.00362685 0.00580906 ) 0 
( 1.08616e-05 0.00341509 0.00551815 ) 0 
( 0.00344624 0.00158936 0.00523066 ) 0 
( 0.00213063 0.000773992 0.00552815 ) 0 
( 0.00176928 0.00241858 0.00526622 ) 0 
( 0.00491967 0.00484373 0.00568303 ) 0 
( 0.00312806 0.000863635 0.00583977 ) 0 
( 0.00257318 0.00183628 0.00565028 ) 0 
( 0.00300742 0.00356811 0.00519794 ) 0 
( 0.00259436 0.00445581 0.0053946 ) 0 
( 0.00451541 0.00406673 0.00512933 ) 0 
( 0.00126118 0.000676765 0.00601081 ) 0 
( 0.00216477 0.002985 0.00598832 ) 0 
( 0.00161533 0.00158581 0.0057937 ) 0 
( 0.000143066 0.00203028 0.0053563 ) 0 
( 0.000353474 0.0010698 0.00553521 ) 0 
( 0.00491494 0.00230793 0.00535444 ) 0 
( 0.000244529 0.00422215 0.00620111 ) 0 
( 0.00417481 0.00133005 0.00586317 ) 0 
( 0.00391749 0.00340214 0.00557475 ) 0 
( 0.00307416 0.00269997 0.00568749 ) 0 
( 0.000292471 0.00013627 0.00588728 ) 0 
( 0.000873873 0.00264535 0.00564374 ) 0 
( 0.000869119 0.0048918 0.00579954 ) 0 
( 0.00161484 0.00360523 0.00654726 ) 0 
( 0.00193773 0.00446147 0.00614605 ) 0 
( 0.0029611 0.00317294 0.00656095 ) 0 
( 0.00232584 0.00122224 0.00639867 ) 0 
( 0.00436231 0.00265946 0.00612221 ) 0 
( 0.00318552 0.00401585 0.00607213 ) 0 
( 0.00259823 0.000262586 0.00643725 ) 0 
( 0.000544532 0.00340326 0.00669762 ) 0 
( 0.00415288 0.00430294 0.00602846 ) 0 
( 0.00342293 0.00498401 0.00600393 ) 0 
( 0.00493329 0.00073431 0.00612321 ) 0 
( 0.00199587 0.00215641 0.00651844 ) 0 
( 0.000442253 0.000886036 0.00654346 ) 0 
( 0.000701899 0.0017801 0.00614481 ) 0 
( 0.00109302 0.00444871 0.00667786 ) 0 
( 0.00356016 5.72486e-05 0.00626537 ) 0 
( 0.00341954 0.00190217 0.00618015 ) 0 
( 7.91375e-05 0.00261935 0.00624961 ) 0 
( 0.00369444 0.00257613 0.00688247 ) 0 
( 0.00248213 0.00400183 0.0068467 ) 0 
( 0.000267462 0.00424038 0.00719992 ) 0 
( 0.00224432 0.000764932 0.00728299 ) 0 
( 0.00434994 0.00184476 0.00670113 ) 0 
( 0.00138328 0.00135265 0.00673688 ) 0 
( 0.0015637 0.000191862 0.00682979 ) 0 
( 0.00318709 0.00109416 0.0068889 ) 0 
( 0.00497234 0.00317777 0.00672029 ) 0 
( 0.00411236 0.000772508 0.00669177 ) 0 
( 0.0039056 0.00350011 0.00656873 ) 0 
( 0.0028634 0.00203356 0.00699994 ) 0 
( 0.00214101 0.0029574 0.00709536 ) 0 
( 0.00109182 0.00257064 0.00661529 ) 0 
( 0.00362989 0.00441717 0.00687116 ) 0 
( 0.00448159 0.00499457 0.00734042 ) 0 
( 0.000359796 0.00117185 0.00749784 ) 0 
( 0.00186633 0.00489516 0.00713473 ) 0 
( 0.00201023 0.00172623 0.00741941 ) 0 
( 0.00354189 0.000177085 0.00725682 ) 0 
( 0.00370996 0.00176364 0.00746288 ) 0 
( 0.00283629 0.00478834 0.00735088 ) 0 
( 0.00333528 0.00360973 0.00738203 ) 0 
( 0.000340037 0.0020557 0.00703311 ) 0 
( 0.00286003 0.00136035 0.00779614 ) 0 
( 0.00105977 0.00185695 0.00769749 ) 0 
( 0.000313673 0.00247605 0.00793923 ) 0 
( 0.00027146 0.00347115 0.00783726 ) 0 
( 0.00179578 0.00255043 0.00794072 ) 0 
( 0.00241963 0.00362561 0.00778238 ) 0 
( 0.00128659 0.00080579 0.00756661 ) 0 
( 0.00286426 0.000374967 0.00796312 ) 0 
( 0.00459996 0.00405322 0.00702629 ) 0 
( 0.00155285 0.00400492 0.00746078 ) 0 
( 0.002909 0.00274742 0.00769828 ) 0 
( 0.00111981 0.00310481 0.00745827 ) 0 
( 0.00487095 0.00116248 0.00721206 ) 0 
( 0.00398537 0.00425248 0.00778889 ) 0 
( 0.000978899 0.00483942 0.00759042 ) 0 
( 0.00214864 0.00466415 0.00806521 ) 0 
( 0.00196365 0.00118018 0.00825462 ) 0 
( 0.00407181 0.000873845 0.0077383 ) 0 
( 0.00247555 0.00201744 0.00844308 ) 0 
( 0.000295973 0.0048453 0.00832904 ) 0 
( 0.000885542 7.75909e-05 0.00812135 ) 0 
( 0.000942115 0.00408736 0.00824695 ) 0 
( 0.00482842 0.00134373 0.00819353 ) 0 
( 0.00427563 0.00317119 0.00743729 ) 0 
( 0.00491471 0.00393427 0.0079674 ) 0 
( 0.0040357 0.00348749 0.00842796 ) 0 
( 0.00188858 0.000198735 0.00808233 ) 0 
( 0.00458349 0.00218196 0.00770776 ) 0 
( 0.00357567 0.00162208 0.00844283 ) 0 
( 0.00219106 0.00291314 0.00878305 ) 0 
( 0.00117189 0.00313714 0.00845557 ) 0 
( 0.000209886 0.000373161 0.00880758 ) 0 
( 0.00034994 0.00355048 0.00884601 ) 0 
( 0.00409782 0.000822113 0.00873558 ) 0 
( 0.00305218 0.00333022 0.00849755 ) 0 
( 0.00185692 0.00385506 0.00857516 ) 0 
( 0.00461857 0.00217497 0.00870648 ) 0 
( 0.00377643 0.00256116 0.00815706 ) 0 
( 0.00283832 0.00101218 0.00873208 ) 0 
( 0.00306566 0.00427655 0.00817707 ) 0 
( 0.000341736 0.00193597 0.00878 ) 0 
( 0.00495032 0.00309713 0.00851178 ) 0 
( 0.00140698 0.00194259 0.00863215 ) 0 
( 0.000834332 0.00116334 0.00838137 ) 0 
( 0.00435928 0.00439218 0.008705 ) 0 
( 0.00208817 0.00147818 0.00920063 ) 0 
( 0.00348078 0.00407683 0.00906328 ) 0 
( 0.0049045 0.00099156 0.00929988 ) 0 
( 0.00225924 0.00463215 0.0090578 ) 0 
( 0.00172583 0.00236756 0.00947833 ) 0 
( 0.00152391 0.00336063 0.00937732 ) 0 
( 0.00105988 0.00423312 0.00922877 ) 0 
( 0.0014743 0.000609254 0.0089127 ) 0 
( 0.00405254 0.00162925 0.00932304 ) 0 
( 0.00133448 0.0049428 0.00858143 ) 0 
( 0.000991867 0.00137636 0.00934451 ) 0 
( 0.00468386 0.0036548 0.00929683 ) 0 
( 0.000799713 0.00268151 0.00926316 ) 0 
( 0.000118197 0.00444693 0.00948549 ) 0 
( 0.00323167 0.00239313 0.00897734 ) 0 
( 0.000340858 0.00197877 0.00980535 ) 0 
( 0.0015199 0.000737017 0.00990284 ) 0 
( 0.00324265 0.00310383 0.00967988 ) 0 
( 0.0031409 0.00134954 0.00962265 ) 0 
( 0.00245516 0.000623758 0.00956877 ) 0 
( 0.00453143 0.00455789 0.00969678 ) 0 
( 0.000549573 0.000565936 0.00972758 ) 0 
( 0.00184328 0.00418282 0.00984801 ) 0 
( 0.00406893 0.000744732 0.00978823 ) 0 
( 0.00408618 0.00285921 0.00920339 ) 0 
( 0.00255129 0.00370278 0.00927803 ) 0 
( 0.00337274 0.000316876 0.00921374 ) 0 
( 0.00320654 0.000466096 0.0102086 ) 0 
( 0.00461092 0.00284699 0.0100537 ) 0 
( 0.00391583 0.0038025 0.00991961 ) 0 
( 0.00224517 0.00309084 0.0100142 ) 0 
( 0.00374613 0.00230075 0.00999687 ) 0 
( 0.000784162 0.00487302 0.0100965 ) 0 
( 0.00266681 0.00221523 0.00978172 ) 0 
( 0.00304046 0.00474201 0.00967123 ) 0 
( 0.00226681 0.00139116 0.0101806 ) 0 
( 0.000636142 0.00353342 0.00980305 ) 0 
( 0.00497597 0.000652083 0.0102367 ) 0 
( 0.00119005 0.00280275 0.0102009 ) 0 
( 0.00134512 0.00177734 0.0101888 ) 0 
( 0.000673404 0.00219251 0.010801 ) 0 
( 0.00291159 0.00389724 0.0101898 ) 0 
( 0.00445075 0.00155192 0.0102367 ) 0 
( 0.000387013 0.00314367 0.0106892 ) 0 
( 0.00241692 0.00467767 0.0105712 ) 0 
( 0.00299274 0.00273428 0.0105741 ) 0 
( 0.00099584 0.000196708 0.0105606 ) 0 
( 0.00111369 0.00392153 0.0105905 ) 0 
( 0.00371051 0.00459612 0.0104914 ) 0 
( 0.00482601 0.00382346 0.0103314 ) 0 
( 0.000541002 0.00124855 0.0104577 ) 0 
( 0.00226242 0.000457551 0.0105369 ) 0 
( 0.00209657 0.00229257 0.0105992 ) 0 
( 0.00175967 0.00023218 0.0113711 ) 0 
( 0.00208644 0.00375103 0.0107475 ) 0 
( 0.00229674 0.00295753 0.0113181 ) 0 
( 0.00316111 0.0017115 0.010554 ) 0 
( 0.000209789 0.00434837 0.010724 ) 0 
( 0.00306039 0.00357258 0.0111232 ) 0 
( 0.00407231 0.00080691 0.0107859 ) 0 
( 0.00163912 0.00453218 0.0111822 ) 0 
( 0.000661542 0.000769917 0.0113268 ) 0 
( 0.00417361 0.00224713 0.0108991 ) 0 
( 0.00496986 0.00465386 0.0108689 ) 0 
( 0.00149771 0.00104616 0.0108532 ) 0 
( 0.00149322 0.00193485 0.0113115 ) 0 
( 0.0048006 0.00301201 0.0110463 ) 0 
( 0.0038778 0.00318116 0.0107013 ) 0 
( 0.000700324 0.00258913 0.0117183 ) 0 
( 0.00423627 0.00401789 0.0111148 ) 0 
( 0.00239163 0.00152207 0.0111638 ) 0 
( 0.000694135 8.27619e-05 0.0120521 ) 0 
( 0.00330165 0.00224372 0.0113885 ) 0 
( 0.000191735 0.00370777 0.0114913 ) 0 
( 0.00313349 0.000853087 0.0111271 ) 0 
( 0.00176049 0.00112152 0.0118278 ) 0 
( 0.00350518 0.00309138 0.0118781 ) 0 
( 0.00132529 0.00311432 0.011141 ) 0 
( 0.00472488 0.000463486 0.0115119 ) 0 
( 0.00351306 0.00139647 0.0118753 ) 0 
( 0.00442158 0.00269345 0.0119147 ) 0 
( 0.00256876 0.00435491 0.011505 ) 0 
( 0.00444537 0.00171578 0.0117074 ) 0 
)
