/*--------------------------------*- C++ -*----------------------------------*\
| =========                 |                                                 |
| \\      /  F ield         | OpenFOAM: The Open Source CFD Toolbox           |
|  \\    /   O peration     | Version:  5.x                                   |
|   \\  /    A nd           | Web:      www.OpenFOAM.org                      |
|    \\/     M anipulation  |                                                 |
\*---------------------------------------------------------------------------*/
FoamFile
{
    version     2.0;
    format      ascii;
    class       volScalarField;
    location    "0.07";
    object      p;
}
// * * * * * * * * * * * * * * * * * * * * * * * * * * * * * * * * * * * * * //

dimensions      [0 2 -2 0 0 0 0];

internalField   nonuniform List<scalar> 
2250
(
3.9648e-11
7.65027e-11
1.04513e-10
9.99767e-11
8.48928e-11
-7.60093e-13
3.70313e-11
5.86353e-11
5.89583e-11
5.66954e-11
5.24513e-12
2.81413e-11
3.98624e-11
3.78395e-11
4.2145e-11
3.05753e-11
2.51923e-11
3.13994e-11
3.35163e-11
3.34215e-11
4.84661e-11
3.06075e-11
3.55084e-11
2.86493e-11
3.31212e-11
9.29596e-11
1.25256e-10
1.94986e-10
2.10182e-10
1.96538e-10
-6.37577e-11
3.83978e-11
1.23663e-10
1.5284e-10
1.68371e-10
-4.87422e-11
2.09994e-11
9.50493e-11
1.30983e-10
1.44328e-10
2.52642e-11
4.54056e-11
8.3318e-11
9.98722e-11
1.15764e-10
7.64764e-11
5.26077e-11
7.0595e-11
8.76434e-11
9.39163e-11
1.76979e-10
1.57339e-10
2.56137e-10
3.17331e-10
3.39815e-10
-1.0043e-10
5.24827e-11
2.00305e-10
2.92485e-10
3.32659e-10
-1.09183e-10
4.33282e-11
1.7017e-10
2.45176e-10
2.78675e-10
-2.68846e-11
5.11955e-11
1.31582e-10
1.73511e-10
1.95087e-10
2.78494e-11
4.87817e-11
1.00121e-10
1.27067e-10
1.18225e-10
2.74334e-10
3.22747e-10
4.78968e-10
5.8111e-10
6.2365e-10
-1.97569e-12
2.01914e-10
3.9537e-10
5.12933e-10
5.50772e-10
-5.67819e-11
1.28366e-10
2.89702e-10
3.79295e-10
4.04153e-10
-4.76069e-11
7.60222e-11
1.77872e-10
2.19444e-10
2.17608e-10
-4.90587e-11
3.96166e-11
1.00831e-10
1.091e-10
8.89806e-11
4.56842e-10
6.37669e-10
8.28661e-10
9.24305e-10
9.57472e-10
2.4928e-10
4.60851e-10
6.32443e-10
7.22686e-10
7.37382e-10
1.07713e-10
2.75733e-10
4.01941e-10
4.6162e-10
4.59054e-10
-1.233e-11
1.21607e-10
1.86343e-10
2.07734e-10
1.84494e-10
-8.67199e-11
2.75571e-11
6.36157e-11
5.06658e-11
5.0569e-11
8.82676e-10
9.73113e-10
1.08494e-09
1.13935e-09
1.16156e-09
5.73419e-10
6.78871e-10
7.81957e-10
8.23831e-10
8.22917e-10
2.89016e-10
3.90768e-10
4.53354e-10
4.72485e-10
4.64196e-10
5.5197e-11
1.49789e-10
1.68602e-10
1.83218e-10
1.79112e-10
-6.3068e-11
1.91771e-11
2.92711e-11
3.303e-11
8.97196e-11
1.37484e-09
1.17995e-09
1.15021e-09
1.18796e-09
1.23271e-09
8.31961e-10
7.80194e-10
8.18861e-10
8.49501e-10
8.76664e-10
3.9982e-10
4.38284e-10
4.73495e-10
5.01929e-10
5.33713e-10
1.01473e-10
1.62662e-10
1.91736e-10
2.47486e-10
3.09026e-10
-3.47504e-11
2.82492e-11
6.89453e-11
1.48384e-10
2.68523e-10
1.53574e-09
1.23896e-09
1.1881e-09
1.28271e-09
1.37407e-09
9.32556e-10
8.40024e-10
8.94399e-10
9.67128e-10
1.05447e-09
4.53533e-10
5.01481e-10
5.74395e-10
6.75133e-10
7.65658e-10
1.33465e-10
2.21886e-10
3.34554e-10
4.70475e-10
6.00826e-10
-1.47002e-11
1.01409e-10
2.38453e-10
4.16305e-10
5.62251e-10
1.38312e-09
1.35295e-09
1.46192e-09
1.64358e-09
1.75519e-09
9.87321e-10
1.02597e-09
1.16365e-09
1.28805e-09
1.40879e-09
5.73904e-10
6.91691e-10
8.27841e-10
1.00677e-09
1.12138e-09
2.47532e-10
3.96758e-10
6.06395e-10
8.04225e-10
9.54848e-10
8.12875e-11
2.84418e-10
5.16376e-10
7.48553e-10
8.67135e-10
1.44804e-09
1.77183e-09
2.03487e-09
2.21735e-09
2.27273e-09
1.24288e-09
1.4231e-09
1.60153e-09
1.7191e-09
1.80528e-09
8.67198e-10
1.01886e-09
1.17125e-09
1.3599e-09
1.44684e-09
5.11444e-10
6.77916e-10
9.13272e-10
1.10726e-09
1.22047e-09
3.21296e-10
5.55767e-10
8.04903e-10
1.01134e-09
1.07254e-09
2.04267e-09
2.44908e-09
2.67292e-09
2.72363e-09
2.66857e-09
1.7296e-09
1.91239e-09
2.02499e-09
2.06341e-09
2.0743e-09
1.26318e-09
1.36941e-09
1.46569e-09
1.58132e-09
1.61861e-09
8.58591e-10
9.73021e-10
1.13835e-09
1.26442e-09
1.30954e-09
6.58914e-10
8.32711e-10
1.00573e-09
1.11767e-09
1.12484e-09
2.82875e-09
3.07468e-09
3.12581e-09
3.00562e-09
2.86584e-09
2.20438e-09
2.30234e-09
2.29567e-09
2.23693e-09
2.18422e-09
1.58929e-09
1.62266e-09
1.63245e-09
1.6374e-09
1.62849e-09
1.15363e-09
1.18653e-09
1.23061e-09
1.25296e-09
1.23149e-09
9.67858e-10
1.0207e-09
1.06466e-09
1.05487e-09
1.03501e-09
3.46435e-09
3.51618e-09
3.39662e-09
3.1627e-09
3.00147e-09
2.5298e-09
2.53616e-09
2.42653e-09
2.30034e-09
2.21385e-09
1.76148e-09
1.73587e-09
1.67465e-09
1.57923e-09
1.53371e-09
1.28089e-09
1.2465e-09
1.17848e-09
1.10015e-09
1.04373e-09
1.08302e-09
1.0197e-09
9.46554e-10
8.48191e-10
8.36157e-10
4.06221e-09
3.87084e-09
3.59827e-09
3.33131e-09
3.19917e-09
2.7491e-09
2.64147e-09
2.46617e-09
2.31245e-09
2.21818e-09
1.74059e-09
1.67627e-09
1.57683e-09
1.42803e-09
1.36869e-09
1.11676e-09
1.06185e-09
9.39895e-10
8.14233e-10
7.68281e-10
8.24018e-10
7.24792e-10
6.08617e-10
4.99177e-10
5.09088e-10
4.65325e-09
4.13613e-09
3.74707e-09
3.52124e-09
3.43697e-09
2.79433e-09
2.5704e-09
2.37698e-09
2.2329e-09
2.1565e-09
1.42203e-09
1.35362e-09
1.25318e-09
1.12368e-09
1.07941e-09
5.41322e-10
5.25233e-10
4.2863e-10
3.26481e-10
3.10238e-10
8.78237e-11
5.57564e-11
-2.17647e-11
-8.55532e-11
-7.85721e-11
4.9162e-09
4.2265e-09
3.81108e-09
3.64372e-09
3.58893e-09
2.52155e-09
2.24844e-09
2.06866e-09
1.95137e-09
1.90792e-09
7.29452e-10
6.75144e-10
5.90839e-10
5.26166e-10
4.96886e-10
-4.81531e-10
-4.48314e-10
-4.84155e-10
-5.41987e-10
-5.50301e-10
-1.10724e-09
-1.06047e-09
-1.08593e-09
-1.11248e-09
-1.13344e-09
4.7006e-09
4.14806e-09
3.765e-09
3.60239e-09
3.55288e-09
1.90246e-09
1.64583e-09
1.45806e-09
1.3426e-09
1.30878e-09
-3.65002e-10
-4.34912e-10
-5.30005e-10
-5.64471e-10
-6.06763e-10
-1.9775e-09
-1.96125e-09
-1.97931e-09
-2.02478e-09
-2.05086e-09
-2.79198e-09
-2.76696e-09
-2.78593e-09
-2.81108e-09
-2.84025e-09
4.3106e-09
3.95155e-09
3.54895e-09
3.30414e-09
3.21322e-09
9.6085e-10
6.92263e-10
4.27364e-10
2.51618e-10
1.71855e-10
-1.99193e-09
-2.12578e-09
-2.27517e-09
-2.36102e-09
-2.43523e-09
-4.14361e-09
-4.20867e-09
-4.26751e-09
-4.32698e-09
-4.3779e-09
-5.24131e-09
-5.29857e-09
-5.33716e-09
-5.37491e-09
-5.39739e-09
4.1046e-09
3.64905e-09
3.04555e-09
2.60264e-09
2.39004e-09
-3.32404e-10
-7.71045e-10
-1.21231e-09
-1.52029e-09
-1.69474e-09
-4.38073e-09
-4.63869e-09
-4.87803e-09
-5.07988e-09
-5.20262e-09
-7.31507e-09
-7.46806e-09
-7.59423e-09
-7.68592e-09
-7.77401e-09
-8.85388e-09
-8.95001e-09
-9.01044e-09
-9.0732e-09
-9.1263e-09
3.82795e-09
3.02296e-09
2.06194e-09
1.34371e-09
9.65772e-10
-2.28344e-09
-3.02198e-09
-3.71556e-09
-4.22346e-09
-4.52992e-09
-7.85445e-09
-8.29387e-09
-8.67668e-09
-9.02726e-09
-9.22541e-09
-1.18806e-08
-1.21175e-08
-1.23301e-08
-1.24911e-08
-1.26253e-08
-1.40313e-08
-1.41293e-08
-1.42274e-08
-1.43389e-08
-1.44414e-08
2.82137e-09
1.66602e-09
3.3723e-10
-7.12599e-10
-1.29546e-09
-5.52044e-09
-6.49188e-09
-7.45795e-09
-8.22607e-09
-8.66514e-09
-1.2986e-08
-1.3577e-08
-1.41496e-08
-1.46337e-08
-1.49018e-08
-1.84527e-08
-1.87257e-08
-1.90079e-08
-1.92505e-08
-1.94093e-08
-2.13924e-08
-2.14396e-08
-2.15605e-08
-2.17032e-08
-2.18266e-08
1.15044e-09
-5.25368e-10
-2.37652e-09
-3.91826e-09
-4.73455e-09
-1.04057e-08
-1.15763e-08
-1.28559e-08
-1.39055e-08
-1.44388e-08
-2.04372e-08
-2.10733e-08
-2.18058e-08
-2.23809e-08
-2.26988e-08
-2.78409e-08
-2.79994e-08
-2.82646e-08
-2.85378e-08
-2.87093e-08
-3.17942e-08
-3.16582e-08
-3.16953e-08
-3.18009e-08
-3.19253e-08
-9.52902e-10
-3.54675e-09
-6.2271e-09
-8.37528e-09
-9.43641e-09
-1.70548e-08
-1.85428e-08
-2.02013e-08
-2.15565e-08
-2.2258e-08
-3.07602e-08
-3.13415e-08
-3.21512e-08
-3.28385e-08
-3.32428e-08
-4.08746e-08
-4.07171e-08
-4.08377e-08
-4.10744e-08
-4.1272e-08
-4.62254e-08
-4.56833e-08
-4.54495e-08
-4.54462e-08
-4.55262e-08
-3.99586e-09
-7.55893e-09
-1.12567e-08
-1.41902e-08
-1.57783e-08
-2.58899e-08
-2.77169e-08
-2.98553e-08
-3.17062e-08
-3.27764e-08
-4.46661e-08
-4.50518e-08
-4.58841e-08
-4.67742e-08
-4.73418e-08
-5.85902e-08
-5.78115e-08
-5.76233e-08
-5.77943e-08
-5.79935e-08
-6.59319e-08
-6.45583e-08
-6.38354e-08
-6.36223e-08
-6.35945e-08
-7.35375e-09
-1.21601e-08
-1.75188e-08
-2.20051e-08
-2.46269e-08
-3.7139e-08
-3.94293e-08
-4.24157e-08
-4.51831e-08
-4.68268e-08
-6.30379e-08
-6.30422e-08
-6.39479e-08
-6.51754e-08
-6.59979e-08
-8.22703e-08
-8.04439e-08
-7.97807e-08
-7.98719e-08
-8.00444e-08
-9.24217e-08
-8.96476e-08
-8.81677e-08
-8.7614e-08
-8.75075e-08
-9.61985e-09
-1.68601e-08
-2.52999e-08
-3.25835e-08
-3.67834e-08
-5.09008e-08
-5.40529e-08
-5.85952e-08
-6.29344e-08
-6.55277e-08
-8.6919e-08
-8.63415e-08
-8.75057e-08
-8.93366e-08
-9.05766e-08
-1.1357e-07
-1.10181e-07
-1.0887e-07
-1.0887e-07
-1.0911e-07
-1.27706e-07
-1.22832e-07
-1.2022e-07
-1.19232e-07
-1.19015e-07
-1.06447e-08
-2.17163e-08
-3.50764e-08
-4.68845e-08
-5.37333e-08
-6.77995e-08
-7.21897e-08
-7.93089e-08
-8.634e-08
-9.06152e-08
-1.17886e-07
-1.16362e-07
-1.18069e-07
-1.21023e-07
-1.23038e-07
-1.54978e-07
-1.49171e-07
-1.46939e-07
-1.46915e-07
-1.47367e-07
-1.74676e-07
-1.66599e-07
-1.62298e-07
-1.60702e-07
-1.60234e-07
-8.55139e-09
-2.55932e-08
-4.70538e-08
-6.66429e-08
-7.81751e-08
-8.77465e-08
-9.41143e-08
-1.056e-07
-1.17394e-07
-1.24615e-07
-1.57614e-07
-1.54718e-07
-1.57479e-07
-1.62551e-07
-1.66024e-07
-2.09597e-07
-2.00085e-07
-1.96528e-07
-1.96755e-07
-1.9755e-07
-2.37125e-07
-2.24152e-07
-2.17211e-07
-2.14808e-07
-2.14069e-07
1.96692e-09
-2.53825e-08
-6.10032e-08
-9.42808e-08
-1.13969e-07
-1.08822e-07
-1.1911e-07
-1.38319e-07
-1.58755e-07
-1.71278e-07
-2.07201e-07
-2.02887e-07
-2.0772e-07
-2.169e-07
-2.2289e-07
-2.80907e-07
-2.66194e-07
-2.60743e-07
-2.62026e-07
-2.63572e-07
-3.19907e-07
-2.997e-07
-2.88498e-07
-2.85379e-07
-2.84266e-07
2.96111e-08
-1.5744e-08
-7.60219e-08
-1.33506e-07
-1.67429e-07
-1.26505e-07
-1.45082e-07
-1.78018e-07
-2.14495e-07
-2.36583e-07
-2.66633e-07
-2.62207e-07
-2.70658e-07
-2.87821e-07
-2.97667e-07
-3.73043e-07
-3.52062e-07
-3.43534e-07
-3.48157e-07
-3.51235e-07
-4.28961e-07
-3.9931e-07
-3.80369e-07
-3.77482e-07
-3.74915e-07
9.21037e-08
1.34781e-08
-8.95382e-08
-1.90803e-07
-2.49075e-07
-1.30276e-07
-1.67901e-07
-2.24417e-07
-2.9169e-07
-3.31279e-07
-3.32112e-07
-3.34572e-07
-3.46658e-07
-3.79901e-07
-3.94122e-07
-4.897e-07
-4.65626e-07
-4.4982e-07
-4.64476e-07
-4.69389e-07
-5.69635e-07
-5.33556e-07
-4.9607e-07
-4.98232e-07
-4.89501e-07
2.26071e-07
7.92389e-08
-9.56552e-08
-2.77946e-07
-3.74847e-07
-9.53779e-08
-1.82193e-07
-2.74771e-07
-4.04694e-07
-4.76726e-07
-3.86942e-07
-4.26112e-07
-4.30146e-07
-5.01668e-07
-5.15423e-07
-6.30884e-07
-6.23692e-07
-5.83566e-07
-6.27829e-07
-6.29817e-07
-7.42253e-07
-7.23922e-07
-6.32995e-07
-6.60659e-07
-6.2928e-07
5.08533e-07
2.04148e-07
-8.0012e-08
-4.23087e-07
-5.71047e-07
2.77994e-08
-1.80026e-07
-3.1954e-07
-5.81425e-07
-7.07837e-07
-3.89535e-07
-5.50193e-07
-5.05064e-07
-6.74744e-07
-6.65614e-07
-7.96916e-07
-8.52812e-07
-7.48057e-07
-8.6332e-07
-8.44998e-07
-9.44233e-07
-1.00509e-06
-7.84783e-07
-8.83576e-07
-7.87557e-07
1.09297e-06
4.19733e-07
-7.19072e-09
-6.89801e-07
-8.82147e-07
3.17378e-07
-1.29683e-07
-3.48079e-07
-8.64067e-07
-1.082e-06
-2.67775e-07
-7.25516e-07
-5.64135e-07
-9.36561e-07
-8.51406e-07
-9.99265e-07
-1.18271e-06
-9.66372e-07
-1.19833e-06
-1.13107e-06
-1.18005e-06
-1.42471e-06
-9.55436e-07
-1.18534e-06
-9.39399e-07
2.25254e-06
7.81515e-07
1.52746e-07
-1.20392e-06
-1.411e-06
8.9799e-07
5.12903e-08
-3.94408e-07
-1.34021e-06
-1.74103e-06
7.60921e-08
-9.99165e-07
-6.55199e-07
-1.3803e-06
-1.13026e-06
-1.28499e-06
-1.65316e-06
-1.31217e-06
-1.67871e-06
-1.51903e-06
-1.49032e-06
-2.06135e-06
-1.17309e-06
-1.59564e-06
-1.03812e-06
4.44711e-06
1.46743e-06
2.68316e-07
-2.23753e-06
-2.6187e-06
2.0363e-06
4.63486e-07
-6.06452e-07
-2.21414e-06
-3.04543e-06
8.77915e-07
-1.38233e-06
-9.20009e-07
-2.30619e-06
-1.91518e-06
-1.71207e-06
-2.29674e-06
-1.88558e-06
-2.35263e-06
-2.08384e-06
-1.91053e-06
-3.01727e-06
-1.41892e-06
-2.11416e-06
-1.10925e-06
1.2353e-05
5.65027e-06
5.26996e-06
-1.60648e-07
1.07824e-06
5.17216e-06
3.3943e-06
2.55091e-06
-6.84568e-07
-1.91049e-06
4.61334e-06
-2.12067e-07
1.57506e-06
3.15184e-07
2.64216e-06
-1.03284e-06
-2.12872e-06
-7.15201e-07
-8.6165e-07
8.78155e-08
-5.72028e-07
-3.89851e-06
2.12641e-07
-4.1081e-07
3.93087e-06
9.66162e-06
8.47463e-07
-5.11644e-06
-1.285e-05
-1.46556e-05
4.70095e-06
-1.24523e-06
-7.68556e-06
-1.25319e-05
-1.46796e-05
-2.47488e-06
-7.05187e-06
-9.86823e-06
-1.40005e-05
-1.30929e-05
-9.32387e-06
-8.8929e-06
-1.05214e-05
-1.02935e-05
-7.18207e-06
-1.08935e-05
-9.76059e-06
-8.19722e-06
-8.32709e-06
-2.98939e-06
5.07591e-05
1.85216e-05
2.32273e-05
-4.01366e-08
1.44983e-05
1.76989e-05
1.46557e-05
1.16746e-05
-2.69211e-06
-5.21086e-06
1.97448e-05
2.82283e-07
2.84147e-06
2.34737e-06
1.39174e-05
-2.04158e-06
-2.64951e-06
-5.41626e-07
1.27146e-06
7.63953e-06
6.65978e-06
-8.82881e-06
6.36956e-06
3.14022e-06
3.38121e-05
-8.21271e-06
-2.87602e-06
-7.90453e-06
-3.55426e-05
-5.14167e-05
2.01747e-05
1.17975e-05
-3.21615e-05
-4.80032e-05
-3.24018e-05
-2.72664e-05
-1.63535e-05
-3.75468e-05
-6.20426e-05
-6.69054e-05
-3.88511e-05
-1.98247e-05
-2.97665e-05
-3.5774e-05
-5.92837e-06
-5.4032e-05
-1.41879e-05
-1.92892e-05
-1.578e-05
3.5338e-05
4.4886e-05
-6.01906e-05
3.91535e-05
-2.74825e-05
7.72359e-05
-0.000153898
9.10503e-05
-5.47818e-05
-0.000121523
7.79993e-08
-4.25948e-05
-1.96694e-05
-9.4228e-05
-8.04312e-05
-5.38644e-05
-7.95283e-05
-3.50014e-05
-2.88997e-05
-4.15216e-05
0.000149357
4.35314e-06
4.80584e-05
-8.96529e-06
-4.27212e-05
0.000157099
0.000598335
0.000597295
0.000478183
0.000316935
0.000657226
0.000449974
0.00052321
0.000536679
0.000399346
0.000816688
0.000384528
0.00107473
0.000584977
0.000435334
0.000584448
0.000426559
0.000766349
0.000805458
0.000401278
0.000942577
0.000256221
0.000623012
0.000832274
0.000633062
0.000329252
0.000750012
0.00067456
-6.68804e-05
0.00101927
0.000858546
0.000726025
0.000932985
0.000554096
0.000968283
0.0012922
0.000786654
0.000711537
0.000564157
0.000614269
0.000984887
0.000813983
0.00117504
0.00152097
0.000817096
0.000694705
0.000243655
0.00163989
0.00167722
0.00109888
0.000689113
0.000338341
0.000750066
0.0023717
0.00148364
0.00129425
0.000541394
0.000636828
0.00114636
0.00160554
0.00168896
0.000799281
0.000866612
0.00166572
0.00156352
0.00163658
0.000716617
0.00137221
0.00140299
0.0012968
0.00134185
0.000904722
0.000968218
0.00110098
0.00116453
0.00111712
0.0005418
0.00126186
0.0014099
0.00158987
0.00197928
0.00134652
0.0011086
0.00136848
0.00159119
0.00173907
0.000648386
0.00136578
0.00167964
0.00170925
0.00172096
0.00142541
0.00095767
0.00148922
0.00154593
0.00190509
0.00144106
0.000173237
0.000438533
0.00108409
0.00103319
0.00185261
0.00180038
0.00142918
0.00160412
0.00188557
0.00172872
0.00182961
0.00184331
0.00199263
0.00171449
0.000584353
0.00191337
0.00185816
0.00203859
0.002086
0.00205416
0.00137562
0.00180136
0.00184282
0.00193362
0.00255253
0.00152692
0.00175313
0.00166021
0.00261426
0.00307
0.00242393
0.00198397
0.00263613
0.00297106
0.00249214
0.0025977
0.00239927
0.00244917
0.00235643
0.00249044
0.00268595
0.00241332
0.00269214
0.0028566
0.00229783
0.00253141
0.00212464
0.00262415
0.00183949
0.00243495
0.00230543
0.0022027
0.00243619
0.00214673
0.0029439
0.00337102
0.00389849
0.00413095
0.00378331
0.00311022
0.00320567
0.00320154
0.00299905
0.00304842
0.00387977
0.00323499
0.00307822
0.00312497
0.00296928
0.00297815
0.00316838
0.00281308
0.0031622
0.00298742
0.00302874
0.00283723
0.0027303
0.00340304
0.00265893
0.00342876
0.00416646
0.00392122
0.00389066
0.00351673
0.00395389
0.00416747
0.00374415
0.00416299
0.00398123
0.00412626
0.00371614
0.00420941
0.0036878
0.0043023
0.00400898
0.00373868
0.00348228
0.00377744
0.00402678
0.00373816
0.00456225
0.00370731
0.00381145
0.00387398
0.004575
0.00472856
0.00427076
0.00452357
0.00401242
0.00443117
0.00466362
0.00455417
0.00497724
0.00472158
0.00455938
0.00461419
0.00445576
0.0046982
0.00467175
0.00468437
0.00480117
0.00453614
0.00476693
0.00454439
0.0046984
0.00512517
0.00444867
0.00440655
0.00398478
0.0050549
0.00507709
0.00549717
0.00551342
0.00529488
0.00561758
0.00510899
0.00552284
0.00540905
0.00538191
0.00514922
0.00544632
0.00530143
0.00536069
0.00499689
0.0051943
0.00549313
0.00541446
0.00539251
0.00531687
0.00568661
0.00546859
0.00547807
0.00559681
0.00549898
0.00558228
0.00561241
0.00570015
0.00564472
0.00566804
0.00572033
0.00566173
0.00567653
0.00561794
0.00561737
0.00559321
0.00567519
0.00569516
0.00565287
0.00561943
0.00569354
0.00566409
0.00567809
0.00564676
0.00567425
0.00568543
0.00565265
0.0056782
0.00567859
0.005709
0.00565436
0.0056641
0.00563813
0.00565909
0.00565684
0.00565143
0.00566731
0.00566371
0.00566455
0.0056561
0.0056647
0.00566002
0.00564474
0.00566234
0.00564917
0.00566651
0.00566269
0.00566433
0.00566763
0.00567046
0.00566222
0.00566288
0.00566298
0.00565946
0.00566968
0.00566144
0.00565648
0.00566615
0.00565845
0.0056618
0.00566979
0.0056644
0.00566948
0.00566377
0.00566576
0.00565783
0.00566006
0.00566866
0.0056608
0.00566613
0.0056684
0.00566205
0.00567155
0.00566364
0.00566947
0.00566898
0.00565882
0.00567077
0.0056652
0.00567263
0.00565856
0.00565868
0.00565725
0.0056588
0.00565995
0.00566123
0.00566208
0.00566272
0.00566185
0.00566169
0.0056608
0.00566012
0.00566009
0.00566077
0.00566095
0.00566462
0.00566132
0.00566535
0.00566269
0.0056649
0.00566343
0.00566032
0.00566456
0.00566185
0.00566406
0.00565881
0.0056589
0.00565943
0.00565927
0.00565982
0.00566125
0.00566095
0.005662
0.00566121
0.00566148
0.00566044
0.00565995
0.00566149
0.00566051
0.00566124
0.00566288
0.00566088
0.00566364
0.00566196
0.00566322
0.00566255
0.00566024
0.00566324
0.00566152
0.00566302
0.00565898
0.00565906
0.00565941
0.00565939
0.0056597
0.00566052
0.00566029
0.00566097
0.00566061
0.00566083
0.00566028
0.00565983
0.00566082
0.00566032
0.00566082
0.00566163
0.00566048
0.0056621
0.00566124
0.00566193
0.00566151
0.00566018
0.005662
0.00566101
0.00566183
0.0056591
0.00565916
0.00565942
0.00565942
0.00565961
0.00566002
0.00565993
0.00566031
0.00566015
0.00566029
0.00566009
0.00565966
0.00566041
0.0056601
0.00566044
0.0056608
0.00566015
0.00566113
0.00566066
0.00566106
0.00566078
0.00566003
0.00566114
0.00566057
0.00566105
0.00565915
0.0056592
0.00565938
0.0056594
0.0056595
0.00565969
0.00565964
0.00565988
0.00565981
0.00565991
0.00565985
0.00565958
0.00566009
0.0056599
0.00566012
0.00566024
0.00565989
0.00566048
0.00566022
0.00566046
0.00566027
0.00565986
0.00566055
0.00566021
0.00566051
0.00565916
0.00565919
0.00565932
0.00565933
0.0056594
0.00565948
0.00565945
0.00565962
0.00565958
0.00565966
0.00565965
0.00565951
0.00565983
0.00565972
0.00565986
0.00565987
0.00565968
0.00566005
0.0056599
0.00566005
0.00565992
0.00565968
0.00566012
0.00565994
0.00566011
0.00565914
0.00565917
0.00565925
0.00565926
0.0056593
0.00565935
0.00565933
0.00565945
0.00565943
0.00565949
0.00565949
0.00565942
0.00565961
0.00565956
0.00565964
0.00565962
0.00565952
0.00565976
0.00565967
0.00565977
0.00565968
0.00565954
0.00565981
0.00565972
0.00565982
0.00565912
0.00565914
0.0056592
0.00565921
0.00565923
0.00565926
0.00565926
0.00565933
0.00565933
0.00565936
0.00565937
0.00565934
0.00565946
0.00565943
0.00565948
0.00565946
0.0056594
0.00565955
0.00565951
0.00565957
0.0056595
0.00565943
0.0056596
0.00565955
0.00565961
0.0056591
0.00565912
0.00565915
0.00565916
0.00565918
0.0056592
0.00565921
0.00565925
0.00565926
0.00565928
0.00565929
0.00565927
0.00565934
0.00565933
0.00565936
0.00565934
0.00565932
0.00565941
0.00565939
0.00565943
0.00565937
0.00565934
0.00565944
0.00565942
0.00565946
0.00565909
0.0056591
0.00565912
0.00565913
0.00565914
0.00565916
0.00565917
0.0056592
0.0056592
0.00565921
0.00565922
0.00565922
0.00565926
0.00565926
0.00565927
0.00565926
0.00565925
0.00565931
0.0056593
0.00565932
0.00565928
0.00565927
0.00565933
0.00565932
0.00565935
0.00565908
0.00565909
0.0056591
0.00565911
0.00565912
0.00565913
0.00565914
0.00565915
0.00565916
0.00565917
0.00565917
0.00565918
0.0056592
0.0056592
0.00565921
0.0056592
0.0056592
0.00565923
0.00565923
0.00565925
0.00565922
0.00565921
0.00565925
0.00565925
0.00565926
0.00565907
0.00565908
0.00565909
0.00565909
0.0056591
0.0056591
0.00565911
0.00565912
0.00565913
0.00565913
0.00565914
0.00565914
0.00565916
0.00565916
0.00565917
0.00565916
0.00565916
0.00565918
0.00565918
0.00565919
0.00565917
0.00565917
0.00565919
0.00565919
0.0056592
0.00565906
0.00565907
0.00565908
0.00565908
0.00565908
0.00565909
0.0056591
0.0056591
0.00565911
0.00565911
0.00565911
0.00565912
0.00565913
0.00565913
0.00565913
0.00565913
0.00565913
0.00565914
0.00565915
0.00565915
0.00565914
0.00565914
0.00565915
0.00565915
0.00565916
0.00565906
0.00565906
0.00565907
0.00565907
0.00565907
0.00565908
0.00565908
0.00565909
0.00565909
0.00565909
0.00565909
0.0056591
0.0056591
0.00565911
0.00565911
0.00565911
0.00565911
0.00565912
0.00565912
0.00565912
0.00565911
0.00565912
0.00565912
0.00565913
0.00565913
0.00565906
0.00565906
0.00565906
0.00565906
0.00565907
0.00565907
0.00565907
0.00565908
0.00565908
0.00565908
0.00565908
0.00565908
0.00565909
0.00565909
0.00565909
0.00565909
0.00565909
0.0056591
0.0056591
0.0056591
0.00565909
0.0056591
0.0056591
0.0056591
0.00565911
0.00565905
0.00565906
0.00565906
0.00565906
0.00565906
0.00565906
0.00565907
0.00565907
0.00565907
0.00565907
0.00565907
0.00565907
0.00565908
0.00565908
0.00565908
0.00565908
0.00565908
0.00565908
0.00565909
0.00565909
0.00565908
0.00565908
0.00565909
0.00565909
0.00565909
0.00565905
0.00565905
0.00565906
0.00565906
0.00565906
0.00565906
0.00565906
0.00565906
0.00565906
0.00565906
0.00565907
0.00565907
0.00565907
0.00565907
0.00565907
0.00565907
0.00565907
0.00565907
0.00565908
0.00565908
0.00565907
0.00565907
0.00565908
0.00565908
0.00565908
0.00565905
0.00565905
0.00565905
0.00565905
0.00565905
0.00565906
0.00565906
0.00565906
0.00565906
0.00565906
0.00565906
0.00565906
0.00565906
0.00565906
0.00565906
0.00565906
0.00565907
0.00565907
0.00565907
0.00565907
0.00565907
0.00565907
0.00565907
0.00565907
0.00565907
0.00565905
0.00565905
0.00565905
0.00565905
0.00565905
0.00565905
0.00565905
0.00565906
0.00565906
0.00565906
0.00565906
0.00565906
0.00565906
0.00565906
0.00565906
0.00565906
0.00565906
0.00565906
0.00565906
0.00565906
0.00565906
0.00565906
0.00565906
0.00565906
0.00565906
0.00565905
0.00565905
0.00565905
0.00565905
0.00565905
0.00565905
0.00565905
0.00565905
0.00565905
0.00565905
0.00565905
0.00565905
0.00565906
0.00565906
0.00565906
0.00565906
0.00565906
0.00565906
0.00565906
0.00565906
0.00565906
0.00565906
0.00565906
0.00565906
0.00565906
0.00565905
0.00565905
0.00565905
0.00565905
0.00565905
0.00565905
0.00565905
0.00565905
0.00565905
0.00565905
0.00565905
0.00565905
0.00565905
0.00565905
0.00565905
0.00565905
0.00565905
0.00565905
0.00565905
0.00565905
0.00565905
0.00565905
0.00565905
0.00565906
0.00565906
0.00565905
0.00565905
0.00565905
0.00565905
0.00565905
0.00565905
0.00565905
0.00565905
0.00565905
0.00565905
0.00565905
0.00565905
0.00565905
0.00565905
0.00565905
0.00565905
0.00565905
0.00565905
0.00565905
0.00565905
0.00565905
0.00565905
0.00565905
0.00565905
0.00565905
0.00565905
0.00565905
0.00565905
0.00565905
0.00565905
0.00565905
0.00565905
0.00565905
0.00565905
0.00565905
0.00565905
0.00565905
0.00565905
0.00565905
0.00565905
0.00565905
0.00565905
0.00565905
0.00565905
0.00565905
0.00565905
0.00565905
0.00565905
0.00565905
0.00565905
0.00565904
0.00565904
0.00565905
0.00565905
0.00565905
0.00565905
0.00565905
0.00565905
0.00565905
0.00565905
0.00565905
0.00565905
0.00565905
0.00565905
0.00565905
0.00565905
0.00565905
0.00565905
0.00565905
0.00565905
0.00565905
0.00565905
0.00565905
0.00565905
0.00565905
0.00565904
0.00565904
0.00565904
0.00565904
0.00565904
0.00565905
0.00565905
0.00565905
0.00565905
0.00565905
0.00565905
0.00565905
0.00565905
0.00565905
0.00565905
0.00565905
0.00565905
0.00565905
0.00565905
0.00565905
0.00565905
0.00565905
0.00565905
0.00565905
0.00565905
0.00565904
0.00565904
0.00565904
0.00565904
0.00565904
0.00565904
0.00565904
0.00565904
0.00565904
0.00565904
0.00565905
0.00565905
0.00565905
0.00565905
0.00565905
0.00565905
0.00565905
0.00565905
0.00565905
0.00565905
0.00565905
0.00565905
0.00565905
0.00565905
0.00565905
0.00565904
0.00565904
0.00565904
0.00565904
0.00565904
0.00565904
0.00565904
0.00565904
0.00565904
0.00565904
0.00565904
0.00565904
0.00565905
0.00565905
0.00565905
0.00565905
0.00565905
0.00565905
0.00565905
0.00565905
0.00565905
0.00565905
0.00565905
0.00565905
0.00565905
0.00565904
0.00565904
0.00565904
0.00565904
0.00565904
0.00565904
0.00565904
0.00565904
0.00565904
0.00565904
0.00565904
0.00565904
0.00565904
0.00565904
0.00565904
0.00565904
0.00565904
0.00565905
0.00565905
0.00565905
0.00565904
0.00565905
0.00565905
0.00565905
0.00565905
0.00565904
0.00565904
0.00565904
0.00565904
0.00565904
0.00565904
0.00565904
0.00565904
0.00565904
0.00565904
0.00565904
0.00565904
0.00565904
0.00565904
0.00565904
0.00565904
0.00565904
0.00565904
0.00565905
0.00565905
0.00565904
0.00565904
0.00565905
0.00565905
0.00565905
0.00565904
0.00565904
0.00565904
0.00565904
0.00565904
0.00565904
0.00565904
0.00565904
0.00565904
0.00565904
0.00565904
0.00565904
0.00565904
0.00565904
0.00565904
0.00565904
0.00565904
0.00565904
0.00565904
0.00565904
0.00565904
0.00565904
0.00565904
0.00565905
0.00565904
0.00565904
0.00565904
0.00565904
0.00565904
0.00565904
0.00565904
0.00565904
0.00565904
0.00565904
0.00565904
0.00565904
0.00565904
0.00565904
0.00565904
0.00565904
0.00565904
0.00565904
0.00565904
0.00565904
0.00565904
0.00565904
0.00565904
0.00565904
0.00565904
0.00565904
0.00565904
0.00565904
0.00565904
0.00565904
0.00565904
0.00565904
0.00565904
0.00565904
0.00565904
0.00565904
0.00565904
0.00565904
0.00565904
0.00565904
0.00565904
0.00565904
0.00565904
0.00565904
0.00565904
0.00565904
0.00565904
0.00565904
0.00565904
0.00565904
0.00565904
0.00565904
0.00565904
0.00565904
0.00565904
0.00565904
0.00565904
0.00565904
0.00565904
0.00565904
0.00565904
0.00565904
0.00565904
0.00565904
0.00565904
0.00565904
0.00565904
0.00565904
0.00565904
0.00565904
0.00565904
0.00565904
0.00565904
0.00565904
0.00565904
0.00565904
0.00565904
0.00565904
0.00565904
0.00565904
0.00565904
0.00565904
0.00565904
0.00565904
0.00565904
0.00565904
0.00565904
0.00565904
0.00565904
0.00565904
0.00565904
0.00565904
0.00565904
0.00565904
0.00565904
0.00565904
0.00565904
0.00565904
0.00565904
0.00565904
0.00565904
0.00565904
0.00565904
0.00565904
0.00565904
0.00565904
0.00565904
0.00565904
0.00565904
0.00565904
0.00565904
0.00565904
0.00565904
0.00565904
0.00565904
0.00565904
0.00565904
0.00565904
0.00565904
0.00565904
0.00565904
0.00565904
0.00565904
0.00565904
0.00565904
0.00565904
0.00565904
0.00565904
0.00565904
0.00565904
0.00565904
0.00565904
0.00565904
0.00565904
0.00565904
0.00565904
0.00565904
0.00565904
0.00565904
0.00565904
0.00565904
0.00565904
0.00565904
0.00565904
0.00565904
0.00565904
0.00565904
0.00565904
0.00565904
0.00565904
0.00565904
)
;

boundaryField
{
    inlet
    {
        type            zeroGradient;
    }
    outlet
    {
        type            fixedValue;
        value           uniform 0;
    }
    repeat_boundary
    {
        type            zeroGradient;
    }
    procBoundary3to1
    {
        type            processor;
        value           nonuniform List<scalar> 
450
(
8.90325e-11
1.28848e-10
1.32469e-10
1.11659e-10
9.13531e-11
7.89438e-11
2.5839e-10
2.83002e-10
2.43291e-10
2.09127e-10
-1.46694e-10
2.20002e-10
3.3702e-10
3.59055e-10
3.65713e-10
-1.16295e-10
3.03936e-10
5.16878e-10
6.15488e-10
6.71289e-10
3.90903e-10
7.01617e-10
8.93742e-10
1.00054e-09
1.04977e-09
1.01151e-09
1.17342e-09
1.25975e-09
1.32104e-09
1.333e-09
1.33721e-09
1.39349e-09
1.41901e-09
1.47891e-09
1.49351e-09
1.4657e-09
1.43387e-09
1.5106e-09
1.64162e-09
1.7045e-09
1.73137e-09
1.66594e-09
1.85055e-09
2.04593e-09
2.14081e-09
2.2871e-09
2.29467e-09
2.5243e-09
2.67674e-09
2.72908e-09
3.06643e-09
3.14481e-09
3.27699e-09
3.27311e-09
3.22935e-09
3.79509e-09
3.89432e-09
3.85974e-09
3.68823e-09
3.56292e-09
4.31832e-09
4.45478e-09
4.29552e-09
4.0262e-09
3.86126e-09
4.92174e-09
4.98131e-09
4.72201e-09
4.42837e-09
4.26339e-09
5.74359e-09
5.53182e-09
5.1907e-09
4.93071e-09
4.79505e-09
6.44589e-09
6.0177e-09
5.67774e-09
5.47509e-09
5.37578e-09
7.09234e-09
6.54385e-09
6.20074e-09
6.00544e-09
5.92514e-09
8.1889e-09
7.36873e-09
6.84197e-09
6.52021e-09
6.3788e-09
9.7112e-09
8.44698e-09
7.54662e-09
6.94665e-09
6.6456e-09
1.13714e-08
9.50707e-09
8.12393e-09
7.16899e-09
6.67867e-09
1.30378e-08
1.04604e-08
8.49953e-09
7.09587e-09
6.33523e-09
1.4535e-08
1.13022e-08
8.58389e-09
6.54402e-09
5.42339e-09
1.63373e-08
1.216e-08
8.3425e-09
5.48671e-09
3.99309e-09
1.94134e-08
1.36316e-08
8.18701e-09
4.03563e-09
1.80661e-09
2.45711e-08
1.6473e-08
8.42378e-09
1.86042e-09
-1.7972e-09
3.34597e-08
2.14426e-08
8.93485e-09
-1.58196e-09
-7.41677e-09
4.84022e-08
2.98372e-08
9.88622e-09
-7.01002e-09
-1.65328e-08
7.26172e-08
4.38943e-08
1.1633e-08
-1.61463e-08
-3.21571e-08
1.13101e-07
6.78129e-08
1.47896e-08
-3.17518e-08
-5.88712e-08
1.829e-07
1.09691e-07
2.11045e-08
-5.81666e-08
-1.04849e-07
3.05424e-07
1.84566e-07
3.40505e-08
-1.02855e-07
-1.84559e-07
5.24796e-07
3.22055e-07
6.25662e-08
-1.76217e-07
-3.2249e-07
9.26949e-07
5.85092e-07
1.30529e-07
-2.87771e-07
-5.62398e-07
1.67029e-06
1.09454e-06
2.7346e-07
-4.51873e-07
-9.87476e-07
3.01296e-06
2.04411e-06
5.05722e-07
-7.19534e-07
-1.77475e-06
5.39204e-06
3.73111e-06
7.83164e-07
-1.14583e-06
-3.24721e-06
1.20795e-05
9.79493e-06
5.49104e-06
6.5745e-07
-2.65891e-06
1.12047e-05
6.60284e-06
-3.15326e-06
-8.45768e-06
-1.61376e-05
3.99512e-05
3.80805e-05
2.89836e-05
6.48157e-06
-7.46988e-06
2.58297e-05
8.43151e-06
1.55811e-05
-2.34419e-05
-3.88857e-05
6.4221e-05
0.000122707
0.000183072
-0.000135136
-0.000139139
0.000746741
0.000760531
0.000494367
4.17704e-05
0.00119056
0.00155874
0.00068114
0.000782571
0.000376562
0.000846904
-0.000560985