/*--------------------------------*- C++ -*----------------------------------*\
| =========                 |                                                 |
| \\      /  F ield         | OpenFOAM: The Open Source CFD Toolbox           |
|  \\    /   O peration     | Version:  5.x                                   |
|   \\  /    A nd           | Web:      www.OpenFOAM.org                      |
|    \\/     M anipulation  |                                                 |
\*---------------------------------------------------------------------------*/
FoamFile
{
    version     2.0;
    format      ascii;
    class       volScalarField;
    location    "4000";
    object      p;
}
// * * * * * * * * * * * * * * * * * * * * * * * * * * * * * * * * * * * * * //

dimensions      [0 2 -2 0 0 0 0];

internalField   nonuniform List<scalar> 
180
(
-23.054
-41.6851
-44.4706
-43.3827
-41.1041
-38.3401
-36.0741
-36.1607
-37.9546
-37.1741
-33.3219
-30.4317
-27.7492
-25.2028
-25.8419
-27.2164
-25.9767
-26.6506
-29.1176
-28.3883
-25.0864
-22.4444
-19.4003
-20.181
-22.3964
-21.4114
-16.8557
-13.2897
-9.94401
-9.60815
-13.8476
-17.6581
-18.7775
-17.1533
-18.1698
-22.5118
-23.6297
-20.5685
-19.025
-21.6555
-22.7555
-20.5102
-17.8875
-15.7561
-13.2094
-15.0413
-17.7084
-17.6237
-13.4467
-10.3884
-8.2228
-5.26062
-2.20166
1.64252
5.80486
10.0413
4.54321
-2.71469
-1.81494
6.04304
12.44
19.4702
17.6854
2.81135
-13.1489
-21.6512
-22.5192
-16.1088
-7.45748
-2.66878
0.911805
2.3563
-5.1521
-16.4615
-22.3682
-21.2119
-13.7256
-5.52027
-0.643329
3.3996
9.42461
15.2866
21.187
27.1876
33.4692
34.0563
31.7458
34.2037
37.0084
35.7146
35.9221
37.2822
40.6233
44.7234
45.4954
48.254
52.2299
52.105
51.0494
50.344
48.5561
45.0177
37.1993
20.6658
-1.58545
-28.5433
-62.117
-108.068
-162.595
-222.378
-299.84
-390.546
-503.736
-640.094
-836.488
-1106.58
-1434.18
-1861.21
-2394.6
-3072.89
-3880.38
-4969.72
-6342.03
-7987.97
-9962.5
-12311.2
-14918.7
-17625.3
-20242.4
-22501
-24566.5
-25993.9
-27371
-28635.5
-30420.2
-33596.7
-36708.2
-36995.3
-38250.5
-40147.1
-38234.5
-33931.6
-29615.9
-26216
-23564
-21330.1
-19245.1
-17269.1
-15492
-13932.1
-12581.6
-11422
-10418.4
-9553.95
-8811.75
-8178.28
-7638.37
-7178.96
-6788.56
-6457.59
-6177.88
-5942.28
-5744.52
-5579.22
-5441.81
-5328.46
-5235.98
-5161.73
-5103.61
-5059.87
-5029.25
-5009.49
-4996.96
-4988.2
-4983.52
-4982.17
-4978.87
-4971.66
-4964.84
-4964.17
)
;

boundaryField
{
    inlet
    {
        type            zeroGradient;
    }
    outlet
    {
        type            fixedValue;
        value           uniform 0;
    }
    repeat_boundary
    {
        type            zeroGradient;
    }
    procBoundary2to0
    {
        type            processor;
        value           nonuniform List<scalar> 
180
(
-22.7028
-41.4437
-40.7812
-36.4006
-35.6981
-34.971
-33.7721
-32.0578
-31.1605
-30.1379
-27.8073
-26.5741
-24.8727
-22.7787
-21.5012
-19.6407
-18.782
-20.2607
-20.5919
-18.6921
-18.7271
-21.3376
-22.3619
-22.069
-20.9405
-18.7922
-17.4683
-17.095
-17.5263
-16.7236
-14.6734
-15.4609
-15.7726
-16.0249
-16.2157
-15.0193
-14.134
-12.6263
-12.0342
-12.2548
-11.263
-9.13872
-6.78537
-6.61158
-6.70401
-5.14585
-4.46877
-4.3458
-1.70652
-0.268122
-0.0797451
0.871692
-0.0319998
-1.11398
1.00896
2.66797
1.35621
2.33279
0.356835
-3.58014
-5.57452
-7.96003
-11.2646
-13.3318
-13.0607
-10.8196
-8.35645
-5.43152
-2.11724
-0.828808
-4.81296
-6.86542
-7.74005
-8.91367
-8.76216
-8.48659
-8.01157
-6.01029
-3.63403
0.535854
5.49726
9.92465
14.1251
17.4542
19.733
22.9143
27.9502
32.893
38.1472
43.8134
48.2763
47.2787
47.4516
48.7804
50.5078
54.9228
60.5627
64.5835
66.0463
64.4492
60.1763
53.2944
44.0111
33.8679
23.192
20.1384
24.0269
39.2293
93.8251
189.796
295.587
374.832
396.767
323.706
124.41
-264.618
-894.599
-1739.84
-2915.7
-4252.52
-6216.56
-8692.94
-11667.6
-14969.3
-18981.1
-23295.3
-27385.3
-30924.4
-33514.8
-35294
-36025
-35654.6
-34688.9
-33945.4
-33416.8
-33149.9
-33116
-33159.9
-33338
-33819.6
-33857.4
-32791.1
-29395.7
-25117.8
-20669.9
-16632.3
-13516.7
-11059.4
-9217.22
-7896.69
-6975.19
-6324.41
-5862.12
-5530.19
-5289.71
-5119.58
-4997.2
-4911.78
-4851.83
-4811.21
-4783.23
-4764.83
-4753.36
-4746.71
-4742.89
-4740.58
-4739.6
-4741.41
-4746.65
-4755.12
-4766.38
-4779.89
-4795.31
-4810.04
-4825.22
-4840.16
-4844.42
-4843.46
-4846.96
-4848.85
)
;
    }
    procBoundary2to3
    {
        type            processor;
        value           nonuniform List<scalar> 
180
(
-20.3321
-37.0699
-36.5609
-33.015
-32.3978
-31.507
-30.2582
-28.8129
-28.0432
-27.0441
-24.8201
-23.7008
-23.3913
-22.2438
-20.2264
-18.9305
-17.9021
-17.7264
-17.4288
-16.6037
-18.2445
-23.0253
-25.2902
-24.214
-23.2517
-24.2016
-23.4769
-21.8794
-21.2845
-19.3474
-17.4884
-19.3239
-21.236
-21.1071
-18.2715
-15.5213
-12.6451
-9.57884
-6.937
-4.42076
-1.4761
2.36296
6.24609
10.4391
14.9038
15.3595
12.8268
11.3486
11.3741
10.9316
5.85433
0.454131
-3.6029
-6.14112
-8.06746
-10.0774
-10.3016
-9.51506
-9.81291
-10.0216
-9.92825
-10.3421
-11.4044
-13.1282
-14.8526
-16.4155
-19.2554
-20.379
-19.2805
-17.8774
-17.7224
-19.0417
-21.5384
-23.7423
-24.3217
-23.9741
-21.1002
-19.0447
-20.0551
-23.4335
-25.2779
-24.0168
-22.1687
-20.7579
-22.3942
-25.4499
-27.209
-30.3796
-35.2581
-40.101
-45.3269
-52.976
-59.9323
-67.5278
-76.145
-88.3727
-104.236
-118.979
-142.062
-173.8
-202.395
-229.078
-268.362
-321.573
-386.811
-460.436
-537.591
-603.21
-685.912
-800.545
-977.906
-1189.86
-1444.85
-1751.72
-2099.31
-2498.87
-2942.67
-3517.69
-4265.87
-5059.55
-5986.32
-7317.73
-8934.99
-10860.7
-13235.3
-15944.5
-18804.5
-22157.9
-25658
-29238.1
-32630.8
-34876.8
-35460.2
-34796.6
-33981.7
-33352.5
-32954.9
-32716.9
-32888
-32882.4
-31543.5
-27843.9
-24199.2
-20944.3
-18344
-16263.3
-14530.6
-13064.9
-11858.4
-10846.1
-9992.11
-9268.14
-8630.92
-8074.56
-7584.7
-7157.06
-6786.06
-6465.38
-6190.14
-5954.48
-5753.94
-5583.92
-5440.67
-5320.62
-5220.84
-5139.29
-5074.51
-5023.36
-4982.2
-4948.61
-4921.26
-4898.85
-4881.39
-4868.73
-4858.57
-4850.73
-4844.95
-4841.02
-4838.51
-4837.2
)
;
    }
}


// ************************************************************************* //
