/*--------------------------------*- C++ -*----------------------------------*\
| =========                 |                                                 |
| \\      /  F ield         | OpenFOAM: The Open Source CFD Toolbox           |
|  \\    /   O peration     | Version:  5.x                                   |
|   \\  /    A nd           | Web:      www.OpenFOAM.org                      |
|    \\/     M anipulation  |                                                 |
\*---------------------------------------------------------------------------*/
FoamFile
{
    version     2.0;
    format      ascii;
    class       surfaceScalarField;
    location    "4000";
    object      phi;
}
// * * * * * * * * * * * * * * * * * * * * * * * * * * * * * * * * * * * * * //

dimensions      [0 3 -1 0 0 0 0];

internalField   nonuniform List<scalar> 
179
(
3.18485e+06
3.18569e+06
3.18614e+06
3.18737e+06
3.18562e+06
3.18971e+06
3.20615e+06
3.21551e+06
3.2264e+06
3.23836e+06
3.24816e+06
3.25367e+06
3.26144e+06
3.26982e+06
3.27889e+06
3.28889e+06
3.29855e+06
3.31084e+06
3.33577e+06
3.36162e+06
3.37612e+06
3.38277e+06
3.39462e+06
3.40069e+06
3.40122e+06
3.39691e+06
3.38864e+06
3.37628e+06
3.36503e+06
3.35651e+06
3.34904e+06
3.34161e+06
3.33015e+06
3.31991e+06
3.30876e+06
3.29978e+06
3.28864e+06
3.28247e+06
3.28352e+06
3.29652e+06
3.31691e+06
3.33672e+06
3.35833e+06
3.38401e+06
3.41956e+06
3.44675e+06
3.48355e+06
3.52031e+06
3.57592e+06
3.63934e+06
3.69766e+06
3.75076e+06
3.79377e+06
3.83234e+06
3.86906e+06
3.89842e+06
3.90895e+06
3.91611e+06
3.92349e+06
3.93358e+06
3.95311e+06
3.95465e+06
3.95471e+06
3.96852e+06
4.00246e+06
4.02203e+06
4.02488e+06
4.0224e+06
4.00427e+06
3.98955e+06
3.96663e+06
3.95938e+06
3.9521e+06
3.93972e+06
3.92594e+06
3.9136e+06
3.89628e+06
3.87209e+06
3.84385e+06
3.8098e+06
3.76881e+06
3.7223e+06
3.67479e+06
3.62406e+06
3.57033e+06
3.51169e+06
3.45125e+06
3.38366e+06
3.31553e+06
3.23385e+06
3.16558e+06
3.09318e+06
3.00741e+06
2.95095e+06
2.87204e+06
2.80723e+06
2.7418e+06
2.68317e+06
2.65348e+06
2.69696e+06
2.71763e+06
2.76443e+06
2.82367e+06
2.93282e+06
3.07426e+06
3.25039e+06
3.47423e+06
3.74072e+06
4.08566e+06
4.52212e+06
5.05678e+06
5.74674e+06
6.67229e+06
7.82883e+06
9.16552e+06
1.05403e+07
1.20629e+07
1.37202e+07
1.56147e+07
1.76426e+07
1.9845e+07
2.22545e+07
2.50614e+07
2.80608e+07
3.13509e+07
3.46303e+07
3.8059e+07
4.13078e+07
4.44884e+07
4.74132e+07
5.01933e+07
5.29101e+07
5.51866e+07
5.77368e+07
6.03921e+07
6.35673e+07
6.76954e+07
7.12978e+07
7.33101e+07
7.48684e+07
7.442e+07
7.16771e+07
6.76107e+07
6.23583e+07
5.68433e+07
5.12397e+07
4.58644e+07
4.09582e+07
3.65852e+07
3.27588e+07
2.94545e+07
2.6573e+07
2.4058e+07
2.18355e+07
1.98645e+07
1.81028e+07
1.65255e+07
1.51085e+07
1.38313e+07
1.26768e+07
1.16321e+07
1.06864e+07
9.83134e+06
9.05942e+06
8.36426e+06
7.74036e+06
7.18286e+06
6.68812e+06
6.25291e+06
5.87929e+06
5.55828e+06
5.26783e+06
5.00239e+06
4.77292e+06
4.57038e+06
4.41453e+06
4.29372e+06
4.20844e+06
4.14989e+06
)
;

boundaryField
{
    inlet
    {
        type            calculated;
        value           uniform 4.14317e+06;
    }
    outlet
    {
        type            calculated;
        value           uniform -3.18467e+06;
    }
    repeat_boundary
    {
        type            calculated;
        value           uniform 0;
    }
    procBoundary2to0
    {
        type            processor;
        value           nonuniform List<scalar> 
180
(
102.47
178.402
506.74
612.766
2281.45
-375.696
-6084.1
-3021.29
-3366.91
-3621.2
-2149.79
-91.3974
-753.975
-872.874
-1616.93
-2958.57
-3164.63
-4669.17
-10157.8
-11047.4
-7083.1
-4386.81
-4568.68
-2965.18
-3715.48
-1172.15
3778.04
2680.96
580.623
301.105
350.92
6075.54
9305.37
7498.94
8636.46
6453.58
10055.5
6443.23
-298.89
-7434.47
-11357.3
-9878.69
-9000.84
-7129.47
-11667.7
-9305.21
-13857.2
-15853.2
-19963.1
-21191.1
-22286.3
-23832.7
-20801.3
-21041.6
-22131.8
-18730.8
-13023
-10623.1
-9905.38
-10236.8
-14645
-4692.41
-606.27
-10962.9
-20063.9
-5685.6
9088.06
10324.1
13287.4
285.369
-139.68
411.798
3381.23
5380.82
4578.78
2484.37
6230.79
7874.13
10985.6
11969.5
10723.4
14539
15799.9
14341.5
16848.9
13047.4
13227
14274
10692.9
6320.18
-4702.05
-17518.2
-16991.8
-39925.8
-57269.7
-62119.7
-86418
-126021
-175309
-246304
-243365
-265369
-284604
-328410
-321461
-351291
-384083
-418052
-463783
-518840
-565509
-633145
-697768
-755753
-768389
-725380
-756531
-727017
-777635
-754362
-810321
-799061
-947556
-993542
-1.02226e+06
-1.02315e+06
-1.00888e+06
-1.01901e+06
-1.03673e+06
-1.04294e+06
-1.08515e+06
-1.32332e+06
-1.23277e+06
-1.66499e+06
-2.02226e+06
-2.43551e+06
-2.97747e+06
-2.60386e+06
-1.43507e+06
-1.38695e+06
-828046
524224
1.63566e+06
2.82422e+06
3.3726e+06
3.62359e+06
3.60771e+06
3.32337e+06
2.98983e+06
2.58923e+06
2.20741e+06
1.86708e+06
1.58007e+06
1.34349e+06
1.14942e+06
991434
859003
748645
657614
581892
517450
461460
412011
367887
328278
292524
260254
231043
204902
181091
160052
140241
123962
107855
92986.5
84642.7
61341
55117.8
51154.1
31847.1
)
;
    }
    procBoundary2to3
    {
        type            processor;
        value           nonuniform List<scalar> 
180
(
-286.569
-1013.56
-955.853
-1848.27
-533.326
-3713.9
-10357.9
-6340
-7526.23
-8343.81
-7648.37
-5420.17
-7017.81
-7511.38
-7452.72
-7042.12
-6495.8
-7627.1
-14769.4
-14803
-7422.15
-2261.42
-7276.85
-3112.8
3190.27
5484.18
4499.14
9682.24
10664.7
8225.79
7119.01
1360.67
2159.73
2735.61
2521.3
2528.82
1083.75
-268.322
-754.133
-5562.33
-9038.62
-9932.1
-12605
-18556
-23879.2
-17890.7
-22948.2
-20905.3
-35646.7
-42235.8
-36035
-29267.9
-22208.9
-17537.2
-14583.8
-10627.8
2491
3463.54
2527.62
142.991
-4888.13
3159.29
541.901
-2842.2
-13875.6
-13875.2
-11936.7
-7847.77
4844.64
14435.5
23061.2
6835.11
3907.31
6999.86
9193.82
9861.59
11082.9
16311
17255.3
22080.3
30263.2
31968.9
31715.5
36387.1
36878.9
45593.7
47204.7
53326
57434
75362.7
72971.6
89917.7
102770
96389.3
136185
126933
151849
184654
205003
202818
222695
218572
225351
219258
180012
175156
160237
151566
118837
82372.9
30851.8
-56810.2
-227781
-400780
-568291
-649411
-766092
-930237
-1.11691e+06
-1.27347e+06
-1.39208e+06
-1.61051e+06
-1.85926e+06
-2.00588e+06
-2.26786e+06
-2.25623e+06
-2.41981e+06
-2.22986e+06
-2.14382e+06
-1.88184e+06
-1.69493e+06
-1.39348e+06
-1.04373e+06
-885274
-633007
-739655
-1.15068e+06
-998481
-577266
-171348
1.27647e+06
2.21861e+06
2.43072e+06
2.42823e+06
2.14237e+06
1.98002e+06
1.76766e+06
1.58279e+06
1.38312e+06
1.23724e+06
1.09686e+06
1.01441e+06
934926
879076
821556
770225
718297
668424
619590
572531
527320
484153
443087
404039
366873
331378
297248
263698
230306
192536
160958
150215
141473
121624
109550
71205.2
59468.8
30164.6
7400.46
-25127.8
)
;
    }
}


// ************************************************************************* //
