FoamFile
{version 2.0; format ascii;class vectorField; location 0;object  v;}
353
(
( 4.05359e-06 1.8136e-06 1.39313e-06 )  
( 1.4484e-06 7.58942e-07 1.66705e-06 )  
( -1.97353e-06 5.21081e-07 6.21404e-08 )  
( -2.47629e-06 1.27908e-06 1.64374e-10 )  
( 3.14923e-06 1.02718e-06 3.91714e-07 )  
( 3.30546e-06 1.02346e-06 -1.32776e-06 )  
( 5.27452e-06 1.78222e-06 7.71479e-08 )  
( 4.10026e-06 2.23579e-07 2.38857e-07 )  
( 2.80025e-06 1.38016e-06 -1.6671e-07 )  
( 7.74644e-06 7.87754e-06 9.93807e-13 )  
( 6.21265e-06 3.17092e-06 -2.1794e-07 )  
( 3.31131e-06 1.77539e-06 -7.58126e-07 )  
( 5.90496e-06 1.89195e-06 4.01718e-07 )  
( 5.43451e-06 2.11006e-06 3.57336e-07 )  
( 4.21472e-06 2.48403e-06 -1.87622e-06 )  
( 2.14028e-06 -6.1698e-07 1.5602e-09 )  
( 2.0617e-06 2.45134e-07 8.43278e-07 )  
( 9.62508e-06 4.17522e-06 -1.23277e-06 )  
( 7.32697e-06 3.34011e-06 -1.2091e-06 )  
( 1.42721e-05 6.43677e-06 1.31221e-12 )  
( 6.92869e-06 3.06508e-06 -8.66916e-08 )  
( 9.48707e-06 4.05922e-06 -1.84448e-06 )  
( 8.38535e-06 2.62143e-06 1.72526e-06 )  
( 4.66749e-06 3.26791e-06 9.07869e-08 )  
( 4.3572e-06 2.82509e-07 1.96366e-06 )  
( 3.73444e-06 1.20791e-06 7.49147e-08 )  
( 8.48425e-06 3.15347e-06 -3.45132e-07 )  
( 3.35871e-06 1.18806e-06 7.57375e-07 )  
( 8.08183e-06 3.33155e-06 -2.95962e-07 )  
( 4.77866e-06 7.60829e-07 1.07547e-07 )  
( 6.79435e-06 1.90825e-06 -9.9572e-07 )  
( 7.63078e-06 3.51375e-06 -1.0929e-06 )  
( 8.5961e-06 2.9324e-06 -7.93143e-07 )  
( 5.78674e-06 3.41498e-06 8.26746e-07 )  
( 9.98908e-06 5.71469e-06 -8.56615e-07 )  
( 8.0049e-06 4.91983e-06 8.0622e-08 )  
( 8.27208e-06 2.84115e-06 -3.51802e-07 )  
( 6.64929e-06 2.56375e-06 1.38713e-06 )  
( 9.27224e-06 3.18888e-06 -5.68875e-07 )  
( 7.48126e-06 2.61064e-06 1.36896e-06 )  
( 8.4194e-06 3.06382e-06 2.88648e-07 )  
( 8.24202e-06 1.71676e-06 6.36247e-07 )  
( 7.85079e-06 3.13482e-06 -1.73684e-06 )  
( 1.00878e-05 3.3399e-06 6.93553e-07 )  
( 1.11695e-05 4.82741e-06 -1.05407e-06 )  
( 6.62032e-06 4.84294e-06 -2.22323e-06 )  
( 7.16958e-06 1.76012e-06 -2.76799e-07 )  
( 7.95058e-06 4.55141e-06 1.00028e-06 )  
( 1.25615e-05 7.27362e-06 -1.32349e-06 )  
( 1.02177e-05 4.97697e-06 1.46896e-06 )  
( 1.06622e-05 3.96785e-06 7.63625e-07 )  
( 8.97694e-06 2.42972e-06 5.18452e-07 )  
( 7.56692e-06 -2.49725e-07 4.64782e-07 )  
( 1.01076e-05 2.68404e-06 1.01233e-06 )  
( 9.14088e-06 3.46226e-06 -4.03693e-08 )  
( 9.70658e-06 5.13136e-06 -4.34992e-07 )  
( 1.2614e-05 5.00024e-06 9.41651e-07 )  
( 1.24701e-05 2.40415e-06 -5.32856e-07 )  
( 1.25559e-05 3.38801e-06 -1.51105e-06 )  
( 1.37878e-05 5.4001e-06 -6.03869e-07 )  
( 1.06438e-05 2.52936e-06 1.08926e-06 )  
( 1.22333e-05 6.47122e-06 1.24862e-06 )  
( 1.09567e-05 3.13153e-06 5.81871e-07 )  
( 6.66107e-06 1.21396e-06 4.04008e-07 )  
( 1.05927e-05 5.82603e-06 -7.08044e-07 )  
( 1.35701e-05 3.37469e-06 -2.85935e-06 )  
( 1.33985e-05 6.41874e-06 -3.55322e-07 )  
( 1.17172e-05 3.49873e-06 5.66053e-08 )  
( 1.14309e-05 2.82043e-06 1.07703e-06 )  
( 1.52136e-05 5.14632e-06 -1.08902e-06 )  
( 1.15608e-05 5.48424e-06 8.22399e-07 )  
( 1.35239e-05 2.77531e-06 -1.81285e-06 )  
( 1.259e-05 6.20451e-06 -1.94508e-06 )  
( 1.33395e-05 4.98509e-06 8.52916e-07 )  
( 1.57304e-05 4.28198e-06 5.04195e-07 )  
( 1.38268e-05 3.98583e-06 1.40567e-07 )  
( 1.3245e-05 6.91925e-06 1.98378e-07 )  
( 1.4138e-05 5.11514e-06 -2.8548e-07 )  
( 9.36346e-06 3.24938e-06 -6.27452e-07 )  
( 1.12398e-05 4.56956e-06 6.29095e-07 )  
( 1.10486e-05 6.2541e-06 3.80668e-07 )  
( 1.1656e-05 3.05705e-06 5.57379e-07 )  
( 1.45954e-05 5.17168e-06 9.57333e-07 )  
( 1.56294e-05 5.29248e-06 -2.17671e-06 )  
( 1.79118e-05 6.6088e-06 -7.01941e-07 )  
( 1.47197e-05 5.38167e-06 1.20391e-07 )  
( 1.36907e-05 4.86181e-06 8.29025e-07 )  
( 2.25993e-05 3.40912e-06 2.9559e-06 )  
( 1.73874e-05 5.28943e-06 -3.77704e-09 )  
( 1.38223e-05 5.4735e-06 1.42547e-06 )  
( 1.28054e-05 6.50346e-06 -7.43248e-08 )  
( 1.44503e-05 2.76406e-06 -1.84814e-06 )  
( 1.45391e-05 5.16555e-06 1.74423e-06 )  
( 1.4273e-05 4.85162e-06 1.09662e-06 )  
( 1.52565e-05 5.96172e-06 -1.15974e-07 )  
( 1.44848e-05 3.83728e-06 -5.97131e-07 )  
( 1.47772e-05 6.63294e-06 1.98553e-06 )  
( 1.43173e-05 7.74619e-06 -6.76196e-08 )  
( 2.2357e-05 6.03348e-06 7.46394e-07 )  
( 1.04812e-05 5.01589e-06 5.17522e-07 )  
( 2.26461e-05 4.77867e-06 1.30257e-06 )  
( 1.393e-05 5.30243e-06 1.30997e-06 )  
( 1.8255e-05 6.12132e-06 -1.38833e-06 )  
( 1.3501e-05 6.05244e-06 1.44972e-06 )  
( 1.44076e-05 5.30393e-06 -7.97696e-07 )  
( 1.59149e-05 6.48952e-06 6.60477e-07 )  
( 1.62675e-05 6.96636e-06 1.06042e-06 )  
( 1.80451e-05 6.25348e-06 -5.36566e-07 )  
( 1.60591e-05 3.74119e-06 1.35357e-06 )  
( 1.34281e-05 6.8076e-06 -3.70542e-07 )  
( 1.94333e-05 8.12086e-06 -1.58379e-06 )  
( 1.84837e-05 3.70377e-06 -1.74338e-07 )  
( 2.04261e-05 6.78087e-06 -7.29667e-07 )  
( 2.04279e-05 7.84626e-06 -2.97106e-07 )  
( 1.63763e-05 6.47112e-06 7.45101e-07 )  
( 1.9536e-05 6.43262e-06 1.11444e-06 )  
( 1.88102e-05 5.57656e-06 1.22673e-06 )  
( 2.41157e-05 3.50686e-06 6.98402e-06 )  
( 1.67616e-05 6.3324e-06 -1.87018e-06 )  
( 1.80972e-05 5.63404e-06 4.2961e-07 )  
( 1.95946e-05 5.4588e-06 2.2139e-06 )  
( 1.86309e-05 8.05519e-06 -3.24442e-07 )  
( 1.96551e-05 6.99509e-06 5.51155e-07 )  
( 2.33081e-05 7.10366e-06 3.21836e-06 )  
( 1.87249e-05 6.13131e-06 1.48711e-06 )  
( 2.02478e-05 8.07745e-06 -1.85434e-06 )  
( 2.25667e-05 7.05471e-06 3.06903e-06 )  
( 2.2786e-05 6.74512e-06 -8.4615e-08 )  
( 1.68824e-05 3.86585e-06 -1.03387e-07 )  
( 2.75619e-05 6.1542e-06 1.13959e-06 )  
( 1.99732e-05 8.20948e-06 -7.23045e-07 )  
( 2.16918e-05 5.93704e-06 1.89966e-06 )  
( 2.06263e-05 5.73344e-06 1.63533e-06 )  
( 2.54841e-05 7.86906e-06 1.57155e-06 )  
( 2.60588e-05 9.77147e-06 4.81386e-06 )  
( 2.24252e-05 5.44729e-06 1.10913e-07 )  
( 1.93678e-05 6.80409e-06 2.05909e-06 )  
( 1.9849e-05 4.82635e-06 3.25797e-06 )  
( 2.67268e-05 8.44725e-06 2.08909e-06 )  
( 2.47565e-05 6.0995e-06 6.58727e-07 )  
( 2.88095e-05 8.05562e-06 1.99924e-06 )  
( 2.00784e-05 8.60867e-06 8.60632e-07 )  
( 2.08739e-05 5.91019e-06 1.71697e-06 )  
( 2.91022e-05 7.45762e-06 2.1807e-06 )  
( 2.31062e-05 8.4267e-06 2.47371e-07 )  
( 2.29091e-05 1.09417e-05 6.18178e-07 )  
( 2.62105e-05 9.39667e-06 1.34825e-06 )  
( 2.37717e-05 8.37684e-06 -2.85155e-07 )  
( 2.55053e-05 9.02858e-06 4.27348e-07 )  
( 1.84766e-05 7.4441e-06 7.35112e-07 )  
( 2.42486e-05 6.02772e-06 -6.59516e-07 )  
( 2.36785e-05 8.67161e-06 8.74432e-08 )  
( 2.36408e-05 7.80532e-06 1.62308e-06 )  
( 2.13744e-05 4.8291e-06 1.49082e-06 )  
( 2.52693e-05 6.39612e-06 5.53873e-07 )  
( 2.1705e-05 2.35576e-06 3.54229e-06 )  
( 3.07884e-05 1.49204e-05 -9.00341e-07 )  
( 2.43569e-05 6.8845e-06 4.75974e-07 )  
( 3.01143e-05 8.26904e-06 4.95823e-07 )  
( 2.66164e-05 1.01742e-05 -5.07794e-07 )  
( 2.69787e-05 4.20838e-06 -1.62195e-06 )  
( 2.61601e-05 9.90038e-06 1.97492e-06 )  
( 2.134e-05 8.30382e-06 1.61958e-06 )  
( 3.15496e-05 1.0204e-05 3.27358e-07 )  
( 2.5108e-05 7.18834e-06 -1.91551e-07 )  
( 2.90165e-05 1.00601e-05 3.52439e-07 )  
( 2.38435e-05 8.61172e-06 -2.27636e-08 )  
( 2.77659e-05 1.084e-05 9.19415e-07 )  
( 2.30921e-05 6.86141e-06 1.88546e-06 )  
( 2.59519e-05 7.99373e-06 -1.6265e-06 )  
( 2.83826e-05 1.08613e-05 9.95273e-07 )  
( 3.26352e-05 1.0337e-05 1.15463e-06 )  
( 2.89263e-05 9.60157e-06 7.42376e-07 )  
( 2.42792e-05 6.22547e-06 3.39343e-06 )  
( 2.71708e-05 5.82674e-06 1.11754e-06 )  
( 3.1516e-05 8.99233e-06 1.6452e-06 )  
( 2.90096e-05 7.92008e-06 -3.84308e-07 )  
( 2.83243e-05 9.59815e-06 2.39109e-06 )  
( 2.58462e-05 9.85768e-06 2.60601e-06 )  
( 3.67038e-05 1.14925e-05 1.49424e-06 )  
( 3.1619e-05 7.44991e-06 8.89301e-07 )  
( 3.3462e-05 1.06619e-05 3.8211e-06 )  
( 3.10112e-05 1.01787e-05 3.67172e-06 )  
( 3.42888e-05 9.02485e-06 1.76599e-06 )  
( 3.14838e-05 9.39359e-06 -4.22328e-06 )  
( 2.68146e-05 1.20216e-05 6.58108e-07 )  
( 3.21327e-05 1.23357e-05 2.47206e-06 )  
( 3.14753e-05 9.50104e-06 3.65822e-06 )  
( 2.69376e-05 4.27742e-06 2.54721e-06 )  
( 2.76322e-05 9.27969e-06 1.2988e-07 )  
( 2.9162e-05 9.20569e-06 8.96731e-07 )  
( 3.10306e-05 8.44148e-06 1.41971e-07 )  
( 3.20421e-05 9.74515e-06 1.38588e-06 )  
( 3.13373e-05 1.16808e-05 2.22673e-06 )  
( 2.78677e-05 9.21495e-06 5.1011e-07 )  
( 2.7036e-05 9.26815e-06 1.21723e-06 )  
( 3.24471e-05 1.0353e-05 -3.53553e-07 )  
( 3.26271e-05 8.94438e-06 3.04934e-06 )  
( 3.38087e-05 7.45659e-06 -2.30114e-06 )  
( 3.46329e-05 9.88615e-06 2.19615e-06 )  
( 3.35022e-05 7.74386e-06 6.98018e-07 )  
( 2.95853e-05 8.77467e-06 -1.48946e-06 )  
( 3.16419e-05 1.01315e-05 1.06502e-07 )  
( 3.35024e-05 8.69179e-06 -1.65726e-06 )  
( 3.37002e-05 1.26788e-05 3.86445e-06 )  
( 3.60642e-05 1.35365e-05 2.34615e-06 )  
( 3.349e-05 9.36983e-06 2.37313e-06 )  
( 3.39003e-05 1.11815e-05 6.76454e-08 )  
( 3.27931e-05 1.22069e-05 2.14235e-06 )  
( 3.35145e-05 9.33009e-06 3.20589e-06 )  
( 4.32508e-05 1.22668e-05 -8.48312e-06 )  
( 3.85535e-05 1.15697e-05 3.91678e-06 )  
( 3.67417e-05 1.1473e-05 7.5068e-07 )  
( 3.53832e-05 8.77583e-06 5.59159e-06 )  
( 3.39767e-05 1.46568e-05 -3.03273e-06 )  
( 3.26754e-05 1.09835e-05 1.33518e-06 )  
( 3.25945e-05 9.94628e-06 6.09533e-06 )  
( 3.35102e-05 9.00586e-06 -3.83292e-06 )  
( 3.3106e-05 7.99342e-06 2.69017e-06 )  
( 3.54272e-05 1.42632e-05 -3.94675e-06 )  
( 3.6951e-05 2.24188e-06 -1.84294e-06 )  
( 3.39359e-05 8.19933e-06 8.00468e-07 )  
( 4.2248e-05 1.07341e-05 1.14847e-06 )  
( 3.34923e-05 7.23371e-06 9.97188e-07 )  
( 3.89477e-05 1.16917e-05 4.55089e-06 )  
( 3.71762e-05 1.20711e-05 3.57701e-06 )  
( 4.00421e-05 1.30441e-05 2.82829e-06 )  
( 3.59163e-05 9.8472e-06 1.97387e-06 )  
( 3.6718e-05 1.46554e-05 1.61103e-06 )  
( 3.90259e-05 1.23744e-05 4.42844e-06 )  
( 3.78659e-05 1.07689e-05 1.86288e-06 )  
( 3.28508e-05 1.35927e-05 -9.12793e-07 )  
( 3.72907e-05 1.07555e-05 9.43884e-07 )  
( 3.83331e-05 1.18944e-05 1.03147e-06 )  
( 4.2749e-05 1.07661e-05 3.49065e-06 )  
( 4.0017e-05 1.13771e-05 1.57363e-06 )  
( 3.46565e-05 1.13677e-05 1.99744e-06 )  
( 3.58908e-05 1.21225e-05 2.27304e-06 )  
( 4.444e-05 1.3164e-05 6.17151e-06 )  
( 3.93971e-05 1.5708e-05 -2.36239e-06 )  
( 3.70065e-05 9.23115e-06 6.3124e-06 )  
( 4.42889e-05 1.59688e-05 1.37571e-06 )  
( 4.67301e-05 1.27288e-05 -1.14934e-05 )  
( 3.85334e-05 7.74675e-06 2.8458e-06 )  
( 3.69435e-05 9.86893e-06 8.69811e-07 )  
( 4.40703e-05 1.27643e-05 -6.01354e-07 )  
( 3.41603e-05 1.06188e-05 3.53582e-06 )  
( 4.2763e-05 1.29172e-05 4.19255e-06 )  
( 3.71638e-05 1.28883e-05 3.90213e-06 )  
( 4.08654e-05 1.16332e-05 -3.87427e-06 )  
( 3.81421e-05 1.4e-05 4.46004e-06 )  
( 4.26165e-05 1.01325e-05 1.15213e-06 )  
( 4.06284e-05 7.23883e-06 2.69917e-06 )  
( 3.78472e-05 9.95556e-06 -8.02494e-07 )  
( 3.75241e-05 1.37495e-05 1.01768e-06 )  
( 3.98967e-05 1.39969e-05 1.39336e-06 )  
( 4.62655e-05 3.15179e-06 4.84182e-06 )  
( 4.40814e-05 1.35962e-05 2.12688e-06 )  
( 4.09965e-05 2.65993e-06 5.70929e-07 )  
( 4.17956e-05 8.71361e-06 5.87914e-06 )  
( 3.99908e-05 1.1361e-05 4.33697e-06 )  
( 4.25656e-05 1.04685e-05 2.12451e-06 )  
( 3.87509e-05 1.32969e-05 4.22711e-06 )  
( 3.99649e-05 1.19562e-05 2.58045e-06 )  
( 4.15099e-05 1.36156e-05 2.35063e-07 )  
( 3.86099e-05 1.33985e-05 5.61812e-06 )  
( 4.64303e-05 1.3403e-05 5.21456e-06 )  
( 4.08954e-05 1.62365e-05 5.40528e-06 )  
( 3.87061e-05 1.65379e-05 -7.74102e-07 )  
( 4.77416e-05 1.4598e-05 2.1691e-06 )  
( 4.02833e-05 1.39979e-05 6.38636e-07 )  
( 4.51896e-05 7.60091e-06 3.13609e-06 )  
( 4.59796e-05 1.3337e-05 -8.7608e-07 )  
( 4.04947e-05 1.55193e-05 6.13036e-06 )  
( 4.79474e-05 9.55696e-06 6.14235e-06 )  
( 4.99082e-05 1.22092e-05 9.09655e-06 )  
( 4.21618e-05 1.05126e-05 -7.16694e-06 )  
( 4.05217e-05 1.17557e-05 1.63282e-06 )  
( 3.95451e-05 1.37577e-05 1.65963e-06 )  
( 4.06238e-05 1.12455e-05 6.44248e-06 )  
( 4.51606e-05 1.09335e-05 -6.30852e-07 )  
( 3.94305e-05 1.57729e-05 -2.37266e-07 )  
( 4.02535e-05 1.33792e-05 6.41903e-06 )  
( 4.52368e-05 9.20872e-06 6.98076e-07 )  
( 4.77045e-05 1.03301e-05 7.23716e-07 )  
( 4.14693e-05 1.37544e-05 2.01012e-06 )  
( 4.11963e-05 1.03507e-05 1.22566e-07 )  
( 5.0063e-05 1.64036e-05 1.78831e-07 )  
( 4.82081e-05 1.39442e-05 9.36132e-07 )  
( 4.49524e-05 1.40239e-05 3.19471e-06 )  
( 4.75258e-05 1.03912e-05 -1.01702e-05 )  
( 3.78098e-05 1.13713e-05 6.08631e-07 )  
( 4.48605e-05 1.33701e-05 3.41493e-06 )  
( 3.97846e-05 1.49306e-05 -4.72049e-07 )  
( 4.37239e-05 1.46583e-05 2.83868e-06 )  
( 4.13431e-05 1.61842e-05 4.41496e-06 )  
( 4.95443e-05 1.40897e-05 4.08996e-07 )  
( 4.037e-05 1.70691e-05 2.6308e-06 )  
( 4.2426e-05 1.31506e-05 -1.85647e-06 )  
( 5.11196e-05 1.27522e-05 -5.17243e-06 )  
( 4.10251e-05 1.38309e-05 2.32061e-06 )  
( 4.46129e-05 1.31004e-05 2.27234e-06 )  
( 4.30219e-05 9.38078e-06 5.77821e-06 )  
( 5.43625e-05 1.31523e-05 5.74032e-06 )  
( 4.68628e-05 1.59957e-05 -1.03869e-07 )  
( 4.41316e-05 1.20388e-05 4.32379e-06 )  
( 4.29176e-05 1.20399e-05 3.75549e-06 )  
( 4.94965e-05 1.5825e-05 -4.28633e-07 )  
( 4.23202e-05 9.39764e-06 5.08859e-06 )  
( 4.76635e-05 1.43128e-05 -6.98111e-08 )  
( 4.25302e-05 1.0426e-05 4.23635e-06 )  
( 3.97464e-05 1.32269e-05 1.45112e-06 )  
( 4.9012e-05 1.97902e-05 -6.42184e-06 )  
( 4.38212e-05 1.51626e-05 -5.68252e-06 )  
( 4.71151e-05 1.51908e-05 3.55868e-06 )  
( 4.54917e-05 1.77596e-05 5.0316e-06 )  
( 0.000261078 -0.000214862 -3.68448e-06 )  
( 4.07785e-05 1.53725e-05 5.41228e-06 )  
( 5.42539e-05 1.30049e-05 3.97262e-06 )  
( 3.97028e-05 1.46088e-05 -2.14534e-06 )  
( 5.07772e-05 5.07818e-06 7.02238e-06 )  
( 5.31494e-05 1.66159e-05 2.90475e-06 )  
( 4.45395e-05 8.88725e-06 7.77132e-06 )  
( 5.12082e-05 1.73854e-05 -4.00074e-06 )  
( 5.21301e-05 1.66421e-05 2.8825e-06 )  
( 4.59858e-05 1.36649e-05 5.82514e-06 )  
( 4.38751e-05 1.54538e-05 2.17626e-06 )  
( -8.71738e-05 -0.000166654 -5.34477e-05 )  
( 4.40213e-05 2.34058e-05 6.86763e-06 )  
( 4.87198e-05 1.50867e-05 -6.73473e-06 )  
( 6.09765e-05 1.76985e-05 4.16601e-06 )  
( 7.42568e-05 -2.66595e-05 -8.81895e-06 )  
( 4.92721e-05 1.45367e-05 -2.00553e-06 )  
( 3.69665e-05 1.17727e-05 -7.63501e-08 )  
( 4.9188e-05 1.46406e-05 1.5957e-05 )  
( 4.98467e-05 2.77602e-05 5.25791e-06 )  
( 0.000196206 0.000122038 -0.000245847 )  
( 5.00404e-05 2.83198e-05 1.33008e-06 )  
( 5.87274e-05 -5.42166e-05 -7.3333e-06 )  
( 4.91729e-05 1.85175e-05 -4.67443e-07 )  
( 6.1798e-05 -4.45946e-05 1.00337e-05 )  
( 4.25795e-05 8.4112e-06 -5.7645e-06 )  
( 3.50494e-05 2.38378e-05 -8.98521e-07 )  
( -4.81576e-05 -6.4792e-05 -2.84769e-06 )  
( -7.19873e-05 6.01908e-05 -0.000169988 )  
( 5.44298e-05 8.69909e-06 3.57687e-06 )  
( 0.000422639 0.0007996 -0.000352316 )  
( -0.000247175 -0.00010031 -0.000148915 )  
( 3.735e-05 3.10569e-05 -6.75025e-06 )  
( -0.00114239 0.00115753 -0.00143152 )  
( 5.6288e-05 -8.43437e-06 -1.16174e-05 )  
( 3.56866e-05 1.90331e-05 -3.28395e-05 )  
( 0.000125574 -0.000218952 -8.4882e-05 )  
)
