/*--------------------------------*- C++ -*----------------------------------*\
| =========                 |                                                 |
| \\      /  F ield         | OpenFOAM: The Open Source CFD Toolbox           |
|  \\    /   O peration     | Version:  5.x                                   |
|   \\  /    A nd           | Web:      www.OpenFOAM.org                      |
|    \\/     M anipulation  |                                                 |
\*---------------------------------------------------------------------------*/
FoamFile
{
    version     2.0;
    format      ascii;
    class       volScalarField;
    location    "800";
    object      p;
}
// * * * * * * * * * * * * * * * * * * * * * * * * * * * * * * * * * * * * * //

dimensions      [0 2 -2 0 0 0 0];

internalField   nonuniform List<scalar> 
90
(
-0.0529549
-0.0716762
-0.0693926
-0.0655554
-0.0631541
-0.0622647
-0.0623391
-0.0645977
-0.0701114
-0.0799209
-0.0938534
-0.110903
-0.129898
-0.149861
-0.171182
-0.194031
-0.21685
-0.239983
-0.265206
-0.291751
-0.317485
-0.342406
-0.367075
-0.39177
-0.416836
-0.442514
-0.468971
-0.496304
-0.524586
-0.55386
-0.584151
-0.615469
-0.647818
-0.681198
-0.715604
-0.751034
-0.787481
-0.824942
-0.863413
-0.90289
-0.943371
-0.984855
-1.02734
-1.07083
-1.11533
-1.16084
-1.20737
-1.25492
-1.3035
-1.35311
-1.40377
-1.45547
-1.50823
-1.56205
-1.61694
-1.67291
-1.72995
-1.78809
-1.84731
-1.90764
-1.96906
-2.0316
-2.09524
-2.16
-2.22588
-2.29288
-2.36102
-2.43029
-2.5007
-2.57226
-2.64495
-2.71879
-2.79382
-2.87018
-2.94783
-3.02633
-3.10526
-3.18455
-3.26422
-3.34422
-3.4243
-3.50404
-3.58322
-3.66233
-3.74125
-3.81335
-3.86747
-3.92128
-4.05394
-4.28736
)
;

boundaryField
{
    inlet
    {
        type            zeroGradient;
    }
    outlet
    {
        type            fixedValue;
        value           uniform 0;
    }
    repeat_boundary
    {
        type            zeroGradient;
    }
    procBoundary2to0
    {
        type            processor;
        value           nonuniform List<scalar> 
90
(
-0.0179076
-0.0468174
-0.0628683
-0.0632104
-0.070122
-0.0683042
-0.0443338
-0.0268902
-0.0271149
-0.0565464
-0.098719
-0.14135
-0.176107
-0.194058
-0.220985
-0.265008
-0.279148
-0.280671
-0.323544
-0.372854
-0.397465
-0.403608
-0.41527
-0.42858
-0.445074
-0.464149
-0.485546
-0.508912
-0.534074
-0.560844
-0.58909
-0.618703
-0.649596
-0.681701
-0.714965
-0.749344
-0.784807
-0.82133
-0.858892
-0.897482
-0.937091
-0.977714
-1.01935
-1.062
-1.10566
-1.15034
-1.19604
-1.24277
-1.29054
-1.33934
-1.38919
-1.44009
-1.49204
-1.54506
-1.59915
-1.65431
-1.71055
-1.76787
-1.82629
-1.8858
-1.94642
-2.00815
-2.071
-2.13498
-2.20011
-2.26638
-2.33381
-2.40243
-2.47223
-2.54325
-2.6155
-2.689
-2.76378
-2.83987
-2.9173
-2.9961
-3.07631
-3.15796
-3.24111
-3.32581
-3.41215
-3.50025
-3.59015
-3.6816
-3.7743
-3.86992
-3.9726
-4.08085
-4.17052
-4.19224
)
;
    }
    procBoundary2to3
    {
        type            processor;
        value           nonuniform List<scalar> 
90
(
0.0167947
0.0151708
0.00545736
-0.00639464
-0.018615
-0.0313599
-0.044766
-0.0591077
-0.0747002
-0.0917646
-0.11041
-0.130612
-0.152279
-0.175315
-0.19956
-0.224743
-0.250709
-0.277487
-0.305082
-0.33339
-0.362272
-0.391662
-0.421526
-0.451863
-0.48269
-0.51404
-0.545953
-0.578464
-0.611609
-0.645416
-0.679916
-0.715139
-0.751114
-0.787867
-0.825425
-0.863814
-0.903056
-0.943177
-0.984198
-1.02614
-1.06904
-1.11289
-1.15774
-1.2036
-1.25048
-1.2984
-1.34738
-1.39744
-1.44858
-1.50082
-1.55417
-1.60864
-1.66423
-1.72096
-1.77882
-1.83782
-1.89796
-1.95925
-2.02167
-2.08524
-2.14994
-2.21577
-2.28273
-2.35081
-2.41999
-2.49027
-2.56164
-2.63406
-2.70753
-2.78202
-2.85751
-2.93396
-3.01129
-3.08938
-3.16822
-3.24823
-3.32988
-3.41326
-3.49831
-3.58497
-3.67324
-3.76315
-3.85471
-3.94772
-4.04192
-4.13827
-4.24
-4.34823
-4.44776
-4.48979
)
;
    }
}


// ************************************************************************* //
