/*--------------------------------*- C++ -*----------------------------------*\
| =========                 |                                                 |
| \\      /  F ield         | OpenFOAM: The Open Source CFD Toolbox           |
|  \\    /   O peration     | Version:  5.x                                   |
|   \\  /    A nd           | Web:      www.OpenFOAM.org                      |
|    \\/     M anipulation  |                                                 |
\*---------------------------------------------------------------------------*/
FoamFile
{
    version     2.0;
    format      ascii;
    class       volVectorField;
    location    "800";
    object      stored_U;
}
// * * * * * * * * * * * * * * * * * * * * * * * * * * * * * * * * * * * * * //

dimensions      [0 1 -1 0 0 0 0];

internalField   nonuniform List<vector> 
90
(
(0.114396 -0.0650223 -6.72182)
(0.118843 -0.0678716 -6.76106)
(0.118161 -0.0705114 -6.79747)
(0.119256 -0.0732589 -6.83337)
(0.118518 -0.0760938 -6.86992)
(0.117732 -0.0788137 -6.90687)
(0.116096 -0.0817241 -6.94454)
(0.114065 -0.0844532 -6.98263)
(0.111464 -0.0868968 -7.0212)
(0.108438 -0.088865 -7.05988)
(0.104953 -0.0905696 -7.09864)
(0.101018 -0.0926185 -7.13729)
(0.0966523 -0.0948564 -7.17597)
(0.0919279 -0.0968157 -7.21457)
(0.0868667 -0.0984769 -7.25295)
(0.081469 -0.099984 -7.29101)
(0.0757816 -0.101696 -7.32878)
(0.0698559 -0.103211 -7.36622)
(0.0637194 -0.104386 -7.40316)
(0.0573854 -0.105506 -7.4395)
(0.0509063 -0.106782 -7.47522)
(0.0442908 -0.108106 -7.51039)
(0.0375795 -0.109471 -7.545)
(0.0308009 -0.110828 -7.57909)
(0.0239867 -0.112175 -7.61265)
(0.0171668 -0.113498 -7.64569)
(0.0103694 -0.114795 -7.67822)
(0.00362037 -0.116067 -7.71024)
(-0.00305682 -0.117318 -7.74177)
(-0.00964153 -0.118553 -7.77282)
(-0.0161159 -0.11978 -7.8034)
(-0.0224647 -0.121008 -7.83353)
(-0.028676 -0.122244 -7.86323)
(-0.0347413 -0.123498 -7.89251)
(-0.0406552 -0.124777 -7.92142)
(-0.0464157 -0.126087 -7.94996)
(-0.0520238 -0.127434 -7.97818)
(-0.0574834 -0.128823 -8.00609)
(-0.0628006 -0.130256 -8.03373)
(-0.067984 -0.131735 -8.06112)
(-0.0730436 -0.133262 -8.08829)
(-0.0779908 -0.134835 -8.11527)
(-0.0828381 -0.136454 -8.14208)
(-0.0875981 -0.138117 -8.16875)
(-0.0922839 -0.139823 -8.1953)
(-0.0969083 -0.141567 -8.22175)
(-0.101484 -0.143349 -8.24812)
(-0.106022 -0.145166 -8.27442)
(-0.110535 -0.147016 -8.30067)
(-0.115032 -0.148896 -8.32689)
(-0.119524 -0.150804 -8.35308)
(-0.124018 -0.152741 -8.37927)
(-0.128524 -0.154703 -8.40545)
(-0.133049 -0.156691 -8.43163)
(-0.137599 -0.158705 -8.45782)
(-0.142181 -0.160743 -8.48404)
(-0.146799 -0.162806 -8.51028)
(-0.15146 -0.164893 -8.53654)
(-0.156166 -0.167007 -8.56284)
(-0.160923 -0.169146 -8.58917)
(-0.165733 -0.171311 -8.61555)
(-0.1706 -0.173504 -8.64196)
(-0.175526 -0.175724 -8.66842)
(-0.180514 -0.177973 -8.69493)
(-0.185566 -0.180251 -8.72148)
(-0.190683 -0.182559 -8.74808)
(-0.195867 -0.184898 -8.77474)
(-0.201119 -0.187267 -8.80145)
(-0.206439 -0.189669 -8.82821)
(-0.211828 -0.192101 -8.85503)
(-0.217286 -0.194566 -8.8819)
(-0.222814 -0.197062 -8.90883)
(-0.228412 -0.199589 -8.93583)
(-0.234076 -0.202146 -8.9629)
(-0.239804 -0.204736 -8.99002)
(-0.245598 -0.207354 -9.01719)
(-0.251482 -0.209999 -9.04447)
(-0.257468 -0.21266 -9.07184)
(-0.263569 -0.215328 -9.0993)
(-0.269798 -0.217992 -9.12685)
(-0.27617 -0.220642 -9.15446)
(-0.282705 -0.223258 -9.1821)
(-0.289428 -0.22582 -9.20974)
(-0.296366 -0.228302 -9.23743)
(-0.30354 -0.230692 -9.26526)
(-0.310927 -0.232985 -9.29256)
(-0.318784 -0.235037 -9.31826)
(-0.327371 -0.236446 -9.34346)
(-0.336542 -0.237392 -9.37629)
(-0.341193 -0.238592 -9.40133)
)
;

boundaryField
{
    inlet
    {
        type            calculated;
        value           uniform (-0.341193 -0.238592 -9.40133);
    }
    outlet
    {
        type            calculated;
        value           uniform (0.114396 -0.0650223 -6.72182);
    }
    repeat_boundary
    {
        type            calculated;
        value           nonuniform List<vector> 
180
(
(0.114396 0 -6.72182)
(0.118843 0 -6.76106)
(0.118161 0 -6.79747)
(0.119256 0 -6.83337)
(0.118518 0 -6.86992)
(0.117732 0 -6.90687)
(0.116096 0 -6.94454)
(0.114065 0 -6.98263)
(0.111464 0 -7.0212)
(0.108438 0 -7.05988)
(0.104953 0 -7.09864)
(0.101018 0 -7.13729)
(0.0966523 0 -7.17597)
(0.0919279 0 -7.21457)
(0.0868667 0 -7.25295)
(0.081469 0 -7.29101)
(0.0757816 0 -7.32878)
(0.0698559 0 -7.36622)
(0.0637194 0 -7.40316)
(0.0573854 0 -7.4395)
(0.0509063 0 -7.47522)
(0.0442908 0 -7.51039)
(0.0375795 0 -7.545)
(0.0308009 0 -7.57909)
(0.0239867 0 -7.61265)
(0.0171668 0 -7.64569)
(0.0103694 0 -7.67822)
(0.00362037 0 -7.71024)
(-0.00305682 0 -7.74177)
(-0.00964153 0 -7.77282)
(-0.0161159 0 -7.8034)
(-0.0224647 0 -7.83353)
(-0.028676 0 -7.86323)
(-0.0347413 0 -7.89251)
(-0.0406552 0 -7.92142)
(-0.0464157 0 -7.94996)
(-0.0520238 0 -7.97818)
(-0.0574834 0 -8.00609)
(-0.0628006 0 -8.03373)
(-0.067984 0 -8.06112)
(-0.0730436 0 -8.08829)
(-0.0779908 0 -8.11527)
(-0.0828381 0 -8.14208)
(-0.0875981 0 -8.16875)
(-0.0922839 0 -8.1953)
(-0.0969083 0 -8.22175)
(-0.101484 0 -8.24812)
(-0.106022 0 -8.27442)
(-0.110535 0 -8.30067)
(-0.115032 0 -8.32689)
(-0.119524 0 -8.35308)
(-0.124018 0 -8.37927)
(-0.128524 0 -8.40545)
(-0.133049 0 -8.43163)
(-0.137599 0 -8.45782)
(-0.142181 0 -8.48404)
(-0.146799 0 -8.51028)
(-0.15146 0 -8.53654)
(-0.156166 0 -8.56284)
(-0.160923 0 -8.58917)
(-0.165733 0 -8.61555)
(-0.1706 0 -8.64196)
(-0.175526 0 -8.66842)
(-0.180514 0 -8.69493)
(-0.185566 0 -8.72148)
(-0.190683 0 -8.74808)
(-0.195867 0 -8.77474)
(-0.201119 0 -8.80145)
(-0.206439 0 -8.82821)
(-0.211828 0 -8.85503)
(-0.217286 0 -8.8819)
(-0.222814 0 -8.90883)
(-0.228412 0 -8.93583)
(-0.234076 0 -8.9629)
(-0.239804 0 -8.99002)
(-0.245598 0 -9.01719)
(-0.251482 0 -9.04447)
(-0.257468 0 -9.07184)
(-0.263569 0 -9.0993)
(-0.269798 0 -9.12685)
(-0.27617 0 -9.15446)
(-0.282705 0 -9.1821)
(-0.289428 0 -9.20974)
(-0.296366 0 -9.23743)
(-0.30354 0 -9.26526)
(-0.310927 0 -9.29256)
(-0.318784 0 -9.31826)
(-0.327371 0 -9.34346)
(-0.336542 0 -9.37629)
(-0.341193 0 -9.40133)
(0 -0.0650223 -6.72182)
(0 -0.0678716 -6.76106)
(0 -0.0705114 -6.79747)
(0 -0.0732589 -6.83337)
(0 -0.0760938 -6.86992)
(0 -0.0788137 -6.90687)
(0 -0.0817241 -6.94454)
(0 -0.0844532 -6.98263)
(0 -0.0868968 -7.0212)
(0 -0.088865 -7.05988)
(0 -0.0905696 -7.09864)
(0 -0.0926185 -7.13729)
(0 -0.0948564 -7.17597)
(0 -0.0968157 -7.21457)
(0 -0.0984769 -7.25295)
(0 -0.099984 -7.29101)
(0 -0.101696 -7.32878)
(0 -0.103211 -7.36622)
(0 -0.104386 -7.40316)
(0 -0.105506 -7.4395)
(0 -0.106782 -7.47522)
(0 -0.108106 -7.51039)
(0 -0.109471 -7.545)
(0 -0.110828 -7.57909)
(0 -0.112175 -7.61265)
(0 -0.113498 -7.64569)
(0 -0.114795 -7.67822)
(0 -0.116067 -7.71024)
(0 -0.117318 -7.74177)
(0 -0.118553 -7.77282)
(0 -0.11978 -7.8034)
(0 -0.121008 -7.83353)
(0 -0.122244 -7.86323)
(0 -0.123498 -7.89251)
(0 -0.124777 -7.92142)
(0 -0.126087 -7.94996)
(0 -0.127434 -7.97818)
(0 -0.128823 -8.00609)
(0 -0.130256 -8.03373)
(0 -0.131735 -8.06112)
(0 -0.133262 -8.08829)
(0 -0.134835 -8.11527)
(0 -0.136454 -8.14208)
(0 -0.138117 -8.16875)
(0 -0.139823 -8.1953)
(0 -0.141567 -8.22175)
(0 -0.143349 -8.24812)
(0 -0.145166 -8.27442)
(0 -0.147016 -8.30067)
(0 -0.148896 -8.32689)
(0 -0.150804 -8.35308)
(0 -0.152741 -8.37927)
(0 -0.154703 -8.40545)
(0 -0.156691 -8.43163)
(0 -0.158705 -8.45782)
(0 -0.160743 -8.48404)
(0 -0.162806 -8.51028)
(0 -0.164893 -8.53654)
(0 -0.167007 -8.56284)
(0 -0.169146 -8.58917)
(0 -0.171311 -8.61555)
(0 -0.173504 -8.64196)
(0 -0.175724 -8.66842)
(0 -0.177973 -8.69493)
(0 -0.180251 -8.72148)
(0 -0.182559 -8.74808)
(0 -0.184898 -8.77474)
(0 -0.187267 -8.80145)
(0 -0.189669 -8.82821)
(0 -0.192101 -8.85503)
(0 -0.194566 -8.8819)
(0 -0.197062 -8.90883)
(0 -0.199589 -8.93583)
(0 -0.202146 -8.9629)
(0 -0.204736 -8.99002)
(0 -0.207354 -9.01719)
(0 -0.209999 -9.04447)
(0 -0.21266 -9.07184)
(0 -0.215328 -9.0993)
(0 -0.217992 -9.12685)
(0 -0.220642 -9.15446)
(0 -0.223258 -9.1821)
(0 -0.22582 -9.20974)
(0 -0.228302 -9.23743)
(0 -0.230692 -9.26526)
(0 -0.232985 -9.29256)
(0 -0.235037 -9.31826)
(0 -0.236446 -9.34346)
(0 -0.237392 -9.37629)
(0 -0.238592 -9.40133)
)
;
    }
    procBoundary2to0
    {
        type            processor;
        value           nonuniform List<vector> 
90
(
(0.0636783 -0.0516439 -5.39598)
(0.064938 -0.0540274 -5.3923)
(0.0659721 -0.0535976 -5.39744)
(0.0666917 -0.053628 -5.39872)
(0.066414 -0.0531292 -5.40384)
(0.0659572 -0.0539072 -5.4046)
(0.0656477 -0.0550662 -5.40597)
(0.0654899 -0.0559552 -5.40702)
(0.0658071 -0.0563692 -5.40837)
(0.0663916 -0.0564786 -5.40873)
(0.0675558 -0.0562321 -5.40574)
(0.0661619 -0.0557521 -5.41124)
(0.0661507 -0.0558913 -5.41077)
(0.0668851 -0.0556863 -5.41087)
(0.0683402 -0.0550952 -5.40672)
(0.0670976 -0.054204 -5.4127)
(0.0678593 -0.0536418 -5.41265)
(0.0695412 -0.0525997 -5.4135)
(0.073217 -0.050326 -5.40977)
(0.0719245 -0.0490891 -5.41504)
(0.0716838 -0.0479071 -5.41604)
(0.0708611 -0.0469986 -5.41853)
(0.0699598 -0.0462694 -5.42069)
(0.0689135 -0.0456738 -5.42308)
(0.0677804 -0.0451941 -5.42542)
(0.0665861 -0.0448041 -5.42777)
(0.0653548 -0.0444907 -5.43006)
(0.0641064 -0.044242 -5.43228)
(0.0628568 -0.0440506 -5.43441)
(0.061619 -0.0439108 -5.43644)
(0.060403 -0.043819 -5.43836)
(0.0592168 -0.043773 -5.44016)
(0.0580659 -0.0437713 -5.44185)
(0.0569544 -0.0438129 -5.44341)
(0.0558847 -0.0438972 -5.44485)
(0.0548578 -0.0440234 -5.44616)
(0.0538739 -0.0441908 -5.44734)
(0.0529321 -0.0443984 -5.44838)
(0.0520309 -0.0446451 -5.44929)
(0.0511686 -0.0449294 -5.45006)
(0.0503427 -0.0452497 -5.45069)
(0.049551 -0.0456041 -5.45118)
(0.0487908 -0.0459907 -5.45152)
(0.0480597 -0.0464072 -5.45172)
(0.047355 -0.0468515 -5.45176)
(0.0466745 -0.0473214 -5.45166)
(0.0460159 -0.0478148 -5.4514)
(0.0453768 -0.0483295 -5.45099)
(0.0447553 -0.0488636 -5.45042)
(0.0441494 -0.0494154 -5.44971)
(0.0435572 -0.0499832 -5.44883)
(0.0429769 -0.0505655 -5.4478)
(0.0424069 -0.0511612 -5.44661)
(0.0418456 -0.0517692 -5.44527)
(0.0412913 -0.0523888 -5.44377)
(0.0407428 -0.0530191 -5.4421)
(0.0401987 -0.0536598 -5.44028)
(0.0396577 -0.0543104 -5.4383)
(0.0391188 -0.0549706 -5.43616)
(0.0385808 -0.0556404 -5.43385)
(0.0380429 -0.0563194 -5.43138)
(0.0375043 -0.0570077 -5.42874)
(0.0369644 -0.057705 -5.42593)
(0.0364227 -0.0584111 -5.42295)
(0.0358789 -0.0591258 -5.41979)
(0.0353327 -0.0598486 -5.41646)
(0.0347842 -0.060579 -5.41294)
(0.0342334 -0.0613162 -5.40924)
(0.0336807 -0.0620593 -5.40535)
(0.0331266 -0.0628071 -5.40127)
(0.0325718 -0.0635579 -5.397)
(0.0320169 -0.0643093 -5.39252)
(0.0314632 -0.0650588 -5.38785)
(0.0309118 -0.0658057 -5.38297)
(0.0303643 -0.066549 -5.3779)
(0.029822 -0.0672828 -5.37261)
(0.0292861 -0.0679913 -5.36711)
(0.0287579 -0.0686554 -5.36141)
(0.0282388 -0.0692563 -5.35549)
(0.0277305 -0.0697727 -5.34937)
(0.0272349 -0.0701793 -5.34306)
(0.0267545 -0.0704423 -5.33658)
(0.026294 -0.0705146 -5.32994)
(0.02586 -0.0703475 -5.32312)
(0.0254596 -0.0699017 -5.31605)
(0.0250997 -0.0691718 -5.30901)
(0.0247335 -0.0678878 -5.3026)
(0.0244071 -0.0653797 -5.29708)
(0.0241996 -0.0617974 -5.28897)
(0.0241298 -0.0606292 -5.27778)
)
;
    }
    procBoundary2to3
    {
        type            processor;
        value           nonuniform List<vector> 
90
(
(0.107956 -0.0320202 -5.24541)
(0.113009 -0.0320639 -5.22571)
(0.115957 -0.0295543 -5.20779)
(0.11942 -0.0280455 -5.18911)
(0.12214 -0.0259241 -5.1698)
(0.124685 -0.0239703 -5.14984)
(0.126906 -0.0218163 -5.1293)
(0.128934 -0.0196418 -5.10826)
(0.130784 -0.0173885 -5.0868)
(0.132496 -0.0150964 -5.06496)
(0.134084 -0.0127976 -5.0428)
(0.135537 -0.0105407 -5.02037)
(0.136878 -0.00831538 -4.99774)
(0.138136 -0.00612735 -4.97499)
(0.139323 -0.00400772 -4.95215)
(0.140443 -0.00197733 -4.92925)
(0.141511 -3.55667e-05 -4.9064)
(0.142552 0.00182625 -4.88363)
(0.143572 0.00359467 -4.86097)
(0.144551 0.00525544 -4.83846)
(0.145482 0.00681384 -4.81614)
(0.146355 0.00826442 -4.79406)
(0.147173 0.00961138 -4.77225)
(0.147941 0.0108589 -4.75076)
(0.148664 0.0120111 -4.72961)
(0.14935 0.0130734 -4.70883)
(0.150009 0.014051 -4.68846)
(0.150649 0.0149498 -4.66851)
(0.151279 0.0157757 -4.64899)
(0.151909 0.0165348 -4.62991)
(0.152546 0.0172338 -4.61128)
(0.1532 0.0178794 -4.5931)
(0.153879 0.0184789 -4.57537)
(0.15459 0.0190396 -4.55808)
(0.155341 0.0195687 -4.54123)
(0.156138 0.0200736 -4.52479)
(0.156986 0.020561 -4.50876)
(0.157891 0.0210378 -4.49312)
(0.158855 0.0215102 -4.47786)
(0.159884 0.0219839 -4.46295)
(0.160979 0.0224644 -4.44839)
(0.162141 0.0229562 -4.43414)
(0.163373 0.0234635 -4.4202)
(0.164674 0.0239898 -4.40654)
(0.166044 0.0245379 -4.39316)
(0.167484 0.0251102 -4.38003)
(0.168991 0.0257086 -4.36713)
(0.170564 0.0263345 -4.35447)
(0.172203 0.0269889 -4.34201)
(0.173904 0.0276725 -4.32976)
(0.175667 0.0283859 -4.31771)
(0.177489 0.0291292 -4.30583)
(0.179368 0.0299026 -4.29414)
(0.181302 0.0307062 -4.28261)
(0.18329 0.03154 -4.27125)
(0.185329 0.0324042 -4.26005)
(0.187418 0.0332988 -4.24902)
(0.189556 0.0342241 -4.23813)
(0.191742 0.0351805 -4.22741)
(0.193973 0.0361687 -4.21684)
(0.19625 0.0371894 -4.20642)
(0.198572 0.0382437 -4.19616)
(0.200939 0.039333 -4.18606)
(0.20335 0.040459 -4.17612)
(0.205806 0.041624 -4.16634)
(0.208308 0.0428304 -4.15672)
(0.210857 0.0440816 -4.14727)
(0.213454 0.0453812 -4.13799)
(0.216102 0.0467338 -4.12887)
(0.218804 0.0481446 -4.11993)
(0.221562 0.0496201 -4.11116)
(0.224381 0.0511674 -4.10258)
(0.227264 0.0527953 -4.09415)
(0.230224 0.0545159 -4.08586)
(0.233275 0.0563442 -4.07774)
(0.236423 0.0582926 -4.06986)
(0.239674 0.0603761 -4.06203)
(0.242994 0.0625885 -4.05432)
(0.246359 0.0649317 -4.0467)
(0.249744 0.0674086 -4.03916)
(0.253121 0.070024 -4.0317)
(0.256451 0.0727844 -4.02434)
(0.259679 0.0756958 -4.01708)
(0.262751 0.0787624 -4.0099)
(0.265614 0.0819844 -4.00272)
(0.268253 0.0853577 -3.99571)
(0.270424 0.0889711 -3.98937)
(0.271206 0.092837 -3.98448)
(0.270682 0.0968288 -3.97862)
(0.271314 0.0990695 -3.96816)
)
;
    }
}


// ************************************************************************* //
