/*--------------------------------*- C++ -*----------------------------------*\
| =========                 |                                                 |
| \\      /  F ield         | OpenFOAM: The Open Source CFD Toolbox           |
|  \\    /   O peration     | Version:  5.x                                   |
|   \\  /    A nd           | Web:      www.OpenFOAM.org                      |
|    \\/     M anipulation  |                                                 |
\*---------------------------------------------------------------------------*/
FoamFile
{
    version     2.0;
    format      ascii;
    class       volVectorField;
    location    "800";
    object      U;
}
// * * * * * * * * * * * * * * * * * * * * * * * * * * * * * * * * * * * * * //

dimensions      [0 1 -1 0 0 0 0];

internalField   nonuniform List<vector> 
90
(
(0.111125 -0.0667992 -6.74845)
(0.115392 -0.0693004 -6.78791)
(0.114128 -0.0724106 -6.82347)
(0.114824 -0.0752426 -6.85928)
(0.113617 -0.0777889 -6.89549)
(0.112494 -0.0800648 -6.93202)
(0.110507 -0.0823548 -6.96903)
(0.108166 -0.0846486 -7.00613)
(0.105261 -0.0868446 -7.04344)
(0.101929 -0.0890033 -7.08078)
(0.0981317 -0.0912036 -7.1183)
(0.0939217 -0.0934748 -7.15589)
(0.0893572 -0.0955162 -7.19347)
(0.0844915 -0.0972075 -7.23086)
(0.0793028 -0.0988017 -7.26801)
(0.0738191 -0.100444 -7.30492)
(0.06813 -0.10176 -7.34148)
(0.0622622 -0.102712 -7.3775)
(0.0562014 -0.103962 -7.41298)
(0.0499845 -0.105325 -7.44808)
(0.0436762 -0.106471 -7.48268)
(0.0372834 -0.10743 -7.5167)
(0.0308439 -0.10853 -7.55011)
(0.024368 -0.109658 -7.58299)
(0.0178893 -0.110814 -7.61533)
(0.0114298 -0.111966 -7.64715)
(0.00501332 -0.113122 -7.67848)
(-0.00133867 -0.114275 -7.70933)
(-0.0076069 -0.115429 -7.73971)
(-0.0137746 -0.116586 -7.76964)
(-0.0198275 -0.117753 -7.79913)
(-0.0257542 -0.118935 -7.82822)
(-0.0315464 -0.12014 -7.85692)
(-0.0371992 -0.121374 -7.88526)
(-0.0427103 -0.122641 -7.91326)
(-0.0480805 -0.123946 -7.94095)
(-0.0533133 -0.125293 -7.96835)
(-0.0584145 -0.126684 -7.99549)
(-0.0633917 -0.128121 -8.02241)
(-0.0682543 -0.129604 -8.04911)
(-0.0730129 -0.131132 -8.07564)
(-0.0776788 -0.132704 -8.10201)
(-0.0822641 -0.13432 -8.12825)
(-0.0867808 -0.135976 -8.15438)
(-0.0912409 -0.13767 -8.18041)
(-0.0956561 -0.139401 -8.20637)
(-0.100038 -0.141165 -8.23227)
(-0.104396 -0.142962 -8.25813)
(-0.108741 -0.144788 -8.28396)
(-0.113081 -0.146643 -8.30976)
(-0.117427 -0.148524 -8.33556)
(-0.121784 -0.150431 -8.36136)
(-0.12616 -0.152364 -8.38717)
(-0.130562 -0.154321 -8.41299)
(-0.134995 -0.156303 -8.43883)
(-0.139464 -0.158309 -8.4647)
(-0.143976 -0.16034 -8.4906)
(-0.148533 -0.162397 -8.51653)
(-0.153139 -0.164478 -8.54251)
(-0.157799 -0.166586 -8.56852)
(-0.162514 -0.168721 -8.59458)
(-0.167288 -0.170883 -8.62068)
(-0.172124 -0.173074 -8.64683)
(-0.177022 -0.175294 -8.67304)
(-0.181986 -0.177543 -8.69929)
(-0.187016 -0.179823 -8.7256)
(-0.192115 -0.182134 -8.75196)
(-0.197282 -0.184477 -8.77838)
(-0.202519 -0.186851 -8.80486)
(-0.207827 -0.189256 -8.83139)
(-0.213205 -0.191694 -8.85799)
(-0.218655 -0.194162 -8.88464)
(-0.224176 -0.196661 -8.91135)
(-0.229767 -0.199189 -8.93814)
(-0.235425 -0.201748 -8.96499)
(-0.241147 -0.204335 -8.99188)
(-0.246953 -0.206948 -9.01886)
(-0.252856 -0.209579 -9.04593)
(-0.258872 -0.212218 -9.07309)
(-0.265013 -0.214854 -9.10033)
(-0.271295 -0.217476 -9.12764)
(-0.277739 -0.220065 -9.15497)
(-0.284369 -0.2226 -9.18231)
(-0.291211 -0.225057 -9.20969)
(-0.298288 -0.227421 -9.23721)
(-0.305579 -0.229688 -9.26422)
(-0.313354 -0.231718 -9.28963)
(-0.321819 -0.233115 -9.31455)
(-0.330867 -0.234049 -9.34702)
(-0.335464 -0.235232 -9.37182)
)
;

boundaryField
{
    inlet
    {
        type            zeroGradient;
    }
    outlet
    {
        type            zeroGradient;
    }
    repeat_boundary
    {
        type            slip;
    }
    procBoundary2to0
    {
        type            processor;
        value           nonuniform List<vector> 
90
(
(0.0620915 -0.0488838 -5.41585)
(0.0626853 -0.0500852 -5.41884)
(0.0632305 -0.0519883 -5.41954)
(0.064396 -0.0527533 -5.41837)
(0.0639968 -0.0525341 -5.42586)
(0.0651652 -0.0534356 -5.42027)
(0.0650147 -0.0534719 -5.42469)
(0.0650036 -0.0532633 -5.42478)
(0.0643795 -0.0527809 -5.42778)
(0.0638596 -0.0528151 -5.42927)
(0.0633509 -0.0535726 -5.42951)
(0.0633714 -0.0539677 -5.43031)
(0.0638563 -0.0539261 -5.43078)
(0.0650939 -0.0535911 -5.42722)
(0.0639919 -0.0530079 -5.43298)
(0.0641898 -0.0530459 -5.43224)
(0.0661997 -0.0521436 -5.42728)
(0.0661563 -0.0502078 -5.43127)
(0.0654425 -0.0491897 -5.43481)
(0.0663727 -0.048505 -5.4346)
(0.0682011 -0.0474468 -5.43173)
(0.0670701 -0.04632 -5.43643)
(0.0665099 -0.0454766 -5.4374)
(0.0655752 -0.044811 -5.43951)
(0.0646066 -0.0442815 -5.44139)
(0.0635582 -0.0438563 -5.44338)
(0.0624688 -0.0435263 -5.44532)
(0.0613587 -0.0432712 -5.44725)
(0.0602444 -0.0430827 -5.44911)
(0.059139 -0.0429527 -5.4509)
(0.0580525 -0.0428761 -5.4526)
(0.0569924 -0.0428492 -5.45421)
(0.0559639 -0.0428694 -5.45572)
(0.0549706 -0.0429346 -5.45711)
(0.0540144 -0.043043 -5.4584)
(0.0530961 -0.0431931 -5.45957)
(0.0522156 -0.0433833 -5.46062)
(0.051372 -0.0436122 -5.46155)
(0.0505638 -0.0438778 -5.46234)
(0.0497893 -0.0441786 -5.46301)
(0.0490463 -0.0445124 -5.46355)
(0.0483327 -0.0448772 -5.46395)
(0.0476461 -0.045271 -5.46421)
(0.0469844 -0.0456915 -5.46434)
(0.0463454 -0.0461367 -5.46432)
(0.0457269 -0.0466043 -5.46416)
(0.0451267 -0.0470926 -5.46386)
(0.0445431 -0.0475996 -5.46342)
(0.0439741 -0.0481236 -5.46283)
(0.043418 -0.0486631 -5.46209)
(0.0428729 -0.0492168 -5.46121)
(0.0423374 -0.0497836 -5.46018)
(0.04181 -0.0503625 -5.45901)
(0.041289 -0.0509527 -5.45769)
(0.0407732 -0.0515537 -5.45622)
(0.0402613 -0.052165 -5.4546)
(0.0397521 -0.0527864 -5.45283)
(0.0392444 -0.0534176 -5.45091)
(0.0387372 -0.0540584 -5.44883)
(0.0382297 -0.0547089 -5.4466)
(0.037721 -0.055369 -5.44421)
(0.0372104 -0.0560386 -5.44167)
(0.0366975 -0.0567175 -5.43896)
(0.0361816 -0.0574057 -5.43609)
(0.0356626 -0.0581028 -5.43305)
(0.0351403 -0.0588084 -5.42984)
(0.0346146 -0.0595219 -5.42645)
(0.0340857 -0.0602424 -5.42289)
(0.0335539 -0.060969 -5.41915)
(0.0330196 -0.0617004 -5.41522)
(0.0324834 -0.0624347 -5.4111)
(0.0319462 -0.0631697 -5.40679)
(0.031409 -0.0639024 -5.40229)
(0.030873 -0.0646306 -5.39759)
(0.0303396 -0.0653534 -5.3927)
(0.0298104 -0.0660677 -5.3876)
(0.0292867 -0.0667607 -5.38231)
(0.0287699 -0.0674135 -5.37681)
(0.0282614 -0.0680064 -5.3711)
(0.0277628 -0.0685179 -5.3652)
(0.0272759 -0.0689228 -5.35912)
(0.026803 -0.0691875 -5.35286)
(0.0263486 -0.0692656 -5.34645)
(0.0259182 -0.0691095 -5.33987)
(0.0255182 -0.0686802 -5.33305)
(0.0251535 -0.0679712 -5.32625)
(0.024783 -0.0667216 -5.32007)
(0.0244481 -0.0642698 -5.31476)
(0.0242247 -0.0607624 -5.30695)
(0.0241508 -0.0596217 -5.29612)
)
;
    }
    procBoundary2to3
    {
        type            processor;
        value           nonuniform List<vector> 
90
(
(0.107394 -0.0298505 -5.23315)
(0.112394 -0.0297099 -5.21309)
(0.115021 -0.0272653 -5.19535)
(0.118272 -0.0257706 -5.17666)
(0.120803 -0.0236666 -5.15758)
(0.123229 -0.0217068 -5.13782)
(0.125346 -0.0195768 -5.11753)
(0.127261 -0.017474 -5.09676)
(0.128958 -0.0153423 -5.0756)
(0.130479 -0.0132185 -5.05412)
(0.131845 -0.0111106 -5.0324)
(0.133082 -0.00903659 -5.01051)
(0.13423 -0.00698343 -4.98852)
(0.135312 -0.00497401 -4.96647)
(0.136329 -0.00304024 -4.94438)
(0.137291 -0.00118753 -4.92233)
(0.138221 0.000584928 -4.90038)
(0.139132 0.00227996 -4.87854)
(0.140013 0.00389036 -4.85687)
(0.140854 0.00540432 -4.83541)
(0.141675 0.00683237 -4.81419)
(0.14248 0.0081711 -4.79323)
(0.143254 0.00941977 -4.77256)
(0.143995 0.0105748 -4.7522)
(0.144705 0.0116411 -4.73218)
(0.145392 0.0126234 -4.71252)
(0.14606 0.0135265 -4.69324)
(0.146717 0.0143566 -4.67436)
(0.147373 0.0151199 -4.65588)
(0.148034 0.015823 -4.63781)
(0.148709 0.016473 -4.62015)
(0.149407 0.0170771 -4.60291)
(0.150135 0.0176427 -4.58607)
(0.1509 0.018177 -4.56963)
(0.151708 0.0186871 -4.55359)
(0.152565 0.0191799 -4.53792)
(0.153476 0.0196619 -4.52261)
(0.154444 0.0201391 -4.50765)
(0.155473 0.0206172 -4.49302)
(0.156566 0.0211012 -4.47871)
(0.157723 0.0215957 -4.46469)
(0.158947 0.0221045 -4.45096)
(0.160237 0.0226309 -4.43749)
(0.161594 0.0231777 -4.42428)
(0.163018 0.0237473 -4.41129)
(0.164507 0.0243413 -4.39853)
(0.16606 0.0249612 -4.38598)
(0.167675 0.0256078 -4.37362)
(0.169352 0.026282 -4.36145)
(0.171087 0.0269841 -4.34946)
(0.17288 0.0277145 -4.33763)
(0.174728 0.0284732 -4.32597)
(0.17663 0.0292602 -4.31446)
(0.178584 0.0300756 -4.30311)
(0.180588 0.0309194 -4.2919)
(0.182641 0.0317916 -4.28083)
(0.184741 0.0326924 -4.26991)
(0.186887 0.033622 -4.25913)
(0.189078 0.0345807 -4.24849)
(0.191313 0.0355693 -4.23799)
(0.193591 0.0365884 -4.22763)
(0.195913 0.0376391 -4.21741)
(0.198276 0.0387227 -4.20734)
(0.200683 0.0398408 -4.19741)
(0.203132 0.0409956 -4.18764)
(0.205625 0.0421893 -4.17801)
(0.208162 0.0434249 -4.16854)
(0.210744 0.0447059 -4.15923)
(0.213374 0.0460364 -4.15008)
(0.216053 0.0474214 -4.14109)
(0.218786 0.0488666 -4.13226)
(0.221573 0.0503786 -4.1236)
(0.224419 0.0519652 -4.11511)
(0.227332 0.0536367 -4.10676)
(0.230324 0.055407 -4.09855)
(0.233405 0.0572903 -4.09055)
(0.236584 0.0593012 -4.08267)
(0.239838 0.0614411 -4.07488)
(0.243142 0.0637097 -4.06719)
(0.246467 0.066109 -4.05958)
(0.249786 0.0686432 -4.05206)
(0.253058 0.071318 -4.04462)
(0.25623 0.0741391 -4.03729)
(0.259247 0.0771099 -4.03003)
(0.262058 0.0802304 -4.02276)
(0.264649 0.0834964 -4.01568)
(0.266785 0.0869974 -4.00926)
(0.267526 0.0907387 -4.00426)
(0.266989 0.0945982 -3.99823)
(0.267607 0.0967616 -3.98775)
)
;
    }
}


// ************************************************************************* //
