/*--------------------------------*- C++ -*----------------------------------*\
| =========                 |                                                 |
| \\      /  F ield         | OpenFOAM: The Open Source CFD Toolbox           |
|  \\    /   O peration     | Version:  5.x                                   |
|   \\  /    A nd           | Web:      www.OpenFOAM.org                      |
|    \\/     M anipulation  |                                                 |
\*---------------------------------------------------------------------------*/
FoamFile
{
    version     2.0;
    format      ascii;
    class       surfaceScalarField;
    location    "0.09";
    object      phi;
}
// * * * * * * * * * * * * * * * * * * * * * * * * * * * * * * * * * * * * * //

dimensions      [0 3 -1 0 0 0 0];

internalField   nonuniform List<scalar> 
5825
(
-1.91504e-16
-5.02177e-17
-1e-09
-1.25576e-16
-2.57086e-17
-1e-09
-1.07275e-16
-5.22115e-17
-1e-09
-5.87081e-17
-3.37033e-17
-1e-09
-4.80833e-17
-1e-09
-1.67716e-16
-4.73812e-17
-1e-09
-1.528e-16
-6.56619e-17
-1e-09
-8.92509e-17
-5.74831e-17
-1e-09
-7.31821e-17
-1.06141e-16
-1e-09
-9.55824e-17
-1e-09
-1.86572e-16
-4.8482e-17
-1e-09
-1.44168e-16
-8.81131e-17
-1e-09
-1.37857e-16
-1.3987e-16
-1e-09
-6.28432e-17
-1.243e-16
-1e-09
-1.4272e-16
-1e-09
-2.26202e-16
-4.43339e-17
-1e-09
-1.94777e-16
-1.2246e-16
-1e-09
-1.22046e-16
-1.5298e-16
-1e-09
-8.13394e-17
-1.89059e-16
-1e-09
-1.91353e-16
-1e-09
-3.12396e-16
-1e-09
-2.26184e-16
-1e-09
-1.58617e-16
-1e-09
-8.45082e-17
-1e-09
-1e-09
-4.84142e-16
-1.06941e-16
-1e-09
-4.01995e-16
-7.92417e-17
-1e-09
-2.93275e-16
-1.09775e-16
-1e-09
-1.60306e-16
-1.14635e-16
-1e-09
-1.28201e-16
-1e-09
-4.58891e-16
-1.13912e-16
-1e-09
-4.34769e-16
-1.85295e-16
-1e-09
-2.9889e-16
-1.99178e-16
-1e-09
-1.73885e-16
-2.48284e-16
-1e-09
-2.71051e-16
-1e-09
-5.31707e-16
-1.83744e-16
-1e-09
-4.46779e-16
-2.71193e-16
-1e-09
-3.47602e-16
-3.4662e-16
-1e-09
-1.97429e-16
-3.73305e-16
-1e-09
-3.86748e-16
-1e-09
-6.16133e-16
-2.09592e-16
-1e-09
-5.19985e-16
-3.49966e-16
-1e-09
-3.73699e-16
-4.44006e-16
-1e-09
-2.11613e-16
-4.90631e-16
-1e-09
-5.02316e-16
-1e-09
-7.99822e-16
-1e-09
-6.20456e-16
-1e-09
-4.2044e-16
-1e-09
-2.23424e-16
-1e-09
-1e-09
-9.23353e-16
-1.82054e-16
-9.99999e-10
-7.98674e-16
-1.99896e-16
-1e-09
-5.98118e-16
-2.28488e-16
-1e-09
-3.14457e-16
-2.33078e-16
-1e-09
-2.55729e-16
-1e-09
-9.44712e-16
-3.14081e-16
-9.99999e-10
-8.30079e-16
-3.74275e-16
-1e-09
-6.03664e-16
-4.15657e-16
-1e-09
-3.38118e-16
-4.63472e-16
-1e-09
-4.67833e-16
-1e-09
-1.00171e-15
-5.57434e-16
-1e-09
-8.68893e-16
-6.00971e-16
-1e-09
-6.51053e-16
-6.52685e-16
-1e-09
-3.43948e-16
-6.69124e-16
-1e-09
-6.62882e-16
-1e-09
-1.03468e-15
-6.83629e-16
-1e-09
-9.17745e-16
-7.50972e-16
-1e-09
-6.67563e-16
-8.19815e-16
-1e-09
-3.39745e-16
-8.45026e-16
-1e-09
-8.7534e-16
-1e-09
-1.13708e-15
-1e-09
-9.98453e-16
-1e-09
-6.93004e-16
-1e-09
-3.69094e-16
-1e-09
-1e-09
-1.55523e-15
-3.30588e-16
-9.99999e-10
-1.33379e-15
-3.48473e-16
-1e-09
-9.84177e-16
-3.85478e-16
-1e-09
-5.0888e-16
-3.88796e-16
-1e-09
-3.98491e-16
-1e-09
-1.57747e-15
-6.43715e-16
-9.99999e-10
-1.37394e-15
-6.77812e-16
-1e-09
-9.89828e-16
-7.00483e-16
-1e-09
-5.19927e-16
-7.15448e-16
-1e-09
-7.11042e-16
-1e-09
-1.60591e-15
-1.0438e-15
-9.99999e-10
-1.39419e-15
-1.02989e-15
-1e-09
-1.00462e-15
-1.03237e-15
-1e-09
-5.17226e-16
-1.03678e-15
-1e-09
-1.02401e-15
-1e-09
-1.56165e-15
-1.3601e-15
-1e-09
-1.39455e-15
-1.29903e-15
-1e-09
-1.00986e-15
-1.28292e-15
-1e-09
-5.0773e-16
-1.28244e-15
-1e-09
-1.31056e-15
-1e-09
-1.50329e-15
-1e-09
-1.39004e-15
-1e-09
-1.00688e-15
-1e-09
-5.35244e-16
-1e-09
-1e-09
-2.31736e-15
-5.40553e-16
-9.99998e-10
-1.99235e-15
-5.71248e-16
-9.99999e-10
-1.44703e-15
-5.89794e-16
-1e-09
-7.39006e-16
-5.81717e-16
-1e-09
-5.77419e-16
-1e-09
-2.35453e-15
-1.06761e-15
-9.99999e-10
-2.01502e-15
-1.06518e-15
-1e-09
-1.44234e-15
-1.0615e-15
-1e-09
-7.36798e-16
-1.06336e-15
-1e-09
-1.06634e-15
-1e-09
-2.3491e-15
-1.60774e-15
-9.99999e-10
-2.00937e-15
-1.54997e-15
-1e-09
-1.4445e-15
-1.54059e-15
-1e-09
-7.42577e-16
-1.53606e-15
-1e-09
-1.53173e-15
-1e-09
-2.25238e-15
-2.14556e-15
-1e-09
-1.99617e-15
-1.97116e-15
-1e-09
-1.44105e-15
-1.88057e-15
-1e-09
-7.42684e-16
-1.8767e-15
-1e-09
-1.89797e-15
-1e-09
-2.08794e-15
-1e-09
-1.91951e-15
-1e-09
-1.43474e-15
-1e-09
-7.66141e-16
-1e-09
-1e-09
-3.24218e-15
-8.1899e-16
-9.99998e-10
-2.77574e-15
-8.38827e-16
-9.99999e-10
-1.9964e-15
-8.38632e-16
-1e-09
-1.02874e-15
-8.39554e-16
-1e-09
-8.35873e-16
-1e-09
-3.26884e-15
-1.59773e-15
-9.99998e-10
-2.78174e-15
-1.57287e-15
-9.99999e-10
-2.0025e-15
-1.56474e-15
-1e-09
-1.02841e-15
-1.57617e-15
-1e-09
-1.57782e-15
-1e-09
-3.24387e-15
-2.31345e-15
-9.99999e-10
-2.77219e-15
-2.23497e-15
-1e-09
-2.01468e-15
-2.23452e-15
-1e-09
-1.03444e-15
-2.21842e-15
-1e-09
-2.23455e-15
-1e-09
-3.14965e-15
-2.97521e-15
-1e-09
-2.76701e-15
-2.79969e-15
-1e-09
-1.99969e-15
-2.68482e-15
-1e-09
-1.05651e-15
-2.69062e-15
-1e-09
-2.68676e-15
-1e-09
-2.98536e-15
-1e-09
-2.66299e-15
-1e-09
-2.00277e-15
-1e-09
-1.05645e-15
-1e-09
-1e-09
-4.42345e-15
-1.17825e-15
-9.99996e-10
-3.7727e-15
-1.18088e-15
-9.99998e-10
-2.73477e-15
-1.19878e-15
-9.99999e-10
-1.41816e-15
-1.19223e-15
-1e-09
-1.19071e-15
-1e-09
-4.43495e-15
-2.29213e-15
-9.99997e-10
-3.7999e-15
-2.2792e-15
-9.99999e-10
-2.73542e-15
-2.25338e-15
-1e-09
-1.4225e-15
-2.27576e-15
-1e-09
-2.2615e-15
-1e-09
-4.421e-15
-3.24754e-15
-9.99998e-10
-3.77454e-15
-3.16447e-15
-9.99999e-10
-2.75917e-15
-3.159e-15
-1e-09
-1.41402e-15
-3.12784e-15
-1e-09
-3.15286e-15
-1e-09
-4.32776e-15
-3.98795e-15
-9.99999e-10
-3.76836e-15
-3.84509e-15
-1e-09
-2.72921e-15
-3.74705e-15
-1e-09
-1.44662e-15
-3.73489e-15
-1e-09
-3.69999e-15
-1e-09
-4.16935e-15
-1e-09
-3.65814e-15
-1e-09
-2.71285e-15
-1e-09
-1.41752e-15
-1e-09
-1.00001e-09
-6.0492e-15
-1.68166e-15
-9.99995e-10
-5.15042e-15
-1.66638e-15
-9.99997e-10
-3.74012e-15
-1.67993e-15
-9.99999e-10
-1.94531e-15
-1.65522e-15
-1e-09
-1.64897e-15
-1e-09
-6.04581e-15
-3.21598e-15
-9.99996e-10
-5.1772e-15
-3.2038e-15
-9.99998e-10
-3.72531e-15
-3.15591e-15
-1e-09
-1.94645e-15
-3.16983e-15
-1e-09
-3.13692e-15
-1e-09
-6.03118e-15
-4.4831e-15
-9.99997e-10
-5.13134e-15
-4.38788e-15
-9.99999e-10
-3.74062e-15
-4.35558e-15
-1e-09
-1.92161e-15
-4.31774e-15
-1e-09
-4.33106e-15
-1e-09
-5.92362e-15
-5.31298e-15
-9.99998e-10
-5.09948e-15
-5.20137e-15
-1e-09
-3.7035e-15
-5.12517e-15
-1e-09
-1.94577e-15
-5.07903e-15
-1e-09
-5.03255e-15
-1e-09
-5.78188e-15
-1e-09
-5.01317e-15
-1e-09
-3.65284e-15
-1e-09
-1.90884e-15
-1.00001e-09
-1.00001e-09
-8.27772e-15
-2.34582e-15
-9.99993e-10
-7.02867e-15
-2.29592e-15
-9.99996e-10
-5.09821e-15
-2.28499e-15
-9.99999e-10
-2.6627e-15
-2.25638e-15
-1e-09
-2.23485e-15
-1e-09
-8.24449e-15
-4.40141e-15
-9.99994e-10
-7.03526e-15
-4.36924e-15
-9.99997e-10
-5.0821e-15
-4.31954e-15
-1e-09
-2.65226e-15
-4.30134e-15
-1e-09
-4.26478e-15
-1e-09
-8.20912e-15
-6.05712e-15
-9.99995e-10
-6.98751e-15
-5.96885e-15
-9.99998e-10
-5.06541e-15
-5.90591e-15
-1e-09
-2.62665e-15
-5.87784e-15
-1e-09
-5.86366e-15
-1e-09
-8.10744e-15
-7.05389e-15
-9.99997e-10
-6.92559e-15
-6.99019e-15
-1e-09
-5.03821e-15
-6.93791e-15
-1e-09
-2.62689e-15
-6.86179e-15
-1.00001e-09
-6.81148e-15
-1.00001e-09
-7.99628e-15
-1e-09
-6.86403e-15
-1e-09
-4.95914e-15
-1.00001e-09
-2.59156e-15
-1.00001e-09
-1.00001e-09
-1.12834e-14
-3.15186e-15
-9.9999e-10
-9.57718e-15
-3.08536e-15
-9.99995e-10
-6.95169e-15
-3.06331e-15
-9.99998e-10
-3.64505e-15
-3.0427e-15
-1e-09
-3.00623e-15
-1e-09
-1.12415e-14
-5.91048e-15
-9.99992e-10
-9.5777e-15
-5.86758e-15
-9.99996e-10
-6.94775e-15
-5.8284e-15
-9.99999e-10
-3.62348e-15
-5.77273e-15
-1e-09
-5.74811e-15
-1e-09
-1.11982e-14
-8.09059e-15
-9.99994e-10
-9.53984e-15
-8.03306e-15
-9.99998e-10
-6.89401e-15
-7.94772e-15
-1e-09
-3.6131e-15
-7.93147e-15
-1e-09
-7.88573e-15
-1.00001e-09
-1.11314e-14
-9.45355e-15
-9.99996e-10
-9.45592e-15
-9.40409e-15
-1e-09
-6.87907e-15
-9.34212e-15
-1e-09
-3.58589e-15
-9.25293e-15
-1.00001e-09
-9.18919e-15
-1.00001e-09
-1.10254e-14
-1e-09
-9.38645e-15
-1e-09
-6.78849e-15
-1.00001e-09
-3.54296e-15
-1.00001e-09
-1.00001e-09
-1.5382e-14
-4.16842e-15
-9.99987e-10
-1.30683e-14
-4.12522e-15
-9.99993e-10
-9.48826e-15
-4.10058e-15
-9.99998e-10
-4.98812e-15
-4.0897e-15
-1e-09
-4.04844e-15
-1e-09
-1.5373e-14
-7.89566e-15
-9.99989e-10
-1.30731e-14
-7.85508e-15
-9.99994e-10
-9.49978e-15
-7.81672e-15
-9.99999e-10
-4.96718e-15
-7.73764e-15
-1e-09
-7.72309e-15
-1e-09
-1.53347e-14
-1.07927e-14
-9.99991e-10
-1.30357e-14
-1.07672e-14
-9.99997e-10
-9.42309e-15
-1.06696e-14
-1e-09
-4.97128e-15
-1.06512e-14
-1.00001e-09
-1.05838e-14
-1.00001e-09
-1.53089e-14
-1.26503e-14
-9.99995e-10
-1.29406e-14
-1.26151e-14
-1e-09
-9.40665e-15
-1.25428e-14
-1.00001e-09
-4.92856e-15
-1.24677e-14
-1.00001e-09
-1.23817e-14
-1.00001e-09
-1.52108e-14
-1e-09
-1.28554e-14
-1.00001e-09
-9.32942e-15
-1.00001e-09
-4.87081e-15
-1.00001e-09
-1.00002e-09
-2.09883e-14
-5.56364e-15
-9.99983e-10
-1.78314e-14
-5.54339e-15
-9.99991e-10
-1.29409e-14
-5.5093e-15
-9.99997e-10
-6.81444e-15
-5.50133e-15
-1e-09
-5.46221e-15
-1e-09
-2.10136e-14
-1.05799e-14
-9.99985e-10
-1.7837e-14
-1.05333e-14
-9.99993e-10
-1.29633e-14
-1.04772e-14
-9.99999e-10
-6.80293e-15
-1.03921e-14
-1e-09
-1.03715e-14
-1.00001e-09
-2.09682e-14
-1.44483e-14
-9.99989e-10
-1.77828e-14
-1.44351e-14
-9.99996e-10
-1.28812e-14
-1.43316e-14
-1e-09
-6.80694e-15
-1.42965e-14
-1.00001e-09
-1.42184e-14
-1.00001e-09
-2.09521e-14
-1.68934e-14
-9.99994e-10
-1.76834e-14
-1.68846e-14
-1e-09
-1.28488e-14
-1.68297e-14
-1.00001e-09
-6.76218e-15
-1.67799e-14
-1.00001e-09
-1.66789e-14
-1.00002e-09
-2.08819e-14
-1e-09
-1.76199e-14
-1.00001e-09
-1.27965e-14
-1.00001e-09
-6.69897e-15
-1.00002e-09
-1.00002e-09
-2.8584e-14
-7.51394e-15
-9.99977e-10
-2.42786e-14
-7.48013e-15
-9.99988e-10
-1.762e-14
-7.42541e-15
-9.99996e-10
-9.28217e-15
-7.40877e-15
-1e-09
-7.36833e-15
-1.00001e-09
-2.86115e-14
-1.42306e-14
-9.9998e-10
-2.42776e-14
-1.41567e-14
-9.9999e-10
-1.76439e-14
-1.40774e-14
-9.99999e-10
-9.27853e-15
-1.39967e-14
-1.00001e-09
-1.39578e-14
-1.00001e-09
-2.85368e-14
-1.94547e-14
-9.99985e-10
-2.4202e-14
-1.94107e-14
-9.99995e-10
-1.75674e-14
-1.93027e-14
-1e-09
-9.27222e-15
-1.92492e-14
-1.00001e-09
-1.91669e-14
-1.00001e-09
-2.84835e-14
-2.26811e-14
-9.99992e-10
-2.40996e-14
-2.26802e-14
-1e-09
-1.75173e-14
-2.26434e-14
-1.00001e-09
-9.23459e-15
-2.26051e-14
-1.00002e-09
-2.25143e-14
-1.00002e-09
-2.84166e-14
-1e-09
-2.40611e-14
-1.00001e-09
-1.74788e-14
-1.00002e-09
-9.19526e-15
-1.00003e-09
-1.00003e-09
-3.88395e-14
-1.01752e-14
-9.99969e-10
-3.30031e-14
-1.01023e-14
-9.99983e-10
-2.39648e-14
-1.00208e-14
-9.99995e-10
-1.2619e-14
-9.99053e-15
-1e-09
-9.94471e-15
-1.00001e-09
-3.88503e-14
-1.91896e-14
-9.99973e-10
-3.29944e-14
-1.90809e-14
-9.99987e-10
-2.39891e-14
-1.89964e-14
-9.99999e-10
-1.26226e-14
-1.89266e-14
-1.00001e-09
-1.88705e-14
-1.00001e-09
-3.87425e-14
-2.62976e-14
-9.9998e-10
-3.29149e-14
-2.62114e-14
-9.99994e-10
-2.39249e-14
-2.61115e-14
-1.00001e-09
-1.26107e-14
-2.6053e-14
-1.00002e-09
-2.59694e-14
-1.00002e-09
-3.8648e-14
-3.07146e-14
-9.99989e-10
-3.282e-14
-3.06826e-14
-1e-09
-2.38706e-14
-3.06516e-14
-1.00002e-09
-1.25873e-14
-3.06131e-14
-1.00002e-09
-3.05355e-14
-1.00003e-09
-3.85651e-14
-1e-09
-3.27907e-14
-1.00001e-09
-2.38351e-14
-1.00003e-09
-1.25805e-14
-1.00004e-09
-1.00004e-09
-5.27687e-14
-1.37522e-14
-9.99958e-10
-4.48841e-14
-1.36478e-14
-9.99977e-10
-3.26177e-14
-1.35511e-14
-9.99994e-10
-1.71693e-14
-1.35125e-14
-1.00001e-09
-1.34648e-14
-1.00001e-09
-5.2779e-14
-2.5958e-14
-9.99963e-10
-4.48867e-14
-2.58331e-14
-9.99982e-10
-3.26526e-14
-2.57608e-14
-9.99999e-10
-1.7189e-14
-2.57002e-14
-1.00001e-09
-2.56253e-14
-1.00002e-09
-5.26576e-14
-3.56426e-14
-9.99972e-10
-4.48213e-14
-3.55557e-14
-9.99992e-10
-3.25996e-14
-3.54739e-14
-1.00001e-09
-1.71746e-14
-3.54092e-14
-1.00002e-09
-3.53049e-14
-1.00003e-09
-5.25676e-14
-4.17689e-14
-9.99986e-10
-4.47431e-14
-4.17407e-14
-1.00001e-09
-3.25402e-14
-4.17043e-14
-1.00002e-09
-1.71523e-14
-4.16396e-14
-1.00003e-09
-4.15149e-14
-1.00004e-09
-5.25206e-14
-1e-09
-4.4707e-14
-1.00002e-09
-3.24805e-14
-1.00004e-09
-1.71242e-14
-1.00005e-09
-1.00006e-09
-7.18553e-14
-1.86013e-14
-9.99942e-10
-6.11713e-14
-1.84915e-14
-9.99969e-10
-4.44781e-14
-1.83942e-14
-9.99992e-10
-2.34137e-14
-1.83443e-14
-1.00001e-09
-1.82939e-14
-1.00002e-09
-7.19003e-14
-3.52916e-14
-9.99949e-10
-6.12092e-14
-3.51411e-14
-9.99976e-10
-4.45274e-14
-3.5046e-14
-9.99999e-10
-2.34554e-14
-3.49665e-14
-1.00002e-09
-3.48479e-14
-1.00002e-09
-7.17531e-14
-4.8529e-14
-9.99963e-10
-6.11244e-14
-4.84067e-14
-9.99989e-10
-4.44583e-14
-4.82789e-14
-1.00001e-09
-2.34202e-14
-4.8159e-14
-1.00003e-09
-4.79882e-14
-1.00004e-09
-7.16232e-14
-5.7014e-14
-9.99981e-10
-6.10004e-14
-5.69034e-14
-1.00001e-09
-4.4345e-14
-5.67682e-14
-1.00003e-09
-2.33612e-14
-5.66082e-14
-1.00005e-09
-5.63751e-14
-1.00006e-09
-7.14992e-14
-1e-09
-6.08688e-14
-1.00003e-09
-4.41932e-14
-1.00005e-09
-2.32592e-14
-1.00007e-09
-1.00008e-09
-9.80969e-14
-2.52903e-14
-9.99922e-10
-8.35134e-14
-2.51589e-14
-9.99959e-10
-6.07243e-14
-2.50357e-14
-9.9999e-10
-3.19711e-14
-2.49506e-14
-1.00001e-09
-2.48773e-14
-1.00003e-09
-9.81753e-14
-4.81649e-14
-9.99932e-10
-8.35735e-14
-4.79004e-14
-9.99968e-10
-6.07736e-14
-4.76893e-14
-1e-09
-3.20235e-14
-4.75347e-14
-1.00002e-09
-4.73384e-14
-1.00003e-09
-9.79138e-14
-6.62954e-14
-9.9995e-10
-8.33766e-14
-6.59529e-14
-9.99986e-10
-6.06333e-14
-6.56435e-14
-1.00002e-09
-3.19413e-14
-6.53989e-14
-1.00004e-09
-6.51199e-14
-1.00005e-09
-9.75565e-14
-7.79566e-14
-9.99974e-10
-8.30713e-14
-7.75127e-14
-1.00001e-09
-6.03973e-14
-7.71242e-14
-1.00004e-09
-3.18139e-14
-7.67993e-14
-1.00006e-09
-7.64455e-14
-1.00008e-09
-9.70917e-14
-1e-09
-8.26926e-14
-1.00004e-09
-6.00871e-14
-1.00007e-09
-3.16393e-14
-1.00009e-09
-1.0001e-09
-1.33989e-13
-3.45173e-14
-9.99894e-10
-1.14024e-13
-3.42851e-14
-9.99945e-10
-8.28934e-14
-3.40723e-14
-9.99987e-10
-4.36463e-14
-3.39204e-14
-1.00002e-09
-3.37883e-14
-1.00004e-09
-1.34043e-13
-6.57007e-14
-9.99908e-10
-1.14058e-13
-6.52156e-14
-9.99958e-10
-8.29238e-14
-6.4802e-14
-1e-09
-4.36848e-14
-6.45122e-14
-1.00003e-09
-6.42137e-14
-1.00005e-09
-1.33567e-13
-9.04144e-14
-9.99932e-10
-1.13663e-13
-8.9706e-14
-9.99982e-10
-8.26535e-14
-8.91123e-14
-1.00002e-09
-4.35417e-14
-8.86899e-14
-1.00006e-09
-8.82638e-14
-1.00007e-09
-1.32843e-13
-1.06238e-13
-9.99966e-10
-1.13072e-13
-1.05352e-13
-1.00001e-09
-8.22434e-14
-1.04634e-13
-1.00006e-09
-4.33217e-14
-1.04093e-13
-1.00009e-09
-1.03577e-13
-1.0001e-09
-1.31934e-13
-1e-09
-1.12367e-13
-1.00005e-09
-8.1724e-14
-1.0001e-09
-4.30507e-14
-1.00013e-09
-1.00014e-09
-1.82802e-13
-4.70849e-14
-9.99857e-10
-1.55555e-13
-4.66687e-14
-9.99926e-10
-1.13087e-13
-4.63037e-14
-9.99984e-10
-5.95441e-14
-4.60554e-14
-1.00003e-09
-4.58277e-14
-1.00005e-09
-1.82776e-13
-8.94109e-14
-9.99875e-10
-1.55524e-13
-8.86223e-14
-9.99943e-10
-1.13085e-13
-8.79552e-14
-1e-09
-5.95475e-14
-8.74731e-14
-1.00004e-09
-8.70381e-14
-1.00007e-09
-1.82005e-13
-1.22917e-13
-9.99909e-10
-1.54878e-13
-1.21807e-13
-9.99976e-10
-1.1263e-13
-1.20875e-13
-1.00003e-09
-5.93238e-14
-1.2021e-13
-1.00008e-09
-1.19576e-13
-1.0001e-09
-1.80886e-13
-1.44232e-13
-9.99954e-10
-1.53949e-13
-1.42935e-13
-1.00002e-09
-1.11984e-13
-1.41854e-13
-1.00008e-09
-5.89712e-14
-1.41024e-13
-1.00012e-09
-1.40274e-13
-1.00014e-09
-1.7957e-13
-1.00001e-09
-1.5288e-13
-1.00007e-09
-1.11181e-13
-1.00013e-09
-5.85529e-14
-1.00017e-09
-1.00019e-09
-2.49211e-13
-6.41048e-14
-9.99806e-10
-2.1213e-13
-6.34374e-14
-9.99899e-10
-1.54252e-13
-6.28681e-14
-9.99979e-10
-8.12191e-14
-6.24813e-14
-1.00004e-09
-6.21265e-14
-1.00007e-09
-2.49073e-13
-1.21556e-13
-9.99831e-10
-2.12012e-13
-1.20343e-13
-9.99924e-10
-1.542e-13
-1.1935e-13
-1e-09
-8.11781e-14
-1.18602e-13
-1.00006e-09
-1.17961e-13
-1.00009e-09
-2.47888e-13
-1.66954e-13
-9.99876e-10
-2.11048e-13
-1.65332e-13
-9.99968e-10
-1.53489e-13
-1.63953e-13
-1.00005e-09
-8.0826e-14
-1.62934e-13
-1.0001e-09
-1.62014e-13
-1.00014e-09
-2.4626e-13
-1.95757e-13
-9.99938e-10
-2.09673e-13
-1.939e-13
-1.00003e-09
-1.52496e-13
-1.92302e-13
-1.00011e-09
-8.02908e-14
-1.91066e-13
-1.00016e-09
-1.90024e-13
-1.00019e-09
-2.4439e-13
-1.00001e-09
-2.08086e-13
-1.0001e-09
-1.51293e-13
-1.00018e-09
-7.97008e-14
-1.00023e-09
-1.00026e-09
-3.39856e-13
-8.71988e-14
-9.99736e-10
-2.89393e-13
-8.62047e-14
-9.99864e-10
-2.105e-13
-8.53629e-14
-9.99972e-10
-1.10843e-13
-8.47652e-14
-1.00005e-09
-8.42457e-14
-1.00009e-09
-3.39579e-13
-1.65308e-13
-9.9977e-10
-2.89164e-13
-1.63484e-13
-9.99897e-10
-2.10358e-13
-1.62003e-13
-1.00001e-09
-1.10751e-13
-1.60866e-13
-1.00008e-09
-1.59914e-13
-1.00013e-09
-3.37796e-13
-2.26947e-13
-9.99831e-10
-2.87722e-13
-2.24522e-13
-9.99957e-10
-2.09272e-13
-2.22455e-13
-1.00006e-09
-1.10195e-13
-2.20906e-13
-1.00014e-09
-2.19583e-13
-1.00019e-09
-3.3537e-13
-2.66066e-13
-9.99915e-10
-2.85661e-13
-2.63254e-13
-1.00004e-09
-2.07757e-13
-2.60801e-13
-1.00015e-09
-1.094e-13
-2.58948e-13
-1.00022e-09
-2.57478e-13
-1.00027e-09
-3.32548e-13
-1.00001e-09
-2.83218e-13
-1.00014e-09
-2.05947e-13
-1.00024e-09
-1.08549e-13
-1.00032e-09
-1.00036e-09
-4.63845e-13
-1.18668e-13
-9.9964e-10
-3.95115e-13
-1.17214e-13
-9.99815e-10
-2.87493e-13
-1.15968e-13
-9.99964e-10
-1.5141e-13
-1.15044e-13
-1.00007e-09
-1.14289e-13
-1.00013e-09
-4.63363e-13
-2.24998e-13
-9.99686e-10
-3.94698e-13
-2.22271e-13
-9.9986e-10
-2.87187e-13
-2.20002e-13
-1.00001e-09
-1.51239e-13
-2.18269e-13
-1.00012e-09
-2.16854e-13
-1.00018e-09
-4.60695e-13
-3.08792e-13
-9.9977e-10
-3.92483e-13
-3.05093e-13
-9.99943e-10
-2.85525e-13
-3.01929e-13
-1.00009e-09
-1.50367e-13
-2.99565e-13
-1.0002e-09
-2.97647e-13
-1.00026e-09
-4.57002e-13
-3.61971e-13
-9.99885e-10
-3.89327e-13
-3.57563e-13
-1.00006e-09
-2.83212e-13
-3.53742e-13
-1.0002e-09
-1.49173e-13
-3.50943e-13
-1.00031e-09
-3.48793e-13
-1.00036e-09
-4.52586e-13
-1.00002e-09
-3.85515e-13
-1.00019e-09
-2.8047e-13
-1.00033e-09
-1.4787e-13
-1.00043e-09
-1.00049e-09
-6.33533e-13
-1.61701e-13
-9.9951e-10
-5.39895e-13
-1.59514e-13
-9.99749e-10
-3.93002e-13
-1.57628e-13
-9.99953e-10
-2.07035e-13
-1.56196e-13
-1.0001e-09
-1.55071e-13
-1.00018e-09
-6.32662e-13
-3.06527e-13
-9.99573e-10
-5.39132e-13
-3.02417e-13
-9.99811e-10
-3.92409e-13
-2.98896e-13
-1.00001e-09
-2.06708e-13
-2.96236e-13
-1.00016e-09
-2.94143e-13
-1.00024e-09
-6.28634e-13
-4.20416e-13
-9.99688e-10
-5.35685e-13
-4.14751e-13
-9.99923e-10
-3.89849e-13
-4.09886e-13
-1.00012e-09
-2.05362e-13
-4.06284e-13
-1.00027e-09
-4.03486e-13
-1.00035e-09
-6.22978e-13
-4.92444e-13
-9.99844e-10
-5.30834e-13
-4.85566e-13
-1.00008e-09
-3.86321e-13
-4.79738e-13
-1.00028e-09
-2.03559e-13
-4.75542e-13
-1.00042e-09
-4.72326e-13
-1.0005e-09
-6.16097e-13
-1.00003e-09
-5.25016e-13
-1.00026e-09
-3.82205e-13
-1.00045e-09
-2.01506e-13
-1.00059e-09
-1.00067e-09
-8.65749e-13
-2.20598e-13
-9.99332e-10
-7.38265e-13
-2.17271e-13
-9.99659e-10
-5.37744e-13
-2.1436e-13
-9.99939e-10
-2.8342e-13
-2.12127e-13
-1.00014e-09
-2.10444e-13
-1.00026e-09
-8.64199e-13
-4.17965e-13
-9.99418e-10
-7.36876e-13
-4.11734e-13
-9.99743e-10
-5.36649e-13
-4.06291e-13
-1.00002e-09
-2.82827e-13
-4.02209e-13
-1.00023e-09
-3.99115e-13
-1.00034e-09
-8.58076e-13
-5.7264e-13
-9.99575e-10
-7.31537e-13
-5.64033e-13
-9.99897e-10
-5.3271e-13
-5.56635e-13
-1.00017e-09
-2.80764e-13
-5.51153e-13
-1.00037e-09
-5.46994e-13
-1.00048e-09
-8.49482e-13
-6.69653e-13
-9.9979e-10
-7.24163e-13
-6.5934e-13
-1.00011e-09
-5.27336e-13
-6.5062e-13
-1.00038e-09
-2.77979e-13
-6.44253e-13
-1.00058e-09
-6.39377e-13
-1.00068e-09
-8.39174e-13
-1.00004e-09
-7.15461e-13
-1.00035e-09
-5.2109e-13
-1.00062e-09
-2.74704e-13
-1.00081e-09
-1.00092e-09
-1.18361e-12
-3.01313e-13
-9.99088e-10
-1.01028e-12
-2.96231e-13
-9.99536e-10
-7.36653e-13
-2.91706e-13
-9.99921e-10
-3.88588e-13
-2.8822e-13
-1.0002e-09
-2.85696e-13
-1.00036e-09
-1.18092e-12
-5.70508e-13
-9.99207e-10
-1.00781e-12
-5.61056e-13
-9.99652e-10
-7.34708e-13
-5.5272e-13
-1.00003e-09
-3.87556e-13
-5.46423e-13
-1.00031e-09
-5.41738e-13
-1.00047e-09
-1.17162e-12
-7.80518e-13
-9.99423e-10
-9.99624e-13
-7.67575e-13
-9.99863e-10
-7.28617e-13
-7.56368e-13
-1.00024e-09
-3.84306e-13
-7.47902e-13
-1.00052e-09
-7.41582e-13
-1.00067e-09
-1.15869e-12
-9.10944e-13
-9.99716e-10
-9.8846e-13
-8.9568e-13
-1.00015e-09
-7.20317e-13
-8.82526e-13
-1.00052e-09
-3.79893e-13
-8.72712e-13
-1.00079e-09
-8.65381e-13
-1.00094e-09
-1.14345e-12
-1.00006e-09
-9.75348e-13
-1.00048e-09
-7.1069e-13
-1.00084e-09
-3.7478e-13
-1.00111e-09
-1.00126e-09
-1.61885e-12
-4.12079e-13
-9.98753e-10
-1.38381e-12
-4.04325e-13
-9.99367e-10
-1.01078e-12
-3.97316e-13
-9.99897e-10
-5.33937e-13
-3.91809e-13
-1.00029e-09
-3.87868e-13
-1.00051e-09
-1.61431e-12
-7.7979e-13
-9.98916e-10
-1.37957e-12
-7.65589e-13
-9.99525e-10
-1.00736e-12
-7.52822e-13
-1.00005e-09
-5.32056e-13
-7.42871e-13
-1.00044e-09
-7.3554e-13
-1.00065e-09
-1.6003e-12
-1.06509e-12
-9.99214e-10
-1.367e-12
-1.04568e-12
-9.99816e-10
-9.97715e-13
-1.02854e-12
-1.00033e-09
-5.26744e-13
-1.01524e-12
-1.00072e-09
-1.00553e-12
-1.00093e-09
-1.58091e-12
-1.24066e-12
-9.99617e-10
-1.34992e-12
-1.21768e-12
-1.00021e-09
-9.84685e-13
-1.19764e-12
-1.00072e-09
-5.19706e-13
-1.18245e-12
-1.00109e-09
-1.17143e-12
-1.00129e-09
-1.55801e-12
-1.00008e-09
-1.32999e-12
-1.00066e-09
-9.69813e-13
-1.00116e-09
-5.11781e-13
-1.00152e-09
-1.00172e-09
-2.21521e-12
-5.64212e-13
-9.9829e-10
-1.89781e-12
-5.52502e-13
-9.99132e-10
-1.39013e-12
-5.41522e-13
-9.99863e-10
-7.35827e-13
-5.32517e-13
-1.00041e-09
-5.26064e-13
-1.00072e-09
-2.2078e-12
-1.06822e-12
-9.98513e-10
-1.89053e-12
-1.04694e-12
-9.99349e-10
-1.38396e-12
-1.02713e-12
-1.00007e-09
-7.32239e-13
-1.01093e-12
-1.00061e-09
-9.99154e-13
-1.00091e-09
-2.18678e-12
-1.45561e-12
-9.98929e-10
-1.87099e-12
-1.42641e-12
-9.99753e-10
-1.36823e-12
-1.39994e-12
-1.00046e-09
-7.23343e-13
-1.37879e-12
-1.00099e-09
-1.36361e-12
-1.00128e-09
-2.1576e-12
-1.69192e-12
-9.99482e-10
-1.84461e-12
-1.65732e-12
-1.00029e-09
-1.34753e-12
-1.62701e-12
-1.00099e-09
-7.11973e-13
-1.60338e-12
-1.0015e-09
-1.58657e-12
-1.00178e-09
-2.12329e-12
-1.00012e-09
-1.81453e-12
-1.00091e-09
-1.32451e-12
-1.0016e-09
-6.99543e-13
-1.0021e-09
-1.00237e-09
-3.03325e-12
-7.7332e-13
-9.97645e-10
-2.60679e-12
-7.5533e-13
-9.98803e-10
-1.91822e-12
-7.37606e-13
-9.99814e-10
-1.01844e-12
-7.22286e-13
-1.00059e-09
-7.11368e-13
-1.00102e-09
-3.02096e-12
-1.46886e-12
-9.97949e-10
-2.59393e-12
-1.4367e-12
-9.99095e-10
-1.90679e-12
-1.40552e-12
-1.00009e-09
-1.01157e-12
-1.37834e-12
-1.00085e-09
-1.35858e-12
-1.00128e-09
-2.98925e-12
-1.99273e-12
-9.98539e-10
-2.5631e-12
-1.94859e-12
-9.99667e-10
-1.88036e-12
-1.9075e-12
-1.00064e-09
-9.96004e-13
-1.87304e-12
-1.00138e-09
-1.84863e-12
-1.00179e-09
-2.94517e-12
-2.31201e-12
-9.99299e-10
-2.522e-12
-2.26061e-12
-1.0004e-09
-1.84675e-12
-2.21547e-12
-1.00135e-09
-9.77148e-13
-2.17824e-12
-1.00207e-09
-2.15217e-12
-1.00246e-09
-2.89485e-12
-1.00019e-09
-2.47738e-12
-1.00127e-09
-1.81083e-12
-1.00221e-09
-9.57336e-13
-1.00289e-09
-1.00327e-09
-4.15691e-12
-1.05848e-12
-9.96739e-10
-3.58699e-12
-1.02951e-12
-9.98344e-10
-2.66047e-12
-9.99738e-13
-9.99741e-10
-1.41886e-12
-9.72666e-13
-1.00086e-09
-9.53651e-13
-1.00149e-09
-4.13548e-12
-2.03341e-12
-9.97132e-10
-3.56342e-12
-1.98404e-12
-9.98712e-10
-2.63882e-12
-1.93474e-12
-1.00008e-09
-1.40571e-12
-1.887e-12
-1.00117e-09
-1.85143e-12
-1.00178e-09
-4.08759e-12
-2.73217e-12
-9.9801e-10
-3.51457e-12
-2.664e-12
-9.9956e-10
-2.59236e-12
-2.5992e-12
-1.0009e-09
-1.37634e-12
-2.54062e-12
-1.00194e-09
-2.50002e-12
-1.00252e-09
-4.01962e-12
-3.17285e-12
-9.99039e-10
-3.44914e-12
-3.09677e-12
-1.00054e-09
-2.53561e-12
-3.03165e-12
-1.00183e-09
-1.34415e-12
-2.97139e-12
-1.00283e-09
-2.92954e-12
-1.00337e-09
-3.94786e-12
-1.00032e-09
-3.38521e-12
-1.00179e-09
-2.47858e-12
-1.00307e-09
-1.3112e-12
-1.00402e-09
-1.00453e-09
-5.70586e-12
-1.43589e-12
-9.95448e-10
-4.9445e-12
-1.38636e-12
-9.97719e-10
-3.72011e-12
-1.33509e-12
-9.9963e-10
-1.99576e-12
-1.28574e-12
-1.0013e-09
-1.25211e-12
-1.00223e-09
-5.66515e-12
-2.85249e-12
-9.95878e-10
-4.89843e-12
-2.77337e-12
-9.98091e-10
-3.67822e-12
-2.69637e-12
-9.99939e-10
-1.97143e-12
-2.6071e-12
-1.00156e-09
-2.53728e-12
-1.00247e-09
-5.59334e-12
-3.74075e-12
-9.97321e-10
-4.82345e-12
-3.62805e-12
-9.99475e-10
-3.59119e-12
-3.52297e-12
-1.00131e-09
-1.90957e-12
-3.41757e-12
-1.00282e-09
-3.34955e-12
-1.00362e-09
-5.48119e-12
-4.39243e-12
-9.98622e-10
-4.71375e-12
-4.27763e-12
-1.00066e-09
-3.4899e-12
-4.19134e-12
-1.00239e-09
-1.85484e-12
-4.0883e-12
-1.00379e-09
-4.01763e-12
-1.00456e-09
-5.38484e-12
-1.00059e-09
-4.63086e-12
-1.00259e-09
-3.39624e-12
-1.00435e-09
-1.79459e-12
-1.00566e-09
-1.00633e-09
-7.85979e-12
-1.91881e-12
-9.93538e-10
-6.81585e-12
-1.82992e-12
-9.96932e-10
-5.26952e-12
-1.74504e-12
-9.99431e-10
-2.84397e-12
-1.65223e-12
-1.00207e-09
-1.58933e-12
-1.00349e-09
-7.774e-12
-4.10229e-12
-9.93743e-10
-6.7171e-12
-3.95722e-12
-9.9702e-10
-5.18899e-12
-3.84141e-12
-9.99371e-10
-2.80701e-12
-3.66042e-12
-1.00193e-09
-3.51134e-12
-1.00336e-09
-7.66976e-12
-5.08541e-12
-9.96526e-10
-6.62211e-12
-4.88307e-12
-9.99596e-10
-5.01258e-12
-4.72134e-12
-1.00204e-09
-2.65412e-12
-4.52127e-12
-1.00431e-09
-4.40513e-12
-1.00538e-09
-7.45467e-12
-6.19167e-12
-9.97804e-10
-6.41857e-12
-6.00059e-12
-1.00058e-09
-4.82002e-12
-5.91371e-12
-1.0028e-09
-2.57562e-12
-5.71923e-12
-1.00484e-09
-5.59328e-12
-1.00595e-09
-7.34811e-12
-1.00119e-09
-6.3456e-12
-1.00395e-09
-4.65701e-12
-1.00636e-09
-2.43943e-12
-1.00821e-09
-1.00895e-09
-1.09039e-11
-2.5489e-12
-9.90479e-10
-9.34869e-12
-2.37348e-12
-9.96114e-10
-7.61662e-12
-2.24402e-12
-9.98919e-10
-4.11838e-12
-2.06146e-12
-1.00351e-09
-1.93423e-12
-1.00567e-09
-1.07205e-11
-6.11172e-12
-9.89737e-10
-9.12684e-12
-5.75568e-12
-9.95232e-10
-7.47117e-12
-5.60339e-12
-9.97667e-10
-4.09929e-12
-5.19784e-12
-1.00216e-09
-4.86102e-12
-1.00453e-09
-1.05624e-11
-6.91255e-12
-9.95748e-10
-9.0568e-12
-6.51889e-12
-1.00034e-09
-7.07468e-12
-6.32272e-12
-1.0033e-09
-3.65569e-12
-5.91464e-12
-1.00702e-09
-5.6894e-12
-1.0082e-09
-1.00857e-11
-9.01607e-12
-9.95958e-10
-8.64598e-12
-8.59374e-12
-9.9994e-10
-6.69616e-12
-8.61181e-12
-1.00246e-09
-3.62784e-12
-8.18514e-12
-1.00563e-09
-7.96168e-12
-1.0073e-09
-1.00573e-11
-1.00262e-09
-8.71408e-12
-1.00657e-09
-6.38351e-12
-1.00976e-09
-3.20409e-12
-1.01254e-09
-1.01275e-09
-1.52423e-11
-3.41961e-12
-9.85237e-10
-1.2814e-11
-3.01764e-12
-9.95525e-10
-1.13276e-11
-2.84779e-12
-9.97558e-10
-6.0771e-12
-2.47008e-12
-1.00629e-09
-2.20134e-12
-1.00955e-09
-1.48602e-11
-9.45063e-12
-9.82027e-10
-1.2368e-11
-8.40281e-12
-9.92339e-10
-1.1095e-11
-8.32972e-12
-9.93458e-10
-6.22727e-12
-7.35714e-12
-1.00215e-09
-6.54871e-12
-1.00641e-09
-1.46149e-11
-9.58714e-12
-9.95123e-10
-1.22826e-11
-8.7179e-12
-1.00236e-09
-1.01366e-11
-8.61426e-12
-1.00516e-09
-4.9527e-12
-7.70409e-12
-1.01185e-09
-7.19655e-12
-1.01251e-09
-1.35517e-11
-1.37539e-11
-9.9175e-10
-1.14526e-11
-1.24749e-11
-9.98282e-10
-9.3981e-12
-1.30552e-11
-1.00007e-09
-5.25365e-12
-1.19688e-11
-1.00551e-09
-1.16052e-11
-1.00815e-09
-1.39444e-11
-1.00569e-09
-1.19305e-11
-1.01201e-09
-8.73609e-12
-1.01553e-09
-3.87874e-12
-1.02046e-09
-1.018e-09
-2.12873e-11
-4.70168e-12
-9.75929e-10
-1.78104e-11
-3.70486e-12
-9.95297e-10
-1.73786e-11
-3.53101e-12
-9.94459e-10
-9.32974e-12
-2.73173e-12
-1.0116e-09
-2.17172e-12
-1.0167e-09
-2.04428e-11
-1.51334e-11
-9.67585e-10
-1.69708e-11
-1.22416e-11
-9.87274e-10
-1.70725e-11
-1.2574e-11
-9.84313e-10
-1.00829e-11
-1.02379e-11
-1.00163e-09
-8.24735e-12
-1.01042e-09
-2.02002e-11
-1.37072e-11
-9.95113e-10
-1.66329e-11
-1.17884e-11
-1.00638e-09
-1.4715e-11
-1.2068e-11
-1.00759e-09
-6.62044e-12
-1.00265e-11
-1.02016e-09
-8.69508e-12
-1.01868e-09
-1.78236e-11
-2.22599e-11
-9.82731e-10
-1.50254e-11
-1.8243e-11
-9.94625e-10
-1.33381e-11
-2.08246e-11
-9.93001e-10
-7.97332e-12
-1.79067e-11
-1.003e-09
-1.74233e-11
-1.00739e-09
-2.00242e-11
-1.01149e-09
-1.59931e-11
-1.02396e-09
-1.18197e-11
-1.02512e-09
-3.83108e-12
-1.03559e-09
-1.02442e-09
-2.95112e-11
-6.78888e-12
-9.58828e-10
-2.53847e-11
-4.30885e-12
-9.95114e-10
-2.75496e-11
-4.17999e-12
-9.88114e-10
-1.53304e-11
-2.56441e-12
-1.02126e-09
-1.44757e-12
-1.03059e-09
-2.75891e-11
-2.50035e-11
-9.4121e-10
-2.37642e-11
-1.7849e-11
-9.77559e-10
-2.74477e-11
-1.90941e-11
-9.65716e-10
-1.80272e-11
-1.37152e-11
-9.99899e-10
-8.6956e-12
-1.02119e-09
-2.77113e-11
-2.02187e-11
-9.97615e-10
-2.26449e-11
-1.6686e-11
-1.01261e-09
-2.15845e-11
-1.73243e-11
-1.01042e-09
-8.63843e-12
-1.32672e-11
-1.03355e-09
-9.27456e-12
-1.02674e-09
-2.21852e-11
-3.82472e-11
-9.64067e-10
-1.94011e-11
-2.73631e-11
-9.86732e-10
-1.91141e-11
-3.49369e-11
-9.75676e-10
-1.29041e-11
-2.76791e-11
-9.94797e-10
-2.70051e-11
-1.00257e-09
-3.02667e-11
-1.02109e-09
-2.14963e-11
-1.05016e-09
-1.55472e-11
-1.04174e-09
-1.35872e-12
-1.06585e-09
-1.03015e-09
-3.93707e-11
-1.11369e-11
-9.27451e-10
-3.6815e-11
-5.09002e-12
-9.9258e-10
-4.34306e-11
-5.18285e-12
-9.76315e-10
-2.5886e-11
-2.37907e-12
-1.03642e-09
2.30463e-13
-1.0567e-09
-3.60914e-11
-4.19285e-11
-8.9531e-10
-3.42624e-11
-2.54874e-11
-9.58991e-10
-4.59983e-11
-2.81723e-11
-9.30991e-10
-3.45461e-11
-1.70099e-11
-9.9672e-10
-4.31839e-12
-1.05119e-09
-3.65614e-11
-3.0307e-11
-1.00554e-09
-2.97766e-11
-2.55737e-11
-1.0193e-09
-3.10518e-11
-2.53014e-11
-1.01201e-09
-1.01219e-11
-1.87551e-11
-1.05274e-09
-6.87468e-12
-1.03431e-09
-2.46767e-11
-6.80829e-11
-9.26135e-10
-2.39881e-11
-4.22471e-11
-9.70747e-10
-2.77237e-11
-5.7491e-11
-9.3975e-10
-2.14953e-11
-4.3397e-11
-9.76383e-10
-4.08468e-11
-9.90089e-10
-4.77045e-11
-1.03569e-09
-2.76051e-11
-1.10667e-09
-1.98911e-11
-1.06896e-09
9.58384e-12
-1.1304e-09
-1.02959e-09
-6.68739e-11
-2.41173e-11
-8.40186e-10
-6.99116e-11
3.79536e-12
-9.93338e-10
-8.75934e-11
3.25926e-12
-9.61893e-10
-5.11977e-11
1.73079e-11
-1.09013e-09
1.58321e-11
-1.12373e-09
-5.73224e-11
-8.93457e-11
-7.98647e-10
-5.64125e-11