/*--------------------------------*- C++ -*----------------------------------*\
| =========                 |                                                 |
| \\      /  F ield         | OpenFOAM: The Open Source CFD Toolbox           |
|  \\    /   O peration     | Version:  5.x                                   |
|   \\  /    A nd           | Web:      www.OpenFOAM.org                      |
|    \\/     M anipulation  |                                                 |
\*---------------------------------------------------------------------------*/
FoamFile
{
    version     2.0;
    format      ascii;
    class       surfaceScalarField;
    location    "800";
    object      phi;
}
// * * * * * * * * * * * * * * * * * * * * * * * * * * * * * * * * * * * * * //

dimensions      [0 3 -1 0 0 0 0];

internalField   nonuniform List<scalar> 
89
(
-0.0250002
-0.0250002
-0.0250002
-0.0250001
-0.0250001
-0.0250001
-0.0250001
-0.0250001
-0.025
-0.025
-0.0249999
-0.0249997
-0.0249995
-0.0249992
-0.0249987
-0.024998
-0.0249971
-0.0249957
-0.0249937
-0.024991
-0.0249872
-0.024982
-0.024975
-0.0249653
-0.0249521
-0.0249341
-0.0249098
-0.0248768
-0.0248322
-0.024772
-0.0246909
-0.0245818
-0.0244349
-0.0242367
-0.0239683
-0.0236264
-0.0232224
-0.022816
-0.0224576
-0.0232609
-0.0232367
-0.0229598
-0.0225956
-0.0224744
-0.0228075
-0.0230307
-0.0228951
-0.0226163
-0.0225029
-0.022695
-0.0229744
-0.0229625
-0.0231237
-0.0232743
-0.0236954
-0.0240413
-0.0242981
-0.0244882
-0.024629
-0.024733
-0.02481
-0.0248652
-0.0249054
-0.0249346
-0.0249557
-0.0249707
-0.0249814
-0.0249888
-0.024994
-0.0249974
-0.0249997
-0.0250011
-0.0250019
-0.0250023
-0.0250025
-0.0250025
-0.0250023
-0.0250022
-0.025002
-0.0250017
-0.0250015
-0.0250013
-0.0250011
-0.0250009
-0.0250008
-0.0250006
-0.0250005
-0.0250004
-0.0250003
)
;

boundaryField
{
    inlet
    {
        type            calculated;
        value           uniform -0.0250002;
    }
    outlet
    {
        type            calculated;
        value           uniform 0.0250002;
    }
    repeat_boundary
    {
        type            calculated;
        value           uniform 0;
    }
    procBoundary3to1
    {
        type            processor;
        value           nonuniform List<scalar> 
90
(
1.75572e-08
3.02684e-08
4.605e-08
6.37354e-08
8.36518e-08
1.06291e-07
1.3215e-07
1.61702e-07
1.95403e-07
2.3365e-07
2.76726e-07
3.24718e-07
3.77395e-07
4.34048e-07
4.93329e-07
5.52734e-07
6.07642e-07
6.51081e-07
6.72343e-07
6.55391e-07
5.81249e-07
4.3404e-07
2.16834e-07
-2.99674e-07
-1.05737e-06
-2.20899e-06
-3.9112e-06
-6.38677e-06
-9.93829e-06
-1.49781e-05
-2.20689e-05
-3.19829e-05
-4.58209e-05
-6.53223e-05
-9.28453e-05
-0.000122032
-0.000149848
-0.000157429
-0.000144002
0.000321693
-1.08205e-05
-7.18838e-05
-0.000132701
-9.07964e-05
0.000128531
1.45069e-06
-0.000298958
-0.000453823
-0.000190787
8.29742e-06
7.6003e-05
-6.81121e-05
5.47523e-05
0.000263481
0.00030792
0.000259609
0.000202346
0.000156025
0.000120164
9.2521e-05
7.12683e-05
5.49562e-05
4.2409e-05
3.27509e-05
2.53121e-05
1.95792e-05
1.51585e-05
1.17476e-05
9.11452e-06
7.08048e-06
5.50797e-06
4.29113e-06
3.34845e-06
2.61726e-06
2.04938e-06
1.60771e-06
1.26362e-06
9.9506e-07
7.85028e-07
6.20443e-07
4.91238e-07
3.89663e-07
3.09752e-07
2.46896e-07
1.97537e-07
1.58929e-07
1.28913e-07
1.05732e-07
8.83341e-08
8.05324e-08
)
;
    }
    procBoundary3to2
    {
        type            processor;
        value           nonuniform List<scalar> 
90
(
-1.739e-08
-3.01635e-08
-4.62554e-08
-6.4781e-08
-8.65271e-08
-1.12702e-07
-1.44782e-07
-1.84564e-07
-2.34343e-07
-2.96986e-07
-3.7628e-07
-4.77091e-07
-6.05676e-07
-7.70114e-07
-9.80873e-07
-1.25154e-06
-1.59978e-06
-2.04863e-06
-2.62817e-06
-3.3777e-06
-4.34871e-06
-5.60855e-06
-7.24478e-06
-9.37053e-06
-1.21382e-05
-1.57464e-05
-2.04558e-05
-2.66092e-05
-3.46582e-05
-4.51982e-05
-5.9016e-05
-7.71596e-05
-0.000101075
-0.000132916
-0.000175513
-0.000219922
-0.000254103
-0.000249032
-0.000214497
0.000481644
-1.34407e-05
-0.000204996
-0.00023149
-3.0452e-05
0.000204585
0.000221765
0.000163307
0.00017506
7.73301e-05
0.000183783
0.000203449
5.62096e-05
0.000106511
-0.0001129
0.000113262
8.62776e-05
5.44662e-05
3.41119e-05
2.06344e-05
1.15449e-05
5.72021e-06
2.67055e-07
-2.15314e-06
-3.53786e-06
-4.26142e-06
-4.5262e-06
-4.49894e-06
-4.29705e-06
-3.99602e-06
-3.64357e-06
-3.27072e-06
-2.89811e-06
-2.53896e-06
-2.20147e-06
-1.89297e-06
-1.61757e-06
-1.37495e-06
-1.16388e-06
-9.82219e-07
-8.27281e-07
-6.9622e-07
-5.86202e-07
-4.94524e-07
-4.18686e-07
-3.56422e-07
-3.05699e-07
-2.64606e-07
-2.31216e-07
-2.04524e-07
-1.92407e-07
)
;
    }
}


// ************************************************************************* //
