FoamFile
{version 2.0; format ascii;class Cloud<passiveParticle>; location 0;object  positions;}
43
(
( -452.02 29.0472 99.738 ) 0 
( -416.73 479.597 99.8558 ) 0 
( -340.635 294.744 99.8918 ) 0 
( -86.7714 441.484 142.344 ) 0 
( -88.3432 53.6249 99.8193 ) 0 
( -498.757 341.603 218.889 ) 0 
( -284.252 445.414 251.365 ) 0 
( -142.115 254.085 99.8964 ) 0 
( -274.926 110.932 142.809 ) 0 
( -448.272 151.981 257.304 ) 0 
( -136.168 106.18 286.581 ) 0 
( -276.053 249.006 287.256 ) 0 
( -27.3799 287.062 260.243 ) 0 
( -310.037 75.5392 380.585 ) 0 
( -422.934 409.579 390.787 ) 0 
( -455.268 203.774 450.243 ) 0 
( -139.952 399.061 381.705 ) 0 
( -280.134 498.608 498.738 ) 0 
( -139.08 388.439 587.782 ) 0 
( -429.277 23.2804 532.26 ) 0 
( -282.332 299.37 480.588 ) 0 
( -108.843 202.153 459.793 ) 0 
( -484.2 421.8 580.568 ) 0 
( -57.9457 60.9522 617.695 ) 0 
( -388.284 225.823 637.353 ) 0 
( -247.286 102.052 568.494 ) 0 
( -313.71 405.385 683.677 ) 0 
( -180.512 231.935 705.05 ) 0 
( -497.688 76.8265 714.061 ) 0 
( -31.4093 385.435 756.223 ) 0 
( -306.452 23.717 742.688 ) 0 
( -350.862 213.012 833.317 ) 0 
( -209.127 350.882 863.206 ) 0 
( -121.66 71.7394 809.146 ) 0 
( -45.9814 239.465 894.076 ) 0 
( -258.957 103.037 972.722 ) 0 
( -381.224 452.665 865.844 ) 0 
( -483.304 307.438 957.92 ) 0 
( -477.04 110.624 992.653 ) 0 
( -12.1283 108.431 1045.44 ) 0 
( -98.131 377.918 1028.57 ) 0 
( -298.209 290.088 1031.59 ) 0 
( -146.661 220.537 1141.99 ) 0 
)
