FoamFile
{version 2.0; format ascii;class vectorField; location 0;object  v;}
43
(
( -3.32558e-05 -2.4967e-05 -5.43571e-05 )  
( -2.13411e-05 -1.09135e-05 -1.26417e-05 )  
( -3.02786e-05 -1.47357e-05 -2.80304e-05 )  
( 8.90879e-06 6.00852e-05 -0.000130313 )  
( -2.11621e-05 4.58181e-06 -5.64898e-05 )  
( -5.60193e-05 -5.15528e-05 -7.2453e-05 )  
( -6.23368e-05 -9.67216e-06 -9.39e-05 )  
( -4.78147e-05 -8.20956e-06 -4.85363e-05 )  
( -4.29687e-05 -2.18548e-06 -7.18611e-05 )  
( -4.95903e-05 -4.17404e-05 -8.42306e-05 )  
( -1.60983e-05 -3.24995e-06 -0.000115313 )  
( -2.23858e-05 -1.25631e-05 -0.000116827 )  
( -0.00011632 -4.1413e-05 -8.19134e-05 )  
( 3.72963e-05 7.04862e-06 -0.000168312 )  
( -3.21977e-05 -0.000123804 -0.000101166 )  
( 1.79696e-05 -9.01457e-06 -0.000160085 )  
( -4.08233e-05 -4.3906e-05 -8.20701e-05 )  
( 1.64634e-05 -0.000123187 -0.000299025 )  
( 1.72791e-05 -1.82379e-05 -0.000195521 )  
( 0.000101672 2.77451e-05 -0.00011349 )  
( -3.68519e-06 -3.46546e-05 -0.000158815 )  
( -1.66048e-05 -9.02427e-05 -8.10978e-05 )  
( 9.07048e-05 -6.83081e-05 -8.41898e-05 )  
( 7.01416e-05 -2.6375e-05 -0.000243084 )  
( 0.000109207 -8.45327e-05 -0.000186411 )  
( 9.01353e-05 -2.55401e-05 -0.00023552 )  
( 5.8199e-05 -9.32722e-05 -0.000106113 )  
( 0.000147178 5.96131e-06 -0.000210815 )  
( 1.28575e-05 -1.03687e-05 -0.000131564 )  
( 7.8746e-05 4.375e-05 -0.000176581 )  
( 6.32944e-05 5.46702e-05 -0.000183406 )  
( 7.48332e-05 -9.36726e-05 -0.000212197 )  
( 5.24326e-05 -1.36492e-05 -0.000116322 )  
( 0.000150877 -4.04633e-05 -0.000341749 )  
( -0.000136916 -8.76353e-05 -3.75412e-05 )  
( -2.47125e-05 -6.04122e-05 -0.000248321 )  
( 9.69935e-05 -4.33116e-05 -9.08029e-05 )  
( -3.78317e-06 -7.05922e-05 -0.000171881 )  
( -7.02234e-06 -3.67726e-05 -0.000117944 )  
( -0.000241511 -0.000109252 -0.000315998 )  
( -2.34255e-06 7.25505e-05 1.38521e-05 )  
( -0.000161164 -0.000114484 -0.000177815 )  
( -0.000171194 -0.000125292 -0.00025335 )  
)
