/*--------------------------------*- C++ -*----------------------------------*\
| =========                 |                                                 |
| \\      /  F ield         | OpenFOAM: The Open Source CFD Toolbox           |
|  \\    /   O peration     | Version:  5.x                                   |
|   \\  /    A nd           | Web:      www.OpenFOAM.org                      |
|    \\/     M anipulation  |                                                 |
\*---------------------------------------------------------------------------*/
FoamFile
{
    version     2.0;
    format      ascii;
    class       volVectorField;
    location    "600";
    object      stored_U;
}
// * * * * * * * * * * * * * * * * * * * * * * * * * * * * * * * * * * * * * //

dimensions      [0 1 -1 0 0 0 0];

internalField   nonuniform List<vector> 
90
(
(1.62038e-09 -2.48197e-09 -0.00099998)
(2.58286e-09 -4.55205e-09 -0.000999978)
(3.82514e-09 -7.07021e-09 -0.000999976)
(5.19333e-09 -9.86704e-09 -0.000999973)
(6.68774e-09 -1.30054e-08 -0.000999969)
(8.32029e-09 -1.65734e-08 -0.000999965)
(1.00908e-08 -2.06603e-08 -0.000999959)
(1.19788e-08 -2.53525e-08 -0.000999951)
(1.39362e-08 -3.07307e-08 -0.000999943)
(1.58769e-08 -3.68645e-08 -0.000999932)
(1.76634e-08 -4.3805e-08 -0.00099992)
(1.90867e-08 -5.15728e-08 -0.000999907)
(1.98403e-08 -6.01406e-08 -0.000999891)
(1.94829e-08 -6.94073e-08 -0.000999874)
(1.73896e-08 -7.91611e-08 -0.000999855)
(1.26879e-08 -8.90284e-08 -0.000999834)
(4.1886e-09 -9.84097e-08 -0.000999812)
(-9.73174e-09 -1.06378e-07 -0.00099979)
(-3.15815e-08 -1.11389e-07 -0.000999772)
(-6.47807e-08 -1.11171e-07 -0.000999759)
(-1.14049e-07 -1.02402e-07 -0.000999756)
(-1.85898e-07 -8.02598e-08 -0.00099977)
(-2.89258e-07 -3.78845e-08 -0.000999809)
(-4.36239e-07 3.42003e-08 -0.000999888)
(-6.4342e-07 1.49408e-07 -0.00100002)
(-9.33436e-07 3.26569e-07 -0.00100024)
(-1.33702e-06 5.91787e-07 -0.00100059)
(-1.89583e-06 9.81053e-07 -0.0010011)
(-2.6662e-06 1.54383e-06 -0.00100186)
(-3.72431e-06 2.3479e-06 -0.00100295)
(-5.17299e-06 3.48595e-06 -0.00100451)
(-7.15124e-06 5.08497e-06 -0.00100676)
(-9.85145e-06 7.32124e-06 -0.00101014)
(-1.35762e-05 1.04657e-05 -0.00101482)
(-1.89299e-05 1.5059e-05 -0.00101724)
(-2.46863e-05 2.01769e-05 -0.00101102)
(-3.11458e-05 2.69397e-05 -0.00103818)
(-3.27969e-05 3.07905e-05 -0.00127135)
(-3.62765e-05 3.12729e-05 -0.000354608)
(7.51885e-05 -4.11508e-05 -0.00258516)
(-5.09897e-06 1.2307e-06 -0.00120362)
(-6.80817e-05 2.05423e-05 -0.0029764)
(-2.7759e-05 1.96833e-05 -0.00192314)
(-8.87346e-05 2.94704e-05 -0.0031866)
(-8.92439e-05 -3.58565e-05 -0.00225972)
(-9.37309e-05 -1.20549e-05 -0.00324868)
(-6.94691e-05 4.83293e-05 -0.0019736)
(-3.368e-05 0.00013584 -0.0033187)
(-1.53094e-06 3.53139e-05 -0.00233105)
(-6.93471e-05 -2.88057e-05 -0.00275691)
(-5.81978e-05 -4.069e-05 -0.00265771)
(-3.36902e-05 -1.13929e-05 -0.0016899)
(-1.06609e-05 1.64679e-05 -0.00247854)
(8.69191e-05 -3.85085e-05 -0.00109717)
(8.81163e-05 -5.43429e-05 -0.00107979)
(6.80456e-05 -4.4746e-05 -0.00109029)
(5.2577e-05 -3.42869e-05 -0.0010742)
(4.10062e-05 -2.62227e-05 -0.00105745)
(3.20378e-05 -2.00653e-05 -0.00104456)
(2.50545e-05 -1.5359e-05 -0.00103475)
(1.96156e-05 -1.17641e-05 -0.00102716)
(1.53768e-05 -9.0133e-06 -0.00102126)
(1.207e-05 -6.90882e-06 -0.00101666)
(9.4872e-06 -5.3002e-06 -0.00101308)
(7.46736e-06 -4.07064e-06 -0.00101028)
(5.88564e-06 -3.13024e-06 -0.00100809)
(4.64533e-06 -2.41032e-06 -0.00100638)
(3.67139e-06 -1.85856e-06 -0.00100504)
(2.90553e-06 -1.43516e-06 -0.00100398)
(2.30243e-06 -1.10984e-06 -0.00100315)
(1.82682e-06 -8.59518e-07 -0.0010025)
(1.45118e-06 -6.66596e-07 -0.00100198)
(1.15409e-06 -5.17668e-07 -0.00100158)
(9.1877e-07 -4.02506e-07 -0.00100125)
(7.3214e-07 -3.13309e-07 -0.001001)
(5.83946e-07 -2.44127e-07 -0.0010008)
(4.66201e-07 -1.90413e-07 -0.00100063)
(3.72585e-07 -1.48695e-07 -0.00100051)
(2.9816e-07 -1.16311e-07 -0.00100041)
(2.39037e-07 -9.12145e-08 -0.00100033)
(1.92142e-07 -7.18259e-08 -0.00100026)
(1.55039e-07 -5.6916e-08 -0.00100021)
(1.25789e-07 -4.55232e-08 -0.00100017)
(1.02846e-07 -3.68894e-08 -0.00100014)
(8.4977e-08 -3.04147e-08 -0.00100011)
(7.11967e-08 -2.56238e-08 -0.00100009)
(6.07084e-08 -2.21365e-08 -0.00100007)
(5.28247e-08 -1.96241e-08 -0.00100005)
(4.6993e-08 -1.77665e-08 -0.00100003)
(4.42473e-08 -1.68338e-08 -0.00100002)
)
;

boundaryField
{
    inlet
    {
        type            calculated;
        value           uniform (4.42473e-08 -1.68338e-08 -0.00100002);
    }
    outlet
    {
        type            calculated;
        value           uniform (1.62038e-09 -2.48197e-09 -0.00099998);
    }
    repeat_boundary
    {
        type            calculated;
        value           nonuniform List<vector> 
180
(
(1.62038e-09 0 -0.00099998)
(2.58286e-09 0 -0.000999978)
(3.82514e-09 0 -0.000999976)
(5.19333e-09 0 -0.000999973)
(6.68774e-09 0 -0.000999969)
(8.32029e-09 0 -0.000999965)
(1.00908e-08 0 -0.000999959)
(1.19788e-08 0 -0.000999951)
(1.39362e-08 0 -0.000999943)
(1.58769e-08 0 -0.000999932)
(1.76634e-08 0 -0.00099992)
(1.90867e-08 0 -0.000999907)
(1.98403e-08 0 -0.000999891)
(1.94829e-08 0 -0.000999874)
(1.73896e-08 0 -0.000999855)
(1.26879e-08 0 -0.000999834)
(4.1886e-09 0 -0.000999812)
(-9.73174e-09 0 -0.00099979)
(-3.15815e-08 0 -0.000999772)
(-6.47807e-08 0 -0.000999759)
(-1.14049e-07 0 -0.000999756)
(-1.85898e-07 0 -0.00099977)
(-2.89258e-07 0 -0.000999809)
(-4.36239e-07 0 -0.000999888)
(-6.4342e-07 0 -0.00100002)
(-9.33436e-07 0 -0.00100024)
(-1.33702e-06 0 -0.00100059)
(-1.89583e-06 0 -0.0010011)
(-2.6662e-06 0 -0.00100186)
(-3.72431e-06 0 -0.00100295)
(-5.17299e-06 0 -0.00100451)
(-7.15124e-06 0 -0.00100676)
(-9.85145e-06 0 -0.00101014)
(-1.35762e-05 0 -0.00101482)
(-1.89299e-05 0 -0.00101724)
(-2.46863e-05 0 -0.00101102)
(-3.11458e-05 0 -0.00103818)
(-3.27969e-05 0 -0.00127135)
(-3.62765e-05 0 -0.000354608)
(7.51885e-05 0 -0.00258516)
(-5.09897e-06 0 -0.00120362)
(-6.80817e-05 0 -0.0029764)
(-2.7759e-05 0 -0.00192314)
(-8.87346e-05 0 -0.0031866)
(-8.92439e-05 0 -0.00225972)
(-9.37309e-05 0 -0.00324868)
(-6.94691e-05 0 -0.0019736)
(-3.368e-05 0 -0.0033187)
(-1.53094e-06 0 -0.00233105)
(-6.93471e-05 0 -0.00275691)
(-5.81978e-05 0 -0.00265771)
(-3.36902e-05 0 -0.0016899)
(-1.06609e-05 0 -0.00247854)
(8.69191e-05 0 -0.00109717)
(8.81163e-05 0 -0.00107979)
(6.80456e-05 0 -0.00109029)
(5.2577e-05 0 -0.0010742)
(4.10062e-05 0 -0.00105745)
(3.20378e-05 0 -0.00104456)
(2.50545e-05 0 -0.00103475)
(1.96156e-05 0 -0.00102716)
(1.53768e-05 0 -0.00102126)
(1.207e-05 0 -0.00101666)
(9.4872e-06 0 -0.00101308)
(7.46736e-06 0 -0.00101028)
(5.88564e-06 0 -0.00100809)
(4.64533e-06 0 -0.00100638)
(3.67139e-06 0 -0.00100504)
(2.90553e-06 0 -0.00100398)
(2.30243e-06 0 -0.00100315)
(1.82682e-06 0 -0.0010025)
(1.45118e-06 0 -0.00100198)
(1.15409e-06 0 -0.00100158)
(9.1877e-07 0 -0.00100125)
(7.3214e-07 0 -0.001001)
(5.83946e-07 0 -0.0010008)
(4.66201e-07 0 -0.00100063)
(3.72585e-07 0 -0.00100051)
(2.9816e-07 0 -0.00100041)
(2.39037e-07 0 -0.00100033)
(1.92142e-07 0 -0.00100026)
(1.55039e-07 0 -0.00100021)
(1.25789e-07 0 -0.00100017)
(1.02846e-07 0 -0.00100014)
(8.4977e-08 0 -0.00100011)
(7.11967e-08 0 -0.00100009)
(6.07084e-08 0 -0.00100007)
(5.28247e-08 0 -0.00100005)
(4.6993e-08 0 -0.00100003)
(4.42473e-08 0 -0.00100002)
(0 -2.48197e-09 -0.00099998)
(0 -4.55205e-09 -0.000999978)
(0 -7.07021e-09 -0.000999976)
(0 -9.86704e-09 -0.000999973)
(0 -1.30054e-08 -0.000999969)
(0 -1.65734e-08 -0.000999965)
(0 -2.06603e-08 -0.000999959)
(0 -2.53525e-08 -0.000999951)
(0 -3.07307e-08 -0.000999943)
(0 -3.68645e-08 -0.000999932)
(0 -4.3805e-08 -0.00099992)
(0 -5.15728e-08 -0.000999907)
(0 -6.01406e-08 -0.000999891)
(0 -6.94073e-08 -0.000999874)
(0 -7.91611e-08 -0.000999855)
(0 -8.90284e-08 -0.000999834)
(0 -9.84097e-08 -0.000999812)
(0 -1.06378e-07 -0.00099979)
(0 -1.11389e-07 -0.000999772)
(0 -1.11171e-07 -0.000999759)
(0 -1.02402e-07 -0.000999756)
(0 -8.02598e-08 -0.00099977)
(0 -3.78845e-08 -0.000999809)
(0 3.42003e-08 -0.000999888)
(0 1.49408e-07 -0.00100002)
(0 3.26569e-07 -0.00100024)
(0 5.91787e-07 -0.00100059)
(0 9.81053e-07 -0.0010011)
(0 1.54383e-06 -0.00100186)
(0 2.3479e-06 -0.00100295)
(0 3.48595e-06 -0.00100451)
(0 5.08497e-06 -0.00100676)
(0 7.32124e-06 -0.00101014)
(0 1.04657e-05 -0.00101482)
(0 1.5059e-05 -0.00101724)
(0 2.01769e-05 -0.00101102)
(0 2.69397e-05 -0.00103818)
(0 3.07905e-05 -0.00127135)
(0 3.12729e-05 -0.000354608)
(0 -4.11508e-05 -0.00258516)
(0 1.2307e-06 -0.00120362)
(0 2.05423e-05 -0.0029764)
(0 1.96833e-05 -0.00192314)
(0 2.94704e-05 -0.0031866)
(0 -3.58565e-05 -0.00225972)
(0 -1.20549e-05 -0.00324868)
(0 4.83293e-05 -0.0019736)
(0 0.00013584 -0.0033187)
(0 3.53139e-05 -0.00233105)
(0 -2.88057e-05 -0.00275691)
(0 -4.069e-05 -0.00265771)
(0 -1.13929e-05 -0.0016899)
(0 1.64679e-05 -0.00247854)
(0 -3.85085e-05 -0.00109717)
(0 -5.43429e-05 -0.00107979)
(0 -4.4746e-05 -0.00109029)
(0 -3.42869e-05 -0.0010742)
(0 -2.62227e-05 -0.00105745)
(0 -2.00653e-05 -0.00104456)
(0 -1.5359e-05 -0.00103475)
(0 -1.17641e-05 -0.00102716)
(0 -9.0133e-06 -0.00102126)
(0 -6.90882e-06 -0.00101666)
(0 -5.3002e-06 -0.00101308)
(0 -4.07064e-06 -0.00101028)
(0 -3.13024e-06 -0.00100809)
(0 -2.41032e-06 -0.00100638)
(0 -1.85856e-06 -0.00100504)
(0 -1.43516e-06 -0.00100398)
(0 -1.10984e-06 -0.00100315)
(0 -8.59518e-07 -0.0010025)
(0 -6.66596e-07 -0.00100198)
(0 -5.17668e-07 -0.00100158)
(0 -4.02506e-07 -0.00100125)
(0 -3.13309e-07 -0.001001)
(0 -2.44127e-07 -0.0010008)
(0 -1.90413e-07 -0.00100063)
(0 -1.48695e-07 -0.00100051)
(0 -1.16311e-07 -0.00100041)
(0 -9.12145e-08 -0.00100033)
(0 -7.18259e-08 -0.00100026)
(0 -5.6916e-08 -0.00100021)
(0 -4.55232e-08 -0.00100017)
(0 -3.68894e-08 -0.00100014)
(0 -3.04147e-08 -0.00100011)
(0 -2.56238e-08 -0.00100009)
(0 -2.21365e-08 -0.00100007)
(0 -1.96241e-08 -0.00100005)
(0 -1.77665e-08 -0.00100003)
(0 -1.68338e-08 -0.00100002)
)
;
    }
    procBoundary1to0
    {
        type            processor;
        value           nonuniform List<vector> 
90
(
(1.6204e-09 -3.53398e-09 -0.000999992)
(2.58288e-09 -6.92819e-09 -0.000999991)
(3.82519e-09 -1.10158e-08 -0.00099999)
(5.19346e-09 -1.56445e-08 -0.000999988)
(6.68787e-09 -2.1007e-08 -0.000999986)
(8.32023e-09 -2.73707e-08 -0.000999982)
(1.00907e-08 -3.50671e-08 -0.000999978)
(1.19789e-08 -4.45101e-08 -0.000999971)
(1.39363e-08 -5.62143e-08 -0.000999963)
(1.58771e-08 -7.08307e-08 -0.000999952)
(1.76636e-08 -8.9182e-08 -0.000999938)
(1.90871e-08 -1.12311e-07 -0.000999919)
(1.98409e-08 -1.41542e-07 -0.000999895)
(1.94839e-08 -1.78562e-07 -0.000999863)
(1.73912e-08 -2.25521e-07 -0.000999822)
(1.26907e-08 -2.85167e-07 -0.000999769)
(4.19363e-09 -3.61004e-07 -0.000999701)
(-9.72271e-09 -4.57518e-07 -0.000999612)
(-3.15651e-08 -5.80607e-07 -0.000999496)
(-6.47507e-08 -7.37868e-07 -0.000999344)
(-1.13993e-07 -9.39135e-07 -0.000999145)
(-1.85796e-07 -1.19717e-06 -0.000998884)
(-2.8907e-07 -1.52855e-06 -0.000998543)
(-4.35896e-07 -1.95487e-06 -0.000998094)
(-6.428e-07 -2.50423e-06 -0.000997503)
(-9.32315e-07 -3.21331e-06 -0.000996726)
(-1.335e-06 -4.12995e-06 -0.000995703)
(-1.89216e-06 -5.31663e-06 -0.000994354)
(-2.65955e-06 -6.85506e-06 -0.000992575)
(-3.71228e-06 -8.85209e-06 -0.000990226)
(-5.15144e-06 -1.14477e-05 -0.000987122)
(-7.11412e-06 -1.48277e-05 -0.000983063)
(-9.79429e-06 -1.92528e-05 -0.00097786)
(-1.34961e-05 -2.51332e-05 -0.000970703)
(-1.86662e-05 -3.30221e-05 -0.000957718)
(-2.42513e-05 -4.1176e-05 -0.000940232)
(-3.07135e-05 -5.04887e-05 -0.000941475)
(-3.29445e-05 -5.30943e-05 -0.00106306)
(-3.83481e-05 -5.62301e-05 -0.000382112)
(8.29385e-05 0.000107405 -0.00195031)
(-6.73199e-06 -7.59524e-06 -0.00168881)
(-4.10665e-05 -6.46742e-05 -0.00155148)
(-3.40099e-05 -5.34922e-05 -0.00240085)
(-7.26567e-05 -5.2514e-05 -0.00215889)
(-9.53963e-05 -6.8023e-05 -0.00242393)
(-6.24725e-05 -2.37016e-05 -0.0018225)
(-7.59487e-05 3.75294e-05 -0.00259837)
(-3.30094e-05 7.00686e-05 -0.00174849)
(1.92149e-06 9.83763e-05 -0.0023426)
(-6.77383e-05 -7.55858e-06 -0.00228026)
(-5.40928e-05 -1.4077e-05 -0.00165826)
(-3.16971e-05 1.08678e-05 -0.00162037)
(-2.38612e-05 3.16895e-05 -0.00181813)
(1.24613e-05 4.06196e-06 -0.000987114)
(6.9507e-05 3.57459e-05 -0.000873866)
(6.72572e-05 3.24272e-05 -0.000907467)
(5.32422e-05 2.44795e-05 -0.000936265)
(4.14656e-05 1.80229e-05 -0.000951533)
(3.23101e-05 1.32362e-05 -0.000962443)
(2.52143e-05 9.69638e-06 -0.000970946)
(1.97095e-05 7.08228e-06 -0.000977542)
(1.54322e-05 5.15068e-06 -0.000982624)
(1.21027e-05 3.72742e-06 -0.000986538)
(9.50665e-06 2.68341e-06 -0.000989557)
(7.47894e-06 1.92063e-06 -0.000991887)
(5.89256e-06 1.36537e-06 -0.000993688)
(4.64949e-06 9.62699e-07 -0.000995083)
(3.67389e-06 6.71959e-07 -0.000996164)
(2.90704e-06 4.63093e-07 -0.000997003)
(2.30335e-06 3.13938e-07 -0.000997654)
(1.82737e-06 2.08166e-07 -0.000998161)
(1.45152e-06 1.33775e-07 -0.000998556)
(1.15429e-06 8.19736e-08 -0.000998864)
(9.18898e-07 4.63407e-08 -0.000999105)
(7.32219e-07 2.22048e-08 -0.000999293)
(5.83994e-07 6.18071e-09 -0.000999442)
(4.66231e-07 -4.07722e-09 -0.000999559)
(3.72603e-07 -1.03502e-08 -0.000999652)
(2.98172e-07 -1.38531e-08 -0.000999727)
(2.39044e-07 -1.54448e-08 -0.000999786)
(1.92147e-07 -1.57349e-08 -0.000999835)
(1.55042e-07 -1.51649e-08 -0.000999873)
(1.25791e-07 -1.40592e-08 -0.000999904)
(1.02847e-07 -1.26624e-08 -0.000999929)
(8.49775e-08 -1.11642e-08 -0.000999948)
(7.11969e-08 -9.71476e-09 -0.000999962)
(6.07081e-08 -8.43297e-09 -0.000999973)
(5.28233e-08 -7.39744e-09 -0.000999981)
(4.69949e-08 -6.59579e-09 -0.000999988)
(4.42477e-08 -6.16507e-09 -0.000999991)
)
;
    }
    procBoundary1to3
    {
        type            processor;
        value           nonuniform List<vector> 
90
(
(2.67238e-09 -2.48199e-09 -0.001)
(4.95897e-09 -4.55206e-09 -0.001)
(7.77064e-09 -7.07022e-09 -0.001)
(1.09705e-08 -9.86705e-09 -0.001)
(1.4689e-08 -1.30054e-08 -0.001)
(1.91177e-08 -1.65735e-08 -0.001)
(2.44981e-08 -2.06604e-08 -0.001)
(3.11366e-08 -2.53526e-08 -0.001)
(3.94199e-08 -3.07309e-08 -0.001)
(4.98432e-08 -3.68647e-08 -0.000999999)
(6.30405e-08 -4.38053e-08 -0.000999996)
(7.9825e-08 -5.15733e-08 -0.00099999)
(1.01242e-07 -6.01413e-08 -0.000999983)
(1.28638e-07 -6.94084e-08 -0.000999971)
(1.6375e-07 -7.9163e-08 -0.000999955)
(2.08827e-07 -8.90314e-08 -0.000999933)
(2.66785e-07 -9.84147e-08 -0.000999902)
(3.41411e-07 -1.06386e-07 -0.000999858)
(4.37643e-07 -1.11403e-07 -0.000999798)
(5.61928e-07 -1.11196e-07 -0.000999715)
(7.22706e-07 -1.02446e-07 -0.000999601)
(9.31052e-07 -8.03375e-08 -0.000999444)
(1.20149e-06 -3.8024e-08 -0.00099923)
(1.55297e-06 3.39476e-08 -0.000998938)
(2.01047e-06 1.48948e-07 -0.00099854)
(2.60685e-06 3.25726e-07 -0.000997997)
(3.38539e-06 5.9024e-07 -0.00099726)
(4.40299e-06 9.78207e-07 -0.000996261)
(5.73457e-06 1.5386e-06 -0.000994909)
(7.47881e-06 2.33829e-06 -0.000993079)
(9.766e-06 3.46858e-06 -0.000990605)
(1.27707e-05 5.05506e-06 -0.00098731)
(1.67385e-05 7.27597e-06 -0.000983085)
(2.20415e-05 1.03994e-05 -0.000977249)
(2.91396e-05 1.47961e-05 -0.000965638)
(3.70921e-05 2.00409e-05 -0.000945153)
(4.6027e-05 2.63239e-05 -0.000941672)
(5.12096e-05 3.09988e-05 -0.00111249)
(5.17334e-05 3.34795e-05 -0.000313441)
(-6.41238e-05 -4.17127e-05 -0.00210881)
(2.51365e-06 1.94593e-06 -0.00157068)
(3.62604e-05 1.00764e-05 -0.00164778)
(5.71697e-05 3.28864e-05 -0.00283494)
(-6.81845e-06 8.41813e-06 -0.00161942)
(-6.80187e-05 -3.93856e-05 -0.00269189)
(-6.29702e-05 -1.20037e-05 -0.00204984)
(-6.1353e-05 8.42801e-05 -0.00251182)
(-5.79902e-05 6.80234e-05 -0.00200566)
(-5.46788e-05 3.14231e-05 -0.00268218)
(-6.76708e-05 -2.58851e-05 -0.00163085)
(-9.48236e-05 -4.23048e-05 -0.00276756)
(-5.13673e-05 -1.73451e-05 -0.00112797)
(-6.52663e-05 -2.06808e-05 -0.00200094)
(4.17111e-06 -3.38939e-05 -0.00105482)
(-1.75295e-05 -4.89306e-05 -0.000951422)
(-1.12006e-05 -4.46838e-05 -0.00095502)
(-6.28397e-06 -3.48275e-05 -0.000975636)
(-3.17769e-06 -2.65692e-05 -0.000983589)
(-1.21714e-06 -2.02653e-05 -0.000988471)
(2.78979e-08 -1.54733e-05 -0.000992026)
(7.86684e-07 -1.18293e-05 -0.000994577)
(1.22342e-06 -9.05049e-06 -0.000996373)
(1.44016e-06 -6.93001e-06 -0.000997657)
(1.50744e-06 -5.31231e-06 -0.000998568)
(1.47842e-06 -4.07751e-06 -0.000999196)
(1.39145e-06 -3.13414e-06 -0.000999618)
(1.27318e-06 -2.41253e-06 -0.000999893)
(1.1414e-06 -1.85982e-06 -0.00100007)
(1.00759e-06 -1.43588e-06 -0.00100017)
(8.78842e-07 -1.11026e-06 -0.00100022)
(7.59248e-07 -8.59754e-07 -0.00100024)
(6.50883e-07 -6.66732e-07 -0.00100024)
(5.54487e-07 -5.17746e-07 -0.00100023)
(4.69949e-07 -4.02551e-07 -0.00100021)
(3.96641e-07 -3.13336e-07 -0.00100019)
(3.33647e-07 -2.44142e-07 -0.00100017)
(2.7987e-07 -1.90422e-07 -0.00100015)
(2.34244e-07 -1.487e-07 -0.00100013)
(1.95705e-07 -1.16314e-07 -0.00100011)
(1.63268e-07 -9.12163e-08 -0.0010001)
(1.36052e-07 -7.1827e-08 -0.00100009)
(1.13289e-07 -5.69166e-08 -0.00100008)
(9.43258e-08 -4.55234e-08 -0.00100007)
(7.86196e-08 -3.68896e-08 -0.00100006)
(6.57262e-08 -3.0415e-08 -0.00100005)
(5.52873e-08 -2.56237e-08 -0.00100004)
(4.7003e-08 -2.21353e-08 -0.00100004)
(4.05904e-08 -1.96194e-08 -0.00100003)
(3.58309e-08 -1.77718e-08 -0.00100002)
(3.358e-08 -1.68348e-08 -0.00100001)
)
;
    }
}


// ************************************************************************* //
