/*--------------------------------*- C++ -*----------------------------------*\
| =========                 |                                                 |
| \\      /  F ield         | OpenFOAM: The Open Source CFD Toolbox           |
|  \\    /   O peration     | Version:  5.x                                   |
|   \\  /    A nd           | Web:      www.OpenFOAM.org                      |
|    \\/     M anipulation  |                                                 |
\*---------------------------------------------------------------------------*/
FoamFile
{
    version     2.0;
    format      ascii;
    class       volScalarField;
    location    "6000";
    object      p;
}
// * * * * * * * * * * * * * * * * * * * * * * * * * * * * * * * * * * * * * //

dimensions      [0 2 -2 0 0 0 0];

internalField   nonuniform List<scalar> 
180
(
-23.1102
-50.3664
-52.9801
-51.0498
-53.5079
-58.2663
-61.7989
-64.7866
-65.0643
-64.2923
-67.1274
-73.448
-76.7015
-76.3833
-78.0779
-80.6722
-80.6568
-81.5886
-87.8884
-90.4054
-89.8781
-91.4195
-94.1327
-95.7687
-97.2341
-98.7806
-104.746
-112.805
-120.814
-128.587
-132.597
-135.015
-137.371
-139.933
-146.428
-150.685
-154.73
-157.812
-159.715
-165.581
-171.942
-178.369
-184.223
-186.819
-187.365
-188.209
-189.19
-189.813
-190.879
-191.939
-199.059
-206.358
-208.44
-207.461
-210.315
-214.708
-224.177
-232.726
-241.29
-247.91
-248.043
-245.062
-240.367
-239.716
-241.509
-239.069
-235.812
-232.267
-228.66
-224.758
-220.542
-222.876
-242.784
-253.919
-257.524
-261.393
-268.738
-285.935
-304.601
-320.13
-331.92
-344.695
-359.987
-374.877
-392.202
-411.747
-433.552
-456.524
-480.779
-506.659
-528.615
-552.047
-572.182
-589.274
-618.476
-653.579
-687.443
-741.453
-808.881
-883.326
-982.712
-1100.58
-1261.64
-1429.75
-1617.61
-1930.57
-2744.73
-3848.88
-4964.32
-5866.52
-6547.45
-7007.3
-7288.74
-7402.27
-7374.14
-7252.15
-7081.27
-6916.21
-6784.41
-6709.63
-6691.32
-6727.05
-6802.23
-6907.31
-7023.24
-7144.92
-7268.62
-7388.53
-7499.93
-7596.26
-7677.49
-7738.45
-7778.96
-7797.33
-7793.18
-7765.92
-7717.83
-7645.44
-7562.13
-7474.6
-7384.49
-7294.08
-7194.42
-7112.56
-7040.8
-6960.18
-6870.62
-6766.13
-6674
-6591.37
-6521.9
-6471.15
-6428.71
-6402.07
-6387.26
-6390.34
-6395.2
-6403.61
-6420.42
-6372.44
-6158.89
-5760.19
-5222.25
-4587.89
-3897.91
-3197.62
-2549.67
-2007.21
-1597.12
-1314.93
-1148.24
-1073.71
-1066.42
-1099.9
-1155.72
-1213.16
-1267.85
-1307.46
-1330.83
-1347.64
)
;

boundaryField
{
    inlet
    {
        type            zeroGradient;
    }
    outlet
    {
        type            fixedValue;
        value           uniform 0;
    }
    repeat_boundary
    {
        type            zeroGradient;
    }
    procBoundary0to1
    {
        type            processor;
        value           nonuniform List<scalar> 
180
(
-27.6793
-63.7478
-69.273
-67.0525
-62.3897
-59.3441
-64.3491
-70.4462
-72.8096
-73.2474
-77.6745
-83.6486
-89.4857
-94.5434
-100.036
-105.27
-104.833
-103.647
-101.164
-98.5982
-98.4424
-95.9936
-94.1729
-96.9137
-101.577
-101.64
-103.357
-115.184
-122.094
-122.553
-120.937
-123.96
-128.632
-133.214
-137.699
-140.643
-143.979
-144.685
-148.451
-159.17
-163.885
-166.171
-168.713
-169.908
-172.172
-175.689
-176.725
-176.932
-180.65
-183.806
-184.334
-183.873
-186.415
-192.108
-196.999
-201.877
-207.328
-212.583
-217.394
-219.883
-219.703
-219.701
-221.486
-223.218
-223.883
-222.779
-220.983
-218.92
-216.359
-213.761
-210.879
-210.841
-211.657
-212.682
-215.295
-215.97
-218.792
-220.875
-220.165
-220.213
-220.702
-221.077
-219.591
-214.692
-210.471
-207.273
-197.94
-184.622
-173.006
-158.071
-139.926
-119.102
-95.1288
-65.5746
-32.911
3.49885
45.6527
92.0374
142.712
197.6
256.174
315.586
377.907
432.671
481.854
485.62
436.623
306.103
112.358
-160.375
-494.757
-898.185
-1348.95
-1811.9
-2286.67
-2783.11
-3301.97
-3846.13
-4427.42
-5021.06
-5540.19
-6007.24
-6271.87
-6331.56
-6439.76
-6773.7
-7436.32
-8070.14
-8721.16
-9349.65
-9936.41
-10469.7
-10936.9
-11329.3
-11639.6
-11869.1
-12008.4
-12054.2
-11974.9
-11769
-11420.7
-10929.9
-10297.3
-9535.4
-8709.26
-7863.09
-7065.74
-6400.32
-5902.94
-5550.18
-5350.44
-5259.73
-5259.41
-5311.21
-5396.68
-5497.07
-5630.1
-5647.15
-5603.41
-5328.8
-4817.95
-4113.83
-3280.31
-2448.77
-1700.14
-1117
-674.195
-344.526
-141.471
-42.9091
-2.25483
1.17897
-26.1426
-62.7734
-107.289
-143.288
-167.201
-185.258
-184.597
-190.07
)
;
    }
    procBoundary0to2
    {
        type            processor;
        value           nonuniform List<scalar> 
180
(
-25.088
-59.0473
-65.1077
-67.1415
-69.5619
-69.8602
-69.053
-67.7237
-68.5067
-77.9194
-83.8851
-84.8577
-83.477
-81.2601
-80.5636
-80.9904
-79.91
-79.1681
-82.4112
-93.523
-106.707
-112.636
-112.562
-110.41
-114.792
-119.4
-120.198
-117.874
-115.37
-119.168
-140.415
-152.13
-155.476
-154.367
-149.688
-154.242
-180.614
-194.363
-195.265
-188.878
-185.861
-183.993
-182.242
-180.863
-185.77
-192.111
-193.529
-191.695
-192.309
-198.025
-204.44
-207.337
-210.762
-216.554
-219.098
-221.073
-225.599
-232.053
-238.305
-242.558
-244.902
-248.035
-254.32
-258.937
-264.647
-269.458
-272.506
-279.613
-286.765
-294.424
-300.201
-303.681
-312.838
-321.103
-330.841
-341.588
-346.83
-351.586
-366.926
-379.25
-385.961
-399.641
-425.103
-455.148
-474.557
-484.815
-502.306
-540.855
-576.29
-614.993
-668.617
-725.372
-757.87
-778.967
-804.604
-839.09
-900.234
-985.518
-1071.51
-1178.6
-1296.98
-1419.18
-1557.22
-1709.18
-1879.3
-2067.63
-2275.7
-2540.79
-2850.06
-3173.55
-3493.28
-3792.61
-4074.29
-4331.28
-4549.25
-4758.5
-4911.4
-5044.05
-5214.69
-5362.36
-5505.91
-5658.24
-5825.08
-5991.45
-6159.44
-6316.75
-6458.45
-6588.05
-6696.17
-6784.02
-6851.71
-6898.91
-6921.49
-6935.9
-6913.52
-6890.51
-6883.18
-6882.94
-6842.45
-6791
-6740.91
-6698.71
-6657.76
-6620.7
-6573.74
-6527.47
-6475.9
-6410.29
-6352.96
-6276
-6218.14
-6182.55
-6161.96
-6184.9
-6211.47
-6209.12
-6146.76
-5976
-5667.3
-5269.33
-4873.73
-4510.39
-4166.25
-3832.24
-3522.81
-3253.25
-3028.77
-2834.76
-2670.05
-2533.3
-2427.08
-2345.8
-2289.07
-2248.97
-2227.46
-2214.34
-2215.91
-2221.47
-2235.4
-2244.61
)
;
    }
}


// ************************************************************************* //
