/*--------------------------------*- C++ -*----------------------------------*\
| =========                 |                                                 |
| \\      /  F ield         | OpenFOAM: The Open Source CFD Toolbox           |
|  \\    /   O peration     | Version:  5.x                                   |
|   \\  /    A nd           | Web:      www.OpenFOAM.org                      |
|    \\/     M anipulation  |                                                 |
\*---------------------------------------------------------------------------*/
FoamFile
{
    version     2.0;
    format      ascii;
    class       volScalarField;
    location    "9000";
    object      p;
}
// * * * * * * * * * * * * * * * * * * * * * * * * * * * * * * * * * * * * * //

dimensions      [0 2 -2 0 0 0 0];

internalField   nonuniform List<scalar> 
180
(
-4.58713
-6.45693
-0.749469
5.29163
8.49417
13.3519
19.8886
26.113
31.2821
34.7271
37.4816
48.4637
62.4724
67.0357
65.3723
60.1735
63.8671
79.0657
84.9693
90.2073
97.3184
93.1809
81.5362
70.0945
61.5014
55.4406
55.9776
67.3801
71.7925
66.6904
68.5766
92.8152
107.191
108.399
104.079
105.23
114.67
127.198
140.018
154.656
162.391
168.098
181.373
190.016
195.722
206.849
220.986
228.869
237.358
247.362
253.823
259.267
265.684
276.33
289.857
295.996
303.544
313.775
323.223
331.628
338.441
347.05
362.148
375.279
389.759
402.347
408.398
414.192
424.221
437.883
449.914
461.137
470.158
478.721
488.491
497.153
503.895
513.572
522.906
529.287
538.502
550.238
559.299
565.98
572.669
578.796
586.817
592.276
596.929
601.644
606.434
612.171
615.044
618.202
618.112
621.614
628.179
630.608
638.016
644.729
654.741
664.153
675.736
686.102
699.385
709.482
721.775
720.741
707.371
711.304
718.36
717.903
716.932
726.901
740.205
755.295
765.332
776.003
785.415
795.293
805.632
815.531
824.908
832.725
839.891
845.206
850.652
854.223
855.309
856.748
857.512
859.554
863.516
868.08
876.015
883.165
893.458
899.336
901.818
902.715
906.553
911.907
920.573
929.444
941.143
951.108
965.831
976.71
992.027
1002.75
1016.22
1026.53
1036.87
1045.1
1051.88
1053.1
1053.64
1046.23
1049.05
1053.49
1053.11
1051.43
1046.36
1038.79
1027.17
1010.7
989.752
962.235
931.085
891.937
844.509
792.06
722.502
659.99
570.465
502.113
408.869
323.051
267.122
235.094
)
;

boundaryField
{
    inlet
    {
        type            zeroGradient;
    }
    outlet
    {
        type            fixedValue;
        value           uniform 0;
    }
    repeat_boundary
    {
        type            zeroGradient;
    }
    procBoundary3to1
    {
        type            processor;
        value           nonuniform List<scalar> 
180
(
8.02901
17.3944
25.1586
32.14
36.6294
39.9111
46.5393
57.2737
64.9268
72.0279
79.3524
91.1119
100.648
108.742
116.818
119.546
129.364
136.978
139.503
142.353
145.711
147.498
144.698
141.087
129.527
121.736
123.262
123.611
120.626
117.286
115.158
117.047
123.374
129.374
135.864
141.448
146.733
152.507
160.829
162.973
157.734
147.556
139.837
138.491
152.3
158.576
149.612
132.995
126.706
141.546
156.583
164.788
178.303
192.339
198.556
210.011
224.294
240.015
258.419
273.117
283.999
295.206
308.427
322.327
340.405
354.486
360.085
369.971
384.377
399.583
412.371
426.253
436.962
446.22
455.01
464.95
470.886
468.399
474.733
487.289
496.194
505.242
514.623
526.309
535.481
545.531
558.462
566.609
575.724
589.864
592.588
585.94
579.923
581.66
582.491
585.706
601.031
618.72
627.28
634.885
651.769
666.315
675.318
685.538
697.878
708.271
717.039
728.021
738.899
749.885
764.876
781.214
791.095
802.128
811.308
821.44
830.105
837.85
847.509
851.436
857.518
859.01
861.533
864.043
850.186
849.79
842.543
822.751
824.234
837.084
845.024
863.897
894.089
914.627
930.676
955.633
950.209
929.492
947.06
1021.36
1101.16
1165.26
1217.67
1265.77
1303.42
1342.38
1376.07
1400.21
1424.05
1445.9
1467.06
1480.87
1492.18
1499.64
1504.17
1505.29
1504.22
1502.12
1498.74
1494.73
1489.49
1484.33
1479.27
1475.34
1473.72
1474.51
1478.79
1486.64
1496.64
1510.25
1524.59
1543.02
1566.1
1588.72
1619.45
1657.89
1695.58
1743.33
1785.29
1799.52
)
;
    }
    procBoundary3to2
    {
        type            processor;
        value           nonuniform List<scalar> 
180
(
-7.75297
-8.01852
-2.32109
0.0997507
5.36264
11.8939
16.1958
26.1474
33.5464
38.0646
41.9189
47.8375
53.9145
55.7918
53.4666
58.0664
70.9957
76.5088
78.7117
81.7669
84.9519
85.7283
88.1832
90.8125
93.0284
96.8398
100.138
101.731
103.386
105.866
111.527
115.014
117.77
122.456
123.526
130.483
140.128
142.952
141.354
146.06
160.921
171.156
175.12
184.651
202.432
209.447
214.8
222.577
227.46
232.963
239.254
247.362
254.154
260.443
270.926
283.592
295.822
308.813
322.399
337.869
345.155
344.999
342.521
349.633
355.182
357.817
371.269
380.03
382.681
389.587
394.233
395.55
401.657
412.837
423.521
431.301
439.805
451.894
459.044
463.128
471.337
481.321
491.587
503.311
512.746
518.029
527.561
545.256
566.947
568.502
571.604
586.937
604.505
611.939
616.998
633.959
642.083
647.429
661.007
668.979
682.856
706.935
708.393
713.888
733.154
741.861
748.337
758.249
772.301
774.268
765.663
764.5
766.853
770.063
772.103
774.48
777.898
781.552
787.346
792.436
796.645
802.398
808.919
813.693
818.435
824.256
830.665
836.214
841.397
846.091
850.341
854.504
859.009
865.262
872.302
880.531
887.436
895.789
902.299
910.775
917.269
925.113
933.389
940.567
948.623
955.056
963.75
970.018
976.852
981.425
987.009
992.265
996.816
1003.41
1007.99
1015.43
1020.55
1030.6
1039
1053.35
1070.22
1091.3
1111.42
1145.75
1167.75
1209.48
1216.24
1188.46
1168.5
1162.63
1203.55
1252.51
1309.61
1365.78
1428.47
1485.89
1547.53
1619.77
1682.65
1700.48
)
;
    }
}


// ************************************************************************* //
