/*--------------------------------*- C++ -*----------------------------------*\
| =========                 |                                                 |
| \\      /  F ield         | OpenFOAM: The Open Source CFD Toolbox           |
|  \\    /   O peration     | Version:  5.x                                   |
|   \\  /    A nd           | Web:      www.OpenFOAM.org                      |
|    \\/     M anipulation  |                                                 |
\*---------------------------------------------------------------------------*/
FoamFile
{
    version     2.0;
    format      ascii;
    class       surfaceScalarField;
    location    "9000";
    object      phi;
}
// * * * * * * * * * * * * * * * * * * * * * * * * * * * * * * * * * * * * * //

dimensions      [0 3 -1 0 0 0 0];

internalField   nonuniform List<scalar> 
179
(
3.07579e+07
3.07572e+07
3.07565e+07
3.07566e+07
3.07565e+07
3.07561e+07
3.07551e+07
3.07551e+07
3.07565e+07
3.07585e+07
3.07613e+07
3.0769e+07
3.07794e+07
3.07926e+07
3.08075e+07
3.08242e+07
3.08453e+07
3.08709e+07
3.08986e+07
3.0928e+07
3.0959e+07
3.09888e+07
3.10149e+07
3.10379e+07
3.10542e+07
3.10714e+07
3.10877e+07
3.11043e+07
3.11188e+07
3.11331e+07
3.11489e+07
3.11599e+07
3.11697e+07
3.11783e+07
3.11873e+07
3.11948e+07
3.11975e+07
3.1196e+07
3.11911e+07
3.11825e+07
3.11728e+07
3.11643e+07
3.11527e+07
3.11367e+07
3.11201e+07
3.11027e+07
3.10811e+07
3.10578e+07
3.10351e+07
3.10117e+07
3.09852e+07
3.09556e+07
3.09277e+07
3.09003e+07
3.08704e+07
3.08373e+07
3.08056e+07
3.07747e+07
3.07463e+07
3.07148e+07
3.06838e+07
3.06532e+07
3.06212e+07
3.05885e+07
3.05556e+07
3.05227e+07
3.04922e+07
3.04609e+07
3.04315e+07
3.04009e+07
3.03702e+07
3.03386e+07
3.03076e+07
3.02745e+07
3.02358e+07
3.01927e+07
3.0146e+07
3.00943e+07
3.00344e+07
2.99686e+07
2.98942e+07
2.98116e+07
2.97259e+07
2.96432e+07
2.95688e+07
2.95087e+07
2.94695e+07
2.94496e+07
2.94458e+07
2.94556e+07
2.94798e+07
2.95175e+07
2.95647e+07
2.96206e+07
2.96793e+07
2.97397e+07
2.98072e+07
2.98781e+07
2.99528e+07
3.00279e+07
3.01071e+07
3.01885e+07
3.02772e+07
3.03631e+07
3.04522e+07
3.0547e+07
3.06463e+07
3.07474e+07
3.08487e+07
3.095e+07
3.10494e+07
3.11414e+07
3.12103e+07
3.12302e+07
3.11846e+07
3.10723e+07
3.08934e+07
3.06641e+07
3.03949e+07
3.01071e+07
2.98062e+07
2.95057e+07
2.92051e+07
2.89224e+07
2.8659e+07
2.84134e+07
2.82004e+07
2.80051e+07
2.7825e+07
2.76724e+07
2.7541e+07
2.74276e+07
2.73353e+07
2.72626e+07
2.7216e+07
2.71814e+07
2.7178e+07
2.72024e+07
2.72466e+07
2.73083e+07
2.73896e+07
2.74878e+07
2.76034e+07
2.7731e+07
2.78661e+07
2.80077e+07
2.8155e+07
2.83027e+07
2.845e+07
2.85906e+07
2.87281e+07
2.88524e+07
2.89742e+07
2.90784e+07
2.91772e+07
2.92598e+07
2.9338e+07
2.93976e+07
2.94508e+07
2.9478e+07
2.94932e+07
2.9476e+07
2.94384e+07
2.93625e+07
2.92571e+07
2.91062e+07
2.89183e+07
2.86813e+07
2.8407e+07
2.80903e+07
2.77467e+07
2.73811e+07
2.7019e+07
2.66638e+07
2.63468e+07
2.60703e+07
2.58695e+07
2.57313e+07
2.5647e+07
)
;

boundaryField
{
    inlet
    {
        type            calculated;
        value           uniform 2.56464e+07;
    }
    outlet
    {
        type            calculated;
        value           uniform -3.0759e+07;
    }
    repeat_boundary
    {
        type            calculated;
        value           uniform 0;
    }
    procBoundary3to1
    {
        type            processor;
        value           nonuniform List<scalar> 
180
(
-59.1739
-479.798
-739.308
-1688.22
-1843.99
-2094.86
-2513.99
-4410.44
-5905.71
-6302.71
-7206.07
-11060.3
-14515.2
-17578.9
-19435.3
-20862.6
-24619.5
-29448.3
-31850.3
-33685.6
-35859
-34536.3
-30971.9
-27784.5
-21076.7
-21060.9
-19045.5
-18531.7
-16623.3
-14734.9
-14092.2
-9490.41
-9120.7
-7404.59
-7223.1
-5834.7
-1489.2
1469.17
4108.96
6495.9
7374.28
6095.93
7294.58
10283.7
10303.9
11108.4
14171.1
16551.3
16793.2
18506.7
21101.1
24060.4
22439
21959.5
23278.3
25322.4
23731.6
22410.7
20705.8
22729.6
21873.7
21951.4
23799.9
24657.4
23575
23929.8
22982.2
23690.7
23077.7
23748.4
24864.8
26803.6
28056
31439.4
35980.2
38812.8
42087.5
45419.8
52343.1
57462.1
61695.1
67069.8
69137.3
70168.3
67631.6
63334.7
56571.5
48506.4
39377.2
31475.3
24993.6
17543.1
11264.6
7453.99
5066.5
2343.05
52.2757
-3369.98
-5453.22
-6576
-10420
-12492.9
-14660.4
-13914.3
-15343.6
-19306.5
-24837.5
-26607.9
-28365.9
-26722.5
-26389.1
-24648.7
-14388.8
13505.2
51101.9
93581
135050
167113
188404
194207
194104
184309
174991
150162
125347
103305
68389.8
49868.3
35145.2
9865.53
-8126.23
-21565.1
-37594.1
-51097.2
-71022.9
-75961.7
-100339
-120503
-132959
-143534
-157039
-169277
-183752
-194957
-202758
-212424
-220275
-226662
-228638
-229543
-226738
-221231
-215261
-204248
-195367
-183329
-172344
-155596
-137549
-114803
-91810.2
-63586
-33867.7
1441.04
39971.3
84339.8
132146
182922
234280
280246
321175
348097
360303
364530
340351
316507
251757
211487
169019
124276
)
;
    }
    procBoundary3to2
    {
        type            processor;
        value           nonuniform List<scalar> 
180
(
1152.04
1202.68
1419.94
1636.19
1943.79
2441.35
3599.72
4357.7
4464.92
4328.97
4428.67
3386.65
4044.82
4456.56
4453.29
4164.77
3602.11
3827.71
4118.02
4329.56
4823.57
4691.94
4899.97
4798.65
4776.76
3872.65
2698.26
1995.38
2061.44
465.531
-1678.92
-1496.39
-704.16
-1241.21
-1771.27
-1679.3
-1129.31
-49.342
793.944
2134.4
2315.88
2465.64
4229.77
5711.81
6300.93
6283.87
7500.78
6749.7
5917.01
4884.39
5383.24
5484.69
5543.58
5380.32
6659.48
7732.34
7990.09
8539.12
7690.28
8694.06
9142.94
8676.01
8217.03
7971.54
9344.49
9033.82
7495.47
7551.47
6342.59
6837.37
5904.13
4729.05
2948.04
1700.06
2721.07
4254.48
4645.14
6293.65
7538.05
8368.83
12688.7
15487.7
16554.6
12565.5
6715.51
-3163.11
-17355.3
-28629.2
-35642.9
-41209.9
-49175.3
-55266.6
-58514.4
-63282.5
-63757.2
-62807.2
-67575.1
-67457.7
-69254.2
-68508.6
-68856.5
-68878.9
-74059.2
-72001.4
-73712
-75442.6
-74535.8
-74512.8
-72901.1
-74590.8
-73017.4
-67294.7
-54552.1
-33388.6
-5493.68
18695
43880.5
62160.8
80849.4
93537.8
106799
116217
125555
132533
138119
142297
144537
145478
144922
142752
139560
134955
129933
123771
117566
110577
103788
96048.4
88835.3
81742.4
75798.2
71101.5
68107.9
67385.7
67656.5
70827.9
72984.9
78874
81374.5
88932
89232.5
96927.2
93496.9
100042
96541.8
100731
94174.3
96017.4
84352.6
87623.7
76552.9
80807
71505
74420.1
65416.4
66531
55809
54065
40024.4
36423.7
22438.5
17482.1
1853.99
-9323.11
-23347.3
-40085.4
-50956
-73214
-84783.1
-123629
)
;
    }
}


// ************************************************************************* //
