/*--------------------------------*- C++ -*----------------------------------*\
| =========                 |                                                 |
| \\      /  F ield         | OpenFOAM: The Open Source CFD Toolbox           |
|  \\    /   O peration     | Version:  5.x                                   |
|   \\  /    A nd           | Web:      www.OpenFOAM.org                      |
|    \\/     M anipulation  |                                                 |
\*---------------------------------------------------------------------------*/
FoamFile
{
    version     2.0;
    format      ascii;
    class       volVectorField;
    location    "9000";
    object      stored_U;
}
// * * * * * * * * * * * * * * * * * * * * * * * * * * * * * * * * * * * * * //

dimensions      [0 1 -1 0 0 0 0];

internalField   nonuniform List<vector> 
180
(
(-0.0428722 -0.00475979 122.999)
(-0.0441733 0.00943104 123.242)
(-0.0706178 0.0454486 123.092)
(-0.0830172 0.0708083 123.072)
(-0.0698443 0.118698 123.139)
(-0.142944 0.124307 123.078)
(-0.187845 0.151217 123.106)
(-0.157241 0.252388 123.105)
(-0.13972 0.290468 123.085)
(-0.180263 0.311241 123.143)
(-0.125945 0.416496 123.113)
(-0.0464676 0.654756 123.213)
(-0.126582 0.700008 123.227)
(-0.169073 0.718475 123.23)
(-0.144826 0.931211 123.449)
(-0.106322 1.01158 123.346)
(-0.0808991 1.25099 123.601)
(-0.112946 1.27918 123.627)
(-0.142084 1.29619 123.71)
(-0.125206 1.55579 123.975)
(-0.157772 1.81836 123.908)
(0.0277281 2.27451 124.266)
(0.0265121 2.29074 124.194)
(-0.0507888 2.21738 124.488)
(-0.0832388 2.18275 124.423)
(-0.0184555 2.18062 124.623)
(0.0105767 2.14671 124.608)
(0.0257329 2.11307 124.65)
(0.0691378 1.9581 124.828)
(0.0895478 1.91925 124.771)
(0.150409 1.87402 124.822)
(0.17025 1.85559 124.878)
(0.186672 1.84173 124.882)
(0.160943 1.71588 124.963)
(0.179047 1.67931 124.863)
(0.127598 1.61187 124.975)
(0.0614204 1.39845 124.899)
(0.0166147 1.27991 124.878)
(-0.0341674 1.19894 124.883)
(-0.0717291 1.14462 124.8)
(-0.0496777 1.17502 124.728)
(-0.158911 1.03902 124.75)
(-0.227216 0.911181 124.664)
(-0.243987 0.74521 124.476)
(-0.148046 0.793054 124.48)
(-0.167271 0.732024 124.478)
(-0.173311 0.561339 124.294)
(0.095208 0.473244 124.191)
(0.0444213 0.280747 124.17)
(0.0640432 0.163994 124.05)
(-0.0268423 -0.07556 123.933)
(-0.0322392 -0.17754 123.792)
(-0.00170983 -0.181611 123.757)
(-0.00133329 -0.371172 123.655)
(-0.0842403 -0.716785 123.461)
(-0.11042 -0.913263 123.317)
(-0.0780395 -0.902842 123.253)
(-0.0891624 -0.836387 123.201)
(0.0305036 -0.952246 122.912)
(-0.0588095 -1.1426 122.821)
(-0.0920954 -1.22446 122.814)
(0.0452975 -1.17837 122.629)
(0.0582072 -1.16173 122.464)
(-0.0942984 -1.36812 122.379)
(-0.0675471 -1.34566 122.243)
(0.0848485 -1.33802 122.044)
(0.261102 -1.30351 121.955)
(0.438659 -1.29358 121.842)
(0.38236 -1.35118 121.736)
(0.367707 -1.37408 121.662)
(0.558474 -1.49483 121.474)
(0.68942 -1.69346 121.368)
(0.782739 -1.84849 121.227)
(0.813082 -2.04878 121.135)
(0.694491 -2.17089 120.938)
(0.605283 -2.34835 120.745)
(0.56062 -2.61008 120.555)
(0.460575 -2.77332 120.398)
(0.426855 -3.00585 120.047)
(0.341684 -3.18719 119.823)
(0.189438 -3.26652 119.541)
(0.168182 -3.0996 119.179)
(0.450515 -2.61725 118.756)
(1.22185 -2.03905 118.475)
(2.30938 -1.3494 118.157)
(3.55842 -0.675631 117.966)
(4.81475 0.116019 117.83)
(5.92138 0.849845 117.751)
(6.98327 1.52863 117.812)
(7.83976 2.18996 117.832)
(8.59011 2.71341 118.01)
(8.9725 3.27307 118.141)
(9.23586 3.59295 118.36)
(9.42397 3.85367 118.64)
(9.15957 4.06465 118.808)
(9.12544 4.20834 119.177)
(9.01935 4.31306 119.346)
(8.71137 4.46103 119.725)
(8.40801 4.53898 120.013)
(8.26358 4.54702 120.301)
(8.23254 4.5477 120.696)
(8.04676 4.48267 120.952)
(7.78773 4.54405 121.423)
(7.36709 4.47008 121.661)
(7.28798 4.50528 122.177)
(7.07714 4.44942 122.404)
(6.88012 4.46154 123.046)
(6.94189 4.58851 123.172)
(6.19218 3.99864 123.884)
(6.18934 3.96921 124.082)
(6.14821 3.91987 124.433)
(6.00873 3.70734 124.859)
(5.14305 3.00167 125.162)
(3.82045 1.04804 125.173)
(2.21164 -0.974046 124.8)
(1.07762 -2.73125 124.28)
(-0.281667 -3.80518 123.308)
(-1.09809 -4.20801 122.414)
(-2.22625 -3.74942 121.077)
(-2.88237 -2.64056 120.033)
(-3.84384 -0.914374 118.635)
(-4.43207 1.21523 117.556)
(-5.17378 3.65922 116.225)
(-5.62429 6.35066 115.205)
(-6.05127 9.16911 114.101)
(-6.27231 11.9748 113.221)
(-6.36586 14.8184 112.346)
(-6.31558 17.5261 111.67)
(-6.13077 20.1342 110.886)
(-5.7875 22.643 110.397)
(-5.35244 24.9687 109.817)
(-4.78035 27.07 109.51)
(-4.16813 29.1132 109.053)
(-3.4525 31.0917 108.916)
(-2.72192 32.9365 108.668)
(-1.9072 34.7018 108.659)
(-1.07857 36.3935 108.585)
(-0.133179 37.9724 108.711)
(0.797804 39.4376 108.884)
(1.85528 40.9854 109.171)
(2.90053 42.2907 109.548)
(4.06271 43.7405 109.966)
(5.22961 44.8728 110.508)
(6.50883 46.1448 111.011)
(7.80588 47.1126 111.653)
(9.19884 48.0728 112.141)
(10.6006 48.8097 112.917)
(12.0474 49.5772 113.3)
(13.5254 50.0665 114.206)
(14.9012 50.5527 114.394)
(16.3997 50.6914 115.397)
(17.5208 50.8155 115.394)
(18.9869 50.6345 116.383)
(19.6702 50.1847 116.285)
(20.7597 49.6137 117.216)
(21.0528 48.6403 116.897)
(22.0931 47.3881 117.916)
(21.9229 45.4282 117.386)
(22.7143 43.1983 118.285)
(22.2065 40.2447 117.687)
(22.7515 36.9224 118.293)
(22.1048 32.7748 117.626)
(22.5478 28.2352 117.876)
(22.0639 23.0769 117.05)
(22.5791 17.856 116.92)
(22.4428 12.4242 115.826)
(23.1896 7.25222 115.292)
(23.7051 2.37502 113.867)
(24.8887 -2.07405 112.981)
(26.1318 -5.5999 111.19)
(27.8135 -8.52934 110.078)
(29.706 -9.96862 108.097)
(31.6406 -10.3364 106.867)
(33.6368 -9.63808 105.249)
(35.1042 -7.28957 103.723)
(36.7377 -4.55157 103.326)
(37.343 0.15869 101.135)
(38.5761 2.01835 102.293)
(38.616 4.70573 100.592)
(39.6346 6.23204 101.504)
)
;

boundaryField
{
    inlet
    {
        type            calculated;
        value           uniform (39.6346 6.23204 101.504);
    }
    outlet
    {
        type            calculated;
        value           uniform (-0.0428722 -0.00475979 122.999);
    }
    repeat_boundary
    {
        type            calculated;
        value           nonuniform List<vector> 
360
(
(0 -0.00475979 122.999)
(0 0.00943104 123.242)
(0 0.0454486 123.092)
(0 0.0708083 123.072)
(0 0.118698 123.139)
(0 0.124307 123.078)
(0 0.151217 123.106)
(0 0.252388 123.105)
(0 0.290468 123.085)
(0 0.311241 123.143)
(0 0.416496 123.113)
(0 0.654756 123.213)
(0 0.700008 123.227)
(0 0.718475 123.23)
(0 0.931211 123.449)
(0 1.01158 123.346)
(0 1.25099 123.601)
(0 1.27918 123.627)
(0 1.29619 123.71)
(0 1.55579 123.975)
(0 1.81836 123.908)
(0 2.27451 124.266)
(0 2.29074 124.194)
(0 2.21738 124.488)
(0 2.18275 124.423)
(0 2.18062 124.623)
(0 2.14671 124.608)
(0 2.11307 124.65)
(0 1.9581 124.828)
(0 1.91925 124.771)
(0 1.87402 124.822)
(0 1.85559 124.878)
(0 1.84173 124.882)
(0 1.71588 124.963)
(0 1.67931 124.863)
(0 1.61187 124.975)
(0 1.39845 124.899)
(0 1.27991 124.878)
(0 1.19894 124.883)
(0 1.14462 124.8)
(0 1.17502 124.728)
(0 1.03902 124.75)
(0 0.911181 124.664)
(0 0.74521 124.476)
(0 0.793054 124.48)
(0 0.732024 124.478)
(0 0.561339 124.294)
(0 0.473244 124.191)
(0 0.280747 124.17)
(0 0.163994 124.05)
(0 -0.07556 123.933)
(0 -0.17754 123.792)
(0 -0.181611 123.757)
(0 -0.371172 123.655)
(0 -0.716785 123.461)
(0 -0.913263 123.317)
(0 -0.902842 123.253)
(0 -0.836387 123.201)
(0 -0.952246 122.912)
(0 -1.1426 122.821)
(0 -1.22446 122.814)
(0 -1.17837 122.629)
(0 -1.16173 122.464)
(0 -1.36812 122.379)
(0 -1.34566 122.243)
(0 -1.33802 122.044)
(0 -1.30351 121.955)
(0 -1.29358 121.842)
(0 -1.35118 121.736)
(0 -1.37408 121.662)
(0 -1.49483 121.474)
(0 -1.69346 121.368)
(0 -1.84849 121.227)
(0 -2.04878 121.135)
(0 -2.17089 120.938)
(0 -2.34835 120.745)
(0 -2.61008 120.555)
(0 -2.77332 120.398)
(0 -3.00585 120.047)
(0 -3.18719 119.823)
(0 -3.26652 119.541)
(0 -3.0996 119.179)
(0 -2.61725 118.756)
(0 -2.03905 118.475)
(0 -1.3494 118.157)
(0 -0.675631 117.966)
(0 0.116019 117.83)
(0 0.849845 117.751)
(0 1.52863 117.812)
(0 2.18996 117.832)
(0 2.71341 118.01)
(0 3.27307 118.141)
(0 3.59295 118.36)
(0 3.85367 118.64)
(0 4.06465 118.808)
(0 4.20834 119.177)
(0 4.31306 119.346)
(0 4.46103 119.725)
(0 4.53898 120.013)
(0 4.54702 120.301)
(0 4.5477 120.696)
(0 4.48267 120.952)
(0 4.54405 121.423)
(0 4.47008 121.661)
(0 4.50528 122.177)
(0 4.44942 122.404)
(0 4.46154 123.046)
(0 4.58851 123.172)
(0 3.99864 123.884)
(0 3.96921 124.082)
(0 3.91987 124.433)
(0 3.70734 124.859)
(0 3.00167 125.162)
(0 1.04804 125.173)
(0 -0.974046 124.8)
(0 -2.73125 124.28)
(0 -3.80518 123.308)
(0 -4.20801 122.414)
(0 -3.74942 121.077)
(0 -2.64056 120.033)
(0 -0.914374 118.635)
(0 1.21523 117.556)
(0 3.65922 116.225)
(0 6.35066 115.205)
(0 9.16911 114.101)
(0 11.9748 113.221)
(0 14.8184 112.346)
(0 17.5261 111.67)
(0 20.1342 110.886)
(0 22.643 110.397)
(0 24.9687 109.817)
(0 27.07 109.51)
(0 29.1132 109.053)
(0 31.0917 108.916)
(0 32.9365 108.668)
(0 34.7018 108.659)
(0 36.3935 108.585)
(0 37.9724 108.711)
(0 39.4376 108.884)
(0 40.9854 109.171)
(0 42.2907 109.548)
(0 43.7405 109.966)
(0 44.8728 110.508)
(0 46.1448 111.011)
(0 47.1126 111.653)
(0 48.0728 112.141)
(0 48.8097 112.917)
(0 49.5772 113.3)
(0 50.0665 114.206)
(0 50.5527 114.394)
(0 50.6914 115.397)
(0 50.8155 115.394)
(0 50.6345 116.383)
(0 50.1847 116.285)
(0 49.6137 117.216)
(0 48.6403 116.897)
(0 47.3881 117.916)
(0 45.4282 117.386)
(0 43.1983 118.285)
(0 40.2447 117.687)
(0 36.9224 118.293)
(0 32.7748 117.626)
(0 28.2352 117.876)
(0 23.0769 117.05)
(0 17.856 116.92)
(0 12.4242 115.826)
(0 7.25222 115.292)
(0 2.37502 113.867)
(0 -2.07405 112.981)
(0 -5.5999 111.19)
(0 -8.52934 110.078)
(0 -9.96862 108.097)
(0 -10.3364 106.867)
(0 -9.63808 105.249)
(0 -7.28957 103.723)
(0 -4.55157 103.326)
(0 0.15869 101.135)
(0 2.01835 102.293)
(0 4.70573 100.592)
(0 6.23204 101.504)
(-0.0428722 0 122.999)
(-0.0441733 0 123.242)
(-0.0706178 0 123.092)
(-0.0830172 0 123.072)
(-0.0698443 0 123.139)
(-0.142944 0 123.078)
(-0.187845 0 123.106)
(-0.157241 0 123.105)
(-0.13972 0 123.085)
(-0.180263 0 123.143)
(-0.125945 0 123.113)
(-0.0464676 0 123.213)
(-0.126582 0 123.227)
(-0.169073 0 123.23)
(-0.144826 0 123.449)
(-0.106322 0 123.346)
(-0.0808991 0 123.601)
(-0.112946 0 123.627)
(-0.142084 0 123.71)
(-0.125206 0 123.975)
(-0.157772 0 123.908)
(0.0277281 0 124.266)
(0.0265121 0 124.194)
(-0.0507888 0 124.488)
(-0.0832388 0 124.423)
(-0.0184555 0 124.623)
(0.0105767 0 124.608)
(0.0257329 0 124.65)
(0.0691378 0 124.828)
(0.0895478 0 124.771)
(0.150409 0 124.822)
(0.17025 0 124.878)
(0.186672 0 124.882)
(0.160943 0 124.963)
(0.179047 0 124.863)
(0.127598 0 124.975)
(0.0614204 0 124.899)
(0.0166147 0 124.878)
(-0.0341674 0 124.883)
(-0.0717291 0 124.8)
(-0.0496777 0 124.728)
(-0.158911 0 124.75)
(-0.227216 0 124.664)
(-0.243987 0 124.476)
(-0.148046 0 124.48)
(-0.167271 0 124.478)
(-0.173311 0 124.294)
(0.095208 0 124.191)
(0.0444213 0 124.17)
(0.0640432 0 124.05)
(-0.0268423 0 123.933)
(-0.0322392 0 123.792)
(-0.00170983 0 123.757)
(-0.00133329 0 123.655)
(-0.0842403 0 123.461)
(-0.11042 0 123.317)
(-0.0780395 0 123.253)
(-0.0891624 0 123.201)
(0.0305036 0 122.912)
(-0.0588095 0 122.821)
(-0.0920954 0 122.814)
(0.0452975 0 122.629)
(0.0582072 0 122.464)
(-0.0942984 0 122.379)
(-0.0675471 0 122.243)
(0.0848485 0 122.044)
(0.261102 0 121.955)
(0.438659 0 121.842)
(0.38236 0 121.736)
(0.367707 0 121.662)
(0.558474 0 121.474)
(0.68942 0 121.368)
(0.782739 0 121.227)
(0.813082 0 121.135)
(0.694491 0 120.938)
(0.605283 0 120.745)
(0.56062 0 120.555)
(0.460575 0 120.398)
(0.426855 0 120.047)
(0.341684 0 119.823)
(0.189438 0 119.541)
(0.168182 0 119.179)
(0.450515 0 118.756)
(1.22185 0 118.475)
(2.30938 0 118.157)
(3.55842 0 117.966)
(4.81475 0 117.83)
(5.92138 0 117.751)
(6.98327 0 117.812)
(7.83976 0 117.832)
(8.59011 0 118.01)
(8.9725 0 118.141)
(9.23586 0 118.36)
(9.42397 0 118.64)
(9.15957 0 118.808)
(9.12544 0 119.177)
(9.01935 0 119.346)
(8.71137 0 119.725)
(8.40801 0 120.013)
(8.26358 0 120.301)
(8.23254 0 120.696)
(8.04676 0 120.952)
(7.78773 0 121.423)
(7.36709 0 121.661)
(7.28798 0 122.177)
(7.07714 0 122.404)
(6.88012 0 123.046)
(6.94189 0 123.172)
(6.19218 0 123.884)
(6.18934 0 124.082)
(6.14821 0 124.433)
(6.00873 0 124.859)
(5.14305 0 125.162)
(3.82045 0 125.173)
(2.21164 0 124.8)
(1.07762 0 124.28)
(-0.281667 0 123.308)
(-1.09809 0 122.414)
(-2.22625 0 121.077)
(-2.88237 0 120.033)
(-3.84384 0 118.635)
(-4.43207 0 117.556)
(-5.17378 0 116.225)
(-5.62429 0 115.205)
(-6.05127 0 114.101)
(-6.27231 0 113.221)
(-6.36586 0 112.346)
(-6.31558 0 111.67)
(-6.13077 0 110.886)
(-5.7875 0 110.397)
(-5.35244 0 109.817)
(-4.78035 0 109.51)
(-4.16813 0 109.053)
(-3.4525 0 108.916)
(-2.72192 0 108.668)
(-1.9072 0 108.659)
(-1.07857 0 108.585)
(-0.133179 0 108.711)
(0.797804 0 108.884)
(1.85528 0 109.171)
(2.90053 0 109.548)
(4.06271 0 109.966)
(5.22961 0 110.508)
(6.50883 0 111.011)
(7.80588 0 111.653)
(9.19884 0 112.141)
(10.6006 0 112.917)
(12.0474 0 113.3)
(13.5254 0 114.206)
(14.9012 0 114.394)
(16.3997 0 115.397)
(17.5208 0 115.394)
(18.9869 0 116.383)
(19.6702 0 116.285)
(20.7597 0 117.216)
(21.0528 0 116.897)
(22.0931 0 117.916)
(21.9229 0 117.386)
(22.7143 0 118.285)
(22.2065 0 117.687)
(22.7515 0 118.293)
(22.1048 0 117.626)
(22.5478 0 117.876)
(22.0639 0 117.05)
(22.5791 0 116.92)
(22.4428 0 115.826)
(23.1896 0 115.292)
(23.7051 0 113.867)
(24.8887 0 112.981)
(26.1318 0 111.19)
(27.8135 0 110.078)
(29.706 0 108.097)
(31.6406 0 106.867)
(33.6368 0 105.249)
(35.1042 0 103.723)
(36.7377 0 103.326)
(37.343 0 101.135)
(38.5761 0 102.293)
(38.616 0 100.592)
(39.6346 0 101.504)
)
;
    }
    procBoundary3to1
    {
        type            processor;
        value           nonuniform List<vector> 
180
(
(-0.0757268 -0.000743152 122.878)
(-0.0731778 -0.00459545 122.933)
(-0.0920509 0.0312887 122.855)
(-0.104053 0.0470404 122.846)
(-0.116357 0.103208 122.903)
(-0.129411 0.139812 122.749)
(-0.127545 0.173079 122.804)
(-0.0948479 0.217089 122.75)
(-0.0736499 0.217965 122.682)
(-0.184265 0.271095 122.69)
(-0.353827 0.373365 122.493)
(-0.54887 0.527504 122.483)
(-0.719243 0.64463 122.222)
(-0.936339 0.798204 122.169)
(-1.37806 0.919529 121.762)
(-1.46722 1.02108 121.646)
(-1.62049 1.11263 121.439)
(-1.66414 1.27257 120.971)
(-1.54813 1.33383 120.751)
(-1.28738 1.27132 120.39)
(-0.952915 1.10195 120.124)
(-0.505534 0.823011 119.747)
(-0.0794043 0.47515 119.564)
(0.398824 0.097939 119.234)
(0.945057 -0.344306 119.012)
(0.986138 -0.390928 119.003)
(1.41158 -0.717837 118.797)
(1.47728 -0.750849 118.705)
(1.68051 -0.914504 118.644)
(1.81486 -1.01431 118.597)
(1.89991 -1.1021 118.491)
(2.42416 -1.36937 118.626)
(2.46844 -1.38462 118.51)
(2.7373 -1.53024 118.681)
(2.78136 -1.57923 118.686)
(2.80869 -1.61123 118.752)
(2.82097 -1.64328 118.851)
(2.85955 -1.6954 118.916)
(2.97527 -1.78116 119.058)
(3.03757 -1.83707 119.259)
(3.01266 -1.84854 119.205)
(2.92395 -1.86982 119.501)
(2.94237 -1.88621 119.49)
(2.91378 -1.77191 119.774)
(2.92416 -1.74222 119.852)
(2.97111 -1.79616 119.908)
(2.8389 -1.72627 120.272)
(2.85819 -1.67807 120.237)
(2.87699 -1.56197 120.609)
(2.92539 -1.64097 120.721)
(2.96333 -1.67982 120.87)
(3.01829 -1.62839 121.122)
(2.95176 -1.36689 121.5)
(3.00748 -1.30614 121.614)
(2.94049 -1.10929 121.916)
(2.92911 -0.983483 122.188)
(2.81247 -0.726661 122.443)
(2.74801 -0.647169 122.744)
(2.56913 -0.653819 122.971)
(2.56343 -0.600725 123.143)
(2.59776 -0.473363 123.432)
(2.47132 -0.617367 123.653)
(2.30621 -0.717742 123.933)
(2.34734 -0.630138 124.175)
(2.4284 -0.47667 124.496)
(2.49448 -0.444817 124.601)
(2.50328 -0.40782 124.899)
(2.40624 -0.468189 125.122)
(2.30463 -0.459515 125.373)
(2.2252 -0.53248 125.558)
(2.10481 -0.577484 125.771)
(1.95896 -0.521868 125.994)
(1.85587 -0.510137 126.162)
(1.74617 -0.733639 126.416)
(1.6721 -0.958673 126.572)
(1.67073 -0.947526 126.886)
(1.67116 -0.933208 127.034)
(1.70681 -1.21688 127.305)
(1.72797 -1.58873 127.655)
(1.68299 -1.71573 127.854)
(1.70734 -1.9769 128.135)
(1.77078 -2.48511 128.474)
(1.78051 -2.95974 128.778)
(1.9281 -3.45411 129.102)
(1.9721 -3.731 129.326)
(2.04833 -3.90239 129.707)
(2.07981 -4.00599 129.838)
(2.04569 -4.00859 130.058)
(1.93626 -4.00179 130.248)
(1.9379 -4.11474 130.343)
(1.98997 -4.1394 130.508)
(1.95663 -4.16677 130.431)
(1.95275 -4.19373 130.462)
(1.89518 -4.13796 130.598)
(1.88095 -4.13961 130.432)
(1.87388 -4.09591 130.517)
(1.79999 -4.01089 130.483)
(1.7334 -3.95237 130.351)
(1.71635 -3.94688 130.332)
(1.69734 -3.75415 130.218)
(1.53839 -3.4273 130.174)
(1.44553 -3.30793 129.956)
(1.44418 -3.3037 129.902)
(1.4839 -3.35661 129.836)
(1.50019 -2.96371 129.636)
(1.61555 -2.48259 129.461)
(1.62831 -2.15806 129.417)
(1.55863 -2.0922 129.186)
(1.68667 -1.86463 129.041)
(1.68302 -1.82652 128.856)
(2.07117 -1.84884 128.837)
(2.57467 -2.38721 128.506)
(3.20493 -3.54434 128.62)
(3.67322 -4.92675 128.697)
(4.2364 -6.44261 129.036)
(4.91581 -8.23664 129.582)
(5.8478 -10.0717 130.299)
(6.10275 -11.4327 131.294)
(6.48585 -12.553 132.213)
(6.47807 -13.2677 133.214)
(7.02652 -14.365 134.215)
(7.6551 -15.3409 135.074)
(8.60703 -16.439 136.147)
(8.71117 -16.5803 136.878)
(9.38207 -17.4725 137.486)
(9.85195 -18.0438 138.384)
(10.1204 -18.3866 138.677)
(12.7462 -20.6508 139.458)
(13.6078 -21.3651 139.913)
(14.2014 -21.8276 140.488)
(15.794 -23.2041 140.811)
(17.2552 -24.223 141.607)
(18.4315 -25.0072 141.933)
(19.5514 -25.724 142.495)
(20.5044 -26.3064 142.91)
(22.0162 -27.5347 143.161)
(22.7822 -28.0785 143.358)
(22.5838 -27.9117 143.122)
(22.7819 -28.1007 142.974)
(23.3153 -28.5706 142.49)
(23.3909 -28.6666 141.724)
(23.9205 -29.1127 140.966)
(23.8717 -29.1417 140.055)
(24.5016 -29.8077 139.065)
(24.9568 -30.2206 138.056)
(25.1739 -30.417 137.174)
(25.4897 -30.6594 135.897)
(25.9923 -31.1539 134.846)
(26.594 -31.7168 133.323)
(27.131 -32.3421 131.941)
(27.7499 -32.9866 130.205)
(28.2049 -33.6994 128.623)
(28.6632 -34.2588 126.938)
(28.8936 -34.7758 125.324)
(29.1228 -35.0541 123.736)
(29.0504 -35.2299 122.194)
(28.9676 -35.1508 120.747)
(28.4431 -34.8694 119.353)
(27.8866 -34.2749 118.068)
(26.8775 -33.4034 116.868)
(25.9274 -32.2132 115.749)
(24.5342 -30.6799 114.777)
(23.2859 -28.8896 113.863)
(21.8874 -27.0101 113.144)
(20.8167 -25.3334 112.493)
(19.7666 -23.9267 112.095)
(19.1415 -22.9298 111.805)
(18.5976 -22.3479 111.804)
(18.4786 -21.8822 111.927)
(18.5409 -21.6805 112.371)
(18.6934 -21.3601 112.825)
(19.1793 -21.0455 113.675)
(19.7016 -20.9149 114.26)
(20.3769 -20.6746 115.175)
(20.7519 -20.2121 115.98)
(21.2593 -19.6362 116.567)
(21.4328 -18.8404 117.065)
(21.546 -18.4724 117.328)
(21.8935 -18.2405 117.595)
(21.9279 -17.2928 117.518)
)
;
    }
    procBoundary3to2
    {
        type            processor;
        value           nonuniform List<vector> 
180
(
(-0.0467494 -0.0332883 126.124)
(-0.0579653 -0.0112233 126.298)
(-0.0726551 0.0149158 126.325)
(-0.084633 0.0396049 126.254)
(-0.141921 0.0957492 126.308)
(-0.165156 0.140341 126.277)
(-0.212221 0.244223 126.369)
(-0.230955 0.27512 126.387)
(-0.236824 0.299715 126.411)
(-0.183987 0.346621 126.507)
(-0.11763 0.394894 126.469)
(-0.17646 0.321447 126.553)
(-0.183727 0.292209 126.549)
(-0.231658 0.310212 126.535)
(-0.249687 0.325683 126.613)
(-0.210726 0.23453 126.64)
(-0.190092 0.0446673 126.628)
(-0.142766 -0.0167365 126.607)
(-0.168704 0.0225138 126.686)
(-0.256757 0.0510515 126.664)
(-0.254628 0.0378032 126.674)
(-0.219657 0.00145018 126.728)
(-0.27123 0.0817228 126.732)
(-0.323864 0.131135 126.732)
(-0.232199 0.0264931 126.805)
(-0.196041 -0.00990068 126.769)
(-0.159741 -0.0319466 126.803)
(-0.111383 -0.0632579 126.822)
(-0.106824 0.248231 126.801)
(-0.0645327 0.227304 126.784)
(-0.172581 0.639939 126.884)
(-0.152257 0.644909 126.853)
(-0.153107 0.650578 126.889)
(-0.144974 0.63385 127.001)
(-0.108835 0.863148 126.981)
(-0.0895345 0.86532 127.028)
(-0.096331 0.863357 127.047)
(-0.224932 0.822096 127.133)
(-0.220645 0.783692 127.079)
(-0.230311 0.78457 127.14)
(-0.176487 0.761332 127.166)
(-0.145242 0.708891 127.16)
(-0.179788 0.689166 127.131)
(-0.395088 0.442448 127.201)
(-0.420036 0.373828 127.113)
(-0.498222 0.310871 127.139)
(-0.433736 0.310285 127.143)
(-0.355813 0.303742 127.119)
(-0.398064 0.34744 127.115)
(-0.393412 0.351752 127.101)
(-0.394716 0.313446 127.071)
(-0.390851 0.340925 127.097)
(-0.415839 0.391735 127.103)
(-0.459228 0.356925 127.11)
(-0.50966 0.274502 127.107)
(-0.549004 0.234289 127.169)
(-0.573403 0.183293 127.191)
(-0.604035 0.168415 127.246)
(-0.656632 0.104447 127.28)
(-0.704217 0.0199017 127.323)
(-0.737352 -0.0631972 127.315)
(-0.538968 0.215734 127.45)
(-0.625661 0.154538 127.343)
(-0.598249 0.451073 127.453)
(-0.569619 0.817568 127.531)
(-0.653284 0.807739 127.555)
(-0.723761 0.802742 127.611)
(-0.719473 0.839291 127.63)
(-0.780018 0.826358 127.674)
(-0.797879 0.720248 127.732)
(-0.876496 0.656943 127.629)
(-0.883072 0.536532 127.772)
(-0.790484 0.239945 127.587)
(-0.829454 0.162052 127.573)
(-0.886219 0.159239 127.57)
(-1.03721 0.277033 127.556)
(-0.928251 0.090726 127.464)
(-0.959156 0.00798978 127.432)
(-0.914685 -0.0259295 127.446)
(-1.1378 -0.115533 127.234)
(-1.37353 -0.237837 127.224)
(-1.44863 -0.242586 127.199)
(-1.55222 -0.226425 127.15)
(-1.75045 -0.329558 127.084)
(-2.15833 -0.495433 126.789)
(-2.23344 -0.549319 126.664)
(-2.27372 -0.594502 126.487)
(-2.92704 -0.485447 126.196)
(-3.57911 -0.467615 125.684)
(-3.9299 -0.568755 125.256)
(-4.06467 -0.577211 125.066)
(-4.14365 -0.543702 124.491)
(-4.19382 -0.526316 124.092)
(-4.04667 -0.672364 123.442)
(-4.05475 -0.717672 123.16)
(-3.95271 -0.565151 122.559)
(-3.39855 -0.928031 121.935)
(-3.2451 -1.08762 121.613)
(-2.80261 -1.07447 120.907)
(-2.82384 -1.04896 120.341)
(-2.70721 -1.14696 120.061)
(-2.31518 -1.01395 119.104)
(-1.75923 -0.93871 118.455)
(-1.50899 -1.15421 118.257)
(-1.17397 -0.897043 117.26)
(-1.03429 -0.851207 116.793)
(-1.00228 -0.890554 116.305)
(-1.02834 -0.880127 115.703)
(-0.621976 -0.576359 115.098)
(-0.289089 0.00743346 114.195)
(-0.648368 0.944241 113.825)
(-1.44414 1.53322 113.34)
(-2.30412 1.90923 112.945)
(-3.21569 1.84868 112.657)
(-3.90962 1.72206 112.467)
(-4.57834 1.22633 112.429)
(-4.98633 0.743214 112.376)
(-5.35972 -0.0743443 112.517)
(-5.49997 -0.724095 112.579)
(-5.63468 -1.40988 112.745)
(-5.59883 -1.83749 112.856)
(-5.59751 -2.12742 113.115)
(-5.49084 -2.17603 113.276)
(-5.44971 -2.07641 113.629)
(-5.35373 -1.84598 113.857)
(-5.32942 -1.51993 114.268)
(-5.28594 -1.07515 114.572)
(-5.30443 -0.50451 115.046)
(-5.32752 0.0849672 115.429)
(-5.4052 0.704012 115.957)
(-5.50411 1.38137 116.408)
(-5.65171 2.15035 116.996)
(-5.81868 2.91722 117.527)
(-6.01549 3.76715 118.178)
(-6.22811 4.4854 118.784)
(-6.46771 5.14825 119.56)
(-6.72827 5.63248 120.237)
(-7.05287 6.11705 121.098)
(-7.44354 6.46707 121.785)
(-7.98601 6.87684 122.703)
(-8.66332 7.24691 123.382)
(-9.57557 7.87021 124.354)
(-10.6587 8.56611 125.043)
(-12.0092 9.47888 126.067)
(-13.4797 10.4608 126.86)
(-15.2037 11.752 127.976)
(-16.8776 12.9307 128.983)
(-18.7886 14.2499 130.203)
(-20.5062 15.2638 131.483)
(-22.3815 16.3973 132.77)
(-23.8882 17.0562 134.25)
(-25.4672 17.7861 135.499)
(-26.5947 17.9886 137.059)
(-27.701 18.25 138.233)
(-28.3799 18.031 139.765)
(-28.9439 17.861 140.858)
(-29.18 17.269 142.264)
(-29.274 16.8141 143.25)
(-29.1871 15.9455 144.448)
(-28.9907 15.3068 145.314)
(-28.7085 14.4999 146.339)
(-28.5215 13.6028 146.99)
(-28.2012 13.022 147.923)
(-28.0391 12.307 148.466)
(-27.8122 11.8799 149.064)
(-27.834 11.2807 149.872)
(-27.5621 11.2404 149.922)
(-27.8088 10.9213 150.453)
(-27.9105 10.8935 150.937)
(-29.1001 10.8538 151.101)
(-29.6391 11.6167 151.467)
(-31.2796 12.1291 151.474)
(-31.8276 13.8127 151.865)
(-33.2318 14.8054 151.817)
(-33.5081 17.0957 152.272)
(-34.178 18.3785 152.121)
(-33.8123 20.783 152.772)
(-33.2497 21.5625 152.63)
(-32.3014 22.014 152.752)
(-31.6729 21.6579 152.741)
)
;
    }
}


// ************************************************************************* //
