FoamFile
{version 2.0; format ascii;class Cloud<passiveParticle>; location 0;object  positions;}
41
(
( 0.000196945 -0.0003906 9.99307e-05 ) 0 
( 4.48859e-05 -4.16291e-05 9.99097e-05 ) 0 
( 0.000177042 -0.000191666 9.98655e-05 ) 0 
( 0.000408398 -0.00025546 9.97985e-05 ) 0 
( 4.8038e-05 -0.00041705 0.000233493 ) 0 
( 0.000384708 -0.000387218 0.000248233 ) 0 
( 0.000324136 -5.61927e-05 9.97909e-05 ) 0 
( 6.3429e-05 -0.000192959 0.000267961 ) 0 
( 0.000299015 -0.0002008 0.000257885 ) 0 
( 0.00018564 -3.67762e-05 0.000242461 ) 0 
( 0.000474184 -0.000110149 0.000220237 ) 0 
( 0.000208333 -0.000359758 0.000338308 ) 0 
( 5.05354e-05 -3.46828e-05 0.000389686 ) 0 
( 0.000407075 -0.000257855 0.000415995 ) 0 
( 0.0002942 -6.82579e-05 0.000407391 ) 0 
( 0.000284494 -0.000372582 0.000524483 ) 0 
( 0.000150942 -0.000202293 0.000447383 ) 0 
( 0.0001089 -0.000457919 0.000481228 ) 0 
( 0.000266711 -0.000192702 0.00061005 ) 0 
( 0.000141039 -4.29976e-05 0.000567784 ) 0 
( 0.000494011 -0.000332615 0.000579739 ) 0 
( 0.000434469 -0.000105627 0.000544906 ) 0 
( 4.60277e-05 -0.000300137 0.000586712 ) 0 
( 0.000165511 -0.000436655 0.000671806 ) 0 
( 0.000426816 -0.000215953 0.000727546 ) 0 
( 0.000284319 -1.75561e-05 0.000704917 ) 0 
( 0.000364192 -0.000425565 0.000700108 ) 0 
( 0.000243153 -0.000289833 0.000783187 ) 0 
( 0.000450626 -3.73285e-05 0.000814152 ) 0 
( 5.34129e-05 -0.000227549 0.000792964 ) 0 
( 0.000200668 -0.000110566 0.00086087 ) 0 
( 0.000220576 -0.000462089 0.00088212 ) 0 
( 0.0003967 -0.000288897 0.000911277 ) 0 
( 0.000357261 -8.86715e-05 0.000983322 ) 0 
( 8.13418e-05 -0.00033933 0.000956349 ) 0 
( 0.000361471 -0.000463461 0.00102402 ) 0 
( 4.15003e-05 -0.000144488 0.000977025 ) 0 
( 0.000241181 -0.000244586 0.00103018 ) 0 
( 0.000463645 -9.41843e-06 0.00113297 ) 0 
( 9.77279e-05 -0.000446389 0.00112445 ) 0 
( 0.000366658 -0.000322011 0.00116528 ) 0 
)
