# vtk DataFile Version 4.0
Generated by LIGGGHTS
ASCII
DATASET POLYDATA
POINTS 1344 float
-0.004379 -0.00438557 0.000498469 -0.00342182 -0.0046734 0.000498246 -0.00244297 -0.00494691 0.000498793 
-0.00161972 -0.00420574 0.000497986 -0.000495503 -0.0049914 0.000498475 -0.000641174 -0.00400204 0.000499095 
0.000287861 -0.00436986 0.000498492 0.00139318 -0.00456881 0.000498103 0.00240385 -0.00462031 0.000497147 
0.00371684 -0.00441726 0.000497131 0.00466405 -0.00409668 0.000498983 -0.00460561 -0.00341232 0.000497493 
-0.00364171 -0.00369835 0.000497738 -0.00268229 -0.00397696 0.000498502 -0.00197362 -0.00327156 0.000498945 
-0.00099589 -0.00306776 0.000498291 3.05608e-05 -0.00324413 0.000498804 0.000954321 -0.00362511 0.0004994 
0.00194777 -0.00373142 0.000497921 0.00294602 -0.0037803 0.000498131 0.00443315 -0.00312467 0.000498718 
-0.00485012 -0.00242944 0.000497958 -0.00389161 -0.00271274 0.00049812 -0.00293301 -0.00299385 0.000499237 
-0.00273158 -0.00200807 0.000499287 -0.00177437 -0.0022921 0.000497952 -0.000343702 -0.00231231 0.000498657 
0.000654712 -0.00230595 0.000498106 0.001505 -0.00280568 0.000655661 0.00248763 -0.00289066 0.000498338 
0.00348369 -0.00280868 0.000498874 0.00418351 -0.00209489 0.000498676 -0.00464964 -0.00145059 0.000498807 
-0.00369142 -0.00173221 0.000499856 -0.00200197 -0.00130961 0.000497174 -0.00296319 -0.0010332 0.000498575 
-0.00104591 -0.00160126 0.000499016 2.01704e-05 -0.00138254 0.000498811 0.00101783 -0.0013277 0.000498136 
0.00185195 -0.00187717 0.000498249 0.00284846 -0.00195937 0.000499155 0.00242173 -0.00105595 0.000497805 
0.00341795 -0.00113833 0.00049817 0.00441603 -0.00109754 0.000499011 -0.00392638 -0.000760505 0.000497423 
-0.00319429 -6.13968e-05 0.000498038 -0.00223424 -0.000338275 0.000498124 -0.00125576 -0.000623516 0.0004994 
0.000359971 -0.00044269 0.000498645 0.00153591 -0.000472961 0.000498235 0.00299899 -0.000231695 0.000497595 
0.0049475 -0.000251088 0.00049853 -0.00416522 0.000208474 0.000498311 -0.00344907 0.00090469 0.000498311 
-0.00247391 0.000632485 0.000498693 -0.00149857 0.000346662 0.000499396 -0.000527164 6.1329e-05 0.000499384 
0.000210923 0.000736072 0.000498881 0.00117059 0.000457474 0.000498297 0.00215884 0.000308165 0.000499369 
0.00293799 0.000934779 0.000498464 0.00382591 0.000326991 0.000497977 0.00473997 0.000728746 0.000498966 
-0.00439903 0.00112745 0.000810018 -0.0027133 0.00171361 0.000498176 -0.00172215 0.00134381 0.000498668 
-0.0007604 0.00103338 0.000497963 -2.35831e-05 0.00170761 0.000497212 0.000937815 0.00143525 0.000498417 
0.00192469 0.00127895 0.000498958 0.00271063 0.0019072 0.000497599 0.00386612 0.00134018 0.000499699 
0.00478977 0.00172748 0.000499697 -0.00424252 0.0020632 0.000499034 -0.00350534 0.00273789 0.000499544 
-0.00251715 0.00288575 0.000496602 -0.00151963 0.00284637 0.000498704 -0.000975715 0.00200883 0.000498882 
0.000693155 0.00240396 0.000498859 0.00168093 0.00224742 0.000498496 0.00245731 0.00287578 0.000498609 
0.00348745 0.00253665 0.000497603 0.004475 0.00268665 0.000497741 -0.00457715 0.00300421 0.000497698 
-0.00487934 0.00395797 0.000497151 -0.00384158 0.00367973 0.000499375 -0.00230755 0.0038963 0.000498001 
-0.00130871 0.00382178 0.000498928 -0.000536133 0.00302018 0.000498258 -0.000325141 0.00399632 0.000497966 
0.000456181 0.00337406 0.00049731 0.00144339 0.00321834 0.000499259 0.00222039 0.003847 0.000498681 
0.00317886 0.00356743 0.000499502 0.00417456 0.00363848 0.000498293 -0.00414396 0.00463529 0.000499725 
-0.00315834 0.00438266 0.000690594 -0.00147545 0.00480556 0.000497882 0.00043597 0.0046425 0.000499299 
0.00141203 0.00443233 0.000498231 0.00294759 0.00454034 0.000499698 0.00394514 0.00461077 0.000498903 
0.00489203 0.00493053 0.00049775 -0.00455053 -0.00493502 0.00131497 -0.00381569 -0.0042494 0.00131202 
-0.00288363 -0.00463251 0.00133855 -0.00203885 -0.00483815 0.0018313 -0.00121674 -0.00465247 0.00129403 
4.54136e-05 -0.00486983 0.00132909 0.00198394 -0.00483148 0.00137684 0.00308767 -0.00469691 0.00121964 
0.00345972 -0.00405965 0.00189197 0.00433418 -0.00468945 0.00123302 -0.00477315 -0.00396205 0.00131349 
-0.00403996 -0.00327562 0.00130915 -0.00308374 -0.00356882 0.001317 -0.00212682 -0.00397961 0.00132819 
-0.00145646 -0.00323932 0.00136647 -0.000551598 -0.00393416 0.00149183 0.000442727 -0.00395337 0.00139223 
0.00143747 -0.0039966 0.00131394 0.00188414 -0.00315081 0.0016014 0.00243757 -0.00394204 0.0013421 
0.00299518 -0.00300859 0.00134936 0.00375069 -0.00359265 0.001058 0.00441148 -0.0036567 0.00180282 
-0.00499618 -0.00298811 0.00131269 -0.00424505 -0.00214517 0.00123963 -0.00328168 -0.00240927 0.00123119 
-0.00232958 -0.00271166 0.00124538 -0.00106068 -0.0023388 0.00119385 -0.000312206 -0.00296878 0.00139527 
0.000673647 -0.00299452 0.00122263 0.00123257 -0.00203586 0.00126521 0.0022968 -0.00229729 0.00128739 
0.00405574 -0.00267424 0.00130666 -0.00385263 -0.00123574 0.00137045 -0.00286914 -0.00148966 0.00138122 
-0.00192237 -0.00180657 0.00135764 -0.001026 -0.00138026 0.00147292 0.000153076 -0.00198891 0.00130271 
0.000532037 -0.00106469 0.00132925 0.00171471 -0.00116459 0.00119518 0.00266615 -0.00137746 0.00141068 
0.0035369 -0.00182649 0.00121132 0.00477859 -0.00194006 0.00128572 0.00422761 -0.00112991 0.00147917 
-0.00483692 -0.000845874 0.00127131 -0.00375667 -0.000205206 0.0013104 -0.00279051 -0.000483363 0.00131529 
-0.001808 -0.000776184 0.0013183 -0.00110883 -6.37629e-05 0.00132759 -0.000376512 -0.000708281 0.00111896 
0.000955827 -0.000163936 0.00125001 0.00232262 -0.000370693 0.00121682 0.00339172 -0.000599932 0.00133896 
0.00428403 -0.000161846 0.00123968 -0.004784 0.000317453 0.00127598 -0.00394236 0.000759613 0.00161909 
-0.00302974 0.000487107 0.00131595 -0.00206788 0.000215588 0.00131149 -0.00132999 0.000909051 0.00130819 
-0.00035726 0.000618594 0.00131164 0.00048681 0.00049751 0.00183244 0.00172522 0.000212212 0.00176291 
0.00233571 0.000864466 0.00131078 0.00321027 0.000380753 0.00128293 0.00410816 0.000817837 0.0013195 
-0.00416814 0.00177048 0.00153793 -0.00324936 0.00146153 0.00130155 -0.00228881 0.00118951 0.00130689 
-0.00161923 0.00169865 0.00184523 -0.000582344 0.00159265 0.00131822 0.000393179 0.00135515 0.00133172 
0.00134534 0.00101561 0.00130769 0.00212178 0.00184096 0.00130066 0.00323362 0.00151735 0.00125515 
0.00489156 0.00142443 0.00144848 -0.00489213 0.00236752 0.00119933 -0.00292358 0.00240489 0.00127029 
-0.00198873 0.00214552 0.0010326 -0.00110798 0.00247412 0.0013733 -6.58411e-05 0.00244707 0.0011657 
0.000779927 0.0029495 0.00134118 0.00113879 0.00201774 0.00130522 0.00184092 0.00279961 0.00131475 
0.00289675 0.00247114 0.00129926 0.00406537 0.00206396 0.00116086 0.00448706 0.00269516 0.00191014 
-0.00399184 0.00307824 0.00130389 -0.0030636 0.00347183 0.00109106 -0.00358739 0.00378756 0.00187958 
-0.00204225 0.00331284 0.00126234 -0.00106689 0.00347222 0.00140287 -7.18957e-05 0.00350935 0.00133251 
0.000828572 0.00394361 0.00122832 0.00261693 0.00342935 0.00131439 0.00383684 0.00308196 0.00125771 
0.00480537 0.00333272 0.00120945 -0.00437988 0.00408145 0.00135049 -0.00363078 0.00472438 0.00150184 
-0.00275057 0.00426497 0.00161318 -0.00180848 0.00428357 0.00128152 -0.000820596 0.00443161 0.00124638 
-7.93618e-05 0.00432491 0.00190813 0.00102089 0.0049235 0.00127452 0.00178455 0.00418737 0.00139149 
0.00275448 0.00440255 0.00149497 0.00367296 0.00406689 0.00129063 0.00370562 0.00497313 0.00193103 
0.00463001 0.00435539 0.00127228 -0.00415334 -0.00461003 0.00217878 -0.0049199 -0.00404271 0.00291542 
-0.00347576 -0.00435669 0.00287043 -0.00278959 -0.00407505 0.00216157 -0.00243772 -0.00456842 0.00295431 
-0.00147407 -0.00469502 0.00272399 -0.000606378 -0.00475474 0.00207638 0.00054017 -0.00408011 0.00287375 
0.000250406 -0.00497505 0.00253898 0.00098945 -0.00448405 0.00207804 0.00192195 -0.00413675 0.00217449 
0.00268253 -0.00478239 0.00212813 0.00258561 -0.0041755 0.00291942 0.0033842 -0.00477196 0.00284273 
0.00412656 -0.00413641 0.00263211 0.00485951 -0.00451189 0.00206262 -0.00468102 -0.00343789 0.00215808 
-0.00371939 -0.00371108 0.00214769 -0.00218507 -0.00328935 0.00204712 -0.00139959 -0.0039921 0.00201914 
-0.0018634 -0.00375553 0.00287049 -0.00069066 -0.00399905 0.00272321 -0.00088791 -0.0031513 0.00219124 
3.00857e-05 -0.00354394 0.00220404 0.000757108 -0.00300263 0.00289596 0.00101758 -0.00348512 0.00206156 
0.00182673 -0.00323639 0.00259554 0.00270429 -0.00347428 0.00218314 0.0036382 -0.00310124 0.00210726 
0.00447312 -0.00313911 0.00265403 -0.00407337 -0.00264922 0.0020848 -0.00436009 -0.00213555 0.00289017 
-0.00311262 -0.00292036 0.0020761 -0.00253041 -0.00210907 0.00208978 -0.00249322 -0.00277977 0.00284786 
-0.00160431 -0.00247748 0.00202357 -0.00108368 -0.00232518 0.00286153 -0.000580744 -0.00207984 0.00203027 
-0.000231821 -0.00286098 0.00288564 0.000303972 -0.00259173 0.00208494 0.00129972 -0.00252914 0.00212967 
0.00263842 -0.00267323 0.00277667 0.00302405 -0.00222582 0.0019704 0.00363952 -0.00255813 0.00294427 
0.0040052 -0.00210973 0.00212944 0.00495249 -0.00243024 0.00213839 -0.00448312 -0.00161065 0.00204868 
-0.00390292 -0.0012523 0.00277787 -0.00349212 -0.00183725 0.00207965 -0.00277581 -0.00140772 0.00275651 
-0.0016387 -0.00148785 0.00225986 -0.000205441 -0.00115376 0.00199742 -0.00079164 -0.00137485 0.00277582 
6.11505e-05 -0.00191264 0.00277638 0.000748111 -0.00169764 0.00207028 0.000654673 -0.00111641 0.00287653 
0.00188511 -0.00173043 0.0020003 0.00164718 -0.00119501 0.00280993 0.00265093 -0.00156254 0.00261946 
0.00342696 -0.00129839 0.00205096 0.00460919 -0.00135232 0.00237548 -0.00425912 -0.00063563 0.002058 
-0.00475096 -0.000713873 0.00292236 -0.00328578 -0.000854604 0.00209961 -0.00229764 -0.000740501 0.00218733 
-0.00275498 -0.000179762 0.00287593 -0.00110397 -0.000650395 0.00214976 -0.00101474 -2.54775e-05 0.00292447 
-0.000264347 -0.000151416 0.0019406 -0.000187897 -0.000583304 0.00283729 0.00067763 -0.000175007 0.0025444 
[...]
POINT_DATA 1344
FIELD FieldData 7
id 1 1344 int
17 57 74 16 56 133 69 113 31 
48 91 108 72 7 89 18 107 70 
28 51 102 36 80 12 45 95 19 
104 97 22 14 29 88 60 78 15 
148 61 1 26 65 103 68 10 27 
94 110 105 62 96 82 46 43 101 
37 90 59 42 55 4 114 2 77 
93 54 21 40 25 53 23 35 58 
33 92 109 8 20 112 13 6 5 
47 52 9 38 67 32 3 34 50 
39 44 85 41 79 63 71 24 11 
30 81 87 49 144 164 146 176 149 
222 118 168 278 125 137 124 99 194 
218 190 116 162 197 153 155 206 173 
179 73 115 121 157 161 139 195 136 
231 170 64 128 181 76 202 214 86 
123 98 159 156 117 138 236 209 169 
187 75 147 160 171 211 127 165 120 
212 257 225 177 142 129 119 151 126 
175 207 174 145 66 140 208 84 152 
134 130 131 141 172 100 200 158 205 
196 122 277 106 154 143 183 166 83 
135 215 221 249 111 150 217 167 192 
216 203 223 132 220 343 371 229 452 
331 319 342 301 260 337 291 293 377 
285 334 248 242 219 188 307 340 320 
289 329 273 330 292 270 327 224 350 
163 193 276 199 345 254 394 275 245 
305 227 443 267 253 204 299 239 325 
336 233 283 240 258 338 256 310 316 
266 304 281 357 259 314 303 268 323 
271 308 288 263 302 210 344 296 243 
261 213 284 272 252 235 381 295 191 
317 282 186 361 185 393 389 287 230 
198 348 251 250 234 322 353 332 244 
264 367 226 321 324 379 265 392 237 
246 294 438 279 184 189 286 201 333 
247 335 255 241 228 313 383 232 387 
280 312 262 238 311 318 178 315 269 
355 180 349 326 290 182 306 369 274 
328 297 373 352 396 540 423 408 500 
385 431 446 449 418 436 437 356 366 
386 384 354 439 390 450 370 486 445 
488 300 397 422 347 309 429 380 432 
485 415 374 508 416 413 419 447 378 
417 441 467 407 364 475 375 498 298 
368 428 391 557 405 409 388 398 400 
359 451 382 339 425 455 362 489 341 
424 440 459 460 411 484 442 365 469 
426 399 509 358 463 404 435 454 410 
473 414 490 402 497 444 506 468 420 
372 480 401 395 448 346 562 430 403 
456 427 433 363 412 493 499 360 351 
507 376 434 406 491 578 560 563 524 
528 466 558 552 597 548 532 529 613 
541 479 503 601 561 482 546 536 623 
530 610 481 477 577 566 494 461 537 
471 616 554 587 571 556 496 522 620 
590 567 457 535 513 622 555 551 518 
585 574 487 476 511 495 547 591 504 
550 531 492 565 483 592 533 581 465 
596 579 502 542 464 519 543 462 470 
545 474 621 478 512 538 458 606 505 
619 580 453 526 615 527 553 609 549 
517 559 525 523 569 510 421 514 520 
544 539 521 501 472 534 515 604 600 
608 643 711 572 653 713 664 614 652 
637 658 598 700 672 651 583 712 632 
694 724 647 660 642 573 650 638 607 
709 575 716 731 646 669 692 714 726 
707 629 668 635 667 576 626 633 640 
654 673 603 688 679 703 594 663 687 
593 634 730 678 718 617 612 657 697 
645 729 691 715 618 683 648 624 662 
676 602 630 719 674 661 695 564 686 
665 644 704 568 586 721 584 666 611 
725 689 727 655 685 588 708 698 699 
684 693 582 706 627 639 631 599 670 
705 625 675 656 649 605 636 570 732 
589 516 671 762 595 659 677 710 840 
641 899 797 767 776 720 799 744 813 
842 696 806 780 773 747 765 752 836 
792 804 778 789 741 701 851 733 763 
728 828 786 761 817 764 772 883 793 
740 795 816 760 742 846 682 750 805 
737 860 751 838 680 790 820 835 736 
894 815 823 768 827 771 690 802 807 
896 628 781 811 723 787 854 779 829 
753 784 770 844 812 821 759 893 774 
814 766 782 826 739 832 785 822 839 
681 800 843 819 722 757 756 788 897 
856 777 850 791 746 748 878 845 809 
717 743 755 754 734 738 847 837 825 
775 745 794 769 702 783 735 803 749 
865 758 934 946 869 824 964 872 895 
923 834 945 990 998 975 880 928 863 
913 864 831 903 935 862 890 932 877 
942 852 953 997 994 841 931 955 919 
917 888 912 1011 898 833 884 902 801 
881 848 874 996 861 885 830 914 909 
958 949 873 866 858 952 933 849 921 
915 992 944 908 853 943 1009 904 796 
918 951 925 926 818 930 886 976 929 
867 808 882 870 905 875 901 887 948 
979 900 876 941 950 879 910 922 855 
938 1005 937 940 916 859 857 911 939 
924 892 989 991 889 947 920 798 927 
956 810 936 871 891 954 868 1020 1162 
906 1032 1044 1023 1013 1037 1120 1017 962 
981 1042 961 1141 1015 1066 984 1058 1021 
1113 1096 1022 985 1099 1055 1012 1027 972 
1079 1047 973 1041 1034 965 1004 1053 999 
1083 971 980 1025 907 1070 1040 957 1118 
1035 966 1000 1116 969 1019 1061 1043 1048 
1003 1026 986 1030 1002 1097 1038 1028 978 
1052 983 1051 959 1016 1063 1057 967 1062 
1050 1014 988 1010 1018 1092 1008 974 977 
1024 1049 1115 1046 1033 1006 1091 1056 970 
993 1031 1029 1045 1039 1060 1001 968 1073 
995 1007 1107 963 1065 1108 982 987 1104 
960 1088 1054 1077 1064 1167 1213 1105 1180 
1216 1194 1164 1093 1082 1200 1159 1112 1101 
1170 1134 1207 1219 1137 1185 1173 1127 1132 
1145 1165 1193 1111 1181 1153 1143 1102 1122 
1208 1203 1178 1085 1234 1215 1084 1158 1117 
1201 1157 1129 1133 1075 1155 1228 1067 1168 
1087 1227 1072 1068 1211 1195 1098 1135 1149 
1121 1130 1160 1069 1171 1140 1128 1144 1059 
1169 1071 1125 1100 1163 1147 1124 1136 1176 
1081 1156 1192 1152 1076 1138 1154 1142 1123 
1106 1074 1131 1103 1090 1080 1214 1086 1166 
1110 1089 1198 1191 1161 1184 1175 1148 1078 
1146 1209 1119 1205 1094 1174 1190 1126 1189 
1109 1224 1151 1218 1036 1220 1114 1196 1095 
1150 1199 1139 1284 1233 1230 1255 1265 1235 
1206 1260 1252 1279 1197 1251 1275 1250 1246 
1268 1240 1238 1263 1270 1287 1222 1172 1225 
1217 1243 1182 1288 1187 1269 1247 1258 1221 
1179 1242 1259 1226 1281 1257 1272 1285 1183 
1278 1244 1186 1188 1264 1283 1229 1202 1248 
1177 1204 1266 1212 1249 1223 1286 1271 1280 
1239 1237 1231 1253 1273 1276 1274 1210 1245 
1267 1262 1277 1256 1261 1282 1241 1254 1232 
1236 1342 1329 1314 1328 1344 1297 1317 1310 
1304 1316 1299 1320 1326 1324 1291 1343 1302 
1301 1321 1306 1331 1290 1313 1298 1339 1307 
1323 1296 1318 1325 1337 1315 1335 1292 1295 
1311 1308 1322 1305 1289 1309 1303 1341 1327 
1330 1293 1334 1332 1336 1338 1300 1333 1340 
1312 1294 1319 
type 1 1344 int
1 1 1 1 1 1 1 1 1 
1 1 1 1 1 1 1 1 1 
1 1 1 1 1 1 1 1 1 
1 1 1 1 1 1 1 1 1 
1 1 1 1 1 1 1 1 1 
1 1 1 1 1 1 1 1 1 
1 1 1 1 1 1 1 1 1 
1 1 1 1 1 1 1 1 1 
1 1 1 1 1 1 1 1 1 
1 1 1 1 1 1 1 1 1 
1 1 1 1 1 1 1 1 1 
1 1 1 1 1 1 1 1 1 
1 1 1 1 1 1 1 1 1 
1 1 1 1 1 1 1 1 1 
1 1 1 1 1 1 1 1 1 
1 1 1 1 1 1 1 1 1 
1 1 1 1 1 1 1 1 1 
1 1 1 1 1 1 1 1 1 
1 1 1 1 1 1 1 1 1 
1 1 1 1 1 1 1 1 1 
1 1 1 1 1 1 1 1 1 
1 1 1 1 1 1 1 1 1 
1 1 1 1 1 1 1 1 1 
1 1 1 1 1 1 1 1 1 
1 1 1 1 1 1 1 1 1 
1 1 1 1 1 1 1 1 1 
1 1 1 1 1 1 1 1 1 
1 1 1 1 1 1 1 1 1 
1 1 1 1 1 1 1 1 1 
1 1 1 1 1 1 1 1 1 
1 1 1 1 1 1 1 1 1 
1 1 1 1 1 1 1 1 1 
1 1 1 1 1 1 1 1 1 
1 1 1 1 1 1 1 1 1 
1 1 1 1 1 1 1 1 1 
1 1 1 1 1 1 1 1 1 
1 1 1 1 1 1 1 1 1 
1 1 1 1 1 1 1 1 1 
1 1 1 1 1 1 1 1 1 
1 1 1 1 1 1 1 1 1 
1 1 1 1 1 1 1 1 1 
1 1 1 1 1 1 1 1 1 
1 1 1 1 1 1 1 1 1 
1 1 1 1 1 1 1 1 1 
1 1 1 1 1 1 1 1 1 
1 1 1 1 1 1 1 1 1 
1 1 1 1 1 1 1 1 1 
1 1 1 1 1 1 1 1 1 
1 1 1 1 1 1 1 1 1 
1 1 1 1 1 1 1 1 1 
1 1 1 1 1 1 1 1 1 
1 1 1 1 1 1 1 1 1 
1 1 1 1 1 1 1 1 1 
1 1 1 1 1 1 1 1 1 
1 1 1 1 1 1 1 1 1 
1 1 1 1 1 1 1 1 1 
1 1 1 1 1 1 1 1 1 
1 1 1 1 1 1 1 1 1 
1 1 1 1 1 1 1 1 1 
1 1 1 1 1 1 1 1 1 
1 1 1 1 1 1 1 1 1 
1 1 1 1 1 1 1 1 1 
1 1 1 1 1 1 1 1 1 
1 1 1 1 1 1 1 1 1 
1 1 1 1 1 1 1 1 1 
1 1 1 1 1 1 1 1 1 
1 1 1 1 1 1 1 1 1 
1 1 1 1 1 1 1 1 1 
1 1 1 1 1 1 1 1 1 
1 1 1 1 1 1 1 1 1 
1 1 1 1 1 1 1 1 1 
1 1 1 1 1 1 1 1 1 
1 1 1 1 1 1 1 1 1 
1 1 1 1 1 1 1 1 1 
1 1 1 1 1 1 1 1 1 
1 1 1 1 1 1 1 1 1 
1 1 1 1 1 1 1 1 1 
1 1 1 1 1 1 1 1 1 
1 1 1 1 1 1 1 1 1 
1 1 1 1 1 1 1 1 1 
1 1 1 1 1 1 1 1 1 
1 1 1 1 1 1 1 1 1 
1 1 1 1 1 1 1 1 1 
1 1 1 1 1 1 1 1 1 
1 1 1 1 1 1 1 1 1 
1 1 1 1 1 1 1 1 1 
1 1 1 1 1 1 1 1 1 
1 1 1 1 1 1 1 1 1 
1 1 1 1 1 1 1 1 1 
1 1 1 1 1 1 1 1 1 
1 1 1 1 1 1 1 1 1 
1 1 1 1 1 1 1 1 1 
1 1 1 1 1 1 1 1 1 
1 1 1 1 1 1 1 1 1 
1 1 1 1 1 1 1 1 1 
1 1 1 1 1 1 1 1 1 
1 1 1 1 1 1 1 1 1 
1 1 1 1 1 1 1 1 1 
1 1 1 1 1 1 1 1 1 
1 1 1 1 1 1 1 1 1 
1 1 1 1 1 1 1 1 1 
1 1 1 1 1 1 1 1 1 
1 1 1 1 1 1 1 1 1 
1 1 1 1 1 1 1 1 1 
1 1 1 1 1 1 1 1 1 
1 1 1 1 1 1 1 1 1 
1 1 1 1 1 1 1 1 1 
1 1 1 1 1 1 1 1 1 
1 1 1 1 1 1 1 1 1 
1 1 1 1 1 1 1 1 1 
1 1 1 1 1 1 1 1 1 
1 1 1 1 1 1 1 1 1 
1 1 1 1 1 1 1 1 1 
1 1 1 1 1 1 1 1 1 
1 1 1 1 1 1 1 1 1 
1 1 1 1 1 1 1 1 1 
1 1 1 1 1 1 1 1 1 
1 1 1 1 1 1 1 1 1 
1 1 1 1 1 1 1 1 1 
1 1 1 1 1 1 1 1 1 
1 1 1 1 1 1 1 1 1 
1 1 1 1 1 1 1 1 1 
1 1 1 1 1 1 1 1 1 
1 1 1 1 1 1 1 1 1 
1 1 1 1 1 1 1 1 1 
1 1 1 1 1 1 1 1 1 
1 1 1 1 1 1 1 1 1 
1 1 1 1 1 1 1 1 1 
1 1 1 1 1 1 1 1 1 
1 1 1 1 1 1 1 1 1 
1 1 1 1 1 1 1 1 1 
1 1 1 1 1 1 1 1 1 
1 1 1 1 1 1 1 1 1 
1 1 1 1 1 1 1 1 1 
1 1 1 1 1 1 1 1 1 
1 1 1 1 1 1 1 1 1 
1 1 1 1 1 1 1 1 1 
1 1 1 1 1 1 1 1 1 
1 1 1 1 1 1 1 1 1 
1 1 1 1 1 1 1 1 1 
1 1 1 1 1 1 1 1 1 
1 1 1 1 1 1 1 1 1 
1 1 1 1 1 1 1 1 1 
1 1 1 1 1 1 1 1 1 
1 1 1 1 1 1 1 1 1 
1 1 1 1 1 1 1 1 1 
1 1 1 1 1 1 1 1 1 
1 1 1 1 1 1 1 1 1 
1 1 1 1 1 1 1 1 1 
1 1 1 
i 3 1344 int
0 0 0 0 1 0 0 0 0 
0 0 0 0 0 0 0 0 0 
0 0 0 0 0 0 0 0 0 
-1 0 0 0 0 0 1 0 0 
0 1 0 0 0 0 0 0 0 
0 0 0 0 0 0 0 1 0 
0 0 0 0 0 0 -1 0 0 
1 1 0 1 1 0 0 0 0 
0 0 0 0 0 0 0 0 0 
0 0 0 0 0 0 0 0 0 
0 0 0 0 0 0 0 0 0 
0 0 0 0 0 0 0 0 0 
0 0 0 0 0 0 0 0 0 
0 0 0 0 0 0 0 0 0 
0 0 0 0 0 0 0 0 0 
0 0 0 0 0 0 0 0 0 
0 0 0 0 0 0 0 0 0 
0 0 0 1 0 0 0 0 0 
0 0 0 0 0 0 0 0 0 
0 0 0 0 0 0 0 0 0 
0 0 0 0 0 0 0 0 0 
0 0 0 0 0 0 0 0 0 
0 0 0 0 0 0 0 0 0 
0 0 0 0 0 0 0 0 0 
-1 0 0 0 0 0 1 -1 0 
0 0 0 1 -1 0 0 0 0 
0 0 0 0 0 0 0 0 0 
0 0 0 -1 0 0 0 0 0 
1 0 0 1 0 0 0 0 0 
0 -1 0 0 0 0 0 -1 0 
0 0 0 0 0 0 0 0 0 
0 0 0 0 0 0 1 -1 0 
0 0 0 0 -1 0 0 -1 0 
0 0 0 0 0 0 -1 -1 0 
-1 -1 0 0 1 0 1 0 0 
0 0 0 0 0 0 0 0 0 
0 1 0 0 1 0 -1 0 0 
0 0 0 0 0 0 1 0 0 
0 0 0 0 1 0 0 0 0 
0 0 0 0 0 0 0 1 0 
0 0 0 0 0 0 0 0 0 
0 0 0 0 0 0 0 0 0 
1 0 0 0 -1 0 0 0 0 
0 0 0 0 0 0 0 0 0 
0 1 0 0 0 0 0 0 0 
0 0 0 0 0 0 0 0 0 
0 0 0 0 0 0 0 1 0 
0 0 0 0 1 0 0 0 0 
0 0 0 -1 0 0 0 0 0 
0 0 0 0 0 0 0 0 0 
0 0 0 0 0 0 0 0 0 
0 0 0 0 0 0 0 0 0 
0 0 0 0 0 0 1 0 0 
0 0 0 0 0 0 0 0 0 
0 0 0 0 0 0 0 0 0 
0 0 0 0 0 0 0 0 0 
0 0 0 0 0 0 0 0 0 
0 0 0 0 0 0 0 0 0 
0 0 0 0 -1 0 -1 0 0 
-1 0 0 1 -1 0 0 0 0 
0 0 0 0 0 0 0 0 0 
0 0 0 0 0 0 0 -1 0 
0 0 0 0 0 0 0 0 0 
0 0 0 0 0 0 0 0 0 
-1 0 0 0 0 0 0 0 0 
0 0 0 0 0 0 0 0 0 
0 0 0 1 0 0 0 0 0 
0 0 0 0 0 0 0 0 0 
0 0 0 0 0 0 0 0 0 
0 0 0 0 -1 0 -1 0 0 
0 0 0 0 0 0 0 0 0 
0 0 0 0 0 0 1 1 0 
0 0 0 0 0 0 0 0 0 
0 0 0 0 1 0 0 0 0 
0 1 0 0 0 0 0 1 0 
-1 0 0 0 1 0 1 0 0 
0 0 0 0 1 0 0 1 0 
0 0 0 0 0 0 0 0 0 
0 0 0 0 0 0 0 0 0 
0 0 0 0 0 0 0 0 0 
0 0 0 0 0 0 0 0 0 
0 0 0 0 0 0 0 0 0 
0 0 0 0 0 0 0 0 0 
0 0 0 0 0 0 0 0 0 
0 0 0 0 0 0 0 0 0 
0 0 0 -1 0 0 1 0 0 
0 0 0 0 0 0 0 0 0 
0 0 0 0 0 0 0 0 0 
0 0 0 0 0 0 0 0 0 
0 0 0 0 0 0 0 0 0 
0 0 0 -1 0 0 0 0 0 
0 0 0 0 0 0 0 0 0 
0 0 0 0 0 0 0 0 0 
0 0 0 0 0 0 0 0 0 
0 0 0 0 0 0 0 0 0 
0 0 0 0 0 0 0 0 0 
0 0 0 0 0 0 1 0 0 
0 0 0 0 0 0 0 0 0 
0 0 0 0 0 0 0 0 0 
0 0 0 0 0 0 0 0 0 
0 0 0 -1 0 0 -1 0 0 
-1 0 0 0 0 0 0 0 0 
0 0 0 0 0 0 0 0 0 
0 0 0 0 0 0 0 0 0 
0 0 0 0 0 0 0 0 0 
0 0 0 0 0 0 0 0 0 
0 0 0 0 0 0 0 0 0 
1 0 0 1 0 0 0 0 0 
0 0 0 0 0 0 0 0 0 
0 0 0 0 0 0 0 0 0 
0 0 0 0 0 0 0 0 0 
0 0 0 0 0 0 0 0 0 
0 0 0 1 0 0 0 0 0 
0 0 0 0 0 0 0 0 0 
0 0 0 0 0 0 0 -1 0 
0 0 0 0 0 0 0 0 0 
0 0 0 -1 -1 0 0 0 0 
-1 0 0 1 0 0 0 0 0 
0 0 0 0 0 0 0 0 0 
0 0 0 0 0 0 0 -1 0 
0 0 0 0 0 0 -1 0 0 
1 1 0 0 0 0 0 0 0 
0 0 0 0 1 0 0 0 0 
0 0 0 0 0 0 0 1 0 
0 0 0 0 0 0 1 0 0 
0 0 0 1 0 0 0 0 0 
1 0 0 0 0 0 0 0 0 
0 0 0 0 0 0 0 0 0 
0 0 0 -1 1 0 -1 0 0 
0 0 0 0 1 0 0 0 0 
0 0 0 0 0 0 0 0 0 
0 0 0 0 0 0 0 0 0 
0 0 0 0 0 0 0 0 0 
0 0 0 0 0 0 0 0 0 
0 0 0 0 0 0 0 0 0 
0 0 0 0 0 0 0 0 0 
0 0 0 0 0 0 0 0 0 
-1 0 0 0 0 0 0 0 0 
0 0 0 0 0 0 0 0 0 
0 0 0 0 0 0 0 0 0 
0 0 0 -1 0 0 0 0 0 
0 0 0 0 0 0 0 0 0 
0 0 0 0 0 0 0 0 0 
0 0 0 0 0 0 0 0 0 
0 0 0 0 0 0 0 0 0 
0 0 0 0 0 0 0 0 0 
0 0 0 0 0 0 0 0 0 
0 0 0 0 0 0 0 0 0 
0 0 0 0 0 0 0 0 0 
0 0 0 0 0 0 0 0 0 
0 0 0 0 0 0 0 0 0 
0 0 0 1 0 0 0 0 0 
1 0 0 0 0 0 0 0 0 
0 0 0 0 0 0 0 0 0 
0 0 0 0 0 0 0 0 0 
0 0 0 0 0 0 0 0 0 
0 -1 0 0 0 0 0 0 0 
0 0 0 0 -1 0 0 -1 0 
0 0 0 0 0 0 0 0 0 
0 0 0 0 -1 0 0 0 0 
0 0 0 0 0 0 1 0 0 
0 0 0 0 0 0 0 0 0 
0 0 0 0 0 0 0 0 0 
0 0 0 0 0 0 0 0 0 
0 0 0 0 0 0 0 0 0 
0 0 0 0 0 0 0 0 0 
0 0 0 0 0 0 0 0 0 
0 0 0 0 0 0 0 0 0 
0 0 0 -1 0 0 0 0 0 
0 0 0 0 0 0 0 0 0 
0 0 0 0 0 0 0 0 0 
0 0 0 0 0 0 0 0 0 
0 0 0 0 0 0 0 0 0 
0 0 0 0 0 0 0 0 0 
0 0 0 0 0 0 0 0 0 
0 0 0 0 0 0 0 0 0 
0 0 0 0 0 0 0 0 0 
0 0 0 0 0 0 0 0 0 
0 0 0 0 0 0 0 0 0 
0 0 0 0 0 0 0 0 0 
0 0 0 0 0 0 0 0 0 
0 0 0 0 0 0 0 0 0 
0 0 0 0 0 0 0 0 0 
0 0 0 0 0 0 1 0 0 
0 0 0 0 0 0 0 0 0 
0 0 0 0 0 0 0 0 0 
0 0 0 0 0 0 0 0 0 
0 0 0 0 0 0 1 0 0 
0 0 0 0 0 0 0 0 0 
0 0 0 0 0 0 0 0 0 
0 0 0 0 0 0 0 0 0 
1 -1 0 0 0 0 0 0 0 
0 0 0 0 0 0 0 0 0 
0 0 0 0 0 0 0 0 0 
0 0 0 0 0 0 0 -1 0 
0 0 0 0 0 0 0 0 0 
0 -1 0 0 0 0 0 0 0 
0 0 0 0 0 0 0 0 0 
0 1 0 0 0 0 0 0 0 
0 0 0 0 0 0 0 0 0 
0 0 0 0 0 0 0 0 0 
0 1 0 0 0 0 0 0 0 
0 0 0 0 0 0 0 0 0 
0 0 0 0 1 0 0 0 0 
0 0 0 0 0 0 0 0 0 
0 1 0 0 0 0 0 0 0 
0 0 0 0 0 0 0 0 0 
0 0 0 0 0 0 0 0 0 
0 0 0 0 0 0 0 0 0 
0 0 0 -1 0 0 0 0 0 
0 0 0 0 0 0 0 0 0 
0 0 0 0 0 0 0 0 0 
0 0 0 0 0 0 0 0 0 
-1 0 0 0 0 0 0 0 0 
0 0 0 0 0 0 0 0 0 
0 0 0 0 0 0 0 0 0 
0 0 0 0 0 0 0 0 0 
0 0 0 -1 0 0 0 0 0 
0 0 0 0 0 0 0 0 0 
0 0 0 0 0 0 0 0 0 
0 0 0 0 0 0 0 0 0 
0 0 0 0 0 0 0 0 0 
0 0 0 0 0 0 0 0 0 
0 0 0 0 0 0 0 0 0 
0 0 0 0 0 0 0 0 0 
0 0 0 0 0 0 0 0 0 
0 0 0 0 0 0 0 0 0 
0 0 0 0 0 0 0 0 0 
0 0 0 0 0 0 0 0 0 
0 0 0 0 0 0 0 0 0 
0 0 0 0 0 0 1 0 0 
0 0 0 1 0 0 0 0 0 
0 0 0 0 0 0 0 0 0 
0 0 0 0 0 0 0 0 0 
-1 0 0 0 0 0 0 0 0 
0 0 0 0 0 0 0 -1 0 
0 0 0 0 0 0 0 0 0 
0 -1 0 0 -1 0 0 0 0 
0 -1 0 0 0 0 0 -1 0 
0 -1 0 1 0 0 1 0 0 
0 0 0 0 0 0 0 0 0 
0 1 0 0 0 0 0 0 0 
0 0 0 0 0 0 0 0 0 
0 0 0 0 0 0 0 1 0 
0 0 0 0 0 0 0 0 0 
0 0 0 0 0 0 0 0 0 
0 0 0 0 0 0 0 0 0 
0 0 0 0 0 0 0 0 0 
0 0 0 0 0 0 0 0 0 
0 0 0 0 0 0 0 0 0 
0 0 0 0 0 0 0 0 0 
0 0 0 0 0 0 0 0 0 
0 0 0 0 0 0 0 0 0 
0 0 0 0 0 0 0 0 0 
0 0 0 0 0 0 0 0 0 
0 0 0 0 0 0 0 0 0 
0 0 0 0 0 0 0 0 0 
0 0 0 0 0 0 0 0 0 
0 0 0 0 0 0 0 0 0 
0 0 0 0 0 0 0 0 0 
0 0 0 0 0 0 0 0 0 
0 0 0 0 0 0 0 0 0 
0 0 0 0 0 0 0 0 0 
0 0 0 0 0 0 0 0 0 
0 0 0 0 0 0 0 0 0 
0 0 0 0 0 0 1 0 0 
0 0 0 0 0 0 0 0 0 
0 0 0 0 0 0 0 0 0 
0 0 0 0 0 0 0 0 0 
0 0 0 0 0 0 0 0 0 
0 0 0 0 0 0 0 0 0 
0 0 0 0 0 0 0 0 0 
0 0 0 0 0 0 0 0 0 
0 0 0 0 0 0 0 0 0 
0 0 0 0 0 0 0 0 0 
0 0 0 0 0 0 0 0 0 
0 0 0 0 0 0 0 0 0 
0 0 0 0 0 0 0 0 0 
0 0 0 0 0 0 0 0 0 
0 0 0 0 0 0 0 0 0 
0 0 0 0 0 0 0 -1 0 
0 0 0 0 0 0 0 0 0 
0 0 0 0 0 0 0 0 0 
1 0 0 0 0 0 0 0 0 
0 0 0 0 0 0 0 0 0 
0 0 0 0 0 0 0 0 0 
0 0 0 0 0 0 0 0 0 
0 0 0 0 0 0 0 0 0 
0 0 0 0 0 0 0 1 0 
0 0 0 0 0 0 0 0 0 
0 0 0 0 0 0 0 0 0 
0 0 0 0 0 0 1 0 0 
0 0 0 0 0 0 0 0 0 
0 0 0 0 0 0 0 0 0 
0 0 0 0 0 0 0 0 0 
0 0 0 0 0 0 0 0 0 
0 0 0 0 0 0 0 0 0 
0 0 0 0 0 0 0 0 0 
0 0 0 0 0 0 0 0 0 
0 0 0 1 0 0 0 0 0 
0 0 0 0 0 0 0 0 0 
0 0 0 0 0 0 0 0 0 
0 0 0 0 0 0 0 0 0 
0 0 0 0 0 0 -1 0 0 
0 0 0 0 0 0 0 0 0 
0 0 0 0 0 0 0 0 0 
0 0 0 0 0 0 0 0 0 
0 0 0 0 0 0 0 0 0 
0 0 0 0 0 0 0 0 0 
0 0 0 0 0 0 0 0 0 
0 0 0 0 0 0 0 0 0 
0 0 0 0 0 0 0 0 0 
0 0 0 0 0 0 0 0 0 
0 0 0 0 0 0 0 0 0 
0 0 0 0 0 0 0 0 0 
0 0 0 -1 0 0 1 0 0 
0 0 0 0 0 0 0 0 0 
0 0 0 0 0 0 0 0 0 
0 -1 0 0 0 0 0 0 0 
0 0 0 0 -1 0 0 0 0 
0 -1 0 0 0 0 0 -1 0 
0 0 0 0 0 0 0 0 0 
0 0 0 0 0 0 0 0 0 
0 -1 0 0 0 0 0 0 0 
0 1 0 0 0 0 0 0 0 
0 0 0 -1 0 0 -1 1 0 
1 0 0 1 0 0 0 0 0 
0 0 0 0 0 0 0 0 0 
0 0 0 0 0 0 0 0 0 
0 0 0 0 0 0 0 1 0 
-1 0 0 0 0 0 0 0 0 
0 0 0 0 0 0 0 0 0 
0 0 0 0 0 0 0 0 0 
0 0 0 -1 0 0 1 0 0 
0 0 0 0 0 0 0 0 0 
0 0 0 0 0 0 0 0 0 
0 0 0 0 0 0 -1 0 0 
0 0 0 0 0 0 0 0 0 
0 0 0 0 0 0 0 0 0 
0 0 0 0 0 0 0 0 0 
0 0 0 0 0 0 0 0 0 
0 0 0 0 0 0 0 0 0 
0 0 0 0 0 0 0 0 0 
0 0 0 0 0 0 0 0 0 
0 0 0 0 0 0 0 0 0 
0 0 0 0 0 0 0 0 0 
0 0 0 0 0 0 0 0 0 
0 0 0 0 0 0 0 0 0 
0 0 0 0 0 0 0 0 0 
0 0 0 0 0 0 0 0 0 
0 0 0 0 0 0 0 0 0 
0 0 0 0 0 0 0 0 0 
0 0 0 1 0 0 0 0 0 
0 0 0 0 -1 0 0 0 0 
0 0 0 0 0 0 0 0 0 
0 0 0 0 0 0 -1 0 0 
0 0 0 0 0 0 0 0 0 
0 0 0 0 0 0 0 0 0 
0 0 0 0 0 0 0 -1 0 
0 0 0 0 0 0 0 -1 0 
0 0 0 0 0 0 0 0 0 
0 0 0 0 0 0 0 0 0 
0 0 0 0 0 0 0 0 0 
0 0 0 0 0 0 0 0 0 
0 0 0 0 0 0 0 0 0 
0 0 0 -1 0 0 0 0 0 
0 0 0 0 0 0 0 0 0 
0 0 0 0 0 0 0 0 0 
0 0 0 0 0 0 0 0 0 
0 0 0 0 0 0 0 0 0 
0 0 0 0 0 0 1 0 0 
1 0 0 0 0 0 0 0 0 
0 0 0 0 0 0 0 0 0 
0 0 0 0 0 0 0 0 0 
0 0 0 1 0 0 0 0 0 
0 0 0 0 0 0 0 0 0 
0 0 0 0 0 0 0 0 0 
0 0 0 0 0 0 0 0 0 
0 0 0 0 0 0 0 0 0 
0 0 0 0 0 0 1 0 0 
0 0 0 0 0 0 0 0 0 
0 0 0 0 0 0 0 0 0 
0 0 0 0 0 0 0 0 0 
0 0 0 0 0 0 0 0 0 
0 0 0 0 0 0 0 0 0 
0 0 0 0 0 0 0 0 0 
0 0 0 0 0 0 0 0 0 
0 0 0 0 0 0 0 0 0 
0 0 0 0 0 0 0 0 0 
0 0 0 0 0 0 0 0 0 
0 0 0 0 0 0 0 0 0 
0 0 0 0 0 0 0 0 0 
0 0 0 0 0 0 0 0 0 
0 0 0 0 0 0 0 0 0 
0 0 0 0 0 0 -1 0 0 
0 0 0 0 0 0 0 0 0 
0 0 0 0 0 0 0 0 0 
0 0 0 0 0 0 0 0 0 
0 0 0 0 0 0 0 0 0 
0 0 0 0 0 0 0 0 0 
0 0 0 0 0 0 0 -1 0 
0 0 0 0 -1 0 0 0 0 
0 0 0 0 0 0 0 0 0 
0 0 0 0 1 0 0 0 0 
0 0 0 0 0 0 0 0 0 
0 0 0 0 0 0 0 0 0 
0 0 0 0 0 0 0 0 0 
0 0 0 0 0 0 0 0 0 
0 0 0 0 0 0 0 0 0 
0 0 0 0 0 0 0 0 0 
0 0 0 0 0 0 0 0 0 
0 0 0 0 0 0 0 0 0 
0 0 0 0 0 0 0 0 0 
0 0 0 0 0 0 0 0 0 
0 0 0 0 0 0 0 0 0 
0 0 0 0 0 0 0 0 0 
0 0 0 0 0 0 0 0 0 
0 0 0 0 0 0 0 0 0 
0 0 0 0 0 0 0 0 0 
0 0 0 0 0 0 0 0 0 
0 0 0 0 0 0 0 0 0 
0 0 0 0 0 0 0 -1 0 
0 0 0 0 0 0 -1 0 0 
0 0 0 0 0 0 0 0 0 
0 0 0 0 0 0 0 0 0 
0 0 0 0 -1 0 0 -1 0 
0 0 0 0 0 0 0 0 0 
0 0 0 0 0 0 0 0 0 
0 0 0 0 0 0 0 0 0 
0 0 0 0 0 0 0 0 0 
0 0 0 0 0 0 0 0 0 
0 0 0 0 0 0 0 0 0 
0 0 0 0 0 0 0 0 0 
0 0 0 0 0 0 0 0 0 
0 0 0 0 0 0 0 0 0 
0 0 0 0 0 0 0 0 0 
0 0 0 0 0 0 0 0 0 
0 0 0 0 0 0 0 0 0 
0 0 0 0 0 0 0 0 0 
0 0 0 0 0 0 0 0 0 
0 0 0 0 0 0 0 0 0 
0 0 0 0 0 0 0 0 0 
0 0 0 0 0 0 0 0 0 
0 0 0 0 0 0 0 0 0 
0 0 0 0 0 0 0 0 0 
0 0 0 0 0 0 0 0 0 
0 0 0 0 0 0 0 0 0 
0 0 0 0 0 0 0 0 0 

v 3 1344 double
-5.00846e-05 -4.77821e-05 2.02842e-05 -1.3936e-05 -8.80956e-05 -6.83022e-05 1.4819e-05 -4.39634e-05 -2.78432e-05 
-2.54987e-05 -4.87578e-05 -2.92049e-05 9.41839e-06 -4.0382e-05 -2.54903e-05 -3.47876e-05 -4.99767e-05 -5.07787e-05 
-2.02062e-05 -6.27996e-05 -4.62674e-05 -4.64192e-05 -5.17554e-05 -4.06456e-05 -4.71792e-05 -1.25615e-05 -6.0495e-05 
-7.54347e-05 -1.74645e-05 -7.72397e-06 -5.44022e-05 -9.26145e-06 1.13217e-05 -6.6884e-05 -1.98231e-05 3.32485e-05 
-5.48385e-05 -5.71504e-05 1.15041e-05 -3.79643e-05 -4.31723e-05 8.80868e-06 -3.13093e-05 -2.2818e-05 -1.9577e-05 
-6.70676e-05 1.30774e-05 -3.39749e-05 -4.58874e-05 1.34669e-05 -3.91254e-05 -4.49214e-05 -5.70533e-05 -1.26178e-05 
-5.27924e-05 -1.72314e-05 -4.82653e-05 -5.50099e-05 9.81844e-06 -1.58222e-05 -5.93153e-05 -1.16361e-05 2.29798e-05 
-7.24202e-05 -8.34243e-06 2.76891e-05 -6.02082e-05 -2.39866e-05 4.98368e-05 -5.35981e-05 -2.34115e-05 2.18034e-05 
-6.61099e-05 -6.80286e-05 -2.80536e-05 -8.78128e-05 -3.93362e-05 -2.58328e-05 -6.70938e-05 -1.78389e-06 -5.64731e-05 
-5.22172e-05 -7.45606e-05 -5.79217e-05 -4.09745e-05 -9.90805e-06 -6.66171e-05 -5.27172e-05 4.08147e-06 -3.82497e-05 
-5.33565e-05 -1.89198e-05 -7.8351e-06 -7.78919e-05 -1.66377e-05 3.20132e-05 -6.08638e-05 -1.87674e-06 2.41131e-05 
-4.18006e-05 8.21659e-06 9.26904e-06 -7.97564e-05 -3.84066e-05 -4.03963e-05 -0.000118755 4.21202e-06 -7.59903e-06 
-7.78118e-05 -3.1632e-05 -3.71591e-05 -4.10695e-05 -9.22215e-06 -6.32577e-05 -8.47613e-05 3.53297e-05 -7.35303e-05 
-8.18806e-05 -3.81039e-08 -4.82407e-05 -7.12053e-05 6.17207e-06 -4.25374e-05 -0.000105769 9.78403e-06 -6.41661e-05 
-7.98139e-05 -1.17062e-06 -2.96377e-05 -6.82858e-05 -3.79604e-07 -9.63066e-06 -8.62384e-05 1.54707e-05 1.45326e-05 
-7.2419e-05 -1.29034e-05 -1.09066e-05 -3.98913e-05 3.7373e-07 1.49074e-05 3.01909e-05 -7.36175e-05 -1.73582e-05 
-9.04748e-05 -1.2709e-05 -5.17729e-05 -8.87832e-05 1.24905e-05 -2.98606e-05 -8.52522e-05 -8.18095e-06 -5.0809e-05 
-8.28505e-05 -8.55161e-06 -1.92216e-05 -6.53434e-05 5.73041e-06 -4.32515e-05 -7.65739e-05 -7.3013e-06 -1.15655e-05 
-8.78697e-05 7.05609e-06 -1.5467e-05 6.98522e-05 -2.08141e-05 -9.33189e-06 -5.985e-05 7.54353e-06 -4.82386e-05 
-6.23555e-05 -4.66478e-06 -4.95043e-05 -9.74592e-05 -1.07195e-05 -5.11962e-05 -6.45003e-05 9.89568e-06 -3.58899e-05 
-9.06425e-05 -1.99082e-05 -4.98774e-05 -0.000112753 -1.5104e-05 -5.08325e-05 -0.000104885 -1.70423e-05 4.20925e-07 
-0.000169654 -3.53899e-05 -2.18012e-05 -8.04848e-05 -1.137e-05 -4.43171e-06 -7.17409e-05 5.74516e-06 -9.69876e-06 
-5.38198e-05 1.23983e-05 -5.06703e-05 -5.17936e-05 2.84453e-06 -7.30955e-05 -7.92319e-05 -2.96581e-06 -5.10678e-05 