# vtk DataFile Version 4.0
Generated by LIGGGHTS
ASCII
DATASET POLYDATA
POINTS 395 float
-0.00438559 -0.00438747 0.000500252 -0.00341808 -0.00463721 0.000498795 -0.0024654 -0.0049481 0.000500285 
-0.00167614 -0.00416256 0.000499554 -0.000514184 -0.00492402 0.0004992 0.000298391 -0.00432048 0.000498322 
0.00133035 -0.00454488 0.000500433 0.00243705 -0.0046238 0.000499701 0.00359346 -0.00451234 0.00049969 
0.00452767 -0.00414946 0.000500457 -0.00462728 -0.00341796 0.000499695 -0.00365712 -0.00366552 0.000499149 
-0.00265665 -0.00396669 0.000499328 -0.00198691 -0.00321039 0.00049961 -0.000699526 -0.00394208 0.000499253 
1.38385e-05 -0.00324115 0.000498283 0.000960045 -0.00356356 0.000499712 0.00194375 -0.00375432 0.000499214 
0.00294329 -0.00375272 0.0004994 0.00439878 -0.0031577 0.000499331 -0.00489209 -0.00245393 0.000498823 
-0.0039205 -0.00270015 0.000498874 -0.00295391 -0.00295488 0.000499531 -0.00174927 -0.00223944 0.000499809 
-0.00100987 -0.00299248 0.000499499 -0.000344139 -0.0022473 0.000501926 0.00065068 -0.00233689 0.000499147 
0.00149579 -0.00277414 0.000804204 0.00244018 -0.00288781 0.000498698 0.00343829 -0.00288373 0.000499303 
0.00414013 -0.0021698 0.00050593 -0.00465179 -0.00147965 0.000499731 -0.00368138 -0.00172168 0.00049975 
-0.00271534 -0.00198216 0.000499534 -0.00201746 -0.00126552 0.000499738 -0.00104226 -0.00153296 0.00049849 
-3.69662e-05 -0.00127965 0.00049938 0.000959205 -0.00135426 0.000499038 0.00181815 -0.00186433 0.000499586 
0.00282033 -0.00196095 0.000499661 0.00239208 -0.00104581 0.000499693 0.00341298 -0.0011467 0.000509176 
0.00441336 -0.00112199 0.000499765 -0.00397952 -0.000727305 0.000500827 -0.00322244 -1.35903e-05 0.000499593 
-0.00299453 -0.000994196 0.000502097 -0.00226115 -0.000289541 0.000501352 -0.00129749 -0.000564331 0.000498733 
0.000547358 -0.000400944 0.00049969 0.00157541 -0.000456527 0.00049907 0.00299924 -0.000236372 0.000499476 
0.004963 -0.00028674 0.000499388 -0.004191 0.000252515 0.000499274 -0.00350911 0.00101622 0.000499699 
-0.00254619 0.000722449 0.000499139 -0.00157597 0.000438864 0.000499371 -0.000603403 0.000158855 0.000497415 
0.000231676 0.000776317 0.000499428 0.00118642 0.000479758 0.000499575 0.00218134 0.000338277 0.00049945 
0.0029837 0.000933805 0.000500599 0.00388179 0.000233225 0.000499789 0.00476933 0.000693255 0.00049897 
-0.00270616 0.00175107 0.000499484 -0.00165813 0.00149896 0.000499713 -0.000711273 0.00115168 0.000499071 
9.50631e-05 0.00176799 0.000500482 0.00104919 0.00147 0.000499619 0.00203897 0.00132776 0.00050617 
0.00280187 0.00198374 0.000499436 0.00392484 0.00126988 0.000499525 0.0048427 0.00169143 0.000499431 
-0.0042011 0.00202767 0.000499482 -0.00448999 0.00298624 0.000499684 -0.00350684 0.0027476 0.000499369 
-0.00252114 0.00291134 0.000498638 -0.00151882 0.00286773 0.000498128 -0.00083131 0.00214311 0.000499994 
0.000771829 0.0025273 0.000498849 0.00174891 0.00228623 0.000501014 0.00250178 0.0029454 0.000499704 
0.00356336 0.00264963 0.000499143 0.00456629 0.00265234 0.000499257 -0.00483655 0.00395141 0.000498571 
-0.00379405 0.00370481 0.000498931 -0.00239626 0.00391109 0.000499352 -0.00139362 0.00385902 0.000499456 
-0.000542679 0.00309968 0.000499706 0.000551523 0.00365842 0.000499264 0.00147366 0.00326984 0.000509836 
0.00227183 0.00393113 0.000498732 0.0032319 0.00363308 0.000499672 0.00423054 0.00359381 0.000499238 
-0.00411954 0.00464935 0.000499672 -0.00319124 0.0044389 0.00080869 -0.00148709 0.0048539 0.000499174 
-0.000359741 0.00408251 0.00050072 0.000434293 0.0046898 0.000500535 0.00140241 0.00444185 0.000500689 
0.0029949 0.00457934 0.000729037 0.00396609 0.00456003 0.00050076 0.00489711 0.00491808 0.000498952 
-0.00486876 -0.003996 0.00128467 -0.00459809 -0.00495574 0.00135141 -0.00383047 -0.00424045 0.00131849 
-0.00289609 -0.00459351 0.0013493 -0.00211635 -0.00478026 0.00194524 -0.0013278 -0.00461919 0.00134194 
1.23217e-05 -0.00488152 0.00134639 0.00100957 -0.0048583 0.0013947 0.0020183 -0.00475319 0.00140943 
0.00302962 -0.0046164 0.0013192 0.00423003 -0.00476944 0.00122656 0.00429899 -0.00399191 0.00185369 
-0.00406463 -0.00325767 0.0013159 -0.00307421 -0.00354026 0.00130107 -0.00213668 -0.0039425 0.00135915 
-0.00147689 -0.00319071 0.00136103 -0.000569611 -0.00398334 0.00148946 0.00042371 -0.00390955 0.00139959 
0.00141947 -0.00394826 0.00132663 0.00180128 -0.00308136 0.00171915 0.00244271 -0.00380861 0.00136328 
0.00377135 -0.00370116 0.00105637 0.00495921 -0.00301192 0.00131419 -0.00429208 -0.00209187 0.00121083 
-0.00332302 -0.00233379 0.0012111 -0.00234594 -0.00260736 0.00121219 -0.0010511 -0.00224215 0.00121552 
-0.000416887 -0.00300253 0.00136567 0.000643905 -0.00292917 0.0013043 0.00227484 -0.0023086 0.00129573 
0.00300812 -0.00298499 0.00139645 0.00399334 -0.002755 0.00131977 0.0047114 -0.00204365 0.00133492 
-0.00385945 -0.0012052 0.00137221 -0.00285465 -0.0014395 0.00140023 -0.00189519 -0.00172529 0.00137974 
-0.000985967 -0.00125506 0.00145556 -1.32549e-05 -0.00179479 0.00135525 0.00112227 -0.00196127 0.00129598 
0.00169282 -0.00114538 0.00121367 0.00263924 -0.00138691 0.00142674 0.00349393 -0.0018826 0.00123434 
0.00419853 -0.00121379 0.00155375 -0.00480424 -0.000868233 0.00127734 -0.00379731 -0.000174052 0.00131291 
-0.00282494 -0.000425551 0.00132057 -0.001867 -0.000710177 0.00131796 -0.00115901 1.17155e-06 0.00131005 
-0.000335375 -0.000566342 0.0011323 0.000559527 -0.000966173 0.00132834 0.00109289 -0.000123786 0.00130789 
0.00229534 -0.000348025 0.00121696 0.00334069 -0.000638276 0.00136995 0.0043145 -0.000253426 0.00125863 
-0.00480164 0.000270013 0.00129592 -0.00311592 0.000566888 0.00130564 -0.00401436 0.000720672 0.00171331 
-0.00213395 0.000297427 0.00131644 -0.00130593 0.00099228 0.00129492 -0.000351837 0.000688407 0.00130803 
0.000462096 0.000445127 0.00183428 0.00183188 0.000277906 0.00184643 0.00241964 0.000900934 0.00132865 
0.00325396 0.000352774 0.00126893 0.00417976 0.000739442 0.00130883 -0.00442121 0.00113872 0.000898955 
-0.00416818 0.00174156 0.00166129 -0.00324927 0.0015572 0.00131574 -0.00226229 0.00128817 0.00127191 
-0.00159881 0.00177968 0.00183634 -0.000480556 0.00167999 0.0013176 0.000470373 0.00131148 0.00130915 
0.00142644 0.00101691 0.00130783 0.00219689 0.0019009 0.00132526 0.00322113 0.00150634 0.00128481 
0.0048361 0.00147747 0.00147448 -0.00480723 0.00237589 0.0012264 -0.00297689 0.00251847 0.00131521 
-0.00204816 0.00224269 0.00106982 -0.00112964 0.0025298 0.00137185 -4.00486e-06 0.00253896 0.0011294 
0.000410394 0.00209685 0.00192477 0.0011895 0.00205638 0.001298 0.0018846 0.00287147 0.00133661 
0.00297303 0.00255951 0.00130081 0.00406474 0.00204421 0.00111618 0.00438687 0.00268336 0.00181385 
-0.00395835 0.00313467 0.00137183 -0.0030503 0.00349767 0.00113216 -0.00199952 0.00334836 0.00123023 
-0.00101712 0.00352269 0.00137158 -1.33315e-05 0.00363145 0.00132372 0.000879624 0.00310426 0.00130292 
0.00267036 0.00351854 0.00132027 0.00371852 0.00324041 0.00129066 0.00487133 0.00332217 0.00121744 
-0.00428321 0.00409635 0.00131701 -0.00366057 0.0048193 0.00161377 -0.00273326 0.00444576 0.00170196 
-0.00183117 0.00433226 0.00128221 -0.00083382 0.00450119 0.00127754 0.000838554 0.004155 0.00131739 
0.0018833 0.00425835 0.00135823 0.00272435 0.00456261 0.00180705 0.00365865 0.00424567 0.00139898 
0.00468084 0.00433971 0.00128712 -0.00429775 -0.00466533 0.00225963 -0.0034003 0.00479765 0.00257878 
-0.00281342 -0.00411894 0.00222515 -0.00140473 -0.0039673 0.00210762 -0.00046536 -0.00475888 0.00221517 
0.00141654 -0.00441466 0.00220981 0.00299519 -0.00409827 0.00219641 0.0036522 -0.00497455 0.00202498 
-0.004875 -0.00352652 0.00217004 -0.00390047 -0.00375038 0.00218746 -0.00242657 -0.00322545 0.00199414 
-0.000270621 -0.00378808 0.00242343 0.000972617 -0.00347859 0.00211497 0.00190078 -0.00320485 0.00271518 
0.00365123 -0.00325525 0.00211445 -0.00441477 -0.00265031 0.00203092 -0.00337689 -0.0029146 0.00202251 
-0.00269386 -0.00218245 0.00207067 -0.00258064 -0.0027935 0.00289514 -0.00161479 -0.00244435 0.00201687 
-0.00078398 -0.00293513 0.00229205 9.79439e-05 -0.00250557 0.00206971 0.00109212 -0.0024691 0.00215619 
0.00293705 -0.00214821 0.00203978 0.00377024 -0.00224514 0.00259187 0.00459009 -0.00261103 0.00215194 
-0.00464608 -0.0015695 0.00199164 -0.004795 -0.00102057 0.00289667 -0.00369542 -0.00193227 0.00204739 
-0.00145709 -0.001004 0.00229864 -0.000727565 -0.00194651 0.00212828 -0.000230778 -0.00101506 0.00206989 
8.53229e-05 -0.00170153 0.00272619 0.000869685 -0.00147319 0.00213166 0.00182907 -0.0017541 0.00199769 
0.00342889 -0.00124489 0.0021914 -0.00425087 -0.000634734 0.00209335 -0.00327371 -0.000855556 0.0021047 
-0.00239115 -0.00077651 0.00256916 -0.00169717 -4.70143e-05 0.00214841 -0.000410853 -2.64547e-05 0.00200433 
0.00108309 -0.000494239 0.00224258 0.00202884 -0.000776925 0.00207992 0.00275728 -3.90084e-05 0.00205266 
0.00379227 2.62329e-05 0.00216332 0.00475082 -0.00055744 0.00211665 0.00418385 -0.000979719 0.00282323 
-0.0033255 0.000145389 0.0021875 -0.00255671 0.000809126 0.00209808 -0.000958798 0.000784084 0.00221553 
0.000501949 0.000106669 0.00280226 0.00105057 0.000939137 0.00247348 0.00230751 0.000799789 0.00256431 
0.00320411 0.000866554 0.00212556 0.0048354 0.000715383 0.00211692 -0.00343447 0.00130028 0.00228286 
-0.0026143 0.00181751 0.00204318 -0.00179119 0.00113777 0.00265509 -7.30326e-05 0.00124696 0.00214598 
0.0017866 0.00156266 0.00217574 0.00277834 0.00177216 0.00214167 0.0039616 0.00150336 0.00196133 
-0.00491435 0.00209747 0.00222161 -0.00413861 0.00180588 0.00277957 -0.00366973 0.0024982 0.00212142 
-0.00227419 0.00275514 0.00198561 -0.00268106 0.00297007 0.0030314 -0.00133436 0.00283214 0.00231529 
-0.000699258 0.00204356 0.00222608 -0.000416077 0.00295945 0.00194449 3.96209e-05 0.00253634 0.0027426 
0.00136163 0.00259966 0.00214483 0.000968732 0.00189955 0.00273895 0.0030177 0.00254913 0.00272697 
0.0042042 0.00214585 0.00268954 -0.00473157 0.00307555 0.0021012 -0.00356571 0.00386124 0.00197169 
-0.00264392 0.00363397 0.0022843 -0.00166766 0.00376159 0.0021116 0.000447272 0.00339842 0.00222834 
0.00149789 0.00357467 0.00197517 0.00238582 0.00311902 0.00219376 0.00385501 0.00308036 0.00259031 
0.00320526 0.00374486 0.00213667 0.00434848 0.00372447 0.00200304 -0.00477463 0.00442132 0.0021244 
-0.0012944 0.0046875 0.00214381 -5.33151e-05 0.00434796 0.00204208 0.00104696 0.00455949 0.00220688 
0.00174056 0.00410838 0.00278402 0.00274311 0.00498404 0.00272307 0.00452214 0.00501243 0.00251885 
0.00420077 -0.00449259 0.00337711 0.0023104 -0.00411528 0.00294379 0.000400121 -0.00398984 0.00318182 
-0.00393437 -0.00239052 0.00290938 -0.00381994 -0.00128977 0.00283254 -0.00198819 -0.00172628 0.00281915 
-0.000858204 -0.001425 0.00297893 0.00191409 -0.00175884 0.00300497 0.00305582 -0.00167689 0.00306709 
-0.00416035 0.000320564 0.00271206 -0.00174592 0.000229427 0.00310628 0.00339201 0.00162238 0.00298741 
-0.000571102 0.00174965 0.0031723 0.00314569 0.00347758 0.00328691 0.00144469 -0.000221873 0.00325379 
0.000316747 -0.000498753 0.00363321 -0.00143375 0.00140224 0.00355314 -0.000745135 0.00365073 0.00260426 
0.000524013 -0.00297916 0.0028556 -0.00272066 0.000528356 0.00304356 0.00267657 -0.00260155 0.00293365 
0.00447553 0.000375524 0.00298245 0.00129672 -0.00297523 0.00352406 0.000885907 0.00355535 0.00316029 
-0.00182406 -0.00344369 0.00284585 0.00320806 0.00234759 0.00369299 -0.00280534 -0.00124586 0.00335318 
-0.00151219 0.00255536 0.0035991 -0.00184817 0.00359355 0.00335425 0.00154862 0.00417865 0.00377094 
-0.00324313 -6.63716e-05 0.00395983 0.00288315 0.00430624 0.0202591 0.00174343 0.00383165 0.0204478 
-0.0011955 0.00431493 0.0202497 -0.00287978 0.00421561 0.0204044 0.00038395 0.00413449 0.0202794 
0.00338394 0.00219172 0.0204239 0.00109811 0.00282097 0.0204113 -0.00189023 0.00322449 0.0203765 
3.46959e-05 0.00235903 0.0203804 -0.00017023 0.00131277 0.020389 -0.00301154 0.00285519 0.0204743 
-0.00443056 0.00242436 0.0203797 0.00367855 0.00123862 0.0203344 -0.00180024 -0.0044697 0.00613095 
0.00301958 -0.0044712 0.00589515 0.00377651 -0.00378042 0.00658624 -0.0042669 -0.00273655 0.0057897 
0.00449369 -0.00288199 0.00625584 -0.0020009 0.00050835 0.00555108 0.000246892 0.00176978 0.00624549 
-0.00307568 0.00334676 0.0109592 -0.00438335 0.00159277 0.0154619 -0.00418166 0.00437911 0.0169946 
-0.000447085 -0.00422569 0.0199535 -0.0031555 -0.00314765 0.0178637 -0.00261747 -0.00399795 0.0180521 
0.00252806 -0.00385724 0.0201525 0.00323968 -0.00310458 0.0200004 -0.00144282 -0.00265329 0.0201175 
-9.38598e-05 -0.0023468 0.0196162 0.000781508 -0.00119968 0.0201433 0.00441121 -0.00171291 0.0197526 
0.0038189 -0.000855615 0.020068 -0.00424679 0.00010085 0.0201814 0.00300916 0.000107568 0.0201673 
-0.00134965 0.00119415 0.0199716 0.00115794 0.00136298 0.0201652 0.00219345 0.0020441 0.0191224 
0.00445558 0.00256244 0.0202387 -0.00433612 0.00339819 0.0201582 -0.000726055 0.00304168 0.0201704 
0.00250434 0.00341691 0.0193893 0.00423398 0.00398615 0.0200274 0.000958647 -0.00442968 0.0204968 
-0.00417059 -0.00388018 0.0202752 -0.0013715 -0.00395504 0.0203487 0.000468496 -0.00356643 0.0202901 
0.00151256 -0.00326353 0.0204699 0.00425291 -0.00393865 0.0204965 -0.00422572 -0.00207895 0.0204558 
-0.00245869 -0.00276639 0.0204576 0.00138666 -0.00205697 0.0202466 0.00257533 -0.00249895 0.0204969 
-0.00267685 -0.00150458 0.020381 -0.000633981 -0.00143061 0.0204767 0.00242716 -0.00111331 0.0204706 
-0.00383931 -0.000872025 0.0202525 -0.00185261 -0.000844513 0.0202572 0.00146517 -0.000249496 0.020475 
-0.00361351 0.000879943 0.0202977 -0.0025744 0.000360827 0.0204355 -0.00144348 0.00010549 0.0203562 
0.000113317 0.000122546 0.0204061 -0.00266342 0.00138384 0.0204553 
VERTICES 395 790
1 0 
1 1 
1 2 
1 3 
1 4 
1 5 
1 6 
1 7 
1 8 
1 9 
1 10 
1 11 
1 12 
1 13 
1 14 
1 15 
1 16 
1 17 
1 18 
1 19 
1 20 
1 21 
1 22 
1 23 
1 24 
1 25 
1 26 
1 27 
1 28 
1 29 
1 30 
1 31 
1 32 
1 33 
1 34 
1 35 
1 36 
1 37 
1 38 
1 39 
1 40 
1 41 
1 42 
1 43 
1 44 
1 45 
1 46 
1 47 
1 48 
1 49 
1 50 
1 51 
1 52 
1 53 
1 54 
1 55 
1 56 
1 57 
1 58 
1 59 
1 60 
1 61 
1 62 
1 63 
1 64 
1 65 
1 66 
1 67 
1 68 
1 69 
1 70 
1 71 
1 72 
1 73 
1 74 
1 75 
1 76 
1 77 
1 78 
1 79 
1 80 
1 81 
1 82 
1 83 
1 84 
1 85 
1 86 
1 87 
1 88 
1 89 
1 90 
1 91 
1 92 
1 93 
1 94 
1 95 
1 96 
1 97 
1 98 
1 99 
1 100 
1 101 
1 102 
1 103 
1 104 
1 105 
1 106 
1 107 
1 108 
1 109 
1 110 
1 111 
1 112 
1 113 
1 114 
1 115 
1 116 
1 117 
1 118 
1 119 
1 120 
1 121 
1 122 
1 123 
1 124 
1 125 
1 126 
1 127 
1 128 
1 129 
1 130 
1 131 
1 132 
1 133 
1 134 
1 135 
1 136 
1 137 
1 138 
1 139 
1 140 
1 141 
1 142 
1 143 
1 144 
1 145 
1 146 
1 147 
1 148 
1 149 
1 150 
1 151 
1 152 
1 153 
1 154 
1 155 
1 156 
1 157 
1 158 
1 159 
1 160 
1 161 
1 162 
1 163 
1 164 
1 165 
1 166 
1 167 
1 168 
1 169 
1 170 
1 171 
1 172 
1 173 
1 174 
1 175 
1 176 
1 177 
1 178 
1 179 
1 180 
1 181 
1 182 
1 183 
1 184 
1 185 
1 186 
1 187 
1 188 
1 189 
1 190 
1 191 
1 192 
1 193 
1 194 
1 195 
1 196 
1 197 
1 198 
1 199 
1 200 
1 201 
1 202 
1 203 
1 204 
1 205 
1 206 
1 207 
1 208 
1 209 
1 210 
1 211 
1 212 
1 213 
1 214 
1 215 
1 216 
1 217 
1 218 
1 219 
1 220 
1 221 
1 222 
1 223 
1 224 
1 225 
1 226 
1 227 
1 228 
1 229 
1 230 
1 231 
1 232 
1 233 
1 234 
1 235 
1 236 
1 237 
1 238 
1 239 
1 240 
1 241 
1 242 
1 243 
1 244 
1 245 
1 246 
1 247 
1 248 
1 249 
1 250 
1 251 
1 252 
1 253 
1 254 
1 255 
1 256 
1 257 
1 258 
1 259 
1 260 
1 261 
1 262 
1 263 
1 264 
1 265 
1 266 
1 267 
1 268 
1 269 
1 270 
1 271 
1 272 
1 273 
1 274 
1 275 
1 276 
1 277 
1 278 
1 279 
1 280 
1 281 
1 282 
1 283 
1 284 
1 285 
1 286 
1 287 
1 288 
1 289 
1 290 
1 291 
1 292 
1 293 
1 294 
1 295 
1 296 
1 297 
1 298 
1 299 
1 300 
1 301 
1 302 
1 303 
1 304 
1 305 
1 306 
1 307 
1 308 
1 309 
1 310 
1 311 
1 312 
1 313 
1 314 
1 315 
1 316 
1 317 
1 318 
1 319 
1 320 
1 321 
1 322 
1 323 
1 324 
1 325 
1 326 
1 327 
1 328 
1 329 
1 330 
1 331 
1 332 
1 333 
1 334 
1 335 
1 336 
1 337 
1 338 
1 339 
1 340 
1 341 
1 342 
1 343 
1 344 
1 345 
1 346 
1 347 
1 348 
1 349 
1 350 
1 351 
1 352 
1 353 
1 354 
1 355 
1 356 
1 357 
1 358 
1 359 
1 360 
1 361 
1 362 
1 363 
1 364 
1 365 
1 366 
1 367 
1 368 
1 369 
1 370 
1 371 
1 372 
1 373 
1 374 
1 375 
1 376 
1 377 
1 378 
1 379 
1 380 
1 381 
1 382 
1 383 
1 384 
1 385 
1 386 
1 387 
1 388 
1 389 
1 390 
1 391 
1 392 
1 393 
1 394 

POINT_DATA 395
FIELD FieldData 7
id 1 395 int
17 57 74 16 56 69 113 31 48 
91 108 72 7 89 133 107 70 28 
51 102 36 80 12 95 18 19 104 
97 22 14 29 88 60 45 78 148 
61 1 26 65 103 68 10 27 94 
15 110 105 62 96 82 46 43 101 
37 90 59 42 55 4 114 2 77 
54 21 40 25 53 23 35 58 33 
92 9 109 8 20 112 13 6 5 
47 52 38 67 32 3 34 39 44 
85 41 79 63 71 24 50 11 30 
81 87 49 137 144 164 146 176 149 
222 167 118 168 125 173 124 99 194 
218 190 116 162 197 153 206 179 73 
115 121 157 161 139 136 155 231 98 
170 64 128 181 76 195 214 86 123 
159 156 117 138 236 209 169 202 187 
75 147 160 171 127 211 165 120 212 
257 225 177 142 129 93 119 151 126 
175 207 174 145 66 140 208 84 152 
134 130 131 189 172 100 200 158 205 
196 122 106 154 143 141 166 83 135 
215 221 249 111 150 183 192 216 203 
132 220 326 229 188 319 260 278 223 
248 242 219 289 273 330 270 224 163 
193 276 199 320 275 245 227 267 253 
204 304 239 268 254 233 240 258 256 
266 281 259 314 252 271 263 210 191 
282 243 296 213 272 235 288 295 317 
186 185 230 198 251 250 244 264 226 
265 287 237 246 294 279 234 184 286 
201 332 255 324 228 277 232 280 262 
238 247 241 178 269 180 182 217 274 
318 291 334 285 337 301 300 299 336 
283 310 316 261 308 321 322 297 302 
338 323 312 329 303 292 284 309 311 
307 335 325 290 306 328 298 360 351 
363 383 369 367 346 387 372 395 359 
393 365 331 293 305 315 327 313 333 
355 379 373 394 343 340 342 370 378 
345 380 374 364 389 344 357 362 361 
392 349 353 377 352 385 371 366 354 
390 386 350 384 376 356 368 347 341 
375 391 388 348 382 339 381 358 
type 1 395 int
1 1 1 1 1 1 1 1 1 
1 1 1 1 1 1 1 1 1 
1 1 1 1 1 1 1 1 1 
1 1 1 1 1 1 1 1 1 
1 1 1 1 1 1 1 1 1 
1 1 1 1 1 1 1 1 1 
1 1 1 1 1 1 1 1 1 
1 1 1 1 1 1 1 1 1 
1 1 1 1 1 1 1 1 1 
1 1 1 1 1 1 1 1 1 
1 1 1 1 1 1 1 1 1 
1 1 1 1 1 1 1 1 1 
1 1 1 1 1 1 1 1 1 
1 1 1 1 1 1 1 1 1 
1 1 1 1 1 1 1 1 1 
1 1 1 1 1 1 1 1 1 
1 1 1 1 1 1 1 1 1 
1 1 1 1 1 1 1 1 1 
1 1 1 1 1 1 1 1 1 
1 1 1 1 1 1 1 1 1 
1 1 1 1 1 1 1 1 1 
1 1 1 1 1 1 1 1 1 
1 1 1 1 1 1 1 1 1 
1 1 1 1 1 1 1 1 1 
1 1 1 1 1 1 1 1 1 
1 1 1 1 1 1 1 1 1 
1 1 1 1 1 1 1 1 1 
1 1 1 1 1 1 1 1 1 
1 1 1 1 1 1 1 1 1 
1 1 1 1 1 1 1 1 1 
1 1 1 1 1 1 1 1 1 
1 1 1 1 1 1 1 1 1 
1 1 1 1 1 1 1 1 1 
1 1 1 1 1 1 1 1 1 
1 1 1 1 1 1 1 1 1 
1 1 1 1 1 1 1 1 1 
1 1 1 1 1 1 1 1 1 
1 1 1 1 1 1 1 1 1 
1 1 1 1 1 1 1 1 1 
1 1 1 1 1 1 1 1 1 
1 1 1 1 1 1 1 1 1 
1 1 1 1 1 1 1 1 1 
1 1 1 1 1 1 1 1 1 
1 1 1 1 1 1 1 1 
i 3 395 int
0 0 0 0 1 0 0 0 0 
0 0 0 0 0 0 0 0 0 
0 0 0 0 0 0 -1 0 0 
0 0 0 1 0 0 0 1 0 
0 0 0 0 0 0 0 0 0 
0 0 0 0 1 0 0 0 0 
0 0 0 -1 0 0 1 1 0 
1 1 0 0 0 0 0 0 0 
0 0 0 0 0 0 0 0 0 
0 0 0 0 0 0 0 0 0 
0 0 0 0 0 0 0 0 0 
0 0 0 0 0 0 0 0 0 
0 0 0 0 0 0 0 0 0 
0 0 0 0 0 0 0 0 0 
0 0 0 0 0 0 0 0 0 
0 0 0 0 0 0 0 0 0 
0 0 0 0 0 0 0 0 0 
0 0 0 1 0 0 0 0 0 
0 0 0 0 0 0 0 0 0 
0 0 0 0 0 0 0 0 0 
0 0 0 0 0 0 0 0 0 
0 0 0 0 0 0 0 0 0 
0 0 0 0 0 0 0 0 0 
0 0 0 0 0 0 -1 0 0 
0 0 0 0 0 0 1 -1 0 
0 0 0 1 -1 0 0 0 0 
0 0 0 0 0 0 0 0 0 
0 0 0 -1 0 0 1 0 0 
1 0 0 0 0 0 0 -1 0 
0 0 0 0 0 0 0 0 0 
0 0 0 0 0 0 0 0 0 
1 -1 0 0 0 0 0 -1 0 
0 -1 0 0 -1 0 0 0 0 
0 0 0 -1 -1 0 -1 -1 0 
1 0 0 0 1 0 1 0 0 
0 0 0 0 0 0 0 0 0 
0 1 0 0 1 0 0 1 0 
-1 0 0 0 0 0 0 0 0 
0 0 0 0 1 0 0 0 0 
0 0 0 0 0 0 0 1 0 
0 0 0 0 0 0 0 0 0 
0 0 0 0 0 0 0 -1 0 
0 0 0 0 0 0 0 0 0 
0 0 0 0 1 0 0 0 0 
0 0 0 0 0 0 -1 0 0 
0 0 0 0 0 0 0 0 0 
0 0 0 0 1 0 0 0 0 
0 1 0 0 0 0 0 0 0 
0 0 0 0 0 0 0 0 0 
0 0 0 0 0 0 0 0 0 
0 0 0 0 0 0 0 0 0 
0 0 0 0 0 0 0 0 0 
0 0 0 0 0 0 1 0 0 
0 0 0 0 0 0 0 0 0 
0 0 0 0 0 0 0 0 0 
0 0 0 0 0 0 0 0 0 
0 0 0 0 0 0 0 0 0 
0 0 0 0 0 0 0 0 0 
0 0 0 0 -1 0 -1 0 0 
-1 0 0 1 -1 0 0 0 0 
0 0 0 0 0 0 0 0 0 
0 0 0 0 0 0 0 -1 0 
0 0 0 0 0 0 0 0 0 
0 0 0 0 0 0 -1 0 0 
0 0 0 0 0 0 0 0 0 
0 0 0 0 0 0 0 0 0 
1 0 0 0 0 0 0 0 0 
0 0 0 0 0 0 0 0 0 
0 0 0 0 0 0 0 -1 0 
0 0 0 0 0 0 0 0 0 
0 0 0 0 1 0 0 0 0 
0 1 0 0 0 0 -1 1 0 
1 0 0 0 0 0 0 1 0 
0 0 0 0 0 0 0 0 0 
0 0 0 0 0 0 0 0 0 
0 0 0 0 0 0 0 0 0 
0 0 0 0 0 0 0 0 0 
0 0 0 0 0 0 -1 0 0 
1 0 0 0 0 0 0 0 0 
0 0 0 0 0 0 0 0 0 
0 0 0 0 0 0 0 0 0 
0 0 0 0 0 0 0 0 0 
0 0 0 0 0 0 0 0 0 
0 0 0 0 0 0 0 0 0 
0 0 0 0 0 0 0 0 0 
0 0 0 0 0 0 0 0 0 
0 0 0 0 0 0 0 0 0 
0 0 0 -1 0 0 0 0 0 
0 0 0 0 0 0 0 0 0 
0 0 0 0 0 0 0 0 0 
1 0 0 0 0 0 0 0 0 
0 0 0 0 0 0 0 0 0 
0 0 0 0 0 0 0 0 0 
0 0 0 0 0 0 0 0 0 
0 0 0 1 0 0 0 0 0 
0 0 0 0 0 0 0 -1 0 
0 0 0 0 0 0 0 0 0 
0 0 0 0 0 0 1 0 0 
0 0 0 0 0 0 0 -1 0 
0 0 0 0 0 0 0 0 0 
-1 0 0 0 0 0 0 0 0 
0 1 0 0 0 0 0 0 0 
0 0 0 0 0 0 0 0 0 
0 0 0 0 0 0 0 0 0 
0 0 0 0 0 0 0 0 0 
0 0 0 0 0 0 0 0 0 
0 0 0 0 0 0 0 0 0 
0 0 0 0 0 0 0 0 0 
0 0 0 0 0 0 0 0 0 
0 0 0 0 0 0 0 0 0 
0 0 0 0 0 0 0 0 0 
0 0 0 0 0 0 0 0 0 
0 0 0 0 0 0 0 0 0 
0 0 0 0 0 0 0 0 0 
0 0 0 0 0 0 0 0 0 
0 0 0 0 0 0 0 0 0 
0 0 0 0 0 0 0 0 0 
0 0 0 0 0 0 0 0 0 
0 0 0 0 0 0 0 0 0 
0 0 0 0 0 0 0 0 0 
0 0 0 0 0 0 0 0 0 
0 0 0 0 0 0 0 0 0 
0 0 0 0 0 0 0 0 0 
0 0 0 0 0 0 0 0 0 
0 0 0 0 0 0 0 0 0 
0 0 0 0 0 0 0 0 0 
0 0 0 0 0 0 0 0 0 
0 0 0 0 0 0 0 0 0 
0 0 0 0 0 0 0 0 0 
0 0 0 0 0 0 0 0 0 
0 0 0 0 0 0 0 0 0 
0 0 0 0 0 0 
v 3 395 double
0.00469594 0.00563556 0.00223238 0.00247138 0.000525144 0.000538064 -0.0187676 0.00468837 0.000227029 
-0.00168601 -0.00144085 0.000145734 -0.00922436 -0.00119649 0.00192555 -0.00420085 0.000750094 0.00452607 
0.0158156 0.000549201 0.0132465 -0.000621413 0.00410211 -3.15695e-05 0.00046895 0.000338699 -0.000142963 
-0.00120881 -0.00494964 -0.000199876 -0.00353893 0.00415108 0.0010736 -0.00299971 0.000160731 -0.000202748 
-0.00292164 0.000100314 0.00041504 -0.00171312 -0.000511028 0.00083366 -0.000878327 1.64798e-05 0.0016295 
0.00340521 0.00218266 -0.0115979 0.0013051 0.00218926 -0.000482361 0.00293903 -0.000515457 0.00212734 
-0.000852185 -0.001274 -0.00112486 0.00219883 -0.00262558 0.00366245 -0.00126509 0.00634921 0.00488916 
-0.000356905 0.000780112 0.00140115 -0.00396285 -0.00193231 -0.000253799 -0.00117266 0.000183325 0.00212451 
0.000357365 0.00132561 0.000382487 0.00235126 0.000150327 0.00190985 0.00141122 0.00424295 0.000572093 
9.66991e-05 -0.00244421 -0.00178054 -0.000544222 0.00204443 -0.0015835 0.000548111 0.00207109 -0.000251077 
-0.00435964 0.00461283 -0.00765855 -0.00346256 0.00214572 -6.46724e-05 -0.0034432 0.00161495 7.9915e-05 
-0.00090612 0.00304395 -0.000525969 -0.0032832 0.00379919 -0.000654802 0.00472163 9.0461e-05 0.00488837 
0.00396011 0.000738068 0.0013319 0.00754088 0.00103957 0.000248204 0.00752958 -0.00228186 0.000853922 
0.00151424 0.00103538 -0.000451745 -0.000488655 0.00174172 2.2124e-05 -0.00950618 -0.00849212 -0.00691941 
-0.00834381 -0.000510236 -0.000181561 -0.000194082 0.0013415 0.00449701 0.000860777 -0.00830023 0.00485528 
0.00295909 -0.00234696 -0.00515314 -0.000360369 -0.000789265 0.00440026 0.00699185 -0.00559719 -0.00337602 
0.0122079 0.0160928 0.0001935 0.00269927 0.00246294 0.000877804 -0.00106297 -0.00416958 0.000251865 
-0.0101102 -0.00369685 -0.00188852 -0.00441229 -0.00058869 0.00140418 -0.00634206 0.00307352 -4.47558e-06 
-0.00397947 0.00499912 0.00161755 0.00333528 0.000427085 0.00364009 0.0133278 -0.00448167 -0.00626986 
-0.004304 -9.35897e-06 -0.000264126 -0.00641118 -0.00934426 0.00183406 0.00160989 0.000664382 -0.00107109 
0.00470096 -0.00587727 0.000244068 -0.000755995 -0.00433027 -0.000223027 -0.0047147 0.00410901 0.00585765 
-0.00077165 0.00733014 0.00123523 -0.00635995 0.000960847 0.000487785 -0.00198612 -0.00185351 2.0162e-06 
-0.00348188 -0.000339703 0.00015168 -0.00372399 -0.00824214 0.00201194 -0.00159883 -0.00114705 0.00627444 
-0.00353416 -0.0067633 -0.000516978 0.00408819 -0.00394668 -0.000944286 0.000928959 0.00953631 -0.00770274 
0.00159116 0.00303764 -0.00163712 0.000141783 0.000721896 3.25329e-05 -0.00221288 0.00345939 -0.000975362 
-0.00379888 0.00609963 0.00189833 0.000438336 0.0049971 -0.00330417 -0.00295203 0.00234068 -0.00113934 
-0.0213766 -0.0282396 -0.0182808 -0.00307789 0.00106022 -0.0056609 -0.00364233 -0.00121303 0.000232095 
-0.00197018 -0.00180328 -0.000425597 -0.00167168 0.00293467 -0.00259898 -0.00599378 0.00727687 0.00491342 
-0.00853202 -0.0015483 -0.00311135 0.000961997 -0.0054966 0.000202925 0.00413596 0.00720714 0.00028798 
-0.00471051 0.00571286 0.00204516 -0.00366331 -0.0151844 0.0102914 0.00104488 -0.020258 0.0091335 
-0.00564946 0.015133 0.00911016 -0.00777553 0.000900646 -0.000720252 -0.00617059 -0.00062516 0.00100249 
-0.00334633 0.00167027 6.40079e-05 -0.0148439 -0.000210576 -0.00312931 -0.0148997 0.00707608 0.00165899 
0.00102717 0.00410865 0.00420647 -0.00134445 0.00756038 0.00378113 0.00522805 0.0197363 0.0104947 
0.00625207 0.00924797 0.00203441 0.00961855 -5.32584e-05 0.000401658 0.0146618 -0.00192863 -0.000445494 
0.00192607 0.000986121 0.00181354 0.00413503 0.00235617 0.00549436 0.00197837 -0.0033741 0.000238335 
-0.00116103 -0.000426853 0.00396329 -0.00323778 0.000754509 0.00361029 -0.0196187 0.000787683 0.0322901 
-0.00564009 0.00644945 0.00549808 -0.00721709 0.0137505 0.0257116 0.00431863 0.00569442 0.00520519 
0.00154583 0.000303973 0.00053285 -0.00802844 0.00382846 0.00676024 -0.00654346 0.00492576 0.00628872 
-0.00119941 0.00146705 -0.000859223 -0.00253881 -0.000121798 0.00148725 -0.00326177 -0.000672762 -0.000713895 
0.00092555 -0.00362306 -0.000564587 -0.00427963 0.00321308 0.00528458 0.00553608 0.0024287 0.0101828 
0.00806705 0.000940899 0.00531998 0.0327399 0.0171038 -0.00756731 0.00299229 -0.00341959 0.00211822 
-0.00593472 -8.29324e-05 0.00251869 -0.00304717 0.000818819 0.00226772 0.00498328 0.0069417 0.00916502 
0.00571806 0.00282574 0.00102161 -0.00798021 -7.43888e-05 0.00202357 0.00510374 0.00433048 -0.0120365 
0.00956397 0.00558823 -0.010756 -0.00271689 -0.00194117 -0.00970478 -0.00729437 -0.00353425 -0.000383666 
-0.00208056 0.000822049 0.000683256 -0.00344874 0.0011608 -0.000168478 -0.00945628 0.00053754 0.00134827 
-0.000598413 0.0127981 0.0198069 -0.00113808 -0.00103968 0.00106735 0.00178673 0.000622156 -0.00496567 
0.0386703 -0.00787195 0.0116338 -0.00101928 0.0199141 0.0124786 0.00122802 0.0033712 0.0011252 
0.0023289 0.00329271 0.00236261 -0.00077622 -0.00732036 0.00364501 -0.00676008 0.00308105 0.00607452 
-0.000436043 0.00308926 0.0151034 -0.0240314 -0.0170454 -0.00114097 -0.00365838 0.0047216 0.00594176 
0.0033149 -0.00763996 0.0191751 0.00266053 -0.00100877 0.000761474 0.00624341 0.00256746 -0.00569524 
0.0160213 0.00534832 0.0105706 0.00532929 -0.00376916 -0.000981387 0.00454638 -0.000480331 0.00331498 
0.00225368 0.0021911 0.000800197 -0.00624292 -0.00950478 -0.00218399 -0.0131907 -0.00678426 0.00368112 
0.000526309 -0.0103605 0.000644599 -0.0029756 0.00598443 0.000183944 -0.00137392 -0.000509174 0.00197685 
0.00196161 -0.00024569 0.00672573 -0.00790939 -0.00117613 0.00105682 -0.00582435 -0.00672493 -0.000566161 
-0.00537787 -0.00770101 0.00176706 -0.00394348 0.00153777 -0.000700334 -0.00298077 -0.0136153 -0.000937211 
0.00153756 -0.00844506 0.000896243 0.00437914 -0.00413027 -0.00301551 0.00766416 0.00279202 -0.00513957 
-0.00386431 -5.20351e-06 -0.00135514 -2.52454e-05 0.00984914 0.00225942 0.0056623 0.00264194 0.0055239 
-0.00898732 -0.00403507 0.00535483 -0.00697987 -0.00423916 0.00382988 -0.0026964 -0.00115507 8.81894e-05 
-0.00282172 -0.00781696 0.00205724 -0.0074544 0.00763344 0.0164485 -0.00950291 -0.0121738 0.00672426 
0.000787253 0.0119864 -0.015607 -0.00315208 0.00978904 -0.00564679 -0.000615539 0.0100236 0.00268215 
-0.000313789 0.00986509 0.00511361 -0.00592398 -0.00252178 0.000423084 -0.00319069 -0.00225943 0.00345233 
0.00109568 -0.00379105 0.00402335 -0.0036922 -0.00640029 -0.00587846 -0.0114772 0.00939683 0.0191304 
-0.0076452 -0.00011842 -0.00471623 -0.00337882 -0.00325603 -0.000796792 -0.00763466 -0.00321462 -0.00233165 
-0.0113463 -0.0036811 -0.00149831 -0.00100057 0.00265012 -0.00294081 0.0081759 0.00017636 0.00433377 
0.00271549 -0.00140035 0.00631882 0.00504735 0.00265196 0.00721401 -0.0443053 -0.0370711 -0.0252318 
-0.00385476 0.00528542 -0.000783283 0.000967895 -0.000588542 -0.0023103 -0.00525135 0.005698 0.00338681 
-0.00645038 0.00986136 0.0124886 0.00185085 -0.00206782 0.00278586 -0.0173515 0.0182437 0.0120352 
-0.00390086 0.00447224 0.0188778 0.0157556 -0.000671496 0.0103182 -1.88817e-05 0.0184016 0.00481934 
-0.00783876 0.00267376 0.0197085 0.0175097 -0.0019736 0.0123193 -0.00101315 -0.00823497 -0.00672071 
-0.00294162 0.00502721 0.0080754 0.00125347 -0.00244677 0.00525432 -0.0408934 -0.0169318 0.0101025 
-0.00742935 -0.000266551 0.00372144 0.0463184 0.0877309 -0.0351366 -0.00899294 0.0106531 0.00902652 
-0.0246994 -0.0290995 -0.0172374 0.0369892 0.0172095 0.00566793 0.00234361 -0.00864302 -0.00366032 
-0.00250936 -0.00262021 0.00405788 -0.00135398 -0.00293244 0.000294484 -0.00318389 0.00144532 0.00365454 
0.0324917 0.00400484 -0.00628326 0.0322553 -0.000193842 -0.00339111 -0.0439081 0.000665347 0.0063111 
-0.0053601 -0.0047235 -0.00390947 0.00498361 -0.00106625 0.0126169 -0.00507468 -0.000197443 -0.00117353 
0.00452627 -0.00604097 0.012126 -0.0605549 0.0121702 0.0532471 -0.00357245 0.0144784 -0.008606 
-0.0289037 -0.0180112 -0.0201494 0.0152888 -0.0254856 0.0180755 0.0257951 -0.000595795 0.00121127 
-0.00884206 -0.010808 0.00462871 -0.00407813 -0.00497099 -0.00040436 -0.00271509 -0.000985766 0.00179716 
0.012411 0.0106261 -0.00117695 0.0109456 0.00117638 -0.00360748 -0.0153492 -0.00904373 0.000867399 
0.0429052 0.0224674 0.0183426 0.00138603 -0.0238843 0.0266353 0.0566366 -0.00793924 0.0141668 
-0.00114822 -0.0014941 0.00217277 0.00480659 0.0049514 0.00463513 0.00160063 0.0071157 -0.00264442 
-0.00409953 -0.000997264 0.0112243 -0.00575469 -0.00074197 0.000229872 0.000888522 -0.00452099 0.0320707 
0.031803 0.0676102 -0.0430524 0.0308332 0.0258882 0.0082526 0.0169971 -0.0156847 -0.00137811 