# vtk DataFile Version 4.0
Generated by LIGGGHTS
ASCII
DATASET POLYDATA
POINTS 57 float
0.000518694 -0.00421969 0.00749896 0.00328485 -0.00198368 0.00729498 0.00419726 0.000746026 0.0074394 
-0.00314569 0.00401572 0.00851279 0.00421745 -0.00100374 0.0105243 -0.00413001 0.002146 0.00960159 
0.000395978 0.00261026 0.0103989 0.000729734 0.00413758 0.0136361 0.00299367 0.00187399 0.0156158 
-0.002309 0.00244513 0.016117 -0.000596853 0.00306914 0.0157757 0.00405029 -0.00401541 0.0175121 
0.00156005 -0.00314157 0.016852 -0.000701993 0.000927345 0.0165543 -0.00286983 -0.00436089 0.0187346 
-0.00271486 -0.00318942 0.0201037 -0.00126131 -0.00354452 0.0190196 0.00261323 -0.0035425 0.0192122 
-0.000100007 -0.00285847 0.0202048 0.000836093 -0.00230748 0.0199811 -0.00381459 -0.00132984 0.0201187 
0.000125219 -0.00156383 0.0183616 0.0013991 -0.0013347 0.0199791 0.00416597 -0.00188368 0.0200846 
-0.00387717 -0.000318466 0.0189126 -0.0028515 -0.000799255 0.0194535 -0.000855993 -0.000949301 0.019966 
0.000759117 -0.000326288 0.0198896 0.00195486 -0.000442233 0.0196223 -0.00285263 0.000237872 0.0202032 
0.00309254 0.000403266 0.0201314 -0.00427519 0.00105596 0.0200187 -0.00195773 0.00136012 0.0199879 
0.000514418 0.00171901 0.0202351 0.00413347 0.00160038 0.0201127 0.00138855 0.00227547 0.0179948 
0.00368684 0.00273017 0.020008 -0.00447419 0.00323216 0.0200466 0.00294782 0.00367894 0.0198634 
0.00423345 0.00365417 0.0200529 -0.000962804 0.0040532 0.0201004 -0.00439245 -0.00431447 0.0203369 
0.00303478 -0.00449976 0.0202641 0.000605086 -0.00376811 0.0203963 -0.00392389 -0.0025619 0.0204499 
-0.00184548 -0.00219817 0.0204303 0.00423459 -0.00297601 0.0204282 -0.00194206 -0.000920279 0.0203907 
-3.47712e-05 0.000405222 0.0203652 0.00176398 0.000540026 0.0203868 -0.0034893 0.00195614 0.0203626 
-0.000934761 0.00198212 0.0202671 0.00239064 0.00134563 0.020471 -0.00278063 0.00383223 0.0204503 
-0.0013863 0.00305908 0.0204621 0.00174452 0.00323358 0.0202588 0.00176649 0.00440925 0.0204335 

VERTICES 57 114
1 0 
1 1 
1 2 
1 3 
1 4 
1 5 
1 6 
1 7 
1 8 
1 9 
1 10 
1 11 
1 12 
1 13 
1 14 
1 15 
1 16 
1 17 
1 18 
1 19 
1 20 
1 21 
1 22 
1 23 
1 24 
1 25 
1 26 
1 27 
1 28 
1 29 
1 30 
1 31 
1 32 
1 33 
1 34 
1 35 
1 36 
1 37 
1 38 
1 39 
1 40 
1 41 
1 42 
1 43 
1 44 
1 45 
1 46 
1 47 
1 48 
1 49 
1 50 
1 51 
1 52 
1 53 
1 54 
1 55 
1 56 

POINT_DATA 57
FIELD FieldData 7
id 1 57 int
50 14 46 57 43 52 13 39 47 
8 34 29 28 42 17 12 7 51 
11 56 27 18 22 20 54 15 1 
26 4 37 2 33 21 55 36 6 
41 9 5 38 32 48 31 23 49 
45 24 19 16 35 3 25 53 10 
40 44 30 
type 1 57 int
1 1 1 1 1 1 1 1 1 
1 1 1 1 1 1 1 1 1 
1 1 1 1 1 1 1 1 1 
1 1 1 1 1 1 1 1 1 
1 1 1 1 1 1 1 1 1 
1 1 1 1 1 1 1 1 1 
1 1 1 
i 3 57 int
0 0 0 0 0 0 0 0 0 
0 0 0 0 0 0 0 0 0 
0 0 0 0 0 0 0 0 0 
0 0 0 0 0 0 0 0 0 
0 0 0 0 0 0 0 0 0 
0 0 0 0 0 0 0 0 0 
0 0 0 0 0 0 0 0 0 
0 0 0 0 0 0 0 0 0 
0 0 0 0 0 0 0 0 0 
0 0 0 0 0 0 0 0 0 
0 0 0 0 0 0 0 0 0 
0 0 0 0 0 0 0 0 0 
0 0 0 0 0 0 0 0 0 
0 0 0 0 0 0 0 0 0 
0 0 0 0 0 0 0 0 0 
0 0 0 0 0 0 0 0 0 
0 0 0 0 0 0 0 0 0 
0 0 0 0 0 0 0 0 0 
0 0 0 0 0 0 0 0 0 

v 3 57 double
0 0 -0.49535 0 0 -0.499372 0 0 -0.496527 
0 0 -0.474847 0 0 -0.43129 0 0 -0.451793 
0 0 -0.434135 0 0 -0.353497 0 0 -0.29346 
0 0 -0.276194 0 0 -0.288064 0 0 -0.22116 
0 0 -0.248726 0 0 -0.260204 0 0 -0.157886 
-0 -0 -0.01 0 0 -0.139051 0 0 -0.124728 
-0 -0 -0.01 0 0 -0.0217229 -0 -0 -0.01 
0 0 -0.179566 0 0 -0.0226058 -0 -0 -0.01 
0 0 -0.146408 0 0 -0.104029 0 0 -0.027707 
0 0 -0.0476214 0 0 -0.0866651 -0 -0 -0.01 
-0 -0 -0.01 -0 -0 -0.01 0 0 -0.0183875 
-0 -0 -0.01 -0 -0 -0.01 0 0 -0.198597 
-0 -0 -0.01 -0 -0 -0.01 0 0 -0.0527226 
-0 -0 -0.01 -0 -0 -0.01 -0 -0 -0.01 
-0 -0 -0.01 -0 -0 -0.01 -0 -0 -0.01 
-0 -0 -0.01 -0 -0 -0.01 -0 -0 -0.01 
-0 -0 -0.01 -0 -0 -0.01 -0 -0 -0.01 
-0 -0 -0.01 -0 -0 -0.01 -0 -0 -0.01 
-0 -0 -0.01 -0 -0 -0.01 -0 -0 -0.01 

f 3 57 double
0 0 -1.28413e-05 0 0 -1.28413e-05 0 0 -1.28413e-05 
0 0 -1.28413e-05 0 0 -1.28413e-05 0 0 -1.28413e-05 
0 0 -1.28413e-05 0 0 -1.28413e-05 0 0 -1.28413e-05 
0 0 -1.28413e-05 0 0 -1.28413e-05 0 0 -1.28413e-05 
0 0 -1.28413e-05 0 0 -1.28413e-05 0 0 -1.28413e-05 
0 0 0 0 0 -1.28413e-05 0 0 -1.28413e-05 
0 0 0 0 0 -1.28413e-05 0 0 0 
0 0 -1.28413e-05 0 0 -1.28413e-05 0 0 0 
0 0 -1.28413e-05 0 0 -1.28413e-05 0 0 -1.28413e-05 
0 0 -1.28413e-05 0 0 -1.28413e-05 0 0 0 
0 0 0 0 0 0 0 0 -1.28413e-05 
0 0 0 0 0 0 0 0 -1.28413e-05 
0 0 0 0 0 0 0 0 -1.28413e-05 
0 0 0 0 0 0 0 0 0 
0 0 0 0 0 0 0 0 0 
0 0 0 0 0 0 0 0 0 
0 0 0 0 0 0 0 0 0 
0 0 0 0 0 0 0 0 0 
0 0 0 0 0 0 0 0 0 

radius 1 57 double
0.0005 0.0005 0.0005 0.0005 0.0005 0.0005 0.0005 0.0005 0.0005 
0.0005 0.0005 0.0005 0.0005 0.0005 0.0005 0.0005 0.0005 0.0005 
0.0005 0.0005 0.0005 0.0005 0.0005 0.0005 0.0005 0.0005 0.0005 
0.0005 0.0005 0.0005 0.0005 0.0005 0.0005 0.0005 0.0005 0.0005 
0.0005 0.0005 0.0005 0.0005 0.0005 0.0005 0.0005 0.0005 0.0005 
0.0005 0.0005 0.0005 0.0005 0.0005 0.0005 0.0005 0.0005 0.0005 
0.0005 0.0005 0.0005 
omega 3 57 double
0 0 0 0 0 0 0 0 0 
0 0 0 0 0 0 0 0 0 
0 0 0 0 0 0 0 0 0 
0 0 0 0 0 0 0 0 0 
0 0 0 0 0 0 0 0 0 
0 0 0 0 0 0 0 0 0 
0 0 0 0 0 0 0 0 0 
0 0 0 0 0 0 0 0 0 
0 0 0 0 0 0 0 0 0 
0 0 0 0 0 0 0 0 0 
0 0 0 0 0 0 0 0 0 
0 0 0 0 0 0 0 0 0 
0 0 0 0 0 0 0 0 0 
0 0 0 0 0 0 0 0 0 
0 0 0 0 0 0 0 0 0 
0 0 0 0 0 0 0 0 0 
0 0 0 0 0 0 0 0 0 
0 0 0 0 0 0 0 0 0 
0 0 0 0 0 0 0 0 0 

