FoamFile
{version 2.0; format ascii;class Cloud<passiveParticle>; location 0;object  positions;}
41
(
( 0.000370224 0.000171907 9.99474e-05 ) 0 
( 0.000232603 0.000316997 9.97931e-05 ) 0 
( 0.000366549 0.000466739 9.99643e-05 ) 0 
( 7.21705e-05 0.000436315 9.9863e-05 ) 0 
( 3.39332e-05 0.000240076 9.9827e-05 ) 0 
( 0.000181574 0.000104823 9.9969e-05 ) 0 
( 0.000219037 0.000463677 0.00023497 ) 0 
( 3.90815e-05 9.92049e-05 0.00024167 ) 0 
( 0.000129643 0.000288034 0.000268602 ) 0 
( 0.000485129 0.000440268 0.000259798 ) 0 
( 0.000203388 0.000125265 0.000358213 ) 0 
( 0.000343766 0.000287235 0.000263173 ) 0 
( 0.000363487 5.4434e-05 0.000261616 ) 0 
( 0.000337527 0.000484992 0.000394567 ) 0 
( 0.00045259 0.000127107 0.000425523 ) 0 
( 0.000457469 0.000327494 0.000422558 ) 0 
( 4.58986e-05 0.00026127 0.00044807 ) 0 
( 0.000241022 0.000306589 0.000433603 ) 0 
( 0.000491514 0.000462135 0.000566455 ) 0 
( 0.000289876 8.6219e-05 0.000534148 ) 0 
( 0.000379311 0.000255505 0.000591846 ) 0 
( 0.000287928 0.000433044 0.000581168 ) 0 
( 9.55543e-05 0.000381673 0.000599683 ) 0 
( 2.59558e-05 0.000119363 0.000587433 ) 0 
( 0.000190251 0.000213498 0.00065169 ) 0 
( 0.000451571 7.8892e-05 0.000651492 ) 0 
( 0.00034734 0.000232421 0.000787845 ) 0 
( 0.000215284 0.000379893 0.000759733 ) 0 
( 8.96478e-05 2.16877e-05 0.000749868 ) 0 
( 0.00014841 0.000212951 0.000847153 ) 0 
( 6.65485e-06 9.28182e-05 0.000920911 ) 0 
( 0.000284324 6.94281e-05 0.000884968 ) 0 
( 3.99165e-05 0.00046908 0.000795486 ) 0 
( 0.000382194 0.000422099 0.000861368 ) 0 
( 0.000466676 9.55122e-05 0.000962718 ) 0 
( 0.000280996 0.000291802 0.000974331 ) 0 
( 0.000166932 0.000137872 0.00103168 ) 0 
( 0.00048001 0.000292593 0.000993769 ) 0 
( 4.70395e-05 0.000347905 0.000954365 ) 0 
( 0.00034923 0.000161991 0.00111029 ) 0 
( 0.000161613 0.000364326 0.00111744 ) 0 
)
