FoamFile
{version 2.0; format ascii;class vectorField; location 0;object  v;}
41
(
( -6.50955e-05 -5.95712e-05 -1.31548e-05 )  
( -3.58186e-05 -5.03715e-05 -2.05629e-05 )  
( 6.26821e-05 -4.24443e-05 1.72667e-05 )  
( -8.25338e-07 -1.87998e-06 2.29047e-06 )  
( -2.47083e-05 2.23768e-05 7.31875e-06 )  
( 3.59036e-05 -9.0873e-05 2.09159e-06 )  
( -4.92532e-05 -3.23765e-05 -3.5391e-05 )  
( -2.97855e-05 8.87141e-05 -2.61871e-05 )  
( -1.93158e-05 -6.12259e-06 -2.22167e-05 )  
( -9.85792e-05 -1.8248e-05 -5.69931e-05 )  
( -1.65933e-05 -2.87156e-05 -6.13455e-05 )  
( -3.50584e-05 -0.000129621 -6.04881e-05 )  
( -2.01649e-05 -3.65073e-05 -3.86931e-05 )  
( -5.50058e-05 -2.19956e-05 -4.39999e-05 )  
( -7.33716e-05 -4.13033e-05 -0.000102083 )  
( -2.30833e-05 -6.21326e-06 -9.4349e-05 )  
( -2.45241e-05 4.27002e-05 -2.89429e-05 )  
( 2.96363e-05 -3.38973e-05 -6.38208e-05 )  
( -3.81001e-05 7.04871e-05 -9.38809e-05 )  
( -7.86523e-05 2.58513e-05 -9.73839e-05 )  
( 1.17855e-05 4.41752e-05 -0.000127167 )  
( 1.5537e-05 1.64032e-05 -9.52613e-05 )  
( 1.95654e-05 8.01832e-05 -8.06921e-05 )  
( -4.97345e-05 6.21459e-05 -1.20683e-05 )  
( -2.71896e-05 3.65853e-05 -0.000116538 )  
( -6.39284e-05 8.35626e-05 -0.000128833 )  
( -2.45156e-05 0.000161486 -0.000152272 )  
( -3.64034e-05 1.74153e-05 -0.000141932 )  
( 6.85261e-05 0.000154553 -2.19208e-05 )  
( 9.43747e-05 -2.4932e-06 -0.000122641 )  
( -9.5686e-06 0.000125316 -0.000240101 )  
( -3.06712e-06 0.000281952 -0.000198551 )  
( -8.1966e-07 2.23539e-05 -0.000138595 )  
( -8.45884e-05 8.83044e-05 -0.000126135 )  
( -1.47099e-05 0.000143553 -0.000157906 )  
( 2.17588e-05 5.78123e-05 -0.000107516 )  
( -1.99987e-05 9.57257e-05 -0.000222459 )  
( 2.77339e-05 0.00016121 -6.21584e-05 )  
( -2.54618e-05 -3.35795e-05 -0.000195916 )  
( -5.12743e-05 -1.29508e-05 -0.000114924 )  
( -0.000152674 -4.43133e-05 -9.85073e-05 )  
)
