/*--------------------------------*- C++ -*----------------------------------*\
| =========                 |                                                 |
| \\      /  F ield         | OpenFOAM: The Open Source CFD Toolbox           |
|  \\    /   O peration     | Version:  5.x                                   |
|   \\  /    A nd           | Web:      www.OpenFOAM.org                      |
|    \\/     M anipulation  |                                                 |
\*---------------------------------------------------------------------------*/
FoamFile
{
    version     2.0;
    format      ascii;
    class       surfaceScalarField;
    location    "0.005";
    object      phi;
}
// * * * * * * * * * * * * * * * * * * * * * * * * * * * * * * * * * * * * * //

dimensions      [0 3 -1 0 0 0 0];

internalField   nonuniform List<scalar> 
179
(
-2.49987e-10
-2.49986e-10
-2.49986e-10
-2.49986e-10
-2.49985e-10
-2.49984e-10
-2.49983e-10
-2.49982e-10
-2.49981e-10
-2.49979e-10
-2.49977e-10
-2.49975e-10
-2.49973e-10
-2.4997e-10
-2.49967e-10
-2.49964e-10
-2.49961e-10
-2.49957e-10
-2.49952e-10
-2.49947e-10
-2.49942e-10
-2.49936e-10
-2.49929e-10
-2.49921e-10
-2.49913e-10
-2.49904e-10
-2.49894e-10
-2.49882e-10
-2.4987e-10
-2.49856e-10
-2.49841e-10
-2.49825e-10
-2.49806e-10
-2.49786e-10
-2.49764e-10
-2.49739e-10
-2.49712e-10
-2.49682e-10
-2.49648e-10
-2.49612e-10
-2.49572e-10
-2.49527e-10
-2.49478e-10
-2.49424e-10
-2.49364e-10
-2.49299e-10
-2.49226e-10
-2.49146e-10
-2.49058e-10
-2.48961e-10
-2.48854e-10
-2.48736e-10
-2.48607e-10
-2.48464e-10
-2.48307e-10
-2.48134e-10
-2.47944e-10
-2.47735e-10
-2.47505e-10
-2.47253e-10
-2.46975e-10
-2.4667e-10
-2.46335e-10
-2.45968e-10
-2.45564e-10
-2.45121e-10
-2.44636e-10
-2.44104e-10
-2.43521e-10
-2.42882e-10
-2.42182e-10
-2.41417e-10
-2.4058e-10
-2.39666e-10
-2.38673e-10
-2.37601e-10
-2.36464e-10
-2.35303e-10
-2.34216e-10
-2.33403e-10
-2.33533e-10
-2.33452e-10
-2.38151e-10
-2.37568e-10
-2.29844e-10
-2.15793e-10
-2.14779e-10
-2.0624e-10
-2.06416e-10
-2.18663e-10
-2.32857e-10
-2.42231e-10
-2.53807e-10
-2.66426e-10
-2.67548e-10
-2.65508e-10
-2.51065e-10
-2.43162e-10
-2.33047e-10
-2.27908e-10
-2.19663e-10
-2.13782e-10
-2.13075e-10
-2.13847e-10
-2.14342e-10
-2.16426e-10
-2.19277e-10
-2.22242e-10
-2.25029e-10
-2.27564e-10
-2.29844e-10
-2.3189e-10
-2.33726e-10
-2.35373e-10
-2.36851e-10
-2.38178e-10
-2.3937e-10
-2.40441e-10
-2.41403e-10
-2.42267e-10
-2.43043e-10
-2.43741e-10
-2.44368e-10
-2.44932e-10
-2.45439e-10
-2.45894e-10
-2.46304e-10
-2.46672e-10
-2.47003e-10
-2.47301e-10
-2.4757e-10
-2.47811e-10
-2.48028e-10
-2.48223e-10
-2.48399e-10
-2.48558e-10
-2.487e-10
-2.48829e-10
-2.48944e-10
-2.49049e-10
-2.49142e-10
-2.49227e-10
-2.49303e-10
-2.49372e-10
-2.49434e-10
-2.4949e-10
-2.4954e-10
-2.49586e-10
-2.49627e-10
-2.49664e-10
-2.49697e-10
-2.49727e-10
-2.49754e-10
-2.49779e-10
-2.49801e-10
-2.49821e-10
-2.49839e-10
-2.49855e-10
-2.49869e-10
-2.49883e-10
-2.49894e-10
-2.49905e-10
-2.49915e-10
-2.49924e-10
-2.49932e-10
-2.49939e-10
-2.49946e-10
-2.49952e-10
-2.49957e-10
-2.49962e-10
-2.49967e-10
-2.49971e-10
-2.49975e-10
-2.49978e-10
-2.49981e-10
-2.49984e-10
-2.49987e-10
-2.4999e-10
-2.49993e-10
)
;

boundaryField
{
    inlet
    {
        type            calculated;
        value           uniform -2.49995e-10;
    }
    outlet
    {
        type            calculated;
        value           uniform 2.49987e-10;
    }
    repeat_boundary
    {
        type            calculated;
        value           uniform 0;
    }
    procBoundary0to1
    {
        type            processor;
        value           nonuniform List<scalar> 
180
(
1.75489e-17
1.35589e-17
1.17586e-17
1.28359e-17
1.56721e-17
1.92998e-17
2.32454e-17
2.73326e-17
3.15217e-17
3.58216e-17
4.02987e-17
4.50397e-17
5.01622e-17
5.58064e-17
6.21367e-17
6.9341e-17
7.76116e-17
8.71859e-17
9.8333e-17
1.11339e-16
1.26521e-16
1.44228e-16
1.6485e-16
1.88827e-16
2.16651e-16
2.48889e-16
2.86188e-16
3.29296e-16
3.79096e-16
4.36629e-16
5.03109e-16
5.79906e-16
6.68314e-16
7.70595e-16
8.88564e-16
1.02388e-15
1.17875e-15
1.35589e-15
1.55843e-15
1.79004e-15
2.055e-15
2.3584e-15
2.70625e-15
3.10567e-15
3.56509e-15
4.09446e-15
4.70549e-15
5.41108e-15
6.22891e-15
7.17913e-15
8.28238e-15
9.56576e-15
1.10627e-14
1.28154e-14
1.48788e-14
1.73268e-14
2.01003e-14
2.31914e-14
2.67726e-14
3.09216e-14
3.57289e-14
4.12999e-14
4.77573e-14
5.52443e-14
6.3928e-14
7.40039e-14
8.57015e-14
9.92907e-14
1.15091e-13
1.33483e-13
1.54924e-13
1.79961e-13
2.09237e-13
2.43479e-13
2.83854e-13
3.27669e-13
3.68261e-13
3.87652e-13
3.76286e-13
3.39231e-13
2.24228e-13
-8.9228e-14
3.76054e-12
-6.62315e-13
-3.99061e-12
-9.65389e-12
-6.26037e-13
-4.06898e-12
-5.63021e-14
4.00279e-12
2.03952e-12
4.53293e-13
-2.52837e-13
-3.98139e-12
-5.88744e-13
-1.9264e-12
-5.45754e-12
-1.97924e-12
-2.66903e-12
-1.23721e-12
-3.62788e-12
-4.61448e-12
-7.89807e-13
2.45374e-13
6.9196e-13
2.07108e-12
2.65257e-12
2.74912e-12
2.60882e-12
2.39087e-12
2.16408e-12
1.95108e-12
1.75716e-12
1.58222e-12
1.42477e-12
1.28312e-12
1.15568e-12
1.04101e-12
9.37826e-13
8.44955e-13
7.61357e-13
6.86095e-13
6.18329e-13
5.57305e-13
5.02346e-13
4.52844e-13
4.08251e-13
3.68076e-13
3.31876e-13
2.99255e-13
2.69854e-13
2.43355e-13
2.19468e-13
1.97935e-13
1.78521e-13
1.61018e-13
1.45235e-13
1.31002e-13
1.18167e-13
1.06591e-13
9.61513e-14
8.67352e-14
7.82422e-14
7.05818e-14
6.36723e-14
5.74402e-14
5.18191e-14
4.67493e-14
4.21768e-14
3.80531e-14
3.43345e-14
3.09813e-14
2.79581e-14
2.52325e-14
2.27756e-14
2.05611e-14
1.85655e-14
1.67674e-14
1.51476e-14
1.36888e-14
1.23754e-14
1.11933e-14
1.013e-14
9.17402e-15
8.31526e-15
7.54455e-15
6.8537e-15
6.23536e-15
5.68298e-15
5.19073e-15
4.75339e-15
4.36635e-15
4.02553e-15
3.72735e-15
3.46873e-15
3.24702e-15
3.06008e-15
2.90697e-15
2.78995e-15
2.77284e-15
)
;
    }
    procBoundary0to2
    {
        type            processor;
        value           nonuniform List<scalar> 
180
(
-1.92376e-16
-2.67142e-16
-3.8736e-16
-5.28142e-16
-6.80402e-16
-8.41632e-16
-1.01218e-15
-1.19345e-15
-1.38723e-15
-1.59549e-15
-1.82034e-15
-2.06404e-15
-2.32903e-15
-2.61795e-15
-2.93367e-15
-3.27931e-15
-3.6583e-15
-4.07441e-15
-4.53175e-15
-5.03489e-15
-5.58885e-15
-6.19918e-15
-6.87199e-15
-7.61406e-15
-8.43287e-15
-9.33667e-15
-1.03346e-14
-1.14367e-14
-1.26543e-14
-1.39995e-14
-1.5486e-14
-1.71288e-14
-1.89444e-14
-2.09512e-14
-2.31694e-14
-2.56212e-14
-2.83312e-14
-3.13266e-14
-3.46375e-14
-3.82968e-14
-4.23412e-14
-4.6811e-14
-5.17509e-14
-5.721e-14
-6.32427e-14
-6.99091e-14
-7.72754e-14
-8.54149e-14
-9.44084e-14
-1.04345e-13
-1.15324e-13
-1.27454e-13
-1.40856e-13
-1.55663e-13
-1.72023e-13
-1.90098e-13
-2.1007e-13
-2.32136e-13
-2.56518e-13
-2.83461e-13
-3.13237e-13
-3.46151e-13
-3.82537e-13
-4.22768e-13
-4.67257e-13
-5.16479e-13
-5.7096e-13
-6.31283e-13
-6.981e-13
-7.72136e-13
-8.54189e-13
-9.45116e-13
-1.04576e-12
-1.15665e-12
-1.27667e-12
-1.39927e-12
-1.50421e-12
-1.55035e-12
-1.46247e-12
-1.15209e-12
-9.43629e-14
8.37288e-15
9.39269e-13
7.88099e-14
-3.73304e-12
-4.39694e-12
-3.88042e-13
-4.47035e-12
2.32361e-13
8.2449e-12
1.21544e-11
8.91984e-12
1.18295e-11
1.65998e-11
1.7107e-12
-1.13901e-13
-8.985e-12
-5.92353e-12
-7.446e-12
-3.90231e-12
-4.61626e-12
-1.2673e-12
8.30292e-14
5.26822e-13
-1.97091e-13
1.25321e-14
1.98993e-13
2.14806e-13
1.78854e-13
1.43318e-13
1.15783e-13
9.50907e-14
7.85452e-14
6.49043e-14
5.35727e-14
4.41761e-14
3.64394e-14
2.99183e-14
2.3983e-14
1.90332e-14
1.49169e-14
1.15046e-14
8.68631e-15
6.36814e-15
4.44741e-15
2.71356e-15
1.37494e-15
3.40562e-16
-4.5438e-16
-1.07954e-15
-1.56497e-15
-1.91723e-15
-2.13074e-15
-2.31091e-15
-2.43873e-15
-2.49656e-15
-2.50277e-15
-2.47175e-15
-2.41312e-15
-2.33274e-15
-2.23966e-15
-2.13865e-15
-2.02611e-15
-1.90286e-15
-1.78123e-15
-1.65386e-15
-1.53232e-15
-1.41662e-15
-1.30699e-15
-1.20396e-15
-1.10821e-15
-1.02056e-15
-9.40371e-16
-8.66902e-16
-7.99472e-16
-7.37499e-16
-6.80418e-16
-6.27662e-16
-5.78751e-16
-5.33285e-16
-4.90927e-16
-4.51412e-16
-4.14529e-16
-3.80062e-16
-3.47895e-16
-3.18109e-16
-2.90742e-16
-2.65676e-16
-2.42768e-16
-2.21857e-16
-2.02756e-16
-1.85276e-16
-1.69218e-16
-1.54375e-16
-1.40527e-16
-1.2742e-16
-1.14807e-16
-1.02658e-16
-9.20521e-17
-7.34627e-17
)
;
    }
}


// ************************************************************************* //
