/*--------------------------------*- C++ -*----------------------------------*\
| =========                 |                                                 |
| \\      /  F ield         | OpenFOAM: The Open Source CFD Toolbox           |
|  \\    /   O peration     | Version:  5.x                                   |
|   \\  /    A nd           | Web:      www.OpenFOAM.org                      |
|    \\/     M anipulation  |                                                 |
\*---------------------------------------------------------------------------*/
FoamFile
{
    version     2.0;
    format      ascii;
    class       volVectorField;
    location    "0.005";
    object      stored_U;
}
// * * * * * * * * * * * * * * * * * * * * * * * * * * * * * * * * * * * * * //

dimensions      [0 1 -1 0 0 0 0];

internalField   nonuniform List<vector> 
180
(
(8.38417e-10 -7.02737e-09 -0.000999945)
(7.73869e-10 -9.81505e-09 -0.000999944)
(8.02928e-10 -1.42441e-08 -0.000999943)
(9.3689e-10 -1.9496e-08 -0.000999941)
(1.12579e-09 -2.52007e-08 -0.000999939)
(1.33496e-09 -3.125e-08 -0.000999936)
(1.54676e-09 -3.76539e-08 -0.000999932)
(1.75481e-09 -4.44642e-08 -0.000999928)
(1.95724e-09 -5.17477e-08 -0.000999923)
(2.15384e-09 -5.95788e-08 -0.000999918)
(2.34514e-09 -6.80374e-08 -0.000999911)
(2.53207e-09 -7.72096e-08 -0.000999904)
(2.71596e-09 -8.71884e-08 -0.000999895)
(2.89846e-09 -9.80744e-08 -0.000999886)
(3.08155e-09 -1.09977e-07 -0.000999875)
(3.26752e-09 -1.23016e-07 -0.000999863)
(3.45895e-09 -1.37321e-07 -0.000999849)
(3.65867e-09 -1.53035e-07 -0.000999834)
(3.86974e-09 -1.70317e-07 -0.000999818)
(4.09544e-09 -1.89337e-07 -0.000999799)
(4.33923e-09 -2.10286e-07 -0.000999778)
(4.60477e-09 -2.33375e-07 -0.000999755)
(4.8959e-09 -2.58832e-07 -0.00099973)
(5.21662e-09 -2.86914e-07 -0.000999701)
(5.5712e-09 -3.17902e-07 -0.00099967)
(5.96414e-09 -3.52105e-07 -0.000999635)
(6.40029e-09 -3.89866e-07 -0.000999597)
(6.88497e-09 -4.31564e-07 -0.000999554)
(7.42403e-09 -4.77616e-07 -0.000999507)
(8.02415e-09 -5.28483e-07 -0.000999455)
(8.6931e-09 -5.84674e-07 -0.000999398)
(9.43988e-09 -6.46751e-07 -0.000999334)
(1.02752e-08 -7.15333e-07 -0.000999264)
(1.12113e-08 -7.91105e-07 -0.000999187)
(1.22632e-08 -8.74822e-07 -0.000999102)
(1.34482e-08 -9.67317e-07 -0.000999008)
(1.47866e-08 -1.06951e-06 -0.000998903)
(1.63014e-08 -1.18241e-06 -0.000998788)
(1.80188e-08 -1.30715e-06 -0.000998661)
(1.99687e-08 -1.44494e-06 -0.000998521)
(2.21846e-08 -1.59717e-06 -0.000998366)
(2.47041e-08 -1.76533e-06 -0.000998195)
(2.75696e-08 -1.95107e-06 -0.000998006)
(3.08284e-08 -2.15622e-06 -0.000997797)
(3.45336e-08 -2.3828e-06 -0.000997566)
(3.8745e-08 -2.63304e-06 -0.000997312)
(4.35298e-08 -2.90937e-06 -0.00099703)
(4.89635e-08 -3.2145e-06 -0.000996719)
(5.51316e-08 -3.55141e-06 -0.000996376)
(6.21308e-08 -3.9234e-06 -0.000995998)
(7.0073e-08 -4.33409e-06 -0.000995579)
(7.9086e-08 -4.78749e-06 -0.000995118)
(8.93176e-08 -5.28801e-06 -0.000994609)
(1.0094e-07 -5.84053e-06 -0.000994047)
(1.14154e-07 -6.45041e-06 -0.000993427)
(1.29202e-07 -7.12357e-06 -0.000992744)
(1.46377e-07 -7.86653e-06 -0.00099199)
(1.65972e-07 -8.68648e-06 -0.000991158)
(1.88254e-07 -9.59144e-06 -0.00099024)
(2.1351e-07 -1.05902e-05 -0.000989227)
(2.42047e-07 -1.16925e-05 -0.000988108)
(2.7418e-07 -1.29092e-05 -0.000986872)
(3.10233e-07 -1.42522e-05 -0.000985507)
(3.50517e-07 -1.57347e-05 -0.000983999)
(3.95322e-07 -1.73713e-05 -0.000982332)
(4.4489e-07 -1.91784e-05 -0.00098049)
(4.99389e-07 -2.11739e-05 -0.000978452)
(5.5886e-07 -2.33781e-05 -0.000976196)
(6.23157e-07 -2.58132e-05 -0.000973698)
(6.91892e-07 -2.85044e-05 -0.000970931)
(7.64311e-07 -3.14792e-05 -0.000967866)
(8.3889e-07 -3.47681e-05 -0.000964463)
(9.12288e-07 -3.84009e-05 -0.000960635)
(9.75849e-07 -4.23937e-05 -0.000956249)
(1.00773e-06 -4.6699e-05 -0.000951532)
(9.60337e-07 -5.10636e-05 -0.000948014)
(7.41774e-07 -5.46939e-05 -0.000946911)
(1.97671e-07 -5.58972e-05 -0.000933952)
(-1.128e-06 -5.15944e-05 -0.000875744)
(-3.92194e-06 -3.87613e-05 -0.000670062)
(-3.87079e-06 -5.83215e-06 -0.00296953)
(1.26734e-05 1.53166e-05 1.00562e-07)
(0.000155496 2.41664e-05 -0.00361842)
(1.14537e-05 2.41982e-05 -4.8115e-05)
(-0.000455282 -0.000266638 -0.00295679)
(-0.000522234 -0.000292266 -0.00260932)
(-2.18464e-05 -1.47235e-05 -0.000503973)
(-0.000137098 -0.000185527 -0.00509621)
(1.95476e-05 1.4775e-05 -0.000170401)
(0.000316109 0.000304413 -0.00450651)
(0.000211558 0.000427594 -0.0017232)
(7.85496e-05 0.000899247 -0.00332126)
(-2.55012e-05 6.05233e-05 -0.000244103)
(-0.000166133 0.00135673 -0.00319526)
(-0.000189122 0.000402263 -0.00292467)
(-6.86099e-05 -3.23756e-05 -0.00102737)
(-0.000462031 -0.00105668 -0.00373562)
(-5.92388e-05 -0.00015754 -0.000668118)
(-0.000160822 -0.000400035 -0.00378351)
(-9.54736e-05 -0.000176798 -0.00169059)
(-0.000226887 -0.000169529 -0.00291841)
(-0.000120807 -6.68657e-05 -0.00240873)
(-2.1485e-05 7.63912e-06 -0.00154716)
(7.81889e-06 2.81855e-05 -0.00175674)
(1.90005e-05 -6.67983e-06 -0.000785827)
(7.01161e-05 -1.93089e-07 -0.000955671)
(9.58924e-05 6.72136e-06 -0.000872371)
(0.000102151 8.17831e-06 -0.000875579)
(9.79062e-05 7.16643e-06 -0.000892288)
(9.00005e-05 5.88665e-06 -0.000905245)
(8.15185e-05 4.85816e-06 -0.000914953)
(7.34952e-05 4.04796e-06 -0.000923434)
(6.61789e-05 3.38208e-06 -0.000931173)
(5.95762e-05 2.82204e-06 -0.000938164)
(5.36331e-05 2.34785e-06 -0.000944436)
(4.82865e-05 1.94598e-06 -0.000950061)
(4.34767e-05 1.60575e-06 -0.000955112)
(3.91494e-05 1.31845e-06 -0.00095965)
(3.5256e-05 1.07668e-06 -0.000963726)
(3.17525e-05 8.73656e-07 -0.000967386)
(2.85996e-05 7.03593e-07 -0.000970673)
(2.57618e-05 5.61553e-07 -0.000973625)
(2.32074e-05 4.43316e-07 -0.000976278)
(2.09079e-05 3.45285e-07 -0.000978662)
(1.88377e-05 2.64399e-07 -0.000980804)
(1.69737e-05 1.98015e-07 -0.000982729)
(1.52952e-05 1.43688e-07 -0.000984458)
(1.37836e-05 9.94118e-08 -0.000986011)
(1.24221e-05 6.35267e-08 -0.000987408)
(1.11956e-05 3.46488e-08 -0.000988664)
(1.00907e-05 1.15997e-08 -0.000989793)
(9.09519e-06 -6.6345e-09 -0.000990809)
(8.19818e-06 -2.08953e-08 -0.000991722)
(7.38985e-06 -3.18841e-08 -0.000992545)
(6.66138e-06 -4.01898e-08 -0.000993285)
(6.00485e-06 -4.62994e-08 -0.000993951)
(5.41313e-06 -5.06193e-08 -0.000994551)
(4.87978e-06 -5.3488e-08 -0.000995091)
(4.39903e-06 -5.51856e-08 -0.000995577)
(3.96569e-06 -5.59444e-08 -0.000996016)
(3.57507e-06 -5.59554e-08 -0.000996411)
(3.22294e-06 -5.53771e-08 -0.000996766)
(2.90552e-06 -5.43408e-08 -0.000997087)
(2.61939e-06 -5.2952e-08 -0.000997376)
(2.36146e-06 -5.12945e-08 -0.000997636)
(2.12896e-06 -4.94344e-08 -0.000997871)
(1.91939e-06 -4.74257e-08 -0.000998083)
(1.7305e-06 -4.53112e-08 -0.000998274)
(1.56025e-06 -4.31281e-08 -0.000998446)
(1.40682e-06 -4.09078e-08 -0.0009986)
(1.26855e-06 -3.86765e-08 -0.00099874)
(1.14396e-06 -3.64567e-08 -0.000998866)
(1.03169e-06 -3.42677e-08 -0.000998979)
(9.30543e-07 -3.21261e-08 -0.000999081)
(8.39417e-07 -3.00461e-08 -0.000999173)
(7.5733e-07 -2.80398e-08 -0.000999256)
(6.83394e-07 -2.61167e-08 -0.00099933)
(6.1681e-07 -2.42846e-08 -0.000999397)
(5.56857e-07 -2.25493e-08 -0.000999458)
(5.02888e-07 -2.09145e-08 -0.000999512)
(4.54319e-07 -1.93822e-08 -0.000999561)
(4.10627e-07 -1.79527e-08 -0.000999606)
(3.7134e-07 -1.66247e-08 -0.000999646)
(3.36037e-07 -1.53955e-08 -0.000999682)
(3.04338e-07 -1.42613e-08 -0.000999715)
(2.75903e-07 -1.32171e-08 -0.000999745)
(2.5043e-07 -1.22571e-08 -0.000999771)
(2.27647e-07 -1.13753e-08 -0.000999796)
(2.07312e-07 -1.05652e-08 -0.000999818)
(1.89208e-07 -9.8202e-09 -0.000999839)
(1.73143e-07 -9.13365e-09 -0.000999858)
(1.58949e-07 -8.49906e-09 -0.000999875)
(1.46474e-07 -7.91001e-09 -0.000999891)
(1.35588e-07 -7.36008e-09 -0.000999905)
(1.26176e-07 -6.84226e-09 -0.000999919)
(1.18143e-07 -6.34819e-09 -0.000999932)
(1.11413e-07 -5.8694e-09 -0.000999944)
(1.05957e-07 -5.4098e-09 -0.000999956)
(1.01899e-07 -4.99713e-09 -0.000999968)
(9.97197e-08 -4.67932e-09 -0.000999977)
)
;

boundaryField
{
    inlet
    {
        type            calculated;
        value           uniform (9.97197e-08 -4.67932e-09 -0.000999977);
    }
    outlet
    {
        type            calculated;
        value           uniform (8.38417e-10 -7.02737e-09 -0.000999945);
    }
    repeat_boundary
    {
        type            calculated;
        value           nonuniform List<vector> 
360
(
(8.38417e-10 0 -0.000999945)
(7.73869e-10 0 -0.000999944)
(8.02928e-10 0 -0.000999943)
(9.3689e-10 0 -0.000999941)
(1.12579e-09 0 -0.000999939)
(1.33496e-09 0 -0.000999936)
(1.54676e-09 0 -0.000999932)
(1.75481e-09 0 -0.000999928)
(1.95724e-09 0 -0.000999923)
(2.15384e-09 0 -0.000999918)
(2.34514e-09 0 -0.000999911)
(2.53207e-09 0 -0.000999904)
(2.71596e-09 0 -0.000999895)
(2.89846e-09 0 -0.000999886)
(3.08155e-09 0 -0.000999875)
(3.26752e-09 0 -0.000999863)
(3.45895e-09 0 -0.000999849)
(3.65867e-09 0 -0.000999834)
(3.86974e-09 0 -0.000999818)
(4.09544e-09 0 -0.000999799)
(4.33923e-09 0 -0.000999778)
(4.60477e-09 0 -0.000999755)
(4.8959e-09 0 -0.00099973)
(5.21662e-09 0 -0.000999701)
(5.5712e-09 0 -0.00099967)
(5.96414e-09 0 -0.000999635)
(6.40029e-09 0 -0.000999597)
(6.88497e-09 0 -0.000999554)
(7.42403e-09 0 -0.000999507)
(8.02415e-09 0 -0.000999455)
(8.6931e-09 0 -0.000999398)
(9.43988e-09 0 -0.000999334)
(1.02752e-08 0 -0.000999264)
(1.12113e-08 0 -0.000999187)
(1.22632e-08 0 -0.000999102)
(1.34482e-08 0 -0.000999008)
(1.47866e-08 0 -0.000998903)
(1.63014e-08 0 -0.000998788)
(1.80188e-08 0 -0.000998661)
(1.99687e-08 0 -0.000998521)
(2.21846e-08 0 -0.000998366)
(2.47041e-08 0 -0.000998195)
(2.75696e-08 0 -0.000998006)
(3.08284e-08 0 -0.000997797)
(3.45336e-08 0 -0.000997566)
(3.8745e-08 0 -0.000997312)
(4.35298e-08 0 -0.00099703)
(4.89635e-08 0 -0.000996719)
(5.51316e-08 0 -0.000996376)
(6.21308e-08 0 -0.000995998)
(7.0073e-08 0 -0.000995579)
(7.9086e-08 0 -0.000995118)
(8.93176e-08 0 -0.000994609)
(1.0094e-07 0 -0.000994047)
(1.14154e-07 0 -0.000993427)
(1.29202e-07 0 -0.000992744)
(1.46377e-07 0 -0.00099199)
(1.65972e-07 0 -0.000991158)
(1.88254e-07 0 -0.00099024)
(2.1351e-07 0 -0.000989227)
(2.42047e-07 0 -0.000988108)
(2.7418e-07 0 -0.000986872)
(3.10233e-07 0 -0.000985507)
(3.50517e-07 0 -0.000983999)
(3.95322e-07 0 -0.000982332)
(4.4489e-07 0 -0.00098049)
(4.99389e-07 0 -0.000978452)
(5.5886e-07 0 -0.000976196)
(6.23157e-07 0 -0.000973698)
(6.91892e-07 0 -0.000970931)
(7.64311e-07 0 -0.000967866)
(8.3889e-07 0 -0.000964463)
(9.12288e-07 0 -0.000960635)
(9.75849e-07 0 -0.000956249)
(1.00773e-06 0 -0.000951532)
(9.60337e-07 0 -0.000948014)
(7.41774e-07 0 -0.000946911)
(1.97671e-07 0 -0.000933952)
(-1.128e-06 0 -0.000875744)
(-3.92194e-06 0 -0.000670062)
(-3.87079e-06 0 -0.00296953)
(1.26734e-05 0 1.00562e-07)
(0.000155496 0 -0.00361842)
(1.14537e-05 0 -4.8115e-05)
(-0.000455282 0 -0.00295679)
(-0.000522234 0 -0.00260932)
(-2.18464e-05 0 -0.000503973)
(-0.000137098 0 -0.00509621)
(1.95476e-05 0 -0.000170401)
(0.000316109 0 -0.00450651)
(0.000211558 0 -0.0017232)
(7.85496e-05 0 -0.00332126)
(-2.55012e-05 0 -0.000244103)
(-0.000166133 0 -0.00319526)
(-0.000189122 0 -0.00292467)
(-6.86099e-05 0 -0.00102737)
(-0.000462031 0 -0.00373562)
(-5.92388e-05 0 -0.000668118)
(-0.000160822 0 -0.00378351)
(-9.54736e-05 0 -0.00169059)
(-0.000226887 0 -0.00291841)
(-0.000120807 0 -0.00240873)
(-2.1485e-05 0 -0.00154716)
(7.81889e-06 0 -0.00175674)
(1.90005e-05 0 -0.000785827)
(7.01161e-05 0 -0.000955671)
(9.58924e-05 0 -0.000872371)
(0.000102151 0 -0.000875579)
(9.79062e-05 0 -0.000892288)
(9.00005e-05 0 -0.000905245)
(8.15185e-05 0 -0.000914953)
(7.34952e-05 0 -0.000923434)
(6.61789e-05 0 -0.000931173)
(5.95762e-05 0 -0.000938164)
(5.36331e-05 0 -0.000944436)
(4.82865e-05 0 -0.000950061)
(4.34767e-05 0 -0.000955112)
(3.91494e-05 0 -0.00095965)
(3.5256e-05 0 -0.000963726)
(3.17525e-05 0 -0.000967386)
(2.85996e-05 0 -0.000970673)
(2.57618e-05 0 -0.000973625)
(2.32074e-05 0 -0.000976278)
(2.09079e-05 0 -0.000978662)
(1.88377e-05 0 -0.000980804)
(1.69737e-05 0 -0.000982729)
(1.52952e-05 0 -0.000984458)
(1.37836e-05 0 -0.000986011)
(1.24221e-05 0 -0.000987408)
(1.11956e-05 0 -0.000988664)
(1.00907e-05 0 -0.000989793)
(9.09519e-06 0 -0.000990809)
(8.19818e-06 0 -0.000991722)
(7.38985e-06 0 -0.000992545)
(6.66138e-06 0 -0.000993285)
(6.00485e-06 0 -0.000993951)
(5.41313e-06 0 -0.000994551)
(4.87978e-06 0 -0.000995091)
(4.39903e-06 0 -0.000995577)
(3.96569e-06 0 -0.000996016)
(3.57507e-06 0 -0.000996411)
(3.22294e-06 0 -0.000996766)
(2.90552e-06 0 -0.000997087)
(2.61939e-06 0 -0.000997376)
(2.36146e-06 0 -0.000997636)
(2.12896e-06 0 -0.000997871)
(1.91939e-06 0 -0.000998083)
(1.7305e-06 0 -0.000998274)
(1.56025e-06 0 -0.000998446)
(1.40682e-06 0 -0.0009986)
(1.26855e-06 0 -0.00099874)
(1.14396e-06 0 -0.000998866)
(1.03169e-06 0 -0.000998979)
(9.30543e-07 0 -0.000999081)
(8.39417e-07 0 -0.000999173)
(7.5733e-07 0 -0.000999256)
(6.83394e-07 0 -0.00099933)
(6.1681e-07 0 -0.000999397)
(5.56857e-07 0 -0.000999458)
(5.02888e-07 0 -0.000999512)
(4.54319e-07 0 -0.000999561)
(4.10627e-07 0 -0.000999606)
(3.7134e-07 0 -0.000999646)
(3.36037e-07 0 -0.000999682)
(3.04338e-07 0 -0.000999715)
(2.75903e-07 0 -0.000999745)
(2.5043e-07 0 -0.000999771)
(2.27647e-07 0 -0.000999796)
(2.07312e-07 0 -0.000999818)
(1.89208e-07 0 -0.000999839)
(1.73143e-07 0 -0.000999858)
(1.58949e-07 0 -0.000999875)
(1.46474e-07 0 -0.000999891)
(1.35588e-07 0 -0.000999905)
(1.26176e-07 0 -0.000999919)
(1.18143e-07 0 -0.000999932)
(1.11413e-07 0 -0.000999944)
(1.05957e-07 0 -0.000999956)
(1.01899e-07 0 -0.000999968)
(9.97197e-08 0 -0.000999977)
(0 -7.02737e-09 -0.000999945)
(0 -9.81505e-09 -0.000999944)
(0 -1.42441e-08 -0.000999943)
(0 -1.9496e-08 -0.000999941)
(0 -2.52007e-08 -0.000999939)
(0 -3.125e-08 -0.000999936)
(0 -3.76539e-08 -0.000999932)
(0 -4.44642e-08 -0.000999928)
(0 -5.17477e-08 -0.000999923)
(0 -5.95788e-08 -0.000999918)
(0 -6.80374e-08 -0.000999911)
(0 -7.72096e-08 -0.000999904)
(0 -8.71884e-08 -0.000999895)
(0 -9.80744e-08 -0.000999886)
(0 -1.09977e-07 -0.000999875)
(0 -1.23016e-07 -0.000999863)
(0 -1.37321e-07 -0.000999849)
(0 -1.53035e-07 -0.000999834)
(0 -1.70317e-07 -0.000999818)
(0 -1.89337e-07 -0.000999799)
(0 -2.10286e-07 -0.000999778)
(0 -2.33375e-07 -0.000999755)
(0 -2.58832e-07 -0.00099973)
(0 -2.86914e-07 -0.000999701)
(0 -3.17902e-07 -0.00099967)
(0 -3.52105e-07 -0.000999635)
(0 -3.89866e-07 -0.000999597)
(0 -4.31564e-07 -0.000999554)
(0 -4.77616e-07 -0.000999507)
(0 -5.28483e-07 -0.000999455)
(0 -5.84674e-07 -0.000999398)
(0 -6.46751e-07 -0.000999334)
(0 -7.15333e-07 -0.000999264)
(0 -7.91105e-07 -0.000999187)
(0 -8.74822e-07 -0.000999102)
(0 -9.67317e-07 -0.000999008)
(0 -1.06951e-06 -0.000998903)
(0 -1.18241e-06 -0.000998788)
(0 -1.30715e-06 -0.000998661)
(0 -1.44494e-06 -0.000998521)
(0 -1.59717e-06 -0.000998366)
(0 -1.76533e-06 -0.000998195)
(0 -1.95107e-06 -0.000998006)
(0 -2.15622e-06 -0.000997797)
(0 -2.3828e-06 -0.000997566)
(0 -2.63304e-06 -0.000997312)
(0 -2.90937e-06 -0.00099703)
(0 -3.2145e-06 -0.000996719)
(0 -3.55141e-06 -0.000996376)
(0 -3.9234e-06 -0.000995998)
(0 -4.33409e-06 -0.000995579)
(0 -4.78749e-06 -0.000995118)
(0 -5.28801e-06 -0.000994609)
(0 -5.84053e-06 -0.000994047)
(0 -6.45041e-06 -0.000993427)
(0 -7.12357e-06 -0.000992744)
(0 -7.86653e-06 -0.00099199)
(0 -8.68648e-06 -0.000991158)
(0 -9.59144e-06 -0.00099024)
(0 -1.05902e-05 -0.000989227)
(0 -1.16925e-05 -0.000988108)
(0 -1.29092e-05 -0.000986872)
(0 -1.42522e-05 -0.000985507)
(0 -1.57347e-05 -0.000983999)
(0 -1.73713e-05 -0.000982332)
(0 -1.91784e-05 -0.00098049)
(0 -2.11739e-05 -0.000978452)
(0 -2.33781e-05 -0.000976196)
(0 -2.58132e-05 -0.000973698)
(0 -2.85044e-05 -0.000970931)
(0 -3.14792e-05 -0.000967866)
(0 -3.47681e-05 -0.000964463)
(0 -3.84009e-05 -0.000960635)
(0 -4.23937e-05 -0.000956249)
(0 -4.6699e-05 -0.000951532)
(0 -5.10636e-05 -0.000948014)
(0 -5.46939e-05 -0.000946911)
(0 -5.58972e-05 -0.000933952)
(0 -5.15944e-05 -0.000875744)
(0 -3.87613e-05 -0.000670062)
(0 -5.83215e-06 -0.00296953)
(0 1.53166e-05 1.00562e-07)
(0 2.41664e-05 -0.00361842)
(0 2.41982e-05 -4.8115e-05)
(0 -0.000266638 -0.00295679)
(0 -0.000292266 -0.00260932)
(0 -1.47235e-05 -0.000503973)
(0 -0.000185527 -0.00509621)
(0 1.4775e-05 -0.000170401)
(0 0.000304413 -0.00450651)
(0 0.000427594 -0.0017232)
(0 0.000899247 -0.00332126)
(0 6.05233e-05 -0.000244103)
(0 0.00135673 -0.00319526)
(0 0.000402263 -0.00292467)
(0 -3.23756e-05 -0.00102737)
(0 -0.00105668 -0.00373562)
(0 -0.00015754 -0.000668118)
(0 -0.000400035 -0.00378351)
(0 -0.000176798 -0.00169059)
(0 -0.000169529 -0.00291841)
(0 -6.68657e-05 -0.00240873)
(0 7.63912e-06 -0.00154716)
(0 2.81855e-05 -0.00175674)
(0 -6.67983e-06 -0.000785827)
(0 -1.93089e-07 -0.000955671)
(0 6.72136e-06 -0.000872371)
(0 8.17831e-06 -0.000875579)
(0 7.16643e-06 -0.000892288)
(0 5.88665e-06 -0.000905245)
(0 4.85816e-06 -0.000914953)
(0 4.04796e-06 -0.000923434)
(0 3.38208e-06 -0.000931173)
(0 2.82204e-06 -0.000938164)
(0 2.34785e-06 -0.000944436)
(0 1.94598e-06 -0.000950061)
(0 1.60575e-06 -0.000955112)
(0 1.31845e-06 -0.00095965)
(0 1.07668e-06 -0.000963726)
(0 8.73656e-07 -0.000967386)
(0 7.03593e-07 -0.000970673)
(0 5.61553e-07 -0.000973625)
(0 4.43316e-07 -0.000976278)
(0 3.45285e-07 -0.000978662)
(0 2.64399e-07 -0.000980804)
(0 1.98015e-07 -0.000982729)
(0 1.43688e-07 -0.000984458)
(0 9.94118e-08 -0.000986011)
(0 6.35267e-08 -0.000987408)
(0 3.46488e-08 -0.000988664)
(0 1.15997e-08 -0.000989793)
(0 -6.6345e-09 -0.000990809)
(0 -2.08953e-08 -0.000991722)
(0 -3.18841e-08 -0.000992545)
(0 -4.01898e-08 -0.000993285)
(0 -4.62994e-08 -0.000993951)
(0 -5.06193e-08 -0.000994551)
(0 -5.3488e-08 -0.000995091)
(0 -5.51856e-08 -0.000995577)
(0 -5.59444e-08 -0.000996016)
(0 -5.59554e-08 -0.000996411)
(0 -5.53771e-08 -0.000996766)
(0 -5.43408e-08 -0.000997087)
(0 -5.2952e-08 -0.000997376)
(0 -5.12945e-08 -0.000997636)
(0 -4.94344e-08 -0.000997871)
(0 -4.74257e-08 -0.000998083)
(0 -4.53112e-08 -0.000998274)
(0 -4.31281e-08 -0.000998446)
(0 -4.09078e-08 -0.0009986)
(0 -3.86765e-08 -0.00099874)
(0 -3.64567e-08 -0.000998866)
(0 -3.42677e-08 -0.000998979)
(0 -3.21261e-08 -0.000999081)
(0 -3.00461e-08 -0.000999173)
(0 -2.80398e-08 -0.000999256)
(0 -2.61167e-08 -0.00099933)
(0 -2.42846e-08 -0.000999397)
(0 -2.25493e-08 -0.000999458)
(0 -2.09145e-08 -0.000999512)
(0 -1.93822e-08 -0.000999561)
(0 -1.79527e-08 -0.000999606)
(0 -1.66247e-08 -0.000999646)
(0 -1.53955e-08 -0.000999682)
(0 -1.42613e-08 -0.000999715)
(0 -1.32171e-08 -0.000999745)
(0 -1.22571e-08 -0.000999771)
(0 -1.13753e-08 -0.000999796)
(0 -1.05652e-08 -0.000999818)
(0 -9.8202e-09 -0.000999839)
(0 -9.13365e-09 -0.000999858)
(0 -8.49906e-09 -0.000999875)
(0 -7.91001e-09 -0.000999891)
(0 -7.36008e-09 -0.000999905)
(0 -6.84226e-09 -0.000999919)
(0 -6.34819e-09 -0.000999932)
(0 -5.8694e-09 -0.000999944)
(0 -5.4098e-09 -0.000999956)
(0 -4.99713e-09 -0.000999968)
(0 -4.67932e-09 -0.000999977)
)
;
    }
    procBoundary0to1
    {
        type            processor;
        value           nonuniform List<vector> 
180
(
(8.38417e-10 -7.09407e-09 -0.00099994)
(7.73865e-10 -1.00017e-08 -0.000999939)
(8.02921e-10 -1.45519e-08 -0.000999938)
(9.36884e-10 -1.99193e-08 -0.000999936)
(1.12578e-09 -2.57291e-08 -0.000999934)
(1.33495e-09 -3.1877e-08 -0.000999931)
(1.54676e-09 -3.83712e-08 -0.000999928)
(1.75481e-09 -4.52625e-08 -0.000999924)
(1.95724e-09 -5.26177e-08 -0.000999919)
(2.15384e-09 -6.05113e-08 -0.000999913)
(2.34513e-09 -6.90245e-08 -0.000999907)
(2.53207e-09 -7.82454e-08 -0.000999899)
(2.71595e-09 -8.82697e-08 -0.000999891)
(2.89845e-09 -9.92013e-08 -0.000999881)
(3.08154e-09 -1.11154e-07 -0.00099987)
(3.26751e-09 -1.24252e-07 -0.000999858)
(3.45894e-09 -1.38632e-07 -0.000999845)
(3.65865e-09 -1.54443e-07 -0.000999829)
(3.86972e-09 -1.7185e-07 -0.000999812)
(4.09542e-09 -1.91032e-07 -0.000999793)
(4.33921e-09 -2.12189e-07 -0.000999772)
(4.60474e-09 -2.35539e-07 -0.000999748)
(4.89586e-09 -2.61322e-07 -0.000999722)
(5.21658e-09 -2.89804e-07 -0.000999692)
(5.57114e-09 -3.21277e-07 -0.00099966)
(5.96406e-09 -3.56064e-07 -0.000999624)
(6.40021e-09 -3.94521e-07 -0.000999585)
(6.88486e-09 -4.3704e-07 -0.000999541)
(7.4239e-09 -4.84054e-07 -0.000999492)
(8.02399e-09 -5.36044e-07 -0.000999439)
(8.6929e-09 -5.93538e-07 -0.00099938)
(9.43963e-09 -6.57122e-07 -0.000999314)
(1.02749e-08 -7.27441e-07 -0.000999242)
(1.1211e-08 -8.05212e-07 -0.000999162)
(1.22627e-08 -8.91223e-07 -0.000999073)
(1.34477e-08 -9.86349e-07 -0.000998976)
(1.47859e-08 -1.09156e-06 -0.000998868)
(1.63005e-08 -1.20791e-06 -0.000998748)
(1.80178e-08 -1.3366e-06 -0.000998616)
(1.99675e-08 -1.47892e-06 -0.000998469)
(2.2183e-08 -1.63632e-06 -0.000998308)
(2.47022e-08 -1.8104e-06 -0.000998129)
(2.75672e-08 -2.00293e-06 -0.000997931)
(3.08255e-08 -2.21585e-06 -0.000997712)
(3.45301e-08 -2.45133e-06 -0.00099747)
(3.87406e-08 -2.71175e-06 -0.000997203)
(4.35244e-08 -2.99976e-06 -0.000996907)
(4.89569e-08 -3.31828e-06 -0.00099658)
(5.51235e-08 -3.67053e-06 -0.000996219)
(6.21207e-08 -4.06007e-06 -0.00099582)
(7.00607e-08 -4.49084e-06 -0.000995378)
(7.90708e-08 -4.96718e-06 -0.00099489)
(8.9299e-08 -5.4939e-06 -0.000994351)
(1.00917e-07 -6.07629e-06 -0.000993755)
(1.14125e-07 -6.72021e-06 -0.000993096)
(1.29167e-07 -7.43215e-06 -0.000992368)
(1.46334e-07 -8.21926e-06 -0.000991562)
(1.65919e-07 -9.08943e-06 -0.000990673)
(1.88188e-07 -1.00513e-05 -0.00098969)
(2.13429e-07 -1.11145e-05 -0.000988606)
(2.41946e-07 -1.22894e-05 -0.000987409)
(2.74056e-07 -1.35878e-05 -0.000986087)
(3.10079e-07 -1.50222e-05 -0.000984629)
(3.50326e-07 -1.66069e-05 -0.00098302)
(3.95085e-07 -1.83571e-05 -0.000981246)
(4.44595e-07 -2.02899e-05 -0.00097929)
(4.99022e-07 -2.24236e-05 -0.000977134)
(5.584e-07 -2.47788e-05 -0.00097476)
(6.22575e-07 -2.73776e-05 -0.000972146)
(6.91115e-07 -3.02442e-05 -0.000969271)
(7.63091e-07 -3.3405e-05 -0.000966113)
(8.36181e-07 -3.68873e-05 -0.000962642)
(9.0373e-07 -4.0716e-05 -0.000958791)
(9.44588e-07 -4.48959e-05 -0.000954447)
(8.95314e-07 -4.93572e-05 -0.000949821)
(5.90317e-07 -5.38021e-05 -0.000946355)
(-3.27855e-07 -5.73352e-05 -0.000945626)
(-2.46013e-06 -5.77287e-05 -0.00093605)
(-6.49806e-06 -5.03997e-05 -0.000885177)
(-1.19879e-05 -2.99273e-05 -0.00067629)
(-8.71208e-06 5.51144e-06 -0.00265437)
(1.64502e-05 -2.91054e-05 -2.56167e-05)
(0.000163905 -0.000239199 -0.00269203)
(7.25016e-05 -8.62751e-05 -0.00342874)
(-7.18372e-07 5.922e-06 -0.000616354)
(-0.000552735 0.000288114 -0.00448119)
(-8.60195e-06 6.34197e-06 -0.00020659)
(-0.000319359 0.000256546 -0.00327258)
(7.68165e-05 -0.000131612 -0.00167132)
(0.000350945 -0.000169443 -0.0037725)
(5.24027e-05 8.01148e-06 -0.00142998)
(1.85508e-05 5.54269e-05 -0.00424172)
(-4.53349e-05 7.16779e-05 -0.000926244)
(-0.000145153 0.000587701 -0.00413397)
(-1.15112e-05 -2.5957e-05 -8.05202e-05)
(-0.000249213 0.000495623 -0.00427391)
(-0.00013307 0.00020758 -0.00174963)
(-0.00020677 0.000254531 -0.00219203)
(-0.000198886 0.000319159 -0.00367071)
(-9.52512e-05 -7.09656e-05 -0.00183116)
(-0.0002624 -8.82769e-05 -0.0029052)
(-0.000410114 -9.25713e-05 -0.00252293)
(-0.00011136 -6.12661e-05 -0.00178385)
(-1.89618e-06 -3.09376e-05 -0.00171475)
(3.55501e-05 -1.47499e-05 -0.00137799)
(8.29197e-05 -6.40965e-06 -0.00123633)
(0.000102596 -8.46415e-06 -0.00113533)
(0.000104597 -1.11696e-05 -0.001115)
(9.85588e-05 -1.19226e-05 -0.00110966)
(9.00838e-05 -1.13275e-05 -0.00110092)
(8.14633e-05 -1.02554e-05 -0.00109078)
(7.34219e-05 -9.12902e-06 -0.00108148)
(6.61144e-05 -8.08354e-06 -0.00107328)
(5.95236e-05 -7.1479e-06 -0.00106596)
(5.3591e-05 -6.32001e-06 -0.00105938)
(4.82528e-05 -5.58984e-06 -0.00105345)
(4.34498e-05 -4.94621e-06 -0.00104812)
(3.91279e-05 -4.37875e-06 -0.00104333)
(3.52388e-05 -3.87825e-06 -0.00103901)
(3.17388e-05 -3.43663e-06 -0.00103513)
(2.85886e-05 -3.04681e-06 -0.00103164)
(2.5753e-05 -2.70257e-06 -0.0010285)
(2.32004e-05 -2.39847e-06 -0.00102567)
(2.09023e-05 -2.12973e-06 -0.00102313)
(1.88331e-05 -1.89215e-06 -0.00102083)
(1.69701e-05 -1.68203e-06 -0.00101877)
(1.52923e-05 -1.49616e-06 -0.00101691)
(1.37813e-05 -1.33166e-06 -0.00101524)
(1.24202e-05 -1.18593e-06 -0.00101373)
(1.11941e-05 -1.0567e-06 -0.00101237)
(1.00895e-05 -9.42015e-07 -0.00101115)
(9.09422e-06 -8.40158e-07 -0.00101005)
(8.1974e-06 -7.49643e-07 -0.00100906)
(7.38922e-06 -6.69162e-07 -0.00100817)
(6.66088e-06 -5.97566e-07 -0.00100736)
(6.00445e-06 -5.33842e-07 -0.00100664)
(5.4128e-06 -4.77098e-07 -0.00100599)
(4.87952e-06 -4.26547e-07 -0.0010054)
(4.39882e-06 -3.81495e-07 -0.00100487)
(3.96552e-06 -3.4133e-07 -0.00100439)
(3.57493e-06 -3.0551e-07 -0.00100396)
(3.22283e-06 -2.73555e-07 -0.00100357)
(2.90543e-06 -2.45043e-07 -0.00100322)
(2.61932e-06 -2.19596e-07 -0.0010029)
(2.3614e-06 -1.96881e-07 -0.00100262)
(2.12891e-06 -1.76601e-07 -0.00100236)
(1.91935e-06 -1.58492e-07 -0.00100213)
(1.73047e-06 -1.42319e-07 -0.00100192)
(1.56023e-06 -1.27872e-07 -0.00100173)
(1.4068e-06 -1.14964e-07 -0.00100156)
(1.26854e-06 -1.03427e-07 -0.00100141)
(1.14395e-06 -9.31123e-08 -0.00100127)
(1.03168e-06 -8.38856e-08 -0.00100115)
(9.30535e-07 -7.56279e-08 -0.00100103)
(8.3941e-07 -6.82324e-08 -0.00100093)
(7.57324e-07 -6.16041e-08 -0.00100084)
(6.83389e-07 -5.56581e-08 -0.00100076)
(6.16806e-07 -5.03188e-08 -0.00100068)
(5.56854e-07 -4.55189e-08 -0.00100061)
(5.02885e-07 -4.11985e-08 -0.00100055)
(4.54317e-07 -3.73047e-08 -0.0010005)
(4.10625e-07 -3.37905e-08 -0.00100045)
(3.71339e-07 -3.06145e-08 -0.0010004)
(3.36036e-07 -2.77402e-08 -0.00100036)
(3.04337e-07 -2.51356e-08 -0.00100032)
(2.75903e-07 -2.27725e-08 -0.00100029)
(2.5043e-07 -2.06262e-08 -0.00100026)
(2.27647e-07 -1.8675e-08 -0.00100023)
(2.07311e-07 -1.69001e-08 -0.00100021)
(1.89207e-07 -1.52848e-08 -0.00100019)
(1.73143e-07 -1.38146e-08 -0.00100016)
(1.58949e-07 -1.24766e-08 -0.00100015)
(1.46474e-07 -1.12595e-08 -0.00100013)
(1.35588e-07 -1.01536e-08 -0.00100011)
(1.26176e-07 -9.15142e-09 -0.0010001)
(1.18143e-07 -8.24995e-09 -0.00100008)
(1.11413e-07 -7.45732e-09 -0.00100007)
(1.05957e-07 -6.80237e-09 -0.00100006)
(1.01899e-07 -6.35321e-09 -0.00100004)
(9.97197e-08 -6.21999e-09 -0.00100003)
)
;
    }
    procBoundary0to2
    {
        type            processor;
        value           nonuniform List<vector> 
180
(
(7.71724e-10 -7.02739e-09 -0.00100005)
(5.87186e-10 -9.81508e-09 -0.00100005)
(4.95119e-10 -1.42441e-08 -0.00100006)
(5.13624e-10 -1.94961e-08 -0.00100006)
(5.97326e-10 -2.52007e-08 -0.00100006)
(7.07944e-10 -3.125e-08 -0.00100006)
(8.29471e-10 -3.76539e-08 -0.00100007)
(9.56433e-10 -4.44642e-08 -0.00100007)
(1.08726e-09 -5.17478e-08 -0.00100008)
(1.22134e-09 -5.95788e-08 -0.00100008)
(1.358e-09 -6.80375e-08 -0.00100009)
(1.49627e-09 -7.72097e-08 -0.0010001)
(1.63474e-09 -8.71886e-08 -0.00100011)
(1.7716e-09 -9.80746e-08 -0.00100012)
(1.90456e-09 -1.09977e-07 -0.00100013)
(2.03092e-09 -1.23016e-07 -0.00100014)
(2.14749e-09 -1.37321e-07 -0.00100015)
(2.25066e-09 -1.53036e-07 -0.00100017)
(2.33632e-09 -1.70317e-07 -0.00100019)
(2.39993e-09 -1.89337e-07 -0.00100021)
(2.4365e-09 -2.10287e-07 -0.00100023)
(2.44057e-09 -2.33375e-07 -0.00100025)
(2.40617e-09 -2.58833e-07 -0.00100027)
(2.32682e-09 -2.86916e-07 -0.0010003)
(2.1955e-09 -3.17903e-07 -0.00100033)
(2.00453e-09 -3.52106e-07 -0.00100037)
(1.7455e-09 -3.89868e-07 -0.00100041)
(1.4092e-09 -4.31566e-07 -0.00100045)
(9.85407e-10 -4.77619e-07 -0.00100049)
(4.62784e-10 -5.28486e-07 -0.00100055)
(-1.71329e-10 -5.84678e-07 -0.0010006)
(-9.312e-10 -6.46756e-07 -0.00100067)
(-1.83298e-09 -7.1534e-07 -0.00100074)
(-2.89497e-09 -7.91114e-07 -0.00100081)
(-4.13779e-09 -8.74832e-07 -0.0010009)
(-5.58469e-09 -9.67329e-07 -0.00100099)
(-7.2621e-09 -1.06952e-06 -0.0010011)
(-9.20037e-09 -1.18243e-06 -0.00100121)
(-1.1435e-08 -1.30717e-06 -0.00100134)
(-1.40076e-08 -1.44497e-06 -0.00100148)
(-1.69672e-08 -1.59721e-06 -0.00100163)
(-2.03715e-08 -1.76537e-06 -0.0010018)
(-2.42883e-08 -1.95112e-06 -0.00100199)
(-2.87969e-08 -2.15629e-06 -0.0010022)
(-3.399e-08 -2.38289e-06 -0.00100243)
(-3.99742e-08 -2.63313e-06 -0.00100268)
(-4.68721e-08 -2.90949e-06 -0.00100296)
(-5.48252e-08 -3.21465e-06 -0.00100327)
(-6.39934e-08 -3.5516e-06 -0.00100361)
(-7.45496e-08 -3.92363e-06 -0.00100399)
(-8.66868e-08 -4.33437e-06 -0.0010044)
(-1.00618e-07 -4.78783e-06 -0.00100486)
(-1.16579e-07 -5.28843e-06 -0.00100536)
(-1.34833e-07 -5.84104e-06 -0.00100592)
(-1.55668e-07 -6.45104e-06 -0.00100653)
(-1.79405e-07 -7.12434e-06 -0.00100721)
(-2.06391e-07 -7.86747e-06 -0.00100796)
(-2.37008e-07 -8.68765e-06 -0.00100878)
(-2.71668e-07 -9.59286e-06 -0.00100969)
(-3.10811e-07 -1.0592e-05 -0.0010107)
(-3.54907e-07 -1.16947e-05 -0.00101181)
(-4.04444e-07 -1.29119e-05 -0.00101303)
(-4.59926e-07 -1.42554e-05 -0.00101439)
(-5.2185e-07 -1.57386e-05 -0.00101589)
(-5.90686e-07 -1.73762e-05 -0.00101754)
(-6.66851e-07 -1.91843e-05 -0.00101937)
(-7.50671e-07 -2.11812e-05 -0.0010214)
(-8.42321e-07 -2.3387e-05 -0.00102364)
(-9.41769e-07 -2.58241e-05 -0.00102613)
(-1.04871e-06 -2.85178e-05 -0.00102889)
(-1.16259e-06 -3.14959e-05 -0.00103196)
(-1.28293e-06 -3.47894e-05 -0.00103537)
(-1.41114e-06 -3.84302e-05 -0.00103913)
(-1.5577e-06 -4.24399e-05 -0.00104317)
(-1.7656e-06 -4.67852e-05 -0.00104772)
(-2.15745e-06 -5.12462e-05 -0.00105461)
(-2.9265e-06 -5.50576e-05 -0.00106614)
(-4.11586e-06 -5.65883e-05 -0.00106903)
(-4.84188e-06 -5.2812e-05 -0.00102406)
(-2.20682e-06 -4.06879e-05 -0.000756911)
(4.55634e-06 -1.03101e-05 -0.00337245)
(-4.82504e-06 9.12645e-06 6.21539e-07)
(-0.000117447 2.80922e-05 -0.00398342)
(-2.1979e-06 1.59846e-05 -0.00029813)
(9.65562e-05 -0.000149936 -0.00390919)
(4.07922e-05 -0.000228515 -0.00437313)
(1.47363e-05 -8.65233e-06 -0.000396243)
(0.000374869 -0.000427949 -0.00476015)
(-4.47542e-05 3.80667e-05 -0.00113311)
(-0.000329095 0.000781678 -0.00291965)
(-0.000418196 0.000988184 -0.00324306)
(-0.0001292 0.000195695 -0.000675022)
(-0.000971145 0.00138564 -0.00273426)
(-0.000302644 0.000470567 -0.00242758)
(-3.08905e-05 4.15437e-05 -8.77626e-05)
(6.85667e-05 1.47878e-05 -0.00476711)
(7.66661e-06 -6.45054e-06 -0.000299298)