/*--------------------------------*- C++ -*----------------------------------*\
| =========                 |                                                 |
| \\      /  F ield         | OpenFOAM: The Open Source CFD Toolbox           |
|  \\    /   O peration     | Version:  5.x                                   |
|   \\  /    A nd           | Web:      www.OpenFOAM.org                      |
|    \\/     M anipulation  |                                                 |
\*---------------------------------------------------------------------------*/
FoamFile
{
    version     2.0;
    format      ascii;
    class       surfaceScalarField;
    location    "500";
    object      phi;
}
// * * * * * * * * * * * * * * * * * * * * * * * * * * * * * * * * * * * * * //

dimensions      [0 3 -1 0 0 0 0];

internalField   nonuniform List<scalar> 
89
(
-0.0249999
-0.0249999
-0.0249998
-0.0249998
-0.0249997
-0.0249996
-0.0249994
-0.0249992
-0.024999
-0.0249987
-0.0249984
-0.0249979
-0.0249973
-0.0249965
-0.0249955
-0.0249942
-0.0249924
-0.0249901
-0.0249871
-0.0249832
-0.024978
-0.0249711
-0.024962
-0.0249501
-0.0249343
-0.0249135
-0.024886
-0.0248496
-0.0248016
-0.024738
-0.0246538
-0.0245424
-0.0243946
-0.0241983
-0.0239358
-0.0235954
-0.0231687
-0.0227196
-0.02208
-0.0230381
-0.0229958
-0.0224896
-0.0222115
-0.0217032
-0.0211909
-0.0208968
-0.0209161
-0.0213682
-0.0218113
-0.0216939
-0.0216777
-0.0218761
-0.0218889
-0.0222137
-0.0228285
-0.0233349
-0.0237215
-0.0240171
-0.0242434
-0.024417
-0.0245502
-0.0246526
-0.0247313
-0.0247919
-0.0248386
-0.0248747
-0.0249025
-0.024924
-0.0249407
-0.0249537
-0.0249638
-0.0249716
-0.0249777
-0.0249825
-0.0249862
-0.0249892
-0.0249915
-0.0249933
-0.0249947
-0.0249959
-0.0249968
-0.0249975
-0.0249981
-0.0249986
-0.0249989
-0.0249992
-0.0249994
-0.0249996
-0.0249997
)
;

boundaryField
{
    inlet
    {
        type            calculated;
        value           uniform -0.0249998;
    }
    outlet
    {
        type            calculated;
        value           uniform 0.0249999;
    }
    repeat_boundary
    {
        type            calculated;
        value           uniform 0;
    }
    procBoundary0to1
    {
        type            processor;
        value           nonuniform List<scalar> 
90
(
9.06065e-09
1.72259e-08
2.62495e-08
3.51182e-08
4.36261e-08
5.16628e-08
5.91653e-08
6.60809e-08
7.23716e-08
7.80265e-08
8.28528e-08
8.63127e-08
8.74657e-08
8.48068e-08
7.61037e-08
5.83687e-08
2.89434e-08
-2.66133e-08
-1.3875e-07
-3.07437e-07
-5.58061e-07
-9.25013e-07
-1.45545e-06
-2.21256e-06
-3.28246e-06
-4.78272e-06
-6.8728e-06
-9.76853e-06
-1.37619e-05
-1.9247e-05
-2.67553e-05
-3.70046e-05
-5.09845e-05
-7.01855e-05
-9.71584e-05
-0.000128749
-0.000165503
-0.000176927
-0.000270783
0.00040859
-1.98468e-05
-0.000189839
-8.42596e-05
-0.000280753
-0.000288559
-0.000208998
-0.000168594
-3.24644e-05
0.000103666
-0.000144575
-4.41947e-05
6.35923e-05
-0.00013131
0.000208189
0.000396811
0.000333063
0.000260268
0.000203287
0.000158986
0.000124478
9.7582e-05
7.65959e-05
6.02005e-05
4.7375e-05
3.7329e-05
2.94498e-05
2.32619e-05
1.83961e-05
1.45652e-05
1.15455e-05
9.16279e-06
7.28059e-06
5.79227e-06
4.61419e-06
3.68066e-06
2.93988e-06
2.35089e-06
1.88202e-06
1.50871e-06
1.21131e-06
9.74323e-07
7.85531e-07
6.35345e-07
5.16229e-07
4.22278e-07
3.48882e-07
2.92408e-07
2.4976e-07
2.17764e-07
2.01779e-07
)
;
    }
    procBoundary0to2
    {
        type            processor;
        value           nonuniform List<scalar> 
90
(
-1.42134e-08
-2.82539e-08
-4.58436e-08
-6.67748e-08
-9.22383e-08
-1.23677e-07
-1.62757e-07
-2.11461e-07
-2.72189e-07
-3.47937e-07
-4.42488e-07
-5.60672e-07
-7.08712e-07
-8.94659e-07
-1.12895e-06
-1.42512e-06
-1.8007e-06
-2.2783e-06
-2.88728e-06
-3.66623e-06
-4.66493e-06
-5.94782e-06
-7.59855e-06
-9.7259e-06
-1.24715e-05
-1.602e-05
-2.06126e-05
-2.65652e-05
-3.4291e-05
-4.43323e-05
-5.74006e-05
-7.44333e-05
-9.67028e-05
-0.000126106
-0.000165404
-0.000211626
-0.000261103
-0.000272203
-0.000368965
0.000549417
-2.23838e-05
-0.000316385
-0.000193923
-0.00022757
-0.000223735
-8.50443e-05
0.000187823
0.000484602
0.000339387
2.7211e-05
2.80568e-05
0.00013482
0.000144074
0.00011653
0.000217776
0.000173277
0.000126305
9.22342e-05
6.73789e-05
4.90796e-05
3.56441e-05
2.57706e-05
1.85211e-05
1.32169e-05
9.35493e-06
6.56471e-06
4.56535e-06
3.13941e-06
2.12683e-06
1.41242e-06
9.12731e-07
5.66989e-07
3.30637e-07
1.70783e-07
6.00821e-08
-2.27984e-08
-5.78218e-08
-6.75928e-08
-7.67764e-08
-8.06485e-08
-8.03996e-08
-7.78402e-08
-7.42897e-08
-7.03099e-08
-6.61505e-08
-6.21674e-08
-5.86377e-08
-5.588e-08
-5.37341e-08
-5.18736e-08
)
;
    }
}


// ************************************************************************* //
