/*--------------------------------*- C++ -*----------------------------------*\
| =========                 |                                                 |
| \\      /  F ield         | OpenFOAM: The Open Source CFD Toolbox           |
|  \\    /   O peration     | Version:  5.x                                   |
|   \\  /    A nd           | Web:      www.OpenFOAM.org                      |
|    \\/     M anipulation  |                                                 |
\*---------------------------------------------------------------------------*/
FoamFile
{
    version     2.0;
    format      ascii;
    class       volVectorField;
    location    "500";
    object      U;
}
// * * * * * * * * * * * * * * * * * * * * * * * * * * * * * * * * * * * * * //

dimensions      [0 1 -1 0 0 0 0];

internalField   nonuniform List<vector> 
90
(
(1.69835e-09 -2.77142e-09 -0.000999996)
(3.08025e-09 -5.5121e-09 -0.000999995)
(4.68422e-09 -8.88371e-09 -0.000999994)
(6.33366e-09 -1.2811e-08 -0.000999992)
(8.0138e-09 -1.74978e-08 -0.000999989)
(9.72722e-09 -2.32021e-08 -0.000999985)
(1.14767e-08 -3.02298e-08 -0.00099998)
(1.32588e-08 -3.8952e-08 -0.000999973)
(1.50566e-08 -4.98186e-08 -0.000999965)
(1.68307e-08 -6.33942e-08 -0.000999955)
(1.85053e-08 -8.0391e-08 -0.000999942)
(1.99487e-08 -1.01716e-07 -0.000999926)
(2.09446e-08 -1.2853e-07 -0.000999904)
(2.11544e-08 -1.62329e-07 -0.000999877)
(2.00662e-08 -2.05041e-07 -0.000999841)
(1.69272e-08 -2.59157e-07 -0.000999795)
(1.066e-08 -3.27889e-07 -0.000999734)
(-2.36957e-10 -4.15375e-07 -0.000999654)
(-1.79118e-08 -5.26978e-07 -0.00099955)
(-4.55402e-08 -6.69729e-07 -0.000999412)
(-8.75085e-08 -8.52729e-07 -0.00099923)
(-1.4987e-07 -1.08779e-06 -0.000998991)
(-2.40915e-07 -1.39026e-06 -0.000998676)
(-3.71869e-07 -1.78012e-06 -0.00099826)
(-5.58054e-07 -2.28341e-06 -0.000997711)
(-8.20528e-07 -2.93409e-06 -0.000996987)
(-1.18789e-06 -3.77658e-06 -0.000996031)
(-1.69892e-06 -4.86895e-06 -0.000994769)
(-2.40611e-06 -6.28726e-06 -0.000993099)
(-3.38042e-06 -8.1312e-06 -0.000990889)
(-4.7175e-06 -1.05315e-05 -0.000987964)
(-6.54703e-06 -1.36609e-05 -0.000984116)
(-9.05068e-06 -1.77589e-05 -0.000979133)
(-1.25111e-05 -2.32035e-05 -0.000972326)
(-1.73925e-05 -3.06059e-05 -0.000960266)
(-2.27509e-05 -3.83483e-05 -0.00094479)
(-2.96609e-05 -4.81748e-05 -0.000947987)
(-3.36555e-05 -5.31129e-05 -0.00106226)
(-4.45002e-05 -6.3322e-05 -0.000387062)
(7.10642e-05 9.40532e-05 -0.00194415)
(-5.22919e-06 -6.95566e-06 -0.00167688)
(-3.01559e-05 -6.03225e-05 -0.00154044)
(-2.06356e-05 -4.80763e-05 -0.00238433)
(-5.50126e-05 -4.56413e-05 -0.00214551)
(-7.23921e-05 -5.9575e-05 -0.00241012)
(-2.35152e-05 -8.86566e-06 -0.00181511)
(-3.90467e-05 5.18345e-05 -0.00259235)
(1.89442e-05 9.03864e-05 -0.00175015)
(4.50392e-05 0.000114899 -0.00234891)
(-1.49758e-05 1.40892e-05 -0.00229937)
(2.07364e-05 1.53307e-05 -0.00167612)
(4.91449e-05 5.33482e-05 -0.00165217)
(-4.06905e-05 2.96568e-05 -0.00185814)
(-3.0902e-06 -3.33511e-06 -0.000989754)
(6.7986e-05 3.4681e-05 -0.000882902)
(6.36218e-05 3.14302e-05 -0.000914544)
(4.99385e-05 2.35375e-05 -0.000941358)
(3.88156e-05 1.72023e-05 -0.000955509)
(3.02054e-05 1.25368e-05 -0.000965611)
(2.35413e-05 9.11088e-06 -0.000973463)
(1.83767e-05 6.60233e-06 -0.000979534)
(1.43678e-05 4.7662e-06 -0.000984201)
(1.12508e-05 3.42398e-06 -0.000987788)
(8.82311e-06 2.44616e-06 -0.000990548)
(6.92935e-06 1.73618e-06 -0.000992674)
(5.4497e-06 1.22236e-06 -0.000994313)
(4.29182e-06 8.51931e-07 -0.000995579)
(3.38438e-06 5.86163e-07 -0.000996558)
(2.67223e-06 3.96622e-07 -0.000997316)
(2.11259e-06 2.62454e-07 -0.000997904)
(1.67224e-06 1.68367e-07 -0.000998361)
(1.32534e-06 1.03171e-07 -0.000998717)
(1.05174e-06 5.86918e-08 -0.000998994)
(8.35721e-07 2.89688e-08 -0.00099921)
(6.64984e-07 9.6612e-09 -0.000999379)
(5.29873e-07 -2.42727e-09 -0.000999511)
(4.22776e-07 -9.69083e-09 -0.000999615)
(3.37791e-07 -1.37148e-08 -0.000999697)
(2.70315e-07 -1.55544e-08 -0.000999762)
(2.16701e-07 -1.6008e-08 -0.000999814)
(1.74082e-07 -1.56401e-08 -0.000999855)
(1.40206e-07 -1.48363e-08 -0.000999888)
(1.13311e-07 -1.38532e-08 -0.000999914)
(9.20174e-08 -1.28564e-08 -0.000999935)
(7.52549e-08 -1.19463e-08 -0.000999951)
(6.21943e-08 -1.11777e-08 -0.000999964)
(5.21867e-08 -1.05778e-08 -0.000999973)
(4.46834e-08 -1.01501e-08 -0.000999981)
(3.92095e-08 -9.8204e-09 -0.000999988)
(3.65882e-08 -9.50957e-09 -0.000999992)
)
;

boundaryField
{
    inlet
    {
        type            zeroGradient;
    }
    outlet
    {
        type            zeroGradient;
    }
    repeat_boundary
    {
        type            slip;
    }
    procBoundary0to1
    {
        type            processor;
        value           nonuniform List<vector> 
90
(
(1.69833e-09 -2.31659e-09 -0.00099998)
(3.08022e-09 -4.60773e-09 -0.000999979)
(4.68417e-09 -7.24088e-09 -0.000999977)
(6.33354e-09 -1.00447e-08 -0.000999975)
(8.01364e-09 -1.306e-08 -0.000999971)
(9.72729e-09 -1.63553e-08 -0.000999967)
(1.14769e-08 -2.00108e-08 -0.000999961)
(1.32588e-08 -2.41169e-08 -0.000999955)
(1.50565e-08 -2.87717e-08 -0.000999946)
(1.68306e-08 -3.40761e-08 -0.000999937)
(1.85051e-08 -4.01261e-08 -0.000999925)
(1.99484e-08 -4.70003e-08 -0.000999912)
(2.09442e-08 -5.4741e-08 -0.000999897)
(2.11538e-08 -6.33273e-08 -0.00099988)
(2.00651e-08 -7.26375e-08 -0.000999861)
(1.69253e-08 -8.2398e-08 -0.00099984)
(1.06567e-08 -9.21161e-08 -0.000999818)
(-2.42934e-10 -1.00993e-07 -0.000999796)
(-1.79226e-08 -1.07759e-07 -0.000999776)
(-4.55598e-08 -1.10401e-07 -0.000999761)
(-8.75445e-08 -1.05962e-07 -0.000999755)
(-1.49937e-07 -9.01462e-08 -0.000999764)
(-2.41038e-07 -5.68563e-08 -0.000999796)
(-3.72094e-07 2.28836e-09 -0.000999862)
(-5.58463e-07 9.90576e-08 -0.00099998)
(-8.21271e-07 2.50271e-07 -0.00100018)
(-1.18924e-06 4.79246e-07 -0.00100048)
(-1.70137e-06 8.18212e-07 -0.00100095)
(-2.41059e-06 1.31159e-06 -0.00100164)
(-3.38856e-06 2.0204e-06 -0.00100264)
(-4.73225e-06 3.02829e-06 -0.00100408)
(-6.57292e-06 4.44995e-06 -0.00100615)
(-9.0901e-06 6.44311e-06 -0.00100921)
(-1.25445e-05 9.23316e-06 -0.00101339)
(-1.74407e-05 1.32603e-05 -0.00101592)
(-2.32496e-05 1.81698e-05 -0.0010116)
(-3.00601e-05 2.46819e-05 -0.0010382)
(-3.36428e-05 2.93104e-05 -0.00126686)
(-4.25056e-05 3.32899e-05 -0.00035256)
(6.52961e-05 -3.73836e-05 -0.00258609)
(-1.79324e-06 2.83613e-06 -0.00120741)
(-6.24747e-05 2.32539e-05 -0.00298389)
(-1.42046e-05 2.60032e-05 -0.0019278)
(-7.64494e-05 3.46941e-05 -0.00319346)
(-6.45422e-05 -2.64829e-05 -0.00226491)
(-6.97539e-05 -2.49411e-06 -0.00325254)
(-2.64222e-05 6.55813e-05 -0.00197396)
(-7.64701e-06 0.000143769 -0.00331563)
(4.3361e-05 5.17553e-05 -0.00232463)
(-2.28597e-05 -1.12023e-05 -0.0027471)
(-6.94015e-06 -1.96519e-05 -0.00264355)
(2.39787e-05 1.27723e-05 -0.0016723)
(-7.11011e-06 5.8497e-05 -0.00246176)
(8.5197e-05 -4.11119e-05 -0.00109381)
(8.40424e-05 -5.69694e-05 -0.00107557)
(6.39031e-05 -4.60436e-05 -0.00108622)
(4.93793e-05 -3.51796e-05 -0.00107109)
(3.84531e-05 -2.68299e-05 -0.00105507)
(2.99932e-05 -2.04737e-05 -0.00104269)
(2.34176e-05 -1.56322e-05 -0.00103327)
(1.83046e-05 -1.19488e-05 -0.00102598)
(1.43256e-05 -9.14224e-06 -0.00102032)
(1.12259e-05 -7.00087e-06 -0.00101591)
(8.80846e-06 -5.36655e-06 -0.00101248)
(6.92068e-06 -4.11836e-06 -0.0010098)
(5.44455e-06 -3.16413e-06 -0.00100771)
(4.28875e-06 -2.43389e-06 -0.00100607)
(3.38255e-06 -1.8745e-06 -0.00100478)
(2.67113e-06 -1.44553e-06 -0.00100377)
(2.11192e-06 -1.11625e-06 -0.00100298)
(1.67184e-06 -8.63206e-07 -0.00100236)
(1.32509e-06 -6.68551e-07 -0.00100187)
(1.05159e-06 -5.18641e-07 -0.00100148)
(8.35631e-07 -4.03056e-07 -0.00100117)
(6.64929e-07 -3.13824e-07 -0.00100093)
(5.29839e-07 -2.44843e-07 -0.00100074)
(4.22756e-07 -1.91439e-07 -0.00100059)
(3.37778e-07 -1.50025e-07 -0.00100047)
(2.70307e-07 -1.17848e-07 -0.00100038)
(2.16696e-07 -9.27974e-08 -0.0010003)
(1.74079e-07 -7.32583e-08 -0.00100024)
(1.40204e-07 -5.79963e-08 -0.0010002)
(1.13309e-07 -4.60707e-08 -0.00100016)
(9.20166e-08 -3.67675e-08 -0.00100013)
(7.52547e-08 -2.95478e-08 -0.0010001)
(6.21942e-08 -2.40092e-08 -0.00100008)
(5.2187e-08 -1.98513e-08 -0.00100006)
(4.46855e-08 -1.68328e-08 -0.00100004)
(3.92071e-08 -1.46828e-08 -0.00100003)
(3.65879e-08 -1.35856e-08 -0.00100001)
)
;
    }
    procBoundary0to2
    {
        type            processor;
        value           nonuniform List<vector> 
90
(
(2.15357e-09 -2.77177e-09 -0.00100003)
(3.98476e-09 -5.51225e-09 -0.00100003)
(6.32622e-09 -8.88302e-09 -0.00100003)
(9.09927e-09 -1.28105e-08 -0.00100004)
(1.24508e-08 -1.74972e-08 -0.00100004)
(1.6574e-08 -2.32021e-08 -0.00100005)
(2.1697e-08 -3.0231e-08 -0.00100006)
(2.80944e-08 -3.89525e-08 -0.00100007)
(3.61037e-08 -4.9819e-08 -0.00100009)
(4.61492e-08 -6.33948e-08 -0.00100011)
(5.87708e-08 -8.03919e-08 -0.00100014)
(7.46649e-08 -1.01717e-07 -0.00100017)
(9.47348e-08 -1.28532e-07 -0.00100021)
(1.20158e-07 -1.62332e-07 -0.00100027)
(1.52474e-07 -2.05047e-07 -0.00100033)
(1.93692e-07 -2.59167e-07 -0.00100042)
(2.46443e-07 -3.27905e-07 -0.00100053)
(3.14161e-07 -4.15401e-07 -0.00100067)
(4.01335e-07 -5.27022e-07 -0.00100084)
(5.13832e-07 -6.69801e-07 -0.00100107)
(6.59331e-07 -8.5285e-07 -0.00100136)
(8.47892e-07 -1.08799e-06 -0.00100173)
(1.09269e-06 -1.39061e-06 -0.0010022)
(1.41086e-06 -1.7807e-06 -0.00100281)
(1.82494e-06 -2.2844e-06 -0.00100359)
(2.36471e-06 -2.93579e-06 -0.00100459)
(3.06937e-06 -3.77949e-06 -0.00100589)
(3.99061e-06 -4.87397e-06 -0.00100756)
(5.19665e-06 -6.29595e-06 -0.00100973)
(6.77765e-06 -8.14627e-06 -0.00101254)
(8.85289e-06 -1.05576e-05 -0.00101618)
(1.15808e-05 -1.37049e-05 -0.00102095)
(1.51735e-05 -1.78221e-05 -0.00102734)
(1.99192e-05 -2.32314e-05 -0.00103557)
(2.61924e-05 -3.03503e-05 -0.00104265)
(3.43201e-05 -3.94362e-05 -0.00104189)
(4.32582e-05 -4.86555e-05 -0.00107704)
(4.8107e-05 -5.24946e-05 -0.00133248)
(4.96344e-05 -5.87529e-05 -0.000352482)
(-5.84817e-05 8.58637e-05 -0.00276669)
(6.32424e-06 -3.77641e-06 -0.00131063)
(6.92578e-05 -0.000104275 -0.00293845)
(6.1667e-05 -4.96403e-05 -0.00232327)
(1.98228e-05 -6.58505e-05 -0.0031595)
(-3.83989e-05 -5.47153e-05 -0.00217157)
(-6.13952e-05 -2.93538e-05 -0.00320714)
(-2.14774e-05 5.84314e-05 -0.00224909)
(-4.42681e-05 0.000174884 -0.00334943)
(9.99564e-06 7.44255e-05 -0.00180144)
(-5.30128e-05 1.33253e-05 -0.00332439)
(-1.16181e-05 1.51094e-05 -0.00203907)
(-5.39365e-06 3.49685e-05 -0.00207425)
(1.59276e-05 4.2982e-05 -0.00204818)
(2.1832e-05 6.08162e-05 -0.0014715)
(-2.13321e-05 4.48093e-05 -0.000925942)
(-1.58519e-05 3.29343e-05 -0.00101937)
(-9.3195e-06 2.34719e-05 -0.00101843)
(-5.44404e-06 1.70863e-05 -0.00101159)
(-2.93476e-06 1.24697e-05 -0.00100668)
(-1.2795e-06 9.07511e-06 -0.00100362)
(-2.21168e-07 6.58345e-06 -0.00100164)
(4.31247e-07 4.75628e-06 -0.00100039)
(8.0896e-07 3.41875e-06 -0.000999613)
(1.0002e-06 2.44339e-06 -0.000999157)
(1.06868e-06 1.7347e-06 -0.00099892)
(1.05952e-06 1.22157e-06 -0.000998829)
(1.00378e-06 8.51501e-07 -0.00099883)
(9.22393e-07 5.8593e-07 -0.000998886)
(8.29278e-07 3.96496e-07 -0.000998973)
(7.3341e-07 2.62385e-07 -0.000999074)
(6.40377e-07 1.6833e-07 -0.000999179)
(5.53442e-07 1.03151e-07 -0.000999281)
(4.74302e-07 5.86805e-08 -0.000999376)
(4.03635e-07 2.89625e-08 -0.000999463)
(3.41462e-07 9.65772e-09 -0.000999542)
(2.87435e-07 -2.42922e-09 -0.000999612)
(2.41014e-07 -9.69194e-09 -0.000999674)
(2.01473e-07 -1.37154e-08 -0.000999728)
(1.68016e-07 -1.55547e-08 -0.000999775)
(1.39909e-07 -1.60082e-08 -0.000999815)
(1.16462e-07 -1.56403e-08 -0.00099985)
(9.70453e-08 -1.48364e-08 -0.00099988)
(8.10925e-08 -1.38535e-08 -0.000999905)
(6.81059e-08 -1.28566e-08 -0.000999925)
(5.76534e-08 -1.19458e-08 -0.000999943)
(4.93628e-08 -1.11775e-08 -0.000999957)
(4.29137e-08 -1.05776e-08 -0.000999968)
(3.80032e-08 -1.01502e-08 -0.000999977)
(3.43443e-08 -9.8205e-09 -0.000999986)
(3.25118e-08 -9.50973e-09 -0.000999992)
)
;
    }
}


// ************************************************************************* //
