FoamFile
{version 2.0; format ascii;class vectorField; location 0;object  v;}
356
(
( 0.000300767 -0.00402256 0.00222879 )  
( 0.00164789 -0.00290308 0.00162919 )  
( -0.000840552 -0.00408857 0.000276735 )  
( -0.00128303 0.00238628 0.00064041 )  
( -0.00166349 0.00185843 0.00124849 )  
( 0.0049413 0.00369195 -0.000382285 )  
( -0.000834337 0.000791899 0.00210118 )  
( 0.00204015 0.00107051 0.00189685 )  
( -0.000795926 0.000830135 0.000652588 )  
( 0.00093892 4.01432e-05 0.000831706 )  
( -0.00192191 0.00274828 -0.0012749 )  
( 0.00114569 -0.00033772 0.00018874 )  
( 0.000446454 -0.000121482 -0.000702731 )  
( -0.00210274 -0.00376771 -0.00104938 )  
( 0.00166012 0.00253336 -0.00286418 )  
( -0.00246728 -0.00124497 0.000975618 )  
( -0.00234756 -0.00188107 0.00531277 )  
( 0.000193344 0.000235234 0.000691353 )  
( 0.00187485 -0.000192058 -0.0003424 )  
( -0.0019669 0.00226902 0.00172542 )  
( 0.0025129 -0.0011648 -0.003109 )  
( 0.00204227 0.00459496 0.0108023 )  
( -0.0062315 0.00523794 -0.000311685 )  
( -0.00244023 -0.00256992 -0.000216911 )  
( -0.00149909 -0.0033159 0.000425095 )  
( 0.0034357 -0.00474837 -0.000477202 )  
( 0.00431629 -0.00341559 0.00826323 )  
( 0.00388558 2.89122e-05 0.00719748 )  
( -0.00153921 0.00499195 0.00242522 )  
( -0.00276418 -0.00171223 0.00548518 )  
( -0.00395035 5.60517e-05 0.011207 )  
( 0.00489864 -0.00326838 0.0113993 )  
( 0.00225647 7.80492e-05 0.0175525 )  
( 2.898e-06 0.00307269 -0.000830642 )  
( -0.000245395 0.00382631 0.00665764 )  
( -0.00238912 0.00249482 0.00986586 )  
( -0.000752218 -0.00161933 0.00989338 )  
( 0.00271992 -0.00908604 0.00957128 )  
( 0.00565395 -0.0016349 0.0153395 )  
( -0.000789858 -0.0044301 0.010698 )  
( -0.000992227 -0.00273689 0.0113537 )  
( -0.000425907 -0.00201578 0.0209685 )  
( -0.00180961 -0.00178366 0.0111214 )  
( 0.000859425 7.1335e-05 0.0143849 )  
( 0.00206713 -0.00128443 0.0213522 )  
( 0.000557655 -0.00283894 0.0144361 )  
( -0.00149752 -0.00074371 0.0136994 )  
( -0.00483586 0.000636945 0.00908996 )  
( 0.00207167 -0.00190412 0.00627672 )  
( -0.00213654 -0.00491681 0.019021 )  
( -0.00272377 0.000326598 0.00548205 )  
( 0.00250502 0.000232998 0.018292 )  
( 0.00135498 -0.00162694 0.00626951 )  
( 0.00129591 -0.000835393 0.0205014 )  
( -0.00559313 7.20964e-05 0.0180048 )  
( -0.00129283 -0.000494026 0.00824179 )  
( -0.00344163 -0.00169423 0.00898316 )  
( 0.00236535 -0.00218106 0.0216245 )  
( -0.00484638 0.000371801 0.0192337 )  
( -0.000148696 -0.00186346 0.0306666 )  
( -0.00176499 0.000980864 0.0333296 )  
( -1.5739e-05 0.00532074 0.021375 )  
( 0.000101914 0.00364657 0.0223014 )  
( -0.000819095 -0.00406559 0.0184254 )  
( -0.00368051 -0.000984208 0.0285802 )  
( -0.000695889 -0.000392871 0.0219329 )  
( -0.00423768 -0.00782487 0.0333947 )  
( -0.000357343 0.00197332 0.0252305 )  
( -0.00108248 0.000272764 0.0209365 )  
( 0.00115391 -0.00628971 0.0197643 )  
( 0.00447225 -0.00589288 0.0235726 )  
( 0.00277152 -0.00521706 0.013309 )  
( -0.00195908 -0.00587195 0.0339378 )  
( -0.00118881 0.00230923 0.0313613 )  
( -0.000523781 -0.00377009 0.0407633 )  
( 0.0017524 0.000416475 0.0316062 )  
( 0.00143536 0.00671636 0.0298233 )  
( 0.000745165 0.00128173 0.0409798 )  
( 3.21184e-05 -0.00371346 0.0283608 )  
( 0.000136602 0.00250582 0.030682 )  
( 0.00336884 0.00364757 0.0336607 )  
( 0.00307994 -0.00619671 0.028922 )  
( 0.00163387 -0.000875682 0.0242816 )  
( -0.000787399 -0.000617777 0.0301378 )  
( -0.00360419 -0.00156814 0.0272926 )  
( -0.00156419 -0.000544443 0.0329409 )  
( 0.000652901 0.00225678 0.0334526 )  
( 0.00133347 -0.00131106 0.0232959 )  
( 0.0023637 -0.00115081 0.0388398 )  
( -0.00114045 -0.00171926 0.0478887 )  
( 0.00359265 -0.000541755 0.0467014 )  
( -0.00186995 -0.000986809 0.0447251 )  
( -0.000332194 -0.00380875 0.0319158 )  
( -0.000596609 -0.000593663 0.0323748 )  
( -0.00220763 0.00170418 0.0382894 )  
( 0.00371989 0.00179911 0.0302658 )  
( -0.000139688 -0.00347033 0.0426479 )  
( -0.00727465 -0.00225565 0.0514059 )  
( -0.00269206 -0.00181298 0.0513699 )  
( 0.000185712 -0.00471106 0.0336122 )  
( -0.000162779 -0.00443951 0.0392498 )  
( -0.00263332 0.00181204 0.0397664 )  
( -0.0025784 -0.0062795 0.0509463 )  
( -3.00127e-05 -0.00179522 0.0697392 )  
( -0.00578271 0.00362768 0.0438334 )  
( 0.00438699 0.00384874 0.0322501 )  
( -0.00150013 0.00394502 0.0374078 )  
( -0.00160528 -0.00284905 0.042232 )  
( -0.00243387 -0.00358571 0.049645 )  
( -0.00325428 0.00117059 0.050983 )  
( -0.000735446 -0.00311711 0.0524342 )  
( -0.00440917 -0.00491693 0.0458645 )  
( -0.00464394 0.00151838 0.0514895 )  
( 0.000644097 -0.00364497 0.0548448 )  
( 0.00476174 0.00321758 0.0475138 )  
( -0.00350819 0.000571514 0.059116 )  
( 0.00645621 -0.00225093 0.0517085 )  
( -0.000202365 -0.00122341 0.0515772 )  
( 0.00272445 0.00261783 0.058855 )  
( 0.00339916 -0.00696415 0.0501732 )  
( 0.000328202 -0.00378203 0.0521025 )  
( -0.001868 -0.00722978 0.0713932 )  
( 0.00107242 -0.00874413 0.0611654 )  
( -0.00314527 -0.00643579 0.0564197 )  
( 0.000405005 -0.00145329 0.0603169 )  
( 0.000785567 -0.00797637 0.068937 )  
( -0.00272384 0.00401278 0.0531717 )  
( 0.00120941 -0.00393699 0.0676766 )  
( -0.00102289 -0.00225644 0.0567824 )  
( -0.00356991 0.00198897 0.0631836 )  
( -0.00340646 -0.00351531 0.0601604 )  
( -0.00237835 -0.00840985 0.0531084 )  
( -0.00376107 -0.000509786 0.0641627 )  
( -0.00458022 -0.00056374 0.071295 )  
( 0.00299077 -0.00529198 0.0954974 )  
( -0.000606469 -0.0052527 0.0805939 )  
( -0.00853913 0.0021244 0.0726982 )  
( -0.00424169 -0.00713987 0.0830401 )  
( -0.00538429 -0.00124679 0.0786031 )  
( -0.003773 -0.00292261 0.0561898 )  
( -5.50636e-05 -0.00963538 0.0823691 )  
( -0.00306895 -0.00489114 0.0621752 )  
( 0.00349389 0.00095297 0.0749907 )  
( 0.00501203 -0.00578726 0.0811683 )  
( 0.00256553 -0.00453215 0.0696664 )  
( -0.00370036 -0.000623116 0.0760807 )  
( -0.000961692 -0.00607608 0.0837546 )  
( -0.000166117 -0.00723451 0.0855255 )  
( 0.00411655 -0.00511822 0.0677565 )  
( -0.00766304 0.000185687 0.0861279 )  
( 0.00179156 -0.00122217 0.0905303 )  
( -0.00531073 -0.00480281 0.0709379 )  
( 0.00085723 -0.000965579 0.0862258 )  
( 0.00524925 0.00196847 0.0896252 )  
( -0.00875412 0.00513513 0.0958022 )  
( -0.00605307 -0.00592115 0.0812646 )  
( -0.00422216 -0.00188813 0.0948709 )  
( 0.00336365 -0.0012982 0.0817062 )  
( -0.00523111 -0.000370162 0.0955225 )  
( -0.00545518 -0.00327705 0.083695 )  
( 7.31608e-05 0.00335441 0.0604835 )  
( -0.00393522 0.000533334 0.100622 )  
( -0.00125667 -0.00128591 0.100164 )  
( 0.00142333 0.00412594 0.106102 )  
( -0.00599937 -0.000506139 0.0907199 )  
( -0.00740273 0.000169614 0.0925808 )  
( -0.00834867 -0.004862 0.105921 )  
( -0.00114274 0.00489869 0.104874 )  
( -0.00912873 -0.001899 0.100286 )  
( 0.000524322 0.00641128 0.0999087 )  
( 0.00418395 0.00264164 0.0952474 )  
( -0.00532664 -0.00142728 0.0829979 )  
( -0.0048094 0.00169533 0.107906 )  
( -0.00101451 -0.00157074 0.0919167 )  
( -0.000407125 -0.00178793 0.0908443 )  
( 0.00313533 -0.0051362 0.0978616 )  
( -0.011692 7.20981e-05 0.0889459 )  
( -0.00258283 -0.00379024 0.110297 )  
( -0.00131424 -0.00530412 0.0961593 )  
( -0.00227079 0.000195368 0.113676 )  
( 0.00181758 -0.000831128 0.107842 )  
( -0.00395128 0.00290497 0.114136 )  
( -0.00345604 -0.00432083 0.107501 )  
( -0.00477131 0.00551624 0.102432 )  
( -0.00508972 -0.00273059 0.10797 )  
( 0.00641278 0.00525146 0.122618 )  
( -0.00106534 8.67552e-05 0.126571 )  
( 0.00192484 0.000637985 0.106433 )  
( -0.000954951 0.00121738 0.0980064 )  
( -0.00441745 0.00271529 0.100178 )  
( -0.00745898 -0.0026095 0.114801 )  
( -0.00640157 0.00631308 0.124369 )  
( -0.00200248 0.0014758 0.108917 )  
( 0.00258928 -0.00338416 0.105617 )  
( -0.00172618 -0.00214221 0.118411 )  
( -0.00909645 0.00266284 0.118748 )  
( -0.00319733 -0.00214771 0.127976 )  
( -0.00723685 -0.000677808 0.105273 )  
( -0.00467068 0.00567822 0.120329 )  
( -0.00467092 0.00286458 0.120872 )  
( 0.000275304 -0.000617117 0.11137 )  
( -0.000287642 0.00212251 0.110339 )  
( 0.00084087 -0.00125656 0.118471 )  
( -0.00228062 0.00568202 0.11776 )  
( 0.000961243 0.00285112 0.109478 )  
( 0.0045251 0.000779098 0.134054 )  
( -0.00262035 -0.00196439 0.109537 )  
( -0.00847328 0.00200627 0.131409 )  
( -0.0154982 0.0026855 0.133685 )  
( 0.00487929 -0.000660108 0.142919 )  
( -0.00495955 -0.000607145 0.121859 )  
( -0.00375813 0.00546706 0.137464 )  
( -0.000857009 -0.00440232 0.137702 )  
( -0.00425338 -0.00375967 0.133629 )  
( 0.00190954 0.0039842 0.135415 )  
( -0.00587467 -0.000570656 0.130298 )  
( -0.00554031 0.0088308 0.128809 )  
( -0.0146856 0.00479549 0.132143 )  
( -0.00516729 0.00850646 0.149522 )  
( -0.00467251 -0.000989413 0.115989 )  
( -0.00475803 0.00367407 0.1307 )  
( -0.0049129 0.00376367 0.127811 )  
( -0.012364 0.00520832 0.146381 )  
( -0.0105537 0.00410432 0.12861 )  
( -0.00350828 -0.00210443 0.136822 )  
( -0.00829668 -0.00185237 0.132826 )  
( -0.0133831 -0.0018868 0.144045 )  
( -0.00104912 0.00510061 0.130992 )  
( -0.00731089 0.00708051 0.140624 )  
( 0.00636789 -0.000515906 0.146181 )  
( -0.00501313 0.00222882 0.144609 )  
( -0.00539941 -0.00418351 0.145551 )  
( -0.0102104 0.00893184 0.130757 )  
( -0.0136777 0.00123665 0.142676 )  
( -0.000140132 0.00247144 0.131207 )  
( -0.00840535 -0.00267655 0.152626 )  
( -0.00376999 0.00328858 0.142647 )  
( -0.00281876 0.00464355 0.152137 )  
( -0.0044918 0.0153036 0.141462 )  
( -0.0113202 0.00746988 0.14208 )  
( 0.00131935 0.00992696 0.144648 )  
( -0.00712946 0.0113981 0.164534 )  
( 0.00115939 -0.00235785 0.128219 )  
( -0.0034487 -0.00268946 0.153823 )  
( -0.0123213 0.00149475 0.133715 )  
( -0.00288 0.0181822 0.158405 )  
( -0.000178495 0.00436667 0.147982 )  
( -0.0135359 0.00451077 0.147552 )  
( -0.00441368 -0.00252024 0.149594 )  
( -0.0016197 0.0030767 0.146323 )  
( -0.000994415 0.0025352 0.154302 )  
( -0.00246235 -4.97232e-05 0.151693 )  
( -0.00447566 0.00284297 0.147616 )  
( -0.00418675 -0.00160003 0.143378 )  
( 5.73112e-05 -0.000161358 0.159369 )  
( -0.00681789 -0.000210262 0.14699 )  
( -0.00690751 0.0161421 0.151042 )  
( -0.00422119 0.00044461 0.148243 )  
( -0.00780181 -0.00507676 0.152591 )  
( -0.00306837 -0.00355822 0.153371 )  
( 0.0020892 0.0045968 0.150307 )  
( -0.00202633 0.000150853 0.151337 )  
( -0.000514033 0.00238866 0.149155 )  
( -0.00583358 0.00177819 0.150313 )  
( -0.00176608 -0.00241682 0.148746 )  
( 0.00114242 0.0103865 0.147076 )  
( 0.00606861 0.0125566 0.154824 )  
( -0.00319229 0.0024615 0.1546 )  
( -0.00405578 0.00293601 0.158181 )  
( 0.00439564 -0.00868547 0.144711 )  
( 0.0030293 0.00361567 0.152546 )  
( 0.00108257 -0.00329818 0.153392 )  
( 0.00399341 0.000924205 0.156207 )  
( 6.66068e-05 0.0088489 0.149324 )  
( -0.0166773 0.0135582 0.145308 )  
( 0.00333797 0.00982818 0.155479 )  
( -0.00347325 -0.000549142 0.157797 )  
( 0.00112923 -0.00167834 0.14785 )  
( 0.00766576 0.0138616 0.164453 )  
( -0.00148133 0.000513858 0.152225 )  
( -0.00704359 0.00574322 0.16707 )  
( -0.00430765 0.00114392 0.153107 )  
( -0.00511594 0.00328912 0.154506 )  
( -0.00539212 0.00484775 0.155111 )  
( -0.000941555 -0.00164516 0.143142 )  
( 0.00522282 -0.00429367 0.147512 )  
( 0.00167192 0.00245494 0.16543 )  
( -0.00406411 0.00113209 0.156664 )  
( 0.000781957 -0.0014934 0.152751 )  
( -0.0147348 0.00585782 0.143946 )  
( 0.00709542 0.00766396 0.152474 )  
( 0.000863653 0.00315177 0.16221 )  
( 0.0012275 -0.000949084 0.165577 )  
( 0.00502417 0.00431831 0.159229 )  
( 0.00310125 -0.0010628 0.165368 )  
( 0.0013054 0.0118393 0.159767 )  
( -0.0037568 0.00647943 0.157286 )  
( -0.0017854 0.0081523 0.156641 )  
( -0.000357116 -0.00343428 0.143525 )  
( 0.000132915 -0.0057391 0.158979 )  
( -0.00396748 -0.00522505 0.146672 )  
( -0.00280854 0.0031295 0.153477 )  
( 0.00824045 -0.00375072 0.155232 )  
( 0.00368212 0.00115717 0.155644 )  
( 0.000983599 -0.00271469 0.177485 )  
( -0.00222447 0.00495638 0.166569 )  
( 0.00737304 0.00510898 0.170007 )  
( 0.00277873 -0.000683292 0.139017 )  
( 0.00603914 -0.00679099 0.166669 )  
( 0.000497172 0.00472287 0.167066 )  
( -0.00730538 0.0150257 0.153456 )  
( -0.000618872 -0.00901165 0.158855 )  
( -0.0160695 0.00812539 0.157116 )  
( 0.00289679 0.00032832 0.119972 )  
( -0.00369571 0.00324033 0.153999 )  
( -0.000319931 0.00589913 0.163977 )  
( -0.0110028 -0.0187661 0.136916 )  
( 0.00297214 0.005681 0.161049 )  
( 0.00174324 0.00636147 0.158505 )  
( 0.00402765 -0.00263519 0.180071 )  
( 0.0175133 -0.00265423 0.175028 )  
( 0.00505607 -0.00255506 0.178298 )  
( 0.0208226 -0.00201549 0.153185 )  
( -0.00226165 0.00164784 0.141053 )  
( 0.0138371 0.0321486 0.141994 )  
( 0.0335034 -0.0375681 0.0993342 )  
( 0.0413723 0.00581431 0.1575 )  
( 0.00380228 -0.00131406 0.163874 )  
( 0.00368968 0.0113912 0.142905 )  
( 0.00760708 -0.000964501 0.152638 )  
( -0.0070001 0.0151677 0.144599 )  
( -0.0309077 -0.0036148 0.0638087 )  
( -0.00157402 -0.000803484 0.0551981 )  
( -0.00152968 -0.00127383 0.00717506 )  
( -0.00119293 -0.0156763 0.164414 )  
( 0.0282413 -0.0135026 0.167488 )  
( 0.00743196 0.00378568 0.162163 )  
( -0.00103236 0.0385925 0.129428 )  
( 0.0024442 0.0118732 0.188859 )  
( -0.00536751 -0.00370244 0.172411 )  
( 0.00195246 0.00165232 0.00198574 )  
( 0.00143869 0.00202963 0.00231808 )  
( 0.000577074 0.00258227 0.00412802 )  
( -0.00504521 -0.0455151 0.119573 )  
( -0.0157388 0.0166665 0.134766 )  
( -0.00548166 0.000256334 0.173628 )  
( 0.000436596 0.00862926 0.024704 )  
( 0.00685515 -0.0090288 0.133247 )  
( 0.00795804 -0.0147735 0.159528 )  
( 0.0222036 0.0266532 0.108792 )  
( 0.00227952 0.00212974 0.00589402 )  
( 0.000323384 0.00019711 0.00183538 )  
( -0.00374755 0.00632276 0.0103909 )  
( -0.040609 0.0204355 0.167789 )  
( 0.00359809 -0.000573653 0.00277263 )  
( -0.0110772 -0.0169255 0.163026 )  
)
