/*--------------------------------*- C++ -*----------------------------------*\
  =========                 |
  \\      /  F ield         | OpenFOAM: The Open Source CFD Toolbox
   \\    /   O peration     | Website:  https://openfoam.org
    \\  /    A nd           | Version:  9
     \\/     M anipulation  |
\*---------------------------------------------------------------------------*/
FoamFile
{
    format      ascii;
    class       surfaceScalarField;
    location    "10000";
    object      phi;
}
// * * * * * * * * * * * * * * * * * * * * * * * * * * * * * * * * * * * * * //

dimensions      [0 3 -1 0 0 0 0];

internalField   nonuniform List<scalar> 
1436
(
-8.88865e-06
0.000540432
-250.026
0.000495406
-250.028
-5.46121e-05
-249.97
-249.977
-1.36894e-05
0.000654393
-250.027
0.00059156
-250.029
-7.7197e-05
-249.969
-249.976
-2.13254e-05
0.00084717
-250.028
0.000760256
-250.03
-0.00010895
-249.968
-249.976
-2.95438e-05
0.00109294
-250.029
0.00097726
-250.03
-0.000146063
-249.967
-249.975
-3.7973e-05
0.00137543
-250.03
0.00122751
-250.032
-0.000186932
-249.966
-249.974
-4.65906e-05
0.00168539
-250.032
0.00150218
-250.033
-0.000231103
-249.964
-249.972
-5.54331e-05
0.00201891
-250.033
0.0017973
-250.035
-0.00027865
-249.961
-249.971
-6.44858e-05
0.00237572
-250.036
0.00211228
-250.037
-0.000329927
-249.959
-249.969
-7.36891e-05
0.00275775
-250.038
0.00244847
-250.04
-0.000385483
-249.955
-249.967
-8.29686e-05
0.00316818
-250.041
0.00280835
-250.043
-0.000445996
-249.952
-249.964
-9.22254e-05
0.00361096
-250.044
0.00319503
-250.046
-0.000512262
-249.948
-249.961
-0.000101332
0.00409056
-250.048
0.00361198
-250.05
-0.000585181
-249.943
-249.958
-0.000110125
0.00461192
-250.053
0.00406303
-250.054
-0.000665765
-249.938
-249.955
-0.000118396
0.00518047
-250.058
0.00455229
-250.059
-0.000755152
-249.932
-249.951
-0.000125877
0.00580214
-250.063
0.00508422
-250.064
-0.000854607
-249.925
-249.946
-0.000132233
0.00648345
-250.069
0.00566363
-250.07
-0.000965557
-249.918
-249.941
-0.000137041
0.00723158
-250.076
0.00629572
-250.076
-0.00108963
-249.91
-249.936
-0.000139752
0.00805445
-250.084
0.00698614
-250.084
-0.00122866
-249.9
-249.93
-0.000139726
0.00896079
-250.093
0.00774101
-250.092
-0.00138475
-249.89
-249.924
-0.000136662
0.00996027
-250.103
0.00856698
-250.1
-0.00156025
-249.879
-249.917
-0.000128578
0.0110636
-250.113
0.00947127
-250.11
-0.00175785
-249.866
-249.909
-0.000113842
0.0122826
-250.126
0.0104617
-250.121
-0.00198061
-249.852
-249.9
-9.32083e-05
0.0136304
-250.139
0.0115469
-250.133
-0.00223198
-249.836
-249.891
-6.35134e-05
0.0151217
-250.154
0.012736
-250.146
-0.0025159
-249.819
-249.881
-2.09473e-05
0.0167727
-250.171
0.0140391
-250.16
-0.00283687
-249.8
-249.87
3.89569e-05
0.0186013
-250.189
0.0154671
-250.175
-0.00319997
-249.778
-249.857
0.000105401
0.0206279
-250.21
0.0170317
-250.193
-0.00361104
-249.754
-249.844
0.000187341
0.0228747
-250.233
0.0187459
-250.211
-0.00407668
-249.727
-249.829
0.000280101
0.0253665
-250.259
0.0206235
-250.232
-0.00460444
-249.697
-249.813
0.000387011
0.0281311
-250.287
0.0226797
-250.254
-0.00520295
-249.664
-249.796
0.000515807
0.0311991
-250.319
0.024931
-250.279
-0.005882
-249.627
-249.777
0.000676316
0.0346046
-250.354
0.0273955
-250.306
-0.00665279
-249.586
-249.756
0.000876478
0.0383857
-250.394
0.0300927
-250.335
-0.00752811
-249.54
-249.733
0.00112366
0.0425848
-250.437
0.0330435
-250.367
-0.00852249
-249.489
-249.709
0.00142592
0.0472493
-250.486
0.0362707
-250.402
-0.00965255
-249.432
-249.682
0.0017905
0.0524322
-250.54
0.0397986
-250.44
-0.0109372
-249.369
-249.653
0.00222742
0.0581929
-250.601
0.0436535
-250.482
-0.0123981
-249.299
-249.622
0.00275088
0.0645973
-250.668
0.0478636
-250.527
-0.0140598
-249.22
-249.588
0.00337612
0.0717195
-250.743
0.0524591
-250.576
-0.0159505
-249.132
-249.552
0.00412079
0.0796421
-250.827
0.0574724
-250.629
-0.0181023
-249.035
-249.512
0.00500551
0.0884574
-250.92
0.0629383
-250.687
-0.0205519
-248.926
-249.47
0.00605429
0.0982687
-251.025
0.0688936
-250.75
-0.0233411
-248.804
-249.424
0.00729511
0.109192
-251.141
0.0753779
-250.818
-0.0265178
-248.668
-249.376
0.00876055
0.121357
-251.271
0.0824333
-250.892
-0.0301367
-248.517
-249.323
0.0104885
0.134908
-251.417
0.0901042
-250.971
-0.0342603
-248.347
-249.267
0.012523
0.150008
-251.579
0.0984376
-251.057
-0.03896
-248.158
-249.208
0.0149154
0.166841
-251.761
0.107482
-251.149
-0.0443178
-247.947
-249.145
0.0177251
0.185611
-251.964
0.11729
-251.249
-0.0504271
-247.711
-249.078
0.0210215
0.206548
-252.192
0.127914
-251.356
-0.0573951
-247.447
-249.007
0.0248848
0.229911
-252.446
0.139411
-251.47
-0.0653444
-247.152
-248.933
0.0294085
0.255991
-252.732
0.151838
-251.593
-0.0744161
-246.821
-248.856
0.0347009
0.285114
-253.052
0.165253
-251.723
-0.0847716
-246.451
-248.775
0.040888
0.317651
-253.41
0.179714
-251.862
-0.0965957
-246.037
-248.692
0.0481159
0.354015
-253.812
0.19528
-252.009
-0.1101
-245.573
-248.607
0.0565541
0.394675
-254.263
0.212009
-252.165
-0.125528
-245.053
-248.52
0.0663994
0.440158
-254.77
0.229955
-252.328
-0.143157
-244.47
-248.434
0.0778794
0.491061
-255.339
0.249171
-252.5
-0.163308
-243.815
-248.348
0.0912589
0.548056
-255.978
0.269704
-252.678
-0.186347
-243.081
-248.264
0.106845
0.611902
-256.697
0.291594
-252.863
-0.212696
-242.256
-248.185
0.124993
0.683461
-257.505
0.314876
-253.053
-0.242837
-241.33
-248.113
0.146116
0.763704
-258.415
0.339571
-253.246
-0.277327
-240.289
-248.051
0.170694
0.853734
-259.44
0.365691
-253.441
-0.316807
-239.118
-248.002
0.199282
0.954799
-260.594
0.393236
-253.635
-0.362011
-237.801
-247.971
0.232524
1.06832
-261.894
0.422195
-253.824
-0.413786
-236.319
-247.962
0.271169
1.1959
-263.361
0.452544
-254.006
-0.473105
-234.65
-247.983
0.316082
1.33936
-265.017
0.484263
-254.174
-0.541086
-232.769
-248.04
0.368269
1.50077
-266.886
0.517339
-254.323
-0.619016
-230.649
-248.141
0.428886
1.68247
-268.997
0.551806
-254.445
-0.70837
-228.258
-248.298
0.499253
1.88702
-271.383
0.58784
-254.534
-0.810809
-225.561
-248.521
0.580818
2.11713
-274.081
0.625938
-254.579
-0.92813
-222.515
-248.823
0.67504
2.3752
-277.132
0.666518
-254.57
-1.06209
-219.078
-249.218
0.783004
2.66236
-280.577
0.708942
-254.496
-1.21392
-215.202
-249.723
0.904557
2.97603
-284.458
0.74245
-254.334
-1.38314
-210.842
-250.364
1.0365
3.30533
-288.8
0.760927
-254.059
-1.56534
-205.972
-251.169
1.16937
3.62365
-293.593
0.764911
-253.654
-1.74868
-200.6
-252.153
1.28328
3.88049
-298.757
0.745048
-253.116
-1.90957
-194.809
-253.317
1.34565
3.99883
-304.101
0.69291
-252.463
-2.00891
-188.802
-254.633
1.31985
3.88863
-309.31
0.60288
-251.746
-1.98615
-182.927
-256.017
1.16159
3.43799
-313.91
0.489681
-251.074
-1.74033
-177.749
-257.267
0.837187
2.37843
-317.126
0.395323
-250.632
-1.07459
-174.296
-257.947
0.0515187
0.228402
-317.406
-0.132932
-250.448
-0.29336
-173.774
-258.373
0.0460756
-0.0283386
-317.424
0.0129831
-250.414
0.18934
-173.992
-258.17
-7.13009
2.46091
-312.754
9.46735
-267.012
0.746176
-172.277
-247.957
-1.41758
0.000314617
-311.337
0.966705
-269.396
0.30765
-172.585
-246.682
-4.41762
-3.02584
-303.894
-0.814694
-272.999
-1.97556
-173.635
-249.473
-2.24148
-0.388667
-301.263
0.581692
-275.822
0.540948
-174.564
-248.35
-5.73918
-5.33787
-290.186
-0.0567529
-281.505
-0.560073
-179.342
-248.967
-10.2792
-3.3896
-276.518
-5.67955
-286.104
-5.11347
-177.618
-259.76
-0.0389663
1.36767
-277.846
-1.03441
-285.109
-8.45398
-167.797
-269.248
6.27005
1.93753
-286.054
-7.37392
-271.465
-0.125935
-165.733
-276.748
1.37027
0.380417
-287.805
-6.28842
-263.806
-3.9844
-161.368
-287.021
8.9519
-4.46464
-292.292
-6.52926
-248.325
0.92969
-166.763
-292.621
0.860036
-1.70174
-291.45
-2.30396
-245.161
0.105218
-168.57
-294.819
3.30287
-4.39276
-290.36
-8.73248
-233.126
-5.25058
-167.712
-308.803
-0.243367
-1.60397
-288.513
-8.25262
-225.116
-3.48422
-165.832
-320.539
-1.0952
-2.90861
-284.509
-3.15317
-223.059
-2.01958
-166.721
-325.712
1.77224
-0.981692
-285.3
-14.7315
-206.555
-3.42754
-164.275
-343.871
0.766831
-1.8647
-284.201
0.105201
-205.893
1.21459
-167.354
-342.552
0.421273
-0.330022
-284.293
-2.14793
-203.324
-2.54815
-165.136
-347.248
-1.14555
-0.331036
-282.816
1.0184
-205.488
0.653027
-166.12
-345.577
-0.994406
-1.05134
-280.77
4.73607
-211.219
5.14908
-172.32
-335.692
-0.619978
-0.762352
-279.388
1.76459
-213.604
1.88064
-174.964
-332.046
-1.60811
-3.81845
-273.961
-0.68843
-214.524
1.27308
-180.055
-331.461
0.120747
-2.21227
-271.87
-0.0600972
-214.342
2.48385
-184.751
-329.037
1.31187
-1.03169
-272.15
0.927675
-213.959
2.89059
-188.674
-325.22
0.27418
-1.72593
-270.698
1.91662
-215.601
3.72343
-194.123
-319.579
-0.399246
-1.91147
-268.387
2.46583
-218.467
3.99336
-200.028
-313.121
-0.630074
-1.83705
-265.92
2.63329
-221.73
3.91861
-205.784
-306.568
-0.689995
-1.67863
-263.551
2.57715
-224.998
3.65188
-211.114
-300.34
-0.661714
-1.49723
-261.392
2.40597
-228.065
3.30752
-215.919
-294.626
-0.592516
-1.31442
-259.485
2.18697
-230.845
2.95182
-220.185
-289.487
-0.510085
-1.14123
-257.834
1.95845
-233.313
2.61576
-223.942
-284.913
-0.429293
-0.983911
-256.421
1.74002
-235.483
2.31074
-227.237
-280.863
-0.356394
-0.844588
-255.22
1.54006
-237.379
2.03886
-230.12
-277.284
-0.292998
-0.722858
-254.204
1.36086
-239.033
1.79837
-232.642
-274.125
-0.238772
-0.616846
-253.348
1.20184
-240.474
1.58628
-234.845
-271.337
-0.192765
-0.525234
-252.631
1.06133
-241.728
1.39942
-236.77
-268.876
-0.15393
-0.446283
-252.03
0.93735
-242.82
1.23483
-238.451
-266.704
-0.121282
-0.378354
-251.531
0.828021
-243.769
1.08985
-239.919
-264.786
-0.0939506
-0.319991
-251.117
0.731614
-244.595
0.962117
-241.201
-263.093
-0.0711762
-0.269919
-250.776
0.646595
-245.312
0.849565
-242.321
-261.597
-0.0523032
-0.227021
-250.496
0.571606
-245.936
0.750363
-243.298
-260.275
-0.0367686
-0.190325
-250.269
0.505455
-246.479
0.662913
-244.151
-259.106
-0.0240939
-0.158987
-250.086
0.447087
-246.95
0.58581
-244.896
-258.073
-0.0138786
-0.13227
-249.94
0.395578
-247.359
0.517817
-245.546
-257.159
-0.00579863
-0.109535
-249.824
0.350113
-247.715
0.457847
-246.113
-256.351
0.00138866
-0.0902279
-249.735
0.309975
-248.023
0.404942
-246.608
-255.636
0.00712722
-0.0738645
-249.668
0.274531
-248.291
0.358259
-247.04
-255.003
0.0116418
-0.060026
-249.62
0.243221
-248.522
0.317055
-247.417
-254.443
0.0151541
-0.0483503
-249.586
0.215558
-248.722
0.280678
-247.746
-253.946
0.0179051
-0.0385241
-249.566
0.191111
-248.895
0.248552
-248.033
-253.507
0.0199523
-0.0302766
-249.555
0.169495
-249.045
0.220176
-248.283
-253.117
0.0213948
-0.02337
-249.553
0.150377
-249.173
0.195104
-248.502
-252.771
0.0225181
-0.0176042
-249.558
0.133457
-249.284
0.172946
-248.692
-252.465
0.022871
-0.0127916
-249.568
0.118473
-249.38
0.153358
-248.858
-252.193
0.0222763
-0.00878498
-249.581
0.105193
-249.463
0.136037
-249.003
-251.952
0.0215596
-0.00542843
-249.598
0.0934215
-249.534
0.120716
-249.129
-251.738
0.0197487
-0.00260634
-249.615
0.082982
-249.598
0.107157
-249.239
-251.548
0.0186173
-0.000115897
-249.633
0.0737298
-249.653
0.0951527
-249.334
-251.379
0.017595
0.00134442
-249.652
0.0655301
-249.701
0.0845153
-249.417
-251.229
0.0166339
0.00217093
-249.671
0.0582623
-249.742
0.0750857
-249.49
-251.095
0.0157239
0.00283981
-249.69
0.0518196
-249.778
0.0667255
-249.554
-250.977
0.014856
0.00330838
-249.708
0.0461072
-249.81
0.059312
-249.61
-250.872
0.0140241
0.00366436
-249.726
0.0410413
-249.837
0.0527371
-249.659
-250.778
0.013224
0.00392127
-249.743
0.0365476
-249.86
0.0469049
-249.702
-250.694
0.012453
0.00409665
-249.76
0.03256
-249.88
0.0417309
-249.74
-250.62
0.0117094
0.00420528
-249.775
0.0290204
-249.897
0.0371398
-249.772
-250.554
0.0109912
0.00425831
-249.791
0.0258774
-249.912
0.0330653
-249.801
-250.495
0.0102977
0.0042643
-249.805
0.0230854
-249.925
0.0294484
-249.826
-250.443
0.00962959
0.00423005
-249.819
0.0206041
-249.936
0.0262371
-249.848
-250.396
0.00898771
0.00416144
-249.832
0.018398
-249.945
0.0233851
-249.868
-250.354
0.00837256
0.00406405
-249.845
0.0164356
-249.953
0.0208515
-249.884
-250.317
0.00778539
0.00394315
-249.856
0.0146894
-249.96
0.0186
-249.899
-250.283
0.00722636
0.0038036
-249.868
0.0131349
-249.966
0.0165988
-249.912
-250.254
0.00669603
0.00364946
-249.878
0.0117503
-249.971
0.0148193
-249.923
-250.227
0.00619511
0.0034849
-249.888
0.0105166
-249.976
0.0132365
-249.933
-250.203
0.00572381
0.00331369
-249.897
0.00941691
-249.979
0.0118283
-249.941
-250.182
0.00528183
0.00313907
-249.905
0.00843626
-249.982
0.0105749
-249.949
-250.163
0.00486848
0.00296378
-249.913
0.00756142
-249.985
0.00945907
-249.955
-250.146
0.00448317
0.00279009
-249.92
0.00678071
-249.987
0.00846537
-249.961
-250.131
0.00412507
0.00261985
-249.927
0.00608376
-249.989
0.00758024
-249.966
-250.117
0.00379318
0.00245451
-249.934
0.00546138
-249.991
0.00679163
-249.97
-250.105
0.00348638
0.00229521
-249.939
0.00490546
-249.993
0.0060889
-249.974
-250.094
0.0032035
0.0021428
-249.945
0.00440878
-249.994
0.00546263
-249.977
-250.085
0.00294332
0.00199778
-249.95
0.00396497
-249.995
0.00490449
-249.98
-250.076
0.00270459
0.00186063
-249.955
0.00356837
-249.996
0.0044071
-249.983
-250.068
0.00248611
0.00173163
-249.959
0.00321398
-249.997
0.00396396
-249.985
-250.061
0.00228665
0.0016109
-249.963
0.00289735
-249.997
0.00356929
-249.987
-250.055
0.00210507
0.00149838
-249.967
0.00261456
-249.998
0.00321802
-249.989
-250.049
0.00194025
0.00139399
-249.97
0.00236214
-249.998
0.00290566
-249.99
-250.044
0.00179111
0.00129755
-249.973
0.00213701
-249.998
0.00262825
-249.992
-250.039
0.00165666
0.00120884
-249.976
0.00193646
-249.999
0.0023823
-249.993
-250.034
0.00153597
0.00112761
-249.979
0.00175808
-249.999
0.00216476
-249.994
-250.031
0.00142817
0.00105359
-249.981
0.00159979
-249.999
0.00197297
-249.995
-250.027
0.00133256
0.000986543
-249.983
0.00145981
-249.999
0.00180466
-249.996
-250.024
0.00124861
0.000926394
-249.985
0.00133676
-249.999
0.00165803
-249.996
-250.021
0.00117632
0.000873477
-249.987
0.00122968
-249.999
0.00153179
-249.997
-250.018
0.00111647
0.000828801
-249.989
0.00113892
-249.999
0.00142606
-249.997
-250.015
0.00107127
0.000794693
-249.991
0.00106782
-249.999
0.00134412
-249.998
-250.012
0.00105995
0.000784545
0.00103773
0.00131282
)
;

boundaryField
{
    inlet
    {
        type            calculated;
        value           nonuniform List<scalar> 4(-249.993 -249.998 -249.999 -250.01);
    }
    outlet
    {
        type            calculated;
        value           nonuniform List<scalar> 4(250.026 249.971 250.028 249.978);
    }
    repeat_boundary
    {
        type            calculated;
        value           uniform 0;
    }
}


// ************************************************************************* //
