/*--------------------------------*- C++ -*----------------------------------*\
| =========                 |                                                 |
| \\      /  F ield         | OpenFOAM: The Open Source CFD Toolbox           |
|  \\    /   O peration     | Version:  5.x                                   |
|   \\  /    A nd           | Web:      www.OpenFOAM.org                      |
|    \\/     M anipulation  |                                                 |
\*---------------------------------------------------------------------------*/
FoamFile
{
    version     2.0;
    format      ascii;
    class       volVectorField;
    location    "70000";
    object      U;
}
// * * * * * * * * * * * * * * * * * * * * * * * * * * * * * * * * * * * * * //

dimensions      [0 1 -1 0 0 0 0];

internalField   nonuniform List<vector> 
2250
(
(-7.85192e-12 2.41789e-10 -0.000999999)
(-2.80574e-11 2.49322e-10 -0.000999999)
(-5.01681e-11 2.38945e-10 -0.000999999)
(-7.63297e-11 2.38809e-10 -0.000999999)
(-1.00958e-10 2.45529e-10 -0.000999999)
(-4.86426e-12 2.38284e-10 -0.000999999)
(-3.00345e-11 2.43164e-10 -0.000999999)
(-6.18423e-11 2.37639e-10 -0.000999999)
(-8.01226e-11 2.32039e-10 -0.000999999)
(-9.41846e-11 2.39025e-10 -0.000999999)
(-3.43944e-12 1.92128e-10 -0.000999998)
(-2.9157e-11 1.93268e-10 -0.000999998)
(-6.13126e-11 1.93266e-10 -0.000999998)
(-7.49498e-11 1.96539e-10 -0.000999998)
(-8.39676e-11 2.10173e-10 -0.000999999)
(-4.04525e-12 1.23664e-10 -0.000999998)
(-2.92469e-11 1.21035e-10 -0.000999998)
(-5.85813e-11 1.22428e-10 -0.000999998)
(-6.32054e-11 1.26166e-10 -0.000999998)
(-7.88694e-11 1.43526e-10 -0.000999998)
(-6.24682e-12 4.25876e-11 -0.000999998)
(-3.05627e-11 4.045e-11 -0.000999998)
(-5.61017e-11 4.13072e-11 -0.000999998)
(-5.36714e-11 4.28481e-11 -0.000999998)
(-7.18104e-11 5.06027e-11 -0.000999998)
(-1.94908e-11 6.66142e-10 -0.000999999)
(-8.15926e-11 6.78508e-10 -0.000999999)
(-1.58656e-10 6.571e-10 -0.000999999)
(-2.31685e-10 6.67917e-10 -0.000999999)
(-3.03931e-10 6.91877e-10 -0.000999999)
(-1.66784e-11 6.47083e-10 -0.000999998)
(-9.10833e-11 6.52173e-10 -0.000999998)
(-1.83511e-10 6.39648e-10 -0.000999999)
(-2.33301e-10 6.32878e-10 -0.000999999)
(-2.68338e-10 6.5812e-10 -0.000999999)
(-1.54707e-11 5.12935e-10 -0.000999998)
(-9.01474e-11 5.12227e-10 -0.000999998)
(-1.78002e-10 5.14158e-10 -0.000999998)
(-2.13238e-10 5.27642e-10 -0.000999998)
(-2.33764e-10 5.66757e-10 -0.000999998)
(-1.82066e-11 3.23732e-10 -0.000999998)
(-9.07466e-11 3.15124e-10 -0.000999998)
(-1.68116e-10 3.20418e-10 -0.000999998)
(-1.80677e-10 3.33842e-10 -0.000999998)
(-2.14484e-10 3.76568e-10 -0.000999998)
(-2.45061e-11 1.08799e-10 -0.000999998)
(-9.38531e-11 1.02638e-10 -0.000999998)
(-1.59038e-10 1.05757e-10 -0.000999998)
(-1.56609e-10 1.11444e-10 -0.000999998)
(-1.96115e-10 1.29191e-10 -0.000999998)
(-3.59166e-11 1.12208e-09 -0.000999999)
(-1.63505e-10 1.12922e-09 -0.000999999)
(-3.23095e-10 1.11182e-09 -0.000999999)
(-4.53477e-10 1.1473e-09 -0.000999999)
(-5.34257e-10 1.18262e-09 -0.000999999)
(-4.08594e-11 1.05591e-09 -0.000999998)
(-1.79465e-10 1.05008e-09 -0.000999998)
(-3.38475e-10 1.04013e-09 -0.000999998)
(-4.15986e-10 1.04531e-09 -0.000999999)
(-4.72399e-10 1.11077e-09 -0.000999999)
(-4.34869e-11 8.28178e-10 -0.000999998)
(-1.81174e-10 8.21312e-10 -0.000999998)
(-3.27926e-10 8.25989e-10 -0.000999998)
(-3.82774e-10 8.47569e-10 -0.000999998)
(-4.09759e-10 9.01989e-10 -0.000999998)
(-4.90787e-11 5.13838e-10 -0.000999998)
(-1.83114e-10 5.00365e-10 -0.000999998)
(-3.12243e-10 5.09015e-10 -0.000999998)
(-3.39941e-10 5.29893e-10 -0.000999998)
(-3.75756e-10 5.79388e-10 -0.000999998)
(-5.7671e-11 1.69088e-10 -0.000999997)
(-1.86599e-10 1.6069e-10 -0.000999998)
(-2.97865e-10 1.65612e-10 -0.000999998)
(-3.11633e-10 1.7448e-10 -0.000999998)
(-3.51396e-10 1.93024e-10 -0.000999998)
(-7.08687e-11 1.63122e-09 -0.000999999)
(-2.83187e-10 1.63513e-09 -0.000999999)
(-5.18752e-10 1.62519e-09 -0.000999999)
(-7.1105e-10 1.67541e-09 -0.000999999)
(-7.344e-10 1.70124e-09 -0.000999999)
(-7.99304e-11 1.47978e-09 -0.000999998)
(-2.95239e-10 1.467e-09 -0.000999998)
(-5.15724e-10 1.46617e-09 -0.000999998)
(-6.14381e-10 1.48387e-09 -0.000999998)
(-6.79099e-10 1.59724e-09 -0.000999999)
(-8.62194e-11 1.16051e-09 -0.000999998)
(-2.99608e-10 1.14926e-09 -0.000999998)
(-5.02066e-10 1.15631e-09 -0.000999998)
(-5.80019e-10 1.18041e-09 -0.000999998)
(-6.06668e-10 1.22929e-09 -0.000999998)
(-9.32165e-11 7.16818e-10 -0.000999997)
(-3.01651e-10 7.02118e-10 -0.000999997)
(-4.84673e-10 7.13519e-10 -0.000999998)
(-5.41346e-10 7.37134e-10 -0.000999998)
(-5.69334e-10 7.76451e-10 -0.000999998)
(-1.01953e-10 2.35504e-10 -0.000999997)
(-3.03683e-10 2.26995e-10 -0.000999997)
(-4.66197e-10 2.3337e-10 -0.000999997)
(-5.1599e-10 2.44554e-10 -0.000999998)
(-5.44634e-10 2.57591e-10 -0.000999998)
(-1.22563e-10 2.275e-09 -0.000999999)
(-4.23203e-10 2.27933e-09 -0.000999999)
(-7.13253e-10 2.27279e-09 -0.000999999)
(-9.16756e-10 2.31364e-09 -0.000999999)
(-9.10434e-10 2.31141e-09 -0.000999999)
(-1.31924e-10 2.01313e-09 -0.000999998)
(-4.29419e-10 1.99937e-09 -0.000999998)
(-6.97809e-10 2.00568e-09 -0.000999998)
(-8.22841e-10 2.02662e-09 -0.000999998)
(-8.86035e-10 2.12014e-09 -0.000999999)
(-1.39809e-10 1.58432e-09 -0.000999997)
(-4.34468e-10 1.57246e-09 -0.000999997)
(-6.86234e-10 1.5814e-09 -0.000999997)
(-8.02335e-10 1.60163e-09 -0.000999998)
(-8.36212e-10 1.62782e-09 -0.000999998)
(-1.46599e-10 9.83799e-10 -0.000999997)
(-4.35342e-10 9.73145e-10 -0.000999997)
(-6.68744e-10 9.88206e-10 -0.000999997)
(-7.76321e-10 1.01139e-09 -0.000999997)
(-8.06695e-10 1.03747e-09 -0.000999998)
(-1.51896e-10 3.26869e-10 -0.000999997)
(-4.31073e-10 3.2186e-10 -0.000999997)
(-6.46818e-10 3.30912e-10 -0.000999997)
(-7.51542e-10 3.42559e-10 -0.000999997)
(-7.8369e-10 3.54182e-10 -0.000999997)
(-1.80874e-10 3.15627e-09 -0.000999998)
(-5.64669e-10 3.15857e-09 -0.000999999)
(-9.00963e-10 3.15137e-09 -0.000999999)
(-1.12919e-09 3.17221e-09 -0.000999999)
(-1.13733e-09 3.13278e-09 -0.000999999)
(-1.91017e-10 2.77566e-09 -0.000999997)
(-5.75823e-10 2.76327e-09 -0.000999998)
(-8.96488e-10 2.76883e-09 -0.000999998)
(-1.07448e-09 2.783e-09 -0.000999998)
(-1.13749e-09 2.83867e-09 -0.000999998)
(-1.9815e-10 2.18738e-09 -0.000999997)
(-5.7677e-10 2.17987e-09 -0.000999997)
(-8.81534e-10 2.19461e-09 -0.000999997)
(-1.05939e-09 2.21532e-09 -0.000999997)
(-1.12493e-09 2.23529e-09 -0.000999997)
(-2.02426e-10 1.37443e-09 -0.000999996)
(-5.72748e-10 1.37353e-09 -0.000999996)
(-8.61183e-10 1.39257e-09 -0.000999996)
(-1.0337e-09 1.41812e-09 -0.000999996)
(-1.09679e-09 1.44648e-09 -0.000999997)
(-2.01102e-10 4.64486e-10 -0.000999996)
(-5.60145e-10 4.66257e-10 -0.000999996)
(-8.35521e-10 4.76894e-10 -0.000999996)
(-1.00359e-09 4.90444e-10 -0.000999996)
(-1.07443e-09 5.05199e-10 -0.000999996)
(-2.44648e-10 4.37344e-09 -0.000999998)
(-7.25171e-10 4.37218e-09 -0.000999998)
(-1.13783e-09 4.36608e-09 -0.000999999)
(-1.43956e-09 4.37665e-09 -0.000999999)
(-1.53887e-09 4.35256e-09 -0.000999999)
(-2.57515e-10 3.86451e-09 -0.000999997)
(-7.48204e-10 3.85551e-09 -0.000999997)
(-1.15069e-09 3.85851e-09 -0.000999997)
(-1.41961e-09 3.87503e-09 -0.000999997)
(-1.50146e-09 3.91901e-09 -0.000999998)
(-2.60584e-10 3.04584e-09 -0.000999996)
(-7.38529e-10 3.04968e-09 -0.000999996)
(-1.11871e-09 3.07526e-09 -0.000999996)
(-1.37901e-09 3.11308e-09 -0.000999996)
(-1.50455e-09 3.15819e-09 -0.000999997)
(-2.59134e-10 1.93782e-09 -0.000999995)
(-7.24558e-10 1.9496e-09 -0.000999995)
(-1.0875e-09 1.97415e-09 -0.000999995)
(-1.33653e-09 2.00873e-09 -0.000999995)
(-1.46996e-09 2.05203e-09 -0.000999996)
(-2.51806e-10 6.63527e-10 -0.000999994)
(-7.04538e-10 6.71577e-10 -0.000999994)
(-1.05785e-09 6.83486e-10 -0.000999995)
(-1.29877e-09 6.9942e-10 -0.000999995)
(-1.44696e-09 7.18978e-10 -0.000999995)
(-3.28673e-10 6.02571e-09 -0.000999997)
(-9.58522e-10 6.02599e-09 -0.000999998)
(-1.49617e-09 6.02991e-09 -0.000999998)
(-1.87451e-09 6.05337e-09 -0.000999999)
(-2.15459e-09 6.1173e-09 -0.000999999)
(-3.3946e-10 5.36143e-09 -0.000999996)
(-9.74705e-10 5.36331e-09 -0.000999996)
(-1.50128e-09 5.37785e-09 -0.000999996)
(-1.87357e-09 5.40945e-09 -0.000999997)
(-2.04379e-09 5.44429e-09 -0.000999997)
(-3.36485e-10 4.23548e-09 -0.000999994)
(-9.5232e-10 4.2537e-09 -0.000999994)
(-1.45061e-09 4.29247e-09 -0.000999994)
(-1.80808e-09 4.35242e-09 -0.000999995)
(-2.01331e-09 4.41784e-09 -0.000999996)
(-3.28803e-10 2.7166e-09 -0.000999993)
(-9.25647e-10 2.73899e-09 -0.000999993)
(-1.40284e-09 2.7697e-09 -0.000999993)
(-1.74799e-09 2.81366e-09 -0.000999994)
(-1.97669e-09 2.86117e-09 -0.000999994)
(-3.18398e-10 9.36638e-10 -0.000999992)
(-9.02707e-10 9.4815e-10 -0.000999992)
(-1.37376e-09 9.59737e-10 -0.000999993)
(-1.71351e-09 9.74971e-10 -0.000999993)
(-1.95805e-09 9.91217e-10 -0.000999994)
(-4.46548e-10 8.26125e-09 -0.000999996)
(-1.29837e-09 8.27059e-09 -0.000999997)
(-2.00852e-09 8.28587e-09 -0.000999997)
(-2.5016e-09 8.34138e-09 -0.000999998)
(-2.92842e-09 8.48984e-09 -0.000999999)
(-4.49828e-10 7.39017e-09 -0.000999994)
(-1.29206e-09 7.4089e-09 -0.000999994)
(-1.98866e-09 7.44582e-09 -0.000999995)
(-2.47225e-09 7.49165e-09 -0.000999995)
(-2.78432e-09 7.53563e-09 -0.000999996)
(-4.41028e-10 5.85358e-09 -0.000999992)
(-1.2567e-09 5.88402e-09 -0.000999992)
(-1.92657e-09 5.93402e-09 -0.000999992)
(-2.4118e-09 6.00065e-09 -0.000999993)
(-2.71173e-09 6.04983e-09 -0.000999994)
(-4.29758e-10 3.7671e-09 -0.00099999)
(-1.2225e-09 3.79443e-09 -0.00099999)
(-1.87242e-09 3.82692e-09 -0.000999991)
(-2.35615e-09 3.86726e-09 -0.000999992)
(-2.68548e-09 3.89319e-09 -0.000999992)
(-4.19697e-10 1.30129e-09 -0.000999989)
(-1.2018e-09 1.31294e-09 -0.000999989)
(-1.85079e-09 1.32234e-09 -0.00099999)
(-2.34127e-09 1.33156e-09 -0.000999991)
(-2.67896e-09 1.33319e-09 -0.000999992)
(-6.05667e-10 1.13006e-08 -0.000999995)
(-1.75481e-09 1.1322e-08 -0.000999995)
(-2.69677e-09 1.13434e-08 -0.000999996)
(-3.36031e-09 1.14216e-08 -0.000999997)
(-3.85349e-09 1.1583e-08 -0.000999998)
(-6.01192e-10 1.01438e-08 -0.000999992)
(-1.72784e-09 1.01776e-08 -0.000999992)
(-2.6541e-09 1.02293e-08 -0.000999993)
(-3.28884e-09 1.02786e-08 -0.000999994)
(-3.73849e-09 1.03288e-08 -0.000999995)
(-5.89861e-10 8.04673e-09 -0.000999989)
(-1.68848e-09 8.08342e-09 -0.000999989)
(-2.59689e-09 8.13222e-09 -0.00099999)
(-3.26079e-09 8.18198e-09 -0.000999991)
(-3.66616e-09 8.18133e-09 -0.000999992)
(-5.788e-10 5.18181e-09 -0.000999986)
(-1.65734e-09 5.2092e-09 -0.000999987)
(-2.55607e-09 5.23438e-09 -0.000999987)
(-3.23933e-09 5.25411e-09 -0.000999988)
(-3.66614e-09 5.24087e-09 -0.00099999)
(-5.70724e-10 1.78954e-09 -0.000999985)
(-1.64271e-09 1.79981e-09 -0.000999986)
(-2.54788e-09 1.80471e-09 -0.000999986)
(-3.24826e-09 1.80386e-09 -0.000999987)
(-3.67414e-09 1.79018e-09 -0.000999988)
(-8.14652e-10 1.54413e-08 -0.000999993)
(-2.34906e-09 1.54746e-08 -0.000999994)
(-3.59432e-09 1.54963e-08 -0.000999995)
(-4.45747e-09 1.55628e-08 -0.000999996)
(-5.052e-09 1.56759e-08 -0.000999997)
(-8.06407e-10 1.38927e-08 -0.000999988)
(-2.31619e-09 1.39355e-08 -0.000999989)
(-3.55547e-09 1.39824e-08 -0.00099999)
(-4.4152e-09 1.40084e-08 -0.000999991)
(-4.9825e-09 1.40046e-08 -0.000999992)
(-7.96633e-10 1.10281e-08 -0.000999984)
(-2.28565e-09 1.10651e-08 -0.000999985)
(-3.52284e-09 1.10963e-08 -0.000999986)
(-4.43525e-09 1.11084e-08 -0.000999987)
(-4.96513e-09 1.10507e-08 -0.000999988)
(-7.89069e-10 7.10091e-09 -0.000999981)
(-2.26861e-09 7.12543e-09 -0.000999982)
(-3.51289e-09 7.13328e-09 -0.000999983)
(-4.46029e-09 7.12217e-09 -0.000999984)
(-4.99448e-09 7.0736e-09 -0.000999986)
(-7.83408e-10 2.45111e-09 -0.00099998)
(-2.26258e-09 2.45977e-09 -0.00099998)
(-3.5204e-09 2.45788e-09 -0.000999981)
(-4.4866e-09 2.44654e-09 -0.000999983)
(-5.01249e-09 2.42389e-09 -0.000999984)
(-1.09163e-09 2.10798e-08 -0.00099999)
(-3.13677e-09 2.11248e-08 -0.000999991)
(-4.79646e-09 2.11414e-08 -0.000999992)
(-5.92275e-09 2.11681e-08 -0.000999994)
(-6.72672e-09 2.12349e-08 -0.000999996)
(-1.08352e-09 1.90009e-08 -0.000999984)
(-3.11479e-09 1.90484e-08 -0.000999985)
(-4.79278e-09 1.90698e-08 -0.000999986)
(-5.97727e-09 1.90472e-08 -0.000999988)
(-6.70296e-09 1.89447e-08 -0.00099999)
(-1.07824e-09 1.50877e-08 -0.000999978)
(-3.10403e-09 1.51217e-08 -0.000999979)
(-4.79966e-09 1.51226e-08 -0.00099998)
(-6.04781e-09 1.50902e-08 -0.000999982)
(-6.73869e-09 1.49886e-08 -0.000999984)
(-1.07657e-09 9.71283e-09 -0.000999974)
(-3.10819e-09 9.73214e-09 -0.000999975)
(-4.82528e-09 9.71709e-09 -0.000999976)
(-6.11053e-09 9.67844e-09 -0.000999978)
(-6.78728e-09 9.61016e-09 -0.00099998)
(-1.07433e-09 3.35126e-09 -0.000999972)
(-3.11243e-09 3.35759e-09 -0.000999973)
(-4.84549e-09 3.34798e-09 -0.000999974)
(-6.14343e-09 3.32951e-09 -0.000999976)
(-6.80696e-09 3.30465e-09 -0.000999978)
(-1.46601e-09 2.87483e-08 -0.000999987)
(-4.21699e-09 2.88037e-08 -0.000999988)
(-6.47303e-09 2.88065e-08 -0.000999989)
(-8.04154e-09 2.88012e-08 -0.000999992)
(-9.13145e-09 2.88422e-08 -0.000999994)
(-1.4619e-09 2.59498e-08 -0.000999978)
(-4.21821e-09 2.59988e-08 -0.000999979)
(-6.51915e-09 2.59833e-08 -0.00099998)
(-8.16514e-09 2.59083e-08 -0.000999983)
(-9.12124e-09 2.57573e-08 -0.000999986)
(-1.4637e-09 2.06078e-08 -0.00099997)
(-4.23292e-09 2.06367e-08 -0.000999971)
(-6.56631e-09 2.0606e-08 -0.000999973)
(-8.26758e-09 2.05397e-08 -0.000999975)
(-9.17275e-09 2.04246e-08 -0.000999978)
(-1.46992e-09 1.3261e-08 -0.000999965)
(-4.25871e-09 1.32729e-08 -0.000999966)
(-6.6175e-09 1.32389e-08 -0.000999967)
(-8.34551e-09 1.31869e-08 -0.00099997)
(-9.22526e-09 1.31177e-08 -0.000999973)
(-1.47286e-09 4.57279e-09 -0.000999962)
(-4.27226e-09 4.57541e-09 -0.000999963)
(-6.64153e-09 4.56053e-09 -0.000999965)
(-8.37352e-09 4.54063e-09 -0.000999967)
(-9.23906e-09 4.51836e-09 -0.00099997)
(-1.98287e-09 3.9167e-08 -0.000999982)
(-5.72639e-09 3.92298e-08 -0.000999983)
(-8.84016e-09 3.92126e-08 -0.000999985)
(-1.10646e-08 3.91886e-08 -0.000999988)
(-1.24896e-08 3.92296e-08 -0.000999992)
(-1.98718e-09 3.53805e-08 -0.00099997)
(-5.75463e-09 3.54288e-08 -0.000999971)
(-8.92255e-09 3.53811e-08 -0.000999973)
(-1.11998e-08 3.52769e-08 -0.000999976)
(-1.24657e-08 3.51337e-08 -0.00099998)
(-1.99812e-09 2.80994e-08 -0.000999959)
(-5.793e-09 2.81245e-08 -0.000999961)
(-8.99582e-09 2.80727e-08 -0.000999963)
(-1.13121e-08 2.79926e-08 -0.000999966)
(-1.25108e-08 2.78844e-08 -0.00099997)
(-2.01225e-09 1.80734e-08 -0.000999952)
(-5.83397e-09 1.80806e-08 -0.000999953)
(-9.05632e-09 1.80398e-08 -0.000999956)
(-1.13867e-08 1.79895e-08 -0.000999959)
(-1.25587e-08 1.79313e-08 -0.000999963)
(-2.01941e-09 6.2283e-09 -0.000999948)
(-5.85006e-09 6.22869e-09 -0.000999949)
(-9.07239e-09 6.21394e-09 -0.000999952)
(-1.13998e-08 6.19796e-09 -0.000999955)
(-1.25622e-08 6.18158e-09 -0.000999959)
(-2.70307e-09 5.33296e-08 -0.000999975)
(-7.8209e-09 5.34007e-08 -0.000999976)
(-1.21068e-08 5.33605e-08 -0.00099998)
(-1.51931e-08 5.33116e-08 -0.000999984)
(-1.70209e-08 5.33233e-08 -0.000999989)
(-2.71646e-09 4.8183e-08 -0.000999958)
(-7.87075e-09 4.82366e-08 -0.00099996)
(-1.22092e-08 4.81692e-08 -0.000999963)
(-1.53356e-08 4.8052e-08 -0.000999968)
(-1.70135e-08 4.79074e-08 -0.000999973)
(-2.73561e-09 3.82726e-08 -0.000999944)
(-7.92597e-09 3.83026e-08 -0.000999946)
(-1.22966e-08 3.82418e-08 -0.000999949)
(-1.54549e-08 3.81578e-08 -0.000999954)
(-1.70669e-08 3.80548e-08 -0.000999959)
(-2.75448e-09 2.46123e-08 -0.000999934)
(-7.97295e-09 2.46257e-08 -0.000999936)
(-1.23565e-08 2.45883e-08 -0.000999939)
(-1.55207e-08 2.45447e-08 -0.000999944)
(-1.71121e-08 2.44996e-08 -0.000999949)
(-2.76093e-09 8.47931e-09 -0.000999929)
(-7.98182e-09 8.48309e-09 -0.000999931)
(-1.23577e-08 8.47278e-09 -0.000999934)
(-1.55155e-08 8.46192e-09 -0.000999938)
(-1.71058e-08 8.4518e-09 -0.000999944)
(-3.69071e-09 7.26098e-08 -0.000999965)
(-1.06701e-08 7.26945e-08 -0.000999968)
(-1.65199e-08 7.26259e-08 -0.000999972)
(-2.074e-08 7.2525e-08 -0.000999978)
(-2.31077e-08 7.24614e-08 -0.000999985)
(-3.71086e-09 6.56053e-08 -0.000999943)
(-1.07381e-08 6.56768e-08 -0.000999945)
(-1.6648e-08 6.55923e-08 -0.00099995)
(-2.09268e-08 6.54528e-08 -0.000999956)
(-2.31688e-08 6.52704e-08 -0.000999963)
(-3.73623e-09 5.21176e-08 -0.000999924)
(-1.0807e-08 5.21644e-08 -0.000999927)
(-1.67508e-08 5.20965e-08 -0.000999931)
(-2.1062e-08 5.20025e-08 -0.000999937)
(-2.3259e-08 5.18937e-08 -0.000999944)
(-3.75639e-09 3.35215e-08 -0.00099991)
(-1.08562e-08 3.35529e-08 -0.000999913)
(-1.68133e-08 3.35177e-08 -0.000999917)
(-2.1127e-08 3.34719e-08 -0.000999923)
(-2.3313e-08 3.34289e-08 -0.00099993)
(-3.75745e-09 1.15507e-08 -0.000999903)
(-1.08542e-08 1.15635e-08 -0.000999905)
(-1.68051e-08 1.15559e-08 -0.00099991)
(-2.11128e-08 1.15448e-08 -0.000999916)
(-2.33035e-08 1.15348e-08 -0.000999923)
(-5.01724e-09 9.88706e-08 -0.000999953)
(-1.45021e-08 9.89737e-08 -0.000999956)
(-2.24666e-08 9.88654e-08 -0.000999962)
(-2.82451e-08 9.86941e-08 -0.00099997)
(-3.13707e-08 9.85432e-08 -0.000999979)
(-5.04838e-09 8.93424e-08 -0.000999922)
(-1.46011e-08 8.94368e-08 -0.000999926)
(-2.26425e-08 8.9322e-08 -0.000999931)
(-2.84886e-08 8.91391e-08 -0.00099994)
(-3.15107e-08 8.89165e-08 -0.000999949)
(-5.08165e-09 7.09822e-08 -0.000999897)
(-1.46908e-08 7.10521e-08 -0.0009999)
(-2.27737e-08 7.09653e-08 -0.000999906)
(-2.86508e-08 7.08434e-08 -0.000999914)
(-3.16589e-08 7.07114e-08 -0.000999924)
(-5.104e-09 4.56707e-08 -0.000999878)
(-1.47499e-08 4.5723e-08 -0.000999881)
(-2.28558e-08 4.56746e-08 -0.000999887)
(-2.8739e-08 4.56051e-08 -0.000999895)
(-3.17469e-08 4.55382e-08 -0.000999905)
(-5.10088e-09 1.57426e-08 -0.000999868)
(-1.4746e-08 1.57647e-08 -0.000999871)
(-2.28555e-08 1.57511e-08 -0.000999877)
(-2.87358e-08 1.57287e-08 -0.000999885)
(-3.1747e-08 1.57066e-08 -0.000999895)
(-6.79953e-09 1.34622e-07 -0.000999935)
(-1.96821e-08 1.3475e-07 -0.00099994)
(-3.05377e-08 1.34589e-07 -0.000999948)
(-3.84289e-08 1.34349e-07 -0.000999959)
(-4.26363e-08 1.34129e-07 -0.000999972)
(-6.85342e-09 1.21667e-07 -0.000999894)
(-1.98364e-08 1.21781e-07 -0.000999898)
(-3.07833e-08 1.21614e-07 -0.000999907)
(-3.87356e-08 1.21363e-07 -0.000999918)
(-4.28385e-08 1.21083e-07 -0.000999931)
(-6.90106e-09 9.66894e-08 -0.000999859)
(-1.99643e-08 9.67806e-08 -0.000999863)
(-3.09685e-08 9.66515e-08 -0.000999871)
(-3.89593e-08 9.64697e-08 -0.000999883)
(-4.30691e-08 9.62697e-08 -0.000999896)
(-6.93273e-09 6.22321e-08 -0.000999833)
(-2.00535e-08 6.2297e-08 -0.000999838)
(-3.11005e-08 6.22108e-08 -0.000999846)
(-3.91126e-08 6.20883e-08 -0.000999857)
(-4.32319e-08 6.1959e-08 -0.00099987)
(-6.93358e-09 2.14571e-08 -0.00099982)
(-2.00663e-08 2.14823e-08 -0.000999824)
(-3.11285e-08 2.1451e-08 -0.000999832)
(-3.91417e-08 2.14054e-08 -0.000999844)
(-4.32585e-08 2.13576e-08 -0.000999857)
(-9.23107e-09 1.83295e-07 -0.000999912)
(-2.67574e-08 1.83459e-07 -0.000999918)
(-4.15518e-08 1.8323e-07 -0.000999929)
(-5.22607e-08 1.82909e-07 -0.000999944)
(-5.79488e-08 1.82615e-07 -0.000999962)
(-9.31661e-09 1.65694e-07 -0.000999856)
(-2.69872e-08 1.65829e-07 -0.000999862)
(-4.18898e-08 1.6558e-07 -0.000999873)
(-5.26652e-08 1.65223e-07 -0.000999888)
(-5.82472e-08 1.64821e-07 -0.000999906)
(-9.38887e-09 1.31739e-07 -0.000999808)
(-2.7182e-08 1.31844e-07 -0.000999814)
(-4.21746e-08 1.31637e-07 -0.000999825)
(-5.30193e-08 1.31345e-07 -0.00099984)
(-5.86104e-08 1.31004e-07 -0.000999858)
(-9.44251e-09 8.48156e-08 -0.000999773)
(-2.73323e-08 8.48791e-08 -0.000999779)
(-4.23978e-08 8.47276e-08 -0.00099979)
(-5.32912e-08 8.45187e-08 -0.000999806)
(-5.88992e-08 8.42833e-08 -0.000999824)
(-9.45763e-09 2.92471e-08 -0.000999755)
(-2.73799e-08 2.92674e-08 -0.00099976)
(-4.24693e-08 2.9209e-08 -0.000999772)
(-5.33699e-08 2.913e-08 -0.000999787)
(-5.89739e-08 2.90438e-08 -0.000999805)
(-1.25741e-08 2.49606e-07 -0.000999881)
(-3.64534e-08 2.4982e-07 -0.000999889)
(-5.65921e-08 2.49483e-07 -0.000999904)
(-7.1085e-08 2.49012e-07 -0.000999924)
(-7.86945e-08 2.48556e-07 -0.000999948)
(-1.26989e-08 2.25736e-07 -0.000999804)
(-3.67868e-08 2.25895e-07 -0.000999812)
(-5.70707e-08 2.25514e-07 -0.000999827)
(-7.16639e-08 2.24983e-07 -0.000999848)
(-7.92148e-08 2.2436e-07 -0.000999872)
(-1.28132e-08 1.79579e-07 -0.000999739)
(-3.70972e-08 1.79687e-07 -0.000999747)
(-5.75272e-08 1.79347e-07 -0.000999762)
(-7.22401e-08 1.78873e-07 -0.000999783)
(-7.98093e-08 1.78306e-07 -0.000999808)
(-1.29057e-08 1.15653e-07 -0.000999691)
(-3.73494e-08 1.15704e-07 -0.000999699)
(-5.78963e-08 1.15454e-07 -0.000999715)
(-7.2696e-08 1.15113e-07 -0.000999736)
(-8.02946e-08 1.1472e-07 -0.00099976)
(-1.29418e-08 3.98845e-08 -0.000999666)
(-3.74456e-08 3.98966e-08 -0.000999674)
(-5.80299e-08 3.98016e-08 -0.000999689)
(-7.28482e-08 3.96746e-08 -0.000999711)
(-8.04505e-08 3.95334e-08 -0.000999735)
(-1.71572e-08 3.39994e-07 -0.000999838)
(-4.97097e-08 3.4025e-07 -0.000999849)
(-7.7099e-08 3.39727e-07 -0.00099987)
(-9.6714e-08 3.38978e-07 -0.000999898)
(-1.06816e-07 3.38196e-07 -0.00099993)
(-1.73456e-08 3.07712e-07 -0.000999734)
(-5.02166e-08 3.07877e-07 -0.000999745)
(-7.78253e-08 3.07272e-07 -0.000999766)
(-9.76077e-08 3.06442e-07 -0.000999794)
(-1.07747e-07 3.0545e-07 -0.000999827)
(-1.75318e-08 2.44963e-07 -0.000999644)
(-5.07227e-08 2.4505e-07 -0.000999655)
(-7.8567e-08 2.44491e-07 -0.000999676)
(-9.85364e-08 2.4372e-07 -0.000999705)
(-1.08735e-07 2.42804e-07 -0.000999739)
(-1.7685e-08 1.5784e-07 -0.000999579)
(-5.11372e-08 1.57868e-07 -0.00099959)
(-7.91718e-08 1.5746e-07 -0.000999611)
(-9.92828e-08 1.56904e-07 -0.000999641)
(-1.0954e-07 1.56263e-07 -0.000999674)
(-1.77479e-08 5.44465e-08 -0.000999544)
(-5.13059e-08 5.44493e-08 -0.000999555)
(-7.9412e-08 5.42967e-08 -0.000999577)
(-9.95647e-08 5.40907e-08 -0.000999606)
(-1.09842e-07 5.38595e-08 -0.00099964)
(-2.34229e-08 4.63204e-07 -0.000999781)
(-6.78101e-08 4.63474e-07 -0.000999796)
(-1.05041e-07 4.62635e-07 -0.000999824)
(-1.31583e-07 4.61423e-07 -0.000999862)
(-1.44989e-07 4.60103e-07 -0.000999906)
(-2.37235e-08 4.19705e-07 -0.000999638)
(-6.86172e-08 4.19829e-07 -0.000999653)
(-1.06202e-07 4.1884e-07 -0.000999682)
(-1.33021e-07 4.1749e-07 -0.00099972)
(-1.46563e-07 4.15889e-07 -0.000999765)
(-2.40302e-08 3.34453e-07 -0.000999516)
(-6.94525e-08 3.34474e-07 -0.000999531)
(-1.07425e-07 3.3354e-07 -0.00099956)
(-1.34535e-07 3.32261e-07 -0.000999599)
(-1.48215e-07 3.30767e-07 -0.000999645)
(-2.42816e-08 2.15677e-07 -0.000999426)
(-7.01404e-08 2.1565e-07 -0.000999441)
(-1.08436e-07 2.14968e-07 -0.000999471)
(-1.35776e-07 2.14039e-07 -0.000999511)
(-1.4957e-07 2.1297e-07 -0.000999558)
(-2.43893e-08 7.44324e-08 -0.000999378)
(-7.04402e-08 7.44144e-08 -0.000999394)
(-1.08877e-07 7.41599e-08 -0.000999423)
(-1.36306e-07 7.38154e-08 -0.000999464)
(-1.50147e-07 7.34235e-08 -0.000999511)
(-3.19894e-08 6.31183e-07 -0.000999703)
(-9.25334e-08 6.31422e-07 -0.000999724)
(-1.43112e-07 6.30056e-07 -0.000999762)
(-1.78957e-07 6.28107e-07 -0.000999814)
(-1.96747e-07 6.25922e-07 -0.000999874)
(-3.24787e-08 5.72857e-07 -0.000999508)
(-9.38493e-08 5.72847e-07 -0.000999529)
(-1.45026e-07 5.71193e-07 -0.000999568)
(-1.81332e-07 5.68931e-07 -0.000999621)
(-1.9934e-07 5.66284e-07 -0.000999682)
(-3.29915e-08 4.57183e-07 -0.00099934)
(-9.52529e-08 4.5703e-07 -0.000999361)
(-1.47089e-07 4.55434e-07 -0.000999401)
(-1.83867e-07 4.53265e-07 -0.000999456)
(-2.02127e-07 4.50758e-07 -0.000999518)
(-3.34167e-08 2.95178e-07 -0.000999217)
(-9.64259e-08 2.95009e-07 -0.000999238)
(-1.48821e-07 2.93838e-07 -0.000999279)
(-1.85985e-07 2.92248e-07 -0.000999334)
(-2.04447e-07 2.90426e-07 -0.000999398)
(-3.36106e-08 1.01939e-07 -0.000999151)
(-9.69727e-08 1.01868e-07 -0.000999172)
(-1.49637e-07 1.01432e-07 -0.000999214)
(-1.86976e-07 1.00841e-07 -0.00099927)
(-2.05527e-07 1.00166e-07 -0.000999334)
(-4.37151e-08 8.60304e-07 -0.000999598)
(-1.26345e-07 8.60426e-07 -0.000999627)
(-1.95027e-07 8.58187e-07 -0.000999679)
(-2.43288e-07 8.55071e-07 -0.000999749)
(-2.66803e-07 8.51517e-07 -0.000999831)
(-4.45248e-08 7.82644e-07 -0.000999332)
(-1.28532e-07 7.82301e-07 -0.00099936)
(-1.98234e-07 7.79485e-07 -0.000999414)
(-2.47249e-07 7.75643e-07 -0.000999487)
(-2.71065e-07 7.71205e-07 -0.00099957)
(-4.5402e-08 6.25964e-07 -0.000999101)
(-1.30935e-07 6.2541e-07 -0.00099913)
(-2.01768e-07 6.22644e-07 -0.000999185)
(-2.5157e-07 6.18904e-07 -0.00099926)
(-2.75791e-07 6.14622e-07 -0.000999346)
(-4.61418e-08 4.04844e-07 -0.00099893)
(-1.32974e-07 4.04358e-07 -0.00099896)
(-2.04781e-07 4.02314e-07 -0.000999017)
(-2.55241e-07 3.9955e-07 -0.000999094)
(-2.79784e-07 3.96406e-07 -0.000999182)
(-4.64997e-08 1.39948e-07 -0.000998839)
(-1.33983e-07 1.39757e-07 -0.000998869)
(-2.06294e-07 1.38998e-07 -0.000998926)
(-2.57075e-07 1.37967e-07 -0.000999004)
(-2.81758e-07 1.368e-07 -0.000999094)
(-5.98154e-08 1.17299e-06 -0.000999458)
(-1.72705e-07 1.1728e-06 -0.000999497)
(-2.65931e-07 1.16912e-06 -0.000999568)
(-3.30653e-07 1.16412e-06 -0.000999664)
(-3.61374e-07 1.15842e-06 -0.000999774)
(-6.11753e-08 1.07065e-06 -0.000999093)
(-1.76379e-07 1.06958e-06 -0.000999132)
(-2.71314e-07 1.06475e-06 -0.000999206)
(-3.3723e-07 1.05819e-06 -0.000999306)
(-3.68425e-07 1.05074e-06 -0.000999419)
(-6.27024e-08 8.58964e-07 -0.000998773)
(-1.80547e-07 8.57564e-07 -0.000998814)
(-2.77432e-07 8.52718e-07 -0.000998892)
(-3.44658e-07 8.46199e-07 -0.000998995)
(-3.76479e-07 8.38837e-07 -0.000999113)
(-6.40142e-08 5.5689e-07 -0.000998536)
(-1.84148e-07 5.55735e-07 -0.000998578)
(-2.82736e-07 5.52121e-07 -0.000998659)
(-3.51071e-07 5.4727e-07 -0.000998766)
(-3.8338e-07 5.41823e-07 -0.000998887)
(-6.46874e-08 1.92769e-07 -0.000998408)
(-1.86028e-07 1.92325e-07 -0.000998451)
(-2.85528e-07 1.90978e-07 -0.000998533)
(-3.54426e-07 1.89171e-07 -0.000998642)
(-3.86955e-07 1.87149e-07 -0.000998766)
(-8.20037e-08 1.59998e-06 -0.000999271)
(-2.36419e-07 1.59903e-06 -0.000999325)
(-3.6278e-07 1.59294e-06 -0.000999423)
(-4.49044e-07 1.58474e-06 -0.000999554)
(-4.88451e-07 1.57556e-06 -0.000999701)
(-8.43185e-08 1.46724e-06 -0.000998769)
(-2.42661e-07 1.46467e-06 -0.000998825)
(-3.71906e-07 1.45626e-06 -0.000998928)
(-4.60051e-07 1.44494e-06 -0.000999064)
(-5.00283e-07 1.43236e-06 -0.000999218)
(-8.7028e-08 1.18236e-06 -0.000998326)
(-2.50016e-07 1.17921e-06 -0.000998384)
(-3.82661e-07 1.17059e-06 -0.000998493)
(-4.72951e-07 1.15907e-06 -0.000998637)
(-5.14144e-07 1.14636e-06 -0.000998798)
(-8.94088e-08 7.69191e-07 -0.000997994)
(-2.56487e-07 7.66649e-07 -0.000998055)
(-3.92123e-07 7.6018e-07 -0.000998168)
(-4.84226e-07 7.51549e-07 -0.000998319)
(-5.26156e-07 7.42114e-07 -0.000998487)
(-9.06968e-08 2.66759e-07 -0.000997814)
(-2.60005e-07 2.65787e-07 -0.000997876)
(-3.97279e-07 2.63379e-07 -0.000997992)
(-4.90326e-07 2.60165e-07 -0.000998147)
(-5.32604e-07 2.5667e-07 -0.000998319)
(-1.12615e-07 2.18332e-06 -0.000999026)
(-3.24088e-07 2.1807e-06 -0.0009991)
(-4.94935e-07 2.17047e-06 -0.000999235)
(-6.08846e-07 2.15662e-06 -0.000999412)
(-6.58255e-07 2.14179e-06 -0.000999609)
(-1.16674e-07 2.01571e-06 -0.000998335)
(-3.34948e-07 2.01e-06 -0.000998412)
(-5.10776e-07 1.99514e-06 -0.000998556)
(-6.27587e-07 1.97509e-06 -0.000998744)
(-6.78395e-07 1.95373e-06 -0.000998951)
(-1.21627e-07 1.63459e-06 -0.000997714)
(-3.48203e-07 1.6278e-06 -0.000997798)
(-5.30059e-07 1.61229e-06 -0.000997952)
(-6.50261e-07 1.59146e-06 -0.000998154)
(-7.02525e-07 1.56956e-06 -0.000998374)
(-1.26082e-07 1.0685e-06 -0.000997244)
(-3.60038e-07 1.06307e-06 -0.000997333)
(-5.47225e-07 1.05141e-06 -0.000997495)
(-6.7025e-07 1.03568e-06 -0.000997711)
(-7.23515e-07 1.01945e-06 -0.000997943)
(-1.28588e-07 3.71519e-07 -0.000996986)
(-3.66641e-07 3.6945e-07 -0.000997079)
(-5.56828e-07 3.65131e-07 -0.000997246)
(-6.81336e-07 3.59263e-07 -0.00099747)
(-7.35039e-07 3.53281e-07 -0.000997708)
(-1.54748e-07 2.98033e-06 -0.000998709)
(-4.4496e-07 2.97404e-06 -0.00099881)
(-6.7517e-07 2.95672e-06 -0.000998999)
(-8.2336e-07 2.93237e-06 -0.000999236)
(-8.83688e-07 2.90898e-06 -0.000999498)
(-1.62195e-07 2.77875e-06 -0.000997753)
(-4.64333e-07 2.76632e-06 -0.000997863)
(-7.03425e-07 2.73982e-06 -0.000998065)
(-8.55688e-07 2.70302e-06 -0.000998325)
(-9.1837e-07 2.66726e-06 -0.000998602)
(-1.71611e-07 2.27357e-06 -0.000996876)
(-4.88662e-07 2.25897e-06 -0.000996998)
(-7.38757e-07 2.23106e-06 -0.000997218)
(-8.95933e-07 2.192e-06 -0.000997508)
(-9.60717e-07 2.15505e-06 -0.000997804)
(-1.80296e-07 1.49603e-06 -0.000996199)
(-5.10609e-07 1.48435e-06 -0.000996334)
(-7.70548e-07 1.46356e-06 -0.000996569)
(-9.31599e-07 1.43372e-06 -0.000996887)
(-9.97234e-07 1.40672e-06 -0.000997199)
(-1.85342e-07 5.21968e-07 -0.000995824)
(-5.22995e-07 5.17524e-07 -0.000995968)
(-7.88622e-07 5.0993e-07 -0.000996211)
(-9.51665e-07 4.98748e-07 -0.000996545)
(-1.01745e-06 4.88942e-07 -0.000996865)
(-2.12127e-07 4.06797e-06 -0.000998316)
(-6.12303e-07 4.05344e-06 -0.00099845)
(-9.20926e-07 4.02471e-06 -0.000998718)
(-1.1081e-06 3.97905e-06 -0.000999031)
(-1.18089e-06 3.9459e-06 -0.000999371)
(-2.2656e-07 3.84927e-06 -0.000996985)
(-6.47311e-07 3.82188e-06 -0.00099714)
(-9.72888e-07 3.77558e-06 -0.000997428)
(-1.16421e-06 3.7038e-06 -0.000997793)
(-1.24153e-06 3.64778e-06 -0.000998145)
(-2.4538e-07 3.18934e-06 -0.000995724)
(-6.92381e-07 3.15713e-06 -0.000995909)
(-1.0394e-06 3.10844e-06 -0.000996224)
(-1.23592e-06 3.03021e-06 -0.000996657)
(-1.31593e-06 2.97294e-06 -0.000997028)
(-2.63402e-07 2.11735e-06 -0.00099473)
(-7.33263e-07 2.09116e-06 -0.000994947)
(-1.10001e-06 2.05626e-06 -0.000995282)
(-1.29957e-06 1.99504e-06 -0.000995784)
(-1.37815e-06 1.95536e-06 -0.000996162)
(-2.74288e-07 7.42029e-07 -0.000994175)
(-7.56045e-07 7.31968e-07 -0.000994412)
(-1.13461e-06 7.19816e-07 -0.000994752)
(-1.3355e-06 6.96578e-07 -0.000995299)
(-1.41223e-06 6.82848e-07 -0.000995676)
(-2.87058e-07 5.54558e-06 -0.000997869)
(-8.45591e-07 5.5115e-06 -0.000998029)
(-1.25608e-06 5.46869e-06 -0.000998434)
(-1.47612e-06 5.37237e-06 -0.000998822)
(-1.57188e-06 5.3451e-06 -0.000999242)
(-3.17266e-07 5.37062e-06 -0.000995987)
(-9.08462e-07 5.30767e-06 -0.000996202)
(-1.35619e-06 5.23354e-06 -0.000996623)
(-1.57267e-06 5.07754e-06 -0.000997153)