/*--------------------------------*- C++ -*----------------------------------*\
| =========                 |                                                 |
| \\      /  F ield         | OpenFOAM: The Open Source CFD Toolbox           |
|  \\    /   O peration     | Version:  5.x                                   |
|   \\  /    A nd           | Web:      www.OpenFOAM.org                      |
|    \\/     M anipulation  |                                                 |
\*---------------------------------------------------------------------------*/
FoamFile
{
    version     2.0;
    format      ascii;
    class       volVectorField;
    location    "100000";
    object      stored_U;
}
// * * * * * * * * * * * * * * * * * * * * * * * * * * * * * * * * * * * * * //

dimensions      [0 1 -1 0 0 0 0];

internalField   nonuniform List<vector> 
2250
(
(3.64982e-12 4.08387e-11 -0.001)
(-7.08926e-12 3.71039e-11 -0.001)
(-3.09672e-11 3.89408e-11 -0.001)
(-1.30052e-11 4.13272e-11 -0.001)
(-4.12754e-11 3.57173e-11 -0.001)
(-1.36766e-13 9.44937e-11 -0.001)
(-9.05835e-12 8.38561e-11 -0.001)
(-2.6745e-11 8.88723e-11 -0.001)
(-1.64092e-11 9.55501e-11 -0.001)
(-3.90782e-11 8.4793e-11 -0.001)
(-7.07277e-12 1.18967e-10 -0.001)
(-1.28807e-11 1.08566e-10 -0.001)
(-1.93311e-11 1.19442e-10 -0.001)
(-1.72537e-11 1.34293e-10 -0.001)
(-3.17156e-11 1.27246e-10 -0.001)
(-1.07209e-11 1.24556e-10 -0.001)
(-8.84452e-12 1.27345e-10 -0.001)
(-1.05567e-12 1.45212e-10 -0.001)
(-8.63087e-12 1.67863e-10 -0.001)
(-1.77718e-11 9.93554e-11 -0.001)
(-4.71519e-12 1.78255e-10 -0.001)
(7.35714e-12 1.82793e-10 -0.001)
(2.11416e-11 1.94171e-10 -0.001)
(-6.31248e-11 1.91509e-10 -0.001)
(7.89483e-11 2.7954e-10 -0.001)
(2.62983e-12 1.00362e-10 -0.001)
(-3.00036e-11 8.83158e-11 -0.001)
(-8.89851e-11 9.28265e-11 -0.001)
(-6.26064e-11 9.63286e-11 -0.001)
(-1.17892e-10 8.34017e-11 -0.001)
(-9.55091e-12 2.41352e-10 -0.001)
(-3.77581e-11 2.16832e-10 -0.001)
(-8.10763e-11 2.31135e-10 -0.001)
(-7.25352e-11 2.45541e-10 -0.001)
(-1.14076e-10 2.25028e-10 -0.001)
(-2.21235e-11 3.19954e-10 -0.001)
(-4.06528e-11 3.06374e-10 -0.001)
(-6.04883e-11 3.35156e-10 -0.001)
(-6.91489e-11 3.7034e-10 -0.001)
(-1.007e-10 3.59495e-10 -0.001)
(-2.36284e-11 3.58123e-10 -0.001)
(-2.31842e-11 3.81933e-10 -0.001)
(-1.72072e-11 4.25068e-10 -0.001)
(-4.82479e-11 4.72904e-10 -0.001)
(-7.99282e-11 2.92235e-10 -0.001)
(7.47069e-13 4.90621e-10 -0.000999999)
(2.54023e-11 5.07481e-10 -0.000999999)
(3.0378e-11 5.35134e-10 -0.000999999)
(-2.01986e-10 5.1854e-10 -0.001)
(1.3021e-10 7.14202e-10 -0.001)
(-2.42057e-11 1.63977e-10 -0.001)
(-9.8389e-11 1.501e-10 -0.001)
(-1.94812e-10 1.54175e-10 -0.001)
(-2.15604e-10 1.56504e-10 -0.001)
(-2.64399e-10 1.48525e-10 -0.001)
(-3.83834e-11 4.34309e-10 -0.001)
(-1.08861e-10 4.14574e-10 -0.001)
(-1.89019e-10 4.30913e-10 -0.001)
(-2.22137e-10 4.46182e-10 -0.001)
(-2.60312e-10 4.39076e-10 -0.001)
(-4.45616e-11 6.37296e-10 -0.001)
(-1.0284e-10 6.40606e-10 -0.001)
(-1.63822e-10 6.73259e-10 -0.001)
(-2.08212e-10 7.07146e-10 -0.001)
(-2.52748e-10 7.03104e-10 -0.001)
(-3.61102e-11 7.89624e-10 -0.001)
(-7.41231e-11 8.33129e-10 -0.001)
(-1.22662e-10 8.7856e-10 -0.001)
(-1.92408e-10 9.18659e-10 -0.001)
(-2.48192e-10 7.45673e-10 -0.001)
(-2.60436e-12 9.67774e-10 -0.000999999)
(-1.54899e-11 9.94399e-10 -0.000999999)
(-7.8506e-11 1.01862e-09 -0.000999999)
(-3.41131e-10 9.92207e-10 -0.001)
(-9.14045e-11 1.13597e-09 -0.001)
(-6.87342e-11 2.50378e-10 -0.001)
(-2.08412e-10 2.45215e-10 -0.001)
(-3.48754e-10 2.44253e-10 -0.001)
(-4.32294e-10 2.44636e-10 -0.001)
(-4.59323e-10 2.47213e-10 -0.001)
(-7.44395e-11 7.11021e-10 -0.001)
(-2.15567e-10 7.07819e-10 -0.001)
(-3.50256e-10 7.17477e-10 -0.001)
(-4.30507e-10 7.27908e-10 -0.001)
(-4.53302e-10 7.37499e-10 -0.001)
(-7.30963e-11 1.10256e-09 -0.001)
(-2.0369e-10 1.11823e-09 -0.001)
(-3.29609e-10 1.14269e-09 -0.001)
(-4.13334e-10 1.16168e-09 -0.001)
(-4.53862e-10 1.17092e-09 -0.001)
(-6.0559e-11 1.41737e-09 -0.001)
(-1.77504e-10 1.4582e-09 -0.001)
(-3.07064e-10 1.48592e-09 -0.001)
(-4.02339e-10 1.50062e-09 -0.001)
(-4.6409e-10 1.44003e-09 -0.001)
(-3.46021e-11 1.62589e-09 -0.000999999)
(-1.37726e-10 1.65268e-09 -0.000999999)
(-2.87406e-10 1.6635e-09 -0.000999999)
(-4.59171e-10 1.63264e-09 -0.001)
(-4.17673e-10 1.6529e-09 -0.001)
(-1.14263e-10 3.75644e-10 -0.001)
(-3.38324e-10 3.73604e-10 -0.001)
(-5.38057e-10 3.70146e-10 -0.001)
(-6.75375e-10 3.69932e-10 -0.001)
(-6.8934e-10 3.80026e-10 -0.001)
(-1.17108e-10 1.08816e-09 -0.001)
(-3.4523e-10 1.09142e-09 -0.001)
(-5.42848e-10 1.09564e-09 -0.001)
(-6.6677e-10 1.10261e-09 -0.001)
(-6.82993e-10 1.12444e-09 -0.001)
(-1.12889e-10 1.70549e-09 -0.001)
(-3.33467e-10 1.72249e-09 -0.001)
(-5.28094e-10 1.73902e-09 -0.001)
(-6.47881e-10 1.75079e-09 -0.001)
(-6.84426e-10 1.77882e-09 -0.001)
(-1.02981e-10 2.19963e-09 -0.001)
(-3.1492e-10 2.22268e-09 -0.001)
(-5.14886e-10 2.2406e-09 -0.001)
(-6.27083e-10 2.24108e-09 -0.001)
(-6.93167e-10 2.29718e-09 -0.001)
(-9.3354e-11 2.46072e-09 -0.000999999)
(-2.96396e-10 2.48193e-09 -0.000999999)
(-5.09964e-10 2.48824e-09 -0.000999999)
(-5.91358e-10 2.46389e-09 -0.001)
(-7.01558e-10 2.40465e-09 -0.001)
(-1.63555e-10 5.41624e-10 -0.001)
(-4.81623e-10 5.40257e-10 -0.001)
(-7.50395e-10 5.36247e-10 -0.001)
(-9.37786e-10 5.37093e-10 -0.001)
(-9.63901e-10 5.48907e-10 -0.001)
(-1.66091e-10 1.5703e-09 -0.001)
(-4.88878e-10 1.57507e-09 -0.001)
(-7.54902e-10 1.57649e-09 -0.001)
(-9.26669e-10 1.58413e-09 -0.001)
(-9.58385e-10 1.61054e-09 -0.001)
(-1.6167e-10 2.45399e-09 -0.001)
(-4.79228e-10 2.46965e-09 -0.001)
(-7.42938e-10 2.48333e-09 -0.001)
(-9.05439e-10 2.49708e-09 -0.001)
(-9.51599e-10 2.53813e-09 -0.001)
(-1.54737e-10 3.1515e-09 -0.001)
(-4.64253e-10 3.16369e-09 -0.001)
(-7.27968e-10 3.1767e-09 -0.001)
(-8.72051e-10 3.18498e-09 -0.001)
(-9.51121e-10 3.28662e-09 -0.001)
(-1.54666e-10 3.50499e-09 -0.000999999)
(-4.59757e-10 3.52564e-09 -0.000999999)
(-7.22103e-10 3.53251e-09 -0.001)
(-7.95543e-10 3.51873e-09 -0.001)
(-9.82095e-10 3.42903e-09 -0.001)
(-2.17719e-10 7.57272e-10 -0.001)
(-6.4137e-10 7.55461e-10 -0.001)
(-9.93052e-10 7.53197e-10 -0.001)
(-1.23417e-09 7.55387e-10 -0.001)
(-1.30458e-09 7.64871e-10 -0.001)
(-2.21152e-10 2.18928e-09 -0.001)
(-6.47925e-10 2.19325e-09 -0.001)
(-9.94858e-10 2.19435e-09 -0.001)
(-1.22453e-09 2.20136e-09 -0.001)
(-1.30005e-09 2.22185e-09 -0.001)
(-2.17879e-10 3.40984e-09 -0.001)
(-6.41558e-10 3.42316e-09 -0.001)
(-9.87075e-10 3.43113e-09 -0.001)
(-1.20897e-09 3.43956e-09 -0.001)
(-1.28598e-09 3.4742e-09 -0.001)
(-2.13841e-10 4.36276e-09 -0.001)
(-6.33196e-10 4.3657e-09 -0.001)
(-9.79142e-10 4.36143e-09 -0.001)
(-1.18172e-09 4.35896e-09 -0.001)
(-1.28226e-09 4.45185e-09 -0.001)
(-2.22223e-10 4.84847e-09 -0.000999999)
(-6.50891e-10 4.86462e-09 -0.000999999)
(-9.94454e-10 4.8633e-09 -0.001)
(-1.11857e-09 4.85024e-09 -0.001)
(-1.30854e-09 4.75447e-09 -0.001)
(-2.82983e-10 1.03999e-09 -0.001)
(-8.32045e-10 1.03804e-09 -0.001)
(-1.28729e-09 1.03859e-09 -0.00100001)
(-1.59176e-09 1.04067e-09 -0.00100001)
(-1.73867e-09 1.04319e-09 -0.00100001)
(-2.87127e-10 3.00357e-09 -0.001)
(-8.36728e-10 3.00511e-09 -0.001)
(-1.28694e-09 3.00462e-09 -0.001)
(-1.5898e-09 3.00495e-09 -0.001)
(-1.73718e-09 3.00614e-09 -0.00100001)
(-2.87085e-10 4.67085e-09 -0.001)
(-8.38107e-10 4.67602e-09 -0.001)
(-1.29028e-09 4.66943e-09 -0.001)
(-1.59322e-09 4.66088e-09 -0.001)
(-1.7278e-09 4.6618e-09 -0.001)
(-2.90116e-10 5.94725e-09 -0.001)
(-8.47101e-10 5.93446e-09 -0.001)
(-1.30302e-09 5.90627e-09 -0.001)
(-1.59777e-09 5.88368e-09 -0.001)
(-1.72775e-09 5.92215e-09 -0.001)
(-3.0998e-10 6.60961e-09 -0.000999999)
(-8.90183e-10 6.61238e-09 -0.000999999)
(-1.34194e-09 6.59619e-09 -0.001)
(-1.5774e-09 6.58042e-09 -0.001)
(-1.74031e-09 6.50224e-09 -0.001)
(-3.69993e-10 1.41613e-09 -0.00100001)
(-1.08114e-09 1.41555e-09 -0.00100001)
(-1.67353e-09 1.41683e-09 -0.00100001)
(-2.06872e-09 1.41605e-09 -0.00100001)
(-2.31491e-09 1.40713e-09 -0.00100001)
(-3.7353e-10 4.09266e-09 -0.00100001)
(-1.08483e-09 4.09148e-09 -0.00100001)
(-1.67608e-09 4.08631e-09 -0.00100001)
(-2.08184e-09 4.07615e-09 -0.00100001)
(-2.32115e-09 4.05225e-09 -0.00100001)
(-3.78811e-10 6.3586e-09 -0.001)
(-1.09708e-09 6.35267e-09 -0.001)
(-1.6926e-09 6.33315e-09 -0.001)
(-2.10662e-09 6.30867e-09 -0.00100001)
(-2.32544e-09 6.27206e-09 -0.00100001)
(-3.90516e-10 8.04897e-09 -0.001)
(-1.12246e-09 8.02869e-09 -0.001)
(-1.72136e-09 7.996e-09 -0.001)
(-2.1434e-09 7.96823e-09 -0.001)
(-2.32195e-09 7.95693e-09 -0.001)
(-4.13063e-10 8.95041e-09 -0.000999999)
(-1.16531e-09 8.94627e-09 -0.000999999)
(-1.75428e-09 8.92581e-09 -0.001)
(-2.14574e-09 8.9217e-09 -0.001)
(-2.32157e-09 8.88563e-09 -0.001)
(-4.90947e-10 1.92397e-09 -0.00100001)
(-1.43009e-09 1.9239e-09 -0.00100001)
(-2.22007e-09 1.92337e-09 -0.00100001)
(-2.76551e-09 1.91835e-09 -0.00100001)
(-3.11736e-09 1.8996e-09 -0.00100001)
(-4.9503e-10 5.5661e-09 -0.00100001)
(-1.43663e-09 5.56361e-09 -0.00100001)
(-2.22971e-09 5.55519e-09 -0.00100001)
(-2.79392e-09 5.53869e-09 -0.00100001)
(-3.13324e-09 5.50296e-09 -0.00100001)
(-5.03784e-10 8.64489e-09 -0.00100001)
(-1.454e-09 8.63807e-09 -0.00100001)
(-2.25003e-09 8.61975e-09 -0.00100001)
(-2.82294e-09 8.59462e-09 -0.00100001)
(-3.14425e-09 8.55438e-09 -0.00100001)
(-5.1692e-10 1.09028e-08 -0.001)
(-1.47835e-09 1.08984e-08 -0.001)
(-2.27492e-09 1.08854e-08 -0.001)
(-2.85994e-09 1.08707e-08 -0.001)
(-3.12844e-09 1.0867e-08 -0.001)
(-5.27161e-10 1.21262e-08 -0.000999999)
(-1.49201e-09 1.21326e-08 -0.000999999)
(-2.2794e-09 1.21222e-08 -0.000999999)
(-2.84152e-09 1.21347e-08 -0.001)
(-3.1172e-09 1.2135e-08 -0.001)
(-6.63976e-10 2.61362e-09 -0.00100001)
(-1.93165e-09 2.61438e-09 -0.00100001)
(-3.00761e-09 2.61215e-09 -0.00100001)
(-3.78963e-09 2.60515e-09 -0.00100001)
(-4.24555e-09 2.58944e-09 -0.00100002)
(-6.68648e-10 7.57431e-09 -0.00100001)
(-1.94117e-09 7.57786e-09 -0.00100001)
(-3.0224e-09 7.57183e-09 -0.00100001)
(-3.81882e-09 7.55925e-09 -0.00100001)
(-4.2632e-09 7.54132e-09 -0.00100001)
(-6.74508e-10 1.17748e-08 -0.00100001)
(-1.95179e-09 1.17836e-08 -0.00100001)
(-3.03309e-09 1.17771e-08 -0.00100001)
(-3.82739e-09 1.17666e-08 -0.00100001)
(-4.26317e-09 1.17583e-08 -0.00100001)
(-6.80306e-10 1.48415e-08 -0.001)
(-1.96138e-09 1.48632e-08 -0.001)
(-3.04185e-09 1.4867e-08 -0.001)
(-3.83845e-09 1.48652e-08 -0.00100001)
(-4.23686e-09 1.48862e-08 -0.00100001)
(-6.78454e-10 1.64866e-08 -0.000999998)
(-1.95408e-09 1.65096e-08 -0.000999999)
(-3.03335e-09 1.65074e-08 -0.000999999)
(-3.80832e-09 1.65232e-08 -0.001)
(-4.20807e-09 1.65395e-08 -0.001)
(-9.07258e-10 3.55394e-09 -0.00100002)
(-2.63529e-09 3.55854e-09 -0.00100002)
(-4.10686e-09 3.55715e-09 -0.00100002)
(-5.20855e-09 3.55371e-09 -0.00100002)
(-5.78561e-09 3.5572e-09 -0.00100002)
(-9.10041e-10 1.0319e-08 -0.00100001)
(-2.64297e-09 1.03368e-08 -0.00100002)
(-4.11927e-09 1.03372e-08 -0.00100002)
(-5.21743e-09 1.03366e-08 -0.00100002)
(-5.79196e-09 1.03549e-08 -0.00100002)
(-9.08642e-10 1.60615e-08 -0.00100001)
(-2.64112e-09 1.60919e-08 -0.00100001)
(-4.11652e-09 1.60941e-08 -0.00100001)
(-5.20089e-09 1.60969e-08 -0.00100001)
(-5.77661e-09 1.61155e-08 -0.00100002)
(-9.07506e-10 2.02519e-08 -0.001)
(-2.64099e-09 2.02866e-08 -0.001)
(-4.11755e-09 2.02861e-08 -0.00100001)
(-5.19722e-09 2.02811e-08 -0.00100001)
(-5.75467e-09 2.02816e-08 -0.00100001)
(-9.08601e-10 2.24526e-08 -0.000999997)
(-2.64461e-09 2.24835e-08 -0.000999998)
(-4.12507e-09 2.24774e-08 -0.000999999)
(-5.20557e-09 2.24801e-08 -0.001)
(-5.72702e-09 2.24965e-08 -0.001)
(-1.23756e-09 4.83718e-09 -0.00100002)
(-3.58955e-09 4.84794e-09 -0.00100002)
(-5.58792e-09 4.84965e-09 -0.00100003)
(-7.07942e-09 4.85278e-09 -0.00100003)
(-7.83444e-09 4.87282e-09 -0.00100003)
(-1.23683e-09 1.40594e-08 -0.00100002)
(-3.59182e-09 1.40924e-08 -0.00100002)
(-5.59336e-09 1.40978e-08 -0.00100002)
(-7.06844e-09 1.41051e-08 -0.00100002)
(-7.83276e-09 1.41378e-08 -0.00100003)
(-1.23065e-09 2.18921e-08 -0.00100001)
(-3.58381e-09 2.19371e-08 -0.00100001)
(-5.58804e-09 2.1938e-08 -0.00100002)
(-7.05316e-09 2.19367e-08 -0.00100002)
(-7.82234e-09 2.19359e-08 -0.00100002)
(-1.22966e-09 2.75966e-08 -0.00100001)
(-3.5874e-09 2.76326e-08 -0.00100001)
(-5.59822e-09 2.76185e-08 -0.00100001)
(-7.07215e-09 2.75923e-08 -0.00100001)
(-7.82518e-09 2.7535e-08 -0.00100001)
(-1.24178e-09 3.05565e-08 -0.000999997)
(-3.61318e-09 3.05921e-08 -0.000999998)
(-5.63251e-09 3.05782e-08 -0.000999999)
(-7.13693e-09 3.05693e-08 -0.001)
(-7.81753e-09 3.05787e-08 -0.001)
(-1.67844e-09 6.58324e-09 -0.00100003)
(-4.86658e-09 6.59946e-09 -0.00100003)
(-7.56705e-09 6.60327e-09 -0.00100003)
(-9.55418e-09 6.60809e-09 -0.00100004)
(-1.05769e-08 6.622e-09 -0.00100004)
(-1.67585e-09 1.91331e-08 -0.00100003)
(-4.86652e-09 1.91758e-08 -0.00100003)
(-7.57233e-09 1.91805e-08 -0.00100003)
(-9.55198e-09 1.91816e-08 -0.00100003)
(-1.05893e-08 1.91866e-08 -0.00100004)
(-1.67124e-09 2.97809e-08 -0.00100002)
(-4.86349e-09 2.98334e-08 -0.00100002)
(-7.57862e-09 2.98281e-08 -0.00100002)
(-9.56673e-09 2.98093e-08 -0.00100002)
(-1.06057e-08 2.97632e-08 -0.00100003)
(-1.67471e-09 3.75187e-08 -0.00100001)
(-4.87573e-09 3.75644e-08 -0.00100001)
(-7.60251e-09 3.75469e-08 -0.00100001)
(-9.61909e-09 3.75034e-08 -0.00100001)
(-1.06368e-08 3.73982e-08 -0.00100002)
(-1.68987e-09 4.15387e-08 -0.000999996)
(-4.90517e-09 4.15898e-08 -0.000999997)
(-7.6452e-09 4.15772e-08 -0.000999999)
(-9.71576e-09 4.15715e-08 -0.001)
(-1.06408e-08 4.15955e-08 -0.001)
(-2.26854e-09 8.95274e-09 -0.00100004)
(-6.58573e-09 8.97139e-09 -0.00100004)
(-1.02435e-08 8.97371e-09 -0.00100005)
(-1.29171e-08 8.97216e-09 -0.00100005)
(-1.43098e-08 8.96687e-09 -0.00100005)
(-2.26841e-09 2.60025e-08 -0.00100004)
(-6.59185e-09 2.60493e-08 -0.00100004)
(-1.02616e-08 2.60487e-08 -0.00100004)
(-1.29463e-08 2.60352e-08 -0.00100004)
(-1.43489e-08 2.6005e-08 -0.00100005)
(-2.27005e-09 4.04513e-08 -0.00100003)
(-6.59974e-09 4.05123e-08 -0.00100003)
(-1.02811e-08 4.05045e-08 -0.00100003)
(-1.29859e-08 4.04762e-08 -0.00100003)
(-1.43882e-08 4.04101e-08 -0.00100004)
(-2.27721e-09 5.09458e-08 -0.00100001)
(-6.6153e-09 5.1019e-08 -0.00100001)
(-1.03059e-08 5.1014e-08 -0.00100002)
(-1.30438e-08 5.09748e-08 -0.00100002)
(-1.44305e-08 5.08633e-08 -0.00100002)
(-2.28423e-09 5.64387e-08 -0.000999994)
(-6.62646e-09 5.65193e-08 -0.000999996)
(-1.03331e-08 5.65175e-08 -0.000999998)
(-1.31371e-08 5.65229e-08 -0.001)
(-1.44221e-08 5.6579e-08 -0.00100001)
(-3.06623e-09 1.21665e-08 -0.00100006)
(-8.92121e-09 1.2185e-08 -0.00100006)
(-1.38952e-08 1.21833e-08 -0.00100006)
(-1.75205e-08 1.21746e-08 -0.00100007)
(-1.94e-08 1.21607e-08 -0.00100007)
(-3.07288e-09 3.53116e-08 -0.00100005)
(-8.94129e-09 3.5361e-08 -0.00100005)
(-1.39312e-08 3.53555e-08 -0.00100006)
(-1.75733e-08 3.53357e-08 -0.00100006)
(-1.94537e-08 3.5301e-08 -0.00100007)
(-3.08223e-09 5.49142e-08 -0.00100004)
(-8.95899e-09 5.49898e-08 -0.00100004)
(-1.39525e-08 5.49864e-08 -0.00100004)
(-1.76091e-08 5.49672e-08 -0.00100005)
(-1.94946e-08 5.49171e-08 -0.00100005)
(-3.09192e-09 6.91677e-08 -0.00100002)
(-8.97298e-09 6.92786e-08 -0.00100002)
(-1.3965e-08 6.92891e-08 -0.00100002)
(-1.76468e-08 6.92659e-08 -0.00100003)
(-1.95355e-08 6.91695e-08 -0.00100003)
(-3.0898e-09 7.66833e-08 -0.000999992)
(-8.96621e-09 7.6799e-08 -0.000999994)
(-1.39757e-08 7.68037e-08 -0.000999998)
(-1.77292e-08 7.6806e-08 -0.001)
(-1.95137e-08 7.68714e-08 -0.00100001)
(-4.15322e-09 1.65262e-08 -0.00100008)
(-1.21063e-08 1.6544e-08 -0.00100008)
(-1.88723e-08 1.65396e-08 -0.00100009)
(-2.37709e-08 1.65314e-08 -0.00100009)
(-2.62935e-08 1.65236e-08 -0.0010001)
(-4.16949e-09 4.7944e-08 -0.00100007)
(-1.21431e-08 4.80003e-08 -0.00100007)
(-1.89199e-08 4.7995e-08 -0.00100008)
(-2.38279e-08 4.79834e-08 -0.00100008)
(-2.6346e-08 4.79674e-08 -0.00100009)
(-4.18554e-09 7.4555e-08 -0.00100005)
(-1.21663e-08 7.46542e-08 -0.00100005)
(-1.89328e-08 7.46573e-08 -0.00100006)
(-2.38448e-08 7.46522e-08 -0.00100006)
(-2.63769e-08 7.46222e-08 -0.00100007)
(-4.19857e-09 9.3942e-08 -0.00100002)
(-1.21817e-08 9.40912e-08 -0.00100002)
(-1.89371e-08 9.4103e-08 -0.00100003)
(-2.38686e-08 9.40835e-08 -0.00100004)
(-2.64184e-08 9.39872e-08 -0.00100004)
(-4.19675e-09 1.04215e-07 -0.00099999)
(-1.21794e-08 1.04366e-07 -0.000999993)
(-1.89547e-08 1.04359e-07 -0.000999998)
(-2.39615e-08 1.04331e-07 -0.001)
(-2.6409e-08 1.04359e-07 -0.00100001)
(-5.64242e-09 2.24389e-08 -0.00100011)
(-1.64537e-08 2.24598e-08 -0.00100011)
(-2.5637e-08 2.2457e-08 -0.00100012)
(-3.22331e-08 2.24561e-08 -0.00100013)
(-3.56153e-08 2.24561e-08 -0.00100014)
(-5.66775e-09 6.50972e-08 -0.00100009)
(-1.65038e-08 6.51729e-08 -0.0010001)
(-2.56884e-08 6.51735e-08 -0.0010001)
(-3.22899e-08 6.51756e-08 -0.00100011)
(-3.56686e-08 6.51759e-08 -0.00100012)
(-5.68686e-09 1.01255e-07 -0.00100007)
(-1.65281e-08 1.01392e-07 -0.00100007)
(-2.56939e-08 1.01397e-07 -0.00100008)
(-3.22938e-08 1.01394e-07 -0.00100009)
(-3.56902e-08 1.0137e-07 -0.0010001)
(-5.70464e-09 1.27654e-07 -0.00100003)
(-1.65534e-08 1.27843e-07 -0.00100003)
(-2.57076e-08 1.27834e-07 -0.00100004)
(-3.23239e-08 1.27795e-07 -0.00100005)
(-3.57317e-08 1.27686e-07 -0.00100006)
(-5.71591e-09 1.41676e-07 -0.000999986)
(-1.65849e-08 1.41866e-07 -0.00099999)
(-2.57613e-08 1.41825e-07 -0.000999997)
(-3.24427e-08 1.41746e-07 -0.00100001)
(-3.57518e-08 1.41714e-07 -0.00100002)
(-7.68662e-09 3.04551e-08 -0.00100015)
(-2.23903e-08 3.0489e-08 -0.00100015)
(-3.48359e-08 3.04922e-08 -0.00100016)
(-4.37376e-08 3.05005e-08 -0.00100017)
(-4.82668e-08 3.05093e-08 -0.00100019)
(-7.7155e-09 8.83874e-08 -0.00100013)
(-2.24458e-08 8.8504e-08 -0.00100013)
(-3.48894e-08 8.85146e-08 -0.00100014)
(-4.37966e-08 8.85299e-08 -0.00100015)
(-4.83276e-08 8.85509e-08 -0.00100017)
(-7.73299e-09 1.37551e-07 -0.00100009)
(-2.24676e-08 1.37745e-07 -0.0010001)
(-3.48911e-08 1.37744e-07 -0.0010001)
(-4.37872e-08 1.37735e-07 -0.00100012)
(-4.83315e-08 1.37718e-07 -0.00100013)
(-7.7572e-09 1.73518e-07 -0.00100004)
(-2.25111e-08 1.7375e-07 -0.00100005)
(-3.49274e-08 1.73702e-07 -0.00100005)
(-4.38333e-08 1.73624e-07 -0.00100007)
(-4.83631e-08 1.73494e-07 -0.00100008)
(-7.79574e-09 1.92651e-07 -0.000999982)
(-2.26045e-08 1.92887e-07 -0.000999987)
(-3.50435e-08 1.92788e-07 -0.000999996)
(-4.39967e-08 1.92639e-07 -0.00100001)
(-4.84156e-08 1.92545e-07 -0.00100002)
(-1.04901e-08 4.13201e-08 -0.0010002)
(-3.05038e-08 4.13807e-08 -0.0010002)
(-4.73749e-08 4.13963e-08 -0.00100022)
(-5.94146e-08 4.14202e-08 -0.00100023)
(-6.54684e-08 4.14559e-08 -0.00100025)
(-1.05147e-08 1.19985e-07 -0.00100017)
(-3.05533e-08 1.20169e-07 -0.00100018)
(-4.74236e-08 1.20201e-07 -0.00100019)
(-5.94584e-08 1.20245e-07 -0.00100021)
(-6.55196e-08 1.20316e-07 -0.00100023)
(-1.05269e-08 1.86833e-07 -0.00100012)
(-3.05646e-08 1.87109e-07 -0.00100013)
(-4.74094e-08 1.87112e-07 -0.00100014)
(-5.94166e-08 1.87107e-07 -0.00100016)
(-6.54802e-08 1.87105e-07 -0.00100018)
(-1.05589e-08 2.35828e-07 -0.00100006)
(-3.06263e-08 2.3612e-07 -0.00100006)
(-4.74635e-08 2.3603e-07 -0.00100007)
(-5.94794e-08 2.35904e-07 -0.00100009)
(-6.54996e-08 2.35714e-07 -0.00100011)
(-1.06353e-08 2.61964e-07 -0.000999976)
(-3.07978e-08 2.62256e-07 -0.000999983)
(-4.76607e-08 2.6208e-07 -0.000999995)
(-5.97344e-08 2.61834e-07 -0.00100001)
(-6.56015e-08 2.61654e-07 -0.00100003)
(-1.43348e-08 5.60335e-08 -0.00100027)
(-4.16136e-08 5.61374e-08 -0.00100028)
(-6.45092e-08 5.61821e-08 -0.0010003)
(-8.07726e-08 5.62428e-08 -0.00100032)
(-8.88518e-08 5.63265e-08 -0.00100035)
(-1.43465e-08 1.6279e-07 -0.00100023)
(-4.16356e-08 1.63079e-07 -0.00100024)
(-6.45232e-08 1.63171e-07 -0.00100026)
(-8.07681e-08 1.63287e-07 -0.00100028)
(-8.88533e-08 1.63445e-07 -0.00100031)
(-1.43459e-08 2.53638e-07 -0.00100017)
(-4.16098e-08 2.54037e-07 -0.00100018)
(-6.44509e-08 2.54081e-07 -0.00100019)
(-8.06572e-08 2.54123e-07 -0.00100022)
(-8.8722e-08 2.54161e-07 -0.00100024)
(-1.43805e-08 3.20352e-07 -0.00100008)
(-4.1669e-08 3.20752e-07 -0.00100009)
(-6.44901e-08 3.20648e-07 -0.0010001)
(-8.07077e-08 3.20486e-07 -0.00100013)
(-8.87131e-08 3.20226e-07 -0.00100015)
(-1.44881e-08 3.5613e-07 -0.000999968)
(-4.19034e-08 3.56506e-07 -0.000999977)
(-6.47657e-08 3.56238e-07 -0.000999994)
(-8.10818e-08 3.55864e-07 -0.00100002)
(-8.88768e-08 3.5556e-07 -0.00100004)
(-1.96243e-08 7.5926e-08 -0.00100036)
(-5.68881e-08 7.60984e-08 -0.00100038)
(-8.80162e-08 7.62061e-08 -0.0010004)
(-1.09962e-07 7.63422e-08 -0.00100043)
(-1.20702e-07 7.6501e-08 -0.00100047)
(-1.96087e-08 2.20674e-07 -0.00100032)
(-5.68389e-08 2.21132e-07 -0.00100033)
(-8.79336e-08 2.21361e-07 -0.00100035)
(-1.09856e-07 2.21644e-07 -0.00100039)
(-1.20587e-07 2.21969e-07 -0.00100042)
(-1.95747e-08 3.44042e-07 -0.00100023)
(-5.67128e-08 3.44647e-07 -0.00100024)
(-8.77073e-08 3.44816e-07 -0.00100026)
(-1.0957e-07 3.45005e-07 -0.0010003)
(-1.20239e-07 3.45204e-07 -0.00100033)
(-1.95924e-08 4.34884e-07 -0.0010001)
(-5.67126e-08 4.35483e-07 -0.00100012)
(-8.76468e-08 4.35424e-07 -0.00100014)
(-1.09494e-07 4.35284e-07 -0.00100017)
(-1.20097e-07 4.35053e-07 -0.00100021)
(-1.97105e-08 4.83995e-07 -0.000999957)
(-5.6972e-08 4.84497e-07 -0.00099997)
(-8.79728e-08 4.84127e-07 -0.000999993)
(-1.09945e-07 4.8359e-07 -0.00100002)
(-1.20293e-07 4.83127e-07 -0.00100006)
(-2.69485e-08 1.0276e-07 -0.00100049)
(-7.80324e-08 1.03044e-07 -0.00100051)
(-1.20477e-07 1.03276e-07 -0.00100055)
(-1.50119e-07 1.03566e-07 -0.00100059)
(-1.6426e-07 1.03894e-07 -0.00100064)
(-2.68767e-08 2.98785e-07 -0.00100043)
(-7.78284e-08 2.99524e-07 -0.00100045)
(-1.20172e-07 3.00046e-07 -0.00100048)
(-1.49753e-07 3.00699e-07 -0.00100052)
(-1.63861e-07 3.01443e-07 -0.00100057)
(-2.67638e-08 4.66174e-07 -0.00100031)
(-7.74651e-08 4.67125e-07 -0.00100033)
(-1.19576e-07 4.67593e-07 -0.00100036)
(-1.49011e-07 4.68161e-07 -0.0010004)
(-1.63007e-07 4.68818e-07 -0.00100045)
(-2.6724e-08 5.89919e-07 -0.00100014)
(-7.72868e-08 5.90839e-07 -0.00100016)
(-1.19232e-07 5.90929e-07 -0.00100019)
(-1.48564e-07 5.90948e-07 -0.00100023)
(-1.62464e-07 5.90943e-07 -0.00100028)
(-2.68397e-08 6.57548e-07 -0.000999943)
(-7.75386e-08 6.58223e-07 -0.000999961)
(-1.19557e-07 6.57717e-07 -0.000999993)
(-1.49002e-07 6.56972e-07 -0.00100004)
(-1.62627e-07 6.56292e-07 -0.00100008)
(-3.71757e-08 1.38846e-07 -0.00100067)
(-1.0757e-07 1.39321e-07 -0.00100069)
(-1.65651e-07 1.39806e-07 -0.00100074)
(-2.05718e-07 1.40421e-07 -0.0010008)
(-2.24075e-07 1.41143e-07 -0.00100087)
(-3.69894e-08 4.03897e-07 -0.00100058)
(-1.07031e-07 4.05125e-07 -0.00100061)
(-1.64838e-07 4.06273e-07 -0.00100065)
(-2.04714e-07 4.07731e-07 -0.00100071)
(-2.22999e-07 4.09454e-07 -0.00100078)
(-3.67002e-08 6.3079e-07 -0.00100042)
(-1.06135e-07 6.32338e-07 -0.00100044)
(-1.63414e-07 6.33473e-07 -0.00100049)
(-2.02923e-07 6.34898e-07 -0.00100055)
(-2.21034e-07 6.36612e-07 -0.00100062)
(-3.65256e-08 7.99465e-07 -0.00100019)
(-1.05539e-07 8.00877e-07 -0.00100022)
(-1.62409e-07 8.01323e-07 -0.00100026)
(-2.01623e-07 8.01787e-07 -0.00100032)
(-2.19551e-07 8.02376e-07 -0.00100039)
(-3.66384e-08 8.92954e-07 -0.000999925)
(-1.05745e-07 8.93844e-07 -0.00099995)
(-1.62625e-07 8.93151e-07 -0.000999994)
(-2.01878e-07 8.9213e-07 -0.00100005)
(-2.1953e-07 8.91187e-07 -0.00100012)
(-5.15762e-08 1.87178e-07 -0.0010009)
(-1.49283e-07 1.87993e-07 -0.00100094)
(-2.29033e-07 1.89017e-07 -0.001001)
(-2.83245e-07 1.90295e-07 -0.00100109)
(-3.06586e-07 1.91869e-07 -0.00100119)
(-5.11516e-08 5.44805e-07 -0.00100078)
(-1.48007e-07 5.46921e-07 -0.00100082)
(-2.27106e-07 5.49404e-07 -0.00100088)
(-2.80825e-07 5.5252e-07 -0.00100097)
(-3.04028e-07 5.56357e-07 -0.00100107)
(-5.04847e-08 8.51938e-07 -0.00100057)
(-1.45958e-07 8.54544e-07 -0.0010006)
(-2.23924e-07 8.57121e-07 -0.00100066)
(-2.76802e-07 8.60352e-07 -0.00100075)
(-2.99742e-07 8.64378e-07 -0.00100084)
(-5.00205e-08 1.08204e-06 -0.00100026)
(-1.44443e-07 1.08424e-06 -0.0010003)
(-2.21476e-07 1.08551e-06 -0.00100036)
(-2.73635e-07 1.08699e-06 -0.00100044)
(-2.96266e-07 1.08903e-06 -0.00100053)
(-5.01211e-08 1.21191e-06 -0.000999903)
(-1.44486e-07 1.21304e-06 -0.000999937)
(-2.21336e-07 1.21212e-06 -0.000999997)
(-2.73291e-07 1.21072e-06 -0.00100008)
(-2.95647e-07 1.20963e-06 -0.00100016)
(-7.19359e-08 2.51564e-07 -0.00100121)
(-2.09036e-07 2.5299e-07 -0.00100126)
(-3.18794e-07 2.55181e-07 -0.00100136)
(-3.92558e-07 2.57714e-07 -0.00100148)
(-4.21071e-07 2.61161e-07 -0.00100162)
(-7.10357e-08 7.32715e-07 -0.00100105)
(-2.06165e-07 7.36445e-07 -0.0010011)
(-3.14543e-07 7.41817e-07 -0.0010012)
(-3.8712e-07 7.48138e-07 -0.00100132)
(-4.15478e-07 7.56594e-07 -0.00100146)
(-6.96016e-08 1.14759e-06 -0.00100076)
(-2.01658e-07 1.1521e-06 -0.00100081)
(-3.0774e-07 1.15781e-06 -0.0010009)
(-3.78439e-07 1.1646e-06 -0.00100101)
(-4.06501e-07 1.17375e-06 -0.00100115)
(-6.85385e-08 1.46187e-06 -0.00100036)
(-1.98152e-07 1.46535e-06 -0.00100041)
(-3.02282e-07 1.4685e-06 -0.0010005)
(-3.71271e-07 1.47199e-06 -0.0010006)
(-3.98972e-07 1.47747e-06 -0.00100072)
(-6.86006e-08 1.64336e-06 -0.000999877)
(-1.97717e-07 1.64469e-06 -0.000999923)
(-3.01319e-07 1.64359e-06 -0.00100001)
(-3.69488e-07 1.64151e-06 -0.00100011)
(-3.96928e-07 1.64079e-06 -0.00100023)
(-1.00377e-07 3.3674e-07 -0.00100161)
(-2.96622e-07 3.39166e-07 -0.00100168)
(-4.47101e-07 3.44038e-07 -0.00100184)
(-5.49657e-07 3.48607e-07 -0.001002)
(-5.80806e-07 3.56581e-07 -0.00100223)
(-9.86582e-08 9.81538e-07 -0.00100141)
(-2.90299e-07 9.88057e-07 -0.00100148)
(-4.38228e-07 1.00002e-06 -0.00100163)
(-5.37753e-07 1.01182e-06 -0.00100178)
(-5.69271e-07 1.03128e-06 -0.001002)
(-9.57613e-08 1.54e-06 -0.00100103)
(-2.80463e-07 1.54786e-06 -0.0010011)
(-4.24142e-07 1.56066e-06 -0.00100123)
(-5.1922e-07 1.57375e-06 -0.00100138)
(-5.51147e-07 1.59503e-06 -0.00100157)
(-9.35436e-08 1.97015e-06 -0.0010005)
(-2.72647e-07 1.9756e-06 -0.00100056)
(-4.12668e-07 1.98324e-06 -0.00100069)
(-5.035e-07 1.98983e-06 -0.00100082)
(-5.35673e-07 2.00378e-06 -0.001001)
(-9.36714e-08 2.22564e-06 -0.000999847)
(-2.71027e-07 2.22674e-06 -0.000999909)
(-4.10219e-07 2.22605e-06 -0.00100003)
(-4.98703e-07 2.22196e-06 -0.00100017)
(-5.30883e-07 2.22363e-06 -0.00100033)
(-1.37256e-07 4.48501e-07 -0.00100215)
(-4.30672e-07 4.51976e-07 -0.00100223)
(-6.3066e-07 4.63834e-07 -0.00100251)
(-7.83224e-07 4.69985e-07 -0.00100267)
(-8.03591e-07 4.90635e-07 -0.00100311)
(-1.34713e-07 1.30816e-06 -0.00100188)
(-4.16577e-07 1.31855e-06 -0.00100196)
(-6.13263e-07 1.34737e-06 -0.00100222)
(-7.57084e-07 1.36505e-06 -0.00100238)
(-7.80963e-07 1.41465e-06 -0.00100278)
(-1.29447e-07 2.05509e-06 -0.00100139)
(-3.94586e-07 2.0682e-06 -0.00100146)
(-5.85129e-07 2.09863e-06 -0.00100169)
(-7.169e-07 2.11962e-06 -0.00100184)
(-7.46037e-07 2.17381e-06 -0.00100217)
(-1.2536e-07 2.64669e-06 -0.00100071)
(-3.77156e-07 2.65405e-06 -0.00100077)
(-5.6229e-07 2.67359e-06 -0.00100097)
(-6.82065e-07 2.68138e-06 -0.00100112)
(-7.15825e-07 2.71945e-06 -0.00100138)
(-1.26611e-07 3.0091e-06 -0.000999818)
(-3.72633e-07 3.00783e-06 -0.000999894)
(-5.5822e-07 3.01079e-06 -0.00100007)
(-6.71066e-07 2.99862e-06 -0.00100024)
(-7.06654e-07 3.01132e-06 -0.00100047)
(-1.71422e-07 5.93913e-07 -0.00100285)
(-6.52718e-07 5.95847e-07 -0.00100288)
(-8.86928e-07 6.27752e-07 -0.00100349)
(-1.14881e-06 6.2774e-07 -0.00100348)
(-1.11217e-06 6.85959e-07 -0.00100445)
(-1.7065e-07 1.73321e-06 -0.00100251)
(-6.20362e-07 1.74485e-06 -0.00100255)
(-8.55551e-07 1.82136e-06 -0.00100308)
(-1.09106e-06 1.83086e-06 -0.00100312)
(-1.06905e-06 1.96905e-06 -0.00100395)
(-1.6318e-07 2.71873e-06 -0.00100186)
(-5.6873e-07 2.7374e-06 -0.00100191)
(-8.01946e-07 2.81617e-06 -0.00100234)
(-1.00206e-06 2.83403e-06 -0.0010024)
(-1.00514e-06 2.98609e-06 -0.00100305)
(-1.57065e-07 3.54249e-06 -0.00100102)
(-5.28565e-07 3.54626e-06 -0.00100106)
(-7.59517e-07 3.60209e-06 -0.00100142)
(-9.2135e-07 3.59019e-06 -0.0010015)
(-9.49538e-07 3.70625e-06 -0.00100197)
(-1.65414e-07 4.0601e-06 -0.000999786)
(-5.15799e-07 4.04673e-06 -0.000999861)
(-7.58572e-07 4.06936e-06 -0.00100015)
(-8.97941e-07 4.0217e-06 -0.00100033)
(-9.36379e-07 4.08205e-06 -0.00100067)
(-1.58567e-07 7.80947e-07 -0.00100376)
(-1.05437e-06 7.69722e-07 -0.00100359)
(-1.22984e-06 8.56257e-07 -0.00100493)
(-1.74993e-06 8.22281e-07 -0.00100438)
(-1.54392e-06 9.8207e-07 -0.00100655)
(-1.71021e-07 2.28442e-06 -0.00100332)
(-9.80582e-07 2.28193e-06 -0.00100322)
(-1.17741e-06 2.4879e-06 -0.00100436)
(-1.62383e-06 2.43573e-06 -0.00100397)
(-1.46055e-06 2.80887e-06 -0.00100577)
(-1.65122e-07 3.54031e-06 -0.00100246)
(-8.56245e-07 3.56205e-06 -0.00100237)
(-1.07688e-06 3.76491e-06 -0.00100326)
(-1.42953e-06 3.74005e-06 -0.00100297)
(-1.34732e-06 4.1554e-06 -0.00100435)
(-1.55981e-07 4.72518e-06 -0.00100158)
(-7.6369e-07 4.70196e-06 -0.00100147)
(-1.0002e-06 4.86438e-06 -0.00100222)
(-1.2336e-06 4.75103e-06 -0.00100195)
(-1.24653e-06 5.10268e-06 -0.00100291)
(-1.9589e-07 5.46743e-06 -0.000999714)
(-7.25891e-07 5.40746e-06 -0.000999734)
(-1.02855e-06 5.51113e-06 -0.00100026)
(-1.19128e-06 5.32467e-06 -0.00100037)
(-1.24193e-06 5.56489e-06 -0.00100093)
(8.02828e-10 1.01507e-06 -0.0010049)
(-1.80911e-06 9.51664e-07 -0.00100423)
(-1.67734e-06 1.17719e-06 -0.00100708)
(-2.77414e-06 1.02975e-06 -0.00100527)
(-2.16809e-06 1.44829e-06 -0.0010099)
(-6.32978e-08 3.01508e-06 -0.00100438)
(-1.64782e-06 2.95152e-06 -0.00100395)
(-1.59869e-06 3.48133e-06 -0.0010063)
(-2.5007e-06 3.22775e-06 -0.00100494)
(-1.99849e-06 4.15559e-06 -0.00100864)
(-6.58501e-08 4.46038e-06 -0.00100312)
(-1.34921e-06 4.49569e-06 -0.00100271)
(-1.4014e-06 4.95839e-06 -0.00100444)
(-2.09913e-06 4.84833e-06 -0.00100338)
(-1.80998e-06 5.85389e-06 -0.0010062)
(-3.43589e-08 6.29204e-06 -0.00100269)
(-1.15824e-06 6.18696e-06 -0.00100214)
(-1.24702e-06 6.6004e-06 -0.00100379)
(-1.60534e-06 6.19541e-06 -0.00100255)
(-1.61178e-06 7.12613e-06 -0.00100451)
(-1.79862e-07 7.34841e-06 -0.000999443)
(-1.05214e-06 7.15601e-06 -0.000999293)
(-1.3938e-06 7.50317e-06 -0.00100029)
(-1.57346e-06 6.89515e-06 -0.00100015)
(-1.67128e-06 7.6765e-06 -0.00100121)
(4.98586e-07 1.28403e-06 -0.00100626)
(-3.22319e-06 1.04269e-06 -0.00100453)