FoamFile
{version 2.0; format ascii;class Cloud<passiveParticle>; location 0;object  positions;}
43
(
( -452.022 29.0453 99.7411 ) 0 
( -416.734 479.597 99.8577 ) 0 
( -340.642 294.742 99.8945 ) 0 
( -86.7763 441.482 142.338 ) 0 
( -88.3465 53.6244 99.8206 ) 0 
( -498.764 341.601 218.895 ) 0 
( -284.26 445.412 251.376 ) 0 
( -142.121 254.084 99.8994 ) 0 
( -274.931 110.93 142.813 ) 0 
( -448.276 151.981 257.314 ) 0 
( -136.173 106.175 286.584 ) 0 
( -276.052 249.003 287.269 ) 0 
( -27.4 287.048 260.257 ) 0 
( -310.05 75.5297 380.601 ) 0 
( -422.944 409.558 390.8 ) 0 
( -455.287 203.763 450.261 ) 0 
( -139.967 399.063 381.725 ) 0 
( -280.15 498.584 498.758 ) 0 
( -139.088 388.418 587.803 ) 0 
( -429.345 23.259 532.252 ) 0 
( -282.347 299.345 480.611 ) 0 
( -108.854 202.131 459.81 ) 0 
( -484.21 421.779 580.591 ) 0 
( -57.9611 60.9412 617.708 ) 0 
( -388.307 225.789 637.39 ) 0 
( -247.303 102.028 568.516 ) 0 
( -313.726 405.356 683.7 ) 0 
( -180.529 231.912 705.079 ) 0 
( -497.694 76.8186 714.057 ) 0 
( -31.4201 385.413 756.255 ) 0 
( -306.44 23.6374 742.692 ) 0 
( -350.905 212.995 833.379 ) 0 
( -209.158 350.855 863.241 ) 0 
( -121.674 71.7161 809.183 ) 0 
( -46.1756 239.214 894.168 ) 0 
( -258.903 103.076 972.784 ) 0 
( -381.248 452.637 865.875 ) 0 
( -483.359 307.433 957.955 ) 0 
( -477.006 110.617 992.676 ) 0 
( -12.2166 108.477 1045.38 ) 0 
( -98.1455 377.812 1028.6 ) 0 
( -298.28 290.115 1031.63 ) 0 
( -146.792 220.436 1142.02 ) 0 
)
