FoamFile
{version 2.0; format ascii;class vectorField; location 0;object  v;}
43
(
( -4.23406e-05 -1.97975e-05 -7.00758e-05 )  
( -2.27616e-05 8.57721e-06 -7.8132e-06 )  
( 2.27331e-05 1.55416e-05 -1.3009e-05 )  
( -6.01745e-05 6.74744e-05 -0.000166176 )  
( -2.38329e-05 -1.41336e-06 -6.2492e-05 )  
( -5.44878e-05 -3.9318e-05 -4.23288e-05 )  
( -0.000110235 -1.80267e-05 -0.000139627 )  
( -8.76979e-05 -3.50162e-06 -3.07158e-05 )  
( -5.79782e-05 -1.1989e-05 -7.07481e-05 )  
( -5.85143e-05 -4.19031e-05 -9.39497e-05 )  
( -2.71667e-05 -3.00862e-06 -0.000107119 )  
( -4.41822e-05 5.02935e-06 -0.000171086 )  
( -0.00017262 -4.87045e-05 -6.70944e-05 )  
( 1.11732e-05 2.20833e-05 -0.000162429 )  
( -7.31514e-05 3.84453e-05 -7.33725e-05 )  
( -1.27237e-05 -3.65072e-06 -0.000177544 )  
( -0.000110426 7.26942e-05 -0.000179852 )  
( -6.03899e-05 -3.51869e-06 -0.000162534 )  
( -1.4074e-05 1.82847e-05 -0.000156123 )  
( -7.96942e-05 -2.76479e-05 -0.000142541 )  
( -4.11246e-05 5.22714e-06 -0.000122218 )  
( -7.44232e-06 -1.19097e-05 -0.000103896 )  
( 3.14212e-06 9.32702e-05 -5.21742e-06 )  
( 5.62886e-05 -1.9194e-05 -0.000153224 )  
( 8.91738e-05 -0.000141863 -0.000134466 )  
( 0.000105469 3.91886e-06 -0.000288965 )  
( -4.95131e-06 -0.000118966 1.6498e-05 )  
( -1.62587e-06 -2.84767e-05 -0.000202351 )  
( -6.4465e-05 -2.78668e-05 -9.09087e-05 )  
( 2.61363e-05 -5.75408e-05 -0.000157561 )  
( 7.99239e-05 2.54634e-05 -0.000319985 )  
( -2.48327e-06 -0.000198313 -8.43163e-05 )  
( -1.10633e-05 -0.000123717 -3.95064e-05 )  
( -7.45975e-05 -2.49881e-05 -5.5199e-05 )  
( -9.95214e-05 -0.000139842 -6.92261e-05 )  
( -4.37485e-05 4.53295e-05 0.000198101 )  
( -4.06393e-05 -9.772e-05 9.19089e-05 )  
( -9.89968e-05 -2.63338e-05 8.77502e-05 )  
( -0.000118947 -1.10118e-06 1.1556e-05 )  
( -4.59627e-05 -0.000101074 0.000265967 )  
( -1.2046e-05 -0.000174376 0.000230116 )  
( -0.000106322 -8.05679e-05 0.000164698 )  
( -9.37003e-05 -7.72309e-05 0.000444456 )  
)
