/*--------------------------------*- C++ -*----------------------------------*\
| =========                 |                                                 |
| \\      /  F ield         | OpenFOAM: The Open Source CFD Toolbox           |
|  \\    /   O peration     | Version:  5.x                                   |
|   \\  /    A nd           | Web:      www.OpenFOAM.org                      |
|    \\/     M anipulation  |                                                 |
\*---------------------------------------------------------------------------*/
FoamFile
{
    version     2.0;
    format      ascii;
    class       volVectorField;
    location    "0.009";
    object      U;
}
// * * * * * * * * * * * * * * * * * * * * * * * * * * * * * * * * * * * * * //

dimensions      [0 1 -1 0 0 0 0];

internalField   nonuniform List<vector> 
180
(
(5.85248e-10 -1.16206e-08 -0.00100005)
(5.96371e-10 -1.41386e-08 -0.00100006)
(6.11009e-10 -1.85029e-08 -0.00100006)
(6.50099e-10 -2.40937e-08 -0.00100006)
(7.28815e-10 -3.04847e-08 -0.00100006)
(8.42153e-10 -3.74505e-08 -0.00100007)
(9.79945e-10 -4.49078e-08 -0.00100007)
(1.13446e-09 -5.28598e-08 -0.00100008)
(1.30179e-09 -6.13555e-08 -0.00100008)
(1.48095e-09 -7.04678e-08 -0.00100009)
(1.67258e-09 -8.0283e-08 -0.0010001)
(1.87814e-09 -9.08968e-08 -0.00100011)
(2.09953e-09 -1.02413e-07 -0.00100012)
(2.33887e-09 -1.14946e-07 -0.00100013)
(2.59854e-09 -1.28617e-07 -0.00100014)
(2.88104e-09 -1.43562e-07 -0.00100016)
(3.18908e-09 -1.59926e-07 -0.00100017)
(3.52552e-09 -1.7787e-07 -0.00100019)
(3.8934e-09 -1.9757e-07 -0.00100021)
(4.2959e-09 -2.19217e-07 -0.00100023)
(4.73635e-09 -2.43023e-07 -0.00100025)
(5.21822e-09 -2.69221e-07 -0.00100028)
(5.7451e-09 -2.98064e-07 -0.0010003)
(6.32073e-09 -3.29835e-07 -0.00100034)
(6.94894e-09 -3.64841e-07 -0.00100037)
(7.63371e-09 -4.03423e-07 -0.00100041)
(8.37913e-09 -4.45954e-07 -0.00100045)
(9.18941e-09 -4.92846e-07 -0.00100049)
(1.00688e-08 -5.44554e-07 -0.00100054)
(1.10215e-08 -6.01576e-07 -0.0010006)
(1.20516e-08 -6.64462e-07 -0.00100066)
(1.31626e-08 -7.33818e-07 -0.00100073)
(1.43579e-08 -8.1031e-07 -0.00100081)
(1.564e-08 -8.94674e-07 -0.00100089)
(1.70106e-08 -9.87716e-07 -0.00100098)
(1.84706e-08 -1.09033e-06 -0.00100108)
(2.00196e-08 -1.20348e-06 -0.00100119)
(2.16561e-08 -1.32826e-06 -0.00100132)
(2.33769e-08 -1.46584e-06 -0.00100145)
(2.51773e-08 -1.61752e-06 -0.00100161)
(2.70508e-08 -1.78473e-06 -0.00100177)
(2.89892e-08 -1.96904e-06 -0.00100195)
(3.09822e-08 -2.17218e-06 -0.00100216)
(3.30176e-08 -2.39603e-06 -0.00100238)
(3.50808e-08 -2.64267e-06 -0.00100262)
(3.71551e-08 -2.91436e-06 -0.00100289)
(3.92208e-08 -3.21362e-06 -0.00100319)
(4.12564e-08 -3.54315e-06 -0.00100352)
(4.32379e-08 -3.90597e-06 -0.00100388)
(4.51409e-08 -4.30533e-06 -0.00100428)
(4.69459e-08 -4.7448e-06 -0.00100472)
(4.86442e-08 -5.22829e-06 -0.0010052)
(5.02335e-08 -5.76005e-06 -0.00100573)
(5.17231e-08 -6.3447e-06 -0.00100631)
(5.31388e-08 -6.9873e-06 -0.00100695)
(5.45292e-08 -7.69334e-06 -0.00100766)
(5.59714e-08 -8.46878e-06 -0.00100843)
(5.75823e-08 -9.32011e-06 -0.00100928)
(5.95329e-08 -1.02544e-05 -0.00101021)
(6.20663e-08 -1.12792e-05 -0.00101123)
(6.55171e-08 -1.24027e-05 -0.00101235)
(7.03345e-08 -1.36341e-05 -0.00101358)
(7.71074e-08 -1.49828e-05 -0.00101492)
(8.66064e-08 -1.64594e-05 -0.00101639)
(9.98154e-08 -1.80754e-05 -0.001018)
(1.17976e-07 -1.98433e-05 -0.00101975)
(1.42643e-07 -2.17764e-05 -0.00102167)
(1.75625e-07 -2.38887e-05 -0.00102376)
(2.18928e-07 -2.6195e-05 -0.00102604)
(2.74408e-07 -2.87096e-05 -0.00102852)
(3.42634e-07 -3.1444e-05 -0.00103124)
(4.20372e-07 -3.43978e-05 -0.0010342)
(4.98234e-07 -3.75363e-05 -0.00103735)
(5.62648e-07 -4.07377e-05 -0.00104059)
(6.17062e-07 -4.36883e-05 -0.00104425)
(7.52337e-07 -4.571e-05 -0.00105026)
(1.31709e-06 -4.55086e-05 -0.00106029)
(3.1704e-06 -4.11119e-05 -0.00106088)
(7.50824e-06 -2.96624e-05 -0.00102022)
(1.22228e-05 -1.09764e-05 -0.000665165)
(2.25798e-05 1.54535e-05 -0.00367537)
(3.76951e-05 -1.30313e-05 4.46208e-05)
(-0.000103434 -0.000248851 -0.00479901)
(2.9577e-05 -1.13325e-05 1.662e-05)
(0.000115218 0.000290051 -0.00566398)
(3.24461e-05 2.93068e-05 -8.1358e-05)
(0.000283188 0.000325323 -0.00565215)
(1.62984e-05 4.75737e-05 -0.000240507)
(-0.000153119 -0.000189031 -0.00508996)
(-0.000118854 -0.000105728 -0.00134507)
(-0.000422439 1.01257e-05 -0.00595553)
(3.82076e-05 -1.10245e-05 0.000326667)
(-0.00153393 0.000827027 -0.00514649)
(-0.000175682 6.77386e-05 -0.000437627)
(-0.000209184 0.00036169 -0.004946)
(0.000167562 0.000237556 -0.00128074)
(0.000766837 0.000422905 -0.00351343)
(0.000668314 0.000348097 -0.0026503)
(0.000390015 0.000203478 -0.00531317)
(-3.88059e-05 -6.82848e-05 -0.000789838)
(-0.000249338 -0.000151066 -0.00338268)
(-0.000277469 -0.000117844 -0.00128306)
(-0.000349124 -0.000164312 -0.0017139)
(-0.000145986 -9.76123e-05 -0.00120742)
(-3.5179e-05 -7.05119e-05 -0.00125098)
(3.46893e-05 -4.46476e-05 -0.00111092)
(6.68266e-05 -3.21094e-05 -0.00108224)
(7.93494e-05 -2.56474e-05 -0.00108192)
(8.13706e-05 -2.13786e-05 -0.00107883)
(7.80689e-05 -1.81646e-05 -0.00107243)
(7.25705e-05 -1.56045e-05 -0.00106587)
(6.65131e-05 -1.34821e-05 -0.00106004)
(6.06118e-05 -1.16729e-05 -0.00105482)
(5.51154e-05 -1.01095e-05 -0.00105008)
(5.0079e-05 -8.75243e-06 -0.00104573)
(4.54897e-05 -7.57386e-06 -0.00104176)
(4.13156e-05 -6.55058e-06 -0.00103812)
(3.7521e-05 -5.66249e-06 -0.00103479)
(3.40721e-05 -4.89206e-06 -0.00103175)
(3.09376e-05 -4.22403e-06 -0.00102896)
(2.80889e-05 -3.64506e-06 -0.00102641)
(2.55e-05 -3.14354e-06 -0.00102408)
(2.31475e-05 -2.70935e-06 -0.00102195)
(2.10098e-05 -2.33369e-06 -0.00102)
(1.90676e-05 -2.0089e-06 -0.00101822)
(1.7303e-05 -1.72836e-06 -0.0010166)
(1.56999e-05 -1.48629e-06 -0.00101512)
(1.42437e-05 -1.27763e-06 -0.00101377)
(1.29211e-05 -1.09785e-06 -0.00101253)
(1.172e-05 -9.43009e-07 -0.0010114)
(1.06294e-05 -8.09699e-07 -0.00101038)
(9.63929e-06 -6.9497e-07 -0.00100944)
(8.74048e-06 -5.96266e-07 -0.00100858)
(7.9247e-06 -5.11378e-07 -0.0010078)
(7.18437e-06 -4.38399e-07 -0.00100709)
(6.51261e-06 -3.7568e-07 -0.00100645)
(5.90314e-06 -3.21799e-07 -0.00100586)
(5.35025e-06 -2.75533e-07 -0.00100532)
(4.84875e-06 -2.35825e-07 -0.00100484)
(4.39391e-06 -2.01757e-07 -0.00100439)
(3.98144e-06 -1.72521e-07 -0.00100399)
(3.60742e-06 -1.47428e-07 -0.00100362)
(3.26832e-06 -1.25888e-07 -0.00100329)
(2.96091e-06 -1.07399e-07 -0.00100298)
(2.68225e-06 -9.15315e-08 -0.00100271)
(2.42968e-06 -7.79183e-08 -0.00100245)
(2.20077e-06 -6.62445e-08 -0.00100223)
(1.99334e-06 -5.62404e-08 -0.00100202)
(1.80538e-06 -4.76744e-08 -0.00100183)
(1.63509e-06 -4.03474e-08 -0.00100166)
(1.48083e-06 -3.40879e-08 -0.0010015)
(1.34109e-06 -2.87477e-08 -0.00100136)
(1.21453e-06 -2.41986e-08 -0.00100123)
(1.09992e-06 -2.03295e-08 -0.00100112)
(9.96144e-07 -1.7044e-08 -0.00100101)
(9.02197e-07 -1.42578e-08 -0.00100092)
(8.17161e-07 -1.18978e-08 -0.00100083)
(7.40207e-07 -9.90003e-09 -0.00100075)
(6.70584e-07 -8.20858e-09 -0.00100068)
(6.0761e-07 -6.77482e-09 -0.00100061)
(5.5067e-07 -5.55638e-09 -0.00100055)
(4.99203e-07 -4.51651e-09 -0.0010005)
(4.52705e-07 -3.62348e-09 -0.00100045)
(4.10717e-07 -2.84999e-09 -0.00100041)
(3.72824e-07 -2.17264e-09 -0.00100037)
(3.38651e-07 -1.57153e-09 -0.00100033)
(3.0786e-07 -1.02993e-09 -0.0010003)
(2.80142e-07 -5.33849e-10 -0.00100027)
(2.5522e-07 -7.16658e-11 -0.00100024)
(2.32845e-07 3.66197e-10 -0.00100022)
(2.1279e-07 7.8752e-10 -0.00100019)
(1.94852e-07 1.1984e-09 -0.00100017)
(1.78848e-07 1.60306e-09 -0.00100015)
(1.64616e-07 2.00308e-09 -0.00100014)
(1.52015e-07 2.39598e-09 -0.00100012)
(1.40937e-07 2.77343e-09 -0.00100011)
(1.31336e-07 3.121e-09 -0.00100009)
(1.23304e-07 3.41796e-09 -0.00100008)
(1.1722e-07 3.63904e-09 -0.00100006)
(1.13825e-07 3.67262e-09 -0.00100005)
)
;

boundaryField
{
    inlet
    {
        type            zeroGradient;
    }
    outlet
    {
        type            zeroGradient;
    }
    repeat_boundary
    {
        type            slip;
    }
    procBoundary3to1
    {
        type            processor;
        value           nonuniform List<vector> 
180
(
(6.65258e-10 -1.16205e-08 -0.000999926)
(7.02058e-10 -1.41386e-08 -0.000999924)
(7.54267e-10 -1.85028e-08 -0.000999922)
(8.46419e-10 -2.40936e-08 -0.000999921)
(9.84936e-10 -3.04846e-08 -0.000999918)
(1.16574e-09 -3.74503e-08 -0.000999915)
(1.38096e-09 -4.49077e-08 -0.000999911)
(1.62508e-09 -5.28596e-08 -0.000999907)
(1.89649e-09 -6.13553e-08 -0.000999901)
(2.19645e-09 -7.04676e-08 -0.000999895)
(2.52796e-09 -8.02828e-08 -0.000999888)
(2.89498e-09 -9.08965e-08 -0.000999879)
(3.30209e-09 -1.02413e-07 -0.00099987)
(3.75435e-09 -1.14945e-07 -0.000999859)
(4.25732e-09 -1.28617e-07 -0.000999846)
(4.81703e-09 -1.43561e-07 -0.000999833)
(5.44013e-09 -1.59925e-07 -0.000999817)
(6.13384e-09 -1.77869e-07 -0.000999799)
(6.90609e-09 -1.97569e-07 -0.00099978)
(7.76557e-09 -2.19216e-07 -0.000999758)
(8.72179e-09 -2.43022e-07 -0.000999733)
(9.78521e-09 -2.69219e-07 -0.000999706)
(1.09673e-08 -2.98062e-07 -0.000999676)
(1.22806e-08 -3.29832e-07 -0.000999643)
(1.37389e-08 -3.64837e-07 -0.000999606)
(1.53574e-08 -4.03418e-07 -0.000999565)
(1.71526e-08 -4.45949e-07 -0.00099952)
(1.91427e-08 -4.9284e-07 -0.000999471)
(2.13474e-08 -5.44546e-07 -0.000999416)
(2.37885e-08 -6.01566e-07 -0.000999355)
(2.64894e-08 -6.6445e-07 -0.000999289)
(2.94758e-08 -7.33803e-07 -0.000999216)
(3.27746e-08 -8.10293e-07 -0.000999135)
(3.64148e-08 -8.94652e-07 -0.000999046)
(4.04266e-08 -9.87689e-07 -0.000998948)
(4.48414e-08 -1.09029e-06 -0.00099884)
(4.96915e-08 -1.20344e-06 -0.000998722)
(5.50093e-08 -1.32821e-06 -0.000998591)
(6.08275e-08 -1.46578e-06 -0.000998447)
(6.71777e-08 -1.61744e-06 -0.000998289)
(7.40895e-08 -1.78464e-06 -0.000998115)
(8.15892e-08 -1.96893e-06 -0.000997924)
(8.96987e-08 -2.17204e-06 -0.000997714)
(9.84333e-08 -2.39586e-06 -0.000997483)
(1.07798e-07 -2.64246e-06 -0.000997229)
(1.17786e-07 -2.91411e-06 -0.00099695)
(1.28374e-07 -3.21331e-06 -0.000996644)
(1.39515e-07 -3.54277e-06 -0.000996308)
(1.51135e-07 -3.9055e-06 -0.00099594)
(1.63125e-07 -4.30475e-06 -0.000995537)
(1.75328e-07 -4.7441e-06 -0.000995096)
(1.87528e-07 -5.22743e-06 -0.000994612)
(1.99439e-07 -5.75899e-06 -0.000994084)
(2.10686e-07 -6.3434e-06 -0.000993506)
(2.20791e-07 -6.9857e-06 -0.000992876)
(2.29146e-07 -7.69137e-06 -0.000992188)
(2.34992e-07 -8.46636e-06 -0.000991438)
(2.37383e-07 -9.31713e-06 -0.00099062)
(2.35158e-07 -1.02507e-05 -0.000989731)
(2.269e-07 -1.12746e-05 -0.000988763)
(2.109e-07 -1.23972e-05 -0.000987712)
(1.85119e-07 -1.36272e-05 -0.00098657)
(1.47157e-07 -1.49744e-05 -0.00098533)
(9.42444e-08 -1.64491e-05 -0.000983982)
(2.3284e-08 -1.80627e-05 -0.000982518)
(-6.90212e-08 -1.98276e-05 -0.000980925)
(-1.86809e-07 -2.1757e-05 -0.000979201)
(-3.35759e-07 -2.38646e-05 -0.000977337)
(-5.22924e-07 -2.61646e-05 -0.000975326)
(-7.57706e-07 -2.867e-05 -0.000973158)
(-1.05406e-06 -3.13882e-05 -0.000970828)
(-1.43532e-06 -3.43089e-05 -0.000968324)
(-1.94473e-06 -3.73728e-05 -0.000965588)
(-2.66293e-06 -4.04032e-05 -0.000962521)
(-3.72977e-06 -4.2977e-05 -0.00095939)
(-5.34353e-06 -4.4227e-05 -0.000957843)
(-7.77642e-06 -4.27396e-05 -0.000959699)
(-1.13601e-05 -3.63928e-05 -0.000953266)
(-1.66195e-05 -2.26841e-05 -0.000903675)
(-2.35624e-05 -1.76869e-06 -0.00069295)
(-1.71347e-05 3.00638e-05 -0.00284845)
(4.1279e-05 -6.30301e-06 1.87808e-05)
(0.000167352 -0.000255789 -0.00292163)
(8.94882e-05 -8.83422e-05 -0.00350062)
(5.98264e-06 3.33624e-05 -0.00068168)
(-0.000561384 0.000272572 -0.00482631)
(-1.88325e-05 2.32324e-05 -0.000272371)
(-0.000352127 0.000240032 -0.0035604)
(0.000110763 -0.000167324 -0.00174826)
(0.000429555 -0.000195911 -0.00392427)
(0.000114941 -3.66118e-05 -0.00148707)
(7.86022e-05 -1.29638e-05 -0.00419799)
(2.1658e-05 2.56448e-05 -0.00137363)
(-0.000102177 0.000449843 -0.00388314)
(-3.07911e-05 1.78315e-05 -6.7378e-05)
(-0.000221059 0.000358461 -0.00378928)
(-0.000304339 0.000371256 -0.00250929)
(-0.000307028 0.000349578 -0.00214867)
(-0.000251235 0.00037749 -0.00379631)
(-0.000123256 -4.44242e-05 -0.00186112)
(-0.000273322 -6.59425e-05 -0.00297885)
(-0.000403793 -0.00010701 -0.00263475)
(-0.000101106 -8.03173e-05 -0.0018506)
(4.30412e-06 -5.78651e-05 -0.00177164)
(2.99273e-05 -3.87152e-05 -0.00141831)
(7.18421e-05 -2.61754e-05 -0.00127113)
(9.73793e-05 -2.07124e-05 -0.00116589)
(0.000107432 -1.8949e-05 -0.00114328)
(0.000107249 -1.78373e-05 -0.00113568)
(0.000101559 -1.64723e-05 -0.0011245)
(9.35841e-05 -1.48644e-05 -0.00111183)
(8.50957e-05 -1.31808e-05 -0.0011001)
(7.69146e-05 -1.15551e-05 -0.0010897)
(6.93504e-05 -1.00625e-05 -0.00108045)
(6.24761e-05 -8.73163e-06 -0.00107216)
(5.62705e-05 -7.56279e-06 -0.00106473)
(5.0682e-05 -6.54353e-06 -0.00105808)
(4.56527e-05 -5.65746e-06 -0.00105212)
(4.11275e-05 -4.88828e-06 -0.00104679)
(3.70555e-05 -4.22114e-06 -0.00104201)
(3.3391e-05 -3.64283e-06 -0.00103773)
(3.00927e-05 -3.14181e-06 -0.00103389)
(2.71237e-05 -2.70801e-06 -0.00103044)
(2.44507e-05 -2.33265e-06 -0.00102736)
(2.20439e-05 -2.00809e-06 -0.00102459)
(1.98765e-05 -1.72773e-06 -0.0010221)
(1.79246e-05 -1.4858e-06 -0.00101987)
(1.61664e-05 -1.27725e-06 -0.00101786)
(1.45825e-05 -1.09755e-06 -0.00101607)
(1.31554e-05 -9.42774e-07 -0.00101445)
(1.18693e-05 -8.09516e-07 -0.001013)
(1.07103e-05 -6.94826e-07 -0.0010117)
(9.66544e-06 -5.96153e-07 -0.00101053)
(8.72347e-06 -5.11289e-07 -0.00100949)
(7.87412e-06 -4.38329e-07 -0.00100854)
(7.10817e-06 -3.75625e-07 -0.00100769)
(6.41733e-06 -3.21756e-07 -0.00100693)
(5.79417e-06 -2.75499e-07 -0.00100625)
(5.232e-06 -2.35797e-07 -0.00100563)
(4.72479e-06 -2.01735e-07 -0.00100507)
(4.26711e-06 -1.72504e-07 -0.00100458)
(3.85408e-06 -1.47414e-07 -0.00100413)
(3.48132e-06 -1.25877e-07 -0.00100372)
(3.14485e-06 -1.0739e-07 -0.00100336)
(2.84113e-06 -9.15249e-08 -0.00100303)
(2.56694e-06 -7.7913e-08 -0.00100273)
(2.3194e-06 -6.62403e-08 -0.00100246)
(2.09589e-06 -5.6237e-08 -0.00100222)
(1.89408e-06 -4.76717e-08 -0.00100201)
(1.71184e-06 -4.03452e-08 -0.00100181)
(1.54727e-06 -3.40862e-08 -0.00100163)
(1.39865e-06 -2.87463e-08 -0.00100147)
(1.26444e-06 -2.41975e-08 -0.00100133)
(1.14322e-06 -2.03287e-08 -0.0010012)
(1.03375e-06 -1.70433e-08 -0.00100108)
(9.3489e-07 -1.42573e-08 -0.00100097)
(8.45608e-07 -1.18974e-08 -0.00100088)
(7.64983e-07 -9.89968e-09 -0.00100079)
(6.9218e-07 -8.2083e-09 -0.00100071)
(6.26446e-07 -6.7746e-09 -0.00100064)
(5.67103e-07 -5.5562e-09 -0.00100058)
(5.1354e-07 -4.51637e-09 -0.00100052)
(4.65204e-07 -3.62337e-09 -0.00100047)
(4.21598e-07 -2.8499e-09 -0.00100043)
(3.82276e-07 -2.17256e-09 -0.00100038)
(3.46833e-07 -1.57147e-09 -0.00100035)
(3.14908e-07 -1.02989e-09 -0.00100031)
(2.86176e-07 -5.33813e-10 -0.00100028)
(2.60342e-07 -7.16371e-11 -0.00100025)
(2.37145e-07 3.66219e-10 -0.00100023)
(2.16349e-07 7.87537e-10 -0.0010002)
(1.97745e-07 1.19841e-09 -0.00100018)
(1.81145e-07 1.60307e-09 -0.00100016)
(1.66385e-07 2.00308e-09 -0.00100015)
(1.53329e-07 2.39598e-09 -0.00100013)
(1.41872e-07 2.77343e-09 -0.00100011)
(1.31966e-07 3.121e-09 -0.0010001)
(1.23693e-07 3.41796e-09 -0.00100009)
(1.17412e-07 3.63904e-09 -0.00100007)
(1.14053e-07 3.67262e-09 -0.00100006)
)
;
    }
    procBoundary3to2
    {
        type            processor;
        value           nonuniform List<vector> 
180
(
(5.85249e-10 -1.15406e-08 -0.00100006)
(5.96372e-10 -1.40329e-08 -0.00100006)
(6.1101e-10 -1.83597e-08 -0.00100006)
(6.501e-10 -2.38974e-08 -0.00100006)
(7.28817e-10 -3.02286e-08 -0.00100007)
(8.42154e-10 -3.71269e-08 -0.00100007)
(9.79947e-10 -4.45068e-08 -0.00100008)
(1.13446e-09 -5.23692e-08 -0.00100008)
(1.3018e-09 -6.07608e-08 -0.00100009)
(1.48096e-09 -6.97523e-08 -0.0010001)
(1.67259e-09 -7.94277e-08 -0.0010001)
(1.87815e-09 -8.98799e-08 -0.00100011)
(2.09953e-09 -1.01211e-07 -0.00100012)
(2.33888e-09 -1.1353e-07 -0.00100014)
(2.59854e-09 -1.26958e-07 -0.00100015)
(2.88105e-09 -1.41626e-07 -0.00100016)
(3.18909e-09 -1.57675e-07 -0.00100018)
(3.52554e-09 -1.75262e-07 -0.0010002)
(3.89342e-09 -1.94557e-07 -0.00100022)
(4.29593e-09 -2.15747e-07 -0.00100024)
(4.73638e-09 -2.39038e-07 -0.00100026)
(5.21825e-09 -2.64654e-07 -0.00100029)
(5.74515e-09 -2.92842e-07 -0.00100032)
(6.32078e-09 -3.23875e-07 -0.00100035)
(6.94901e-09 -3.58051e-07 -0.00100038)
(7.63379e-09 -3.95699e-07 -0.00100042)
(8.37923e-09 -4.3718e-07 -0.00100047)
(9.18954e-09 -4.82893e-07 -0.00100051)
(1.0069e-08 -5.33275e-07 -0.00100057)
(1.10217e-08 -5.88808e-07 -0.00100062)
(1.20518e-08 -6.50023e-07 -0.00100069)
(1.31629e-08 -7.17504e-07 -0.00100076)
(1.43583e-08 -7.91893e-07 -0.00100083)
(1.56404e-08 -8.73898e-07 -0.00100092)
(1.70112e-08 -9.64299e-07 -0.00100101)
(1.84713e-08 -1.06395e-06 -0.00100112)
(2.00204e-08 -1.17381e-06 -0.00100123)
(2.16571e-08 -1.2949e-06 -0.00100136)
(2.33781e-08 -1.42838e-06 -0.0010015)
(2.51788e-08 -1.57551e-06 -0.00100165)
(2.70527e-08 -1.73769e-06 -0.00100182)
(2.89916e-08 -1.91644e-06 -0.001002)
(3.09852e-08 -2.11346e-06 -0.00100221)
(3.30213e-08 -2.3306e-06 -0.00100243)
(3.50855e-08 -2.56994e-06 -0.00100268)
(3.71608e-08 -2.83372e-06 -0.00100295)
(3.9228e-08 -3.12444e-06 -0.00100325)
(4.12653e-08 -3.44487e-06 -0.00100358)
(4.32491e-08 -3.79804e-06 -0.00100394)
(4.51549e-08 -4.1873e-06 -0.00100434)
(4.69633e-08 -4.61636e-06 -0.00100477)
(4.86659e-08 -5.08934e-06 -0.00100525)
(5.02608e-08 -5.61075e-06 -0.00100578)
(5.17573e-08 -6.18562e-06 -0.00100637)
(5.31816e-08 -6.81949e-06 -0.00100701)
(5.45829e-08 -7.51852e-06 -0.00100771)
(5.60388e-08 -8.2895e-06 -0.00100849)
(5.76671e-08 -9.13998e-06 -0.00100935)
(5.96396e-08 -1.00783e-05 -0.00101029)
(6.22008e-08 -1.11138e-05 -0.00101133)
(6.56868e-08 -1.22567e-05 -0.00101247)
(7.05488e-08 -1.35184e-05 -0.00101373)
(7.73784e-08 -1.49116e-05 -0.00101512)
(8.69496e-08 -1.64503e-05 -0.00101666)
(1.00251e-07 -1.81501e-05 -0.00101835)
(1.18529e-07 -2.00279e-05 -0.00102022)
(1.43351e-07 -2.21027e-05 -0.00102229)
(1.76537e-07 -2.4396e-05 -0.00102457)
(2.20116e-07 -2.69313e-05 -0.00102709)
(2.75961e-07 -2.97334e-05 -0.00102989)
(3.44594e-07 -3.28256e-05 -0.001033)
(4.22399e-07 -3.62198e-05 -0.00103645)
(4.98378e-07 -3.9893e-05 -0.00104022)
(5.53459e-07 -4.37353e-05 -0.00104419)
(5.74345e-07 -4.74541e-05 -0.0010486)
(6.05054e-07 -5.04478e-05 -0.00105523)
(8.7933e-07 -5.17304e-05 -0.00106627)
(2.01445e-06 -5.02203e-05 -0.00106755)
(4.77426e-06 -4.46592e-05 -0.00101172)
(6.67323e-06 -3.30711e-05 -0.000751067)
(9.02907e-06 8.72997e-07 -0.00362405)
(5.94601e-06 1.79717e-05 8.36973e-05)
(-0.000141165 3.57944e-05 -0.0043093)
(-3.57742e-07 1.28079e-05 -0.000323259)
(6.76667e-05 -0.000133561 -0.00388813)
(-2.0155e-06 -0.000211057 -0.00441558)
(2.55254e-05 -4.88383e-05 -0.000398558)
(0.000296026 -0.000405612 -0.00490833)
(-0.000102026 5.69844e-05 -0.00110567)
(-0.000400629 0.00091611 -0.0028711)
(-0.000502772 0.00113191 -0.00307305)
(-0.00024369 0.000327418 -0.000578013)
(-0.00120482 0.00161554 -0.00298715)
(-0.000237486 0.000359193 -0.00204015)
(5.55276e-05 4.0371e-05 0.000215075)
(0.00016329 -5.86399e-05 -0.00436926)
(0.000166842 -9.28445e-05 -0.000658086)
(0.000846759 -0.000767228 -0.00261202)
(0.000695508 -0.000570502 -0.0017403)
(4.38885e-07 -0.000351013 -0.00127347)
(-0.000272045 -0.000429288 -0.00229273)
(-0.000159237 -0.000169434 -0.00172955)
(-6.6075e-05 -2.28205e-05 -0.00172174)
(-1.82704e-05 1.27276e-06 -0.00149017)
(1.62001e-05 -1.52735e-05 -0.00114859)
(6.14225e-05 -5.16705e-06 -0.000985589)
(7.89865e-05 3.91482e-06 -0.000863117)
(8.49106e-05 7.34295e-06 -0.000877324)
(8.38609e-05 7.74701e-06 -0.000899438)
(7.91766e-05 7.12325e-06 -0.000911525)
(7.30686e-05 6.28602e-06 -0.000919603)
(6.67493e-05 5.49162e-06 -0.000926981)
(6.07377e-05 4.79727e-06 -0.000933941)
(5.51941e-05 4.19935e-06 -0.000940281)
(5.01354e-05 3.68132e-06 -0.00094598)
(4.55337e-05 3.22849e-06 -0.000951108)
(4.13511e-05 2.83049e-06 -0.000955735)
(3.75501e-05 2.48004e-06 -0.000959915)
(3.40961e-05 2.17153e-06 -0.000963694)
(3.09574e-05 1.90024e-06 -0.000967111)
(2.81052e-05 1.66197e-06 -0.000970202)
(2.55135e-05 1.45297e-06 -0.000973001)
(2.31586e-05 1.26982e-06 -0.000975535)
(2.1019e-05 1.10947e-06 -0.00097783)
(1.90751e-05 9.6921e-07 -0.000979909)
(1.73092e-05 8.46589e-07 -0.000981793)
(1.5705e-05 7.39449e-07 -0.000983501)
(1.42479e-05 6.45874e-07 -0.000985048)
(1.29246e-05 5.64176e-07 -0.000986451)
(1.17229e-05 4.92865e-07 -0.000987723)
(1.06318e-05 4.30632e-07 -0.000988876)
(9.64121e-06 3.76328e-07 -0.000989921)
(8.74206e-06 3.28943e-07 -0.000990868)
(7.926e-06 2.87594e-07 -0.000991728)
(7.18543e-06 2.51505e-07 -0.000992507)
(6.51348e-06 2.20001e-07 -0.000993213)
(5.90385e-06 1.9249e-07 -0.000993853)
(5.35084e-06 1.68461e-07 -0.000994433)
(4.84923e-06 1.47479e-07 -0.000994959)
(4.39431e-06 1.29165e-07 -0.000995435)
(3.98176e-06 1.13188e-07 -0.000995866)
(3.60769e-06 9.92594e-08 -0.000996257)
(3.26854e-06 8.71246e-08 -0.000996611)
(2.96109e-06 7.65579e-08 -0.000996931)
(2.6824e-06 6.73602e-08 -0.000997221)
(2.4298e-06 5.93548e-08 -0.000997484)
(2.20087e-06 5.23857e-08 -0.000997722)
(1.99342e-06 4.63152e-08 -0.000997937)
(1.80545e-06 4.10226e-08 -0.000998132)
(1.63515e-06 3.64017e-08 -0.000998309)
(1.48087e-06 3.23608e-08 -0.000998469)
(1.34112e-06 2.88203e-08 -0.000998614)
(1.21456e-06 2.57121e-08 -0.000998745)
(1.09994e-06 2.29777e-08 -0.000998864)
(9.96163e-07 2.05669e-08 -0.000998972)
(9.02212e-07 1.84367e-08 -0.000999069)
(8.17174e-07 1.65502e-08 -0.000999158)
(7.40218e-07 1.48761e-08 -0.000999238)
(6.70593e-07 1.33873e-08 -0.000999311)
(6.07617e-07 1.2061e-08 -0.000999377)
(5.50675e-07 1.08775e-08 -0.000999437)
(4.99208e-07 9.82034e-09 -0.000999491)
(4.52708e-07 8.87564e-09 -0.000999541)
(4.1072e-07 8.03182e-09 -0.000999586)
(3.72826e-07 7.27934e-09 -0.000999626)
(3.38653e-07 6.61048e-09 -0.000999663)
(3.07861e-07 6.01902e-09 -0.000999697)
(2.80143e-07 5.5001e-09 -0.000999728)
(2.55221e-07 5.05006e-09 -0.000999756)
(2.32846e-07 4.66624e-09 -0.000999781)
(2.1279e-07 4.34698e-09 -0.000999804)
(1.94852e-07 4.09151e-09 -0.000999825)
(1.78848e-07 3.89989e-09 -0.000999844)
(1.64616e-07 3.77268e-09 -0.000999861)
(1.52015e-07 3.70987e-09 -0.000999877)
(1.40938e-07 3.70773e-09 -0.000999891)
(1.31336e-07 3.75127e-09 -0.000999904)
(1.23304e-07 3.80751e-09 -0.000999917)
(1.1722e-07 3.83201e-09 -0.000999929)
(1.13825e-07 3.90035e-09 -0.000999939)
)
;
    }
}


// ************************************************************************* //
