/*--------------------------------*- C++ -*----------------------------------*\
| =========                 |                                                 |
| \\      /  F ield         | OpenFOAM: The Open Source CFD Toolbox           |
|  \\    /   O peration     | Version:  5.x                                   |
|   \\  /    A nd           | Web:      www.OpenFOAM.org                      |
|    \\/     M anipulation  |                                                 |
\*---------------------------------------------------------------------------*/
FoamFile
{
    version     2.0;
    format      ascii;
    class       volVectorField;
    location    "10000";
    object      stored_U;
}
// * * * * * * * * * * * * * * * * * * * * * * * * * * * * * * * * * * * * * //

dimensions      [0 1 -1 0 0 0 0];

internalField   nonuniform List<vector> 
2250
(
(-1.85206e-11 7.54046e-11 -0.000999999)
(-5.05711e-11 7.19969e-11 -0.000999999)
(-7.80743e-11 8.70387e-11 -0.000999999)
(-3.74829e-11 9.24842e-11 -0.000999999)
(-1.05271e-10 1.36226e-10 -0.000999999)
(-2.04308e-11 5.96213e-11 -0.000999999)
(-5.13819e-11 6.43258e-11 -0.000999999)
(-7.05123e-11 7.23694e-11 -0.000999999)
(-6.56594e-11 9.01968e-11 -0.000999999)
(-4.67533e-11 5.901e-11 -0.000999999)
(-1.39127e-11 5.40691e-11 -0.000999998)
(-3.79201e-11 5.92872e-11 -0.000999999)
(-5.22036e-11 7.2224e-11 -0.000999999)
(-5.08421e-11 8.66885e-11 -0.000999999)
(-5.567e-11 8.62007e-11 -0.000999999)
(-1.53211e-11 3.24178e-11 -0.000999998)
(-3.333e-11 3.44011e-11 -0.000999998)
(-4.31104e-11 4.32345e-11 -0.000999998)
(-5.16814e-11 4.98919e-11 -0.000999999)
(-5.56622e-11 4.55994e-11 -0.000999999)
(-1.19697e-11 6.48764e-12 -0.000999998)
(-2.7114e-11 9.82848e-12 -0.000999998)
(-3.66449e-11 1.26557e-11 -0.000999998)
(-4.83851e-11 1.62181e-11 -0.000999999)
(-5.85764e-11 1.58511e-11 -0.000999999)
(-5.56924e-11 2.35253e-10 -0.000999999)
(-1.50061e-10 2.37447e-10 -0.000999999)
(-2.20309e-10 2.8247e-10 -0.000999999)
(-1.35606e-10 2.9622e-10 -0.000999999)
(-3.01748e-10 4.2315e-10 -0.000999999)
(-5.36717e-11 1.97307e-10 -0.000999999)
(-1.34291e-10 2.15241e-10 -0.000999999)
(-1.94458e-10 2.42189e-10 -0.000999999)
(-1.87229e-10 2.82617e-10 -0.000999999)
(-1.70982e-10 2.34122e-10 -0.000999999)
(-3.81224e-11 1.71888e-10 -0.000999998)
(-1.0553e-10 1.90922e-10 -0.000999998)
(-1.52934e-10 2.16614e-10 -0.000999998)
(-1.43701e-10 2.58258e-10 -0.000999999)
(-1.72095e-10 2.55467e-10 -0.000999999)
(-3.50018e-11 1.12764e-10 -0.000999998)
(-8.98842e-11 1.2266e-10 -0.000999998)
(-1.27117e-10 1.42326e-10 -0.000999998)
(-1.48373e-10 1.63238e-10 -0.000999998)
(-1.75359e-10 1.43143e-10 -0.000999999)
(-2.83678e-11 3.49771e-11 -0.000999998)
(-7.60077e-11 4.16149e-11 -0.000999998)
(-1.12144e-10 4.87604e-11 -0.000999998)
(-1.42609e-10 5.63573e-11 -0.000999998)
(-1.81494e-10 5.4229e-11 -0.000999998)
(-9.06596e-11 4.45719e-10 -0.000999999)
(-2.52516e-10 4.60142e-10 -0.000999999)
(-3.68869e-10 5.07667e-10 -0.000999999)
(-3.21353e-10 5.25176e-10 -0.000999999)
(-4.24234e-10 6.68661e-10 -0.000999999)
(-7.90068e-11 3.90331e-10 -0.000999998)
(-2.11744e-10 4.21659e-10 -0.000999998)
(-3.13755e-10 4.67497e-10 -0.000999999)
(-3.17911e-10 5.29331e-10 -0.000999999)
(-3.31277e-10 5.20125e-10 -0.000999999)
(-6.01415e-11 3.342e-10 -0.000999998)
(-1.76101e-10 3.60799e-10 -0.000999998)
(-2.61159e-10 3.9533e-10 -0.000999998)
(-2.68633e-10 4.47762e-10 -0.000999998)
(-3.23403e-10 4.43185e-10 -0.000999999)
(-5.30592e-11 2.22069e-10 -0.000999998)
(-1.51204e-10 2.36345e-10 -0.000999998)
(-2.26763e-10 2.63732e-10 -0.000999998)
(-2.70047e-10 2.87024e-10 -0.000999998)
(-3.31174e-10 2.65644e-10 -0.000999998)
(-4.62461e-11 7.64327e-11 -0.000999998)
(-1.34637e-10 8.33171e-11 -0.000999998)
(-2.10073e-10 9.28741e-11 -0.000999998)
(-2.66191e-10 9.95741e-11 -0.000999998)
(-3.36337e-10 9.61811e-11 -0.000999998)
(-1.15904e-10 7.54903e-10 -0.000999999)
(-3.37708e-10 7.77812e-10 -0.000999999)
(-5.1792e-10 8.10096e-10 -0.000999999)
(-5.67754e-10 8.39577e-10 -0.000999999)
(-5.42724e-10 8.78441e-10 -0.000999999)
(-1.01338e-10 6.6825e-10 -0.000999998)
(-2.91423e-10 6.99435e-10 -0.000999998)
(-4.43187e-10 7.49179e-10 -0.000999998)
(-5.08769e-10 8.23352e-10 -0.000999999)
(-5.41619e-10 8.51357e-10 -0.000999999)
(-8.60508e-11 5.63287e-10 -0.000999998)
(-2.58093e-10 5.87849e-10 -0.000999998)
(-3.94061e-10 6.23136e-10 -0.000999998)
(-4.65635e-10 6.6456e-10 -0.000999998)
(-5.31571e-10 6.69804e-10 -0.000999998)
(-7.79228e-11 3.70301e-10 -0.000999998)
(-2.32728e-10 3.83865e-10 -0.000999998)
(-3.66509e-10 4.08113e-10 -0.000999998)
(-4.62096e-10 4.21806e-10 -0.000999998)
(-5.41751e-10 4.09136e-10 -0.000999998)
(-7.30804e-11 1.2922e-10 -0.000999998)
(-2.20583e-10 1.34172e-10 -0.000999998)
(-3.55419e-10 1.41175e-10 -0.000999998)
(-4.63686e-10 1.44539e-10 -0.000999998)
(-5.45585e-10 1.38665e-10 -0.000999998)
(-1.38775e-10 1.17799e-09 -0.000999998)
(-4.1452e-10 1.19559e-09 -0.000999998)
(-6.47014e-10 1.21284e-09 -0.000999998)
(-8.06365e-10 1.25061e-09 -0.000999999)
(-7.57111e-10 1.17877e-09 -0.000999999)
(-1.35612e-10 1.05339e-09 -0.000999998)
(-3.94256e-10 1.07129e-09 -0.000999998)
(-6.00289e-10 1.10035e-09 -0.000999998)
(-7.33672e-10 1.14262e-09 -0.000999998)
(-8.06579e-10 1.18249e-09 -0.000999999)
(-1.22898e-10 8.65027e-10 -0.000999997)
(-3.696e-10 8.83659e-10 -0.000999998)
(-5.75736e-10 9.06376e-10 -0.000999998)
(-7.24287e-10 9.19667e-10 -0.000999998)
(-8.0778e-10 9.13428e-10 -0.000999998)
(-1.18655e-10 5.58552e-10 -0.000999997)
(-3.54576e-10 5.64293e-10 -0.000999997)
(-5.64284e-10 5.78363e-10 -0.000999997)
(-7.26579e-10 5.7987e-10 -0.000999998)
(-8.10256e-10 5.80039e-10 -0.000999998)
(-1.18003e-10 1.92875e-10 -0.000999997)
(-3.50189e-10 1.93671e-10 -0.000999997)
(-5.59055e-10 1.96947e-10 -0.000999997)
(-7.21159e-10 1.97781e-10 -0.000999998)
(-8.02621e-10 2.00906e-10 -0.000999998)
(-1.84182e-10 1.71349e-09 -0.000999998)
(-5.24644e-10 1.71854e-09 -0.000999998)
(-7.88604e-10 1.71304e-09 -0.000999998)
(-1.00436e-09 1.72138e-09 -0.000999998)
(-1.13455e-09 1.65157e-09 -0.000999999)
(-1.87362e-10 1.54202e-09 -0.000999997)
(-5.4232e-10 1.54979e-09 -0.000999997)
(-8.28712e-10 1.54148e-09 -0.000999998)
(-1.034e-09 1.51596e-09 -0.000999998)
(-1.1086e-09 1.50122e-09 -0.000999998)
(-1.79363e-10 1.23987e-09 -0.000999997)
(-5.28164e-10 1.24886e-09 -0.000999997)
(-8.22446e-10 1.26064e-09 -0.000999997)
(-1.04468e-09 1.25724e-09 -0.000999998)
(-1.15049e-09 1.24934e-09 -0.000999998)
(-1.80766e-10 7.90729e-10 -0.000999996)
(-5.23968e-10 7.9114e-10 -0.000999997)
(-8.20338e-10 7.96989e-10 -0.000999997)
(-1.0453e-09 7.94367e-10 -0.000999997)
(-1.13679e-09 8.04161e-10 -0.000999998)
(-1.80127e-10 2.71158e-10 -0.000999996)
(-5.22426e-10 2.71973e-10 -0.000999996)
(-8.1761e-10 2.72204e-10 -0.000999997)
(-1.03543e-09 2.73089e-10 -0.000999997)
(-1.12085e-09 2.79996e-10 -0.000999997)
(-2.49573e-10 2.39173e-09 -0.000999997)
(-7.00993e-10 2.38308e-09 -0.000999997)
(-1.06851e-09 2.35154e-09 -0.000999998)
(-1.24339e-09 2.3072e-09 -0.000999998)
(-1.63691e-09 2.36192e-09 -0.000999999)
(-2.59447e-10 2.15278e-09 -0.000999997)
(-7.49108e-10 2.14795e-09 -0.000999997)
(-1.15839e-09 2.11692e-09 -0.000999997)
(-1.43558e-09 2.07159e-09 -0.000999997)
(-1.51022e-09 1.91813e-09 -0.000999998)
(-2.58539e-10 1.70444e-09 -0.000999996)
(-7.41046e-10 1.70868e-09 -0.000999996)
(-1.14489e-09 1.71772e-09 -0.000999996)
(-1.44209e-09 1.71956e-09 -0.000999997)
(-1.57431e-09 1.70256e-09 -0.000999997)
(-2.58514e-10 1.09239e-09 -0.000999995)
(-7.39181e-10 1.09757e-09 -0.000999996)
(-1.14753e-09 1.09659e-09 -0.000999996)
(-1.45073e-09 1.09315e-09 -0.000999996)
(-1.56084e-09 1.09213e-09 -0.000999997)
(-2.55006e-10 3.76512e-10 -0.000999995)
(-7.37549e-10 3.80257e-10 -0.000999995)
(-1.14705e-09 3.77429e-10 -0.000999996)
(-1.44368e-09 3.78478e-10 -0.000999996)
(-1.55001e-09 3.81596e-10 -0.000999997)
(-3.47639e-10 3.26966e-09 -0.000999997)
(-9.86182e-10 3.26239e-09 -0.000999997)
(-1.52188e-09 3.23627e-09 -0.000999997)
(-1.78958e-09 3.18235e-09 -0.000999998)
(-2.16688e-09 3.25345e-09 -0.000999999)
(-3.52819e-10 2.94189e-09 -0.000999996)
(-1.00947e-09 2.93956e-09 -0.000999996)
(-1.57082e-09 2.91975e-09 -0.000999996)
(-1.96616e-09 2.88957e-09 -0.000999997)
(-2.12159e-09 2.7404e-09 -0.000999997)
(-3.55721e-10 2.33821e-09 -0.000999995)
(-1.01414e-09 2.34403e-09 -0.000999995)
(-1.5719e-09 2.33922e-09 -0.000999995)
(-1.96893e-09 2.33756e-09 -0.000999996)
(-2.13455e-09 2.32145e-09 -0.000999997)
(-3.51583e-10 1.51262e-09 -0.000999994)
(-1.01307e-09 1.52159e-09 -0.000999994)
(-1.5773e-09 1.51092e-09 -0.000999995)
(-1.98391e-09 1.5115e-09 -0.000999995)
(-2.13558e-09 1.49985e-09 -0.000999996)
(-3.49054e-10 5.2578e-10 -0.000999994)
(-1.01682e-09 5.28658e-10 -0.000999994)
(-1.57889e-09 5.21077e-10 -0.000999994)
(-1.97611e-09 5.23984e-10 -0.000999995)
(-2.1331e-09 5.24982e-10 -0.000999996)
(-4.7854e-10 4.48807e-09 -0.000999996)
(-1.37e-09 4.49165e-09 -0.000999996)
(-2.12673e-09 4.4733e-09 -0.000999996)
(-2.71904e-09 4.44194e-09 -0.000999997)
(-2.81596e-09 4.4073e-09 -0.000999999)
(-4.7472e-10 4.05067e-09 -0.000999994)
(-1.36818e-09 4.05866e-09 -0.000999994)
(-2.12927e-09 4.05037e-09 -0.000999995)
(-2.67613e-09 4.04406e-09 -0.000999996)
(-2.9415e-09 4.09382e-09 -0.000999997)
(-4.7852e-10 3.2315e-09 -0.000999993)
(-1.37834e-09 3.23627e-09 -0.000999993)
(-2.14139e-09 3.2231e-09 -0.000999994)
(-2.67559e-09 3.21739e-09 -0.000999995)
(-2.91586e-09 3.21476e-09 -0.000999995)
(-4.76291e-10 2.0899e-09 -0.000999992)
(-1.38296e-09 2.09305e-09 -0.000999992)
(-2.14816e-09 2.08099e-09 -0.000999993)
(-2.68443e-09 2.08567e-09 -0.000999994)
(-2.92384e-09 2.07543e-09 -0.000999995)
(-4.7855e-10 7.24424e-10 -0.000999992)
(-1.38866e-09 7.22653e-10 -0.000999992)
(-2.14458e-09 7.17455e-10 -0.000999992)
(-2.67591e-09 7.22056e-10 -0.000999993)
(-2.92487e-09 7.20769e-10 -0.000999994)
(-6.45534e-10 6.20084e-09 -0.000999994)
(-1.87128e-09 6.20624e-09 -0.000999995)
(-2.93215e-09 6.18559e-09 -0.000999995)
(-3.89727e-09 6.18199e-09 -0.000999996)
(-3.73033e-09 5.96052e-09 -0.000999998)
(-6.42796e-10 5.60888e-09 -0.000999992)
(-1.86716e-09 5.6149e-09 -0.000999993)
(-2.90238e-09 5.60949e-09 -0.000999993)
(-3.6537e-09 5.63579e-09 -0.000999994)
(-4.01274e-09 5.86863e-09 -0.000999996)
(-6.50534e-10 4.45744e-09 -0.000999991)
(-1.88179e-09 4.45563e-09 -0.000999991)
(-2.91135e-09 4.44491e-09 -0.000999992)
(-3.63814e-09 4.44408e-09 -0.000999993)
(-3.99824e-09 4.45531e-09 -0.000999994)
(-6.5333e-10 2.86345e-09 -0.000999989)
(-1.88848e-09 2.86303e-09 -0.00099999)
(-2.91395e-09 2.86072e-09 -0.00099999)
(-3.64325e-09 2.86308e-09 -0.000999992)
(-4.02e-09 2.85405e-09 -0.000999993)
(-6.55289e-10 9.85708e-10 -0.000999989)
(-1.88647e-09 9.84402e-10 -0.000999989)
(-2.90563e-09 9.85974e-10 -0.00099999)
(-3.63768e-09 9.87062e-10 -0.000999991)
(-4.0241e-09 9.84483e-10 -0.000999992)
(-8.74538e-10 8.5371e-09 -0.000999992)
(-2.54842e-09 8.53409e-09 -0.000999993)
(-3.97938e-09 8.50661e-09 -0.000999994)
(-5.17841e-09 8.50398e-09 -0.000999995)
(-5.20561e-09 8.23288e-09 -0.000999997)
(-8.82711e-10 7.71523e-09 -0.00099999)
(-2.55946e-09 7.71138e-09 -0.00099999)
(-3.95837e-09 7.70613e-09 -0.000999991)
(-4.98445e-09 7.72737e-09 -0.000999993)
(-5.4508e-09 7.90594e-09 -0.000999994)
(-8.93514e-10 6.10419e-09 -0.000999987)
(-2.57282e-09 6.10244e-09 -0.000999988)
(-3.96351e-09 6.10015e-09 -0.000999989)
(-4.9786e-09 6.09323e-09 -0.00099999)
(-5.50754e-09 6.09313e-09 -0.000999992)
(-8.96429e-10 3.90858e-09 -0.000999986)
(-2.57555e-09 3.9153e-09 -0.000999986)
(-3.96761e-09 3.91863e-09 -0.000999987)
(-4.9914e-09 3.90638e-09 -0.000999989)
(-5.55086e-09 3.89163e-09 -0.000999991)
(-8.92733e-10 1.34283e-09 -0.000999985)
(-2.56545e-09 1.34741e-09 -0.000999985)
(-3.96468e-09 1.35054e-09 -0.000999986)
(-4.99577e-09 1.34263e-09 -0.000999988)
(-5.55929e-09 1.33645e-09 -0.00099999)
(-1.19669e-09 1.16756e-08 -0.00099999)
(-3.47521e-09 1.16666e-08 -0.00099999)
(-5.39915e-09 1.16303e-08 -0.000999992)
(-6.846e-09 1.15948e-08 -0.000999994)
(-7.37369e-09 1.14306e-08 -0.000999996)
(-1.2136e-09 1.05364e-08 -0.000999986)
(-3.50569e-09 1.05302e-08 -0.000999987)
(-5.41419e-09 1.05148e-08 -0.000999988)
(-6.82032e-09 1.04993e-08 -0.00099999)
(-7.52131e-09 1.05067e-08 -0.000999993)
(-1.22365e-09 8.33187e-09 -0.000999983)
(-3.51769e-09 8.33833e-09 -0.000999984)
(-5.4302e-09 8.33455e-09 -0.000999985)
(-6.85416e-09 8.30469e-09 -0.000999987)
(-7.61078e-09 8.26796e-09 -0.00099999)
(-1.22352e-09 5.34334e-09 -0.000999981)
(-3.51948e-09 5.36013e-09 -0.000999981)
(-5.44787e-09 5.35557e-09 -0.000999983)
(-6.88681e-09 5.32135e-09 -0.000999985)
(-7.6736e-09 5.29078e-09 -0.000999987)
(-1.21499e-09 1.8394e-09 -0.00099998)
(-3.50912e-09 1.84915e-09 -0.00099998)
(-5.4583e-09 1.8465e-09 -0.000999982)
(-6.90531e-09 1.82811e-09 -0.000999984)
(-7.68733e-09 1.81452e-09 -0.000999986)
(-1.64109e-09 1.59217e-08 -0.000999986)
(-4.75496e-09 1.59147e-08 -0.000999987)
(-7.38088e-09 1.58637e-08 -0.000999989)
(-9.31217e-09 1.57991e-08 -0.000999992)
(-1.02964e-08 1.56683e-08 -0.000999995)
(-1.66098e-09 1.43654e-08 -0.000999981)
(-4.80256e-09 1.43648e-08 -0.000999982)
(-7.44037e-09 1.43248e-08 -0.000999984)
(-9.38414e-09 1.42547e-08 -0.000999987)
(-1.04119e-08 1.41642e-08 -0.00099999)
(-1.66992e-09 1.1382e-08 -0.000999977)
(-4.82409e-09 1.13957e-08 -0.000999978)
(-7.49123e-09 1.13703e-08 -0.00099998)
(-9.47279e-09 1.12985e-08 -0.000999983)
(-1.0521e-08 1.12179e-08 -0.000999986)
(-1.66968e-09 7.31725e-09 -0.000999974)
(-4.83678e-09 7.33586e-09 -0.000999975)
(-7.53756e-09 7.30849e-09 -0.000999977)
(-9.53636e-09 7.2468e-09 -0.00099998)
(-1.05997e-08 7.19228e-09 -0.000999983)
(-1.66244e-09 2.5235e-09 -0.000999972)
(-4.8378e-09 2.53243e-09 -0.000999973)
(-7.56547e-09 2.51799e-09 -0.000999975)
(-9.57008e-09 2.48981e-09 -0.000999978)
(-1.06215e-08 2.46558e-09 -0.000999982)
(-2.25198e-09 2.17301e-08 -0.000999981)
(-6.52708e-09 2.17277e-08 -0.000999982)
(-1.01374e-08 2.1647e-08 -0.000999985)
(-1.27677e-08 2.15182e-08 -0.000999989)
(-1.42166e-08 2.13428e-08 -0.000999993)
(-2.27217e-09 1.96165e-08 -0.000999974)
(-6.59282e-09 1.96227e-08 -0.000999976)
(-1.02551e-08 1.95381e-08 -0.000999978)
(-1.29404e-08 1.93909e-08 -0.000999982)
(-1.43863e-08 1.92081e-08 -0.000999987)
(-2.2843e-09 1.55682e-08 -0.000999969)
(-6.64431e-09 1.55789e-08 -0.00099997)
(-1.03696e-08 1.55047e-08 -0.000999973)
(-1.30978e-08 1.5375e-08 -0.000999977)
(-1.45233e-08 1.52433e-08 -0.000999981)
(-2.29203e-09 1.00152e-08 -0.000999964)
(-6.68713e-09 1.00176e-08 -0.000999966)
(-1.04592e-08 9.95665e-09 -0.000999969)
(-1.32016e-08 9.87138e-09 -0.000999973)
(-1.46196e-08 9.79275e-09 -0.000999977)
(-2.29705e-09 3.45326e-09 -0.000999962)
(-6.70944e-09 3.45051e-09 -0.000999964)
(-1.04952e-08 3.42469e-09 -0.000999967)
(-1.32355e-08 3.39408e-09 -0.000999971)
(-1.4648e-08 3.36488e-09 -0.000999975)
(-3.08537e-09 2.97051e-08 -0.000999974)
(-8.96019e-09 2.96908e-08 -0.000999976)
(-1.39427e-08 2.95503e-08 -0.00099998)
(-1.75762e-08 2.93189e-08 -0.000999985)
(-1.95211e-08 2.90405e-08 -0.000999991)
(-3.1173e-09 2.68197e-08 -0.000999965)
(-9.06992e-09 2.68162e-08 -0.000999967)
(-1.41424e-08 2.66601e-08 -0.000999971)
(-1.78415e-08 2.64268e-08 -0.000999976)
(-1.97941e-08 2.61764e-08 -0.000999982)
(-3.14152e-09 2.12917e-08 -0.000999957)
(-9.17288e-09 2.12824e-08 -0.000999959)
(-1.43325e-08 2.11441e-08 -0.000999963)
(-1.806e-08 2.09635e-08 -0.000999969)
(-1.99892e-08 2.07858e-08 -0.000999975)
(-3.16831e-09 1.36824e-08 -0.000999952)
(-9.25961e-09 1.36562e-08 -0.000999954)
(-1.44615e-08 1.35715e-08 -0.000999958)
(-1.81995e-08 1.3475e-08 -0.000999963)
(-2.01242e-08 1.33761e-08 -0.000999969)
(-3.18819e-09 4.70859e-09 -0.000999949)
(-9.29247e-09 4.69169e-09 -0.000999951)
(-1.44852e-08 4.6669e-09 -0.000999955)
(-1.82193e-08 4.63965e-09 -0.00099996)
(-2.01582e-08 4.61137e-09 -0.000999966)
(-4.22641e-09 4.06299e-08 -0.000999965)
(-1.22928e-08 4.05859e-08 -0.000999968)
(-1.91515e-08 4.03542e-08 -0.000999973)
(-2.41518e-08 4.00039e-08 -0.00099998)
(-2.67421e-08 3.95897e-08 -0.000999989)
(-4.28635e-09 3.66705e-08 -0.000999953)
(-1.24784e-08 3.66361e-08 -0.000999955)
(-1.94539e-08 3.63938e-08 -0.000999961)
(-2.45152e-08 3.60725e-08 -0.000999968)
(-2.71352e-08 3.5737e-08 -0.000999976)
(-4.33263e-09 2.91091e-08 -0.000999942)
(-1.26421e-08 2.90709e-08 -0.000999945)
(-1.97157e-08 2.88783e-08 -0.00099995)
(-2.48086e-08 2.86476e-08 -0.000999957)
(-2.74458e-08 2.83963e-08 -0.000999966)
(-4.3815e-09 1.86839e-08 -0.000999934)
(-1.27666e-08 1.8643e-08 -0.000999937)
(-1.98773e-08 1.85462e-08 -0.000999942)
(-2.49968e-08 1.84206e-08 -0.00099995)
(-2.76666e-08 1.82751e-08 -0.000999958)
(-4.40135e-09 6.41923e-09 -0.00099993)
(-1.27915e-08 6.40333e-09 -0.000999933)
(-1.9899e-08 6.38204e-09 -0.000999938)
(-2.50302e-08 6.34279e-09 -0.000999946)
(-2.77233e-08 6.29962e-09 -0.000999954)
(-5.78931e-09 5.56037e-08 -0.000999953)
(-1.68371e-08 5.55274e-08 -0.000999957)
(-2.62162e-08 5.51675e-08 -0.000999964)
(-3.30202e-08 5.46683e-08 -0.000999973)
(-3.66208e-08 5.40769e-08 -0.000999985)
(-5.88391e-09 5.01768e-08 -0.000999936)
(-1.71216e-08 5.01015e-08 -0.000999939)
(-2.66657e-08 4.97566e-08 -0.000999947)
(-3.35737e-08 4.92957e-08 -0.000999956)
(-3.717e-08 4.87611e-08 -0.000999968)
(-5.96272e-09 3.98288e-08 -0.000999921)
(-1.73566e-08 3.97628e-08 -0.000999925)
(-2.70228e-08 3.95095e-08 -0.000999932)
(-3.40156e-08 3.91739e-08 -0.000999942)
(-3.76619e-08 3.87699e-08 -0.000999954)
(-6.02783e-09 2.55581e-08 -0.00099991)
(-1.75195e-08 2.55177e-08 -0.000999914)
(-2.72548e-08 2.53776e-08 -0.000999921)
(-3.43128e-08 2.51684e-08 -0.000999931)
(-3.80257e-08 2.49213e-08 -0.000999943)
(-6.04125e-09 8.78106e-09 -0.000999905)
(-1.7553e-08 8.773e-09 -0.000999908)
(-2.73184e-08 8.73055e-09 -0.000999916)
(-3.44039e-08 8.65614e-09 -0.000999926)
(-3.81343e-08 8.57231e-09 -0.000999938)
(-7.90674e-09 7.61717e-08 -0.000999936)
(-2.30114e-08 7.6039e-08 -0.000999941)
(-3.58306e-08 7.54903e-08 -0.000999951)
(-4.50828e-08 7.47565e-08 -0.000999964)
(-5.01445e-08 7.39227e-08 -0.000999979)
(-8.05695e-09 6.87452e-08 -0.000999912)
(-2.34417e-08 6.86041e-08 -0.000999917)
(-3.65001e-08 6.81057e-08 -0.000999927)
(-4.59454e-08 6.74077e-08 -0.000999941)
(-5.09349e-08 6.65479e-08 -0.000999957)
(-8.18223e-09 5.45645e-08 -0.000999892)
(-2.37868e-08 5.4459e-08 -0.000999897)
(-3.7028e-08 5.40862e-08 -0.000999907)
(-4.66407e-08 5.35544e-08 -0.000999921)
(-5.16877e-08 5.29048e-08 -0.000999937)
(-8.26909e-09 3.50266e-08 -0.000999877)
(-2.40277e-08 3.4969e-08 -0.000999883)
(-3.7405e-08 3.47285e-08 -0.000999893)
(-4.71261e-08 3.4385e-08 -0.000999907)
(-5.22504e-08 3.39801e-08 -0.000999923)
(-8.29198e-09 1.20434e-08 -0.00099987)
(-2.41066e-08 1.20279e-08 -0.000999875)
(-3.75384e-08 1.19412e-08 -0.000999885)
(-4.72957e-08 1.18214e-08 -0.000999899)
(-5.2439e-08 1.16794e-08 -0.000999916)
(-1.0806e-08 1.04424e-07 -0.000999913)
(-3.1463e-08 1.04191e-07 -0.00099992)
(-4.899e-08 1.03361e-07 -0.000999933)
(-6.16124e-08 1.02233e-07 -0.000999951)
(-6.85513e-08 1.0098e-07 -0.000999972)
(-1.10359e-08 9.42512e-08 -0.00099988)
(-3.21006e-08 9.4016e-08 -0.000999887)
(-4.99818e-08 9.32733e-08 -0.000999901)
(-6.29138e-08 9.22093e-08 -0.000999919)
(-6.97812e-08 9.09007e-08 -0.000999941)
(-1.12253e-08 7.48313e-08 -0.000999853)
(-3.26273e-08 7.46566e-08 -0.00099986)
(-5.07981e-08 7.40714e-08 -0.000999873)
(-6.3985e-08 7.32384e-08 -0.000999892)
(-7.09369e-08 7.22291e-08 -0.000999915)
(-1.13565e-08 4.80585e-08 -0.000999832)
(-3.3008e-08 4.79535e-08 -0.000999839)
(-5.14004e-08 4.75641e-08 -0.000999853)
(-6.47552e-08 4.70266e-08 -0.000999873)
(-7.17856e-08 4.63805e-08 -0.000999895)
(-1.14017e-08 1.65326e-08 -0.000999822)
(-3.31512e-08 1.64974e-08 -0.000999829)
(-5.16239e-08 1.63574e-08 -0.000999843)
(-6.50404e-08 1.61738e-08 -0.000999863)
(-7.21003e-08 1.59457e-08 -0.000999885)
(-1.48031e-08 1.43283e-07 -0.000999882)
(-4.30487e-08 1.42899e-07 -0.000999891)
(-6.69882e-08 1.41625e-07 -0.000999909)
(-8.42488e-08 1.3986e-07 -0.000999934)
(-9.35961e-08 1.37888e-07 -0.000999963)
(-1.51312e-08 1.29354e-07 -0.000999837)
(-4.39933e-08 1.28993e-07 -0.000999846)
(-6.8488e-08 1.27848e-07 -0.000999865)
(-8.62072e-08 1.26223e-07 -0.00099989)
(-9.55804e-08 1.24255e-07 -0.00099992)
(-1.54172e-08 1.0276e-07 -0.000999798)
(-4.48107e-08 1.02469e-07 -0.000999808)
(-6.97598e-08 1.01546e-07 -0.000999827)
(-8.78417e-08 1.00254e-07 -0.000999853)
(-9.73736e-08 9.87011e-08 -0.000999884)
(-1.56222e-08 6.60226e-08 -0.00099977)
(-4.54091e-08 6.58375e-08 -0.00099978)
(-7.07038e-08 6.52283e-08 -0.000999799)
(-8.90511e-08 6.43888e-08 -0.000999826)
(-9.86715e-08 6.33754e-08 -0.000999857)
(-1.57001e-08 2.27187e-08 -0.000999756)
(-4.56453e-08 2.26545e-08 -0.000999766)
(-7.10695e-08 2.24385e-08 -0.000999785)
(-8.95182e-08 2.21511e-08 -0.000999812)
(-9.91855e-08 2.17976e-08 -0.000999844)
(-2.02552e-08 1.96838e-07 -0.000999839)
(-5.88604e-08 1.96193e-07 -0.000999852)
(-9.15881e-08 1.94212e-07 -0.000999876)
(-1.15234e-07 1.91466e-07 -0.00099991)
(-1.27775e-07 1.88348e-07 -0.000999949)
(-2.07535e-08 1.77812e-07 -0.000999777)
(-6.03241e-08 1.77217e-07 -0.00099979)
(-9.38982e-08 1.75418e-07 -0.000999815)
(-1.1819e-07 1.7292e-07 -0.00099985)
(-1.30946e-07 1.69946e-07 -0.000999891)
(-2.11962e-08 1.41322e-07 -0.000999724)
(-6.16051e-08 1.40829e-07 -0.000999737)
(-9.58878e-08 1.39373e-07 -0.000999763)
(-1.20707e-07 1.37364e-07 -0.000999799)
(-1.33734e-07 1.34983e-07 -0.000999841)
(-2.15211e-08 9.0833e-08 -0.000999685)
(-6.25509e-08 9.05071e-08 -0.000999698)
(-9.7364e-08 8.95552e-08 -0.000999725)
(-1.22579e-07 8.82526e-08 -0.000999762)
(-1.35759e-07 8.67041e-08 -0.000999805)
(-2.16563e-08 3.12618e-08 -0.000999665)
(-6.29382e-08 3.11454e-08 -0.000999679)
(-9.7951e-08 3.0814e-08 -0.000999706)
(-1.23315e-07 3.03691e-08 -0.000999743)
(-1.36585e-07 2.98388e-08 -0.000999786)
(-2.76894e-08 2.7068e-07 -0.00099978)
(-8.0462e-08 2.69594e-07 -0.000999798)
(-1.25216e-07 2.66521e-07 -0.000999831)
(-1.57574e-07 2.62267e-07 -0.000999877)
(-1.74504e-07 2.57353e-07 -0.000999931)
(-2.84819e-08 2.4474e-07 -0.000999694)
(-8.27712e-08 2.4373e-07 -0.000999712)
(-1.28813e-07 2.40896e-07 -0.000999747)
(-1.62121e-07 2.37009e-07 -0.000999795)
(-1.79496e-07 2.32421e-07 -0.000999852)
(-2.91752e-08 1.9462e-07 -0.000999621)
(-8.47878e-08 1.93787e-07 -0.000999639)
(-1.3194e-07 1.91493e-07 -0.000999676)
(-1.6605e-07 1.88359e-07 -0.000999725)
(-1.83847e-07 1.84675e-07 -0.000999783)
(-2.96932e-08 1.25147e-07 -0.000999567)
(-8.62812e-08 1.24594e-07 -0.000999586)
(-1.34242e-07 1.2311e-07 -0.000999623)
(-1.68937e-07 1.21083e-07 -0.000999674)
(-1.87045e-07 1.18702e-07 -0.000999734)
(-2.99118e-08 4.30803e-08 -0.00099954)
(-8.69004e-08 4.28874e-08 -0.000999559)
(-1.35187e-07 4.23778e-08 -0.000999596)
(-1.70124e-07 4.16818e-08 -0.000999648)
(-1.88383e-07 4.08617e-08 -0.000999708)
(-3.78748e-08 3.7257e-07 -0.0009997)
(-1.10045e-07 3.70781e-07 -0.000999724)
(-1.71221e-07 3.66005e-07 -0.00099977)
(-2.15428e-07 3.59417e-07 -0.000999833)
(-2.38425e-07 3.51729e-07 -0.000999907)
(-3.91233e-08 3.37242e-07 -0.000999581)
(-1.13675e-07 3.3556e-07 -0.000999606)
(-1.76855e-07 3.31107e-07 -0.000999654)
(-2.22521e-07 3.25017e-07 -0.00099972)
(-2.46238e-07 3.17844e-07 -0.000999798)
(-4.02113e-08 2.68405e-07 -0.00099948)
(-1.16845e-07 2.67023e-07 -0.000999505)
(-1.81768e-07 2.63418e-07 -0.000999555)
(-2.28691e-07 2.58499e-07 -0.000999624)
(-2.53053e-07 2.52722e-07 -0.000999704)
(-4.10259e-08 1.72716e-07 -0.000999405)
(-1.1919e-07 1.71808e-07 -0.000999431)
(-1.85381e-07 1.69474e-07 -0.000999483)
(-2.33213e-07 1.66275e-07 -0.000999553)
(-2.58114e-07 1.6252e-07 -0.000999636)
(-4.13732e-08 5.94805e-08 -0.000999367)
(-1.20191e-07 5.91686e-08 -0.000999393)
(-1.86938e-07 5.83645e-08 -0.000999446)
(-2.35184e-07 5.72521e-08 -0.000999517)
(-2.60294e-07 5.59408e-08 -0.000999601)
(-5.18469e-08 5.13374e-07 -0.000999591)
(-1.50635e-07 5.10453e-07 -0.000999623)
(-2.3429e-07 5.03035e-07 -0.000999686)
(-2.94613e-07 4.92821e-07 -0.000999773)
(-3.25767e-07 4.80836e-07 -0.000999874)
(-5.38041e-08 4.65342e-07 -0.000999426)
(-1.56299e-07 4.62579e-07 -0.00099946)
(-2.43064e-07 4.55624e-07 -0.000999527)
(-3.05648e-07 4.46106e-07 -0.000999618)
(-3.37998e-07 4.34913e-07 -0.000999724)
(-5.55108e-08 3.70818e-07 -0.000999285)
(-1.61269e-07 3.68547e-07 -0.00099932)
(-2.5077e-07 3.62878e-07 -0.00099939)
(-3.15324e-07 3.55125e-07 -0.000999485)
(-3.48724e-07 3.46006e-07 -0.000999596)
(-5.67919e-08 2.38857e-07 -0.000999181)
(-1.64965e-07 2.37356e-07 -0.000999218)
(-2.56488e-07 2.33657e-07 -0.000999289)
(-3.22515e-07 2.28565e-07 -0.000999388)
(-3.56726e-07 2.22574e-07 -0.000999503)
(-5.73619e-08 8.23033e-08 -0.000999128)
(-1.66612e-07 8.17821e-08 -0.000999165)
(-2.59057e-07 8.04985e-08 -0.000999238)
(-3.2577e-07 7.87174e-08 -0.000999338)
(-3.60286e-07 7.66193e-08 -0.000999455)
(-7.10577e-08 7.0828e-07 -0.000999442)
(-2.06379e-07 7.0358e-07 -0.000999486)
(-3.20737e-07 6.92076e-07 -0.000999573)
(-4.02964e-07 6.76192e-07 -0.000999691)
(-4.4503e-07 6.57506e-07 -0.000999829)
(-7.40998e-08 6.43224e-07 -0.000999213)
(-2.1517e-07 6.38736e-07 -0.00099926)
(-3.34389e-07 6.2788e-07 -0.000999352)
(-4.20146e-07 6.1297e-07 -0.000999478)
(-4.64193e-07 5.95478e-07 -0.000999624)
(-7.67876e-08 5.13461e-07 -0.000999016)
(-2.22987e-07 5.09732e-07 -0.000999065)
(-3.46514e-07 5.00783e-07 -0.000999162)
(-4.35366e-07 4.8851e-07 -0.000999294)
(-4.81135e-07 4.74089e-07 -0.000999449)
(-7.88188e-08 3.31159e-07 -0.000998871)
(-2.28852e-07 3.28676e-07 -0.000998922)
(-3.55614e-07 3.22784e-07 -0.000999022)
(-4.46834e-07 3.14672e-07 -0.00099916)
(-4.93797e-07 3.05128e-07 -0.00099932)
(-7.97539e-08 1.14181e-07 -0.000998796)
(-2.3156e-07 1.13313e-07 -0.000998848)
(-3.5982e-07 1.11255e-07 -0.00099895)
(-4.5214e-07 1.08421e-07 -0.00099909)
(-4.99621e-07 1.05086e-07 -0.000999253)
(-9.7459e-08 9.78671e-07 -0.000999239)
(-2.82844e-07 9.71144e-07 -0.000999301)
(-4.39115e-07 9.53227e-07 -0.000999419)
(-5.51126e-07 9.28504e-07 -0.000999581)
(-6.07891e-07 8.99383e-07 -0.00099977)
(-1.02196e-07 8.91139e-07 -0.000998921)
(-2.96591e-07 8.83847e-07 -0.000998986)
(-4.60516e-07 8.66752e-07 -0.000999113)
(-5.78033e-07 8.43257e-07 -0.000999287)
(-6.37924e-07 8.15752e-07 -0.000999489)
(-1.06465e-07 7.13041e-07 -0.000998645)
(-3.08978e-07 7.06899e-07 -0.000998713)
(-4.79719e-07 6.92671e-07 -0.000998848)
(-6.02126e-07 6.73161e-07 -0.000999033)
(-6.64712e-07 6.50299e-07 -0.000999247)
(-1.09708e-07 4.60674e-07 -0.00099844)
(-3.18354e-07 4.5656e-07 -0.000998512)
(-4.94258e-07 4.47116e-07 -0.000998653)
(-6.20396e-07 4.34172e-07 -0.000998846)
(-6.84831e-07 4.1898e-07 -0.00099907)
(-1.11248e-07 1.58982e-07 -0.000998335)
(-3.22809e-07 1.57536e-07 -0.000998408)
(-5.01139e-07 1.54224e-07 -0.000998552)
(-6.29039e-07 1.49705e-07 -0.000998749)
(-6.94356e-07 1.44387e-07 -0.000998978)
(-1.33703e-07 1.35464e-06 -0.000998965)
(-3.87787e-07 1.34254e-06 -0.00099905)
(-6.01379e-07 1.31455e-06 -0.000999213)
(-7.53672e-07 1.27608e-06 -0.000999434)
(-8.30038e-07 1.23067e-06 -0.000999692)
(-1.41188e-07 1.23806e-06 -0.00099852)
(-4.0949e-07 1.22611e-06 -0.000998611)
(-6.3506e-07 1.199e-06 -0.000998787)
(-7.95978e-07 1.16184e-06 -0.000999027)
(-8.77199e-07 1.11834e-06 -0.000999306)
(-1.48026e-07 9.93864e-07 -0.00099813)
(-4.29267e-07 9.83688e-07 -0.000998227)
(-6.65665e-07 9.60898e-07 -0.000998416)
(-8.34333e-07 9.2973e-07 -0.000998674)
(-9.19662e-07 8.93288e-07 -0.000998973)
(-1.53264e-07 6.43691e-07 -0.000997841)
(-4.44393e-07 6.3683e-07 -0.000997943)
(-6.89024e-07 6.21595e-07 -0.000998142)
(-8.63576e-07 6.0079e-07 -0.000998413)
(-9.51856e-07 5.7648e-07 -0.000998727)
(-1.55817e-07 2.2244e-07 -0.00099769)
(-4.51744e-07 2.20018e-07 -0.000997795)
(-7.00356e-07 2.14669e-07 -0.000997999)
(-8.77746e-07 2.07367e-07 -0.000998276)
(-9.67436e-07 1.98842e-07 -0.000998599)
(-1.8363e-07 1.87857e-06 -0.000998595)
(-5.32171e-07 1.85912e-06 -0.000998712)
(-8.23895e-07 1.81539e-06 -0.000998936)
(-1.03027e-06 1.75538e-06 -0.000999239)
(-1.13247e-06 1.68454e-06 -0.000999589)
(-1.95523e-07 1.72577e-06 -0.00099797)
(-5.66531e-07 1.70612e-06 -0.000998097)
(-8.77059e-07 1.66292e-06 -0.000998343)
(-1.09703e-06 1.60385e-06 -0.000998675)
(-1.20666e-06 1.53476e-06 -0.00099906)
(-2.06574e-07 1.39184e-06 -0.000997417)
(-5.98391e-07 1.37487e-06 -0.000997555)
(-9.26192e-07 1.33803e-06 -0.000997821)
(-1.15843e-06 1.28783e-06 -0.000998182)
(-1.27434e-06 1.22938e-06 -0.000998599)
(-2.15142e-07 9.0466e-07 -0.000997003)
(-6.23051e-07 8.93137e-07 -0.000997148)
(-9.64113e-07 8.68264e-07 -0.000997431)
(-1.20566e-06 8.34462e-07 -0.000997815)
(-1.32618e-06 7.95282e-07 -0.000998257)
(-2.19396e-07 3.1323e-07 -0.000996786)
(-6.35323e-07 3.09161e-07 -0.000996935)
(-9.82982e-07 3.00377e-07 -0.000997227)
(-1.22904e-06 2.88455e-07 -0.000997622)
(-1.35176e-06 2.74695e-07 -0.000998078)
(-2.52599e-07 2.61064e-06 -0.0009981)
(-7.30944e-07 2.57934e-06 -0.000998261)
(-1.12873e-06 2.51075e-06 -0.000998569)
(-1.40737e-06 2.41679e-06 -0.000998983)
(-1.54298e-06 2.30621e-06 -0.000999459)
(-2.71584e-07 2.41565e-06 -0.000997219)
(-7.85689e-07 2.38316e-06 -0.000997397)
(-1.21318e-06 2.31362e-06 -0.00099774)
(-1.51307e-06 2.21903e-06 -0.000998201)
(-1.66001e-06 2.10892e-06 -0.000998731)
(-2.89675e-07 1.96123e-06 -0.000996426)
(-8.37669e-07 1.93262e-06 -0.000996623)
(-1.29289e-06 1.8722e-06 -0.000997001)
(-1.61207e-06 1.79049e-06 -0.000997509)
(-1.76857e-06 1.69613e-06 -0.000998091)
(-3.03903e-07 1.28126e-06 -0.000995824)
(-8.78521e-07 1.2616e-06 -0.000996035)
(-1.35533e-06 1.22031e-06 -0.000996442)
(-1.68912e-06 1.16475e-06 -0.000996988)
(-1.85256e-06 1.10099e-06 -0.000997612)
(-3.11162e-07 4.4486e-07 -0.000995506)
(-8.99378e-07 4.37863e-07 -0.000995724)
(-1.38709e-06 4.23197e-07 -0.000996147)
(-1.72807e-06 4.03532e-07 -0.000996712)
(-1.89484e-06 3.81039e-07 -0.000997359)
(-3.47938e-07 3.63654e-06 -0.000997446)
(-1.00457e-06 3.58578e-06 -0.00099767)
(-1.5457e-06 3.47744e-06 -0.000998092)
(-1.9198e-06 3.32987e-06 -0.000998655)
(-2.09755e-06 3.157e-06 -0.000999297)
(-3.7868e-07 3.39934e-06 -0.000996195)
(-1.09288e-06 3.34484e-06 -0.000996448)
(-1.68098e-06 3.23136e-06 -0.000996929)
(-2.08792e-06 3.07852e-06 -0.000997568)