FoamFile
{version 2.0; format ascii;class Cloud<passiveParticle>; location 0;object  positions;}
43
(
( -452.023 29.0448 99.7405 ) 0 
( -416.734 479.597 99.8582 ) 0 
( -340.64 294.743 99.895 ) 0 
( -86.7782 441.484 142.335 ) 0 
( -88.3467 53.6243 99.8202 ) 0 
( -498.766 341.599 218.895 ) 0 
( -284.263 445.411 251.373 ) 0 
( -142.122 254.084 99.8999 ) 0 
( -274.932 110.93 142.812 ) 0 
( -448.277 151.98 257.313 ) 0 
( -136.173 106.176 286.584 ) 0 
( -276.052 249.003 287.266 ) 0 
( -27.403 287.047 260.258 ) 0 
( -310.048 75.5301 380.599 ) 0 
( -422.944 409.559 390.799 ) 0 
( -455.285 203.762 450.256 ) 0 
( -139.969 399.066 381.723 ) 0 
( -280.15 498.584 498.756 ) 0 
( -139.087 388.419 587.8 ) 0 
( -429.351 23.2565 532.248 ) 0 
( -282.346 299.345 480.609 ) 0 
( -108.854 202.131 459.809 ) 0 
( -484.207 421.785 580.59 ) 0 
( -57.9557 60.9403 617.705 ) 0 
( -388.302 225.784 637.385 ) 0 
( -247.297 102.026 568.509 ) 0 
( -313.723 405.351 683.7 ) 0 
( -180.527 231.911 705.072 ) 0 
( -497.694 76.818 714.051 ) 0 
( -31.4165 385.411 756.249 ) 0 
( -306.435 23.6355 742.682 ) 0 
( -350.905 212.989 833.373 ) 0 
( -209.158 350.852 863.236 ) 0 
( -121.675 71.7174 809.182 ) 0 
( -46.1981 239.182 894.164 ) 0 
( -258.891 103.089 972.783 ) 0 
( -381.248 452.634 865.876 ) 0 
( -483.367 307.439 957.956 ) 0 
( -477.005 110.623 992.668 ) 0 
( -12.2238 108.486 1045.37 ) 0 
( -98.1427 377.795 1028.6 ) 0 
( -298.287 290.117 1031.63 ) 0 
( -146.808 220.431 1142.03 ) 0 
)
