/*--------------------------------*- C++ -*----------------------------------*\
  =========                 |
  \\      /  F ield         | OpenFOAM: The Open Source CFD Toolbox
   \\    /   O peration     | Website:  https://openfoam.org
    \\  /    A nd           | Version:  9
     \\/     M anipulation  |
\*---------------------------------------------------------------------------*/
FoamFile
{
    format      ascii;
    class       volVectorField;
    location    "9000";
    object      stored_U;
}
// * * * * * * * * * * * * * * * * * * * * * * * * * * * * * * * * * * * * * //

dimensions      [0 1 -1 0 0 0 0];

internalField   nonuniform List<vector> 
720
(
(-2.43011e-10 1.94456e-08 -0.0010001)
(-2.43011e-10 1.80413e-08 -0.00100011)
(-1.64726e-09 1.94455e-08 -0.00099989)
(-1.64726e-09 1.80412e-08 -0.000999911)
(-5.38502e-10 2.35836e-08 -0.0010001)
(-5.38502e-10 2.19062e-08 -0.00100011)
(-2.21588e-09 2.35834e-08 -0.000999888)
(-2.21588e-09 2.1906e-08 -0.00099991)
(-8.75131e-10 3.07288e-08 -0.00100011)
(-8.75131e-10 2.85283e-08 -0.00100011)
(-3.07567e-09 3.07286e-08 -0.000999885)
(-3.07567e-09 2.85281e-08 -0.000999908)
(-1.21144e-09 3.98984e-08 -0.00100011)
(-1.21144e-09 3.70028e-08 -0.00100012)
(-4.10702e-09 3.98981e-08 -0.00099988)
(-4.10702e-09 3.70026e-08 -0.000999905)
(-1.53788e-09 5.04291e-08 -0.00100012)
(-1.53788e-09 4.6698e-08 -0.00100012)
(-5.26893e-09 5.04288e-08 -0.000999875)
(-5.26894e-09 4.66978e-08 -0.000999901)
(-1.85509e-09 6.1958e-08 -0.00100012)
(-1.85509e-09 5.72639e-08 -0.00100013)
(-6.54912e-09 6.19577e-08 -0.000999869)
(-6.54913e-09 5.72636e-08 -0.000999897)
(-2.16253e-09 7.43482e-08 -0.00100013)
(-2.16253e-09 6.85594e-08 -0.00100013)
(-7.95133e-09 7.43479e-08 -0.000999861)
(-7.95133e-09 6.85591e-08 -0.000999891)
(-2.45689e-09 8.76065e-08 -0.00100014)
(-2.45689e-09 8.05737e-08 -0.00100014)
(-9.48961e-09 8.7606e-08 -0.000999851)
(-9.48961e-09 8.05734e-08 -0.000999884)
(-2.73401e-09 1.01819e-07 -0.00100015)
(-2.73402e-09 9.3369e-08 -0.00100015)
(-1.1184e-08 1.01819e-07 -0.00099984)
(-1.1184e-08 9.33686e-08 -0.000999877)
(-2.98933e-09 1.17115e-07 -0.00100016)
(-2.98933e-09 1.07045e-07 -0.00100016)
(-1.3059e-08 1.17114e-07 -0.000999827)
(-1.3059e-08 1.07045e-07 -0.000999868)
(-3.2178e-09 1.33648e-07 -0.00100017)
(-3.2178e-09 1.21723e-07 -0.00100017)
(-1.51423e-08 1.33647e-07 -0.000999812)
(-1.51424e-08 1.21722e-07 -0.000999858)
(-3.41364e-09 1.51589e-07 -0.00100018)
(-3.41364e-09 1.37537e-07 -0.00100019)
(-1.74655e-08 1.51588e-07 -0.000999796)
(-1.74655e-08 1.37536e-07 -0.000999846)
(-3.56989e-09 1.71127e-07 -0.0010002)
(-3.56989e-09 1.54634e-07 -0.0010002)
(-2.00632e-08 1.71126e-07 -0.000999777)
(-2.00632e-08 1.54633e-07 -0.000999833)
(-3.67813e-09 1.92468e-07 -0.00100022)
(-3.67813e-09 1.73171e-07 -0.00100022)
(-2.29746e-08 1.92467e-07 -0.000999755)
(-2.29746e-08 1.7317e-07 -0.000999819)
(-3.72795e-09 2.15837e-07 -0.00100024)
(-3.72796e-09 1.93321e-07 -0.00100024)
(-2.62434e-08 2.15836e-07 -0.000999732)
(-2.62434e-08 1.9332e-07 -0.000999803)
(-3.70659e-09 2.41482e-07 -0.00100026)
(-3.70659e-09 2.15269e-07 -0.00100026)
(-2.99189e-08 2.4148e-07 -0.000999705)
(-2.99189e-08 2.15268e-07 -0.000999785)
(-3.59839e-09 2.69676e-07 -0.00100029)
(-3.59839e-09 2.39217e-07 -0.00100028)
(-3.40567e-08 2.69673e-07 -0.000999675)
(-3.40567e-08 2.39215e-07 -0.000999765)
(-3.38429e-09 3.00718e-07 -0.00100032)
(-3.3843e-09 2.65382e-07 -0.00100031)
(-3.87198e-08 3.00715e-07 -0.000999641)
(-3.87199e-08 2.6538e-07 -0.000999743)
(-3.0408e-09 3.34942e-07 -0.00100035)
(-3.04081e-09 2.94002e-07 -0.00100034)
(-4.39798e-08 3.34938e-07 -0.000999604)
(-4.39799e-08 2.94e-07 -0.000999719)
(-2.53905e-09 3.72714e-07 -0.00100039)
(-2.53907e-09 3.25335e-07 -0.00100037)
(-4.99179e-08 3.7271e-07 -0.000999563)
(-4.9918e-08 3.25332e-07 -0.000999692)
(-1.84361e-09 4.14444e-07 -0.00100043)
(-1.84364e-09 3.5966e-07 -0.00100041)
(-5.66268e-08 4.14439e-07 -0.000999516)
(-5.66269e-08 3.59657e-07 -0.000999663)
(-9.11526e-10 4.60584e-07 -0.00100047)
(-9.11556e-10 3.97282e-07 -0.00100045)
(-6.42119e-08 4.60578e-07 -0.000999465)
(-6.4212e-08 3.97278e-07 -0.000999631)
(3.08209e-10 5.11636e-07 -0.00100052)
(3.08168e-10 4.38532e-07 -0.00100049)
(-7.27934e-08 5.11629e-07 -0.000999407)
(-7.27936e-08 4.38528e-07 -0.000999595)
(1.88032e-09 5.68161e-07 -0.00100058)
(1.88027e-09 4.83769e-07 -0.00100054)
(-8.25088e-08 5.68152e-07 -0.000999343)
(-8.2509e-08 4.83764e-07 -0.000999556)
(3.87498e-09 6.30778e-07 -0.00100064)
(3.87491e-09 5.33386e-07 -0.00100059)
(-9.35146e-08 6.30768e-07 -0.000999272)
(-9.3515e-08 5.33379e-07 -0.000999513)
(6.37505e-09 7.00179e-07 -0.00100071)
(6.37495e-09 5.87811e-07 -0.00100065)
(-1.0599e-07 7.00166e-07 -0.000999192)
(-1.0599e-07 5.87802e-07 -0.000999466)
(9.47854e-09 7.7713e-07 -0.00100079)
(9.47842e-09 6.47508e-07 -0.00100071)
(-1.20139e-07 7.77114e-07 -0.000999104)
(-1.2014e-07 6.47498e-07 -0.000999415)
(1.32901e-08 8.62481e-07 -0.00100087)
(1.32899e-08 7.12991e-07 -0.00100078)
(-1.36195e-07 8.62461e-07 -0.000999006)
(-1.36196e-07 7.12978e-07 -0.000999358)
(1.79391e-08 9.57182e-07 -0.00100097)
(1.79389e-08 7.84811e-07 -0.00100086)
(-1.54424e-07 9.57157e-07 -0.000998896)
(-1.54425e-07 7.84796e-07 -0.000999297)
(2.35813e-08 1.06229e-06 -0.00100107)
(2.3581e-08 8.6357e-07 -0.00100094)
(-1.75131e-07 1.06226e-06 -0.000998774)
(-1.75132e-07 8.63552e-07 -0.000999229)
(3.0401e-08 1.17899e-06 -0.00100119)
(3.04006e-08 9.49916e-07 -0.00100104)
(-1.98661e-07 1.17895e-06 -0.000998638)
(-1.98663e-07 9.49895e-07 -0.000999155)
(3.86152e-08 1.3086e-06 -0.00100132)
(3.86146e-08 1.04456e-06 -0.00100114)
(-2.25411e-07 1.30855e-06 -0.000998486)
(-2.25413e-07 1.04453e-06 -0.000999075)
(4.84787e-08 1.45259e-06 -0.00100147)
(4.8478e-08 1.14826e-06 -0.00100124)
(-2.55832e-07 1.45253e-06 -0.000998318)
(-2.55835e-07 1.14823e-06 -0.000998987)
(6.02901e-08 1.6126e-06 -0.00100163)
(6.02891e-08 1.26184e-06 -0.00100136)
(-2.9044e-07 1.61252e-06 -0.00099813)
(-2.90444e-07 1.26181e-06 -0.000998892)
(7.43994e-08 1.79047e-06 -0.00100182)
(7.43981e-08 1.38621e-06 -0.00100149)
(-3.29823e-07 1.79037e-06 -0.000997921)
(-3.29828e-07 1.38617e-06 -0.000998788)
(9.12151e-08 1.98824e-06 -0.00100202)
(9.12133e-08 1.52233e-06 -0.00100164)
(-3.74653e-07 1.98813e-06 -0.000997687)
(-3.7466e-07 1.52227e-06 -0.000998675)
(1.11191e-07 2.20819e-06 -0.00100225)
(1.11189e-07 1.67125e-06 -0.00100179)
(-4.25698e-07 2.20805e-06 -0.000997427)
(-4.25706e-07 1.67119e-06 -0.000998552)
(1.34846e-07 2.45287e-06 -0.0010025)
(1.34842e-07 1.83413e-06 -0.00100196)
(-4.83833e-07 2.4527e-06 -0.000997137)
(-4.83844e-07 1.83405e-06 -0.000998419)
(1.62786e-07 2.72511e-06 -0.00100278)
(1.62782e-07 2.01218e-06 -0.00100215)
(-5.50059e-07 2.7249e-06 -0.000996814)
(-5.50074e-07 2.01209e-06 -0.000998274)
(1.95725e-07 3.02809e-06 -0.0010031)
(1.95719e-07 2.20675e-06 -0.00100235)
(-6.2552e-07 3.02783e-06 -0.000996453)
(-6.2554e-07 2.20663e-06 -0.000998118)
(2.34488e-07 3.36537e-06 -0.00100345)
(2.3448e-07 2.41923e-06 -0.00100257)
(-7.1152e-07 3.36504e-06 -0.000996051)
(-7.11547e-07 2.41909e-06 -0.000997949)
(2.80038e-07 3.74093e-06 -0.00100384)
(2.80027e-07 2.65117e-06 -0.00100281)
(-8.0955e-07 3.74052e-06 -0.000995602)
(-8.09585e-07 2.651e-06 -0.000997766)
(3.33494e-07 4.15921e-06 -0.00100428)
(3.33479e-07 2.90419e-06 -0.00100307)
(-9.21313e-07 4.1587e-06 -0.000995101)
(-9.2136e-07 2.90399e-06 -0.000997569)
(3.96151e-07 4.62521e-06 -0.00100477)
(3.96132e-07 3.18003e-06 -0.00100335)
(-1.04875e-06 4.62457e-06 -0.000994541)
(-1.04882e-06 3.17979e-06 -0.000997356)
(4.69515e-07 5.14451e-06 -0.00100531)
(4.69488e-07 3.48055e-06 -0.00100366)
(-1.19409e-06 5.14371e-06 -0.000993916)
(-1.19417e-06 3.48026e-06 -0.000997128)
(5.55326e-07 5.72337e-06 -0.00100592)
(5.55291e-07 3.80772e-06 -0.00100399)
(-1.35987e-06 5.72237e-06 -0.000993219)
(-1.35998e-06 3.80737e-06 -0.000996882)
(6.55603e-07 6.3688e-06 -0.00100661)
(6.55556e-07 4.16363e-06 -0.00100435)
(-1.54898e-06 6.36755e-06 -0.000992439)
(-1.54913e-06 4.16322e-06 -0.000996619)
(7.72682e-07 7.08866e-06 -0.00100737)
(7.72618e-07 4.5505e-06 -0.00100473)
(-1.76474e-06 7.0871e-06 -0.000991567)
(-1.76493e-06 4.55e-06 -0.000996338)
(9.09263e-07 7.89178e-06 -0.00100823)
(9.09178e-07 4.97064e-06 -0.00100515)
(-2.01094e-06 7.88983e-06 -0.000990592)
(-2.01119e-06 4.97004e-06 -0.000996038)
(1.06847e-06 8.78805e-06 -0.00100919)
(1.06836e-06 5.42649e-06 -0.0010056)
(-2.29188e-06 8.78561e-06 -0.000989502)
(-2.29221e-06 5.42579e-06 -0.000995718)
(1.25391e-06 9.78857e-06 -0.00101026)
(1.25376e-06 5.92062e-06 -0.00100609)
(-2.61251e-06 9.78552e-06 -0.000988282)
(-2.61295e-06 5.91977e-06 -0.000995378)
(1.46976e-06 1.09058e-05 -0.00101147)
(1.46955e-06 6.45565e-06 -0.00100661)
(-2.97845e-06 1.0902e-05 -0.000986918)
(-2.97903e-06 6.45465e-06 -0.000995019)
(1.72082e-06 1.21538e-05 -0.00101281)
(1.72054e-06 7.03434e-06 -0.00100717)
(-3.39614e-06 1.2149e-05 -0.00098539)
(-3.39692e-06 7.03315e-06 -0.000994639)
(2.01264e-06 1.35483e-05 -0.00101433)
(2.01227e-06 7.65949e-06 -0.00100776)
(-3.87292e-06 1.35422e-05 -0.000983679)
(-3.87395e-06 7.65807e-06 -0.000994239)
(2.35163e-06 1.51068e-05 -0.00101602)
(2.35113e-06 8.33397e-06 -0.0010084)
(-4.41716e-06 1.50993e-05 -0.000981763)
(-4.41852e-06 8.33228e-06 -0.00099382)
(2.74515e-06 1.68495e-05 -0.00101793)
(2.74448e-06 9.06066e-06 -0.00100908)
(-5.03843e-06 1.684e-05 -0.000979615)
(-5.04022e-06 9.05866e-06 -0.000993383)
(3.20171e-06 1.87985e-05 -0.00102006)
(3.20082e-06 9.84247e-06 -0.0010098)
(-5.7476e-06 1.87865e-05 -0.000977209)
(-5.74998e-06 9.84008e-06 -0.00099293)
(3.73108e-06 2.0979e-05 -0.00102246)
(3.72988e-06 1.06822e-05 -0.00101057)
(-6.55712e-06 2.09639e-05 -0.000974512)
(-6.56028e-06 1.06794e-05 -0.000992462)
(4.34451e-06 2.34193e-05 -0.00102516)
(4.34291e-06 1.15827e-05 -0.00101138)
(-7.48115e-06 2.34003e-05 -0.000971487)
(-7.48533e-06 1.15793e-05 -0.000991982)
(5.05494e-06 2.61512e-05 -0.00102818)
(5.05279e-06 1.25466e-05 -0.00101223)
(-8.53582e-06 2.61272e-05 -0.000968094)
(-8.54136e-06 1.25425e-05 -0.000991494)
(5.87722e-06 2.92107e-05 -0.00103159)
(5.87435e-06 1.35762e-05 -0.00101313)
(-9.73952e-06 2.91804e-05 -0.000964288)
(-9.74686e-06 1.35713e-05 -0.000991002)
(6.82841e-06 3.26379e-05 -0.00103541)
(6.82457e-06 1.46737e-05 -0.00101406)
(-1.11132e-05 3.25997e-05 -0.000960016)
(-1.11229e-05 1.46679e-05 -0.000990512)
(7.9281e-06 3.64785e-05 -0.00103971)
(7.92296e-06 1.5841e-05 -0.00101504)
(-1.26805e-05 3.64301e-05 -0.000955222)
(-1.26934e-05 1.5834e-05 -0.00099003)
(9.19871e-06 4.07837e-05 -0.00104455)
(9.19184e-06 1.70794e-05 -0.00101605)
(-1.44687e-05 4.07224e-05 -0.000949839)
(-1.44858e-05 1.7071e-05 -0.000989564)
(1.06659e-05 4.5611e-05 -0.00104999)
(1.06568e-05 1.83896e-05 -0.00101709)
(-1.65084e-05 4.55333e-05 -0.000943794)
(-1.6531e-05 1.83794e-05 -0.000989123)
(1.23592e-05 5.10256e-05 -0.00105611)
(1.23469e-05 1.97719e-05 -0.00101816)
(-1.88344e-05 5.0927e-05 -0.000937006)
(-1.88644e-05 1.97595e-05 -0.000988718)
(1.4312e-05 5.71007e-05 -0.00106301)
(1.42955e-05 2.12257e-05 -0.00101925)
(-2.14862e-05 5.69755e-05 -0.00092938)
(-2.15259e-05 2.12106e-05 -0.00098836)
(1.65624e-05 6.39183e-05 -0.00107077)
(1.65404e-05 2.27497e-05 -0.00102036)
(-2.45081e-05 6.37591e-05 -0.000920811)
(-2.45608e-05 2.27311e-05 -0.00098806)
(1.91535e-05 7.15693e-05 -0.00107951)
(1.91238e-05 2.43414e-05 -0.00102147)
(-2.79495e-05 7.13666e-05 -0.000911184)
(-2.80191e-05 2.43185e-05 -0.000987833)
(2.21325e-05 8.0151e-05 -0.00108935)
(2.2092e-05 2.59963e-05 -0.00102259)
(-3.18635e-05 7.98924e-05 -0.000900366)
(-3.19554e-05 2.59681e-05 -0.000987702)
(2.55486e-05 8.97563e-05 -0.00110044)
(2.54923e-05 2.77048e-05 -0.00102368)
(-3.63026e-05 8.94259e-05 -0.000888216)
(-3.64232e-05 2.76707e-05 -0.000987706)
(2.94438e-05 0.000100443 -0.00111292)
(2.93628e-05 2.94448e-05 -0.00102469)
(-4.13054e-05 0.00010002 -0.000874568)
(-4.14613e-05 2.94052e-05 -0.000987876)
(3.38244e-05 0.000112151 -0.00112687)
(3.37032e-05 3.11703e-05 -0.00102553)
(-4.68587e-05 0.000111615 -0.000859212)
(-4.70539e-05 3.11287e-05 -0.000988183)
(3.8593e-05 0.00012453 -0.00114231)
(3.84061e-05 3.27884e-05 -0.00102609)
(-5.28174e-05 0.000123864 -0.00084194)
(-5.30459e-05 3.27535e-05 -0.000988632)
(4.34141e-05 0.000136611 -0.00115974)
(4.31259e-05 3.41235e-05 -0.00102677)
(-5.87609e-05 0.000135827 -0.00082296)
(-5.89937e-05 3.41113e-05 -0.000989847)
(4.75128e-05 0.000146378 -0.00118137)
(4.70878e-05 3.48923e-05 -0.00102942)
(-6.37867e-05 0.000145557 -0.00080369)
(-6.3957e-05 3.49227e-05 -0.000993573)
(4.94577e-05 0.00015035 -0.00120798)
(4.88663e-05 3.48224e-05 -0.00103453)
(-6.62397e-05 0.000149737 -0.000785459)
(-6.6156e-05 3.49071e-05 -0.00099809)
(4.72601e-05 0.000143846 -0.00121904)
(4.66293e-05 3.38167e-05 -0.00102506)
(-6.32953e-05 0.000143566 -0.000758649)
(-6.29436e-05 3.39222e-05 -0.000982731)
(3.81976e-05 0.000120211 -0.00116611)
(3.77593e-05 3.25221e-05 -0.000966056)
(-5.0559e-05 0.000120725 -0.000701424)
(-5.00324e-05 3.25949e-05 -0.000910843)
(2.00046e-05 7.4607e-05 -0.000948427)
(2.00277e-05 3.27893e-05 -0.000804863)
(-2.28151e-05 7.54506e-05 -0.000553519)
(-2.20821e-05 3.25111e-05 -0.000884361)
(-1.29119e-05 1.2243e-06 -0.00346654)
(-1.08175e-05 1.83613e-05 -0.00285893)
(5.41932e-06 5.61448e-08 -0.00192465)
(2.17371e-06 1.87756e-05 -0.0026474)
(-2.92716e-05 1.12904e-05 -6.90522e-05)
(-2.1726e-05 -5.50611e-06 -6.14949e-05)
(-4.27608e-05 4.67735e-06 -7.23105e-05)
(-7.22076e-05 1.04427e-05 -0.000117864)
(-0.000343625 0.000125048 -0.00405303)
(-0.000180913 0.000283005 -0.00340153)
(2.06595e-05 8.68091e-05 -0.00271873)
(4.21101e-05 0.0004662 -0.00340967)
(-3.45784e-05 1.77952e-05 -0.000495766)
(-6.9258e-05 0.000103221 -0.0026626)
(-7.54231e-05 -1.12437e-05 -0.000198795)
(-7.86417e-05 -6.49892e-06 -0.00019888)
(-0.000433859 -0.000222745 -0.00432941)
(-3.89494e-05 -8.88076e-06 -0.00119559)
(-0.000164746 -9.05301e-05 -0.00371861)
(-0.000154364 -6.08662e-05 -0.00362097)
(-2.84314e-05 2.1332e-05 -0.000242176)
(-0.000280895 6.89085e-05 -0.00505189)
(-0.000136539 -2.85496e-05 -0.000277911)
(-7.47425e-05 4.38691e-05 -0.00388039)
(-0.000710282 -0.000435804 -0.00465676)
(-2.94987e-05 -1.70924e-05 -0.000484989)
(-0.000171283 -0.000234473 -0.00321966)
(-0.000122671 -4.62864e-05 -0.000442197)
(-0.000348233 -0.000204073 -0.00442572)
(-0.000935465 -0.000347627 -0.00434209)
(-0.00023652 -0.000176616 -0.0012842)
(-0.000370509 -0.000170411 -0.00363637)
(-4.20873e-05 4.99545e-05 -0.000986608)
(-3.25437e-05 -9.12775e-05 -0.000229153)
(-0.000427904 0.000180805 -0.00250918)
(-0.000402329 -0.000157009 -0.00352571)
(0.000238698 0.000356877 -0.00494853)
(0.000714578 -0.000950845 -0.00374444)
(-0.000104687 -1.69003e-05 -0.000141402)
(-0.0001415 -4.07183e-05 -0.00035009)
(0.000199332 5.12524e-05 -0.00138149)
(-6.94521e-06 -0.000110112 -0.000166555)
(-9.9978e-05 7.37627e-05 -0.00487879)
(-0.00026734 -0.00074015 -0.00284878)
(0.000754778 -0.000431102 -0.00423058)
(0.000527601 -0.0005377 -0.00412084)
(1.1556e-06 -5.91393e-05 -0.000946457)
(0.000171492 -0.000391772 -0.00396957)
(-8.0887e-05 -4.17031e-05 -0.000122977)
(0.000171368 -0.000286788 -0.00142377)
(0.000105966 -0.00024439 -0.00219526)
(-5.20044e-05 -9.26465e-05 -0.000397113)
(0.000508118 -0.000199105 -0.0051909)
(0.000355433 -0.000696006 -0.00479476)
(-0.000255598 -0.000181021 -0.00300227)
(-0.000258863 -0.000817579 -0.00484144)
(0.000114826 -0.000194389 -0.002754)
(-4.16825e-05 -0.00012083 -0.00052391)
(-5.57223e-05 -6.75856e-05 2.83793e-05)
(-0.000196867 -0.000960698 -0.00356625)
(6.66138e-05 -0.000116147 -0.00244923)
(0.00013439 -0.000385872 -0.00303077)
(-0.000132499 -0.000255275 -0.00355664)
(-6.94676e-05 -9.92223e-05 -0.000285242)
(0.00030331 -7.62348e-05 -0.00372345)
(0.000419251 -0.000770297 -0.00240288)
(-6.10525e-05 -0.000103716 -0.000667406)
(-0.000377917 -0.00116363 -0.00516551)
(0.000242651 -5.91596e-05 -0.00269121)
(-8.42642e-06 -8.46451e-05 -5.94858e-05)
(-7.32598e-05 -0.000122566 -0.00191465)
(-6.61293e-05 -5.30609e-05 -0.000545756)
(1.69069e-05 3.22036e-05 -0.00245951)
(4.60888e-05 -8.50357e-05 -0.00444191)
(-0.000189291 1.24442e-05 -0.00261056)
(-0.000232585 -0.000190079 -0.00433741)
(-0.000241872 -5.08267e-05 -0.00396394)
(4.25688e-06 4.33055e-06 -0.000754888)
(-0.000100602 -6.02945e-05 0.000110095)
(-0.000115088 5.69163e-05 -0.00257144)
(-0.000144526 -0.000108099 -0.00178621)
(-0.000165821 0.000206153 -0.00246266)
(9.61913e-05 -0.000167183 -0.00288691)
(0.000530906 0.000567427 -0.00510945)
(-8.3801e-05 -0.00011341 -0.00346802)
(-9.69e-05 0.000179281 -0.00121309)
(8.43245e-05 -0.000124564 -0.00104288)
(7.51899e-05 -2.46317e-05 -0.000261914)
(-0.000116792 -0.000145662 -0.0027981)
(-0.00014768 -9.19802e-06 -0.0012587)
(3.66523e-05 -0.0002689 -0.00118188)
(3.98303e-05 -1.25938e-05 -0.00435807)
(-9.21075e-06 -1.65656e-05 -0.00112422)
(-7.82249e-05 2.03265e-05 -0.000998106)
(0.00011087 -0.000264558 -0.00086292)
(7.40142e-05 4.06167e-05 -0.00151524)
(1.32566e-05 2.07358e-07 -0.00185535)
(-2.56988e-05 6.46164e-05 -0.000903202)
(0.00011881 -0.000125483 -0.000748106)
(0.000106177 9.4465e-05 -0.00145886)
(-2.67331e-05 -3.49474e-05 -0.00106244)
(-5.18623e-05 0.000104983 -0.000841109)
(0.000145861 -0.000108129 -0.000802994)
(0.000133796 0.000126282 -0.0013549)
(-4.93746e-05 -5.52453e-05 -0.00107312)
(-6.37864e-05 0.000125999 -0.000813194)
(0.000152763 -9.46154e-05 -0.000803548)
(0.000145512 0.000135421 -0.0012776)
(-5.57583e-05 -6.06929e-05 -0.00109103)
(-6.33611e-05 0.000130401 -0.000828715)
(0.000147329 -8.03971e-05 -0.000822597)
(0.000143386 0.000132354 -0.00124162)
(-5.39812e-05 -5.84983e-05 -0.00108349)
(-5.7578e-05 0.000124713 -0.000853082)
(0.000135508 -6.76256e-05 -0.000845321)
(0.000133391 0.000123796 -0.00121763)
(-4.85789e-05 -5.29164e-05 -0.00106808)
(-5.01848e-05 0.000114229 -0.00087367)
(0.000121557 -5.6901e-05 -0.000865657)
(0.000120359 0.000112858 -0.00119411)
(-4.20076e-05 -4.62036e-05 -0.00105503)
(-4.27267e-05 0.000102251 -0.000890706)
(0.000107745 -4.78826e-05 -0.000883087)
(0.000107002 0.000101192 -0.00117165)
(-3.55083e-05 -3.95084e-05 -0.0010448)
(-3.58583e-05 9.04966e-05 -0.000905459)
(9.50127e-05 -4.0221e-05 -0.000898239)
(9.45079e-05 8.98004e-05 -0.00115148)
(-2.96262e-05 -3.33704e-05 -0.00103636)
(-2.98222e-05 7.96887e-05 -0.000918362)
(8.36218e-05 -3.36945e-05 -0.000911501)
(8.32573e-05 7.92396e-05 -0.00113374)
(-2.45208e-05 -2.79771e-05 -0.0010292)
(-2.46458e-05 7.00358e-05 -0.000929568)
(7.35563e-05 -2.81447e-05 -0.000923098)
(7.32847e-05 6.97333e-05 -0.00111813)
(-2.01742e-05 -2.33378e-05 -0.00102316)
(-2.02606e-05 6.15201e-05 -0.000939253)
(6.47044e-05 -2.34378e-05 -0.000933228)
(6.44991e-05 6.13055e-05 -0.00110438)
(-1.65074e-05 -1.93908e-05 -0.0010181)
(-1.65694e-05 5.40434e-05 -0.000947612)
(5.69334e-05 -1.9457e-05 -0.000942052)
(5.67773e-05 5.38853e-05 -0.00109225)
(-1.34281e-05 -1.60498e-05 -0.00101391)
(-1.34731e-05 4.74891e-05 -0.000954827)
(5.0113e-05 -1.60963e-05 -0.000949711)
(4.99941e-05 4.73702e-05 -0.00108156)
(-1.08503e-05 -1.32301e-05 -0.00101046)
(-1.0883e-05 4.1745e-05 -0.000961054)
(4.41258e-05 -1.32635e-05 -0.000956356)
(4.4035e-05 4.16548e-05 -0.00107214)
(-8.69834e-06 -1.08558e-05 -0.00100764)
(-8.72223e-06 3.67102e-05 -0.000966428)
(3.88682e-05 -1.088e-05 -0.00096212)
(3.87989e-05 3.66415e-05 -0.00106382)
(-6.90739e-06 -8.86095e-06 -0.00100533)
(-6.92477e-06 3.22957e-05 -0.000971066)
(3.42496e-05 -8.87855e-06 -0.000967121)
(3.41967e-05 3.22433e-05 -0.00105649)
(-5.42182e-06 -7.18874e-06 -0.00100347)
(-5.43443e-06 2.84237e-05 -0.000975068)
(3.01909e-05 -7.20152e-06 -0.00097146)
(3.01505e-05 2.83837e-05 -0.00105001)
(-4.19418e-06 -5.79051e-06 -0.00100197)
(-4.20332e-06 2.50263e-05 -0.00097852)
(2.66229e-05 -5.79978e-06 -0.000975225)
(2.6592e-05 2.49958e-05 -0.0010443)
(-3.18405e-06 -4.62462e-06 -0.00100077)
(-3.19066e-06 2.20443e-05 -0.000981499)
(2.34851e-05 -4.63132e-06 -0.000978493)
(2.34614e-05 2.20209e-05 -0.00103925)
(-2.35704e-06 -3.65552e-06 -0.000999831)
(-2.3618e-06 1.94259e-05 -0.000984069)
(2.07245e-05 -3.66036e-06 -0.000981328)
(2.07065e-05 1.9408e-05 -0.00103479)
(-1.6839e-06 -2.85287e-06 -0.000999098)
(-1.68733e-06 1.7126e-05 -0.000986286)
(1.82951e-05 -2.85635e-06 -0.000983789)
(1.82812e-05 1.71123e-05 -0.00103084)
(-1.13981e-06 -2.19081e-06 -0.000998538)
(-1.14227e-06 1.51051e-05 -0.000988198)
(1.61562e-05 -2.19331e-06 -0.000985925)
(1.61456e-05 1.50946e-05 -0.00102736)
(-7.03583e-07 -1.64726e-06 -0.000998124)
(-7.05338e-07 1.33287e-05 -0.000989845)
(1.42725e-05 -1.64905e-06 -0.00098778)
(1.42644e-05 1.33207e-05 -0.00102427)
(-3.56811e-07 -1.2032e-06 -0.000997831)
(-3.58061e-07 1.17665e-05 -0.000991259)
(1.26129e-05 -1.20447e-06 -0.000989391)
(1.26067e-05 1.17603e-05 -0.00102154)
(-8.40005e-08 -8.4251e-07 -0.000997635)
(-8.48865e-08 1.03919e-05 -0.000992475)
(1.11504e-05 -8.43417e-07 -0.00099079)
(1.11456e-05 1.03871e-05 -0.00101913)
(1.27825e-07 -5.51573e-07 -0.000997517)
(1.272e-07 9.18171e-06 -0.00099352)
(9.86114e-06 -5.52214e-07 -0.000992005)
(9.85747e-06 9.17809e-06 -0.00101699)
(2.89513e-07 -3.18883e-07 -0.000997459)
(2.89074e-07 8.11582e-06 -0.000994419)
(8.72425e-06 -3.19334e-07 -0.000993061)
(8.72142e-06 8.11304e-06 -0.00101509)
(4.10156e-07 -1.34688e-07 -0.000997452)
(4.09849e-07 7.17657e-06 -0.000995193)
(7.72144e-06 -1.35003e-07 -0.000993977)
(7.71926e-06 7.17443e-06 -0.00101341)
(4.97472e-07 9.50248e-09 -0.000997484)
(4.97259e-07 6.34853e-06 -0.000995858)
(6.83651e-06 9.28331e-09 -0.00099477)
(6.83484e-06 6.34688e-06 -0.00101192)
(5.57912e-07 1.20873e-07 -0.000997546)
(5.57765e-07 5.6182e-06 -0.000996431)
(6.05526e-06 1.20722e-07 -0.000995457)
(6.05397e-06 5.61694e-06 -0.0010106)
(5.96811e-07 2.054e-07 -0.00099763)
(5.96711e-07 4.97379e-06 -0.000996925)
(5.36522e-06 2.05296e-07 -0.000996052)
(5.36423e-06 4.97282e-06 -0.00100943)
(6.1856e-07 2.68036e-07 -0.00099773)
(6.18491e-07 4.40495e-06 -0.00099735)
(4.75549e-06 2.67966e-07 -0.000996567)
(4.75472e-06 4.40421e-06 -0.00100839)
(6.26775e-07 3.12893e-07 -0.000997839)
(6.26729e-07 3.90262e-06 -0.000997716)
(4.21651e-06 3.12846e-07 -0.000997015)
(4.21592e-06 3.90205e-06 -0.00100746)
(6.24443e-07 3.43392e-07 -0.000997955)
(6.24412e-07 3.45884e-06 -0.000998031)
(3.73989e-06 3.4336e-07 -0.000997403)
(3.73944e-06 3.45839e-06 -0.00100664)
(6.14022e-07 3.62374e-07 -0.000998074)
(6.14001e-07 3.06661e-06 -0.000998302)
(3.31827e-06 3.62352e-07 -0.00099774)
(3.31792e-06 3.06627e-06 -0.00100591)
(5.97526e-07 3.72199e-07 -0.000998193)
(5.97513e-07 2.71981e-06 -0.000998536)
(2.94515e-06 3.72184e-07 -0.000998032)
(2.94487e-06 2.71955e-06 -0.00100527)
(5.76593e-07 3.74824e-07 -0.000998312)
(5.76583e-07 2.41305e-06 -0.000998737)
(2.61482e-06 3.74814e-07 -0.000998286)
(2.61462e-06 2.41285e-06 -0.00100469)
(5.52527e-07 3.71854e-07 -0.000998427)
(5.5252e-07 2.14161e-06 -0.000998911)
(2.32228e-06 3.71848e-07 -0.000998507)
(2.32212e-06 2.14145e-06 -0.00100418)
(5.26367e-07 3.64594e-07 -0.000998538)
(5.26363e-07 1.90133e-06 -0.00099906)
(2.0631e-06 3.6459e-07 -0.000998699)
(2.06298e-06 1.90121e-06 -0.00100372)
(4.98945e-07 3.54098e-07 -0.000998644)
(4.98942e-07 1.68856e-06 -0.000999189)
(1.83341e-06 3.54095e-07 -0.000998866)
(1.83331e-06 1.68847e-06 -0.00100332)
(4.70924e-07 3.41232e-07 -0.000998746)
(4.70922e-07 1.50008e-06 -0.000999301)
(1.62978e-06 3.4123e-07 -0.000999011)
(1.6297e-06 1.50001e-06 -0.00100296)
(4.42829e-07 3.26703e-07 -0.000998842)
(4.42827e-07 1.33307e-06 -0.000999397)
(1.44919e-06 3.26702e-07 -0.000999137)
(1.44914e-06 1.33301e-06 -0.00100264)
(4.15066e-07 3.11084e-07 -0.000998932)
(4.15064e-07 1.18501e-06 -0.00099948)
(1.289e-06 3.11083e-07 -0.000999247)
(1.28895e-06 1.18497e-06 -0.00100235)
(3.87943e-07 2.94832e-07 -0.000999017)
(3.87942e-07 1.05372e-06 -0.000999551)
(1.14684e-06 2.94831e-07 -0.000999343)
(1.1468e-06 1.05369e-06 -0.0010021)
(3.6169e-07 2.78308e-07 -0.000999096)
(3.61689e-07 9.37263e-07 -0.000999613)
(1.02064e-06 2.78308e-07 -0.000999427)
(1.02062e-06 9.37237e-07 -0.00100187)
(3.36472e-07 2.61798e-07 -0.000999171)
(3.36472e-07 8.3392e-07 -0.000999666)
(9.08594e-07 2.61798e-07 -0.0009995)
(9.08573e-07 8.339e-07 -0.00100167)
(3.12402e-07 2.45522e-07 -0.000999239)
(3.12402e-07 7.42191e-07 -0.000999712)
(8.09072e-07 2.45521e-07 -0.000999563)
(8.09055e-07 7.42175e-07 -0.00100149)
(2.89552e-07 2.29645e-07 -0.000999303)
(2.89551e-07 6.60746e-07 -0.000999752)
(7.20652e-07 2.29645e-07 -0.000999619)
(7.2064e-07 6.60733e-07 -0.00100133)
(2.67958e-07 2.14292e-07 -0.000999363)
(2.67957e-07 5.88413e-07 -0.000999786)
(6.42078e-07 2.14292e-07 -0.000999667)
(6.42069e-07 5.88403e-07 -0.00100119)
(2.47632e-07 1.99551e-07 -0.000999418)
(2.47632e-07 5.24157e-07 -0.000999816)
(5.72239e-07 1.99551e-07 -0.000999709)
(5.72231e-07 5.2415e-07 -0.00100106)
(2.28567e-07 1.85481e-07 -0.000999468)
(2.28566e-07 4.67065e-07 -0.000999842)
(5.1015e-07 1.85481e-07 -0.000999746)
(5.10144e-07 4.67059e-07 -0.00100095)
(2.10736e-07 1.7212e-07 -0.000999515)
(2.10736e-07 4.16329e-07 -0.000999864)
(4.54945e-07 1.7212e-07 -0.000999778)
(4.5494e-07 4.16324e-07 -0.00100085)
(1.94105e-07 1.59486e-07 -0.000999557)
(1.94105e-07 3.71235e-07 -0.000999883)
(4.05854e-07 1.59486e-07 -0.000999807)
(4.0585e-07 3.71232e-07 -0.00100076)
(1.78628e-07 1.47585e-07 -0.000999597)
(1.78628e-07 3.31154e-07 -0.0009999)
(3.62197e-07 1.47585e-07 -0.000999831)
(3.62195e-07 3.31151e-07 -0.00100068)
(1.64257e-07 1.3641e-07 -0.000999633)
(1.64257e-07 2.95526e-07 -0.000999914)
(3.23374e-07 1.3641e-07 -0.000999853)
(3.23371e-07 2.95524e-07 -0.00100061)
(1.50938e-07 1.25948e-07 -0.000999666)
(1.50938e-07 2.63859e-07 -0.000999926)
(2.88849e-07 1.25948e-07 -0.000999872)
(2.88847e-07 2.63857e-07 -0.00100054)
(1.38615e-07 1.16178e-07 -0.000999696)
(1.38615e-07 2.35713e-07 -0.000999937)
(2.58151e-07 1.16178e-07 -0.000999888)
(2.58149e-07 2.35712e-07 -0.00100048)
(1.27233e-07 1.07076e-07 -0.000999724)
(1.27233e-07 2.10702e-07 -0.000999946)
(2.3086e-07 1.07076e-07 -0.000999903)
(2.30859e-07 2.10701e-07 -0.00100043)
(1.16738e-07 9.86153e-08 -0.000999749)
(1.16738e-07 1.88482e-07 -0.000999954)
(2.06604e-07 9.86153e-08 -0.000999915)
(2.06604e-07 1.88481e-07 -0.00100039)
(1.07075e-07 9.07681e-08 -0.000999772)
(1.07075e-07 1.68747e-07 -0.000999961)
(1.85054e-07 9.0768e-08 -0.000999926)
(1.85053e-07 1.68746e-07 -0.00100034)
(9.8195e-08 8.35053e-08 -0.000999793)
(9.8195e-08 1.51226e-07 -0.000999967)
(1.65915e-07 8.35053e-08 -0.000999936)
(1.65915e-07 1.51225e-07 -0.00100031)
(9.0048e-08 7.67983e-08 -0.000999813)
(9.00479e-08 1.35678e-07 -0.000999972)
(1.48928e-07 7.67982e-08 -0.000999944)
(1.48928e-07 1.35678e-07 -0.00100027)
(8.25886e-08 7.0619e-08 -0.00099983)
(8.25885e-08 1.21891e-07 -0.000999976)
(1.3386e-07 7.0619e-08 -0.000999951)
(1.3386e-07 1.21891e-07 -0.00100024)
(7.57742e-08 6.49407e-08 -0.000999847)
(7.57742e-08 1.09673e-07 -0.000999979)
(1.20507e-07 6.49407e-08 -0.000999958)
(1.20506e-07 1.09673e-07 -0.00100022)
(6.95654e-08 5.97376e-08 -0.000999862)
(6.95654e-08 9.88563e-08 -0.000999982)
(1.08684e-07 5.97376e-08 -0.000999963)
(1.08684e-07 9.88561e-08 -0.00100019)
(6.39256e-08 5.49858e-08 -0.000999875)
(6.39256e-08 8.92905e-08 -0.000999985)
(9.82302e-08 5.49858e-08 -0.000999968)
(9.82301e-08 8.92903e-08 -0.00100017)
(5.88214e-08 5.06627e-08 -0.000999888)
(5.88214e-08 8.08427e-08 -0.000999987)
(8.90014e-08 5.06627e-08 -0.000999972)
(8.90013e-08 8.08426e-08 -0.00100015)
(5.42224e-08 4.67475e-08 -0.0009999)
(5.42224e-08 7.33952e-08 -0.000999989)
(8.08701e-08 4.67474e-08 -0.000999976)
(8.087e-08 7.33951e-08 -0.00100013)
(5.01007e-08 4.32207e-08 -0.000999911)
(5.01007e-08 6.68442e-08 -0.00099999)
(7.37243e-08 4.32207e-08 -0.000999979)
(7.37242e-08 6.68442e-08 -0.00100012)
(4.64317e-08 4.00649e-08 -0.000999921)
(4.64317e-08 6.10988e-08 -0.000999992)
(6.74656e-08 4.00649e-08 -0.000999982)
(6.74656e-08 6.10987e-08 -0.0010001)
(4.31942e-08 3.72654e-08 -0.000999931)
(4.31942e-08 5.60808e-08 -0.000999993)
(6.20096e-08 3.72654e-08 -0.000999984)
(6.20096e-08 5.60808e-08 -0.00100009)
(4.03724e-08 3.48123e-08 -0.00099994)
(4.03724e-08 5.1727e-08 -0.000999993)
(5.72871e-08 3.48123e-08 -0.000999987)
(5.7287e-08 5.17269e-08 -0.00100008)
(3.79616e-08 3.27065e-08 -0.000999948)
(3.79616e-08 4.79974e-08 -0.000999994)
(5.32525e-08 3.27065e-08 -0.000999989)
(5.32525e-08 4.79974e-08 -0.00100007)
(3.599e-08 3.09803e-08 -0.000999957)
(3.599e-08 4.48957e-08 -0.000999995)
(4.99054e-08 3.09803e-08 -0.00099999)
(4.99054e-08 4.48956e-08 -0.00100006)
(3.45454e-08 2.97181e-08 -0.000999965)
(3.45453e-08 4.25264e-08 -0.000999995)
(4.73536e-08 2.97181e-08 -0.000999992)
(4.73536e-08 4.25264e-08 -0.00100005)
(3.37569e-08 2.9033e-08 -0.000999972)
(3.37569e-08 4.12132e-08 -0.000999996)
(4.59371e-08 2.9033e-08 -0.000999994)
(4.59371e-08 4.12132e-08 -0.00100004)
)
;

boundaryField
{
    inlet
    {
        type            calculated;
        value           nonuniform List<vector> 4((3.37569e-08 2.9033e-08 -0.000999972) (4.59371e-08 2.9033e-08 -0.000999994) (3.37569e-08 4.12132e-08 -0.000999996) (4.59371e-08 4.12132e-08 -0.00100004));
    }
    outlet
    {
        type            calculated;
        value           nonuniform List<vector> 4((-2.43011e-10 1.94456e-08 -0.0010001) (-1.64726e-09 1.94455e-08 -0.00099989) (-2.43011e-10 1.80413e-08 -0.00100011) (-1.64726e-09 1.80412e-08 -0.000999911));
    }
    repeat_boundary
    {
        type            calculated;
        value           nonuniform List<vector> 
1440
(
(-2.43011e-10 0 -0.0010001)
(-5.38502e-10 0 -0.0010001)
(-8.75131e-10 0 -0.00100011)
(-1.21144e-09 0 -0.00100011)
(-1.53788e-09 0 -0.00100012)
(-1.85509e-09 0 -0.00100012)
(-2.16253e-09 0 -0.00100013)
(-2.45689e-09 0 -0.00100014)
(-2.73401e-09 0 -0.00100015)
(-2.98933e-09 0 -0.00100016)
(-3.2178e-09 0 -0.00100017)
(-3.41364e-09 0 -0.00100018)
(-3.56989e-09 0 -0.0010002)
(-3.67813e-09 0 -0.00100022)
(-3.72795e-09 0 -0.00100024)
(-3.70659e-09 0 -0.00100026)
(-3.59839e-09 0 -0.00100029)
(-3.38429e-09 0 -0.00100032)
(-3.0408e-09 0 -0.00100035)
(-2.53905e-09 0 -0.00100039)
(-1.84361e-09 0 -0.00100043)
(-9.11526e-10 0 -0.00100047)
(3.08209e-10 0 -0.00100052)
(1.88032e-09 0 -0.00100058)