FoamFile
{version 2.0; format ascii;class Cloud<passiveParticle>; location 0;object  positions;}
349
(
( 0.00382595 0.000326946 0.00049773 ) 0 
( 0.00215888 0.000308191 0.000499242 ) 0 
( 0.00245741 0.00287581 0.000498353 ) 0 
( 0.00168102 0.00224739 0.000498272 ) 0 
( 0.000436062 0.00464246 0.000499108 ) 0 
( 0.000693225 0.00240396 0.000498622 ) 0 
( 0.00192478 0.00127898 0.000498766 ) 0 
( 0.00141204 0.00443229 0.000497965 ) 0 
( 0.00478857 0.00172747 0.000499692 ) 0 
( 0.00271068 0.00190724 0.000497344 ) 0 
( 0.000456172 0.00337404 0.000497038 ) 0 
( 0.00317892 0.00356746 0.000499291 ) 0 
( 0.000210922 0.000736092 0.000498662 ) 0 
( 0.00144346 0.00321831 0.00049908 ) 0 
( 0.00348752 0.00253663 0.000497313 ) 0 
( 0.0048921 0.00493059 0.000497521 ) 0 
( 0.00447503 0.00268674 0.000497482 ) 0 
( 0.000937838 0.0014353 0.000498174 ) 0 
( 0.00117056 0.000457468 0.00049807 ) 0 
( 0.00386387 0.00133628 0.00049967 ) 0 
( 0.002122 0.00184106 0.00130021 ) 0 
( 0.00473994 0.000728623 0.000498902 ) 0 
( 0.00417461 0.0036385 0.000498104 ) 0 
( 0.00294738 0.00454027 0.00049969 ) 0 
( 0.00383693 0.00308202 0.00125708 ) 0 
( 0.00222044 0.003847 0.000498465 ) 0 
( 0.00394519 0.00461088 0.00049875 ) 0 
( 0.00184121 0.00279961 0.0013143 ) 0 
( 0.00293805 0.000934778 0.000498255 ) 0 
( 0.0041083 0.000817753 0.001319 ) 0 
( 0.00463006 0.0043553 0.00127197 ) 0 
( 0.00480557 0.00333275 0.00120893 ) 0 
( 0.00323391 0.00151734 0.0012548 ) 0 
( 0.000780246 0.00294948 0.00134062 ) 0 
( 0.00321039 0.000380736 0.00128246 ) 0 
( 0.00134553 0.00101571 0.0013072 ) 0 
( 0.0040656 0.00206394 0.00116033 ) 0 
( 0.00261712 0.00342936 0.00131392 ) 0 
( 0.00102128 0.00492351 0.00127418 ) 0 
( 0.00113895 0.00201775 0.00130476 ) 0 
( 0.000393328 0.00135522 0.00133121 ) 0 
( 0.00233598 0.000864638 0.00131051 ) 0 
( 0.00332377 0.00347787 0.00201762 ) 0 
( 0.000828786 0.00394355 0.00122785 ) 0 
( 0.00470622 0.000636996 0.00209861 ) 0 
( 0.00317854 0.000952395 0.00210106 ) 0 
( 0.000384561 0.00210772 0.0019882 ) 0 
( 0.00283332 1.80661e-06 0.0021254 ) 0 
( 0.00178479 0.00418742 0.00139081 ) 0 
( 0.00289695 0.0024712 0.00129874 ) 0 
( 0.00133014 0.00247511 0.00217117 ) 0 
( 0.00367305 0.00406693 0.00129018 ) 0 
( 0.00448723 0.00269522 0.00190945 ) 0 
( 0.00489158 0.00142445 0.00144798 ) 0 
( 0.00275463 0.00440273 0.00149438 ) 0 
( 0.00370592 0.00497329 0.00193034 ) 0 
( 0.00172543 0.000212349 0.00176217 ) 0 
( 0.00398511 0.00153469 0.00200143 ) 0 
( 0.00140667 0.00344406 0.00194015 ) 0 
( 0.00409671 0.00282732 0.0028202 ) 0 
( 0.00165769 0.00150735 0.002118 ) 0 
( 0.00244424 0.00283653 0.00211025 ) 0 
( 0.00352314 0.00249491 0.00207476 ) 0 
( 0.000487045 0.000497629 0.00183172 ) 0 
( 0.000441618 0.00349634 0.00218705 ) 0 
( 0.00275467 0.00185663 0.00207221 ) 0 
( 0.00429736 0.00370729 0.00198181 ) 0 
( 0.000895474 0.0043854 0.0021211 ) 0 
( 0.00381624 0.000183852 0.00205225 ) 0 
( 0.000564882 0.00269731 0.0027751 ) 0 
( 0.00122166 0.000685541 0.00248161 ) 0 
( 0.00309838 0.00436204 0.0024327 ) 0 
( 0.0017772 0.00310571 0.00280347 ) 0 
( 0.00379771 0.0037799 0.00284246 ) 0 
( 0.00224801 0.000757939 0.00241554 ) 0 
( 0.00229929 0.00382285 0.00217397 ) 0 
( 0.00372291 0.00190102 0.00289117 ) 0 
( 0.00472459 0.00194853 0.00253152 ) 0 
( 0.00183434 0.00470264 0.00224494 ) 0 
( 0.00093005 0.00176648 0.00275028 ) 0 
( 0.00208223 0.00215672 0.002747 ) 0 
( 0.00297895 0.00256601 0.00290977 ) 0 
( 0.00240624 5.24056e-05 0.00328877 ) 0 
( 0.00283305 0.00355216 0.00297299 ) 0 
( 0.00180348 0.00407846 0.00302297 ) 0 
( 0.00478148 0.00394873 0.00282193 ) 0 
( 0.000951205 0.00459319 0.0031038 ) 0 
( 0.0032701 0.000401487 0.00293 ) 0 
( 0.000586272 0.000947876 0.0032049 ) 0 
( 0.00173573 0.00128584 0.00309232 ) 0 
( 0.0028045 0.00138982 0.00295291 ) 0 
( 2.81603e-05 0.00401026 0.00293516 ) 0 
( 0.00437789 0.00484742 0.00265806 ) 0 
( 0.00244799 0.00484036 0.00302133 ) 0 
( 0.0040872 0.000962951 0.00281285 ) 0 
( 0.00454899 8.31882e-05 0.00291847 ) 0 
( 0.000935625 0.00358489 0.00305006 ) 0 
( 0.00436682 0.00155193 0.00356971 ) 0 
( 0.000206754 0.00339036 0.00370412 ) 0 
( 0.00460872 0.00347185 0.00368236 ) 0 
( 0.00421549 0.00437755 0.00352476 ) 0 
( 0.00135143 0.00241268 0.00338266 ) 0 
( 0.00334133 0.00219618 0.00376521 ) 0 
( 0.003754 0.00383591 0.00427093 ) 0 
( 0.00240286 0.000939431 0.00374924 ) 0 
( 0.00348141 0.0010912 0.00362298 ) 0 
( 0.00352759 0.00315785 0.00357307 ) 0 
( 0.00322283 0.00435374 0.00342365 ) 0 
( 0.00432332 0.00057303 0.00376262 ) 0 
( 0.000605301 0.00181673 0.00369941 ) 0 
( 0.00159491 0.00333694 0.00375891 ) 0 
( 0.000774003 0.00269679 0.00414623 ) 0 
( 0.00308073 0.000250027 0.00399871 ) 0 
( 0.00238124 0.00193661 0.00367406 ) 0 
( 9.0075e-05 0.00145343 0.00454345 ) 0 
( 0.00101465 0.0041197 0.00398151 ) 0 
( 0.0025052 0.00292732 0.00371103 ) 0 
( 0.00151892 0.00157519 0.00402347 ) 0 
( 0.00295355 0.00149974 0.00436638 ) 0 
( 0.000818853 0.000880031 0.00417337 ) 0 
( 0.0014076 0.000398972 0.00342025 ) 0 
( 0.00428308 0.00253009 0.00375425 ) 0 
( 0.000126969 0.00453298 0.00377952 ) 0 
( 0.000641929 0.0049664 0.00451648 ) 0 
( 0.00174581 0.00476059 0.00375015 ) 0 
( 0.00225014 0.00333095 0.00459285 ) 0 
( 0.00399615 0.00186476 0.00444254 ) 0 
( 0.00438462 0.00313912 0.00460967 ) 0 
( 0.00299046 0.0044686 0.00439678 ) 0 
( 0.00109972 0.00426388 0.00505736 ) 0 
( 0.000418226 0.00366394 0.00464095 ) 0 
( 0.0017949 0.00250254 0.00427177 ) 0 
( 0.00340935 0.00293576 0.00453811 ) 0 
( 0.00173212 0.000516671 0.00435758 ) 0 
( 0.00199025 0.00431947 0.00461137 ) 0 
( 0.000943204 0.00192691 0.00476111 ) 0 
( 0.00240816 0.00391707 0.0038002 ) 0 
( 0.00123667 0.00101183 0.00507004 ) 0 
( 0.0046807 0.00140344 0.00500513 ) 0 
( 0.00128774 0.00321043 0.00483243 ) 0 
( 0.000144766 0.0044897 0.00524125 ) 0 
( 0.00466813 0.000440619 0.00474403 ) 0 
( 0.00289013 0.000653762 0.00489187 ) 0 
( 0.00393543 0.00246095 0.00524098 ) 0 
( 0.00174398 0.00498365 0.00531618 ) 0 
( 0.000169388 0.000432509 0.00478866 ) 0 
( 0.0035742 0.00439077 0.00521373 ) 0 
( 0.00379748 0.000891896 0.00454962 ) 0 
( 0.00187695 0.003761 0.00543125 ) 0 
( 0.00499459 0.00482355 0.00468756 ) 0 
( 0.00403317 0.00478344 0.00441844 ) 0 
( 0.0026395 0.00235114 0.00478311 ) 0 
( 0.00108355 7.0683e-06 0.00529105 ) 0 
( 0.00207795 0.00150466 0.00484828 ) 0 
( 0.0039471 0.000455847 0.00543551 ) 0 
( 0.000943276 0.00362685 0.00580903 ) 0 
( 1.08658e-05 0.00341509 0.00551812 ) 0 
( 0.00344625 0.00158936 0.00523063 ) 0 
( 0.00213063 0.000773995 0.00552813 ) 0 
( 0.00176929 0.00241858 0.00526619 ) 0 
( 0.00491967 0.00484373 0.005683 ) 0 
( 0.00312806 0.000863636 0.00583974 ) 0 
( 0.00257318 0.00183628 0.00565025 ) 0 
( 0.00300742 0.00356812 0.00519791 ) 0 
( 0.00259436 0.00445581 0.00539457 ) 0 
( 0.00451541 0.00406673 0.00512931 ) 0 
( 0.00126118 0.000676767 0.00601078 ) 0 
( 0.00216478 0.002985 0.00598829 ) 0 
( 0.00161534 0.00158582 0.00579368 ) 0 
( 0.00014307 0.00203028 0.00535627 ) 0 
( 0.000353478 0.00106981 0.00553518 ) 0 
( 0.00491495 0.00230793 0.00535441 ) 0 
( 0.000244531 0.00422215 0.00620108 ) 0 
( 0.00417482 0.00133006 0.00586314 ) 0 
( 0.00391749 0.00340215 0.00557472 ) 0 
( 0.00307417 0.00269997 0.00568746 ) 0 
( 0.000292474 0.000136272 0.00588725 ) 0 
( 0.000873876 0.00264535 0.00564371 ) 0 
( 0.000869122 0.00489181 0.00579951 ) 0 
( 0.00161484 0.00360523 0.00654723 ) 0 
( 0.00193773 0.00446147 0.00614602 ) 0 
( 0.00296111 0.00317295 0.00656092 ) 0 
( 0.00232584 0.00122224 0.00639864 ) 0 
( 0.00436232 0.00265946 0.00612218 ) 0 
( 0.00318552 0.00401585 0.00607211 ) 0 
( 0.00259823 0.00026259 0.00643722 ) 0 
( 0.000544537 0.00340326 0.00669759 ) 0 
( 0.00415288 0.00430294 0.00602843 ) 0 
( 0.00342293 0.00498402 0.00600391 ) 0 
( 0.0049333 0.000734311 0.00612318 ) 0 
( 0.00199587 0.00215642 0.00651841 ) 0 
( 0.000442257 0.000886039 0.00654344 ) 0 
( 0.000701903 0.0017801 0.00614478 ) 0 
( 0.00109302 0.00444871 0.00667783 ) 0 
( 0.00356017 5.72532e-05 0.00626534 ) 0 
( 0.00341954 0.00190217 0.00618012 ) 0 
( 7.91399e-05 0.00261935 0.00624958 ) 0 
( 0.00369445 0.00257614 0.00688244 ) 0 
( 0.00248214 0.00400184 0.00684667 ) 0 
( 0.000267464 0.00424038 0.0071999 ) 0 
( 0.00224433 0.000764935 0.00728296 ) 0 
( 0.00434994 0.00184476 0.00670111 ) 0 
( 0.00138329 0.00135265 0.00673686 ) 0 
( 0.00156371 0.000191865 0.00682976 ) 0 
( 0.0031871 0.00109417 0.00688887 ) 0 
( 0.00497235 0.00317777 0.00672026 ) 0 
( 0.00411237 0.000772514 0.00669175 ) 0 
( 0.0039056 0.00350011 0.0065687 ) 0 
( 0.0028634 0.00203356 0.00699991 ) 0 
( 0.00214101 0.0029574 0.00709534 ) 0 
( 0.00109183 0.00257064 0.00661526 ) 0 
( 0.00362989 0.00441717 0.00687114 ) 0 
( 0.00448159 0.00499457 0.0073404 ) 0 
( 0.0003598 0.00117185 0.00749782 ) 0 
( 0.00186633 0.00489516 0.00713471 ) 0 
( 0.00201023 0.00172623 0.00741938 ) 0 
( 0.00354189 0.000177092 0.0072568 ) 0 
( 0.00370996 0.00176364 0.00746286 ) 0 
( 0.00283629 0.00478834 0.00735086 ) 0 
( 0.00333528 0.00360973 0.007382 ) 0 
( 0.00034004 0.0020557 0.00703309 ) 0 
( 0.00286004 0.00136035 0.00779612 ) 0 
( 0.00105978 0.00185695 0.00769747 ) 0 
( 0.000313678 0.00247605 0.00793921 ) 0 
( 0.000271464 0.00347116 0.00783724 ) 0 
( 0.00179578 0.00255043 0.0079407 ) 0 
( 0.00241964 0.00362562 0.00778237 ) 0 
( 0.0012866 0.000805794 0.00756659 ) 0 
( 0.00286426 0.000374969 0.0079631 ) 0 
( 0.00459996 0.00405323 0.00702627 ) 0 
( 0.00155286 0.00400493 0.00746076 ) 0 
( 0.002909 0.00274743 0.00769826 ) 0 
( 0.00111981 0.00310482 0.00745825 ) 0 
( 0.00487095 0.00116248 0.00721204 ) 0 
( 0.00398537 0.00425248 0.00778887 ) 0 
( 0.000978899 0.00483943 0.0075904 ) 0 
( 0.00214864 0.00466416 0.00806519 ) 0 
( 0.00196365 0.00118018 0.0082546 ) 0 
( 0.00407182 0.000873852 0.00773828 ) 0 
( 0.00247556 0.00201744 0.00844306 ) 0 
( 0.000295976 0.00484531 0.00832903 ) 0 
( 0.000885548 7.75926e-05 0.00812133 ) 0 
( 0.00094212 0.00408737 0.00824693 ) 0 
( 0.00482841 0.00134374 0.00819351 ) 0 
( 0.00427563 0.00317118 0.00743726 ) 0 
( 0.00491472 0.00393428 0.00796738 ) 0 
( 0.00403571 0.0034875 0.00842795 ) 0 
( 0.00188859 0.000198736 0.00808231 ) 0 
( 0.00458349 0.00218197 0.00770774 ) 0 
( 0.00357568 0.00162208 0.00844281 ) 0 
( 0.00219106 0.00291314 0.00878304 ) 0 
( 0.0011719 0.00313715 0.00845555 ) 0 
( 0.000209885 0.00037316 0.00880757 ) 0 
( 0.000349946 0.00355048 0.008846 ) 0 
( 0.00409782 0.000822116 0.00873556 ) 0 
( 0.00305218 0.00333022 0.00849754 ) 0 
( 0.00185692 0.00385507 0.00857514 ) 0 
( 0.00461857 0.00217497 0.00870647 ) 0 
( 0.00377643 0.00256117 0.00815704 ) 0 
( 0.00283832 0.00101218 0.00873207 ) 0 
( 0.00306566 0.00427655 0.00817706 ) 0 
( 0.000341744 0.00193597 0.00877999 ) 0 
( 0.00495032 0.00309714 0.00851176 ) 0 
( 0.00140698 0.0019426 0.00863214 ) 0 
( 0.000834338 0.00116335 0.00838135 ) 0 
( 0.00435928 0.00439219 0.00870499 ) 0 
( 0.00208817 0.00147818 0.00920062 ) 0 
( 0.00348078 0.00407684 0.00906327 ) 0 
( 0.0049045 0.000991557 0.00929986 ) 0 
( 0.00225924 0.00463215 0.00905779 ) 0 
( 0.00172583 0.00236756 0.00947832 ) 0 
( 0.00152391 0.00336064 0.00937731 ) 0 
( 0.00105989 0.00423313 0.00922876 ) 0 
( 0.00147431 0.000609259 0.00891269 ) 0 
( 0.00405254 0.00162926 0.00932303 ) 0 
( 0.00133448 0.00494281 0.00858142 ) 0 
( 0.000991868 0.00137637 0.0093445 ) 0 
( 0.00468386 0.0036548 0.00929682 ) 0 
( 0.00079972 0.00268151 0.00926315 ) 0 
( 0.000118201 0.00444694 0.00948548 ) 0 
( 0.00323167 0.00239314 0.00897732 ) 0 
( 0.000340863 0.00197877 0.00980535 ) 0 
( 0.0015199 0.000737022 0.00990283 ) 0 
( 0.00324264 0.00310384 0.00967987 ) 0 
( 0.0031409 0.00134954 0.00962264 ) 0 
( 0.00245516 0.000623765 0.00956876 ) 0 
( 0.00453143 0.00455789 0.00969677 ) 0 
( 0.00054957 0.000565937 0.00972757 ) 0 
( 0.00184329 0.00418283 0.009848 ) 0 
( 0.00406893 0.000744732 0.00978823 ) 0 
( 0.00408618 0.00285922 0.00920338 ) 0 
( 0.00255129 0.00370278 0.00927802 ) 0 
( 0.00337274 0.000316874 0.00921374 ) 0 
( 0.00320654 0.000466093 0.0102086 ) 0 
( 0.00461091 0.00284698 0.0100537 ) 0 
( 0.00391583 0.0038025 0.00991961 ) 0 
( 0.00224517 0.00309085 0.0100142 ) 0 
( 0.00374612 0.00230075 0.00999686 ) 0 
( 0.000784159 0.00487303 0.0100965 ) 0 
( 0.00266681 0.00221524 0.00978171 ) 0 
( 0.00304045 0.00474202 0.00967123 ) 0 
( 0.00226681 0.00139116 0.0101806 ) 0 
( 0.000636154 0.00353343 0.00980305 ) 0 
( 0.00497597 0.000652085 0.0102367 ) 0 
( 0.00119006 0.00280275 0.0102009 ) 0 
( 0.00134512 0.00177734 0.0101888 ) 0 
( 0.00067341 0.00219252 0.010801 ) 0 
( 0.00291158 0.00389725 0.0101898 ) 0 
( 0.00445075 0.00155193 0.0102367 ) 0 
( 0.000387022 0.00314368 0.0106892 ) 0 
( 0.00241692 0.00467767 0.0105712 ) 0 
( 0.00299274 0.00273428 0.0105741 ) 0 
( 0.000995834 0.000196716 0.0105606 ) 0 
( 0.0011137 0.00392154 0.0105905 ) 0 
( 0.00371052 0.00459613 0.0104914 ) 0 
( 0.00482601 0.00382345 0.0103314 ) 0 
( 0.000541002 0.00124855 0.0104577 ) 0 
( 0.00226242 0.00045755 0.0105369 ) 0 
( 0.00209657 0.00229257 0.0105992 ) 0 
( 0.00175966 0.000232184 0.0113711 ) 0 
( 0.00208644 0.00375103 0.0107475 ) 0 
( 0.00229674 0.00295753 0.0113181 ) 0 
( 0.00316111 0.00171149 0.010554 ) 0 
( 0.00020979 0.00434837 0.010724 ) 0 
( 0.00306039 0.00357258 0.0111232 ) 0 
( 0.00407231 0.000806916 0.0107859 ) 0 
( 0.00163912 0.00453219 0.0111823 ) 0 
( 0.000661531 0.000769911 0.0113268 ) 0 
( 0.00417361 0.00224713 0.0108991 ) 0 
( 0.00496986 0.00465386 0.0108689 ) 0 
( 0.00149771 0.00104616 0.0108532 ) 0 
( 0.00149322 0.00193485 0.0113115 ) 0 
( 0.0048006 0.00301201 0.0110463 ) 0 
( 0.00387779 0.00318116 0.0107013 ) 0 
( 0.000700319 0.00258915 0.0117183 ) 0 
( 0.00423627 0.00401789 0.0111148 ) 0 
( 0.00239163 0.00152207 0.0111638 ) 0 
( 0.000694134 8.27675e-05 0.0120521 ) 0 
( 0.00330165 0.00224372 0.0113885 ) 0 
( 0.00019173 0.00370776 0.0114913 ) 0 
( 0.00313349 0.000853078 0.0111271 ) 0 
( 0.0017605 0.00112152 0.0118278 ) 0 
( 0.00350516 0.00309138 0.0118781 ) 0 
( 0.00132529 0.00311433 0.011141 ) 0 
( 0.00472488 0.000463476 0.0115119 ) 0 
( 0.00351305 0.00139646 0.0118753 ) 0 
( 0.00442157 0.00269345 0.0119147 ) 0 
( 0.00256878 0.00435492 0.011505 ) 0 
( 0.00444536 0.00171578 0.0117074 ) 0 
)
