/*--------------------------------*- C++ -*----------------------------------*\
| =========                 |                                                 |
| \\      /  F ield         | OpenFOAM: The Open Source CFD Toolbox           |
|  \\    /   O peration     | Version:  5.x                                   |
|   \\  /    A nd           | Web:      www.OpenFOAM.org                      |
|    \\/     M anipulation  |                                                 |
\*---------------------------------------------------------------------------*/
FoamFile
{
    version     2.0;
    format      ascii;
    class       volScalarField;
    location    "60000";
    object      p;
}
// * * * * * * * * * * * * * * * * * * * * * * * * * * * * * * * * * * * * * //

dimensions      [0 2 -2 0 0 0 0];

internalField   nonuniform List<scalar> 
2250
(
-1.42271e-10
-1.77884e-10
-2.47747e-10
-3.20605e-10
-4.14477e-10
-1.74082e-10
-1.98481e-10
-2.19146e-10
-2.28989e-10
-2.68009e-10
-1.87057e-10
-1.98692e-10
-1.93004e-10
-1.81436e-10
-1.90911e-10
-1.85705e-10
-1.8438e-10
-1.62539e-10
-1.39033e-10
-1.30184e-10
-1.77519e-10
-1.68946e-10
-1.41142e-10
-1.12894e-10
-9.5576e-11
-4.64253e-10
-5.63267e-10
-7.01035e-10
-8.25899e-10
-1.00851e-09
-5.36947e-10
-5.86634e-10
-6.08507e-10
-6.08417e-10
-6.89135e-10
-5.48765e-10
-5.59901e-10
-5.23106e-10
-4.74214e-10
-4.79771e-10
-5.28428e-10
-5.10663e-10
-4.41758e-10
-3.68109e-10
-3.3248e-10
-4.99997e-10
-4.67449e-10
-3.88349e-10
-3.08844e-10
-2.62744e-10
-8.68732e-10
-9.73633e-10
-1.05919e-09
-1.10437e-09
-1.1711e-09
-9.01451e-10
-9.32735e-10
-9.1071e-10
-8.63455e-10
-8.66328e-10
-8.77663e-10
-8.6321e-10
-7.83278e-10
-6.88955e-10
-6.32814e-10
-8.29183e-10
-7.85334e-10
-6.72385e-10
-5.55349e-10
-4.79105e-10
-7.83063e-10
-7.22501e-10
-6.02489e-10
-4.89345e-10
-4.21645e-10
-1.34288e-09
-1.39368e-09
-1.39832e-09
-1.40038e-09
-1.37559e-09
-1.25791e-09
-1.24805e-09
-1.17947e-09
-1.10204e-09
-1.02885e-09
-1.18612e-09
-1.14439e-09
-1.03213e-09
-9.10874e-10
-7.98117e-10
-1.11476e-09
-1.0471e-09
-9.07399e-10
-7.74833e-10
-6.7667e-10
-1.05495e-09
-9.68445e-10
-8.30402e-10
-7.17966e-10
-6.57288e-10
-1.80777e-09
-1.79695e-09
-1.77032e-09
-1.82249e-09
-1.89517e-09
-1.62349e-09
-1.58723e-09
-1.50321e-09
-1.4333e-09
-1.40906e-09
-1.51709e-09
-1.4581e-09
-1.33733e-09
-1.22252e-09
-1.1361e-09
-1.42375e-09
-1.33601e-09
-1.19786e-09
-1.09032e-09
-1.02675e-09
-1.34493e-09
-1.24065e-09
-1.11947e-09
-1.04832e-09
-1.03258e-09
-2.23148e-09
-2.19768e-09
-2.17018e-09
-2.22551e-09
-2.42818e-09
-2.02553e-09
-1.98435e-09
-1.90576e-09
-1.84112e-09
-1.90791e-09
-1.89669e-09
-1.82409e-09
-1.71659e-09
-1.62936e-09
-1.61836e-09
-1.77443e-09
-1.67272e-09
-1.56858e-09
-1.51147e-09
-1.50601e-09
-1.67769e-09
-1.57634e-09
-1.50552e-09
-1.48725e-09
-1.50201e-09
-2.66043e-09
-2.63351e-09
-2.58638e-09
-2.53932e-09
-2.66579e-09
-2.4799e-09
-2.43117e-09
-2.35888e-09
-2.28545e-09
-2.35076e-09
-2.33119e-09
-2.24619e-09
-2.1706e-09
-2.11701e-09
-2.13204e-09
-2.19071e-09
-2.09536e-09
-2.048e-09
-2.03083e-09
-2.02489e-09
-2.10406e-09
-2.03645e-09
-2.02326e-09
-2.01971e-09
-1.97815e-09
-3.14694e-09
-3.11181e-09
-3.03335e-09
-2.90369e-09
-2.85473e-09
-2.99798e-09
-2.93179e-09
-2.87314e-09
-2.80943e-09
-2.79416e-09
-2.85232e-09
-2.77334e-09
-2.74258e-09
-2.71387e-09
-2.67621e-09
-2.74253e-09
-2.68551e-09
-2.68832e-09
-2.66607e-09
-2.56654e-09
-2.71136e-09
-2.69643e-09
-2.7082e-09
-2.6527e-09
-2.46358e-09
-3.7215e-09
-3.65887e-09
-3.5728e-09
-3.44769e-09
-3.29978e-09
-3.62504e-09
-3.55742e-09
-3.52403e-09
-3.4786e-09
-3.3849e-09
-3.53806e-09
-3.49429e-09
-3.495e-09
-3.45732e-09
-3.33335e-09
-3.51755e-09
-3.51269e-09
-3.52209e-09
-3.44043e-09
-3.2068e-09
-3.56392e-09
-3.58564e-09
-3.56742e-09
-3.41537e-09
-3.07858e-09
-4.44424e-09
-4.37063e-09
-4.28286e-09
-4.13901e-09
-3.86291e-09
-4.42953e-09
-4.38516e-09
-4.35822e-09
-4.29003e-09
-4.12051e-09
-4.44358e-09
-4.4381e-09
-4.4255e-09
-4.33732e-09
-4.13619e-09
-4.52625e-09
-4.54734e-09
-4.51035e-09
-4.34757e-09
-4.03095e-09
-4.62529e-09
-4.64147e-09
-4.55714e-09
-4.32519e-09
-3.95012e-09
-5.34388e-09
-5.27063e-09
-5.14319e-09
-4.91441e-09
-4.4872e-09
-5.40117e-09
-5.37012e-09
-5.30697e-09
-5.18111e-09
-4.92561e-09
-5.50836e-09
-5.50625e-09
-5.43929e-09
-5.29034e-09
-5.04153e-09
-5.65701e-09
-5.65903e-09
-5.55396e-09
-5.33846e-09
-5.03463e-09
-5.76379e-09
-5.74067e-09
-5.59563e-09
-5.3453e-09
-5.046e-09
-6.2899e-09
-6.19104e-09
-5.99237e-09
-5.68838e-09
-5.17296e-09
-6.40587e-09
-6.35122e-09
-6.22525e-09
-6.04218e-09
-5.70221e-09
-6.58165e-09
-6.54366e-09
-6.41137e-09
-6.21615e-09
-5.94328e-09
-6.75748e-09
-6.71248e-09
-6.55087e-09
-6.32259e-09
-6.07193e-09
-6.84872e-09
-6.77788e-09
-6.59965e-09
-6.37407e-09
-6.15211e-09
-7.09719e-09
-6.95183e-09
-6.68481e-09
-6.32864e-09
-5.74544e-09
-7.31367e-09
-7.21183e-09
-7.01556e-09
-6.76432e-09
-6.34185e-09
-7.56132e-09
-7.46957e-09
-7.27174e-09
-7.02569e-09
-6.71408e-09
-7.7594e-09
-7.66058e-09
-7.45523e-09
-7.2154e-09
-6.96611e-09
-7.84312e-09
-7.73032e-09
-7.53551e-09
-7.31917e-09
-7.0931e-09
-7.75635e-09
-7.56791e-09
-7.22705e-09
-6.76977e-09
-6.08408e-09
-8.14123e-09
-7.98552e-09
-7.70013e-09
-7.33194e-09
-6.79377e-09
-8.48705e-09
-8.33311e-09
-8.05397e-09
-7.71605e-09
-7.3076e-09
-8.72844e-09
-8.57372e-09
-8.3167e-09
-8.01831e-09
-7.68822e-09
-8.83088e-09
-8.68123e-09
-8.45527e-09
-8.18591e-09
-7.88252e-09
-8.44988e-09
-8.20955e-09
-7.73716e-09
-7.05589e-09
-6.11375e-09
-9.046e-09
-8.81933e-09
-8.39686e-09
-7.83248e-09
-7.07205e-09
-9.51637e-09
-9.28502e-09
-8.88862e-09
-8.38972e-09
-7.79277e-09
-9.83213e-09
-9.61398e-09
-9.26678e-09
-8.82621e-09
-8.31929e-09
-9.98497e-09
-9.78818e-09
-9.47645e-09
-9.0593e-09
-8.57228e-09
-9.42091e-09
-9.08495e-09
-8.38428e-09
-7.34502e-09
-5.8973e-09
-1.02346e-08
-9.89826e-09
-9.27284e-09
-8.42461e-09
-7.30498e-09
-1.08531e-08
-1.05217e-08
-9.9531e-09
-9.20469e-09
-8.29267e-09
-1.12797e-08
-1.09763e-08
-1.04665e-08
-9.77143e-09
-8.93387e-09
-1.15072e-08
-1.12309e-08
-1.07474e-08
-1.00566e-08
-9.21026e-09
-1.08571e-08
-1.03576e-08
-9.36386e-09
-7.94278e-09
-5.9821e-09
-1.18857e-08
-1.13978e-08
-1.05109e-08
-9.31224e-09
-7.75771e-09
-1.26958e-08
-1.22365e-08
-1.14229e-08
-1.03215e-08
-8.95576e-09
-1.32777e-08
-1.28532e-08
-1.20877e-08
-1.101e-08
-9.68427e-09
-1.35992e-08
-1.3204e-08
-1.24464e-08
-1.13522e-08
-1.00182e-08
-1.28313e-08
-1.21217e-08
-1.08182e-08
-9.04711e-09
-6.75113e-09
-1.41476e-08
-1.34794e-08
-1.22637e-08
-1.06234e-08
-8.56368e-09
-1.52378e-08
-1.46135e-08
-1.34551e-08
-1.18616e-08
-9.90774e-09
-1.6037e-08
-1.54474e-08
-1.431e-08
-1.27092e-08
-1.07871e-08
-1.64833e-08
-1.59141e-08
-1.476e-08
-1.31477e-08
-1.12483e-08
-1.54476e-08
-1.45125e-08
-1.28078e-08
-1.05387e-08
-7.77583e-09
-1.72232e-08
-1.63333e-08
-1.46554e-08
-1.23758e-08
-9.61639e-09
-1.87114e-08
-1.78587e-08
-1.62013e-08
-1.39141e-08
-1.11932e-08
-1.98015e-08
-1.89666e-08
-1.72971e-08
-1.50041e-08
-1.23264e-08
-2.03943e-08
-1.95442e-08
-1.78546e-08
-1.5578e-08
-1.2933e-08
-1.90304e-08
-1.78086e-08
-1.54862e-08
-1.23814e-08
-8.69097e-09
-2.14287e-08
-2.02262e-08
-1.78803e-08
-1.46784e-08
-1.09046e-08
-2.34194e-08
-2.22224e-08
-1.98575e-08
-1.66268e-08
-1.28658e-08
-2.48503e-08
-2.36292e-08
-2.12447e-08
-1.80365e-08
-1.43201e-08
-2.55812e-08
-2.43196e-08
-2.19439e-08
-1.87675e-08
-1.50824e-08
-2.40345e-08
-2.23927e-08
-1.92102e-08
-1.4875e-08
-9.70547e-09
-2.71671e-08
-2.55053e-08
-2.2247e-08
-1.77999e-08
-1.26041e-08
-2.97493e-08
-2.80435e-08
-2.47397e-08
-2.02597e-08
-1.50568e-08
-3.15623e-08
-2.98049e-08
-2.65035e-08
-2.20542e-08
-1.68913e-08
-3.24595e-08
-3.06833e-08
-2.74073e-08
-2.29844e-08
-1.78569e-08
-3.08859e-08
-2.86333e-08
-2.42919e-08
-1.82647e-08
-1.1032e-08
-3.49195e-08
-3.25999e-08
-2.81309e-08
-2.20237e-08
-1.48423e-08
-3.8259e-08
-3.58665e-08
-3.13348e-08
-2.51593e-08
-1.79296e-08
-4.06034e-08
-3.81717e-08
-3.36397e-08
-2.74633e-08
-2.02516e-08
-4.18009e-08
-3.93761e-08
-3.48537e-08
-2.8691e-08
-2.149e-08
-4.00311e-08
-3.69048e-08
-3.09602e-08
-2.26572e-08
-1.27199e-08
-4.53639e-08
-4.2148e-08
-3.60439e-08
-2.76532e-08
-1.76994e-08
-4.98417e-08
-4.65502e-08
-4.03321e-08
-3.18027e-08
-2.17524e-08
-5.30472e-08
-4.97219e-08
-4.34582e-08
-3.48716e-08
-2.47711e-08
-5.47452e-08
-5.14199e-08
-4.51426e-08
-3.65285e-08
-2.63766e-08
-5.22388e-08
-4.79574e-08
-3.98051e-08
-2.8384e-08
-1.48076e-08
-5.95886e-08
-5.51681e-08
-4.67767e-08
-3.51843e-08
-2.14183e-08
-6.58181e-08
-6.12872e-08
-5.26988e-08
-4.09001e-08
-2.69731e-08
-7.03432e-08
-6.57554e-08
-5.70601e-08
-4.51098e-08
-3.10268e-08
-7.27694e-08
-6.81577e-08
-5.94041e-08
-4.73431e-08
-3.3137e-08
-6.88886e-08
-6.30501e-08
-5.18208e-08
-3.61137e-08
-1.76285e-08
-7.91705e-08
-7.307e-08
-6.14785e-08
-4.54733e-08
-2.65678e-08
-8.79422e-08
-8.16698e-08
-6.97892e-08
-5.34558e-08
-3.42271e-08
-9.43723e-08
-8.80035e-08
-7.5917e-08
-5.9289e-08
-3.97835e-08
-9.78191e-08
-9.13823e-08
-7.91692e-08
-6.23662e-08
-4.26714e-08
-9.18025e-08
-8.37061e-08
-6.8229e-08
-4.67924e-08
-2.17249e-08
-1.06169e-07
-9.77352e-08
-8.17737e-08
-5.97839e-08
-3.39538e-08
-1.18569e-07
-1.09893e-07
-9.34749e-08
-7.08942e-08
-4.44468e-08
-1.27715e-07
-1.18856e-07
-1.02082e-07
-7.90345e-08
-5.21053e-08
-1.32596e-07
-1.23627e-07
-1.06682e-07
-8.33976e-08
-5.61664e-08
-1.2322e-07
-1.12021e-07
-9.0847e-08
-6.17279e-08
-2.75869e-08
-1.434e-07
-1.31817e-07
-1.09912e-07
-7.97687e-08
-4.44514e-08
-1.61006e-07
-1.49028e-07
-1.26373e-07
-9.52227e-08
-5.88143e-08
-1.74031e-07
-1.61733e-07
-1.38531e-07
-1.06611e-07
-6.93068e-08
-1.80998e-07
-1.68562e-07
-1.45095e-07
-1.12747e-07
-7.49388e-08
-1.66295e-07
-1.51067e-07
-1.22243e-07
-8.26991e-08
-3.62192e-08
-1.94823e-07
-1.78981e-07
-1.48919e-07
-1.07576e-07
-5.91694e-08
-2.19879e-07
-2.0336e-07
-1.7213e-07
-1.29088e-07
-7.88379e-08
-2.38517e-07
-2.21472e-07
-1.8938e-07
-1.4497e-07
-9.32835e-08
-2.48563e-07
-2.31246e-07
-1.98681e-07
-1.5351e-07
-1.01123e-07
-2.25343e-07
-2.04809e-07
-1.65443e-07
-1.11712e-07
-4.85737e-08
-2.65803e-07
-2.44138e-07
-2.02821e-07
-1.45993e-07
-7.97916e-08
-3.01581e-07
-2.78773e-07
-2.35734e-07
-1.75939e-07
-1.07002e-07
-3.28401e-07
-3.04633e-07
-2.6033e-07
-1.98092e-07
-1.27264e-07
-3.4291e-07
-3.18554e-07
-2.73647e-07
-2.10019e-07
-1.3837e-07
-3.05826e-07
-2.78341e-07
-2.24069e-07
-1.51157e-07
-6.54057e-08
-3.63444e-07
-3.33892e-07
-2.77047e-07
-1.98586e-07
-1.09056e-07
-4.14885e-07
-3.83258e-07
-3.24249e-07
-2.40089e-07
-1.47482e-07
-4.53737e-07
-4.20138e-07
-3.599e-07
-2.70593e-07
-1.76498e-07
-4.74802e-07
-4.39916e-07
-3.79488e-07
-2.86938e-07
-1.92591e-07
-4.13665e-07
-3.78123e-07
-3.01983e-07
-2.04155e-07
-8.88991e-08
-4.97043e-07
-4.57221e-07
-3.79087e-07
-2.69143e-07
-1.52377e-07
-5.71877e-07
-5.27692e-07
-4.48492e-07
-3.25115e-07
-2.08768e-07
-6.28973e-07
-5.79623e-07
-5.02282e-07
-3.64881e-07
-2.52191e-07
-6.60043e-07
-6.06798e-07
-5.32779e-07
-3.85875e-07
-2.77011e-07
-5.51268e-07
-5.10414e-07
-3.98594e-07
-2.72069e-07
-1.21819e-07
-6.78983e-07
-6.26892e-07
-5.20213e-07
-3.59312e-07
-2.22607e-07
-7.89481e-07
-7.26128e-07
-6.27123e-07
-4.30736e-07
-3.09808e-07
-8.75485e-07
-7.95607e-07
-7.14189e-07
-4.77551e-07
-3.78362e-07
-9.22419e-07
-8.30352e-07
-7.6503e-07
-5.02071e-07
-4.19144e-07
-7.11917e-07
-6.76641e-07
-5.00515e-07
-3.48446e-07
-1.64459e-07
-9.27733e-07
-8.6363e-07
-7.20903e-07
-4.70253e-07
-3.40277e-07
-1.09184e-06
-9.95867e-07
-8.90835e-07
-5.58497e-07
-4.76602e-07
-1.2252e-06
-1.08431e-06
-1.03517e-06
-6.0592e-07
-5.85903e-07
-1.29708e-06
-1.12636e-06
-1.12006e-06
-6.32277e-07
-6.5404e-07
-8.85581e-07
-8.79382e-07
-5.84373e-07
-4.25409e-07
-2.1276e-07
-1.2708e-06
-1.20273e-06
-1.01156e-06
-6.13624e-07
-5.25138e-07
-1.5129e-06
-1.3668e-06
-1.2716e-06
-7.28686e-07
-7.33237e-07
-1.72229e-06
-1.47707e-06
-1.50986e-06
-7.55996e-07
-9.039e-07
-1.83085e-06
-1.52231e-06
-1.64987e-06
-7.84133e-07
-1.01766e-06
-1.09286e-06
-1.16349e-06
-6.3021e-07
-5.37958e-07
-2.67336e-07
-1.74514e-06
-1.70811e-06
-1.42715e-06
-8.12922e-07
-7.83136e-07
-2.0976e-06
-1.89323e-06
-1.78716e-06
-1.00317e-06
-1.10708e-06
-2.42764e-06
-2.0267e-06
-2.19659e-06
-9.43924e-07
-1.36632e-06
-2.58674e-06
-2.05278e-06
-2.42197e-06
-9.88262e-07
-1.55666e-06
-1.39797e-06
-1.57882e-06
-4.45487e-07
-7.76669e-07
-3.4614e-07
-2.42928e-06
-2.44803e-06
-1.92179e-06
-1.03701e-06
-1.19212e-06
-2.89102e-06
-2.60648e-06
-2.39566e-06
-1.44227e-06
-1.63901e-06
-3.38427e-06
-2.75001e-06
-3.12686e-06
-1.13054e-06
-2.02815e-06
-3.61946e-06
-2.70439e-06
-3.48271e-06
-1.24875e-06
-2.38725e-06
2.1503e-06
7.3866e-07
2.51615e-06
1.74829e-06
5.60926e-07
7.23791e-07
-4.63323e-07
-1.14379e-07
1.65622e-06
-1.2789e-06
-1.53724e-06
-1.68922e-06
-1.5405e-06
3.25045e-07
-2.08088e-06
-3.6799e-06
-2.32869e-06
-3.36929e-06
9.49403e-07
-2.92436e-06
-4.7087e-06
-2.52826e-06
-4.35945e-06
1.64164e-06
-3.79237e-06
-1.03252e-05
-1.13296e-05
-6.96692e-06
-1.06097e-05
-5.76572e-06
-1.12043e-05
-1.26378e-05
-1.01278e-05
-9.72869e-06
-5.88473e-06
-1.18425e-05
-1.13248e-05
-9.56882e-06
-1.04084e-05
-6.25098e-06
-1.22102e-05
-1.14294e-05
-1.06986e-05
-8.57591e-06
-6.89455e-06
-1.17836e-05
-1.07783e-05
-9.8681e-06
-8.70918e-06
-5.9862e-06
1.66521e-05
7.61988e-06
2.19675e-05
1.33594e-05
5.10583e-06
1.88172e-05
5.48952e-06
1.19264e-05
1.43378e-05
-3.99089e-06
4.08538e-06
1.31399e-06
3.94694e-06
4.89847e-06
-3.95972e-06
-3.41327e-06
2.35305e-06
-2.68762e-06
1.14115e-05
-6.33568e-06
-6.93676e-06
2.98559e-06
-7.33277e-06
1.83443e-05
-1.48592e-05
-3.05388e-05
-2.91666e-05
-3.08956e-05
-3.50312e-05
-1.69931e-05
-3.45979e-05
-3.0086e-05
-3.18014e-05
-3.34408e-05
-9.79213e-06
-2.83436e-05
-2.41504e-05
-2.43398e-05
-3.15093e-05
-8.14722e-06
-2.77574e-05
-2.62982e-05
-2.42778e-05
-2.21474e-05
-1.34771e-05
-2.66942e-05
-2.55422e-05
-1.79608e-05
-3.66665e-05
1.0704e-06
3.71151e-05
-1.69415e-05
0.000103529
3.51648e-05
-7.18261e-06
0.00010914
-2.346e-05
6.53436e-05
2.31894e-05
-5.36597e-05
1.72776e-06
-6.98401e-06
9.326e-07
-2.96489e-05
-2.28884e-05
-1.18561e-05
5.45104e-06
-8.06096e-06
3.19792e-06
-2.3738e-05
-1.37936e-05
1.59244e-06
-1.3126e-05
8.47719e-05
-8.19427e-05
0.00127068
0.000663749
0.000527841
0.000642688
0.00109926
0.00102772
0.00106172
0.000597754
0.00071264
0.000607609
0.00106753
0.000815638
0.000700018
0.000830602
0.000817009
0.000836538
0.0011903
0.00104224
0.00106047
0.000974271
0.00132014
0.000666204
0.000868024
0.000979067
0.00082234
0.00200797
0.00181301
0.00144901
0.00121844
0.001525
0.00166541
0.00157433
0.00131064
0.00166402
0.00173538
0.00221789
0.00176236
0.00144804
0.00148828
0.00207791
0.00175592
0.00197541
0.00179002
0.00196636
0.00195544
0.0016841
0.00157648
0.00161564
0.00141524
0.00228321
0.00239197
0.00290342
0.0029742
0.00274323
0.003196
0.00244191
0.0022909
0.00245314
0.00246652
0.0023888
0.00254033
0.00261974
0.00224306
0.00269139
0.00242577
0.00243265
0.00235279
0.00230684
0.002314
0.00237783
0.00214002
0.00265091
0.00256181
0.00255715
0.00252396
0.00290221
0.00345984
0.00296186
0.00351321
0.0036203
0.00322003
0.00330371
0.00344811
0.00301366
0.00339682
0.00316668
0.00366946
0.00307002
0.00319103
0.00317209
0.00367319
0.00322117
0.00350309
0.00272219
0.00322903
0.00354385
0.00345079
0.00423432
0.00278839
0.00298256
0.00421762
0.00463988
0.00377904
0.00429995
0.00358254
0.00398518
0.00393387
0.00421828
0.00405573
0.00414976
0.00411955
0.0042375
0.00414144
0.0039641
0.00393802
0.00420864
0.00424841
0.00427994
0.0041785
0.00426325
0.00405576
0.00404781
0.00432355
0.00412985
0.0037461
0.00475073
0.00459505
0.00464377
0.00463208
0.00493421
0.00396382
0.00467019
0.00464813
0.00478815
0.0044223
0.00452947
0.0050031
0.005081
0.004858
0.00434212
0.00458309
0.00460042
0.00483217
0.00472406
0.00491309
0.00485979
0.00473728
0.00493104
0.00492873
0.00438325
0.00560871
0.00469226
0.00499699
0.00549411
0.00544193
0.00560011
0.00515942
0.00503715
0.00528315
0.0052767
0.00562425
0.00518174
0.00544951
0.00534452
0.00521501
0.00466788
0.00505826
0.00527939
0.00492939
0.00568639
0.00576989
0.0051262
0.00541425
0.00512918
0.00579776
0.0060654
0.00621784
0.00592146
0.00636186
0.00558332
0.00623138
0.00622411
0.0056378
0.00580425
0.00576345
0.00612184
0.00530969
0.00581585
0.00565142
0.00588917
0.00686117
0.00619911
0.00568138
0.00580044
0.00599562
0.00644095
0.00635941
0.00555957
0.00567845
0.00599366
0.00630641
0.00663191
0.00641851
0.00612692
0.00640519
0.00636435
0.00662475
0.00643016
0.00660159
0.00619561
0.00648783
0.00683963
0.00662913
0.00671922
0.00670406
0.00661199
0.00662269
0.00654449
0.00648391
0.00621619
0.00677818
0.00675663
0.00698783
0.00707905
0.00640678
0.0066492
0.00695937
0.00676882
0.00704318
0.00715458
0.00692284
0.00692999
0.00688696
0.00704238
0.00692138
0.00701321
0.00698042
0.00697084
0.00703248
0.00708181
0.00683502
0.00692222
0.00711906
0.0070654
0.00699065
0.00704964
0.00713006
0.00722796
0.00715557
0.00716257
0.00711789
0.00712541
0.00713468
0.00718143
0.00714877
0.00711573
0.00714812
0.00714488
0.00710022
0.00714952
0.0071256
0.00712115
0.00711259
0.00715127
0.00712929
0.00711358
0.00715445
0.00715054
0.00716139
0.00718686
0.00708947
0.0071447
0.00712805
0.00717271
0.00717484
0.00709579
0.00708474
0.00710586
0.00706433
0.00710205
0.00710962
0.00710578
0.00710219
0.00710371
0.00710427
0.00708158
0.00710544
0.00711178
0.00710597
0.00710594
0.00707509
0.00710347
0.00711863
0.00712282
0.00712044
0.00710563
0.00711307
0.00712703
0.00713544
0.0071292
0.00709585
0.00709317
0.00709998
0.00710127
0.0071021
0.00710238
0.00710245
0.00710475
0.00709647
0.00710597
0.00709683
0.00709746
0.00709898
0.00710048
0.00710347
0.00710101
0.00710608
0.00710967
0.00711296
0.00711336
0.00709495
0.00710557
0.00710595
0.00711521
0.00711523
0.00709731
0.00709482
0.00709935
0.0070941
0.00710014
0.00710129
0.00710071
0.00710287
0.00709986
0.00710308
0.00709836
0.0071
0.00710206
0.00710251
0.00710399
0.00710147
0.00710383
0.0071056
0.00710683
0.00710692
0.00710074
0.00710392
0.00710542
0.00710859
0.00710805
0.00709711
0.00709609
0.00709847
0.00709615
0.00709877
0.00710034
0.00709986
0.00710105
0.00709915
0.0071009
0.00709888
0.00709933
0.00710043
0.00710053
0.00710145
0.00710129
0.00710202
0.00710282
0.00710329
0.00710334
0.00710045
0.00710199
0.00710252
0.0071041
0.0071039
0.00709731
0.00709677
0.00709798
0.00709665
0.00709802
0.00709955
0.00709917
0.00709978
0.00709866
0.00709947
0.00709881
0.00709902
0.00709959
0.00709956
0.00709994
0.00710044
0.00710068
0.00710105
0.00710116
0.00710114
0.00710002
0.00710068
0.00710092
0.00710162
0.00710146
0.00709736
0.00709706
0.00709767
0.00709692
0.00709755
0.00709885
0.0070986
0.0070989
0.00709821
0.0070985
0.00709854
0.00709862
0.00709886
0.00709884
0.00709896
0.00709959
0.00709965
0.0070998
0.00709978
0.00709971
0.00709943
0.00709969
0.0070998
0.00710007
0.00709992
0.0070973
0.00709716
0.00709744
0.00709705
0.00709725
0.00709828
0.00709813
0.00709823
0.00709785
0.00709788
0.00709823
0.00709826
0.00709836
0.00709831
0.0070983
0.00709888
0.00709888
0.00709893
0.00709886
0.00709876
0.00709885
0.00709895
0.00709897
0.00709906
0.00709894
0.00709725
0.00709719
0.00709727
0.00709708
0.00709706
0.00709784
0.00709776
0.00709776
0.00709756
0.0070975
0.00709794
0.00709794
0.00709797
0.00709791
0.00709784
0.00709832
0.00709831
0.0070983
0.00709824
0.00709815
0.00709836
0.00709839
0.00709839
0.00709838
0.00709829
0.00709718
0.00709715
0.00709714
0.00709704
0.00709696
0.00709753
0.00709749
0.00709745
0.00709735
0.00709726
0.00709769
0.00709768
0.00709766
0.0070976
0.00709752
0.0070979
0.00709789
0.00709787
0.00709781
0.00709773
0.00709797
0.00709797
0.00709795
0.00709791
0.00709784
0.0070971
0.00709708
0.00709705
0.00709697
0.00709689
0.00709731
0.00709729
0.00709725
0.00709719
0.00709711
0.00709746
0.00709745
0.00709742
0.00709737
0.0070973
0.0070976
0.00709759
0.00709756
0.00709751
0.00709744
0.00709766
0.00709765
0.00709763
0.00709758
0.00709752
0.00709702
0.007097
0.00709697
0.00709692
0.00709685
0.00709716
0.00709715
0.00709712
0.00709707
0.00709701
0.00709728
0.00709727
0.00709724
0.0070972
0.00709714
0.00709738
0.00709736
0.00709734
0.0070973
0.00709724
0.00709742
0.00709741
0.00709739
0.00709735
0.0070973
0.00709695
0.00709693
0.00709691
0.00709687
0.00709682
0.00709705
0.00709704
0.00709701
0.00709698
0.00709693
0.00709714
0.00709713
0.00709711
0.00709707
0.00709703
0.00709721
0.0070972
0.00709718
0.00709714
0.0070971
0.00709724
0.00709723
0.00709721
0.00709718
0.00709714
0.00709689
0.00709688
0.00709686
0.00709683
0.0070968
0.00709697
0.00709696
0.00709694
0.00709691
0.00709688
0.00709703
0.00709703
0.00709701
0.00709698
0.00709695
0.00709708
0.00709707
0.00709706
0.00709703
0.007097
0.00709711
0.0070971
0.00709708
0.00709706
0.00709703
0.00709685
0.00709684
0.00709683
0.0070968
0.00709678
0.00709691
0.0070969
0.00709688
0.00709686
0.00709684
0.00709695
0.00709695
0.00709693
0.00709691
0.00709689
0.00709699
0.00709698
0.00709697
0.00709695
0.00709693
0.00709701
0.007097
0.00709699
0.00709697
0.00709695
0.00709682
0.00709681
0.0070968
0.00709678
0.00709676
0.00709686
0.00709685
0.00709684
0.00709683
0.00709681
0.00709689
0.00709689
0.00709688
0.00709686
0.00709684
0.00709692
0.00709691
0.0070969
0.00709689
0.00709687
0.00709693
0.00709693
0.00709692
0.0070969
0.00709689
0.00709679
0.00709679
0.00709678
0.00709677
0.00709675
0.00709682
0.00709682
0.00709681
0.0070968
0.00709678
0.00709685
0.00709684
0.00709684
0.00709682
0.00709681
0.00709687
0.00709686
0.00709685
0.00709684
0.00709683
0.00709688
0.00709687
0.00709686
0.00709685
0.00709684
0.00709677
0.00709677
0.00709676
0.00709675
0.00709674
0.00709679
0.00709679
0.00709678
0.00709678
0.00709677
0.00709681
0.00709681
0.0070968
0.0070968
0.00709679
0.00709683
0.00709682
0.00709682
0.00709681
0.0070968
0.00709683
0.00709683
0.00709683
0.00709682
0.00709681
0.00709676
0.00709675
0.00709675
0.00709674
0.00709674
0.00709677
0.00709677
0.00709677
0.00709676
0.00709675
0.00709679
0.00709678
0.00709678
0.00709677
0.00709677
0.0070968
0.0070968
0.00709679
0.00709678
0.00709678
0.0070968
0.0070968
0.0070968
0.00709679
0.00709678
0.00709675
0.00709674
0.00709674
0.00709673
0.00709673
0.00709676
0.00709676
0.00709675
0.00709675
0.00709674
0.00709677
0.00709677
0.00709676
0.00709676
0.00709675
0.00709677
0.00709677
0.00709677
0.00709677
0.00709676
0.00709678
0.00709678
0.00709677
0.00709677
0.00709676
0.00709674
0.00709673
0.00709673
0.00709673
0.00709672
0.00709674
0.00709674
0.00709674
0.00709674
0.00709673
0.00709675
0.00709675
0.00709675
0.00709674
0.00709674
0.00709676
0.00709676
0.00709675
0.00709675
0.00709675
0.00709676
0.00709676
0.00709676
0.00709675
0.00709675
0.00709673
0.00709673
0.00709672
0.00709672
0.00709672
0.00709673
0.00709673
0.00709673
0.00709673
0.00709673
0.00709674
0.00709674
0.00709674
0.00709673
0.00709673
0.00709674
0.00709674
0.00709674
0.00709674
0.00709674
0.00709675
0.00709675
0.00709674
0.00709674
0.00709674
0.00709672
0.00709672
0.00709672
0.00709672
0.00709672
0.00709673
0.00709673
0.00709672
0.00709672
0.00709672
0.00709673
0.00709673
0.00709673
0.00709673
0.00709672
0.00709673
0.00709673
0.00709673
0.00709673
0.00709673
0.00709674
0.00709673
0.00709673
0.00709673
0.00709673
0.00709672
0.00709672
0.00709671
0.00709671
0.00709671
0.00709672
0.00709672
0.00709672
0.00709672
0.00709672
0.00709672
0.00709672
0.00709672
0.00709672
0.00709672
0.00709673
0.00709673
0.00709672
0.00709672
0.00709672
0.00709673
0.00709673
0.00709673
0.00709672
0.00709672
0.00709671
0.00709671
0.00709671
0.00709671
0.00709671
0.00709671
0.00709671
0.00709671
0.00709671
0.00709671
0.00709672
0.00709672
0.00709672
0.00709672
0.00709671
0.00709672
0.00709672
0.00709672
0.00709672
0.00709672
0.00709672
0.00709672
0.00709672
0.00709672
0.00709672
0.00709671
0.00709671
0.00709671
0.00709671
0.00709671
0.00709671
0.00709671
0.00709671
0.00709671
0.00709671
0.00709671
0.00709671
0.00709671
0.00709671
0.00709671
0.00709671
0.00709671
0.00709671
0.00709671
0.00709671
0.00709672
0.00709672
0.00709671
0.00709671
0.00709671
0.00709671
0.00709671
0.00709671
0.00709671
0.0070967
0.00709671
0.00709671
0.00709671
0.00709671
0.00709671
0.00709671
0.00709671
0.00709671
0.00709671
0.00709671
0.00709671
0.00709671
0.00709671
0.00709671
0.00709671
0.00709671
0.00709671
0.00709671
0.00709671
0.00709671
0.0070967
0.0070967
0.0070967
0.0070967
0.0070967
0.0070967
0.0070967
0.0070967
0.0070967
0.0070967
0.00709671
0.00709671
0.00709671
0.00709671
0.00709671
0.00709671
0.00709671
0.00709671
0.00709671
0.00709671
0.00709671
0.00709671
0.00709671
0.00709671
0.00709671
0.0070967
0.0070967
0.0070967
0.0070967
0.0070967
0.0070967
0.0070967
0.0070967
0.0070967
0.0070967
0.0070967
0.0070967
0.0070967
0.0070967
0.0070967
0.0070967
0.0070967
0.0070967
0.0070967
0.0070967
0.0070967
0.0070967
0.0070967
0.0070967
0.0070967
0.0070967
0.0070967
0.0070967
0.0070967
0.0070967
0.0070967
0.0070967
0.0070967
0.0070967
0.0070967
0.0070967
0.0070967
0.0070967
0.0070967
0.0070967
0.0070967
0.0070967
0.0070967
0.0070967
0.0070967
0.0070967
0.0070967
0.0070967
0.0070967
0.0070967
0.0070967
0.0070967
0.0070967
0.0070967
0.0070967
0.0070967
0.0070967
0.0070967
0.0070967
0.0070967
0.0070967
0.0070967
0.0070967
0.0070967
0.0070967
0.0070967
0.0070967
0.0070967
0.0070967
0.0070967
0.0070967
0.0070967
0.0070967
0.0070967
0.0070967
0.0070967
0.0070967
0.0070967
0.0070967
0.0070967
0.0070967
0.0070967
0.0070967
0.0070967
0.0070967
0.0070967
0.0070967
0.0070967
0.0070967
0.0070967
0.0070967
0.0070967
0.0070967
0.0070967
0.0070967
0.0070967
0.0070967
0.0070967
0.0070967
0.0070967
0.0070967
0.0070967
0.0070967
0.00709669
0.00709669
0.0070967
0.0070967
0.0070967
0.0070967
0.00709669
0.0070967
0.0070967
0.0070967
0.0070967
0.00709669
0.0070967
0.0070967
0.0070967
0.0070967
0.00709669
0.0070967
0.0070967
0.0070967
0.0070967
0.00709669
0.00709669
0.00709669
0.00709669
0.00709669
0.00709669
0.00709669
0.00709669
0.00709669
0.00709669
0.00709669
0.0070967
0.00709669
0.00709669
0.00709669
0.00709669
0.0070967
0.00709669
0.00709669
0.00709669
0.00709669
0.0070967
0.0070967
0.00709669
0.00709669
0.00709669
0.00709669
0.00709669
0.00709669
0.00709669
0.00709669
0.00709669
0.00709669
0.00709669
0.00709669
0.00709669
0.00709669
0.00709669
0.00709669
0.00709669
0.00709669
0.00709669
0.00709669
0.00709669
0.00709669
0.00709669
0.00709669
0.00709669
0.00709669
0.00709669
0.00709669
0.00709669
0.00709669
0.00709669
0.00709669
0.00709669
0.00709669
0.00709669
0.00709669
0.00709669
0.00709669
0.00709669
0.00709669
0.00709669
0.00709669
0.00709669
0.00709669
0.00709669
0.00709669
0.00709669
0.00709669
0.00709669
0.00709669
0.00709669
0.00709669
0.00709669
0.00709669
0.00709669
0.00709669
0.00709669
0.00709669
0.00709669
0.00709669
0.00709669
0.00709669
0.00709669
0.00709669
0.00709669
0.00709669
0.00709669
0.00709669
0.00709669
0.00709669
0.00709669
0.00709669
0.00709669
0.00709669
0.00709669
0.00709669
0.00709669
0.00709669
0.00709669
0.00709669
0.00709669
0.00709669
0.00709669
0.00709669
0.00709669
0.00709669
0.00709669
0.00709669
0.00709669
0.00709669
0.00709669
0.00709669
0.00709669
0.00709669
0.00709669
0.00709669
0.00709669
0.00709669
0.00709669
0.00709669
0.00709669
0.00709669
0.00709669
0.00709669
0.00709669
0.00709669
0.00709669
0.00709669
0.00709669
0.00709669
0.00709669
0.00709669
0.00709669
0.00709669
0.00709669
0.00709669
0.00709669
0.00709669
0.00709669
0.00709669
0.00709669
0.00709669
0.00709669
0.00709669
0.00709669
0.00709669
0.00709669
0.00709669
)
;

boundaryField
{
    inlet
    {
        type            zeroGradient;
    }
    outlet
    {
        type            fixedValue;
        value           uniform 0;
    }
    repeat_boundary
    {
        type            zeroGradient;
    }
    procBoundary2to0
    {
        type            processor;
        value           nonuniform List<scalar> 
450
(
-1.47706e-10
-1.85837e-10
-2.56436e-10
-3.00891e-10
-2.88282e-10
-4.98316e-10
-6.14489e-10
-7.70681e-10
-8.54638e-10
-7.90608e-10
-9.53377e-10
-1.08975e-09
-1.22657e-09
-1.30696e-09
-1.26394e-09
-1.49234e-09
-1.56042e-09
-1.58815e-09
-1.60094e-09
-1.57981e-09
-2.02593e-09
-2.0114e-09
-1.95367e-09
-1.86961e-09
-1.7498e-09
-2.4838e-09
-2.44881e-09
-2.39295e-09
-2.25999e-09
-1.95592e-09
-2.88778e-09
-2.87654e-09
-2.84963e-09
-2.74335e-09
-2.39817e-09
-3.31744e-09
-3.30427e-09
-3.26207e-09
-3.18934e-09
-3.03649e-09
-3.84592e-09
-3.80071e-09
-3.72741e-09
-3.66723e-09
-3.64372e-09
-4.53594e-09
-4.4733e-09
-4.38521e-09
-4.30484e-09
-4.25344e-09
-5.38198e-09
-5.30629e-09
-5.18437e-09
-5.06766e-09
-5.04038e-09
-6.22471e-09
-6.10014e-09
-5.90111e-09
-5.73328e-09
-5.7911e-09
-6.87591e-09
-6.6852e-09
-6.39897e-09
-6.13193e-09
-6.12872e-09
-7.33856e-09
-7.10323e-09
-6.74388e-09
-6.33182e-09
-6.11649e-09
-7.80622e-09
-7.535e-09
-7.07586e-09
-6.48231e-09
-6.01824e-09
-8.52328e-09
-8.17504e-09
-7.51389e-09
-6.65044e-09
-5.88513e-09
-9.67069e-09
-9.16533e-09
-8.19249e-09
-6.95099e-09
-5.82769e-09
-1.13051e-08
-1.05854e-08
-9.26031e-09
-7.54302e-09
-5.91108e-09
-1.34969e-08
-1.25497e-08
-1.08189e-08
-8.46389e-09
-5.94322e-09
-1.65159e-08
-1.5293e-08
-1.29998e-08
-9.80177e-09
-6.07185e-09
-2.07447e-08
-1.91361e-08
-1.60479e-08
-1.17518e-08
-6.65934e-09
-2.65223e-08
-2.4358e-08
-2.01332e-08
-1.43008e-08
-7.49806e-09
-3.41799e-08
-3.11898e-08
-2.53694e-08
-1.74023e-08
-8.17743e-09
-4.43136e-08
-4.01792e-08
-3.22026e-08
-2.12995e-08
-8.56698e-09
-5.80399e-08
-5.2354e-08
-4.13949e-08
-2.63915e-08
-8.77804e-09
-7.67884e-08
-6.89351e-08
-5.39018e-08
-3.3356e-08
-9.27798e-09
-1.02272e-07
-9.15181e-08
-7.11289e-08
-4.32527e-08
-1.06202e-08
-1.37051e-07
-1.22526e-07
-9.49524e-08
-5.7222e-08
-1.30183e-08
-1.84779e-07
-1.65311e-07
-1.27699e-07
-7.66354e-08
-1.64036e-08
-2.50354e-07
-2.24518e-07
-1.72536e-07
-1.0406e-07
-2.1589e-08
-3.4089e-07
-3.07852e-07
-2.33984e-07
-1.44657e-07
-3.04389e-08
-4.69955e-07
-4.318e-07
-3.20969e-07
-2.10539e-07
-4.55717e-08
-6.66829e-07
-6.28208e-07
-4.58188e-07
-3.27207e-07
-7.76188e-08
-9.69446e-07
-9.36058e-07
-6.81532e-07
-5.29489e-07
-1.5071e-07
-1.42313e-06
-1.40413e-06
-1.02194e-06
-8.5035e-07
-2.77333e-07
-2.05705e-06
-2.05427e-06
-1.4474e-06
-1.30403e-06
-4.11659e-07
2.72161e-07