/*--------------------------------*- C++ -*----------------------------------*\
| =========                 |                                                 |
| \\      /  F ield         | OpenFOAM: The Open Source CFD Toolbox           |
|  \\    /   O peration     | Version:  5.x                                   |
|   \\  /    A nd           | Web:      www.OpenFOAM.org                      |
|    \\/     M anipulation  |                                                 |
\*---------------------------------------------------------------------------*/
FoamFile
{
    version     2.0;
    format      ascii;
    class       volVectorField;
    location    "0.06";
    object      stored_U;
}
// * * * * * * * * * * * * * * * * * * * * * * * * * * * * * * * * * * * * * //

dimensions      [0 1 -1 0 0 0 0];

internalField   nonuniform List<vector> 
2250
(
(-1.82969e-10 -3.38296e-11 -0.000999999)
(-1.69208e-10 -3.39898e-11 -0.000999999)
(-1.37573e-10 -3.35265e-11 -0.000999999)
(-8.89736e-11 -3.313e-11 -0.000999999)
(-3.05355e-11 -3.23266e-11 -0.001)
(-1.83598e-10 -9.07427e-11 -0.000999999)
(-1.69271e-10 -9.1609e-11 -0.000999999)
(-1.37e-10 -8.9674e-11 -0.000999999)
(-8.80006e-11 -8.82986e-11 -0.001)
(-2.98385e-11 -8.6872e-11 -0.001)
(-1.80051e-10 -1.29433e-10 -0.000999999)
(-1.68513e-10 -1.3559e-10 -0.000999999)
(-1.34564e-10 -1.33009e-10 -0.001)
(-8.65308e-11 -1.31262e-10 -0.001)
(-2.93314e-11 -1.30359e-10 -0.001)
(-1.70964e-10 -1.4415e-10 -0.000999999)
(-1.72872e-10 -1.68026e-10 -0.001)
(-1.32697e-10 -1.72492e-10 -0.001)
(-8.56266e-11 -1.73951e-10 -0.001)
(-2.91909e-11 -1.74621e-10 -0.001)
(-1.48774e-10 -2.05416e-10 -0.000999999)
(-1.96978e-10 -1.79476e-10 -0.001)
(-1.40512e-10 -1.82972e-10 -0.001)
(-8.90229e-11 -1.87779e-10 -0.001)
(-3.03381e-11 -1.90391e-10 -0.001)
(-5.19061e-10 -9.19458e-11 -0.000999998)
(-4.78136e-10 -9.1958e-11 -0.000999999)
(-3.89315e-10 -9.05808e-11 -0.000999999)
(-2.50643e-10 -8.89901e-11 -0.000999999)
(-8.53878e-11 -8.58499e-11 -0.000999999)
(-5.19982e-10 -2.54151e-10 -0.000999999)
(-4.77712e-10 -2.53336e-10 -0.000999999)
(-3.87091e-10 -2.47114e-10 -0.000999999)
(-2.46512e-10 -2.41681e-10 -0.000999999)
(-8.25459e-11 -2.36338e-10 -0.001)
(-5.08882e-10 -3.70494e-10 -0.000999999)
(-4.72056e-10 -3.80182e-10 -0.000999999)
(-3.78444e-10 -3.71509e-10 -0.000999999)
(-2.40805e-10 -3.64116e-10 -0.001)
(-8.06506e-11 -3.60172e-10 -0.001)
(-4.78392e-10 -4.0321e-10 -0.000999999)
(-4.78764e-10 -4.67454e-10 -0.000999999)
(-3.71091e-10 -4.80622e-10 -0.001)
(-2.35905e-10 -4.81452e-10 -0.001)
(-7.92986e-11 -4.79934e-10 -0.001)
(-3.8407e-10 -5.93317e-10 -0.000999999)
(-5.49348e-10 -5.22049e-10 -0.001)
(-3.92474e-10 -5.20265e-10 -0.001)
(-2.41032e-10 -5.29046e-10 -0.001)
(-8.00375e-11 -5.34661e-10 -0.001)
(-9.29454e-10 -1.54435e-10 -0.000999998)
(-8.53374e-10 -1.52228e-10 -0.000999999)
(-6.90284e-10 -1.49398e-10 -0.000999999)
(-4.42562e-10 -1.46004e-10 -0.000999999)
(-1.50181e-10 -1.40882e-10 -0.000999999)
(-9.29435e-10 -4.43455e-10 -0.000999998)
(-8.49948e-10 -4.31484e-10 -0.000999999)
(-6.85344e-10 -4.18763e-10 -0.000999999)
(-4.35111e-10 -4.07707e-10 -0.000999999)
(-1.45603e-10 -3.98599e-10 -0.001)
(-9.10872e-10 -6.66252e-10 -0.000999999)
(-8.30331e-10 -6.57137e-10 -0.000999999)
(-6.67868e-10 -6.39561e-10 -0.000999999)
(-4.24018e-10 -6.24476e-10 -0.001)
(-1.42124e-10 -6.16473e-10 -0.001)
(-8.64276e-10 -7.81416e-10 -0.000999999)
(-8.23335e-10 -8.102e-10 -0.000999999)
(-6.52798e-10 -8.18374e-10 -0.001)
(-4.13302e-10 -8.12402e-10 -0.001)
(-1.38832e-10 -8.05954e-10 -0.001)
(-7.32925e-10 -9.99732e-10 -0.000999999)
(-8.67291e-10 -9.35658e-10 -0.001)
(-6.70122e-10 -9.1183e-10 -0.001)
(-4.13142e-10 -9.13449e-10 -0.001)
(-1.37192e-10 -9.16642e-10 -0.001)
(-1.44185e-09 -2.25791e-10 -0.000999998)
(-1.32575e-09 -2.19504e-10 -0.000999998)
(-1.06328e-09 -2.15128e-10 -0.000999999)
(-6.8208e-10 -2.10292e-10 -0.000999999)
(-2.32328e-10 -2.04453e-10 -0.000999999)
(-1.43891e-09 -6.6284e-10 -0.000999998)
(-1.3175e-09 -6.33874e-10 -0.000999999)
(-1.05601e-09 -6.14776e-10 -0.000999999)
(-6.73009e-10 -5.99546e-10 -0.000999999)
(-2.27292e-10 -5.88736e-10 -0.001)
(-1.41298e-09 -1.02142e-09 -0.000999998)
(-1.2802e-09 -9.77991e-10 -0.000999999)
(-1.03103e-09 -9.49251e-10 -0.000999999)
(-6.58475e-10 -9.28856e-10 -0.001)
(-2.23075e-10 -9.19161e-10 -0.001)
(-1.35976e-09 -1.26263e-09 -0.000999999)
(-1.24546e-09 -1.21987e-09 -0.000999999)
(-1.00706e-09 -1.20538e-09 -0.001)
(-6.44798e-10 -1.19287e-09 -0.001)
(-2.19355e-10 -1.18601e-09 -0.001)
(-1.24593e-09 -1.43616e-09 -0.000999999)
(-1.22298e-09 -1.41482e-09 -0.001)
(-1.00418e-09 -1.3778e-09 -0.001)
(-6.41669e-10 -1.36818e-09 -0.001)
(-2.18678e-10 -1.36691e-09 -0.001)
(-2.096e-09 -3.09776e-10 -0.000999997)
(-1.93058e-09 -3.00148e-10 -0.000999998)
(-1.53793e-09 -2.95654e-10 -0.000999999)
(-9.88204e-10 -2.91224e-10 -0.000999999)
(-3.38222e-10 -2.8647e-10 -0.000999999)
(-2.08936e-09 -9.16196e-10 -0.000999998)
(-1.91994e-09 -8.74888e-10 -0.000999998)
(-1.53184e-09 -8.55496e-10 -0.000999999)
(-9.81353e-10 -8.41743e-10 -0.000999999)
(-3.34602e-10 -8.33171e-10 -0.001)
(-2.06076e-09 -1.43449e-09 -0.000999998)
(-1.87356e-09 -1.36189e-09 -0.000999999)
(-1.50783e-09 -1.33091e-09 -0.000999999)
(-9.69409e-10 -1.31413e-09 -0.001)
(-3.31875e-10 -1.30856e-09 -0.001)
(-2.02044e-09 -1.81445e-09 -0.000999998)
(-1.81659e-09 -1.72297e-09 -0.000999999)
(-1.48435e-09 -1.69091e-09 -0.001)
(-9.61674e-10 -1.68019e-09 -0.001)
(-3.31538e-10 -1.67987e-09 -0.001)
(-1.97112e-09 -1.93499e-09 -0.000999999)
(-1.74996e-09 -1.98624e-09 -0.001)
(-1.46519e-09 -1.95825e-09 -0.001)
(-9.61746e-10 -1.94513e-09 -0.001)
(-3.34756e-10 -1.94094e-09 -0.001)
(-2.93956e-09 -4.13527e-10 -0.000999997)
(-2.70613e-09 -4.05964e-10 -0.000999998)
(-2.14789e-09 -4.03491e-10 -0.000999999)
(-1.38175e-09 -4.01243e-10 -0.000999999)
(-4.74457e-10 -3.98543e-10 -0.001)
(-2.93133e-09 -1.22099e-09 -0.000999997)
(-2.701e-09 -1.1887e-09 -0.000999998)
(-2.14714e-09 -1.17704e-09 -0.000999999)
(-1.38003e-09 -1.16999e-09 -0.000999999)
(-4.73311e-10 -1.16614e-09 -0.001)
(-2.9071e-09 -1.92025e-09 -0.000999998)
(-2.66727e-09 -1.86057e-09 -0.000999999)
(-2.13334e-09 -1.8429e-09 -0.000999999)
(-1.37572e-09 -1.83709e-09 -0.001)
(-4.73671e-10 -1.83847e-09 -0.001)
(-2.88804e-09 -2.49005e-09 -0.000999998)
(-2.62385e-09 -2.38842e-09 -0.000999999)
(-2.12395e-09 -2.35736e-09 -0.001)
(-1.37933e-09 -2.35229e-09 -0.001)
(-4.78176e-10 -2.3575e-09 -0.001)
(-2.94822e-09 -2.62439e-09 -0.000999999)
(-2.53472e-09 -2.72885e-09 -0.001)
(-2.09743e-09 -2.72045e-09 -0.001)
(-1.38055e-09 -2.71142e-09 -0.001)
(-4.83318e-10 -2.70477e-09 -0.001)
(-4.04087e-09 -5.56462e-10 -0.000999996)
(-3.70564e-09 -5.55286e-10 -0.000999997)
(-2.93727e-09 -5.55263e-10 -0.000999999)
(-1.88961e-09 -5.54925e-10 -0.000999999)
(-6.49691e-10 -5.53659e-10 -0.001)
(-4.03427e-09 -1.63728e-09 -0.000999997)
(-3.71125e-09 -1.63095e-09 -0.000999998)
(-2.94238e-09 -1.62865e-09 -0.000999999)
(-1.89257e-09 -1.62768e-09 -0.001)
(-6.50633e-10 -1.62714e-09 -0.001)
(-4.017e-09 -2.57816e-09 -0.000999997)
(-3.70414e-09 -2.56533e-09 -0.000999999)
(-2.93983e-09 -2.56307e-09 -0.001)
(-1.89492e-09 -2.56515e-09 -0.001)
(-6.53418e-10 -2.56929e-09 -0.001)
(-4.00531e-09 -3.35663e-09 -0.000999998)
(-3.69645e-09 -3.31517e-09 -0.001)
(-2.94273e-09 -3.29279e-09 -0.001)
(-1.90404e-09 -3.28738e-09 -0.001)
(-6.59654e-10 -3.2883e-09 -0.001)
(-4.09032e-09 -3.71016e-09 -0.000999999)
(-3.64025e-09 -3.76226e-09 -0.001)
(-2.91236e-09 -3.75666e-09 -0.001)
(-1.89697e-09 -3.74573e-09 -0.001)
(-6.60542e-10 -3.73211e-09 -0.001)
(-5.50273e-09 -7.65426e-10 -0.000999995)
(-5.01691e-09 -7.68336e-10 -0.000999997)
(-3.97558e-09 -7.68593e-10 -0.000999998)
(-2.55607e-09 -7.68145e-10 -0.000999999)
(-8.79214e-10 -7.67485e-10 -0.001)
(-5.49907e-09 -2.25074e-09 -0.000999996)
(-5.02933e-09 -2.26281e-09 -0.000999997)
(-3.98278e-09 -2.26274e-09 -0.000999999)
(-2.5611e-09 -2.26186e-09 -0.001)
(-8.81538e-10 -2.26121e-09 -0.001)
(-5.48502e-09 -3.54968e-09 -0.000999997)
(-5.03856e-09 -3.57134e-09 -0.000999998)
(-3.98246e-09 -3.57034e-09 -0.001)
(-2.56382e-09 -3.56873e-09 -0.001)
(-8.8443e-10 -3.56737e-09 -0.001)
(-5.46109e-09 -4.58847e-09 -0.000999998)
(-5.05042e-09 -4.59186e-09 -0.001)
(-3.98083e-09 -4.57231e-09 -0.001)
(-2.5654e-09 -4.55616e-09 -0.001)
(-8.86982e-10 -4.54284e-09 -0.001)
(-5.46084e-09 -5.26049e-09 -0.001)
(-5.02243e-09 -5.19874e-09 -0.001)
(-3.94718e-09 -5.1629e-09 -0.001)
(-2.54338e-09 -5.13638e-09 -0.001)
(-8.79747e-10 -5.10928e-09 -0.001)
(-7.47769e-09 -1.06413e-09 -0.000999994)
(-6.78131e-09 -1.06527e-09 -0.000999996)
(-5.37261e-09 -1.06264e-09 -0.000999998)
(-3.45278e-09 -1.06044e-09 -0.001)
(-1.18851e-09 -1.06052e-09 -0.001)
(-7.4752e-09 -3.13111e-09 -0.000999995)
(-6.79231e-09 -3.13989e-09 -0.000999997)
(-5.37776e-09 -3.13255e-09 -0.000999999)
(-3.45899e-09 -3.12681e-09 -0.001)
(-1.19266e-09 -3.12401e-09 -0.001)
(-7.45862e-09 -4.93542e-09 -0.000999996)
(-6.79578e-09 -4.95467e-09 -0.000999998)
(-5.37013e-09 -4.94013e-09 -0.001)
(-3.45692e-09 -4.92667e-09 -0.001)
(-1.19376e-09 -4.91434e-09 -0.001)
(-7.4161e-09 -6.31186e-09 -0.000999998)
(-6.79762e-09 -6.31713e-09 -0.001)
(-5.35067e-09 -6.28377e-09 -0.001)
(-3.44319e-09 -6.25046e-09 -0.001)
(-1.18973e-09 -6.22034e-09 -0.001)
(-7.31524e-09 -7.26097e-09 -0.001)
(-6.7677e-09 -7.1084e-09 -0.001)
(-5.30402e-09 -7.04046e-09 -0.001)
(-3.40579e-09 -6.99646e-09 -0.00100001)
(-1.17545e-09 -6.95513e-09 -0.00100001)
(-1.01791e-08 -1.47434e-09 -0.000999992)
(-9.19938e-09 -1.47032e-09 -0.000999995)
(-7.28568e-09 -1.46293e-09 -0.000999998)
(-4.68291e-09 -1.45888e-09 -0.001)
(-1.61388e-09 -1.46009e-09 -0.001)
(-1.01744e-08 -4.33014e-09 -0.000999993)
(-9.20486e-09 -4.32459e-09 -0.000999996)
(-7.28775e-09 -4.3062e-09 -0.000999999)
(-4.6914e-09 -4.29527e-09 -0.001)
(-1.62065e-09 -4.28959e-09 -0.001)
(-1.01499e-08 -6.79863e-09 -0.000999995)
(-9.19311e-09 -6.80036e-09 -0.000999998)
(-7.27073e-09 -6.77116e-09 -0.001)
(-4.68357e-09 -6.74717e-09 -0.001)
(-1.61922e-09 -6.72349e-09 -0.001)
(-1.00971e-08 -8.60955e-09 -0.000999997)
(-9.17819e-09 -8.60859e-09 -0.001)
(-7.23579e-09 -8.56345e-09 -0.001)
(-4.65739e-09 -8.51752e-09 -0.001)
(-1.60982e-09 -8.47481e-09 -0.00100001)
(-9.95307e-09 -9.80423e-09 -0.001)
(-9.14705e-09 -9.61887e-09 -0.001)
(-7.18043e-09 -9.53941e-09 -0.00100001)
(-4.61164e-09 -9.49044e-09 -0.00100001)
(-1.59253e-09 -9.44082e-09 -0.00100001)
(-1.38899e-08 -2.02785e-09 -0.000999989)
(-1.25287e-08 -2.01775e-09 -0.000999994)
(-9.9214e-09 -2.00558e-09 -0.000999997)
(-6.37964e-09 -2.00018e-09 -0.001)
(-2.20068e-09 -2.0015e-09 -0.001)
(-1.38812e-08 -5.92773e-09 -0.000999991)
(-1.25294e-08 -5.91065e-09 -0.000999995)
(-9.92215e-09 -5.88369e-09 -0.000999999)
(-6.39099e-09 -5.86925e-09 -0.001)
(-2.2096e-09 -5.85922e-09 -0.001)
(-1.38451e-08 -9.25043e-09 -0.000999993)
(-1.25087e-08 -9.25145e-09 -0.000999997)
(-9.89952e-09 -9.2175e-09 -0.001)
(-6.37872e-09 -9.18907e-09 -0.001)
(-2.20571e-09 -9.15656e-09 -0.00100001)
(-1.37803e-08 -1.16399e-08 -0.000999996)
(-1.24976e-08 -1.16553e-08 -0.001)
(-9.86146e-09 -1.16188e-08 -0.001)
(-6.34866e-09 -1.15737e-08 -0.00100001)
(-2.1946e-09 -1.15252e-08 -0.00100001)
(-1.36264e-08 -1.3187e-08 -0.001)
(-1.24877e-08 -1.2985e-08 -0.001)
(-9.81895e-09 -1.29029e-08 -0.00100001)
(-6.30783e-09 -1.2859e-08 -0.00100001)
(-2.17898e-09 -1.28055e-08 -0.00100001)
(-1.89809e-08 -2.77382e-09 -0.000999986)
(-1.71015e-08 -2.7562e-09 -0.000999991)
(-1.35495e-08 -2.73997e-09 -0.000999996)
(-8.71432e-09 -2.7328e-09 -0.001)
(-3.00635e-09 -2.73213e-09 -0.001)
(-1.89711e-08 -8.06868e-09 -0.000999987)
(-1.70988e-08 -8.04164e-09 -0.000999993)
(-1.35511e-08 -8.00863e-09 -0.000999998)
(-8.72751e-09 -7.99091e-09 -0.001)
(-3.01608e-09 -7.97505e-09 -0.001)
(-1.89242e-08 -1.25364e-08 -0.000999991)
(-1.70741e-08 -1.25434e-08 -0.000999996)
(-1.35254e-08 -1.2509e-08 -0.001)
(-8.71287e-09 -1.24802e-08 -0.00100001)
(-3.01106e-09 -1.24417e-08 -0.00100001)
(-1.88488e-08 -1.57081e-08 -0.000999995)
(-1.70729e-08 -1.57645e-08 -0.001)
(-1.34902e-08 -1.57449e-08 -0.00100001)
(-8.68559e-09 -1.57119e-08 -0.00100001)
(-3.00136e-09 -1.56618e-08 -0.00100001)
(-1.86461e-08 -1.77976e-08 -0.001)
(-1.7111e-08 -1.75585e-08 -0.00100001)
(-1.34743e-08 -1.74727e-08 -0.00100001)
(-8.66066e-09 -1.74314e-08 -0.00100001)
(-2.9905e-09 -1.73718e-08 -0.00100002)
(-2.59543e-08 -3.77909e-09 -0.00099998)
(-2.33726e-08 -3.7529e-09 -0.000999988)
(-1.8534e-08 -3.73298e-09 -0.000999995)
(-1.1919e-08 -3.72322e-09 -0.001)
(-4.10996e-09 -3.71954e-09 -0.001)
(-2.59483e-08 -1.09636e-08 -0.000999983)
(-2.33688e-08 -1.09213e-08 -0.000999991)
(-1.85383e-08 -1.08815e-08 -0.000999998)
(-1.19342e-08 -1.08595e-08 -0.001)
(-4.12045e-09 -1.08372e-08 -0.00100001)
(-2.58913e-08 -1.70116e-08 -0.000999987)
(-2.3335e-08 -1.70066e-08 -0.000999995)
(-1.85084e-08 -1.69667e-08 -0.001)
(-1.19184e-08 -1.69369e-08 -0.00100001)
(-4.11567e-09 -1.68912e-08 -0.00100001)
(-2.58088e-08 -2.1311e-08 -0.000999993)
(-2.33259e-08 -2.13685e-08 -0.001)
(-1.84718e-08 -2.1351e-08 -0.00100001)
(-1.18932e-08 -2.13264e-08 -0.00100001)
(-4.1071e-09 -2.12699e-08 -0.00100002)
(-2.55652e-08 -2.40207e-08 -0.001)
(-2.33751e-08 -2.37821e-08 -0.00100001)
(-1.84682e-08 -2.3689e-08 -0.00100002)
(-1.18793e-08 -2.36428e-08 -0.00100002)
(-4.09933e-09 -2.35702e-08 -0.00100002)
(-3.55052e-08 -5.13627e-09 -0.000999973)
(-3.19743e-08 -5.10252e-09 -0.000999984)
(-2.5374e-08 -5.07835e-09 -0.000999994)
(-1.6315e-08 -5.06533e-09 -0.001)
(-5.6227e-09 -5.0576e-09 -0.001)
(-3.55049e-08 -1.48947e-08 -0.000999976)
(-3.19741e-08 -1.48321e-08 -0.000999987)
(-2.53831e-08 -1.4781e-08 -0.000999997)
(-1.63333e-08 -1.47509e-08 -0.001)
(-5.63428e-09 -1.47178e-08 -0.00100001)
(-3.5427e-08 -2.31248e-08 -0.000999982)
(-3.19213e-08 -2.30832e-08 -0.000999993)
(-2.53421e-08 -2.30271e-08 -0.001)
(-1.63114e-08 -2.29872e-08 -0.00100001)
(-5.62774e-09 -2.29249e-08 -0.00100001)
(-3.53224e-08 -2.90186e-08 -0.000999991)
(-3.18792e-08 -2.90253e-08 -0.001)
(-2.52913e-08 -2.89837e-08 -0.00100001)
(-1.62779e-08 -2.89486e-08 -0.00100002)
(-5.61583e-09 -2.88714e-08 -0.00100002)
(-3.50633e-08 -3.24806e-08 -0.001)
(-3.18865e-08 -3.2258e-08 -0.00100001)
(-2.52681e-08 -3.21432e-08 -0.00100002)
(-1.62562e-08 -3.20787e-08 -0.00100003)
(-5.60509e-09 -3.19831e-08 -0.00100003)
(-4.85854e-08 -6.98039e-09 -0.000999963)
(-4.37687e-08 -6.93784e-09 -0.000999978)
(-3.47475e-08 -6.90606e-09 -0.000999991)
(-2.23388e-08 -6.88685e-09 -0.001)
(-7.69528e-09 -6.8709e-09 -0.00100001)
(-4.85868e-08 -2.02549e-08 -0.000999968)
(-4.37733e-08 -2.01615e-08 -0.000999983)
(-3.47597e-08 -2.0086e-08 -0.000999996)
(-2.2357e-08 -2.00363e-08 -0.001)
(-7.70566e-09 -1.99807e-08 -0.00100001)
(-4.84648e-08 -3.14751e-08 -0.000999976)
(-4.36826e-08 -3.13723e-08 -0.000999991)
(-3.46897e-08 -3.1277e-08 -0.001)
(-2.23147e-08 -3.12062e-08 -0.00100001)
(-7.69153e-09 -3.11108e-08 -0.00100002)
(-4.82982e-08 -3.95683e-08 -0.000999987)
(-4.3579e-08 -3.94709e-08 -0.001)
(-3.45995e-08 -3.93723e-08 -0.00100002)
(-2.22543e-08 -3.92975e-08 -0.00100002)
(-7.66985e-09 -3.91801e-08 -0.00100003)
(-4.80103e-08 -4.40617e-08 -0.001)
(-4.34868e-08 -4.38211e-08 -0.00100002)
(-3.452e-08 -4.36495e-08 -0.00100003)
(-2.22003e-08 -4.35412e-08 -0.00100004)
(-7.64839e-09 -4.34042e-08 -0.00100004)
(-6.64786e-08 -9.49836e-09 -0.00099995)
(-5.99172e-08 -9.43862e-09 -0.00099997)
(-4.7571e-08 -9.39078e-09 -0.000999988)
(-3.05783e-08 -9.35818e-09 -0.001)
(-1.05296e-08 -9.32803e-09 -0.00100001)
(-6.64713e-08 -2.75788e-08 -0.000999956)
(-5.99174e-08 -2.74288e-08 -0.000999976)
(-4.75768e-08 -2.73035e-08 -0.000999994)
(-3.05882e-08 -2.72139e-08 -0.00100001)
(-1.05353e-08 -2.71212e-08 -0.00100001)
(-6.62712e-08 -4.28862e-08 -0.000999967)
(-5.9755e-08 -4.26804e-08 -0.000999988)
(-4.74482e-08 -4.25048e-08 -0.00100001)
(-3.05068e-08 -4.23727e-08 -0.00100002)
(-1.05076e-08 -4.22253e-08 -0.00100002)
(-6.5997e-08 -5.39727e-08 -0.000999983)
(-5.95411e-08 -5.37201e-08 -0.001)
(-4.7277e-08 -5.35086e-08 -0.00100002)
(-3.03954e-08 -5.33542e-08 -0.00100003)
(-1.04692e-08 -5.31725e-08 -0.00100004)
(-6.56251e-08 -5.99119e-08 -0.001)
(-5.92912e-08 -5.95803e-08 -0.00100002)
(-4.70872e-08 -5.93073e-08 -0.00100004)
(-3.02765e-08 -5.91176e-08 -0.00100005)
(-1.04272e-08 -5.89107e-08 -0.00100006)
(-9.09272e-08 -1.29362e-08 -0.000999931)
(-8.19957e-08 -1.28452e-08 -0.00099996)
(-6.50958e-08 -1.2768e-08 -0.000999984)
(-4.18377e-08 -1.27125e-08 -0.001)
(-1.44033e-08 -1.26637e-08 -0.00100001)
(-9.08938e-08 -3.7573e-08 -0.00099994)
(-8.19744e-08 -3.7329e-08 -0.000999968)
(-6.50806e-08 -3.71178e-08 -0.000999992)
(-4.18326e-08 -3.69633e-08 -0.00100001)
(-1.44035e-08 -3.68199e-08 -0.00100002)
(-9.05651e-08 -5.84485e-08 -0.000999955)
(-8.16947e-08 -5.80862e-08 -0.000999983)
(-6.48557e-08 -5.77753e-08 -0.00100001)
(-4.16909e-08 -5.75449e-08 -0.00100002)
(-1.43562e-08 -5.73219e-08 -0.00100003)
(-9.01129e-08 -7.3597e-08 -0.000999976)
(-8.13083e-08 -7.31291e-08 -0.001)
(-6.45502e-08 -7.27367e-08 -0.00100003)
(-4.14972e-08 -7.24521e-08 -0.00100005)
(-1.42912e-08 -7.21731e-08 -0.00100005)
(-8.95724e-08 -8.15661e-08 -0.001)
(-8.08349e-08 -8.1026e-08 -0.00100003)
(-6.41855e-08 -8.05887e-08 -0.00100005)
(-4.12715e-08 -8.02692e-08 -0.00100007)
(-1.42153e-08 -7.99558e-08 -0.00100008)
(-1.24326e-07 -1.76239e-08 -0.000999907)
(-1.12166e-07 -1.7483e-08 -0.000999945)
(-8.90472e-08 -1.73596e-08 -0.000999978)
(-5.72294e-08 -1.72706e-08 -0.001)
(-1.97009e-08 -1.71979e-08 -0.00100001)
(-1.24244e-07 -5.119e-08 -0.000999918)
(-1.12102e-07 -5.08035e-08 -0.000999956)
(-8.8995e-08 -5.04605e-08 -0.000999989)
(-5.72028e-08 -5.02105e-08 -0.00100001)
(-1.96949e-08 -4.99958e-08 -0.00100003)
(-1.23715e-07 -7.96249e-08 -0.000999939)
(-1.11646e-07 -7.90445e-08 -0.000999977)
(-8.86254e-08 -7.85307e-08 -0.00100001)
(-5.69707e-08 -7.81527e-08 -0.00100003)
(-1.96177e-08 -7.78172e-08 -0.00100005)
(-1.22973e-07 -1.0024e-07 -0.000999968)
(-1.11017e-07 -9.95021e-08 -0.00100001)
(-8.81179e-08 -9.88577e-08 -0.00100004)
(-5.66502e-08 -9.83841e-08 -0.00100006)
(-1.95107e-08 -9.79625e-08 -0.00100007)
(-1.22093e-07 -1.11131e-07 -0.001)
(-1.10265e-07 -1.10197e-07 -0.00100004)
(-8.75165e-08 -1.09487e-07 -0.00100007)
(-5.62722e-08 -1.08968e-07 -0.00100009)
(-1.93846e-08 -1.08499e-07 -0.00100011)
(-1.69971e-07 -2.40132e-08 -0.000999873)
(-1.53402e-07 -2.37949e-08 -0.000999926)
(-1.21797e-07 -2.36031e-08 -0.000999971)
(-7.82795e-08 -2.34649e-08 -0.001)
(-2.6948e-08 -2.3356e-08 -0.00100002)
(-1.69811e-07 -6.97372e-08 -0.000999888)
(-1.53264e-07 -6.91322e-08 -0.000999941)
(-1.21685e-07 -6.85935e-08 -0.000999986)
(-7.82164e-08 -6.82015e-08 -0.00100002)
(-2.693e-08 -6.788e-08 -0.00100004)
(-1.68988e-07 -1.08437e-07 -0.000999917)
(-1.52544e-07 -1.07536e-07 -0.000999969)
(-1.211e-07 -1.06723e-07 -0.00100001)
(-7.78468e-08 -1.06124e-07 -0.00100005)
(-2.6806e-08 -1.05623e-07 -0.00100006)
(-1.67814e-07 -1.3642e-07 -0.000999956)
(-1.51563e-07 -1.35309e-07 -0.00100001)
(-1.20293e-07 -1.34309e-07 -0.00100005)
(-7.73366e-08 -1.33567e-07 -0.00100008)
(-2.66356e-08 -1.3294e-07 -0.0010001)
(-1.66355e-07 -1.5137e-07 -0.001)
(-1.50434e-07 -1.49838e-07 -0.00100005)
(-1.1937e-07 -1.48701e-07 -0.0010001)
(-7.6746e-08 -1.47882e-07 -0.00100013)
(-2.64366e-08 -1.47185e-07 -0.00100015)
(-2.32382e-07 -3.27186e-08 -0.000999827)
(-2.09785e-07 -3.23821e-08 -0.0009999)
(-1.66592e-07 -3.20881e-08 -0.000999961)
(-1.07074e-07 -3.18747e-08 -0.00100001)
(-3.68611e-08 -3.17106e-08 -0.00100003)
(-2.32095e-07 -9.49963e-08 -0.000999848)
(-2.09525e-07 -9.4056e-08 -0.00099992)
(-1.66382e-07 -9.32249e-08 -0.000999981)
(-1.06947e-07 -9.26183e-08 -0.00100003)
(-3.68209e-08 -9.21406e-08 -0.00100005)
(-2.30837e-07 -1.47663e-07 -0.000999887)
(-2.08403e-07 -1.46263e-07 -0.000999959)
(-1.65472e-07 -1.45002e-07 -0.00100002)
(-1.06373e-07 -1.44075e-07 -0.00100006)
(-3.66283e-08 -1.43335e-07 -0.00100009)
(-2.29043e-07 -1.85657e-07 -0.000999941)
(-2.06881e-07 -1.83953e-07 -0.00100001)
(-1.64221e-07 -1.82418e-07 -0.00100007)
(-1.0558e-07 -1.81277e-07 -0.00100012)
(-3.63625e-08 -1.80351e-07 -0.00100014)
(-2.26747e-07 -2.05994e-07 -0.001)
(-2.05166e-07 -2.03651e-07 -0.00100007)
(-1.62814e-07 -2.01883e-07 -0.00100013)
(-1.04672e-07 -2.00612e-07 -0.00100018)
(-3.60531e-08 -1.99581e-07 -0.0010002)
(-3.17749e-07 -4.45787e-08 -0.000999765)
(-2.86916e-07 -4.40641e-08 -0.000999864)
(-2.27891e-07 -4.36161e-08 -0.000999948)
(-1.46489e-07 -4.32889e-08 -0.00100001)
(-5.04316e-08 -4.30457e-08 -0.00100004)
(-3.17248e-07 -1.294e-07 -0.000999794)
(-2.86456e-07 -1.27951e-07 -0.000999892)
(-2.27519e-07 -1.26681e-07 -0.000999976)
(-1.46259e-07 -1.25754e-07 -0.00100004)
(-5.03573e-08 -1.25049e-07 -0.00100007)
(-3.1533e-07 -2.0108e-07 -0.000999847)
(-2.84726e-07 -1.98907e-07 -0.000999944)
(-2.26124e-07 -1.96975e-07 -0.00100003)
(-1.45378e-07 -1.95557e-07 -0.00100009)
(-5.00615e-08 -1.94462e-07 -0.00100012)
(-3.12621e-07 -2.52711e-07 -0.00099992)
(-2.82375e-07 -2.50057e-07 -0.00100002)
(-2.24205e-07 -2.47703e-07 -0.0010001)
(-1.44155e-07 -2.45951e-07 -0.00100016)
(-4.96474e-08 -2.44578e-07 -0.00100019)
(-3.09157e-07 -2.80166e-07 -0.00100001)
(-2.7972e-07 -2.76686e-07 -0.0010001)
(-2.22042e-07 -2.73974e-07 -0.00100018)
(-1.42752e-07 -2.72019e-07 -0.00100024)
(-4.91676e-08 -2.70495e-07 -0.00100027)
(-4.34562e-07 -6.075e-08 -0.00099968)
(-3.92504e-07 -5.99652e-08 -0.000999816)
(-3.11853e-07 -5.92854e-08 -0.000999931)
(-2.0051e-07 -5.87875e-08 -0.00100001)
(-6.9039e-08 -5.84267e-08 -0.00100006)
(-4.33711e-07 -1.76298e-07 -0.000999719)
(-3.91722e-07 -1.74077e-07 -0.000999854)
(-3.11224e-07 -1.72146e-07 -0.000999969)
(-2.00115e-07 -1.70731e-07 -0.00100005)
(-6.89085e-08 -1.69683e-07 -0.0010001)
(-4.30787e-07 -2.73864e-07 -0.000999792)
(-3.89071e-07 -2.70503e-07 -0.000999925)
(-3.09094e-07 -2.67556e-07 -0.00100004)
(-1.98757e-07 -2.65383e-07 -0.00100012)
(-6.84476e-08 -2.63752e-07 -0.00100017)
(-4.26688e-07 -3.44045e-07 -0.000999891)
(-3.85448e-07 -3.39905e-07 -0.00100002)
(-3.06154e-07 -3.36282e-07 -0.00100013)
(-1.96869e-07 -3.33582e-07 -0.00100022)
(-6.78043e-08 -3.3154e-07 -0.00100026)
(-4.21541e-07 -3.80965e-07 -0.00100001)
(-3.81309e-07 -3.75827e-07 -0.00100014)
(-3.02802e-07 -3.71673e-07 -0.00100025)
(-1.94698e-07 -3.68665e-07 -0.00100033)
(-6.70614e-08 -3.66406e-07 -0.00100037)
(-5.94497e-07 -8.28285e-08 -0.000999565)
(-5.37196e-07 -8.16337e-08 -0.00099975)
(-4.27017e-07 -8.06011e-08 -0.000999908)
(-2.74668e-07 -7.98387e-08 -0.00100002)
(-9.45955e-08 -7.92929e-08 -0.00100009)
(-5.93088e-07 -2.40309e-07 -0.000999617)
(-5.35896e-07 -2.36911e-07 -0.000999802)
(-4.25966e-07 -2.33969e-07 -0.000999959)
(-2.73991e-07 -2.31793e-07 -0.00100007)
(-9.43641e-08 -2.30215e-07 -0.00100014)
(-5.88633e-07 -3.73137e-07 -0.000999717)
(-5.31834e-07 -3.67952e-07 -0.000999899)
(-4.22696e-07 -3.63442e-07 -0.00100005)
(-2.71885e-07 -3.60096e-07 -0.00100017)
(-9.36426e-08 -3.57659e-07 -0.00100023)
(-5.82412e-07 -4.68532e-07 -0.000999852)
(-5.26247e-07 -4.62075e-07 -0.00100003)
(-4.18178e-07 -4.56472e-07 -0.00100019)
(-2.68973e-07 -4.52304e-07 -0.0010003)
(-9.26489e-08 -4.49261e-07 -0.00100036)
(-5.74775e-07 -5.18019e-07 -0.00100001)
(-5.19776e-07 -5.10399e-07 -0.00100019)
(-4.12967e-07 -5.04041e-07 -0.00100034)
(-2.65606e-07 -4.99407e-07 -0.00100045)
(-9.14966e-08 -4.9604e-07 -0.00100051)
(-8.13619e-07 -1.13019e-07 -0.000999406)
(-7.35691e-07 -1.11203e-07 -0.00099966)
(-5.85213e-07 -1.09623e-07 -0.000999877)
(-3.76652e-07 -1.08439e-07 -0.00100004)
(-1.29763e-07 -1.07607e-07 -0.00100012)
(-8.11324e-07 -3.278e-07 -0.000999479)
(-7.33552e-07 -3.22615e-07 -0.000999731)
(-5.83458e-07 -3.18102e-07 -0.000999948)
(-3.75495e-07 -3.14727e-07 -0.00100011)
(-1.2936e-07 -3.12343e-07 -0.00100019)
(-8.04544e-07 -5.08695e-07 -0.000999614)
(-7.27321e-07 -5.00727e-07 -0.000999864)
(-5.78409e-07 -4.93797e-07 -0.00100008)
(-3.72217e-07 -4.8863e-07 -0.00100023)
(-1.28234e-07 -4.84973e-07 -0.00100032)
(-7.95094e-07 -6.38304e-07 -0.0009998)
(-7.18718e-07 -6.28289e-07 -0.00100005)
(-5.71455e-07 -6.19625e-07 -0.00100026)
(-3.67719e-07 -6.13182e-07 -0.00100041)
(-1.26692e-07 -6.08618e-07 -0.00100049)
(-7.83701e-07 -7.04498e-07 -0.00100002)
(-7.08645e-07 -6.93066e-07 -0.00100026)
(-5.6336e-07 -6.83339e-07 -0.00100046)
(-3.62486e-07 -6.76193e-07 -0.00100061)
(-1.24897e-07 -6.7115e-07 -0.00100069)
(-1.11402e-06 -1.54381e-07 -0.00099919)
(-1.0083e-06 -1.5162e-07 -0.000999538)
(-8.02908e-07 -1.49178e-07 -0.000999837)
(-5.17242e-07 -1.47322e-07 -0.00100006)
(-1.78294e-07 -1.46049e-07 -0.00100017)
(-1.11032e-06 -4.47594e-07 -0.000999289)
(-1.0048e-06 -4.39694e-07 -0.000999636)
(-7.99978e-07 -4.32729e-07 -0.000999933)
(-5.15283e-07 -4.27461e-07 -0.00100015)
(-1.77608e-07 -4.23825e-07 -0.00100027)
(-1.10002e-06 -6.94052e-07 -0.000999475)
(-9.95236e-07 -6.81878e-07 -0.000999817)
(-7.92146e-07 -6.71209e-07 -0.00100011)
(-5.10147e-07 -6.63186e-07 -0.00100032)
(-1.75831e-07 -6.5763e-07 -0.00100044)
(-1.08568e-06 -8.69952e-07 -0.000999728)
(-9.82044e-07 -8.54594e-07 -0.00100006)
(-7.81415e-07 -8.4124e-07 -0.00100035)
(-5.03141e-07 -8.31254e-07 -0.00100056)
(-1.73411e-07 -8.24348e-07 -0.00100067)
(-1.06855e-06 -9.58405e-07 -0.00100002)
(-9.66528e-07 -9.41067e-07 -0.00100035)
(-7.68886e-07 -9.26174e-07 -0.00100063)
(-4.95003e-07 -9.15147e-07 -0.00100084)
(-1.70609e-07 -9.07557e-07 -0.00100095)
(-1.52603e-06 -2.11182e-07 -0.000998893)
(-1.38318e-06 -2.06973e-07 -0.000999372)
(-1.1032e-06 -2.03166e-07 -0.000999784)
(-7.11743e-07 -2.00223e-07 -0.00100009)
(-2.45555e-07 -1.98235e-07 -0.00100025)
(-1.52014e-06 -6.12004e-07 -0.000999029)
(-1.37747e-06 -5.9997e-07 -0.000999505)
(-1.09831e-06 -5.89151e-07 -0.000999914)
(-7.08405e-07 -5.80824e-07 -0.00100022)
(-2.4437e-07 -5.75158e-07 -0.00100038)
(-1.50454e-06 -9.48019e-07 -0.000999284)
(-1.36277e-06 -9.29508e-07 -0.000999754)
(-1.08606e-06 -9.1302e-07 -0.00100016)
(-7.00224e-07 -9.00422e-07 -0.00100045)
(-2.41501e-07 -8.91833e-07 -0.00100061)
(-1.48289e-06 -1.18646e-06 -0.000999632)
(-1.34259e-06 -1.16312e-06 -0.00100009)
(-1.0694e-06 -1.14257e-06 -0.00100049)
(-6.89195e-07 -1.12701e-06 -0.00100078)
(-2.37656e-07 -1.11646e-06 -0.00100093)
(-1.45705e-06 -1.3043e-06 -0.00100003)
(-1.31888e-06 -1.27791e-06 -0.00100048)
(-1.05006e-06 -1.2551e-06 -0.00100087)
(-6.76519e-07 -1.23806e-06 -0.00100115)
(-2.33267e-07 -1.22658e-06 -0.0010013)
(-2.09123e-06 -2.89395e-07 -0.000998483)
(-1.89951e-06 -2.82954e-07 -0.000999142)
(-1.51883e-06 -2.76949e-07 -0.000999712)
(-9.82189e-07 -2.72174e-07 -0.00100014)
(-3.3933e-07 -2.68962e-07 -0.00100037)
(-2.08193e-06 -8.38345e-07 -0.000998671)
(-1.89019e-06 -8.19992e-07 -0.000999325)
(-1.51056e-06 -8.03009e-07 -0.000999891)
(-9.76368e-07 -7.89558e-07 -0.00100031)
(-3.37219e-07 -7.80469e-07 -0.00100054)
(-2.05848e-06 -1.29699e-06 -0.000999024)
(-1.86749e-06 -1.26891e-06 -0.000999667)
(-1.49111e-06 -1.24325e-06 -0.00100022)
(-9.63038e-07 -1.22314e-06 -0.00100063)
(-3.32466e-07 -1.20958e-06 -0.00100085)
(-2.02601e-06 -1.61995e-06 -0.000999502)
(-1.8366e-06 -1.58466e-06 -0.00100013)
(-1.46504e-06 -1.55301e-06 -0.00100067)
(-9.45427e-07 -1.52858e-06 -0.00100107)
(-3.26251e-07 -1.51221e-06 -0.00100129)
(-1.98729e-06 -1.77586e-06 -0.00100005)
(-1.80056e-06 -1.73582e-06 -0.00100067)
(-1.43518e-06 -1.70092e-06 -0.00100119)
(-9.25553e-07 -1.67451e-06 -0.00100158)
(-3.19301e-07 -1.65702e-06 -0.00100179)
(-2.86628e-06 -3.97411e-07 -0.000997916)
(-2.61209e-06 -3.8748e-07 -0.000998823)
(-2.09679e-06 -3.77805e-07 -0.000999615)
(-1.36102e-06 -3.69801e-07 -0.00100021)
(-4.71222e-07 -3.64413e-07 -0.00100054)
(-2.85176e-06 -1.15123e-06 -0.000998177)
(-2.5967e-06 -1.12315e-06 -0.000999075)
(-2.0825e-06 -1.09604e-06 -0.000999858)
(-1.35057e-06 -1.07366e-06 -0.00100044)
(-4.67347e-07 -1.05852e-06 -0.00100077)
(-2.8168e-06 -1.77841e-06 -0.000998666)
(-2.56138e-06 -1.73582e-06 -0.000999549)
(-2.05097e-06 -1.69546e-06 -0.00100032)
(-1.32816e-06 -1.66263e-06 -0.00100089)
(-4.59174e-07 -1.6405e-06 -0.0010012)
(-2.7686e-06 -2.21564e-06 -0.000999326)
(-2.51396e-06 -2.16259e-06 -0.00100019)
(-2.00964e-06 -2.11373e-06 -0.00100093)
(-1.2994e-06 -2.07484e-06 -0.00100148)
(-4.48836e-07 -2.04886e-06 -0.00100178)
(-2.71145e-06 -2.41988e-06 -0.00100008)
(-2.45948e-06 -2.35947e-06 -0.00100092)
(-1.96343e-06 -2.30617e-06 -0.00100165)
(-1.26787e-06 -2.26495e-06 -0.00100218)
(-4.37645e-07 -2.23802e-06 -0.00100246)
(-3.92772e-06 -5.46902e-07 -0.000997124)
(-3.59798e-06 -5.31328e-07 -0.000998374)
(-2.90583e-06 -5.15235e-07 -0.000999479)
(-1.89763e-06 -5.01314e-07 -0.00100033)
(-6.59205e-07 -4.9188e-07 -0.0010008)
(-3.90517e-06 -1.58634e-06 -0.000997484)
(-3.57198e-06 -1.54299e-06 -0.00099872)
(-2.88037e-06 -1.49865e-06 -0.000999808)
(-1.87828e-06 -1.45999e-06 -0.00100064)
(-6.51859e-07 -1.43344e-06 -0.0010011)
(-3.85387e-06 -2.44635e-06 -0.000998173)
(-3.51634e-06 -2.38158e-06 -0.000999384)
(-2.8278e-06 -2.31702e-06 -0.00100044)
(-1.83884e-06 -2.26162e-06 -0.00100124)
(-6.36981e-07 -2.22379e-06 -0.00100168)
(-3.78325e-06 -3.03848e-06 -0.000999086)
(-3.44294e-06 -2.95916e-06 -0.00100027)
(-2.76086e-06 -2.88351e-06 -0.00100129)
(-1.79037e-06 -2.82024e-06 -0.00100206)
(-6.19141e-07 -2.77762e-06 -0.00100247)
(-3.70134e-06 -3.30253e-06 -0.00100014)
(-3.36139e-06 -3.21172e-06 -0.00100129)
(-2.68915e-06 -3.1309e-06 -0.00100228)
(-1.73934e-06 -3.0658e-06 -0.00100301)
(-6.00605e-07 -3.02393e-06 -0.0010034)
(-5.37694e-06 -7.53362e-07 -0.000996003)
(-4.9669e-06 -7.28039e-07 -0.000997736)
(-4.04924e-06 -7.00026e-07 -0.000999284)
(-2.67084e-06 -6.7487e-07 -0.00100052)
(-9.32391e-07 -6.57622e-07 -0.00100121)
(-5.34174e-06 -2.19701e-06 -0.000996495)
(-4.92113e-06 -2.12865e-06 -0.000998201)
(-4.00212e-06 -2.05398e-06 -0.000999715)
(-2.63386e-06 -1.98397e-06 -0.00100092)
(-9.18039e-07 -1.93423e-06 -0.00100159)
(-5.26888e-06 -3.38098e-06 -0.000997489)
(-4.83201e-06 -3.28113e-06 -0.000999154)
(-3.91123e-06 -3.1754e-06 -0.00100062)
(-2.56e-06 -3.07765e-06 -0.00100176)
(-8.88818e-07 -3.00907e-06 -0.00100238)
(-5.16687e-06 -4.18427e-06 -0.000998754)
(-4.71595e-06 -4.06604e-06 -0.00100037)
(-3.79926e-06 -3.94865e-06 -0.00100177)
(-2.47508e-06 -3.84254e-06 -0.00100284)
(-8.56818e-07 -3.76924e-06 -0.00100342)
(-5.05665e-06 -4.52104e-06 -0.00100025)