/*--------------------------------*- C++ -*----------------------------------*\
| =========                 |                                                 |
| \\      /  F ield         | OpenFOAM: The Open Source CFD Toolbox           |
|  \\    /   O peration     | Version:  5.x                                   |
|   \\  /    A nd           | Web:      www.OpenFOAM.org                      |
|    \\/     M anipulation  |                                                 |
\*---------------------------------------------------------------------------*/
FoamFile
{
    version     2.0;
    format      ascii;
    class       volVectorField;
    location    "0.06";
    object      U;
}
// * * * * * * * * * * * * * * * * * * * * * * * * * * * * * * * * * * * * * //

dimensions      [0 1 -1 0 0 0 0];

internalField   nonuniform List<vector> 
2250
(
(-1.7588e-10 -1.81488e-11 -0.000999999)
(-1.61007e-10 -2.2533e-11 -0.000999999)
(-1.30994e-10 -2.44097e-11 -0.000999999)
(-8.2276e-11 -2.37544e-11 -0.000999999)
(-2.72374e-11 -2.20654e-11 -0.000999999)
(-1.8567e-10 -5.261e-11 -0.000999999)
(-1.67631e-10 -6.52074e-11 -0.000999999)
(-1.32494e-10 -6.87909e-11 -0.000999999)
(-8.01223e-11 -6.61382e-11 -0.000999999)
(-2.5628e-11 -6.32789e-11 -0.001)
(-1.97089e-10 -9.83431e-11 -0.000999999)
(-1.77545e-10 -1.13768e-10 -0.000999999)
(-1.32214e-10 -1.13633e-10 -0.000999999)
(-7.70633e-11 -1.07336e-10 -0.001)
(-2.45504e-11 -1.04366e-10 -0.001)
(-2.05584e-10 -1.53225e-10 -0.000999999)
(-1.82946e-10 -1.66021e-10 -0.000999999)
(-1.26087e-10 -1.60238e-10 -0.001)
(-7.10803e-11 -1.48236e-10 -0.001)
(-2.28663e-11 -1.43572e-10 -0.001)
(-2.00235e-10 -1.87645e-10 -0.000999999)
(-1.84681e-10 -1.87121e-10 -0.001)
(-1.14453e-10 -1.83713e-10 -0.001)
(-6.06991e-11 -1.78564e-10 -0.001)
(-2.01725e-11 -1.75921e-10 -0.001)
(-5.09895e-10 -5.19149e-11 -0.000999998)
(-4.68321e-10 -6.68799e-11 -0.000999999)
(-3.74342e-10 -6.94663e-11 -0.000999999)
(-2.31412e-10 -6.55004e-11 -0.000999999)
(-7.57835e-11 -6.16622e-11 -0.000999999)
(-5.34832e-10 -1.78615e-10 -0.000999999)
(-4.8683e-10 -2.06718e-10 -0.000999999)
(-3.73679e-10 -2.05054e-10 -0.000999999)
(-2.24113e-10 -1.93196e-10 -0.000999999)
(-7.21761e-11 -1.88075e-10 -0.001)
(-5.51584e-10 -3.40398e-10 -0.000999999)
(-4.95696e-10 -3.56458e-10 -0.000999999)
(-3.61574e-10 -3.39594e-10 -0.000999999)
(-2.15237e-10 -3.21607e-10 -0.001)
(-7.11539e-11 -3.20089e-10 -0.001)
(-5.48571e-10 -4.791e-10 -0.000999999)
(-4.86064e-10 -4.8365e-10 -0.000999999)
(-3.38894e-10 -4.59789e-10 -0.001)
(-2.0526e-10 -4.38695e-10 -0.001)
(-7.12705e-11 -4.3759e-10 -0.001)
(-4.86004e-10 -5.61103e-10 -0.001)
(-4.76265e-10 -5.20831e-10 -0.001)
(-3.16651e-10 -5.11496e-10 -0.001)
(-1.93869e-10 -5.08876e-10 -0.001)
(-7.08687e-11 -5.08591e-10 -0.001)
(-9.33037e-10 -1.23142e-10 -0.000999998)
(-8.59144e-10 -1.33952e-10 -0.000999999)
(-6.65153e-10 -1.27256e-10 -0.000999999)
(-4.09432e-10 -1.18296e-10 -0.000999999)
(-1.35461e-10 -1.15828e-10 -0.000999999)
(-9.50263e-10 -4.10581e-10 -0.000999998)
(-8.64896e-10 -4.12166e-10 -0.000999999)
(-6.50708e-10 -3.86697e-10 -0.000999999)
(-3.98943e-10 -3.65882e-10 -0.000999999)
(-1.33456e-10 -3.64949e-10 -0.001)
(-9.40579e-10 -6.94202e-10 -0.000999999)
(-8.36918e-10 -6.67495e-10 -0.000999999)
(-6.20177e-10 -6.31946e-10 -0.000999999)
(-3.8917e-10 -6.1438e-10 -0.001)
(-1.35467e-10 -6.21213e-10 -0.001)
(-9.05277e-10 -8.77751e-10 -0.000999999)
(-8.0272e-10 -8.39786e-10 -0.001)
(-5.97711e-10 -8.22023e-10 -0.001)
(-3.89502e-10 -8.18538e-10 -0.001)
(-1.41502e-10 -8.26646e-10 -0.001)
(-8.2438e-10 -9.50354e-10 -0.001)
(-7.81192e-10 -9.06211e-10 -0.001)
(-5.98982e-10 -8.99762e-10 -0.001)
(-3.95382e-10 -9.10995e-10 -0.001)
(-1.45106e-10 -9.12758e-10 -0.001)
(-1.44047e-09 -2.37003e-10 -0.000999998)
(-1.32292e-09 -2.22947e-10 -0.000999999)
(-1.01165e-09 -2.03181e-10 -0.000999999)
(-6.36555e-10 -1.93464e-10 -0.000999999)
(-2.17622e-10 -1.96261e-10 -0.001)
(-1.42857e-09 -7.19429e-10 -0.000999998)
(-1.29146e-09 -6.65479e-10 -0.000999999)
(-9.83962e-10 -6.197e-10 -0.000999999)
(-6.31135e-10 -6.02291e-10 -0.001)
(-2.21176e-10 -6.09882e-10 -0.001)
(-1.38885e-09 -1.09024e-09 -0.000999999)
(-1.22569e-09 -1.02882e-09 -0.000999999)
(-9.50432e-10 -9.97205e-10 -0.001)
(-6.29122e-10 -9.94539e-10 -0.001)
(-2.26746e-10 -1.00548e-09 -0.001)
(-1.34934e-09 -1.2706e-09 -0.000999999)
(-1.19855e-09 -1.25139e-09 -0.001)
(-9.49868e-10 -1.26591e-09 -0.001)
(-6.41466e-10 -1.28434e-09 -0.001)
(-2.34007e-10 -1.28987e-09 -0.001)
(-1.32905e-09 -1.33721e-09 -0.001)
(-1.22104e-09 -1.35499e-09 -0.001)
(-9.8354e-10 -1.3752e-09 -0.001)
(-6.55855e-10 -1.39541e-09 -0.001)
(-2.34922e-10 -1.39111e-09 -0.001)
(-2.04608e-09 -3.5675e-10 -0.000999998)
(-1.8702e-09 -3.21958e-10 -0.000999998)
(-1.45391e-09 -3.00782e-10 -0.000999999)
(-9.45035e-10 -2.98965e-10 -0.001)
(-3.32922e-10 -3.08353e-10 -0.001)
(-2.01091e-09 -1.02775e-09 -0.000999998)
(-1.81749e-09 -9.4904e-10 -0.000999999)
(-1.43355e-09 -9.12027e-10 -0.000999999)
(-9.54924e-10 -9.11088e-10 -0.001)
(-3.43475e-10 -9.24243e-10 -0.001)
(-1.97178e-09 -1.49906e-09 -0.000999998)
(-1.75802e-09 -1.45738e-09 -0.000999999)
(-1.41883e-09 -1.45183e-09 -0.001)
(-9.60874e-10 -1.4606e-09 -0.001)
(-3.48428e-10 -1.46238e-09 -0.001)
(-1.96776e-09 -1.72707e-09 -0.000999999)
(-1.7705e-09 -1.7825e-09 -0.001)
(-1.43706e-09 -1.82033e-09 -0.001)
(-9.68451e-10 -1.83434e-09 -0.001)
(-3.4804e-10 -1.8219e-09 -0.001)
(-2.0087e-09 -1.86354e-09 -0.001)
(-1.85123e-09 -1.93161e-09 -0.001)
(-1.47082e-09 -1.96287e-09 -0.001)
(-9.66096e-10 -1.97448e-09 -0.001)
(-3.39487e-10 -1.96046e-09 -0.001)
(-2.83259e-09 -4.62294e-10 -0.000999997)
(-2.5914e-09 -4.3749e-10 -0.000999998)
(-2.06868e-09 -4.31378e-10 -0.000999999)
(-1.37036e-09 -4.40111e-10 -0.001)
(-4.87512e-10 -4.5012e-10 -0.001)
(-2.80915e-09 -1.33206e-09 -0.000999998)
(-2.5651e-09 -1.29291e-09 -0.000999999)
(-2.07512e-09 -1.28728e-09 -0.000999999)
(-1.39245e-09 -1.29858e-09 -0.001)
(-4.992e-10 -1.30411e-09 -0.001)
(-2.80244e-09 -1.9932e-09 -0.000999998)
(-2.55147e-09 -2.01038e-09 -0.000999999)
(-2.07835e-09 -2.02256e-09 -0.001)
(-1.39231e-09 -2.02072e-09 -0.001)
(-4.96371e-10 -2.00082e-09 -0.001)
(-2.82513e-09 -2.42719e-09 -0.000999999)
(-2.59467e-09 -2.49247e-09 -0.001)
(-2.08575e-09 -2.5138e-09 -0.001)
(-1.37476e-09 -2.49598e-09 -0.001)
(-4.83138e-10 -2.46128e-09 -0.001)
(-2.85418e-09 -2.68849e-09 -0.001)
(-2.63821e-09 -2.71142e-09 -0.001)
(-2.08209e-09 -2.7052e-09 -0.001)
(-1.34468e-09 -2.69285e-09 -0.001)
(-4.66378e-10 -2.67279e-09 -0.001)
(-3.93812e-09 -5.90139e-10 -0.000999997)
(-3.61906e-09 -5.95387e-10 -0.000999998)
(-2.92213e-09 -6.05739e-10 -0.000999999)
(-1.92738e-09 -6.15777e-10 -0.001)
(-6.7864e-10 -6.16292e-10 -0.001)
(-3.95364e-09 -1.73512e-09 -0.000999997)
(-3.64133e-09 -1.75391e-09 -0.000999998)
(-2.94799e-09 -1.76923e-09 -0.000999999)
(-1.94271e-09 -1.77313e-09 -0.001)
(-6.8154e-10 -1.75907e-09 -0.001)
(-3.98064e-09 -2.69985e-09 -0.000999998)
(-3.66011e-09 -2.7406e-09 -0.000999999)
(-2.94716e-09 -2.73996e-09 -0.001)
(-1.92437e-09 -2.713e-09 -0.001)
(-6.69174e-10 -2.67485e-09 -0.001)
(-3.99909e-09 -3.39355e-09 -0.000999999)
(-3.68172e-09 -3.41121e-09 -0.001)
(-2.92093e-09 -3.39035e-09 -0.001)
(-1.88306e-09 -3.34487e-09 -0.001)
(-6.48552e-10 -3.30121e-09 -0.001)
(-3.93739e-09 -3.79231e-09 -0.001)
(-3.65686e-09 -3.72413e-09 -0.001)
(-2.88113e-09 -3.67588e-09 -0.001)
(-1.84179e-09 -3.64455e-09 -0.001)
(-6.31824e-10 -3.62518e-09 -0.001)
(-5.47844e-09 -7.93124e-10 -0.000999996)
(-5.03113e-09 -8.13687e-10 -0.000999997)
(-4.04019e-09 -8.25573e-10 -0.000999999)
(-2.62259e-09 -8.257e-10 -0.001)
(-9.07683e-10 -8.14659e-10 -0.001)
(-5.5204e-09 -2.33471e-09 -0.000999996)
(-5.07291e-09 -2.37026e-09 -0.000999998)
(-4.05974e-09 -2.38052e-09 -0.000999999)
(-2.61801e-09 -2.36644e-09 -0.001)
(-8.99769e-10 -2.33897e-09 -0.001)
(-5.55694e-09 -3.67309e-09 -0.000999997)
(-5.08662e-09 -3.68626e-09 -0.000999999)
(-4.04434e-09 -3.66559e-09 -0.001)
(-2.5906e-09 -3.62784e-09 -0.001)
(-8.86324e-10 -3.59192e-09 -0.001)
(-5.5718e-09 -4.63218e-09 -0.000999998)
(-5.06586e-09 -4.59711e-09 -0.001)
(-4.002e-09 -4.5581e-09 -0.001)
(-2.55166e-09 -4.51478e-09 -0.001)
(-8.70762e-10 -4.48165e-09 -0.001)
(-5.50207e-09 -5.07495e-09 -0.001)
(-5.01257e-09 -5.02728e-09 -0.001)
(-3.96244e-09 -4.98647e-09 -0.001)
(-2.52304e-09 -4.96065e-09 -0.001)
(-8.61728e-10 -4.94684e-09 -0.001)
(-7.54427e-09 -1.08472e-09 -0.000999994)
(-6.87364e-09 -1.09749e-09 -0.000999997)
(-5.4731e-09 -1.09995e-09 -0.000999998)
(-3.51158e-09 -1.09153e-09 -0.001)
(-1.20312e-09 -1.08007e-09 -0.001)
(-7.58177e-09 -3.15803e-09 -0.000999995)
(-6.90155e-09 -3.17885e-09 -0.000999997)
(-5.47731e-09 -3.17774e-09 -0.000999999)
(-3.50014e-09 -3.15938e-09 -0.001)
(-1.1958e-09 -3.13963e-09 -0.001)
(-7.60779e-09 -4.93601e-09 -0.000999996)
(-6.90656e-09 -4.93367e-09 -0.000999998)
(-5.46444e-09 -4.91949e-09 -0.001)
(-3.48628e-09 -4.89956e-09 -0.001)
(-1.19151e-09 -4.88154e-09 -0.001)
(-7.62891e-09 -6.21831e-09 -0.000999998)
(-6.88564e-09 -6.19969e-09 -0.001)
(-5.44412e-09 -6.179e-09 -0.001)
(-3.47212e-09 -6.16016e-09 -0.001)
(-1.1871e-09 -6.14062e-09 -0.001)
(-7.64985e-09 -6.7532e-09 -0.001)
(-6.86727e-09 -6.78622e-09 -0.001)
(-5.42549e-09 -6.78553e-09 -0.001)
(-3.46005e-09 -6.78009e-09 -0.00100001)
(-1.18358e-09 -6.76763e-09 -0.00100001)
(-1.03044e-08 -1.46635e-09 -0.000999992)
(-9.30849e-09 -1.46979e-09 -0.000999995)
(-7.38599e-09 -1.46731e-09 -0.000999998)
(-4.73183e-09 -1.46278e-09 -0.001)
(-1.62275e-09 -1.46242e-09 -0.001)
(-1.03288e-08 -4.25545e-09 -0.000999993)
(-9.32656e-09 -4.26885e-09 -0.000999996)
(-7.39267e-09 -4.2704e-09 -0.000999999)
(-4.73835e-09 -4.26825e-09 -0.001)
(-1.62797e-09 -4.26583e-09 -0.001)
(-1.03415e-08 -6.62773e-09 -0.000999995)
(-9.34131e-09 -6.64218e-09 -0.000999998)
(-7.39995e-09 -6.65361e-09 -0.001)
(-4.74457e-09 -6.65996e-09 -0.001)
(-1.6313e-09 -6.65018e-09 -0.001)
(-1.03592e-08 -8.36011e-09 -0.000999997)
(-9.35327e-09 -8.38352e-09 -0.001)
(-7.41171e-09 -8.3927e-09 -0.001)
(-4.74843e-09 -8.3957e-09 -0.001)
(-1.63084e-09 -8.3749e-09 -0.00100001)
(-1.0417e-08 -9.18076e-09 -0.001)
(-9.37394e-09 -9.22881e-09 -0.001)
(-7.41293e-09 -9.2354e-09 -0.00100001)
(-4.74327e-09 -9.23673e-09 -0.00100001)
(-1.62626e-09 -9.21435e-09 -0.00100001)
(-1.40606e-08 -1.98391e-09 -0.000999989)
(-1.26577e-08 -1.98522e-09 -0.000999993)
(-1.00443e-08 -1.98651e-09 -0.000999997)
(-6.45708e-09 -1.99288e-09 -0.001)
(-2.22526e-09 -1.99882e-09 -0.001)
(-1.4083e-08 -5.76871e-09 -0.00099999)
(-1.26835e-08 -5.77769e-09 -0.000999995)
(-1.00705e-08 -5.78891e-09 -0.000999998)
(-6.48497e-09 -5.80279e-09 -0.001)
(-2.23883e-09 -5.80021e-09 -0.001)
(-1.4086e-08 -8.97537e-09 -0.000999993)
(-1.27021e-08 -8.99377e-09 -0.000999997)
(-1.00891e-08 -9.01661e-09 -0.001)
(-6.49195e-09 -9.02897e-09 -0.001)
(-2.23763e-09 -9.00625e-09 -0.001)
(-1.4089e-08 -1.13189e-08 -0.000999996)
(-1.27259e-08 -1.13329e-08 -0.001)
(-1.01075e-08 -1.13468e-08 -0.001)
(-6.49293e-09 -1.13548e-08 -0.00100001)
(-2.23328e-09 -1.13272e-08 -0.00100001)
(-1.41235e-08 -1.25197e-08 -0.001)
(-1.27301e-08 -1.25468e-08 -0.001)
(-1.01121e-08 -1.2527e-08 -0.00100001)
(-6.49459e-09 -1.25195e-08 -0.00100001)
(-2.23126e-09 -1.2487e-08 -0.00100001)
(-1.92007e-08 -2.70681e-09 -0.000999985)
(-1.72976e-08 -2.70566e-09 -0.000999991)
(-1.37363e-08 -2.71087e-09 -0.000999996)
(-8.84468e-09 -2.7189e-09 -0.001)
(-3.05188e-09 -2.71322e-09 -0.001)
(-1.92286e-08 -7.86003e-09 -0.000999987)
(-1.73332e-08 -7.85481e-09 -0.000999993)
(-1.37748e-08 -7.86365e-09 -0.000999998)
(-8.86827e-09 -7.86946e-09 -0.001)
(-3.05662e-09 -7.84267e-09 -0.001)
(-1.92206e-08 -1.22049e-08 -0.00099999)
(-1.73343e-08 -1.21983e-08 -0.000999996)
(-1.37778e-08 -1.22013e-08 -0.001)
(-8.8558e-09 -1.21955e-08 -0.001)
(-3.04548e-09 -1.21577e-08 -0.00100001)
(-1.92172e-08 -1.53602e-08 -0.000999995)
(-1.73311e-08 -1.53459e-08 -0.001)
(-1.37744e-08 -1.53286e-08 -0.00100001)
(-8.84947e-09 -1.53304e-08 -0.00100001)
(-3.04201e-09 -1.53066e-08 -0.00100001)
(-1.92371e-08 -1.69996e-08 -0.001)
(-1.73027e-08 -1.70087e-08 -0.00100001)
(-1.37637e-08 -1.69727e-08 -0.00100001)
(-8.86408e-09 -1.69598e-08 -0.00100001)
(-3.05054e-09 -1.69276e-08 -0.00100002)
(-2.6208e-08 -3.69382e-09 -0.00099998)
(-2.36403e-08 -3.69001e-09 -0.000999988)
(-1.87752e-08 -3.68913e-09 -0.000999995)
(-1.20663e-08 -3.68144e-09 -0.001)
(-4.15153e-09 -3.65601e-09 -0.001)
(-2.62431e-08 -1.07031e-08 -0.000999982)
(-2.36785e-08 -1.06817e-08 -0.00099999)
(-1.8801e-08 -1.06647e-08 -0.000999997)
(-1.20619e-08 -1.06385e-08 -0.001)
(-4.14021e-09 -1.05886e-08 -0.001)
(-2.62099e-08 -1.66057e-08 -0.000999987)
(-2.36469e-08 -1.65647e-08 -0.000999995)
(-1.87686e-08 -1.65251e-08 -0.001)
(-1.20337e-08 -1.64968e-08 -0.00100001)
(-4.12926e-09 -1.64599e-08 -0.00100001)
(-2.61757e-08 -2.09107e-08 -0.000999993)
(-2.35999e-08 -2.0855e-08 -0.001)
(-1.87363e-08 -2.07944e-08 -0.00100001)
(-1.20304e-08 -2.07879e-08 -0.00100001)
(-4.1348e-09 -2.07669e-08 -0.00100002)
(-2.61612e-08 -2.31616e-08 -0.001)
(-2.35306e-08 -2.31177e-08 -0.00100001)
(-1.87035e-08 -2.30604e-08 -0.00100001)
(-1.20472e-08 -2.30398e-08 -0.00100002)
(-4.14732e-09 -2.30005e-08 -0.00100002)
(-3.57541e-08 -5.03276e-09 -0.000999973)
(-3.22561e-08 -5.01945e-09 -0.000999984)
(-2.55926e-08 -4.99775e-09 -0.000999993)
(-1.64026e-08 -4.96823e-09 -0.001)
(-5.62754e-09 -4.93681e-09 -0.001)
(-3.57891e-08 -1.4582e-08 -0.000999976)
(-3.22794e-08 -1.45241e-08 -0.000999987)
(-2.5588e-08 -1.44594e-08 -0.000999996)
(-1.63806e-08 -1.44025e-08 -0.001)
(-5.61516e-09 -1.4353e-08 -0.00100001)
(-3.57035e-08 -2.2643e-08 -0.000999982)
(-3.21947e-08 -2.25369e-08 -0.000999993)
(-2.55209e-08 -2.24487e-08 -0.001)
(-1.63553e-08 -2.2408e-08 -0.00100001)
(-5.61539e-09 -2.23732e-08 -0.00100001)
(-3.559e-08 -2.85314e-08 -0.00099999)
(-3.20879e-08 -2.8403e-08 -0.001)
(-2.54635e-08 -2.83045e-08 -0.00100001)
(-1.63508e-08 -2.82803e-08 -0.00100002)
(-5.62302e-09 -2.82326e-08 -0.00100002)
(-3.54651e-08 -3.16529e-08 -0.001)
(-3.1968e-08 -3.1515e-08 -0.00100001)
(-2.54009e-08 -3.14101e-08 -0.00100002)
(-1.63391e-08 -3.13535e-08 -0.00100003)
(-5.62082e-09 -3.1276e-08 -0.00100003)
(-4.87573e-08 -6.86293e-09 -0.000999963)
(-4.39648e-08 -6.81906e-09 -0.000999978)
(-3.48388e-08 -6.77008e-09 -0.000999991)
(-2.23119e-08 -6.73144e-09 -0.001)
(-7.65516e-09 -6.71069e-09 -0.001)
(-4.87695e-08 -1.9892e-08 -0.000999968)
(-4.3951e-08 -1.97565e-08 -0.000999982)
(-3.48144e-08 -1.96416e-08 -0.000999995)
(-2.23053e-08 -1.95743e-08 -0.001)
(-7.66028e-09 -1.95314e-08 -0.00100001)
(-4.86097e-08 -3.0906e-08 -0.000999976)
(-4.37975e-08 -3.07015e-08 -0.000999991)
(-3.47242e-08 -3.05674e-08 -0.001)
(-2.22819e-08 -3.05087e-08 -0.00100001)
(-7.66309e-09 -3.04421e-08 -0.00100002)
(-4.84085e-08 -3.89414e-08 -0.000999987)
(-4.36164e-08 -3.87134e-08 -0.001)
(-3.46275e-08 -3.85606e-08 -0.00100001)
(-2.22421e-08 -3.84796e-08 -0.00100002)
(-7.65182e-09 -3.83651e-08 -0.00100003)
(-4.82065e-08 -4.31192e-08 -0.001)
(-4.34169e-08 -4.29414e-08 -0.00100001)
(-3.44941e-08 -4.2775e-08 -0.00100003)
(-2.21625e-08 -4.26509e-08 -0.00100004)
(-7.6212e-09 -4.2508e-08 -0.00100004)
(-6.64521e-08 -9.35229e-09 -0.00099995)
(-5.98985e-08 -9.26814e-09 -0.00099997)
(-4.74558e-08 -9.20052e-09 -0.000999988)
(-3.04308e-08 -9.16524e-09 -0.001)
(-1.04599e-08 -9.14703e-09 -0.00100001)
(-6.64265e-08 -2.71107e-08 -0.000999956)
(-5.98541e-08 -2.68919e-08 -0.000999976)
(-4.74387e-08 -2.67379e-08 -0.000999994)
(-3.04493e-08 -2.66583e-08 -0.00100001)
(-1.04769e-08 -2.65862e-08 -0.00100001)
(-6.61816e-08 -4.21392e-08 -0.000999967)
(-5.96386e-08 -4.18421e-08 -0.000999987)
(-4.7314e-08 -4.1645e-08 -0.001)
(-3.03885e-08 -4.15242e-08 -0.00100002)
(-1.04571e-08 -4.13797e-08 -0.00100002)
(-6.58892e-08 -5.31141e-08 -0.000999982)
(-5.93652e-08 -5.27758e-08 -0.001)
(-4.71289e-08 -5.25102e-08 -0.00100002)
(-3.0269e-08 -5.23183e-08 -0.00100003)
(-1.04119e-08 -5.21138e-08 -0.00100004)
(-6.562e-08 -5.87203e-08 -0.001)
(-5.9035e-08 -5.846e-08 -0.00100002)
(-4.68615e-08 -5.81918e-08 -0.00100004)
(-3.00959e-08 -5.79748e-08 -0.00100005)
(-1.03518e-08 -5.77551e-08 -0.00100006)
(-9.05605e-08 -1.27269e-08 -0.000999932)
(-8.16357e-08 -1.26123e-08 -0.00099996)
(-6.47308e-08 -1.25317e-08 -0.000999984)
(-4.15668e-08 -1.24878e-08 -0.001)
(-1.43052e-08 -1.24425e-08 -0.00100001)
(-9.05073e-08 -3.69154e-08 -0.00099994)
(-8.15862e-08 -3.66259e-08 -0.000999968)
(-6.4723e-08 -3.64164e-08 -0.000999992)
(-4.15757e-08 -3.62784e-08 -0.00100001)
(-1.43081e-08 -3.61288e-08 -0.00100002)
(-9.01562e-08 -5.74194e-08 -0.000999955)
(-8.129e-08 -5.70105e-08 -0.000999983)
(-6.45081e-08 -5.66901e-08 -0.00100001)
(-4.14282e-08 -5.64481e-08 -0.00100002)
(-1.42502e-08 -5.62037e-08 -0.00100003)
(-8.97014e-08 -7.24042e-08 -0.000999976)
(-8.08642e-08 -7.18802e-08 -0.001)
(-6.41715e-08 -7.14372e-08 -0.00100003)
(-4.12051e-08 -7.11001e-08 -0.00100004)
(-1.41723e-08 -7.07961e-08 -0.00100005)
(-8.92233e-08 -8.00769e-08 -0.001)
(-8.03233e-08 -7.95743e-08 -0.00100003)
(-6.37349e-08 -7.91257e-08 -0.00100005)
(-4.09287e-08 -7.87804e-08 -0.00100007)
(-1.40816e-08 -7.8461e-08 -0.00100008)
(-1.23484e-07 -1.7317e-08 -0.000999908)
(-1.11357e-07 -1.71726e-08 -0.000999946)
(-8.83728e-08 -1.70611e-08 -0.000999978)
(-5.67747e-08 -1.69779e-08 -0.001)
(-1.9539e-08 -1.68883e-08 -0.00100001)
(-1.23412e-07 -5.02715e-08 -0.000999919)
(-1.11299e-07 -4.98763e-08 -0.000999957)
(-8.83366e-08 -4.95494e-08 -0.000999989)
(-5.67352e-08 -4.92957e-08 -0.00100001)
(-1.95151e-08 -4.90534e-08 -0.00100003)
(-1.22901e-07 -7.82252e-08 -0.00099994)
(-1.10843e-07 -7.76126e-08 -0.000999977)
(-8.79619e-08 -7.70876e-08 -0.00100001)
(-5.64818e-08 -7.6685e-08 -0.00100003)
(-1.94259e-08 -7.63375e-08 -0.00100005)
(-1.22192e-07 -9.8583e-08 -0.000999968)
(-1.10171e-07 -9.77849e-08 -0.00100001)
(-8.7424e-08 -9.7104e-08 -0.00100004)
(-5.61432e-08 -9.65904e-08 -0.00100006)
(-1.93157e-08 -9.61586e-08 -0.00100007)
(-1.21403e-07 -1.09049e-07 -0.001)
(-1.09365e-07 -1.08235e-07 -0.00100004)
(-8.67767e-08 -1.07539e-07 -0.00100007)
(-5.57295e-08 -1.07008e-07 -0.00100009)
(-1.91788e-08 -1.0654e-07 -0.00100011)
(-1.68508e-07 -2.35754e-08 -0.000999875)
(-1.52024e-07 -2.33754e-08 -0.000999927)
(-1.20692e-07 -2.31968e-08 -0.000999971)
(-7.75342e-08 -2.30528e-08 -0.001)
(-2.66759e-08 -2.29278e-08 -0.00100002)
(-1.68386e-07 -6.84692e-08 -0.00099989)
(-1.51914e-07 -6.78818e-08 -0.000999942)
(-1.20585e-07 -6.73581e-08 -0.000999986)
(-7.74465e-08 -6.6956e-08 -0.00100002)
(-2.66403e-08 -6.66266e-08 -0.00100004)
(-1.67608e-07 -1.06517e-07 -0.000999918)
(-1.51196e-07 -1.05585e-07 -0.00099997)
(-1.19997e-07 -1.04774e-07 -0.00100001)
(-7.70793e-08 -1.04176e-07 -0.00100005)
(-2.65228e-08 -1.03695e-07 -0.00100006)
(-1.66531e-07 -1.3411e-07 -0.000999957)
(-1.50185e-07 -1.32949e-07 -0.00100001)
(-1.19196e-07 -1.31932e-07 -0.00100005)
(-7.65839e-08 -1.31177e-07 -0.00100008)
(-2.63624e-08 -1.30565e-07 -0.0010001)
(-1.65335e-07 -1.48355e-07 -0.001)
(-1.49019e-07 -1.47118e-07 -0.00100005)
(-1.18238e-07 -1.4606e-07 -0.0010001)
(-7.59759e-08 -1.45258e-07 -0.00100013)
(-2.61631e-08 -1.44583e-07 -0.00100014)
(-2.30094e-07 -3.21225e-08 -0.00099983)
(-2.07658e-07 -3.18101e-08 -0.000999901)
(-1.64883e-07 -3.15286e-08 -0.000999962)
(-1.05937e-07 -3.13174e-08 -0.00100001)
(-3.64537e-08 -3.11574e-08 -0.00100003)
(-2.29846e-07 -9.32722e-08 -0.00099985)
(-2.07429e-07 -9.2362e-08 -0.000999921)
(-1.64682e-07 -9.15617e-08 -0.000999982)
(-1.05812e-07 -9.09767e-08 -0.00100003)
(-3.64155e-08 -9.05245e-08 -0.00100005)
(-2.28639e-07 -1.45014e-07 -0.000999889)
(-2.06332e-07 -1.43614e-07 -0.000999959)
(-1.63811e-07 -1.42401e-07 -0.00100002)
(-1.05277e-07 -1.41522e-07 -0.00100006)
(-3.62421e-08 -1.40828e-07 -0.00100009)
(-2.26987e-07 -1.82456e-07 -0.000999941)
(-2.04834e-07 -1.80722e-07 -0.00100001)
(-1.62618e-07 -1.7921e-07 -0.00100007)
(-1.04534e-07 -1.78107e-07 -0.00100011)
(-3.59981e-08 -1.77236e-07 -0.00100014)
(-2.2505e-07 -2.01942e-07 -0.001)
(-2.03086e-07 -1.99945e-07 -0.00100007)
(-1.61213e-07 -1.98301e-07 -0.00100013)
(-1.03663e-07 -1.97097e-07 -0.00100017)
(-3.57159e-08 -1.96127e-07 -0.0010002)
(-3.14303e-07 -4.37885e-08 -0.000999769)
(-2.83752e-07 -4.32906e-08 -0.000999866)
(-2.25355e-07 -4.28701e-08 -0.000999949)
(-1.44842e-07 -4.25658e-08 -0.00100001)
(-4.98584e-08 -4.23334e-08 -0.00100004)
(-3.13843e-07 -1.27079e-07 -0.000999797)
(-2.83329e-07 -1.25675e-07 -0.000999894)
(-2.25027e-07 -1.24485e-07 -0.000999976)
(-1.44641e-07 -1.23619e-07 -0.00100004)
(-4.97919e-08 -1.22948e-07 -0.00100007)
(-3.12011e-07 -1.97458e-07 -0.000999849)
(-2.8168e-07 -1.95346e-07 -0.000999945)
(-2.23724e-07 -1.9353e-07 -0.00100003)
(-1.43819e-07 -1.92203e-07 -0.00100009)
(-4.95164e-08 -1.91173e-07 -0.00100012)
(-3.09499e-07 -2.48292e-07 -0.000999921)
(-2.79427e-07 -2.45664e-07 -0.00100002)
(-2.21921e-07 -2.434e-07 -0.0010001)
(-1.42687e-07 -2.4175e-07 -0.00100016)
(-4.91403e-08 -2.40468e-07 -0.00100019)
(-3.06451e-07 -2.74773e-07 -0.001)
(-2.7679e-07 -2.71691e-07 -0.0010001)
(-2.19834e-07 -2.69162e-07 -0.00100018)
(-1.4138e-07 -2.67332e-07 -0.00100024)
(-4.87059e-08 -2.65898e-07 -0.00100027)
(-4.29459e-07 -5.96807e-08 -0.000999686)
(-3.87877e-07 -5.89278e-08 -0.000999819)
(-3.08162e-07 -5.82996e-08 -0.000999933)
(-1.98128e-07 -5.78329e-08 -0.00100002)
(-6.82129e-08 -5.74766e-08 -0.00100006)
(-4.28689e-07 -1.73147e-07 -0.000999724)
(-3.87168e-07 -1.71034e-07 -0.000999857)
(-3.07606e-07 -1.69241e-07 -0.00099997)
(-1.97761e-07 -1.67912e-07 -0.00100005)
(-6.8083e-08 -1.66907e-07 -0.0010001)
(-4.25947e-07 -2.68944e-07 -0.000999795)
(-3.8468e-07 -2.65738e-07 -0.000999927)
(-3.05619e-07 -2.62979e-07 -0.00100004)
(-1.96494e-07 -2.60946e-07 -0.00100012)
(-6.7657e-08 -2.59416e-07 -0.00100016)
(-4.22155e-07 -3.37986e-07 -0.000999893)
(-3.81236e-07 -3.3399e-07 -0.00100002)
(-3.02866e-07 -3.30532e-07 -0.00100013)
(-1.94749e-07 -3.27987e-07 -0.00100021)
(-6.70706e-08 -3.26058e-07 -0.00100026)
(-4.17604e-07 -3.73645e-07 -0.00100001)
(-3.77228e-07 -3.69086e-07 -0.00100014)
(-2.99648e-07 -3.65221e-07 -0.00100024)
(-1.92691e-07 -3.62394e-07 -0.00100032)
(-6.63718e-08 -3.60244e-07 -0.00100037)
(-5.87073e-07 -8.13613e-08 -0.000999572)
(-5.3048e-07 -8.02445e-08 -0.000999755)
(-4.21647e-07 -7.92782e-08 -0.00099991)
(-2.71182e-07 -7.8553e-08 -0.00100002)
(-9.33821e-08 -7.80308e-08 -0.00100009)
(-5.85809e-07 -2.36025e-07 -0.000999624)
(-5.29309e-07 -2.32842e-07 -0.000999806)
(-4.20687e-07 -2.30091e-07 -0.000999961)
(-2.70555e-07 -2.28048e-07 -0.00100007)
(-9.31688e-08 -2.26565e-07 -0.00100014)
(-5.81653e-07 -3.66488e-07 -0.000999722)
(-5.25508e-07 -3.61571e-07 -0.000999902)
(-4.17639e-07 -3.57347e-07 -0.00100006)
(-2.68612e-07 -3.54233e-07 -0.00100017)
(-9.25136e-08 -3.51944e-07 -0.00100023)
(-5.7587e-07 -4.60288e-07 -0.000999855)
(-5.20214e-07 -4.54093e-07 -0.00100003)
(-4.13419e-07 -4.4877e-07 -0.00100018)
(-2.65907e-07 -4.44838e-07 -0.00100029)
(-9.15898e-08 -4.41946e-07 -0.00100035)
(-5.68995e-07 -5.08193e-07 -0.00100001)
(-5.13993e-07 -5.01304e-07 -0.00100019)
(-4.08427e-07 -4.95366e-07 -0.00100033)
(-2.62706e-07 -4.91005e-07 -0.00100044)
(-9.05031e-08 -4.87808e-07 -0.0010005)
(-8.02978e-07 -1.11031e-07 -0.000999417)
(-7.2598e-07 -1.09337e-07 -0.000999667)
(-5.77416e-07 -1.07845e-07 -0.000999881)
(-3.71599e-07 -1.06738e-07 -0.00100004)
(-1.28018e-07 -1.05969e-07 -0.00100012)
(-8.00881e-07 -3.22014e-07 -0.000999488)
(-7.24028e-07 -3.17158e-07 -0.000999737)
(-5.75808e-07 -3.12935e-07 -0.00099995)
(-3.70567e-07 -3.09803e-07 -0.00100011)
(-1.27671e-07 -3.07572e-07 -0.00100019)
(-7.9453e-07 -4.99672e-07 -0.000999622)
(-7.18206e-07 -4.92151e-07 -0.000999868)
(-5.71128e-07 -4.85695e-07 -0.00100008)
(-3.67538e-07 -4.80896e-07 -0.00100023)
(-1.26627e-07 -4.77429e-07 -0.00100031)
(-7.85708e-07 -6.26946e-07 -0.000999804)
(-7.10115e-07 -6.17435e-07 -0.00100005)
(-5.6465e-07 -6.09292e-07 -0.00100025)
(-3.63335e-07 -6.03251e-07 -0.0010004)
(-1.25178e-07 -5.98928e-07 -0.00100049)
(-7.75277e-07 -6.91261e-07 -0.00100002)
(-7.00555e-07 -6.80765e-07 -0.00100025)
(-5.57003e-07 -6.71682e-07 -0.00100046)
(-3.58432e-07 -6.64998e-07 -0.00100061)
(-1.23512e-07 -6.60247e-07 -0.00100068)
(-1.09886e-06 -1.51708e-07 -0.000999205)
(-9.94328e-07 -1.49116e-07 -0.000999548)
(-7.9169e-07 -1.4683e-07 -0.000999842)
(-5.10017e-07 -1.45113e-07 -0.00100006)
(-1.75817e-07 -1.43916e-07 -0.00100017)
(-1.09544e-06 -4.39775e-07 -0.000999303)
(-9.91123e-07 -4.32384e-07 -0.000999644)
(-7.89031e-07 -4.25907e-07 -0.000999937)
(-5.0825e-07 -4.21012e-07 -0.00100015)
(-1.75196e-07 -4.17557e-07 -0.00100027)
(-1.08579e-06 -6.81755e-07 -0.000999485)
(-9.82231e-07 -6.70371e-07 -0.000999822)
(-7.81765e-07 -6.60463e-07 -0.00100011)
(-5.03446e-07 -6.52977e-07 -0.00100032)
(-1.73515e-07 -6.47697e-07 -0.00100044)
(-1.07243e-06 -8.54302e-07 -0.000999734)
(-9.69918e-07 -8.39913e-07 -0.00100007)
(-7.71768e-07 -8.27443e-07 -0.00100035)
(-4.96904e-07 -8.18119e-07 -0.00100056)
(-1.71256e-07 -8.11607e-07 -0.00100067)
(-1.05665e-06 -9.40436e-07 -0.00100002)
(-9.55377e-07 -9.24461e-07 -0.00100035)
(-7.60052e-07 -9.10592e-07 -0.00100063)
(-4.89334e-07 -9.00322e-07 -0.00100083)
(-1.68662e-07 -8.93182e-07 -0.00100094)
(-1.50446e-06 -2.07592e-07 -0.000998913)
(-1.36321e-06 -2.03651e-07 -0.000999385)
(-1.08715e-06 -2.00105e-07 -0.00099979)
(-7.01379e-07 -1.97345e-07 -0.00100009)
(-2.41987e-07 -1.95435e-07 -0.00100025)
(-1.49904e-06 -6.01488e-07 -0.000999048)
(-1.35799e-06 -5.90268e-07 -0.000999516)
(-1.08266e-06 -5.80195e-07 -0.000999919)
(-6.98271e-07 -5.72378e-07 -0.00100022)
(-2.40865e-07 -5.6697e-07 -0.00100038)
(-1.48449e-06 -9.3144e-07 -0.000999299)
(-1.34432e-06 -9.14184e-07 -0.000999761)
(-1.07122e-06 -8.98819e-07 -0.00100016)
(-6.90589e-07 -8.87032e-07 -0.00100045)
(-2.38166e-07 -8.78909e-07 -0.00100061)
(-1.46431e-06 -1.16532e-06 -0.000999641)
(-1.32549e-06 -1.14348e-06 -0.00100009)
(-1.05569e-06 -1.12429e-06 -0.00100048)
(-6.80317e-07 -1.10979e-06 -0.00100077)
(-2.34591e-07 -1.09984e-06 -0.00100092)
(-1.44038e-06 -1.28003e-06 -0.00100004)
(-1.30329e-06 -1.2556e-06 -0.00100048)
(-1.03764e-06 -1.23438e-06 -0.00100086)
(-6.68516e-07 -1.21852e-06 -0.00100114)
(-2.30508e-07 -1.2077e-06 -0.00100129)
(-2.06056e-06 -2.84634e-07 -0.000998512)
(-1.87104e-06 -2.78605e-07 -0.000999159)
(-1.49576e-06 -2.72967e-07 -0.00099972)
(-9.67164e-07 -2.68438e-07 -0.00100014)
(-3.34123e-07 -2.65365e-07 -0.00100036)
(-2.05203e-06 -8.24384e-07 -0.000998698)
(-1.86243e-06 -8.07237e-07 -0.000999341)
(-1.48804e-06 -7.91323e-07 -0.000999896)
(-9.61686e-07 -7.78642e-07 -0.00100031)
(-3.32131e-07 -7.70004e-07 -0.00100053)
(-2.03016e-06 -1.27487e-06 -0.000999045)
(-1.84122e-06 -1.24863e-06 -0.000999678)
(-1.46982e-06 -1.22466e-06 -0.00100022)
(-9.4918e-07 -1.20585e-06 -0.00100063)
(-3.27677e-07 -1.19302e-06 -0.00100085)
(-1.99989e-06 -1.59152e-06 -0.000999515)
(-1.81238e-06 -1.55851e-06 -0.00100014)
(-1.44551e-06 -1.52898e-06 -0.00100067)
(-9.32754e-07 -1.50621e-06 -0.00100106)
(-3.21874e-07 -1.49077e-06 -0.00100127)
(-1.96399e-06 -1.74305e-06 -0.00100006)
(-1.7787e-06 -1.70592e-06 -0.00100066)
(-1.41767e-06 -1.67349e-06 -0.00100118)
(-9.14242e-07 -1.6489e-06 -0.00100156)
(-3.15397e-07 -1.63242e-06 -0.00100177)
(-2.82254e-06 -3.91154e-07 -0.000997956)
(-2.57117e-06 -3.81817e-07 -0.000998846)
(-2.0633e-06 -3.72672e-07 -0.000999623)
(-1.3391e-06 -3.65069e-07 -0.00100021)
(-4.63616e-07 -3.59935e-07 -0.00100053)
(-2.80917e-06 -1.13283e-06 -0.000998213)
(-2.55681e-06 -1.10652e-06 -0.000999095)
(-2.04986e-06 -1.08103e-06 -0.000999864)
(-1.32925e-06 -1.0599e-06 -0.00100044)
(-4.59969e-07 -1.04549e-06 -0.00100076)
(-2.77661e-06 -1.74896e-06 -0.000998696)
(-2.52376e-06 -1.7092e-06 -0.000999564)
(-2.02028e-06 -1.67149e-06 -0.00100032)
(-1.30814e-06 -1.64069e-06 -0.00100088)
(-4.5225e-07 -1.61967e-06 -0.00100118)
(-2.73179e-06 -2.17737e-06 -0.000999345)
(-2.47956e-06 -2.12796e-06 -0.00100019)
(-1.98168e-06 -2.08247e-06 -0.00100093)
(-1.2812e-06 -2.04616e-06 -0.00100147)
(-4.42538e-07 -2.02161e-06 -0.00100176)
(-2.67894e-06 -2.3755e-06 -0.00100009)
(-2.42887e-06 -2.3195e-06 -0.00100092)
(-1.93869e-06 -2.27008e-06 -0.00100163)
(-1.25181e-06 -2.23172e-06 -0.00100216)
(-4.3209e-07 -2.2064e-06 -0.00100243)
(-3.865e-06 -5.38661e-07 -0.000997179)
(-3.53859e-06 -5.23988e-07 -0.000998405)
(-2.85683e-06 -5.08737e-07 -0.000999487)
(-1.86549e-06 -4.95479e-07 -0.00100032)
(-6.4804e-07 -4.86436e-07 -0.00100078)
(-3.84418e-06 -1.5622e-06 -0.000997534)
(-3.5142e-06 -1.5216e-06 -0.000998747)
(-2.83275e-06 -1.47984e-06 -0.000999814)
(-1.84711e-06 -1.44314e-06 -0.00100063)
(-6.41048e-07 -1.41768e-06 -0.00100108)
(-3.79662e-06 -2.40742e-06 -0.000998215)
(-3.46216e-06 -2.34708e-06 -0.000999405)
(-2.78322e-06 -2.28666e-06 -0.00100044)
(-1.80965e-06 -2.2344e-06 -0.00100123)
(-6.26849e-07 -2.19825e-06 -0.00100166)
(-3.73124e-06 -2.98738e-06 -0.000999115)
(-3.39374e-06 -2.91371e-06 -0.00100027)
(-2.72052e-06 -2.84338e-06 -0.00100128)
(-1.76397e-06 -2.78414e-06 -0.00100203)
(-6.09974e-07 -2.74372e-06 -0.00100244)
(-3.65587e-06 -3.24264e-06 -0.00100015)
(-3.31817e-06 -3.15851e-06 -0.00100128)
(-2.65393e-06 -3.08383e-06 -0.00100226)
(-1.71631e-06 -3.02331e-06 -0.00100298)
(-5.92604e-07 -2.98403e-06 -0.00100337)
(-5.28648e-06 -7.42439e-07 -0.000996078)
(-4.87998e-06 -7.18524e-07 -0.000997776)
(-3.97679e-06 -6.91845e-07 -0.00099929)
(-2.62321e-06 -6.67739e-07 -0.0010005)
(-9.15774e-07 -6.51092e-07 -0.00100118)
(-5.2539e-06 -2.16577e-06 -0.000996563)
(-4.83674e-06 -2.10174e-06 -0.000998236)
(-3.93188e-06 -2.03118e-06 -0.000999717)
(-2.58776e-06 -1.96423e-06 -0.00100089)
(-9.0197e-07 -1.9161e-06 -0.00100155)
(-5.18694e-06 -3.33006e-06 -0.000997549)
(-4.75332e-06 -3.23705e-06 -0.000999184)
(-3.84577e-06 -3.13786e-06 -0.00100062)
(-2.5169e-06 -3.04498e-06 -0.00100174)
(-8.73742e-07 -2.97898e-06 -0.00100235)
(-5.09289e-06 -4.11627e-06 -0.000998796)
(-4.64495e-06 -4.00684e-06 -0.00100038)
(-3.74044e-06 -3.89806e-06 -0.00100175)
(-2.43638e-06 -3.7983e-06 -0.00100281)
(-8.4329e-07 -3.72847e-06 -0.00100338)
(-4.99289e-06 -4.44036e-06 -0.00100027)
(-4.53513e-06 -4.31317e-06 -0.00100181)
(-3.63762e-06 -4.20314e-06 -0.00100315)
(-2.35626e-06 -4.10548e-06 -0.00100416)
(-8.12731e-07 -4.04418e-06 -0.00100468)