/*--------------------------------*- C++ -*----------------------------------*\
| =========                 |                                                 |
| \\      /  F ield         | OpenFOAM: The Open Source CFD Toolbox           |
|  \\    /   O peration     | Version:  5.x                                   |
|   \\  /    A nd           | Web:      www.OpenFOAM.org                      |
|    \\/     M anipulation  |                                                 |
\*---------------------------------------------------------------------------*/
FoamFile
{
    version     2.0;
    format      ascii;
    class       volVectorField;
    location    "1000";
    object      stored_U;
}
// * * * * * * * * * * * * * * * * * * * * * * * * * * * * * * * * * * * * * //

dimensions      [0 1 -1 0 0 0 0];

internalField   nonuniform List<vector> 
90
(
(1.98496e-09 -6.37222e-09 -0.000999984)
(2.70087e-09 -1.09188e-08 -0.000999983)
(3.67378e-09 -1.66562e-08 -0.000999981)
(4.72589e-09 -2.32534e-08 -0.000999978)
(5.80784e-09 -3.09487e-08 -0.000999973)
(6.88316e-09 -4.01174e-08 -0.000999967)
(7.89438e-09 -5.12285e-08 -0.000999959)
(8.74884e-09 -6.48623e-08 -0.000999949)
(9.30503e-09 -8.17413e-08 -0.000999935)
(9.35593e-09 -1.02771e-07 -0.000999917)
(8.60705e-09 -1.29088e-07 -0.000999895)
(6.64628e-09 -1.62128e-07 -0.000999865)
(2.90789e-09 -2.03705e-07 -0.000999828)
(-3.37066e-09 -2.56112e-07 -0.000999779)
(-1.32998e-08 -3.223e-07 -0.000999716)
(-2.84414e-08 -4.06056e-07 -0.000999635)
(-5.09346e-08 -5.12235e-07 -0.00099953)
(-8.37111e-08 -6.47076e-07 -0.000999394)
(-1.3078e-07 -8.18611e-07 -0.000999218)
(-1.97612e-07 -1.0372e-06 -0.000998988)
(-2.91641e-07 -1.31623e-06 -0.00099869)
(-4.22899e-07 -1.67301e-06 -0.000998302)
(-6.04848e-07 -2.12994e-06 -0.000997796)
(-8.56066e-07 -2.71607e-06 -0.000997136)
(-1.20088e-06 -3.46905e-06 -0.000996274)
(-1.67223e-06 -4.43778e-06 -0.000995147)
(-2.31429e-06 -5.68577e-06 -0.000993674)
(-3.18622e-06 -7.29553e-06 -0.000991746)
(-4.36706e-06 -9.37452e-06 -0.00098922)
(-5.96251e-06 -1.2063e-05 -0.000985897)
(-8.11392e-06 -1.5545e-05 -0.00098153)
(-1.10109e-05 -2.0064e-05 -0.000975905)
(-1.49165e-05 -2.59519e-05 -0.000968859)
(-2.02018e-05 -3.36422e-05 -0.000959199)
(-2.71796e-05 -4.33865e-05 -0.000941673)
(-3.395e-05 -5.23151e-05 -0.000915488)
(-3.70073e-05 -5.54654e-05 -0.000910028)
(-3.24673e-05 -4.70435e-05 -0.00104597)
(-2.13195e-05 -2.69533e-05 -0.000357904)
(0.000108389 0.000145675 -0.00194636)
(-5.39622e-06 -9.06392e-06 -0.00169332)
(-3.53626e-05 -7.05734e-05 -0.00154051)
(-3.20863e-05 -6.0572e-05 -0.00241304)
(-6.39464e-05 -6.21266e-05 -0.00214476)
(-8.12769e-05 -8.11236e-05 -0.00243543)
(-4.70524e-05 -4.33271e-05 -0.00181298)
(-6.04462e-05 2.05516e-05 -0.00260297)
(-1.24676e-05 4.63296e-05 -0.00174793)
(1.88404e-05 8.02255e-05 -0.0023435)
(-4.84289e-05 -2.9879e-05 -0.00227997)
(-2.71988e-05 -4.82104e-05 -0.00165959)
(-6.67517e-06 -1.94171e-05 -0.00162058)
(2.51843e-05 6.73199e-05 -0.00180749)
(5.02208e-05 3.83077e-05 -0.00101838)
(5.87492e-05 4.3155e-05 -0.000866535)
(5.86213e-05 3.24893e-05 -0.000912627)
(4.81332e-05 2.44116e-05 -0.00094062)
(3.79044e-05 1.81308e-05 -0.000954871)
(2.96893e-05 1.34103e-05 -0.000964842)
(2.32748e-05 9.877e-06 -0.000972697)
(1.82794e-05 7.24821e-06 -0.000978837)
(1.43833e-05 5.29872e-06 -0.000983583)
(1.13381e-05 3.85619e-06 -0.000987246)
(8.95293e-06 2.79145e-06 -0.000990079)
(7.08126e-06 2.00793e-06 -0.000992272)
(5.60983e-06 1.43335e-06 -0.000993972)
(4.45102e-06 1.01366e-06 -0.000995291)
(3.53685e-06 7.08551e-07 -0.000996316)
(2.8145e-06 4.87968e-07 -0.000997113)
(2.24281e-06 3.29548e-07 -0.000997735)
(1.78968e-06 2.16686e-07 -0.00099822)
(1.43002e-06 1.37117e-07 -0.0009986)
(1.14425e-06 8.18852e-08 -0.000998898)
(9.17009e-07 4.44301e-08 -0.000999132)
(7.36082e-07 1.96649e-08 -0.000999315)
(5.9179e-07 3.73054e-09 -0.000999459)
(4.765e-07 -6.18931e-09 -0.000999571)
(3.84234e-07 -1.20498e-08 -0.00099966)
(3.10307e-07 -1.51692e-08 -0.00099973)
(2.50993e-07 -1.65158e-08 -0.000999786)
(2.0336e-07 -1.67431e-08 -0.000999831)
(1.65085e-07 -1.63028e-08 -0.000999866)
(1.34326e-07 -1.55075e-08 -0.000999895)
(1.0963e-07 -1.45671e-08 -0.000999918)
(8.98479e-08 -1.36158e-08 -0.000999936)
(7.4064e-08 -1.27323e-08 -0.00099995)
(6.15166e-08 -1.1949e-08 -0.000999962)
(5.15744e-08 -1.12496e-08 -0.000999971)
(4.42081e-08 -1.06249e-08 -0.000999979)
(4.12629e-08 -1.03451e-08 -0.000999984)
)
;

boundaryField
{
    inlet
    {
        type            calculated;
        value           uniform (4.12629e-08 -1.03451e-08 -0.000999984);
    }
    outlet
    {
        type            calculated;
        value           uniform (1.98496e-09 -6.37222e-09 -0.000999984);
    }
    repeat_boundary
    {
        type            calculated;
        value           nonuniform List<vector> 
180
(
(1.98496e-09 0 -0.000999984)
(2.70087e-09 0 -0.000999983)
(3.67378e-09 0 -0.000999981)
(4.72589e-09 0 -0.000999978)
(5.80784e-09 0 -0.000999973)
(6.88316e-09 0 -0.000999967)
(7.89438e-09 0 -0.000999959)
(8.74884e-09 0 -0.000999949)
(9.30503e-09 0 -0.000999935)
(9.35593e-09 0 -0.000999917)
(8.60705e-09 0 -0.000999895)
(6.64628e-09 0 -0.000999865)
(2.90789e-09 0 -0.000999828)
(-3.37066e-09 0 -0.000999779)
(-1.32998e-08 0 -0.000999716)
(-2.84414e-08 0 -0.000999635)
(-5.09346e-08 0 -0.00099953)
(-8.37111e-08 0 -0.000999394)
(-1.3078e-07 0 -0.000999218)
(-1.97612e-07 0 -0.000998988)
(-2.91641e-07 0 -0.00099869)
(-4.22899e-07 0 -0.000998302)
(-6.04848e-07 0 -0.000997796)
(-8.56066e-07 0 -0.000997136)
(-1.20088e-06 0 -0.000996274)
(-1.67223e-06 0 -0.000995147)
(-2.31429e-06 0 -0.000993674)
(-3.18622e-06 0 -0.000991746)
(-4.36706e-06 0 -0.00098922)
(-5.96251e-06 0 -0.000985897)
(-8.11392e-06 0 -0.00098153)
(-1.10109e-05 0 -0.000975905)
(-1.49165e-05 0 -0.000968859)
(-2.02018e-05 0 -0.000959199)
(-2.71796e-05 0 -0.000941673)
(-3.395e-05 0 -0.000915488)
(-3.70073e-05 0 -0.000910028)
(-3.24673e-05 0 -0.00104597)
(-2.13195e-05 0 -0.000357904)
(0.000108389 0 -0.00194636)
(-5.39622e-06 0 -0.00169332)
(-3.53626e-05 0 -0.00154051)
(-3.20863e-05 0 -0.00241304)
(-6.39464e-05 0 -0.00214476)
(-8.12769e-05 0 -0.00243543)
(-4.70524e-05 0 -0.00181298)
(-6.04462e-05 0 -0.00260297)
(-1.24676e-05 0 -0.00174793)
(1.88404e-05 0 -0.0023435)
(-4.84289e-05 0 -0.00227997)
(-2.71988e-05 0 -0.00165959)
(-6.67517e-06 0 -0.00162058)
(2.51843e-05 0 -0.00180749)
(5.02208e-05 0 -0.00101838)
(5.87492e-05 0 -0.000866535)
(5.86213e-05 0 -0.000912627)
(4.81332e-05 0 -0.00094062)
(3.79044e-05 0 -0.000954871)
(2.96893e-05 0 -0.000964842)
(2.32748e-05 0 -0.000972697)
(1.82794e-05 0 -0.000978837)
(1.43833e-05 0 -0.000983583)
(1.13381e-05 0 -0.000987246)
(8.95293e-06 0 -0.000990079)
(7.08126e-06 0 -0.000992272)
(5.60983e-06 0 -0.000993972)
(4.45102e-06 0 -0.000995291)
(3.53685e-06 0 -0.000996316)
(2.8145e-06 0 -0.000997113)
(2.24281e-06 0 -0.000997735)
(1.78968e-06 0 -0.00099822)
(1.43002e-06 0 -0.0009986)
(1.14425e-06 0 -0.000998898)
(9.17009e-07 0 -0.000999132)
(7.36082e-07 0 -0.000999315)
(5.9179e-07 0 -0.000999459)
(4.765e-07 0 -0.000999571)
(3.84234e-07 0 -0.00099966)
(3.10307e-07 0 -0.00099973)
(2.50993e-07 0 -0.000999786)
(2.0336e-07 0 -0.000999831)
(1.65085e-07 0 -0.000999866)
(1.34326e-07 0 -0.000999895)
(1.0963e-07 0 -0.000999918)
(8.98479e-08 0 -0.000999936)
(7.4064e-08 0 -0.00099995)
(6.15166e-08 0 -0.000999962)
(5.15744e-08 0 -0.000999971)
(4.42081e-08 0 -0.000999979)
(4.12629e-08 0 -0.000999984)
(0 -6.37222e-09 -0.000999984)
(0 -1.09188e-08 -0.000999983)
(0 -1.66562e-08 -0.000999981)
(0 -2.32534e-08 -0.000999978)
(0 -3.09487e-08 -0.000999973)
(0 -4.01174e-08 -0.000999967)
(0 -5.12285e-08 -0.000999959)
(0 -6.48623e-08 -0.000999949)
(0 -8.17413e-08 -0.000999935)
(0 -1.02771e-07 -0.000999917)
(0 -1.29088e-07 -0.000999895)
(0 -1.62128e-07 -0.000999865)
(0 -2.03705e-07 -0.000999828)
(0 -2.56112e-07 -0.000999779)
(0 -3.223e-07 -0.000999716)
(0 -4.06056e-07 -0.000999635)
(0 -5.12235e-07 -0.00099953)
(0 -6.47076e-07 -0.000999394)
(0 -8.18611e-07 -0.000999218)
(0 -1.0372e-06 -0.000998988)
(0 -1.31623e-06 -0.00099869)
(0 -1.67301e-06 -0.000998302)
(0 -2.12994e-06 -0.000997796)
(0 -2.71607e-06 -0.000997136)
(0 -3.46905e-06 -0.000996274)
(0 -4.43778e-06 -0.000995147)
(0 -5.68577e-06 -0.000993674)
(0 -7.29553e-06 -0.000991746)
(0 -9.37452e-06 -0.00098922)
(0 -1.2063e-05 -0.000985897)
(0 -1.5545e-05 -0.00098153)
(0 -2.0064e-05 -0.000975905)
(0 -2.59519e-05 -0.000968859)
(0 -3.36422e-05 -0.000959199)
(0 -4.33865e-05 -0.000941673)
(0 -5.23151e-05 -0.000915488)
(0 -5.54654e-05 -0.000910028)
(0 -4.70435e-05 -0.00104597)
(0 -2.69533e-05 -0.000357904)
(0 0.000145675 -0.00194636)
(0 -9.06392e-06 -0.00169332)
(0 -7.05734e-05 -0.00154051)
(0 -6.0572e-05 -0.00241304)
(0 -6.21266e-05 -0.00214476)
(0 -8.11236e-05 -0.00243543)
(0 -4.33271e-05 -0.00181298)
(0 2.05516e-05 -0.00260297)
(0 4.63296e-05 -0.00174793)
(0 8.02255e-05 -0.0023435)
(0 -2.9879e-05 -0.00227997)
(0 -4.82104e-05 -0.00165959)
(0 -1.94171e-05 -0.00162058)
(0 6.73199e-05 -0.00180749)
(0 3.83077e-05 -0.00101838)
(0 4.3155e-05 -0.000866535)
(0 3.24893e-05 -0.000912627)
(0 2.44116e-05 -0.00094062)
(0 1.81308e-05 -0.000954871)
(0 1.34103e-05 -0.000964842)
(0 9.877e-06 -0.000972697)
(0 7.24821e-06 -0.000978837)
(0 5.29872e-06 -0.000983583)
(0 3.85619e-06 -0.000987246)
(0 2.79145e-06 -0.000990079)
(0 2.00793e-06 -0.000992272)
(0 1.43335e-06 -0.000993972)
(0 1.01366e-06 -0.000995291)
(0 7.08551e-07 -0.000996316)
(0 4.87968e-07 -0.000997113)
(0 3.29548e-07 -0.000997735)
(0 2.16686e-07 -0.00099822)
(0 1.37117e-07 -0.0009986)
(0 8.18852e-08 -0.000998898)
(0 4.44301e-08 -0.000999132)
(0 1.96649e-08 -0.000999315)
(0 3.73054e-09 -0.000999459)
(0 -6.18931e-09 -0.000999571)
(0 -1.20498e-08 -0.00099966)
(0 -1.51692e-08 -0.00099973)
(0 -1.65158e-08 -0.000999786)
(0 -1.67431e-08 -0.000999831)
(0 -1.63028e-08 -0.000999866)
(0 -1.55075e-08 -0.000999895)
(0 -1.45671e-08 -0.000999918)
(0 -1.36158e-08 -0.000999936)
(0 -1.27323e-08 -0.00099995)
(0 -1.1949e-08 -0.000999962)
(0 -1.12496e-08 -0.000999971)
(0 -1.06249e-08 -0.000999979)
(0 -1.03451e-08 -0.000999984)
)
;
    }
    procBoundary0to1
    {
        type            processor;
        value           nonuniform List<vector> 
90
(
(1.98493e-09 -4.26631e-09 -0.000999974)
(2.70083e-09 -6.98336e-09 -0.000999972)
(3.67371e-09 -1.03863e-08 -0.00099997)
(4.72579e-09 -1.41732e-08 -0.000999966)
(5.80777e-09 -1.83869e-08 -0.000999962)
(6.88316e-09 -2.3122e-08 -0.000999956)
(7.89436e-09 -2.84762e-08 -0.000999949)
(8.74872e-09 -3.45408e-08 -0.000999941)
(9.3048e-09 -4.13942e-08 -0.000999931)
(9.35554e-09 -4.90943e-08 -0.00099992)
(8.60641e-09 -5.76658e-08 -0.000999907)
(6.64516e-09 -6.70821e-08 -0.000999893)
(2.90595e-09 -7.72398e-08 -0.000999877)
(-3.37411e-09 -8.79248e-08 -0.00099986)
(-1.3306e-08 -9.87181e-08 -0.000999842)
(-2.84526e-08 -1.08914e-07 -0.000999825)
(-5.09549e-08 -1.17411e-07 -0.00099981)
(-8.3748e-08 -1.2254e-07 -0.0009998)
(-1.30848e-07 -1.21828e-07 -0.000999798)
(-1.97736e-07 -1.11662e-07 -0.00099981)
(-2.91868e-07 -8.68677e-08 -0.000999843)
(-4.23311e-07 -4.01974e-08 -0.000999908)
(-6.05595e-07 3.83491e-08 -0.00100002)
(-8.57402e-07 1.63581e-07 -0.0010002)
(-1.20327e-06 3.54671e-07 -0.00100048)
(-1.67648e-06 6.38613e-07 -0.00100089)
(-2.32189e-06 1.05266e-06 -0.00100149)
(-3.19977e-06 1.64786e-06 -0.00100237)
(-4.39119e-06 2.49401e-06 -0.00100361)
(-6.00525e-06 3.68637e-06 -0.00100535)
(-8.18904e-06 5.3553e-06 -0.00100775)
(-1.11432e-05 7.68189e-06 -0.00101121)
(-1.51592e-05 1.09314e-05 -0.00101659)
(-2.06805e-05 1.55025e-05 -0.00102408)
(-2.80299e-05 2.17229e-05 -0.00102774)
(-3.38763e-05 2.70252e-05 -0.00102057)
(-3.76361e-05 3.21768e-05 -0.00105582)
(-3.18322e-05 3.08557e-05 -0.00129004)
(-2.04746e-05 2.04343e-05 -0.000372864)
(9.33682e-05 -5.38178e-05 -0.00259935)
(-3.2077e-06 -6.62736e-07 -0.00119277)
(-6.63905e-05 1.70822e-05 -0.00305768)
(-2.34015e-05 1.30055e-05 -0.00181029)
(-8.73313e-05 2.08198e-05 -0.00333037)
(-7.11652e-05 -5.45659e-05 -0.00215525)
(-8.50739e-05 -2.2779e-05 -0.00331717)
(-5.15718e-05 2.65549e-05 -0.00195681)
(-2.32018e-05 0.00012444 -0.003328)
(1.57367e-05 1.42202e-05 -0.00232604)
(-5.24209e-05 -5.00706e-05 -0.00275066)
(-3.97368e-05 -6.51957e-05 -0.00264303)
(-1.13847e-05 -3.5318e-05 -0.00167711)
(-5.74747e-06 1.17835e-05 -0.00246465)
(6.99818e-05 -3.57323e-05 -0.00106909)
(7.40159e-05 -4.6186e-05 -0.00106405)
(6.15175e-05 -4.01313e-05 -0.00107923)
(4.7377e-05 -3.10164e-05 -0.00106589)
(3.71464e-05 -2.40173e-05 -0.00105091)
(2.92095e-05 -1.85895e-05 -0.00103966)
(2.29868e-05 -1.43804e-05 -0.00103115)
(1.81074e-05 -1.11269e-05 -0.00102454)
(1.42804e-05 -8.61431e-06 -0.00101935)
(1.12762e-05 -6.67368e-06 -0.00101528)
(8.91571e-06 -5.17446e-06 -0.00101209)
(7.05877e-06 -4.01582e-06 -0.00100957)
(5.59619e-06 -3.11986e-06 -0.00100759)
(4.44272e-06 -2.42654e-06 -0.00100603)
(3.53179e-06 -1.88959e-06 -0.0010048)
(2.8114e-06 -1.47338e-06 -0.00100382)
(2.2409e-06 -1.15045e-06 -0.00100305)
(1.7885e-06 -8.99628e-07 -0.00100243)
(1.42929e-06 -7.04586e-07 -0.00100195)
(1.1438e-06 -5.52729e-07 -0.00100156)
(9.16727e-07 -4.34341e-07 -0.00100125)
(7.35907e-07 -3.41929e-07 -0.001001)
(5.9168e-07 -2.69701e-07 -0.0010008)
(4.76431e-07 -2.13176e-07 -0.00100065)
(3.84191e-07 -1.68872e-07 -0.00100052)
(3.10279e-07 -1.34085e-07 -0.00100042)
(2.50976e-07 -1.06713e-07 -0.00100034)
(2.0335e-07 -8.51235e-08 -0.00100028)
(1.65078e-07 -6.80538e-08 -0.00100022)
(1.34322e-07 -5.45304e-08 -0.00100018)
(1.09628e-07 -4.3807e-08 -0.00100015)
(8.98465e-08 -3.53139e-08 -0.00100012)
(7.40642e-08 -2.86143e-08 -0.0010001)
(6.15224e-08 -2.33569e-08 -0.00100008)
(5.1605e-08 -1.92464e-08 -0.00100006)
(4.41736e-08 -1.61506e-08 -0.00100004)
(4.12577e-08 -1.49045e-08 -0.00100003)
)
;
    }
    procBoundary0to2
    {
        type            processor;
        value           nonuniform List<vector> 
90
(
(4.09102e-09 -6.3724e-09 -0.00100004)
(6.63615e-09 -1.09187e-08 -0.00100004)
(9.94323e-09 -1.66559e-08 -0.00100005)
(1.38057e-08 -2.32532e-08 -0.00100005)
(1.83694e-08 -3.09487e-08 -0.00100006)
(2.3879e-08 -4.01181e-08 -0.00100007)
(3.06475e-08 -5.12297e-08 -0.00100009)
(3.90712e-08 -6.48637e-08 -0.00100011)
(4.96531e-08 -8.17432e-08 -0.00100013)
(6.30338e-08 -1.02774e-07 -0.00100016)
(8.00316e-08 -1.29093e-07 -0.0010002)
(1.01696e-07 -1.62136e-07 -0.00100025)
(1.29379e-07 -2.03717e-07 -0.00100031)
(1.64827e-07 -2.56131e-07 -0.00100039)
(2.10297e-07 -3.2233e-07 -0.00100049)
(2.68726e-07 -4.06105e-07 -0.00100062)
(3.43931e-07 -5.12316e-07 -0.00100078)
(4.40892e-07 -6.47209e-07 -0.00100098)
(5.66113e-07 -8.1883e-07 -0.00100124)
(7.28107e-07 -1.03757e-06 -0.00100157)
(9.38015e-07 -1.31684e-06 -0.00100198)
(1.21039e-06 -1.67403e-06 -0.00100252)
(1.56423e-06 -2.13165e-06 -0.0010032)
(2.02486e-06 -2.71894e-06 -0.00100408)
(2.62493e-06 -3.47392e-06 -0.00100521)
(3.40759e-06 -4.44606e-06 -0.00100665)
(4.42972e-06 -5.69986e-06 -0.00100852)
(5.7663e-06 -7.31957e-06 -0.00101093)
(7.5163e-06 -9.41553e-06 -0.00101403)
(9.81054e-06 -1.21325e-05 -0.00101804)
(1.28221e-05 -1.56603e-05 -0.0010232)
(1.6782e-05 -2.02491e-05 -0.00103)
(2.20152e-05 -2.62488e-05 -0.00103949)
(2.90239e-05 -3.42096e-05 -0.00105205)
(3.80529e-05 -4.43631e-05 -0.0010616)
(4.52462e-05 -5.21128e-05 -0.00105863)
(4.98005e-05 -5.51893e-05 -0.001106)
(4.32978e-05 -4.41134e-05 -0.00135852)
(2.33752e-05 -2.29211e-05 -0.00038046)
(-8.59233e-05 0.000125286 -0.00276736)
(2.42157e-06 -7.38838e-06 -0.0013051)
(6.49322e-05 -0.00011161 -0.00293543)
(5.43136e-05 -6.12815e-05 -0.00231335)
(9.29681e-06 -7.69238e-05 -0.00316002)
(-5.45567e-05 -7.78142e-05 -0.00215808)
(-7.18701e-05 -4.68342e-05 -0.00320625)
(-4.31205e-05 3.08517e-05 -0.00224143)
(-6.25604e-05 0.00015138 -0.00334563)
(-2.75803e-05 2.21985e-05 -0.00180059)
(-8.20092e-05 -2.30176e-05 -0.0033162)
(-5.72013e-05 -4.17035e-05 -0.00206726)
(-4.71328e-05 -1.79507e-05 -0.00205913)
(9.84071e-06 3.60441e-05 -0.00203374)
(4.53972e-05 7.13154e-05 -0.00150122)
(-1.13802e-05 5.91341e-05 -0.000896507)
(-1.27137e-05 3.77517e-05 -0.00103054)
(-8.04638e-06 2.46889e-05 -0.0010222)
(-4.76276e-06 1.79572e-05 -0.00101259)
(-2.62156e-06 1.32838e-05 -0.0010074)
(-1.17184e-06 9.80678e-06 -0.00100444)
(-2.11556e-07 7.21091e-06 -0.00100246)
(3.99261e-07 5.27898e-06 -0.00100111)
(7.64643e-07 3.84563e-06 -0.00100021)
(9.60348e-07 2.78579e-06 -0.000999642)
(1.04117e-06 2.0049e-06 -0.000999302)
(1.04661e-06 1.43173e-06 -0.00099912)
(1.00469e-06 1.0128e-06 -0.000999045)
(9.34958e-07 7.08095e-07 -0.000999039)
(8.50857e-07 4.87728e-07 -0.000999077)
(7.6141e-07 3.29421e-07 -0.000999141)
(6.72505e-07 2.1662e-07 -0.000999218)
(5.87793e-07 1.37083e-07 -0.000999299)
(5.09316e-07 8.18676e-08 -0.000999379)
(4.38042e-07 4.4421e-08 -0.000999456)
(3.7437e-07 1.96602e-08 -0.000999527)
(3.18285e-07 3.72812e-09 -0.000999594)
(2.6947e-07 -6.19059e-09 -0.000999654)
(2.27385e-07 -1.20505e-08 -0.000999707)
(1.91374e-07 -1.51696e-08 -0.000999754)
(1.60786e-07 -1.65161e-08 -0.000999795)
(1.34974e-07 -1.67433e-08 -0.00099983)
(1.1333e-07 -1.6303e-08 -0.00099986)
(9.53013e-08 -1.55077e-08 -0.000999886)
(8.03892e-08 -1.45671e-08 -0.000999908)
(6.81493e-08 -1.36156e-08 -0.000999927)
(5.81829e-08 -1.27322e-08 -0.000999942)
(5.01156e-08 -1.19496e-08 -0.000999954)
(4.36072e-08 -1.12523e-08 -0.000999965)
(3.86489e-08 -1.06222e-08 -0.000999975)
(3.66976e-08 -1.03447e-08 -0.000999981)
)
;
    }
}


// ************************************************************************* //
