/*--------------------------------*- C++ -*----------------------------------*\
| =========                 |                                                 |
| \\      /  F ield         | OpenFOAM: The Open Source CFD Toolbox           |
|  \\    /   O peration     | Version:  5.x                                   |
|   \\  /    A nd           | Web:      www.OpenFOAM.org                      |
|    \\/     M anipulation  |                                                 |
\*---------------------------------------------------------------------------*/
FoamFile
{
    version     2.0;
    format      ascii;
    class       volScalarField;
    location    "10000";
    object      p;
}
// * * * * * * * * * * * * * * * * * * * * * * * * * * * * * * * * * * * * * //

dimensions      [0 2 -2 0 0 0 0];

internalField   nonuniform List<scalar> 
180
(
-140.848
-263.96
-304.985
-374.849
-420.114
-433.855
-432.912
-468.562
-508.608
-522.377
-521.961
-521.682
-560.954
-599.725
-629.962
-707.09
-801.775
-852.51
-862.077
-850.881
-841.696
-843.031
-884.976
-918.355
-945.186
-1033.1
-1138.24
-1184.27
-1189.11
-1189.02
-1202.11
-1210.73
-1230.49
-1279.37
-1339.89
-1397.76
-1454.9
-1514.4
-1575.02
-1637.22
-1698.08
-1760
-1820.05
-1877.72
-1934.84
-1989.22
-2042.2
-2090.37
-2141.32
-2183.12
-2222.68
-2282.14
-2322.35
-2348.43
-2400.33
-2484.08
-2583.16
-2652.79
-2711.66
-2776.34
-2810.49
-2820.12
-2829.5
-2841.63
-2899.59
-2951.61
-3001.21
-3047.76
-3062.01
-3102.34
-3152.74
-3168.34
-3163.84
-3163.19
-3166.29
-3168.11
-3224.95
-3282.47
-3290.25
-3308.76
-3436.48
-3575.38
-3700.24
-3817.16
-3926.23
-4029.62
-4129.48
-4225.04
-4326.79
-4403.33
-4473.48
-4527.54
-4574.4
-4648.54
-4723.85
-4837.48
-4961.49
-5066.07
-5166.26
-5246.31
-5285.2
-5292.01
-5292.6
-5295.78
-5331.5
-5436.19
-5546.06
-5649.83
-5746.69
-5834.27
-5927.68
-6024.44
-6121.27
-6215.99
-6313.22
-6409.34
-6503.92
-6598.66
-6692.86
-6785.25
-6875.66
-6964.01
-7050.76
-7139.7
-7232.2
-7329.21
-7425.43
-7523.88
-7621.2
-7720.7
-7818.99
-7919.63
-8019.53
-8121.72
-8223.19
-8327.32
-8430.49
-8537.28
-8642.03
-8749.86
-8854.16
-8961.33
-9065.81
-9173.19
-9279.01
-9386.42
-9494.14
-9600.88
-9710.42
-9816.6
-9926.44
-10031.9
-10142
-10248.9
-10356.4
-10466.5
-10570.9
-10682.1
-10791.3
-10900.9
-11013.1
-11120.3
-11234.4
-11342.1
-11455.6
-11562.9
-11671.5
-11774.1
-11885.8
-11993.9
-12096
-12199.2
-12291.1
-12389.5
-12467
-12559.7
-12635
-12674.9
-12705.8
-12715.9
)
;

boundaryField
{
    inlet
    {
        type            zeroGradient;
    }
    outlet
    {
        type            fixedValue;
        value           uniform 0;
    }
    repeat_boundary
    {
        type            zeroGradient;
    }
    procBoundary3to1
    {
        type            processor;
        value           nonuniform List<scalar> 
180
(
-116.249
-218.446
-262.023
-284.983
-292.385
-291.996
-314.906
-386.68
-465.365
-534.017
-599.145
-630.313
-647.493
-684.272
-738.836
-771.442
-796.443
-838.755
-881.149
-930.652
-956.573
-971.335
-1007.09
-1034.57
-1057.96
-1102.27
-1131.31
-1145.57
-1174.69
-1200.61
-1212.38
-1235.14
-1264.78
-1305.88
-1349.99
-1392.74
-1487.72
-1589.29
-1697.53
-1760.16
-1803.37
-1827.67
-1821.61
-1857.23
-1946.18
-1983.73
-2008.44
-2039.05
-2039.83
-2063.09
-2104.01
-2137.82
-2232.72
-2350.41
-2402.02
-2403.01
-2406.56
-2497.15
-2551.21
-2584.14
-2659.11
-2739.86
-2816.07
-2881.87
-2936.21
-2992.25
-3050.37
-3106.87
-3160.54
-3211.6
-3263.9
-3316.63
-3367.39
-3418.03
-3468.07
-3517.45
-3568.55
-3623.65
-3659.65
-3688.37
-3731.11
-3784.21
-3831.57
-3874.71
-3920.07
-3958.87
-4030.48
-4183.77
-4265.76
-4286.42
-4283.71
-4287.1
-4298.29
-4357.89
-4448.24
-4507.82
-4565.77
-4692.71
-4855.63
-5004.34
-5122.1
-5228.68
-5380.09
-5463.24
-5468.94
-5478.79
-5612.5
-5771.59
-5907.13
-5970.28
-6007.05
-6047.41
-6085.52
-6165.83
-6263.14
-6389.05
-6510.13
-6609.42
-6707.98
-6773.73
-6827.04
-6923.8
-7024.05
-7115.35
-7204.88
-7299.52
-7384.66
-7472.24
-7564.28
-7654.79
-7749.61
-7839.78
-7936.47
-8029.43
-8127.54
-8224.09
-8320.79
-8419.82
-8521.41
-8626.35
-8728.12
-8831.56
-8935.67
-9041.41
-9146.12
-9250.49
-9354.97
-9458.34
-9561.84
-9663.68
-9766.27
-9867.67
-9970.86
-10073.6
-10179.3
-10285.5
-10394.5
-10505.6
-10619.6
-10735.8
-10855.9
-10978.8
-11106.5
-11237.8
-11374.6
-11515.6
-11663
-11815.1
-11974.9
-12140.2
-12313.2
-12496.5
-12684.8
-12888.6
-13101.9
-13325.3
-13561
-13814.3
-13932.6
-13955.1
)
;
    }
    procBoundary3to2
    {
        type            processor;
        value           nonuniform List<scalar> 
180
(
-169.409
-317.753
-383.035
-419.128
-433.229
-482.048
-528.925
-547.16
-551.354
-551.554
-562.593
-577.117
-585.317
-595.33
-605.638
-614.933
-673.637
-769.417
-869.53
-929.492
-978.432
-1021.33
-1034.46
-1044.93
-1049.77
-1059.31
-1077.27
-1081.06
-1103.58
-1131.62
-1141.14
-1140.34
-1140.53
-1143.5
-1210.78
-1276.87
-1294.24
-1275.97
-1265.74
-1318.03
-1468.71
-1636.92
-1791.5
-1939.94
-2013.9
-2028.7
-2013.13
-1998.29
-2003.86
-2013.4
-2009.02
-2072.18
-2133.5
-2183.01
-2312.18
-2381.79
-2379.82
-2397.67
-2511.92
-2664.46
-2741.12
-2787.78
-2816.23
-2805.91
-2788.29
-2772.7
-2772.42
-2869.45
-2923.94
-2948.57
-3029.98
-3135.77
-3233.32
-3310.61
-3345.8
-3367.17
-3392.59
-3420.52
-3493.81
-3572.26
-3645.45
-3718.97
-3795.78
-3873.07
-3947.59
-4025.71
-4100.26
-4173.85
-4246.39
-4317.18
-4391.11
-4466.81
-4543.83
-4619.61
-4699.33
-4780.11
-4860.91
-4942.87
-5023.84
-5105.35
-5181.92
-5255.84
-5334.82
-5417.99
-5509.11
-5602.47
-5696.64
-5790.08
-5883.91
-5977.95
-6072.7
-6167.73
-6264.27
-6360.78
-6459.01
-6557.22
-6657.65
-6758.23
-6861.62
-6962.46
-7063.53
-7140.75
-7166.69
-7150.25
-7155.59
-7247.73
-7354.51
-7460.01
-7564.69
-7664.94
-7761.57
-7858.1
-7951.51
-8042.36
-8137.44
-8233.56
-8327.83
-8422.28
-8516.52
-8613.89
-8712.38
-8812.51
-8913.37
-9014.09
-9115.88
-9216.76
-9319.39
-9420.59
-9523.46
-9624.73
-9727.4
-9828.65
-9931.36
-10032.6
-10135.3
-10236.7
-10338.8
-10440.9
-10543.7
-10644.9
-10748.1
-10846.7
-10947.2
-11044.4
-11133.4
-11222.8
-11310.8
-11391.9
-11462.5
-11531.9
-11597.1
-11657.1
-11710.3
-11760.4
-11806.5
-11845.8
-11887.6
-11927.5
-11963.5
-11983
)
;
    }
}


// ************************************************************************* //
