/*--------------------------------*- C++ -*----------------------------------*\
| =========                 |                                                 |
| \\      /  F ield         | OpenFOAM: The Open Source CFD Toolbox           |
|  \\    /   O peration     | Version:  5.x                                   |
|   \\  /    A nd           | Web:      www.OpenFOAM.org                      |
|    \\/     M anipulation  |                                                 |
\*---------------------------------------------------------------------------*/
FoamFile
{
    version     2.0;
    format      ascii;
    class       volVectorField;
    location    "900";
    object      U;
}
// * * * * * * * * * * * * * * * * * * * * * * * * * * * * * * * * * * * * * //

dimensions      [0 1 -1 0 0 0 0];

internalField   nonuniform List<vector> 
90
(
(1.82922e-09 -5.7856e-09 -0.000999985)
(2.41902e-09 -1.02728e-08 -0.000999984)
(3.28999e-09 -1.58275e-08 -0.000999982)
(4.27543e-09 -2.21498e-08 -0.000999979)
(5.34205e-09 -2.94658e-08 -0.000999976)
(6.46729e-09 -3.81273e-08 -0.00099997)
(7.60651e-09 -4.8576e-08 -0.000999963)
(8.68021e-09 -6.13623e-08 -0.000999954)
(9.5626e-09 -7.71731e-08 -0.000999941)
(1.0067e-08 -9.6872e-08 -0.000999925)
(9.926e-09 -1.21546e-07 -0.000999903)
(8.76387e-09 -1.52567e-07 -0.000999876)
(6.05873e-09 -1.91673e-07 -0.00099984)
(1.09758e-09 -2.41066e-07 -0.000999794)
(-7.08553e-09 -3.03545e-07 -0.000999735)
(-1.9929e-08 -3.82737e-07 -0.000999658)
(-3.94013e-08 -4.83293e-07 -0.000999558)
(-6.82025e-08 -6.11191e-07 -0.00099943)
(-1.10032e-07 -7.74135e-07 -0.000999262)
(-1.69949e-07 -9.82074e-07 -0.000999045)
(-2.54855e-07 -1.24787e-06 -0.000998762)
(-3.74091e-07 -1.58818e-06 -0.000998393)
(-5.40196e-07 -2.02459e-06 -0.000997911)
(-7.70117e-07 -2.58511e-06 -0.000997281)
(-1.08686e-06 -3.3061e-06 -0.000996456)
(-1.52129e-06 -4.23482e-06 -0.000995377)
(-2.11489e-06 -5.43276e-06 -0.000993963)
(-2.9232e-06 -6.97992e-06 -0.00099211)
(-4.02059e-06 -8.98061e-06 -0.000989677)
(-5.50659e-06 -1.15711e-05 -0.000986475)
(-7.51455e-06 -1.49303e-05 -0.000982262)
(-1.02243e-05 -1.9296e-05 -0.000976816)
(-1.38878e-05 -2.49982e-05 -0.000969958)
(-1.88747e-05 -3.24941e-05 -0.000960535)
(-2.55675e-05 -4.2161e-05 -0.00094355)
(-3.24337e-05 -5.16647e-05 -0.000918311)
(-3.64704e-05 -5.67803e-05 -0.000913024)
(-3.37592e-05 -5.15662e-05 -0.00104573)
(-2.56362e-05 -3.6238e-05 -0.000356539)
(0.000103068 0.000134786 -0.00193875)
(-5.60937e-06 -5.2301e-06 -0.00167863)
(-3.41818e-05 -5.37596e-05 -0.001528)
(-2.99012e-05 -4.16118e-05 -0.00239289)
(-6.08407e-05 -3.61164e-05 -0.0021293)
(-7.69556e-05 -4.83307e-05 -0.0024189)
(-3.82957e-05 8.18816e-06 -0.0018037)
(-5.28334e-05 6.76104e-05 -0.00259548)
(-1.63941e-06 0.000111208 -0.00174471)
(2.72639e-05 0.000131778 -0.00234874)
(-3.6601e-05 3.29358e-05 -0.00229593)
(-7.61529e-06 4.45618e-05 -0.00167824)
(7.12323e-06 6.03891e-05 -0.00164939)
(2.48788e-05 6.76144e-05 -0.00183351)
(4.09868e-05 2.63757e-05 -0.0010387)
(5.7454e-05 3.3483e-05 -0.000879645)
(5.87605e-05 2.65275e-05 -0.000921347)
(4.80442e-05 1.99893e-05 -0.000947437)
(3.77642e-05 1.47295e-05 -0.000960093)
(2.95668e-05 1.07937e-05 -0.000968854)
(2.31751e-05 7.86729e-06 -0.00097577)
(1.81987e-05 5.70532e-06 -0.000981186)
(1.43175e-05 4.11602e-06 -0.000985377)
(1.12841e-05 2.94973e-06 -0.000988618)
(8.90844e-06 2.09671e-06 -0.000991127)
(7.04448e-06 1.47544e-06 -0.000993074)
(5.57941e-06 1.02526e-06 -0.000994586)
(4.42596e-06 7.01071e-07 -0.000995762)
(3.51638e-06 4.69395e-07 -0.000996678)
(2.79799e-06 3.05382e-07 -0.000997392)
(2.22975e-06 1.90614e-07 -0.00099795)
(1.77959e-06 1.11465e-07 -0.000998385)
(1.42247e-06 5.79017e-08 -0.000998726)
(1.13875e-06 2.25885e-08 -0.000998994)
(9.13041e-07 1.58977e-10 -0.000999203)
(7.33152e-07 -1.34637e-08 -0.000999368)
(5.89468e-07 -2.12775e-08 -0.000999496)
(4.74493e-07 -2.528e-08 -0.000999599)
(3.82361e-07 -2.67967e-08 -0.00099968)
(3.08475e-07 -2.66806e-08 -0.000999746)
(2.4916e-07 -2.5597e-08 -0.000999799)
(2.015e-07 -2.40139e-08 -0.000999842)
(1.63192e-07 -2.22406e-08 -0.000999876)
(1.32416e-07 -2.04723e-08 -0.000999903)
(1.07734e-07 -1.88253e-08 -0.000999925)
(8.8009e-08 -1.73626e-08 -0.000999943)
(7.23359e-08 -1.61126e-08 -0.000999957)
(5.99613e-08 -1.50754e-08 -0.000999967)
(5.02397e-08 -1.42151e-08 -0.000999975)
(4.30108e-08 -1.34893e-08 -0.000999982)
(4.00978e-08 -1.30812e-08 -0.000999986)
)
;

boundaryField
{
    inlet
    {
        type            zeroGradient;
    }
    outlet
    {
        type            zeroGradient;
    }
    repeat_boundary
    {
        type            slip;
    }
    procBoundary0to1
    {
        type            processor;
        value           nonuniform List<vector> 
90
(
(1.82919e-09 -3.77306e-09 -0.000999976)
(2.41898e-09 -6.20955e-09 -0.000999974)
(3.28992e-09 -9.29991e-09 -0.000999972)
(4.27532e-09 -1.27826e-08 -0.000999968)
(5.34198e-09 -1.67159e-08 -0.000999964)
(6.46731e-09 -2.12013e-08 -0.000999958)
(7.60651e-09 -2.63412e-08 -0.000999951)
(8.68012e-09 -3.22312e-08 -0.000999943)
(9.56242e-09 -3.89561e-08 -0.000999933)
(1.00667e-08 -4.6584e-08 -0.000999922)
(9.92549e-09 -5.51565e-08 -0.000999909)
(8.76299e-09 -6.46733e-08 -0.000999894)
(6.05722e-09 -7.50695e-08 -0.000999877)
(1.09492e-09 -8.61838e-08 -0.000999859)
(-7.09026e-09 -9.77137e-08 -0.00099984)
(-1.99375e-08 -1.09083e-07 -0.00099982)
(-3.94167e-08 -1.19377e-07 -0.000999802)
(-6.82306e-08 -1.27188e-07 -0.000999788)
(-1.10084e-07 -1.30404e-07 -0.000999779)
(-1.70044e-07 -1.25914e-07 -0.000999782)
(-2.55027e-07 -1.092e-07 -0.000999803)
(-3.74407e-07 -7.38796e-08 -0.000999851)
(-5.4077e-07 -1.11686e-08 -0.000999938)
(-7.71149e-07 9.1272e-08 -0.00100008)
(-1.0887e-06 2.50961e-07 -0.00100031)
(-1.52459e-06 4.91998e-07 -0.00100066)
(-2.12079e-06 8.47653e-07 -0.00100118)
(-2.93377e-06 1.36356e-06 -0.00100193)
(-4.03947e-06 2.10217e-06 -0.00100302)
(-5.54013e-06 3.14885e-06 -0.00100454)
(-7.57349e-06 4.62048e-06 -0.00100667)
(-1.0327e-05 6.67899e-06 -0.00100973)
(-1.4073e-05 9.5622e-06 -0.00101451)
(-1.92484e-05 1.36469e-05 -0.0010212)
(-2.63353e-05 1.93653e-05 -0.00102422)
(-3.23726e-05 2.44118e-05 -0.00101641)
(-3.71796e-05 2.97904e-05 -0.00104961)
(-3.31909e-05 2.90981e-05 -0.00128387)
(-2.43527e-05 1.9576e-05 -0.000365757)
(8.95294e-05 -5.56313e-05 -0.00259131)
(-2.76254e-06 4.16583e-06 -0.00118473)
(-6.46083e-05 2.60252e-05 -0.00303851)
(-2.10539e-05 3.55936e-05 -0.0018007)
(-8.58916e-05 3.93704e-05 -0.00331426)
(-6.5993e-05 -1.73958e-05 -0.00214888)
(-8.0782e-05 1.11505e-05 -0.00330941)
(-4.18184e-05 8.36824e-05 -0.0019536)
(-1.73532e-05 0.000158691 -0.00332897)
(2.60942e-05 7.21932e-05 -0.00233113)
(-4.06545e-05 1.06217e-05 -0.00276415)
(-2.60688e-05 4.6287e-06 -0.00266531)
(4.8675e-06 3.79129e-05 -0.0016955)
(-2.72717e-06 1.28733e-05 -0.00248572)
(7.05023e-05 -4.62464e-05 -0.00108487)
(7.48079e-05 -5.53843e-05 -0.00107489)
(6.13563e-05 -4.69597e-05 -0.00108742)
(4.72762e-05 -3.61891e-05 -0.00107205)
(3.7058e-05 -2.79148e-05 -0.00105566)
(2.91269e-05 -2.15293e-05 -0.00104327)
(2.29123e-05 -1.65991e-05 -0.00103388)
(1.80421e-05 -1.28017e-05 -0.0010266)
(1.4224e-05 -9.88023e-06 -0.00102091)
(1.12281e-05 -7.6306e-06 -0.00101647)
(8.87478e-06 -5.89765e-06 -0.00101298)
(7.02418e-06 -4.56213e-06 -0.00101025)
(5.56713e-06 -3.53236e-06 -0.0010081)
(4.4185e-06 -2.73789e-06 -0.00100642)
(3.51183e-06 -2.12458e-06 -0.00100509)
(2.79521e-06 -1.6508e-06 -0.00100404)
(2.22804e-06 -1.28452e-06 -0.00100321)
(1.77854e-06 -1.00108e-06 -0.00100256)
(1.42182e-06 -7.81488e-07 -0.00100204)
(1.13835e-06 -6.11137e-07 -0.00100163)
(9.12792e-07 -4.78778e-07 -0.0010013)
(7.32997e-07 -3.75764e-07 -0.00100104)
(5.89371e-07 -2.95443e-07 -0.00100083)
(4.74432e-07 -2.32692e-07 -0.00100067)
(3.82323e-07 -1.83558e-07 -0.00100054)
(3.08451e-07 -1.44996e-07 -0.00100043)
(2.49145e-07 -1.14661e-07 -0.00100035)
(2.0149e-07 -9.07485e-08 -0.00100028)
(1.63186e-07 -7.18706e-08 -0.00100023)
(1.32412e-07 -5.69591e-08 -0.00100019)
(1.07732e-07 -4.5193e-08 -0.00100015)
(8.80077e-08 -3.59418e-08 -0.00100012)
(7.23357e-08 -2.87196e-08 -0.0010001)
(5.99648e-08 -2.31379e-08 -0.00100008)
(5.02618e-08 -1.88648e-08 -0.00100006)
(4.29862e-08 -1.5699e-08 -0.00100004)
(4.00946e-08 -1.43966e-08 -0.00100003)
)
;
    }
    procBoundary0to2
    {
        type            processor;
        value           nonuniform List<vector> 
90
(
(3.84195e-09 -5.78581e-09 -0.00100004)
(6.48209e-09 -1.02727e-08 -0.00100004)
(9.817e-09 -1.58271e-08 -0.00100004)
(1.36421e-08 -2.21495e-08 -0.00100005)
(1.80918e-08 -2.94658e-08 -0.00100006)
(2.33937e-08 -3.81278e-08 -0.00100007)
(2.98422e-08 -4.85771e-08 -0.00100008)
(3.7812e-08 -6.13634e-08 -0.0010001)
(4.77804e-08 -7.71746e-08 -0.00100012)
(6.03562e-08 -9.68743e-08 -0.00100015)
(7.63173e-08 -1.21549e-07 -0.00100019)
(9.66606e-08 -1.52573e-07 -0.00100024)
(1.22667e-07 -1.91682e-07 -0.0010003)
(1.55988e-07 -2.41081e-07 -0.00100037)
(1.98758e-07 -3.03569e-07 -0.00100047)
(2.53746e-07 -3.82776e-07 -0.00100058)
(3.24548e-07 -4.83357e-07 -0.00100074)
(4.15855e-07 -6.11296e-07 -0.00100093)
(5.33788e-07 -7.74309e-07 -0.00100118)
(6.86356e-07 -9.82361e-07 -0.00100149)
(8.84053e-07 -1.24835e-06 -0.00100189)
(1.1406e-06 -1.58898e-06 -0.0010024)
(1.47386e-06 -2.02594e-06 -0.00100306)
(1.9073e-06 -2.58738e-06 -0.0010039)
(2.4719e-06 -3.30995e-06 -0.00100498)
(3.20832e-06 -4.24138e-06 -0.00100637)
(4.17009e-06 -5.44393e-06 -0.00100816)
(5.42775e-06 -6.99902e-06 -0.00101048)
(7.07438e-06 -9.01329e-06 -0.00101347)
(9.233e-06 -1.16267e-05 -0.00101732)
(1.20663e-05 -1.50229e-05 -0.0010223)
(1.57906e-05 -1.94432e-05 -0.00102887)
(2.07061e-05 -2.52209e-05 -0.00103798)
(2.72765e-05 -3.28777e-05 -0.00104999)
(3.60623e-05 -4.30328e-05 -0.00105933)
(4.36561e-05 -5.16472e-05 -0.00105634)
(4.95329e-05 -5.68844e-05 -0.00110245)
(4.49959e-05 -4.89822e-05 -0.00135814)
(2.73823e-05 -3.17306e-05 -0.000380811)
(-8.27064e-05 0.000116412 -0.00277441)
(3.95244e-06 -5.66866e-07 -0.00131428)
(6.58577e-05 -0.00010007 -0.00295218)
(5.72507e-05 -4.32689e-05 -0.00232624)
(1.1915e-05 -6.03081e-05 -0.00317418)
(-4.88821e-05 -4.31449e-05 -0.00216894)
(-6.74449e-05 -2.07787e-05 -0.00321626)
(-3.48189e-05 7.19456e-05 -0.00224635)
(-5.46243e-05 0.000186428 -0.00334872)
(-1.28217e-05 9.72296e-05 -0.0017974)
(-6.91526e-05 3.0098e-05 -0.00330985)
(-3.69823e-05 4.00093e-05 -0.00203428)
(-5.25244e-05 3.53132e-05 -0.00206654)
(-1.82004e-05 4.77996e-05 -0.00200978)
(4.03273e-05 7.12253e-05 -0.00149066)
(-1.36905e-05 5.04544e-05 -0.000894826)
(-1.41978e-05 3.11839e-05 -0.00102084)
(-8.9232e-06 2.0171e-05 -0.0010164)
(-5.36317e-06 1.45584e-05 -0.00100854)
(-3.04105e-06 1.06763e-05 -0.00100433)
(-1.46409e-06 7.80283e-06 -0.00100207)
(-4.13889e-07 5.67116e-06 -0.00100061)
(2.5671e-07 4.09798e-06 -0.000999674)
(6.64263e-07 2.9401e-06 -0.000999109)
(8.89935e-07 2.09156e-06 -0.000998795)
(9.92148e-07 1.47269e-06 -0.000998652)
(1.01277e-06 1.02379e-06 -0.000998621)
(9.81486e-07 7.00288e-07 -0.000998661)
(9.19036e-07 4.6898e-07 -0.000998744)
(8.39754e-07 3.05163e-07 -0.00099885)
(7.53361e-07 1.90498e-07 -0.000998965)
(6.66288e-07 1.11405e-07 -0.000999082)
(5.82611e-07 5.78702e-08 -0.000999194)
(5.04739e-07 2.25722e-08 -0.000999299)
(4.33932e-07 1.50523e-10 -0.000999395)
(3.70748e-07 -1.34681e-08 -0.000999483)
(3.15238e-07 -2.12798e-08 -0.000999561)
(2.67043e-07 -2.52812e-08 -0.00099963)
(2.25577e-07 -2.67973e-08 -0.00099969)
(1.90146e-07 -2.6681e-08 -0.000999742)
(1.60087e-07 -2.55973e-08 -0.000999787)
(1.3476e-07 -2.40141e-08 -0.000999825)
(1.13559e-07 -2.22408e-08 -0.000999858)
(9.59273e-08 -2.04725e-08 -0.000999886)
(8.1365e-08 -1.88253e-08 -0.00099991)
(6.94293e-08 -1.73624e-08 -0.000999929)
(5.97293e-08 -1.61125e-08 -0.000999945)
(5.19031e-08 -1.50757e-08 -0.000999958)
(4.5615e-08 -1.42178e-08 -0.000999968)
(4.07736e-08 -1.34866e-08 -0.000999978)
(3.87788e-08 -1.30811e-08 -0.000999983)
)
;
    }
}


// ************************************************************************* //
