/*--------------------------------*- C++ -*----------------------------------*\
| =========                 |                                                 |
| \\      /  F ield         | OpenFOAM: The Open Source CFD Toolbox           |
|  \\    /   O peration     | Version:  5.x                                   |
|   \\  /    A nd           | Web:      www.OpenFOAM.org                      |
|    \\/     M anipulation  |                                                 |
\*---------------------------------------------------------------------------*/
FoamFile
{
    version     2.0;
    format      ascii;
    class       volVectorField;
    location    "90000";
    object      U;
}
// * * * * * * * * * * * * * * * * * * * * * * * * * * * * * * * * * * * * * //

dimensions      [0 1 -1 0 0 0 0];

internalField   nonuniform List<vector> 
2250
(
(-1.63919e-11 2.88742e-11 -0.001)
(-1.76837e-11 3.25865e-11 -0.001)
(-8.59585e-12 3.46578e-11 -0.001)
(6.86185e-14 3.78768e-11 -0.001)
(-2.13628e-11 3.77475e-11 -0.001)
(-1.27499e-11 1.00925e-10 -0.001)
(-1.19405e-11 1.05462e-10 -0.001)
(-3.24306e-12 1.05168e-10 -0.001)
(3.03887e-12 1.0513e-10 -0.001)
(-1.853e-11 1.00705e-10 -0.001)
(-1.20462e-11 1.73137e-10 -0.001)
(-1.3648e-11 1.73299e-10 -0.001)
(-8.92905e-12 1.66229e-10 -0.001)
(-4.51837e-12 1.5619e-10 -0.001)
(-2.38277e-11 1.51159e-10 -0.001)
(-1.29195e-11 2.21156e-10 -0.001)
(-1.92262e-11 2.18476e-10 -0.001)
(-2.03855e-11 2.0665e-10 -0.001)
(-1.20534e-11 1.9743e-10 -0.001)
(-2.04996e-11 1.98251e-10 -0.001)
(-1.53244e-11 2.53296e-10 -0.001)
(-2.87554e-11 2.49158e-10 -0.001)
(-3.00138e-11 2.39495e-10 -0.001)
(-1.29303e-11 2.32382e-10 -0.001)
(-8.82028e-12 2.27974e-10 -0.001)
(-3.76959e-11 8.22867e-11 -0.001)
(-3.84368e-11 9.25668e-11 -0.001)
(-1.4367e-11 9.59717e-11 -0.001)
(-5.16998e-12 9.9487e-11 -0.001)
(-6.27651e-11 9.48209e-11 -0.001)
(-2.76014e-11 2.78963e-10 -0.001)
(-2.48825e-11 2.90798e-10 -0.001)
(-7.38345e-12 2.8692e-10 -0.001)
(-6.6705e-12 2.80929e-10 -0.001)
(-6.17132e-11 2.66184e-10 -0.001)
(-2.63728e-11 4.69162e-10 -0.001)
(-3.10127e-11 4.6709e-10 -0.001)
(-2.42841e-11 4.47655e-10 -0.001)
(-2.62055e-11 4.21565e-10 -0.001)
(-7.5331e-11 4.08333e-10 -0.001)
(-3.0525e-11 5.9162e-10 -0.001)
(-4.73316e-11 5.82473e-10 -0.001)
(-5.29959e-11 5.55091e-10 -0.001)
(-4.60395e-11 5.29819e-10 -0.001)
(-7.00056e-11 5.27946e-10 -0.001)
(-3.68454e-11 6.73507e-10 -0.001)
(-6.88947e-11 6.62956e-10 -0.001)
(-7.70304e-11 6.4218e-10 -0.001)
(-5.33526e-11 6.26329e-10 -0.001)
(-4.15986e-11 6.10973e-10 -0.001)
(-4.99746e-11 1.62276e-10 -0.001)
(-7.1473e-11 1.7422e-10 -0.001)
(-6.64323e-11 1.7545e-10 -0.001)
(-8.81141e-11 1.73505e-10 -0.001)
(-1.70864e-10 1.65146e-10 -0.001)
(-3.83859e-11 5.11427e-10 -0.001)
(-5.88466e-11 5.2415e-10 -0.001)
(-6.75058e-11 5.15485e-10 -0.001)
(-9.90586e-11 5.0087e-10 -0.001)
(-1.76972e-10 4.80665e-10 -0.001)
(-3.81943e-11 8.27401e-10 -0.001)
(-6.85831e-11 8.23623e-10 -0.001)
(-9.00626e-11 8.00578e-10 -0.001)
(-1.23448e-10 7.69843e-10 -0.001)
(-1.96409e-10 7.46747e-10 -0.001)
(-4.35993e-11 1.0414e-09 -0.001)
(-8.72858e-11 1.0334e-09 -0.001)
(-1.21451e-10 1.00656e-09 -0.001)
(-1.53e-10 9.65832e-10 -0.001)
(-2.07671e-10 9.56577e-10 -0.001)
(-4.81305e-11 1.16678e-09 -0.001)
(-1.05506e-10 1.15998e-09 -0.001)
(-1.5783e-10 1.13455e-09 -0.001)
(-1.73467e-10 1.10704e-09 -0.001)
(-1.78141e-10 1.07625e-09 -0.001)
(-6.15073e-11 2.69531e-10 -0.001)
(-1.34927e-10 2.78234e-10 -0.001)
(-1.88122e-10 2.76598e-10 -0.001)
(-2.56576e-10 2.70694e-10 -0.001)
(-3.50438e-10 2.62393e-10 -0.001)
(-5.33829e-11 8.07131e-10 -0.001)
(-1.28756e-10 8.15795e-10 -0.001)
(-1.9628e-10 8.04813e-10 -0.001)
(-2.7167e-10 7.85062e-10 -0.001)
(-3.60057e-10 7.66133e-10 -0.001)
(-5.42389e-11 1.27259e-09 -0.001)
(-1.39037e-10 1.27068e-09 -0.001)
(-2.19473e-10 1.25064e-09 -0.001)
(-2.95989e-10 1.21829e-09 -0.001)
(-3.84172e-10 1.19539e-09 -0.001)
(-5.74096e-11 1.61365e-09 -0.001)
(-1.53118e-10 1.61199e-09 -0.001)
(-2.48906e-10 1.59088e-09 -0.001)
(-3.26973e-10 1.55127e-09 -0.001)
(-4.1248e-10 1.54031e-09 -0.001)
(-5.85496e-11 1.78239e-09 -0.000999999)
(-1.64792e-10 1.77924e-09 -0.000999999)
(-2.80387e-10 1.7503e-09 -0.001)
(-3.46507e-10 1.70872e-09 -0.001)
(-4.28139e-10 1.62876e-09 -0.001)
(-8.69062e-11 4.03557e-10 -0.001)
(-2.42756e-10 4.06356e-10 -0.001)
(-3.80651e-10 4.0257e-10 -0.001)
(-5.00755e-10 3.94579e-10 -0.001)
(-5.99062e-10 3.85918e-10 -0.001)
(-8.49292e-11 1.17545e-09 -0.001)
(-2.4503e-10 1.1773e-09 -0.001)
(-3.93274e-10 1.16513e-09 -0.001)
(-5.18456e-10 1.14349e-09 -0.001)
(-6.11158e-10 1.12502e-09 -0.001)
(-8.70851e-11 1.83109e-09 -0.001)
(-2.55711e-10 1.83054e-09 -0.001)
(-4.15382e-10 1.81283e-09 -0.001)
(-5.41857e-10 1.78143e-09 -0.001)
(-6.38379e-10 1.76114e-09 -0.001)
(-8.85983e-11 2.33458e-09 -0.001)
(-2.66772e-10 2.33327e-09 -0.001)
(-4.42689e-10 2.31343e-09 -0.001)
(-5.70239e-10 2.27526e-09 -0.001)
(-6.7486e-10 2.28337e-09 -0.001)
(-9.21694e-11 2.5621e-09 -0.000999999)
(-2.81056e-10 2.56035e-09 -0.000999999)
(-4.73628e-10 2.52505e-09 -0.001)
(-5.7197e-10 2.47393e-09 -0.001)
(-7.34576e-10 2.34894e-09 -0.001)
(-1.35799e-10 5.65147e-10 -0.001)
(-4.03702e-10 5.62292e-10 -0.001)
(-6.42387e-10 5.57171e-10 -0.001)
(-8.23593e-10 5.49412e-10 -0.001)
(-9.28447e-10 5.3994e-10 -0.001)
(-1.39837e-10 1.6299e-09 -0.001)
(-4.13499e-10 1.62483e-09 -0.001)
(-6.56469e-10 1.61242e-09 -0.001)
(-8.42295e-10 1.59384e-09 -0.001)
(-9.40016e-10 1.5755e-09 -0.001)
(-1.43832e-10 2.52884e-09 -0.001)
(-4.24977e-10 2.52634e-09 -0.001)
(-6.74782e-10 2.5116e-09 -0.001)
(-8.62044e-10 2.48739e-09 -0.001)
(-9.6046e-10 2.47599e-09 -0.001)
(-1.46794e-10 3.21991e-09 -0.001)
(-4.35608e-10 3.21199e-09 -0.001)
(-6.95863e-10 3.1917e-09 -0.001)
(-8.78066e-10 3.16254e-09 -0.001)
(-9.90496e-10 3.19792e-09 -0.001)
(-1.57104e-10 3.54554e-09 -0.000999999)
(-4.59085e-10 3.54189e-09 -0.000999999)
(-7.24647e-10 3.51251e-09 -0.001)
(-8.55846e-10 3.47131e-09 -0.001)
(-1.0539e-09 3.34384e-09 -0.001)
(-2.09889e-10 7.66194e-10 -0.001)
(-6.20275e-10 7.6026e-10 -0.001)
(-9.73755e-10 7.56335e-10 -0.001)
(-1.23067e-09 7.52155e-10 -0.001)
(-1.36014e-09 7.46698e-10 -0.001)
(-2.17479e-10 2.20987e-09 -0.001)
(-6.32668e-10 2.20085e-09 -0.001)
(-9.83641e-10 2.19391e-09 -0.001)
(-1.24244e-09 2.1859e-09 -0.001)
(-1.36579e-09 2.17418e-09 -0.001)
(-2.23067e-10 3.42845e-09 -0.001)
(-6.41537e-10 3.42482e-09 -0.001)
(-9.90826e-10 3.41992e-09 -0.001)
(-1.25271e-09 3.41171e-09 -0.001)
(-1.37245e-09 3.40703e-09 -0.001)
(-2.27182e-10 4.34228e-09 -0.001)
(-6.47815e-10 4.33582e-09 -0.001)
(-9.97372e-10 4.32338e-09 -0.001)
(-1.25555e-09 4.308e-09 -0.001)
(-1.3838e-09 4.33545e-09 -0.001)
(-2.36876e-10 4.81816e-09 -0.000999999)
(-6.6846e-10 4.81885e-09 -0.000999999)
(-1.01922e-09 4.80385e-09 -0.001)
(-1.24067e-09 4.7854e-09 -0.001)
(-1.3877e-09 4.71657e-09 -0.001)
(-3.08143e-10 1.03302e-09 -0.001)
(-8.94698e-10 1.02808e-09 -0.001)
(-1.38449e-09 1.02842e-09 -0.00100001)
(-1.73418e-09 1.03044e-09 -0.00100001)
(-1.9221e-09 1.03229e-09 -0.00100001)
(-3.15363e-10 2.99015e-09 -0.001)
(-9.02773e-10 2.98435e-09 -0.001)
(-1.38465e-09 2.98785e-09 -0.001)
(-1.73326e-09 2.99314e-09 -0.001)
(-1.92139e-09 2.99264e-09 -0.00100001)
(-3.19658e-10 4.64775e-09 -0.001)
(-9.04273e-10 4.64937e-09 -0.001)
(-1.37871e-09 4.65633e-09 -0.001)
(-1.73265e-09 4.66056e-09 -0.001)
(-1.92333e-09 4.65306e-09 -0.001)
(-3.21962e-10 5.86591e-09 -0.001)
(-9.03139e-10 5.87319e-09 -0.001)
(-1.37431e-09 5.87338e-09 -0.001)
(-1.73684e-09 5.86593e-09 -0.001)
(-1.92606e-09 5.84469e-09 -0.001)
(-3.22549e-10 6.53896e-09 -0.000999999)
(-9.07823e-10 6.54817e-09 -0.000999999)
(-1.38675e-09 6.5389e-09 -0.001)
(-1.76139e-09 6.52919e-09 -0.001)
(-1.87819e-09 6.5171e-09 -0.001)
(-4.32277e-10 1.40292e-09 -0.00100001)
(-1.24278e-09 1.40299e-09 -0.00100001)
(-1.9115e-09 1.40717e-09 -0.00100001)
(-2.38618e-09 1.41257e-09 -0.00100001)
(-2.6684e-09 1.41709e-09 -0.00100001)
(-4.3532e-10 4.07311e-09 -0.00100001)
(-1.24328e-09 4.07705e-09 -0.00100001)
(-1.90544e-09 4.0873e-09 -0.00100001)
(-2.38031e-09 4.09588e-09 -0.00100001)
(-2.66867e-09 4.09732e-09 -0.00100001)
(-4.36195e-10 6.34299e-09 -0.001)
(-1.23856e-09 6.35382e-09 -0.001)
(-1.89684e-09 6.363e-09 -0.001)
(-2.38064e-09 6.35957e-09 -0.00100001)
(-2.68333e-09 6.33149e-09 -0.00100001)
(-4.35734e-10 8.00179e-09 -0.001)
(-1.2355e-09 8.02255e-09 -0.001)
(-1.90084e-09 8.0244e-09 -0.001)
(-2.41225e-09 8.00247e-09 -0.001)
(-2.70115e-09 7.93375e-09 -0.001)
(-4.29613e-10 8.91144e-09 -0.000999998)
(-1.23121e-09 8.92588e-09 -0.000999999)
(-1.91801e-09 8.90471e-09 -0.000999999)
(-2.47133e-09 8.87903e-09 -0.001)
(-2.69216e-09 8.8506e-09 -0.001)
(-5.91666e-10 1.91875e-09 -0.00100001)
(-1.70426e-09 1.92323e-09 -0.00100001)
(-2.6295e-09 1.92723e-09 -0.00100001)
(-3.29198e-09 1.92911e-09 -0.00100001)
(-3.69242e-09 1.92794e-09 -0.00100001)
(-5.91463e-10 5.57554e-09 -0.00100001)
(-1.70232e-09 5.58811e-09 -0.00100001)
(-2.62853e-09 5.59434e-09 -0.00100001)
(-3.29698e-09 5.58993e-09 -0.00100001)
(-3.70161e-09 5.57755e-09 -0.00100001)
(-5.8987e-10 8.68788e-09 -0.001)
(-1.69913e-09 8.70528e-09 -0.00100001)
(-2.63347e-09 8.70096e-09 -0.00100001)
(-3.31503e-09 8.66925e-09 -0.00100001)
(-3.73496e-09 8.61035e-09 -0.00100001)
(-5.89493e-10 1.09638e-08 -0.001)
(-1.70598e-09 1.09853e-08 -0.001)
(-2.66616e-09 1.09692e-08 -0.001)
(-3.38818e-09 1.09097e-08 -0.001)
(-3.78358e-09 1.08185e-08 -0.00100001)
(-5.87838e-10 1.21661e-08 -0.000999998)
(-1.71472e-09 1.21793e-08 -0.000999998)
(-2.7106e-09 1.21402e-08 -0.000999999)
(-3.46581e-09 1.2086e-08 -0.001)
(-3.868e-09 1.19869e-08 -0.001)
(-8.07853e-10 2.62529e-09 -0.00100001)
(-2.34057e-09 2.63153e-09 -0.00100001)
(-3.63369e-09 2.63112e-09 -0.00100001)
(-4.57642e-09 2.62502e-09 -0.00100001)
(-5.1102e-09 2.61595e-09 -0.00100002)
(-8.07465e-10 7.62742e-09 -0.00100001)
(-2.34371e-09 7.64393e-09 -0.00100001)
(-3.64706e-09 7.63769e-09 -0.00100001)
(-4.59973e-09 7.61394e-09 -0.00100001)
(-5.12988e-09 7.58437e-09 -0.00100001)
(-8.06067e-10 1.18811e-08 -0.00100001)
(-2.34901e-09 1.19e-08 -0.00100001)
(-3.67174e-09 1.18749e-08 -0.00100001)
(-4.6386e-09 1.18152e-08 -0.00100001)
(-5.17065e-09 1.1735e-08 -0.00100001)
(-8.0955e-10 1.49892e-08 -0.001)
(-2.37277e-09 1.5001e-08 -0.001)
(-3.73406e-09 1.49564e-08 -0.001)
(-4.74039e-09 1.48603e-08 -0.00100001)
(-5.23664e-09 1.47649e-08 -0.00100001)
(-8.20598e-10 1.6584e-08 -0.000999997)
(-2.41009e-09 1.65944e-08 -0.000999998)
(-3.81449e-09 1.65476e-08 -0.000999999)
(-4.83024e-09 1.6484e-08 -0.001)
(-5.3522e-09 1.63581e-08 -0.001)
(-1.10659e-09 3.57997e-09 -0.00100002)
(-3.21846e-09 3.58623e-09 -0.00100002)
(-5.01722e-09 3.58096e-09 -0.00100002)
(-6.34538e-09 3.56955e-09 -0.00100002)
(-7.04073e-09 3.56014e-09 -0.00100002)
(-1.10831e-09 1.03982e-08 -0.00100001)
(-3.22975e-09 1.04158e-08 -0.00100001)
(-5.04341e-09 1.0399e-08 -0.00100002)
(-6.37759e-09 1.03659e-08 -0.00100002)
(-7.06595e-09 1.03344e-08 -0.00100002)
(-1.10897e-09 1.61864e-08 -0.00100001)
(-3.24316e-09 1.62057e-08 -0.00100001)
(-5.07832e-09 1.61682e-08 -0.00100001)
(-6.42233e-09 1.61023e-08 -0.00100001)
(-7.10105e-09 1.60276e-08 -0.00100002)
(-1.11752e-09 2.04033e-08 -0.001)
(-3.27896e-09 2.04082e-08 -0.001)
(-5.14976e-09 2.03484e-08 -0.00100001)
(-6.51926e-09 2.02498e-08 -0.00100001)
(-7.15436e-09 2.01546e-08 -0.00100001)
(-1.13955e-09 2.25522e-08 -0.000999996)
(-3.33632e-09 2.25648e-08 -0.000999997)
(-5.23942e-09 2.25253e-08 -0.000999998)
(-6.61625e-09 2.2482e-08 -0.001)
(-7.2158e-09 2.24259e-08 -0.001)
(-1.51415e-09 4.86638e-09 -0.00100002)
(-4.40751e-09 4.87336e-09 -0.00100002)
(-6.87544e-09 4.86732e-09 -0.00100002)
(-8.69689e-09 4.85757e-09 -0.00100003)
(-9.61823e-09 4.85579e-09 -0.00100003)
(-1.51802e-09 1.41321e-08 -0.00100002)
(-4.42326e-09 1.41529e-08 -0.00100002)
(-6.90426e-09 1.4135e-08 -0.00100002)
(-8.72413e-09 1.41073e-08 -0.00100002)
(-9.64482e-09 1.40901e-08 -0.00100003)
(-1.52059e-09 2.19868e-08 -0.00100001)
(-4.43933e-09 2.20109e-08 -0.00100001)
(-6.93639e-09 2.19757e-08 -0.00100002)
(-8.75889e-09 2.19249e-08 -0.00100002)
(-9.67218e-09 2.18741e-08 -0.00100002)
(-1.53247e-09 2.76923e-08 -0.001)
(-4.47627e-09 2.77045e-08 -0.00100001)
(-6.99431e-09 2.76552e-08 -0.00100001)
(-8.8272e-09 2.75877e-08 -0.00100001)
(-9.70529e-09 2.75125e-08 -0.00100001)
(-1.55647e-09 3.0628e-08 -0.000999995)
(-4.52831e-09 3.06527e-08 -0.000999996)
(-7.05695e-09 3.06287e-08 -0.000999998)
(-8.90178e-09 3.06177e-08 -0.001)
(-9.71208e-09 3.06303e-08 -0.001)
(-2.06273e-09 6.60544e-09 -0.00100003)
(-5.99966e-09 6.61615e-09 -0.00100003)
(-9.34767e-09 6.61351e-09 -0.00100003)
(-1.1796e-08 6.60927e-09 -0.00100004)
(-1.30484e-08 6.61235e-09 -0.00100004)
(-2.06672e-09 1.9181e-08 -0.00100002)
(-6.01419e-09 1.92101e-08 -0.00100003)
(-9.3722e-09 1.91979e-08 -0.00100003)
(-1.18185e-08 1.91803e-08 -0.00100003)
(-1.30788e-08 1.91725e-08 -0.00100004)
(-2.07055e-09 2.98339e-08 -0.00100002)
(-6.02987e-09 2.98695e-08 -0.00100002)
(-9.39828e-09 2.98438e-08 -0.00100002)
(-1.18446e-08 2.98116e-08 -0.00100002)
(-1.31046e-08 2.97808e-08 -0.00100003)
(-2.08335e-09 3.75649e-08 -0.00100001)
(-6.0611e-09 3.75993e-08 -0.00100001)
(-9.4356e-09 3.75733e-08 -0.00100001)
(-1.18836e-08 3.75458e-08 -0.00100001)
(-1.31297e-08 3.74972e-08 -0.00100002)
(-2.10153e-09 4.15962e-08 -0.000999993)
(-6.09196e-09 4.1644e-08 -0.000999995)
(-9.45692e-09 4.16351e-08 -0.000999997)
(-1.1921e-08 4.16444e-08 -0.001)
(-1.31341e-08 4.16688e-08 -0.001)
(-2.80066e-09 8.96526e-09 -0.00100004)
(-8.14082e-09 8.98186e-09 -0.00100004)
(-1.26706e-08 8.98223e-09 -0.00100004)
(-1.59547e-08 8.98125e-09 -0.00100005)
(-1.767e-08 8.97924e-09 -0.00100005)
(-2.80401e-09 2.60318e-08 -0.00100003)
(-8.15447e-09 2.60731e-08 -0.00100004)
(-1.26951e-08 2.60655e-08 -0.00100004)
(-1.59865e-08 2.60532e-08 -0.00100004)
(-1.77109e-08 2.60392e-08 -0.00100005)
(-2.80947e-09 4.04895e-08 -0.00100002)
(-8.17099e-09 4.0543e-08 -0.00100002)
(-1.27187e-08 4.05255e-08 -0.00100003)
(-1.60124e-08 4.05044e-08 -0.00100003)
(-1.77359e-08 4.04813e-08 -0.00100004)
(-2.82146e-09 5.09958e-08 -0.00100001)
(-8.19567e-09 5.10605e-08 -0.00100001)
(-1.27411e-08 5.10514e-08 -0.00100001)
(-1.60335e-08 5.10483e-08 -0.00100002)
(-1.77541e-08 5.10214e-08 -0.00100002)
(-2.83362e-09 5.65235e-08 -0.000999991)
(-8.21098e-09 5.66016e-08 -0.000999993)
(-1.27378e-08 5.66023e-08 -0.000999996)
(-1.60428e-08 5.66178e-08 -0.001)
(-1.77659e-08 5.66339e-08 -0.00100001)
(-3.80229e-09 1.21714e-08 -0.00100005)
(-1.10533e-08 1.21935e-08 -0.00100006)
(-1.72005e-08 1.21938e-08 -0.00100006)
(-2.16425e-08 1.21929e-08 -0.00100007)
(-2.39726e-08 1.21839e-08 -0.00100007)
(-3.80728e-09 3.53401e-08 -0.00100005)
(-1.10726e-08 3.53957e-08 -0.00100005)
(-1.72336e-08 3.53901e-08 -0.00100005)
(-2.16914e-08 3.53809e-08 -0.00100006)
(-2.40254e-08 3.53613e-08 -0.00100007)
(-3.81468e-09 5.49781e-08 -0.00100003)
(-1.10901e-08 5.50562e-08 -0.00100003)
(-1.72537e-08 5.50455e-08 -0.00100004)
(-2.17138e-08 5.5033e-08 -0.00100004)
(-2.40411e-08 5.50172e-08 -0.00100005)
(-3.82536e-09 6.92802e-08 -0.00100001)
(-1.11098e-08 6.93777e-08 -0.00100001)
(-1.7267e-08 6.93734e-08 -0.00100002)
(-2.17236e-08 6.93748e-08 -0.00100002)
(-2.4041e-08 6.93562e-08 -0.00100003)
(-3.83772e-09 7.68362e-08 -0.000999988)
(-1.11265e-08 7.69464e-08 -0.00099999)
(-1.7266e-08 7.69485e-08 -0.000999995)
(-2.17315e-08 7.6962e-08 -0.001)
(-2.40299e-08 7.69879e-08 -0.00100001)
(-5.17147e-09 1.6526e-08 -0.00100007)
(-1.50382e-08 1.65536e-08 -0.00100008)
(-2.34028e-08 1.65535e-08 -0.00100008)
(-2.9446e-08 1.6554e-08 -0.00100009)
(-3.25853e-08 1.65486e-08 -0.0010001)
(-5.18067e-09 4.79869e-08 -0.00100006)
(-1.50673e-08 4.80617e-08 -0.00100007)
(-2.34467e-08 4.80612e-08 -0.00100007)
(-2.95041e-08 4.80611e-08 -0.00100008)
(-3.26437e-08 4.80563e-08 -0.00100009)
(-5.18886e-09 7.4674e-08 -0.00100004)
(-1.50817e-08 7.47858e-08 -0.00100005)
(-2.34557e-08 7.47853e-08 -0.00100005)
(-2.95089e-08 7.4787e-08 -0.00100006)
(-3.2641e-08 7.47912e-08 -0.00100007)
(-5.19924e-09 9.41438e-08 -0.00100002)
(-1.50978e-08 9.4279e-08 -0.00100002)
(-2.34594e-08 9.42758e-08 -0.00100003)
(-2.95034e-08 9.42776e-08 -0.00100003)
(-3.26193e-08 9.42554e-08 -0.00100004)
(-5.21692e-09 1.04454e-07 -0.000999984)
(-1.51254e-08 1.04601e-07 -0.000999987)
(-2.34699e-08 1.04596e-07 -0.000999993)
(-2.95301e-08 1.046e-07 -0.001)
(-3.25792e-08 1.04638e-07 -0.00100001)
(-7.04324e-09 2.24385e-08 -0.0010001)
(-2.04814e-08 2.24752e-08 -0.0010001)
(-3.18663e-08 2.24792e-08 -0.00100011)
(-4.00873e-08 2.24863e-08 -0.00100012)
(-4.43143e-08 2.24954e-08 -0.00100014)
(-7.0565e-09 6.51638e-08 -0.00100008)
(-2.05179e-08 6.52684e-08 -0.00100009)
(-3.19158e-08 6.52817e-08 -0.0010001)
(-4.01438e-08 6.5301e-08 -0.00100011)
(-4.43721e-08 6.53297e-08 -0.00100012)
(-7.06365e-09 1.01433e-07 -0.00100006)
(-2.05236e-08 1.01591e-07 -0.00100006)
(-3.19051e-08 1.01609e-07 -0.00100007)
(-4.01186e-08 1.01634e-07 -0.00100008)
(-4.43448e-08 1.01673e-07 -0.0010001)
(-7.07472e-09 1.27924e-07 -0.00100002)
(-2.05344e-08 1.28113e-07 -0.00100003)
(-3.18918e-08 1.2812e-07 -0.00100003)
(-4.00863e-08 1.28136e-07 -0.00100005)
(-4.43068e-08 1.28127e-07 -0.00100006)
(-7.09635e-09 1.41989e-07 -0.000999978)
(-2.0566e-08 1.42188e-07 -0.000999983)
(-3.18996e-08 1.42177e-07 -0.000999991)
(-4.01128e-08 1.42163e-07 -0.001)
(-4.42677e-08 1.4219e-07 -0.00100002)
(-9.59668e-09 3.04634e-08 -0.00100013)
(-2.78997e-08 3.05158e-08 -0.00100014)
(-4.33861e-08 3.05303e-08 -0.00100015)
(-5.45478e-08 3.05507e-08 -0.00100017)
(-6.02566e-08 3.05794e-08 -0.00100019)
(-9.61202e-09 8.84807e-08 -0.00100011)
(-2.79376e-08 8.86305e-08 -0.00100012)
(-4.3434e-08 8.86694e-08 -0.00100013)
(-5.45979e-08 8.8721e-08 -0.00100015)
(-6.03105e-08 8.87923e-08 -0.00100017)
(-9.61658e-09 1.37764e-07 -0.00100008)
(-2.79284e-08 1.3799e-07 -0.00100008)
(-4.33932e-08 1.38038e-07 -0.0010001)
(-5.45331e-08 1.38099e-07 -0.00100011)
(-6.02461e-08 1.3818e-07 -0.00100013)
(-9.62614e-09 1.73805e-07 -0.00100003)
(-2.79254e-08 1.74076e-07 -0.00100003)
(-4.33508e-08 1.74108e-07 -0.00100005)
(-5.4465e-08 1.74149e-07 -0.00100006)
(-6.01897e-08 1.74173e-07 -0.00100008)
(-9.6459e-09 1.93003e-07 -0.00099997)
(-2.79486e-08 1.93283e-07 -0.000999976)
(-4.33432e-08 1.93267e-07 -0.000999988)
(-5.44692e-08 1.9323e-07 -0.001)
(-6.0178e-08 1.93219e-07 -0.00100002)
(-1.30835e-08 4.13446e-08 -0.00100018)
(-3.80234e-08 4.14216e-08 -0.00100019)
(-5.90917e-08 4.1455e-08 -0.00100021)
(-7.42293e-08 4.1499e-08 -0.00100023)
(-8.1948e-08 4.15535e-08 -0.00100025)
(-1.30987e-08 1.20102e-07 -0.00100016)
(-3.80556e-08 1.20319e-07 -0.00100016)
(-5.91269e-08 1.20403e-07 -0.00100018)
(-7.4266e-08 1.2051e-07 -0.0010002)
(-8.19875e-08 1.20638e-07 -0.00100023)
(-1.30964e-08 1.87057e-07 -0.00100011)
(-3.8017e-08 1.87383e-07 -0.00100012)
(-5.90339e-08 1.87481e-07 -0.00100013)
(-7.41425e-08 1.87598e-07 -0.00100015)
(-8.18534e-08 1.8773e-07 -0.00100018)
(-1.30981e-08 2.36102e-07 -0.00100004)
(-3.79849e-08 2.36492e-07 -0.00100005)
(-5.89463e-08 2.36559e-07 -0.00100006)
(-7.40306e-08 2.36624e-07 -0.00100008)
(-8.17486e-08 2.36675e-07 -0.00100011)
(-1.31132e-08 2.62335e-07 -0.00099996)
(-3.79983e-08 2.62722e-07 -0.000999968)
(-5.89336e-08 2.627e-07 -0.000999984)
(-7.40284e-08 2.62634e-07 -0.001)
(-8.1748e-08 2.62583e-07 -0.00100003)
(-1.78644e-08 5.60763e-08 -0.00100025)
(-5.18942e-08 5.61919e-08 -0.00100026)
(-8.05834e-08 5.62606e-08 -0.00100028)
(-1.01112e-07 5.63496e-08 -0.00100031)
(-1.11523e-07 5.64505e-08 -0.00100034)
(-1.78738e-08 1.62929e-07 -0.00100021)
(-5.19038e-08 1.63254e-07 -0.00100022)
(-8.05792e-08 1.63424e-07 -0.00100024)
(-1.01106e-07 1.63637e-07 -0.00100027)
(-1.11513e-07 1.63874e-07 -0.00100031)
(-1.7852e-08 2.53872e-07 -0.00100014)
(-5.18003e-08 2.54351e-07 -0.00100016)
(-8.03818e-08 2.54543e-07 -0.00100018)
(-1.00863e-07 2.54767e-07 -0.00100021)
(-1.11235e-07 2.55005e-07 -0.00100024)
(-1.78356e-08 3.20637e-07 -0.00100005)
(-5.17123e-08 3.21191e-07 -0.00100007)
(-8.0211e-08 3.21311e-07 -0.00100009)
(-1.00662e-07 3.21419e-07 -0.00100012)
(-1.11001e-07 3.21511e-07 -0.00100015)
(-1.78489e-08 3.5653e-07 -0.000999945)
(-5.17202e-08 3.57055e-07 -0.000999957)
(-8.01977e-08 3.5702e-07 -0.000999978)
(-1.00665e-07 3.56928e-07 -0.00100001)
(-1.10942e-07 3.56867e-07 -0.00100004)
(-2.44501e-08 7.59855e-08 -0.00100033)
(-7.09814e-08 7.61672e-08 -0.00100035)
(-1.10102e-07 7.6305e-08 -0.00100038)
(-1.37948e-07 7.64846e-08 -0.00100042)
(-1.51928e-07 7.66858e-08 -0.00100047)
(-2.44382e-08 2.20846e-07 -0.00100029)
(-7.09251e-08 2.21351e-07 -0.0010003)
(-1.09993e-07 2.21692e-07 -0.00100033)
(-1.37816e-07 2.22125e-07 -0.00100037)
(-1.51781e-07 2.2261e-07 -0.00100042)
(-2.43693e-08 3.44328e-07 -0.0010002)
(-7.06802e-08 3.45048e-07 -0.00100021)
(-1.09575e-07 3.45427e-07 -0.00100024)
(-1.37304e-07 3.45886e-07 -0.00100028)
(-1.51201e-07 3.46394e-07 -0.00100033)
(-2.43151e-08 4.35243e-07 -0.00100007)
(-7.04762e-08 4.36035e-07 -0.00100009)
(-1.0922e-07 4.36268e-07 -0.00100012)
(-1.36873e-07 4.36511e-07 -0.00100016)
(-1.50685e-07 4.36759e-07 -0.0010002)
(-2.43244e-08 4.84458e-07 -0.000999926)
(-7.04601e-08 4.85163e-07 -0.000999942)
(-1.09158e-07 4.85114e-07 -0.000999971)
(-1.36817e-07 4.85005e-07 -0.00100001)
(-1.50478e-07 4.84964e-07 -0.00100006)
(-3.35623e-08 1.02834e-07 -0.00100045)
(-9.73586e-08 1.03132e-07 -0.00100047)
(-1.50793e-07 1.03408e-07 -0.00100052)
(-1.88579e-07 1.0377e-07 -0.00100057)
(-2.07247e-07 1.0418e-07 -0.00100064)
(-3.34946e-08 2.99011e-07 -0.00100039)
(-9.71409e-08 2.99825e-07 -0.00100041)
(-1.50437e-07 3.00508e-07 -0.00100045)
(-1.88144e-07 3.0139e-07 -0.00100051)
(-2.06772e-07 3.02401e-07 -0.00100057)
(-3.3325e-08 4.66571e-07 -0.00100027)
(-9.66015e-08 4.67685e-07 -0.00100029)
(-1.49562e-07 4.68442e-07 -0.00100033)
(-1.87057e-07 4.69403e-07 -0.00100038)
(-2.05567e-07 4.70521e-07 -0.00100045)
(-3.31902e-08 5.90429e-07 -0.0010001)
(-9.61512e-08 5.91585e-07 -0.00100012)
(-1.48807e-07 5.92065e-07 -0.00100016)
(-1.86099e-07 5.92645e-07 -0.00100022)
(-2.04473e-07 5.93322e-07 -0.00100028)
(-3.31809e-08 6.58116e-07 -0.000999901)
(-9.60569e-08 6.59067e-07 -0.000999923)
(-1.48584e-07 6.59017e-07 -0.000999963)
(-1.85804e-07 6.58908e-07 -0.00100002)
(-2.03995e-07 6.58908e-07 -0.00100008)
(-4.6233e-08 1.38933e-07 -0.00100061)
(-1.34003e-07 1.39437e-07 -0.00100064)
(-2.07149e-07 1.39989e-07 -0.0010007)
(-2.58448e-07 1.40709e-07 -0.00100078)
(-2.83196e-07 1.4154e-07 -0.00100087)
(-4.60416e-08 4.04196e-07 -0.00100052)
(-1.3343e-07 4.05543e-07 -0.00100055)
(-2.06257e-07 4.0691e-07 -0.00100061)
(-2.57349e-07 4.08691e-07 -0.00100069)
(-2.82005e-07 4.10771e-07 -0.00100078)
(-4.5668e-08 6.31346e-07 -0.00100036)
(-1.32292e-07 6.33122e-07 -0.00100039)
(-2.04456e-07 6.34642e-07 -0.00100045)
(-2.55088e-07 6.36626e-07 -0.00100052)
(-2.79525e-07 6.38993e-07 -0.00100061)
(-4.5365e-08 8.00174e-07 -0.00100014)
(-1.31329e-07 8.01901e-07 -0.00100017)
(-2.02872e-07 8.02889e-07 -0.00100022)
(-2.53044e-07 8.0418e-07 -0.00100029)
(-2.77254e-07 8.05769e-07 -0.00100038)
(-4.53112e-08 8.93646e-07 -0.000999868)
(-1.31054e-07 8.94937e-07 -0.000999898)
(-2.02287e-07 8.94917e-07 -0.000999952)
(-2.52214e-07 8.94867e-07 -0.00100002)
(-2.76228e-07 8.94993e-07 -0.00100011)
(-6.39594e-08 1.87268e-07 -0.00100082)
(-1.85294e-07 1.88136e-07 -0.00100087)
(-2.85704e-07 1.89238e-07 -0.00100095)
(-3.55406e-07 1.9066e-07 -0.00100105)
(-3.87858e-07 1.92348e-07 -0.00100118)
(-6.3514e-08 5.45163e-07 -0.0010007)
(-1.83973e-07 5.47454e-07 -0.00100075)
(-2.83684e-07 5.50197e-07 -0.00100083)
(-3.52896e-07 5.5376e-07 -0.00100093)
(-3.85166e-07 5.58007e-07 -0.00100106)
(-6.27322e-08 8.52648e-07 -0.00100049)
(-1.8162e-07 8.55571e-07 -0.00100053)
(-2.80007e-07 8.58648e-07 -0.00100061)
(-3.48267e-07 8.62679e-07 -0.00100071)
(-3.80148e-07 8.67544e-07 -0.00100083)
(-6.20829e-08 1.08291e-06 -0.00100019)
(-1.79595e-07 1.08557e-06 -0.00100023)
(-2.76738e-07 1.08761e-06 -0.0010003)
(-3.4406e-07 1.09031e-06 -0.0010004)
(-3.75534e-07 1.09369e-06 -0.00100052)
(-6.19272e-08 1.21266e-06 -0.000999826)
(-1.78916e-07 1.21441e-06 -0.000999866)
(-2.75416e-07 1.21451e-06 -0.00099994)
(-3.42196e-07 1.21463e-06 -0.00100004)
(-3.73362e-07 1.21514e-06 -0.00100015)
(-8.89038e-08 2.5162e-07 -0.0010011)
(-2.57856e-07 2.53138e-07 -0.00100116)
(-3.96093e-07 2.55366e-07 -0.00100128)
(-4.91049e-07 2.58136e-07 -0.00100143)
(-5.32783e-07 2.61605e-07 -0.00100161)
(-8.79584e-08 7.33048e-07 -0.00100095)
(-2.54978e-07 7.37039e-07 -0.00100101)
(-3.91753e-07 7.42617e-07 -0.00100112)
(-4.8559e-07 7.49645e-07 -0.00100127)
(-5.27044e-07 7.58361e-07 -0.00100144)
(-8.63588e-08 1.1484e-06 -0.00100066)
(-2.50126e-07 1.15338e-06 -0.00100072)
(-3.84297e-07 1.15965e-06 -0.00100083)
(-4.76194e-07 1.16768e-06 -0.00100097)
(-5.17065e-07 1.17767e-06 -0.00100113)
(-8.50094e-08 1.46272e-06 -0.00100026)
(-2.45924e-07 1.46696e-06 -0.00100031)
(-3.77666e-07 1.47118e-06 -0.00100042)
(-4.67658e-07 1.47655e-06 -0.00100055)
(-5.07885e-07 1.48362e-06 -0.00100071)
(-8.46388e-08 1.64397e-06 -0.000999771)
(-2.44376e-07 1.64631e-06 -0.000999827)
(-3.74904e-07 1.64674e-06 -0.000999928)
(-4.63761e-07 1.64712e-06 -0.00100006)
(-5.03466e-07 1.64866e-06 -0.00100021)
(-1.23998e-07 3.36676e-07 -0.00100147)
(-3.62142e-07 3.39315e-07 -0.00100156)
(-5.5263e-07 3.43961e-07 -0.00100173)
(-6.83236e-07 3.49141e-07 -0.00100194)
(-7.34568e-07 3.56544e-07 -0.0010022)
(-1.22129e-07 9.81631e-07 -0.00100127)
(-3.56004e-07 9.88675e-07 -0.00100135)
(-5.43639e-07 1.00031e-06 -0.00100152)
(-6.71637e-07 1.0137e-06 -0.00100172)
(-7.22825e-07 1.03217e-06 -0.00100197)
(-1.18924e-07 1.54086e-06 -0.00100089)
(-3.45948e-07 1.54953e-06 -0.00100097)
(-5.28664e-07 1.56254e-06 -0.00100112)
(-6.52529e-07 1.57801e-06 -0.00100131)
(-7.03263e-07 1.59908e-06 -0.00100155)
(-1.16219e-07 1.9707e-06 -0.00100036)
(-3.37318e-07 1.9775e-06 -0.00100043)
(-5.15458e-07 1.98627e-06 -0.00100058)
(-6.35207e-07 1.99633e-06 -0.00100076)
(-6.85317e-07 2.0115e-06 -0.00100097)
(-1.15529e-07 2.22572e-06 -0.000999704)
(-3.34041e-07 2.22863e-06 -0.000999779)
(-5.10105e-07 2.22996e-06 -0.00099992)
(-6.27324e-07 2.23031e-06 -0.0010001)
(-6.76775e-07 2.23463e-06 -0.0010003)
(-1.72097e-07 4.48097e-07 -0.00100195)
(-5.16091e-07 4.52367e-07 -0.00100206)
(-7.76025e-07 4.6271e-07 -0.00100235)
(-9.61624e-07 4.71236e-07 -0.0010026)
(-1.01639e-06 4.88552e-07 -0.00100305)
(-1.68855e-07 1.30737e-06 -0.00100168)
(-5.02965e-07 1.31945e-06 -0.0010018)
(-7.5816e-07 1.3451e-06 -0.00100206)
(-9.36955e-07 1.36833e-06 -0.00100231)
(-9.93291e-07 1.41074e-06 -0.00100272)
(-1.62703e-07 2.05605e-06 -0.00100119)
(-4.81708e-07 2.07115e-06 -0.0010013)
(-7.28474e-07 2.09919e-06 -0.00100153)
(-8.9742e-07 2.12697e-06 -0.00100177)
(-9.55821e-07 2.17465e-06 -0.00100212)
(-1.57544e-07 2.64621e-06 -0.0010005)
(-4.63921e-07 2.65664e-06 -0.0010006)
(-7.02735e-07 2.6756e-06 -0.00100081)
(-8.6164e-07 2.69203e-06 -0.00100104)
(-9.21486e-07 2.72689e-06 -0.00100134)
(-1.56865e-07 3.00783e-06 -0.000999624)
(-4.57267e-07 3.01038e-06 -0.000999721)
(-6.93459e-07 3.0147e-06 -0.000999921)
(-8.46155e-07 3.01237e-06 -0.00100015)
(-9.05968e-07 3.02549e-06 -0.00100043)
(-2.30106e-07 5.92722e-07 -0.00100257)
(-7.55672e-07 5.97645e-07 -0.00100267)
(-1.09225e-06 6.2345e-07 -0.00100322)
(-1.38078e-06 6.31949e-07 -0.00100342)
(-1.40814e-06 6.77941e-07 -0.00100431)
(-2.26514e-07 1.72947e-06 -0.00100223)
(-7.26806e-07 1.7473e-06 -0.00100234)
(-1.05904e-06 1.80993e-06 -0.00100283)
(-1.32753e-06 1.83943e-06 -0.00100305)
(-1.36441e-06 1.94929e-06 -0.00100382)
(-2.15881e-07 2.72039e-06 -0.00100159)
(-6.7969e-07 2.74527e-06 -0.0010017)
(-1.00169e-06 2.81079e-06 -0.00100211)
(-1.2431e-06 2.85156e-06 -0.00100233)
(-1.29558e-06 2.97278e-06 -0.00100296)
(-2.06796e-07 3.53872e-06 -0.00100074)
(-6.42018e-07 3.55153e-06 -0.00100083)
(-9.53288e-07 3.59708e-06 -0.00100118)
(-1.16573e-06 3.6126e-06 -0.0010014)
(-1.23236e-06 3.704e-06 -0.00100189)
(-2.09229e-07 4.05517e-06 -0.000999528)
(-6.28025e-07 4.05209e-06 -0.00099964)
(-9.41117e-07 4.0688e-06 -0.000999946)
(-1.13621e-06 4.04891e-06 -0.00100022)
(-1.20727e-06 4.09448e-06 -0.00100062)
(-2.68728e-07 7.78944e-07 -0.00100336)
(-1.16135e-06 7.76202e-07 -0.00100334)
(-1.52534e-06 8.46019e-07 -0.00100452)
(-2.04369e-06 8.33839e-07 -0.00100435)
(-1.9514e-06 9.62103e-07 -0.00100627)
(-2.73045e-07 2.27159e-06 -0.00100293)
(-1.09643e-06 2.28677e-06 -0.00100296)
(-1.46867e-06 2.45276e-06 -0.00100397)
(-1.92855e-06 2.45318e-06 -0.00100391)
(-1.86886e-06 2.75254e-06 -0.00100553)
(-2.58148e-07 3.54767e-06 -0.00100211)
(-9.86081e-07 3.58495e-06 -0.00100213)
(-1.36058e-06 3.74778e-06 -0.00100293)
(-1.74564e-06 3.78123e-06 -0.00100293)
(-1.74747e-06 4.10941e-06 -0.00100419)
(-2.42738e-07 4.71266e-06 -0.00100116)
(-9.04017e-07 4.71461e-06 -0.00100115)
(-1.27311e-06 4.83716e-06 -0.00100184)
(-1.56716e-06 4.80211e-06 -0.00100183)
(-1.63522e-06 5.06744e-06 -0.00100275)
(-2.6423e-07 5.45307e-06 -0.000999387)
(-8.70554e-07 5.42179e-06 -0.000999473)
(-1.27376e-06 5.49127e-06 -0.000999998)
(-1.51539e-06 5.38659e-06 -0.00100025)
(-1.6057e-06 5.55663e-06 -0.00100087)
(-2.01625e-07 1.0161e-06 -0.00100436)
(-1.89654e-06 9.73825e-07 -0.00100394)
(-2.09899e-06 1.16057e-06 -0.00100647)
(-3.13512e-06 1.06137e-06 -0.00100527)
(-2.72e-06 1.40694e-06 -0.00100942)
(-2.45324e-07 2.97412e-06 -0.00100382)
(-1.75407e-06 2.95158e-06 -0.00100359)
(-2.01201e-06 3.38935e-06 -0.00100569)
(-2.8885e-06 3.24868e-06 -0.00100487)
(-2.55804e-06 4.02017e-06 -0.00100822)
(-2.28927e-07 4.49304e-06 -0.00100269)
(-1.48873e-06 4.55443e-06 -0.00100245)
(-1.8033e-06 4.93597e-06 -0.00100402)
(-2.50544e-06 4.92988e-06 -0.0010034)
(-2.3533e-06 5.75707e-06 -0.00100597)
(-1.91923e-07 6.26024e-06 -0.00100204)
(-1.32048e-06 6.20911e-06 -0.00100168)
(-1.63747e-06 6.5281e-06 -0.00100317)
(-2.06764e-06 6.29395e-06 -0.00100237)
(-2.14564e-06 7.02407e-06 -0.0010042)
(-2.90027e-07 7.31375e-06 -0.000999062)
(-1.2326e-06 7.18721e-06 -0.00099902)
(-1.7193e-06 7.43642e-06 -0.000999991)
(-2.00951e-06 7.02674e-06 -0.00100006)
(-2.15117e-06 7.61066e-06 -0.00100116)
(1.50948e-07 1.30839e-06 -0.00100556)
(-3.25469e-06 1.11623e-06 -0.00100419)
(-2.84839e-06 1.60752e-06 -0.00100942)
(-4.99239e-06 1.21979e-06 -0.00100593)