# Probe 0 (0 0 50000)
# Probe 1 (0 0 -40000)
#       Probe             0             1
#        Time
        10000    0.00902225   6.05744e-10
        20000    0.00580492  -1.57215e-11
        30000    0.00636341   1.67152e-09
        40000    0.00638186  -1.61162e-10
        50000    0.00679734  -4.57653e-10
        60000    0.00709669  -2.88282e-10
        70000    0.00700456  -4.82932e-11
        80000    0.00719851   3.44988e-10
        90000    0.00529452   6.55972e-10
       100000     0.0073941   2.26721e-10
