FoamFile
{version 2.0; format ascii;class Cloud<passiveParticle>; location 0;object  positions;}
42
(
( 386.302 -486.309 99.8645 ) 0 
( 113.94 -410.042 99.8506 ) 0 
( 94.5538 -210.172 99.925 ) 0 
( 288.214 -312.066 99.8274 ) 0 
( 104.074 -0.477429 99.9517 ) 0 
( 400.157 -324.214 264.91 ) 0 
( 461.378 -145.388 144.468 ) 0 
( 269.274 -113.065 99.8713 ) 0 
( 40.6355 -329.884 267.685 ) 0 
( 201.45 -40.6585 273.392 ) 0 
( 219.049 -239.752 272.843 ) 0 
( 0.352697 -100.821 238.341 ) 0 
( 187.373 -404.903 380.858 ) 0 
( 90.0985 -224.685 430.296 ) 0 
( 63.1447 -26.5709 427.611 ) 0 
( 377.89 -130.249 325.348 ) 0 
( 329.983 -281.405 447.206 ) 0 
( 452.638 -136.762 510.677 ) 0 
( 243.115 -102.373 470.221 ) 0 
( 327.614 -480.429 501.763 ) 0 
( 432.171 -320.97 616.112 ) 0 
( 154.326 -393.951 577.599 ) 0 
( 102.137 -94.3755 611.717 ) 0 
( 38.2547 -269.905 682.933 ) 0 
( 255.389 -228.127 625.114 ) 0 
( 364.706 -81.3084 708.982 ) 0 
( 289.786 -411.227 723.587 ) 0 
( 165.759 -159.07 789.877 ) 0 
( 480.71 -467.419 743.235 ) 0 
( 343.659 -245.337 821.357 ) 0 
( 100.864 -428.968 786.673 ) 0 
( 255.506 -395.357 919.912 ) 0 
( 9.5966 -246.076 879.385 ) 0 
( 53.0164 -19.9759 878.867 ) 0 
( 233.02 -180.128 976.96 ) 0 
( 390.551 -39.4079 987.954 ) 0 
( 422.884 -235.96 1005.46 ) 0 
( 490.314 -410.343 934.591 ) 0 
( 90.5022 -355.749 1025.71 ) 0 
( 48.99 -136.051 1041.65 ) 0 
( 323.848 -376.934 1107.01 ) 0 
( 175.728 -235.072 1160.52 ) 0 
)
