FoamFile
{version 2.0; format ascii;class vectorField; location 0;object  v;}
42
(
( 5.0134e-05 -1.73467e-05 9.34372e-05 )  
( 1.53167e-05 1.10258e-05 0.000148845 )  
( -3.51524e-05 9.17978e-06 5.53909e-05 )  
( 2.00067e-06 -4.72881e-06 0.000177826 )  
( -4.04952e-05 -1.66976e-06 7.48636e-05 )  
( -5.76815e-05 1.6653e-05 0.000411982 )  
( -4.56847e-05 -6.75747e-06 0.000243347 )  
( -7.00173e-05 -1.55411e-05 0.000174826 )  
( -1.15192e-05 -2.33006e-05 0.000231049 )  
( -5.16961e-05 -3.44728e-05 0.000290729 )  
( -2.62513e-05 -9.37318e-06 0.000305067 )  
( 1.85995e-05 -2.26857e-05 0.000141209 )  
( -6.10477e-05 -5.72357e-05 0.000218665 )  
( 4.97743e-05 2.32377e-05 0.000373263 )  
( -3.3586e-06 8.19364e-06 0.00035862 )  
( 1.06942e-05 -1.45718e-05 0.000358303 )  
( -0.000127203 3.86987e-05 0.00051997 )  
( 0.000162427 6.0375e-05 0.000282631 )  
( 6.20874e-05 4.19635e-05 0.000283806 )  
( -3.68728e-05 5.9458e-05 0.000383771 )  
( 1.86762e-05 -4.30577e-05 -1.09202e-05 )  
( -0.000115673 -4.83272e-05 2.55393e-05 )  
( 7.97144e-05 -5.99633e-05 0.000115174 )  
( -1.96399e-05 4.13877e-05 -1.94883e-05 )  
( -1.13083e-05 -0.000156012 3.90015e-05 )  
( 3.67356e-05 6.8609e-05 7.75345e-05 )  
( -6.32863e-05 -4.48331e-05 -0.000176083 )  
( 3.19425e-05 3.86735e-05 -0.000100934 )  
( -2.25361e-05 6.77505e-06 -0.000151563 )  
( -0.000226528 -4.67566e-05 -0.00027533 )  
( -2.72106e-05 -2.05082e-06 -0.000199859 )  
( -0.00013301 -2.77536e-05 -0.000236618 )  
( -5.76892e-05 0.000166246 -0.000223714 )  
( 6.09145e-05 0.000131476 -0.000147083 )  
( -4.95932e-05 -7.91046e-05 -0.000171894 )  
( -0.000140931 -1.07645e-05 -0.000351059 )  
( 4.27752e-05 -9.72192e-05 -0.000320761 )  
( -0.000106767 -9.04361e-05 -0.00029794 )  
( -0.000164358 5.70796e-05 -0.000356821 )  
( -6.89566e-05 -9.5718e-05 -0.000330175 )  
( 3.76651e-05 -8.29405e-05 -7.88436e-05 )  
( -6.09879e-05 -5.32309e-05 -0.000234193 )  
)
