/*--------------------------------*- C++ -*----------------------------------*\
| =========                 |                                                 |
| \\      /  F ield         | OpenFOAM: The Open Source CFD Toolbox           |
|  \\    /   O peration     | Version:  5.x                                   |
|   \\  /    A nd           | Web:      www.OpenFOAM.org                      |
|    \\/     M anipulation  |                                                 |
\*---------------------------------------------------------------------------*/
FoamFile
{
    version     2.0;
    format      ascii;
    class       surfaceScalarField;
    location    "5000";
    object      phi;
}
// * * * * * * * * * * * * * * * * * * * * * * * * * * * * * * * * * * * * * //

dimensions      [0 3 -1 0 0 0 0];

internalField   nonuniform List<scalar> 
179
(
-249.977
-249.976
-249.976
-249.975
-249.974
-249.972
-249.97
-249.968
-249.966
-249.963
-249.96
-249.957
-249.953
-249.948
-249.943
-249.937
-249.931
-249.924
-249.916
-249.907
-249.898
-249.887
-249.875
-249.861
-249.847
-249.83
-249.811
-249.791
-249.768
-249.743
-249.714
-249.683
-249.648
-249.609
-249.566
-249.517
-249.464
-249.404
-249.337
-249.263
-249.18
-249.088
-248.985
-248.871
-248.743
-248.6
-248.44
-248.262
-248.063
-247.841
-247.592
-247.313
-247.001
-246.652
-246.261
-245.823
-245.331
-244.779
-244.16
-243.465
-242.684
-241.806
-240.818
-239.707
-238.456
-237.047
-235.459
-233.668
-231.647
-229.366
-226.788
-223.875
-220.581
-216.857
-212.661
-207.976
-202.877
-197.641
-192.955
-190.173
-190.849
-191.005
-192.028
-192.655
-194.703
-194.611
-196.861
-194.244
-183.793
-180.933
-175.644
-179.177
-180.981
-180.613
-181.475
-182.458
-180.952
-181.775
-175.837
-175.931
-181.495
-184.678
-190.128
-195.277
-199.207
-204.556
-210.059
-215.139
-219.648
-223.598
-227.041
-230.038
-232.644
-234.911
-236.881
-238.594
-240.083
-241.377
-242.502
-243.481
-244.331
-245.07
-245.712
-246.27
-246.755
-247.177
-247.543
-247.862
-248.139
-248.38
-248.59
-248.772
-248.931
-249.069
-249.189
-249.294
-249.387
-249.467
-249.537
-249.598
-249.65
-249.695
-249.735
-249.769
-249.798
-249.824
-249.847
-249.866
-249.884
-249.899
-249.912
-249.923
-249.933
-249.941
-249.949
-249.956
-249.961
-249.966
-249.971
-249.974
-249.978
-249.981
-249.983
-249.985
-249.987
-249.989
-249.991
-249.992
-249.993
-249.994
-249.995
-249.996
-249.996
-249.997
-249.998
-249.998
-249.998
-249.999
-249.999
)
;

boundaryField
{
    inlet
    {
        type            calculated;
        value           uniform -250;
    }
    outlet
    {
        type            calculated;
        value           uniform 249.977;
    }
    repeat_boundary
    {
        type            calculated;
        value           uniform 0;
    }
    procBoundary2to0
    {
        type            processor;
        value           nonuniform List<scalar> 
180
(
-0.000322148
-0.000436625
-0.000623882
-0.000848458
-0.00109367
-0.00135391
-0.00162899
-0.00192079
-0.00223201
-0.00256571
-0.00292525
-0.00331424
-0.00373665
-0.00419675
-0.00469923
-0.00524922
-0.00585236
-0.00651483
-0.00724344
-0.0080457
-0.00892988
-0.00990512
-0.0109815
-0.0121702
-0.0134836
-0.0149352
-0.0165402
-0.0183154
-0.0202791
-0.0224522
-0.0248573
-0.0275198
-0.0304679
-0.0337326
-0.0373485
-0.0413542
-0.0457924
-0.0507106
-0.0561617
-0.0622051
-0.0689063
-0.0763386
-0.0845836
-0.0937324
-0.103887
-0.11516
-0.127678
-0.141584
-0.157036
-0.174212
-0.19331
-0.214555
-0.238196
-0.264515
-0.293826
-0.326486
-0.362891
-0.403492
-0.448794
-0.499366
-0.555851
-0.618974
-0.689554
-0.768516
-0.856905
-0.955908
-1.06687
-1.1913
-1.33094
-1.48775
-1.66394
-1.86194
-2.08416
-2.33166
-2.60013
-2.86878
-3.07638
-3.08344
-2.62977
-1.25737
1.0703
0.0390913
0.00669992
0.37789
1.87184
0.00697803
3.13953
1.98733
-2.52565
-2.71141
-2.18403
2.07588
1.32271
3.04868
1.18813
1.95922
0.318242
1.01475
-0.68062
0.389113
1.61024
1.57939
4.38659
2.79874
1.0191
1.64375
1.79171
1.65953
1.45898
1.26077
1.08057
0.921596
0.783707
0.665131
0.563494
0.476506
0.402131
0.338602
0.284393
0.238189
0.198858
0.16543
0.137071
0.113073
0.0928382
0.0758209
0.0615401
0.0495852
0.0396067
0.0313072
0.0244344
0.0187759
0.0141553
0.0104313
0.00750355
0.00532666
0.00395791
0.00212958
0.000683017
-0.000446246
-0.0017171
-0.00265233
-0.00327809
-0.00362547
-0.00380288
-0.00383136
-0.00380559
-0.00373392
-0.00362968
-0.00350206
-0.00335848
-0.00320472
-0.0030452
-0.0028834
-0.002722
-0.00256305
-0.00240808
-0.00225822
-0.00211427
-0.00197677
-0.00184611
-0.00172245
-0.00160588
-0.00149639
-0.00139388
-0.00129825
-0.00120934
-0.00112702
-0.00105107
-0.000981306
-0.000917559
-0.000859659
-0.000807414
-0.000760622
-0.000719141
-0.000682812
-0.000651441
-0.000625493
-0.000604311
-0.000599422
)
;
    }
    procBoundary2to3
    {
        type            processor;
        value           nonuniform List<scalar> 
180
(
-2.11202e-05
-3.12576e-05
-4.47435e-05
-6.07223e-05
-7.87045e-05
-9.83965e-05
-0.000119839
-0.000143235
-0.000168909
-0.000197249
-0.000228716
-0.000263843
-0.000303219
-0.000347537
-0.000397601
-0.000454344
-0.000518835
-0.000592307
-0.000676181
-0.000772086
-0.000881901
-0.00100778
-0.00115221
-0.00131804
-0.00150855
-0.00172751
-0.00197926
-0.00226876
-0.00260175
-0.0029848
-0.00342547
-0.00393246
-0.00451574
-0.00518681
-0.00595888
-0.00684714
-0.00786906
-0.00904473
-0.0103973
-0.0119533
-0.0137433
-0.0158025
-0.0181714
-0.0208966
-0.0240315
-0.0276378
-0.0317863
-0.0365584
-0.0420478
-0.0483622
-0.0556254
-0.0639797
-0.0735887
-0.0846407
-0.0973519
-0.111971
-0.128783
-0.148117
-0.170351
-0.19592
-0.225321
-0.25913
-0.298006
-0.342712
-0.394126
-0.453261
-0.521296
-0.599603
-0.689775
-0.793651
-0.913352
-1.05129
-1.21006
-1.3918
-1.59637
-1.816
-2.02298
-2.15264
-2.05659
-1.52441
-0.394324
0.117638
1.01571
0.249436
0.17615
-0.0991526
-0.889029
-4.60455
-7.92584
-0.148368
-3.10463
1.45674
0.481413
-3.41627
-0.326473
-0.97585
-1.82487
-0.190944
-5.25802
-0.295026
3.95421
1.6032
1.0632
2.35043
2.91042
3.70594
3.71099
3.42083
3.05019
2.68875
2.36282
2.07515
1.82256
1.60101
1.40674
1.23637
1.08694
0.955855
0.840836
0.739892
0.651278
0.573466
0.50512
0.445067
0.392285
0.345875
0.305054
0.269136
0.23752
0.209681
0.185158
0.163548
0.144499
0.127701
0.112883
0.0998104
0.0882761
0.0781034
0.0691294
0.0612109
0.0542228
0.0480515
0.042598
0.0377761
0.0335107
0.0297361
0.0263946
0.0234356
0.0208145
0.0184922
0.0164339
0.0146092
0.0129913
0.0115564
0.0102835
0.00915425
0.00815224
0.00726309
0.00647407
0.00577392
0.00515271
0.00460165
0.00411297
0.00367979
0.00329605
0.00295637
0.002656
0.00239075
0.00215691
0.00195122
0.0017708
0.00161314
0.00147603
0.00135755
0.00125606
0.00117017
0.00109864
0.00104006
0.000996121
0.000980625
)
;
    }
}


// ************************************************************************* //
