/*--------------------------------*- C++ -*----------------------------------*\
| =========                 |                                                 |
| \\      /  F ield         | OpenFOAM: The Open Source CFD Toolbox           |
|  \\    /   O peration     | Version:  5.x                                   |
|   \\  /    A nd           | Web:      www.OpenFOAM.org                      |
|    \\/     M anipulation  |                                                 |
\*---------------------------------------------------------------------------*/
FoamFile
{
    version     2.0;
    format      ascii;
    class       volVectorField;
    location    "5000";
    object      stored_U;
}
// * * * * * * * * * * * * * * * * * * * * * * * * * * * * * * * * * * * * * //

dimensions      [0 1 -1 0 0 0 0];

internalField   nonuniform List<vector> 
180
(
(-6.72246e-10 1.24431e-08 -0.000999915)
(-8.17764e-10 1.69446e-08 -0.000999913)
(-1.08741e-09 2.4242e-08 -0.000999911)
(-1.45409e-09 3.30142e-08 -0.000999908)
(-1.8949e-09 4.26068e-08 -0.000999904)
(-2.39752e-09 5.28105e-08 -0.000999899)
(-2.96305e-09 6.36275e-08 -0.000999892)
(-3.59955e-09 7.51415e-08 -0.000999884)
(-4.31909e-09 8.74677e-08 -0.000999876)
(-5.1361e-09 1.00736e-07 -0.000999865)
(-6.06692e-09 1.1509e-07 -0.000999853)
(-7.12991e-09 1.30681e-07 -0.00099984)
(-8.34575e-09 1.47679e-07 -0.000999824)
(-9.73786e-09 1.66265e-07 -0.000999807)
(-1.13329e-08 1.8664e-07 -0.000999787)
(-1.31611e-08 2.09023e-07 -0.000999765)
(-1.52574e-08 2.33656e-07 -0.000999741)
(-1.76617e-08 2.60805e-07 -0.000999713)
(-2.04198e-08 2.90764e-07 -0.000999682)
(-2.35846e-08 3.2386e-07 -0.000999648)
(-2.72172e-08 3.60454e-07 -0.000999609)
(-3.13879e-08 4.00947e-07 -0.000999566)
(-3.6178e-08 4.45784e-07 -0.000999518)
(-4.16813e-08 4.95459e-07 -0.000999465)
(-4.80063e-08 5.50523e-07 -0.000999406)
(-5.5278e-08 6.11588e-07 -0.000999339)
(-6.36409e-08 6.79335e-07 -0.000999266)
(-7.32616e-08 7.54523e-07 -0.000999183)
(-8.43322e-08 8.37998e-07 -0.000999092)
(-9.70743e-08 9.30702e-07 -0.00099899)
(-1.11743e-07 1.03369e-06 -0.000998876)
(-1.28634e-07 1.14812e-06 -0.000998749)
(-1.48085e-07 1.27532e-06 -0.000998608)
(-1.70487e-07 1.41674e-06 -0.00099845)
(-1.96291e-07 1.57401e-06 -0.000998275)
(-2.26015e-07 1.74896e-06 -0.000998079)
(-2.60257e-07 1.94361e-06 -0.000997861)
(-2.99705e-07 2.16026e-06 -0.000997617)
(-3.45152e-07 2.40144e-06 -0.000997345)
(-3.97511e-07 2.67001e-06 -0.000997041)
(-4.57836e-07 2.96916e-06 -0.000996702)
(-5.27339e-07 3.30247e-06 -0.000996323)
(-6.07419e-07 3.67394e-06 -0.000995899)
(-6.99684e-07 4.08807e-06 -0.000995425)
(-8.05992e-07 4.54991e-06 -0.000994894)
(-9.2848e-07 5.06511e-06 -0.0009943)
(-1.06961e-06 5.64004e-06 -0.000993635)
(-1.23222e-06 6.28183e-06 -0.000992891)
(-1.41958e-06 6.99852e-06 -0.000992056)
(-1.63544e-06 7.79915e-06 -0.00099112)
(-1.88414e-06 8.69386e-06 -0.00099007)
(-2.17067e-06 9.69412e-06 -0.000988891)
(-2.50077e-06 1.08128e-05 -0.000987567)
(-2.88105e-06 1.20645e-05 -0.000986081)
(-3.31911e-06 1.34655e-05 -0.000984409)
(-3.82369e-06 1.50343e-05 -0.00098253)
(-4.40487e-06 1.67919e-05 -0.000980416)
(-5.07423e-06 1.87618e-05 -0.000978036)
(-5.84506e-06 2.09706e-05 -0.000975355)
(-6.73268e-06 2.34485e-05 -0.000972335)
(-7.75465e-06 2.62296e-05 -0.000968929)
(-8.93114e-06 2.93526e-05 -0.000965088)
(-1.02853e-05 3.2861e-05 -0.000960752)
(-1.18437e-05 3.68046e-05 -0.000955855)
(-1.36367e-05 4.12395e-05 -0.000950323)
(-1.56992e-05 4.62294e-05 -0.000944068)
(-1.80717e-05 5.18468e-05 -0.000936992)
(-2.08016e-05 5.81738e-05 -0.000928984)
(-2.39444e-05 6.53037e-05 -0.000919914)
(-2.75638e-05 7.33428e-05 -0.000909636)
(-3.17336e-05 8.2411e-05 -0.000897984)
(-3.65371e-05 9.26417e-05 -0.000884761)
(-4.20635e-05 0.000104172 -0.000869706)
(-4.83871e-05 0.000117096 -0.000852511)
(-5.54979e-05 0.000131309 -0.00083318)
(-6.31092e-05 0.000146071 -0.000812735)
(-7.01845e-05 0.000159033 -0.000791577)
(-7.39931e-05 0.00016458 -0.000758165)
(-6.90956e-05 0.000152085 -0.000686817)
(-4.9056e-05 0.000109446 -0.000528607)
(-2.0218e-05 2.38901e-05 -0.00213505)
(1.63518e-05 1.01785e-05 0.000118089)
(3.3943e-05 8.29048e-05 -0.00324714)
(2.95455e-05 1.76653e-05 -0.000250384)
(-0.000128772 -8.72466e-05 -0.00401455)
(5.53908e-05 -1.487e-05 -0.000296662)
(-0.000121414 -0.000246608 -0.00337781)
(-0.000231721 -0.000197532 -0.00132176)
(-0.00043841 0.000182079 -0.00279584)
(5.20448e-06 4.49916e-05 -0.000113234)
(-0.00010431 2.83442e-05 -0.00519514)
(-1.33923e-05 -2.89319e-05 -0.000924314)
(6.34744e-05 -0.000251233 -0.00226183)
(-0.000303219 -0.000222619 -0.00291136)
(-8.81075e-05 -2.11763e-05 4.22082e-06)
(-0.000188177 -0.000278367 -0.00329774)
(-7.42816e-05 -4.4851e-05 -0.000636725)
(-9.9142e-05 -0.000114954 -0.00183214)
(-0.000289199 -1.41023e-05 -0.00234136)
(6.09499e-05 -9.53483e-07 -0.000430463)
(5.0018e-05 -0.000107346 -0.00263569)
(8.59638e-05 -2.30575e-05 -0.000923658)
(9.80518e-05 -0.000223876 -0.00112271)
(0.000159279 -0.000245276 -0.000833583)
(0.000158604 -0.000107927 -0.000741549)
(0.000171483 -9.61454e-05 -0.000798642)
(0.000164042 -8.47725e-05 -0.000803722)
(0.000148325 -7.28106e-05 -0.000825533)
(0.00013095 -6.19397e-05 -0.00084956)
(0.000114666 -5.26884e-05 -0.000870265)
(0.000100196 -4.48258e-05 -0.000887669)
(8.75317e-05 -3.81013e-05 -0.000902642)
(7.64869e-05 -3.23463e-05 -0.000915633)
(6.68591e-05 -2.74281e-05 -0.000926894)
(5.8465e-05 -2.32294e-05 -0.000936643)
(5.11442e-05 -1.96475e-05 -0.000945083)
(4.47571e-05 -1.65936e-05 -0.000952391)
(3.91825e-05 -1.39917e-05 -0.000958722)
(3.43153e-05 -1.17766e-05 -0.000964206)
(3.00641e-05 -9.89231e-06 -0.000968958)
(2.63497e-05 -8.29105e-06 -0.000973076)
(2.3103e-05 -6.93168e-06 -0.000976646)
(2.02641e-05 -5.77898e-06 -0.00097974)
(1.77809e-05 -4.80275e-06 -0.000982422)
(1.56081e-05 -3.97713e-06 -0.000984748)
(1.37061e-05 -3.27994e-06 -0.000986764)
(1.20406e-05 -2.69223e-06 -0.000988513)
(1.05817e-05 -2.19771e-06 -0.00099003)
(9.3032e-06 -1.7825e-06 -0.000991346)
(8.18247e-06 -1.43466e-06 -0.000992488)
(7.19964e-06 -1.14403e-06 -0.000993479)
(6.33743e-06 -9.01903e-07 -0.000994338)
(5.58075e-06 -7.00848e-07 -0.000995084)
(4.91644e-06 -5.34533e-07 -0.000995731)
(4.33298e-06 -3.9756e-07 -0.000996293)
(3.82035e-06 -2.85353e-07 -0.000996781)
(3.36978e-06 -1.93995e-07 -0.000997204)
(2.9736e-06 -1.20113e-07 -0.000997571)
(2.62511e-06 -6.08315e-08 -0.000997891)
(2.31845e-06 -1.37047e-08 -0.000998168)
(2.0485e-06 2.34046e-08 -0.000998408)
(1.81074e-06 5.22521e-08 -0.000998616)
(1.6012e-06 7.42774e-08 -0.000998796)
(1.41642e-06 9.07644e-08 -0.000998952)
(1.2534e-06 1.02714e-07 -0.000999088)
(1.10953e-06 1.10928e-07 -0.000999207)
(9.82532e-07 1.16067e-07 -0.00099931)
(8.70388e-07 1.18705e-07 -0.0009994)
(7.71332e-07 1.19334e-07 -0.000999478)
(6.8381e-07 1.1837e-07 -0.000999547)
(6.06453e-07 1.16164e-07 -0.000999606)
(5.38061e-07 1.13006e-07 -0.000999658)
(4.77578e-07 1.09139e-07 -0.000999703)
(4.24073e-07 1.04764e-07 -0.000999742)
(3.7673e-07 1.00043e-07 -0.000999776)
(3.34829e-07 9.51125e-08 -0.000999806)
(2.97736e-07 9.0081e-08 -0.000999832)
(2.64892e-07 8.50368e-08 -0.000999854)
(2.35807e-07 8.00499e-08 -0.000999874)
(2.10046e-07 7.51758e-08 -0.000999891)
(1.87228e-07 7.04576e-08 -0.000999906)
(1.67016e-07 6.59279e-08 -0.000999919)
(1.49114e-07 6.1611e-08 -0.00099993)
(1.33261e-07 5.75241e-08 -0.00099994)
(1.19227e-07 5.36786e-08 -0.000999949)
(1.06809e-07 5.00811e-08 -0.000999956)
(9.58305e-08 4.67345e-08 -0.000999963)
(8.61351e-08 4.36384e-08 -0.000999968)
(7.75862e-08 4.07902e-08 -0.000999973)
(7.00644e-08 3.81853e-08 -0.000999977)
(6.34652e-08 3.58179e-08 -0.000999981)
(5.76981e-08 3.36811e-08 -0.000999984)
(5.26843e-08 3.17673e-08 -0.000999987)
(4.83564e-08 3.00688e-08 -0.000999989)
(4.46566e-08 2.8577e-08 -0.000999991)
(4.15364e-08 2.72828e-08 -0.000999993)
(3.89539e-08 2.61769e-08 -0.000999994)
(3.68639e-08 2.52732e-08 -0.000999996)
(3.53447e-08 2.45391e-08 -0.000999997)
(3.43495e-08 2.42676e-08 -0.000999998)
)
;

boundaryField
{
    inlet
    {
        type            calculated;
        value           uniform (3.43495e-08 2.42676e-08 -0.000999998);
    }
    outlet
    {
        type            calculated;
        value           uniform (-6.72246e-10 1.24431e-08 -0.000999915);
    }
    repeat_boundary
    {
        type            calculated;
        value           nonuniform List<vector> 
360
(
(-6.72246e-10 0 -0.000999915)
(-8.17764e-10 0 -0.000999913)
(-1.08741e-09 0 -0.000999911)
(-1.45409e-09 0 -0.000999908)
(-1.8949e-09 0 -0.000999904)
(-2.39752e-09 0 -0.000999899)
(-2.96305e-09 0 -0.000999892)
(-3.59955e-09 0 -0.000999884)
(-4.31909e-09 0 -0.000999876)
(-5.1361e-09 0 -0.000999865)
(-6.06692e-09 0 -0.000999853)
(-7.12991e-09 0 -0.00099984)
(-8.34575e-09 0 -0.000999824)
(-9.73786e-09 0 -0.000999807)
(-1.13329e-08 0 -0.000999787)
(-1.31611e-08 0 -0.000999765)
(-1.52574e-08 0 -0.000999741)
(-1.76617e-08 0 -0.000999713)
(-2.04198e-08 0 -0.000999682)
(-2.35846e-08 0 -0.000999648)
(-2.72172e-08 0 -0.000999609)
(-3.13879e-08 0 -0.000999566)
(-3.6178e-08 0 -0.000999518)
(-4.16813e-08 0 -0.000999465)
(-4.80063e-08 0 -0.000999406)
(-5.5278e-08 0 -0.000999339)
(-6.36409e-08 0 -0.000999266)
(-7.32616e-08 0 -0.000999183)
(-8.43322e-08 0 -0.000999092)
(-9.70743e-08 0 -0.00099899)
(-1.11743e-07 0 -0.000998876)
(-1.28634e-07 0 -0.000998749)
(-1.48085e-07 0 -0.000998608)
(-1.70487e-07 0 -0.00099845)
(-1.96291e-07 0 -0.000998275)
(-2.26015e-07 0 -0.000998079)
(-2.60257e-07 0 -0.000997861)
(-2.99705e-07 0 -0.000997617)
(-3.45152e-07 0 -0.000997345)
(-3.97511e-07 0 -0.000997041)
(-4.57836e-07 0 -0.000996702)
(-5.27339e-07 0 -0.000996323)
(-6.07419e-07 0 -0.000995899)
(-6.99684e-07 0 -0.000995425)
(-8.05992e-07 0 -0.000994894)
(-9.2848e-07 0 -0.0009943)
(-1.06961e-06 0 -0.000993635)
(-1.23222e-06 0 -0.000992891)
(-1.41958e-06 0 -0.000992056)
(-1.63544e-06 0 -0.00099112)
(-1.88414e-06 0 -0.00099007)
(-2.17067e-06 0 -0.000988891)
(-2.50077e-06 0 -0.000987567)
(-2.88105e-06 0 -0.000986081)
(-3.31911e-06 0 -0.000984409)
(-3.82369e-06 0 -0.00098253)
(-4.40487e-06 0 -0.000980416)
(-5.07423e-06 0 -0.000978036)
(-5.84506e-06 0 -0.000975355)
(-6.73268e-06 0 -0.000972335)
(-7.75465e-06 0 -0.000968929)
(-8.93114e-06 0 -0.000965088)
(-1.02853e-05 0 -0.000960752)
(-1.18437e-05 0 -0.000955855)
(-1.36367e-05 0 -0.000950323)
(-1.56992e-05 0 -0.000944068)
(-1.80717e-05 0 -0.000936992)
(-2.08016e-05 0 -0.000928984)
(-2.39444e-05 0 -0.000919914)
(-2.75638e-05 0 -0.000909636)
(-3.17336e-05 0 -0.000897984)
(-3.65371e-05 0 -0.000884761)
(-4.20635e-05 0 -0.000869706)
(-4.83871e-05 0 -0.000852511)
(-5.54979e-05 0 -0.00083318)
(-6.31092e-05 0 -0.000812735)
(-7.01845e-05 0 -0.000791577)
(-7.39931e-05 0 -0.000758165)
(-6.90956e-05 0 -0.000686817)
(-4.9056e-05 0 -0.000528607)
(-2.0218e-05 0 -0.00213505)
(1.63518e-05 0 0.000118089)
(3.3943e-05 0 -0.00324714)
(2.95455e-05 0 -0.000250384)
(-0.000128772 0 -0.00401455)
(5.53908e-05 0 -0.000296662)
(-0.000121414 0 -0.00337781)
(-0.000231721 0 -0.00132176)
(-0.00043841 0 -0.00279584)
(5.20448e-06 0 -0.000113234)
(-0.00010431 0 -0.00519514)
(-1.33923e-05 0 -0.000924314)
(6.34744e-05 0 -0.00226183)
(-0.000303219 0 -0.00291136)
(-8.81075e-05 0 4.22082e-06)
(-0.000188177 0 -0.00329774)
(-7.42816e-05 0 -0.000636725)
(-9.9142e-05 0 -0.00183214)
(-0.000289199 0 -0.00234136)
(6.09499e-05 0 -0.000430463)
(5.0018e-05 0 -0.00263569)
(8.59638e-05 0 -0.000923658)
(9.80518e-05 0 -0.00112271)
(0.000159279 0 -0.000833583)
(0.000158604 0 -0.000741549)
(0.000171483 0 -0.000798642)
(0.000164042 0 -0.000803722)
(0.000148325 0 -0.000825533)
(0.00013095 0 -0.00084956)
(0.000114666 0 -0.000870265)
(0.000100196 0 -0.000887669)
(8.75317e-05 0 -0.000902642)
(7.64869e-05 0 -0.000915633)
(6.68591e-05 0 -0.000926894)
(5.8465e-05 0 -0.000936643)
(5.11442e-05 0 -0.000945083)
(4.47571e-05 0 -0.000952391)
(3.91825e-05 0 -0.000958722)
(3.43153e-05 0 -0.000964206)
(3.00641e-05 0 -0.000968958)
(2.63497e-05 0 -0.000973076)
(2.3103e-05 0 -0.000976646)
(2.02641e-05 0 -0.00097974)
(1.77809e-05 0 -0.000982422)
(1.56081e-05 0 -0.000984748)
(1.37061e-05 0 -0.000986764)
(1.20406e-05 0 -0.000988513)
(1.05817e-05 0 -0.00099003)
(9.3032e-06 0 -0.000991346)
(8.18247e-06 0 -0.000992488)
(7.19964e-06 0 -0.000993479)
(6.33743e-06 0 -0.000994338)
(5.58075e-06 0 -0.000995084)
(4.91644e-06 0 -0.000995731)
(4.33298e-06 0 -0.000996293)
(3.82035e-06 0 -0.000996781)
(3.36978e-06 0 -0.000997204)
(2.9736e-06 0 -0.000997571)
(2.62511e-06 0 -0.000997891)
(2.31845e-06 0 -0.000998168)
(2.0485e-06 0 -0.000998408)
(1.81074e-06 0 -0.000998616)
(1.6012e-06 0 -0.000998796)
(1.41642e-06 0 -0.000998952)
(1.2534e-06 0 -0.000999088)
(1.10953e-06 0 -0.000999207)
(9.82532e-07 0 -0.00099931)
(8.70388e-07 0 -0.0009994)
(7.71332e-07 0 -0.000999478)
(6.8381e-07 0 -0.000999547)
(6.06453e-07 0 -0.000999606)
(5.38061e-07 0 -0.000999658)
(4.77578e-07 0 -0.000999703)
(4.24073e-07 0 -0.000999742)
(3.7673e-07 0 -0.000999776)
(3.34829e-07 0 -0.000999806)
(2.97736e-07 0 -0.000999832)
(2.64892e-07 0 -0.000999854)
(2.35807e-07 0 -0.000999874)
(2.10046e-07 0 -0.000999891)
(1.87228e-07 0 -0.000999906)
(1.67016e-07 0 -0.000999919)
(1.49114e-07 0 -0.00099993)
(1.33261e-07 0 -0.00099994)
(1.19227e-07 0 -0.000999949)
(1.06809e-07 0 -0.000999956)
(9.58305e-08 0 -0.000999963)
(8.61351e-08 0 -0.000999968)
(7.75862e-08 0 -0.000999973)
(7.00644e-08 0 -0.000999977)
(6.34652e-08 0 -0.000999981)
(5.76981e-08 0 -0.000999984)
(5.26843e-08 0 -0.000999987)
(4.83564e-08 0 -0.000999989)
(4.46566e-08 0 -0.000999991)
(4.15364e-08 0 -0.000999993)
(3.89539e-08 0 -0.000999994)
(3.68639e-08 0 -0.000999996)
(3.53447e-08 0 -0.000999997)
(3.43495e-08 0 -0.000999998)
(0 1.24431e-08 -0.000999915)
(0 1.69446e-08 -0.000999913)
(0 2.4242e-08 -0.000999911)
(0 3.30142e-08 -0.000999908)
(0 4.26068e-08 -0.000999904)
(0 5.28105e-08 -0.000999899)
(0 6.36275e-08 -0.000999892)
(0 7.51415e-08 -0.000999884)
(0 8.74677e-08 -0.000999876)
(0 1.00736e-07 -0.000999865)
(0 1.1509e-07 -0.000999853)
(0 1.30681e-07 -0.00099984)
(0 1.47679e-07 -0.000999824)
(0 1.66265e-07 -0.000999807)
(0 1.8664e-07 -0.000999787)
(0 2.09023e-07 -0.000999765)
(0 2.33656e-07 -0.000999741)
(0 2.60805e-07 -0.000999713)
(0 2.90764e-07 -0.000999682)
(0 3.2386e-07 -0.000999648)
(0 3.60454e-07 -0.000999609)
(0 4.00947e-07 -0.000999566)
(0 4.45784e-07 -0.000999518)
(0 4.95459e-07 -0.000999465)
(0 5.50523e-07 -0.000999406)
(0 6.11588e-07 -0.000999339)
(0 6.79335e-07 -0.000999266)
(0 7.54523e-07 -0.000999183)
(0 8.37998e-07 -0.000999092)
(0 9.30702e-07 -0.00099899)
(0 1.03369e-06 -0.000998876)
(0 1.14812e-06 -0.000998749)
(0 1.27532e-06 -0.000998608)
(0 1.41674e-06 -0.00099845)
(0 1.57401e-06 -0.000998275)
(0 1.74896e-06 -0.000998079)
(0 1.94361e-06 -0.000997861)
(0 2.16026e-06 -0.000997617)
(0 2.40144e-06 -0.000997345)
(0 2.67001e-06 -0.000997041)
(0 2.96916e-06 -0.000996702)
(0 3.30247e-06 -0.000996323)
(0 3.67394e-06 -0.000995899)
(0 4.08807e-06 -0.000995425)
(0 4.54991e-06 -0.000994894)
(0 5.06511e-06 -0.0009943)
(0 5.64004e-06 -0.000993635)
(0 6.28183e-06 -0.000992891)
(0 6.99852e-06 -0.000992056)
(0 7.79915e-06 -0.00099112)
(0 8.69386e-06 -0.00099007)
(0 9.69412e-06 -0.000988891)
(0 1.08128e-05 -0.000987567)
(0 1.20645e-05 -0.000986081)
(0 1.34655e-05 -0.000984409)
(0 1.50343e-05 -0.00098253)
(0 1.67919e-05 -0.000980416)
(0 1.87618e-05 -0.000978036)
(0 2.09706e-05 -0.000975355)
(0 2.34485e-05 -0.000972335)
(0 2.62296e-05 -0.000968929)
(0 2.93526e-05 -0.000965088)
(0 3.2861e-05 -0.000960752)
(0 3.68046e-05 -0.000955855)
(0 4.12395e-05 -0.000950323)
(0 4.62294e-05 -0.000944068)
(0 5.18468e-05 -0.000936992)
(0 5.81738e-05 -0.000928984)
(0 6.53037e-05 -0.000919914)
(0 7.33428e-05 -0.000909636)
(0 8.2411e-05 -0.000897984)
(0 9.26417e-05 -0.000884761)
(0 0.000104172 -0.000869706)
(0 0.000117096 -0.000852511)
(0 0.000131309 -0.00083318)
(0 0.000146071 -0.000812735)
(0 0.000159033 -0.000791577)
(0 0.00016458 -0.000758165)
(0 0.000152085 -0.000686817)
(0 0.000109446 -0.000528607)
(0 2.38901e-05 -0.00213505)
(0 1.01785e-05 0.000118089)
(0 8.29048e-05 -0.00324714)
(0 1.76653e-05 -0.000250384)
(0 -8.72466e-05 -0.00401455)
(0 -1.487e-05 -0.000296662)
(0 -0.000246608 -0.00337781)
(0 -0.000197532 -0.00132176)
(0 0.000182079 -0.00279584)
(0 4.49916e-05 -0.000113234)
(0 2.83442e-05 -0.00519514)
(0 -2.89319e-05 -0.000924314)
(0 -0.000251233 -0.00226183)
(0 -0.000222619 -0.00291136)
(0 -2.11763e-05 4.22082e-06)
(0 -0.000278367 -0.00329774)
(0 -4.4851e-05 -0.000636725)
(0 -0.000114954 -0.00183214)
(0 -1.41023e-05 -0.00234136)
(0 -9.53483e-07 -0.000430463)
(0 -0.000107346 -0.00263569)
(0 -2.30575e-05 -0.000923658)
(0 -0.000223876 -0.00112271)
(0 -0.000245276 -0.000833583)
(0 -0.000107927 -0.000741549)
(0 -9.61454e-05 -0.000798642)
(0 -8.47725e-05 -0.000803722)
(0 -7.28106e-05 -0.000825533)
(0 -6.19397e-05 -0.00084956)
(0 -5.26884e-05 -0.000870265)
(0 -4.48258e-05 -0.000887669)
(0 -3.81013e-05 -0.000902642)
(0 -3.23463e-05 -0.000915633)
(0 -2.74281e-05 -0.000926894)
(0 -2.32294e-05 -0.000936643)
(0 -1.96475e-05 -0.000945083)
(0 -1.65936e-05 -0.000952391)
(0 -1.39917e-05 -0.000958722)
(0 -1.17766e-05 -0.000964206)
(0 -9.89231e-06 -0.000968958)
(0 -8.29105e-06 -0.000973076)
(0 -6.93168e-06 -0.000976646)
(0 -5.77898e-06 -0.00097974)
(0 -4.80275e-06 -0.000982422)
(0 -3.97713e-06 -0.000984748)
(0 -3.27994e-06 -0.000986764)
(0 -2.69223e-06 -0.000988513)
(0 -2.19771e-06 -0.00099003)
(0 -1.7825e-06 -0.000991346)
(0 -1.43466e-06 -0.000992488)
(0 -1.14403e-06 -0.000993479)
(0 -9.01903e-07 -0.000994338)
(0 -7.00848e-07 -0.000995084)
(0 -5.34533e-07 -0.000995731)
(0 -3.9756e-07 -0.000996293)
(0 -2.85353e-07 -0.000996781)
(0 -1.93995e-07 -0.000997204)
(0 -1.20113e-07 -0.000997571)
(0 -6.08315e-08 -0.000997891)
(0 -1.37047e-08 -0.000998168)
(0 2.34046e-08 -0.000998408)
(0 5.22521e-08 -0.000998616)
(0 7.42774e-08 -0.000998796)
(0 9.07644e-08 -0.000998952)
(0 1.02714e-07 -0.000999088)
(0 1.10928e-07 -0.000999207)
(0 1.16067e-07 -0.00099931)
(0 1.18705e-07 -0.0009994)
(0 1.19334e-07 -0.000999478)
(0 1.1837e-07 -0.000999547)
(0 1.16164e-07 -0.000999606)
(0 1.13006e-07 -0.000999658)
(0 1.09139e-07 -0.000999703)
(0 1.04764e-07 -0.000999742)
(0 1.00043e-07 -0.000999776)
(0 9.51125e-08 -0.000999806)
(0 9.0081e-08 -0.000999832)
(0 8.50368e-08 -0.000999854)
(0 8.00499e-08 -0.000999874)
(0 7.51758e-08 -0.000999891)
(0 7.04576e-08 -0.000999906)
(0 6.59279e-08 -0.000999919)
(0 6.1611e-08 -0.00099993)
(0 5.75241e-08 -0.00099994)
(0 5.36786e-08 -0.000999949)
(0 5.00811e-08 -0.000999956)
(0 4.67345e-08 -0.000999963)
(0 4.36384e-08 -0.000999968)
(0 4.07902e-08 -0.000999973)
(0 3.81853e-08 -0.000999977)
(0 3.58179e-08 -0.000999981)
(0 3.36811e-08 -0.000999984)
(0 3.17673e-08 -0.000999987)
(0 3.00688e-08 -0.000999989)
(0 2.8577e-08 -0.000999991)
(0 2.72828e-08 -0.000999993)
(0 2.61769e-08 -0.000999994)
(0 2.52732e-08 -0.000999996)
(0 2.45391e-08 -0.000999997)
(0 2.42676e-08 -0.000999998)
)
;
    }
    procBoundary2to0
    {
        type            processor;
        value           nonuniform List<vector> 
180
(
(2.92355e-11 1.24431e-08 -0.0010001)
(1.04518e-10 1.69446e-08 -0.0010001)
(2.70424e-10 2.42421e-08 -0.0010001)
(4.65359e-10 3.30143e-08 -0.0010001)
(6.74167e-10 4.26069e-08 -0.00100011)
(9.04613e-10 5.28106e-08 -0.00100011)
(1.16949e-09 6.36276e-08 -0.00100012)
(1.47955e-09 7.51417e-08 -0.00100013)
(1.8448e-09 8.74679e-08 -0.00100014)
(2.2755e-09 1.00737e-07 -0.00100015)
(2.78284e-09 1.1509e-07 -0.00100016)
(3.37931e-09 1.30682e-07 -0.00100017)
(4.07902e-09 1.47679e-07 -0.00100019)
(4.89803e-09 1.66266e-07 -0.0010002)
(5.85473e-09 1.86641e-07 -0.00100022)
(6.97029e-09 2.09024e-07 -0.00100024)
(8.26919e-09 2.33657e-07 -0.00100027)
(9.77984e-09 2.60806e-07 -0.00100029)
(1.15353e-08 2.90765e-07 -0.00100032)
(1.35739e-08 3.23862e-07 -0.00100036)
(1.59406e-08 3.60456e-07 -0.00100039)
(1.86877e-08 4.0095e-07 -0.00100044)
(2.18761e-08 4.45787e-07 -0.00100048)
(2.55768e-08 4.95463e-07 -0.00100053)
(2.98725e-08 5.50528e-07 -0.00100059)
(3.48593e-08 6.11593e-07 -0.00100065)
(4.06488e-08 6.79341e-07 -0.00100072)
(4.73707e-08 7.54531e-07 -0.0010008)
(5.51751e-08 8.38008e-07 -0.00100089)
(6.42363e-08 9.30715e-07 -0.00100099)
(7.47561e-08 1.0337e-06 -0.00100109)
(8.69684e-08 1.14814e-06 -0.00100121)
(1.01144e-07 1.27535e-06 -0.00100135)
(1.17595e-07 1.41677e-06 -0.0010015)
(1.36685e-07 1.57405e-06 -0.00100166)
(1.58832e-07 1.749e-06 -0.00100185)
(1.84521e-07 1.94367e-06 -0.00100206)
(2.14312e-07 2.16033e-06 -0.00100229)
(2.48855e-07 2.40153e-06 -0.00100255)
(2.88896e-07 2.67013e-06 -0.00100283)
(3.35304e-07 2.9693e-06 -0.00100316)
(3.89081e-07 3.30264e-06 -0.00100352)
(4.51383e-07 3.67416e-06 -0.00100392)
(5.23552e-07 4.08835e-06 -0.00100437)
(6.07133e-07 4.55026e-06 -0.00100487)
(7.03916e-07 5.06555e-06 -0.00100543)
(8.15967e-07 5.64058e-06 -0.00100606)
(9.45672e-07 6.28251e-06 -0.00100676)
(1.09579e-06 6.99938e-06 -0.00100755)
(1.2695e-06 7.80022e-06 -0.00100843)
(1.47047e-06 8.69521e-06 -0.00100942)
(1.70296e-06 9.69581e-06 -0.00101053)
(1.97184e-06 1.08149e-05 -0.00101178)
(2.28276e-06 1.20671e-05 -0.00101317)
(2.64224e-06 1.34688e-05 -0.00101474)
(3.05778e-06 1.50386e-05 -0.00101651)
(3.53802e-06 1.67972e-05 -0.00101849)
(4.09295e-06 1.87685e-05 -0.00102072)
(4.73404e-06 2.09791e-05 -0.00102324)
(5.47452e-06 2.34593e-05 -0.00102607)
(6.3296e-06 2.62433e-05 -0.00102926)
(7.31679e-06 2.93699e-05 -0.00103285)
(8.45618e-06 3.2883e-05 -0.00103691)
(9.77086e-06 3.68324e-05 -0.00104148)
(1.12873e-05 4.12748e-05 -0.00104665)
(1.30359e-05 4.62743e-05 -0.0010525)
(1.5052e-05 5.1904e-05 -0.0010591)
(1.73774e-05 5.82466e-05 -0.00106657)
(2.00608e-05 6.53966e-05 -0.00107503)
(2.31587e-05 7.34614e-05 -0.00108461)
(2.67364e-05 8.25628e-05 -0.00109548)
(3.08694e-05 9.28369e-05 -0.00110781)
(3.56424e-05 0.000104426 -0.00112174)
(4.11392e-05 0.000117434 -0.00113739)
(4.73949e-05 0.000131777 -0.00115535)
(5.42425e-05 0.000146745 -0.00117793)
(6.09204e-05 0.000159987 -0.00120735)
(6.52205e-05 0.000165681 -0.00122495)
(6.29022e-05 0.000153371 -0.00118116)
(4.71434e-05 0.000110765 -0.000969734)
(4.2564e-06 2.52748e-05 -0.00375939)
(-7.05355e-06 8.30494e-06 1.74254e-05)
(-0.000384272 0.000127315 -0.00441056)
(-5.85786e-05 7.48579e-06 -0.000521669)
(-0.000448546 -0.00023061 -0.00457249)
(-8.6659e-05 -3.68366e-05 -0.000334226)
(-0.000690713 -0.000464488 -0.00487058)
(-0.000328622 -0.000242334 -0.00450108)
(-1.26485e-05 -4.17222e-05 -0.00108)
(0.000188185 0.000313326 -0.00499754)
(0.00018679 -5.26602e-06 -0.0014105)
(0.000642903 -0.00050361 -0.00436482)
(3.18516e-05 -7.54808e-05 -4.69248e-05)
(0.000419108 -0.000259128 -0.00510868)
(4.05076e-05 -0.000236764 -0.00268118)
(1.12793e-05 -0.000121039 -0.002356)
(0.00019882 -0.000115564 -0.00358448)
(0.000155544 -0.000127478 -0.00252515)
(4.23275e-05 -2.71133e-05 -0.00232379)
(-0.000183577 -7.01768e-05 -0.00373344)
(-7.75168e-05 -0.000119972 -0.00170277)
(-8.34797e-05 -0.000117052 -0.00333546)
(-0.000109964 -0.000148841 -0.00265467)
(-1.46756e-05 -4.47703e-05 -0.00106883)
(8.96875e-06 -7.94985e-06 -0.00179012)
(-3.19062e-05 -4.76566e-05 -0.00101801)
(-5.15122e-05 -6.46595e-05 -0.00103658)
(-5.33294e-05 -6.52887e-05 -0.00105921)
(-4.80282e-05 -5.93432e-05 -0.00105627)
(-4.13349e-05 -5.18211e-05 -0.00104552)
(-3.50447e-05 -4.45144e-05 -0.00103664)
(-2.95392e-05 -3.79632e-05 -0.00102993)
(-2.48224e-05 -3.22675e-05 -0.00102447)
(-2.08104e-05 -2.73754e-05 -0.00101986)
(-1.74064e-05 -2.3192e-05 -0.001016)
(-1.4522e-05 -1.96204e-05 -0.00101278)
(-1.20807e-05 -1.65738e-05 -0.0010101)
(-1.0017e-05 -1.39773e-05 -0.00100788)
(-8.27505e-06 -1.17661e-05 -0.00100605)
(-6.80692e-06 -9.8847e-06 -0.00100454)
(-5.57172e-06 -8.28553e-06 -0.0010033)
(-4.53448e-06 -6.92769e-06 -0.00100229)
(-3.66533e-06 -5.77609e-06 -0.00100148)
(-2.93877e-06 -4.80067e-06 -0.00100082)
(-2.33304e-06 -3.97563e-06 -0.0010003)
(-1.82956e-06 -3.27887e-06 -0.000999886)
(-1.41252e-06 -2.69145e-06 -0.000999566)
(-1.06842e-06 -2.19716e-06 -0.000999322)
(-7.85799e-07 -1.7821e-06 -0.00099914)
(-5.54861e-07 -1.43438e-06 -0.00099901)
(-3.67304e-07 -1.14384e-06 -0.000998921)
(-2.16076e-07 -9.01764e-07 -0.000998866)
(-9.52029e-08 -7.00751e-07 -0.000998838)
(3.66957e-10 -5.34465e-07 -0.000998831)
(7.48959e-08 -3.97513e-07 -0.00099884)
(1.31943e-07 -2.85321e-07 -0.000998862)
(1.74556e-07 -1.93972e-07 -0.000998894)
(2.05364e-07 -1.20098e-07 -0.000998934)
(2.26621e-07 -6.08209e-08 -0.00099898)
(2.40235e-07 -1.36973e-08 -0.000999031)
(2.47869e-07 2.34098e-08 -0.000999084)
(2.5076e-07 5.22557e-08 -0.000999138)
(2.49837e-07 7.42799e-08 -0.000999192)
(2.45975e-07 9.07662e-08 -0.000999245)
(2.39877e-07 1.02715e-07 -0.000999296)
(2.32078e-07 1.10929e-07 -0.000999345)
(2.23015e-07 1.16068e-07 -0.000999391)
(2.13065e-07 1.18705e-07 -0.000999435)
(2.0254e-07 1.19334e-07 -0.000999476)
(1.917e-07 1.1837e-07 -0.000999516)
(1.80752e-07 1.16164e-07 -0.000999553)
(1.69862e-07 1.13006e-07 -0.000999587)
(1.59159e-07 1.0914e-07 -0.00099962)
(1.48744e-07 1.04764e-07 -0.00099965)
(1.38691e-07 1.00043e-07 -0.000999679)
(1.29056e-07 9.51126e-08 -0.000999705)
(1.19877e-07 9.00811e-08 -0.00099973)
(1.11179e-07 8.50368e-08 -0.000999753)
(1.02976e-07 8.00499e-08 -0.000999774)
(9.5273e-08 7.51759e-08 -0.000999794)
(8.8069e-08 7.04576e-08 -0.000999813)
(8.13573e-08 6.59279e-08 -0.00099983)
(7.51268e-08 6.1611e-08 -0.000999845)
(6.9364e-08 5.75241e-08 -0.00099986)
(6.40527e-08 5.36786e-08 -0.000999873)
(5.91754e-08 5.00811e-08 -0.000999886)
(5.47136e-08 4.67345e-08 -0.000999897)
(5.06485e-08 4.36384e-08 -0.000999908)
(4.6961e-08 4.07902e-08 -0.000999918)
(4.36323e-08 3.81853e-08 -0.000999927)
(4.06441e-08 3.58179e-08 -0.000999935)
(3.79791e-08 3.36811e-08 -0.000999943)
(3.56205e-08 3.17674e-08 -0.00099995)
(3.35529e-08 3.00688e-08 -0.000999957)
(3.17615e-08 2.8577e-08 -0.000999963)
(3.02326e-08 2.72828e-08 -0.000999969)
(2.89535e-08 2.61769e-08 -0.000999974)
(2.79342e-08 2.52732e-08 -0.000999979)
(2.71301e-08 2.45391e-08 -0.000999985)
(2.68101e-08 2.42676e-08 -0.000999989)
)
;
    }
    procBoundary2to3
    {
        type            processor;
        value           nonuniform List<vector> 
180
(
(-6.72246e-10 1.17416e-08 -0.000999923)
(-8.17765e-10 1.60223e-08 -0.000999921)
(-1.08741e-09 2.28842e-08 -0.00099992)
(-1.45409e-09 3.10947e-08 -0.000999917)
(-1.8949e-09 4.00377e-08 -0.000999914)
(-2.39752e-09 4.95084e-08 -0.00099991)
(-2.96305e-09 5.9495e-08 -0.000999905)
(-3.59955e-09 7.00624e-08 -0.000999898)
(-4.31909e-09 8.13038e-08 -0.000999891)
(-5.1361e-09 9.33248e-08 -0.000999883)
(-6.06692e-09 1.0624e-07 -0.000999874)
(-7.12991e-09 1.20172e-07 -0.000999863)
(-8.34575e-09 1.35254e-07 -0.000999851)
(-9.73787e-09 1.51629e-07 -0.000999837)
(-1.13329e-08 1.69453e-07 -0.000999822)
(-1.31611e-08 1.88892e-07 -0.000999805)
(-1.52574e-08 2.10129e-07 -0.000999787)
(-1.76617e-08 2.33363e-07 -0.000999766)
(-2.04198e-08 2.58809e-07 -0.000999743)
(-2.35846e-08 2.86702e-07 -0.000999717)
(-2.72172e-08 3.17297e-07 -0.000999689)
(-3.13879e-08 3.50872e-07 -0.000999658)
(-3.61781e-08 3.8773e-07 -0.000999624)
(-4.16814e-08 4.28201e-07 -0.000999586)
(-4.80064e-08 4.72645e-07 -0.000999544)
(-5.52782e-08 5.21451e-07 -0.000999499)
(-6.36411e-08 5.75046e-07 -0.000999449)
(-7.32618e-08 6.33892e-07 -0.000999395)
(-8.43325e-08 6.98492e-07 -0.000999335)
(-9.70747e-08 7.69393e-07 -0.000999269)
(-1.11744e-07 8.47189e-07 -0.000999198)
(-1.28634e-07 9.32524e-07 -0.00099912)
(-1.48086e-07 1.0261e-06 -0.000999035)
(-1.70488e-07 1.12866e-06 -0.000998942)
(-1.96292e-07 1.24104e-06 -0.000998841)
(-2.26017e-07 1.36412e-06 -0.000998732)
(-2.6026e-07 1.49885e-06 -0.000998612)
(-2.99709e-07 1.64625e-06 -0.000998483)
(-3.45157e-07 1.80745e-06 -0.000998342)
(-3.97518e-07 1.98362e-06 -0.00099819)
(-4.57845e-07 2.17604e-06 -0.000998026)
(-5.27352e-07 2.38608e-06 -0.000997848)
(-6.07435e-07 2.61518e-06 -0.000997656)
(-6.99706e-07 2.86489e-06 -0.000997449)
(-8.06021e-07 3.13685e-06 -0.000997227)
(-9.28518e-07 3.4328e-06 -0.000996988)
(-1.06966e-06 3.75457e-06 -0.000996733)
(-1.23229e-06 4.10408e-06 -0.000996459)
(-1.41967e-06 4.48334e-06 -0.000996167)
(-1.63556e-06 4.89444e-06 -0.000995857)
(-1.8843e-06 5.33954e-06 -0.000995527)
(-2.17089e-06 5.82087e-06 -0.000995178)
(-2.50106e-06 6.34068e-06 -0.000994811)
(-2.88143e-06 6.90127e-06 -0.000994425)
(-3.31962e-06 7.50491e-06 -0.000994022)
(-3.82437e-06 8.15386e-06 -0.000993603)
(-4.40578e-06 8.85029e-06 -0.000993169)
(-5.07544e-06 9.59625e-06 -0.000992724)
(-5.84668e-06 1.03936e-05 -0.000992271)
(-6.73483e-06 1.12441e-05 -0.000991813)
(-7.75751e-06 1.21489e-05 -0.000991356)
(-8.93497e-06 1.31091e-05 -0.000990906)
(-1.02904e-05 1.41253e-05 -0.00099047)
(-1.18505e-05 1.51974e-05 -0.000990055)
(-1.36458e-05 1.6325e-05 -0.000989672)
(-1.57113e-05 1.75064e-05 -0.000989338)
(-1.80877e-05 1.87387e-05 -0.000989084)
(-2.08231e-05 2.00147e-05 -0.000988951)
(-2.3973e-05 2.13241e-05 -0.000988978)
(-2.76019e-05 2.26531e-05 -0.000989211)
(-3.17843e-05 2.39834e-05 -0.000989708)
(-3.66048e-05 2.52911e-05 -0.000990527)
(-4.21537e-05 2.65439e-05 -0.000991695)
(-4.85062e-05 2.76925e-05 -0.000993264)
(-5.56488e-05 2.86437e-05 -0.000995829)
(-6.32719e-05 2.91921e-05 -0.00100124)
(-7.01249e-05 2.8912e-05 -0.00100887)
(-7.37068e-05 2.70447e-05 -0.000999793)
(-6.84812e-05 2.26327e-05 -0.000937015)
(-4.84847e-05 1.5856e-05 -0.000909946)
(-1.81829e-05 -3.28981e-06 -0.00283528)
(3.84306e-05 -2.75257e-06 -5.21471e-05)
(5.10485e-05 0.000510699 -0.00373784)
(2.93259e-05 1.71854e-05 -0.000186626)
(-0.000101953 -6.41027e-05 -0.00397902)
(-2.55364e-06 4.4541e-05 -0.00416557)
(2.62255e-05 1.4935e-05 -0.00046122)
(-0.000346104 -0.000224367 -0.00385045)
(-0.000419397 -0.000166098 -0.00390855)
(-3.2525e-05 -7.46223e-05 -0.000256607)
(-0.000256967 -0.000690858 -0.00311853)
(0.000194746 -0.000335949 -0.00404885)
(-6.67924e-07 -6.55798e-05 -0.000427199)
(-0.0002489 -0.000758164 -0.00486793)
(-0.000180585 -0.000872986 -0.00365594)
(-1.86349e-05 -4.51575e-05 -0.000194309)
(-0.00026633 -0.00103281 -0.00541669)
(1.50179e-05 -3.71004e-05 -0.000155655)
(-0.000400884 -0.000457288 -0.00524506)
(-0.000111024 -6.08064e-05 -0.00144213)