FoamFile
{version 2.0; format ascii;class Cloud<passiveParticle>; location 0;object  positions;}
41
(
( -67.7796 -326.828 99.8328 ) 0 
( -236.782 -433.414 99.7928 ) 0 
( -138.477 -139.876 99.8348 ) 0 
( -485.706 -332.773 99.786 ) 0 
( -342.48 -138.194 99.858 ) 0 
( -436.551 -45.7602 284.449 ) 0 
( -241.563 -268.628 212.759 ) 0 
( -414.951 -404.829 272.189 ) 0 
( -106.347 -224.841 353.33 ) 0 
( -239.732 -61.5566 253.262 ) 0 
( -135.512 -423.549 281.599 ) 0 
( -452.36 -229.703 361.111 ) 0 
( -304.008 -117.396 434.089 ) 0 
( -67.7017 -174.211 542.819 ) 0 
( -29.0302 -385.094 446.728 ) 0 
( -135.124 -11.4647 448.137 ) 0 
( -489.073 -413.846 457.579 ) 0 
( -281.226 -327.982 399.379 ) 0 
( -391.101 -255.287 549.684 ) 0 
( -178.826 -338.534 570.725 ) 0 
( -244.701 -129.973 624.585 ) 0 
( -146.494 -279.155 758.854 ) 0 
( -27.8141 -452.502 635.449 ) 0 
( -57.4635 -101.908 733.67 ) 0 
( -336.905 -396.089 680.79 ) 0 
( -462.907 -280.088 784.369 ) 0 
( -439.76 -111.397 679.645 ) 0 
( -299.692 -163.109 813.909 ) 0 
( -450.152 -42.6993 867.145 ) 0 
( -175.828 -476.735 767.61 ) 0 
( -174.728 -234.472 955.901 ) 0 
( -305.209 -362.706 875.341 ) 0 
( -378.874 -216.084 989.668 ) 0 
( -121.782 -42.4683 973.294 ) 0 
( -254.684 -498.785 1012.85 ) 0 
( -71.7078 -421.824 929.219 ) 0 
( -364.707 -34.4767 1072.18 ) 0 
( -142.588 -362.144 1106.43 ) 0 
( -72.4383 -38.3755 1167.04 ) 0 
( -246.038 -182.52 1135.34 ) 0 
( -395.557 -384.218 1096.63 ) 0 
)
