/*--------------------------------*- C++ -*----------------------------------*\
| =========                 |                                                 |
| \\      /  F ield         | OpenFOAM: The Open Source CFD Toolbox           |
|  \\    /   O peration     | Version:  5.x                                   |
|   \\  /    A nd           | Web:      www.OpenFOAM.org                      |
|    \\/     M anipulation  |                                                 |
\*---------------------------------------------------------------------------*/
FoamFile
{
    version     2.0;
    format      ascii;
    class       volScalarField;
    location    "10000";
    object      p;
}
// * * * * * * * * * * * * * * * * * * * * * * * * * * * * * * * * * * * * * //

dimensions      [0 2 -2 0 0 0 0];

internalField   nonuniform List<scalar> 
2250
(
4.29042e-10
4.1178e-10
4.31356e-10
4.70713e-10
5.30616e-10
4.0748e-10
3.99824e-10
4.21125e-10
4.67254e-10
5.26749e-10
4.15839e-10
4.09451e-10
4.33055e-10
4.72483e-10
5.23701e-10
4.31847e-10
4.25229e-10
4.4005e-10
4.71675e-10
5.3276e-10
4.28878e-10
4.15289e-10
4.17651e-10
4.68068e-10
6.05744e-10
1.31954e-09
1.28405e-09
1.34434e-09
1.45258e-09
1.59796e-09
1.27307e-09
1.26243e-09
1.33301e-09
1.44845e-09
1.58535e-09
1.30801e-09
1.30664e-09
1.3759e-09
1.46456e-09
1.57759e-09
1.36627e-09
1.36571e-09
1.40898e-09
1.49012e-09
1.6167e-09
1.4079e-09
1.40296e-09
1.42367e-09
1.53671e-09
1.75945e-09
2.33221e-09
2.30217e-09
2.39492e-09
2.54066e-09
2.72226e-09
2.28511e-09
2.28885e-09
2.39131e-09
2.53458e-09
2.70257e-09
2.35029e-09
2.36474e-09
2.4508e-09
2.55176e-09
2.68713e-09
2.45257e-09
2.46844e-09
2.52158e-09
2.61936e-09
2.75705e-09
2.58979e-09
2.61573e-09
2.65798e-09
2.77829e-09
2.94796e-09
3.56773e-09
3.55236e-09
3.65451e-09
3.80157e-09
3.98797e-09
3.52574e-09
3.54283e-09
3.64134e-09
3.77733e-09
3.94778e-09
3.58502e-09
3.59771e-09
3.66966e-09
3.76254e-09
3.90141e-09
3.66912e-09
3.67819e-09
3.7265e-09
3.81716e-09
3.95069e-09
3.80425e-09
3.83533e-09
3.89295e-09
3.99308e-09
4.16634e-09
5.06784e-09
5.06185e-09
5.1494e-09
5.27988e-09
5.46108e-09
5.01174e-09
5.02193e-09
5.0961e-09
5.22423e-09
5.41263e-09
4.99442e-09
4.98304e-09
5.04486e-09
5.15919e-09
5.33748e-09
4.95119e-09
4.93859e-09
5.00666e-09
5.12446e-09
5.29145e-09
4.90004e-09
4.93196e-09
5.02492e-09
5.1407e-09
5.35206e-09
6.833e-09
6.82615e-09
6.89043e-09
7.00393e-09
7.18943e-09
6.73611e-09
6.73278e-09
6.79061e-09
6.92865e-09
7.16449e-09
6.59839e-09
6.57597e-09
6.65261e-09
6.81645e-09
7.07123e-09
6.37977e-09
6.37227e-09
6.47909e-09
6.64708e-09
6.86627e-09
6.09404e-09
6.15053e-09
6.27254e-09
6.41238e-09
6.60309e-09
8.85706e-09
8.84699e-09
8.89209e-09
8.98525e-09
9.16149e-09
8.71703e-09
8.71638e-09
8.76655e-09
8.9018e-09
9.14432e-09
8.48396e-09
8.48059e-09
8.56313e-09
8.73291e-09
8.99778e-09
8.14917e-09
8.17207e-09
8.26922e-09
8.41957e-09
8.62273e-09
7.77533e-09
7.83577e-09
7.89516e-09
7.97541e-09
8.07365e-09
1.11317e-08
1.11271e-08
1.11474e-08
1.11933e-08
1.12932e-08
1.09726e-08
1.09843e-08
1.10069e-08
1.10821e-08
1.12251e-08
1.06877e-08
1.07033e-08
1.07374e-08
1.08166e-08
1.09601e-08
1.03038e-08
1.03291e-08
1.03296e-08
1.03601e-08
1.04535e-08
9.94743e-09
9.92838e-09
9.83621e-09
9.78617e-09
9.82604e-09
1.36432e-08
1.364e-08
1.36147e-08
1.35852e-08
1.35778e-08
1.34683e-08
1.34727e-08
1.34371e-08
1.34092e-08
1.34107e-08
1.31162e-08
1.31107e-08
1.3052e-08
1.2993e-08
1.29687e-08
1.26384e-08
1.26063e-08
1.24872e-08
1.23828e-08
1.23564e-08
1.2158e-08
1.20349e-08
1.18449e-08
1.17168e-08
1.17542e-08
1.63688e-08
1.63485e-08
1.62615e-08
1.61543e-08
1.6083e-08
1.61419e-08
1.61096e-08
1.60036e-08
1.58763e-08
1.57686e-08
1.5646e-08
1.55818e-08
1.5437e-08
1.52722e-08
1.51297e-08
1.49503e-08
1.48456e-08
1.46709e-08
1.4501e-08
1.4411e-08
1.41361e-08
1.40046e-08
1.38431e-08
1.37272e-08
1.37957e-08
1.93234e-08
1.92667e-08
1.91045e-08
1.89097e-08
1.87526e-08
1.89958e-08
1.8906e-08
1.8726e-08
1.8501e-08
1.82766e-08
1.82835e-08
1.81572e-08
1.79554e-08
1.77274e-08
1.75109e-08
1.73057e-08
1.717e-08
1.6996e-08
1.68125e-08
1.67022e-08
1.6151e-08
1.6087e-08
1.59817e-08
1.58972e-08
1.59972e-08
2.25995e-08
2.24854e-08
2.22254e-08
2.19038e-08
2.15549e-08
2.21359e-08
2.19786e-08
2.1716e-08
2.13761e-08
2.10012e-08
2.11889e-08
2.10218e-08
2.07735e-08
2.04884e-08
2.02039e-08
1.99595e-08
1.98225e-08
1.96335e-08
1.94244e-08
1.92796e-08
1.85731e-08
1.85223e-08
1.83935e-08
1.82819e-08
1.83557e-08
2.63628e-08
2.61752e-08
2.58043e-08
2.53327e-08
2.47675e-08
2.57494e-08
2.55315e-08
2.51845e-08
2.47297e-08
2.42227e-08
2.45819e-08
2.43906e-08
2.40844e-08
2.37252e-08
2.33603e-08
2.31032e-08
2.29435e-08
2.26919e-08
2.24165e-08
2.21734e-08
2.14359e-08
2.12991e-08
2.10857e-08
2.08896e-08
2.08378e-08
3.08433e-08
3.05846e-08
3.01071e-08
2.9492e-08
2.87667e-08
3.00765e-08
2.98122e-08
2.93777e-08
2.88123e-08
2.81881e-08
2.8661e-08
2.84367e-08
2.80491e-08
2.75799e-08
2.70769e-08
2.68057e-08
2.65883e-08
2.62533e-08
2.58629e-08
2.54183e-08
2.46103e-08
2.43866e-08
2.41125e-08
2.38043e-08
2.35167e-08
3.63259e-08
3.60006e-08
3.54007e-08
3.46139e-08
3.36906e-08
3.53773e-08
3.50585e-08
3.45028e-08
3.37677e-08
3.29126e-08
3.3599e-08
3.33115e-08
3.27995e-08
3.21265e-08
3.13183e-08
3.11556e-08
3.08723e-08
3.04276e-08
2.98131e-08
2.90113e-08
2.81915e-08
2.79568e-08
2.76045e-08
2.70735e-08
2.64199e-08
4.31305e-08
4.2713e-08
4.19263e-08
4.08613e-08
3.95611e-08
4.19178e-08
4.15052e-08
4.07528e-08
3.97081e-08
3.84119e-08
3.9594e-08
3.92034e-08
3.84798e-08
3.7445e-08
3.61297e-08
3.6347e-08
3.59747e-08
3.5304e-08
3.42864e-08
3.29794e-08
3.24488e-08
3.21497e-08
3.15279e-08
3.05613e-08
2.94292e-08
5.16268e-08
5.10594e-08
4.99832e-08
4.84897e-08
4.66528e-08
5.00189e-08
4.94548e-08
4.83976e-08
4.68888e-08
4.50232e-08
4.69257e-08
4.63719e-08
4.53058e-08
4.37569e-08
4.18264e-08
4.26196e-08
4.20645e-08
4.09873e-08
3.94039e-08
3.74786e-08
3.75003e-08
3.69383e-08
3.58122e-08
3.42242e-08
3.24705e-08
6.23189e-08
6.15223e-08
6.00239e-08
5.79366e-08
5.54415e-08
6.01479e-08
5.93556e-08
5.78571e-08
5.57336e-08
5.31663e-08
5.60059e-08
5.52035e-08
5.3647e-08
5.14342e-08
4.8742e-08
5.02714e-08
4.94235e-08
4.77784e-08
4.54735e-08
4.27304e-08
4.34688e-08
4.25257e-08
4.07431e-08
3.83619e-08
3.57201e-08
7.59582e-08
7.48311e-08
7.27331e-08
6.98158e-08
6.63303e-08
7.30165e-08
7.18961e-08
6.97753e-08
6.67939e-08
6.31831e-08
6.7459e-08
6.63115e-08
6.40852e-08
6.09631e-08
5.71876e-08
5.97917e-08
5.85697e-08
5.61805e-08
5.28965e-08
4.89941e-08
5.0744e-08
4.93621e-08
4.67533e-08
4.33052e-08
3.93643e-08
9.36482e-08
9.20733e-08
8.91411e-08
8.50498e-08
8.01047e-08
8.96767e-08
8.81103e-08
8.51235e-08
8.09323e-08
7.58736e-08
8.22002e-08
8.05858e-08
7.74431e-08
7.30597e-08
6.78021e-08
7.18831e-08
7.01612e-08
6.67823e-08
6.21449e-08
5.66334e-08
5.97073e-08
5.7762e-08
5.40993e-08
4.91896e-08
4.33908e-08
1.16928e-07
1.14775e-07
1.10716e-07
1.05046e-07
9.82676e-08
1.11584e-07
1.09424e-07
1.05264e-07
9.94537e-08
9.25166e-08
1.01473e-07
9.92162e-08
9.48394e-08
8.87531e-08
8.15051e-08
8.74681e-08
8.50521e-08
8.03747e-08
7.39159e-08
6.62361e-08
7.08446e-08
6.8204e-08
6.32075e-08
5.63472e-08
4.81249e-08
1.4783e-07
1.44928e-07
1.39383e-07
1.31651e-07
1.22491e-07
1.40632e-07
1.37679e-07
1.31966e-07
1.24014e-07
1.14543e-07
1.26917e-07
1.23796e-07
1.17786e-07
1.09424e-07
9.94715e-08
1.0788e-07
1.04546e-07
9.81554e-08
8.92716e-08
7.87122e-08
8.52676e-08
8.17296e-08
7.49513e-08
6.54826e-08
5.42018e-08
1.88957e-07
1.85075e-07
1.77609e-07
1.67207e-07
1.54863e-07
1.79258e-07
1.75261e-07
1.67542e-07
1.56809e-07
1.44043e-07
1.60714e-07
1.56469e-07
1.48334e-07
1.37005e-07
1.23528e-07
1.34988e-07
1.30453e-07
1.21777e-07
1.09681e-07
9.53116e-08
1.04518e-07
9.97016e-08
9.0442e-08
7.74122e-08
6.19763e-08
2.43691e-07
2.38556e-07
2.2868e-07
2.1493e-07
1.98617e-07
2.30671e-07
2.25348e-07
2.15115e-07
2.00896e-07
1.84042e-07
2.05765e-07
2.00088e-07
1.8924e-07
1.74134e-07
1.56224e-07
1.71233e-07
1.65119e-07
1.53424e-07
1.37128e-07
1.17786e-07
1.30353e-07
1.23764e-07
1.1109e-07
9.33033e-08
7.22273e-08
3.16482e-07
3.09808e-07
2.96994e-07
2.79141e-07
2.57945e-07
2.99124e-07
2.9217e-07
2.78831e-07
2.60272e-07
2.38267e-07
2.65926e-07
2.5845e-07
2.44153e-07
2.24254e-07
2.00691e-07
2.1985e-07
2.11693e-07
1.96063e-07
1.74323e-07
1.48508e-07
1.65198e-07
1.56243e-07
1.39009e-07
1.15031e-07
8.65591e-08
4.13123e-07
4.04625e-07
3.88299e-07
3.65468e-07
3.38202e-07
3.90181e-07
3.81259e-07
3.64116e-07
3.40204e-07
3.11716e-07
3.46279e-07
3.36564e-07
3.17933e-07
2.91978e-07
2.61092e-07
2.85182e-07
2.74408e-07
2.5372e-07
2.24917e-07
1.90528e-07
2.12417e-07
2.00357e-07
1.77213e-07
1.45056e-07
1.06615e-07
5.40997e-07
5.30426e-07
5.1004e-07
4.81389e-07
4.46905e-07
5.10976e-07
4.99749e-07
4.78109e-07
4.47804e-07
4.11406e-07
4.53411e-07
4.40963e-07
4.1702e-07
3.83489e-07
3.43184e-07
3.72951e-07
3.58848e-07
3.31736e-07
2.93738e-07
2.47981e-07
2.76491e-07
2.60458e-07
2.29672e-07
1.86465e-07
1.34504e-07
7.09278e-07
6.96544e-07
6.71825e-07
6.3677e-07
5.94042e-07
6.70463e-07
6.5671e-07
6.30057e-07
5.92354e-07
5.46426e-07
5.95761e-07
5.80094e-07
5.49804e-07
5.06955e-07
4.54828e-07
4.90717e-07
4.72465e-07
4.37236e-07
3.87418e-07
3.26995e-07
3.63814e-07
3.42673e-07
3.01749e-07
2.43841e-07
1.7397e-07
9.28996e-07
9.14411e-07
8.85756e-07
8.44304e-07
7.92533e-07
8.79589e-07
8.63392e-07
8.31656e-07
7.85914e-07
7.29048e-07
7.84001e-07
7.64773e-07
7.27255e-07
6.73462e-07
6.07113e-07
6.48531e-07
6.2527e-07
5.80009e-07
5.15446e-07
4.36436e-07
4.83362e-07
4.55551e-07
4.01366e-07
3.24412e-07
2.30795e-07
1.21272e-06
1.19743e-06
1.16663e-06
1.12032e-06
1.06014e-06
1.15119e-06
1.13331e-06
1.09756e-06
1.04442e-06
9.7629e-07
1.03133e-06
1.00864e-06
9.63711e-07
8.97963e-07
8.15022e-07
8.59489e-07
8.30497e-07
7.73446e-07
6.90942e-07
5.88295e-07
6.46978e-07
6.10895e-07
5.40111e-07
4.38528e-07
3.13176e-07
1.57349e-06
1.56024e-06
1.53202e-06
1.48562e-06
1.42055e-06
1.4993e-06
1.48187e-06
1.44564e-06
1.38836e-06
1.31055e-06
1.35351e-06
1.32838e-06
1.27741e-06
1.20004e-06
1.09879e-06
1.14043e-06
1.10548e-06
1.03557e-06
9.31904e-07
7.99795e-07
8.70864e-07
8.25199e-07
7.34343e-07
6.01208e-07
4.33942e-07
2.02235e-06
2.01675e-06
2.0017e-06
1.96602e-06
1.90475e-06
1.93712e-06
1.92487e-06
1.89659e-06
1.84344e-06
1.76184e-06
1.76849e-06
1.74356e-06
1.69105e-06
1.60544e-06
1.48659e-06
1.51306e-06
1.47298e-06
1.39079e-06
1.26375e-06
1.09659e-06
1.17755e-06
1.12157e-06
1.00785e-06
8.35674e-07
6.14361e-07
2.56342e-06
2.57549e-06
2.59633e-06
2.59301e-06
2.55568e-06
2.47205e-06
2.47428e-06
2.4726e-06
2.44173e-06
2.37131e-06
2.29557e-06
2.27582e-06
2.2322e-06
2.14743e-06
2.01681e-06
2.00589e-06
1.96319e-06
1.873e-06
1.7221e-06
1.51627e-06
1.59676e-06
1.53186e-06
1.39548e-06
1.17662e-06
8.88452e-07
3.18607e-06
3.22929e-06
3.33617e-06
3.4028e-06
3.43747e-06
3.09321e-06
3.12749e-06
3.19378e-06
3.22152e-06
3.19865e-06
2.95567e-06
2.94638e-06
2.9325e-06
2.86639e-06
2.74278e-06
2.6597e-06
2.61838e-06
2.53241e-06
2.35583e-06
2.11698e-06
2.1628e-06
2.09545e-06
1.9456e-06
1.67208e-06
1.31215e-06
3.86021e-06
3.93071e-06
4.24756e-06
4.42358e-06
4.6686e-06
3.73372e-06
3.83605e-06
4.06975e-06
4.22422e-06
4.34552e-06
3.78081e-06
3.77008e-06
3.82183e-06
3.80107e-06
3.74007e-06
3.5491e-06
3.50878e-06
3.46096e-06
3.22712e-06
3.00203e-06
2.88922e-06
2.83677e-06
2.71021e-06
2.36871e-06
1.9828e-06
4.57183e-06
4.517e-06
5.42363e-06
5.58937e-06
6.55314e-06
4.16222e-06
4.42122e-06
5.08435e-06
5.48359e-06
6.03857e-06
4.85311e-06
4.72763e-06
4.89024e-06
4.94389e-06
5.1077e-06
4.8677e-06
4.7938e-06
4.92521e-06
4.38426e-06
4.41385e-06
3.64271e-06
3.64626e-06
3.65974e-06
3.20007e-06
3.09849e-06
5.40841e-06
4.42196e-06
7.35718e-06
6.27927e-06
9.92314e-06
3.88391e-06
4.44015e-06
6.18653e-06
7.02705e-06
8.84654e-06
6.30346e-06
5.57972e-06
5.85235e-06
6.08502e-06
6.85765e-06
7.19163e-06
6.87408e-06
7.9541e-06
5.74659e-06
7.10107e-06
3.84822e-06
3.99903e-06
4.37627e-06
3.60225e-06
5.21357e-06
6.37368e-06
2.43047e-06
1.17194e-05
4.55225e-06
1.63559e-05
2.05552e-06
3.443e-06
7.4794e-06
9.51536e-06
1.38347e-05
8.20854e-06
6.07969e-06
5.76254e-06
6.77218e-06
8.4569e-06
1.20765e-05
1.05737e-05
1.44533e-05
7.84269e-06
1.27646e-05
2.74223e-06
3.51585e-06
3.95282e-06
2.43978e-06
9.66319e-06
3.2724e-05
1.36056e-05
2.51724e-05
3.26396e-06
3.78937e-05
1.32991e-05
1.72297e-05
1.92964e-05
1.92943e-05
2.61961e-05
2.5625e-05
2.46457e-05
1.35485e-05
1.31433e-05
1.28982e-05
2.97589e-05
2.73096e-05
3.09092e-05
1.80611e-05
2.81157e-05
1.32553e-05
1.87703e-05
1.12374e-05
2.95444e-06
2.08487e-05
-6.15189e-05
-5.72018e-05
-2.0835e-05
-4.35956e-05
-3.02413e-05
-6.20971e-05
-6.41426e-05
-5.30389e-05
-3.47042e-05
-1.7189e-05
-4.92016e-05
-6.48533e-05
-5.56776e-05
-4.84769e-05
-3.29689e-05
-3.63375e-05
-4.49852e-05
-1.86933e-05
-3.62043e-05
-1.94095e-05
-5.23962e-05
-5.51884e-05
-4.72256e-05
-3.38282e-05
1.66203e-05
0.000145327
9.06059e-06
6.32237e-05
-5.83206e-05
0.000214956
-6.43475e-05
3.76434e-05
4.44528e-05
8.49247e-05
2.89987e-05
0.000111477
0.000160498
7.9833e-06
4.55051e-05
2.58381e-05
0.000115575
0.000111964
0.000122922
5.55315e-05
0.00016603
-3.8644e-05
8.81224e-05
-5.99736e-05
-1.99233e-05
6.81778e-05
0.00107671
0.00115008
0.000752686
0.000916824
0.000819912
0.00124678
0.00103304
0.00113482
0.000807003
0.00088741
0.00102175
0.000894873
0.000859112
0.000652454
0.00102178
0.000908835
0.000793346
0.000735326
0.000819871
0.000713043
0.000972755
0.000844469
0.000933575
0.000618187
0.000766921
0.00139986
0.0019314
0.00176109
0.00154632
0.00131701
0.00181921
0.00168485
0.00191531
0.00154437
0.00154988
0.00170397
0.00170197
0.00180751
0.00133987
0.00174989
0.00183054
0.00134656
0.00135404
0.00142438
0.00117399
0.00168671
0.00147925
0.00162014
0.00172227
0.00180149
0.00238467
0.00235963
0.00254868
0.0024747
0.00260632
0.00213618
0.00234814
0.00264142
0.00221594
0.00233999
0.00225702
0.0024203
0.00259655
0.00294765
0.00229972
0.00239566
0.00248362
0.00225395
0.00246051
0.00254297
0.00286707
0.00269739
0.00240233
0.00300844
0.00227728
0.00303302
0.00280182
0.00340296
0.00411519
0.00428898
0.0028467
0.00355525
0.00333227
0.00392427
0.00416957
0.00253464
0.00291969
0.0033739
0.00399161
0.00364247
0.00280847
0.00318232
0.00343619
0.00354597
0.00348572
0.00305401
0.00320465
0.00385573
0.00348233
0.00316826
0.00468669
0.00499541
0.00433417
0.00478686
0.00485561
0.00451427
0.00488959
0.00432944
0.00472549
0.00498125
0.00380241
0.00425845
0.0042544
0.00453678
0.00468905
0.00377199
0.00416143
0.00429962
0.00475559
0.00449722
0.00425636
0.00405629
0.00439468
0.0039205
0.00496171
0.00597573
0.00585219
0.00518282
0.00537748
0.00522389
0.00564594
0.00577383
0.00538192
0.00537903
0.00537698
0.00621702
0.00587398
0.00504937
0.00525997
0.00510651
0.00546078
0.00546704
0.00533591
0.0054835
0.00562849
0.00546995
0.0055374
0.00514901
0.00581439
0.00568441
0.00650764
0.00657772
0.00639366
0.00618459
0.00605276
0.00652591
0.00639283
0.00600086
0.00619292
0.00607414
0.00676478
0.00669625
0.00669054
0.00624773
0.00601584
0.00643311
0.00651144
0.00643708
0.00617682
0.00624612
0.00605262
0.00653565
0.00642326
0.00647275
0.00617387
0.00746261
0.00713352
0.00738335
0.00714466
0.00687557
0.00746635
0.0069989
0.00701832
0.00702466
0.00698329
0.00767246
0.00730284
0.00725954
0.00713357
0.00719644
0.00791444
0.00738562
0.00732225
0.00720325
0.00684031
0.00747939
0.00732533
0.00719264
0.00703801
0.0072766
0.00789082
0.00763064
0.00765816
0.00753646
0.00752288
0.00796594
0.00770895
0.00793664
0.00776779
0.00763363
0.00788977
0.00782772
0.00771443
0.00794264
0.00768972
0.0080656
0.00795472
0.00796848
0.00805062
0.00796151
0.00800994
0.00798271
0.00777296
0.00807253
0.00827791
0.00823773
0.00883417
0.00874368
0.00850971
0.00847728
0.00862432
0.008812
0.00894683
0.00871649
0.00860209
0.00828852
0.00866518
0.00861802
0.00873935
0.00843669
0.00845612
0.00864961
0.00849814
0.00865266
0.00862459
0.00896031
0.00869481
0.00848284
0.00863642
0.00862247
0.00904461
0.00909844
0.00910276
0.00908962
0.00909121
0.00907638
0.00907448
0.00907605
0.00905611
0.0090443
0.00911548
0.00910475
0.00907431
0.00903663
0.00905196
0.00904458
0.00906086
0.00901408
0.00900782
0.00898644
0.0091177
0.0090908
0.0090019
0.00894108
0.00896061
0.00903049
0.00902188
0.00901773
0.00898706
0.00902964
0.00902406
0.00903262
0.00902423
0.00900653
0.00901124
0.00902674
0.00902745
0.00904347
0.00900225
0.0090285
0.00902506
0.00902082
0.00904481
0.00903108
0.00904829
0.00904111
0.00904293
0.00905624
0.00904465
0.00904055
0.0090338
0.00902742
0.00902805
0.00901322
0.0090226
0.00902947
0.00902892
0.00902585
0.00901449
0.00901628
0.00903259
0.00902875
0.00903279
0.00901363
0.00902668
0.0090274
0.00902712
0.00902864
0.00901728
0.00902063
0.00903589
0.00903097
0.00903233
0.00901828
0.00902201
0.00902865
0.00902601
0.00902465
0.00901733
0.00901939
0.00902729
0.00902615
0.00902435
0.00901799
0.00901809
0.00902837
0.00902661
0.00902729
0.00901871
0.0090219
0.00902749
0.00902595
0.00902672
0.0090208
0.00902184
0.00903038
0.00902763
0.00902898
0.00902227
0.009023
0.00902605
0.0090247
0.00902307
0.00901942
0.00901863
0.00902565
0.00902474
0.00902325
0.00901987
0.00901878
0.00902614
0.00902526
0.00902445
0.00902072
0.00902031
0.00902619
0.00902524
0.00902497
0.00902192
0.00902118
0.00902729
0.00902618
0.00902627
0.00902315
0.00902255
0.00902452
0.00902373
0.00902246
0.00902046
0.00901903
0.00902447
0.00902382
0.00902268
0.00902079
0.00901939
0.00902481
0.00902422
0.0090233
0.00902145
0.00902024
0.00902509
0.00902458
0.00902392
0.0090223
0.00902117
0.00902571
0.00902515
0.00902477
0.00902324
0.0090223
0.00902362
0.0090231
0.00902222
0.00902098
0.00901974
0.00902367
0.00902323
0.00902241
0.00902123
0.00902004
0.00902394
0.00902354
0.00902282
0.00902171
0.00902062
0.00902427
0.00902393
0.00902333
0.00902234
0.00902137
0.00902474
0.00902441
0.00902395
0.00902307
0.00902224
0.00902306
0.00902273
0.00902212
0.00902129
0.00902037
0.00902316
0.00902285
0.00902227
0.00902148
0.0090206
0.00902338
0.0090231
0.00902258
0.00902184
0.00902102
0.00902368
0.00902344
0.00902298
0.00902232
0.00902158
0.00902406
0.00902384
0.00902346
0.00902287
0.00902224
0.00902274
0.00902251
0.00902209
0.00902152
0.00902086
0.00902283
0.00902261
0.00902221
0.00902166
0.00902103
0.00902301
0.00902281
0.00902244
0.00902193
0.00902134
0.00902326
0.00902309
0.00902275
0.00902229
0.00902175
0.00902357
0.00902342
0.00902312
0.00902271
0.00902224
0.00902254
0.00902239
0.00902209
0.00902169
0.00902123
0.00902262
0.00902247
0.00902218
0.0090218
0.00902135
0.00902276
0.00902262
0.00902236
0.009022
0.00902157
0.00902297
0.00902284
0.0090226
0.00902227
0.00902188
0.00902322
0.0090231
0.00902288
0.00902259
0.00902224
0.00902242
0.00902231
0.00902211
0.00902183
0.0090215
0.00902248
0.00902238
0.00902218
0.0090219
0.00902159
0.0090226
0.0090225
0.00902231
0.00902205
0.00902175
0.00902276
0.00902267
0.0090225
0.00902226
0.00902198
0.00902295
0.00902287
0.00902271
0.00902249
0.00902224
0.00902235
0.00902227
0.00902213
0.00902193
0.0090217
0.0090224
0.00902232
0.00902218
0.00902199
0.00902176
0.00902249
0.00902242
0.00902228
0.0090221
0.00902188
0.00902261
0.00902255
0.00902242
0.00902225
0.00902205
0.00902276
0.0090227
0.00902259
0.00902243
0.00902224
0.00902231
0.00902225
0.00902215
0.00902201
0.00902184
0.00902234
0.00902229
0.00902219
0.00902205
0.00902189
0.00902241
0.00902236
0.00902227
0.00902213
0.00902198
0.00902251
0.00902246
0.00902237
0.00902225
0.0090221
0.00902262
0.00902258
0.00902249
0.00902238
0.00902224
0.00902228
0.00902224
0.00902217
0.00902207
0.00902195
0.00902231
0.00902227
0.0090222
0.0090221
0.00902198
0.00902236
0.00902233
0.00902226
0.00902216
0.00902205
0.00902244
0.0090224
0.00902234
0.00902225
0.00902214
0.00902252
0.00902249
0.00902243
0.00902234
0.00902224
0.00902227
0.00902224
0.00902219
0.00902211
0.00902203
0.00902229
0.00902226
0.00902221
0.00902214
0.00902205
0.00902233
0.0090223
0.00902225
0.00902218
0.0090221
0.00902238
0.00902236
0.00902231
0.00902224
0.00902217
0.00902245
0.00902242
0.00902238
0.00902232
0.00902225
0.00902226
0.00902224
0.0090222
0.00902215
0.00902209
0.00902227
0.00902225
0.00902222
0.00902217
0.00902211
0.0090223
0.00902228
0.00902225
0.0090222
0.00902214
0.00902235
0.00902233
0.00902229
0.00902224
0.00902219
0.00902239
0.00902238
0.00902234
0.0090223
0.00902225
0.00902225
0.00902224
0.00902221
0.00902217
0.00902213
0.00902226
0.00902225
0.00902222
0.00902219
0.00902214
0.00902229
0.00902227
0.00902225
0.00902221
0.00902217
0.00902232
0.0090223
0.00902228
0.00902224
0.0090222
0.00902235
0.00902234
0.00902232
0.00902228
0.00902225
0.00902225
0.00902224
0.00902222
0.00902219
0.00902216
0.00902226
0.00902225
0.00902223
0.0090222
0.00902217
0.00902228
0.00902227
0.00902225
0.00902222
0.00902219
0.0090223
0.00902229
0.00902227
0.00902225
0.00902222
0.00902233
0.00902232
0.0090223
0.00902227
0.00902225
0.00902225
0.00902224
0.00902223
0.00902221
0.00902218
0.00902225
0.00902225
0.00902223
0.00902221
0.00902219
0.00902227
0.00902226
0.00902225
0.00902223
0.00902221
0.00902228
0.00902228
0.00902226
0.00902225
0.00902222
0.00902231
0.0090223
0.00902229
0.00902227
0.00902225
0.00902225
0.00902224
0.00902223
0.00902222
0.0090222
0.00902225
0.00902225
0.00902224
0.00902222
0.00902221
0.00902226
0.00902226
0.00902225
0.00902223
0.00902222
0.00902227
0.00902227
0.00902226
0.00902225
0.00902223
0.00902229
0.00902228
0.00902228
0.00902226
0.00902225
0.00902225
0.00902224
0.00902224
0.00902223
0.00902221
0.00902225
0.00902225
0.00902224
0.00902223
0.00902222
0.00902226
0.00902225
0.00902225
0.00902224
0.00902222
0.00902227
0.00902226
0.00902226
0.00902225
0.00902224
0.00902228
0.00902227
0.00902227
0.00902226
0.00902225
0.00902225
0.00902224
0.00902224
0.00902223
0.00902222
0.00902225
0.00902225
0.00902224
0.00902223
0.00902223
0.00902225
0.00902225
0.00902225
0.00902224
0.00902223
0.00902226
0.00902226
0.00902225
0.00902225
0.00902224
0.00902227
0.00902227
0.00902226
0.00902226
0.00902225
0.00902225
0.00902225
0.00902224
0.00902224
0.00902223
0.00902225
0.00902225
0.00902224
0.00902224
0.00902223
0.00902225
0.00902225
0.00902225
0.00902224
0.00902224
0.00902226
0.00902226
0.00902225
0.00902225
0.00902224
0.00902227
0.00902226
0.00902226
0.00902226
0.00902225
0.00902225
0.00902225
0.00902224
0.00902224
0.00902224
0.00902225
0.00902225
0.00902225
0.00902224
0.00902224
0.00902225
0.00902225
0.00902225
0.00902225
0.00902224
0.00902226
0.00902226
0.00902225
0.00902225
0.00902225
0.00902226
0.00902226
0.00902226
0.00902225
0.00902225
0.00902225
0.00902225
0.00902225
0.00902224
0.00902224
0.00902225
0.00902225
0.00902225
0.00902225
0.00902224
0.00902225
0.00902225
0.00902225
0.00902225
0.00902224
0.00902226
0.00902226
0.00902225
0.00902225
0.00902225
0.00902226
0.00902226
0.00902226
0.00902225
0.00902225
0.00902225
0.00902225
0.00902225
0.00902225
0.00902224
0.00902225
0.00902225
0.00902225
0.00902225
0.00902225
0.00902225
0.00902225
0.00902225
0.00902225
0.00902225
0.00902226
0.00902225
0.00902225
0.00902225
0.00902225
0.00902226
0.00902226
0.00902226
0.00902225
0.00902225
0.00902225
0.00902225
0.00902225
0.00902225
0.00902225
0.00902225
0.00902225
0.00902225
0.00902225
0.00902225
0.00902225
0.00902225
0.00902225
0.00902225
0.00902225
0.00902225
0.00902225
0.00902225
0.00902225
0.00902225
0.00902226
0.00902226
0.00902226
0.00902225
0.00902225
0.00902225
0.00902225
0.00902225
0.00902225
0.00902225
0.00902225
0.00902225
0.00902225
0.00902225
0.00902225
0.00902225
0.00902225
0.00902225
0.00902225
0.00902225
0.00902225
0.00902225
0.00902225
0.00902225
0.00902225
0.00902226
0.00902226
0.00902225
0.00902225
0.00902225
0.00902225
0.00902225
0.00902225
0.00902225
0.00902225
0.00902225
0.00902225
0.00902225
0.00902225
0.00902225
0.00902225
0.00902225
0.00902225
0.00902225
0.00902225
0.00902225
0.00902225
0.00902225
0.00902225
0.00902225
0.00902225
0.00902225
0.00902225
0.00902225
0.00902225
0.00902225
0.00902225
0.00902225
0.00902225
0.00902225
0.00902225
0.00902225
0.00902225
0.00902225
0.00902225
0.00902225
0.00902225
0.00902225
0.00902225
0.00902225
0.00902225
0.00902225
0.00902225
0.00902225
0.00902225
0.00902225
0.00902225
0.00902225
0.00902225
0.00902225
0.00902225
0.00902225
0.00902225
0.00902225
0.00902225
0.00902225
0.00902225
0.00902225
0.00902225
0.00902225
0.00902225
0.00902225
0.00902225
0.00902225
0.00902225
0.00902225
0.00902225
0.00902225
0.00902225
0.00902225
0.00902225
0.00902225
0.00902225
0.00902225
0.00902225
0.00902225
0.00902225
0.00902225
0.00902225
0.00902225
0.00902225
0.00902225
0.00902225
0.00902225
0.00902225
0.00902225
0.00902225
0.00902225
0.00902225
0.00902225
0.00902225
0.00902225
0.00902225
0.00902225
0.00902225
0.00902225
0.00902225
0.00902225
0.00902225
0.00902225
0.00902225
0.00902225
0.00902225
0.00902225
0.00902225
0.00902225
0.00902225
0.00902225
0.00902225
0.00902225
0.00902225
0.00902225
0.00902225
0.00902225
0.00902225
0.00902225
0.00902225
0.00902225
0.00902225
0.00902225
0.00902225
0.00902225
0.00902225
0.00902225
0.00902225
0.00902225
0.00902225
0.00902225
0.00902225
0.00902225
0.00902225
0.00902225
0.00902225
0.00902225
0.00902225
0.00902225
0.00902225
0.00902225
0.00902225
0.00902225
0.00902225
0.00902225
0.00902225
0.00902225
0.00902225
0.00902225
0.00902225
0.00902225
0.00902225
0.00902225
0.00902225
0.00902225
0.00902225
0.00902225
0.00902225
0.00902225
0.00902225
0.00902225
0.00902225
0.00902225
0.00902225
0.00902225
0.00902225
0.00902225
0.00902225
0.00902225
0.00902225
0.00902225
0.00902225
0.00902225
0.00902225
0.00902225
0.00902225
0.00902225
0.00902225
0.00902225
0.00902225
0.00902225
0.00902225
0.00902225
0.00902225
0.00902225
0.00902225
0.00902225
0.00902225
0.00902225
0.00902225
0.00902225
0.00902225
0.00902225
0.00902225
0.00902225
0.00902225
0.00902225
0.00902225
0.00902225
0.00902225
0.00902225
0.00902225
0.00902225
0.00902225
0.00902225
0.00902225
0.00902225
0.00902225
0.00902225
0.00902225
0.00902225
0.00902225
0.00902225
0.00902225
0.00902225
0.00902225
0.00902225
0.00902225
0.00902225
0.00902225
0.00902225
0.00902225
0.00902225
0.00902225
0.00902225
0.00902225
0.00902225
0.00902225
0.00902225
0.00902225
0.00902225
0.00902225
0.00902225
0.00902225
0.00902225
0.00902225
0.00902225
0.00902225
0.00902225
0.00902225
0.00902225
0.00902225
0.00902225
0.00902225
0.00902225
0.00902225
0.00902225
0.00902225
0.00902225
0.00902225
0.00902225
0.00902225
0.00902225
0.00902225
0.00902225
0.00902225
0.00902225
0.00902225
0.00902225
0.00902225
0.00902225
0.00902225
0.00902225
0.00902225
0.00902225
0.00902225
0.00902225
0.00902225
0.00902225
0.00902225
0.00902225
0.00902225
0.00902225
0.00902225
0.00902225
0.00902225
0.00902225
0.00902225
)
;

boundaryField
{
    inlet
    {
        type            zeroGradient;
    }
    outlet
    {
        type            fixedValue;
        value           uniform 0;
    }
    repeat_boundary
    {
        type            zeroGradient;
    }
    procBoundary0to1
    {
        type            processor;
        value           nonuniform List<scalar> 
450
(
5.77639e-10
5.7747e-10
5.7678e-10
6.06819e-10
7.33669e-10
1.71998e-09
1.70516e-09
1.693e-09
1.74181e-09
2.0042e-09
2.91108e-09
2.87135e-09
2.80933e-09
2.78171e-09
2.92532e-09
4.23443e-09
4.17572e-09
4.06532e-09
3.9495e-09
3.85088e-09
5.73497e-09
5.67448e-09
5.55497e-09
5.38573e-09
5.10164e-09
7.44659e-09
7.40123e-09
7.28137e-09
7.03301e-09
6.60805e-09
9.35877e-09
9.30502e-09
9.13386e-09
8.73574e-09
8.13464e-09
1.1402e-08
1.12946e-08
1.10145e-08
1.04594e-08
9.7025e-09
1.35904e-08
1.34032e-08
1.29755e-08
1.23046e-08
1.14485e-08
1.60047e-08
1.57031e-08
1.51094e-08
1.43586e-08
1.34471e-08
1.85827e-08
1.81518e-08
1.74394e-08
1.66387e-08
1.5675e-08
2.12727e-08
2.07831e-08
2.00257e-08
1.91336e-08
1.79851e-08
2.43259e-08
2.3846e-08
2.30081e-08
2.18532e-08
2.02872e-08
2.80902e-08
2.75584e-08
2.64595e-08
2.48118e-08
2.26486e-08
3.26739e-08
3.191e-08
3.03147e-08
2.79857e-08
2.5097e-08
3.80749e-08
3.69063e-08
3.46196e-08
3.14313e-08
2.7584e-08
4.45452e-08
4.28751e-08
3.96821e-08
3.53025e-08
3.0061e-08
5.25176e-08
5.01894e-08
4.57514e-08
3.96838e-08
3.25056e-08
6.23208e-08
5.91006e-08
5.3017e-08
4.46806e-08
3.48877e-08
7.46508e-08
7.031e-08
6.20247e-08
5.05816e-08
3.71146e-08
9.09121e-08
8.5004e-08
7.36235e-08
5.78848e-08
3.93321e-08
1.12641e-07
1.04473e-07
8.88882e-08
6.74014e-08
4.20672e-08
1.41757e-07
1.30587e-07
1.09401e-07
8.0176e-08
4.56685e-08
1.81353e-07
1.66176e-07
1.37327e-07
9.74398e-08
5.02702e-08
2.35484e-07
2.14838e-07
1.75517e-07
1.21051e-07
5.65078e-08
3.09233e-07
2.81278e-07
2.27894e-07
1.53728e-07
6.55296e-08
4.09826e-07
3.72072e-07
2.99726e-07
1.98974e-07
7.87829e-08
5.47254e-07
4.96135e-07
3.98285e-07
2.61882e-07
9.86819e-08
7.34754e-07
6.65893e-07
5.3415e-07
3.5001e-07
1.28875e-07
9.90676e-07
8.98587e-07
7.218e-07
4.73903e-07
1.74739e-07
1.34007e-06
1.2172e-06
9.80977e-07
6.49161e-07
2.4602e-07
1.81655e-06
1.65328e-06
1.33944e-06
8.98706e-07
3.59262e-07
2.46584e-06
2.25e-06
1.83505e-06
1.25552e-06
5.41306e-07
3.34704e-06
3.06498e-06
2.51809e-06
1.76802e-06
8.36756e-07
4.52036e-06
4.1708e-06
3.45117e-06
2.50622e-06
1.31313e-06
5.95802e-06
5.62792e-06
4.69908e-06
3.56569e-06
2.0335e-06
7.26984e-06
7.38475e-06
6.3326e-06
5.07688e-06
2.8462e-06
8.03961e-06
9.86395e-06
8.90451e-06
7.76703e-06
3.28754e-06
1.32321e-05
2.77518e-05
1.968e-05
1.36825e-05
5.40901e-06
-4.29866e-05
-4.77265e-05
-3.16104e-05
2.72913e-06
-1.52746e-05
-6.20558e-05
0.000147633
0.000133889
2.69152e-05
-2.88298e-05
0.0008003
0.000925569
0.000697007
0.00125036
0.000509352
0.00158435
0.00198619
0.00121587
0.00181153
0.00207148
0.00302042
0.00310694
0.00349189
0.00227801
0.002655
0.00400103
0.00346557
0.00398799
0.0036216
0.00329286
0.00474463
0.00423893
0.00454063
0.00449484
0.0043406
0.00550431
0.00555526
0.00505385
0.00517592
0.00503553
0.00614223
0.00609405
0.00590631
0.00595061
0.0061997
0.00713789
0.00663641
0.00684646
0.00693016
0.00704711
0.00821902
0.00785587
0.0078076
0.00782514
0.00796704
0.00850879
0.00866788
0.00865651
0.00863856
0.00847922
0.0088475
0.00903781
0.00895333
0.00897901
0.00894714
0.00902172
0.00902006
0.00901257
0.00900446
0.00905275
0.00899297
0.0090107
0.00900583