/*--------------------------------*- C++ -*----------------------------------*\
| =========                 |                                                 |
| \\      /  F ield         | OpenFOAM: The Open Source CFD Toolbox           |
|  \\    /   O peration     | Version:  5.x                                   |
|   \\  /    A nd           | Web:      www.OpenFOAM.org                      |
|    \\/     M anipulation  |                                                 |
\*---------------------------------------------------------------------------*/
FoamFile
{
    version     2.0;
    format      ascii;
    class       volVectorField;
    location    "10000";
    object      U;
}
// * * * * * * * * * * * * * * * * * * * * * * * * * * * * * * * * * * * * * //

dimensions      [0 1 -1 0 0 0 0];

internalField   nonuniform List<vector> 
2250
(
(3.07733e-12 3.18984e-11 -0.001)
(-2.29213e-11 2.7846e-11 -0.001)
(-7.38266e-11 2.337e-11 -0.001)
(-7.98047e-11 2.16633e-11 -0.001)
(-9.93251e-11 5.23585e-12 -0.001)
(-1.03264e-12 5.8753e-11 -0.001)
(-3.15766e-11 4.94746e-11 -0.001)
(-8.01715e-11 3.96749e-11 -0.001)
(-9.81665e-11 3.25562e-11 -0.001)
(-1.15697e-10 -3.02857e-12 -0.001)
(-6.29367e-12 6.02249e-11 -0.001)
(-4.21649e-11 5.3507e-11 -0.001)
(-9.09013e-11 4.5923e-11 -0.001)
(-1.227e-10 3.65878e-11 -0.001)
(-1.24628e-10 9.31616e-12 -0.001)
(-7.86311e-12 8.57557e-11 -0.001)
(-4.60021e-11 8.20164e-11 -0.001)
(-9.70934e-11 7.06525e-11 -0.001)
(-1.34775e-10 5.52322e-11 -0.001)
(-1.42783e-10 -1.56231e-11 -0.001)
(-1.02143e-11 7.46962e-11 -0.001)
(-5.74475e-11 7.13949e-11 -0.001)
(-1.1769e-10 7.26802e-11 -0.001)
(-2.08977e-10 5.06669e-11 -0.001)
(-1.5205e-10 4.3855e-11 -0.001)
(-2.01003e-12 8.45272e-11 -0.001)
(-8.72408e-11 7.01725e-11 -0.001)
(-2.22453e-10 5.9335e-11 -0.001)
(-2.55802e-10 5.29486e-11 -0.001)
(-3.05904e-10 1.24779e-11 -0.001)
(-1.65365e-11 1.6233e-10 -0.001)
(-1.12837e-10 1.35089e-10 -0.001)
(-2.4018e-10 1.14074e-10 -0.001)
(-3.03388e-10 9.41641e-11 -0.001)
(-3.42406e-10 2.72056e-11 -0.001)
(-2.95155e-11 1.76895e-10 -0.001)
(-1.35998e-10 1.56495e-10 -0.001)
(-2.63855e-10 1.39061e-10 -0.001)
(-3.43286e-10 1.20104e-10 -0.001)
(-3.43421e-10 8.91668e-11 -0.001)
(-3.72496e-11 2.37578e-10 -0.001)
(-1.51021e-10 2.14471e-10 -0.001)
(-2.76579e-10 1.85077e-10 -0.001)
(-3.53287e-10 1.58182e-10 -0.001)
(-3.56939e-10 3.32692e-11 -0.001)
(-5.30437e-11 2.19525e-10 -0.001)
(-1.88959e-10 2.06343e-10 -0.001)
(-3.20147e-10 2.10656e-10 -0.001)
(-4.95089e-10 1.83262e-10 -0.001)
(-3.30759e-10 1.93941e-10 -0.001)
(-3.09509e-11 1.22486e-10 -0.001)
(-1.81858e-10 1.03538e-10 -0.001)
(-3.74804e-10 9.01838e-11 -0.001)
(-4.62294e-10 7.73153e-11 -0.001)
(-5.36247e-10 5.08397e-11 -0.001)
(-5.02074e-11 2.59482e-10 -0.001)
(-2.14868e-10 2.27912e-10 -0.001)
(-4.01911e-10 2.06849e-10 -0.001)
(-5.028e-10 1.86784e-10 -0.001)
(-5.58665e-10 1.52173e-10 -0.001)
(-6.30266e-11 3.13542e-10 -0.001)
(-2.35389e-10 2.87197e-10 -0.001)
(-4.16752e-10 2.72133e-10 -0.001)
(-5.18015e-10 2.61125e-10 -0.001)
(-5.28596e-10 2.67615e-10 -0.001)
(-7.70977e-11 3.96566e-10 -0.001)
(-2.56886e-10 3.54772e-10 -0.001)
(-4.28001e-10 3.25963e-10 -0.001)
(-5.07392e-10 3.11616e-10 -0.001)
(-4.86658e-10 2.20935e-10 -0.001)
(-1.05439e-10 3.96903e-10 -0.001)
(-3.0673e-10 3.78948e-10 -0.001)
(-4.59998e-10 3.89293e-10 -0.001)
(-6.23094e-10 4.07662e-10 -0.001)
(-3.68023e-10 4.79709e-10 -0.001)
(-7.11387e-11 1.64128e-10 -0.001)
(-2.92097e-10 1.47126e-10 -0.001)
(-5.31974e-10 1.39386e-10 -0.001)
(-6.65322e-10 1.30448e-10 -0.001)
(-7.67167e-10 1.20885e-10 -0.001)
(-8.86045e-11 3.93993e-10 -0.001)
(-3.1784e-10 3.68381e-10 -0.001)
(-5.49834e-10 3.586e-10 -0.001)
(-6.85319e-10 3.48301e-10 -0.001)
(-7.70708e-10 3.54572e-10 -0.001)
(-9.75742e-11 5.34432e-10 -0.001)
(-3.28857e-10 5.13306e-10 -0.001)
(-5.53183e-10 5.05725e-10 -0.001)
(-6.70758e-10 4.98272e-10 -0.001)
(-7.20221e-10 5.30089e-10 -0.001)
(-1.10677e-10 6.66794e-10 -0.001)
(-3.47574e-10 6.27356e-10 -0.001)
(-5.64894e-10 6.07502e-10 -0.001)
(-6.60912e-10 5.96688e-10 -0.001)
(-6.214e-10 5.64638e-10 -0.001)
(-1.3815e-10 6.96103e-10 -0.001)
(-3.89462e-10 6.84639e-10 -0.001)
(-5.83867e-10 6.93072e-10 -0.001)
(-7.13518e-10 7.45678e-10 -0.001)
(-4.56076e-10 8.56142e-10 -0.001)
(-1.20413e-10 2.2634e-10 -0.001)
(-4.14162e-10 2.15607e-10 -0.001)
(-6.99164e-10 2.14609e-10 -0.001)
(-8.81056e-10 2.09036e-10 -0.001)
(-1.01612e-09 2.01556e-10 -0.001)
(-1.31825e-10 6.02693e-10 -0.001)
(-4.27224e-10 5.9187e-10 -0.001)
(-7.07183e-10 5.88842e-10 -0.001)
(-8.95941e-10 5.80555e-10 -0.001)
(-1.01991e-09 5.8367e-10 -0.001)
(-1.32586e-10 8.94202e-10 -0.001)
(-4.30027e-10 8.86721e-10 -0.001)
(-7.11907e-10 8.76089e-10 -0.001)
(-8.88004e-10 8.60832e-10 -0.001)
(-9.81953e-10 8.90095e-10 -0.001)
(-1.41e-10 1.14557e-09 -0.001)
(-4.47093e-10 1.11354e-09 -0.001)
(-7.33078e-10 1.0886e-09 -0.001)
(-8.81922e-10 1.06576e-09 -0.001)
(-8.85735e-10 1.11368e-09 -0.001)
(-1.66765e-10 1.19399e-09 -0.001)
(-4.8922e-10 1.19249e-09 -0.001)
(-7.59604e-10 1.19283e-09 -0.001)
(-8.62971e-10 1.24765e-09 -0.001)
(-7.1505e-10 1.32981e-09 -0.001)
(-1.81171e-10 3.16085e-10 -0.001)
(-5.59883e-10 3.12292e-10 -0.001)
(-9.02319e-10 3.13826e-10 -0.001)
(-1.15424e-09 3.04798e-10 -0.001)
(-1.32158e-09 2.8769e-10 -0.001)
(-1.85941e-10 8.95953e-10 -0.001)
(-5.63897e-10 8.98365e-10 -0.001)
(-9.11616e-10 8.93476e-10 -0.001)
(-1.18269e-09 8.76399e-10 -0.001)
(-1.33558e-09 8.57047e-10 -0.001)
(-1.80856e-10 1.38918e-09 -0.001)
(-5.65243e-10 1.3914e-09 -0.001)
(-9.26085e-10 1.37407e-09 -0.001)
(-1.19294e-09 1.36225e-09 -0.001)
(-1.32053e-09 1.38232e-09 -0.001)
(-1.86464e-10 1.7943e-09 -0.001)
(-5.81789e-10 1.76141e-09 -0.001)
(-9.40798e-10 1.73541e-09 -0.001)
(-1.17445e-09 1.72522e-09 -0.001)
(-1.25735e-09 1.79013e-09 -0.001)
(-2.17223e-10 1.87006e-09 -0.001)
(-6.27711e-10 1.86749e-09 -0.001)
(-9.62298e-10 1.87844e-09 -0.001)
(-1.13822e-09 1.93834e-09 -0.001)
(-1.0757e-09 2.022e-09 -0.001)
(-2.51731e-10 4.36993e-10 -0.001)
(-7.42584e-10 4.3724e-10 -0.001)
(-1.17152e-09 4.39346e-10 -0.001)
(-1.50973e-09 4.27273e-10 -0.001)
(-1.70961e-09 4.04942e-10 -0.001)
(-2.52836e-10 1.26937e-09 -0.001)
(-7.42549e-10 1.27661e-09 -0.001)
(-1.18379e-09 1.27114e-09 -0.001)
(-1.54713e-09 1.25179e-09 -0.001)
(-1.72914e-09 1.22412e-09 -0.001)
(-2.47511e-10 1.98499e-09 -0.001)
(-7.44808e-10 1.98752e-09 -0.001)
(-1.19866e-09 1.97869e-09 -0.001)
(-1.55971e-09 1.98722e-09 -0.001)
(-1.72167e-09 2.02529e-09 -0.001)
(-2.54266e-10 2.51377e-09 -0.001)
(-7.52837e-10 2.48997e-09 -0.001)
(-1.18413e-09 2.49945e-09 -0.001)
(-1.50055e-09 2.536e-09 -0.001)
(-1.67293e-09 2.52445e-09 -0.001)
(-2.76241e-10 2.6642e-09 -0.001)
(-7.64141e-10 2.67087e-09 -0.001)
(-1.15266e-09 2.71507e-09 -0.001)
(-1.5347e-09 2.77852e-09 -0.001)
(-1.42034e-09 2.98167e-09 -0.001)
(-3.3803e-10 5.96232e-10 -0.001)
(-9.80434e-10 5.98149e-10 -0.001)
(-1.5328e-09 6.00869e-10 -0.001)
(-1.969e-09 5.91013e-10 -0.001)
(-2.21148e-09 5.75016e-10 -0.001)
(-3.37947e-10 1.73809e-09 -0.001)
(-9.78875e-10 1.74564e-09 -0.001)
(-1.54294e-09 1.74661e-09 -0.001)
(-1.99871e-09 1.73894e-09 -0.001)
(-2.22723e-09 1.72755e-09 -0.001)
(-3.34606e-10 2.70373e-09 -0.001)
(-9.77313e-10 2.70917e-09 -0.001)
(-1.54254e-09 2.72404e-09 -0.001)
(-1.99191e-09 2.75574e-09 -0.001)
(-2.21548e-09 2.79972e-09 -0.001)
(-3.37889e-10 3.36058e-09 -0.001)
(-9.63986e-10 3.37214e-09 -0.001)
(-1.49644e-09 3.43026e-09 -0.001)
(-1.92306e-09 3.49438e-09 -0.001)
(-2.16925e-09 3.44431e-09 -0.001)
(-3.29667e-10 3.65213e-09 -0.001)
(-9.14303e-10 3.68341e-09 -0.001)
(-1.42036e-09 3.74521e-09 -0.001)
(-1.97786e-09 3.8066e-09 -0.001)
(-1.94084e-09 4.03411e-09 -0.001)
(-4.51648e-10 8.09311e-10 -0.001)
(-1.30467e-09 8.11436e-10 -0.001)
(-2.03117e-09 8.14412e-10 -0.001)
(-2.58984e-09 8.12333e-10 -0.00100001)
(-2.88838e-09 8.15206e-10 -0.00100001)
(-4.51997e-10 2.35797e-09 -0.001)
(-1.30371e-09 2.36793e-09 -0.001)
(-2.03425e-09 2.37838e-09 -0.001)
(-2.59409e-09 2.38965e-09 -0.001)
(-2.894e-09 2.41109e-09 -0.00100001)
(-4.47261e-10 3.66374e-09 -0.001)
(-1.29153e-09 3.68338e-09 -0.001)
(-2.0135e-09 3.71599e-09 -0.001)
(-2.56223e-09 3.74798e-09 -0.001)
(-2.88569e-09 3.77705e-09 -0.001)
(-4.39621e-10 4.55984e-09 -0.001)
(-1.25877e-09 4.6079e-09 -0.001)
(-1.96975e-09 4.67177e-09 -0.001)
(-2.53307e-09 4.70005e-09 -0.001)
(-2.8639e-09 4.66856e-09 -0.001)
(-4.08231e-10 5.02219e-09 -0.000999999)
(-1.18865e-09 5.07074e-09 -0.000999999)
(-1.92142e-09 5.10768e-09 -0.001)
(-2.56544e-09 5.13533e-09 -0.001)
(-2.81364e-09 5.16775e-09 -0.001)
(-6.11367e-10 1.09807e-09 -0.001)
(-1.75883e-09 1.10162e-09 -0.001)
(-2.72225e-09 1.10622e-09 -0.00100001)
(-3.44619e-09 1.11561e-09 -0.00100001)
(-3.82348e-09 1.1413e-09 -0.00100001)
(-6.11163e-10 3.21102e-09 -0.001)
(-1.7563e-09 3.23006e-09 -0.001)
(-2.71361e-09 3.24692e-09 -0.001)
(-3.41782e-09 3.27007e-09 -0.00100001)
(-3.81976e-09 3.31314e-09 -0.00100001)
(-5.99875e-10 5.01671e-09 -0.001)
(-1.73279e-09 5.05246e-09 -0.001)
(-2.6877e-09 5.07621e-09 -0.001)
(-3.3868e-09 5.07569e-09 -0.001)
(-3.83364e-09 5.07162e-09 -0.00100001)
(-5.85351e-10 6.30901e-09 -0.001)
(-1.70679e-09 6.35063e-09 -0.001)
(-2.6905e-09 6.36037e-09 -0.001)
(-3.42247e-09 6.29822e-09 -0.001)
(-3.86322e-09 6.34038e-09 -0.001)
(-5.70721e-10 6.9487e-09 -0.000999998)
(-1.69396e-09 6.97766e-09 -0.000999999)
(-2.74021e-09 6.95119e-09 -0.000999999)
(-3.40679e-09 6.90167e-09 -0.001)
(-3.97352e-09 6.69696e-09 -0.001)
(-8.33527e-10 1.49276e-09 -0.00100001)
(-2.38028e-09 1.50319e-09 -0.00100001)
(-3.65757e-09 1.5122e-09 -0.00100001)
(-4.60911e-09 1.52887e-09 -0.00100001)
(-5.11729e-09 1.56259e-09 -0.00100001)
(-8.27657e-10 4.38795e-09 -0.001)
(-2.36847e-09 4.42089e-09 -0.00100001)
(-3.6391e-09 4.43458e-09 -0.00100001)
(-4.56774e-09 4.4457e-09 -0.00100001)
(-5.11894e-09 4.46923e-09 -0.00100001)
(-8.10895e-10 6.88284e-09 -0.001)
(-2.34709e-09 6.91857e-09 -0.001)
(-3.64013e-09 6.90481e-09 -0.001)
(-4.58364e-09 6.84955e-09 -0.00100001)
(-5.17182e-09 6.77709e-09 -0.00100001)
(-8.05512e-10 8.67805e-09 -0.001)
(-2.36019e-09 8.67471e-09 -0.001)
(-3.70828e-09 8.61416e-09 -0.001)
(-4.69553e-09 8.48077e-09 -0.001)
(-5.27162e-09 8.47695e-09 -0.001)
(-8.31287e-10 9.53516e-09 -0.000999997)
(-2.42822e-09 9.52344e-09 -0.000999998)
(-3.8342e-09 9.4444e-09 -0.000999999)
(-4.72085e-09 9.34259e-09 -0.001)
(-5.3951e-09 9.10281e-09 -0.001)
(-1.12642e-09 2.03765e-09 -0.00100001)
(-3.2066e-09 2.05926e-09 -0.00100001)
(-4.91915e-09 2.06775e-09 -0.00100001)
(-6.19093e-09 2.07564e-09 -0.00100001)
(-6.90947e-09 2.08639e-09 -0.00100001)
(-1.11101e-09 5.99155e-09 -0.00100001)
(-3.18683e-09 6.03223e-09 -0.00100001)
(-4.91252e-09 6.02345e-09 -0.00100001)
(-6.18453e-09 5.99015e-09 -0.00100001)
(-6.94379e-09 5.94088e-09 -0.00100001)
(-1.09978e-09 9.37807e-09 -0.001)
(-3.19297e-09 9.39304e-09 -0.001)
(-4.97115e-09 9.32938e-09 -0.00100001)
(-6.28586e-09 9.21117e-09 -0.00100001)
(-7.04751e-09 9.05283e-09 -0.00100001)
(-1.1145e-09 1.1771e-08 -0.001)
(-3.25418e-09 1.17373e-08 -0.001)
(-5.09461e-09 1.1639e-08 -0.001)
(-6.46119e-09 1.14849e-08 -0.001)
(-7.19517e-09 1.1321e-08 -0.00100001)
(-1.1566e-09 1.29512e-08 -0.000999996)
(-3.34835e-09 1.29218e-08 -0.000999997)
(-5.22369e-09 1.28317e-08 -0.000999998)
(-6.60386e-09 1.27183e-08 -0.001)
(-7.31791e-09 1.25859e-08 -0.001)
(-1.50633e-09 2.78882e-09 -0.00100001)
(-4.31974e-09 2.81196e-09 -0.00100001)
(-6.66994e-09 2.80694e-09 -0.00100001)
(-8.4026e-09 2.78789e-09 -0.00100001)
(-9.40613e-09 2.7482e-09 -0.00100002)
(-1.49161e-09 8.15581e-09 -0.00100001)
(-4.31567e-09 8.18161e-09 -0.00100001)
(-6.70732e-09 8.13129e-09 -0.00100001)
(-8.47811e-09 8.03382e-09 -0.00100001)
(-9.49734e-09 7.88877e-09 -0.00100002)
(-1.49956e-09 1.2704e-08 -0.001)
(-4.36904e-09 1.2691e-08 -0.001)
(-6.83118e-09 1.25819e-08 -0.00100001)
(-8.66192e-09 1.24096e-08 -0.00100001)
(-9.64875e-09 1.21903e-08 -0.00100001)
(-1.5295e-09 1.59139e-08 -0.000999999)
(-4.46296e-09 1.58896e-08 -0.001)
(-6.98905e-09 1.57751e-08 -0.001)
(-8.86989e-09 1.5599e-08 -0.001)
(-9.81228e-09 1.53697e-08 -0.00100001)
(-1.55501e-09 1.75702e-08 -0.000999994)
(-4.53944e-09 1.75551e-08 -0.000999995)
(-7.12212e-09 1.74624e-08 -0.000999997)
(-9.06726e-09 1.73455e-08 -0.001)
(-9.90993e-09 1.72667e-08 -0.001)
(-2.0254e-09 3.8064e-09 -0.00100001)
(-5.87071e-09 3.81437e-09 -0.00100001)
(-9.13614e-09 3.78741e-09 -0.00100002)
(-1.15293e-08 3.73697e-09 -0.00100002)
(-1.2872e-08 3.65449e-09 -0.00100002)
(-2.02887e-09 1.10697e-08 -0.00100001)
(-5.90889e-09 1.10621e-08 -0.00100001)
(-9.23188e-09 1.09671e-08 -0.00100001)
(-1.16853e-08 1.08171e-08 -0.00100002)
(-1.30127e-08 1.06202e-08 -0.00100002)
(-2.05868e-09 1.72054e-08 -0.001)
(-6.00702e-09 1.71728e-08 -0.00100001)
(-9.39967e-09 1.70251e-08 -0.00100001)
(-1.18991e-08 1.68227e-08 -0.00100001)
(-1.31857e-08 1.66049e-08 -0.00100002)
(-2.09521e-09 2.16218e-08 -0.000999999)
(-6.12339e-09 2.16067e-08 -0.001)
(-9.5824e-09 2.14519e-08 -0.001)
(-1.21058e-08 2.12495e-08 -0.00100001)
(-1.33504e-08 2.10094e-08 -0.00100001)
(-2.11616e-09 2.39309e-08 -0.000999991)
(-6.21975e-09 2.39212e-08 -0.000999993)
(-9.75721e-09 2.37897e-08 -0.000999995)
(-1.23416e-08 2.36394e-08 -0.000999999)
(-1.34443e-08 2.35579e-08 -0.001)
(-2.75878e-09 5.17367e-09 -0.00100002)
(-8.03823e-09 5.16296e-09 -0.00100002)
(-1.25499e-08 5.11781e-09 -0.00100002)
(-1.5844e-08 5.05e-09 -0.00100003)
(-1.75964e-08 4.96655e-09 -0.00100003)
(-2.78505e-09 1.50203e-08 -0.00100001)
(-8.12035e-09 1.49846e-08 -0.00100001)
(-1.2688e-08 1.48579e-08 -0.00100002)
(-1.60269e-08 1.4689e-08 -0.00100002)
(-1.77501e-08 1.45105e-08 -0.00100003)
(-2.82933e-09 2.33722e-08 -0.00100001)
(-8.24638e-09 2.33276e-08 -0.00100001)
(-1.28708e-08 2.31457e-08 -0.00100001)
(-1.6223e-08 2.29316e-08 -0.00100002)
(-1.79263e-08 2.27325e-08 -0.00100002)
(-2.87544e-09 2.94814e-08 -0.000999998)
(-8.39327e-09 2.944e-08 -0.001)
(-1.30846e-08 2.92209e-08 -0.001)
(-1.64404e-08 2.89789e-08 -0.00100001)
(-1.81205e-08 2.86998e-08 -0.00100001)
(-2.92851e-09 3.26637e-08 -0.000999988)
(-8.56537e-09 3.26285e-08 -0.00099999)
(-1.33324e-08 3.24312e-08 -0.000999993)
(-1.67441e-08 3.22113e-08 -0.000999998)
(-1.82905e-08 3.20373e-08 -0.001)
(-3.77372e-09 7.032e-09 -0.00100002)
(-1.09968e-08 7.01283e-09 -0.00100002)
(-1.71611e-08 6.95742e-09 -0.00100003)
(-2.16378e-08 6.88823e-09 -0.00100003)
(-2.39402e-08 6.82434e-09 -0.00100004)
(-3.81409e-09 2.0432e-08 -0.00100002)
(-1.11072e-08 2.03861e-08 -0.00100002)
(-1.73201e-08 2.02411e-08 -0.00100002)
(-2.18141e-08 2.00709e-08 -0.00100003)
(-2.40983e-08 1.99125e-08 -0.00100004)
(-3.86708e-09 3.18438e-08 -0.00100001)
(-1.12501e-08 3.17911e-08 -0.00100001)
(-1.75109e-08 3.15817e-08 -0.00100002)
(-2.20098e-08 3.13454e-08 -0.00100002)
(-2.43075e-08 3.11018e-08 -0.00100003)
(-3.92915e-09 4.02179e-08 -0.000999997)
(-1.14326e-08 4.01491e-08 -0.000999999)
(-1.77667e-08 3.98825e-08 -0.001)
(-2.22944e-08 3.95783e-08 -0.00100001)
(-2.45967e-08 3.91844e-08 -0.00100002)
(-4.01458e-09 4.4587e-08 -0.000999983)
(-1.16651e-08 4.45292e-08 -0.000999986)
(-1.80824e-08 4.42784e-08 -0.00099999)
(-2.27079e-08 4.39663e-08 -0.000999997)
(-2.49206e-08 4.36417e-08 -0.001)
(-5.13993e-09 9.58876e-09 -0.00100003)
(-1.49664e-08 9.56884e-09 -0.00100003)
(-2.3335e-08 9.50283e-09 -0.00100004)
(-2.93907e-08 9.42894e-09 -0.00100005)
(-3.24671e-08 9.36003e-09 -0.00100006)
(-5.18874e-09 2.78804e-08 -0.00100002)
(-1.51011e-08 2.78333e-08 -0.00100003)
(-2.35218e-08 2.76649e-08 -0.00100003)
(-2.95922e-08 2.7469e-08 -0.00100004)
(-3.26743e-08 2.72657e-08 -0.00100005)
(-5.2518e-09 4.34706e-08 -0.00100001)
(-1.5267e-08 4.34151e-08 -0.00100001)
(-2.37465e-08 4.31743e-08 -0.00100002)
(-2.98489e-08 4.28735e-08 -0.00100003)
(-3.29748e-08 4.25121e-08 -0.00100004)
(-5.32938e-09 5.4884e-08 -0.000999995)
(-1.54837e-08 5.48233e-08 -0.000999999)
(-2.40644e-08 5.45237e-08 -0.00100001)
(-3.02549e-08 5.41145e-08 -0.00100001)
(-3.34123e-08 5.35513e-08 -0.00100002)
(-5.4199e-09 6.08863e-08 -0.000999977)
(-1.57359e-08 6.08316e-08 -0.00099998)
(-2.44562e-08 6.05307e-08 -0.000999986)
(-3.08214e-08 6.00974e-08 -0.000999995)
(-3.39228e-08 5.96024e-08 -0.00100001)
(-6.96725e-09 1.31101e-08 -0.00100004)
(-2.02865e-08 1.30869e-08 -0.00100004)
(-3.16222e-08 1.30006e-08 -0.00100005)
(-3.98208e-08 1.29035e-08 -0.00100006)
(-4.3975e-08 1.28034e-08 -0.00100008)
(-7.02988e-09 3.81184e-08 -0.00100003)
(-2.04624e-08 3.80622e-08 -0.00100004)
(-3.18691e-08 3.78436e-08 -0.00100004)
(-4.00978e-08 3.75735e-08 -0.00100006)
(-4.42832e-08 3.7269e-08 -0.00100007)
(-7.11177e-09 5.9414e-08 -0.00100002)
(-2.06773e-08 5.93503e-08 -0.00100002)
(-3.21751e-08 5.90428e-08 -0.00100003)
(-4.04754e-08 5.86148e-08 -0.00100004)
(-4.47334e-08 5.80783e-08 -0.00100005)
(-7.20991e-09 7.49737e-08 -0.000999994)
(-2.09515e-08 7.49252e-08 -0.000999998)
(-3.26061e-08 7.45459e-08 -0.00100001)
(-4.10629e-08 7.39566e-08 -0.00100002)
(-4.53749e-08 7.31428e-08 -0.00100003)
(-7.30687e-09 8.32245e-08 -0.000999968)
(-2.12533e-08 8.31661e-08 -0.000999972)
(-3.31449e-08 8.27532e-08 -0.000999981)
(-4.18785e-08 8.2123e-08 -0.000999993)
(-4.61228e-08 8.13876e-08 -0.00100001)
(-9.42563e-09 1.79403e-08 -0.00100005)
(-2.74433e-08 1.79062e-08 -0.00100006)
(-4.27626e-08 1.77875e-08 -0.00100007)
(-5.38268e-08 1.76491e-08 -0.00100009)
(-5.94673e-08 1.74955e-08 -0.0010001)
(-9.51336e-09 5.21558e-08 -0.00100004)
(-2.76864e-08 5.20723e-08 -0.00100005)
(-4.31059e-08 5.17629e-08 -0.00100006)
(-5.42268e-08 5.13617e-08 -0.00100008)
(-5.99278e-08 5.08905e-08 -0.00100009)
(-9.62976e-09 8.1276e-08 -0.00100002)
(-2.79944e-08 8.1179e-08 -0.00100003)
(-4.35602e-08 8.07329e-08 -0.00100004)
(-5.48075e-08 8.00846e-08 -0.00100005)
(-6.06121e-08 7.92764e-08 -0.00100007)
(-9.76925e-09 1.02544e-07 -0.000999991)
(-2.83906e-08 1.02461e-07 -0.000999997)
(-4.42024e-08 1.01895e-07 -0.00100001)
(-5.56842e-08 1.01015e-07 -0.00100002)
(-6.15724e-08 9.98479e-08 -0.00100004)
(-9.9122e-09 1.13883e-07 -0.000999956)
(-2.88453e-08 1.13775e-07 -0.000999962)
(-4.50083e-08 1.13124e-07 -0.000999974)
(-5.68548e-08 1.12163e-07 -0.00099999)
(-6.26853e-08 1.11039e-07 -0.00100001)
(-1.27463e-08 2.45514e-08 -0.00100007)
(-3.70871e-08 2.45e-08 -0.00100008)
(-5.77405e-08 2.43357e-08 -0.0010001)
(-7.26313e-08 2.41277e-08 -0.00100012)
(-8.03058e-08 2.387e-08 -0.00100014)
(-1.28708e-08 7.13893e-08 -0.00100006)
(-3.74255e-08 7.12602e-08 -0.00100007)
(-5.82294e-08 7.08043e-08 -0.00100008)
(-7.32432e-08 7.01795e-08 -0.0010001)
(-8.10095e-08 6.94172e-08 -0.00100013)
(-1.30401e-08 1.11276e-07 -0.00100003)
(-3.78875e-08 1.11111e-07 -0.00100004)
(-5.89388e-08 1.10412e-07 -0.00100005)
(-7.4165e-08 1.09397e-07 -0.00100007)
(-8.20567e-08 1.08165e-07 -0.0010001)
(-1.32539e-08 1.4044e-07 -0.000999988)
(-3.851e-08 1.40253e-07 -0.000999996)
(-5.99461e-08 1.39344e-07 -0.00100001)
(-7.54912e-08 1.38014e-07 -0.00100003)
(-8.35116e-08 1.36369e-07 -0.00100006)
(-1.35008e-08 1.56012e-07 -0.000999939)
(-3.92607e-08 1.55787e-07 -0.000999948)
(-6.11803e-08 1.54732e-07 -0.000999964)
(-7.71399e-08 1.53248e-07 -0.000999986)
(-8.51943e-08 1.51544e-07 -0.00100001)
(-1.72308e-08 3.36043e-08 -0.0010001)
(-5.00868e-08 3.35323e-08 -0.00100011)
(-7.79178e-08 3.32958e-08 -0.00100013)
(-9.79997e-08 3.29641e-08 -0.00100016)
(-1.084e-07 3.25482e-08 -0.00100019)
(-1.74025e-08 9.77579e-08 -0.00100008)
(-5.05621e-08 9.75636e-08 -0.00100009)
(-7.86437e-08 9.68656e-08 -0.00100011)
(-9.89452e-08 9.58721e-08 -0.00100014)
(-1.09469e-07 9.46757e-08 -0.00100017)
(-1.765e-08 1.52462e-07 -0.00100004)
(-5.12727e-08 1.52172e-07 -0.00100005)
(-7.97683e-08 1.51051e-07 -0.00100007)
(-1.00388e-07 1.49464e-07 -0.0010001)
(-1.11053e-07 1.47596e-07 -0.00100013)
(-1.79898e-08 1.92523e-07 -0.000999984)
(-5.22743e-08 1.92135e-07 -0.000999995)
(-8.13552e-08 1.90667e-07 -0.00100002)
(-1.02402e-07 1.8864e-07 -0.00100005)
(-1.13256e-07 1.86237e-07 -0.00100008)
(-1.84124e-08 2.13914e-07 -0.000999917)
(-5.35079e-08 2.13475e-07 -0.000999928)
(-8.32664e-08 2.11804e-07 -0.00099995)
(-1.04818e-07 2.09514e-07 -0.000999981)
(-1.15852e-07 2.06906e-07 -0.00100002)
(-2.32766e-08 4.60143e-08 -0.00100014)
(-6.7619e-08 4.59118e-08 -0.00100016)
(-1.05155e-07 4.55482e-08 -0.00100018)
(-1.32256e-07 4.50259e-08 -0.00100022)
(-1.46234e-07 4.44168e-08 -0.00100026)
(-2.35149e-08 1.33915e-07 -0.00100011)
(-6.83118e-08 1.33608e-07 -0.00100013)
(-1.06255e-07 1.32516e-07 -0.00100015)
(-1.33655e-07 1.30981e-07 -0.00100019)
(-1.47809e-07 1.29194e-07 -0.00100024)
(-2.38909e-08 2.08955e-07 -0.00100006)
(-6.94181e-08 2.08444e-07 -0.00100007)
(-1.07997e-07 2.06683e-07 -0.0010001)
(-1.35846e-07 2.0426e-07 -0.00100014)
(-1.50212e-07 2.01416e-07 -0.00100018)
(-2.4433e-08 2.63981e-07 -0.000999979)
(-7.09972e-08 2.63274e-07 -0.000999994)
(-1.10444e-07 2.60976e-07 -0.00100002)
(-1.38924e-07 2.57882e-07 -0.00100006)
(-1.53584e-07 2.542e-07 -0.00100011)
(-2.51118e-08 2.93457e-07 -0.000999887)
(-7.29431e-08 2.92664e-07 -0.000999903)
(-1.13393e-07 2.90074e-07 -0.000999933)
(-1.42623e-07 2.86534e-07 -0.000999974)
(-1.57645e-07 2.8246e-07 -0.00100002)
(-3.14274e-08 6.30181e-08 -0.0010002)
(-9.1288e-08 6.2851e-08 -0.00100022)
(-1.41925e-07 6.2284e-08 -0.00100025)
(-1.78374e-07 6.15018e-08 -0.0010003)
(-1.97028e-07 6.06137e-08 -0.00100036)
(-3.17796e-08 1.83444e-07 -0.00100016)
(-9.23305e-08 1.8293e-07 -0.00100018)
(-1.43563e-07 1.81257e-07 -0.00100021)
(-1.80406e-07 1.78961e-07 -0.00100026)
(-1.9933e-07 1.76289e-07 -0.00100032)
(-3.23606e-08 2.86359e-07 -0.00100008)
(-9.40198e-08 2.85503e-07 -0.0010001)
(-1.46184e-07 2.82834e-07 -0.00100014)
(-1.83704e-07 2.79182e-07 -0.00100019)
(-2.0301e-07 2.74847e-07 -0.00100025)
(-3.31926e-08 3.61973e-07 -0.000999973)
(-9.64209e-08 3.60819e-07 -0.000999993)
(-1.49891e-07 3.57336e-07 -0.00100003)
(-1.88397e-07 3.52619e-07 -0.00100009)
(-2.08216e-07 3.46967e-07 -0.00100015)
(-3.42175e-08 4.02764e-07 -0.000999847)
(-9.93687e-08 4.0143e-07 -0.000999868)
(-1.5439e-07 3.97461e-07 -0.000999909)
(-1.94073e-07 3.91985e-07 -0.000999965)
(-2.14546e-07 3.8559e-07 -0.00100003)
(-4.24447e-08 8.6264e-08 -0.00100027)
(-1.23271e-07 8.59828e-08 -0.0010003)
(-1.91502e-07 8.51353e-08 -0.00100035)
(-2.40365e-07 8.39833e-08 -0.00100041)
(-2.65157e-07 8.2627e-08 -0.00100049)
(-4.29783e-08 2.51183e-07 -0.00100022)
(-1.2482e-07 2.50353e-07 -0.00100024)
(-1.93893e-07 2.47869e-07 -0.00100029)
(-2.43363e-07 2.44448e-07 -0.00100036)
(-2.68537e-07 2.40392e-07 -0.00100044)
(-4.38473e-08 3.92367e-07 -0.00100011)
(-1.27329e-07 3.9102e-07 -0.00100014)
(-1.978e-07 3.87034e-07 -0.00100019)
(-2.4833e-07 3.81525e-07 -0.00100026)
(-2.7412e-07 3.74975e-07 -0.00100034)
(-4.50871e-08 4.96472e-07 -0.000999965)
(-1.30926e-07 4.94666e-07 -0.000999993)
(-2.03398e-07 4.89417e-07 -0.00100005)
(-2.55426e-07 4.82215e-07 -0.00100012)
(-2.82085e-07 4.73646e-07 -0.0010002)
(-4.66155e-08 5.53131e-07 -0.000999792)
(-1.35361e-07 5.50968e-07 -0.000999821)
(-2.1026e-07 5.44886e-07 -0.000999877)
(-2.64101e-07 5.36449e-07 -0.000999953)
(-2.91857e-07 5.26495e-07 -0.00100004)
(-5.73672e-08 1.1797e-07 -0.00100038)
(-1.66493e-07 1.1754e-07 -0.00100041)
(-2.58291e-07 1.16316e-07 -0.00100048)
(-3.2366e-07 1.1461e-07 -0.00100057)
(-3.56453e-07 1.12564e-07 -0.00100067)
(-5.81405e-08 3.43698e-07 -0.0010003)
(-1.68717e-07 3.42437e-07 -0.00100034)
(-2.61751e-07 3.38787e-07 -0.0010004)
(-3.28073e-07 3.3369e-07 -0.0010005)
(-3.61379e-07 3.27609e-07 -0.0010006)
(-5.94099e-08 5.37459e-07 -0.00100016)
(-1.72417e-07 5.35379e-07 -0.00100019)
(-2.6757e-07 5.29424e-07 -0.00100026)
(-3.35498e-07 5.21144e-07 -0.00100036)
(-3.69701e-07 5.11328e-07 -0.00100047)
(-6.12628e-08 6.81079e-07 -0.000999957)
(-1.77812e-07 6.78224e-07 -0.000999996)
(-2.75999e-07 6.70296e-07 -0.00100007)
(-3.46174e-07 6.59331e-07 -0.00100017)
(-3.81737e-07 6.46329e-07 -0.00100028)
(-6.35827e-08 7.60094e-07 -0.000999719)
(-1.84538e-07 7.56621e-07 -0.000999759)
(-2.86474e-07 7.47282e-07 -0.000999835)
(-3.59464e-07 7.34341e-07 -0.000999939)
(-3.96702e-07 7.19001e-07 -0.00100006)
(-7.75947e-08 1.61125e-07 -0.00100052)
(-2.24944e-07 1.60517e-07 -0.00100057)
(-3.4833e-07 1.58762e-07 -0.00100066)
(-4.35492e-07 1.56275e-07 -0.00100078)
(-4.78449e-07 1.53283e-07 -0.00100092)
(-7.86711e-08 4.69798e-07 -0.00100042)
(-2.28081e-07 4.67936e-07 -0.00100047)
(-3.53288e-07 4.62621e-07 -0.00100056)
(-4.41865e-07 4.55153e-07 -0.00100068)
(-4.85579e-07 4.46199e-07 -0.00100083)
(-8.0522e-08 7.35695e-07 -0.00100022)
(-2.335e-07 7.32507e-07 -0.00100027)
(-3.61832e-07 7.23699e-07 -0.00100037)
(-4.52803e-07 7.11421e-07 -0.00100049)
(-4.97877e-07 6.96802e-07 -0.00100064)
(-8.32832e-08 9.34142e-07 -0.000999949)
(-2.41525e-07 9.29677e-07 -0.001)
(-3.74392e-07 9.1777e-07 -0.0010001)
(-4.68769e-07 9.0119e-07 -0.00100023)
(-5.15907e-07 8.81531e-07 -0.00100039)
(-8.67916e-08 1.045e-06 -0.000999623)
(-2.51705e-07 1.03949e-06 -0.000999677)
(-3.90334e-07 1.02515e-06 -0.000999781)
(-4.89042e-07 1.00532e-06 -0.000999922)
(-5.38655e-07 9.81821e-07 -0.00100009)
(-1.05108e-07 2.19659e-07 -0.00100072)
(-3.04289e-07 2.18821e-07 -0.00100078)
(-4.70065e-07 2.16364e-07 -0.00100091)
(-5.85791e-07 2.12861e-07 -0.00100107)
(-6.41214e-07 2.08571e-07 -0.00100126)
(-1.06583e-07 6.41078e-07 -0.00100058)
(-3.08635e-07 6.38418e-07 -0.00100065)
(-4.76992e-07 6.30892e-07 -0.00100077)
(-5.94788e-07 6.2026e-07 -0.00100094)
(-6.51416e-07 6.07365e-07 -0.00100113)
(-1.09219e-07 1.0058e-06 -0.00100031)
(-3.16352e-07 1.00109e-06 -0.00100038)
(-4.89193e-07 9.88339e-07 -0.00100051)
(-6.10516e-07 9.70466e-07 -0.00100068)
(-6.69324e-07 9.49064e-07 -0.00100088)
(-1.13238e-07 1.28057e-06 -0.000999943)
(-3.2807e-07 1.27374e-06 -0.00100001)
(-5.07636e-07 1.25598e-06 -0.00100015)
(-6.34074e-07 1.2312e-06 -0.00100033)
(-6.96047e-07 1.20178e-06 -0.00100054)
(-1.18514e-07 1.43728e-06 -0.000999495)
(-3.43446e-07 1.42859e-06 -0.00099957)
(-5.31755e-07 1.40662e-06 -0.000999711)
(-6.6472e-07 1.37631e-06 -0.000999903)
(-7.30475e-07 1.34039e-06 -0.00100012)
(-1.42854e-07 2.98572e-07 -0.00100099)
(-4.12812e-07 2.97505e-07 -0.00100108)
(-6.35512e-07 2.94273e-07 -0.00100125)
(-7.8835e-07 2.89584e-07 -0.00100147)
(-8.58397e-07 2.83736e-07 -0.00100172)
(-1.44787e-07 8.72492e-07 -0.0010008)
(-4.18539e-07 8.68983e-07 -0.0010009)
(-6.44741e-07 8.58851e-07 -0.00100107)
(-8.00509e-07 8.44314e-07 -0.00100129)
(-8.72468e-07 8.26419e-07 -0.00100155)
(-1.48338e-07 1.37236e-06 -0.00100045)
(-4.29005e-07 1.36576e-06 -0.00100054)
(-6.61495e-07 1.34786e-06 -0.00100071)
(-8.22398e-07 1.32253e-06 -0.00100095)
(-8.97867e-07 1.29181e-06 -0.00100121)
(-1.5404e-07 1.75373e-06 -0.000999942)
(-4.45734e-07 1.74347e-06 -0.00100004)
(-6.8801e-07 1.71737e-06 -0.00100022)
(-8.56574e-07 1.68089e-06 -0.00100046)
(-9.36984e-07 1.63721e-06 -0.00100074)
(-1.61973e-07 1.97729e-06 -0.000999329)
(-4.68793e-07 1.96358e-06 -0.000999431)
(-7.24098e-07 1.93015e-06 -0.000999625)
(-9.02563e-07 1.88401e-06 -0.000999885)
(-9.88941e-07 1.82918e-06 -0.00100018)
(-1.95348e-07 4.04002e-07 -0.00100135)
(-5.62985e-07 4.02927e-07 -0.00100148)
(-8.62257e-07 3.9916e-07 -0.00100172)
(-1.06238e-06 3.93427e-07 -0.00100202)
(-1.14813e-06 3.85971e-07 -0.00100236)
(-1.97598e-07 1.18266e-06 -0.00100111)
(-5.69763e-07 1.17871e-06 -0.00100124)
(-8.73528e-07 1.16621e-06 -0.00100147)
(-1.07775e-06 1.14763e-06 -0.00100178)
(-1.16661e-06 1.12388e-06 -0.00100212)
(-2.01982e-07 1.86673e-06 -0.00100063)
(-5.82898e-07 1.85814e-06 -0.00100076)
(-8.9512e-07 1.83424e-06 -0.001001)
(-1.10689e-06 1.79971e-06 -0.00100131)
(-1.20139e-06 1.75673e-06 -0.00100167)
(-2.09794e-07 2.39735e-06 -0.000999953)
(-6.05926e-07 2.38244e-06 -0.00100009)
(-9.32008e-07 2.34502e-06 -0.00100033)
(-1.15527e-06 2.29227e-06 -0.00100066)
(-1.25756e-06 2.22828e-06 -0.00100103)
(-2.21503e-07 2.71981e-06 -0.000999118)
(-6.39911e-07 2.69839e-06 -0.000999258)
(-9.85324e-07 2.64784e-06 -0.000999521)
(-1.22363e-06 2.57794e-06 -0.000999873)
(-1.33535e-06 2.49464e-06 -0.00100027)
(-2.69813e-07 5.42957e-07 -0.00100183)
(-7.74552e-07 5.42632e-07 -0.00100202)
(-1.17734e-06 5.39436e-07 -0.00100236)
(-1.43609e-06 5.33703e-07 -0.00100278)
(-1.53521e-06 5.25194e-07 -0.00100325)
(-2.71731e-07 1.59325e-06 -0.00100152)
(-7.80697e-07 1.5905e-06 -0.0010017)
(-1.18866e-06 1.57793e-06 -0.00100203)
(-1.45327e-06 1.55722e-06 -0.00100246)
(-1.55767e-06 1.52827e-06 -0.00100292)
(-2.76191e-07 2.52699e-06 -0.00100089)
(-7.94571e-07 2.51743e-06 -0.00100107)
(-1.21304e-06 2.48837e-06 -0.0010014)
(-1.48869e-06 2.44451e-06 -0.00100183)
(-1.6025e-06 2.38735e-06 -0.00100229)
(-2.86179e-07 3.26767e-06 -0.000999988)
(-8.2428e-07 3.24704e-06 -0.00100017)
(-1.26164e-06 3.19509e-06 -0.00100051)
(-1.55431e-06 3.12089e-06 -0.00100094)
(-1.68073e-06 3.02927e-06 -0.00100143)
(-3.03101e-07 3.73877e-06 -0.000998855)
(-8.73539e-07 3.70563e-06 -0.000999048)
(-1.33925e-06 3.62946e-06 -0.000999407)
(-1.65451e-06 3.52424e-06 -0.000999879)
(-1.79585e-06 3.39859e-06 -0.00100041)
(-3.78504e-07 7.22242e-07 -0.00100245)
(-1.0808e-06 7.24746e-07 -0.00100273)
(-1.62486e-06 7.25533e-07 -0.00100323)
(-1.95296e-06 7.23209e-07 -0.00100384)
(-2.05455e-06 7.16225e-07 -0.00100447)
(-3.78156e-07 2.1261e-06 -0.00100205)
(-1.08106e-06 2.12955e-06 -0.00100232)
(-1.62965e-06 2.12479e-06 -0.0010028)
(-1.9662e-06 2.10968e-06 -0.0010034)
(-2.07735e-06 2.08085e-06 -0.00100402)
(-3.79969e-07 3.39555e-06 -0.00100126)
(-1.08847e-06 3.38922e-06 -0.00100151)
(-1.64804e-06 3.36107e-06 -0.00100197)
(-2.00087e-06 3.31313e-06 -0.00100255)
(-2.12882e-06 3.24363e-06 -0.00100317)
(-3.91097e-07 4.43419e-06 -0.00100007)
(-1.12224e-06 4.40741e-06 -0.00100032)
(-1.70582e-06 4.33888e-06 -0.00100078)
(-2.08368e-06 4.23908e-06 -0.00100136)
(-2.23306e-06 4.11184e-06 -0.001002)
(-4.15264e-07 5.13203e-06 -0.000998546)
(-1.19244e-06 5.08079e-06 -0.000998812)
(-1.81645e-06 4.96651e-06 -0.000999298)
(-2.22791e-06 4.80952e-06 -0.000999927)
(-2.40137e-06 4.62134e-06 -0.00100062)
(-5.43297e-07 9.4585e-07 -0.00100321)
(-1.54159e-06 9.56353e-07 -0.00100365)
(-2.28151e-06 9.70371e-07 -0.00100441)
(-2.68291e-06 9.80515e-07 -0.00100531)
(-2.75594e-06 9.82211e-07 -0.0010062)
(-5.35707e-07 2.79497e-06 -0.00100273)
(-1.52189e-06 2.81793e-06 -0.00100313)
(-2.26177e-06 2.8436e-06 -0.00100385)
(-2.67635e-06 2.85626e-06 -0.00100471)