/*--------------------------------*- C++ -*----------------------------------*\
| =========                 |                                                 |
| \\      /  F ield         | OpenFOAM: The Open Source CFD Toolbox           |
|  \\    /   O peration     | Version:  5.x                                   |
|   \\  /    A nd           | Web:      www.OpenFOAM.org                      |
|    \\/     M anipulation  |                                                 |
\*---------------------------------------------------------------------------*/
FoamFile
{
    version     2.0;
    format      ascii;
    class       volVectorField;
    location    "400";
    object      stored_U;
}
// * * * * * * * * * * * * * * * * * * * * * * * * * * * * * * * * * * * * * //

dimensions      [0 1 -1 0 0 0 0];

internalField   nonuniform List<vector> 
90
(
(1.37037e-09 -1.69172e-09 -0.000999984)
(2.51902e-09 -3.41775e-09 -0.000999983)
(3.92729e-09 -5.45791e-09 -0.000999981)
(5.48232e-09 -7.71481e-09 -0.000999977)
(7.20924e-09 -1.02489e-08 -0.000999973)
(9.13782e-09 -1.31328e-08 -0.000999968)
(1.12915e-08 -1.6443e-08 -0.000999962)
(1.36851e-08 -2.026e-08 -0.000999955)
(1.63194e-08 -2.46639e-08 -0.000999946)
(1.91742e-08 -2.97305e-08 -0.000999936)
(2.21993e-08 -3.55263e-08 -0.000999925)
(2.53012e-08 -4.21008e-08 -0.000999912)
(2.83234e-08 -4.94731e-08 -0.000999898)
(3.10193e-08 -5.76115e-08 -0.000999881)
(3.30134e-08 -6.64043e-08 -0.000999863)
(3.37499e-08 -7.56168e-08 -0.000999843)
(3.24228e-08 -8.48324e-08 -0.000999821)
(2.78844e-08 -9.33698e-08 -0.000999797)
(1.85294e-08 -1.00168e-07 -0.000999773)
(2.1942e-09 -1.03646e-07 -0.00099975)
(-2.43487e-08 -1.01352e-07 -0.000999732)
(-6.59334e-08 -8.95739e-08 -0.000999724)
(-1.29141e-07 -6.30646e-08 -0.000999731)
(-2.23015e-07 -1.44499e-08 -0.000999763)
(-3.59875e-07 6.64022e-08 -0.000999834)
(-5.5692e-07 1.94254e-07 -0.000999965)
(-8.37725e-07 3.89702e-07 -0.00100018)
(-1.23451e-06 6.81316e-07 -0.00100053)
(-1.79126e-06 1.10862e-06 -0.00100106)
(-2.56784e-06 1.72607e-06 -0.00100185)
(-3.64567e-06 2.60852e-06 -0.001003)
(-5.13542e-06 3.85878e-06 -0.00100468)
(-7.18856e-06 5.6183e-06 -0.00100714)
(-1.00134e-05 8.07933e-06 -0.00101046)
(-1.38793e-05 1.14903e-05 -0.00101279)
(-1.91028e-05 1.62256e-05 -0.00101129)
(-2.53191e-05 2.23921e-05 -0.00103886)
(-3.0167e-05 2.81692e-05 -0.00125256)
(-4.41519e-05 3.68264e-05 -0.000347887)
(5.70891e-05 -2.83547e-05 -0.00257752)
(-4.62335e-06 2.19323e-06 -0.00120377)
(-6.69088e-05 2.23102e-05 -0.00297236)
(-2.63519e-05 2.32871e-05 -0.00192177)
(-8.76828e-05 3.2938e-05 -0.00318293)
(-8.83468e-05 -3.10352e-05 -0.00225857)
(-9.18775e-05 -7.37556e-06 -0.00324576)
(-6.65354e-05 5.54701e-05 -0.00197327)
(-2.99701e-05 0.000139998 -0.003316)
(1.93341e-06 4.11359e-05 -0.00233074)
(-6.36929e-05 -2.38246e-05 -0.00275641)
(-5.15684e-05 -3.75319e-05 -0.00264384)
(-2.69221e-05 2.63936e-07 -0.00170378)
(-8.36863e-06 5.76885e-05 -0.00246785)
(9.5675e-05 -4.70819e-05 -0.00111418)
(8.56569e-05 -5.93624e-05 -0.00108278)
(6.39198e-05 -4.69568e-05 -0.00108946)
(4.90546e-05 -3.57191e-05 -0.00107318)
(3.78773e-05 -2.71477e-05 -0.00105638)
(2.92894e-05 -2.06423e-05 -0.00104342)
(2.26742e-05 -1.56977e-05 -0.00103358)
(1.75758e-05 -1.19425e-05 -0.00102602)
(1.36426e-05 -9.09252e-06 -0.00102019)
(1.06048e-05 -6.9287e-06 -0.00101568)
(8.25556e-06 -5.28295e-06 -0.0010122)
(6.43612e-06 -4.03108e-06 -0.00100951)
(5.02478e-06 -3.07878e-06 -0.00100742)
(3.92831e-06 -2.35375e-06 -0.00100579)
(3.07517e-06 -1.80127e-06 -0.00100453)
(2.41041e-06 -1.3799e-06 -0.00100355)
(1.89173e-06 -1.05824e-06 -0.00100278)
(1.48649e-06 -8.12495e-07 -0.00100219)
(1.16951e-06 -6.24583e-07 -0.00100172)
(9.21275e-07 -4.80773e-07 -0.00100135)
(7.26699e-07 -3.70621e-07 -0.00100107)
(5.7407e-07 -2.86179e-07 -0.00100084)
(4.54272e-07 -2.21389e-07 -0.00100066)
(3.60135e-07 -1.71635e-07 -0.00100052)
(2.86071e-07 -1.33396e-07 -0.00100041)
(2.27742e-07 -1.0398e-07 -0.00100033)
(1.81768e-07 -8.13307e-08 -0.00100026)
(1.45515e-07 -6.38784e-08 -0.0010002)
(1.16934e-07 -5.0425e-08 -0.00100016)
(9.44261e-08 -4.00598e-08 -0.00100012)
(7.67541e-08 -3.20925e-08 -0.0010001)
(6.29599e-08 -2.60028e-08 -0.00100008)
(5.23064e-08 -2.14043e-08 -0.00100006)
(4.42265e-08 -1.8012e-08 -0.00100004)
(3.82546e-08 -1.56166e-08 -0.00100003)
(3.39549e-08 -1.39896e-08 -0.00100002)
(3.17761e-08 -1.30345e-08 -0.00100001)
)
;

boundaryField
{
    inlet
    {
        type            calculated;
        value           uniform (3.17761e-08 -1.30345e-08 -0.00100001);
    }
    outlet
    {
        type            calculated;
        value           uniform (1.37037e-09 -1.69172e-09 -0.000999984);
    }
    repeat_boundary
    {
        type            calculated;
        value           nonuniform List<vector> 
180
(
(1.37037e-09 0 -0.000999984)
(2.51902e-09 0 -0.000999983)
(3.92729e-09 0 -0.000999981)
(5.48232e-09 0 -0.000999977)
(7.20924e-09 0 -0.000999973)
(9.13782e-09 0 -0.000999968)
(1.12915e-08 0 -0.000999962)
(1.36851e-08 0 -0.000999955)
(1.63194e-08 0 -0.000999946)
(1.91742e-08 0 -0.000999936)
(2.21993e-08 0 -0.000999925)
(2.53012e-08 0 -0.000999912)
(2.83234e-08 0 -0.000999898)
(3.10193e-08 0 -0.000999881)
(3.30134e-08 0 -0.000999863)
(3.37499e-08 0 -0.000999843)
(3.24228e-08 0 -0.000999821)
(2.78844e-08 0 -0.000999797)
(1.85294e-08 0 -0.000999773)
(2.1942e-09 0 -0.00099975)
(-2.43487e-08 0 -0.000999732)
(-6.59334e-08 0 -0.000999724)
(-1.29141e-07 0 -0.000999731)
(-2.23015e-07 0 -0.000999763)
(-3.59875e-07 0 -0.000999834)
(-5.5692e-07 0 -0.000999965)
(-8.37725e-07 0 -0.00100018)
(-1.23451e-06 0 -0.00100053)
(-1.79126e-06 0 -0.00100106)
(-2.56784e-06 0 -0.00100185)
(-3.64567e-06 0 -0.001003)
(-5.13542e-06 0 -0.00100468)
(-7.18856e-06 0 -0.00100714)
(-1.00134e-05 0 -0.00101046)
(-1.38793e-05 0 -0.00101279)
(-1.91028e-05 0 -0.00101129)
(-2.53191e-05 0 -0.00103886)
(-3.0167e-05 0 -0.00125256)
(-4.41519e-05 0 -0.000347887)
(5.70891e-05 0 -0.00257752)
(-4.62335e-06 0 -0.00120377)
(-6.69088e-05 0 -0.00297236)
(-2.63519e-05 0 -0.00192177)
(-8.76828e-05 0 -0.00318293)
(-8.83468e-05 0 -0.00225857)
(-9.18775e-05 0 -0.00324576)
(-6.65354e-05 0 -0.00197327)
(-2.99701e-05 0 -0.003316)
(1.93341e-06 0 -0.00233074)
(-6.36929e-05 0 -0.00275641)
(-5.15684e-05 0 -0.00264384)
(-2.69221e-05 0 -0.00170378)
(-8.36863e-06 0 -0.00246785)
(9.5675e-05 0 -0.00111418)
(8.56569e-05 0 -0.00108278)
(6.39198e-05 0 -0.00108946)
(4.90546e-05 0 -0.00107318)
(3.78773e-05 0 -0.00105638)
(2.92894e-05 0 -0.00104342)
(2.26742e-05 0 -0.00103358)
(1.75758e-05 0 -0.00102602)
(1.36426e-05 0 -0.00102019)
(1.06048e-05 0 -0.00101568)
(8.25556e-06 0 -0.0010122)
(6.43612e-06 0 -0.00100951)
(5.02478e-06 0 -0.00100742)
(3.92831e-06 0 -0.00100579)
(3.07517e-06 0 -0.00100453)
(2.41041e-06 0 -0.00100355)
(1.89173e-06 0 -0.00100278)
(1.48649e-06 0 -0.00100219)
(1.16951e-06 0 -0.00100172)
(9.21275e-07 0 -0.00100135)
(7.26699e-07 0 -0.00100107)
(5.7407e-07 0 -0.00100084)
(4.54272e-07 0 -0.00100066)
(3.60135e-07 0 -0.00100052)
(2.86071e-07 0 -0.00100041)
(2.27742e-07 0 -0.00100033)
(1.81768e-07 0 -0.00100026)
(1.45515e-07 0 -0.0010002)
(1.16934e-07 0 -0.00100016)
(9.44261e-08 0 -0.00100012)
(7.67541e-08 0 -0.0010001)
(6.29599e-08 0 -0.00100008)
(5.23064e-08 0 -0.00100006)
(4.42265e-08 0 -0.00100004)
(3.82546e-08 0 -0.00100003)
(3.39549e-08 0 -0.00100002)
(3.17761e-08 0 -0.00100001)
(0 -1.69172e-09 -0.000999984)
(0 -3.41775e-09 -0.000999983)
(0 -5.45791e-09 -0.000999981)
(0 -7.71481e-09 -0.000999977)
(0 -1.02489e-08 -0.000999973)
(0 -1.31328e-08 -0.000999968)
(0 -1.6443e-08 -0.000999962)
(0 -2.026e-08 -0.000999955)
(0 -2.46639e-08 -0.000999946)
(0 -2.97305e-08 -0.000999936)
(0 -3.55263e-08 -0.000999925)
(0 -4.21008e-08 -0.000999912)
(0 -4.94731e-08 -0.000999898)
(0 -5.76115e-08 -0.000999881)
(0 -6.64043e-08 -0.000999863)
(0 -7.56168e-08 -0.000999843)
(0 -8.48324e-08 -0.000999821)
(0 -9.33698e-08 -0.000999797)
(0 -1.00168e-07 -0.000999773)
(0 -1.03646e-07 -0.00099975)
(0 -1.01352e-07 -0.000999732)
(0 -8.95739e-08 -0.000999724)
(0 -6.30646e-08 -0.000999731)
(0 -1.44499e-08 -0.000999763)
(0 6.64022e-08 -0.000999834)
(0 1.94254e-07 -0.000999965)
(0 3.89702e-07 -0.00100018)
(0 6.81316e-07 -0.00100053)
(0 1.10862e-06 -0.00100106)
(0 1.72607e-06 -0.00100185)
(0 2.60852e-06 -0.001003)
(0 3.85878e-06 -0.00100468)
(0 5.6183e-06 -0.00100714)
(0 8.07933e-06 -0.00101046)
(0 1.14903e-05 -0.00101279)
(0 1.62256e-05 -0.00101129)
(0 2.23921e-05 -0.00103886)
(0 2.81692e-05 -0.00125256)
(0 3.68264e-05 -0.000347887)
(0 -2.83547e-05 -0.00257752)
(0 2.19323e-06 -0.00120377)
(0 2.23102e-05 -0.00297236)
(0 2.32871e-05 -0.00192177)
(0 3.2938e-05 -0.00318293)
(0 -3.10352e-05 -0.00225857)
(0 -7.37556e-06 -0.00324576)
(0 5.54701e-05 -0.00197327)
(0 0.000139998 -0.003316)
(0 4.11359e-05 -0.00233074)
(0 -2.38246e-05 -0.00275641)
(0 -3.75319e-05 -0.00264384)
(0 2.63936e-07 -0.00170378)
(0 5.76885e-05 -0.00246785)
(0 -4.70819e-05 -0.00111418)
(0 -5.93624e-05 -0.00108278)
(0 -4.69568e-05 -0.00108946)
(0 -3.57191e-05 -0.00107318)
(0 -2.71477e-05 -0.00105638)
(0 -2.06423e-05 -0.00104342)
(0 -1.56977e-05 -0.00103358)
(0 -1.19425e-05 -0.00102602)
(0 -9.09252e-06 -0.00102019)
(0 -6.9287e-06 -0.00101568)
(0 -5.28295e-06 -0.0010122)
(0 -4.03108e-06 -0.00100951)
(0 -3.07878e-06 -0.00100742)
(0 -2.35375e-06 -0.00100579)
(0 -1.80127e-06 -0.00100453)
(0 -1.3799e-06 -0.00100355)
(0 -1.05824e-06 -0.00100278)
(0 -8.12495e-07 -0.00100219)
(0 -6.24583e-07 -0.00100172)
(0 -4.80773e-07 -0.00100135)
(0 -3.70621e-07 -0.00100107)
(0 -2.86179e-07 -0.00100084)
(0 -2.21389e-07 -0.00100066)
(0 -1.71635e-07 -0.00100052)
(0 -1.33396e-07 -0.00100041)
(0 -1.0398e-07 -0.00100033)
(0 -8.13307e-08 -0.00100026)
(0 -6.38784e-08 -0.0010002)
(0 -5.0425e-08 -0.00100016)
(0 -4.00598e-08 -0.00100012)
(0 -3.20925e-08 -0.0010001)
(0 -2.60028e-08 -0.00100008)
(0 -2.14043e-08 -0.00100006)
(0 -1.8012e-08 -0.00100004)
(0 -1.56166e-08 -0.00100003)
(0 -1.39896e-08 -0.00100002)
(0 -1.30345e-08 -0.00100001)
)
;
    }
    procBoundary1to0
    {
        type            processor;
        value           nonuniform List<vector> 
90
(
(1.37038e-09 -2.30517e-09 -0.000999997)
(2.51904e-09 -5.02348e-09 -0.000999997)
(3.92732e-09 -8.18874e-09 -0.000999996)
(5.48244e-09 -1.17424e-08 -0.000999994)
(7.20945e-09 -1.58465e-08 -0.000999992)
(9.13775e-09 -2.07117e-08 -0.000999989)
(1.12913e-08 -2.65988e-08 -0.000999985)
(1.36851e-08 -3.38353e-08 -0.00099998)
(1.63194e-08 -4.28224e-08 -0.000999974)
(1.91743e-08 -5.40694e-08 -0.000999967)
(2.21994e-08 -6.82183e-08 -0.000999957)
(2.53013e-08 -8.60834e-08 -0.000999944)
(2.83237e-08 -1.08702e-07 -0.000999928)
(3.10198e-08 -1.37399e-07 -0.000999906)
(3.30141e-08 -1.73874e-07 -0.000999878)
(3.3751e-08 -2.20309e-07 -0.000999841)
(3.24248e-08 -2.79513e-07 -0.000999793)
(2.78877e-08 -3.55105e-07 -0.00099973)
(1.85353e-08 -4.51742e-07 -0.000999646)
(2.20481e-09 -5.75396e-07 -0.000999537)
(-2.43295e-08 -7.33893e-07 -0.000999392)
(-6.5898e-08 -9.37571e-07 -0.000999198)
(-1.29076e-07 -1.19984e-06 -0.000998942)
(-2.22894e-07 -1.53818e-06 -0.000998603)
(-3.59653e-07 -1.97543e-06 -0.000998153)
(-5.56516e-07 -2.54146e-06 -0.000997557)
(-8.36987e-07 -3.27539e-06 -0.000996768)
(-1.23316e-06 -4.22851e-06 -0.000995721)
(-1.78878e-06 -5.46812e-06 -0.000994332)
(-2.56328e-06 -7.08263e-06 -0.000992489)
(-3.63731e-06 -9.18822e-06 -0.000990043)
(-5.12027e-06 -1.19381e-05 -0.000986805)
(-7.16366e-06 -1.55398e-05 -0.00098256)
(-9.99697e-06 -2.03096e-05 -0.000976796)
(-1.40444e-05 -2.68539e-05 -0.000966916)
(-1.85736e-05 -3.39e-05 -0.000954974)
(-2.50077e-05 -4.36542e-05 -0.000962657)
(-3.00716e-05 -5.089e-05 -0.00106552)
(-4.58066e-05 -6.90812e-05 -0.000407539)
(6.05323e-05 7.63386e-05 -0.0019504)
(-7.47501e-06 -7.25451e-06 -0.00168847)
(-4.00836e-05 -6.20276e-05 -0.00155167)
(-3.23065e-05 -5.06949e-05 -0.00240018)
(-7.0526e-05 -4.92877e-05 -0.0021605)
(-9.33707e-05 -6.38127e-05 -0.00242415)
(-6.0264e-05 -1.75409e-05 -0.00182603)
(-7.30234e-05 4.29162e-05 -0.00259932)
(-3.06719e-05 7.74445e-05 -0.0017564)
(4.71817e-06 0.000103114 -0.00234501)
(-6.56275e-05 -2.16018e-06 -0.0022979)
(-5.43881e-05 -8.96806e-06 -0.0016462)
(-4.67883e-05 3.97831e-05 -0.00164747)
(-3.74153e-05 4.49384e-05 -0.00181607)
(1.07996e-05 -8.8754e-07 -0.000946875)
(7.54182e-05 3.3708e-05 -0.000880934)
(6.40069e-05 3.03717e-05 -0.000913966)
(4.94486e-05 2.25735e-05 -0.000941122)
(3.81181e-05 1.64393e-05 -0.000955693)
(2.94283e-05 1.19406e-05 -0.000966074)
(2.27543e-05 8.64558e-06 -0.000974062)
(1.7622e-05 6.23788e-06 -0.000980175)
(1.36694e-05 4.48499e-06 -0.00098483)
(1.06204e-05 3.21212e-06 -0.000988376)
(8.26468e-06 2.28824e-06 -0.000991079)
(6.44146e-06 1.61984e-06 -0.000993141)
(5.02792e-06 1.13812e-06 -0.000994717)
(3.93016e-06 7.91972e-07 -0.000995924)
(3.07626e-06 5.44221e-07 -0.000996849)
(2.41106e-06 3.67812e-07 -0.000997561)
(1.89212e-06 2.43044e-07 -0.00099811)
(1.48673e-06 1.55556e-07 -0.000998533)
(1.16965e-06 9.48945e-08 -0.00099886)
(9.2136e-07 5.34696e-08 -0.000999113)
(7.2675e-07 2.57945e-08 -0.000999309)
(5.74101e-07 7.91277e-09 -0.000999462)
(4.54291e-07 -3.05456e-09 -0.00099958)
(3.60146e-07 -9.33283e-09 -0.000999672)
(2.86078e-07 -1.25184e-08 -0.000999743)
(2.27746e-07 -1.37163e-08 -0.000999798)
(1.8177e-07 -1.369e-08 -0.000999841)
(1.45517e-07 -1.29623e-08 -0.000999875)
(1.16935e-07 -1.18851e-08 -0.000999901)
(9.44268e-08 -1.06898e-08 -0.000999922)
(7.67546e-08 -9.52274e-09 -0.000999938)
(6.29599e-08 -8.47205e-09 -0.000999952)
(5.23065e-08 -7.58791e-09 -0.000999962)
(4.42264e-08 -6.89915e-09 -0.000999972)
(3.82534e-08 -6.42561e-09 -0.000999979)
(3.39562e-08 -6.1284e-09 -0.000999987)
(3.17762e-08 -5.82738e-09 -0.000999993)
)
;
    }
    procBoundary1to3
    {
        type            processor;
        value           nonuniform List<vector> 
90
(
(1.98381e-09 -1.69173e-09 -0.001)
(4.12474e-09 -3.41776e-09 -0.001)
(6.65806e-09 -5.4579e-09 -0.001)
(9.50971e-09 -7.71481e-09 -0.001)
(1.28064e-08 -1.02489e-08 -0.001)
(1.67168e-08 -1.31328e-08 -0.001)
(2.14478e-08 -1.64431e-08 -0.000999998)
(2.72605e-08 -2.026e-08 -0.000999996)
(3.44779e-08 -2.4664e-08 -0.000999994)
(4.35132e-08 -2.97306e-08 -0.000999992)
(5.48914e-08 -3.55264e-08 -0.000999988)
(6.92838e-08 -4.2101e-08 -0.000999983)
(8.75521e-08 -4.94734e-08 -0.000999977)
(1.10807e-07 -5.7612e-08 -0.000999968)
(1.40483e-07 -6.6405e-08 -0.000999955)
(1.78442e-07 -7.5618e-08 -0.000999937)
(2.27104e-07 -8.48343e-08 -0.000999912)
(2.8962e-07 -9.3373e-08 -0.000999876)
(3.70105e-07 -1.00173e-07 -0.000999827)
(4.73946e-07 -1.03655e-07 -0.000999758)
(6.08197e-07 -1.01369e-07 -0.000999663)
(7.82071e-07 -8.96044e-08 -0.000999532)
(1.00765e-06 -6.31197e-08 -0.000999354)
(1.30074e-06 -1.45502e-08 -0.000999111)
(1.68201e-06 6.62188e-08 -0.000998782)
(2.17889e-06 1.93917e-07 -0.000998334)
(2.82753e-06 3.8908e-07 -0.000997725)
(3.67558e-06 6.80165e-07 -0.000996899)
(4.78593e-06 1.10649e-06 -0.000995782)
(6.24162e-06 1.72212e-06 -0.00099427)
(8.15238e-06 2.60121e-06 -0.000992226)
(1.06639e-05 3.84555e-06 -0.00098948)
(1.3975e-05 5.59736e-06 -0.000985855)
(1.83899e-05 8.07111e-06 -0.000980887)
(2.44696e-05 1.16476e-05 -0.000971627)
(3.10444e-05 1.57269e-05 -0.000958303)
(4.07621e-05 2.21054e-05 -0.000962715)
(4.8895e-05 2.80729e-05 -0.00111095)
(6.13999e-05 3.80736e-05 -0.000334351)
(-4.31898e-05 -2.82971e-05 -0.00210762)
(3.99633e-06 2.73672e-06 -0.00157137)
(3.77407e-05 1.21689e-05 -0.00164863)
(5.87446e-05 3.50668e-05 -0.00283457)
(-5.06427e-06 1.3265e-05 -0.00161932)
(-6.61556e-05 -3.39565e-05 -0.00268861)
(-6.05025e-05 -4.54166e-06 -0.00204883)
(-5.81388e-05 8.99897e-05 -0.00250469)
(-5.52083e-05 7.54186e-05 -0.00200415)
(-5.12893e-05 3.89664e-05 -0.00266874)
(-6.45723e-05 -1.61529e-05 -0.00162779)
(-9.04998e-05 -3.58182e-05 -0.00275507)
(-4.35834e-05 -1.42901e-05 -0.00111606)
(-8.47021e-05 2.66835e-06 -0.00200775)
(5.96042e-06 -1.51458e-05 -0.00103212)
(-2.13032e-05 -5.32009e-05 -0.000940829)
(-1.47221e-05 -4.70748e-05 -0.000950322)
(-9.26932e-06 -3.60355e-05 -0.000970701)
(-5.67464e-06 -2.73341e-05 -0.000979471)
(-3.26938e-06 -2.07471e-05 -0.000985187)
(-1.65452e-06 -1.57567e-05 -0.000989407)
(-5.95846e-07 -1.19758e-05 -0.000992525)
(7.03445e-08 -9.11128e-06 -0.00099479)
(4.67183e-07 -6.93923e-06 -0.000996402)
(6.86216e-07 -5.28898e-06 -0.000997546)
(7.8633e-07 -4.03444e-06 -0.000998364)
(8.08579e-07 -3.08065e-06 -0.000998941)
(7.82998e-07 -2.3548e-06 -0.000999342)
(7.29924e-07 -1.80186e-06 -0.000999616)
(6.6285e-07 -1.38023e-06 -0.000999801)
(5.90531e-07 -1.05843e-06 -0.000999923)
(5.18497e-07 -8.126e-07 -0.001)
(4.50063e-07 -6.24642e-07 -0.00100005)
(3.87052e-07 -4.80806e-07 -0.00100007)
(3.30295e-07 -3.7064e-07 -0.00100009)
(2.79985e-07 -2.8619e-07 -0.00100009)
(2.35942e-07 -2.21395e-07 -0.00100009)
(1.97835e-07 -1.71639e-07 -0.00100008)
(1.65196e-07 -1.33398e-07 -0.00100007)
(1.37479e-07 -1.03981e-07 -0.00100006)
(1.14127e-07 -8.13314e-08 -0.00100006)
(9.45995e-08 -6.38788e-08 -0.00100005)
(7.83939e-08 -5.04252e-08 -0.00100004)
(6.50564e-08 -4.00598e-08 -0.00100003)
(5.41847e-08 -3.20924e-08 -0.00100003)
(4.54287e-08 -2.60031e-08 -0.00100002)
(3.849e-08 -2.14043e-08 -0.00100002)
(3.31133e-08 -1.80116e-08 -0.00100001)
(2.90597e-08 -1.56147e-08 -0.00100001)
(2.60979e-08 -1.39916e-08 -0.00100001)
(2.45692e-08 -1.30348e-08 -0.001)
)
;
    }
}


// ************************************************************************* //
