/*--------------------------------*- C++ -*----------------------------------*\
| =========                 |                                                 |
| \\      /  F ield         | OpenFOAM: The Open Source CFD Toolbox           |
|  \\    /   O peration     | Version:  5.x                                   |
|   \\  /    A nd           | Web:      www.OpenFOAM.org                      |
|    \\/     M anipulation  |                                                 |
\*---------------------------------------------------------------------------*/
FoamFile
{
    version     2.0;
    format      ascii;
    class       volVectorField;
    location    "400";
    object      Us;
}
// * * * * * * * * * * * * * * * * * * * * * * * * * * * * * * * * * * * * * //

dimensions      [0 1 -1 0 0 0 0];

internalField   nonuniform List<vector> 
90
(
(0 0 0)
(0 0 0)
(0 0 0)
(0 0 0)
(0 0 0)
(0 0 0)
(0 0 0)
(0 0 0)
(0 0 0)
(0 0 0)
(0 0 0)
(0 0 0)
(0 0 0)
(0 0 0)
(0 0 0)
(0 0 0)
(0 0 0)
(0 0 0)
(0 0 0)
(0 0 0)
(0 0 0)
(0 0 0)
(0 0 0)
(0 0 0)
(0 0 0)
(0 0 0)
(0 0 0)
(0 0 0)
(0 0 0)
(0 0 0)
(0 0 0)
(0 0 0)
(0 0 0)
(0 0 0)
(0 0 0)
(0 0 0)
(0 0 0)
(0 0 0)
(0 0 0)
(0 0 0)
(4.87073e-06 2.21224e-06 2.02899e-08)
(1.04009e-05 4.15524e-06 3.94652e-07)
(1.49565e-05 5.46484e-06 6.81149e-07)
(2.10061e-05 7.01824e-06 9.29946e-07)
(2.66912e-05 7.73938e-06 9.15461e-07)
(3.06185e-05 9.14603e-06 1.54548e-06)
(3.72963e-05 1.07847e-05 1.97357e-06)
(4.07911e-05 1.29934e-05 6.32003e-07)
(4.45159e-05 1.11759e-05 -9.25775e-07)
(4.95059e-05 9.63681e-06 -3.12013e-06)
(5.54292e-05 1.02711e-05 -7.32748e-06)
(5.29043e-05 1.93634e-05 -1.22247e-05)
(2.25582e-05 6.19163e-05 -2.12902e-05)
(0 0 0)
(0 0 0)
(0 0 0)
(0 0 0)
(0 0 0)
(0 0 0)
(0 0 0)
(0 0 0)
(0 0 0)
(0 0 0)
(0 0 0)
(0 0 0)
(0 0 0)
(0 0 0)
(0 0 0)
(0 0 0)
(0 0 0)
(0 0 0)
(0 0 0)
(0 0 0)
(0 0 0)
(0 0 0)
(0 0 0)
(0 0 0)
(0 0 0)
(0 0 0)
(0 0 0)
(0 0 0)
(0 0 0)
(0 0 0)
(0 0 0)
(0 0 0)
(0 0 0)
(0 0 0)
(0 0 0)
(0 0 0)
(0 0 0)
)
;

boundaryField
{
    inlet
    {
        type            fixedValue;
        value           uniform (0 0 0);
    }
    outlet
    {
        type            fixedValue;
        value           uniform (0 0 0);
    }
    repeat_boundary
    {
        type            fixedValue;
        value           uniform (0 0 0);
    }
    procBoundary1to0
    {
        type            processor;
        value           nonuniform List<vector> 
90
(
(0 0 0)
(0 0 0)
(0 0 0)
(0 0 0)
(0 0 0)
(0 0 0)
(0 0 0)
(0 0 0)
(0 0 0)
(0 0 0)
(0 0 0)
(0 0 0)
(0 0 0)
(0 0 0)
(0 0 0)
(0 0 0)
(0 0 0)
(0 0 0)
(0 0 0)
(0 0 0)
(0 0 0)
(0 0 0)
(0 0 0)
(0 0 0)
(0 0 0)
(0 0 0)
(0 0 0)
(0 0 0)
(0 0 0)
(0 0 0)
(0 0 0)
(0 0 0)
(0 0 0)
(0 0 0)
(0 0 0)
(0 0 0)
(0 0 0)
(0 0 0)
(0 0 0)
(0 0 0)
(4.51262e-06 1.77808e-06 -6.22249e-08)
(1.0665e-05 4.0287e-06 -4.68443e-07)
(1.66328e-05 6.38247e-06 -4.0661e-07)
(2.03649e-05 6.98682e-06 -1.39912e-07)
(2.46094e-05 7.21826e-06 4.39642e-07)
(2.97918e-05 8.12014e-06 5.20077e-07)
(3.53871e-05 8.9239e-06 3.53526e-07)
(3.95661e-05 8.99619e-06 -1.33921e-07)
(4.36094e-05 1.0082e-05 -1.77979e-06)
(4.81601e-05 8.98112e-06 -1.35486e-06)
(5.27609e-05 9.14841e-06 3.30566e-07)
(4.46001e-05 4.33089e-05 -3.2654e-05)
(-1.23691e-05 4.8538e-06 -0.0001497)
(-0.000675495 -0.000269407 -0.00063498)
(0 0 0)
(0 0 0)
(0 0 0)
(0 0 0)
(0 0 0)
(0 0 0)
(0 0 0)
(0 0 0)
(0 0 0)
(0 0 0)
(0 0 0)
(0 0 0)
(0 0 0)
(0 0 0)
(0 0 0)
(0 0 0)
(0 0 0)
(0 0 0)
(0 0 0)
(0 0 0)
(0 0 0)
(0 0 0)
(0 0 0)
(0 0 0)
(0 0 0)
(0 0 0)
(0 0 0)
(0 0 0)
(0 0 0)
(0 0 0)
(0 0 0)
(0 0 0)
(0 0 0)
(0 0 0)
(0 0 0)
(0 0 0)
)
;
    }
    procBoundary1to3
    {
        type            processor;
        value           nonuniform List<vector> 
90
(
(0 0 0)
(0 0 0)
(0 0 0)
(0 0 0)
(0 0 0)
(0 0 0)
(0 0 0)
(0 0 0)
(0 0 0)
(0 0 0)
(0 0 0)
(0 0 0)
(0 0 0)
(0 0 0)
(0 0 0)
(0 0 0)
(0 0 0)
(0 0 0)
(0 0 0)
(0 0 0)
(0 0 0)
(0 0 0)
(0 0 0)
(0 0 0)
(0 0 0)
(0 0 0)
(0 0 0)
(0 0 0)
(0 0 0)
(0 0 0)
(0 0 0)
(0 0 0)
(0 0 0)
(0 0 0)
(0 0 0)
(0 0 0)
(0 0 0)
(0 0 0)
(0 0 0)
(0 0 0)
(6.16789e-06 3.09739e-06 -9.2182e-08)
(1.139e-05 4.74055e-06 -4.81864e-07)
(1.58554e-05 5.90122e-06 -5.97854e-07)
(2.13676e-05 6.29053e-06 -5.56691e-08)
(2.75243e-05 6.9637e-06 8.13086e-07)
(3.12675e-05 8.13109e-06 8.07344e-07)
(3.62125e-05 9.78045e-06 5.20213e-07)
(4.12672e-05 1.0891e-05 1.97331e-06)
(4.68455e-05 1.02976e-05 1.71607e-06)
(5.04231e-05 1.25461e-05 7.57623e-07)
(5.32848e-05 1.27178e-05 2.36454e-06)
(4.84107e-05 1.05646e-06 -9.67475e-06)
(-6.29051e-05 -3.74374e-05 -8.98422e-05)
(-4.87677e-05 -2.54994e-05 -9.73615e-05)
(0 0 0)
(0 0 0)
(0 0 0)
(0 0 0)
(0 0 0)
(0 0 0)
(0 0 0)
(0 0 0)
(0 0 0)
(0 0 0)
(0 0 0)
(0 0 0)
(0 0 0)
(0 0 0)
(0 0 0)
(0 0 0)
(0 0 0)
(0 0 0)
(0 0 0)
(0 0 0)
(0 0 0)
(0 0 0)
(0 0 0)
(0 0 0)
(0 0 0)
(0 0 0)
(0 0 0)
(0 0 0)
(0 0 0)
(0 0 0)
(0 0 0)
(0 0 0)
(0 0 0)
(0 0 0)
(0 0 0)
(0 0 0)
)
;
    }
}


// ************************************************************************* //
