FoamFile
{version 2.0; format ascii;class Cloud<passiveParticle>; location 0;object  positions;}
344
(
( 1.96269 -0.814725 0.499617 ) 0 
( 3.20549 -2.12562 0.499621 ) 0 
( 0.265655 -1.42504 0.499905 ) 0 
( 1.28077 -1.54655 0.499922 ) 0 
( 0.161226 -3.71767 0.499967 ) 0 
( 4.64675 -3.15766 0.499945 ) 0 
( 0.953526 -0.601662 0.499928 ) 0 
( 1.32036 -3.07967 0.499794 ) 0 
( 4.07731 -3.97969 0.499975 ) 0 
( 1.58992 -4.98566 0.499882 ) 0 
( 3.23558 -4.88781 0.4997 ) 0 
( 3.92407 -0.825222 0.499833 ) 0 
( 0.119908 -4.94616 0.4996 ) 0 
( 2.86045 -3.62223 0.499538 ) 0 
( 0.626868 -2.35939 0.499768 ) 0 
( 2.33551 -2.61835 0.499639 ) 0 
( 3.65685 -3.01792 0.499644 ) 0 
( 3.94448 -1.32508 1.36538 ) 0 
( 4.92395 -0.80774 0.499977 ) 0 
( 2.98348 -2.8603 1.22142 ) 0 
( 2.96904 -1.15411 0.499936 ) 0 
( 2.22386 -1.7011 0.881316 ) 0 
( 0.217624 -2.72888 1.3337 ) 0 
( 2.74096 -0.180595 0.499516 ) 0 
( 2.3839 -4.45178 0.790316 ) 0 
( 1.59357 -0.195207 1.19198 ) 0 
( 2.07565 -3.39355 1.07485 ) 0 
( 0.0524183 -0.547807 0.92995 ) 0 
( 0.820398 -3.52217 1.25109 ) 0 
( 1.40266 -2.31062 1.13328 ) 0 
( 0.764198 -4.75441 1.23947 ) 0 
( 4.25587 -1.76841 0.499755 ) 0 
( 1.18708 -4.07062 0.499832 ) 0 
( 4.58095 -4.03621 1.36336 ) 0 
( 4.49195 -0.0936911 1.05612 ) 0 
( 3.8678 -2.35068 1.2137 ) 0 
( 3.38138 -4.09667 1.20849 ) 0 
( 0.726522 -1.15791 1.34612 ) 0 
( 1.55741 -3.01588 1.84162 ) 0 
( 2.50761 -0.688702 1.32816 ) 0 
( 3.06409 -1.794 1.43202 ) 0 
( 2.24077 -2.30466 1.67835 ) 0 
( 1.55809 -4.17495 1.42242 ) 0 
( 1.14278 -0.514208 2.02559 ) 0 
( 3.17726 -0.985071 2.00848 ) 0 
( 0.764602 -2.08583 1.86945 ) 0 
( 2.14211 -0.0636983 2.01754 ) 0 
( 4.86693 -1.39341 1.74457 ) 0 
( 3.91423 -3.30518 1.50743 ) 0 
( 2.94524 -4.96825 1.45283 ) 0 
( 0.377033 -4.36204 2.07352 ) 0 
( 4.55924 -3.68577 2.29992 ) 0 
( 1.69694 -1.21708 1.5797 ) 0 
( 2.51068 -4.0462 1.69729 ) 0 
( 1.25943 -4.84304 2.1036 ) 0 
( 4.47893 -2.27854 2.00137 ) 0 
( 0.148386 -0.489129 1.92334 ) 0 
( 1.63034 -2.23955 2.46755 ) 0 
( 0.586937 -0.401462 2.86262 ) 0 
( 3.94253 -4.65927 1.81485 ) 0 
( 3.55142 -3.85403 2.26034 ) 0 
( 2.74198 -1.80376 2.38368 ) 0 
( 2.59917 -3.13633 2.10225 ) 0 
( 3.37749 -2.50941 2.07038 ) 0 
( 1.19749 -3.83365 2.29031 ) 0 
( 0.283835 -3.73308 2.84532 ) 0 
( 2.6959 -0.49077 2.73226 ) 0 
( 4.76153 -0.422882 1.96058 ) 0 
( 1.65743 -1.2463 2.57827 ) 0 
( 4.07353 -2.89635 2.67507 ) 0 
( 0.451892 -1.30651 2.41206 ) 0 
( 3.35718 -2.25057 3.0355 ) 0 
( 0.69765 -2.96969 2.34939 ) 0 
( 4.93446 -0.681417 2.91035 ) 0 
( 0.72614 -2.13533 2.89907 ) 0 
( 4.29099 -1.91503 2.91343 ) 0 
( 2.20945 -1.92726 3.22087 ) 0 
( 3.66948 -0.210013 1.61262 ) 0 
( 4.13957 -1.09485 2.36217 ) 0 
( 2.93223 -4.62789 2.39264 ) 0 
( 1.87095 -3.1559 2.78711 ) 0 
( 3.15571 -3.22408 2.92842 ) 0 
( 2.10358 -4.11172 2.6082 ) 0 
( 0.944641 -1.23702 3.27921 ) 0 
( 0.109974 -2.64927 3.49546 ) 0 
( 4.27794 -4.87057 2.73253 ) 0 
( 2.60121 -3.87793 3.44313 ) 0 
( 3.50303 -4.43408 3.19032 ) 0 
( 1.02264 -3.00453 3.29419 ) 0 
( 1.07294 -4.32014 3.155 ) 0 
( 4.00027 -3.59494 3.40968 ) 0 
( 4.80294 -4.14076 3.16984 ) 0 
( 3.35063 -1.25392 2.9554 ) 0 
( 1.72605 -0.300519 2.89524 ) 0 
( 4.06134 -2.62377 3.63924 ) 0 
( 3.72751 -0.306536 2.81867 ) 0 
( 0.10387 -4.57684 3.51327 ) 0 
( 0.247767 -1.7154 3.82565 ) 0 
( 3.13811 -0.61582 3.69522 ) 0 
( 4.91795 -3.23452 3.57595 ) 0 
( 3.02116 -1.6904 3.79215 ) 0 
( 4.19897 -4.44038 3.90833 ) 0 
( 0.498461 -3.64036 3.8605 ) 0 
( 4.14725 -0.938682 3.4703 ) 0 
( 1.14598 -2.15438 3.80631 ) 0 
( 1.64733 -3.68329 3.67956 ) 0 
( 2.26262 -0.136798 3.75731 ) 0 
( 0.683824 -0.695321 4.07773 ) 0 
( 0.354475 -2.48794 4.45143 ) 0 
( 4.76655 -2.61761 4.34812 ) 0 
( 3.8076 -1.2152 4.36922 ) 0 
( 2.01264 -4.59876 3.84652 ) 0 
( 3.01365 -2.76239 3.82254 ) 0 
( 2.01669 -2.75646 3.74527 ) 0 
( 1.88678 -1.03964 3.54917 ) 0 
( 1.11673 -4.34402 4.21036 ) 0 
( 0.0436953 -4.31319 4.47585 ) 0 
( 4.52699 -1.77068 3.87396 ) 0 
( 3.18839 -4.23174 4.17078 ) 0 
( 1.17515 -3.03346 4.28183 ) 0 
( 3.93417 -0.0206215 3.80351 ) 0 
( 2.49921 -1.03664 4.33939 ) 0 
( 1.94682 -3.94839 4.60319 ) 0 
( 4.68587 -3.69194 4.43416 ) 0 
( 2.78321 -3.4025 4.55512 ) 0 
( 3.61172 -2.19434 4.42234 ) 0 
( 4.63674 -0.567773 4.25929 ) 0 
( 3.74969 -3.20607 4.39001 ) 0 
( 3.06121 -2.6343 5.13172 ) 0 
( 0.711775 -1.49125 4.68228 ) 0 
( 3.87422 -4.06902 4.87962 ) 0 
( 3.04835 -1.57968 4.97444 ) 0 
( 1.78311 -4.93805 4.75845 ) 0 
( 2.35485 -0.526991 5.18733 ) 0 
( 3.2359 -0.462745 4.69621 ) 0 
( 1.96193 -2.94239 4.89195 ) 0 
( 4.68774 -1.74816 4.86029 ) 0 
( 1.61598 -0.574963 4.41863 ) 0 
( 2.75593 -4.75737 4.90327 ) 0 
( 1.67696 -1.59582 4.44335 ) 0 
( 2.47041 -2.20415 4.44938 ) 0 
( 0.709033 -3.68468 4.88042 ) 0 
( 4.12895 -0.613794 5.11929 ) 0 
( 1.35853 -1.01571 5.2784 ) 0 
( 1.54258 -3.64339 5.46822 ) 0 
( 3.28199 -4.33363 5.64053 ) 0 
( 0.0906358 -4.69853 5.39729 ) 0 
( 1.18486 -2.31956 4.98236 ) 0 
( 1.91161 -2.82257 5.90413 ) 0 
( 4.48976 -3.07266 5.19421 ) 0 
( 3.57916 -3.38337 5.54459 ) 0 
( 3.21127 -0.836542 5.62335 ) 0 
( 1.49109 -0.025122 5.24547 ) 0 
( 2.05891 -1.98417 5.33359 ) 0 
( 4.72198 -4.02148 5.40767 ) 0 
( 1.26996 -2.05682 5.94345 ) 0 
( 2.833 -0.507501 6.4887 ) 0 
( 0.538928 -0.0590695 5.60931 ) 0 
( 2.19639 -4.37988 5.64074 ) 0 
( 2.58263 -3.46399 5.53272 ) 0 
( 0.790421 -2.99768 5.60242 ) 0 
( 3.93518 -2.4783 5.77615 ) 0 
( 3.91983 -1.52934 5.46198 ) 0 
( 2.92892 -1.75118 5.95224 ) 0 
( 0.53698 -1.43674 5.66506 ) 0 
( 4.08907 -4.04475 6.18128 ) 0 
( 4.94256 -1.03814 5.51642 ) 0 
( 1.01176 -3.81336 6.29812 ) 0 
( 1.06912 -4.51105 5.31297 ) 0 
( 2.11516 -1.17134 5.91326 ) 0 
( 1.60725 -0.353256 6.18286 ) 0 
( 2.48781 -4.94298 6.41385 ) 0 
( 3.55615 -1.19776 6.50011 ) 0 
( 4.64828 -0.0806455 5.7867 ) 0 
( 1.10353 -4.80846 6.26689 ) 0 
( 2.08577 -1.96946 6.51468 ) 0 
( 3.77209 -3.15099 6.49772 ) 0 
( 0.334216 -2.31193 6.18688 ) 0 
( 1.19093 -1.22766 6.49663 ) 0 
( 0.130637 -3.341 6.31018 ) 0 
( 2.27132 -2.89588 6.84151 ) 0 
( 2.94436 -2.7369 6.1194 ) 0 
( 4.81412 -1.98071 5.82437 ) 0 
( 1.13755 -2.85068 6.53657 ) 0 
( 0.202347 -4.39197 6.39444 ) 0 
( 2.08193 -1.02232 6.9014 ) 0 
( 0.872316 -3.51426 7.24201 ) 0 
( 3.76803 -0.190467 6.6465 ) 0 
( 2.00498 -3.74926 6.39267 ) 0 
( 0.676834 -0.371651 6.54886 ) 0 
( 1.58957 -1.74137 7.39149 ) 0 
( 4.49141 -0.861709 6.39095 ) 0 
( 1.89789 -3.63934 7.39587 ) 0 
( 3.57704 -2.18416 6.6619 ) 0 
( 2.8456 -1.64349 7.07679 ) 0 
( 4.58908 -2.58232 6.59049 ) 0 
( 0.433961 -1.19327 7.28403 ) 0 
( 3.43496 -4.67825 6.59441 ) 0 
( 0.719343 -2.13211 7.09194 ) 0 
( 2.8429 -0.731758 7.48712 ) 0 
( 2.72066 -4.47461 7.26602 ) 0 
( 0.788576 -4.53447 7.19166 ) 0 
( 4.69779 -0.113543 7.02123 ) 0 
( 4.07105 -0.850053 7.3339 ) 0 
( 4.79924 -4.5461 6.67522 ) 0 
( 4.54929 -1.66423 6.9845 ) 0 
( 3.00338 -3.78665 6.42982 ) 0 
( 1.76264 -4.53183 6.96596 ) 0 
( 3.6122 -3.91283 7.21296 ) 0 
( 1.43859 -2.72571 7.48181 ) 0 
( 0.499607 -2.78828 7.81988 ) 0 
( 1.2608 -0.63216 7.31744 ) 0 
( 2.08504 -0.0564417 7.44289 ) 0 
( 4.39927 -3.29803 7.26235 ) 0 
( 3.18045 -2.8825 7.25751 ) 0 
( 3.52345 -1.54134 7.8048 ) 0 
( 4.06563 -2.36543 7.51508 ) 0 
( 1.56281 -1.71594 8.3907 ) 0 
( 1.23337 -4.10697 7.97845 ) 0 
( 1.97811 -0.907094 7.9575 ) 0 
( 4.61105 -4.21509 7.59963 ) 0 
( 3.58411 -0.171431 7.90072 ) 0 
( 2.37415 -2.75034 7.83368 ) 0 
( 1.20676 -2.64186 8.51581 ) 0 
( 1.81289 -4.96727 7.86456 ) 0 
( 4.61256 -1.67095 7.98231 ) 0 
( 0.434714 -3.63399 8.35014 ) 0 
( 2.48133 -1.7701 7.99928 ) 0 
( 0.977266 -0.921134 8.23172 ) 0 
( 0.266667 -0.125934 8.27907 ) 0 
( 1.83625 -3.40396 8.36572 ) 0 
( 1.71184 -0.88135 8.92098 ) 0 
( 4.22529 -4.64499 8.41572 ) 0 
( 1.19105 -4.75875 8.73547 ) 0 
( 4.22185 -0.815709 8.32222 ) 0 
( 4.48131 -2.94088 8.21907 ) 0 
( 3.28469 -2.44801 8.15197 ) 0 
( 0.351491 -4.59582 8.0889 ) 0 
( 1.15159 -1.74899 9.30156 ) 0 
( 2.83572 -3.64244 7.80828 ) 0 
( 0.576097 -1.86663 8.48454 ) 0 
( 0.0933665 -4.05937 9.18822 ) 0 
( 1.78283 -2.8682 9.30118 ) 0 
( 0.0811445 -1.95235 9.36504 ) 0 
( 0.452817 -1.07014 9.07623 ) 0 
( 2.26879 -1.98129 9.04719 ) 0 
( 1.72645 -4.02046 9.1452 ) 0 
( 2.32031 -4.27862 8.38219 ) 0 
( 2.64179 -2.87246 8.78931 ) 0 
( 0.256206 -2.76021 8.8024 ) 0 
( 3.77089 -3.64233 8.16246 ) 0 
( 3.1534 -1.64135 8.72829 ) 0 
( 2.82519 -0.685254 8.48573 ) 0 
( 0.967855 -0.217177 8.9934 ) 0 
( 3.27847 -4.41086 8.63575 ) 0 
( 1.1509 -0.850132 9.75744 ) 0 
( 4.90753 -4.63831 9.17992 ) 0 
( 3.35452 -2.06792 9.60993 ) 0 
( 0.944155 -3.3985 9.17758 ) 0 
( 4.16621 -1.62614 8.90524 ) 0 
( 3.59737 -0.828357 9.10472 ) 0 
( 2.19057 -3.90667 10.0235 ) 0 
( 4.60269 -3.78074 8.74782 ) 0 
( 2.7002 -3.79493 9.17053 ) 0 
( 2.84905 -3.00037 9.75913 ) 0 
( 4.68024 -0.824722 9.21073 ) 0 
( 3.88577 -2.58528 8.93918 ) 0 
( 0.777169 -2.5759 9.72098 ) 0 
( 3.66493 -3.5321 9.17248 ) 0 
( 0.586715 -1.63348 10.1666 ) 0 
( 2.61147 -1.09928 9.37043 ) 0 
( 4.08091 -0.233378 9.7502 ) 0 
( 1.83557 -2.10105 9.94044 ) 0 
( 2.07322 -0.706195 10.1158 ) 0 
( 4.46057 -2.20651 9.66446 ) 0 
( 0.986395 -4.38951 9.70721 ) 0 
( 0.126628 -0.767331 9.9716 ) 0 
( 0.0764519 -4.74009 9.92834 ) 0 
( 1.31784 -3.42529 10.1046 ) 0 
( 4.5863 -3.53989 9.71814 ) 0 
( 3.96393 -4.44533 9.44869 ) 0 
( 4.07294 -1.30131 9.84635 ) 0 
( 3.24239 -3.99298 9.98694 ) 0 
( 3.18849 -0.598338 10.0154 ) 0 
( 1.45854 -1.35252 10.5677 ) 0 
( 3.82834 -2.92627 9.95104 ) 0 
( 1.29539 -0.237854 10.5347 ) 0 
( 2.14937 -3.02057 10.4849 ) 0 
( 0.365699 -3.84773 10.2744 ) 0 
( 3.86947 -2.0585 10.467 ) 0 
( 2.76442 -2.23684 10.3993 ) 0 
( 3.6419 -4.85349 10.3029 ) 0 
( 4.24244 -0.638867 10.6498 ) 0 
( 2.65362 -4.78084 10.169 ) 0 
( 3.47282 -1.23623 10.8749 ) 0 
( 0.092206 -1.54394 11.1043 ) 0 
( 3.20306 -3.25386 10.6593 ) 0 
( 1.92436 -2.15702 10.936 ) 0 
( 3.28021 -4.22196 10.9886 ) 0 
( 0.152006 -4.34716 11.1139 ) 0 
( 1.74398 -3.8278 10.9147 ) 0 
( 0.656314 -3.00363 10.7247 ) 0 
( 2.48555 -1.34786 10.7623 ) 0 
( 4.06005 -3.79782 10.5283 ) 0 
( 0.928693 -2.08186 11.0003 ) 0 
( 1.85174 -0.778958 11.2863 ) 0 
( 3.30609 -2.37847 11.2286 ) 0 
( 1.04649 -4.51074 10.6979 ) 0 
( 4.68478 -4.47579 10.1411 ) 0 
( 0.45632 -0.633576 10.9079 ) 0 
( 4.62025 -1.28629 11.3115 ) 0 
( 1.02091 -3.89216 11.6024 ) 0 
( 2.52933 -3.84863 11.5333 ) 0 
( 3.82117 -3.48391 11.4472 ) 0 
( 4.91833 -3.70992 11.7076 ) 0 
( 1.46082 -2.95707 11.3167 ) 0 
( 2.56816 -1.83657 11.6308 ) 0 
( 1.37374 -1.54461 11.7167 ) 0 
( 2.82952 -0.549358 11.2563 ) 0 
( 3.48029 -4.95322 11.6406 ) 0 
( 4.85818 -1.94357 10.5624 ) 0 
( 2.10859 -4.96919 10.9859 ) 0 
( 4.3167 -2.87805 10.8249 ) 0 
( 2.44989 -2.85651 11.4244 ) 0 
( 4.13659 -4.27503 11.9712 ) 0 
( 4.55561 -2.25108 11.5663 ) 0 
( 0.302585 -3.20085 11.6801 ) 0 
( 2.26529 -0.244818 12.0236 ) 0 
( 1.82814 -2.37409 12.0414 ) 0 
( 4.03744 -0.482169 11.6159 ) 0 
( 0.171137 -4.10611 12.0842 ) 0 
( 0.348829 -2.20978 11.8048 ) 0 
( 3.75419 -2.48683 12.116 ) 0 
( 1.81477 -3.45252 12.1099 ) 0 
( 3.77406 -1.54643 11.7765 ) 0 
( 4.28493 -4.62345 11.0456 ) 0 
( 3.00625 -1.00963 12.1262 ) 0 
( 0.469807 -1.28872 12.1749 ) 0 
( 2.04437 -1.16292 12.3527 ) 0 
( 3.09398 -3.23736 12.0878 ) 0 
( 0.99381 -0.552188 11.7472 ) 0 
( 4.43488 -1.83704 12.4685 ) 0 
( 1.31273 -4.84859 11.6006 ) 0 
( 1.77531 -4.41606 12.3745 ) 0 
)
