FoamFile
{version 2.0; format ascii;class vectorField; location 0;object  v;}
348
(
( -2.65935e-07 -4.71129e-07 -3.43929e-06 )  
( 4.86207e-07 1.34047e-06 -4.8688e-06 )  
( 2.08182e-06 -2.52494e-07 -7.36151e-06 )  
( -2.53062e-06 -8.58683e-09 -9.08151e-06 )  
( 9.23377e-07 5.27554e-07 -9.59836e-06 )  
( -4.87515e-06 -8.04076e-07 -6.90828e-06 )  
( -2.56803e-06 2.42819e-06 -9.30489e-06 )  
( 3.71182e-06 1.5552e-06 -8.51883e-06 )  
( 6.07391e-08 -9.98954e-07 -9.43692e-06 )  
( -8.92656e-08 1.10467e-06 -7.11077e-06 )  
( -2.41269e-06 1.83797e-07 -9.16558e-06 )  
( -9.09e-07 -3.00583e-08 -9.03391e-06 )  
( 1.60568e-06 2.11236e-06 -8.19855e-06 )  
( 2.76704e-06 -1.97207e-07 -8.28435e-06 )  
( 2.4133e-06 -2.73492e-07 -7.49043e-06 )  
( -7.60546e-07 1.05195e-06 -9.8511e-06 )  
( -2.1627e-06 3.47583e-06 -1.77738e-05 )  
( -6.11012e-07 4.26779e-07 -8.3705e-06 )  
( 1.74086e-06 6.31845e-07 -9.07508e-06 )  
( -1.43094e-06 1.29108e-07 -2.14186e-05 )  
( -8.07322e-07 2.75981e-06 -1.68735e-05 )  
( -2.35021e-06 -2.56743e-07 -7.11807e-06 )  
( -2.05956e-06 1.02623e-06 -5.85897e-06 )  
( -4.08105e-06 -1.27729e-06 -8.17621e-06 )  
( -1.56687e-06 1.65168e-06 -7.98878e-06 )  
( 8.05408e-08 1.34593e-07 -1.00387e-05 )  
( -2.80482e-06 -2.24477e-07 -2.17074e-05 )  
( 2.94834e-07 3.01423e-06 -1.37517e-05 )  
( -1.05989e-06 2.26269e-07 -1.34625e-05 )  
( -1.42184e-06 9.14758e-07 -1.87937e-05 )  
( -3.58585e-06 -3.91957e-07 -1.79465e-05 )  
( -2.97427e-06 1.88146e-06 -2.10148e-05 )  
( -1.15788e-06 -1.0758e-07 -1.40951e-05 )  
( -1.98124e-06 2.95488e-07 -1.83943e-05 )  
( -2.39755e-06 1.7437e-06 -1.58269e-05 )  
( -2.45574e-06 2.03698e-06 -1.60432e-05 )  
( -1.72252e-06 -4.03665e-07 -1.8106e-05 )  
( 5.72497e-08 1.53211e-06 -9.57276e-06 )  
( -5.12592e-06 -1.21875e-06 -3.21145e-05 )  
( 6.60553e-07 -3.67821e-07 -1.65497e-05 )  
( -6.09913e-06 1.34906e-06 -1.38383e-05 )  
( -3.14042e-06 3.33037e-06 -1.84403e-05 )  
( -5.59211e-06 3.81166e-06 -2.82164e-05 )  
( -3.85081e-06 3.83713e-06 -2.7956e-05 )  
( -6.90952e-08 1.74503e-06 -1.82064e-05 )  
( -1.94289e-06 5.50752e-07 -1.83928e-05 )  
( -2.13549e-06 3.50318e-06 -1.93473e-05 )  
( -3.08919e-06 2.93091e-06 -2.05367e-05 )  
( -4.27986e-06 2.89461e-06 -2.63432e-05 )  
( -3.76095e-06 4.26546e-06 -3.11324e-05 )  
( -8.53725e-07 -1.6791e-06 -2.17678e-05 )  
( -6.04914e-07 2.11429e-07 -1.64823e-05 )  
( -1.25869e-06 -3.6553e-06 -1.26211e-05 )  
( -4.0413e-06 3.05019e-06 -2.49325e-05 )  
( -8.92706e-06 6.7651e-07 -3.04786e-05 )  
( -3.58e-06 3.26124e-06 -2.9477e-05 )  
( -6.20794e-06 2.73358e-06 -2.47866e-05 )  
( -2.84818e-07 -1.20913e-06 -1.81151e-05 )  
( -8.43942e-06 2.72844e-06 -2.52882e-05 )  
( -4.45512e-06 3.01103e-06 -3.45655e-05 )  
( -5.27644e-06 5.51304e-06 -3.05486e-05 )  
( -2.58425e-06 3.08429e-06 -2.79079e-05 )  
( -3.55993e-06 9.48479e-07 -1.76888e-05 )  
( -1.96759e-06 4.62729e-06 -2.44814e-05 )  
( -4.92387e-06 1.20039e-06 -2.90699e-05 )  
( -4.68045e-06 3.2611e-06 -2.96458e-05 )  
( -8.08278e-06 9.34674e-07 -4.79214e-05 )  
( -7.97435e-06 6.83035e-08 -3.6174e-05 )  
( -4.62027e-06 -6.49019e-07 -2.51716e-05 )  
( -2.36663e-06 4.49572e-06 -3.14955e-05 )  
( -6.13987e-06 4.27015e-06 -4.17627e-05 )  
( -8.4625e-06 -1.10088e-07 -3.7706e-05 )  
( -8.72353e-06 5.87225e-07 -3.19976e-05 )  
( -9.0237e-06 8.24323e-07 -3.95833e-05 )  
( -3.36998e-07 1.78367e-06 -2.18472e-05 )  
( -7.27666e-06 4.19323e-06 -4.07733e-05 )  
( -6.26476e-06 4.1004e-06 -2.90731e-05 )  
( -5.30592e-06 1.19238e-06 -3.4224e-05 )  
( -5.00515e-06 3.80642e-06 -3.34786e-05 )  
( -4.13507e-06 -9.59516e-07 -3.01364e-05 )  
( -6.3865e-06 3.67756e-07 -2.52732e-05 )  
( -4.76441e-06 4.60179e-06 -3.89236e-05 )  
( -1.37911e-05 -2.85044e-06 -4.12123e-05 )  
( -7.30922e-06 6.04486e-06 -5.06466e-05 )  
( -1.15692e-06 5.32283e-06 -3.81905e-05 )  
( -8.67996e-06 6.11142e-06 -5.53485e-05 )  
( -1.02905e-05 5.48485e-06 -4.77184e-05 )  
( -7.16152e-06 1.77294e-06 -4.57898e-05 )  
( -6.79528e-06 -3.97002e-07 -3.73625e-05 )  
( -8.39527e-06 6.74983e-07 -4.38752e-05 )  
( -9.3986e-06 -7.54672e-07 -4.11829e-05 )  
( -6.09156e-06 6.91455e-06 -4.63519e-05 )  
( -8.23631e-06 4.29457e-06 -4.3259e-05 )  
( -1.65227e-05 -5.10107e-06 -2.47549e-05 )  
( -6.13286e-06 1.22057e-06 -4.30152e-05 )  
( -9.31799e-06 2.0492e-06 -4.91713e-05 )  
( -9.99356e-06 1.95888e-06 -4.6777e-05 )  
( -1.0432e-05 1.10934e-07 -4.44998e-05 )  
( -7.71757e-06 2.78417e-06 -4.10338e-05 )  
( -1.2665e-05 2.51281e-06 -5.67726e-05 )  
( -8.13416e-06 2.45218e-06 -5.06669e-05 )  
( -4.03805e-06 5.37681e-06 -4.27257e-05 )  
( -1.03364e-05 4.93077e-06 -5.88385e-05 )  
( -6.01018e-06 1.85015e-06 -5.50073e-05 )  
( -8.61576e-06 5.6117e-06 -5.78013e-05 )  
( -1.30777e-05 -1.7363e-06 -5.49701e-05 )  
( -1.2691e-05 3.31218e-06 -4.90142e-05 )  
( -1.1422e-05 1.882e-06 -5.01194e-05 )  
( -4.99132e-06 4.92088e-06 -4.96092e-05 )  
( -1.34996e-05 5.34255e-06 -5.42461e-05 )  
( -1.0968e-05 -5.86385e-07 -5.25727e-05 )  
( -1.01136e-05 2.33427e-06 -5.6273e-05 )  
( -6.33231e-06 3.78145e-06 -4.87212e-05 )  
( -5.50552e-06 4.45851e-06 -5.41722e-05 )  
( -8.10943e-06 4.07269e-06 -5.55615e-05 )  
( -8.89261e-06 4.71984e-06 -6.42051e-05 )  
( -1.32058e-05 3.5392e-06 -6.08306e-05 )  
( -1.43303e-05 5.79059e-07 -7.0521e-05 )  
( -1.10383e-05 2.7713e-06 -5.71581e-05 )  
( -1.11218e-05 4.27875e-06 -6.03863e-05 )  
( -9.16221e-06 4.54016e-07 -5.30799e-05 )  
( -1.22022e-05 8.23403e-07 -5.19522e-05 )  
( -1.31892e-05 -2.42505e-06 -6.17746e-05 )  
( -1.13469e-05 4.06844e-06 -5.85252e-05 )  
( -8.51627e-06 4.97681e-06 -5.81954e-05 )  
( -1.47761e-05 2.4481e-06 -5.67505e-05 )  
( -1.40843e-05 1.16021e-05 -5.53993e-05 )  
( -1.46753e-05 2.8288e-06 -7.95598e-05 )  
( -1.44713e-05 9.3921e-07 -6.27737e-05 )  
( -1.20974e-05 4.87139e-06 -7.35765e-05 )  
( -1.34012e-05 2.09205e-06 -6.55659e-05 )  
( -1.30657e-05 5.00749e-06 -6.10782e-05 )  
( -6.29358e-06 4.42563e-06 -5.45814e-05 )  
( -1.0773e-05 4.15364e-06 -7.06595e-05 )  
( -1.14043e-05 2.55186e-06 -7.17072e-05 )  
( -1.16246e-05 1.62442e-06 -7.16558e-05 )  
( -1.27653e-05 -1.04946e-06 -6.75332e-05 )  
( -1.17856e-05 2.99542e-06 -7.18529e-05 )  
( -1.55758e-05 3.89774e-06 -6.80937e-05 )  
( -1.39742e-05 1.42181e-06 -7.06212e-05 )  
( -1.48315e-05 5.48442e-06 -6.61384e-05 )  
( -1.64044e-05 6.30321e-06 -8.04581e-05 )  
( -1.71638e-05 3.35497e-06 -7.41562e-05 )  
( -1.69054e-05 4.35252e-06 -6.71842e-05 )  
( -1.51721e-05 1.14922e-05 -7.49724e-05 )  
( -8.39122e-06 7.01938e-07 -5.90599e-05 )  
( -9.50036e-06 2.24947e-06 -7.02034e-05 )  
( -1.5091e-05 4.84724e-06 -8.20007e-05 )  
( -1.18353e-05 5.77908e-06 -8.29734e-05 )  
( -1.69676e-05 4.53434e-06 -6.5286e-05 )  
( -1.26982e-05 3.74708e-06 -7.77143e-05 )  
( -1.2618e-05 6.55658e-06 -6.63584e-05 )  
( -1.41461e-05 2.59206e-06 -7.73568e-05 )  
( -1.18644e-05 1.04844e-06 -8.60671e-05 )  
( -1.78006e-05 5.69094e-06 -7.60955e-05 )  
( -1.47323e-05 7.03508e-06 -7.34518e-05 )  
( -1.27647e-05 6.92131e-07 -7.9483e-05 )  
( -1.76928e-05 6.77483e-06 -8.77828e-05 )  
( -1.32486e-05 1.27717e-06 -8.35368e-05 )  
( -1.83928e-05 -8.23978e-07 -7.45254e-05 )  
( -1.58301e-05 8.36748e-06 -8.64455e-05 )  
( -1.38163e-05 7.02246e-06 -7.62086e-05 )  
( -1.60563e-05 2.53565e-06 -7.98267e-05 )  
( -1.03801e-05 1.49215e-06 -7.98702e-05 )  
( -5.79938e-06 4.09791e-06 -7.67195e-05 )  
( -1.03747e-05 2.58859e-06 -8.21857e-05 )  
( -1.99897e-05 3.35268e-06 -8.49211e-05 )  
( -1.26662e-05 4.17515e-06 -8.92661e-05 )  
( -1.65115e-05 7.97167e-06 -8.54166e-05 )  
( -1.06255e-05 2.96114e-06 -8.0509e-05 )  
( -1.29801e-05 2.52717e-05 -7.32358e-05 )  
( -1.68882e-05 6.98572e-06 -7.88325e-05 )  
( -1.52738e-05 4.74372e-06 -9.48899e-05 )  
( -1.78807e-05 7.11304e-06 -9.1487e-05 )  
( -1.36444e-05 1.01972e-05 -8.64894e-05 )  
( -1.16638e-05 9.73206e-06 -7.39587e-05 )  
( -1.63659e-05 5.84115e-06 -9.36802e-05 )  
( -1.38876e-05 2.494e-06 -8.47239e-05 )  
( -1.47475e-05 6.7573e-06 -9.30386e-05 )  
( -1.63856e-05 6.48557e-06 -8.62431e-05 )  
( -1.36552e-05 -1.9207e-06 -9.73084e-05 )  
( -1.29097e-05 4.8095e-06 -9.32285e-05 )  
( -1.25255e-05 2.74071e-06 -8.89367e-05 )  
( -7.15641e-06 5.78149e-06 -9.3121e-05 )  
( -1.43505e-05 5.89594e-06 -9.5439e-05 )  
( -1.14198e-05 -2.89959e-07 -9.38011e-05 )  
( -1.21673e-05 7.50683e-06 -0.000101785 )  
( -1.2807e-05 1.1383e-05 -0.00010137 )  
( -4.39274e-06 2.22895e-07 -9.05362e-05 )  
( -1.35799e-05 5.54985e-06 -0.000103601 )  
( -1.33338e-05 4.76959e-06 -8.73843e-05 )  
( -9.7334e-06 4.70796e-06 -0.000101749 )  
( -8.57202e-06 -8.73262e-07 -9.10495e-05 )  
( -7.76998e-06 -5.95051e-07 -9.7146e-05 )  
( -5.35573e-06 1.95018e-06 -9.75243e-05 )  
( -7.72392e-06 4.60732e-06 -9.73445e-05 )  
( -1.40432e-05 6.84516e-06 -9.5182e-05 )  
( -9.10862e-06 4.17024e-06 -0.000106335 )  
( -1.1105e-05 -9.40907e-07 -0.000104667 )  
( -6.98595e-06 3.84403e-06 -0.00010098 )  
( -5.88486e-06 -1.83156e-06 -0.000114962 )  
( -1.45822e-05 8.68747e-06 -0.000107505 )  
( -7.95982e-06 5.22859e-06 -0.00010532 )  
( -3.06583e-06 3.06797e-06 -0.000106259 )  
( -8.94429e-06 -2.69876e-06 -0.000105898 )  
( -5.36895e-06 9.97888e-06 -0.000115897 )  
( -1.76418e-05 1.0819e-05 -9.10946e-05 )  
( -1.14237e-05 6.6098e-06 -9.86596e-05 )  
( -1.26406e-05 6.45546e-06 -9.67968e-05 )  
( -1.14506e-05 9.42754e-06 -0.000112614 )  
( -9.20738e-06 7.62496e-07 -0.000106987 )  
( -9.10097e-06 4.29169e-06 -0.000112331 )  
( -9.74923e-06 5.6243e-06 -0.000109223 )  
( -7.4949e-06 2.73146e-06 -0.000115755 )  
( -1.1839e-05 3.17567e-06 -0.000120224 )  
( -1.34205e-05 9.20312e-06 -9.36819e-05 )  
( -3.694e-06 5.81077e-06 -0.000109129 )  
( -1.03105e-05 1.40846e-06 -0.000100119 )  
( -6.83338e-06 1.43366e-06 -0.00012247 )  
( -1.71283e-06 -6.70589e-06 -0.000108915 )  
( -7.88298e-06 8.4664e-06 -0.0001006 )  
( -8.39792e-06 6.97693e-06 -0.000112716 )  
( -4.44419e-06 4.36121e-06 -0.000107902 )  
( -2.12562e-06 -1.1373e-06 -0.000103133 )  
( -1.04945e-05 3.55542e-06 -0.000118681 )  
( -1.31745e-06 -2.16249e-06 -0.000114934 )  
( -6.27624e-06 3.40703e-06 -0.000116607 )  
( -1.32624e-06 -4.115e-06 -0.000124863 )  
( -1.26243e-05 5.03348e-06 -0.000125338 )  
( -1.04425e-05 4.32491e-06 -0.000120985 )  
( -2.64154e-07 4.15094e-06 -0.000124479 )  
( -1.02575e-05 -4.26085e-08 -0.000119453 )  
( -9.46446e-06 -7.93286e-07 -0.000116365 )  
( -8.42746e-06 -7.51608e-07 -0.00011833 )  
( -2.86506e-06 2.96328e-06 -0.000118707 )  
( -8.00941e-06 5.49909e-06 -0.000116947 )  
( -8.00341e-06 4.09285e-06 -0.000113831 )  
( -3.70693e-06 -6.67605e-07 -0.000129152 )  
( -9.30593e-06 3.22392e-06 -0.000117712 )  
( -3.34634e-06 1.27123e-07 -0.00011965 )  
( -4.6157e-06 1.39695e-06 -0.000129475 )  
( -8.09107e-06 2.74582e-06 -0.000127042 )  
( -1.5472e-06 -1.76957e-06 -0.000118165 )  
( -4.67703e-06 4.77665e-06 -0.000125144 )  
( -7.75172e-06 1.15538e-06 -0.000127354 )  
( 2.0748e-06 -4.95529e-06 -0.000121461 )  
( -1.57712e-06 3.75212e-06 -0.000131545 )  
( -2.64816e-06 5.96291e-06 -0.000118847 )  
( -6.76962e-06 8.33815e-07 -0.000115694 )  
( -8.50103e-06 2.8376e-06 -0.000131714 )  
( -2.02548e-06 3.003e-06 -0.000126717 )  
( 3.75728e-06 -5.27474e-06 -0.000127735 )  
( -3.72805e-06 5.77452e-06 -0.000132134 )  
( -9.73515e-07 2.49469e-06 -0.000120783 )  
( 1.69825e-06 -3.08518e-07 -0.000130482 )  
( -6.46227e-06 1.88975e-06 -0.000129163 )  
( -9.72325e-06 4.77628e-06 -0.000125414 )  
( -2.21878e-07 4.71142e-06 -0.000129547 )  
( -9.51463e-06 3.24131e-06 -0.000123259 )  
( -1.09338e-05 2.88321e-06 -0.000121818 )  
( -2.22136e-06 -3.2011e-06 -0.000132736 )  
( -5.50978e-06 5.12291e-06 -0.000134772 )  
( 2.22019e-06 4.40744e-06 -0.000134907 )  
( -8.15023e-06 3.14981e-06 -0.000135402 )  
( -2.29827e-06 2.67751e-06 -0.000122542 )  
( -6.62712e-06 4.59856e-06 -0.000128658 )  
( 1.11602e-06 -3.05097e-06 -0.000123587 )  
( -2.1617e-06 -2.50369e-06 -0.000137521 )  
( 3.92533e-06 3.8103e-06 -0.000133728 )  
( -9.18351e-06 -3.40869e-06 -0.000135614 )  
( -1.91065e-06 7.62048e-07 -0.000133937 )  
( 1.38663e-05 7.47945e-06 -0.000139716 )  
( 1.07799e-05 -1.41379e-06 -0.000132603 )  
( -2.79674e-06 3.55139e-07 -0.000139519 )  
( -6.5717e-07 -2.00269e-06 -0.000143347 )  
( 8.39487e-06 3.2083e-06 -0.000146439 )  
( -5.87005e-06 1.67945e-06 -0.000135618 )  
( 6.73394e-06 -9.76038e-07 -0.000128773 )  
( 8.14693e-06 7.49215e-07 -0.000140578 )  
( -1.14588e-06 9.21808e-06 -0.000131873 )  
( -5.88772e-06 7.14608e-07 -0.000126688 )  
( 8.75753e-06 -4.98904e-06 -0.000138656 )  
( 9.83829e-06 8.01508e-06 -0.000147411 )  
( 2.87109e-06 9.29608e-07 -0.000133859 )  
( 6.70843e-06 2.65459e-06 -0.000141662 )  
( 1.57673e-05 -4.79047e-06 -0.000154182 )  
( 6.72571e-07 1.91995e-06 -0.000142428 )  
( 1.97134e-05 1.62784e-06 -0.000133237 )  
( 3.07715e-06 -2.63589e-06 -0.00013928 )  
( -1.06826e-06 -1.26918e-06 -0.000150075 )  
( 2.69237e-06 -7.96743e-06 -0.000137011 )  
( 9.00099e-06 2.7732e-06 -0.000141059 )  
( 6.50403e-06 -2.67765e-06 -0.000141171 )  
( 6.80737e-06 -3.27658e-07 -0.000142642 )  
( 3.97608e-06 -5.32532e-06 -0.000151611 )  
( 1.23362e-05 -7.86634e-07 -0.000134698 )  
( 8.96071e-06 9.75977e-06 -0.000136007 )  
( 1.53681e-05 9.9004e-07 -0.000144438 )  
( 1.70966e-06 -1.95606e-06 -0.00014947 )  
( 1.44766e-05 -7.46839e-06 -0.000135968 )  
( 1.45071e-05 1.04291e-05 -0.000155415 )  
( 1.18648e-05 -2.13281e-06 -0.000138854 )  
( 2.45957e-06 3.03126e-06 -0.000141188 )  
( 5.3348e-06 -4.01478e-06 -0.000151058 )  
( 1.19501e-05 -1.72562e-06 -0.000139387 )  
( 1.24803e-05 7.02338e-08 -0.00013566 )  
( 5.3133e-06 -1.68941e-06 -0.00015401 )  
( 1.32903e-05 -1.38789e-06 -0.000151464 )  
( 2.60031e-05 3.37674e-06 -0.000140368 )  
( 1.37862e-05 -4.09527e-06 -0.000151864 )  
( 2.08682e-05 2.08744e-06 -0.000152647 )  
( 8.671e-06 -1.58027e-06 -0.000152301 )  
( 1.36793e-05 2.33896e-06 -0.000147239 )  
( 1.05511e-05 -5.49429e-06 -0.000152254 )  
( 1.35466e-05 2.16214e-06 -0.000146532 )  
( 1.19346e-05 8.07931e-07 -0.000141817 )  
( 7.23127e-06 -6.40094e-06 -0.000150851 )  
( 8.87268e-06 -7.2772e-06 -0.000135966 )  
( 1.23839e-05 -2.06508e-06 -0.000146975 )  
( 2.2235e-05 2.85547e-06 -0.000142623 )  
( 9.20719e-06 -5.60444e-06 -0.000159484 )  
( 1.87463e-05 -7.81949e-06 -0.000148386 )  
( 1.92328e-05 -9.95964e-07 -0.000146459 )  
( 1.26018e-05 6.52973e-07 -0.000157067 )  
( 1.62425e-05 -4.80618e-06 -0.000158336 )  
( 9.33156e-06 3.65416e-06 -0.00016347 )  
( 1.1519e-05 -6.5706e-06 -0.000160029 )  
( 2.40483e-05 -2.9236e-06 -0.000141146 )  
( 1.39433e-05 -2.43711e-06 -0.000149947 )  
( 1.88138e-05 2.27235e-06 -0.000152209 )  
( 1.28705e-05 -1.23978e-05 -0.000164588 )  
( 2.39278e-05 2.11799e-06 -0.000141208 )  
( 2.51243e-05 -9.19651e-06 -0.000151243 )  
( 3.19507e-05 4.45173e-06 -0.000170035 )  
( 1.88807e-05 3.14755e-06 -0.000147794 )  
( 1.82009e-05 -1.13278e-05 -0.000165179 )  
( 2.69519e-05 4.83304e-06 -0.000148566 )  
( 1.7204e-05 6.22299e-06 -0.000157865 )  
( 2.40875e-05 -3.79782e-06 -0.000154676 )  
( 2.30174e-05 -5.87066e-06 -0.00015623 )  
( 2.70818e-05 -1.08472e-05 -0.000153665 )  
( 1.89936e-05 1.74591e-05 -0.000160574 )  
( 2.37353e-05 5.912e-06 -0.00015963 )  
( 3.86168e-05 -2.27745e-05 -0.000151253 )  
( 2.95644e-05 -1.44969e-05 -0.000159426 )  
( 1.74637e-05 3.8345e-06 -0.000155389 )  
( 1.75367e-05 -2.00096e-05 -0.000154381 )  
( 2.10126e-05 -3.6119e-05 -0.00017295 )  
)
