/*--------------------------------*- C++ -*----------------------------------*\
| =========                 |                                                 |
| \\      /  F ield         | OpenFOAM: The Open Source CFD Toolbox           |
|  \\    /   O peration     | Version:  5.x                                   |
|   \\  /    A nd           | Web:      www.OpenFOAM.org                      |
|    \\/     M anipulation  |                                                 |
\*---------------------------------------------------------------------------*/
FoamFile
{
    version     2.0;
    format      ascii;
    class       surfaceScalarField;
    location    "50000";
    object      phi;
}
// * * * * * * * * * * * * * * * * * * * * * * * * * * * * * * * * * * * * * //

dimensions      [0 3 -1 0 0 0 0];

internalField   nonuniform List<scalar> 
5825
(
2.94768e-06
8.17845e-05
-1000
-2.36081e-05
7.75679e-05
-1000
-3.40751e-05
7.47645e-05
-1000
-4.40826e-05
7.4762e-05
-1000
7.78981e-05
-1000
-8.16239e-08
0.000123091
-1000
-2.81463e-05
0.00012213
-1000
-3.73741e-05
0.000122315
-1000
-4.30512e-05
0.000123739
-1000
0.000140108
-1000
-4.08873e-06
0.000164707
-999.999
-3.01918e-05
0.000163037
-999.999
-3.54496e-05
0.000166
-999.999
-3.11911e-05
0.000167795
-999.999
0.000201805
-999.999
-4.74572e-06
0.000208977
-999.999
-2.63992e-05
0.000206727
-999.999
-2.78811e-05
0.000215677
-999.999
-2.11356e-05
0.000217373
-999.999
0.00025785
-999.999
-1.33211e-06
-999.999
-1.06286e-05
-999.999
1.13558e-05
-999.999
2.88177e-07
-999.999
-999.999
7.14788e-06
0.000227782
-1000
-7.00474e-05
0.00021486
-1000
-9.29946e-05
0.000209107
-1000
-0.000102935
0.000207514
-1000
0.000208847
-1000
-4.3701e-06
0.000349234
-1000
-8.00292e-05
0.00034539
-1000
-9.82425e-05
0.000344386
-1000
-9.56636e-05
0.000344369
-1000
0.000368916
-1000
-1.28845e-05
0.000473905
-1000
-8.36121e-05
0.000469128
-1000
-9.77007e-05
0.000470766
-1000
-8.13687e-05
0.000463804
-1000
0.000520895
-1000
-1.59818e-05
0.000601115
-999.999
-7.89641e-05
0.000592119
-999.999
-9.7493e-05
0.000600915
-999.999
-6.80773e-05
0.000592927
-999.999
0.000705344
-1000
-1.39041e-05
-999.999
-6.22137e-05
-999.999
-4.16342e-05
-999.999
-3.8804e-05
-999.999
-999.999
-1.22892e-05
0.000375817
-1000
-0.000130889
0.00035829
-1000
-0.000174023
0.000352317
-1000
-0.000161784
0.000347373
-1000
0.000337054
-1000
-3.22818e-05
0.000607477
-1000
-0.000141943
0.000600582
-1000
-0.000184726
0.000596081
-1000
-0.000177427
0.000580234
-1000
0.000569455
-1000
-4.07462e-05
0.000835609
-1000
-0.000153106
0.000828904
-1000
-0.000200861
0.00081952
-1000
-0.000192877
0.00077761
-1000
0.000756422
-1000
-4.42668e-05
0.00104022
-1000
-0.000162175
0.00102703
-1000
-0.000229266
0.00100446
-1000
-0.000228435
0.000945766
-1000
0.000991511
-1000
-6.24522e-05
-999.999
-0.000185846
-999.999
-0.00026672
-999.999
-0.000237121
-999.999
-1000
-6.4415e-05
0.000537424
-1000
-0.000222599
0.000520088
-1000
-0.000289333
0.000512792
-1000
-0.000273004
0.000502473
-1000
0.000475045
-1000
-8.49893e-05
0.000921999
-1000
-0.000231511
0.000914795
-1000
-0.000305229
0.000902701
-1000
-0.000298726
0.000865236
-1000
0.000810621
-1000
-9.33566e-05
0.00128123
-1000
-0.000245769
0.0012721
-1000
-0.000334833
0.00124819
-1000
-0.000352024
0.0011676
-1000
0.00104788
-1000
-0.000100958
0.00156765
-1000
-0.000278448
0.00155016
-1000
-0.000400277
0.00149196
-1000
-0.000471149
0.00135681
-1000
0.00117936
-1000
-0.000131687
-999.999
-0.000338992
-999.999
-0.0005149
-1000
-0.000652352
-1000
-1000
-0.000144345
0.000734029
-1000
-0.00034404
0.00071799
-1000
-0.000453701
0.000709558
-1000
-0.000453863
0.000689013
-1000
0.00064802
-1000
-0.000163609
0.00132345
-1000
-0.000356917
0.00131487
-1000
-0.000476077
0.00129203
-1000
-0.000496994
0.00124004
-1000
0.00117628
-1000
-0.00017313
0.00184609
-1000
-0.000381221
0.00183378
-1000
-0.000520678
0.00179363
-1000
-0.00056512
0.00169923
-1000
0.00157388
-1000
-0.00018692
0.0022295
-1000
-0.000426278
0.0022046
-1000
-0.000604199
0.00213677
-1000
-0.000711687
0.00197588
-1000
0.00168707
-1000
-0.000220092
-999.999
-0.000499834
-1000
-0.000724478
-1000
-0.00099351
-1000
-1000
-0.000248216
0.000994028
-1000
-0.000515614
0.000980139
-1000
-0.000689584
0.000966327
-1000
-0.000746973
0.000936781
-1000
0.000894459
-1000
-0.000263665
0.00184715
-1000
-0.000532492
0.00183671
-1000
-0.000719705
0.00180213
-1000
-0.000792275
0.00174356
-1000
0.00168838
-1000
-0.000279103
0.00257182
-1000
-0.000567582
0.00255443
-1000
-0.000774125
0.00250141
-1000
-0.000855116
0.00241527
-1000
0.00233531
-1000
-0.000301845
0.00306714
-1000
-0.000622169
0.00303885
-1000
-0.000852482
0.00297868
-1000
-0.000960094
0.00286793
-1000
0.00266096
-1000
-0.000343636
-1000
-0.000691024
-1000
-0.000933455
-1000
-0.00116673
-1000
-1000
-0.000375126
0.00134812
-1000
-0.000740447
0.0013353
-1000
-0.00100437
0.00131586
-1000
-0.00114614
0.00128301
-1000
0.00124322
-1000.01
-0.000392413
0.00254019
-1000
-0.000762818
0.00252573
-1000
-0.00103984
0.00248409
-1000
-0.0011885
0.00242563
-1000
0.00237172
-1000
-0.000413494
0.00352075
-1000
-0.000804742
0.00349614
-1000
-0.0010979
0.00343725
-1000
-0.00124357
0.00336217
-1000
0.00329799
-1000
-0.000444574
0.00416242
-1000
-0.000862542
0.00412933
-1000
-0.0011649
0.00407515
-1000
-0.00129734
0.00401225
-1000
0.0039534
-1000
-0.000492327
-1000
-0.000928337
-1000
-0.00122648
-1000
-0.00135868
-1000
-1000
-0.000531616
0.00183602
-1000.01
-0.00103051
0.00182276
-1000.01
-0.00140721
0.00180109
-1000.01
-0.0016368
0.0017689
-1000.01
0.0017357
-1000.01
-0.000550121
0.00347045
-1000
-0.00105633
0.00345233
-1000
-0.00144269
0.00341238
-1000.01
-0.00167666
0.00335898
-1000.01
0.00330244
-1000.01
-0.000575327
0.00479003
-1000
-0.00109696
0.00476285
-1000
-0.00149654
0.00470931
-1000
-0.00173641
0.00464365
-1000
0.00456914
-1000
-0.000612619
0.00564096
-1000
-0.00115096
0.00561055
-1000
-0.00155872
0.00555756
-1000
-0.0017866
0.00550179
-1000
0.00546816
-1000
-0.000656335
-999.999
-0.00120729
-1000
-0.0016211
-1000
-0.0018036
-1000
-1000
-0.000730088
0.00250672
-1000.01
-0.00140889
0.00249321
-1000.01
-0.00192742
0.00247369
-1000.01
-0.00225002
0.0024471
-1000.01
0.00242097
-1000.01
-0.000752092
0.00473987
-1000.01
-0.00143415
0.00472308
-1000.01
-0.00195787
0.0046924
-1000.01
-0.00228754
0.00464904
-1000.01
0.00459867
-1000.01
-0.000778954
0.00652842
-1000
-0.00146588
0.00650961
-1000
-0.00199912
0.00647345
-1000.01
-0.00234446
0.00641977
-1000.01
0.00634791
-1000.01
-0.000813511
0.00768168
-1000
-0.00150686
0.00767175
-1000
-0.00205332
0.00763206
-1000
-0.00241909
0.00756104
-1000
0.00742543
-1000
-0.00083839
-999.999
-0.0015394
-999.999
-0.00210233
-1000
-0.00250186
-1000
-1000
-0.00100012
0.00342443
-1000.01
-0.00191162
0.00341511
-1000.01
-0.002618
0.00340204
-1000.01
-0.00306131
0.00338415
-1000.01
0.00336353
-1000.01
-0.00102121
0.00649287
-1000.01
-0.0019323
0.00648524
-1000.01
-0.0026421
0.00646732
-1000.01
-0.00309425
0.00643762
-1000.01
0.00640683
-1000.01
-0.00104319
0.00894285
-1000.01
-0.00195165
0.00894294
-1000.01
-0.00266734
0.00892734
-1000.01
-0.00313162
0.00889084
-1000.01
0.00885633
-1000.01
-0.0010657
0.010528
-1000
-0.00197443
0.010548
-1000
-0.00270174
0.0105332
-1000
-0.00320252
0.0104718
-1000
0.0102769
-1000.01
-0.00106815
-999.998
-0.0019814
-999.999
-0.00270342
-999.999
-0.00331011
-1000
-1000
-0.00136983
0.00468203
-1000.01
-0.00258854
0.00468436
-1000.01
-0.00355365
0.00467957
-1000.01
-0.00417038
0.00467059
-1000.02
0.00465776
-1000.02
-0.00138403
0.00891718
-1000.01
-0.0026032
0.00892621
-1000.01
-0.00357154
0.00891922
-1000.01
-0.00419581
0.00890455
-1000.01
0.00889784
-1000.02
-0.00139556
0.0122908
-1000.01
-0.00261154
0.0123141
-1000.01
-0.00358264
0.0123112
-1000.01
-0.00420615
0.0122967
-1000.01
0.0123107
-1000.01
-0.00140217
0.0144729
-1000
-0.00262016
0.014518
-1000
-0.00359492
0.0145217
-1000
-0.0042251
0.0145062
-1000.01
0.0144143
-1000.01
-0.00138965
-999.997
-0.00261482
-999.998
-0.00356078
-999.999
-0.00425514
-1000
-1000
-0.00187018
0.00640683
-1000.02
-0.00350672
0.00642665
-1000.02
-0.00482553
0.00642891
-1000.02
-0.0056843
0.00642772
-1000.02
0.00642619
-1000.02
-0.00187281
0.0122454
-1000.01
-0.00351614
0.0122745
-1000.02
-0.00483908
0.0122737
-1000.02
-0.00569997
0.0122705
-1000.02
0.0122825
-1000.02
-0.00187248
0.0168823
-1000.01
-0.00351836
0.0169271
-1000.01
-0.00484185
0.0169263
-1000.01
-0.00568834
0.0169282
-1000.01
0.0169692
-1000.02
-0.00186691
0.01987
-1000
-0.0035227
0.0199306
-1000
-0.00484156
0.0199385
-1000.01
-0.00565535
0.0199701
-1000.01
0.0200348
-1000.01
-0.00185288
-999.996
-0.00351627
-999.997
-0.00479404
-999.998
-0.0055321
-1000
-1000
-0.00253871
0.00876728
-1000.02
-0.00475321
0.00880538
-1000.02
-0.00655119
0.0088105
-1000.03
-0.00773052
0.00881217
-1000.03
0.00882091
-1000.03
-0.00252998
0.0167734
-1000.02
-0.00476221
0.0168206
-1000.02
-0.00656653
0.0168189
-1000.02
-0.00774235
0.0168162
-1000.03
0.0168336
-1000.03
-0.00252175
0.0231141
-1000.01
-0.00476624
0.023175
-1000.01
-0.00657092
0.0231673
-1000.02
-0.00772569
0.0231657
-1000.02
0.0232096
-1000.02
-0.00251414
0.0271835
-1000.01
-0.00477701
0.0272529
-1000.01
-0.006575
0.0272528
-1000.01
-0.00767854
0.0272956
-1000.01
0.0274342
-1000.01
-0.00250646
-999.995
-0.00477755
-999.996
-0.00652731
-999.998
-0.00748548
-1000
-1000
-0.00342841
0.0119858
-1000.03
-0.00644596
0.0120366
-1000.03
-0.00889054
0.0120376
-1000.04
-0.0104868
0.0120333
-1000.04
0.0120416
-1000.04
-0.00341481
0.0229
-1000.03
-0.00646292
0.0229598
-1000.03
-0.00891732
0.0229479
-1000.03
-0.0105069
0.022931
-1000.03
0.0229335
-1000.04
-0.00340783
0.0315335
-1000.02
-0.00647802
0.0316052
-1000.02
-0.00893568
0.0315817
-1000.02
-0.0105078
0.0315564
-1000.03
0.0315667
-1000.03
-0.00340909
0.0370674
-1000.01
-0.00650465
0.0371434
-1000.01
-0.00896343
0.0371207
-1000.01
-0.0104978
0.0371292
-1000.01
0.0372391
-1000.02
-0.00341599
-999.994
-0.00652495
-999.995
-0.00894869
-999.998
-0.0103284
-1000
-1000
-0.00461952
0.0163576
-1000.04
-0.00874537
0.0164122
-1000.05
-0.0120596
0.0164011
-1000.05
-0.0141992
0.0163826
-1000.05
0.0163785
-1000.06
-0.00461372
0.0311815
-1000.04
-0.00877927
0.0312491
-1000.04
-0.0121072
0.0312189
-1000.04
-0.0142401
0.0311769
-1000.05
0.0311453
-1000.05
-0.00461882
0.0429155
-1000.03
-0.00881319
0.0429963
-1000.03
-0.0121498
0.0429497
-1000.03
-0.0142758
0.0428866
-1000.04
0.0428335
-1000.04
-0.00463796
0.0504475
-1000.01
-0.0088633
0.0505294
-1000.01
-0.0122152
0.0504702
-1000.02
-0.014335
0.0504111
-1000.02
0.0504166
-1000.03
-0.00467064
-999.992
-0.00892079
-999.994
-0.012266
-999.997
-0.0142882
-1000
-1000.01
-0.00623451
0.0222834
-1000.06
-0.0118676
0.022335
-1000.06
-0.0163501
0.0223077
-1000.07
-0.0192106
0.0222729
-1000.07
0.022251
-1000.08
-0.00624883
0.0423982
-1000.05
-0.0119244
0.0424738
-1000.05
-0.016424
0.0424225
-1000.06
-0.0192802
0.042353
-1000.06
0.0422805
-1000.07
-0.00627291
0.0583471
-1000.04
-0.0119802
0.0584411
-1000.04
-0.0164946
0.0583687
-1000.04
-0.0193544
0.0582671
-1000.05
0.0581486
-1000.06
-0.0063143
0.0686049
-1000.01
-0.0120568
0.0686974
-1000.02
-0.0165984
0.0686004
-1000.02
-0.0194767
0.0684777
-1000.03
0.0683688
-1000.03
-0.00637934
-999.989
-0.0121563
-999.992
-0.0167156
-999.996
-0.0195559
-1000
-1000.01
-0.00844009
0.0303168
-1000.08
-0.0161028
0.0303663
-1000.08
-0.0221596
0.0303251
-1000.09
-0.0259963
0.0302768
-1000.1
0.0302372
-1000.11
-0.00847991
0.0576323
-1000.07
-0.0161844
0.0577229
-1000.07
-0.0222625
0.0576521
-1000.08
-0.0261003
0.0575583
-1000.09
0.0574519
-1000.1
-0.00852389
0.0793263
-1000.05
-0.016261
0.079445
-1000.05
-0.0223584
0.0793482
-1000.06
-0.0262072
0.0792159
-1000.07
0.0790618
-1000.08
-0.00858765
0.0932995
-1000.02
-0.0163631
0.0934198
-1000.02
-0.022492
0.0932954
-1000.03
-0.0263599
0.0931401
-1000.04
0.0929896
-1000.05
-0.00868112
-999.985
-0.0164939
-999.989
-0.0226462
-999.995
-0.026486
-1000
-1000.01
-0.0114517
0.041225
-1000.11
-0.0218455
0.041282
-1000.12
-0.0300345
0.0412313
-1000.12
-0.0352107
0.041172
-1000.13
0.0411126
-1000.15
-0.0115162
0.0783632
-1000.1
-0.0219528
0.078482
-1000.1
-0.0301691
0.0783942
-1000.11
-0.0353577
0.0782778
-1000.12
0.0781415
-1000.13
-0.0115785
0.107895
-1000.07
-0.0220481
0.108058
-1000.07
-0.0302885
0.107936
-1000.08
-0.0354954
0.107772
-1000.09
0.107602
-1000.1
-0.0116626
0.126939
-1000.03
-0.0221767
0.127114
-1000.03
-0.0304522
0.126965
-1000.04
-0.0356598
0.126788
-1000.05
0.12667
-1000.06
-0.011778
-999.981
-0.0223357
-999.985
-0.0306314
-999.993
-0.035755
-1000
-1000.02
-0.0155555
0.0560577
-1000.15
-0.0296403
0.0561362
-1000.16
-0.040725
0.05608
-1000.17
-0.0477369
0.0560105
-1000.18
0.0559268
-1000.2
-0.0156424
0.106594
-1000.13
-0.0297743
0.10676
-1000.14
-0.0408971
0.106655
-1000.15
-0.0479384
0.106511
-1000.16
0.106332
-1000.18
-0.0157212
0.146823
-1000.09
-0.0298884
0.147053
-1000.1
-0.0410451
0.146894
-1000.11
-0.0481175
0.146675
-1000.12
0.146453
-1000.14
-0.0158257
0.172795
-1000.04
-0.0300549
0.173053
-1000.04
-0.0412624
0.172854
-1000.05
-0.0483291
0.172605
-1000.07
0.172469
-1000.09
-0.0159655
-999.974
-0.0302688
-999.98
-0.041516
-999.991
-0.0484472
-1000.01
-1000.02
-0.0211441
0.0762342
-1000.21
-0.0402373
0.0763526
-1000.22
-0.0552564
0.0762945
-1000.23
-0.0647569
0.0762145
-1000.25
0.0761087
-1000.27
-0.0212503
0.145026
-1000.18
-0.0404003
0.145265
-1000.19
-0.0554747
0.145138
-1000.2
-0.0650213
0.144956
-1000.22
0.144719
-1000.25
-0.021344
0.199846
-1000.13
-0.0405386
0.200167
-1000.13
-0.0556605
0.199951
-1000.15
-0.0652541
0.199644
-1000.17
0.199298
-1000.19
-0.0214766
0.235299
-1000.05
-0.0407638
0.23566
-1000.06
-0.055964
0.235367
-1000.07
-0.0655809
0.234958
-1000.1
0.234634
-1000.12
-0.0216565
-999.965
-0.041079
-999.973
-0.0563815
-999.988
-0.0658944
-1000.01
-1000.03
-0.028761
0.103665
-1000.28
-0.0546742
0.103847
-1000.29
-0.0750347
0.103789
-1000.31
-0.0878735
0.103701
-1000.34
0.103587
-1000.37
-0.028883
0.197299
-1000.24
-0.054873
0.197639
-1000.25
-0.0753078
0.197487
-1000.28
-0.0882034
0.197265
-1000.3
0.196978
-1000.34
-0.0289924
0.272003
-1000.17
-0.0550402
0.272443
-1000.18
-0.0755311
0.272154
-1000.2
-0.088483
0.271738
-1000.23
0.271233
-1000.26
-0.0291687
0.320445
-1000.07
-0.0553411
0.320929
-1000.08
-0.0759384
0.320496
-1000.1
-0.0889599
0.31986
-1000.13
0.319206
-1000.16
-0.0294156
-999.953
-0.0558008
-999.964
-0.0765825
-999.985
-0.0896031
-1000.01
-1000.05
-0.0391703
0.14091
-1000.38
-0.0744003
0.141184
-1000.4
-0.102007
0.141137
-1000.43
-0.119305
0.141062
-1000.47
0.140964
-1000.51
-0.0393076
0.268298
-1000.33
-0.0746373
0.268787
-1000.35
-0.102331
0.268621
-1000.37
-0.119694
0.268379
-1000.41
0.268072
-1000.46
-0.0394287
0.370095
-1000.23
-0.0748179
0.370701
-1000.25
-0.102568
0.370332
-1000.28
-0.119988
0.369801
-1000.31
0.369161
-1000.36
-0.0396588
0.436352
-1000.1
-0.0751979
0.436988
-1000.11
-0.103081
0.436365
-1000.14
-0.120595
0.43546
-1000.18
0.434445
-1000.22
-0.0400154
-999.937
-0.0758501
-999.952
-0.103986
-999.98
-0.121592
-1000.02
-1000.06
-0.0534622
0.19138
-1000.52
-0.101449
0.191796
-1000.54
-0.138887
0.191807
-1000.58
-0.162143
0.191806
-1000.63
0.191784
-1000.69
-0.0536031
0.364577
-1000.45
-0.101693
0.365298
-1000.47
-0.139221
0.365179
-1000.51
-0.162552
0.364982
-1000.56
0.364726
-1000.62
-0.0537034
0.50329
-1000.32
-0.101823
0.504147
-1000.34
-0.139399
0.503713
-1000.38
-0.162779
0.503083
-1000.43
0.502344
-1000.49
-0.0539771
0.594029
-1000.13
-0.102265
0.594855
-1000.16
-0.139997
0.593974
-1000.19
-0.163467
0.592735
-1000.24
0.59135
-1000.3
-0.0544973
-999.916
-0.10318
-999.937
-0.141224
-999.975
-0.164824
-1000.03
-1000.09
-0.0731945
0.259596
-1000.71
-0.138697
0.260258
-1000.74
-0.1895
0.26045
-1000.79
-0.220702
0.260675
-1000.86
0.260892
-1000.95
-0.0732836
0.494866
-1000.61
-0.138843
0.495983
-1000.64
-0.189714
0.496066
-1000.7
-0.22099
0.496114
-1000.77
0.496121
-1000.85
-0.0732704
0.683874
-1000.43
-0.13876
0.685134
-1000.46
-0.189618
0.68472
-1000.52
-0.220918
0.684095
-1000.59
0.68335
-1000.67
-0.0735356
0.808344
-1000.19
-0.139175
0.809439
-1000.21
-0.190181
0.808219
-1000.27
-0.22157
0.806539
-1000.34
0.80468
-1000.42
-0.0742622
-999.888
-0.140432
-999.917
-0.191834
-999.969
-0.223382
-1000.04
-1000.12
-0.10062
0.351502
-1000.96
-0.190305
0.352612
-1001
-0.259309
0.353253
-1001.08
-0.301039
0.354053
-1001.18
0.35491
-1001.29
-0.100517
0.670674
-1000.83
-0.190104
0.672494
-1000.87
-0.259076
0.673158
-1000.95
-0.300833
0.673957
-1001.05
0.674793
-1001.16
-0.100176
0.928157
-1000.59
-0.189411
0.930109
-1000.63
-0.258167
0.929981
-1000.7
-0.299862
0.929702
-1000.8
0.929296
-1000.91
-0.100278
1.09926
-1000.26
-0.189516
1.10078
-1000.3
-0.258318
1.09917
-1000.37
-0.300104
1.09696
-1000.46
1.09447
-1000.57
-0.101223
-999.854
-0.191162
-999.893
-0.260469
-999.964
-0.302515
-1000.06
-1000.17
-0.139085
0.474775
-1001.29
-0.262444
0.476723
-1001.35
-0.356272
0.478402
-1001.46
-0.411816
0.480552
-1001.6
0.482914
-1001.76
-0.138481
0.906932
-1001.13
-0.261322
0.910057
-1001.18
-0.354831
0.912174
-1001.29
-0.410269
0.914857
-1001.42
0.917773
-1001.58
-0.137326
1.25754
-1000.8
-0.259105
1.26073
-1000.86
-0.351911
1.26155
-1000.96
-0.407071
1.26248
-1001.09
1.26337
-1001.24
-0.136893
1.4934
-1000.35
-0.2582
1.49558
-1000.41
-0.350723
1.49364
-1000.51
-0.405885
1.49097
-1000.63
1.48785
-1000.78
-0.138016
-999.812
-0.260153
-999.866
-0.353278
-999.963
-0.408862
-1000.09
-1000.24
-0.193689
0.639095
-1001.74
-0.364553
0.642649
-1001.83
-0.492263
0.646662
-1001.98
-0.56584
0.651802
-1002.18
0.657502
-1002.4
-0.191908
1.22258
-1001.52
-0.361216
1.22821
-1001.6
-0.487959
1.23369
-1001.75
-0.561097
1.24071
-1001.94
1.2484
-1002.16
-0.188874
1.69963
-1001.09
-0.35547
1.70507
-1001.17
-0.480442
1.70836
-1001.31
-0.552824
1.7125
-1001.49
1.7169
-1001.7
-0.187085
2.02591
-1000.49
-0.351971
2.02918
-1000.57
-0.475817
2.02726
-1000.7
-0.547857
2.02456
-1000.87
2.02135
-1001.07
-0.188253
-999.764
-0.353871
-999.837
-0.478293
-999.969
-0.550834
-1000.14
-1000.34
-0.272352
0.856237
-1002.32
-0.511664
0.862899
-1002.45
-0.685418
0.87205
-1002.68
-0.78289
0.883575
-1002.96
0.896567
-1003.29
-0.267989
1.64072
-1002.03
-0.50329
1.65126
-1002.15
-0.674757
1.66432
-1002.37
-0.770908
1.68094
-1002.64
1.69926
-1002.95
-0.260778
2.289
-1001.48
-0.489636
2.29873
-1001.59
-0.657085
2.30778
-1001.79
-0.751381
2.31947
-1002.04
2.33226
-1002.32
-0.255857
2.74279
-1000.69
-0.480108
2.74784
-1000.79
-0.64446
2.74682
-1000.98
-0.737526
2.74528
-1001.21
2.74361
-1001.47
-0.256741
-999.714
-0.481051
-999.813
-0.645637
-999.993
-0.738854
-1000.22
-1000.48
-0.387373
1.13978
-1003.08
-0.729193
1.15234
-1003.26
-0.963522
1.17282
-1003.62
-1.09576
1.1974
-1004.03
1.22648
-1004.53
-0.377698
2.18756
-1002.7
-0.709608
2.20799
-1002.88
-0.9395
2.23795
-1003.2
-1.06762
2.27525
-1003.59
2.31719
-1004.04
-0.361347
3.06679
-1002
-0.678355
3.0848
-1002.15
-0.899885
3.10663
-1002.43
-1.02333
3.13517
-1002.77
3.16706
-1003.17
-0.349543
3.70364
-1000.98
-0.655559
3.71152
-1001.11
-0.869519
3.71342
-1001.37
-0.989528
3.7153
-1001.67
3.71916
-1002.01
-0.349549
-999.672
-0.653563
-999.805
-0.86714
-1000.05
-0.985449
-1000.35
-1000.68
-0.556361
1.5044
-1004.02
-1.064
1.52717
-1004.28
-1.36596
1.57349
-1004.89
-1.56601
1.62248
-1005.45
1.68907
-1006.3
-0.537083
2.8884
-1003.55
-1.01938
2.92899
-1003.8
-1.31639
2.99743
-1004.33
-1.50112
3.0779
-1004.86
3.17338
-1005.6
-0.500834
4.07636
-1002.68
-0.948401
4.11054
-1002.88
-1.23041
4.15956
-1003.31
-1.40181
4.22486
-1003.75
4.30016
-1004.34
-0.474444
4.98671
-1001.41
-0.89761
4.99832
-1001.58
-1.16139
5.00778
-1001.95
-1.32363
5.01537
-1002.3
5.03472
-1002.78
-0.473345
-999.651
-0.888547
-999.819
-1.15355
-1000.17
-1.30581
-1000.53
-1000.97
-0.796873
1.96622
-1005.19
-1.61327
2.00047
-1005.46
-1.92958
2.11175
-1006.68
-2.32818
2.19412
-1007.25
2.36073
-1009.03
-0.765087
3.75639
-1004.57
-1.51134
3.83861
-1004.89
-1.83993
3.99931
-1005.89
-2.17611
4.16481
-1006.49
4.39021
-1007.92
-0.685164
5.34577
-1003.59
-1.34718
5.41257
-1003.79
-1.65927
5.51535
-1004.52
-1.95137
5.6628
-1004.95
5.84028
-1006
-0.628054
6.70512
-1002.15
-1.24059
6.7171
-1002.27
-1.50442
6.74729
-1002.92
-1.77307
6.75167
-1003.12
6.81505
-1003.9
-0.630637
-999.635
-1.2152
-999.813
-1.50239
-1000.37
-1.72335
-1000.71
-1001.37
-1.1255
2.55051
-1006.62
-2.59018
2.56378
-1006.56
-2.68824
2.86673
-1009.45
-3.67201
2.92618
-1009.19
3.40687
-1013.61
-1.08402
4.76586
-1005.71
-2.3606
4.93614
-1005.98
-2.53542
5.33832
-1008.18
-3.32051
5.64487
-1008.43
6.2176
-1011.68
-0.901049
6.82345
-1004.75
-1.9652
6.96188
-1004.75
-2.15823
7.14535
-1006.13
-2.81334
7.50051
-1006.15
7.92884
-1008.4
-0.780658
9.06545
-1003.61
-1.75817
9.04833
-1003.38
-1.80574
9.15476
-1004.88
-2.40503
9.07145
-1004.09
9.27938
-1005.76
-0.808595
-999.421
-1.69291
-999.491
-1.87513
-1000.55
-2.29657
-1000.58
-1001.88
-1.60188
3.30987
-1008.33
-4.367
3.12679
-1006.92
-3.83742
4.03112
-1014.01
-6.05544
3.70976
-1010.68
5.19535
-1021.71
-1.58229
5.81615
-1006.63
-3.91335
6.17579
-1006.7
-3.56786
7.24199
-1011.74
-5.29166
7.69653
-1010.69
9.19695
-1018.05
-1.12177
8.28394
-1006.09
-2.91148
8.58291
-1005.37
-2.75467
8.85098
-1007.9
-4.22083
9.66948
-1006.66
10.6714
-1011.65
-0.903969
12.4932
-1006.91
-2.55055
12.3317
-1005.48
-1.91484
12.7169
-1009.38
-3.25741
12.2061
-1005.28
12.9161
-1009.35
-1.00271
-998.219
-2.41403
-997.949
-2.27139
-1000.03
-3.18135
-999.097
-1002.39
-2.33035
4.3355
-1010.33
-7.50004
3.36778
-1005.12
-5.78632
6.03367
-1021.76
-10.2002
4.34425
-1010.61
8.55301
-1036.46
-2.55022
6.72734
-1006.47
-6.77745
7.35045
-1006.45
-5.42358
10.0243
-1017.08
-8.51863
10.6528
-1013.9
14.434
-1028.78
-1.24387
9.47357
-1007.59
-4.07605
10.068
-1005.26
-3.57732
10.5113
-1008.88
-6.4522
12.0946
-1005.23
14.2232
-1015.07
-0.992856
17.5904
-1014.04
-3.62317
17.0375
-1009.82
-1.55839
18.0265
-1018.96
-4.02874
16.4497
-1007.16
18.6277
-1016.3
-1.2475
-994.369
-3.41083
-993.573
-2.86511
-997.195
-4.71746
-994.057
-1002.69
-3.38008
5.86314
-1012.81
-13.0557
2.77139
-998.216
-9.30071
9.98074
-1035.49
-17.5178
4.48509
-1006.88
15.4969
-1064.6
-4.65145
6.31014
-1002.27
-12.2001
7.23038
-1003.36
-9.10631
13.8048
-1024
-13.8275
14.7824
-1019.48
23.9864
-1046.4
-0.926648
10.0996
-1010.46
-4.87907
11.3416
-1005.42
-4.56941
11.9397
-1007.32
-10.0219
15.32
-1000.31
19.0807
-1016.88
-1.01324
25.1429
-1028.07
-4.93836
23.7576
-1018.31
-0.225816
25.4124
-1037.15
-3.98246
21.8333
-1009.92
27.3757
-1028.61
-1.57032
-984.743
-4.57317
-983.923
-3.93122
-989.024
-7.76185
-981.336
-1003.6
-4.73683
8.89882
-1016.98
-22.8453
0.088127
-980.195
-16.0131
19.1807
-1061.51
-31.1786
2.83673
-994.55
32.1814
-1122.82
-9.38556
0.197326
-984.178
-22.9281
1.33768
-991.071
-16.6929
18.7871
-1029.84
-22.908
20.2961
-1030.72
42.2651
-1072.77
0.753347
9.46355
-1020.47
-2.76959
12.2531
-1012.81
-4.99875
12.1532
-998.461
-15.7379
20.8691
-990.145
25.2056
-1011.58
-0.743145
36.9167
-1054.78
-5.98097
34.0244
-1034.84
4.96463
34.9788
-1070.92
-1.59405
28.3285
-1010.82
40.0291
-1050.72
-2.09034
-962.249
-5.02382
-965.397
-5.98288
-968.37
-14.6512
-952.289
-1010.17
0.283333
22.2323
-1039.49
-31.2764
-12.2346
-936.401
-27.5526
39.7375
-1104.97
-61.416
-6.10646
-954.58
79.3186
-1256.4
-17.8055
-14.6976
-929.443
-39.2896
-17.6976
-964.124
-29.9705
25.6433
-1025.07
-39.1219
27.49
-1055.17
79.3051
-1095.55
7.7563
7.81056
-1050.74
17.0657
15.5676
-1055.38
1.3983
10.6879
-967.839
-22.6081
32.597
-971.246
30.5812
-979.632
2.79001
57.3107
-1107.07
1.36699
53.711
-1071.56
22.8967
47.0181
-1128.78
6.22697
36.2487
-997.804
58.0651
-1096
-1.95669
-908.85
4.81908
-937.43
-7.46715
-913.376
-29.6453
-877.452
-1036.11
-35.7813
12.2158
-1015.93
-112.814
-20.7676
-838.6
-60.2947
91.6155
-1249.1
-64.1788
-8.91158
-941.785
95.5876
-1463.78
-47.0934
-44.1885
-825.945
-110.1
-32.5304
-889.354
-83.9137
36.2466
-995.886
-56.6309
44.9913
-1136.36
103.726
-1183.08
13.435
-3.12814
-1105.23
-13.4811
5.91941
-1066.92
-28.8233
-9.30345
-906.946
-58.8976
45.1136
-941.294
8.39929
-935.331
-9.4888
87.7863
-1188.49
-36.1381
64.5664
-1103.56
9.12759
39.0441
-1222.39
-22.2493
48.0168
-969.33
41.6067
-1165.25
-21.1417
-803.257
-49.6095
-857.359
-65.7644
-833.099
-105.313
-789.682
-1222.68
112.819
145.179
-1273.92
-18.6182
-148.809
-558.354
-127.369
218.528
-1358.88
-325.788
-163.786
-579.579
603.098
-2425.01
-118.088
-205.362
-357.316
-150.232
-280.445
-725.574
-123.065
51.8582
-856.383
-94.4109
53.2043
-1382
341.228
-850.994
72.1328
-33.3108
-1349.42
282.59
46.8639
-1604.68
116.373
-35.5281
-653.344
-32.2577
170.685
-910.144
13.1902
-595.444
51.5916
222.122
-1495.51
82.1592
233.399
-1320.66
200.132
77.9837
-1453.88
99.4251
62.4322
-760.37
205.424
-1557.37
0.179994
-360.07
168.032
-818.505
52.5006
-370.999
-89.6092
-259.091
-1421.66
-280.034
-117.287
-876.603
-514.78
24.1372
-347.745
-51.3725
416.773
-2239.06
145.857
57.6679
-834.477
-64.5726
-2385.25
-91.5456
-161.25
-221.807
-312.243
-5.57551
-475.164
-344.122
126.182
-533.913
-121.683
186.793
-1733.56
213.282
-1672.85
125.674
1.76022
-1638.1
-165.388
-58.633
-1260.56
-178.014
-78.1551
-436.381
-167.772
65.4561
-799.05
-152.977
-374.595
-34.7134
180.774
-1639.82
-149.077
-3.76235
-1261.17
-42.4347
-77.8241
-1560.85
-191.731
110.115
-655.734
-268.115
-1382.48
-78.9077
-232.1
-296.268
-570.34
-465.259
-168.572
-587.583
-238.756
-2617.95
0.0982257
-0.150806
-876.551
24.1196
-1.10756
-370.659
-15.816
18.6099
-2217.73
-173.349
-106.031
-570.913
427.915
-3143.09
-0.295202
-33.0478
-188.615
-0.439747
-4.38303
-471.744
22.0504
0.749085
-538.543
57.9023
-6.19818
-1869.25
142.826
-1260.05
-44.3441
-41.1961
-1585.61
14.0919
27.2122
-1350.59
-4.18633
-16.6618
-400.692
-15.5121
55.2599
-849.182
-16.2482
-134.56
25.8605
20.8467
-1727.72
19.5566
13.238
-1240.89
78.4645
18.4165
-1654.84
7.43911
34.8132
-564.262
357.056
-1987.68
-0.091782
-192.255
-0.0224166
-570.019
-8.13479
-5.13533
1.17419
-192.677
-2504.68
0.905162
-159.954
-717.502
340.869
106.935
-817.558
6.45335
-404.048
-1479.27
156.135
132.805
-853.4
-188.089
-2828.28
86.3628
160.622
-595.554
8.26118
301.948
-588.656
340.113
122.24
-1396.68
92.1999
215.754
-1704.29
-3.30749
-1356.99
272.697
191.064
-1888.75
165.794
321.007
-1262.75
86.4445
132.029
-331.132
-63.2567
-27.9879
-455.738
340.815
-612.834
208.925
-35.6466
-1709.93
184.95
38.8281
-934.738
-31.6268
-52.3787
-1253.85
-135.239
19.0729
-507.711
98.381
-1479.4
106.818
-186.213
37.7763
-522.105
-0.434209
-398.675
-22.5998
-15.0445
-2191.11
-155.221
-218.586
-343.694
21.3424
202.928
-1197.05
435.079
-123.035
-1769.97
473.425
104.337
-996.083
-718.427
-1320.12
122.949
-130.183
-806.906
-29.331
17.2091
-250.656
520.177
28.1199
-2097.35
-186.403
149.03
-1042.4
-518.678
-1299
60.1085
-107.942
-1971.1
-2.68127
112.473
-1295.22
42.3939
215.813
-563.9
-133.963
-69.1002
-61.2512
236.145
-1544.72
524.438
18.1456
-2360.46
108.158
37.5107
-443.495
-80.0839
-29.6115
-820.186
30.7173
-104.738
-582.873
-352.345
-7.83612
0.306213
-10.9196
-67.27
-411.564
-96.1462
-378.026
-185.022
-33.9377
-2405.88
-83.3534
68.9659
-329.306
-482.824
8.85114
-806.431
-129.322
-355.629
-1767.85
-85.1018
-20.4855
-1019.82
118.778
-1384.53
-53.1286
-197.209
-487.602
-27.2276
-190.669
-77.0374
399.178
199.963
-3079.34
51.4297
-186.183
-528.952
-136.44
-119.769
-254.115
-986.372
-927.822
-412.185
-139.602
-1188.22
-201.864
307.486
-881.742
-64.277
36.1288
-421.15
-242.996
-1038.07
-41.2749
-892.78
-2412.78
22.9052
-43.8482
-603.429
-72.0601
-1.916
-415.819
-24.4444
-58.8737
-535.487
-314.719
-12.3795
81.0092
-1544.49
65.0836
-304.177
-16.054
-21.0432
621.003
-889.689
-1513.83
40.3981
-21.1144
-348.59
-346.633
-137.116
-282.284
-916.094
-93.1595
-1105.22
-399.77
60.9244
-1597.07
32.2973
-1863.07
-29.0774
96.1421
-575.781
-148.397
40.4592
-135.293
-414.121
-75.7026
-2831.08
-5.43977
-11.4428
-865.266
3.22602
-518.094
-42.3231
-122.201
-667.156
-292.669
-169.37
-728.045
-584.079
-65.2873
-600.747
32.5903
232.752
-1282.01
-0.238658
-739.208
-665.099
-519.2
-1350.68
-296.375
-79.9226
-1061.6
-31.7216
-20.114
-725.646
4.67542
50.9252
-390.057
-0.933654
-16.121
-120.679
-1790.71
-54.7222
-111.877
566.022
-1273.77
511.655
-768.636
-20.5727
-49.0068
118.98
-418.563
155.589
11.4402
-498.32
-442.794
50.2654
-557.106
-222.737
240.579
-2057.7
-205.635
-1940.95
-201.509
129.579
-384.87
183.643
332.966
-841.971
-632.645
-11.4236
-1953.1
-445.115
238.305
-1050.52
463.202
-1965.05
-129.61
-0.902268
-407.065
-94.9526
161.973
-591.709
-515.357
-24.6054
-167.161
-365.658
-72.1611
-1121.25
171.977
-1089.21
-244.304
-83.4772
-1023.8
-267.022
18.525
-895.434
-345.473
209.959
-881.759
-2.87805
4.94223
-809.755
-2.161
-12.6522
-21.571
-1772.29
58.842
-129.767
208.766
-1667.36
-7.74022
-337.22
-576.266
217.564
90.5096
-726.637
327.568
180.452
-788.776
-177.599
-6.20329
-45.7362
-54.0694
30.1815
-2211.41
-25.5504
-1839.22
-33.0359
-27.7147
-233.61
589.121
61.9457
-1345.62
149.593
87.56
-1607.33
-84.9685
9.5663
-795.345
293.07
-2263.45
11.7545
176.953
-623.487
-1.7266
60.0509
-576.334
-26.3835
-11.8285
-43.1156
168.66
-261.803
-1044.92
-123.175
-626.507
-26.5301
-195.079
-625.237
42.4187
19.408
-923.74
-273.887
70.9013
-648.183
-129.918
-176.487
-1039.04
52.7231
-615.424
-142.711
-1609.36
16.7728
-575.885
-199.131
-1219.79
319.205
-1369.67
-945.908
-99.6439
11.4875
-638.48
34.5149
83.4677
-1006.4
81.5645
5.69088
-98.4766
186.519
51.9642
-2368.33
-74.4948
-1555.35
116.33
-54.1349
-284.318
448.536
-96.6294
-1497.73
-253.711
-229.592
-669.804
-108.124
24.5135
-913.48
38.265
-2455.27
-0.553156
223.059
-900.128
-61.9821
62.0444
-673.578
350.144
127.773
-812.607
281.791
57.0387
-1009.09
-76.0271
-236.809
-41.1357
179.177
-540.22
107.655
152.256
-1162.74
75.5914
138.171
-626.517
108.189
-274.256
-740.343
-71.3479
-791.926
-254.033
-111.257
-133.385
-766.398
140.609
-1563.58
473.075
-1851.03
-518.049
59.5148
1.4368
-699.432
-168.429
48.5117
-826.971
432.88
35.121
-734.906
644.542
382.069
-2962.06
-237.579
-571.313
415.694
-96.2525
-602.322
274.028
-272.74
-1034.81
-6.43959
-283.996
-70.22
490.373
-2.01291
-1026.21
-493.514
-2094.56
197.464