/*--------------------------------*- C++ -*----------------------------------*\
| =========                 |                                                 |
| \\      /  F ield         | OpenFOAM: The Open Source CFD Toolbox           |
|  \\    /   O peration     | Version:  5.x                                   |
|   \\  /    A nd           | Web:      www.OpenFOAM.org                      |
|    \\/     M anipulation  |                                                 |
\*---------------------------------------------------------------------------*/
FoamFile
{
    version     2.0;
    format      ascii;
    class       volVectorField;
    location    "50000";
    object      stored_U;
}
// * * * * * * * * * * * * * * * * * * * * * * * * * * * * * * * * * * * * * //

dimensions      [0 1 -1 0 0 0 0];

internalField   nonuniform List<vector> 
2250
(
(-1.03992e-11 3.68981e-11 -0.001)
(-4.39977e-11 3.14924e-11 -0.001)
(-8.81903e-11 2.76832e-11 -0.001)
(-9.459e-11 2.64341e-11 -0.001)
(-8.3248e-11 2.69345e-11 -0.001)
(-1.58867e-11 8.92483e-11 -0.001)
(-5.33748e-11 7.97104e-11 -0.001)
(-9.34033e-11 7.48921e-11 -0.001)
(-9.56249e-11 7.50587e-11 -0.001)
(-8.27e-11 7.9022e-11 -0.001)
(-2.00669e-11 1.24917e-10 -0.001)
(-5.85968e-11 1.18834e-10 -0.001)
(-9.30113e-11 1.19698e-10 -0.001)
(-9.07322e-11 1.18206e-10 -0.001)
(-7.64764e-11 1.38823e-10 -0.001)
(-2.21649e-11 1.57504e-10 -0.000999999)
(-5.88426e-11 1.56682e-10 -0.000999999)
(-9.40476e-11 1.63652e-10 -0.000999999)
(-7.65115e-11 1.65949e-10 -0.001)
(-6.18093e-11 2.38626e-10 -0.001)
(-2.12546e-11 1.75644e-10 -0.000999999)
(-5.28256e-11 1.78729e-10 -0.000999999)
(-8.37611e-11 1.8533e-10 -0.000999999)
(-1.57656e-11 1.99274e-10 -0.000999999)
(-7.84254e-11 1.51417e-10 -0.000999999)
(-3.68778e-11 9.76764e-11 -0.001)
(-1.30728e-10 8.4901e-11 -0.001)
(-2.32117e-10 8.07082e-11 -0.001)
(-2.38671e-10 8.39856e-11 -0.001)
(-2.15319e-10 8.92452e-11 -0.001)
(-4.98888e-11 2.44993e-10 -0.001)
(-1.48129e-10 2.26797e-10 -0.001)
(-2.33447e-10 2.25062e-10 -0.001)
(-2.30852e-10 2.33186e-10 -0.001)
(-2.1009e-10 2.48851e-10 -0.001)
(-5.54541e-11 3.53602e-10 -0.001)
(-1.5131e-10 3.47371e-10 -0.001)
(-2.26198e-10 3.56579e-10 -0.001)
(-2.15554e-10 3.58972e-10 -0.001)
(-1.97833e-10 4.02064e-10 -0.001)
(-5.66864e-11 4.46575e-10 -0.000999999)
(-1.45823e-10 4.54782e-10 -0.000999999)
(-2.2189e-10 4.76189e-10 -0.001)
(-1.85392e-10 4.81301e-10 -0.001)
(-1.75031e-10 6.3312e-10 -0.001)
(-4.81883e-11 4.97734e-10 -0.000999999)
(-1.22651e-10 5.10625e-10 -0.000999999)
(-1.99721e-10 5.28516e-10 -0.000999999)
(-5.8621e-11 5.61623e-10 -0.000999999)
(-2.2325e-10 4.3019e-10 -0.000999999)
(-6.7528e-11 1.60347e-10 -0.001)
(-2.1545e-10 1.50885e-10 -0.001)
(-3.43493e-10 1.52486e-10 -0.001)
(-3.42752e-10 1.59845e-10 -0.001)
(-3.35986e-10 1.66094e-10 -0.001)
(-7.73922e-11 4.25151e-10 -0.001)
(-2.24203e-10 4.15374e-10 -0.001)
(-3.35383e-10 4.25321e-10 -0.001)
(-3.30106e-10 4.38262e-10 -0.001)
(-3.30953e-10 4.5298e-10 -0.001)
(-7.80916e-11 6.34483e-10 -0.001)
(-2.16576e-10 6.38251e-10 -0.001)
(-3.21423e-10 6.5766e-10 -0.001)
(-3.1599e-10 6.60707e-10 -0.001)
(-3.2632e-10 6.88093e-10 -0.001)
(-7.47053e-11 8.12153e-10 -0.000999999)
(-2.02247e-10 8.34502e-10 -0.001)
(-3.13013e-10 8.60944e-10 -0.001)
(-2.99761e-10 8.68779e-10 -0.001)
(-3.44523e-10 9.52052e-10 -0.001)
(-5.72971e-11 8.96691e-10 -0.000999999)
(-1.69404e-10 9.20481e-10 -0.000999999)
(-2.87281e-10 9.36057e-10 -0.000999999)
(-2.2492e-10 9.54466e-10 -0.000999999)
(-4.28827e-10 8.00848e-10 -0.001)
(-9.04229e-11 2.42825e-10 -0.001)
(-2.84113e-10 2.39664e-10 -0.001)
(-4.4409e-10 2.42908e-10 -0.001)
(-4.62662e-10 2.46138e-10 -0.001)
(-4.92049e-10 2.3728e-10 -0.001)
(-9.42179e-11 6.61581e-10 -0.001)
(-2.8517e-10 6.61538e-10 -0.001)
(-4.3863e-10 6.70134e-10 -0.001)
(-4.69478e-10 6.71425e-10 -0.001)
(-4.982e-10 6.63484e-10 -0.001)
(-9.17532e-11 9.97251e-10 -0.001)
(-2.77403e-10 1.00491e-09 -0.001)
(-4.35221e-10 1.01574e-09 -0.001)
(-4.70373e-10 1.0022e-09 -0.001)
(-5.01477e-10 1.00219e-09 -0.001)
(-8.83326e-11 1.28993e-09 -0.001)
(-2.68614e-10 1.30444e-09 -0.001)
(-4.41456e-10 1.3145e-09 -0.001)
(-4.8303e-10 1.29657e-09 -0.001)
(-5.22158e-10 1.34206e-09 -0.001)
(-7.95442e-11 1.41786e-09 -0.000999999)
(-2.55321e-10 1.43894e-09 -0.000999999)
(-4.43177e-10 1.44388e-09 -0.000999999)
(-4.42736e-10 1.43645e-09 -0.001)
(-6.10534e-10 1.29299e-09 -0.001)
(-1.15186e-10 3.49098e-10 -0.001)
(-3.69719e-10 3.4495e-10 -0.001)
(-5.90277e-10 3.43023e-10 -0.001)
(-6.78697e-10 3.36701e-10 -0.001)
(-7.338e-10 3.23468e-10 -0.001)
(-1.20179e-10 9.62644e-10 -0.001)
(-3.77231e-10 9.58357e-10 -0.001)
(-5.99712e-10 9.55643e-10 -0.001)
(-6.9964e-10 9.42738e-10 -0.001)
(-7.41974e-10 9.28531e-10 -0.001)
(-1.21362e-10 1.45489e-09 -0.001)
(-3.79279e-10 1.45393e-09 -0.001)
(-6.07127e-10 1.4502e-09 -0.001)
(-7.07138e-10 1.42933e-09 -0.001)
(-7.41471e-10 1.42862e-09 -0.001)
(-1.23806e-10 1.87749e-09 -0.001)
(-3.8477e-10 1.86501e-09 -0.001)
(-6.24448e-10 1.85424e-09 -0.001)
(-7.2126e-10 1.82634e-09 -0.001)
(-7.46297e-10 1.87835e-09 -0.001)
(-1.37152e-10 2.08166e-09 -0.000999999)
(-4.06064e-10 2.08828e-09 -0.000999999)
(-6.45869e-10 2.08885e-09 -0.001)
(-6.83066e-10 2.07858e-09 -0.001)
(-8.00994e-10 1.98298e-09 -0.001)
(-1.65338e-10 4.76149e-10 -0.001)
(-5.10168e-10 4.67422e-10 -0.001)
(-8.0531e-10 4.63112e-10 -0.001)
(-9.76648e-10 4.58229e-10 -0.001)
(-1.049e-09 4.55993e-10 -0.001)
(-1.75233e-10 1.33974e-09 -0.001)
(-5.25104e-10 1.32968e-09 -0.001)
(-8.16001e-10 1.32466e-09 -0.001)
(-9.85567e-10 1.31809e-09 -0.001)
(-1.04679e-09 1.31813e-09 -0.001)
(-1.7812e-10 2.04595e-09 -0.001)
(-5.28801e-10 2.0421e-09 -0.001)
(-8.18529e-10 2.04092e-09 -0.001)
(-9.85034e-10 2.03423e-09 -0.001)
(-1.04047e-09 2.04163e-09 -0.001)
(-1.82924e-10 2.61245e-09 -0.001)
(-5.34183e-10 2.59267e-09 -0.001)
(-8.24105e-10 2.58596e-09 -0.001)
(-9.84944e-10 2.57461e-09 -0.001)
(-1.04209e-09 2.64159e-09 -0.001)
(-2.02593e-10 2.9338e-09 -0.000999999)
(-5.60272e-10 2.93376e-09 -0.000999999)
(-8.36796e-10 2.94301e-09 -0.001)
(-9.29416e-10 2.96255e-09 -0.001)
(-1.09684e-09 2.84947e-09 -0.001)
(-2.45985e-10 6.40208e-10 -0.001)
(-7.09653e-10 6.36105e-10 -0.001)
(-1.07965e-09 6.37387e-10 -0.001)
(-1.32315e-09 6.40198e-10 -0.001)
(-1.43156e-09 6.4603e-10 -0.001)
(-2.51703e-10 1.85283e-09 -0.001)
(-7.15008e-10 1.85319e-09 -0.001)
(-1.07755e-09 1.85817e-09 -0.001)
(-1.3169e-09 1.86339e-09 -0.001)
(-1.42773e-09 1.86853e-09 -0.001)
(-2.49508e-10 2.87794e-09 -0.001)
(-7.09252e-10 2.88596e-09 -0.001)
(-1.07166e-09 2.89593e-09 -0.001)
(-1.31533e-09 2.90223e-09 -0.001)
(-1.43308e-09 2.91038e-09 -0.001)
(-2.49087e-10 3.64481e-09 -0.001)
(-7.02681e-10 3.64602e-09 -0.001)
(-1.06161e-09 3.65707e-09 -0.001)
(-1.30257e-09 3.66244e-09 -0.001)
(-1.46269e-09 3.68997e-09 -0.001)
(-2.54908e-10 4.10038e-09 -0.000999999)
(-7.03936e-10 4.10547e-09 -0.000999999)
(-1.05552e-09 4.11275e-09 -0.000999999)
(-1.28243e-09 4.10066e-09 -0.001)
(-1.49159e-09 4.00305e-09 -0.001)
(-3.44381e-10 8.81438e-10 -0.001)
(-9.59287e-10 8.88535e-10 -0.001)
(-1.4391e-09 8.93951e-10 -0.001)
(-1.79308e-09 8.96251e-10 -0.001)
(-1.95971e-09 8.98487e-10 -0.00100001)
(-3.39519e-10 2.59572e-09 -0.001)
(-9.50196e-10 2.61361e-09 -0.001)
(-1.43407e-09 2.62158e-09 -0.001)
(-1.79179e-09 2.62255e-09 -0.001)
(-1.96787e-09 2.62567e-09 -0.001)
(-3.31974e-10 4.07494e-09 -0.001)
(-9.40284e-10 4.09509e-09 -0.001)
(-1.43313e-09 4.10118e-09 -0.001)
(-1.79242e-09 4.10215e-09 -0.001)
(-1.9896e-09 4.12198e-09 -0.001)
(-3.26987e-10 5.14561e-09 -0.001)
(-9.31934e-10 5.16468e-09 -0.001)
(-1.42746e-09 5.17383e-09 -0.001)
(-1.77116e-09 5.18778e-09 -0.001)
(-2.05307e-09 5.22418e-09 -0.001)
(-3.22366e-10 5.73472e-09 -0.000999998)
(-9.21961e-10 5.74138e-09 -0.000999999)
(-1.41042e-09 5.7234e-09 -0.000999999)
(-1.74209e-09 5.65284e-09 -0.000999999)
(-2.12838e-09 5.52843e-09 -0.001)
(-4.57823e-10 1.23465e-09 -0.001)
(-1.28148e-09 1.24773e-09 -0.00100001)
(-1.95075e-09 1.24878e-09 -0.00100001)
(-2.48199e-09 1.24582e-09 -0.00100001)
(-2.72115e-09 1.25515e-09 -0.00100001)
(-4.47835e-10 3.63811e-09 -0.001)
(-1.27206e-09 3.66174e-09 -0.001)
(-1.95637e-09 3.65965e-09 -0.001)
(-2.48013e-09 3.65171e-09 -0.00100001)
(-2.72746e-09 3.6707e-09 -0.00100001)
(-4.41825e-10 5.71336e-09 -0.001)
(-1.26944e-09 5.73161e-09 -0.001)
(-1.96483e-09 5.72071e-09 -0.001)
(-2.4757e-09 5.70512e-09 -0.001)
(-2.74909e-09 5.73533e-09 -0.001)
(-4.40279e-10 7.20263e-09 -0.001)
(-1.27592e-09 7.21563e-09 -0.001)
(-1.98347e-09 7.20146e-09 -0.001)
(-2.46574e-09 7.20045e-09 -0.001)
(-2.80821e-09 7.31283e-09 -0.001)
(-4.42278e-10 7.94875e-09 -0.000999998)
(-1.28464e-09 7.9503e-09 -0.000999998)
(-1.98055e-09 7.90814e-09 -0.000999999)
(-2.36434e-09 7.82534e-09 -0.000999999)
(-2.98908e-09 7.61811e-09 -0.001)
(-6.01217e-10 1.71874e-09 -0.00100001)
(-1.71978e-09 1.72746e-09 -0.00100001)
(-2.66127e-09 1.72427e-09 -0.00100001)
(-3.38891e-09 1.72309e-09 -0.00100001)
(-3.73907e-09 1.74258e-09 -0.00100001)
(-5.96744e-10 5.0275e-09 -0.00100001)
(-1.72076e-09 5.04255e-09 -0.00100001)
(-2.67076e-09 5.03183e-09 -0.00100001)
(-3.37686e-09 5.02061e-09 -0.00100001)
(-3.73769e-09 5.04085e-09 -0.00100001)
(-5.96634e-10 7.85949e-09 -0.001)
(-1.7285e-09 7.86881e-09 -0.001)
(-2.68878e-09 7.84156e-09 -0.001)
(-3.38649e-09 7.79977e-09 -0.00100001)
(-3.76266e-09 7.79074e-09 -0.00100001)
(-6.02175e-10 9.8955e-09 -0.001)
(-1.75413e-09 9.89854e-09 -0.001)
(-2.74062e-09 9.85744e-09 -0.001)
(-3.42801e-09 9.80589e-09 -0.001)
(-3.80408e-09 9.92586e-09 -0.001)
(-6.12132e-10 1.08809e-08 -0.000999997)
(-1.78587e-09 1.08835e-08 -0.000999998)
(-2.78217e-09 1.08332e-08 -0.000999998)
(-3.3181e-09 1.07738e-08 -0.000999999)
(-4.01446e-09 1.05439e-08 -0.001)
(-7.98284e-10 2.3561e-09 -0.00100001)
(-2.31892e-09 2.35889e-09 -0.00100001)
(-3.61167e-09 2.35535e-09 -0.00100001)
(-4.55979e-09 2.35246e-09 -0.00100001)
(-5.08453e-09 2.35008e-09 -0.00100001)
(-8.01265e-10 6.84746e-09 -0.00100001)
(-2.32853e-09 6.85343e-09 -0.00100001)
(-3.62509e-09 6.83581e-09 -0.00100001)
(-4.57365e-09 6.80828e-09 -0.00100001)
(-5.10803e-09 6.77682e-09 -0.00100001)
(-8.06506e-10 1.06626e-08 -0.001)
(-2.34831e-09 1.06658e-08 -0.00100001)
(-3.66445e-09 1.06206e-08 -0.00100001)
(-4.62778e-09 1.0546e-08 -0.00100001)
(-5.15508e-09 1.04661e-08 -0.00100001)
(-8.17971e-10 1.34316e-08 -0.001)
(-2.39142e-09 1.34296e-08 -0.001)
(-3.7461e-09 1.33597e-08 -0.001)
(-4.72865e-09 1.32551e-08 -0.001)
(-5.20079e-09 1.32792e-08 -0.00100001)
(-8.33506e-10 1.47898e-08 -0.000999997)
(-2.4462e-09 1.47954e-08 -0.000999997)
(-3.83997e-09 1.47369e-08 -0.000999998)
(-4.70837e-09 1.46933e-08 -0.000999999)
(-5.32919e-09 1.45472e-08 -0.001)
(-1.07292e-09 3.19869e-09 -0.00100001)
(-3.14069e-09 3.19818e-09 -0.00100001)
(-4.91232e-09 3.19004e-09 -0.00100001)
(-6.20197e-09 3.17306e-09 -0.00100002)
(-6.94327e-09 3.13987e-09 -0.00100002)
(-1.08124e-09 9.2646e-09 -0.00100001)
(-3.16135e-09 9.26408e-09 -0.00100001)
(-4.94701e-09 9.23246e-09 -0.00100001)
(-6.26395e-09 9.17962e-09 -0.00100001)
(-7.00101e-09 9.10627e-09 -0.00100002)
(-1.09261e-09 1.43971e-08 -0.00100001)
(-3.19681e-09 1.43946e-08 -0.00100001)
(-5.00718e-09 1.4334e-08 -0.00100001)
(-6.34045e-09 1.42501e-08 -0.00100001)
(-7.05828e-09 1.41588e-08 -0.00100001)
(-1.11061e-09 1.81546e-08 -0.001)
(-3.25259e-09 1.81425e-08 -0.001)
(-5.09298e-09 1.80595e-08 -0.001)
(-6.43973e-09 1.79623e-08 -0.00100001)
(-7.11031e-09 1.79119e-08 -0.00100001)
(-1.13831e-09 2.00573e-08 -0.000999996)
(-3.32697e-09 2.00575e-08 -0.000999996)
(-5.18875e-09 1.99938e-08 -0.000999998)
(-6.48804e-09 1.995e-08 -0.000999999)
(-7.1664e-09 1.99067e-08 -0.001)
(-1.45802e-09 4.33067e-09 -0.00100002)
(-4.28245e-09 4.32616e-09 -0.00100002)
(-6.71957e-09 4.31123e-09 -0.00100002)
(-8.50564e-09 4.28673e-09 -0.00100002)
(-9.49e-09 4.25837e-09 -0.00100003)
(-1.47309e-09 1.25325e-08 -0.00100001)
(-4.31819e-09 1.25264e-08 -0.00100002)
(-6.77214e-09 1.24873e-08 -0.00100002)
(-8.57474e-09 1.24338e-08 -0.00100002)
(-9.5446e-09 1.23799e-08 -0.00100002)
(-1.48996e-09 1.94656e-08 -0.00100001)
(-4.36011e-09 1.94631e-08 -0.00100001)
(-6.82647e-09 1.94111e-08 -0.00100001)
(-8.62997e-09 1.93555e-08 -0.00100001)
(-9.58697e-09 1.93031e-08 -0.00100002)
(-1.51172e-09 2.4547e-08 -0.001)
(-4.41069e-09 2.45382e-08 -0.001)
(-6.88191e-09 2.44862e-08 -0.00100001)
(-8.68358e-09 2.44471e-08 -0.00100001)
(-9.63618e-09 2.44218e-08 -0.00100001)
(-1.54403e-09 2.72044e-08 -0.000999994)
(-4.46821e-09 2.72114e-08 -0.000999995)
(-6.91945e-09 2.71708e-08 -0.000999997)
(-8.69449e-09 2.71414e-08 -0.000999999)
(-9.6821e-09 2.71195e-08 -0.001)
(-1.99857e-09 5.86727e-09 -0.00100002)
(-5.85989e-09 5.86155e-09 -0.00100003)
(-9.18042e-09 5.84894e-09 -0.00100003)
(-1.15956e-08 5.83244e-09 -0.00100003)
(-1.28944e-08 5.81518e-09 -0.00100003)
(-2.01863e-09 1.69984e-08 -0.00100002)
(-5.90037e-09 1.69983e-08 -0.00100002)
(-9.22743e-09 1.69714e-08 -0.00100002)
(-1.16515e-08 1.69361e-08 -0.00100003)
(-1.29398e-08 1.6895e-08 -0.00100003)
(-2.03371e-09 2.64229e-08 -0.00100001)
(-5.93095e-09 2.64405e-08 -0.00100001)
(-9.26216e-09 2.64157e-08 -0.00100002)
(-1.16951e-08 2.63861e-08 -0.00100002)
(-1.29752e-08 2.63465e-08 -0.00100002)
(-2.05001e-09 3.3311e-08 -0.001)
(-5.95899e-09 3.3342e-08 -0.00100001)
(-9.2847e-09 3.33377e-08 -0.00100001)
(-1.17218e-08 3.33387e-08 -0.00100001)
(-1.30152e-08 3.33407e-08 -0.00100001)
(-2.0644e-09 3.69758e-08 -0.000999992)
(-5.96849e-09 3.70208e-08 -0.000999994)
(-9.26804e-09 3.70186e-08 -0.000999996)
(-1.16922e-08 3.70126e-08 -0.000999999)
(-1.3074e-08 3.698e-08 -0.001)
(-2.74291e-09 7.9677e-09 -0.00100003)
(-8.0039e-09 7.97018e-09 -0.00100003)
(-1.24922e-08 7.96511e-09 -0.00100004)
(-1.57469e-08 7.95318e-09 -0.00100004)
(-1.74865e-08 7.92774e-09 -0.00100005)
(-2.75996e-09 2.31277e-08 -0.00100003)
(-8.03659e-09 2.315e-08 -0.00100003)
(-1.25335e-08 2.31364e-08 -0.00100003)
(-1.58142e-08 2.31053e-08 -0.00100004)
(-1.75487e-08 2.30519e-08 -0.00100004)
(-2.76842e-09 3.59956e-08 -0.00100002)
(-8.0552e-09 3.60459e-08 -0.00100002)
(-1.25634e-08 3.60346e-08 -0.00100002)
(-1.58628e-08 3.60061e-08 -0.00100003)
(-1.7587e-08 3.59619e-08 -0.00100003)
(-2.77645e-09 4.53812e-08 -0.00100001)
(-8.06767e-09 4.54604e-08 -0.00100001)
(-1.25772e-08 4.54694e-08 -0.00100001)
(-1.58884e-08 4.54612e-08 -0.00100001)
(-1.76184e-08 4.54476e-08 -0.00100002)
(-2.77324e-09 5.03754e-08 -0.00099999)
(-8.05444e-09 5.0464e-08 -0.000999992)
(-1.25662e-08 5.04697e-08 -0.000999995)
(-1.58847e-08 5.04619e-08 -0.000999999)
(-1.76814e-08 5.04227e-08 -0.001)
(-3.74708e-09 1.08474e-08 -0.00100005)
(-1.08997e-08 1.08628e-08 -0.00100005)
(-1.69784e-08 1.08581e-08 -0.00100005)
(-2.13956e-08 1.08438e-08 -0.00100006)
(-2.37331e-08 1.08269e-08 -0.00100007)
(-3.75824e-09 3.15244e-08 -0.00100004)
(-1.09299e-08 3.15707e-08 -0.00100004)
(-1.70305e-08 3.15531e-08 -0.00100005)
(-2.14676e-08 3.15185e-08 -0.00100005)
(-2.38056e-08 3.14825e-08 -0.00100006)
(-3.76594e-09 4.9099e-08 -0.00100003)
(-1.09528e-08 4.9174e-08 -0.00100003)
(-1.70669e-08 4.91536e-08 -0.00100003)
(-2.15089e-08 4.91202e-08 -0.00100004)
(-2.38487e-08 4.90747e-08 -0.00100005)
(-3.77425e-09 6.19051e-08 -0.00100001)
(-1.09707e-08 6.20132e-08 -0.00100001)
(-1.70897e-08 6.20027e-08 -0.00100001)
(-2.15486e-08 6.19696e-08 -0.00100002)
(-2.39118e-08 6.19003e-08 -0.00100003)
(-3.77223e-09 6.86846e-08 -0.000999986)
(-1.09742e-08 6.8799e-08 -0.000999989)
(-1.71152e-08 6.87721e-08 -0.000999993)
(-2.16114e-08 6.87205e-08 -0.000999999)
(-2.40174e-08 6.86401e-08 -0.00100001)
(-5.09783e-09 1.47843e-08 -0.00100006)
(-1.48248e-08 1.48076e-08 -0.00100006)
(-2.3086e-08 1.47959e-08 -0.00100007)
(-2.90614e-08 1.47808e-08 -0.00100008)
(-3.22002e-08 1.47707e-08 -0.00100009)
(-5.11077e-09 4.29723e-08 -0.00100005)
(-1.48691e-08 4.30328e-08 -0.00100006)
(-2.31581e-08 4.29998e-08 -0.00100006)
(-2.91422e-08 4.29593e-08 -0.00100007)
(-3.2292e-08 4.29171e-08 -0.00100008)
(-5.1261e-09 6.69322e-08 -0.00100003)
(-1.49088e-08 6.70241e-08 -0.00100004)
(-2.3209e-08 6.69836e-08 -0.00100004)
(-2.92023e-08 6.69313e-08 -0.00100005)
(-3.23731e-08 6.68445e-08 -0.00100006)
(-5.14272e-09 8.43957e-08 -0.00100001)
(-1.49475e-08 8.45236e-08 -0.00100001)
(-2.32581e-08 8.44802e-08 -0.00100002)
(-2.92841e-08 8.44129e-08 -0.00100003)
(-3.25231e-08 8.42829e-08 -0.00100004)
(-5.15374e-09 9.36195e-08 -0.000999981)
(-1.49862e-08 9.37513e-08 -0.000999985)
(-2.33261e-08 9.36713e-08 -0.000999991)
(-2.93998e-08 9.35443e-08 -0.001)
(-3.27314e-08 9.33672e-08 -0.00100001)
(-6.93026e-09 2.0141e-08 -0.00100008)
(-2.01685e-08 2.01653e-08 -0.00100009)
(-3.14092e-08 2.01441e-08 -0.0010001)
(-3.9512e-08 2.01209e-08 -0.00100011)
(-4.37242e-08 2.00793e-08 -0.00100012)
(-6.95532e-09 5.85278e-08 -0.00100007)
(-2.02417e-08 5.85974e-08 -0.00100008)
(-3.15154e-08 5.85458e-08 -0.00100008)
(-3.96528e-08 5.84804e-08 -0.0010001)
(-4.38775e-08 5.83708e-08 -0.00100011)
(-6.98125e-09 9.11519e-08 -0.00100005)
(-2.03023e-08 9.12645e-08 -0.00100005)
(-3.15938e-08 9.11968e-08 -0.00100006)
(-3.97665e-08 9.11027e-08 -0.00100007)
(-4.40179e-08 9.09568e-08 -0.00100009)
(-7.01102e-09 1.14959e-07 -0.00100001)
(-2.03733e-08 1.15099e-07 -0.00100002)
(-3.16871e-08 1.1501e-07 -0.00100003)
(-3.98968e-08 1.14892e-07 -0.00100004)
(-4.42493e-08 1.14732e-07 -0.00100005)
(-7.05236e-09 1.27552e-07 -0.000999975)
(-2.04716e-08 1.27697e-07 -0.00099998)
(-3.181e-08 1.27557e-07 -0.000999988)
(-4.00446e-08 1.27348e-07 -0.001)
(-4.45695e-08 1.27053e-07 -0.00100001)
(-9.43209e-09 2.74106e-08 -0.00100011)
(-2.74509e-08 2.74365e-08 -0.00100012)
(-4.27368e-08 2.74098e-08 -0.00100013)
(-5.37692e-08 2.73776e-08 -0.00100015)
(-5.94273e-08 2.73237e-08 -0.00100017)
(-9.47337e-09 7.96518e-08 -0.0010001)
(-2.75559e-08 7.97398e-08 -0.0010001)
(-4.28802e-08 7.96763e-08 -0.00100011)
(-5.39591e-08 7.95882e-08 -0.00100013)
(-5.96295e-08 7.94478e-08 -0.00100015)
(-9.50796e-09 1.24065e-07 -0.00100006)
(-2.76329e-08 1.24212e-07 -0.00100007)
(-4.29807e-08 1.24119e-07 -0.00100008)
(-5.41064e-08 1.23981e-07 -0.0010001)
(-5.98058e-08 1.2379e-07 -0.00100012)
(-9.5547e-09 1.56498e-07 -0.00100002)
(-2.77413e-08 1.5666e-07 -0.00100003)
(-4.31241e-08 1.56525e-07 -0.00100004)
(-5.42929e-08 1.56329e-07 -0.00100005)
(-6.00857e-08 1.561e-07 -0.00100007)
(-9.63306e-09 1.73732e-07 -0.000999967)
(-2.79053e-08 1.73901e-07 -0.000999973)
(-4.33238e-08 1.73699e-07 -0.000999984)
(-5.45317e-08 1.73399e-07 -0.001)
(-6.04837e-08 1.72987e-07 -0.00100002)
(-1.28464e-08 3.72791e-08 -0.00100016)
(-3.73545e-08 3.73202e-08 -0.00100016)
(-5.81015e-08 3.73008e-08 -0.00100018)
(-7.3057e-08 3.7274e-08 -0.0010002)
(-8.0705e-08 3.72339e-08 -0.00100023)
(-1.28966e-08 1.08363e-07 -0.00100013)
(-3.74744e-08 1.08498e-07 -0.00100014)
(-5.82629e-08 1.08437e-07 -0.00100016)
(-7.32654e-08 1.08339e-07 -0.00100018)
(-8.09434e-08 1.08193e-07 -0.0010002)
(-1.29339e-08 1.68848e-07 -0.00100009)
(-3.7561e-08 1.69059e-07 -0.0010001)
(-5.83869e-08 1.68934e-07 -0.00100011)
(-7.345e-08 1.6873e-07 -0.00100013)
(-8.11623e-08 1.68449e-07 -0.00100016)
(-1.29962e-08 2.13053e-07 -0.00100003)
(-3.77136e-08 2.13288e-07 -0.00100004)
(-5.861e-08 2.13077e-07 -0.00100005)
(-7.37578e-08 2.12726e-07 -0.00100007)
(-8.15119e-08 2.12294e-07 -0.0010001)
(-1.30896e-08 2.36651e-07 -0.000999955)
(-3.79437e-08 2.36878e-07 -0.000999963)
(-5.89649e-08 2.36567e-07 -0.000999979)
(-7.42332e-08 2.36106e-07 -0.001)
(-8.19696e-08 2.35576e-07 -0.00100002)
(-1.74917e-08 5.06905e-08 -0.00100021)
(-5.08119e-08 5.07676e-08 -0.00100022)
(-7.89682e-08 5.07589e-08 -0.00100025)
(-9.92313e-08 5.07275e-08 -0.00100027)
(-1.09592e-07 5.06693e-08 -0.00100031)
(-1.75388e-08 1.47406e-07 -0.00100018)
(-5.09362e-08 1.47622e-07 -0.00100019)
(-7.91654e-08 1.4755e-07 -0.00100021)
(-9.95138e-08 1.47412e-07 -0.00100024)
(-1.09919e-07 1.47227e-07 -0.00100028)
(-1.75789e-08 2.29799e-07 -0.00100012)
(-5.10499e-08 2.30096e-07 -0.00100013)
(-7.93498e-08 2.29893e-07 -0.00100015)
(-9.97564e-08 2.2958e-07 -0.00100018)
(-1.10202e-07 2.29198e-07 -0.00100022)
(-1.76636e-08 2.90145e-07 -0.00100004)
(-5.12856e-08 2.90459e-07 -0.00100005)
(-7.97072e-08 2.90078e-07 -0.00100007)
(-1.00218e-07 2.89516e-07 -0.0010001)
(-1.10667e-07 2.88845e-07 -0.00100013)
(-1.77955e-08 3.22458e-07 -0.000999938)
(-5.16701e-08 3.22734e-07 -0.00099995)
(-8.03146e-08 3.22197e-07 -0.000999971)
(-1.0099e-07 3.21468e-07 -0.001)
(-1.11265e-07 3.20748e-07 -0.00100003)
(-2.38173e-08 6.89085e-08 -0.00100029)
(-6.91655e-08 6.90314e-08 -0.00100031)
(-1.07463e-07 6.90181e-08 -0.00100033)
(-1.35e-07 6.89716e-08 -0.00100037)
(-1.48947e-07 6.8926e-08 -0.00100042)
(-2.38633e-08 2.00434e-07 -0.00100025)
(-6.93183e-08 2.00742e-07 -0.00100026)
(-1.07737e-07 2.00632e-07 -0.00100029)
(-1.35356e-07 2.0046e-07 -0.00100033)
(-1.49347e-07 2.00305e-07 -0.00100038)
(-2.39208e-08 3.1262e-07 -0.00100016)
(-6.94864e-08 3.13006e-07 -0.00100018)
(-1.0798e-07 3.12698e-07 -0.00100021)
(-1.35604e-07 3.12305e-07 -0.00100025)
(-1.4966e-07 3.11887e-07 -0.00100029)
(-2.40509e-08 3.95027e-07 -0.00100005)
(-6.98419e-08 3.95385e-07 -0.00100007)
(-1.08471e-07 3.94807e-07 -0.0010001)
(-1.3618e-07 3.9407e-07 -0.00100013)
(-1.50286e-07 3.93203e-07 -0.00100018)
(-2.4282e-08 4.39365e-07 -0.000999917)
(-7.04574e-08 4.39651e-07 -0.000999933)
(-1.09326e-07 4.38811e-07 -0.000999962)
(-1.37208e-07 4.37701e-07 -0.001)
(-1.51254e-07 4.36553e-07 -0.00100005)
(-3.24821e-08 9.35898e-08 -0.00100039)
(-9.43307e-08 9.37598e-08 -0.00100042)
(-1.46483e-07 9.3753e-08 -0.00100045)
(-1.83769e-07 9.37441e-08 -0.00100051)
(-2.02431e-07 9.37807e-08 -0.00100057)
(-3.25417e-08 2.72271e-07 -0.00100034)
(-9.45246e-08 2.72696e-07 -0.00100036)
(-1.46791e-07 2.72604e-07 -0.0010004)
(-1.841e-07 2.72507e-07 -0.00100045)
(-2.02824e-07 2.72463e-07 -0.00100051)
(-3.26164e-08 4.24906e-07 -0.00100022)
(-9.47043e-08 4.25437e-07 -0.00100025)
(-1.46992e-07 4.25112e-07 -0.00100028)
(-1.84286e-07 4.24715e-07 -0.00100034)
(-2.03108e-07 4.24255e-07 -0.0010004)
(-3.27874e-08 5.37413e-07 -0.00100007)
(-9.51341e-08 5.37912e-07 -0.00100009)
(-1.4756e-07 5.37204e-07 -0.00100013)
(-1.84975e-07 5.36255e-07 -0.00100018)
(-2.03935e-07 5.35111e-07 -0.00100025)
(-3.30947e-08 5.98484e-07 -0.000999889)
(-9.59325e-08 5.9883e-07 -0.00099991)
(-1.4869e-07 5.97631e-07 -0.000999949)
(-1.86381e-07 5.9595e-07 -0.001)
(-2.05547e-07 5.94017e-07 -0.00100007)
(-4.44354e-08 1.26911e-07 -0.00100053)
(-1.28987e-07 1.27163e-07 -0.00100056)
(-2.00004e-07 1.2724e-07 -0.00100062)
(-2.5029e-07 1.27368e-07 -0.00100069)
(-2.75175e-07 1.27516e-07 -0.00100078)
(-4.44954e-08 3.69337e-07 -0.00100046)
(-1.29144e-07 3.70001e-07 -0.00100049)
(-2.00197e-07 3.70116e-07 -0.00100054)
(-2.50502e-07 3.70287e-07 -0.00100061)
(-2.75473e-07 3.70445e-07 -0.0010007)
(-4.45303e-08 5.76891e-07 -0.00100031)
(-1.29168e-07 5.77752e-07 -0.00100034)
(-2.00155e-07 5.77581e-07 -0.00100039)
(-2.50473e-07 5.77299e-07 -0.00100046)
(-2.75537e-07 5.76881e-07 -0.00100055)
(-4.46891e-08 7.30628e-07 -0.0010001)
(-1.29561e-07 7.31434e-07 -0.00100013)
(-2.00714e-07 7.30586e-07 -0.00100018)
(-2.51226e-07 7.29328e-07 -0.00100025)
(-2.76471e-07 7.27843e-07 -0.00100034)
(-4.50498e-08 8.15063e-07 -0.000999851)
(-1.30593e-07 8.15511e-07 -0.00099988)
(-2.02317e-07 8.13753e-07 -0.000999934)
(-2.53218e-07 8.11224e-07 -0.00100001)
(-2.78824e-07 8.08243e-07 -0.00100009)
(-6.10245e-08 1.71744e-07 -0.00100072)
(-1.76947e-07 1.72186e-07 -0.00100077)
(-2.73766e-07 1.72507e-07 -0.00100084)
(-3.41657e-07 1.72937e-07 -0.00100094)
(-3.74608e-07 1.7338e-07 -0.00100106)
(-6.10062e-08 5.0013e-07 -0.00100062)
(-1.76844e-07 5.01312e-07 -0.00100066)
(-2.73556e-07 5.01992e-07 -0.00100073)
(-3.41444e-07 5.02838e-07 -0.00100084)
(-3.74476e-07 5.0368e-07 -0.00100095)
(-6.08729e-08 7.8218e-07 -0.00100042)
(-1.76388e-07 7.83667e-07 -0.00100046)
(-2.72835e-07 7.83954e-07 -0.00100053)
(-3.40666e-07 7.84196e-07 -0.00100063)
(-3.73751e-07 7.84327e-07 -0.00100074)
(-6.09494e-08 9.92447e-07 -0.00100014)
(-1.7657e-07 9.93665e-07 -0.00100018)
(-2.73113e-07 9.9271e-07 -0.00100025)
(-3.41104e-07 9.91306e-07 -0.00100035)
(-3.74391e-07 9.89652e-07 -0.00100046)
(-6.14516e-08 1.10967e-06 -0.000999802)
(-1.77999e-07 1.11014e-06 -0.000999842)
(-2.75271e-07 1.10753e-06 -0.000999915)
(-3.43727e-07 1.10389e-06 -0.00100001)
(-3.77435e-07 1.09965e-06 -0.00100013)
(-8.42037e-08 2.31815e-07 -0.00100098)
(-2.43791e-07 2.32659e-07 -0.00100104)
(-3.76146e-07 2.33534e-07 -0.00100114)
(-4.67866e-07 2.34652e-07 -0.00100128)
(-5.10982e-07 2.35869e-07 -0.00100144)
(-8.3934e-08 6.75643e-07 -0.00100084)
(-2.42966e-07 6.7785e-07 -0.0010009)
(-3.74886e-07 6.79831e-07 -0.001001)
(-4.66423e-07 6.8232e-07 -0.00100114)
(-5.09583e-07 6.84982e-07 -0.0010013)
(-8.33945e-08 1.05842e-06 -0.00100057)
(-2.41371e-07 1.06105e-06 -0.00100062)
(-3.72486e-07 1.06254e-06 -0.00100073)
(-4.63662e-07 1.06436e-06 -0.00100086)
(-5.06828e-07 1.06618e-06 -0.00100102)
(-8.32447e-08 1.34615e-06 -0.00100019)
(-2.40874e-07 1.34808e-06 -0.00100025)
(-3.71693e-07 1.34743e-06 -0.00100035)
(-4.62829e-07 1.34642e-06 -0.00100048)
(-5.06239e-07 1.34506e-06 -0.00100063)
(-8.3901e-08 1.50985e-06 -0.000999739)
(-2.42634e-07 1.5103e-06 -0.000999793)
(-3.74251e-07 1.50657e-06 -0.000999892)
(-4.66034e-07 1.5014e-06 -0.00100003)
(-5.09938e-07 1.49543e-06 -0.00100018)
(-1.1691e-07 3.11787e-07 -0.00100132)
(-3.37947e-07 3.13429e-07 -0.0010014)
(-5.19574e-07 3.15513e-07 -0.00100155)
(-6.43338e-07 3.18168e-07 -0.00100175)
(-6.98791e-07 3.21098e-07 -0.00100197)
(-1.16047e-07 9.09655e-07 -0.00100113)
(-3.35428e-07 9.13865e-07 -0.00100121)
(-5.15818e-07 9.18779e-07 -0.00100136)
(-6.3895e-07 9.25039e-07 -0.00100155)
(-6.94392e-07 9.31867e-07 -0.00100177)
(-1.14597e-07 1.42804e-06 -0.00100077)
(-3.31219e-07 1.43289e-06 -0.00100085)
(-5.09498e-07 1.43736e-06 -0.00100099)
(-6.3153e-07 1.44303e-06 -0.00100118)
(-6.86921e-07 1.44909e-06 -0.00100139)
(-1.13819e-07 1.82222e-06 -0.00100027)
(-3.28853e-07 1.82559e-06 -0.00100034)
(-5.05834e-07 1.82618e-06 -0.00100048)
(-6.27289e-07 1.82675e-06 -0.00100066)
(-6.82953e-07 1.82706e-06 -0.00100087)
(-1.14522e-07 2.05251e-06 -0.000999659)
(-3.3069e-07 2.05295e-06 -0.000999733)
(-5.08481e-07 2.04764e-06 -0.000999868)
(-6.30657e-07 2.04032e-06 -0.00100005)
(-6.87002e-07 2.03198e-06 -0.00100025)
(-1.63655e-07 4.17267e-07 -0.00100176)
(-4.72581e-07 4.20464e-07 -0.00100188)
(-7.23145e-07 4.25201e-07 -0.0010021)
(-8.90061e-07 4.31173e-07 -0.00100238)
(-9.59336e-07 4.37879e-07 -0.0010027)
(-1.61511e-07 1.21876e-06 -0.00100152)
(-4.66267e-07 1.22697e-06 -0.00100163)
(-7.13743e-07 1.23845e-06 -0.00100184)
(-8.78967e-07 1.25303e-06 -0.00100211)
(-9.48222e-07 1.26919e-06 -0.00100242)
(-1.58024e-07 1.91862e-06 -0.00100105)
(-4.5613e-07 1.92796e-06 -0.00100116)
(-6.98563e-07 1.93928e-06 -0.00100135)
(-8.61037e-07 1.95379e-06 -0.00100161)
(-9.30253e-07 1.96969e-06 -0.0010019)
(-1.5573e-07 2.45964e-06 -0.00100038)
(-4.49325e-07 2.46574e-06 -0.00100048)
(-6.88122e-07 2.46963e-06 -0.00100067)
(-8.48643e-07 2.47455e-06 -0.00100091)
(-9.18238e-07 2.47984e-06 -0.00100119)
(-1.56378e-07 2.78642e-06 -0.000999562)
(-4.50786e-07 2.78664e-06 -0.000999663)
(-6.89948e-07 2.77905e-06 -0.000999848)
(-8.50828e-07 2.7689e-06 -0.00100009)
(-9.21557e-07 2.75766e-06 -0.00100036)
(-2.31316e-07 5.5467e-07 -0.00100233)
(-6.69029e-07 5.6085e-07 -0.00100251)
(-1.01704e-06 5.71449e-07 -0.00100283)
(-1.24268e-06 5.84241e-07 -0.00100323)
(-1.32432e-06 5.99324e-07 -0.0010037)
(-2.26557e-07 1.6216e-06 -0.00100202)
(-6.54406e-07 1.63784e-06 -0.00100218)
(-9.95352e-07 1.66401e-06 -0.00100249)
(-1.21687e-06 1.69626e-06 -0.00100287)
(-1.29881e-06 1.73314e-06 -0.00100331)
(-2.18579e-07 2.56183e-06 -0.00100141)
(-6.31005e-07 2.58026e-06 -0.00100156)
(-9.60596e-07 2.6069e-06 -0.00100184)
(-1.17584e-06 2.64094e-06 -0.00100219)
(-1.25845e-06 2.67889e-06 -0.00100259)
(-2.12954e-07 3.30669e-06 -0.00100055)
(-6.14372e-07 3.31792e-06 -0.00100069)
(-9.34964e-07 3.32966e-06 -0.00100094)
(-1.14499e-06 3.34486e-06 -0.00100126)
(-1.22873e-06 3.36233e-06 -0.00100163)
(-2.13355e-07 3.77465e-06 -0.000999451)
(-6.14296e-07 3.7741e-06 -0.000999587)
(-9.33921e-07 3.76345e-06 -0.00099984)
(-1.14317e-06 3.74946e-06 -0.00100016)
(-1.22889e-06 3.73559e-06 -0.00100052)
(-3.29542e-07 7.31004e-07 -0.00100305)
(-9.63709e-07 7.42326e-07 -0.0010033)
(-1.44997e-06 7.6624e-07 -0.00100382)
(-1.7589e-06 7.91819e-07 -0.00100438)
(-1.84143e-06 8.26338e-07 -0.00100512)
(-3.20128e-07 2.13634e-06 -0.00100265)
(-9.31305e-07 2.16828e-06 -0.00100289)
(-1.40261e-06 2.22792e-06 -0.00100336)
(-1.70139e-06 2.29594e-06 -0.00100389)
(-1.78637e-06 2.38006e-06 -0.00100456)
(-3.02374e-07 3.38858e-06 -0.0010019)
(-8.78036e-07 3.4256e-06 -0.0010021)
(-1.32486e-06 3.48617e-06 -0.00100251)
(-1.60972e-06 3.56232e-06 -0.00100297)
(-1.6998e-06 3.65001e-06 -0.00100354)
(-2.89664e-07 4.42149e-06 -0.0010008)
(-8.40519e-07 4.44214e-06 -0.00100098)
(-1.26628e-06 4.4712e-06 -0.00100134)
(-1.53771e-06 4.50802e-06 -0.00100174)
(-1.6327e-06 4.55448e-06 -0.00100225)
(-2.89824e-07 5.09703e-06 -0.000999332)
(-8.36755e-07 5.09412e-06 -0.00099951)
(-1.25934e-06 5.07958e-06 -0.000999862)
(-1.52645e-06 5.05889e-06 -0.00100026)
(-1.62533e-06 5.04665e-06 -0.00100074)
(-4.66748e-07 9.54747e-07 -0.00100394)
(-1.4244e-06 9.71358e-07 -0.00100425)
(-2.09968e-06 1.02843e-06 -0.00100519)
(-2.54405e-06 1.07157e-06 -0.00100587)
(-2.58099e-06 1.15738e-06 -0.00100724)
(-4.5267e-07 2.77524e-06 -0.00100342)
(-1.35437e-06 2.8349e-06 -0.00100374)
(-2.00201e-06 2.97635e-06 -0.00100455)
(-2.41818e-06 3.10852e-06 -0.00100523)
(-2.46835e-06 3.31086e-06 -0.00100639)
(-4.13556e-07 4.41332e-06 -0.00100254)
(-1.23123e-06 4.48918e-06 -0.00100278)
(-1.82928e-06 4.62509e-06 -0.00100341)
(-2.21328e-06 4.79103e-06 -0.00100397)
(-2.29046e-06 4.99635e-06 -0.00100488)
(-3.85745e-07 5.87374e-06 -0.00100123)
(-1.15182e-06 5.90976e-06 -0.00100142)
(-1.70068e-06 5.97514e-06 -0.00100199)
(-2.04712e-06 6.05164e-06 -0.00100239)
(-2.14724e-06 6.16798e-06 -0.00100312)
(-3.88412e-07 6.8509e-06 -0.000999197)
(-1.14115e-06 6.8402e-06 -0.000999411)
(-1.68787e-06 6.82249e-06 -0.000999933)
(-2.02045e-06 6.78243e-06 -0.00100039)
(-2.12895e-06 6.79352e-06 -0.00100106)
(-6.21356e-07 1.24465e-06 -0.00100501)