/*--------------------------------*- C++ -*----------------------------------*\
  =========                 |
  \\      /  F ield         | OpenFOAM: The Open Source CFD Toolbox
   \\    /   O peration     | Website:  https://openfoam.org
    \\  /    A nd           | Version:  9
     \\/     M anipulation  |
\*---------------------------------------------------------------------------*/
FoamFile
{
    format      ascii;
    class       volVectorField;
    location    "80000";
    object      stored_U;
}
// * * * * * * * * * * * * * * * * * * * * * * * * * * * * * * * * * * * * * //

dimensions      [0 1 -1 0 0 0 0];

internalField   nonuniform List<vector> 
9000
(
(-1.77837e-11 2.85411e-11 -0.001)
(-2.34432e-11 3.34291e-11 -0.001)
(-2.08828e-11 3.95194e-11 -0.001)
(-1.20643e-11 4.45921e-11 -0.001)
(-4.52765e-11 3.99912e-11 -0.001)
(-1.00392e-10 4.36956e-11 -0.001)
(-1.02903e-10 3.71148e-11 -0.001)
(-8.52853e-11 3.50643e-11 -0.001)
(-5.17361e-11 3.40971e-11 -0.001)
(-1.74061e-11 3.39912e-11 -0.001)
(-1.29707e-11 9.96799e-11 -0.001)
(-1.25318e-11 1.06082e-10 -0.001)
(-9.70474e-12 1.13718e-10 -0.001)
(-1.17505e-11 1.17755e-10 -0.001)
(-4.64745e-11 1.09017e-10 -0.001)
(-1.03593e-10 1.15476e-10 -0.001)
(-1.11819e-10 1.07075e-10 -0.001)
(-8.84241e-11 1.03232e-10 -0.001)
(-5.28135e-11 1.01024e-10 -0.001)
(-1.74841e-11 1.00227e-10 -0.001)
(-1.15593e-11 1.73536e-10 -0.001)
(-9.62467e-12 1.77748e-10 -0.001)
(-9.25326e-12 1.81423e-10 -0.001)
(-1.69142e-11 1.79238e-10 -0.001)
(-4.78015e-11 1.75021e-10 -0.001)
(-1.02627e-10 1.93205e-10 -0.001)
(-1.15386e-10 1.73693e-10 -0.001)
(-9.14609e-11 1.62751e-10 -0.001)
(-5.46018e-11 1.58279e-10 -0.001)
(-1.80176e-11 1.57096e-10 -0.001)
(-9.07404e-12 2.25554e-10 -0.001)
(-5.00618e-12 2.36575e-10 -0.001)
(-8.24402e-12 2.42802e-10 -0.001)
(-1.81708e-11 2.43669e-10 -0.001)
(-3.25727e-11 2.39726e-10 -0.001)
(-1.0494e-10 2.54008e-10 -0.001)
(-1.42246e-10 2.17293e-10 -0.001)
(-1.03823e-10 1.89027e-10 -0.001)
(-5.81446e-11 1.816e-10 -0.001)
(-1.83503e-11 1.84988e-10 -0.001)
(-1.13133e-12 2.5197e-10 -0.001)
(7.04224e-12 2.62478e-10 -0.001)
(-2.19177e-12 2.64413e-10 -0.001)
(-2.00011e-11 2.6905e-10 -0.001)
(-3.75166e-11 2.54942e-10 -0.001)
(-1.25101e-10 2.19781e-10 -0.001)
(-1.80396e-10 2.28319e-10 -0.001)
(-1.27126e-10 2.19545e-10 -0.001)
(-5.82708e-11 2.16564e-10 -0.001)
(-1.42995e-11 2.19597e-10 -0.001)
(7.69267e-13 2.58711e-10 -0.000999999)
(6.80015e-12 2.6018e-10 -0.000999999)
(-1.71094e-12 2.40678e-10 -0.000999999)
(-2.77343e-11 2.21914e-10 -0.000999999)
(-8.20093e-11 2.08842e-10 -0.000999999)
(-1.31627e-10 1.8323e-10 -0.000999999)
(-1.42357e-10 2.22311e-10 -0.001)
(-1.15503e-10 2.52122e-10 -0.001)
(-5.76207e-11 2.67325e-10 -0.001)
(-1.48861e-11 2.69008e-10 -0.001)
(-2.24917e-13 2.41044e-10 -0.000999999)
(-1.15384e-11 2.39765e-10 -0.000999999)
(-4.04919e-11 2.08503e-10 -0.000999999)
(-5.19432e-11 1.70754e-10 -0.000999999)
(-7.62587e-11 1.5146e-10 -0.000999999)
(-1.11498e-10 1.66255e-10 -0.000999999)
(-1.11366e-10 1.84834e-10 -0.000999999)
(-8.2042e-11 2.23868e-10 -0.000999999)
(-4.07389e-11 2.47314e-10 -0.001)
(-1.1972e-11 2.5176e-10 -0.001)
(-9.76211e-13 1.8936e-10 -0.000999998)
(-2.62074e-11 1.83842e-10 -0.000999998)
(-7.07458e-11 1.56384e-10 -0.000999998)
(-8.47839e-11 1.24108e-10 -0.000999999)
(-8.64798e-11 9.19508e-11 -0.000999999)
(-9.81431e-11 9.55198e-11 -0.000999999)
(-8.47206e-11 1.22221e-10 -0.000999999)
(-5.29839e-11 1.56528e-10 -0.000999999)
(-2.91138e-11 1.74329e-10 -0.000999999)
(-9.82893e-12 1.76903e-10 -0.000999999)
(-6.03845e-12 1.16854e-10 -0.000999998)
(-4.48591e-11 1.05711e-10 -0.000999998)
(-1.00237e-10 8.37663e-11 -0.000999998)
(-1.16364e-10 5.82365e-11 -0.000999998)
(-1.04832e-10 3.59333e-11 -0.000999999)
(-8.1203e-11 3.32204e-11 -0.000999999)
(-5.03389e-11 6.55842e-11 -0.000999999)
(-2.99043e-11 8.59704e-11 -0.000999999)
(-1.99424e-11 9.74963e-11 -0.000999999)
(-8.98578e-12 9.73345e-11 -0.000999999)
(-1.22458e-11 3.86741e-11 -0.000999998)
(-5.9386e-11 3.25081e-11 -0.000999998)
(-1.18019e-10 2.41367e-11 -0.000999998)
(-1.32277e-10 1.45696e-11 -0.000999998)
(-1.11274e-10 7.88247e-12 -0.000999999)
(-6.83695e-11 7.92798e-12 -0.000999999)
(-3.18523e-11 2.06144e-11 -0.000999999)
(-2.10656e-11 2.6289e-11 -0.000999999)
(-1.75681e-11 2.95518e-11 -0.000999999)
(-9.77827e-12 2.87483e-11 -0.000999999)
(-3.81419e-11 8.59562e-11 -0.001)
(-5.28862e-11 9.79147e-11 -0.001)
(-5.66852e-11 1.10128e-10 -0.001)
(-6.3675e-11 1.16481e-10 -0.001)
(-1.45839e-10 1.00118e-10 -0.001)
(-2.63032e-10 1.07585e-10 -0.001)
(-2.66043e-10 1.01559e-10 -0.001)
(-2.11161e-10 9.81813e-11 -0.001)
(-1.26147e-10 9.7934e-11 -0.001)
(-4.21105e-11 9.73286e-11 -0.001)
(-2.6384e-11 2.80835e-10 -0.001)
(-2.89117e-11 2.968e-10 -0.001)
(-3.8166e-11 3.12551e-10 -0.001)
(-7.41777e-11 3.18481e-10 -0.001)
(-1.55489e-10 3.02474e-10 -0.001)
(-2.62197e-10 3.19837e-10 -0.001)
(-2.7595e-10 3.04093e-10 -0.001)
(-2.15043e-10 2.94637e-10 -0.001)
(-1.26931e-10 2.89195e-10 -0.001)
(-4.25721e-11 2.85846e-10 -0.001)
(-2.26626e-11 4.70004e-10 -0.001)
(-2.17403e-11 4.79764e-10 -0.001)
(-3.51616e-11 4.90298e-10 -0.001)
(-7.41678e-11 4.9499e-10 -0.001)
(-1.45073e-10 5.07249e-10 -0.001)
(-2.61888e-10 5.67688e-10 -0.001)
(-2.91711e-10 5.0224e-10 -0.001)
(-2.2634e-10 4.68956e-10 -0.001)
(-1.34542e-10 4.52322e-10 -0.001)
(-4.49517e-11 4.48783e-10 -0.001)
(-1.74682e-11 6.01631e-10 -0.001)
(-9.54045e-12 6.24102e-10 -0.001)
(-2.30163e-11 6.43051e-10 -0.001)
(-5.72679e-11 6.59602e-10 -0.001)
(-8.27904e-11 6.86793e-10 -0.001)
(-2.67236e-10 7.77751e-10 -0.001)
(-3.74748e-10 6.53379e-10 -0.001)
(-2.64929e-10 5.75468e-10 -0.001)
(-1.46242e-10 5.5312e-10 -0.001)
(-4.52581e-11 5.58146e-10 -0.001)
(-1.56851e-12 6.73128e-10 -0.001)
(1.8328e-11 6.93895e-10 -0.001)
(2.60094e-13 7.04327e-10 -0.001)
(-3.04266e-11 7.35736e-10 -0.001)
(-2.69398e-11 7.62976e-10 -0.001)
(-2.95401e-10 6.20528e-10 -0.001)
(-4.94017e-10 6.47806e-10 -0.001)
(-3.26537e-10 6.32433e-10 -0.001)
(-1.50808e-10 6.26719e-10 -0.001)
(-3.89441e-11 6.29982e-10 -0.001)
(1.71609e-12 7.04e-10 -0.000999999)
(2.01407e-11 7.01975e-10 -0.000999999)
(1.87441e-11 6.49446e-10 -0.000999999)
(1.43574e-12 5.99705e-10 -0.000999999)
(-1.98091e-10 5.63603e-10 -0.000999999)
(-3.82401e-10 4.40902e-10 -0.000999999)
(-3.62716e-10 5.64053e-10 -0.001)
(-2.85918e-10 6.49012e-10 -0.001)
(-1.47455e-10 6.85264e-10 -0.001)
(-4.08116e-11 6.86975e-10 -0.001)
(-4.90656e-12 6.56184e-10 -0.000999999)
(-3.75705e-11 6.42079e-10 -0.000999999)
(-1.02099e-10 5.5065e-10 -0.000999999)
(-1.16497e-10 4.27734e-10 -0.000999999)
(-1.85737e-10 3.1947e-10 -0.000999999)
(-2.94677e-10 4.01894e-10 -0.000999999)
(-2.85858e-10 4.61686e-10 -0.000999999)
(-2.05272e-10 5.57275e-10 -0.000999999)
(-1.11375e-10 6.13041e-10 -0.000999999)
(-3.577e-11 6.20854e-10 -0.001)
(-1.34313e-11 5.04806e-10 -0.000999998)
(-8.653e-11 4.79419e-10 -0.000999998)
(-1.9566e-10 4.01218e-10 -0.000999998)
(-2.29769e-10 3.04472e-10 -0.000999999)
(-2.23922e-10 1.97416e-10 -0.000999999)
(-2.40248e-10 2.15729e-10 -0.000999999)
(-2.07354e-10 3.01775e-10 -0.000999999)
(-1.34505e-10 3.83806e-10 -0.000999999)
(-8.25073e-11 4.28918e-10 -0.000999999)
(-3.166e-11 4.34543e-10 -0.000999999)
(-3.10454e-11 3.02253e-10 -0.000999998)
(-1.42034e-10 2.65233e-10 -0.000999998)
(-2.77072e-10 2.07077e-10 -0.000999998)
(-3.20269e-10 1.43038e-10 -0.000999998)
(-2.74433e-10 7.87376e-11 -0.000999999)
(-1.90262e-10 7.40523e-11 -0.000999999)
(-1.17748e-10 1.61033e-10 -0.000999999)
(-7.80573e-11 2.09774e-10 -0.000999999)
(-5.96908e-11 2.36346e-10 -0.000999999)
(-2.92355e-11 2.40087e-10 -0.000999999)
(-5.07208e-11 9.63516e-11 -0.000999998)
(-1.81876e-10 7.67349e-11 -0.000999998)
(-3.17308e-10 5.6445e-11 -0.000999998)
(-3.57236e-10 3.60402e-11 -0.000999998)
(-2.92307e-10 1.86224e-11 -0.000999999)
(-1.5763e-10 1.76275e-11 -0.000999999)
(-7.14353e-11 5.0989e-11 -0.000999999)
(-5.9154e-11 6.36962e-11 -0.000999999)
(-5.15764e-11 6.98524e-11 -0.000999999)
(-2.73425e-11 7.15275e-11 -0.000999999)
(-4.54857e-11 1.69102e-10 -0.001)
(-9.23398e-11 1.80028e-10 -0.001)
(-1.4851e-10 1.88603e-10 -0.001)
(-2.21914e-10 1.89964e-10 -0.001)
(-3.2739e-10 1.73647e-10 -0.001)
(-4.20371e-10 1.79011e-10 -0.001)
(-4.03652e-10 1.79565e-10 -0.001)
(-3.14391e-10 1.78904e-10 -0.001)
(-1.87854e-10 1.78688e-10 -0.001)
(-6.3736e-11 1.77053e-10 -0.001)
(-3.49267e-11 5.04472e-10 -0.001)
(-7.34842e-11 5.19273e-10 -0.001)
(-1.39108e-10 5.34065e-10 -0.001)
(-2.37793e-10 5.45554e-10 -0.001)
(-3.39465e-10 5.40193e-10 -0.001)
(-4.15218e-10 5.61032e-10 -0.001)
(-4.04323e-10 5.45928e-10 -0.001)
(-3.15706e-10 5.34173e-10 -0.001)
(-1.89625e-10 5.23708e-10 -0.001)
(-6.51287e-11 5.17623e-10 -0.001)
(-3.15759e-11 7.98393e-10 -0.001)
(-6.39512e-11 8.09751e-10 -0.001)
(-1.22753e-10 8.3137e-10 -0.001)
(-2.16572e-10 8.63958e-10 -0.001)
(-3.12867e-10 9.0016e-10 -0.001)
(-4.15379e-10 9.83158e-10 -0.001)
(-4.31124e-10 8.93594e-10 -0.001)
(-3.37072e-10 8.45192e-10 -0.001)
(-2.03657e-10 8.19363e-10 -0.001)
(-6.88643e-11 8.09415e-10 -0.001)
(-2.49599e-11 1.00876e-09 -0.001)
(-4.20504e-11 1.03498e-09 -0.001)
(-8.50461e-11 1.06936e-09 -0.001)
(-1.69108e-10 1.10889e-09 -0.001)
(-2.20344e-10 1.16798e-09 -0.001)
(-4.21767e-10 1.39881e-09 -0.001)
(-5.42305e-10 1.18799e-09 -0.001)
(-3.89876e-10 1.07724e-09 -0.001)
(-2.23816e-10 1.03946e-09 -0.001)
(-7.34981e-11 1.02643e-09 -0.001)
(-7.30241e-12 1.13078e-09 -0.001)
(-5.37006e-12 1.15172e-09 -0.001)
(-4.90291e-11 1.16527e-09 -0.001)
(-1.17983e-10 1.23213e-09 -0.001)
(-2.28586e-11 1.36896e-09 -0.001)
(-3.95105e-10 1.10028e-09 -0.001)
(-7.52623e-10 1.1559e-09 -0.001)
(-4.85494e-10 1.14078e-09 -0.001)
(-2.52455e-10 1.12937e-09 -0.001)
(-7.99457e-11 1.1226e-09 -0.001)
(-6.38445e-12 1.19402e-09 -0.000999999)
(-9.94923e-12 1.17888e-09 -0.000999999)
(-4.82981e-12 1.10249e-09 -0.000999999)
(3.46111e-11 1.03407e-09 -0.000999999)
(-3.51882e-10 1.0094e-09 -0.000999999)
(-6.34735e-10 7.39482e-10 -0.001)
(-5.0204e-10 9.42197e-10 -0.001)
(-4.16341e-10 1.05727e-09 -0.001)
(-2.39777e-10 1.10074e-09 -0.001)
(-7.81335e-11 1.10819e-09 -0.001)
(-2.4608e-11 1.10527e-09 -0.000999998)
(-9.92415e-11 1.06584e-09 -0.000999999)
(-1.94004e-10 9.34939e-10 -0.000999999)
(-2.10888e-10 7.34594e-10 -0.000999999)
(-3.17282e-10 4.97081e-10 -0.000999999)
(-4.62621e-10 6.97415e-10 -0.000999999)
(-4.35014e-10 7.67366e-10 -0.000999999)
(-3.26837e-10 8.86429e-10 -0.000999999)
(-1.99316e-10 9.53436e-10 -0.000999999)
(-7.03878e-11 9.68038e-10 -0.001)
(-4.75526e-11 8.33963e-10 -0.000999998)
(-1.82265e-10 7.8189e-10 -0.000999998)
(-3.36158e-10 6.70287e-10 -0.000999998)
(-4.03181e-10 5.27324e-10 -0.000999998)
(-3.89051e-10 3.47517e-10 -0.000999999)
(-3.64486e-10 3.84235e-10 -0.000999999)
(-3.13003e-10 5.18574e-10 -0.000999999)
(-2.30152e-10 6.278e-10 -0.000999999)
(-1.56166e-10 6.90112e-10 -0.000999999)
(-6.16391e-11 7.07011e-10 -0.000999999)
(-7.79626e-11 4.90785e-10 -0.000999998)
(-2.64406e-10 4.35068e-10 -0.000999998)
(-4.48602e-10 3.60282e-10 -0.000999998)
(-5.33607e-10 2.75646e-10 -0.000999998)
(-4.60329e-10 1.85292e-10 -0.000999998)
(-2.91506e-10 1.78316e-10 -0.000999999)
(-1.91393e-10 2.98363e-10 -0.000999999)
(-1.55171e-10 3.61125e-10 -0.000999999)
(-1.18594e-10 3.99581e-10 -0.000999999)
(-5.20706e-11 4.15986e-10 -0.000999999)
(-1.0376e-10 1.53391e-10 -0.000999998)
(-3.1308e-10 1.27665e-10 -0.000999998)
(-4.94693e-10 1.04549e-10 -0.000999998)
(-5.76895e-10 8.07772e-11 -0.000999998)
(-4.85314e-10 5.99958e-11 -0.000999998)
(-2.50834e-10 5.47746e-11 -0.000999998)
(-1.29847e-10 1.00084e-10 -0.000999999)
(-1.28795e-10 1.15977e-10 -0.000999999)
(-1.00331e-10 1.26484e-10 -0.000999999)
(-4.43613e-11 1.33904e-10 -0.000999999)
(-5.56281e-11 2.73965e-10 -0.001)
(-1.74395e-10 2.76009e-10 -0.001)
(-3.23246e-10 2.78027e-10 -0.001)
(-4.64132e-10 2.75268e-10 -0.001)
(-5.67493e-10 2.67934e-10 -0.001)
(-5.94361e-10 2.71926e-10 -0.001)
(-5.35041e-10 2.75716e-10 -0.001)
(-4.1584e-10 2.76853e-10 -0.001)
(-2.52895e-10 2.76716e-10 -0.001)
(-8.53316e-11 2.73608e-10 -0.001)
(-5.41735e-11 7.73081e-10 -0.001)
(-1.71361e-10 7.75819e-10 -0.001)
(-3.2488e-10 7.87941e-10 -0.001)
(-4.75553e-10 8.01357e-10 -0.001)
(-5.72226e-10 8.14607e-10 -0.001)
(-5.87522e-10 8.33021e-10 -0.001)
(-5.30946e-10 8.2452e-10 -0.001)
(-4.15545e-10 8.16539e-10 -0.001)
(-2.56032e-10 8.06072e-10 -0.001)
(-8.8071e-11 7.93601e-10 -0.001)
(-5.41886e-11 1.18089e-09 -0.001)
(-1.61349e-10 1.18893e-09 -0.001)
(-2.98599e-10 1.22164e-09 -0.001)
(-4.38635e-10 1.2679e-09 -0.001)
(-5.37086e-10 1.31291e-09 -0.001)
(-5.85464e-10 1.39958e-09 -0.001)
(-5.52424e-10 1.32171e-09 -0.001)
(-4.34991e-10 1.27938e-09 -0.001)
(-2.74715e-10 1.25287e-09 -0.001)
(-9.63884e-11 1.22985e-09 -0.001)
(-4.81114e-11 1.48807e-09 -0.001)
(-1.32837e-10 1.51169e-09 -0.001)
(-2.46105e-10 1.55949e-09 -0.001)
(-3.84324e-10 1.61299e-09 -0.001)
(-4.40589e-10 1.62298e-09 -0.001)
(-5.78868e-10 1.92814e-09 -0.001)
(-6.51223e-10 1.74757e-09 -0.001)
(-4.84296e-10 1.63891e-09 -0.001)
(-3.03171e-10 1.58849e-09 -0.001)
(-1.0872e-10 1.55162e-09 -0.001)
(-3.30729e-11 1.66548e-09 -0.000999999)
(-9.26765e-11 1.68158e-09 -0.000999999)
(-1.97461e-10 1.69313e-09 -0.001)
(-3.75093e-10 1.76374e-09 -0.001)
(-2.21956e-10 1.92261e-09 -0.001)
(-4.61078e-10 1.64051e-09 -0.001)
(-8.41652e-10 1.72606e-09 -0.001)
(-5.93909e-10 1.72457e-09 -0.001)
(-3.59003e-10 1.70208e-09 -0.001)
(-1.30321e-10 1.684e-09 -0.001)
(-3.51684e-11 1.73034e-09 -0.000999999)
(-1.084e-10 1.70538e-09 -0.000999999)
(-1.64057e-10 1.62433e-09 -0.000999999)
(-1.54868e-10 1.55521e-09 -0.000999999)
(-5.63999e-10 1.60707e-09 -0.001)
(-7.75435e-10 1.23972e-09 -0.001)
(-5.67099e-10 1.44076e-09 -0.001)
(-5.08086e-10 1.55228e-09 -0.001)
(-3.40505e-10 1.59411e-09 -0.001)
(-1.23743e-10 1.61268e-09 -0.001)
(-6.13141e-11 1.57861e-09 -0.000999998)
(-2.02089e-10 1.52222e-09 -0.000999998)
(-3.47789e-10 1.39192e-09 -0.000999998)
(-3.9225e-10 1.19333e-09 -0.000999999)
(-5.37569e-10 9.51153e-10 -0.000999999)
(-6.27429e-10 1.16818e-09 -0.000999999)
(-5.29035e-10 1.21145e-09 -0.000999999)
(-4.40322e-10 1.30237e-09 -0.000999999)
(-2.95493e-10 1.36828e-09 -0.001)
(-1.08886e-10 1.39724e-09 -0.001)
(-9.42277e-11 1.18973e-09 -0.000999998)
(-2.98107e-10 1.12466e-09 -0.000999998)
(-4.9315e-10 1.01128e-09 -0.000999998)
(-5.95676e-10 8.70529e-10 -0.000999998)
(-5.89178e-10 6.79678e-10 -0.000999998)
(-5.15108e-10 7.5291e-10 -0.000999999)
(-4.32855e-10 8.66213e-10 -0.000999999)
(-3.51064e-10 9.65475e-10 -0.000999999)
(-2.42853e-10 1.03313e-09 -0.000999999)
(-9.2187e-11 1.06623e-09 -0.000999999)
(-1.28383e-10 7.08558e-10 -0.000999997)
(-3.82818e-10 6.53659e-10 -0.000999998)
(-6.02025e-10 5.84019e-10 -0.000999998)
(-7.23794e-10 5.07334e-10 -0.000999998)
(-6.55115e-10 4.17645e-10 -0.000999998)
(-4.40835e-10 4.13386e-10 -0.000999998)
(-3.1639e-10 5.28606e-10 -0.000999998)
(-2.73205e-10 5.93342e-10 -0.000999999)
(-1.92517e-10 6.39016e-10 -0.000999999)
(-7.37501e-11 6.67095e-10 -0.000999999)
(-1.4996e-10 2.2663e-10 -0.000999997)
(-4.23183e-10 2.05168e-10 -0.000999997)
(-6.38319e-10 1.86017e-10 -0.000999997)
(-7.60469e-10 1.67776e-10 -0.000999998)
(-6.81765e-10 1.4785e-10 -0.000999998)
(-4.03348e-10 1.39858e-10 -0.000999998)
(-2.52443e-10 1.84548e-10 -0.000999998)
(-2.4026e-10 2.03357e-10 -0.000999998)
(-1.67511e-10 2.17214e-10 -0.000999998)
(-6.27869e-11 2.27684e-10 -0.000999999)
(-8.59528e-11 3.98686e-10 -0.001)
(-3.08602e-10 3.90345e-10 -0.001)
(-5.63652e-10 3.87159e-10 -0.001)
(-7.56334e-10 3.82151e-10 -0.001)
(-8.4749e-10 3.78496e-10 -0.001)
(-8.24072e-10 3.8091e-10 -0.001)
(-7.16564e-10 3.89985e-10 -0.001)
(-5.48428e-10 3.94347e-10 -0.001)
(-3.40293e-10 3.94796e-10 -0.001)
(-1.16196e-10 3.90326e-10 -0.001)
(-9.51237e-11 1.10391e-09 -0.001)
(-3.21589e-10 1.09467e-09 -0.001)
(-5.73063e-10 1.10238e-09 -0.001)
(-7.66564e-10 1.11222e-09 -0.001)
(-8.50365e-10 1.1255e-09 -0.001)
(-8.14051e-10 1.13417e-09 -0.001)
(-7.04449e-10 1.14782e-09 -0.001)
(-5.44663e-10 1.14834e-09 -0.001)
(-3.44243e-10 1.14042e-09 -0.001)
(-1.20177e-10 1.12413e-09 -0.001)
(-9.70779e-11 1.66976e-09 -0.001)
(-3.1277e-10 1.6768e-09 -0.001)
(-5.47381e-10 1.70966e-09 -0.001)
(-7.34737e-10 1.74795e-09 -0.001)
(-8.27188e-10 1.77671e-09 -0.001)
(-8.03308e-10 1.83421e-09 -0.001)
(-7.03802e-10 1.80951e-09 -0.001)
(-5.56871e-10 1.78543e-09 -0.001)
(-3.63027e-10 1.76074e-09 -0.001)
(-1.30605e-10 1.73117e-09 -0.001)
(-9.09432e-11 2.11729e-09 -0.001)
(-2.84857e-10 2.1356e-09 -0.001)
(-5.02183e-10 2.17862e-09 -0.001)
(-6.99597e-10 2.2099e-09 -0.001)
(-7.64216e-10 2.17229e-09 -0.001)
(-7.81363e-10 2.41573e-09 -0.001)
(-7.53328e-10 2.33894e-09 -0.001)
(-5.9332e-10 2.26714e-09 -0.001)
(-3.95173e-10 2.2177e-09 -0.001)
(-1.46506e-10 2.17455e-09 -0.001)
(-8.22415e-11 2.35385e-09 -0.000999999)
(-2.55244e-10 2.36482e-09 -0.000999999)
(-4.73273e-10 2.37206e-09 -0.001)
(-7.41112e-10 2.41341e-09 -0.001)
(-6.21381e-10 2.50616e-09 -0.001)
(-6.36681e-10 2.32837e-09 -0.001)
(-8.52384e-10 2.4043e-09 -0.001)
(-6.7784e-10 2.41822e-09 -0.001)
(-4.51335e-10 2.3914e-09 -0.001)
(-1.69634e-10 2.37159e-09 -0.001)
(-8.42373e-11 2.36755e-09 -0.000999998)
(-2.71115e-10 2.34335e-09 -0.000999999)
(-4.53898e-10 2.28553e-09 -0.000999999)
(-5.65626e-10 2.25537e-09 -0.000999999)
(-8.49487e-10 2.35804e-09 -0.001)
(-8.83233e-10 2.06784e-09 -0.001)
(-6.63325e-10 2.16869e-09 -0.001)
(-6.05919e-10 2.23755e-09 -0.001)
(-4.37133e-10 2.2665e-09 -0.001)
(-1.61935e-10 2.28794e-09 -0.001)
(-1.1087e-10 2.12967e-09 -0.000999998)
(-3.41941e-10 2.07456e-09 -0.000999998)
(-5.61548e-10 1.98413e-09 -0.000999998)
(-6.68766e-10 1.86829e-09 -0.000999998)
(-8.08978e-10 1.74909e-09 -0.000999999)
(-8.25832e-10 1.89025e-09 -0.000999999)
(-6.82655e-10 1.88653e-09 -0.000999999)
(-5.79801e-10 1.9203e-09 -0.000999999)
(-3.96572e-10 1.97228e-09 -0.001)
(-1.44173e-10 2.00508e-09 -0.001)
(-1.42979e-10 1.63137e-09 -0.000999997)
(-4.20727e-10 1.57373e-09 -0.000999997)
(-6.60436e-10 1.49176e-09 -0.000999997)
(-8.00709e-10 1.40167e-09 -0.000999998)
(-8.27381e-10 1.26996e-09 -0.000999998)
(-7.45701e-10 1.33897e-09 -0.000999998)
(-6.33309e-10 1.41124e-09 -0.000999998)
(-5.19896e-10 1.4789e-09 -0.000999999)
(-3.48464e-10 1.53721e-09 -0.000999999)
(-1.25513e-10 1.572e-09 -0.000999999)
(-1.71311e-10 9.9912e-10 -0.000999997)
(-4.84638e-10 9.60819e-10 -0.000999997)
(-7.33724e-10 9.15641e-10 -0.000999997)
(-8.90458e-10 8.683e-10 -0.000999997)
(-8.7154e-10 8.02502e-10 -0.000999997)
(-6.8444e-10 8.01423e-10 -0.000999998)
(-5.4261e-10 8.92541e-10 -0.000999998)
(-4.53554e-10 9.47722e-10 -0.000999998)
(-3.00253e-10 9.88055e-10 -0.000999998)
(-1.06415e-10 1.01305e-09 -0.000999998)
(-1.82592e-10 3.31331e-10 -0.000999996)
(-5.05093e-10 3.2028e-10 -0.000999997)
(-7.51592e-10 3.10577e-10 -0.000999997)
(-9.11965e-10 3.01059e-10 -0.000999997)
(-8.92493e-10 2.87283e-10 -0.000999997)
(-6.54501e-10 2.78453e-10 -0.000999997)
(-4.86197e-10 3.16162e-10 -0.000999998)
(-4.23585e-10 3.34136e-10 -0.000999998)
(-2.80675e-10 3.45474e-10 -0.000999998)
(-9.85335e-11 3.52553e-10 -0.000999998)
(-1.45702e-10 5.46092e-10 -0.001)
(-4.94218e-10 5.33138e-10 -0.001)
(-8.4966e-10 5.27712e-10 -0.001)
(-1.09083e-09 5.23349e-10 -0.001)
(-1.17836e-09 5.20663e-10 -0.001)
(-1.1282e-09 5.21808e-10 -0.001)
(-9.7483e-10 5.35324e-10 -0.001)
(-7.39291e-10 5.41964e-10 -0.001)
(-4.64003e-10 5.42218e-10 -0.001)
(-1.5981e-10 5.36474e-10 -0.001)
(-1.59847e-10 1.52543e-09 -0.001)
(-5.14605e-10 1.51378e-09 -0.001)
(-8.61062e-10 1.51787e-09 -0.001)
(-1.09988e-09 1.52451e-09 -0.001)
(-1.18198e-09 1.53184e-09 -0.001)
(-1.11555e-09 1.5308e-09 -0.001)
(-9.565e-10 1.56114e-09 -0.001)
(-7.33722e-10 1.56588e-09 -0.001)
(-4.69372e-10 1.55696e-09 -0.001)
(-1.64885e-10 1.53936e-09 -0.001)
(-1.60162e-10 2.32356e-09 -0.001)
(-5.05563e-10 2.33528e-09 -0.001)
(-8.40731e-10 2.36402e-09 -0.001)
(-1.07893e-09 2.39056e-09 -0.001)
(-1.17426e-09 2.4091e-09 -0.001)
(-1.10107e-09 2.4139e-09 -0.001)
(-9.417e-10 2.43549e-09 -0.001)
(-7.44779e-10 2.42167e-09 -0.001)
(-4.88464e-10 2.3969e-09 -0.001)
(-1.74853e-10 2.37004e-09 -0.001)
(-1.52284e-10 2.9621e-09 -0.001)
(-4.7864e-10 2.97876e-09 -0.001)
(-8.06167e-10 3.01364e-09 -0.001)
(-1.05494e-09 3.02748e-09 -0.001)
(-1.15878e-09 3e-09 -0.001)
(-1.08931e-09 3.09821e-09 -0.001)
(-9.48862e-10 3.09344e-09 -0.001)
(-7.72133e-10 3.05367e-09 -0.001)
(-5.16425e-10 3.01193e-09 -0.001)
(-1.87361e-10 2.9809e-09 -0.001)
(-1.48524e-10 3.27295e-09 -0.000999999)
(-4.5947e-10 3.28376e-09 -0.000999999)
(-7.92365e-10 3.29265e-09 -0.001)
(-1.09259e-09 3.30609e-09 -0.001)
(-1.10349e-09 3.31935e-09 -0.001)
(-1.00753e-09 3.31127e-09 -0.001)
(-9.86246e-10 3.30621e-09 -0.001)
(-8.25935e-10 3.31141e-09 -0.001)
(-5.55529e-10 3.28877e-09 -0.001)
(-2.00502e-10 3.27343e-09 -0.001)
(-1.47312e-10 3.21167e-09 -0.000999998)
(-4.65177e-10 3.19896e-09 -0.000999998)
(-7.84245e-10 3.17537e-09 -0.000999999)
(-1.02832e-09 3.1874e-09 -0.000999999)
(-1.15326e-09 3.27523e-09 -0.000999999)
(-1.10239e-09 3.16715e-09 -0.001)
(-9.48921e-10 3.15878e-09 -0.001)
(-7.8918e-10 3.17846e-09 -0.001)
(-5.4807e-10 3.19229e-09 -0.001)
(-1.96781e-10 3.20072e-09 -0.001)
(-1.67101e-10 2.87029e-09 -0.000999997)
(-5.0202e-10 2.83289e-09 -0.000999997)
(-8.04348e-10 2.79583e-09 -0.000999997)
(-9.92636e-10 2.77756e-09 -0.000999998)
(-1.12376e-09 2.79122e-09 -0.000999998)
(-1.12419e-09 2.80511e-09 -0.000999999)
(-9.74936e-10 2.80243e-09 -0.000999999)
(-7.92034e-10 2.80079e-09 -0.000999999)
(-5.2711e-10 2.82848e-09 -0.000999999)
(-1.8633e-10 2.84586e-09 -0.001)
(-1.89692e-10 2.2459e-09 -0.000999996)
(-5.45091e-10 2.21077e-09 -0.000999996)
(-8.39919e-10 2.17529e-09 -0.000999997)
(-1.03297e-09 2.14561e-09 -0.000999997)
(-1.12583e-09 2.09786e-09 -0.000999997)
(-1.0911e-09 2.13188e-09 -0.000999998)
(-9.53223e-10 2.1737e-09 -0.000999998)
(-7.62813e-10 2.20905e-09 -0.000999998)
(-4.97487e-10 2.24427e-09 -0.000999999)
(-1.74215e-10 2.26234e-09 -0.000999999)
(-2.0613e-10 1.41404e-09 -0.000999996)
(-5.76877e-10 1.39925e-09 -0.000999996)
(-8.69677e-10 1.38285e-09 -0.000999996)
(-1.06996e-09 1.36743e-09 -0.000999996)
(-1.13731e-09 1.34116e-09 -0.000999996)
(-1.04818e-09 1.34753e-09 -0.000999997)
(-8.97622e-10 1.40301e-09 -0.000999997)
(-7.2108e-10 1.43772e-09 -0.000999998)
(-4.69282e-10 1.45908e-09 -0.000999998)
(-1.64045e-10 1.46773e-09 -0.000999998)
(-2.06526e-10 4.82114e-10 -0.000999995)
(-5.77808e-10 4.82173e-10 -0.000999995)
(-8.70216e-10 4.81001e-10 -0.000999995)
(-1.07256e-09 4.80095e-10 -0.000999996)
(-1.14356e-09 4.76427e-10 -0.000999996)
(-1.02741e-09 4.71868e-10 -0.000999996)
(-8.61501e-10 4.95531e-10 -0.000999997)
(-7.0528e-10 5.06566e-10 -0.000999997)
(-4.63791e-10 5.10049e-10 -0.000999997)
(-1.62678e-10 5.10242e-10 -0.000999998)
(-2.32087e-10 7.32067e-10 -0.001)
(-7.26258e-10 7.22282e-10 -0.001)
(-1.18131e-09 7.18321e-10 -0.001)
(-1.48744e-09 7.17443e-10 -0.001)
(-1.59193e-09 7.20788e-10 -0.001)
(-1.52027e-09 7.19893e-10 -0.001)
(-1.31782e-09 7.31684e-10 -0.00100001)
(-1.00469e-09 7.3566e-10 -0.00100001)
(-6.35852e-10 7.33075e-10 -0.00100001)
(-2.2023e-10 7.24792e-10 -0.00100001)
(-2.43541e-10 2.08333e-09 -0.001)
(-7.42713e-10 2.07832e-09 -0.001)
(-1.18834e-09 2.08387e-09 -0.001)
(-1.48764e-09 2.09323e-09 -0.001)
(-1.59228e-09 2.10696e-09 -0.001)
(-1.51211e-09 2.09963e-09 -0.001)
(-1.30443e-09 2.12212e-09 -0.001)
(-1.00503e-09 2.11751e-09 -0.00100001)
(-6.46563e-10 2.10183e-09 -0.00100001)
(-2.27628e-10 2.08195e-09 -0.00100001)
(-2.4115e-10 3.20608e-09 -0.001)
(-7.3102e-10 3.22397e-09 -0.001)
(-1.16889e-09 3.25247e-09 -0.001)
(-1.4672e-09 3.27824e-09 -0.001)
(-1.58851e-09 3.30501e-09 -0.001)
(-1.50804e-09 3.26357e-09 -0.001)
(-1.30253e-09 3.28525e-09 -0.001)
(-1.0267e-09 3.26521e-09 -0.001)
(-6.68685e-10 3.23652e-09 -0.001)
(-2.36755e-10 3.21433e-09 -0.001)
(-2.31449e-10 4.07644e-09 -0.001)
(-7.02544e-10 4.09821e-09 -0.001)
(-1.1346e-09 4.13533e-09 -0.001)
(-1.43529e-09 4.15745e-09 -0.001)
(-1.60716e-09 4.15998e-09 -0.001)
(-1.53211e-09 4.12864e-09 -0.001)
(-1.30297e-09 4.13294e-09 -0.001)
(-1.05352e-09 4.10226e-09 -0.001)
(-6.91414e-10 4.06727e-09 -0.001)
(-2.44105e-10 4.04662e-09 -0.001)
(-2.26418e-10 4.49873e-09 -0.000999999)
(-6.79706e-10 4.51711e-09 -0.000999999)
(-1.11015e-09 4.53721e-09 -0.001)
(-1.44257e-09 4.53334e-09 -0.001)
(-1.61738e-09 4.48807e-09 -0.001)
(-1.53507e-09 4.6264e-09 -0.001)
(-1.32885e-09 4.53201e-09 -0.001)
(-1.09188e-09 4.50793e-09 -0.001)
(-7.16621e-10 4.48824e-09 -0.001)
(-2.50208e-10 4.47441e-09 -0.001)
(-2.20996e-10 4.40637e-09 -0.000999998)
(-6.7261e-10 4.40898e-09 -0.000999998)
(-1.1189e-09 4.41112e-09 -0.000999998)
(-1.48427e-09 4.43674e-09 -0.000999999)
(-1.51411e-09 4.47451e-09 -0.000999999)
(-1.48816e-09 4.53593e-09 -0.000999999)
(-1.42142e-09 4.46615e-09 -0.001)
(-1.09676e-09 4.45138e-09 -0.001)
(-7.16333e-10 4.44842e-09 -0.001)
(-2.49872e-10 4.44072e-09 -0.001)
(-2.31757e-10 3.94465e-09 -0.000999996)
(-6.83425e-10 3.93179e-09 -0.000999996)
(-1.08288e-09 3.93342e-09 -0.000999997)
(-1.37926e-09 3.9827e-09 -0.000999997)
(-1.51811e-09 4.07319e-09 -0.000999998)
(-1.54335e-09 3.97527e-09 -0.000999998)
(-1.41343e-09 4.00671e-09 -0.000999999)
(-1.10907e-09 3.99905e-09 -0.000999999)
(-7.18702e-10 3.99979e-09 -0.000999999)
(-2.49823e-10 3.99477e-09 -0.000999999)
(-2.40838e-10 3.12884e-09 -0.000999995)
(-6.91321e-10 3.12246e-09 -0.000999995)
(-1.06846e-09 3.12502e-09 -0.000999995)
(-1.34445e-09 3.14249e-09 -0.000999996)
(-1.52152e-09 3.1707e-09 -0.000999996)
(-1.55484e-09 3.15728e-09 -0.000999997)
(-1.39764e-09 3.18071e-09 -0.000999997)
(-1.10318e-09 3.18946e-09 -0.000999998)
(-7.12857e-10 3.19458e-09 -0.000999998)
(-2.47567e-10 3.19005e-09 -0.000999998)
(-2.43648e-10 2.00662e-09 -0.000999994)
(-6.93143e-10 2.01265e-09 -0.000999994)
(-1.0631e-09 2.01811e-09 -0.000999994)
(-1.33342e-09 2.02809e-09 -0.000999995)
(-1.50318e-09 2.04401e-09 -0.000999995)
(-1.53316e-09 2.05746e-09 -0.000999996)
(-1.38104e-09 2.07003e-09 -0.000999996)
(-1.09466e-09 2.07645e-09 -0.000999997)
(-7.11855e-10 2.07414e-09 -0.000999997)
(-2.48528e-10 2.06621e-09 -0.000999997)
(-2.37911e-10 6.93339e-10 -0.000999994)
(-6.82312e-10 6.99862e-10 -0.000999994)
(-1.05126e-09 7.04193e-10 -0.000999994)
(-1.31607e-09 7.09876e-10 -0.000999994)
(-1.48943e-09 7.19186e-10 -0.000999995)
(-1.52599e-09 7.21155e-10 -0.000999995)
(-1.37599e-09 7.238e-10 -0.000999996)
(-1.09669e-09 7.2372e-10 -0.000999996)
(-7.17808e-10 7.19667e-10 -0.000999997)
(-2.514e-10 7.15112e-10 -0.000999997)
(-3.38418e-10 9.84941e-10 -0.001)
(-1.00696e-09 9.81897e-10 -0.001)
(-1.5866e-09 9.80946e-10 -0.00100001)
(-1.98769e-09 9.84216e-10 -0.00100001)
(-2.13114e-09 9.96983e-10 -0.00100001)
(-2.03169e-09 9.94391e-10 -0.00100001)
(-1.76695e-09 9.98373e-10 -0.00100001)
(-1.36523e-09 9.95014e-10 -0.00100001)
(-8.72656e-10 9.87209e-10 -0.00100001)
(-3.04162e-10 9.76658e-10 -0.00100001)
(-3.43754e-10 2.83959e-09 -0.001)
(-1.01459e-09 2.84347e-09 -0.001)
(-1.58722e-09 2.85297e-09 -0.001)
(-1.97512e-09 2.86881e-09 -0.001)
(-2.12472e-09 2.89961e-09 -0.00100001)
(-2.03398e-09 2.88757e-09 -0.00100001)
(-1.76949e-09 2.88407e-09 -0.00100001)
(-1.37878e-09 2.86006e-09 -0.00100001)
(-8.90839e-10 2.83427e-09 -0.00100001)
(-3.13545e-10 2.81271e-09 -0.00100001)
(-3.40161e-10 4.39512e-09 -0.001)
(-1.00084e-09 4.41565e-09 -0.001)
(-1.56462e-09 4.44585e-09 -0.001)
(-1.94481e-09 4.47744e-09 -0.001)
(-2.11643e-09 4.51535e-09 -0.001)
(-2.05118e-09 4.45569e-09 -0.001)
(-1.79789e-09 4.4462e-09 -0.00100001)
(-1.41736e-09 4.40706e-09 -0.00100001)
(-9.16374e-10 4.37114e-09 -0.00100001)
(-3.21269e-10 4.35122e-09 -0.00100001)
(-3.31124e-10 5.55122e-09 -0.001)
(-9.72375e-10 5.58181e-09 -0.001)
(-1.52618e-09 5.62855e-09 -0.001)
(-1.9059e-09 5.6743e-09 -0.001)
(-2.14678e-09 5.68379e-09 -0.001)
(-2.10352e-09 5.59077e-09 -0.001)
(-1.81836e-09 5.56314e-09 -0.001)
(-1.45352e-09 5.52548e-09 -0.001)
(-9.38554e-10 5.49085e-09 -0.001)
(-3.25789e-10 5.47238e-09 -0.00100001)
(-3.19356e-10 6.1441e-09 -0.000999999)
(-9.34008e-10 6.17275e-09 -0.000999999)
(-1.47282e-09 6.20417e-09 -0.001)
(-1.88962e-09 6.19498e-09 -0.001)
(-2.20009e-09 6.12851e-09 -0.001)
(-2.17184e-09 6.33149e-09 -0.001)
(-1.86305e-09 6.19437e-09 -0.001)
(-1.48897e-09 6.13424e-09 -0.001)
(-9.58977e-10 6.10633e-09 -0.001)
(-3.29909e-10 6.08723e-09 -0.001)
(-3.13356e-10 6.0918e-09 -0.000999997)
(-9.23987e-10 6.10792e-09 -0.000999997)
(-1.5047e-09 6.12448e-09 -0.000999998)
(-1.98158e-09 6.14178e-09 -0.000999998)
(-2.01024e-09 6.14651e-09 -0.000999999)
(-2.03754e-09 6.28073e-09 -0.000999999)
(-2.01557e-09 6.20594e-09 -0.001)
(-1.54081e-09 6.16915e-09 -0.001)
(-9.73847e-10 6.14992e-09 -0.001)
(-3.33873e-10 6.13027e-09 -0.001)
(-3.14161e-10 5.4839e-09 -0.000999995)
(-9.12954e-10 5.49566e-09 -0.000999995)
(-1.43971e-09 5.51897e-09 -0.000999996)
(-1.86765e-09 5.59714e-09 -0.000999996)
(-2.06114e-09 5.70447e-09 -0.000999997)
(-2.11237e-09 5.55145e-09 -0.000999997)
(-1.97459e-09 5.59588e-09 -0.000999998)
(-1.54423e-09 5.59636e-09 -0.000999999)
(-9.86081e-10 5.57907e-09 -0.000999999)
(-3.38472e-10 5.55816e-09 -0.000999999)
(-3.11378e-10 4.37154e-09 -0.000999993)
(-8.99306e-10 4.38959e-09 -0.000999994)
(-1.40387e-09 4.41223e-09 -0.000999994)
(-1.7961e-09 4.45417e-09 -0.000999994)
(-2.05595e-09 4.53028e-09 -0.000999995)
(-2.14612e-09 4.49311e-09 -0.000999996)
(-1.97063e-09 4.49123e-09 -0.000999996)
(-1.55694e-09 4.47623e-09 -0.000999997)
(-1.00133e-09 4.45456e-09 -0.000999997)
(-3.44705e-10 4.43129e-09 -0.000999998)
(-3.03825e-10 2.82596e-09 -0.000999992)
(-8.8041e-10 2.84495e-09 -0.000999992)
(-1.37546e-09 2.86243e-09 -0.000999993)
(-1.74936e-09 2.88913e-09 -0.000999993)
(-2.02192e-09 2.93878e-09 -0.000999994)
(-2.15114e-09 2.94958e-09 -0.000999994)
(-1.99119e-09 2.92236e-09 -0.000999995)
(-1.58016e-09 2.90077e-09 -0.000999996)
(-1.02245e-09 2.88091e-09 -0.000999996)
(-3.53788e-10 2.86225e-09 -0.000999996)
(-2.96877e-10 9.79921e-10 -0.000999992)
(-8.66555e-10 9.88074e-10 -0.000999992)
(-1.3575e-09 9.94066e-10 -0.000999992)
(-1.71655e-09 1.00376e-09 -0.000999992)
(-1.99186e-09 1.02378e-09 -0.000999993)
(-2.15846e-09 1.03043e-09 -0.000999994)
(-2.01549e-09 1.01277e-09 -0.000999994)
(-1.59496e-09 1.00248e-09 -0.000999995)
(-1.03249e-09 9.94965e-10 -0.000999996)