/*--------------------------------*- C++ -*----------------------------------*\
  =========                 |
  \\      /  F ield         | OpenFOAM: The Open Source CFD Toolbox
   \\    /   O peration     | Website:  https://openfoam.org
    \\  /    A nd           | Version:  9
     \\/     M anipulation  |
\*---------------------------------------------------------------------------*/
FoamFile
{
    format      ascii;
    class       surfaceScalarField;
    location    "900";
    object      phi;
}
// * * * * * * * * * * * * * * * * * * * * * * * * * * * * * * * * * * * * * //

dimensions      [0 3 -1 0 0 0 0];

internalField   nonuniform List<scalar> 
716
(
0.274887
-0.264021
-140.076
-0.0501675
-109.822
0.401273
-174.09
-128.181
0.281733
-0.273702
-140.084
-0.0474756
-109.493
0.417243
-174.781
-127.811
0.282776
-0.279119
-140.088
-0.0402342
-109.17
0.40846
-175.469
-127.443
0.287388
-0.28649
-140.089
-0.0346724
-108.848
0.410946
-176.166
-127.067
0.289865
-0.289107
-140.089
-0.0283175
-108.529
0.405337
-176.861
-126.69
0.29342
-0.293329
-140.089
-0.0225472
-108.214
0.402108
-177.556
-126.31
0.294582
-0.295729
-140.088
-0.0167418
-107.902
0.395992
-178.248
-125.931
0.295571
-0.300385
-140.083
-0.0113033
-107.595
0.390025
-178.938
-125.552
0.300421
-0.301723
-140.082
-0.00594323
-107.289
0.38293
-179.623
-125.175
0.304323
-0.30015
-140.086
-0.000795037
-106.984
0.37567
-180.299
-124.801
0.305638
-0.301615
-140.09
0.00401259
-106.682
0.367766
-180.968
-124.429
0.305937
-0.304538
-140.092
0.00838215
-106.385
0.359507
-181.632
-124.061
0.307346
-0.306267
-140.093
0.0124977
-106.09
0.350992
-182.289
-123.697
0.310237
-0.307751
-140.095
0.0164485
-105.796
0.342463
-182.94
-123.338
0.314213
-0.306132
-140.103
0.0201856
-105.502
0.333892
-183.58
-122.984
0.313886
-0.308079
-140.109
0.0235921
-105.212
0.325163
-184.213
-122.636
0.311979
-0.311879
-140.109
0.0266299
-104.926
0.3163
-184.841
-122.293
0.31203
-0.315745
-140.106
0.0294596
-104.644
0.307435
-185.464
-121.956
0.31253
-0.318193
-140.1
0.0321435
-104.363
0.298713
-186.081
-121.625
0.314027
-0.317436
-140.097
0.0346359
-104.084
0.290169
-186.689
-121.3
0.312555
-0.321605
-140.087
0.0369075
-103.808
0.281704
-187.292
-120.982
0.312006
-0.325498
-140.074
0.039115
-103.535
0.273478
-187.891
-120.669
0.313332
-0.328957
-140.058
0.0413024
-103.263
0.265543
-188.485
-120.362
0.315516
-0.330553
-140.043
0.0434417
-102.991
0.257953
-189.074
-120.061
0.31663
-0.331568
-140.028
0.0454862
-102.72
0.250654
-189.656
-119.765
0.315119
-0.336467
-140.007
0.0474524
-102.453
0.243589
-190.236
-119.474
0.314207
-0.341366
-139.98
0.0494658
-102.188
0.23684
-190.814
-119.187
0.315925
-0.345502
-139.95
0.0515855
-101.923
0.230464
-191.39
-118.905
0.320219
-0.346875
-139.924
0.0538416
-101.657
0.224532
-191.962
-118.627
0.323706
-0.348138
-139.899
0.0561701
-101.39
0.218952
-192.529
-118.352
0.325113
-0.352713
-139.872
0.0584666
-101.123
0.213585
-193.095
-118.08
0.329739
-0.355718
-139.846
0.0607861
-100.854
0.208474
-193.659
-117.81
0.334437
-0.355568
-139.824
0.0631017
-100.583
0.203637
-194.219
-117.544
0.336413
-0.357214
-139.804
0.0653423
-100.312
0.198912
-194.775
-117.279
0.335347
-0.363295
-139.776
0.0674614
-100.044
0.194195
-195.332
-117.018
0.334196
-0.370209
-139.74
0.069545
-99.779
0.189532
-195.892
-116.759
0.335077
-0.375533
-139.699
0.071689
-99.5156
0.185021
-196.453
-116.502
0.336616
-0.380624
-139.655
0.0740597
-99.2531
0.180747
-197.014
-116.247
0.340107
-0.385479
-139.61
0.0766403
-98.9896
0.176747
-197.576
-115.994
0.346815
-0.386816
-139.57
0.0793501
-98.7221
0.173031
-198.136
-115.741
0.349178
-0.391312
-139.528
0.082084
-98.455
0.169416
-198.697
-115.49
0.354311
-0.394376
-139.488
0.0849134
-98.1856
0.165984
-199.257
-115.239
0.357323
-0.39804
-139.447
0.0878187
-97.9161
0.162663
-199.818
-114.989
0.360904
-0.403483
-139.404
0.0908263
-97.6461
0.159443
-200.381
-114.738
0.369616
-0.405712
-139.368
0.0939803
-97.3704
0.156405
-200.943
-114.488
0.375867
-0.407856
-139.336
0.0971628
-97.0917
0.153472
-201.504
-114.237
0.382138
-0.410598
-139.308
0.10037
-96.8099
0.150598
-202.065
-113.986
0.387602
-0.413875
-139.282
0.103554
-96.5259
0.147703
-202.627
-113.735
0.392556
-0.417675
-139.256
0.106697
-96.24
0.144759
-203.189
-113.484
0.397116
-0.421808
-139.232
0.109796
-95.9527
0.141745
-203.753
-113.232
0.401362
-0.426253
-139.207
0.112847
-95.6642
0.138645
-204.318
-112.981
0.405397
-0.430931
-139.181
0.115855
-95.3747
0.135457
-204.884
-112.729
0.40927
-0.43581
-139.155
0.118823
-95.0842
0.132179
-205.452
-112.478
0.413029
-0.440861
-139.127
0.121757
-94.7929
0.128811
-206.022
-112.228
0.416706
-0.446064
-139.098
0.124661
-94.5009
0.125354
-206.593
-111.978
0.420326
-0.451405
-139.067
0.127541
-94.2081
0.121811
-207.166
-111.728
0.423905
-0.456874
-139.034
0.130399
-93.9146
0.118181
-207.742
-111.48
0.427457
-0.462464
-138.999
0.13324
-93.6204
0.114465
-208.318
-111.232
0.430992
-0.46817
-138.961
0.136065
-93.3255
0.110664
-208.897
-110.985
0.434515
-0.473989
-138.922
0.138877
-93.0298
0.106776
-209.478
-110.74
0.438032
-0.479919
-138.88
0.141677
-92.7335
0.102801
-210.061
-110.495
0.441545
-0.485958
-138.836
0.144467
-92.4364
0.0987368
-210.645
-110.252
0.445056
-0.492104
-138.789
0.147248
-92.1386
0.0945823
-211.232
-110.01
0.448565
-0.498356
-138.739
0.150021
-91.84
0.0903351
-211.821
-109.77
0.452073
-0.504713
-138.686
0.152787
-91.5408
0.0859927
-212.412
-109.531
0.45558
-0.511173
-138.631
0.155549
-91.2407
0.0815524
-213.004
-109.294
0.459085
-0.517735
-138.572
0.158307
-90.9399
0.077011
-213.599
-109.059
0.462587
-0.524395
-138.51
0.161064
-90.6384
0.072365
-214.196
-108.825
0.466087
-0.531151
-138.445
0.163823
-90.3362
0.0676105
-214.795
-108.594
0.469584
-0.537998
-138.377
0.166589
-90.0332
0.0627431
-215.395
-108.364
0.473078
-0.544931
-138.305
0.169366
-89.7294
0.0577576
-215.998
-108.137
0.476568
-0.551943
-138.229
0.172161
-89.425
0.0526481
-216.603
-107.912
0.480056
-0.559025
-138.15
0.174981
-89.12
0.0474073
-217.209
-107.69
0.483544
-0.566165
-138.068
0.177839
-88.8143
0.0420264
-217.817
-107.47
0.487032
-0.57335
-137.981
0.180747
-88.508
0.0364954
-218.427
-107.253
0.490524
-0.580563
-137.891
0.183722
-88.2012
0.0308013
-219.038
-107.038
0.494023
-0.587782
-137.798
0.186785
-87.8939
0.0249216
-219.651
-106.827
0.497534
-0.594975
-137.7
0.189955
-87.5864
0.0188309
-220.265
-106.618
0.501064
-0.602101
-137.599
0.193256
-87.2786
0.0125822
-220.88
-106.412
0.504622
-0.609132
-137.495
0.196748
-86.9707
0.00611452
-221.495
-106.209
0.508222
-0.61606
-137.387
0.200545
-86.663
-0.000503619
-222.11
-106.009
0.511867
-0.622842
-137.276
0.204746
-86.3559
-0.00727713
-222.726
-105.812
0.515561
-0.629319
-137.162
0.209354
-86.0497
-0.0143955
-223.341
-105.617
0.519315
-0.635271
-137.046
0.214347
-85.7447
-0.0220785
-223.954
-105.424
0.523197
-0.640542
-136.929
0.219644
-85.4412
-0.030595
-224.564
-105.235
0.527353
-0.64564
-136.811
0.225127
-85.1389
-0.0393803
-225.17
-105.05
0.531526
-0.65062
-136.691
0.230986
-84.8384
-0.048473
-225.772
-104.867
0.535294
-0.652022
-136.575
0.237838
-84.5409
-0.0616997
-226.363
-104.691
0.531867
-0.641599
-136.465
0.243633
-84.2527
-0.0952898
-226.909
-104.543
0.529557
-0.634154
0.246063
-0.117296
)
;

boundaryField
{
    inlet
    {
        type            calculated;
        value           nonuniform List<scalar> 4(-136.36 -227.426 -83.9692 -104.414);
    }
    outlet
    {
        type            calculated;
        value           nonuniform List<scalar> 4(140.065 173.425 110.147 128.532);
    }
    repeat_boundary
    {
        type            calculated;
        value           uniform 0;
    }
}


// ************************************************************************* //
