/*--------------------------------*- C++ -*----------------------------------*\
| =========                 |                                                 |
| \\      /  F ield         | OpenFOAM: The Open Source CFD Toolbox           |
|  \\    /   O peration     | Version:  5.x                                   |
|   \\  /    A nd           | Web:      www.OpenFOAM.org                      |
|    \\/     M anipulation  |                                                 |
\*---------------------------------------------------------------------------*/
FoamFile
{
    version     2.0;
    format      ascii;
    class       volVectorField;
    location    "9000";
    object      stored_U;
}
// * * * * * * * * * * * * * * * * * * * * * * * * * * * * * * * * * * * * * //

dimensions      [0 1 -1 0 0 0 0];

internalField   nonuniform List<vector> 
180
(
(-2.43011e-10 1.80413e-08 -0.00100011)
(-5.38502e-10 2.19062e-08 -0.00100011)
(-8.75131e-10 2.85283e-08 -0.00100011)
(-1.21144e-09 3.70028e-08 -0.00100012)
(-1.53788e-09 4.6698e-08 -0.00100012)
(-1.85509e-09 5.72639e-08 -0.00100013)
(-2.16253e-09 6.85594e-08 -0.00100013)
(-2.45689e-09 8.05737e-08 -0.00100014)
(-2.73402e-09 9.3369e-08 -0.00100015)
(-2.98933e-09 1.07045e-07 -0.00100016)
(-3.2178e-09 1.21723e-07 -0.00100017)
(-3.41364e-09 1.37537e-07 -0.00100019)
(-3.56989e-09 1.54634e-07 -0.0010002)
(-3.67813e-09 1.73171e-07 -0.00100022)
(-3.72796e-09 1.93321e-07 -0.00100024)
(-3.70659e-09 2.15269e-07 -0.00100026)
(-3.59839e-09 2.39217e-07 -0.00100028)
(-3.3843e-09 2.65382e-07 -0.00100031)
(-3.04081e-09 2.94002e-07 -0.00100034)
(-2.53907e-09 3.25335e-07 -0.00100037)
(-1.84364e-09 3.5966e-07 -0.00100041)
(-9.11556e-10 3.97282e-07 -0.00100045)
(3.08168e-10 4.38532e-07 -0.00100049)
(1.88027e-09 4.83769e-07 -0.00100054)
(3.87491e-09 5.33386e-07 -0.00100059)
(6.37495e-09 5.87811e-07 -0.00100065)
(9.47842e-09 6.47508e-07 -0.00100071)
(1.32899e-08 7.12991e-07 -0.00100078)
(1.79389e-08 7.84811e-07 -0.00100086)
(2.3581e-08 8.6357e-07 -0.00100094)
(3.04006e-08 9.49916e-07 -0.00100104)
(3.86146e-08 1.04456e-06 -0.00100114)
(4.8478e-08 1.14826e-06 -0.00100124)
(6.02891e-08 1.26184e-06 -0.00100136)
(7.43981e-08 1.38621e-06 -0.00100149)
(9.12133e-08 1.52233e-06 -0.00100164)
(1.11189e-07 1.67125e-06 -0.00100179)
(1.34842e-07 1.83413e-06 -0.00100196)
(1.62782e-07 2.01218e-06 -0.00100215)
(1.95719e-07 2.20675e-06 -0.00100235)
(2.3448e-07 2.41923e-06 -0.00100257)
(2.80027e-07 2.65117e-06 -0.00100281)
(3.33479e-07 2.90419e-06 -0.00100307)
(3.96132e-07 3.18003e-06 -0.00100335)
(4.69488e-07 3.48055e-06 -0.00100366)
(5.55291e-07 3.80772e-06 -0.00100399)
(6.55556e-07 4.16363e-06 -0.00100435)
(7.72618e-07 4.5505e-06 -0.00100473)
(9.09178e-07 4.97064e-06 -0.00100515)
(1.06836e-06 5.42649e-06 -0.0010056)
(1.25376e-06 5.92062e-06 -0.00100609)
(1.46955e-06 6.45565e-06 -0.00100661)
(1.72054e-06 7.03434e-06 -0.00100717)
(2.01227e-06 7.65949e-06 -0.00100776)
(2.35113e-06 8.33397e-06 -0.0010084)
(2.74448e-06 9.06066e-06 -0.00100908)
(3.20082e-06 9.84247e-06 -0.0010098)
(3.72988e-06 1.06822e-05 -0.00101057)
(4.34291e-06 1.15827e-05 -0.00101138)
(5.05279e-06 1.25466e-05 -0.00101223)
(5.87435e-06 1.35762e-05 -0.00101313)
(6.82457e-06 1.46737e-05 -0.00101406)
(7.92296e-06 1.5841e-05 -0.00101504)
(9.19184e-06 1.70794e-05 -0.00101605)
(1.06568e-05 1.83896e-05 -0.00101709)
(1.23469e-05 1.97719e-05 -0.00101816)
(1.42955e-05 2.12257e-05 -0.00101925)
(1.65404e-05 2.27497e-05 -0.00102036)
(1.91238e-05 2.43414e-05 -0.00102147)
(2.2092e-05 2.59963e-05 -0.00102259)
(2.54923e-05 2.77048e-05 -0.00102368)
(2.93628e-05 2.94448e-05 -0.00102469)
(3.37032e-05 3.11703e-05 -0.00102553)
(3.84061e-05 3.27884e-05 -0.00102609)
(4.31259e-05 3.41235e-05 -0.00102677)
(4.70878e-05 3.48923e-05 -0.00102942)
(4.88663e-05 3.48224e-05 -0.00103453)
(4.66293e-05 3.38167e-05 -0.00102506)
(3.77593e-05 3.25221e-05 -0.000966056)
(2.00277e-05 3.27893e-05 -0.000804863)
(-1.08175e-05 1.83613e-05 -0.00285893)
(-2.1726e-05 -5.50611e-06 -6.14949e-05)
(-0.000180913 0.000283005 -0.00340153)
(-6.9258e-05 0.000103221 -0.0026626)
(-3.89494e-05 -8.88076e-06 -0.00119559)
(-0.000280895 6.89085e-05 -0.00505189)
(-2.94987e-05 -1.70924e-05 -0.000484989)
(-0.000935465 -0.000347627 -0.00434209)
(-3.25437e-05 -9.12775e-05 -0.000229153)
(0.000714578 -0.000950845 -0.00374444)
(-6.94521e-06 -0.000110112 -0.000166555)
(0.000527601 -0.0005377 -0.00412084)
(0.000171368 -0.000286788 -0.00142377)
(0.000355433 -0.000696006 -0.00479476)
(-4.16825e-05 -0.00012083 -0.00052391)
(0.00013439 -0.000385872 -0.00303077)
(0.000419251 -0.000770297 -0.00240288)
(-8.42642e-06 -8.46451e-05 -5.94858e-05)
(4.60888e-05 -8.50357e-05 -0.00444191)
(4.25688e-06 4.33055e-06 -0.000754888)
(-0.000165821 0.000206153 -0.00246266)
(-9.69e-05 0.000179281 -0.00121309)
(-0.00014768 -9.19802e-06 -0.0012587)
(-7.82249e-05 2.03265e-05 -0.000998106)
(-2.56988e-05 6.46164e-05 -0.000903202)
(-5.18623e-05 0.000104983 -0.000841109)
(-6.37864e-05 0.000125999 -0.000813194)
(-6.33611e-05 0.000130401 -0.000828715)
(-5.7578e-05 0.000124713 -0.000853082)
(-5.01848e-05 0.000114229 -0.00087367)
(-4.27267e-05 0.000102251 -0.000890706)
(-3.58583e-05 9.04966e-05 -0.000905459)
(-2.98222e-05 7.96887e-05 -0.000918362)
(-2.46458e-05 7.00358e-05 -0.000929568)
(-2.02606e-05 6.15201e-05 -0.000939253)
(-1.65694e-05 5.40434e-05 -0.000947612)
(-1.34731e-05 4.74891e-05 -0.000954827)
(-1.0883e-05 4.1745e-05 -0.000961054)
(-8.72223e-06 3.67102e-05 -0.000966428)
(-6.92477e-06 3.22957e-05 -0.000971066)
(-5.43443e-06 2.84237e-05 -0.000975068)
(-4.20332e-06 2.50263e-05 -0.00097852)
(-3.19066e-06 2.20443e-05 -0.000981499)
(-2.3618e-06 1.94259e-05 -0.000984069)
(-1.68733e-06 1.7126e-05 -0.000986286)
(-1.14227e-06 1.51051e-05 -0.000988198)
(-7.05338e-07 1.33287e-05 -0.000989845)
(-3.58061e-07 1.17665e-05 -0.000991259)
(-8.48865e-08 1.03919e-05 -0.000992475)
(1.272e-07 9.18171e-06 -0.00099352)
(2.89074e-07 8.11582e-06 -0.000994419)
(4.09849e-07 7.17657e-06 -0.000995193)
(4.97259e-07 6.34853e-06 -0.000995858)
(5.57765e-07 5.6182e-06 -0.000996431)
(5.96711e-07 4.97379e-06 -0.000996925)
(6.18491e-07 4.40495e-06 -0.00099735)
(6.26729e-07 3.90262e-06 -0.000997716)
(6.24412e-07 3.45884e-06 -0.000998031)
(6.14001e-07 3.06661e-06 -0.000998302)
(5.97513e-07 2.71981e-06 -0.000998536)
(5.76583e-07 2.41305e-06 -0.000998737)
(5.5252e-07 2.14161e-06 -0.000998911)
(5.26363e-07 1.90133e-06 -0.00099906)
(4.98942e-07 1.68856e-06 -0.000999189)
(4.70922e-07 1.50008e-06 -0.000999301)
(4.42827e-07 1.33307e-06 -0.000999397)
(4.15064e-07 1.18501e-06 -0.00099948)
(3.87942e-07 1.05372e-06 -0.000999551)
(3.61689e-07 9.37263e-07 -0.000999613)
(3.36472e-07 8.3392e-07 -0.000999666)
(3.12402e-07 7.42191e-07 -0.000999712)
(2.89551e-07 6.60746e-07 -0.000999752)
(2.67957e-07 5.88413e-07 -0.000999786)
(2.47632e-07 5.24157e-07 -0.000999816)
(2.28566e-07 4.67065e-07 -0.000999842)
(2.10736e-07 4.16329e-07 -0.000999864)
(1.94105e-07 3.71235e-07 -0.000999883)
(1.78628e-07 3.31154e-07 -0.0009999)
(1.64257e-07 2.95526e-07 -0.000999914)
(1.50938e-07 2.63859e-07 -0.000999926)
(1.38615e-07 2.35713e-07 -0.000999937)
(1.27233e-07 2.10702e-07 -0.000999946)
(1.16738e-07 1.88482e-07 -0.000999954)
(1.07075e-07 1.68747e-07 -0.000999961)
(9.8195e-08 1.51226e-07 -0.000999967)
(9.00479e-08 1.35678e-07 -0.000999972)
(8.25885e-08 1.21891e-07 -0.000999976)
(7.57742e-08 1.09673e-07 -0.000999979)
(6.95654e-08 9.88563e-08 -0.000999982)
(6.39256e-08 8.92905e-08 -0.000999985)
(5.88214e-08 8.08427e-08 -0.000999987)
(5.42224e-08 7.33952e-08 -0.000999989)
(5.01007e-08 6.68442e-08 -0.00099999)
(4.64317e-08 6.10988e-08 -0.000999992)
(4.31942e-08 5.60808e-08 -0.000999993)
(4.03724e-08 5.1727e-08 -0.000999993)
(3.79616e-08 4.79974e-08 -0.000999994)
(3.599e-08 4.48957e-08 -0.000999995)
(3.45453e-08 4.25264e-08 -0.000999995)
(3.37569e-08 4.12132e-08 -0.000999996)
)
;

boundaryField
{
    inlet
    {
        type            calculated;
        value           uniform (3.37569e-08 4.12132e-08 -0.000999996);
    }
    outlet
    {
        type            calculated;
        value           uniform (-2.43011e-10 1.80413e-08 -0.00100011);
    }
    repeat_boundary
    {
        type            calculated;
        value           nonuniform List<vector> 
360
(
(-2.43011e-10 0 -0.00100011)
(-5.38502e-10 0 -0.00100011)
(-8.75131e-10 0 -0.00100011)
(-1.21144e-09 0 -0.00100012)
(-1.53788e-09 0 -0.00100012)
(-1.85509e-09 0 -0.00100013)
(-2.16253e-09 0 -0.00100013)
(-2.45689e-09 0 -0.00100014)
(-2.73402e-09 0 -0.00100015)
(-2.98933e-09 0 -0.00100016)
(-3.2178e-09 0 -0.00100017)
(-3.41364e-09 0 -0.00100019)
(-3.56989e-09 0 -0.0010002)
(-3.67813e-09 0 -0.00100022)
(-3.72796e-09 0 -0.00100024)
(-3.70659e-09 0 -0.00100026)
(-3.59839e-09 0 -0.00100028)
(-3.3843e-09 0 -0.00100031)
(-3.04081e-09 0 -0.00100034)
(-2.53907e-09 0 -0.00100037)
(-1.84364e-09 0 -0.00100041)
(-9.11556e-10 0 -0.00100045)
(3.08168e-10 0 -0.00100049)
(1.88027e-09 0 -0.00100054)
(3.87491e-09 0 -0.00100059)
(6.37495e-09 0 -0.00100065)
(9.47842e-09 0 -0.00100071)
(1.32899e-08 0 -0.00100078)
(1.79389e-08 0 -0.00100086)
(2.3581e-08 0 -0.00100094)
(3.04006e-08 0 -0.00100104)
(3.86146e-08 0 -0.00100114)
(4.8478e-08 0 -0.00100124)
(6.02891e-08 0 -0.00100136)
(7.43981e-08 0 -0.00100149)
(9.12133e-08 0 -0.00100164)
(1.11189e-07 0 -0.00100179)
(1.34842e-07 0 -0.00100196)
(1.62782e-07 0 -0.00100215)
(1.95719e-07 0 -0.00100235)
(2.3448e-07 0 -0.00100257)
(2.80027e-07 0 -0.00100281)
(3.33479e-07 0 -0.00100307)
(3.96132e-07 0 -0.00100335)
(4.69488e-07 0 -0.00100366)
(5.55291e-07 0 -0.00100399)
(6.55556e-07 0 -0.00100435)
(7.72618e-07 0 -0.00100473)
(9.09178e-07 0 -0.00100515)
(1.06836e-06 0 -0.0010056)
(1.25376e-06 0 -0.00100609)
(1.46955e-06 0 -0.00100661)
(1.72054e-06 0 -0.00100717)
(2.01227e-06 0 -0.00100776)
(2.35113e-06 0 -0.0010084)
(2.74448e-06 0 -0.00100908)
(3.20082e-06 0 -0.0010098)
(3.72988e-06 0 -0.00101057)
(4.34291e-06 0 -0.00101138)
(5.05279e-06 0 -0.00101223)
(5.87435e-06 0 -0.00101313)
(6.82457e-06 0 -0.00101406)
(7.92296e-06 0 -0.00101504)
(9.19184e-06 0 -0.00101605)
(1.06568e-05 0 -0.00101709)
(1.23469e-05 0 -0.00101816)
(1.42955e-05 0 -0.00101925)
(1.65404e-05 0 -0.00102036)
(1.91238e-05 0 -0.00102147)
(2.2092e-05 0 -0.00102259)
(2.54923e-05 0 -0.00102368)
(2.93628e-05 0 -0.00102469)
(3.37032e-05 0 -0.00102553)
(3.84061e-05 0 -0.00102609)
(4.31259e-05 0 -0.00102677)
(4.70878e-05 0 -0.00102942)
(4.88663e-05 0 -0.00103453)
(4.66293e-05 0 -0.00102506)
(3.77593e-05 0 -0.000966056)
(2.00277e-05 0 -0.000804863)
(-1.08175e-05 0 -0.00285893)
(-2.1726e-05 0 -6.14949e-05)
(-0.000180913 0 -0.00340153)
(-6.9258e-05 0 -0.0026626)
(-3.89494e-05 0 -0.00119559)
(-0.000280895 0 -0.00505189)
(-2.94987e-05 0 -0.000484989)
(-0.000935465 0 -0.00434209)
(-3.25437e-05 0 -0.000229153)
(0.000714578 0 -0.00374444)
(-6.94521e-06 0 -0.000166555)
(0.000527601 0 -0.00412084)
(0.000171368 0 -0.00142377)
(0.000355433 0 -0.00479476)
(-4.16825e-05 0 -0.00052391)
(0.00013439 0 -0.00303077)
(0.000419251 0 -0.00240288)
(-8.42642e-06 0 -5.94858e-05)
(4.60888e-05 0 -0.00444191)
(4.25688e-06 0 -0.000754888)
(-0.000165821 0 -0.00246266)
(-9.69e-05 0 -0.00121309)
(-0.00014768 0 -0.0012587)
(-7.82249e-05 0 -0.000998106)
(-2.56988e-05 0 -0.000903202)
(-5.18623e-05 0 -0.000841109)
(-6.37864e-05 0 -0.000813194)
(-6.33611e-05 0 -0.000828715)
(-5.7578e-05 0 -0.000853082)
(-5.01848e-05 0 -0.00087367)
(-4.27267e-05 0 -0.000890706)
(-3.58583e-05 0 -0.000905459)
(-2.98222e-05 0 -0.000918362)
(-2.46458e-05 0 -0.000929568)
(-2.02606e-05 0 -0.000939253)
(-1.65694e-05 0 -0.000947612)
(-1.34731e-05 0 -0.000954827)
(-1.0883e-05 0 -0.000961054)
(-8.72223e-06 0 -0.000966428)
(-6.92477e-06 0 -0.000971066)
(-5.43443e-06 0 -0.000975068)
(-4.20332e-06 0 -0.00097852)
(-3.19066e-06 0 -0.000981499)
(-2.3618e-06 0 -0.000984069)
(-1.68733e-06 0 -0.000986286)
(-1.14227e-06 0 -0.000988198)
(-7.05338e-07 0 -0.000989845)
(-3.58061e-07 0 -0.000991259)
(-8.48865e-08 0 -0.000992475)
(1.272e-07 0 -0.00099352)
(2.89074e-07 0 -0.000994419)
(4.09849e-07 0 -0.000995193)
(4.97259e-07 0 -0.000995858)
(5.57765e-07 0 -0.000996431)
(5.96711e-07 0 -0.000996925)
(6.18491e-07 0 -0.00099735)
(6.26729e-07 0 -0.000997716)
(6.24412e-07 0 -0.000998031)
(6.14001e-07 0 -0.000998302)
(5.97513e-07 0 -0.000998536)
(5.76583e-07 0 -0.000998737)
(5.5252e-07 0 -0.000998911)
(5.26363e-07 0 -0.00099906)
(4.98942e-07 0 -0.000999189)
(4.70922e-07 0 -0.000999301)
(4.42827e-07 0 -0.000999397)
(4.15064e-07 0 -0.00099948)
(3.87942e-07 0 -0.000999551)
(3.61689e-07 0 -0.000999613)
(3.36472e-07 0 -0.000999666)
(3.12402e-07 0 -0.000999712)
(2.89551e-07 0 -0.000999752)
(2.67957e-07 0 -0.000999786)
(2.47632e-07 0 -0.000999816)
(2.28566e-07 0 -0.000999842)
(2.10736e-07 0 -0.000999864)
(1.94105e-07 0 -0.000999883)
(1.78628e-07 0 -0.0009999)
(1.64257e-07 0 -0.000999914)
(1.50938e-07 0 -0.000999926)
(1.38615e-07 0 -0.000999937)
(1.27233e-07 0 -0.000999946)
(1.16738e-07 0 -0.000999954)
(1.07075e-07 0 -0.000999961)
(9.8195e-08 0 -0.000999967)
(9.00479e-08 0 -0.000999972)
(8.25885e-08 0 -0.000999976)
(7.57742e-08 0 -0.000999979)
(6.95654e-08 0 -0.000999982)
(6.39256e-08 0 -0.000999985)
(5.88214e-08 0 -0.000999987)
(5.42224e-08 0 -0.000999989)
(5.01007e-08 0 -0.00099999)
(4.64317e-08 0 -0.000999992)
(4.31942e-08 0 -0.000999993)
(4.03724e-08 0 -0.000999993)
(3.79616e-08 0 -0.000999994)
(3.599e-08 0 -0.000999995)
(3.45453e-08 0 -0.000999995)
(3.37569e-08 0 -0.000999996)
(0 1.80413e-08 -0.00100011)
(0 2.19062e-08 -0.00100011)
(0 2.85283e-08 -0.00100011)
(0 3.70028e-08 -0.00100012)
(0 4.6698e-08 -0.00100012)
(0 5.72639e-08 -0.00100013)
(0 6.85594e-08 -0.00100013)
(0 8.05737e-08 -0.00100014)
(0 9.3369e-08 -0.00100015)
(0 1.07045e-07 -0.00100016)
(0 1.21723e-07 -0.00100017)
(0 1.37537e-07 -0.00100019)
(0 1.54634e-07 -0.0010002)
(0 1.73171e-07 -0.00100022)
(0 1.93321e-07 -0.00100024)
(0 2.15269e-07 -0.00100026)
(0 2.39217e-07 -0.00100028)
(0 2.65382e-07 -0.00100031)
(0 2.94002e-07 -0.00100034)
(0 3.25335e-07 -0.00100037)
(0 3.5966e-07 -0.00100041)
(0 3.97282e-07 -0.00100045)
(0 4.38532e-07 -0.00100049)
(0 4.83769e-07 -0.00100054)
(0 5.33386e-07 -0.00100059)
(0 5.87811e-07 -0.00100065)
(0 6.47508e-07 -0.00100071)
(0 7.12991e-07 -0.00100078)
(0 7.84811e-07 -0.00100086)
(0 8.6357e-07 -0.00100094)
(0 9.49916e-07 -0.00100104)
(0 1.04456e-06 -0.00100114)
(0 1.14826e-06 -0.00100124)
(0 1.26184e-06 -0.00100136)
(0 1.38621e-06 -0.00100149)
(0 1.52233e-06 -0.00100164)
(0 1.67125e-06 -0.00100179)
(0 1.83413e-06 -0.00100196)
(0 2.01218e-06 -0.00100215)
(0 2.20675e-06 -0.00100235)
(0 2.41923e-06 -0.00100257)
(0 2.65117e-06 -0.00100281)
(0 2.90419e-06 -0.00100307)
(0 3.18003e-06 -0.00100335)
(0 3.48055e-06 -0.00100366)
(0 3.80772e-06 -0.00100399)
(0 4.16363e-06 -0.00100435)
(0 4.5505e-06 -0.00100473)
(0 4.97064e-06 -0.00100515)
(0 5.42649e-06 -0.0010056)
(0 5.92062e-06 -0.00100609)
(0 6.45565e-06 -0.00100661)
(0 7.03434e-06 -0.00100717)
(0 7.65949e-06 -0.00100776)
(0 8.33397e-06 -0.0010084)
(0 9.06066e-06 -0.00100908)
(0 9.84247e-06 -0.0010098)
(0 1.06822e-05 -0.00101057)
(0 1.15827e-05 -0.00101138)
(0 1.25466e-05 -0.00101223)
(0 1.35762e-05 -0.00101313)
(0 1.46737e-05 -0.00101406)
(0 1.5841e-05 -0.00101504)
(0 1.70794e-05 -0.00101605)
(0 1.83896e-05 -0.00101709)
(0 1.97719e-05 -0.00101816)
(0 2.12257e-05 -0.00101925)
(0 2.27497e-05 -0.00102036)
(0 2.43414e-05 -0.00102147)
(0 2.59963e-05 -0.00102259)
(0 2.77048e-05 -0.00102368)
(0 2.94448e-05 -0.00102469)
(0 3.11703e-05 -0.00102553)
(0 3.27884e-05 -0.00102609)
(0 3.41235e-05 -0.00102677)
(0 3.48923e-05 -0.00102942)
(0 3.48224e-05 -0.00103453)
(0 3.38167e-05 -0.00102506)
(0 3.25221e-05 -0.000966056)
(0 3.27893e-05 -0.000804863)
(0 1.83613e-05 -0.00285893)
(0 -5.50611e-06 -6.14949e-05)
(0 0.000283005 -0.00340153)
(0 0.000103221 -0.0026626)
(0 -8.88076e-06 -0.00119559)
(0 6.89085e-05 -0.00505189)
(0 -1.70924e-05 -0.000484989)
(0 -0.000347627 -0.00434209)
(0 -9.12775e-05 -0.000229153)
(0 -0.000950845 -0.00374444)
(0 -0.000110112 -0.000166555)
(0 -0.0005377 -0.00412084)
(0 -0.000286788 -0.00142377)
(0 -0.000696006 -0.00479476)
(0 -0.00012083 -0.00052391)
(0 -0.000385872 -0.00303077)
(0 -0.000770297 -0.00240288)
(0 -8.46451e-05 -5.94858e-05)
(0 -8.50357e-05 -0.00444191)
(0 4.33055e-06 -0.000754888)
(0 0.000206153 -0.00246266)
(0 0.000179281 -0.00121309)
(0 -9.19802e-06 -0.0012587)
(0 2.03265e-05 -0.000998106)
(0 6.46164e-05 -0.000903202)
(0 0.000104983 -0.000841109)
(0 0.000125999 -0.000813194)
(0 0.000130401 -0.000828715)
(0 0.000124713 -0.000853082)
(0 0.000114229 -0.00087367)
(0 0.000102251 -0.000890706)
(0 9.04966e-05 -0.000905459)
(0 7.96887e-05 -0.000918362)
(0 7.00358e-05 -0.000929568)
(0 6.15201e-05 -0.000939253)
(0 5.40434e-05 -0.000947612)
(0 4.74891e-05 -0.000954827)
(0 4.1745e-05 -0.000961054)
(0 3.67102e-05 -0.000966428)
(0 3.22957e-05 -0.000971066)
(0 2.84237e-05 -0.000975068)
(0 2.50263e-05 -0.00097852)
(0 2.20443e-05 -0.000981499)
(0 1.94259e-05 -0.000984069)
(0 1.7126e-05 -0.000986286)
(0 1.51051e-05 -0.000988198)
(0 1.33287e-05 -0.000989845)
(0 1.17665e-05 -0.000991259)
(0 1.03919e-05 -0.000992475)
(0 9.18171e-06 -0.00099352)
(0 8.11582e-06 -0.000994419)
(0 7.17657e-06 -0.000995193)
(0 6.34853e-06 -0.000995858)
(0 5.6182e-06 -0.000996431)
(0 4.97379e-06 -0.000996925)
(0 4.40495e-06 -0.00099735)
(0 3.90262e-06 -0.000997716)
(0 3.45884e-06 -0.000998031)
(0 3.06661e-06 -0.000998302)
(0 2.71981e-06 -0.000998536)
(0 2.41305e-06 -0.000998737)
(0 2.14161e-06 -0.000998911)
(0 1.90133e-06 -0.00099906)
(0 1.68856e-06 -0.000999189)
(0 1.50008e-06 -0.000999301)
(0 1.33307e-06 -0.000999397)
(0 1.18501e-06 -0.00099948)
(0 1.05372e-06 -0.000999551)
(0 9.37263e-07 -0.000999613)
(0 8.3392e-07 -0.000999666)
(0 7.42191e-07 -0.000999712)
(0 6.60746e-07 -0.000999752)
(0 5.88413e-07 -0.000999786)
(0 5.24157e-07 -0.000999816)
(0 4.67065e-07 -0.000999842)
(0 4.16329e-07 -0.000999864)
(0 3.71235e-07 -0.000999883)
(0 3.31154e-07 -0.0009999)
(0 2.95526e-07 -0.000999914)
(0 2.63859e-07 -0.000999926)
(0 2.35713e-07 -0.000999937)
(0 2.10702e-07 -0.000999946)
(0 1.88482e-07 -0.000999954)
(0 1.68747e-07 -0.000999961)
(0 1.51226e-07 -0.000999967)
(0 1.35678e-07 -0.000999972)
(0 1.21891e-07 -0.000999976)
(0 1.09673e-07 -0.000999979)
(0 9.88563e-08 -0.000999982)
(0 8.92905e-08 -0.000999985)
(0 8.08427e-08 -0.000999987)
(0 7.33952e-08 -0.000999989)
(0 6.68442e-08 -0.00099999)
(0 6.10988e-08 -0.000999992)
(0 5.60808e-08 -0.000999993)
(0 5.1727e-08 -0.000999993)
(0 4.79974e-08 -0.000999994)
(0 4.48957e-08 -0.000999995)
(0 4.25264e-08 -0.000999995)
(0 4.12132e-08 -0.000999996)
)
;
    }
    procBoundary1to0
    {
        type            processor;
        value           nonuniform List<vector> 
180
(
(-2.43011e-10 1.94456e-08 -0.0010001)
(-5.38502e-10 2.35836e-08 -0.0010001)
(-8.75131e-10 3.07288e-08 -0.00100011)
(-1.21144e-09 3.98984e-08 -0.00100011)
(-1.53788e-09 5.04291e-08 -0.00100012)
(-1.85509e-09 6.1958e-08 -0.00100012)
(-2.16253e-09 7.43482e-08 -0.00100013)
(-2.45689e-09 8.76065e-08 -0.00100014)
(-2.73401e-09 1.01819e-07 -0.00100015)
(-2.98933e-09 1.17115e-07 -0.00100016)
(-3.2178e-09 1.33648e-07 -0.00100017)
(-3.41364e-09 1.51589e-07 -0.00100018)
(-3.56989e-09 1.71127e-07 -0.0010002)
(-3.67813e-09 1.92468e-07 -0.00100022)
(-3.72795e-09 2.15837e-07 -0.00100024)
(-3.70659e-09 2.41482e-07 -0.00100026)
(-3.59839e-09 2.69676e-07 -0.00100029)
(-3.38429e-09 3.00718e-07 -0.00100032)
(-3.0408e-09 3.34942e-07 -0.00100035)
(-2.53905e-09 3.72714e-07 -0.00100039)
(-1.84361e-09 4.14444e-07 -0.00100043)
(-9.11526e-10 4.60584e-07 -0.00100047)
(3.08209e-10 5.11636e-07 -0.00100052)
(1.88032e-09 5.68161e-07 -0.00100058)
(3.87498e-09 6.30778e-07 -0.00100064)
(6.37505e-09 7.00179e-07 -0.00100071)
(9.47854e-09 7.7713e-07 -0.00100079)
(1.32901e-08 8.62481e-07 -0.00100087)
(1.79391e-08 9.57182e-07 -0.00100097)
(2.35813e-08 1.06229e-06 -0.00100107)
(3.0401e-08 1.17899e-06 -0.00100119)
(3.86152e-08 1.3086e-06 -0.00100132)
(4.84787e-08 1.45259e-06 -0.00100147)
(6.02901e-08 1.6126e-06 -0.00100163)
(7.43994e-08 1.79047e-06 -0.00100182)
(9.12151e-08 1.98824e-06 -0.00100202)
(1.11191e-07 2.20819e-06 -0.00100225)
(1.34846e-07 2.45287e-06 -0.0010025)
(1.62786e-07 2.72511e-06 -0.00100278)
(1.95725e-07 3.02809e-06 -0.0010031)
(2.34488e-07 3.36537e-06 -0.00100345)
(2.80038e-07 3.74093e-06 -0.00100384)
(3.33494e-07 4.15921e-06 -0.00100428)
(3.96151e-07 4.62521e-06 -0.00100477)
(4.69515e-07 5.14451e-06 -0.00100531)
(5.55326e-07 5.72337e-06 -0.00100592)
(6.55603e-07 6.3688e-06 -0.00100661)
(7.72682e-07 7.08866e-06 -0.00100737)
(9.09263e-07 7.89178e-06 -0.00100823)
(1.06847e-06 8.78805e-06 -0.00100919)
(1.25391e-06 9.78857e-06 -0.00101026)
(1.46976e-06 1.09058e-05 -0.00101147)
(1.72082e-06 1.21538e-05 -0.00101281)
(2.01264e-06 1.35483e-05 -0.00101433)
(2.35163e-06 1.51068e-05 -0.00101602)
(2.74515e-06 1.68495e-05 -0.00101793)
(3.20171e-06 1.87985e-05 -0.00102006)
(3.73108e-06 2.0979e-05 -0.00102246)
(4.34451e-06 2.34193e-05 -0.00102516)
(5.05494e-06 2.61512e-05 -0.00102818)
(5.87722e-06 2.92107e-05 -0.00103159)
(6.82841e-06 3.26379e-05 -0.00103541)
(7.9281e-06 3.64785e-05 -0.00103971)
(9.19871e-06 4.07837e-05 -0.00104455)
(1.06659e-05 4.5611e-05 -0.00104999)
(1.23592e-05 5.10256e-05 -0.00105611)
(1.4312e-05 5.71007e-05 -0.00106301)
(1.65624e-05 6.39183e-05 -0.00107077)
(1.91535e-05 7.15693e-05 -0.00107951)
(2.21325e-05 8.0151e-05 -0.00108935)
(2.55486e-05 8.97563e-05 -0.00110044)
(2.94438e-05 0.000100443 -0.00111292)
(3.38244e-05 0.000112151 -0.00112687)
(3.8593e-05 0.00012453 -0.00114231)
(4.34141e-05 0.000136611 -0.00115974)
(4.75128e-05 0.000146378 -0.00118137)
(4.94577e-05 0.00015035 -0.00120798)
(4.72601e-05 0.000143846 -0.00121904)
(3.81976e-05 0.000120211 -0.00116611)
(2.00046e-05 7.4607e-05 -0.000948427)
(-1.29119e-05 1.2243e-06 -0.00346654)
(-2.92716e-05 1.12904e-05 -6.90522e-05)
(-0.000343625 0.000125048 -0.00405303)
(-3.45784e-05 1.77952e-05 -0.000495766)
(-0.000433859 -0.000222745 -0.00432941)
(-2.84314e-05 2.1332e-05 -0.000242176)
(-0.000710282 -0.000435804 -0.00465676)
(-0.000348233 -0.000204073 -0.00442572)
(-4.20873e-05 4.99545e-05 -0.000986608)
(0.000238698 0.000356877 -0.00494853)
(0.000199332 5.12524e-05 -0.00138149)
(0.000754778 -0.000431102 -0.00423058)
(-8.0887e-05 -4.17031e-05 -0.000122977)
(0.000508118 -0.000199105 -0.0051909)
(0.000114826 -0.000194389 -0.002754)
(6.66138e-05 -0.000116147 -0.00244923)
(0.00030331 -7.62348e-05 -0.00372345)
(0.000242651 -5.91596e-05 -0.00269121)
(1.69069e-05 3.22036e-05 -0.00245951)
(-0.000241872 -5.08267e-05 -0.00396394)
(-0.000144526 -0.000108099 -0.00178621)
(-8.3801e-05 -0.00011341 -0.00346802)
(-0.000116792 -0.000145662 -0.0027981)
(-9.21075e-06 -1.65656e-05 -0.00112422)
(1.32566e-05 2.07358e-07 -0.00185535)
(-2.67331e-05 -3.49474e-05 -0.00106244)
(-4.93746e-05 -5.52453e-05 -0.00107312)
(-5.57583e-05 -6.06929e-05 -0.00109103)
(-5.39812e-05 -5.84983e-05 -0.00108349)
(-4.85789e-05 -5.29164e-05 -0.00106808)
(-4.20076e-05 -4.62036e-05 -0.00105503)
(-3.55083e-05 -3.95084e-05 -0.0010448)
(-2.96262e-05 -3.33704e-05 -0.00103636)
(-2.45208e-05 -2.79771e-05 -0.0010292)
(-2.01742e-05 -2.33378e-05 -0.00102316)
(-1.65074e-05 -1.93908e-05 -0.0010181)
(-1.34281e-05 -1.60498e-05 -0.00101391)
(-1.08503e-05 -1.32301e-05 -0.00101046)
(-8.69834e-06 -1.08558e-05 -0.00100764)
(-6.90739e-06 -8.86095e-06 -0.00100533)
(-5.42182e-06 -7.18874e-06 -0.00100347)
(-4.19418e-06 -5.79051e-06 -0.00100197)
(-3.18405e-06 -4.62462e-06 -0.00100077)
(-2.35704e-06 -3.65552e-06 -0.000999831)
(-1.6839e-06 -2.85287e-06 -0.000999098)
(-1.13981e-06 -2.19081e-06 -0.000998538)
(-7.03583e-07 -1.64726e-06 -0.000998124)
(-3.56811e-07 -1.2032e-06 -0.000997831)
(-8.40005e-08 -8.4251e-07 -0.000997635)
(1.27825e-07 -5.51573e-07 -0.000997517)
(2.89513e-07 -3.18883e-07 -0.000997459)
(4.10156e-07 -1.34688e-07 -0.000997452)
(4.97472e-07 9.50248e-09 -0.000997484)
(5.57912e-07 1.20873e-07 -0.000997546)
(5.96811e-07 2.054e-07 -0.00099763)
(6.1856e-07 2.68036e-07 -0.00099773)
(6.26775e-07 3.12893e-07 -0.000997839)
(6.24443e-07 3.43392e-07 -0.000997955)
(6.14022e-07 3.62374e-07 -0.000998074)
(5.97526e-07 3.72199e-07 -0.000998193)
(5.76593e-07 3.74824e-07 -0.000998312)
(5.52527e-07 3.71854e-07 -0.000998427)
(5.26367e-07 3.64594e-07 -0.000998538)
(4.98945e-07 3.54098e-07 -0.000998644)
(4.70924e-07 3.41232e-07 -0.000998746)
(4.42829e-07 3.26703e-07 -0.000998842)
(4.15066e-07 3.11084e-07 -0.000998932)
(3.87943e-07 2.94832e-07 -0.000999017)
(3.6169e-07 2.78308e-07 -0.000999096)
(3.36472e-07 2.61798e-07 -0.000999171)
(3.12402e-07 2.45522e-07 -0.000999239)
(2.89552e-07 2.29645e-07 -0.000999303)
(2.67958e-07 2.14292e-07 -0.000999363)
(2.47632e-07 1.99551e-07 -0.000999418)
(2.28567e-07 1.85481e-07 -0.000999468)
(2.10736e-07 1.7212e-07 -0.000999515)
(1.94105e-07 1.59486e-07 -0.000999557)
(1.78628e-07 1.47585e-07 -0.000999597)
(1.64257e-07 1.3641e-07 -0.000999633)
(1.50938e-07 1.25948e-07 -0.000999666)
(1.38615e-07 1.16178e-07 -0.000999696)
(1.27233e-07 1.07076e-07 -0.000999724)
(1.16738e-07 9.86153e-08 -0.000999749)
(1.07075e-07 9.07681e-08 -0.000999772)
(9.8195e-08 8.35053e-08 -0.000999793)
(9.0048e-08 7.67983e-08 -0.000999813)
(8.25886e-08 7.0619e-08 -0.00099983)
(7.57742e-08 6.49407e-08 -0.000999847)
(6.95654e-08 5.97376e-08 -0.000999862)
(6.39256e-08 5.49858e-08 -0.000999875)
(5.88214e-08 5.06627e-08 -0.000999888)
(5.42224e-08 4.67475e-08 -0.0009999)
(5.01007e-08 4.32207e-08 -0.000999911)
(4.64317e-08 4.00649e-08 -0.000999921)
(4.31942e-08 3.72654e-08 -0.000999931)
(4.03724e-08 3.48123e-08 -0.00099994)
(3.79616e-08 3.27065e-08 -0.000999948)
(3.599e-08 3.09803e-08 -0.000999957)
(3.45454e-08 2.97181e-08 -0.000999965)
(3.37569e-08 2.9033e-08 -0.000999972)
)
;
    }
    procBoundary1to3
    {
        type            processor;
        value           nonuniform List<vector> 
180
(
(-1.64726e-09 1.80412e-08 -0.000999911)
(-2.21588e-09 2.1906e-08 -0.00099991)
(-3.07567e-09 2.85281e-08 -0.000999908)
(-4.10702e-09 3.70026e-08 -0.000999905)
(-5.26894e-09 4.66978e-08 -0.000999901)
(-6.54913e-09 5.72636e-08 -0.000999897)
(-7.95133e-09 6.85591e-08 -0.000999891)
(-9.48961e-09 8.05734e-08 -0.000999884)
(-1.1184e-08 9.33686e-08 -0.000999877)
(-1.3059e-08 1.07045e-07 -0.000999868)
(-1.51424e-08 1.21722e-07 -0.000999858)
(-1.74655e-08 1.37536e-07 -0.000999846)
(-2.00632e-08 1.54633e-07 -0.000999833)
(-2.29746e-08 1.7317e-07 -0.000999819)
(-2.62434e-08 1.9332e-07 -0.000999803)
(-2.99189e-08 2.15268e-07 -0.000999785)
(-3.40567e-08 2.39215e-07 -0.000999765)
(-3.87199e-08 2.6538e-07 -0.000999743)
(-4.39799e-08 2.94e-07 -0.000999719)
(-4.9918e-08 3.25332e-07 -0.000999692)
(-5.66269e-08 3.59657e-07 -0.000999663)
(-6.4212e-08 3.97278e-07 -0.000999631)
(-7.27936e-08 4.38528e-07 -0.000999595)
(-8.2509e-08 4.83764e-07 -0.000999556)
(-9.3515e-08 5.33379e-07 -0.000999513)
(-1.0599e-07 5.87802e-07 -0.000999466)
(-1.2014e-07 6.47498e-07 -0.000999415)
(-1.36196e-07 7.12978e-07 -0.000999358)
(-1.54425e-07 7.84796e-07 -0.000999297)
(-1.75132e-07 8.63552e-07 -0.000999229)
(-1.98663e-07 9.49895e-07 -0.000999155)
(-2.25413e-07 1.04453e-06 -0.000999075)
(-2.55835e-07 1.14823e-06 -0.000998987)
(-2.90444e-07 1.26181e-06 -0.000998892)
(-3.29828e-07 1.38617e-06 -0.000998788)
(-3.7466e-07 1.52227e-06 -0.000998675)
(-4.25706e-07 1.67119e-06 -0.000998552)
(-4.83844e-07 1.83405e-06 -0.000998419)
(-5.50074e-07 2.01209e-06 -0.000998274)
(-6.2554e-07 2.20663e-06 -0.000998118)
(-7.11547e-07 2.41909e-06 -0.000997949)
(-8.09585e-07 2.651e-06 -0.000997766)
(-9.2136e-07 2.90399e-06 -0.000997569)
(-1.04882e-06 3.17979e-06 -0.000997356)
(-1.19417e-06 3.48026e-06 -0.000997128)
(-1.35998e-06 3.80737e-06 -0.000996882)
(-1.54913e-06 4.16322e-06 -0.000996619)
(-1.76493e-06 4.55e-06 -0.000996338)
(-2.01119e-06 4.97004e-06 -0.000996038)
(-2.29221e-06 5.42579e-06 -0.000995718)
(-2.61295e-06 5.91977e-06 -0.000995378)
(-2.97903e-06 6.45465e-06 -0.000995019)
(-3.39692e-06 7.03315e-06 -0.000994639)
(-3.87395e-06 7.65807e-06 -0.000994239)
(-4.41852e-06 8.33228e-06 -0.00099382)
(-5.04022e-06 9.05866e-06 -0.000993383)
(-5.74998e-06 9.84008e-06 -0.00099293)
(-6.56028e-06 1.06794e-05 -0.000992462)
(-7.48533e-06 1.15793e-05 -0.000991982)
(-8.54136e-06 1.25425e-05 -0.000991494)
(-9.74686e-06 1.35713e-05 -0.000991002)
(-1.11229e-05 1.46679e-05 -0.000990512)
(-1.26934e-05 1.5834e-05 -0.00099003)
(-1.44858e-05 1.7071e-05 -0.000989564)
(-1.6531e-05 1.83794e-05 -0.000989123)
(-1.88644e-05 1.97595e-05 -0.000988718)
(-2.15259e-05 2.12106e-05 -0.00098836)
(-2.45608e-05 2.27311e-05 -0.00098806)
(-2.80191e-05 2.43185e-05 -0.000987833)
(-3.19554e-05 2.59681e-05 -0.000987702)
(-3.64232e-05 2.76707e-05 -0.000987706)
(-4.14613e-05 2.94052e-05 -0.000987876)
(-4.70539e-05 3.11287e-05 -0.000988183)
(-5.30459e-05 3.27535e-05 -0.000988632)
(-5.89937e-05 3.41113e-05 -0.000989847)
(-6.3957e-05 3.49227e-05 -0.000993573)
(-6.6156e-05 3.49071e-05 -0.00099809)
(-6.29436e-05 3.39222e-05 -0.000982731)
(-5.00324e-05 3.25949e-05 -0.000910843)
(-2.20821e-05 3.25111e-05 -0.000884361)
(2.17371e-06 1.87756e-05 -0.0026474)
(-7.22076e-05 1.04427e-05 -0.000117864)
(4.21101e-05 0.0004662 -0.00340967)
(-7.86417e-05 -6.49892e-06 -0.00019888)
(-0.000154364 -6.08662e-05 -0.00362097)
(-7.47425e-05 4.38691e-05 -0.00388039)
(-0.000122671 -4.62864e-05 -0.000442197)
(-0.000370509 -0.000170411 -0.00363637)
(-0.000402329 -0.000157009 -0.00352571)
(-0.0001415 -4.07183e-05 -0.00035009)
(-0.00026734 -0.00074015 -0.00284878)
(0.000171492 -0.000391772 -0.00396957)
(-5.20044e-05 -9.26465e-05 -0.000397113)
(-0.000258863 -0.000817579 -0.00484144)
(-0.000196867 -0.000960698 -0.00356625)
(-6.94676e-05 -9.92223e-05 -0.000285242)
(-0.000377917 -0.00116363 -0.00516551)
(-6.61293e-05 -5.30609e-05 -0.000545756)
(-0.000232585 -0.000190079 -0.00433741)
(-0.000115088 5.69163e-05 -0.00257144)
(0.000530906 0.000567427 -0.00510945)
(7.51899e-05 -2.46317e-05 -0.000261914)
(3.98303e-05 -1.25938e-05 -0.00435807)
(7.40142e-05 4.06167e-05 -0.00151524)
(0.000106177 9.4465e-05 -0.00145886)
(0.000133796 0.000126282 -0.0013549)
(0.000145512 0.000135421 -0.0012776)
(0.000143386 0.000132354 -0.00124162)
(0.000133391 0.000123796 -0.00121763)