/*--------------------------------*- C++ -*----------------------------------*\
| =========                 |                                                 |
| \\      /  F ield         | OpenFOAM: The Open Source CFD Toolbox           |
|  \\    /   O peration     | Version:  5.x                                   |
|   \\  /    A nd           | Web:      www.OpenFOAM.org                      |
|    \\/     M anipulation  |                                                 |
\*---------------------------------------------------------------------------*/
FoamFile
{
    version     2.0;
    format      ascii;
    class       surfaceScalarField;
    location    "0.009";
    object      phi;
}
// * * * * * * * * * * * * * * * * * * * * * * * * * * * * * * * * * * * * * //

dimensions      [0 3 -1 0 0 0 0];

internalField   nonuniform List<scalar> 
179
(
-2.49981e-10
-2.49981e-10
-2.4998e-10
-2.4998e-10
-2.49979e-10
-2.49978e-10
-2.49977e-10
-2.49976e-10
-2.49975e-10
-2.49973e-10
-2.49971e-10
-2.49969e-10
-2.49966e-10
-2.49963e-10
-2.4996e-10
-2.49956e-10
-2.49952e-10
-2.49947e-10
-2.49942e-10
-2.49936e-10
-2.4993e-10
-2.49923e-10
-2.49915e-10
-2.49906e-10
-2.49896e-10
-2.49886e-10
-2.49874e-10
-2.49861e-10
-2.49846e-10
-2.49831e-10
-2.49813e-10
-2.49794e-10
-2.49773e-10
-2.49749e-10
-2.49724e-10
-2.49695e-10
-2.49664e-10
-2.4963e-10
-2.49592e-10
-2.4955e-10
-2.49505e-10
-2.49455e-10
-2.49399e-10
-2.49339e-10
-2.49272e-10
-2.49199e-10
-2.49119e-10
-2.49031e-10
-2.48934e-10
-2.48828e-10
-2.48713e-10
-2.48586e-10
-2.48448e-10
-2.48296e-10
-2.48131e-10
-2.47951e-10
-2.47755e-10
-2.47542e-10
-2.47309e-10
-2.47056e-10
-2.46782e-10
-2.46483e-10
-2.46159e-10
-2.45807e-10
-2.45424e-10
-2.45008e-10
-2.44559e-10
-2.44073e-10
-2.43549e-10
-2.42984e-10
-2.42376e-10
-2.41723e-10
-2.41024e-10
-2.40284e-10
-2.39517e-10
-2.38752e-10
-2.38072e-10
-2.37679e-10
-2.37823e-10
-2.38707e-10
-2.39827e-10
-2.39659e-10
-2.29374e-10
-2.27927e-10
-2.33791e-10
-2.45814e-10
-2.49258e-10
-2.5562e-10
-2.51574e-10
-2.43596e-10
-2.40147e-10
-2.37769e-10
-2.44075e-10
-2.49292e-10
-2.5281e-10
-2.60683e-10
-2.77643e-10
-2.87835e-10
-2.9575e-10
-2.96956e-10
-2.99117e-10
-3.01655e-10
-3.00006e-10
-2.98103e-10
-2.96082e-10
-2.93195e-10
-2.898e-10
-2.86224e-10
-2.82723e-10
-2.79438e-10
-2.7643e-10
-2.73708e-10
-2.71261e-10
-2.69067e-10
-2.67102e-10
-2.65343e-10
-2.63768e-10
-2.62357e-10
-2.61094e-10
-2.59962e-10
-2.58947e-10
-2.58038e-10
-2.57222e-10
-2.5649e-10
-2.55833e-10
-2.55244e-10
-2.54714e-10
-2.54239e-10
-2.53813e-10
-2.53431e-10
-2.53087e-10
-2.52779e-10
-2.52502e-10
-2.52253e-10
-2.52029e-10
-2.51828e-10
-2.51647e-10
-2.51484e-10
-2.51338e-10
-2.51206e-10
-2.51087e-10
-2.50981e-10
-2.50884e-10
-2.50798e-10
-2.5072e-10
-2.50649e-10
-2.50586e-10
-2.50529e-10
-2.50477e-10
-2.5043e-10
-2.50388e-10
-2.5035e-10
-2.50316e-10
-2.50285e-10
-2.50257e-10
-2.50232e-10
-2.50209e-10
-2.50188e-10
-2.5017e-10
-2.50153e-10
-2.50138e-10
-2.50125e-10
-2.50112e-10
-2.50101e-10
-2.50091e-10
-2.50082e-10
-2.50074e-10
-2.50067e-10
-2.5006e-10
-2.50054e-10
-2.50049e-10
-2.50043e-10
-2.50039e-10
-2.50034e-10
-2.50031e-10
-2.50027e-10
-2.50023e-10
-2.5002e-10
-2.50017e-10
)
;

boundaryField
{
    inlet
    {
        type            calculated;
        value           uniform -2.50014e-10;
    }
    outlet
    {
        type            calculated;
        value           uniform 2.49982e-10;
    }
    repeat_boundary
    {
        type            calculated;
        value           uniform 0;
    }
    procBoundary1to0
    {
        type            processor;
        value           nonuniform List<scalar> 
180
(
-1.66391e-17
-1.90542e-17
-2.13583e-17
-2.47404e-17
-2.93128e-17
-3.50062e-17
-4.16362e-17
-4.90737e-17
-5.72803e-17
-6.62824e-17
-7.61477e-17
-8.69642e-17
-9.88308e-17
-1.11854e-16
-1.26146e-16
-1.41827e-16
-1.59022e-16
-1.77866e-16
-1.985e-16
-2.21093e-16
-2.4583e-16
-2.7291e-16
-3.02564e-16
-3.35055e-16
-3.70538e-16
-4.09373e-16
-4.51912e-16
-4.98515e-16
-5.49523e-16
-6.05145e-16
-6.65438e-16
-7.30324e-16
-7.99616e-16
-8.73044e-16
-9.50273e-16
-1.03089e-15
-1.11435e-15
-1.19994e-15
-1.2867e-15
-1.37332e-15
-1.45783e-15
-1.53769e-15
-1.61044e-15
-1.67222e-15
-1.71809e-15
-1.74184e-15
-1.7356e-15
-1.68954e-15
-1.59134e-15
-1.42564e-15
-1.17321e-15
-8.1353e-16
-3.28606e-16
3.09021e-16
1.13119e-15
2.17432e-15
3.4792e-15
5.09018e-15
7.05305e-15
9.41059e-15
1.21937e-14
1.54049e-14
1.89889e-14
2.27672e-14
2.62959e-14
3.10221e-14
3.84363e-14
4.72504e-14
5.77242e-14
7.01784e-14
8.50342e-14
1.02895e-13
1.2473e-13
1.52181e-13
1.87917e-13
2.36013e-13
3.22316e-13
4.43336e-13
6.17252e-13
8.74801e-13
5.0125e-13
-1.20293e-13
-4.12317e-12
-8.65703e-13
3.60441e-12
9.86142e-12
8.21779e-13
4.30796e-12
-1.01387e-12
-5.32618e-12
-3.33762e-12
-2.11419e-12
-1.85644e-13
1.62228e-12
1.27799e-12
2.93958e-12
9.16331e-12
3.63012e-12
3.66581e-12
1.83284e-12
4.14851e-12
5.10659e-12
9.98206e-13
-6.61093e-14
-4.44639e-13
-1.78527e-12
-2.53759e-12
-2.83434e-12
-2.84401e-12
-2.70092e-12
-2.49278e-12
-2.2681e-12
-2.05011e-12
-1.84791e-12
-1.6639e-12
-1.49771e-12
-1.34803e-12
-1.21336e-12
-1.09223e-12
-9.83284e-13
-8.85303e-13
-7.97176e-13
-7.1791e-13
-6.46608e-13
-5.82465e-13
-5.24757e-13
-4.72837e-13
-4.26117e-13
-3.84072e-13
-3.46227e-13
-3.12156e-13
-2.81479e-13
-2.53852e-13
-2.28968e-13
-2.06551e-13
-1.86352e-13
-1.68149e-13
-1.51743e-13
-1.36954e-13
-1.23621e-13
-1.11598e-13
-1.00756e-13
-9.09771e-14
-8.2156e-14
-7.41979e-14
-6.70178e-14
-6.05388e-14
-5.4692e-14
-4.94153e-14
-4.46525e-14
-4.03534e-14
-3.64726e-14
-3.29691e-14
-2.9806e-14
-2.69503e-14
-2.43719e-14
-2.20439e-14
-1.9942e-14
-1.80441e-14
-1.63307e-14
-1.47837e-14
-1.33872e-14
-1.21267e-14
-1.09892e-14
-9.96294e-15
-9.03742e-15
-8.20314e-15
-7.45161e-15
-6.77519e-15
-6.16702e-15
-5.62097e-15
-5.13155e-15
-4.69387e-15
-4.30365e-15
-3.95725e-15
-3.65184e-15
-3.38585e-15
-3.16058e-15
-2.9848e-15
-2.91485e-15
)
;
    }
    procBoundary1to3
    {
        type            processor;
        value           nonuniform List<scalar> 
180
(
-2.96053e-16
-3.61028e-16
-4.75056e-16
-6.1939e-16
-7.83491e-16
-9.6189e-16
-1.15258e-15
-1.35568e-15
-1.57244e-15
-1.80471e-15
-2.05466e-15
-2.3247e-15
-2.61744e-15
-2.93573e-15
-3.28263e-15
-3.66149e-15
-4.07597e-15
-4.53004e-15
-5.02803e-15
-5.57471e-15
-6.17527e-15
-6.8354e-15
-7.56135e-15
-8.35996e-15
-9.23874e-15
-1.02059e-14
-1.12705e-14
-1.24425e-14
-1.37327e-14
-1.51531e-14
-1.67167e-14
-1.8438e-14
-2.03325e-14
-2.24178e-14
-2.47126e-14
-2.72378e-14
-3.00158e-14
-3.30716e-14
-3.64322e-14
-4.01269e-14
-4.41881e-14
-4.86512e-14
-5.35546e-14
-5.89398e-14
-6.48525e-14
-7.13417e-14
-7.84613e-14
-8.62693e-14
-9.48286e-14
-1.04207e-13
-1.14478e-13
-1.25721e-13
-1.38021e-13
-1.51468e-13
-1.66162e-13
-1.82208e-13
-1.99719e-13
-2.18819e-13
-2.39636e-13
-2.62314e-13
-2.87006e-13
-3.13877e-13
-3.4311e-13
-3.74908e-13
-4.09505e-13
-4.4717e-13
-4.88205e-13
-5.32934e-13
-5.81726e-13
-6.34979e-13
-6.93058e-13
-7.56081e-13
-8.23368e-13
-8.92205e-13
-9.55692e-13
-1.00019e-12
-1.00257e-12
-8.35967e-13
-4.73557e-13
8.65171e-15
6.18414e-13
-4.71138e-14
-6.16199e-12
-5.81553e-13
2.26016e-12
2.16069e-12
2.62312e-12
2.05333e-12
-3.032e-12
-2.65105e-12
-1.11295e-13
-2.64063e-13
6.49143e-12
3.59456e-12
2.24023e-12
4.93366e-12
7.79657e-12
6.56147e-12
4.25002e-12
-6.27452e-13
-1.98697e-12
-2.56864e-12
-2.6472e-12
-1.83758e-12
-1.57581e-12
-1.10171e-12
-8.58509e-13
-7.41484e-13
-6.57915e-13
-5.84037e-13
-5.16142e-13
-4.53806e-13
-3.97185e-13
-3.46434e-13
-3.01437e-13
-2.61818e-13
-2.27263e-13
-1.97291e-13
-1.71311e-13
-1.48804e-13
-1.29311e-13
-1.12433e-13
-9.78238e-14
-8.51828e-14
-7.42468e-14
-6.47876e-14
-5.64095e-14
-4.88213e-14
-4.22341e-14
-3.652e-14
-3.15663e-14
-2.72744e-14
-2.3558e-14
-2.03414e-14
-1.75588e-14
-1.51527e-14
-1.30731e-14
-1.12764e-14
-9.70322e-15
-8.29547e-15
-7.09646e-15
-6.07406e-15
-5.20172e-15
-4.45717e-15
-3.82162e-15
-3.27931e-15
-2.81637e-15
-2.42087e-15
-2.08281e-15
-1.79358e-15
-1.54588e-15
-1.33347e-15
-1.15103e-15
-9.94041e-16
-8.58232e-16
-7.40461e-16
-6.38001e-16
-5.48536e-16
-4.70116e-16
-4.0114e-16
-3.40416e-16
-2.86828e-16
-2.39273e-16
-1.96952e-16
-1.59171e-16
-1.25504e-16
-9.53929e-17
-6.83094e-17
-4.38089e-17
-2.15827e-17
-1.30243e-18
1.73314e-17
3.45419e-17
5.04648e-17
6.51147e-17
7.83449e-17
8.98493e-17
9.91462e-17
1.05442e-16
1.18405e-16
)
;
    }
}


// ************************************************************************* //
