/*--------------------------------*- C++ -*----------------------------------*\
| =========                 |                                                 |
| \\      /  F ield         | OpenFOAM: The Open Source CFD Toolbox           |
|  \\    /   O peration     | Version:  5.x                                   |
|   \\  /    A nd           | Web:      www.OpenFOAM.org                      |
|    \\/     M anipulation  |                                                 |
\*---------------------------------------------------------------------------*/
FoamFile
{
    version     2.0;
    format      ascii;
    class       volVectorField;
    location    "0.009";
    object      stored_U;
}
// * * * * * * * * * * * * * * * * * * * * * * * * * * * * * * * * * * * * * //

dimensions      [0 1 -1 0 0 0 0];

internalField   nonuniform List<vector> 
180
(
(6.76991e-10 -1.15338e-08 -0.000999947)
(7.45162e-10 -1.40862e-08 -0.000999945)
(8.31685e-10 -1.8489e-08 -0.000999944)
(9.58113e-10 -2.4112e-08 -0.000999941)
(1.13282e-09 -3.05296e-08 -0.000999938)
(1.35058e-09 -3.75167e-08 -0.000999935)
(1.60348e-09 -4.4992e-08 -0.00099993)
(1.88633e-09 -5.29597e-08 -0.000999925)
(2.19806e-09 -6.14702e-08 -0.000999919)
(2.54074e-09 -7.0597e-08 -0.000999911)
(2.91836e-09 -8.04272e-08 -0.000999903)
(3.33607e-09 -9.10571e-08 -0.000999894)
(3.79991e-09 -1.02592e-07 -0.000999884)
(4.31666e-09 -1.15145e-07 -0.000999872)
(4.89389e-09 -1.28842e-07 -0.000999859)
(5.54004e-09 -1.43818e-07 -0.000999844)
(6.26447e-09 -1.60221e-07 -0.000999827)
(7.07758e-09 -1.78214e-07 -0.000999809)
(7.99093e-09 -1.97973e-07 -0.000999789)
(9.01737e-09 -2.19694e-07 -0.000999766)
(1.01712e-08 -2.43591e-07 -0.000999741)
(1.14682e-08 -2.699e-07 -0.000999714)
(1.2926e-08 -2.98878e-07 -0.000999683)
(1.45644e-08 -3.30811e-07 -0.00099965)
(1.64053e-08 -3.66012e-07 -0.000999612)
(1.8473e-08 -4.04826e-07 -0.000999571)
(2.07948e-08 -4.47634e-07 -0.000999525)
(2.34011e-08 -4.94852e-07 -0.000999475)
(2.6326e-08 -5.46944e-07 -0.000999419)
(2.96075e-08 -6.04416e-07 -0.000999358)
(3.32884e-08 -6.67829e-07 -0.00099929)
(3.7416e-08 -7.37801e-07 -0.000999215)
(4.20432e-08 -8.15012e-07 -0.000999132)
(4.72281e-08 -9.00212e-07 -0.00099904)
(5.30353e-08 -9.94228e-07 -0.000998939)
(5.95354e-08 -1.09797e-06 -0.000998828)
(6.68063e-08 -1.21244e-06 -0.000998705)
(7.49332e-08 -1.33874e-06 -0.000998569)
(8.40093e-08 -1.4781e-06 -0.000998419)
(9.41368e-08 -1.63184e-06 -0.000998254)
(1.05427e-07 -1.80145e-06 -0.000998072)
(1.18e-07 -1.98855e-06 -0.000997871)
(1.31988e-07 -2.19492e-06 -0.000997649)
(1.47532e-07 -2.42254e-06 -0.000997405)
(1.64784e-07 -2.67355e-06 -0.000997136)
(1.83908e-07 -2.95034e-06 -0.00099684)
(2.05077e-07 -3.25551e-06 -0.000996514)
(2.28477e-07 -3.59194e-06 -0.000996154)
(2.54299e-07 -3.96277e-06 -0.000995759)
(2.82746e-07 -4.37147e-06 -0.000995324)
(3.14025e-07 -4.82183e-06 -0.000994846)
(3.48345e-07 -5.31801e-06 -0.000994319)
(3.85915e-07 -5.86454e-06 -0.000993741)
(4.26932e-07 -6.46643e-06 -0.000993106)
(4.71584e-07 -7.12913e-06 -0.000992409)
(5.20031e-07 -7.85861e-06 -0.000991643)
(5.72403e-07 -8.66139e-06 -0.000990804)
(6.28778e-07 -9.54459e-06 -0.000989883)
(6.89169e-07 -1.0516e-05 -0.000988874)
(7.53503e-07 -1.15841e-05 -0.00098777)
(8.21593e-07 -1.27582e-05 -0.000986561)
(8.9311e-07 -1.40482e-05 -0.000985238)
(9.67547e-07 -1.54653e-05 -0.000983793)
(1.04417e-06 -1.70212e-05 -0.000982214)
(1.122e-06 -1.87291e-05 -0.00098049)
(1.19968e-06 -2.06029e-05 -0.00097861)
(1.27549e-06 -2.26581e-05 -0.000976559)
(1.34711e-06 -2.4911e-05 -0.000974324)
(1.41134e-06 -2.73792e-05 -0.000971889)
(1.46319e-06 -3.00795e-05 -0.000969238)
(1.49379e-06 -3.30244e-05 -0.000966356)
(1.48586e-06 -3.62104e-05 -0.000963221)
(1.4034e-06 -3.95871e-05 -0.000959759)
(1.17436e-06 -4.29914e-05 -0.000955857)
(6.69588e-07 -4.60179e-05 -0.000951761)
(-3.04937e-07 -4.78207e-05 -0.000949092)
(-2.00498e-06 -4.70004e-05 -0.000949588)
(-4.74785e-06 -4.14357e-05 -0.000941582)
(-9.03913e-06 -2.85094e-05 -0.000892119)
(-1.49156e-05 -7.85965e-06 -0.000689388)
(-1.43115e-05 2.72973e-05 -0.00273099)
(-9.51765e-06 -1.60104e-05 -7.83733e-07)
(0.000140842 -0.000244952 -0.00279195)
(4.45584e-05 -7.98948e-05 -0.00347261)
(-4.71602e-05 5.76523e-07 -0.000691469)
(-0.000590736 0.000289555 -0.00464137)
(-6.22013e-05 -7.61748e-06 -0.000265696)
(-0.000366819 0.00027797 -0.00340589)
(6.469e-05 -0.000132248 -0.00173764)
(0.000364139 -0.000168692 -0.00389855)
(0.000102241 -2.556e-05 -0.00150475)
(4.58241e-05 2.72652e-05 -0.00423723)
(2.65576e-05 2.90905e-05 -0.00135695)
(-0.000199882 0.000569213 -0.00311938)
(7.04268e-07 7.7669e-06 -0.000414859)
(-0.000140518 0.000283079 -0.00281851)
(-0.000231797 0.000310424 -0.00245104)
(-0.000256639 0.000316012 -0.00219673)
(-0.000206525 0.00034071 -0.00371733)
(-9.38753e-05 -2.78221e-05 -0.00188344)
(-0.000246904 -5.04639e-05 -0.00298109)
(-0.000376649 -9.22022e-05 -0.00256173)
(-8.89677e-05 -7.18432e-05 -0.00183375)
(6.51511e-06 -5.47258e-05 -0.00174755)
(2.8375e-05 -3.64243e-05 -0.00139978)
(7.08203e-05 -2.11131e-05 -0.00125654)
(9.64124e-05 -1.5675e-05 -0.00115523)
(0.000106328 -1.44155e-05 -0.0011337)
(0.000106028 -1.37572e-05 -0.00112696)
(0.000100282 -1.27867e-05 -0.0011166)
(9.23102e-05 -1.1534e-05 -0.0011047)
(8.38658e-05 -1.0177e-05 -0.00109368)
(7.5752e-05 -8.85308e-06 -0.00108394)
(6.82661e-05 -7.63865e-06 -0.00107528)
(6.14737e-05 -6.56256e-06 -0.00106754)
(5.53498e-05 -5.62579e-06 -0.00106061)
(4.98403e-05 -4.81679e-06 -0.0010544)
(4.48864e-05 -4.12041e-06 -0.00104886)
(4.04321e-05 -3.52177e-06 -0.00104389)
(3.64262e-05 -3.00747e-06 -0.00103944)
(3.28229e-05 -2.56581e-06 -0.00103545)
(2.95809e-05 -2.1867e-06 -0.00103187)
(2.66635e-05 -1.86145e-06 -0.00102867)
(2.40375e-05 -1.58262e-06 -0.00102579)
(2.16735e-05 -1.34386e-06 -0.0010232)
(1.95449e-05 -1.13974e-06 -0.00102088)
(1.7628e-05 -9.65651e-07 -0.00101879)
(1.59016e-05 -8.17518e-07 -0.00101691)
(1.43464e-05 -6.91567e-07 -0.00101522)
(1.29452e-05 -5.84554e-07 -0.00101371)
(1.16824e-05 -4.93698e-07 -0.00101234)
(1.05441e-05 -4.16621e-07 -0.00101112)
(9.51796e-06 -3.51283e-07 -0.00101002)
(8.5927e-06 -2.95945e-07 -0.00100903)
(7.75826e-06 -2.49117e-07 -0.00100814)
(7.00562e-06 -2.09531e-07 -0.00100734)
(6.32666e-06 -1.76105e-07 -0.00100662)
(5.71408e-06 -1.47917e-07 -0.00100597)
(5.16133e-06 -1.24184e-07 -0.00100538)
(4.6625e-06 -1.04221e-07 -0.00100486)
(4.21227e-06 -8.74016e-08 -0.00100438)
(3.80583e-06 -7.3213e-08 -0.00100396)
(3.43888e-06 -6.12312e-08 -0.00100357)
(3.10755e-06 -5.11052e-08 -0.00100322)
(2.80836e-06 -4.25431e-08 -0.00100291)
(2.53815e-06 -3.53016e-08 -0.00100263)
(2.2941e-06 -2.91779e-08 -0.00100238)
(2.07365e-06 -2.40022e-08 -0.00100215)
(1.87452e-06 -1.96321e-08 -0.00100194)
(1.69463e-06 -1.59475e-08 -0.00100175)
(1.53211e-06 -1.28472e-08 -0.00100158)
(1.38528e-06 -1.02453e-08 -0.00100143)
(1.25262e-06 -8.06854e-09 -0.00100129)
(1.13277e-06 -6.25438e-09 -0.00100117)
(1.02448e-06 -4.74909e-09 -0.00100105)
(9.26654e-07 -3.50612e-09 -0.00100095)
(8.38278e-07 -2.48497e-09 -0.00100086)
(7.58448e-07 -1.65036e-09 -0.00100078)
(6.86345e-07 -9.71441e-10 -0.0010007)
(6.21231e-07 -4.21202e-10 -0.00100063)
(5.62439e-07 2.39915e-11 -0.00100057)
(5.09369e-07 3.84729e-10 -0.00100052)
(4.61477e-07 6.78892e-10 -0.00100047)
(4.18275e-07 9.22033e-10 -0.00100042)
(3.79321e-07 1.12765e-09 -0.00100038)
(3.44217e-07 1.30741e-09 -0.00100034)
(3.12606e-07 1.47136e-09 -0.00100031)
(2.84164e-07 1.62808e-09 -0.00100028)
(2.58601e-07 1.78499e-09 -0.00100025)
(2.35656e-07 1.9485e-09 -0.00100022)
(2.15095e-07 2.12412e-09 -0.0010002)
(1.96709e-07 2.31651e-09 -0.00100018)
(1.80309e-07 2.52904e-09 -0.00100016)
(1.65733e-07 2.76295e-09 -0.00100014)
(1.52842e-07 3.01577e-09 -0.00100013)
(1.4153e-07 3.27932e-09 -0.00100011)
(1.31749e-07 3.5383e-09 -0.0010001)
(1.23563e-07 3.78446e-09 -0.00100009)
(1.17352e-07 3.96548e-09 -0.00100007)
(1.14011e-07 3.99367e-09 -0.00100006)
)
;

boundaryField
{
    inlet
    {
        type            calculated;
        value           uniform (1.14011e-07 3.99367e-09 -0.00100006);
    }
    outlet
    {
        type            calculated;
        value           uniform (6.76991e-10 -1.15338e-08 -0.000999947);
    }
    repeat_boundary
    {
        type            calculated;
        value           nonuniform List<vector> 
360
(
(6.76991e-10 0 -0.000999947)
(7.45162e-10 0 -0.000999945)
(8.31685e-10 0 -0.000999944)
(9.58113e-10 0 -0.000999941)
(1.13282e-09 0 -0.000999938)
(1.35058e-09 0 -0.000999935)
(1.60348e-09 0 -0.00099993)
(1.88633e-09 0 -0.000999925)
(2.19806e-09 0 -0.000999919)
(2.54074e-09 0 -0.000999911)
(2.91836e-09 0 -0.000999903)
(3.33607e-09 0 -0.000999894)
(3.79991e-09 0 -0.000999884)
(4.31666e-09 0 -0.000999872)
(4.89389e-09 0 -0.000999859)
(5.54004e-09 0 -0.000999844)
(6.26447e-09 0 -0.000999827)
(7.07758e-09 0 -0.000999809)
(7.99093e-09 0 -0.000999789)
(9.01737e-09 0 -0.000999766)
(1.01712e-08 0 -0.000999741)
(1.14682e-08 0 -0.000999714)
(1.2926e-08 0 -0.000999683)
(1.45644e-08 0 -0.00099965)
(1.64053e-08 0 -0.000999612)
(1.8473e-08 0 -0.000999571)
(2.07948e-08 0 -0.000999525)
(2.34011e-08 0 -0.000999475)
(2.6326e-08 0 -0.000999419)
(2.96075e-08 0 -0.000999358)
(3.32884e-08 0 -0.00099929)
(3.7416e-08 0 -0.000999215)
(4.20432e-08 0 -0.000999132)
(4.72281e-08 0 -0.00099904)
(5.30353e-08 0 -0.000998939)
(5.95354e-08 0 -0.000998828)
(6.68063e-08 0 -0.000998705)
(7.49332e-08 0 -0.000998569)
(8.40093e-08 0 -0.000998419)
(9.41368e-08 0 -0.000998254)
(1.05427e-07 0 -0.000998072)
(1.18e-07 0 -0.000997871)
(1.31988e-07 0 -0.000997649)
(1.47532e-07 0 -0.000997405)
(1.64784e-07 0 -0.000997136)
(1.83908e-07 0 -0.00099684)
(2.05077e-07 0 -0.000996514)
(2.28477e-07 0 -0.000996154)
(2.54299e-07 0 -0.000995759)
(2.82746e-07 0 -0.000995324)
(3.14025e-07 0 -0.000994846)
(3.48345e-07 0 -0.000994319)
(3.85915e-07 0 -0.000993741)
(4.26932e-07 0 -0.000993106)
(4.71584e-07 0 -0.000992409)
(5.20031e-07 0 -0.000991643)
(5.72403e-07 0 -0.000990804)
(6.28778e-07 0 -0.000989883)
(6.89169e-07 0 -0.000988874)
(7.53503e-07 0 -0.00098777)
(8.21593e-07 0 -0.000986561)
(8.9311e-07 0 -0.000985238)
(9.67547e-07 0 -0.000983793)
(1.04417e-06 0 -0.000982214)
(1.122e-06 0 -0.00098049)
(1.19968e-06 0 -0.00097861)
(1.27549e-06 0 -0.000976559)
(1.34711e-06 0 -0.000974324)
(1.41134e-06 0 -0.000971889)
(1.46319e-06 0 -0.000969238)
(1.49379e-06 0 -0.000966356)
(1.48586e-06 0 -0.000963221)
(1.4034e-06 0 -0.000959759)
(1.17436e-06 0 -0.000955857)
(6.69588e-07 0 -0.000951761)
(-3.04937e-07 0 -0.000949092)
(-2.00498e-06 0 -0.000949588)
(-4.74785e-06 0 -0.000941582)
(-9.03913e-06 0 -0.000892119)
(-1.49156e-05 0 -0.000689388)
(-1.43115e-05 0 -0.00273099)
(-9.51765e-06 0 -7.83733e-07)
(0.000140842 0 -0.00279195)
(4.45584e-05 0 -0.00347261)
(-4.71602e-05 0 -0.000691469)
(-0.000590736 0 -0.00464137)
(-6.22013e-05 0 -0.000265696)
(-0.000366819 0 -0.00340589)
(6.469e-05 0 -0.00173764)
(0.000364139 0 -0.00389855)
(0.000102241 0 -0.00150475)
(4.58241e-05 0 -0.00423723)
(2.65576e-05 0 -0.00135695)
(-0.000199882 0 -0.00311938)
(7.04268e-07 0 -0.000414859)
(-0.000140518 0 -0.00281851)
(-0.000231797 0 -0.00245104)
(-0.000256639 0 -0.00219673)
(-0.000206525 0 -0.00371733)
(-9.38753e-05 0 -0.00188344)
(-0.000246904 0 -0.00298109)
(-0.000376649 0 -0.00256173)
(-8.89677e-05 0 -0.00183375)
(6.51511e-06 0 -0.00174755)
(2.8375e-05 0 -0.00139978)
(7.08203e-05 0 -0.00125654)
(9.64124e-05 0 -0.00115523)
(0.000106328 0 -0.0011337)
(0.000106028 0 -0.00112696)
(0.000100282 0 -0.0011166)
(9.23102e-05 0 -0.0011047)
(8.38658e-05 0 -0.00109368)
(7.5752e-05 0 -0.00108394)
(6.82661e-05 0 -0.00107528)
(6.14737e-05 0 -0.00106754)
(5.53498e-05 0 -0.00106061)
(4.98403e-05 0 -0.0010544)
(4.48864e-05 0 -0.00104886)
(4.04321e-05 0 -0.00104389)
(3.64262e-05 0 -0.00103944)
(3.28229e-05 0 -0.00103545)
(2.95809e-05 0 -0.00103187)
(2.66635e-05 0 -0.00102867)
(2.40375e-05 0 -0.00102579)
(2.16735e-05 0 -0.0010232)
(1.95449e-05 0 -0.00102088)
(1.7628e-05 0 -0.00101879)
(1.59016e-05 0 -0.00101691)
(1.43464e-05 0 -0.00101522)
(1.29452e-05 0 -0.00101371)
(1.16824e-05 0 -0.00101234)
(1.05441e-05 0 -0.00101112)
(9.51796e-06 0 -0.00101002)
(8.5927e-06 0 -0.00100903)
(7.75826e-06 0 -0.00100814)
(7.00562e-06 0 -0.00100734)
(6.32666e-06 0 -0.00100662)
(5.71408e-06 0 -0.00100597)
(5.16133e-06 0 -0.00100538)
(4.6625e-06 0 -0.00100486)
(4.21227e-06 0 -0.00100438)
(3.80583e-06 0 -0.00100396)
(3.43888e-06 0 -0.00100357)
(3.10755e-06 0 -0.00100322)
(2.80836e-06 0 -0.00100291)
(2.53815e-06 0 -0.00100263)
(2.2941e-06 0 -0.00100238)
(2.07365e-06 0 -0.00100215)
(1.87452e-06 0 -0.00100194)
(1.69463e-06 0 -0.00100175)
(1.53211e-06 0 -0.00100158)
(1.38528e-06 0 -0.00100143)
(1.25262e-06 0 -0.00100129)
(1.13277e-06 0 -0.00100117)
(1.02448e-06 0 -0.00100105)
(9.26654e-07 0 -0.00100095)
(8.38278e-07 0 -0.00100086)
(7.58448e-07 0 -0.00100078)
(6.86345e-07 0 -0.0010007)
(6.21231e-07 0 -0.00100063)
(5.62439e-07 0 -0.00100057)
(5.09369e-07 0 -0.00100052)
(4.61477e-07 0 -0.00100047)
(4.18275e-07 0 -0.00100042)
(3.79321e-07 0 -0.00100038)
(3.44217e-07 0 -0.00100034)
(3.12606e-07 0 -0.00100031)
(2.84164e-07 0 -0.00100028)
(2.58601e-07 0 -0.00100025)
(2.35656e-07 0 -0.00100022)
(2.15095e-07 0 -0.0010002)
(1.96709e-07 0 -0.00100018)
(1.80309e-07 0 -0.00100016)
(1.65733e-07 0 -0.00100014)
(1.52842e-07 0 -0.00100013)
(1.4153e-07 0 -0.00100011)
(1.31749e-07 0 -0.0010001)
(1.23563e-07 0 -0.00100009)
(1.17352e-07 0 -0.00100007)
(1.14011e-07 0 -0.00100006)
(0 -1.15338e-08 -0.000999947)
(0 -1.40862e-08 -0.000999945)
(0 -1.8489e-08 -0.000999944)
(0 -2.4112e-08 -0.000999941)
(0 -3.05296e-08 -0.000999938)
(0 -3.75167e-08 -0.000999935)
(0 -4.4992e-08 -0.00099993)
(0 -5.29597e-08 -0.000999925)
(0 -6.14702e-08 -0.000999919)
(0 -7.0597e-08 -0.000999911)
(0 -8.04272e-08 -0.000999903)
(0 -9.10571e-08 -0.000999894)
(0 -1.02592e-07 -0.000999884)
(0 -1.15145e-07 -0.000999872)
(0 -1.28842e-07 -0.000999859)
(0 -1.43818e-07 -0.000999844)
(0 -1.60221e-07 -0.000999827)
(0 -1.78214e-07 -0.000999809)
(0 -1.97973e-07 -0.000999789)
(0 -2.19694e-07 -0.000999766)
(0 -2.43591e-07 -0.000999741)
(0 -2.699e-07 -0.000999714)
(0 -2.98878e-07 -0.000999683)
(0 -3.30811e-07 -0.00099965)
(0 -3.66012e-07 -0.000999612)
(0 -4.04826e-07 -0.000999571)
(0 -4.47634e-07 -0.000999525)
(0 -4.94852e-07 -0.000999475)
(0 -5.46944e-07 -0.000999419)
(0 -6.04416e-07 -0.000999358)
(0 -6.67829e-07 -0.00099929)
(0 -7.37801e-07 -0.000999215)
(0 -8.15012e-07 -0.000999132)
(0 -9.00212e-07 -0.00099904)
(0 -9.94228e-07 -0.000998939)
(0 -1.09797e-06 -0.000998828)
(0 -1.21244e-06 -0.000998705)
(0 -1.33874e-06 -0.000998569)
(0 -1.4781e-06 -0.000998419)
(0 -1.63184e-06 -0.000998254)
(0 -1.80145e-06 -0.000998072)
(0 -1.98855e-06 -0.000997871)
(0 -2.19492e-06 -0.000997649)
(0 -2.42254e-06 -0.000997405)
(0 -2.67355e-06 -0.000997136)
(0 -2.95034e-06 -0.00099684)
(0 -3.25551e-06 -0.000996514)
(0 -3.59194e-06 -0.000996154)
(0 -3.96277e-06 -0.000995759)
(0 -4.37147e-06 -0.000995324)
(0 -4.82183e-06 -0.000994846)
(0 -5.31801e-06 -0.000994319)
(0 -5.86454e-06 -0.000993741)
(0 -6.46643e-06 -0.000993106)
(0 -7.12913e-06 -0.000992409)
(0 -7.85861e-06 -0.000991643)
(0 -8.66139e-06 -0.000990804)
(0 -9.54459e-06 -0.000989883)
(0 -1.0516e-05 -0.000988874)
(0 -1.15841e-05 -0.00098777)
(0 -1.27582e-05 -0.000986561)
(0 -1.40482e-05 -0.000985238)
(0 -1.54653e-05 -0.000983793)
(0 -1.70212e-05 -0.000982214)
(0 -1.87291e-05 -0.00098049)
(0 -2.06029e-05 -0.00097861)
(0 -2.26581e-05 -0.000976559)
(0 -2.4911e-05 -0.000974324)
(0 -2.73792e-05 -0.000971889)
(0 -3.00795e-05 -0.000969238)
(0 -3.30244e-05 -0.000966356)
(0 -3.62104e-05 -0.000963221)
(0 -3.95871e-05 -0.000959759)
(0 -4.29914e-05 -0.000955857)
(0 -4.60179e-05 -0.000951761)
(0 -4.78207e-05 -0.000949092)
(0 -4.70004e-05 -0.000949588)
(0 -4.14357e-05 -0.000941582)
(0 -2.85094e-05 -0.000892119)
(0 -7.85965e-06 -0.000689388)
(0 2.72973e-05 -0.00273099)
(0 -1.60104e-05 -7.83733e-07)
(0 -0.000244952 -0.00279195)
(0 -7.98948e-05 -0.00347261)
(0 5.76523e-07 -0.000691469)
(0 0.000289555 -0.00464137)
(0 -7.61748e-06 -0.000265696)
(0 0.00027797 -0.00340589)
(0 -0.000132248 -0.00173764)
(0 -0.000168692 -0.00389855)
(0 -2.556e-05 -0.00150475)
(0 2.72652e-05 -0.00423723)
(0 2.90905e-05 -0.00135695)
(0 0.000569213 -0.00311938)
(0 7.7669e-06 -0.000414859)
(0 0.000283079 -0.00281851)
(0 0.000310424 -0.00245104)
(0 0.000316012 -0.00219673)
(0 0.00034071 -0.00371733)
(0 -2.78221e-05 -0.00188344)
(0 -5.04639e-05 -0.00298109)
(0 -9.22022e-05 -0.00256173)
(0 -7.18432e-05 -0.00183375)
(0 -5.47258e-05 -0.00174755)
(0 -3.64243e-05 -0.00139978)
(0 -2.11131e-05 -0.00125654)
(0 -1.5675e-05 -0.00115523)
(0 -1.44155e-05 -0.0011337)
(0 -1.37572e-05 -0.00112696)
(0 -1.27867e-05 -0.0011166)
(0 -1.1534e-05 -0.0011047)
(0 -1.0177e-05 -0.00109368)
(0 -8.85308e-06 -0.00108394)
(0 -7.63865e-06 -0.00107528)
(0 -6.56256e-06 -0.00106754)
(0 -5.62579e-06 -0.00106061)
(0 -4.81679e-06 -0.0010544)
(0 -4.12041e-06 -0.00104886)
(0 -3.52177e-06 -0.00104389)
(0 -3.00747e-06 -0.00103944)
(0 -2.56581e-06 -0.00103545)
(0 -2.1867e-06 -0.00103187)
(0 -1.86145e-06 -0.00102867)
(0 -1.58262e-06 -0.00102579)
(0 -1.34386e-06 -0.0010232)
(0 -1.13974e-06 -0.00102088)
(0 -9.65651e-07 -0.00101879)
(0 -8.17518e-07 -0.00101691)
(0 -6.91567e-07 -0.00101522)
(0 -5.84554e-07 -0.00101371)
(0 -4.93698e-07 -0.00101234)
(0 -4.16621e-07 -0.00101112)
(0 -3.51283e-07 -0.00101002)
(0 -2.95945e-07 -0.00100903)
(0 -2.49117e-07 -0.00100814)
(0 -2.09531e-07 -0.00100734)
(0 -1.76105e-07 -0.00100662)
(0 -1.47917e-07 -0.00100597)
(0 -1.24184e-07 -0.00100538)
(0 -1.04221e-07 -0.00100486)
(0 -8.74016e-08 -0.00100438)
(0 -7.3213e-08 -0.00100396)
(0 -6.12312e-08 -0.00100357)
(0 -5.11052e-08 -0.00100322)
(0 -4.25431e-08 -0.00100291)
(0 -3.53016e-08 -0.00100263)
(0 -2.91779e-08 -0.00100238)
(0 -2.40022e-08 -0.00100215)
(0 -1.96321e-08 -0.00100194)
(0 -1.59475e-08 -0.00100175)
(0 -1.28472e-08 -0.00100158)
(0 -1.02453e-08 -0.00100143)
(0 -8.06854e-09 -0.00100129)
(0 -6.25438e-09 -0.00100117)
(0 -4.74909e-09 -0.00100105)
(0 -3.50612e-09 -0.00100095)
(0 -2.48497e-09 -0.00100086)
(0 -1.65036e-09 -0.00100078)
(0 -9.71441e-10 -0.0010007)
(0 -4.21202e-10 -0.00100063)
(0 2.39915e-11 -0.00100057)
(0 3.84729e-10 -0.00100052)
(0 6.78892e-10 -0.00100047)
(0 9.22033e-10 -0.00100042)
(0 1.12765e-09 -0.00100038)
(0 1.30741e-09 -0.00100034)
(0 1.47136e-09 -0.00100031)
(0 1.62808e-09 -0.00100028)
(0 1.78499e-09 -0.00100025)
(0 1.9485e-09 -0.00100022)
(0 2.12412e-09 -0.0010002)
(0 2.31651e-09 -0.00100018)
(0 2.52904e-09 -0.00100016)
(0 2.76295e-09 -0.00100014)
(0 3.01577e-09 -0.00100013)
(0 3.27932e-09 -0.00100011)
(0 3.5383e-09 -0.0010001)
(0 3.78446e-09 -0.00100009)
(0 3.96548e-09 -0.00100007)
(0 3.99367e-09 -0.00100006)
)
;
    }
    procBoundary1to0
    {
        type            processor;
        value           nonuniform List<vector> 
180
(
(6.76994e-10 -1.14502e-08 -0.000999951)
(7.45166e-10 -1.39561e-08 -0.00099995)
(8.31689e-10 -1.8293e-08 -0.000999948)
(9.58117e-10 -2.38377e-08 -0.000999946)
(1.13283e-09 -3.01712e-08 -0.000999944)
(1.35058e-09 -3.70697e-08 -0.00099994)
(1.60349e-09 -4.44503e-08 -0.000999936)
(1.88633e-09 -5.23157e-08 -0.000999931)
(2.19806e-09 -6.07142e-08 -0.000999926)
(2.54075e-09 -6.97173e-08 -0.000999919)
(2.91836e-09 -7.94096e-08 -0.000999912)
(3.33608e-09 -8.98845e-08 -0.000999904)
(3.79992e-09 -1.01244e-07 -0.000999894)
(4.31667e-09 -1.13599e-07 -0.000999884)
(4.8939e-09 -1.2707e-07 -0.000999872)
(5.54005e-09 -1.41788e-07 -0.000999859)
(6.26448e-09 -1.57895e-07 -0.000999844)
(7.07759e-09 -1.75549e-07 -0.000999828)
(7.99095e-09 -1.9492e-07 -0.00099981)
(9.0174e-09 -2.16197e-07 -0.00099979)
(1.01712e-08 -2.39584e-07 -0.000999768)
(1.14682e-08 -2.6531e-07 -0.000999743)
(1.29261e-08 -2.93621e-07 -0.000999716)
(1.45645e-08 -3.24793e-07 -0.000999687)
(1.64054e-08 -3.59126e-07 -0.000999654)
(1.84731e-08 -3.9695e-07 -0.000999618)
(2.07949e-08 -4.38631e-07 -0.000999578)
(2.34012e-08 -4.8457e-07 -0.000999534)
(2.63261e-08 -5.35208e-07 -0.000999485)
(2.96077e-08 -5.91032e-07 -0.000999432)
(3.32886e-08 -6.52578e-07 -0.000999372)
(3.74163e-08 -7.20434e-07 -0.000999307)
(4.20435e-08 -7.9525e-07 -0.000999236)
(4.72285e-08 -8.7774e-07 -0.000999157)
(5.30358e-08 -9.68692e-07 -0.00099907)
(5.9536e-08 -1.06897e-06 -0.000998973)
(6.68071e-08 -1.17953e-06 -0.000998868)
(7.49341e-08 -1.30143e-06 -0.000998751)
(8.40105e-08 -1.43581e-06 -0.000998622)
(9.41383e-08 -1.58395e-06 -0.000998481)
(1.05429e-07 -1.74727e-06 -0.000998324)
(1.18002e-07 -1.9273e-06 -0.000998152)
(1.31991e-07 -2.12574e-06 -0.000997962)
(1.47535e-07 -2.34448e-06 -0.000997753)
(1.64788e-07 -2.58557e-06 -0.000997522)
(1.83913e-07 -2.85129e-06 -0.000997267)
(2.05084e-07 -3.14416e-06 -0.000996987)
(2.28485e-07 -3.46693e-06 -0.000996678)
(2.54309e-07 -3.82264e-06 -0.000996337)
(2.82759e-07 -4.21465e-06 -0.00099596)
(3.14041e-07 -4.64666e-06 -0.000995546)
(3.48366e-07 -5.12276e-06 -0.000995088)
(3.8594e-07 -5.64744e-06 -0.000994583)
(4.26964e-07 -6.22569e-06 -0.000994025)
(4.71624e-07 -6.86299e-06 -0.00099341)
(5.20082e-07 -7.5654e-06 -0.000992731)
(5.72467e-07 -8.33962e-06 -0.00099198)
(6.28858e-07 -9.19305e-06 -0.000991151)
(6.89271e-07 -1.01339e-05 -0.000990235)
(7.53633e-07 -1.11711e-05 -0.000989222)
(8.21759e-07 -1.23148e-05 -0.000988101)
(8.93321e-07 -1.3576e-05 -0.00098686)
(9.67817e-07 -1.4967e-05 -0.000985487)
(1.04452e-06 -1.65014e-05 -0.000983965)
(1.12244e-06 -1.81943e-05 -0.000982279)
(1.20027e-06 -2.00624e-05 -0.00098041)
(1.27628e-06 -2.21241e-05 -0.000978335)
(1.34828e-06 -2.44e-05 -0.000976032)
(1.41342e-06 -2.69121e-05 -0.000973473)
(1.46777e-06 -2.96837e-05 -0.000970626)
(1.50564e-06 -3.27357e-05 -0.000967463)
(1.51829e-06 -3.60762e-05 -0.000963945)
(1.4904e-06 -3.96763e-05 -0.000959978)
(1.3938e-06 -4.34168e-05 -0.00095544)
(1.17757e-06 -4.69936e-05 -0.000950622)
(7.50382e-07 -4.97638e-05 -0.000947197)
(-3.71002e-08 -5.07802e-05 -0.000946255)
(-1.49518e-06 -4.89149e-05 -0.000932948)
(-4.38597e-06 -4.32747e-05 -0.000873729)
(-9.50563e-06 -3.24355e-05 -0.000717605)
(-9.51376e-06 -3.49981e-06 -0.00300135)
(-1.48113e-06 -8.12678e-06 2.24398e-05)
(0.000129928 1.89284e-05 -0.00361421)
(6.90778e-07 -1.27437e-05 -5.33806e-05)
(-0.000473497 -0.000260279 -0.00295026)
(-0.000548031 -0.000280208 -0.00267081)
(-5.75836e-05 -4.28154e-05 -0.000507628)
(-0.000149882 -0.000151507 -0.00515584)
(-4.1793e-06 -1.97532e-06 -0.000228766)
(0.000315888 0.000349463 -0.0045787)
(0.000229842 0.000485144 -0.0018009)
(5.70465e-05 0.000959958 -0.00334354)
(2.8535e-05 0.000165956 -0.000435012)
(-0.000249519 0.00145354 -0.00328129)
(-0.000157119 0.000238658 -0.00306993)
(-8.72986e-05 -5.64716e-05 -0.00113911)
(-0.000449183 -0.00103778 -0.00375644)
(-7.21206e-05 -0.000138503 -0.00076548)
(-0.000159574 -0.000404783 -0.00375675)
(-9.75466e-05 -0.000167441 -0.00172916)
(-0.00022218 -0.000179712 -0.00290609)
(-0.000116528 -6.84418e-05 -0.00238189)
(-1.63729e-05 -1.07849e-05 -0.00157069)
(9.94231e-07 1.55468e-05 -0.00170676)
(5.1688e-07 -2.13267e-05 -0.000781783)
(5.49753e-05 -3.32971e-06 -0.000938655)
(8.77069e-05 1.0321e-05 -0.000851366)
(0.000101841 1.48458e-05 -0.000854691)
(0.000103905 1.50688e-05 -0.000872505)
(9.94456e-05 1.38586e-05 -0.000886921)
(9.20864e-05 1.23032e-05 -0.000898212)
(8.38867e-05 1.07758e-05 -0.000908229)
(7.58479e-05 9.39267e-06 -0.000917413)
(6.83712e-05 8.17597e-06 -0.00092574)
(6.15672e-05 7.11506e-06 -0.000933226)
(5.54276e-05 6.19142e-06 -0.000939946)
(4.99037e-05 5.38715e-06 -0.000945981)
(4.49377e-05 4.68682e-06 -0.000951402)
(4.04734e-05 4.07715e-06 -0.000956272)
(3.64596e-05 3.54661e-06 -0.000960647)
(3.28498e-05 3.08512e-06 -0.000964578)
(2.96027e-05 2.68383e-06 -0.000968111)
(2.66811e-05 2.33496e-06 -0.000971286)
(2.40517e-05 2.03171e-06 -0.00097414)
(2.16849e-05 1.76816e-06 -0.000976706)
(1.95541e-05 1.5391e-06 -0.000979014)
(1.76355e-05 1.34001e-06 -0.000981089)
(1.59077e-05 1.16695e-06 -0.000982956)
(1.43513e-05 1.01651e-06 -0.000984637)
(1.29491e-05 8.85703e-07 -0.000986149)
(1.16856e-05 7.71953e-07 -0.000987511)
(1.05467e-05 6.73015e-07 -0.000988737)
(9.52008e-06 5.86942e-07 -0.000989841)
(8.59441e-06 5.12042e-07 -0.000990835)
(7.75965e-06 4.46848e-07 -0.000991731)
(7.00675e-06 3.90082e-07 -0.000992539)
(6.32758e-06 3.40638e-07 -0.000993267)
(5.71483e-06 2.97559e-07 -0.000993923)
(5.16193e-06 2.60024e-07 -0.000994515)
(4.66299e-06 2.27324e-07 -0.000995049)
(4.21266e-06 1.98841e-07 -0.000995531)
(3.80615e-06 1.74036e-07 -0.000995965)
(3.43914e-06 1.52439e-07 -0.000996357)
(3.10777e-06 1.33636e-07 -0.000996711)
(2.80853e-06 1.17264e-07 -0.00099703)
(2.53829e-06 1.03003e-07 -0.000997318)
(2.29421e-06 9.05737e-08 -0.000997578)
(2.07375e-06 7.97326e-08 -0.000997813)
(1.8746e-06 7.02667e-08 -0.000998025)
(1.69469e-06 6.1991e-08 -0.000998216)
(1.53216e-06 5.47459e-08 -0.000998388)
(1.38532e-06 4.83936e-08 -0.000998544)
(1.25265e-06 4.28155e-08 -0.000998685)
(1.13279e-06 3.79101e-08 -0.000998812)
(1.0245e-06 3.35902e-08 -0.000998927)
(9.26671e-07 2.97814e-08 -0.000999031)
(8.38292e-07 2.642e-08 -0.000999124)
(7.5846e-07 2.34513e-08 -0.000999209)
(6.86354e-07 2.08285e-08 -0.000999286)
(6.21238e-07 1.85112e-08 -0.000999355)
(5.62445e-07 1.64649e-08 -0.000999418)
(5.09374e-07 1.46594e-08 -0.000999475)
(4.61481e-07 1.30691e-08 -0.000999527)
(4.18278e-07 1.16714e-08 -0.000999573)
(3.79323e-07 1.0447e-08 -0.000999616)
(3.44219e-07 9.37916e-09 -0.000999654)
(3.12607e-07 8.45339e-09 -0.000999689)
(2.84165e-07 7.65713e-09 -0.000999721)
(2.58602e-07 6.97953e-09 -0.00099975)
(2.35657e-07 6.41124e-09 -0.000999776)
(2.15096e-07 5.94435e-09 -0.0009998)
(1.96709e-07 5.57228e-09 -0.000999822)
(1.8031e-07 5.28975e-09 -0.000999842)
(1.65734e-07 5.0925e-09 -0.00099986)
(1.52842e-07 4.97633e-09 -0.000999877)
(1.4153e-07 4.93402e-09 -0.000999893)
(1.31749e-07 4.94884e-09 -0.000999907)
(1.23563e-07 4.97281e-09 -0.000999921)
(1.17352e-07 4.98451e-09 -0.000999935)
(1.14011e-07 5.02586e-09 -0.000999946)
)
;
    }
    procBoundary1to3
    {
        type            processor;
        value           nonuniform List<vector> 
180
(
(5.93356e-10 -1.15339e-08 -0.00100008)
(6.15147e-10 -1.40862e-08 -0.00100008)
(6.35651e-10 -1.84891e-08 -0.00100008)
(6.83871e-10 -2.41121e-08 -0.00100008)
(7.74391e-10 -3.05297e-08 -0.00100008)
(9.03568e-10 -3.75169e-08 -0.00100009)
(1.06185e-09 -4.49921e-08 -0.00100009)
(1.24236e-09 -5.29599e-08 -0.0010001)
(1.4421e-09 -6.14703e-08 -0.0010001)
(1.66102e-09 -7.05972e-08 -0.00100011)
(1.90069e-09 -8.04275e-08 -0.00100011)
(2.16354e-09 -9.10573e-08 -0.00100012)
(2.45246e-09 -1.02592e-07 -0.00100013)
(2.77069e-09 -1.15146e-07 -0.00100014)
(3.12176e-09 -1.28843e-07 -0.00100016)
(3.50957e-09 -1.43819e-07 -0.00100017)
(3.93836e-09 -1.60222e-07 -0.00100018)
(4.41282e-09 -1.78215e-07 -0.0010002)
(4.93807e-09 -1.97974e-07 -0.00100022)
(5.51978e-09 -2.19695e-07 -0.00100024)
(6.16418e-09 -2.43593e-07 -0.00100026)
(6.8782e-09 -2.69901e-07 -0.00100029)
(7.66947e-09 -2.9888e-07 -0.00100031)
(8.5465e-09 -3.30814e-07 -0.00100035)
(9.51872e-09 -3.66016e-07 -0.00100038)
(1.05967e-08 -4.04831e-07 -0.00100042)
(1.17922e-08 -4.47639e-07 -0.00100046)
(1.31185e-08 -4.94859e-07 -0.0010005)
(1.45902e-08 -5.46951e-07 -0.00100056)
(1.62235e-08 -6.04425e-07 -0.00100061)
(1.80364e-08 -6.67841e-07 -0.00100067)
(2.00483e-08 -7.37816e-07 -0.00100074)
(2.22803e-08 -8.1503e-07 -0.00100082)
(2.47556e-08 -9.00234e-07 -0.0010009)
(2.74987e-08 -9.94254e-07 -0.00100099)
(3.05365e-08 -1.098e-06 -0.00100109)
(3.38977e-08 -1.21248e-06 -0.0010012)
(3.76135e-08 -1.33879e-06 -0.00100133)
(4.17177e-08 -1.47816e-06 -0.00100146)
(4.62467e-08 -1.63192e-06 -0.00100161)
(5.12403e-08 -1.80154e-06 -0.00100178)
(5.67418e-08 -1.98866e-06 -0.00100196)
(6.27989e-08 -2.19506e-06 -0.00100216)
(6.94642e-08 -2.4227e-06 -0.00100238)
(7.67953e-08 -2.67375e-06 -0.00100262)
(8.48555e-08 -2.95058e-06 -0.00100289)
(9.37144e-08 -3.25581e-06 -0.00100319)
(1.03449e-07 -3.59231e-06 -0.00100351)
(1.14144e-07 -3.96323e-06 -0.00100387)
(1.25895e-07 -4.37204e-06 -0.00100427)
(1.38816e-07 -4.82253e-06 -0.0010047)
(1.53049e-07 -5.31886e-06 -0.00100518)
(1.68752e-07 -5.86559e-06 -0.00100571)
(1.8611e-07 -6.46772e-06 -0.00100628)
(2.05341e-07 -7.13072e-06 -0.00100692)
(2.26698e-07 -7.86055e-06 -0.00100762)
(2.50477e-07 -8.66378e-06 -0.00100839)
(2.77028e-07 -9.54754e-06 -0.00100924)
(3.0676e-07 -1.05196e-05 -0.00101017)
(3.40159e-07 -1.15886e-05 -0.00101118)
(3.77798e-07 -1.27636e-05 -0.0010123)
(4.20351e-07 -1.4055e-05 -0.00101353)
(4.68605e-07 -1.54736e-05 -0.00101488)
(5.23492e-07 -1.70314e-05 -0.00101636)
(5.86096e-07 -1.87417e-05 -0.00101798)
(6.57675e-07 -2.06185e-05 -0.00101976)
(7.39696e-07 -2.26773e-05 -0.00102171)
(8.33727e-07 -2.49349e-05 -0.00102385)
(9.41344e-07 -2.74092e-05 -0.0010262)
(1.06372e-06 -3.01186e-05 -0.00102878)
(1.20041e-06 -3.30793e-05 -0.00103161)
(1.34661e-06 -3.62972e-05 -0.00103473)
(1.49037e-06 -3.97464e-05 -0.0010381)
(1.61327e-06 -4.33174e-05 -0.00104162)
(1.70962e-06 -4.67146e-05 -0.00104566)
(1.85614e-06 -4.92832e-05 -0.00105221)
(2.38274e-06 -4.97462e-05 -0.00106289)
(4.14007e-06 -4.61509e-05 -0.00106377)
(8.48379e-06 -3.55044e-05 -0.00102399)
(1.38404e-05 -1.70059e-05 -0.000668218)
(2.25164e-05 1.31596e-05 -0.0035044)
(1.42765e-05 -2.05529e-05 2.25619e-05)
(-0.000112172 -0.000238392 -0.00449232)
(4.24681e-06 -1.93754e-05 -2.23654e-05)
(0.000123457 0.000311123 -0.00531352)
(2.42614e-06 1.24847e-06 -0.000118253)
(0.000304475 0.000349011 -0.00537008)
(1.04088e-05 -1.8821e-06 -0.000272094)
(-0.000149652 -0.000168908 -0.00504061)
(-0.000129847 -0.000102455 -0.00134445)
(-0.000409814 2.33304e-05 -0.00543356)
(4.93884e-06 -2.15425e-05 2.31132e-05)
(-0.00138712 0.000948016 -0.00459034)
(-0.000141258 -2.22946e-06 -0.000446801)
(-0.000129725 0.000373204 -0.00484681)
(0.000147457 0.000169246 -0.00134802)
(0.000701756 0.000367734 -0.00350322)
(0.000584777 0.00030321 -0.00259716)
(0.000397133 0.000207018 -0.00531508)
(1.41087e-05 -9.22913e-06 -0.000832563)
(-0.000239539 -0.000122476 -0.0032926)
(-0.000255772 -9.47573e-05 -0.0012665)
(-0.000353392 -0.000154031 -0.00169733)
(-0.000151555 -9.02086e-05 -0.00121336)