/*--------------------------------*- C++ -*----------------------------------*\
| =========                 |                                                 |
| \\      /  F ield         | OpenFOAM: The Open Source CFD Toolbox           |
|  \\    /   O peration     | Version:  5.x                                   |
|   \\  /    A nd           | Web:      www.OpenFOAM.org                      |
|    \\/     M anipulation  |                                                 |
\*---------------------------------------------------------------------------*/
FoamFile
{
    version     2.0;
    format      ascii;
    class       volVectorField;
    location    "0.07";
    object      stored_U;
}
// * * * * * * * * * * * * * * * * * * * * * * * * * * * * * * * * * * * * * //

dimensions      [0 1 -1 0 0 0 0];

internalField   nonuniform List<vector> 
2250
(
(-3.90419e-11 -1.77985e-10 -0.000999999)
(-1.15229e-10 -1.7812e-10 -0.000999999)
(-1.69086e-10 -1.81147e-10 -0.000999999)
(-1.85959e-10 -1.87865e-10 -0.000999999)
(-1.69302e-10 -2.04699e-10 -0.001)
(-3.69595e-11 -1.6047e-10 -0.000999999)
(-1.10569e-10 -1.56579e-10 -0.000999999)
(-1.67451e-10 -1.52201e-10 -0.000999999)
(-1.97412e-10 -1.52687e-10 -0.001)
(-2.04183e-10 -1.62365e-10 -0.001)
(-3.47954e-11 -1.29371e-10 -0.000999999)
(-1.06583e-10 -1.26088e-10 -0.000999999)
(-1.6517e-10 -1.20719e-10 -0.001)
(-1.96094e-10 -1.14427e-10 -0.001)
(-2.0436e-10 -1.02104e-10 -0.001)
(-3.33763e-11 -8.51139e-11 -0.000999999)
(-1.01598e-10 -8.38005e-11 -0.001)
(-1.55756e-10 -7.6656e-11 -0.001)
(-1.78768e-10 -6.44832e-11 -0.001)
(-1.94494e-10 -4.34524e-11 -0.001)
(-3.3227e-11 -3.02843e-11 -0.000999999)
(-9.77219e-11 -3.02637e-11 -0.001)
(-1.45518e-10 -2.66818e-11 -0.001)
(-1.62512e-10 -2.03623e-11 -0.001)
(-1.85017e-10 -1.08193e-11 -0.001)
(-1.13026e-10 -5.01587e-10 -0.000999998)
(-3.31429e-10 -5.01107e-10 -0.000999999)
(-4.9077e-10 -5.03722e-10 -0.000999999)
(-5.76156e-10 -5.13862e-10 -0.000999999)
(-4.99983e-10 -5.40751e-10 -0.001)
(-1.06967e-10 -4.54813e-10 -0.000999999)
(-3.14709e-10 -4.45681e-10 -0.000999999)
(-4.74896e-10 -4.2826e-10 -0.000999999)
(-5.73107e-10 -4.15734e-10 -0.001)
(-5.78874e-10 -4.00175e-10 -0.001)
(-1.02943e-10 -3.68935e-10 -0.000999999)
(-3.03899e-10 -3.62748e-10 -0.000999999)
(-4.60764e-10 -3.44044e-10 -0.001)
(-5.48083e-10 -3.18256e-10 -0.001)
(-5.66047e-10 -2.70637e-10 -0.001)
(-1.00019e-10 -2.46293e-10 -0.000999999)
(-2.89018e-10 -2.42984e-10 -0.001)
(-4.30318e-10 -2.19855e-10 -0.001)
(-4.99641e-10 -1.86477e-10 -0.001)
(-5.40102e-10 -1.40621e-10 -0.001)
(-9.89717e-11 -8.8626e-11 -0.001)
(-2.76406e-10 -8.79099e-11 -0.001)
(-4.03385e-10 -7.67384e-11 -0.001)
(-4.67851e-10 -6.1856e-11 -0.001)
(-5.23316e-10 -4.59699e-11 -0.001)
(-1.97886e-10 -8.93944e-10 -0.000999998)
(-5.79204e-10 -8.93162e-10 -0.000999998)
(-8.7786e-10 -8.87415e-10 -0.000999999)
(-1.09893e-09 -8.82812e-10 -0.000999999)
(-9.58327e-10 -9.01171e-10 -0.001)
(-1.89658e-10 -8.20132e-10 -0.000999999)
(-5.49273e-10 -8.09867e-10 -0.000999999)
(-8.30623e-10 -7.72683e-10 -0.000999999)
(-1.02541e-09 -7.24055e-10 -0.001)
(-1.0316e-09 -6.31068e-10 -0.001)
(-1.85951e-10 -6.66595e-10 -0.000999999)
(-5.30078e-10 -6.58826e-10 -0.000999999)
(-7.91963e-10 -6.21321e-10 -0.001)
(-9.57316e-10 -5.68651e-10 -0.001)
(-9.93623e-10 -4.87431e-10 -0.001)
(-1.80594e-10 -4.45251e-10 -0.000999999)
(-5.02632e-10 -4.34804e-10 -0.001)
(-7.40304e-10 -3.95442e-10 -0.001)
(-8.91433e-10 -3.49116e-10 -0.001)
(-9.63191e-10 -3.01991e-10 -0.001)
(-1.74374e-10 -1.58986e-10 -0.000999999)
(-4.78442e-10 -1.53362e-10 -0.001)
(-7.04749e-10 -1.36074e-10 -0.001)
(-8.62003e-10 -1.1932e-10 -0.001)
(-9.52106e-10 -1.0849e-10 -0.001)
(-2.87442e-10 -1.37099e-09 -0.000999998)
(-8.44643e-10 -1.37108e-09 -0.000999998)
(-1.31257e-09 -1.35548e-09 -0.000999998)
(-1.70363e-09 -1.32426e-09 -0.000999999)
(-1.51635e-09 -1.33733e-09 -0.001)
(-2.79939e-10 -1.27134e-09 -0.000999998)
(-8.06963e-10 -1.26291e-09 -0.000999999)
(-1.22842e-09 -1.2083e-09 -0.000999999)
(-1.53784e-09 -1.11512e-09 -0.000999999)
(-1.56653e-09 -9.34699e-10 -0.001)
(-2.76586e-10 -1.02969e-09 -0.000999999)
(-7.79141e-10 -1.01935e-09 -0.000999999)
(-1.16465e-09 -9.66262e-10 -0.000999999)
(-1.43002e-09 -8.93434e-10 -0.001)
(-1.51147e-09 -7.91085e-10 -0.001)
(-2.67692e-10 -6.77862e-10 -0.000999999)
(-7.41509e-10 -6.58212e-10 -0.000999999)
(-1.10229e-09 -6.11228e-10 -0.001)
(-1.36252e-09 -5.63756e-10 -0.001)
(-1.48423e-09 -5.23087e-10 -0.001)
(-2.55251e-10 -2.36863e-10 -0.000999999)
(-7.09806e-10 -2.25364e-10 -0.001)
(-1.0679e-09 -2.0707e-10 -0.001)
(-1.33903e-09 -1.93187e-10 -0.001)
(-1.4792e-09 -1.86348e-10 -0.001)
(-3.81226e-10 -1.95272e-09 -0.000999997)
(-1.12889e-09 -1.95676e-09 -0.000999998)
(-1.7831e-09 -1.93966e-09 -0.000999998)
(-2.31926e-09 -1.89548e-09 -0.000999999)
(-2.18266e-09 -1.90899e-09 -0.000999999)
(-3.78144e-10 -1.8177e-09 -0.000999998)
(-1.09605e-09 -1.81528e-09 -0.000999998)
(-1.68413e-09 -1.75867e-09 -0.000999999)
(-2.11707e-09 -1.64472e-09 -0.000999999)
(-2.21386e-09 -1.43849e-09 -0.001)
(-3.75525e-10 -1.465e-09 -0.000999999)
(-1.06646e-09 -1.45433e-09 -0.000999999)
(-1.61234e-09 -1.40008e-09 -0.000999999)
(-1.99905e-09 -1.32611e-09 -0.001)
(-2.16047e-09 -1.22427e-09 -0.001)
(-3.64836e-10 -9.50171e-10 -0.000999999)
(-1.0283e-09 -9.27382e-10 -0.000999999)
(-1.5556e-09 -8.85904e-10 -0.001)
(-1.94105e-09 -8.47318e-10 -0.001)
(-2.13946e-09 -8.13485e-10 -0.001)
(-3.50456e-10 -3.26287e-10 -0.000999999)
(-9.98454e-10 -3.13116e-10 -0.000999999)
(-1.52908e-09 -2.98998e-10 -0.001)
(-1.92268e-09 -2.89622e-10 -0.001)
(-2.13688e-09 -2.84398e-10 -0.001)
(-4.94554e-10 -2.68397e-09 -0.000999997)
(-1.47063e-09 -2.69575e-09 -0.000999997)
(-2.32579e-09 -2.68951e-09 -0.000999998)
(-3.00029e-09 -2.65534e-09 -0.000999998)
(-3.00891e-09 -2.70987e-09 -0.000999999)
(-4.99289e-10 -2.4913e-09 -0.000999998)
(-1.45794e-09 -2.49968e-09 -0.000999998)
(-2.2548e-09 -2.46296e-09 -0.000999998)
(-2.83487e-09 -2.37745e-09 -0.000999999)
(-3.05137e-09 -2.21112e-09 -0.001)
(-4.98528e-10 -1.99724e-09 -0.000999998)
(-1.43767e-09 -1.99166e-09 -0.000999999)
(-2.20327e-09 -1.95435e-09 -0.000999999)
(-2.74836e-09 -1.90468e-09 -0.001)
(-3.01705e-09 -1.82939e-09 -0.001)
(-4.90125e-10 -1.28505e-09 -0.000999999)
(-1.41119e-09 -1.26954e-09 -0.000999999)
(-2.16741e-09 -1.24425e-09 -0.001)
(-2.70963e-09 -1.22251e-09 -0.001)
(-3.00466e-09 -1.20024e-09 -0.001)
(-4.79879e-10 -4.38851e-10 -0.000999999)
(-1.39177e-09 -4.30237e-10 -0.000999999)
(-2.15184e-09 -4.22866e-10 -0.001)
(-2.69897e-09 -4.18793e-10 -0.001)
(-3.0039e-09 -4.17255e-10 -0.001)
(-6.60313e-10 -3.64515e-09 -0.000999996)
(-1.94998e-09 -3.66333e-09 -0.000999996)
(-3.05682e-09 -3.67391e-09 -0.000999997)
(-3.88491e-09 -3.66856e-09 -0.000999998)
(-4.15188e-09 -3.75127e-09 -0.000999999)
(-6.70166e-10 -3.35656e-09 -0.000999997)
(-1.96039e-09 -3.37367e-09 -0.000999997)
(-3.04176e-09 -3.36959e-09 -0.000999998)
(-3.83106e-09 -3.34616e-09 -0.000999999)
(-4.20038e-09 -3.28337e-09 -0.001)
(-6.71443e-10 -2.67611e-09 -0.000999998)
(-1.95668e-09 -2.67917e-09 -0.000999998)
(-3.02897e-09 -2.66989e-09 -0.000999999)
(-3.79874e-09 -2.65935e-09 -0.001)
(-4.19149e-09 -2.62682e-09 -0.001)
(-6.68372e-10 -1.71909e-09 -0.000999999)
(-1.9489e-09 -1.71703e-09 -0.000999999)
(-3.02135e-09 -1.71147e-09 -0.001)
(-3.78761e-09 -1.71028e-09 -0.001)
(-4.18903e-09 -1.70773e-09 -0.001)
(-6.65039e-10 -5.89045e-10 -0.000999999)
(-1.94202e-09 -5.87963e-10 -0.000999999)
(-3.0161e-09 -5.86874e-10 -0.001)
(-3.78761e-09 -5.88403e-10 -0.001)
(-4.19041e-09 -5.93804e-10 -0.001)
(-9.07681e-10 -4.93997e-09 -0.000999995)
(-2.64697e-09 -4.95878e-09 -0.000999995)
(-4.1159e-09 -4.98384e-09 -0.000999996)
(-5.20635e-09 -5.01221e-09 -0.000999998)
(-5.7498e-09 -5.08717e-09 -0.001)
(-9.15168e-10 -4.50051e-09 -0.000999996)
(-2.67059e-09 -4.51885e-09 -0.000999997)
(-4.15298e-09 -4.54515e-09 -0.000999998)
(-5.24252e-09 -4.57922e-09 -0.000999999)
(-5.78848e-09 -4.59663e-09 -0.001)
(-9.179e-10 -3.57492e-09 -0.000999997)
(-2.68303e-09 -3.58615e-09 -0.000999998)
(-4.17577e-09 -3.60316e-09 -0.000999999)
(-5.25779e-09 -3.62637e-09 -0.001)
(-5.79429e-09 -3.63549e-09 -0.001)
(-9.19869e-10 -2.2991e-09 -0.000999998)
(-2.69178e-09 -2.30874e-09 -0.000999999)
(-4.19241e-09 -2.31869e-09 -0.001)
(-5.27433e-09 -2.33406e-09 -0.001)
(-5.80135e-09 -2.35063e-09 -0.001)
(-9.21677e-10 -7.9166e-10 -0.000999999)
(-2.69306e-09 -7.96521e-10 -0.000999999)
(-4.19269e-09 -7.99367e-10 -0.001)
(-5.27949e-09 -8.0461e-10 -0.001)
(-5.80028e-09 -8.14188e-10 -0.001)
(-1.25091e-09 -6.70345e-09 -0.000999993)
(-3.62278e-09 -6.72016e-09 -0.000999994)
(-5.6201e-09 -6.74995e-09 -0.000999995)
(-7.11295e-09 -6.78894e-09 -0.000999997)
(-7.92396e-09 -6.82966e-09 -0.001)
(-1.25368e-09 -6.04991e-09 -0.000999995)
(-3.64922e-09 -6.06625e-09 -0.000999996)
(-5.68081e-09 -6.1072e-09 -0.000999997)
(-7.17807e-09 -6.16581e-09 -0.000999999)
(-7.92541e-09 -6.20468e-09 -0.001)
(-1.25638e-09 -4.79938e-09 -0.000999997)
(-3.66855e-09 -4.81463e-09 -0.000999997)
(-5.71897e-09 -4.844e-09 -0.000999999)
(-7.2104e-09 -4.88158e-09 -0.001)
(-7.93467e-09 -4.90704e-09 -0.001)
(-1.26024e-09 -3.08905e-09 -0.000999998)
(-3.6844e-09 -3.10434e-09 -0.000999999)
(-5.74668e-09 -3.12045e-09 -0.001)
(-7.24039e-09 -3.14107e-09 -0.001)
(-7.94755e-09 -3.16005e-09 -0.001)
(-1.26381e-09 -1.06622e-09 -0.000999998)
(-3.68706e-09 -1.07391e-09 -0.000999999)
(-5.74423e-09 -1.07757e-09 -0.001)
(-7.23591e-09 -1.08213e-09 -0.001)
(-7.93536e-09 -1.08648e-09 -0.00100001)
(-1.7121e-09 -9.12469e-09 -0.00099999)
(-4.95284e-09 -9.13698e-09 -0.000999991)
(-7.68025e-09 -9.15318e-09 -0.000999993)
(-9.69664e-09 -9.1711e-09 -0.000999996)
(-1.08273e-08 -9.16208e-09 -0.001)
(-1.71037e-09 -8.19261e-09 -0.000999993)
(-4.96965e-09 -8.20484e-09 -0.000999994)
(-7.73167e-09 -8.23683e-09 -0.000999996)
(-9.75275e-09 -8.28756e-09 -0.000999999)
(-1.07802e-08 -8.32135e-09 -0.001)
(-1.70971e-09 -6.49727e-09 -0.000999995)
(-4.98152e-09 -6.51084e-09 -0.000999997)
(-7.76204e-09 -6.5343e-09 -0.000999999)
(-9.7811e-09 -6.5653e-09 -0.001)
(-1.07815e-08 -6.58627e-09 -0.001)
(-1.71222e-09 -4.18163e-09 -0.000999997)
(-4.99391e-09 -4.19727e-09 -0.000999998)
(-7.78465e-09 -4.2091e-09 -0.001)
(-9.80374e-09 -4.22213e-09 -0.001)
(-1.0791e-08 -4.22562e-09 -0.00100001)
(-1.71472e-09 -1.44383e-09 -0.000999998)
(-4.99156e-09 -1.45191e-09 -0.000999999)
(-7.77132e-09 -1.45323e-09 -0.001)
(-9.77848e-09 -1.45312e-09 -0.001)
(-1.0762e-08 -1.44624e-09 -0.00100001)
(-2.33175e-09 -1.24552e-08 -0.000999987)
(-6.74852e-09 -1.24598e-08 -0.000999988)
(-1.04542e-08 -1.24496e-08 -0.000999991)
(-1.3149e-08 -1.2429e-08 -0.000999995)
(-1.47277e-08 -1.237e-08 -0.000999999)
(-2.32295e-09 -1.11732e-08 -0.000999991)
(-6.74406e-09 -1.11789e-08 -0.000999992)
(-1.04839e-08 -1.11857e-08 -0.000999995)
(-1.31963e-08 -1.12183e-08 -0.000999999)
(-1.46418e-08 -1.125e-08 -0.001)
(-2.31752e-09 -8.86448e-09 -0.000999994)
(-6.73988e-09 -8.87468e-09 -0.000999995)
(-1.04923e-08 -8.87895e-09 -0.000999998)
(-1.32132e-08 -8.88879e-09 -0.001)
(-1.4621e-08 -8.8986e-09 -0.00100001)
(-2.31716e-09 -5.70477e-09 -0.000999996)
(-6.74112e-09 -5.71758e-09 -0.000999998)
(-1.0496e-08 -5.71714e-09 -0.001)
(-1.32146e-08 -5.71478e-09 -0.001)
(-1.46144e-08 -5.70128e-09 -0.00100001)
(-2.31584e-09 -1.96884e-09 -0.000999998)
(-6.72855e-09 -1.97512e-09 -0.000999999)
(-1.04684e-08 -1.97227e-09 -0.001)
(-1.31715e-08 -1.96727e-09 -0.00100001)
(-1.45687e-08 -1.95379e-09 -0.00100001)
(-3.1655e-09 -1.70305e-08 -0.000999982)
(-9.17911e-09 -1.7033e-08 -0.000999984)
(-1.42339e-08 -1.6996e-08 -0.000999988)
(-1.78588e-08 -1.69441e-08 -0.000999993)
(-2.00235e-08 -1.68235e-08 -0.000999999)
(-3.15223e-09 -1.53087e-08 -0.000999987)
(-9.15238e-09 -1.53141e-08 -0.000999989)
(-1.42291e-08 -1.52873e-08 -0.000999993)
(-1.7897e-08 -1.52837e-08 -0.000999998)
(-1.9905e-08 -1.53151e-08 -0.001)
(-3.14373e-09 -1.21551e-08 -0.000999992)
(-9.12884e-09 -1.21634e-08 -0.000999994)
(-1.42017e-08 -1.21389e-08 -0.000999998)
(-1.78864e-08 -1.21147e-08 -0.001)
(-1.98566e-08 -1.21066e-08 -0.00100001)
(-3.13861e-09 -7.82011e-09 -0.000999995)
(-9.11237e-09 -7.82696e-09 -0.000999997)
(-1.41777e-08 -7.81006e-09 -0.001)
(-1.78629e-08 -7.79039e-09 -0.00100001)
(-1.98233e-08 -7.76711e-09 -0.00100001)
(-3.13084e-09 -2.69595e-09 -0.000999997)
(-9.08651e-09 -2.69853e-09 -0.000999999)
(-1.41365e-08 -2.6919e-09 -0.001)
(-1.78085e-08 -2.6841e-09 -0.00100001)
(-1.97606e-08 -2.67074e-09 -0.00100001)
(-4.30443e-09 -2.33039e-08 -0.000999976)
(-1.25049e-08 -2.33093e-08 -0.000999978)
(-1.94222e-08 -2.3238e-08 -0.000999983)
(-2.43731e-08 -2.31535e-08 -0.000999991)
(-2.7198e-08 -2.29994e-08 -0.000999999)
(-4.28861e-09 -2.10105e-08 -0.000999983)
(-1.24472e-08 -2.10174e-08 -0.000999986)
(-1.93511e-08 -2.09403e-08 -0.000999991)
(-2.43506e-08 -2.08718e-08 -0.000999998)
(-2.70731e-08 -2.08585e-08 -0.00100001)
(-4.27418e-09 -1.66811e-08 -0.000999989)
(-1.23952e-08 -1.66831e-08 -0.000999992)
(-1.92742e-08 -1.66219e-08 -0.000999997)
(-2.42912e-08 -1.65555e-08 -0.001)
(-2.69949e-08 -1.65128e-08 -0.00100001)
(-4.26076e-09 -1.07202e-08 -0.000999993)
(-1.23555e-08 -1.0718e-08 -0.000999996)
(-1.92197e-08 -1.06837e-08 -0.001)
(-2.4239e-08 -1.06455e-08 -0.00100001)
(-2.693e-08 -1.06082e-08 -0.00100002)
(-4.2451e-09 -3.69012e-09 -0.000999996)
(-1.23147e-08 -3.68856e-09 -0.000999999)
(-1.91628e-08 -3.67894e-09 -0.001)
(-2.41682e-08 -3.66792e-09 -0.00100001)
(-2.68448e-08 -3.65324e-09 -0.00100002)
(-5.87213e-09 -3.18547e-08 -0.000999967)
(-1.70485e-08 -3.18514e-08 -0.000999971)
(-2.64803e-08 -3.1728e-08 -0.000999978)
(-3.32702e-08 -3.1596e-08 -0.000999987)
(-3.69624e-08 -3.14302e-08 -0.000999999)
(-5.84142e-09 -2.8773e-08 -0.000999977)
(-1.69382e-08 -2.87649e-08 -0.000999981)
(-2.63254e-08 -2.86272e-08 -0.000999987)
(-3.31591e-08 -2.84864e-08 -0.000999997)
(-3.6825e-08 -2.83963e-08 -0.00100001)
(-5.81357e-09 -2.28238e-08 -0.000999985)
(-1.6849e-08 -2.28129e-08 -0.000999989)
(-2.61985e-08 -2.2715e-08 -0.000999996)
(-3.30391e-08 -2.26054e-08 -0.00100001)
(-3.67028e-08 -2.25072e-08 -0.00100002)
(-5.78998e-09 -1.46492e-08 -0.000999991)
(-1.67852e-08 -1.46374e-08 -0.000999995)
(-2.61128e-08 -1.45849e-08 -0.001)
(-3.2948e-08 -1.45234e-08 -0.00100001)
(-3.65982e-08 -1.44575e-08 -0.00100002)
(-5.76526e-09 -5.03617e-09 -0.000999995)
(-1.6725e-08 -5.03059e-09 -0.000999998)
(-2.60317e-08 -5.0163e-09 -0.00100001)
(-3.28469e-08 -4.99886e-09 -0.00100001)
(-3.64811e-08 -4.97673e-09 -0.00100003)
(-7.99817e-09 -4.3442e-08 -0.000999955)
(-2.31913e-08 -4.34209e-08 -0.00099996)
(-3.60242e-08 -4.32408e-08 -0.00099997)
(-4.53567e-08 -4.30427e-08 -0.000999983)
(-5.02938e-08 -4.28395e-08 -0.000999998)
(-7.94282e-09 -3.92408e-08 -0.000999969)
(-2.30283e-08 -3.92101e-08 -0.000999974)
(-3.58056e-08 -3.90258e-08 -0.000999983)
(-4.5144e-08 -3.88208e-08 -0.000999996)
(-5.00967e-08 -3.8618e-08 -0.00100001)
(-7.89895e-09 -3.11114e-08 -0.00099998)
(-2.29033e-08 -3.10889e-08 -0.000999985)
(-3.56306e-08 -3.09579e-08 -0.000999994)
(-4.49487e-08 -3.07983e-08 -0.00100001)
(-4.98989e-08 -3.06217e-08 -0.00100002)
(-7.86532e-09 -1.99541e-08 -0.000999988)
(-2.28147e-08 -1.99334e-08 -0.000999993)
(-3.5508e-08 -1.98604e-08 -0.001)
(-4.48032e-08 -1.97689e-08 -0.00100002)
(-4.97397e-08 -1.96601e-08 -0.00100003)
(-7.82865e-09 -6.85508e-09 -0.000999993)
(-2.27283e-08 -6.84443e-09 -0.000999998)
(-3.53939e-08 -6.82353e-09 -0.00100001)
(-4.466e-08 -6.79768e-09 -0.00100002)
(-4.95774e-08 -6.76439e-09 -0.00100003)
(-1.08587e-08 -5.91557e-08 -0.00099994)
(-3.14939e-08 -5.91213e-08 -0.000999946)
(-4.89859e-08 -5.88769e-08 -0.000999959)
(-6.17881e-08 -5.85808e-08 -0.000999977)
(-6.84918e-08 -5.82668e-08 -0.000999998)
(-1.07845e-08 -5.33877e-08 -0.000999958)
(-3.12948e-08 -5.33453e-08 -0.000999964)
(-4.87072e-08 -5.31224e-08 -0.000999977)
(-6.14489e-08 -5.28329e-08 -0.000999995)
(-6.81482e-08 -5.24827e-08 -0.00100002)
(-1.07235e-08 -4.23265e-08 -0.000999973)
(-3.11298e-08 -4.22937e-08 -0.00099998)
(-4.84675e-08 -4.21233e-08 -0.000999992)
(-6.1148e-08 -4.18935e-08 -0.00100001)
(-6.78386e-08 -4.16111e-08 -0.00100003)
(-1.06771e-08 -2.71421e-08 -0.000999984)
(-3.10102e-08 -2.71134e-08 -0.000999991)
(-4.82976e-08 -2.70174e-08 -0.001)
(-6.09305e-08 -2.68863e-08 -0.00100002)
(-6.76038e-08 -2.67198e-08 -0.00100004)
(-1.06276e-08 -9.32258e-09 -0.00099999)
(-3.08945e-08 -9.30838e-09 -0.000999997)
(-4.8142e-08 -9.2815e-09 -0.00100001)
(-6.07298e-08 -9.24468e-09 -0.00100003)
(-6.73738e-08 -9.19559e-09 -0.00100005)
(-1.47397e-08 -8.05528e-08 -0.000999918)
(-4.27928e-08 -8.04945e-08 -0.000999927)
(-6.66365e-08 -8.01442e-08 -0.000999945)
(-8.40922e-08 -7.96824e-08 -0.000999969)
(-9.32785e-08 -7.91615e-08 -0.000999997)
(-1.46436e-08 -7.26325e-08 -0.000999943)
(-4.25382e-08 -7.25752e-08 -0.000999952)
(-6.62561e-08 -7.22841e-08 -0.000999969)
(-8.35951e-08 -7.1867e-08 -0.000999993)
(-9.26877e-08 -7.13501e-08 -0.00100002)
(-1.45569e-08 -5.75822e-08 -0.000999963)
(-4.23105e-08 -5.75326e-08 -0.000999973)
(-6.59201e-08 -5.73031e-08 -0.00099999)
(-8.31578e-08 -5.69733e-08 -0.00100001)
(-9.22146e-08 -5.65575e-08 -0.00100004)
(-1.44931e-08 -3.69337e-08 -0.000999979)
(-4.2149e-08 -3.69024e-08 -0.000999988)
(-6.56839e-08 -3.67733e-08 -0.00100001)
(-8.2841e-08 -3.65801e-08 -0.00100003)
(-9.1866e-08 -3.63289e-08 -0.00100006)
(-1.44343e-08 -1.26907e-08 -0.000999987)
(-4.19997e-08 -1.26799e-08 -0.000999996)
(-6.54633e-08 -1.26432e-08 -0.00100001)
(-8.25487e-08 -1.2585e-08 -0.00100004)
(-9.15298e-08 -1.25077e-08 -0.00100006)
(-2.00324e-08 -1.09764e-07 -0.000999889)
(-5.8195e-08 -1.09649e-07 -0.000999901)
(-9.06445e-08 -1.09127e-07 -0.000999925)
(-1.14339e-07 -1.08407e-07 -0.000999958)
(-1.26986e-07 -1.07539e-07 -0.000999996)
(-1.98919e-08 -9.89073e-08 -0.000999922)
(-5.7824e-08 -9.88118e-08 -0.000999935)
(-9.00917e-08 -9.83915e-08 -0.000999958)
(-1.13635e-07 -9.77839e-08 -0.000999991)
(-1.26032e-07 -9.70567e-08 -0.00100003)
(-1.9767e-08 -7.84126e-08 -0.000999951)
(-5.7498e-08 -7.83385e-08 -0.000999963)
(-8.96056e-08 -7.80091e-08 -0.000999987)
(-1.13004e-07 -7.75209e-08 -0.00100002)
(-1.25301e-07 -7.69193e-08 -0.00100006)
(-1.96813e-08 -5.03253e-08 -0.000999972)
(-5.72713e-08 -5.02936e-08 -0.000999984)
(-8.92566e-08 -5.00975e-08 -0.00100001)
(-1.12534e-07 -4.97944e-08 -0.00100004)
(-1.24767e-07 -4.94118e-08 -0.00100008)
(-1.96114e-08 -1.73068e-08 -0.000999983)
(-5.70656e-08 -1.73023e-08 -0.000999995)
(-8.89228e-08 -1.72399e-08 -0.00100002)
(-1.12094e-07 -1.71401e-08 -0.00100005)
(-1.24268e-07 -1.70137e-08 -0.00100009)
(-2.72388e-08 -1.49701e-07 -0.000999849)
(-7.9156e-08 -1.49494e-07 -0.000999866)
(-1.23287e-07 -1.48711e-07 -0.000999898)
(-1.55441e-07 -1.47607e-07 -0.000999943)
(-1.72754e-07 -1.46211e-07 -0.000999995)
(-2.70271e-08 -1.34848e-07 -0.000999895)
(-7.85867e-08 -1.34687e-07 -0.000999912)
(-1.22443e-07 -1.34037e-07 -0.000999944)
(-1.54389e-07 -1.33111e-07 -0.000999988)
(-1.71289e-07 -1.32028e-07 -0.00100004)
(-2.68484e-08 -1.06918e-07 -0.000999934)
(-7.81005e-08 -1.06803e-07 -0.000999951)
(-1.21696e-07 -1.06289e-07 -0.000999983)
(-1.5343e-07 -1.05527e-07 -0.00100003)
(-1.70161e-07 -1.04623e-07 -0.00100008)
(-2.67266e-08 -6.866e-08 -0.000999962)
(-7.77549e-08 -6.86084e-08 -0.000999979)
(-1.21144e-07 -6.82827e-08 -0.00100001)
(-1.52708e-07 -6.77924e-08 -0.00100005)
(-1.69332e-07 -6.72023e-08 -0.00100011)
(-2.66286e-08 -2.36292e-08 -0.000999978)
(-7.74449e-08 -2.36202e-08 -0.000999995)
(-1.20629e-07 -2.35084e-08 -0.00100003)
(-1.52043e-07 -2.33391e-08 -0.00100007)
(-1.68594e-07 -2.31358e-08 -0.00100012)
(-3.70445e-08 -2.04364e-07 -0.000999794)
(-1.07667e-07 -2.04011e-07 -0.000999818)
(-1.67682e-07 -2.02811e-07 -0.000999862)
(-2.11361e-07 -2.01101e-07 -0.000999923)
(-2.34911e-07 -1.98931e-07 -0.000999994)
(-3.67246e-08 -1.84062e-07 -0.000999858)
(-1.06776e-07 -1.83785e-07 -0.000999881)
(-1.66343e-07 -1.82738e-07 -0.000999924)
(-2.09702e-07 -1.81266e-07 -0.000999984)
(-2.32699e-07 -1.79569e-07 -0.00100005)
(-3.64563e-08 -1.45942e-07 -0.000999911)
(-1.0601e-07 -1.45733e-07 -0.000999934)
(-1.65142e-07 -1.4489e-07 -0.000999977)
(-2.08191e-07 -1.43672e-07 -0.00100004)
(-2.3096e-07 -1.42266e-07 -0.00100011)
(-3.62651e-08 -9.3733e-08 -0.00099995)
(-1.05451e-07 -9.36143e-08 -0.000999973)
(-1.6425e-07 -9.30682e-08 -0.00100002)
(-2.07056e-07 -9.22779e-08 -0.00100007)
(-2.29673e-07 -9.13598e-08 -0.00100014)
(-3.61093e-08 -3.22645e-08 -0.000999971)
(-1.04967e-07 -3.22298e-08 -0.000999994)
(-1.63465e-07 -3.20388e-08 -0.00100004)
(-2.06065e-07 -3.17642e-08 -0.00100009)
(-2.28582e-07 -3.14462e-08 -0.00100016)
(-5.03922e-08 -2.79209e-07 -0.000999721)
(-1.46451e-07 -2.78609e-07 -0.000999753)
(-2.28059e-07 -2.76716e-07 -0.000999813)
(-2.87458e-07 -2.74035e-07 -0.000999895)
(-3.19409e-07 -2.70702e-07 -0.000999992)
(-4.98925e-08 -2.51436e-07 -0.000999807)
(-1.45027e-07 -2.50929e-07 -0.000999839)
(-2.25896e-07 -2.49221e-07 -0.000999898)
(-2.84782e-07 -2.46858e-07 -0.000999979)
(-3.16062e-07 -2.44152e-07 -0.00100007)
(-4.94638e-08 -1.99316e-07 -0.000999881)
(-1.43785e-07 -1.98911e-07 -0.000999912)
(-2.2396e-07 -1.97525e-07 -0.00099997)
(-2.82387e-07 -1.95579e-07 -0.00100005)
(-3.13364e-07 -1.93364e-07 -0.00100014)
(-4.91483e-08 -1.27976e-07 -0.000999934)
(-1.42865e-07 -1.27716e-07 -0.000999965)
(-2.2252e-07 -1.26819e-07 -0.00100002)
(-2.80592e-07 -1.25565e-07 -0.0010001)
(-3.11361e-07 -1.24127e-07 -0.0010002)
(-4.88947e-08 -4.40417e-08 -0.000999962)
(-1.42113e-07 -4.39526e-08 -0.000999993)
(-2.21343e-07 -4.36411e-08 -0.00100005)
(-2.79126e-07 -4.32116e-08 -0.00100013)
(-3.09737e-07 -4.27187e-08 -0.00100022)
(-6.85475e-08 -3.81674e-07 -0.000999622)
(-1.99171e-07 -3.80647e-07 -0.000999665)
(-3.10122e-07 -3.77634e-07 -0.000999746)
(-3.90956e-07 -3.73444e-07 -0.000999858)
(-4.34248e-07 -3.68394e-07 -0.00099999)
(-6.77436e-08 -3.43599e-07 -0.00099974)
(-1.96878e-07 -3.42665e-07 -0.000999782)
(-3.06638e-07 -3.39908e-07 -0.000999862)
(-3.86659e-07 -3.36141e-07 -0.000999972)
(-4.29205e-07 -3.31837e-07 -0.0010001)
(-6.7044e-08 -2.72254e-07 -0.00099984)
(-1.94869e-07 -2.71491e-07 -0.000999882)
(-3.0356e-07 -2.69255e-07 -0.000999961)
(-3.82883e-07 -2.66186e-07 -0.00100007)
(-4.25011e-07 -2.62692e-07 -0.0010002)
(-6.65232e-08 -1.74724e-07 -0.000999912)
(-1.93376e-07 -1.74221e-07 -0.000999954)
(-3.01272e-07 -1.72783e-07 -0.00100003)
(-3.80057e-07 -1.70811e-07 -0.00100014)
(-4.21899e-07 -1.6855e-07 -0.00100027)
(-6.61222e-08 -6.0107e-08 -0.000999952)
(-1.92229e-07 -5.99294e-08 -0.000999993)
(-2.99515e-07 -5.9438e-08 -0.00100007)
(-3.77874e-07 -5.8767e-08 -0.00100018)
(-4.19477e-07 -5.79973e-08 -0.0010003)
(-9.31941e-08 -5.21957e-07 -0.000999487)
(-2.70734e-07 -5.20206e-07 -0.000999545)
(-4.21546e-07 -5.15448e-07 -0.000999656)
(-5.31579e-07 -5.08951e-07 -0.000999808)
(-5.9031e-07 -5.01344e-07 -0.000999987)
(-9.19011e-08 -4.69636e-07 -0.000999648)
(-2.67077e-07 -4.67983e-07 -0.000999706)
(-4.16022e-07 -4.63609e-07 -0.000999814)
(-5.24799e-07 -4.57685e-07 -0.000999963)
(-5.82705e-07 -4.5092e-07 -0.00100014)
(-9.07728e-08 -3.71917e-07 -0.000999785)
(-2.63882e-07 -3.70565e-07 -0.000999842)
(-4.11197e-07 -3.67027e-07 -0.000999948)
(-5.18886e-07 -3.6223e-07 -0.00100009)
(-5.76191e-07 -3.56741e-07 -0.00100027)
(-8.99326e-08 -2.38577e-07 -0.000999884)
(-2.61509e-07 -2.37694e-07 -0.00099994)
(-4.07605e-07 -2.3542e-07 -0.00100005)
(-5.14459e-07 -2.32321e-07 -0.00100019)
(-5.71356e-07 -2.28764e-07 -0.00100036)
(-8.93232e-08 -8.20488e-08 -0.000999938)
(-2.59776e-07 -8.17426e-08 -0.000999994)
(-4.04957e-07 -8.09674e-08 -0.0010001)
(-5.11169e-07 -7.99072e-08 -0.00100024)
(-5.6775e-07 -7.86919e-08 -0.00100041)
(-1.26595e-07 -7.14127e-07 -0.000999304)
(-3.67774e-07 -7.11187e-07 -0.000999383)
(-5.72761e-07 -7.03748e-07 -0.000999533)
(-7.22576e-07 -6.93711e-07 -0.00099974)
(-8.025e-07 -6.82124e-07 -0.000999984)
(-1.24546e-07 -6.42081e-07 -0.000999525)
(-3.62019e-07 -6.39281e-07 -0.000999603)
(-5.64112e-07 -6.32419e-07 -0.00099975)
(-7.11978e-07 -6.23159e-07 -0.000999952)
(-7.9089e-07 -6.1257e-07 -0.00100019)
(-1.2276e-07 -5.08196e-07 -0.000999713)
(-3.56998e-07 -5.05914e-07 -0.000999789)
(-5.56569e-07 -5.00354e-07 -0.000999932)
(-7.02724e-07 -4.92841e-07 -0.00100013)
(-7.80766e-07 -4.84239e-07 -0.00100036)
(-1.21434e-07 -3.25898e-07 -0.000999848)
(-3.53261e-07 -3.24417e-07 -0.000999924)
(-5.50927e-07 -3.20814e-07 -0.00100006)
(-6.95789e-07 -3.15931e-07 -0.00100026)
(-7.73221e-07 -3.10334e-07 -0.00100049)
(-1.20512e-07 -1.12067e-07 -0.000999922)
(-3.50626e-07 -1.11557e-07 -0.000999996)
(-5.46902e-07 -1.1032e-07 -0.00100014)
(-6.90794e-07 -1.08643e-07 -0.00100033)
(-7.67792e-07 -1.06712e-07 -0.00100056)
(-1.7183e-07 -9.77649e-07 -0.000999057)
(-4.99319e-07 -9.72784e-07 -0.000999164)
(-7.77959e-07 -9.61203e-07 -0.000999367)
(-9.81968e-07 -9.45688e-07 -0.000999648)
(-1.09096e-06 -9.27904e-07 -0.000999979)
(-1.68614e-07 -8.78284e-07 -0.00099936)
(-4.90304e-07 -8.73647e-07 -0.000999465)
(-7.64448e-07 -8.62868e-07 -0.000999663)
(-9.65445e-07 -8.48363e-07 -0.000999936)
(-1.0731e-06 -8.31824e-07 -0.00100026)
(-1.65803e-07 -6.94778e-07 -0.000999617)
(-4.82403e-07 -6.90982e-07 -0.00099972)
(-7.52579e-07 -6.82182e-07 -0.000999912)
(-9.50918e-07 -6.7033e-07 -0.00100018)
(-1.05736e-06 -6.5682e-07 -0.0010005)
(-1.63705e-07 -4.45472e-07 -0.000999803)
(-4.76476e-07 -4.42983e-07 -0.000999904)
(-7.43645e-07 -4.37236e-07 -0.00100009)
(-9.39982e-07 -4.29489e-07 -0.00100035)
(-1.04552e-06 -4.20639e-07 -0.00100067)
(-1.62282e-07 -1.53189e-07 -0.000999903)
(-4.7242e-07 -1.52324e-07 -0.001)
(-7.3747e-07 -1.50343e-07 -0.00100019)
(-9.3234e-07 -1.47669e-07 -0.00100045)
(-1.03722e-06 -1.44601e-07 -0.00100076)
(-2.33087e-07 -1.33945e-06 -0.000998722)
(-6.77603e-07 -1.33143e-06 -0.000998868)
(-1.05634e-06 -1.31333e-06 -0.000999144)
(-1.33418e-06 -1.28926e-06 -0.000999524)
(-1.48313e-06 -1.26195e-06 -0.000999974)
(-2.28015e-07 -1.20221e-06 -0.000999139)
(-6.63407e-07 -1.19453e-06 -0.000999281)
(-1.03515e-06 -1.17746e-06 -0.000999547)
(-1.30846e-06 -1.15463e-06 -0.000999917)
(-1.45558e-06 -1.12883e-06 -0.00100035)
(-2.23541e-07 -9.5053e-07 -0.000999491)
(-6.50834e-07 -9.44154e-07 -0.000999629)
(-1.01631e-06 -9.30081e-07 -0.000999887)
(-1.28555e-06 -9.11215e-07 -0.00100025)
(-1.431e-06 -8.89865e-07 -0.00100067)
(-2.20149e-07 -6.09425e-07 -0.000999746)
(-6.41303e-07 -6.05182e-07 -0.00099988)
(-1.00201e-06 -5.95926e-07 -0.00100013)
(-1.2681e-06 -5.83478e-07 -0.00100048)
(-1.41232e-06 -5.6936e-07 -0.0010009)
(-2.17909e-07 -2.09596e-07 -0.000999885)
(-6.34966e-07 -2.08112e-07 -0.00100002)
(-9.92397e-07 -2.04909e-07 -0.00100027)
(-1.25627e-06 -2.00585e-07 -0.00100061)
(-1.3995e-06 -1.9568e-07 -0.00100102)
(-3.15996e-07 -1.83674e-06 -0.000998272)
(-9.1913e-07 -1.82343e-06 -0.000998469)
(-1.43393e-06 -1.79489e-06 -0.000998842)
(-1.81257e-06 -1.75736e-06 -0.000999359)
(-2.01667e-06 -1.71535e-06 -0.000999971)
(-3.07856e-07 -1.64692e-06 -0.000998845)
(-8.96473e-07 -1.634e-06 -0.000999035)
(-1.4004e-06 -1.60668e-06 -0.000999394)
(-1.77231e-06 -1.57046e-06 -0.000999892)
(-1.97405e-06 -1.53002e-06 -0.00100048)
(-3.00591e-07 -1.30148e-06 -0.000999328)
(-8.76198e-07 -1.29057e-06 -0.00099951)
(-1.37022e-06 -1.26785e-06 -0.000999856)
(-1.73589e-06 -1.23749e-06 -0.00100034)
(-1.93546e-06 -1.2035e-06 -0.00100091)
(-2.94966e-07 -8.34678e-07 -0.000999679)
(-8.60624e-07 -8.27295e-07 -0.000999855)
(-1.34704e-06 -8.12236e-07 -0.00100019)
(-1.70778e-06 -7.91985e-07 -0.00100066)
(-1.90569e-06 -7.69266e-07 -0.00100122)
(-2.91346e-07 -2.87186e-07 -0.000999869)
(-8.50551e-07 -2.84588e-07 -0.00100004)
(-1.33189e-06 -2.7936e-07 -0.00100037)
(-1.68921e-06 -2.72291e-07 -0.00100083)
(-1.88575e-06 -2.64367e-07 -0.00100138)
(-4.28052e-07 -2.52102e-06 -0.000997664)
(-1.24614e-06 -2.49861e-06 -0.000997931)
(-1.9461e-06 -2.45319e-06 -0.000998436)
(-2.46272e-06 -2.39438e-06 -0.000999138)
(-2.74326e-06 -2.32969e-06 -0.000999971)
(-4.14614e-07 -2.25818e-06 -0.000998455)
(-1.20923e-06 -2.23599e-06 -0.000998708)
(-1.89228e-06 -2.19181e-06 -0.000999189)
(-2.39902e-06 -2.13363e-06 -0.00099986)
(-2.6773e-06 -2.06969e-06 -0.00100066)
(-4.02575e-07 -1.78378e-06 -0.000999117)
(-1.17617e-06 -1.76467e-06 -0.000999357)
(-1.8435e-06 -1.72772e-06 -0.000999818)
(-2.34058e-06 -1.67825e-06 -0.00100046)
(-2.61648e-06 -1.6237e-06 -0.00100123)
(-3.92897e-07 -1.14532e-06 -0.000999602)
(-1.15022e-06 -1.13204e-06 -0.00099983)
(-1.80548e-06 -1.10747e-06 -0.00100027)
(-2.29475e-06 -1.07405e-06 -0.00100089)
(-2.56852e-06 -1.03721e-06 -0.00100164)
(-3.86816e-07 -3.9448e-07 -0.000999867)
(-1.13399e-06 -3.89777e-07 -0.00100009)
(-1.78138e-06 -3.81304e-07 -0.00100052)
(-2.26523e-06 -3.6959e-07 -0.00100113)
(-2.53719e-06 -3.56703e-07 -0.00100186)
(-5.79216e-07 -3.46366e-06 -0.000996844)
(-1.68874e-06 -3.4252e-06 -0.000997202)
(-2.64115e-06 -3.35232e-06 -0.00099789)
(-3.34709e-06 -3.25965e-06 -0.000998843)
(-3.73515e-06 -3.15968e-06 -0.00099998)
(-5.56014e-07 -3.10008e-06 -0.000997945)
(-1.6267e-06 -3.06086e-06 -0.000998275)
(-2.55295e-06 -2.98862e-06 -0.000998919)
(-3.24468e-06 -2.89374e-06 -0.000999819)
(-3.63296e-06 -2.79154e-06 -0.0010009)
(-5.35695e-07 -2.448e-06 -0.00099885)
(-1.57253e-06 -2.4133e-06 -0.000999158)
(-2.47371e-06 -2.35335e-06 -0.00099977)
(-3.14999e-06 -2.27131e-06 -0.00100062)
(-3.53705e-06 -2.18289e-06 -0.00100166)
(-5.17922e-07 -1.57686e-06 -0.000999526)
(-1.52817e-06 -1.55153e-06 -0.000999809)
(-2.41045e-06 -1.51197e-06 -0.00100039)
(-3.07387e-06 -1.45552e-06 -0.00100121)
(-3.45878e-06 -1.39524e-06 -0.0010022)
(-5.07111e-07 -5.44273e-07 -0.0009999)
(-1.50182e-06 -5.35304e-07 -0.00100017)
(-2.37204e-06 -5.22092e-07 -0.00100074)
(-3.02625e-06 -5.02285e-07 -0.00100153)
(-3.40918e-06 -4.81256e-07 -0.0010025)
(-7.82872e-07 -4.76347e-06 -0.000995723)
(-2.28881e-06 -4.69603e-06 -0.000996208)
(-3.5868e-06 -4.57828e-06 -0.000997149)
(-4.55283e-06 -4.43129e-06 -0.000998452)
(-5.09707e-06 -4.27416e-06 -0.00100001)
(-7.39627e-07 -4.26411e-06 -0.000997293)
(-2.17863e-06 -4.19179e-06 -0.00099771)
(-3.43666e-06 -4.07277e-06 -0.000998565)
(-4.38241e-06 -3.91421e-06 -0.000999766)
(-4.93809e-06 -3.74731e-06 -0.00100122)
(-7.05059e-07 -3.36532e-06 -0.00099851)
(-2.09126e-06 -3.2982e-06 -0.000998892)