/*--------------------------------*- C++ -*----------------------------------*\
| =========                 |                                                 |
| \\      /  F ield         | OpenFOAM: The Open Source CFD Toolbox           |
|  \\    /   O peration     | Version:  5.x                                   |
|   \\  /    A nd           | Web:      www.OpenFOAM.org                      |
|    \\/     M anipulation  |                                                 |
\*---------------------------------------------------------------------------*/
FoamFile
{
    version     2.0;
    format      ascii;
    class       volVectorField;
    location    "0.07";
    object      U;
}
// * * * * * * * * * * * * * * * * * * * * * * * * * * * * * * * * * * * * * //

dimensions      [0 1 -1 0 0 0 0];

internalField   nonuniform List<vector> 
2250
(
(-2.31457e-11 -1.80204e-10 -0.000999999)
(-7.90187e-11 -1.81332e-10 -0.000999999)
(-1.4461e-10 -1.83554e-10 -0.000999999)
(-2.10611e-10 -1.84484e-10 -0.000999999)
(-2.09892e-10 -1.89203e-10 -0.001)
(-3.01374e-11 -1.65179e-10 -0.000999999)
(-8.61341e-11 -1.70407e-10 -0.000999999)
(-1.43007e-10 -1.73561e-10 -0.000999999)
(-2.04577e-10 -1.65034e-10 -0.001)
(-2.14268e-10 -1.55894e-10 -0.001)
(-2.79933e-11 -1.30691e-10 -0.000999999)
(-8.70154e-11 -1.32224e-10 -0.000999999)
(-1.39213e-10 -1.31912e-10 -0.001)
(-1.92916e-10 -1.26202e-10 -0.001)
(-2.15638e-10 -1.10762e-10 -0.001)
(-3.13607e-11 -8.13024e-11 -0.000999999)
(-8.70358e-11 -8.32315e-11 -0.001)
(-1.36951e-10 -7.81924e-11 -0.001)
(-1.83398e-10 -7.98437e-11 -0.001)
(-2.08764e-10 -6.27381e-11 -0.001)
(-2.96755e-11 -2.8607e-11 -0.001)
(-8.35371e-11 -2.70403e-11 -0.001)
(-1.35505e-10 -2.53515e-11 -0.001)
(-1.77046e-10 -2.59004e-11 -0.001)
(-2.02745e-10 -1.94131e-11 -0.001)
(-6.99843e-11 -4.90823e-10 -0.000999999)
(-2.30781e-10 -4.9572e-10 -0.000999999)
(-3.98381e-10 -4.90736e-10 -0.000999999)
(-5.46036e-10 -4.70965e-10 -0.000999999)
(-6.05451e-10 -4.50796e-10 -0.001)
(-8.74034e-11 -4.51667e-10 -0.000999999)
(-2.44689e-10 -4.68411e-10 -0.000999999)
(-3.8896e-10 -4.63861e-10 -0.000999999)
(-5.36038e-10 -4.47224e-10 -0.001)
(-5.74433e-10 -4.3179e-10 -0.001)
(-8.57384e-11 -3.56896e-10 -0.000999999)
(-2.4201e-10 -3.48975e-10 -0.000999999)
(-3.77135e-10 -3.45739e-10 -0.001)
(-5.13976e-10 -3.33341e-10 -0.001)
(-5.69272e-10 -3.04807e-10 -0.001)
(-7.87513e-11 -2.23802e-10 -0.000999999)
(-2.32759e-10 -2.18789e-10 -0.001)
(-3.73239e-10 -2.11834e-10 -0.001)
(-4.95048e-10 -2.11493e-10 -0.001)
(-5.65287e-10 -1.88542e-10 -0.001)
(-8.01487e-11 -7.34592e-11 -0.001)
(-2.29123e-10 -7.51212e-11 -0.001)
(-3.69023e-10 -7.04117e-11 -0.001)
(-4.89628e-10 -7.1685e-11 -0.001)
(-5.64255e-10 -6.60206e-11 -0.001)
(-1.43336e-10 -8.55737e-10 -0.000999999)
(-4.30982e-10 -8.47052e-10 -0.000999999)
(-6.80997e-10 -8.24516e-10 -0.000999999)
(-8.60098e-10 -7.63715e-10 -0.000999999)
(-1.11007e-09 -6.48678e-10 -0.001)
(-1.42991e-10 -7.7878e-10 -0.000999999)
(-4.25246e-10 -7.82187e-10 -0.000999999)
(-6.71815e-10 -7.63787e-10 -0.000999999)
(-8.5957e-10 -7.51355e-10 -0.001)
(-1.00652e-09 -7.57108e-10 -0.001)
(-1.45134e-10 -5.91773e-10 -0.000999999)
(-4.14399e-10 -5.89956e-10 -0.000999999)
(-6.50077e-10 -5.73298e-10 -0.001)
(-8.53419e-10 -5.63997e-10 -0.001)
(-9.75707e-10 -5.65976e-10 -0.001)
(-1.40017e-10 -3.71681e-10 -0.000999999)
(-4.05557e-10 -3.6435e-10 -0.001)
(-6.4571e-10 -3.64013e-10 -0.001)
(-8.52156e-10 -3.66929e-10 -0.001)
(-9.79838e-10 -3.73368e-10 -0.001)
(-1.36888e-10 -1.2625e-10 -0.001)
(-4.05193e-10 -1.23578e-10 -0.001)
(-6.51221e-10 -1.26915e-10 -0.001)
(-8.60902e-10 -1.3043e-10 -0.001)
(-9.8494e-10 -1.37437e-10 -0.001)
(-2.3267e-10 -1.26421e-09 -0.000999998)
(-6.71788e-10 -1.25503e-09 -0.000999998)
(-1.03459e-09 -1.22596e-09 -0.000999999)
(-1.30815e-09 -1.15183e-09 -0.000999999)
(-1.61776e-09 -9.92767e-10 -0.001)
(-2.26078e-10 -1.137e-09 -0.000999999)
(-6.41865e-10 -1.12483e-09 -0.000999999)
(-9.99583e-10 -1.09143e-09 -0.000999999)
(-1.27901e-09 -1.07475e-09 -0.001)
(-1.53738e-09 -1.05737e-09 -0.001)
(-2.18352e-10 -8.73811e-10 -0.000999999)
(-6.24032e-10 -8.63267e-10 -0.000999999)
(-9.84372e-10 -8.52801e-10 -0.001)
(-1.27408e-09 -8.47633e-10 -0.001)
(-1.4886e-09 -8.54927e-10 -0.001)
(-2.13943e-10 -5.49117e-10 -0.000999999)
(-6.19144e-10 -5.4458e-10 -0.001)
(-9.8373e-10 -5.52788e-10 -0.001)
(-1.28098e-09 -5.52575e-10 -0.001)
(-1.47849e-09 -5.66393e-10 -0.001)
(-2.12447e-10 -1.86676e-10 -0.001)
(-6.25424e-10 -1.85938e-10 -0.001)
(-9.9022e-10 -1.94531e-10 -0.001)
(-1.28493e-09 -1.94418e-10 -0.001)
(-1.47158e-09 -2.01089e-10 -0.001)
(-3.19864e-10 -1.77398e-09 -0.000999998)
(-9.33808e-10 -1.768e-09 -0.000999998)
(-1.4913e-09 -1.75897e-09 -0.000999998)
(-1.97954e-09 -1.71345e-09 -0.000999999)
(-2.18404e-09 -1.61814e-09 -0.001)
(-3.09541e-10 -1.57864e-09 -0.000999998)
(-9.04791e-10 -1.57294e-09 -0.000999999)
(-1.44524e-09 -1.54989e-09 -0.000999999)
(-1.88769e-09 -1.50642e-09 -0.001)
(-2.17746e-09 -1.40598e-09 -0.001)
(-3.11365e-10 -1.23165e-09 -0.000999999)
(-9.02139e-10 -1.23457e-09 -0.000999999)
(-1.42458e-09 -1.22756e-09 -0.001)
(-1.83561e-09 -1.20396e-09 -0.001)
(-2.12614e-09 -1.15575e-09 -0.001)
(-3.10278e-10 -7.85247e-10 -0.000999999)
(-8.98345e-10 -7.85181e-10 -0.000999999)
(-1.41432e-09 -7.86987e-10 -0.001)
(-1.81567e-09 -7.74569e-10 -0.001)
(-2.09499e-09 -7.63847e-10 -0.001)
(-3.09393e-10 -2.67016e-10 -0.000999999)
(-9.00666e-10 -2.6714e-10 -0.001)
(-1.41099e-09 -2.7152e-10 -0.001)
(-1.80874e-09 -2.66568e-10 -0.001)
(-2.07856e-09 -2.6811e-10 -0.001)
(-4.23813e-10 -2.45307e-09 -0.000999997)
(-1.26766e-09 -2.46137e-09 -0.000999997)
(-2.07259e-09 -2.46624e-09 -0.000999998)
(-2.8029e-09 -2.42704e-09 -0.000999999)
(-3.01124e-09 -2.41918e-09 -0.001)
(-4.35457e-10 -2.19584e-09 -0.000999998)
(-1.2773e-09 -2.21315e-09 -0.000999998)
(-2.04118e-09 -2.20843e-09 -0.000999999)
(-2.6776e-09 -2.15246e-09 -0.001)
(-3.00069e-09 -1.99296e-09 -0.001)
(-4.37291e-10 -1.72798e-09 -0.000999999)
(-1.2762e-09 -1.73108e-09 -0.000999999)
(-2.01159e-09 -1.72621e-09 -0.000999999)
(-2.58735e-09 -1.68607e-09 -0.001)
(-2.948e-09 -1.59583e-09 -0.001)
(-4.35488e-10 -1.09894e-09 -0.000999999)
(-1.2722e-09 -1.10112e-09 -0.000999999)
(-1.99576e-09 -1.0954e-09 -0.001)
(-2.54694e-09 -1.07899e-09 -0.001)
(-2.91422e-09 -1.05211e-09 -0.001)
(-4.36763e-10 -3.74479e-10 -0.000999999)
(-1.26819e-09 -3.77169e-10 -0.001)
(-1.98539e-09 -3.73497e-10 -0.001)
(-2.53901e-09 -3.70582e-10 -0.001)
(-2.90299e-09 -3.7028e-10 -0.001)
(-5.94573e-10 -3.3847e-09 -0.000999996)
(-1.77362e-09 -3.3966e-09 -0.000999997)
(-2.84502e-09 -3.39373e-09 -0.000999997)
(-3.70207e-09 -3.33719e-09 -0.000999998)
(-4.21245e-09 -3.30422e-09 -0.001)
(-6.1413e-10 -3.04162e-09 -0.000999997)
(-1.80224e-09 -3.06451e-09 -0.000999998)
(-2.84738e-09 -3.07029e-09 -0.000999998)
(-3.65909e-09 -3.04108e-09 -0.001)
(-4.12493e-09 -2.96874e-09 -0.001)
(-6.12079e-10 -2.39306e-09 -0.000999998)
(-1.79658e-09 -2.39592e-09 -0.000999999)
(-2.82124e-09 -2.38871e-09 -0.000999999)
(-3.60057e-09 -2.35769e-09 -0.001)
(-4.07089e-09 -2.30749e-09 -0.001)
(-6.1271e-10 -1.52364e-09 -0.000999999)
(-1.79319e-09 -1.52814e-09 -0.000999999)
(-2.80854e-09 -1.51688e-09 -0.001)
(-3.57749e-09 -1.51294e-09 -0.001)
(-4.05097e-09 -1.50149e-09 -0.001)
(-6.12734e-10 -5.23419e-10 -0.000999999)
(-1.7835e-09 -5.25455e-10 -0.001)
(-2.80036e-09 -5.1799e-10 -0.001)
(-3.57821e-09 -5.22523e-10 -0.001)
(-4.05066e-09 -5.25205e-10 -0.001)
(-8.60997e-10 -4.63922e-09 -0.000999995)
(-2.5228e-09 -4.64542e-09 -0.000999995)
(-3.93543e-09 -4.63569e-09 -0.000999997)
(-4.93079e-09 -4.59666e-09 -0.000999998)
(-5.73095e-09 -4.51525e-09 -0.001)
(-8.64681e-10 -4.16984e-09 -0.000999996)
(-2.53044e-09 -4.17928e-09 -0.000999997)
(-3.95154e-09 -4.17602e-09 -0.000999998)
(-4.97596e-09 -4.18249e-09 -0.001)
(-5.66701e-09 -4.23668e-09 -0.001)
(-8.63007e-10 -3.29059e-09 -0.000999998)
(-2.52105e-09 -3.29382e-09 -0.000999998)
(-3.93813e-09 -3.28004e-09 -0.000999999)
(-4.99141e-09 -3.27961e-09 -0.001)
(-5.63298e-09 -3.30967e-09 -0.001)
(-8.61971e-10 -2.10696e-09 -0.000999998)
(-2.5134e-09 -2.10567e-09 -0.000999999)
(-3.93652e-09 -2.0995e-09 -0.001)
(-5.00506e-09 -2.11359e-09 -0.001)
(-5.62835e-09 -2.12718e-09 -0.001)
(-8.56399e-10 -7.26044e-10 -0.000999999)
(-2.50482e-09 -7.23258e-10 -0.000999999)
(-3.93816e-09 -7.23389e-10 -0.001)
(-5.00939e-09 -7.32177e-10 -0.001)
(-5.6263e-09 -7.36822e-10 -0.001)
(-1.22602e-09 -6.33923e-09 -0.000999993)
(-3.54414e-09 -6.33812e-09 -0.000999994)
(-5.46251e-09 -6.32923e-09 -0.000999995)
(-6.80578e-09 -6.34779e-09 -0.000999998)
(-7.70107e-09 -6.33262e-09 -0.001)
(-1.21065e-09 -5.7032e-09 -0.000999995)
(-3.52016e-09 -5.69414e-09 -0.000999996)
(-5.46852e-09 -5.67838e-09 -0.000999997)
(-6.87373e-09 -5.7036e-09 -0.000999999)
(-7.76523e-09 -5.79703e-09 -0.001)
(-1.20684e-09 -4.52016e-09 -0.000999997)
(-3.50849e-09 -4.52089e-09 -0.000999998)
(-5.47128e-09 -4.50649e-09 -0.000999999)
(-6.92441e-09 -4.53009e-09 -0.001)
(-7.77121e-09 -4.57866e-09 -0.001)
(-1.20328e-09 -2.90493e-09 -0.000999998)
(-3.4976e-09 -2.89703e-09 -0.000999999)
(-5.47662e-09 -2.90207e-09 -0.001)
(-6.94517e-09 -2.91841e-09 -0.001)
(-7.77044e-09 -2.92262e-09 -0.001)
(-1.19165e-09 -1.00116e-09 -0.000999999)
(-3.4935e-09 -9.93376e-10 -0.000999999)
(-5.48172e-09 -1.00524e-09 -0.001)
(-6.93149e-09 -1.00859e-09 -0.001)
(-7.74949e-09 -1.00434e-09 -0.00100001)
(-1.69124e-09 -8.68341e-09 -0.000999991)
(-4.88265e-09 -8.67738e-09 -0.000999992)
(-7.54602e-09 -8.66768e-09 -0.000999994)
(-9.50653e-09 -8.72212e-09 -0.000999997)
(-1.05338e-08 -8.80421e-09 -0.001)
(-1.67274e-09 -7.8176e-09 -0.000999993)
(-4.85382e-09 -7.80891e-09 -0.000999994)
(-7.5524e-09 -7.79767e-09 -0.000999996)
(-9.54918e-09 -7.82359e-09 -0.000999999)
(-1.0653e-08 -7.85721e-09 -0.001)
(-1.66875e-09 -6.21226e-09 -0.000999996)
(-4.84794e-09 -6.21428e-09 -0.000999997)
(-7.55976e-09 -6.20282e-09 -0.000999999)
(-9.56602e-09 -6.21895e-09 -0.001)
(-1.06634e-08 -6.20752e-09 -0.001)
(-1.66365e-09 -3.99733e-09 -0.000999997)
(-4.83218e-09 -3.98628e-09 -0.000999998)
(-7.55557e-09 -3.99366e-09 -0.001)
(-9.55289e-09 -3.99412e-09 -0.001)
(-1.06462e-08 -3.95636e-09 -0.00100001)
(-1.64762e-09 -1.37548e-09 -0.000999998)
(-4.82754e-09 -1.36476e-09 -0.000999999)
(-7.55247e-09 -1.38212e-09 -0.001)
(-9.51011e-09 -1.37573e-09 -0.001)
(-1.06005e-08 -1.35709e-09 -0.00100001)
(-2.29915e-09 -1.19208e-08 -0.000999987)
(-6.67705e-09 -1.19197e-08 -0.000999988)
(-1.03818e-08 -1.19027e-08 -0.000999991)
(-1.31672e-08 -1.19211e-08 -0.000999995)
(-1.45949e-08 -1.19831e-08 -0.001)
(-2.29447e-09 -1.07417e-08 -0.000999991)
(-6.66532e-09 -1.07506e-08 -0.000999992)
(-1.03921e-08 -1.07442e-08 -0.000999995)
(-1.31585e-08 -1.07516e-08 -0.000999999)
(-1.46074e-08 -1.06883e-08 -0.001)
(-2.28908e-09 -8.53534e-09 -0.000999994)
(-6.65928e-09 -8.53664e-09 -0.000999995)
(-1.03814e-08 -8.52364e-09 -0.000999998)
(-1.31113e-08 -8.51072e-09 -0.001)
(-1.45682e-08 -8.43275e-09 -0.00100001)
(-2.28047e-09 -5.48244e-09 -0.000999996)
(-6.63686e-09 -5.47633e-09 -0.000999998)
(-1.03642e-08 -5.47885e-09 -0.001)
(-1.30662e-08 -5.46423e-09 -0.001)
(-1.45254e-08 -5.40426e-09 -0.00100001)
(-2.26907e-09 -1.88211e-09 -0.000999997)
(-6.63264e-09 -1.87803e-09 -0.000999999)
(-1.03485e-08 -1.89348e-09 -0.001)
(-1.30111e-08 -1.88181e-09 -0.00100001)
(-1.44664e-08 -1.86274e-09 -0.00100001)
(-3.13532e-09 -1.63475e-08 -0.000999982)
(-9.13198e-09 -1.6352e-08 -0.000999984)
(-1.42246e-08 -1.63227e-08 -0.000999988)
(-1.79859e-08 -1.6282e-08 -0.000999993)
(-2.00797e-08 -1.62306e-08 -0.000999999)
(-3.13555e-09 -1.47395e-08 -0.000999987)
(-9.11935e-09 -1.47537e-08 -0.000999989)
(-1.42221e-08 -1.47384e-08 -0.000999993)
(-1.79649e-08 -1.4723e-08 -0.000999998)
(-1.99415e-08 -1.46401e-08 -0.001)
(-3.12353e-09 -1.16898e-08 -0.000999992)
(-9.10321e-09 -1.16919e-08 -0.000999994)
(-1.41921e-08 -1.16819e-08 -0.000999998)
(-1.78875e-08 -1.16495e-08 -0.001)
(-1.98588e-08 -1.15636e-08 -0.00100001)
(-3.1167e-09 -7.49938e-09 -0.000999995)
(-9.08856e-09 -7.51562e-09 -0.000999997)
(-1.4177e-08 -7.51597e-09 -0.001)
(-1.78448e-08 -7.497e-09 -0.00100001)
(-1.98035e-08 -7.46032e-09 -0.00100001)
(-3.1207e-09 -2.5763e-09 -0.000999997)
(-9.08817e-09 -2.59037e-09 -0.000999999)
(-1.41449e-08 -2.59741e-09 -0.001)
(-1.7797e-08 -2.58501e-09 -0.00100001)
(-1.97481e-08 -2.5827e-09 -0.00100001)
(-4.28248e-09 -2.23412e-08 -0.000999976)
(-1.24571e-08 -2.23443e-08 -0.000999979)
(-1.93926e-08 -2.23108e-08 -0.000999984)
(-2.44346e-08 -2.22448e-08 -0.000999991)
(-2.73434e-08 -2.21225e-08 -0.000999999)
(-4.27018e-09 -2.01384e-08 -0.000999983)
(-1.24338e-08 -2.01479e-08 -0.000999986)
(-1.93928e-08 -2.0135e-08 -0.000999991)
(-2.44525e-08 -2.01189e-08 -0.000999998)
(-2.71443e-08 -2.00882e-08 -0.00100001)
(-4.25667e-09 -1.5967e-08 -0.000999989)
(-1.2416e-08 -1.59866e-08 -0.000999992)
(-1.93611e-08 -1.59848e-08 -0.000999997)
(-2.43876e-08 -1.59441e-08 -0.001)
(-2.70486e-08 -1.58879e-08 -0.00100001)
(-4.26137e-09 -1.02618e-08 -0.000999993)
(-1.24206e-08 -1.03061e-08 -0.000999996)
(-1.93465e-08 -1.02984e-08 -0.001)
(-2.4353e-08 -1.02705e-08 -0.00100001)
(-2.6993e-08 -1.02591e-08 -0.00100002)
(-4.27491e-09 -3.53693e-09 -0.000999995)
(-1.24095e-08 -3.56428e-09 -0.000999998)
(-1.92864e-08 -3.55529e-09 -0.001)
(-2.43005e-08 -3.54069e-09 -0.00100001)
(-2.69372e-08 -3.54801e-09 -0.00100002)
(-5.82999e-09 -3.04718e-08 -0.000999967)
(-1.69573e-08 -3.048e-08 -0.000999971)
(-2.6428e-08 -3.04422e-08 -0.000999978)
(-3.32922e-08 -3.03498e-08 -0.000999988)
(-3.717e-08 -3.01638e-08 -0.000999999)
(-5.81206e-09 -2.74626e-08 -0.000999977)
(-1.69418e-08 -2.74869e-08 -0.000999981)
(-2.64272e-08 -2.74785e-08 -0.000999988)
(-3.32955e-08 -2.74377e-08 -0.000999997)
(-3.69282e-08 -2.7408e-08 -0.00100001)
(-5.80645e-09 -2.18134e-08 -0.000999985)
(-1.69221e-08 -2.18563e-08 -0.000999989)
(-2.63755e-08 -2.1834e-08 -0.000999995)
(-3.32215e-08 -2.1759e-08 -0.00100001)
(-3.68073e-08 -2.17003e-08 -0.00100002)
(-5.81642e-09 -1.40524e-08 -0.000999991)
(-1.69204e-08 -1.40988e-08 -0.000999994)
(-2.63248e-08 -1.40601e-08 -0.001)
(-3.31583e-08 -1.40022e-08 -0.00100001)
(-3.67382e-08 -1.39711e-08 -0.00100002)
(-5.81746e-09 -4.85231e-09 -0.000999994)
(-1.68711e-08 -4.87219e-09 -0.000999998)
(-2.62256e-08 -4.84318e-09 -0.001)
(-3.30673e-08 -4.82274e-09 -0.00100001)
(-3.66523e-08 -4.81414e-09 -0.00100003)
(-7.94042e-09 -4.15861e-08 -0.000999956)
(-2.31274e-08 -4.16017e-08 -0.000999961)
(-3.60726e-08 -4.15148e-08 -0.00099997)
(-4.54409e-08 -4.13322e-08 -0.000999983)
(-5.05411e-08 -4.10263e-08 -0.000999999)
(-7.92652e-09 -3.75064e-08 -0.000999969)
(-2.30947e-08 -3.75488e-08 -0.000999974)
(-3.59893e-08 -3.74818e-08 -0.000999983)
(-4.52986e-08 -3.73426e-08 -0.000999996)
(-5.02058e-08 -3.72025e-08 -0.00100001)
(-7.91779e-09 -2.98259e-08 -0.000999979)
(-2.30334e-08 -2.98602e-08 -0.000999985)
(-3.58621e-08 -2.97652e-08 -0.000999994)
(-4.51614e-08 -2.96187e-08 -0.00100001)
(-5.00208e-08 -2.95109e-08 -0.00100002)
(-7.90842e-09 -1.92165e-08 -0.000999987)
(-2.29766e-08 -1.9228e-08 -0.000999992)
(-3.57408e-08 -1.91401e-08 -0.001)
(-4.50397e-08 -1.90416e-08 -0.00100001)
(-4.99107e-08 -1.89601e-08 -0.00100003)
(-7.8812e-09 -6.62828e-09 -0.000999992)
(-2.28769e-08 -6.62666e-09 -0.000999997)
(-3.56031e-08 -6.58321e-09 -0.00100001)
(-4.48926e-08 -6.55664e-09 -0.00100002)
(-4.97649e-08 -6.52064e-09 -0.00100003)
(-1.08443e-08 -5.68011e-08 -0.00099994)
(-3.15686e-08 -5.67993e-08 -0.000999947)
(-4.91538e-08 -5.66022e-08 -0.00099996)
(-6.18174e-08 -5.62859e-08 -0.000999977)
(-6.86524e-08 -5.58293e-08 -0.000999998)
(-1.08122e-08 -5.12768e-08 -0.000999957)
(-3.14401e-08 -5.12932e-08 -0.000999964)
(-4.89131e-08 -5.10938e-08 -0.000999977)
(-6.15234e-08 -5.08261e-08 -0.000999995)
(-6.82078e-08 -5.05753e-08 -0.00100002)
(-1.07722e-08 -4.07502e-08 -0.000999972)
(-3.1291e-08 -4.07336e-08 -0.000999979)
(-4.86806e-08 -4.05426e-08 -0.000999992)
(-6.12986e-08 -4.03207e-08 -0.00100001)
(-6.7929e-08 -4.0149e-08 -0.00100003)
(-1.07243e-08 -2.62105e-08 -0.000999983)
(-3.11544e-08 -2.61751e-08 -0.00099999)
(-4.84905e-08 -2.60443e-08 -0.001)
(-6.11234e-08 -2.59131e-08 -0.00100002)
(-6.77471e-08 -2.57936e-08 -0.00100004)
(-1.06715e-08 -9.02184e-09 -0.000999989)
(-3.1016e-08 -9.0038e-09 -0.000999996)
(-4.83198e-08 -8.95772e-09 -0.00100001)
(-6.09269e-08 -8.92525e-09 -0.00100003)
(-6.75268e-08 -8.87634e-09 -0.00100005)
(-1.47969e-08 -7.7559e-08 -0.000999918)
(-4.29849e-08 -7.75127e-08 -0.000999928)
(-6.68012e-08 -7.71802e-08 -0.000999945)
(-8.39556e-08 -7.67296e-08 -0.000999969)
(-9.31757e-08 -7.61375e-08 -0.000999997)
(-1.47109e-08 -7.00287e-08 -0.000999942)
(-4.27059e-08 -6.99738e-08 -0.000999951)
(-6.63902e-08 -6.96272e-08 -0.000999969)
(-8.35394e-08 -6.92299e-08 -0.000999993)
(-9.26447e-08 -6.88663e-08 -0.00100002)
(-1.4622e-08 -5.55777e-08 -0.000999962)
(-4.24549e-08 -5.55019e-08 -0.000999972)
(-6.60491e-08 -5.52279e-08 -0.000999989)
(-8.31942e-08 -5.49257e-08 -0.00100001)
(-9.22378e-08 -5.46504e-08 -0.00100004)
(-1.45385e-08 -3.56882e-08 -0.000999977)
(-4.225e-08 -3.56256e-08 -0.000999986)
(-6.58008e-08 -3.54666e-08 -0.001)
(-8.29532e-08 -3.52974e-08 -0.00100003)
(-9.19473e-08 -3.51342e-08 -0.00100005)
(-1.44708e-08 -1.22699e-08 -0.000999985)
(-4.20853e-08 -1.22494e-08 -0.000999994)
(-6.55861e-08 -1.22063e-08 -0.00100001)
(-8.26969e-08 -1.21604e-08 -0.00100003)
(-9.16328e-08 -1.21068e-08 -0.00100006)
(-2.01228e-08 -1.05828e-07 -0.000999889)
(-5.83818e-08 -1.05726e-07 -0.000999902)
(-9.07302e-08 -1.0524e-07 -0.000999925)
(-1.1418e-07 -1.04619e-07 -0.000999958)
(-1.26539e-07 -1.03863e-07 -0.000999997)
(-1.99663e-08 -9.54947e-08 -0.000999921)
(-5.79475e-08 -9.53638e-08 -0.000999934)
(-9.01304e-08 -9.48807e-08 -0.000999958)
(-1.13532e-07 -9.42869e-08 -0.00099999)
(-1.25844e-07 -9.3664e-08 -0.00100003)
(-1.98293e-08 -7.57145e-08 -0.000999949)
(-5.75937e-08 -7.56044e-08 -0.000999962)
(-8.96421e-08 -7.52439e-08 -0.000999985)
(-1.12962e-07 -7.47942e-08 -0.00100002)
(-1.25229e-07 -7.42935e-08 -0.00100006)
(-1.97254e-08 -4.85852e-08 -0.000999969)
(-5.73332e-08 -4.85208e-08 -0.000999982)
(-8.93025e-08 -4.832e-08 -0.001)
(-1.1257e-07 -4.80624e-08 -0.00100004)
(-1.24777e-07 -4.77699e-08 -0.00100007)
(-1.96447e-08 -1.67052e-08 -0.00099998)
(-5.71274e-08 -1.66886e-08 -0.000999992)
(-8.89999e-08 -1.66369e-08 -0.00100002)
(-1.12188e-07 -1.65575e-08 -0.00100005)
(-1.24317e-07 -1.64684e-08 -0.00100009)
(-2.73105e-08 -1.44359e-07 -0.000999849)
(-7.92507e-08 -1.44185e-07 -0.000999866)
(-1.23293e-07 -1.43471e-07 -0.000999898)
(-1.55376e-07 -1.4253e-07 -0.000999943)
(-1.72067e-07 -1.41433e-07 -0.000999996)
(-2.70829e-08 -1.30148e-07 -0.000999893)
(-7.86496e-08 -1.29956e-07 -0.00099991)
(-1.22426e-07 -1.29295e-07 -0.000999942)
(-1.54311e-07 -1.28373e-07 -0.000999987)
(-1.70987e-07 -1.27302e-07 -0.00100004)
(-2.6899e-08 -1.03149e-07 -0.000999931)
(-7.81615e-08 -1.03018e-07 -0.000999948)
(-1.21694e-07 -1.0251e-07 -0.00099998)
(-1.53382e-07 -1.01793e-07 -0.00100002)
(-1.70009e-07 -1.00932e-07 -0.00100007)
(-2.67755e-08 -6.61945e-08 -0.000999958)
(-7.7816e-08 -6.61264e-08 -0.000999975)
(-1.21176e-07 -6.58269e-08 -0.00100001)
(-1.52718e-07 -6.53961e-08 -0.00100005)
(-1.69303e-07 -6.48682e-08 -0.0010001)
(-2.66678e-08 -2.27716e-08 -0.000999973)
(-7.75205e-08 -2.27511e-08 -0.00099999)
(-1.20713e-07 -2.26636e-08 -0.00100002)
(-1.52117e-07 -2.2522e-08 -0.00100006)
(-1.68621e-07 -2.23551e-08 -0.00100012)
(-3.70773e-08 -1.96952e-07 -0.000999795)
(-1.07671e-07 -1.96659e-07 -0.000999818)
(-1.67623e-07 -1.9557e-07 -0.000999862)
(-2.11324e-07 -1.9408e-07 -0.000999923)
(-2.34026e-07 -1.9237e-07 -0.000999994)
(-3.67597e-08 -1.77426e-07 -0.000999855)
(-1.06807e-07 -1.77151e-07 -0.000999878)
(-1.6631e-07 -1.76164e-07 -0.000999922)
(-2.09634e-07 -1.74736e-07 -0.000999982)
(-2.32337e-07 -1.7304e-07 -0.00100005)
(-3.65049e-08 -1.40607e-07 -0.000999907)
(-1.0609e-07 -1.40418e-07 -0.00099993)
(-1.65187e-07 -1.39638e-07 -0.000999973)
(-2.08199e-07 -1.38516e-07 -0.00100003)
(-2.30818e-07 -1.37178e-07 -0.0010001)
(-3.63308e-08 -9.02543e-08 -0.000999944)
(-1.05575e-07 -9.01409e-08 -0.000999967)
(-1.64375e-07 -8.96545e-08 -0.00100001)
(-2.07151e-07 -8.89561e-08 -0.00100007)
(-2.2971e-07 -8.81164e-08 -0.00100014)
(-3.61704e-08 -3.10572e-08 -0.000999964)
(-1.05119e-07 -3.10152e-08 -0.000999987)
(-1.6366e-07 -3.08562e-08 -0.00100003)
(-2.06243e-07 -3.06202e-08 -0.00100009)
(-2.28699e-07 -3.03456e-08 -0.00100016)
(-5.03807e-08 -2.68801e-07 -0.000999721)
(-1.46378e-07 -2.68296e-07 -0.000999753)
(-2.27906e-07 -2.66612e-07 -0.000999812)
(-2.87309e-07 -2.64287e-07 -0.000999895)
(-3.18163e-07 -2.61711e-07 -0.000999992)
(-4.99189e-08 -2.42012e-07 -0.000999804)
(-1.45062e-07 -2.41565e-07 -0.000999835)
(-2.2587e-07 -2.40014e-07 -0.000999894)
(-2.84717e-07 -2.37827e-07 -0.000999975)
(-3.156e-07 -2.35244e-07 -0.00100007)
(-4.95322e-08 -1.91773e-07 -0.000999874)
(-1.43949e-07 -1.91427e-07 -0.000999905)
(-2.2414e-07 -1.90198e-07 -0.000999963)
(-2.82537e-07 -1.88478e-07 -0.00100004)
(-3.13317e-07 -1.86451e-07 -0.00100014)
(-4.92497e-08 -1.23096e-07 -0.000999925)
(-1.43131e-07 -1.22866e-07 -0.000999956)
(-2.22877e-07 -1.22078e-07 -0.00100001)
(-2.80941e-07 -1.20985e-07 -0.00100009)
(-3.1159e-07 -1.19705e-07 -0.00100019)
(-4.90031e-08 -4.2354e-08 -0.000999952)
(-1.42426e-07 -4.22684e-08 -0.000999983)
(-2.21792e-07 -4.19965e-08 -0.00100004)
(-2.79593e-07 -4.162e-08 -0.00100012)
(-3.10102e-07 -4.11931e-08 -0.00100021)
(-6.84808e-08 -3.67033e-07 -0.000999621)
(-1.98993e-07 -3.66161e-07 -0.000999664)
(-3.09779e-07 -3.63531e-07 -0.000999745)
(-3.9048e-07 -3.59917e-07 -0.000999857)
(-4.32684e-07 -3.55951e-07 -0.000999989)
(-6.77805e-08 -3.30288e-07 -0.000999734)
(-1.9696e-07 -3.29512e-07 -0.000999777)
(-3.06655e-07 -3.27077e-07 -0.000999857)
(-3.86601e-07 -3.2376e-07 -0.000999967)
(-4.28636e-07 -3.19892e-07 -0.0010001)
(-6.71631e-08 -2.6164e-07 -0.00099983)
(-1.95199e-07 -2.60993e-07 -0.000999872)
(-3.03988e-07 -2.59053e-07 -0.000999951)
(-3.83292e-07 -2.56418e-07 -0.00100006)
(-4.25132e-07 -2.5334e-07 -0.00100019)
(-6.66976e-08 -1.67888e-07 -0.000999899)
(-1.93892e-07 -1.67454e-07 -0.000999941)
(-3.02019e-07 -1.66197e-07 -0.00100002)
(-3.80848e-07 -1.64494e-07 -0.00100013)
(-4.22457e-07 -1.62544e-07 -0.00100025)
(-6.63237e-08 -5.77481e-08 -0.000999937)
(-1.92822e-07 -5.75928e-08 -0.000999978)
(-3.00392e-07 -5.71527e-08 -0.00100006)
(-3.7886e-07 -5.65619e-08 -0.00100016)
(-4.20283e-07 -5.59079e-08 -0.00100029)
(-9.31088e-08 -5.01441e-07 -0.000999485)
(-2.70493e-07 -4.99943e-07 -0.000999544)
(-4.21011e-07 -4.95833e-07 -0.000999654)
(-5.30681e-07 -4.90236e-07 -0.000999806)
(-5.88537e-07 -4.83919e-07 -0.000999985)
(-9.19889e-08 -4.50957e-07 -0.00099964)
(-2.67307e-07 -4.49579e-07 -0.000999698)
(-4.16215e-07 -4.45783e-07 -0.000999806)
(-5.24789e-07 -4.40691e-07 -0.000999956)
(-5.82137e-07 -4.34819e-07 -0.00100013)
(-9.10012e-08 -3.57029e-07 -0.000999771)
(-2.64533e-07 -3.55883e-07 -0.000999828)
(-4.12071e-07 -3.52826e-07 -0.000999935)
(-5.19713e-07 -3.48719e-07 -0.00100008)
(-5.7664e-07 -3.44018e-07 -0.00100026)
(-9.02574e-08 -2.28992e-07 -0.000999865)
(-2.62456e-07 -2.28238e-07 -0.000999922)
(-4.08969e-07 -2.26247e-07 -0.00100003)
(-5.15926e-07 -2.23577e-07 -0.00100017)
(-5.72491e-07 -2.20551e-07 -0.00100035)
(-8.96996e-08 -7.87435e-08 -0.000999917)
(-2.60857e-07 -7.84825e-08 -0.000999973)
(-4.06541e-07 -7.77907e-08 -0.00100008)
(-5.12952e-07 -7.68696e-08 -0.00100022)
(-5.69272e-07 -7.58329e-08 -0.00100039)
(-1.26586e-07 -6.85415e-07 -0.000999301)
(-3.67661e-07 -6.82904e-07 -0.000999381)
(-5.72257e-07 -6.76505e-07 -0.000999531)
(-7.21416e-07 -6.67892e-07 -0.000999738)
(-8.00174e-07 -6.58103e-07 -0.000999981)
(-1.24783e-07 -6.15932e-07 -0.000999513)
(-3.62647e-07 -6.13546e-07 -0.000999591)
(-5.6479e-07 -6.07597e-07 -0.000999738)
(-7.12273e-07 -5.99617e-07 -0.000999941)
(-7.90402e-07 -5.90505e-07 -0.00100018)
(-1.2322e-07 -4.87329e-07 -0.000999692)
(-3.58268e-07 -4.85376e-07 -0.000999769)
(-5.58257e-07 -4.80524e-07 -0.000999913)
(-7.0432e-07 -4.74034e-07 -0.00100011)
(-7.81825e-07 -4.66666e-07 -0.00100035)
(-1.22044e-07 -3.12444e-07 -0.000999821)
(-3.5497e-07 -3.11167e-07 -0.000999898)
(-5.53334e-07 -3.0801e-07 -0.00100004)
(-6.9834e-07 -3.0377e-07 -0.00100024)
(-7.75328e-07 -2.98939e-07 -0.00100047)
(-1.21204e-07 -1.07426e-07 -0.000999892)
(-3.52569e-07 -1.06988e-07 -0.000999967)
(-5.49671e-07 -1.05906e-07 -0.00100011)
(-6.93793e-07 -1.04441e-07 -0.0010003)
(-7.70462e-07 -1.02751e-07 -0.00100053)
(-1.72044e-07 -9.37425e-07 -0.000999052)
(-4.99722e-07 -9.33254e-07 -0.000999161)
(-7.77911e-07 -9.23197e-07 -0.000999365)
(-9.80815e-07 -9.0983e-07 -0.000999646)
(-1.08799e-06 -8.94843e-07 -0.000999977)
(-1.692e-07 -8.41655e-07 -0.000999342)
(-4.91812e-07 -8.37629e-07 -0.000999448)
(-7.66167e-07 -8.2818e-07 -0.000999648)
(-9.66597e-07 -8.15594e-07 -0.000999923)
(-1.07298e-06 -8.0137e-07 -0.00100025)
(-1.66705e-07 -6.6548e-07 -0.000999587)
(-4.84825e-07 -6.62151e-07 -0.000999691)
(-7.55778e-07 -6.54382e-07 -0.000999886)
(-9.53999e-07 -6.44038e-07 -0.00100016)
(-1.05955e-06 -6.32328e-07 -0.00100047)
(-1.64819e-07 -4.26546e-07 -0.000999764)
(-4.79543e-07 -4.24353e-07 -0.000999867)
(-7.47899e-07 -4.19277e-07 -0.00100006)
(-9.4444e-07 -4.12453e-07 -0.00100032)
(-1.04932e-06 -4.04727e-07 -0.00100064)
(-1.63517e-07 -1.46657e-07 -0.00099986)
(-4.75841e-07 -1.45902e-07 -0.000999962)
(-7.42251e-07 -1.44158e-07 -0.00100015)
(-9.37455e-07 -1.41782e-07 -0.00100041)
(-1.04187e-06 -1.39081e-07 -0.00100072)
(-2.33808e-07 -1.28301e-06 -0.000998716)
(-6.79232e-07 -1.27597e-06 -0.000998863)
(-1.05755e-06 -1.26003e-06 -0.00099914)
(-1.3337e-06 -1.23912e-06 -0.000999523)
(-1.47995e-06 -1.21585e-06 -0.000999974)
(-2.29265e-07 -1.15071e-06 -0.000999113)
(-6.66603e-07 -1.14387e-06 -0.000999256)
(-1.03896e-06 -1.12872e-06 -0.000999526)
(-1.31143e-06 -1.10876e-06 -0.000999899)
(-1.45654e-06 -1.08643e-06 -0.00100034)
(-2.25218e-07 -9.09207e-07 -0.000999448)
(-6.55337e-07 -9.03475e-07 -0.000999588)
(-1.0223e-06 -8.90919e-07 -0.00099985)
(-1.2914e-06 -8.74258e-07 -0.00100021)
(-1.43537e-06 -8.55636e-07 -0.00100064)
(-2.22131e-07 -5.8269e-07 -0.000999691)
(-6.46747e-07 -5.78862e-07 -0.000999827)
(-1.00953e-06 -5.70555e-07 -0.00100008)
(-1.27601e-06 -5.59463e-07 -0.00100044)
(-1.41915e-06 -5.47084e-07 -0.00100086)
(-2.20052e-07 -2.0037e-07 -0.000999823)
(-6.40877e-07 -1.99032e-07 -0.000999957)
(-1.00068e-06 -1.96141e-07 -0.00100021)
(-1.2652e-06 -1.92275e-07 -0.00100056)
(-1.40763e-06 -1.87951e-07 -0.00100098)
(-3.17691e-07 -1.75725e-06 -0.00099826)
(-9.23234e-07 -1.74529e-06 -0.000998461)
(-1.43804e-06 -1.71991e-06 -0.000998838)
(-1.81411e-06 -1.68707e-06 -0.000999359)
(-2.01339e-06 -1.65106e-06 -0.000999973)
(-3.10284e-07 -1.57409e-06 -0.000998806)
(-9.02812e-07 -1.56235e-06 -0.000998999)
(-1.40827e-06 -1.53784e-06 -0.000999364)
(-1.77887e-06 -1.50575e-06 -0.000999868)
(-1.97709e-06 -1.47051e-06 -0.00100046)
(-3.03627e-07 -1.2429e-06 -0.000999265)
(-8.84438e-07 -1.23291e-06 -0.000999451)
(-1.38127e-06 -1.21237e-06 -0.000999804)
(-1.74677e-06 -1.18524e-06 -0.00100029)
(-1.9437e-06 -1.15543e-06 -0.00100087)
(-2.98441e-07 -7.96748e-07 -0.000999598)
(-8.70193e-07 -7.89936e-07 -0.000999778)
(-1.3603e-06 -7.76216e-07 -0.00100012)
(-1.72175e-06 -7.57992e-07 -0.0010006)
(-1.91773e-06 -7.37919e-07 -0.00100116)
(-2.95026e-07 -2.74093e-07 -0.000999779)
(-8.60759e-07 -2.71679e-07 -0.000999957)
(-1.34627e-06 -2.66899e-07 -0.00100029)
(-1.70473e-06 -2.60527e-07 -0.00100076)
(-1.89976e-06 -2.53487e-07 -0.00100132)
(-4.31645e-07 -2.40868e-06 -0.000997645)
(-1.25521e-06 -2.3882e-06 -0.000997917)
(-1.95616e-06 -2.34734e-06 -0.000998432)
(-2.4685e-06 -2.29545e-06 -0.000999142)
(-2.7404e-06 -2.23994e-06 -0.000999979)
(-4.19227e-07 -2.15487e-06 -0.000998397)
(-1.22146e-06 -2.13434e-06 -0.000998655)
(-1.90775e-06 -2.0941e-06 -0.000999147)
(-2.41232e-06 -2.04194e-06 -0.000999829)
(-2.68415e-06 -1.98594e-06 -0.00100064)
(-4.08048e-07 -1.70048e-06 -0.000999024)
(-1.19107e-06 -1.68264e-06 -0.000999271)
(-1.86352e-06 -1.64873e-06 -0.000999743)
(-2.36032e-06 -1.60395e-06 -0.0010004)
(-2.63136e-06 -1.55571e-06 -0.00100118)
(-3.98949e-07 -1.09135e-06 -0.000999483)
(-1.16694e-06 -1.07882e-06 -0.000999718)
(-1.82867e-06 -1.05615e-06 -0.00100018)
(-2.31905e-06 -1.0257e-06 -0.00100081)
(-2.58918e-06 -9.92827e-07 -0.00100157)
(-3.93141e-07 -3.75835e-07 -0.000999735)
(-1.15162e-06 -3.71376e-07 -0.000999964)
(-1.8062e-06 -3.63571e-07 -0.00100041)
(-2.29184e-06 -3.52881e-07 -0.00100103)
(-2.56088e-06 -3.41337e-07 -0.00100178)
(-5.86607e-07 -3.30467e-06 -0.000996809)
(-1.70765e-06 -3.26885e-06 -0.000997179)
(-2.6629e-06 -3.20236e-06 -0.000997884)
(-3.36157e-06 -3.1197e-06 -0.000998855)
(-3.73459e-06 -3.03338e-06 -0.001)
(-5.64696e-07 -2.95341e-06 -0.000997855)
(-1.64984e-06 -2.91627e-06 -0.000998197)
(-2.58235e-06 -2.84942e-06 -0.00099886)
(-3.27029e-06 -2.76315e-06 -0.000999781)
(-3.64693e-06 -2.67284e-06 -0.00100088)
(-5.4549e-07 -2.32936e-06 -0.00099871)
(-1.59922e-06 -2.29616e-06 -0.000999031)
(-2.50946e-06 -2.24032e-06 -0.000999664)
(-3.18498e-06 -2.16488e-06 -0.00100054)
(-3.56324e-06 -2.08574e-06 -0.00100159)
(-5.28366e-07 -1.49994e-06 -0.000999351)
(-1.55718e-06 -1.47544e-06 -0.000999645)
(-2.45055e-06 -1.4385e-06 -0.00100025)
(-3.11536e-06 -1.38616e-06 -0.00100109)
(-3.49372e-06 -1.33172e-06 -0.0010021)
(-5.17887e-07 -5.17661e-07 -0.000999706)
(-1.53206e-06 -5.08988e-07 -0.000999985)
(-2.41442e-06 -4.96713e-07 -0.00100058)
(-3.07108e-06 -4.78325e-07 -0.00100139)
(-3.44866e-06 -4.59316e-07 -0.00100238)
(-7.97572e-07 -4.53837e-06 -0.000995662)
(-2.32671e-06 -4.47424e-06 -0.000996168)
(-3.63148e-06 -4.3651e-06 -0.000997143)
(-4.58485e-06 -4.23223e-06 -0.000998479)
(-5.10216e-06 -4.09497e-06 -0.00100005)
(-7.55687e-07 -4.05577e-06 -0.000997155)
(-2.22159e-06 -3.98566e-06 -0.000997593)
(-3.49145e-06 -3.87359e-06 -0.000998483)
(-4.43016e-06 -3.72676e-06 -0.000999721)
(-4.96497e-06 -3.57708e-06 -0.0010012)
(-7.22434e-07 -3.19598e-06 -0.0009983)
(-2.13878e-06 -3.13019e-06 -0.000998703)
(-3.37214e-06 -3.04099e-06 -0.000999556)
(-4.28831e-06 -2.90993e-06 -0.00100072)
(-4.83347e-06 -2.77815e-06 -0.00100212)