/*--------------------------------*- C++ -*----------------------------------*\
| =========                 |                                                 |
| \\      /  F ield         | OpenFOAM: The Open Source CFD Toolbox           |
|  \\    /   O peration     | Version:  5.x                                   |
|   \\  /    A nd           | Web:      www.OpenFOAM.org                      |
|    \\/     M anipulation  |                                                 |
\*---------------------------------------------------------------------------*/
FoamFile
{
    version     2.0;
    format      ascii;
    class       volScalarField;
    location    "500";
    object      p;
}
// * * * * * * * * * * * * * * * * * * * * * * * * * * * * * * * * * * * * * //

dimensions      [0 2 -2 0 0 0 0];

internalField   nonuniform List<scalar> 
90
(
0.019253
0.0596911
0.115037
0.16607
0.218805
0.269559
0.319678
0.368166
0.415201
0.460414
0.50373
0.544934
0.583887
0.62042
0.654398
0.685687
0.714173
0.739778
0.762444
0.782122
0.798759
0.81231
0.822736
0.829997
0.834059
0.834888
0.832448
0.826707
0.817632
0.80519
0.789347
0.770071
0.747327
0.721082
0.691309
0.657975
0.621031
0.580416
0.53605
0.487836
0.435655
0.379334
0.318639
0.253325
0.183181
0.108029
0.0277264
-0.0578461
-0.148775
-0.245101
-0.346808
-0.453821
-0.566002
-0.683153
-0.80502
-0.931302
-1.06166
-1.19575
-1.33321
-1.47368
-1.61685
-1.7624
-1.9101
-2.05972
-2.2111
-2.36409
-2.51853
-2.67423
-2.83109
-2.98906
-3.14817
-3.30866
-3.47079
-3.63472
-3.80054
-3.96836
-4.13825
-4.31024
-4.4844
-4.66075
-4.83942
-5.02053
-5.20393
-5.38881
-5.57485
-5.76614
-5.97087
-6.18128
-6.34013
-6.35058
)
;

boundaryField
{
    inlet
    {
        type            zeroGradient;
    }
    outlet
    {
        type            fixedValue;
        value           uniform 0;
    }
    repeat_boundary
    {
        type            zeroGradient;
    }
    procBoundary0to1
    {
        type            processor;
        value           nonuniform List<scalar> 
90
(
0.0473777
0.10133
0.154593
0.203785
0.254409
0.303903
0.35307
0.401091
0.447991
0.493464
0.537371
0.579566
0.619947
0.658198
0.694204
0.727713
0.758593
0.786826
0.812291
0.834914
0.85458
0.87117
0.884546
0.894563
0.90106
0.903872
0.902828
0.897753
0.888479
0.874842
0.856693
0.833899
0.806348
0.773954
0.736657
0.694429
0.64727
0.595195
0.538245
0.476601
0.410579
0.340123
0.264031
0.181056
0.0911361
-0.00538801
-0.108187
-0.216929
-0.33127
-0.450847
-0.575284
-0.704184
-0.83714
-0.973735
-1.11355
-1.25617
-1.40122
-1.54834
-1.69719
-1.84749
-1.999
-2.15157
-2.30504
-2.45936
-2.61457
-2.7708
-2.92802
-3.08574
-3.24366
-3.40209
-3.56141
-3.72196
-3.88392
-4.04738
-4.21241
-4.379
-4.54715
-4.71681
-4.88791
-5.06041
-5.23425
-5.40938
-5.58561
-5.7625
-5.9399
-6.1195
-6.3053
-6.49622
-6.66686
-6.74311
)
;
    }
    procBoundary0to2
    {
        type            processor;
        value           nonuniform List<scalar> 
90
(
-0.0519943
-0.039498
0.030165
0.0929959
0.159053
0.219945
0.279852
0.336825
0.392168
0.445322
0.496667
0.546037
0.593474
0.638809
0.681905
0.722668
0.760898
0.796545
0.829423
0.859398
0.886306
0.909977
0.930231
0.946891
0.959777
0.968717
0.973543
0.974101
0.970248
0.961855
0.948809
0.931011
0.908382
0.880852
0.848358
0.810852
0.768306
0.720704
0.667995
0.610107
0.547006
0.478735
0.405401
0.327101
0.243899
0.155836
0.0629476
-0.0347123
-0.137065
-0.244011
-0.355432
-0.471182
-0.591109
-0.7151
-0.843027
-0.974682
-1.10982
-1.24819
-1.38953
-1.53358
-1.68009
-1.82881
-1.97951
-2.13199
-2.28611
-2.44168
-2.59859
-2.75713
-2.91776
-3.07938
-3.23817
-3.39357
-3.54782
-3.70152
-3.85524
-4.00936
-4.1639
-4.31884
-4.47401
-4.62915
-4.78375
-4.93706
-5.08853
-5.23856
-5.38677
-5.52421
-5.63482
-5.74147
-5.95409
-6.3005
)
;
    }
}


// ************************************************************************* //
