/*--------------------------------*- C++ -*----------------------------------*\
| =========                 |                                                 |
| \\      /  F ield         | OpenFOAM: The Open Source CFD Toolbox           |
|  \\    /   O peration     | Version:  5.x                                   |
|   \\  /    A nd           | Web:      www.OpenFOAM.org                      |
|    \\/     M anipulation  |                                                 |
\*---------------------------------------------------------------------------*/
FoamFile
{
    version     2.0;
    format      ascii;
    class       surfaceScalarField;
    location    "500";
    object      phi;
}
// * * * * * * * * * * * * * * * * * * * * * * * * * * * * * * * * * * * * * //

dimensions      [0 3 -1 0 0 0 0];

internalField   nonuniform List<scalar> 
89
(
-119.932
-119.694
-119.44
-119.173
-118.894
-118.606
-118.308
-118.004
-117.695
-117.382
-117.068
-116.753
-116.44
-116.131
-115.829
-115.536
-115.256
-114.99
-114.742
-114.514
-114.31
-114.132
-113.982
-113.863
-113.776
-113.722
-113.704
-113.721
-113.773
-113.862
-113.985
-114.143
-114.333
-114.554
-114.803
-115.078
-115.376
-115.694
-116.028
-116.374
-116.728
-117.086
-117.445
-117.8
-118.148
-118.485
-118.808
-119.112
-119.394
-119.652
-119.884
-120.087
-120.262
-120.407
-120.521
-120.607
-120.663
-120.692
-120.693
-120.667
-120.617
-120.541
-120.442
-120.319
-120.174
-120.007
-119.818
-119.607
-119.374
-119.117
-118.837
-118.532
-118.203
-117.851
-117.475
-117.078
-116.659
-116.22
-115.761
-115.284
-114.789
-114.279
-113.754
-113.217
-112.671
-112.117
-111.554
-110.994
-110.458
)
;

boundaryField
{
    inlet
    {
        type            calculated;
        value           uniform -109.935;
    }
    outlet
    {
        type            calculated;
        value           uniform 120.154;
    }
    repeat_boundary
    {
        type            calculated;
        value           uniform 0;
    }
    procBoundary0to1
    {
        type            processor;
        value           nonuniform List<scalar> 
90
(
0.156118
0.161225
0.17445
0.184085
0.194533
0.203835
0.212858
0.221319
0.229466
0.237318
0.245036
0.252785
0.260853
0.269447
0.278813
0.289218
0.300927
0.314122
0.329009
0.345729
0.364389
0.385041
0.407685
0.432263
0.458665
0.486723
0.516225
0.546916
0.578509
0.610695
0.64315
0.675551
0.707578
0.73893
0.769328
0.798521
0.826293
0.852465
0.876898
0.899475
0.920139
0.938982
0.956323
0.972189
0.986288
0.998245
1.00775
1.01458
1.01861
1.0198
1.0182
1.01395
1.00724
0.998322
0.987473
0.975009
0.961255
0.946532
0.931152
0.915408
0.899566
0.88386
0.86848
0.853583
0.839317
0.825756
0.812922
0.800345
0.788145
0.776397
0.765099
0.754161
0.74347
0.732959
0.722555
0.712192
0.701817
0.691386
0.68087
0.670251
0.659518
0.648682
0.63782
0.627057
0.616482
0.605916
0.594455
0.584823
0.565796
0.550274
)
;
    }
    procBoundary0to2
    {
        type            processor;
        value           nonuniform List<scalar> 
90
(
-0.37827
-0.399211
-0.428392
-0.450791
-0.473456
-0.492479
-0.510063
-0.525218
-0.538659
-0.550084
-0.559772
-0.567641
-0.573765
-0.578138
-0.580858
-0.582
-0.581653
-0.579973
-0.577101
-0.573226
-0.568541
-0.563252
-0.557564
-0.551682
-0.5458
-0.540102
-0.534756
-0.529911
-0.525702
-0.522249
-0.51966
-0.518038
-0.517484
-0.518104
-0.520009
-0.523323
-0.528187
-0.534747
-0.543151
-0.553537
-0.566033
-0.580739
-0.597705
-0.61688
-0.638095
-0.661059
-0.685381
-0.710598
-0.736208
-0.761701
-0.786585
-0.810424
-0.832858
-0.853616
-0.87253
-0.889551
-0.904731
-0.9182
-0.93015
-0.940814
-0.950456
-0.959354
-0.967783
-0.976013
-0.984294
-0.992853
-1.00187
-1.01147
-1.02175
-1.03295
-1.04543
-1.05883
-1.07224
-1.08535
-1.09792
-1.10975
-1.12072
-1.13073
-1.13969
-1.14748
-1.15399
-1.15908
-1.16246
-1.16372
-1.16265
-1.16045
-1.15676
-1.14495
-1.10246
-1.07299
)
;
    }
}


// ************************************************************************* //
