/*--------------------------------*- C++ -*----------------------------------*\
| =========                 |                                                 |
| \\      /  F ield         | OpenFOAM: The Open Source CFD Toolbox           |
|  \\    /   O peration     | Version:  5.x                                   |
|   \\  /    A nd           | Web:      www.OpenFOAM.org                      |
|    \\/     M anipulation  |                                                 |
\*---------------------------------------------------------------------------*/
FoamFile
{
    version     2.0;
    format      ascii;
    class       volVectorField;
    location    "500";
    object      U;
}
// * * * * * * * * * * * * * * * * * * * * * * * * * * * * * * * * * * * * * //

dimensions      [0 1 -1 0 0 0 0];

internalField   nonuniform List<vector> 
90
(
(0.0375038 -0.127128 -4.80642)
(0.0387415 -0.134712 -4.78942)
(0.0403362 -0.143628 -4.78409)
(0.0416546 -0.151438 -4.77171)
(0.0429575 -0.15939 -4.76175)
(0.0441296 -0.166835 -4.74992)
(0.045245 -0.174119 -4.73842)
(0.0462929 -0.181074 -4.72627)
(0.0473091 -0.187789 -4.71405)
(0.0483095 -0.194196 -4.70156)
(0.0493304 -0.200307 -4.68901)
(0.0504037 -0.206071 -4.67639)
(0.051582 -0.211458 -4.66382)
(0.0529269 -0.216423 -4.65136)
(0.054489 -0.220925 -4.63912)
(0.0563258 -0.224922 -4.6272)
(0.0584903 -0.228368 -4.61571)
(0.0610241 -0.231225 -4.60475)
(0.0639681 -0.233455 -4.59444)
(0.0673492 -0.235026 -4.5849)
(0.0711835 -0.235913 -4.57624)
(0.0754728 -0.236094 -4.56857)
(0.0802048 -0.235555 -4.56198)
(0.0853513 -0.234291 -4.55658)
(0.0908693 -0.232303 -4.55243)
(0.0967013 -0.229601 -4.54961)
(0.102777 -0.226206 -4.54816)
(0.109015 -0.222145 -4.54812)
(0.115327 -0.217459 -4.54952)
(0.121618 -0.212197 -4.55235)
(0.127792 -0.206418 -4.5566)
(0.133751 -0.20019 -4.56223)
(0.139404 -0.193591 -4.5692)
(0.144663 -0.186707 -4.57744)
(0.149449 -0.17963 -4.58686)
(0.153692 -0.172459 -4.59738)
(0.157334 -0.165296 -4.60888)
(0.160328 -0.158246 -4.62123)
(0.162641 -0.151412 -4.63429)
(0.16425 -0.144896 -4.64792)
(0.165156 -0.138793 -4.66196)
(0.165381 -0.133189 -4.67625)
(0.164976 -0.128155 -4.69062)
(0.163976 -0.123739 -4.70494)
(0.162385 -0.119963 -4.71905)
(0.160182 -0.116823 -4.7328)
(0.15735 -0.114293 -4.74603)
(0.153883 -0.112331 -4.75859)
(0.149796 -0.110879 -4.77035)
(0.14512 -0.10987 -4.78119)
(0.139904 -0.109229 -4.79101)
(0.134212 -0.108883 -4.79972)
(0.12812 -0.108759 -4.80729)
(0.12171 -0.108792 -4.81368)
(0.11507 -0.108926 -4.81887)
(0.108289 -0.109122 -4.82288)
(0.101456 -0.109354 -4.82571)
(0.0946513 -0.109606 -4.8274)
(0.0879518 -0.109875 -4.82798)
(0.0814245 -0.110166 -4.82748)
(0.0751267 -0.110491 -4.82594)
(0.0691053 -0.110867 -4.8234)
(0.0633942 -0.111315 -4.8199)
(0.0580173 -0.111854 -4.81546)
(0.052988 -0.112504 -4.8101)
(0.0483071 -0.113281 -4.80386)
(0.0439677 -0.114197 -4.79674)
(0.0399537 -0.115262 -4.78873)
(0.0362464 -0.116488 -4.77984)
(0.0328311 -0.117898 -4.77004)
(0.0296885 -0.119488 -4.7593)
(0.0267973 -0.121113 -4.74761)
(0.0241469 -0.122613 -4.73494)
(0.021734 -0.123924 -4.72131)
(0.019555 -0.124992 -4.70675)
(0.0176093 -0.125768 -4.69128)
(0.0158986 -0.126221 -4.67494)
(0.0144267 -0.126316 -4.65777)
(0.0132002 -0.126015 -4.6398)
(0.0122274 -0.125273 -4.62106)
(0.0115192 -0.124037 -4.60161)
(0.0110898 -0.122236 -4.58153)
(0.0109576 -0.119774 -4.56085)
(0.0111372 -0.116545 -4.53951)
(0.0116384 -0.112471 -4.51743)
(0.0124672 -0.107605 -4.49536)
(0.0136115 -0.101283 -4.47483)
(0.0153093 -0.0923362 -4.45591)
(0.0175052 -0.0808508 -4.42911)
(0.0183761 -0.0754531 -4.39688)
)
;

boundaryField
{
    inlet
    {
        type            zeroGradient;
    }
    outlet
    {
        type            zeroGradient;
    }
    repeat_boundary
    {
        type            slip;
    }
    procBoundary0to1
    {
        type            processor;
        value           nonuniform List<vector> 
90
(
(0.0264766 -0.126249 -4.6102)
(0.0275052 -0.132919 -4.57634)
(0.0311191 -0.140266 -4.55131)
(0.0335833 -0.146682 -4.52086)
(0.0363764 -0.152898 -4.49114)
(0.0388783 -0.158472 -4.4591)
(0.0413382 -0.163571 -4.42631)
(0.0436618 -0.168103 -4.3922)
(0.0459057 -0.172099 -4.35719)
(0.0480655 -0.17559 -4.32125)
(0.0501656 -0.178598 -4.28452)
(0.0522439 -0.181195 -4.24703)
(0.0543647 -0.183502 -4.20882)
(0.0565431 -0.185363 -4.16992)
(0.0588287 -0.186746 -4.13032)
(0.0612656 -0.18754 -4.09013)
(0.0639061 -0.187667 -4.04931)
(0.0667841 -0.187207 -4.00794)
(0.0699389 -0.18611 -3.96599)
(0.073399 -0.184382 -3.9235)
(0.0771879 -0.182001 -3.88043)
(0.0813212 -0.178951 -3.83682)
(0.0858069 -0.175208 -3.79265)
(0.0906452 -0.17075 -3.74794)
(0.0958279 -0.165551 -3.70272)
(0.10134 -0.159591 -3.65704)
(0.107159 -0.15285 -3.61094)
(0.113256 -0.145318 -3.56452)
(0.119599 -0.136993 -3.51786)
(0.12615 -0.127882 -3.47108)
(0.13287 -0.11801 -3.42432)
(0.13972 -0.107418 -3.37773)
(0.146659 -0.0961653 -3.33148)
(0.153648 -0.0843311 -3.28573)
(0.160654 -0.0720168 -3.24067)
(0.167643 -0.0593454 -3.19645)
(0.174588 -0.0464614 -3.15326)
(0.181466 -0.0335304 -3.11123)
(0.18826 -0.0207353 -3.07051)
(0.19496 -0.00827393 -3.03117)
(0.201565 0.0036368 -2.99321)
(0.208095 0.0147578 -2.95667)
(0.214579 0.0248468 -2.92182)
(0.220933 0.0337618 -2.88824)
(0.227044 0.0415047 -2.85576)
(0.232807 0.0481433 -2.82433)
(0.238142 0.0537512 -2.79386)
(0.242987 0.0583914 -2.76427)
(0.247304 0.0621178 -2.73551)
(0.251067 0.0649765 -2.70753)
(0.25427 0.0670069 -2.6803)
(0.25692 0.0682426 -2.65379)
(0.259035 0.0687118 -2.62798)
(0.260646 0.0684387 -2.60282)
(0.261788 0.0674469 -2.57827)
(0.262506 0.065761 -2.55428)
(0.262847 0.0634065 -2.53079)
(0.262858 0.0604102 -2.50773)
(0.262588 0.0568027 -2.48502)
(0.262084 0.0526205 -2.46258)
(0.261391 0.0479074 -2.44032)
(0.260549 0.042717 -2.41816)
(0.259593 0.0371141 -2.39599)
(0.258554 0.0311712 -2.37375)
(0.257466 0.0249782 -2.35138)
(0.256345 0.01864 -2.32884)
(0.255194 0.0122745 -2.3061)
(0.254017 0.00601516 -2.28296)
(0.25276 -6.72212e-06 -2.2597)
(0.251428 -0.00563787 -2.2363)
(0.250019 -0.0107805 -2.21289)
(0.248509 -0.0155206 -2.18958)
(0.246872 -0.0200202 -2.16651)
(0.245086 -0.0243911 -2.14377)
(0.243128 -0.0287293 -2.12145)
(0.240979 -0.0331143 -2.0996)
(0.238622 -0.0376134 -2.07829)
(0.236041 -0.0422861 -2.05756)
(0.233224 -0.0471861 -2.03748)
(0.230162 -0.0523635 -2.01807)
(0.226853 -0.0578663 -1.99938)
(0.223297 -0.0637387 -1.98147)
(0.21951 -0.0700258 -1.96438)
(0.215504 -0.0767787 -1.94797)
(0.211294 -0.0840714 -1.93224)
(0.206959 -0.0921992 -1.91747)
(0.202422 -0.101058 -1.90501)
(0.198104 -0.110606 -1.89625)
(0.193821 -0.120776 -1.88524)
(0.189904 -0.128696 -1.85784)
)
;
    }
    procBoundary0to2
    {
        type            processor;
        value           nonuniform List<vector> 
90
(
(0.0944252 -0.0278906 -5.41488)
(0.0998949 -0.0288559 -5.43862)
(0.106915 -0.031044 -5.48404)
(0.112942 -0.0317277 -5.51621)
(0.119336 -0.0323177 -5.55719)
(0.125393 -0.0320843 -5.59643)
(0.131502 -0.0314511 -5.63955)
(0.137452 -0.030227 -5.6834)
(0.143375 -0.0285659 -5.72958)
(0.14912 -0.0264209 -5.77703)
(0.154699 -0.0238763 -5.82619)
(0.159997 -0.0209467 -5.8766)
(0.164899 -0.017686 -5.92837)
(0.169586 -0.0141367 -5.98131)
(0.174115 -0.0103774 -6.03534)
(0.178597 -0.00648124 -6.0904)
(0.183149 -0.00253136 -6.14638)
(0.187743 0.00137277 -6.20327)
(0.192494 0.0051311 -6.26103)
(0.197457 0.008633 -6.31963)
(0.202717 0.0117707 -6.37908)
(0.208341 0.0144368 -6.4394)
(0.214386 0.0165298 -6.50063)
(0.220881 0.0179563 -6.56282)
(0.227826 0.0186345 -6.62604)
(0.235179 0.0184964 -6.69037)
(0.242853 0.0174899 -6.75589)
(0.250714 0.0155796 -6.82266)
(0.258575 0.0127475 -6.89075)
(0.266209 0.00899172 -6.9602)
(0.273349 0.00432539 -7.03104)
(0.279699 -0.00122569 -7.10326)
(0.284952 -0.00762564 -7.17683)
(0.288799 -0.0148313 -7.25169)
(0.290946 -0.0227953 -7.32773)
(0.291129 -0.0314687 -7.40484)
(0.289125 -0.0408025 -7.48287)
(0.284762 -0.050749 -7.56164)
(0.277925 -0.0612612 -7.64099)
(0.268562 -0.0722917 -7.72072)
(0.256679 -0.0837918 -7.80063)
(0.242333 -0.0957077 -7.88052)
(0.22563 -0.107976 -7.96021)
(0.206728 -0.120517 -8.0395)
(0.185853 -0.133231 -8.11821)
(0.163279 -0.145999 -8.19619)
(0.139309 -0.158683 -8.27328)
(0.114252 -0.171138 -8.34936)
(0.0884076 -0.183213 -8.42432)
(0.0620556 -0.194768 -8.49805)
(0.0354464 -0.205678 -8.57046)
(0.00879568 -0.215842 -8.64143)
(-0.0177163 -0.225187 -8.71087)
(-0.0439423 -0.233674 -8.77869)
(-0.0697586 -0.241295 -8.8448)
(-0.095059 -0.248074 -8.90911)
(-0.11975 -0.254062 -8.97155)
(-0.143745 -0.259329 -9.03205)
(-0.166961 -0.263958 -9.09057)
(-0.189316 -0.268041 -9.1471)
(-0.210728 -0.271673 -9.20165)
(-0.231115 -0.27495 -9.25423)
(-0.250405 -0.277964 -9.30492)
(-0.268534 -0.280803 -9.35379)
(-0.285459 -0.283548 -9.40095)
(-0.301158 -0.286272 -9.44653)
(-0.315642 -0.289039 -9.49067)
(-0.328944 -0.2919 -9.53359)
(-0.341114 -0.294903 -9.5755)
(-0.352215 -0.298087 -9.61652)
(-0.362411 -0.301477 -9.65663)
(-0.372124 -0.305055 -9.69671)
(-0.381576 -0.308678 -9.73656)
(-0.390862 -0.312293 -9.7763)
(-0.400078 -0.315878 -9.81605)
(-0.409288 -0.319406 -9.85576)
(-0.41853 -0.322863 -9.89549)
(-0.427838 -0.326242 -9.9352)
(-0.437237 -0.329532 -9.9749)
(-0.446748 -0.332725 -10.0146)
(-0.456392 -0.33581 -10.0541)
(-0.466195 -0.338768 -10.0935)
(-0.476188 -0.341573 -10.1328)
(-0.486402 -0.344199 -10.1718)
(-0.496862 -0.346639 -10.2108)
(-0.507579 -0.348902 -10.2489)
(-0.518744 -0.350742 -10.2848)
(-0.530749 -0.351637 -10.3196)
(-0.54354 -0.351866 -10.3636)
(-0.550085 -0.353017 -10.3962)
)
;
    }
}


// ************************************************************************* //
