FoamFile
{version 2.0; format ascii;class Cloud<passiveParticle>; location 0;object  positions;}
350
(
( -0.00130858 0.00382181 0.000498783 ) 0 
( -0.002517 0.00288583 0.00049633 ) 0 
( -0.00457709 0.00300422 0.00049744 ) 0 
( -0.00151956 0.00284642 0.000498538 ) 0 
( -0.00172214 0.00134375 0.000498415 ) 0 
( -0.00147539 0.0048056 0.000497659 ) 0 
( -2.35285e-05 0.00170766 0.00049698 ) 0 
( -0.00230747 0.00389639 0.000497732 ) 0 
( -0.000536019 0.00302019 0.000498078 ) 0 
( -0.00247385 0.000632496 0.000498416 ) 0 
( -0.0048793 0.00395799 0.000496855 ) 0 
( -0.000760358 0.00103341 0.000497728 ) 0 
( -0.00416517 0.000208452 0.000498081 ) 0 
( -0.000325088 0.00399634 0.00049775 ) 0 
( -0.00271329 0.00171366 0.000497885 ) 0 
( -0.000527116 6.13367e-05 0.000499155 ) 0 
( -0.00414392 0.00463526 0.000499678 ) 0 
( -0.00384145 0.0036797 0.00049913 ) 0 
( -0.00315819 0.00438269 0.000690267 ) 0 
( -0.00489209 0.00236751 0.00119879 ) 0 
( -0.00149815 0.000346556 0.000499234 ) 0 
( -0.00424262 0.0020631 0.000498818 ) 0 
( -0.00439902 0.00112737 0.000809663 ) 0 
( -0.00344901 0.000904686 0.000498071 ) 0 
( -0.00204204 0.00331306 0.00126175 ) 0 
( -0.00350523 0.00273768 0.000499514 ) 0 
( -0.00180834 0.0042837 0.00128107 ) 0 
( -0.00097573 0.00200879 0.000498733 ) 0 
( -0.00416799 0.00177052 0.00153723 ) 0 
( -0.00132984 0.000909068 0.00130773 ) 0 
( -0.00306342 0.00347184 0.00109053 ) 0 
( -0.0022887 0.00118949 0.00130638 ) 0 
( -0.00302963 0.000487151 0.00131547 ) 0 
( -0.00110805 0.00247418 0.00137302 ) 0 
( -6.56563e-05 0.00244709 0.00116528 ) 0 
( -0.00198872 0.00214561 0.00103214 ) 0 
( -7.174e-05 0.00350924 0.00133201 ) 0 
( -0.000820446 0.00443164 0.00124598 ) 0 
( -0.0032492 0.00146158 0.00130097 ) 0 
( -0.00292345 0.00240493 0.00126974 ) 0 
( -0.0010667 0.00347223 0.00140247 ) 0 
( -0.00206776 0.000215674 0.00131098 ) 0 
( -0.00478394 0.000317231 0.0012758 ) 0 
( -0.00161901 0.00169873 0.00184435 ) 0 
( -0.00483437 0.00453732 0.00211291 ) 0 
( -0.00131014 0.00453683 0.00210845 ) 0 
( -0.00030743 0.0028512 0.00204474 ) 0 
( -0.00399187 0.00307832 0.00130351 ) 0 
( -0.0026426 0.00178605 0.00202473 ) 0 
( -0.000582348 0.0015926 0.00131798 ) 0 
( -0.00394217 0.000759701 0.00161843 ) 0 
( -0.000357134 0.000618662 0.00131122 ) 0 
( -0.00339434 0.000135841 0.00217554 ) 0 
( -0.00437967 0.00408149 0.00134979 ) 0 
( -7.89875e-05 0.00432476 0.00190754 ) 0 
( -0.00363065 0.00472438 0.00150127 ) 0 
( -0.00473065 0.00349549 0.00207753 ) 0 
( -0.00354511 0.00142203 0.00225315 ) 0 
( -0.00269929 0.0033508 0.00201331 ) 0 
( -0.000743164 0.00197367 0.00223606 ) 0 
( -0.000896724 0.000595298 0.00215065 ) 0 
( -0.00356827 0.00239698 0.00203051 ) 0 
( -0.00205531 0.00259046 0.00194877 ) 0 
( -0.00275042 0.00426501 0.00161264 ) 0 
( -6.66793e-05 0.00123917 0.00220883 ) 0 
( -0.0016794 0.00103572 0.00258821 ) 0 
( -0.00175743 9.80825e-05 0.00225184 ) 0 
( -0.00439637 0.000299822 0.00238049 ) 0 
( -0.0045556 0.00251216 0.00212739 ) 0 
( -0.00253522 0.000718473 0.00215299 ) 0 
( -0.00358719 0.00378765 0.0018787 ) 0 
( -0.00122297 0.00283515 0.00244333 ) 0 
( -0.00174259 0.00363819 0.00215583 ) 0 
( -0.00367571 0.000710847 0.00294135 ) 0 
( -0.00456194 0.00128294 0.00231323 ) 0 
( -0.00222441 0.00444377 0.00249969 ) 0 
( -0.00278748 0.00256789 0.00262844 ) 0 
( -0.000709728 0.00468213 0.00289296 ) 0 
( -0.000747051 0.003706 0.00232031 ) 0 
( -0.00393092 0.00315416 0.00256994 ) 0 
( -0.000755889 0.00120356 0.00293043 ) 0 
( -0.00304557 0.0049658 0.00227383 ) 0 
( -0.00194284 0.000301008 0.00321108 ) 0 
( -0.0025627 0.00135837 0.00292385 ) 0 
( -0.00389318 0.0044897 0.00251978 ) 0 
( -3.8686e-05 0.00191734 0.00294211 ) 0 
( -0.00317807 0.00201212 0.00336071 ) 0 
( -0.0049737 0.000929731 0.00315061 ) 0 
( -0.00147172 0.00404948 0.00302441 ) 0 
( -0.000431519 0.00305088 0.00301465 ) 0 
( -0.00403293 0.00205961 0.00284742 ) 0 
( -0.000128486 0.000410117 0.00276158 ) 0 
( -0.00285369 0.000594329 0.00349829 ) 0 
( -0.00307015 0.00395879 0.00271403 ) 0 
( -0.00229306 0.00337478 0.00294558 ) 0 
( -0.00492384 0.00299668 0.00291954 ) 0 
( -0.0046743 6.28065e-05 0.0035457 ) 0 
( -0.00429131 0.00385664 0.00318019 ) 0 
( -0.00229167 0.00253983 0.00349505 ) 0 
( -0.00154695 0.00143964 0.00349278 ) 0 
( -0.00185097 0.00483201 0.00351807 ) 0 
( -0.00143053 0.00311591 0.00338001 ) 0 
( -0.00109377 0.000578422 0.00371501 ) 0 
( -0.00377676 0.00491978 0.00349009 ) 0 
( -0.00282378 0.00463257 0.00340696 ) 0 
( -0.000960216 0.00221947 0.00318402 ) 0 
( -0.00184529 0.00204063 0.00275449 ) 0 
( -0.00324108 0.00316317 0.00329217 ) 0 
( -0.0037316 0.000242127 0.00382092 ) 0 
( -0.000155766 0.00246021 0.00377262 ) 0 
( -0.000114974 0.000700348 0.00386953 ) 0 
( -0.00482188 0.00445467 0.00377776 ) 0 
( -0.00305918 0.00264433 0.00412493 ) 0 
( -0.00415602 0.00134968 0.00353929 ) 0 
( -0.00243577 0.00162767 0.00390662 ) 0 
( -0.00160503 0.001403 0.00448881 ) 0 
( -0.00395391 0.00223829 0.00394707 ) 0 
( -0.00333496 0.00123425 0.00409473 ) 0 
( -0.00221302 0.00393245 0.00376882 ) 0 
( -0.000690826 0.00381651 0.00360081 ) 0 
( -0.000623547 0.00155986 0.00385391 ) 0 
( -0.00209369 0.000598016 0.00415291 ) 0 
( -0.000917607 0.00475285 0.00386643 ) 0 
( -0.00445388 0.00308772 0.00379504 ) 0 
( -0.00492729 0.00112094 0.00413102 ) 0 
( -0.001488 0.00228219 0.00402973 ) 0 
( -0.00350173 0.00399883 0.00377489 ) 0 
( -0.00483997 0.00214178 0.00342882 ) 0 
( -0.00201154 0.0030968 0.00427563 ) 0 
( -0.0033784 0.00195989 0.00477836 ) 0 
( -0.00405639 0.0046004 0.00440325 ) 0 
( -0.000442103 0.00415365 0.0045072 ) 0 
( -0.000852356 0.00303393 0.00420076 ) 0 
( -0.00300783 0.000379469 0.00449502 ) 0 
( -0.00494236 0.00243904 0.00437629 ) 0 
( -0.00207617 0.00462913 0.00447087 ) 0 
( -0.00434262 0.00170963 0.00469951 ) 0 
( -0.00253088 0.0012111 0.00480951 ) 0 
( -0.00306683 0.00473514 0.00436917 ) 0 
( -0.00287416 0.00357856 0.00442963 ) 0 
( -0.00412538 0.000741464 0.00459067 ) 0 
( -0.00482316 0.00372966 0.0044629 ) 0 
( -0.0013824 0.0038716 0.00431864 ) 0 
( -0.000761039 0.000882809 0.00460729 ) 0 
( -3.90003e-05 0.0027784 0.00472067 ) 0 
( -0.00194503 0.00364092 0.00511129 ) 0 
( -0.00323432 0.00290353 0.0050728 ) 0 
( -0.00420293 0.00264674 0.0050165 ) 0 
( -0.00342514 0.00106264 0.00522748 ) 0 
( -0.00120806 0.00456557 0.00501387 ) 0 
( -0.00233582 0.0022455 0.00468557 ) 0 
( -0.00386656 0.00344844 0.004524 ) 0 
( -0.00146895 0.0026903 0.00500836 ) 0 
( -0.00371055 2.87291e-05 0.00515438 ) 0 
( -0.00466534 0.000142275 0.00542578 ) 0 
( -0.000745706 0.00207144 0.00470361 ) 0 
( -0.00444422 0.00420371 0.00525516 ) 0 
( -0.000897465 0.0035036 0.00511113 ) 0 
( -0.00393104 0.000411326 0.00604892 ) 0 
( -0.00387467 0.00194184 0.00564526 ) 0 
( -0.000657382 0.0042164 0.00577001 ) 0 
( -0.00141458 4.00623e-05 0.00587603 ) 0 
( -0.00165283 0.00425254 0.00585197 ) 0 
( -0.00249977 0.00443542 0.00535426 ) 0 
( -0.0022203 0.000263841 0.00509639 ) 0 
( -0.00062748 0.00140363 0.00545008 ) 0 
( -0.00233907 0.00281279 0.0055077 ) 0 
( -0.00176753 0.00181476 0.00538399 ) 0 
( -0.00345914 0.00416477 0.00508975 ) 0 
( -0.00438831 0.00109913 0.00548731 ) 0 
( -0.00337854 0.0027196 0.00604355 ) 0 
( -0.00392056 0.00342023 0.00558315 ) 0 
( -0.00057251 0.000393629 0.00545796 ) 0 
( -0.00291663 0.00360184 0.00571239 ) 0 
( -0.00259292 0.000912 0.00576048 ) 0 
( -0.00489164 0.00328735 0.00535534 ) 0 
( -0.00146556 0.00319636 0.00587131 ) 0 
( -0.00224682 0.00345215 0.00643867 ) 0 
( -0.00274892 0.00190066 0.00555076 ) 0 
( -0.00443684 0.00268122 0.00601352 ) 0 
( -0.00112184 0.00200212 0.00612195 ) 0 
( -0.0010556 0.000949248 0.00623033 ) 0 
( -0.000623945 0.00264343 0.00553949 ) 0 
( -0.00145908 0.000867735 0.00532056 ) 0 
( -0.00133414 0.00378327 0.00667437 ) 0 
( -0.00304125 0.0047167 0.00614592 ) 0 
( -0.00491445 0.00395141 0.00609996 ) 0 
( -0.000410454 0.00349969 0.00641991 ) 0 
( -0.00107496 0.00281101 0.00670681 ) 0 
( -0.00195868 0.00248744 0.00637175 ) 0 
( -0.00341802 0.00125396 0.0062088 ) 0 
( -0.000250355 0.00158636 0.00637605 ) 0 
( -0.000543362 0.0045986 0.0066865 ) 0 
( -0.00195825 0.00148712 0.00630771 ) 0 
( -0.00403058 0.00459082 0.00607882 ) 0 
( -0.0030496 0.000367999 0.00651563 ) 0 
( -0.000555607 0.000104102 0.00641433 ) 0 
( -0.00231316 0.00439893 0.00675249 ) 0 
( -0.00128015 0.000260468 0.0070841 ) 0 
( -0.00135752 0.0046871 0.00725795 ) 0 
( -0.00382971 0.00205593 0.00664008 ) 0 
( -0.0021034 0.00196551 0.00721035 ) 0 
( -0.00352232 0.00382666 0.00647372 ) 0 
( -0.00204564 0.000508486 0.00649226 ) 0 
( -0.00428926 0.00110085 0.00667517 ) 0 
( -0.00121546 0.00155307 0.00700944 ) 0 
( -0.00283631 0.00204106 0.00653525 ) 0 
( -0.00484699 0.0017174 0.00612241 ) 0 
( -0.00482967 0.00478081 0.00664832 ) 0 
( -0.00475524 0.00224857 0.00696287 ) 0 
( -0.00299574 0.00300194 0.00692199 ) 0 
( -0.00399049 0.00302241 0.00683704 ) 0 
( -0.00353351 0.000847007 0.00727714 ) 0 
( -0.000479972 0.000876719 0.00704388 ) 0 
( -0.000605856 0.0037808 0.0073592 ) 0 
( -0.00158031 0.00379248 0.00764269 ) 0 
( -0.00324567 0.00181059 0.00741676 ) 0 
( -0.0019588 0.00295312 0.00725572 ) 0 
( -0.00439396 0.00392962 0.00695284 ) 0 
( -0.000195867 0.0028854 0.0071771 ) 0 
( -0.00043717 0.00177597 0.00759577 ) 0 
( -0.00445971 0.00471033 0.0075734 ) 0 
( -0.00263939 0.00116065 0.0069609 ) 0 
( -0.0049104 0.000206691 0.00695655 ) 0 
( -0.00272705 0.00261937 0.00780446 ) 0 
( -0.00170349 7.96691e-05 0.00797136 ) 0 
( -0.00441851 0.000657025 0.00770094 ) 0 
( -0.0025589 0.00372837 0.00745163 ) 0 
( -0.00183837 0.000963552 0.00752297 ) 0 
( -0.00218535 0.00453928 0.00791596 ) 0 
( -4.2125e-05 0.000324154 0.00784174 ) 0 
( -0.000450016 0.00475183 0.0076705 ) 0 
( -0.00422003 0.00162043 0.00752516 ) 0 
( -0.00459805 0.00313338 0.0076217 ) 0 
( -0.00355625 0.00367025 0.00745977 ) 0 
( -0.00104678 0.00294917 0.00769585 ) 0 
( -0.00249652 0.000215463 0.00733437 ) 0 
( -0.00327706 0.0045624 0.00710457 ) 0 
( -0.00136414 0.00201938 0.00787985 ) 0 
( -0.00094862 0.000737927 0.00791601 ) 0 
( -0.000163665 0.00117853 0.00834911 ) 0 
( -0.00124011 0.00451878 0.00823857 ) 0 
( -0.00411949 0.00401726 0.00820744 ) 0 
( -0.0012234 0.00352232 0.00853562 ) 0 
( -0.000625628 0.00204105 0.00855188 ) 0 
( -0.0037181 0.00113899 0.00824191 ) 0 
( -0.00372197 0.0026423 0.00772054 ) 0 
( -0.00229381 0.00180033 0.00817687 ) 0 
( -0.000376458 0.0030016 0.00843481 ) 0 
( -0.00382082 0.00489811 0.00857179 ) 0 
( -0.00106717 0.000210414 0.00875647 ) 0 
( -0.00312962 0.00337832 0.00831515 ) 0 
( -0.00315308 0.00434801 0.00807272 ) 0 
( -0.00185715 0.00280073 0.00826039 ) 0 
( -0.00278579 0.000967657 0.00792861 ) 0 
( -0.00454318 0.00230416 0.00817737 ) 0 
( -0.00094424 0.00117923 0.00897285 ) 0 
( -0.00329622 0.00203298 0.00838917 ) 0 
( -0.00181614 0.000992899 0.00852173 ) 0 
( -0.00442085 0.00155018 0.00882063 ) 0 
( -0.00405196 0.00308498 0.0085626 ) 0 
( -0.00168765 0.00429698 0.00910413 ) 0 
( -0.00396485 0.00021893 0.00854187 ) 0 
( -0.00249015 0.00025627 0.00856252 ) 0 
( -0.00157423 0.00194575 0.00885377 ) 0 
( -0.00271681 0.00123876 0.00888728 ) 0 
( -0.00220245 0.00371303 0.00847713 ) 0 
( -0.00497424 0.000411992 0.00849445 ) 0 
( -0.000378799 0.00402599 0.00835416 ) 0 
( -0.00324154 0.000441619 0.0091948 ) 0 
( -0.00466538 0.0044801 0.00890542 ) 0 
( -0.00359392 0.00136403 0.00935023 ) 0 
( -0.00282367 0.00334549 0.00928202 ) 0 
( -0.00386576 0.00230758 0.00916296 ) 0 
( -0.0010408 0.0027422 0.00913365 ) 0 
( -0.00463092 0.00290593 0.00939808 ) 0 
( -0.00362839 0.00389715 0.00906824 ) 0 
( -0.00255132 0.00246512 0.00889548 ) 0 
( -0.00186565 0.000382664 0.00933199 ) 0 
( -0.00275271 0.00437253 0.00898815 ) 0 
( -0.000545813 0.00486708 0.00886773 ) 0 
( -0.000699774 0.00390685 0.0092937 ) 0 
( -0.00258058 0.000889018 0.00981332 ) 0 
( -0.00278801 0.00186766 0.00966033 ) 0 
( -0.000622834 0.00193321 0.00954501 ) 0 
( -0.00182564 0.00333089 0.00932054 ) 0 
( -0.00370712 0.00313155 0.00970564 ) 0 
( -0.00385908 0.00473748 0.0095575 ) 0 
( -0.00492868 0.00196821 0.00957328 ) 0 
( -0.00170041 0.0013236 0.00962497 ) 0 
( -0.000440844 0.000695109 0.00968769 ) 0 
( -0.000133065 0.00295913 0.00949109 ) 0 
( -0.00420021 0.000572714 0.00944595 ) 0 
( -0.00441321 0.00383901 0.00968371 ) 0 
( -0.00390315 0.00226361 0.0101611 ) 0 
( -0.00349402 0.000658845 0.0101478 ) 0 
( -0.00221555 0.00160233 0.0104349 ) 0 
( -0.00128686 0.00194307 0.0102918 ) 0 
( -0.00430665 0.00135472 0.0100592 ) 0 
( -0.0028632 0.00276457 0.0100948 ) 0 
( -0.00136272 0.00384779 0.0100396 ) 0 
( -0.00307109 0.00496111 0.0101304 ) 0 
( -0.00102312 0.00291119 0.0101183 ) 0 
( -0.00192519 0.00239998 0.00967213 ) 0 
( -0.00232693 0.00403275 0.00982576 ) 0 
( -0.0010425 0.0047408 0.00972561 ) 0 
( -0.00332397 0.00400133 0.0100146 ) 0 
( -0.00202927 0.00021365 0.0103034 ) 0 
( -0.000281885 0.00367606 0.0101714 ) 0 
( -0.00266106 0.00374874 0.0107234 ) 0 
( -0.0044758 0.00310894 0.0103639 ) 0 
( -0.00422172 0.000646441 0.010833 ) 0 
( -0.00326122 0.00156919 0.0104882 ) 0 
( -0.00178844 0.00468046 0.0103915 ) 0 
( -0.000256024 0.00239188 0.0104928 ) 0 
( -0.0013844 0.000200848 0.0111443 ) 0 
( -0.000108364 0.000512166 0.0106448 ) 0 
( -0.00269574 0.000806413 0.0108025 ) 0 
( -0.000441626 0.00141614 0.0103804 ) 0 
( -0.00196925 0.00312197 0.0103623 ) 0 
( -0.000784018 0.00440758 0.010632 ) 0 
( -0.00413006 0.00431884 0.0105135 ) 0 
( -0.00128388 0.000879107 0.0104171 ) 0 
( -0.00239965 0.00294149 0.0112515 ) 0 
( -0.00321999 0.00244318 0.0109715 ) 0 
( -0.000224263 0.0028028 0.0114035 ) 0 
( -0.00250899 0.000182326 0.0115607 ) 0 
( -0.00141639 0.00261346 0.0110218 ) 0 
( -0.00482371 0.00218381 0.0105437 ) 0 
( -0.00173197 0.00390302 0.0110577 ) 0 
( -0.00357475 0.00334462 0.0107253 ) 0 
( -0.000853798 0.00343699 0.0109551 ) 0 
( -0.000740789 0.000990246 0.0112531 ) 0 
( -0.0026905 0.00166656 0.0113122 ) 0 
( -0.00259908 0.00471365 0.0109762 ) 0 
( -0.00408561 0.00171951 0.0110328 ) 0 
( -0.00193309 0.00224317 0.0117936 ) 0 
( -0.00498263 0.00127928 0.0110137 ) 0 
( -0.000431791 0.00484195 0.0114606 ) 0 
( -0.000943154 0.00206602 0.0117115 ) 0 
( -0.00445649 0.00366438 0.011195 ) 0 
( -0.00148094 0.00465543 0.0116661 ) 0 
( -0.000106431 0.00176312 0.0112558 ) 0 
( -0.000770507 0.00396468 0.0118001 ) 0 
( -0.00347714 0.00101181 0.0113913 ) 0 
( -0.00160028 0.00149872 0.0112155 ) 0 
( -0.00415759 0.00269914 0.0112184 ) 0 
( -0.00350445 0.00197187 0.0118061 ) 0 
( -0.000587975 0.000133131 0.0117448 ) 0 
( -0.00176188 0.000766709 0.0118769 ) 0 
)
