# vtk DataFile Version 4.0
Generated by LIGGGHTS
ASCII
DATASET POLYDATA
POINTS 78 float
-405.345 -379.271 272.086 -491.106 -324.531 99.9561 -221.928 -453.277 99.9401 
-74.6115 -318.111 99.977 37.0497 -308.829 265.738 101.685 -412.463 100.014 
281.331 -317.43 99.8891 387.404 -486.845 99.9037 -357.505 -153.245 99.9797 
-244.618 -282.908 202.153 -156.508 -135.345 99.9129 95.6509 -212.574 99.9786 
-11.0904 -106.95 234.251 222.802 -215.44 261.515 407.649 -295.217 270.489 
448.588 -140.738 150.371 -450.466 24.2649 99.9426 -417.99 -42.5689 285.591 
-104.79 57.8346 99.9605 -221.832 -83.1259 281.503 87.7398 3.58145 99.8527 
16.0093 88.6139 266.322 259.967 -97.9264 99.9742 187.363 -18.9464 271.666 
368.75 34.2542 205.122 -448.186 171.093 263.046 -285.434 121.368 157.53 
-147.1 296.969 102.154 -264.07 278.588 280.29 38.4641 197.337 99.9783 
-33.6548 281.874 283.281 234.711 139.57 99.9794 166.474 272.227 252.758 
437.642 189.974 99.9416 357.273 219.036 280.734 -413.928 491.033 99.9706 
-347.025 302.667 99.9594 -264.58 478.541 283.01 -61.2149 460.395 181.842 
230.559 484.465 220.651 105.29 385.818 99.9622 298.637 334.009 99.9826 
488.541 351.964 205.472 -440.726 -490.051 438.041 -144.386 -375.662 348.387 
-295.393 -358.646 478.366 194.415 -383.324 366.297 410.887 -492.296 303.904 
391.964 -292.921 469.814 -441.311 -216.189 382.067 -282.107 -123.94 469.183 
-90.2789 -189.749 398.269 107.571 -168.984 418.629 306.18 -118.187 415.053 
100.305 29.2639 445.053 433.137 34.9596 394.54 -351.509 201.815 442.927 
-173.622 106.529 327.257 50.6624 225.267 483.628 69.8131 445.99 333.28 
338.545 361.61 419.718 -11.1243 -352.36 496.414 -195.938 58.3543 520.096 
-71.9628 -90.1703 570.813 243.665 138.622 532.804 -92.5678 350.367 628.379 
208.551 -200.636 770.312 -387.717 -31.8466 1401.88 -65.372 98.3357 1611.87 
185.595 321.531 1459.83 -295.395 -290.802 1735.18 134.796 -152.747 1884.47 
331.829 -157.673 1702.51 251.071 121.118 1832.32 131.205 -383.589 1973.21 
-134.717 -79.1229 1941.73 28.9792 277.479 2087 367.98 291.282 1910.03 

VERTICES 78 156
1 0 
1 1 
1 2 
1 3 
1 4 
1 5 
1 6 
1 7 
1 8 
1 9 
1 10 
1 11 
1 12 
1 13 
1 14 
1 15 
1 16 
1 17 
1 18 
1 19 
1 20 
1 21 
1 22 
1 23 
1 24 
1 25 
1 26 
1 27 
1 28 
1 29 
1 30 
1 31 
1 32 
1 33 
1 34 
1 35 
1 36 
1 37 
1 38 
1 39 
1 40 
1 41 
1 42 
1 43 
1 44 
1 45 
1 46 
1 47 
1 48 
1 49 
1 50 
1 51 
1 52 
1 53 
1 54 
1 55 
1 56 
1 57 
1 58 
1 59 
1 60 
1 61 
1 62 
1 63 
1 64 
1 65 
1 66 
1 67 
1 68 
1 69 
1 70 
1 71 
1 72 
1 73 
1 74 
1 75 
1 76 
1 77 

POINT_DATA 78
FIELD FieldData 7
id 1 78 int
32 15 7 1 34 9 11 6 19 
30 14 10 38 36 20 26 3 23 
24 47 16 43 29 35 21 37 33 
28 44 13 46 2 31 12 39 4 
17 27 18 22 8 5 25 63 51 
65 41 45 62 52 53 40 50 56 
55 49 57 42 64 48 59 58 60 
54 61 71 67 66 68 69 70 73 
72 74 77 76 75 78 
type 1 78 int
1 1 1 1 1 1 1 1 1 
1 1 1 1 1 1 1 1 1 
1 1 1 1 1 1 1 1 1 
1 1 1 1 1 1 1 1 1 
1 1 1 1 1 1 1 1 1 
1 1 1 1 1 1 1 1 1 
1 1 1 1 1 1 1 1 1 
1 1 1 1 1 1 1 1 1 
1 1 1 1 1 1 
i 3 78 int
0 0 0 0 0 0 0 1 0 
0 0 0 0 0 0 -1 0 0 
-1 0 0 0 0 0 0 0 0 
0 0 0 0 0 0 0 0 0 
0 0 0 -1 0 0 0 0 0 
-1 0 0 0 0 0 0 0 0 
1 0 0 0 0 0 0 0 0 
0 0 0 0 0 0 -1 0 0 
0 -1 0 0 0 0 0 0 0 
0 0 0 0 0 0 0 0 0 
0 0 0 0 0 0 0 0 0 
-1 0 0 0 0 0 1 0 0 
0 -1 0 0 -1 0 0 -1 0 
0 0 0 0 -1 0 0 0 0 
0 0 0 0 1 0 0 0 0 
0 0 0 0 0 0 0 1 0 
0 0 0 0 0 0 0 0 0 
0 0 0 0 0 0 0 0 0 
0 0 0 0 0 0 1 0 0 
0 0 0 0 0 0 0 0 0 
0 0 0 0 0 0 0 0 0 
0 0 0 0 0 0 0 0 0 
0 0 0 0 0 0 0 0 0 
0 0 0 0 0 0 0 0 0 
0 0 0 0 0 0 0 0 0 
0 0 0 0 0 0 0 0 0 

v 3 78 double
0.00194773 0.00209948 0.000536224 0.00316191 -0.000630436 -0.000175878 -0.000595683 0.000709209 -9.09893e-05 
-0.00046899 0.000791564 0.000323596 0.000718048 -0.00455916 0.000743534 0.000806269 8.23716e-05 0.000119787 
-0.00619677 -0.00426012 0.00112814 2.74799e-07 -0.00228412 0.000745318 0.00115526 0.000354607 5.18699e-05 
0.000110743 0.00106957 -7.81766e-05 0.00216969 -0.000395239 -0.000253701 2.72947e-05 -0.00103881 1.58475e-05 
0.00145637 0.00110308 -0.000621861 0.0013359 -0.00244159 0.00466956 0.00341587 0.000141857 0.000411456 
0.00313785 -0.000159396 -8.61269e-05 0.00148797 0.000435612 -0.000254196 0.00197837 0.00302697 0.000811391 
0.00151309 -0.000137509 4.57741e-05 -0.000382744 0.000643355 -0.000979503 0.00114546 0.00307757 0.00769268 
0.00293703 0.000588977 0.0014162 0.000894333 0.000392986 0.00252942 0.00112215 -0.00129196 0.0169867 
-0.000652679 -0.00146411 -0.000708103 0.0016754 0.00111197 -0.00119293 0.00170814 -0.0011351 -7.27579e-05 
0.000389173 0.0026225 -0.00731335 0.001046 0.000459669 -0.000647359 -0.000243077 0.00193319 0.000824919 
-0.00178659 0.00130738 -0.00429808 0.000776906 0.000782111 -2.12573e-07 -0.000392911 -0.00514209 -0.00425153 
0.000171332 -8.6736e-05 -0.000108124 0.000121143 -0.00114354 -5.60342e-05 0.000422507 -0.00158365 0.000301141 
0.00059171 -0.0016569 -0.000207471 -0.000124687 0.000143841 -9.11139e-05 -6.32954e-05 0.00135141 0.000147701 
-0.000728272 0.00209985 -0.00124648 -0.000495226 0.000597667 -9.11088e-05 -0.000815022 -0.00215696 0.000113847 
-0.00107649 -0.000270144 0.000413455 -0.00158097 0.00600008 0.00105316 0.0108528 -0.00433462 -0.0104465 
0.00499288 0.00530872 -0.0188085 -0.00250442 -0.00412268 0.00451582 -0.000858025 2.5589e-05 5.18122e-05 
-0.00975989 0.0140734 -0.000534628 9.20336e-05 0.00183707 -0.00131302 -0.00203562 0.00533548 -0.00278245 
0.00103114 -0.00312716 -0.00231626 0.00120513 -0.00207002 0.00304613 0.0117251 0.00738335 -0.0128584 
-0.0243067 0.00105943 0.00805006 0.00449436 0.0128971 -0.00220198 0.0059889 0.00682396 0.00504749 
0.00117752 0.000365077 -0.00387424 0.0360957 0.0162966 0.00230249 -0.00113488 -0.00201317 -0.00307899 
-0.00298876 0.000119314 -0.00118681 0.0196853 -0.00303523 -0.017063 0.00908765 -0.000963759 -0.00346409 
0.0103041 5.97972e-05 -0.00443179 0.034233 0.0312527 -0.108922 0 0 -0.165262 
0 0 -0.156609 0 0 -0.110159 0 0 -0.0895284 
0 0 -0.104871 0 0 -0.0748036 0 0 -0.0516422 
0 0 -0.0789728 0 0 -0.0607458 0 0 -0.0304231 
0 0 -0.0392816 -0 -0 -0.02 0 0 -0.0465311 

f 3 78 double
235.889 -207.68 -74.7371 120.365 48.834 -53.3368 110.769 -53.1408 -6.98248 
414.256 151.117 -8.0832 0 0 -102.73 131.227 -190.961 -113.17 
-108.158 244.837 457.277 -291.59 230.851 346.643 -211.299 108.267 41.6678 
139.518 -85.7331 -107.088 -20.3637 36.9487 379.369 -69.2097 170.382 16.0281 
29.2896 -12.4694 -78.6445 -582.136 205.468 -270.146 -59.081 43.2486 18.0289 
-14.9583 113.12 28.6122 43.0848 58.8005 -15.4025 73.9841 -3.62422 6.21984 
-14.4299 -75.3851 94.0757 -93.7918 79.9554 351.443 -869.458 225.625 -436.967 
50.0385 42.2266 -164.531 -196.827 27.9359 -343.325 -101.778 202.64 -677.609 
-0.129996 17.9583 -94.5617 8.50477 -0.35082 -48.2285 -64.7344 -85.7053 69.8758 
0 0 -102.73 40.572 -131.996 -1.84759 -78.773 370.495 118.966 
0 0 -102.73 -3.33743e-06 -3.73378e-06 -0.207598 7.50831 -10.0123 -51.907 
-16.4868 -36.948 29.1152 -51.2672 -35.4859 12.0904 -107.193 88.3166 -41.8055 
26.0378 -149.927 -23.8951 -35.9924 -103.307 -83.2077 1.22195 53.3456 -0.837146 
11.5188 -15.0099 -43.0893 -55.689 146.689 -18.2994 -201.862 -315.567 -20.5109 
44.8716 -97.7842 124.557 0 0 -102.73 30.4391 107.17 -31.3818 
-83.3032 -29.4907 63.9462 -67.6264 -132.739 70.8934 21.345 -77.7895 59.4842 
-51.1379 99.1079 98.6508 -49.3941 151.334 183.323 0 0 -102.73 
161.908 187.255 -92.5128 -2.88584 1.08141 -102.909 433.049 -98.9034 677.554 
-0.0331427 0.545855 -98.5088 112.162 170.329 -229.14 -38.3778 -31.1777 -26.557 
99.0312 -88.2851 -26.2009 0 0 -102.73 0 0 -102.73 
-4.57029 -66.8485 -20.1898 0 0 -102.73 0 0 -102.73 
0 0 -102.73 0 0 -102.73 0 0 -102.73 
0 0 -102.73 0 0 -102.73 0 0 -102.73 
0 0 -102.73 0 0 -102.73 0 0 -102.73 
0 0 -102.73 0 0 -102.73 0 0 -102.73 
0 0 -102.73 0 0 0 0 0 -102.73 

radius 1 78 double
100 100 100 100 100 100 100 100 100 
100 100 100 100 100 100 100 100 100 
100 100 100 100 100 100 100 100 100 
100 100 100 100 100 100 100 100 100 
100 100 100 100 100 100 100 100 100 
100 100 100 100 100 100 100 100 100 
100 100 100 100 100 100 100 100 100 
100 100 100 100 100 100 100 100 100 
100 100 100 100 100 100 
omega 3 78 double
-2.97128e-05 -2.72389e-05 1.75647e-05 -8.50609e-06 2.01943e-05 -3.21099e-05 -6.94941e-06 -8.3474e-06 2.29467e-05 
1.64787e-05 9.87189e-06 -1.97767e-05 8.78995e-06 -6.29844e-06 5.34877e-06 -8.45599e-06 -1.31859e-05 2.48521e-05 
4.81104e-05 -6.06038e-05 4.49338e-05 -6.67284e-06 -4.6951e-06 1.73163e-05 -4.34205e-06 1.06491e-05 4.05801e-05 
6.01955e-06 -6.0436e-06 -3.95491e-05 4.85804e-06 2.3033e-05 6.45094e-06 1.13686e-05 1.47834e-06 1.43795e-05 
-1.68347e-05 -2.82047e-05 -2.50603e-05 -5.12953e-05 0.000133734 -8.57042e-05 -3.82063e-06 2.16984e-05 -4.64058e-05 
3.94897e-06 -5.32484e-06 3.21327e-05 -3.15236e-06 1.42899e-05 -1.39947e-05 -4.56318e-05 2.75392e-05 -6.26541e-05 
1.33148e-06 9.67494e-06 -1.44125e-06 -2.53021e-05 -4.21389e-05 2.02661e-05 -4.8058e-05 -7.30018e-06 1.49748e-05 
-1.27718e-05 2.41098e-05 4.55398e-05 9.29913e-06 3.49318e-05 -2.81575e-05 0.000160127 -4.27917e-05 0.000100843 
-1.31567e-05 1.72432e-05 -2.35115e-06 1.18341e-05 8.42902e-06 7.92941e-06 -8.20917e-06 -8.96384e-06 1.51883e-05 
-8.17464e-05 9.17427e-06 4.62484e-05 1.27885e-05 -5.7568e-06 9.66711e-05 -1.7059e-05 -1.46327e-05 2.30512e-05 
0.000102454 0.000258801 1.42349e-05 -7.82191e-06 7.76986e-06 -2.22686e-05 8.91017e-05 -3.71885e-05 5.77842e-05 
-1.8759e-06 6.98684e-07 2.68074e-05 1.48249e-05 -2.1844e-07 -2.21039e-06 -9.34954e-06 1.10411e-05 -9.79569e-08 
9.33045e-06 9.84198e-07 -1.28394e-06 1.31407e-06 6.32808e-05 -0.000108807 1.16604e-05 4.47521e-06 -9.89087e-06 
-4.30169e-05 -1.49377e-05 -1.33253e-05 -4.20164e-06 -4.87087e-06 -6.40458e-06 1.01048e-05 -7.97295e-06 -3.73753e-05 
4.55107e-06 -1.70854e-05 -2.28872e-05 -0.000288977 -2.38392e-05 -0.000134987 3.80235e-05 0.000115368 6.28563e-05 
9.1044e-05 2.23697e-05 -0.000101174 8.42705e-05 -2.31407e-05 -2.73983e-05 5.42767e-06 -1.09544e-05 2.35414e-06 
-0.000159262 -0.00015998 0.000102043 7.74547e-05 3.20933e-05 6.5264e-06 -3.43311e-05 5.25492e-05 8.09099e-06 
7.01198e-05 1.47172e-05 4.58442e-05 9.95661e-05 -5.58899e-05 5.64524e-05 8.47906e-05 0.000156356 6.93232e-05 
-0.000293675 -0.00010844 0.000155448 -0.000115113 1.64156e-05 6.18383e-05 -7.94e-05 7.68147e-05 -0.000116796 
6.19025e-05 -7.9802e-05 -6.08838e-05 -8.1779e-05 0.000272583 -0.000160969 3.36566e-05 4.99433e-06 5.59704e-05 
-3.301e-05 -1.77128e-05 2.87838e-05 4.85578e-05 -4.34375e-05 3.1173e-05 -4.84181e-05 0.000153582 5.69985e-05 
-9.88899e-05 3.48196e-05 -0.000114301 -0.000423377 0.000623304 -8.15122e-05 0 0 0 
0 0 0 0 0 0 0 0 0 
0 0 0 0 0 0 0 0 0 
0 0 0 0 0 0 0 0 0 
0 0 0 0 0 0 0 0 0 

