# vtk DataFile Version 4.0
Generated by LIGGGHTS
ASCII
DATASET POLYDATA
POINTS 167 float
-414.948 -404.788 272.413 -485.702 -332.778 99.8755 -236.791 -433.434 99.879 
-135.512 -423.545 281.824 -67.7712 -326.819 99.9086 40.627 -329.886 267.83 
113.965 -410.028 99.9246 288.259 -312.076 99.882 386.315 -486.334 99.9339 
400.137 -324.21 265.094 -342.499 -138.193 99.9537 -241.556 -268.632 212.913 
-138.5 -139.871 99.9075 94.5425 -210.135 99.9612 0.363883 -100.817 238.423 
219.056 -239.761 272.933 269.281 -113.042 99.9194 461.376 -145.367 144.592 
-452.002 29.0677 99.8498 -436.566 -45.7418 284.654 -239.729 -61.5804 253.45 
-88.3391 53.6166 99.906 104.074 -0.483649 99.9791 201.478 -40.6594 273.536 
373.681 26.884 197.69 -448.27 152.006 257.494 -340.616 294.771 99.9553 
-274.899 110.961 142.954 -142.11 254.14 99.9548 -276.031 249.003 287.538 
-136.157 106.171 286.781 63.4276 103.863 276.295 50.929 197.06 99.9026 
-27.3393 287.039 260.398 243.389 142.859 99.9583 171.397 268.766 242.577 
436.391 194.92 99.881 359.832 215.651 283.385 -416.729 479.597 99.9076 
-498.725 341.647 219.086 -284.232 445.432 251.62 -86.7532 441.51 142.536 
43.6473 471.511 291.151 230.789 482.679 221.538 101.767 390.376 99.9239 
294.291 336.191 99.9606 -489.018 -413.902 457.904 -281.171 -327.943 399.655 
-29.0031 -385.061 446.967 187.371 -404.893 381.031 -452.387 -229.699 361.404 
-304.016 -117.365 434.368 -106.321 -224.767 353.517 90.0686 -224.716 430.531 
243.129 -102.422 470.507 329.994 -281.423 447.416 377.891 -130.27 325.554 
-310.032 75.5047 380.887 -135.095 -11.446 448.398 63.1733 -26.5656 427.848 
425.824 55.4137 388.609 -455.243 203.727 450.533 -108.845 202.052 460.096 
-282.312 299.312 480.93 83.2623 240.907 420.498 234.2 111.547 398.974 
-422.915 409.561 391.124 -280.15 498.62 499.15 -139.907 399.024 381.946 
28.3606 427.418 486.121 206.441 397.079 400.498 388.7 328.624 445.804 
404.344 483.858 320.824 -336.87 -396.073 681.232 -178.733 -338.49 571.049 
-27.7765 -452.54 635.85 154.353 -393.941 577.868 327.594 -480.382 501.995 
432.235 -321.021 616.498 -391.06 -255.268 550.029 -439.705 -111.391 680.09 
-244.786 -130.074 624.919 -67.749 -174.213 543.093 38.2959 -269.922 683.344 
255.431 -228.135 625.472 452.724 -136.698 510.878 -429.251 23.2635 532.66 
-57.939 60.9277 618.062 102.129 -94.3751 612.046 132.545 98.8587 570.664 
329.861 51.5226 563.997 -388.294 225.765 637.805 -247.285 102.014 568.849 
13.6401 260.647 606.895 228.196 273.833 556.386 413.075 225.838 615.471 
-313.688 405.348 684.191 -484.172 421.761 581.014 -139.082 388.385 588.21 
136.431 422.134 654.273 335.241 403.298 664.838 -305.287 -362.728 875.845 
-175.726 -476.787 768.137 100.858 -428.992 787.135 289.756 -411.181 723.972 
480.728 -467.456 743.703 -463.004 -280.066 784.883 -299.597 -163.035 814.364 
-146.474 -279.19 759.269 9.61668 -246.027 879.802 -57.4817 -101.913 734.063 
165.794 -159.025 790.258 343.544 -245.262 821.774 -497.691 76.8412 714.523 
-450.083 -42.6428 867.627 -306.401 23.704 743.091 -121.723 71.6887 809.694 
53.0352 -19.9799 879.365 251.209 10.2105 853.812 364.782 -81.2549 709.367 
-350.841 212.813 833.791 -180.569 231.864 705.491 60.8661 139.163 758.542 
-45.9546 239.472 894.598 255.765 156.294 717.365 401.914 182.714 851.284 
-381.297 452.57 866.376 -209.19 350.78 863.696 -31.3696 385.284 756.653 
183.612 314.524 816.084 496.771 334.012 761.258 349.308 438.233 861.231 
-395.595 -384.101 1097.13 -254.778 -498.788 1013.4 -143.28 -362.015 1107.52 
-71.6405 -421.789 929.776 90.5709 -355.589 1026.2 255.507 -395.344 920.348 
490.137 -410.573 935.165 323.18 -376.442 1107.58 -378.899 -215.991 990.111 
-174.737 -234.505 956.37 48.8462 -136.054 1042.16 232.97 -179.87 977.424 
422.768 -236.051 1005.79 -364.851 -34.5023 1072.91 -121.767 -42.5021 973.835 
194.499 1.90529 1051.38 390.547 -39.4692 988.364 -477.128 110.562 993.263 
-259.031 102.929 973.371 -12.0469 108.217 1046.17 78.3419 292.915 1069.23 
147.779 159.487 937.472 293.139 289.299 982.227 345.508 127.92 1088.06 
-483.451 307.373 958.441 -298.331 290.03 1032.08 -98.1829 377.879 1029.16 
64.4417 431.706 925.91 211.489 465.534 1057.13 410.687 448.454 1052.67 
-246.131 -184.047 1136.22 176.706 -235.615 1161.05 -94.4036 -24.466 1171.11 
-146.781 220.363 1142.41 246.831 308.503 1175.82 
VERTICES 167 334
1 0 
1 1 
1 2 
1 3 
1 4 
1 5 
1 6 
1 7 
1 8 
1 9 
1 10 
1 11 
1 12 
1 13 
1 14 
1 15 
1 16 
1 17 
1 18 
1 19 
1 20 
1 21 
1 22 
1 23 
1 24 
1 25 
1 26 
1 27 
1 28 
1 29 
1 30 
1 31 
1 32 
1 33 
1 34 
1 35 
1 36 
1 37 
1 38 
1 39 
1 40 
1 41 
1 42 
1 43 
1 44 
1 45 
1 46 
1 47 
1 48 
1 49 
1 50 
1 51 
1 52 
1 53 
1 54 
1 55 
1 56 
1 57 
1 58 
1 59 
1 60 
1 61 
1 62 
1 63 
1 64 
1 65 
1 66 
1 67 
1 68 
1 69 
1 70 
1 71 
1 72 
1 73 
1 74 
1 75 
1 76 
1 77 
1 78 
1 79 
1 80 
1 81 
1 82 
1 83 
1 84 
1 85 
1 86 
1 87 
1 88 
1 89 
1 90 
1 91 
1 92 
1 93 
1 94 
1 95 
1 96 
1 97 
1 98 
1 99 
1 100 
1 101 
1 102 
1 103 
1 104 
1 105 
1 106 
1 107 
1 108 
1 109 
1 110 
1 111 
1 112 
1 113 
1 114 
1 115 
1 116 
1 117 
1 118 
1 119 
1 120 
1 121 
1 122 
1 123 
1 124 
1 125 
1 126 
1 127 
1 128 
1 129 
1 130 
1 131 
1 132 
1 133 
1 134 
1 135 
1 136 
1 137 
1 138 
1 139 
1 140 
1 141 
1 142 
1 143 
1 144 
1 145 
1 146 
1 147 
1 148 
1 149 
1 150 
1 151 
1 152 
1 153 
1 154 
1 155 
1 156 
1 157 
1 158 
1 159 
1 160 
1 161 
1 162 
1 163 
1 164 
1 165 
1 166 

POINT_DATA 167
FIELD FieldData 7
id 1 167 int
32 15 7 51 1 34 9 11 6 
20 19 30 14 10 38 36 29 26 
3 23 47 24 16 35 21 37 17 
33 28 44 42 43 13 46 2 31 
12 39 4 25 27 18 48 22 8 
5 62 65 58 41 52 53 40 50 
73 67 56 57 60 55 49 66 80 
78 64 61 63 71 68 86 59 69 
45 106 82 96 81 77 79 70 111 
90 54 89 98 72 76 85 83 74 
87 88 92 95 91 93 97 84 75 
103 107 131 126 117 105 113 110 116 
94 124 99 112 114 104 118 109 125 
127 119 101 120 102 123 128 100 130 
138 122 108 133 115 141 165 146 159 
153 150 121 145 156 135 129 151 132 
142 158 139 147 134 149 136 152 155 
137 143 154 140 164 157 144 167 148 
161 162 160 166 163 
type 1 167 int
1 1 1 1 1 1 1 1 1 
1 1 1 1 1 1 1 1 1 
1 1 1 1 1 1 1 1 1 
1 1 1 1 1 1 1 1 1 
1 1 1 1 1 1 1 1 1 
1 1 1 1 1 1 1 1 1 
1 1 1 1 1 1 1 1 1 
1 1 1 1 1 1 1 1 1 
1 1 1 1 1 1 1 1 1 
1 1 1 1 1 1 1 1 1 
1 1 1 1 1 1 1 1 1 
1 1 1 1 1 1 1 1 1 
1 1 1 1 1 1 1 1 1 
1 1 1 1 1 1 1 1 1 
1 1 1 1 1 1 1 1 1 
1 1 1 1 1 1 1 1 1 
1 1 1 1 1 1 1 1 1 
1 1 1 1 1 1 1 1 1 
1 1 1 1 1 
i 3 167 int
0 0 0 0 0 0 0 1 0 
0 0 0 0 0 0 0 0 0 
-1 0 0 -1 0 0 0 0 0 
0 0 0 0 0 0 0 0 0 
0 0 0 0 0 0 0 0 0 
-1 0 0 0 0 0 -1 0 0 
0 0 0 0 0 0 0 0 0 
1 0 0 0 0 0 -1 0 0 
0 -1 0 0 0 0 0 -1 0 
0 0 0 0 0 0 0 0 0 
0 0 0 0 0 0 0 0 0 
0 0 0 0 0 0 0 0 0 
-1 0 0 0 0 0 1 0 0 
1 0 0 0 -1 0 0 -1 0 
0 0 0 0 0 0 0 -1 0 
0 0 0 1 0 0 0 0 0 
0 0 0 0 0 0 0 0 0 
0 0 0 0 0 0 0 0 0 
0 0 0 0 0 0 0 0 0 
1 0 0 0 0 0 0 0 0 
0 0 0 0 0 0 0 0 0 
1 0 0 0 0 0 0 0 0 
0 0 0 0 0 0 0 0 0 
0 -1 0 0 0 0 0 0 0 
0 0 0 0 0 0 0 0 0 
0 0 0 0 0 0 0 0 0 
-1 0 0 0 0 0 1 0 0 
0 0 0 0 0 0 0 0 0 
-1 0 0 0 0 0 0 0 0 
0 0 0 0 0 0 0 0 0 
0 0 0 0 0 0 0 0 0 
0 0 0 0 0 0 0 0 0 
0 -1 0 0 0 0 0 0 0 
0 0 0 0 0 0 0 0 0 
0 0 0 0 1 0 0 0 0 
-1 0 0 1 0 0 0 0 0 
0 0 0 0 0 0 0 0 0 
0 0 0 0 0 0 0 0 0 
0 0 0 0 0 0 0 0 0 
0 0 0 0 0 0 0 0 0 
0 0 0 0 0 0 0 0 0 
0 0 0 0 0 0 0 0 0 
0 0 0 0 0 0 0 0 0 
0 0 0 -1 0 0 0 0 0 
1 0 0 0 0 0 0 0 0 
0 1 0 0 0 0 0 0 0 
0 0 0 0 0 0 0 0 0 
0 1 0 0 0 0 0 0 0 
0 0 0 0 0 0 0 0 0 
0 0 0 0 0 0 0 0 0 
0 0 0 0 0 0 0 0 0 
0 0 0 0 0 0 0 0 0 
0 0 0 0 0 0 0 0 0 
0 0 0 0 0 0 0 0 0 
0 0 0 0 0 0 0 0 0 
0 0 0 0 0 0 
v 3 167 double
-5.34364e-05 -2.33123e-05 5.10581e-05 -3.14597e-05 -1.63019e-05 2.42096e-05 -1.83171e-05 7.12929e-06 1.4023e-05 
-2.13458e-05 5.33179e-06 3.14297e-05 -6.5332e-06 9.06819e-07 9.19495e-07 -4.03014e-05 1.80315e-06 6.676e-08 
-1.08397e-05 -8.87917e-06 -7.39273e-07 -2.13347e-05 6.53226e-07 8.31209e-06 -1.74944e-05 1.2306e-06 1.46034e-05 
-3.47975e-05 -3.80146e-06 1.8938e-05 -2.05092e-05 -6.33092e-06 -1.13169e-05 -4.1154e-05 1.02903e-05 -6.4987e-06 
-2.10001e-05 8.32197e-06 -1.62051e-07 -1.92281e-05 8.32963e-06 -2.1042e-06 -2.83302e-05 -3.14738e-06 2.58569e-06 
-4.72276e-05 1.97036e-07 3.84519e-06 -2.17255e-05 1.43423e-06 9.32895e-06 -3.81167e-05 -2.30016e-05 1.7167e-05 
-3.11347e-05 -2.10641e-05 5.48934e-06 -5.52601e-05 -1.39358e-05 1.18742e-05 -5.23111e-05 -3.40306e-06 3.01909e-06 
-2.48872e-05 1.16052e-06 -2.98731e-06 -1.27883e-05 3.877e-06 7.25554e-06 -3.95708e-05 2.35496e-06 2.82632e-06 
-4.06972e-05 1.28165e-06 1.26414e-05 -5.3348e-05 -3.34247e-05 2.01137e-05 -3.54835e-05 -1.28324e-05 1.49046e-05 
-4.52776e-05 -1.7854e-05 -3.73219e-07 -4.25869e-05 4.14608e-06 -3.26715e-06 -6.22705e-05 -2.09419e-05 -8.20084e-06 
-4.34627e-05 4.57691e-06 -2.87927e-06 -4.18285e-05 -5.28241e-07 5.22076e-06 -2.32838e-05 2.80999e-06 3.45214e-06 
-6.14789e-05 -2.1935e-05 8.6158e-06 -2.0972e-05 1.57009e-05 8.6166e-06 -4.70234e-05 1.41784e-06 4.96077e-06 
-8.75626e-06 -2.48108e-06 7.02514e-06 -3.31273e-05 1.85587e-05 2.26854e-05 -1.05128e-05 -2.00698e-06 2.26838e-05 
-4.43156e-05 -2.1848e-05 2.65735e-05 -7.74192e-05 -2.68082e-05 4.95882e-06 -3.03367e-05 6.0818e-06 1.18139e-05 
-3.56052e-05 -1.70654e-06 6.34126e-06 -3.19346e-05 -2.86905e-06 1.5359e-05 -2.08039e-05 -2.88717e-07 3.57116e-07 
-3.07274e-05 8.81036e-06 8.81019e-06 5.46311e-05 -4.0657e-05 0.00013192 -3.21307e-05 1.96593e-06 -1.20293e-05 
-2.76319e-05 -1.3033e-05 -1.60242e-05 -3.46156e-05 -6.81182e-06 9.06024e-06 -5.14568e-05 -1.76657e-05 3.98791e-05 
-3.15361e-05 -2.95242e-05 -6.84305e-06 -5.12897e-05 -4.91291e-06 -7.69957e-06 -3.20078e-05 1.17956e-05 5.93304e-06 
-3.36051e-05 -1.02596e-06 -1.02396e-05 -0.000105141 4.47331e-06 -3.05334e-06 -3.63164e-05 -1.4296e-05 1.3431e-05 
-5.28532e-05 -1.54296e-05 1.92209e-05 -4.0733e-05 -1.70091e-05 6.39964e-06 -3.82611e-05 2.16155e-05 8.48741e-06 
-5.85404e-05 1.12602e-06 1.53043e-05 -5.57326e-05 -5.68991e-06 -3.10956e-06 -3.73677e-05 -2.80394e-05 2.75994e-05 
-4.23272e-05 -2.27188e-05 6.02591e-06 -3.38709e-05 -2.8505e-05 3.37147e-05 -5.0818e-05 -7.53522e-06 2.31942e-05 
-4.3765e-05 -2.01329e-05 3.88982e-05 -6.37651e-06 -9.06276e-06 -1.9024e-05 -6.94493e-05 -6.9934e-05 1.80403e-06 
-3.55638e-05 -2.52378e-05 -2.25218e-05 -2.60155e-05 -7.5486e-06 2.97047e-05 -2.32922e-05 2.01824e-05 3.73706e-05 
-2.95053e-05 1.57699e-06 1.15015e-05 6.30601e-05 1.98878e-05 9.11554e-05 -1.0688e-05 -3.60599e-05 1.52527e-06 
-9.23037e-06 -2.77381e-05 -1.40555e-05 7.90488e-06 -3.16252e-05 9.93122e-06 -7.63207e-05 1.37605e-05 4.14278e-05 
4.75067e-05 -4.14737e-07 0.000106513 6.08439e-05 2.46678e-06 6.47798e-05 3.30534e-05 1.62824e-05 5.74032e-05 
-2.60662e-05 -6.17603e-05 -3.86389e-05 -1.89688e-05 -4.48093e-05 -2.77895e-05 -1.04559e-05 -3.66009e-05 -1.72749e-05 
-1.13073e-05 -1.74397e-05 -4.13987e-05 -6.34199e-05 -1.78333e-05 5.54805e-05 -0.000105283 1.42008e-05 2.32128e-05 
-7.02084e-05 2.58802e-05 3.62545e-05 -5.73675e-05 -2.02375e-05 -2.21007e-05 -5.12879e-05 2.01101e-06 2.71103e-05 
3.40998e-05 -3.46353e-05 2.90395e-05 1.77083e-05 4.2643e-05 3.17143e-05 -4.49657e-05 2.48616e-05 -6.15158e-06 
-3.52338e-05 8.92926e-06 4.89295e-05 -9.39567e-06 -1.8718e-05 6.4257e-05 1.9881e-05 7.28781e-06 4.80308e-05 
-2.27938e-05 1.64548e-05 9.22736e-05 -1.80102e-05 -1.8944e-05 5.95557e-05 -3.72079e-05 -4.21433e-07 4.20027e-06 
-4.97105e-05 -1.2362e-05 1.62981e-05 5.03338e-06 3.16763e-06 2.07693e-05 -7.42015e-08 1.0131e-05 0.000170548 
-1.17584e-05 2.78219e-07 2.406e-05 1.32398e-05 -6.13525e-05 2.22204e-05 2.75596e-05 -3.29628e-05 2.01847e-05 
5.01445e-05 -2.47035e-05 0.000123386 8.49585e-05 -1.02896e-05 8.13366e-05 -0.000116608 -7.60078e-05 -9.59818e-05 
-1.79112e-05 -3.58419e-05 1.96743e-06 -1.9568e-05 -2.86684e-05 -2.85819e-05 -5.60867e-05 -2.44036e-05 -4.63067e-06 
-2.43419e-05 -3.32519e-05 -5.42185e-05 2.49601e-05 -4.87724e-05 3.10484e-05 -5.63911e-05 -9.58109e-06 3.3202e-05 
-0.000145471 -0.000101405 -8.1251e-05 3.76594e-05 4.43557e-05 2.432e-05 -5.59662e-05 7.89344e-06 -4.03417e-05 
-1.93219e-05 -1.58295e-06 -1.60798e-05 -3.28162e-05 -7.98938e-05 3.03166e-05 1.86782e-05 -6.58028e-05 3.54797e-06 
6.6787e-06 -2.29594e-05 4.18524e-05 -3.43826e-05 2.05097e-05 -2.60895e-05 -2.04241e-05 -2.69594e-06 5.74722e-05 
-0.000144123 7.77472e-05 0.000115084 1.13104e-05 -3.65864e-05 3.35247e-05 -3.32249e-05 2.80421e-05 6.24647e-05 
0.000130333 -1.27075e-05 0.000139468 9.51815e-06 1.05135e-05 -1.44978e-05 -4.73986e-05 8.77155e-06 -8.83452e-06 
-6.78072e-05 -3.56436e-05 -2.24955e-05 9.08509e-05 -1.894e-05 7.45232e-05 -9.12658e-07 -6.84315e-05 5.24317e-05 
-0.000109562 0.000318841 0.000114875 4.53913e-05 0.000282096 0.000354464 -0.00171753 0.00101712 0.0013059 
-1.77193e-06 -3.44735e-05 1.7595e-05 -2.2825e-05 5.8128e-06 -2.34502e-05 1.8091e-05 -4.90606e-05 4.19342e-05 
3.91911e-05 1.11044e-05 9.3849e-05 1.09024e-05 -0.000133412 4.45038e-06 -0.000100045 1.67165e-05 -0.00010318 
-1.59339e-05 8.36849e-05 6.82367e-05 7.13284e-05 -0.000112958 -5.52893e-05 -5.40942e-05 -6.27712e-05 -8.44064e-05 
-7.67644e-05 -3.96098e-05 -1.71728e-05 -4.18778e-05 -8.53707e-05 -0.000128618 -1.53905e-05 6.7949e-05 -4.45323e-05 
0.000872686 7.35877e-05 -9.07354e-05 -4.24282e-05 -0.000109835 5.29582e-06 -3.28913e-05 -9.00958e-05 2.78601e-05 
-9.55843e-06 -2.65267e-05 1.61495e-05 -1.66121e-05 9.25413e-05 -2.82385e-05 -3.18647e-06 -0.000191349 -2.79446e-05 
8.24561e-06 -0.000146557 -1.21369e-05 -1.75122e-05 -0.000173994 -0.00013081 0.000774527 0.000109266 -0.000143578 
4.72416e-05 -7.41077e-05 5.76756e-05 9.5112e-06 -3.52836e-05 -2.50471e-05 0.000110175 0.000238335 0.000364944 
-4.38653e-05 -7.11504e-05 1.89691e-05 -2.53068e-06 -0.000139691 -5.75655e-05 -1.12538e-05 -6.43587e-05 -4.44978e-05 
-0.000142772 -0.000354868 0.000137336 -0.000540865 0.000458167 -0.000130497 0.000912606 -0.00071122 -9.58584e-05 
-0.000153279 -8.01916e-05 1.11599e-05 6.10564e-05 -7.01379e-05 -0.000109045 
f 3 167 double
-2.09102 -2.85348 0.000175296 -4.81771 -1.58297 2.22016 2.50369 -4.90551 -0.110993 
1.48423 0.795097 -3.11121 2.8849 -3.56423 0.330625 3.98933 -3.23142 3.06635 
1.69965 -2.56048 2.91444 0.455682 -0.553252 3.56911 -0.564423 -2.5323 1.71467 
1.4677 -2.92821 5.75815 -1.60772 -6.17595 -1.15947 4.95604 -7.39193 -5.11066 
-1.07126 -2.3299 0.01523 -1.90692 1.35238 0.409749 -1.93196 -1.85149 -0.22767 
-0.558479 -3.07517 5.04081 -3.8245 0.972269 2.59583 -8.40776 -1.32463 2.83052 
-1.29088 -2.61149 2.41597 -3.3337 -1.55717 0.951826 0.0183271 -1.87004 -0.289902 
0.659092 -0.395608 2.02946 -1.83804 -0.148898 0.70904 -2.25717 -1.34971 10.3512 
-2.82173 0.181159 4.82143 1.04625 -1.59 3.73584 -3.03859 -0.987397 2.01077 
0.328453 -2.59046 5.34874 -0.00852003 -5.83096 4.18206 4.89947 -4.26514 10.1256 
3.12115 0.372673 5.68162 2.40971 3.86103 8.72969 1.8418 -2.28544 2.92704 
-1.14879 -1.60745 7.18861 -1.11899 -0.763307 2.20514 0.184283 1.05868 3.50554 
1.70598 -1.03787 2.58698 -0.257157 -5.27352 7.81245 -0.237018 -0.755119 -0.716296 
2.42103 -0.821027 -0.839888 -0.0207026 -3.40766 5.55283 2.71759 -8.02976 4.01224 
-3.94074 -6.04011 6.28691 -1.78549 -7.11673 6.15904 0.392486 -2.77704 2.79559 
-0.370684 -0.978322 1.88145 -5.3027 -0.71074 -5.39885 5.1875 2.51925 -3.43548 
0.598242 4.07444 4.40655 0.619477 -5.6084 6.09085 4.79623 2.31165 0.0610507 
5.3178 5.49408 3.48244 1.18127 -2.23645 -3.49635 3.04255 6.49034 2.07822 
-0.780498 5.71286 5.32312 -5.83674 -1.43218 5.69987 -2.08016 1.6168 5.71342 
6.23293 -9.44187 2.30683 9.60704 1.51942 10.1833 5.05147 7.40389 6.35499 
-0.450105 -1.87171 5.51282 5.33166 -7.25894 7.76293 1.87282 -0.469309 13.7744 
0.89036 2.72194 6.95061 0.513773 -2.36098 11.2427 -1.40695 -2.3257 6.97089 
0.344988 -0.944011 -2.33111 -2.57831 7.62794 4.00267 -0.262128 1.69769 10.733 
-0.416053 0.186037 12.9646 -0.551255 -6.38052 13.1819 3.77611 -5.50886 8.9293 
-2.57545 -6.447 4.05289 -6.23037 -3.7539 0.0288968 -1.98557 12.3191 2.08688 
-2.03377 6.33822 5.32216 2.86885 1.28807 7.07946 2.6277 -8.59397 1.64829 
0.239175 5.12417 -7.18015 2.70999 0.0470395 -5.49036 2.53877 -6.06643 1.56712 
2.59442 3.31543 2.54368 -0.362721 -5.47149 1.02413 0.0522159 3.05497 2.86997 
-0.911767 5.97265 6.26956 5.326 -2.29119 2.62434 14.4935 -9.99897 4.88775 
6.43436 11.3821 15.8759 -2.15825 -1.38944 3.22614 4.33127 -0.655522 13.8464 
-0.785687 3.83228 4.93648 7.3776 -6.70021 -3.01017 5.84656 -2.52415 0.523398 
5.97236 5.70138 8.46434 5.99827 -2.63586 14.3017 4.67084 -1.21887 10.0976 
-0.545066 1.35651 -1.38218 1.06813 -3.30301 0.413191 -0.904402 10.5746 3.47501 
2.76411 9.9079 15.6263 1.13315 4.34358 4.79221 -18.069 3.59518 -3.36135 
-2.78431 4.16467 2.43145 -3.54785 -5.19282 8.00843 1.39855 8.21237 2.88025 
-7.55272 3.78567 -6.92079 -7.29656 2.26828 -7.25 -6.96904 2.58485 -0.299422 
-3.47412 8.27069 1.68762 -2.64472 0.672557 -1.97816 -2.31277 5.98711 3.72513 
-4.53619 -1.01598 3.39366 -4.62906 13.3577 4.88012 0.15295 -5.48417 7.71009 
-5.41702 -3.21738 6.41029 10.4262 4.60775 9.25027 4.40869 4.15192 -0.269978 
15.2494 2.74822 8.05027 0.962118 -2.12665 -0.304323 -1.16418 8.09288 1.5823 
15.6142 5.68574 -3.06367 -5.4938 5.72579 -1.21485 17.8767 11.5175 7.58708 
22.8033 -14.1352 9.17718 4.80267 4.96709 2.62699 -9.44319 -4.23478 6.7175 
-26.8866 16.1069 -12.8431 -13.0459 -1.90082 -4.58808 -5.12203 4.47329 6.77244 
3.24053 4.95117 22.0018 -12.9858 1.41544 8.88998 -3.14045 11.1451 -9.18656 
33.9767 -35.4539 8.11016 -21.7407 -33.7382 -32.3572 3.8037 24.2436 -85.7505 
0.17878 1.11007 0.107888 0.100781 -4.88506 -1.87721 5.73158 1.68659 4.63829 
-15.222 0.683069 0.4331 3.64674 -9.54577 8.87959 5.65133 -10.9769 -7.59034 
2.14472 2.39543 12.7149 8.77306 -1.02604 2.0382 -9.8492 -7.67744 2.5005 
-4.74708 -5.6004 7.63474 3.39314 -10.7487 12.8489 5.70289 17.0492 9.89709 
-6.09263 -9.20988 1.76166 -5.13702 -1.83458 -1.8513 2.55983 2.64428 11.1122 
4.22261 6.69925 23.4659 -3.46499 31.4624 -13.7981 -5.44294 19.425 3.45703 
10.6236 4.55246 1.54056 10.1658 10.6808 0.447029 8.46698 5.24645 -3.84022 
-1.23935 15.6906 7.69092 -10.631 2.09485 -4.88509 -13.6415 -18.7422 -38.7841 
-11.9668 2.20704 13.7237 -0.456808 -7.13288 2.20006 -7.68508 15.468 -4.55609 
-12.5991 18.4589 6.36939 -7.43334 -11.0046 -1.47397 2.95692 12.9526 0.144834 
10.6411 24.4095 -17.9999 17.9322 -6.0839 3.08529 
radius 1 167 double
100 100 100 100 100 100 100 100 100 
100 100 100 100 100 100 100 100 100 
100 100 100 100 100 100 100 100 100 
100 100 100 100 100 100 100 100 100 
100 100 100 100 100 100 100 100 100 
100 100 100 100 100 100 100 100 100 
100 100 100 100 100 100 100 100 100 
100 100 100 100 100 100 100 100 100 
100 100 100 100 100 100 100 100 100 
100 100 100 100 100 100 100 100 100 
100 100 100 100 100 100 100 100 100 
100 100 100 100 100 100 100 100 100 
100 100 100 100 100 100 100 100 100 
100 100 100 100 100 100 100 100 100 
100 100 100 100 100 100 100 100 100 
100 100 100 100 100 100 100 100 100 
100 100 100 100 100 100 100 100 100 
100 100 100 100 100 100 100 100 100 
100 100 100 100 100 
omega 3 167 double
-6.8688e-08 3.5258e-07 4.09697e-08 1.20599e-07 -4.12378e-07 2.52578e-08 -1.39151e-07 -9.044e-08 -6.52005e-08 
-3.60853e-07 5.84308e-07 1.42414e-07 2.72184e-08 7.51024e-08 -8.39181e-08 -5.27218e-08 -3.87022e-07 6.34067e-08 
3.77402e-08 -6.27843e-08 -7.67342e-08 2.63137e-08 -1.39917e-07 2.85612e-07 -1.0165e-07 -6.45478e-09 -1.68866e-07 
3.99047e-07 -9.09802e-08 1.60245e-07 1.636e-07 -1.37406e-07 3.36944e-07 -7.2258e-08 -4.26094e-07 -5.067e-08 
-1.24452e-07 -1.46027e-07 2.13692e-07 -8.5481e-08 -1.13136e-07 2.76432e-07 2.20567e-07 -3.35256e-08 -4.41327e-07 
-1.7681e-07 -1.97275e-08 -7.53835e-08 -2.23805e-08 -1.71419e-07 -3.17576e-07 -1.13335e-07 1.27365e-07 3.93128e-08 
1.12956e-07 -1.1872e-07 -1.49335e-07 -1.1013e-07 -6.71364e-08 4.61223e-08 1.61481e-07 3.51155e-08 1.23608e-07 
2.94711e-08 -1.86828e-07 -1.60751e-07 5.05443e-08 2.18796e-08 2.13753e-07 1.96196e-07 -9.88278e-08 4.82783e-09 
7.11095e-08 3.03805e-08 -1.9484e-07 1.46476e-07 -3.282e-07 -9.85028e-08 1.8071e-07 -3.28013e-07 -4.8574e-07 
1.02192e-07 1.62035e-07 4.00485e-07 -1.20632e-07 -3.17382e-07 -2.91785e-07 -2.67147e-07 5.80228e-07 4.19631e-07 
-1.67706e-07 -6.8671e-08 -1.32742e-07 7.04267e-08 -9.16143e-08 4.45577e-08 -5.1353e-08 -1.19951e-07 1.40531e-07 
1.30252e-07 -8.39058e-08 4.21228e-07 -1.02521e-07 -6.28635e-08 -1.22054e-08 -6.98007e-08 2.98172e-08 -2.60357e-10 
-2.5605e-08 -2.49691e-08 -2.46108e-07 -1.12549e-07 -1.09316e-07 2.54603e-07 -6.44547e-08 2.38119e-08 1.90631e-07 
9.20033e-08 -8.04419e-07 1.00219e-07 5.19127e-07 -3.07373e-07 -3.49437e-07 3.11392e-07 -1.37535e-08 9.28249e-08 
-1.4184e-07 1.11104e-07 -8.05956e-08 1.23315e-08 -2.3901e-07 2.49313e-07 -1.50932e-08 -8.38513e-08 -2.04008e-07 
-2.20842e-08 -3.12488e-07 6.58292e-08 4.98166e-07 8.74827e-07 -7.36949e-07 1.07105e-07 3.77519e-07 5.96721e-07 
2.22717e-07 4.88305e-07 -2.81667e-07 1.07542e-07 4.98187e-07 5.00381e-10 -8.72976e-08 6.22935e-08 6.35062e-08 
2.26899e-07 3.30615e-07 -2.22223e-07 1.69719e-07 3.08673e-07 -5.62708e-08 1.95046e-07 7.72658e-07 3.23862e-07 
4.75538e-07 4.17818e-08 -3.65536e-07 -4.8027e-07 -7.80295e-07 2.47305e-07 1.26433e-07 -2.6529e-07 -3.01794e-07 
1.04031e-08 -2.11878e-07 -3.83228e-07 3.37571e-07 -4.68603e-08 3.78316e-07 -3.03033e-07 6.25155e-08 4.58789e-08 
-5.95012e-08 1.09462e-08 7.61916e-08 -2.59891e-07 1.74382e-07 -3.26628e-07 5.48498e-07 -1.07569e-07 -1.34585e-07 
1.69434e-07 -3.95338e-07 4.46393e-08 3.53972e-07 1.60914e-07 -6.0014e-08 -6.47288e-08 -1.8782e-07 1.37836e-08 
-1.66936e-07 9.60361e-07 -3.47456e-08 -1.21917e-07 -4.69728e-07 -2.07946e-07 -1.80276e-07 3.9618e-07 2.27326e-07 
-1.60826e-07 -7.20072e-08 5.83453e-08 -2.97197e-07 -1.40114e-07 2.6503e-07 1.30325e-07 1.99252e-07 -1.29531e-07 
-3.33367e-07 6.63283e-07 -3.88008e-07 -1.07836e-07 -2.22768e-07 -1.3168e-06 6.30097e-07 -3.64734e-07 4.20252e-08 
2.16243e-07 1.19017e-07 -1.71113e-07 -4.75674e-08 -2.55172e-07 -7.11862e-08 3.76364e-07 -1.43494e-06 -2.00332e-07 
-3.81508e-07 -1.41829e-06 -5.45856e-08 -5.28386e-07 1.31031e-06 1.57135e-07 -2.98671e-07 2.54215e-07 1.82399e-06 
-3.28965e-10 -2.1598e-07 4.70769e-08 1.89184e-07 7.29188e-08 1.1219e-08 -1.20562e-07 4.24047e-08 2.00301e-07 
-3.80151e-07 6.18924e-08 4.75284e-07 -2.99032e-07 -1.26733e-07 4.97295e-07 -9.23014e-08 -8.91102e-08 -4.98906e-08 
-1.95103e-07 -3.17653e-07 6.02804e-07 2.33248e-08 -2.02861e-07 4.64129e-07 4.23907e-07 3.94563e-07 -7.55037e-07 
5.08187e-07 9.64583e-07 2.91811e-07 1.24656e-06 7.00627e-08 9.69275e-08 -7.98925e-07 9.0127e-08 -7.06842e-07 
-9.72285e-07 -1.05788e-07 5.35812e-08 2.65844e-07 -1.45466e-07 1.88271e-07 5.22702e-08 2.14919e-07 3.35217e-07 
-2.19848e-07 6.0144e-07 4.39489e-07 2.58278e-07 -8.70086e-07 1.06679e-08 -3.10224e-07 3.33224e-07 -5.36391e-08 
-1.29109e-07 -5.04026e-07 -2.05763e-07 -8.2369e-07 7.18924e-07 2.25719e-08 3.05954e-07 -4.62434e-07 8.20461e-07 
3.38834e-07 1.68609e-07 -4.56889e-07 -1.3039e-07 -2.91092e-07 -2.13738e-07 6.10125e-07 5.71936e-07 4.21444e-07 
3.76856e-08 1.7744e-06 -1.30688e-07 -5.80705e-08 -1.42469e-06 -3.24089e-07 -8.80087e-08 -9.33132e-07 9.40387e-07 
-6.22016e-07 1.94589e-07 1.67603e-07 -1.42555e-07 7.24123e-08 -9.20404e-08 4.76881e-07 -6.15504e-07 1.53508e-07 
2.25497e-07 2.87595e-07 1.13221e-07 1.36843e-07 1.07466e-06 6.26084e-07 3.91421e-07 -6.18939e-07 -8.84616e-07 
5.98514e-07 6.30246e-07 -6.62159e-07 1.31333e-06 1.56533e-06 -9.77818e-07 -6.14131e-07 7.40405e-07 -1.92192e-07 
-3.80317e-07 2.19909e-07 -4.94131e-07 8.50803e-07 -6.35538e-07 -1.22082e-08 -3.25048e-07 -7.50994e-07 -8.84423e-07 
-4.2066e-07 -2.81368e-07 1.43772e-07 4.2489e-07 -4.16549e-07 -1.92603e-07 1.0833e-06 1.03405e-06 -8.16635e-07 
-1.40744e-06 -2.1335e-06 1.18273e-06 -7.34737e-07 -7.68769e-07 4.78959e-07 1.60373e-08 1.76068e-07 -4.56249e-07 
6.01836e-07 8.10382e-07 1.54037e-07 3.24214e-08 9.01279e-07 -1.18903e-07 3.99362e-07 -1.45e-07 2.04606e-07 
2.96407e-07 3.98566e-07 4.65076e-07 8.23726e-07 7.72741e-07 4.94505e-07 1.82365e-06 -1.37975e-06 -1.1344e-06 
-2.56902e-06 7.65695e-07 -1.46759e-06 -2.80534e-06 -2.37977e-06 3.74567e-06 -9.97071e-06 -4.03009e-05 1.14589e-05 
-2.69948e-07 -4.61409e-08 1.50033e-07 -2.16065e-07 8.8975e-08 1.88772e-07 -4.95819e-07 -1.07786e-06 -2.62136e-07 
-8.19027e-07 -1.70658e-06 1.00941e-06 1.20398e-06 1.45997e-06 -7.39592e-08 -1.28921e-06 5.87599e-07 1.55582e-07 
-1.58276e-06 6.14349e-07 -5.69365e-07 1.36618e-06 1.28328e-06 3.96825e-07 5.52273e-08 -6.54846e-07 5.22022e-08 
9.89513e-08 1.5259e-07 1.4504e-07 1.37695e-06 -2.88491e-08 -3.27567e-07 4.61559e-08 -6.00707e-07 6.42458e-07 
-4.01498e-06 1.92957e-05 -2.60451e-06 -3.04191e-08 8.63454e-07 -9.26348e-08 5.54986e-07 3.11075e-07 7.19547e-08 
5.88456e-07 2.94467e-07 -2.39527e-07 -1.20383e-06 -6.94976e-07 -1.77675e-06 1.00232e-06 5.08173e-07 -4.96032e-08 
-5.16856e-07 -2.4332e-07 -2.14773e-07 5.27844e-07 1.45069e-06 7.56196e-07 -5.29977e-06 1.33724e-05 -7.95548e-07 
-2.63862e-07 -1.33088e-06 -7.08486e-07 -1.68155e-08 -1.23193e-06 5.90343e-07 2.45628e-06 2.31364e-06 -3.76944e-06 
2.89984e-07 9.66112e-08 -4.77063e-07 1.26513e-06 9.8775e-07 8.85037e-07 1.16149e-06 -1.24221e-06 -3.26401e-08 
6.83238e-06 -1.83027e-06 3.31758e-07 -5.85188e-06 -5.55662e-06 1.57889e-06 9.19774e-06 1.01169e-05 5.79722e-06 
4.89589e-06 -1.80342e-06 2.64844e-06 -2.24504e-06 -9.42711e-08 1.12968e-06 
