# vtk DataFile Version 4.0
Generated by LIGGGHTS
ASCII
DATASET POLYDATA
POINTS 99 float
-420.268 -402.502 270.48 -494.845 -329.36 99.9434 -232.015 -441.108 99.9397 
-128.969 -418.212 287.179 -71.2378 -322.264 99.9604 42.5568 -318.004 264.333 
107.482 -411.987 99.9693 296.151 -308.562 99.9563 383.764 -488.293 99.9743 
401.377 -312.15 269.994 -348.433 -143.635 99.9902 -244.639 -274.556 209.891 
-148.547 -137.843 99.9841 95.7889 -212.31 99.9764 -7.01999 -101.4 236.684 
220.547 -226.987 266.116 267.045 -109.084 99.9661 457.932 -141.594 149.907 
-449.897 28.6824 99.9352 -432.349 -42.0771 286.182 -237.006 -84.3815 271.198 
-93.3753 54.3548 99.9821 98.7559 -0.9486 99.9416 39.6493 90.4207 269.658 
200.65 -28.086 270.322 377.138 34.3209 200.058 -442.45 155.55 257.654 
-277.018 115.969 149.475 -142.734 255.593 99.9472 -273.232 256.524 291.633 
48.0882 195.671 99.9204 -32.0218 277.43 265.085 240.271 140.313 99.9678 
171.028 264.657 241.704 441.989 197.356 99.9374 361.321 224.256 287.95 
-337.734 301.903 99.9794 -418.022 485.619 99.9405 -494.612 344.721 219.305 
-281.072 454.225 263.079 -83.0067 437.978 156.074 227.737 484.615 222.068 
102.28 388.101 99.9457 294.529 332.778 99.9718 -276.375 -330.152 399.532 
-34.9452 -444.444 466.581 253.702 -393.944 378.807 493.841 -394.523 451.029 
-443.403 -226.529 362.526 -310.232 -109.589 455.594 -112.192 -226.52 351.846 
92.241 -155.271 401.725 316.042 -234.125 481.605 375.086 -117.477 330.288 
-329.588 86.3664 407.529 -156.548 94.9903 307.704 -159.287 29.2121 496.493 
37.3311 28.1043 459.651 242.385 -48.2076 479.296 434.028 65.8671 389.177 
-466.162 210.487 484.681 -264.267 274.662 490.919 75.3815 263.073 433.25 
218.652 129.921 391.556 -414.474 383.393 398.379 -256.708 483.589 469.539 
-97.8447 368.547 430.647 46.3948 469.812 305.194 208.68 409.794 406.557 
395.864 352.188 453.741 406.539 492.226 311.256 -212.198 -327.919 619.108 
80.1598 -319.627 572.385 332.583 -461.63 549.663 -389.966 -266.207 551.169 
-63.1658 -143.466 527.041 474.261 -114.229 506.098 -415.995 35.4881 580.549 
-142.264 -14.1118 690.963 -383.163 309.111 648.69 -81.3027 217.034 595.816 
147.184 144.684 579.382 -169.857 401.353 629.817 -485.513 -203.65 717.471 
147.638 131.894 778.965 -289.544 -232.65 959.127 -22.3476 -189.227 1194.21 
366.576 226.134 1128.28 286.889 -297.609 1464.96 -363.518 208.871 1667.89 
8.67761 352.731 1596.87 -13.2692 155.261 1756.83 287.727 105.651 1898.33 
-122.544 -334.64 2006.27 78.8162 -397.812 2057.32 -351.622 -238.327 1946.01 
-384.867 -27.9851 2063.66 13.3325 -62.4992 2085.2 22.1066 221.638 2084.78 

VERTICES 99 198
1 0 
1 1 
1 2 
1 3 
1 4 
1 5 
1 6 
1 7 
1 8 
1 9 
1 10 
1 11 
1 12 
1 13 
1 14 
1 15 
1 16 
1 17 
1 18 
1 19 
1 20 
1 21 
1 22 
1 23 
1 24 
1 25 
1 26 
1 27 
1 28 
1 29 
1 30 
1 31 
1 32 
1 33 
1 34 
1 35 
1 36 
1 37 
1 38 
1 39 
1 40 
1 41 
1 42 
1 43 
1 44 
1 45 
1 46 
1 47 
1 48 
1 49 
1 50 
1 51 
1 52 
1 53 
1 54 
1 55 
1 56 
1 57 
1 58 
1 59 
1 60 
1 61 
1 62 
1 63 
1 64 
1 65 
1 66 
1 67 
1 68 
1 69 
1 70 
1 71 
1 72 
1 73 
1 74 
1 75 
1 76 
1 77 
1 78 
1 79 
1 80 
1 81 
1 82 
1 83 
1 84 
1 85 
1 86 
1 87 
1 88 
1 89 
1 90 
1 91 
1 92 
1 93 
1 94 
1 95 
1 96 
1 97 
1 98 

POINT_DATA 99
FIELD FieldData 7
id 1 99 int
32 15 7 51 1 34 9 11 6 
20 19 30 14 10 38 36 29 26 
3 23 47 24 16 43 35 21 37 
33 28 44 13 46 2 31 12 39 
17 4 25 27 18 22 8 5 65 
58 41 62 52 53 40 50 67 56 
57 42 60 55 73 49 66 78 64 
61 63 71 68 48 59 69 45 82 
81 77 70 54 72 76 85 84 80 
74 75 79 83 90 89 87 86 88 
91 92 93 94 96 97 98 99 95 

type 1 99 int
1 1 1 1 1 1 1 1 1 
1 1 1 1 1 1 1 1 1 
1 1 1 1 1 1 1 1 1 
1 1 1 1 1 1 1 1 1 
1 1 1 1 1 1 1 1 1 
1 1 1 1 1 1 1 1 1 
1 1 1 1 1 1 1 1 1 
1 1 1 1 1 1 1 1 1 
1 1 1 1 1 1 1 1 1 
1 1 1 1 1 1 1 1 1 
1 1 1 1 1 1 1 1 1 

i 3 99 int
0 0 0 0 0 0 0 1 0 
0 0 0 0 0 0 0 0 0 
-1 0 0 -1 0 0 0 0 0 
0 0 0 0 0 0 0 0 0 
0 0 0 0 0 0 0 0 0 
-1 0 0 0 0 0 -1 0 0 
0 0 0 0 0 0 0 0 0 
1 0 0 0 0 0 0 0 0 
-1 0 0 0 -1 0 0 0 0 
0 0 0 0 0 0 0 0 0 
0 0 0 0 0 0 0 0 0 
0 0 0 -1 0 0 0 0 0 
0 -1 0 1 0 0 1 0 0 
0 -1 0 0 -1 0 0 0 0 
0 -1 0 0 0 0 0 0 0 
0 0 0 0 0 0 0 0 0 
0 0 0 0 0 0 0 0 0 
0 0 0 0 0 0 0 0 0 
1 0 0 0 0 0 0 0 0 
0 0 0 0 0 0 0 0 0 
0 0 0 1 0 0 0 0 0 
0 0 0 0 0 0 0 0 0 
0 0 0 0 0 0 0 0 0 
0 0 0 0 0 0 0 0 0 
0 0 0 0 0 0 0 0 0 
0 0 0 0 0 0 0 0 0 
0 0 0 0 0 0 0 0 0 
0 0 0 0 0 0 0 0 0 
0 0 0 0 0 0 0 0 0 
0 0 0 0 0 0 0 0 0 
0 0 0 0 0 0 0 0 0 
0 0 0 0 0 0 0 0 0 
0 0 0 0 0 0 0 0 0 

v 3 99 double
0.000386304 -0.000497086 0.000371939 0.000601277 -0.000511352 0.000178748 2.7315e-05 -0.000197168 2.43013e-05 
6.07968e-05 2.18287e-06 0.000408278 0.00033816 -0.000393102 -1.05959e-05 0.000732329 -0.000604152 -0.000202118 
0.000516246 0.000320732 -0.000119682 0.000689207 0.000606946 6.09859e-05 9.77599e-05 0.000307041 5.21369e-05 
0.000737263 -0.000256481 0.000515484 0.000222347 -0.000465785 -0.000378348 0.00028049 -0.000155932 0.000161954 
0.000162827 -0.000332301 4.03187e-05 0.000230834 -0.000519433 -6.90833e-05 0.00016746 -0.000197565 -0.000424299 
0.000701576 -0.000371427 0.000571369 0.000331911 -0.000752006 6.38446e-05 0.000226354 -0.00045544 -0.000265154 
-3.79487e-05 -0.000493394 8.3913e-06 0.00101891 -0.000623499 0.000186784 0.000804103 -0.000246441 -8.45481e-05 
0.000135462 -0.000208872 -3.74872e-05 6.88357e-05 1.04086e-06 -8.1852e-05 8.37395e-05 5.53356e-05 0.000162732 
6.14291e-07 -0.000345121 0.000102922 -0.000135736 -0.000454457 -0.000260367 -0.000589253 -0.000673077 -0.000114725 
0.000139497 -0.000661753 0.000344284 0.000350329 -0.000406944 0.000161956 -0.000318265 -0.000646175 0.000343505 
-0.000292154 6.48432e-05 5.83434e-05 -0.000669656 -3.01845e-05 0.000466228 -0.000101641 0.000263175 9.28022e-05 
-0.000380311 0.000192543 -0.000281384 -0.000831207 5.44152e-05 0.000134913 -0.000489381 0.00110777 0.00108729 
-0.000271908 -0.000555613 -9.2283e-08 0.000126625 -0.000474619 -1.02329e-05 0.000463455 -0.000464173 0.000235588 
0.000488036 -0.00057542 -3.76953e-05 0.000234766 5.91176e-05 2.85286e-05 0.00027764 -0.000466765 0.000334397 
0.00020348 0.000163854 -0.000121409 -0.000977897 0.000786018 -0.000202673 0.000747019 -0.000902474 -2.3649e-05 
-0.0128366 0.00361388 -0.00893778 0.00141552 -0.00199258 0.00148141 0.000865274 -0.00071776 4.46018e-06 
0.00134638 -0.000557723 0.000745748 0.00171082 -0.00154076 0.000193143 0.000633158 -0.000404912 -0.000523764 
-0.000424895 -0.000354618 -4.492e-05 0.00371192 -0.00189035 0.000115154 0.000455282 -0.000327641 -7.71392e-05 
-0.000974969 -0.00405103 -0.00131131 8.94075e-05 -0.000370981 0.000768298 -0.00279101 -0.00270254 0.000170974 
-0.00265812 -0.000562633 -0.000419131 0.00354366 -0.00185075 -0.00796844 -0.00178475 -0.0017436 0.000613938 
0.00076596 -0.00134786 -0.00223243 -0.00274065 -0.0063323 -0.000900002 -0.00190834 0.000585619 0.00181923 
-0.0020798 0.00107829 -0.000916453 -0.00262468 0.000800357 0.00154628 -0.00290587 -7.68859e-05 0.00351359 
-0.00397755 -5.12623e-05 -0.00056958 -6.02308e-05 -0.00260166 0.000416359 -0.00184017 0.000407431 0.000433205 
-0.00392269 -0.00421869 -0.00387182 0.000357883 -0.00020113 -0.000128248 0.00281736 0.00881791 0.010653 
-0.00814281 -0.0163878 0.0101382 0.00357703 -0.0135122 -0.00393574 0.000844659 -0.0018919 0.0014061 
-0.000359173 -0.00142995 0.00038192 0.00356246 -0.00121729 0.00150127 -0.00466693 0.00578201 -4.80825e-05 
-0.00116011 -0.00529069 -0.000472039 -0.0146813 0.0246036 -0.0124303 0.00589029 -0.0127469 -0.153162 
9.31994e-05 -0.00253725 -0.000919368 0.000669963 0.00158144 0.00290813 -0.0270442 -0.0109154 -0.0166839 
-0.00183236 -0.00569622 -0.00100123 0 0 -0.144298 0 0 -0.127316 
0 0 -0.1323 0 0 -0.104391 0 0 -0.0831617 
0 0 -0.0911568 0 0 -0.0719096 0 0 -0.0489346 
-0 -0 -0.02 -0 -0 -0.02 0 0 -0.0382025 
-0 -0 -0.02 -0 -0 -0.02 -0 -0 -0.02 

f 3 99 double
-37.3222 -25.4186 4.86247 34.1096 14.6513 6.0329 -25.8192 -9.77596 -5.75759 
34.175 -7.42803 -69.076 -7.12087 0.742645 -1.53576 -36.0301 15.2733 -51.8704 
41.7208 4.55874 33.7116 0.481384 2.07336 -37.5382 -38.3903 1.22097 -36.9843 
-0.956032 22.6849 -26.4945 -61.0307 -4.56728 28.8426 -112.934 -50.4636 -84.2201 
-25.881 -37.0638 15.3212 18.7476 12.7558 12.2281 77.4331 22.9604 -31.9814 
15.3934 -4.52789 -43.6594 41.5883 9.10445 11.2337 -13.2693 -24.2595 15.2582 
-18.7023 0.730588 -31.3593 7.49341 1.23271 2.55515 -96.7994 -31.7766 -77.0475 
-8.33759 13.1865 -16.703 72.9814 0.733789 19.1533 19.5632 -83.7243 33.1705 
36.4873 -28.0383 44.572 9.99853 -22.1717 -39.437 48.5524 0.536258 -28.1106 
-41.0947 33.8553 -11.7266 -34.91 32.3357 -9.51127 39.385 -12.8339 50.1073 
4.07816 -50.3076 22.2668 0 0 -102.73 -19.7243 10.8164 50.336 
-19.672 -45.5118 70.6506 5.65559 -13.6392 -13.5849 -34.2459 -3.04224 39.9677 
5.39889e-07 1.13095e-06 -0.0110383 -14.2801 8.09666 -0.341318 -102.662 24.38 42.0114 
38.8902 -34.044 27.217 24.8461 11.0389 -61.9434 47.3075 -4.64812 -36.6628 
17.0634 -25.8352 -13.255 -45.8151 -31.9202 28.7851 -336.843 28.2112 3.31868 
0 0 -102.73 38.9855 31.9732 -68.345 4.64427 48.994 65.3959 
4.05665 9.57078 45.2286 0.104362 -0.692629 -106.568 -158.212 60.4577 22.9733 
23.2151 16.7713 -56.1999 -39.5744 -11.3992 1.66856 7.70059 74.7282 63.2683 
-46.9829 -15.6307 -16.333 -11.666 -93.0766 -2.57585 -6.44165 -43.2048 48.4543 
28.8116 -44.5843 57.8912 -3.41097 -32.6985 -47.469 2.94182 4.99255 -98.2709 
-2.84347 -5.07949 -107.738 0 0 -102.73 -11.9417 29.4611 -101.34 
-4.66426 -33.9894 21.3681 -38.1468 -34.6522 55.6666 -68.4129 -32.7534 -74.0705 
116.475 -179.599 -83.9056 20.9427 30.6286 -39.4664 3.76259 -1.62339 -90.4204 
0 0 -102.73 65.1942 115.901 98.2346 0 0 -102.73 
0 0 -102.73 7.54541 2.49372 -81.127 -21.4613 43.9622 -49.8836 
-6.58732 -76.4515 -88.5448 0 0 -102.73 -40.4561 -13.6392 -53.1918 
4.64809 -10.8587 63.442 0 0 -102.73 0 0 -102.73 
18.8135 9.83377 -65.5947 -0.300937 1.17782 -103.694 0 0 -102.73 
0.942562 0.834647 -99.9142 0 0 -102.73 0 0 -102.73 
0 0 -102.73 0 0 -102.73 0 0 -102.73 
0 0 -102.73 0 0 -102.73 0 0 -102.73 
0 0 0 0 0 0 0 0 -102.73 
0 0 0 0 0 0 0 0 0 

radius 1 99 double
100 100 100 100 100 100 100 100 100 
100 100 100 100 100 100 100 100 100 
100 100 100 100 100 100 100 100 100 
100 100 100 100 100 100 100 100 100 
100 100 100 100 100 100 100 100 100 
100 100 100 100 100 100 100 100 100 
100 100 100 100 100 100 100 100 100 
100 100 100 100 100 100 100 100 100 
100 100 100 100 100 100 100 100 100 
100 100 100 100 100 100 100 100 100 
100 100 100 100 100 100 100 100 100 

omega 3 99 double
1.41954e-06 6.49049e-06 -1.13572e-06 5.06796e-06 5.7413e-06 1.58298e-06 2.15495e-06 2.38726e-08 -7.43727e-06 
6.50087e-06 2.63476e-06 -1.73402e-06 3.29167e-06 4.18666e-06 4.17135e-06 2.76015e-06 -1.33911e-06 1.24951e-06 
-4.70879e-06 4.51054e-06 2.77461e-06 -5.68047e-06 7.41884e-06 1.38981e-05 1.89979e-06 -1.54043e-06 -1.85278e-05 
-7.99452e-06 -1.7882e-06 -9.71961e-07 -1.91919e-07 2.16008e-07 5.7057e-06 -7.16232e-07 -7.88031e-06 -3.15812e-08 
-1.43663e-06 -4.94374e-06 -2.90794e-06 5.70653e-06 2.59171e-06 -3.41097e-06 -7.31579e-06 -6.82483e-06 1.79896e-05 
1.12513e-05 7.26436e-07 8.72867e-07 7.12001e-06 3.80977e-06 -6.03752e-07 -1.11734e-05 -5.4396e-07 3.73382e-06 
5.60909e-06 -1.87621e-06 -4.12564e-06 -9.38379e-06 7.71245e-06 1.04283e-05 -2.83539e-06 -3.2393e-06 -8.8111e-06 
2.80659e-07 2.3961e-06 2.48888e-06 4.9995e-08 -3.90335e-06 -1.68547e-06 -4.15727e-07 1.10899e-05 -1.04008e-05 
-1.66826e-05 3.39746e-06 6.43731e-06 1.07678e-05 -1.01122e-06 -5.89324e-06 5.39325e-06 1.08334e-05 2.99393e-06 
-4.80003e-08 2.04016e-06 2.88582e-06 4.11003e-06 3.75248e-06 -5.23695e-06 -3.50952e-07 -1.23308e-05 -7.36881e-06 
2.24998e-07 -2.87732e-06 2.93595e-06 6.60952e-06 -2.27436e-05 2.74712e-05 -1.35483e-06 -3.73018e-07 4.54564e-06 
2.07294e-06 8.33261e-06 4.38964e-06 4.20988e-08 -8.24805e-06 -8.04567e-06 -2.44047e-05 -1.71819e-05 1.16832e-06 
5.55671e-06 -2.71936e-06 5.92606e-06 4.58484e-06 1.88274e-06 1.0025e-05 -2.51781e-06 5.90925e-06 -1.17041e-05 
-2.90369e-06 3.5875e-07 1.11987e-06 -4.75276e-06 1.41587e-06 9.21106e-06 2.12932e-05 3.27619e-06 1.40367e-05 
-2.39911e-06 2.76766e-06 -6.89967e-06 -5.96369e-06 -9.47458e-06 6.17941e-06 -4.20489e-05 -2.22853e-05 2.15164e-05 
-0.000115981 -7.26605e-05 2.72388e-05 -1.06109e-05 -3.3492e-05 -7.18094e-05 1.03468e-05 1.52538e-05 -6.50116e-06 
3.41713e-06 -8.75076e-07 -8.78998e-06 3.10007e-05 1.70654e-05 -2.30233e-05 -3.22755e-06 -2.91951e-06 -2.77444e-06 
2.52326e-06 -1.51e-05 -1.08789e-05 -1.96492e-05 9.20881e-08 2.18212e-05 1.69393e-06 5.98586e-06 1.3246e-05 
4.03737e-05 -1.54282e-05 -6.29278e-07 9.34317e-06 -6.33649e-06 1.34185e-05 1.46269e-05 -2.09561e-05 -2.07665e-05 
9.82081e-06 -4.25915e-05 1.56167e-05 2.5528e-05 6.53036e-05 1.97276e-05 4.60353e-06 -8.66911e-06 9.99941e-06 
-1.28017e-05 5.59114e-05 -1.27706e-05 -1.38989e-05 -6.60078e-06 7.33802e-05 -1.20701e-06 7.58958e-06 -1.64465e-05 
2.88842e-05 4.59466e-07 6.70413e-06 1.30285e-05 -3.69281e-05 6.35335e-05 -1.95101e-07 2.48622e-05 -6.25579e-05 
-2.09683e-05 -3.42442e-06 1.17525e-05 3.72806e-05 -8.42459e-06 -4.10701e-06 -4.07628e-05 -3.51189e-05 3.1851e-05 
1.96092e-05 3.66359e-06 -2.39823e-05 5.07817e-10 -4.43606e-06 9.81461e-06 -0.00034263 -0.000113413 1.7498e-05 
0.000376526 -0.00010585 -0.000109401 0.000149332 5.38521e-05 8.2814e-05 3.83272e-05 3.61206e-05 6.07307e-06 
-1.67865e-06 5.16925e-06 4.16827e-05 5.2397e-05 -1.23435e-05 -1.50343e-05 -0.000185193 -4.49017e-05 6.24419e-05 
3.55306e-05 -2.20353e-05 0.000288923 -0.000301506 -0.000144123 -0.000164959 0.000255037 0.000124337 5.63377e-06 
-3.18913e-05 2.03872e-05 -8.35402e-05 -3.1192e-05 2.33572e-05 5.7092e-05 0.000131166 -0.000385284 -0.000101765 
5.24722e-05 -2.41671e-05 -2.57929e-06 0 0 0 0 0 0 
0 0 0 0 0 0 0 0 0 
0 0 0 0 0 0 0 0 0 
0 0 0 0 0 0 0 0 0 
0 0 0 0 0 0 0 0 0 

