# vtk DataFile Version 4.0
Generated by LIGGGHTS
ASCII
DATASET POLYDATA
POINTS 133 float
-413.11 -405.916 270.262 -487.406 -332.239 99.9181 -236.063 -434.516 99.9309 
-135.891 -422.729 284.387 -67.1131 -327.682 99.9891 41.1895 -331.282 267.981 
114.975 -410.558 99.9337 288.877 -311.815 99.9001 385.711 -486.746 99.9346 
399.73 -321.176 265.976 -342.96 -138.405 99.9615 -242.123 -269.33 212.511 
-138.069 -140.75 99.9457 95.5532 -211.438 99.94 1.00377 -102.47 238.446 
217.976 -237.922 271.615 269.474 -112.817 99.9544 461.562 -144.407 145.255 
-451.303 29.6478 99.8896 -436.165 -44.5974 285.068 -239.659 -67.2805 255.728 
-88.7214 53.0211 99.9587 103.684 -1.1399 99.9472 201.386 -38.6568 272.699 
374.535 28.0124 198.119 -446.212 153.828 256.496 -339.045 296.537 100.202 
-274.599 112.276 143.419 -141.748 255.29 99.9692 -272.673 248.176 290.038 
-136.863 101.246 287.948 62.7472 105.338 277.367 50.4754 196.626 99.9292 
-27.1985 286.2 260.965 242.936 142.325 99.96 171.502 269.688 243.575 
435.898 194.725 99.9452 360.924 214.802 284.236 -417.052 480.624 99.9304 
-281.841 444.338 252.523 -86.0136 441.697 146.125 44.6843 470.468 294.661 
230.694 481.375 222.095 101.508 389.929 99.9309 294.002 335.631 99.9624 
499.937 342.553 218.312 -492.607 -404.458 453.706 -278.485 -333.079 399.119 
-19.315 -382.068 451.657 189.149 -404.398 380.847 -448.43 -230.101 358.818 
-303.323 -117.925 438.4 -106.368 -226.396 352.939 86.5062 -210.21 420.496 
328.806 -277.98 447.867 375.946 -127.298 325.138 -310.496 75.6187 383.731 
-139.813 -4.48813 457.638 59.0621 -12.9428 438.524 240.486 -91.7835 467.915 
427.036 57.7648 388.933 -452.58 205.47 449.57 -108.826 204.255 457.034 
84.5509 241.794 422.439 234.795 111.688 400.222 -424.801 408.398 391.439 
-280.992 302.839 482.194 -135.632 402.495 382.336 31.1547 428.121 489.611 
208.393 397.503 402.234 392.26 331.567 445.788 405.15 486.359 319.848 
-325.906 -378.426 696.831 -175.474 -341.683 570.401 -292.69 -499.129 509.684 
-21.2938 -450.292 639.605 160.079 -391.221 578.231 328.859 -479.334 503.735 
429.812 -317.021 615.951 -390.768 -260.52 548.026 -436.833 -114.98 677.197 
-243.634 -131.881 628.77 -67.5285 -170.862 541.781 42.7846 -264.877 679.562 
252.901 -218.54 623.053 456.579 -136.496 508.471 -430.545 26.412 535.894 
-53.8002 78.4303 617.889 104.666 -84.3503 619.65 340.344 48.9699 568.919 
-394.376 246.29 636.926 -252.725 121.216 569.662 10.8332 267.343 606.751 
139.469 108.05 575.969 236.659 282.357 563.275 407.526 220.482 646.789 
-310.08 419.137 691.776 -492.015 438.285 577.384 -140.135 397.338 588.092 
137.29 427.3 659.063 338.78 408.796 679.872 -215.681 -429.845 854.857 
289.566 -403.944 730.084 116.843 -482.492 836.597 -474.159 -278.348 787.018 
-144.731 -264.087 752.163 197.316 -126.513 791.779 358.494 -228.478 884.879 
-469.926 82.5529 724.089 -426.028 -85.3453 878.98 -198.484 -88.218 904.622 
-219.774 38.7504 748.823 -61.0029 -83.2265 735.488 -16.5835 99.397 812.72 
353.825 -5.50158 760.87 -186.295 246.335 710.81 239.629 163.312 740.007 
-395.624 463.31 872.018 -34.2876 389.481 758.562 476.837 326.17 801.788 
156.222 25.7804 914.718 27.2609 -237.534 1187.45 289.036 -263.637 1571.33 
-341.928 226.357 1698.94 17.1626 218.003 1552.65 -277.454 -67.7666 1770.46 
-338.173 -232.077 2046.63 7.81902 -209.929 2020.81 -35.9939 -17.8191 1982.83 
-151.414 156.812 2057.65 278.895 124.273 2009.13 -133.371 367.93 2054.14 
371.931 365.414 2004.19 
VERTICES 133 266
1 0 
1 1 
1 2 
1 3 
1 4 
1 5 
1 6 
1 7 
1 8 
1 9 
1 10 
1 11 
1 12 
1 13 
1 14 
1 15 
1 16 
1 17 
1 18 
1 19 
1 20 
1 21 
1 22 
1 23 
1 24 
1 25 
1 26 
1 27 
1 28 
1 29 
1 30 
1 31 
1 32 
1 33 
1 34 
1 35 
1 36 
1 37 
1 38 
1 39 
1 40 
1 41 
1 42 
1 43 
1 44 
1 45 
1 46 
1 47 
1 48 
1 49 
1 50 
1 51 
1 52 
1 53 
1 54 
1 55 
1 56 
1 57 
1 58 
1 59 
1 60 
1 61 
1 62 
1 63 
1 64 
1 65 
1 66 
1 67 
1 68 
1 69 
1 70 
1 71 
1 72 
1 73 
1 74 
1 75 
1 76 
1 77 
1 78 
1 79 
1 80 
1 81 
1 82 
1 83 
1 84 
1 85 
1 86 
1 87 
1 88 
1 89 
1 90 
1 91 
1 92 
1 93 
1 94 
1 95 
1 96 
1 97 
1 98 
1 99 
1 100 
1 101 
1 102 
1 103 
1 104 
1 105 
1 106 
1 107 
1 108 
1 109 
1 110 
1 111 
1 112 
1 113 
1 114 
1 115 
1 116 
1 117 
1 118 
1 119 
1 120 
1 121 
1 122 
1 123 
1 124 
1 125 
1 126 
1 127 
1 128 
1 129 
1 130 
1 131 
1 132 

POINT_DATA 133
FIELD FieldData 7
id 1 133 int
32 15 7 51 1 34 9 11 6 
20 19 30 14 10 38 36 29 26 
3 23 47 24 16 35 21 37 17 
33 28 44 42 43 13 46 2 31 
12 39 4 27 18 48 22 8 5 
25 62 65 58 41 52 53 40 50 
67 56 57 60 55 73 49 66 80 
64 61 63 78 68 86 59 69 45 
106 82 71 96 81 77 79 70 111 
90 54 89 98 72 76 85 83 87 
88 92 95 74 91 93 97 84 75 
103 107 126 105 117 110 94 112 114 
104 118 116 109 99 123 101 102 100 
113 108 115 119 124 121 120 122 125 
131 132 127 128 130 129 133 
type 1 133 int
1 1 1 1 1 1 1 1 1 
1 1 1 1 1 1 1 1 1 
1 1 1 1 1 1 1 1 1 
1 1 1 1 1 1 1 1 1 
1 1 1 1 1 1 1 1 1 
1 1 1 1 1 1 1 1 1 
1 1 1 1 1 1 1 1 1 
1 1 1 1 1 1 1 1 1 
1 1 1 1 1 1 1 1 1 
1 1 1 1 1 1 1 1 1 
1 1 1 1 1 1 1 1 1 
1 1 1 1 1 1 1 1 1 
1 1 1 1 1 1 1 1 1 
1 1 1 1 1 1 1 1 1 
1 1 1 1 1 1 1 
i 3 133 int
0 0 0 0 0 0 0 1 0 
0 0 0 0 0 0 0 0 0 
-1 0 0 -1 0 0 0 0 0 
0 0 0 0 0 0 0 0 0 
0 0 0 0 0 0 0 0 0 
-1 0 0 0 0 0 -1 0 0 
0 0 0 0 0 0 0 0 0 
1 0 0 0 0 0 -1 0 0 
0 -1 0 0 0 0 0 -1 0 
0 0 0 0 0 0 0 0 0 
0 0 0 0 0 0 0 0 0 
0 0 0 0 0 0 0 0 0 
-1 0 0 0 0 0 1 0 0 
0 -1 0 0 -1 0 0 0 0 
0 0 0 0 -1 0 0 0 0 
0 0 0 1 0 0 0 0 0 
0 0 0 0 0 0 0 0 0 
0 0 0 0 0 0 0 0 0 
0 0 0 0 0 0 1 0 0 
0 0 0 0 0 0 0 0 0 
0 0 0 0 0 0 0 0 0 
0 0 0 0 0 0 0 0 0 
1 0 0 0 0 0 0 -1 0 
0 0 0 0 0 0 0 0 0 
0 0 0 0 0 0 0 1 0 
0 0 0 0 0 0 0 0 0 
-1 0 0 0 0 0 1 0 0 
0 0 0 0 0 0 0 0 0 
-1 0 0 0 0 0 0 0 0 
0 0 0 0 0 0 0 0 0 
0 0 0 0 0 0 0 0 0 
0 0 0 0 0 0 0 0 0 
0 -1 0 0 0 0 0 0 0 
0 0 0 0 0 0 0 0 0 
0 0 0 0 1 0 1 0 0 
0 0 0 0 0 0 0 0 0 
0 0 0 0 0 0 0 0 0 
0 0 0 0 0 0 0 0 0 
0 0 0 0 0 0 0 0 0 
0 -1 0 0 0 0 -1 0 0 
0 0 0 0 0 0 0 0 0 
0 0 0 0 0 0 0 0 0 
0 0 0 0 0 0 0 0 0 
0 0 0 0 0 0 0 0 0 
0 0 0 
v 3 133 double
-3.00852e-05 -0.000217455 -0.000475714 -6.813e-05 6.56567e-05 -0.000128106 5.57277e-05 -0.000309706 4.37514e-05 
-0.000311662 -0.000452607 -9.31731e-05 -0.000233911 0.000194769 -8.54016e-06 -0.000292149 0.000229056 -1.54512e-05 
-1.17332e-05 3.31271e-05 5.97691e-05 -3.34276e-05 -2.24413e-06 -0.000135268 5.2791e-05 5.19186e-05 -1.31937e-05 
0.000446444 -0.000292962 -0.000572275 -0.000169148 -0.000116835 4.79473e-06 -0.000636891 -0.00056733 2.35699e-05 
-0.000406654 0.000119802 -6.47245e-05 -0.0002806 0.000293651 3.80927e-05 -0.000643095 6.83918e-05 9.01192e-05 
0.000236317 -7.16996e-05 -4.7104e-06 -4.83211e-05 -0.000118595 -0.000214239 -0.000126344 -1.33964e-05 -0.000257865 
-1.84745e-05 -7.52812e-05 -8.1861e-05 4.73498e-05 0.000629086 -0.000823895 -0.000155469 0.00107947 -0.000750716 
-3.45912e-05 -7.43362e-05 1.27477e-05 -6.79325e-05 -0.000198053 4.48361e-05 -0.000128231 6.18507e-05 -0.000691642 
-0.00033619 0.000324243 -0.000948939 -0.000539079 -2.2204e-05 -0.000123023 -0.00013726 -0.000111442 0.000277354 
-7.28579e-05 -0.000146613 7.38501e-05 6.8042e-05 -0.00035847 -8.83915e-06 -0.000433408 -0.000488686 -2.01759e-05 
0.000135292 0.00023577 -0.00012656 -8.72001e-05 -0.000263143 -0.000761451 3.93429e-05 1.81694e-05 -0.000231877 
0.000184261 -0.000390217 4.67216e-05 6.23618e-05 -0.000210319 5.17456e-05 0.000200644 -0.000483492 -0.000328868 
-1.06428e-06 -6.72592e-05 -0.000172978 -0.000954732 0.000279487 -0.000853901 -1.65642e-05 -1.83903e-05 8.94443e-05 
-0.0005362 -0.000480822 -0.000780897 5.79079e-05 -0.000440135 -0.000197033 -9.98421e-05 0.000275959 -0.000510989 
0.000112527 -6.56462e-06 -1.05479e-05 0.000183739 -4.94156e-05 -5.09209e-05 0.000105095 -9.20013e-05 -1.54758e-05 
-0.000217339 -0.000138286 1.033e-05 -0.000227433 -0.00102627 -0.000486209 0.00212578 -0.000663969 -0.00217367 
-0.00306057 0.00132366 -0.000386532 0.000335046 0.000482013 -0.000462822 0.000851641 -7.32629e-05 -0.0017415 
0.00118746 -0.000923419 -0.00156983 -0.000650423 -0.00026795 -8.74462e-05 -0.000337364 -7.25148e-05 0.000239517 
0.000412409 -2.06519e-05 -0.000525689 -0.000125494 4.48988e-05 -0.000382396 0.000102413 -4.49801e-06 -0.000403547 
5.4281e-05 -0.000255531 -0.00143757 0.000400094 0.000468452 -0.000491087 5.64013e-05 -0.000519732 -0.000319418 
-0.000293594 0.000377145 -0.00127517 -0.000579849 0.00026394 -0.000301174 -9.99849e-05 -0.000299726 0.0002844 
-0.00101476 0.000280433 -0.00136433 -0.000358495 0.000907818 -0.00162646 0.000862237 -0.000693775 -0.000115695 
-0.00020722 0.000465429 -0.00171451 -0.000563856 0.000395407 -0.000842735 -0.000844568 0.00107173 -0.000499867 
-0.000841344 0.000314123 7.30202e-05 -0.00135482 -0.00028698 -0.000187963 -0.000792895 -0.000310439 -0.000388339 
-0.00494883 0.00687022 -0.0193816 0.000932899 0.00714644 -0.00250853 -0.000297323 0.000519078 7.11571e-05 
-0.00247188 0.00153296 -0.000191612 7.20512e-05 0.000694569 -0.00033408 -0.000686552 0.000103313 0.000428512 
0.000874414 0.00047908 -0.00088815 0.000334287 -0.000398184 -0.00227684 -6.34384e-05 -0.00183498 -0.00105937 
-0.000203735 -0.00643944 -0.00124511 9.88769e-05 0.000703492 -7.95471e-07 0.000207937 0.00107356 -0.000466922 
0.00200696 0.000594334 -4.87283e-05 0.00132828 -0.00114593 -0.00145963 -0.000149791 -0.000307169 -0.000683717 
-0.00262602 0.00018229 -0.0151021 0.00174141 0.000123797 -0.000903834 -0.00110547 0.00111694 -0.00191101 
-7.43729e-05 0.000345849 -0.00171126 -0.0010315 0.000793973 -0.000250798 -0.000927042 0.000555474 -0.00165639 
-8.85934e-05 0.000362104 -0.00187914 3.70211e-05 0.000281072 -0.000121103 0.000772282 -0.000409415 -0.00167586 
0.000284194 -0.0011094 -0.000114671 0.00249807 -0.000931016 0.000698744 -0.00143777 0.00114263 -0.00174013 
-0.00089285 0.00102118 -8.89137e-05 0.00251826 0.000489202 -0.00207368 -0.0127865 -0.0471327 -0.0398974 
0.000780074 0.000312373 -0.000841186 -0.00456078 0.030364 -0.0160403 -0.00214407 0.000413886 0.00056368 
-0.00177215 0.00662682 -0.000287675 -0.000213186 -0.00248992 -0.000514923 -0.010865 -0.00304474 -0.0120198 
0.000675255 6.55798e-05 -0.0006445 -0.0309884 -0.0256835 0.00868392 -0.0106115 0.00701005 0.00823242 
-0.00130779 0.00316674 -0.000545571 0.00242353 0.005648 0.00665367 0.0579781 0.0183955 -0.0520865 
-5.52891e-05 -0.00259705 -0.00303392 -3.97525e-05 0.0013779 -0.00105695 0.000899856 -0.00329061 -0.00148517 
-0.00164645 0.00309382 -0.00201347 0.00173932 0.000912861 -0.000650713 0.00354207 -0.00122192 -0.0023573 
-0.0122328 -0.00230561 -0.00479993 0 0 -0.127836 0 0 -0.0938644 
0 0 -0.0794143 0 0 -0.095797 0 0 -0.0700261 
-0 -0 -0.02 -0 -0 -0.02 0 0 -0.0271466 
-0 -0 -0.02 -0 -0 -0.02 -0 -0 -0.02 
-0 -0 -0.02 
f 3 133 double
-3.24113 -15.4064 -43.6472 -19.1072 -0.553393 -4.40802 6.14753 9.03177 -9.63857 
46.2338 -9.94698 -5.73409 42.3394 -15.4295 -13.3584 43.1329 -27.0476 -8.48105 
36.9612 3.58302 -10.8277 -10.4444 16.3183 24.8253 -9.29134 10.1825 0.365597 
-18.1844 48.0167 39.7467 8.54878 -28.2686 -31.917 3.57887 -19.7449 -2.12506 
40.7296 -9.27345 -7.33931 13.4164 -5.6727 -18.1034 55.9737 -19.7431 36.5858 
22.6842 22.5508 117.264 -7.42364 -18.2943 66.1146 7.74222 -22.5898 31.6493 
-15.4705 1.65752 17.6544 17.0186 -44.9835 7.96122 7.57998 184.225 -205.066 
6.53637 -18.414 -30.6018 0.89812 -2.24049 4.27041 -17.4201 19.6868 90.457 
-20.4584 -25.7773 21.0424 -19.6119 -25.138 84.6886 12.3926 8.09331 -10.2131 
-2.41029 2.67129 -90.0748 13.0021 19.1277 -15.3731 -17.6028 -60.35 -243.693 
-104.67 -65.3052 -187.552 -36.9087 -9.99022 -3.68817 7.1369 8.20716 15.6532 
-30.2537 40.8181 -4.13146 3.46166 8.72856 5.55526 7.02488 -8.08717 18.4938 
-22.2222 17.3856 9.33952 161.23 4.38207 -69.5501 5.44193 15.9179 5.6615 
31.829 19.1291 -98.6746 -5.17813 19.3424 -32.9662 34.0312 9.71377 -11.4007 
15.4904 19.0474 -22.1957 2.53629 22.0488 -0.762136 -17.0509 5.58041 -2.84815 
2.02536 49.6423 66.4595 0.524568 -50.7733 -7.63831 8.95675 -13.6937 -77.8992 
-41.8398 -2.58378 -1.29603 53.3827 5.79779 24.9743 47.383 -58.5186 59.1438 
-86.6107 13.9941 46.3477 -32.6234 0.876794 -14.0465 20.5774 -37.0522 -30.4627 
51.1476 98.412 34.9103 15.0509 5.25691 63.9942 -32.3613 -88.6508 -62.5673 
-556.985 -578.606 -2300.18 -175.533 -29.4218 -132.078 -44.5649 44.9003 -11.4925 
-12.5453 19.0736 -4.21495 32.4048 29.0385 46.6864 -8.0084 15.2446 27.448 
-55.5503 -50.0022 -39.0427 -69.724 49.1016 71.6173 37.9336 55.0193 27.5545 
-62.567 261.105 153.706 59.4999 109.332 -27.7425 105.428 85.9346 49.2009 
50.0547 -40.4855 -46.7598 -37.9399 -7.97824 -25.8928 -85.6879 58.3747 83.1625 
-7622.3 3097.68 -8916.69 697.692 341.802 -1753.42 97.4683 74.9337 -13.1718 
0.189062 -1.85441 15.2558 53.9043 45.2995 5.98232 16.5295 -10.7452 -58.8721 
33.5549 38.0979 95.5097 24.352 -24.2511 -38.2274 -840.652 -146.421 20.5233 
876.468 322.634 -177.755 35.8553 13.8355 8.77739 -31.6857 12.4734 73.8938 
0.1894 32.0751 10.651 0 0 -102.73 -87.6028 -44.773 54.0115 
-2316.48 -575.965 -12629.4 -42.4655 -7.24895 -15.554 53.0159 -14.7574 -49.8514 
-121.912 -145.028 -42.8311 -143.127 172.963 -205.289 -20.5452 -139.705 -98.6836 
129.288 -86.5806 30.8415 11.8627 50.6036 -54.0689 -26.0757 104.456 -51.167 
113.023 144.479 -127.928 -15.8563 31.2763 24.8013 0.00124378 74.4412 41.1889 
115.275 -47.0533 75.6142 0 0 -102.73 6924.6 -3439.48 10361.9 
67.7121 39.4268 -6.21169 0 0 -102.73 118.401 36.7664 155.277 
8.95204 13.9219 -96.2442 7.61014 -12.7238 -25.9467 0 0 -102.73 
0 0 -102.73 0 0 -102.73 0 0 -102.73 
168.225 -252.475 134.707 -8.95204 -13.9219 -109.216 2930.1 1316.54 15319.1 
18.4009 -5.75095 -59.9396 -64.3938 66.2212 -61.8993 31.1955 -12.0477 -44.4435 
0 0 -102.73 -3.20244 -42.4654 -41.2401 3.72102 1.76812 -99.6922 
2.484 15.9529 -75.101 0 0 -102.73 0 0 -102.73 
0 0 -102.73 0 0 -102.73 0 0 -102.73 
0 0 0 0 0 0 0 0 -102.73 
0 0 0 0 0 0 0 0 0 
0 0 0 
radius 1 133 double
100 100 100 100 100 100 100 100 100 
100 100 100 100 100 100 100 100 100 
100 100 100 100 100 100 100 100 100 
100 100 100 100 100 100 100 100 100 
100 100 100 100 100 100 100 100 100 
100 100 100 100 100 100 100 100 100 
100 100 100 100 100 100 100 100 100 
100 100 100 100 100 100 100 100 100 
100 100 100 100 100 100 100 100 100 
100 100 100 100 100 100 100 100 100 
100 100 100 100 100 100 100 100 100 
100 100 100 100 100 100 100 100 100 
100 100 100 100 100 100 100 100 100 
100 100 100 100 100 100 100 100 100 
100 100 100 100 100 100 100 
omega 3 133 double
1.11033e-05 -3.99737e-06 1.11541e-05 -4.97531e-07 -3.08108e-07 1.86164e-06 2.43609e-06 6.87677e-07 -1.63299e-06 
-4.28275e-07 8.33984e-07 7.1642e-06 2.37103e-06 2.6199e-06 7.23221e-06 -8.42047e-08 -3.4418e-06 -1.90312e-06 
-2.65404e-07 -2.1891e-07 -5.50659e-07 -3.03431e-07 -1.14487e-06 8.83308e-07 -9.83643e-07 -1.19953e-07 -4.62351e-08 
-2.82655e-06 8.17581e-06 -1.13609e-05 4.31022e-07 -1.96495e-06 -1.94087e-06 1.51714e-06 3.45282e-07 -4.07833e-06 
-1.72805e-06 -3.9994e-06 -5.12224e-06 -2.86133e-06 -2.9608e-06 -6.43675e-06 -4.87521e-06 -2.04597e-06 -3.21873e-06 
1.91003e-06 4.03507e-06 -5.86252e-06 6.13411e-07 1.23089e-06 1.50534e-06 -5.67882e-07 -1.27283e-06 -1.19361e-06 
9.11993e-07 -9.70083e-07 4.16376e-07 -6.09964e-06 5.50208e-06 3.94446e-06 -4.61829e-06 7.86032e-08 -4.15851e-06 
8.77985e-07 -6.55498e-07 4.63836e-07 2.80958e-06 -7.68019e-07 -1.37673e-06 -8.95374e-06 4.77628e-07 9.99707e-06 
-1.78809e-05 -7.94967e-06 4.03449e-06 -1.75619e-06 -6.39056e-06 -1.25685e-06 -1.45833e-06 -1.38651e-07 3.46922e-07 
1.78887e-06 5.8128e-07 -4.88796e-07 2.9565e-06 9.00951e-07 -8.5143e-07 4.28e-06 7.18151e-06 1.41836e-05 
-7.05604e-06 2.28701e-06 2.80402e-06 3.52023e-06 4.41656e-06 -7.18661e-06 7.51261e-07 6.49237e-07 -3.98636e-06 
2.19242e-06 2.29024e-06 7.27914e-06 -4.82261e-07 3.57201e-06 5.5643e-07 3.08093e-06 -2.92169e-06 1.74943e-06 
-2.40385e-07 -8.78847e-07 1.00767e-07 -6.85557e-07 -1.00887e-05 -5.98075e-06 -4.33857e-07 2.22344e-07 -1.43796e-06 
-1.32272e-05 9.51149e-06 -1.646e-05 -2.7846e-06 3.52957e-06 9.09919e-07 -8.72714e-06 -5.62774e-06 -2.74208e-06 
1.00547e-06 2.46597e-07 2.33358e-06 1.04865e-06 9.64468e-07 1.75804e-06 1.24992e-06 1.69873e-06 1.27286e-07 
2.91772e-06 -1.84496e-06 3.48802e-07 -7.60857e-06 2.93978e-06 2.61272e-07 -4.67817e-05 -2.14149e-05 -5.43523e-05 
-1.7139e-05 -2.88731e-05 1.41202e-05 -1.15596e-05 8.59631e-06 4.73754e-06 -7.28854e-06 -6.58977e-07 9.00065e-06 
5.90013e-05 4.00648e-05 1.00172e-05 5.50904e-08 1.65458e-06 1.09636e-05 2.38809e-06 -3.36063e-06 -5.13901e-06 
8.39413e-06 -1.18384e-05 -9.08472e-06 -9.88034e-06 3.14299e-06 2.2073e-05 1.25641e-05 -5.91149e-06 -5.1407e-06 
6.3859e-06 -2.7846e-06 8.06289e-06 -1.33032e-05 8.42574e-06 -1.62309e-06 -1.55828e-05 1.28971e-06 -3.86111e-06 
6.08726e-06 -1.10008e-05 -1.93253e-07 2.21943e-07 7.46953e-06 4.595e-06 1.80251e-05 1.0047e-06 6.02854e-06 
-1.55204e-06 2.27283e-06 6.52842e-06 -2.76995e-07 8.3706e-06 -3.89904e-07 5.21843e-08 1.30218e-05 -6.17961e-06 
-1.87939e-05 -4.66727e-06 -1.22934e-05 -7.23106e-06 -3.80131e-06 8.79533e-06 2.28788e-06 7.76832e-07 -7.3788e-06 
-3.19801e-06 -1.17539e-05 -1.28854e-06 -3.82095e-06 -3.8142e-06 5.45711e-06 8.46224e-07 -1.14771e-05 -9.15405e-07 
0.000141936 0.000143648 5.68673e-05 -0.000119284 1.22538e-05 -1.97139e-05 2.16341e-05 -3.90765e-06 4.12315e-05 
1.4337e-05 2.69097e-05 9.21986e-06 1.32222e-05 -1.27891e-05 -2.31494e-05 -4.16897e-06 7.08939e-07 -1.01575e-05 
-1.49921e-05 1.81986e-05 6.89494e-06 -1.81483e-05 -6.54009e-06 -7.14299e-06 8.10877e-06 6.38704e-05 -5.24447e-05 
1.76766e-05 -8.61883e-05 5.65767e-05 -1.94469e-05 1.65715e-05 -5.00272e-06 1.12304e-05 -1.72809e-05 -3.54314e-06 
-1.22586e-05 2.68966e-05 -1.09079e-06 2.08705e-05 1.68038e-05 1.14334e-05 -6.71144e-06 5.23688e-06 -6.92909e-07 
-3.92397e-05 2.08777e-05 1.39058e-05 1.65904e-05 2.77868e-06 5.17764e-06 -1.41304e-05 -7.30852e-06 9.09072e-06 
6.57867e-06 1.46963e-05 1.88964e-05 -3.80968e-05 -2.28287e-05 -5.75152e-05 1.07281e-05 1.3928e-05 -3.68857e-06 
1.30779e-05 -9.88059e-06 -1.08543e-05 1.10681e-05 1.46937e-05 7.88723e-06 2.74153e-05 -8.41107e-06 8.39958e-07 
-3.72027e-06 5.1637e-06 -3.6881e-05 -4.31049e-07 5.62038e-06 1.31197e-05 -1.76845e-06 -1.70813e-05 8.88993e-06 
-2.76982e-06 -1.41126e-06 3.17994e-06 -9.16453e-06 5.10106e-06 -1.65908e-05 0.000670996 -0.000103126 -1.9252e-05 
7.49557e-06 2.06359e-05 4.20522e-05 -0.000318199 1.62224e-05 9.86283e-05 2.39296e-06 -5.47511e-05 -2.82165e-05 
0.000133583 -6.82115e-05 -4.20784e-05 9.60355e-06 -2.89243e-05 -6.64641e-06 0.00017791 -6.33612e-05 -7.40555e-05 
-1.12748e-05 -2.76769e-05 1.50799e-05 0.000346636 -0.000450223 3.28873e-05 -0.000220265 -0.000318626 3.15044e-05 
3.28014e-05 3.61248e-05 5.70389e-05 -8.48439e-05 9.32702e-06 2.6494e-06 -0.000192655 0.000647252 -2.14476e-05 
5.38805e-05 1.66686e-05 -1.53196e-06 -3.30271e-06 -1.99984e-05 -2.62165e-06 4.90906e-05 2.05368e-05 3.53689e-06 
-2.00993e-05 -9.88785e-05 5.52961e-05 -5.29305e-06 2.26281e-05 6.24347e-06 -1.89929e-05 4.25318e-05 -6.12844e-06 
4.17112e-05 -0.000171979 -4.19384e-05 0 0 0 0 0 0 
0 0 0 0 0 0 0 0 0 
0 0 0 0 0 0 0 0 0 
0 0 0 0 0 0 0 0 0 
0 0 0 
