# vtk DataFile Version 4.0
Generated by LIGGGHTS
ASCII
DATASET POLYDATA
POINTS 19 float
-126.131 -354.452 240.198 -85.5993 -94.9301 208.185 309.254 40.3266 146.734 
138.855 227.547 252.127 294.782 367.894 216.481 -348.93 195.614 357.363 
-278.063 383.223 512.174 -271.486 -318.942 707.215 -285.15 -79.9255 679.284 
328.485 -198.368 1191.8 -3.47712 40.5222 1064.33 -10.0007 -285.847 1570.1 
-398.929 255.091 1747.98 -346.346 -342.41 2079.26 60.5086 -376.811 2085.64 
-381.459 -132.984 1934.22 320.24 -172.191 1993.5 -194.206 -92.0279 2016.93 
-54.4417 44.1747 1950.77 
VERTICES 19 38
1 0 
1 1 
1 2 
1 3 
1 4 
1 5 
1 6 
1 7 
1 8 
1 9 
1 10 
1 11 
1 12 
1 13 
1 14 
1 15 
1 16 
1 17 
1 18 

POINT_DATA 19
FIELD FieldData 7
id 1 19 int
6 1 2 5 4 3 7 9 11 
10 13 8 12 17 18 19 16 15 
14 
type 1 19 int
1 1 1 1 1 1 1 1 1 
1 1 1 1 1 1 1 1 1 
1 
i 3 19 int
0 0 0 0 0 0 0 0 0 
0 0 0 0 0 0 0 0 0 
0 0 0 0 0 0 0 0 0 
0 0 0 0 0 0 0 0 0 
0 0 0 0 0 0 0 0 0 
0 0 0 0 0 0 0 0 0 
0 0 0 
v 3 19 double
0 0 0.0226367 0 0 0.0337722 0 0 0.0484364 
0 0 0.0166813 0 0 0.0312702 0 0 -0.180634 
0 0 -0.172021 0 0 -0.160514 0 0 -0.162211 
0 0 -0.127503 0 0 -0.13696 0 0 -0.0939919 
0 0 -0.0731064 -0 -0 -0.02 -0 -0 -0.02 
0 0 -0.041116 0 0 -0.0229675 -0 -0 -0.02 
0 0 -0.0369566 
f 3 19 double
0 0 -102.73 0 0 -102.73 0 0 -102.73 
0 0 -102.73 0 0 -102.73 0 0 -102.73 
0 0 -102.73 0 0 -102.73 0 0 -102.73 
0 0 -102.73 0 0 -102.73 0 0 -102.73 
0 0 -102.73 0 0 0 0 0 0 
0 0 -102.73 0 0 -102.73 0 0 0 
0 0 -102.73 
radius 1 19 double
100 100 100 100 100 100 100 100 100 
100 100 100 100 100 100 100 100 100 
100 
omega 3 19 double
0 0 0 0 0 0 0 0 0 
0 0 0 0 0 0 0 0 0 
0 0 0 0 0 0 0 0 0 
0 0 0 0 0 0 0 0 0 
0 0 0 0 0 0 0 0 0 
0 0 0 0 0 0 0 0 0 
0 0 0 
