# vtk DataFile Version 4.0
Generated by LIGGGHTS
ASCII
DATASET POLYDATA
POINTS 106 float
-422.345 -406.1 271.46 -492.16 -330.665 99.9508 -234.427 -437.929 99.9473 
-131.722 -419.729 285.305 -69.2403 -325.188 99.9786 42.8005 -324.041 266.281 
111.014 -412.049 99.9753 293.981 -309.177 99.8898 384.013 -487.693 99.9933 
400.524 -311.114 269.04 -348.314 -143.011 99.9991 -247.158 -273.411 212.87 
-146.776 -140.758 99.9805 94.9957 -211.071 100.107 -5.01548 -102.661 236.651 
218.417 -228.464 266.437 266.885 -108.841 100.034 457.675 -143.374 148.748 
-451.753 28.0955 99.8998 -434.254 -45.0819 285.254 -238.285 -81.2104 267.576 
-93.8166 52.4853 99.9797 98.9864 -0.33654 99.9312 44.7187 97.6672 274.425 
198.939 -29.522 270.791 375.12 32.7408 199.734 -444.088 153.033 255.804 
-341.653 297.417 99.9909 -277.809 113.99 148.276 -145.617 256.117 99.9705 
-275.207 254.138 290.919 46.3557 195.545 100.045 -31.9924 282.35 262.65 
239.98 141.383 99.992 171.095 264.565 241.771 437.741 194.746 99.9695 
361.234 217.534 283.424 -418.177 483.306 99.9619 -496.72 342.25 218.06 
-282.486 451.479 259.528 -84.8734 439.657 151.062 228.457 481.949 222.283 
101.326 387.828 99.9614 293.867 333.895 99.9597 -275.273 -330.357 402.517 
-0.478399 -404.276 444.267 235.18 -392.954 378.8 493.058 -396.525 452.414 
-443.182 -229.243 363.022 -304.108 -117.919 453.761 -110.77 -227.439 351.686 
87.6199 -165.051 403.798 348.564 -257.859 473.12 374.895 -121.112 329.495 
-327.078 78.3439 400.392 -153.07 96.2908 303.577 -157.044 13.7261 485.658 
41.1659 21.6817 459.458 243.453 -55.441 465.182 432.953 63.313 388.707 
-459.51 209.67 472.419 -275.346 287.378 488.447 75.6015 263.594 430.182 
218.159 128.816 391.4 -417.53 392.478 394.739 -263.779 487.042 483.186 
-103.356 387.197 417.636 45.3929 464.188 300.753 208.884 411.169 409.177 
408.355 493.076 308.798 393.973 341.312 438.193 -150.347 -337.387 558.581 
155.676 -335.266 552.834 332.119 -487.089 529.582 436.516 -318.329 642.249 
-391.229 -268.318 553.223 -287.293 -110.867 652.905 -64.327 -156.974 533.594 
71.5664 -199.748 673.993 482.516 -113.943 510 -416.344 44.9939 577.297 
-103.952 -21.0826 675.32 345.428 80.1858 571.159 -393.987 278.33 650.166 
-95.9881 202.247 512.546 152.585 142.104 579.856 -482.287 452.109 580.805 
-167.693 389.258 629.269 156.046 363.542 605.986 205.657 -381.525 740.747 
140.175 -4.00423 717.104 -68.9766 176.152 709.082 287.727 105.651 918.486 
-351.622 -238.327 1073.49 -122.544 -334.64 1346.04 78.8162 -397.812 1607.72 
-384.867 -27.9851 1635.75 13.3325 -62.4992 1723.56 22.1066 221.638 1721.96 
-370.272 -343.371 1971.33 -17.3693 -387.406 2071.41 -171.239 -173.469 2054.37 
163.987 35.0823 2016.75 -246.641 262.031 1973.75 343.863 112.14 1923.91 
49.6403 347.882 2085.56 
VERTICES 106 212
1 0 
1 1 
1 2 
1 3 
1 4 
1 5 
1 6 
1 7 
1 8 
1 9 
1 10 
1 11 
1 12 
1 13 
1 14 
1 15 
1 16 
1 17 
1 18 
1 19 
1 20 
1 21 
1 22 
1 23 
1 24 
1 25 
1 26 
1 27 
1 28 
1 29 
1 30 
1 31 
1 32 
1 33 
1 34 
1 35 
1 36 
1 37 
1 38 
1 39 
1 40 
1 41 
1 42 
1 43 
1 44 
1 45 
1 46 
1 47 
1 48 
1 49 
1 50 
1 51 
1 52 
1 53 
1 54 
1 55 
1 56 
1 57 
1 58 
1 59 
1 60 
1 61 
1 62 
1 63 
1 64 
1 65 
1 66 
1 67 
1 68 
1 69 
1 70 
1 71 
1 72 
1 73 
1 74 
1 75 
1 76 
1 77 
1 78 
1 79 
1 80 
1 81 
1 82 
1 83 
1 84 
1 85 
1 86 
1 87 
1 88 
1 89 
1 90 
1 91 
1 92 
1 93 
1 94 
1 95 
1 96 
1 97 
1 98 
1 99 
1 100 
1 101 
1 102 
1 103 
1 104 
1 105 

POINT_DATA 106
FIELD FieldData 7
id 1 106 int
32 15 7 51 1 34 9 11 6 
20 19 30 14 10 38 36 29 26 
3 23 47 24 16 43 35 21 37 
17 33 28 44 13 46 2 31 12 
39 4 25 27 18 22 8 5 65 
58 41 62 52 53 40 50 67 56 
57 42 60 55 73 49 66 78 64 
61 63 71 68 48 59 45 69 82 
81 77 79 70 90 54 89 72 76 
85 87 88 80 74 84 75 91 86 
83 92 93 97 94 96 98 99 95 
106 105 104 100 102 101 103 
type 1 106 int
1 1 1 1 1 1 1 1 1 
1 1 1 1 1 1 1 1 1 
1 1 1 1 1 1 1 1 1 
1 1 1 1 1 1 1 1 1 
1 1 1 1 1 1 1 1 1 
1 1 1 1 1 1 1 1 1 
1 1 1 1 1 1 1 1 1 
1 1 1 1 1 1 1 1 1 
1 1 1 1 1 1 1 1 1 
1 1 1 1 1 1 1 1 1 
1 1 1 1 1 1 1 1 1 
1 1 1 1 1 1 1 
i 3 106 int
0 0 0 0 0 0 0 1 0 
0 0 0 0 0 0 0 0 0 
-1 0 0 -1 0 0 0 0 0 
0 0 0 0 0 0 0 0 0 
0 0 0 0 0 0 0 0 0 
-1 0 0 0 0 0 -1 0 0 
0 0 0 0 0 0 0 0 0 
1 0 0 0 0 0 0 0 0 
-1 0 0 0 -1 0 0 0 0 
0 -1 0 0 0 0 0 0 0 
0 0 0 0 0 0 0 0 0 
0 0 0 0 0 0 -1 0 0 
0 0 0 1 0 0 1 0 0 
0 -1 0 0 -1 0 0 0 0 
0 -1 0 0 0 0 0 0 0 
0 0 0 0 0 0 0 0 0 
0 0 0 0 0 0 0 0 0 
0 0 0 0 0 0 0 0 0 
1 0 0 0 0 0 0 0 0 
0 0 0 0 0 0 0 0 0 
0 0 0 1 0 0 0 0 0 
0 0 0 0 0 0 0 0 0 
0 0 0 0 0 0 0 0 0 
0 0 0 0 0 0 0 0 0 
0 0 0 0 0 0 -1 0 0 
0 0 0 0 0 0 0 0 0 
0 0 0 0 0 0 0 0 0 
0 0 0 0 0 0 0 0 0 
0 0 0 0 0 0 0 0 0 
0 0 0 0 0 0 0 0 0 
0 0 0 0 0 0 0 0 0 
0 0 0 0 0 0 0 0 0 
0 0 0 0 0 0 0 0 0 
0 0 0 0 0 0 0 0 0 
0 0 0 0 0 0 0 0 0 
0 0 0 
v 3 106 double
-0.000481971 -0.000309717 0.00028577 -0.000385362 0.000341035 0.000326097 -0.000127507 -0.000459202 0.00047334 
-0.000494662 0.000105708 0.000895049 0.000385305 -0.000622416 -0.000158644 -0.000579559 0.000372866 7.81823e-05 
0.000772969 -0.000268186 -0.000310088 -0.000148094 0.000377622 0.000210404 0.000180396 -0.000119546 0.000304105 
-0.00147138 -0.000219863 0.0017894 -0.000126357 0.000250545 -9.1206e-05 -0.000804906 -0.000329747 5.73342e-05 
0.00116352 0.000334254 -6.70495e-05 -7.89932e-05 0.000249955 -0.000516674 -0.00150993 -0.000603478 -0.00127957 
-0.000799235 0.00170518 -0.000430022 -5.24141e-05 0.000460621 0.000299933 -2.4696e-05 0.000517229 -0.000705365 
-0.00018819 0.000538291 0.000418738 0.000722344 -0.000807683 -0.000102966 0.00130533 0.000274445 -0.000261798 
-0.000276485 0.00103176 -0.00020127 -0.000566024 -0.000377027 -0.000162555 0.00144189 0.00606669 0.00197945 
-0.00146294 0.00236188 0.000778946 -0.000902732 0.00219317 0.000465478 -0.00174428 0.000173746 0.000816433 
-0.00109833 0.000407947 -0.000487351 -0.000219616 0.000791748 0.00119593 0.000902881 0.000135885 8.10716e-05 
-0.0019072 -0.000201654 0.00275484 0.000405166 0.00134527 -0.000326371 -0.000664337 0.000885373 0.00254479 
-0.000156036 -0.000561355 0.000122301 0.00115718 0.000979639 0.00059293 -0.000926388 -0.000382541 -0.000169774 
-0.000934519 -0.000535173 4.1422e-05 0.00010238 -0.000711741 -9.55316e-05 -0.000470087 -0.000333172 -0.000137454 
-0.000172338 -0.000253596 0.00110141 0.000748012 0.000371778 0.000671071 0.000624842 7.92504e-05 -0.000140589 
0.000653625 0.000477714 0.000267238 0.000622977 -0.000537956 -0.000233192 -0.000633653 0.000781501 0.000686226 
-0.000278676 0.000698439 0.000835795 -0.00113923 0.00131091 -0.00215471 0.00319993 -0.00277542 0.00213718 
-0.00189906 0.00110013 0.0025482 0.00191094 -0.000126268 -0.000279483 -7.14526e-05 -0.00142243 -0.000982663 
-0.0020571 -0.00463993 0.00208128 0.00158494 0.000364941 0.000590797 -0.00125461 0.00119996 -0.000132969 
0.000763473 5.59472e-05 -0.00053606 0.00119824 0.00192171 0.000425001 0.00466819 -0.00170368 -7.93041e-05 
-0.000277629 -0.00150713 0.000686005 -0.00230937 -0.00158989 0.00011194 -0.00161899 -0.000621977 0.00171526 
3.36313e-05 0.00036773 -0.00123471 -0.000828405 0.00108075 0.0029372 -0.00174991 0.000113829 0.00327915 
-0.000323115 0.00115341 0.00285477 -0.00114612 0.000448065 0.000372463 -0.000656323 0.00104935 0.00424964 
0.00115654 0.00401976 0.000192629 0.000514244 0.00116183 0.00183522 -0.00182211 0.0012612 0.00279878 
0.000222643 -0.000637881 0.00186894 -0.00160872 0.000583164 0.00355191 0.00106882 -0.00201338 -0.000324408 
0.00238873 0.00793987 -0.00279671 0.000600642 0.000501435 0.00351541 0.00280666 -0.0117891 -0.00400367 
0.000643636 -0.000888848 0.00228012 0.0053881 0.00249429 -0.00104627 -0.00176921 -0.00484985 0.00264369 
0.00717675 0.0119226 -5.19231e-05 0.00337201 -0.00225017 0.00260873 0.00235453 0.000386928 -0.00130071 
0.00716216 0.00366406 0.000796929 0.00526932 -0.00817082 0.00182612 -0.0198258 0.0334184 -0.0120036 
-0.00159092 -0.000264573 0.0044416 0.00130592 -0.00450371 0.00386275 0.00427006 -0.00967811 -0.00638106 
-0.00200038 0.00448023 -0.00355316 0.0494105 0.0150844 -0.0143012 -0.00586355 -0.0145988 -0.00432946 
0.00627377 -0.0326164 -0.0267575 -0.0200943 0.0069525 0.00892211 0 0 -0.147035 
0 0 -0.136302 0 0 -0.115025 0 0 -0.0899796 
0 0 -0.0868699 0 0 -0.0763143 0 0 -0.0765203 
0 0 -0.0310215 -0 -0 -0.02 -0 -0 -0.02 
-0 -0 -0.02 0 0 -0.0302465 0 0 -0.0435097 
-0 -0 -0.02 
f 3 106 double
27.2389 -37.5466 -12.6148 86.6704 -44.4543 -42.7977 1.34711 41.4582 -55.5045 
-21.1763 -38.6918 8.10061 7.7781 43.4972 33.8359 58.5155 3.37929 -94.3783 
-21.0983 19.6005 -37.2137 -96.4216 164.874 -106.49 -132.8 126.539 48.4156 
-112.397 87.46 -15.5541 6.99285 22.9215 -102.53 -64.8915 3.63912 -89.1553 
-0.100994 -1.41196 4.27069 7.96623 4.99667 -95.7727 -75.2323 -69.8326 23.4209 
-28.3883 156.563 -221.974 11.9974 -133.529 -156.134 146.674 -78.023 -82.6447 
-47.7917 -40.4234 36.3204 38.162 -13.5116 19.571 0 0 -102.73 
-60.588 130.166 13.3794 -38.8626 -61.0753 95.3133 50.4979 3.3122 -133.362 
-47.5728 -22.197 22.4249 -48.0284 -75.8097 -23.8734 -2.48083 -82.763 137.28 
61.8712 -38.075 -22.3813 -174.429 89.1837 2.63446 -33.6817 -3.37049 4.18696 
107.311 58.149 -5.27113 35.6905 -17.7119 -152.54 -24.702 -13.8396 -99.7146 
144.199 -40.626 108.454 -32.5404 -83.7001 7.82091 -129.316 125.873 7.26667 
0 0 -102.73 -53.563 65.471 11.8258 -46.9566 84.0853 -69.2768 
43.6946 -25.1885 -13.2203 -22.8117 17.2451 -33.8128 81.541 -38.6177 -63.5115 
-63.9817 -73.5591 -19.5168 -54.5379 29.196 -35.6902 157.221 -77.5763 -147.729 
13.2278 -19.349 -52.8743 247.557 -351.233 -964.415 -48.6557 -60.9731 -66.6096 
-3.64638 55.0841 -34.5559 58.6628 95.7928 -54.5306 34.6478 -6.20965 133.371 
26.0934 -18.7028 -113.24 2.18087 -8.23546 -93.6059 112.998 216.637 -22.6504 
58.2177 -35.7658 6.26358 9.31497 85.4254 -107.297 90.1428 52.5847 -21.7648 
0 0 -102.73 0 0 -102.73 -13.3692 2.90432 -90.9578 
31.1213 -17.1849 -5.7932 -6.53564 7.73824 -102.088 -32.8197 5.99797 -73.4459 
-17.6893 36.0201 -84.1139 -1.1306 -1.56875 -101.539 13.9674 -43.9161 -51.7216 
0 0 -102.73 70.5652 -18.2283 17.6484 -107.696 21.4157 -195.189 
99.9065 34.3291 -48.6948 -56.097 90.9238 -34.2353 0 0 -102.73 
-197.66 65.2357 631.313 0 0 -102.73 -2.18087 8.23546 -111.854 
84.9812 84.7258 -30.9818 61.1713 44.3601 19.9309 0 0 -102.73 
0 0 -102.73 0 0 -102.73 37.5267 -108.531 81.2667 
0 0 -102.73 0 0 -102.73 0 0 -102.73 
31.7113 25.5015 -100.177 6.1022 -8.4681 -34.4605 0 0 -102.73 
0 0 -102.73 0 0 -102.73 -157.956 -50.8868 799.432 
0 0 -102.73 0 0 -102.73 0 0 -102.73 
0 0 -102.73 0 0 -102.73 0 0 -102.73 
0 0 -102.73 0 0 -102.73 0 0 -102.73 
0 0 -102.73 0 0 0 0 0 0 
0 0 0 0 0 -102.73 0 0 -102.73 
0 0 0 
radius 1 106 double
100 100 100 100 100 100 100 100 100 
100 100 100 100 100 100 100 100 100 
100 100 100 100 100 100 100 100 100 
100 100 100 100 100 100 100 100 100 
100 100 100 100 100 100 100 100 100 
100 100 100 100 100 100 100 100 100 
100 100 100 100 100 100 100 100 100 
100 100 100 100 100 100 100 100 100 
100 100 100 100 100 100 100 100 100 
100 100 100 100 100 100 100 100 100 
100 100 100 100 100 100 100 100 100 
100 100 100 100 100 100 100 
omega 3 106 double
1.89046e-05 -5.28416e-06 1.2455e-05 -3.67838e-06 -3.95599e-06 5.16584e-06 2.64767e-06 -3.51562e-06 1.13504e-05 
-5.90079e-06 2.26982e-05 1.70472e-05 3.21464e-06 5.494e-06 -2.3643e-05 -8.7314e-06 -1.92473e-05 -1.18699e-05 
3.37462e-06 8.77834e-06 2.17651e-05 -5.06884e-06 -3.50724e-06 -5.0394e-06 4.12404e-06 4.93922e-07 4.73122e-06 
5.92391e-06 -1.69245e-05 -2.18341e-06 1.15437e-05 7.00969e-06 1.80537e-05 -5.16044e-06 -1.87362e-05 -1.84243e-05 
-3.26582e-06 1.1651e-05 1.9196e-05 4.83841e-06 -3.93244e-06 3.44707e-05 9.4679e-06 3.12732e-06 -1.99061e-05 
-1.36649e-05 9.82502e-06 2.27887e-05 -6.91155e-06 7.03123e-06 3.06054e-06 -8.72346e-06 5.74849e-06 -7.13792e-06 
-6.35181e-06 -2.42889e-06 -1.91978e-05 3.01024e-05 3.43744e-06 7.11004e-06 1.63208e-06 -3.561e-06 -1.02739e-05 
-4.08201e-06 8.62789e-06 -2.35133e-05 4.40785e-06 -8.16022e-06 6.99117e-06 3.9014e-06 -2.2763e-05 -3.14445e-05 
2.15893e-05 1.6414e-05 -1.50858e-05 1.4719e-05 -1.86809e-06 -4.062e-06 7.66045e-06 -1.80499e-05 -4.72334e-06 
-3.96828e-06 -1.08265e-05 1.13475e-05 1.80705e-05 8.79344e-07 2.40705e-05 -5.13567e-06 1.06104e-05 -7.07163e-06 
-1.61351e-05 -8.44987e-06 -1.19397e-06 -1.53936e-05 3.15829e-06 6.09174e-05 -4.01246e-05 -4.22544e-07 -3.66219e-05 
-8.05721e-06 -1.12886e-06 -9.06285e-06 5.6877e-06 3.29401e-05 -9.27209e-06 4.99552e-06 -7.39668e-06 2.98268e-05 
-3.72133e-05 1.01309e-05 3.1937e-05 8.80659e-06 1.65629e-06 -9.3771e-06 2.17751e-05 1.26258e-05 -1.78365e-05 
6.1538e-07 -2.65397e-05 -1.18528e-05 1.43878e-05 -7.44822e-06 7.12102e-06 -1.27208e-05 -8.97085e-06 -2.69116e-05 
-4.43822e-06 5.60616e-06 -9.29967e-06 3.20636e-06 9.24408e-07 4.62507e-07 -1.78692e-05 9.91124e-06 -2.00731e-05 
-9.26477e-07 2.15664e-05 2.29201e-05 -1.21638e-05 -8.18247e-05 -7.22234e-06 2.44092e-05 4.50711e-05 -2.6358e-05 
1.19986e-05 2.01348e-05 2.60152e-05 -5.08234e-05 -9.01449e-06 -7.78662e-05 1.29899e-05 2.82531e-05 1.27388e-05 
4.46872e-05 1.55592e-05 5.08593e-05 1.4164e-05 7.52655e-05 -7.48079e-06 -2.25719e-06 -2.76082e-05 -9.26456e-06 
-5.49852e-05 -1.91722e-05 -2.11176e-05 1.66644e-05 6.07002e-06 6.83617e-05 2.10875e-05 -2.067e-05 3.99032e-05 
1.97884e-05 2.76331e-06 -2.32475e-05 2.14982e-05 2.21581e-05 1.05134e-05 6.06257e-06 -1.30734e-05 -3.16051e-05 
2.36575e-05 3.49158e-05 3.61202e-05 1.23049e-05 -4.62758e-05 -2.10256e-05 2.05148e-05 6.20644e-08 -9.09734e-06 
4.59592e-06 -2.35567e-05 -1.52406e-06 -9.20472e-06 7.5172e-06 3.67017e-05 -1.84421e-05 5.25234e-05 -1.37984e-05 
4.42704e-05 -3.12322e-05 3.7573e-05 4.17022e-06 5.09237e-07 2.33975e-05 -3.75576e-05 -1.27931e-05 1.87277e-05 
-5.49387e-07 -1.42026e-05 1.28994e-05 -1.7383e-05 2.63752e-05 -3.21965e-05 1.2064e-05 -3.8426e-06 -3.52838e-07 
-4.32727e-05 8.93883e-05 -4.38245e-05 3.36297e-05 5.22231e-06 -6.98331e-05 0.00013068 -6.49849e-05 2.58901e-05 
9.70541e-07 -2.73818e-05 8.28914e-05 -6.20174e-06 5.81642e-05 -9.85077e-05 -4.18571e-05 -8.87396e-06 -4.85568e-05 
-8.70851e-05 9.92235e-05 9.26721e-05 9.60714e-05 -3.45718e-05 6.58859e-06 -0.000199427 -3.40103e-05 -1.9119e-05 
-7.54659e-05 3.98039e-05 2.75213e-05 0.000100429 -5.2511e-05 -0.000145223 -0.000269936 -0.000160603 2.73883e-05 
1.42923e-05 2.30419e-05 -3.60244e-06 2.3933e-05 6.43006e-05 0.000111237 7.00467e-05 1.8537e-05 -2.5573e-05 
4.72554e-05 -7.27378e-05 -5.6054e-06 -0.000175493 0.000585692 7.24517e-05 0.000173947 -0.000321336 -9.33678e-05 
0.00022146 -0.000229222 5.9308e-05 -0.000120922 -0.000204898 -0.000189023 0 0 0 
0 0 0 0 0 0 0 0 0 
0 0 0 0 0 0 0 0 0 
0 0 0 0 0 0 0 0 0 
0 0 0 0 0 0 0 0 0 
0 0 0 
