# vtk DataFile Version 4.0
Generated by LIGGGHTS
ASCII
DATASET POLYDATA
POINTS 7 float
-126.131 -354.452 1965.2 -85.5993 -94.9301 1996.24 309.254 40.3266 2026.29 
-348.93 195.614 2072.51 138.855 227.547 1943.42 -278.063 383.223 2090.07 
294.782 367.894 1990.35 
VERTICES 7 14
1 0 
1 1 
1 2 
1 3 
1 4 
1 5 
1 6 

POINT_DATA 7
FIELD FieldData 7
id 1 7 int
6 1 2 3 5 7 4 
type 1 7 int
1 1 1 1 1 1 1 
i 3 7 int
0 0 0 0 0 0 0 0 0 
0 0 0 0 0 0 0 0 0 
0 0 0 
v 3 7 double
0 0 -0.0329051 0 0 -0.0217707 -0 -0 -0.02 
-0 -0 -0.02 0 0 -0.0388597 -0 -0 -0.02 
0 0 -0.0242723 
f 3 7 double
0 0 -102.73 0 0 -102.73 0 0 0 
0 0 0 0 0 -102.73 0 0 0 
0 0 -102.73 
radius 1 7 double
100 100 100 100 100 100 100 
omega 3 7 double
0 0 0 0 0 0 0 0 0 
0 0 0 0 0 0 0 0 0 
0 0 0 
