# vtk DataFile Version 4.0
Generated by LIGGGHTS
ASCII
DATASET POLYDATA
POINTS 167 float
-414.949 -404.786 272.414 -485.702 -332.776 99.8762 -236.79 -433.434 99.8795 
-135.512 -423.545 281.825 -67.7706 -326.819 99.9094 40.6284 -329.886 267.832 
113.965 -410.028 99.9262 288.259 -312.075 99.8842 386.316 -486.334 99.9356 
400.138 -324.208 265.099 -342.5 -138.193 99.9549 -241.556 -268.633 212.913 
-138.5 -139.87 99.9085 94.5421 -210.134 99.9618 0.363277 -100.817 238.423 
219.055 -239.76 272.935 269.28 -113.04 99.921 461.374 -145.365 144.594 
-452.002 29.0687 99.8524 -436.567 -45.7395 284.658 -239.728 -61.5789 253.452 
-88.3388 53.6169 99.9077 104.074 -0.483171 99.9796 201.478 -40.6579 273.543 
373.68 26.8865 197.695 -448.269 152.009 257.498 -340.616 294.771 99.9566 
-274.899 110.961 142.957 -142.109 254.139 99.9562 -276.028 249.005 287.543 
-136.156 106.174 286.784 63.4283 103.867 276.301 50.9296 197.06 99.904 
-27.3394 287.041 260.4 243.388 142.859 99.9601 171.397 268.769 242.58 
436.391 194.921 99.8839 359.831 215.651 283.392 -416.729 479.598 99.9087 
-498.724 341.649 219.089 -284.232 445.434 251.623 -86.7522 441.51 142.537 
43.6467 471.51 291.154 230.79 482.679 221.541 101.767 390.376 99.925 
294.291 336.191 99.9621 -489.019 -413.897 457.904 -281.171 -327.94 399.656 
-29.0015 -385.057 446.969 187.371 -404.892 381.034 -452.387 -229.695 361.407 
-304.014 -117.36 434.372 -106.321 -224.765 353.517 90.0695 -224.709 430.534 
243.13 -102.411 470.511 329.989 -281.419 447.42 377.891 -130.265 325.557 
-310.029 75.5059 380.889 -135.092 -11.4413 448.406 63.175 -26.5566 427.854 
425.825 55.4192 388.615 -455.24 203.729 450.538 -108.844 202.057 460.103 
-282.313 299.314 480.939 83.2621 240.913 420.502 234.199 111.55 398.982 
-422.913 409.565 391.129 -280.15 498.625 499.157 -139.907 399.027 381.951 
28.361 427.419 486.127 206.443 397.079 400.505 388.703 328.628 445.812 
404.343 483.859 320.827 -336.869 -396.062 681.232 -178.733 -338.488 571.05 
-27.7782 -452.534 635.851 154.353 -393.936 577.87 327.595 -480.377 501.998 
432.235 -321.013 616.495 -391.06 -255.261 550.029 -439.702 -111.381 680.093 
-244.779 -130.055 624.924 -67.7477 -174.212 543.094 38.2943 -269.915 683.343 
255.43 -228.128 625.472 452.726 -136.693 510.882 -429.243 23.268 532.663 
-57.9401 60.9432 618.079 102.125 -94.3681 612.051 132.547 98.8666 570.678 
329.864 51.5319 564.007 -388.288 225.772 637.812 -247.284 102.022 568.849 
13.6455 260.658 606.897 228.203 273.837 556.399 413.081 225.849 615.486 
-313.689 405.355 684.205 -484.17 421.765 581.024 -139.083 388.391 588.22 
136.434 422.14 654.28 335.243 403.31 664.846 -305.292 -362.7 875.846 
-175.727 -476.781 768.142 100.855 -428.982 787.137 289.757 -411.168 723.972 
480.724 -467.44 743.708 -463.009 -280.05 784.878 -299.616 -163.045 814.359 
-146.475 -279.184 759.267 9.62381 -246.045 879.802 -57.4874 -101.906 734.069 
165.796 -159.034 790.261 343.539 -245.246 821.785 -497.681 76.8541 714.533 
-450.089 -42.6352 867.633 -306.376 23.6985 743.094 -121.686 71.7108 809.701 
53.0551 -19.9671 879.344 251.207 10.2027 853.82 364.79 -81.2411 709.376 
-350.91 212.881 833.819 -180.583 231.871 705.499 60.8713 139.196 758.552 
-45.9709 239.474 894.606 255.768 156.296 717.375 401.911 182.72 851.297 
-381.3 452.597 866.388 -209.202 350.789 863.704 -31.3661 385.293 756.658 
183.617 314.534 816.098 496.766 334.028 761.28 349.3 438.26 861.238 
-395.587 -384.102 1097.15 -254.762 -498.763 1013.4 -142.657 -362.103 1106.95 
-71.6566 -421.79 929.78 90.5466 -355.618 1026.22 255.472 -395.325 920.336 
490.164 -410.504 935.155 323.297 -376.507 1107.52 -378.845 -215.985 990.142 
-174.727 -234.471 956.367 48.9132 -136.054 1042.13 232.987 -179.931 977.415 
422.815 -235.988 1005.83 -364.756 -34.4571 1072.86 -121.739 -42.464 973.855 
196.936 2.44905 1051.1 390.557 -39.4026 988.393 -477.129 110.566 993.278 
-258.966 102.998 973.315 -12.074 108.332 1046.13 78.3767 292.947 1069.23 
147.807 159.506 937.474 293.164 289.316 982.236 347.667 128.603 1088.01 
-483.443 307.381 958.458 -298.335 290.056 1032.1 -98.1653 377.899 1029.16 
64.4387 431.722 925.916 211.533 465.508 1057.09 410.734 448.513 1052.65 
-245.999 -182.525 1135.85 175.792 -234.923 1160.98 -72.5005 -38.5708 1167.64 
-146.788 220.426 1142.44 246.871 308.507 1175.83 
VERTICES 167 334
1 0 
1 1 
1 2 
1 3 
1 4 
1 5 
1 6 
1 7 
1 8 
1 9 
1 10 
1 11 
1 12 
1 13 
1 14 
1 15 
1 16 
1 17 
1 18 
1 19 
1 20 
1 21 
1 22 
1 23 
1 24 
1 25 
1 26 
1 27 
1 28 
1 29 
1 30 
1 31 
1 32 
1 33 
1 34 
1 35 
1 36 
1 37 
1 38 
1 39 
1 40 
1 41 
1 42 
1 43 
1 44 
1 45 
1 46 
1 47 
1 48 
1 49 
1 50 
1 51 
1 52 
1 53 
1 54 
1 55 
1 56 
1 57 
1 58 
1 59 
1 60 
1 61 
1 62 
1 63 
1 64 
1 65 
1 66 
1 67 
1 68 
1 69 
1 70 
1 71 
1 72 
1 73 
1 74 
1 75 
1 76 
1 77 
1 78 
1 79 
1 80 
1 81 
1 82 
1 83 
1 84 
1 85 
1 86 
1 87 
1 88 
1 89 
1 90 
1 91 
1 92 
1 93 
1 94 
1 95 
1 96 
1 97 
1 98 
1 99 
1 100 
1 101 
1 102 
1 103 
1 104 
1 105 
1 106 
1 107 
1 108 
1 109 
1 110 
1 111 
1 112 
1 113 
1 114 
1 115 
1 116 
1 117 
1 118 
1 119 
1 120 
1 121 
1 122 
1 123 
1 124 
1 125 
1 126 
1 127 
1 128 
1 129 
1 130 
1 131 
1 132 
1 133 
1 134 
1 135 
1 136 
1 137 
1 138 
1 139 
1 140 
1 141 
1 142 
1 143 
1 144 
1 145 
1 146 
1 147 
1 148 
1 149 
1 150 
1 151 
1 152 
1 153 
1 154 
1 155 
1 156 
1 157 
1 158 
1 159 
1 160 
1 161 
1 162 
1 163 
1 164 
1 165 
1 166 

POINT_DATA 167
FIELD FieldData 7
id 1 167 int
32 15 7 51 1 34 9 11 6 
20 19 30 14 10 38 36 29 26 
3 23 47 24 16 35 21 37 17 
33 28 44 42 43 13 46 2 31 
12 39 4 25 27 18 48 22 8 
5 62 65 58 41 52 53 40 50 
73 67 56 57 60 55 49 66 80 
78 64 61 63 71 68 86 59 69 
45 106 82 96 81 77 79 70 111 
90 54 89 98 72 76 85 83 74 
87 88 92 95 91 93 97 84 75 
103 107 131 126 117 105 113 110 116 
94 124 99 112 114 104 118 109 125 
127 119 101 120 102 123 128 100 130 
138 122 108 133 115 141 165 146 159 
153 150 121 145 156 135 129 151 132 
142 158 139 147 134 149 136 152 155 
137 143 154 140 164 157 144 167 148 
161 162 160 166 163 
type 1 167 int
1 1 1 1 1 1 1 1 1 
1 1 1 1 1 1 1 1 1 
1 1 1 1 1 1 1 1 1 
1 1 1 1 1 1 1 1 1 
1 1 1 1 1 1 1 1 1 
1 1 1 1 1 1 1 1 1 
1 1 1 1 1 1 1 1 1 
1 1 1 1 1 1 1 1 1 
1 1 1 1 1 1 1 1 1 
1 1 1 1 1 1 1 1 1 
1 1 1 1 1 1 1 1 1 
1 1 1 1 1 1 1 1 1 
1 1 1 1 1 1 1 1 1 
1 1 1 1 1 1 1 1 1 
1 1 1 1 1 1 1 1 1 
1 1 1 1 1 1 1 1 1 
1 1 1 1 1 1 1 1 1 
1 1 1 1 1 1 1 1 1 
1 1 1 1 1 
i 3 167 int
0 0 0 0 0 0 0 1 0 
0 0 0 0 0 0 0 0 0 
-1 0 0 -1 0 0 0 0 0 
0 0 0 0 0 0 0 0 0 
0 0 0 0 0 0 0 0 0 
-1 0 0 0 0 0 -1 0 0 
0 0 0 0 0 0 0 0 0 
1 0 0 0 0 0 -1 0 0 
0 -1 0 0 0 0 0 -1 0 
0 0 0 0 0 0 0 0 0 
0 0 0 0 0 0 0 0 0 
0 0 0 0 0 0 0 0 0 
-1 0 0 0 0 0 1 0 0 
1 0 0 0 -1 0 0 -1 0 
0 0 0 0 0 0 0 -1 0 
0 0 0 1 0 0 0 0 0 
0 0 0 0 0 0 0 0 0 
0 0 0 0 0 0 0 0 0 
0 0 0 0 0 0 0 0 0 
1 0 0 0 0 0 0 0 0 
0 0 0 0 0 0 0 0 0 
1 0 0 0 0 0 0 0 0 
0 0 0 0 0 0 0 0 0 
0 -1 0 0 0 0 0 0 0 
0 0 0 0 0 0 0 0 0 
0 0 0 0 0 0 0 0 0 
-1 0 0 0 0 0 1 0 0 
0 0 0 0 0 0 0 0 0 
-1 0 0 0 0 0 0 0 0 
0 0 0 0 0 0 0 0 0 
0 0 0 0 0 0 0 0 0 
0 0 0 0 0 0 0 0 0 
0 -1 0 0 0 0 0 0 0 
0 0 0 0 0 0 0 0 0 
0 0 0 0 1 0 0 0 0 
-1 0 0 1 0 0 0 0 0 
0 0 0 0 0 0 0 0 0 
0 0 0 0 0 0 0 0 0 
0 0 0 0 0 0 0 0 0 
0 0 0 0 0 0 0 0 0 
0 0 0 0 0 0 0 0 0 
0 0 0 0 0 0 0 0 0 
0 0 0 0 0 0 0 0 0 
0 0 0 -1 0 0 0 0 0 
1 0 0 0 0 0 0 0 0 
0 1 0 0 0 0 0 0 0 
0 0 0 0 0 0 0 0 0 
0 1 0 0 0 0 0 0 0 
0 0 0 0 0 0 0 0 0 
0 0 0 0 0 0 0 0 0 
0 0 0 0 0 0 0 0 0 
0 0 0 0 0 0 0 0 0 
0 0 0 0 0 0 0 0 0 
0 0 0 0 0 0 0 0 0 
0 0 0 0 0 0 0 0 0 
0 0 0 0 0 0 
v 3 167 double
-2.31475e-08 -7.10047e-09 1.26054e-09 -1.2369e-08 -3.38124e-09 2.51818e-09 -7.65397e-09 -4.49933e-09 7.06204e-10 
-1.34371e-08 -7.20734e-09 -8.59833e-10 -6.6599e-09 -1.62087e-09 -3.66502e-10 -1.98054e-08 -5.41479e-09 2.25216e-09 
-7.03376e-09 -7.43617e-10 -1.78364e-09 -1.15696e-08 -4.11357e-09 1.39556e-09 -7.89053e-09 -2.76386e-09 7.9687e-10 
-2.5593e-08 -8.33383e-09 6.4784e-09 -1.08195e-08 -6.85892e-09 -4.2837e-09 -1.71325e-08 -5.51438e-09 -2.94636e-09 
-9.87315e-09 -2.02263e-09 -2.1979e-10 -8.67974e-09 3.82736e-10 -9.25347e-10 -1.28605e-08 -5.20289e-09 2.04377e-09 
-2.12295e-08 -6.22948e-09 3.10856e-09 -1.10281e-08 -2.74701e-09 1.53006e-09 -1.90798e-08 -6.27421e-09 1.85602e-09 
-1.28054e-08 -7.38955e-09 1.92712e-10 -2.29341e-08 -1.01194e-08 -2.62084e-09 -2.22309e-08 -7.38531e-09 -3.38351e-09 
-1.12062e-08 1.33846e-09 -9.67288e-10 -8.93559e-09 1.41413e-10 2.21444e-09 -2.2272e-08 -5.06098e-09 -6.57609e-09 
-1.82464e-08 -5.12378e-09 -3.72604e-09 -2.30816e-08 -1.10382e-08 1.02555e-09 -1.71571e-08 -5.71984e-09 7.93314e-10 
-1.8079e-08 -5.37581e-09 -5.34765e-10 -1.43896e-08 -2.33359e-09 -1.64835e-09 -3.05906e-08 -7.55999e-09 6.836e-10 
-2.38283e-08 -4.1988e-09 -2.37987e-09 -2.44438e-08 -7.27084e-09 -1.68993e-09 -1.05173e-08 1.74324e-09 1.69303e-10 
-3.04992e-08 -1.56061e-08 2.58457e-09 -8.20145e-09 -9.07867e-10 -2.11861e-10 -1.53815e-08 -5.16088e-09 6.92358e-10 
-9.39028e-09 -4.77739e-09 -2.61138e-10 -2.2316e-08 -8.12533e-09 -7.47737e-10 -8.3107e-09 -3.01413e-09 8.62382e-10 
-1.86615e-08 -6.32512e-09 1.28568e-09 -2.47941e-08 -6.70889e-09 8.62403e-10 -1.06277e-08 -4.05522e-09 -2.45897e-09 
-1.40253e-08 -2.72097e-09 -4.18394e-09 -1.56805e-08 -2.3213e-09 9.40218e-10 -8.82508e-09 -2.03777e-10 -1.17768e-09 
-8.30494e-09 -2.65271e-09 5.42168e-11 -4.14329e-08 -6.23836e-09 -3.57952e-09 -3.28364e-08 -8.72921e-09 -2.81866e-09 
-3.86582e-08 -1.72315e-08 6.66661e-11 -2.95834e-08 -7.02673e-09 4.49267e-09 -2.87633e-08 -9.81036e-09 3.94116e-09 
-2.99066e-08 -9.33974e-09 -2.64247e-09 -2.56665e-08 -5.25623e-09 -8.63643e-10 -3.63613e-08 -1.51635e-08 7.95599e-09 
-3.76599e-08 -1.91446e-08 6.18976e-09 -2.80915e-08 -7.54587e-09 5.43329e-09 -2.81335e-08 -1.09959e-08 4.24968e-09 
-3.18391e-08 -1.34165e-08 -1.86316e-09 -3.48291e-08 -6.66577e-09 -4.74851e-09 -3.39117e-08 -1.42328e-08 -2.81266e-10 
-2.88154e-08 -1.49485e-08 5.6916e-10 -3.45644e-08 -1.20738e-08 6.42383e-10 -3.34357e-08 -1.32636e-08 -1.70311e-09 
-3.78617e-08 -1.16106e-08 -2.14297e-09 -3.23636e-08 -9.04714e-09 -2.04856e-10 -3.07544e-08 -1.11603e-08 -2.25957e-09 
-3.47661e-08 -7.44138e-09 2.18292e-09 -3.57011e-08 -1.05196e-08 -1.33242e-09 -3.84558e-08 -2.35103e-08 4.43521e-09 
-4.15876e-08 -1.83373e-08 2.13035e-10 -3.45758e-08 -6.75147e-09 -2.7927e-09 -3.74419e-08 -1.35017e-08 3.56862e-10 
-2.59143e-08 -7.91204e-09 3.73989e-09 -5.54981e-08 -3.00029e-08 -4.73736e-09 -4.8198e-08 -2.18138e-08 -4.535e-09 
-5.15511e-08 -2.24504e-08 2.1408e-09 -4.84078e-08 -1.46003e-08 4.96106e-09 -3.23662e-08 -9.10121e-09 1.40436e-09 
-4.7687e-08 -1.49395e-08 2.0151e-09 -3.69083e-08 -1.29534e-08 2.92655e-10 -5.35791e-08 -1.84992e-08 -2.31723e-09 
-4.05681e-08 -3.29098e-09 -1.74338e-09 -3.75998e-08 -7.30315e-09 -4.83322e-10 -6.08397e-08 -1.74495e-08 1.20546e-10 
-5.05096e-08 -1.33527e-08 1.46854e-08 -3.66033e-08 -1.37714e-08 3.51156e-09 -3.92031e-08 -1.26578e-08 -9.54175e-11 
-4.63866e-08 -1.12091e-08 -5.25407e-09 -4.62392e-08 -1.24284e-08 6.28466e-09 -4.2144e-08 -1.39014e-08 -3.25657e-09 
-4.73565e-08 -1.72209e-08 5.53583e-10 -5.56112e-08 -3.70533e-08 6.1615e-09 -4.8713e-08 -2.37471e-08 -3.25898e-09 
-4.32064e-08 -1.55889e-08 6.12144e-10 -4.97037e-08 -1.37804e-08 -8.88825e-09 -5.56528e-08 -1.74297e-08 -9.89512e-10 
-5.84905e-08 -3.38245e-08 9.4255e-10 -5.3781e-08 -2.52321e-08 2.44966e-10 -4.7743e-08 -2.2294e-08 1.11117e-09 
-5.2965e-08 -1.87682e-08 -6.95219e-10 -5.79789e-08 -1.88551e-08 -2.75741e-09 -7.19821e-08 -3.05221e-08 -9.65936e-10 
-6.79391e-08 -2.2466e-08 -1.70285e-09 -5.79773e-08 -1.47056e-08 5.40459e-09 -5.37177e-08 -1.97314e-08 3.94354e-09 
-6.43051e-08 -2.32142e-08 -2.93624e-09 -5.56999e-08 -2.46066e-08 -1.2944e-08 -8.11206e-08 -3.04464e-08 -1.60376e-08 
-6.75018e-08 -2.2845e-08 -6.99747e-09 -8.31248e-08 -1.81996e-08 -1.48752e-09 -6.7866e-08 -1.75971e-08 -7.41499e-09 
-7.51511e-08 -1.47378e-08 1.09878e-08 -4.89323e-08 -2.17282e-08 3.31679e-09 -6.94874e-08 -2.32508e-08 3.38817e-10 
-8.68975e-08 -3.74334e-08 -9.46081e-09 -4.69995e-08 -2.17328e-08 7.28312e-10 -8.58322e-08 -2.47515e-08 -2.56167e-09 
-8.94412e-08 -1.84151e-08 3.81007e-09 -7.04734e-08 -1.67201e-08 8.65503e-09 -5.29407e-08 -1.89753e-08 2.00623e-10 
-9.55955e-08 -1.42515e-08 1.35679e-08 -7.07143e-08 -2.11747e-08 1.37593e-09 -5.98505e-08 -2.00189e-08 1.27901e-09 
-7.67881e-08 -2.4678e-08 -4.24459e-09 -5.87631e-08 -2.21154e-08 2.13428e-09 -6.20601e-08 -2.225e-08 -4.02976e-09 
-7.49175e-08 -2.42242e-08 -5.4878e-10 -7.69595e-08 -2.63877e-08 3.02053e-09 -5.86986e-08 -2.11705e-08 -3.28434e-10 
-6.61053e-08 -2.4499e-08 2.90635e-09 -6.54894e-08 -2.19878e-08 5.19949e-10 -6.93506e-08 -2.30993e-08 -3.13646e-09 
-9.02571e-08 -2.7914e-08 2.13452e-10 -8.44004e-08 -2.6371e-08 -5.51811e-11 -8.07359e-08 -3.04633e-08 3.51731e-09 
-7.57127e-08 -2.68506e-08 1.37426e-10 -8.04968e-08 -2.16799e-08 -2.6703e-09 -6.87083e-08 -1.94058e-08 -4.27642e-10 
-9.06553e-08 -2.98625e-08 -1.31513e-09 -1.30795e-07 -3.66317e-09 2.37889e-08 -9.65582e-08 -4.54963e-08 -2.73353e-08 
-8.51407e-08 -2.6176e-08 7.58493e-09 -1.07237e-07 -2.08705e-08 1.1492e-09 -9.69791e-08 -2.03369e-08 1.8968e-08 
-9.78138e-08 -3.35237e-08 1.22966e-08 -1.0887e-07 -5.32714e-08 -4.61898e-09 -1.01747e-07 -2.33552e-08 -6.81729e-09 
-8.24647e-08 -1.74699e-08 8.30956e-09 -7.89111e-08 -3.01103e-08 4.21185e-09 -7.58321e-08 -3.4677e-08 -3.71066e-09 
-1.10119e-07 -2.2413e-08 2.13122e-08 -9.07861e-08 -2.81933e-08 -6.29216e-09 -8.54743e-08 -2.34131e-08 1.04343e-09 
-8.08211e-08 -2.00508e-08 4.44131e-09 -7.67781e-08 -2.21456e-08 2.06328e-09 -7.6206e-08 -2.41799e-08 1.11785e-09 
-7.83859e-08 -3.3729e-08 -2.29829e-09 -7.87886e-08 -8.61691e-09 1.57309e-08 -8.16926e-08 -2.04641e-08 -2.06001e-09 
-7.26871e-08 -2.69308e-08 -1.07476e-09 -8.92572e-08 -2.67899e-08 1.43227e-08 -8.62635e-08 -3.35779e-08 -3.58872e-09 
-1.40296e-07 -7.57639e-08 4.67868e-09 -1.1669e-07 -1.95028e-08 1.36978e-08 -1.23919e-07 -1.80308e-08 -6.99591e-09 
-7.4531e-08 -1.75118e-08 5.22384e-09 -8.76169e-08 -3.54604e-08 3.21523e-09 
f 3 167 double
0.00127892 -0.000615961 -0.000204925 0.000604831 -0.000193205 -5.72642e-05 0.000457542 -0.000254881 -4.82569e-05 
0.000723979 -0.000243087 -9.98721e-05 0.000374937 -0.000195369 2.75558e-05 0.000986423 -0.000579377 6.3201e-05 
0.000418185 -0.000188107 0.000102922 0.000526054 -0.000205642 -6.49457e-05 0.000420474 -0.000180686 -7.17569e-05 
0.00120452 -0.000603845 -0.00035886 0.000448196 -9.90245e-05 0.000103237 0.000849762 -0.000258872 0.000165073 
0.000436831 -0.000259083 -1.1891e-05 0.00042231 -0.000228451 -1.86904e-06 0.000773537 -0.000302985 5.93086e-05 
0.00107377 -0.000549456 6.57039e-05 0.000529369 -0.000275838 1.19754e-05 0.000946528 -0.000189488 -2.5536e-05 
0.000646142 -4.10825e-06 -4.35896e-05 0.0011344 -0.000318134 5.98961e-05 0.00100585 -0.000396838 0.000108599 
0.000522268 -0.000335489 5.52892e-05 0.000399408 -0.00022883 -6.65353e-05 0.001172 -0.000513248 7.11792e-05 
0.000943671 -0.000398363 -1.62351e-06 0.00115098 -0.00019134 4.35254e-06 0.000774348 -4.18689e-06 -2.40854e-05 
0.000878285 -0.000180837 5.83367e-05 0.000766903 -0.000304869 0.000113138 0.00169258 -0.000482725 0.000252805 
0.00117823 -0.000808592 0.000154446 0.00128842 -0.000571101 -5.6433e-05 0.000544807 -0.000309997 2.97098e-05 
0.00128306 -0.000412042 0.000196932 0.000436606 -0.000295922 -1.13219e-05 0.000859806 -0.000312477 0.000109041 
0.000414318 -0.000177673 6.09247e-05 0.00124236 -0.000445213 0.000150416 0.000365489 -0.000185076 -8.49986e-05 
0.000991521 -0.00035832 3.18195e-05 0.00150355 -0.000472904 -4.06761e-05 0.00056312 -0.000330263 5.19307e-05 
0.00064653 -0.000399635 0.000109892 0.000828911 -0.000625556 -8.8502e-05 0.000516571 -0.00028133 5.86756e-05 
0.0005472 -0.000201303 3.72762e-05 0.00221687 -0.000952848 0.000165625 0.00194384 -0.000827797 7.23058e-05 
0.001978 -0.000863007 0.000234106 0.00146653 -0.000924773 -3.31812e-05 0.0015281 -0.000763555 -0.000210533 
0.00171245 -0.00108711 0.000192218 0.00128697 -0.00056097 0.000110404 0.00164898 -0.000707982 1.50632e-05 
0.00192693 -0.00097247 -5.20097e-05 0.00152463 -0.000837224 -0.000246971 0.00141956 -0.000634038 2.06458e-05 
0.00151258 -0.00044874 0.000246342 0.00188484 -0.00108792 5.49131e-05 0.00183078 -0.00072758 -3.94502e-05 
0.00138951 -0.000555432 -5.90622e-05 0.00169063 -0.00064608 0.000135031 0.00172882 -0.00101791 0.000223729 
0.00194154 -0.000908481 0.000256014 0.00166881 -0.0010261 0.000161531 0.00154366 -0.000802768 8.87143e-05 
0.0019683 -0.000689249 -0.000101116 0.00229373 -0.000961302 1.33065e-05 0.00184613 0.000135895 8.65559e-05 
0.00217724 -0.00100431 0.000138036 0.00174489 -0.00103225 4.83425e-05 0.0018596 -0.000640624 0.000116497 
0.00130863 -0.000557283 -5.93374e-05 0.00268888 -0.000918291 0.000260565 0.00246624 -0.00101313 0.000489615 
0.00268028 -0.00132602 0.000297411 0.00242674 -0.00139865 1.27247e-05 0.00170392 -0.00100228 -5.05675e-05 
0.00248403 -0.00123074 0.000161099 0.00212576 -0.00130008 1.74901e-05 0.00250568 -0.00142434 -9.99782e-05 
0.00206965 -0.00267967 9.30381e-05 0.00202959 -0.00116381 6.41874e-05 0.00303642 -0.00158928 0.000269642 
0.00247849 -0.00149931 -0.000403992 0.00193261 -0.00101869 -4.57162e-05 0.0016884 -0.00101822 2.18593e-05 
0.00229591 -0.0016662 0.000285062 0.00242808 -0.00150313 -7.80392e-06 0.00204881 -0.0012745 0.000135563 
0.00245769 -0.00124457 -7.94399e-05 0.00257611 -0.000583045 -0.000115905 0.00241252 -0.00100241 0.000435261 
0.00219108 -0.00153419 0.000166645 0.00234694 -0.00118622 0.00019367 0.00257303 -0.00124626 -0.000115728 
0.00290803 -0.00078799 -9.26808e-05 0.00272568 -0.000829404 -6.06724e-05 0.00244384 -0.00114669 0.000223877 
0.00273475 -0.00140798 7.16224e-05 0.00290368 -0.00141435 0.000103154 0.00354581 -0.00145786 0.000101393 
0.00338771 -0.001553 0.000424206 0.00306278 -0.00182826 0.000155639 0.00287938 -0.00155956 -6.66294e-05 
0.00318037 -0.00134426 0.000289556 0.00297985 -0.00128451 0.000512417 0.00343271 -0.00198088 0.0005008 
0.0034231 -0.00163852 0.000836043 0.0042253 -0.00204998 0.000317581 0.00324736 -0.00171387 0.000229237 
0.00361339 -0.00173076 -0.000252408 0.0025195 -0.0015287 -0.000169086 0.00276521 -0.00157517 -0.000367883 
0.00351495 -0.0016691 -0.00018316 0.00302443 -0.00239256 -9.49843e-05 0.00432316 -0.00156449 0.000202779 
0.00417666 -0.00198885 0.000105036 0.00373563 -0.00183374 -0.000405977 0.00257236 -0.0015294 -0.00017889 
0.00473112 -0.00196347 -0.000522241 0.00369277 -0.00142408 0.00034419 0.00298255 -0.00196323 6.53237e-05 
0.00380008 -0.00207196 0.000522517 0.00291584 -0.00163895 -0.0001991 0.00317917 -0.0017674 -3.07519e-05 
0.00364199 -0.00172874 -1.24054e-05 0.00402019 -0.00140099 7.9774e-05 0.00297651 -0.00160608 0.000253696 
0.00312511 -0.00168557 -0.0001658 0.00313795 -0.00151814 -3.25446e-05 0.00347532 -0.00171261 8.51501e-05 
0.00495263 -0.00197822 0.000174047 0.00423642 -0.00209366 -0.000225334 0.00376385 -0.00194159 2.75344e-05 
0.00397077 -0.00170676 0.000255865 0.00420283 -0.00198474 0.000259873 0.00375039 -0.00193269 0.000298439 
0.00437797 -0.00183283 0.000557084 0.00603282 -0.00319647 -0.000551783 0.0043811 -0.00107778 0.00130437 
0.00426401 -0.00200421 -0.00020017 0.00511126 -0.00209295 0.000274624 0.0046555 -0.00215488 -0.000696829 
0.00449982 -0.00181936 -0.0001403 0.00501338 -0.000784231 0.000154178 0.00480061 -0.00220515 0.00026594 
0.00418298 -0.00226282 -0.0002808 0.00375477 -0.00188661 -0.000239656 0.00380061 -0.00178616 -0.000278308 
0.00529016 -0.00242226 -0.00141042 0.00459963 -0.00222432 0.000239921 0.0042715 -0.00222892 0.000162375 
0.00396332 -0.00209627 -0.000155533 0.00384584 -0.00204104 -0.000310135 0.00398119 -0.00192764 -0.000220755 
0.00399104 -0.00179474 -4.60428e-05 0.00403057 -0.0030899 -0.000890994 0.00393556 -0.00248031 0.000391805 
0.00358303 -0.00188009 0.000281656 0.00449278 -0.00228102 -0.000408663 0.00428955 -0.00213197 0.000196532 
0.00631254 3.95575e-05 -0.000193439 0.00580506 -0.00227336 -0.000461919 0.00541964 -0.00243667 0.000337223 
0.0035337 -0.00317257 -0.000288271 0.0045676 -0.00222194 -0.000229168 
radius 1 167 double
100 100 100 100 100 100 100 100 100 
100 100 100 100 100 100 100 100 100 
100 100 100 100 100 100 100 100 100 
100 100 100 100 100 100 100 100 100 
100 100 100 100 100 100 100 100 100 
100 100 100 100 100 100 100 100 100 
100 100 100 100 100 100 100 100 100 
100 100 100 100 100 100 100 100 100 
100 100 100 100 100 100 100 100 100 
100 100 100 100 100 100 100 100 100 
100 100 100 100 100 100 100 100 100 
100 100 100 100 100 100 100 100 100 
100 100 100 100 100 100 100 100 100 
100 100 100 100 100 100 100 100 100 
100 100 100 100 100 100 100 100 100 
100 100 100 100 100 100 100 100 100 
100 100 100 100 100 100 100 100 100 
100 100 100 100 100 100 100 100 100 
100 100 100 100 100 
omega 3 167 double
6.84195e-11 -4.84373e-11 1.04437e-10 3.50805e-11 -1.05563e-10 4.94342e-11 1.31212e-11 -2.30984e-11 -1.04298e-11 
7.3515e-12 5.68865e-11 1.95006e-11 6.23637e-12 -1.07826e-11 1.72051e-11 8.54496e-11 -7.48183e-11 5.3325e-11 
-8.79241e-12 -9.42423e-12 -2.2081e-11 4.43715e-11 -9.61877e-11 3.53866e-11 -1.19047e-11 2.37569e-12 -1.57607e-12 
3.49882e-11 -5.33458e-11 3.66643e-11 8.87913e-11 -7.78981e-11 5.37682e-11 -3.19972e-11 -9.12321e-11 2.02955e-11 
1.09586e-11 -7.77047e-11 2.91807e-11 -2.8029e-11 -2.80527e-11 2.21742e-11 6.81253e-11 8.12809e-12 -2.10903e-11 
-5.0831e-11 3.54574e-11 -6.00424e-11 1.46687e-11 -5.37397e-11 -3.67395e-11 -3.70531e-11 1.66544e-11 -1.18145e-11 
4.02688e-11 -7.76392e-11 -3.56075e-11 8.04125e-12 5.66839e-12 5.8863e-12 -6.20275e-12 -1.12465e-11 4.285e-11 
-3.12243e-11 -6.58088e-11 8.96108e-13 1.90475e-11 5.71452e-12 -1.67014e-12 -4.27382e-11 -4.587e-11 7.65352e-11 
4.27294e-11 -1.66184e-11 -6.4803e-11 2.05492e-11 -6.10011e-11 -1.26452e-11 6.0419e-11 -1.70894e-10 -7.71765e-11 
-3.66879e-12 5.91243e-11 9.54784e-11 -1.20245e-11 -1.11369e-10 -9.26348e-11 -4.13683e-12 -1.20494e-11 8.32669e-11 
6.9752e-11 -4.8535e-11 -6.43332e-12 1.24415e-10 9.06712e-13 -3.78408e-11 -3.53168e-11 -8.34325e-11 -1.59644e-11 
1.96706e-10 -5.39896e-11 1.65959e-10 -1.05705e-11 2.39027e-11 -1.70152e-11 8.93758e-12 5.84672e-11 -7.2252e-11 
4.0077e-11 -6.31252e-11 -4.53856e-12 -4.45719e-11 -4.54812e-11 4.43227e-11 1.49419e-11 -2.51821e-11 -1.40056e-11 
-1.11742e-11 -5.7122e-11 1.38228e-11 1.71008e-11 -3.12357e-11 -1.40099e-10 1.24606e-11 2.03953e-11 2.89023e-11 
-5.49789e-12 -9.64548e-12 2.34633e-11 1.23351e-11 -5.57377e-11 -3.08825e-11 -9.80234e-12 -5.93681e-11 -5.61728e-13 
9.67792e-12 -7.72796e-11 1.00757e-11 -1.23053e-10 -1.21392e-10 2.1656e-11 4.61591e-11 -3.28919e-11 1.8772e-11 
5.37198e-11 -6.57825e-11 -1.48557e-10 5.89303e-11 -1.08711e-10 1.45176e-11 -5.28919e-11 2.36556e-11 -6.25866e-11 
-5.22649e-11 -3.38999e-11 5.89567e-11 -2.53843e-11 -4.96363e-11 -7.55925e-11 1.34834e-11 -5.72695e-11 6.09377e-12 
-5.72398e-11 1.09691e-11 -2.26956e-11 -9.34119e-11 4.4493e-11 -4.64628e-11 8.76145e-11 -6.71772e-11 7.61022e-11 
4.48766e-11 -9.02166e-11 1.858e-12 -4.69935e-11 -4.44739e-11 -2.68791e-11 -8.08682e-11 -1.48857e-11 -5.24077e-11 
4.38969e-11 -4.78464e-11 3.11544e-11 -3.26499e-11 1.85135e-11 3.79516e-11 8.75282e-12 -2.98514e-11 -4.55611e-12 
3.55717e-11 -1.12972e-11 -4.62424e-12 -1.02034e-10 -1.35998e-11 8.38956e-11 1.24365e-10 -3.23513e-11 -6.8675e-11 
5.72711e-11 -5.49546e-11 4.86795e-11 -4.70196e-11 7.48541e-11 -8.87706e-11 -7.76981e-11 -3.56358e-11 -1.42401e-10 
-7.08633e-12 4.17187e-11 1.4656e-10 4.17902e-11 -5.96906e-11 -4.98158e-11 8.09709e-11 -7.24878e-11 -1.02382e-11 
9.3821e-12 -4.64764e-11 -1.03186e-11 -1.40362e-12 1.27957e-10 -2.7304e-10 1.31959e-10 -1.1376e-10 2.16891e-11 
-3.32179e-11 -1.81985e-11 5.91874e-11 7.10546e-12 -4.6923e-11 2.9999e-11 1.05082e-12 6.35783e-11 4.23783e-11 
2.49806e-10 9.59507e-11 -2.74992e-11 5.2952e-11 -1.87697e-11 -1.00324e-10 3.06339e-11 -2.31248e-10 1.31231e-10 
-3.04211e-11 -5.16184e-11 -1.38467e-10 4.16393e-11 -1.83118e-11 8.43677e-11 1.10461e-12 -7.32825e-11 2.70396e-11 
-1.79939e-12 -1.1275e-10 -1.26855e-11 2.8676e-11 -1.635e-11 1.57037e-10 1.85876e-11 7.71114e-11 -1.36213e-10 
2.24562e-11 -5.14661e-11 -6.76739e-11 3.38356e-11 -9.50289e-11 -8.70577e-11 -1.46191e-10 -3.18794e-11 7.9337e-11 
-5.26337e-11 -1.38488e-10 4.38981e-11 3.67224e-11 -5.0549e-12 -1.57321e-10 1.25527e-10 4.13921e-12 2.51112e-10 
9.80744e-11 -4.1649e-11 1.35925e-10 5.80081e-11 -4.73262e-11 -3.2469e-12 -4.81625e-11 -7.60856e-11 -4.47492e-11 
-6.36045e-11 6.29894e-11 2.27122e-10 1.95002e-10 -1.15644e-10 -2.46759e-10 4.5682e-12 -9.1024e-11 -7.48899e-11 
7.7062e-11 -8.42267e-11 -5.46585e-11 6.11351e-11 4.9966e-11 7.35127e-11 -3.03984e-11 -3.41729e-10 3.34718e-11 
8.60723e-12 -1.09501e-10 -8.13136e-11 -1.32317e-11 -2.09051e-11 4.85758e-11 -8.26989e-12 -4.77645e-12 -1.10068e-10 
-1.61672e-10 -1.94283e-10 -5.59607e-11 6.60547e-11 1.30639e-10 -8.53788e-11 3.73434e-10 -3.17869e-10 -4.47273e-11 
-9.47915e-11 -2.9265e-11 6.7082e-11 -2.41036e-11 -1.08823e-10 1.32907e-11 2.62908e-11 -1.55677e-10 -2.63202e-11 
4.81359e-12 -1.2346e-10 5.94215e-11 -1.58206e-11 4.28372e-11 6.27106e-11 9.72865e-11 -8.50329e-11 -4.39363e-11 
1.02307e-10 -3.22159e-11 -2.96291e-11 -1.66101e-10 4.73185e-11 -2.64987e-10 1.57374e-10 -2.11064e-10 6.52119e-11 
2.46543e-11 -8.79459e-11 -1.65131e-11 -1.3248e-10 -1.05354e-10 -2.33118e-10 4.29553e-11 2.15249e-10 -1.74947e-10 
-3.81018e-10 -3.5067e-10 -3.8941e-10 -2.67706e-11 -1.12021e-10 -3.00902e-11 -5.36413e-11 -1.59463e-10 -1.25222e-10 
2.47228e-10 -1.70293e-10 -8.33423e-12 4.9134e-11 9.41888e-11 9.59174e-11 -4.39517e-11 -5.68675e-12 -8.65763e-11 
-1.27837e-10 -1.11549e-10 -9.79067e-11 2.27747e-11 7.78747e-11 6.39792e-11 -5.47774e-11 3.74906e-11 9.51327e-11 
-4.64105e-11 -5.05873e-11 5.50239e-12 1.07748e-10 1.59341e-11 8.88322e-11 -1.54477e-11 -3.39447e-11 2.05867e-10 
-1.48078e-10 1.42316e-11 -2.99511e-11 8.39635e-11 5.07175e-11 8.69824e-11 1.45126e-11 -7.76315e-11 -1.11877e-10 
2.19987e-11 5.31117e-11 7.79636e-11 1.74728e-10 -4.07291e-12 1.55238e-10 8.36594e-11 -1.29076e-10 -2.73704e-10 
2.24929e-10 -2.63589e-11 2.08372e-10 -3.54742e-10 -6.13472e-10 1.44559e-11 -1.52091e-10 1.79445e-10 2.25457e-13 
2.1925e-11 1.86927e-10 6.85846e-11 3.49175e-11 -1.32194e-10 1.26005e-12 4.69472e-11 -9.54515e-11 -2.64429e-11 
-1.26111e-10 1.76448e-10 -1.11002e-10 3.6216e-10 -4.09852e-10 6.19889e-11 -1.2212e-10 -9.30054e-11 9.81939e-11 
-1.12151e-10 -1.55968e-10 -2.53326e-10 -2.27746e-11 1.66613e-10 -1.1117e-10 -2.95392e-11 -4.30472e-11 -2.28665e-10 
1.34367e-10 4.97341e-10 -6.04115e-11 -4.5532e-11 -1.20383e-10 -2.96108e-10 -2.0984e-10 1.38749e-10 -1.16059e-10 
1.22416e-10 2.56986e-12 3.27641e-10 9.73915e-12 1.13742e-10 -3.35629e-10 -7.70293e-11 8.9292e-11 1.87119e-10 
4.89241e-11 -1.89655e-10 3.20296e-10 -2.52551e-10 -2.01584e-12 -1.27975e-10 -2.35492e-10 6.63575e-11 -3.04384e-11 
1.40882e-10 -1.47636e-10 -5.63553e-11 2.63219e-11 -3.10841e-11 2.37218e-10 -9.27549e-11 1.96848e-10 -2.77576e-10 
5.00463e-10 -7.52762e-10 9.11449e-14 -4.38757e-11 -1.70021e-10 1.42907e-10 4.17493e-11 -1.01017e-10 -3.44519e-11 
2.23658e-10 1.42812e-10 -2.67225e-12 2.03369e-10 -2.27238e-10 -1.96614e-11 
