# vtk DataFile Version 4.0
Generated by LIGGGHTS
ASCII
DATASET POLYDATA
POINTS 32 float
229.012 -491.574 99.9794 432.972 -468.666 99.9794 296.54 -299.06 107.179 
-292.176 -288.728 103.957 -83.311 -173.977 99.9794 -251.6 85.1001 100.159 
-62.1949 39.8626 205.961 157.364 -86.1476 99.9794 450.929 -85.1278 101.289 
301.31 54.3307 100.023 498.646 198.357 99.9793 11.258 201.167 100.707 
-249.614 433.763 99.9794 83.48 421.612 236.233 187.244 301.3 100.047 
-187.805 -113.266 316.415 250.018 -30.6688 332.449 -346.346 -342.41 417.847 
158.498 110.998 2028.14 60.5086 -376.811 473.912 361.074 -4.05396 678.974 
353.074 323.349 802.364 -112.967 -145.979 1331.46 -173.983 122.52 1335.99 
87.0462 175.318 1423.18 156.005 -314.157 1729.26 368.775 -255.124 1752.5 
213.681 -80.8119 1858.04 -59.6854 306.914 1843.2 -313.134 -264.631 2024.43 
-285.263 23.7872 1980.21 -12.6694 41.7417 1903.9 
VERTICES 32 64
1 0 
1 1 
1 2 
1 3 
1 4 
1 5 
1 6 
1 7 
1 8 
1 9 
1 10 
1 11 
1 12 
1 13 
1 14 
1 15 
1 16 
1 17 
1 18 
1 19 
1 20 
1 21 
1 22 
1 23 
1 24 
1 25 
1 26 
1 27 
1 28 
1 29 
1 30 
1 31 

POINT_DATA 32
FIELD FieldData 7
id 1 32 int
6 4 9 19 1 3 14 10 11 
2 12 13 7 8 5 15 16 17 
31 18 25 24 26 23 22 20 21 
29 28 32 30 27 
type 1 32 int
1 1 1 1 1 1 1 1 1 
1 1 1 1 1 1 1 1 1 
1 1 1 1 1 1 1 1 1 
1 1 1 1 1 
i 3 32 int
0 0 0 0 1 0 -1 0 0 
0 0 0 0 0 0 0 0 0 
0 0 0 0 0 0 -1 0 0 
0 0 0 -1 0 0 0 0 0 
0 0 0 0 -1 0 0 0 0 
0 0 0 0 0 0 0 0 0 
0 0 0 0 0 0 0 0 0 
0 0 0 0 0 0 0 0 0 
0 0 0 0 0 0 0 0 0 
0 0 0 0 0 0 0 0 0 
0 0 0 0 0 0 
v 3 32 double
0.00841149 -0.00781072 -1.08855e-09 0.00973426 0.00487552 7.66828e-11 -0.01035 0.00318663 -0.0102784 
-0.011768 -0.0297774 0.0157749 -0.00116742 -0.00715086 1.55059e-09 0.00431792 -0.00244262 -0.000571831 
0.0173572 -0.00387525 -0.00841158 -0.000464197 0.00383762 1.72903e-07 -0.011016 -0.00375516 0.0016271 
-0.00118784 0.00521499 0.00309061 -0.00243701 -0.0201803 1.93655e-06 -2.06178e-05 0.0130457 -0.0071974 
0.0017072 0.00468928 -2.06785e-06 -0.0095863 -0.00641231 -0.00713781 0.0116662 -0.00269047 0.00109651 
-0.000563257 -0.00849425 -0.048498 -0.0211749 0.0291322 0.03112 0 0 -0.177318 
-0 -0 -0.02 0 0 -0.174189 0 0 -0.16223 
0 0 -0.154588 0 0 -0.116261 0 0 -0.115878 
0 0 -0.108246 0 0 -0.0755786 0 0 -0.0724982 
0 0 -0.0564392 0 0 -0.0589604 -0 -0 -0.02 
0 0 -0.0280785 0 0 -0.0478064 
f 3 32 double
-2.09437e-07 1.94477e-07 0.00338975 1.63374e-08 8.18232e-09 -2.48481e-05 0 0 -102.73 
0 0 -102.73 -3.93685e-08 -2.41147e-07 9.83933e-05 0 0 -102.73 
0 0 -102.73 -1.72608e-06 1.43055e-05 0.116621 0 0 -102.73 
0 0 -102.73 -0.000102748 -0.000850829 -0.00224285 0 0 -102.73 
-7.69002e-05 -0.000211227 0.0493451 0 0 -102.73 0 0 -102.73 
0 0 -102.73 0 0 -102.73 0 0 -102.73 
0 0 0 0 0 -102.73 0 0 -102.73 
0 0 -102.73 0 0 -102.73 0 0 -102.73 
0 0 -102.73 0 0 -102.73 0 0 -102.73 
0 0 -102.73 0 0 -102.73 0 0 0 
0 0 -102.73 0 0 -102.73 
radius 1 32 double
100 100 100 100 100 100 100 100 100 
100 100 100 100 100 100 100 100 100 
100 100 100 100 100 100 100 100 100 
100 100 100 100 100 
omega 3 32 double
7.81152e-05 8.41235e-05 0.00014011 -4.87602e-05 9.73527e-05 0.000142472 5.67458e-05 -7.95147e-05 8.17741e-05 
0.000297088 -0.000117219 0.00035387 7.1516e-05 -1.16754e-05 -5.8689e-05 2.44307e-05 4.31732e-05 0.000138747 
0.000257079 0.000159509 0.000288967 -3.83802e-05 -4.64245e-06 9.33502e-05 3.79273e-05 -0.000110447 -1.74984e-05 
-5.15269e-05 -1.14532e-05 -1.54509e-05 0.000201823 -2.43726e-05 -0.000130748 -0.00013021 -3.65128e-05 -0.000116298 
-4.68976e-05 1.70737e-05 -5.27223e-05 4.00938e-05 -0.000366265 0.000107385 2.68889e-05 0.000116691 -7.09096e-05 
-0.000147588 -0.000142062 0.000448632 -0.000381186 -0.000100489 -0.00013073 0 0 0 
0 0 0 0 0 0 0 0 0 
0 0 0 0 0 0 0 0 0 
0 0 0 0 0 0 0 0 0 
0 0 0 0 0 0 0 0 0 
0 0 0 0 0 0 
