# vtk DataFile Version 4.0
Generated by LIGGGHTS
ASCII
DATASET POLYDATA
POINTS 26 float
81.4711 -406.991 100.005 8.99431 -319.699 264.799 -47.1295 -200.623 100.879 
234.683 -164.93 161.072 455.516 -262.771 238.231 -416.197 -95.0706 160.698 
309.254 40.3266 140.598 -348.93 195.614 229.174 13.1783 108.151 162.163 
153.218 263.269 100.826 -278.063 383.223 249.092 342.042 409.518 102.87 
-398.929 255.091 526.419 -381.459 -132.984 1032.56 -54.4417 44.1747 1090.7 
320.24 -172.191 1273.33 -194.206 -92.0279 1405.96 -346.346 -342.41 1700.53 
60.5086 -376.811 1725.3 361.074 -4.05396 1810.78 353.074 323.349 1857.75 
156.005 -314.157 2086.7 -112.967 -145.979 2003.74 368.775 -255.124 2092.97 
-173.983 122.52 2004.53 87.0462 175.318 2020.09 
VERTICES 26 52
1 0 
1 1 
1 2 
1 3 
1 4 
1 5 
1 6 
1 7 
1 8 
1 9 
1 10 
1 11 
1 12 
1 13 
1 14 
1 15 
1 16 
1 17 
1 18 
1 19 
1 20 
1 21 
1 22 
1 23 
1 24 
1 25 

POINT_DATA 26
FIELD FieldData 7
id 1 26 int
6 8 1 10 9 11 2 3 13 
5 7 4 12 19 14 16 15 17 
18 25 24 20 26 21 23 22 
type 1 26 int
1 1 1 1 1 1 1 1 1 
1 1 1 1 1 1 1 1 1 
1 1 1 1 1 1 1 1 
i 3 26 int
0 0 0 0 0 0 0 0 0 
0 0 0 -1 0 0 0 0 0 
0 0 0 0 0 0 0 0 0 
0 0 0 0 0 0 0 0 0 
0 0 0 0 0 0 0 0 0 
0 0 0 0 0 0 0 0 0 
0 0 0 0 0 0 0 0 0 
0 0 0 0 0 0 0 0 0 
0 0 0 0 0 0 
v 3 26 double
0.0168975 -0.00947325 0.00320967 0.0155714 -0.0295904 0.0188899 0.00447501 0.0084011 0.00244179 
-0.0299346 0.010674 0.00371969 -0.0152767 0.000371135 0.00619343 -0.025239 -0.00290445 -0.0281699 
0 0 -0.0496636 0 0 -0.0269926 -0.0014946 0.00652692 0.00313945 
0.00110022 0.0040122 -9.01352e-05 0 0 -0.0183797 0.0133092 0.0112558 0.0121764 
0 0 -0.171206 0 0 -0.139216 0 0 -0.135057 
0 0 -0.121068 0 0 -0.109796 0 0 -0.0792181 
0 0 -0.0760887 0 0 -0.0641303 0 0 -0.0564883 
-0 -0 -0.02 -0 -0 -0.02 -0 -0 -0.02 
-0 -0 -0.02 -0 -0 -0.02 
f 3 26 double
0 0 -102.73 0 0 -102.73 0 0 -102.73 
0 0 -102.73 0 0 -102.73 0 0 -102.73 
0 0 -102.73 0 0 -102.73 0 0 -102.73 
0 0 -102.73 0 0 -102.73 0 0 -102.73 
0 0 -102.73 0 0 -102.73 0 0 -102.73 
0 0 -102.73 0 0 -102.73 0 0 -102.73 
0 0 -102.73 0 0 -102.73 0 0 -102.73 
0 0 0 0 0 0 0 0 0 
0 0 0 0 0 0 
radius 1 26 double
100 100 100 100 100 100 100 100 100 
100 100 100 100 100 100 100 100 100 
100 100 100 100 100 100 100 100 
omega 3 26 double
9.3903e-05 0.000168299 4.55809e-05 0.000128186 -0.000131748 3.38611e-05 -8.16021e-05 4.59923e-05 -0.000182328 
9.13812e-05 0.000231353 -1.19936e-05 -1.92587e-05 -0.000221534 -1.19936e-05 9.93834e-05 0.000290739 -0.000170608 
0 0 0 0 0 0 -6.48597e-05 -1.57038e-05 -1.30697e-05 
-4.06155e-05 1.16056e-05 -2.12884e-05 0 0 0 -0.00011244 0.000133109 -8.21871e-06 
0 0 0 0 0 0 0 0 0 
0 0 0 0 0 0 0 0 0 
0 0 0 0 0 0 0 0 0 
0 0 0 0 0 0 0 0 0 
0 0 0 0 0 0 
