# vtk DataFile Version 4.0
Generated by LIGGGHTS
ASCII
DATASET POLYDATA
POINTS 72 float
-412.783 -500.127 99.9666 -410.99 -383.863 268.511 -496.208 -318.266 99.9406 
-217.098 -457.604 99.9657 -75.1494 -316.278 99.9662 43.111 -319.681 261.188 
115.408 -413.443 99.9673 299.296 -304.845 102.08 387.763 -485.935 99.9756 
-362.951 -159.653 99.9812 -246.401 -287.291 200.594 -164.692 -133.379 99.9615 
96.7075 -213.44 100.129 -18.2267 -120.263 235.53 220.576 -213.865 263.927 
404.655 -291.798 271.585 446.25 -134.836 154.875 -445.485 24.0107 99.9601 
-110.377 59.0908 99.9961 -218.783 -88.9202 287.16 77.6851 -8.85403 99.9619 
7.4553 78.3832 265.943 258.065 -95.3062 99.9685 182.895 -17.4086 269.876 
363.925 39.6897 207.183 -449.565 178.242 267.864 -287.229 130.184 160.371 
-145.129 287.143 99.9758 -241.279 287.141 275.384 34.0334 197.737 99.9793 
-37.6719 273.032 273.636 225.414 139.198 101.997 161.041 295.43 271.881 
441.949 189.349 99.9649 348.715 226.555 276.817 -343.522 312.297 99.9904 
-260.452 485.792 286.933 -60.5175 449.839 183.06 233.399 482.009 222.982 
108.768 383.265 99.9704 302.433 333.205 99.9744 487.738 356.555 199.651 
-179.716 -354.88 376.553 198.725 -383.512 369.514 422.006 -487.858 306.962 
-462.538 -255.861 417.221 -94.8998 -178.296 415.738 105.546 -191.895 425.994 
-418.891 -70.9369 288.166 91.0896 6.77245 445.963 359.998 52.9472 410.18 
-181.47 103.727 328.05 68.1506 468.962 334.973 319.795 401.923 439.459 
-345.084 -161.371 552.979 -12.1099 -165.124 597.047 223.752 -100.393 561.331 
423.708 98.5863 598.566 23.9452 -376.337 594.953 -310.742 -233.56 1043.52 
-362.558 349.951 1056.51 390.89 -381.967 1265.43 -365.887 79.1138 1268.36 
-120.714 165.796 1475.26 208.551 -200.636 1845.9 239.064 134.563 1747.11 
-92.5678 350.367 1790.49 -295.395 -290.802 2088.26 331.829 -157.673 2079.77 
-387.717 -31.8466 2016.19 -65.372 98.3357 2058.26 185.595 321.531 2026.96 

VERTICES 72 144
1 0 
1 1 
1 2 
1 3 
1 4 
1 5 
1 6 
1 7 
1 8 
1 9 
1 10 
1 11 
1 12 
1 13 
1 14 
1 15 
1 16 
1 17 
1 18 
1 19 
1 20 
1 21 
1 22 
1 23 
1 24 
1 25 
1 26 
1 27 
1 28 
1 29 
1 30 
1 31 
1 32 
1 33 
1 34 
1 35 
1 36 
1 37 
1 38 
1 39 
1 40 
1 41 
1 42 
1 43 
1 44 
1 45 
1 46 
1 47 
1 48 
1 49 
1 50 
1 51 
1 52 
1 53 
1 54 
1 55 
1 56 
1 57 
1 58 
1 59 
1 60 
1 61 
1 62 
1 63 
1 64 
1 65 
1 66 
1 67 
1 68 
1 69 
1 70 
1 71 

POINT_DATA 72
FIELD FieldData 7
id 1 72 int
4 32 15 7 1 34 9 11 6 
19 30 14 10 38 36 20 26 3 
24 47 16 43 29 35 21 37 33 
28 44 13 46 2 31 12 39 17 
27 18 22 8 5 25 51 41 45 
52 40 50 23 55 49 42 48 59 
53 54 56 57 58 65 63 62 60 
64 67 61 71 70 72 66 68 69 

type 1 72 int
1 1 1 1 1 1 1 1 1 
1 1 1 1 1 1 1 1 1 
1 1 1 1 1 1 1 1 1 
1 1 1 1 1 1 1 1 1 
1 1 1 1 1 1 1 1 1 
1 1 1 1 1 1 1 1 1 
1 1 1 1 1 1 1 1 1 
1 1 1 1 1 1 1 1 1 

i 3 72 int
1 1 0 0 0 0 0 0 0 
0 1 0 0 0 0 0 0 0 
-1 0 0 -1 0 0 0 0 0 
0 0 0 0 0 0 0 0 0 
0 0 0 0 0 0 -1 0 0 
0 0 0 -1 0 0 0 0 0 
1 0 0 0 0 0 0 0 0 
0 0 0 0 0 0 -1 0 0 
0 -1 0 0 0 0 0 0 0 
0 0 0 0 0 0 0 0 0 
0 0 0 0 0 0 0 0 0 
-1 0 0 0 0 0 0 -1 0 
0 -1 0 0 -1 0 0 0 0 
0 -1 0 0 0 0 0 0 0 
0 0 0 0 0 0 0 1 0 
0 0 0 0 0 0 0 0 0 
0 0 0 0 0 0 0 0 0 
0 0 0 0 0 0 0 0 0 
0 0 0 0 0 0 0 0 0 
0 0 0 0 0 0 0 0 0 
0 0 0 0 0 0 0 0 0 
0 0 0 0 0 0 0 0 0 
0 0 0 0 0 0 0 0 0 
0 0 0 0 0 0 0 0 0 

v 3 72 double
0.00131148 -0.000887344 -0.000164202 0.000944532 -0.000549902 0.00132238 0.000637814 -0.00154845 0.00021058 
-0.000676074 -0.000148099 -0.000250372 0.00113726 -0.00168857 0.000122964 0.00262592 -0.000160743 -0.000824511 
0.00156892 -0.000487681 -0.00015921 0.00900644 -0.00460804 0.00202004 0.000989787 -0.00113477 0.000201202 
0.00103296 0.000776275 -0.000184366 -0.000460965 -0.000559356 -0.000813886 0.00113054 -0.000939403 -0.00244376 
-0.00152287 0.00139436 -0.00227354 0.00185735 -0.00165451 0.000124864 0.00755555 -0.000855168 0.0011957 
0.00764343 -0.000549978 0.0031529 0.000224162 -0.00163242 -0.000132471 -0.00143092 -0.000425255 -0.000159037 
0.000846549 -0.00171114 -0.000153831 -0.0168783 0.00749998 -0.0177986 0.00198569 -0.000679272 0.000758522 
0.00183561 0.000566555 0.00161024 2.25275e-05 -0.000256656 7.4108e-05 0.00345128 -0.00114767 0.00138826 
0.00384169 -0.000639425 0.000119529 0.000477264 -0.00585813 -0.00391794 -4.30015e-05 -0.00190796 -0.000345755 
0.00114402 0.00113744 -5.01651e-05 -0.000595065 -0.00170869 -0.00179136 0.000898627 -0.000111744 -0.000150279 
-0.00476671 -0.00282529 -0.00585935 0.00266494 0.00266585 -0.000629644 -0.00454161 -0.00327045 -0.00115562 
0.00302046 -0.000486567 0.000215469 -0.00269589 -0.00103626 0.000614835 0.000967954 -0.00120126 -0.00010954 
-0.000591788 -0.0039084 0.000465085 -0.00061137 -0.000486921 -0.00101304 -0.00042501 -0.00469884 -0.00195155 
0.00081331 0.000197541 0.000315211 0.000905977 -0.00133842 -1.48643e-05 0.00350798 -0.00143083 0.000923916 
-0.00481668 -0.00281427 -0.00468895 0.00476778 0.000137853 -0.00550436 0.00139578 -0.00141125 -7.50755e-05 
0.00831632 0.00209068 0.00405235 -0.0142827 0.00446798 -0.0149721 -0.00590586 0.00243802 -0.00839416 
-0.0120111 -0.00654409 -0.0164115 0.00418007 0.00636963 0.00162423 0.0116539 -0.0251294 0.00309702 
0.0132597 0.00117285 -0.00816664 0.0012351 0.00231135 -0.00252088 0.00665834 -0.00796623 0.000440773 
0.00594919 -0.0220741 0.0203687 -0.0505059 0.00991019 0.00957689 0.0200617 0.00319477 -0.0215314 
0.0300238 0.00126006 -0.00153835 0 0 -0.167233 0 0 -0.138441 
0 0 -0.137519 0 0 -0.121705 0 0 -0.12147 
0 0 -0.103419 0 0 -0.0585092 0 0 -0.0732242 
0 0 -0.0671616 -0 -0 -0.02 -0 -0 -0.02 
-0 -0 -0.02 -0 -0 -0.02 -0 -0 -0.02 

f 3 72 double
-49.2528 186.14 63.6702 103.454 -114.826 -0.993877 119.474 -94.6133 -57.9865 
-80.1015 78.3011 -185.966 -13.2379 -1.32992 -0.544315 38.3718 -0.48037 -14.6925 
-109.845 60.077 24.3337 0 0 -102.73 -9.7443 50.0719 43.3594 
-95.1646 107.714 -124.896 -413.021 -97.1605 -752.807 -449.668 571.384 -1904.73 
-44.5585 -11.9547 -89.1045 -34.2848 -15.6362 -20.5186 77.1175 62.1942 -328.948 
-281.413 -5.212 184.941 98.3302 -195.138 -50.3257 48.5252 -129.811 -114.454 
3.75079 21.2726 -252.951 -1908.26 1482.54 189.467 89.6938 -34.6891 -143.808 
-285.428 -503.429 -29.3722 5.72053 -10.0753 46.7644 -408.796 96.8965 82.091 
53.3452 9.85039 9.29023 0 0 -102.73 96.3143 -173.894 -81.5597 
31.7168 9.32685 3.45874 -148.722 -445.553 -337.422 -5.05263 5.45346 28.093 
180.086 303.717 -36.1069 0 0 -102.73 70.6388 51.5919 -70.8324 
17.8343 71.7601 -62.0823 -18.1226 -19.6295 -103.543 16.3015 73.958 -39.3754 
-609.619 -973.084 -344.318 -46.9758 91.9101 -127.706 8.15969 -72.5928 47.1241 
3.73884 -2.49542 5.14556 5.47677 -11.8043 25.1999 46.2558 111.551 -93.8121 
414.23 -57.7413 245.108 0 0 -102.73 5.96228 -101.11 -132.393 
0 0 -102.73 1895.11 -50.7629 2504.52 -77.1175 -62.1942 123.488 
0 0 -102.73 0 0 -102.73 0 0 -102.73 
17.2431 -77.7644 -32.518 -16.6471 -4.30511 -110.132 0 0 -102.73 
0 0 -102.73 984.876 421.104 1041.04 0 0 -102.73 
0 0 -102.73 0 0 -102.73 0 0 -102.73 
0 0 -102.73 0 0 -102.73 0 0 -102.73 
0 0 -102.73 0 0 -102.73 0 0 -102.73 
0 0 -102.73 0 0 0 0 0 0 
0 0 0 0 0 0 0 0 0 

radius 1 72 double
100 100 100 100 100 100 100 100 100 
100 100 100 100 100 100 100 100 100 
100 100 100 100 100 100 100 100 100 
100 100 100 100 100 100 100 100 100 
100 100 100 100 100 100 100 100 100 
100 100 100 100 100 100 100 100 100 
100 100 100 100 100 100 100 100 100 
100 100 100 100 100 100 100 100 100 

omega 3 72 double
2.69334e-06 -6.94939e-06 -2.13631e-05 -9.67508e-06 -1.72443e-05 4.09802e-05 1.34268e-05 5.13388e-06 -4.48265e-06 
-5.27758e-07 -6.76342e-06 4.4754e-05 1.69089e-05 1.1193e-05 3.34752e-05 -1.52882e-05 6.30868e-06 -5.40803e-06 
4.49191e-06 1.55219e-05 2.45365e-06 1.63265e-05 7.62136e-05 -0.000135423 1.44339e-05 1.11431e-05 2.46689e-05 
-8.76331e-06 8.32486e-06 -1.39915e-07 1.32405e-05 -8.13633e-06 -6.19045e-05 -6.24778e-06 -3.84905e-06 -2.4011e-05 
5.71045e-05 1.21482e-05 3.41737e-06 -1.13484e-05 -9.03052e-06 1.73356e-05 -1.52486e-05 -9.91796e-05 3.77658e-05 
-1.94865e-05 7.13346e-05 8.14112e-06 -1.67451e-05 2.98423e-06 1.10917e-05 5.09255e-06 -1.51765e-05 1.33605e-05 
4.58964e-06 -1.99781e-05 3.28844e-05 4.73399e-05 -0.000103795 -8.53029e-05 8.79269e-06 1.39069e-05 -2.00233e-05 
-8.83842e-05 6.17779e-05 -1.03634e-05 1.84837e-06 1.10643e-06 -2.58991e-05 -1.92569e-05 7.20837e-07 6.41504e-06 
2.19894e-05 1.60219e-05 -2.68272e-06 5.12044e-06 3.93547e-05 4.64369e-05 -3.77632e-06 1.72652e-05 -3.18116e-05 
-1.14805e-05 1.07585e-05 1.23457e-05 -6.17117e-06 2.49823e-06 5.36591e-05 5.81742e-07 8.69909e-06 -1.81534e-05 
9.28956e-06 -7.07304e-05 5.41998e-05 -2.99557e-05 -1.4174e-05 6.03874e-05 -1.46461e-05 2.12706e-05 -5.35611e-05 
4.63771e-06 3.02272e-05 -2.1456e-05 1.44171e-05 -3.9648e-05 8.04963e-05 2.55759e-06 -4.6244e-06 1.47509e-05 
3.44689e-05 5.73356e-06 -5.77783e-05 4.1638e-05 -1.00312e-05 -2.76591e-05 4.44253e-05 -3.12386e-05 -2.72048e-05 
-1.56561e-06 9.4585e-06 2.19648e-05 1.41974e-05 8.71726e-06 -8.68638e-06 -1.45479e-05 -7.69703e-05 -1.67451e-05 
-6.92184e-05 4.63788e-06 0.000100574 -6.80912e-06 2.18258e-05 -6.15569e-05 6.70235e-05 -8.5732e-05 -6.99709e-05 
-5.71613e-05 -9.45734e-05 -5.66291e-05 -1.58435e-05 0.000114033 6.09938e-05 7.45942e-06 -9.78139e-06 2.83637e-05 
0.000195452 4.61186e-05 0.00014726 8.43068e-05 5.94451e-05 -0.000129717 -9.34687e-06 3.88384e-06 0.000128922 
2.04147e-05 0.000121018 6.0765e-05 -5.7399e-05 2.37469e-05 4.57915e-05 0.000178297 0.000362001 -0.000164708 
0.000266794 -9.71638e-05 -9.95092e-05 -3.02416e-05 -0.000550671 -1.96532e-05 0.000119245 -0.000170806 -0.000237714 
-0.000219202 0.000202385 1.87565e-05 0 0 0 0 0 0 
0 0 0 0 0 0 0 0 0 
0 0 0 0 0 0 0 0 0 
0 0 0 0 0 0 0 0 0 
0 0 0 0 0 0 0 0 0 

