/*--------------------------------*- C++ -*----------------------------------*\
| =========                 |                                                 |
| \\      /  F ield         | OpenFOAM: The Open Source CFD Toolbox           |
|  \\    /   O peration     | Version:  5.x                                   |
|   \\  /    A nd           | Web:      www.OpenFOAM.org                      |
|    \\/     M anipulation  |                                                 |
\*---------------------------------------------------------------------------*/
FoamFile
{
    version     2.0;
    format      ascii;
    class       volScalarField;
    location    "10000";
    object      p;
}
// * * * * * * * * * * * * * * * * * * * * * * * * * * * * * * * * * * * * * //

dimensions      [0 2 -2 0 0 0 0];

internalField   nonuniform List<scalar> 
2250
(
5.77639e-10
6.08841e-10
6.28607e-10
6.45502e-10
6.51221e-10
5.7747e-10
5.97667e-10
6.14813e-10
6.32405e-10
6.38302e-10
5.7678e-10
5.86531e-10
6.00379e-10
6.15032e-10
6.16307e-10
6.06819e-10
5.96739e-10
5.92219e-10
5.88695e-10
5.78742e-10
7.33669e-10
6.49789e-10
6.00254e-10
5.56943e-10
5.17809e-10
1.71998e-09
1.8278e-09
1.90632e-09
1.96838e-09
1.99674e-09
1.70516e-09
1.80111e-09
1.87904e-09
1.94139e-09
1.97078e-09
1.693e-09
1.77115e-09
1.8275e-09
1.87683e-09
1.89567e-09
1.74181e-09
1.77355e-09
1.77576e-09
1.77588e-09
1.76654e-09
2.0042e-09
1.86845e-09
1.77132e-09
1.67273e-09
1.60823e-09
2.91108e-09
3.1049e-09
3.26011e-09
3.37692e-09
3.43167e-09
2.87135e-09
3.06395e-09
3.22373e-09
3.33561e-09
3.3807e-09
2.80933e-09
2.99505e-09
3.1154e-09
3.19962e-09
3.23084e-09
2.78171e-09
2.93543e-09
2.98026e-09
2.99595e-09
2.99866e-09
2.92532e-09
2.9348e-09
2.88177e-09
2.79158e-09
2.75825e-09
4.23443e-09
4.50084e-09
4.72568e-09
4.88418e-09
4.94587e-09
4.17572e-09
4.44893e-09
4.67264e-09
4.81064e-09
4.84793e-09
4.06532e-09
4.32606e-09
4.49173e-09
4.5916e-09
4.62334e-09
3.9495e-09
4.17574e-09
4.25386e-09
4.28438e-09
4.29805e-09
3.85088e-09
3.99103e-09
3.99206e-09
3.94794e-09
3.9473e-09
5.73497e-09
6.04735e-09
6.29664e-09
6.45218e-09
6.49503e-09
5.67448e-09
5.98472e-09
6.21509e-09
6.33527e-09
6.35125e-09
5.55497e-09
5.81463e-09
5.97235e-09
6.05777e-09
6.08056e-09
5.38573e-09
5.57705e-09
5.64715e-09
5.67839e-09
5.68911e-09
5.10164e-09
5.23008e-09
5.23548e-09
5.22224e-09
5.21896e-09
7.44659e-09
7.74644e-09
7.94914e-09
8.06275e-09
8.08553e-09
7.40123e-09
7.66766e-09
7.83733e-09
7.91743e-09
7.92731e-09
7.28137e-09
7.46226e-09
7.56795e-09
7.63082e-09
7.65149e-09
7.03301e-09
7.1451e-09
7.193e-09
7.22702e-09
7.2364e-09
6.60805e-09
6.69942e-09
6.70728e-09
6.70882e-09
6.70099e-09
9.35877e-09
9.56909e-09
9.68896e-09
9.76496e-09
9.79743e-09
9.30502e-09
9.46317e-09
9.55794e-09
9.62563e-09
9.66695e-09
9.13386e-09
9.22627e-09
9.29768e-09
9.37289e-09
9.41777e-09
8.73574e-09
8.8418e-09
8.91469e-09
8.99232e-09
9.03622e-09
8.13464e-09
8.33059e-09
8.4309e-09
8.50814e-09
8.57315e-09
1.1402e-08
1.15085e-08
1.15759e-08
1.1656e-08
1.17316e-08
1.12946e-08
1.13719e-08
1.14447e-08
1.15528e-08
1.16444e-08
1.10145e-08
1.10976e-08
1.12021e-08
1.13365e-08
1.1421e-08
1.04594e-08
1.06656e-08
1.08302e-08
1.09961e-08
1.11008e-08
9.7025e-09
1.0102e-08
1.03806e-08
1.06121e-08
1.07857e-08
1.35904e-08
1.36265e-08
1.36839e-08
1.37939e-08
1.39027e-08
1.34032e-08
1.34539e-08
1.35539e-08
1.37131e-08
1.38178e-08
1.29755e-08
1.31165e-08
1.32905e-08
1.3478e-08
1.35753e-08
1.23046e-08
1.26347e-08
1.28974e-08
1.31296e-08
1.32584e-08
1.14485e-08
1.20066e-08
1.24295e-08
1.2772e-08
1.29651e-08
1.60047e-08
1.5961e-08
1.60074e-08
1.61162e-08
1.61961e-08
1.57031e-08
1.57293e-08
1.58436e-08
1.5992e-08
1.60447e-08
1.51094e-08
1.52952e-08
1.54965e-08
1.5664e-08
1.57271e-08
1.43586e-08
1.47395e-08
1.50197e-08
1.52294e-08
1.53172e-08
1.34471e-08
1.40261e-08
1.44481e-08
1.47559e-08
1.4869e-08
1.85827e-08
1.84565e-08
1.84622e-08
1.84989e-08
1.84911e-08
1.81518e-08
1.81492e-08
1.82173e-08
1.82696e-08
1.82432e-08
1.74394e-08
1.76132e-08
1.77525e-08
1.78214e-08
1.78289e-08
1.66387e-08
1.69618e-08
1.71539e-08
1.72629e-08
1.72836e-08
1.5675e-08
1.61492e-08
1.64528e-08
1.66189e-08
1.66379e-08
2.12727e-08
2.11068e-08
2.10244e-08
2.0927e-08
2.08272e-08
2.07831e-08
2.07346e-08
2.06781e-08
2.0586e-08
2.05019e-08
2.00257e-08
2.01013e-08
2.00897e-08
2.00249e-08
1.99817e-08
1.91336e-08
1.93017e-08
1.93316e-08
1.93119e-08
1.92737e-08
1.79851e-08
1.83209e-08
1.84609e-08
1.8466e-08
1.84207e-08
2.43259e-08
2.40763e-08
2.38214e-08
2.35601e-08
2.33979e-08
2.3846e-08
2.36371e-08
2.337e-08
2.31209e-08
2.29977e-08
2.30081e-08
2.28465e-08
2.26049e-08
2.23952e-08
2.22997e-08
2.18532e-08
2.17579e-08
2.15642e-08
2.14012e-08
2.13024e-08
2.02872e-08
2.04147e-08
2.03352e-08
2.01909e-08
2.00906e-08
2.80902e-08
2.75777e-08
2.7047e-08
2.66093e-08
2.63942e-08
2.75584e-08
2.70062e-08
2.64519e-08
2.60356e-08
2.58555e-08
2.64595e-08
2.59027e-08
2.53672e-08
2.4988e-08
2.4813e-08
2.48118e-08
2.43222e-08
2.38333e-08
2.3486e-08
2.32946e-08
2.26486e-08
2.23715e-08
2.1978e-08
2.16551e-08
2.14633e-08
3.26739e-08
3.17227e-08
3.08453e-08
3.02104e-08
2.99129e-08
3.191e-08
3.09007e-08
3.0019e-08
2.94027e-08
2.9116e-08
3.03147e-08
2.92897e-08
2.84208e-08
2.78155e-08
2.75092e-08
2.79857e-08
2.70222e-08
2.61706e-08
2.5563e-08
2.52251e-08
2.5097e-08
2.42689e-08
2.34829e-08
2.28857e-08
2.2535e-08
3.80749e-08
3.66041e-08
3.53321e-08
3.44362e-08
3.39937e-08
3.69063e-08
3.54171e-08
3.4155e-08
3.32569e-08
3.27939e-08
3.46196e-08
3.3106e-08
3.18295e-08
3.09024e-08
3.04016e-08
3.14313e-08
2.99342e-08
2.86284e-08
2.76562e-08
2.71159e-08
2.7584e-08
2.61665e-08
2.48866e-08
2.38754e-08
2.33007e-08
4.45452e-08
4.24471e-08
4.06563e-08
3.93736e-08
3.87055e-08
4.28751e-08
4.07694e-08
3.89703e-08
3.7662e-08
3.69526e-08
3.96821e-08
3.75124e-08
3.56614e-08
3.42949e-08
3.35458e-08
3.53025e-08
3.30908e-08
3.11688e-08
2.97241e-08
2.89469e-08
3.0061e-08
2.79028e-08
2.59249e-08
2.43965e-08
2.35966e-08
5.25176e-08
4.95399e-08
4.70236e-08
4.5207e-08
4.42369e-08
5.01894e-08
4.71807e-08
4.46328e-08
4.27811e-08
4.17664e-08
4.57514e-08
4.26436e-08
4.00137e-08
3.80895e-08
3.70474e-08
3.96838e-08
3.64741e-08
3.37237e-08
3.17117e-08
3.067e-08
3.25056e-08
2.92076e-08
2.6297e-08
2.42364e-08
2.32366e-08
6.23208e-08
5.82421e-08
5.48095e-08
5.23137e-08
5.09659e-08
5.91006e-08
5.49775e-08
5.14877e-08
4.89424e-08
4.75543e-08
5.3017e-08
4.8738e-08
4.51159e-08
4.24836e-08
4.10716e-08
4.46806e-08
4.01758e-08
3.63596e-08
3.36338e-08
3.22186e-08
3.48877e-08
3.00153e-08
2.59693e-08
2.32369e-08
2.18436e-08
7.46508e-08
6.92772e-08
6.46887e-08
6.13116e-08
5.94908e-08
7.031e-08
6.482e-08
6.01179e-08
5.66628e-08
5.48042e-08
6.20247e-08
5.62694e-08
5.13623e-08
4.7791e-08
4.58738e-08
5.05816e-08
4.44588e-08
3.92776e-08
3.55494e-08
3.35497e-08
3.71146e-08
3.04619e-08
2.4972e-08
2.11059e-08
1.89573e-08
9.09121e-08
8.37603e-08
7.76166e-08
7.30842e-08
7.06764e-08
8.5004e-08
7.76416e-08
7.13275e-08
6.66957e-08
6.42339e-08
7.36235e-08
6.59083e-08
5.93223e-08
5.45027e-08
5.19161e-08
5.78848e-08
4.97196e-08
4.27567e-08
3.76412e-08
3.48736e-08
3.93321e-08
3.064e-08
2.32202e-08
1.77259e-08
1.46785e-08
1.12641e-07
1.03072e-07
9.48908e-08
8.88909e-08
8.57366e-08
1.04473e-07
9.4655e-08
8.62658e-08
8.01309e-08
7.68701e-08
8.88882e-08
7.86101e-08
6.98373e-08
6.33806e-08
5.99446e-08
6.74014e-08
5.65119e-08
4.7175e-08
4.02653e-08
3.65932e-08
4.20672e-08
3.04931e-08
2.0498e-08
1.30472e-08
9.08033e-09
1.41757e-07
1.29164e-07
1.18382e-07
1.10491e-07
1.0632e-07
1.30587e-07
1.17656e-07
1.06586e-07
9.84546e-08
9.41204e-08
1.09401e-07
9.57655e-08
8.40782e-08
7.54636e-08
7.09256e-08
8.0176e-08
6.55512e-08
5.30035e-08
4.37753e-08
3.89441e-08
4.56685e-08
2.98799e-08
1.63815e-08
6.45484e-09
1.29028e-09
1.81353e-07
1.64846e-07
1.50664e-07
1.40247e-07
1.347e-07
1.66176e-07
1.49144e-07
1.34486e-07
1.23673e-07
1.17938e-07
1.37327e-07
1.19214e-07
1.03601e-07
9.21306e-08
8.61158e-08
9.74398e-08
7.77962e-08
6.09171e-08
4.85891e-08
4.21423e-08
5.02702e-08
2.8818e-08
1.05158e-08
-2.87095e-09
-9.82516e-09
2.35484e-07
2.13816e-07
1.95165e-07
1.81426e-07
1.74133e-07
2.14838e-07
1.92366e-07
1.72946e-07
1.58647e-07
1.51121e-07
1.75517e-07
1.51418e-07
1.306e-07
1.15361e-07
1.07364e-07
1.21051e-07
9.46942e-08
7.20086e-08
5.54656e-08
4.67474e-08
5.65078e-08
2.75651e-08
2.70085e-09
-1.55405e-08
-2.51373e-08
3.09233e-07
2.81064e-07
2.56676e-07
2.38718e-07
2.2925e-07
2.81278e-07
2.5179e-07
2.26234e-07
2.07476e-07
1.97628e-07
2.27894e-07
1.95864e-07
1.68223e-07
1.47989e-07
1.37325e-07
1.53728e-07
1.18308e-07
8.78123e-08
6.54974e-08
5.36459e-08
6.55296e-08
2.63254e-08
-7.57685e-09
-3.25094e-08
-4.57504e-08
4.09826e-07
3.736e-07
3.42001e-07
3.18728e-07
3.06462e-07
3.72072e-07
3.33685e-07
3.00348e-07
2.75838e-07
2.62919e-07
2.99726e-07
2.57404e-07
2.20837e-07
1.93943e-07
1.79691e-07
1.98974e-07
1.5146e-07
1.1041e-07
8.02042e-08
6.41542e-08
7.87829e-08
2.53391e-08
-2.10658e-08
-5.5157e-08
-7.31794e-08
5.47254e-07
5.01079e-07
4.60574e-07
4.30577e-07
4.14662e-07
4.96135e-07
4.46716e-07
4.03547e-07
3.71579e-07
3.54596e-07
3.98285e-07
3.42832e-07
2.94541e-07
2.58782e-07
2.39767e-07
2.61882e-07
1.98265e-07
1.42918e-07
1.02011e-07
8.02949e-08
9.86819e-08
2.54946e-08
-3.81288e-08
-8.48726e-08
-1.09586e-07
7.34754e-07
6.76835e-07
6.25475e-07
5.87017e-07
5.66404e-07
6.65893e-07
6.02986e-07
5.47364e-07
5.05787e-07
4.83524e-07
5.3415e-07
4.61749e-07
3.98017e-07
3.50532e-07
3.25188e-07
3.5001e-07
2.64753e-07
1.90046e-07
1.34571e-07
1.05005e-07
1.28875e-07
2.85069e-08
-5.88966e-08
-1.23527e-07
-1.58041e-07
9.90676e-07
9.19425e-07
8.55055e-07
8.06189e-07
7.79634e-07
8.98587e-07
8.19275e-07
7.48081e-07
6.943e-07
6.65209e-07
7.218e-07
6.27566e-07
5.43642e-07
4.80629e-07
4.46743e-07
4.73903e-07
3.59681e-07
2.58676e-07
1.83185e-07
1.42748e-07
1.74739e-07
3.71326e-08
-8.35569e-08
-1.73447e-07
-2.2159e-07
1.34007e-06
1.25444e-06
1.1752e-06
1.11403e-06
1.07986e-06
1.2172e-06
1.11877e-06
1.02862e-06
9.59579e-07
9.21416e-07
9.80977e-07
8.59078e-07
7.48782e-07
6.6511e-07
6.19499e-07
6.49161e-07
4.95979e-07
3.58892e-07
2.55777e-07
2.00231e-07
2.4602e-07
5.68038e-08
-1.10919e-07
-2.36326e-07
-3.03374e-07
1.81655e-06
1.7173e-06
1.62243e-06
1.5478e-06
1.50301e-06
1.65328e-06
1.53354e-06
1.42083e-06
1.3333e-06
1.28226e-06
1.33944e-06
1.18221e-06
1.03717e-06
9.261e-07
8.63771e-07
8.98706e-07
6.92294e-07
5.05163e-07
3.63726e-07
2.86708e-07
3.59262e-07
9.74902e-08
-1.3721e-07
-3.13182e-07
-4.07451e-07
2.46584e-06
2.35711e-06
2.24811e-06
2.16285e-06
2.09938e-06
2.25e-06
2.10763e-06
1.96853e-06
1.86143e-06
1.78869e-06
1.83505e-06
1.63162e-06
1.43998e-06
1.29342e-06
1.20509e-06
1.25552e-06
9.74691e-07
7.16897e-07
5.22498e-07
4.14055e-07
5.41306e-07
1.75804e-07
-1.55802e-07
-4.04374e-07
-5.38234e-07
3.34704e-06
3.24203e-06
3.124e-06
3.04846e-06
2.93878e-06
3.06498e-06
2.90235e-06
2.73066e-06
2.61667e-06
2.49433e-06
2.51809e-06
2.25145e-06
1.99392e-06
1.80658e-06
1.6691e-06
1.76802e-06
1.37804e-06
1.01709e-06
7.52437e-07
5.96456e-07
8.36756e-07
3.18583e-07
-1.58965e-07
-5.14303e-07
-7.07252e-07
4.52036e-06
4.47045e-06
4.34351e-06
4.36346e-06
4.11818e-06
4.1708e-06
4.01077e-06
3.77696e-06
3.73144e-06
3.46604e-06
3.45117e-06
3.09143e-06
2.7269e-06
2.51527e-06
2.26098e-06
2.50622e-06
1.94382e-06
1.42564e-06
1.08624e-06
8.56748e-07
1.31313e-06
5.60332e-07
-1.60541e-07
-6.86861e-07
-9.78078e-07
5.95802e-06
6.21381e-06
6.02064e-06
6.40688e-06
5.75519e-06
5.62792e-06
5.6241e-06
5.16082e-06
5.48042e-06
4.77537e-06
4.69908e-06
4.19052e-06
3.60841e-06
3.45667e-06
2.88831e-06
3.56569e-06
2.71222e-06
1.95132e-06
1.62216e-06
1.30193e-06
2.0335e-06
9.20784e-07
-2.93475e-07
-1.14169e-06
-1.62687e-06
7.26984e-06
8.8743e-06
8.20825e-06
9.65426e-06
8.00808e-06
7.38475e-06
8.3416e-06
6.75471e-06
8.43749e-06
6.51557e-06
6.3326e-06
5.51545e-06
4.43435e-06
4.448e-06
3.04451e-06
5.07688e-06
3.71e-06
2.63523e-06
2.75003e-06
2.45685e-06
2.8462e-06
1.4401e-06
-9.58956e-07
-2.23708e-06
-2.67518e-06
8.03961e-06
1.32005e-05
1.11174e-05
1.4963e-05
1.11396e-05
9.86395e-06
1.38038e-05
8.4241e-06
1.44282e-05
8.97998e-06
8.90451e-06
6.68569e-06
4.62333e-06
4.74163e-06
1.48305e-06
7.76703e-06
4.86497e-06
3.48219e-06
5.05513e-06
4.42394e-06
3.28754e-06
2.78751e-06
-1.78626e-06
-3.87106e-06
-4.20786e-06
1.32321e-05
4.0322e-05
4.23631e-05
5.84368e-05
4.85566e-05
2.77518e-05
3.82965e-05
2.65544e-05
4.55246e-05
3.52938e-05
1.968e-05
1.14651e-05
5.25678e-06
6.94835e-06
3.1045e-06
1.36825e-05
5.31471e-06
3.96661e-06
7.9272e-06
4.55262e-06
5.40901e-06
6.55536e-06
3.95889e-06
2.97381e-06
1.01961e-05
-4.29866e-05
-5.67931e-05
-6.56209e-05
-6.80185e-05
-6.86045e-05
-4.77265e-05
-4.01122e-05
-6.60003e-05
-4.64594e-05
-6.38988e-05
-3.16104e-05
-3.74839e-05
-1.5559e-05
-2.89514e-05
-4.22324e-05
2.72913e-06
-2.1401e-05
-2.16759e-05
-1.67054e-05
-3.69125e-05
-1.52746e-05
2.43287e-06
-3.48367e-05
-5.13826e-05
-5.71095e-05
-6.20558e-05
0.000158062
0.000195901
0.000299338
0.000191367
0.000147633
0.000198362
0.000101725
0.000256848
0.000105625
0.000133889
1.39138e-05
-8.5559e-05
-5.73977e-05
-4.70311e-05
2.69152e-05
-2.0813e-05
-3.72904e-05
-4.8382e-05
-4.2606e-05
-2.88298e-05
-8.48408e-05
2.71182e-05
-1.00758e-05
0.000147001
0.0008003
0.00109181
0.00121857
0.00112114
0.00105595
0.000925569
0.000953616
0.000974727
0.000904947
0.000867633
0.000697007
0.000849356
0.000780946
0.000899762
0.000718512
0.00125036
0.000610643
0.000661738
0.000705338
0.000455438
0.000509352
0.000749619
0.00117572
0.000823413
0.000752896
0.00158435
0.00194851
0.0018487
0.00200315
0.00238804
0.00198619
0.00155717
0.0017816
0.00140444
0.00123002
0.00121587
0.00172725
0.00191605
0.00202
0.00312445
0.00181153
0.00178908
0.00168305
0.00193805
0.00112167
0.00207148
0.00189564
0.00206679
0.00148942
0.00158333
0.00302042
0.00325759
0.00296616
0.00301906
0.00302711
0.00310694
0.00284776
0.00291027
0.00300626
0.00323006
0.00349189
0.00263457
0.00265122
0.00294876
0.00314005
0.00227801
0.00271859
0.00263437
0.00283031
0.00316361
0.002655
0.00237573
0.00241636
0.00262901
0.00317713
0.00400103
0.00377667
0.00401094
0.00375588
0.00379439
0.00346557
0.00374682
0.00381158
0.00373958
0.00375211
0.00398799
0.0038199
0.00385517
0.00369065
0.0038863
0.0036216
0.00346934
0.00393408
0.00365192
0.00403489
0.00329286
0.0032056
0.00313216
0.00419001
0.00416432
0.00474463
0.00448297
0.004622
0.0045527
0.00495044
0.00423893
0.00453983
0.00469319
0.0046794
0.00476322
0.00454063
0.00462186
0.00455962
0.00456225
0.00460919
0.00449484
0.00424156
0.00469315
0.0043223
0.00462638
0.0043406
0.00523104
0.0046434
0.00475022
0.00467253
0.00550431
0.00547019
0.00552927
0.00503472
0.00503329
0.00555526
0.00547861
0.00530359
0.0053082
0.00529017
0.00505385
0.00522032
0.00555464
0.00548399
0.00498373
0.00517592
0.00532073
0.00528875
0.00538789
0.00513478
0.00503553
0.00544522
0.00538273
0.00506655
0.00535268
0.00614223
0.00615611
0.0063089
0.00661049
0.00611774
0.00609405
0.00616761
0.00626192
0.00576507
0.0059438
0.00590631
0.00616305
0.00618323
0.00604439
0.00617261
0.00595061
0.0061193
0.006132
0.00599816
0.00609998
0.0061997
0.0059437
0.00612743
0.00586453
0.0060175
0.00713789
0.00676515
0.00686726
0.00710569
0.00689222
0.00663641
0.00680534
0.00688206
0.00700128
0.00685143
0.00684646
0.00691237
0.00674616
0.00733973
0.00679584
0.00693016
0.0073261
0.00692659
0.00668264
0.00659701
0.00704711
0.00681993
0.00679204
0.00711396
0.00642759
0.00821902
0.00750076
0.00777043
0.00755698
0.00718309
0.00785587
0.00782687
0.00739824
0.00765549
0.00746164
0.0078076
0.00773745
0.00779526
0.00784134
0.00792156
0.00782514
0.00781063
0.00783608
0.00771515
0.00703122
0.00796704
0.00766038
0.00788106
0.00811969
0.00782585
0.00850879
0.00837303
0.00834058
0.00841002
0.00879673
0.00866788
0.00861545
0.00859244
0.00839684
0.00857962
0.00865651
0.00859296
0.00873179
0.00850515
0.00884686
0.00863856
0.00843812
0.00869634
0.00868302
0.00884214
0.00847922
0.0087202
0.00861071
0.00857333
0.00866383
0.0088475
0.00901854
0.008767
0.00891184
0.00896946
0.00903781
0.00896658
0.00900788
0.00900971
0.00902812
0.00895333
0.00901058
0.00899183
0.00900898
0.00895397
0.00897901
0.00904627
0.00899059
0.00904231
0.00901878
0.00894714
0.00906694
0.00893498
0.00892654
0.00901695
0.00902172
0.00902029
0.00899363
0.00897376
0.00897103
0.00902006
0.0090191
0.00900062
0.00900392
0.00899645
0.00901257
0.00902314
0.00899965
0.00897455
0.00898491
0.00900446
0.00900703
0.00900438
0.00901319
0.00902116
0.00905275
0.00903239
0.00903502
0.00902689
0.00901764
0.00899297
0.00900542
0.00897611
0.00898564
0.0089873
0.0090107
0.00900611
0.00900107
0.00900327
0.00900032
0.00900583
0.00901018
0.00900068
0.00899359
0.00899544
0.00900885
0.00901243
0.00900636
0.00900984
0.00901211
0.00901493
0.00902125
0.00901191
0.009009
0.00901402
0.00900804
0.00900971
0.00899823
0.00899878
0.00899876
0.00901261
0.00901084
0.00900615
0.00900573
0.00900452
0.00901254
0.00901275
0.00900732
0.00900444
0.00900459
0.00901476
0.00901508
0.00901177
0.00901146
0.0090125
0.00902023
0.00901956
0.00901745
0.00901498
0.00901619
0.00901356
0.00901231
0.00900764
0.00900655
0.00900615
0.00901511
0.00901341
0.0090105
0.00900934
0.00900866
0.00901618
0.00901482
0.00901208
0.00901055
0.00901028
0.0090179
0.00901681
0.00901494
0.00901399
0.00901425
0.00902064
0.0090195
0.00901829
0.00901703
0.00901736
0.00901652
0.00901485
0.00901263
0.00901154
0.00901107
0.00901721
0.0090156
0.00901383
0.0090128
0.00901231
0.00901815
0.0090167
0.00901515
0.00901415
0.00901379
0.00901942
0.0090182
0.00901702
0.00901624
0.00901607
0.009021
0.00901998
0.00901914
0.00901838
0.00901834
0.00901823
0.00901691
0.00901563
0.00901481
0.00901442
0.00901864
0.0090174
0.00901625
0.00901549
0.00901511
0.00901933
0.00901821
0.00901719
0.0090165
0.00901618
0.00902025
0.00901929
0.00901845
0.00901788
0.00901764
0.00902132
0.00902052
0.00901987
0.00901937
0.00901919
0.00901937
0.00901843
0.00901759
0.00901701
0.00901672
0.00901964
0.00901875
0.00901797
0.00901742
0.00901715
0.00902014
0.00901932
0.00901862
0.00901813
0.00901788
0.0090208
0.00902009
0.00901949
0.00901906
0.00901886
0.00902157
0.00902096
0.00902046
0.0090201
0.00901993
0.00902017
0.00901951
0.00901894
0.00901853
0.00901833
0.00902036
0.00901973
0.00901919
0.0090188
0.0090186
0.00902072
0.00902013
0.00901964
0.00901928
0.0090191
0.0090212
0.00902067
0.00902024
0.00901992
0.00901977
0.00902175
0.00902129
0.00902092
0.00902065
0.00902051
0.00902074
0.00902028
0.00901988
0.0090196
0.00901945
0.00902088
0.00902043
0.00902005
0.00901978
0.00901963
0.00902113
0.00902072
0.00902036
0.00902011
0.00901998
0.00902148
0.0090211
0.00902078
0.00902055
0.00902044
0.00902188
0.00902154
0.00902126
0.00902106
0.00902096
0.00902115
0.00902083
0.00902055
0.00902035
0.00902024
0.00902125
0.00902094
0.00902067
0.00902047
0.00902037
0.00902144
0.00902114
0.00902089
0.0090207
0.00902061
0.00902169
0.00902141
0.00902118
0.00902101
0.00902093
0.00902198
0.00902173
0.00902152
0.00902137
0.00902129
0.00902145
0.00902122
0.00902103
0.00902088
0.00902081
0.00902152
0.0090213
0.00902111
0.00902097
0.0090209
0.00902166
0.00902144
0.00902126
0.00902113
0.00902106
0.00902184
0.00902164
0.00902147
0.00902135
0.00902129
0.00902205
0.00902187
0.00902171
0.0090216
0.00902155
0.00902167
0.0090215
0.00902137
0.00902126
0.00902121
0.00902172
0.00902156
0.00902142
0.00902132
0.00902127
0.00902182
0.00902166
0.00902153
0.00902144
0.00902139
0.00902195
0.0090218
0.00902168
0.00902159
0.00902155
0.0090221
0.00902197
0.00902186
0.00902177
0.00902173
0.00902183
0.00902171
0.00902161
0.00902154
0.0090215
0.00902186
0.00902175
0.00902165
0.00902158
0.00902154
0.00902193
0.00902182
0.00902173
0.00902166
0.00902163
0.00902203
0.00902192
0.00902184
0.00902177
0.00902174
0.00902214
0.00902204
0.00902196
0.0090219
0.00902187
0.00902194
0.00902186
0.00902178
0.00902173
0.00902171
0.00902197
0.00902188
0.00902181
0.00902176
0.00902174
0.00902202
0.00902194
0.00902187
0.00902182
0.0090218
0.00902209
0.00902201
0.00902195
0.0090219
0.00902188
0.00902217
0.0090221
0.00902204
0.00902199
0.00902197
0.00902202
0.00902196
0.00902191
0.00902187
0.00902186
0.00902204
0.00902198
0.00902193
0.0090219
0.00902188
0.00902208
0.00902202
0.00902197
0.00902194
0.00902192
0.00902213
0.00902208
0.00902203
0.009022
0.00902198
0.00902219
0.00902214
0.00902209
0.00902206
0.00902205
0.00902208
0.00902204
0.009022
0.00902198
0.00902196
0.0090221
0.00902206
0.00902202
0.00902199
0.00902198
0.00902213
0.00902208
0.00902205
0.00902202
0.00902201
0.00902216
0.00902212
0.00902209
0.00902206
0.00902205
0.00902221
0.00902217
0.00902214
0.00902211
0.0090221
0.00902213
0.0090221
0.00902207
0.00902205
0.00902204
0.00902214
0.00902211
0.00902208
0.00902206
0.00902205
0.00902216
0.00902213
0.0090221
0.00902208
0.00902207
0.00902218
0.00902216
0.00902213
0.00902211
0.0090221
0.00902222
0.00902219
0.00902217
0.00902215
0.00902214
0.00902216
0.00902214
0.00902212
0.0090221
0.0090221
0.00902217
0.00902215
0.00902213
0.00902211
0.00902211
0.00902218
0.00902216
0.00902214
0.00902213
0.00902212
0.0090222
0.00902218
0.00902216
0.00902215
0.00902214
0.00902222
0.0090222
0.00902219
0.00902217
0.00902217
0.00902218
0.00902217
0.00902215
0.00902214
0.00902214
0.00902219
0.00902217
0.00902216
0.00902215
0.00902214
0.0090222
0.00902218
0.00902217
0.00902216
0.00902216
0.00902221
0.0090222
0.00902219
0.00902218
0.00902217
0.00902223
0.00902222
0.0090222
0.00902219
0.00902219
0.0090222
0.00902219
0.00902218
0.00902217
0.00902217
0.00902221
0.00902219
0.00902218
0.00902218
0.00902217
0.00902221
0.0090222
0.00902219
0.00902218
0.00902218
0.00902222
0.00902221
0.0090222
0.0090222
0.00902219
0.00902224
0.00902223
0.00902222
0.00902221
0.00902221
0.00902221
0.00902221
0.0090222
0.00902219
0.00902219
0.00902222
0.00902221
0.0090222
0.0090222
0.00902219
0.00902222
0.00902221
0.00902221
0.0090222
0.0090222
0.00902223
0.00902222
0.00902222
0.00902221
0.00902221
0.00902224
0.00902223
0.00902222
0.00902222
0.00902222
0.00902222
0.00902222
0.00902221
0.00902221
0.00902221
0.00902223
0.00902222
0.00902221
0.00902221
0.00902221
0.00902223
0.00902222
0.00902222
0.00902222
0.00902221
0.00902224
0.00902223
0.00902223
0.00902222
0.00902222
0.00902224
0.00902224
0.00902223
0.00902223
0.00902223
0.00902223
0.00902223
0.00902222
0.00902222
0.00902222
0.00902223
0.00902223
0.00902222
0.00902222
0.00902222
0.00902224
0.00902223
0.00902223
0.00902223
0.00902222
0.00902224
0.00902224
0.00902223
0.00902223
0.00902223
0.00902225
0.00902224
0.00902224
0.00902223
0.00902223
0.00902224
0.00902223
0.00902223
0.00902223
0.00902223
0.00902224
0.00902224
0.00902223
0.00902223
0.00902223
0.00902224
0.00902224
0.00902223
0.00902223
0.00902223
0.00902224
0.00902224
0.00902224
0.00902224
0.00902223
0.00902225
0.00902224
0.00902224
0.00902224
0.00902224
0.00902224
0.00902224
0.00902224
0.00902224
0.00902223
0.00902224
0.00902224
0.00902224
0.00902224
0.00902224
0.00902224
0.00902224
0.00902224
0.00902224
0.00902224
0.00902225
0.00902224
0.00902224
0.00902224
0.00902224
0.00902225
0.00902225
0.00902224
0.00902224
0.00902224
0.00902224
0.00902224
0.00902224
0.00902224
0.00902224
0.00902225
0.00902224
0.00902224
0.00902224
0.00902224
0.00902225
0.00902224
0.00902224
0.00902224
0.00902224
0.00902225
0.00902225
0.00902224
0.00902224
0.00902224
0.00902225
0.00902225
0.00902225
0.00902225
0.00902224
0.00902225
0.00902225
0.00902224
0.00902224
0.00902224
0.00902225
0.00902225
0.00902224
0.00902224
0.00902224
0.00902225
0.00902225
0.00902225
0.00902224
0.00902224
0.00902225
0.00902225
0.00902225
0.00902225
0.00902225
0.00902225
0.00902225
0.00902225
0.00902225
0.00902225
0.00902225
0.00902225
0.00902225
0.00902225
0.00902225
0.00902225
0.00902225
0.00902225
0.00902225
0.00902225
0.00902225
0.00902225
0.00902225
0.00902225
0.00902225
0.00902225
0.00902225
0.00902225
0.00902225
0.00902225
0.00902225
0.00902225
0.00902225
0.00902225
0.00902225
0.00902225
0.00902225
0.00902225
0.00902225
0.00902225
0.00902225
0.00902225
0.00902225
0.00902225
0.00902225
0.00902225
0.00902225
0.00902225
0.00902225
0.00902225
0.00902225
0.00902225
0.00902225
0.00902225
0.00902225
0.00902225
0.00902225
0.00902225
0.00902225
0.00902225
0.00902225
0.00902225
0.00902225
0.00902225
0.00902225
0.00902225
0.00902225
0.00902225
0.00902225
0.00902225
0.00902225
0.00902225
0.00902225
0.00902225
0.00902225
0.00902225
0.00902225
0.00902225
0.00902225
0.00902225
0.00902225
0.00902225
0.00902225
0.00902225
0.00902225
0.00902225
0.00902225
0.00902225
0.00902225
0.00902225
0.00902225
0.00902225
0.00902225
0.00902225
0.00902225
0.00902225
0.00902225
0.00902225
0.00902225
0.00902225
0.00902225
0.00902225
0.00902225
0.00902225
0.00902225
0.00902225
0.00902225
0.00902225
0.00902225
0.00902225
0.00902225
0.00902225
0.00902225
0.00902225
0.00902225
0.00902225
0.00902225
0.00902225
0.00902225
0.00902225
0.00902225
0.00902225
0.00902225
0.00902225
0.00902225
0.00902225
0.00902225
0.00902225
0.00902225
0.00902225
0.00902225
0.00902225
0.00902225
0.00902225
0.00902225
0.00902225
0.00902225
0.00902225
0.00902225
0.00902225
0.00902225
0.00902225
0.00902225
0.00902225
0.00902225
0.00902225
0.00902225
0.00902225
0.00902225
0.00902225
0.00902225
0.00902225
0.00902225
0.00902225
0.00902225
0.00902225
0.00902225
0.00902225
0.00902225
0.00902225
0.00902225
0.00902225
0.00902225
0.00902225
0.00902225
0.00902225
0.00902225
0.00902225
0.00902225
0.00902225
0.00902225
0.00902225
0.00902225
0.00902225
0.00902225
0.00902225
0.00902225
0.00902225
0.00902225
0.00902225
0.00902225
0.00902225
0.00902225
0.00902225
0.00902225
0.00902225
0.00902225
0.00902225
0.00902225
0.00902225
0.00902225
0.00902225
0.00902225
0.00902225
0.00902225
0.00902225
0.00902225
0.00902225
0.00902225
0.00902225
0.00902225
0.00902225
0.00902225
0.00902225
0.00902225
0.00902225
0.00902225
0.00902225
0.00902225
0.00902225
0.00902225
0.00902225
0.00902225
0.00902225
0.00902225
0.00902225
0.00902225
0.00902225
0.00902225
0.00902225
0.00902225
0.00902225
0.00902225
0.00902225
0.00902225
0.00902225
0.00902225
0.00902225
0.00902225
0.00902225
0.00902225
0.00902225
0.00902225
0.00902225
0.00902225
0.00902225
0.00902225
0.00902225
0.00902225
0.00902225
0.00902225
0.00902225
0.00902225
0.00902225
0.00902225
0.00902225
0.00902225
0.00902225
0.00902225
0.00902225
0.00902225
0.00902225
0.00902225
0.00902225
0.00902225
0.00902225
0.00902225
0.00902225
0.00902225
0.00902225
0.00902225
0.00902225
0.00902225
0.00902225
0.00902225
0.00902225
0.00902225
0.00902225
0.00902225
0.00902225
0.00902225
0.00902225
0.00902225
0.00902225
0.00902225
0.00902225
0.00902225
0.00902225
0.00902225
0.00902225
0.00902225
0.00902225
0.00902225
0.00902225
0.00902225
)
;

boundaryField
{
    inlet
    {
        type            zeroGradient;
    }
    outlet
    {
        type            fixedValue;
        value           uniform 0;
    }
    repeat_boundary
    {
        type            zeroGradient;
    }
    procBoundary1to0
    {
        type            processor;
        value           nonuniform List<scalar> 
450
(
5.30616e-10
5.26749e-10
5.23701e-10
5.3276e-10
6.05744e-10
1.59796e-09
1.58535e-09
1.57759e-09
1.6167e-09
1.75945e-09
2.72226e-09
2.70257e-09
2.68713e-09
2.75705e-09
2.94796e-09
3.98797e-09
3.94778e-09
3.90141e-09
3.95069e-09
4.16634e-09
5.46108e-09
5.41263e-09
5.33748e-09
5.29145e-09
5.35206e-09
7.18943e-09
7.16449e-09
7.07123e-09
6.86627e-09
6.60309e-09
9.16149e-09
9.14432e-09
8.99778e-09
8.62273e-09
8.07365e-09
1.12932e-08
1.12251e-08
1.09601e-08
1.04535e-08
9.82604e-09
1.35778e-08
1.34107e-08
1.29687e-08
1.23564e-08
1.17542e-08
1.6083e-08
1.57686e-08
1.51297e-08
1.4411e-08
1.37957e-08
1.87526e-08
1.82766e-08
1.75109e-08
1.67022e-08
1.59972e-08
2.15549e-08
2.10012e-08
2.02039e-08
1.92796e-08
1.83557e-08
2.47675e-08
2.42227e-08
2.33603e-08
2.21734e-08
2.08378e-08
2.87667e-08
2.81881e-08
2.70769e-08
2.54183e-08
2.35167e-08
3.36906e-08
3.29126e-08
3.13183e-08
2.90113e-08
2.64199e-08
3.95611e-08
3.84119e-08
3.61297e-08
3.29794e-08
2.94292e-08
4.66528e-08
4.50232e-08
4.18264e-08
3.74786e-08
3.24705e-08
5.54415e-08
5.31663e-08
4.8742e-08
4.27304e-08
3.57201e-08
6.63303e-08
6.31831e-08
5.71876e-08
4.89941e-08
3.93643e-08
8.01047e-08
7.58736e-08
6.78021e-08
5.66334e-08
4.33908e-08
9.82676e-08
9.25166e-08
8.15051e-08
6.62361e-08
4.81249e-08
1.22491e-07
1.14543e-07
9.94715e-08
7.87122e-08
5.42018e-08
1.54863e-07
1.44043e-07
1.23528e-07
9.53116e-08
6.19763e-08
1.98617e-07
1.84042e-07
1.56224e-07
1.17786e-07
7.22273e-08
2.57945e-07
2.38267e-07
2.00691e-07
1.48508e-07
8.65591e-08
3.38202e-07
3.11716e-07
2.61092e-07
1.90528e-07
1.06615e-07
4.46905e-07
4.11406e-07
3.43184e-07
2.47981e-07
1.34504e-07
5.94042e-07
5.46426e-07
4.54828e-07
3.26995e-07
1.7397e-07
7.92533e-07
7.29048e-07
6.07113e-07
4.36436e-07
2.30795e-07
1.06014e-06
9.7629e-07
8.15022e-07
5.88295e-07
3.13176e-07
1.42055e-06
1.31055e-06
1.09879e-06
7.99795e-07
4.33942e-07
1.90475e-06
1.76184e-06
1.48659e-06
1.09659e-06
6.14361e-07
2.55568e-06
2.37131e-06
2.01681e-06
1.51627e-06
8.88452e-07
3.43747e-06
3.19865e-06
2.74278e-06
2.11698e-06
1.31215e-06
4.6686e-06
4.34552e-06
3.74007e-06
3.00203e-06
1.9828e-06
6.55314e-06
6.03857e-06
5.1077e-06
4.41385e-06
3.09849e-06
9.92314e-06
8.84654e-06
6.85765e-06
7.10107e-06
5.21357e-06
1.63559e-05
1.38347e-05
8.4569e-06
1.27646e-05
9.66319e-06
3.78937e-05
2.61961e-05
1.28982e-05
2.81157e-05
2.08487e-05
-3.02413e-05
-1.7189e-05
-3.29689e-05
-1.94095e-05
1.66203e-05
0.000214956
2.89987e-05
2.58381e-05
0.00016603
6.81778e-05
0.000819912
0.00088741
0.00102178
0.000713043
0.000766921
0.00131701
0.00154988
0.00174989
0.00117399
0.00180149
0.00260632
0.00233999
0.00229972
0.00254297
0.00227728
0.00428898
0.00416957
0.00364247
0.00348572
0.00316826
0.00485561
0.00498125
0.00468905
0.00449722
0.00496171
0.00522389
0.00537698
0.00510651
0.00562849
0.00568441
0.00605276
0.00607414
0.00601584
0.00624612
0.00617387
0.00687557
0.00698329
0.00719644
0.00684031
0.0072766
0.00752288
0.00763363
0.00768972
0.00796151
0.00827791
0.00847728
0.00860209
0.00843669
0.00862459
0.00862247
0.00909121
0.0090443
0.00905196
0.00898644
0.00896061
0.00902964
0.00901124
0.0090285
0.00904829
0.00904055
0.0090226
0.00901628
0.00902668