/*--------------------------------*- C++ -*----------------------------------*\
| =========                 |                                                 |
| \\      /  F ield         | OpenFOAM: The Open Source CFD Toolbox           |
|  \\    /   O peration     | Version:  5.x                                   |
|   \\  /    A nd           | Web:      www.OpenFOAM.org                      |
|    \\/     M anipulation  |                                                 |
\*---------------------------------------------------------------------------*/
FoamFile
{
    version     2.0;
    format      ascii;
    class       surfaceScalarField;
    location    "30000";
    object      phi;
}
// * * * * * * * * * * * * * * * * * * * * * * * * * * * * * * * * * * * * * //

dimensions      [0 3 -1 0 0 0 0];

internalField   nonuniform List<scalar> 
5825
(
1.97616e-05
0.000169438
-999.999
8.63231e-05
0.000160349
-999.999
0.000123231
0.000115712
-999.999
0.000118821
5.26863e-05
-999.998
-1.57687e-05
-999.998
-3.71213e-07
0.000129724
-999.998
4.42841e-05
0.000113884
-999.998
5.80264e-05
7.4008e-05
-999.998
4.31436e-05
2.09467e-05
-999.998
-4.55675e-05
-999.998
-1.70117e-05
8.65595e-05
-999.998
7.79378e-06
7.36041e-05
-999.998
7.78181e-06
4.63367e-05
-999.998
-2.20845e-05
1.13615e-05
-999.998
-2.88232e-05
-999.998
-2.93149e-05
4.50446e-05
-999.998
-1.79192e-05
3.95709e-05
-999.998
-2.80413e-05
2.77917e-05
-999.998
-6.5811e-05
1.08654e-05
-999.998
-7.67201e-06
-999.998
-3.44589e-05
-999.998
-2.95747e-05
-999.998
-4.26806e-05
-999.998
-8.31294e-05
-999.998
-999.998
5.31276e-05
0.000503851
-999.998
0.000210166
0.000465308
-999.998
0.00027497
0.000348125
-999.999
0.000243533
0.000192702
-999.999
1.87001e-05
-999.999
3.11026e-07
0.000379673
-999.998
9.39126e-05
0.000333913
-999.998
0.000112292
0.000237304
-999.998
5.84988e-05
0.000111339
-999.998
-3.03195e-05
-999.998
-4.1681e-05
0.000254687
-999.998
1.66688e-06
0.000222776
-999.998
-6.74026e-06
0.000156999
-999.998
-8.07058e-05
7.86848e-05
-999.998
-6.52979e-06
-999.998
-7.63937e-05
0.000136317
-999.998
-5.54742e-05
0.000128466
-999.998
-8.95961e-05
0.000101699
-999.998
-0.00017154
6.72243e-05
-999.998
3.12087e-05
-999.998
-8.62752e-05
-999.997
-8.06988e-05
-999.998
-0.000122202
-999.998
-0.000205142
-999.998
-999.998
4.50328e-05
0.000868766
-999.998
0.000174071
0.000805489
-999.998
0.000184755
0.000669098
-999.998
0.000125171
0.000497865
-999.999
0.000328555
-999.999
-1.60997e-05
0.000664051
-999.998
3.66818e-05
0.000610107
-999.998
3.03755e-05
0.000495153
-999.998
-6.40821e-05
0.000367028
-999.998
0.000231812
-999.998
-8.07015e-05
0.000458602
-999.997
-5.35946e-05
0.000421631
-999.997
-9.73224e-05
0.000352757
-999.997
-0.000189535
0.000274583
-999.998
0.000196326
-999.998
-0.000120924
0.000257149
-999.997
-0.000119086
0.000250937
-999.997
-0.000181397
0.000226863
-999.997
-0.000273987
0.000196285
-999.997
0.000168771
-999.997
-0.000112106
-999.997
-0.000142099
-999.997
-0.0002109
-999.997
-0.000295589
-999.997
-999.997
-2.64489e-05
0.00127515
-999.997
-6.13909e-05
0.00122704
-999.998
-0.00013152
0.00112445
-999.998
-0.00021664
0.00102515
-999.998
0.000947813
-999.999
-8.88021e-05
0.00101655
-999.997
-0.000121166
0.000970726
-999.997
-0.000200849
0.000898839
-999.997
-0.000314988
0.000826039
-999.998
0.000785955
-999.998
-0.000130825
0.000723143
-999.996
-0.000185054
0.000697663
-999.997
-0.000274476
0.000659675
-999.997
-0.00036885
0.000620423
-999.997
0.000594014
-999.997
-0.00015277
0.00040578
-999.996
-0.000220752
0.000413763
-999.996
-0.000316598
0.00040263
-999.996
-0.000400093
0.000389624
-999.997
0.000386614
-999.997
-0.000142549
-999.996
-0.000230691
-999.996
-0.000328296
-999.996
-0.000402556
-999.996
-999.997
-0.000170377
0.00177552
-999.997
-0.000397511
0.00175831
-999.997
-0.000600932
0.00175277
-999.998
-0.000694684
0.00176631
-999.998
0.0018547
-999.999
-0.000191539
0.00148079
-999.996
-0.000386005
0.00146628
-999.997
-0.000545088
0.00146255
-999.997
-0.000671958
0.00147062
-999.997
0.00155545
-999.998
-0.000209184
0.00107539
-999.996
-0.000388338
0.0010757
-999.996
-0.000536538
0.00108274
-999.996
-0.000638172
0.00109901
-999.996
0.00114775
-999.997
-0.000211829
0.000595878
-999.995
-0.000380873
0.00061408
-999.995
-0.000522511
0.000621396
-999.996
-0.000603823
0.000630302
-999.996
0.000648341
-999.996
-0.000191703
-999.995
-0.000372282
-999.995
-0.000511447
-999.995
-0.00058723
-999.996
-999.996
-0.000352239
0.00247083
-999.997
-0.000785015
0.00250021
-999.997
-0.00110961
0.00258422
-999.997
-0.00132104
0.00271432
-999.998
0.00291305
-999.998
-0.000341087
0.00212939
-999.996
-0.000713399
0.0021502
-999.996
-0.000967632
0.00220144
-999.996
-0.00113142
0.00227293
-999.997
0.002434
-999.997
-0.000321839
0.00156121
-999.995
-0.000653793
0.0015844
-999.995
-0.000885452
0.00162867
-999.995
-0.00102535
0.00168691
-999.996
0.0017711
-999.996
-0.000300702
0.000844424
-999.994
-0.00061163
0.000862639
-999.994
-0.000829181
0.000885613
-999.995
-0.000937235
0.000908975
-999.995
0.000931643
-999.996
-0.000280585
-999.994
-0.000590629
-999.994
-0.000804486
-999.994
-0.000908541
-999.995
-999.995
-0.000553207
0.00348417
-999.997
-0.00114429
0.00354584
-999.997
-0.00156794
0.00367483
-999.997
-0.00194383
0.00385611
-999.998
0.00412103
-999.998
-0.000515851
0.00304508
-999.995
-0.00106292
0.00308942
-999.995
-0.00143952
0.00315853
-999.996
-0.00168258
0.00324301
-999.996
0.00339839
-999.997
-0.000471889
0.00223137
-999.994
-0.00097808
0.00226674
-999.994
-0.00132985
0.00232121
-999.994
-0.00154529
0.00238515
-999.995
0.00246502
-999.996
-0.000442166
0.00118237
-999.993
-0.000928716
0.00119463
-999.993
-0.00126987
0.00121641
-999.993
-0.00146283
0.00123861
-999.994
0.00125303
-999.995
-0.000431623
-999.992
-0.000905374
-999.993
-0.00124458
-999.993
-0.00143948
-999.994
-999.994
-0.000762845
0.00497384
-999.996
-0.00148335
0.00504012
-999.996
-0.00204025
0.0051091
-999.996
-0.00255588
0.00524925
-999.997
0.00548307
-999.998
-0.000712636
0.00430751
-999.994
-0.00142363
0.00435485
-999.994
-0.00195881
0.00440086
-999.994
-0.00234979
0.00446989
-999.995
0.00455116
-999.996
-0.000673622
0.00314343
-999.992
-0.00137212
0.00317458
-999.992
-0.00188922
0.00320715
-999.993
-0.00223626
0.00324665
-999.994
0.00328658
-999.994
-0.000649905
0.00164215
-999.991
-0.00134036
0.00164086
-999.991
-0.00185563
0.00165289
-999.992
-0.00219249
0.00166645
-999.992
0.00166871
-999.993
-0.000653304
-999.99
-0.00132568
-999.991
-0.00183823
-999.991
-0.00217132
-999.992
-999.993
-0.00099001
0.00701195
-999.995
-0.00186036
0.00706158
-999.995
-0.00261276
0.0070644
-999.995
-0.00316755
0.00708142
-999.996
0.00714424
-999.997
-0.000954358
0.00599337
-999.992
-0.00185311
0.00602322
-999.992
-0.00257207
0.00602029
-999.993
-0.00310237
0.00601869
-999.994
0.00605494
-999.995
-0.000938045
0.0043524
-999.99
-0.00185781
0.00436734
-999.99
-0.00257715
0.00436606
-999.991
-0.00307869
0.00436257
-999.992
0.00436899
-999.993
-0.000932909
0.00226092
-999.988
-0.00185863
0.0022487
-999.988
-0.00258125
0.00224712
-999.989
-0.00307164
0.00225054
-999.99
0.00226302
-999.991
-0.000949106
-999.987
-0.00185549
-999.988
-0.00257274
-999.988
-0.00304939
-999.989
-999.99
-0.00127614
0.00967059
-999.993
-0.0023926
0.00969022
-999.993
-0.00337433
0.00963382
-999.994
-0.00402831
0.00956984
-999.995
0.00950695
-999.996
-0.00127485
0.00819668
-999.989
-0.00243719
0.00820096
-999.99
-0.00338525
0.00815403
-999.99
-0.00406919
0.00809486
-999.992
0.00810533
-999.993
-0.00128939
0.00593386
-999.986
-0.00248812
0.00593128
-999.987
-0.00344785
0.00590298
-999.988
-0.00410589
0.00586858
-999.989
0.00586242
-999.99
-0.00130528
0.00308436
-999.984
-0.00251548
0.00306876
-999.985
-0.00347927
0.00305901
-999.985
-0.00411926
0.00305518
-999.987
0.00306886
-999.988
-0.00132521
-999.983
-0.00251929
-999.983
-0.00347596
-999.984
-0.00409739
-999.986
-999.987
-0.00169405
0.0131022
-999.99
-0.00321462
0.0130979
-999.991
-0.0045082
0.0130269
-999.992
-0.00540037
0.0129662
-999.993
0.0129358
-999.995
-0.001727
0.0110871
-999.985
-0.00327994
0.0110731
-999.986
-0.00453622
0.0110089
-999.987
-0.00541257
0.0109325
-999.989
0.0109467
-999.991
-0.00176559
0.00802048
-999.981
-0.00334683
0.00800976
-999.982
-0.00461325
0.007973
-999.983
-0.00545574
0.00792872
-999.985
0.00791869
-999.987
-0.00179459
0.0041848
-999.978
-0.00338316
0.00417667
-999.979
-0.00465424
0.00416536
-999.98
-0.00547744
0.00415416
-999.982
0.00415593
-999.984
-0.00180828
-999.977
-0.00338741
-999.978
-0.00465531
-999.979
-0.00546773
-999.98
-999.982
-0.00232166
0.0176429
-999.986
-0.00443501
0.0176362
-999.987
-0.00615631
0.0175873
-999.989
-0.00736924
0.0175632
-999.991
0.0175924
-999.994
-0.00237003
0.0149624
-999.98
-0.00448624
0.0149467
-999.981
-0.00617287
0.0148889
-999.983
-0.00733578
0.0148236
-999.985
0.0148235
-999.988
-0.00241944
0.0108355
-999.975
-0.0045451
0.0108307
-999.976
-0.00623839
0.0108
-999.977
-0.00735233
0.010758
-999.98
0.0107332
-999.982
-0.00244938
0.00567948
-999.971
-0.0045759
0.00568699
-999.972
-0.00627858
0.00567696
-999.973
-0.00738178
0.00565718
-999.976
0.00563566
-999.978
-0.00245034
-999.969
-0.00457615
-999.97
-0.00628404
-999.971
-0.00738912
-999.974
-999.976
-0.00322452
0.0238449
-999.982
-0.0061538
0.023856
-999.983
-0.00848847
0.0238364
-999.986
-0.010094
0.0238488
-999.989
0.0238928
-999.993
-0.00326986
0.0202707
-999.973
-0.006177
0.0202711
-999.975
-0.00847774
0.0202288
-999.977
-0.0100514
0.0201789
-999.98
0.0201753
-999.984
-0.00331708
0.0147068
-999.966
-0.00622057
0.01472
-999.967
-0.00852779
0.0146994
-999.969
-0.0100544
0.0146606
-999.973
0.0146228
-999.976
-0.0033386
0.00773746
-999.96
-0.00624134
0.00776253
-999.962
-0.00856525
0.00775369
-999.964
-0.0100903
0.00772602
-999.967
0.00768671
-999.971
-0.00332481
-999.958
-0.00623632
-999.959
-0.00857277
-999.961
-0.0101065
-999.964
-999.968
-0.00447234
0.032442
-999.976
-0.00850611
0.032483
-999.978
-0.01171
0.0324794
-999.981
-0.0138786
0.0325091
-999.985
0.0325651
-999.991
-0.00450653
0.0276124
-999.964
-0.00851003
0.0276431
-999.966
-0.0116762
0.0276135
-999.969
-0.0138327
0.0275709
-999.973
0.0275757
-999.978
-0.00454125
0.0200669
-999.954
-0.00854203
0.0201037
-999.955
-0.0117191
0.0200877
-999.958
-0.0138336
0.0200449
-999.963
0.0200018
-999.968
-0.00455106
0.0105788
-999.946
-0.00855805
0.010617
-999.948
-0.0117599
0.0106057
-999.951
-0.0138755
0.0105697
-999.955
0.0105238
-999.961
-0.00452705
-999.942
-0.00854982
-999.944
-0.0117679
-999.947
-0.0138892
-999.952
-999.957
-0.00615762
0.0443396
-999.968
-0.0116764
0.0444179
-999.97
-0.0160565
0.0444061
-999.974
-0.0189895
0.0444108
-999.98
0.0444468
-999.987
-0.00618185
0.0377512
-999.951
-0.0116877
0.0378185
-999.953
-0.0160427
0.0377853
-999.958
-0.0189713
0.0377237
-999.964
0.0377054
-999.971
-0.00620242
0.0274605
-999.937
-0.0117232
0.0275179
-999.939
-0.0161035
0.0274912
-999.944
-0.019004
0.0274262
-999.95
0.0273654
-999.957
-0.00620748
0.0144808
-999.927
-0.0117501
0.0145223
-999.929
-0.0161659
0.0145001
-999.933
-0.0190682
0.0144511
-999.939
0.014401
-999.947
-0.00618428
-999.921
-0.0117455
-999.924
-0.0161763
-999.928
-0.0190755
-999.934
-999.941
-0.00841186
0.0606785
-999.956
-0.0159269
0.0607935
-999.959
-0.0218766
0.0607367
-999.965
-0.0257953
0.0606509
-999.973
0.0605603
-999.982
-0.00843821
0.051665
-999.933
-0.0159876
0.0517613
-999.937
-0.0219581
0.0516931
-999.942
-0.0258927
0.0515697
-999.951
0.0514614
-999.96
-0.00846022
0.0375873
-999.914
-0.0160577
0.0376553
-999.917
-0.0220796
0.0375951
-999.923
-0.0260121
0.0374854
-999.932
0.0373766
-999.941
-0.00847751
0.0198055
-999.9
-0.016119
0.0198397
-999.903
-0.0221869
0.0197972
-999.909
-0.0261243
0.019732
-999.918
0.0196705
-999.927
-0.0084684
-999.893
-0.0161252
-999.896
-0.0221999
-999.902
-0.0261274
-999.91
-999.92
-0.0114392
0.0829772
-999.94
-0.0216714
0.0831162
-999.945
-0.029774
0.082974
-999.953
-0.0350435
0.0827553
-999.964
0.0825034
-999.976
-0.011493
0.0706545
-999.91
-0.0218231
0.0707635
-999.914
-0.0299989
0.0706254
-999.922
-0.0353006
0.0704094
-999.933
0.0701816
-999.946
-0.0115454
0.051391
-999.883
-0.0219638
0.0514591
-999.888
-0.0302136
0.0513461
-999.896
-0.0355295
0.0511799
-999.907
0.051004
-999.92
-0.0115947
0.0270514
-999.864
-0.022079
0.0270748
-999.868
-0.0303784
0.0270096
-999.877
-0.0357038
0.0269269
-999.888
0.0268435
-999.901
-0.0116067
-999.854
-0.0220954
-999.858
-0.0303909
-999.867
-0.0357051
-999.878
-999.891
-0.0155496
0.113336
-999.919
-0.0295129
0.113483
-999.925
-0.040596
0.113225
-999.936
-0.0477799
0.112869
-999.951
0.112496
-999.968
-0.0156632
0.0965149
-999.877
-0.0297827
0.0966244
-999.883
-0.0409634
0.0963905
-999.894
-0.0481587
0.0960654
-999.909
0.0957171
-999.927
-0.0157747
0.0701871
-999.841
-0.0300213
0.0702527
-999.847
-0.0412893
0.0700773
-999.858
-0.0485002
0.0698447
-999.874
0.0695884
-999.892
-0.0158701
0.0369218
-999.815
-0.0302001
0.0369431
-999.821
-0.0415214
0.0368546
-999.832
-0.0487503
0.0367433
-999.848
0.0366212
-999.866
-0.0158976
-999.802
-0.0302215
-999.807
-0.0415375
-999.819
-0.0487593
-999.834
-999.852
-0.0211734
0.154686
-999.89
-0.0402451
0.154837
-999.898
-0.0553857
0.154437
-999.913
-0.0651578
0.153919
-999.933
0.153379
-999.957
-0.0213773
0.131756
-999.833
-0.0406575
0.131866
-999.841
-0.0559123
0.131511
-999.856
-0.0657022
0.131035
-999.876
0.130523
-999.901
-0.0215698
0.0958205
-999.784
-0.04102
0.0958912
-999.792
-0.0563898
0.095638
-999.807
-0.066209
0.095302
-999.828
0.0949234
-999.853
-0.0217187
0.050404
-999.748
-0.0412774
0.0504354
-999.756
-0.056725
0.0503095
-999.772
-0.0665811
0.0501403
-999.793
0.0499449
-999.818
-0.0217527
-999.729
-0.0413111
-999.737
-0.056765
-999.753
-0.0666241
-999.774
-999.799
-0.0288798
0.211093
-999.851
-0.0549102
0.211256
-999.861
-0.0755363
0.210669
-999.882
-0.0887955
0.209907
-999.909
0.209069
-999.942
-0.029203
0.179877
-999.772
-0.0555131
0.179991
-999.783
-0.0763071
0.179464
-999.804
-0.0896363
0.178751
-999.832
0.177967
-999.865
-0.0295
0.130862
-999.705
-0.0560501
0.130944
-999.716
-0.0770239
0.130566
-999.737
-0.0904183
0.130048
-999.766
0.129455
-999.8
-0.0297167
0.0688628
-999.657
-0.0564332
0.0689049
-999.668
-0.0775411
0.0687071
-999.689
-0.091006
0.0684308
-999.718
0.0681035
-999.752
-0.0297639
-999.631
-0.056506
-999.642
-0.077643
-999.663
-0.0911285
-999.692
-999.727
-0.0394199
0.288169
-999.797
-0.0749172
0.288343
-999.812
-0.102994
0.287468
-999.839
-0.120989
0.286305
-999.877
0.284993
-999.922
-0.039908
0.245712
-999.69
-0.0758134
0.245827
-999.705
-0.104168
0.245024
-999.733
-0.122305
0.243924
-999.772
0.242686
-999.817
-0.0403559
0.178861
-999.598
-0.0766305
0.178942
-999.613
-0.105276
0.178346
-999.642
-0.123542
0.177516
-999.681
0.176556
-999.727
-0.0406841
0.0941716
-999.531
-0.0772343
0.0942069
-999.546
-0.106107
0.0938812
-999.575
-0.124498
0.0934221
-999.615
0.0928837
-999.662
-0.0407721
-999.496
-0.0773915
-999.511
-0.106331
-999.54
-0.124759
-999.581
-999.628
-0.0538085
0.393624
-999.724
-0.102208
0.393778
-999.744
-0.140421
0.392426
-999.782
-0.164778
0.3906
-999.834
0.388493
-999.895
-0.0545558
0.335924
-999.578
-0.103586
0.335999
-999.598
-0.14226
0.33474
-999.637
-0.166895
0.333005
-999.69
0.331017
-999.751
-0.0552509
0.244719
-999.452
-0.104869
0.244752
-999.472
-0.144008
0.243785
-999.512
-0.168889
0.242438
-999.566
0.240878
-999.629
-0.0557776
0.128919
-999.36
-0.105849
0.128915
-999.381
-0.14536
0.128375
-999.421
-0.17045
0.127625
-999.476
0.126757
-999.54
-0.0559512
-999.311
-0.106161
-999.332
-0.145792
-999.373
-0.170943
-999.428
-999.493
-0.0734588
0.538041
-999.626
-0.139467
0.538098
-999.653
-0.19146
0.535976
-999.705
-0.224378
0.53308
-999.776
0.529686
-999.858
-0.0746329
0.459723
-999.425
-0.141626
0.459669
-999.453
-0.19437
0.457657
-999.506
-0.227792
0.454887
-999.578
0.451677
-999.663
-0.0757431
0.335247
-999.252
-0.143677
0.335149
-999.28
-0.197165
0.333567
-999.334
-0.231022
0.331383
-999.409
0.328845
-999.495
-0.0766096
0.17673
-999.125
-0.145283
0.176641
-999.154
-0.199363
0.175756
-999.209
-0.233571
0.174539
-999.285
0.173127
-999.373
-0.0769324
-999.058
-0.145861
-999.087
-0.20015
-999.143
-0.234476
-999.219
-999.309
-0.100329
0.736015
-999.493
-0.190346
0.735836
-999.53
-0.261023
0.732476
-999.601
-0.3055
0.727865
-999.697
0.722449
-999.809
-0.102192
0.629942
-999.217
-0.193762
0.629589
-999.255
-0.265661
0.626327
-999.328
-0.310954
0.621851
-999.427
0.61663
-999.542
-0.103993
0.460029
-998.978
-0.197087
0.45965
-999.017
-0.270184
0.457044
-999.092
-0.316222
0.453472
-999.194
0.449304
-999.313
-0.105428
0.242745
-998.802
-0.199735
0.242495
-998.842
-0.273786
0.241031
-998.919
-0.320419
0.239023
-999.024
0.236693
-999.146
-0.106004
-998.709
-0.200787
-998.75
-0.275214
-998.827
-0.322067
-998.933
-999.057
-0.137081
1.00777
-999.314
-0.259784
1.0071
-999.365
-0.355719
1.00172
-999.461
-0.415688
0.994315
-999.592
0.985637
-999.744
-0.140055
0.864601
-998.933
-0.265257
0.863624
-998.986
-0.363181
0.85825
-999.086
-0.424441
0.850904
-999.222
0.842331
-999.38
-0.143023
0.632672
-998.603
-0.270735
0.631726
-998.658
-0.370616
0.627365
-998.761
-0.433115
0.621419
-998.902
0.614502
-999.066
-0.145426
0.334319
-998.358
-0.275171
0.333734
-998.415
-0.376626
0.331256
-998.522
-0.440102
0.32789
-998.667
0.323999
-998.835
-0.146466
-998.228
-0.277095
-998.285
-0.379214
-998.394
-0.443082
-998.542
-998.713
-0.187347
1.38145
-999.073
-0.354554
1.37979
-999.143
-0.48458
1.37104
-999.275
-0.565179
1.35907
-999.453
1.34512
-999.659
-0.192169
1.18921
-998.549
-0.363446
1.18698
-998.622
-0.496663
1.17799
-998.76
-0.579274
1.16577
-998.946
1.15161
-999.161
-0.19715
0.872724
-998.089
-0.372618
0.870628
-998.166
-0.509049
0.863194
-998.31
-0.593639
0.853152
-998.505
0.841568
-998.73
-0.201263
0.462086
-997.746
-0.380187
0.460805
-997.826
-0.519225
0.456552
-997.976
-0.605378
0.450835
-998.178
0.444272
-998.411
-0.20318
-997.563
-0.3837
-997.644
-0.523911
-997.797
-0.610739
-998.004
-998.242
-0.25617
1.89635
-998.753
-0.483948
1.89271
-998.85
-0.659782
1.87829
-999.03
-0.767521
1.85878
-999.272
1.83622
-999.549
-0.264147
1.64035
-998.029
-0.4986
1.63561
-998.131
-0.67951
1.62032
-998.321
-0.790362
1.59976
-998.576
1.5762
-998.868
-0.272679
1.20875
-997.385
-0.51421
1.20435
-997.493
-0.700392
1.19147
-997.695
-0.814339
1.17429
-997.966
1.15472
-998.275
-0.279877
0.641772
-996.9
-0.527334
0.639114
-997.013
-0.717847
0.631715
-997.226
-0.834244
0.621867
-997.51
0.610712
-997.833
-0.283429
-996.638
-0.533759
-996.754
-0.726345
-996.973
-0.843841
-997.265
-997.596
-0.350568
2.60775
-998.333
-0.660617
2.60023
-998.466
-0.897406
2.57612
-998.712
-1.04015
2.54393
-999.039
2.50705
-999.411
-0.364028
2.27136
-997.329
-0.685131
2.26166
-997.471
-0.930031
2.23515
-997.735
-1.07759
2.20007
-998.085
2.16042
-998.481
-0.378982
1.68348
-996.418
-0.712184
1.67452
-996.573
-0.965751
1.65184
-996.858
-1.11804
1.62199
-997.235
1.58862
-997.661
-0.391861
0.89729
-995.722
-0.735331
0.89192
-995.887
-0.996139
0.878813
-996.192
-1.1521
0.861623
-996.593
0.84252
-997.044
-0.398498
-995.342
-0.747177
-995.514
-1.01159
-995.83
-1.16924
-996.245
-996.71
-0.480229
3.59411
-997.792
-0.901759
3.57898
-997.976
-1.21835
3.53795
-998.313
-1.4053
3.48403
-998.751
3.42333
-999.244
-0.503465
3.16175
-996.393
-0.943463
3.14211
-996.594
-1.27309
3.0953
-996.963
-1.46714
3.03434
-997.441
2.96705
-997.975
-0.530388
2.36278
-995.089
-0.991262
2.3446
-995.314
-1.33527
2.30386
-995.723
-1.53608
2.25111
-996.251
2.1938
-996.836
-0.55406
1.26607
-994.071
-1.0329
1.25521
-994.319
-1.38908
1.23162
-994.763
-1.59482
1.20111
-995.337
1.16825
-995.965
-0.566707
-993.509
-1.05489
-993.77
-1.41737
-994.235
-1.62529
-994.836
-995.489
-0.658462
4.96771
-997.12
-1.23078
4.93744
-997.373
-1.64856
4.86633
-997.836
-1.8901
4.77432
-998.414
4.67414
-999.059
-0.699628
4.43354
-995.159
-1.30299
4.39354
-995.447
-1.74204
4.30929
-995.967
-1.99267
4.20102
-996.617
4.08621
-997.331
-0.749655
3.3516
-993.257
-1.38914
3.31412
-993.595
-1.85256
3.23958
-994.189
-2.11098
3.14412
-994.936
3.0457
-995.734
-0.794747
1.80864
-991.733
-1.46554
1.7863
-992.12
-1.94997
1.74337
-992.782
-2.21241
1.68793
-993.618
1.63178
-994.489
-0.819464
-990.881
-1.50654
-991.297
-2.00253
-991.996
-2.26592
-992.885
-993.794
-0.903144
6.89108
-996.338
-1.68022
6.83029
-996.683
-2.21643
6.70507
-997.332
-2.52526
6.5438
-998.06
6.37925
-998.891
-0.977978
6.28105
-993.571
-1.80724
6.19767
-993.985
-2.38001
6.04377
-994.732
-2.6952
5.84559
-995.604
5.65056
-996.539
-1.07462
4.82396
-990.726
-1.96525
4.74408
-991.251
-2.58192
4.60598
-992.135
-2.89816
4.42679
-993.2
4.26061
-994.272
-1.1645
2.62624
-988.371
-2.10794
2.57864
-989.011
-2.7641
2.50096
-990.021
-3.07089
2.39643
-991.281
2.30315
-992.457
-1.21443
-987.04
-2.18365
-987.749
-2.86412
-988.814
-3.16179
-990.19
-991.416
-1.23544
9.60327
-995.576
-2.30019
9.48003
-996.02
-2.93844
9.25933
-996.993
-3.34187
8.96356
-997.787
8.70112
-998.828
-1.37465
9.02892
-991.622
-2.5246
8.84778
-992.203
-3.23721
8.56683
-993.327
-3.61828
8.18649
-994.446
7.86426
-995.616
-1.57075
7.0818
-987.208
-2.81691
6.90171
-988.059
-3.62135
6.64764
-989.411
-3.9597
6.28896
-990.965
6.02474
-992.32
-1.76051
3.89402
-983.422
-3.08533
3.78585
-984.57
-3.98092
3.65334
-986.131
-4.2381
3.44164
-988.177
3.29979
-989.604
-1.86598
-981.28
-3.21718
-982.612
-4.18027
-984.198
-4.3792
-986.55
-987.981
-1.66305
13.4704
-995.33
-3.18785
13.217
-995.746
-3.74975
12.8463
-997.536
-4.35998
12.2504
-997.834
11.8723
-999.068
-1.92784
13.253
-989.476
-3.57502
12.833
-990.171
-4.35018
12.3419
-992.048
-4.78228
11.5521
-993.315
11.0664
-994.583
-2.35376
10.6758
-982.277
-4.1092
10.2355
-983.705
-5.12992
9.7971
-985.845
-5.31915
8.98925
-988.213
8.65416
-989.569
-2.78321
5.92396
-975.887
-4.60067
5.65154
-978.169
-5.90491
5.47798
-980.508
-5.69982
4.98476
-984.377
4.8344
-985.348
-3.01824
-972.338
-4.77648
-975.202
-6.33398
-977.162
-5.87359
-982.025
-982.651
-2.11927
19.1339
-997.207
-4.57747
18.5932
-996.841
-4.33588
18.1037
-1001.36
-5.53483
16.6532
-998.859
16.2986
-999.946
-2.60228
20.0514
-987.792
-5.19649
18.9815
-987.965
-5.66088
18.26
-991.74
-6.08336
16.4057
-992.645
15.8878
-993.215
-3.62491
16.6659
-975.266
-6.13053
15.4738
-977.692
-7.39668
14.9016
-981.221
-6.8366
12.728
-985.095
12.7408
-985.083
-4.6728
9.28561
-963.834
-6.92666
8.4888
-968.93
-9.23985
8.5795
-971.872
-7.2073
7.17523
-980.857
7.33497
-978.211
-5.22776
-957.824
-7.02072
-964.92
-10.2196
-965.384
-7.34375
-977.726
-973.391
-2.62796
27.7601
-1004.7
-6.93958
26.5723
-1001.37
-4.11153
26.4056
-1014.14
-6.3956
22.3822
-1002.77
22.9399
-1001.39
-3.20514
31.6931
-988.52
-7.86279
28.6303
-985.366
-7.03166
28.2223
-994.387
-7.2478
23.2962
-993.343
23.579
-990.443
-5.70269
27.218
-965.088
-9.39726
23.6359
-969.003
-10.9132
23.8579
-975.34
-8.25017
16.9917
-981.453
19.4475
-976.535
-8.43961
15.0346
-943.211
-10.6858
12.4084
-955.456
-15.4444
14.4129
-957.669
-8.44671
9.93176
-980.794
11.6888
-965.202
-9.72135
-933.068
-10.5659
-951.667
-17.5808
-943.956
-8.47373
-976.901
-956.232
-3.45504
40.3365
-1023.36
-11.109
38.2011
-1012.47
-1.61918
39.1332
-1046.66
-4.54643
29.1504
-1014.24
33.8659
-1000.08
-3.36238
53.2235
-998.044
-12.3155
43.9693
-982.181
-8.3876
46.2663
-1005.45
-8.82509
33.0578
-996.813
36.3955
-983.982
-8.92756
47.1573
-950.094
-14.9719
35.9258
-954.915
-15.7818
40.9603
-969.225
-9.53787
19.5419
-974.181
30.7516
-959.501
-16.3186
24.965
-904.7
-18.2024
16.8079
-934.454
-27.0864
26.2022
-934.027
-8.93434
12.5175
-991.922
19.506
-941.415
-18.9543
-889.149
-16.8422
-936.971
-31.332
-903.264
-8.7024
-987.013
-925.042
-5.26248
55.1555
-1059.97
-20.0825
53.8051
-1032.55
11.3197
56.6962
-1125.85
3.95693
35.7408
-1036.2
50.3764
-981.688
-1.29678
95.338
-1036.93
-19.8528
68.9379
-978.757
-8.50701
80.5282
-1040.63
-12.4804
47.0211
-1004.12
57.8721
-968.684
-13.0365
86.4969
-928.216
-25.5887
52.9047
-926.329
-19.8821
75.0285
-969.431
-10.1595
16.3016
-953.184
49.2666
-925.053
-32.747
41.3869
-826.843
-34.8165
19.5357
-899.016
-49.3932
50.5616
-894.983
-6.98249
11.5246
-1029.56
33.0367
-898.533
-37.582
-810.18
-27.8109
-927.207
-57.0772
-823.436
-6.74872
-1025.82
-872.852
-26.9024
75.0062
-1098.84
-48.6122
76.3489
-1076.3
53.9058
80.5586
-1326.23
20.0822
38.9638
-1040.47
71.4765
-917.406
-11.4799
143.13
-1093.57
-50.8735
92.938
-955.953
-6.03966
140.395
-1145.3
-18.0299
62.3693
-1015.53
89.3883
-973.291
-32.9908
126.251
-878.347
-47.7232
64.0891
-882.748
-13.0301
136.464
-1000.19
-21.0445
3.39414
-886.194
76.8101
-888.278
-57.5736
60.2538
-703.272
-68.7006
7.05532
-830.855
-87.7213
89.3948
-828.893
-6.28565
23.9049
-1131.5
54.8295
-839.692
-66.9479
-682.979
-33.9942
-953.105
-72.8885
-695.147
-13.2524
-1061.55
-801.332
29.0216
40.2299
-1317.07
-80.4584
123.088
-1073.67
144.111
95.1999
-1827.06
154.58
-7.72675
-1269.4
191.728
-646.964
141.21
483.197
-1677.75
6.37628
275.115
-973.146
75.6343
316.483
-1435.84
-49.3728
130.333
-1028.59
143.894
-626.19
1.49684
516.067
-912.714
-86.3409
133.616
-653.411
22.74
349.168
-1141.96
73.5046
-99.4037
-707.223
156.642
-673.429
-215.313
220.216
-192.108
-183.71
18.7402
-747.582
-161.854
299.926
-801.506
110.167
-122.265
-1380.66
169.866
-587.591
-222.222
-240.54
-140.48
-1016.11
-270.503
-265.199
179.084
-1633.4
-461.702
-265.801
103.457
-1074.7
-201.143
85.791
-1283.74
313.483
119.039
-2664.78
102.311
62.3452
-983.387
73.3646
-299.587
-153.536
89.4308
-1510.19
-268.511
79.9124
-852.293
-124.041
318.101
-1779.37
-82.7033
-35.0506
-972.528
130.238
-1070.21
-215.493
-25.7009
-582.089
-109.396
-38.7731
-640.822
-19.051
298.748
-1212.95
-150.103
-142.308
-468.913
56.9106
-732.007
-23.0562
-64.4779
-130.275
-186.993
-197.695
-424.724
-323.101
63.1554
-429.806
-10.9397
210.527
-2045.66
-301.766
-337.109
-78.8664
-226.152
82.0369
-1374.71
-107.61
-12.3975
-379.353
-1151.13
-1326.92
-3.33597
-32.9359
-1060.56
-216.916
10.3902
-1077.43
-45.0448
-35.0758
-2981.89
-0.8994
27.8754
-1096.87
45.3199
-145.679
73.766
19.3127
-1636.2
-36.7186
17.8584
-749.277
45.8205
146.92
-2043.9
-262.113
27.6531
-664.371
-10.4875
-826.055
9.01611
7.64455
-579.437
-29.3213
-5.46159
-579.164
-11.9015
48.8702
-1132.32
-3.35386
-115.459
-334.348
-3.12958
-713.461
-3.51264
4.14847
-123.266
0.635744
-13.34
-420.994
24.438
-0.233695
-404.504
85.9793
-123.113
-2099.55
148.745
-319.92
-22.7551
-199.249
7.79195
-1418.59
0.118252
-4.95757
238.648
-1512.77
-1051.44
546.804
236.943
-2007.27
190.048
-177.783
-507.02
-538.546
101.919
-1987.66
-529.86
-162.837
-1072.98
45.8318
-997.57
68.0334
146.985
-1614.28
544.078
29.5135
-1432.62
130.762
-255.884
-1272.79
32.9272
-79.8989
-649.474
-35.913
-15.808
163.645
65.5818
-661.679
59.6685
-69.2689
-376.406
-72.4329
-287.045
-969.061
-22.3668
-184.109
-280.204
-22.1229
-709.557
-50.1152
-0.308557
-7.26037
37.8053
362.801
-940.984
32.0809
-5.5505
-680.275
56.8831
5.81673
-2314.27
6.92806
-455.092
206.885
-406.442
43.5813
-892.489
43.9584
-10.8852
144.4
-1607.4
-922.161
225.545
38.3327
-2409.74
30.2666
31.1918
-345.152
19.2612
13.0673
-2029.12
-60.2318
-65.5997
-918.617
-21.4424
-1281.59
387.064
-125.008
-1838
421.859
-90.0445
-1346.18
-120.541
-103.778
-613.541
-39.1505
15.266
-811.731
-94.5626
-209.26
78.7026
4.12685
-869.516
180.029
-40.621
-527.156
43.776
-278.819
-657.767
-80.156
-104.166
-36.841
-63.8673
-1090.5
-30.9529
39.0738
-11.2544
80.1129
220.003
-1312.67
-248.524
-8.09152
-622.365
-26.1739
146.95
-2787.74
-397.959
-322.659
149.357
-516.725
3.93762
-527.068
1.77581
-16.8152
-482.253
-976.418
-1586.32
-899.365
142.036
-1146.96
-54.2224
82.1639
-1391.32
128.514
235.424
-2684.77
-128.872
224.923
-688.066
145.002
-2351.17
138.591
-391.532
-1443.02
-30.3708
-66.9959
-1028.05
-18.5064
120.607
-510.588
29.6256
-106.421
-528.518
105.768
-372.285
-32.897
-24.1596
-1203.99
134.829
3.34762
-765.226
-73.8792
-59.1648
-269.287
-9.03611
484.706
-692.811
66.4743
-700.717
69.4668
11.1725
-116.053
97.5926
-201.622
-1135.83
-31.6244
-71.8984
-480.415
-22.5394
4.03692
-2316.15
-190.505
-24.1594
-96.2167
-409.336
-8.29646
-816.609
37.4288
-134.439
-294.85
-640.102
-1210.93
-192.833
-2.1746
-1045.46
-139.214
-255.456
-1521.93
-349.407
126.881
-2013.05
-430.386
53.8619
-660.564
-607.768
-2727.74
-47.4803
-24.7912
-1372.93
-138.306
-378.918
-813.766
93.8357
30.6909
-646.541
-31.941
71.2623
-420.142
1.76673
-1002.48
-115.405
-128.784
-984.593
100.845
65.6271
-1426.02
33.7008
-3.91629
-167.535
-39.6094
330.406
-878.645
-0.0620063
-694.15
86.3396
16.0122
-347.19
-7.76447
-131.642
-844.458
333.808
-56.3106
-769.593
19.5595
119.724
-1791.23
98.6822
-106.802
-150.95
-242.373
-419.579
-679.623
117.304
-727.632
-198.659
-204.416
-454.642
-188.851
-63.388
-897.911
133.241
35.1677
-1922.12
-61.3179
-349.644
-1005.11
552.539
-30.1097
-1464.54
-528.807
-956.273
78.3501
-332.983
-1181.68
-108.764
-409.391
-182.094
30.5103
-83.1794
-1052.28
108.86
4.45532
-533.058
-388.723
-1222.47
-188.49
-202.49
-926.597
23.8904
-234.743
-1813.05
58.0123
-173.595
-111.242
-151.767
-146.339
-518.071
-235.5
-737.29
-65.8429
32.9234
-516.761
-27.0336
112.436
-1230.45
64.6237
-138.021
-896.824
-18.9528
0.335717
-1854.32
33.9607
-422.395
-7.95425
-201.495
-119.117
-456.024
112.93
-1097.7
36.6755
-127.825
-164.775
504.466
171.975
-1758.6
451.494
208.208
-1772.96
-69.2487
-207.99
-424.585
-229.343
85.1809
-989.782
251.271
-1390.5
-303.262
-207.411
-499.035
3.18425
-70.7149
-209.618
30.0934
-241.39
-1045.79
17.5463
-82.9595
-352.37
99.6791
-636.722
-374.038
-187.73
-572.241
-49.8555
376.375
-2584.32
9.37546
18.6867
-430.55
22.441
-26.4618
-587.634
-90.7399
-27.1197
-256.144
-197.414
-250.932
-329.563
94.0276
-874.68
-111.43
-23.2885
-1072.98
-270.528
-80.8753
-1640.81
131.691
-1145.88
8.08918
-406.999
-86.9314
-266.976
6.81999
-1214.74
48.8889
-250.769
-274.354
1017.52
-400.736
-3401.79
-14.7198
-44.5748
-465.175
-22.8341
-107.652
-90.7504
-135.345
1.58271
-991.992
97.308
-1289.59
66.8483
0.735795
-967.355
90.7559
267.612
-545.713
-18.1605
-486.15
-558.376
1.57843
19.463
-389.989
-0.394612
-587.633
562.563
8.45266
-1142.52
214.037
412.563
-2380.75
105.372
-21.2044