/*--------------------------------*- C++ -*----------------------------------*\
| =========                 |                                                 |
| \\      /  F ield         | OpenFOAM: The Open Source CFD Toolbox           |
|  \\    /   O peration     | Version:  5.x                                   |
|   \\  /    A nd           | Web:      www.OpenFOAM.org                      |
|    \\/     M anipulation  |                                                 |
\*---------------------------------------------------------------------------*/
FoamFile
{
    version     2.0;
    format      ascii;
    class       volVectorField;
    location    "30000";
    object      stored_U;
}
// * * * * * * * * * * * * * * * * * * * * * * * * * * * * * * * * * * * * * //

dimensions      [0 1 -1 0 0 0 0];

internalField   nonuniform List<vector> 
2250
(
(-8.4627e-12 1.49256e-10 -0.000999994)
(-2.62996e-11 1.49286e-10 -0.000999994)
(-6.08052e-11 1.47002e-10 -0.000999994)
(-8.21673e-11 1.34691e-10 -0.000999995)
(-7.25525e-11 1.11578e-10 -0.000999995)
(-1.02732e-11 1.30939e-10 -0.000999994)
(-3.54799e-11 1.28264e-10 -0.000999994)
(-6.42797e-11 1.19211e-10 -0.000999994)
(-8.75656e-11 1.20159e-10 -0.000999994)
(-8.16214e-11 1.16344e-10 -0.000999995)
(-1.13778e-11 1.04211e-10 -0.000999994)
(-3.82702e-11 1.01676e-10 -0.000999994)
(-6.89157e-11 9.82046e-11 -0.000999994)
(-8.50357e-11 9.33844e-11 -0.000999994)
(-9.52531e-11 9.5647e-11 -0.000999994)
(-1.30061e-11 6.52429e-11 -0.000999994)
(-4.16912e-11 6.37567e-11 -0.000999994)
(-7.25735e-11 6.15457e-11 -0.000999994)
(-9.01196e-11 5.88108e-11 -0.000999994)
(-9.46466e-11 5.66768e-11 -0.000999994)
(-1.29552e-11 2.22648e-11 -0.000999994)
(-4.20154e-11 2.23345e-11 -0.000999994)
(-7.37325e-11 2.19135e-11 -0.000999994)
(-8.97006e-11 2.10541e-11 -0.000999994)
(-9.55452e-11 2.21104e-11 -0.000999994)
(-2.62016e-11 4.45095e-10 -0.000999994)
(-8.11429e-11 4.45865e-10 -0.000999994)
(-1.6327e-10 4.43118e-10 -0.000999994)
(-2.23087e-10 4.2472e-10 -0.000999995)
(-2.66438e-10 3.83525e-10 -0.000999995)
(-3.20664e-11 3.92983e-10 -0.000999994)
(-1.033e-10 3.84574e-10 -0.000999994)
(-1.84178e-10 3.6389e-10 -0.000999994)
(-2.51274e-10 3.53874e-10 -0.000999994)
(-2.45331e-10 3.36196e-10 -0.000999994)
(-3.52994e-11 3.13338e-10 -0.000999994)
(-1.10949e-10 3.09232e-10 -0.000999994)
(-1.93987e-10 2.99527e-10 -0.000999994)
(-2.50807e-10 2.91226e-10 -0.000999994)
(-2.70235e-10 2.90693e-10 -0.000999994)
(-3.67728e-11 1.99623e-10 -0.000999994)
(-1.177e-10 1.98487e-10 -0.000999994)
(-2.02186e-10 1.91627e-10 -0.000999994)
(-2.60098e-10 1.87262e-10 -0.000999994)
(-2.73962e-10 1.84709e-10 -0.000999994)
(-3.67036e-11 6.95329e-11 -0.000999993)
(-1.19085e-10 6.96598e-11 -0.000999993)
(-2.04844e-10 6.8093e-11 -0.000999994)
(-2.57173e-10 6.66465e-11 -0.000999994)
(-2.77422e-10 7.03958e-11 -0.000999994)
(-5.16481e-11 8.05427e-10 -0.000999994)
(-1.51468e-10 8.05358e-10 -0.000999994)
(-2.60558e-10 8.03967e-10 -0.000999994)
(-3.36118e-10 8.07895e-10 -0.000999994)
(-5.42561e-10 8.29297e-10 -0.000999995)
(-6.03074e-11 7.19741e-10 -0.000999994)
(-1.77327e-10 7.11635e-10 -0.000999994)
(-3.02664e-10 6.82803e-10 -0.000999994)
(-3.92159e-10 6.49744e-10 -0.000999994)
(-4.80944e-10 6.02488e-10 -0.000999994)
(-6.10893e-11 5.71475e-10 -0.000999993)
(-1.89769e-10 5.7005e-10 -0.000999993)
(-3.22443e-10 5.52149e-10 -0.000999994)
(-4.16348e-10 5.40013e-10 -0.000999994)
(-4.66558e-10 5.117e-10 -0.000999994)
(-6.27699e-11 3.70435e-10 -0.000999993)
(-1.97684e-10 3.66046e-10 -0.000999993)
(-3.32687e-10 3.58516e-10 -0.000999993)
(-4.32586e-10 3.53604e-10 -0.000999994)
(-4.69074e-10 3.42639e-10 -0.000999994)
(-6.60265e-11 1.30529e-10 -0.000999993)
(-2.02034e-10 1.27403e-10 -0.000999993)
(-3.34248e-10 1.26089e-10 -0.000999993)
(-4.31333e-10 1.25197e-10 -0.000999993)
(-4.71661e-10 1.26402e-10 -0.000999994)
(-8.82351e-11 1.26447e-09 -0.000999994)
(-2.4897e-10 1.26461e-09 -0.000999994)
(-4.08406e-10 1.24657e-09 -0.000999994)
(-5.76869e-10 1.26713e-09 -0.000999994)
(-7.07147e-10 1.26045e-09 -0.000999995)
(-8.85442e-11 1.14086e-09 -0.000999993)
(-2.63328e-10 1.13785e-09 -0.000999994)
(-4.38061e-10 1.11116e-09 -0.000999994)
(-5.59777e-10 1.08237e-09 -0.000999994)
(-7.38164e-10 1.09386e-09 -0.000999994)
(-9.33383e-11 9.07435e-10 -0.000999993)
(-2.80857e-10 9.00557e-10 -0.000999993)
(-4.63982e-10 8.8091e-10 -0.000999993)
(-5.94222e-10 8.62101e-10 -0.000999993)
(-6.95119e-10 8.24218e-10 -0.000999994)
(-9.70926e-11 5.84943e-10 -0.000999993)
(-2.91614e-10 5.79768e-10 -0.000999993)
(-4.76568e-10 5.69555e-10 -0.000999993)
(-6.16446e-10 5.62868e-10 -0.000999993)
(-6.91418e-10 5.42794e-10 -0.000999993)
(-9.93784e-11 2.03756e-10 -0.000999993)
(-2.96797e-10 2.01661e-10 -0.000999993)
(-4.7995e-10 1.98421e-10 -0.000999993)
(-6.19734e-10 1.97334e-10 -0.000999993)
(-6.90318e-10 1.93893e-10 -0.000999993)
(-1.23972e-10 1.86743e-09 -0.000999994)
(-3.70922e-10 1.86241e-09 -0.000999994)
(-6.27437e-10 1.83295e-09 -0.000999994)
(-9.40172e-10 1.82143e-09 -0.000999994)
(-7.77364e-10 1.69325e-09 -0.000999995)
(-1.26532e-10 1.68326e-09 -0.000999993)
(-3.73142e-10 1.67811e-09 -0.000999993)
(-6.09862e-10 1.6651e-09 -0.000999993)
(-8.14856e-10 1.66955e-09 -0.000999993)
(-9.65192e-10 1.78639e-09 -0.000999994)
(-1.3217e-10 1.33957e-09 -0.000999992)
(-3.92271e-10 1.33116e-09 -0.000999992)
(-6.36097e-10 1.3086e-09 -0.000999993)
(-8.18938e-10 1.28761e-09 -0.000999993)
(-9.55899e-10 1.28537e-09 -0.000999993)
(-1.37401e-10 8.58872e-10 -0.000999992)
(-4.06662e-10 8.52001e-10 -0.000999992)
(-6.53446e-10 8.39095e-10 -0.000999992)
(-8.38022e-10 8.28557e-10 -0.000999992)
(-9.51886e-10 8.14117e-10 -0.000999993)
(-1.40339e-10 2.97226e-10 -0.000999992)
(-4.12886e-10 2.94574e-10 -0.000999992)
(-6.58272e-10 2.90786e-10 -0.000999992)
(-8.42226e-10 2.88469e-10 -0.000999992)
(-9.48581e-10 2.84921e-10 -0.000999993)
(-1.69318e-10 2.6631e-09 -0.000999993)
(-5.07058e-10 2.65787e-09 -0.000999993)
(-8.67384e-10 2.62892e-09 -0.000999994)
(-1.3316e-09 2.58173e-09 -0.000999994)
(-9.8696e-10 2.33749e-09 -0.000999994)
(-1.76676e-10 2.39329e-09 -0.000999992)
(-5.20935e-10 2.38372e-09 -0.000999992)
(-8.42603e-10 2.3663e-09 -0.000999993)
(-1.16003e-09 2.39325e-09 -0.000999993)
(-1.21259e-09 2.57558e-09 -0.000999993)
(-1.83302e-10 1.90528e-09 -0.000999992)
(-5.38616e-10 1.89464e-09 -0.000999992)
(-8.57958e-10 1.87384e-09 -0.000999992)
(-1.12237e-09 1.85928e-09 -0.000999992)
(-1.27436e-09 1.90349e-09 -0.000999993)
(-1.90851e-10 1.21758e-09 -0.000999991)
(-5.56037e-10 1.20952e-09 -0.000999991)
(-8.78008e-10 1.19551e-09 -0.000999991)
(-1.13035e-09 1.18142e-09 -0.000999992)
(-1.2764e-09 1.18114e-09 -0.000999992)
(-1.93236e-10 4.19499e-10 -0.000999991)
(-5.61936e-10 4.17534e-10 -0.000999991)
(-8.84393e-10 4.13342e-10 -0.000999991)
(-1.13453e-09 4.09495e-10 -0.000999991)
(-1.27555e-09 4.0702e-10 -0.000999992)
(-2.32236e-10 3.7342e-09 -0.000999993)
(-6.82191e-10 3.73168e-09 -0.000999993)
(-1.13901e-09 3.71421e-09 -0.000999993)
(-1.64205e-09 3.67344e-09 -0.000999994)
(-1.50261e-09 3.4481e-09 -0.000999994)
(-2.46662e-10 3.35045e-09 -0.000999991)
(-7.22959e-10 3.33531e-09 -0.000999992)
(-1.15033e-09 3.30229e-09 -0.000999992)
(-1.56539e-09 3.31972e-09 -0.000999992)
(-1.59491e-09 3.42788e-09 -0.000999993)
(-2.53663e-10 2.65726e-09 -0.00099999)
(-7.3681e-10 2.64818e-09 -0.000999991)
(-1.15472e-09 2.63171e-09 -0.000999991)
(-1.51638e-09 2.62133e-09 -0.000999991)
(-1.69055e-09 2.67452e-09 -0.000999992)
(-2.60722e-10 1.69995e-09 -0.00099999)
(-7.53653e-10 1.69409e-09 -0.00099999)
(-1.17725e-09 1.68055e-09 -0.00099999)
(-1.52252e-09 1.66243e-09 -0.000999991)
(-1.69952e-09 1.67103e-09 -0.000999991)
(-2.62215e-10 5.84635e-10 -0.000999989)
(-7.58028e-10 5.83751e-10 -0.000999989)
(-1.18416e-09 5.79949e-10 -0.00099999)
(-1.52299e-09 5.74646e-10 -0.00099999)
(-1.70047e-09 5.76628e-10 -0.000999991)
(-3.26173e-10 5.18452e-09 -0.000999992)
(-9.4859e-10 5.18539e-09 -0.000999992)
(-1.51793e-09 5.17907e-09 -0.000999993)
(-1.99121e-09 5.1646e-09 -0.000999993)
(-2.21582e-09 5.08086e-09 -0.000999994)
(-3.39953e-10 4.65332e-09 -0.00099999)
(-9.87823e-10 4.64123e-09 -0.000999991)
(-1.55205e-09 4.60669e-09 -0.000999991)
(-2.03341e-09 4.59304e-09 -0.000999991)
(-2.20437e-09 4.57451e-09 -0.000999992)
(-3.47094e-10 3.68296e-09 -0.000999989)
(-1.00428e-09 3.67743e-09 -0.000999989)
(-1.56632e-09 3.66053e-09 -0.00099999)
(-2.0234e-09 3.64494e-09 -0.00099999)
(-2.24652e-09 3.65683e-09 -0.000999991)
(-3.52439e-10 2.36115e-09 -0.000999988)
(-1.01738e-09 2.35906e-09 -0.000999988)
(-1.58462e-09 2.34727e-09 -0.000999988)
(-2.03702e-09 2.33244e-09 -0.000999989)
(-2.25977e-09 2.33268e-09 -0.00099999)
(-3.52998e-10 8.12751e-10 -0.000999987)
(-1.0208e-09 8.13073e-10 -0.000999988)
(-1.59e-09 8.08991e-10 -0.000999988)
(-2.0341e-09 8.04784e-10 -0.000999988)
(-2.26e-09 8.08083e-10 -0.000999989)
(-4.54916e-10 7.15955e-09 -0.000999991)
(-1.32538e-09 7.16329e-09 -0.000999991)
(-2.07016e-09 7.15417e-09 -0.000999992)
(-2.65197e-09 7.1612e-09 -0.000999993)
(-2.98817e-09 7.13924e-09 -0.000999994)
(-4.63158e-10 6.43341e-09 -0.000999989)
(-1.34613e-09 6.43055e-09 -0.000999989)
(-2.09778e-09 6.40906e-09 -0.000999989)
(-2.66809e-09 6.37816e-09 -0.00099999)
(-3.02694e-09 6.3588e-09 -0.000999991)
(-4.70019e-10 5.09107e-09 -0.000999987)
(-1.3623e-09 5.08962e-09 -0.000999987)
(-2.12284e-09 5.07435e-09 -0.000999988)
(-2.70223e-09 5.05058e-09 -0.000999988)
(-3.00798e-09 5.02233e-09 -0.000999989)
(-4.74248e-10 3.26806e-09 -0.000999985)
(-1.3727e-09 3.26927e-09 -0.000999986)
(-2.13693e-09 3.25961e-09 -0.000999986)
(-2.71997e-09 3.24856e-09 -0.000999987)
(-3.01726e-09 3.23589e-09 -0.000999988)
(-4.74148e-10 1.12557e-09 -0.000999985)
(-1.37449e-09 1.12692e-09 -0.000999985)
(-2.13959e-09 1.12339e-09 -0.000999985)
(-2.72076e-09 1.12034e-09 -0.000999986)
(-3.01624e-09 1.11756e-09 -0.000999987)
(-6.24463e-10 9.85092e-09 -0.00099999)
(-1.828e-09 9.86096e-09 -0.00099999)
(-2.85486e-09 9.8436e-09 -0.000999991)
(-3.70039e-09 9.85066e-09 -0.000999992)
(-3.90459e-09 9.75153e-09 -0.000999993)
(-6.27577e-10 8.85917e-09 -0.000999986)
(-1.82897e-09 8.86621e-09 -0.000999987)
(-2.84886e-09 8.86033e-09 -0.000999988)
(-3.60052e-09 8.84745e-09 -0.000999989)
(-4.065e-09 8.92494e-09 -0.00099999)
(-6.34249e-10 7.01963e-09 -0.000999984)
(-1.84411e-09 7.02235e-09 -0.000999984)
(-2.87401e-09 7.00869e-09 -0.000999985)
(-3.63578e-09 6.98486e-09 -0.000999986)
(-4.03909e-09 6.95565e-09 -0.000999987)
(-6.38173e-10 4.50769e-09 -0.000999982)
(-1.8535e-09 4.51177e-09 -0.000999982)
(-2.8865e-09 4.50322e-09 -0.000999983)
(-3.65337e-09 4.49174e-09 -0.000999984)
(-4.05372e-09 4.4736e-09 -0.000999985)
(-6.37563e-10 1.55248e-09 -0.000999981)
(-1.85382e-09 1.55484e-09 -0.000999981)
(-2.88867e-09 1.55169e-09 -0.000999982)
(-3.65837e-09 1.54735e-09 -0.000999983)
(-4.05225e-09 1.5399e-09 -0.000999984)
(-8.47459e-10 1.35185e-08 -0.000999988)
(-2.48687e-09 1.35405e-08 -0.000999988)
(-3.89345e-09 1.35219e-08 -0.000999989)
(-5.02988e-09 1.35088e-08 -0.00099999)
(-5.2418e-09 1.3326e-08 -0.000999992)
(-8.50384e-10 1.21638e-08 -0.000999983)
(-2.48285e-09 1.21772e-08 -0.000999984)
(-3.8724e-09 1.21775e-08 -0.000999985)
(-4.90859e-09 1.21798e-08 -0.000999986)
(-5.40806e-09 1.22842e-08 -0.000999988)
(-8.57137e-10 9.65276e-09 -0.00099998)
(-2.49684e-09 9.66044e-09 -0.00099998)
(-3.89141e-09 9.64716e-09 -0.000999981)
(-4.92317e-09 9.62606e-09 -0.000999983)
(-5.43857e-09 9.6201e-09 -0.000999984)
(-8.61095e-10 6.19895e-09 -0.000999977)
(-2.5072e-09 6.20545e-09 -0.000999978)
(-3.90699e-09 6.19472e-09 -0.000999979)
(-4.9354e-09 6.17786e-09 -0.00099998)
(-5.467e-09 6.169e-09 -0.000999982)
(-8.60859e-10 2.13432e-09 -0.000999976)
(-2.50836e-09 2.137e-09 -0.000999976)
(-3.91174e-09 2.1326e-09 -0.000999977)
(-4.93937e-09 2.12507e-09 -0.000999979)
(-5.46379e-09 2.11943e-09 -0.00099998)
(-1.147e-09 1.85188e-08 -0.000999985)
(-3.35945e-09 1.85546e-08 -0.000999986)
(-5.24559e-09 1.85418e-08 -0.000999987)
(-6.6545e-09 1.85131e-08 -0.000999989)
(-7.23357e-09 1.83769e-08 -0.000999991)
(-1.1546e-09 1.66728e-08 -0.000999979)
(-3.37028e-09 1.66898e-08 -0.00099998)
(-5.2555e-09 1.66794e-08 -0.000999981)
(-6.64769e-09 1.66606e-08 -0.000999983)
(-7.28467e-09 1.66656e-08 -0.000999985)
(-1.1618e-09 1.32431e-08 -0.000999974)
(-3.38549e-09 1.32566e-08 -0.000999975)
(-5.27559e-09 1.32398e-08 -0.000999976)
(-6.66824e-09 1.32148e-08 -0.000999978)
(-7.34559e-09 1.32064e-08 -0.00099998)
(-1.16651e-09 8.50531e-09 -0.000999971)
(-3.3994e-09 8.51326e-09 -0.000999971)
(-5.2975e-09 8.49787e-09 -0.000999973)
(-6.68072e-09 8.47584e-09 -0.000999975)
(-7.3856e-09 8.47443e-09 -0.000999977)
(-1.1679e-09 2.92712e-09 -0.000999969)
(-3.40303e-09 2.92913e-09 -0.00099997)
(-5.30319e-09 2.92284e-09 -0.000999971)
(-6.67882e-09 2.91371e-09 -0.000999973)
(-7.3792e-09 2.91228e-09 -0.000999975)
(-1.55962e-09 2.53396e-08 -0.000999981)
(-4.54896e-09 2.53868e-08 -0.000999982)
(-7.06171e-09 2.53721e-08 -0.000999984)
(-8.84601e-09 2.5357e-08 -0.000999987)
(-9.99846e-09 2.53407e-08 -0.000999989)
(-1.57045e-09 2.28323e-08 -0.000999973)
(-4.57739e-09 2.28571e-08 -0.000999974)
(-7.12718e-09 2.2829e-08 -0.000999976)
(-8.96648e-09 2.27601e-08 -0.000999979)
(-9.91105e-09 2.26514e-08 -0.000999982)
(-1.57863e-09 1.814e-08 -0.000999967)
(-4.59707e-09 1.81598e-08 -0.000999968)
(-7.15965e-09 1.81365e-08 -0.00099997)
(-9.02357e-09 1.80994e-08 -0.000999972)
(-9.95888e-09 1.80552e-08 -0.000999975)
(-1.58532e-09 1.1651e-08 -0.000999962)
(-4.61614e-09 1.16606e-08 -0.000999963)
(-7.1879e-09 1.16419e-08 -0.000999965)
(-9.0473e-09 1.16175e-08 -0.000999967)
(-9.99901e-09 1.16064e-08 -0.00099997)
(-1.58824e-09 4.00816e-09 -0.000999959)
(-4.62009e-09 4.0099e-09 -0.00099996)
(-7.18953e-09 4.00341e-09 -0.000999962)
(-9.0417e-09 3.99507e-09 -0.000999965)
(-9.98999e-09 3.99211e-09 -0.000999968)
(-2.12717e-09 3.46508e-08 -0.000999976)
(-6.18261e-09 3.47043e-08 -0.000999978)
(-9.57262e-09 3.46697e-08 -0.00099998)
(-1.19474e-08 3.46537e-08 -0.000999984)
(-1.36358e-08 3.47423e-08 -0.000999988)
(-2.13705e-09 3.12475e-08 -0.000999966)
(-6.21872e-09 3.12872e-08 -0.000999967)
(-9.67368e-09 3.12455e-08 -0.000999969)
(-1.21338e-08 3.114e-08 -0.000999973)
(-1.35024e-08 3.0969e-08 -0.000999977)
(-2.14719e-09 2.48213e-08 -0.000999957)
(-6.24568e-09 2.48488e-08 -0.000999958)
(-9.72125e-09 2.48174e-08 -0.00099996)
(-1.22239e-08 2.47671e-08 -0.000999964)
(-1.35364e-08 2.46852e-08 -0.000999968)
(-2.15685e-09 1.59433e-08 -0.00099995)
(-6.27074e-09 1.59572e-08 -0.000999951)
(-9.7559e-09 1.5936e-08 -0.000999954)
(-1.22655e-08 1.59084e-08 -0.000999957)
(-1.35725e-08 1.58758e-08 -0.000999961)
(-2.15956e-09 5.48419e-09 -0.000999946)
(-6.27211e-09 5.48786e-09 -0.000999948)
(-9.75204e-09 5.4818e-09 -0.00099995)
(-1.22605e-08 5.47378e-09 -0.000999954)
(-1.35628e-08 5.46388e-09 -0.000999958)
(-2.89497e-09 4.73588e-08 -0.00099997)
(-8.4015e-09 4.74145e-08 -0.000999971)
(-1.30231e-08 4.7344e-08 -0.000999975)
(-1.62976e-08 4.72886e-08 -0.000999979)
(-1.84223e-08 4.73704e-08 -0.000999985)
(-2.90679e-09 4.27312e-08 -0.000999955)
(-8.44904e-09 4.27866e-08 -0.000999957)
(-1.31416e-08 4.27272e-08 -0.00099996)
(-1.64918e-08 4.26036e-08 -0.000999965)
(-1.83558e-08 4.2425e-08 -0.00099997)
(-2.92109e-09 3.39333e-08 -0.000999942)
(-8.48893e-09 3.39698e-08 -0.000999944)
(-1.32079e-08 3.3924e-08 -0.000999948)
(-1.65998e-08 3.38556e-08 -0.000999952)
(-1.84174e-08 3.37496e-08 -0.000999958)
(-2.93484e-09 2.17988e-08 -0.000999933)
(-8.52404e-09 2.18186e-08 -0.000999935)
(-1.32566e-08 2.17886e-08 -0.000999939)
(-1.66654e-08 2.17487e-08 -0.000999943)
(-1.84655e-08 2.16897e-08 -0.000999949)
(-2.93714e-09 7.4997e-09 -0.000999929)
(-8.52534e-09 7.50616e-09 -0.00099993)
(-1.32533e-08 7.49709e-09 -0.000999934)
(-1.66666e-08 7.48503e-09 -0.000999939)
(-1.84624e-08 7.46478e-09 -0.000999944)
(-3.93122e-09 6.46838e-08 -0.00099996)
(-1.14063e-08 6.47408e-08 -0.000999963)
(-1.77126e-08 6.46226e-08 -0.000999967)
(-2.22308e-08 6.44903e-08 -0.000999974)
(-2.48869e-08 6.44703e-08 -0.000999981)
(-3.95425e-09 5.83824e-08 -0.00099994)
(-1.14865e-08 5.84472e-08 -0.000999943)
(-1.78673e-08 5.83485e-08 -0.000999947)
(-2.24486e-08 5.81885e-08 -0.000999954)
(-2.49543e-08 5.79828e-08 -0.000999961)
(-3.97767e-09 4.63523e-08 -0.000999923)
(-1.1554e-08 4.63958e-08 -0.000999926)
(-1.79738e-08 4.63188e-08 -0.00099993)
(-2.25966e-08 4.62096e-08 -0.000999937)
(-2.50888e-08 4.60588e-08 -0.000999945)
(-3.9988e-09 2.97808e-08 -0.000999911)
(-1.16098e-08 2.9804e-08 -0.000999913)
(-1.80545e-08 2.97522e-08 -0.000999918)
(-2.27073e-08 2.96828e-08 -0.000999925)
(-2.5179e-08 2.95805e-08 -0.000999932)
(-4.00349e-09 1.02482e-08 -0.000999904)
(-1.16183e-08 1.02555e-08 -0.000999907)
(-1.80617e-08 1.02381e-08 -0.000999912)
(-2.27249e-08 1.02152e-08 -0.000999918)
(-2.51925e-08 1.01784e-08 -0.000999926)
(-5.34108e-09 8.82962e-08 -0.000999947)
(-1.55018e-08 8.83547e-08 -0.000999951)
(-2.4105e-08 8.81685e-08 -0.000999957)
(-3.03124e-08 8.79161e-08 -0.000999966)
(-3.37075e-08 8.77113e-08 -0.000999976)
(-5.3861e-09 7.97108e-08 -0.00099992)
(-1.56415e-08 7.9776e-08 -0.000999923)
(-2.43316e-08 7.96073e-08 -0.00099993)
(-3.06001e-08 7.93701e-08 -0.000999939)
(-3.39796e-08 7.90862e-08 -0.000999949)
(-5.42758e-09 6.32832e-08 -0.000999897)
(-1.57606e-08 6.33281e-08 -0.0009999)
(-2.45143e-08 6.31955e-08 -0.000999907)
(-3.08335e-08 6.3012e-08 -0.000999916)
(-3.42282e-08 6.27771e-08 -0.000999926)
(-5.46129e-09 4.06627e-08 -0.00099988)
(-1.58516e-08 4.06864e-08 -0.000999883)
(-2.4649e-08 4.05993e-08 -0.00099989)
(-3.10169e-08 4.04797e-08 -0.000999899)
(-3.43968e-08 4.03135e-08 -0.00099991)
(-5.4707e-09 1.39953e-08 -0.000999871)
(-1.58728e-08 1.40023e-08 -0.000999875)
(-2.46758e-08 1.39719e-08 -0.000999881)
(-3.10601e-08 1.39306e-08 -0.00099989)
(-3.44354e-08 1.38714e-08 -0.000999901)
(-7.26889e-09 1.20504e-07 -0.00099993)
(-2.11107e-08 1.20563e-07 -0.000999934)
(-3.28629e-08 1.20279e-07 -0.000999943)
(-4.13899e-08 1.19863e-07 -0.000999955)
(-4.58131e-08 1.19392e-07 -0.000999969)
(-7.35069e-09 1.08803e-07 -0.000999893)
(-2.13437e-08 1.08858e-07 -0.000999897)
(-3.32014e-08 1.08584e-07 -0.000999906)
(-4.17933e-08 1.08226e-07 -0.000999918)
(-4.63404e-08 1.07816e-07 -0.000999933)
(-7.42071e-09 8.6395e-08 -0.000999861)
(-2.15413e-08 8.6437e-08 -0.000999865)
(-3.34993e-08 8.62218e-08 -0.000999874)
(-4.21585e-08 8.59256e-08 -0.000999887)
(-4.67509e-08 8.55714e-08 -0.000999901)
(-7.47243e-09 5.55216e-08 -0.000999838)
(-2.16837e-08 5.5546e-08 -0.000999842)
(-3.37146e-08 5.54067e-08 -0.000999852)
(-4.24414e-08 5.52125e-08 -0.000999864)
(-4.70418e-08 5.49664e-08 -0.000999879)
(-7.48741e-09 1.91127e-08 -0.000999826)
(-2.17229e-08 1.912e-08 -0.000999831)
(-3.37712e-08 1.90706e-08 -0.00099984)
(-4.25181e-08 1.90023e-08 -0.000999852)
(-4.71206e-08 1.89159e-08 -0.000999867)
(-9.91428e-09 1.64485e-07 -0.000999906)
(-2.88042e-08 1.64543e-07 -0.000999912)
(-4.4849e-08 1.64121e-07 -0.000999924)
(-5.65086e-08 1.63501e-07 -0.000999941)
(-6.24912e-08 1.62733e-07 -0.00099996)
(-1.00478e-08 1.48545e-07 -0.000999855)
(-2.91704e-08 1.48584e-07 -0.000999861)
(-4.53663e-08 1.4816e-07 -0.000999874)
(-5.71227e-08 1.47607e-07 -0.00099989)
(-6.32733e-08 1.46973e-07 -0.00099991)
(-1.01566e-08 1.17997e-07 -0.000999812)
(-2.94774e-08 1.18033e-07 -0.000999818)
(-4.58322e-08 1.17696e-07 -0.00099983)
(-5.76957e-08 1.1723e-07 -0.000999847)
(-6.39097e-08 1.1669e-07 -0.000999867)
(-1.02352e-08 7.58512e-08 -0.00099978)
(-2.96988e-08 7.58724e-08 -0.000999787)
(-4.61714e-08 7.56516e-08 -0.000999799)
(-5.8126e-08 7.53472e-08 -0.000999816)
(-6.43771e-08 7.49886e-08 -0.000999836)
(-1.02596e-08 2.61159e-08 -0.000999764)
(-2.97678e-08 2.6122e-08 -0.00099977)
(-4.62732e-08 2.60429e-08 -0.000999783)
(-5.82487e-08 2.59368e-08 -0.0009998)
(-6.45251e-08 2.58139e-08 -0.00099982)
(-1.35465e-08 2.24601e-07 -0.000999874)
(-3.93484e-08 2.24651e-07 -0.000999882)
(-6.12242e-08 2.2401e-07 -0.000999899)
(-7.70645e-08 2.2309e-07 -0.000999921)
(-8.53165e-08 2.21987e-07 -0.000999947)
(-1.37438e-08 2.02916e-07 -0.000999804)
(-3.98952e-08 2.02937e-07 -0.000999813)
(-6.20251e-08 2.02292e-07 -0.000999829)
(-7.80552e-08 2.01424e-07 -0.000999852)
(-8.64283e-08 2.00399e-07 -0.000999879)
(-1.39091e-08 1.61268e-07 -0.000999745)
(-4.03654e-08 1.61284e-07 -0.000999753)
(-6.27459e-08 1.60759e-07 -0.00099977)
(-7.89577e-08 1.60032e-07 -0.000999794)
(-8.74123e-08 1.5918e-07 -0.000999821)
(-1.40321e-08 1.03703e-07 -0.000999702)
(-4.0715e-08 1.03707e-07 -0.00099971)
(-6.32807e-08 1.03358e-07 -0.000999727)
(-7.96293e-08 1.02884e-07 -0.000999751)
(-8.81426e-08 1.02332e-07 -0.000999778)
(-1.40743e-08 3.5712e-08 -0.000999679)
(-4.0834e-08 3.57113e-08 -0.000999688)
(-6.34543e-08 3.55876e-08 -0.000999705)
(-7.98339e-08 3.54241e-08 -0.000999729)
(-8.84088e-08 3.52382e-08 -0.000999756)
(-1.85151e-08 3.06829e-07 -0.00099983)
(-5.37597e-08 3.06841e-07 -0.000999841)
(-8.35791e-08 3.05837e-07 -0.000999864)
(-1.05086e-07 3.04414e-07 -0.000999894)
(-1.16306e-07 3.02764e-07 -0.00099993)
(-1.88032e-08 2.77377e-07 -0.000999735)
(-5.4574e-08 2.77356e-07 -0.000999746)
(-8.48151e-08 2.76368e-07 -0.000999769)
(-1.06653e-07 2.75011e-07 -0.0009998)
(-1.18024e-07 2.7339e-07 -0.000999837)
(-1.90597e-08 2.20577e-07 -0.000999653)
(-5.53056e-08 2.2054e-07 -0.000999665)
(-8.59365e-08 2.19713e-07 -0.000999688)
(-1.08063e-07 2.18574e-07 -0.00099972)
(-1.19592e-07 2.17223e-07 -0.000999757)
(-1.9255e-08 1.41902e-07 -0.000999594)
(-5.58607e-08 1.41865e-07 -0.000999606)
(-8.67852e-08 1.41312e-07 -0.000999629)
(-1.09137e-07 1.40557e-07 -0.000999662)
(-1.20754e-07 1.39665e-07 -0.000999699)
(-1.9327e-08 4.88771e-08 -0.000999563)
(-5.60641e-08 4.88619e-08 -0.000999575)
(-8.70882e-08 4.86666e-08 -0.000999599)
(-1.09506e-07 4.84042e-08 -0.000999631)
(-1.2122e-07 4.81007e-08 -0.000999669)
(-2.52912e-08 4.1934e-07 -0.00099977)
(-7.34138e-08 4.19259e-07 -0.000999786)
(-1.14067e-07 4.17678e-07 -0.000999816)
(-1.43327e-07 4.15455e-07 -0.000999858)
(-1.58402e-07 4.12849e-07 -0.000999907)
(-2.57311e-08 3.79429e-07 -0.00099964)
(-7.46655e-08 3.79297e-07 -0.000999656)
(-1.15988e-07 3.77752e-07 -0.000999687)
(-1.45768e-07 3.7562e-07 -0.000999729)
(-1.61153e-07 3.73088e-07 -0.000999779)
(-2.6137e-08 3.0196e-07 -0.000999528)
(-7.58226e-08 3.01809e-07 -0.000999544)
(-1.17761e-07 3.00493e-07 -0.000999576)
(-1.47991e-07 2.9868e-07 -0.00099962)
(-1.63673e-07 2.96536e-07 -0.000999671)
(-2.64479e-08 1.9437e-07 -0.000999446)
(-7.67097e-08 1.9425e-07 -0.000999463)
(-1.19124e-07 1.9336e-07 -0.000999495)
(-1.49717e-07 1.92135e-07 -0.00099954)
(-1.65564e-07 1.90689e-07 -0.000999592)
(-2.65717e-08 6.69703e-08 -0.000999404)
(-7.70633e-08 6.69241e-08 -0.00099942)
(-1.19663e-07 6.66075e-08 -0.000999453)
(-1.50383e-07 6.61748e-08 -0.000999498)
(-1.66353e-07 6.56737e-08 -0.00099955)
(-3.45337e-08 5.73338e-07 -0.000999689)
(-1.00217e-07 5.73071e-07 -0.00099971)
(-1.55627e-07 5.706e-07 -0.000999752)
(-1.95423e-07 5.67147e-07 -0.000999809)
(-2.1576e-07 5.63061e-07 -0.000999875)
(-3.52281e-08 5.19419e-07 -0.00099951)
(-1.02191e-07 5.19049e-07 -0.000999532)
(-1.58656e-07 5.1659e-07 -0.000999575)
(-1.99265e-07 5.13195e-07 -0.000999633)
(-2.2009e-07 5.09181e-07 -0.000999701)
(-3.58771e-08 4.13806e-07 -0.000999356)
(-1.04045e-07 4.13427e-07 -0.000999379)
(-1.61503e-07 4.11302e-07 -0.000999423)
(-2.02832e-07 4.08377e-07 -0.000999483)
(-2.24107e-07 4.04946e-07 -0.000999553)
(-3.63801e-08 2.6658e-07 -0.000999244)
(-1.05484e-07 2.66292e-07 -0.000999267)
(-1.63715e-07 2.6484e-07 -0.000999312)
(-2.0561e-07 2.62842e-07 -0.000999373)
(-2.27206e-07 2.60504e-07 -0.000999445)
(-3.65964e-08 9.18904e-08 -0.000999186)
(-1.06102e-07 9.17804e-08 -0.000999208)
(-1.64662e-07 9.12609e-08 -0.000999254)
(-2.06789e-07 9.05464e-08 -0.000999316)
(-2.28528e-07 8.97178e-08 -0.000999388)
(-4.71665e-08 7.84232e-07 -0.000999579)
(-1.36819e-07 7.83609e-07 -0.000999608)
(-2.123e-07 7.79749e-07 -0.000999665)
(-2.66323e-07 7.74374e-07 -0.000999742)
(-2.93817e-07 7.68053e-07 -0.000999832)
(-4.82681e-08 7.11702e-07 -0.000999333)
(-1.39957e-07 7.10879e-07 -0.000999363)
(-2.17122e-07 7.06923e-07 -0.000999422)
(-2.72422e-07 7.01474e-07 -0.000999502)
(-3.00609e-07 6.95035e-07 -0.000999595)
(-4.93185e-08 5.6784e-07 -0.000999122)
(-1.42962e-07 5.67017e-07 -0.000999153)
(-2.21736e-07 5.63551e-07 -0.000999213)
(-2.78211e-07 5.58795e-07 -0.000999296)
(-3.07037e-07 5.53224e-07 -0.000999392)
(-5.01466e-08 3.66229e-07 -0.000998966)
(-1.45326e-07 3.65614e-07 -0.000998998)
(-2.25357e-07 3.63226e-07 -0.00099906)
(-2.82733e-07 3.59946e-07 -0.000999145)
(-3.12115e-07 3.56123e-07 -0.000999244)
(-5.05221e-08 1.26317e-07 -0.000998885)
(-1.46398e-07 1.26087e-07 -0.000998917)
(-2.27007e-07 1.2523e-07 -0.00099898)
(-2.84797e-07 1.24047e-07 -0.000999066)
(-3.14359e-07 1.22671e-07 -0.000999166)
(-6.44603e-08 1.07326e-06 -0.00099943)
(-1.86857e-07 1.07198e-06 -0.00099947)
(-2.89608e-07 1.06591e-06 -0.000999548)
(-3.62791e-07 1.05749e-06 -0.000999653)
(-3.99703e-07 1.04763e-06 -0.000999775)
(-6.6214e-08 9.76297e-07 -0.000999093)
(-1.91871e-07 9.74635e-07 -0.000999134)
(-2.9732e-07 9.68233e-07 -0.000999215)
(-3.7251e-07 9.5944e-07 -0.000999324)
(-4.10487e-07 9.49079e-07 -0.000999452)
(-6.79352e-08 7.80601e-07 -0.0009988)
(-1.96785e-07 7.78946e-07 -0.000998843)
(-3.04846e-07 7.73238e-07 -0.000998927)
(-3.81945e-07 7.65438e-07 -0.000999041)
(-4.2091e-07 7.56323e-07 -0.000999174)
(-6.93115e-08 5.04271e-07 -0.000998585)
(-2.0071e-07 5.03047e-07 -0.000998629)
(-3.10845e-07 4.99072e-07 -0.000998715)
(-3.89405e-07 4.9364e-07 -0.000998833)
(-4.29239e-07 4.87339e-07 -0.00099897)
(-6.99654e-08 1.74086e-07 -0.000998472)
(-2.02579e-07 1.73633e-07 -0.000998516)
(-3.13712e-07 1.722e-07 -0.000998604)
(-3.92974e-07 1.70237e-07 -0.000998724)
(-4.33091e-07 1.67958e-07 -0.000998863)
(-8.81523e-08 1.46972e-06 -0.00099923)
(-2.55302e-07 1.46725e-06 -0.000999286)
(-3.95024e-07 1.45765e-06 -0.000999391)
(-4.93871e-07 1.44445e-06 -0.000999535)
(-5.4305e-07 1.42893e-06 -0.0009997)
(-9.09808e-08 1.34133e-06 -0.000998765)
(-2.6338e-07 1.33812e-06 -0.000998823)
(-4.07429e-07 1.32767e-06 -0.000998934)
(-5.09434e-07 1.31337e-06 -0.000999084)
(-5.60306e-07 1.29663e-06 -0.000999258)
(-9.38341e-08 1.0757e-06 -0.00099836)
(-2.71506e-07 1.0725e-06 -0.00099842)
(-4.19836e-07 1.06299e-06 -0.000998536)
(-5.24915e-07 1.05005e-06 -0.000998694)
(-5.77362e-07 1.03502e-06 -0.000998877)
(-9.61553e-08 6.96535e-07 -0.000998059)
(-2.78117e-07 6.94162e-07 -0.000998121)
(-4.29901e-07 6.87458e-07 -0.000998242)
(-5.37373e-07 6.78376e-07 -0.000998406)
(-5.91106e-07 6.67873e-07 -0.000998596)
(-9.73119e-08 2.4077e-07 -0.0009979)
(-2.81402e-07 2.39889e-07 -0.000997963)
(-4.34886e-07 2.37466e-07 -0.000998087)
(-5.43542e-07 2.34186e-07 -0.000998255)
(-5.97788e-07 2.30387e-07 -0.000998448)
(-1.20655e-07 2.01407e-06 -0.000998963)
(-3.48978e-07 2.00952e-06 -0.00099904)
(-5.38677e-07 1.99426e-06 -0.000999184)
(-6.7162e-07 1.97341e-06 -0.000999379)
(-7.36457e-07 1.94891e-06 -0.000999602)
(-1.25277e-07 1.84667e-06 -0.000998321)
(-3.62134e-07 1.84062e-06 -0.000998402)
(-5.58787e-07 1.82334e-06 -0.000998555)
(-6.96691e-07 1.79985e-06 -0.000998761)
(-7.64294e-07 1.77261e-06 -0.000998998)
(-1.3009e-07 1.48736e-06 -0.000997755)
(-3.75794e-07 1.48125e-06 -0.00099784)
(-5.79522e-07 1.46515e-06 -0.000998003)
(-7.22353e-07 1.44345e-06 -0.000998222)
(-7.92454e-07 1.41841e-06 -0.000998474)
(-1.34091e-07 9.66297e-07 -0.000997331)
(-3.87122e-07 9.61745e-07 -0.00099742)
(-5.96625e-07 9.50271e-07 -0.000997591)
(-7.43384e-07 9.34884e-07 -0.000997822)
(-8.15388e-07 9.17214e-07 -0.000998085)
(-1.36161e-07 3.34622e-07 -0.000997106)
(-3.92952e-07 3.32934e-07 -0.000997197)
(-6.05378e-07 3.28775e-07 -0.000997373)
(-7.54108e-07 3.23207e-07 -0.00099761)
(-8.27014e-07 3.16821e-07 -0.00099788)
(-1.6532e-07 2.76231e-06 -0.000998611)
(-4.77254e-07 2.75401e-06 -0.000998717)
(-7.3419e-07 2.72952e-06 -0.000998914)
(-9.11888e-07 2.69631e-06 -0.000999177)
(-9.96012e-07 2.65739e-06 -0.000999477)
(-1.73e-07 2.54946e-06 -0.000997722)
(-4.9901e-07 2.53809e-06 -0.000997834)
(-7.6716e-07 2.50906e-06 -0.000998047)
(-9.52633e-07 2.47006e-06 -0.00099833)
(-1.04127e-06 2.42529e-06 -0.000998652)
(-1.81312e-07 2.06609e-06 -0.000996925)
(-5.22429e-07 2.05443e-06 -0.000997046)
(-8.02331e-07 2.0267e-06 -0.000997276)
(-9.95653e-07 1.98978e-06 -0.000997581)
(-1.08823e-06 1.94779e-06 -0.000997928)
(-1.88371e-07 1.34862e-06 -0.000996321)
(-5.42219e-07 1.33989e-06 -0.00099645)
(-8.31853e-07 1.31989e-06 -0.000996695)
(-1.03149e-06 1.29341e-06 -0.00099702)
(-1.12693e-06 1.26351e-06 -0.000997388)
(-1.92135e-07 4.68205e-07 -0.000995998)
(-5.52728e-07 4.64973e-07 -0.000996131)
(-8.47441e-07 4.57689e-07 -0.000996384)
(-1.05027e-06 4.4807e-07 -0.00099672)
(-1.1471e-06 4.37257e-07 -0.0009971)
(-2.26828e-07 3.79175e-06 -0.000998154)
(-6.53036e-07 3.77663e-06 -0.000998299)
(-9.99576e-07 3.73684e-06 -0.00099857)
(-1.23472e-06 3.68354e-06 -0.000998923)
(-1.34199e-06 3.62161e-06 -0.000999322)
(-2.39887e-07 3.53273e-06 -0.000996917)
(-6.89699e-07 3.51126e-06 -0.000997075)
(-1.05444e-06 3.46158e-06 -0.000997372)
(-1.3017e-06 3.39583e-06 -0.000997759)
(-1.41592e-06 3.32153e-06 -0.000998195)
(-2.54633e-07 2.88832e-06 -0.000995784)
(-7.30736e-07 2.86588e-06 -0.000995959)
(-1.11516e-06 2.81717e-06 -0.000996287)
(-1.37477e-06 2.75328e-06 -0.000996715)
(-1.49487e-06 2.68225e-06 -0.000997193)
(-2.6744e-07 1.89787e-06 -0.00099491)
(-7.66131e-07 1.88094e-06 -0.000995101)
(-1.1671e-06 1.8454e-06 -0.000995456)
(-1.43654e-06 1.79902e-06 -0.00099592)
(-1.5606e-06 1.74811e-06 -0.000996434)
(-2.74462e-07 6.612e-07 -0.000994437)
(-7.85405e-07 6.54923e-07 -0.000994637)
(-1.19522e-06 6.41948e-07 -0.000995008)
(-1.46967e-06 6.25035e-07 -0.000995492)
(-1.59549e-06 6.06604e-07 -0.000996026)
(-3.11745e-07 5.20859e-06 -0.000997577)
(-8.94224e-07 5.18079e-06 -0.000997778)
(-1.35821e-06 5.11514e-06 -0.000998148)
(-1.66457e-06 5.02873e-06 -0.000998617)
(-1.79823e-06 4.93047e-06 -0.000999142)
(-3.34531e-07 4.91965e-06 -0.000995848)
(-9.57268e-07 4.87848e-06 -0.000996074)
(-1.45105e-06 4.79187e-06 -0.00099649)
(-1.77582e-06 4.67881e-06 -0.000997019)
(-1.91972e-06 4.55479e-06 -0.000997603)