/*--------------------------------*- C++ -*----------------------------------*\
  =========                 |
  \\      /  F ield         | OpenFOAM: The Open Source CFD Toolbox
   \\    /   O peration     | Website:  https://openfoam.org
    \\  /    A nd           | Version:  9
     \\/     M anipulation  |
\*---------------------------------------------------------------------------*/
FoamFile
{
    format      ascii;
    class       volScalarField;
    location    "60000";
    object      p;
}
// * * * * * * * * * * * * * * * * * * * * * * * * * * * * * * * * * * * * * //

dimensions      [0 2 -2 0 0 0 0];

internalField   nonuniform List<scalar> 
9000
(
-3.33589e-10
-3.3825e-10
-3.50169e-10
-3.70462e-10
-4.26724e-10
-4.01194e-10
-3.25956e-10
-2.59736e-10
-2.1281e-10
-1.92455e-10
-3.14725e-10
-3.16521e-10
-3.30949e-10
-3.61027e-10
-4.13038e-10
-3.94395e-10
-3.09993e-10
-2.39265e-10
-1.92727e-10
-1.77533e-10
-2.69098e-10
-2.63499e-10
-2.87145e-10
-3.28523e-10
-3.79731e-10
-3.73574e-10
-2.90356e-10
-2.26529e-10
-1.85672e-10
-1.74875e-10
-2.09311e-10
-2.12483e-10
-2.5492e-10
-3.04733e-10
-3.4468e-10
-3.77358e-10
-2.66594e-10
-2.04123e-10
-1.72978e-10
-1.7215e-10
-1.47706e-10
-1.85837e-10
-2.56436e-10
-3.00891e-10
-2.88282e-10
-4.34657e-10
-2.55578e-10
-1.71311e-10
-1.56057e-10
-1.76278e-10
-1.42271e-10
-1.77884e-10
-2.47747e-10
-3.20605e-10
-4.14477e-10
-2.23272e-10
-2.00896e-10
-1.57867e-10
-1.52027e-10
-1.72302e-10
-1.74082e-10
-1.98481e-10
-2.19146e-10
-2.28989e-10
-2.68009e-10
-2.28882e-10
-1.91293e-10
-1.69512e-10
-1.7083e-10
-1.81616e-10
-1.87057e-10
-1.98692e-10
-1.93004e-10
-1.81436e-10
-1.90911e-10
-1.85756e-10
-1.63553e-10
-1.59334e-10
-1.65092e-10
-1.70586e-10
-1.85705e-10
-1.8438e-10
-1.62539e-10
-1.39033e-10
-1.30184e-10
-1.32701e-10
-1.31179e-10
-1.3975e-10
-1.48512e-10
-1.52372e-10
-1.77519e-10
-1.68946e-10
-1.41142e-10
-1.12894e-10
-9.5576e-11
-9.96413e-11
-1.11515e-10
-1.26098e-10
-1.36206e-10
-1.40215e-10
-9.8057e-10
-9.90562e-10
-1.01527e-09
-1.06156e-09
-1.16519e-09
-1.09672e-09
-9.07446e-10
-7.49128e-10
-6.43864e-10
-6.05529e-10
-9.21157e-10
-9.23611e-10
-9.62646e-10
-1.03503e-09
-1.12961e-09
-1.06885e-09
-8.73376e-10
-7.11159e-10
-6.11e-10
-5.86242e-10
-7.87901e-10
-7.8585e-10
-8.58534e-10
-9.64845e-10
-1.07752e-09
-1.03451e-09
-8.41305e-10
-6.91662e-10
-6.04363e-10
-5.89431e-10
-6.34582e-10
-6.67321e-10
-7.83958e-10
-9.03963e-10
-9.90782e-10
-1.02393e-09
-7.87242e-10
-6.50606e-10
-5.95296e-10
-6.05519e-10
-4.98316e-10
-6.14489e-10
-7.70681e-10
-8.54638e-10
-7.90608e-10
-1.09618e-09
-7.72867e-10
-6.23209e-10
-6.12039e-10
-6.5842e-10
-4.64253e-10
-5.63267e-10
-7.01035e-10
-8.25899e-10
-1.00851e-09
-6.33625e-10
-5.76228e-10
-5.37683e-10
-5.67758e-10
-6.20848e-10
-5.36947e-10
-5.86634e-10
-6.08507e-10
-6.08417e-10
-6.89135e-10
-5.62109e-10
-5.20516e-10
-5.21048e-10
-5.46712e-10
-5.65063e-10
-5.48765e-10
-5.59901e-10
-5.23106e-10
-4.74214e-10
-4.79771e-10
-4.46977e-10
-4.40653e-10
-4.63961e-10
-4.88395e-10
-4.95474e-10
-5.28428e-10
-5.10663e-10
-4.41758e-10
-3.68109e-10
-3.3248e-10
-3.33273e-10
-3.61741e-10
-4.00979e-10
-4.27306e-10
-4.33476e-10
-4.99997e-10
-4.67449e-10
-3.88349e-10
-3.08844e-10
-2.62744e-10
-2.72667e-10
-3.1849e-10
-3.63814e-10
-3.90879e-10
-3.97787e-10
-1.5897e-09
-1.61023e-09
-1.63475e-09
-1.67598e-09
-1.7402e-09
-1.64154e-09
-1.41106e-09
-1.22125e-09
-1.10378e-09
-1.07064e-09
-1.50048e-09
-1.51541e-09
-1.56761e-09
-1.64594e-09
-1.72788e-09
-1.6297e-09
-1.38916e-09
-1.19551e-09
-1.08411e-09
-1.06641e-09
-1.302e-09
-1.33019e-09
-1.43445e-09
-1.56493e-09
-1.6969e-09
-1.60318e-09
-1.36236e-09
-1.18437e-09
-1.09046e-09
-1.08469e-09
-1.0984e-09
-1.17346e-09
-1.31584e-09
-1.45485e-09
-1.56832e-09
-1.50078e-09
-1.27622e-09
-1.1496e-09
-1.10611e-09
-1.12291e-09
-9.53377e-10
-1.08975e-09
-1.22657e-09
-1.30696e-09
-1.26394e-09
-1.35861e-09
-1.19457e-09
-1.13698e-09
-1.16029e-09
-1.19195e-09
-8.68732e-10
-9.73633e-10
-1.05919e-09
-1.10437e-09
-1.1711e-09
-1.04057e-09
-1.01318e-09
-1.01312e-09
-1.06415e-09
-1.0997e-09
-9.01451e-10
-9.32735e-10
-9.1071e-10
-8.63455e-10
-8.66328e-10
-8.37089e-10
-8.41859e-10
-8.81919e-10
-9.18404e-10
-9.1828e-10
-8.77663e-10
-8.6321e-10
-7.83278e-10
-6.88955e-10
-6.32814e-10
-6.29034e-10
-6.86734e-10
-7.44988e-10
-7.75495e-10
-7.70777e-10
-8.29183e-10
-7.85334e-10
-6.72385e-10
-5.55349e-10
-4.79105e-10
-4.87292e-10
-5.73483e-10
-6.38007e-10
-6.66761e-10
-6.64158e-10
-7.83063e-10
-7.22501e-10
-6.02489e-10
-4.89345e-10
-4.21645e-10
-4.31321e-10
-5.23933e-10
-5.84912e-10
-6.087e-10
-6.03506e-10
-2.18727e-09
-2.23101e-09
-2.24155e-09
-2.24608e-09
-2.24731e-09
-2.12759e-09
-1.88723e-09
-1.70943e-09
-1.61325e-09
-1.59757e-09
-2.10398e-09
-2.1423e-09
-2.18127e-09
-2.2213e-09
-2.25394e-09
-2.15022e-09
-1.87668e-09
-1.69654e-09
-1.60989e-09
-1.61076e-09
-1.8797e-09
-1.93675e-09
-2.02189e-09
-2.10835e-09
-2.18461e-09
-2.12257e-09
-1.84045e-09
-1.68321e-09
-1.61595e-09
-1.62223e-09
-1.64851e-09
-1.72879e-09
-1.81911e-09
-1.89631e-09
-1.9558e-09
-1.95047e-09
-1.73124e-09
-1.6405e-09
-1.61286e-09
-1.61697e-09
-1.49234e-09
-1.56042e-09
-1.58815e-09
-1.60094e-09
-1.57981e-09
-1.65491e-09
-1.57578e-09
-1.56928e-09
-1.58784e-09
-1.57722e-09
-1.34288e-09
-1.39368e-09
-1.39832e-09
-1.40038e-09
-1.37559e-09
-1.31669e-09
-1.42006e-09
-1.43973e-09
-1.44785e-09
-1.42525e-09
-1.25791e-09
-1.24805e-09
-1.17947e-09
-1.10204e-09
-1.02885e-09
-1.10834e-09
-1.16128e-09
-1.19283e-09
-1.19508e-09
-1.16433e-09
-1.18612e-09
-1.14439e-09
-1.03213e-09
-9.10874e-10
-7.98117e-10
-8.51492e-10
-9.40254e-10
-9.84805e-10
-9.86113e-10
-9.60495e-10
-1.11476e-09
-1.0471e-09
-9.07399e-10
-7.74833e-10
-6.7667e-10
-7.0135e-10
-8.04244e-10
-8.45818e-10
-8.40998e-10
-8.15451e-10
-1.05495e-09
-9.68445e-10
-8.30402e-10
-7.17966e-10
-6.57288e-10
-6.61158e-10
-7.55654e-10
-7.81287e-10
-7.63342e-10
-7.33958e-10
-2.79713e-09
-2.86321e-09
-2.84304e-09
-2.78944e-09
-2.71748e-09
-2.5715e-09
-2.34126e-09
-2.20512e-09
-2.15834e-09
-2.1729e-09
-2.73993e-09
-2.78782e-09
-2.78216e-09
-2.74834e-09
-2.69014e-09
-2.57715e-09
-2.32146e-09
-2.19812e-09
-2.16949e-09
-2.19488e-09
-2.5043e-09
-2.55813e-09
-2.58193e-09
-2.58079e-09
-2.54152e-09
-2.5197e-09
-2.25859e-09
-2.16142e-09
-2.14216e-09
-2.15572e-09
-2.23392e-09
-2.27854e-09
-2.29116e-09
-2.27694e-09
-2.21626e-09
-2.37872e-09
-2.13352e-09
-2.06592e-09
-2.04882e-09
-2.03592e-09
-2.02593e-09
-2.0114e-09
-1.95367e-09
-1.86961e-09
-1.7498e-09
-2.23287e-09
-1.99105e-09
-1.89449e-09
-1.86032e-09
-1.81712e-09
-1.80777e-09
-1.79695e-09
-1.77032e-09
-1.82249e-09
-1.89517e-09
-1.48275e-09
-1.67479e-09
-1.70041e-09
-1.65991e-09
-1.60086e-09
-1.62349e-09
-1.58723e-09
-1.50321e-09
-1.4333e-09
-1.40906e-09
-1.37496e-09
-1.44319e-09
-1.42918e-09
-1.37865e-09
-1.3278e-09
-1.51709e-09
-1.4581e-09
-1.33733e-09
-1.22252e-09
-1.1361e-09
-1.1646e-09
-1.21595e-09
-1.19408e-09
-1.13838e-09
-1.0926e-09
-1.42375e-09
-1.33601e-09
-1.19786e-09
-1.09032e-09
-1.02675e-09
-1.03741e-09
-1.07483e-09
-1.03408e-09
-9.63528e-10
-9.17329e-10
-1.34493e-09
-1.24065e-09
-1.11947e-09
-1.04832e-09
-1.03258e-09
-1.01356e-09
-1.01947e-09
-9.53802e-10
-8.72757e-10
-8.38109e-10
-3.38233e-09
-3.43844e-09
-3.37075e-09
-3.25205e-09
-3.10109e-09
-2.94089e-09
-2.77324e-09
-2.70614e-09
-2.72284e-09
-2.76338e-09
-3.32934e-09
-3.34968e-09
-3.28326e-09
-3.17318e-09
-3.03297e-09
-2.90027e-09
-2.74508e-09
-2.70651e-09
-2.74151e-09
-2.77386e-09
-3.07279e-09
-3.08668e-09
-3.04488e-09
-2.9697e-09
-2.85004e-09
-2.79415e-09
-2.65039e-09
-2.62883e-09
-2.65384e-09
-2.6603e-09
-2.75497e-09
-2.75423e-09
-2.72158e-09
-2.6584e-09
-2.51727e-09
-2.67455e-09
-2.48621e-09
-2.45104e-09
-2.44845e-09
-2.42584e-09
-2.4838e-09
-2.44881e-09
-2.39295e-09
-2.25999e-09
-1.95592e-09
-2.72477e-09
-2.36364e-09
-2.20542e-09
-2.13181e-09
-2.07653e-09
-2.23148e-09
-2.19768e-09
-2.17018e-09
-2.22551e-09
-2.42818e-09
-1.68561e-09
-1.86651e-09
-1.89978e-09
-1.85255e-09
-1.79649e-09
-2.02553e-09
-1.98435e-09
-1.90576e-09
-1.84112e-09
-1.90791e-09
-1.66823e-09
-1.71361e-09
-1.66086e-09
-1.57789e-09
-1.5292e-09
-1.89669e-09
-1.82409e-09
-1.71659e-09
-1.62936e-09
-1.61836e-09
-1.54374e-09
-1.52091e-09
-1.42329e-09
-1.31804e-09
-1.27369e-09
-1.77443e-09
-1.67272e-09
-1.56858e-09
-1.51147e-09
-1.50601e-09
-1.45648e-09
-1.37968e-09
-1.24165e-09
-1.12066e-09
-1.09145e-09
-1.67769e-09
-1.57634e-09
-1.50552e-09
-1.48725e-09
-1.50201e-09
-1.43276e-09
-1.30316e-09
-1.14856e-09
-1.04297e-09
-1.05149e-09
-3.8639e-09
-3.8704e-09
-3.76373e-09
-3.61348e-09
-3.44321e-09
-3.30009e-09
-3.20643e-09
-3.19948e-09
-3.25425e-09
-3.28965e-09
-3.77775e-09
-3.74796e-09
-3.64528e-09
-3.50774e-09
-3.3601e-09
-3.2328e-09
-3.17683e-09
-3.20136e-09
-3.26345e-09
-3.27155e-09
-3.50616e-09
-3.47428e-09
-3.40101e-09
-3.30046e-09
-3.17953e-09
-3.06865e-09
-3.05034e-09
-3.08309e-09
-3.12518e-09
-3.11079e-09
-3.17505e-09
-3.14881e-09
-3.10646e-09
-3.03536e-09
-2.90717e-09
-2.87245e-09
-2.83843e-09
-2.85283e-09
-2.86611e-09
-2.83868e-09
-2.88778e-09
-2.87654e-09
-2.84963e-09
-2.74335e-09
-2.39817e-09
-2.85255e-09
-2.68415e-09
-2.58763e-09
-2.52627e-09
-2.48083e-09
-2.66043e-09
-2.63351e-09
-2.58638e-09
-2.53932e-09
-2.66579e-09
-2.12376e-09
-2.21523e-09
-2.23928e-09
-2.20648e-09
-2.1737e-09
-2.4799e-09
-2.43117e-09
-2.35888e-09
-2.28545e-09
-2.35076e-09
-2.08154e-09
-2.07919e-09
-2.00758e-09
-1.92593e-09
-1.90099e-09
-2.33119e-09
-2.24619e-09
-2.1706e-09
-2.11701e-09
-2.13204e-09
-1.99124e-09
-1.90044e-09
-1.76067e-09
-1.65249e-09
-1.64473e-09
-2.19071e-09
-2.09536e-09
-2.048e-09
-2.03083e-09
-2.02489e-09
-1.91051e-09
-1.74284e-09
-1.56341e-09
-1.46308e-09
-1.49498e-09
-2.10406e-09
-2.03645e-09
-2.02326e-09
-2.01971e-09
-1.97815e-09
-1.84991e-09
-1.64352e-09
-1.48328e-09
-1.43157e-09
-1.51073e-09
-4.21193e-09
-4.16599e-09
-4.05938e-09
-3.93128e-09
-3.80308e-09
-3.68516e-09
-3.61308e-09
-3.61878e-09
-3.65875e-09
-3.6568e-09
-4.09115e-09
-4.03098e-09
-3.93865e-09
-3.82256e-09
-3.6976e-09
-3.59802e-09
-3.57636e-09
-3.60989e-09
-3.64863e-09
-3.61762e-09
-3.84658e-09
-3.79651e-09
-3.72757e-09
-3.62771e-09
-3.51152e-09
-3.39774e-09
-3.43787e-09
-3.48172e-09
-3.50915e-09
-3.47216e-09
-3.56583e-09
-3.53347e-09
-3.48452e-09
-3.40305e-09
-3.31063e-09
-3.14937e-09
-3.23241e-09
-3.27602e-09
-3.29189e-09
-3.25905e-09
-3.31744e-09
-3.30427e-09
-3.26207e-09
-3.18934e-09
-3.03649e-09
-2.98166e-09
-3.05325e-09
-3.05632e-09
-3.03532e-09
-3.0075e-09
-3.14694e-09
-3.11181e-09
-3.03335e-09
-2.90369e-09
-2.85473e-09
-2.82385e-09
-2.77958e-09
-2.77925e-09
-2.76068e-09
-2.74877e-09
-2.99798e-09
-2.93179e-09
-2.87314e-09
-2.80943e-09
-2.79416e-09
-2.66279e-09
-2.60661e-09
-2.53202e-09
-2.47613e-09
-2.47886e-09
-2.85232e-09
-2.77334e-09
-2.74258e-09
-2.71387e-09
-2.67621e-09
-2.54487e-09
-2.41581e-09
-2.28689e-09
-2.22946e-09
-2.27074e-09
-2.74253e-09
-2.68551e-09
-2.68832e-09
-2.66607e-09
-2.56654e-09
-2.41906e-09
-2.23895e-09
-2.11109e-09
-2.0965e-09
-2.1844e-09
-2.71136e-09
-2.69643e-09
-2.7082e-09
-2.6527e-09
-2.46358e-09
-2.29712e-09
-2.14325e-09
-2.07584e-09
-2.11517e-09
-2.22972e-09
-4.50559e-09
-4.44774e-09
-4.37105e-09
-4.27462e-09
-4.15617e-09
-4.02473e-09
-3.93207e-09
-3.89557e-09
-3.87439e-09
-3.82656e-09
-4.39909e-09
-4.34992e-09
-4.28598e-09
-4.18446e-09
-4.03989e-09
-3.92977e-09
-3.89604e-09
-3.87963e-09
-3.85779e-09
-3.79388e-09
-4.23289e-09
-4.1947e-09
-4.13405e-09
-4.02316e-09
-3.87296e-09
-3.7536e-09
-3.7856e-09
-3.78501e-09
-3.76817e-09
-3.71092e-09
-4.04544e-09
-4.01107e-09
-3.945e-09
-3.8402e-09
-3.73419e-09
-3.55748e-09
-3.64988e-09
-3.6634e-09
-3.65023e-09
-3.60154e-09
-3.84592e-09
-3.80071e-09
-3.72741e-09
-3.66723e-09
-3.64372e-09
-3.35133e-09
-3.51065e-09
-3.54133e-09
-3.52128e-09
-3.48229e-09
-3.7215e-09
-3.65887e-09
-3.5728e-09
-3.44769e-09
-3.29978e-09
-3.49269e-09
-3.39447e-09
-3.38228e-09
-3.36183e-09
-3.3431e-09
-3.62504e-09
-3.55742e-09
-3.52403e-09
-3.4786e-09
-3.3849e-09
-3.31717e-09
-3.24506e-09
-3.17877e-09
-3.14827e-09
-3.16189e-09
-3.53806e-09
-3.49429e-09
-3.495e-09
-3.45732e-09
-3.33335e-09
-3.20634e-09
-3.08249e-09
-3.00388e-09
-3.00728e-09
-3.06436e-09
-3.51755e-09
-3.51269e-09
-3.52209e-09
-3.44043e-09
-3.2068e-09
-3.04282e-09
-2.93284e-09
-2.90563e-09
-2.96057e-09
-3.04026e-09
-3.56392e-09
-3.58564e-09
-3.56742e-09
-3.41537e-09
-3.07858e-09
-2.89856e-09
-2.883e-09
-2.91963e-09
-2.99465e-09
-3.06583e-09
-4.87427e-09
-4.84759e-09
-4.78629e-09
-4.67921e-09
-4.52367e-09
-4.32149e-09
-4.15689e-09
-4.01964e-09
-3.91141e-09
-3.82639e-09
-4.84351e-09
-4.82725e-09
-4.76362e-09
-4.63716e-09
-4.46098e-09
-4.26836e-09
-4.14557e-09
-4.0152e-09
-3.91028e-09
-3.82032e-09
-4.77922e-09
-4.75952e-09
-4.68005e-09
-4.5369e-09
-4.35884e-09
-4.15206e-09
-4.08803e-09
-3.97757e-09
-3.88626e-09
-3.80331e-09
-4.68667e-09
-4.64685e-09
-4.55301e-09
-4.41827e-09
-4.27281e-09
-4.01428e-09
-4.03196e-09
-3.94724e-09
-3.86267e-09
-3.78577e-09
-4.53594e-09
-4.4733e-09
-4.38521e-09
-4.30484e-09
-4.25344e-09
-3.78145e-09
-3.95976e-09
-3.92535e-09
-3.84222e-09
-3.77758e-09
-4.44424e-09
-4.37063e-09
-4.28286e-09
-4.13901e-09
-3.86291e-09
-4.11766e-09
-3.95933e-09
-3.89101e-09
-3.82879e-09
-3.78962e-09
-4.42953e-09
-4.38516e-09
-4.35822e-09
-4.29003e-09
-4.12051e-09
-4.01576e-09
-3.92195e-09
-3.84277e-09
-3.80788e-09
-3.80752e-09
-4.44358e-09
-4.4381e-09
-4.4255e-09
-4.33732e-09
-4.13619e-09
-3.9677e-09
-3.86424e-09
-3.81822e-09
-3.82489e-09
-3.83741e-09
-4.52625e-09
-4.54734e-09
-4.51035e-09
-4.34757e-09
-4.03095e-09
-3.84062e-09
-3.80719e-09
-3.82128e-09
-3.84625e-09
-3.84364e-09
-4.62529e-09
-4.64147e-09
-4.55714e-09
-4.32519e-09
-3.95012e-09
-3.75987e-09
-3.81994e-09
-3.853e-09
-3.85363e-09
-3.8226e-09
-5.36695e-09
-5.37329e-09
-5.27375e-09
-5.10003e-09
-4.90758e-09
-4.59922e-09
-4.26444e-09
-3.98557e-09
-3.79184e-09
-3.67963e-09
-5.43794e-09
-5.43461e-09
-5.31517e-09
-5.12093e-09
-4.91877e-09
-4.60639e-09
-4.28501e-09
-4.00692e-09
-3.81761e-09
-3.70093e-09
-5.46305e-09
-5.43653e-09
-5.29297e-09
-5.08591e-09
-4.88341e-09
-4.54154e-09
-4.28746e-09
-4.03185e-09
-3.85198e-09
-3.73827e-09
-5.44888e-09
-5.3886e-09
-5.2397e-09
-5.05133e-09
-4.87691e-09
-4.43841e-09
-4.31769e-09
-4.09264e-09
-3.91687e-09
-3.81514e-09
-5.38198e-09
-5.30629e-09
-5.18437e-09
-5.06766e-09
-5.04038e-09
-4.20265e-09
-4.32255e-09
-4.1779e-09
-4.02831e-09
-3.96173e-09
-5.34388e-09
-5.27063e-09
-5.14319e-09
-4.91441e-09
-4.4872e-09
-4.90249e-09
-4.51695e-09
-4.30171e-09
-4.17336e-09
-4.12556e-09
-5.40117e-09
-5.37012e-09
-5.30697e-09
-5.18111e-09
-4.92561e-09
-4.80621e-09
-4.60378e-09
-4.45565e-09
-4.36561e-09
-4.31484e-09
-5.50836e-09
-5.50625e-09
-5.43929e-09
-5.29034e-09
-5.04153e-09
-4.82293e-09
-4.68427e-09
-4.58499e-09
-4.50254e-09
-4.42358e-09
-5.65701e-09
-5.65903e-09
-5.55396e-09
-5.33846e-09
-5.03463e-09
-4.80432e-09
-4.73705e-09
-4.65641e-09
-4.54841e-09
-4.43802e-09
-5.76379e-09
-5.74067e-09
-5.59563e-09
-5.3453e-09
-5.046e-09
-4.82666e-09
-4.78462e-09
-4.67358e-09
-4.52584e-09
-4.40502e-09
-5.88156e-09
-5.86943e-09
-5.6602e-09
-5.35318e-09
-5.06202e-09
-4.64284e-09
-4.11928e-09
-3.73238e-09
-3.48523e-09
-3.35161e-09
-6.02698e-09
-5.97788e-09
-5.73746e-09
-5.41211e-09
-5.10037e-09
-4.67519e-09
-4.16684e-09
-3.78791e-09
-3.53988e-09
-3.3966e-09
-6.11174e-09
-6.0281e-09
-5.77088e-09
-5.44189e-09
-5.13477e-09
-4.68819e-09
-4.25496e-09
-3.88946e-09
-3.6385e-09
-3.49831e-09
-6.16887e-09
-6.05569e-09
-5.81223e-09
-5.52197e-09
-5.28656e-09
-4.71004e-09
-4.42693e-09
-4.07806e-09
-3.82841e-09
-3.70439e-09
-6.22471e-09
-6.10014e-09
-5.90111e-09
-5.73328e-09
-5.7911e-09
-4.62265e-09
-4.57527e-09
-4.33676e-09
-4.14053e-09
-4.0474e-09
-6.2899e-09
-6.19104e-09
-5.99237e-09
-5.68838e-09
-5.17296e-09
-5.69458e-09
-5.02855e-09
-4.65815e-09
-4.45126e-09
-4.35863e-09
-6.40587e-09
-6.35122e-09
-6.22525e-09
-6.04218e-09
-5.70221e-09
-5.58876e-09
-5.21477e-09
-4.94491e-09
-4.74455e-09
-4.60715e-09
-6.58165e-09
-6.54366e-09
-6.41137e-09
-6.21615e-09
-5.94328e-09
-5.6813e-09
-5.41283e-09
-5.16604e-09
-4.93781e-09
-4.76755e-09
-6.75748e-09
-6.71248e-09
-6.55087e-09
-6.32259e-09
-6.07193e-09
-5.78713e-09
-5.54556e-09
-5.27378e-09
-5.00891e-09
-4.82961e-09
-6.84872e-09
-6.77788e-09
-6.59965e-09
-6.37407e-09
-6.15211e-09
-5.87332e-09
-5.60234e-09
-5.29053e-09
-5.01134e-09
-4.85877e-09
-6.23296e-09
-6.12401e-09
-5.74558e-09
-5.23702e-09
-4.71444e-09
-4.19015e-09
-3.60781e-09
-3.19698e-09
-2.92683e-09
-2.77094e-09
-6.39638e-09
-6.23708e-09
-5.8322e-09
-5.31293e-09
-4.77448e-09
-4.24482e-09
-3.69663e-09
-3.29591e-09
-3.01341e-09
-2.84648e-09
-6.52737e-09
-6.3439e-09
-5.94782e-09
-5.44721e-09
-4.93911e-09
-4.41726e-09
-3.91357e-09
-3.49675e-09
-3.19728e-09
-3.03282e-09
-6.67667e-09
-6.48639e-09
-6.13182e-09
-5.7011e-09
-5.32267e-09
-4.69005e-09
-4.28378e-09
-3.85072e-09
-3.53885e-09
-3.37411e-09
-6.87591e-09
-6.6852e-09
-6.39897e-09
-6.13193e-09
-6.12872e-09
-4.87989e-09
-4.65751e-09
-4.31988e-09
-4.0349e-09
-3.85515e-09
-7.09719e-09
-6.95183e-09
-6.68481e-09
-6.32864e-09
-5.74544e-09
-6.11275e-09
-5.3115e-09
-4.83611e-09
-4.51178e-09
-4.31553e-09
-7.31367e-09
-7.21183e-09
-7.01556e-09
-6.76432e-09
-6.34185e-09
-6.14562e-09
-5.6117e-09
-5.1968e-09
-4.86525e-09
-4.6489e-09
-7.56132e-09
-7.46957e-09
-7.27174e-09
-7.02569e-09
-6.71408e-09
-6.37204e-09
-5.91931e-09
-5.49838e-09
-5.14175e-09
-4.92002e-09
-7.7594e-09
-7.66058e-09
-7.45523e-09
-7.2154e-09
-6.96611e-09
-6.5954e-09
-6.13099e-09
-5.67755e-09
-5.30814e-09
-5.10908e-09
-7.84312e-09
-7.73032e-09
-7.53551e-09
-7.31917e-09
-7.0931e-09
-6.72111e-09
-6.22097e-09
-5.74901e-09
-5.39878e-09
-5.22965e-09
-6.31285e-09
-6.05536e-09
-5.49962e-09
-4.77598e-09
-3.98132e-09
-3.34065e-09
-2.79684e-09
-2.38175e-09
-2.07336e-09
-1.8861e-09
-6.46019e-09
-6.1693e-09
-5.61014e-09
-4.89478e-09
-4.1209e-09
-3.46636e-09
-2.95325e-09
-2.53132e-09
-2.20108e-09
-2.00686e-09
-6.66807e-09
-6.38247e-09
-5.8615e-09
-5.19308e-09
-4.48165e-09
-3.84601e-09
-3.31805e-09
-2.84165e-09
-2.4836e-09
-2.28594e-09
-6.96379e-09
-6.70186e-09
-6.24844e-09
-5.67683e-09
-5.1191e-09
-4.38238e-09
-3.87964e-09
-3.35067e-09
-2.95978e-09
-2.74665e-09
-7.33856e-09
-7.10323e-09
-6.74388e-09
-6.33182e-09
-6.11649e-09
-4.8707e-09
-4.4762e-09
-3.9826e-09
-3.57472e-09
-3.32837e-09
-7.75635e-09
-7.56791e-09
-7.22705e-09
-6.76977e-09
-6.08408e-09
-6.15233e-09
-5.24606e-09
-4.65995e-09
-4.21168e-09
-3.93875e-09
-8.14123e-09
-7.98552e-09
-7.70013e-09
-7.33194e-09
-6.79377e-09
-6.39071e-09
-5.71235e-09
-5.16084e-09
-4.72813e-09
-4.47233e-09
-8.48705e-09
-8.33311e-09
-8.05397e-09
-7.71605e-09
-7.3076e-09
-6.80542e-09
-6.17506e-09
-5.61278e-09
-5.17271e-09
-4.92594e-09
-8.72844e-09
-8.57372e-09
-8.3167e-09
-8.01831e-09
-7.68822e-09
-7.176e-09
-6.51385e-09
-5.93014e-09
-5.49834e-09
-5.26944e-09
-8.83088e-09
-8.68123e-09
-8.45527e-09
-8.18591e-09
-7.88252e-09
-7.37694e-09
-6.67433e-09
-6.08846e-09
-5.6739e-09
-5.43503e-09
-6.20394e-09
-5.8064e-09
-5.11404e-09
-4.21978e-09
-3.22672e-09
-2.42484e-09
-1.83352e-09
-1.32214e-09
-9.15559e-10
-6.78309e-10
-6.35603e-09
-5.96219e-09
-5.28806e-09
-4.41905e-09
-3.48217e-09
-2.65475e-09
-2.06685e-09
-1.52592e-09
-1.098e-09
-8.5783e-10
-6.70248e-09
-6.33805e-09
-5.71159e-09
-4.90192e-09
-4.03619e-09
-3.19802e-09
-2.55478e-09
-1.94137e-09
-1.48641e-09
-1.24478e-09
-7.20818e-09
-6.88584e-09
-6.33145e-09
-5.61768e-09
-4.88096e-09
-3.87502e-09
-3.24386e-09
-2.57832e-09
-2.09628e-09
-1.85056e-09
-7.80622e-09
-7.535e-09
-7.07586e-09
-6.48231e-09
-6.01824e-09
-4.50368e-09
-3.9729e-09
-3.3418e-09
-2.85223e-09
-2.59016e-09
-8.44988e-09
-8.20955e-09
-7.73716e-09
-7.05589e-09
-6.11375e-09
-6.03622e-09
-4.89376e-09
-4.17e-09
-3.6431e-09
-3.34721e-09
-9.046e-09
-8.81933e-09
-8.39686e-09
-7.83248e-09
-7.07205e-09
-6.42683e-09
-5.58447e-09
-4.89967e-09
-4.38351e-09
-4.0954e-09
-9.51637e-09
-9.28502e-09
-8.88862e-09
-8.38972e-09
-7.79277e-09
-7.05567e-09
-6.24539e-09
-5.54585e-09
-5.01889e-09
-4.72459e-09
-9.83213e-09
-9.61398e-09
-9.26678e-09
-8.82621e-09
-8.31929e-09
-7.5904e-09
-6.73095e-09
-6.01464e-09
-5.48573e-09
-5.16895e-09
-9.98497e-09
-9.78818e-09
-9.47645e-09
-9.0593e-09
-8.57228e-09
-7.8668e-09
-6.9587e-09
-6.23602e-09
-5.68997e-09
-5.33338e-09
-6.13965e-09
-5.64098e-09
-4.83429e-09
-3.78353e-09
-2.62208e-09
-1.57542e-09
-7.48976e-10
-5.5581e-12
5.72913e-10
8.92377e-10
-6.35073e-09
-5.88223e-09
-5.09474e-09
-4.07047e-09
-2.97266e-09
-1.90439e-09
-1.04834e-09
-2.68179e-10
3.21891e-10
6.37985e-10
-6.88576e-09
-6.44866e-09
-5.69247e-09
-4.7103e-09
-3.64971e-09
-2.52574e-09
-1.62435e-09
-7.94919e-10
-1.98689e-10
1.03269e-10
-7.64717e-09
-7.24996e-09
-6.53664e-09
-5.60721e-09
-4.61063e-09
-3.22383e-09
-2.40709e-09
-1.58183e-09
-9.9107e-10
-6.95107e-10
-8.52328e-09
-8.17504e-09
-7.51389e-09
-6.65044e-09
-5.88513e-09
-3.7902e-09
-3.22257e-09
-2.5175e-09
-1.95379e-09
-1.64925e-09
-9.42091e-09
-9.08495e-09
-8.38428e-09
-7.34502e-09
-5.8973e-09
-5.83325e-09
-4.4359e-09
-3.5367e-09
-2.90712e-09
-2.56343e-09
-1.02346e-08
-9.89826e-09
-9.27284e-09
-8.42461e-09
-7.30498e-09
-6.44468e-09
-5.36342e-09
-4.47327e-09
-3.8158e-09
-3.4532e-09
-1.08531e-08
-1.05217e-08
-9.9531e-09
-9.20469e-09
-8.29267e-09
-7.26525e-09
-6.1933e-09
-5.27591e-09
-4.58932e-09
-4.19312e-09
-1.12797e-08
-1.09763e-08
-1.04665e-08
-9.77143e-09
-8.93387e-09
-7.89622e-09
-6.78573e-09
-5.8515e-09
-5.1323e-09
-4.68689e-09
-1.15072e-08
-1.12309e-08
-1.07474e-08
-1.00566e-08
-9.21026e-09
-8.19548e-09
-7.06035e-09
-6.1026e-09
-5.34545e-09
-4.87544e-09
-6.35359e-09
-5.76437e-09
-4.79236e-09
-3.50642e-09
-2.07742e-09
-6.59281e-10
5.75432e-10
1.671e-09
2.4985e-09
2.94303e-09
-6.66926e-09
-6.11206e-09
-5.14552e-09
-3.8745e-09
-2.47874e-09
-1.06599e-09
2.18831e-10
1.33794e-09
2.16188e-09
2.59295e-09
-7.41542e-09
-6.87715e-09
-5.91274e-09
-4.64367e-09
-3.22444e-09
-1.74144e-09
-4.58066e-10
6.62407e-10
1.46617e-09
1.88002e-09
-8.46152e-09
-7.94476e-09
-6.97384e-09
-5.69552e-09
-4.28838e-09
-2.5481e-09
-1.41072e-09
-3.41566e-10
4.47406e-10
8.71715e-10
-9.67069e-09
-9.16533e-09
-8.19249e-09
-6.95099e-09
-5.82769e-09
-3.21796e-09
-2.41493e-09
-1.50482e-09
-7.51933e-10
-3.22959e-10
-1.08571e-08
-1.03576e-08
-9.36386e-09
-7.94278e-09
-5.9821e-09
-5.65204e-09
-3.98441e-09
-2.76897e-09
-1.90023e-09
-1.43454e-09
-1.18857e-08
-1.13978e-08
-1.05109e-08
-9.31224e-09
-7.75771e-09
-6.58771e-09
-5.09398e-09
-3.84228e-09
-2.92484e-09
-2.41552e-09
-1.26958e-08
-1.22365e-08
-1.14229e-08
-1.03215e-08
-8.95576e-09
-7.53795e-09
-6.04408e-09
-4.76193e-09
-3.8019e-09
-3.24984e-09
-1.32777e-08
-1.28532e-08
-1.20877e-08
-1.101e-08
-9.68427e-09
-8.21635e-09
-6.72326e-09
-5.41911e-09
-4.41276e-09
-3.83129e-09
-1.35992e-08
-1.3204e-08
-1.24464e-08
-1.13522e-08
-1.00182e-08
-8.54565e-09
-7.05038e-09
-5.71497e-09
-4.68927e-09
-4.11616e-09
-6.97499e-09
-6.25666e-09
-5.00745e-09
-3.3362e-09
-1.44472e-09
5.16805e-10
2.3188e-09
3.8884e-09
5.05631e-09
5.67531e-09
-7.42185e-09
-6.72336e-09
-5.46746e-09
-3.79498e-09
-1.87893e-09
5.17826e-11
1.89041e-09
3.46202e-09
4.61602e-09
5.22425e-09
-8.39367e-09
-7.69918e-09
-6.42116e-09
-4.71369e-09
-2.73684e-09
-7.60765e-10
1.04348e-09
2.58989e-09
3.72586e-09
4.33598e-09
-9.74541e-09
-9.04815e-09
-7.73275e-09
-5.97919e-09
-4.00839e-09
-1.92385e-09
-1.98927e-10
1.32818e-09
2.48099e-09
3.12056e-09
-1.13051e-08
-1.05854e-08
-9.26031e-09
-7.54302e-09
-5.91108e-09
-3.11734e-09
-1.54141e-09
-8.85115e-11
1.04689e-09
1.70153e-09
-1.28313e-08
-1.21217e-08
-1.08182e-08
-9.04711e-09
-6.75113e-09
-5.48877e-09
-3.36432e-09
-1.62228e-09
-3.44382e-10
3.34031e-10
-1.41476e-08
-1.34794e-08
-1.22637e-08
-1.06234e-08
-8.56368e-09
-6.77717e-09
-4.66039e-09
-2.87452e-09
-1.56169e-09
-8.34556e-10
-1.52378e-08
-1.46135e-08
-1.34551e-08
-1.18616e-08
-9.90774e-09
-7.89367e-09
-5.78377e-09
-3.96857e-09
-2.61945e-09
-1.87401e-09
-1.6037e-08
-1.54474e-08
-1.431e-08
-1.27092e-08
-1.07871e-08
-8.71502e-09
-6.60995e-09
-4.76441e-09
-3.38942e-09
-2.64959e-09
-1.64833e-08
-1.59141e-08
-1.476e-08
-1.31477e-08
-1.12483e-08
-9.1411e-09
-7.02497e-09
-5.16591e-09
-3.7968e-09
-3.05961e-09
-8.0458e-09
-7.12652e-09
-5.46209e-09
-3.21793e-09
-6.11611e-10
2.10586e-09
4.66083e-09
6.86824e-09
8.49728e-09
9.3564e-09
-8.64581e-09
-7.73267e-09
-6.05748e-09
-3.79848e-09
-1.12984e-09
1.56909e-09
4.12015e-09
6.32127e-09
7.94645e-09
8.8061e-09
-9.87293e-09
-8.95268e-09
-7.24777e-09
-4.94325e-09
-2.22556e-09
4.96244e-10
3.03105e-09
5.22692e-09
6.86084e-09
7.73052e-09
-1.1565e-08
-1.06289e-08
-8.8919e-09
-6.53703e-09
-3.8108e-09
-1.14739e-09
1.45324e-09
3.70379e-09
5.38587e-09
6.29525e-09
-1.34969e-08
-1.25497e-08
-1.08189e-08
-8.46389e-09
-5.94322e-09
-2.98399e-09
-2.90424e-10
2.01079e-09
3.71324e-09
4.67095e-09
-1.54476e-08
-1.45125e-08
-1.28078e-08
-1.05387e-08
-7.77583e-09
-5.06262e-09
-2.26e-09
1.9247e-10
2.01497e-09
2.97379e-09
-1.72232e-08
-1.63333e-08
-1.46554e-08
-1.23758e-08
-9.61639e-09
-6.82382e-09
-3.91589e-09
-1.43637e-09
3.94441e-10
1.37982e-09
-1.87114e-08
-1.78587e-08
-1.62013e-08
-1.39141e-08
-1.11932e-08
-8.29288e-09
-5.36647e-09
-2.85338e-09
-1.00648e-09
-2.11955e-11
-1.98015e-08
-1.89666e-08
-1.72971e-08
-1.50041e-08
-1.23264e-08
-9.40426e-09
-6.44409e-09
-3.89675e-09
-2.03922e-09
-1.04905e-09
-2.03943e-08
-1.95442e-08
-1.78546e-08
-1.5578e-08
-1.2933e-08
-9.97252e-09
-6.99703e-09
-4.44567e-09
-2.57541e-09
-1.54653e-09
-9.58968e-09
-8.37599e-09
-6.13856e-09
-3.09663e-09
5.03888e-10
4.24274e-09
7.79338e-09
1.0865e-08
1.31166e-08
1.42928e-08
-1.03735e-08
-9.15833e-09
-6.9127e-09
-3.85592e-09
-2.16431e-10
3.55298e-09
7.08741e-09
1.01716e-08
1.24346e-08
1.35995e-08
-1.19256e-08
-1.07019e-08
-8.43441e-09
-5.34945e-09
-1.69359e-09
2.12656e-09
5.69979e-09
8.8172e-09
1.11012e-08
1.22764e-08
-1.40613e-08
-1.28281e-08
-1.05442e-08
-7.41776e-09
-3.7066e-09
4.15793e-11
3.76482e-09
6.97407e-09
9.32175e-09
1.05527e-08
-1.65159e-08
-1.5293e-08
-1.29998e-08
-9.80177e-09
-6.07185e-09
-2.32481e-09
1.57243e-09
4.89354e-09
7.29722e-09
8.5871e-09
-1.90304e-08
-1.78086e-08
-1.54862e-08
-1.23814e-08
-8.69097e-09
-4.47935e-09
-6.57322e-10
2.71075e-09
5.17786e-09
6.44329e-09
-2.14287e-08
-2.02262e-08
-1.78803e-08
-1.46784e-08
-1.09046e-08
-6.79493e-09
-2.86024e-09
5.24008e-10
3.00907e-09
4.30807e-09
-2.34194e-08
-2.22224e-08
-1.98575e-08
-1.66268e-08
-1.28658e-08
-8.7619e-09
-4.75921e-09
-1.33592e-09
1.1684e-09
2.4966e-09
-2.48503e-08
-2.36292e-08
-2.12447e-08
-1.80365e-08
-1.43201e-08
-1.02224e-08
-6.16017e-09
-2.68721e-09
-1.43189e-10
1.23609e-09
-2.55812e-08
-2.43196e-08
-2.19439e-08
-1.87675e-08
-1.50824e-08
-1.09674e-08
-6.8774e-09
-3.36568e-09
-7.6995e-10
6.43708e-10
-1.16603e-08
-1.00371e-08
-7.03145e-09
-2.91885e-09
1.96637e-09
7.09231e-09
1.19883e-08
1.62187e-08
1.92873e-08
2.0862e-08
-1.26838e-08
-1.10633e-08
-8.05899e-09
-3.94805e-09
9.34075e-10
6.13016e-09
1.10612e-08
1.53302e-08
1.84031e-08
1.99568e-08
-1.46963e-08
-1.30781e-08
-1.00633e-08
-5.939e-09
-1.04383e-09
4.27407e-09
9.2905e-09
1.36153e-08
1.67208e-08
1.83125e-08
-1.74819e-08
-1.58685e-08
-1.28305e-08
-8.66217e-09
-3.6772e-09
1.73331e-09
6.88459e-09
1.13049e-08
1.44992e-08
1.61492e-08
-2.07447e-08
-1.91361e-08
-1.60479e-08
-1.17518e-08
-6.65934e-09
-1.18324e-09
4.11475e-09
8.63705e-09
1.19032e-08
1.35917e-08
-2.40345e-08
-2.23927e-08
-1.92102e-08
-1.4875e-08
-9.70547e-09
-4.12571e-09
1.28668e-09
5.89948e-09
9.18117e-09
1.08498e-08
-2.71671e-08
-2.55053e-08
-2.2247e-08
-1.77999e-08
-1.26041e-08
-6.91664e-09
-1.51755e-09
3.11247e-09
6.47371e-09
8.21911e-09
-2.97493e-08
-2.80435e-08
-2.47397e-08
-2.02597e-08
-1.50568e-08
-9.39537e-09
-3.90317e-09
7.7567e-10
4.19404e-09
6.01521e-09
-3.15623e-08
-2.98049e-08
-2.65035e-08
-2.20542e-08
-1.68913e-08
-1.12072e-08
-5.6473e-09
-8.86699e-10
2.60856e-09
4.48383e-09
-3.24595e-08
-3.06833e-08
-2.74073e-08
-2.29844e-08
-1.78569e-08
-1.21625e-08
-6.52763e-09
-1.69462e-09
1.83876e-09
3.70245e-09
-1.43737e-08
-1.22022e-08
-8.17055e-09
-2.63048e-09
3.93978e-09
1.09625e-08
1.76845e-08
2.34343e-08
2.75618e-08
2.96792e-08
-1.57388e-08
-1.35872e-08
-9.56897e-09
-4.02798e-09
2.56393e-09
9.65342e-09
1.64692e-08
2.22654e-08
2.64001e-08
2.8535e-08
-1.84179e-08
-1.62801e-08
-1.22375e-08
-6.6469e-09
7.76897e-12
7.26726e-09
1.41832e-08
2.00639e-08
2.42777e-08
2.64742e-08
-2.21343e-08
-1.99962e-08
-1.58804e-08
-1.0206e-08
-3.45075e-09
4.09207e-09
1.11036e-08
1.7109e-08
2.14361e-08
2.36598e-08
-2.65223e-08
-2.4358e-08
-2.01332e-08
-1.43008e-08
-7.49806e-09
4.24826e-10
7.56331e-09
1.36527e-08
1.8058e-08
2.03015e-08
-3.08859e-08
-2.86333e-08
-2.42919e-08
-1.82647e-08
-1.1032e-08
-3.80168e-09
3.81079e-09
1.01254e-08
1.45361e-08
1.68288e-08
-3.49195e-08
-3.25999e-08
-2.81309e-08
-2.20237e-08
-1.48423e-08
-7.14603e-09
3.19112e-10
6.66097e-09
1.12275e-08
1.3623e-08
-3.8259e-08
-3.58665e-08
-3.13348e-08
-2.51593e-08
-1.79296e-08
-1.01916e-08
-2.63889e-09
3.77627e-09
8.44453e-09
1.09228e-08
-4.06034e-08
-3.81717e-08
-3.36397e-08
-2.74633e-08
-2.02516e-08
-1.24274e-08
-4.78826e-09
1.72925e-09
6.46873e-09
8.96046e-09
-4.18009e-08
-3.93761e-08
-3.48537e-08
-2.8691e-08
-2.149e-08
-1.36261e-08
-5.88226e-09
6.90485e-10
5.42801e-09
7.91789e-09
-1.79341e-08
-1.50396e-08
-9.61128e-09
-2.10421e-09
6.81166e-09
1.63776e-08
2.55132e-08
3.3249e-08
3.88077e-08
4.17203e-08
-1.97979e-08
-1.69368e-08
-1.15057e-08
-3.94225e-09
5.06792e-09
1.46892e-08
2.39184e-08
3.17122e-08
3.7325e-08
4.02956e-08
-2.33995e-08
-2.05301e-08
-1.50144e-08
-7.32474e-09
1.81629e-09
1.1611e-08
2.09514e-08
2.88894e-08
3.46226e-08
3.76395e-08
-2.83581e-08
-2.54412e-08
-1.97829e-08
-1.19553e-08
-2.7036e-09
7.47274e-09
1.69378e-08
2.50622e-08
3.09181e-08
3.39439e-08
-3.41799e-08
-3.11898e-08
-2.53694e-08
-1.74023e-08
-8.17743e-09
2.70152e-09
1.23442e-08
2.05645e-08
2.654e-08
2.96056e-08
-4.00311e-08
-3.69048e-08
-3.09602e-08
-2.26572e-08
-1.27199e-08
-2.99024e-09
7.43767e-09
1.59986e-08
2.20089e-08
2.52267e-08
-4.53639e-08
-4.2148e-08
-3.60439e-08
-2.76532e-08
-1.76994e-08
-7.26022e-09
2.98666e-09
1.16327e-08
1.7857e-08
2.11604e-08
-4.98417e-08
-4.65502e-08
-4.03321e-08
-3.18027e-08
-2.17524e-08
-1.11214e-08
-7.88622e-10
7.97806e-09
1.43354e-08
1.76883e-08
-5.30472e-08
-4.97219e-08
-4.34582e-08
-3.48716e-08
-2.47711e-08
-1.39901e-08
-3.53828e-09
5.33506e-09
1.17429e-08
1.51053e-08
-5.47452e-08
-5.14199e-08