/*--------------------------------*- C++ -*----------------------------------*\
  =========                 |
  \\      /  F ield         | OpenFOAM: The Open Source CFD Toolbox
   \\    /   O peration     | Website:  https://openfoam.org
    \\  /    A nd           | Version:  9
     \\/     M anipulation  |
\*---------------------------------------------------------------------------*/
FoamFile
{
    format      ascii;
    class       surfaceScalarField;
    location    "60000";
    object      phi;
}
// * * * * * * * * * * * * * * * * * * * * * * * * * * * * * * * * * * * * * //

dimensions      [0 3 -1 0 0 0 0];

internalField   nonuniform List<scalar> 
25100
(
-1.05019e-05
7.03359e-05
-1000
-4.25839e-05
5.89232e-05
-1000
-4.96978e-05
5.89941e-05
-1000
-3.31838e-05
6.39924e-05
-1000
-9.21358e-05
5.96435e-05
-1000
-0.000135911
6.20672e-05
-1000
-0.000111962
5.9407e-05
-1000
-7.56452e-05
5.60313e-05
-1000
-3.47016e-05
5.76289e-05
-1000
6.17325e-05
-1000
-2.02809e-05
0.000100457
-1000
-4.582e-05
9.36765e-05
-1000
-4.48547e-05
0.000105053
-1000
-3.82249e-05
0.000113618
-1000
-8.85526e-05
0.000114565
-1000
-0.000143587
0.000114198
-1000
-0.000113409
0.00011856
-1000
-7.42296e-05
0.000118264
-1000
-3.16512e-05
0.00012391
-1000
0.000126455
-1000
-2.47144e-05
0.000146712
-999.999
-3.64278e-05
0.00015512
-1000
-3.45242e-05
0.00017455
-1000
-4.07457e-05
0.000179475
-1000
-8.31975e-05
0.000175598
-1000
-0.000133136
0.000174851
-1000
-0.000108836
0.000167603
-1000
-7.11141e-05
0.000159967
-1000
-2.78624e-05
0.000167031
-1000
0.000175052
-1000
-1.56231e-05
0.000197707
-999.999
-1.87468e-05
0.00022542
-999.999
-2.56962e-05
0.000247984
-999.999
-5.01911e-05
0.000229895
-999.999
-6.25371e-05
0.000176216
-999.999
-0.00016369
0.000262044
-1000
-0.000115766
0.000193384
-1000
-6.70834e-05
0.000177835
-1000
-1.81085e-05
0.000194542
-1000
0.000217984
-1000
1.27223e-05
0.000217793
-999.999
-1.10055e-07
0.000224421
-999.999
-1.88736e-05
0.000213467
-999.999
-9.94826e-05
0.000249586
-999.999
-3.59242e-05
0.000272375
-999.999
-0.000230491
0.000133312
-999.999
-0.000113816
0.000165952
-999.999
-4.32523e-05
0.000217517
-1000
6.49163e-06
0.000214697
-1000
0.000215965
-1000
1.27061e-05
0.000225801
-999.998
-3.72577e-06
0.000220772
-999.998
-4.77696e-05
0.000182888
-999.998
-3.08e-05
0.000139147
-999.998
-0.000219065
0.000110962
-999.999
-0.000109108
0.000212362
-999.999
-0.000118788
0.000212237
-999.999
-3.67033e-05
0.000221642
-999.999
5.07042e-06
0.000228017
-999.999
0.000215181
-999.999
3.02289e-06
0.000186213
-999.998
-3.32035e-05
0.000172449
-999.998
-6.8213e-05
0.000148171
-999.998
-7.1235e-05
0.000129863
-999.998
-0.000128783
0.000132722
-999.998
-0.000118636
0.00011746
-999.999
-7.85072e-05
0.000157362
-999.999
-3.48308e-05
0.000173957
-999.999
-8.6157e-06
0.000177241
-999.999
0.000168222
-999.999
-1.01545e-05
0.000123774
-999.998
-5.94709e-05
0.000110149
-999.998
-8.896e-05
9.64913e-05
-999.998
-8.71023e-05
8.31884e-05
-999.998
-8.54394e-05
7.78826e-05
-999.998
-0.000104087
7.79707e-05
-999.998
-6.66915e-05
0.000103183
-999.998
-3.54553e-05
0.000116012
-999.998
-1.51281e-05
0.00011819
-999.999
0.000115114
-999.999
-2.25353e-05
5.59469e-05
-999.997
-7.42547e-05
4.6418e-05
-999.997
-9.868e-05
4.24054e-05
-999.998
-0.000102216
3.74859e-05
-999.998
-8.24781e-05
3.58367e-05
-999.998
-7.80524e-05
3.51098e-05
-999.998
-5.28859e-05
5.30265e-05
-999.998
-3.27663e-05
5.71958e-05
-999.998
-1.67084e-05
5.87004e-05
-999.998
5.9582e-05
-999.998
-2.9556e-05
-999.997
-7.94388e-05
-999.997
-0.000100862
-999.997
-0.000107513
-999.998
-7.91926e-05
-999.998
-6.4223e-05
-999.998
-4.55738e-05
-999.998
-3.31287e-05
-999.998
-1.83923e-05
-999.998
-999.998
-4.24812e-05
0.000180752
-1000
-0.000122457
0.000150826
-1000
-0.000141363
0.000159764
-1000
-0.000127307
0.00017752
-1000
-0.000249521
0.000175717
-1000
-0.000349737
0.000176735
-1000
-0.000284576
0.000175764
-1000
-0.000190078
0.000172398
-1000
-8.68732e-05
0.000179719
-1000
0.000187157
-1000
-5.91999e-05
0.000278085
-1000
-0.000119761
0.000274927
-1000
-0.000123454
0.000311559
-1000
-0.000134395
0.000340338
-1000
-0.000248307
0.000362965
-1000
-0.000340361
0.000350116
-1000
-0.000284659
0.000355595
-1000
-0.000185396
0.000350179
-1000
-7.94615e-05
0.000359883
-1000
0.00036377
-1000
-6.07474e-05
0.000425459
-1000
-8.44972e-05
0.000459856
-1000
-9.18893e-05
0.000502769
-1000
-0.000119302
0.000503611
-1000
-0.000244603
0.000500412
-1000
-0.00033307
0.000487091
-1000
-0.00028229
0.000487164
-1000
-0.000181038
0.000473512
-1000
-7.13907e-05
0.000496962
-1000
0.000518267
-1000
-2.73238e-05
0.000581229
-999.999
-4.28908e-05
0.000648173
-999.999
-8.02094e-05
0.000671563
-999.999
-0.000139752
0.000603903
-999.999
-0.00020569
0.000486781
-1000
-0.000396458
0.00066192
-1000
-0.000291462
0.00057743
-1000
-0.000163109
0.000564511
-1000
-5.09179e-05
0.000615542
-1000
0.000657674
-1000
3.42006e-05
0.000611486
-999.999
-2.18691e-05
0.000616364
-999.999
-9.031e-05
0.000571591
-999.999
-0.000295993
0.000641132
-999.999
-0.000135109
0.00067444
-999.999
-0.000513017
0.000446358
-999.999
-0.000259005
0.000433528
-999.999
-0.000103412
0.000571836
-1000
-5.26832e-06
0.000585404
-1000
0.000592031
-1000
2.53684e-05
0.00062098
-999.998
-4.38769e-05
0.000582836
-999.998
-0.000172055
0.000501396
-999.998
-0.000126784
0.00042382
-999.999
-0.000475076
0.000362657
-999.999
-0.000275135
0.000527567
-999.999
-0.000245047
0.00057498
-999.999
-7.96308e-05
0.000581934
-999.999
-4.12973e-06
0.000569736
-999.999
0.000522743
-999.999
-6.44638e-06
0.000502193
-999.998
-0.000120366
0.0004623
-999.998
-0.000202862
0.000409676
-999.998
-0.000188546
0.000362392
-999.998
-0.000343963
0.000355317
-999.998
-0.000263849
0.000366944
-999.999
-0.000171475
0.000439269
-999.999
-9.23219e-05
0.000460593
-999.999
-4.23046e-05
0.000456222
-999.999
0.000438492
-999.999
-4.40915e-05
0.000333963
-999.998
-0.000176114
0.000303288
-999.998
-0.00024563
0.000277816
-999.998
-0.000237666
0.000250335
-999.998
-0.000248691
0.000247781
-999.998
-0.000226628
0.000250687
-999.998
-0.00015514
0.000299846
-999.998
-9.87932e-05
0.000316545
-999.998
-5.63212e-05
0.000317767
-999.999
0.000314001
-999.999
-7.2819e-05
0.000151919
-999.997
-0.000205469
0.000131224
-999.997
-0.000265477
0.000126513
-999.998
-0.000266509
0.00012137
-999.998
-0.000222647
0.000131826
-999.998
-0.00018
0.000133285
-999.998
-0.000133122
0.000157592
-999.998
-9.56899e-05
0.000163048
-999.998
-5.80382e-05
0.000164695
-999.998
0.00016387
-999.998
-8.72061e-05
-999.997
-0.000213431
-999.997
-0.000262821
-999.997
-0.000264391
-999.998
-0.000212749
-999.998
-0.000159718
-999.998
-0.00012875
-999.998
-0.000100477
-999.998
-6.26663e-05
-999.998
-999.998
-8.45187e-05
0.000297078
-1000
-0.000211612
0.000271947
-1000
-0.000262303
0.00029558
-1000
-0.000292712
0.000330763
-1000
-0.000424731
0.000358605
-1000
-0.000498451
0.000352551
-1000
-0.000431258
0.000342038
-1000
-0.000290801
0.000331932
-1000
-0.00013654
0.000335984
-1000
0.00033801
-1000
-0.00010134
0.000505769
-1000
-0.000193466
0.00051988
-1000
-0.000231461
0.000575296
-1000
-0.000268247
0.000620513
-1000
-0.000434755
0.000672674
-1000
-0.000508983
0.000649557
-1000
-0.000439562
0.000643645
-1000
-0.000288648
0.000631135
-1000
-0.000128569
0.00063968
-1000
0.000645036
-1000
-8.50165e-05
0.000778809
-1000
-0.00014154
0.000826357
-1000
-0.000184936
0.000864702
-1000
-0.000218957
0.000850754
-1000
-0.000445581
0.00085398
-1000
-0.000514603
0.00081797
-1000
-0.000442841
0.000853586
-1000
-0.000282862
0.000863823
-1000
-0.000122681
0.000899441
-1000
0.000915813
-1000
-3.67944e-05
0.00104177
-999.999
-0.000104737
0.00109107
-999.999
-0.000185279
0.00107678
-1000
-0.000256964
0.000978802
-1000
-0.000456926
0.000885513
-1000
-0.000523529
0.00091203
-1000
-0.000423981
0.000989965
-1000
-0.00025033
0.00104561
-1000
-0.000101418
0.00111194
-1000
0.00112825
-1000
1.06637e-05
0.00105547
-999.999
-0.000122006
0.00104275
-999.999
-0.000230494
0.000971628
-999.999
-0.000444906
0.000975363
-999.999
-0.000462322
0.000859938
-999.999
-0.000550646
0.00105305
-1000
-0.000350575
0.000880851
-1000
-0.000187
0.000985192
-1000
-8.24892e-05
0.00100688
-1000
0.00101443
-1000
-6.14573e-06
0.00101454
-999.998
-0.000175367
0.000961046
-999.998
-0.000342932
0.000891811
-999.999
-0.000356141
0.000856805
-999.999
-0.0004064
0.00085866
-999.999
-0.00042829
0.000823044
-999.999
-0.000329537
0.000918496
-999.999
-0.000159694
0.000927929
-999.999
-7.4836e-05
0.000894963
-999.999
0.000842176
-1000
-6.49429e-05
0.000840371
-999.998
-0.000245198
0.000795639
-999.998
-0.000352534
0.000744961
-999.998
-0.000376669
0.000695126
-999.998
-0.000462357
0.000703517
-999.998
-0.000375801
0.000687211
-999.998
-0.000271465
0.0007615
-999.999
-0.000187219
0.00077221
-999.999
-0.000120067
0.000760459
-999.999
0.000748052
-999.999
-0.000107089
0.000575596
-999.997
-0.000300812
0.00054518
-999.997
-0.000390648
0.000519951
-999.998
-0.000403976
0.00049488
-999.998
-0.00039856
0.000514975
-999.998
-0.000328406
0.000513381
-999.998
-0.000262688
0.000548672
-999.998
-0.000199345
0.000554014
-999.998
-0.000129284
0.000551011
-999.999
0.000547385
-999.999
-0.000134022
0.00026993
-999.997
-0.000331647
0.000247497
-999.997
-0.000411806
0.00024659
-999.997
-0.000412947
0.000252992
-999.997
-0.000377113
0.000288551
-999.998
-0.000299454
0.00028957
-999.998
-0.000252581
0.000294937
-999.998
-0.000200927
0.000289195
-999.998
-0.000130869
0.000282172
-999.998
0.000272007
-999.998
-0.000154584
-999.997
-0.000335401
-999.997
-0.000400053
-999.997
-0.000395173
-999.997
-0.000368751
-999.997
-0.000298532
-999.998
-0.000257711
-999.998
-0.000211321
-999.998
-0.000140529
-999.998
-999.998
-0.000124742
0.000465951
-1000
-0.000315622
0.000451191
-1000
-0.000420532
0.000480901
-1000
-0.00048742
0.000520775
-1000
-0.00063678
0.000565912
-1000
-0.000701849
0.000565893
-1000
-0.00059057
0.000528616
-1000
-0.000399046
0.000513547
-1000
-0.000191082
0.000515118
-1000
0.000517893
-1000
-0.000135253
0.000814697
-1000
-0.000289616
0.000834738
-1000
-0.000386484
0.000886854
-1000
-0.000446461
0.000927201
-1000
-0.000639746
0.000975689
-1000
-0.000739885
0.000974908
-1000
-0.000603707
0.000964542
-1000
-0.000398189
0.000957667
-1000
-0.000185716
0.000966151
-1000
0.00096564
-1000
-0.000112907
0.00120656
-1000
-0.000240071
0.00123427
-1000
-0.000339087
0.00124862
-1000
-0.000396927
0.00122792
-1000
-0.000636053
0.00124294
-1000
-0.000747042
0.00120324
-1000
-0.000602127
0.00128337
-1000
-0.000392724
0.00131797
-1000
-0.000184782
0.00134036
-1000
0.00133237
-1000
-8.25813e-05
0.00154401
-999.999
-0.000232736
0.0015406
-1000
-0.000347332
0.00148838
-1000
-0.000408221
0.00142022
-1000
-0.0006801
0.00144384
-1000
-0.000670667
0.00128699
-1000
-0.000565654
0.00146453
-1000
-0.000374162
0.00155448
-1000
-0.000188521
0.00159231
-1000
0.00157164
-1000
-9.32983e-05
0.00156448
-999.999
-0.000288054
0.00155302
-999.999
-0.00039427
0.00149156
-999.999
-0.000505942
0.00143066
-999.999
-0.00079673
0.00113579
-1000
-0.000562281
0.00177778
-1000
-0.000480037
0.00151873
-1000
-0.000340649
0.00153084
-1000
-0.000209087
0.00152636
-1000
0.0015241
-1000
-0.000110317
0.00145594
-999.998
-0.000337585
0.00142033
-999.998
-0.000505294
0.00138547
-999.998
-0.000626514
0.00138773
-999.999
-0.000427946
0.00146172
-999.999
-0.000624893
0.00123296
-999.999
-0.00050435
0.00133778
-999.999
-0.000337657
0.00135772
-1000
-0.000209297
0.00133965
-1000
0.0013156
-1000
-0.000150609
0.00125212
-999.998
-0.000368218
0.00122543
-999.998
-0.000492888
0.00118522
-999.998
-0.000588415
0.00114582
-999.998
-0.000538368
0.0011912
-999.998
-0.000561345
0.00107315
-999.998
-0.000459078
0.00115863
-999.999
-0.000353493
0.00117055
-999.999
-0.0002267
0.00116535
-999.999
0.00116068
-999.999
-0.000177636
0.000884682
-999.997
-0.000411842
0.000861311
-999.997
-0.000525363
0.00083711
-999.997
-0.000568656
0.000821122
-999.997
-0.000539724
0.000873306
-999.998
-0.000517557
0.000845879
-999.998
-0.000454568
0.000862459
-999.998
-0.000361549
0.00085826
-999.998
-0.000228254
0.00085076
-999.999
0.000843892
-999.999
-0.000203963
0.000426835
-999.997
-0.000440392
0.000404686
-999.997
-0.000540017
0.000408351
-999.997
-0.000559604
0.000429939
-999.997
-0.000556872
0.000483393
-999.997
-0.000503993
0.000478113
-999.997
-0.000454335
0.00046087
-999.998
-0.00036788
0.000442546
-999.998
-0.000233387
0.000426847
-999.998
0.000416917
-999.998
-0.000227729
-999.996
-0.000434107
-999.997
-0.000516135
-999.997
-0.000514888
-999.997
-0.000558679
-999.997
-0.000520676
-999.997
-0.000470958
-999.998
-0.000383595
-999.998
-0.000243416
-999.998
-999.998
-0.000176094
0.00069421
-1000
-0.000454452
0.000678541
-1000
-0.000636553
0.000701102
-1000
-0.000742519
0.000725795
-1000
-0.00090558
0.000746342
-1000
-0.000964809
0.000759343
-1000
-0.000777569
0.000730874
-1000
-0.000521707
0.000728565
-1000
-0.000252384
0.000735864
-1000
0.000735505
-1000
-0.000190988
0.00121029
-1000
-0.000437387
0.00121934
-1000
-0.000613838
0.00125535
-1000
-0.000728148
0.00128342
-1000
-0.000892611
0.00131711
-1000
-0.000996817
0.00134358
-1000
-0.00078191
0.00135366
-1000
-0.000516529
0.00135609
-1000
-0.00025168
0.00135156
-1000
0.00133364
-1000
-0.000181225
0.00172068
-1000
-0.000402977
0.00172248
-1000
-0.000578366
0.0017258
-1000
-0.000697841
0.0017173
-1000
-0.000851358
0.00176058
-1000
-0.000992956
0.00176544
-1000
-0.00077716
0.00183666
-1000
-0.000520941
0.00184692
-1000
-0.000266918
0.00183221
-1000
0.0017966
-1000
-0.000181097
0.00211764
-1000
-0.000404536
0.00208708
-1000
-0.000576968
0.00205185
-1000
-0.000675888
0.00202578
-1000
-0.000820396
0.00214529
-1000
-0.000935893
0.00203331
-1000
-0.000765694
0.00211447
-1000
-0.000540039
0.00213511
-1000
-0.000299019
0.00211537
-1000
0.0020744
-1000
-0.000220788
0.00220558
-999.999
-0.00044395
0.00220285
-999.999
-0.000574312
0.00217909
-999.999
-0.000699416
0.00219036
-999.999
-0.000892106
0.00195702
-1000
-0.000950197
0.00236833
-1000
-0.000751002
0.00221368
-1000
-0.000556928
0.00221397
-1000
-0.000334379
0.00219003
-1000
0.00217444
-1000
-0.000226913
0.00206693
-999.998
-0.000461557
0.00206256
-999.998
-0.000626087
0.00203358
-999.998
-0.000787509
0.0019954
-999.998
-0.000950751
0.00205877
-999.999
-0.00087062
0.00190038
-999.999
-0.000785688
0.00197121
-1000
-0.000585643
0.00199135
-1000
-0.000349101
0.00199512
-1000
0.00199269
-1000
-0.000234264
0.00179927
-999.997
-0.000481438
0.00178212
-999.997
-0.000633401
0.00174276
-999.997
-0.000770476
0.00170863
-999.998
-0.000722878
0.00175042
-999.998
-0.000856652
0.00164104
-999.998
-0.000746225
0.00170667
-999.999
-0.000577097
0.00171664
-999.999
-0.000340062
0.0017176
-999.999
0.00171453
-999.999
-0.000252996
0.00128214
-999.996
-0.000523018
0.00125708
-999.997
-0.000668167
0.00123711
-999.997
-0.00073918
0.00123888
-999.997
-0.000763611
0.00130288
-999.997
-0.000829884
0.00126425
-999.998
-0.000742413
0.00126776
-999.998
-0.00058061
0.00125403
-999.998
-0.000339569
0.00124206
-999.999
0.00123598
-999.999
-0.000283924
0.000627583
-999.996
-0.000545085
0.000607081
-999.996
-0.000666374
0.000620182
-999.996
-0.000695952
0.000652509
-999.996
-0.000790607
0.00071066
-999.997
-0.000830221
0.000696667
-999.997
-0.000752183
0.000661641
-999.997
-0.000591616
0.000638152
-999.998
-0.000343447
0.00062785
-999.998
0.000631517
-999.998
-0.000308014
-999.996
-0.000530692
-999.996
-0.000631531
-999.996
-0.000645492
-999.996
-0.000800385
-999.996
-0.000863555
-999.997
-0.000774343
-999.997
-0.000600026
-999.997
-0.000338637
-999.998
-999.998
-0.000277167
0.000969169
-1000
-0.000663602
0.000945553
-1000
-0.000935731
0.000956072
-1000
-0.00110613
0.000967101
-1000
-0.00123891
0.000972657
-1000
-0.00124547
0.00099319
-1000
-0.00099664
0.000994262
-1000
-0.000672302
0.00100716
-1000
-0.000335014
0.00101366
-1000
0.000998508
-1000
-0.000302139
0.00171491
-1000
-0.000656215
0.00171547
-1000
-0.000925981
0.00174471
-1000
-0.00110456
0.00177395
-1000
-0.00122109
0.00180368
-1000
-0.0012479
0.0018471
-1000
-0.000988389
0.00186266
-1000
-0.000667571
0.00185708
-1000
-0.000350036
0.00183324
-1000
0.00179905
-1000
-0.000306341
0.00239442
-1000
-0.000627188
0.00239569
-1000
-0.000892079
0.00241656
-1000
-0.00108036
0.00243228
-1000
-0.00116807
0.00247331
-1000
-0.00123807
0.00254654
-1000
-0.000993508
0.00254991
-1000
-0.00069129
0.00251435
-1000
-0.000380875
0.00246567
-1000
0.0024214
-1000
-0.000310547
0.00288404
-1000
-0.000607483
0.00288733
-1000
-0.00086862
0.00290373
-1000
-0.00105949
0.00289983
-1000
-0.00106909
0.00291965
-1000
-0.00125026
0.003078
-1000
-0.00102492
0.00297908
-1000
-0.000739901
0.00291003
-1000
-0.000419349
0.00284701
-1000
0.00280448
-1000
-0.000321107
0.00307533
-999.999
-0.000597767
0.00308234
-999.999
-0.000843322
0.00308001
-999.999
-0.0011132
0.0031614
-1000
-0.000976672
0.00317067
-1000
-0.00137531
0.00293744
-1000
-0.00109045
0.00301717
-1000
-0.00080026
0.00307305
-1000
-0.000454078
0.00305398
-1000
0.00303425
-1000
-0.000317162
0.00294045
-999.998
-0.00058528
0.00293936
-999.998
-0.000812095
0.00289113
-999.998
-0.000962718
0.00282529
-999.998
-0.00159356
0.00278959
-999.999
-0.00119892
0.00287388
-999.999
-0.00108952
0.00287938
-1000
-0.000829669
0.00287425
-1000
-0.000469666
0.00287709
-1000
0.00288372
-1000
-0.000326296
0.00251653
-999.996
-0.000637398
0.00248868
-999.997
-0.000853153
0.00244794
-999.997
-0.000976102
0.00241995
-999.997
-0.00116413
0.0024471
-999.998
-0.00120574
0.00244408
-999.998
-0.00107926
0.00245844
-999.999
-0.000821691
0.00244603
-999.999
-0.000448162
0.00244393
-999.999
0.00244455
-999.999
-0.000356269
0.00178705
-999.995
-0.000674892
0.0017598
-999.996
-0.000872418
0.0017556
-999.996
-0.000985803
0.00177691
-999.996
-0.00112989
0.00182947
-999.997
-0.00122456
0.00181141
-999.997
-0.00109082
0.00179233
-999.998
-0.000827189
0.00176863
-999.998
-0.000442264
0.00176369
-999.998
0.00177236
-999.998
-0.000389718
0.000890397
-999.995
-0.000682643
0.00088343
-999.995
-0.000851609
0.000911106
-999.995
-0.000938919
0.000944878
-999.995
-0.00113166
0.000979141
-999.996
-0.0012502
0.000964658
-999.996
-0.00111362
0.000916273
-999.997
-0.000832163
0.00090519
-999.997
-0.00042958
0.000921182
-999.997
0.000944784
-999.998
-0.000398679
-999.994
-0.000655742
-999.994
-0.000817133
-999.995
-0.000904852
-999.995
-0.00114341
-999.996
-0.00129386
-999.996
-0.00112142
-999.996
-0.000812877
-999.997
-0.000403027
-999.997
-999.997
-0.000452382
0.00130141
-1000
-0.000943362
0.00128259
-1000
-0.00131194
0.00129556
-1000
-0.00154665
0.00130979
-1000
-0.0016542
0.00132232
-1000
-0.00158936
0.00133651
-1000.01
-0.00129256
0.00135585
-1000.01
-0.000894243
0.00137111
-1000.01
-0.000470907
0.00136783
-1000.01
0.00133524
-1000.01
-0.000476896
0.00240245
-1000
-0.000933667
0.00241263
-1000
-0.00130094
0.00244724
-1000
-0.00153844
0.0024816
-1000
-0.00164576
0.0025048
-1000
-0.00157293
0.00252387
-1000
-0.00128172
0.00253873
-1000.01
-0.000899863
0.00252417
-1000.01
-0.000501294
0.00248923
-1000.01
0.00245422
-1000.01
-0.000472896
0.00335246
-1000
-0.000899172
0.00337773
-1000
-0.00126573
0.00341754
-1000
-0.001516
0.0034448
-1000
-0.00162114
0.0034466
-1000
-0.00155596
0.00350878
-1000
-0.00129925
0.00348468
-1000
-0.000935453
0.00343329
-1000
-0.000530976
0.00337865
-1000.01
0.00334639
-1000.01
-0.00045343
0.00401398
-1000
-0.000858269
0.00406293
-1000
-0.00123117
0.00410266
-1000
-0.00150329
0.00409986
-1000
-0.00158235
0.00403275
-1000
-0.00157854
0.00419767
-1000
-0.00134436
0.00410429
-1000
-0.000985826
0.00402083
-1000
-0.0005546
0.00394596
-1000
0.00391652
-1000
-0.000419339
0.00427335
-999.999
-0.000828817
0.00427382
-999.999
-0.00123158
0.0042651
-999.999
-0.00156472
0.00428871
-1000
-0.00142606
0.00444691
-1000
-0.0016878
0.00409961
-1000
-0.00145616
0.00417759
-1000
-0.00106671
0.00421952
-1000
-0.000578587
0.00421854
-1000
0.00420616
-1000
-0.000420539
0.00409636
-999.997
-0.000822941
0.00406974
-999.997
-0.0011701
0.00402965
-999.998
-0.00138709
0.00400799
-999.998
-0.0018068
0.00399275
-999.999
-0.00163471
0.00404349
-999.999
-0.00140624
0.00405404
-1000
-0.0010673
0.00403441
-1000
-0.00058084
0.00402793
-1000
0.00403839
-1000
-0.00046473
0.00345246
-999.995
-0.000886763
0.00341662
-999.996
-0.00120482
0.00339304
-999.996
-0.00136549
0.00338886
-999.996
-0.00169006
0.00339333
-999.997
-0.00161977
0.00347353
-999.998
-0.00144437
0.00344151
-999.998
-0.00107429
0.00340872
-999.999
-0.000553572
0.00340871
-999.999
0.00342122
-999.999
-0.000505676
0.00245895
-999.994
-0.000900472
0.00244852
-999.994
-0.00119159
0.00246741
-999.995
-0.00137939
0.00249693
-999.995
-0.0016346
0.0025124
-999.996
-0.00167168
0.00251729
-999.996
-0.00147106
0.00247708
-999.997
-0.00107398
0.00246047
-999.997
-0.000532211
0.00248161
-999.998
0.00250818
-999.998
-0.000526172
0.00126572
-999.993
-0.000886336
0.00128697
-999.993
-0.00116615
0.00131588
-999.994
-0.00136349
0.00132794
-999.994
-0.00161201
0.00130619
-999.995
-0.00171973
0.00129689
-999.995
-0.00148755
0.00126544
-999.996
-0.00105243
0.00128955
-999.996
-0.000498857
0.00133425
-999.997
0.00135963
-999.997
-0.000507498
-999.993
-0.000856704
-999.993
-0.00115198
-999.993
-0.00138041
-999.994
-0.00161938
-999.994
-0.00174623
-999.995
-0.00145873
-999.995
-0.00100404
-999.996
-0.000467465
-999.996
-999.996
-0.000687665
0.00175771
-1000
-0.00128721
0.00176531
-1000
-0.0017713
0.00178833
-1000.01
-0.00208557
0.00180268
-1000.01
-0.0021996
0.00180681
-1000.01
-0.00208857
0.00180786
-1000.01
-0.00172884
0.00183948
-1000.01
-0.00123518
0.00184872
-1000.01
-0.000672529
0.00183539
-1000.01
0.00180129
-1000.01
-0.000686618
0.00337728
-1000
-0.00126885
0.00340697
-1000
-0.00176111
0.00343768
-1000
-0.00208878
0.00345678
-1000.01
-0.00220374
0.00346558
-1000.01
-0.00206147
0.003441
-1000.01
-0.00172349
0.0034684
-1000.01
-0.00125069
0.00345028
-1000.01
-0.000703733
0.00342071
-1000.01
0.00339918
-1000.01
-0.000663598
0.00471394
-1000
-0.00123916
0.00475614
-1000
-0.00174236
0.00478488
-1000
-0.00208164
0.00480388
-1000
-0.00222252
0.00480902
-1000
-0.00203182
0.0047688
-1000.01
-0.00174421
0.00477519
-1000.01
-0.00128137
0.0047353
-1000.01
-0.00071892
0.0046987
-1000.01
0.00468225
-1000.01
-0.000631115
0.00561751
-1000
-0.00121164
0.00566155
-1000
-0.00172081
0.00567938
-1000
-0.00205332
0.0056928
-1000
-0.00229866
0.00568772
-1000
-0.00201585
0.00561049
-1000
-0.00177659
0.00560797
-1000
-0.00131324
0.00557617
-1000
-0.000722255
0.0055304
-1000.01
0.0055181
-1000.01
-0.00059747
0.00590649
-999.998
-0.00119766
0.00589995
-999.998
-0.00171371
0.00586902
-999.999
-0.00202028
0.00580149
-1000
-0.00237339
0.0057413
-1000
-0.00202955
0.00606507
-1000
-0.00185517
0.00587622
-1000
-0.00136949
0.00583586
-1000
-0.000725641
0.0058344
-1000
0.00582824
-1000
-0.00061394
0.00561531
-999.996
-0.00122433
0.00557877
-999.996
-0.00172901
0.00557118
-999.997
-0.00208145
0.00563244
-999.997
-0.00205175
0.00570738
-999.999
-0.002302
0.00544376
-999.999
-0.00186359
0.00556164
-1000
-0.00136016
0.00556027
-1000
-0.000714683
0.00556046
-1000
0.00557269
-1000
-0.000670582
0.00472377
-999.994
-0.00123827
0.00470871
-999.994
-0.00169411
0.00471652
-999.995
-0.00200336
0.00473906
-999.995
-0.0022158
0.00473131
-999.996
-0.00219034
0.00473609
-999.997
-0.00188712
0.00472536
-999.998
-0.00136576
0.0047081
-999.998
-0.000688054
0.0047296
-999.999
0.00475512
-999.999
-0.000698263
0.00341097
-999.992
-0.0012264
0.00343122
-999.992
-0.00167135
0.00345567
-999.993
-0.00199716
0.00346144
-999.993
-0.00224784
0.00341996
-999.994
-0.00221469
0.00342085
-999.995
-0.00190012
0.00339834
-999.996
-0.00134248
0.00342009
-999.996
-0.000650289
0.0034703
-999.997
0.00349632
-999.997
-0.00068751
0.00180897
-999.991
-0.00120317
0.00184676
-999.991
-0.00167077
0.00185426
-999.991
-0.00203568
0.00182417
-999.992
-0.00224491
0.00174012
-999.993
-0.00223943
0.00173608
-999.994
-0.00187668
0.00176702
-999.995
-0.00129093
0.00182659
-999.995
-0.000615251
0.00187146
-999.995
0.00187372
-999.996
-0.000650648
-999.99
-0.00119311
-999.99
-0.00169684
-999.991
-0.00210726
-999.991
-0.00224886
-999.992
-0.00220546
-999.993
-0.00181141
-999.994
-0.00124194
-999.994
-0.000606083
-999.995
-999.995
-0.000952437
0.00243084
-1000.01
-0.00172434
0.00246612
-1000.01
-0.00238334
0.00248723
-1000.01
-0.00284378
0.00248516
-1000.01
-0.00296055
0.00247398
-1000.01
-0.00279391
0.00246436
-1000.01
-0.00236141
0.00250177
-1000.01
-0.00172687
0.00250095
-1000.01
-0.00094125
0.00248757
-1000.01
0.00246786
-1000.01
-0.000926484
0.0047331
-1000
-0.00171031
0.0047699
-1000.01
-0.00239029
0.00477795
-1000.01
-0.0028661
0.00476886
-1000.01
-0.00297252
0.00477329
-1000.01
-0.00276479
0.00472633
-1000.01
-0.00236687
0.00475393
-1000.01
-0.00174491
0.00473468
-1000.01
-0.000958423
0.00472055
-1000.01
0.00471019
-1000.01
-0.000899688
0.00656627
-1000
-0.00170385
0.00659693
-1000
-0.00239757
0.00659534
-1000
-0.00286685
0.00659845
-1000
-0.0030109
0.00664344
-1000.01
-0.00274146
0.00651289
-1000.01
-0.00238443
0.00654826
-1000.01
-0.00176007
0.00652765
-1000.01
-0.000959156
0.00651376
-1000.01
0.00650003
-1000.01
-0.000884577
0.00774737
-1000
-0.00171099
0.00775526
-1000
-0.00239529
0.00774985
-1000
-0.00282014
0.00778443
-1000
-0.00312631
0.00786187
-1000
-0.00270546
0.00758907
-1000
-0.00239877
0.00765079
-1000.01
-0.0017722
0.00767569
-1000.01
-0.000955303
0.00767187
-1000.01
0.00766243
-1000.01
-0.000891422
0.0081123
-999.998
-0.00170983
0.00811188
-999.998
-0.00234099
0.00807665
-999.999
-0.00267342
0.00797201
-1000
-0.00350578
0.00761729
-1000
-0.00263905
0.00856786
-1000
-0.00238268
0.00816548
-1000
-0.00177936
0.00808486
-1000
-0.000947858
0.00806721
-1000
0.00805907
-1000
-0.000914326
0.00767908
-999.995
-0.00175259
0.00767172
-999.995
-0.00246134
0.00770793
-999.996
-0.00297485
0.00778573
-999.997
-0.00249354
0.00786942
-999.998
-0.00308236
0.00746959
-999.999
-0.0025011
0.00762831
-1000
-0.00179262
0.00764642
-1000
-0.000935786
0.00766999
-1000
0.00768801
-1000
-0.000939783
0.00651004
-999.992
-0.00171276
0.00653148
-999.992
-0.00236441
0.00655062
-999.993
-0.00287935
0.0065537
-999.994
-0.00292351
0.00656549
-999.995
-0.00293583
0.00644093
-999.996
-0.00247587
0.00648182
-999.997
-0.00176831
0.00650765
-999.998
-0.000899608
0.00655674
-999.998
0.00657824
-999.999
-0.000934631
0.00475697
-999.989
-0.00169584
0.00479626
-999.989
-0.00236551
0.00479868
-999.99
-0.00287669
0.00475415
-999.991
-0.00302604
0.00466751
-999.992
-0.00292273
0.00463876
-999.993
-0.00245078
0.00468286
-999.994
-0.0017191
0.00474842
-999.995
-0.000863166
0.0048008
-999.996
0.00480082
-999.996
-0.000905163
0.00255124
-999.987
-0.00169292
0.00257908
-999.988
-0.00241011
0.00255176
-999.988
-0.0029633
0.00248413
-999.989
-0.00306179
0.00238899
-999.991
-0.0028783
0.00237991
-999.992
-0.00238156
0.00247663
-999.993
-0.00166491
0.00253664
-999.993
-0.0008521
0.00254833
-999.994
0.00251837
-999.994
-0.000880449
-999.986
-0.00171599
-999.987
-0.00247178
-999.987
-0.00304902
-999.988
-0.00306313
-999.99
-0.00277728
-999.991
-0.00231562
-999.992
-0.00164854
-999.992
-0.000872002
-999.993
-999.994
-0.00126366
0.00339368
-1000.01
-0.00232756
0.00343631
-1000.01
-0.00323903
0.00344101
-1000.01
-0.00387975
0.00342383
-1000.01
-0.00403859
0.00342011
-1000.01
-0.00379965
0.00340692
-1000.01
-0.00326455
0.00341965
-1000.01
-0.0024017
0.00340755
-1000.02
-0.0012863
0.00340043
-1000.02
0.0033928
-1000.02
-0.00123373
0.00655401
-1000.01
-0.00233197
0.00657749
-1000.01
-0.0032638
0.00655844
-1000.01
-0.00389688
0.0065283
-1000.01
-0.00405555
0.00652512
-1000.01
-0.00379981
0.00648667
-1000.01
-0.00328378
0.00649275
-1000.01
-0.00241522
0.00647872
-1000.01
-0.00128943
0.00647728
-1000.02
0.00646523
-1000.02
-0.0012247
0.00901972
-1000
-0.00235295
0.00902396
-1000
-0.0032897
0.00899903
-1000.01
-0.00390622
0.00897802
-1000.01
-0.00408578
0.00901294
-1000.01
-0.00380209
0.00887399
-1000.01
-0.00329347
0.00893125
-1000.01
-0.00241694
0.00893082
-1000.01
-0.00128712
0.00892879
-1000.01
0.00890763
-1000.01
-0.00124323
0.0105573
-1000
-0.00238523
0.0105471
-1000
-0.0033089
0.010536
-1000
-0.00390223
0.0105475
-1000
-0.00413095
0.0105866
-1000
-0.00377128
0.0103037
-1000.01
-0.0032879
0.0104148
-1000.01
-0.0024201
0.0104761
-1000.01
-0.00128682
0.0104946
-1000.01
0.0104846
-1000.01
-0.00127572
0.0110913
-999.997
-0.00238805
0.0111075
-999.997
-0.00324358
0.0110886
-999.998
-0.00377394
0.0110328
-1000
-0.00461294
0.0105837
-1000
-0.00364427
0.0115498
-1000
-0.00320439
0.011189
-1000
-0.00239762
0.0111231
-1000.01
-0.00127024
0.011098
-1000.01
0.0110797
-1000.01
-0.00129024
0.010538
-999.993
-0.00241558
0.0105686
-999.993
-0.00338259
0.0106042
-999.994
-0.00412172
0.0106521
-999.995
-0.00354094
0.0107149
-999.997
-0.00396416
0.0104438
-999.999
-0.0033581
0.0105109
-1000
-0.00242591
0.010542
-1000
-0.00126629
0.0105917
-1000
0.0106042
-1000
-0.00128109
0.00898556
-999.989
-0.00237154
0.00902931
-999.989
-0.00329416
0.00903311
-999.99
-0.00401056
0.00900513
-999.991
-0.00399294
0.00902153
-999.993
-0.00390973
0.00884288
-999.994
-0.00330464
0.00892489
-999.996
-0.00236839
0.00898356
-999.997
-0.00122714
0.00903352
-999.998
0.00902095
-999.998
-0.00125822
0.00658753
-999.985
-0.00237318
0.00662076
-999.986
-0.00332763
0.00659059
-999.987
-0.00403144
0.00650961
-999.988
-0.0040933
0.00642075
-999.99
-0.00388287
0.00637283
-999.991
-0.00324873
0.0064713
-999.992
-0.00232085
0.00653881
-999.994
-0.00122041
0.00655782
-999.995
0.00652277
-999.995
-0.00123892
0.00351727
-999.983
-0.00240246
0.00351888
-999.983
-0.00340435
0.00347071
-999.984
-0.00412644
0.00339951
-999.986
-0.00414515
0.00334985
-999.987
-0.00378691
0.00333857
-999.989
-0.00317621
0.00343693
-999.99
-0.00230088
0.0034542
-999.991
-0.00124013
0.00342684
-999.992
0.00338376
-999.993
-0.00124228
-999.981
-0.00244523
-999.982
-0.0034666
-999.983
-0.00416748
-999.984
-0.00414343
-999.986
-0.00368244
-999.987
-0.00315137
-999.989
-0.0023221
-999.99
-0.00127087
-999.991
-999.991
-0.00167989
0.00470272
-1000.01
-0.00318524
0.00472932
-1000.01
-0.00442395
0.00471512