FoamFile
{version 2.0; format ascii;class Cloud<passiveParticle>; location 0;object  positions;}
346
(
( 216.488 -887.639 497.723 ) 0 
( 1939.59 -789.951 498.793 ) 0 
( 2920.13 -986.284 498.731 ) 0 
( 4386.37 -2099.28 497.817 ) 0 
( 2181.53 -1759.64 498.28 ) 0 
( 1352.93 -2317.78 498.698 ) 0 
( 387.508 -2054.35 496.866 ) 0 
( 4070.2 -984.588 498.577 ) 0 
( 2612.42 -4772.15 497.749 ) 0 
( 2175.96 -2884.05 498.516 ) 0 
( 3598.06 -78.3943 497.635 ) 0 
( 4666.57 -4819.15 497.921 ) 0 
( 4777.38 -3087.29 498.354 ) 0 
( 3700.54 -3071.86 498.502 ) 0 
( 4651.56 -1423.26 1183.83 ) 0 
( 632.947 -4519.73 498.831 ) 0 
( 1164.23 -3673.03 498.568 ) 0 
( 3146.86 -3903.68 497.832 ) 0 
( 4598.77 -134.252 497.949 ) 0 
( 3684.49 -4162.01 1299.2 ) 0 
( 3417.44 -1854.9 497.342 ) 0 
( 2147.44 -3882.41 499.183 ) 0 
( 4227.09 -3921.36 497.193 ) 0 
( 143.882 -4228.9 1322.93 ) 0 
( 1106.03 -1349.62 497.884 ) 0 
( 165.98 -3606.29 498.601 ) 0 
( 2659.41 -3411.74 1216.35 ) 0 
( 3668.36 -4755.02 496.484 ) 0 
( 2597.32 -38.2466 498.163 ) 0 
( 1613.91 -4726.21 498.68 ) 0 
( 1141.08 -503.153 1025.42 ) 0 
( 1309.96 -4233.11 1312.64 ) 0 
( 2046.46 -195.703 1317.28 ) 0 
( 2350.67 -4350.17 1363.84 ) 0 
( 1701.21 -1267.84 1343.4 ) 0 
( 3083.52 -400.227 1290.79 ) 0 
( 2858.24 -2443.04 1077.9 ) 0 
( 4260.58 -3346 1313.17 ) 0 
( 712.327 -2918.31 973.322 ) 0 
( 4707.17 -4240.93 1311.43 ) 0 
( 206.562 -366.091 1348.87 ) 0 
( 1910.08 -2248.14 1325.84 ) 0 
( 4082.57 -394.3 1311.79 ) 0 
( 1670.3 -3281.89 1265.84 ) 0 
( 19.2283 -1348.13 1360.8 ) 0 
( 3664.11 -1362.47 1328.61 ) 0 
( 818.172 -985.48 1837.89 ) 0 
( 1164 -2651.76 1852.46 ) 0 
( 34.0563 -2946.65 2159.45 ) 0 
( 2674.57 -1493.09 1324.3 ) 0 
( 1193.52 -38.1287 1906.73 ) 0 
( 726.29 -3542.83 1752.23 ) 0 
( 885.966 -1845.38 1335.6 ) 0 
( 414.535 -2007.23 2206.85 ) 0 
( 2174.9 -3652.3 2055.95 ) 0 
( 4319.32 -1936.89 1975.29 ) 0 
( 327.527 -276.853 2342.47 ) 0 
( 3043.88 -4179.92 2063.32 ) 0 
( 1375.48 -1732.36 2199.21 ) 0 
( 4165.66 -4484.01 2112.47 ) 0 
( 2527.53 -2721.47 1977.49 ) 0 
( 4116.66 -970.971 2125.1 ) 0 
( 3415.25 -3153.59 1814.49 ) 0 
( 3840.36 -2441.27 1259.43 ) 0 
( 4837.6 -2491.96 1297.84 ) 0 
( 3246.11 -2027.34 1946.96 ) 0 
( 731.898 -4503.55 2080.98 ) 0 
( 2927.96 -3383.31 2655.11 ) 0 
( 2528.72 -4526.8 2843.99 ) 0 
( 2368.07 -1722.91 2314.36 ) 0 
( 4829.29 -276.484 2203.2 ) 0 
( 3872.76 -2633.62 2534.15 ) 0 
( 4931.28 -2223.76 2712.04 ) 0 
( 1306.07 -3765.13 2533.79 ) 0 
( 312.477 -3780.73 2631.01 ) 0 
( 4912.38 -1226.48 2668.45 ) 0 
( 1787.91 -2537.59 2623.36 ) 0 
( 3891.14 -3631.28 2550.67 ) 0 
( 2494.6 -782.101 2001.02 ) 0 
( 4859.57 -3825.3 2702.35 ) 0 
( 46.886 -4609.18 3120.21 ) 0 
( 834.17 -2913.55 2756.5 ) 0 
( 4709.26 -3013 2140.81 ) 0 
( 1759.69 -4563.93 2141.32 ) 0 
( 2099.81 -3672.37 3131.92 ) 0 
( 2413.69 -887.517 2995.92 ) 0 
( 4145.42 -745.377 3096 ) 0 
( 749.904 -1156.32 2818.65 ) 0 
( 2946.21 -2398.91 2824.79 ) 0 
( 1137.07 -4640.97 2981.97 ) 0 
( 1594.5 -785.484 2433.7 ) 0 
( 3410.71 -272.121 2224.36 ) 0 
( 3232.04 -1210.01 2521.5 ) 0 
( 4008.94 -1714.06 2898.25 ) 0 
( 3552 -4608.84 2890.82 ) 0 
( 3232.88 -354.354 3202.69 ) 0 
( 1509.44 -2950.6 3489.47 ) 0 
( 4189.8 -4035.28 3413.08 ) 0 
( 4631.35 -4793.78 2937.28 ) 0 
( 2709.23 -458.556 4046.3 ) 0 
( 3971.48 -80.242 3819.69 ) 0 
( 697.316 -4644.62 3877.69 ) 0 
( 1909.51 -4674.11 3613.14 ) 0 
( 1278.81 -485.204 3333.32 ) 0 
( 793.153 -2051.65 3260.6 ) 0 
( 2987.6 -1592.04 3410.95 ) 0 
( 4570.6 -3012.79 3207.05 ) 0 
( 106.929 -2770.43 3424.53 ) 0 
( 1632.77 -1494.72 3135.69 ) 0 
( 4773 -1690.25 3542.09 ) 0 
( 3059.74 -3975.64 3486.01 ) 0 
( 787.011 -2774.59 4157.31 ) 0 
( 2191.56 -1306.52 3941.96 ) 0 
( 1415.35 -2005.74 4041.66 ) 0 
( 3770.84 -2214.79 3729.92 ) 0 
( 3589.88 -3124.59 3357.21 ) 0 
( 373.507 -1273.43 3735.35 ) 0 
( 4680.27 -777.785 3938.69 ) 0 
( 4230.47 -3310.99 4099.9 ) 0 
( 2725.28 -4606.5 4185.86 ) 0 
( 2660.65 -3090.16 3718.55 ) 0 
( 1261.15 -1026.75 4171.85 ) 0 
( 893.027 -3736.64 3443.75 ) 0 
( 2207.42 -2234.87 3477.06 ) 0 
( 1697.09 -3788.43 4037.64 ) 0 
( 3698.55 -1103.49 3913.91 ) 0 
( 649.742 -1689.01 4600.93 ) 0 
( 2121.53 -1877.21 4758.58 ) 0 
( 784.471 -3824.39 4440.61 ) 0 
( 177.269 -352.031 4067.5 ) 0 
( 3516.34 -436.492 4634.72 ) 0 
( 3336.82 -3047.87 4459.76 ) 0 
( 1896.2 -127.456 4522.77 ) 0 
( 4213.54 -4989.29 4531.36 ) 0 
( 1863.33 -4286.24 4887.7 ) 0 
( 4387.31 -1580.41 4456.93 ) 0 
( 856.235 -364.435 4801.2 ) 0 
( 2965.63 -1268.11 4572.75 ) 0 
( 2890.31 -2192.67 4203.05 ) 0 
( 3667.29 -4203.1 4245.81 ) 0 
( 4851.55 -2527.83 4081.46 ) 0 
( 2565.62 -3678.96 4519.27 ) 0 
( 4640.01 -4087.87 4578.19 ) 0 
( 1962.69 -2779.45 4360.86 ) 0 
( 4339.49 -2768.8 4931.22 ) 0 
( 530.803 -3068.12 5108.48 ) 0 
( 1775.94 -979.828 5027.47 ) 0 
( 3132.11 -4312.72 5080.91 ) 0 
( 3623.76 -2075.52 4869.61 ) 0 
( 1476.99 -3371.41 5001.2 ) 0 
( 973.297 -4979.61 4776.62 ) 0 
( 119.938 -4609.76 5143.71 ) 0 
( 1256.99 -2398.49 4955.74 ) 0 
( 2645.38 -497.518 5121.29 ) 0 
( 989.498 -4166.09 5356.41 ) 0 
( 1345.01 -301.922 5670 ) 0 
( 4489.88 -657.861 4911.73 ) 0 
( 4042.54 -4560.33 5416.59 ) 0 
( 2843.75 -1753.1 5437.3 ) 0 
( 2647.79 -2664.8 5076.94 ) 0 
( 4721.01 -3462.79 5547.67 ) 0 
( 663.898 -2389.79 5828.66 ) 0 
( 3529.27 -2835.98 5511.2 ) 0 
( 2429.8 -3743.99 5506.14 ) 0 
( 1113.01 -1566.11 5487.59 ) 0 
( 766.091 -4926.53 5962.17 ) 0 
( 249.708 -1154.68 5772.52 ) 0 
( 3877.1 -3647.53 5047.68 ) 0 
( 1857.55 -2748 5682.66 ) 0 
( 4152.66 -533.19 5923.5 ) 0 
( 3291.87 -2177.33 6221.9 ) 0 
( 1104.53 -1018.79 6322.8 ) 0 
( 1978.2 -1788.4 5935.53 ) 0 
( 181.418 -3974.71 5911.28 ) 0 
( 4193.12 -2112.58 5689.47 ) 0 
( 3387.83 -3738.85 5914.44 ) 0 
( 406.418 -243.368 6151.84 ) 0 
( 1015.13 -3318.57 5945.01 ) 0 
( 4792.94 -1332.6 5865.47 ) 0 
( 1777.65 -4525.84 5854.19 ) 0 
( 2164.52 -806.16 5941.47 ) 0 
( 3716.86 -1170.8 5281.67 ) 0 
( 4162.75 -3036.53 6257.33 ) 0 
( 3186.64 -769.36 6026.01 ) 0 
( 1404.26 -2391.68 6498.4 ) 0 
( 4854.54 -662.771 6622.18 ) 0 
( 4284.85 -4040.88 6234.93 ) 0 
( 1107.61 -4150.69 6491.28 ) 0 
( 74.9171 -3055.24 6284.36 ) 0 
( 2532.39 -414.857 6785.37 ) 0 
( 2702.31 -1450.82 6571.01 ) 0 
( 2734.27 -2996.75 6094.16 ) 0 
( 4485.98 -2172.56 6642.31 ) 0 
( 763.599 -2969.59 7003.39 ) 0 
( 1901.23 -3565.84 6333.63 ) 0 
( 3917.63 -1408.48 6341 ) 0 
( 3394.23 -873.4 7001.12 ) 0 
( 2730.48 -4454.42 6145.32 ) 0 
( 2770.93 -3697.47 6805.79 ) 0 
( 3393.14 -2918.48 6883.48 ) 0 
( 240.279 -4880.55 6809.17 ) 0 
( 256.375 -3824.36 6896.29 ) 0 
( 1758.13 -1522.39 6885.93 ) 0 
( 4147.1 -233.359 7182.69 ) 0 
( 3646.7 -4727.13 6580.7 ) 0 
( 525.92 -806.547 7108.91 ) 0 
( 3519.44 -1858 7139.48 ) 0 
( 1583.55 -555.411 7066.93 ) 0 
( 2363.33 -2367.6 6775.15 ) 0 
( 2054.01 -4390.48 6877.38 ) 0 
( 4695.8 -3923.66 7278.46 ) 0 
( 791.91 -1759.49 6970.33 ) 0 
( 2687.67 -781.618 7702.16 ) 0 
( 3729.48 -3845.43 7041.89 ) 0 
( 4534.26 -4873.7 7014.44 ) 0 
( 869.274 -4408.34 7426.78 ) 0 
( 4332.26 -1252.92 7237.23 ) 0 
( 1745.88 -3046.05 7171.4 ) 0 
( 189.035 -1900.39 7753.79 ) 0 
( 2606.03 -1762.99 7532.48 ) 0 
( 4682.76 -2107.7 7619.34 ) 0 
( 1225.95 -3571.89 7842.78 ) 0 
( 1.45446 -29.1786 7454.49 ) 0 
( 1207.89 -1223.53 7708.76 ) 0 
( 3014.44 -4357.38 7517.11 ) 0 
( 2657.45 -2913.1 7558.72 ) 0 
( 3635.9 -2598.61 7800.13 ) 0 
( 3678.44 -686.152 7940.59 ) 0 
( 2184.7 -3793.6 7667.12 ) 0 
( 3967.12 -4534.29 7763.99 ) 0 
( 4366.77 -2976.44 7233.25 ) 0 
( 1512.42 -4464.19 8189.5 ) 0 
( 1998.52 -1470.21 8269.3 ) 0 
( 2990.12 -1433.06 8397.22 ) 0 
( 416.575 -4839.1 8206.22 ) 0 
( 4638.14 -2859.04 8275.25 ) 0 
( 4595.03 -970.426 8221.37 ) 0 
( 4207.17 -175.993 8687.52 ) 0 
( 807.273 -342.43 7953.92 ) 0 
( 3022.78 -3607.53 8177.01 ) 0 
( 3034.84 -62.2293 8382.8 ) 0 
( 3995.86 -3554.88 7959.25 ) 0 
( 1795.16 -485.93 8040.4 ) 0 
( 1464.38 -2179.29 7578.35 ) 0 
( 719.7 -2719.39 7970.32 ) 0 
( 289.27 -3863.55 8030.79 ) 0 
( 3895.85 -1661.16 8042.57 ) 0 
( 554.202 -1164.3 8462.8 ) 0 
( 1158.78 -1958.32 8503.51 ) 0 
( 4454.76 -3745.66 8826.17 ) 0 
( 3810.91 -1078.93 8849.89 ) 0 
( 4133.59 -4688.82 8737.55 ) 0 
( 1869.11 -2873.19 8171.26 ) 0 
( 1944.04 -3689.06 8741.91 ) 0 
( 1429.92 -911.092 8871.85 ) 0 
( 3691.05 -2983.33 8720.84 ) 0 
( 2494.82 -4434.57 8368.13 ) 0 
( 2860.74 -2424.23 8406.17 ) 0 
( 2408.15 -723.604 8792.57 ) 0 
( 204.725 -3210.28 8781.02 ) 0 
( 4287.46 -2114.57 8841.69 ) 0 
( 2767.81 -3187.06 9045.72 ) 0 
( 387.741 -2267.89 9058.99 ) 0 
( 960.723 -3867.23 8770.38 ) 0 
( 4854.09 -2930.23 9248 ) 0 
( 3349.13 -1977.34 9155.24 ) 0 
( 544.745 -237.133 8912.08 ) 0 
( 1147.53 -2890.23 8862.99 ) 0 
( 552.642 -4680.51 9182.97 ) 0 
( 4731.28 -868.778 9205.97 ) 0 
( 3491.97 -3963.52 8983.91 ) 0 
( 2026.13 -2230.08 8920.1 ) 0 
( 1264.82 -252.285 9604.77 ) 0 
( 4211.64 -2396.24 9797.04 ) 0 
( 4858.14 -4709.64 9435.01 ) 0 
( 3890.79 -4541.01 9695.92 ) 0 
( 2177.7 -627.288 9759.97 ) 0 
( 3968.28 -3346.98 9609.68 ) 0 
( 4971.81 -1794.67 9495.65 ) 0 
( 1897.04 -3027.64 9509.12 ) 0 
( 3134.08 -698.923 9479.32 ) 0 
( 662.582 -1375.95 9432.53 ) 0 
( 2581.09 -4183.64 9331.66 ) 0 
( 1061.54 -3538.9 9709.13 ) 0 
( 1589.28 -4443.36 9292.35 ) 0 
( 1253.2 -2173.06 9550.58 ) 0 
( 2691.62 -2463.24 9729.97 ) 0 
( 334.435 -527.257 9845.02 ) 0 
( 2507.11 -1503.42 9409.36 ) 0 
( 164.189 -3102.82 9773.78 ) 0 
( 4831.25 -1294.8 10410.6 ) 0 
( 3199.43 -1691.32 10110.2 ) 0 
( 2897.24 -3399.52 10013.3 ) 0 
( 4045.54 -407.037 9766.93 ) 0 
( 253.927 -4086.45 9928.19 ) 0 
( 3004.33 -4372.04 10216.9 ) 0 
( 4688.44 -3911.32 10011.7 ) 0 
( 1991.04 -1901.1 10167.3 ) 0 
( 4048.88 -1878.82 10636.5 ) 0 
( 1212.24 -4437.54 10217.5 ) 0 
( 4087.54 -1405.56 9752.49 ) 0 
( 1372.38 -1120.37 10088.3 ) 0 
( 3536.72 -2759.64 10438.2 ) 0 
( 935.08 -2745.81 10305 ) 0 
( 3244.48 -1494.42 11089.2 ) 0 
( 2882.8 -804.862 10445.8 ) 0 
( 772.496 -3661.91 10669.4 ) 0 
( 3726.86 -3741.09 10495.8 ) 0 
( 4270.86 -4578.54 10627.3 ) 0 
( 4881.29 -209.777 10364.3 ) 0 
( 2004.08 -3844.91 10074.3 ) 0 
( 528.854 -1832.59 10310.9 ) 0 
( 1916.38 -2843.99 10491.5 ) 0 
( 2709.32 -2289.47 10743.9 ) 0 
( 1770.31 -155.683 10541.1 ) 0 
( 1495.92 -795.625 11258.4 ) 0 
( 1653.96 -3998.42 10999.4 ) 0 
( 532.685 -2259.22 11214.8 ) 0 
( 2561.37 -3583.67 10936.2 ) 0 
( 1230.9 -2974.52 11232.1 ) 0 
( 141.333 -134.274 11258.4 ) 0 
( 2258.02 -1377.57 10975.7 ) 0 
( 0.0252335 -3284.4 11179.1 ) 0 
( 4987.21 -722.486 11215.7 ) 0 
( 3894.79 -891.173 10627.9 ) 0 
( 4228.99 -1324.82 11464.2 ) 0 
( 3415 -4450.92 11127.2 ) 0 
( 4491.02 -3100.59 10561.9 ) 0 
( 820.842 -4547.37 11130.7 ) 0 
( 1330.62 -1743.44 10900.9 ) 0 
( 1786.69 -4981.71 10827.9 ) 0 
( 1966.34 -2321.55 11412 ) 0 
( 649.835 -867.569 10730.7 ) 0 
( 1983.63 -3402.62 11731.7 ) 0 
( 3082.03 -3762.07 11770.8 ) 0 
( 1468.53 -4953.05 11775.2 ) 0 
( 971.892 -150.997 11814.6 ) 0 
( 899.059 -1431.71 11747.1 ) 0 
( 36.6494 -4176.93 11628.3 ) 0 
( 2371.56 -740.862 11738 ) 0 
( 4580.16 -3841.16 11227.2 ) 0 
( 3427.39 -516.059 11427.8 ) 0 
( 4104.2 -2299.31 11648.4 ) 0 
( 3755.74 -3176.72 11320.1 ) 0 
( 2447.89 -4473.11 11378.5 ) 0 
( 2622.27 -55.7906 11054.5 ) 0 
)
