FoamFile
{version 2.0; format ascii;class Cloud<passiveParticle>; location 0;object  positions;}
344
(
( 1.96268 -0.814736 0.499617 ) 0 
( 3.20549 -2.12563 0.499621 ) 0 
( 0.265656 -1.42505 0.499907 ) 0 
( 1.28078 -1.54655 0.499921 ) 0 
( 0.161203 -3.71767 0.499967 ) 0 
( 4.64675 -3.15766 0.499943 ) 0 
( 0.953519 -0.601665 0.499929 ) 0 
( 1.32037 -3.07967 0.499792 ) 0 
( 4.0775 -3.9809 0.499972 ) 0 
( 1.58992 -4.98566 0.499883 ) 0 
( 3.23558 -4.88781 0.499696 ) 0 
( 3.92407 -0.825224 0.499834 ) 0 
( 0.119907 -4.94617 0.499599 ) 0 
( 2.86046 -3.62224 0.499538 ) 0 
( 0.626855 -2.35941 0.499766 ) 0 
( 2.33552 -2.61835 0.499641 ) 0 
( 3.65686 -3.01792 0.499643 ) 0 
( 3.94448 -1.32508 1.36538 ) 0 
( 4.92396 -0.807767 0.499977 ) 0 
( 2.98348 -2.86032 1.22142 ) 0 
( 2.96903 -1.15411 0.499935 ) 0 
( 2.22386 -1.70111 0.881316 ) 0 
( 0.217618 -2.7289 1.33369 ) 0 
( 2.74095 -0.180604 0.499517 ) 0 
( 2.38391 -4.45179 0.790315 ) 0 
( 1.59357 -0.195217 1.19198 ) 0 
( 2.07565 -3.39356 1.07485 ) 0 
( 0.0524154 -0.547819 0.92995 ) 0 
( 0.820394 -3.52219 1.2511 ) 0 
( 1.40267 -2.31062 1.13328 ) 0 
( 0.764201 -4.75442 1.23946 ) 0 
( 4.25587 -1.76841 0.499755 ) 0 
( 1.18708 -4.07063 0.499833 ) 0 
( 4.58095 -4.03621 1.36336 ) 0 
( 4.49195 -0.0936948 1.05612 ) 0 
( 3.8678 -2.35068 1.21369 ) 0 
( 3.38139 -4.09668 1.20849 ) 0 
( 0.726521 -1.15792 1.34612 ) 0 
( 1.55741 -3.01589 1.84161 ) 0 
( 2.50761 -0.688717 1.32816 ) 0 
( 3.06409 -1.79401 1.43202 ) 0 
( 2.24077 -2.30467 1.67836 ) 0 
( 1.55809 -4.17496 1.42242 ) 0 
( 1.14279 -0.514216 2.0256 ) 0 
( 3.17726 -0.98508 2.00848 ) 0 
( 0.764602 -2.08585 1.86944 ) 0 
( 2.14211 -0.0637071 2.01754 ) 0 
( 4.86693 -1.39341 1.74457 ) 0 
( 3.91424 -3.30518 1.50743 ) 0 
( 2.94525 -4.96826 1.45282 ) 0 
( 0.377043 -4.36205 2.07352 ) 0 
( 4.55925 -3.68578 2.29991 ) 0 
( 1.69694 -1.2171 1.57971 ) 0 
( 2.51069 -4.04621 1.69728 ) 0 
( 1.25942 -4.84307 2.10357 ) 0 
( 4.47893 -2.27855 2.00137 ) 0 
( 0.148394 -0.489151 1.92334 ) 0 
( 1.63034 -2.23958 2.46756 ) 0 
( 0.586947 -0.401488 2.86262 ) 0 
( 3.94254 -4.65928 1.81485 ) 0 
( 3.55142 -3.85404 2.26033 ) 0 
( 2.74198 -1.80378 2.38369 ) 0 
( 2.59917 -3.13634 2.10224 ) 0 
( 3.37749 -2.50942 2.07038 ) 0 
( 1.1975 -3.83366 2.29031 ) 0 
( 0.28383 -3.73311 2.84532 ) 0 
( 2.69591 -0.490777 2.73226 ) 0 
( 4.76153 -0.422888 1.96058 ) 0 
( 1.65744 -1.24632 2.57827 ) 0 
( 4.07353 -2.89636 2.67507 ) 0 
( 0.4519 -1.30654 2.41207 ) 0 
( 3.35719 -2.25058 3.0355 ) 0 
( 0.697656 -2.96972 2.3494 ) 0 
( 4.93447 -0.681424 2.91035 ) 0 
( 0.726151 -2.13536 2.89908 ) 0 
( 4.291 -1.91503 2.91342 ) 0 
( 2.21241 -1.92696 3.22282 ) 0 
( 3.66948 -0.210023 1.61262 ) 0 
( 4.13957 -1.09486 2.36217 ) 0 
( 2.93225 -4.62791 2.39262 ) 0 
( 1.87096 -3.15593 2.78712 ) 0 
( 3.15571 -3.22408 2.92841 ) 0 
( 2.10359 -4.11175 2.6082 ) 0 
( 0.94465 -1.23705 3.27921 ) 0 
( 0.109981 -2.64931 3.49547 ) 0 
( 4.27795 -4.87058 2.73252 ) 0 
( 2.60123 -3.87793 3.44313 ) 0 
( 3.50306 -4.43409 3.19029 ) 0 
( 1.02264 -3.00459 3.2942 ) 0 
( 1.07285 -4.32019 3.15497 ) 0 
( 4.00029 -3.59494 3.40967 ) 0 
( 4.80295 -4.14078 3.16984 ) 0 
( 3.35064 -1.25393 2.95541 ) 0 
( 1.72605 -0.300546 2.89524 ) 0 
( 4.06136 -2.62378 3.63923 ) 0 
( 3.72751 -0.306544 2.81867 ) 0 
( 0.103927 -4.57687 3.51323 ) 0 
( 0.247772 -1.71544 3.82566 ) 0 
( 3.13812 -0.615831 3.69522 ) 0 
( 4.91797 -3.23454 3.57595 ) 0 
( 3.02118 -1.69042 3.79215 ) 0 
( 4.19898 -4.44039 3.90831 ) 0 
( 0.498198 -3.63967 3.86113 ) 0 
( 4.14726 -0.938693 3.4703 ) 0 
( 1.14599 -2.15443 3.80633 ) 0 
( 1.64824 -3.68308 3.67862 ) 0 
( 2.26263 -0.136825 3.75729 ) 0 
( 0.683829 -0.695345 4.07773 ) 0 
( 0.3545 -2.48798 4.45143 ) 0 
( 4.76657 -2.61762 4.34811 ) 0 
( 3.80762 -1.2152 4.36922 ) 0 
( 2.01284 -4.59866 3.84666 ) 0 
( 3.01368 -2.76239 3.82255 ) 0 
( 2.01662 -2.75599 3.74642 ) 0 
( 1.88679 -1.03968 3.54916 ) 0 
( 1.11736 -4.34271 4.21058 ) 0 
( 0.0437994 -4.31313 4.47578 ) 0 
( 4.527 -1.77069 3.87396 ) 0 
( 3.18844 -4.23173 4.17078 ) 0 
( 1.17518 -3.03351 4.28184 ) 0 
( 3.93418 -0.0206312 3.80351 ) 0 
( 2.49922 -1.03666 4.33939 ) 0 
( 1.948 -3.94981 4.60476 ) 0 
( 4.6859 -3.69195 4.43418 ) 0 
( 2.78329 -3.40249 4.55514 ) 0 
( 3.61174 -2.19436 4.42234 ) 0 
( 4.63675 -0.567787 4.25929 ) 0 
( 3.74975 -3.20607 4.39001 ) 0 
( 3.06125 -2.6343 5.13174 ) 0 
( 0.711788 -1.49128 4.68228 ) 0 
( 3.87426 -4.06903 4.87963 ) 0 
( 3.04837 -1.57969 4.97445 ) 0 
( 1.78324 -4.93802 4.75854 ) 0 
( 2.35485 -0.52702 5.18734 ) 0 
( 3.23591 -0.462762 4.69622 ) 0 
( 1.96197 -2.94241 4.89195 ) 0 
( 4.68775 -1.74818 4.86029 ) 0 
( 1.61598 -0.574993 4.41862 ) 0 
( 2.75599 -4.75736 4.90327 ) 0 
( 1.67697 -1.59585 4.44335 ) 0 
( 2.47043 -2.20417 4.4494 ) 0 
( 0.708997 -3.68469 4.88044 ) 0 
( 4.12896 -0.613812 5.11929 ) 0 
( 1.35854 -1.01573 5.27839 ) 0 
( 1.54261 -3.64343 5.46821 ) 0 
( 3.28203 -4.33364 5.64054 ) 0 
( 0.0907252 -4.69858 5.39716 ) 0 
( 1.18489 -2.3196 4.98235 ) 0 
( 1.91162 -2.82259 5.90411 ) 0 
( 4.48979 -3.07267 5.19421 ) 0 
( 3.57919 -3.38338 5.54459 ) 0 
( 3.21128 -0.836549 5.62336 ) 0 
( 1.4911 -0.0251488 5.24547 ) 0 
( 2.05893 -1.9842 5.3336 ) 0 
( 4.72201 -4.02149 5.40768 ) 0 
( 1.26997 -2.05683 5.94344 ) 0 
( 2.83301 -0.507523 6.4887 ) 0 
( 0.53894 -0.0590971 5.60931 ) 0 
( 2.19643 -4.3799 5.64073 ) 0 
( 2.58267 -3.46399 5.53274 ) 0 
( 0.790431 -2.99768 5.60244 ) 0 
( 3.93521 -2.47831 5.77616 ) 0 
( 3.91984 -1.52936 5.46199 ) 0 
( 2.92893 -1.7512 5.95225 ) 0 
( 0.536992 -1.43676 5.66505 ) 0 
( 4.08909 -4.04476 6.18128 ) 0 
( 4.94258 -1.03816 5.51643 ) 0 
( 1.01178 -3.81339 6.2981 ) 0 
( 1.06921 -4.51101 5.31301 ) 0 
( 2.11517 -1.17137 5.91326 ) 0 
( 1.60725 -0.353289 6.18286 ) 0 
( 2.48782 -4.943 6.41386 ) 0 
( 3.55617 -1.19777 6.50012 ) 0 
( 4.6483 -0.0806599 5.7867 ) 0 
( 1.1035 -4.8085 6.26692 ) 0 
( 2.08578 -1.9695 6.51468 ) 0 
( 3.77212 -3.15101 6.49772 ) 0 
( 0.334215 -2.31196 6.18687 ) 0 
( 1.19095 -1.22769 6.49663 ) 0 
( 0.130646 -3.34105 6.31015 ) 0 
( 2.27134 -2.89592 6.84151 ) 0 
( 2.94439 -2.73691 6.1194 ) 0 
( 4.81413 -1.98073 5.82437 ) 0 
( 1.13755 -2.85071 6.53654 ) 0 
( 0.202366 -4.39201 6.3944 ) 0 
( 2.08195 -1.02235 6.90141 ) 0 
( 0.872328 -3.51429 7.24199 ) 0 
( 3.76805 -0.190484 6.6465 ) 0 
( 2.005 -3.74931 6.39267 ) 0 
( 0.676845 -0.371681 6.54886 ) 0 
( 1.58959 -1.7414 7.39149 ) 0 
( 4.49143 -0.861727 6.39096 ) 0 
( 1.8979 -3.63937 7.39587 ) 0 
( 3.57705 -2.18418 6.6619 ) 0 
( 2.84561 -1.64352 7.07678 ) 0 
( 4.58911 -2.58234 6.59049 ) 0 
( 0.433975 -1.1933 7.28402 ) 0 
( 3.43497 -4.67826 6.59442 ) 0 
( 0.719365 -2.13215 7.09192 ) 0 
( 2.84291 -0.731785 7.48712 ) 0 
( 2.72068 -4.47462 7.26602 ) 0 
( 0.788573 -4.53451 7.19165 ) 0 
( 4.6978 -0.113561 7.02124 ) 0 
( 4.07107 -0.850072 7.3339 ) 0 
( 4.79925 -4.54612 6.67522 ) 0 
( 4.54932 -1.66425 6.9845 ) 0 
( 3.00341 -3.78669 6.42983 ) 0 
( 1.76263 -4.53188 6.96597 ) 0 
( 3.61222 -3.91284 7.21297 ) 0 
( 1.43861 -2.72575 7.48178 ) 0 
( 0.499644 -2.78832 7.81987 ) 0 
( 1.26081 -0.632185 7.31745 ) 0 
( 2.08506 -0.0564677 7.4429 ) 0 
( 4.3993 -3.29805 7.26236 ) 0 
( 3.18047 -2.88252 7.25751 ) 0 
( 3.52346 -1.54136 7.8048 ) 0 
( 4.06565 -2.36545 7.51508 ) 0 
( 1.56283 -1.71598 8.3907 ) 0 
( 1.23338 -4.107 7.97844 ) 0 
( 1.97813 -0.90712 7.9575 ) 0 
( 4.61107 -4.21512 7.59964 ) 0 
( 3.58413 -0.171447 7.90073 ) 0 
( 2.37417 -2.75036 7.83367 ) 0 
( 1.20678 -2.6419 8.51582 ) 0 
( 1.81292 -4.96729 7.86458 ) 0 
( 4.61258 -1.67097 7.98231 ) 0 
( 0.43474 -3.63403 8.35016 ) 0 
( 2.48135 -1.77013 7.99928 ) 0 
( 0.977284 -0.921173 8.23172 ) 0 
( 0.266674 -0.125973 8.27908 ) 0 
( 1.83628 -3.40399 8.36571 ) 0 
( 1.71184 -0.881392 8.92098 ) 0 
( 4.22532 -4.64502 8.41573 ) 0 
( 1.19109 -4.75878 8.73546 ) 0 
( 4.22186 -0.815732 8.32222 ) 0 
( 4.48135 -2.9409 8.21907 ) 0 
( 3.28472 -2.44804 8.15196 ) 0 
( 0.351498 -4.59582 8.0889 ) 0 
( 1.1516 -1.74902 9.30155 ) 0 
( 2.83576 -3.64245 7.80828 ) 0 
( 0.576116 -1.86667 8.48454 ) 0 
( 0.0933936 -4.05941 9.18825 ) 0 
( 1.78286 -2.86824 9.30119 ) 0 
( 0.0811676 -1.9524 9.36505 ) 0 
( 0.452822 -1.07018 9.07623 ) 0 
( 2.26881 -1.98132 9.04719 ) 0 
( 1.72648 -4.0205 9.14519 ) 0 
( 2.32035 -4.27864 8.38219 ) 0 
( 2.64182 -2.87249 8.78931 ) 0 
( 0.256223 -2.76025 8.80241 ) 0 
( 3.77092 -3.64235 8.16247 ) 0 
( 3.15342 -1.64137 8.72829 ) 0 
( 2.82521 -0.685284 8.48573 ) 0 
( 0.967863 -0.217217 8.9934 ) 0 
( 3.27851 -4.41089 8.63577 ) 0 
( 1.15091 -0.850166 9.75743 ) 0 
( 4.90756 -4.63833 9.17993 ) 0 
( 3.3546 -2.0679 9.60993 ) 0 
( 0.944181 -3.39854 9.17761 ) 0 
( 4.16623 -1.62617 8.90523 ) 0 
( 3.59738 -0.828378 9.10471 ) 0 
( 2.1906 -3.90672 10.0235 ) 0 
( 4.60272 -3.78077 8.74783 ) 0 
( 2.70022 -3.79495 9.17053 ) 0 
( 2.84915 -3.00039 9.75911 ) 0 
( 4.68025 -0.824733 9.21073 ) 0 
( 3.88579 -2.58531 8.93917 ) 0 
( 0.777205 -2.57593 9.72101 ) 0 
( 3.66495 -3.53213 9.17247 ) 0 
( 0.586749 -1.63353 10.1666 ) 0 
( 2.6115 -1.09931 9.37043 ) 0 
( 4.08091 -0.233414 9.75023 ) 0 
( 1.83559 -2.10107 9.94043 ) 0 
( 2.07324 -0.706232 10.1158 ) 0 
( 4.46058 -2.20654 9.66445 ) 0 
( 0.986451 -4.38958 9.70722 ) 0 
( 0.126639 -0.7674 9.97162 ) 0 
( 0.0765039 -4.74017 9.92835 ) 0 
( 1.31787 -3.42538 10.1047 ) 0 
( 4.5863 -3.53993 9.71816 ) 0 
( 3.96395 -4.44535 9.44869 ) 0 
( 4.07296 -1.30132 9.84635 ) 0 
( 3.24239 -3.99303 9.98694 ) 0 
( 3.18849 -0.598363 10.0154 ) 0 
( 1.45857 -1.35255 10.5677 ) 0 
( 3.82842 -2.92635 9.95106 ) 0 
( 1.29541 -0.237893 10.5347 ) 0 
( 2.14941 -3.02058 10.4848 ) 0 
( 0.365657 -3.84781 10.2744 ) 0 
( 3.86949 -2.05848 10.467 ) 0 
( 2.76445 -2.23684 10.3992 ) 0 
( 3.64194 -4.85352 10.3029 ) 0 
( 4.2424 -0.638641 10.6499 ) 0 
( 2.65365 -4.78089 10.169 ) 0 
( 3.47286 -1.23616 10.8749 ) 0 
( 0.0922637 -1.54405 11.1042 ) 0 
( 3.20309 -3.2539 10.6593 ) 0 
( 1.92442 -2.15706 10.936 ) 0 
( 3.28031 -4.22208 10.9887 ) 0 
( 0.152087 -4.34723 11.114 ) 0 
( 1.74408 -3.8279 10.9147 ) 0 
( 0.656333 -3.0037 10.7247 ) 0 
( 2.4856 -1.34788 10.7623 ) 0 
( 4.06004 -3.79786 10.5283 ) 0 
( 0.928767 -2.08194 11.0003 ) 0 
( 1.8518 -0.779032 11.2864 ) 0 
( 3.30578 -2.37767 11.2287 ) 0 
( 1.04652 -4.51078 10.698 ) 0 
( 4.68479 -4.47581 10.1411 ) 0 
( 0.456366 -0.633683 10.9079 ) 0 
( 4.62026 -1.28617 11.3115 ) 0 
( 1.02088 -3.8922 11.6023 ) 0 
( 2.52942 -3.84864 11.5334 ) 0 
( 3.82143 -3.48418 11.4474 ) 0 
( 4.91826 -3.70987 11.7076 ) 0 
( 1.4609 -2.95715 11.3166 ) 0 
( 2.56765 -1.83617 11.6311 ) 0 
( 1.37696 -1.54688 11.7163 ) 0 
( 2.82952 -0.549372 11.2563 ) 0 
( 3.4803 -4.95336 11.6408 ) 0 
( 4.85822 -1.94359 10.5624 ) 0 
( 2.10859 -4.96897 10.986 ) 0 
( 4.31661 -2.87808 10.8249 ) 0 
( 2.44999 -2.85651 11.4243 ) 0 
( 4.13683 -4.27537 11.9713 ) 0 
( 4.55564 -2.25099 11.5663 ) 0 
( 0.302533 -3.20095 11.6801 ) 0 
( 2.26532 -0.24482 12.0237 ) 0 
( 1.82828 -2.37704 12.0436 ) 0 
( 4.041 -0.477147 11.616 ) 0 
( 0.17198 -4.1071 12.0852 ) 0 
( 0.356344 -2.21091 11.81 ) 0 
( 3.75416 -2.48662 12.1159 ) 0 
( 1.81463 -3.45278 12.1099 ) 0 
( 3.77405 -1.54615 11.7766 ) 0 
( 4.2849 -4.62351 11.0456 ) 0 
( 3.01138 -1.00347 12.1284 ) 0 
( 0.469803 -1.28762 12.1768 ) 0 
( 2.05226 -1.1752 12.3533 ) 0 
( 3.09416 -3.23734 12.0877 ) 0 
( 0.993817 -0.552243 11.7472 ) 0 
( 4.43481 -1.83708 12.4685 ) 0 
( 1.31264 -4.84864 11.6007 ) 0 
( 1.7732 -4.4159 12.3757 ) 0 
)
