FoamFile
{version 2.0; format ascii;class vectorField; location 0;object  v;}
344
(
( 5.92855e-06 1.43161e-06 5.87674e-08 )  
( 4.31604e-06 9.42061e-07 -7.60043e-07 )  
( 4.62438e-06 1.91285e-06 -1.72316e-07 )  
( 4.23674e-06 2.20036e-06 3.00339e-07 )  
( -5.70962e-07 2.80199e-06 5.79502e-08 )  
( 4.05935e-06 -5.83863e-07 -2.16714e-06 )  
( 3.99361e-06 1.92987e-06 -1.05913e-06 )  
( 5.70212e-06 2.66065e-06 -1.00033e-06 )  
( 2.05667e-06 8.00435e-06 -1.31137e-06 )  
( 3.19956e-06 1.11304e-06 -6.42786e-07 )  
( 4.75453e-06 4.60641e-06 8.60818e-07 )  
( 4.15389e-06 1.42825e-06 3.42874e-07 )  
( 4.2191e-06 2.33469e-06 -7.60454e-07 )  
( 4.02669e-06 1.09852e-06 7.98221e-07 )  
( 7.96156e-06 4.84636e-06 -7.60712e-07 )  
( 4.40864e-06 9.67258e-07 6.19624e-07 )  
( 4.1827e-06 8.7479e-07 -1.09754e-06 )  
( 1.20747e-05 9.11701e-07 -6.84561e-07 )  
( -2.4635e-07 -3.07294e-06 2.00781e-12 )  
( 7.54554e-06 2.57531e-06 -5.62607e-08 )  
( 5.61767e-06 9.09797e-07 -9.29065e-07 )  
( 7.6804e-06 1.73517e-06 3.95671e-07 )  
( 1.13846e-05 5.48018e-06 -1.64203e-06 )  
( 5.90406e-06 1.31503e-06 6.91024e-09 )  
( 4.27429e-06 1.63709e-07 9.80785e-07 )  
( 1.04577e-05 3.13111e-06 -7.09321e-07 )  
( 6.86043e-06 3.58607e-06 5.79665e-07 )  
( 8.24084e-06 1.92772e-06 -1.67617e-07 )  
( 1.04774e-05 4.33391e-06 8.39369e-07 )  
( 1.01385e-05 1.87135e-06 -4.58143e-07 )  
( 1.02312e-05 4.3992e-06 -2.9033e-06 )  
( 3.66831e-06 1.27675e-06 -3.47929e-07 )  
( 4.80764e-06 1.79433e-06 8.22045e-07 )  
( 1.10837e-05 3.89619e-06 1.31432e-06 )  
( 9.04962e-06 3.87984e-06 8.13892e-07 )  
( 7.37455e-06 2.02666e-06 -1.39092e-06 )  
( 8.05705e-06 2.50911e-06 -4.61542e-07 )  
( 9.13403e-06 2.43867e-06 -1.51379e-06 )  
( 1.02208e-05 4.0532e-06 4.167e-07 )  
( 9.3608e-06 1.04361e-07 -9.75018e-07 )  
( 1.1465e-05 1.04741e-06 2.04588e-07 )  
( 1.05589e-05 3.60599e-06 7.63591e-07 )  
( 1.06417e-05 3.80686e-06 -7.31423e-07 )  
( 1.06007e-05 3.13394e-06 -2.00473e-06 )  
( 1.32341e-05 3.48486e-06 -2.20207e-06 )  
( 1.27328e-05 2.57023e-06 5.9235e-07 )  
( 1.47688e-05 4.30941e-06 -2.1515e-06 )  
( 1.30949e-05 3.19606e-06 -9.71366e-07 )  
( 9.70658e-06 2.84559e-06 -2.49123e-06 )  
( 1.1098e-05 4.76337e-06 1.35779e-06 )  
( 1.28048e-05 4.6794e-06 -2.27788e-06 )  
( 1.4032e-05 1.88916e-06 9.84081e-06 )  
( 9.07665e-06 2.96176e-06 -1.70027e-06 )  
( 1.09923e-05 3.84756e-06 1.38163e-06 )  
( 1.2952e-05 4.25224e-06 -3.18454e-06 )  
( 1.26562e-05 2.36932e-06 -1.73479e-06 )  
( 1.29396e-05 2.3957e-06 -1.05171e-06 )  
( 1.48512e-05 4.60531e-06 1.44471e-06 )  
( 2.15553e-05 5.74184e-06 -1.45002e-06 )  
( 1.0436e-05 3.49058e-06 -2.48391e-06 )  
( 1.17515e-05 3.52857e-06 -1.84094e-06 )  
( 1.62029e-05 6.25401e-06 -1.19255e-06 )  
( 1.31845e-05 4.74341e-06 1.70602e-06 )  
( 1.29338e-05 4.51195e-06 -2.6058e-06 )  
( 1.21908e-05 3.63485e-06 8.28479e-07 )  
( 1.06489e-05 3.04912e-06 5.21732e-07 )  
( 1.70995e-05 4.88702e-06 -5.18257e-07 )  
( 1.35584e-05 5.33339e-06 3.61285e-08 )  
( 1.82918e-05 5.91319e-06 -2.43404e-06 )  
( 1.15038e-05 5.00092e-06 -4.82319e-07 )  
( 2.0109e-05 5.3189e-06 -5.92391e-07 )  
( 1.89928e-05 7.08239e-06 -3.38208e-06 )  
( 1.3266e-05 5.06484e-06 2.23574e-06 )  
( 2.09703e-05 5.67742e-06 -2.41492e-06 )  
( 2.12451e-05 6.5415e-06 9.15177e-08 )  
( 1.81107e-05 6.55534e-06 -1.73688e-06 )  
( 2.39585e-05 7.97675e-06 1.8015e-06 )  
( 9.05239e-06 3.95421e-06 -3.31542e-06 )  
( 1.73539e-05 5.80657e-06 -7.76598e-07 )  
( 1.42461e-05 3.47354e-06 5.46358e-07 )  
( 1.5265e-05 3.98356e-06 7.34954e-07 )  
( 1.46911e-05 7.00554e-06 -2.31394e-06 )  
( 1.34427e-05 3.85627e-06 1.26965e-06 )  
( 2.38103e-05 7.19437e-06 -1.81424e-07 )  
( 2.14742e-05 7.74654e-06 1.31672e-06 )  
( 1.75169e-05 4.65027e-06 -4.47544e-06 )  
( 1.82186e-05 6.27883e-06 -1.37145e-07 )  
( 2.02708e-05 6.19971e-06 -3.74387e-06 )  
( 1.9109e-05 6.16299e-06 3.4409e-07 )  
( 1.20326e-05 3.6346e-06 -3.97109e-07 )  
( 2.19942e-05 6.96878e-06 -6.36401e-06 )  
( 2.03962e-05 6.48437e-06 -1.00154e-05 )  
( 2.07994e-05 7.65981e-06 -1.99207e-06 )  
( 1.947e-05 6.65775e-06 -1.59459e-06 )  
( 2.29961e-05 7.40681e-06 -6.06827e-06 )  
( 1.88667e-05 6.62487e-06 -6.60553e-07 )  
( 1.62207e-05 5.89726e-06 -4.30786e-06 )  
( 2.36062e-05 6.46725e-06 -1.63265e-06 )  
( 2.44329e-05 7.50352e-06 6.43816e-07 )  
( 2.2735e-05 5.14559e-06 -5.66747e-06 )  
( 2.54679e-05 7.57769e-06 -2.29482e-06 )  
( 2.5229e-05 6.44817e-06 -6.18019e-06 )  
( 2.30976e-05 5.20304e-06 4.92702e-07 )  
( 2.31199e-05 7.87139e-06 -1.33605e-06 )  
( 2.59835e-05 7.5326e-06 -3.47631e-06 )  
( 2.30163e-05 6.04311e-06 -4.55984e-06 )  
( 2.53928e-05 8.56348e-06 -3.07061e-06 )  
( 2.45937e-05 8.91414e-06 -1.80312e-06 )  
( 3.00424e-05 1.10031e-05 1.31866e-06 )  
( 2.58828e-05 6.43302e-06 -6.08733e-06 )  
( 2.69125e-05 6.3813e-06 -1.98055e-06 )  
( 2.45963e-05 7.56826e-06 7.08827e-08 )  
( 2.50556e-05 8.59256e-06 -2.36587e-06 )  
( 2.44839e-05 5.06983e-06 -4.12588e-06 )  
( 2.58231e-05 8.01245e-06 -3.08194e-06 )  
( 2.66394e-05 9.24752e-06 3.57694e-06 )  
( 3.6545e-05 5.19663e-06 -3.78232e-06 )  
( 2.36392e-05 7.39127e-06 -1.76925e-06 )  
( 2.65607e-05 8.5088e-06 -3.68377e-06 )  
( 2.91551e-05 9.38927e-06 -1.91601e-06 )  
( 2.47956e-05 8.98557e-06 -3.60155e-06 )  
( 2.8271e-05 9.94282e-06 -3.40434e-06 )  
( 3.07453e-05 6.39555e-06 2.21088e-06 )  
( 2.59254e-05 7.2825e-06 -5.51617e-06 )  
( 3.04368e-05 9.33913e-06 -2.13524e-06 )  
( 2.76661e-05 7.42378e-06 -5.07573e-06 )  
( 2.52449e-05 8.28387e-06 -2.31962e-06 )  
( 2.80176e-05 6.67808e-06 -6.28392e-06 )  
( 3.35749e-05 1.19554e-05 -1.08908e-06 )  
( 2.85887e-05 7.78756e-06 -4.24546e-06 )  
( 2.95457e-05 1.01929e-05 -4.53667e-06 )  
( 3.26623e-05 1.07494e-05 -4.93498e-06 )  
( 3.25511e-05 8.46037e-06 1.24958e-07 )  
( 2.46618e-05 1.10031e-05 -5.47597e-06 )  
( 2.91552e-05 8.68494e-06 2.3945e-07 )  
( 3.07287e-05 9.94602e-06 -3.12444e-06 )  
( 3.48821e-05 1.17594e-05 -1.51854e-06 )  
( 2.74857e-05 8.45428e-06 -5.83996e-06 )  
( 3.19792e-05 1.01215e-05 -5.22148e-09 )  
( 2.82427e-05 1.02854e-05 -6.35548e-06 )  
( 3.00835e-05 9.57466e-06 -4.47389e-07 )  
( 3.43898e-05 9.58907e-06 9.884e-07 )  
( 3.05172e-05 1.04954e-05 -7.90597e-07 )  
( 3.18757e-05 8.48904e-06 -4.40264e-06 )  
( 3.72307e-05 1.04172e-05 -9.48811e-07 )  
( 3.68009e-05 1.13794e-05 -1.88862e-06 )  
( 3.84823e-05 1.19163e-05 -4.43006e-07 )  
( 3.33477e-05 1.14111e-05 -3.55196e-06 )  
( 3.61929e-05 1.12037e-05 -4.99941e-06 )  
( 3.46038e-05 1.01855e-05 -3.96816e-06 )  
( 3.51612e-05 1.16805e-05 -3.18074e-06 )  
( 4.18759e-05 4.2985e-06 1.254e-06 )  
( 2.93284e-05 1.14759e-05 -4.4083e-06 )  
( 3.49368e-05 1.10235e-05 -2.84669e-06 )  
( 3.25981e-05 9.64846e-06 -6.00112e-06 )  
( 4.02719e-05 1.38271e-05 -1.89332e-06 )  
( 4.38905e-05 1.50677e-05 -3.77205e-06 )  
( 3.66781e-05 1.05672e-05 -2.79929e-06 )  
( 3.7474e-05 1.22034e-05 1.1695e-06 )  
( 3.54876e-05 1.18902e-05 -2.502e-06 )  
( 3.71236e-05 1.31135e-05 -1.08247e-06 )  
( 3.57471e-05 1.06973e-05 -4.63888e-06 )  
( 3.26001e-05 1.06171e-05 -3.18326e-06 )  
( 3.97916e-05 1.22695e-05 -4.54863e-06 )  
( 3.7769e-05 1.09299e-05 -3.6052e-06 )  
( 4.0796e-05 1.19657e-05 -1.83858e-06 )  
( 3.48655e-05 1.75688e-05 -2.75252e-06 )  
( 4.63392e-05 1.34818e-05 1.84828e-06 )  
( 3.92618e-05 1.15779e-05 4.31478e-06 )  
( 3.74162e-05 1.05201e-05 -5.54857e-06 )  
( 4.0383e-05 1.21198e-05 -5.23469e-06 )  
( 4.25366e-05 1.52839e-05 1.71136e-06 )  
( 3.93203e-05 1.1479e-05 -1.92045e-06 )  
( 3.67723e-05 1.09284e-05 -5.29254e-06 )  
( 4.64114e-05 1.46397e-05 3.16244e-06 )  
( 4.33027e-05 1.36509e-05 -2.70761e-06 )  
( 4.20728e-05 1.23165e-05 -2.69588e-06 )  
( 4.40566e-05 1.51632e-05 -6.29415e-07 )  
( 4.53789e-05 1.312e-05 -9.55036e-07 )  
( 4.66933e-05 1.26494e-05 -7.43732e-06 )  
( 4.39608e-05 1.73673e-05 8.40045e-06 )  
( 3.90088e-05 1.15599e-05 8.8889e-07 )  
( 3.94863e-05 1.78379e-05 -1.90354e-06 )  
( 4.47718e-05 1.45145e-05 -5.73197e-07 )  
( 4.93086e-05 1.47805e-05 -1.3424e-06 )  
( 4.4815e-05 1.22551e-05 -5.58311e-06 )  
( 4.86496e-05 1.3339e-05 -3.50111e-07 )  
( 4.43368e-05 1.26116e-05 -7.96658e-07 )  
( 4.50128e-05 1.44033e-05 1.30851e-06 )  
( 4.43984e-05 1.30547e-05 -2.25808e-06 )  
( 5.19734e-05 1.16027e-05 2.11906e-06 )  
( 3.77998e-05 1.43774e-05 -1.44836e-06 )  
( 4.45461e-05 1.77948e-05 1.00498e-05 )  
( 4.14225e-05 1.1998e-05 -2.79392e-06 )  
( 4.4739e-05 1.21797e-05 -5.85639e-07 )  
( 4.04492e-05 1.64934e-05 -1.99425e-06 )  
( 4.77852e-05 1.74918e-05 -2.16824e-06 )  
( 4.37973e-05 1.30156e-05 -1.01851e-07 )  
( 5.037e-05 1.63711e-05 -1.27847e-06 )  
( 4.80661e-05 1.33166e-05 -1.74944e-06 )  
( 4.53741e-05 1.55587e-05 1.65908e-06 )  
( 4.48171e-05 1.32969e-05 4.77464e-06 )  
( 4.73058e-05 1.5863e-05 -6.24258e-06 )  
( 5.03789e-05 6.60396e-06 -6.06097e-06 )  
( 4.54149e-05 1.47146e-05 -3.25987e-06 )  
( 4.49821e-05 1.73521e-05 3.66591e-07 )  
( 4.34657e-05 1.07968e-05 4.64639e-07 )  
( 4.59205e-05 1.79074e-05 5.29767e-06 )  
( 4.68092e-05 1.34257e-05 -1.82988e-06 )  
( 5.15125e-05 1.11379e-05 4.60441e-07 )  
( 5.19154e-05 1.65067e-05 -4.2578e-06 )  
( 4.99879e-05 1.45833e-05 -2.44648e-06 )  
( 4.6024e-05 1.15472e-05 -4.28837e-06 )  
( 4.50861e-05 1.51279e-05 -4.2033e-06 )  
( 4.77243e-05 1.13809e-05 2.0005e-06 )  
( 5.2911e-05 2.38175e-06 -8.90323e-06 )  
( 4.96042e-05 1.83697e-05 -5.39e-06 )  
( 5.67924e-05 1.8679e-05 4.23949e-06 )  
( 4.79005e-05 1.09495e-05 5.80633e-06 )  
( 5.12556e-05 1.33819e-05 -1.80514e-06 )  
( 4.56044e-05 1.80345e-05 -2.14795e-06 )  
( 4.98361e-05 1.60782e-05 -4.86991e-07 )  
( 4.98779e-05 1.16138e-05 4.99417e-06 )  
( 5.69437e-05 1.93586e-05 5.5613e-06 )  
( 5.34734e-05 1.91776e-05 7.93134e-06 )  
( 4.8874e-05 1.65547e-05 5.0095e-07 )  
( 5.21378e-05 1.31652e-05 3.58537e-06 )  
( 5.27648e-05 1.44696e-05 2.20184e-06 )  
( 5.33476e-05 1.66544e-05 -4.00478e-06 )  
( 5.84238e-05 1.75279e-05 -7.9526e-06 )  
( 5.25631e-05 1.6067e-05 1.40622e-05 )  
( 6.31123e-05 2.19244e-05 -2.19583e-06 )  
( 4.8806e-05 2.09478e-05 2.16322e-06 )  
( 5.80745e-05 1.40974e-05 7.6261e-06 )  
( 5.67449e-05 2.0511e-05 -1.30732e-07 )  
( 4.89019e-05 1.95973e-05 -4.33522e-06 )  
( 4.81905e-05 1.00859e-05 3.51507e-06 )  
( 4.89783e-05 1.05821e-05 4.80676e-06 )  
( 5.39569e-05 1.67878e-05 4.43878e-07 )  
( 4.55108e-05 1.46529e-05 5.8659e-06 )  
( 5.58479e-05 1.71285e-05 -5.39555e-06 )  
( 5.67182e-05 1.24416e-05 8.8837e-06 )  
( 4.99625e-05 1.93033e-05 1.17147e-05 )  
( 5.31172e-05 2.30765e-05 -5.73197e-06 )  
( 6.04608e-05 1.83753e-05 -4.51633e-06 )  
( 5.71905e-05 1.98633e-05 2.50814e-06 )  
( 5.56535e-05 1.49455e-05 1.36228e-05 )  
( 5.21919e-05 1.71361e-05 1.38114e-05 )  
( 4.91681e-05 1.55239e-05 6.53388e-06 )  
( 5.543e-05 1.93164e-05 -2.67776e-06 )  
( 5.169e-05 1.46473e-05 -4.63465e-06 )  
( 6.12439e-05 1.60871e-05 -6.22241e-07 )  
( 5.82507e-05 1.66725e-05 -1.69561e-06 )  
( 6.17582e-05 1.78961e-05 -2.133e-06 )  
( 5.38184e-05 2.34551e-05 1.32259e-05 )  
( 6.37054e-05 1.186e-05 -1.83481e-06 )  
( 5.96932e-05 2.04315e-05 -4.43762e-06 )  
( 5.79484e-05 1.88895e-05 4.29172e-06 )  
( 4.67307e-05 1.4073e-05 9.33549e-06 )  
( 5.54609e-05 2.04961e-05 -8.87023e-07 )  
( 5.84453e-05 1.85666e-05 2.12291e-07 )  
( 5.45124e-05 2.24467e-05 1.41365e-05 )  
( 5.36151e-05 2.13209e-05 -2.07189e-06 )  
( 5.32776e-05 1.98932e-05 1.37306e-05 )  
( 5.21935e-05 1.93867e-05 7.8088e-06 )  
( 6.03796e-05 1.73739e-05 3.18254e-08 )  
( 5.45686e-05 1.95463e-05 4.83189e-07 )  
( 5.19505e-05 1.80637e-05 3.17119e-06 )  
( 5.62149e-05 1.86707e-05 -6.09571e-06 )  
( 5.91788e-05 2.02985e-05 -1.02861e-05 )  
( 6.40924e-05 1.82584e-05 -3.33138e-07 )  
( 6.49747e-05 2.10936e-05 -3.11297e-06 )  
( 5.9176e-05 3.10218e-05 4.99774e-06 )  
( 6.47203e-05 1.60438e-05 -2.41403e-07 )  
( 5.75163e-05 1.93758e-05 -2.8303e-06 )  
( 5.37778e-05 7.29674e-06 1.20503e-06 )  
( 6.69608e-05 2.45352e-05 -3.63545e-06 )  
( 5.59653e-05 2.27047e-05 -1.78861e-06 )  
( 4.6185e-05 2.4799e-05 7.79575e-06 )  
( 5.34294e-05 2.25741e-05 -2.16417e-06 )  
( 5.69078e-05 1.86795e-05 -8.84688e-06 )  
( 6.27461e-05 1.50841e-05 -1.33968e-06 )  
( 5.82765e-05 2.27993e-05 1.62546e-05 )  
( 6.71977e-05 2.10109e-05 -3.55065e-06 )  
( 5.78903e-05 1.60726e-05 -7.26291e-06 )  
( 6.26119e-05 1.76843e-05 -8.0414e-06 )  
( 6.3763e-05 1.33979e-05 -5.5097e-07 )  
( 5.15573e-05 2.20681e-05 3.68219e-06 )  
( 6.17663e-05 2.3112e-05 -2.96578e-06 )  
( 6.14533e-05 2.4575e-05 4.62257e-06 )  
( 5.64096e-05 1.64533e-05 6.39692e-06 )  
( 7.30212e-05 2.61435e-05 2.27723e-06 )  
( 6.35006e-05 1.80291e-05 -3.34447e-06 )  
( 6.42736e-05 2.40445e-05 1.44467e-05 )  
( 6.0502e-05 2.32234e-05 2.12657e-06 )  
( 5.51058e-05 3.25377e-05 6.40779e-06 )  
( 7.4027e-05 3.87952e-05 4.86488e-06 )  
( 5.58484e-05 2.0668e-05 6.22395e-06 )  
( 5.07043e-05 3.2219e-05 -1.50244e-05 )  
( 5.70283e-05 3.34886e-05 1.17463e-06 )  
( 2.61875e-05 1.82073e-05 3.48574e-06 )  
( 4.6732e-05 2.47286e-05 1.41878e-05 )  
( 6.10164e-05 1.70913e-05 2.42107e-06 )  
( 6.8419e-05 2.25415e-05 5.33785e-06 )  
( 4.8232e-05 2.85516e-05 4.25819e-06 )  
( 6.91776e-05 2.19977e-05 -8.19256e-07 )  
( 6.36312e-05 1.78954e-05 2.27372e-06 )  
( 4.42717e-05 1.65444e-05 -3.93792e-06 )  
( 6.32974e-05 2.291e-05 -6.68829e-06 )  
( 6.22582e-05 2.58293e-05 3.20789e-06 )  
( 6.37555e-05 1.22743e-05 -6.63086e-06 )  
( 6.30053e-05 2.52839e-05 4.81316e-05 )  
( 3.89299e-05 1.40037e-05 -1.79746e-05 )  
( 5.63616e-05 3.35955e-05 -5.25466e-06 )  
( 5.25916e-05 1.45458e-05 -3.19423e-07 )  
( 5.0381e-05 2.33183e-05 1.09519e-05 )  
( 6.12947e-05 2.25834e-05 3.45474e-06 )  
( 6.13586e-05 2.72496e-05 -5.96072e-06 )  
( 6.88215e-05 1.6134e-05 -3.99681e-06 )  
( 4.13403e-05 2.8574e-05 -1.48049e-06 )  
( 6.20585e-05 1.5557e-05 2.26235e-06 )  
( 6.35782e-05 1.682e-05 7.56437e-06 )  
( 6.48109e-05 2.39333e-05 5.57584e-06 )  
( 6.16709e-05 1.74543e-05 4.05255e-07 )  
( 4.05404e-05 3.23974e-05 -6.99509e-07 )  
( 6.92526e-05 1.86571e-05 3.28913e-06 )  
( 5.99624e-05 3.97597e-05 2.9771e-05 )  
( 7.42391e-05 1.45628e-05 -1.92902e-06 )  
( 7.74281e-05 4.0927e-05 -7.63415e-06 )  
( 6.65205e-05 1.18358e-05 -2.73839e-06 )  
( 0.000172878 -0.000236174 0.000157673 )  
( 2.32356e-05 4.37595e-05 -8.30256e-06 )  
( 6.50866e-05 5.78784e-06 6.39879e-07 )  
( 4.95594e-05 8.96597e-06 -3.06343e-06 )  
( 6.61638e-05 1.63636e-05 1.24539e-07 )  
( 7.23996e-05 2.20664e-05 -2.17093e-06 )  
( 6.7505e-05 1.34686e-05 -5.39661e-06 )  
( 6.73001e-05 2.85905e-05 1.37389e-05 )  
( -0.000115914 0.000749778 -0.000238679 )  
( 3.88016e-05 2.04833e-05 -2.46868e-05 )  
( 7.05153e-05 1.65215e-05 1.33275e-06 )  
( 7.16408e-05 2.17594e-05 -4.81005e-07 )  
( 5.64121e-05 1.68435e-05 4.73243e-06 )  
( 9.91784e-05 9.29445e-06 -1.19466e-05 )  
)
