/*--------------------------------*- C++ -*----------------------------------*\
| =========                 |                                                 |
| \\      /  F ield         | OpenFOAM: The Open Source CFD Toolbox           |
|  \\    /   O peration     | Version:  5.x                                   |
|   \\  /    A nd           | Web:      www.OpenFOAM.org                      |
|    \\/     M anipulation  |                                                 |
\*---------------------------------------------------------------------------*/
FoamFile
{
    version     2.0;
    format      ascii;
    class       volScalarField;
    location    "6000";
    object      p;
}
// * * * * * * * * * * * * * * * * * * * * * * * * * * * * * * * * * * * * * //

dimensions      [0 2 -2 0 0 0 0];

internalField   nonuniform List<scalar> 
180
(
-3.87911e-10
-1.12783e-09
-1.77968e-09
-2.39972e-09
-2.99989e-09
-3.5557e-09
-4.05771e-09
-4.49539e-09
-4.86039e-09
-5.14617e-09
-5.34809e-09
-5.46338e-09
-5.49099e-09
-5.43136e-09
-5.28595e-09
-5.05674e-09
-4.74551e-09
-4.35293e-09
-3.87763e-09
-3.31501e-09
-2.65608e-09
-1.88608e-09
-9.8316e-10
8.31066e-11
1.35309e-09
2.87851e-09
4.72382e-09
6.96744e-09
9.70298e-09
1.30404e-08
1.7107e-08
2.20486e-08
2.80306e-08
3.52391e-08
4.38824e-08
5.41924e-08
6.64269e-08
8.08717e-08
9.78437e-08
1.17695e-07
1.40815e-07
1.6764e-07
1.98654e-07
2.34398e-07
2.75475e-07
3.22563e-07
3.76417e-07
4.37879e-07
5.07889e-07
5.8749e-07
6.77831e-07
7.80176e-07
8.95901e-07
1.02649e-06
1.17352e-06
1.33865e-06
1.52359e-06
1.73004e-06
1.95966e-06
2.21394e-06
2.49411e-06
2.80098e-06
3.13469e-06
3.49451e-06
3.87837e-06
4.28244e-06
4.70052e-06
5.12317e-06
5.53689e-06
5.92281e-06
6.25526e-06
6.50037e-06
6.61286e-06
6.52638e-06
6.13301e-06
5.30599e-06
4.12464e-06
3.17784e-06
2.113e-06
-1.06301e-05
-9.86856e-05
0.000399064
0.000474534
0.000294049
0.00159271
0.0022025
0.00373316
0.00490411
0.00524119
0.00602901
0.00636643
0.00633037
0.00811289
0.0112473
0.0113396
0.0123118
0.0129271
0.013867
0.0157062
0.0162056
0.016677
0.0180214
0.019395
0.0194572
0.0194582
0.0194517
0.0194432
0.0194364
0.0194309
0.0194263
0.0194221
0.0194185
0.0194154
0.0194127
0.0194103
0.0194083
0.0194065
0.0194049
0.0194036
0.0194024
0.0194014
0.0194005
0.0193997
0.0193991
0.0193985
0.019398
0.0193975
0.0193972
0.0193968
0.0193965
0.0193963
0.0193961
0.0193959
0.0193957
0.0193956
0.0193955
0.0193954
0.0193953
0.0193952
0.0193951
0.019395
0.019395
0.0193949
0.0193949
0.0193949
0.0193948
0.0193948
0.0193948
0.0193947
0.0193947
0.0193947
0.0193947
0.0193946
0.0193946
0.0193946
0.0193946
0.0193946
0.0193946
0.0193946
0.0193946
0.0193945
0.0193945
0.0193945
0.0193945
0.0193945
0.0193945
0.0193945
0.0193945
0.0193945
0.0193945
0.0193945
0.0193945
0.0193945
0.0193945
0.0193945
0.0193945
0.0193945
0.0193945
0.0193945
0.0193945
)
;

boundaryField
{
    inlet
    {
        type            zeroGradient;
    }
    outlet
    {
        type            fixedValue;
        value           uniform 0;
    }
    repeat_boundary
    {
        type            zeroGradient;
    }
    procBoundary3to1
    {
        type            processor;
        value           nonuniform List<scalar> 
180
(
-6.18844e-10
-1.82243e-09
-3.01901e-09
-4.26551e-09
-5.58265e-09
-6.96814e-09
-8.42738e-09
-9.96117e-09
-1.15682e-08
-1.32447e-08
-1.49849e-08
-1.67819e-08
-1.86291e-08
-2.0522e-08
-2.24606e-08
-2.44499e-08
-2.65006e-08
-2.86301e-08
-3.08643e-08
-3.32384e-08
-3.57988e-08
-3.8604e-08
-4.17249e-08
-4.52459e-08
-4.92651e-08
-5.38946e-08
-5.92609e-08
-6.55052e-08
-7.27838e-08
-8.1269e-08
-9.115e-08
-1.02634e-07
-1.1595e-07
-1.31349e-07
-1.49106e-07
-1.6953e-07
-1.92961e-07
-2.19782e-07
-2.50422e-07
-2.85365e-07
-3.2516e-07
-3.70427e-07
-4.21875e-07
-4.80307e-07
-5.46642e-07
-6.21921e-07
-7.07331e-07
-8.04218e-07
-9.14104e-07
-1.03871e-06
-1.17996e-06
-1.34002e-06
-1.5213e-06
-1.72645e-06
-1.95842e-06
-2.2204e-06
-2.51588e-06
-2.84858e-06
-3.22247e-06
-3.64172e-06
-4.1106e-06
-4.63344e-06
-5.21443e-06
-5.85751e-06
-6.56601e-06
-7.34237e-06
-8.18757e-06
-9.10059e-06
-1.00776e-05
-1.11112e-05
-1.21885e-05
-1.32891e-05
-1.43817e-05
-1.54273e-05
-1.63947e-05
-1.72443e-05
-1.77167e-05
-1.688e-05
-1.38241e-05
-1.77775e-05
-0.000174744
0.00045416
0.000978756
0.000859684
0.00219226
0.0038424
0.00446118
0.00380123
0.00425773
0.00443988
0.00425743
0.00469086
0.0050643
0.00626567
0.00875348
0.010541
0.0106769
0.0115701
0.0149451
0.0171909
0.0188018
0.0192432
0.019389
0.0194275
0.0194399
0.0194366
0.0194299
0.0194247
0.0194207
0.0194174
0.0194144
0.0194119
0.0194096
0.0194077
0.019406
0.0194045
0.0194032
0.0194021
0.0194012
0.0194003
0.0193996
0.019399
0.0193984
0.0193979
0.0193975
0.0193972
0.0193968
0.0193966
0.0193963
0.0193961
0.0193959
0.0193958
0.0193956
0.0193955
0.0193954
0.0193953
0.0193952
0.0193951
0.0193951
0.019395
0.019395
0.0193949
0.0193949
0.0193948
0.0193948
0.0193948
0.0193947
0.0193947
0.0193947
0.0193947
0.0193947
0.0193946
0.0193946
0.0193946
0.0193946
0.0193946
0.0193946
0.0193946
0.0193945
0.0193945
0.0193945
0.0193945
0.0193945
0.0193945
0.0193945
0.0193945
0.0193945
0.0193945
0.0193945
0.0193945
0.0193945
0.0193945
0.0193945
0.0193945
0.0193945
0.0193945
0.0193945
0.0193945
0.0193945
0.0193945
)
;
    }
    procBoundary3to2
    {
        type            processor;
        value           nonuniform List<scalar> 
180
(
-4.90861e-10
-1.49624e-09
-2.50355e-09
-3.5326e-09
-4.59579e-09
-5.68435e-09
-6.79329e-09
-7.91048e-09
-9.01993e-09
-1.01012e-08
-1.11299e-08
-1.20779e-08
-1.2914e-08
-1.36049e-08
-1.41161e-08
-1.44121e-08
-1.44575e-08
-1.42176e-08
-1.3658e-08
-1.27452e-08
-1.14457e-08
-9.72497e-09
-7.54665e-09
-4.8702e-09
-1.64891e-09
2.17293e-09
6.66327e-09
1.1906e-08
1.80052e-08
2.50897e-08
3.33185e-08
4.28866e-08
5.40312e-08
6.70391e-08
8.22548e-08
1.00089e-07
1.21031e-07
1.45655e-07
1.74641e-07
2.08782e-07
2.4901e-07
2.96411e-07
3.5225e-07
4.18002e-07
4.95384e-07
5.86398e-07
6.93373e-07
8.19027e-07
9.66533e-07
1.1396e-06
1.34255e-06
1.58048e-06
1.85934e-06
2.18614e-06
2.56911e-06
3.01793e-06
3.54404e-06
4.16091e-06
4.88444e-06
5.73342e-06
6.73007e-06
7.90064e-06
9.27621e-06
1.08936e-05
1.27964e-05
1.50363e-05
1.76746e-05
2.07843e-05
2.44519e-05
2.87805e-05
3.38929e-05
3.9936e-05
4.70861e-05
5.55497e-05
6.55579e-05
7.73779e-05
9.14603e-05
0.000108774
0.000130402
0.000151801
8.38146e-05
0.000542285
0.000800291
0.000510837
0.000740392
0.00124381
0.00212751
0.00293951
0.00335446
0.0036761
0.00523328
0.0072985
0.00945219
0.00991114
0.0110108
0.0119813
0.0126026
0.013868
0.0143124
0.0157722
0.0184558
0.0191347
0.0193309
0.0193469
0.0193545
0.019362
0.0193659
0.0193694
0.0193727
0.0193756
0.0193782
0.0193803
0.0193822
0.0193839
0.0193853
0.0193866
0.0193877
0.0193886
0.0193894
0.0193901
0.0193907
0.0193913
0.0193917
0.0193921
0.0193925
0.0193928
0.019393
0.0193933
0.0193934
0.0193936
0.0193938
0.0193939
0.019394
0.0193941
0.0193942
0.0193942
0.0193943
0.0193943
0.0193944
0.0193944
0.0193944
0.0193945
0.0193945
0.0193945
0.0193945
0.0193945
0.0193945
0.0193945
0.0193945
0.0193945
0.0193945
0.0193945
0.0193945
0.0193945
0.0193945
0.0193945
0.0193945
0.0193945
0.0193945
0.0193945
0.0193945
0.0193945
0.0193945
0.0193945
0.0193945
0.0193945
0.0193945
0.0193945
0.0193945
0.0193945
0.0193945
0.0193945
0.0193945
0.0193945
0.0193945
0.0193945
0.0193945
0.0193945
0.0193945
0.0193945
)
;
    }
}


// ************************************************************************* //
