/*--------------------------------*- C++ -*----------------------------------*\
| =========                 |                                                 |
| \\      /  F ield         | OpenFOAM: The Open Source CFD Toolbox           |
|  \\    /   O peration     | Version:  5.x                                   |
|   \\  /    A nd           | Web:      www.OpenFOAM.org                      |
|    \\/     M anipulation  |                                                 |
\*---------------------------------------------------------------------------*/
FoamFile
{
    version     2.0;
    format      ascii;
    class       surfaceScalarField;
    location    "6000";
    object      phi;
}
// * * * * * * * * * * * * * * * * * * * * * * * * * * * * * * * * * * * * * //

dimensions      [0 3 -1 0 0 0 0];

internalField   nonuniform List<scalar> 
179
(
-249.975
-249.974
-249.974
-249.973
-249.972
-249.971
-249.969
-249.968
-249.966
-249.964
-249.961
-249.958
-249.955
-249.951
-249.947
-249.943
-249.938
-249.933
-249.927
-249.92
-249.913
-249.905
-249.896
-249.886
-249.875
-249.864
-249.851
-249.837
-249.822
-249.805
-249.787
-249.767
-249.746
-249.722
-249.697
-249.669
-249.639
-249.606
-249.57
-249.532
-249.49
-249.445
-249.397
-249.345
-249.288
-249.228
-249.164
-249.095
-249.022
-248.944
-248.861
-248.774
-248.683
-248.587
-248.487
-248.383
-248.276
-248.168
-248.058
-247.949
-247.842
-247.74
-247.645
-247.561
-247.492
-247.443
-247.421
-247.432
-247.487
-247.595
-247.769
-248.025
-248.381
-248.857
-249.47
-250.236
-251.145
-252.142
-253.051
-253.425
-253.506
-253.55
-243.441
-242.696
-244.39
-244.602
-246.819
-256.259
-264.755
-271.95
-281.326
-286.234
-286.859
-298.449
-305.385
-308.422
-326.426
-326.903
-335.085
-335.115
-324.491
-321.384
-320.864
-318.685
-314.679
-308.898
-302.698
-296.712
-291.221
-286.311
-281.97
-278.149
-274.79
-271.839
-269.246
-266.966
-264.962
-263.199
-261.648
-260.282
-259.08
-258.022
-257.089
-256.267
-255.543
-254.904
-254.34
-253.843
-253.404
-253.016
-252.673
-252.37
-252.102
-251.866
-251.656
-251.471
-251.306
-251.161
-251.032
-250.917
-250.816
-250.726
-250.646
-250.575
-250.512
-250.456
-250.406
-250.362
-250.323
-250.288
-250.257
-250.229
-250.204
-250.182
-250.163
-250.145
-250.129
-250.115
-250.103
-250.092
-250.082
-250.073
-250.065
-250.058
-250.051
-250.046
-250.041
-250.036
-250.032
-250.028
-250.025
-250.022
-250.019
-250.016
-250.014
-250.012
-250.01
-250.008
-250.006
)
;

boundaryField
{
    inlet
    {
        type            calculated;
        value           uniform -250.005;
    }
    outlet
    {
        type            calculated;
        value           uniform 249.975;
    }
    repeat_boundary
    {
        type            calculated;
        value           uniform 0;
    }
    procBoundary3to1
    {
        type            processor;
        value           nonuniform List<scalar> 
180
(
-0.000342197
-0.000443552
-0.00061343
-0.000821989
-0.00105289
-0.0012993
-0.0015598
-0.00183553
-0.00212864
-0.00244176
-0.0027778
-0.00313988
-0.00353139
-0.00395595
-0.00441748
-0.00492021
-0.00546872
-0.00606798
-0.00672336
-0.00744069
-0.0082263
-0.00908703
-0.0100303
-0.0110643
-0.0121979
-0.0134405
-0.0148025
-0.0162954
-0.0179312
-0.0197234
-0.0216864
-0.023836
-0.0261891
-0.0287642
-0.0315811
-0.0346616
-0.0380287
-0.0417076
-0.0457252
-0.0501105
-0.0548944
-0.0601104
-0.0657942
-0.0719836
-0.0787191
-0.0860436
-0.0940024
-0.102643
-0.112014
-0.122169
-0.133159
-0.145039
-0.157863
-0.171687
-0.186562
-0.202539
-0.219663
-0.237974
-0.257501
-0.278265
-0.300267
-0.32349
-0.347884
-0.373358
-0.399768
-0.42694
-0.454612
-0.482688
-0.510867
-0.538738
-0.565612
-0.589378
-0.610051
-0.625848
-0.633237
-0.624533
-0.586882
-0.503436
-0.375744
-0.245906
0.271066
-0.0438208
-8.55875
-0.979642
-0.250115
-1.8841
-0.000201473
4.97079
1.42472
6.87558
6.22003
6.56058
1.65638
8.39368
7.31605
2.32405
16.4824
0.261333
2.96279
-0.69611
-5.89548
-1.63278
0.0287309
-0.655681
-1.87345
-2.70557
-2.94717
-2.90448
-2.70879
-2.44412
-2.1684
-1.90996
-1.67804
-1.47329
-1.29353
-1.13593
-0.997806
-0.876727
-0.77057
-0.677474
-0.595809
-0.524155
-0.461265
-0.406051
-0.357562
-0.314965
-0.277536
-0.244637
-0.215716
-0.190283
-0.16791
-0.148219
-0.130882
-0.115613
-0.102167
-0.0903249
-0.0798896
-0.0706885
-0.0625715
-0.0554072
-0.0490809
-0.0434926
-0.038555
-0.034191
-0.0303326
-0.0269199
-0.0239003
-0.0212274
-0.0188606
-0.0167639
-0.0149059
-0.0132588
-0.0117981
-0.0105024
-0.00935259
-0.00833208
-0.00742612
-0.00662174
-0.00590747
-0.00527323
-0.00471009
-0.00421016
-0.00376649
-0.00337289
-0.00302393
-0.00271474
-0.00244105
-0.00219905
-0.00198534
-0.00179694
-0.00163116
-0.00148564
-0.00135829
-0.00124727
-0.00115096
-0.00106795
-0.000996995
-0.000937443
-0.000890433
-0.000870659
)
;
    }
    procBoundary3to2
    {
        type            processor;
        value           nonuniform List<scalar> 
180
(
2.50793e-05
3.52599e-05
4.99649e-05
6.74434e-05
8.71521e-05
0.000108932
0.000132828
0.00015909
0.000188076
0.000220216
0.000255992
0.000295926
0.000340614
0.00039074
0.000447084
0.000510535
0.000582115
0.000662993
0.000754517
0.000858232
0.000975914
0.0011096
0.00126164
0.00143471
0.00163187
0.00185665
0.00211306
0.00240571
0.00273983
0.00312142
0.00355734
0.0040554
0.00462456
0.00527502
0.00601845
0.0068682
0.00783951
0.00894981
0.010219
0.01167
0.0133288
0.0152255
0.0173943
0.0198742
0.0227101
0.0259532
0.0296618
0.033903
0.0387532
0.0442999
0.0506431
0.0578969
0.0661922
0.0756781
0.0865256
0.0989298
0.113114
0.129334
0.147881
0.169089
0.193342
0.221076
0.252793
0.289066
0.330552
0.378004
0.432283
0.494369
0.565385
0.646609
0.739474
0.845512
0.966029
1.10109
1.24683
1.38988
1.49627
1.50032
1.28454
0.620494
-0.189606
0.087628
-1.55049
0.234697
1.94459
2.09584
2.21693
4.46956
7.07117
0.318962
3.15662
-1.65242
-1.03196
3.1966
-0.380112
0.713157
1.5218
0.215113
5.21962
0.726354
-4.72837
-1.47465
-0.548889
-1.52256
-2.13241
-3.07581
-3.2526
-3.08075
-2.78215
-2.46624
-2.17277
-1.911
-1.68028
-1.47763
-1.29976
-1.14366
-1.00662
-0.886295
-0.78061
-0.687756
-0.606153
-0.534416
-0.471333
-0.415843
-0.367016
-0.324039
-0.286198
-0.252867
-0.223499
-0.197614
-0.174791
-0.154661
-0.1369
-0.121223
-0.107382
-0.0951555
-0.0843526
-0.0748044
-0.0663637
-0.0588984
-0.0522907
-0.0464411
-0.0412605
-0.0366711
-0.0326042
-0.028999
-0.0258017
-0.022965
-0.0204474
-0.018212
-0.0162266
-0.0144625
-0.0128945
-0.0115005
-0.0102607
-0.00915803
-0.00817701
-0.00730417
-0.00652756
-0.00583659
-0.00522192
-0.00467526
-0.00418925
-0.0037574
-0.00337393
-0.00303369
-0.00273214
-0.00246522
-0.00222933
-0.00202127
-0.0018382
-0.00167759
-0.00153722
-0.00141514
-0.00130964
-0.00121924
-0.00114265
-0.00107911
-0.00102941
-0.00101339
)
;
    }
}


// ************************************************************************* //
