/*--------------------------------*- C++ -*----------------------------------*\
| =========                 |                                                 |
| \\      /  F ield         | OpenFOAM: The Open Source CFD Toolbox           |
|  \\    /   O peration     | Version:  5.x                                   |
|   \\  /    A nd           | Web:      www.OpenFOAM.org                      |
|    \\/     M anipulation  |                                                 |
\*---------------------------------------------------------------------------*/
FoamFile
{
    version     2.0;
    format      ascii;
    class       volVectorField;
    location    "6000";
    object      stored_U;
}
// * * * * * * * * * * * * * * * * * * * * * * * * * * * * * * * * * * * * * //

dimensions      [0 1 -1 0 0 0 0];

internalField   nonuniform List<vector> 
180
(
(-9.2555e-10 1.33276e-08 -0.000999901)
(-1.26245e-09 1.73103e-08 -0.0009999)
(-1.75161e-09 2.39458e-08 -0.000999898)
(-2.33826e-09 3.21172e-08 -0.000999895)
(-3.00184e-09 4.11729e-08 -0.000999892)
(-3.73279e-09 5.08457e-08 -0.000999887)
(-4.53132e-09 6.10846e-08 -0.000999882)
(-5.4065e-09 7.19362e-08 -0.000999876)
(-6.37256e-09 8.34871e-08 -0.000999868)
(-7.4473e-09 9.58412e-08 -0.00099986)
(-8.65144e-09 1.09113e-07 -0.00099985)
(-1.00086e-08 1.23424e-07 -0.000999839)
(-1.15455e-08 1.38908e-07 -0.000999827)
(-1.32925e-08 1.55706e-07 -0.000999813)
(-1.52836e-08 1.73971e-07 -0.000999798)
(-1.75574e-08 1.93873e-07 -0.000999781)
(-2.01574e-08 2.15592e-07 -0.000999762)
(-2.31328e-08 2.39325e-07 -0.000999741)
(-2.65389e-08 2.65289e-07 -0.000999718)
(-3.04384e-08 2.93719e-07 -0.000999693)
(-3.49024e-08 3.24871e-07 -0.000999664)
(-4.00115e-08 3.59026e-07 -0.000999634)
(-4.58573e-08 3.9649e-07 -0.0009996)
(-5.25441e-08 4.37598e-07 -0.000999562)
(-6.0191e-08 4.82716e-07 -0.000999521)
(-6.89341e-08 5.32242e-07 -0.000999476)
(-7.89291e-08 5.86611e-07 -0.000999427)
(-9.03544e-08 6.46298e-07 -0.000999373)
(-1.03415e-07 7.11818e-07 -0.000999313)
(-1.18347e-07 7.83733e-07 -0.000999248)
(-1.3542e-07 8.62653e-07 -0.000999177)
(-1.54946e-07 9.49241e-07 -0.000999099)
(-1.77283e-07 1.04421e-06 -0.000999015)
(-2.02844e-07 1.14835e-06 -0.000998922)
(-2.32103e-07 1.2625e-06 -0.000998821)
(-2.65608e-07 1.38756e-06 -0.00099871)
(-3.03987e-07 1.52453e-06 -0.00099859)
(-3.47965e-07 1.67445e-06 -0.00099846)
(-3.98373e-07 1.83847e-06 -0.000998318)
(-4.56169e-07 2.01782e-06 -0.000998164)
(-5.22454e-07 2.21382e-06 -0.000997997)
(-5.98493e-07 2.42786e-06 -0.000997816)
(-6.85739e-07 2.66147e-06 -0.000997621)
(-7.85861e-07 2.91625e-06 -0.00099741)
(-9.00778e-07 3.1939e-06 -0.000997182)
(-1.03269e-06 3.49626e-06 -0.000996937)
(-1.18413e-06 3.82524e-06 -0.000996674)
(-1.358e-06 4.18287e-06 -0.000996392)
(-1.55764e-06 4.57128e-06 -0.00099609)
(-1.78688e-06 4.99268e-06 -0.000995767)
(-2.05011e-06 5.44939e-06 -0.000995424)
(-2.3524e-06 5.94379e-06 -0.000995059)
(-2.69957e-06 6.4783e-06 -0.000994673)
(-3.09829e-06 7.05536e-06 -0.000994266)
(-3.55626e-06 7.67742e-06 -0.000993839)
(-4.08232e-06 8.34686e-06 -0.000993394)
(-4.68667e-06 9.06595e-06 -0.000992932)
(-5.38102e-06 9.83677e-06 -0.000992456)
(-6.17889e-06 1.06611e-05 -0.000991971)
(-7.09584e-06 1.15404e-05 -0.000991482)
(-8.14982e-06 1.24756e-05 -0.000990996)
(-9.36155e-06 1.34668e-05 -0.000990522)
(-1.07549e-05 1.45133e-05 -0.000990071)
(-1.23575e-05 1.56133e-05 -0.000989659)
(-1.42011e-05 1.67634e-05 -0.000989304)
(-1.63227e-05 1.79585e-05 -0.000989028)
(-1.87648e-05 1.9191e-05 -0.00098886)
(-2.15768e-05 2.04504e-05 -0.000988835)
(-2.48158e-05 2.17228e-05 -0.000988995)
(-2.85477e-05 2.29898e-05 -0.000989391)
(-3.28478e-05 2.42279e-05 -0.000990087)
(-3.77991e-05 2.54055e-05 -0.000991153)
(-4.34821e-05 2.64781e-05 -0.000992621)
(-4.99349e-05 2.73746e-05 -0.000994553)
(-5.7048e-05 2.79603e-05 -0.0009976)
(-6.43228e-05 2.79607e-05 -0.00100368)
(-7.02887e-05 2.68944e-05 -0.00101185)
(-7.23125e-05 2.4117e-05 -0.0010023)
(-6.51291e-05 1.93651e-05 -0.000936743)
(-4.2886e-05 1.34637e-05 -0.000910388)
(-9.18972e-06 -5.83701e-06 -0.00286594)
(5.37005e-05 -5.80181e-06 -5.38464e-05)
(5.445e-05 0.000510883 -0.00380608)
(5.72749e-05 2.14282e-05 -0.000171882)
(-9.60934e-05 -4.91821e-05 -0.0039692)
(1.74592e-06 6.40861e-05 -0.00414831)
(4.75359e-05 3.51468e-05 -0.000474403)
(-0.00034258 -0.000209813 -0.00384496)
(-0.000404366 -0.00015817 -0.0037714)
(-2.57605e-05 -4.7818e-05 -0.000364442)
(-0.000256945 -0.000667601 -0.00302645)
(0.000219349 -0.000314964 -0.00394677)
(-2.93574e-05 -2.94321e-05 -0.000461103)
(-0.000202499 -0.000714743 -0.00475977)
(-0.000125114 -0.000851017 -0.00346905)
(-1.7797e-05 -1.7627e-05 -0.000269474)
(-0.000172893 -0.00096987 -0.00522726)
(-1.46613e-05 -1.65139e-05 -0.000283736)
(-0.00033182 -0.000348774 -0.00533808)
(-5.97978e-05 8.83419e-06 -0.00140424)
(0.000361806 0.000388207 -0.00437591)
(5.58606e-05 2.38584e-05 -0.000390507)
(3.76639e-05 1.43202e-05 -0.00356224)
(6.24879e-05 7.19674e-05 -0.00149428)
(0.000102114 0.000113847 -0.00142105)
(0.000131259 0.000119492 -0.00131409)
(0.000137726 0.000117882 -0.00123923)
(0.000130259 0.000114032 -0.00120565)
(0.000117531 0.000106595 -0.00118428)
(0.000104077 9.65584e-05 -0.00116357)
(9.15765e-05 8.58303e-05 -0.00114396)
(8.04328e-05 7.56318e-05 -0.00112653)
(7.06222e-05 6.64284e-05 -0.00111131)
(6.20145e-05 5.82897e-05 -0.00109798)
(5.44682e-05 5.11422e-05 -0.00108628)
(4.78529e-05 4.48778e-05 -0.00107599)
(4.20528e-05 3.93897e-05 -0.00106696)
(3.69664e-05 3.45816e-05 -0.00105901)
(3.25049e-05 3.03685e-05 -0.00105203)
(2.85906e-05 2.66761e-05 -0.00104589)
(2.51554e-05 2.34393e-05 -0.00104049)
(2.21401e-05 2.06013e-05 -0.00103573)
(1.94925e-05 1.81125e-05 -0.00103155)
(1.71672e-05 1.59293e-05 -0.00102786)
(1.51244e-05 1.40138e-05 -0.00102462)
(1.33292e-05 1.23327e-05 -0.00102176)
(1.17512e-05 1.0857e-05 -0.00101924)
(1.03637e-05 9.5613e-06 -0.00101702)
(9.14321e-06 8.42337e-06 -0.00101506)
(8.06936e-06 7.42375e-06 -0.00101333)
(7.1242e-06 6.54533e-06 -0.0010118)
(6.29202e-06 5.7731e-06 -0.00101046)
(5.55908e-06 5.09399e-06 -0.00100927)
(4.9133e-06 4.49654e-06 -0.00100822)
(4.34412e-06 3.97093e-06 -0.00100729)
(3.84227e-06 3.50838e-06 -0.00100646)
(3.39966e-06 3.10107e-06 -0.00100574)
(3.00919e-06 2.74218e-06 -0.0010051)
(2.66468e-06 2.42575e-06 -0.00100453)
(2.36063e-06 2.14662e-06 -0.00100402)
(2.09211e-06 1.90028e-06 -0.00100358)
(1.85484e-06 1.68283e-06 -0.00100318)
(1.64509e-06 1.49086e-06 -0.00100283)
(1.45962e-06 1.32132e-06 -0.00100252)
(1.29557e-06 1.17156e-06 -0.00100224)
(1.15042e-06 1.03921e-06 -0.001002)
(1.02194e-06 9.2223e-07 -0.00100178)
(9.08188e-07 8.18788e-07 -0.00100159)
(8.0744e-07 7.2729e-07 -0.00100142)
(7.18181e-07 6.4633e-07 -0.00100126)
(6.39076e-07 5.74672e-07 -0.00100113)
(5.68949e-07 5.11225e-07 -0.00100101)
(5.06761e-07 4.55031e-07 -0.0010009)
(4.51598e-07 4.05242e-07 -0.0010008)
(4.0265e-07 3.61113e-07 -0.00100072)
(3.59204e-07 3.21987e-07 -0.00100064)
(3.20628e-07 2.87282e-07 -0.00100057)
(2.86367e-07 2.56487e-07 -0.00100051)
(2.55927e-07 2.29151e-07 -0.00100046)
(2.28873e-07 2.04875e-07 -0.00100041)
(2.04822e-07 1.83308e-07 -0.00100036)
(1.83435e-07 1.64139e-07 -0.00100032)
(1.64412e-07 1.47097e-07 -0.00100029)
(1.4749e-07 1.31942e-07 -0.00100026)
(1.32436e-07 1.18462e-07 -0.00100023)
(1.19048e-07 1.06473e-07 -0.0010002)
(1.07146e-07 9.58126e-08 -0.00100018)
(9.65736e-08 8.63387e-08 -0.00100016)
(8.71932e-08 7.79278e-08 -0.00100014)
(7.88856e-08 7.04719e-08 -0.00100012)
(7.15467e-08 6.38774e-08 -0.00100011)
(6.50863e-08 5.80631e-08 -0.0010001)
(5.94264e-08 5.29589e-08 -0.00100008)
(5.44999e-08 4.85042e-08 -0.00100007)
(5.02495e-08 4.46474e-08 -0.00100006)
(4.66256e-08 4.13432e-08 -0.00100005)
(4.35859e-08 3.85533e-08 -0.00100004)
(4.11129e-08 3.62665e-08 -0.00100004)
(3.92471e-08 3.45329e-08 -0.00100003)
(3.81675e-08 3.35348e-08 -0.00100002)
)
;

boundaryField
{
    inlet
    {
        type            calculated;
        value           uniform (3.81675e-08 3.35348e-08 -0.00100002);
    }
    outlet
    {
        type            calculated;
        value           uniform (-9.2555e-10 1.33276e-08 -0.000999901);
    }
    repeat_boundary
    {
        type            calculated;
        value           nonuniform List<vector> 
360
(
(0 1.33276e-08 -0.000999901)
(0 1.73103e-08 -0.0009999)
(0 2.39458e-08 -0.000999898)
(0 3.21172e-08 -0.000999895)
(0 4.11729e-08 -0.000999892)
(0 5.08457e-08 -0.000999887)
(0 6.10846e-08 -0.000999882)
(0 7.19362e-08 -0.000999876)
(0 8.34871e-08 -0.000999868)
(0 9.58412e-08 -0.00099986)
(0 1.09113e-07 -0.00099985)
(0 1.23424e-07 -0.000999839)
(0 1.38908e-07 -0.000999827)
(0 1.55706e-07 -0.000999813)
(0 1.73971e-07 -0.000999798)
(0 1.93873e-07 -0.000999781)
(0 2.15592e-07 -0.000999762)
(0 2.39325e-07 -0.000999741)
(0 2.65289e-07 -0.000999718)
(0 2.93719e-07 -0.000999693)
(0 3.24871e-07 -0.000999664)
(0 3.59026e-07 -0.000999634)
(0 3.9649e-07 -0.0009996)
(0 4.37598e-07 -0.000999562)
(0 4.82716e-07 -0.000999521)
(0 5.32242e-07 -0.000999476)
(0 5.86611e-07 -0.000999427)
(0 6.46298e-07 -0.000999373)
(0 7.11818e-07 -0.000999313)
(0 7.83733e-07 -0.000999248)
(0 8.62653e-07 -0.000999177)
(0 9.49241e-07 -0.000999099)
(0 1.04421e-06 -0.000999015)
(0 1.14835e-06 -0.000998922)
(0 1.2625e-06 -0.000998821)
(0 1.38756e-06 -0.00099871)
(0 1.52453e-06 -0.00099859)
(0 1.67445e-06 -0.00099846)
(0 1.83847e-06 -0.000998318)
(0 2.01782e-06 -0.000998164)
(0 2.21382e-06 -0.000997997)
(0 2.42786e-06 -0.000997816)
(0 2.66147e-06 -0.000997621)
(0 2.91625e-06 -0.00099741)
(0 3.1939e-06 -0.000997182)
(0 3.49626e-06 -0.000996937)
(0 3.82524e-06 -0.000996674)
(0 4.18287e-06 -0.000996392)
(0 4.57128e-06 -0.00099609)
(0 4.99268e-06 -0.000995767)
(0 5.44939e-06 -0.000995424)
(0 5.94379e-06 -0.000995059)
(0 6.4783e-06 -0.000994673)
(0 7.05536e-06 -0.000994266)
(0 7.67742e-06 -0.000993839)
(0 8.34686e-06 -0.000993394)
(0 9.06595e-06 -0.000992932)
(0 9.83677e-06 -0.000992456)
(0 1.06611e-05 -0.000991971)
(0 1.15404e-05 -0.000991482)
(0 1.24756e-05 -0.000990996)
(0 1.34668e-05 -0.000990522)
(0 1.45133e-05 -0.000990071)
(0 1.56133e-05 -0.000989659)
(0 1.67634e-05 -0.000989304)
(0 1.79585e-05 -0.000989028)
(0 1.9191e-05 -0.00098886)
(0 2.04504e-05 -0.000988835)
(0 2.17228e-05 -0.000988995)
(0 2.29898e-05 -0.000989391)
(0 2.42279e-05 -0.000990087)
(0 2.54055e-05 -0.000991153)
(0 2.64781e-05 -0.000992621)
(0 2.73746e-05 -0.000994553)
(0 2.79603e-05 -0.0009976)
(0 2.79607e-05 -0.00100368)
(0 2.68944e-05 -0.00101185)
(0 2.4117e-05 -0.0010023)
(0 1.93651e-05 -0.000936743)
(0 1.34637e-05 -0.000910388)
(0 -5.83701e-06 -0.00286594)
(0 -5.80181e-06 -5.38464e-05)
(0 0.000510883 -0.00380608)
(0 2.14282e-05 -0.000171882)
(0 -4.91821e-05 -0.0039692)
(0 6.40861e-05 -0.00414831)
(0 3.51468e-05 -0.000474403)
(0 -0.000209813 -0.00384496)
(0 -0.00015817 -0.0037714)
(0 -4.7818e-05 -0.000364442)
(0 -0.000667601 -0.00302645)
(0 -0.000314964 -0.00394677)
(0 -2.94321e-05 -0.000461103)
(0 -0.000714743 -0.00475977)
(0 -0.000851017 -0.00346905)
(0 -1.7627e-05 -0.000269474)
(0 -0.00096987 -0.00522726)
(0 -1.65139e-05 -0.000283736)
(0 -0.000348774 -0.00533808)
(0 8.83419e-06 -0.00140424)
(0 0.000388207 -0.00437591)
(0 2.38584e-05 -0.000390507)
(0 1.43202e-05 -0.00356224)
(0 7.19674e-05 -0.00149428)
(0 0.000113847 -0.00142105)
(0 0.000119492 -0.00131409)
(0 0.000117882 -0.00123923)
(0 0.000114032 -0.00120565)
(0 0.000106595 -0.00118428)
(0 9.65584e-05 -0.00116357)
(0 8.58303e-05 -0.00114396)
(0 7.56318e-05 -0.00112653)
(0 6.64284e-05 -0.00111131)
(0 5.82897e-05 -0.00109798)
(0 5.11422e-05 -0.00108628)
(0 4.48778e-05 -0.00107599)
(0 3.93897e-05 -0.00106696)
(0 3.45816e-05 -0.00105901)
(0 3.03685e-05 -0.00105203)
(0 2.66761e-05 -0.00104589)
(0 2.34393e-05 -0.00104049)
(0 2.06013e-05 -0.00103573)
(0 1.81125e-05 -0.00103155)
(0 1.59293e-05 -0.00102786)
(0 1.40138e-05 -0.00102462)
(0 1.23327e-05 -0.00102176)
(0 1.0857e-05 -0.00101924)
(0 9.5613e-06 -0.00101702)
(0 8.42337e-06 -0.00101506)
(0 7.42375e-06 -0.00101333)
(0 6.54533e-06 -0.0010118)
(0 5.7731e-06 -0.00101046)
(0 5.09399e-06 -0.00100927)
(0 4.49654e-06 -0.00100822)
(0 3.97093e-06 -0.00100729)
(0 3.50838e-06 -0.00100646)
(0 3.10107e-06 -0.00100574)
(0 2.74218e-06 -0.0010051)
(0 2.42575e-06 -0.00100453)
(0 2.14662e-06 -0.00100402)
(0 1.90028e-06 -0.00100358)
(0 1.68283e-06 -0.00100318)
(0 1.49086e-06 -0.00100283)
(0 1.32132e-06 -0.00100252)
(0 1.17156e-06 -0.00100224)
(0 1.03921e-06 -0.001002)
(0 9.2223e-07 -0.00100178)
(0 8.18788e-07 -0.00100159)
(0 7.2729e-07 -0.00100142)
(0 6.4633e-07 -0.00100126)
(0 5.74672e-07 -0.00100113)
(0 5.11225e-07 -0.00100101)
(0 4.55031e-07 -0.0010009)
(0 4.05242e-07 -0.0010008)
(0 3.61113e-07 -0.00100072)
(0 3.21987e-07 -0.00100064)
(0 2.87282e-07 -0.00100057)
(0 2.56487e-07 -0.00100051)
(0 2.29151e-07 -0.00100046)
(0 2.04875e-07 -0.00100041)
(0 1.83308e-07 -0.00100036)
(0 1.64139e-07 -0.00100032)
(0 1.47097e-07 -0.00100029)
(0 1.31942e-07 -0.00100026)
(0 1.18462e-07 -0.00100023)
(0 1.06473e-07 -0.0010002)
(0 9.58126e-08 -0.00100018)
(0 8.63387e-08 -0.00100016)
(0 7.79278e-08 -0.00100014)
(0 7.04719e-08 -0.00100012)
(0 6.38774e-08 -0.00100011)
(0 5.80631e-08 -0.0010001)
(0 5.29589e-08 -0.00100008)
(0 4.85042e-08 -0.00100007)
(0 4.46474e-08 -0.00100006)
(0 4.13432e-08 -0.00100005)
(0 3.85533e-08 -0.00100004)
(0 3.62665e-08 -0.00100004)
(0 3.45329e-08 -0.00100003)
(0 3.35348e-08 -0.00100002)
(-9.2555e-10 0 -0.000999901)
(-1.26245e-09 0 -0.0009999)
(-1.75161e-09 0 -0.000999898)
(-2.33826e-09 0 -0.000999895)
(-3.00184e-09 0 -0.000999892)
(-3.73279e-09 0 -0.000999887)
(-4.53132e-09 0 -0.000999882)
(-5.4065e-09 0 -0.000999876)
(-6.37256e-09 0 -0.000999868)
(-7.4473e-09 0 -0.00099986)
(-8.65144e-09 0 -0.00099985)
(-1.00086e-08 0 -0.000999839)
(-1.15455e-08 0 -0.000999827)
(-1.32925e-08 0 -0.000999813)
(-1.52836e-08 0 -0.000999798)
(-1.75574e-08 0 -0.000999781)
(-2.01574e-08 0 -0.000999762)
(-2.31328e-08 0 -0.000999741)
(-2.65389e-08 0 -0.000999718)
(-3.04384e-08 0 -0.000999693)
(-3.49024e-08 0 -0.000999664)
(-4.00115e-08 0 -0.000999634)
(-4.58573e-08 0 -0.0009996)
(-5.25441e-08 0 -0.000999562)
(-6.0191e-08 0 -0.000999521)
(-6.89341e-08 0 -0.000999476)
(-7.89291e-08 0 -0.000999427)
(-9.03544e-08 0 -0.000999373)
(-1.03415e-07 0 -0.000999313)
(-1.18347e-07 0 -0.000999248)
(-1.3542e-07 0 -0.000999177)
(-1.54946e-07 0 -0.000999099)
(-1.77283e-07 0 -0.000999015)
(-2.02844e-07 0 -0.000998922)
(-2.32103e-07 0 -0.000998821)
(-2.65608e-07 0 -0.00099871)
(-3.03987e-07 0 -0.00099859)
(-3.47965e-07 0 -0.00099846)
(-3.98373e-07 0 -0.000998318)
(-4.56169e-07 0 -0.000998164)
(-5.22454e-07 0 -0.000997997)
(-5.98493e-07 0 -0.000997816)
(-6.85739e-07 0 -0.000997621)
(-7.85861e-07 0 -0.00099741)
(-9.00778e-07 0 -0.000997182)
(-1.03269e-06 0 -0.000996937)
(-1.18413e-06 0 -0.000996674)
(-1.358e-06 0 -0.000996392)
(-1.55764e-06 0 -0.00099609)
(-1.78688e-06 0 -0.000995767)
(-2.05011e-06 0 -0.000995424)
(-2.3524e-06 0 -0.000995059)
(-2.69957e-06 0 -0.000994673)
(-3.09829e-06 0 -0.000994266)
(-3.55626e-06 0 -0.000993839)
(-4.08232e-06 0 -0.000993394)
(-4.68667e-06 0 -0.000992932)
(-5.38102e-06 0 -0.000992456)
(-6.17889e-06 0 -0.000991971)
(-7.09584e-06 0 -0.000991482)
(-8.14982e-06 0 -0.000990996)
(-9.36155e-06 0 -0.000990522)
(-1.07549e-05 0 -0.000990071)
(-1.23575e-05 0 -0.000989659)
(-1.42011e-05 0 -0.000989304)
(-1.63227e-05 0 -0.000989028)
(-1.87648e-05 0 -0.00098886)
(-2.15768e-05 0 -0.000988835)
(-2.48158e-05 0 -0.000988995)
(-2.85477e-05 0 -0.000989391)
(-3.28478e-05 0 -0.000990087)
(-3.77991e-05 0 -0.000991153)
(-4.34821e-05 0 -0.000992621)
(-4.99349e-05 0 -0.000994553)
(-5.7048e-05 0 -0.0009976)
(-6.43228e-05 0 -0.00100368)
(-7.02887e-05 0 -0.00101185)
(-7.23125e-05 0 -0.0010023)
(-6.51291e-05 0 -0.000936743)
(-4.2886e-05 0 -0.000910388)
(-9.18972e-06 0 -0.00286594)
(5.37005e-05 0 -5.38464e-05)
(5.445e-05 0 -0.00380608)
(5.72749e-05 0 -0.000171882)
(-9.60934e-05 0 -0.0039692)
(1.74592e-06 0 -0.00414831)
(4.75359e-05 0 -0.000474403)
(-0.00034258 0 -0.00384496)
(-0.000404366 0 -0.0037714)
(-2.57605e-05 0 -0.000364442)
(-0.000256945 0 -0.00302645)
(0.000219349 0 -0.00394677)
(-2.93574e-05 0 -0.000461103)
(-0.000202499 0 -0.00475977)
(-0.000125114 0 -0.00346905)
(-1.7797e-05 0 -0.000269474)
(-0.000172893 0 -0.00522726)
(-1.46613e-05 0 -0.000283736)
(-0.00033182 0 -0.00533808)
(-5.97978e-05 0 -0.00140424)
(0.000361806 0 -0.00437591)
(5.58606e-05 0 -0.000390507)
(3.76639e-05 0 -0.00356224)
(6.24879e-05 0 -0.00149428)
(0.000102114 0 -0.00142105)
(0.000131259 0 -0.00131409)
(0.000137726 0 -0.00123923)
(0.000130259 0 -0.00120565)
(0.000117531 0 -0.00118428)
(0.000104077 0 -0.00116357)
(9.15765e-05 0 -0.00114396)
(8.04328e-05 0 -0.00112653)
(7.06222e-05 0 -0.00111131)
(6.20145e-05 0 -0.00109798)
(5.44682e-05 0 -0.00108628)
(4.78529e-05 0 -0.00107599)
(4.20528e-05 0 -0.00106696)
(3.69664e-05 0 -0.00105901)
(3.25049e-05 0 -0.00105203)
(2.85906e-05 0 -0.00104589)
(2.51554e-05 0 -0.00104049)
(2.21401e-05 0 -0.00103573)
(1.94925e-05 0 -0.00103155)
(1.71672e-05 0 -0.00102786)
(1.51244e-05 0 -0.00102462)
(1.33292e-05 0 -0.00102176)
(1.17512e-05 0 -0.00101924)
(1.03637e-05 0 -0.00101702)
(9.14321e-06 0 -0.00101506)
(8.06936e-06 0 -0.00101333)
(7.1242e-06 0 -0.0010118)
(6.29202e-06 0 -0.00101046)
(5.55908e-06 0 -0.00100927)
(4.9133e-06 0 -0.00100822)
(4.34412e-06 0 -0.00100729)
(3.84227e-06 0 -0.00100646)
(3.39966e-06 0 -0.00100574)
(3.00919e-06 0 -0.0010051)
(2.66468e-06 0 -0.00100453)
(2.36063e-06 0 -0.00100402)
(2.09211e-06 0 -0.00100358)
(1.85484e-06 0 -0.00100318)
(1.64509e-06 0 -0.00100283)
(1.45962e-06 0 -0.00100252)
(1.29557e-06 0 -0.00100224)
(1.15042e-06 0 -0.001002)
(1.02194e-06 0 -0.00100178)
(9.08188e-07 0 -0.00100159)
(8.0744e-07 0 -0.00100142)
(7.18181e-07 0 -0.00100126)
(6.39076e-07 0 -0.00100113)
(5.68949e-07 0 -0.00100101)
(5.06761e-07 0 -0.0010009)
(4.51598e-07 0 -0.0010008)
(4.0265e-07 0 -0.00100072)
(3.59204e-07 0 -0.00100064)
(3.20628e-07 0 -0.00100057)
(2.86367e-07 0 -0.00100051)
(2.55927e-07 0 -0.00100046)
(2.28873e-07 0 -0.00100041)
(2.04822e-07 0 -0.00100036)
(1.83435e-07 0 -0.00100032)
(1.64412e-07 0 -0.00100029)
(1.4749e-07 0 -0.00100026)
(1.32436e-07 0 -0.00100023)
(1.19048e-07 0 -0.0010002)
(1.07146e-07 0 -0.00100018)
(9.65736e-08 0 -0.00100016)
(8.71932e-08 0 -0.00100014)
(7.88856e-08 0 -0.00100012)
(7.15467e-08 0 -0.00100011)
(6.50863e-08 0 -0.0010001)
(5.94264e-08 0 -0.00100008)
(5.44999e-08 0 -0.00100007)
(5.02495e-08 0 -0.00100006)
(4.66256e-08 0 -0.00100005)
(4.35859e-08 0 -0.00100004)
(4.11129e-08 0 -0.00100004)
(3.92471e-08 0 -0.00100003)
(3.81675e-08 0 -0.00100002)
)
;
    }
    procBoundary3to1
    {
        type            processor;
        value           nonuniform List<vector> 
180
(
(3.19464e-11 1.33276e-08 -0.00100008)
(4.64214e-11 1.73103e-08 -0.00100008)
(1.07942e-10 2.39459e-08 -0.00100008)
(1.93932e-10 3.21174e-08 -0.00100008)
(2.90945e-10 4.11731e-08 -0.00100009)
(4.00083e-10 5.08459e-08 -0.00100009)
(5.28568e-10 6.10848e-08 -0.0010001)
(6.85639e-10 7.19364e-08 -0.0010001)
(8.80809e-10 8.34873e-08 -0.00100011)
(1.12443e-09 9.58415e-08 -0.00100012)
(1.42833e-09 1.09113e-07 -0.00100013)
(1.80621e-09 1.23425e-07 -0.00100014)
(2.274e-09 1.38908e-07 -0.00100016)
(2.84974e-09 1.55706e-07 -0.00100017)
(3.55363e-09 1.73972e-07 -0.00100019)
(4.40854e-09 1.93874e-07 -0.00100021)
(5.44076e-09 2.15593e-07 -0.00100023)
(6.68061e-09 2.39326e-07 -0.00100025)
(8.1629e-09 2.65291e-07 -0.00100028)
(9.92766e-09 2.93721e-07 -0.0010003)
(1.20208e-08 3.24873e-07 -0.00100033)
(1.44952e-08 3.59028e-07 -0.00100037)
(1.74116e-08 3.96493e-07 -0.0010004)
(2.084e-08 4.37602e-07 -0.00100045)
(2.48616e-08 4.8272e-07 -0.00100049)
(2.95699e-08 5.32247e-07 -0.00100054)
(3.50738e-08 5.86617e-07 -0.0010006)
(4.14993e-08 6.46305e-07 -0.00100066)
(4.89932e-08 7.11826e-07 -0.00100072)
(5.77261e-08 7.83743e-07 -0.0010008)
(6.78967e-08 8.62665e-07 -0.00100087)
(7.97361e-08 9.49256e-07 -0.00100096)
(9.35137e-08 1.04423e-06 -0.00100106)
(1.09543e-07 1.14838e-06 -0.00100116)
(1.28188e-07 1.26253e-06 -0.00100128)
(1.49873e-07 1.3876e-06 -0.0010014)
(1.75091e-07 1.52457e-06 -0.00100154)
(2.04413e-07 1.6745e-06 -0.00100168)
(2.38506e-07 1.83853e-06 -0.00100184)
(2.78137e-07 2.01789e-06 -0.00100202)
(3.24201e-07 2.2139e-06 -0.00100221)
(3.77732e-07 2.42796e-06 -0.00100241)
(4.39926e-07 2.66159e-06 -0.00100264)
(5.12169e-07 2.91639e-06 -0.00100288)
(5.96063e-07 3.19408e-06 -0.00100314)
(6.93458e-07 3.49647e-06 -0.00100342)
(8.06495e-07 3.82549e-06 -0.00100373)
(9.37645e-07 4.18317e-06 -0.00100406)
(1.08976e-06 4.57163e-06 -0.00100441)
(1.26615e-06 4.99311e-06 -0.00100479)
(1.47061e-06 5.44991e-06 -0.0010052)
(1.70754e-06 5.9444e-06 -0.00100564)
(1.98204e-06 6.47902e-06 -0.0010061)
(2.29997e-06 7.05623e-06 -0.0010066)
(2.66813e-06 7.67846e-06 -0.00100713)
(3.09435e-06 8.3481e-06 -0.00100768)
(3.58772e-06 9.06742e-06 -0.00100826)
(4.15871e-06 9.83852e-06 -0.00100887)
(4.81948e-06 1.06632e-05 -0.00100951)
(5.58404e-06 1.15429e-05 -0.00101016)
(6.46864e-06 1.24786e-05 -0.00101083)
(7.49208e-06 1.34703e-05 -0.00101151)
(8.67613e-06 1.45176e-05 -0.00101219)
(1.0046e-05 1.56184e-05 -0.00101285)
(1.16308e-05 1.67695e-05 -0.00101348)
(1.34645e-05 1.79659e-05 -0.00101407)
(1.55862e-05 1.92e-05 -0.00101458)
(1.80415e-05 2.04615e-05 -0.00101499)
(2.08832e-05 2.17364e-05 -0.00101525)
(2.41724e-05 2.30066e-05 -0.00101533)
(2.79792e-05 2.42486e-05 -0.00101518)
(3.23826e-05 2.54306e-05 -0.0010147)
(3.74641e-05 2.65069e-05 -0.00101376)
(4.32813e-05 2.74019e-05 -0.00101218)
(4.97833e-05 2.79701e-05 -0.00101024)
(5.66081e-05 2.7917e-05 -0.00100962)
(6.25739e-05 2.67409e-05 -0.00101068)
(6.5673e-05 2.38194e-05 -0.000995605)
(6.19483e-05 1.90044e-05 -0.000924724)
(4.71954e-05 1.33213e-05 -0.000784716)
(1.18042e-05 -5.2948e-06 -0.00326412)
(1.29657e-05 2.85087e-06 4.57352e-05)
(-0.000215464 0.000323487 -0.0040074)
(-9.74907e-05 0.000126513 -0.00265339)
(-6.26629e-05 -3.1137e-05 -0.00108705)
(-0.000283787 5.36339e-05 -0.00515323)
(-8.85867e-05 -2.74869e-06 -0.000479777)
(-0.000901914 -0.000402598 -0.00521227)
(-2.97226e-05 1.30093e-05 -3.3061e-05)
(0.000584017 -0.000805347 -0.0045635)
(1.78732e-06 -2.56475e-05 -0.000204827)
(0.000414303 -0.000439261 -0.00408374)
(0.000124408 -0.000239313 -0.00151952)
(0.00028416 -0.000639074 -0.00474436)
(1.90487e-05 -3.81547e-05 -0.000572399)
(7.24796e-05 -0.000325398 -0.00296357)
(0.000328353 -0.000562362 -0.00227082)
(2.48303e-05 -2.86098e-06 -0.000241128)
(1.18008e-05 -0.00012569 -0.00409716)
(-2.5806e-05 1.98568e-05 -0.000647391)
(-0.000177308 0.000134956 -0.00246707)
(-8.4962e-05 0.000112492 -0.00125434)
(-0.000139088 -6.00124e-06 -0.00125932)
(-8.23759e-05 1.26856e-05 -0.00103933)
(-3.4979e-05 5.82223e-05 -0.000939175)
(-5.79502e-05 0.000100767 -0.000873885)
(-6.63727e-05 0.000118102 -0.000844422)
(-6.33186e-05 0.000117874 -0.000857003)
(-5.62019e-05 0.000109252 -0.000878084)
(-4.8549e-05 9.78867e-05 -0.000895306)
(-4.14588e-05 8.64616e-05 -0.000909185)
(-3.52021e-05 7.59676e-05 -0.000921132)
(-2.97919e-05 6.66387e-05 -0.000931598)
(-2.51547e-05 5.84374e-05 -0.000940717)
(-2.11937e-05 5.12514e-05 -0.000948627)
(-1.78156e-05 4.49601e-05 -0.000955485)
(-1.49379e-05 3.94521e-05 -0.000961432)
(-1.24894e-05 3.46289e-05 -0.00096659)
(-1.0409e-05 3.04045e-05 -0.000971063)
(-8.64368e-06 2.67034e-05 -0.000974941)
(-7.14824e-06 2.34601e-05 -0.000978304)
(-5.88359e-06 2.06172e-05 -0.000981219)
(-4.81618e-06 1.81246e-05 -0.000983746)
(-3.91719e-06 1.59385e-05 -0.000985936)
(-3.16184e-06 1.40208e-05 -0.000987835)
(-2.52886e-06 1.23381e-05 -0.000989479)
(-2.00005e-06 1.08611e-05 -0.000990905)
(-1.55982e-06 9.56442e-06 -0.00099214)
(-1.19488e-06 8.42576e-06 -0.000993211)
(-8.93741e-07 7.42558e-06 -0.000994137)
(-6.46411e-07 6.54672e-06 -0.000994938)
(-4.44371e-07 5.77417e-06 -0.000995629)
(-2.80366e-07 5.09481e-06 -0.000996226)
(-1.48275e-07 4.49717e-06 -0.000996745)
(-4.3254e-08 3.97141e-06 -0.000997195)
(3.91292e-08 3.50875e-06 -0.000997582)
(1.02888e-07 3.10136e-06 -0.000997915)
(1.514e-07 2.7424e-06 -0.000998201)
(1.87407e-07 2.42592e-06 -0.000998447)
(2.13216e-07 2.14675e-06 -0.000998659)
(2.30808e-07 1.90038e-06 -0.000998842)
(2.41722e-07 1.68291e-06 -0.000999002)
(2.47204e-07 1.49092e-06 -0.000999141)
(2.48313e-07 1.32137e-06 -0.000999261)
(2.4596e-07 1.17159e-06 -0.000999364)
(2.40918e-07 1.03924e-06 -0.000999454)
(2.33829e-07 9.22251e-07 -0.000999532)
(2.25227e-07 8.18804e-07 -0.000999599)
(2.15549e-07 7.27302e-07 -0.000999657)
(2.05155e-07 6.4634e-07 -0.000999706)
(1.94336e-07 5.74679e-07 -0.000999749)
(1.83327e-07 5.11231e-07 -0.000999786)
(1.72314e-07 4.55035e-07 -0.000999818)
(1.61445e-07 4.05245e-07 -0.000999845)
(1.50835e-07 3.61116e-07 -0.000999868)
(1.40571e-07 3.21989e-07 -0.000999888)
(1.30719e-07 2.87284e-07 -0.000999905)
(1.21327e-07 2.56489e-07 -0.000999919)
(1.12427e-07 2.29152e-07 -0.000999931)
(1.04039e-07 2.04876e-07 -0.00099994)
(9.61732e-08 1.83308e-07 -0.000999949)
(8.88321e-08 1.6414e-07 -0.000999956)
(8.20112e-08 1.47098e-07 -0.000999961)
(7.5701e-08 1.31942e-07 -0.000999966)
(6.98877e-08 1.18462e-07 -0.00099997)
(6.45545e-08 1.06473e-07 -0.000999973)
(5.96823e-08 9.58128e-08 -0.000999975)
(5.525e-08 8.63388e-08 -0.000999978)
(5.12356e-08 7.79278e-08 -0.00099998)
(4.76166e-08 7.0472e-08 -0.000999981)
(4.43702e-08 6.38775e-08 -0.000999983)
(4.14741e-08 5.80632e-08 -0.000999985)
(3.89066e-08 5.29589e-08 -0.000999986)
(3.66473e-08 4.85043e-08 -0.000999988)
(3.46766e-08 4.46474e-08 -0.000999989)
(3.29774e-08 4.13432e-08 -0.000999991)
(3.15369e-08 3.85533e-08 -0.000999992)
(3.03489e-08 3.62665e-08 -0.000999994)
(2.94521e-08 3.45329e-08 -0.000999995)
(2.89851e-08 3.35349e-08 -0.000999997)
)
;
    }
    procBoundary3to2
    {
        type            processor;
        value           nonuniform List<vector> 
180
(
(-9.25549e-10 1.42851e-08 -0.000999889)
(-1.26245e-09 1.86191e-08 -0.000999887)
(-1.7516e-09 2.58053e-08 -0.000999884)
(-2.33826e-09 3.46494e-08 -0.000999881)
(-3.00184e-09 4.44657e-08 -0.000999877)
(-3.73279e-09 5.49786e-08 -0.000999871)
(-4.53132e-09 6.61445e-08 -0.000999865)
(-5.4065e-09 7.80283e-08 -0.000999857)
(-6.37256e-09 9.07404e-08 -0.000999847)
(-7.4473e-09 1.04413e-07 -0.000999836)
(-8.65143e-09 1.19193e-07 -0.000999824)
(-1.00086e-08 1.35239e-07 -0.00099981)
(-1.15455e-08 1.52727e-07 -0.000999793)
(-1.32924e-08 1.71848e-07 -0.000999775)
(-1.52836e-08 1.92809e-07 -0.000999754)
(-1.75574e-08 2.15839e-07 -0.000999731)
(-2.01574e-08 2.4119e-07 -0.000999705)
(-2.31328e-08 2.69139e-07 -0.000999676)
(-2.65388e-08 2.99991e-07 -0.000999643)
(-3.04383e-08 3.34085e-07 -0.000999607)
(-3.49023e-08 3.71794e-07 -0.000999567)
(-4.00114e-08 4.13532e-07 -0.000999522)
(-4.58572e-08 4.59759e-07 -0.000999471)
(-5.2544e-08 5.10982e-07 -0.000999416)
(-6.01909e-08 5.67768e-07 -0.000999354)
(-6.89339e-08 6.30745e-07 -0.000999285)
(-7.89288e-08 7.00613e-07 -0.000999208)
(-9.03541e-08 7.7815e-07 -0.000999122)
(-1.03415e-07 8.64224e-07 -0.000999027)
(-1.18346e-07 9.59803e-07 -0.000998921)
(-1.35419e-07 1.06597e-06 -0.000998803)
(-1.54945e-07 1.18392e-06 -0.000998671)
(-1.77281e-07 1.31501e-06 -0.000998525)
(-2.02842e-07 1.46073e-06 -0.000998361)
(-2.32101e-07 1.62278e-06 -0.000998179)
(-2.65605e-07 1.80303e-06 -0.000997975)
(-3.03983e-07 2.00359e-06 -0.000997748)
(-3.47959e-07 2.22681e-06 -0.000997494)
(-3.98365e-07 2.47533e-06 -0.000997211)
(-4.56159e-07 2.7521e-06 -0.000996895)
(-5.22441e-07 3.06043e-06 -0.000996541)
(-5.98476e-07 3.40404e-06 -0.000996146)
(-6.85716e-07 3.78707e-06 -0.000995704)
(-7.85831e-07 4.21419e-06 -0.00099521)
(-9.00738e-07 4.69063e-06 -0.000994657)
(-1.03264e-06 5.22227e-06 -0.000994038)
(-1.18406e-06 5.81568e-06 -0.000993345)
(-1.35791e-06 6.47828e-06 -0.000992569)
(-1.55752e-06 7.21837e-06 -0.000991701)
(-1.78671e-06 8.0453e-06 -0.000990727)
(-2.04989e-06 8.9696e-06 -0.000989635)
(-2.35211e-06 1.00031e-05 -0.000988411)
(-2.69918e-06 1.1159e-05 -0.000987038)
(-3.09777e-06 1.24525e-05 -0.000985497)
(-3.55557e-06 1.39004e-05 -0.000983766)
(-4.0814e-06 1.55217e-05 -0.000981822)
(-4.68544e-06 1.73379e-05 -0.000979637)
(-5.37939e-06 1.93734e-05 -0.00097718)
(-6.17672e-06 2.16555e-05 -0.000974416)
(-7.09296e-06 2.42151e-05 -0.000971304)
(-8.14599e-06 2.70873e-05 -0.000967801)
(-9.35645e-06 3.03117e-05 -0.000963853)
(-1.07481e-05 3.39331e-05 -0.000959403)
(-1.23485e-05 3.80022e-05 -0.000954384)
(-1.41892e-05 4.25765e-05 -0.00094872)
(-1.63068e-05 4.77212e-05 -0.000942324)
(-1.87436e-05 5.35102e-05 -0.000935098)
(-2.15486e-05 6.00276e-05 -0.000926929)
(-2.47783e-05 6.73685e-05 -0.000917689)
(-2.84979e-05 7.56406e-05 -0.00090723)
(-3.27815e-05 8.49644e-05 -0.000895389)
(-3.77111e-05 9.54682e-05 -0.000881966)
(-4.3366e-05 0.000107265 -0.0008667)
(-4.97858e-05 0.000120373 -0.000849288)
(-5.68704e-05 0.000134487 -0.000829764)
(-6.41536e-05 0.00014847 -0.000809217)
(-7.03574e-05 0.000159459 -0.000788279)
(-7.26177e-05 0.000161771 -0.000755848)
(-6.57289e-05 0.000146223 -0.000685157)
(-4.35973e-05 0.000103475 -0.000545704)
(-1.25372e-05 2.03958e-05 -0.00217568)
(3.56028e-05 -8.70804e-06 5.26218e-05)
(3.68168e-05 8.54407e-05 -0.00333103)
(4.86022e-05 6.55215e-06 -0.000204213)
(-0.000121304 -9.53731e-05 -0.00406276)
(7.20556e-05 -1.32922e-05 -0.000268676)
(-0.000121987 -0.00024415 -0.00340657)
(-0.000237874 -0.000207501 -0.00138845)
(-0.00040254 0.0001718 -0.0026614)
(-8.07693e-06 7.66398e-06 -0.000179612)
(-6.67962e-05 3.24248e-05 -0.00501511)
(-5.71859e-07 -4.45193e-05 -0.00109973)
(9.40812e-05 -0.000232342 -0.00226433)
(-0.00023158 -0.000220758 -0.00285505)
(-8.22446e-06 3.09502e-05 -4.61569e-05)
(-0.000116246 -0.000249796 -0.00320021)
(-1.05206e-05 8.88397e-06 -0.000679622)
(-8.77802e-06 -9.23902e-05 -0.00195729)
(-0.000201615 -5.84019e-06 -0.00239999)
(8.06017e-05 4.25221e-05 -0.000369339)
(0.000115454 -9.14319e-05 -0.00272534)
(0.000113869 -1.2821e-05 -0.000984587)
(5.60238e-05 -0.0002292 -0.00117839)
(0.000110799 -0.000249526 -0.000870977)
(0.000120071 -0.000111029 -0.000777569)
(0.000141471 -9.93066e-05 -0.000826904)
(0.000142222 -8.7501e-05 -0.000824853)
(0.000132171 -7.52622e-05 -0.000842595)