/*--------------------------------*- C++ -*----------------------------------*\
| =========                 |                                                 |
| \\      /  F ield         | OpenFOAM: The Open Source CFD Toolbox           |
|  \\    /   O peration     | Version:  5.x                                   |
|   \\  /    A nd           | Web:      www.OpenFOAM.org                      |
|    \\/     M anipulation  |                                                 |
\*---------------------------------------------------------------------------*/
FoamFile
{
    version     2.0;
    format      ascii;
    class       volVectorField;
    location    "6000";
    object      U;
}
// * * * * * * * * * * * * * * * * * * * * * * * * * * * * * * * * * * * * * //

dimensions      [0 1 -1 0 0 0 0];

internalField   nonuniform List<vector> 
180
(
(-9.42725e-10 1.34573e-08 -0.0009999)
(-1.29308e-09 1.73534e-08 -0.000999898)
(-1.80968e-09 2.38941e-08 -0.000999896)
(-2.4306e-09 3.19771e-08 -0.000999894)
(-3.13403e-09 4.0949e-08 -0.00099989)
(-3.9118e-09 5.05347e-08 -0.000999886)
(-4.76464e-09 6.06776e-08 -0.000999881)
(-5.70135e-09 7.14206e-08 -0.000999875)
(-6.73541e-09 8.28488e-08 -0.000999868)
(-7.88327e-09 9.50653e-08 -0.000999859)
(-9.16377e-09 1.08184e-07 -0.00099985)
(-1.05981e-08 1.22328e-07 -0.000999839)
(-1.22102e-08 1.37629e-07 -0.000999827)
(-1.40271e-08 1.54231e-07 -0.000999813)
(-1.60793e-08 1.72286e-07 -0.000999798)
(-1.84019e-08 1.91962e-07 -0.000999781)
(-2.10346e-08 2.1344e-07 -0.000999763)
(-2.4023e-08 2.36915e-07 -0.000999742)
(-2.74193e-08 2.626e-07 -0.000999719)
(-3.12833e-08 2.90726e-07 -0.000999694)
(-3.56833e-08 3.21545e-07 -0.000999666)
(-4.0698e-08 3.5533e-07 -0.000999635)
(-4.64172e-08 3.92377e-07 -0.000999602)
(-5.29442e-08 4.33011e-07 -0.000999565)
(-6.0397e-08 4.77582e-07 -0.000999524)
(-6.89113e-08 5.26474e-07 -0.00099948)
(-7.86421e-08 5.80103e-07 -0.000999431)
(-8.97672e-08 6.38919e-07 -0.000999378)
(-1.0249e-07 7.03416e-07 -0.000999319)
(-1.17045e-07 7.74125e-07 -0.000999256)
(-1.33699e-07 8.51625e-07 -0.000999186)
(-1.52758e-07 9.36543e-07 -0.00099911)
(-1.74574e-07 1.02956e-06 -0.000999028)
(-1.99549e-07 1.1314e-06 -0.000998938)
(-2.28144e-07 1.24288e-06 -0.00099884)
(-2.60889e-07 1.36483e-06 -0.000998733)
(-2.98389e-07 1.49818e-06 -0.000998617)
(-3.41339e-07 1.64393e-06 -0.000998491)
(-3.90537e-07 1.80315e-06 -0.000998355)
(-4.46894e-07 1.97696e-06 -0.000998207)
(-5.11458e-07 2.1666e-06 -0.000998047)
(-5.85428e-07 2.37337e-06 -0.000997874)
(-6.7018e-07 2.59865e-06 -0.000997687)
(-7.67288e-07 2.84393e-06 -0.000997486)
(-8.7856e-07 3.11076e-06 -0.00099727)
(-1.00606e-06 3.40078e-06 -0.000997038)
(-1.15217e-06 3.71573e-06 -0.000996789)
(-1.3196e-06 4.05741e-06 -0.000996523)
(-1.51146e-06 4.4277e-06 -0.000996239)
(-1.73131e-06 4.82856e-06 -0.000995936)
(-1.98325e-06 5.26197e-06 -0.000995615)
(-2.27193e-06 5.72998e-06 -0.000995276)
(-2.60273e-06 6.23463e-06 -0.000994918)
(-2.98177e-06 6.77795e-06 -0.000994543)
(-3.41607e-06 7.36194e-06 -0.00099415)
(-3.91368e-06 7.98848e-06 -0.000993743)
(-4.48381e-06 8.65932e-06 -0.000993322)
(-5.13701e-06 9.37601e-06 -0.000992891)
(-5.88536e-06 1.01398e-05 -0.000992453)
(-6.74271e-06 1.09515e-05 -0.000992014)
(-7.72489e-06 1.18115e-05 -0.000991581)
(-8.85008e-06 1.27194e-05 -0.00099116)
(-1.01391e-05 1.36742e-05 -0.000990763)
(-1.16157e-05 1.46735e-05 -0.000990401)
(-1.33072e-05 1.5714e-05 -0.00099009)
(-1.5245e-05 1.67907e-05 -0.000989848)
(-1.74648e-05 1.78964e-05 -0.0009897)
(-2.00079e-05 1.90219e-05 -0.000989671)
(-2.29212e-05 2.01547e-05 -0.000989795)
(-2.62585e-05 2.12792e-05 -0.00099011)
(-3.00801e-05 2.23756e-05 -0.000990666)
(-3.44504e-05 2.34176e-05 -0.00099151)
(-3.94258e-05 2.43679e-05 -0.000992647)
(-4.5013e-05 2.51642e-05 -0.000994106)
(-5.10584e-05 2.56825e-05 -0.000996497)
(-5.70044e-05 2.56619e-05 -0.00100169)
(-6.13155e-05 2.46456e-05 -0.00100864)
(-6.12849e-05 2.20382e-05 -0.000997558)
(-5.16036e-05 1.76807e-05 -0.000929786)
(-2.65575e-05 1.2229e-05 -0.000873044)
(1.20918e-06 -8.7827e-06 -0.00266483)
(-2.80041e-05 9.4436e-06 -0.000183101)
(7.08574e-05 0.000481646 -0.00320431)
(-2.49993e-05 -4.22557e-06 -0.000217728)
(-0.00012718 3.99802e-06 -0.00324279)
(-8.52861e-05 0.000112682 -0.00344845)
(-4.34889e-05 -1.79031e-05 -0.000428026)
(-0.000333659 -0.000186368 -0.00322654)
(-0.000383384 -0.000161237 -0.0031608)
(-4.50969e-05 1.5103e-05 -0.000323781)
(-0.000269597 -0.000647585 -0.00257996)
(0.000187283 -0.000315888 -0.00372811)
(-1.51226e-06 -2.03077e-05 -0.000431918)
(-0.000196143 -0.000706176 -0.00460606)
(-0.000121204 -0.000828195 -0.00343853)
(-1.85597e-05 -3.12615e-05 -0.000213627)
(-0.000171121 -0.00096529 -0.00547795)
(-2.76146e-05 -1.12215e-05 -0.000110487)
(-0.000346467 -0.00030457 -0.00553345)
(-5.75625e-05 5.07812e-05 -0.00145295)
(0.000413364 0.00045882 -0.0047533)
(6.06897e-05 -2.08924e-05 -0.0003723)
(2.7914e-05 3.02315e-06 -0.00391373)
(4.76914e-05 6.40608e-05 -0.00152796)
(9.00764e-05 0.000108442 -0.0014034)
(0.000121164 0.000117181 -0.00129802)
(0.000129284 0.000116272 -0.00122554)
(0.000123173 0.000112565 -0.0011938)
(0.000111508 0.000105319 -0.00117398)
(9.8901e-05 9.54982e-05 -0.00115463)
(8.70997e-05 8.49488e-05 -0.00113619)
(7.65504e-05 7.48865e-05 -0.00111978)
(6.72522e-05 6.57896e-05 -0.00110544)
(5.90887e-05 5.77388e-05 -0.00109288)
(5.19283e-05 5.06661e-05 -0.00108184)
(4.56483e-05 4.44662e-05 -0.00107213)
(4.01395e-05 3.90341e-05 -0.0010636)
(3.53062e-05 3.42747e-05 -0.0010561)
(3.10646e-05 3.01038e-05 -0.0010495)
(2.73412e-05 2.6448e-05 -0.00104369)
(2.4072e-05 2.3243e-05 -0.00103858)
(2.12006e-05 2.04326e-05 -0.00103407)
(1.86781e-05 1.79675e-05 -0.00103011)
(1.64613e-05 1.58048e-05 -0.00102661)
(1.45126e-05 1.3907e-05 -0.00102353)
(1.27991e-05 1.22411e-05 -0.00102082)
(1.1292e-05 1.07785e-05 -0.00101842)
(9.96583e-06 9.49397e-06 -0.00101631)
(8.79861e-06 8.36563e-06 -0.00101444)
(7.77092e-06 7.37419e-06 -0.00101279)
(6.86577e-06 6.50275e-06 -0.00101134)
(6.06827e-06 5.73647e-06 -0.00101005)
(5.36539e-06 5.06243e-06 -0.00100891)
(4.74568e-06 4.46931e-06 -0.00100791)
(4.19911e-06 3.94736e-06 -0.00100702)
(3.71687e-06 3.4879e-06 -0.00100623)
(3.29126e-06 3.08324e-06 -0.00100553)
(2.91552e-06 2.72666e-06 -0.00100492)
(2.58374e-06 2.41227e-06 -0.00100437)
(2.29064e-06 2.13494e-06 -0.00100389)
(2.03155e-06 1.89021e-06 -0.00100346)
(1.80245e-06 1.67416e-06 -0.00100307)
(1.59977e-06 1.48339e-06 -0.00100274)
(1.42041e-06 1.31489e-06 -0.00100243)
(1.26164e-06 1.166e-06 -0.00100217)
(1.12103e-06 1.03439e-06 -0.00100193)
(9.96468e-07 9.18007e-07 -0.00100172)
(8.86076e-07 8.15056e-07 -0.00100153)
(7.88206e-07 7.2395e-07 -0.00100137)
(7.01406e-07 6.43295e-07 -0.00100122)
(6.24397e-07 5.71865e-07 -0.00100109)
(5.5605e-07 5.08582e-07 -0.00100097)
(4.95372e-07 4.52496e-07 -0.00100086)
(4.41486e-07 4.02772e-07 -0.00100077)
(3.9362e-07 3.58674e-07 -0.00100069)
(3.51089e-07 3.19555e-07 -0.00100061)
(3.13292e-07 2.84842e-07 -0.00100055)
(2.79696e-07 2.54034e-07 -0.00100049)
(2.49831e-07 2.26686e-07 -0.00100044)
(2.23282e-07 2.02406e-07 -0.00100039)
(1.9968e-07 1.8085e-07 -0.00100035)
(1.78701e-07 1.61712e-07 -0.00100031)
(1.60057e-07 1.44724e-07 -0.00100028)
(1.43495e-07 1.29648e-07 -0.00100025)
(1.28789e-07 1.16274e-07 -0.00100022)
(1.1574e-07 1.04416e-07 -0.00100019)
(1.04172e-07 9.39105e-08 -0.00100017)
(9.39281e-08 8.46132e-08 -0.00100015)
(8.48717e-08 7.63957e-08 -0.00100014)
(7.68807e-08 6.91454e-08 -0.00100012)
(6.98476e-08 6.27625e-08 -0.00100011)
(6.3678e-08 5.71597e-08 -0.00100009)
(5.82889e-08 5.22601e-08 -0.00100008)
(5.36082e-08 4.79966e-08 -0.00100007)
(4.95734e-08 4.43111e-08 -0.00100006)
(4.61302e-08 4.11528e-08 -0.00100005)
(4.3233e-08 3.84794e-08 -0.00100004)
(4.08585e-08 3.62733e-08 -0.00100004)
(3.90465e-08 3.4583e-08 -0.00100003)
(3.80159e-08 3.36273e-08 -0.00100002)
)
;

boundaryField
{
    inlet
    {
        type            zeroGradient;
    }
    outlet
    {
        type            zeroGradient;
    }
    repeat_boundary
    {
        type            slip;
    }
    procBoundary3to1
    {
        type            processor;
        value           nonuniform List<vector> 
180
(
(3.768e-11 1.34573e-08 -0.00100007)
(7.41678e-11 1.73535e-08 -0.00100008)
(1.65499e-10 2.38942e-08 -0.00100008)
(2.87334e-10 3.19772e-08 -0.00100008)
(4.26336e-10 4.09491e-08 -0.00100008)
(5.84955e-10 5.05349e-08 -0.00100009)
(7.71049e-10 6.06778e-08 -0.0010001)
(9.93962e-10 7.14208e-08 -0.0010001)
(1.26286e-09 8.2849e-08 -0.00100011)
(1.58717e-09 9.50655e-08 -0.00100012)
(1.97723e-09 1.08184e-07 -0.00100013)
(2.44477e-09 1.22328e-07 -0.00100014)
(3.00328e-09 1.3763e-07 -0.00100015)
(3.66817e-09 1.54231e-07 -0.00100017)
(4.45718e-09 1.72287e-07 -0.00100018)
(5.39079e-09 1.91963e-07 -0.0010002)
(6.49297e-09 2.13441e-07 -0.00100022)
(7.79179e-09 2.36916e-07 -0.00100025)
(9.3202e-09 2.62601e-07 -0.00100027)
(1.11168e-08 2.90728e-07 -0.0010003)
(1.32266e-08 3.21547e-07 -0.00100033)
(1.57027e-08 3.55332e-07 -0.00100036)
(1.86064e-08 3.9238e-07 -0.0010004)
(2.20098e-08 4.33014e-07 -0.00100044)
(2.59963e-08 4.77586e-07 -0.00100048)
(3.06631e-08 5.26479e-07 -0.00100053)
(3.61232e-08 5.80108e-07 -0.00100058)
(4.25076e-08 6.38926e-07 -0.00100064)
(4.99681e-08 7.03424e-07 -0.00100071)
(5.86808e-08 7.74135e-07 -0.00100078)
(6.88498e-08 8.51638e-07 -0.00100085)
(8.07114e-08 9.36559e-07 -0.00100094)
(9.45391e-08 1.02958e-06 -0.00100103)
(1.1065e-07 1.13143e-06 -0.00100113)
(1.29409e-07 1.2429e-06 -0.00100124)
(1.51242e-07 1.36486e-06 -0.00100136)
(1.76638e-07 1.49822e-06 -0.00100149)
(2.06165e-07 1.64398e-06 -0.00100163)
(2.40477e-07 1.8032e-06 -0.00100178)
(2.80333e-07 1.97703e-06 -0.00100194)
(3.26607e-07 2.16669e-06 -0.00100212)
(3.80309e-07 2.37347e-06 -0.00100232)
(4.42608e-07 2.59878e-06 -0.00100253)
(5.14849e-07 2.84408e-06 -0.00100276)
(5.98588e-07 3.11093e-06 -0.001003)
(6.95616e-07 3.40099e-06 -0.00100326)
(8.08e-07 3.71598e-06 -0.00100355)
(9.38123e-07 4.05771e-06 -0.00100385)
(1.08873e-06 4.42807e-06 -0.00100418)
(1.26298e-06 4.829e-06 -0.00100453)
(1.46451e-06 5.2625e-06 -0.0010049)
(1.69752e-06 5.7306e-06 -0.0010053)
(1.96683e-06 6.23537e-06 -0.00100572)
(2.278e-06 6.77884e-06 -0.00100616)
(2.63741e-06 7.36299e-06 -0.00100663)
(3.0524e-06 7.98974e-06 -0.00100712)
(3.53144e-06 8.66082e-06 -0.00100764)
(4.08423e-06 9.3778e-06 -0.00100817)
(4.72195e-06 1.01419e-05 -0.00100872)
(5.45745e-06 1.0954e-05 -0.00100928)
(6.30547e-06 1.18145e-05 -0.00100984)
(7.283e-06 1.2723e-05 -0.00101041)
(8.40951e-06 1.36785e-05 -0.00101097)
(9.7074e-06 1.46787e-05 -0.0010115)
(1.12024e-05 1.57203e-05 -0.001012)
(1.2924e-05 1.67983e-05 -0.00101245)
(1.49061e-05 1.79057e-05 -0.00101283)
(1.71878e-05 1.90331e-05 -0.0010131)
(1.98137e-05 2.01685e-05 -0.00101325)
(2.28349e-05 2.12963e-05 -0.00101322)
(2.63092e-05 2.23967e-05 -0.001013)
(3.03001e-05 2.34432e-05 -0.00101251)
(3.48692e-05 2.43971e-05 -0.00101162)
(4.00473e-05 2.51917e-05 -0.00101018)
(4.57466e-05 2.56921e-05 -0.00100853)
(5.15518e-05 2.56179e-05 -0.00100839)
(5.62233e-05 2.44928e-05 -0.00101018)
(5.76897e-05 2.17472e-05 -0.000996542)
(5.19757e-05 1.73343e-05 -0.000925694)
(3.50082e-05 1.21159e-05 -0.000709323)
(-8.82631e-07 -7.87649e-06 -0.00295391)
(-1.24735e-05 1.01498e-05 -0.000171431)
(-0.000211811 0.000296545 -0.00353996)
(-9.23925e-05 0.000122449 -0.00250906)
(-4.65362e-05 1.93972e-05 -0.0010204)
(-0.000330787 0.000122002 -0.00418087)
(-1.9806e-05 1.26329e-05 -0.000368602)
(-0.000875987 -0.000388998 -0.00388279)
(-3.39899e-07 -5.47891e-05 -0.000489382)
(0.000674886 -0.00081075 -0.0038719)
(4.01845e-05 -5.51611e-05 -0.000396452)
(0.000543326 -0.000446541 -0.00369367)
(0.000180278 -0.000209058 -0.00142993)
(0.000322012 -0.000608476 -0.00463089)
(2.30998e-05 -2.73507e-05 -0.000543489)
(0.000121349 -0.000309963 -0.00293318)
(0.000388676 -0.000571266 -0.00238118)
(1.68901e-05 -7.1408e-05 -0.000130398)
(3.3235e-05 -0.000112301 -0.0045107)
(3.75525e-05 -3.65591e-06 -0.000689939)
(-0.000168752 0.000191459 -0.00254645)
(-8.83123e-05 0.000152527 -0.00124473)
(-0.000150915 -6.06605e-06 -0.00125279)
(-9.31564e-05 8.55793e-06 -0.00102334)
(-4.43808e-05 5.60267e-05 -0.000926404)
(-6.71829e-05 9.81624e-05 -0.000863415)
(-7.46762e-05 0.000115932 -0.000834891)
(-7.06581e-05 0.000116215 -0.000848666)
(-6.26568e-05 0.000107968 -0.000870815)
(-5.41964e-05 9.68544e-05 -0.000888981)
(-4.63814e-05 8.56012e-05 -0.000903688)
(-3.94841e-05 7.5234e-05 -0.000916355)
(-3.35135e-05 6.60065e-05 -0.000927448)
(-2.83882e-05 5.78906e-05 -0.000937111)
(-2.40029e-05 5.07782e-05 -0.000945494)
(-2.02562e-05 4.45507e-05 -0.000952762)
(-1.70583e-05 3.90982e-05 -0.000959066)
(-1.43318e-05 3.43233e-05 -0.000964534)
(-1.20097e-05 3.01408e-05 -0.000969275)
(-1.00346e-05 2.64761e-05 -0.000973387)
(-8.3568e-06 2.32644e-05 -0.000976951)
(-6.93372e-06 2.04489e-05 -0.000980042)
(-5.72863e-06 1.79799e-05 -0.000982721)
(-4.70997e-06 1.58143e-05 -0.000985044)
(-3.85059e-06 1.39142e-05 -0.000987056)
(-3.12717e-06 1.22466e-05 -0.000988801)
(-2.5197e-06 1.07827e-05 -0.000990312)
(-2.01105e-06 9.49718e-06 -0.000991623)
(-1.58658e-06 8.36809e-06 -0.000992758)
(-1.23362e-06 7.37607e-06 -0.000993741)
(-9.41195e-07 6.50418e-06 -0.000994591)
(-6.99909e-07 5.73757e-06 -0.000995325)
(-5.01762e-07 5.06327e-06 -0.00099596)
(-3.39987e-07 4.46996e-06 -0.000996511)
(-2.09097e-07 3.94786e-06 -0.000996989)
(-1.04156e-07 3.48828e-06 -0.000997402)
(-2.08174e-08 3.08353e-06 -0.000997757)
(4.46253e-08 2.72688e-06 -0.000998063)
(9.52566e-08 2.41244e-06 -0.000998326)
(1.33713e-07 2.13508e-06 -0.000998553)
(1.62232e-07 1.89031e-06 -0.00099875)
(1.82567e-07 1.67424e-06 -0.00099892)
(1.96194e-07 1.48345e-06 -0.000999067)
(2.04359e-07 1.31493e-06 -0.000999194)
(2.08127e-07 1.16603e-06 -0.000999304)
(2.084e-07 1.03441e-06 -0.000999399)
(2.05932e-07 9.18028e-07 -0.000999481)
(2.01353e-07 8.15073e-07 -0.000999552)
(1.95182e-07 7.23963e-07 -0.000999613)
(1.87849e-07 6.43305e-07 -0.000999666)
(1.79705e-07 5.71873e-07 -0.000999711)
(1.71036e-07 5.08587e-07 -0.000999751)
(1.6207e-07 4.525e-07 -0.000999784)
(1.52992e-07 4.02775e-07 -0.000999814)
(1.43947e-07 3.58677e-07 -0.000999839)
(1.35049e-07 3.19557e-07 -0.00099986)
(1.26384e-07 2.84844e-07 -0.000999879)
(1.18017e-07 2.54035e-07 -0.000999895)
(1.09996e-07 2.26687e-07 -0.000999909)
(1.02354e-07 2.02407e-07 -0.000999921)
(9.51127e-08 1.8085e-07 -0.000999932)
(8.82831e-08 1.61713e-07 -0.000999941)
(8.18705e-08 1.44724e-07 -0.000999948)
(7.58739e-08 1.29648e-07 -0.000999955)
(7.02883e-08 1.16274e-07 -0.000999961)
(6.51053e-08 1.04416e-07 -0.000999966)
(6.03145e-08 9.39107e-08 -0.000999971)
(5.59038e-08 8.46133e-08 -0.000999974)
(5.18604e-08 7.63958e-08 -0.000999978)
(4.81712e-08 6.91454e-08 -0.000999981)
(4.48231e-08 6.27626e-08 -0.000999983)
(4.18031e-08 5.71597e-08 -0.000999986)
(3.90989e-08 5.22601e-08 -0.000999988)
(3.66987e-08 4.79966e-08 -0.000999989)
(3.45913e-08 4.43111e-08 -0.000999991)
(3.27665e-08 4.11529e-08 -0.000999992)
(3.12173e-08 3.84794e-08 -0.000999994)
(2.99465e-08 3.62734e-08 -0.000999995)
(2.9e-08 3.4583e-08 -0.000999996)
(2.8489e-08 3.36274e-08 -0.000999997)
)
;
    }
    procBoundary3to2
    {
        type            processor;
        value           nonuniform List<vector> 
180
(
(-9.42725e-10 1.44377e-08 -0.000999887)
(-1.29308e-09 1.87207e-08 -0.000999885)
(-1.80968e-09 2.58693e-08 -0.000999882)
(-2.4306e-09 3.4695e-08 -0.000999879)
(-3.13403e-09 4.45093e-08 -0.000999875)
(-3.9118e-09 5.50315e-08 -0.000999869)
(-4.76464e-09 6.62133e-08 -0.000999862)
(-5.70135e-09 7.81159e-08 -0.000999855)
(-6.73541e-09 9.0847e-08 -0.000999845)
(-7.88327e-09 1.04536e-07 -0.000999834)
(-9.16377e-09 1.19325e-07 -0.000999822)
(-1.05981e-08 1.35371e-07 -0.000999808)
(-1.22102e-08 1.52843e-07 -0.000999792)
(-1.40271e-08 1.71926e-07 -0.000999774)
(-1.60793e-08 1.92822e-07 -0.000999754)
(-1.84019e-08 2.15755e-07 -0.000999731)
(-2.10346e-08 2.40967e-07 -0.000999705)
(-2.4023e-08 2.68729e-07 -0.000999677)
(-2.74193e-08 2.99339e-07 -0.000999645)
(-3.12832e-08 3.33126e-07 -0.000999609)
(-3.56833e-08 3.70455e-07 -0.00099957)
(-4.06979e-08 4.1173e-07 -0.000999525)
(-4.64171e-08 4.574e-07 -0.000999476)
(-5.29441e-08 5.07964e-07 -0.000999422)
(-6.03969e-08 5.63975e-07 -0.000999361)
(-6.89111e-08 6.26048e-07 -0.000999293)
(-7.86418e-08 6.94867e-07 -0.000999217)
(-8.97669e-08 7.71193e-07 -0.000999134)
(-1.0249e-07 8.55872e-07 -0.00099904)
(-1.17045e-07 9.49848e-07 -0.000998936)
(-1.33698e-07 1.05417e-06 -0.000998821)
(-1.52757e-07 1.17001e-06 -0.000998692)
(-1.74572e-07 1.29867e-06 -0.000998549)
(-1.99547e-07 1.4416e-06 -0.000998389)
(-2.28141e-07 1.60042e-06 -0.000998212)
(-2.60885e-07 1.77695e-06 -0.000998014)
(-2.98385e-07 1.9732e-06 -0.000997793)
(-3.41334e-07 2.19142e-06 -0.000997548)
(-3.90529e-07 2.43414e-06 -0.000997274)
(-4.46884e-07 2.70416e-06 -0.000996968)
(-5.11445e-07 3.00462e-06 -0.000996628)
(-5.85411e-07 3.33905e-06 -0.000996248)
(-6.70157e-07 3.71137e-06 -0.000995824)
(-7.67257e-07 4.12598e-06 -0.000995352)
(-8.78519e-07 4.58779e-06 -0.000994824)
(-1.00601e-06 5.10231e-06 -0.000994234)
(-1.1521e-06 5.67571e-06 -0.000993576)
(-1.3195e-06 6.31488e-06 -0.000992841)
(-1.51133e-06 7.02757e-06 -0.000992019)
(-1.73114e-06 7.82244e-06 -0.0009911)
(-1.98302e-06 8.7092e-06 -0.000990073)
(-2.27163e-06 9.69875e-06 -0.000988925)
(-2.60233e-06 1.08033e-05 -0.00098764)
(-2.98123e-06 1.20366e-05 -0.000986202)
(-3.41536e-06 1.34139e-05 -0.000984593)
(-3.91273e-06 1.49527e-05 -0.000982791)
(-4.48255e-06 1.66721e-05 -0.000980774)
(-5.13534e-06 1.85941e-05 -0.000978513)
(-5.88314e-06 2.0743e-05 -0.00097598)
(-6.73975e-06 2.31463e-05 -0.000973141)
(-7.72096e-06 2.5835e-05 -0.000969958)
(-8.84485e-06 2.88436e-05 -0.000966388)
(-1.01321e-05 3.22112e-05 -0.000962383)
(-1.16065e-05 3.59817e-05 -0.000957889)
(-1.3295e-05 4.02043e-05 -0.000952845)
(-1.52286e-05 4.49346e-05 -0.000947183)
(-1.74431e-05 5.02349e-05 -0.000940824)
(-1.9979e-05 5.61755e-05 -0.000933682)
(-2.28828e-05 6.2835e-05 -0.000925657)
(-2.62074e-05 7.03017e-05 -0.000916639)
(-3.00122e-05 7.86724e-05 -0.000906507)
(-3.43603e-05 8.80464e-05 -0.000895116)
(-3.93072e-05 9.85002e-05 -0.000882264)
(-4.48609e-05 0.000110002 -0.000867726)
(-5.08784e-05 0.000122178 -0.00085163)
(-5.68355e-05 0.000133796 -0.000835185)
(-6.13841e-05 0.000141885 -0.000819188)
(-6.15917e-05 0.000140693 -0.000792929)
(-5.22057e-05 0.000121067 -0.000729243)
(-2.72145e-05 7.36414e-05 -0.000558827)
(2.61756e-06 -1.45283e-05 -0.00205886)
(-1.38173e-05 -7.17151e-06 -0.000196146)
(5.03305e-05 4.09056e-05 -0.00269658)
(-3.99088e-05 -1.36885e-05 -0.000221131)
(-0.000143434 -6.68641e-05 -0.00286549)
(-7.16211e-05 9.20908e-06 -0.000353046)
(-0.000185116 -0.000210314 -0.00288187)
(-0.000219857 -0.000171062 -0.00138607)
(-0.000398556 0.000185796 -0.00235472)
(-3.88525e-05 -5.54571e-05 -0.000394126)
(-8.70919e-05 0.000132795 -0.00445396)
(5.15499e-05 -6.56857e-05 -0.00106595)
(0.000125068 -0.000212056 -0.00228276)
(-0.000203252 -0.000192349 -0.00277919)
(7.27389e-05 -1.51152e-05 -7.27684e-05)
(-9.88444e-05 -0.000205255 -0.0033512)
(-1.23083e-05 -2.61816e-05 -0.00072106)
(-1.38323e-05 -7.55158e-05 -0.00204012)
(-0.000215642 2.99163e-05 -0.00263255)
(-5.86463e-05 -3.13731e-06 -0.000100318)
(0.000110875 -0.000158196 -0.00297989)
(9.9679e-05 -9.92153e-05 -0.0010526)
(3.86492e-05 -0.000260449 -0.00122222)
(9.69673e-05 -0.000256717 -0.000893724)
(0.000107637 -0.000117696 -0.000787493)
(0.000131543 -0.000102032 -0.000836669)
(0.000133901 -8.98388e-05 -0.000833214)
(0.000125154 -7.7276e-05 -0.000849799)
(0.000112446 -6.59242e-05 -0.000869779)
(9.94341e-05 -5.62772e-05 -0.000887248)
(8.74554e-05 -4.80613e-05 -0.000901974)
(7.68085e-05 -4.10054e-05 -0.000914694)
(6.74455e-05 -3.49379e-05 -0.000925791)
(5.9235e-05 -2.9729e-05 -0.00093546)
(5.20393e-05 -2.52632e-05 -0.000943869)
(4.57325e-05 -2.14379e-05 -0.000951179)
(4.02035e-05 -1.81637e-05 -0.000957535)
(3.53548e-05 -1.53634e-05 -0.000963062)
(3.11015e-05 -1.29705e-05 -0.000967869)
(2.73693e-05 -1.09278e-05 -0.000972048)
(2.40933e-05 -9.18574e-06 -0.000975683)
(2.12169e-05 -7.70178e-06 -0.000978843)
(1.86905e-05 -6.43921e-06 -0.000981592)
(1.64707e-05 -5.36643e-06 -0.000983983)
(1.45198e-05 -4.45622e-06 -0.000986062)
(1.28046e-05 -3.68518e-06 -0.00098787)
(1.12962e-05 -3.03317e-06 -0.000989443)
(9.96903e-06 -2.4829e-06 -0.000990811)
(8.80105e-06 -2.01956e-06 -0.000992001)
(7.77279e-06 -1.63034e-06 -0.000993036)
(6.8672e-06 -1.30421e-06 -0.000993937)
(6.06937e-06 -1.03171e-06 -0.000994721)
(5.36623e-06 -8.04723e-07 -0.000995403)
(4.74632e-06 -6.16356e-07 -0.000995996)
(4.1996e-06 -4.60843e-07 -0.000996513)
(3.71725e-06 -3.3313e-07 -0.000996962)
(3.29155e-06 -2.28835e-07 -0.000997354)
(2.91574e-06 -1.44237e-07 -0.000997695)
(2.58391e-06 -7.621e-08 -0.000997993)
(2.29077e-06 -2.19812e-08 -0.000998251)
(2.03165e-06 2.08907e-08 -0.000998474)
(1.80252e-06 5.4283e-08 -0.000998669)
(1.59983e-06 7.98187e-08 -0.000998839)
(1.42046e-06 9.88365e-08 -0.000998986)
(1.26167e-06 1.12488e-07 -0.000999115)
(1.12106e-06 1.21756e-07 -0.000999227)
(9.96489e-07 1.27472e-07 -0.000999325)
(8.86092e-07 1.30334e-07 -0.00099941)
(7.88219e-07 1.30927e-07 -0.000999484)
(7.01416e-07 1.29738e-07 -0.000999548)
(6.24404e-07 1.27174e-07 -0.000999605)
(5.56056e-07 1.23567e-07 -0.000999654)
(4.95377e-07 1.19193e-07 -0.000999697)
(4.4149e-07 1.14277e-07 -0.000999734)
(3.93622e-07 1.09001e-07 -0.000999767)
(3.51091e-07 1.03514e-07 -0.000999795)
(3.13294e-07 9.79338e-08 -0.00099982)
(2.79697e-07 9.23547e-08 -0.000999842)
(2.49832e-07 8.68506e-08 -0.000999861)
(2.23282e-07 8.14788e-08 -0.000999878)
(1.9968e-07 7.62826e-08 -0.000999893)
(1.78701e-07 7.12943e-08 -0.000999906)
(1.60058e-07 6.6537e-08 -0.000999917)
(1.43495e-07 6.20265e-08 -0.000999927)
(1.28789e-07 5.77728e-08 -0.000999936)
(1.1574e-07 5.37812e-08 -0.000999944)
(1.04172e-07 5.00535e-08 -0.00099995)
(9.39282e-08 4.65889e-08 -0.000999957)
(8.48718e-08 4.33845e-08 -0.000999962)
(7.68807e-08 4.04359e-08 -0.000999967)
(6.98476e-08 3.7738e-08 -0.000999971)
(6.3678e-08 3.52848e-08 -0.000999975)
(5.8289e-08 3.30701e-08 -0.000999979)
(5.36083e-08 3.10871e-08 -0.000999982)
(4.95734e-08 2.9329e-08 -0.000999985)
(4.61302e-08 2.77891e-08 -0.000999987)
(4.3233e-08 2.64637e-08 -0.00099999)
(4.08585e-08 2.53613e-08 -0.000999992)
(3.90465e-08 2.45365e-08 -0.000999994)
(3.80159e-08 2.41005e-08 -0.000999996)
)
;
    }
}


// ************************************************************************* //
