FoamFile
{version 2.0; format ascii;class Cloud<passiveParticle>; location 0;object  positions;}
350
(
( -0.00130858 0.00382181 0.000498779 ) 0 
( -0.002517 0.00288583 0.000496324 ) 0 
( -0.00457709 0.00300421 0.000497435 ) 0 
( -0.00151956 0.00284642 0.000498535 ) 0 
( -0.00172214 0.00134375 0.000498409 ) 0 
( -0.0014754 0.0048056 0.000497654 ) 0 
( -2.35288e-05 0.00170766 0.000496975 ) 0 
( -0.00230747 0.00389639 0.000497727 ) 0 
( -0.000536019 0.00302019 0.000498075 ) 0 
( -0.00247385 0.000632495 0.00049841 ) 0 
( -0.0048793 0.00395799 0.000496848 ) 0 
( -0.000760359 0.00103341 0.000497723 ) 0 
( -0.00416517 0.00020845 0.000498076 ) 0 
( -0.000325088 0.00399633 0.000497746 ) 0 
( -0.00271329 0.00171366 0.00049788 ) 0 
( -0.000527117 6.13361e-05 0.00049915 ) 0 
( -0.00414392 0.00463526 0.000499675 ) 0 
( -0.00384145 0.0036797 0.000499125 ) 0 
( -0.00315819 0.00438269 0.000690259 ) 0 
( -0.00489209 0.0023675 0.00119878 ) 0 
( -0.00149815 0.000346556 0.000499231 ) 0 
( -0.00424262 0.0020631 0.000498813 ) 0 
( -0.00439902 0.00112737 0.000809655 ) 0 
( -0.00344901 0.000904685 0.000498066 ) 0 
( -0.00204204 0.00331306 0.00126173 ) 0 
( -0.00350523 0.00273767 0.000499512 ) 0 
( -0.00180834 0.0042837 0.00128106 ) 0 
( -0.000975731 0.00200879 0.00049873 ) 0 
( -0.00416799 0.00177052 0.00153721 ) 0 
( -0.00132984 0.000909068 0.00130772 ) 0 
( -0.00306342 0.00347184 0.00109051 ) 0 
( -0.0022887 0.00118949 0.00130637 ) 0 
( -0.00302963 0.00048715 0.00131546 ) 0 
( -0.00110805 0.00247418 0.00137302 ) 0 
( -6.56571e-05 0.00244709 0.00116527 ) 0 
( -0.00198872 0.00214561 0.00103213 ) 0 
( -7.17415e-05 0.00350923 0.001332 ) 0 
( -0.000820446 0.00443164 0.00124597 ) 0 
( -0.0032492 0.00146158 0.00130096 ) 0 
( -0.00292345 0.00240493 0.00126973 ) 0 
( -0.0010667 0.00347223 0.00140247 ) 0 
( -0.00206776 0.000215674 0.00131097 ) 0 
( -0.00478393 0.000317227 0.00127579 ) 0 
( -0.00161901 0.00169873 0.00184433 ) 0 
( -0.00483437 0.00453731 0.00211289 ) 0 
( -0.00131015 0.00453683 0.00210843 ) 0 
( -0.000307433 0.00285119 0.00204473 ) 0 
( -0.00399187 0.00307832 0.0013035 ) 0 
( -0.00264261 0.00178605 0.00202471 ) 0 
( -0.000582348 0.00159259 0.00131797 ) 0 
( -0.00394216 0.0007597 0.00161841 ) 0 
( -0.000357135 0.000618661 0.00131121 ) 0 
( -0.00339434 0.00013584 0.00217552 ) 0 
( -0.00437967 0.00408149 0.00134978 ) 0 
( -7.89851e-05 0.00432476 0.00190753 ) 0 
( -0.00363065 0.00472437 0.00150125 ) 0 
( -0.00473065 0.00349549 0.00207751 ) 0 
( -0.00354511 0.00142203 0.00225313 ) 0 
( -0.0026993 0.0033508 0.0020133 ) 0 
( -0.000743168 0.00197366 0.00223604 ) 0 
( -0.000896728 0.000595297 0.00215063 ) 0 
( -0.00356827 0.00239698 0.00203048 ) 0 
( -0.00205531 0.00259046 0.00194875 ) 0 
( -0.00275042 0.004265 0.00161263 ) 0 
( -6.66823e-05 0.00123916 0.00220881 ) 0 
( -0.0016794 0.00103572 0.00258818 ) 0 
( -0.00175743 9.80836e-05 0.00225182 ) 0 
( -0.00439636 0.000299821 0.00238047 ) 0 
( -0.0045556 0.00251216 0.00212737 ) 0 
( -0.00253522 0.000718471 0.00215298 ) 0 
( -0.00358719 0.00378765 0.00187868 ) 0 
( -0.00122297 0.00283515 0.00244331 ) 0 
( -0.00174259 0.00363819 0.00215582 ) 0 
( -0.00367571 0.000710845 0.00294133 ) 0 
( -0.00456194 0.00128294 0.00231321 ) 0 
( -0.00222442 0.00444376 0.00249967 ) 0 
( -0.00278749 0.00256789 0.00262842 ) 0 
( -0.00070973 0.00468213 0.00289293 ) 0 
( -0.000747047 0.00370599 0.00232031 ) 0 
( -0.00393092 0.00315416 0.00256992 ) 0 
( -0.000755895 0.00120356 0.00293041 ) 0 
( -0.00304557 0.0049658 0.00227381 ) 0 
( -0.00194284 0.000301007 0.00321105 ) 0 
( -0.0025627 0.00135837 0.00292382 ) 0 
( -0.00389318 0.0044897 0.00251975 ) 0 
( -3.86895e-05 0.00191734 0.00294209 ) 0 
( -0.00317807 0.00201212 0.00336068 ) 0 
( -0.00497371 0.000929728 0.00315058 ) 0 
( -0.00147172 0.00404948 0.00302438 ) 0 
( -0.000431519 0.00305088 0.00301463 ) 0 
( -0.00403293 0.0020596 0.0028474 ) 0 
( -0.000128486 0.00041011 0.00276156 ) 0 
( -0.00285369 0.000594327 0.00349826 ) 0 
( -0.00307016 0.00395879 0.002714 ) 0 
( -0.00229307 0.00337478 0.00294555 ) 0 
( -0.00492384 0.00299668 0.00291951 ) 0 
( -0.0046743 6.28038e-05 0.00354567 ) 0 
( -0.00429131 0.00385663 0.00318016 ) 0 
( -0.00229167 0.00253983 0.00349502 ) 0 
( -0.00154695 0.00143965 0.00349275 ) 0 
( -0.00185097 0.00483201 0.00351804 ) 0 
( -0.00143054 0.00311591 0.00337999 ) 0 
( -0.00109378 0.000578421 0.00371497 ) 0 
( -0.00377675 0.00491977 0.00349006 ) 0 
( -0.00282378 0.00463256 0.00340692 ) 0 
( -0.000960218 0.00221947 0.003184 ) 0 
( -0.00184529 0.00204063 0.00275446 ) 0 
( -0.00324108 0.00316317 0.00329213 ) 0 
( -0.00373161 0.000242123 0.00382089 ) 0 
( -0.000155772 0.0024602 0.0037726 ) 0 
( -0.000114977 0.000700344 0.00386949 ) 0 
( -0.00482188 0.00445466 0.00377772 ) 0 
( -0.00305918 0.00264433 0.00412489 ) 0 
( -0.00415603 0.00134968 0.00353925 ) 0 
( -0.00243577 0.00162767 0.00390658 ) 0 
( -0.00160503 0.001403 0.00448876 ) 0 
( -0.00395391 0.00223829 0.00394703 ) 0 
( -0.00333496 0.00123425 0.00409469 ) 0 
( -0.00221302 0.00393245 0.00376878 ) 0 
( -0.000690825 0.00381652 0.00360077 ) 0 
( -0.000623548 0.00155985 0.00385388 ) 0 
( -0.00209369 0.000598016 0.00415288 ) 0 
( -0.000917604 0.00475285 0.00386639 ) 0 
( -0.00445388 0.00308771 0.003795 ) 0 
( -0.00492729 0.00112094 0.00413098 ) 0 
( -0.001488 0.00228219 0.0040297 ) 0 
( -0.00350173 0.00399883 0.00377486 ) 0 
( -0.00483997 0.00214178 0.00342878 ) 0 
( -0.00201155 0.00309681 0.00427559 ) 0 
( -0.0033784 0.00195989 0.00477831 ) 0 
( -0.00405639 0.0046004 0.00440321 ) 0 
( -0.000442102 0.00415365 0.00450715 ) 0 
( -0.000852359 0.00303394 0.00420073 ) 0 
( -0.00300783 0.000379465 0.00449498 ) 0 
( -0.00494237 0.00243904 0.00437625 ) 0 
( -0.00207616 0.00462913 0.00447082 ) 0 
( -0.00434262 0.00170963 0.00469946 ) 0 
( -0.00253089 0.0012111 0.00480946 ) 0 
( -0.00306683 0.00473514 0.00436913 ) 0 
( -0.00287416 0.00357856 0.00442959 ) 0 
( -0.00412538 0.00074146 0.00459062 ) 0 
( -0.00482316 0.00372965 0.00446286 ) 0 
( -0.0013824 0.0038716 0.00431859 ) 0 
( -0.000761043 0.000882812 0.00460724 ) 0 
( -3.90029e-05 0.0027784 0.00472062 ) 0 
( -0.00194503 0.00364093 0.00511123 ) 0 
( -0.00323432 0.00290352 0.00507275 ) 0 
( -0.00420293 0.00264674 0.00501645 ) 0 
( -0.00342514 0.00106264 0.00522742 ) 0 
( -0.00120806 0.00456557 0.00501381 ) 0 
( -0.00233582 0.0022455 0.00468552 ) 0 
( -0.00386656 0.00344844 0.00452396 ) 0 
( -0.00146895 0.0026903 0.0050083 ) 0 
( -0.00371055 2.87232e-05 0.00515433 ) 0 
( -0.00466534 0.000142272 0.00542572 ) 0 
( -0.000745707 0.00207144 0.00470357 ) 0 
( -0.00444422 0.0042037 0.0052551 ) 0 
( -0.000897461 0.0035036 0.00511107 ) 0 
( -0.00393105 0.000411321 0.00604886 ) 0 
( -0.00387467 0.00194183 0.00564521 ) 0 
( -0.000657378 0.00421639 0.00576995 ) 0 
( -0.00141458 4.00592e-05 0.00587596 ) 0 
( -0.00165283 0.00425253 0.0058519 ) 0 
( -0.00249977 0.00443542 0.0053542 ) 0 
( -0.0022203 0.000263836 0.00509634 ) 0 
( -0.000627482 0.00140363 0.00545002 ) 0 
( -0.00233906 0.00281279 0.00550764 ) 0 
( -0.00176753 0.00181477 0.00538393 ) 0 
( -0.00345914 0.00416476 0.0050897 ) 0 
( -0.00438831 0.00109913 0.00548725 ) 0 
( -0.00337854 0.0027196 0.00604348 ) 0 
( -0.00392056 0.00342022 0.0055831 ) 0 
( -0.000572508 0.000393633 0.0054579 ) 0 
( -0.00291663 0.00360184 0.00571232 ) 0 
( -0.00259292 0.000911992 0.00576041 ) 0 
( -0.00489164 0.00328734 0.00535528 ) 0 
( -0.00146555 0.00319635 0.00587124 ) 0 
( -0.00224682 0.00345214 0.00643859 ) 0 
( -0.00274892 0.00190066 0.00555069 ) 0 
( -0.00443684 0.00268121 0.00601345 ) 0 
( -0.00112184 0.00200212 0.00612187 ) 0 
( -0.0010556 0.000949243 0.00623025 ) 0 
( -0.000623941 0.00264343 0.00553942 ) 0 
( -0.00145908 0.000867736 0.0053205 ) 0 
( -0.00133414 0.00378326 0.00667429 ) 0 
( -0.00304125 0.00471669 0.00614585 ) 0 
( -0.00491446 0.0039514 0.00609989 ) 0 
( -0.000410452 0.00349968 0.00641983 ) 0 
( -0.00107496 0.00281101 0.00670673 ) 0 
( -0.00195868 0.00248744 0.00637167 ) 0 
( -0.00341802 0.00125396 0.00620875 ) 0 
( -0.00025035 0.00158636 0.00637596 ) 0 
( -0.000543361 0.00459859 0.00668643 ) 0 
( -0.00195824 0.00148712 0.00630763 ) 0 
( -0.00403058 0.00459082 0.00607875 ) 0 
( -0.0030496 0.000367996 0.00651556 ) 0 
( -0.000555608 0.000104095 0.00641425 ) 0 
( -0.00231316 0.00439893 0.00675242 ) 0 
( -0.00128015 0.00026046 0.00708401 ) 0 
( -0.00135753 0.0046871 0.00725786 ) 0 
( -0.00382971 0.00205593 0.00664001 ) 0 
( -0.0021034 0.00196551 0.00721026 ) 0 
( -0.00352232 0.00382666 0.00647365 ) 0 
( -0.00204564 0.000508481 0.00649218 ) 0 
( -0.00428926 0.00110085 0.00667509 ) 0 
( -0.00121546 0.00155306 0.00700935 ) 0 
( -0.0028363 0.00204106 0.00653517 ) 0 
( -0.00484698 0.0017174 0.00612234 ) 0 
( -0.00482967 0.00478081 0.00664824 ) 0 
( -0.00475523 0.00224857 0.00696278 ) 0 
( -0.00299574 0.00300194 0.00692191 ) 0 
( -0.00399048 0.00302241 0.00683695 ) 0 
( -0.00353351 0.000847006 0.00727704 ) 0 
( -0.000479977 0.000876714 0.0070438 ) 0 
( -0.000605846 0.00378079 0.00735911 ) 0 
( -0.00158031 0.00379247 0.00764259 ) 0 
( -0.00324567 0.00181059 0.00741666 ) 0 
( -0.00195879 0.00295311 0.00725564 ) 0 
( -0.00439396 0.00392962 0.00695276 ) 0 
( -0.000195862 0.00288539 0.007177 ) 0 
( -0.000437169 0.00177597 0.00759567 ) 0 
( -0.00445971 0.00471033 0.00757332 ) 0 
( -0.00263939 0.00116065 0.0069608 ) 0 
( -0.00491039 0.000206688 0.00695647 ) 0 
( -0.00272705 0.00261937 0.00780436 ) 0 
( -0.00170349 7.96712e-05 0.00797126 ) 0 
( -0.0044185 0.000657024 0.00770085 ) 0 
( -0.00255889 0.00372836 0.00745155 ) 0 
( -0.00183837 0.000963548 0.00752288 ) 0 
( -0.00218535 0.00453928 0.00791586 ) 0 
( -4.2137e-05 0.000324152 0.00784164 ) 0 
( -0.000450016 0.00475182 0.0076704 ) 0 
( -0.00422003 0.00162043 0.00752506 ) 0 
( -0.00459804 0.00313338 0.0076216 ) 0 
( -0.00355625 0.00367024 0.00745968 ) 0 
( -0.00104678 0.00294916 0.00769575 ) 0 
( -0.00249651 0.000215451 0.00733429 ) 0 
( -0.00327707 0.00456239 0.00710449 ) 0 
( -0.00136414 0.00201938 0.00787974 ) 0 
( -0.000948622 0.000737929 0.00791591 ) 0 
( -0.000163668 0.00117853 0.008349 ) 0 
( -0.0012401 0.00451878 0.00823846 ) 0 
( -0.00411949 0.00401726 0.00820734 ) 0 
( -0.0012234 0.00352231 0.00853551 ) 0 
( -0.000625629 0.00204104 0.00855177 ) 0 
( -0.00371809 0.00113899 0.00824179 ) 0 
( -0.00372197 0.00264229 0.00772045 ) 0 
( -0.0022938 0.00180033 0.00817675 ) 0 
( -0.000376457 0.0030016 0.00843469 ) 0 
( -0.00382082 0.00489811 0.00857169 ) 0 
( -0.00106717 0.000210407 0.00875635 ) 0 
( -0.00312962 0.00337832 0.00831505 ) 0 
( -0.00315308 0.004348 0.00807262 ) 0 
( -0.00185714 0.00280073 0.00826027 ) 0 
( -0.00278579 0.000967656 0.0079285 ) 0 
( -0.00454318 0.00230416 0.00817726 ) 0 
( -0.000944242 0.00117923 0.00897273 ) 0 
( -0.00329622 0.00203298 0.00838906 ) 0 
( -0.00181614 0.0009929 0.00852162 ) 0 
( -0.00442085 0.00155019 0.00882051 ) 0 
( -0.00405196 0.00308498 0.00856249 ) 0 
( -0.00168764 0.00429698 0.00910401 ) 0 
( -0.00396486 0.000218935 0.00854175 ) 0 
( -0.00249015 0.000256266 0.00856239 ) 0 
( -0.00157423 0.00194575 0.00885365 ) 0 
( -0.00271681 0.00123876 0.00888715 ) 0 
( -0.00220245 0.00371303 0.00847702 ) 0 
( -0.00497423 0.000411993 0.00849434 ) 0 
( -0.000378797 0.00402599 0.00835404 ) 0 
( -0.00324154 0.000441618 0.00919466 ) 0 
( -0.00466538 0.00448011 0.0089053 ) 0 
( -0.00359391 0.00136403 0.0093501 ) 0 
( -0.00282367 0.0033455 0.00928189 ) 0 
( -0.00386576 0.00230758 0.00916284 ) 0 
( -0.0010408 0.0027422 0.00913353 ) 0 
( -0.00463092 0.00290593 0.00939795 ) 0 
( -0.00362838 0.00389716 0.00906811 ) 0 
( -0.00255132 0.00246513 0.00889535 ) 0 
( -0.00186566 0.000382659 0.00933185 ) 0 
( -0.00275271 0.00437253 0.00898804 ) 0 
( -0.000545811 0.00486708 0.00886761 ) 0 
( -0.000699772 0.00390685 0.00929357 ) 0 
( -0.00258057 0.000889017 0.00981317 ) 0 
( -0.00278799 0.00186766 0.00966017 ) 0 
( -0.000622832 0.00193321 0.00954488 ) 0 
( -0.00182564 0.00333089 0.00932042 ) 0 
( -0.00370711 0.00313156 0.00970551 ) 0 
( -0.00385908 0.00473748 0.00955738 ) 0 
( -0.0049287 0.00196821 0.00957314 ) 0 
( -0.0017004 0.00132359 0.00962482 ) 0 
( -0.000440835 0.000695107 0.00968755 ) 0 
( -0.000133066 0.00295913 0.00949096 ) 0 
( -0.00420021 0.000572731 0.00944582 ) 0 
( -0.00441321 0.00383901 0.00968356 ) 0 
( -0.00390318 0.00226362 0.010161 ) 0 
( -0.00349401 0.000658854 0.0101476 ) 0 
( -0.00221555 0.00160232 0.0104348 ) 0 
( -0.00128685 0.00194305 0.0102917 ) 0 
( -0.00430667 0.00135474 0.010059 ) 0 
( -0.00286319 0.00276457 0.0100946 ) 0 
( -0.00136272 0.00384779 0.0100395 ) 0 
( -0.0030711 0.00496112 0.0101302 ) 0 
( -0.00102312 0.00291119 0.0101181 ) 0 
( -0.00192518 0.00239999 0.009672 ) 0 
( -0.00232693 0.00403274 0.00982564 ) 0 
( -0.00104249 0.00474079 0.00972548 ) 0 
( -0.00332397 0.00400134 0.0100145 ) 0 
( -0.00202927 0.000213651 0.0103032 ) 0 
( -0.00028188 0.00367606 0.0101713 ) 0 
( -0.00266107 0.00374874 0.0107233 ) 0 
( -0.00447579 0.00310895 0.0103638 ) 0 
( -0.00422172 0.000646444 0.0108328 ) 0 
( -0.00326119 0.00156919 0.0104881 ) 0 
( -0.00178841 0.00468046 0.0103914 ) 0 
( -0.000256025 0.00239187 0.0104926 ) 0 
( -0.0013844 0.000200834 0.0111441 ) 0 
( -0.00010835 0.000512159 0.0106446 ) 0 
( -0.00269574 0.000806409 0.0108024 ) 0 
( -0.000441617 0.00141613 0.0103802 ) 0 
( -0.00196925 0.00312197 0.0103621 ) 0 
( -0.000783999 0.00440759 0.0106318 ) 0 
( -0.00413008 0.00431886 0.0105134 ) 0 
( -0.00128387 0.00087909 0.0104169 ) 0 
( -0.00239964 0.00294148 0.0112513 ) 0 
( -0.00321999 0.00244319 0.0109714 ) 0 
( -0.000224264 0.00280281 0.0114033 ) 0 
( -0.00250898 0.000182335 0.0115605 ) 0 
( -0.00141637 0.00261344 0.0110216 ) 0 
( -0.00482368 0.00218382 0.0105436 ) 0 
( -0.00173197 0.00390301 0.0110575 ) 0 
( -0.00357475 0.00334463 0.0107252 ) 0 
( -0.000853802 0.00343698 0.010955 ) 0 
( -0.000740784 0.000990228 0.0112529 ) 0 
( -0.00269052 0.00166656 0.011312 ) 0 
( -0.00259908 0.00471365 0.010976 ) 0 
( -0.00408558 0.00171952 0.0110326 ) 0 
( -0.00193315 0.00224311 0.0117933 ) 0 
( -0.00498259 0.00127929 0.0110136 ) 0 
( -0.00043177 0.00484194 0.0114604 ) 0 
( -0.00094315 0.00206597 0.0117113 ) 0 
( -0.00445653 0.00366443 0.0111948 ) 0 
( -0.00148093 0.00465543 0.0116659 ) 0 
( -0.000106416 0.0017631 0.0112557 ) 0 
( -0.000770508 0.00396467 0.0117999 ) 0 
( -0.00347714 0.00101182 0.0113911 ) 0 
( -0.00160027 0.0014987 0.0112153 ) 0 
( -0.00415757 0.00269913 0.0112182 ) 0 
( -0.00350446 0.00197188 0.0118059 ) 0 
( -0.000587976 0.00013312 0.0117446 ) 0 
( -0.00176185 0.000766701 0.0118767 ) 0 
)
