FoamFile
{version 2.0; format ascii;class vectorField; location 0;object  v;}
350
(
( 4.2863e-06 1.40357e-06 -1.00372e-05 )  
( 4.19895e-06 8.9335e-07 -1.55893e-05 )  
( 2.7338e-06 -1.05037e-06 -1.50557e-05 )  
( 1.00783e-06 7.66011e-07 -9.31115e-06 )  
( -2.70139e-06 -2.50257e-06 -1.78456e-05 )  
( 1.30439e-06 7.68391e-07 -1.52315e-05 )  
( 6.47452e-07 1.5058e-06 -1.47934e-05 )  
( 3.28149e-06 4.51988e-07 -1.62341e-05 )  
( 3.77184e-06 -7.95627e-07 -1.08738e-05 )  
( -1.20233e-06 -1.09109e-06 -1.63796e-05 )  
( 2.27122e-07 -9.55408e-07 -1.66358e-05 )  
( -1.57521e-06 6.98314e-07 -1.43595e-05 )  
( -1.02835e-06 -3.11595e-06 -1.45527e-05 )  
( 2.26343e-06 -5.95325e-07 -1.28476e-05 )  
( -1.93199e-06 -1.33482e-06 -1.5875e-05 )  
( -8.94355e-07 1.57907e-07 -1.47877e-05 )  
( 3.12349e-06 -3.99655e-06 -7.36112e-06 )  
( 6.97193e-06 -1.24064e-06 -1.53276e-05 )  
( 7.67516e-06 5.53942e-07 -2.17971e-05 )  
( -1.96495e-06 -5.92514e-06 -3.38531e-05 )  
( 1.88588e-06 -7.38136e-07 -1.05012e-05 )  
( -8.09729e-06 -9.43128e-06 -1.48581e-05 )  
( -5.97777e-06 -8.0817e-06 -2.33869e-05 )  
( -3.03247e-07 -2.22695e-06 -1.39488e-05 )  
( 5.65302e-06 5.56583e-06 -3.525e-05 )  
( 1.39454e-07 -1.6896e-05 -2.9143e-06 )  
( 2.11306e-06 1.41366e-06 -3.29884e-05 )  
( -8.38791e-07 -1.84536e-06 -8.55401e-06 )  
( 2.90192e-08 -4.28989e-06 -4.23556e-05 )  
( -7.61192e-07 5.52602e-09 -2.80348e-05 )  
( 7.58802e-06 9.10173e-07 -3.05611e-05 )  
( -2.7169e-06 -2.19352e-06 -3.06455e-05 )  
( -1.83155e-06 -1.14807e-06 -2.82141e-05 )  
( -6.37709e-06 3.02645e-06 -1.87065e-05 )  
( 6.12505e-06 -1.66604e-06 -2.75549e-05 )  
( -2.96405e-06 4.1087e-07 -2.21773e-05 )  
( 4.41883e-06 -6.65847e-06 -2.89836e-05 )  
( 3.1792e-06 -2.82689e-06 -2.57623e-05 )  
( 9.30484e-07 -2.26292e-06 -3.30625e-05 )  
( -5.52125e-07 -3.1798e-06 -3.23092e-05 )  
( 4.95359e-06 -4.82367e-08 -2.57853e-05 )  
( -2.60748e-06 1.98095e-06 -2.79636e-05 )  
( -1.60209e-07 -2.45605e-05 -1.10068e-05 )  
( -4.92197e-07 1.50941e-08 -4.54065e-05 )  
( 8.23214e-06 -6.91296e-06 -4.64727e-05 )  
( -2.82094e-06 2.98874e-06 -4.5402e-05 )  
( 3.53424e-06 -6.41025e-06 -4.56519e-05 )  
( -6.0024e-06 4.31083e-06 -1.91034e-05 )  
( 2.23262e-06 5.3281e-06 -5.1156e-05 )  
( -3.82315e-06 -5.56052e-06 -1.46798e-05 )  
( 4.64498e-06 4.43194e-07 -4.2901e-05 )  
( -2.39078e-06 5.54165e-07 -2.50965e-05 )  
( -6.69367e-06 -2.43971e-06 -4.54436e-05 )  
( 5.49454e-06 -2.24029e-06 -3.85824e-05 )  
( 9.96129e-06 -7.10821e-06 -3.38127e-05 )  
( 1.55618e-06 -8.2063e-07 -3.71232e-05 )  
( 5.38191e-06 -2.96966e-06 -4.61887e-05 )  
( -1.58852e-07 1.49184e-06 -4.83091e-05 )  
( 2.35307e-06 1.49708e-06 -4.38292e-05 )  
( -2.55476e-06 -2.63538e-06 -5.32287e-05 )  
( -5.1889e-06 -6.80581e-07 -4.37204e-05 )  
( -4.67966e-06 -1.94907e-06 -5.41107e-05 )  
( 3.13095e-06 4.53157e-06 -5.10305e-05 )  
( 3.90209e-06 1.65576e-06 -3.52648e-05 )  
( -4.11088e-06 -4.50455e-06 -4.88067e-05 )  
( -1.77294e-06 3.10064e-06 -5.42356e-05 )  
( -2.62711e-06 3.96769e-06 -5.01999e-05 )  
( -1.98093e-06 -1.91295e-06 -5.24955e-05 )  
( -7.33394e-08 -6.90221e-06 -4.71133e-05 )  
( -5.1822e-07 -2.58973e-06 -3.12991e-05 )  
( 4.37917e-06 1.39074e-06 -4.76536e-05 )  
( 3.88233e-08 1.73057e-06 -5.6574e-05 )  
( 1.53902e-06 1.15788e-06 -5.14097e-05 )  
( -5.46222e-06 -2.8648e-06 -5.95578e-05 )  
( 1.91928e-07 -4.84952e-06 -5.43845e-05 )  
( -2.40648e-06 -3.59068e-06 -5.34404e-05 )  
( -1.49207e-06 -8.33336e-07 -6.25708e-05 )  
( -6.90882e-07 1.03144e-06 -6.4277e-05 )  
( 2.37459e-05 -2.11091e-05 -2.43602e-05 )  
( 2.76515e-06 -5.61809e-07 -5.85351e-05 )  
( -6.37876e-06 3.61444e-07 -6.20377e-05 )  
( 4.58191e-07 1.953e-06 -4.80888e-05 )  
( -4.74541e-06 -1.88084e-07 -6.47739e-05 )  
( -1.68885e-06 5.02761e-07 -6.37652e-05 )  
( 1.48641e-08 -4.19676e-06 -5.69566e-05 )  
( 9.24056e-06 1.45096e-05 -7.04741e-05 )  
( -1.08299e-06 -6.14583e-06 -7.03064e-05 )  
( -2.09446e-06 -3.89097e-06 -6.84998e-05 )  
( 9.05346e-07 -8.10633e-08 -6.05848e-05 )  
( -5.62757e-07 6.7787e-06 -6.84887e-05 )  
( 6.5308e-07 -1.94078e-06 -5.79811e-05 )  
( 1.09077e-07 -6.50204e-06 -5.82243e-05 )  
( -7.76994e-06 -1.88956e-06 -7.12287e-05 )  
( 4.0936e-07 -7.22388e-07 -5.77155e-05 )  
( -2.40461e-06 -2.92756e-06 -6.65391e-05 )  
( 4.47212e-06 -3.13219e-06 -5.94251e-05 )  
( -4.67458e-06 -3.08824e-06 -7.0484e-05 )  
( 3.35987e-06 -4.47266e-06 -6.37582e-05 )  
( -7.20958e-07 -4.87617e-06 -7.11278e-05 )  
( -1.13225e-06 1.68193e-06 -7.06622e-05 )  
( 6.02503e-06 -1.97945e-06 -7.12877e-05 )  
( -4.93676e-06 -2.19215e-06 -6.28358e-05 )  
( -3.16201e-06 -1.31478e-06 -7.46652e-05 )  
( 8.9808e-06 -1.22841e-05 -6.6681e-05 )  
( 8.5021e-06 -2.34992e-06 -7.36966e-05 )  
( 4.87893e-06 6.48865e-06 -6.7082e-05 )  
( -7.21912e-07 -5.56637e-07 -6.28833e-05 )  
( 3.75128e-06 -1.1206e-06 -6.73216e-05 )  
( -7.1926e-06 -4.91206e-06 -7.05686e-05 )  
( 2.50644e-05 3.05941e-05 -8.39277e-05 )  
( -2.37651e-06 -3.0757e-06 -8.4502e-05 )  
( 6.16956e-06 -7.67896e-06 -6.99044e-05 )  
( 1.40626e-06 -6.25844e-06 -7.71002e-05 )  
( -3.30168e-06 -4.14387e-06 -7.02533e-05 )  
( -1.22916e-06 -2.2204e-06 -7.99381e-05 )  
( -1.92335e-06 -4.42103e-06 -8.1864e-05 )  
( 8.64012e-07 -4.61707e-06 -7.62984e-05 )  
( -1.66877e-06 -2.3893e-06 -7.78122e-05 )  
( 4.16255e-06 -4.65654e-06 -7.89984e-05 )  
( 4.70675e-06 3.65458e-06 -7.74819e-05 )  
( 5.29332e-06 -3.00087e-08 -7.88508e-05 )  
( -7.78668e-06 -1.07829e-06 -7.59627e-05 )  
( 5.95398e-06 -4.83685e-06 -7.26939e-05 )  
( 4.15919e-06 -6.19815e-06 -7.1153e-05 )  
( -2.07817e-06 -2.50272e-06 -7.783e-05 )  
( 1.76327e-06 -4.61941e-06 -7.68766e-05 )  
( 5.69042e-06 6.82827e-08 -7.18646e-05 )  
( 1.15785e-06 -5.34541e-06 -6.93861e-05 )  
( 1.64878e-06 -5.03843e-06 -8.25889e-05 )  
( -3.80785e-07 -5.32501e-06 -8.2923e-05 )  
( 1.20242e-05 -1.42604e-05 -8.1268e-05 )  
( 2.8837e-06 -6.59427e-06 -8.06359e-05 )  
( 3.67104e-06 -4.72898e-07 -8.11026e-05 )  
( 1.40462e-06 -5.10102e-06 -8.56121e-05 )  
( 1.14664e-06 -7.10824e-06 -7.78764e-05 )  
( 7.81515e-06 -7.97843e-06 -8.1741e-05 )  
( -2.50886e-07 -6.46099e-06 -8.49537e-05 )  
( -4.23244e-06 9.7471e-07 -8.49393e-05 )  
( 8.83324e-06 -7.86134e-06 -8.19808e-05 )  
( 6.19493e-06 -5.86929e-06 -7.96333e-05 )  
( -4.45422e-06 -4.57462e-06 -8.28488e-05 )  
( 7.26621e-06 -6.80756e-06 -7.64661e-05 )  
( 2.76905e-06 -5.39311e-06 -8.52113e-05 )  
( -3.41606e-06 -5.92097e-06 -8.90038e-05 )  
( 2.54738e-07 -1.84975e-06 -8.61344e-05 )  
( 5.25056e-06 -9.1513e-06 -8.72709e-05 )  
( 3.42992e-06 -7.32234e-06 -8.49599e-05 )  
( 4.38886e-06 -7.80239e-06 -8.69246e-05 )  
( -3.8091e-06 -5.4799e-06 -8.97491e-05 )  
( 3.60653e-06 -9.21813e-06 -8.66426e-05 )  
( 1.6485e-06 -7.00669e-06 -8.46412e-05 )  
( 5.96306e-06 -4.83908e-06 -8.12811e-05 )  
( 1.46023e-06 -8.63834e-06 -9.11838e-05 )  
( -7.6918e-06 -6.59283e-06 -8.37965e-05 )  
( -6.38823e-06 -3.79828e-06 -8.85597e-05 )  
( 4.06153e-06 -2.19878e-06 -8.6564e-05 )  
( 7.41839e-06 -6.74408e-06 -8.4709e-05 )  
( 3.77849e-06 -1.14603e-05 -9.04147e-05 )  
( -6.92726e-06 -7.90222e-06 -8.82186e-05 )  
( -2.47433e-06 -9.08335e-06 -8.99821e-05 )  
( 2.5642e-06 -1.18015e-05 -8.89797e-05 )  
( -5.98856e-07 -1.01227e-05 -8.87034e-05 )  
( 5.26377e-06 -1.05504e-05 -8.72379e-05 )  
( 6.98358e-06 -1.08319e-05 -8.48561e-05 )  
( 4.45381e-07 -8.18349e-06 -8.98974e-05 )  
( 1.62855e-06 -9.62766e-06 -9.53619e-05 )  
( 4.46549e-06 -9.83356e-06 -8.68024e-05 )  
( -2.36707e-07 -8.88143e-06 -8.80349e-05 )  
( 7.60285e-06 -9.08167e-06 -8.38368e-05 )  
( -3.24626e-06 -6.72715e-06 -9.09714e-05 )  
( 3.01426e-06 -1.01448e-05 -8.91325e-05 )  
( 5.33588e-06 -7.70417e-06 -8.6834e-05 )  
( -2.17121e-06 -6.44584e-06 -9.20828e-05 )  
( 7.69821e-06 -1.07758e-05 -8.73891e-05 )  
( -4.98737e-06 -7.74041e-06 -9.17573e-05 )  
( 7.08055e-06 -5.04191e-06 -8.33014e-05 )  
( 5.21293e-06 -1.36141e-05 -9.01754e-05 )  
( 6.80393e-06 -1.19267e-05 -8.96184e-05 )  
( 6.90012e-07 -8.0272e-06 -8.80767e-05 )  
( 3.1255e-06 -6.63763e-06 -8.90527e-05 )  
( -1.36491e-07 -8.7006e-06 -9.14294e-05 )  
( 4.09601e-06 -7.8751e-06 -9.21683e-05 )  
( 1.27791e-06 -1.23266e-05 -9.76563e-05 )  
( -4.39867e-07 -8.99435e-06 -8.74269e-05 )  
( 5.44762e-06 -8.86529e-06 -8.52411e-05 )  
( 6.33803e-06 -1.22205e-05 -8.64557e-05 )  
( 3.83116e-06 -5.08027e-06 -8.74807e-05 )  
( 1.08798e-06 -1.0082e-05 -8.86492e-05 )  
( 2.62956e-06 -9.91652e-06 -8.71335e-05 )  
( 2.77652e-06 -9.02233e-06 -8.62697e-05 )  
( -5.36752e-06 -1.07701e-05 -9.24038e-05 )  
( 1.88335e-06 5.36857e-08 -8.8764e-05 )  
( 2.60312e-06 -8.29383e-06 -8.67706e-05 )  
( -3.36214e-06 -9.97948e-06 -8.91263e-05 )  
( 6.43806e-06 -1.10978e-05 -8.65028e-05 )  
( -4.62816e-06 -6.69761e-06 -9.33152e-05 )  
( -2.17269e-06 -1.02667e-05 -9.30681e-05 )  
( 8.41148e-06 -1.49962e-05 -8.99352e-05 )  
( -2.96738e-06 -1.33054e-05 -9.16044e-05 )  
( 5.67723e-06 -9.72281e-06 -7.49141e-05 )  
( -6.01511e-07 -8.85223e-06 -9.35764e-05 )  
( 1.90048e-06 -1.1099e-05 -8.60323e-05 )  
( 7.86705e-06 -1.06952e-05 -8.65801e-05 )  
( -3.74244e-06 -1.14487e-05 -9.27442e-05 )  
( -4.68249e-06 -3.50431e-06 -9.06767e-05 )  
( 3.29477e-06 -1.10948e-05 -8.92393e-05 )  
( 1.25601e-06 -1.00863e-05 -8.93272e-05 )  
( -2.83555e-06 -4.39539e-06 -8.99621e-05 )  
( 4.02348e-06 -9.30983e-06 -8.63585e-05 )  
( -9.15253e-08 -1.03615e-06 -9.0209e-05 )  
( 6.96307e-06 -1.20997e-05 -8.78406e-05 )  
( 3.7436e-06 -8.09476e-06 -8.92351e-05 )  
( -7.96424e-06 -5.99433e-06 -8.82242e-05 )  
( 4.07757e-06 -1.18746e-05 -9.18539e-05 )  
( 9.16363e-07 -7.37335e-06 -8.55055e-05 )  
( 6.90071e-06 -1.10705e-05 -7.76249e-05 )  
( -7.78527e-07 -3.48364e-06 -8.80141e-05 )  
( 5.47304e-06 -1.03362e-05 -8.54384e-05 )  
( 6.35809e-06 -7.84842e-06 -8.90758e-05 )  
( -8.78884e-08 -1.01393e-05 -8.71382e-05 )  
( 5.50674e-07 -1.33133e-05 -8.6045e-05 )  
( 7.5374e-06 -8.5752e-06 -8.94279e-05 )  
( -4.00102e-06 -9.36897e-06 -8.83085e-05 )  
( -7.42637e-06 -1.02975e-05 -0.000101005 )  
( 5.0025e-06 -1.0656e-05 -8.37093e-05 )  
( -1.05652e-05 -2.06235e-05 -9.33948e-05 )  
( -1.48307e-05 -3.02704e-06 -9.52246e-05 )  
( 7.86947e-06 -1.08008e-05 -8.90945e-05 )  
( -3.3015e-08 -1.21786e-05 -9.09497e-05 )  
( 6.10781e-06 -1.03786e-05 -6.63299e-05 )  
( 8.02393e-07 -1.17862e-05 -8.86321e-05 )  
( 6.66774e-06 -6.43972e-06 -7.58278e-05 )  
( -3.73176e-06 -2.44903e-06 -8.66578e-05 )  
( -3.4426e-06 -3.47732e-06 -8.82792e-05 )  
( 9.42993e-06 -9.35812e-06 -8.53726e-05 )  
( 2.43647e-06 -1.09782e-05 -8.09971e-05 )  
( -8.30615e-06 -7.96449e-06 -9.48284e-05 )  
( 1.23314e-05 -1.27938e-05 -8.55366e-05 )  
( 2.30914e-06 -1.38645e-05 -8.25552e-05 )  
( 1.21142e-06 -1.23909e-05 -9.20923e-05 )  
( 4.13229e-06 -1.35869e-05 -8.35776e-05 )  
( 8.0253e-06 -1.19783e-05 -6.80781e-05 )  
( 6.6229e-06 -9.48756e-06 -8.64784e-05 )  
( 5.97143e-06 -1.22287e-05 -6.70592e-05 )  
( 2.9862e-06 -1.38071e-05 -7.65958e-05 )  
( -3.21369e-06 2.17477e-07 -8.17444e-05 )  
( 7.41184e-07 -5.27286e-06 -8.64924e-05 )  
( 1.73032e-06 -1.43198e-05 -8.36186e-05 )  
( 4.93815e-06 -1.40871e-05 -7.51002e-05 )  
( -8.03924e-06 -8.27299e-06 -8.1916e-05 )  
( -4.57571e-06 -1.57784e-05 -9.60022e-05 )  
( 2.06323e-06 -1.24918e-05 -8.36598e-05 )  
( 6.17256e-06 -8.58346e-06 -7.97659e-05 )  
( 5.33844e-06 -1.5922e-05 -7.55509e-05 )  
( -5.37524e-06 -1.10237e-05 -8.72152e-05 )  
( -4.76347e-06 2.17039e-07 -8.25749e-05 )  
( 2.51222e-06 -1.71786e-05 -7.62653e-05 )  
( -3.3665e-06 1.46322e-06 -8.46045e-05 )  
( -7.16628e-07 -1.50275e-05 -8.7579e-05 )  
( -6.1756e-06 -1.6767e-07 -8.26827e-05 )  
( -3.21488e-06 -4.64603e-06 -8.70694e-05 )  
( 8.6126e-06 -1.32079e-05 -6.19101e-05 )  
( -1.05089e-05 1.03043e-06 -7.81985e-05 )  
( -9.94802e-06 -1.4304e-05 -9.24914e-05 )  
( 2.16268e-06 -1.605e-05 -7.632e-05 )  
( 1.09572e-07 -4.34205e-07 -8.20762e-05 )  
( 4.33382e-06 -1.40925e-05 -6.74141e-05 )  
( -1.10172e-05 -3.775e-06 -9.40532e-05 )  
( 5.80818e-06 -1.20819e-05 -7.24808e-05 )  
( -3.43136e-06 -1.13321e-06 -8.28311e-05 )  
( 1.30656e-05 -5.44574e-05 -6.45141e-05 )  
( -1.58202e-07 -1.40594e-06 -8.12938e-05 )  
( -1.88146e-06 -3.26602e-06 -6.96522e-05 )  
( -1.0174e-06 9.31462e-07 -7.38881e-05 )  
( 2.31034e-06 -1.53211e-05 -6.35358e-05 )  
( -3.99133e-06 2.31841e-07 -7.6741e-05 )  
( -7.04812e-06 -4.39805e-06 -6.64357e-05 )  
( -3.46451e-06 6.66573e-08 -7.60332e-05 )  
( -9.23872e-06 -2.25515e-05 -9.66963e-05 )  
( -5.97022e-06 -1.34603e-05 -6.55198e-05 )  
( 9.90084e-06 -8.5763e-06 -6.8118e-05 )  
( 1.03055e-05 -7.22069e-06 -6.02318e-05 )  
( 5.31673e-06 -9.21772e-06 -8.0155e-05 )  
( 3.5052e-06 8.81599e-07 -7.48705e-05 )  
( 6.58949e-06 -1.88899e-05 -6.92979e-05 )  
( 3.7797e-06 -1.02718e-05 -5.94031e-05 )  
( -1.00063e-05 6.65338e-06 -6.26597e-05 )  
( 6.73971e-06 1.1532e-05 -8.17716e-05 )  
( -2.90812e-05 8.04105e-06 -8.05011e-05 )  
( 7.85454e-06 -3.1328e-05 -7.69258e-05 )  
( 4.44817e-06 -2.09934e-05 -7.75876e-05 )  
( 1.10947e-05 -1.83465e-05 -6.26471e-05 )  
( -6.70742e-06 8.48645e-06 -6.7041e-05 )  
( -1.47551e-05 7.35523e-06 -7.25992e-05 )  
( -0.000125949 4.45606e-05 -5.479e-05 )  
( 6.49408e-06 6.61424e-06 -5.56368e-05 )  
( 6.67076e-06 -2.16513e-05 -7.94886e-05 )  
( 1.23174e-05 -3.30578e-05 -6.59873e-05 )  
( -6.96153e-05 1.75075e-05 -6.94795e-05 )  
( 6.16529e-06 7.87069e-06 -7.02349e-05 )  
( 2.16679e-05 -1.16977e-05 -4.63517e-05 )  
( -1.07994e-05 1.27446e-05 -5.53481e-05 )  
( 1.05714e-05 -2.10849e-05 -5.15787e-05 )  
( 1.04083e-05 -8.85767e-06 -7.23181e-05 )  
( -7.74829e-07 -2.76244e-05 -6.18046e-05 )  
( 1.33896e-05 -4.73382e-06 -5.6929e-05 )  
( -1.59278e-05 1.20544e-05 -5.14694e-05 )  
( -5.81148e-06 -1.20669e-05 -9.1236e-05 )  
( 2.12638e-05 3.52331e-07 -5.76647e-05 )  
( -1.68452e-05 2.17557e-05 -4.64558e-05 )  
( -1.20085e-05 3.73356e-07 -7.19366e-05 )  
( -1.0889e-05 2.09839e-05 -7.06328e-05 )  
( 4.22565e-05 1.5327e-05 -6.29668e-05 )  
( 2.83487e-05 -3.26699e-06 -5.82417e-05 )  
( 1.10394e-05 -1.12409e-05 -6.27629e-05 )  
( -8.0838e-06 -2.03407e-05 -3.79127e-05 )  
( 1.1471e-05 -3.38938e-05 -5.93258e-05 )  
( -4.0134e-06 -7.86093e-06 -8.77418e-05 )  
( 8.60847e-06 -2.1761e-05 -5.88493e-05 )  
( 9.76597e-06 -1.1743e-05 -6.4802e-05 )  
( 2.87514e-05 1.43115e-06 -5.01575e-05 )  
( -4.00071e-05 2.42653e-05 -7.68278e-05 )  
( -3.77877e-06 -1.1856e-05 -4.50108e-05 )  
( 1.18389e-05 1.75741e-05 -8.92547e-05 )  
( 1.18792e-05 2.13345e-05 -6.28502e-05 )  
( -6.95205e-06 -5.3265e-06 -6.23019e-05 )  
( -1.10606e-05 1.56527e-05 -6.87663e-05 )  
( 3.93377e-05 -2.23256e-05 -5.25377e-05 )  
( 1.23064e-05 7.99825e-06 -7.92785e-05 )  
( -1.84326e-06 1.14644e-05 -4.92172e-05 )  
( -2.52755e-05 2.15721e-05 -5.18336e-05 )  
( 6.76588e-06 4.63229e-06 -6.2224e-05 )  
( 2.50932e-05 -2.41857e-05 -6.83248e-05 )  
( -1.55295e-05 -1.76225e-05 -8.49628e-05 )  
( 5.71567e-06 1.81844e-05 -6.61889e-05 )  
( 3.52246e-05 2.35166e-05 -9.92224e-05 )  
( -0.000108816 -7.3091e-05 -0.000135122 )  
( 6.58714e-05 3.55046e-06 -0.000109718 )  
( 3.81719e-06 2.11791e-05 -2.52844e-05 )  
( 2.07872e-05 -5.1807e-05 -5.07564e-05 )  
( -0.000118881 7.12416e-05 -8.14293e-05 )  
( 1.02798e-05 1.02614e-05 -4.54738e-05 )  
( 3.18126e-05 -4.30814e-05 -4.83406e-05 )  
( -7.41759e-06 -6.75586e-07 -4.06668e-05 )  
( 1.4178e-05 3.68335e-05 -9.03003e-05 )  
( 2.31738e-05 -3.1355e-05 -9.24181e-05 )  
( -2.92852e-05 1.0435e-05 -6.8582e-05 )  
( 8.85621e-06 9.28878e-06 -6.98084e-05 )  
( -7.5153e-06 -3.48922e-05 -5.14653e-05 )  
( -6.1194e-06 4.01044e-06 -5.47697e-05 )  
)
