/*--------------------------------*- C++ -*----------------------------------*\
| =========                 |                                                 |
| \\      /  F ield         | OpenFOAM: The Open Source CFD Toolbox           |
|  \\    /   O peration     | Version:  5.x                                   |
|   \\  /    A nd           | Web:      www.OpenFOAM.org                      |
|    \\/     M anipulation  |                                                 |
\*---------------------------------------------------------------------------*/
FoamFile
{
    version     2.0;
    format      ascii;
    class       volScalarField;
    location    "200";
    object      p;
}
// * * * * * * * * * * * * * * * * * * * * * * * * * * * * * * * * * * * * * //

dimensions      [0 2 -2 0 0 0 0];

internalField   nonuniform List<scalar> 
90
(
2.05638e-10
6.00489e-10
9.36283e-10
1.16839e-09
1.2677e-09
1.21438e-09
9.99143e-10
6.23322e-10
9.79082e-11
-5.58584e-10
-1.32334e-09
-2.17335e-09
-3.09014e-09
-4.06476e-09
-5.10279e-09
-6.22912e-09
-7.49249e-09
-8.97011e-09
-1.07686e-08
-1.30235e-08
-1.58979e-08
-1.9587e-08
-2.43493e-08
-3.058e-08
-3.88931e-08
-4.99435e-08
-6.45382e-08
-8.36179e-08
-1.0851e-07
-1.40977e-07
-1.83334e-07
-2.38608e-07
-3.10701e-07
-4.04504e-07
-5.26833e-07
-7.04797e-07
-9.95587e-07
-1.14015e-06
1.77505e-06
-1.00198e-05
4.57819e-06
0.000445319
0.0012467
0.0019558
0.00270529
0.00368694
0.00471795
0.00566712
0.00643095
0.00700478
0.00778125
0.00842669
0.00852846
0.00853137
0.00853154
0.00853201
0.00853242
0.00853273
0.00853295
0.00853311
0.00853323
0.00853332
0.00853338
0.00853343
0.00853347
0.00853349
0.00853351
0.00853353
0.00853354
0.00853355
0.00853355
0.00853356
0.00853356
0.00853356
0.00853357
0.00853357
0.00853357
0.00853357
0.00853357
0.00853357
0.00853357
0.00853358
0.00853358
0.00853358
0.00853358
0.00853358
0.00853358
0.00853358
0.00853358
0.00853358
)
;

boundaryField
{
    inlet
    {
        type            zeroGradient;
    }
    outlet
    {
        type            fixedValue;
        value           uniform 0;
    }
    repeat_boundary
    {
        type            zeroGradient;
    }
    procBoundary0to1
    {
        type            processor;
        value           nonuniform List<scalar> 
90
(
-2.46151e-11
-7.08405e-11
-1.09748e-10
-1.38846e-10
-1.57674e-10
-1.68241e-10
-1.7505e-10
-1.84861e-10
-2.06049e-10
-2.47479e-10
-3.16979e-10
-4.1956e-10
-5.55511e-10
-7.18485e-10
-8.93616e-10
-1.05563e-09
-1.16664e-09
-1.17342e-09
-1.00749e-09
-5.85231e-10
1.92e-10
1.42924e-09
3.26954e-09
5.97064e-09
9.9705e-09
1.57306e-08
2.38448e-08
3.49209e-08
4.98533e-08
6.98421e-08
9.64672e-08
1.31798e-07
1.78622e-07
2.40997e-07
3.23028e-07
4.08072e-07
3.97668e-07
4.63183e-07
5.92769e-06
-1.129e-05
1.71308e-05
0.000596602
0.00134117
0.00218429
0.00302038
0.00394374
0.00494838
0.00571852
0.00635562
0.00712625
0.00779298
0.00843022
0.00853677
0.00853387
0.00853327
0.00853324
0.00853326
0.00853328
0.00853332
0.00853335
0.00853338
0.00853341
0.00853344
0.00853346
0.00853348
0.0085335
0.00853351
0.00853352
0.00853353
0.00853354
0.00853355
0.00853355
0.00853356
0.00853356
0.00853356
0.00853356
0.00853357
0.00853357
0.00853357
0.00853357
0.00853357
0.00853357
0.00853357
0.00853358
0.00853358
0.00853358
0.00853358
0.00853358
0.00853358
0.00853358
)
;
    }
    procBoundary0to2
    {
        type            processor;
        value           nonuniform List<scalar> 
90
(
-2.58455e-12
-2.82643e-12
5.94579e-12
2.76731e-11
6.38553e-11
1.13051e-10
1.70718e-10
2.2939e-10
2.79283e-10
3.09239e-10
3.07889e-10
2.64897e-10
1.7212e-10
2.4517e-11
-1.79362e-10
-4.37411e-10
-7.44635e-10
-1.09444e-09
-1.48053e-09
-1.89943e-09
-2.35368e-09
-2.85601e-09
-3.43478e-09
-4.14007e-09
-5.04815e-09
-6.2629e-09
-7.92399e-09
-1.02199e-08
-1.34157e-08
-1.78863e-08
-2.41614e-08
-3.2985e-08
-4.5302e-08
-6.19022e-08
-8.49853e-08
-1.42641e-07
-3.68508e-07
-6.63019e-07
5.08885e-06
-1.44661e-05
1.56357e-05
0.000697143
0.00140584
0.00211957
0.00292745
0.00376347
0.00452708
0.00524642
0.00607682
0.00695455
0.00768235
0.00838772
0.008532
0.00853475
0.00853345
0.00853345
0.00853352
0.00853357
0.0085336
0.00853361
0.00853362
0.00853363
0.00853363
0.00853363
0.00853362
0.00853362
0.00853361
0.00853361
0.0085336
0.0085336
0.0085336
0.00853359
0.00853359
0.00853359
0.00853358
0.00853358
0.00853358
0.00853358
0.00853358
0.00853358
0.00853358
0.00853358
0.00853358
0.00853358
0.00853358
0.00853358
0.00853358
0.00853358
0.00853358
0.00853359
)
;
    }
}


// ************************************************************************* //
