/*--------------------------------*- C++ -*----------------------------------*\
| =========                 |                                                 |
| \\      /  F ield         | OpenFOAM: The Open Source CFD Toolbox           |
|  \\    /   O peration     | Version:  5.x                                   |
|   \\  /    A nd           | Web:      www.OpenFOAM.org                      |
|    \\/     M anipulation  |                                                 |
\*---------------------------------------------------------------------------*/
FoamFile
{
    version     2.0;
    format      ascii;
    class       volVectorField;
    location    "200";
    object      stored_U;
}
// * * * * * * * * * * * * * * * * * * * * * * * * * * * * * * * * * * * * * //

dimensions      [0 1 -1 0 0 0 0];

internalField   nonuniform List<vector> 
90
(
(1.09255e-09 -1.17027e-09 -0.000999998)
(2.62815e-09 -2.9465e-09 -0.000999998)
(4.34854e-09 -4.94523e-09 -0.000999998)
(6.23954e-09 -7.18884e-09 -0.000999999)
(8.36347e-09 -9.7942e-09 -0.000999999)
(1.07886e-08 -1.29037e-08 -0.000999999)
(1.35906e-08 -1.6691e-08 -0.000999999)
(1.68505e-08 -2.13817e-08 -0.000999999)
(2.06546e-08 -2.72416e-08 -0.000999998)
(2.5096e-08 -3.46135e-08 -0.000999996)
(3.02732e-08 -4.3928e-08 -0.000999993)
(3.62861e-08 -5.57303e-08 -0.000999988)
(4.32287e-08 -7.07161e-08 -0.000999982)
(5.11765e-08 -8.97774e-08 -0.000999972)
(6.01652e-08 -1.14065e-07 -0.000999959)
(7.0158e-08 -1.45068e-07 -0.000999942)
(8.09966e-08 -1.84727e-07 -0.000999918)
(9.23293e-08 -2.35569e-07 -0.000999886)
(1.03509e-07 -3.00904e-07 -0.000999842)
(1.13449e-07 -3.8506e-07 -0.000999782)
(1.20437e-07 -4.93705e-07 -0.0009997)
(1.21975e-07 -6.34234e-07 -0.000999591)
(1.14613e-07 -8.16266e-07 -0.000999443)
(9.37225e-08 -1.05227e-06 -0.000999247)
(5.32146e-08 -1.35834e-06 -0.000998984)
(-1.60705e-08 -1.7559e-06 -0.00099863)
(-1.27575e-07 -2.27317e-06 -0.000998148)
(-3.01951e-07 -2.94799e-06 -0.000997494)
(-5.67566e-07 -3.8301e-06 -0.000996606)
(-9.63743e-07 -4.98518e-06 -0.000995406)
(-1.54496e-06 -6.50011e-06 -0.000993785)
(-2.38648e-06 -8.48993e-06 -0.000991597)
(-3.59212e-06 -1.11073e-05 -0.000988645)
(-5.30507e-06 -1.45559e-05 -0.000984614)
(-7.72904e-06 -1.9122e-05 -0.000978903)
(-1.10315e-05 -2.50011e-05 -0.000972462)
(-1.57017e-05 -3.29106e-05 -0.000979644)
(-2.29531e-05 -4.42719e-05 -0.00102264)
(-3.97177e-05 -6.74761e-05 -0.000477662)
(2.51316e-05 2.72734e-05 -0.001947)
(-9.40942e-06 -9.78267e-06 -0.00169121)
(-3.63442e-05 -6.49642e-05 -0.00155624)
(-2.7456e-05 -5.2125e-05 -0.00240355)
(-6.8903e-05 -4.76199e-05 -0.002167)
(-8.83861e-05 -6.12115e-05 -0.00242003)
(-5.25531e-05 -1.56456e-05 -0.00184769)
(-6.39364e-05 4.81941e-05 -0.00258886)
(-2.24809e-05 8.27166e-05 -0.00179836)
(1.30595e-05 0.000107307 -0.0023034)
(-4.89433e-05 3.75347e-06 -0.00245177)
(-1.58069e-06 1.04477e-05 -0.0013639)
(1.31337e-05 -4.26067e-06 -0.00190592)
(7.55974e-05 -2.61017e-06 -0.00173869)
(4.85462e-05 -8.34719e-06 -0.00108984)
(5.83694e-05 3.10865e-05 -0.000900496)
(4.4457e-05 2.62131e-05 -0.000935035)
(3.35728e-05 1.93884e-05 -0.000956415)
(2.5434e-05 1.42609e-05 -0.000967658)
(1.93042e-05 1.05049e-05 -0.000975583)
(1.46792e-05 7.75155e-06 -0.000981559)
(1.11843e-05 5.73109e-06 -0.000986051)
(8.5388e-06 4.24682e-06 -0.000989423)
(6.53248e-06 3.15473e-06 -0.000991957)
(5.00792e-06 2.34959e-06 -0.000993866)
(3.84713e-06 1.75463e-06 -0.000995308)
(2.96154e-06 1.31396e-06 -0.0009964)
(2.2846e-06 9.8698e-07 -0.000997229)
(1.76613e-06 7.43327e-07 -0.000997862)
(1.36825e-06 5.61407e-07 -0.000998345)
(1.0623e-06 4.25174e-07 -0.000998716)
(8.26542e-07 3.22955e-07 -0.000999001)
(6.4449e-07 2.46046e-07 -0.00099922)
(5.03602e-07 1.88002e-07 -0.00099939)
(3.94332e-07 1.44082e-07 -0.000999522)
(3.09406e-07 1.1077e-07 -0.000999623)
(2.4327e-07 8.54472e-08 -0.000999703)
(1.91674e-07 6.61597e-08 -0.000999764)
(1.51362e-07 5.14476e-08 -0.000999813)
(1.19828e-07 4.02134e-08 -0.000999851)
(9.51424e-08 3.16284e-08 -0.000999881)
(7.58112e-08 2.5063e-08 -0.000999905)
(6.06811e-08 2.00374e-08 -0.000999925)
(4.88527e-08 1.61858e-08 -0.000999941)
(3.96321e-08 1.32311e-08 -0.000999954)
(3.24929e-08 1.09652e-08 -0.000999964)
(2.70303e-08 9.23274e-09 -0.000999973)
(2.2936e-08 7.91983e-09 -0.00099998)
(1.99789e-08 6.93702e-09 -0.000999986)
(1.79161e-08 6.18857e-09 -0.000999991)
(1.6784e-08 5.83919e-09 -0.000999996)
)
;

boundaryField
{
    inlet
    {
        type            calculated;
        value           uniform (1.6784e-08 5.83919e-09 -0.000999996);
    }
    outlet
    {
        type            calculated;
        value           uniform (1.09255e-09 -1.17027e-09 -0.000999998);
    }
    repeat_boundary
    {
        type            calculated;
        value           nonuniform List<vector> 
180
(
(1.09255e-09 0 -0.000999998)
(2.62815e-09 0 -0.000999998)
(4.34854e-09 0 -0.000999998)
(6.23954e-09 0 -0.000999999)
(8.36347e-09 0 -0.000999999)
(1.07886e-08 0 -0.000999999)
(1.35906e-08 0 -0.000999999)
(1.68505e-08 0 -0.000999999)
(2.06546e-08 0 -0.000999998)
(2.5096e-08 0 -0.000999996)
(3.02732e-08 0 -0.000999993)
(3.62861e-08 0 -0.000999988)
(4.32287e-08 0 -0.000999982)
(5.11765e-08 0 -0.000999972)
(6.01652e-08 0 -0.000999959)
(7.0158e-08 0 -0.000999942)
(8.09966e-08 0 -0.000999918)
(9.23293e-08 0 -0.000999886)
(1.03509e-07 0 -0.000999842)
(1.13449e-07 0 -0.000999782)
(1.20437e-07 0 -0.0009997)
(1.21975e-07 0 -0.000999591)
(1.14613e-07 0 -0.000999443)
(9.37225e-08 0 -0.000999247)
(5.32146e-08 0 -0.000998984)
(-1.60705e-08 0 -0.00099863)
(-1.27575e-07 0 -0.000998148)
(-3.01951e-07 0 -0.000997494)
(-5.67566e-07 0 -0.000996606)
(-9.63743e-07 0 -0.000995406)
(-1.54496e-06 0 -0.000993785)
(-2.38648e-06 0 -0.000991597)
(-3.59212e-06 0 -0.000988645)
(-5.30507e-06 0 -0.000984614)
(-7.72904e-06 0 -0.000978903)
(-1.10315e-05 0 -0.000972462)
(-1.57017e-05 0 -0.000979644)
(-2.29531e-05 0 -0.00102264)
(-3.97177e-05 0 -0.000477662)
(2.51316e-05 0 -0.001947)
(-9.40942e-06 0 -0.00169121)
(-3.63442e-05 0 -0.00155624)
(-2.7456e-05 0 -0.00240355)
(-6.8903e-05 0 -0.002167)
(-8.83861e-05 0 -0.00242003)
(-5.25531e-05 0 -0.00184769)
(-6.39364e-05 0 -0.00258886)
(-2.24809e-05 0 -0.00179836)
(1.30595e-05 0 -0.0023034)
(-4.89433e-05 0 -0.00245177)
(-1.58069e-06 0 -0.0013639)
(1.31337e-05 0 -0.00190592)
(7.55974e-05 0 -0.00173869)
(4.85462e-05 0 -0.00108984)
(5.83694e-05 0 -0.000900496)
(4.4457e-05 0 -0.000935035)
(3.35728e-05 0 -0.000956415)
(2.5434e-05 0 -0.000967658)
(1.93042e-05 0 -0.000975583)
(1.46792e-05 0 -0.000981559)
(1.11843e-05 0 -0.000986051)
(8.5388e-06 0 -0.000989423)
(6.53248e-06 0 -0.000991957)
(5.00792e-06 0 -0.000993866)
(3.84713e-06 0 -0.000995308)
(2.96154e-06 0 -0.0009964)
(2.2846e-06 0 -0.000997229)
(1.76613e-06 0 -0.000997862)
(1.36825e-06 0 -0.000998345)
(1.0623e-06 0 -0.000998716)
(8.26542e-07 0 -0.000999001)
(6.4449e-07 0 -0.00099922)
(5.03602e-07 0 -0.00099939)
(3.94332e-07 0 -0.000999522)
(3.09406e-07 0 -0.000999623)
(2.4327e-07 0 -0.000999703)
(1.91674e-07 0 -0.000999764)
(1.51362e-07 0 -0.000999813)
(1.19828e-07 0 -0.000999851)
(9.51424e-08 0 -0.000999881)
(7.58112e-08 0 -0.000999905)
(6.06811e-08 0 -0.000999925)
(4.88527e-08 0 -0.000999941)
(3.96321e-08 0 -0.000999954)
(3.24929e-08 0 -0.000999964)
(2.70303e-08 0 -0.000999973)
(2.2936e-08 0 -0.00099998)
(1.99789e-08 0 -0.000999986)
(1.79161e-08 0 -0.000999991)
(1.6784e-08 0 -0.000999996)
(0 -1.17027e-09 -0.000999998)
(0 -2.9465e-09 -0.000999998)
(0 -4.94523e-09 -0.000999998)
(0 -7.18884e-09 -0.000999999)
(0 -9.7942e-09 -0.000999999)
(0 -1.29037e-08 -0.000999999)
(0 -1.6691e-08 -0.000999999)
(0 -2.13817e-08 -0.000999999)
(0 -2.72416e-08 -0.000999998)
(0 -3.46135e-08 -0.000999996)
(0 -4.3928e-08 -0.000999993)
(0 -5.57303e-08 -0.000999988)
(0 -7.07161e-08 -0.000999982)
(0 -8.97774e-08 -0.000999972)
(0 -1.14065e-07 -0.000999959)
(0 -1.45068e-07 -0.000999942)
(0 -1.84727e-07 -0.000999918)
(0 -2.35569e-07 -0.000999886)
(0 -3.00904e-07 -0.000999842)
(0 -3.8506e-07 -0.000999782)
(0 -4.93705e-07 -0.0009997)
(0 -6.34234e-07 -0.000999591)
(0 -8.16266e-07 -0.000999443)
(0 -1.05227e-06 -0.000999247)
(0 -1.35834e-06 -0.000998984)
(0 -1.7559e-06 -0.00099863)
(0 -2.27317e-06 -0.000998148)
(0 -2.94799e-06 -0.000997494)
(0 -3.8301e-06 -0.000996606)
(0 -4.98518e-06 -0.000995406)
(0 -6.50011e-06 -0.000993785)
(0 -8.48993e-06 -0.000991597)
(0 -1.11073e-05 -0.000988645)
(0 -1.45559e-05 -0.000984614)
(0 -1.9122e-05 -0.000978903)
(0 -2.50011e-05 -0.000972462)
(0 -3.29106e-05 -0.000979644)
(0 -4.42719e-05 -0.00102264)
(0 -6.74761e-05 -0.000477662)
(0 2.72734e-05 -0.001947)
(0 -9.78267e-06 -0.00169121)
(0 -6.49642e-05 -0.00155624)
(0 -5.2125e-05 -0.00240355)
(0 -4.76199e-05 -0.002167)
(0 -6.12115e-05 -0.00242003)
(0 -1.56456e-05 -0.00184769)
(0 4.81941e-05 -0.00258886)
(0 8.27166e-05 -0.00179836)
(0 0.000107307 -0.0023034)
(0 3.75347e-06 -0.00245177)
(0 1.04477e-05 -0.0013639)
(0 -4.26067e-06 -0.00190592)
(0 -2.61017e-06 -0.00173869)
(0 -8.34719e-06 -0.00108984)
(0 3.10865e-05 -0.000900496)
(0 2.62131e-05 -0.000935035)
(0 1.93884e-05 -0.000956415)
(0 1.42609e-05 -0.000967658)
(0 1.05049e-05 -0.000975583)
(0 7.75155e-06 -0.000981559)
(0 5.73109e-06 -0.000986051)
(0 4.24682e-06 -0.000989423)
(0 3.15473e-06 -0.000991957)
(0 2.34959e-06 -0.000993866)
(0 1.75463e-06 -0.000995308)
(0 1.31396e-06 -0.0009964)
(0 9.8698e-07 -0.000997229)
(0 7.43327e-07 -0.000997862)
(0 5.61407e-07 -0.000998345)
(0 4.25174e-07 -0.000998716)
(0 3.22955e-07 -0.000999001)
(0 2.46046e-07 -0.00099922)
(0 1.88002e-07 -0.00099939)
(0 1.44082e-07 -0.000999522)
(0 1.1077e-07 -0.000999623)
(0 8.54472e-08 -0.000999703)
(0 6.61597e-08 -0.000999764)
(0 5.14476e-08 -0.000999813)
(0 4.02134e-08 -0.000999851)
(0 3.16284e-08 -0.000999881)
(0 2.5063e-08 -0.000999905)
(0 2.00374e-08 -0.000999925)
(0 1.61858e-08 -0.000999941)
(0 1.32311e-08 -0.000999954)
(0 1.09652e-08 -0.000999964)
(0 9.23274e-09 -0.000999973)
(0 7.91983e-09 -0.00099998)
(0 6.93702e-09 -0.000999986)
(0 6.18857e-09 -0.000999991)
(0 5.83919e-09 -0.000999996)
)
;
    }
    procBoundary0to1
    {
        type            processor;
        value           nonuniform List<vector> 
90
(
(1.09254e-09 -9.90714e-10 -0.000999982)
(2.62814e-09 -2.38987e-09 -0.000999981)
(4.34853e-09 -3.95609e-09 -0.00099998)
(6.23945e-09 -5.67774e-09 -0.000999978)
(8.36314e-09 -7.61111e-09 -0.000999976)
(1.07887e-08 -9.8188e-09 -0.000999973)
(1.35909e-08 -1.23685e-08 -0.000999969)
(1.68505e-08 -1.53336e-08 -0.000999964)
(2.06545e-08 -1.87931e-08 -0.000999957)
(2.5096e-08 -2.2831e-08 -0.000999948)
(3.02732e-08 -2.75362e-08 -0.000999937)
(3.6286e-08 -3.29986e-08 -0.000999923)
(4.32286e-08 -3.93026e-08 -0.000999906)
(5.11764e-08 -4.65146e-08 -0.000999887)
(6.0165e-08 -5.46634e-08 -0.000999863)
(7.01577e-08 -6.37093e-08 -0.000999836)
(8.09961e-08 -7.34983e-08 -0.000999806)
(9.23284e-08 -8.36941e-08 -0.000999772)
(1.03508e-07 -9.36795e-08 -0.000999734)
(1.13447e-07 -1.02408e-07 -0.000999695)
(1.20434e-07 -1.08202e-07 -0.000999656)
(1.21969e-07 -1.08597e-07 -0.000999618)
(1.14602e-07 -1.00182e-07 -0.000999583)
(9.37022e-08 -7.83097e-08 -0.000999552)
(5.31774e-08 -3.6705e-08 -0.000999532)
(-1.614e-08 3.35532e-08 -0.000999534)
(-1.27704e-07 1.4584e-07 -0.000999581)
(-3.02192e-07 3.20262e-07 -0.0009997)
(-5.68018e-07 5.84596e-07 -0.000999928)
(-9.64593e-07 9.77429e-07 -0.00100032)
(-1.54657e-06 1.55232e-06 -0.00100094)
(-2.38952e-06 2.38342e-06 -0.00100189)
(-3.59795e-06 3.57322e-06 -0.00100333)
(-5.31678e-06 5.26366e-06 -0.00100538)
(-7.74606e-06 7.65e-06 -0.00100786)
(-1.11484e-05 1.10194e-05 -0.00101196)
(-1.58133e-05 1.57076e-05 -0.00104117)
(-2.29795e-05 2.2428e-05 -0.00115981)
(-3.91945e-05 3.37779e-05 -0.000400198)
(2.52562e-05 -5.03158e-06 -0.0025208)
(-4.74621e-06 4.31568e-06 -0.00121913)
(-6.5264e-05 2.44112e-05 -0.00294802)
(-2.54139e-05 2.64633e-05 -0.00193375)
(-8.70592e-05 3.33421e-05 -0.00316099)
(-8.51226e-05 -3.04155e-05 -0.00226984)
(-8.73231e-05 -7.05981e-06 -0.00322118)
(-5.75193e-05 5.80528e-05 -0.00198936)
(-2.28639e-05 0.000142019 -0.00327248)
(1.96003e-05 4.51409e-05 -0.00239791)
(-5.1847e-05 -9.19837e-06 -0.0025562)
(-1.71803e-05 -5.42323e-05 -0.00288)
(-1.77224e-07 -4.8481e-05 -0.00146049)
(3.48341e-05 3.48695e-05 -0.00242895)
(8.42487e-05 -3.43278e-05 -0.00109694)
(6.0937e-05 -4.51521e-05 -0.00106352)
(4.43773e-05 -3.43744e-05 -0.00106423)
(3.34781e-05 -2.54087e-05 -0.00105193)
(2.53798e-05 -1.87848e-05 -0.00103926)
(1.92737e-05 -1.38819e-05 -0.00102959)
(1.4662e-05 -1.02509e-05 -0.00102235)
(1.11745e-05 -7.56339e-06 -0.00101691)
(8.53325e-06 -5.57538e-06 -0.00101281)
(6.52931e-06 -4.10562e-06 -0.00100971)
(5.0061e-06 -3.01968e-06 -0.00100737)
(3.84608e-06 -2.21779e-06 -0.0010056)
(2.96094e-06 -1.62616e-06 -0.00100426)
(2.28424e-06 -1.19025e-06 -0.00100324)
(1.76592e-06 -8.69025e-07 -0.00100247)
(1.36812e-06 -6.32699e-07 -0.00100189)
(1.06222e-06 -4.59046e-07 -0.00100144)
(8.26499e-07 -3.31736e-07 -0.0010011)
(6.44464e-07 -2.38596e-07 -0.00100085)
(5.03586e-07 -1.70603e-07 -0.00100065)
(3.94323e-07 -1.21117e-07 -0.0010005)
(3.09401e-07 -8.52379e-08 -0.00100038)
(2.43267e-07 -5.93419e-08 -0.0010003)
(1.91672e-07 -4.07573e-08 -0.00100023)
(1.5136e-07 -2.75143e-08 -0.00100017)
(1.19827e-07 -1.81619e-08 -0.00100013)
(9.51419e-08 -1.16254e-08 -0.0010001)
(7.58109e-08 -7.11086e-09 -0.00100008)
(6.0681e-08 -4.0373e-09 -0.00100006)
(4.88526e-08 -1.96649e-09 -0.00100005)
(3.96318e-08 -5.84794e-10 -0.00100004)
(3.24931e-08 3.14769e-10 -0.00100003)
(2.70303e-08 8.77657e-10 -0.00100002)
(2.2936e-08 1.20841e-09 -0.00100002)
(1.99791e-08 1.34902e-09 -0.00100001)
(1.79158e-08 1.32436e-09 -0.00100001)
(1.6784e-08 1.36629e-09 -0.001)
)
;
    }
    procBoundary0to2
    {
        type            processor;
        value           nonuniform List<vector> 
90
(
(1.27252e-09 -1.17064e-09 -0.00100002)
(3.18565e-09 -2.94727e-09 -0.00100002)
(5.3363e-09 -4.94403e-09 -0.00100002)
(7.75024e-09 -7.18854e-09 -0.00100002)
(1.05453e-08 -9.79323e-09 -0.00100003)
(1.38727e-08 -1.29028e-08 -0.00100003)
(1.79154e-08 -1.6693e-08 -0.00100004)
(2.28988e-08 -2.13819e-08 -0.00100005)
(2.91031e-08 -2.72417e-08 -0.00100006)
(3.68786e-08 -3.46136e-08 -0.00100008)
(4.66651e-08 -4.39281e-08 -0.0010001)
(5.90179e-08 -5.57305e-08 -0.00100012)
(7.46424e-08 -7.07164e-08 -0.00100015)
(9.44397e-08 -8.97778e-08 -0.00100019)
(1.19567e-07 -1.14065e-07 -0.00100024)
(1.51518e-07 -1.45069e-07 -0.0010003)
(1.92227e-07 -1.84729e-07 -0.00100037)
(2.44207e-07 -2.35573e-07 -0.00100047)
(3.10738e-07 -3.00909e-07 -0.00100059)
(3.9611e-07 -3.8507e-07 -0.00100075)
(5.05954e-07 -4.93721e-07 -0.00100095)
(6.47635e-07 -6.3426e-07 -0.00100121)
(8.30733e-07 -8.1631e-07 -0.00100155)
(1.06774e-06 -1.05234e-06 -0.00100197)
(1.37495e-06 -1.35847e-06 -0.00100253)
(1.77355e-06 -1.75613e-06 -0.00100323)
(2.29171e-06 -2.27356e-06 -0.00100415)
(2.96675e-06 -2.94865e-06 -0.00100533)
(3.84788e-06 -3.83126e-06 -0.00100686)
(5.00013e-06 -4.98723e-06 -0.00100885)
(6.5096e-06 -6.50376e-06 -0.00101144)
(8.49046e-06 -8.49644e-06 -0.00101481)
(1.10945e-05 -1.11191e-05 -0.00101921)
(1.45249e-05 -1.45778e-05 -0.00102489)
(1.9053e-05 -1.91489e-05 -0.00103172)
(2.50592e-05 -2.51892e-05 -0.00104087)
(3.30697e-05 -3.31755e-05 -0.00107936)
(4.36824e-05 -4.42516e-05 -0.00122523)
(6.07794e-05 -6.62253e-05 -0.000390522)
(-7.62186e-06 2.69608e-05 -0.00272066)
(2.60362e-06 -6.99204e-06 -0.0013354)
(6.38869e-05 -0.00010592 -0.00293638)
(5.25761e-05 -5.29825e-05 -0.00234761)
(1.18656e-05 -6.82487e-05 -0.00316041)
(-5.8226e-05 -5.94063e-05 -0.00219997)
(-7.76861e-05 -3.05057e-05 -0.00319571)
(-5.24615e-05 5.6019e-05 -0.00228557)
(-6.72186e-05 0.00017183 -0.00330606)
(-4.24257e-05 6.64861e-05 -0.00189623)
(-9.16641e-05 -8.41675e-07 -0.0031125)
(-0.000103786 -1.55831e-06 -0.00239905)
(-4.52804e-06 0.000108367 -0.00183772)
(-4.19419e-05 3.93304e-05 -0.00212548)
(-4.16579e-05 3.05028e-05 -0.00139364)
(-2.61891e-05 3.3563e-05 -0.000981563)
(-1.67421e-05 2.63934e-05 -0.00101441)
(-1.12697e-05 1.93332e-05 -0.00101719)
(-7.62994e-06 1.42265e-05 -0.00101235)
(-5.0931e-06 1.0486e-05 -0.00100834)
(-3.32936e-06 7.74113e-06 -0.0010056)
(-2.11372e-06 5.72534e-06 -0.00100371)
(-1.28546e-06 4.24363e-06 -0.00100241)
(-7.2907e-07 3.15296e-06 -0.00100153)
(-3.62047e-07 2.3486e-06 -0.00100093)
(-1.25704e-07 1.75407e-06 -0.00100053)
(2.11875e-08 1.31365e-06 -0.00100028)
(1.07225e-07 9.86797e-07 -0.00100011)
(1.53693e-07 7.43222e-07 -0.00100001)
(1.74093e-07 5.61346e-07 -0.000999953)
(1.78049e-07 4.25138e-07 -0.000999921)
(1.71835e-07 3.22933e-07 -0.000999906)
(1.59838e-07 2.46033e-07 -0.000999903)
(1.44991e-07 1.87994e-07 -0.000999906)
(1.2913e-07 1.44077e-07 -0.000999912)
(1.13396e-07 1.10768e-07 -0.00099992)
(9.84799e-08 8.54456e-08 -0.000999928)
(8.47567e-08 6.61587e-08 -0.000999937)
(7.23993e-08 5.1447e-08 -0.000999944)
(6.14526e-08 4.02131e-08 -0.000999951)
(5.18884e-08 3.16282e-08 -0.000999958)
(4.36373e-08 2.50628e-08 -0.000999964)
(3.66064e-08 2.00373e-08 -0.00099997)
(3.07003e-08 1.61855e-08 -0.000999975)
(2.58159e-08 1.32304e-08 -0.00099998)
(2.18428e-08 1.0966e-08 -0.000999984)
(1.86752e-08 9.23282e-09 -0.000999988)
(1.62247e-08 7.91992e-09 -0.000999991)
(1.43915e-08 6.93743e-09 -0.000999994)
(1.30513e-08 6.18805e-09 -0.000999997)
(1.2311e-08 5.8391e-09 -0.000999999)
)
;
    }
}


// ************************************************************************* //
