/*--------------------------------*- C++ -*----------------------------------*\
| =========                 |                                                 |
| \\      /  F ield         | OpenFOAM: The Open Source CFD Toolbox           |
|  \\    /   O peration     | Version:  5.x                                   |
|   \\  /    A nd           | Web:      www.OpenFOAM.org                      |
|    \\/     M anipulation  |                                                 |
\*---------------------------------------------------------------------------*/
FoamFile
{
    version     2.0;
    format      ascii;
    class       volVectorField;
    location    "200";
    object      U;
}
// * * * * * * * * * * * * * * * * * * * * * * * * * * * * * * * * * * * * * //

dimensions      [0 1 -1 0 0 0 0];

internalField   nonuniform List<vector> 
90
(
(1.35047e-09 -9.82252e-10 -0.001)
(3.31652e-09 -2.36059e-09 -0.001)
(5.40915e-09 -4.03542e-09 -0.001)
(7.55994e-09 -6.07306e-09 -0.001)
(9.80145e-09 -8.62055e-09 -0.000999999)
(1.21844e-08 -1.18387e-08 -0.000999998)
(1.47796e-08 -1.59062e-08 -0.000999996)
(1.76766e-08 -2.10399e-08 -0.000999995)
(2.09808e-08 -2.74854e-08 -0.000999992)
(2.48128e-08 -3.55566e-08 -0.000999989)
(2.93014e-08 -4.56507e-08 -0.000999985)
(3.45741e-08 -5.82811e-08 -0.000999979)
(4.07435e-08 -7.41184e-08 -0.000999972)
(4.78868e-08 -9.40429e-08 -0.000999962)
(5.60182e-08 -1.19212e-07 -0.000999948)
(6.50492e-08 -1.51146e-07 -0.000999929)
(7.47329e-08 -1.91844e-07 -0.000999904)
(8.45845e-08 -2.43922e-07 -0.000999869)
(9.37783e-08 -3.1081e-07 -0.000999821)
(1.01003e-07 -3.96987e-07 -0.000999755)
(1.04279e-07 -5.08292e-07 -0.000999667)
(1.00802e-07 -6.52319e-07 -0.000999547)
(8.6714e-08 -8.38937e-07 -0.000999386)
(5.67199e-08 -1.08098e-06 -0.000999171)
(3.65369e-09 -1.39514e-06 -0.000998884)
(-8.27983e-08 -1.80343e-06 -0.000998497)
(-2.17541e-07 -2.33481e-06 -0.000997974)
(-4.22828e-07 -3.02795e-06 -0.000997265)
(-7.29329e-07 -3.93378e-06 -0.000996308)
(-1.17944e-06 -5.11952e-06 -0.000995017)
(-1.83169e-06 -6.67402e-06 -0.000993276)
(-2.76662e-06 -8.71488e-06 -0.000990933)
(-4.095e-06 -1.13981e-05 -0.000987778)
(-5.96949e-06 -1.49321e-05 -0.00098348)
(-8.61363e-06 -1.96228e-05 -0.000977345)
(-1.21686e-05 -2.56029e-05 -0.00097038)
(-1.71956e-05 -3.36876e-05 -0.000978007)
(-2.47466e-05 -4.49933e-05 -0.00102605)
(-4.2379e-05 -6.86426e-05 -0.000468513)
(2.5237e-05 3.01747e-05 -0.0019428)
(-7.58705e-06 -8.17168e-06 -0.00168408)
(-3.04193e-05 -5.94038e-05 -0.00155001)
(-2.04667e-05 -4.57241e-05 -0.00239316)
(-5.61633e-05 -4.27206e-05 -0.00216138)
(-7.47974e-05 -5.4756e-05 -0.00241625)
(-3.16563e-05 -6.28735e-06 -0.00184388)
(-4.57725e-05 5.79188e-05 -0.00259255)
(2.92725e-06 9.54553e-05 -0.00180212)
(4.14594e-05 0.00012423 -0.00231775)
(-1.95943e-05 2.29617e-05 -0.00246424)
(2.93499e-05 3.87995e-05 -0.00139935)
(1.26851e-05 -3.89264e-06 -0.0019207)
(6.86954e-05 -6.19809e-06 -0.00176045)
(4.26809e-05 -1.07849e-05 -0.00109783)
(5.62135e-05 2.8719e-05 -0.0009069)
(4.30933e-05 2.46646e-05 -0.000939759)
(3.26401e-05 1.82257e-05 -0.000960055)
(2.48005e-05 1.33726e-05 -0.000970348)
(1.88771e-05 9.82194e-06 -0.000977557)
(1.4394e-05 7.22337e-06 -0.000983012)
(1.09961e-05 5.32012e-06 -0.000987123)
(8.4166e-06 3.92487e-06 -0.000990214)
(6.45485e-06 2.90055e-06 -0.000992543)
(4.96018e-06 2.14718e-06 -0.000994301)
(3.81922e-06 1.59226e-06 -0.000995631)
(2.94656e-06 1.18382e-06 -0.000996641)
(2.27782e-06 8.82694e-07 -0.000997409)
(1.76435e-06 6.59864e-07 -0.000997996)
(1.36936e-06 4.94556e-07 -0.000998445)
(1.06491e-06 3.71595e-07 -0.00099879)
(8.29801e-07 2.79962e-07 -0.000999056)
(6.47904e-07 2.1153e-07 -0.000999261)
(5.06926e-07 1.6032e-07 -0.000999421)
(3.97479e-07 1.21947e-07 -0.000999545)
(3.12381e-07 9.31678e-08 -0.000999642)
(2.46114e-07 7.15655e-08 -0.000999718)
(1.94433e-07 5.53323e-08 -0.000999778)
(1.54056e-07 4.31081e-08 -0.000999826)
(1.22446e-07 3.38653e-08 -0.000999864)
(9.76345e-08 2.68257e-08 -0.000999894)
(7.81007e-08 2.14026e-08 -0.000999919)
(6.26733e-08 1.71584e-08 -0.000999938)
(5.04557e-08 1.37741e-08 -0.000999954)
(4.07707e-08 1.10271e-08 -0.000999966)
(3.31137e-08 8.77114e-09 -0.000999975)
(2.71163e-08 6.9177e-09 -0.000999983)
(2.25203e-08 5.41794e-09 -0.000999988)
(1.91315e-08 4.24036e-09 -0.000999992)
(1.6745e-08 3.33762e-09 -0.000999995)
(1.5487e-08 2.96595e-09 -0.000999997)
)
;

boundaryField
{
    inlet
    {
        type            zeroGradient;
    }
    outlet
    {
        type            zeroGradient;
    }
    repeat_boundary
    {
        type            slip;
    }
    procBoundary0to1
    {
        type            processor;
        value           nonuniform List<vector> 
90
(
(1.35047e-09 -1.26565e-09 -0.000999981)
(3.31651e-09 -3.13378e-09 -0.000999981)
(5.40914e-09 -5.11479e-09 -0.00099998)
(7.55985e-09 -7.14627e-09 -0.000999978)
(9.80113e-09 -9.25861e-09 -0.000999976)
(1.21845e-08 -1.15013e-08 -0.000999973)
(1.47799e-08 -1.39431e-08 -0.000999969)
(1.76766e-08 -1.66727e-08 -0.000999963)
(2.09807e-08 -1.97974e-08 -0.000999956)
(2.48127e-08 -2.34405e-08 -0.000999947)
(2.93013e-08 -2.77367e-08 -0.000999936)
(3.45741e-08 -3.28238e-08 -0.000999922)
(4.07434e-08 -3.88306e-08 -0.000999905)
(4.78867e-08 -4.58599e-08 -0.000999885)
(5.60179e-08 -5.39641e-08 -0.000999861)
(6.50488e-08 -6.31114e-08 -0.000999835)
(7.47323e-08 -7.31378e-08 -0.000999805)
(8.45835e-08 -8.36777e-08 -0.000999772)
(9.37768e-08 -9.40698e-08 -0.000999737)
(1.01e-07 -1.03212e-07 -0.000999701)
(1.04275e-07 -1.09367e-07 -0.000999666)
(1.00795e-07 -1.10036e-07 -0.000999633)
(8.67014e-08 -1.01773e-07 -0.000999605)
(5.6697e-08 -7.98214e-08 -0.000999585)
(3.61141e-09 -3.76773e-08 -0.000999581)
(-8.2877e-08 3.3811e-08 -0.000999604)
(-2.17687e-07 1.48342e-07 -0.000999678)
(-4.231e-07 3.26195e-07 -0.000999833)
(-7.29838e-07 5.95475e-07 -0.00100011)
(-1.1804e-06 9.95225e-07 -0.00100055)
(-1.83349e-06 1.57959e-06 -0.00100125)
(-2.77003e-06 2.42348e-06 -0.00100232)
(-4.10152e-06 3.63038e-06 -0.0010039)
(-5.98226e-06 5.3435e-06 -0.00100612)
(-8.62348e-06 7.75858e-06 -0.00100875)
(-1.22995e-05 1.11641e-05 -0.00101287)
(-1.73153e-05 1.59053e-05 -0.00104328)
(-2.47839e-05 2.25863e-05 -0.0011713)
(-4.17991e-05 3.40625e-05 -0.000394246)
(2.52443e-05 -7.06127e-06 -0.00253088)
(-3.50571e-06 4.9952e-06 -0.00122016)
(-6.20331e-05 2.63513e-05 -0.00295887)
(-1.66265e-05 2.96728e-05 -0.00193703)
(-7.74879e-05 3.84207e-05 -0.00317171)
(-6.91831e-05 -2.32987e-05 -0.0022727)
(-7.26672e-05 1.0749e-06 -0.00323084)
(-3.40219e-05 6.76973e-05 -0.00199108)
(-5.60769e-06 0.000147321 -0.00327837)
(4.44606e-05 5.24327e-05 -0.00239799)
(-2.41953e-05 -1.68424e-06 -0.0025592)
(8.55349e-06 -4.42372e-05 -0.00287466)
(4.43481e-05 -6.22905e-05 -0.00145399)
(3.72597e-05 2.15135e-05 -0.00243201)
(8.08157e-05 -3.76698e-05 -0.00109057)
(5.90286e-05 -4.79499e-05 -0.00106168)
(4.30063e-05 -3.66879e-05 -0.00106389)
(3.25346e-05 -2.72589e-05 -0.00105196)
(2.47399e-05 -2.02559e-05 -0.00103944)
(1.8843e-05 -1.50469e-05 -0.00102983)
(1.43747e-05 -1.11701e-05 -0.00102262)
(1.09852e-05 -8.28629e-06 -0.00101718)
(8.41039e-06 -6.14225e-06 -0.00101306)
(6.45131e-06 -4.54884e-06 -0.00100993)
(4.95815e-06 -3.36511e-06 -0.00100756)
(3.81805e-06 -2.48636e-06 -0.00100576)
(2.94588e-06 -1.83545e-06 -0.0010044)
(2.27742e-06 -1.35369e-06 -0.00100336)
(1.76412e-06 -9.96979e-07 -0.00100257)
(1.36922e-06 -7.33002e-07 -0.00100197)
(1.06483e-06 -5.37772e-07 -0.00100151)
(8.29753e-07 -3.93571e-07 -0.00100116)
(6.47876e-07 -2.87219e-07 -0.00100089)
(5.06909e-07 -2.0892e-07 -0.00100068)
(3.97469e-07 -1.51425e-07 -0.00100052)
(3.12375e-07 -1.0935e-07 -0.0010004)
(2.46111e-07 -7.86797e-08 -0.00100031)
(1.94431e-07 -5.6419e-08 -0.00100024)
(1.54055e-07 -4.03295e-08 -0.00100019)
(1.22445e-07 -2.87385e-08 -0.00100015)
(9.7634e-08 -2.03951e-08 -0.00100012)
(7.81004e-08 -1.43706e-08 -0.00100009)
(6.26731e-08 -9.98469e-09 -0.00100008)
(5.04555e-08 -6.74467e-09 -0.00100006)
(4.07703e-08 -4.30822e-09 -0.00100005)
(3.31139e-08 -2.44429e-09 -0.00100004)
(2.71163e-08 -1.01018e-09 -0.00100004)
(2.25203e-08 6.61285e-11 -0.00100003)
(1.91317e-08 8.09714e-10 -0.00100002)
(1.67447e-08 1.21493e-09 -0.00100001)
(1.5487e-08 1.4686e-09 -0.001)
)
;
    }
    procBoundary0to2
    {
        type            processor;
        value           nonuniform List<vector> 
90
(
(1.06751e-09 -9.82627e-10 -0.00100002)
(2.54416e-09 -2.36132e-09 -0.00100002)
(4.32843e-09 -4.03424e-09 -0.00100002)
(6.4863e-09 -6.07274e-09 -0.00100002)
(9.16212e-09 -8.61959e-09 -0.00100003)
(1.25209e-08 -1.18378e-08 -0.00100003)
(1.6745e-08 -1.59082e-08 -0.00100004)
(2.2044e-08 -2.10401e-08 -0.00100005)
(2.86688e-08 -2.74854e-08 -0.00100007)
(3.69288e-08 -3.55566e-08 -0.00100008)
(4.72154e-08 -4.56508e-08 -0.0010001)
(6.00315e-08 -5.82813e-08 -0.00100012)
(7.60315e-08 -7.41187e-08 -0.00100015)
(9.60702e-08 -9.40434e-08 -0.00100019)
(1.21267e-07 -1.19213e-07 -0.00100024)
(1.53085e-07 -1.51148e-07 -0.0010003)
(1.93441e-07 -1.91846e-07 -0.00100037)
(2.44832e-07 -2.43926e-07 -0.00100047)
(3.10524e-07 -3.10817e-07 -0.00100059)
(3.94787e-07 -3.96998e-07 -0.00100075)
(5.03219e-07 -5.08309e-07 -0.00100095)
(6.4311e-07 -6.52348e-07 -0.00100121)
(8.23918e-07 -8.38986e-07 -0.00100154)
(1.05795e-06 -1.08107e-06 -0.00100197)
(1.36123e-06 -1.39528e-06 -0.00100252)
(1.75463e-06 -1.80368e-06 -0.00100323)
(2.26591e-06 -2.33523e-06 -0.00100414)
(2.93181e-06 -3.02869e-06 -0.00100532)
(3.80075e-06 -3.93507e-06 -0.00100684)
(4.93667e-06 -5.1218e-06 -0.00100882)
(6.42424e-06 -6.67806e-06 -0.00101139)
(8.37564e-06 -8.72208e-06 -0.00101474)
(1.09401e-05 -1.1411e-05 -0.00101912)
(1.43172e-05 -1.49557e-05 -0.00102475)
(1.87727e-05 -1.96375e-05 -0.00103142)
(2.46787e-05 -2.58152e-05 -0.00104011)
(3.25519e-05 -3.39628e-05 -0.0010791)
(4.27661e-05 -4.49842e-05 -0.00123417)
(5.94946e-05 -6.72626e-05 -0.000380874)
(-1.24119e-05 2.96987e-05 -0.00272287)
(5.23652e-06 -5.28184e-06 -0.00132783)
(6.83372e-05 -0.000103254 -0.00292895)
(6.03436e-05 -4.72999e-05 -0.00233707)
(1.86187e-05 -6.22001e-05 -0.00315094)
(-4.40655e-05 -5.0746e-05 -0.00218825)
(-6.70062e-05 -2.26459e-05 -0.00318641)
(-3.39665e-05 6.61671e-05 -0.00227293)
(-5.41769e-05 0.000183386 -0.00329223)
(-1.2845e-05 8.59731e-05 -0.00188404)
(-6.80459e-05 2.80154e-05 -0.00312354)
(-9.3891e-05 -6.38977e-06 -0.0023329)
(4.26971e-05 9.85248e-05 -0.00185483)
(-2.6462e-05 4.21464e-05 -0.00212204)
(-4.17729e-05 2.86662e-05 -0.00138153)
(-2.90834e-05 3.14843e-05 -0.000980606)
(-1.89465e-05 2.48688e-05 -0.00101481)
(-1.29002e-05 1.81686e-05 -0.00101765)
(-8.85019e-06 1.33359e-05 -0.00101266)
(-6.00447e-06 9.80179e-06 -0.00100853)
(-4.00688e-06 7.21231e-06 -0.0010057)
(-2.6146e-06 5.31404e-06 -0.00100376)
(-1.65304e-06 3.92151e-06 -0.00100242)
(-9.95995e-07 2.89869e-06 -0.00100152)
(-5.52963e-07 2.14614e-06 -0.00100091)
(-2.59896e-07 1.59168e-06 -0.0010005)
(-7.29916e-08 1.18349e-06 -0.00100023)
(4.12692e-08 8.82505e-07 -0.00100006)
(1.07412e-07 6.59755e-07 -0.000999959)
(1.4174e-07 4.94492e-07 -0.000999904)
(1.55508e-07 3.71558e-07 -0.000999876)
(1.56248e-07 2.7994e-07 -0.000999867)
(1.49143e-07 2.11517e-07 -0.000999867)
(1.37679e-07 1.60312e-07 -0.000999875)
(1.24103e-07 1.21942e-07 -0.000999885)
(1.09861e-07 9.3165e-08 -0.000999897)
(9.58678e-08 7.15638e-08 -0.00099991)
(8.2681e-08 5.53313e-08 -0.000999923)
(7.06182e-08 4.31075e-08 -0.000999935)
(5.98418e-08 3.38649e-08 -0.000999947)
(5.04135e-08 2.68255e-08 -0.000999958)
(4.23274e-08 2.14025e-08 -0.000999968)
(3.55301e-08 1.71583e-08 -0.000999977)
(2.99367e-08 1.37739e-08 -0.000999985)
(2.54351e-08 1.10264e-08 -0.000999991)
(2.18986e-08 8.772e-09 -0.000999996)
(1.91885e-08 6.91778e-09 -0.001)
(1.71686e-08 5.41803e-09 -0.001)
(1.57014e-08 4.24075e-09 -0.001)
(1.46217e-08 3.33712e-09 -0.001)
(1.39896e-08 2.96585e-09 -0.001)
)
;
    }
}


// ************************************************************************* //
