/*--------------------------------*- C++ -*----------------------------------*\
| =========                 |                                                 |
| \\      /  F ield         | OpenFOAM: The Open Source CFD Toolbox           |
|  \\    /   O peration     | Version:  5.x                                   |
|   \\  /    A nd           | Web:      www.OpenFOAM.org                      |
|    \\/     M anipulation  |                                                 |
\*---------------------------------------------------------------------------*/
FoamFile
{
    version     2.0;
    format      ascii;
    class       surfaceScalarField;
    location    "3000";
    object      phi;
}
// * * * * * * * * * * * * * * * * * * * * * * * * * * * * * * * * * * * * * //

dimensions      [0 3 -1 0 0 0 0];

internalField   nonuniform List<scalar> 
179
(
-263.838
-263.678
-263.295
-262.687
-261.956
-261.096
-260.135
-259.098
-258.017
-256.919
-255.835
-254.792
-253.815
-252.925
-252.137
-251.463
-250.909
-250.473
-250.149
-249.923
-249.777
-249.688
-249.627
-249.563
-249.463
-249.295
-249.025
-248.624
-248.065
-247.326
-246.39
-245.246
-243.887
-242.312
-240.526
-238.532
-236.336
-233.94
-231.342
-228.528
-225.473
-222.132
-218.44
-214.305
-209.607
-204.189
-197.858
-190.378
-181.47
-170.805
-158
-142.617
-124.151
-102.028
-75.5927
-44.0989
-6.70138
37.5805
89.8807
151.517
224.029
309.222
409.22
526.533
664.123
825.493
1014.78
1236.9
1497.62
1803.79
2163.48
2586.2
3083.17
3667.55
4355.22
5165.02
6116.61
7232.72
8548.74
10197
10867.6
10858.4
11768.2
13062.3
14441.8
15920.6
16513
17383.9
18393.9
19444
18728.1
17286.5
15739.3
15050.1
14462.5
13764.1
12582.1
11915.5
10967.5
10163.5
9321.67
9298.41
9816.82
10012.6
9561.81
8859.89
8490.79
7375.18
6293.62
5362.97
4566.85
3886.14
3303.17
2803.54
2375.15
2007.7
1692.39
1421.74
1189.37
989.81
818.384
671.076
544.448
435.551
341.855
261.194
191.718
131.845
80.2256
35.7093
-2.68744
-35.806
-64.3653
-88.9821
-110.202
-128.492
-144.261
-157.875
-169.656
-179.889
-188.824
-196.678
-203.637
-209.862
-215.481
-220.602
-225.307
-229.653
-233.681
-237.414
-240.862
-244.025
-246.895
-249.461
-251.708
-253.626
-255.204
-256.442
-257.342
-257.916
-258.183
-258.169
-257.905
-257.433
-256.793
-256.031
-255.194
-254.326
-253.468
-252.658
-251.927
-251.297
-250.778
-250.38
-250.104
-249.942
-249.88
-249.894
-249.954
)
;

boundaryField
{
    inlet
    {
        type            calculated;
        value           uniform -249.994;
    }
    outlet
    {
        type            calculated;
        value           uniform 263.896;
    }
    repeat_boundary
    {
        type            calculated;
        value           uniform 0;
    }
    procBoundary2to0
    {
        type            processor;
        value           nonuniform List<scalar> 
180
(
-0.0408795
-0.117254
-0.195679
-0.270846
-0.341669
-0.406681
-0.464741
-0.514864
-0.556247
-0.58829
-0.610595
-0.622893
-0.62554
-0.618842
-0.603098
-0.579209
-0.548162
-0.511235
-0.469944
-0.425988
-0.381251
-0.337771
-0.297729
-0.263427
-0.237268
-0.221725
-0.219316
-0.232586
-0.264102
-0.316453
-0.392251
-0.494207
-0.625146
-0.788012
-0.986014
-1.2227
-1.50207
-1.82875
-2.20813
-2.64653
-3.15148
-3.73198
-4.39873
-5.16456
-6.04473
-7.05736
-8.22397
-9.56994
-11.1252
-12.9249
-15.0103
-17.4297
-20.2395
-23.506
-27.3066
-31.7255
-36.8581
-42.8308
-49.7824
-57.875
-67.2973
-78.2694
-91.0485
-105.935
-123.281
-143.497
-167.066
-194.553
-226.62
-264.042
-307.732
-358.762
-418.389
-488.091
-569.617
-665.031
-775.553
-903.343
-1060.68
-1340.25
-579.733
-11.2285
-440.992
-669.007
-554.401
-856.747
-477.524
-1165.75
-982.011
-851.314
152.392
618.047
700.592
81.0446
-468.264
-374.535
-159.132
-285.896
411.616
304.698
-373.311
-476.019
-77.0954
172.567
132.006
-363.681
719.084
1567.44
1502.6
1305.13
1129.37
977.326
845.912
732.314
634.091
549.141
475.654
412.068
357.037
309.397
268.152
232.437
201.501
174.702
151.484
131.365
113.929
98.818
85.7198
74.3656
64.5227
55.9894
48.591
42.1762
36.6141
31.7866
27.5937
23.9581
20.8055
18.0713
15.6997
13.6424
11.8576
10.309
8.96538
7.79944
6.78772
5.90982
5.14808
4.48716
3.91371
3.41615
2.98438
2.60961
2.28413
2.00124
1.75508
1.54053
1.35313
1.189
1.04479
0.916918
0.803397
0.702394
0.61209
0.530994
0.457908
0.391908
0.332321
0.278707
0.231155
0.187592
0.14521
0.109963
0.079614
0.0542019
0.0337837
0.0184061
0.00785498
0.00268236
)
;
    }
    procBoundary2to3
    {
        type            processor;
        value           nonuniform List<scalar> 
180
(
-0.0384183
-0.110603
-0.184468
-0.254867
-0.320636
-0.380215
-0.432362
-0.475985
-0.510163
-0.53416
-0.547431
-0.549545
-0.540648
-0.520833
-0.490196
-0.449392
-0.399335
-0.34093
-0.275578
-0.20386
-0.127411
-0.0479109
0.0331692
0.114361
0.194246
0.271479
0.344804
0.413081
0.475315
0.530694
0.57862
0.618728
0.650902
0.675274
0.692206
0.702266
0.706192
0.704845
0.699143
0.689992
0.678205
0.66441
0.648948
0.631764
0.612295
0.589341
0.560936
0.524209
0.475229
0.408834
0.318433
0.195788
0.0307422
-0.189096
-0.478754
-0.856377
-1.34384
-1.96747
-2.75903
-3.75682
-5.00715
-6.56606
-8.50148
-10.8959
-13.8484
-17.4785
-21.932
-27.3855
-34.0529
-42.193
-52.1161
-64.1958
-78.8791
-96.6915
-118.412
-144.942
-176.785
-214.222
-258.692
-309.795
-85.7927
20.0969
-471.49
-622.678
-827.573
-620.871
-111.885
294.555
-27.1832
-199.467
563.066
822.674
846.15
608.782
1055.09
1072.82
1341.43
952.359
536.579
499.225
1215.01
499.219
-441.421
-368.612
318.134
1067.09
-346.249
-448.075
-418.08
-374.025
-332.657
-295.253
-261.737
-231.77
-205.026
-181.199
-160.006
-141.182
-124.484
-109.69
-96.5971
-85.0192
-74.794
-65.7682
-57.8073
-50.79
-44.6081
-39.1647
-34.3736
-30.158
-26.4498
-23.189
-20.3259
-17.8164
-15.6076
-13.6669
-11.9627
-10.4668
-9.15394
-8.00224
-6.99219
-6.10666
-5.33054
-4.65047
-4.05468
-3.53279
-3.0742
-2.67426
-2.32482
-2.01864
-1.75025
-1.51506
-1.30906
-1.12875
-0.97112
-0.833558
-0.713824
-0.609984
-0.520368
-0.443462
-0.378024
-0.323336
-0.277963
-0.24098
-0.211515
-0.188721
-0.171758
-0.159794
-0.151977
-0.147588
-0.146862
-0.1497
-0.156527
-0.163285
-0.16902
-0.174556
-0.179452
-0.183362
-0.186183
-0.190299
)
;
    }
}


// ************************************************************************* //
