FoamFile
{version 2.0; format ascii;class Cloud<passiveParticle>; location 0;object  positions;}
348
(
( 4122.43 4330.7 499.577 ) 0 
( 1694.74 2198.73 499.561 ) 0 
( 5.14689 1963.33 498.389 ) 0 
( 2488.78 1591.31 498.707 ) 0 
( 1042.42 4454.79 497.707 ) 0 
( 3476.89 1743.34 498.398 ) 0 
( 1555.74 3188.83 498.185 ) 0 
( 440.174 1063.57 499.087 ) 0 
( 4584.61 3423.27 497.317 ) 0 
( 3123.62 4368.91 499.384 ) 0 
( 3132.24 805.806 498.635 ) 0 
( 4034.73 2573.11 498.386 ) 0 
( 57.2704 4620.36 498.156 ) 0 
( 1497.21 1183.4 497.655 ) 0 
( 511.916 67.0005 499.075 ) 0 
( 689.256 2691.11 498.102 ) 0 
( 1460.33 3888.92 1204.95 ) 0 
( 1624.97 192.136 497.62 ) 0 
( 3586.04 3482.59 498.005 ) 0 
( 3075.39 3245.63 1321.81 ) 0 
( 259.794 3066.76 1317.79 ) 0 
( 4134.61 764.782 498.582 ) 0 
( 2580.5 3529.45 498.969 ) 0 
( 2953.8 2602.74 498.346 ) 0 
( 438.338 3658.5 498.844 ) 0 
( 4512.08 1690.8 497.441 ) 0 
( 4147.13 4922.93 1309.63 ) 0 
( 889.093 1827.84 960.788 ) 0 
( 2267.28 760.753 1008.41 ) 0 
( 4000.83 1421.6 1311.52 ) 0 
( 2481.77 2207.96 1284.67 ) 0 
( 2085.34 3123.04 1341.38 ) 0 
( 4627.44 443.147 1312.03 ) 0 
( 3004.21 1357.47 1321.83 ) 0 
( 4998.69 1370.69 1308.6 ) 0 
( 3622 497.362 1312.52 ) 0 
( 628.511 4883.15 1299.22 ) 0 
( 2042.32 4371.13 498.45 ) 0 
( 3521.22 1226.19 2165.84 ) 0 
( 1028.46 619.625 1174.26 ) 0 
( 2581.74 4123.41 1302.46 ) 0 
( 3146.19 4967.52 1299.77 ) 0 
( 187.142 4542.59 2127.55 ) 0 
( 441.654 2173.93 1785.02 ) 0 
( 1758.71 1529.09 1396.76 ) 0 
( 3476.35 2331.44 1304.61 ) 0 
( 1184.68 2693.16 1364.76 ) 0 
( 1808.04 4811.71 1362.9 ) 0 
( 2523.52 4796.48 2060.49 ) 0 
( 2646.36 2774.96 2089.69 ) 0 
( 3613.3 4083.18 1383.69 ) 0 
( 4531.19 2268.7 1310.7 ) 0 
( 4606.5 4000.22 1313.57 ) 0 
( 734.453 3746.41 1874.53 ) 0 
( 4600.51 4606.97 2139.58 ) 0 
( 3991.18 2195.41 2147.56 ) 0 
( 4513.62 1346.45 2181.01 ) 0 
( 4070.63 3155.32 1308.45 ) 0 
( 1956.71 3973.32 2067.89 ) 0 
( 3583.55 3108.11 2176.44 ) 0 
( 1052.93 1448.58 2098.67 ) 0 
( 2982.53 3906.52 2191.49 ) 0 
( 2440.73 1536.13 2127.81 ) 0 
( 1778.57 2281.47 2054.19 ) 0 
( 4122.19 427.526 2172.53 ) 0 
( 455.895 654.624 1990.39 ) 0 
( 3942.28 1631.63 2975.32 ) 0 
( 4930.23 999.065 3019.53 ) 0 
( 1831.26 726.986 1988.32 ) 0 
( 3578.91 4710.08 2160.49 ) 0 
( 3120.64 2077.67 2622.68 ) 0 
( 2259.77 3.18826 2570.2 ) 0 
( 1184 3845 2761.88 ) 0 
( 192.811 3729.34 2712.75 ) 0 
( 2757.18 399.885 1801.17 ) 0 
( 1881.69 4713.31 2820.3 ) 0 
( 1183.82 4606 2114.32 ) 0 
( 1595.55 1752.34 2881.46 ) 0 
( 1853.44 3124.96 2585.18 ) 0 
( 926.563 2870.55 2313.12 ) 0 
( 4579.61 3418.66 2126.39 ) 0 
( 3905.65 3916.1 2668.38 ) 0 
( 1234.11 2705.4 3249.31 ) 0 
( 2217.82 3843.13 3175.3 ) 0 
( 2960.01 4576.11 2932.64 ) 0 
( 3527.91 2978.27 3720.35 ) 0 
( 485.197 122.623 3243.56 ) 0 
( 4002.68 647.426 3136.88 ) 0 
( 3094.89 525.68 2736.46 ) 0 
( 650.363 1053.21 2922.85 ) 0 
( 641.684 2042.66 2792.16 ) 0 
( 2948.39 3205.01 2938.91 ) 0 
( 4125.6 2776.73 2946.15 ) 0 
( 2190.54 946.194 2895.16 ) 0 
( 1358.43 359.386 2806.83 ) 0 
( 578.13 4545.89 3137.19 ) 0 
( 88.3194 2814.92 3101.42 ) 0 
( 4781.49 21.1715 3155.69 ) 0 
( 4836.08 2075.58 2991.81 ) 0 
( 4504.42 1592.95 3800.3 ) 0 
( 3040.58 1349.28 3299.49 ) 0 
( 2335.88 2437.86 3125.82 ) 0 
( 3587.81 1988.28 3838.61 ) 0 
( 681.018 3482.62 3547.05 ) 0 
( 2565.59 3203.96 3860.36 ) 0 
( 458.731 1195.08 3892.33 ) 0 
( 2054.16 107.828 3541.63 ) 0 
( 3509.03 4929.48 3775.9 ) 0 
( 4365.82 3579.05 3488 ) 0 
( 2972.32 452.172 3729.89 ) 0 
( 1433.75 1024.74 3546.59 ) 0 
( 1419.57 4455.71 3666.9 ) 0 
( 3443.41 3958.62 3551.39 ) 0 
( 4430.76 4558.24 3669.09 ) 0 
( 1824.72 2536.52 4037.4 ) 0 
( 1615 3503.33 3894.44 ) 0 
( 2109.47 808.804 4250.63 ) 0 
( 2945.11 1346.78 4341.06 ) 0 
( 2196.98 1659.56 3735.62 ) 0 
( 532.555 4401.54 4124.57 ) 0 
( 2609.84 4455.7 3860.08 ) 0 
( 487.149 2187.19 3768.61 ) 0 
( 1237.5 1721 4233.83 ) 0 
( 1100.27 213.271 4024.25 ) 0 
( 4433.37 2586.25 3876.25 ) 0 
( 4756.06 636.966 3941.74 ) 0 
( 4060.61 3945.22 4366.72 ) 0 
( 1788.67 3192.98 4826.38 ) 0 
( 3810.16 929.433 4073.11 ) 0 
( 3555.4 2971.34 4719.08 ) 0 
( 3074.89 3811.63 4466.86 ) 0 
( 258.167 500.003 4582.13 ) 0 
( 934.079 2894.87 4314.99 ) 0 
( 450.475 1440.23 4859.97 ) 0 
( 2767.22 2328.43 4295.36 ) 0 
( 388.853 3621.11 4732.33 ) 0 
( 1900.21 4809.51 4466.83 ) 0 
( 2104.63 1719.87 4729.28 ) 0 
( 4758.12 1106.68 4823.54 ) 0 
( 1290.92 4044.99 4667.24 ) 0 
( 4109.09 1853.36 4680.74 ) 0 
( 3206.79 1937.61 5102.68 ) 0 
( 3616.26 1027.32 5046.56 ) 0 
( 2934.76 371.339 4723.19 ) 0 
( 696.871 434.807 5477.48 ) 0 
( 3267.97 4755.98 4731.68 ) 0 
( 4519.34 2747.48 4858.23 ) 0 
( 2663.89 2836 5149.74 ) 0 
( 4061.39 4368.55 5279.7 ) 0 
( 4206.35 280.399 4720.23 ) 0 
( 1359.96 2313.75 5027.29 ) 0 
( 1257.22 860.688 4767.92 ) 0 
( 2267.71 4051.75 5004 ) 0 
( 242.383 3678.32 5948.27 ) 0 
( 3557.37 121.612 5462.25 ) 0 
( 1944.45 430.903 5350.11 ) 0 
( 362.065 4435.8 5308.19 ) 0 
( 3851.12 2540.01 5570.85 ) 0 
( 1117.78 3514.17 5494.07 ) 0 
( 4985.57 1968.48 5275.39 ) 0 
( 2677.44 84.8039 5932.16 ) 0 
( 2659.15 1128.21 5312.67 ) 0 
( 3353.31 938.929 6006.85 ) 0 
( 500.727 2770.81 5244.23 ) 0 
( 4767.72 3680.21 5117.55 ) 0 
( 28.3159 1964.89 5596.29 ) 0 
( 4150.27 1591.57 5672.41 ) 0 
( 1799.17 2833.25 5757.47 ) 0 
( 3170.57 3896.86 5455.95 ) 0 
( 1543.85 4582.48 5469.18 ) 0 
( 4847.67 2923.73 5785.88 ) 0 
( 4401.89 625.668 5636.51 ) 0 
( 1809.36 170.586 6418.85 ) 0 
( 1599.94 2010.02 6287.52 ) 0 
( 2006.93 1123.83 6068.86 ) 0 
( 1175.15 1481.63 5546.62 ) 0 
( 4031.47 3501.1 5772.24 ) 0 
( 2441.96 4995.34 5283.29 ) 0 
( 3121.78 3066.01 6007.39 ) 0 
( 2371.65 2022.21 5651.79 ) 0 
( 4513.39 4831.61 6054.49 ) 0 
( 2318.45 3669.71 5925.46 ) 0 
( 1078.25 841.998 6306.58 ) 0 
( 886.319 2808.46 6164.89 ) 0 
( 3314 4841.42 5744.1 ) 0 
( 1061.01 4164.05 6249.5 ) 0 
( 4677.14 1319.27 6480.57 ) 0 
( 2691.75 612.444 6779.51 ) 0 
( 4899.17 3893.81 6084.82 ) 0 
( 4324.28 2249.83 6401.04 ) 0 
( 640.352 1738.99 6353.42 ) 0 
( 3321.73 4107.15 6420.87 ) 0 
( 149.502 770.847 6668.86 ) 0 
( 241.596 3351.25 6892.57 ) 0 
( 4807.14 328.093 6499.88 ) 0 
( 2233.76 4629.96 6188.5 ) 0 
( 3526.87 64.0028 6458.31 ) 0 
( 3521.45 2661.44 6827.95 ) 0 
( 858.198 124.195 6964.45 ) 0 
( 1604.12 3388 6564.29 ) 0 
( 2833.76 4834.34 6958.72 ) 0 
( 4035 743.93 6984.64 ) 0 
( 2681.87 3459.54 6832.27 ) 0 
( 1040.13 2809.89 7151.99 ) 0 
( 4250 4196.67 6779.81 ) 0 
( 4380.98 2285.29 7397.91 ) 0 
( 3259.98 1933.85 6100.5 ) 0 
( 2412.79 2558.4 6494.95 ) 0 
( 1818.05 1017.6 7044.31 ) 0 
( 3202.03 20.451 7401.34 ) 0 
( 4369.74 3211.29 6665.5 ) 0 
( 1324.37 4929.46 6833.34 ) 0 
( 3709.42 1688.59 6958.11 ) 0 
( 3595.74 3576.74 7221.5 ) 0 
( 2377.97 1490.15 7727.25 ) 0 
( 2569.59 1603.28 6742.66 ) 0 
( 1998.73 2988.67 7389.34 ) 0 
( 856.373 1241.01 7195.52 ) 0 
( 3641.77 4564.65 7480.07 ) 0 
( 256.505 4436.38 7537.07 ) 0 
( 1676.76 2047.94 7283.42 ) 0 
( 3231.67 1012.8 7518.68 ) 0 
( 1962.71 4188.83 7041.96 ) 0 
( 1024.75 3885.88 7208.74 ) 0 
( 3952.56 417.825 7925.59 ) 0 
( 393.172 3510.75 7886.34 ) 0 
( 768.337 2062.7 7756.41 ) 0 
( 1883.22 3806.1 7960.52 ) 0 
( 4935.64 545.071 8045.99 ) 0 
( 2429.33 496.364 7816.7 ) 0 
( 1189.92 4667.31 7809.7 ) 0 
( 1427.86 1356.51 8008.03 ) 0 
( 1439.67 397.035 7729.82 ) 0 
( 4432.27 3250.96 7661.48 ) 0 
( 2778.06 4079.19 7610.12 ) 0 
( 3593.23 2731.84 7821.8 ) 0 
( 2767.45 2351.88 7405.05 ) 0 
( 2133.63 4959.47 7659.77 ) 0 
( 4096.51 1401.82 7833.22 ) 0 
( 2128.15 2382.18 8172.71 ) 0 
( 2072.87 931.937 8641.65 ) 0 
( 3242.37 1834.99 8114.29 ) 0 
( 1299.01 2981.77 8101.68 ) 0 
( 3567.43 3855.35 8180.15 ) 0 
( 4364.53 4457.95 8161.81 ) 0 
( 110.298 4259.45 8509.48 ) 0 
( 1436.05 164.942 8707.44 ) 0 
( 2728.6 3180.62 8044.7 ) 0 
( 505.909 676.879 7950.14 ) 0 
( 4840.43 1430.31 8498.34 ) 0 
( 510.437 1488.95 8532.72 ) 0 
( 1069.45 3850.57 8537.89 ) 0 
( 3792.37 4404.68 8984.01 ) 0 
( 429.527 2664.88 8478.26 ) 0 
( 2056.8 3262.54 8780.19 ) 0 
( 4051.24 895.529 8798.01 ) 0 
( 3192.6 2620.72 8730.64 ) 0 
( 2441.52 4461.38 8469.83 ) 0 
( 4242.66 2223.26 8385.94 ) 0 
( 3062.68 930.305 8500.43 ) 0 
( 2561 1779.98 8842.29 ) 0 
( 3292 4965.64 8324.87 ) 0 
( 1197.11 1048.19 9109.01 ) 0 
( 4963.18 2233.66 9078.93 ) 0 
( 1272.17 2129.4 8622.77 ) 0 
( 4316.95 3386.44 8644.62 ) 0 
( 232.618 3443.54 9072.64 ) 0 
( 3467.95 214.728 9239.4 ) 0 
( 3976.41 3607.17 9558.02 ) 0 
( 3629.21 1770.77 9032.77 ) 0 
( 2470 193.355 9185.1 ) 0 
( 2915.17 4877.95 9246.03 ) 0 
( 1945.58 2418.44 9302.6 ) 0 
( 4969.42 3187.92 9374.04 ) 0 
( 1518.92 4714.7 8758.88 ) 0 
( 168.443 1347.97 9461.67 ) 0 
( 4833.34 4209.38 9009.15 ) 0 
( 1137.85 3019.24 9087.34 ) 0 
( 723.419 4346.66 9332.41 ) 0 
( 2990.89 3575.91 8946.48 ) 0 
( 4037.33 2653.51 9264.55 ) 0 
( 2195.73 4068.66 9355.15 ) 0 
( 547.494 442.179 9644.99 ) 0 
( 2292.09 1170.1 9586.79 ) 0 
( 1475.92 1699.75 9813.48 ) 0 
( 1534.91 4696.43 9798.84 ) 0 
( 4744.37 1194.31 9464.26 ) 0 
( 1340.18 2746.46 10027.2 ) 0 
( 3283.98 1092.35 9680.75 ) 0 
( 4830.07 103.598 9416.85 ) 0 
( 2954.56 2253.39 9629.19 ) 0 
( 694.292 2196.58 9438.47 ) 0 
( 4334.82 4527.91 9814.43 ) 0 
( 2520.41 387.353 10164.3 ) 0 
( 4572.82 2690.98 10145.2 ) 0 
( 2501.53 3145.49 9704.26 ) 0 
( 3126.75 4074.4 9802.01 ) 0 
( 3539.68 4796.13 10356.9 ) 0 
( 4116.09 1835.47 9902.62 ) 0 
( 375.078 2997.49 9955.29 ) 0 
( 804.884 103.077 10549.1 ) 0 
( 1359.63 3712.65 9771.35 ) 0 
( 1528.79 643.547 9960.52 ) 0 
( 4106.12 578.219 9924.01 ) 0 
( 4731.2 3681.28 10209.6 ) 0 
( 2179.1 2252.15 10260.1 ) 0 
( 442.165 4936.86 10099.9 ) 0 
( 2470.92 4787.21 10136.6 ) 0 
( 1884.75 3028.67 10816.6 ) 0 
( 634.478 1606.31 10343.8 ) 0 
( 1738.71 1295.25 10688.7 ) 0 
( 3596 2577.62 10323.3 ) 0 
( 2959.38 3295.64 10601.2 ) 0 
( 557.956 3904.5 10336 ) 0 
( 2175.33 3852.8 10331 ) 0 
( 3791.91 3841.58 10512.1 ) 0 
( 4671.33 1217.16 10460.6 ) 0 
( 2703.93 1425.37 10461.1 ) 0 
( 3680.07 1249.58 10584.9 ) 0 
( 2866.63 2373.31 10975.6 ) 0 
( 3422.7 35.4184 10411.1 ) 0 
( 367.637 2457 10795.9 ) 0 
( 2899.11 4249.4 10894.9 ) 0 
( 515.893 914.729 11055.8 ) 0 
( 4259.3 2062.42 10865.4 ) 0 
( 344.476 4578.17 11043 ) 0 
( 4135.97 3051.18 11018.4 ) 0 
( 1329.32 2191.24 10858.1 ) 0 
( 1375.57 4108.52 10873.1 ) 0 
( 4683.19 4519.52 10751.6 ) 0 
( 4190.03 10.7284 11051.5 ) 0 
( 2515.28 3416.09 11488.8 ) 0 
( 3840.71 4583.75 11286.1 ) 0 
( 2444.45 902.517 11277.3 ) 0 
( 1434.92 501.751 11215.2 ) 0 
( 3386.46 569.063 11255.7 ) 0 
( 3498.45 1747.63 11432.4 ) 0 
( 3051 1098.85 12047.5 ) 0 
( 3482.88 3666.28 11459.3 ) 0 
( 938.415 3231.09 11067.7 ) 0 
( 661.206 1802.39 11492.2 ) 0 
( 233.487 2887.88 11688.1 ) 0 
( 2899.94 111.657 11999.9 ) 0 
( 2107.64 1885.54 11406.2 ) 0 
( 4736.6 2483.24 11636.5 ) 0 
( 2114.28 4331.77 11508.5 ) 0 
( 4273.77 1031.2 11359 ) 0 
( 4774.87 9.69133 11862.4 ) 0 
)
