FoamFile
{version 2.0; format ascii;class vectorField; location 0;object  v;}
348
(
( 3.97326e-07 -7.5351e-07 -3.08583e-06 )  
( 1.15486e-07 1.15855e-07 -4.42097e-06 )  
( 1.97356e-06 -1.33151e-06 -6.43079e-06 )  
( -2.3935e-06 -2.0088e-06 -7.86414e-06 )  
( 2.19986e-06 -6.76705e-07 -8.51521e-06 )  
( -4.30413e-06 -1.38842e-06 -5.97255e-06 )  
( -1.42419e-06 1.1433e-06 -8.03279e-06 )  
( 5.27298e-06 3.82615e-07 -7.3298e-06 )  
( 5.01897e-07 -1.55796e-06 -7.77336e-06 )  
( 1.09648e-06 -7.41771e-07 -5.93872e-06 )  
( -1.65231e-06 -1.02143e-06 -7.75321e-06 )  
( -4.71493e-07 -7.64912e-07 -7.96035e-06 )  
( 3.45391e-06 1.07994e-06 -6.88658e-06 )  
( 3.93984e-06 -1.90174e-06 -7.97082e-06 )  
( 4.59043e-06 -1.96945e-06 -6.56286e-06 )  
( -9.51586e-07 3.35363e-07 -8.57454e-06 )  
( 3.84318e-07 5.61258e-07 -1.48772e-05 )  
( 9.33831e-07 -1.65296e-06 -8.12221e-06 )  
( 1.55464e-06 -6.93899e-07 -7.27118e-06 )  
( -1.16176e-06 -2.9964e-06 -1.69103e-05 )  
( 7.74852e-08 3.09719e-06 -1.47676e-05 )  
( -1.38111e-06 -1.40967e-06 -6.28892e-06 )  
( -2.70053e-06 -3.15683e-07 -5.40166e-06 )  
( -4.44925e-06 -2.72218e-06 -7.03601e-06 )  
( -2.64466e-07 8.68787e-07 -7.06099e-06 )  
( 1.21758e-07 -8.48048e-07 -8.85852e-06 )  
( 1.40162e-07 -4.27517e-06 -1.93065e-05 )  
( 9.2511e-07 1.52889e-06 -1.23614e-05 )  
( 3.61736e-08 -2.5002e-06 -1.22245e-05 )  
( -1.34446e-06 -1.55497e-06 -1.58909e-05 )  
( -4.13585e-06 -3.71367e-06 -1.54301e-05 )  
( -2.07399e-06 -1.31154e-06 -1.75893e-05 )  
( 1.83757e-06 -3.53243e-06 -1.28238e-05 )  
( -2.31176e-06 -2.97446e-06 -1.49242e-05 )  
( -1.81097e-06 -6.47962e-07 -1.4273e-05 )  
( -8.15138e-07 -1.383e-06 -1.44785e-05 )  
( 4.90882e-06 -2.21572e-06 -1.47409e-05 )  
( 1.18936e-06 2.75311e-07 -8.24398e-06 )  
( -2.2041e-06 -6.32521e-06 -2.69836e-05 )  
( 2.80995e-06 -3.09807e-06 -1.57406e-05 )  
( -3.55652e-06 -3.11801e-06 -1.11757e-05 )  
( 6.49946e-07 -1.53796e-06 -1.53645e-05 )  
( 2.41207e-06 1.37288e-06 -2.29244e-05 )  
( -2.5551e-06 4.60704e-07 -2.42336e-05 )  
( -3.53085e-07 -1.8379e-06 -1.74953e-05 )  
( -1.7731e-06 -1.39057e-06 -1.56862e-05 )  
( -2.16948e-06 1.41254e-06 -1.74001e-05 )  
( 1.9868e-06 -1.83666e-06 -1.5956e-05 )  
( 2.27143e-06 -5.40421e-06 -2.10735e-05 )  
( -3.31864e-06 -3.57807e-06 -2.64163e-05 )  
( 4.51975e-07 -5.40907e-06 -1.78771e-05 )  
( 1.76132e-07 -1.79648e-06 -1.43069e-05 )  
( -2.28228e-07 -5.2576e-06 -1.09576e-05 )  
( 9.42677e-08 7.02734e-07 -2.14296e-05 )  
( -4.18454e-06 -4.47398e-06 -2.71384e-05 )  
( -2.20521e-06 -1.65171e-06 -2.57751e-05 )  
( -3.92064e-06 -1.51582e-06 -2.28339e-05 )  
( 2.13095e-07 -3.79081e-06 -1.5026e-05 )  
( -3.1087e-06 -3.72587e-06 -2.03807e-05 )  
( -3.50148e-06 -4.82685e-06 -2.85377e-05 )  
( -3.50379e-06 1.9182e-08 -2.97605e-05 )  
( -9.11635e-07 -5.25782e-06 -2.2416e-05 )  
( -9.76028e-06 -5.10469e-06 -1.47484e-05 )  
( -4.61995e-06 2.4353e-07 -2.2351e-05 )  
( -1.15319e-06 -3.77317e-06 -2.6352e-05 )  
( -3.7142e-07 -8.02329e-07 -2.7648e-05 )  
( -3.05606e-06 -5.08285e-06 -4.11993e-05 )  
( -1.82678e-06 -4.02245e-06 -3.46051e-05 )  
( -4.34673e-06 -5.48807e-06 -2.4383e-05 )  
( 2.15321e-06 -1.82978e-06 -2.62354e-05 )  
( -3.99358e-06 -4.56006e-06 -3.6682e-05 )  
( -1.70147e-06 -8.00838e-06 -3.30876e-05 )  
( -2.33608e-06 -4.87331e-06 -2.63194e-05 )  
( -1.86384e-06 -1.00875e-06 -3.17308e-05 )  
( 5.61727e-07 -4.34061e-06 -2.04711e-05 )  
( 1.16729e-06 -4.71436e-06 -3.15948e-05 )  
( 1.77288e-06 -1.76779e-06 -2.22409e-05 )  
( -7.33638e-06 -4.06614e-06 -3.12621e-05 )  
( -2.91253e-06 -3.36611e-06 -2.79004e-05 )  
( -3.05293e-06 -2.44312e-06 -2.65624e-05 )  
( -5.3118e-06 -4.14356e-06 -2.08979e-05 )  
( -2.88221e-06 -3.29712e-06 -3.23394e-05 )  
( -6.48375e-06 -5.52225e-06 -3.73069e-05 )  
( -1.47366e-06 -4.548e-06 -3.97409e-05 )  
( 4.3198e-06 -3.47247e-06 -3.06304e-05 )  
( -3.52276e-06 -3.26948e-06 -4.58358e-05 )  
( -1.51649e-07 2.00836e-06 -4.1825e-05 )  
( -4.74212e-07 -5.05715e-06 -4.09288e-05 )  
( -1.55286e-06 -6.99264e-06 -3.39034e-05 )  
( -1.68661e-06 -1.9889e-06 -3.87732e-05 )  
( -4.82615e-06 -2.79921e-06 -3.65688e-05 )  
( -3.84264e-06 -5.43932e-06 -3.74855e-05 )  
( -4.61255e-06 -3.10735e-06 -3.67895e-05 )  
( -1.57885e-05 -1.43544e-05 -2.32516e-05 )  
( -4.71524e-07 -5.36612e-06 -3.80285e-05 )  
( 9.82106e-07 -3.0303e-06 -3.80955e-05 )  
( -4.51535e-06 -5.93894e-07 -3.9137e-05 )  
( -7.80297e-07 -5.18089e-06 -4.34729e-05 )  
( -2.57797e-06 -1.50827e-06 -3.61251e-05 )  
( -4.48301e-06 -3.45343e-06 -5.02675e-05 )  
( -3.59374e-06 -5.93533e-06 -4.44265e-05 )  
( -4.191e-06 -6.55952e-06 -3.80237e-05 )  
( -3.97782e-06 -3.78552e-06 -4.92845e-05 )  
( 1.30992e-07 -3.56124e-06 -4.34281e-05 )  
( -3.74191e-06 -5.1863e-06 -4.60636e-05 )  
( -3.20903e-06 -3.39366e-06 -4.74675e-05 )  
( -3.88299e-06 -2.00801e-06 -4.3782e-05 )  
( -1.27954e-06 -7.31621e-06 -4.11947e-05 )  
( -8.41756e-07 -2.86555e-06 -4.35553e-05 )  
( -3.69957e-06 -3.62292e-06 -4.70416e-05 )  
( -2.85432e-06 -6.7443e-06 -4.46876e-05 )  
( -3.53624e-08 -5.5881e-06 -4.34883e-05 )  
( -1.00498e-06 -5.04079e-06 -4.01173e-05 )  
( 2.32948e-06 -3.7559e-06 -4.74e-05 )  
( -2.89964e-06 -6.06229e-06 -4.77142e-05 )  
( -2.12014e-06 -3.93114e-06 -4.97994e-05 )  
( -1.74161e-06 -4.43061e-06 -5.07866e-05 )  
( -3.55506e-06 -6.7619e-06 -5.86975e-05 )  
( -4.73292e-06 -6.93924e-06 -4.82137e-05 )  
( 7.73361e-07 -1.52796e-06 -4.79562e-05 )  
( -2.75528e-07 -8.92829e-06 -4.20145e-05 )  
( -5.54809e-06 -4.56553e-06 -4.3797e-05 )  
( -3.22739e-06 -6.4621e-06 -5.21601e-05 )  
( 4.85734e-07 -3.5437e-06 -5.05128e-05 )  
( -1.16675e-06 -1.46236e-06 -5.10445e-05 )  
( -3.0222e-06 -3.10085e-06 -5.37897e-05 )  
( -4.15953e-06 -1.64132e-06 -4.81259e-05 )  
( -4.38748e-06 -5.12342e-06 -6.24997e-05 )  
( -3.70783e-06 -5.40065e-06 -5.5461e-05 )  
( -3.00704e-06 -3.61037e-06 -6.16651e-05 )  
( -4.17687e-06 -8.6161e-06 -5.35483e-05 )  
( -3.72036e-07 -2.16926e-06 -5.39854e-05 )  
( 9.62452e-09 -4.0228e-06 -4.66965e-05 )  
( -2.19899e-06 -1.68681e-06 -5.97119e-05 )  
( -4.23227e-06 -6.44407e-06 -5.72675e-05 )  
( 2.07588e-09 -3.31313e-06 -5.74364e-05 )  
( -7.86552e-07 -9.11623e-06 -5.28812e-05 )  
( -2.17209e-06 -5.36611e-06 -5.83157e-05 )  
( -1.92529e-06 -1.5308e-06 -6.35759e-05 )  
( -2.73119e-06 -5.96045e-06 -5.53576e-05 )  
( -4.02704e-06 -2.8683e-06 -5.77299e-05 )  
( -4.54211e-06 -2.5573e-06 -6.72558e-05 )  
( -4.08734e-06 -2.71512e-06 -6.55145e-05 )  
( -2.7616e-06 -3.70224e-06 -5.80358e-05 )  
( -1.17779e-06 4.84384e-06 -6.56956e-05 )  
( 3.59276e-06 -8.90036e-06 -4.78959e-05 )  
( 1.13166e-06 -3.82232e-06 -6.21468e-05 )  
( -4.76738e-06 -3.94729e-06 -6.64518e-05 )  
( -1.34129e-06 -2.56015e-06 -7.27006e-05 )  
( -3.51376e-06 -1.44004e-06 -6.08052e-05 )  
( -2.44012e-06 -3.01287e-06 -6.27843e-05 )  
( -1.14341e-06 -1.80428e-06 -5.55183e-05 )  
( -3.07517e-06 -5.7799e-06 -6.08662e-05 )  
( 7.07031e-07 -1.49261e-06 -6.91178e-05 )  
( -1.35622e-06 -3.05994e-08 -6.84269e-05 )  
( -6.88663e-07 -9.64882e-07 -6.22897e-05 )  
( 6.2223e-07 -3.04294e-06 -6.39541e-05 )  
( -5.78911e-06 -2.00848e-06 -7.59503e-05 )  
( -1.93526e-06 -4.9332e-06 -6.52264e-05 )  
( -6.12993e-06 -4.06531e-06 -6.92939e-05 )  
( -2.96844e-08 1.39606e-06 -7.59147e-05 )  
( -1.71186e-06 -1.66874e-06 -6.32725e-05 )  
( 2.38931e-06 -3.11098e-06 -7.05415e-05 )  
( -2.6874e-09 -3.23996e-06 -6.48417e-05 )  
( 3.72609e-06 -2.7495e-07 -6.97957e-05 )  
( -1.81637e-06 1.45604e-07 -6.8882e-05 )  
( -4.57153e-06 -3.13386e-06 -7.60435e-05 )  
( -2.29422e-06 -3.01305e-06 -7.01699e-05 )  
( -5.83038e-06 -2.80808e-06 -7.10816e-05 )  
( 1.96784e-06 -6.24507e-06 -6.44703e-05 )  
( 2.35689e-06 2.47556e-05 -6.69742e-05 )  
( -9.36355e-07 1.57038e-06 -7.41243e-05 )  
( -4.67079e-07 2.98458e-06 -8.17998e-05 )  
( -6.80449e-06 6.89621e-09 -7.18829e-05 )  
( -3.17074e-06 2.81741e-06 -7.12677e-05 )  
( -4.38565e-06 3.269e-06 -6.22165e-05 )  
( -4.74337e-06 -2.05857e-06 -8.41374e-05 )  
( -3.71078e-07 -5.99679e-06 -6.78095e-05 )  
( -2.43033e-06 -4.91881e-06 -7.90858e-05 )  
( -5.10547e-06 -1.81153e-06 -6.82187e-05 )  
( 5.75976e-07 -7.82172e-06 -8.89235e-05 )  
( -6.5559e-07 -3.54959e-06 -7.42013e-05 )  
( -3.07276e-06 -1.87263e-06 -7.65452e-05 )  
( -3.57972e-06 1.72153e-06 -7.36003e-05 )  
( -1.08758e-06 -3.15653e-06 -8.09744e-05 )  
( 2.52725e-06 -2.83585e-06 -7.52169e-05 )  
( 3.49986e-06 4.22798e-06 -9.38212e-05 )  
( -1.31435e-06 4.98866e-06 -8.82136e-05 )  
( 8.30466e-06 4.62019e-07 -8.41538e-05 )  
( 5.44192e-06 1.13967e-06 -9.52257e-05 )  
( -5.54028e-06 -3.3356e-07 -7.14809e-05 )  
( 2.08348e-06 -2.12405e-06 -8.58911e-05 )  
( -2.39685e-06 -2.60948e-06 -7.90823e-05 )  
( 3.38212e-07 3.68851e-06 -7.72727e-05 )  
( 7.0801e-06 -1.63159e-08 -9.26267e-05 )  
( 1.30689e-06 -2.1538e-06 -7.72485e-05 )  
( 2.29948e-06 2.47752e-06 -8.52521e-05 )  
( 5.63978e-06 -4.76807e-06 -9.43393e-05 )  
( -1.69157e-06 -4.56332e-06 -9.43833e-05 )  
( 2.87381e-06 -2.08244e-06 -8.03937e-05 )  
( 2.31532e-06 -6.48722e-06 -9.39627e-05 )  
( 1.61826e-06 4.41057e-06 -9.65689e-05 )  
( 2.39365e-06 -3.3533e-06 -8.60587e-05 )  
( 2.4621e-06 2.67509e-06 -8.57027e-05 )  
( 3.97658e-06 -7.03705e-06 -9.67028e-05 )  
( 1.33849e-05 -1.63912e-06 -0.000106966 )  
( -4.72529e-06 2.442e-06 -7.57566e-05 )  
( 3.19237e-07 -2.37045e-06 -8.12034e-05 )  
( -5.43532e-06 -6.54401e-07 -8.31415e-05 )  
( 2.93622e-06 4.63637e-06 -0.000100724 )  
( 6.52265e-06 -3.51444e-06 -0.000100013 )  
( 5.27137e-06 -4.58535e-07 -8.73729e-05 )  
( 3.84223e-06 -5.05511e-07 -9.20319e-05 )  
( 2.87419e-06 -8.00954e-06 -0.000102337 )  
( -2.74691e-06 -5.7905e-06 -0.000106967 )  
( -4.78053e-06 8.02444e-07 -7.76612e-05 )  
( 6.89366e-06 -4.18475e-06 -8.97646e-05 )  
( -5.92726e-06 -7.17256e-07 -8.89163e-05 )  
( 3.60515e-06 -6.62002e-06 -0.000109142 )  
( 8.42288e-06 8.71044e-07 -9.00663e-05 )  
( 4.53729e-06 -1.1376e-06 -7.92463e-05 )  
( 3.97105e-06 3.83517e-07 -9.62361e-05 )  
( 3.68672e-06 -2.0067e-06 -8.35514e-05 )  
( 4.91089e-06 -1.55031e-06 -8.37261e-05 )  
( 8.13259e-06 -2.0388e-06 -0.000108348 )  
( 4.0651e-06 1.85229e-06 -9.89465e-05 )  
( -6.297e-06 9.28192e-08 -0.000102113 )  
( 1.30684e-05 -4.50868e-06 -9.5142e-05 )  
( 9.32251e-06 3.66508e-07 -0.000115947 )  
( -2.53868e-06 -3.86573e-06 -0.000110669 )  
( 9.49081e-06 -1.37546e-06 -9.11013e-05 )  
( -7.39843e-06 -6.0368e-06 -0.000109724 )  
( -3.80616e-06 -6.76232e-06 -0.000103913 )  
( 7.38671e-06 -6.26074e-06 -0.000114046 )  
( 6.46197e-06 -2.49304e-06 -9.85226e-05 )  
( 8.86543e-06 -5.88871e-06 -0.000106281 )  
( 5.46508e-06 -6.7877e-06 -9.91763e-05 )  
( 9.10176e-06 -6.64684e-06 -9.60273e-05 )  
( 7.21246e-06 -4.19708e-06 -0.000104248 )  
( 2.46906e-06 -1.03753e-05 -0.000104643 )  
( -2.91054e-06 -5.81517e-06 -0.000120283 )  
( 4.95948e-06 -6.08873e-06 -0.000110498 )  
( 3.9011e-06 -4.59926e-06 -9.69959e-05 )  
( 9.08517e-06 -5.91445e-06 -0.000111636 )  
( 5.14853e-06 1.33845e-06 -0.000120662 )  
( 3.62299e-07 3.78204e-06 -0.000103534 )  
( -3.59098e-06 -3.6335e-06 -0.000118032 )  
( 8.8902e-06 -5.9886e-06 -0.000101303 )  
( -5.17285e-06 -3.6772e-06 -0.000104666 )  
( 8.8852e-06 -6.17635e-06 -0.000115595 )  
( -7.16277e-06 -3.75895e-06 -0.000115499 )  
( 6.31928e-06 -2.91827e-06 -0.000111965 )  
( 1.78788e-05 -7.18126e-06 -0.000128779 )  
( -3.40719e-06 1.80055e-07 -0.000104227 )  
( 6.3792e-06 -1.57381e-05 -0.000109782 )  
( 4.29751e-06 -8.68268e-06 -0.000121377 )  
( 1.65569e-05 -1.71676e-05 -0.00011705 )  
( 1.09611e-05 -2.09922e-06 -0.000104745 )  
( 1.01347e-05 -1.23224e-05 -0.000115701 )  
( -6.61785e-06 -8.16544e-06 -0.000104305 )  
( -1.59488e-06 -9.42716e-06 -0.000116854 )  
( 7.55782e-06 -4.09178e-06 -0.000113504 )  
( -7.17049e-06 -4.74598e-06 -0.000126777 )  
( 1.44998e-05 -8.66015e-06 -0.000124972 )  
( -6.12891e-06 -9.94504e-06 -0.00011328 )  
( 1.36332e-05 -8.42145e-06 -0.000125614 )  
( -9.97843e-06 -4.23187e-07 -0.00011116 )  
( -4.61575e-08 -6.74261e-06 -0.000127202 )  
( 1.46149e-05 -5.85726e-06 -0.000142871 )  
( 8.87373e-06 -9.61741e-06 -0.000123129 )  
( -2.99993e-06 -6.50436e-06 -0.000131013 )  
( -4.53462e-06 -5.90412e-06 -0.000124981 )  
( -1.22858e-05 -1.36891e-05 -0.000123264 )  
( 1.53865e-05 -1.16273e-05 -0.00013256 )  
( 5.33228e-06 -4.09468e-06 -0.000112101 )  
( -5.7772e-06 -6.91494e-06 -0.000128759 )  
( 2.80607e-06 -7.67584e-06 -0.000130642 )  
( -4.54653e-06 1.47445e-07 -0.000111994 )  
( 3.5696e-06 8.82812e-06 -0.000129809 )  
( 1.35758e-05 -2.89101e-05 -0.000110194 )  
( 1.52785e-05 -9.97758e-06 -0.000123274 )  
( -2.82557e-06 -3.16169e-07 -0.000118581 )  
( -1.04349e-05 -8.13916e-06 -0.000132 )  
( -2.2009e-06 -1.15696e-05 -0.000125108 )  
( -4.68835e-06 -1.33232e-05 -0.000125876 )  
( -6.11646e-06 1.71732e-06 -0.000118414 )  
( 1.67397e-05 -1.11163e-05 -0.000126611 )  
( -1.3425e-05 -1.02122e-05 -0.000127114 )  
( 8.90108e-06 -6.11505e-06 -0.000133649 )  
( 9.05899e-06 -6.72668e-07 -0.00013729 )  
( -1.53552e-06 -1.26713e-05 -0.000126317 )  
( -3.86994e-06 -6.47732e-06 -0.000122794 )  
( 9.03736e-06 3.60705e-06 -0.000143506 )  
( -3.87804e-06 -1.33156e-05 -0.000144167 )  
( 9.05893e-06 -7.62628e-06 -0.000144733 )  
( -1.43592e-05 -1.37444e-05 -0.000127551 )  
( 1.46265e-05 -1.28904e-05 -0.000131183 )  
( 3.01872e-06 2.43824e-06 -0.000158121 )  
( 1.8591e-05 -1.43605e-05 -0.000134295 )  
( -8.36035e-06 -1.04982e-05 -0.00012619 )  
( -9.33195e-06 -1.53579e-05 -0.000146803 )  
( -4.15762e-06 -3.2529e-07 -0.000126106 )  
( -8.98821e-06 -1.23342e-05 -0.000133839 )  
( 7.34961e-06 -6.62545e-06 -0.000137084 )  
( 6.30379e-06 4.88873e-06 -0.00015036 )  
( -1.14161e-06 -8.9198e-06 -0.000132344 )  
( -5.4167e-06 8.85697e-06 -0.000124878 )  
( -2.28113e-06 1.98258e-06 -0.000129421 )  
( -4.34095e-06 -7.27227e-06 -0.000136251 )  
( -9.97982e-06 -1.52525e-05 -0.000133816 )  
( -1.53213e-05 -1.73356e-05 -0.000132625 )  
( 1.0212e-05 -1.41961e-05 -0.000144098 )  
( 7.97772e-06 -9.62285e-06 -0.000159249 )  
( -3.84543e-07 1.4351e-05 -0.00014421 )  
( -3.22251e-06 -5.86911e-06 -0.000139228 )  
( 3.88361e-06 2.42225e-06 -0.000163562 )  
( 2.20857e-05 -1.73998e-05 -0.000132964 )  
( 2.09814e-05 7.46853e-06 -0.000141822 )  
( 1.87078e-05 -1.20599e-05 -0.000150624 )  
( 5.06963e-06 -1.55683e-05 -0.000146573 )  
( -3.41069e-06 -8.50318e-06 -0.000152199 )  
( -6.06215e-06 -1.33452e-05 -0.0001379 )  
( 4.43085e-07 -1.36393e-06 -0.000166788 )  
( -1.32446e-05 -1.91502e-05 -0.000142722 )  
( 1.73021e-05 -1.50335e-05 -0.000138548 )  
( -9.41565e-06 9.45546e-06 -0.000150108 )  
( 1.24083e-05 9.57561e-06 -0.000162941 )  
( -1.27469e-05 -1.52244e-05 -0.000138139 )  
( -1.55458e-06 -3.35516e-07 -0.00013742 )  
( 7.92346e-06 9.82189e-06 -0.000167525 )  
( -1.19201e-05 -2.01567e-05 -0.000150362 )  
( 1.81051e-05 -1.00216e-06 -0.000164252 )  
( 4.87923e-06 8.03571e-06 -0.00016286 )  
( -1.33032e-05 -1.8587e-05 -0.000144808 )  
( -2.47793e-05 -1.68907e-05 -0.000147461 )  
( -4.39903e-06 6.15655e-07 -0.000155917 )  
( 4.74517e-06 -3.68396e-05 -0.000154396 )  
( -1.21882e-05 -2.57306e-05 -0.000153605 )  
( 9.99243e-06 4.40624e-06 -0.000170721 )  
( -1.52383e-05 8.25573e-07 -0.00014229 )  
( -2.35291e-05 -2.14952e-05 -0.000142451 )  
( -1.43875e-05 -1.48898e-05 -0.000147386 )  
( -8.48446e-06 -2.32107e-05 -0.000167724 )  
( -1.03257e-05 2.02064e-06 -0.000145583 )  
( 2.31089e-05 -1.27488e-05 -0.000144202 )  
( 9.63937e-06 -9.12646e-06 -0.000147732 )  
( -9.89812e-06 -5.63779e-05 -0.000146439 )  
( -1.94414e-05 -5.43681e-05 -0.00015022 )  
)
