FoamFile
{version 2.0; format ascii;class Cloud<passiveParticle>; location 0;object  positions;}
351
(
( -3.38125 1.96381 0.499817 ) 0 
( -2.40598 2.2424 0.499619 ) 0 
( -4.2425 3.81734 0.499974 ) 0 
( -2.25727 4.04582 0.499743 ) 0 
( -2.7533 4.92879 0.499611 ) 0 
( -1.4532 1.4958 0.499572 ) 0 
( -0.59942 2.12631 0.499904 ) 0 
( -0.869587 4.25679 0.499625 ) 0 
( -4.47139 1.09335 0.499976 ) 0 
( -0.311788 3.39037 0.499741 ) 0 
( -2.71286 0.280716 0.499601 ) 0 
( -1.3112 3.3599 0.499724 ) 0 
( -0.504181 1.13005 0.499665 ) 0 
( -4.35582 2.20542 0.499706 ) 0 
( -4.70569 0.121191 0.499639 ) 0 
( -3.75782 4.69802 0.499831 ) 0 
( -4.75024 4.81973 0.499525 ) 0 
( -3.70742 0.177771 0.499855 ) 0 
( -4.61388 1.91019 1.41943 ) 0 
( -2.42114 1.23925 0.499787 ) 0 
( -1.21749 0.689055 1.04368 ) 0 
( -1.74352 0.0355212 0.499785 ) 0 
( -4.88807 3.05202 0.499758 ) 0 
( -1.48628 2.43339 0.845018 ) 0 
( -3.23666 3.84478 0.516129 ) 0 
( -1.67103 4.85617 0.499783 ) 0 
( -0.00725802 4.19921 1.00237 ) 0 
( -3.63953 2.92973 0.499572 ) 0 
( -4.87473 0.659686 1.32493 ) 0 
( -4.46762 4.33809 1.32871 ) 0 
( -3.33089 1.03187 0.858706 ) 0 
( -1.60584 4.19157 1.244 ) 0 
( -2.19594 3.13484 0.906995 ) 0 
( -1.38808 3.24727 1.49009 ) 0 
( -0.536267 2.77694 1.25655 ) 0 
( -0.575885 0.221218 1.75095 ) 0 
( -2.14356 1.73695 1.32126 ) 0 
( -4.27401 2.8411 1.26692 ) 0 
( -0.728584 4.81652 1.31577 ) 0 
( -3.0016 2.62399 1.2059 ) 0 
( -2.19029 0.643961 1.27029 ) 0 
( -0.00918263 3.49455 1.71142 ) 0 
( -0.878029 1.60823 1.30921 ) 0 
( -2.69382 4.40101 1.34651 ) 0 
( -3.62281 1.78344 1.45305 ) 0 
( -4.83912 3.51277 1.75335 ) 0 
( -3.90307 0.454348 1.44056 ) 0 
( -4.27613 1.71281 2.3394 ) 0 
( -3.58798 4.4441 1.79209 ) 0 
( -0.845279 3.10151 2.31705 ) 0 
( -2.49656 2.36596 2.02918 ) 0 
( -2.61403 3.48711 1.74389 ) 0 
( -1.55996 1.13766 1.8687 ) 0 
( -2.8688 1.19868 1.75115 ) 0 
( -0.542158 2.17942 2.05799 ) 0 
( -1.51581 2.31876 1.83794 ) 0 
( -0.856209 3.99985 1.87827 ) 0 
( -4.42248 0.0996037 2.21782 ) 0 
( -2.04693 0.0533849 2.06439 ) 0 
( -4.66982 2.61346 2.15635 ) 0 
( -3.5553 3.52133 1.40876 ) 0 
( -0.497076 1.18326 2.12989 ) 0 
( -2.23836 4.28628 2.22914 ) 0 
( -1.25111 1.73697 2.60682 ) 0 
( -3.61961 2.62598 1.99146 ) 0 
( -0.619121 2.4304 3.02278 ) 0 
( -2.77405 0.601078 2.5471 ) 0 
( -4.0036 3.49498 2.30213 ) 0 
( -2.25875 1.5064 2.481 ) 0 
( -3.70095 0.895322 2.31467 ) 0 
( -1.50631 4.9043 1.93794 ) 0 
( -4.92229 0.950778 2.37729 ) 0 
( -1.13379 0.529371 2.53752 ) 0 
( -0.403475 4.53266 2.644 ) 0 
( -4.43834 4.23673 2.81197 ) 0 
( -4.86642 3.33316 2.82196 ) 0 
( -1.87952 1.70802 3.38378 ) 0 
( -4.31888 1.13633 3.15517 ) 0 
( -1.94259 0.755018 3.08045 ) 0 
( -2.4483 3.19628 2.6858 ) 0 
( -1.61322 2.65364 2.77487 ) 0 
( -3.12716 3.92729 2.51353 ) 0 
( -3.28466 1.79602 2.43676 ) 0 
( -1.37443 4.3111 2.73171 ) 0 
( -3.51443 0.546351 3.23285 ) 0 
( -0.217843 3.47743 3.13821 ) 0 
( -3.91654 2.73027 2.9403 ) 0 
( -2.62538 0.0968464 3.39773 ) 0 
( -0.834695 0.312138 3.46637 ) 0 
( -3.86029 4.54774 3.56595 ) 0 
( -1.26244 2.78303 3.70203 ) 0 
( -2.89536 1.33158 3.23179 ) 0 
( -4.47702 0.150897 3.21476 ) 0 
( -2.62134 2.26878 3.01644 ) 0 
( -3.50242 4.87316 2.69106 ) 0 
( -1.75356 3.57757 3.29527 ) 0 
( -2.58104 4.73531 3.0542 ) 0 
( -3.18424 3.26711 3.35879 ) 0 
( -0.690637 1.30405 3.31243 ) 0 
( -0.713508 2.01013 4.01999 ) 0 
( -0.869341 4.66505 3.51858 ) 0 
( -2.25923 2.8443 3.74929 ) 0 
( -4.13711 3.54821 3.47129 ) 0 
( -1.42869 0.984924 3.90664 ) 0 
( -2.61296 3.99363 3.74024 ) 0 
( -4.38345 2.06443 3.52166 ) 0 
( -3.65184 1.29222 3.8845 ) 0 
( -4.65911 4.18121 4.04266 ) 0 
( -0.0427311 0.44311 4.06238 ) 0 
( -0.29085 2.95097 4.00205 ) 0 
( -0.912157 3.71229 3.81813 ) 0 
( -1.97399 1.98202 4.34049 ) 0 
( -2.41346 1.057 4.06341 ) 0 
( -1.69421 4.31822 3.96444 ) 0 
( -0.197719 1.26779 4.60607 ) 0 
( -3.40405 2.22894 3.63723 ) 0 
( -4.74849 1.29437 4.04413 ) 0 
( -3.70787 3.89356 4.30639 ) 0 
( -4.88163 2.90689 3.72635 ) 0 
( -3.06248 4.66877 4.32502 ) 0 
( -1.69467 3.39974 4.35972 ) 0 
( -3.95353 2.86545 4.17838 ) 0 
( -3.21073 0.537151 4.3695 ) 0 
( -0.299585 4.75827 4.33502 ) 0 
( -1.23366 1.46049 4.76405 ) 0 
( -2.92817 2.22302 4.51651 ) 0 
( -2.9837 3.20487 4.3362 ) 0 
( -4.10018 1.93277 4.50781 ) 0 
( -2.15373 0.570307 4.89713 ) 0 
( -2.41494 3.72751 4.97085 ) 0 
( -0.517966 2.01574 5.18738 ) 0 
( -0.661928 3.74168 4.78558 ) 0 
( -4.10405 0.864784 4.67613 ) 0 
( -1.00235 2.71966 4.66519 ) 0 
( -4.50847 3.48889 4.74809 ) 0 
( -2.12867 4.66879 4.79388 ) 0 
( -0.8755 0.533929 4.65022 ) 0 
( -2.19255 2.75335 4.93787 ) 0 
( -2.02742 1.37796 5.47262 ) 0 
( -2.9633 0.486585 5.47797 ) 0 
( -3.35164 3.95198 5.23875 ) 0 
( -3.58136 2.96575 5.10107 ) 0 
( -0.67006 2.92762 5.58482 ) 0 
( -4.70597 1.44595 5.22369 ) 0 
( -2.58104 4.43737 5.65499 ) 0 
( -1.47975 2.20911 5.37998 ) 0 
( -4.08337 4.77069 4.6089 ) 0 
( -1.38077 0.432646 5.51613 ) 0 
( -0.618495 4.60533 5.28735 ) 0 
( -2.86675 1.30933 4.91814 ) 0 
( -0.401475 0.616047 5.5997 ) 0 
( -4.50438 2.59163 5.18914 ) 0 
( -4.91723 0.13761 4.90108 ) 0 
( -2.46585 2.24043 5.75153 ) 0 
( -1.49019 3.58382 5.32273 ) 0 
( -4.05373 3.50826 5.79539 ) 0 
( -3.75282 0.266561 6.07705 ) 0 
( -4.7486 2.81063 6.1336 ) 0 
( -0.738379 2.16505 6.22773 ) 0 
( -4.42641 4.39335 5.46901 ) 0 
( -3.80865 1.13856 5.59113 ) 0 
( -3.39479 2.02325 5.37777 ) 0 
( -1.06462 1.35355 5.74347 ) 0 
( -2.78199 3.18868 5.72871 ) 0 
( -3.33433 4.95194 5.24579 ) 0 
( -2.9044 1.3647 5.95241 ) 0 
( -4.23717 1.97586 5.93022 ) 0 
( -0.0327032 2.88732 6.39698 ) 0 
( -1.00015 0.397975 6.44035 ) 0 
( -1.78211 2.92166 6.01274 ) 0 
( -1.91445 3.89993 6.17117 ) 0 
( -4.49228 4.80003 6.41026 ) 0 
( -0.399608 3.83929 5.89343 ) 0 
( -2.17742 0.733473 6.22222 ) 0 
( -3.62265 4.45102 6.06164 ) 0 
( -3.58269 1.66881 6.62104 ) 0 
( -4.6423 0.623749 5.78932 ) 0 
( -3.55271 2.68136 6.11366 ) 0 
( -0.918694 4.62007 6.24099 ) 0 
( -2.63249 1.9706 6.69985 ) 0 
( -0.439573 1.22274 6.51271 ) 0 
( -0.405909 0.533995 7.23655 ) 0 
( -2.00808 2.70603 6.96248 ) 0 
( -4.17133 2.44053 6.86118 ) 0 
( -2.88413 3.88956 6.43448 ) 0 
( -1.54894 4.36838 6.97527 ) 0 
( -2.98583 0.893277 6.83031 ) 0 
( -0.575685 4.03833 6.97837 ) 0 
( -0.958572 3.25704 6.48376 ) 0 
( -4.48248 0.416397 6.75428 ) 0 
( -1.70826 1.882 6.29684 ) 0 
( -3.85555 3.42788 6.77197 ) 0 
( -1.71309 0.630355 7.10164 ) 0 
( -0.0758005 2.06919 6.9702 ) 0 
( -4.6988 1.37789 6.58533 ) 0 
( -1.85568 1.69148 7.26727 ) 0 
( -4.6856 2.8187 7.63055 ) 0 
( -0.390832 3.11092 7.3033 ) 0 
( -1.07342 2.39868 7.14031 ) 0 
( -3.35431 2.24711 7.40414 ) 0 
( -3.86554 0.987499 7.29609 ) 0 
( -3.82984 4.3914 7.03797 ) 0 
( -4.47836 1.74725 7.51294 ) 0 
( -2.85459 4.57194 7.16466 ) 0 
( -0.202846 4.96647 7.04569 ) 0 
( -1.34693 3.47601 7.3788 ) 0 
( -0.901347 1.41444 7.37857 ) 0 
( -2.96175 2.98805 6.85966 ) 0 
( -1.84126 2.81399 7.9423 ) 0 
( -0.938278 4.71941 7.6849 ) 0 
( -4.68338 3.87552 7.10986 ) 0 
( -0.0720887 1.88002 7.95187 ) 0 
( -2.30159 3.73508 7.23239 ) 0 
( -4.81027 4.83597 7.35764 ) 0 
( -3.30623 0.585991 8.0581 ) 0 
( -4.52371 0.389216 7.75291 ) 0 
( -1.18744 2.06968 8.07759 ) 0 
( -3.16904 4.90807 8.05222 ) 0 
( -3.73774 3.12457 7.71728 ) 0 
( -2.46032 0.960073 7.67827 ) 0 
( -0.890325 3.02732 8.16539 ) 0 
( -1.13498 0.604939 7.91707 ) 0 
( -1.44374 0.312953 8.82207 ) 0 
( -4.07306 4.37158 8.00757 ) 0 
( -2.07433 2.68306 8.90574 ) 0 
( -3.15822 3.9259 7.8648 ) 0 
( -4.07555 2.37596 8.28756 ) 0 
( -1.98936 4.43925 7.87007 ) 0 
( -0.719819 1.29729 8.50717 ) 0 
( -2.48697 1.90157 8.01367 ) 0 
( -3.99054 0.0152702 8.5116 ) 0 
( -2.39008 0.517829 8.57224 ) 0 
( -1.21134 3.96686 8.284 ) 0 
( -0.0986283 4.50348 8.18292 ) 0 
( -2.83598 2.83814 8.04012 ) 0 
( -3.5253 1.56011 8.11011 ) 0 
( -1.75654 1.28153 8.31163 ) 0 
( -3.43391 4.25558 8.7677 ) 0 
( -0.488401 2.32029 8.74714 ) 0 
( -4.32061 3.32055 8.50573 ) 0 
( -3.07258 1.16599 8.90983 ) 0 
( -2.33899 3.64314 8.36355 ) 0 
( -1.30739 2.21008 9.33928 ) 0 
( -1.52963 4.83327 8.82936 ) 0 
( -2.22312 0.012803 9.41895 ) 0 
( -4.71981 2.30237 9.06043 ) 0 
( -4.87373 0.39535 8.78628 ) 0 
( -4.90181 4.67797 8.47561 ) 0 
( -3.07242 2.1958 8.76897 ) 0 
( -0.345827 3.67871 8.69348 ) 0 
( -1.07724 3.16212 9.13837 ) 0 
( -0.358706 0.423594 8.83291 ) 0 
( -4.43084 1.1913 8.34274 ) 0 
( -3.04499 2.48816 9.72479 ) 0 
( -3.1081 0.503234 9.73654 ) 0 
( -1.74764 3.9038 9.12646 ) 0 
( -2.494 4.59326 8.71934 ) 0 
( -4.39168 4.10284 9.12442 ) 0 
( -3.91223 1.71425 9.01909 ) 0 
( -2.24978 1.71201 9.06738 ) 0 
( -0.512903 1.6272 9.50915 ) 0 
( -2.30585 3.16107 9.7529 ) 0 
( -3.92381 0.732002 9.20549 ) 0 
( -0.826399 4.0876 9.46919 ) 0 
( -2.97444 3.16969 8.9733 ) 0 
( -1.39247 1.21852 9.24285 ) 0 
( -2.00005 1.94057 10.0083 ) 0 
( -3.58648 3.68407 9.57387 ) 0 
( -2.87352 1.94742 10.5482 ) 0 
( -3.86143 2.78618 9.23032 ) 0 
( -0.531244 0.873495 10.166 ) 0 
( -0.465294 2.60939 9.70392 ) 0 
( -4.8012 1.32634 9.26179 ) 0 
( -1.39128 0.399663 9.81678 ) 0 
( -4.07854 0.224154 10.0528 ) 0 
( -2.66545 4.07301 9.55581 ) 0 
( -1.61902 4.15749 10.085 ) 0 
( -2.22472 0.971687 9.73907 ) 0 
( -1.51808 1.16531 10.4472 ) 0 
( -4.26742 4.97696 9.59382 ) 0 
( -1.38411 2.92454 10.0599 ) 0 
( -3.36161 1.47047 9.81736 ) 0 
( -3.09346 3.29794 10.3535 ) 0 
( -2.43871 4.6895 10.3097 ) 0 
( -4.06346 3.09277 10.2241 ) 0 
( -4.08313 1.31968 10.4931 ) 0 
( -0.970802 4.18866 10.8458 ) 0 
( -1.14702 0.173438 10.7596 ) 0 
( -2.20249 3.60919 10.684 ) 0 
( -0.365898 3.50304 10.1413 ) 0 
( -1.02402 2.01973 10.287 ) 0 
( -4.87239 0.827803 10.1256 ) 0 
( -0.0860515 4.41563 10.439 ) 0 
( -4.18847 2.113 9.89349 ) 0 
( -3.40683 4.53393 10.0692 ) 0 
( -2.14979 2.61191 10.7341 ) 0 
( -4.75178 3.19676 9.50635 ) 0 
( -2.83716 3.15546 11.3095 ) 0 
( -4.97125 2.77878 10.5018 ) 0 
( -3.83857 3.2191 11.1902 ) 0 
( -0.145123 2.57893 10.6507 ) 0 
( -2.71346 0.82148 10.5984 ) 0 
( -4.28728 4.06623 10.1761 ) 0 
( -4.38896 0.377592 10.9909 ) 0 
( -3.52277 1.65527 11.2503 ) 0 
( -2.07916 1.68151 11.0942 ) 0 
( -1.89469 4.45902 11.1164 ) 0 
( -4.15916 2.32628 10.87 ) 0 
( -3.02611 4.13261 10.9022 ) 0 
( -0.926948 3.19163 10.9081 ) 0 
( -1.313 2.31575 11.1973 ) 0 
( -0.788614 1.03513 11.1187 ) 0 
( -4.38484 4.06558 11.1713 ) 0 
( -3.50228 0.661143 11.356 ) 0 
( -3.44303 2.5063 11.7693 ) 0 
( -3.44766 3.92206 11.7842 ) 0 
( -4.991 1.16195 11.14 ) 0 
( -4.58373 4.96536 10.5426 ) 0 
( -1.93228 0.653117 11.1996 ) 0 
( -0.128228 3.09673 11.5059 ) 0 
( -2.91305 4.76122 11.6849 ) 0 
( -1.65617 3.50714 11.5153 ) 0 
( -0.475836 4.99161 11.5246 ) 0 
( -0.0724014 4.08759 11.3835 ) 0 
( -0.229836 0.206789 11.1572 ) 0 
( -4.45788 2.56155 11.7949 ) 0 
( -4.5905 0.683451 11.9214 ) 0 
( -3.95801 4.78273 11.7222 ) 0 
( -4.21341 1.60822 11.972 ) 0 
( -2.48338 3.7789 12.007 ) 0 
( -4.33037 3.52412 12.034 ) 0 
( -1.14281 2.61181 12.1372 ) 0 
( -1.37306 1.50526 11.78 ) 0 
( -1.08094 4.25941 11.8371 ) 0 
( -0.170196 2.39247 12.2146 ) 0 
( -0.174318 1.34858 12.1441 ) 0 
( -4.90821 4.99551 11.4946 ) 0 
( -0.201975 4.09155 12.375 ) 0 
( -0.717435 0.519272 11.9724 ) 0 
( -2.69302 1.15157 11.6792 ) 0 
( -0.406685 1.92663 11.362 ) 0 
( -2.02475 4.65863 12.1325 ) 0 
( -1.30186 4.45471 12.7927 ) 0 
( -1.00909 1.32791 12.6943 ) 0 
( -2.09515 2.63522 11.7323 ) 0 
( -4.96076 2.98379 12.5913 ) 0 
( -1.48606 0.453194 12.6086 ) 0 
( -3.47357 3.23052 12.5061 ) 0 
( -2.19881 1.79473 12.2641 ) 0 
( -3.71888 4.70662 12.6922 ) 0 
( -1.01616 3.5284 12.5164 ) 0 
)
