/*--------------------------------*- C++ -*----------------------------------*\
| =========                 |                                                 |
| \\      /  F ield         | OpenFOAM: The Open Source CFD Toolbox           |
|  \\    /   O peration     | Version:  5.x                                   |
|   \\  /    A nd           | Web:      www.OpenFOAM.org                      |
|    \\/     M anipulation  |                                                 |
\*---------------------------------------------------------------------------*/
FoamFile
{
    version     2.0;
    format      ascii;
    class       surfaceScalarField;
    location    "1000";
    object      phi;
}
// * * * * * * * * * * * * * * * * * * * * * * * * * * * * * * * * * * * * * //

dimensions      [0 3 -1 0 0 0 0];

internalField   nonuniform List<scalar> 
89
(
-0.0249993
-0.0249994
-0.0249995
-0.0249997
-0.025
-0.0250003
-0.0250008
-0.0250013
-0.025002
-0.0250029
-0.0250041
-0.0250055
-0.0250073
-0.0250096
-0.0250125
-0.0250161
-0.0250208
-0.0250266
-0.0250341
-0.0250437
-0.0250559
-0.0250715
-0.0250915
-0.0251172
-0.0251502
-0.0251927
-0.0252474
-0.0253182
-0.0254096
-0.0255281
-0.0256817
-0.0258812
-0.0261409
-0.02648
-0.0269204
-0.027451
-0.0280219
-0.0285148
-0.0288757
-0.0275874
-0.0276176
-0.0281256
-0.0285408
-0.0287853
-0.0287806
-0.0286146
-0.0282329
-0.027532
-0.0270555
-0.0267819
-0.0264487
-0.0261898
-0.0258433
-0.0258439
-0.0255477
-0.0253466
-0.0252155
-0.0251257
-0.0250641
-0.025023
-0.0249963
-0.02498
-0.0249705
-0.0249659
-0.0249644
-0.024965
-0.0249669
-0.0249694
-0.0249724
-0.0249754
-0.0249783
-0.0249811
-0.0249836
-0.024986
-0.0249881
-0.0249899
-0.0249916
-0.024993
-0.0249942
-0.0249952
-0.024996
-0.0249968
-0.0249974
-0.0249979
-0.0249983
-0.0249987
-0.024999
-0.0249992
-0.0249994
)
;

boundaryField
{
    inlet
    {
        type            calculated;
        value           uniform -0.0249996;
    }
    outlet
    {
        type            calculated;
        value           uniform 0.0249992;
    }
    repeat_boundary
    {
        type            calculated;
        value           uniform 0;
    }
    procBoundary2to0
    {
        type            processor;
        value           nonuniform List<scalar> 
90
(
3.27519e-08
5.58834e-08
8.54058e-08
1.19803e-07
1.60466e-07
2.09432e-07
2.69219e-07
3.42945e-07
4.34514e-07
5.48838e-07
6.92117e-07
8.72201e-07
1.09903e-06
1.38523e-06
1.7471e-06
2.20551e-06
2.78727e-06
3.52681e-06
4.46853e-06
5.6697e-06
7.20433e-06
9.16823e-06
1.16855e-05
1.49172e-05
1.90723e-05
2.44228e-05
3.13226e-05
4.02329e-05
5.17565e-05
6.66828e-05
8.6046e-05
0.000111202
0.000144003
0.000187153
0.000241991
0.000290213
0.000309236
0.000256689
0.000194304
-0.000762823
1.75872e-05
0.000305671
0.000184713
0.000218358
0.000206152
6.23307e-05
-0.000207822
-0.000512512
-0.000376955
-6.1818e-05
-9.84438e-05
-0.000171079
-0.000232893
-0.0001599
-0.000195787
-0.000125024
-8.37805e-05
-6.09264e-05
-4.47534e-05
-3.26961e-05
-2.37382e-05
-1.7119e-05
-1.22494e-05
-8.68168e-06
-6.08147e-06
-4.19775e-06
-2.84286e-06
-1.87695e-06
-1.19601e-06
-7.23027e-07
-4.0142e-07
-1.90689e-07
-5.10918e-08
5.46406e-08
1.27087e-07
1.72704e-07
1.85285e-07
1.69658e-07
1.55954e-07
1.42758e-07
1.28892e-07
1.15806e-07
1.03923e-07
9.34306e-08
8.44141e-08
7.67332e-08
7.00006e-08
6.42634e-08
5.95241e-08
5.7246e-08
)
;
    }
    procBoundary2to3
    {
        type            processor;
        value           nonuniform List<scalar> 
90
(
2.01439e-08
3.17821e-08
4.74199e-08
6.60963e-08
8.86961e-08
1.1659e-07
1.51454e-07
1.95353e-07
2.50772e-07
3.20993e-07
4.1032e-07
5.24295e-07
6.70071e-07
8.56893e-07
1.09674e-06
1.40516e-06
1.80242e-06
2.31489e-06
2.97706e-06
3.834e-06
4.94463e-06
6.38572e-06
8.25682e-06
1.06904e-05
1.38592e-05
1.799e-05
2.33805e-05
3.04223e-05
3.96311e-05
5.16873e-05
6.74901e-05
8.82352e-05
0.000115574
0.000151877
0.000198364
0.000240243
0.000261543
0.000236114
0.000166551
-0.000525554
1.25972e-05
0.000202251
0.000230482
2.61652e-05
-0.000210883
-0.000228266
-0.000173887
-0.000188444
-9.95532e-05
-0.000211771
-0.00023474
-8.78348e-05
-0.000113594
0.000160432
-0.000100421
-7.62047e-05
-4.73471e-05
-2.8948e-05
-1.6828e-05
-8.48554e-06
-2.96069e-06
7.34139e-07
2.82375e-06
4.02741e-06
4.61769e-06
4.78894e-06
4.68966e-06
4.42762e-06
4.07701e-06
3.68657e-06
3.28703e-06
2.897e-06
2.52729e-06
2.18531e-06
1.8763e-06
1.60201e-06
1.36213e-06
1.15466e-06
9.76403e-07
8.24201e-07
6.9504e-07
5.86041e-07
4.94543e-07
4.18131e-07
3.5465e-07
3.02169e-07
2.58849e-07
2.22836e-07
1.94135e-07
1.81973e-07
)
;
    }
}


// ************************************************************************* //
