FoamFile
{version 2.0; format ascii;class vectorField; location 0;object  v;}
41
(
( 3.26697e-05 -2.22888e-05 8.77008e-05 )  
( 5.32419e-05 -2.2778e-05 6.33644e-05 )  
( 3.33781e-05 -8.56748e-06 5.17461e-05 )  
( 6.17277e-05 1.6154e-05 0.000174086 )  
( 3.5024e-05 -1.98243e-06 0.000105009 )  
( 4.75607e-05 2.58211e-05 0.000205855 )  
( 1.71342e-05 -7.16239e-05 0.000157633 )  
( 5.17578e-05 3.40188e-05 0.000133286 )  
( 5.42938e-05 3.30545e-06 0.000249994 )  
( 7.96202e-05 3.69834e-06 0.000222728 )  
( 6.0686e-05 -2.5405e-05 0.000240945 )  
( -4.25332e-06 -8.3116e-05 6.24729e-06 )  
( 4.5075e-05 3.16357e-05 0.0002595 )  
( -1.75917e-05 -2.23343e-06 0.000314096 )  
( 5.45747e-05 -3.38404e-06 0.000254579 )  
( -3.23737e-05 -9.40116e-05 0.000312863 )  
( 1.73999e-05 -3.0107e-05 0.000319425 )  
( -3.5895e-06 3.84827e-05 0.000265777 )  
( 2.81256e-06 6.5278e-05 0.000454743 )  
( -1.97772e-05 8.57042e-06 0.000316397 )  
( -2.12342e-05 4.86531e-05 0.000353726 )  
( -0.000126582 4.90272e-07 0.000448778 )  
( -1.11027e-07 -3.23586e-05 0.00037848 )  
( -8.62136e-05 2.19226e-05 0.000374996 )  
( 2.15807e-05 0.000107952 0.000450186 )  
( -7.8009e-05 9.95087e-06 0.000389104 )  
( -0.000178003 2.79158e-05 0.000411565 )  
( -1.6304e-05 -1.81329e-06 0.000338103 )  
( -4.14231e-05 5.38493e-06 0.000346237 )  
( -0.000146637 1.51914e-05 0.000436786 )  
( -6.48084e-05 3.68419e-05 0.000478071 )  
( -8.26604e-05 -9.61629e-06 0.000335694 )  
( -4.53754e-05 1.4186e-05 0.000313933 )  
( -7.05054e-05 -2.11089e-05 0.000206403 )  
( -7.8893e-05 7.10326e-05 0.000506654 )  
( -6.87019e-05 9.06755e-06 0.000341258 )  
( -2.0296e-05 1.73472e-05 0.000375309 )  
( -5.73691e-05 4.89629e-05 0.000240769 )  
( -5.29833e-05 -7.71315e-05 0.000365805 )  
( 8.27857e-05 -0.00025993 0.000259371 )  
( 2.58505e-05 -4.2215e-05 0.000373317 )  
)
