/*--------------------------------*- C++ -*----------------------------------*\
| =========                 |                                                 |
| \\      /  F ield         | OpenFOAM: The Open Source CFD Toolbox           |
|  \\    /   O peration     | Version:  5.x                                   |
|   \\  /    A nd           | Web:      www.OpenFOAM.org                      |
|    \\/     M anipulation  |                                                 |
\*---------------------------------------------------------------------------*/
FoamFile
{
    version     2.0;
    format      ascii;
    class       surfaceScalarField;
    location    "1000";
    object      phi;
}
// * * * * * * * * * * * * * * * * * * * * * * * * * * * * * * * * * * * * * //

dimensions      [0 3 -1 0 0 0 0];

internalField   nonuniform List<scalar> 
89
(
-0.0249979
-0.0249979
-0.0249978
-0.0249977
-0.0249976
-0.0249974
-0.0249972
-0.0249969
-0.0249965
-0.0249959
-0.0249953
-0.0249944
-0.0249933
-0.0249919
-0.0249901
-0.0249877
-0.0249846
-0.0249806
-0.0249754
-0.0249686
-0.0249598
-0.0249483
-0.0249333
-0.0249136
-0.024888
-0.0248544
-0.0248104
-0.0247528
-0.0246772
-0.0245781
-0.0244479
-0.0242769
-0.0240518
-0.0237547
-0.0233645
-0.0228914
-0.0223819
-0.0219565
-0.0216245
-0.0229844
-0.0229478
-0.0224495
-0.0221645
-0.0216539
-0.0211727
-0.0208809
-0.0208996
-0.0213517
-0.0218086
-0.0216894
-0.0216915
-0.0218578
-0.022114
-0.022584
-0.0231199
-0.0235497
-0.0238758
-0.0241275
-0.0243222
-0.0244728
-0.0245894
-0.0246798
-0.0247499
-0.0248044
-0.0248468
-0.0248798
-0.0249055
-0.0249256
-0.0249414
-0.0249537
-0.0249634
-0.024971
-0.0249771
-0.0249818
-0.0249856
-0.0249885
-0.0249909
-0.0249928
-0.0249943
-0.0249955
-0.0249964
-0.0249972
-0.0249978
-0.0249983
-0.0249987
-0.024999
-0.0249992
-0.0249994
-0.0249995
)
;

boundaryField
{
    inlet
    {
        type            calculated;
        value           uniform -0.0249996;
    }
    outlet
    {
        type            calculated;
        value           uniform 0.024998;
    }
    repeat_boundary
    {
        type            calculated;
        value           uniform 0;
    }
    procBoundary0to1
    {
        type            processor;
        value           nonuniform List<scalar> 
90
(
1.07452e-08
1.60731e-08
2.25249e-08
2.91539e-08
3.56441e-08
4.1731e-08
4.70443e-08
5.10501e-08
5.30944e-08
5.23784e-08
4.77329e-08
3.777e-08
2.06212e-08
-1.37198e-08
-7.17638e-08
-1.58011e-07
-2.84699e-07
-4.67995e-07
-7.29828e-07
-1.10001e-06
-1.6189e-06
-2.34076e-06
-3.33786e-06
-4.70929e-06
-6.58784e-06
-9.15133e-06
-1.26384e-05
-1.73687e-05
-2.37708e-05
-3.24194e-05
-4.40852e-05
-5.98025e-05
-8.10249e-05
-0.000109934
-0.00014821
-0.000182792
-0.000200274
-0.000168695
-0.000137663
0.000597087
-1.90643e-05
-0.000192613
-0.000100293
-0.000292203
-0.000275096
-0.000229449
-0.000189071
-6.04312e-05
7.98749e-05
-0.000181054
-9.63391e-05
-4.76064e-06
2.32714e-05
0.000309987
0.000340148
0.000304768
0.00024231
0.000190748
0.000149925
0.000117916
9.28726e-05
7.3262e-05
5.78814e-05
4.57993e-05
3.62936e-05
2.88037e-05
2.28931e-05
1.82219e-05
1.45247e-05
1.1594e-05
9.26758e-06
7.41819e-06
5.94621e-06
4.77311e-06
3.8367e-06
3.088e-06
2.4881e-06
2.00654e-06
1.61979e-06
1.30904e-06
1.05926e-06
8.58506e-07
6.97245e-07
5.67867e-07
4.64262e-07
3.81447e-07
3.15142e-07
2.61622e-07
2.20252e-07
2.02804e-07
)
;
    }
    procBoundary0to2
    {
        type            processor;
        value           nonuniform List<scalar> 
90
(
-3.27519e-08
-5.58834e-08
-8.54058e-08
-1.19803e-07
-1.60466e-07
-2.09432e-07
-2.69219e-07
-3.42945e-07
-4.34514e-07
-5.48838e-07
-6.92117e-07
-8.72201e-07
-1.09903e-06
-1.38523e-06
-1.7471e-06
-2.20551e-06
-2.78727e-06
-3.52681e-06
-4.46853e-06
-5.6697e-06
-7.20433e-06
-9.16823e-06
-1.16855e-05
-1.49172e-05
-1.90723e-05
-2.44228e-05
-3.13226e-05
-4.02329e-05
-5.17565e-05
-6.66828e-05
-8.6046e-05
-0.000111202
-0.000144003
-0.000187153
-0.000241991
-0.000290213
-0.000309236
-0.000256689
-0.000194304
0.000762823
-1.75872e-05
-0.000305671
-0.000184713
-0.000218358
-0.000206152
-6.23307e-05
0.000207822
0.000512512
0.000376955
6.1818e-05
9.84438e-05
0.000171079
0.000232893
0.0001599
0.000195787
0.000125024
8.37805e-05
6.09264e-05
4.47534e-05
3.26961e-05
2.37382e-05
1.7119e-05
1.22494e-05
8.68168e-06
6.08147e-06
4.19775e-06
2.84286e-06
1.87695e-06
1.19601e-06
7.23027e-07
4.0142e-07
1.90689e-07
5.10918e-08
-5.46406e-08
-1.27087e-07
-1.72704e-07
-1.85285e-07
-1.69658e-07
-1.55954e-07
-1.42758e-07
-1.28892e-07
-1.15806e-07
-1.03923e-07
-9.34306e-08
-8.44141e-08
-7.67332e-08
-7.00006e-08
-6.42634e-08
-5.95241e-08
-5.7246e-08
)
;
    }
}


// ************************************************************************* //
