/*--------------------------------*- C++ -*----------------------------------*\
  =========                 |
  \\      /  F ield         | OpenFOAM: The Open Source CFD Toolbox
   \\    /   O peration     | Website:  https://openfoam.org
    \\  /    A nd           | Version:  9
     \\/     M anipulation  |
\*---------------------------------------------------------------------------*/
FoamFile
{
    format      ascii;
    class       volScalarField;
    location    "0.05";
    object      p;
}
// * * * * * * * * * * * * * * * * * * * * * * * * * * * * * * * * * * * * * //

dimensions      [0 2 -2 0 0 0 0];

internalField   nonuniform List<scalar> 
9000
(
2.48409e-10
2.73847e-10
3.23227e-10
3.94388e-10
4.9034e-10
5.12611e-10
5.02357e-10
4.87738e-10
4.68825e-10
4.54196e-10
2.49518e-10
2.78248e-10
3.32973e-10
4.08473e-10
5.04208e-10
5.29647e-10
5.1645e-10
4.94325e-10
4.69798e-10
4.55065e-10
2.44803e-10
2.73576e-10
3.28549e-10
4.05062e-10
5.05627e-10
5.27342e-10
5.27159e-10
5.05655e-10
4.81392e-10
4.67262e-10
2.31408e-10
2.56885e-10
3.09235e-10
3.88153e-10
5.0369e-10
5.0883e-10
5.43493e-10
5.28916e-10
5.01603e-10
4.82516e-10
1.96166e-10
2.17159e-10
2.66385e-10
3.59001e-10
5.29432e-10
4.9082e-10
5.70704e-10
5.67719e-10
5.17491e-10
4.80401e-10
1.77323e-10
1.87744e-10
2.22024e-10
2.78041e-10
3.7012e-10
5.53139e-10
5.43493e-10
5.52437e-10
5.17003e-10
4.82152e-10
1.56798e-10
1.6844e-10
2.06847e-10
2.66981e-10
3.35716e-10
4.03917e-10
4.59674e-10
4.93001e-10
4.97622e-10
4.9345e-10
1.36156e-10
1.47491e-10
1.80579e-10
2.29341e-10
2.84343e-10
3.43896e-10
4.12602e-10
4.5968e-10
4.81614e-10
4.82994e-10
1.25611e-10
1.38436e-10
1.68416e-10
2.09576e-10
2.56294e-10
3.16065e-10
3.88771e-10
4.39928e-10
4.62457e-10
4.59451e-10
1.22515e-10
1.35554e-10
1.63082e-10
2.01726e-10
2.49515e-10
3.07478e-10
3.7708e-10
4.22514e-10
4.38745e-10
4.33478e-10
7.16739e-10
7.86412e-10
9.25438e-10
1.11951e-09
1.3626e-09
1.44938e-09
1.43256e-09
1.41e-09
1.38006e-09
1.36101e-09
7.15084e-10
7.91186e-10
9.42549e-10
1.14613e-09
1.39291e-09
1.48619e-09
1.46724e-09
1.43345e-09
1.39853e-09
1.38731e-09
6.99605e-10
7.76542e-10
9.29429e-10
1.13779e-09
1.40369e-09
1.48424e-09
1.49868e-09
1.46772e-09
1.43545e-09
1.42629e-09
6.61041e-10
7.33506e-10
8.81998e-10
1.09964e-09
1.40523e-09
1.41942e-09
1.52963e-09
1.51925e-09
1.48196e-09
1.46699e-09
5.77826e-10
6.49316e-10
7.94454e-10
1.04646e-09
1.45845e-09
1.28423e-09
1.53274e-09
1.56655e-09
1.50167e-09
1.47343e-09
5.26421e-10
5.70892e-10
6.7497e-10
8.16709e-10
9.73474e-10
1.53236e-09
1.51056e-09
1.52504e-09
1.47785e-09
1.44707e-09
4.60243e-10
5.02423e-10
6.19568e-10
7.90713e-10
9.5131e-10
1.17449e-09
1.31256e-09
1.40302e-09
1.43798e-09
1.44875e-09
3.98538e-10
4.39965e-10
5.44396e-10
6.98353e-10
8.6781e-10
1.02856e-09
1.20757e-09
1.32484e-09
1.37783e-09
1.38326e-09
3.67635e-10
4.09919e-10
5.03866e-10
6.40726e-10
8.05902e-10
9.61959e-10
1.14287e-09
1.25734e-09
1.30014e-09
1.29492e-09
3.56863e-10
3.96863e-10
4.83797e-10
6.15199e-10
7.82304e-10
9.33315e-10
1.09879e-09
1.19765e-09
1.23066e-09
1.22997e-09
1.12076e-09
1.22093e-09
1.43214e-09
1.71607e-09
2.03661e-09
2.20622e-09
2.23158e-09
2.24359e-09
2.24765e-09
2.25705e-09
1.10697e-09
1.21616e-09
1.44356e-09
1.74228e-09
2.08313e-09
2.2602e-09
2.28413e-09
2.29245e-09
2.30142e-09
2.32019e-09
1.08013e-09
1.19243e-09
1.42344e-09
1.7319e-09
2.10725e-09
2.2717e-09
2.328e-09
2.3401e-09
2.35381e-09
2.37321e-09
1.02019e-09
1.13004e-09
1.35843e-09
1.68129e-09
2.1082e-09
2.16677e-09
2.34939e-09
2.38845e-09
2.40351e-09
2.42806e-09
9.02668e-10
1.01513e-09
1.25521e-09
1.6306e-09
2.20039e-09
1.85345e-09
2.26983e-09
2.39256e-09
2.43084e-09
2.48144e-09
8.24375e-10
9.0576e-10
1.09764e-09
1.32323e-09
1.43743e-09
2.33549e-09
2.3047e-09
2.33428e-09
2.36452e-09
2.40919e-09
7.17091e-10
7.9829e-10
1.00342e-09
1.28767e-09
1.53141e-09
1.91256e-09
2.07201e-09
2.20162e-09
2.28285e-09
2.319e-09
6.29594e-10
7.11507e-10
8.98213e-10
1.16865e-09
1.46943e-09
1.72179e-09
1.93484e-09
2.08574e-09
2.15919e-09
2.17749e-09
5.83625e-10
6.61006e-10
8.2882e-10
1.07391e-09
1.37496e-09
1.60796e-09
1.81951e-09
1.96031e-09
2.02114e-09
2.04129e-09
5.63339e-10
6.33707e-10
7.90275e-10
1.02271e-09
1.30929e-09
1.53498e-09
1.73117e-09
1.86483e-09
1.93304e-09
1.97406e-09
1.44101e-09
1.56083e-09
1.82352e-09
2.17114e-09
2.54199e-09
2.7827e-09
2.88798e-09
2.97233e-09
3.04211e-09
3.08612e-09
1.41446e-09
1.54829e-09
1.83056e-09
2.19694e-09
2.59837e-09
2.85304e-09
2.95149e-09
3.04115e-09
3.12151e-09
3.16142e-09
1.37514e-09
1.51331e-09
1.80256e-09
2.18222e-09
2.61923e-09
2.87918e-09
2.99034e-09
3.08387e-09
3.17023e-09
3.21023e-09
1.28871e-09
1.42471e-09
1.72331e-09
2.12527e-09
2.61854e-09
2.79282e-09
2.99728e-09
3.11078e-09
3.21041e-09
3.26827e-09
1.10502e-09
1.25969e-09
1.60917e-09
2.09592e-09
2.8072e-09
2.4988e-09
2.87052e-09
3.07759e-09
3.25577e-09
3.36802e-09
1.00501e-09
1.13733e-09
1.46115e-09
1.83578e-09
2.05395e-09
3.00308e-09
2.96493e-09
3.03112e-09
3.17138e-09
3.28286e-09
9.17405e-10
1.05217e-09
1.35634e-09
1.75828e-09
2.10238e-09
2.60388e-09
2.73158e-09
2.88418e-09
3.01359e-09
3.0731e-09
8.3679e-10
9.65512e-10
1.23769e-09
1.61316e-09
2.01214e-09
2.36345e-09
2.55495e-09
2.72581e-09
2.83797e-09
2.89121e-09
7.78982e-10
8.92761e-10
1.13662e-09
1.47427e-09
1.85733e-09
2.17061e-09
2.38541e-09
2.56378e-09
2.68379e-09
2.75886e-09
7.44991e-10
8.49467e-10
1.07778e-09
1.38925e-09
1.73619e-09
2.0393e-09
2.26944e-09
2.46666e-09
2.61264e-09
2.70874e-09
1.68343e-09
1.82204e-09
2.11907e-09
2.50905e-09
2.92503e-09
3.2071e-09
3.38052e-09
3.53474e-09
3.65607e-09
3.70959e-09
1.65257e-09
1.80927e-09
2.12507e-09
2.52744e-09
2.95432e-09
3.2616e-09
3.42903e-09
3.59391e-09
3.723e-09
3.75931e-09
1.59984e-09
1.76007e-09
2.08366e-09
2.49514e-09
2.93557e-09
3.27671e-09
3.44349e-09
3.61746e-09
3.75726e-09
3.80042e-09
1.4863e-09
1.64994e-09
1.99789e-09
2.43323e-09
2.90849e-09
3.25829e-09
3.44901e-09
3.63493e-09
3.79981e-09
3.8654e-09
1.25157e-09
1.46813e-09
1.89141e-09
2.40545e-09
3.07171e-09
3.16129e-09
3.37137e-09
3.62441e-09
3.87803e-09
3.99041e-09
1.12774e-09
1.33937e-09
1.77963e-09
2.29856e-09
2.72224e-09
3.33856e-09
3.42137e-09
3.59198e-09
3.81699e-09
3.94516e-09
1.10608e-09
1.29628e-09
1.66431e-09
2.13567e-09
2.57532e-09
3.06809e-09
3.22793e-09
3.43065e-09
3.60979e-09
3.68936e-09
1.03493e-09
1.1995e-09
1.5248e-09
1.95452e-09
2.39712e-09
2.81841e-09
3.03297e-09
3.25774e-09
3.43901e-09
3.53217e-09
9.51564e-10
1.09278e-09
1.39057e-09
1.78133e-09
2.19015e-09
2.5811e-09
2.85012e-09
3.10931e-09
3.3188e-09
3.43434e-09
8.99046e-10
1.03475e-09
1.31808e-09
1.67865e-09
2.05394e-09
2.43648e-09
2.7469e-09
3.03562e-09
3.26359e-09
3.3767e-09
1.86135e-09
2.01526e-09
2.32458e-09
2.72483e-09
3.15713e-09
3.45697e-09
3.67549e-09
3.87337e-09
4.00895e-09
4.05148e-09
1.83301e-09
2.00433e-09
2.32422e-09
2.71977e-09
3.12698e-09
3.45364e-09
3.687e-09
3.89668e-09
4.03623e-09
4.068e-09
1.77449e-09
1.95021e-09
2.27316e-09
2.66856e-09
3.06735e-09
3.43093e-09
3.67864e-09
3.90917e-09
4.06815e-09
4.11553e-09
1.67011e-09
1.86144e-09
2.20762e-09
2.61635e-09
3.01804e-09
3.46338e-09
3.70129e-09
3.94771e-09
4.13483e-09
4.19399e-09
1.50932e-09
1.75887e-09
2.14566e-09
2.57199e-09
3.03e-09
3.55307e-09
3.744e-09
4.0218e-09
4.25485e-09
4.32319e-09
1.36208e-09
1.61935e-09
2.04197e-09
2.55971e-09
3.10965e-09
3.35695e-09
3.66538e-09
3.97045e-09
4.2248e-09
4.33125e-09
1.32881e-09
1.53563e-09
1.88953e-09
2.34916e-09
2.85496e-09
3.24403e-09
3.52928e-09
3.81348e-09
4.03473e-09
4.12407e-09
1.21511e-09
1.38556e-09
1.71475e-09
2.14779e-09
2.61728e-09
3.04385e-09
3.35901e-09
3.66719e-09
3.91271e-09
4.01652e-09
1.08313e-09
1.23643e-09
1.55734e-09
1.97272e-09
2.41436e-09
2.84839e-09
3.21486e-09
3.55985e-09
3.82824e-09
3.93311e-09
1.01161e-09
1.16887e-09
1.48371e-09
1.88263e-09
2.31454e-09
2.75031e-09
3.14196e-09
3.49567e-09
3.75364e-09
3.83127e-09
1.969e-09
2.11772e-09
2.414e-09
2.79308e-09
3.20598e-09
3.532e-09
3.79723e-09
4.02204e-09
4.15635e-09
4.20133e-09
1.93506e-09
2.09729e-09
2.39504e-09
2.75943e-09
3.13931e-09
3.48248e-09
3.78115e-09
4.01668e-09
4.1581e-09
4.21172e-09
1.88353e-09
2.0544e-09
2.34868e-09
2.71036e-09
3.08968e-09
3.44002e-09
3.77236e-09
4.03824e-09
4.20084e-09
4.26436e-09
1.83035e-09
2.02173e-09
2.32046e-09
2.68915e-09
3.08228e-09
3.47862e-09
3.81517e-09
4.10554e-09
4.2823e-09
4.3351e-09
1.82193e-09
2.02225e-09
2.30285e-09
2.6582e-09
3.0556e-09
3.60289e-09
3.928e-09
4.2346e-09
4.40808e-09
4.439e-09
1.6687e-09
1.87782e-09
2.17241e-09
2.58064e-09
3.11742e-09
3.41056e-09
3.82592e-09
4.16463e-09
4.37939e-09
4.45279e-09
1.49937e-09
1.67099e-09
1.96808e-09
2.38086e-09
2.89158e-09
3.28701e-09
3.66141e-09
3.99413e-09
4.22588e-09
4.30742e-09
1.30057e-09
1.45307e-09
1.76535e-09
2.18912e-09
2.67872e-09
3.09998e-09
3.50828e-09
3.86941e-09
4.12948e-09
4.20876e-09
1.12132e-09
1.27637e-09
1.60416e-09
2.03868e-09
2.53351e-09
2.9706e-09
3.40202e-09
3.7767e-09
4.03734e-09
4.10011e-09
1.04088e-09
1.20796e-09
1.5388e-09
1.97589e-09
2.47982e-09
2.91993e-09
3.33773e-09
3.69102e-09
3.92198e-09
3.95359e-09
1.9938e-09
2.10988e-09
2.38498e-09
2.74503e-09
3.15107e-09
3.53087e-09
3.85267e-09
4.11402e-09
4.27112e-09
4.34734e-09
1.93292e-09
2.06452e-09
2.34264e-09
2.69682e-09
3.08995e-09
3.48764e-09
3.83176e-09
4.10735e-09
4.27579e-09
4.36322e-09
1.89061e-09
2.03751e-09
2.30994e-09
2.6609e-09
3.05963e-09
3.46114e-09
3.82223e-09
4.1264e-09
4.30016e-09
4.37549e-09
1.87603e-09
2.03634e-09
2.29425e-09
2.64585e-09
3.07264e-09
3.49065e-09
3.84552e-09
4.1684e-09
4.334e-09
4.38527e-09
1.91561e-09
2.03636e-09
2.25155e-09
2.60396e-09
3.06832e-09
3.53555e-09
3.89663e-09
4.22643e-09
4.38014e-09
4.41555e-09
1.7692e-09
1.89885e-09
2.12352e-09
2.49135e-09
2.97712e-09
3.40431e-09
3.87868e-09
4.16438e-09
4.31542e-09
4.36543e-09
1.46125e-09
1.58803e-09
1.85511e-09
2.24321e-09
2.70599e-09
3.2328e-09
3.6141e-09
3.93236e-09
4.13989e-09
4.20417e-09
1.19967e-09
1.33704e-09
1.6467e-09
2.07131e-09
2.54771e-09
3.009e-09
3.42766e-09
3.77214e-09
3.99751e-09
4.05101e-09
1.00513e-09
1.1625e-09
1.49874e-09
1.951e-09
2.46895e-09
2.89801e-09
3.30977e-09
3.6441e-09
3.8602e-09
3.90152e-09
9.30718e-10
1.1028e-09
1.44662e-09
1.90885e-09
2.4408e-09
2.85213e-09
3.22581e-09
3.52931e-09
3.72342e-09
3.74409e-09
1.9699e-09
2.04962e-09
2.32025e-09
2.68793e-09
3.11769e-09
3.55532e-09
3.94781e-09
4.27899e-09
4.49057e-09
4.59695e-09
1.87035e-09
1.97929e-09
2.26196e-09
2.63291e-09
3.05126e-09
3.52232e-09
3.92125e-09
4.27346e-09
4.48543e-09
4.57811e-09
1.82292e-09
1.95338e-09
2.2288e-09
2.58172e-09
2.96979e-09
3.49507e-09
3.86442e-09
4.22876e-09
4.42123e-09
4.48869e-09
1.78477e-09
1.92128e-09
2.1719e-09
2.49924e-09
2.85777e-09
3.52801e-09
3.8006e-09
4.15658e-09
4.33353e-09
4.3904e-09
1.70838e-09
1.80925e-09
2.02277e-09
2.32581e-09
2.6318e-09
3.59356e-09
3.7541e-09
4.06095e-09
4.2386e-09
4.30274e-09
1.53039e-09
1.6429e-09
1.91665e-09
2.36929e-09
2.95228e-09
2.90178e-09
3.62912e-09
3.93895e-09
4.08229e-09
4.12997e-09
1.17599e-09
1.28839e-09
1.56385e-09
1.95166e-09
2.42291e-09
2.91661e-09
3.32372e-09
3.61849e-09
3.8012e-09
3.85946e-09
8.91961e-10
1.03381e-09
1.35709e-09
1.78165e-09
2.23865e-09
2.71093e-09
3.07726e-09
3.36707e-09
3.55621e-09
3.61409e-09
7.07991e-10
8.76931e-10
1.22591e-09
1.67832e-09
2.17189e-09
2.58342e-09
2.90643e-09
3.17784e-09
3.36826e-09
3.42541e-09
6.46834e-10
8.31117e-10
1.18391e-09
1.63461e-09
2.13253e-09
2.51227e-09
2.79359e-09
3.04938e-09
3.23426e-09
3.26903e-09
2.01063e-09
2.08449e-09
2.36345e-09
2.73763e-09
3.1672e-09
3.63802e-09
4.13517e-09
4.55631e-09
4.81093e-09
4.90991e-09
1.88412e-09
2.00035e-09
2.28884e-09
2.65592e-09
3.05906e-09
3.567e-09
4.07652e-09
4.50786e-09
4.73683e-09
4.80208e-09
1.80024e-09
1.93537e-09
2.20787e-09
2.53952e-09
2.87976e-09
3.47455e-09
3.91102e-09
4.32962e-09
4.53191e-09
4.58901e-09
1.67057e-09
1.80707e-09
2.05206e-09
2.33545e-09
2.56462e-09
3.47486e-09
3.69637e-09
4.08414e-09
4.29064e-09
4.36402e-09
1.41688e-09
1.54668e-09
1.76512e-09
1.9576e-09
1.90064e-09
3.68628e-09
3.6022e-09
3.85367e-09
4.0511e-09
4.13012e-09
1.12164e-09
1.25748e-09
1.57925e-09
2.11001e-09
2.93809e-09
2.04695e-09
3.09009e-09
3.52331e-09
3.72082e-09
3.782e-09
7.36737e-10
8.58384e-10
1.13886e-09
1.51246e-09
2.08862e-09
2.31127e-09
2.78222e-09
3.0877e-09
3.27477e-09
3.34508e-09
4.22092e-10
5.82679e-10
9.10294e-10
1.30618e-09
1.76692e-09
2.15243e-09
2.46089e-09
2.72062e-09
2.9097e-09
2.98918e-09
2.38605e-10
4.25927e-10
7.69124e-10
1.17534e-09
1.61307e-09
1.9811e-09
2.22047e-09
2.46847e-09
2.66562e-09
2.73571e-09
1.8079e-10
3.77844e-10
7.0618e-10
1.08698e-09
1.50511e-09
1.86193e-09
2.07746e-09
2.32671e-09
2.51282e-09
2.54033e-09
2.25654e-09
2.35612e-09
2.62557e-09
2.97321e-09
3.3711e-09
3.85989e-09
4.45907e-09
4.9242e-09
5.17046e-09
5.2427e-09
2.11065e-09
2.24346e-09
2.50291e-09
2.83122e-09
3.21906e-09
3.72937e-09
4.32971e-09
4.77114e-09
4.98254e-09
5.04092e-09
1.92899e-09
2.06254e-09
2.29693e-09
2.59861e-09
2.94499e-09
3.51175e-09
4.00888e-09
4.42756e-09
4.63712e-09
4.71646e-09
1.63345e-09
1.75883e-09
1.97273e-09
2.23711e-09
2.44989e-09
3.34903e-09
3.58523e-09
3.98589e-09
4.22756e-09
4.33015e-09
1.19409e-09
1.32304e-09
1.52226e-09
1.66269e-09
1.41245e-09
3.55473e-09
3.38082e-09
3.60015e-09
3.8017e-09
3.88302e-09
7.07224e-10
8.34499e-10
1.11946e-09
1.62208e-09
2.62781e-09
1.35895e-09
2.47662e-09
2.98939e-09
3.23221e-09
3.3082e-09
2.04636e-10
3.32926e-10
5.86684e-10
9.05778e-10
1.54839e-09
1.561e-09
2.05333e-09
2.38123e-09
2.58963e-09
2.67413e-09
-1.87949e-10
-1.45472e-11
2.78361e-10
5.94874e-10
1.02767e-09
1.32187e-09
1.6095e-09
1.88458e-09
2.09068e-09
2.17105e-09
-4.14939e-10
-2.26679e-10
5.65039e-11
3.56526e-10
7.07206e-10
1.03972e-09
1.28087e-09
1.55268e-09
1.74707e-09
1.79053e-09
-5.04959e-10
-3.2965e-10
-8.74208e-11
1.78046e-10
4.98736e-10
8.46099e-10
1.0982e-09
1.36397e-09
1.52013e-09
1.51865e-09
2.78004e-09
2.89797e-09
3.13129e-09
3.44967e-09
3.86096e-09
4.37147e-09
4.97879e-09
5.40547e-09
5.63024e-09
5.72068e-09
2.57374e-09
2.69299e-09
2.90328e-09
3.21655e-09
3.6534e-09
4.17106e-09
4.73178e-09
5.11952e-09
5.34166e-09
5.45829e-09
2.1979e-09
2.2969e-09
2.49056e-09
2.80527e-09
3.23008e-09
3.76748e-09
4.21981e-09
4.60591e-09
4.85607e-09
4.99403e-09
1.6382e-09
1.72267e-09
1.91026e-09
2.20342e-09
2.49651e-09
3.2883e-09
3.52617e-09
3.92101e-09
4.20299e-09
4.34236e-09
9.45081e-10
1.03064e-09
1.20577e-09
1.37062e-09
1.13345e-09
3.17378e-09
3.02659e-09
3.23099e-09
3.44117e-09
3.54524e-09
2.20171e-10
3.09134e-10
5.31485e-10
9.62718e-10
1.97082e-09
7.91689e-10
1.80923e-09
2.31978e-09
2.58202e-09
2.68381e-09
-4.71557e-10
-3.48744e-10
-1.4394e-10
1.00379e-10
6.99691e-10
6.67691e-10
1.16171e-09
1.50679e-09
1.73084e-09
1.82304e-09
-9.95134e-10
-8.36753e-10
-6.24504e-10
-4.16561e-10
-5.5495e-11
2.17359e-10
5.50297e-10
8.54216e-10
1.05217e-09
1.10782e-09
-1.33535e-09
-1.19124e-09
-1.01905e-09
-8.35434e-10
-5.56704e-10
-2.17719e-10
1.07367e-10
3.93897e-10
5.44419e-10
5.5372e-10
-1.51682e-09
-1.41391e-09
-1.2856e-09
-1.10651e-09
-8.27846e-10
-4.75738e-10
-1.33153e-10
1.1873e-10
2.23223e-10
2.2877e-10
3.57226e-09
3.67085e-09
3.8771e-09
4.21423e-09
4.68845e-09
5.22259e-09
5.76259e-09
6.15243e-09
6.42846e-09
6.60274e-09
3.2182e-09
3.29498e-09
3.49357e-09
3.85365e-09
4.35561e-09
4.88379e-09
5.36402e-09
5.74997e-09
6.06316e-09
6.26618e-09
2.55037e-09
2.60782e-09
2.81424e-09
3.18903e-09
3.67707e-09
4.2094e-09
4.62536e-09
5.03249e-09
5.36343e-09
5.55345e-09
1.63003e-09
1.68482e-09
1.89424e-09
2.24052e-09
2.59795e-09
3.3094e-09
3.59255e-09
3.99787e-09
4.3255e-09
4.49821e-09
5.6854e-10
6.35757e-10
8.23081e-10
1.03885e-09
8.59453e-10
2.66666e-09
2.63252e-09
2.83427e-09
3.07635e-09
3.23192e-09
-4.61147e-10
-3.90885e-10
-1.92899e-10
1.87935e-10
1.09225e-09
1.47053e-10
1.02615e-09
1.51929e-09
1.82616e-09
1.98356e-09
-1.37127e-09
-1.25875e-09
-1.0996e-09
-9.06485e-10
-3.66753e-10
-4.12113e-10
1.13569e-10
4.85375e-10
7.23488e-10
8.2569e-10
-2.10132e-09
-1.98709e-09
-1.86442e-09
-1.72489e-09
-1.37909e-09
-1.11875e-09
-6.9893e-10
-3.83174e-10
-2.14608e-10
-1.68604e-10
-2.64531e-09
-2.57541e-09
-2.49729e-09
-2.35156e-09
-2.03695e-09
-1.68689e-09
-1.29215e-09
-1.03219e-09
-9.24363e-10
-8.95498e-10
-2.97286e-09
-2.94561e-09
-2.87608e-09
-2.68454e-09
-2.33429e-09
-1.98041e-09
-1.61907e-09
-1.40503e-09
-1.30852e-09
-1.24864e-09
4.66005e-09
4.72532e-09
4.9542e-09
5.34919e-09
5.84469e-09
6.41418e-09
6.9603e-09
7.42659e-09
7.83095e-09
8.08603e-09
4.08388e-09
4.14031e-09
4.38839e-09
4.81034e-09
5.3141e-09
5.86215e-09
6.40352e-09
6.90632e-09
7.33816e-09
7.5775e-09
3.06293e-09
3.12113e-09
3.38731e-09
3.81358e-09
4.31468e-09
4.84115e-09
5.37947e-09
5.886e-09
6.28976e-09
6.49218e-09
1.70803e-09
1.78103e-09
2.0426e-09
2.43606e-09
2.8668e-09
3.43732e-09
3.9067e-09
4.3745e-09
4.74693e-09
4.94189e-09
1.72147e-10
2.786e-10
5.11637e-10
8.07603e-10
8.2468e-10
2.08968e-09
2.32664e-09
2.63443e-09
2.94525e-09
3.141e-09
-1.28252e-09
-1.19356e-09
-1.00157e-09
-6.88786e-10
1.19352e-11
-3.35518e-10
3.30452e-10
8.05463e-10
1.16849e-09
1.36787e-09
-2.51661e-09
-2.41455e-09
-2.28418e-09
-2.10364e-09
-1.6231e-09
-1.53522e-09
-9.97515e-10
-5.93042e-10
-3.36807e-10
-2.19168e-10
-3.58705e-09
-3.5193e-09
-3.44098e-09
-3.28529e-09
-2.88235e-09
-2.60306e-09
-2.12499e-09
-1.80185e-09
-1.63433e-09
-1.55278e-09
-4.4305e-09
-4.40872e-09
-4.34317e-09
-4.138e-09
-3.7095e-09
-3.35359e-09
-2.95252e-09
-2.70203e-09
-2.56856e-09
-2.47929e-09
-4.92699e-09
-4.91664e-09
-4.8183e-09
-4.54971e-09
-4.09688e-09
-3.73754e-09
-3.41077e-09
-3.17732e-09
-3.02612e-09
-2.92771e-09
6.22998e-09
6.3007e-09
6.59827e-09
7.04744e-09
7.52776e-09
8.16999e-09
8.85157e-09
9.47536e-09
9.98346e-09
1.02506e-08
5.40746e-09
5.49886e-09
5.81654e-09
6.26979e-09
6.75981e-09
7.39157e-09
8.10835e-09
8.75536e-09
9.2441e-09
9.46904e-09
3.98186e-09
4.08181e-09
4.3976e-09
4.84179e-09
5.35757e-09
5.96759e-09
6.68623e-09
7.30093e-09
7.74156e-09
7.94844e-09
2.09417e-09
2.20506e-09
2.49394e-09
2.90687e-09
3.42244e-09
3.9714e-09
4.64186e-09
5.21425e-09
5.63184e-09
5.8449e-09
-4.16771e-11
9.42243e-11
3.29742e-10
6.80517e-10
9.81652e-10
1.7204e-09
2.28389e-09
2.80111e-09
3.18664e-09
3.38541e-09
-2.10371e-09
-1.99113e-09
-1.81047e-09
-1.55096e-09
-1.08136e-09
-7.31436e-10
-9.93941e-11
3.90348e-10
7.58584e-10
9.41469e-10
-3.9142e-09
-3.82815e-09
-3.70278e-09
-3.48937e-09
-3.08163e-09
-2.65145e-09
-2.09124e-09
-1.6488e-09
-1.36764e-09
-1.22241e-09
-5.51053e-09
-5.46227e-09
-5.36049e-09
-5.12541e-09
-4.68533e-09
-4.26173e-09
-3.74706e-09
-3.378e-09
-3.15363e-09
-3.01523e-09
-6.74232e-09
-6.70998e-09
-6.58595e-09
-6.29595e-09
-5.8149e-09
-5.3888e-09
-4.95477e-09
-4.62706e-09
-4.41223e-09
-4.28585e-09
-7.41908e-09
-7.36925e-09
-7.20701e-09
-6.88742e-09
-6.42358e-09
-6.00393e-09
-5.60551e-09
-5.26967e-09
-5.05674e-09
-4.94178e-09
8.609e-09
8.73125e-09
9.10203e-09
9.60473e-09
1.01524e-08
1.09007e-08
1.17392e-08
1.24759e-08
1.301e-08
1.32642e-08
7.51384e-09
7.65905e-09
8.0276e-09
8.5254e-09
9.09598e-09
9.86847e-09
1.07159e-08
1.14373e-08
1.19419e-08
1.21879e-08
5.56515e-09
5.70183e-09
6.05382e-09
6.546e-09
7.13233e-09
7.9405e-09
8.7508e-09
9.44603e-09
9.93496e-09
1.01901e-08
2.95934e-09
3.09195e-09
3.40416e-09
3.84987e-09
4.40485e-09
5.26937e-09
6.00566e-09
6.68612e-09
7.16806e-09
7.41587e-09
-4.59836e-12
1.09801e-10
3.24026e-10
6.86943e-10
1.07719e-09
2.15722e-09
2.8095e-09
3.44816e-09
3.8875e-09
4.10746e-09
-2.94485e-09
-2.83196e-09
-2.61229e-09
-2.229e-09
-1.66129e-09
-1.3813e-09
-3.81533e-10
2.24853e-10
6.06564e-10
7.97013e-10
-5.64158e-09
-5.56279e-09
-5.3822e-09
-5.04732e-09
-4.55905e-09
-3.93796e-09
-3.24054e-09
-2.71022e-09
-2.36269e-09
-2.164e-09
-7.9706e-09
-7.90125e-09
-7.71283e-09
-7.36106e-09
-6.87031e-09
-6.26499e-09
-5.65318e-09
-5.17667e-09
-4.86033e-09
-4.67947e-09
-9.69792e-09
-9.61491e-09
-9.40628e-09
-9.04394e-09
-8.55698e-09
-7.98726e-09
-7.41439e-09
-6.95611e-09
-6.66637e-09
-6.51006e-09
-1.06062e-08
-1.0507e-08
-1.02887e-08
-9.93825e-09
-9.48053e-09
-8.93372e-09
-8.34424e-09
-7.90013e-09
-7.62465e-09
-7.45336e-09
1.21434e-08
1.2312e-08
1.27437e-08
1.33438e-08
1.40627e-08
1.49361e-08
1.58849e-08
1.66798e-08
1.72485e-08
1.75535e-08
1.06701e-08
1.08421e-08
1.1274e-08
1.18949e-08
1.26374e-08
1.35373e-08
1.44694e-08
1.52566e-08
1.58381e-08
1.61734e-08
7.9904e-09
8.15599e-09
8.59805e-09
9.23025e-09
9.95795e-09
1.09239e-08
1.18194e-08
1.2626e-08
1.32231e-08
1.35555e-08
4.39104e-09
4.56236e-09
4.98387e-09
5.56349e-09
6.19843e-09
7.40436e-09
8.19047e-09
8.99323e-09
9.58237e-09
9.88902e-09
2.35601e-10
3.74344e-10
7.11004e-10
1.20089e-09
1.57425e-09
3.48371e-09
4.02075e-09
4.7042e-09
5.24543e-09
5.54183e-09
-3.9548e-09
-3.81392e-09
-3.43098e-09
-2.7463e-09
-1.70064e-09
-1.94126e-09
-5.84664e-10
2.33031e-10
7.54558e-10
1.04248e-09
-7.83739e-09
-7.71172e-09
-7.37555e-09
-6.82669e-09
-6.04378e-09
-5.48169e-09
-4.58098e-09
-3.88699e-09
-3.41485e-09
-3.15432e-09
-1.11488e-08
-1.10112e-08
-1.06768e-08
-1.01622e-08
-9.49282e-09
-8.77983e-09
-8.01159e-09
-7.39907e-09
-6.98696e-09
-6.75755e-09
-1.35499e-08
-1.3398e-08
-1.308e-08
-1.25991e-08
-1.19855e-08
-1.12664e-08
-1.05331e-08
-9.97172e-09
-9.59725e-09
-9.35679e-09
-1.48051e-08
-1.46567e-08
-1.43544e-08
-1.38877e-08
-1.32791e-08
-1.25882e-08
-1.18675e-08
-1.13413e-08
-1.09474e-08
-1.06971e-08
1.7178e-08
1.73664e-08
1.78885e-08
1.86464e-08
1.95375e-08
2.05734e-08
2.16576e-08
2.2569e-08
2.32627e-08
2.36671e-08
1.51563e-08
1.53601e-08
1.59211e-08
1.67234e-08
1.76386e-08
1.86677e-08
1.976e-08
2.07067e-08
2.14345e-08
2.18475e-08
1.14927e-08
1.17316e-08
1.23364e-08
1.31554e-08
1.40626e-08
1.51243e-08
1.62203e-08
1.72067e-08
1.79348e-08
1.83172e-08
6.5449e-09
6.81612e-09
7.43092e-09
8.22557e-09
9.05514e-09
1.03535e-08
1.13465e-08
1.23293e-08
1.30527e-08
1.34207e-08
7.26195e-10
1.00611e-09
1.62234e-09
2.37913e-09
2.86468e-09
5.06132e-09
5.74029e-09
6.61768e-09
7.32322e-09
7.67713e-09
-5.18902e-09
-4.92839e-09
-4.29162e-09
-3.35043e-09
-1.96951e-09
-2.12487e-09
-6.42429e-10
4.28956e-10
1.15266e-09
1.52105e-09
-1.06586e-08
-1.04113e-08
-9.84812e-09
-9.06659e-09
-7.98476e-09
-7.34315e-09
-6.25872e-09
-5.3779e-09
-4.77063e-09
-4.45301e-09
-1.53153e-08
-1.50614e-08
-1.45333e-08
-1.38013e-08
-1.2855e-08
-1.20202e-08
-1.11063e-08
-1.03659e-08
-9.83211e-09
-9.50715e-09
-1.86761e-08
-1.84304e-08
-1.79491e-08
-1.72486e-08
-1.63629e-08
-1.54984e-08
-1.46718e-08
-1.401e-08
-1.34801e-08
-1.31415e-08
-2.0447e-08
-2.02184e-08
-1.97499e-08
-1.90389e-08
-1.81514e-08
-1.73106e-08
-1.65558e-08
-1.59016e-08
-1.53587e-08
-1.50604e-08
2.41989e-08
2.44376e-08
2.51157e-08
2.60617e-08
2.71014e-08
2.83533e-08
2.96608e-08
3.07784e-08
3.16245e-08
3.20834e-08
2.14587e-08
2.17593e-08
2.24949e-08
2.34758e-08
2.45626e-08
2.57937e-08
2.71353e-08
2.82926e-08
2.91359e-08
2.95636e-08
1.64927e-08
1.68554e-08
1.76259e-08
1.86178e-08
1.97369e-08
2.09855e-08
2.23348e-08
2.35027e-08
2.43216e-08
2.47344e-08
9.69766e-09
1.0095e-08
1.08906e-08
1.19005e-08
1.29984e-08
1.43915e-08
1.56716e-08
1.68477e-08
1.76816e-08
1.81019e-08
1.61849e-09
2.07105e-09
2.93956e-09
3.95967e-09
4.74288e-09
6.82067e-09
7.94686e-09
9.09166e-09
9.90827e-09
1.02872e-08
-6.65558e-09
-6.22409e-09
-5.34768e-09
-4.23551e-09
-2.75304e-09
-2.28326e-09
-6.34123e-10
6.24076e-10
1.46158e-09
1.85412e-09
-1.43348e-08
-1.39257e-08
-1.3131e-08
-1.2111e-08
-1.0785e-08
-9.79335e-09
-8.54633e-09
-7.51738e-09
-6.7751e-09
-6.36713e-09
-2.08655e-08
-2.04653e-08
-1.97189e-08
-1.87177e-08
-1.7488e-08
-1.64239e-08
-1.53649e-08
-1.44625e-08
-1.37386e-08
-1.33077e-08
-2.55978e-08
-2.52278e-08
-2.45225e-08
-2.35265e-08
-2.235e-08
-2.1292e-08
-2.03399e-08
-1.94804e-08
-1.87628e-08
-1.8379e-08
-2.81062e-08
-2.77492e-08
-2.7033e-08
-2.60291e-08
-2.48818e-08
-2.38274e-08
-2.29423e-08
-2.20836e-08
-2.14211e-08
-2.1069e-08
3.39466e-08
3.43094e-08
3.51761e-08
3.63238e-08
3.75779e-08
3.90834e-08
4.06544e-08
4.19713e-08
4.29042e-08
4.33663e-08
3.02813e-08
3.07199e-08
3.1615e-08
3.27861e-08
3.41246e-08
3.56315e-08
3.72152e-08
3.85281e-08
3.94286e-08
3.98794e-08
2.35057e-08
2.39816e-08
2.489e-08
2.60937e-08
2.75201e-08
2.90755e-08
3.06124e-08
3.19046e-08
3.27987e-08
3.32752e-08
1.41302e-08
1.46271e-08
1.55798e-08
1.68491e-08
1.83244e-08
2.00158e-08
2.14696e-08
2.27764e-08
2.37012e-08
2.41838e-08
2.99476e-09
3.57089e-09
4.61613e-09
5.93604e-09
7.27694e-09
9.503e-09
1.08089e-08
1.20664e-08
1.29644e-08
1.34486e-08
-8.51329e-09
-7.93497e-09
-6.85557e-09
-5.433e-09
-3.54956e-09
-2.59746e-09
-8.09881e-10
4.99172e-10
1.42339e-09
1.91777e-09
-1.92703e-08
-1.87066e-08
-1.76885e-08
-1.63478e-08
-1.4678e-08
-1.32578e-08
-1.18592e-08
-1.06734e-08
-9.74104e-09
-9.22029e-09
-2.84198e-08
-2.78754e-08
-2.68881e-08
-2.55607e-08
-2.4026e-08
-2.26147e-08
-2.13238e-08
-2.01572e-08
-1.92174e-08
-1.87378e-08
-3.50878e-08
-3.45727e-08
-3.35923e-08
-3.22743e-08
-3.081e-08
-2.9437e-08
-2.81912e-08
-2.70393e-08
-2.61724e-08
-2.57431e-08
-3.86194e-08
-3.80935e-08
-3.70981e-08
-3.58176e-08
-3.44028e-08
-3.30077e-08
-3.17906e-08
-3.06898e-08
-2.9881e-08
-2.94322e-08
4.73744e-08
4.78955e-08
4.89528e-08
5.03595e-08
5.19445e-08
5.37195e-08
5.5542e-08
5.70017e-08
5.79908e-08
5.84876e-08
4.24226e-08
4.29813e-08
4.40444e-08
4.54941e-08
4.71868e-08
4.90063e-08
5.07928e-08
5.22245e-08
5.32115e-08
5.37415e-08
3.30732e-08
3.36391e-08
3.47347e-08
3.62678e-08
3.80931e-08
4.00097e-08
4.16901e-08
4.31131e-08
4.41308e-08
4.46859e-08
2.01231e-08
2.07182e-08
2.18878e-08
2.35197e-08
2.54408e-08
2.75701e-08
2.91249e-08
3.05653e-08
3.16169e-08
3.21769e-08
4.84396e-09
5.51532e-09
6.76384e-09
8.46957e-09
1.0355e-08
1.31891e-08
1.44147e-08
1.57594e-08
1.68373e-08
1.74738e-08
-1.10945e-08
-1.03976e-08
-9.09278e-09
-7.1663e-09
-4.58602e-09
-3.49336e-09
-1.53376e-09
-7.12221e-11
1.06079e-09
1.72396e-09
-2.61132e-08
-2.54189e-08
-2.41428e-08
-2.23755e-08
-2.021e-08
-1.84144e-08
-1.67179e-08
-1.5238e-08
-1.40785e-08
-1.34952e-08
-3.89151e-08
-3.82336e-08
-3.69498e-08
-3.5227e-08
-3.32696e-08
-3.13918e-08
-2.96937e-08
-2.81768e-08
-2.7061e-08
-2.65384e-08
-4.82579e-08
-4.75689e-08
-4.62706e-08
-4.45966e-08
-4.27295e-08
-4.08592e-08
-3.91534e-08
-3.7681e-08
-3.66331e-08
-3.6086e-08
-5.31699e-08
-5.24522e-08
-5.11805e-08
-4.95651e-08
-4.77336e-08
-4.5846e-08
-4.41599e-08
-4.27432e-08
-4.16817e-08
-4.11217e-08
6.56396e-08
6.63218e-08
6.76338e-08
6.94285e-08
7.14758e-08
7.35291e-08
7.55945e-08
7.71986e-08
7.82891e-08
7.88564e-08
5.88544e-08
5.95472e-08
6.08905e-08
6.27557e-08
6.48977e-08
6.70444e-08
6.90571e-08
7.0662e-08
7.17877e-08
7.23783e-08
4.59409e-08
4.66501e-08
4.80653e-08
5.00382e-08
5.22921e-08
5.45869e-08
5.65232e-08
5.81624e-08
5.93266e-08
5.99257e-08
2.81195e-08
2.88758e-08
3.03707e-08
3.24342e-08
3.4765e-08
3.73417e-08
3.92188e-08
4.08953e-08
4.21062e-08
4.27282e-08
7.15894e-09
7.95057e-09
9.49918e-09
1.16244e-08
1.38146e-08
1.73795e-08
1.89541e-08
2.05565e-08
2.1835e-08
2.25036e-08
-1.48664e-08
-1.40362e-08
-1.24331e-08
-9.987e-09
-6.8345e-09
-5.51548e-09
-3.02891e-09
-1.14481e-09
2.29003e-10
9.67163e-10
-3.57612e-08
-3.49209e-08
-3.32872e-08
-3.10007e-08
-2.82107e-08
-2.60307e-08
-2.37528e-08
-2.18319e-08
-2.04646e-08
-1.98217e-08
-5.3595e-08
-5.27306e-08
-5.10536e-08
-4.88287e-08
-4.62423e-08
-4.37917e-08
-4.1494e-08
-3.95729e-08
-3.8234e-08
-3.75705e-08
-6.65637e-08
-6.56514e-08
-6.39837e-08
-6.18168e-08
-5.93179e-08
-5.67801e-08
-5.44957e-08
-5.26136e-08
-5.12407e-08
-5.0536e-08
-7.33413e-08
-7.24268e-08
-7.08147e-08
-6.86632e-08
-6.61792e-08
-6.36496e-08
-6.13823e-08
-5.94826e-08
-5.80795e-08
-5.73822e-08
9.03149e-08
9.12145e-08
9.29346e-08
9.52724e-08
9.79315e-08
1.00335e-07
1.02621e-07
1.04407e-07
1.0561e-07
1.06204e-07
8.10079e-08
8.19339e-08
8.37216e-08
8.61298e-08
8.88324e-08
9.13545e-08
9.3658e-08
9.54838e-08
9.6715e-08
9.73091e-08
6.32742e-08
6.42395e-08
6.61095e-08
6.86103e-08
7.13757e-08
7.40698e-08
7.64372e-08
7.83338e-08
7.96151e-08
8.02412e-08
3.88242e-08
3.98357e-08
4.17765e-08
4.43759e-08
4.72607e-08
5.01941e-08
5.26609e-08
5.46347e-08
5.59962e-08
5.66508e-08
1.0014e-08
1.10236e-08
1.30478e-08
1.57803e-08
1.861e-08
2.24262e-08
2.47752e-08
2.67465e-08
2.81681e-08
2.88207e-08
-2.03746e-08
-1.93212e-08
-1.72551e-08
-1.42594e-08
-1.05868e-08
-8.26776e-09
-5.24538e-09
-2.92264e-09
-1.3824e-09
-6.1252e-10
-4.93073e-08
-4.82154e-08
-4.60535e-08
-4.31021e-08
-3.95815e-08
-3.66687e-08
-3.36932e-08
-3.12737e-08
-2.96396e-08
-2.88294e-08
-7.39896e-08
-7.28364e-08
-7.0636e-08
-6.77106e-08
-6.42664e-08
-6.10318e-08
-5.8009e-08
-5.5552e-08
-5.38155e-08
-5.29457e-08
-9.18892e-08
-9.07024e-08
-8.85307e-08
-8.56047e-08
-8.22002e-08
-7.87991e-08
-7.57961e-08
-7.32833e-08
-7.14616e-08
-7.05758e-08
-1.01261e-07
-1.0011e-07
-9.79579e-08
-9.50111e-08
-9.16129e-08
-8.82316e-08
-8.5184e-08
-8.25918e-08
-8.07637e-08
-7.98414e-08
1.23669e-07
1.24905e-07
1.27206e-07
1.30222e-07
1.33582e-07
1.36518e-07
1.39024e-07
1.40975e-07
1.42218e-07
1.42792e-07
1.10964e-07
1.12245e-07
1.14617e-07
1.1769e-07
1.21063e-07
1.24116e-07
1.26748e-07
1.2875e-07
1.30029e-07
1.3063e-07
8.67169e-08
8.80442e-08
9.04927e-08
9.3664e-08
9.71298e-08
1.00365e-07
1.03183e-07
1.05308e-07
1.06701e-07
1.07363e-07
5.32211e-08
5.45933e-08
5.71405e-08
6.04832e-08
6.41974e-08
6.76418e-08
7.06597e-08
7.29485e-08
7.44654e-08
7.51728e-08
1.36239e-08
1.50217e-08
1.77556e-08
2.1359e-08
2.52643e-08
2.92545e-08
3.2347e-08
3.47691e-08
3.64033e-08
3.71746e-08
-2.81901e-08
-2.67397e-08
-2.39226e-08
-2.01243e-08
-1.57429e-08
-1.19771e-08
-8.45057e-09
-5.67949e-09
-3.86552e-09
-2.9334e-09
-6.80805e-08
-6.65736e-08
-6.36774e-08
-5.98204e-08
-5.53876e-08
-5.12921e-08
-4.75099e-08
-4.44584e-08
-4.23788e-08
-4.13263e-08
-1.02105e-07
-1.00554e-07
-9.76323e-08
-9.37033e-08
-8.91607e-08
-8.47798e-08
-8.08445e-08
-7.759e-08
-7.53034e-08
-7.41931e-08
-1.2682e-07
-1.25276e-07
-1.22338e-07
-1.18347e-07
-1.13781e-07
-1.092e-07
-1.05155e-07
-1.01733e-07
-9.93521e-08
-9.81597e-08
-1.39817e-07
-1.38292e-07
-1.35344e-07
-1.3134e-07
-1.26787e-07
-1.22203e-07
-1.17971e-07
-1.14451e-07
-1.12022e-07
-1.10741e-07
1.68839e-07
1.70548e-07
1.73618e-07
1.775e-07
1.81645e-07
1.85279e-07
1.88065e-07
1.90075e-07
1.91271e-07
1.91823e-07
1.51538e-07
1.5329e-07
1.56421e-07
1.60376e-07
1.64589e-07
1.68348e-07
1.71291e-07
1.73382e-07
1.74687e-07
1.753e-07