/*--------------------------------*- C++ -*----------------------------------*\
  =========                 |
  \\      /  F ield         | OpenFOAM: The Open Source CFD Toolbox
   \\    /   O peration     | Website:  https://openfoam.org
    \\  /    A nd           | Version:  9
     \\/     M anipulation  |
\*---------------------------------------------------------------------------*/
FoamFile
{
    format      ascii;
    class       volVectorField;
    location    "0.05";
    object      stored_U;
}
// * * * * * * * * * * * * * * * * * * * * * * * * * * * * * * * * * * * * * //

dimensions      [0 1 -1 0 0 0 0];

internalField   nonuniform List<vector> 
9000
(
(-2.3653e-11 -2.94215e-11 -0.000999998)
(-6.49677e-11 -2.97526e-11 -0.000999998)
(-9.55421e-11 -2.90501e-11 -0.000999998)
(-1.12461e-10 -2.89886e-11 -0.000999998)
(-1.34988e-10 -3.1024e-11 -0.000999998)
(-1.53761e-10 -3.09773e-11 -0.000999999)
(-1.42089e-10 -2.93809e-11 -0.000999999)
(-1.12866e-10 -2.95308e-11 -0.000999999)
(-7.28076e-11 -2.88091e-11 -0.000999999)
(-2.50278e-11 -2.80268e-11 -0.000999999)
(-2.39747e-11 -8.54599e-11 -0.000999998)
(-6.46874e-11 -8.74861e-11 -0.000999998)
(-9.49929e-11 -8.74079e-11 -0.000999998)
(-1.14669e-10 -8.89423e-11 -0.000999998)
(-1.37253e-10 -9.29883e-11 -0.000999999)
(-1.52436e-10 -9.86887e-11 -0.000999999)
(-1.40949e-10 -8.87486e-11 -0.000999999)
(-1.12533e-10 -8.69322e-11 -0.000999999)
(-7.14894e-11 -8.44244e-11 -0.000999999)
(-2.43317e-11 -8.26794e-11 -0.001)
(-2.55433e-11 -1.33275e-10 -0.000999998)
(-6.68824e-11 -1.362e-10 -0.000999998)
(-9.72124e-11 -1.37276e-10 -0.000999998)
(-1.1828e-10 -1.39637e-10 -0.000999999)
(-1.45024e-10 -1.39986e-10 -0.000999999)
(-1.49859e-10 -1.63938e-10 -0.000999999)
(-1.30649e-10 -1.39406e-10 -0.000999999)
(-1.08793e-10 -1.35073e-10 -0.001)
(-6.88698e-11 -1.32582e-10 -0.001)
(-2.34838e-11 -1.31066e-10 -0.001)
(-2.66288e-11 -1.74079e-10 -0.000999998)
(-6.84201e-11 -1.72789e-10 -0.000999998)
(-9.84316e-11 -1.69307e-10 -0.000999999)
(-1.17393e-10 -1.63412e-10 -0.000999999)
(-1.61639e-10 -1.4461e-10 -0.000999999)
(-1.51909e-10 -2.20286e-10 -0.000999999)
(-1.12103e-10 -1.82035e-10 -0.001)
(-1.05727e-10 -1.76028e-10 -0.001)
(-6.77493e-11 -1.76868e-10 -0.001)
(-2.30669e-11 -1.76873e-10 -0.001)
(-2.39486e-11 -1.77696e-10 -0.000999999)
(-6.17867e-11 -1.79576e-10 -0.000999999)
(-8.78201e-11 -1.83946e-10 -0.000999999)
(-9.35482e-11 -1.97443e-10 -0.000999999)
(-2.01957e-10 -2.38728e-10 -0.000999999)
(-1.87521e-10 -1.1261e-10 -0.001)
(-8.65191e-11 -1.79006e-10 -0.001)
(-1.03645e-10 -1.8553e-10 -0.001)
(-7.00714e-11 -1.88479e-10 -0.001)
(-2.3821e-11 -1.89666e-10 -0.001)
(-2.8183e-11 -1.51305e-10 -0.000999999)
(-7.43239e-11 -1.53727e-10 -0.000999999)
(-1.16195e-10 -1.5821e-10 -0.000999999)
(-1.72047e-10 -1.66923e-10 -0.001)
(-7.68095e-11 -2.03154e-10 -0.001)
(-9.25047e-11 -1.1117e-10 -0.001)
(-1.85096e-10 -1.62793e-10 -0.001)
(-1.15249e-10 -1.6769e-10 -0.001)
(-7.22752e-11 -1.67451e-10 -0.001)
(-2.46467e-11 -1.66155e-10 -0.001)
(-2.60411e-11 -1.32745e-10 -0.000999999)
(-6.8353e-11 -1.29902e-10 -0.000999999)
(-1.00988e-10 -1.26757e-10 -0.001)
(-1.38282e-10 -1.14718e-10 -0.001)
(-1.4585e-10 -8.45155e-11 -0.001)
(-1.47182e-10 -1.87486e-10 -0.001)
(-1.43295e-10 -1.49422e-10 -0.001)
(-1.08311e-10 -1.48509e-10 -0.001)
(-6.88834e-11 -1.49452e-10 -0.001)
(-2.28995e-11 -1.48607e-10 -0.001)
(-2.50254e-11 -1.07194e-10 -0.001)
(-6.80154e-11 -1.05609e-10 -0.001)
(-1.00996e-10 -1.06328e-10 -0.001)
(-1.29779e-10 -1.05676e-10 -0.001)
(-1.49553e-10 -9.53861e-11 -0.001)
(-1.57175e-10 -1.08946e-10 -0.001)
(-1.46094e-10 -1.10225e-10 -0.001)
(-1.15275e-10 -1.17711e-10 -0.001)
(-7.27346e-11 -1.21948e-10 -0.001)
(-2.4164e-11 -1.2382e-10 -0.001)
(-2.41861e-11 -6.84431e-11 -0.001)
(-6.72158e-11 -6.7308e-11 -0.001)
(-1.01034e-10 -6.742e-11 -0.001)
(-1.2732e-10 -6.75711e-11 -0.001)
(-1.49057e-10 -6.48915e-11 -0.001)
(-1.61981e-10 -6.70109e-11 -0.001)
(-1.52035e-10 -7.19936e-11 -0.001)
(-1.20034e-10 -7.61205e-11 -0.001)
(-7.52719e-11 -7.80521e-11 -0.001)
(-2.50351e-11 -7.8734e-11 -0.001)
(-2.36821e-11 -2.35392e-11 -0.001)
(-6.66913e-11 -2.31329e-11 -0.001)
(-1.01036e-10 -2.32013e-11 -0.001)
(-1.26981e-10 -2.33448e-11 -0.001)
(-1.48675e-10 -2.31168e-11 -0.001)
(-1.63889e-10 -2.32614e-11 -0.001)
(-1.54827e-10 -2.53892e-11 -0.001)
(-1.21061e-10 -2.641e-11 -0.001)
(-7.5355e-11 -2.66777e-11 -0.001)
(-2.49753e-11 -2.66056e-11 -0.001)
(-6.76332e-11 -8.42057e-11 -0.000999998)
(-1.84655e-10 -8.47244e-11 -0.000999998)
(-2.70919e-10 -8.30708e-11 -0.000999998)
(-3.21641e-10 -8.39356e-11 -0.000999998)
(-3.80882e-10 -9.14174e-11 -0.000999998)
(-4.33068e-10 -8.90569e-11 -0.000999999)
(-4.01509e-10 -8.39412e-11 -0.000999999)
(-3.13345e-10 -8.18361e-11 -0.000999999)
(-2.00511e-10 -7.90185e-11 -0.000999999)
(-6.87304e-11 -7.69694e-11 -0.000999999)
(-6.81227e-11 -2.41751e-10 -0.000999998)
(-1.83727e-10 -2.45791e-10 -0.000999998)
(-2.70646e-10 -2.46296e-10 -0.000999998)
(-3.30599e-10 -2.52896e-10 -0.000999998)
(-3.86731e-10 -2.67726e-10 -0.000999998)
(-4.26426e-10 -2.76325e-10 -0.000999999)
(-3.95084e-10 -2.50814e-10 -0.000999999)
(-3.09032e-10 -2.42159e-10 -0.000999999)
(-1.96138e-10 -2.3464e-10 -0.000999999)
(-6.69333e-11 -2.29901e-10 -0.001)
(-7.13316e-11 -3.73088e-10 -0.000999998)
(-1.89098e-10 -3.78754e-10 -0.000999998)
(-2.7855e-10 -3.83556e-10 -0.000999998)
(-3.43694e-10 -3.94555e-10 -0.000999998)
(-4.05064e-10 -4.01707e-10 -0.000999999)
(-4.17037e-10 -4.51809e-10 -0.000999999)
(-3.68164e-10 -3.92638e-10 -0.000999999)
(-2.97818e-10 -3.77907e-10 -0.001)
(-1.89084e-10 -3.70104e-10 -0.001)
(-6.45526e-11 -3.64532e-10 -0.001)
(-7.31086e-11 -4.81797e-10 -0.000999998)
(-1.93503e-10 -4.77166e-10 -0.000999998)
(-2.8645e-10 -4.7307e-10 -0.000999998)
(-3.48782e-10 -4.66819e-10 -0.000999999)
(-4.43956e-10 -4.08252e-10 -0.000999999)
(-4.1736e-10 -6.30575e-10 -0.000999999)
(-3.21211e-10 -5.22118e-10 -0.001)
(-2.8655e-10 -4.96535e-10 -0.001)
(-1.83485e-10 -4.88683e-10 -0.001)
(-6.20637e-11 -4.81838e-10 -0.001)
(-6.58906e-11 -4.98886e-10 -0.000999999)
(-1.79501e-10 -5.009e-10 -0.000999999)
(-2.68178e-10 -5.10667e-10 -0.000999999)
(-2.78912e-10 -5.4121e-10 -0.000999999)
(-5.68848e-10 -6.68605e-10 -0.000999999)
(-5.30694e-10 -3.34673e-10 -0.001)
(-2.33998e-10 -4.93413e-10 -0.001)
(-2.64409e-10 -5.17462e-10 -0.001)
(-1.75295e-10 -5.27645e-10 -0.001)
(-5.86257e-11 -5.29598e-10 -0.001)
(-7.42414e-11 -4.35311e-10 -0.000999999)
(-2.04352e-10 -4.42034e-10 -0.000999999)
(-3.26814e-10 -4.51771e-10 -0.000999999)
(-5.06795e-10 -4.68754e-10 -0.000999999)
(-2.37424e-10 -5.83816e-10 -0.001)
(-2.42247e-10 -3.04558e-10 -0.001)
(-5.03984e-10 -4.47156e-10 -0.001)
(-3.20773e-10 -4.74499e-10 -0.001)
(-1.96631e-10 -4.83502e-10 -0.001)
(-6.49702e-11 -4.8406e-10 -0.001)
(-7.17042e-11 -3.83312e-10 -0.000999999)
(-1.95047e-10 -3.79637e-10 -0.000999999)
(-2.94865e-10 -3.73743e-10 -0.000999999)
(-4.11133e-10 -3.45565e-10 -0.001)
(-4.04594e-10 -2.49688e-10 -0.001)
(-3.94059e-10 -5.30249e-10 -0.001)
(-4.0402e-10 -4.40237e-10 -0.001)
(-3.00767e-10 -4.34965e-10 -0.001)
(-1.8592e-10 -4.35601e-10 -0.001)
(-6.0206e-11 -4.33802e-10 -0.001)
(-6.97052e-11 -3.12491e-10 -0.000999999)
(-1.93934e-10 -3.09818e-10 -0.001)
(-2.92699e-10 -3.10783e-10 -0.001)
(-3.82753e-10 -3.07591e-10 -0.001)
(-4.22051e-10 -2.71799e-10 -0.001)
(-4.32722e-10 -3.2873e-10 -0.001)
(-4.0875e-10 -3.29122e-10 -0.001)
(-3.16192e-10 -3.44605e-10 -0.001)
(-1.96407e-10 -3.55378e-10 -0.001)
(-6.40674e-11 -3.61106e-10 -0.001)
(-6.83367e-11 -2.01228e-10 -0.001)
(-1.92638e-10 -1.99531e-10 -0.001)
(-2.92582e-10 -2.00058e-10 -0.001)
(-3.72111e-10 -2.0106e-10 -0.001)
(-4.25719e-10 -1.8962e-10 -0.001)
(-4.51321e-10 -2.06211e-10 -0.001)
(-4.19895e-10 -2.13987e-10 -0.001)
(-3.27027e-10 -2.22089e-10 -0.001)
(-2.03132e-10 -2.26401e-10 -0.001)
(-6.65938e-11 -2.28195e-10 -0.001)
(-6.74724e-11 -6.93879e-11 -0.001)
(-1.9196e-10 -6.87604e-11 -0.001)
(-2.93614e-10 -6.92048e-11 -0.001)
(-3.71581e-10 -7.03713e-11 -0.001)
(-4.26358e-10 -6.93762e-11 -0.001)
(-4.56088e-10 -7.18148e-11 -0.001)
(-4.23711e-10 -7.50694e-11 -0.001)
(-3.27952e-10 -7.64939e-11 -0.001)
(-2.0256e-10 -7.66165e-11 -0.001)
(-6.61192e-11 -7.61326e-11 -0.001)
(-1.21365e-10 -1.45845e-10 -0.000999997)
(-3.32429e-10 -1.45119e-10 -0.000999997)
(-4.92044e-10 -1.43132e-10 -0.000999997)
(-5.99474e-10 -1.45783e-10 -0.000999998)
(-6.92045e-10 -1.57164e-10 -0.000999998)
(-7.56379e-10 -1.51191e-10 -0.000999999)
(-6.97343e-10 -1.43364e-10 -0.000999999)
(-5.41663e-10 -1.37462e-10 -0.000999999)
(-3.46577e-10 -1.32926e-10 -0.000999999)
(-1.19385e-10 -1.30953e-10 -0.000999999)
(-1.20587e-10 -4.12238e-10 -0.000999997)
(-3.30038e-10 -4.14511e-10 -0.000999997)
(-4.9362e-10 -4.17128e-10 -0.000999998)
(-6.14704e-10 -4.30794e-10 -0.000999998)
(-6.98829e-10 -4.57139e-10 -0.000999998)
(-7.44041e-10 -4.54329e-10 -0.000999999)
(-6.8496e-10 -4.24753e-10 -0.000999999)
(-5.3225e-10 -4.09319e-10 -0.000999999)
(-3.40963e-10 -3.97961e-10 -0.000999999)
(-1.179e-10 -3.91601e-10 -0.001)
(-1.2309e-10 -6.27513e-10 -0.000999998)
(-3.37143e-10 -6.32722e-10 -0.000999998)
(-5.09261e-10 -6.44635e-10 -0.000999998)
(-6.40698e-10 -6.70059e-10 -0.000999998)
(-7.17001e-10 -6.97032e-10 -0.000999999)
(-7.2552e-10 -7.18403e-10 -0.000999999)
(-6.53719e-10 -6.58487e-10 -0.000999999)
(-5.15964e-10 -6.40276e-10 -0.001)
(-3.3029e-10 -6.27579e-10 -0.001)
(-1.14011e-10 -6.16935e-10 -0.001)
(-1.24658e-10 -7.99695e-10 -0.000999998)
(-3.45989e-10 -7.96029e-10 -0.000999998)
(-5.30959e-10 -8.03207e-10 -0.000999998)
(-6.67166e-10 -8.17731e-10 -0.000999998)
(-7.47241e-10 -7.59391e-10 -0.000999999)
(-7.05566e-10 -1.00827e-09 -0.000999999)
(-6.06896e-10 -8.61901e-10 -0.001)
(-5.01434e-10 -8.26351e-10 -0.001)
(-3.18893e-10 -8.05516e-10 -0.001)
(-1.08506e-10 -7.88533e-10 -0.001)
(-1.17923e-10 -8.54623e-10 -0.000999998)
(-3.39083e-10 -8.55827e-10 -0.000999998)
(-5.30897e-10 -8.6477e-10 -0.000999999)
(-5.96879e-10 -8.84314e-10 -0.000999999)
(-9.07527e-10 -1.04314e-09 -0.000999999)
(-8.28025e-10 -7.1064e-10 -0.001)
(-4.71801e-10 -8.70699e-10 -0.001)
(-4.59615e-10 -8.83167e-10 -0.001)
(-2.93984e-10 -8.89451e-10 -0.001)
(-9.85485e-11 -8.86943e-10 -0.001)
(-1.2422e-10 -7.91178e-10 -0.000999999)
(-3.54426e-10 -8.00038e-10 -0.000999999)
(-5.59383e-10 -8.05853e-10 -0.000999999)
(-8.45525e-10 -8.05445e-10 -0.000999999)
(-5.73582e-10 -9.32161e-10 -0.001)
(-5.32816e-10 -6.43558e-10 -0.001)
(-7.79385e-10 -8.16469e-10 -0.001)
(-5.2022e-10 -8.50311e-10 -0.001)
(-3.24432e-10 -8.70137e-10 -0.001)
(-1.07753e-10 -8.76486e-10 -0.001)
(-1.25142e-10 -7.07217e-10 -0.000999999)
(-3.5212e-10 -7.08356e-10 -0.000999999)
(-5.3624e-10 -7.05746e-10 -0.000999999)
(-7.23168e-10 -6.85379e-10 -0.001)
(-7.45942e-10 -5.54255e-10 -0.001)
(-7.12313e-10 -8.66188e-10 -0.001)
(-6.78265e-10 -7.74575e-10 -0.001)
(-5.13378e-10 -7.83339e-10 -0.001)
(-3.21891e-10 -7.91699e-10 -0.001)
(-1.06512e-10 -7.94113e-10 -0.001)
(-1.23839e-10 -5.77145e-10 -0.000999999)
(-3.51474e-10 -5.76154e-10 -0.000999999)
(-5.36351e-10 -5.76237e-10 -0.001)
(-6.94036e-10 -5.75976e-10 -0.001)
(-7.54411e-10 -5.34392e-10 -0.001)
(-7.5341e-10 -5.89254e-10 -0.001)
(-6.96525e-10 -5.98798e-10 -0.001)
(-5.37403e-10 -6.20963e-10 -0.001)
(-3.36819e-10 -6.35838e-10 -0.001)
(-1.11657e-10 -6.42779e-10 -0.001)
(-1.22966e-10 -3.74677e-10 -0.001)
(-3.49999e-10 -3.74205e-10 -0.001)
(-5.35967e-10 -3.74083e-10 -0.001)
(-6.8127e-10 -3.76387e-10 -0.001)
(-7.59171e-10 -3.62172e-10 -0.001)
(-7.76702e-10 -3.82954e-10 -0.001)
(-7.09906e-10 -3.91241e-10 -0.001)
(-5.50418e-10 -4.0037e-10 -0.001)
(-3.44928e-10 -4.05401e-10 -0.001)
(-1.14604e-10 -4.06675e-10 -0.001)
(-1.22426e-10 -1.29593e-10 -0.001)
(-3.49437e-10 -1.29499e-10 -0.001)
(-5.374e-10 -1.29956e-10 -0.001)
(-6.80716e-10 -1.32007e-10 -0.001)
(-7.59446e-10 -1.30755e-10 -0.001)
(-7.80938e-10 -1.33756e-10 -0.001)
(-7.12511e-10 -1.36473e-10 -0.001)
(-5.50523e-10 -1.3769e-10 -0.001)
(-3.43258e-10 -1.37572e-10 -0.001)
(-1.13468e-10 -1.36387e-10 -0.001)
(-1.90265e-10 -2.14959e-10 -0.000999996)
(-5.25853e-10 -2.11948e-10 -0.000999997)
(-7.86731e-10 -2.1001e-10 -0.000999997)
(-9.76243e-10 -2.13577e-10 -0.000999997)
(-1.10658e-09 -2.23827e-10 -0.000999998)
(-1.15705e-09 -2.19898e-10 -0.000999998)
(-1.05237e-09 -2.0892e-10 -0.000999999)
(-8.22431e-10 -2.01252e-10 -0.000999999)
(-5.29667e-10 -1.9636e-10 -0.000999999)
(-1.83939e-10 -1.95067e-10 -0.001)
(-1.87212e-10 -6.03252e-10 -0.000999997)
(-5.21503e-10 -6.01572e-10 -0.000999997)
(-7.89862e-10 -6.05581e-10 -0.000999997)
(-9.9207e-10 -6.21986e-10 -0.000999997)
(-1.11512e-09 -6.48423e-10 -0.000999998)
(-1.14434e-09 -6.47108e-10 -0.000999998)
(-1.0357e-09 -6.16578e-10 -0.000999999)
(-8.11397e-10 -5.99356e-10 -0.000999999)
(-5.24819e-10 -5.86689e-10 -0.001)
(-1.83345e-10 -5.79778e-10 -0.001)
(-1.87808e-10 -9.13328e-10 -0.000999997)
(-5.28057e-10 -9.16943e-10 -0.000999997)
(-8.08681e-10 -9.3289e-10 -0.000999997)
(-1.02112e-09 -9.64262e-10 -0.000999998)
(-1.13401e-09 -1.00222e-09 -0.000999998)
(-1.12749e-09 -1.00386e-09 -0.000999999)
(-1.00667e-09 -9.56199e-10 -0.000999999)
(-7.94176e-10 -9.38437e-10 -0.001)
(-5.12232e-10 -9.22614e-10 -0.001)
(-1.78477e-10 -9.09227e-10 -0.001)
(-1.89078e-10 -1.15821e-09 -0.000999997)
(-5.39284e-10 -1.15702e-09 -0.000999997)
(-8.37174e-10 -1.17231e-09 -0.000999998)
(-1.0615e-09 -1.20435e-09 -0.000999998)
(-1.15486e-09 -1.17436e-09 -0.000999999)
(-1.09844e-09 -1.36094e-09 -0.000999999)
(-9.70377e-10 -1.22679e-09 -0.001)
(-7.77956e-10 -1.18802e-09 -0.001)
(-4.97469e-10 -1.16061e-09 -0.001)
(-1.71735e-10 -1.14084e-09 -0.001)
(-1.84287e-10 -1.28044e-09 -0.000999998)
(-5.3976e-10 -1.28475e-09 -0.000999998)
(-8.55883e-10 -1.29699e-09 -0.000999998)
(-1.02313e-09 -1.31041e-09 -0.000999999)
(-1.29052e-09 -1.44248e-09 -0.000999999)
(-1.17994e-09 -1.20731e-09 -0.000999999)
(-8.33784e-10 -1.32266e-09 -0.001)
(-7.28137e-10 -1.31592e-09 -0.001)
(-4.67567e-10 -1.30961e-09 -0.001)
(-1.61172e-10 -1.30051e-09 -0.001)
(-1.90857e-10 -1.24975e-09 -0.000999998)
(-5.53238e-10 -1.26104e-09 -0.000999998)
(-8.62731e-10 -1.26625e-09 -0.000999999)
(-1.207e-09 -1.25423e-09 -0.000999999)
(-1.05167e-09 -1.3437e-09 -0.001)
(-9.78592e-10 -1.14792e-09 -0.001)
(-1.07897e-09 -1.29693e-09 -0.001)
(-7.65037e-10 -1.32716e-09 -0.001)
(-4.84707e-10 -1.34987e-09 -0.001)
(-1.65209e-10 -1.35826e-09 -0.001)
(-1.93125e-10 -1.13358e-09 -0.000999999)
(-5.53789e-10 -1.13871e-09 -0.000999999)
(-8.48977e-10 -1.13682e-09 -0.000999999)
(-1.10062e-09 -1.12616e-09 -0.001)
(-1.18422e-09 -1.01005e-09 -0.001)
(-1.13313e-09 -1.25351e-09 -0.001)
(-1.01305e-09 -1.19121e-09 -0.001)
(-7.81151e-10 -1.21482e-09 -0.001)
(-5.01321e-10 -1.23565e-09 -0.001)
(-1.72077e-10 -1.24491e-09 -0.001)
(-1.93737e-10 -9.24899e-10 -0.000999999)
(-5.54235e-10 -9.27382e-10 -0.000999999)
(-8.50087e-10 -9.25469e-10 -0.001)
(-1.08023e-09 -9.26573e-10 -0.001)
(-1.17906e-09 -8.96321e-10 -0.001)
(-1.15969e-09 -9.20904e-10 -0.001)
(-1.04027e-09 -9.37892e-10 -0.001)
(-8.09564e-10 -9.63223e-10 -0.001)
(-5.17249e-10 -9.79819e-10 -0.001)
(-1.76781e-10 -9.85049e-10 -0.001)
(-1.93811e-10 -6.02647e-10 -0.001)
(-5.52502e-10 -6.03412e-10 -0.001)
(-8.48024e-10 -6.01152e-10 -0.001)
(-1.07138e-09 -6.02241e-10 -0.001)
(-1.17845e-09 -5.92695e-10 -0.001)
(-1.1746e-09 -6.00299e-10 -0.001)
(-1.05528e-09 -6.11416e-10 -0.001)
(-8.2308e-10 -6.22014e-10 -0.001)
(-5.25033e-10 -6.28312e-10 -0.001)
(-1.79135e-10 -6.2937e-10 -0.001)
(-1.92988e-10 -2.0874e-10 -0.001)
(-5.50476e-10 -2.08718e-10 -0.001)
(-8.47137e-10 -2.08223e-10 -0.001)
(-1.06954e-09 -2.09519e-10 -0.001)
(-1.17474e-09 -2.08531e-10 -0.001)
(-1.17613e-09 -2.0811e-10 -0.001)
(-1.05998e-09 -2.12227e-10 -0.001)
(-8.24925e-10 -2.14678e-10 -0.001)
(-5.2481e-10 -2.15546e-10 -0.001)
(-1.78686e-10 -2.15026e-10 -0.001)
(-2.81753e-10 -2.98867e-10 -0.000999995)
(-7.87752e-10 -2.93745e-10 -0.000999996)
(-1.19131e-09 -2.92023e-10 -0.000999996)
(-1.49205e-09 -2.94916e-10 -0.000999997)
(-1.66775e-09 -2.99918e-10 -0.000999997)
(-1.69051e-09 -3.00625e-10 -0.000999998)
(-1.52311e-09 -2.88786e-10 -0.000999999)
(-1.19901e-09 -2.82345e-10 -0.000999999)
(-7.7558e-10 -2.78152e-10 -0.000999999)
(-2.70079e-10 -2.77499e-10 -0.001)
(-2.76591e-10 -8.39246e-10 -0.000999996)
(-7.81851e-10 -8.33416e-10 -0.000999996)
(-1.19479e-09 -8.37287e-10 -0.000999996)
(-1.50294e-09 -8.50354e-10 -0.000999997)
(-1.67671e-09 -8.6425e-10 -0.000999997)
(-1.68253e-09 -8.7692e-10 -0.000999998)
(-1.50761e-09 -8.49135e-10 -0.000999999)
(-1.19061e-09 -8.36358e-10 -0.000999999)
(-7.72695e-10 -8.25358e-10 -0.001)
(-2.70435e-10 -8.19552e-10 -0.001)
(-2.74817e-10 -1.27425e-09 -0.000999996)
(-7.85676e-10 -1.27499e-09 -0.000999996)
(-1.21059e-09 -1.28949e-09 -0.000999997)
(-1.52205e-09 -1.31352e-09 -0.000999997)
(-1.69765e-09 -1.33495e-09 -0.000999998)
(-1.67869e-09 -1.3606e-09 -0.000999998)
(-1.48549e-09 -1.32247e-09 -0.000999999)
(-1.17763e-09 -1.3092e-09 -0.001)
(-7.61899e-10 -1.29492e-09 -0.001)
(-2.66374e-10 -1.28384e-09 -0.001)
(-2.74841e-10 -1.61366e-09 -0.000999996)
(-7.94572e-10 -1.61379e-09 -0.000999997)
(-1.23332e-09 -1.62753e-09 -0.000999997)
(-1.54849e-09 -1.65163e-09 -0.000999998)
(-1.72393e-09 -1.62747e-09 -0.000999998)
(-1.67022e-09 -1.78669e-09 -0.000999999)
(-1.45641e-09 -1.6858e-09 -0.001)
(-1.16329e-09 -1.64702e-09 -0.001)
(-7.49975e-10 -1.62053e-09 -0.001)
(-2.61882e-10 -1.60551e-09 -0.001)
(-2.71732e-10 -1.82386e-09 -0.000999997)
(-7.96245e-10 -1.83134e-09 -0.000999997)
(-1.2483e-09 -1.84879e-09 -0.000999998)
(-1.52197e-09 -1.87172e-09 -0.000999998)
(-1.83272e-09 -1.97852e-09 -0.000999999)
(-1.737e-09 -1.76377e-09 -0.000999999)
(-1.34576e-09 -1.87188e-09 -0.001)
(-1.11248e-09 -1.86105e-09 -0.001)
(-7.23664e-10 -1.84669e-09 -0.001)
(-2.54516e-10 -1.83258e-09 -0.001)
(-2.78772e-10 -1.84714e-09 -0.000999998)
(-8.15852e-10 -1.86024e-09 -0.000999998)
(-1.27353e-09 -1.86887e-09 -0.000999998)
(-1.67819e-09 -1.869e-09 -0.000999999)
(-1.61602e-09 -1.9456e-09 -0.000999999)
(-1.56363e-09 -1.77347e-09 -0.001)
(-1.55366e-09 -1.89721e-09 -0.001)
(-1.1382e-09 -1.92634e-09 -0.001)
(-7.25172e-10 -1.94604e-09 -0.001)
(-2.51315e-10 -1.95116e-09 -0.001)
(-2.81337e-10 -1.69368e-09 -0.000999998)
(-8.1439e-10 -1.70297e-09 -0.000999999)
(-1.2569e-09 -1.69835e-09 -0.000999999)
(-1.59861e-09 -1.68532e-09 -0.001)
(-1.73713e-09 -1.59998e-09 -0.001)
(-1.68866e-09 -1.8007e-09 -0.001)
(-1.4987e-09 -1.74001e-09 -0.001)
(-1.16148e-09 -1.76196e-09 -0.001)
(-7.52334e-10 -1.78672e-09 -0.001)
(-2.63322e-10 -1.79889e-09 -0.001)
(-2.84864e-10 -1.37722e-09 -0.000999999)
(-8.17269e-10 -1.38442e-09 -0.000999999)
(-1.25575e-09 -1.38078e-09 -0.001)
(-1.57979e-09 -1.37846e-09 -0.001)
(-1.73137e-09 -1.35402e-09 -0.001)
(-1.70366e-09 -1.36755e-09 -0.001)
(-1.51491e-09 -1.37349e-09 -0.001)
(-1.18502e-09 -1.39402e-09 -0.001)
(-7.65675e-10 -1.4087e-09 -0.001)
(-2.66911e-10 -1.41153e-09 -0.001)
(-2.85943e-10 -8.9706e-10 -0.000999999)
(-8.15242e-10 -8.98462e-10 -0.001)
(-1.25075e-09 -8.93482e-10 -0.001)
(-1.57172e-09 -8.91307e-10 -0.001)
(-1.72607e-09 -8.84654e-10 -0.001)
(-1.70799e-09 -8.82702e-10 -0.001)
(-1.52504e-09 -8.91028e-10 -0.001)
(-1.19668e-09 -9.01809e-10 -0.001)
(-7.7257e-10 -9.09629e-10 -0.001)
(-2.6883e-10 -9.11947e-10 -0.001)
(-2.84092e-10 -3.10311e-10 -0.001)
(-8.10382e-10 -3.09549e-10 -0.001)
(-1.24602e-09 -3.07599e-10 -0.001)
(-1.56776e-09 -3.07255e-10 -0.001)
(-1.71932e-09 -3.06704e-10 -0.001)
(-1.70673e-09 -3.03823e-10 -0.001)
(-1.53101e-09 -3.08594e-10 -0.001)
(-1.20132e-09 -3.12637e-10 -0.001)
(-7.76092e-10 -3.15481e-10 -0.001)
(-2.70436e-10 -3.16992e-10 -0.001)
(-4.05992e-10 -4.10425e-10 -0.000999994)
(-1.14544e-09 -4.02907e-10 -0.000999994)
(-1.74645e-09 -4.00946e-10 -0.000999995)
(-2.19593e-09 -4.0211e-10 -0.000999996)
(-2.43287e-09 -4.0189e-10 -0.000999996)
(-2.42623e-09 -4.03835e-10 -0.000999997)
(-2.1772e-09 -3.9653e-10 -0.000999998)
(-1.7215e-09 -3.92712e-10 -0.000999999)
(-1.1136e-09 -3.89603e-10 -0.000999999)
(-3.8694e-10 -3.89679e-10 -0.001)
(-3.98457e-10 -1.1568e-09 -0.000999994)
(-1.13735e-09 -1.14608e-09 -0.000999995)
(-1.74896e-09 -1.14815e-09 -0.000999995)
(-2.2011e-09 -1.15551e-09 -0.000999996)
(-2.4392e-09 -1.15686e-09 -0.000999997)
(-2.42531e-09 -1.17448e-09 -0.000999998)
(-2.17003e-09 -1.16115e-09 -0.000999998)
(-1.71776e-09 -1.15546e-09 -0.000999999)
(-1.11331e-09 -1.14805e-09 -0.001)
(-3.88412e-10 -1.14476e-09 -0.001)
(-3.93819e-10 -1.76599e-09 -0.000999995)
(-1.13674e-09 -1.76261e-09 -0.000999995)
(-1.75924e-09 -1.77284e-09 -0.000999996)
(-2.20899e-09 -1.78531e-09 -0.000999996)
(-2.45665e-09 -1.78715e-09 -0.000999997)
(-2.43521e-09 -1.83019e-09 -0.000999998)
(-2.16226e-09 -1.81286e-09 -0.000999999)
(-1.71172e-09 -1.80788e-09 -0.001)
(-1.10724e-09 -1.79906e-09 -0.001)
(-3.86558e-10 -1.79271e-09 -0.001)
(-3.91695e-10 -2.23516e-09 -0.000999995)
(-1.14076e-09 -2.23692e-09 -0.000999996)
(-1.77166e-09 -2.24687e-09 -0.000999996)
(-2.21561e-09 -2.2572e-09 -0.000999997)
(-2.48429e-09 -2.20846e-09 -0.000999998)
(-2.4514e-09 -2.39335e-09 -0.000999999)
(-2.14788e-09 -2.32083e-09 -0.001)
(-1.70417e-09 -2.28519e-09 -0.001)
(-1.10178e-09 -2.26134e-09 -0.001)
(-3.8554e-10 -2.25071e-09 -0.001)
(-3.91299e-10 -2.54691e-09 -0.000999996)
(-1.14403e-09 -2.5545e-09 -0.000999997)
(-1.77931e-09 -2.57032e-09 -0.000999997)
(-2.17062e-09 -2.59678e-09 -0.000999998)
(-2.59277e-09 -2.70606e-09 -0.000999999)
(-2.54772e-09 -2.46946e-09 -0.001)
(-2.05424e-09 -2.58123e-09 -0.001)
(-1.65242e-09 -2.58281e-09 -0.001)
(-1.07727e-09 -2.56958e-09 -0.001)
(-3.80264e-10 -2.55298e-09 -0.001)
(-3.94462e-10 -2.62988e-09 -0.000999997)
(-1.15911e-09 -2.64307e-09 -0.000999997)
(-1.81368e-09 -2.65197e-09 -0.000999998)
(-2.35144e-09 -2.66167e-09 -0.000999999)
(-2.35699e-09 -2.76186e-09 -0.001)
(-2.32635e-09 -2.53575e-09 -0.001)
(-2.26142e-09 -2.648e-09 -0.001)
(-1.69276e-09 -2.68016e-09 -0.001)
(-1.07699e-09 -2.69738e-09 -0.001)
(-3.73793e-10 -2.698e-09 -0.001)
(-3.9959e-10 -2.42472e-09 -0.000999998)
(-1.16101e-09 -2.44042e-09 -0.000999998)
(-1.79756e-09 -2.43606e-09 -0.000999999)
(-2.28042e-09 -2.41979e-09 -0.001)
(-2.46708e-09 -2.33901e-09 -0.001)
(-2.43383e-09 -2.53424e-09 -0.001)
(-2.19854e-09 -2.45724e-09 -0.001)
(-1.70197e-09 -2.46113e-09 -0.001)
(-1.10045e-09 -2.47852e-09 -0.001)
(-3.86023e-10 -2.48941e-09 -0.001)
(-4.0569e-10 -1.96019e-09 -0.000999999)
(-1.16582e-09 -1.97163e-09 -0.000999999)
(-1.79284e-09 -1.96627e-09 -0.001)
(-2.25431e-09 -1.95917e-09 -0.001)
(-2.47134e-09 -1.9274e-09 -0.001)
(-2.44469e-09 -1.95923e-09 -0.001)
(-2.18833e-09 -1.93771e-09 -0.001)
(-1.71422e-09 -1.94704e-09 -0.001)
(-1.11024e-09 -1.95742e-09 -0.001)
(-3.8947e-10 -1.95958e-09 -0.001)
(-4.07355e-10 -1.27345e-09 -0.000999999)
(-1.16325e-09 -1.27501e-09 -0.001)
(-1.78483e-09 -1.26789e-09 -0.001)
(-2.24138e-09 -1.26315e-09 -0.001)
(-2.46694e-09 -1.25387e-09 -0.001)
(-2.44395e-09 -1.25835e-09 -0.001)
(-2.18617e-09 -1.25428e-09 -0.001)
(-1.72168e-09 -1.26229e-09 -0.001)
(-1.11677e-09 -1.27144e-09 -0.001)
(-3.91886e-10 -1.27615e-09 -0.00100001)
(-4.04142e-10 -4.39315e-10 -0.001)
(-1.15558e-09 -4.37648e-10 -0.001)
(-1.77737e-09 -4.34656e-10 -0.001)
(-2.23584e-09 -4.33607e-10 -0.001)
(-2.46168e-09 -4.33363e-10 -0.001)
(-2.44029e-09 -4.32993e-10 -0.001)
(-2.18794e-09 -4.3436e-10 -0.001)
(-1.72807e-09 -4.38945e-10 -0.001)
(-1.1244e-09 -4.43974e-10 -0.00100001)
(-3.95806e-10 -4.47788e-10 -0.00100001)
(-5.74096e-10 -5.64123e-10 -0.000999992)
(-1.63118e-09 -5.5414e-10 -0.000999992)
(-2.50186e-09 -5.51384e-10 -0.000999993)
(-3.15006e-09 -5.51056e-10 -0.000999994)
(-3.47729e-09 -5.4885e-10 -0.000999995)
(-3.44752e-09 -5.48631e-10 -0.000999997)
(-3.08963e-09 -5.48714e-10 -0.000999998)
(-2.44641e-09 -5.46436e-10 -0.000999999)
(-1.57864e-09 -5.44009e-10 -0.000999999)
(-5.46372e-10 -5.44343e-10 -0.001)
(-5.64122e-10 -1.59899e-09 -0.000999992)
(-1.6204e-09 -1.58355e-09 -0.000999993)
(-2.50342e-09 -1.58323e-09 -0.000999993)
(-3.15342e-09 -1.58712e-09 -0.000999994)
(-3.48133e-09 -1.58567e-09 -0.000999996)
(-3.45372e-09 -1.59324e-09 -0.000999997)
(-3.0931e-09 -1.60078e-09 -0.000999998)
(-2.44625e-09 -1.59879e-09 -0.000999999)
(-1.58054e-09 -1.59422e-09 -0.001)
(-5.48738e-10 -1.59255e-09 -0.001)
(-5.56754e-10 -2.45427e-09 -0.000999993)
(-1.61546e-09 -2.44771e-09 -0.000999993)
(-2.51018e-09 -2.45485e-09 -0.000999994)
(-3.15862e-09 -2.46244e-09 -0.000999995)
(-3.49002e-09 -2.46227e-09 -0.000999996)
(-3.46913e-09 -2.48653e-09 -0.000999998)
(-3.1011e-09 -2.49966e-09 -0.000999999)
(-2.44471e-09 -2.49935e-09 -0.001)
(-1.57859e-09 -2.49466e-09 -0.001)
(-5.48771e-10 -2.49063e-09 -0.001)
(-5.52963e-10 -3.10472e-09 -0.000999994)
(-1.61629e-09 -3.11014e-09 -0.000999994)
(-2.51816e-09 -3.12172e-09 -0.000999995)
(-3.16107e-09 -3.13211e-09 -0.000999996)
(-3.50562e-09 -3.10213e-09 -0.000999997)
(-3.49117e-09 -3.221e-09 -0.000999999)
(-3.10612e-09 -3.20572e-09 -0.001)
(-2.44168e-09 -3.17457e-09 -0.001)
(-1.57691e-09 -3.15164e-09 -0.001)
(-5.49511e-10 -3.13983e-09 -0.001)
(-5.56412e-10 -3.53367e-09 -0.000999995)
(-1.62648e-09 -3.54042e-09 -0.000999995)
(-2.53196e-09 -3.54845e-09 -0.000999996)
(-3.13904e-09 -3.56383e-09 -0.000999997)
(-3.57914e-09 -3.63863e-09 -0.000999999)
(-3.57263e-09 -3.50718e-09 -0.001)
(-3.05461e-09 -3.556e-09 -0.001)
(-2.39087e-09 -3.56745e-09 -0.001)
(-1.5501e-09 -3.55711e-09 -0.001)
(-5.42976e-10 -3.53835e-09 -0.001)
(-5.53166e-10 -3.66532e-09 -0.000999996)
(-1.62433e-09 -3.67812e-09 -0.000999997)
(-2.54139e-09 -3.68083e-09 -0.000999997)
(-3.25107e-09 -3.68075e-09 -0.000999998)
(-3.44898e-09 -3.75543e-09 -0.001)
(-3.40888e-09 -3.58287e-09 -0.001)
(-3.16629e-09 -3.63295e-09 -0.001)
(-2.44305e-09 -3.66534e-09 -0.001)
(-1.5548e-09 -3.68081e-09 -0.001)
(-5.37485e-10 -3.67946e-09 -0.001)
(-5.62389e-10 -3.37937e-09 -0.000999998)
(-1.63495e-09 -3.40151e-09 -0.000999998)
(-2.53449e-09 -3.39967e-09 -0.000999999)
(-3.21377e-09 -3.38401e-09 -0.001)
(-3.48094e-09 -3.32767e-09 -0.001)
(-3.45016e-09 -3.42391e-09 -0.001)
(-3.13716e-09 -3.3774e-09 -0.001)
(-2.439e-09 -3.36816e-09 -0.001)
(-1.57151e-09 -3.37788e-09 -0.001)
(-5.48646e-10 -3.38779e-09 -0.00100001)
(-5.69045e-10 -2.71486e-09 -0.000999999)
(-1.63813e-09 -2.72784e-09 -0.000999999)
(-2.52366e-09 -2.71954e-09 -0.001)
(-3.17913e-09 -2.70752e-09 -0.001)
(-3.48898e-09 -2.66893e-09 -0.001)
(-3.45853e-09 -2.71486e-09 -0.001)
(-3.11054e-09 -2.67464e-09 -0.001)
(-2.44377e-09 -2.67506e-09 -0.00100001)
(-1.58117e-09 -2.68304e-09 -0.00100001)
(-5.53881e-10 -2.68667e-09 -0.00100001)
(-5.70259e-10 -1.75708e-09 -0.000999999)
(-1.63425e-09 -1.75786e-09 -0.001)
(-2.51378e-09 -1.74988e-09 -0.001)
(-3.16293e-09 -1.74503e-09 -0.001)
(-3.48801e-09 -1.73427e-09 -0.001)
(-3.45559e-09 -1.7496e-09 -0.001)
(-3.09711e-09 -1.73199e-09 -0.001)
(-2.4474e-09 -1.73639e-09 -0.00100001)
(-1.58827e-09 -1.74663e-09 -0.00100001)
(-5.57299e-10 -1.75287e-09 -0.00100001)
(-5.65452e-10 -6.045e-10 -0.001)
(-1.62434e-09 -6.01868e-10 -0.001)
(-2.50574e-09 -5.98832e-10 -0.001)
(-3.15731e-09 -5.98652e-10 -0.001)
(-3.48672e-09 -5.99151e-10 -0.001)
(-3.44939e-09 -6.03882e-10 -0.001)
(-3.09116e-09 -5.99602e-10 -0.00100001)
(-2.45372e-09 -6.03919e-10 -0.00100001)
(-1.59796e-09 -6.10465e-10 -0.00100001)
(-5.62311e-10 -6.15369e-10 -0.00100001)
(-8.00807e-10 -7.77754e-10 -0.000999989)
(-2.28832e-09 -7.66295e-10 -0.00099999)
(-3.52555e-09 -7.63014e-10 -0.000999991)
(-4.44142e-09 -7.62251e-10 -0.000999992)
(-4.89929e-09 -7.60618e-10 -0.000999994)
(-4.85355e-09 -7.57586e-10 -0.000999995)
(-4.34958e-09 -7.62049e-10 -0.000999997)
(-3.44394e-09 -7.58705e-10 -0.000999998)
(-2.21662e-09 -7.56126e-10 -0.000999999)
(-7.64682e-10 -7.55958e-10 -0.001)
(-7.89382e-10 -2.21821e-09 -0.00099999)
(-2.27631e-09 -2.20095e-09 -0.00099999)
(-3.52801e-09 -2.19957e-09 -0.000999991)
(-4.44727e-09 -2.20315e-09 -0.000999993)
(-4.90367e-09 -2.20652e-09 -0.000999994)
(-4.86393e-09 -2.19674e-09 -0.000999996)
(-4.35873e-09 -2.21798e-09 -0.000999998)
(-3.44443e-09 -2.21268e-09 -0.000999999)
(-2.2194e-09 -2.20812e-09 -0.001)
(-7.67306e-10 -2.20577e-09 -0.001)
(-7.80946e-10 -3.42092e-09 -0.000999991)
(-2.26979e-09 -3.41476e-09 -0.000999991)
(-3.53439e-09 -3.42165e-09 -0.000999992)
(-4.45694e-09 -3.43082e-09 -0.000999994)
(-4.90231e-09 -3.44399e-09 -0.000999995)
(-4.87433e-09 -3.41957e-09 -0.000999997)
(-4.37387e-09 -3.46049e-09 -0.000999999)
(-3.44086e-09 -3.45576e-09 -0.001)
(-2.21828e-09 -3.44961e-09 -0.001)
(-7.67945e-10 -3.44354e-09 -0.001)
(-7.76877e-10 -4.32703e-09 -0.000999992)
(-2.27057e-09 -4.33786e-09 -0.000999993)
(-3.54407e-09 -4.35598e-09 -0.000999994)
(-4.46994e-09 -4.3771e-09 -0.000999995)
(-4.89279e-09 -4.39334e-09 -0.000999997)
(-4.88081e-09 -4.37443e-09 -0.000999998)
(-4.39526e-09 -4.41083e-09 -0.001)
(-3.43408e-09 -4.38821e-09 -0.001)
(-2.21417e-09 -4.36377e-09 -0.001)
(-7.67856e-10 -4.34682e-09 -0.001)
(-7.83837e-10 -4.89444e-09 -0.000999994)
(-2.29047e-09 -4.90247e-09 -0.000999994)
(-3.57331e-09 -4.9022e-09 -0.000999995)
(-4.49429e-09 -4.89434e-09 -0.000999997)
(-4.89949e-09 -4.90054e-09 -0.000999998)
(-4.89198e-09 -4.97316e-09 -0.001)
(-4.38768e-09 -4.91117e-09 -0.001)
(-3.39413e-09 -4.91305e-09 -0.001)
(-2.18552e-09 -4.90201e-09 -0.001)
(-7.59324e-10 -4.88063e-09 -0.001)
(-7.75902e-10 -5.04742e-09 -0.000999995)
(-2.26894e-09 -5.06001e-09 -0.000999996)
(-3.53558e-09 -5.05235e-09 -0.000999997)
(-4.4684e-09 -5.03202e-09 -0.000999998)
(-4.97162e-09 -5.02889e-09 -0.001)
(-4.89132e-09 -5.01917e-09 -0.001)
(-4.33524e-09 -4.98045e-09 -0.001)
(-3.4253e-09 -5.00237e-09 -0.001)
(-2.19141e-09 -5.01665e-09 -0.00100001)
(-7.55781e-10 -5.01572e-09 -0.00100001)
(-7.86982e-10 -4.63578e-09 -0.000999997)
(-2.2856e-09 -4.65921e-09 -0.000999997)
(-3.54495e-09 -4.65733e-09 -0.000999998)
(-4.47067e-09 -4.64987e-09 -0.001)
(-4.88678e-09 -4.63129e-09 -0.001)
(-4.84356e-09 -4.56443e-09 -0.001)
(-4.37089e-09 -4.58262e-09 -0.001)
(-3.4307e-09 -4.58264e-09 -0.00100001)
(-2.20878e-09 -4.59256e-09 -0.00100001)
(-7.67928e-10 -4.60309e-09 -0.00100001)
(-7.90643e-10 -3.70384e-09 -0.000999998)
(-2.2815e-09 -3.71382e-09 -0.000999999)
(-3.52591e-09 -3.70105e-09 -0.001)
(-4.44233e-09 -3.68544e-09 -0.001)
(-4.88607e-09 -3.66082e-09 -0.001)
(-4.84264e-09 -3.68835e-09 -0.001)
(-4.35345e-09 -3.65539e-09 -0.00100001)