/*--------------------------------*- C++ -*----------------------------------*\
| =========                 |                                                 |
| \\      /  F ield         | OpenFOAM: The Open Source CFD Toolbox           |
|  \\    /   O peration     | Version:  5.x                                   |
|   \\  /    A nd           | Web:      www.OpenFOAM.org                      |
|    \\/     M anipulation  |                                                 |
\*---------------------------------------------------------------------------*/
FoamFile
{
    version     2.0;
    format      ascii;
    class       volVectorField;
    location    "500";
    object      stored_U;
}
// * * * * * * * * * * * * * * * * * * * * * * * * * * * * * * * * * * * * * //

dimensions      [0 1 -1 0 0 0 0];

internalField   nonuniform List<vector> 
90
(
(2.18645e-09 -2.21749e-09 -0.00100001)
(4.13008e-09 -4.38876e-09 -0.00100001)
(6.55937e-09 -6.91614e-09 -0.00100001)
(9.38532e-09 -9.64482e-09 -0.00100001)
(1.27533e-08 -1.26204e-08 -0.001)
(1.6859e-08 -1.59089e-08 -0.001)
(2.19397e-08 -1.95807e-08 -0.000999999)
(2.82888e-08 -2.37101e-08 -0.000999996)
(3.62644e-08 -2.8375e-08 -0.000999994)
(4.63156e-08 -3.36543e-08 -0.000999991)
(5.90085e-08 -3.96231e-08 -0.000999987)
(7.50633e-08 -4.6343e-08 -0.000999982)
(9.54043e-08 -5.3845e-08 -0.000999976)
(1.21227e-07 -6.2105e-08 -0.000999966)
(1.54084e-07 -7.1006e-08 -0.000999953)
(1.96005e-07 -8.02865e-08 -0.000999934)
(2.49642e-07 -8.94715e-08 -0.000999906)
(3.1847e-07 -9.77812e-08 -0.000999867)
(4.07042e-07 -1.03971e-07 -0.000999812)
(5.21326e-07 -1.06018e-07 -0.000999736)
(6.6915e-07 -1.00948e-07 -0.000999631)
(8.60789e-07 -8.44402e-08 -0.000999486)
(1.10971e-06 -5.03518e-08 -0.000999289)
(1.43345e-06 9.74824e-09 -0.000999019)
(1.85509e-06 1.07802e-07 -0.000998651)
(2.40505e-06 2.60611e-07 -0.000998151)
(3.12337e-06 4.91545e-07 -0.000997471)
(4.06273e-06 8.32828e-07 -0.000996549)
(5.29259e-06 1.32876e-06 -0.000995301)
(6.90449e-06 2.04002e-06 -0.000993613)
(9.01928e-06 3.04956e-06 -0.000991333)
(1.17981e-05 4.47133e-06 -0.000988285)
(1.5465e-05 6.46631e-06 -0.000984323)
(2.03673e-05 9.27935e-06 -0.000978867)
(2.70224e-05 1.32854e-05 -0.00096823)
(3.4208e-05 1.78669e-05 -0.000951157)
(4.40843e-05 2.45351e-05 -0.000950903)
(5.07478e-05 2.97987e-05 -0.00111321)
(5.73493e-05 3.61416e-05 -0.000321423)
(-5.44641e-05 -3.59552e-05 -0.00210758)
(2.69587e-06 2.41307e-06 -0.00157003)
(3.48473e-05 1.09175e-05 -0.00164705)
(5.55542e-05 3.35594e-05 -0.00283401)
(-9.43942e-06 1.04071e-05 -0.00161887)
(-7.05204e-05 -3.75918e-05 -0.00269103)
(-6.58611e-05 -9.66563e-06 -0.00204978)
(-6.3729e-05 8.59253e-05 -0.00251155)
(-6.10944e-05 7.11567e-05 -0.0020056)
(-5.8013e-05 3.45716e-05 -0.00268219)
(-7.24767e-05 -2.03322e-05 -0.00163001)
(-9.7587e-05 -3.96613e-05 -0.00276329)
(-6.11535e-05 -1.24734e-05 -0.00112298)
(-0.000138343 -4.1532e-05 -0.00201047)
(3.49069e-06 -2.45736e-05 -0.00105183)
(-1.68086e-05 -4.95002e-05 -0.000951928)
(-1.11323e-05 -4.52324e-05 -0.000956165)
(-6.33217e-06 -3.49848e-05 -0.000975875)
(-3.27905e-06 -2.66383e-05 -0.000983592)
(-1.33378e-06 -2.02907e-05 -0.000988424)
(-9.72635e-08 -1.54728e-05 -0.000991963)
(6.54028e-07 -1.18147e-05 -0.000994522)
(1.07972e-06 -9.03203e-06 -0.000996319)
(1.29171e-06 -6.91064e-06 -0.000997588)
(1.35895e-06 -5.29387e-06 -0.000998488)
(1.33468e-06 -4.06038e-06 -0.000999109)
(1.25635e-06 -3.1182e-06 -0.000999527)
(1.14914e-06 -2.39763e-06 -0.000999804)
(1.02952e-06 -1.84596e-06 -0.000999981)
(9.08025e-07 -1.42314e-06 -0.00100009)
(7.9109e-07 -1.09876e-06 -0.00100015)
(6.82422e-07 -8.49662e-07 -0.00100018)
(5.83885e-07 -6.58171e-07 -0.00100019)
(4.96145e-07 -5.10809e-07 -0.00100019)
(4.19109e-07 -3.97271e-07 -0.00100018)
(3.52226e-07 -3.09678e-07 -0.00100016)
(2.94723e-07 -2.41998e-07 -0.00100014)
(2.45729e-07 -1.89609e-07 -0.00100013)
(2.04278e-07 -1.48964e-07 -0.00100011)
(1.69467e-07 -1.17346e-07 -0.00100009)
(1.40445e-07 -9.26704e-08 -0.00100008)
(1.16433e-07 -7.33421e-08 -0.00100007)
(9.67253e-08 -5.81465e-08 -0.00100005)
(8.06966e-08 -4.61641e-08 -0.00100004)
(6.77941e-08 -3.67062e-08 -0.00100003)
(5.75346e-08 -2.92635e-08 -0.00100002)
(4.94996e-08 -2.34661e-08 -0.00100002)
(4.3323e-08 -1.90492e-08 -0.00100001)
(3.8658e-08 -1.5805e-08 -0.00100001)
(3.52131e-08 -1.35104e-08 -0.00100001)
(3.34381e-08 -1.23432e-08 -0.001)
)
;

boundaryField
{
    inlet
    {
        type            calculated;
        value           uniform (3.34381e-08 -1.23432e-08 -0.001);
    }
    outlet
    {
        type            calculated;
        value           uniform (2.18645e-09 -2.21749e-09 -0.00100001);
    }
    repeat_boundary
    {
        type            calculated;
        value           nonuniform List<vector> 
180
(
(0 -2.21749e-09 -0.00100001)
(0 -4.38876e-09 -0.00100001)
(0 -6.91614e-09 -0.00100001)
(0 -9.64482e-09 -0.00100001)
(0 -1.26204e-08 -0.001)
(0 -1.59089e-08 -0.001)
(0 -1.95807e-08 -0.000999999)
(0 -2.37101e-08 -0.000999996)
(0 -2.8375e-08 -0.000999994)
(0 -3.36543e-08 -0.000999991)
(0 -3.96231e-08 -0.000999987)
(0 -4.6343e-08 -0.000999982)
(0 -5.3845e-08 -0.000999976)
(0 -6.2105e-08 -0.000999966)
(0 -7.1006e-08 -0.000999953)
(0 -8.02865e-08 -0.000999934)
(0 -8.94715e-08 -0.000999906)
(0 -9.77812e-08 -0.000999867)
(0 -1.03971e-07 -0.000999812)
(0 -1.06018e-07 -0.000999736)
(0 -1.00948e-07 -0.000999631)
(0 -8.44402e-08 -0.000999486)
(0 -5.03518e-08 -0.000999289)
(0 9.74824e-09 -0.000999019)
(0 1.07802e-07 -0.000998651)
(0 2.60611e-07 -0.000998151)
(0 4.91545e-07 -0.000997471)
(0 8.32828e-07 -0.000996549)
(0 1.32876e-06 -0.000995301)
(0 2.04002e-06 -0.000993613)
(0 3.04956e-06 -0.000991333)
(0 4.47133e-06 -0.000988285)
(0 6.46631e-06 -0.000984323)
(0 9.27935e-06 -0.000978867)
(0 1.32854e-05 -0.00096823)
(0 1.78669e-05 -0.000951157)
(0 2.45351e-05 -0.000950903)
(0 2.97987e-05 -0.00111321)
(0 3.61416e-05 -0.000321423)
(0 -3.59552e-05 -0.00210758)
(0 2.41307e-06 -0.00157003)
(0 1.09175e-05 -0.00164705)
(0 3.35594e-05 -0.00283401)
(0 1.04071e-05 -0.00161887)
(0 -3.75918e-05 -0.00269103)
(0 -9.66563e-06 -0.00204978)
(0 8.59253e-05 -0.00251155)
(0 7.11567e-05 -0.0020056)
(0 3.45716e-05 -0.00268219)
(0 -2.03322e-05 -0.00163001)
(0 -3.96613e-05 -0.00276329)
(0 -1.24734e-05 -0.00112298)
(0 -4.1532e-05 -0.00201047)
(0 -2.45736e-05 -0.00105183)
(0 -4.95002e-05 -0.000951928)
(0 -4.52324e-05 -0.000956165)
(0 -3.49848e-05 -0.000975875)
(0 -2.66383e-05 -0.000983592)
(0 -2.02907e-05 -0.000988424)
(0 -1.54728e-05 -0.000991963)
(0 -1.18147e-05 -0.000994522)
(0 -9.03203e-06 -0.000996319)
(0 -6.91064e-06 -0.000997588)
(0 -5.29387e-06 -0.000998488)
(0 -4.06038e-06 -0.000999109)
(0 -3.1182e-06 -0.000999527)
(0 -2.39763e-06 -0.000999804)
(0 -1.84596e-06 -0.000999981)
(0 -1.42314e-06 -0.00100009)
(0 -1.09876e-06 -0.00100015)
(0 -8.49662e-07 -0.00100018)
(0 -6.58171e-07 -0.00100019)
(0 -5.10809e-07 -0.00100019)
(0 -3.97271e-07 -0.00100018)
(0 -3.09678e-07 -0.00100016)
(0 -2.41998e-07 -0.00100014)
(0 -1.89609e-07 -0.00100013)
(0 -1.48964e-07 -0.00100011)
(0 -1.17346e-07 -0.00100009)
(0 -9.26704e-08 -0.00100008)
(0 -7.33421e-08 -0.00100007)
(0 -5.81465e-08 -0.00100005)
(0 -4.61641e-08 -0.00100004)
(0 -3.67062e-08 -0.00100003)
(0 -2.92635e-08 -0.00100002)
(0 -2.34661e-08 -0.00100002)
(0 -1.90492e-08 -0.00100001)
(0 -1.5805e-08 -0.00100001)
(0 -1.35104e-08 -0.00100001)
(0 -1.23432e-08 -0.001)
(2.18645e-09 0 -0.00100001)
(4.13008e-09 0 -0.00100001)
(6.55937e-09 0 -0.00100001)
(9.38532e-09 0 -0.00100001)
(1.27533e-08 0 -0.001)
(1.6859e-08 0 -0.001)
(2.19397e-08 0 -0.000999999)
(2.82888e-08 0 -0.000999996)
(3.62644e-08 0 -0.000999994)
(4.63156e-08 0 -0.000999991)
(5.90085e-08 0 -0.000999987)
(7.50633e-08 0 -0.000999982)
(9.54043e-08 0 -0.000999976)
(1.21227e-07 0 -0.000999966)
(1.54084e-07 0 -0.000999953)
(1.96005e-07 0 -0.000999934)
(2.49642e-07 0 -0.000999906)
(3.1847e-07 0 -0.000999867)
(4.07042e-07 0 -0.000999812)
(5.21326e-07 0 -0.000999736)
(6.6915e-07 0 -0.000999631)
(8.60789e-07 0 -0.000999486)
(1.10971e-06 0 -0.000999289)
(1.43345e-06 0 -0.000999019)
(1.85509e-06 0 -0.000998651)
(2.40505e-06 0 -0.000998151)
(3.12337e-06 0 -0.000997471)
(4.06273e-06 0 -0.000996549)
(5.29259e-06 0 -0.000995301)
(6.90449e-06 0 -0.000993613)
(9.01928e-06 0 -0.000991333)
(1.17981e-05 0 -0.000988285)
(1.5465e-05 0 -0.000984323)
(2.03673e-05 0 -0.000978867)
(2.70224e-05 0 -0.00096823)
(3.4208e-05 0 -0.000951157)
(4.40843e-05 0 -0.000950903)
(5.07478e-05 0 -0.00111321)
(5.73493e-05 0 -0.000321423)
(-5.44641e-05 0 -0.00210758)
(2.69587e-06 0 -0.00157003)
(3.48473e-05 0 -0.00164705)
(5.55542e-05 0 -0.00283401)
(-9.43942e-06 0 -0.00161887)
(-7.05204e-05 0 -0.00269103)
(-6.58611e-05 0 -0.00204978)
(-6.3729e-05 0 -0.00251155)
(-6.10944e-05 0 -0.0020056)
(-5.8013e-05 0 -0.00268219)
(-7.24767e-05 0 -0.00163001)
(-9.7587e-05 0 -0.00276329)
(-6.11535e-05 0 -0.00112298)
(-0.000138343 0 -0.00201047)
(3.49069e-06 0 -0.00105183)
(-1.68086e-05 0 -0.000951928)
(-1.11323e-05 0 -0.000956165)
(-6.33217e-06 0 -0.000975875)
(-3.27905e-06 0 -0.000983592)
(-1.33378e-06 0 -0.000988424)
(-9.72635e-08 0 -0.000991963)
(6.54028e-07 0 -0.000994522)
(1.07972e-06 0 -0.000996319)
(1.29171e-06 0 -0.000997588)
(1.35895e-06 0 -0.000998488)
(1.33468e-06 0 -0.000999109)
(1.25635e-06 0 -0.000999527)
(1.14914e-06 0 -0.000999804)
(1.02952e-06 0 -0.000999981)
(9.08025e-07 0 -0.00100009)
(7.9109e-07 0 -0.00100015)
(6.82422e-07 0 -0.00100018)
(5.83885e-07 0 -0.00100019)
(4.96145e-07 0 -0.00100019)
(4.19109e-07 0 -0.00100018)
(3.52226e-07 0 -0.00100016)
(2.94723e-07 0 -0.00100014)
(2.45729e-07 0 -0.00100013)
(2.04278e-07 0 -0.00100011)
(1.69467e-07 0 -0.00100009)
(1.40445e-07 0 -0.00100008)
(1.16433e-07 0 -0.00100007)
(9.67253e-08 0 -0.00100005)
(8.06966e-08 0 -0.00100004)
(6.77941e-08 0 -0.00100003)
(5.75346e-08 0 -0.00100002)
(4.94996e-08 0 -0.00100002)
(4.3323e-08 0 -0.00100001)
(3.8658e-08 0 -0.00100001)
(3.52131e-08 0 -0.00100001)
(3.34381e-08 0 -0.001)
)
;
    }
    procBoundary3to1
    {
        type            processor;
        value           nonuniform List<vector> 
90
(
(1.64079e-09 -2.21747e-09 -0.000999985)
(2.95851e-09 -4.38874e-09 -0.000999983)
(4.52205e-09 -6.91614e-09 -0.00099998)
(6.17241e-09 -9.64482e-09 -0.000999976)
(7.90461e-09 -1.26204e-08 -0.000999971)
(9.72455e-09 -1.59089e-08 -0.000999966)
(1.16318e-08 -1.95806e-08 -0.000999959)
(1.36158e-08 -2.371e-08 -0.000999951)
(1.56513e-08 -2.83749e-08 -0.000999943)
(1.76926e-08 -3.36542e-08 -0.000999933)
(1.96635e-08 -3.96229e-08 -0.000999922)
(2.14417e-08 -4.63426e-08 -0.00099991)
(2.28349e-08 -5.38445e-08 -0.000999895)
(2.35466e-08 -6.21043e-08 -0.000999879)
(2.31301e-08 -7.10048e-08 -0.00099986)
(2.09261e-08 -8.02846e-08 -0.000999839)
(1.59836e-08 -8.94683e-08 -0.000999816)
(6.96394e-09 -9.77758e-08 -0.000999792)
(-8.05431e-09 -1.03962e-07 -0.000999769)
(-3.20256e-08 -1.06001e-07 -0.00099975)
(-6.9033e-08 -1.00919e-07 -0.000999739)
(-1.2474e-07 -8.43893e-08 -0.000999741)
(-2.06929e-07 -5.02602e-08 -0.000999764)
(-3.26162e-07 9.91437e-09 -0.000999819)
(-4.96942e-07 1.08105e-07 -0.000999923)
(-7.39141e-07 2.61167e-07 -0.0010001)
(-1.07986e-06 4.92567e-07 -0.00100038)
(-1.55595e-06 8.34713e-07 -0.0010008)
(-2.21742e-06 1.33224e-06 -0.00100144)
(-3.13209e-06 2.04644e-06 -0.00100238)
(-4.39179e-06 3.0613e-06 -0.00100373)
(-6.121e-06 4.49197e-06 -0.00100568)
(-8.49007e-06 6.49671e-06 -0.00100858)
(-1.17451e-05 9.2996e-06 -0.00101253)
(-1.63595e-05 1.3329e-05 -0.00101484)
(-2.18747e-05 1.83064e-05 -0.00101047)
(-2.8309e-05 2.49011e-05 -0.0010367)
(-3.15719e-05 2.97792e-05 -0.00126398)
(-4.03229e-05 3.43855e-05 -0.000349501)
(6.77967e-05 -3.57093e-05 -0.00258152)
(-5.59254e-06 1.39519e-06 -0.00120219)
(-6.89589e-05 2.12961e-05 -0.00297271)
(-2.96382e-05 2.12829e-05 -0.00192103)
(-9.09082e-05 3.07724e-05 -0.00318368)
(-9.22814e-05 -3.36919e-05 -0.00225813)
(-9.67924e-05 -1.02088e-05 -0.00324704)
(-7.30396e-05 5.14117e-05 -0.00197247)
(-3.52302e-05 0.000136884 -0.00331818)
(-3.88201e-06 3.83018e-05 -0.00233127)
(-7.09613e-05 -2.58191e-05 -0.00275601)
(-5.96462e-05 -3.72802e-05 -0.00265798)
(-2.90828e-05 -4.97819e-06 -0.0016865)
(-6.55821e-06 5.85501e-05 -0.00247644)
(9.34238e-05 -3.98414e-05 -0.00110383)
(8.98053e-05 -5.59199e-05 -0.00108231)
(6.81125e-05 -4.51967e-05 -0.00109115)
(5.25039e-05 -3.45497e-05 -0.00107477)
(4.07648e-05 -2.63682e-05 -0.00105782)
(3.16998e-05 -2.01366e-05 -0.00104473)
(2.46757e-05 -1.53852e-05 -0.00103478)
(1.92305e-05 -1.17649e-05 -0.0010271)
(1.50062e-05 -9.00374e-06 -0.00102115)
(1.17253e-05 -6.89461e-06 -0.00101652)
(9.17421e-06 -5.28472e-06 -0.00101293)
(7.18785e-06 -4.05522e-06 -0.00101014)
(5.6391e-06 -3.11528e-06 -0.00100795)
(4.42989e-06 -2.39599e-06 -0.00100625)
(3.48452e-06 -1.84502e-06 -0.00100492)
(2.74448e-06 -1.42261e-06 -0.00100387)
(2.16446e-06 -1.09846e-06 -0.00100306)
(1.7093e-06 -8.49491e-07 -0.00100241)
(1.3517e-06 -6.58074e-07 -0.00100191)
(1.07043e-06 -5.10753e-07 -0.00100151)
(8.48952e-07 -3.97239e-07 -0.00100119)
(6.74357e-07 -3.0966e-07 -0.00100095)
(5.36547e-07 -2.41988e-07 -0.00100075)
(4.276e-07 -1.89603e-07 -0.0010006)
(3.41373e-07 -1.48961e-07 -0.00100048)
(2.73026e-07 -1.17344e-07 -0.00100038)
(2.18769e-07 -9.26691e-08 -0.0010003)
(1.7564e-07 -7.33414e-08 -0.00100024)
(1.41322e-07 -5.81461e-08 -0.00100019)
(1.14014e-07 -4.6164e-08 -0.00100015)
(9.23218e-08 -3.67062e-08 -0.00100012)
(7.5172e-08 -2.92632e-08 -0.00100009)
(6.17468e-08 -2.34661e-08 -0.00100007)
(5.14182e-08 -1.90499e-08 -0.00100005)
(4.36639e-08 -1.58097e-08 -0.00100004)
(3.80222e-08 -1.35053e-08 -0.00100002)
(3.5324e-08 -1.23426e-08 -0.00100001)
)
;
    }
    procBoundary3to2
    {
        type            processor;
        value           nonuniform List<vector> 
90
(
(2.18686e-09 -2.76349e-09 -0.00100003)
(4.13029e-09 -5.5605e-09 -0.00100003)
(6.55866e-09 -8.95284e-09 -0.00100003)
(9.38507e-09 -1.28575e-08 -0.00100004)
(1.27531e-08 -1.74689e-08 -0.00100004)
(1.68588e-08 -2.30432e-08 -0.00100005)
(2.19404e-08 -2.98892e-08 -0.00100006)
(2.82891e-08 -3.83834e-08 -0.00100007)
(3.62647e-08 -4.89883e-08 -0.00100009)
(4.6316e-08 -6.22777e-08 -0.00100011)
(5.90092e-08 -7.89688e-08 -0.00100013)
(7.50644e-08 -9.99655e-08 -0.00100017)
(9.5406e-08 -1.26416e-07 -0.00100021)
(1.21229e-07 -1.59788e-07 -0.00100027)
(1.54088e-07 -2.01964e-07 -0.00100033)
(1.96012e-07 -2.55372e-07 -0.00100042)
(2.49654e-07 -3.23141e-07 -0.00100053)
(3.1849e-07 -4.09306e-07 -0.00100067)
(4.07075e-07 -5.19097e-07 -0.00100085)
(5.21381e-07 -6.59417e-07 -0.00100107)
(6.69243e-07 -8.39208e-07 -0.00100136)
(8.60945e-07 -1.07009e-06 -0.00100173)
(1.10997e-06 -1.36718e-06 -0.00100221)
(1.43389e-06 -1.75017e-06 -0.00100282)
(1.85586e-06 -2.24474e-06 -0.0010036)
(2.40637e-06 -2.88442e-06 -0.00100462)
(3.12566e-06 -3.71307e-06 -0.00100592)
(4.06673e-06 -4.78815e-06 -0.00100761)
(5.29959e-06 -6.18505e-06 -0.0010098)
(6.91675e-06 -8.00284e-06 -0.00101263)
(9.04066e-06 -1.03718e-05 -0.00101631)
(1.18339e-05 -1.3464e-05 -0.00102113)
(1.55144e-05 -1.75093e-05 -0.00102758)
(2.03773e-05 -2.28239e-05 -0.0010359)
(2.68072e-05 -2.98183e-05 -0.00104318)
(3.51624e-05 -3.87629e-05 -0.00104299)
(4.4509e-05 -4.79356e-05 -0.00107838)
(5.00745e-05 -5.19234e-05 -0.00133376)
(5.29633e-05 -5.8813e-05 -0.000354724)
(-5.3966e-05 8.54915e-05 -0.00277129)
(4.2509e-07 -5.18633e-06 -0.00131687)
(6.06964e-05 -0.000106695 -0.00294975)
(4.7121e-05 -5.36752e-05 -0.00233234)
(5.99207e-06 -6.97709e-05 -0.00316962)
(-6.57036e-05 -6.27236e-05 -0.00217696)
(-8.45433e-05 -3.51079e-05 -0.00321348)
(-5.99011e-05 4.8344e-05 -0.00225237)
(-7.62992e-05 0.000165984 -0.00335125)
(-5.36183e-05 5.50844e-05 -0.00179967)
(-9.95407e-05 -1.58146e-06 -0.00331377)
(-7.96988e-05 -6.91926e-06 -0.00202803)
(-6.19955e-05 1.8905e-05 -0.00205834)
(1.77128e-05 4.117e-05 -0.00203458)
(2.82941e-05 6.20776e-05 -0.00145948)
(-1.5929e-05 4.57728e-05 -0.000920372)
(-1.16933e-05 3.38002e-05 -0.00101408)
(-6.25408e-06 2.41616e-05 -0.00101459)
(-3.19491e-06 1.76097e-05 -0.00100876)
(-1.28776e-06 1.28658e-05 -0.00100461)
(-7.36297e-08 9.37386e-06 -0.00100212)
(6.66023e-07 6.80593e-06 -0.00100056)
(1.08576e-06 4.9207e-06 -0.000999608)
(1.29473e-06 3.53858e-06 -0.000999047)
(1.36053e-06 2.53059e-06 -0.000998738)
(1.33547e-06 1.79817e-06 -0.000998612)
(1.25674e-06 1.26771e-06 -0.000998603)
(1.14935e-06 8.84963e-07 -0.000998666)
(1.02964e-06 6.10124e-07 -0.000998767)
(9.08092e-07 4.1395e-07 -0.000998886)
(7.91132e-07 2.74972e-07 -0.000999011)
(6.82449e-07 1.77429e-07 -0.000999133)
(5.83903e-07 1.09772e-07 -0.000999248)
(4.96158e-07 6.35541e-08 -0.000999353)
(4.19118e-07 3.26161e-08 -0.000999448)
(3.52233e-07 1.2478e-08 -0.000999532)
(2.94728e-07 -1.59363e-10 -0.000999606)
(2.45732e-07 -7.72862e-09 -0.00099967)
(2.0428e-07 -1.18641e-08 -0.000999725)
(1.69468e-07 -1.37842e-08 -0.000999771)
(1.40446e-07 -1.43444e-08 -0.000999811)
(1.16433e-07 -1.41339e-08 -0.000999844)
(9.67258e-08 -1.35491e-08 -0.000999872)
(8.06968e-08 -1.28461e-08 -0.000999895)
(6.77941e-08 -1.21784e-08 -0.000999915)
(5.75351e-08 -1.16257e-08 -0.000999932)
(4.95e-08 -1.1219e-08 -0.000999946)
(4.33242e-08 -1.09556e-08 -0.000999958)
(3.86661e-08 -1.08116e-08 -0.00099997)
(3.52045e-08 -1.0688e-08 -0.000999981)
(3.34372e-08 -1.0456e-08 -0.00099999)
)
;
    }
}


// ************************************************************************* //
