/*--------------------------------*- C++ -*----------------------------------*\
| =========                 |                                                 |
| \\      /  F ield         | OpenFOAM: The Open Source CFD Toolbox           |
|  \\    /   O peration     | Version:  5.x                                   |
|   \\  /    A nd           | Web:      www.OpenFOAM.org                      |
|    \\/     M anipulation  |                                                 |
\*---------------------------------------------------------------------------*/
FoamFile
{
    version     2.0;
    format      ascii;
    class       surfaceScalarField;
    location    "300";
    object      phi;
}
// * * * * * * * * * * * * * * * * * * * * * * * * * * * * * * * * * * * * * //

dimensions      [0 3 -1 0 0 0 0];

internalField   nonuniform List<scalar> 
89
(
-108.163
-108.17
-108.189
-108.227
-108.265
-108.311
-108.381
-108.482
-108.605
-108.725
-108.872
-109.019
-109.127
-109.239
-109.353
-109.426
-109.435
-109.371
-109.23
-109.01
-108.708
-108.328
-107.863
-107.324
-106.717
-106.05
-105.33
-104.565
-103.762
-102.928
-102.066
-101.179
-100.269
-99.3377
-98.3844
-97.41
-96.4157
-95.404
-94.3787
-93.3454
-92.3115
-91.2857
-90.2778
-89.299
-88.3606
-87.474
-86.6499
-85.8985
-85.2289
-84.6495
-84.1659
-83.7825
-83.5005
-83.3177
-83.23
-83.2338
-83.3263
-83.506
-83.7728
-84.1276
-84.5702
-85.0966
-85.6968
-86.3532
-87.0416
-87.7327
-88.3962
-89.0047
-89.5349
-89.9679
-90.2883
-90.485
-90.5514
-90.4874
-90.2949
-89.9809
-89.5509
-89.0158
-88.3827
-87.6622
-86.8616
-85.9926
-85.0675
-84.1047
-83.1262
-82.1544
-81.226
-80.4015
-79.8541
)
;

boundaryField
{
    inlet
    {
        type            calculated;
        value           uniform -79.5148;
    }
    outlet
    {
        type            calculated;
        value           uniform 108.16;
    }
    repeat_boundary
    {
        type            calculated;
        value           uniform 0;
    }
    procBoundary0to1
    {
        type            processor;
        value           nonuniform List<scalar> 
90
(
0.00145535
0.0085928
0.0227487
0.0469842
0.0521992
0.0619763
0.0830298
0.111903
0.143697
0.158015
0.177948
0.202099
0.209215
0.225645
0.243322
0.249718
0.23971
0.220758
0.19855
0.174207
0.148646
0.128071
0.100988
0.0840069
0.0716323
0.06513
0.0639419
0.0676665
0.0754232
0.0860839
0.098256
0.110414
0.121025
0.128683
0.13228
0.131068
0.124769
0.113654
0.0985995
0.0810613
0.0630649
0.0465707
0.0339761
0.02785
0.0301351
0.0421543
0.0646878
0.0979877
0.141907
0.195848
0.257918
0.327595
0.403048
0.482439
0.564497
0.64944
0.736811
0.825339
0.914231
1.00308
1.0917
1.17983
1.26665
1.35045
1.42855
1.49744
1.55345
1.59348
1.61558
1.6189
1.60345
1.57009
1.52079
1.45785
1.38305
1.2981
1.20463
1.10419
0.998045
0.88744
0.773684
0.658455
0.54405
0.433854
0.33202
0.241524
0.172556
0.139315
0.178705
0.216849
)
;
    }
    procBoundary0to2
    {
        type            processor;
        value           nonuniform List<scalar> 
90
(
0.00213514
-0.00195779
-0.00366763
-0.00902205
-0.0145149
-0.0151123
-0.0137457
-0.0105185
-0.0208295
-0.0384535
-0.0301433
-0.0554057
-0.101231
-0.113707
-0.129574
-0.176078
-0.231496
-0.28432
-0.339172
-0.394398
-0.450775
-0.508097
-0.565761
-0.622848
-0.678715
-0.732576
-0.783924
-0.832476
-0.878094
-0.920749
-0.960454
-0.997148
-1.0306
-1.06032
-1.08557
-1.10545
-1.11901
-1.12537
-1.1239
-1.11435
-1.09695
-1.07241
-1.04186
-1.00667
-0.968515
-0.928762
-0.888738
-0.849462
-0.811484
-0.775283
-0.741464
-0.710969
-0.68512
-0.665247
-0.652151
-0.645659
-0.644288
-0.645659
-0.647411
-0.648263
-0.649132
-0.653422
-0.666481
-0.693975
-0.740189
-0.806385
-0.889909
-0.984983
-1.08533
-1.18595
-1.28302
-1.37345
-1.45433
-1.52189
-1.57558
-1.61209
-1.63457
-1.6393
-1.63118
-1.60794
-1.57426
-1.52744
-1.46914
-1.39671
-1.31051
-1.21327
-1.101
-0.963803
-0.726108
-0.556147
)
;
    }
}


// ************************************************************************* //
