/*--------------------------------*- C++ -*----------------------------------*\
| =========                 |                                                 |
| \\      /  F ield         | OpenFOAM: The Open Source CFD Toolbox           |
|  \\    /   O peration     | Version:  5.x                                   |
|   \\  /    A nd           | Web:      www.OpenFOAM.org                      |
|    \\/     M anipulation  |                                                 |
\*---------------------------------------------------------------------------*/
FoamFile
{
    version     2.0;
    format      ascii;
    class       volVectorField;
    location    "300";
    object      stored_U;
}
// * * * * * * * * * * * * * * * * * * * * * * * * * * * * * * * * * * * * * //

dimensions      [0 1 -1 0 0 0 0];

internalField   nonuniform List<vector> 
90
(
(0.0155969 -0.00252554 -4.27262)
(0.0119921 -0.00229657 -4.27258)
(0.0107538 -0.00114049 -4.26852)
(0.0206317 0.000263453 -4.26268)
(0.0297097 0.00230257 -4.27344)
(0.0386829 0.00389172 -4.26366)
(0.0438939 0.00192188 -4.27485)
(0.0505679 0.00311649 -4.27724)
(0.0617235 0.00129467 -4.27681)
(0.0693586 -0.00581448 -4.29319)
(0.0788713 -0.00932784 -4.29016)
(0.0898133 -0.0124288 -4.29622)
(0.0961218 -0.0206863 -4.31414)
(0.103223 -0.0292228 -4.31684)
(0.112622 -0.03769 -4.31543)
(0.121693 -0.0517589 -4.33035)
(0.126917 -0.0676999 -4.33512)
(0.12618 -0.0846528 -4.3391)
(0.124224 -0.103211 -4.34062)
(0.121976 -0.123323 -4.33947)
(0.117779 -0.144533 -4.33462)
(0.111933 -0.166748 -4.32637)
(0.105453 -0.189789 -4.31405)
(0.0984139 -0.213105 -4.29785)
(0.0917128 -0.236477 -4.27789)
(0.0856251 -0.259646 -4.25449)
(0.0799362 -0.282404 -4.22809)
(0.0747146 -0.304652 -4.19905)
(0.0699613 -0.326424 -4.16777)
(0.0656232 -0.347898 -4.1346)
(0.0615857 -0.369389 -4.09989)
(0.0576651 -0.391322 -4.06389)
(0.0536147 -0.414175 -4.02681)
(0.049148 -0.438413 -3.98875)
(0.0439692 -0.464408 -3.94978)
(0.037818 -0.492371 -3.90986)
(0.0305305 -0.522286 -3.86903)
(0.0220421 -0.553947 -3.82726)
(0.0124465 -0.586939 -3.78462)
(0.00200525 -0.620696 -3.74118)
(-0.00882806 -0.654524 -3.69713)
(-0.0194248 -0.687666 -3.65271)
(-0.0290077 -0.719319 -3.60824)
(-0.0367191 -0.748674 -3.56404)
(-0.0417665 -0.775023 -3.52064)
(-0.0434847 -0.797679 -3.47848)
(-0.0414037 -0.81603 -3.43804)
(-0.035283 -0.829574 -3.39976)
(-0.02513 -0.837928 -3.36412)
(-0.011196 -0.840791 -3.33158)
(0.00601796 -0.83791 -3.30252)
(0.0258369 -0.82912 -3.27717)
(0.0475163 -0.814474 -3.25592)
(0.0704118 -0.794099 -3.23887)
(0.0939218 -0.768315 -3.22601)
(0.117453 -0.737656 -3.21729)
(0.140502 -0.702882 -3.21254)
(0.162637 -0.664904 -3.21157)
(0.183503 -0.62469 -3.21427)
(0.202839 -0.583178 -3.22059)
(0.220474 -0.541236 -3.23062)
(0.236268 -0.49967 -3.24445)
(0.250016 -0.459282 -3.26213)
(0.261344 -0.420942 -3.28348)
(0.269664 -0.38561 -3.308)
(0.274234 -0.354291 -3.33487)
(0.274273 -0.327894 -3.36293)
(0.269171 -0.307008 -3.39086)
(0.258714 -0.291706 -3.41736)
(0.243131 -0.281494 -3.44124)
(0.222954 -0.275478 -3.46161)
(0.198879 -0.272502 -3.47769)
(0.171778 -0.271335 -3.48901)
(0.142848 -0.270703 -3.49487)
(0.113564 -0.269433 -3.49543)
(0.0854128 -0.266341 -3.4902)
(0.0597428 -0.260567 -3.48012)
(0.0377635 -0.251252 -3.46493)
(0.0202428 -0.23776 -3.44567)
(0.00763965 -0.219558 -3.42231)
(0.000259273 -0.196339 -3.39589)
(-0.00149649 -0.167827 -3.36657)
(0.00263073 -0.133738 -3.33511)
(0.0128122 -0.0937373 -3.30156)
(0.029326 -0.0477245 -3.26693)
(0.0496172 0.00292704 -3.23273)
(0.0741643 0.0602045 -3.20081)
(0.104766 0.127589 -3.17384)
(0.141356 0.203938 -3.14619)
(0.164171 0.25261 -3.1197)
)
;

boundaryField
{
    inlet
    {
        type            calculated;
        value           uniform (0.164171 0.25261 -3.1197);
    }
    outlet
    {
        type            calculated;
        value           uniform (0.0155969 -0.00252554 -4.27262);
    }
    repeat_boundary
    {
        type            calculated;
        value           nonuniform List<vector> 
180
(
(0.0155969 0 -4.27262)
(0.0119921 0 -4.27258)
(0.0107538 0 -4.26852)
(0.0206317 0 -4.26268)
(0.0297097 0 -4.27344)
(0.0386829 0 -4.26366)
(0.0438939 0 -4.27485)
(0.0505679 0 -4.27724)
(0.0617235 0 -4.27681)
(0.0693586 0 -4.29319)
(0.0788713 0 -4.29016)
(0.0898133 0 -4.29622)
(0.0961218 0 -4.31414)
(0.103223 0 -4.31684)
(0.112622 0 -4.31543)
(0.121693 0 -4.33035)
(0.126917 0 -4.33512)
(0.12618 0 -4.3391)
(0.124224 0 -4.34062)
(0.121976 0 -4.33947)
(0.117779 0 -4.33462)
(0.111933 0 -4.32637)
(0.105453 0 -4.31405)
(0.0984139 0 -4.29785)
(0.0917128 0 -4.27789)
(0.0856251 0 -4.25449)
(0.0799362 0 -4.22809)
(0.0747146 0 -4.19905)
(0.0699613 0 -4.16777)
(0.0656232 0 -4.1346)
(0.0615857 0 -4.09989)
(0.0576651 0 -4.06389)
(0.0536147 0 -4.02681)
(0.049148 0 -3.98875)
(0.0439692 0 -3.94978)
(0.037818 0 -3.90986)
(0.0305305 0 -3.86903)
(0.0220421 0 -3.82726)
(0.0124465 0 -3.78462)
(0.00200525 0 -3.74118)
(-0.00882806 0 -3.69713)
(-0.0194248 0 -3.65271)
(-0.0290077 0 -3.60824)
(-0.0367191 0 -3.56404)
(-0.0417665 0 -3.52064)
(-0.0434847 0 -3.47848)
(-0.0414037 0 -3.43804)
(-0.035283 0 -3.39976)
(-0.02513 0 -3.36412)
(-0.011196 0 -3.33158)
(0.00601796 0 -3.30252)
(0.0258369 0 -3.27717)
(0.0475163 0 -3.25592)
(0.0704118 0 -3.23887)
(0.0939218 0 -3.22601)
(0.117453 0 -3.21729)
(0.140502 0 -3.21254)
(0.162637 0 -3.21157)
(0.183503 0 -3.21427)
(0.202839 0 -3.22059)
(0.220474 0 -3.23062)
(0.236268 0 -3.24445)
(0.250016 0 -3.26213)
(0.261344 0 -3.28348)
(0.269664 0 -3.308)
(0.274234 0 -3.33487)
(0.274273 0 -3.36293)
(0.269171 0 -3.39086)
(0.258714 0 -3.41736)
(0.243131 0 -3.44124)
(0.222954 0 -3.46161)
(0.198879 0 -3.47769)
(0.171778 0 -3.48901)
(0.142848 0 -3.49487)
(0.113564 0 -3.49543)
(0.0854128 0 -3.4902)
(0.0597428 0 -3.48012)
(0.0377635 0 -3.46493)
(0.0202428 0 -3.44567)
(0.00763965 0 -3.42231)
(0.000259273 0 -3.39589)
(-0.00149649 0 -3.36657)
(0.00263073 0 -3.33511)
(0.0128122 0 -3.30156)
(0.029326 0 -3.26693)
(0.0496172 0 -3.23273)
(0.0741643 0 -3.20081)
(0.104766 0 -3.17384)
(0.141356 0 -3.14619)
(0.164171 0 -3.1197)
(0 -0.00252554 -4.27262)
(0 -0.00229657 -4.27258)
(0 -0.00114049 -4.26852)
(0 0.000263453 -4.26268)
(0 0.00230257 -4.27344)
(0 0.00389172 -4.26366)
(0 0.00192188 -4.27485)
(0 0.00311649 -4.27724)
(0 0.00129467 -4.27681)
(0 -0.00581448 -4.29319)
(0 -0.00932784 -4.29016)
(0 -0.0124288 -4.29622)
(0 -0.0206863 -4.31414)
(0 -0.0292228 -4.31684)
(0 -0.03769 -4.31543)
(0 -0.0517589 -4.33035)
(0 -0.0676999 -4.33512)
(0 -0.0846528 -4.3391)
(0 -0.103211 -4.34062)
(0 -0.123323 -4.33947)
(0 -0.144533 -4.33462)
(0 -0.166748 -4.32637)
(0 -0.189789 -4.31405)
(0 -0.213105 -4.29785)
(0 -0.236477 -4.27789)
(0 -0.259646 -4.25449)
(0 -0.282404 -4.22809)
(0 -0.304652 -4.19905)
(0 -0.326424 -4.16777)
(0 -0.347898 -4.1346)
(0 -0.369389 -4.09989)
(0 -0.391322 -4.06389)
(0 -0.414175 -4.02681)
(0 -0.438413 -3.98875)
(0 -0.464408 -3.94978)
(0 -0.492371 -3.90986)
(0 -0.522286 -3.86903)
(0 -0.553947 -3.82726)
(0 -0.586939 -3.78462)
(0 -0.620696 -3.74118)
(0 -0.654524 -3.69713)
(0 -0.687666 -3.65271)
(0 -0.719319 -3.60824)
(0 -0.748674 -3.56404)
(0 -0.775023 -3.52064)
(0 -0.797679 -3.47848)
(0 -0.81603 -3.43804)
(0 -0.829574 -3.39976)
(0 -0.837928 -3.36412)
(0 -0.840791 -3.33158)
(0 -0.83791 -3.30252)
(0 -0.82912 -3.27717)
(0 -0.814474 -3.25592)
(0 -0.794099 -3.23887)
(0 -0.768315 -3.22601)
(0 -0.737656 -3.21729)
(0 -0.702882 -3.21254)
(0 -0.664904 -3.21157)
(0 -0.62469 -3.21427)
(0 -0.583178 -3.22059)
(0 -0.541236 -3.23062)
(0 -0.49967 -3.24445)
(0 -0.459282 -3.26213)
(0 -0.420942 -3.28348)
(0 -0.38561 -3.308)
(0 -0.354291 -3.33487)
(0 -0.327894 -3.36293)
(0 -0.307008 -3.39086)
(0 -0.291706 -3.41736)
(0 -0.281494 -3.44124)
(0 -0.275478 -3.46161)
(0 -0.272502 -3.47769)
(0 -0.271335 -3.48901)
(0 -0.270703 -3.49487)
(0 -0.269433 -3.49543)
(0 -0.266341 -3.4902)
(0 -0.260567 -3.48012)
(0 -0.251252 -3.46493)
(0 -0.23776 -3.44567)
(0 -0.219558 -3.42231)
(0 -0.196339 -3.39589)
(0 -0.167827 -3.36657)
(0 -0.133738 -3.33511)
(0 -0.0937373 -3.30156)
(0 -0.0477245 -3.26693)
(0 0.00292704 -3.23273)
(0 0.0602045 -3.20081)
(0 0.127589 -3.17384)
(0 0.203938 -3.14619)
(0 0.25261 -3.1197)
)
;
    }
    procBoundary0to1
    {
        type            processor;
        value           nonuniform List<vector> 
90
(
(-0.0276215 -0.017717 -4.45857)
(-0.0288935 -0.0181958 -4.44808)
(-0.0258907 -0.0216148 -4.45374)
(-0.0248244 -0.0241755 -4.45972)
(-0.018065 -0.0247674 -4.45083)
(-0.0216458 -0.0251154 -4.45116)
(-0.0230398 -0.0203338 -4.44233)
(-0.0229242 -0.0207542 -4.44816)
(-0.0199291 -0.0227033 -4.44393)
(-0.0177804 -0.0272041 -4.43047)
(-0.0117224 -0.0326711 -4.43148)
(-0.00826426 -0.0379349 -4.42297)
(-0.00719953 -0.0430172 -4.41464)
(-0.007158 -0.0470408 -4.40378)
(-0.00311903 -0.0578176 -4.381)
(0.00142015 -0.0756256 -4.37433)
(-0.00214266 -0.084216 -4.34575)
(-0.00842295 -0.0972686 -4.32866)
(-0.0137348 -0.109393 -4.31057)
(-0.0204132 -0.120949 -4.28872)
(-0.0330478 -0.14038 -4.25307)
(-0.0402492 -0.153103 -4.24495)
(-0.0514933 -0.174237 -4.19887)
(-0.0559768 -0.191775 -4.17838)
(-0.0594308 -0.211144 -4.14691)
(-0.0599837 -0.230967 -4.1135)
(-0.0582946 -0.251295 -4.07776)
(-0.0543739 -0.272116 -4.03889)
(-0.0484505 -0.293416 -3.99668)
(-0.0408271 -0.315111 -3.95091)
(-0.0318817 -0.337088 -3.9014)
(-0.0220475 -0.359181 -3.84811)
(-0.0117867 -0.381172 -3.7911)
(-0.00155599 -0.402796 -3.73058)
(0.00822536 -0.423758 -3.66689)
(0.0172054 -0.443756 -3.60051)
(0.0251208 -0.462513 -3.53199)
(0.0318118 -0.479799 -3.46194)
(0.0372306 -0.495468 -3.39102)
(0.0414371 -0.509464 -3.31981)
(0.0445846 -0.521839 -3.24879)
(0.0468998 -0.532738 -3.1783)
(0.0486538 -0.542375 -3.10851)
(0.0501335 -0.551006 -3.03942)
(0.0516316 -0.558786 -2.97068)
(0.0533652 -0.565847 -2.90188)
(0.055527 -0.572243 -2.83247)
(0.0583136 -0.577897 -2.76187)
(0.0619344 -0.582572 -2.68954)
(0.0666013 -0.585897 -2.61495)
(0.0724272 -0.58737 -2.53778)
(0.0794574 -0.586388 -2.45803)
(0.0876693 -0.582391 -2.37537)
(0.0969725 -0.575149 -2.2902)
(0.107132 -0.56507 -2.2024)
(0.118034 -0.551728 -2.11238)
(0.129903 -0.533843 -2.02073)
(0.142679 -0.511474 -1.92796)
(0.156364 -0.484816 -1.83469)
(0.171053 -0.454228 -1.74155)
(0.18695 -0.420249 -1.64912)
(0.204325 -0.38361 -1.55788)
(0.223431 -0.345244 -1.46817)
(0.244387 -0.306276 -1.38018)
(0.26707 -0.267974 -1.294)
(0.291055 -0.231654 -1.2097)
(0.315629 -0.198584 -1.12737)
(0.33989 -0.169891 -1.04718)
(0.362886 -0.146422 -0.969291)
(0.383739 -0.128658 -0.894081)
(0.401689 -0.116664 -0.821935)
(0.416083 -0.110135 -0.753217)
(0.426378 -0.108578 -0.688351)
(0.432153 -0.111388 -0.627596)
(0.433119 -0.117908 -0.571163)
(0.429158 -0.127503 -0.519651)
(0.420207 -0.139677 -0.473516)
(0.406045 -0.154119 -0.432185)
(0.386531 -0.170377 -0.396015)
(0.361593 -0.188114 -0.365253)
(0.331244 -0.207155 -0.340155)
(0.295534 -0.227418 -0.320999)
(0.254699 -0.248895 -0.308083)
(0.209294 -0.271565 -0.30172)
(0.160254 -0.295297 -0.301926)
(0.109235 -0.320018 -0.309194)
(0.0602234 -0.346103 -0.323959)
(0.0165827 -0.373732 -0.351004)
(-0.0109177 -0.401668 -0.393641)
(-0.0228245 -0.420984 -0.408451)
)
;
    }
    procBoundary0to2
    {
        type            processor;
        value           nonuniform List<vector> 
90
(
(0.00823328 0.00193136 -4.28347)
(0.00553921 0.00340952 -4.28478)
(0.00155873 0.00477797 -4.27981)
(0.00560657 0.00563664 -4.26491)
(0.00460464 0.00842702 -4.28022)
(0.0104555 0.0105814 -4.26869)
(0.0240749 0.00894895 -4.2562)
(0.0276664 0.0123073 -4.2721)
(0.0351831 0.0131625 -4.26179)
(0.0439636 0.00835758 -4.25967)
(0.0515539 0.0097133 -4.27327)
(0.0566897 0.00883676 -4.27448)
(0.0637087 0.00404542 -4.27459)
(0.0752092 0.00186672 -4.29807)
(0.084481 -0.00239109 -4.29729)
(0.0874742 -0.00506711 -4.30972)
(0.0925202 -0.00840865 -4.32912)
(0.098177 -0.010963 -4.34698)
(0.0989988 -0.0131738 -4.36824)
(0.0999592 -0.0155253 -4.3912)
(0.104754 -0.0176402 -4.41622)
(0.109054 -0.0194282 -4.44317)
(0.113702 -0.0210284 -4.4726)
(0.121891 -0.0224357 -4.50458)
(0.133055 -0.0235181 -4.53998)
(0.147197 -0.0242501 -4.57938)
(0.164309 -0.0245158 -4.62337)
(0.184411 -0.0241489 -4.67248)
(0.207406 -0.0229323 -4.72725)
(0.233157 -0.0205811 -4.78819)
(0.261415 -0.0167428 -4.85575)
(0.291813 -0.010998 -4.93036)
(0.323839 -0.00286732 -5.01236)
(0.356815 0.0081755 -5.10199)
(0.389883 0.0226797 -5.19935)
(0.42199 0.041172 -5.30436)
(0.451882 0.0640795 -5.41669)
(0.478168 0.0917094 -5.53578)
(0.499359 0.12415 -5.66078)
(0.513999 0.161234 -5.79063)
(0.520806 0.202465 -5.924)
(0.518885 0.247028 -6.05949)
(0.507956 0.29379 -6.19561)
(0.488592 0.341381 -6.33096)
(0.462379 0.388276 -6.46432)
(0.431966 0.43294 -6.59481)
(0.400934 0.473983 -6.72208)
(0.373493 0.510175 -6.846)
(0.353929 0.540619 -6.96704)
(0.345844 0.564739 -7.08614)
(0.351406 0.582119 -7.20452)
(0.370832 0.592322 -7.32354)
(0.402275 0.594768 -7.44449)
(0.44219 0.588756 -7.56848)
(0.486024 0.573772 -7.69633)
(0.529072 0.549796 -7.82844)
(0.567206 0.517656 -7.9648)
(0.597233 0.479124 -8.10501)
(0.616905 0.436591 -8.24828)
(0.624735 0.392539 -8.39339)
(0.619789 0.348713 -8.53889)
(0.601657 0.305583 -8.68324)
(0.570498 0.262141 -8.82499)
(0.526984 0.216425 -8.96307)
(0.472143 0.166342 -9.09686)
(0.407304 0.110693 -9.22617)
(0.334025 0.0500563 -9.35119)
(0.25418 -0.0129253 -9.47215)
(0.170867 -0.0748623 -9.58943)
(0.0879543 -0.133243 -9.70337)
(0.00775244 -0.186596 -9.81426)
(-0.0686078 -0.234384 -9.92258)
(-0.140323 -0.276656 -10.0283)
(-0.206953 -0.312217 -10.1318)
(-0.267337 -0.342102 -10.2322)
(-0.322139 -0.364786 -10.3307)
(-0.372846 -0.383155 -10.4248)
(-0.419528 -0.395338 -10.5164)
(-0.463451 -0.404455 -10.6027)
(-0.504325 -0.409455 -10.6852)
(-0.542419 -0.41345 -10.7619)
(-0.577429 -0.415632 -10.8338)
(-0.608623 -0.41728 -10.9)
(-0.636202 -0.417716 -10.9611)
(-0.659622 -0.417529 -11.0172)
(-0.679916 -0.416341 -11.0683)
(-0.696905 -0.413049 -11.1135)
(-0.71136 -0.407209 -11.154)
(-0.724155 -0.400612 -11.1991)
(-0.729981 -0.397866 -11.2302)
)
;
    }
}


// ************************************************************************* //
