/*--------------------------------*- C++ -*----------------------------------*\
| =========                 |                                                 |
| \\      /  F ield         | OpenFOAM: The Open Source CFD Toolbox           |
|  \\    /   O peration     | Version:  5.x                                   |
|   \\  /    A nd           | Web:      www.OpenFOAM.org                      |
|    \\/     M anipulation  |                                                 |
\*---------------------------------------------------------------------------*/
FoamFile
{
    version     2.0;
    format      ascii;
    class       volVectorField;
    location    "300";
    object      U;
}
// * * * * * * * * * * * * * * * * * * * * * * * * * * * * * * * * * * * * * //

dimensions      [0 1 -1 0 0 0 0];

internalField   nonuniform List<vector> 
90
(
(0.0214676 -0.00331573 -4.33009)
(0.0233063 -0.00381782 -4.324)
(0.0292827 -0.00561959 -4.32127)
(0.0385853 -0.0086505 -4.33236)
(0.0418367 -0.0091434 -4.33162)
(0.0464875 -0.00773369 -4.33374)
(0.0534345 -0.00600943 -4.33211)
(0.0613987 -0.00814737 -4.33289)
(0.0713655 -0.0136192 -4.34113)
(0.0765908 -0.0185793 -4.35471)
(0.0837508 -0.0194819 -4.34408)
(0.0914233 -0.0281309 -4.35823)
(0.0958719 -0.0385853 -4.36765)
(0.102577 -0.045152 -4.36456)
(0.108461 -0.0564544 -4.37153)
(0.112214 -0.0722212 -4.37683)
(0.112832 -0.0897229 -4.3775)
(0.110942 -0.107752 -4.37695)
(0.108192 -0.126917 -4.37274)
(0.104674 -0.146868 -4.36561)
(0.100253 -0.167539 -4.35519)
(0.0949593 -0.188781 -4.34159)
(0.0890562 -0.210293 -4.32458)
(0.0832512 -0.23177 -4.30447)
(0.078063 -0.253114 -4.28145)
(0.0732321 -0.274174 -4.25588)
(0.0688451 -0.294942 -4.22805)
(0.0648689 -0.315516 -4.19827)
(0.0612269 -0.3361 -4.16685)
(0.0577886 -0.356983 -4.13405)
(0.0543696 -0.37851 -4.10007)
(0.0507442 -0.401033 -4.06507)
(0.0466676 -0.424858 -4.02914)
(0.0419024 -0.450197 -3.99231)
(0.0362706 -0.477103 -3.9546)
(0.0296667 -0.50548 -3.91604)
(0.0220926 -0.535074 -3.87665)
(0.0136779 -0.565496 -3.83651)
(0.00470527 -0.596233 -3.79573)
(-0.00439323 -0.626693 -3.7545)
(-0.013046 -0.656226 -3.71309)
(-0.02058 -0.684156 -3.67182)
(-0.0262793 -0.709807 -3.63107)
(-0.0294671 -0.732528 -3.59119)
(-0.0296222 -0.751776 -3.55273)
(-0.0263879 -0.76702 -3.51611)
(-0.0196082 -0.777822 -3.48179)
(-0.00933399 -0.783841 -3.45022)
(0.00418756 -0.784809 -3.42171)
(0.0205081 -0.780595 -3.39666)
(0.0390487 -0.771156 -3.37536)
(0.0591768 -0.756552 -3.35799)
(0.0802795 -0.736987 -3.34468)
(0.101818 -0.7128 -3.33538)
(0.123312 -0.684501 -3.32998)
(0.144329 -0.652739 -3.32832)
(0.164468 -0.618268 -3.33029)
(0.183361 -0.581909 -3.33579)
(0.200722 -0.544476 -3.34478)
(0.216333 -0.506746 -3.35726)
(0.230006 -0.469452 -3.37325)
(0.241517 -0.433322 -3.39266)
(0.250539 -0.399121 -3.41525)
(0.256609 -0.367653 -3.44046)
(0.259168 -0.339732 -3.4675)
(0.25766 -0.316076 -3.49534)
(0.251673 -0.297148 -3.52275)
(0.241076 -0.283024 -3.54851)
(0.226094 -0.273347 -3.57156)
(0.207244 -0.267409 -3.59104)
(0.185242 -0.264293 -3.60627)
(0.16094 -0.262963 -3.61673)
(0.135329 -0.262387 -3.62211)
(0.109504 -0.261543 -3.62216)
(0.0845322 -0.259526 -3.6171)
(0.0613972 -0.255497 -3.60683)
(0.0409358 -0.248859 -3.59201)
(0.0238328 -0.239032 -3.57253)
(0.0105101 -0.22565 -3.54916)
(0.00131396 -0.208399 -3.52187)
(-0.00351041 -0.187088 -3.49142)
(-0.0037032 -0.161502 -3.4579)
(0.000873255 -0.13138 -3.42199)
(0.0102891 -0.0963877 -3.38381)
(0.0244236 -0.0562994 -3.34426)
(0.0423212 -0.0121308 -3.30497)
(0.0646398 0.0380366 -3.26844)
(0.0918305 0.0972873 -3.23747)
(0.123477 0.165044 -3.20487)
(0.143169 0.208324 -3.17254)
)
;

boundaryField
{
    inlet
    {
        type            zeroGradient;
    }
    outlet
    {
        type            zeroGradient;
    }
    repeat_boundary
    {
        type            slip;
    }
    procBoundary0to1
    {
        type            processor;
        value           nonuniform List<vector> 
90
(
(-0.0208527 -0.0186236 -4.49685)
(-0.0205309 -0.0195008 -4.4959)
(-0.021078 -0.0212589 -4.48825)
(-0.0195957 -0.0215826 -4.49316)
(-0.0191826 -0.0241548 -4.48962)
(-0.0182474 -0.0257702 -4.48529)
(-0.0165263 -0.0289683 -4.4827)
(-0.0145759 -0.0325105 -4.47846)
(-0.0130217 -0.0360909 -4.46486)
(-0.0104662 -0.0413802 -4.46574)
(-0.00934995 -0.0429777 -4.44681)
(-0.00759051 -0.049759 -4.43937)
(-0.00763472 -0.0565968 -4.42559)
(-0.00721754 -0.0650441 -4.41037)
(-0.00609084 -0.0764481 -4.39075)
(-0.00744364 -0.0882264 -4.37406)
(-0.0124466 -0.0972426 -4.35096)
(-0.0186347 -0.110354 -4.33047)
(-0.0254638 -0.122392 -4.30722)
(-0.0326664 -0.136206 -4.28341)
(-0.0392907 -0.152646 -4.26059)
(-0.0435396 -0.168291 -4.23524)
(-0.0487883 -0.187761 -4.20382)
(-0.0495791 -0.206856 -4.17794)
(-0.0491169 -0.227722 -4.1436)
(-0.0463887 -0.248208 -4.10844)
(-0.0418724 -0.268999 -4.06915)
(-0.0356866 -0.289978 -4.02652)
(-0.0281522 -0.311117 -3.98022)
(-0.0196117 -0.332312 -3.93021)
(-0.0104548 -0.353422 -3.87654)
(-0.00108223 -0.374252 -3.81936)
(0.00811997 -0.394572 -3.75891)
(0.0168077 -0.414133 -3.69557)
(0.0246999 -0.432687 -3.62978)
(0.0315958 -0.450011 -3.56207)
(0.0373868 -0.465931 -3.493)
(0.0420621 -0.480341 -3.42313)
(0.0457047 -0.49321 -3.35294)
(0.0484783 -0.504584 -3.28284)
(0.0506101 -0.514571 -3.21307)
(0.0523686 -0.523324 -3.14373)
(0.0540373 -0.531005 -3.07472)
(0.0558901 -0.537749 -3.00587)
(0.0581827 -0.543559 -2.93669)
(0.061106 -0.548391 -2.86674)
(0.0648343 -0.552081 -2.79552)
(0.0695265 -0.554347 -2.72256)
(0.0753259 -0.554818 -2.64759)
(0.0823627 -0.552981 -2.5703)
(0.0906964 -0.548298 -2.49061)
(0.100302 -0.540292 -2.40856)
(0.110969 -0.528826 -2.32423)
(0.12248 -0.514127 -2.23781)
(0.134585 -0.496774 -2.14981)
(0.147117 -0.477251 -2.06107)
(0.16076 -0.453861 -1.97119)
(0.175437 -0.426896 -1.88106)
(0.191168 -0.396715 -1.7912)
(0.208031 -0.363841 -1.70213)
(0.226128 -0.328966 -1.61429)
(0.245517 -0.29294 -1.52804)
(0.26614 -0.256755 -1.44362)
(0.287749 -0.221489 -1.36123)
(0.309878 -0.188218 -1.281)
(0.331863 -0.157931 -1.20306)
(0.352924 -0.131472 -1.12764)
(0.372275 -0.10947 -1.055)
(0.389212 -0.092257 -0.985455)
(0.403142 -0.0798592 -0.919305)
(0.413602 -0.072077 -0.856739)
(0.420285 -0.0686397 -0.797894)
(0.423068 -0.0692912 -0.743772)
(0.421726 -0.0738388 -0.693855)
(0.41598 -0.0818855 -0.647875)
(0.405618 -0.0929034 -0.6061)
(0.390504 -0.106475 -0.568673)
(0.370553 -0.122302 -0.53567)
(0.345767 -0.140192 -0.507243)
(0.316225 -0.160082 -0.483537)
(0.282116 -0.181974 -0.464751)
(0.243792 -0.205894 -0.451069)
(0.201918 -0.231809 -0.442682)
(0.157592 -0.259522 -0.439776)
(0.112409 -0.28863 -0.442435)
(0.0685755 -0.31854 -0.450358)
(0.0295807 -0.348312 -0.464483)
(-0.000717045 -0.378538 -0.488468)
(-0.0171578 -0.404914 -0.525979)
(-0.0217528 -0.421414 -0.535072)
)
;
    }
    procBoundary0to2
    {
        type            processor;
        value           nonuniform List<vector> 
90
(
(0.00974072 0.0044282 -4.33363)
(0.0136358 0.00392919 -4.32117)
(0.0190468 0.00492983 -4.32777)
(0.0246053 0.00534656 -4.33432)
(0.02678 0.00472276 -4.33427)
(0.0301583 0.00505454 -4.32773)
(0.038104 0.00449501 -4.34323)
(0.0390047 0.00528698 -4.34353)
(0.0413805 0.00580186 -4.3332)
(0.0483767 0.00431936 -4.35848)
(0.0515125 0.00602234 -4.36009)
(0.0560418 0.00443312 -4.34735)
(0.0615661 -0.000679027 -4.36562)
(0.0665209 -0.00149457 -4.38782)
(0.0748461 -0.00213261 -4.39208)
(0.0846822 -0.00539845 -4.39141)
(0.0906719 -0.00888372 -4.41882)
(0.0961753 -0.011545 -4.43545)
(0.100944 -0.014 -4.4586)
(0.107368 -0.016168 -4.48355)
(0.113547 -0.0181964 -4.51159)
(0.120357 -0.0200624 -4.54253)
(0.129209 -0.0217082 -4.57658)
(0.139896 -0.0230401 -4.61393)
(0.152976 -0.0239506 -4.65513)
(0.169128 -0.0242962 -4.70068)
(0.188029 -0.0238835 -4.75117)
(0.209534 -0.0224921 -4.8071)
(0.233415 -0.0198482 -4.86891)
(0.259377 -0.015627 -4.93701)
(0.287008 -0.0094572 -5.01173)
(0.315788 -0.00092683 -5.09333)
(0.345058 0.0104012 -5.18193)
(0.374021 0.0249666 -5.27756)
(0.401721 0.0431501 -5.38001)
(0.427081 0.0652525 -5.4889)
(0.448931 0.0914395 -5.60365)
(0.466084 0.121705 -5.72343)
(0.477424 0.155813 -5.84723)
(0.482049 0.193278 -5.97392)
(0.479423 0.233347 -6.10223)
(0.469562 0.275032 -6.23094)
(0.453186 0.317154 -6.35888)
(0.431822 0.35843 -6.48508)
(0.4078 0.397562 -6.60886)
(0.384117 0.433354 -6.72999)
(0.364168 0.464717 -6.84844)
(0.351304 0.490807 -6.96468)
(0.348253 0.511031 -7.07954)
(0.356566 0.524952 -7.19408)
(0.376248 0.532181 -7.30947)
(0.405683 0.532303 -7.42683)
(0.4419 0.524916 -7.54712)
(0.481098 0.509779 -7.67101)
(0.519282 0.487073 -7.79884)
(0.552832 0.457553 -7.93057)
(0.578852 0.422623 -8.06582)
(0.595251 0.38411 -8.20385)
(0.600645 0.343828 -8.34356)
(0.594213 0.303111 -8.48372)
(0.575605 0.262347 -8.62302)
(0.544949 0.220907 -8.76025)
(0.502836 0.17742 -8.89444)
(0.450247 0.130455 -9.02504)
(0.388481 0.0791987 -9.15177)
(0.319156 0.0240539 -9.27471)
(0.244221 -0.0332067 -9.39409)
(0.166067 -0.0899306 -9.51013)
(0.0876334 -0.143752 -9.6231)
(0.0114802 -0.193245 -9.73325)
(-0.0611638 -0.23769 -9.84077)
(-0.129599 -0.276858 -9.94588)
(-0.193323 -0.310594 -10.0484)
(-0.252076 -0.33843 -10.1484)
(-0.305642 -0.361087 -10.2452)
(-0.355068 -0.378156 -10.3392)
(-0.401149 -0.391544 -10.429)
(-0.444003 -0.40041 -10.5154)
(-0.484302 -0.407166 -10.5966)
(-0.521599 -0.411246 -10.6737)
(-0.555995 -0.414778 -10.7453)
(-0.587011 -0.416845 -10.8124)
(-0.614353 -0.4184 -10.8742)
(-0.638208 -0.418731 -10.9317)
(-0.658498 -0.418249 -10.9847)
(-0.676047 -0.416544 -11.0334)
(-0.690885 -0.413028 -11.0769)
(-0.704281 -0.407761 -11.1163)
(-0.717077 -0.402109 -11.1611)
(-0.722964 -0.399787 -11.192)
)
;
    }
}


// ************************************************************************* //
