/*--------------------------------*- C++ -*----------------------------------*\
| =========                 |                                                 |
| \\      /  F ield         | OpenFOAM: The Open Source CFD Toolbox           |
|  \\    /   O peration     | Version:  5.x                                   |
|   \\  /    A nd           | Web:      www.OpenFOAM.org                      |
|    \\/     M anipulation  |                                                 |
\*---------------------------------------------------------------------------*/
FoamFile
{
    version     2.0;
    format      ascii;
    class       volVectorField;
    location    "0.007";
    object      stored_U;
}
// * * * * * * * * * * * * * * * * * * * * * * * * * * * * * * * * * * * * * //

dimensions      [0 1 -1 0 0 0 0];

internalField   nonuniform List<vector> 
180
(
(5.56066e-10 -9.34205e-09 -0.00100006)
(3.3031e-10 -1.19438e-08 -0.00100006)
(9.65407e-11 -1.63212e-08 -0.00100007)
(-8.86116e-11 -2.17598e-08 -0.00100007)
(-2.3118e-10 -2.78326e-08 -0.00100007)
(-3.54773e-10 -3.43528e-08 -0.00100007)
(-4.78704e-10 -4.12781e-08 -0.00100008)
(-6.14419e-10 -4.86378e-08 -0.00100008)
(-7.68021e-10 -5.64926e-08 -0.00100009)
(-9.43132e-10 -6.49183e-08 -0.0010001)
(-1.14249e-09 -7.39996e-08 -0.0010001)
(-1.36864e-09 -8.38288e-08 -0.00100011)
(-1.62428e-09 -9.45059e-08 -0.00100012)
(-1.9124e-09 -1.0614e-07 -0.00100013)
(-2.23646e-09 -1.18848e-07 -0.00100014)
(-2.6005e-09 -1.32761e-07 -0.00100016)
(-3.00942e-09 -1.48018e-07 -0.00100017)
(-3.46912e-09 -1.64773e-07 -0.00100019)
(-3.98683e-09 -1.83194e-07 -0.00100021)
(-4.57138e-09 -2.03465e-07 -0.00100023)
(-5.23349e-09 -2.25787e-07 -0.00100025)
(-5.98612e-09 -2.50381e-07 -0.00100027)
(-6.84476e-09 -2.7749e-07 -0.0010003)
(-7.82781e-09 -3.07378e-07 -0.00100033)
(-8.95682e-09 -3.40339e-07 -0.00100036)
(-1.02569e-08 -3.76691e-07 -0.0010004)
(-1.17571e-08 -4.1679e-07 -0.00100044)
(-1.34906e-08 -4.61022e-07 -0.00100048)
(-1.54952e-08 -5.09816e-07 -0.00100053)
(-1.78136e-08 -5.63644e-07 -0.00100058)
(-2.04938e-08 -6.23025e-07 -0.00100064)
(-2.35898e-08 -6.88534e-07 -0.0010007)
(-2.71618e-08 -7.60803e-07 -0.00100077)
(-3.12768e-08 -8.40532e-07 -0.00100085)
(-3.60098e-08 -9.28492e-07 -0.00100093)
(-4.14441e-08 -1.02554e-06 -0.00100103)
(-4.76726e-08 -1.1326e-06 -0.00100113)
(-5.47989e-08 -1.25073e-06 -0.00100125)
(-6.29389e-08 -1.38108e-06 -0.00100137)
(-7.22218e-08 -1.52489e-06 -0.00100151)
(-8.27924e-08 -1.68359e-06 -0.00100166)
(-9.48126e-08 -1.8587e-06 -0.00100183)
(-1.08464e-07 -2.05192e-06 -0.00100202)
(-1.23949e-07 -2.26515e-06 -0.00100223)
(-1.41495e-07 -2.50046e-06 -0.00100246)
(-1.61355e-07 -2.76013e-06 -0.00100271)
(-1.83812e-07 -3.0467e-06 -0.00100298)
(-2.0918e-07 -3.36295e-06 -0.00100329)
(-2.37812e-07 -3.71196e-06 -0.00100363)
(-2.70096e-07 -4.09714e-06 -0.001004)
(-3.06465e-07 -4.52226e-06 -0.00100441)
(-3.47399e-07 -4.99149e-06 -0.00100486)
(-3.93425e-07 -5.50942e-06 -0.00100536)
(-4.45128e-07 -6.08116e-06 -0.00100591)
(-5.03148e-07 -6.71234e-06 -0.00100652)
(-5.6819e-07 -7.40922e-06 -0.00100719)
(-6.41026e-07 -8.1787e-06 -0.00100793)
(-7.22505e-07 -9.02847e-06 -0.00100874)
(-8.13555e-07 -9.96702e-06 -0.00100964)
(-9.15191e-07 -1.10038e-05 -0.00101064)
(-1.02852e-06 -1.21492e-05 -0.00101173)
(-1.15476e-06 -1.34148e-05 -0.00101294)
(-1.29523e-06 -1.48136e-05 -0.00101428)
(-1.45134e-06 -1.63598e-05 -0.00101576)
(-1.62464e-06 -1.80693e-05 -0.00101739)
(-1.81681e-06 -1.99596e-05 -0.00101919)
(-2.0296e-06 -2.20503e-05 -0.00102117)
(-2.26533e-06 -2.43627e-05 -0.00102336)
(-2.52696e-06 -2.69204e-05 -0.00102578)
(-2.81744e-06 -2.97496e-05 -0.00102845)
(-3.14033e-06 -3.28788e-05 -0.00103141)
(-3.50207e-06 -3.63348e-05 -0.00103468)
(-3.91672e-06 -4.01325e-05 -0.00103825)
(-4.41572e-06 -4.42397e-05 -0.001042)
(-5.06118e-06 -4.84911e-05 -0.0010462)
(-5.93745e-06 -5.24191e-05 -0.00105271)
(-7.01041e-06 -5.50027e-05 -0.00106356)
(-7.83482e-06 -5.48307e-05 -0.00106511)
(-6.93631e-06 -5.0121e-05 -0.00101589)
(-2.4924e-06 -3.9312e-05 -0.000724989)
(2.36469e-06 -6.2364e-06 -0.00360366)
(-2.94423e-06 8.43277e-06 9.51893e-06)
(-8.15305e-05 2.07729e-05 -0.00422795)
(-2.22611e-06 6.71154e-06 -0.000342732)
(9.82131e-05 -0.000135173 -0.00386641)
(3.94212e-05 -0.000217106 -0.00434681)
(2.00573e-05 -3.63743e-05 -0.000446833)
(0.000350604 -0.0004144 -0.00477256)
(-5.43957e-05 3.66017e-05 -0.00114822)
(-0.000336981 0.000841245 -0.00289375)
(-0.000430934 0.00105479 -0.00318283)
(-0.000166333 0.000216225 -0.000674414)
(-0.00112679 0.00151285 -0.0027618)
(-0.000374668 0.000519015 -0.00282499)
(1.83245e-05 -3.12369e-06 8.01693e-05)
(0.000122061 -3.03391e-05 -0.00552328)
(5.66821e-05 -1.92782e-05 -0.000346426)
(0.000730787 -0.000662134 -0.00270636)
(0.000626573 -0.000518842 -0.00178925)
(5.17843e-06 -0.000318522 -0.00135511)
(-0.000258884 -0.000392894 -0.00228601)
(-0.000151553 -0.00013732 -0.00175513)
(-6.25207e-05 -3.0005e-06 -0.0017618)
(-1.71185e-05 1.22465e-05 -0.00149917)
(2.0462e-05 -7.99176e-06 -0.0011516)
(7.07001e-05 -4.46883e-06 -0.000989781)
(8.78273e-05 1.25456e-06 -0.000868283)
(9.0341e-05 3.27627e-06 -0.000881299)
(8.62126e-05 3.08372e-06 -0.00090228)
(7.97327e-05 2.3603e-06 -0.000913568)
(7.28154e-05 1.73219e-06 -0.000921057)
(6.61998e-05 1.27939e-06 -0.000927981)
(6.01022e-05 9.51219e-07 -0.000934595)
(5.45435e-05 7.01603e-07 -0.000940678)
(4.94894e-05 5.044e-07 -0.000946191)
(4.48967e-05 3.45599e-07 -0.000951191)
(4.07244e-05 2.17038e-07 -0.000955732)
(3.69346e-05 1.13252e-07 -0.000959856)
(3.3493e-05 3.01031e-08 -0.000963601)
(3.03681e-05 -3.57696e-08 -0.000966999)
(2.75313e-05 -8.71391e-08 -0.000970083)
(2.49562e-05 -1.26265e-07 -0.000972879)
(2.26191e-05 -1.54939e-07 -0.000975414)
(2.04981e-05 -1.75037e-07 -0.000977715)
(1.85737e-05 -1.88138e-07 -0.000979803)
(1.68279e-05 -1.95564e-07 -0.000981697)
(1.52444e-05 -1.98413e-07 -0.000983415)
(1.38082e-05 -1.97678e-07 -0.000984974)
(1.2506e-05 -1.94272e-07 -0.000986389)
(1.13254e-05 -1.8888e-07 -0.000987672)
(1.02553e-05 -1.82051e-07 -0.000988835)
(9.28536e-06 -1.74226e-07 -0.00098989)
(8.40641e-06 -1.65753e-07 -0.000990846)
(7.60999e-06 -1.56916e-07 -0.000991713)
(6.88846e-06 -1.47934e-07 -0.000992498)
(6.23485e-06 -1.38975e-07 -0.00099321)
(5.64285e-06 -1.30167e-07 -0.000993855)
(5.10669e-06 -1.21604e-07 -0.000994438)
(4.62117e-06 -1.13354e-07 -0.000994967)
(4.18155e-06 -1.05464e-07 -0.000995446)
(3.78353e-06 -9.79621e-08 -0.00099588)
(3.4232e-06 -9.08654e-08 -0.000996272)
(3.09703e-06 -8.41796e-08 -0.000996627)
(2.8018e-06 -7.79031e-08 -0.000996949)
(2.5346e-06 -7.20279e-08 -0.00099724)
(2.29279e-06 -6.65416e-08 -0.000997503)
(2.07397e-06 -6.14286e-08 -0.000997742)
(1.87597e-06 -5.66714e-08 -0.000997957)
(1.69683e-06 -5.22518e-08 -0.000998152)
(1.53477e-06 -4.81511e-08 -0.000998329)
(1.38818e-06 -4.43503e-08 -0.000998489)
(1.25558e-06 -4.08292e-08 -0.000998633)
(1.13567e-06 -3.75689e-08 -0.000998764)
(1.02723e-06 -3.4552e-08 -0.000998883)
(9.29197e-07 -3.17627e-08 -0.00099899)
(8.40579e-07 -2.91863e-08 -0.000999087)
(7.60492e-07 -2.68095e-08 -0.000999175)
(6.88133e-07 -2.46198e-08 -0.000999254)
(6.22776e-07 -2.26055e-08 -0.000999326)
(5.63764e-07 -2.07553e-08 -0.000999391)
(5.10502e-07 -1.90583e-08 -0.00099945)
(4.62453e-07 -1.75038e-08 -0.000999504)
(4.19131e-07 -1.60816e-08 -0.000999553)
(3.80096e-07 -1.47815e-08 -0.000999597)
(3.44953e-07 -1.35937e-08 -0.000999637)
(3.13342e-07 -1.25085e-08 -0.000999673)
(2.84941e-07 -1.15166e-08 -0.000999706)
(2.59458e-07 -1.06091e-08 -0.000999736)
(2.36631e-07 -9.77724e-09 -0.000999763)
(2.16226e-07 -9.01277e-09 -0.000999788)
(1.98031e-07 -8.30777e-09 -0.000999811)
(1.81857e-07 -7.6547e-09 -0.000999832)
(1.67536e-07 -7.0463e-09 -0.000999851)
(1.54917e-07 -6.47538e-09 -0.000999869)
(1.43869e-07 -5.93482e-09 -0.000999885)
(1.34276e-07 -5.41842e-09 -0.0009999)
(1.26053e-07 -4.92541e-09 -0.000999914)
(1.19201e-07 -4.46444e-09 -0.000999928)
(1.14017e-07 -4.1355e-09 -0.000999942)
(1.11258e-07 -4.07183e-09 -0.000999953)
)
;

boundaryField
{
    inlet
    {
        type            calculated;
        value           uniform (1.11258e-07 -4.07183e-09 -0.000999953);
    }
    outlet
    {
        type            calculated;
        value           uniform (5.56066e-10 -9.34205e-09 -0.00100006);
    }
    repeat_boundary
    {
        type            calculated;
        value           nonuniform List<vector> 
360
(
(5.56066e-10 0 -0.00100006)
(3.3031e-10 0 -0.00100006)
(9.65407e-11 0 -0.00100007)
(-8.86116e-11 0 -0.00100007)
(-2.3118e-10 0 -0.00100007)
(-3.54773e-10 0 -0.00100007)
(-4.78704e-10 0 -0.00100008)
(-6.14419e-10 0 -0.00100008)
(-7.68021e-10 0 -0.00100009)
(-9.43132e-10 0 -0.0010001)
(-1.14249e-09 0 -0.0010001)
(-1.36864e-09 0 -0.00100011)
(-1.62428e-09 0 -0.00100012)
(-1.9124e-09 0 -0.00100013)
(-2.23646e-09 0 -0.00100014)
(-2.6005e-09 0 -0.00100016)
(-3.00942e-09 0 -0.00100017)
(-3.46912e-09 0 -0.00100019)
(-3.98683e-09 0 -0.00100021)
(-4.57138e-09 0 -0.00100023)
(-5.23349e-09 0 -0.00100025)
(-5.98612e-09 0 -0.00100027)
(-6.84476e-09 0 -0.0010003)
(-7.82781e-09 0 -0.00100033)
(-8.95682e-09 0 -0.00100036)
(-1.02569e-08 0 -0.0010004)
(-1.17571e-08 0 -0.00100044)
(-1.34906e-08 0 -0.00100048)
(-1.54952e-08 0 -0.00100053)
(-1.78136e-08 0 -0.00100058)
(-2.04938e-08 0 -0.00100064)
(-2.35898e-08 0 -0.0010007)
(-2.71618e-08 0 -0.00100077)
(-3.12768e-08 0 -0.00100085)
(-3.60098e-08 0 -0.00100093)
(-4.14441e-08 0 -0.00100103)
(-4.76726e-08 0 -0.00100113)
(-5.47989e-08 0 -0.00100125)
(-6.29389e-08 0 -0.00100137)
(-7.22218e-08 0 -0.00100151)
(-8.27924e-08 0 -0.00100166)
(-9.48126e-08 0 -0.00100183)
(-1.08464e-07 0 -0.00100202)
(-1.23949e-07 0 -0.00100223)
(-1.41495e-07 0 -0.00100246)
(-1.61355e-07 0 -0.00100271)
(-1.83812e-07 0 -0.00100298)
(-2.0918e-07 0 -0.00100329)
(-2.37812e-07 0 -0.00100363)
(-2.70096e-07 0 -0.001004)
(-3.06465e-07 0 -0.00100441)
(-3.47399e-07 0 -0.00100486)
(-3.93425e-07 0 -0.00100536)
(-4.45128e-07 0 -0.00100591)
(-5.03148e-07 0 -0.00100652)
(-5.6819e-07 0 -0.00100719)
(-6.41026e-07 0 -0.00100793)
(-7.22505e-07 0 -0.00100874)
(-8.13555e-07 0 -0.00100964)
(-9.15191e-07 0 -0.00101064)
(-1.02852e-06 0 -0.00101173)
(-1.15476e-06 0 -0.00101294)
(-1.29523e-06 0 -0.00101428)
(-1.45134e-06 0 -0.00101576)
(-1.62464e-06 0 -0.00101739)
(-1.81681e-06 0 -0.00101919)
(-2.0296e-06 0 -0.00102117)
(-2.26533e-06 0 -0.00102336)
(-2.52696e-06 0 -0.00102578)
(-2.81744e-06 0 -0.00102845)
(-3.14033e-06 0 -0.00103141)
(-3.50207e-06 0 -0.00103468)
(-3.91672e-06 0 -0.00103825)
(-4.41572e-06 0 -0.001042)
(-5.06118e-06 0 -0.0010462)
(-5.93745e-06 0 -0.00105271)
(-7.01041e-06 0 -0.00106356)
(-7.83482e-06 0 -0.00106511)
(-6.93631e-06 0 -0.00101589)
(-2.4924e-06 0 -0.000724989)
(2.36469e-06 0 -0.00360366)
(-2.94423e-06 0 9.51893e-06)
(-8.15305e-05 0 -0.00422795)
(-2.22611e-06 0 -0.000342732)
(9.82131e-05 0 -0.00386641)
(3.94212e-05 0 -0.00434681)
(2.00573e-05 0 -0.000446833)
(0.000350604 0 -0.00477256)
(-5.43957e-05 0 -0.00114822)
(-0.000336981 0 -0.00289375)
(-0.000430934 0 -0.00318283)
(-0.000166333 0 -0.000674414)
(-0.00112679 0 -0.0027618)
(-0.000374668 0 -0.00282499)
(1.83245e-05 0 8.01693e-05)
(0.000122061 0 -0.00552328)
(5.66821e-05 0 -0.000346426)
(0.000730787 0 -0.00270636)
(0.000626573 0 -0.00178925)
(5.17843e-06 0 -0.00135511)
(-0.000258884 0 -0.00228601)
(-0.000151553 0 -0.00175513)
(-6.25207e-05 0 -0.0017618)
(-1.71185e-05 0 -0.00149917)
(2.0462e-05 0 -0.0011516)
(7.07001e-05 0 -0.000989781)
(8.78273e-05 0 -0.000868283)
(9.0341e-05 0 -0.000881299)
(8.62126e-05 0 -0.00090228)
(7.97327e-05 0 -0.000913568)
(7.28154e-05 0 -0.000921057)
(6.61998e-05 0 -0.000927981)
(6.01022e-05 0 -0.000934595)
(5.45435e-05 0 -0.000940678)
(4.94894e-05 0 -0.000946191)
(4.48967e-05 0 -0.000951191)
(4.07244e-05 0 -0.000955732)
(3.69346e-05 0 -0.000959856)
(3.3493e-05 0 -0.000963601)
(3.03681e-05 0 -0.000966999)
(2.75313e-05 0 -0.000970083)
(2.49562e-05 0 -0.000972879)
(2.26191e-05 0 -0.000975414)
(2.04981e-05 0 -0.000977715)
(1.85737e-05 0 -0.000979803)
(1.68279e-05 0 -0.000981697)
(1.52444e-05 0 -0.000983415)
(1.38082e-05 0 -0.000984974)
(1.2506e-05 0 -0.000986389)
(1.13254e-05 0 -0.000987672)
(1.02553e-05 0 -0.000988835)
(9.28536e-06 0 -0.00098989)
(8.40641e-06 0 -0.000990846)
(7.60999e-06 0 -0.000991713)
(6.88846e-06 0 -0.000992498)
(6.23485e-06 0 -0.00099321)
(5.64285e-06 0 -0.000993855)
(5.10669e-06 0 -0.000994438)
(4.62117e-06 0 -0.000994967)
(4.18155e-06 0 -0.000995446)
(3.78353e-06 0 -0.00099588)
(3.4232e-06 0 -0.000996272)
(3.09703e-06 0 -0.000996627)
(2.8018e-06 0 -0.000996949)
(2.5346e-06 0 -0.00099724)
(2.29279e-06 0 -0.000997503)
(2.07397e-06 0 -0.000997742)
(1.87597e-06 0 -0.000997957)
(1.69683e-06 0 -0.000998152)
(1.53477e-06 0 -0.000998329)
(1.38818e-06 0 -0.000998489)
(1.25558e-06 0 -0.000998633)
(1.13567e-06 0 -0.000998764)
(1.02723e-06 0 -0.000998883)
(9.29197e-07 0 -0.00099899)
(8.40579e-07 0 -0.000999087)
(7.60492e-07 0 -0.000999175)
(6.88133e-07 0 -0.000999254)
(6.22776e-07 0 -0.000999326)
(5.63764e-07 0 -0.000999391)
(5.10502e-07 0 -0.00099945)
(4.62453e-07 0 -0.000999504)
(4.19131e-07 0 -0.000999553)
(3.80096e-07 0 -0.000999597)
(3.44953e-07 0 -0.000999637)
(3.13342e-07 0 -0.000999673)
(2.84941e-07 0 -0.000999706)
(2.59458e-07 0 -0.000999736)
(2.36631e-07 0 -0.000999763)
(2.16226e-07 0 -0.000999788)
(1.98031e-07 0 -0.000999811)
(1.81857e-07 0 -0.000999832)
(1.67536e-07 0 -0.000999851)
(1.54917e-07 0 -0.000999869)
(1.43869e-07 0 -0.000999885)
(1.34276e-07 0 -0.0009999)
(1.26053e-07 0 -0.000999914)
(1.19201e-07 0 -0.000999928)
(1.14017e-07 0 -0.000999942)
(1.11258e-07 0 -0.000999953)
(0 -9.34205e-09 -0.00100006)
(0 -1.19438e-08 -0.00100006)
(0 -1.63212e-08 -0.00100007)
(0 -2.17598e-08 -0.00100007)
(0 -2.78326e-08 -0.00100007)
(0 -3.43528e-08 -0.00100007)
(0 -4.12781e-08 -0.00100008)
(0 -4.86378e-08 -0.00100008)
(0 -5.64926e-08 -0.00100009)
(0 -6.49183e-08 -0.0010001)
(0 -7.39996e-08 -0.0010001)
(0 -8.38288e-08 -0.00100011)
(0 -9.45059e-08 -0.00100012)
(0 -1.0614e-07 -0.00100013)
(0 -1.18848e-07 -0.00100014)
(0 -1.32761e-07 -0.00100016)
(0 -1.48018e-07 -0.00100017)
(0 -1.64773e-07 -0.00100019)
(0 -1.83194e-07 -0.00100021)
(0 -2.03465e-07 -0.00100023)
(0 -2.25787e-07 -0.00100025)
(0 -2.50381e-07 -0.00100027)
(0 -2.7749e-07 -0.0010003)
(0 -3.07378e-07 -0.00100033)
(0 -3.40339e-07 -0.00100036)
(0 -3.76691e-07 -0.0010004)
(0 -4.1679e-07 -0.00100044)
(0 -4.61022e-07 -0.00100048)
(0 -5.09816e-07 -0.00100053)
(0 -5.63644e-07 -0.00100058)
(0 -6.23025e-07 -0.00100064)
(0 -6.88534e-07 -0.0010007)
(0 -7.60803e-07 -0.00100077)
(0 -8.40532e-07 -0.00100085)
(0 -9.28492e-07 -0.00100093)
(0 -1.02554e-06 -0.00100103)
(0 -1.1326e-06 -0.00100113)
(0 -1.25073e-06 -0.00100125)
(0 -1.38108e-06 -0.00100137)
(0 -1.52489e-06 -0.00100151)
(0 -1.68359e-06 -0.00100166)
(0 -1.8587e-06 -0.00100183)
(0 -2.05192e-06 -0.00100202)
(0 -2.26515e-06 -0.00100223)
(0 -2.50046e-06 -0.00100246)
(0 -2.76013e-06 -0.00100271)
(0 -3.0467e-06 -0.00100298)
(0 -3.36295e-06 -0.00100329)
(0 -3.71196e-06 -0.00100363)
(0 -4.09714e-06 -0.001004)
(0 -4.52226e-06 -0.00100441)
(0 -4.99149e-06 -0.00100486)
(0 -5.50942e-06 -0.00100536)
(0 -6.08116e-06 -0.00100591)
(0 -6.71234e-06 -0.00100652)
(0 -7.40922e-06 -0.00100719)
(0 -8.1787e-06 -0.00100793)
(0 -9.02847e-06 -0.00100874)
(0 -9.96702e-06 -0.00100964)
(0 -1.10038e-05 -0.00101064)
(0 -1.21492e-05 -0.00101173)
(0 -1.34148e-05 -0.00101294)
(0 -1.48136e-05 -0.00101428)
(0 -1.63598e-05 -0.00101576)
(0 -1.80693e-05 -0.00101739)
(0 -1.99596e-05 -0.00101919)
(0 -2.20503e-05 -0.00102117)
(0 -2.43627e-05 -0.00102336)
(0 -2.69204e-05 -0.00102578)
(0 -2.97496e-05 -0.00102845)
(0 -3.28788e-05 -0.00103141)
(0 -3.63348e-05 -0.00103468)
(0 -4.01325e-05 -0.00103825)
(0 -4.42397e-05 -0.001042)
(0 -4.84911e-05 -0.0010462)
(0 -5.24191e-05 -0.00105271)
(0 -5.50027e-05 -0.00106356)
(0 -5.48307e-05 -0.00106511)
(0 -5.0121e-05 -0.00101589)
(0 -3.9312e-05 -0.000724989)
(0 -6.2364e-06 -0.00360366)
(0 8.43277e-06 9.51893e-06)
(0 2.07729e-05 -0.00422795)
(0 6.71154e-06 -0.000342732)
(0 -0.000135173 -0.00386641)
(0 -0.000217106 -0.00434681)
(0 -3.63743e-05 -0.000446833)
(0 -0.0004144 -0.00477256)
(0 3.66017e-05 -0.00114822)
(0 0.000841245 -0.00289375)
(0 0.00105479 -0.00318283)
(0 0.000216225 -0.000674414)
(0 0.00151285 -0.0027618)
(0 0.000519015 -0.00282499)
(0 -3.12369e-06 8.01693e-05)
(0 -3.03391e-05 -0.00552328)
(0 -1.92782e-05 -0.000346426)
(0 -0.000662134 -0.00270636)
(0 -0.000518842 -0.00178925)
(0 -0.000318522 -0.00135511)
(0 -0.000392894 -0.00228601)
(0 -0.00013732 -0.00175513)
(0 -3.0005e-06 -0.0017618)
(0 1.22465e-05 -0.00149917)
(0 -7.99176e-06 -0.0011516)
(0 -4.46883e-06 -0.000989781)
(0 1.25456e-06 -0.000868283)
(0 3.27627e-06 -0.000881299)
(0 3.08372e-06 -0.00090228)
(0 2.3603e-06 -0.000913568)
(0 1.73219e-06 -0.000921057)
(0 1.27939e-06 -0.000927981)
(0 9.51219e-07 -0.000934595)
(0 7.01603e-07 -0.000940678)
(0 5.044e-07 -0.000946191)
(0 3.45599e-07 -0.000951191)
(0 2.17038e-07 -0.000955732)
(0 1.13252e-07 -0.000959856)
(0 3.01031e-08 -0.000963601)
(0 -3.57696e-08 -0.000966999)
(0 -8.71391e-08 -0.000970083)
(0 -1.26265e-07 -0.000972879)
(0 -1.54939e-07 -0.000975414)
(0 -1.75037e-07 -0.000977715)
(0 -1.88138e-07 -0.000979803)
(0 -1.95564e-07 -0.000981697)
(0 -1.98413e-07 -0.000983415)
(0 -1.97678e-07 -0.000984974)
(0 -1.94272e-07 -0.000986389)
(0 -1.8888e-07 -0.000987672)
(0 -1.82051e-07 -0.000988835)
(0 -1.74226e-07 -0.00098989)
(0 -1.65753e-07 -0.000990846)
(0 -1.56916e-07 -0.000991713)
(0 -1.47934e-07 -0.000992498)
(0 -1.38975e-07 -0.00099321)
(0 -1.30167e-07 -0.000993855)
(0 -1.21604e-07 -0.000994438)
(0 -1.13354e-07 -0.000994967)
(0 -1.05464e-07 -0.000995446)
(0 -9.79621e-08 -0.00099588)
(0 -9.08654e-08 -0.000996272)
(0 -8.41796e-08 -0.000996627)
(0 -7.79031e-08 -0.000996949)
(0 -7.20279e-08 -0.00099724)
(0 -6.65416e-08 -0.000997503)
(0 -6.14286e-08 -0.000997742)
(0 -5.66714e-08 -0.000997957)
(0 -5.22518e-08 -0.000998152)
(0 -4.81511e-08 -0.000998329)
(0 -4.43503e-08 -0.000998489)
(0 -4.08292e-08 -0.000998633)
(0 -3.75689e-08 -0.000998764)
(0 -3.4552e-08 -0.000998883)
(0 -3.17627e-08 -0.00099899)
(0 -2.91863e-08 -0.000999087)
(0 -2.68095e-08 -0.000999175)
(0 -2.46198e-08 -0.000999254)
(0 -2.26055e-08 -0.000999326)
(0 -2.07553e-08 -0.000999391)
(0 -1.90583e-08 -0.00099945)
(0 -1.75038e-08 -0.000999504)
(0 -1.60816e-08 -0.000999553)
(0 -1.47815e-08 -0.000999597)
(0 -1.35937e-08 -0.000999637)
(0 -1.25085e-08 -0.000999673)
(0 -1.15166e-08 -0.000999706)
(0 -1.06091e-08 -0.000999736)
(0 -9.77724e-09 -0.000999763)
(0 -9.01277e-09 -0.000999788)
(0 -8.30777e-09 -0.000999811)
(0 -7.6547e-09 -0.000999832)
(0 -7.0463e-09 -0.000999851)
(0 -6.47538e-09 -0.000999869)
(0 -5.93482e-09 -0.000999885)
(0 -5.41842e-09 -0.0009999)
(0 -4.92541e-09 -0.000999914)
(0 -4.46444e-09 -0.000999928)
(0 -4.1355e-09 -0.000999942)
(0 -4.07183e-09 -0.000999953)
)
;
    }
    procBoundary2to0
    {
        type            processor;
        value           nonuniform List<vector> 
180
(
(6.56552e-10 -9.34202e-09 -0.000999946)
(5.4593e-10 -1.19438e-08 -0.000999944)
(4.47331e-10 -1.63211e-08 -0.000999942)
(4.08996e-10 -2.17598e-08 -0.00099994)
(4.2518e-10 -2.78326e-08 -0.000999938)
(4.74534e-10 -3.43527e-08 -0.000999936)
(5.39453e-10 -4.12781e-08 -0.000999932)
(6.09796e-10 -4.86377e-08 -0.000999928)
(6.80283e-10 -5.64925e-08 -0.000999923)
(7.47839e-10 -6.49182e-08 -0.000999917)
(8.10024e-10 -7.39995e-08 -0.00099991)
(8.64365e-10 -8.38286e-08 -0.000999901)
(9.0812e-10 -9.45057e-08 -0.000999892)
(9.38227e-10 -1.06139e-07 -0.000999882)
(9.51317e-10 -1.18848e-07 -0.00099987)
(9.43765e-10 -1.3276e-07 -0.000999857)
(9.11767e-10 -1.48017e-07 -0.000999843)
(8.51419e-10 -1.64772e-07 -0.000999826)
(7.5882e-10 -1.83193e-07 -0.000999809)
(6.30173e-10 -2.03464e-07 -0.000999788)
(4.61875e-10 -2.25786e-07 -0.000999766)
(2.50612e-10 -2.5038e-07 -0.000999741)
(-6.5695e-12 -2.77489e-07 -0.000999714)
(-3.12201e-10 -3.07377e-07 -0.000999684)
(-6.68353e-10 -3.40336e-07 -0.00099965)
(-1.07662e-09 -3.76689e-07 -0.000999612)
(-1.53814e-09 -4.16786e-07 -0.000999571)
(-2.05363e-09 -4.61018e-07 -0.000999524)
(-2.6235e-09 -5.09811e-07 -0.000999473)
(-3.24793e-09 -5.63638e-07 -0.000999417)
(-3.92708e-09 -6.23018e-07 -0.000999355)
(-4.66125e-09 -6.88525e-07 -0.000999286)
(-5.4511e-09 -7.60792e-07 -0.000999209)
(-6.29786e-09 -8.40518e-07 -0.000999125)
(-7.20362e-09 -9.28475e-07 -0.000999032)
(-8.17149e-09 -1.02551e-06 -0.000998929)
(-9.20592e-09 -1.13258e-06 -0.000998815)
(-1.0313e-08 -1.2507e-06 -0.00099869)
(-1.15006e-08 -1.38104e-06 -0.000998551)
(-1.27784e-08 -1.52485e-06 -0.000998398)
(-1.41576e-08 -1.68353e-06 -0.000998229)
(-1.5653e-08 -1.85863e-06 -0.000998043)
(-1.72819e-08 -2.05184e-06 -0.000997837)
(-1.90667e-08 -2.26505e-06 -0.00099761)
(-2.10335e-08 -2.50033e-06 -0.000997359)
(-2.32125e-08 -2.75997e-06 -0.000997081)
(-2.56381e-08 -3.0465e-06 -0.000996775)
(-2.83486e-08 -3.36271e-06 -0.000996437)
(-3.1389e-08 -3.71167e-06 -0.000996064)
(-3.48277e-08 -4.09679e-06 -0.000995652)
(-3.8752e-08 -4.52183e-06 -0.000995196)
(-4.32727e-08 -4.99096e-06 -0.000994691)
(-4.85316e-08 -5.50878e-06 -0.000994134)
(-5.47097e-08 -6.08037e-06 -0.000993517)
(-6.20361e-08 -6.71138e-06 -0.000992835)
(-7.07996e-08 -7.40804e-06 -0.000992079)
(-8.13648e-08 -8.17727e-06 -0.000991242)
(-9.41861e-08 -9.02672e-06 -0.000990316)
(-1.09832e-07 -9.96488e-06 -0.000989289)
(-1.29006e-07 -1.10012e-05 -0.000988151)
(-1.52578e-07 -1.2146e-05 -0.000986889)
(-1.81617e-07 -1.34109e-05 -0.000985489)
(-2.17425e-07 -1.48089e-05 -0.000983937)
(-2.61576e-07 -1.6354e-05 -0.000982213)
(-3.15957e-07 -1.80622e-05 -0.000980301)
(-3.82788e-07 -1.9951e-05 -0.000978178)
(-4.64613e-07 -2.20398e-05 -0.000975822)
(-5.64228e-07 -2.43498e-05 -0.000973208)
(-6.85415e-07 -2.69046e-05 -0.000970301)
(-8.32867e-07 -2.97301e-05 -0.000967069)
(-1.01245e-06 -3.2854e-05 -0.000963481)
(-1.23213e-06 -3.63017e-05 -0.000959488)
(-1.50446e-06 -4.00838e-05 -0.000954988)
(-1.85189e-06 -4.41596e-05 -0.000949842)
(-2.31469e-06 -4.83473e-05 -0.00094433)
(-2.95968e-06 -5.21421e-05 -0.000940097)
(-3.91208e-06 -5.45378e-05 -0.000938184)
(-5.4985e-06 -5.4026e-05 -0.000923823)
(-8.54258e-06 -4.8881e-05 -0.000860881)
(-1.32625e-05 -3.76753e-05 -0.00065211)
(-7.01596e-06 -7.01747e-06 -0.00318651)
(1.75541e-05 -1.50488e-06 9.74628e-06)
(0.000185419 1.54096e-05 -0.00386335)
(1.22506e-05 -6.68913e-06 -3.35903e-05)
(-0.000437616 -0.000257533 -0.00300868)
(-0.000505882 -0.000282506 -0.00258122)
(-5.82913e-05 -5.60347e-05 -0.000552168)
(-0.000136655 -0.000177292 -0.00514652)
(-1.1335e-05 8.49825e-06 -0.000264332)
(0.000334534 0.00033914 -0.004587)
(0.00023653 0.000485236 -0.00174787)
(0.000101551 0.000979189 -0.00341825)
(-2.47311e-05 0.000116975 -0.000308676)
(-0.000142481 0.00149253 -0.00336498)
(-0.000189186 0.000450306 -0.00302827)
(-9.75845e-05 -4.77813e-05 -0.00106611)
(-0.000481146 -0.00109141 -0.00390083)
(-7.623e-05 -0.00014583 -0.000700513)
(-0.000163886 -0.000412861 -0.00389459)
(-9.32269e-05 -0.000155766 -0.0017071)
(-0.000225766 -0.000170816 -0.00297895)
(-0.000117604 -5.71294e-05 -0.00240123)
(-5.00506e-06 1.57653e-05 -0.00156697)
(7.51426e-06 2.39609e-05 -0.00177145)
(1.14753e-05 -1.1537e-05 -0.000799687)
(6.19917e-05 -1.05211e-05 -0.00095998)
(9.08269e-05 -2.06102e-06 -0.000873116)
(0.000101584 1.54177e-06 -0.000874885)
(0.000101055 2.27632e-06 -0.000890908)
(9.50398e-05 2.03419e-06 -0.000903587)
(8.71031e-05 1.61786e-06 -0.000913169)
(7.89663e-05 1.24497e-06 -0.00092157)
(7.12975e-05 9.43062e-07 -0.000929277)
(6.42874e-05 7.00939e-07 -0.000936277)
(5.79467e-05 5.05463e-07 -0.00094258)
(5.22303e-05 3.46838e-07 -0.000948249)
(4.70812e-05 2.1811e-07 -0.000953353)
(4.24437e-05 1.14123e-07 -0.00095795)
(3.82667e-05 3.07989e-08 -0.00096209)
(3.45041e-05 -3.52141e-08 -0.00096582)
(3.11143e-05 -8.66949e-08 -0.000969182)
(2.80602e-05 -1.25908e-07 -0.000972213)
(2.53082e-05 -1.54653e-07 -0.000974945)
(2.28284e-05 -1.74806e-07 -0.000977406)
(2.05933e-05 -1.87952e-07 -0.000979624)
(1.85788e-05 -1.95413e-07 -0.000981623)
(1.67628e-05 -1.9829e-07 -0.000983424)
(1.51255e-05 -1.97579e-07 -0.000985046)
(1.36493e-05 -1.94191e-07 -0.000986507)
(1.2318e-05 -1.88814e-07 -0.000987824)
(1.11173e-05 -1.81998e-07 -0.000989011)
(1.00343e-05 -1.74182e-07 -0.000990082)
(9.05729e-06 -1.65718e-07 -0.000991047)
(8.17592e-06 -1.56887e-07 -0.000991918)
(7.3807e-06 -1.4791e-07 -0.000992703)
(6.66316e-06 -1.38956e-07 -0.000993411)
(6.01565e-06 -1.30151e-07 -0.000994051)
(5.4313e-06 -1.21592e-07 -0.000994628)
(4.90392e-06 -1.13344e-07 -0.000995148)
(4.42791e-06 -1.05455e-07 -0.000995618)
(3.99825e-06 -9.7955e-08 -0.000996043)
(3.61041e-06 -9.08596e-08 -0.000996426)
(3.26031e-06 -8.4175e-08 -0.000996772)
(2.94426e-06 -7.78992e-08 -0.000997084)
(2.65894e-06 -7.20247e-08 -0.000997366)
(2.40136e-06 -6.6539e-08 -0.000997621)
(2.16882e-06 -6.14265e-08 -0.000997851)
(1.95888e-06 -5.66697e-08 -0.000998059)
(1.76935e-06 -5.22504e-08 -0.000998247)
(1.59824e-06 -4.815e-08 -0.000998416)
(1.44376e-06 -4.43494e-08 -0.00099857)
(1.30431e-06 -4.08284e-08 -0.000998708)
(1.17842e-06 -3.75683e-08 -0.000998833)
(1.06477e-06 -3.45515e-08 -0.000998947)
(9.62197e-07 -3.17623e-08 -0.000999049)
(8.69612e-07 -2.9186e-08 -0.000999141)
(7.86055e-07 -2.68092e-08 -0.000999225)
(7.10652e-07 -2.46196e-08 -0.0009993)
(6.42619e-07 -2.26053e-08 -0.000999368)
(5.81246e-07 -2.07552e-08 -0.00099943)
(5.25895e-07 -1.90582e-08 -0.000999486)
(4.7599e-07 -1.75037e-08 -0.000999537)
(4.31014e-07 -1.60815e-08 -0.000999582)
(3.905e-07 -1.47814e-08 -0.000999624)
(3.54028e-07 -1.35936e-08 -0.000999661)
(3.21222e-07 -1.25084e-08 -0.000999695)
(2.91742e-07 -1.15166e-08 -0.000999726)
(2.65286e-07 -1.06091e-08 -0.000999755)
(2.41581e-07 -9.77722e-09 -0.00099978)
(2.20382e-07 -9.01275e-09 -0.000999804)
(2.01472e-07 -8.30775e-09 -0.000999826)
(1.84656e-07 -7.65469e-09 -0.000999845)
(1.69762e-07 -7.04629e-09 -0.000999864)
(1.56637e-07 -6.47538e-09 -0.00099988)
(1.45151e-07 -5.93481e-09 -0.000999896)
(1.35197e-07 -5.41841e-09 -0.000999911)
(1.26703e-07 -4.92541e-09 -0.000999925)
(1.19696e-07 -4.46444e-09 -0.000999938)
(1.14359e-07 -4.13549e-09 -0.000999951)
(1.11302e-07 -4.07183e-09 -0.000999962)
)
;
    }
    procBoundary2to3
    {
        type            processor;
        value           nonuniform List<vector> 
180
(
(5.56065e-10 -9.44253e-09 -0.00100007)
(3.30309e-10 -1.21594e-08 -0.00100007)
(9.65397e-11 -1.6672e-08 -0.00100007)
(-8.86129e-11 -2.22574e-08 -0.00100007)
(-2.31182e-10 -2.8489e-08 -0.00100007)
(-3.54775e-10 -3.51821e-08 -0.00100008)
(-4.78706e-10 -4.22963e-08 -0.00100008)
(-6.14421e-10 -4.9862e-08 -0.00100009)
(-7.68023e-10 -5.79409e-08 -0.00100009)
(-9.43135e-10 -6.66093e-08 -0.0010001)
(-1.14249e-09 -7.59522e-08 -0.00100011)
(-1.36865e-09 -8.60618e-08 -0.00100012)
(-1.62429e-09 -9.70383e-08 -0.00100013)
(-1.91241e-09 -1.0899e-07 -0.00100014)
(-2.23646e-09 -1.22036e-07 -0.00100015)
(-2.60051e-09 -1.36305e-07 -0.00100016)
(-3.00943e-09 -1.51939e-07 -0.00100018)
(-3.46914e-09 -1.69093e-07 -0.0010002)
(-3.98685e-09 -1.87939e-07 -0.00100022)
(-4.5714e-09 -2.08666e-07 -0.00100024)
(-5.23351e-09 -2.31482e-07 -0.00100026)
(-5.98615e-09 -2.56618e-07 -0.00100029)
(-6.84481e-09 -2.84328e-07 -0.00100032)
(-7.82786e-09 -3.14894e-07 -0.00100035)
(-8.95688e-09 -3.48627e-07 -0.00100038)
(-1.0257e-08 -3.85872e-07 -0.00100042)
(-1.17572e-08 -4.27009e-07 -0.00100047)
(-1.34907e-08 -4.72459e-07 -0.00100052)
(-1.54953e-08 -5.22688e-07 -0.00100057)
(-1.78138e-08 -5.7821e-07 -0.00100063)
(-2.04941e-08 -6.39592e-07 -0.00100069)
(-2.35901e-08 -7.07463e-07 -0.00100076)
(-2.71621e-08 -7.82514e-07 -0.00100084)
(-3.12773e-08 -8.65511e-07 -0.00100093)
(-3.60103e-08 -9.57299e-07 -0.00100103)
(-4.14447e-08 -1.05881e-06 -0.00100114)
(-4.76734e-08 -1.17107e-06 -0.00100126)
(-5.47999e-08 -1.29522e-06 -0.00100139)
(-6.29401e-08 -1.43252e-06 -0.00100154)
(-7.22233e-08 -1.58434e-06 -0.0010017)
(-8.27943e-08 -1.75222e-06 -0.00100188)
(-9.4815e-08 -1.93786e-06 -0.00100208)
(-1.08467e-07 -2.14311e-06 -0.0010023)
(-1.23953e-07 -2.37004e-06 -0.00100255)
(-1.41499e-07 -2.62093e-06 -0.00100282)
(-1.61361e-07 -2.89828e-06 -0.00100311)
(-1.83819e-07 -3.20488e-06 -0.00100345)
(-2.09189e-07 -3.54379e-06 -0.00100381)
(-2.37822e-07 -3.9184e-06 -0.00100422)
(-2.70109e-07 -4.33243e-06 -0.00100466)
(-3.06482e-07 -4.79001e-06 -0.00100516)
(-3.4742e-07 -5.29565e-06 -0.00100571)
(-3.93452e-07 -5.85436e-06 -0.00100631)
(-4.45161e-07 -6.47164e-06 -0.00100698)
(-5.03189e-07 -7.15354e-06 -0.00100772)
(-5.68241e-07 -7.90672e-06 -0.00100853)
(-6.4109e-07 -8.73851e-06 -0.00100943)
(-7.22585e-07 -9.65698e-06 -0.00101043)
(-8.13655e-07 -1.0671e-05 -0.00101152)
(-9.15317e-07 -1.17903e-05 -0.00101274)
(-1.02868e-06 -1.30255e-05 -0.00101408)
(-1.15496e-06 -1.43885e-05 -0.00101555)
(-1.29548e-06 -1.58921e-05 -0.00101718)
(-1.45166e-06 -1.75505e-05 -0.00101898)
(-1.62504e-06 -1.93791e-05 -0.00102097)
(-1.81731e-06 -2.13951e-05 -0.00102316)
(-2.03024e-06 -2.36171e-05 -0.00102558)
(-2.26614e-06 -2.60661e-05 -0.00102825)
(-2.52801e-06 -2.87649e-05 -0.0010312)
(-2.81881e-06 -3.17378e-05 -0.00103446)
(-3.14217e-06 -3.50105e-05 -0.00103806)
(-3.50456e-06 -3.86072e-05 -0.00104202)
(-3.9198e-06 -4.25407e-05 -0.00104633)
(-4.41781e-06 -4.67828e-05 -0.00105089)
(-5.0547e-06 -5.11898e-05 -0.0010561)
(-5.896e-06 -5.53508e-05 -0.00106397)
(-6.85226e-06 -5.82328e-05 -0.00107597)
(-7.32764e-06 -5.79659e-05 -0.00107652)
(-5.3899e-06 -5.06064e-05 -0.00102473)
(1.57933e-06 -3.15796e-05 -0.00073376)
(1.19922e-05 2.27797e-06 -0.0034554)
(7.11639e-06 -2.25543e-06 -5.75282e-06)
(-5.00714e-05 -0.000230226 -0.00445319)
(4.57898e-06 6.18314e-06 -2.21454e-05)
(0.000155313 0.000310683 -0.0053761)
(2.18583e-06 3.71155e-05 -0.000113873)
(0.000336741 0.000349516 -0.00540375)
(-5.98441e-07 3.54998e-05 -0.000227659)
(-0.000100101 -0.000160588 -0.00500502)
(-8.22162e-05 -7.47671e-05 -0.00124499)
(-0.000362149 4.32916e-05 -0.00604284)
(-1.0233e-05 6.85658e-06 8.54346e-05)
(-0.00149631 0.00084622 -0.00513639)
(-0.000128941 5.45141e-05 -0.000400178)
(-0.00039975 0.000358465 -0.00480954)
(8.72021e-05 0.000157058 -0.00119541)