# vtk DataFile Version 4.0
Generated by LIGGGHTS
ASCII
DATASET POLYDATA
POINTS 1577 float
-85.3317 -85.1879 9.99868 -88.5063 -63.6865 9.99887 -72.1397 -100.252 9.99817 
-102.567 -95.3314 9.99775 -89.3365 -110.931 9.99836 -70.3098 -71.9846 9.99956 
-88.3137 -70.5327 28.789 -106.89 -71.5604 9.99851 -74.1614 -59.6749 37.8766 
-96.4874 -88.7638 27.8813 -72.9517 -84.182 25.6722 -102.733 -59.5782 37.3876 
-60.8495 -100.082 26.5032 -81.2618 -76.1966 46.6265 -91.4376 -109.339 29.8218 
-62.2636 -75.869 40.3895 -101.015 -78.2677 44.2907 -108.62 -111.646 19.853 
-84.6607 -95.4771 42.545 -109.13 -105.718 38.9451 -66.7144 -103.883 45.24 
-91.1653 -60.3193 53.6834 -68.6918 -87.8095 56.9739 -105.867 -94.3825 55.0928 
-57.1281 -87.0251 9.99951 -55.9809 -60.2704 29.5663 -14.4526 -76.8048 27.1639 
-10.062 -86.3682 9.99973 -30.3664 -104.804 9.99833 -32.7704 -84.6818 9.99973 
-0.476904 -97.9465 25.3991 -13.2951 -66.6099 9.99826 -47.7852 -77.9825 25.1955 
-41.1737 -96.9041 24.8547 -50.9517 -106.047 9.99848 -10.0611 -106.371 9.99839 
-31.4352 -83.1426 35.6103 -49.5646 -91.2231 42.0957 -31.3717 -66.6167 24.0122 
-32.9771 -103.148 41.9948 -20.3467 -95.764 24.7576 -14.2077 -78.0627 47.1259 
-11.2855 -98.6399 42.3529 -31.3082 -67.7734 48.404 -32.5896 -87.9517 54.9884 
-49.0789 -107.248 54.0493 -12.6158 -59.7696 39.2006 -48.6217 -75.9958 55.0258 
11.5428 -93.674 9.99733 4.56756 -78.7171 21.2909 29.2626 -68.8783 17.0665 
54.8385 -92.4376 24.82 39.1047 -84.7934 10.0043 46.2812 -61.1085 9.99812 
49.6335 -72.0841 26.3746 11.2998 -63.6522 9.99613 28.4079 -101.38 17.4864 
46.8575 -103.231 9.99718 3.21608 -85.0327 40.2156 12.5421 -113.292 14.969 
19.9883 -76.2227 33.7786 10.3588 -59.2317 29.4762 36.2051 -87.2718 29.924 
37.2965 -70.3735 42.0203 13.0634 -107.341 36.7298 33.0095 -105.918 36.4099 
52.8888 -107.205 38.1622 44.1952 -91.9039 47.6632 25.5179 -83.3868 51.6133 
55.4901 -62.226 44.7168 4.42969 -66.432 47.4623 0.558615 -109.313 54.4271 
23.5554 -103.768 53.8999 59.8185 -81.4809 40.7911 58.3963 -79.4947 9.99711 
110.707 -85.731 19.533 85.328 -84.6185 9.99799 86.0447 -103.319 17.0485 
66.4704 -63.6101 19.0743 71.9365 -82.0663 24.6303 85.9053 -66.8287 22.5697 
68.3582 -97.0868 9.99973 101.074 -70.271 9.9989 104.728 -102.261 9.99751 
70.7109 -103.501 29.8824 105.899 -68.9917 29.3654 92.8761 -84.6043 28.5173 
101.063 -103.013 30.2518 78.0504 -71.379 40.3892 85.7222 -88.7244 46.732 
106.018 -70.7255 49.2895 110.012 -87.6594 39.4262 90.9512 -107.725 50.1337 
67.8122 -97.9357 48.8711 102.301 -92.8233 57.1413 72.2352 -59.8457 55.6561 
-57.6456 -56.5058 9.99758 -111.458 -54.87 20.0223 -101.607 -9.24277 22.3721 
-97.5815 -24.4281 9.99773 -82.4909 -32.3444 20.4627 -67.9825 -22.3089 9.99973 
-88.8376 -0.0928461 9.99693 -62.316 -7.55244 23.2393 -97.0752 -45.2494 9.9979 
-88.2286 -50.2731 27.2155 -113.043 -35.2188 16.6644 -75.982 -48.0954 9.99878 
-61.9712 -40.491 22.0733 -81.8294 -11.6844 24.7076 -110.533 -12.5829 39.9531 
-68.3238 -24.4215 32.1428 -81.5974 -12.8004 44.6728 -99.6997 -27.8174 29.5941 
-82.5184 -36.0735 40.1117 -68.6179 -45.562 50.9168 -101.062 -35.505 48.0246 
-59.9241 -14.0543 47.0406 -111.029 -53.1946 54.4285 -102.91 -5.11467 56.8654 
-54.2464 -36.2376 40.0224 -27.5794 -10.3703 9.99858 -50.8175 -23.8927 22.3439 
-9.06776 -30.0644 9.99959 -33.9817 -52.5875 9.9995 -17.9775 -51.2508 21.919 
-2.10745 -48.8149 9.99798 -37.6536 -9.65442 27.2835 -7.37328 -10.1364 9.99759 
-47.3406 -6.94518 9.99852 -22.605 -29.1613 24.6936 -4.08531 -18.0811 28.0518 
-36.1641 -29.6283 9.9995 -4.26731 -1.19511 38.7631 -37.0313 -26.1688 38.5453 
-10.7825 -32.102 40.6407 -42.1864 -41.784 24.6949 -43.7499 -52.8871 43.5586 
-27.0182 -43.4691 37.9687 -20.7666 -14.5334 38.4972 -38.716 -12.1235 52.6816 
-21.9423 -24.8711 55.5773 -22.4697 -0.406426 52.5494 -6.46823 -12.0553 55.4102 
-18.4001 -0.308256 24.642 22.8955 -56.7922 44.8646 1.65154 -37.101 25.7643 
49.946 -10.1831 25.5683 49.2674 -33.6872 20.8896 15.6883 -16.0619 25.8461 
16.9892 -45.4496 16.0171 12.5558 -4.27136 9.99896 38.2952 -19.6891 9.99973 
36.0025 -43.9533 9.99889 10.9121 -27.3687 9.99973 32.5236 -0.536452 9.99757 
33.7712 -23.9982 29.0059 7.82763 -24.4708 42.791 2.29533 -47.0281 43.1138 
32.4404 -52.3328 27.8508 52.4402 -52.2356 27.6619 50.7224 -20.0815 42.9287 
20.037 -37.8089 34.2465 31.3109 -4.16212 29.6259 19.0481 -8.05479 44.9368 
43.5382 -38.4206 39.4568 15.4015 -38.7554 55.7532 28.7695 -25.8987 48.2749 
38.1654 -6.54513 50.6136 36.4302 -47.1463 55.9887 92.5485 -56.2304 38.1733 
113.159 -42.3638 35.2561 58.2999 -19.5531 9.99885 61.6764 -44.9699 9.99883 
83.3073 -0.877344 25.9588 100.073 -49.5633 9.99792 75.4762 -38.1158 23.2177 
96.9133 -29.7521 9.99811 71.7616 -4.31339 9.99738 80.2689 -52.3344 9.99743 
77.9772 -23.3217 9.99634 69.2403 -15.6951 26.2891 107.994 -16.8571 20.5275 
93.7707 -7.28092 9.99973 63.2481 -35.1021 38.7509 71.0465 -53.247 35.555 
89.1027 -20.0155 26.2805 95.0241 -39.6467 27.2742 72.0796 -3.94618 42.2212 
84.1612 -20.4444 45.6526 102.618 -25.9774 39.7612 97.6301 -6.62906 38.6737 
80.9337 -40.1369 46.9711 100.432 -42.5921 50.6798 104.303 -14.2776 55.9029 
65.5994 -16.9243 55.9884 -105.848 16.0363 26.5317 -69.6441 5.52194 9.99846 
-98.6217 24.6611 9.99872 -78.8345 27.568 9.9965 -84.1069 13.8364 23.5438 
-64.5119 41.5255 9.99905 -80.2065 48.6891 21.0564 -96.737 46.5738 9.99969 
-108.169 5.03103 9.99688 -72.9809 3.19334 36.3064 -92.9154 1.64264 36.7216 
-92.9185 31.2185 28.0336 -67.8331 44.4887 41.5633 -72.9927 29.8194 28.9884 
-108.702 10.2613 45.4635 -105.832 46.4865 27.8544 -100.615 28.581 46.3028 
-64.5805 24.6044 46.3645 -83.4367 18.9342 42.8692 -88.7617 47.3572 39.0902 
-62.9683 5.89323 53.4063 -61.4117 54.096 25.2405 -60.565 14.5104 25.383 
-80.7695 39.7554 56.0617 -84.9538 3.59986 55.6152 -51.5524 1.41079 37.5143 
-29.1863 55.3371 9.99628 -54.04 35.5276 26.1427 -19.8766 13.2308 9.99821 
-25.6089 22.8317 26.5796 -41.4251 54.4995 25.7913 -51.9149 23.9155 9.9989 
-44.5162 42.4959 9.99886 -21.7604 36.791 10.929 -1.81944 7.78404 16.925 
-38.7208 10.1015 15.9217 -4.75065 26.3137 9.9968 -8.96342 53.1762 9.99973 
-31.6463 39.825 35.226 -5.97245 26.1252 29.9547 -46.4876 21.223 37.9001 
-9.88792 45.7165 29.0472 -15.1312 36.4179 45.9794 -32.3844 7.08183 36.8794 
-30.4371 23.9886 49.5046 -12.7146 15.6045 45.5675 -49.0108 39.3445 45.9763 
-31.1928 42.895 55.9783 52.3417 2.13732 9.99824 14.7737 16.5761 10.0005 
38.2906 41.38 23.4315 24.4575 23.1923 26.2016 51.362 34.4143 9.99701 
51.2375 19.8871 23.7404 23.8037 44.4689 9.99759 36.7109 20.586 9.99973 
6.51616 40.1257 19.0665 12.9269 3.70626 29.8048 20.7404 44.7591 32.404 
45.9727 6.69342 37.8178 26.7949 10.2824 42.6989 7.97934 18.6287 42.1665 
43.1126 29.8611 39.0511 24.1613 29.9169 45.4358 43.8741 51.2435 39.9058 
4.3523 38.3759 41.9219 50.8861 23.7322 56.427 27.12 48.6773 51.6988 
4.64375 54.8557 55.5834 6.26401 3.47897 55.1101 56.4944 0.861977 53.7947 
112.655 39.8314 53.812 113.677 37.0486 9.99859 57.5413 38.8279 28.4979 
104.69 3.54987 22.9757 93.1931 19.6519 25.8901 65.5125 17.1871 9.99828 
109.288 31.2062 28.6137 84.5656 11.1094 9.99881 104.035 54.57 9.99845 
64.1374 53.1493 9.99961 105.313 18.7861 9.99964 93.7148 35.0791 10.0002 
74.0297 25.2402 27.1282 63.9517 4.63101 26.0881 73.721 35.5582 9.999 
89.319 39.0008 29.1402 77.865 29.1613 46.3862 104.807 48.5159 37.5717 
62.4949 17.3619 41.4409 73.2922 50.4734 32.5282 101.142 23.3699 45.1122 
86.1604 10.4475 42.1933 84.1304 52.6347 9.99838 62.3639 42.7609 47.5045 
101.871 5.48458 54.0318 92.666 40.4395 53.7111 -60.0397 104.14 9.99876 
-98.3702 99.476 16.6909 -65.8609 82.7207 9.99772 -70.5916 63.221 9.99746 
-72.7844 112.04 24.1695 -102.929 81.1899 9.99914 -90.4527 65.5605 9.9972 
-108.485 63.9576 18.4933 -70.5369 73.5301 27.1327 -102.346 82.1397 32.2948 
-79.5254 99.6408 9.99838 -88.7172 65.1281 29.9151 -86.2282 84.0749 20.6137 
-106.82 63.6348 38.4191 -107.078 102.813 34.4889 -71.8896 87.5405 41.3391 
-87.6715 97.9992 34.8954 -89.0393 76.7221 46.2077 -74.4637 63.2217 43.8126 
-83.374 113.118 47.2619 -59.7063 92.546 26.2917 -104.488 90.8694 50.3198 
-85.2672 94.5507 54.4469 -61.2269 101.307 51.1768 -55.3732 110.343 34.322 
-4.46362 88.2198 24.4996 -1.85225 101.744 9.99925 -15.3435 79.686 9.99973 
-21.5421 105.248 9.99951 -26.026 90.7009 22.97 -34.1304 73.4477 16.8858 
-50.4022 63.5778 9.99973 -41.2869 105.691 16.7718 -4.8152 68.3098 22.6454 
-8.3594 111.775 27.3165 -46.4665 87.6012 9.99853 -32.6455 59.7348 45.2907 
-27.7675 108.871 31.1603 -22.6663 61.0665 28.0111 -33.0285 77.6471 36.4066 
-50.5864 72.6742 28.2247 -42.041 95.4597 35.2001 -23.8487 90.4474 48.7259 
-13.1234 76.8709 38.6961 -52.4219 58.74 42.4892 -12.2656 57.8304 44.7814 
-53.04 82.352 45.5542 -14.9953 108.888 46.5503 -35.2879 106.78 50.2405 
-3.94424 92.375 48.8292 -36.9451 76.0972 55.9575 44.2061 57.3 9.99867 
55.3105 60.6963 26.2819 25.7628 72.1004 9.99874 32.0471 102.081 9.99781 
45.3664 77.6548 9.99973 11.7601 59.2044 16.1423 51.3376 96.8074 9.99933 
15.4077 94.6187 18.2022 32.5283 85.5499 23.1638 6.82464 78.529 9.99628 
44.3731 110.213 23.484 7.09386 101.653 34.9732 27.3385 103.529 31.5523 
15.345 76.5189 27.975 48.7055 92.4818 32.6621 31.2644 60.0641 24.9923 
5.58118 57.3644 35.7639 20.9422 88.4453 43.022 42.1605 71.0612 37.6519 
55.7238 103.506 47.8044 5.64299 75.0985 45.4039 36.0108 107.031 49.2301 
23.5114 66.4007 43.169 34.2365 78.9007 54.5169 55.4799 79.2222 50.138 
15.7786 105.859 52.4887 45.8939 62.7325 56.1475 112.333 108.606 51.9922 
62.7455 79.2259 27.4514 90.7971 58.8993 27.7812 66.1792 110.882 9.99973 
95.9094 105.752 27.4148 79.1518 94.8563 25.2623 105.815 75.7919 9.99741 
68.7341 86.9428 9.99939 88.7179 86.167 9.9995 105.731 105.563 9.99659 
77.0051 70.0456 16.7846 85.7361 105.97 9.99757 110.458 90.6909 22.5027 
86.2766 77.7363 32.7488 104.704 93.414 41.4599 63.06 106.006 29.3438 
105.337 72.4976 29.7175 109.085 75.4084 49.1446 86.2254 63.425 46.7171 
86.7012 101.518 44.6534 70.0767 90.6011 42.5671 65.8046 62.4454 46.6901 
90.7819 83.1267 51.4731 72.6898 111.586 54.7673 103.176 57.3666 55.4302 
[...]
POINT_DATA 1577
FIELD FieldData 7
id 1 1577 int
96 161 204 266 280 295 360 366 32 
37 43 200 145 9 235 300 371 34 
309 334 193 362 555 587 172 21 3 
130 181 206 217 240 274 305 313 356 
64 124 136 330 346 13 273 184 354 
1243 326 1181 5 51 70 78 84 119 
142 227 262 263 139 125 158 175 283 
365 40 347 246 162 377 103 1530 1076 
1244 41 272 95 97 151 167 250 253 
256 303 333 16 76 169 277 350 109 
120 260 291 322 1305 453 231 118 35 
68 73 106 111 153 205 289 293 320 
338 348 81 112 159 234 302 10 186 
223 290 261 147 11 22 44 65 94 
128 152 155 164 232 288 294 8 93 
100 335 173 91 304 221 247 1436 683 
323 66 357 18 20 24 27 79 80 
117 329 122 47 90 170 265 298 321 
352 59 315 98 75 194 195 1371 229 
299 249 218 56 87 104 121 188 192 
201 284 286 358 113 138 163 254 83 
63 144 244 267 370 1412 528 36 67 
99 108 137 226 233 331 351 312 134 
212 239 281 285 363 2 189 197 241 
279 287 14 215 711 171 19 72 82 
178 230 252 297 310 314 372 31 242 
1 185 208 101 38 116 85 191 359 
332 336 114 127 176 199 269 328 367 
373 42 102 150 196 306 48 238 258 
168 17 209 641 30 143 224 236 49 
140 45 123 149 210 213 219 222 245 
248 255 364 50 60 154 177 308 325 
278 88 110 344 156 7 15 28 57 
129 198 203 216 275 316 327 4 126 
228 270 69 133 141 157 376 131 1271 
1505 165 26 61 132 146 182 183 202 
292 339 341 355 378 23 160 180 243 
259 296 12 55 58 135 220 301 375 
1479 1459 311 174 39 46 62 89 148 
179 282 340 349 25 71 77 92 317 
337 33 86 211 307 264 318 343 369 
410 1542 696 225 166 268 29 53 54 
214 257 271 353 361 374 52 251 319 
324 115 187 237 276 345 74 934 680 
342 1443 411 701 798 1100 1482 1571 889 
1235 1307 1320 1091 539 643 726 1231 1203 
1067 1208 1390 737 1535 541 566 769 828 
1343 1553 509 1166 1551 995 423 710 1554 
1023 383 508 1239 397 1501 1171 735 1028 
417 746 515 707 1417 1152 412 546 973 
1103 1230 401 621 876 989 603 1400 393 
679 1386 960 1007 517 790 1421 628 606 
1281 1176 435 1288 725 682 1204 368 745 
1207 627 740 970 1049 481 1154 1190 1238 
1002 1223 636 1282 1356 1574 1306 386 1502 
1089 610 589 1321 6 916 1098 1205 1477 
644 821 1145 601 384 504 608 536 732 
810 850 691 1013 985 1368 519 1556 875 
482 530 1295 1011 777 105 1012 1532 429 
448 611 624 785 1155 629 1111 1259 1350 
409 1085 488 460 1322 1380 1444 674 1032 
660 767 1025 1512 522 1031 1253 1339 1511 
1003 808 545 793 1358 1391 605 917 1340 
503 1150 553 404 998 908 418 1168 107 
1180 1414 434 442 915 1005 1118 1328 531 
775 1269 507 562 1541 585 1372 1074 1336 
381 449 1529 961 812 706 612 1066 1264 
1285 616 1251 1327 1338 426 607 1133 1470 
602 860 866 895 950 939 1383 1447 1538 
708 1220 794 878 884 948 1009 1222 390 
838 1174 1189 1330 1428 1573 431 395 811 
1192 560 1299 1513 661 668 854 430 671 
1108 190 946 958 1053 559 1058 1157 768 
1063 1153 1504 547 1062 475 604 880 999 
1355 637 1258 748 1186 971 450 1040 457 
405 398 1575 1000 1266 1200 403 474 1156 
1430 1514 897 1046 996 1104 758 979 387 
1276 1043 1008 1114 1345 596 1309 1500 714 
997 677 1387 207 712 1394 413 780 836 
1075 416 1134 1273 1409 852 535 446 1377 
440 1527 1404 752 1468 584 1318 1381 565 
982 935 1047 1165 1233 529 532 689 1035 
1467 394 666 1130 975 1090 1373 1454 498 
987 1015 1315 675 1014 1101 779 890 1021 
1248 1485 543 485 1106 1374 486 1036 439 
1037 762 945 1296 391 1480 1092 1488 1228 
518 1123 1286 871 664 830 1446 1543 952 
638 631 736 757 1478 663 669 734 867 
1518 763 1170 1197 1520 525 665 1010 428 
902 1439 1099 802 1139 493 658 548 1369 
1473 402 1278 1310 649 1162 537 833 926 
716 1127 1362 1389 676 1547 1352 595 865 
1177 1277 1438 1017 623 913 814 981 639 
1549 1054 1218 516 791 807 1084 573 479 
1071 672 1080 1342 1254 885 1060 803 953 
1242 1528 520 888 909 1316 750 1050 630 
634 1016 686 1385 549 1135 1427 462 459 
1562 396 1496 1121 1148 809 978 1333 877 
896 468 1365 651 692 656 764 1044 1142 
1143 1138 1216 437 1457 659 931 1303 1540 
1126 1261 1120 1301 1533 967 776 385 380 
730 1024 433 1202 1357 577 1265 1324 1415 
1495 864 1132 1308 1526 969 1225 1030 1476 
1183 1312 572 813 957 747 874 1199 438 
494 502 1566 1422 943 1169 1237 513 1392 
1397 826 1167 1370 1440 642 408 1039 569 
1088 632 744 1319 1004 955 694 940 1313 
1045 788 1279 1419 1522 420 443 618 1226 
1366 1423 801 755 1052 894 919 427 1006 
1497 1367 1570 540 590 1105 491 815 1424 
893 1462 883 1051 1094 1236 1406 526 731 
844 954 717 1247 1072 719 1093 501 538 
1469 1149 715 781 1344 907 554 455 1095 
521 556 901 389 968 1112 1363 693 1534 
593 579 1402 753 900 1292 1326 461 609 
1249 399 424 1283 1332 1137 699 456 1113 
447 533 824 1274 831 870 1379 990 1448 
818 984 1160 1539 690 495 843 1182 891 
1503 463 1131 795 640 452 1359 796 842 
941 1102 1193 1109 567 1083 937 966 1210 
721 688 1256 1082 832 839 848 704 487 
741 879 1079 1472 1563 622 856 1163 1524 
1115 1187 822 933 1458 534 662 1567 400 
484 1393 1061 1198 477 903 524 1195 1460 
392 552 770 697 723 1097 928 1317 1196 
1275 1449 489 678 976 613 1164 1334 1499 
1260 419 1246 473 751 841 1471 1569 673 
414 1270 906 464 1078 684 782 432 861 
938 1486 506 1019 1565 1214 892 1284 965 
1224 600 1490 787 817 918 1122 1560 1335 
574 1212 1418 772 1250 1521 783 514 564 
834 1413 646 1410 1349 1376 863 930 925 
1323 670 1401 1405 421 576 1188 1361 923 
1206 1398 1525 1353 592 904 470 561 724 
921 1559 1561 1055 1411 786 1287 1116 1209 
1022 729 422 862 1136 1341 1346 1576 705 
1433 625 784 1298 1523 944 597 653 1129 
929 703 805 648 1442 1184 980 727 759 
1509 1048 480 1140 1128 1178 568 718 1407 
1550 756 872 1297 1426 1519 920 1219 1557 
379 792 835 857 695 853 1234 1147 749 
1536 542 466 527 1396 949 1179 932 591 
1348 1027 1211 582 655 1494 774 406 882 
483 1572 1069 914 887 436 1117 425 1020 
1498 647 911 1241 956 492 1158 570 1293 
557 1300 1077 472 1268 1429 575 709 451 
972 1262 1475 490 1034 1304 687 1213 1517 
1029 1435 804 1018 1065 1506 1548 511 1291 
881 1245 496 974 1257 761 571 827 1314 
1481 415 733 816 1552 620 1172 992 1096 
1546 1445 849 558 1280 845 1420 594 458 
959 1489 986 1229 1059 1289 617 588 1151 
868 469 851 619 497 444 512 1119 1227 
578 1001 983 1492 599 1107 1073 654 778 
563 1070 500 1453 1466 583 1491 963 1125 
1455 550 837 1451 1510 829 988 523 742 
1388 700 898 1042 1191 922 1378 1431 635 
720 1141 1441 1463 1465 551 1068 1564 912 
1057 994 645 825 1483 1232 467 1311 615 
722 633 1375 1351 899 1484 685 1215 1452 
1252 993 681 1144 471 1087 1173 1555 478 
977 760 806 1201 1416 698 454 1064 1026 
598 947 1159 1185 1240 964 754 886 1110 
936 586 927 1294 441 1161 657 1434 1487 
1461 1331 962 1493 445 820 581 991 1329 
799 1033 765 1325 1558 766 739 1456 580 
1516 1408 1086 702 823 869 1384 1272 773 
614 1464 1255 1537 626 1395 1263 388 1038 
910 1577 1360 1507 924 650 743 951 1425 
819 797 847 738 1217 1544 1124 1474 1337 
1175 1403 1354 855 652 1382 771 1545 407 
1568 1081 873 858 544 667 1515 499 859 
1056 1290 1531 1364 1267 713 382 1399 1437 
789 800 1432 1221 728 905 1302 510 505 
1347 1450 476 846 840 1146 465 1508 942 
1194 1041 
type 1 1577 int
1 1 1 1 1 1 1 1 1 
1 1 1 1 1 1 1 1 1 
1 1 1 1 1 1 1 1 1 
1 1 1 1 1 1 1 1 1 
1 1 1 1 1 1 1 1 1 
1 1 1 1 1 1 1 1 1 
1 1 1 1 1 1 1 1 1 
1 1 1 1 1 1 1 1 1 
1 1 1 1 1 1 1 1 1 
1 1 1 1 1 1 1 1 1 
1 1 1 1 1 1 1 1 1 
1 1 1 1 1 1 1 1 1 
1 1 1 1 1 1 1 1 1 
1 1 1 1 1 1 1 1 1 
1 1 1 1 1 1 1 1 1 
1 1 1 1 1 1 1 1 1 
1 1 1 1 1 1 1 1 1 
1 1 1 1 1 1 1 1 1 
1 1 1 1 1 1 1 1 1 
1 1 1 1 1 1 1 1 1 
1 1 1 1 1 1 1 1 1 
1 1 1 1 1 1 1 1 1 
1 1 1 1 1 1 1 1 1 
1 1 1 1 1 1 1 1 1 
1 1 1 1 1 1 1 1 1 
1 1 1 1 1 1 1 1 1 
1 1 1 1 1 1 1 1 1 
1 1 1 1 1 1 1 1 1 
1 1 1 1 1 1 1 1 1 
1 1 1 1 1 1 1 1 1 
1 1 1 1 1 1 1 1 1 
1 1 1 1 1 1 1 1 1 
1 1 1 1 1 1 1 1 1 
1 1 1 1 1 1 1 1 1 
1 1 1 1 1 1 1 1 1 
1 1 1 1 1 1 1 1 1 
1 1 1 1 1 1 1 1 1 
1 1 1 1 1 1 1 1 1 
1 1 1 1 1 1 1 1 1 
1 1 1 1 1 1 1 1 1 
1 1 1 1 1 1 1 1 1 
1 1 1 1 1 1 1 1 1 
1 1 1 1 1 1 1 1 1 
1 1 1 1 1 1 1 1 1 
1 1 1 1 1 1 1 1 1 
1 1 1 1 1 1 1 1 1 
1 1 1 1 1 1 1 1 1 
1 1 1 1 1 1 1 1 1 
1 1 1 1 1 1 1 1 1 
1 1 1 1 1 1 1 1 1 
1 1 1 1 1 1 1 1 1 
1 1 1 1 1 1 1 1 1 
1 1 1 1 1 1 1 1 1 
1 1 1 1 1 1 1 1 1 
1 1 1 1 1 1 1 1 1 
1 1 1 1 1 1 1 1 1 
1 1 1 1 1 1 1 1 1 
1 1 1 1 1 1 1 1 1 
1 1 1 1 1 1 1 1 1 
1 1 1 1 1 1 1 1 1 
1 1 1 1 1 1 1 1 1 
1 1 1 1 1 1 1 1 1 
1 1 1 1 1 1 1 1 1 
1 1 1 1 1 1 1 1 1 
1 1 1 1 1 1 1 1 1 
1 1 1 1 1 1 1 1 1 
1 1 1 1 1 1 1 1 1 
1 1 1 1 1 1 1 1 1 
1 1 1 1 1 1 1 1 1 
1 1 1 1 1 1 1 1 1 
1 1 1 1 1 1 1 1 1 
1 1 1 1 1 1 1 1 1 
1 1 1 1 1 1 1 1 1 
1 1 1 1 1 1 1 1 1 
1 1 1 1 1 1 1 1 1 
1 1 1 1 1 1 1 1 1 
1 1 1 1 1 1 1 1 1 
1 1 1 1 1 1 1 1 1 
1 1 1 1 1 1 1 1 1 
1 1 1 1 1 1 1 1 1 
1 1 1 1 1 1 1 1 1 
1 1 1 1 1 1 1 1 1 
1 1 1 1 1 1 1 1 1 
1 1 1 1 1 1 1 1 1 
1 1 1 1 1 1 1 1 1 
1 1 1 1 1 1 1 1 1 
1 1 1 1 1 1 1 1 1 
1 1 1 1 1 1 1 1 1 
1 1 1 1 1 1 1 1 1 
1 1 1 1 1 1 1 1 1 
1 1 1 1 1 1 1 1 1 
1 1 1 1 1 1 1 1 1 
1 1 1 1 1 1 1 1 1 
1 1 1 1 1 1 1 1 1 
1 1 1 1 1 1 1 1 1 
1 1 1 1 1 1 1 1 1 
1 1 1 1 1 1 1 1 1 
1 1 1 1 1 1 1 1 1 
1 1 1 1 1 1 1 1 1 
1 1 1 1 1 1 1 1 1 
1 1 1 1 1 1 1 1 1 
1 1 1 1 1 1 1 1 1 
1 1 1 1 1 1 1 1 1 
1 1 1 1 1 1 1 1 1 
1 1 1 1 1 1 1 1 1 
1 1 1 1 1 1 1 1 1 
1 1 1 1 1 1 1 1 1 
1 1 1 1 1 1 1 1 1 
1 1 1 1 1 1 1 1 1 
1 1 1 1 1 1 1 1 1 
1 1 1 1 1 1 1 1 1 
1 1 1 1 1 1 1 1 1 
1 1 1 1 1 1 1 1 1 
1 1 1 1 1 1 1 1 1 
1 1 1 1 1 1 1 1 1 
1 1 1 1 1 1 1 1 1 
1 1 1 1 1 1 1 1 1 
1 1 1 1 1 1 1 1 1 
1 1 1 1 1 1 1 1 1 
1 1 1 1 1 1 1 1 1 
1 1 1 1 1 1 1 1 1 
1 1 1 1 1 1 1 1 1 
1 1 1 1 1 1 1 1 1 
1 1 1 1 1 1 1 1 1 
1 1 1 1 1 1 1 1 1 
1 1 1 1 1 1 1 1 1 
1 1 1 1 1 1 1 1 1 
1 1 1 1 1 1 1 1 1 
1 1 1 1 1 1 1 1 1 
1 1 1 1 1 1 1 1 1 
1 1 1 1 1 1 1 1 1 
1 1 1 1 1 1 1 1 1 
1 1 1 1 1 1 1 1 1 
1 1 1 1 1 1 1 1 1 
1 1 1 1 1 1 1 1 1 
1 1 1 1 1 1 1 1 1 
1 1 1 1 1 1 1 1 1 
1 1 1 1 1 1 1 1 1 
1 1 1 1 1 1 1 1 1 
1 1 1 1 1 1 1 1 1 
1 1 1 1 1 1 1 1 1 
1 1 1 1 1 1 1 1 1 
1 1 1 1 1 1 1 1 1 
1 1 1 1 1 1 1 1 1 
1 1 1 1 1 1 1 1 1 
1 1 1 1 1 1 1 1 1 
1 1 1 1 1 1 1 1 1 
1 1 1 1 1 1 1 1 1 
1 1 1 1 1 1 1 1 1 
1 1 1 1 1 1 1 1 1 
1 1 1 1 1 1 1 1 1 
1 1 1 1 1 1 1 1 1 
1 1 1 1 1 1 1 1 1 
1 1 1 1 1 1 1 1 1 
1 1 1 1 1 1 1 1 1 
1 1 1 1 1 1 1 1 1 
1 1 1 1 1 1 1 1 1 
1 1 1 1 1 1 1 1 1 
1 1 1 1 1 1 1 1 1 
1 1 1 1 1 1 1 1 1 
1 1 1 1 1 1 1 1 1 
1 1 1 1 1 1 1 1 1 
1 1 1 1 1 1 1 1 1 
1 1 1 1 1 1 1 1 1 
1 1 1 1 1 1 1 1 1 
1 1 1 1 1 1 1 1 1 
1 1 1 1 1 1 1 1 1 
1 1 1 1 1 1 1 1 1 
1 1 1 1 1 1 1 1 1 
1 1 1 1 1 1 1 1 1 
1 1 1 1 1 1 1 1 1 
1 1 1 1 1 1 1 1 1 
1 1 1 1 1 1 1 1 1 
1 1 1 1 1 1 1 1 1 
1 1 1 1 1 1 1 1 1 
1 1 
i 3 1577 int
0 0 0 0 0 0 0 0 0 
0 0 0 0 0 0 0 0 0 
0 0 0 0 0 0 0 0 0 
0 0 0 0 0 0 0 0 0 
0 0 0 0 0 0 0 0 0 
0 0 0 0 0 0 0 1 0 
0 0 0 0 0 0 0 0 0 
0 0 0 0 0 0 0 0 0 
0 0 0 0 0 0 0 0 0 
0 0 0 0 0 0 0 0 0 
0 0 0 0 0 0 0 0 0 
0 0 0 0 0 0 0 0 0 
0 0 0 0 0 0 0 0 0 
0 0 0 0 0 0 0 0 0 
0 0 0 0 0 0 0 0 0 
0 0 0 0 0 0 0 0 0 
0 0 0 0 0 0 0 0 0 
0 0 0 0 0 0 0 0 0 
0 0 0 0 0 0 0 0 0 
0 0 0 0 0 0 0 0 0 
0 0 0 0 0 0 0 0 0 
0 0 0 0 0 0 0 0 0 
0 0 0 0 0 0 0 0 0 
0 0 0 0 0 0 0 0 0 
0 0 0 0 0 0 0 0 0 
0 0 0 0 0 0 0 0 0 
0 0 0 0 0 0 0 0 0 
0 0 0 0 0 0 0 0 0 
0 0 0 0 0 0 0 0 0 
0 0 0 0 0 0 0 0 0 
0 0 0 0 0 0 0 0 0 
0 0 0 0 0 0 0 0 0 
0 0 0 0 0 0 0 0 0 
0 0 0 0 0 0 0 0 0 
0 0 0 0 0 0 0 0 0 
0 0 0 0 0 0 0 0 0 
0 0 0 0 0 0 0 0 0 
0 0 0 0 0 0 0 0 0 
0 0 0 0 0 0 0 0 0 
0 0 0 0 0 0 0 0 0 
0 0 0 0 0 0 0 0 0 
0 0 0 0 0 0 0 0 0 
0 0 0 0 0 0 0 0 0 
0 0 0 0 0 0 0 0 0 
0 0 0 0 0 0 0 0 0 
0 0 0 0 0 0 0 0 0 
0 0 0 0 0 0 0 0 0 
0 0 0 0 0 0 0 0 0 
0 0 0 0 0 0 0 0 0 
0 0 0 0 0 0 0 0 0 
0 0 0 0 0 0 0 0 0 
0 0 0 0 0 0 0 0 0 
0 0 0 0 0 0 0 0 0 
0 0 0 0 0 0 0 0 0 
0 0 0 0 0 0 0 0 0 
0 0 0 0 0 0 0 0 0 
0 0 0 0 0 0 0 0 0 
-1 0 0 0 0 0 0 0 0 
0 0 0 0 0 0 0 0 0 
0 0 0 0 0 0 0 0 0 
0 0 0 0 0 0 0 0 0 
0 0 0 0 0 0 0 0 0 
0 0 0 0 0 0 0 0 0 
0 0 0 0 0 0 0 0 0 
0 0 0 0 0 0 0 0 0 
0 0 0 0 0 0 0 0 0 
0 0 0 0 0 0 0 0 0 
0 0 0 0 0 0 0 0 0 
0 0 0 0 0 0 0 0 0 
0 0 0 0 0 0 0 0 0 
0 0 0 0 0 0 0 0 0 
0 0 0 0 0 0 0 0 0 
0 0 0 0 0 0 0 0 0 
0 0 0 0 0 0 0 0 0 
0 0 0 0 0 0 0 0 0 
0 0 0 0 0 0 0 0 0 
0 0 0 0 0 0 0 0 0 
0 0 0 0 0 0 0 0 0 
0 0 0 0 0 0 0 0 0 
0 0 0 0 0 0 0 0 0 
0 0 0 0 0 0 0 0 0 
0 0 0 0 0 0 0 0 0 
0 0 0 0 0 0 0 0 0 
0 0 0 0 0 0 0 0 0 
0 0 0 0 0 0 0 0 0 
0 0 0 0 0 0 0 0 0 
0 0 0 0 0 0 0 0 0 
0 0 0 0 0 0 0 0 0 
0 0 0 0 0 0 0 0 0 
0 0 0 0 0 0 0 0 0 
0 0 0 0 0 0 0 0 0 
0 0 0 0 0 0 0 0 0 
0 0 0 0 0 0 0 0 0 
0 0 0 0 0 0 0 0 0 
0 0 0 0 0 0 0 0 0 
0 0 0 0 0 0 0 0 0 
0 0 0 0 0 0 0 0 0 
0 0 0 0 0 0 0 0 0 
0 0 0 0 0 0 0 0 0 
0 0 0 0 0 0 0 0 0 
0 0 0 0 0 0 0 0 0 
0 0 0 0 0 0 0 0 0 
0 0 0 0 0 0 0 0 0 
0 0 0 0 0 0 0 0 0 
0 0 0 0 0 0 0 0 0 
0 0 0 0 0 0 0 0 0 
0 0 0 0 0 0 0 0 0 
0 0 0 0 0 0 0 0 0 
0 0 0 0 0 0 0 0 0 
0 0 0 0 0 0 0 0 0 
0 0 0 0 0 0 0 0 0 
0 0 0 0 0 0 0 0 0 
0 0 0 0 0 0 0 0 0 
0 0 0 0 0 0 0 0 0 
0 0 0 0 0 0 0 0 0 
0 0 0 0 0 0 0 0 0 
0 0 0 0 0 0 0 0 0 
0 0 0 0 0 0 0 0 0 
0 0 0 0 0 0 0 0 0 
0 0 0 0 0 0 0 0 0 
0 0 0 0 0 0 0 0 0 
0 0 0 0 0 0 0 0 0 
0 0 0 0 0 0 0 0 0 
0 0 0 0 0 0 -1 0 0 
0 0 0 0 0 0 0 0 0 
0 0 0 0 0 0 0 0 0 
0 0 0 0 0 0 0 0 0 
0 0 0 0 0 0 0 0 0 
0 0 0 0 0 0 0 0 0 
0 0 0 0 0 0 0 0 0 
0 0 0 0 0 0 0 0 0 
0 0 0 0 0 0 0 0 0 
0 0 0 0 0 0 0 0 0 
0 0 0 0 0 0 0 0 0 
0 0 0 0 0 0 0 0 0 
0 0 0 0 0 0 0 0 0 
0 0 0 0 0 0 0 0 0 
0 0 0 0 0 0 0 0 0 
0 0 0 0 0 0 0 0 0 
0 0 0 0 1 0 0 0 0 
0 0 0 0 0 0 0 0 0 
0 0 0 0 0 0 0 0 0 
0 0 0 0 0 0 0 0 0 
0 0 0 0 0 0 0 0 0 
0 0 0 0 0 0 0 0 0 
0 0 0 0 0 0 0 0 0 
0 0 0 0 0 0 0 0 0 
0 0 0 0 0 0 0 0 0 
0 0 0 0 0 0 0 0 0 
0 0 0 0 0 0 0 0 0 
0 0 0 0 0 0 0 0 0 
0 0 0 0 0 0 0 0 0 
0 0 0 0 0 0 0 0 0 
0 0 0 0 0 0 0 0 0 
0 0 0 0 0 0 0 0 0 
0 0 0 0 0 0 0 0 0 
0 0 0 0 0 0 0 0 0 
0 0 0 0 0 0 0 0 0 
0 0 0 0 0 0 0 0 0 
0 0 0 0 0 0 0 0 0 
0 0 0 0 0 0 0 0 0 
0 0 0 0 0 0 0 0 0 
0 0 0 0 0 0 0 0 0 
0 0 0 0 0 0 0 0 0 
0 0 0 0 0 0 0 0 0 
0 0 0 0 0 0 0 1 0 
-1 0 0 0 0 0 0 0 0 
0 0 0 0 0 0 0 0 0 
0 0 0 0 0 0 0 0 0 
0 0 0 0 0 0 0 0 0 
0 0 0 0 0 0 0 0 0 
0 0 0 0 0 0 0 0 0 
0 0 0 0 0 0 0 0 0 
0 0 0 0 0 0 0 0 0 
0 0 0 0 0 0 0 0 0 
0 0 0 0 0 0 0 0 0 
0 0 0 0 0 0 0 0 0 
0 0 0 0 0 0 0 0 0 
0 0 0 0 0 0 0 0 0 
0 0 0 0 0 0 0 0 0 
0 0 0 0 0 0 0 0 0 
0 0 0 0 0 0 0 0 0 
0 0 0 0 0 0 0 0 0 
0 0 0 0 0 0 0 0 0 
0 0 0 0 0 0 0 0 0 
0 0 0 0 0 0 0 0 0 
0 0 0 0 0 0 0 0 0 
0 0 0 0 0 0 0 0 0 
0 0 0 0 0 0 0 0 0 
0 0 0 0 0 0 0 0 0 
0 0 0 0 0 0 0 0 0 
0 0 0 0 0 0 0 0 0 
0 0 0 0 0 0 0 0 0 
0 0 0 0 0 0 0 0 0 
0 0 0 0 0 0 0 0 0 
0 0 0 0 0 0 0 0 0 
0 0 0 0 0 0 0 0 0 
0 0 0 0 0 0 0 0 0 
0 0 0 0 0 0 0 0 0 
0 0 0 0 0 0 0 0 0 
0 0 0 0 0 0 0 0 0 
0 0 0 0 0 0 0 0 0 
0 0 0 0 0 0 0 0 0 
0 0 0 0 0 0 0 0 0 
0 0 0 0 0 0 0 0 0 
0 0 0 0 0 0 0 0 0 
0 0 0 0 0 0 0 0 0 
0 0 0 0 0 0 0 0 0 
0 0 0 0 0 0 0 0 0 
0 0 0 0 0 0 0 0 0 
0 0 0 0 0 0 0 0 0 
0 0 0 0 0 0 0 0 0 
0 0 0 0 0 0 0 0 0 
0 0 0 0 0 0 0 0 0 
0 0 0 0 0 0 0 0 0 
0 0 0 0 0 0 0 0 0 
0 0 0 0 0 0 0 0 0 
0 0 0 0 0 0 0 0 0 
0 0 0 0 0 0 0 0 0 
0 0 0 0 0 0 0 0 0 
0 0 0 0 0 0 0 0 0 
0 0 0 0 0 0 0 0 0 
0 0 0 0 0 0 0 0 0 
0 0 0 0 0 0 0 0 0 
0 0 0 0 0 0 0 0 0 
0 0 0 0 0 0 0 0 0 
0 0 0 -1 0 0 0 0 0 
0 0 0 0 0 0 0 0 0 
0 0 0 0 0 0 0 0 0 
0 0 0 0 0 0 0 0 0 
0 0 0 0 0 0 0 0 0 
0 0 0 0 0 0 0 0 0 
0 0 0 0 0 0 0 0 0 
0 0 0 0 0 0 0 0 0 
0 0 0 0 0 0 0 0 0 
0 0 0 0 0 0 0 0 0 
0 0 0 0 0 0 0 0 0 
0 0 0 0 0 0 0 0 0 
0 0 0 0 0 0 0 0 0 
0 0 0 0 0 0 0 0 0 
0 0 0 0 0 0 0 0 0 
0 0 0 0 0 0 0 0 0 
0 0 0 0 -1 0 0 -1 0 
0 0 0 0 0 0 0 0 0 
0 0 0 0 0 0 0 0 0 
0 0 0 0 0 0 0 0 0 
0 0 0 0 0 0 0 0 0 
0 0 0 0 0 0 0 0 0 
0 0 0 0 0 0 0 0 0 
0 0 0 0 0 0 0 0 0 
0 0 0 0 0 0 0 0 0 
0 0 0 0 0 0 0 0 0 
0 0 0 0 0 0 0 0 0 
0 0 0 0 0 0 0 0 0 
0 0 0 0 0 0 0 0 0 
0 0 0 0 0 0 0 0 0 
0 0 0 0 0 0 0 0 0 
0 0 0 0 0 0 0 0 0 
0 0 0 0 0 0 0 0 0 
0 0 0 0 0 0 0 0 0 
0 0 0 0 0 0 0 -1 0 
0 0 0 0 0 0 0 0 0 
0 0 0 0 0 0 0 0 0 
0 0 0 0 0 0 0 0 0 
0 0 0 0 0 0 0 0 0 
0 0 0 0 0 0 0 0 0 
0 0 0 0 0 0 0 0 0 
0 0 0 0 0 0 0 0 0 
0 0 0 0 0 0 0 0 0 
0 0 0 0 0 0 0 0 0 
0 0 0 0 0 0 0 0 0 
0 0 0 0 0 0 0 0 0 
0 0 0 0 0 0 0 0 0 
0 0 0 0 0 0 0 0 0 
0 0 0 0 0 0 0 0 0 
0 0 0 0 0 0 0 0 0 
0 0 0 0 0 0 0 0 0 
0 0 0 0 0 0 0 0 0 
0 0 0 0 0 0 0 0 0 
0 0 0 0 0 0 0 0 0 
0 0 0 0 0 0 0 0 0 
0 0 0 0 0 0 0 0 0 
0 0 0 0 0 0 0 0 0 
0 0 0 0 0 0 0 0 0 
0 0 0 0 0 0 0 0 0 
0 0 0 0 0 0 0 0 0 
0 0 0 0 0 0 0 0 0 
0 0 0 0 0 0 0 0 0 
0 0 0 0 0 0 0 0 0 
0 0 0 0 0 0 0 0 0 
0 0 0 0 0 0 0 0 0 
0 0 0 0 0 0 0 0 0 
0 0 0 0 0 0 0 0 0 
0 0 0 0 0 0 0 0 0 
0 0 0 0 0 0 0 0 0 
0 0 0 0 0 0 0 0 0 
0 0 0 0 0 0 0 0 0 
0 0 0 0 0 0 0 0 0 
0 0 0 0 0 0 0 0 0 
0 0 0 0 0 0 0 0 0 
0 0 0 0 0 0 0 0 0 
0 0 0 0 0 0 0 0 0 
0 0 0 0 0 0 0 0 0 
0 0 0 0 0 0 0 0 0 
0 0 0 0 0 0 0 0 0 
0 0 0 0 0 0 0 0 0 
0 0 0 0 0 0 0 0 0 
0 0 0 0 0 0 0 0 0 
0 0 0 0 0 0 0 0 0 
0 0 0 0 0 0 0 0 0 
0 0 0 0 0 0 1 0 0 
0 0 0 0 0 0 0 0 0 
0 0 0 0 0 0 0 0 0 
0 0 0 0 0 0 0 0 0 
0 0 0 0 0 0 0 0 0 
0 0 0 0 0 0 0 0 0 
0 0 0 0 0 0 0 0 0 
0 0 0 0 0 0 0 0 0 
0 0 0 0 0 0 0 0 0 
0 0 0 0 0 0 0 0 0 
0 0 0 0 0 0 0 0 0 
0 0 0 0 0 0 0 0 0 
0 0 0 0 0 0 0 0 0 
0 0 0 0 0 0 0 0 0 
0 0 0 0 0 0 0 0 0 
0 0 0 0 0 0 0 0 0 
0 0 0 0 0 0 0 0 0 
0 0 0 0 0 0 0 0 0 
0 0 0 0 0 0 0 0 0 
0 0 0 0 0 0 0 0 0 
0 0 0 0 0 0 0 0 0 
0 0 0 0 0 0 0 0 0 
0 0 0 0 0 0 0 0 0 
0 0 0 0 0 0 0 0 0 
0 0 0 0 0 0 0 0 0 
0 0 0 0 0 0 0 0 0 
0 0 0 0 0 0 0 0 0 
0 0 0 0 0 0 0 0 0 
0 0 0 0 0 0 0 0 0 
0 0 0 0 0 0 0 0 0 
0 0 0 0 0 0 0 0 0 
0 0 0 0 0 0 0 0 0 
0 0 0 0 0 0 0 0 0 
0 0 0 0 0 0 0 0 0 
0 0 0 0 0 0 0 0 0 
0 0 0 0 0 0 0 0 0 
0 0 0 0 0 0 0 0 0 
0 0 0 0 0 0 0 0 0 
0 0 0 0 0 0 0 0 0 
0 0 0 0 0 0 0 0 0 
0 0 0 0 0 0 0 0 0 
0 0 0 0 0 0 0 0 0 
0 0 0 0 0 0 0 0 0 
0 0 0 0 0 0 0 0 0 
0 0 0 0 0 0 0 0 0 
0 0 0 0 0 0 0 0 0 
0 0 0 0 0 0 0 0 0 
0 0 0 0 0 0 0 0 0 
0 0 0 0 0 0 0 0 0 
0 0 0 0 0 0 0 0 0 
0 0 0 0 0 0 0 0 0 
0 0 0 0 0 0 0 0 0 
0 0 0 0 0 0 0 0 0 
0 0 0 0 0 0 0 0 0 
0 0 0 0 0 0 0 0 0 
0 0 0 0 0 0 0 0 0 
0 0 0 0 0 0 0 0 0 
0 0 0 0 0 0 0 0 0 
0 0 0 0 0 0 0 0 0 
0 0 0 0 0 0 0 0 0 
0 0 0 0 0 0 0 0 0 
0 0 0 0 0 0 0 0 0 
0 0 0 0 0 0 0 0 0 
0 0 0 0 0 0 0 0 0 
0 0 0 0 0 0 0 0 0 
0 0 0 0 0 0 0 0 0 
0 0 0 0 0 0 0 0 0 
0 0 0 0 0 0 0 0 0 
0 0 0 0 0 0 0 0 0 
0 0 0 0 0 0 0 0 0 
0 0 0 0 0 0 0 0 0 
0 0 0 0 0 0 0 0 0 
0 0 0 0 0 0 0 0 0 
0 0 0 0 0 0 0 0 0 
0 0 0 0 0 0 0 0 0 
0 0 0 0 0 0 0 0 0 
0 0 0 0 0 0 0 0 0 
0 0 0 0 0 0 0 0 0 
0 0 0 0 0 0 0 0 0 
0 0 0 0 0 0 0 0 0 
0 0 0 0 0 0 0 0 0 
0 0 0 0 0 0 0 0 0 
0 0 0 0 0 0 0 0 0 
0 0 0 0 0 0 0 0 0 
0 0 0 0 0 0 0 0 0 
0 0 0 0 0 0 0 0 0 
0 0 0 0 0 0 0 0 0 
0 0 0 0 0 0 0 0 0 
0 0 0 0 0 0 0 0 0 
0 0 0 0 0 0 0 0 0 
0 -1 0 0 0 0 0 0 0 
0 0 0 0 0 0 0 0 0 
0 0 0 0 0 0 0 0 0 
0 0 0 0 0 0 0 0 0 
0 0 0 0 0 0 0 0 0 
0 0 0 0 0 0 0 0 0 
0 0 0 0 0 0 0 0 0 
0 0 0 0 0 0 0 0 0 
0 0 0 0 0 0 0 0 0 
0 0 0 0 0 0 0 0 0 
0 0 0 0 0 0 0 0 0 
0 0 0 0 0 0 0 0 0 
0 0 0 0 0 0 0 0 0 
0 0 0 0 0 0 0 1 0 
0 0 0 0 0 0 0 0 0 
0 0 0 0 0 0 0 0 0 
0 0 0 0 0 0 0 0 0 
0 0 0 0 0 0 0 0 0 
0 0 0 0 0 0 0 0 0 
0 0 0 0 0 0 0 0 0 
0 0 0 0 0 0 0 0 0 
0 0 0 0 0 0 0 1 0 
0 0 0 0 0 0 0 0 0 
0 0 0 0 0 0 0 0 0 
0 0 0 0 0 0 0 0 0 
0 0 0 0 0 0 0 0 0 
0 0 0 0 0 0 0 0 0 
0 0 0 0 0 0 0 0 0 
0 0 0 0 0 0 0 0 0 
0 0 0 0 0 0 0 0 0 
0 0 0 0 0 0 0 0 0 
0 0 0 0 0 0 0 0 0 
0 0 0 0 0 0 0 0 0 
0 0 0 0 0 0 0 0 0 
0 0 0 0 0 0 0 0 0 
0 0 0 0 0 0 0 0 0 
0 0 0 0 0 0 0 0 0 
0 0 0 0 0 0 0 0 0 
0 0 0 0 0 0 0 0 0 
0 0 0 0 0 0 0 0 0 
0 0 0 0 0 0 0 0 0 
0 0 0 0 0 0 0 0 0 
0 0 0 0 0 0 0 0 0 
0 0 0 0 0 0 0 0 0 
1 0 0 0 0 0 0 0 0 
0 0 0 0 0 0 0 0 0 
0 0 0 0 0 0 0 0 0 
0 0 0 0 0 0 0 0 0 
0 0 0 0 0 0 0 0 0 
0 0 0 0 0 0 0 0 0 
0 0 0 0 0 0 0 0 0 
0 0 0 0 0 0 0 0 0 
0 0 0 0 0 0 0 0 0 
0 0 0 0 0 0 0 0 0 
0 0 0 0 0 0 0 0 0 
0 0 0 0 0 0 0 0 0 
0 0 0 0 0 0 0 0 0 
0 0 0 0 0 0 0 0 0 
0 0 0 0 0 0 0 0 0 
0 0 0 0 0 0 0 0 0 
0 0 0 0 0 0 0 0 0 
0 0 0 0 0 0 0 0 0 
0 0 0 0 0 0 0 0 0 
0 0 0 0 0 0 0 0 0 
0 0 0 0 0 0 0 0 0 
0 0 0 0 0 0 0 0 0 
0 0 0 0 0 0 0 0 0 
0 0 0 0 0 0 0 0 0 
0 0 0 0 0 0 0 0 0 
0 0 0 0 0 0 0 0 0 
0 0 0 0 0 0 0 0 0 
0 0 0 0 0 0 0 0 0 
0 0 0 0 0 0 0 0 0 
0 0 0 0 0 0 0 0 0 
0 0 0 0 0 0 0 0 0 
0 0 0 0 0 0 0 0 0 
0 0 0 0 0 0 0 0 0 
0 0 0 0 0 0 0 0 0 
0 0 0 0 0 0 0 0 0 
0 0 0 0 0 0 0 0 0 
0 0 0 0 0 0 0 0 0 
0 0 0 0 0 0 0 0 0 
0 0 0 0 0 0 0 0 0 
0 0 0 0 0 0 0 0 0 
0 0 0 0 0 0 0 0 0 
0 0 0 0 0 0 0 0 0 
0 0 0 0 0 0 0 0 0 
0 0 0 0 0 0 0 0 0 
0 0 0 0 0 0 0 0 0 
0 0 0 0 0 0 0 0 0 
0 0 0 0 0 0 0 0 0 
0 0 0 0 0 0 0 0 0 
0 0 0 0 0 0 0 0 0 
0 0 0 0 0 0 0 0 0 
0 0 0 0 0 0 0 -1 0 
0 -1 0 0 -1 0 0 0 0 
1 0 0 0 0 0 0 0 0 
0 0 0 0 0 0 0 0 0 
0 0 0 0 0 0 0 0 0 
0 0 0 0 0 0 0 0 0 
0 0 0 0 0 0 0 0 0 
0 0 0 0 0 0 0 0 0 
1 0 0 0 0 0 0 0 0 
0 0 0 0 0 0 0 0 0 
0 0 0 0 0 0 0 0 0 
0 0 0 0 0 0 0 0 0 