# vtk DataFile Version 4.0
Generated by LIGGGHTS
ASCII
DATASET POLYDATA
POINTS 2000 float
-125.765 -124.107 9.91839 -112.031 -139.64 9.91901 -92.5658 -135.217 9.91877 
-106.122 -120.574 9.91844 -84.994 -113.073 9.91839 -58.9453 -128.272 9.91728 
-39.0739 -130.134 9.91837 -19.2801 -127.58 9.9174 -45.5063 -111.239 9.91877 
13.1684 -138.359 9.91849 4.67326 -121.547 16.5134 29.35 -126.675 9.91877 
96.3607 -123.311 9.91706 95.8374 -140.82 19.4816 115.242 -133.347 9.91779 
135.047 -130.799 9.91877 121.937 -114.552 9.91877 -137.809 -108.193 9.92041 
-129.07 -90.2473 9.91824 -118.816 -106.335 15.7736 -100.603 -100.634 9.9207 
-101.331 -80.6887 9.91088 -55.3685 -92.1145 9.91925 -65.3797 -109.38 9.91861 
-31.7806 -96.7467 9.92048 6.21262 -102.771 9.91965 -10.953 -92.5876 9.91852 
21.9119 -90.4462 9.91881 33.8384 -106.45 9.91872 39.481 -80.976 9.91984 
51.4089 -96.982 9.91934 71.2316 -94.6494 9.91866 59.3013 -78.6492 9.91877 
88.5037 -104.651 9.91926 94.4626 -85.6008 9.92268 107.98 -100.284 9.91877 
128.592 -95.7437 9.91331 113.931 -81.2318 9.91312 -135.493 -60.1009 9.91599 
-118.578 -70.6695 9.91878 -117.871 -50.7223 9.91796 -100.605 -60.7408 9.92004 
-80.7161 -62.4565 9.91955 -57.9099 -72.3191 9.91847 -38.7932 -78.0574 9.91877 
-19.1734 -74.4005 9.90979 -32.1502 -59.2334 9.9191 -8.01428 -57.8604 9.91703 
0.731386 -75.8029 9.91695 36.1028 -57.3299 9.9158 18.2547 -66.2556 9.91874 
56.0224 -56.1683 9.91748 77.5652 -53.5883 9.9213 78.5867 -73.5159 9.91956 
137.324 -77.8094 9.91885 126.564 -61.0032 9.91877 -128.621 -33.9056 9.91892 
-111.58 -17.3086 18.9533 -89.1743 -44.3811 9.92013 -85.1131 -24.8458 9.91714 
-106.439 -34.3559 9.91994 -30.523 -24.6708 9.91864 -23.8674 -42.3015 16.4936 
-12.1465 -16.8832 9.90735 45.0587 -39.4916 9.91847 92.1514 -39.9722 9.91378 
108.936 -22.5934 9.92162 89.7534 -17.0988 9.91743 111.972 -42.3209 9.91907 
135.767 -43.2966 9.90799 127.023 -26.9153 17.1698 -129.058 -13.9512 9.91877 
-131.236 9.77904 9.91727 -106.775 6.07898 9.91967 -90.6447 -5.6746 9.91755 
-65.5953 -7.00291 9.91765 -45.5267 6.9928 17.3167 -45.5587 -11.5446 9.91875 
-14.8511 4.94372 9.92199 1.69122 -2.07197 18.6037 35.9177 12.1201 9.91808 
27.6134 -6.53803 9.91877 104.101 -3.22393 9.91964 123.285 -8.71953 9.91155 
-116.663 23.4166 9.9181 -107.532 38.0915 19.8985 -45.8667 30.0627 9.91629 
-30.3038 17.5713 9.91878 -29.3342 41.2307 9.91538 32.5958 31.7971 9.91741 
70.6729 20.0445 9.91646 77.7523 38.6996 9.91395 51.3006 24.8419 9.91877 
56.0902 44.2205 9.92121 90.3731 23.2378 9.91828 97.3151 42.6189 9.91661 
-120.448 49.5607 9.91805 -131.326 66.2845 9.91108 -140.306 47.566 9.91849 
-94.0896 48.968 9.91988 -99.7467 68.1098 9.91877 -56.435 46.9949 9.91817 
-77.2679 75.1904 9.91665 -74.9197 54.5036 10.5594 -59.1787 66.762 9.91865 
2.18692 63.9027 9.91877 26.6112 50.8334 9.9164 27.6529 71.1116 9.91872 
44.1712 60.1056 11.9554 63.8634 62.6022 9.91883 100.016 67.6166 9.91877 
84.5718 55.4273 18.4034 80.8303 73.1025 9.91906 114.072 53.4538 9.91747 
130.818 64.3008 9.91732 -116.234 79.3602 9.92048 -135.096 85.8713 9.91012 
-94.8013 87.4473 9.91528 -21.8237 103.788 9.91047 13.401 85.0768 9.91877 
-4.53089 93.8291 9.91538 5.06438 109.101 18.4481 22.0738 103.051 9.92137 
104.981 86.9457 9.91877 85.7948 92.4302 9.92024 98.7819 107.588 9.92039 
117.975 102.092 9.9191 124.593 83.2607 9.91739 -131.603 138.432 9.92008 
-88.766 127.193 9.91563 -73.6958 140.281 9.91878 -54.6748 134.235 9.91657 
-37.0581 116.675 9.91608 -28.7152 134.805 9.92148 -6.30396 139.257 9.91491 
-9.62328 119.58 9.91832 15.5001 123.82 9.91841 39.1582 137.942 9.91595 
34.7309 118.481 9.9175 61.539 121.763 9.91877 78.016 110.688 11.974 
82.3151 130.06 9.91374 134.65 114.227 9.91504 127.348 132.793 9.91846 
112.844 120.44 15.8641 -116.854 -128.782 27.1536 -136.09 -133.25 30.0457 
-128.185 -113.098 32.0466 -120.258 -122.71 47.6388 -133.591 -137.458 49.3958 
-100.398 -131.191 38.1853 -85.8623 -123.13 27.1362 -81.3581 -136.076 41.6434 
-103.541 -113.979 28.5796 -66.0062 -121.113 27.1543 -49.4632 -134.052 26.5027 
-61.326 -130.862 43.9264 -53.2112 -112.704 39.958 -0.506293 -136.951 28.1054 
9.27821 -128.833 48.1145 17.5677 -128.706 29.9615 33.5256 -140.62 28.7483 
32.2989 -115.493 32.5561 33.9621 -132.642 47.0326 64.8307 -125.61 24.7973 
97.9453 -129.004 35.4232 88.9066 -113.725 47.1617 108.708 -114.897 44.9215 
106.408 -114.45 24.7087 135.342 -116.93 25.5371 119.7 -126.703 33.1693 
128.436 -112.132 43.643 -112.389 -89.5129 24.3809 -138.288 -96.8575 26.3408 
-79.2167 -89.8247 35.3556 -18.4371 -109.296 39.6791 -44.4546 -86.6986 33.9364 
5.36633 -88.8969 24.2462 15.2387 -104.59 31.6344 -1.06351 -79.0733 42.0295 
17.3078 -86.6204 40.0756 32.8178 -96.3076 27.0783 28.0813 -102.057 46.6999 
94.8707 -96.4242 28.8652 91.1352 -93.9199 48.3111 109.969 -95.2147 41.8634 
121.954 -102.268 27.5569 125.636 -83.4307 45.574 126.101 -82.841 25.638 
-130.583 -77.439 25.1506 -117.845 -62.3483 28.0458 -110.144 -59.2705 46.2005 
-92.3921 -57.5131 37.2464 -104.639 -47.7921 24.5683 -76.276 -57.7974 49.0159 
-27.7337 -77.8655 27.5848 -20.0247 -59.5484 25.7681 8.21966 -69.372 27.2623 
-5.7452 -59.8138 39.7058 13.0544 -63.0534 45.5657 26.1909 -77.6425 24.6201 
33.2682 -64.0451 37.4024 45.6606 -48.7175 28.6502 37.8825 -47.1449 46.9641 
46.7 -67.8716 23.136 66.7628 -65.5387 23.8784 66.3053 -52.5868 40.0888 
99.5246 -62.4589 35.6192 133.799 -64.7841 29.2189 133.751 -65.5517 49.1613 
-124.688 -46.069 42.6544 -133.303 -46.8588 24.679 -118.524 -33.8111 27.7687 
-137.404 -27.4228 26.6288 -123.433 -15.847 34.9509 -57.7682 -40.7062 24.8 
-24.8449 -41.9925 36.4301 13.7723 -34.9611 24.8009 -9.73385 -42.8539 49.4402 
38.5931 -25.9749 47.6917 65.4455 -43.6383 22.269 55.0648 -37.076 45.698 
98.1976 -29.045 25.4714 88.118 -30.1901 42.664 129.192 -45.3787 28.6303 
-120.188 0.131239 23.4495 -114.131 0.141406 42.4714 -140.801 -6.30687 26.0149 
-136.934 3.77277 42.8021 -100.71 -2.55528 26.8652 -100.11 12.9065 48.7349 
-78.4461 -12.5446 24.1469 -69.1853 -12.4094 41.8258 -56.6489 -5.9051 27.7239 
-53.2426 11.1531 48.1241 -24.4403 -7.37625 41.1875 9.30687 0.591546 36.8561 
27.4243 5.26125 26.6273 28.4442 -8.00483 41.5047 23.798 11.4499 45.2535 
59.1021 -9.37053 24.7969 88.9326 7.77534 30.8917 82.0568 1.80492 48.6513 
-126.983 34.1281 23.2272 -110.963 17.228 28.016 -127.779 20.8901 38.1434 
-105.99 30.7008 41.8676 -76.588 22.6389 24.7983 -48.585 43.1927 28.579 
-41.9016 24.3859 28.6358 0.988309 32.3104 24.7987 33.8072 23.2032 32.6023 
43.208 40.1482 24.6124 74.6113 21.5978 29.4201 68.2295 46.5097 25.6062 
86.9839 20.9317 45.7761 86.3267 39.6454 30.4911 121.983 22.8512 24.8013 
136.597 45.0278 47.5048 -116.657 63.9699 41.5277 -85.337 49.0956 45.8762 
-85.694 56.2879 27.2666 -82.026 68.5015 42.6294 -88.4742 77.8334 26.2144 
-62.3254 49.0453 42.699 -62.7235 70.4047 29.2197 -52.4972 65.3473 48.7139 
-28.1474 72.8184 24.7938 4.61659 65.6584 34.5894 -7.35747 57.0438 48.0285 
27.6878 47.3709 41.5646 22.2143 59.9759 27.097 40.9752 65.0953 44.7332 
21.1695 67.3669 45.6087 51.9948 57.2124 30.0837 72.9785 64.9527 31.5683 
65.2776 67.9064 49.7464 102.066 51.4637 27.1612 90.9498 75.0918 27.0077 
88.4963 56.5492 40.8782 106.106 72.5268 39.739 134.604 55.3326 27.3399 
117.864 65.9473 25.014 122.451 58.331 42.8854 137.371 76.2032 24.5332 
132.782 76.4268 43.9508 -135.516 92.8166 47.304 -93.3576 89.992 41.2643 
-66.3829 104.872 24.7971 -50.3199 85.1931 48.7966 -37.8219 100.109 44.3527 
-31.6046 107.521 26.8942 2.22114 89.7549 28.25 -12.0119 103.712 27.2827 
-8.46956 93.8107 44.6085 7.49774 81.9023 45.8246 2.64373 109.575 39.4882 
18.4761 101.049 30.8349 19.275 79.5179 29.8884 25.2443 92.8164 47.7063 
51.6071 91.7476 24.7963 77.4427 99.6912 46.9394 79.4937 80.3389 42.4867 
86.1051 94.252 29.7977 134.279 97.2349 20.3609 113.986 105.67 47.5094 
-115.906 110.982 24.7969 -139.507 125.811 45.8623 -88.1993 131.787 29.3272 
-98.5078 132.224 46.4086 -90.5318 112.891 48.7439 -67.421 139.562 28.8523 
-52.7125 132.889 40.5786 -31.5083 140.361 37.8474 -21.8944 124.931 25.8757 
-41.598 129.736 24.3031 -33.5081 120.87 41.5965 -3.14625 137.636 46.4492 
-2.03864 125.157 27.9351 -13.6502 120.905 43.6014 15.0566 133.813 33.5525 
45.7959 126.198 24.624 29.4117 117.692 32.2208 47.075 134.405 45.3457 
62.2027 123.253 35.5946 107.978 140.423 47.2383 78.6971 112.67 31.8236 
89.4637 135.032 37.3678 94.3996 121.658 23.3921 82.5823 120.847 49.6104 
114.184 137.37 26.345 134.525 125.702 27.5636 126.941 137.594 41.6861 
-140.527 -120.127 56.4621 -133.448 -133.913 69.0373 -137.868 -115.631 75.7236 
-109.888 -137.094 56.7995 -95.1119 -117.344 51.5508 -90.3272 -134.773 60.0177 
-75.3502 -119.82 52.8606 -71.2817 -140.488 58.2963 -58.3235 -126.076 63.0685 
-76.3427 -126.534 71.6342 -55.4675 -114.111 78.7877 -42.7042 -131.716 51.0563 
-40.1343 -118.252 65.562 -36.626 -136.731 72.2325 -20.9303 -140.723 54.7485 
-18.2026 -130.407 76.5775 -4.50897 -132.131 62.1616 6.81963 -115.715 62.9535 
8.11819 -129.441 77.3828 45.0485 -116.885 52.2503 26.0674 -118.18 58.2872 
35.0328 -128.351 73.7845 23.0331 -112.789 77.259 48.5197 -134.713 60.5237 
62.7349 -117.566 61.4761 68.2212 -136.413 57.8491 62.9654 -137.97 77.0353 
86.8434 -133.103 51.4882 103.674 -127.303 60.5101 87.2757 -123.459 71.7565 
105.89 -133.543 79.3383 122.074 -128.629 52.8952 125.714 -116.173 68.0572 
126.498 -134.102 76.7909 -124.006 -89.3503 57.3343 -84.6635 -107.184 65.1871 
-90.8332 -88.4563 68.2792 -64.1507 -106.24 62.2667 -47.768 -97.688 54.7125 
-70.8983 -88.8036 69.2728 -52.499 -94.9846 73.9123 -33.6055 -99.8582 69.7094 
10.5957 -97.6815 55.2753 -4.13316 -85.3566 60.7226 15.0216 -78.4319 58.1343 
27.5746 -95.5234 65.5513 41.3774 -109.147 70.2831 57.7362 -84.3307 51.914 
82.5869 -105.571 64.2501 106.049 -86.9964 59.6247 107.47 -107.952 63.5919 
89.8931 -91.0836 75.8738 124.402 -98.9432 58.0704 112.825 -94.1531 76.981 
132.226 -98.2913 79.1752 -127.943 -54.7623 60.3146 -126.864 -62.9788 80.0807 
-109.308 -58.9002 66.1397 -93.5858 -65.2434 55.6067 -82.7636 -56.037 69.6188 
[...]
POINT_DATA 2000
FIELD FieldData 7
id 1 2000 int
244 224 311 293 113 306 121 444 93 
415 89 380 194 73 97 382 171 384 
223 143 82 191 270 442 187 214 158 
46 323 149 414 310 401 228 154 173 
262 297 55 268 363 64 258 245 148 
302 174 231 246 326 153 204 227 239 
71 274 152 103 201 417 78 241 256 
54 352 168 410 225 402 340 233 29 
208 252 349 90 458 351 135 408 34 
159 134 282 328 428 216 107 404 165 
67 264 436 166 94 238 226 456 277 
367 120 329 240 260 290 253 147 421 
379 394 182 450 139 338 76 405 446 
170 63 222 199 119 347 376 190 434 
232 133 318 209 48 455 198 123 276 
35 100 75 242 400 261 146 361 373 
180 230 32 142 280 448 350 422 53 
424 286 427 271 60 202 186 344 441 
235 275 22 294 52 197 341 91 452 
316 70 111 9 2 284 412 254 358 
110 132 80 439 291 88 74 127 285 
314 257 429 287 137 65 43 86 196 
105 289 457 178 325 151 355 296 85 
25 322 403 37 343 117 309 411 10 
337 11 183 308 144 397 288 390 212 
49 353 416 332 39 317 362 181 237 
192 4 419 160 383 360 7 301 51 
138 69 263 330 20 392 87 12 324 
375 266 243 57 249 15 345 3 265 
381 281 213 145 388 321 8 215 99 
377 167 131 399 378 108 320 203 247 
359 269 354 96 77 335 346 251 364 
27 331 445 305 116 304 334 30 425 
162 31 435 18 312 140 372 295 17 
6 33 38 368 36 59 303 81 430 
389 125 356 236 115 163 423 426 279 
255 348 61 79 229 283 66 443 259 
1869 858 1289 406 365 1824 164 1196 431 
1754 1015 307 300 1911 299 1878 112 102 
1590 386 420 339 1019 175 195 248 1720 
185 1432 1941 1859 432 727 1671 5 1033 
1555 156 366 327 1883 184 409 272 385 
371 83 14 109 47 1285 1927 118 708 
862 1786 1564 393 336 1724 220 559 342 
193 23 1860 319 1947 333 981 1609 449 
124 437 218 1649 1726 217 1875 1194 315 
661 1084 745 26 267 250 418 1736 205 
45 370 1164 72 398 114 1369 757 141 
155 937 588 844 1762 19 766 769 1160 
84 391 1511 374 106 206 234 157 1866 
28 219 130 751 68 41 56 1393 1662 
101 357 1449 629 1411 454 1915 1023 1446 
453 62 1570 665 313 1606 207 188 433 
1 577 104 58 597 590 273 1771 16 
24 1403 1118 150 1053 407 172 1683 200 
129 126 278 98 447 44 1658 292 1087 
794 221 177 1957 1421 440 1130 211 189 
1980 1520 128 176 413 21 210 395 1404 
1812 161 1874 709 438 929 1840 169 1089 
1711 1889 92 1370 553 1434 1452 298 1402 
1857 1691 95 387 1900 1095 1721 40 136 
1287 1595 13 179 396 1504 776 1623 42 
369 50 974 1075 481 485 1254 1538 972 
1337 959 1816 1343 1312 549 555 1617 1297 
1897 917 1200 1655 606 909 1944 1386 1029 
542 1178 1842 675 1267 521 1455 1004 658 
1693 1717 1477 884 1734 1413 1541 668 1058 
1798 649 1464 1225 1154 1152 1529 541 1959 
1491 1211 1321 1684 1176 2000 463 1682 762 
920 1731 880 1425 487 659 1844 1679 496 
490 1871 1148 838 1823 1522 1216 798 992 
1544 1368 870 609 1419 1239 1008 1172 1108 
1608 1021 847 1041 867 1742 1804 1465 533 
915 1288 1031 451 1346 651 1395 1835 967 
977 811 1919 1735 1389 1125 1483 587 1473 
1962 1070 759 1195 1038 1168 1408 1701 467 
122 1751 716 1405 1681 1990 894 1410 601 
1604 475 507 1965 1416 1576 1533 846 573 
493 1043 942 1639 1766 1732 1936 1537 1773 
1199 615 1365 1205 681 1457 1532 982 604 
1749 859 956 1725 571 1625 1493 1951 822 
1778 1611 969 1870 1246 1145 560 975 1428 
1966 680 961 819 907 789 1896 1025 955 
898 1420 1175 1263 1904 663 842 913 470 
1161 1776 1111 1910 519 1181 1607 1987 1850 
1078 971 1257 1348 1279 1057 958 1640 1556 
843 1846 1566 1926 1062 1833 1899 569 758 
953 872 1183 462 580 1543 1831 837 1689 
815 893 1002 725 460 1584 628 780 1045 
912 1218 480 1431 1879 784 850 868 476 
1546 1123 1052 1328 1633 860 1470 921 633 
1135 881 682 895 1571 1592 976 1901 647 
534 1230 1587 673 1049 1377 522 1744 1105 
1423 1182 1134 1761 531 729 706 1723 804 
1558 945 472 552 1372 581 1502 1101 1275 
1953 1887 1855 1149 719 1568 1073 1578 793 
465 1838 1499 1458 635 750 471 1048 468 
1463 940 1688 1917 667 631 1613 671 650 
1340 968 1600 1935 1418 1081 1685 925 1890 
1177 1659 1484 1796 1808 1114 1266 1064 1219 
1653 1059 1308 1583 504 1478 1644 1480 1863 
1136 1642 1868 1497 1360 899 1526 1120 854 
1938 943 1272 960 1772 1273 1596 1984 1445 
973 1330 754 595 1829 1826 678 808 514 
1898 1834 1437 1895 1740 1849 538 1206 1918 
1221 998 1066 1690 637 1969 1236 882 735 
1548 1110 1268 523 806 1943 1757 988 489 
1295 1234 1476 1104 1228 1983 756 1466 918 
856 1707 997 1923 1673 572 694 1668 1638 
951 812 1091 625 1619 1097 677 1968 1214 
840 551 1126 1208 1210 1067 994 1490 1979 
1127 1357 730 1667 1259 1333 1939 1774 540 
1937 786 892 693 1124 1818 763 1140 488 
979 596 1536 623 499 1192 900 993 1579 
529 1026 1012 1338 1777 1569 1213 1313 1291 
902 1498 871 941 814 1793 1472 1562 1347 
1942 1401 1044 1494 1339 1621 1274 494 1132 
928 1349 1554 1924 910 1746 1374 720 1083 
1925 1851 1574 1286 1069 1071 1507 1202 582 
803 1706 1077 576 1322 652 539 1056 689 
901 1954 738 1932 1618 1864 630 512 1143 
1080 1055 764 1307 1139 770 1280 1260 1789 
802 1115 810 1442 931 564 536 1209 566 
1950 1224 1631 1893 1527 1885 1422 1189 739 
1794 474 1854 1615 1391 532 554 1989 1158 
1426 611 1634 1506 1424 717 1508 509 1993 
1170 705 1841 558 1601 1847 999 991 1387 
1913 1174 1486 1383 653 1945 1231 1672 1730 
1250 1656 1131 1552 1061 1827 602 1060 497 
1076 1809 704 1171 1865 825 1063 1074 1517 
1582 1107 1670 823 1467 1985 1068 1785 799 
774 1759 692 742 1256 484 768 1451 1819 
1034 1251 527 1801 760 1293 1970 674 1997 
747 1304 1795 618 1096 908 923 1098 1042 
1637 1882 1462 1227 835 1603 736 1106 1712 
1450 1678 876 1474 700 1839 1680 801 516 
746 1371 877 779 1810 922 1510 775 732 
1704 1716 639 785 1314 1573 1122 608 614 
621 1001 1783 1627 1155 1775 1862 1000 1549 
477 1179 1902 1946 1269 1147 1112 524 916 
887 695 1622 483 930 1496 1100 782 1316 
1429 1156 703 1929 1581 1563 620 1788 1353 
765 1780 1560 1471 1624 935 891 1748 607 
1006 1963 1197 744 1233 807 1976 1342 648 
579 1728 1255 662 1646 1861 1713 1769 795 
1364 1050 568 1958 1201 1620 1998 1747 1317 
1090 1813 1252 1180 526 634 1032 1738 1814 
949 1363 492 1905 574 1822 1373 1460 1948 
654 1379 1359 548 1444 1380 503 1676 1955 
1741 926 1054 1492 805 1361 1561 830 1265 
479 1436 1807 1765 1551 836 520 1988 1144 
546 995 1381 1299 715 1577 696 966 500 
1017 1186 1242 603 1591 792 816 1325 1355 
1832 1240 726 1438 510 1037 1977 1443 1128 
656 1247 688 1612 1014 1165 1843 873 1332 
530 627 1666 1858 1459 687 827 610 1710 
1320 1184 1157 924 1700 1516 1515 686 1531 
1884 1550 1119 875 1215 874 1837 1301 657 
1908 1628 1398 724 1745 1427 711 1396 1435 
978 701 1277 1674 1931 1881 679 1836 1281 
914 1514 1309 1750 1982 578 511 1981 1598 
469 748 1973 1585 832 1872 1237 952 1972 
1648 1138 1072 1366 547 824 565 755 1229 
1400 1752 1845 1151 1599 1505 1803 638 1888 
1760 1018 1534 1047 619 1007 684 1519 1453 
749 1559 1358 1825 1652 866 1433 664 586 
1141 1545 1245 550 1344 698 1580 707 1193 
1971 1647 1036 1907 1390 464 800 1928 535 
790 1709 570 965 473 1085 1005 1310 1727 
1553 1086 1495 1503 1244 1099 1643 948 1787 
1294 957 853 482 1876 934 1102 599 1602 
1512 685 525 1167 1030 660 655 864 1912 
1815 933 1226 1743 1412 1523 1999 1616 905 
1173 1967 722 1065 1657 517 1800 641 712 
1805 1282 983 1362 598 1597 1306 583 851 
752 1013 591 1261 515 1485 1686 777 593 
1479 567 1651 1696 1821 1594 1092 1852 1220 
1415 1166 670 1350 962 1392 861 1117 820 
906 1039 1113 1283 1626 970 486 1768 612 
1934 501 1352 1797 826 821 771 1733 831 
761 1922 1440 1914 1518 1376 1708 834 1964 
897 1311 1886 1409 1542 740 1489 478 796 
1318 1488 676 1763 1605 1133 594 1940 1524 
1094 987 1695 1430 1781 839 1996 1324 841 
753 1758 1586 1994 946 1046 645 985 781 
1995 626 1894 1933 1417 989 617 833 1129 
1481 950 857 829 1817 1331 1853 585 556 
787 1190 1806 1153 1767 518 1394 1142 1873 
980 1382 1718 1284 600 1521 624 1203 622 
1513 1292 702 1290 1461 1315 767 1992 1270 
869 1079 772 584 1891 1687 963 1705 1469 
1345 1187 1921 1235 1764 1614 737 1632 1867 
605 562 1916 1082 1629 1547 1675 818 1137 
927 632 1335 879 1880 1698 731 1198 1739 
1020 1892 1278 1475 1022 1692 1016 1276 1241 
1729 644 1326 1024 1121 1645 863 743 984 
561 1722 1856 713 1792 809 1378 1243 506 
1956 1799 1329 498 817 1961 1702 616 1303 
932 1232 845 1217 1341 1447 1146 1677 1588 
1238 1660 1351 669 714 1051 1384 1163 1593 
1191 1535 1641 710 1169 849 939 896 783 
537 1974 1334 1456 1116 1664 543 1906 1697 
944 1828 1264 848 563 1753 1635 885 1782 
1454 1509 1185 954 778 1756 883 1439 575 
791 1367 1530 886 1565 1323 1305 466 508 
728 723 495 1930 741 1575 1298 1212 1500 
1802 1011 1302 640 513 911 1399 545 646 
1223 1356 904 1669 1040 1589 733 1978 505 
683 1258 1159 828 1830 1103 672 1540 1665 
889 878 1035 1909 1249 1699 773 1027 1009 
697 557 718 1448 852 1375 1093 1525 1779 
459 1949 788 690 491 1572 1262 1694 1162 
642 1975 613 1003 964 1468 1407 1661 1385 
1414 1296 1848 528 1501 996 903 1960 1719 
1820 1397 1319 643 1567 666 544 721 1654 
1088 1406 1300 1991 1952 1737 502 1557 865 
592 855 1528 1714 947 1271 1109 1150 589 
1791 1028 1663 1487 1703 936 1354 1388 890 
1636 888 1610 1903 1188 1877 813 1986 990 
1248 1010 1441 1650 938 1790 797 919 1253 
1327 1482 1920 1630 1207 1539 734 1770 1755 
691 1204 699 1336 1715 1222 1784 636 1811 
986 461 
type 1 2000 int
1 1 1 1 1 1 1 1 1 
1 1 1 1 1 1 1 1 1 
1 1 1 1 1 1 1 1 1 
1 1 1 1 1 1 1 1 1 
1 1 1 1 1 1 1 1 1 
1 1 1 1 1 1 1 1 1 
1 1 1 1 1 1 1 1 1 
1 1 1 1 1 1 1 1 1 
1 1 1 1 1 1 1 1 1 
1 1 1 1 1 1 1 1 1 
1 1 1 1 1 1 1 1 1 
1 1 1 1 1 1 1 1 1 
1 1 1 1 1 1 1 1 1 
1 1 1 1 1 1 1 1 1 
1 1 1 1 1 1 1 1 1 
1 1 1 1 1 1 1 1 1 
1 1 1 1 1 1 1 1 1 
1 1 1 1 1 1 1 1 1 
1 1 1 1 1 1 1 1 1 
1 1 1 1 1 1 1 1 1 
1 1 1 1 1 1 1 1 1 
1 1 1 1 1 1 1 1 1 
1 1 1 1 1 1 1 1 1 
1 1 1 1 1 1 1 1 1 
1 1 1 1 1 1 1 1 1 
1 1 1 1 1 1 1 1 1 
1 1 1 1 1 1 1 1 1 
1 1 1 1 1 1 1 1 1 
1 1 1 1 1 1 1 1 1 
1 1 1 1 1 1 1 1 1 
1 1 1 1 1 1 1 1 1 
1 1 1 1 1 1 1 1 1 
1 1 1 1 1 1 1 1 1 
1 1 1 1 1 1 1 1 1 
1 1 1 1 1 1 1 1 1 
1 1 1 1 1 1 1 1 1 
1 1 1 1 1 1 1 1 1 
1 1 1 1 1 1 1 1 1 
1 1 1 1 1 1 1 1 1 
1 1 1 1 1 1 1 1 1 
1 1 1 1 1 1 1 1 1 
1 1 1 1 1 1 1 1 1 
1 1 1 1 1 1 1 1 1 
1 1 1 1 1 1 1 1 1 
1 1 1 1 1 1 1 1 1 
1 1 1 1 1 1 1 1 1 
1 1 1 1 1 1 1 1 1 
1 1 1 1 1 1 1 1 1 
1 1 1 1 1 1 1 1 1 
1 1 1 1 1 1 1 1 1 
1 1 1 1 1 1 1 1 1 
1 1 1 1 1 1 1 1 1 
1 1 1 1 1 1 1 1 1 
1 1 1 1 1 1 1 1 1 
1 1 1 1 1 1 1 1 1 
1 1 1 1 1 1 1 1 1 
1 1 1 1 1 1 1 1 1 
1 1 1 1 1 1 1 1 1 
1 1 1 1 1 1 1 1 1 
1 1 1 1 1 1 1 1 1 
1 1 1 1 1 1 1 1 1 
1 1 1 1 1 1 1 1 1 
1 1 1 1 1 1 1 1 1 
1 1 1 1 1 1 1 1 1 
1 1 1 1 1 1 1 1 1 
1 1 1 1 1 1 1 1 1 
1 1 1 1 1 1 1 1 1 
1 1 1 1 1 1 1 1 1 
1 1 1 1 1 1 1 1 1 
1 1 1 1 1 1 1 1 1 
1 1 1 1 1 1 1 1 1 
1 1 1 1 1 1 1 1 1 
1 1 1 1 1 1 1 1 1 
1 1 1 1 1 1 1 1 1 
1 1 1 1 1 1 1 1 1 
1 1 1 1 1 1 1 1 1 
1 1 1 1 1 1 1 1 1 
1 1 1 1 1 1 1 1 1 
1 1 1 1 1 1 1 1 1 
1 1 1 1 1 1 1 1 1 
1 1 1 1 1 1 1 1 1 
1 1 1 1 1 1 1 1 1 
1 1 1 1 1 1 1 1 1 
1 1 1 1 1 1 1 1 1 
1 1 1 1 1 1 1 1 1 
1 1 1 1 1 1 1 1 1 
1 1 1 1 1 1 1 1 1 
1 1 1 1 1 1 1 1 1 
1 1 1 1 1 1 1 1 1 
1 1 1 1 1 1 1 1 1 
1 1 1 1 1 1 1 1 1 
1 1 1 1 1 1 1 1 1 
1 1 1 1 1 1 1 1 1 
1 1 1 1 1 1 1 1 1 
1 1 1 1 1 1 1 1 1 
1 1 1 1 1 1 1 1 1 
1 1 1 1 1 1 1 1 1 
1 1 1 1 1 1 1 1 1 
1 1 1 1 1 1 1 1 1 
1 1 1 1 1 1 1 1 1 
1 1 1 1 1 1 1 1 1 
1 1 1 1 1 1 1 1 1 
1 1 1 1 1 1 1 1 1 
1 1 1 1 1 1 1 1 1 
1 1 1 1 1 1 1 1 1 
1 1 1 1 1 1 1 1 1 
1 1 1 1 1 1 1 1 1 
1 1 1 1 1 1 1 1 1 
1 1 1 1 1 1 1 1 1 
1 1 1 1 1 1 1 1 1 
1 1 1 1 1 1 1 1 1 
1 1 1 1 1 1 1 1 1 
1 1 1 1 1 1 1 1 1 
1 1 1 1 1 1 1 1 1 
1 1 1 1 1 1 1 1 1 
1 1 1 1 1 1 1 1 1 
1 1 1 1 1 1 1 1 1 
1 1 1 1 1 1 1 1 1 
1 1 1 1 1 1 1 1 1 
1 1 1 1 1 1 1 1 1 
1 1 1 1 1 1 1 1 1 
1 1 1 1 1 1 1 1 1 
1 1 1 1 1 1 1 1 1 
1 1 1 1 1 1 1 1 1 
1 1 1 1 1 1 1 1 1 
1 1 1 1 1 1 1 1 1 
1 1 1 1 1 1 1 1 1 
1 1 1 1 1 1 1 1 1 
1 1 1 1 1 1 1 1 1 
1 1 1 1 1 1 1 1 1 
1 1 1 1 1 1 1 1 1 
1 1 1 1 1 1 1 1 1 
1 1 1 1 1 1 1 1 1 
1 1 1 1 1 1 1 1 1 
1 1 1 1 1 1 1 1 1 
1 1 1 1 1 1 1 1 1 
1 1 1 1 1 1 1 1 1 
1 1 1 1 1 1 1 1 1 
1 1 1 1 1 1 1 1 1 
1 1 1 1 1 1 1 1 1 
1 1 1 1 1 1 1 1 1 
1 1 1 1 1 1 1 1 1 
1 1 1 1 1 1 1 1 1 
1 1 1 1 1 1 1 1 1 
1 1 1 1 1 1 1 1 1 
1 1 1 1 1 1 1 1 1 
1 1 1 1 1 1 1 1 1 
1 1 1 1 1 1 1 1 1 
1 1 1 1 1 1 1 1 1 
1 1 1 1 1 1 1 1 1 
1 1 1 1 1 1 1 1 1 
1 1 1 1 1 1 1 1 1 
1 1 1 1 1 1 1 1 1 
1 1 1 1 1 1 1 1 1 
1 1 1 1 1 1 1 1 1 
1 1 1 1 1 1 1 1 1 
1 1 1 1 1 1 1 1 1 
1 1 1 1 1 1 1 1 1 
1 1 1 1 1 1 1 1 1 
1 1 1 1 1 1 1 1 1 
1 1 1 1 1 1 1 1 1 
1 1 1 1 1 1 1 1 1 
1 1 1 1 1 1 1 1 1 
1 1 1 1 1 1 1 1 1 
1 1 1 1 1 1 1 1 1 
1 1 1 1 1 1 1 1 1 
1 1 1 1 1 1 1 1 1 
1 1 1 1 1 1 1 1 1 
1 1 1 1 1 1 1 1 1 
1 1 1 1 1 1 1 1 1 
1 1 1 1 1 1 1 1 1 
1 1 1 1 1 1 1 1 1 
1 1 1 1 1 1 1 1 1 
1 1 1 1 1 1 1 1 1 
1 1 1 1 1 1 1 1 1 
1 1 1 1 1 1 1 1 1 
1 1 1 1 1 1 1 1 1 
1 1 1 1 1 1 1 1 1 
1 1 1 1 1 1 1 1 1 
1 1 1 1 1 1 1 1 1 
1 1 1 1 1 1 1 1 1 
1 1 1 1 1 1 1 1 1 
1 1 1 1 1 1 1 1 1 
1 1 1 1 1 1 1 1 1 
1 1 1 1 1 1 1 1 1 
1 1 1 1 1 1 1 1 1 
1 1 1 1 1 1 1 1 1 
1 1 1 1 1 1 1 1 1 
1 1 1 1 1 1 1 1 1 
1 1 1 1 1 1 1 1 1 
1 1 1 1 1 1 1 1 1 
1 1 1 1 1 1 1 1 1 
1 1 1 1 1 1 1 1 1 
1 1 1 1 1 1 1 1 1 
1 1 1 1 1 1 1 1 1 
1 1 1 1 1 1 1 1 1 
1 1 1 1 1 1 1 1 1 
1 1 1 1 1 1 1 1 1 
1 1 1 1 1 1 1 1 1 
1 1 1 1 1 1 1 1 1 
1 1 1 1 1 1 1 1 1 
1 1 1 1 1 1 1 1 1 
1 1 1 1 1 1 1 1 1 
1 1 1 1 1 1 1 1 1 
1 1 1 1 1 1 1 1 1 
1 1 1 1 1 1 1 1 1 
1 1 1 1 1 1 1 1 1 
1 1 1 1 1 1 1 1 1 
1 1 1 1 1 1 1 1 1 
1 1 1 1 1 1 1 1 1 
1 1 1 1 1 1 1 1 1 
1 1 1 1 1 1 1 1 1 
1 1 1 1 1 1 1 1 1 
1 1 1 1 1 1 1 1 1 
1 1 1 1 1 1 1 1 1 
1 1 1 1 1 1 1 1 1 
1 1 1 1 1 1 1 1 1 
1 1 1 1 1 1 1 1 1 
1 1 1 1 1 1 1 1 1 
1 1 1 1 1 1 1 1 1 
1 1 1 1 1 1 1 1 1 
1 1 1 1 1 1 1 1 1 
1 1 
i 3 2000 int
0 0 0 0 0 0 0 0 0 
0 0 0 0 0 0 0 0 0 
0 0 0 0 0 0 0 0 0 
0 0 0 0 0 0 0 0 0 
0 0 0 0 0 0 0 0 0 
0 0 0 0 0 0 0 0 0 
0 0 0 0 0 0 0 0 0 
0 0 0 0 0 0 0 0 0 
0 0 0 0 0 0 0 0 0 
0 0 0 0 0 0 0 0 0 
0 0 0 0 0 0 0 0 0 
0 0 0 0 0 0 0 0 0 
0 0 0 0 0 0 0 0 0 
0 0 0 0 0 0 0 0 0 
0 0 0 0 0 0 0 0 0 
0 0 0 0 0 0 0 0 0 
0 0 0 0 0 0 0 0 0 
0 0 0 0 0 0 0 0 0 
0 0 0 0 0 0 0 0 0 
0 0 0 0 0 0 0 0 0 
0 0 0 0 0 0 0 0 0 
0 0 0 0 0 0 0 0 0 
0 0 0 0 0 0 0 0 0 
0 0 0 0 0 0 0 0 0 
1 0 0 0 0 0 0 0 0 
0 0 0 0 0 0 0 0 0 
0 0 0 0 0 0 0 0 0 
0 0 0 0 0 0 0 0 0 
0 0 0 0 0 0 0 0 0 
0 0 0 0 0 0 0 0 0 
0 0 0 0 0 0 0 0 0 
0 0 0 0 0 0 0 0 0 
0 0 0 0 0 0 1 0 0 
0 0 0 0 0 0 0 0 0 
0 0 0 0 0 0 0 0 0 
0 0 0 0 0 0 0 0 0 
0 0 0 0 0 0 0 0 0 
0 0 0 0 0 0 0 0 0 
0 0 0 0 0 0 0 0 0 
0 0 0 0 0 0 0 0 0 
0 0 0 0 0 0 0 0 0 
0 0 0 0 0 0 0 0 0 
0 0 0 0 0 0 0 -1 0 
0 0 0 0 0 0 0 0 0 
0 0 0 0 0 0 0 -1 0 
0 0 0 0 0 0 0 -1 0 
0 0 0 0 0 0 0 0 0 
0 0 0 0 0 0 0 0 0 
0 0 0 0 0 0 0 0 0 
0 0 0 0 0 0 0 0 0 
0 0 0 0 0 0 0 0 0 
0 0 0 0 0 0 0 0 0 
0 0 0 0 0 0 0 0 0 
0 0 0 0 0 0 0 0 0 
0 0 0 0 0 0 0 0 0 
0 0 0 0 0 0 0 0 0 
0 0 0 0 0 0 0 0 0 
0 0 0 0 0 0 0 0 0 
0 0 0 0 0 0 0 0 0 
0 0 0 0 0 0 0 0 0 
0 0 0 0 0 0 0 0 0 
0 0 0 0 0 0 0 0 0 
0 0 0 0 0 0 0 0 0 
0 0 0 0 0 0 0 0 0 
0 0 0 0 0 0 0 0 0 
0 0 0 0 0 0 0 0 0 
0 0 0 0 0 0 0 0 0 
0 0 0 0 0 0 0 0 0 
0 0 0 0 0 0 0 0 0 
0 0 0 0 0 0 0 0 0 
0 0 0 0 0 0 0 0 0 
1 0 0 0 0 0 0 0 0 
0 0 0 0 0 0 0 0 0 
0 0 0 0 0 0 0 0 0 
0 0 0 0 0 0 0 0 0 
0 0 0 0 0 0 1 0 0 
1 0 0 0 0 0 0 0 0 
0 0 0 0 0 0 0 0 0 
0 0 0 0 0 0 0 0 0 
0 0 0 0 0 0 0 0 0 
0 0 0 0 0 0 0 0 0 
0 0 0 0 0 0 0 0 0 
0 0 0 0 0 0 0 0 0 
0 0 0 0 0 0 0 0 0 
0 0 0 0 0 0 0 0 0 
0 0 0 0 0 0 0 0 0 
0 0 0 0 0 0 0 0 0 
0 0 0 0 0 0 0 0 0 
0 0 0 0 0 0 0 0 0 
0 0 0 0 0 0 0 0 0 
0 0 0 0 0 0 0 0 0 
0 0 0 0 0 0 0 0 0 
0 0 0 0 0 0 0 0 0 
0 0 0 0 0 0 0 0 0 
0 0 0 0 0 0 0 0 0 
0 0 0 0 0 0 0 0 0 
0 0 0 0 0 0 0 0 0 
0 0 0 0 0 0 0 0 0 
0 0 0 0 0 0 0 0 0 
0 0 0 0 0 0 0 0 0 
0 0 0 0 0 0 0 0 0 
0 0 0 0 0 0 0 0 0 
0 0 0 0 0 0 0 0 0 
0 0 0 0 0 0 0 -1 0 
0 0 0 0 0 0 0 0 0 
0 0 0 0 0 0 0 -1 0 
0 0 0 0 0 0 0 0 0 
0 0 0 0 0 0 0 -1 0 
0 0 0 0 -1 0 0 0 0 
0 -1 0 0 0 0 0 0 0 
0 0 0 0 0 0 0 0 0 
0 0 0 0 0 0 0 0 0 
0 0 0 0 0 0 0 0 0 
0 0 0 0 0 0 0 0 0 
0 0 0 0 0 0 0 0 0 
0 0 0 0 0 0 0 0 0 
0 0 0 0 0 0 0 0 0 
0 0 0 0 0 0 0 0 0 
0 0 0 0 0 0 0 0 0 
0 0 0 0 0 0 0 0 0 
0 0 0 0 0 0 0 0 0 
0 0 0 0 0 0 0 0 0 
0 0 0 0 0 0 0 0 0 
0 0 0 0 0 0 0 0 0 
0 0 0 0 0 0 0 0 0 
0 0 0 0 0 0 0 0 0 
0 0 0 0 0 0 0 0 0 
0 0 0 0 0 0 0 0 0 
0 0 0 0 0 0 0 0 0 
-1 0 0 0 0 0 0 0 0 
0 0 0 0 0 0 0 0 0 
0 0 0 0 0 0 0 0 0 
0 0 0 0 0 0 0 0 0 
0 0 0 0 0 0 0 0 0 
0 0 0 0 0 0 0 0 0 
0 0 0 0 0 0 0 0 0 
0 0 0 -1 0 0 0 0 0 
0 0 0 0 0 0 0 0 0 
0 0 0 0 0 0 0 0 0 
0 0 0 0 0 0 0 0 0 
0 0 0 0 0 0 0 0 0 
0 0 0 0 0 0 0 0 0 
0 0 0 0 0 0 0 0 0 
0 0 0 0 0 0 0 0 0 
0 0 0 0 0 0 0 0 0 
0 0 0 0 0 0 0 0 0 
0 0 0 0 0 0 0 0 0 
0 0 0 0 0 0 0 0 0 
0 0 0 0 0 0 0 0 0 
0 0 0 0 0 0 0 0 0 
0 0 0 0 0 0 0 0 0 
0 0 0 0 0 0 0 0 0 
0 0 0 0 0 0 0 0 0 
0 0 0 0 0 0 0 0 0 
0 0 0 0 0 0 0 0 0 
0 0 0 0 0 0 0 0 0 
0 0 0 0 0 0 0 0 0 
0 0 0 0 0 0 0 0 0 
0 0 0 0 0 0 0 0 0 
0 0 0 0 0 0 0 0 0 
0 0 0 0 0 0 0 0 0 
0 0 0 0 0 0 0 0 0 
0 0 0 -1 0 0 0 0 0 
0 0 0 0 0 0 0 0 0 
0 0 0 0 0 0 0 0 0 
0 0 0 0 0 0 0 0 0 
0 0 0 0 0 0 0 0 0 
0 0 0 0 0 0 0 0 0 
0 0 0 0 0 0 0 0 0 
0 0 0 0 0 0 0 0 0 
0 0 0 0 0 0 0 0 0 
0 0 0 0 0 0 0 0 0 
0 0 0 0 0 0 0 0 0 
0 0 0 0 0 0 0 0 0 
0 0 0 0 0 0 0 0 0 
0 0 0 0 0 0 0 0 0 
0 0 0 0 0 0 0 0 0 
0 0 0 0 0 0 0 0 0 
0 0 0 0 0 0 0 0 0 
0 0 0 0 0 0 0 0 0 
0 0 0 0 0 0 0 0 0 
0 0 0 0 0 0 0 0 0 
0 -1 0 0 0 0 0 0 0 
0 0 0 0 0 0 0 0 0 
0 0 0 0 0 0 0 0 0 
0 0 0 0 0 0 0 0 0 
0 0 0 0 0 0 0 0 0 
0 0 0 0 0 0 0 0 0 
0 0 0 0 0 0 0 1 0 
0 0 0 0 0 0 0 0 0 
0 0 0 0 0 0 0 0 0 
0 0 0 0 0 0 0 0 0 
0 0 0 0 0 0 0 0 0 
0 0 0 0 0 0 0 0 0 
0 0 0 0 0 0 0 0 0 
0 0 0 0 0 0 0 0 0 
0 0 0 0 0 0 0 0 0 
0 0 0 0 0 0 0 0 0 
0 0 0 0 0 0 0 0 0 
1 0 0 0 0 0 0 0 0 
0 0 0 0 0 0 0 0 0 
0 0 0 0 0 0 0 0 0 
0 0 0 0 0 0 0 0 0 
0 0 0 0 0 0 0 0 0 
0 0 0 0 0 0 0 0 0 
0 0 0 0 0 0 0 0 0 
0 0 0 0 0 0 0 0 0 
0 0 0 0 0 0 0 0 0 
0 0 0 0 0 0 0 0 0 
0 0 0 0 0 0 0 0 0 
0 0 0 0 0 0 0 0 0 
0 0 0 0 0 0 0 0 0 
0 0 0 0 0 0 0 0 0 
0 0 0 0 0 0 0 0 0 
0 0 0 0 0 0 0 0 0 
0 0 0 0 0 0 0 0 0 
0 0 0 0 0 0 0 0 0 
0 0 0 0 0 0 0 0 0 
0 0 0 0 0 0 0 0 0 
0 0 0 0 0 0 0 0 0 
0 0 0 0 0 0 0 0 0 
0 0 0 0 0 0 0 0 0 
0 0 0 0 0 0 0 0 0 
0 0 0 0 0 0 0 0 0 
0 0 0 0 0 0 0 0 0 
0 0 0 0 0 0 0 0 0 
0 0 0 0 0 0 0 0 0 
0 0 0 0 0 0 0 0 0 
0 0 0 0 0 0 0 0 0 
0 0 0 0 0 0 0 0 0 
0 0 0 0 0 0 0 0 0 
0 0 0 0 0 0 0 0 0 
0 0 0 0 0 0 0 0 0 
0 0 0 0 0 0 0 0 0 
0 0 0 0 0 0 0 0 0 
0 0 0 0 0 0 0 -1 0 
0 0 0 0 0 0 0 0 0 
0 0 0 0 0 0 0 0 0 
0 0 0 0 0 0 0 0 0 
0 0 0 0 0 0 0 0 0 
0 0 0 0 0 0 0 0 0 
0 0 0 0 0 0 0 0 0 
0 0 0 0 -1 0 0 0 0 
0 0 0 0 0 0 0 0 0 
0 0 0 0 0 0 0 0 0 
0 -1 0 0 0 0 0 0 0 
0 0 0 0 0 0 0 0 0 
0 0 0 0 1 0 0 0 0 
0 0 0 0 0 0 0 0 0 
0 1 0 0 1 0 0 0 0 
0 0 0 0 0 0 0 1 0 
0 0 0 0 0 0 0 0 0 
0 0 0 0 0 0 0 0 0 
0 0 0 0 0 0 0 0 0 
0 0 0 0 0 0 0 0 0 
0 0 0 0 0 0 0 0 0 
0 0 0 0 0 0 0 0 0 
0 0 0 0 0 0 0 0 0 
0 0 0 0 0 0 0 0 0 
0 0 0 0 0 0 0 0 0 
0 0 0 0 0 0 0 0 0 
0 0 0 0 0 0 0 0 0 
0 0 0 0 0 0 0 0 0 
0 0 0 0 0 0 0 0 0 
0 0 0 0 0 0 0 0 0 
0 0 0 0 0 0 0 0 0 
0 0 0 0 0 0 0 0 0 
0 0 0 0 0 0 0 0 0 
0 0 0 0 0 0 0 0 0 
0 0 0 0 0 0 0 0 0 
0 0 0 0 0 0 0 0 0 
0 0 0 0 0 0 0 0 0 
0 0 0 0 0 0 0 0 0 
0 0 0 0 0 0 0 0 0 
0 0 0 0 0 0 0 0 0 
0 0 0 0 0 0 0 0 0 
0 0 0 0 0 0 0 0 0 
0 0 0 0 0 0 0 0 0 
0 0 0 0 0 0 0 0 0 
0 0 0 0 0 0 0 0 0 
0 0 0 0 0 0 0 0 0 
0 0 0 0 0 0 0 0 0 
0 0 0 0 0 0 0 0 0 
0 0 0 0 0 0 0 0 0 
0 0 0 0 0 0 0 0 0 
1 0 0 0 0 0 0 0 0 
0 0 0 0 0 0 0 0 0 
0 0 0 0 0 0 0 0 0 
0 0 0 0 0 0 0 0 0 
1 0 0 0 0 0 0 0 0 
0 0 0 0 0 0 0 0 0 
0 0 0 0 0 0 0 0 0 
0 0 0 0 0 0 0 0 0 
0 0 0 0 0 0 0 0 0 
0 0 0 0 0 0 0 0 0 
0 0 0 0 0 0 0 0 0 
0 0 0 0 0 0 0 0 0 
0 0 0 0 0 0 0 0 0 
0 0 0 0 0 0 0 0 0 
0 0 0 0 0 0 0 0 0 
0 0 0 0 0 0 0 0 0 
0 0 0 0 0 0 -1 0 0 
0 0 0 0 0 0 0 0 0 
0 0 0 0 0 0 0 1 0 
0 1 0 0 0 0 0 0 0 
0 1 0 0 1 0 0 0 0 
0 0 0 0 0 0 0 0 0 
0 1 0 0 0 0 0 0 0 
0 0 0 0 0 0 0 0 0 
0 0 0 0 0 0 0 0 0 
0 0 0 0 0 0 0 0 0 
0 0 0 0 0 0 0 0 0 
0 0 0 0 0 0 0 0 0 
0 0 0 0 0 0 0 0 0 
0 0 0 0 0 0 0 0 0 
0 0 0 0 0 0 1 0 0 
0 0 0 0 0 0 0 0 0 
0 0 0 0 0 0 0 0 0 
0 0 0 0 0 0 0 0 0 
0 0 0 0 0 0 1 0 0 
0 0 0 0 0 0 0 0 0 
0 0 0 0 0 0 0 0 0 
0 0 0 0 0 0 0 0 0 
0 0 0 0 0 0 0 0 0 
0 0 0 0 0 0 0 0 0 
0 0 0 0 0 0 0 0 0 
0 0 0 0 0 0 0 0 0 
0 0 0 0 0 0 0 0 0 
0 0 0 0 0 0 0 0 0 
0 0 0 0 0 0 0 0 0 
0 0 0 0 0 0 0 0 0 
0 0 0 0 0 0 0 0 0 
0 0 0 0 0 0 0 0 0 
0 0 0 0 0 0 0 0 0 
0 0 0 0 0 0 0 0 0 
0 0 0 0 0 0 0 0 0 
0 0 0 -1 0 0 0 0 0 
0 0 0 0 0 0 0 0 0 
0 0 0 0 0 0 0 0 0 
0 0 0 0 0 0 0 0 0 
0 0 0 0 0 0 0 0 0 
0 0 0 0 0 0 0 0 0 
0 0 0 0 0 0 0 0 0 
0 0 0 0 0 0 0 0 0 
0 0 0 0 0 0 0 0 0 