# vtk DataFile Version 4.0
Generated by LIGGGHTS
ASCII
DATASET POLYDATA
POINTS 2000 float
-125.768 -124.111 9.91837 -112.032 -139.641 9.91896 -92.5669 -135.217 9.91877 
-106.125 -120.575 9.91849 -85.0007 -113.083 9.91856 -58.9465 -128.275 9.91726 
-39.0755 -130.143 9.91835 -19.2826 -127.583 9.91745 -45.514 -111.25 9.91877 
13.1729 -138.36 9.91851 4.682 -121.548 16.5187 29.3525 -126.673 9.91877 
96.3567 -123.313 9.91709 95.8301 -140.827 19.4733 115.237 -133.354 9.91777 
135.041 -130.802 9.91877 121.929 -114.558 9.91877 -137.815 -108.199 9.92062 
-129.078 -90.2523 9.91823 -118.822 -106.338 15.7746 -100.608 -100.643 9.92052 
-101.333 -80.697 9.91133 -55.382 -92.1173 9.91928 -65.387 -109.386 9.91845 
-31.786 -96.7598 9.92067 6.20769 -102.772 9.91986 -10.9587 -92.5905 9.91838 
21.9092 -90.4504 9.91889 33.835 -106.455 9.9187 39.4774 -80.9794 9.91976 
51.4049 -96.9857 9.91936 71.2275 -94.6533 9.91866 59.2976 -78.6529 9.91877 
88.4996 -104.655 9.9193 94.4578 -85.6038 9.92283 107.976 -100.287 9.91877 
128.586 -95.75 9.91377 113.927 -81.2347 9.91291 -135.495 -60.1082 9.91598 
-118.58 -70.6782 9.91874 -117.873 -50.7309 9.91799 -100.608 -60.7492 9.91997 
-80.7198 -62.4604 9.91932 -57.9111 -72.3204 9.91845 -38.7978 -78.07 9.91877 
-19.1798 -74.404 9.9103 -32.1632 -59.2427 9.91918 -8.01536 -57.8676 9.917 
0.725058 -75.8126 9.91699 36.0923 -57.3295 9.91528 18.2436 -66.2553 9.91874 
56.0124 -56.1684 9.91752 77.5597 -53.5905 9.9215 78.5824 -73.5181 9.91954 
137.316 -77.8143 9.91874 126.561 -61.0048 9.91877 -128.618 -33.9119 9.91827 
-111.587 -17.3117 18.9531 -89.1814 -44.3858 9.92015 -85.1222 -24.8493 9.91735 
-106.446 -34.3603 9.92011 -30.5253 -24.6809 9.91864 -23.8752 -42.3133 16.4946 
-12.1544 -16.8801 9.90768 45.0492 -39.4916 9.91843 92.1455 -39.974 9.91371 
108.931 -22.5932 9.922 89.7479 -17.0982 9.9176 111.966 -42.3207 9.91904 
135.769 -43.3003 9.90781 127.021 -26.9172 17.1633 -129.066 -13.9577 9.91877 
-131.241 9.77723 9.91837 -106.789 6.0696 9.91951 -90.6539 -5.67705 9.91771 
-65.6012 -7.0044 9.91776 -45.5356 6.98797 17.3154 -45.5568 -11.55 9.91875 
-14.8561 4.9386 9.92247 1.68552 -2.075 18.6092 35.9104 12.1158 9.91822 
27.606 -6.53846 9.91878 104.096 -3.2237 9.91966 123.28 -8.71915 9.91174 
-116.667 23.4138 9.91828 -107.539 38.091 19.9002 -45.8732 30.058 9.91654 
-30.3109 17.5647 9.91877 -29.3431 41.2305 9.91562 32.5875 31.793 9.91777 
70.6655 20.0396 9.91654 77.7467 38.6944 9.91424 51.2928 24.8377 9.91877 
56.0838 44.2158 9.92085 90.3665 23.2316 9.91846 97.3087 42.6187 9.91686 
-120.451 49.5625 9.91808 -131.331 66.2844 9.91141 -140.309 47.5642 9.91848 
-94.0964 48.9669 9.92003 -99.7503 68.1098 9.91877 -56.4411 46.9911 9.91815 
-77.2725 75.1884 9.91705 -74.9256 54.5012 10.5591 -59.1833 66.7586 9.91882 
2.18171 63.9 9.91877 26.6031 50.8298 9.91673 27.6443 71.1027 9.91872 
44.1645 60.1003 11.9513 63.8568 62.598 9.9189 100.011 67.6185 9.91877 
84.563 55.4236 18.4035 80.8235 73.0986 9.91922 114.065 53.4542 9.91749 
130.813 64.2975 9.91769 -116.238 79.3596 9.92053 -135.1 85.8709 9.90976 
-94.8065 87.4478 9.91476 -21.8223 103.787 9.91075 13.3994 85.0738 9.91877 
-4.53196 93.8255 9.91553 5.05694 109.101 18.4494 22.0653 103.051 9.92123 
104.978 86.9469 9.91877 85.7905 92.4251 9.92017 98.7809 107.58 9.92017 
117.975 102.091 9.91893 124.59 83.2582 9.91744 -131.604 138.434 9.92006 
-88.7709 127.192 9.9156 -73.6979 140.278 9.91896 -54.6766 134.232 9.91647 
-37.0619 116.669 9.91612 -28.7151 134.796 9.9215 -6.30019 139.26 9.915 
-9.62706 119.583 9.91834 15.494 123.818 9.91844 39.1526 137.94 9.91622 
34.7249 118.479 9.91738 61.5266 121.758 9.91877 78.0026 110.68 11.966 
82.3029 130.052 9.91305 134.645 114.221 9.91509 127.346 132.787 9.91846 
112.839 120.438 15.8616 -116.863 -128.797 27.154 -136.099 -133.267 30.0481 
-128.185 -113.107 32.0491 -120.252 -122.719 47.6384 -133.581 -137.471 49.3964 
-100.403 -131.215 38.178 -85.8693 -123.144 27.1345 -81.3611 -136.081 41.6484 
-103.548 -113.996 28.586 -66.0133 -121.127 27.1558 -49.4658 -134.057 26.503 
-61.3218 -130.868 43.9289 -53.2087 -112.71 39.9448 -0.501327 -136.953 28.1068 
9.27866 -128.835 48.1248 17.5704 -128.706 29.9729 33.5229 -140.626 28.7504 
32.2987 -115.488 32.5601 33.9577 -132.649 47.0357 64.8267 -125.614 24.7971 
97.9438 -129.01 35.4137 88.9074 -113.726 47.1553 108.71 -114.9 44.9206 
106.413 -114.456 24.7046 135.342 -116.941 25.5388 119.7 -126.712 33.1718 
128.44 -112.144 43.6464 -112.398 -89.5182 24.3878 -138.288 -96.8664 26.3436 
-79.2258 -89.84 35.3609 -18.4348 -109.301 39.6801 -44.4635 -86.7143 33.9414 
5.36992 -88.8998 24.2497 15.2417 -104.593 31.6385 -1.06651 -79.0747 42.0376 
17.3034 -86.6264 40.0858 32.8158 -96.3051 27.0739 28.0752 -102.064 46.7128 
94.8622 -96.4253 28.864 91.1307 -93.9209 48.3107 109.964 -95.2174 41.8587 
121.959 -102.276 27.5621 125.631 -83.4346 45.5743 126.094 -82.8467 25.6385 
-130.579 -77.4494 25.1563 -117.839 -62.3593 28.0464 -110.145 -59.2869 46.205 
-92.3947 -57.5263 37.2486 -104.64 -47.798 24.5664 -76.2752 -57.8103 49.0141 
-27.7482 -77.8763 27.5809 -20.0312 -59.5629 25.7632 8.20188 -69.3706 27.2629 
-5.75249 -59.8175 39.7018 13.0467 -63.054 45.5644 26.1718 -77.645 24.6238 
33.257 -64.0485 37.4029 45.654 -48.7135 28.6404 37.8798 -47.1457 46.9564 
46.6887 -67.8705 23.1352 66.759 -65.5359 23.8761 66.3035 -52.5844 40.0955 
99.5208 -62.4606 35.6185 133.795 -64.791 29.2188 133.751 -65.5581 49.1612 
-124.688 -46.086 42.6538 -133.303 -46.8664 24.6788 -118.526 -33.8179 27.7667 
-137.405 -27.4299 26.6242 -123.436 -15.857 34.9538 -57.7757 -40.7076 24.8 
-24.8524 -41.9932 36.4311 13.763 -34.9606 24.8009 -9.73993 -42.8596 49.4399 
38.5853 -25.9792 47.692 65.4395 -43.6437 22.2717 55.0622 -37.0747 45.708 
98.1916 -29.0465 25.4711 88.1159 -30.1918 42.6665 129.191 -45.3852 28.6288 
-120.198 0.125605 23.4554 -114.135 0.129081 42.4769 -140.79 -6.29468 26.0261 
-136.941 3.78551 42.8172 -100.719 -2.55732 26.8659 -100.121 12.9047 48.7319 
-78.4538 -12.5465 24.1454 -69.1962 -12.4123 41.826 -56.6581 -5.90712 27.7258 
-53.2533 11.1499 48.1259 -24.4494 -7.37697 41.189 9.29808 0.591313 36.8635 
27.4177 5.25836 26.6286 28.4377 -8.00699 41.5066 23.8117 11.413 45.2702 
59.0944 -9.37579 24.7968 88.923 7.77357 30.891 82.018 1.8529 48.6558 
-126.989 34.1295 23.2217 -110.971 17.2223 28.0166 -127.784 20.8975 38.1432 
-105.999 30.6996 41.8647 -76.5961 22.6368 24.7981 -48.5892 43.1866 28.5721 
-41.9095 24.3786 28.6356 0.97922 32.3079 24.7988 33.7917 23.1966 32.624 
43.2057 40.1362 24.6136 74.6 21.5942 29.4208 68.2219 46.5056 25.6054 
86.9839 20.9644 45.7463 86.3179 39.6339 30.482 121.977 22.8519 24.8013 
136.586 45.0326 47.5042 -116.664 63.9697 41.5296 -85.343 49.0956 45.8739 
-85.7032 56.2862 27.2642 -82.0328 68.501 42.6269 -88.482 77.8331 26.2134 
-62.3317 49.0487 42.6892 -62.7279 70.4035 29.2195 -52.5053 65.3495 48.7105 
-28.1519 72.8186 24.7934 4.61079 65.6546 34.5915 -7.36562 57.0404 48.0296 
27.6811 47.3621 41.5668 22.2089 59.9695 27.1002 40.9687 65.0877 44.7325 
21.1638 67.364 45.6104 51.9851 57.2059 30.0805 72.9707 64.9488 31.5691 
65.2739 67.9093 49.7475 102.054 51.4595 27.1662 90.9348 75.0791 27.0144 
88.4782 56.5299 40.8842 106.098 72.5216 39.7405 134.595 55.3343 27.3441 
117.857 65.9495 25.0127 122.439 58.3347 42.8868 137.366 76.2024 24.5315 
132.774 76.4248 43.948 -135.526 92.8161 47.3002 -93.3634 89.9907 41.2649 
-66.3886 104.87 24.7973 -50.3219 85.1948 48.796 -37.8254 100.111 44.3501 
-31.6104 107.521 26.8899 2.21526 89.7565 28.2537 -12.0179 103.714 27.2879 
-8.47591 93.8066 44.6138 7.49164 81.8988 45.8264 2.63604 109.573 39.4987 
18.4685 101.053 30.8395 19.2644 79.5111 29.8876 25.2364 92.8177 47.7096 
51.5961 91.7418 24.7962 77.4319 99.6898 46.9369 79.4798 80.3346 42.4916 
86.0946 94.2415 29.7981 134.275 97.2304 20.3646 113.975 105.666 47.5067 
-115.911 110.981 24.7972 -139.516 125.803 45.8631 -88.204 131.786 29.3268 
-98.5067 132.216 46.4114 -90.5377 112.885 48.7457 -67.4253 139.56 28.8537 
-52.7148 132.887 40.5771 -31.5063 140.357 37.8432 -21.8921 124.927 25.8775 
-41.5997 129.731 24.3025 -33.5102 120.867 41.5952 -3.14684 137.635 46.4509 
-2.03709 125.156 27.9435 -13.6532 120.905 43.6067 15.0614 133.81 33.5538 
45.7933 126.193 24.6216 29.4093 117.693 32.2242 47.0767 134.403 45.3503 
62.1988 123.247 35.5928 107.971 140.418 47.2353 78.6901 112.662 31.8154 
89.4612 135.027 37.3621 94.3923 121.652 23.3861 82.5703 120.844 49.6011 
114.173 137.366 26.3462 134.517 125.696 27.5632 126.934 137.589 41.6842 
-140.525 -120.145 56.4649 -133.44 -133.929 69.0384 -137.867 -115.651 75.7274 
-109.885 -137.101 56.8033 -95.109 -117.362 51.5339 -90.3232 -134.781 60.0219 
-75.3482 -119.833 52.868 -71.2779 -140.495 58.2973 -58.3207 -126.082 63.0719 
-76.3378 -126.547 71.6417 -55.4955 -114.112 78.7937 -42.6994 -131.723 51.0569 
-40.1301 -118.26 65.5636 -36.6253 -136.739 72.2349 -20.9333 -140.728 54.7476 
-18.2044 -130.41 76.5853 -4.51405 -132.136 62.1663 6.81431 -115.719 62.9637 
8.10634 -129.446 77.3931 45.0394 -116.886 52.2458 26.0619 -118.19 58.2952 
35.0302 -128.347 73.7831 23.0266 -112.788 77.2644 48.5184 -134.711 60.5247 
62.7265 -117.568 61.4702 68.2194 -136.414 57.849 62.9571 -137.974 77.0329 
86.8379 -133.104 51.4775 103.665 -127.308 60.5075 87.256 -123.471 71.7519 
105.873 -133.55 79.336 122.067 -128.637 52.8985 125.717 -116.177 68.0556 
126.501 -134.107 76.788 -124.015 -89.3629 57.3417 -84.6809 -107.205 65.1878 
-90.8402 -88.4748 68.2851 -64.1505 -106.249 62.2705 -47.7671 -97.6985 54.7156 
-70.9042 -88.815 69.2777 -52.5006 -94.99 73.914 -33.606 -99.8632 69.7098 
10.5908 -97.6845 55.2877 -4.13965 -85.3605 60.7294 15.0007 -78.4296 58.1385 
27.5699 -95.5115 65.5584 41.366 -109.146 70.2764 57.7304 -84.3321 51.9084 
82.5732 -105.582 64.2437 106.048 -87 59.6213 107.46 -107.957 63.5912 
89.8802 -91.0919 75.8637 124.393 -98.9503 58.0656 112.809 -94.158 76.9826 
132.213 -98.2801 79.1869 -127.944 -54.7739 60.3162 -126.815 -62.964 80.0635 
-109.31 -58.9148 66.1439 -93.5844 -65.2519 55.6112 -82.7707 -56.0477 69.6313 
[...]
POINT_DATA 2000
FIELD FieldData 7
id 1 2000 int
244 224 311 293 113 306 121 444 93 
415 89 380 194 73 97 382 171 384 
223 143 82 191 270 442 187 214 158 
46 323 149 414 310 401 228 154 173 
262 297 55 268 363 64 258 245 148 
302 174 231 246 326 153 204 227 239 
71 274 152 103 201 417 78 241 256 
54 352 168 410 225 402 340 233 29 
208 252 349 90 458 351 135 408 34 
159 134 282 328 428 216 107 404 165 
67 264 436 166 94 238 226 456 277 
367 120 329 240 260 290 253 147 421 
379 394 182 450 139 338 76 405 446 
170 63 222 199 119 347 376 190 434 
232 133 318 209 48 455 198 123 276 
35 100 75 242 400 261 146 361 373 
180 230 32 142 280 448 350 422 53 
424 286 427 271 60 202 186 344 441 
235 275 22 294 52 197 341 91 452 
316 70 111 9 2 284 412 254 358 
110 132 80 439 291 88 74 127 285 
314 257 429 287 137 65 43 86 196 
105 289 457 178 325 151 355 296 85 
25 322 403 37 343 117 309 411 10 
337 11 183 308 144 397 288 390 212 
49 353 416 332 39 317 362 181 237 
192 4 419 160 383 360 7 301 51 
138 69 263 330 20 392 87 12 324 
375 266 243 57 249 15 345 3 265 
381 281 213 145 388 321 8 215 99 
377 167 131 399 378 108 320 203 247 
359 269 354 96 77 335 346 251 364 
27 331 445 305 116 304 334 30 425 
162 31 435 18 312 140 372 295 17 
6 33 38 368 36 59 303 81 430 
389 125 356 236 115 163 423 426 279 
255 348 61 79 229 283 66 443 259 
1869 858 1289 406 365 1824 164 1196 431 
1754 1015 307 300 1911 299 1878 112 102 
1590 386 420 339 1019 175 195 248 1720 
185 1432 1941 1859 432 727 1671 5 1033 
1555 156 366 327 1883 184 409 272 385 
371 83 14 109 47 1285 1927 118 708 
862 1786 1564 393 336 1724 220 559 342 
193 23 1860 319 1947 333 981 1609 449 
124 437 218 1649 1726 217 1875 1194 315 
661 1084 745 26 267 250 418 1736 205 
45 370 1164 72 398 114 1369 757 141 
155 937 588 844 1762 19 766 769 1160 
84 391 1511 374 106 206 234 157 1866 
28 219 130 751 68 41 56 1393 1662 
101 357 1449 629 1411 454 1915 1023 1446 
453 62 1570 665 313 1606 207 188 433 
1 577 104 58 597 590 273 1771 16 
24 1403 1118 150 1053 407 172 1683 200 
129 126 278 98 447 44 1658 292 1087 
794 221 177 1957 1421 440 1130 211 189 
1980 1520 128 176 413 21 210 395 1404 
1812 161 1874 709 438 929 1840 169 1089 
1711 1889 92 1370 553 1434 1452 298 1402 
1857 1691 95 387 1900 1095 1721 40 136 
1287 1595 13 179 396 1504 776 1623 42 
369 50 974 1075 481 485 1254 1538 972 
1337 959 1816 1343 1312 549 555 1617 1297 
1897 917 1200 1655 606 909 1944 1386 1029 
542 1178 1842 675 1267 521 1455 1004 658 
1693 1717 1477 884 1734 1413 1541 668 1058 
1798 649 1464 1225 1154 1152 1529 541 1959 
1491 1211 1321 1684 1176 2000 463 1682 762 
920 1731 880 1425 487 659 1844 1679 496 
490 1871 1148 838 1823 1522 1216 798 992 
1544 1368 870 609 1419 1239 1008 1172 1108 
1608 1021 847 1041 867 1742 1804 1465 533 
915 1288 1031 451 1346 651 1395 1835 967 
977 811 1919 1735 1389 1125 1483 587 1473 
1962 1070 759 1195 1038 1168 1408 1701 467 
122 1751 716 1405 1681 1990 894 1410 601 
1604 475 507 1965 1416 1576 1533 846 573 
493 1043 942 1639 1766 1732 1936 1537 1773 
1199 615 1365 1205 681 1457 1532 982 604 
1749 859 956 1725 571 1625 1493 1951 822 
1778 1611 969 1870 1246 1145 560 975 1428 
1966 680 961 819 907 789 1896 1025 955 
898 1420 1175 1263 1904 663 842 913 470 
1161 1776 1111 1910 519 1181 1607 1987 1850 
1078 971 1257 1348 1279 1057 958 1640 1556 
843 1846 1566 1926 1062 1833 1899 569 758 
953 872 1183 462 580 1543 1831 837 1689 
815 893 1002 725 460 1584 628 780 1045 
912 1218 480 1431 1879 784 850 868 476 
1546 1123 1052 1328 1633 860 1470 921 633 
1135 881 682 895 1571 1592 976 1901 647 
534 1230 1587 673 1049 1377 522 1744 1105 
1423 1182 1134 1761 531 729 706 1723 804 
1558 945 472 552 1372 581 1502 1101 1275 
1953 1887 1855 1149 719 1568 1073 1578 793 
465 1838 1499 1458 635 750 471 1048 468 
1463 940 1688 1917 667 631 1613 671 650 
1340 968 1600 1935 1418 1081 1685 925 1890 
1177 1659 1484 1796 1808 1114 1266 1064 1219 
1653 1059 1308 1583 504 1478 1644 1480 1863 
1136 1642 1868 1497 1360 899 1526 1120 854 
1938 943 1272 960 1772 1273 1596 1984 1445 
973 1330 754 595 1829 1826 678 808 514 
1898 1834 1437 1895 1740 1849 538 1206 1918 
1221 998 1066 1690 637 1969 1236 882 735 
1548 1110 1268 523 806 1943 1757 988 489 
1295 1234 1476 1104 1228 1983 756 1466 918 
856 1707 997 1923 1673 572 694 1668 1638 
951 812 1091 625 1619 1097 677 1968 1214 
840 551 1126 1208 1210 1067 994 1490 1979 
1127 1357 730 1667 1259 1333 1939 1774 540 
1937 786 892 693 1124 1818 763 1140 488 
979 596 1536 623 499 1192 900 993 1579 
529 1026 1012 1338 1777 1569 1213 1313 1291 
902 1498 871 941 814 1793 1472 1562 1347 
1942 1401 1044 1494 1339 1621 1274 494 1132 
928 1349 1554 1924 910 1746 1374 720 1083 
1925 1851 1574 1286 1069 1071 1507 1202 582 
803 1706 1077 576 1322 652 539 1056 689 
901 1954 738 1932 1618 1864 630 512 1143 
1080 1055 764 1307 1139 770 1280 1260 1789 
802 1115 810 1442 931 564 536 1209 566 
1950 1224 1631 1893 1527 1885 1422 1189 739 
1794 474 1854 1615 1391 532 554 1989 1158 
1426 611 1634 1506 1424 717 1508 509 1993 
1170 705 1841 558 1601 1847 999 991 1387 
1913 1174 1486 1383 653 1945 1231 1672 1730 
1250 1656 1131 1552 1061 1827 602 1060 497 
1076 1809 704 1171 1865 825 1063 1074 1517 
1582 1107 1670 823 1467 1985 1068 1785 799 
774 1759 692 742 1256 484 768 1451 1819 
1034 1251 527 1801 760 1293 1970 674 1997 
747 1304 1795 618 1096 908 923 1098 1042 
1637 1882 1462 1227 835 1603 736 1106 1712 
1450 1678 876 1474 700 1839 1680 801 516 
746 1371 877 779 1810 922 1510 775 732 
1704 1716 639 785 1314 1573 1122 608 614 
621 1001 1783 1627 1155 1775 1862 1000 1549 
477 1179 1902 1946 1269 1147 1112 524 916 
887 695 1622 483 930 1496 1100 782 1316 
1429 1156 703 1929 1581 1563 620 1788 1353 
765 1780 1560 1471 1624 935 891 1748 607 
1006 1963 1197 744 1233 807 1976 1342 648 
579 1728 1255 662 1646 1861 1713 1769 795 
1364 1050 568 1958 1201 1620 1998 1747 1317 
1090 1813 1252 1180 526 634 1032 1738 1814 
949 1363 492 1905 574 1822 1373 1460 1948 
654 1379 1359 548 1444 1380 503 1676 1955 
1741 926 1054 1492 805 1361 1561 830 1265 
479 1436 1807 1765 1551 836 520 1988 1144 
546 995 1381 1299 715 1577 696 966 500 
1017 1186 1242 603 1591 792 816 1325 1355 
1832 1240 726 1438 510 1037 1977 1443 1128 
656 1247 688 1612 1014 1165 1843 873 1332 
530 627 1666 1858 1459 687 827 610 1710 
1320 1184 1157 924 1700 1516 1515 686 1531 
1884 1550 1119 875 1215 874 1837 1301 657 
1908 1628 1398 724 1745 1427 711 1396 1435 
978 701 1277 1674 1931 1881 679 1836 1281 
914 1514 1309 1750 1982 578 511 1981 1598 
469 748 1973 1585 832 1872 1237 952 1972 
1648 1138 1072 1366 547 824 565 755 1229 
1400 1752 1845 1151 1599 1505 1803 638 1888 
1760 1018 1534 1047 619 1007 684 1519 1453 
749 1559 1358 1825 1652 866 1433 664 586 
1141 1545 1245 550 1344 698 1580 707 1193 
1971 1647 1036 1907 1390 464 800 1928 535 
790 1709 570 965 473 1085 1005 1310 1727 
1553 1086 1495 1503 1244 1099 1643 948 1787 
1294 957 853 482 1876 934 1102 599 1602 
1512 685 525 1167 1030 660 655 864 1912 
1815 933 1226 1743 1412 1523 1999 1616 905 
1173 1967 722 1065 1657 517 1800 641 712 
1805 1282 983 1362 598 1597 1306 583 851 
752 1013 591 1261 515 1485 1686 777 593 
1479 567 1651 1696 1821 1594 1092 1852 1220 
1415 1166 670 1350 962 1392 861 1117 820 
906 1039 1113 1283 1626 970 486 1768 612 
1934 501 1352 1797 826 821 771 1733 831 
761 1922 1440 1914 1518 1376 1708 834 1964 
897 1311 1886 1409 1542 740 1489 478 796 
1318 1488 676 1763 1605 1133 594 1940 1524 
1094 987 1695 1430 1781 839 1996 1324 841 
753 1758 1586 1994 946 1046 645 985 781 
1995 626 1894 1933 1417 989 617 833 1129 
1481 950 857 829 1817 1331 1853 585 556 
787 1190 1806 1153 1767 518 1394 1142 1873 
980 1382 1718 1284 600 1521 624 1203 622 
1513 1292 702 1290 1461 1315 767 1992 1270 
869 1079 772 584 1891 1687 963 1705 1469 
1345 1187 1921 1235 1764 1614 737 1632 1867 
605 562 1916 1082 1629 1547 1675 818 1137 
927 632 1335 879 1880 1698 731 1198 1739 
1020 1892 1278 1475 1022 1692 1016 1276 1241 
1729 644 1326 1024 1121 1645 863 743 984 
561 1722 1856 713 1792 809 1378 1243 506 
1956 1799 1329 498 817 1961 1702 616 1303 
932 1232 845 1217 1341 1447 1146 1677 1588 
1238 1660 1351 669 714 1051 1384 1163 1593 
1191 1535 1641 710 1169 849 939 896 783 
537 1974 1334 1456 1116 1664 543 1906 1697 
944 1828 1264 848 563 1753 1635 885 1782 
1454 1509 1185 954 778 1756 883 1439 575 
791 1367 1530 886 1565 1323 1305 466 508 
728 723 495 1930 741 1575 1298 1212 1500 
1802 1011 1302 640 513 911 1399 545 646 
1223 1356 904 1669 1040 1589 733 1978 505 
683 1258 1159 828 1830 1103 672 1540 1665 
889 878 1035 1909 1249 1699 773 1027 1009 
697 557 718 1448 852 1375 1093 1525 1779 
459 1949 788 690 491 1572 1262 1694 1162 
642 1975 613 1003 964 1468 1407 1661 1385 
1414 1296 1848 528 1501 996 903 1960 1719 
1820 1397 1319 643 1567 666 544 721 1654 
1088 1406 1300 1991 1952 1737 502 1557 865 
592 855 1528 1714 947 1271 1109 1150 589 
1791 1028 1663 1487 1703 936 1354 1388 890 
1636 888 1610 1903 1188 1877 813 1986 990 
1248 1010 1441 1650 938 1790 797 919 1253 
1327 1482 1920 1630 1207 1539 734 1770 1755 
691 1204 699 1336 1715 1222 1784 636 1811 
986 461 
type 1 2000 int
1 1 1 1 1 1 1 1 1 
1 1 1 1 1 1 1 1 1 
1 1 1 1 1 1 1 1 1 
1 1 1 1 1 1 1 1 1 
1 1 1 1 1 1 1 1 1 
1 1 1 1 1 1 1 1 1 
1 1 1 1 1 1 1 1 1 
1 1 1 1 1 1 1 1 1 
1 1 1 1 1 1 1 1 1 
1 1 1 1 1 1 1 1 1 
1 1 1 1 1 1 1 1 1 
1 1 1 1 1 1 1 1 1 
1 1 1 1 1 1 1 1 1 
1 1 1 1 1 1 1 1 1 
1 1 1 1 1 1 1 1 1 
1 1 1 1 1 1 1 1 1 
1 1 1 1 1 1 1 1 1 
1 1 1 1 1 1 1 1 1 
1 1 1 1 1 1 1 1 1 
1 1 1 1 1 1 1 1 1 
1 1 1 1 1 1 1 1 1 
1 1 1 1 1 1 1 1 1 
1 1 1 1 1 1 1 1 1 
1 1 1 1 1 1 1 1 1 
1 1 1 1 1 1 1 1 1 
1 1 1 1 1 1 1 1 1 
1 1 1 1 1 1 1 1 1 
1 1 1 1 1 1 1 1 1 
1 1 1 1 1 1 1 1 1 
1 1 1 1 1 1 1 1 1 
1 1 1 1 1 1 1 1 1 
1 1 1 1 1 1 1 1 1 
1 1 1 1 1 1 1 1 1 
1 1 1 1 1 1 1 1 1 
1 1 1 1 1 1 1 1 1 
1 1 1 1 1 1 1 1 1 
1 1 1 1 1 1 1 1 1 
1 1 1 1 1 1 1 1 1 
1 1 1 1 1 1 1 1 1 
1 1 1 1 1 1 1 1 1 
1 1 1 1 1 1 1 1 1 
1 1 1 1 1 1 1 1 1 
1 1 1 1 1 1 1 1 1 
1 1 1 1 1 1 1 1 1 
1 1 1 1 1 1 1 1 1 
1 1 1 1 1 1 1 1 1 
1 1 1 1 1 1 1 1 1 
1 1 1 1 1 1 1 1 1 
1 1 1 1 1 1 1 1 1 
1 1 1 1 1 1 1 1 1 
1 1 1 1 1 1 1 1 1 
1 1 1 1 1 1 1 1 1 
1 1 1 1 1 1 1 1 1 
1 1 1 1 1 1 1 1 1 
1 1 1 1 1 1 1 1 1 
1 1 1 1 1 1 1 1 1 
1 1 1 1 1 1 1 1 1 
1 1 1 1 1 1 1 1 1 
1 1 1 1 1 1 1 1 1 
1 1 1 1 1 1 1 1 1 
1 1 1 1 1 1 1 1 1 
1 1 1 1 1 1 1 1 1 
1 1 1 1 1 1 1 1 1 
1 1 1 1 1 1 1 1 1 
1 1 1 1 1 1 1 1 1 
1 1 1 1 1 1 1 1 1 
1 1 1 1 1 1 1 1 1 
1 1 1 1 1 1 1 1 1 
1 1 1 1 1 1 1 1 1 
1 1 1 1 1 1 1 1 1 
1 1 1 1 1 1 1 1 1 
1 1 1 1 1 1 1 1 1 
1 1 1 1 1 1 1 1 1 
1 1 1 1 1 1 1 1 1 
1 1 1 1 1 1 1 1 1 
1 1 1 1 1 1 1 1 1 
1 1 1 1 1 1 1 1 1 
1 1 1 1 1 1 1 1 1 
1 1 1 1 1 1 1 1 1 
1 1 1 1 1 1 1 1 1 
1 1 1 1 1 1 1 1 1 
1 1 1 1 1 1 1 1 1 
1 1 1 1 1 1 1 1 1 
1 1 1 1 1 1 1 1 1 
1 1 1 1 1 1 1 1 1 
1 1 1 1 1 1 1 1 1 
1 1 1 1 1 1 1 1 1 
1 1 1 1 1 1 1 1 1 
1 1 1 1 1 1 1 1 1 
1 1 1 1 1 1 1 1 1 
1 1 1 1 1 1 1 1 1 
1 1 1 1 1 1 1 1 1 
1 1 1 1 1 1 1 1 1 
1 1 1 1 1 1 1 1 1 
1 1 1 1 1 1 1 1 1 
1 1 1 1 1 1 1 1 1 
1 1 1 1 1 1 1 1 1 
1 1 1 1 1 1 1 1 1 
1 1 1 1 1 1 1 1 1 
1 1 1 1 1 1 1 1 1 
1 1 1 1 1 1 1 1 1 
1 1 1 1 1 1 1 1 1 
1 1 1 1 1 1 1 1 1 
1 1 1 1 1 1 1 1 1 
1 1 1 1 1 1 1 1 1 
1 1 1 1 1 1 1 1 1 
1 1 1 1 1 1 1 1 1 
1 1 1 1 1 1 1 1 1 
1 1 1 1 1 1 1 1 1 
1 1 1 1 1 1 1 1 1 
1 1 1 1 1 1 1 1 1 
1 1 1 1 1 1 1 1 1 
1 1 1 1 1 1 1 1 1 
1 1 1 1 1 1 1 1 1 
1 1 1 1 1 1 1 1 1 
1 1 1 1 1 1 1 1 1 
1 1 1 1 1 1 1 1 1 
1 1 1 1 1 1 1 1 1 
1 1 1 1 1 1 1 1 1 
1 1 1 1 1 1 1 1 1 
1 1 1 1 1 1 1 1 1 
1 1 1 1 1 1 1 1 1 
1 1 1 1 1 1 1 1 1 
1 1 1 1 1 1 1 1 1 
1 1 1 1 1 1 1 1 1 
1 1 1 1 1 1 1 1 1 
1 1 1 1 1 1 1 1 1 
1 1 1 1 1 1 1 1 1 
1 1 1 1 1 1 1 1 1 
1 1 1 1 1 1 1 1 1 
1 1 1 1 1 1 1 1 1 
1 1 1 1 1 1 1 1 1 
1 1 1 1 1 1 1 1 1 
1 1 1 1 1 1 1 1 1 
1 1 1 1 1 1 1 1 1 
1 1 1 1 1 1 1 1 1 
1 1 1 1 1 1 1 1 1 
1 1 1 1 1 1 1 1 1 
1 1 1 1 1 1 1 1 1 
1 1 1 1 1 1 1 1 1 
1 1 1 1 1 1 1 1 1 
1 1 1 1 1 1 1 1 1 
1 1 1 1 1 1 1 1 1 
1 1 1 1 1 1 1 1 1 
1 1 1 1 1 1 1 1 1 
1 1 1 1 1 1 1 1 1 
1 1 1 1 1 1 1 1 1 
1 1 1 1 1 1 1 1 1 
1 1 1 1 1 1 1 1 1 
1 1 1 1 1 1 1 1 1 
1 1 1 1 1 1 1 1 1 
1 1 1 1 1 1 1 1 1 
1 1 1 1 1 1 1 1 1 
1 1 1 1 1 1 1 1 1 
1 1 1 1 1 1 1 1 1 
1 1 1 1 1 1 1 1 1 
1 1 1 1 1 1 1 1 1 
1 1 1 1 1 1 1 1 1 
1 1 1 1 1 1 1 1 1 
1 1 1 1 1 1 1 1 1 
1 1 1 1 1 1 1 1 1 
1 1 1 1 1 1 1 1 1 
1 1 1 1 1 1 1 1 1 
1 1 1 1 1 1 1 1 1 
1 1 1 1 1 1 1 1 1 
1 1 1 1 1 1 1 1 1 
1 1 1 1 1 1 1 1 1 
1 1 1 1 1 1 1 1 1 
1 1 1 1 1 1 1 1 1 
1 1 1 1 1 1 1 1 1 
1 1 1 1 1 1 1 1 1 
1 1 1 1 1 1 1 1 1 
1 1 1 1 1 1 1 1 1 
1 1 1 1 1 1 1 1 1 
1 1 1 1 1 1 1 1 1 
1 1 1 1 1 1 1 1 1 
1 1 1 1 1 1 1 1 1 
1 1 1 1 1 1 1 1 1 
1 1 1 1 1 1 1 1 1 
1 1 1 1 1 1 1 1 1 
1 1 1 1 1 1 1 1 1 
1 1 1 1 1 1 1 1 1 
1 1 1 1 1 1 1 1 1 
1 1 1 1 1 1 1 1 1 
1 1 1 1 1 1 1 1 1 
1 1 1 1 1 1 1 1 1 
1 1 1 1 1 1 1 1 1 
1 1 1 1 1 1 1 1 1 
1 1 1 1 1 1 1 1 1 
1 1 1 1 1 1 1 1 1 
1 1 1 1 1 1 1 1 1 
1 1 1 1 1 1 1 1 1 
1 1 1 1 1 1 1 1 1 
1 1 1 1 1 1 1 1 1 
1 1 1 1 1 1 1 1 1 
1 1 1 1 1 1 1 1 1 
1 1 1 1 1 1 1 1 1 
1 1 1 1 1 1 1 1 1 
1 1 1 1 1 1 1 1 1 
1 1 1 1 1 1 1 1 1 
1 1 1 1 1 1 1 1 1 
1 1 1 1 1 1 1 1 1 
1 1 1 1 1 1 1 1 1 
1 1 1 1 1 1 1 1 1 
1 1 1 1 1 1 1 1 1 
1 1 1 1 1 1 1 1 1 
1 1 1 1 1 1 1 1 1 
1 1 1 1 1 1 1 1 1 
1 1 1 1 1 1 1 1 1 
1 1 1 1 1 1 1 1 1 
1 1 1 1 1 1 1 1 1 
1 1 1 1 1 1 1 1 1 
1 1 1 1 1 1 1 1 1 
1 1 1 1 1 1 1 1 1 
1 1 1 1 1 1 1 1 1 
1 1 1 1 1 1 1 1 1 
1 1 1 1 1 1 1 1 1 
1 1 1 1 1 1 1 1 1 
1 1 1 1 1 1 1 1 1 
1 1 1 1 1 1 1 1 1 
1 1 1 1 1 1 1 1 1 
1 1 1 1 1 1 1 1 1 
1 1 
i 3 2000 int
0 0 0 0 0 0 0 0 0 
0 0 0 0 0 0 0 0 0 
0 0 0 0 0 0 0 0 0 
0 0 0 0 0 0 0 0 0 
0 0 0 0 0 0 0 0 0 
0 0 0 0 0 0 0 0 0 
0 0 0 0 0 0 0 0 0 
0 0 0 0 0 0 0 0 0 
0 0 0 0 0 0 0 0 0 
0 0 0 0 0 0 0 0 0 
0 0 0 0 0 0 0 0 0 
0 0 0 0 0 0 0 0 0 
0 0 0 0 0 0 0 0 0 
0 0 0 0 0 0 0 0 0 
0 0 0 0 0 0 0 0 0 
0 0 0 0 0 0 0 0 0 
0 0 0 0 0 0 0 0 0 
0 0 0 0 0 0 0 0 0 
0 0 0 0 0 0 0 0 0 
0 0 0 0 0 0 0 0 0 
0 0 0 0 0 0 0 0 0 
0 0 0 0 0 0 0 0 0 
0 0 0 0 0 0 0 0 0 
0 0 0 0 0 0 0 0 0 
1 0 0 0 0 0 0 0 0 
0 0 0 0 0 0 0 0 0 
0 0 0 0 0 0 0 0 0 
0 0 0 0 0 0 0 0 0 
0 0 0 0 0 0 0 0 0 
0 0 0 0 0 0 0 0 0 
0 0 0 0 0 0 0 0 0 
0 0 0 0 0 0 0 0 0 
0 0 0 0 0 0 1 0 0 
0 0 0 0 0 0 0 0 0 
0 0 0 0 0 0 0 0 0 
0 0 0 0 0 0 0 0 0 
0 0 0 0 0 0 0 0 0 
0 0 0 0 0 0 0 0 0 
0 0 0 0 0 0 0 0 0 
0 0 0 0 0 0 0 0 0 
0 0 0 0 0 0 0 0 0 
0 0 0 0 0 0 0 0 0 
0 0 0 0 0 0 0 -1 0 
0 0 0 0 0 0 0 0 0 
0 0 0 0 0 0 0 -1 0 
0 0 0 0 0 0 0 -1 0 
0 0 0 0 0 0 0 0 0 
0 0 0 0 0 0 0 0 0 
0 0 0 0 0 0 0 0 0 
0 0 0 0 0 0 0 0 0 
0 0 0 0 0 0 0 0 0 
0 0 0 0 0 0 0 0 0 
0 0 0 0 0 0 0 0 0 
0 0 0 0 0 0 0 0 0 
0 0 0 0 0 0 0 0 0 
0 0 0 0 0 0 0 0 0 
0 0 0 0 0 0 0 0 0 
0 0 0 0 0 0 0 0 0 
0 0 0 0 0 0 0 0 0 
0 0 0 0 0 0 0 0 0 
0 0 0 0 0 0 0 0 0 
0 0 0 0 0 0 0 0 0 
0 0 0 0 0 0 0 0 0 
0 0 0 0 0 0 0 0 0 
0 0 0 0 0 0 0 0 0 
0 0 0 0 0 0 0 0 0 
0 0 0 0 0 0 0 0 0 
0 0 0 0 0 0 0 0 0 
0 0 0 0 0 0 0 0 0 
0 0 0 0 0 0 0 0 0 
0 0 0 0 0 0 0 0 0 
1 0 0 0 0 0 0 0 0 
0 0 0 0 0 0 0 0 0 
0 0 0 0 0 0 0 0 0 
0 0 0 0 0 0 0 0 0 
0 0 0 0 0 0 1 0 0 
1 0 0 0 0 0 0 0 0 
0 0 0 0 0 0 0 0 0 
0 0 0 0 0 0 0 0 0 
0 0 0 0 0 0 0 0 0 
0 0 0 0 0 0 0 0 0 
0 0 0 0 0 0 0 0 0 
0 0 0 0 0 0 0 0 0 
0 0 0 0 0 0 0 0 0 
0 0 0 0 0 0 0 0 0 
0 0 0 0 0 0 0 0 0 
0 0 0 0 0 0 0 0 0 
0 0 0 0 0 0 0 0 0 
0 0 0 0 0 0 0 0 0 
0 0 0 0 0 0 0 0 0 
0 0 0 0 0 0 0 0 0 
0 0 0 0 0 0 0 0 0 
0 0 0 0 0 0 0 0 0 
0 0 0 0 0 0 0 0 0 
0 0 0 0 0 0 0 0 0 
0 0 0 0 0 0 0 0 0 
0 0 0 0 0 0 0 0 0 
0 0 0 0 0 0 0 0 0 
0 0 0 0 0 0 0 0 0 
0 0 0 0 0 0 0 0 0 
0 0 0 0 0 0 0 0 0 
0 0 0 0 0 0 0 0 0 
0 0 0 0 0 0 0 0 0 
0 0 0 0 0 0 0 -1 0 
0 0 0 0 0 0 0 0 0 
0 0 0 0 0 0 0 -1 0 
0 0 0 0 0 0 0 0 0 
0 0 0 0 0 0 0 -1 0 
0 0 0 0 -1 0 0 0 0 
0 -1 0 0 0 0 0 0 0 
0 0 0 0 0 0 0 0 0 
0 0 0 0 0 0 0 0 0 
0 0 0 0 0 0 0 0 0 
0 0 0 0 0 0 0 0 0 
0 0 0 0 0 0 0 0 0 
0 0 0 0 0 0 0 0 0 
0 0 0 0 0 0 0 0 0 
0 0 0 0 0 0 0 0 0 
0 0 0 0 0 0 0 0 0 
0 0 0 0 0 0 0 0 0 
0 0 0 0 0 0 0 0 0 
0 0 0 0 0 0 0 0 0 
0 0 0 0 0 0 0 0 0 
0 0 0 0 0 0 0 0 0 
0 0 0 0 0 0 0 0 0 
0 0 0 0 0 0 0 0 0 
0 0 0 0 0 0 0 0 0 
0 0 0 0 0 0 0 0 0 
0 0 0 0 0 0 0 0 0 
-1 0 0 0 0 0 0 0 0 
0 0 0 0 0 0 0 0 0 
0 0 0 0 0 0 0 0 0 
0 0 0 0 0 0 0 0 0 
0 0 0 0 0 0 0 0 0 
0 0 0 0 0 0 0 0 0 
0 0 0 0 0 0 0 0 0 
0 0 0 -1 0 0 0 0 0 
0 0 0 0 0 0 0 0 0 
0 0 0 0 0 0 0 0 0 
0 0 0 0 0 0 0 0 0 
0 0 0 0 0 0 0 0 0 
0 0 0 0 0 0 0 0 0 
0 0 0 0 0 0 0 0 0 
0 0 0 0 0 0 0 0 0 
0 0 0 0 0 0 0 0 0 
0 0 0 0 0 0 0 0 0 
0 0 0 0 0 0 0 0 0 
0 0 0 0 0 0 0 0 0 
0 0 0 0 0 0 0 0 0 
0 0 0 0 0 0 0 0 0 
0 0 0 0 0 0 0 0 0 
0 0 0 0 0 0 0 0 0 
0 0 0 0 0 0 0 0 0 
0 0 0 0 0 0 0 0 0 
0 0 0 0 0 0 0 0 0 
0 0 0 0 0 0 0 0 0 
0 0 0 0 0 0 0 0 0 
0 0 0 0 0 0 0 0 0 
0 0 0 0 0 0 0 0 0 
0 0 0 0 0 0 0 0 0 
0 0 0 0 0 0 0 0 0 
0 0 0 0 0 0 0 0 0 
0 0 0 -1 0 0 0 0 0 
0 0 0 0 0 0 0 0 0 
0 0 0 0 0 0 0 0 0 
0 0 0 0 0 0 0 0 0 
0 0 0 0 0 0 0 0 0 
0 0 0 0 0 0 0 0 0 
0 0 0 0 0 0 0 0 0 
0 0 0 0 0 0 0 0 0 
0 0 0 0 0 0 0 0 0 
0 0 0 0 0 0 0 0 0 
0 0 0 0 0 0 0 0 0 
0 0 0 0 0 0 0 0 0 
0 0 0 0 0 0 0 0 0 
0 0 0 0 0 0 0 0 0 
0 0 0 0 0 0 0 0 0 
0 0 0 0 0 0 0 0 0 
0 0 0 0 0 0 0 0 0 
0 0 0 0 0 0 0 0 0 
0 0 0 0 0 0 0 0 0 
0 0 0 0 0 0 0 0 0 
0 -1 0 0 0 0 0 0 0 
0 0 0 0 0 0 0 0 0 
0 0 0 0 0 0 0 0 0 
0 0 0 0 0 0 0 0 0 
0 0 0 0 0 0 0 0 0 
0 0 0 0 0 0 0 0 0 
0 0 0 0 0 0 0 1 0 
0 0 0 0 0 0 0 0 0 
0 0 0 0 0 0 0 0 0 
0 0 0 0 0 0 0 0 0 
0 0 0 0 0 0 0 0 0 
0 0 0 0 0 0 0 0 0 
0 0 0 0 0 0 0 0 0 
0 0 0 0 0 0 0 0 0 
0 0 0 0 0 0 0 0 0 
0 0 0 0 0 0 0 0 0 
0 0 0 0 0 0 0 0 0 
1 0 0 0 0 0 0 0 0 
0 0 0 0 0 0 0 0 0 
0 0 0 0 0 0 0 0 0 
0 0 0 0 0 0 0 0 0 
0 0 0 0 0 0 0 0 0 
0 0 0 0 0 0 0 0 0 
0 0 0 0 0 0 0 0 0 
0 0 0 0 0 0 0 0 0 
0 0 0 0 0 0 0 0 0 
0 0 0 0 0 0 0 0 0 
0 0 0 0 0 0 0 0 0 
0 0 0 0 0 0 0 0 0 
0 0 0 0 0 0 0 0 0 
0 0 0 0 0 0 0 0 0 
0 0 0 0 0 0 0 0 0 
0 0 0 0 0 0 0 0 0 
0 0 0 0 0 0 0 0 0 
0 0 0 0 0 0 0 0 0 
0 0 0 0 0 0 0 0 0 
0 0 0 0 0 0 0 0 0 
0 0 0 0 0 0 0 0 0 
0 0 0 0 0 0 0 0 0 
0 0 0 0 0 0 0 0 0 
0 0 0 0 0 0 0 0 0 
0 0 0 0 0 0 0 0 0 
0 0 0 0 0 0 0 0 0 
0 0 0 0 0 0 0 0 0 
0 0 0 0 0 0 0 0 0 
0 0 0 0 0 0 0 0 0 
0 0 0 0 0 0 0 0 0 
0 0 0 0 0 0 0 0 0 
0 0 0 0 0 0 0 0 0 
0 0 0 0 0 0 0 0 0 
0 0 0 0 0 0 0 0 0 
0 0 0 0 0 0 0 0 0 
0 0 0 0 0 0 0 0 0 
0 0 0 0 0 0 0 -1 0 
0 0 0 0 0 0 0 0 0 
0 0 0 0 0 0 0 0 0 
0 0 0 0 0 0 0 0 0 
0 0 0 0 0 0 0 0 0 
0 0 0 0 0 0 0 0 0 
0 0 0 0 0 0 0 0 0 
0 0 0 0 -1 0 0 0 0 
0 0 0 0 0 0 0 0 0 
0 0 0 0 0 0 0 0 0 
0 -1 0 0 0 0 0 0 0 
0 0 0 0 0 0 0 0 0 
0 0 0 0 1 0 0 0 0 
0 0 0 0 0 0 0 0 0 
0 1 0 0 1 0 0 0 0 
0 0 0 0 0 0 0 1 0 
0 0 0 0 0 0 0 0 0 
0 0 0 0 0 0 0 0 0 
0 0 0 0 0 0 0 0 0 
0 0 0 0 0 0 0 0 0 
0 0 0 0 0 0 0 0 0 
0 0 0 0 0 0 0 0 0 
0 0 0 0 0 0 0 0 0 
0 0 0 0 0 0 0 0 0 
0 0 0 0 0 0 0 0 0 
0 0 0 0 0 0 0 0 0 
0 0 0 0 0 0 0 0 0 
0 0 0 0 0 0 0 0 0 
0 0 0 0 0 0 0 0 0 
0 0 0 0 0 0 0 0 0 
0 0 0 0 0 0 0 0 0 
0 0 0 0 0 0 0 0 0 
0 0 0 0 0 0 0 0 0 
0 0 0 0 0 0 0 0 0 
0 0 0 0 0 0 0 0 0 
0 0 0 0 0 0 0 0 0 
0 0 0 0 0 0 0 0 0 
0 0 0 0 0 0 0 0 0 
0 0 0 0 0 0 0 0 0 
0 0 0 0 0 0 0 0 0 
0 0 0 0 0 0 0 0 0 
0 0 0 0 0 0 0 0 0 
0 0 0 0 0 0 0 0 0 
0 0 0 0 0 0 0 0 0 
0 0 0 0 0 0 0 0 0 
0 0 0 0 0 0 0 0 0 
0 0 0 0 0 0 0 0 0 
0 0 0 0 0 0 0 0 0 
0 0 0 0 0 0 0 0 0 
0 0 0 0 0 0 0 0 0 
1 0 0 0 0 0 0 0 0 
0 0 0 0 0 0 0 0 0 
0 0 0 0 0 0 0 0 0 
0 0 0 0 0 0 0 0 0 
1 0 0 0 0 0 0 0 0 
0 0 0 0 0 0 0 0 0 
0 0 0 0 0 0 0 0 0 
0 0 0 0 0 0 0 0 0 
0 0 0 0 0 0 0 0 0 
0 0 0 0 0 0 0 0 0 
0 0 0 0 0 0 0 0 0 
0 0 0 0 0 0 0 0 0 
0 0 0 0 0 0 0 0 0 
0 0 0 0 0 0 0 0 0 
0 0 0 0 0 0 0 0 0 
0 0 0 0 0 0 0 0 0 
0 0 0 0 0 0 -1 0 0 
0 0 0 0 0 0 0 0 0 
0 0 0 0 0 0 0 1 0 
0 1 0 0 0 0 0 0 0 
0 1 0 0 1 0 0 0 0 
0 0 0 0 0 0 0 0 0 
0 1 0 0 0 0 0 0 0 
0 0 0 0 0 0 0 0 0 
0 0 0 0 0 0 0 0 0 
0 0 0 0 0 0 0 0 0 
0 0 0 0 0 0 0 0 0 
0 0 0 0 0 0 0 0 0 
0 0 0 0 0 0 0 0 0 
0 0 0 0 0 0 0 0 0 
0 0 0 0 0 0 1 0 0 
0 0 0 0 0 0 0 0 0 
0 0 0 0 0 0 0 0 0 
0 0 0 0 0 0 0 0 0 
0 0 0 0 0 0 1 0 0 
0 0 0 0 0 0 0 0 0 
0 0 0 0 0 0 0 0 0 
0 0 0 0 0 0 0 0 0 
0 0 0 0 0 0 0 0 0 
0 0 0 0 0 0 0 0 0 
0 0 0 0 0 0 0 0 0 
0 0 0 0 0 0 0 0 0 
0 0 0 0 0 0 0 0 0 
0 0 0 0 0 0 0 0 0 
0 0 0 0 0 0 0 0 0 
0 0 0 0 0 0 0 0 0 
0 0 0 0 0 0 0 0 0 
0 0 0 0 0 0 0 0 0 
0 0 0 0 0 0 0 0 0 
0 0 0 0 0 0 0 0 0 
0 0 0 0 0 0 0 0 0 
0 0 0 -1 0 0 0 0 0 
0 0 0 0 0 0 0 0 0 
0 0 0 0 0 0 0 0 0 
0 0 0 0 0 0 0 0 0 
0 0 0 0 0 0 0 0 0 
0 0 0 0 0 0 0 0 0 
0 0 0 0 0 0 0 0 0 
0 0 0 0 0 0 0 0 0 
0 0 0 0 0 0 0 0 0 