# vtk DataFile Version 4.0
Generated by LIGGGHTS
ASCII
DATASET POLYDATA
POINTS 2000 float
-87.6858 -92.6848 9.99353 -95.2818 -113.846 9.99973 -105.98 -131.148 9.99694 
-117.241 -114.623 9.99733 -127.481 -132.971 9.99973 -107.22 -97.2907 9.99973 
-117.094 -126.838 26.0491 -109.75 -108.297 27.5481 -133.073 -115.422 22.1871 
-118.763 -90.6348 24.9489 -92.5849 -118.069 30.6816 -56.5977 -101.555 9.99606 
-30.5289 -123.05 9.99643 -75.8076 -108.774 9.99838 -66.2755 -139.662 10.0001 
-79.3989 -126.607 18.3058 -37.8196 -105.335 15.7285 -60.5914 -120.097 16.3373 
-47.0291 -134.159 12.0595 -58.8637 -140.792 31.0358 -38.5426 -138.844 29.5509 
-33.6126 -86.1922 22.3355 -50.2481 -122.884 33.2237 -2.10682 -104.612 9.99762 
1.54785 -138.93 10.0208 17.7664 -102.376 9.99393 -20.5856 -96.9694 9.99702 
9.78363 -120.709 9.99802 -10.5333 -122.747 9.99467 8.32466 -130.986 27.0907 
20.6087 -91.9553 26.8151 0.775132 -91.0769 24.4294 21.129 -114.116 26.0369 
25.401 -131.268 16.6744 39.2157 -99.111 22.7427 55.4242 -128.037 9.99252 
38.8165 -114.519 9.99946 64.5656 -110.206 9.99973 47.9595 -86.4184 9.9992 
40.9433 -121.211 28.7297 83.716 -104.364 10.0421 138.416 -97.1629 17.7572 
117.604 -127.996 9.99379 132.455 -114.602 9.99457 99.8278 -92.5013 9.99887 
94.3137 -124.669 9.99973 118.992 -92.8717 15.7036 136.627 -131.098 20.4992 
109.144 -110.016 12.5756 93.3987 -100.295 27.2654 130.654 -111.318 29.634 
106.168 -121.414 28.7853 119.343 -139.192 26.4647 111.678 -93.9051 34.2885 
-130.413 -84.2711 9.99596 -95.5544 -32.9623 15.4552 -112.319 -75.2424 9.99972 
-121.585 -57.3381 9.99979 -113.874 -38.8542 9.99966 -89.5527 -72.7707 10.0257 
-102.152 -57.9462 14.6896 -99.9221 -83.8528 23.1207 -132.361 -68.7349 22.4355 
-132.733 -48.8414 24.4332 -114.586 -42.2908 29.6895 -91.1957 -47.3374 28.6886 
-84.5067 -49.7803 9.99964 -139.779 -84.2882 32.5843 -114.419 -62.8685 29.7002 
-138.782 -36.3977 9.99646 -94.9127 -66.5944 32.6415 -31.8352 -68.0564 9.99973 
-49.013 -82.929 9.99971 -59.2987 -65.7544 10.0042 -75.6756 -63.7092 21.3128 
-57.7119 -32.8376 24.9939 -24.5397 -46.4428 9.99964 -17.9715 -55.4114 26.6253 
11.119 -57.1398 9.99894 -3.01328 -42.7608 9.99948 4.73882 -77.7218 9.99974 
25.2851 -81.5251 10.0035 -8.26632 -62.0577 9.99981 -15.3547 -32.0349 25.4129 
-15.5072 -79.1324 17.4826 23.607 -65.5646 23.1526 7.6117 -73.8204 31.8628 
67.5372 -82.3363 9.99912 38.059 -79.1364 25.7755 44.7807 -66.1712 9.99973 
50.264 -46.3386 10.0003 71.9758 -55.9435 9.99788 30.8734 -51.2362 9.98985 
71.5141 -41.1331 23.4282 40.6284 -55.7451 26.8622 59.3365 -62.2705 24.146 
53.4763 -41.3274 32.0578 61.2798 -29.6458 9.99959 84.9824 -83.2896 19.7317 
86.3259 -40.7074 9.99841 90.6654 -66.7578 9.99353 132.265 -79.0364 9.99969 
118.541 -58.6382 9.9999 108.204 -75.0282 14.9505 114.763 -39.0025 10.4383 
138.52 -57.6882 10.0037 129.694 -43.1735 23.0748 124.802 -73.6253 27.7485 
-119.783 5.41384 9.9997 -104.664 -10.3142 9.99725 -123.006 -21.107 11.2735 
-132.474 -4.0376 22.2304 -108.571 -12.2724 29.5107 -89.8173 -19.2156 29.2751 
-111.121 14.6925 25.5345 -85.0098 -16.8665 10.0018 -129.771 21.8663 24.7072 
-106.003 26.3561 9.99973 -123.229 -24.7799 34.8602 -45.5192 5.75798 9.99595 
-29.5529 -6.41478 9.99949 -76.1404 13.646 24.9917 -28.2849 22.3552 26.9699 
-42.0171 -0.902638 28.5229 -38.3272 25.8707 9.99973 -26.6887 -26.2081 9.99952 
22.2076 -25.6108 32.1811 -6.27411 -23.0291 10.0015 -21.6889 14.0174 9.99973 
-9.7811 -3.33954 9.99966 1.78014 2.03313 25.6349 7.66699 12.9766 9.98435 
20.8456 8.78692 25.7828 26.4976 19.7045 9.99825 33.9644 -0.241528 9.99973 
47.9876 14.1092 9.99973 81.9139 -14.8979 9.99851 60.9942 -1.53699 9.98822 
71.5571 19.4391 9.99973 38.259 22.8191 25.8677 62.1266 19.6335 28.6442 
39.3532 4.8106 34.4903 139.607 -16.3651 9.99883 87.5219 13.7743 20.6492 
99.7076 -25.8432 9.99984 138.127 6.99401 9.99085 103.854 18.2571 9.99945 
96.145 -0.828969 10.0091 139.663 26.933 9.99859 122.012 -21.8602 17.7589 
119.189 -3.56392 9.99853 105.403 -12.4063 23.6752 -88.8951 67.4998 9.98981 
-111.831 59.7053 9.99954 -126.986 41.2099 9.99948 -136.717 78.9614 29.9436 
-129.531 63.1858 18.6348 -98.8961 46.151 17.0052 -116.022 40.4075 26.7061 
-130.542 81.2339 10.002 -140.712 39.6021 25.3877 -80.1963 45.0097 9.99881 
-35.5888 69.4698 24.9907 -66.8681 63.1126 9.99978 -53.3264 40.3078 10.0005 
-64.4424 49.123 24.0983 -72.5296 74.6399 25.3473 -83.5387 47.5332 29.8278 
20.665 80.2268 9.99521 -4.3153 62.8341 9.9979 -23.6028 40.1449 9.99973 
8.76704 70.6817 22.9296 21.9875 54.7506 9.99973 2.27773 38.0364 33.7979 
-5.46549 82.8326 9.99866 26.7686 79.1633 29.0051 31.5306 59.5243 27.3762 
39.9864 34.8691 9.99959 63.717 38.6614 9.99708 62.0765 63.4393 9.99973 
39.6694 72.9901 9.99856 80.7174 49.2836 9.99905 77.7152 32.1307 27.6725 
52.3768 36.9691 26.3794 44.8041 53.966 13.4817 80.1608 71.9853 9.99973 
69.2193 50.2193 26.8905 50.7872 55.8967 32.6271 120.458 32.5133 9.99116 
88.2209 30.7446 9.99957 119.501 59.1942 9.99016 105.091 73.0543 9.99827 
103.869 43.7358 9.99972 138.236 52.0965 9.99973 95.2323 58.7796 19.9555 
118.645 45.8787 24.8751 92.1935 83.2075 21.4125 116.149 69.661 26.6955 
132.454 73.3231 15.6814 97.2878 36.2407 27.3378 -89.158 140.043 9.99575 
-111.838 88.3106 9.99508 -114.139 120.302 25.0007 -139.413 96.4053 20.5386 
-87.1806 103.777 9.99887 -77.1479 135.444 25.3058 -76.6479 86.7778 9.99817 
-57.4371 92.335 9.9991 -45.9155 108.68 10.0173 -79.6184 122.397 9.99973 
-50.2308 128.208 9.99959 -31.3856 104.215 25.1856 -30.3143 136.519 9.99965 
-33.9686 123.699 28.8805 -27.5847 116.674 10.0096 -17.6629 137.697 25.4445 
19.1345 132.44 9.99439 -10.548 127.146 10.0032 -2.996 108.629 9.99913 
8.5493 90.7157 22.0101 16.7351 105.372 9.99822 4.4699 128.425 23.324 
-14.9112 117.249 26.8422 26.132 99.4846 27.863 25.0452 132.008 29.0889 
-12.5177 96.5253 22.7548 8.73169 109.609 28.5911 84.4615 139.202 9.99973 
34.4803 96.1498 9.99721 64.8288 134.806 9.99973 37.3042 117.087 9.99238 
57.6834 116.026 9.99973 40.9866 140.125 9.9997 80.4765 119.539 9.99394 
68.6818 122.743 25.8154 50.7038 132.047 25.5014 59.8827 89.6853 33.1845 
38.1794 116.95 29.9632 126.189 91.4422 9.99719 84.6595 98.2415 9.99683 
117.075 109.24 9.99149 139.431 134.121 9.99349 110.966 135.138 9.9994 
105.332 93.0553 9.9996 137.184 112.521 9.99939 100.042 118.888 14.0666 
124.859 124.725 19.9575 88.3054 123.501 29.585 -135.054 -103.103 37.8137 
-103.675 -131.857 40.0016 -129.035 -124.906 41.9694 -112.161 -114.863 46.2871 
-88.4973 -123.003 49.6264 -87.375 -137.583 63.2702 -105.018 -124.724 62.2681 
-124.823 -127.365 61.3639 -131.781 -111.014 71.7342 -106.302 -141.28 73.4417 
-92.4021 -108.697 63.0454 -128.126 -98.8681 87.3822 -140.485 -113.7 53.9336 
-73.9646 -129.236 37.3726 -70.8216 -92.4745 40.6537 -43.8204 -99.7717 61.6929 
-72.1026 -124.073 61.0283 -60.935 -88.1442 73.9495 -54.1698 -120.959 52.7438 
-43.3838 -137.353 48.8964 -29.1043 -105.326 75.0635 -59.3298 -110.192 68.8337 
-54.5408 -128.592 75.0377 -35.3478 -124.058 71.7219 -80.0453 -97.3108 74.061 
-73.6969 -132.861 78.9232 -63.1476 -139.23 51.3142 -66.8629 -105.361 86.7528 
-17.8486 -114.083 43.1014 15.8888 -104.081 42.5239 13.2293 -125.571 54.3759 
3.57589 -119.034 70.6257 -3.60356 -140.128 61.631 -11.4094 -93.5964 70.7343 
24.1373 -132.792 39.2484 8.53625 -94.9325 71.7955 -14.4802 -127.746 75.1429 
23.9689 -94.3537 59.0784 8.10344 -137.24 77.5859 20.0903 -110.026 78.8693 
25.8615 -128.747 74.075 28.045 -113.842 60.9248 26.6825 -91.3593 82.1467 
2.91423 -86.1417 46.8998 73.4839 -127.612 39.9607 39.7027 -124.276 48.4726 
54.6618 -114.278 66.2724 39.7615 -105.317 41.7469 80.9622 -112.936 70.8414 
42.056 -137.086 63.6552 39.9976 -101.609 71.2968 60.2434 -135.871 71.8831 
44.5169 -127.772 81.2051 79.4347 -132.169 76.0968 104.07 -117.748 53.8193 
135.334 -134.181 40.2234 122.535 -111.942 47.8948 116.079 -130.495 44.1662 
128.956 -93.3056 44.5281 102.42 -137.701 56.8655 95.969 -86.5337 44.2312 
109.646 -98.6056 55.365 89.9603 -101.735 56.9347 121.397 -132.736 63.3083 
131.903 -98.6457 63.575 97.5198 -124.805 71.3491 139.336 -127.756 70.6137 
97.8595 -86.0217 66.4537 132.647 -108.606 80.9768 113.266 -100.911 82.16 
118.56 -113.376 67.4393 122.755 -126.235 82.166 94.0744 -106.234 84.3745 
-116.276 -82.3982 58.8709 -126.408 -52.1155 43.1379 -85.5242 -65.731 57.8067 
-101.63 -34.6594 61.2912 -129.414 -52.85 72.3521 -95.5228 -63.6496 79.9267 
-140.245 -35.0933 36.8623 -93.9578 -82.3951 87.0924 -78.7627 -77.4098 72.5624 
-28.0568 -35.5852 43.3655 -75.0782 -57.3277 42.9742 -68.1775 -43.7976 56.5467 
-65.1827 -63.3857 59.2931 -50.4812 -41.4856 69.4533 -77.3433 -57.5231 74.1558 
-59.2961 -68.5672 77.6981 -30.5349 -67.7437 56.933 -69.0586 -39.5319 76.9379 
-30.8185 -37.1569 73.9509 -44.8479 -83.329 84.8103 -47.2082 -54.1842 84.5533 
-42.0886 -29.1874 56.0998 -0.649662 -56.6592 37.9483 -8.34326 -38.8841 42.911 
17.8855 -60.8911 67.3306 -13.6391 -37.4587 62.1643 4.42483 -32.1676 82.1176 
4.84901 -28.7873 62.4117 28.8064 -83.5232 42.9795 46.8545 -36.5894 54.4745 
62.0304 -80.9067 53.6479 66.2954 -46.8477 46.3799 79.2061 -48.686 67.8107 
59.4009 -47.9489 65.1273 72.8082 -27.8548 73.3074 67.1579 -44.3262 83.2018 
47.0325 -47.0399 80.8993 52.8767 -29.5077 73.2353 59.0419 -62.8239 83.4753 
77.709 -69.3304 86.5528 92.0343 -83.2463 85.3957 140.394 -81.9549 83.6471 
100.368 -51.8111 40.1092 116.614 -80.0191 52.9551 135.792 -54.3009 38.6577 
134.183 -72.6036 46.6867 109.474 -69.8917 68.654 131.694 -78.3807 65.9839 
89.0641 -65.945 70.1022 129.809 -59.8397 73.2313 119.31 -81.8657 81.297 
92.5492 -35.113 73.9519 -98.9993 -3.83155 44.9064 -135.399 -10.1372 41.0509 
-111.004 20.9948 44.5158 -120.186 2.66133 38.6897 -112.319 1.93664 58.6556 
-110.789 20.7266 65.3232 -94.2769 16.8267 54.749 -132.161 4.30307 57.9419 
-106.08 5.53742 77.4484 -127.127 14.029 74.7097 -92.1396 -1.04489 63.4824 
-120.444 -8.01899 73.9737 -88.3328 8.43729 86.1979 -103.1 -11.4992 87.4903 
-140.281 27.233 82.0623 -121.305 -23.4625 87.9805 -84.7347 -10.1351 79.6875 
[...]
POINT_DATA 2000
FIELD FieldData 7
id 1 2000 int
41 77 196 230 308 107 205 282 106 
55 438 53 85 259 296 439 157 275 
424 371 40 273 71 185 265 297 299 
410 440 172 95 351 336 437 49 33 
376 408 397 216 164 380 59 139 141 
29 30 379 335 434 394 283 247 47 
411 36 142 338 414 456 32 161 261 
453 80 276 171 381 245 114 425 112 
231 246 215 10 143 211 115 208 232 
365 48 243 45 167 75 300 149 113 
174 222 318 108 354 285 317 359 201 
200 117 252 262 286 314 395 334 274 
239 342 66 147 255 443 309 413 278 
238 405 50 345 20 46 220 187 225 
11 212 69 37 358 390 416 347 122 
123 197 264 430 315 204 219 298 256 
135 346 54 97 178 213 271 404 84 
199 320 400 234 450 152 444 99 362 
8 279 321 250 384 378 195 240 399 
186 111 12 169 73 133 131 132 389 
419 449 229 369 375 102 72 374 330 
253 34 154 221 266 173 352 366 58 
329 206 301 138 6 284 179 328 184 
224 168 311 455 295 385 90 88 78 
62 302 339 79 83 218 426 127 128 
294 433 344 341 110 227 396 421 429 
251 242 18 423 96 160 209 288 367 
370 452 116 198 203 244 343 442 166 
304 361 401 448 1864 1820 1025 1285 272 
223 9 82 130 350 119 409 290 383 
1007 1904 1249 1749 292 1878 2 241 156 
64 76 210 263 1855 1873 364 1584 1941 
1011 418 327 293 22 144 165 382 323 
332 42 1715 1811 1945 137 51 125 445 
81 155 249 436 74 1428 1281 1934 720 
1920 856 700 1308 1665 1450 5 331 388 
26 307 552 183 1551 319 422 65 163 
191 236 1719 1793 23 1676 1730 903 642 
415 417 281 28 226 1366 402 39 392 
14 44 189 306 104 931 1603 118 89 
1953 997 1922 25 86 313 398 180 188 
1317 1870 1643 581 43 412 129 322 761 
1508 303 326 764 1565 176 1155 1520 1143 
1112 739 1819 151 162 68 158 214 257 
121 368 175 427 353 1211 864 874 1540 
4 217 357 202 94 190 349 120 1159 
570 746 1001 268 260 7 100 333 432 
457 70 63 1767 622 1389 153 386 291 
15 277 19 441 1015 1407 839 3 254 
57 228 393 145 177 420 1046 1600 1399 
909 340 1956 93 1 270 387 109 170 
181 140 312 91 1163 1404 712 372 61 
67 267 60 316 87 1652 590 583 207 
923 709 280 373 235 16 194 148 789 
1080 1406 431 1082 1951 1417 377 182 310 
103 233 337 35 258 356 24 159 435 
1430 1367 1124 1975 1194 852 105 360 403 
237 287 363 92 348 21 1398 1517 1852 
1685 324 1191 27 428 391 56 98 1807 
1893 1087 1716 1200 355 1283 407 289 446 
101 192 13 124 1869 1400 1589 701 674 
193 269 146 136 150 1883 1995 771 817 
1501 1706 1836 949 1815 1773 1854 52 305 
325 406 38 126 17 31 447 134 248 
967 1140 1618 1447 741 1424 968 1068 480 
1694 1542 1293 1726 784 954 1929 1771 814 
1334 1938 1195 484 1382 1176 1178 1017 1220 
541 1173 1999 1170 1331 1982 1021 948 1601 
1452 1896 1845 1838 668 907 520 952 1262 
1252 1865 1539 1071 1304 1712 1337 553 1687 
651 548 1678 951 1634 1050 1156 1537 654 
1128 1988 1409 462 1105 1189 1728 1757 1051 
1474 838 1842 1561 1649 599 661 911 914 
1147 1149 1459 866 1829 479 753 974 486 
1527 1840 752 573 1427 845 540 1206 1275 
1683 1488 1656 1543 718 1117 1342 1781 489 
878 995 1045 1171 1578 1013 1994 1077 1866 
833 889 626 1586 875 1130 621 906 1799 
1284 1213 757 793 1894 1421 533 1725 985 
1566 640 1861 602 652 1365 644 1225 1234 
1415 779 862 1373 1874 666 1167 960 723 
912 1042 1673 806 495 1729 1480 1444 521 
454 574 1908 854 658 1442 842 861 1419 
1034 1177 1628 1099 1736 1738 1129 1465 1324 
915 1756 1677 532 1460 754 1063 1190 1496 
1947 1850 628 1453 1341 1031 1696 1023 1066 
1718 1563 1881 698 799 1144 722 1554 1813 
1208 451 466 1340 1831 1271 1745 1401 1391 
1572 467 471 970 594 1385 1912 1675 888 
1119 1369 1602 464 1579 1093 1102 474 580 
1468 1499 1270 1769 506 1533 643 1412 1595 
1928 1414 1890 1959 608 1570 1362 470 597 
1679 1172 1074 919 798 1258 1529 1534 1720 
1743 965 975 1803 1884 841 656 1416 1481 
892 1040 1791 1108 1653 566 853 564 1490 
492 1647 1620 1261 1052 1577 1458 673 1475 
1682 1606 660 729 1761 962 1960 624 1470 
1241 1608 664 518 1131 1903 1326 966 1638 
1858 1441 1477 1636 759 1784 1070 513 1825 
1355 1822 803 805 893 925 728 1438 936 
964 1433 848 1931 1891 1859 1830 1610 1267 
1889 469 1734 1887 810 531 1268 1591 1552 
537 1201 1979 1153 1525 885 1879 1073 562 
1892 1054 1684 588 1919 991 488 1216 749 
981 1058 1037 473 604 671 630 946 876 
1291 1965 1461 508 1229 1231 1548 1098 461 
475 832 1545 1844 1125 1104 2000 1387 1360 
887 1827 522 1667 1263 696 990 1702 1359 
1804 1906 1911 1422 775 459 565 687 1169 
1662 944 1633 801 1483 1055 820 675 1209 
1962 781 1614 1089 1752 835 670 1462 1576 
1980 1101 1780 1060 1135 1203 1120 969 1978 
1582 1361 1487 1094 487 1223 758 1121 751 
1205 1059 1473 1823 850 987 1328 972 1661 
1352 1663 1974 589 616 496 1916 1254 1932 
986 1860 1222 539 807 886 1936 1118 1084 
1930 618 1100 686 1166 1711 730 1026 530 
1018 1332 1772 1004 1835 1616 1935 1622 601 
493 755 1343 1564 1796 1287 740 1966 515 
938 1495 865 1309 896 1532 1937 1300 1550 
1368 1187 788 498 809 894 935 1740 916 
1788 1632 1573 725 770 1507 1035 1491 1558 
528 1036 1076 1467 1397 632 1707 830 1310 
1834 745 961 901 1197 1333 1569 1282 1494 
1846 1062 575 1064 1269 1504 994 688 1150 
607 1126 1318 569 1524 922 682 1770 645 
1049 1092 1701 1863 924 1312 1948 1917 538 
953 1214 1114 895 1613 732 613 1575 1783 
837 713 1056 511 1925 904 623 1264 1768 
705 934 1775 1910 523 1048 1371 503 1918 
600 1138 1466 999 1184 1255 1849 733 1303 
797 1109 1789 1963 802 1192 1247 1276 1957 
1228 1336 738 1808 1867 1972 525 557 1250 
627 641 535 790 1837 1722 1764 1732 1856 
472 1146 1204 1708 1219 1944 1809 1798 1041 
1952 561 1078 1196 1741 1134 1043 1626 491 
1418 942 1313 1992 1549 1083 1175 1503 710 
1629 825 1420 800 1455 1897 1260 1666 567 
1356 1818 1226 1370 1810 1290 1505 1029 478 
1354 647 1375 1053 1024 1964 1704 1942 1432 
1165 1760 697 551 1440 547 1802 831 1376 
502 1344 992 1596 1983 1961 1069 678 1735 
1939 1670 984 1383 1379 1514 545 920 988 
1358 1047 1500 1489 646 1724 818 959 1245 
1664 1122 794 708 1295 1242 1557 1160 499 
1607 667 769 595 1650 1991 1181 1754 529 
1585 1009 1237 736 685 787 1839 1790 1251 
1350 1434 1088 1235 1547 1828 1853 620 596 
1993 483 1090 822 519 1139 1660 1814 1571 
509 1446 1672 1598 1246 763 1067 1030 1377 
1695 689 1973 1439 1289 526 1674 692 1469 
614 1061 1604 1006 679 681 649 1107 1668 
1476 867 742 868 796 1210 869 1327 1833 
476 611 871 774 917 1546 1297 1623 571 
650 1901 1454 1305 1792 1394 902 1805 1699 
1877 510 1457 1705 603 1142 1739 680 1445 
780 1568 918 870 1116 1512 743 1179 1513 
1152 703 955 468 1431 693 1277 482 765 
1778 945 971 1232 1876 1113 1133 1516 1273 
1968 1642 1832 908 1425 1493 993 1857 546 
1363 1065 1958 1307 1426 1151 777 1923 695 
1174 1559 1940 1348 750 819 1511 1841 558 
1224 1396 1746 1744 1977 559 1106 760 1556 
631 1594 1976 1502 1530 1882 1755 1010 1593 
1581 1515 1617 1615 1619 1039 1742 910 881 
1969 929 1448 612 744 1580 1000 827 1555 
1926 534 795 657 1353 1821 1429 1812 579 
1646 1826 1921 851 1123 694 824 1478 549 
572 1136 1541 655 563 578 762 1240 1311 
1700 1574 1338 1801 690 1185 1875 1753 863 
767 1885 1762 699 1148 1390 998 1641 1967 
1028 1899 517 1137 973 463 1079 731 1230 
860 1759 1280 1492 653 1378 648 1905 1091 
950 1198 847 858 737 941 1782 1322 1132 
1288 615 785 921 1016 1669 1909 1737 1590 
1871 481 958 927 873 1330 1193 1072 592 
928 1095 1408 1611 899 1274 1996 1012 1472 
577 505 1374 1886 1306 1168 1509 524 1597 
1182 1686 1721 1014 1393 1949 1162 1022 1637 
1239 1723 1955 637 812 1862 1236 1544 554 
634 704 976 560 857 1278 1795 1800 1588 
977 926 1329 1227 1335 1970 1787 1321 1357 
591 576 1645 1521 1592 1847 1851 1221 1141 
1212 1583 719 811 747 1005 1302 1411 584 
663 1256 1161 662 846 1215 1691 804 937 
1158 1671 707 1238 1044 715 514 1057 1325 
1587 772 843 1531 1651 1482 586 516 815 
855 1032 1680 1697 1777 890 773 1635 1164 
1299 1621 1690 963 1279 1436 672 568 1817 
536 1364 542 485 1763 1085 605 1347 1451 
1301 905 1927 880 1560 500 1538 507 1898 
1259 1747 1316 717 1423 821 1345 816 766 
556 716 879 1727 1111 826 1392 1915 1388 
900 1449 1751 756 947 1924 1506 1372 1703 
829 1522 1907 1127 1086 587 980 1207 665 
1298 1933 1097 1689 1497 1797 1990 1880 891 
1776 834 512 1405 1693 1395 1027 1848 1486 
1640 1320 836 734 748 544 1188 669 477 
791 677 939 1314 1485 1038 1987 638 619 
1019 1218 1766 768 1523 828 504 1386 711 
978 1599 1758 776 1888 1989 982 1413 610 
1471 1033 1286 1510 943 1748 1456 617 458 
1985 1096 635 1688 956 1339 1681 1943 606 
783 1997 996 683 1868 1914 490 1464 1954 
957 1463 1627 593 1713 598 1519 1403 1567 
1257 1655 555 1381 813 1717 1639 1624 1075 
714 1692 625 1265 1292 1733 1157 706 1843 
1410 724 989 527 1971 1498 1609 1714 1008 
897 1272 1950 1315 1081 1816 1402 636 543 
1296 1946 1984 1562 659 1115 840 1786 1443 
1998 501 1648 1346 1553 1654 1233 1380 849 
1349 884 859 585 497 1186 1630 1794 1266 
940 1526 1709 1103 882 933 702 877 778 
609 1605 1145 808 582 844 1731 1003 786 
1020 1528 983 1323 1981 1658 1484 1110 1319 
1002 1243 1657 1698 1437 1644 930 465 932 
1384 1824 1785 913 721 898 494 1631 792 
1248 1180 1435 1294 735 1872 1612 1183 1518 
1479 1895 1253 1154 633 823 883 1625 1659 
1913 1779 1806 1535 1244 782 1202 1217 1536 
1902 872 1765 979 684 1750 629 727 1199 
460 639 691 550 1986 1351 726 1774 1900 
1710 676 
type 1 2000 int
1 1 1 1 1 1 1 1 1 
1 1 1 1 1 1 1 1 1 
1 1 1 1 1 1 1 1 1 
1 1 1 1 1 1 1 1 1 
1 1 1 1 1 1 1 1 1 
1 1 1 1 1 1 1 1 1 
1 1 1 1 1 1 1 1 1 
1 1 1 1 1 1 1 1 1 
1 1 1 1 1 1 1 1 1 
1 1 1 1 1 1 1 1 1 
1 1 1 1 1 1 1 1 1 
1 1 1 1 1 1 1 1 1 
1 1 1 1 1 1 1 1 1 
1 1 1 1 1 1 1 1 1 
1 1 1 1 1 1 1 1 1 
1 1 1 1 1 1 1 1 1 
1 1 1 1 1 1 1 1 1 
1 1 1 1 1 1 1 1 1 
1 1 1 1 1 1 1 1 1 
1 1 1 1 1 1 1 1 1 
1 1 1 1 1 1 1 1 1 
1 1 1 1 1 1 1 1 1 
1 1 1 1 1 1 1 1 1 
1 1 1 1 1 1 1 1 1 
1 1 1 1 1 1 1 1 1 
1 1 1 1 1 1 1 1 1 
1 1 1 1 1 1 1 1 1 
1 1 1 1 1 1 1 1 1 
1 1 1 1 1 1 1 1 1 
1 1 1 1 1 1 1 1 1 
1 1 1 1 1 1 1 1 1 
1 1 1 1 1 1 1 1 1 
1 1 1 1 1 1 1 1 1 
1 1 1 1 1 1 1 1 1 
1 1 1 1 1 1 1 1 1 
1 1 1 1 1 1 1 1 1 
1 1 1 1 1 1 1 1 1 
1 1 1 1 1 1 1 1 1 
1 1 1 1 1 1 1 1 1 
1 1 1 1 1 1 1 1 1 
1 1 1 1 1 1 1 1 1 
1 1 1 1 1 1 1 1 1 
1 1 1 1 1 1 1 1 1 
1 1 1 1 1 1 1 1 1 
1 1 1 1 1 1 1 1 1 
1 1 1 1 1 1 1 1 1 
1 1 1 1 1 1 1 1 1 
1 1 1 1 1 1 1 1 1 
1 1 1 1 1 1 1 1 1 
1 1 1 1 1 1 1 1 1 
1 1 1 1 1 1 1 1 1 
1 1 1 1 1 1 1 1 1 
1 1 1 1 1 1 1 1 1 
1 1 1 1 1 1 1 1 1 
1 1 1 1 1 1 1 1 1 
1 1 1 1 1 1 1 1 1 
1 1 1 1 1 1 1 1 1 
1 1 1 1 1 1 1 1 1 
1 1 1 1 1 1 1 1 1 
1 1 1 1 1 1 1 1 1 
1 1 1 1 1 1 1 1 1 
1 1 1 1 1 1 1 1 1 
1 1 1 1 1 1 1 1 1 
1 1 1 1 1 1 1 1 1 
1 1 1 1 1 1 1 1 1 
1 1 1 1 1 1 1 1 1 
1 1 1 1 1 1 1 1 1 
1 1 1 1 1 1 1 1 1 
1 1 1 1 1 1 1 1 1 
1 1 1 1 1 1 1 1 1 
1 1 1 1 1 1 1 1 1 
1 1 1 1 1 1 1 1 1 
1 1 1 1 1 1 1 1 1 
1 1 1 1 1 1 1 1 1 
1 1 1 1 1 1 1 1 1 
1 1 1 1 1 1 1 1 1 
1 1 1 1 1 1 1 1 1 
1 1 1 1 1 1 1 1 1 
1 1 1 1 1 1 1 1 1 
1 1 1 1 1 1 1 1 1 
1 1 1 1 1 1 1 1 1 
1 1 1 1 1 1 1 1 1 
1 1 1 1 1 1 1 1 1 
1 1 1 1 1 1 1 1 1 
1 1 1 1 1 1 1 1 1 
1 1 1 1 1 1 1 1 1 
1 1 1 1 1 1 1 1 1 
1 1 1 1 1 1 1 1 1 
1 1 1 1 1 1 1 1 1 
1 1 1 1 1 1 1 1 1 
1 1 1 1 1 1 1 1 1 
1 1 1 1 1 1 1 1 1 
1 1 1 1 1 1 1 1 1 
1 1 1 1 1 1 1 1 1 
1 1 1 1 1 1 1 1 1 
1 1 1 1 1 1 1 1 1 
1 1 1 1 1 1 1 1 1 
1 1 1 1 1 1 1 1 1 
1 1 1 1 1 1 1 1 1 
1 1 1 1 1 1 1 1 1 
1 1 1 1 1 1 1 1 1 
1 1 1 1 1 1 1 1 1 
1 1 1 1 1 1 1 1 1 
1 1 1 1 1 1 1 1 1 
1 1 1 1 1 1 1 1 1 
1 1 1 1 1 1 1 1 1 
1 1 1 1 1 1 1 1 1 
1 1 1 1 1 1 1 1 1 
1 1 1 1 1 1 1 1 1 
1 1 1 1 1 1 1 1 1 
1 1 1 1 1 1 1 1 1 
1 1 1 1 1 1 1 1 1 
1 1 1 1 1 1 1 1 1 
1 1 1 1 1 1 1 1 1 
1 1 1 1 1 1 1 1 1 
1 1 1 1 1 1 1 1 1 
1 1 1 1 1 1 1 1 1 
1 1 1 1 1 1 1 1 1 
1 1 1 1 1 1 1 1 1 
1 1 1 1 1 1 1 1 1 
1 1 1 1 1 1 1 1 1 
1 1 1 1 1 1 1 1 1 
1 1 1 1 1 1 1 1 1 
1 1 1 1 1 1 1 1 1 
1 1 1 1 1 1 1 1 1 
1 1 1 1 1 1 1 1 1 
1 1 1 1 1 1 1 1 1 
1 1 1 1 1 1 1 1 1 
1 1 1 1 1 1 1 1 1 
1 1 1 1 1 1 1 1 1 
1 1 1 1 1 1 1 1 1 
1 1 1 1 1 1 1 1 1 
1 1 1 1 1 1 1 1 1 
1 1 1 1 1 1 1 1 1 
1 1 1 1 1 1 1 1 1 
1 1 1 1 1 1 1 1 1 
1 1 1 1 1 1 1 1 1 
1 1 1 1 1 1 1 1 1 
1 1 1 1 1 1 1 1 1 
1 1 1 1 1 1 1 1 1 
1 1 1 1 1 1 1 1 1 
1 1 1 1 1 1 1 1 1 
1 1 1 1 1 1 1 1 1 
1 1 1 1 1 1 1 1 1 
1 1 1 1 1 1 1 1 1 
1 1 1 1 1 1 1 1 1 
1 1 1 1 1 1 1 1 1 
1 1 1 1 1 1 1 1 1 
1 1 1 1 1 1 1 1 1 
1 1 1 1 1 1 1 1 1 
1 1 1 1 1 1 1 1 1 
1 1 1 1 1 1 1 1 1 
1 1 1 1 1 1 1 1 1 
1 1 1 1 1 1 1 1 1 
1 1 1 1 1 1 1 1 1 
1 1 1 1 1 1 1 1 1 
1 1 1 1 1 1 1 1 1 
1 1 1 1 1 1 1 1 1 
1 1 1 1 1 1 1 1 1 
1 1 1 1 1 1 1 1 1 
1 1 1 1 1 1 1 1 1 
1 1 1 1 1 1 1 1 1 
1 1 1 1 1 1 1 1 1 
1 1 1 1 1 1 1 1 1 
1 1 1 1 1 1 1 1 1 
1 1 1 1 1 1 1 1 1 
1 1 1 1 1 1 1 1 1 
1 1 1 1 1 1 1 1 1 
1 1 1 1 1 1 1 1 1 
1 1 1 1 1 1 1 1 1 
1 1 1 1 1 1 1 1 1 
1 1 1 1 1 1 1 1 1 
1 1 1 1 1 1 1 1 1 
1 1 1 1 1 1 1 1 1 
1 1 1 1 1 1 1 1 1 
1 1 1 1 1 1 1 1 1 
1 1 1 1 1 1 1 1 1 
1 1 1 1 1 1 1 1 1 
1 1 1 1 1 1 1 1 1 
1 1 1 1 1 1 1 1 1 
1 1 1 1 1 1 1 1 1 
1 1 1 1 1 1 1 1 1 
1 1 1 1 1 1 1 1 1 
1 1 1 1 1 1 1 1 1 
1 1 1 1 1 1 1 1 1 
1 1 1 1 1 1 1 1 1 
1 1 1 1 1 1 1 1 1 
1 1 1 1 1 1 1 1 1 
1 1 1 1 1 1 1 1 1 
1 1 1 1 1 1 1 1 1 
1 1 1 1 1 1 1 1 1 
1 1 1 1 1 1 1 1 1 
1 1 1 1 1 1 1 1 1 
1 1 1 1 1 1 1 1 1 
1 1 1 1 1 1 1 1 1 
1 1 1 1 1 1 1 1 1 
1 1 1 1 1 1 1 1 1 
1 1 1 1 1 1 1 1 1 
1 1 1 1 1 1 1 1 1 
1 1 1 1 1 1 1 1 1 
1 1 1 1 1 1 1 1 1 
1 1 1 1 1 1 1 1 1 
1 1 1 1 1 1 1 1 1 
1 1 1 1 1 1 1 1 1 
1 1 1 1 1 1 1 1 1 
1 1 1 1 1 1 1 1 1 
1 1 1 1 1 1 1 1 1 
1 1 1 1 1 1 1 1 1 
1 1 1 1 1 1 1 1 1 
1 1 1 1 1 1 1 1 1 
1 1 1 1 1 1 1 1 1 
1 1 1 1 1 1 1 1 1 
1 1 1 1 1 1 1 1 1 
1 1 1 1 1 1 1 1 1 
1 1 1 1 1 1 1 1 1 
1 1 1 1 1 1 1 1 1 
1 1 1 1 1 1 1 1 1 
1 1 1 1 1 1 1 1 1 
1 1 1 1 1 1 1 1 1 
1 1 1 1 1 1 1 1 1 
1 1 1 1 1 1 1 1 1 
1 1 1 1 1 1 1 1 1 
1 1 
i 3 2000 int
0 0 0 0 0 0 0 0 0 
0 0 0 0 0 0 0 0 0 
0 0 0 0 0 0 0 0 0 
0 0 0 0 0 0 0 0 0 
0 0 0 0 0 0 0 0 0 
0 0 0 0 0 0 0 0 0 
0 0 0 0 0 0 0 1 0 
0 0 0 0 0 0 0 0 0 
0 0 0 0 0 0 0 0 0 
0 0 0 0 0 0 0 0 0 
0 0 0 0 0 0 0 0 0 
0 0 0 0 0 0 0 0 0 
0 0 0 0 0 0 0 0 0 
0 0 0 0 0 0 -1 0 0 
0 0 0 0 0 0 0 0 0 
0 0 0 0 0 0 0 0 0 
0 0 0 0 0 0 0 0 0 
0 0 0 0 1 0 0 0 0 
0 0 0 0 0 0 0 0 0 
0 0 0 0 0 0 0 0 0 
0 0 0 0 0 0 0 0 0 
0 0 0 0 0 0 0 0 0 
0 0 0 0 0 0 0 0 0 
0 0 0 0 0 0 0 0 0 
0 0 0 0 0 0 0 0 0 
0 0 0 0 0 0 0 0 0 
0 0 0 0 0 0 0 0 0 
0 0 0 0 0 0 0 0 0 
0 0 0 0 0 0 0 0 0 
0 0 0 0 0 0 0 0 0 
0 0 0 0 0 0 0 0 0 
0 0 0 0 0 0 0 0 0 
0 0 0 0 0 0 0 0 0 
0 0 0 0 0 0 0 0 0 
0 0 0 0 0 0 0 0 0 
0 0 0 0 0 0 0 0 0 
0 0 0 0 0 0 0 0 0 
0 0 0 0 0 0 0 0 0 
0 0 0 0 0 0 0 0 0 
0 0 0 0 0 0 0 0 0 
0 0 0 0 0 0 0 0 0 
0 0 0 0 0 0 0 0 0 
0 0 0 0 0 0 0 0 0 
0 0 0 0 0 0 0 0 0 
0 0 0 0 0 0 0 0 0 
0 0 0 0 0 0 0 0 0 
0 0 0 0 0 0 0 0 0 
0 0 0 0 0 0 0 0 0 
0 0 0 -1 0 0 0 0 0 
0 0 0 0 0 0 0 0 0 
0 0 0 0 0 0 0 0 0 
0 0 0 0 0 0 0 0 0 
0 0 0 0 0 0 0 0 0 
0 0 0 0 0 0 0 0 0 
0 0 0 0 0 0 0 0 0 
0 0 0 0 0 0 0 0 0 
0 0 0 0 0 0 0 0 0 
0 0 0 0 0 0 0 0 0 
0 0 0 0 0 0 0 0 0 
0 0 0 0 0 0 0 0 0 
0 0 0 0 0 0 0 0 0 
0 0 0 0 0 0 0 0 0 
0 0 0 0 0 0 0 0 0 
0 0 0 0 0 0 0 0 0 
0 0 0 0 0 0 0 0 0 
0 0 0 0 0 0 0 0 0 
0 0 0 0 0 0 0 -1 0 
0 0 0 0 0 0 1 0 0 
0 0 0 0 -1 0 0 0 0 
0 0 0 0 0 0 0 0 0 
0 0 0 0 0 0 0 0 0 
0 0 0 0 0 0 0 0 0 
0 0 0 0 0 0 0 0 0 
0 0 0 0 0 0 0 0 0 
0 0 0 0 0 0 0 0 0 
0 0 0 0 0 0 0 0 0 
0 0 0 0 0 0 0 0 0 
0 0 0 0 0 0 0 0 0 
0 0 0 0 0 0 0 0 0 
0 0 0 0 0 0 0 0 0 
0 0 0 0 0 0 0 0 0 
0 0 0 0 0 0 0 0 0 
0 0 0 0 0 0 0 0 0 
0 0 0 0 0 0 0 0 0 
0 0 0 0 0 0 0 0 0 
0 0 0 0 0 0 0 0 0 
0 0 0 0 0 0 1 0 0 
0 0 0 0 0 0 0 0 0 
0 0 0 0 0 0 0 0 0 
0 0 0 0 0 0 0 0 0 
0 0 0 0 0 0 0 0 0 
0 0 0 0 1 0 0 0 0 
0 0 0 0 0 0 0 0 0 
0 0 0 0 0 0 0 0 0 
0 0 0 0 0 0 0 0 0 
0 0 0 0 0 0 0 0 0 
0 0 0 0 0 0 0 0 0 
0 0 0 0 0 0 0 0 0 
0 0 0 0 0 0 0 0 0 
0 0 0 0 0 0 0 0 0 
0 0 0 0 0 0 0 0 0 
0 0 0 0 0 0 0 0 0 
0 0 0 0 0 0 0 0 0 
0 0 0 0 0 0 0 0 0 
0 0 0 0 0 0 0 0 0 
0 0 0 -1 0 0 0 0 0 
0 0 0 0 0 0 0 0 0 
0 0 0 0 0 0 0 0 0 
0 0 0 0 0 0 0 0 0 
1 0 0 0 0 0 0 0 0 
0 0 0 0 0 0 0 0 0 
0 0 0 0 0 0 0 0 0 
0 0 0 0 0 0 0 0 0 
0 0 0 0 0 0 0 0 0 
0 0 0 0 0 0 0 0 0 
0 0 0 0 0 0 0 0 0 
0 0 0 0 0 0 0 0 0 
0 0 0 0 0 0 0 0 0 
0 0 0 0 0 0 0 0 0 
0 0 0 0 0 0 0 0 0 
0 0 0 0 0 0 -1 0 0 
0 0 0 0 0 0 0 0 0 
0 0 0 0 0 0 0 0 0 
0 0 0 0 0 0 0 0 0 
0 0 0 0 0 0 1 0 0 
0 0 0 0 0 0 0 0 0 
0 0 0 0 0 0 1 0 0 
0 0 0 0 0 0 0 0 0 
0 0 0 0 0 0 0 0 0 
1 0 0 0 0 0 0 0 0 
0 0 0 0 0 0 0 0 0 
0 0 0 0 0 0 0 0 0 
0 0 0 0 0 0 0 0 0 
0 0 0 0 0 0 0 0 0 
0 0 0 0 0 0 0 0 0 
0 0 0 0 0 0 0 0 0 
0 0 0 0 0 0 0 0 0 
0 0 0 0 0 0 0 0 0 
0 0 0 0 0 0 0 0 0 
0 0 0 0 0 0 0 0 0 
0 0 0 0 0 0 0 0 0 
0 0 0 0 0 0 0 0 0 
0 0 0 0 0 0 0 0 0 
0 0 0 0 0 0 0 0 0 
0 0 0 0 0 0 0 0 0 
0 0 0 0 0 0 0 0 0 
0 0 0 0 0 0 0 0 0 
0 0 0 0 0 0 0 0 0 
0 0 0 0 0 0 0 0 0 
0 0 0 0 0 0 0 0 0 
0 0 0 1 0 0 0 0 0 
0 0 0 0 0 0 0 0 0 
0 0 0 0 0 0 0 0 0 
0 0 0 0 0 0 0 0 0 
0 0 0 0 0 0 0 0 0 
0 0 0 0 0 0 0 0 0 
0 0 0 0 0 0 0 0 0 
0 0 0 0 0 0 0 0 0 
0 0 0 0 0 0 0 0 0 
0 0 0 0 0 0 0 0 0 
0 0 0 0 0 0 0 0 0 
0 0 0 0 0 0 0 0 0 
0 0 0 0 0 0 0 0 0 
0 0 0 0 0 0 0 0 0 
-1 0 0 0 0 0 0 0 0 
0 0 0 0 0 0 0 0 0 
0 0 0 0 0 0 0 0 0 
0 0 0 0 0 0 0 0 0 
0 0 0 0 0 0 0 0 0 
1 0 0 0 0 0 0 -1 0 
0 0 0 0 0 0 0 0 0 
0 0 0 0 0 0 0 0 0 
0 0 0 0 0 0 0 0 0 
0 0 0 0 0 0 0 0 0 
0 0 0 0 0 0 0 -1 0 
0 0 0 0 0 0 0 0 0 
0 0 0 0 0 0 0 0 0 
0 0 0 0 0 0 0 -1 0 
0 0 0 0 -1 0 0 0 0 
0 0 0 0 -1 0 0 0 0 
0 0 0 0 0 0 0 0 0 
0 0 0 0 0 0 0 0 0 
0 0 0 0 0 0 0 0 0 
0 0 0 0 -1 0 0 0 0 
0 0 0 0 0 0 0 0 0 
0 0 0 0 0 0 0 0 0 
0 0 0 0 0 0 0 0 0 
0 0 0 0 0 0 0 0 0 
0 -1 0 0 0 0 0 0 0 
0 0 0 -1 0 0 0 -1 0 
-1 0 0 0 0 0 0 0 0 
0 0 0 0 0 0 0 0 0 
0 0 0 0 0 0 0 0 0 
0 0 0 0 0 0 0 0 0 
0 0 0 0 0 0 0 0 0 
0 0 0 0 0 0 0 0 0 
0 0 0 0 0 0 0 0 0 
0 1 0 0 0 0 0 0 0 
0 1 0 0 0 0 0 0 0 
0 0 0 0 0 0 0 0 0 
0 0 0 0 0 0 0 0 0 
0 0 0 0 0 0 0 0 0 
0 0 0 0 0 0 0 0 0 
0 0 0 0 0 0 0 0 0 
0 1 0 0 0 0 0 0 0 
0 0 0 0 0 0 0 0 0 
0 0 0 0 0 0 0 0 0 
0 0 0 0 1 0 0 0 0 
0 0 0 0 1 0 0 0 0 
0 0 0 0 0 0 0 0 0 
0 0 0 0 0 0 0 0 0 
0 0 0 0 0 0 0 0 0 
0 0 0 0 0 0 0 0 0 
0 0 0 0 0 0 0 0 0 
0 0 0 0 0 0 0 0 0 
0 0 0 1 0 0 0 0 0 
0 0 0 0 0 0 0 0 0 
0 0 0 0 0 0 0 0 0 
0 0 0 0 0 0 0 0 0 
0 0 0 0 0 0 0 0 0 
0 0 0 0 0 0 0 0 0 
0 0 0 0 0 0 0 0 0 
0 0 0 0 0 0 0 0 0 
0 0 0 0 0 0 0 0 0 
0 0 0 0 0 0 0 0 0 
0 0 0 0 0 0 0 0 0 
0 0 0 0 0 0 0 0 0 
0 0 0 -1 0 0 0 0 0 
0 0 0 0 0 0 0 0 0 
0 0 0 0 0 0 0 0 0 
0 0 0 0 0 0 0 0 0 
0 0 0 0 0 0 0 0 0 
0 0 0 0 0 0 0 0 0 
0 0 0 0 0 0 0 0 0 
0 0 0 0 0 0 0 0 0 
0 0 0 0 0 0 0 0 0 
0 0 0 0 0 0 0 0 0 
0 0 0 0 0 0 0 0 0 
0 0 0 0 0 0 0 0 0 
0 0 0 0 0 0 0 0 0 
0 0 0 0 0 0 0 0 0 
0 0 0 0 0 0 0 0 0 
0 0 0 0 0 0 0 0 0 
0 0 0 0 0 0 0 0 0 
0 0 0 0 0 0 0 0 0 
0 0 0 0 0 0 0 0 0 
0 0 0 0 0 0 0 0 0 
0 0 0 -1 0 0 0 0 0 
0 0 0 0 0 0 0 0 0 
0 0 0 0 0 0 0 0 0 
0 0 0 0 0 0 0 0 0 
0 0 0 0 0 0 0 0 0 
0 0 0 0 0 0 0 0 0 
0 0 0 0 0 0 0 0 0 
0 0 0 0 0 0 0 0 0 
1 0 0 0 0 0 0 0 0 
1 0 0 1 0 0 0 0 0 
0 0 0 0 0 0 0 0 0 
0 0 0 0 0 0 0 0 0 
0 0 0 0 0 0 0 0 0 
0 0 0 0 0 0 0 0 0 
0 0 0 0 0 0 0 0 0 
0 0 0 0 0 0 0 0 0 
0 0 0 0 0 0 0 0 0 
0 0 0 0 0 0 0 0 0 
0 0 0 0 0 0 0 0 0 
0 0 0 0 0 0 0 0 0 
0 0 0 0 0 0 0 0 0 
0 0 0 0 0 0 0 0 0 
0 0 0 0 0 0 0 0 0 
0 0 0 0 0 0 0 0 0 
0 0 0 0 0 0 0 0 0 
0 0 0 0 0 0 0 0 0 
0 0 0 0 0 0 0 -1 0 
0 0 0 0 0 0 0 0 0 
0 0 0 0 0 0 0 0 0 
0 0 0 0 0 0 0 0 0 
0 0 0 0 0 0 0 -1 0 
0 0 0 0 -1 0 0 0 0 
0 0 0 0 0 0 0 0 0 
0 0 0 0 0 0 0 0 0 
0 0 0 0 0 0 0 0 0 
0 0 0 0 0 0 0 0 0 
0 0 0 0 0 0 0 0 0 
0 0 0 0 0 0 0 0 0 
0 0 0 0 0 0 0 0 0 
0 0 0 0 0 0 0 0 0 
0 0 0 0 0 0 -1 0 0 
0 0 0 0 0 0 0 0 0 
0 0 0 0 0 0 0 0 0 
0 0 0 0 0 0 0 0 0 
0 0 0 0 0 0 0 0 0 
0 0 0 0 0 0 0 0 0 
0 0 0 0 0 0 0 0 0 
0 0 0 0 0 0 0 0 0 
0 0 0 0 0 0 0 0 0 
0 1 0 0 0 0 0 0 0 
0 0 0 0 0 0 0 0 0 
0 0 0 0 0 0 0 0 0 
0 0 0 0 0 0 0 0 0 
0 0 0 0 0 0 0 0 0 
0 0 0 0 0 0 0 1 0 
0 0 0 0 0 0 0 0 0 
0 0 0 0 0 0 0 0 0 
0 1 0 0 0 0 0 0 0 
0 0 0 0 0 0 0 0 0 
0 0 0 0 0 0 0 0 0 
0 0 0 0 0 0 0 1 0 
0 0 0 0 1 0 0 0 0 
0 0 0 0 0 0 0 0 0 
0 0 0 0 0 0 0 0 0 
0 0 0 0 0 0 0 0 0 
0 0 0 1 0 0 0 0 0 
0 0 0 0 0 0 0 0 0 
0 0 0 0 0 0 0 0 0 
0 0 0 0 0 0 0 0 0 
0 0 0 0 0 0 0 0 0 
0 0 0 0 0 0 0 0 0 
0 0 0 0 0 0 0 0 0 
0 0 0 0 0 0 0 0 0 
0 0 0 0 0 0 0 0 0 
0 0 0 0 0 0 0 0 0 
0 0 0 0 0 0 0 0 0 
0 0 0 0 0 0 0 0 0 
0 0 0 0 0 0 0 0 0 
-1 0 0 -1 0 0 0 0 0 
0 0 0 0 0 0 0 0 0 
0 0 0 0 0 0 0 0 0 
0 0 0 0 0 0 0 0 0 
0 0 0 0 0 0 0 0 0 
0 0 0 0 0 0 0 0 0 
0 0 0 0 0 0 0 0 0 
0 0 0 0 0 0 0 0 0 
0 0 0 0 0 0 0 0 0 
0 0 0 0 0 0 0 0 0 
0 0 0 0 0 0 0 0 0 
0 0 0 0 0 0 0 0 0 
0 0 0 0 0 0 0 0 0 
0 0 0 0 0 0 0 0 0 
0 0 0 0 0 0 0 0 0 
0 0 0 0 0 0 0 0 0 
0 0 0 0 0 0 0 0 0 
0 0 0 0 0 0 0 0 0 
0 0 0 0 0 0 0 0 0 
0 0 0 0 0 0 0 0 0 