# vtk DataFile Version 4.0
Generated by LIGGGHTS
ASCII
DATASET POLYDATA
POINTS 1577 float
-85.3399 -85.1737 9.99882 -88.5066 -63.6861 9.99891 -72.1433 -100.319 9.99739 
-102.562 -95.3393 9.99774 -89.3371 -110.923 9.99847 -70.3087 -71.9812 9.99981 
-88.3128 -70.538 28.7864 -106.89 -71.5583 9.99854 -74.1663 -59.6693 37.881 
-96.4876 -88.7688 27.8823 -72.9679 -84.1561 25.6786 -102.73 -59.575 37.3852 
-60.8544 -100.048 26.5006 -81.2653 -76.1927 46.6279 -91.4387 -109.334 29.8223 
-62.2658 -75.8585 40.3948 -101.017 -78.2659 44.2872 -108.62 -111.652 19.8535 
-84.6551 -95.4747 42.5445 -109.12 -105.726 38.9463 -66.7115 -103.888 45.2311 
-91.1718 -60.3182 53.687 -68.7241 -87.831 56.9812 -105.86 -94.3834 55.0905 
-57.1219 -87.017 9.99942 -55.9881 -60.2614 29.5662 -14.4495 -76.8034 27.1706 
-10.0838 -86.362 9.99973 -30.3714 -104.811 9.99814 -33.3937 -85.0281 9.99973 
-0.483001 -97.9445 25.3968 -13.3082 -66.6192 9.99784 -47.7745 -77.9734 25.1923 
-41.1754 -96.8951 24.8482 -50.9587 -106.043 9.99828 -10.0727 -106.365 9.99828 
-31.434 -83.142 35.6121 -49.5596 -91.2076 42.0902 -31.3615 -66.6071 24.0078 
-32.9744 -103.137 41.9866 -20.3519 -95.7587 24.7499 -14.2195 -78.0729 47.1282 
-11.2886 -98.6402 42.3429 -31.3145 -67.775 48.4085 -32.6067 -87.9481 54.9896 
-49.0743 -107.234 54.0425 -12.5858 -59.7856 39.1986 -48.6313 -75.9824 55.0254 
11.5384 -93.6698 9.9973 4.56866 -78.7076 21.288 29.2655 -68.8919 17.0763 
54.841 -92.4428 24.8197 39.0982 -84.8051 9.99969 46.2747 -61.1099 9.9984 
49.6288 -72.0851 26.3754 11.3125 -63.6449 9.9964 28.4059 -101.382 17.4754 
46.8602 -103.238 9.99762 3.20729 -85.0277 40.2105 12.498 -113.227 14.9045 
19.9965 -76.2155 33.7684 10.3762 -59.2167 29.4751 36.2023 -87.2792 29.9066 
37.2969 -70.3632 42.0241 13.069 -107.334 36.7163 33.0154 -105.925 36.3966 
52.8932 -107.206 38.1678 44.1868 -91.9007 47.6516 25.5236 -83.3887 51.6005 
55.6493 -62.2405 44.5965 4.53706 -66.4228 47.4237 0.57404 -109.309 54.4023 
23.559 -103.757 53.8831 59.8183 -81.4825 40.7892 58.3891 -79.4975 9.99705 
110.716 -85.7352 19.5335 85.3299 -84.6209 9.99764 86.0465 -103.321 17.0473 
66.478 -63.6223 19.0777 71.9404 -82.0735 24.6324 85.9161 -66.8352 22.5647 
68.345 -97.1724 9.99973 101.089 -70.2767 9.9989 104.73 -102.263 9.99778 
70.7137 -103.505 29.8825 105.906 -68.9975 29.3676 92.8829 -84.6109 28.5147 
101.087 -103.016 30.224 78.0595 -71.3802 40.3851 85.7325 -88.7242 46.7317 
106.031 -70.7337 49.2916 110.015 -87.6673 39.4257 90.9568 -107.725 50.1412 
67.8201 -97.9331 48.8693 102.309 -92.8194 57.1464 72.2541 -59.8508 55.6594 
-57.6514 -56.4967 9.99743 -111.462 -54.8689 20.0222 -101.605 -9.24149 22.3733 
-97.5814 -24.4265 9.99796 -82.4934 -32.3483 20.463 -67.5841 -22.6148 9.99973 
-88.8375 -0.0935239 9.99602 -62.3157 -7.55451 23.2368 -97.0781 -45.2493 9.9981 
-88.2357 -50.2745 27.2172 -113.043 -35.217 16.666 -75.9799 -48.097 9.99838 
-61.9694 -40.4933 22.0739 -81.8303 -11.687 24.7043 -110.53 -12.5775 39.9558 
-68.3247 -24.4232 32.1402 -81.5909 -12.8034 44.6683 -99.6996 -27.8138 29.5945 
-82.5166 -36.0935 40.1089 -68.6039 -45.5608 50.9175 -101.039 -35.5039 48.0109 
-59.9087 -14.0593 47.0314 -111.031 -53.1987 54.4265 -102.889 -5.11091 56.861 
-54.2449 -36.235 40.022 -27.5312 -10.4127 9.99847 -50.8185 -23.8919 22.2917 
-9.04539 -30.0593 9.99964 -33.9712 -52.5738 9.99944 -17.9709 -51.2611 21.9272 
-2.10755 -48.8178 9.99813 -37.6476 -9.65604 27.2805 -7.37041 -10.1297 9.99751 
-47.3387 -6.94749 9.99816 -22.5727 -28.9884 24.6917 -4.08261 -18.0785 28.0498 
-36.1266 -29.6395 9.99952 -4.25822 -1.19051 38.7581 -37.0264 -26.1723 38.54 
-10.7806 -32.1044 40.6329 -42.1838 -41.7773 24.6956 -43.7525 -52.8869 43.5592 
-27.0162 -43.4747 37.9722 -20.7633 -14.5342 38.4961 -38.6945 -12.0877 52.6383 
-21.9291 -24.8711 55.5764 -22.4656 -0.399669 52.5408 -6.46908 -12.0554 55.4007 
-18.395 -0.30979 24.6404 22.9084 -56.7681 44.8663 1.64798 -37.1007 25.763 
49.9613 -10.1744 25.5774 49.2756 -33.6907 20.8914 15.6909 -16.0661 25.8366 
16.9921 -45.4393 16.0176 12.5595 -4.26306 9.99897 38.2966 -19.7001 9.99949 
36.0055 -43.9487 9.99908 10.8558 -27.3101 9.99973 32.5234 -0.535814 9.99767 
33.7697 -24.0088 28.9974 7.87508 -24.5181 42.7305 2.30478 -47.0218 43.1153 
32.3528 -52.2967 27.8027 52.3509 -52.2916 27.5636 50.7232 -20.0706 42.9398 
20.205 -37.7539 34.1998 31.3179 -4.17175 29.6248 19.0438 -8.07327 44.9245 
43.5096 -38.3955 39.4546 15.4109 -38.7542 55.7573 28.7764 -25.9011 48.2691 
38.1541 -6.54268 50.6196 36.4326 -47.1195 56.001 92.5732 -56.2426 38.1659 
113.167 -42.3631 35.259 58.2957 -19.55 9.99881 61.6765 -44.9799 9.9987 
83.3062 -0.882055 25.96 100.072 -49.5508 9.9979 75.4588 -38.1261 23.2142 
96.9131 -29.7491 9.99822 71.7623 -4.32116 9.9975 80.2698 -52.3414 9.99722 
77.9727 -23.3309 9.99643 69.239 -15.6992 26.2885 107.993 -16.8482 20.5207 
93.5633 -7.22052 9.99973 63.224 -35.1061 38.7408 71.0523 -53.2458 35.5506 
89.1043 -20.0193 26.2751 95.0343 -39.6558 27.2684 72.0815 -3.95484 42.2232 
84.1604 -20.4523 45.6468 102.624 -25.9749 39.7533 97.6332 -6.63834 38.6691 
80.9377 -40.1448 46.9785 100.44 -42.5809 50.6827 104.329 -14.2854 55.8905 
65.5628 -16.9252 55.9802 -105.845 16.0344 26.5325 -69.6445 5.52131 9.99806 
-98.618 24.659 9.99909 -78.8309 27.566 9.99657 -84.1046 13.8343 23.5433 
-64.5089 41.5242 9.99904 -80.1881 48.6479 21.0433 -96.733 46.5781 9.99949 
-108.169 5.03125 9.99705 -72.9775 3.192 36.3055 -92.9118 1.64182 36.7239 
-92.9153 31.2164 28.0341 -67.8118 44.4886 41.565 -72.9892 29.8274 28.9874 
-108.698 10.2636 45.4657 -105.83 46.4833 27.8585 -100.615 28.5734 46.3007 
-64.5755 24.6124 46.3621 -83.4311 18.9377 42.8672 -88.6955 47.335 39.0956 
-62.9429 5.95668 53.3821 -61.4085 54.0995 25.2371 -60.5707 14.5137 25.3828 
-80.7637 39.7572 56.0509 -84.9307 3.59959 55.6114 -51.55 1.41332 37.5068 
-29.1779 55.3424 9.99617 -54.0351 35.5322 26.1413 -19.8759 13.2303 9.99819 
-25.6319 22.8398 26.5663 -41.422 54.5125 25.7867 -51.9172 23.9164 9.9989 
-44.4963 42.4876 9.99994 -23.2249 35.5379 9.99977 -1.81678 7.79095 16.9257 
-38.7214 10.1019 15.9168 -4.75632 26.3196 9.99708 -8.76121 52.9138 9.99973 
-31.6524 39.8335 35.2239 -5.97314 26.1364 29.9556 -46.4891 21.2221 37.8966 
-9.8803 45.7271 29.0203 -15.1281 36.4256 45.9628 -32.3827 7.08457 36.8713 
-30.4355 23.989 49.4963 -12.7112 15.606 45.5637 -48.9464 39.3624 45.9506 
-31.1862 42.894 55.973 52.3419 2.13763 9.99809 15.0409 16.0295 9.99973 
38.3059 41.367 23.4324 24.292 25.1443 25.28 51.3792 34.404 9.99749 
51.2421 19.88 23.7446 23.8205 44.4607 9.99772 36.5409 20.9833 10.0064 
6.53185 40.116 19.064 12.9361 3.70124 29.7949 20.7536 44.7527 32.3979 
45.981 6.68026 37.8191 26.7485 10.2684 42.6857 7.98974 18.6303 42.148 
43.1317 29.8593 39.0593 24.1744 29.9115 45.4262 43.8595 51.2556 39.9025 
4.3565 38.3911 41.9145 50.9048 23.7282 56.4345 27.1366 48.6654 51.7069 
4.67665 54.8615 55.5931 6.27587 3.46983 55.1076 56.4815 0.80952 53.7962 
112.658 39.8367 53.7958 113.683 37.0489 9.99865 57.5589 38.8191 28.4979 
104.686 3.54595 22.9709 93.1934 19.6501 25.8882 65.5144 17.186 9.99839 
109.289 31.2034 28.6121 84.5659 11.1025 9.99899 104.032 54.5651 9.99884 
64.1323 53.1039 9.99965 105.311 18.7846 9.99972 93.7144 35.079 9.99972 
74.0288 25.233 27.1274 63.9515 4.61952 26.0899 73.7201 35.5521 9.99913 
89.3225 39.0008 29.1328 77.8858 29.1356 46.3774 104.807 48.5119 37.5709 
62.5021 17.3496 41.4436 73.2998 50.4757 32.535 101.161 23.3648 45.1178 
86.1891 10.4309 42.1977 84.1266 52.6306 9.99824 62.3829 42.763 47.5017 
101.877 5.47562 54.0316 92.6684 40.4364 53.7041 -60.042 104.141 9.99944 
-98.3684 99.4714 16.6924 -65.8631 82.728 9.99804 -70.5926 63.225 9.99711 
-73.0328 112.275 24.0692 -102.94 81.1887 9.9992 -90.4537 65.5673 9.99747 
-108.486 63.951 18.4916 -70.5358 73.5334 27.1327 -102.347 82.1242 32.2904 
-79.5247 99.6322 9.99775 -88.7138 65.1021 29.9139 -86.2325 84.0652 20.6071 
-106.822 63.6206 38.4179 -107.074 102.808 34.4902 -71.8925 87.539 41.3441 
-87.6642 98.0044 34.8754 -89.0288 76.7122 46.1949 -74.456 63.2178 43.8094 
-83.3513 113.114 47.249 -59.7132 92.5511 26.2951 -104.511 90.8524 50.3169 
-85.2914 94.55 54.4299 -60.9093 101.111 51.0987 -55.3422 110.365 34.2658 
-4.52373 88.2089 24.4896 -1.84891 101.731 9.99936 -15.3549 79.6569 9.99973 
-21.5368 105.248 9.99905 -26.0193 90.6921 22.9603 -34.1312 73.4509 16.8833 
-50.3283 63.9491 9.99983 -41.2872 105.699 16.7635 -4.80108 68.296 22.6496 
-8.36775 111.777 27.3142 -46.4654 87.6063 9.99824 -32.6399 59.737 45.2915 
-27.7752 108.872 31.1605 -22.6621 61.0751 28.0119 -33.0233 77.6473 36.4041 
-50.5852 72.6835 28.2247 -42.0446 95.4558 35.201 -23.8435 90.4609 48.7095 
-13.1207 76.8788 38.6832 -52.4157 58.7509 42.4826 -12.2362 57.8307 44.7654 
-53.0427 82.3513 45.5597 -14.9904 108.897 46.5403 -35.2882 106.79 50.2294 
-3.93842 92.382 48.8021 -36.9429 76.1005 55.9542 44.2132 57.218 9.99866 
55.2971 60.6087 26.2969 25.7807 72.0833 9.99852 32.056 102.089 9.99765 
45.4535 77.5934 9.99973 11.78 59.194 16.1553 51.3537 96.8424 9.99926 
15.431 94.5923 18.1999 32.5565 85.5312 23.1597 6.8409 78.5059 9.99577 
44.3877 110.207 23.4873 7.10042 101.661 34.9479 27.3518 103.517 31.5482 
15.3769 76.4902 27.9661 48.7246 92.4448 32.6868 31.2894 60.0534 24.9945 
5.62351 57.3876 35.7761 20.9502 88.4305 43.0102 42.162 71.0769 37.6513 
55.7276 103.504 47.8093 5.65233 75.0916 45.3835 36.0288 107.029 49.2207 
23.5238 66.3911 43.1836 34.2419 78.9028 54.5219 55.485 79.2268 50.1408 
15.796 105.866 52.4583 45.9013 62.735 56.149 112.315 108.61 51.9913 
62.7037 79.1534 27.4039 90.8025 58.8989 27.7761 66.0754 110.786 9.99973 
95.8034 105.731 27.354 79.1513 94.8546 25.2607 105.807 75.7792 9.99753 
68.7319 86.9466 9.99954 88.7148 86.1605 9.99907 105.734 105.553 9.99714 
77.0136 70.0505 16.7745 85.7388 105.968 9.99715 110.455 90.6774 22.5017 
86.2801 77.7352 32.7452 104.708 93.4069 41.4598 63.0544 105.993 29.3576 
105.342 72.4959 29.7194 109.096 75.4054 49.1459 86.2212 63.4202 46.7103 
86.7096 101.518 44.6589 70.0835 90.6035 42.5699 65.8103 62.4498 46.6944 
[...]
POINT_DATA 1577
FIELD FieldData 7
id 1 1577 int
96 161 204 266 280 295 360 366 32 
37 43 200 145 9 235 300 371 34 
309 334 193 362 555 587 172 21 3 
130 181 206 217 240 274 305 313 356 
64 124 136 330 346 13 273 184 354 
1243 326 1181 5 51 70 78 84 119 
142 227 262 263 139 125 158 175 283 
365 40 347 246 162 377 103 1530 1076 
1244 41 272 95 97 151 167 250 253 
256 303 333 16 76 169 277 350 109 
120 260 291 322 1305 453 231 118 35 
68 73 106 111 153 205 289 293 320 
338 348 81 112 159 234 302 10 186 
223 290 261 147 11 22 44 65 94 
128 152 155 164 232 288 294 8 93 
100 335 173 91 304 221 247 1436 683 
323 66 357 18 20 24 27 79 80 
117 329 122 47 90 170 265 298 321 
352 59 315 98 75 194 195 1371 229 
299 249 218 56 87 104 121 188 192 
201 284 286 358 113 138 163 254 83 
63 144 244 267 370 1412 528 36 67 
99 108 137 226 233 331 351 312 134 
212 239 281 285 363 2 189 197 241 
279 287 14 215 711 171 19 72 82 
178 230 252 297 310 314 372 31 242 
1 185 208 101 38 116 85 191 359 
332 336 114 127 176 199 269 328 367 
373 42 102 150 196 306 48 238 258 
168 17 209 641 30 143 224 236 49 
140 45 123 149 210 213 219 222 245 
248 255 364 50 60 154 177 308 325 
278 88 110 344 156 7 15 28 57 
129 198 203 216 275 316 327 4 126 
228 270 69 133 141 157 376 131 1271 
1505 165 26 61 132 146 182 183 202 
292 339 341 355 378 23 160 180 243 
259 296 12 55 58 135 220 301 375 
1479 1459 311 174 39 46 62 89 148 
179 282 340 349 25 71 77 92 317 
337 33 86 211 307 264 318 343 369 
410 1542 696 225 166 268 29 53 54 
214 257 271 353 361 374 52 251 319 
324 115 187 237 276 345 74 934 680 
342 1443 411 701 798 1100 1482 1571 889 
1235 1307 1320 1091 539 643 726 1231 1203 
1067 1208 1390 737 1535 541 566 769 828 
1343 1553 509 1166 1551 995 423 710 1554 
1023 383 508 1239 397 1501 1171 735 1028 
417 746 515 707 1417 1152 412 546 973 
1103 1230 401 621 876 989 603 1400 393 
679 1386 960 1007 517 790 1421 628 606 
1281 1176 435 1288 725 682 1204 368 745 
1207 627 740 970 1049 481 1154 1190 1238 
1002 1223 636 1282 1356 1574 1306 386 1502 
1089 610 589 1321 6 916 1098 1205 1477 
644 821 1145 601 384 504 608 536 732 
810 850 691 1013 985 1368 519 1556 875 
482 530 1295 1011 777 105 1012 1532 429 
448 611 624 785 1155 629 1111 1259 1350 
409 1085 488 460 1322 1380 1444 674 1032 
660 767 1025 1512 522 1031 1253 1339 1511 
1003 808 545 793 1358 1391 605 917 1340 
503 1150 553 404 998 908 418 1168 107 
1180 1414 434 442 915 1005 1118 1328 531 
775 1269 507 562 1541 585 1372 1074 1336 
381 449 1529 961 812 706 612 1066 1264 
1285 616 1251 1327 1338 426 607 1133 1470 
602 860 866 895 950 939 1383 1447 1538 
708 1220 794 878 884 948 1009 1222 390 
838 1174 1189 1330 1428 1573 431 395 811 
1192 560 1299 1513 661 668 854 430 671 
1108 190 946 958 1053 559 1058 1157 768 
1063 1153 1504 547 1062 475 604 880 999 
1355 637 1258 748 1186 971 450 1040 457 
405 398 1575 1000 1266 1200 403 474 1156 
1430 1514 897 1046 996 1104 758 979 387 
1276 1043 1008 1114 1345 596 1309 1500 714 
997 677 1387 207 712 1394 413 780 836 
1075 416 1134 1273 1409 852 535 446 1377 
440 1527 1404 752 1468 584 1318 1381 565 
982 935 1047 1165 1233 529 532 689 1035 
1467 394 666 1130 975 1090 1373 1454 498 
987 1015 1315 675 1014 1101 779 890 1021 
1248 1485 543 485 1106 1374 486 1036 439 
1037 762 945 1296 391 1480 1092 1488 1228 
518 1123 1286 871 664 830 1446 1543 952 
638 631 736 757 1478 663 669 734 867 
1518 763 1170 1197 1520 525 665 1010 428 
902 1439 1099 802 1139 493 658 548 1369 
1473 402 1278 1310 649 1162 537 833 926 
716 1127 1362 1389 676 1547 1352 595 865 
1177 1277 1438 1017 623 913 814 981 639 
1549 1054 1218 516 791 807 1084 573 479 
1071 672 1080 1342 1254 885 1060 803 953 
1242 1528 520 888 909 1316 750 1050 630 
634 1016 686 1385 549 1135 1427 462 459 
1562 396 1496 1121 1148 809 978 1333 877 
896 468 1365 651 692 656 764 1044 1142 
1143 1138 1216 437 1457 659 931 1303 1540 
1126 1261 1120 1301 1533 967 776 385 380 
730 1024 433 1202 1357 577 1265 1324 1415 
1495 864 1132 1308 1526 969 1225 1030 1476 
1183 1312 572 813 957 747 874 1199 438 
494 502 1566 1422 943 1169 1237 513 1392 
1397 826 1167 1370 1440 642 408 1039 569 
1088 632 744 1319 1004 955 694 940 1313 
1045 788 1279 1419 1522 420 443 618 1226 
1366 1423 801 755 1052 894 919 427 1006 
1497 1367 1570 540 590 1105 491 815 1424 
893 1462 883 1051 1094 1236 1406 526 731 
844 954 717 1247 1072 719 1093 501 538 
1469 1149 715 781 1344 907 554 455 1095 
521 556 901 389 968 1112 1363 693 1534 
593 579 1402 753 900 1292 1326 461 609 
1249 399 424 1283 1332 1137 699 456 1113 
447 533 824 1274 831 870 1379 990 1448 
818 984 1160 1539 690 495 843 1182 891 
1503 463 1131 795 640 452 1359 796 842 
941 1102 1193 1109 567 1083 937 966 1210 
721 688 1256 1082 832 839 848 704 487 
741 879 1079 1472 1563 622 856 1163 1524 
1115 1187 822 933 1458 534 662 1567 400 
484 1393 1061 1198 477 903 524 1195 1460 
392 552 770 697 723 1097 928 1317 1196 
1275 1449 489 678 976 613 1164 1334 1499 
1260 419 1246 473 751 841 1471 1569 673 
414 1270 906 464 1078 684 782 432 861 
938 1486 506 1019 1565 1214 892 1284 965 
1224 600 1490 787 817 918 1122 1560 1335 
574 1212 1418 772 1250 1521 783 514 564 
834 1413 646 1410 1349 1376 863 930 925 
1323 670 1401 1405 421 576 1188 1361 923 
1206 1398 1525 1353 592 904 470 561 724 
921 1559 1561 1055 1411 786 1287 1116 1209 
1022 729 422 862 1136 1341 1346 1576 705 
1433 625 784 1298 1523 944 597 653 1129 
929 703 805 648 1442 1184 980 727 759 
1509 1048 480 1140 1128 1178 568 718 1407 
1550 756 872 1297 1426 1519 920 1219 1557 
379 792 835 857 695 853 1234 1147 749 
1536 542 466 527 1396 949 1179 932 591 
1348 1027 1211 582 655 1494 774 406 882 
483 1572 1069 914 887 436 1117 425 1020 
1498 647 911 1241 956 492 1158 570 1293 
557 1300 1077 472 1268 1429 575 709 451 
972 1262 1475 490 1034 1304 687 1213 1517 
1029 1435 804 1018 1065 1506 1548 511 1291 
881 1245 496 974 1257 761 571 827 1314 
1481 415 733 816 1552 620 1172 992 1096 
1546 1445 849 558 1280 845 1420 594 458 
959 1489 986 1229 1059 1289 617 588 1151 
868 469 851 619 497 444 512 1119 1227 
578 1001 983 1492 599 1107 1073 654 778 
563 1070 500 1453 1466 583 1491 963 1125 
1455 550 837 1451 1510 829 988 523 742 
1388 700 898 1042 1191 922 1378 1431 635 
720 1141 1441 1463 1465 551 1068 1564 912 
1057 994 645 825 1483 1232 467 1311 615 
722 633 1375 1351 899 1484 685 1215 1452 
1252 993 681 1144 471 1087 1173 1555 478 
977 760 806 1201 1416 698 454 1064 1026 
598 947 1159 1185 1240 964 754 886 1110 
936 586 927 1294 441 1161 657 1434 1487 
1461 1331 962 1493 445 820 581 991 1329 
799 1033 765 1325 1558 766 739 1456 580 
1516 1408 1086 702 823 869 1384 1272 773 
614 1464 1255 1537 626 1395 1263 388 1038 
910 1577 1360 1507 924 650 743 951 1425 
819 797 847 738 1217 1544 1124 1474 1337 
1175 1403 1354 855 652 1382 771 1545 407 
1568 1081 873 858 544 667 1515 499 859 
1056 1290 1531 1364 1267 713 382 1399 1437 
789 800 1432 1221 728 905 1302 510 505 
1347 1450 476 846 840 1146 465 1508 942 
1194 1041 
type 1 1577 int
1 1 1 1 1 1 1 1 1 
1 1 1 1 1 1 1 1 1 
1 1 1 1 1 1 1 1 1 
1 1 1 1 1 1 1 1 1 
1 1 1 1 1 1 1 1 1 
1 1 1 1 1 1 1 1 1 
1 1 1 1 1 1 1 1 1 
1 1 1 1 1 1 1 1 1 
1 1 1 1 1 1 1 1 1 
1 1 1 1 1 1 1 1 1 
1 1 1 1 1 1 1 1 1 
1 1 1 1 1 1 1 1 1 
1 1 1 1 1 1 1 1 1 
1 1 1 1 1 1 1 1 1 
1 1 1 1 1 1 1 1 1 
1 1 1 1 1 1 1 1 1 
1 1 1 1 1 1 1 1 1 
1 1 1 1 1 1 1 1 1 
1 1 1 1 1 1 1 1 1 
1 1 1 1 1 1 1 1 1 
1 1 1 1 1 1 1 1 1 
1 1 1 1 1 1 1 1 1 
1 1 1 1 1 1 1 1 1 
1 1 1 1 1 1 1 1 1 
1 1 1 1 1 1 1 1 1 
1 1 1 1 1 1 1 1 1 
1 1 1 1 1 1 1 1 1 
1 1 1 1 1 1 1 1 1 
1 1 1 1 1 1 1 1 1 
1 1 1 1 1 1 1 1 1 
1 1 1 1 1 1 1 1 1 
1 1 1 1 1 1 1 1 1 
1 1 1 1 1 1 1 1 1 
1 1 1 1 1 1 1 1 1 
1 1 1 1 1 1 1 1 1 
1 1 1 1 1 1 1 1 1 
1 1 1 1 1 1 1 1 1 
1 1 1 1 1 1 1 1 1 
1 1 1 1 1 1 1 1 1 
1 1 1 1 1 1 1 1 1 
1 1 1 1 1 1 1 1 1 
1 1 1 1 1 1 1 1 1 
1 1 1 1 1 1 1 1 1 
1 1 1 1 1 1 1 1 1 
1 1 1 1 1 1 1 1 1 
1 1 1 1 1 1 1 1 1 
1 1 1 1 1 1 1 1 1 
1 1 1 1 1 1 1 1 1 
1 1 1 1 1 1 1 1 1 
1 1 1 1 1 1 1 1 1 
1 1 1 1 1 1 1 1 1 
1 1 1 1 1 1 1 1 1 
1 1 1 1 1 1 1 1 1 
1 1 1 1 1 1 1 1 1 
1 1 1 1 1 1 1 1 1 
1 1 1 1 1 1 1 1 1 
1 1 1 1 1 1 1 1 1 
1 1 1 1 1 1 1 1 1 
1 1 1 1 1 1 1 1 1 
1 1 1 1 1 1 1 1 1 
1 1 1 1 1 1 1 1 1 
1 1 1 1 1 1 1 1 1 
1 1 1 1 1 1 1 1 1 
1 1 1 1 1 1 1 1 1 
1 1 1 1 1 1 1 1 1 
1 1 1 1 1 1 1 1 1 
1 1 1 1 1 1 1 1 1 
1 1 1 1 1 1 1 1 1 
1 1 1 1 1 1 1 1 1 
1 1 1 1 1 1 1 1 1 
1 1 1 1 1 1 1 1 1 
1 1 1 1 1 1 1 1 1 
1 1 1 1 1 1 1 1 1 
1 1 1 1 1 1 1 1 1 
1 1 1 1 1 1 1 1 1 
1 1 1 1 1 1 1 1 1 
1 1 1 1 1 1 1 1 1 
1 1 1 1 1 1 1 1 1 
1 1 1 1 1 1 1 1 1 
1 1 1 1 1 1 1 1 1 
1 1 1 1 1 1 1 1 1 
1 1 1 1 1 1 1 1 1 
1 1 1 1 1 1 1 1 1 
1 1 1 1 1 1 1 1 1 
1 1 1 1 1 1 1 1 1 
1 1 1 1 1 1 1 1 1 
1 1 1 1 1 1 1 1 1 
1 1 1 1 1 1 1 1 1 
1 1 1 1 1 1 1 1 1 
1 1 1 1 1 1 1 1 1 
1 1 1 1 1 1 1 1 1 
1 1 1 1 1 1 1 1 1 
1 1 1 1 1 1 1 1 1 
1 1 1 1 1 1 1 1 1 
1 1 1 1 1 1 1 1 1 
1 1 1 1 1 1 1 1 1 
1 1 1 1 1 1 1 1 1 
1 1 1 1 1 1 1 1 1 
1 1 1 1 1 1 1 1 1 
1 1 1 1 1 1 1 1 1 
1 1 1 1 1 1 1 1 1 
1 1 1 1 1 1 1 1 1 
1 1 1 1 1 1 1 1 1 
1 1 1 1 1 1 1 1 1 
1 1 1 1 1 1 1 1 1 
1 1 1 1 1 1 1 1 1 
1 1 1 1 1 1 1 1 1 
1 1 1 1 1 1 1 1 1 
1 1 1 1 1 1 1 1 1 
1 1 1 1 1 1 1 1 1 
1 1 1 1 1 1 1 1 1 
1 1 1 1 1 1 1 1 1 
1 1 1 1 1 1 1 1 1 
1 1 1 1 1 1 1 1 1 
1 1 1 1 1 1 1 1 1 
1 1 1 1 1 1 1 1 1 
1 1 1 1 1 1 1 1 1 
1 1 1 1 1 1 1 1 1 
1 1 1 1 1 1 1 1 1 
1 1 1 1 1 1 1 1 1 
1 1 1 1 1 1 1 1 1 
1 1 1 1 1 1 1 1 1 
1 1 1 1 1 1 1 1 1 
1 1 1 1 1 1 1 1 1 
1 1 1 1 1 1 1 1 1 
1 1 1 1 1 1 1 1 1 
1 1 1 1 1 1 1 1 1 
1 1 1 1 1 1 1 1 1 
1 1 1 1 1 1 1 1 1 
1 1 1 1 1 1 1 1 1 
1 1 1 1 1 1 1 1 1 
1 1 1 1 1 1 1 1 1 
1 1 1 1 1 1 1 1 1 
1 1 1 1 1 1 1 1 1 
1 1 1 1 1 1 1 1 1 
1 1 1 1 1 1 1 1 1 
1 1 1 1 1 1 1 1 1 
1 1 1 1 1 1 1 1 1 
1 1 1 1 1 1 1 1 1 
1 1 1 1 1 1 1 1 1 
1 1 1 1 1 1 1 1 1 
1 1 1 1 1 1 1 1 1 
1 1 1 1 1 1 1 1 1 
1 1 1 1 1 1 1 1 1 
1 1 1 1 1 1 1 1 1 
1 1 1 1 1 1 1 1 1 
1 1 1 1 1 1 1 1 1 
1 1 1 1 1 1 1 1 1 
1 1 1 1 1 1 1 1 1 
1 1 1 1 1 1 1 1 1 
1 1 1 1 1 1 1 1 1 
1 1 1 1 1 1 1 1 1 
1 1 1 1 1 1 1 1 1 
1 1 1 1 1 1 1 1 1 
1 1 1 1 1 1 1 1 1 
1 1 1 1 1 1 1 1 1 
1 1 1 1 1 1 1 1 1 
1 1 1 1 1 1 1 1 1 
1 1 1 1 1 1 1 1 1 
1 1 1 1 1 1 1 1 1 
1 1 1 1 1 1 1 1 1 
1 1 1 1 1 1 1 1 1 
1 1 1 1 1 1 1 1 1 
1 1 1 1 1 1 1 1 1 
1 1 1 1 1 1 1 1 1 
1 1 1 1 1 1 1 1 1 
1 1 1 1 1 1 1 1 1 
1 1 1 1 1 1 1 1 1 
1 1 1 1 1 1 1 1 1 
1 1 1 1 1 1 1 1 1 
1 1 1 1 1 1 1 1 1 
1 1 1 1 1 1 1 1 1 
1 1 1 1 1 1 1 1 1 
1 1 1 1 1 1 1 1 1 
1 1 1 1 1 1 1 1 1 
1 1 
i 3 1577 int
0 0 0 0 0 0 0 0 0 
0 0 0 0 0 0 0 0 0 
0 0 0 0 0 0 0 0 0 
0 0 0 0 0 0 0 0 0 
0 0 0 0 0 0 0 0 0 
0 0 0 0 0 0 0 1 0 
0 0 0 0 0 0 0 0 0 
0 0 0 0 0 0 0 0 0 
0 0 0 0 0 0 0 0 0 
0 0 0 0 0 0 0 0 0 
0 0 0 0 0 0 0 0 0 
0 0 0 0 0 0 0 0 0 
0 0 0 0 0 0 0 0 0 
0 0 0 0 0 0 0 0 0 
0 0 0 0 0 0 0 0 0 
0 0 0 0 0 0 0 0 0 
0 0 0 0 0 0 0 0 0 
0 0 0 0 0 0 0 0 0 
0 0 0 0 0 0 0 0 0 
0 0 0 0 0 0 0 0 0 
0 0 0 0 0 0 0 0 0 
0 0 0 0 0 0 0 0 0 
0 0 0 0 0 0 0 0 0 
0 0 0 0 0 0 0 0 0 
0 0 0 0 0 0 0 0 0 
0 0 0 0 0 0 0 0 0 
0 0 0 0 0 0 0 0 0 
0 0 0 0 0 0 0 0 0 
0 0 0 0 0 0 0 0 0 
0 0 0 0 0 0 0 0 0 
0 0 0 0 0 0 0 0 0 
0 0 0 0 0 0 0 0 0 
0 0 0 0 0 0 0 0 0 
0 0 0 0 0 0 0 0 0 
0 0 0 0 0 0 0 0 0 
0 0 0 0 0 0 0 0 0 
0 0 0 0 0 0 0 0 0 
0 0 0 0 0 0 0 0 0 
0 0 0 0 0 0 0 0 0 
0 0 0 0 0 0 0 0 0 
0 0 0 0 0 0 0 0 0 
0 0 0 0 0 0 0 0 0 
0 0 0 0 0 0 0 0 0 
0 0 0 0 0 0 0 0 0 
0 0 0 0 0 0 0 0 0 
0 0 0 0 0 0 0 0 0 
0 0 0 0 0 0 0 0 0 
0 0 0 0 0 0 0 0 0 
0 0 0 0 0 0 0 0 0 
0 0 0 0 0 0 0 0 0 
0 0 0 0 0 0 0 0 0 
0 0 0 0 0 0 0 0 0 
0 0 0 0 0 0 0 0 0 
0 0 0 0 0 0 0 0 0 
0 0 0 0 0 0 0 0 0 
0 0 0 0 0 0 0 0 0 
0 0 0 0 0 0 0 0 0 
-1 0 0 0 0 0 0 0 0 
0 0 0 0 0 0 0 0 0 
0 0 0 0 0 0 0 0 0 
0 0 0 0 0 0 0 0 0 
0 0 0 0 0 0 0 0 0 
0 0 0 0 0 0 0 0 0 
0 0 0 0 0 0 0 0 0 
0 0 0 0 0 0 0 0 0 
0 0 0 0 0 0 0 0 0 
0 0 0 0 0 0 0 0 0 
0 0 0 0 0 0 0 0 0 
0 0 0 0 0 0 0 0 0 
0 0 0 0 0 0 0 0 0 
0 0 0 0 0 0 0 0 0 
0 0 0 0 0 0 0 0 0 
0 0 0 0 0 0 0 0 0 
0 0 0 0 0 0 0 0 0 
0 0 0 0 0 0 0 0 0 
0 0 0 0 0 0 0 0 0 
0 0 0 0 0 0 0 0 0 
0 0 0 0 0 0 0 0 0 
0 0 0 0 0 0 0 0 0 
0 0 0 0 0 0 0 0 0 
0 0 0 0 0 0 0 0 0 
0 0 0 0 0 0 0 0 0 
0 0 0 0 0 0 0 0 0 
0 0 0 0 0 0 0 0 0 
0 0 0 0 0 0 0 0 0 
0 0 0 0 0 0 0 0 0 
0 0 0 0 0 0 0 0 0 
0 0 0 0 0 0 0 0 0 
0 0 0 0 0 0 0 0 0 
0 0 0 0 0 0 0 0 0 
0 0 0 0 0 0 0 0 0 
0 0 0 0 0 0 0 0 0 
0 0 0 0 0 0 0 0 0 
0 0 0 0 0 0 0 0 0 
0 0 0 0 0 0 0 0 0 
0 0 0 0 0 0 0 0 0 
0 0 0 0 0 0 0 0 0 
0 0 0 0 0 0 0 0 0 
0 0 0 0 0 0 0 0 0 
0 0 0 0 0 0 0 0 0 
0 0 0 0 0 0 0 0 0 
0 0 0 0 0 0 0 0 0 
0 0 0 0 0 0 0 0 0 
0 0 0 0 0 0 0 0 0 
0 0 0 0 0 0 0 0 0 
0 0 0 0 0 0 0 0 0 
0 0 0 0 0 0 0 0 0 
0 0 0 0 0 0 0 0 0 
0 0 0 0 0 0 0 0 0 
0 0 0 0 0 0 0 0 0 
0 0 0 0 0 0 0 0 0 
0 0 0 0 0 0 0 0 0 
0 0 0 0 0 0 0 0 0 
0 0 0 0 0 0 0 0 0 
0 0 0 0 0 0 0 0 0 
0 0 0 0 0 0 0 0 0 
0 0 0 0 0 0 0 0 0 
0 0 0 0 0 0 0 0 0 
0 0 0 0 0 0 0 0 0 
0 0 0 0 0 0 0 0 0 
0 0 0 0 0 0 0 0 0 
0 0 0 0 0 0 0 0 0 
0 0 0 0 0 0 0 0 0 
0 0 0 0 0 0 -1 0 0 
0 0 0 0 0 0 0 0 0 
0 0 0 0 0 0 0 0 0 
0 0 0 0 0 0 0 0 0 
0 0 0 0 0 0 0 0 0 
0 0 0 0 0 0 0 0 0 
0 0 0 0 0 0 0 0 0 
0 0 0 0 0 0 0 0 0 
0 0 0 0 0 0 0 0 0 
0 0 0 0 0 0 0 0 0 
0 0 0 0 0 0 0 0 0 
0 0 0 0 0 0 0 0 0 
0 0 0 0 0 0 0 0 0 
0 0 0 0 0 0 0 0 0 
0 0 0 0 0 0 0 0 0 
0 0 0 0 0 0 0 0 0 
0 0 0 0 1 0 0 0 0 
0 0 0 0 0 0 0 0 0 
0 0 0 0 0 0 0 0 0 
0 0 0 0 0 0 0 0 0 
0 0 0 0 0 0 0 0 0 
0 0 0 0 0 0 0 0 0 
0 0 0 0 0 0 0 0 0 
0 0 0 0 0 0 0 0 0 
0 0 0 0 0 0 0 0 0 
0 0 0 0 0 0 0 0 0 
0 0 0 0 0 0 0 0 0 
0 0 0 0 0 0 0 0 0 
0 0 0 0 0 0 0 0 0 
0 0 0 0 0 0 0 0 0 
0 0 0 0 0 0 0 0 0 
0 0 0 0 0 0 0 0 0 
0 0 0 0 0 0 0 0 0 
0 0 0 0 0 0 0 0 0 
0 0 0 0 0 0 0 0 0 
0 0 0 0 0 0 0 0 0 
0 0 0 0 0 0 0 0 0 
0 0 0 0 0 0 0 0 0 
0 0 0 0 0 0 0 0 0 
0 0 0 0 0 0 0 0 0 
0 0 0 0 0 0 0 0 0 
0 0 0 0 0 0 0 0 0 
0 0 0 0 0 0 0 1 0 
-1 0 0 0 0 0 0 0 0 
0 0 0 0 0 0 0 0 0 
0 0 0 0 0 0 0 0 0 
0 0 0 0 0 0 0 0 0 
0 0 0 0 0 0 0 0 0 
0 0 0 0 0 0 0 0 0 
0 0 0 0 0 0 0 0 0 
0 0 0 0 0 0 0 0 0 
0 0 0 0 0 0 0 0 0 
0 0 0 0 0 0 0 0 0 
0 0 0 0 0 0 0 0 0 
0 0 0 0 0 0 0 0 0 
0 0 0 0 0 0 0 0 0 
0 0 0 0 0 0 0 0 0 
0 0 0 0 0 0 0 0 0 
0 0 0 0 0 0 0 0 0 
0 0 0 0 0 0 0 0 0 
0 0 0 0 0 0 0 0 0 
0 0 0 0 0 0 0 0 0 
0 0 0 0 0 0 0 0 0 
0 0 0 0 0 0 0 0 0 
0 0 0 0 0 0 0 0 0 
0 0 0 0 0 0 0 0 0 
0 0 0 0 0 0 0 0 0 
0 0 0 0 0 0 0 0 0 
0 0 0 0 0 0 0 0 0 
0 0 0 0 0 0 0 0 0 
0 0 0 0 0 0 0 0 0 
0 0 0 0 0 0 0 0 0 
0 0 0 0 0 0 0 0 0 
0 0 0 0 0 0 0 0 0 
0 0 0 0 0 0 0 0 0 
0 0 0 0 0 0 0 0 0 
0 0 0 0 0 0 0 0 0 
0 0 0 0 0 0 0 0 0 
0 0 0 0 0 0 0 0 0 
0 0 0 0 0 0 0 0 0 
0 0 0 0 0 0 0 0 0 
0 0 0 0 0 0 0 0 0 
0 0 0 0 0 0 0 0 0 
0 0 0 0 0 0 0 0 0 
0 0 0 0 0 0 0 0 0 
0 0 0 0 0 0 0 0 0 
0 0 0 0 0 0 0 0 0 
0 0 0 0 0 0 0 0 0 
0 0 0 0 0 0 0 0 0 
0 0 0 0 0 0 0 0 0 
0 0 0 0 0 0 0 0 0 
0 0 0 0 0 0 0 0 0 
0 0 0 0 0 0 0 0 0 
0 0 0 0 0 0 0 0 0 
0 0 0 0 0 0 0 0 0 
0 0 0 0 0 0 0 0 0 
0 0 0 0 0 0 0 0 0 
0 0 0 0 0 0 0 0 0 
0 0 0 0 0 0 0 0 0 
0 0 0 0 0 0 0 0 0 
0 0 0 0 0 0 0 0 0 
0 0 0 0 0 0 0 0 0 
0 0 0 0 0 0 0 0 0 
0 0 0 -1 0 0 0 0 0 
0 0 0 0 0 0 0 0 0 
0 0 0 0 0 0 0 0 0 
0 0 0 0 0 0 0 0 0 
0 0 0 0 0 0 0 0 0 
0 0 0 0 0 0 0 0 0 
0 0 0 0 0 0 0 0 0 
0 0 0 0 0 0 0 0 0 
0 0 0 0 0 0 0 0 0 
0 0 0 0 0 0 0 0 0 
0 0 0 0 0 0 0 0 0 
0 0 0 0 0 0 0 0 0 
0 0 0 0 0 0 0 0 0 
0 0 0 0 0 0 0 0 0 
0 0 0 0 0 0 0 0 0 
0 0 0 0 0 0 0 0 0 
0 0 0 0 -1 0 0 -1 0 
0 0 0 0 0 0 0 0 0 
0 0 0 0 0 0 0 0 0 
0 0 0 0 0 0 0 0 0 
0 0 0 0 0 0 0 0 0 
0 0 0 0 0 0 0 0 0 
0 0 0 0 0 0 0 0 0 
0 0 0 0 0 0 0 0 0 
0 0 0 0 0 0 0 0 0 
0 0 0 0 0 0 0 0 0 
0 0 0 0 0 0 0 0 0 
0 0 0 0 0 0 0 0 0 
0 0 0 0 0 0 0 0 0 
0 0 0 0 0 0 0 0 0 
0 0 0 0 0 0 0 0 0 
0 0 0 0 0 0 0 0 0 
0 0 0 0 0 0 0 0 0 
0 0 0 0 0 0 0 0 0 
0 0 0 0 0 0 0 -1 0 
0 0 0 0 0 0 0 0 0 
0 0 0 0 0 0 0 0 0 
0 0 0 0 0 0 0 0 0 
0 0 0 0 0 0 0 0 0 
0 0 0 0 0 0 0 0 0 
0 0 0 0 0 0 0 0 0 
0 0 0 0 0 0 0 0 0 
0 0 0 0 0 0 0 0 0 
0 0 0 0 0 0 0 0 0 
0 0 0 0 0 0 0 0 0 
0 0 0 0 0 0 0 0 0 
0 0 0 0 0 0 0 0 0 
0 0 0 0 0 0 0 0 0 
0 0 0 0 0 0 0 0 0 
0 0 0 0 0 0 0 0 0 
0 0 0 0 0 0 0 0 0 
0 0 0 0 0 0 0 0 0 
0 0 0 0 0 0 0 0 0 
0 0 0 0 0 0 0 0 0 
0 0 0 0 0 0 0 0 0 
0 0 0 0 0 0 0 0 0 
0 0 0 0 0 0 0 0 0 
0 0 0 0 0 0 0 0 0 
0 0 0 0 0 0 0 0 0 
0 0 0 0 0 0 0 0 0 
0 0 0 0 0 0 0 0 0 
0 0 0 0 0 0 0 0 0 
0 0 0 0 0 0 0 0 0 
0 0 0 0 0 0 0 0 0 
0 0 0 0 0 0 0 0 0 
0 0 0 0 0 0 0 0 0 
0 0 0 0 0 0 0 0 0 
0 0 0 0 0 0 0 0 0 
0 0 0 0 0 0 0 0 0 
0 0 0 0 0 0 0 0 0 
0 0 0 0 0 0 0 0 0 
0 0 0 0 0 0 0 0 0 
0 0 0 0 0 0 0 0 0 
0 0 0 0 0 0 0 0 0 
0 0 0 0 0 0 0 0 0 
0 0 0 0 0 0 0 0 0 
0 0 0 0 0 0 0 0 0 
0 0 0 0 0 0 0 0 0 
0 0 0 0 0 0 0 0 0 
0 0 0 0 0 0 0 0 0 
0 0 0 0 0 0 0 0 0 
0 0 0 0 0 0 0 0 0 
0 0 0 0 0 0 0 0 0 
0 0 0 0 0 0 0 0 0 
0 0 0 0 0 0 1 0 0 
0 0 0 0 0 0 0 0 0 
0 0 0 0 0 0 0 0 0 
0 0 0 0 0 0 0 0 0 
0 0 0 0 0 0 0 0 0 
0 0 0 0 0 0 0 0 0 
0 0 0 0 0 0 0 0 0 
0 0 0 0 0 0 0 0 0 
0 0 0 0 0 0 0 0 0 
0 0 0 0 0 0 0 0 0 
0 0 0 0 0 0 0 0 0 
0 0 0 0 0 0 0 0 0 
0 0 0 0 0 0 0 0 0 
0 0 0 0 0 0 0 0 0 
0 0 0 0 0 0 0 0 0 
0 0 0 0 0 0 0 0 0 
0 0 0 0 0 0 0 0 0 
0 0 0 0 0 0 0 0 0 
0 0 0 0 0 0 0 0 0 
0 0 0 0 0 0 0 0 0 
0 0 0 0 0 0 0 0 0 
0 0 0 0 0 0 0 0 0 
0 0 0 0 0 0 0 0 0 
0 0 0 0 0 0 0 0 0 
0 0 0 0 0 0 0 0 0 
0 0 0 0 0 0 0 0 0 
0 0 0 0 0 0 0 0 0 
0 0 0 0 0 0 0 0 0 
0 0 0 0 0 0 0 0 0 
0 0 0 0 0 0 0 0 0 
0 0 0 0 0 0 0 0 0 
0 0 0 0 0 0 0 0 0 
0 0 0 0 0 0 0 0 0 
0 0 0 0 0 0 0 0 0 
0 0 0 0 0 0 0 0 0 
0 0 0 0 0 0 0 0 0 
0 0 0 0 0 0 0 0 0 
0 0 0 0 0 0 0 0 0 
0 0 0 0 0 0 0 0 0 
0 0 0 0 0 0 0 0 0 
0 0 0 0 0 0 0 0 0 
0 0 0 0 0 0 0 0 0 
0 0 0 0 0 0 0 0 0 
0 0 0 0 0 0 0 0 0 
0 0 0 0 0 0 0 0 0 
0 0 0 0 0 0 0 0 0 
0 0 0 0 0 0 0 0 0 
0 0 0 0 0 0 0 0 0 
0 0 0 0 0 0 0 0 0 
0 0 0 0 0 0 0 0 0 
0 0 0 0 0 0 0 0 0 
0 0 0 0 0 0 0 0 0 
0 0 0 0 0 0 0 0 0 
0 0 0 0 0 0 0 0 0 
0 0 0 0 0 0 0 0 0 
0 0 0 0 0 0 0 0 0 
0 0 0 0 0 0 0 0 0 
0 0 0 0 0 0 0 0 0 
0 0 0 0 0 0 0 0 0 
0 0 0 0 0 0 0 0 0 
0 0 0 0 0 0 0 0 0 
0 0 0 0 0 0 0 0 0 
0 0 0 0 0 0 0 0 0 
0 0 0 0 0 0 0 0 0 
0 0 0 0 0 0 0 0 0 
0 0 0 0 0 0 0 0 0 
0 0 0 0 0 0 0 0 0 
0 0 0 0 0 0 0 0 0 
0 0 0 0 0 0 0 0 0 
0 0 0 0 0 0 0 0 0 
0 0 0 0 0 0 0 0 0 
0 0 0 0 0 0 0 0 0 
0 0 0 0 0 0 0 0 0 
0 0 0 0 0 0 0 0 0 
0 0 0 0 0 0 0 0 0 
0 0 0 0 0 0 0 0 0 
0 0 0 0 0 0 0 0 0 
0 0 0 0 0 0 0 0 0 
0 0 0 0 0 0 0 0 0 
0 0 0 0 0 0 0 0 0 
0 0 0 0 0 0 0 0 0 
0 0 0 0 0 0 0 0 0 
0 0 0 0 0 0 0 0 0 
0 0 0 0 0 0 0 0 0 
0 0 0 0 0 0 0 0 0 
0 0 0 0 0 0 0 0 0 
0 0 0 0 0 0 0 0 0 
0 0 0 0 0 0 0 0 0 
0 0 0 0 0 0 0 0 0 
0 0 0 0 0 0 0 0 0 
0 -1 0 0 0 0 0 0 0 
0 0 0 0 0 0 0 0 0 
0 0 0 0 0 0 0 0 0 
0 0 0 0 0 0 0 0 0 
0 0 0 0 0 0 0 0 0 
0 0 0 0 0 0 0 0 0 
0 0 0 0 0 0 0 0 0 
0 0 0 0 0 0 0 0 0 
0 0 0 0 0 0 0 0 0 
0 0 0 0 0 0 0 0 0 
0 0 0 0 0 0 0 0 0 
0 0 0 0 0 0 0 0 0 
0 0 0 0 0 0 0 0 0 
0 0 0 0 0 0 0 1 0 
0 0 0 0 0 0 0 0 0 
0 0 0 0 0 0 0 0 0 
0 0 0 0 0 0 0 0 0 
0 0 0 0 0 0 0 0 0 
0 0 0 0 0 0 0 0 0 
0 0 0 0 0 0 0 0 0 
0 0 0 0 0 0 0 0 0 
0 0 0 0 0 0 0 1 0 
0 0 0 0 0 0 0 0 0 
0 0 0 0 0 0 0 0 0 
0 0 0 0 0 0 0 0 0 
0 0 0 0 0 0 0 0 0 
0 0 0 0 0 0 0 0 0 
0 0 0 0 0 0 0 0 0 
0 0 0 0 0 0 0 0 0 
0 0 0 0 0 0 0 0 0 
0 0 0 0 0 0 0 0 0 
0 0 0 0 0 0 0 0 0 
0 0 0 0 0 0 0 0 0 
0 0 0 0 0 0 0 0 0 
0 0 0 0 0 0 0 0 0 
0 0 0 0 0 0 0 0 0 
0 0 0 0 0 0 0 0 0 
0 0 0 0 0 0 0 0 0 
0 0 0 0 0 0 0 0 0 
0 0 0 0 0 0 0 0 0 
0 0 0 0 0 0 0 0 0 
0 0 0 0 0 0 0 0 0 
0 0 0 0 0 0 0 0 0 
0 0 0 0 0 0 0 0 0 
1 0 0 0 0 0 0 0 0 
0 0 0 0 0 0 0 0 0 
0 0 0 0 0 0 0 0 0 
0 0 0 0 0 0 0 0 0 
0 0 0 0 0 0 0 0 0 
0 0 0 0 0 0 0 0 0 
0 0 0 0 0 0 0 0 0 
0 0 0 0 0 0 0 0 0 
0 0 0 0 0 0 0 0 0 
0 0 0 0 0 0 0 0 0 
0 0 0 0 0 0 0 0 0 
0 0 0 0 0 0 0 0 0 
0 0 0 0 0 0 0 0 0 
0 0 0 0 0 0 0 0 0 
0 0 0 0 0 0 0 0 0 
0 0 0 0 0 0 0 0 0 
0 0 0 0 0 0 0 0 0 
0 0 0 0 0 0 0 0 0 
0 0 0 0 0 0 0 0 0 
0 0 0 0 0 0 0 0 0 
0 0 0 0 0 0 0 0 0 
0 0 0 0 0 0 0 0 0 
0 0 0 0 0 0 0 0 0 
0 0 0 0 0 0 0 0 0 
0 0 0 0 0 0 0 0 0 
0 0 0 0 0 0 0 0 0 
0 0 0 0 0 0 0 0 0 
0 0 0 0 0 0 0 0 0 
0 0 0 0 0 0 0 0 0 
0 0 0 0 0 0 0 0 0 
0 0 0 0 0 0 0 0 0 
0 0 0 0 0 0 0 0 0 
0 0 0 0 0 0 0 0 0 
0 0 0 0 0 0 0 0 0 
0 0 0 0 0 0 0 0 0 
0 0 0 0 0 0 0 0 0 
0 0 0 0 0 0 0 0 0 
0 0 0 0 0 0 0 0 0 
0 0 0 0 0 0 0 0 0 
0 0 0 0 0 0 0 0 0 
0 0 0 0 0 0 0 0 0 
0 0 0 0 0 0 0 0 0 
0 0 0 0 0 0 0 0 0 
0 0 0 0 0 0 0 0 0 
0 0 0 0 0 0 0 0 0 
0 0 0 0 0 0 0 0 0 
0 0 0 0 0 0 0 0 0 
0 0 0 0 0 0 0 0 0 
0 0 0 0 0 0 0 0 0 
0 0 0 0 0 0 0 0 0 
0 0 0 0 0 0 0 -1 0 
0 -1 0 0 -1 0 0 0 0 
1 0 0 0 0 0 0 0 0 
0 0 0 0 0 0 0 0 0 
0 0 0 0 0 0 0 0 0 
0 0 0 0 0 0 0 0 0 
0 0 0 0 0 0 0 0 0 
0 0 0 0 0 0 0 0 0 
1 0 0 0 0 0 0 0 0 
0 0 0 0 0 0 0 0 0 
0 0 0 0 0 0 0 0 0 
0 0 0 0 0 0 0 0 0 