# vtk DataFile Version 4.0
Generated by LIGGGHTS
ASCII
DATASET POLYDATA
POINTS 2000 float
-87.6826 -92.6994 9.99167 -95.4029 -113.888 9.99973 -105.946 -131.063 9.99375 
-117.126 -114.483 9.99742 -127.433 -132.909 9.99978 -107.19 -97.1282 9.99609 
-117.004 -126.743 26.0865 -109.646 -108.203 27.5473 -132.99 -115.378 22.1376 
-118.735 -90.578 24.9502 -92.5225 -118.062 30.7077 -56.6049 -101.65 9.98911 
-30.4699 -123.172 9.99969 -75.8868 -108.849 9.99919 -66.3164 -139.514 9.99973 
-79.4344 -126.696 18.2954 -37.7919 -105.429 15.644 -60.631 -120.212 16.2408 
-47.0249 -134.229 11.9203 -58.7448 -140.728 30.9257 -38.5444 -138.885 29.4281 
-33.6036 -86.3944 22.133 -50.2996 -122.743 33.1723 -2.1426 -104.607 9.99207 
1.5952 -138.99 10.0243 17.7345 -102.402 9.99423 -20.5978 -96.9019 9.99978 
9.79094 -120.751 9.998 -10.4717 -122.813 9.99737 8.3177 -131.006 27.1038 
20.5446 -91.8635 26.7482 0.702297 -91.0609 24.4149 21.2447 -114.066 25.8611 
25.434 -131.306 16.6307 39.4474 -98.6987 22.7081 55.4045 -128.044 9.99006 
39.0308 -114.135 9.99894 64.2578 -110.004 9.99973 48.2689 -86.0244 9.99916 
41.0818 -120.77 28.7533 83.422 -104.069 10.0057 138.391 -97.0966 17.7669 
117.644 -127.992 9.99574 132.465 -114.563 9.99108 99.7321 -92.4799 9.99972 
94.2774 -124.614 9.99973 118.91 -93.0466 15.6485 136.686 -131.042 20.502 
108.865 -110.137 12.1847 93.3391 -100.245 27.2878 130.658 -111.226 29.6164 
106.349 -121.522 28.5156 119.426 -139.191 26.464 111.702 -94.0849 34.2763 
-130.407 -84.2435 9.99738 -95.4496 -33.0379 15.2772 -112.297 -75.261 9.99977 
-121.524 -57.2938 9.99972 -113.878 -38.7389 9.99894 -89.3694 -72.7588 10.0002 
-102.08 -58.0253 14.6248 -99.9372 -83.9099 23.1386 -132.214 -68.7132 22.4659 
-132.681 -48.8203 24.4469 -114.515 -42.2958 29.6685 -91.3238 -47.356 28.618 
-84.443 -49.8064 9.99967 -139.553 -84.3129 32.6011 -114.378 -62.9478 29.6089 
-138.686 -36.3731 9.99442 -94.7882 -66.7577 32.2748 -31.7732 -67.9751 9.99973 
-49.1555 -83.0923 9.99979 -59.0556 -65.6277 9.99972 -75.5047 -63.7308 21.2383 
-57.6765 -32.8024 24.9931 -24.8599 -46.144 9.99961 -18.0604 -55.192 26.4887 
11.1038 -57.1454 9.9987 -3.05986 -42.6758 9.99971 4.65336 -77.5891 9.99973 
25.2916 -81.4935 9.99973 -8.30365 -61.976 9.99972 -15.3513 -31.9531 25.3498 
-15.6026 -79.0335 17.4668 23.6454 -65.5358 23.1231 7.63476 -73.8153 31.7769 
67.8315 -81.8683 10.0053 38.3045 -78.8739 25.7957 44.8268 -65.5086 10.0569 
50.2943 -46.2476 10.0066 71.9267 -55.8481 9.99774 30.8876 -51.1639 9.99367 
71.5825 -41.0011 23.3879 40.559 -55.5744 26.9314 59.2683 -62.0734 24.1725 
53.5353 -41.2555 32.0713 61.3728 -29.5576 10.0011 85.1292 -83.1286 19.964 
86.4354 -40.6623 10.0005 90.6415 -66.6911 9.99436 132.184 -79.1554 10.0004 
118.516 -58.6293 9.99973 108.149 -75.0058 14.9362 114.947 -38.9347 10.2283 
138.495 -57.7151 9.9998 129.739 -43.1157 23.0332 124.687 -73.7896 27.7508 
-119.746 5.58253 9.99911 -104.723 -10.1821 9.99772 -122.922 -20.9163 10.8232 
-132.413 -3.94888 22.1919 -108.515 -12.267 29.5211 -89.7283 -19.2385 29.2789 
-111.1 14.835 25.5339 -84.9909 -16.8281 9.99931 -129.754 22.0094 24.7377 
-106.001 26.5242 9.99973 -123.153 -24.8476 34.7551 -45.5376 5.65706 9.99504 
-29.4557 -6.25027 9.99978 -76.1241 13.6658 24.9948 -28.2984 22.3705 26.9085 
-42.0162 -1.08322 28.4897 -38.4178 25.7834 9.99918 -26.7402 -26.0662 9.99965 
22.2709 -25.4976 32.1645 -6.18913 -22.9221 10.0021 -21.6779 13.9908 9.99913 
-9.68507 -3.23011 9.99975 1.84557 2.16655 25.6781 7.72915 13.0671 9.98994 
20.8405 8.8915 25.8152 26.5967 19.6934 9.99853 34.2151 -0.057604 9.99973 
48.2247 14.3088 9.99973 81.9438 -14.84 9.99343 61.0798 -1.51525 9.99017 
71.5278 18.9836 9.99982 38.2314 22.8974 25.9446 62.0466 19.5246 28.3748 
39.4579 4.89374 34.5583 139.634 -16.2854 9.99849 87.5491 13.5565 20.6922 
99.8451 -25.8245 9.99957 138.159 7.0365 9.99784 103.865 18.1959 9.99907 
96.3735 -0.858406 9.99961 139.674 26.9791 9.99916 122.015 -21.7764 17.7062 
119.26 -3.51686 9.99973 105.426 -12.3237 23.6588 -88.951 67.4614 9.99432 
-111.788 59.7044 9.99948 -126.925 41.3109 9.99943 -136.738 79.0348 30.0687 
-129.501 63.1838 18.6101 -98.792 46.0791 16.741 -115.954 40.6483 26.708 
-130.518 81.2167 10.0028 -140.649 39.6329 25.3951 -79.9889 45.0799 9.99974 
-35.6877 69.4367 24.9909 -66.8535 63.0719 9.99989 -53.4252 40.187 9.99962 
-64.5505 49.0421 24.0664 -72.5179 74.6426 25.3461 -83.6678 47.5306 29.7469 
20.5806 80.3852 9.99641 -4.38163 62.8674 10.0216 -23.6213 40.1992 9.99973 
8.8141 70.698 22.9596 21.8315 54.6476 9.99973 2.2409 38.0875 33.8285 
-5.62593 82.8234 9.99559 26.7493 79.2797 28.9847 31.5028 59.542 27.2354 
40.0623 34.8206 9.99681 63.834 38.4734 9.9933 62.0847 63.4463 9.9998 
39.6549 73.0253 10.0006 80.7417 49.1805 9.9998 77.6289 32.045 27.4723 
52.4312 36.9693 26.3451 44.798 53.9691 13.3702 80.1881 71.9468 9.99965 
69.129 50.127 26.4507 50.7879 55.919 32.511 120.467 32.5635 9.9945 
88.1501 30.6029 9.99974 119.554 59.2321 9.99255 105.109 73.0571 9.99699 
103.782 43.7094 9.99978 138.242 52.1091 9.99922 95.184 58.8019 19.9433 
118.733 45.9517 24.9121 92.2026 83.1998 21.4148 116.111 69.6939 26.6833 
132.486 73.3451 15.7767 97.217 36.176 27.3268 -89.2273 139.971 9.9973 
-111.843 88.3808 9.99833 -114.109 120.395 24.9953 -139.306 96.4562 20.5717 
-87.186 103.78 9.99958 -77.1544 135.525 25.3032 -76.694 86.7534 9.99535 
-57.4945 92.3405 9.99871 -45.8628 108.605 10.028 -79.5754 122.309 9.99973 
-50.2211 128.123 9.99954 -31.3368 104.195 25.1557 -30.259 136.514 9.99975 
-33.8293 123.685 28.8833 -27.5767 116.694 9.99964 -17.5389 137.665 25.4331 
19.2623 132.479 9.99872 -10.4911 127.081 9.99801 -2.94048 108.564 10.0205 
8.32348 90.6659 21.9973 16.8394 105.614 9.99989 4.54042 128.389 23.3465 
-14.9712 117.253 26.8301 26.2055 99.4637 27.9 25.1836 132.129 29.0974 
-12.7873 96.5665 22.6313 8.71459 109.545 28.5826 84.7096 139.186 9.99973 
34.5276 96.2817 9.99457 65.1421 134.793 9.99973 37.3505 117.162 9.99354 
57.8236 116.067 9.99973 41.0202 140.063 9.9956 80.5174 119.536 9.99432 
68.7259 122.754 25.8174 50.9204 132.01 25.3886 59.8942 89.7024 33.1858 
38.2843 117.042 29.9634 126.287 91.46 9.99913 84.6487 98.3257 9.99786 
117.117 109.233 9.98932 139.433 134.168 9.99508 111.024 135.137 9.99845 
105.323 93.0828 10.0083 137.257 112.543 9.99845 100.088 118.893 14.0503 
124.909 124.71 19.9693 88.3531 123.5 29.5705 -135.006 -103.086 37.7824 
-103.582 -131.833 40.0785 -128.851 -124.86 42.0865 -112.054 -114.819 46.2984 
-88.3242 -122.992 49.6344 -87.3915 -137.526 63.3598 -104.718 -125.3 61.7756 
-124.606 -127.45 61.4671 -131.742 -111.069 71.702 -106.378 -141.558 73.5293 
-92.3893 -108.669 62.9942 -128.099 -99.003 87.3375 -140.449 -113.626 53.8848 
-73.8975 -129.355 37.3306 -70.7903 -92.4919 40.6341 -43.787 -99.7359 61.6827 
-71.9066 -124.106 61.0028 -60.791 -88.3618 73.915 -54.0052 -120.757 52.7309 
-43.5286 -137.372 48.7381 -29.2708 -104.823 74.84 -59.4323 -110.019 68.7097 
-54.6337 -128.421 74.8893 -35.4725 -123.612 71.7932 -80.093 -97.3393 74.0184 
-73.7212 -133.104 78.7733 -63.3031 -139.435 51.0403 -66.761 -105.207 86.6758 
-17.8637 -114.112 43.0798 16.0651 -104.252 42.5034 13.2494 -125.52 54.3429 
3.44704 -119.034 70.5241 -3.64533 -140.169 61.6089 -11.409 -93.5935 70.6842 
24.1787 -132.627 39.177 8.56193 -94.9668 71.6141 -14.4817 -127.796 75.115 
23.9901 -94.2923 58.8941 8.11569 -137.236 77.5092 20.0303 -109.92 78.7489 
25.8354 -128.661 74.0032 28.0714 -113.772 60.8418 26.644 -91.3393 82.0624 
2.9022 -86.1574 46.8571 73.5544 -127.575 39.8991 39.7782 -124.185 48.4158 
54.6783 -114.189 66.1468 39.6598 -105.263 41.5987 80.9666 -112.92 70.8016 
42.066 -137.061 63.606 40.0152 -101.529 71.2198 60.2429 -135.821 71.8553 
44.4815 -127.784 81.1722 79.4667 -132.176 75.9765 104.132 -117.693 53.7628 
135.487 -134.077 40.3408 122.562 -111.843 47.8815 116.183 -130.418 44.134 
129.108 -93.2473 44.5249 102.5 -137.643 56.794 95.6734 -86.5786 43.5985 
109.664 -98.5456 55.3978 89.9814 -101.7 56.9243 121.441 -132.681 63.2933 
131.823 -98.6812 63.5787 97.5498 -124.808 71.3093 139.407 -127.838 70.6245 
97.9775 -85.9747 66.3423 132.605 -108.545 80.9818 113.31 -100.81 82.0961 
118.666 -113.314 67.4356 122.753 -126.2 82.1652 94.1203 -106.021 84.3019 
-116.23 -82.4332 58.8925 -126.17 -52.4468 43.0189 -85.5088 -65.7107 57.7482 
-101.618 -34.6824 61.2991 -129.439 -52.8954 72.2343 -95.3796 -63.7024 79.8526 
-140.234 -35.0417 36.8173 -93.8487 -82.5544 86.6891 -79.0293 -77.4219 72.602 
-27.9894 -35.5564 43.3032 -75.0678 -57.3287 42.8994 -68.1466 -43.744 56.547 
-65.136 -63.3507 59.1849 -50.6633 -41.6624 69.2082 -77.2724 -57.5138 74.0255 
-59.1264 -68.5281 77.5448 -30.4902 -67.7298 56.8339 -69.0733 -39.4734 76.7201 
-30.857 -37.1816 73.9082 -44.7752 -83.2706 84.748 -47.1088 -54.095 84.467 
-42.0259 -29.2673 56.1002 -0.453174 -56.5442 37.7781 -8.27931 -38.8432 42.7932 
17.9245 -60.8516 67.2481 -13.5992 -37.4266 62.1502 4.3721 -32.1886 82.0735 
4.86918 -28.7497 62.3772 28.8657 -83.4106 42.8386 46.9114 -36.6278 54.3934 
62.0727 -80.8571 53.5698 66.3567 -46.854 46.3617 79.2819 -48.7357 67.8203 
59.472 -47.9157 65.1082 73.0688 -27.6977 73.3524 67.1464 -44.0709 83.1814 
47.0411 -46.9029 80.7841 53.1523 -29.4699 73.046 58.9779 -62.7704 83.3712 
77.6352 -69.2523 86.5085 91.912 -83.2033 85.1968 140.412 -81.9936 83.6078 
100.437 -51.7724 40.0949 116.688 -79.9965 52.8932 135.875 -54.3722 38.5686 
134.293 -72.6444 46.6507 109.608 -69.8656 68.6153 131.736 -78.3759 65.9565 
89.1254 -66.015 70.1033 129.835 -59.8127 73.1409 119.428 -81.7817 81.3489 
92.5301 -35.0397 73.9007 -98.9367 -3.8558 44.9291 -135.416 -10.1404 40.9687 
-110.84 21.1822 44.4986 -120.251 2.66171 38.4979 -112.294 1.90383 58.6511 
-110.764 20.6899 65.3345 -94.2365 16.803 54.7738 -132.151 4.27931 57.935 
-106.072 5.50772 77.4747 -127.144 14.0795 74.769 -92.0862 -1.08111 63.5105 
-120.39 -8.02058 74.008 -88.3342 8.4349 86.2788 -103.071 -11.5292 87.5069 
-140.284 27.3136 81.9909 -121.264 -23.4105 87.983 -84.6865 -10.1139 79.7498 
-77.64 -13.8571 46.6071 -44.1616 18.4353 38.4345 -68.0315 0.520464 56.64 
[...]
POINT_DATA 2000
FIELD FieldData 7
id 1 2000 int
41 77 196 230 308 107 205 282 106 
55 438 53 85 259 296 439 157 275 
424 371 40 273 71 185 265 297 299 
410 440 172 95 351 336 437 49 33 
376 408 397 216 164 380 59 139 141 
29 30 379 335 434 394 283 247 47 
411 36 142 338 414 456 32 161 261 
453 80 276 171 381 245 114 425 112 
231 246 215 10 143 211 115 208 232 
365 48 243 45 167 75 300 149 113 
174 222 318 108 354 285 317 359 201 
200 117 252 262 286 314 395 334 274 
239 342 66 147 255 443 309 413 278 
238 405 50 345 20 46 220 187 225 
11 212 69 37 358 390 416 347 122 
123 197 264 430 315 204 219 298 256 
135 346 54 97 178 213 271 404 84 
199 320 400 234 450 152 444 99 362 
8 279 321 250 384 378 195 240 399 
186 111 12 169 73 133 131 132 389 
419 449 229 369 375 102 72 374 330 
253 34 154 221 266 173 352 366 58 
329 206 301 138 6 284 179 328 184 
224 168 311 455 295 385 90 88 78 
62 302 339 79 83 218 426 127 128 
294 433 344 341 110 227 396 421 429 
251 242 18 423 96 160 209 288 367 
370 452 116 198 203 244 343 442 166 
304 361 401 448 1864 1820 1025 1285 272 
223 9 82 130 350 119 409 290 383 
1007 1904 1249 1749 292 1878 2 241 156 
64 76 210 263 1855 1873 364 1584 1941 
1011 418 327 293 22 144 165 382 323 
332 42 1715 1811 1945 137 51 125 445 
81 155 249 436 74 1428 1281 1934 720 
1920 856 700 1308 1665 1450 5 331 388 
26 307 552 183 1551 319 422 65 163 
191 236 1719 1793 23 1676 1730 903 642 
415 417 281 28 226 1366 402 39 392 
14 44 189 306 104 931 1603 118 89 
1953 997 1922 25 86 313 398 180 188 
1317 1870 1643 581 43 412 129 322 761 
1508 303 326 764 1565 176 1155 1520 1143 
1112 739 1819 151 162 68 158 214 257 
121 368 175 427 353 1211 864 874 1540 
4 217 357 202 94 190 349 120 1159 
570 746 1001 268 260 7 100 333 432 
457 70 63 1767 622 1389 153 386 291 
15 277 19 441 1015 1407 839 3 254 
57 228 393 145 177 420 1046 1600 1399 
909 340 1956 93 1 270 387 109 170 
181 140 312 91 1163 1404 712 372 61 
67 267 60 316 87 1652 590 583 207 
923 709 280 373 235 16 194 148 789 
1080 1406 431 1082 1951 1417 377 182 310 
103 233 337 35 258 356 24 159 435 
1430 1367 1124 1975 1194 852 105 360 403 
237 287 363 92 348 21 1398 1517 1852 
1685 324 1191 27 428 391 56 98 1807 
1893 1087 1716 1200 355 1283 407 289 446 
101 192 13 124 1869 1400 1589 701 674 
193 269 146 136 150 1883 1995 771 817 
1501 1706 1836 949 1815 1773 1854 52 305 
325 406 38 126 17 31 447 134 248 
967 1140 1618 1447 741 1424 968 1068 480 
1694 1542 1293 1726 784 954 1929 1771 814 
1334 1938 1195 484 1382 1176 1178 1017 1220 
541 1173 1999 1170 1331 1982 1021 948 1601 
1452 1896 1845 1838 668 907 520 952 1262 
1252 1865 1539 1071 1304 1712 1337 553 1687 
651 548 1678 951 1634 1050 1156 1537 654 
1128 1988 1409 462 1105 1189 1728 1757 1051 
1474 838 1842 1561 1649 599 661 911 914 
1147 1149 1459 866 1829 479 753 974 486 
1527 1840 752 573 1427 845 540 1206 1275 
1683 1488 1656 1543 718 1117 1342 1781 489 
878 995 1045 1171 1578 1013 1994 1077 1866 
833 889 626 1586 875 1130 621 906 1799 
1284 1213 757 793 1894 1421 533 1725 985 
1566 640 1861 602 652 1365 644 1225 1234 
1415 779 862 1373 1874 666 1167 960 723 
912 1042 1673 806 495 1729 1480 1444 521 
454 574 1908 854 658 1442 842 861 1419 
1034 1177 1628 1099 1736 1738 1129 1465 1324 
915 1756 1677 532 1460 754 1063 1190 1496 
1947 1850 628 1453 1341 1031 1696 1023 1066 
1718 1563 1881 698 799 1144 722 1554 1813 
1208 451 466 1340 1831 1271 1745 1401 1391 
1572 467 471 970 594 1385 1912 1675 888 
1119 1369 1602 464 1579 1093 1102 474 580 
1468 1499 1270 1769 506 1533 643 1412 1595 
1928 1414 1890 1959 608 1570 1362 470 597 
1679 1172 1074 919 798 1258 1529 1534 1720 
1743 965 975 1803 1884 841 656 1416 1481 
892 1040 1791 1108 1653 566 853 564 1490 
492 1647 1620 1261 1052 1577 1458 673 1475 
1682 1606 660 729 1761 962 1960 624 1470 
1241 1608 664 518 1131 1903 1326 966 1638 
1858 1441 1477 1636 759 1784 1070 513 1825 
1355 1822 803 805 893 925 728 1438 936 
964 1433 848 1931 1891 1859 1830 1610 1267 
1889 469 1734 1887 810 531 1268 1591 1552 
537 1201 1979 1153 1525 885 1879 1073 562 
1892 1054 1684 588 1919 991 488 1216 749 
981 1058 1037 473 604 671 630 946 876 
1291 1965 1461 508 1229 1231 1548 1098 461 
475 832 1545 1844 1125 1104 2000 1387 1360 
887 1827 522 1667 1263 696 990 1702 1359 
1804 1906 1911 1422 775 459 565 687 1169 
1662 944 1633 801 1483 1055 820 675 1209 
1962 781 1614 1089 1752 835 670 1462 1576 
1980 1101 1780 1060 1135 1203 1120 969 1978 
1582 1361 1487 1094 487 1223 758 1121 751 
1205 1059 1473 1823 850 987 1328 972 1661 
1352 1663 1974 589 616 496 1916 1254 1932 
986 1860 1222 539 807 886 1936 1118 1084 
1930 618 1100 686 1166 1711 730 1026 530 
1018 1332 1772 1004 1835 1616 1935 1622 601 
493 755 1343 1564 1796 1287 740 1966 515 
938 1495 865 1309 896 1532 1937 1300 1550 
1368 1187 788 498 809 894 935 1740 916 
1788 1632 1573 725 770 1507 1035 1491 1558 
528 1036 1076 1467 1397 632 1707 830 1310 
1834 745 961 901 1197 1333 1569 1282 1494 
1846 1062 575 1064 1269 1504 994 688 1150 
607 1126 1318 569 1524 922 682 1770 645 
1049 1092 1701 1863 924 1312 1948 1917 538 
953 1214 1114 895 1613 732 613 1575 1783 
837 713 1056 511 1925 904 623 1264 1768 
705 934 1775 1910 523 1048 1371 503 1918 
600 1138 1466 999 1184 1255 1849 733 1303 
797 1109 1789 1963 802 1192 1247 1276 1957 
1228 1336 738 1808 1867 1972 525 557 1250 
627 641 535 790 1837 1722 1764 1732 1856 
472 1146 1204 1708 1219 1944 1809 1798 1041 
1952 561 1078 1196 1741 1134 1043 1626 491 
1418 942 1313 1992 1549 1083 1175 1503 710 
1629 825 1420 800 1455 1897 1260 1666 567 
1356 1818 1226 1370 1810 1290 1505 1029 478 
1354 647 1375 1053 1024 1964 1704 1942 1432 
1165 1760 697 551 1440 547 1802 831 1376 
502 1344 992 1596 1983 1961 1069 678 1735 
1939 1670 984 1383 1379 1514 545 920 988 
1358 1047 1500 1489 646 1724 818 959 1245 
1664 1122 794 708 1295 1242 1557 1160 499 
1607 667 769 595 1650 1991 1181 1754 529 
1585 1009 1237 736 685 787 1839 1790 1251 
1350 1434 1088 1235 1547 1828 1853 620 596 
1993 483 1090 822 519 1139 1660 1814 1571 
509 1446 1672 1598 1246 763 1067 1030 1377 
1695 689 1973 1439 1289 526 1674 692 1469 
614 1061 1604 1006 679 681 649 1107 1668 
1476 867 742 868 796 1210 869 1327 1833 
476 611 871 774 917 1546 1297 1623 571 
650 1901 1454 1305 1792 1394 902 1805 1699 
1877 510 1457 1705 603 1142 1739 680 1445 
780 1568 918 870 1116 1512 743 1179 1513 
1152 703 955 468 1431 693 1277 482 765 
1778 945 971 1232 1876 1113 1133 1516 1273 
1968 1642 1832 908 1425 1493 993 1857 546 
1363 1065 1958 1307 1426 1151 777 1923 695 
1174 1559 1940 1348 750 819 1511 1841 558 
1224 1396 1746 1744 1977 559 1106 760 1556 
631 1594 1976 1502 1530 1882 1755 1010 1593 
1581 1515 1617 1615 1619 1039 1742 910 881 
1969 929 1448 612 744 1580 1000 827 1555 
1926 534 795 657 1353 1821 1429 1812 579 
1646 1826 1921 851 1123 694 824 1478 549 
572 1136 1541 655 563 578 762 1240 1311 
1700 1574 1338 1801 690 1185 1875 1753 863 
767 1885 1762 699 1148 1390 998 1641 1967 
1028 1899 517 1137 973 463 1079 731 1230 
860 1759 1280 1492 653 1378 648 1905 1091 
950 1198 847 858 737 941 1782 1322 1132 
1288 615 785 921 1016 1669 1909 1737 1590 
1871 481 958 927 873 1330 1193 1072 592 
928 1095 1408 1611 899 1274 1996 1012 1472 
577 505 1374 1886 1306 1168 1509 524 1597 
1182 1686 1721 1014 1393 1949 1162 1022 1637 
1239 1723 1955 637 812 1862 1236 1544 554 
634 704 976 560 857 1278 1795 1800 1588 
977 926 1329 1227 1335 1970 1787 1321 1357 
591 576 1645 1521 1592 1847 1851 1221 1141 
1212 1583 719 811 747 1005 1302 1411 584 
663 1256 1161 662 846 1215 1691 804 937 
1158 1671 707 1238 1044 715 514 1057 1325 
1587 772 843 1531 1651 1482 586 516 815 
855 1032 1680 1697 1777 890 773 1635 1164 
1299 1621 1690 963 1279 1436 672 568 1817 
536 1364 542 485 1763 1085 605 1347 1451 
1301 905 1927 880 1560 500 1538 507 1898 
1259 1747 1316 717 1423 821 1345 816 766 
556 716 879 1727 1111 826 1392 1915 1388 
900 1449 1751 756 947 1924 1506 1372 1703 
829 1522 1907 1127 1086 587 980 1207 665 
1298 1933 1097 1689 1497 1797 1990 1880 891 
1776 834 512 1405 1693 1395 1027 1848 1486 
1640 1320 836 734 748 544 1188 669 477 
791 677 939 1314 1485 1038 1987 638 619 
1019 1218 1766 768 1523 828 504 1386 711 
978 1599 1758 776 1888 1989 982 1413 610 
1471 1033 1286 1510 943 1748 1456 617 458 
1985 1096 635 1688 956 1339 1681 1943 606 
783 1997 996 683 1868 1914 490 1464 1954 
957 1463 1627 593 1713 598 1519 1403 1567 
1257 1655 555 1381 813 1717 1639 1624 1075 
714 1692 625 1265 1292 1733 1157 706 1843 
1410 724 989 527 1971 1498 1609 1714 1008 
897 1272 1950 1315 1081 1816 1402 636 543 
1296 1946 1984 1562 659 1115 840 1786 1443 
1998 501 1648 1346 1553 1654 1233 1380 849 
1349 884 859 585 497 1186 1630 1794 1266 
940 1526 1709 1103 882 933 702 877 778 
609 1605 1145 808 582 844 1731 1003 786 
1020 1528 983 1323 1981 1658 1484 1110 1319 
1002 1243 1657 1698 1437 1644 930 465 932 
1384 1824 1785 913 721 898 494 1631 792 
1248 1180 1435 1294 735 1872 1612 1183 1518 
1479 1895 1253 1154 633 823 883 1625 1659 
1913 1779 1806 1535 1244 782 1202 1217 1536 
1902 872 1765 979 684 1750 629 727 1199 
460 639 691 550 1986 1351 726 1774 1900 
1710 676 
type 1 2000 int
1 1 1 1 1 1 1 1 1 
1 1 1 1 1 1 1 1 1 
1 1 1 1 1 1 1 1 1 
1 1 1 1 1 1 1 1 1 
1 1 1 1 1 1 1 1 1 
1 1 1 1 1 1 1 1 1 
1 1 1 1 1 1 1 1 1 
1 1 1 1 1 1 1 1 1 
1 1 1 1 1 1 1 1 1 
1 1 1 1 1 1 1 1 1 
1 1 1 1 1 1 1 1 1 
1 1 1 1 1 1 1 1 1 
1 1 1 1 1 1 1 1 1 
1 1 1 1 1 1 1 1 1 
1 1 1 1 1 1 1 1 1 
1 1 1 1 1 1 1 1 1 
1 1 1 1 1 1 1 1 1 
1 1 1 1 1 1 1 1 1 
1 1 1 1 1 1 1 1 1 
1 1 1 1 1 1 1 1 1 
1 1 1 1 1 1 1 1 1 
1 1 1 1 1 1 1 1 1 
1 1 1 1 1 1 1 1 1 
1 1 1 1 1 1 1 1 1 
1 1 1 1 1 1 1 1 1 
1 1 1 1 1 1 1 1 1 
1 1 1 1 1 1 1 1 1 
1 1 1 1 1 1 1 1 1 
1 1 1 1 1 1 1 1 1 
1 1 1 1 1 1 1 1 1 
1 1 1 1 1 1 1 1 1 
1 1 1 1 1 1 1 1 1 
1 1 1 1 1 1 1 1 1 
1 1 1 1 1 1 1 1 1 
1 1 1 1 1 1 1 1 1 
1 1 1 1 1 1 1 1 1 
1 1 1 1 1 1 1 1 1 
1 1 1 1 1 1 1 1 1 
1 1 1 1 1 1 1 1 1 
1 1 1 1 1 1 1 1 1 
1 1 1 1 1 1 1 1 1 
1 1 1 1 1 1 1 1 1 
1 1 1 1 1 1 1 1 1 
1 1 1 1 1 1 1 1 1 
1 1 1 1 1 1 1 1 1 
1 1 1 1 1 1 1 1 1 
1 1 1 1 1 1 1 1 1 
1 1 1 1 1 1 1 1 1 
1 1 1 1 1 1 1 1 1 
1 1 1 1 1 1 1 1 1 
1 1 1 1 1 1 1 1 1 
1 1 1 1 1 1 1 1 1 
1 1 1 1 1 1 1 1 1 
1 1 1 1 1 1 1 1 1 
1 1 1 1 1 1 1 1 1 
1 1 1 1 1 1 1 1 1 
1 1 1 1 1 1 1 1 1 
1 1 1 1 1 1 1 1 1 
1 1 1 1 1 1 1 1 1 
1 1 1 1 1 1 1 1 1 
1 1 1 1 1 1 1 1 1 
1 1 1 1 1 1 1 1 1 
1 1 1 1 1 1 1 1 1 
1 1 1 1 1 1 1 1 1 
1 1 1 1 1 1 1 1 1 
1 1 1 1 1 1 1 1 1 
1 1 1 1 1 1 1 1 1 
1 1 1 1 1 1 1 1 1 
1 1 1 1 1 1 1 1 1 
1 1 1 1 1 1 1 1 1 
1 1 1 1 1 1 1 1 1 
1 1 1 1 1 1 1 1 1 
1 1 1 1 1 1 1 1 1 
1 1 1 1 1 1 1 1 1 
1 1 1 1 1 1 1 1 1 
1 1 1 1 1 1 1 1 1 
1 1 1 1 1 1 1 1 1 
1 1 1 1 1 1 1 1 1 
1 1 1 1 1 1 1 1 1 
1 1 1 1 1 1 1 1 1 
1 1 1 1 1 1 1 1 1 
1 1 1 1 1 1 1 1 1 
1 1 1 1 1 1 1 1 1 
1 1 1 1 1 1 1 1 1 
1 1 1 1 1 1 1 1 1 
1 1 1 1 1 1 1 1 1 
1 1 1 1 1 1 1 1 1 
1 1 1 1 1 1 1 1 1 
1 1 1 1 1 1 1 1 1 
1 1 1 1 1 1 1 1 1 
1 1 1 1 1 1 1 1 1 
1 1 1 1 1 1 1 1 1 
1 1 1 1 1 1 1 1 1 
1 1 1 1 1 1 1 1 1 
1 1 1 1 1 1 1 1 1 
1 1 1 1 1 1 1 1 1 
1 1 1 1 1 1 1 1 1 
1 1 1 1 1 1 1 1 1 
1 1 1 1 1 1 1 1 1 
1 1 1 1 1 1 1 1 1 
1 1 1 1 1 1 1 1 1 
1 1 1 1 1 1 1 1 1 
1 1 1 1 1 1 1 1 1 
1 1 1 1 1 1 1 1 1 
1 1 1 1 1 1 1 1 1 
1 1 1 1 1 1 1 1 1 
1 1 1 1 1 1 1 1 1 
1 1 1 1 1 1 1 1 1 
1 1 1 1 1 1 1 1 1 
1 1 1 1 1 1 1 1 1 
1 1 1 1 1 1 1 1 1 
1 1 1 1 1 1 1 1 1 
1 1 1 1 1 1 1 1 1 
1 1 1 1 1 1 1 1 1 
1 1 1 1 1 1 1 1 1 
1 1 1 1 1 1 1 1 1 
1 1 1 1 1 1 1 1 1 
1 1 1 1 1 1 1 1 1 
1 1 1 1 1 1 1 1 1 
1 1 1 1 1 1 1 1 1 
1 1 1 1 1 1 1 1 1 
1 1 1 1 1 1 1 1 1 
1 1 1 1 1 1 1 1 1 
1 1 1 1 1 1 1 1 1 
1 1 1 1 1 1 1 1 1 
1 1 1 1 1 1 1 1 1 
1 1 1 1 1 1 1 1 1 
1 1 1 1 1 1 1 1 1 
1 1 1 1 1 1 1 1 1 
1 1 1 1 1 1 1 1 1 
1 1 1 1 1 1 1 1 1 
1 1 1 1 1 1 1 1 1 
1 1 1 1 1 1 1 1 1 
1 1 1 1 1 1 1 1 1 
1 1 1 1 1 1 1 1 1 
1 1 1 1 1 1 1 1 1 
1 1 1 1 1 1 1 1 1 
1 1 1 1 1 1 1 1 1 
1 1 1 1 1 1 1 1 1 
1 1 1 1 1 1 1 1 1 
1 1 1 1 1 1 1 1 1 
1 1 1 1 1 1 1 1 1 
1 1 1 1 1 1 1 1 1 
1 1 1 1 1 1 1 1 1 
1 1 1 1 1 1 1 1 1 
1 1 1 1 1 1 1 1 1 
1 1 1 1 1 1 1 1 1 
1 1 1 1 1 1 1 1 1 
1 1 1 1 1 1 1 1 1 
1 1 1 1 1 1 1 1 1 
1 1 1 1 1 1 1 1 1 
1 1 1 1 1 1 1 1 1 
1 1 1 1 1 1 1 1 1 
1 1 1 1 1 1 1 1 1 
1 1 1 1 1 1 1 1 1 
1 1 1 1 1 1 1 1 1 
1 1 1 1 1 1 1 1 1 
1 1 1 1 1 1 1 1 1 
1 1 1 1 1 1 1 1 1 
1 1 1 1 1 1 1 1 1 
1 1 1 1 1 1 1 1 1 
1 1 1 1 1 1 1 1 1 
1 1 1 1 1 1 1 1 1 
1 1 1 1 1 1 1 1 1 
1 1 1 1 1 1 1 1 1 
1 1 1 1 1 1 1 1 1 
1 1 1 1 1 1 1 1 1 
1 1 1 1 1 1 1 1 1 
1 1 1 1 1 1 1 1 1 
1 1 1 1 1 1 1 1 1 
1 1 1 1 1 1 1 1 1 
1 1 1 1 1 1 1 1 1 
1 1 1 1 1 1 1 1 1 
1 1 1 1 1 1 1 1 1 
1 1 1 1 1 1 1 1 1 
1 1 1 1 1 1 1 1 1 
1 1 1 1 1 1 1 1 1 
1 1 1 1 1 1 1 1 1 
1 1 1 1 1 1 1 1 1 
1 1 1 1 1 1 1 1 1 
1 1 1 1 1 1 1 1 1 
1 1 1 1 1 1 1 1 1 
1 1 1 1 1 1 1 1 1 
1 1 1 1 1 1 1 1 1 
1 1 1 1 1 1 1 1 1 
1 1 1 1 1 1 1 1 1 
1 1 1 1 1 1 1 1 1 
1 1 1 1 1 1 1 1 1 
1 1 1 1 1 1 1 1 1 
1 1 1 1 1 1 1 1 1 
1 1 1 1 1 1 1 1 1 
1 1 1 1 1 1 1 1 1 
1 1 1 1 1 1 1 1 1 
1 1 1 1 1 1 1 1 1 
1 1 1 1 1 1 1 1 1 
1 1 1 1 1 1 1 1 1 
1 1 1 1 1 1 1 1 1 
1 1 1 1 1 1 1 1 1 
1 1 1 1 1 1 1 1 1 
1 1 1 1 1 1 1 1 1 
1 1 1 1 1 1 1 1 1 
1 1 1 1 1 1 1 1 1 
1 1 1 1 1 1 1 1 1 
1 1 1 1 1 1 1 1 1 
1 1 1 1 1 1 1 1 1 
1 1 1 1 1 1 1 1 1 
1 1 1 1 1 1 1 1 1 
1 1 1 1 1 1 1 1 1 
1 1 1 1 1 1 1 1 1 
1 1 1 1 1 1 1 1 1 
1 1 1 1 1 1 1 1 1 
1 1 1 1 1 1 1 1 1 
1 1 1 1 1 1 1 1 1 
1 1 1 1 1 1 1 1 1 
1 1 1 1 1 1 1 1 1 
1 1 1 1 1 1 1 1 1 
1 1 1 1 1 1 1 1 1 
1 1 1 1 1 1 1 1 1 
1 1 1 1 1 1 1 1 1 
1 1 1 1 1 1 1 1 1 
1 1 1 1 1 1 1 1 1 
1 1 1 1 1 1 1 1 1 
1 1 
i 3 2000 int
0 0 0 0 0 0 0 0 0 
0 0 0 0 0 0 0 0 0 
0 0 0 0 0 0 0 0 0 
0 0 0 0 0 0 0 0 0 
0 0 0 0 0 0 0 0 0 
0 0 0 0 0 0 0 0 0 
0 0 0 0 0 0 0 1 0 
0 0 0 0 0 0 0 0 0 
0 0 0 0 0 0 0 0 0 
0 0 0 0 0 0 0 0 0 
0 0 0 0 0 0 0 0 0 
0 0 0 0 0 0 0 0 0 
0 0 0 0 0 0 0 0 0 
0 0 0 0 0 0 -1 0 0 
0 0 0 0 0 0 0 0 0 
0 0 0 0 0 0 0 0 0 
0 0 0 0 0 0 0 0 0 
0 0 0 0 1 0 0 0 0 
0 0 0 0 0 0 0 0 0 
0 0 0 0 0 0 0 0 0 
0 0 0 0 0 0 0 0 0 
0 0 0 0 0 0 0 0 0 
0 0 0 0 0 0 0 0 0 
0 0 0 0 0 0 0 0 0 
0 0 0 0 0 0 0 0 0 
0 0 0 0 0 0 0 0 0 
0 0 0 0 0 0 0 0 0 
0 0 0 0 0 0 0 0 0 
0 0 0 0 0 0 0 0 0 
0 0 0 0 0 0 0 0 0 
0 0 0 0 0 0 0 0 0 
0 0 0 0 0 0 0 0 0 
0 0 0 0 0 0 0 0 0 
0 0 0 0 0 0 0 0 0 
0 0 0 0 0 0 0 0 0 
0 0 0 0 0 0 0 0 0 
0 0 0 0 0 0 0 0 0 
0 0 0 0 0 0 0 0 0 
0 0 0 0 0 0 0 0 0 
0 0 0 0 0 0 0 0 0 
0 0 0 0 0 0 0 0 0 
0 0 0 0 0 0 0 0 0 
0 0 0 0 0 0 0 0 0 
0 0 0 0 0 0 0 0 0 
0 0 0 0 0 0 0 0 0 
0 0 0 0 0 0 0 0 0 
0 0 0 0 0 0 0 0 0 
0 0 0 0 0 0 0 0 0 
0 0 0 -1 0 0 0 0 0 
0 0 0 0 0 0 0 0 0 
0 0 0 0 0 0 0 0 0 
0 0 0 0 0 0 0 0 0 
0 0 0 0 0 0 0 0 0 
0 0 0 0 0 0 0 0 0 
0 0 0 0 0 0 0 0 0 
0 0 0 0 0 0 0 0 0 
0 0 0 0 0 0 0 0 0 
0 0 0 0 0 0 0 0 0 
0 0 0 0 0 0 0 0 0 
0 0 0 0 0 0 0 0 0 
0 0 0 0 0 0 0 0 0 
0 0 0 0 0 0 0 0 0 
0 0 0 0 0 0 0 0 0 
0 0 0 0 0 0 0 0 0 
0 0 0 0 0 0 0 0 0 
0 0 0 0 0 0 0 0 0 
0 0 0 0 0 0 0 -1 0 
0 0 0 0 0 0 1 0 0 
0 0 0 0 -1 0 0 0 0 
0 0 0 0 0 0 0 0 0 
0 0 0 0 0 0 0 0 0 
0 0 0 0 0 0 0 0 0 
0 0 0 0 0 0 0 0 0 
0 0 0 0 0 0 0 0 0 
0 0 0 0 0 0 0 0 0 
0 0 0 0 0 0 0 0 0 
0 0 0 0 0 0 0 0 0 
0 0 0 0 0 0 0 0 0 
0 0 0 0 0 0 0 0 0 
0 0 0 0 0 0 0 0 0 
0 0 0 0 0 0 0 0 0 
0 0 0 0 0 0 0 0 0 
0 0 0 0 0 0 0 0 0 
0 0 0 0 0 0 0 0 0 
0 0 0 0 0 0 0 0 0 
0 0 0 0 0 0 0 0 0 
0 0 0 0 0 0 1 0 0 
0 0 0 0 0 0 0 0 0 
0 0 0 0 0 0 0 0 0 
0 0 0 0 0 0 0 0 0 
0 0 0 0 0 0 0 0 0 
0 0 0 0 1 0 0 0 0 
0 0 0 0 0 0 0 0 0 
0 0 0 0 0 0 0 0 0 
0 0 0 0 0 0 0 0 0 
0 0 0 0 0 0 0 0 0 
0 0 0 0 0 0 0 0 0 
0 0 0 0 0 0 0 0 0 
0 0 0 0 0 0 0 0 0 
0 0 0 0 0 0 0 0 0 
0 0 0 0 0 0 0 0 0 
0 0 0 0 0 0 0 0 0 
0 0 0 0 0 0 0 0 0 
0 0 0 0 0 0 0 0 0 
0 0 0 0 0 0 0 0 0 
0 0 0 -1 0 0 0 0 0 
0 0 0 0 0 0 0 0 0 
0 0 0 0 0 0 0 0 0 
0 0 0 0 0 0 0 0 0 
1 0 0 0 0 0 0 0 0 
0 0 0 0 0 0 0 0 0 
0 0 0 0 0 0 0 0 0 
0 0 0 0 0 0 0 0 0 
0 0 0 0 0 0 0 0 0 
0 0 0 0 0 0 0 0 0 
0 0 0 0 0 0 0 0 0 
0 0 0 0 0 0 0 0 0 
0 0 0 0 0 0 0 0 0 
0 0 0 0 0 0 0 0 0 
0 0 0 0 0 0 0 0 0 
0 0 0 0 0 0 -1 0 0 
0 0 0 0 0 0 0 0 0 
0 0 0 0 0 0 0 0 0 
0 0 0 0 0 0 0 0 0 
0 0 0 0 0 0 1 0 0 
0 0 0 0 0 0 0 0 0 
0 0 0 0 0 0 1 0 0 
0 0 0 0 0 0 0 0 0 
0 0 0 0 0 0 0 0 0 
1 0 0 0 0 0 0 0 0 
0 0 0 0 0 0 0 0 0 
0 0 0 0 0 0 0 0 0 
0 0 0 0 0 0 0 0 0 
0 0 0 0 0 0 0 0 0 
0 0 0 0 0 0 0 0 0 
0 0 0 0 0 0 0 0 0 
0 0 0 0 0 0 0 0 0 
0 0 0 0 0 0 0 0 0 
0 0 0 0 0 0 0 0 0 
0 0 0 0 0 0 0 0 0 
0 0 0 0 0 0 0 0 0 
0 0 0 0 0 0 0 0 0 
0 0 0 0 0 0 0 0 0 
0 0 0 0 0 0 0 0 0 
0 0 0 0 0 0 0 0 0 
0 0 0 0 0 0 0 0 0 
0 0 0 0 0 0 0 0 0 
0 0 0 0 0 0 0 0 0 
0 0 0 0 0 0 0 0 0 
0 0 0 0 0 0 0 0 0 
0 0 0 1 0 0 0 0 0 
0 0 0 0 0 0 0 0 0 
0 0 0 0 0 0 0 0 0 
0 0 0 0 0 0 0 0 0 
0 0 0 0 0 0 0 0 0 
0 0 0 0 0 0 0 0 0 
0 0 0 0 0 0 0 0 0 
0 0 0 0 0 0 0 0 0 
0 0 0 0 0 0 0 0 0 
0 0 0 0 0 0 0 0 0 
0 0 0 0 0 0 0 0 0 
0 0 0 0 0 0 0 0 0 
0 0 0 0 0 0 0 0 0 
0 0 0 0 0 0 0 0 0 
-1 0 0 0 0 0 0 0 0 
0 0 0 0 0 0 0 0 0 
0 0 0 0 0 0 0 0 0 
0 0 0 0 0 0 0 0 0 
0 0 0 0 0 0 0 0 0 
1 0 0 0 0 0 0 -1 0 
0 0 0 0 0 0 0 0 0 
0 0 0 0 0 0 0 0 0 
0 0 0 0 0 0 0 0 0 
0 0 0 0 0 0 0 0 0 
0 0 0 0 0 0 0 -1 0 
0 0 0 0 0 0 0 0 0 
0 0 0 0 0 0 0 0 0 
0 0 0 0 0 0 0 -1 0 
0 0 0 0 -1 0 0 0 0 
0 0 0 0 -1 0 0 0 0 
0 0 0 0 0 0 0 0 0 
0 0 0 0 0 0 0 0 0 
0 0 0 0 0 0 0 0 0 
0 0 0 0 -1 0 0 0 0 
0 0 0 0 0 0 0 0 0 
0 0 0 0 0 0 0 0 0 
0 0 0 0 0 0 0 0 0 
0 0 0 0 0 0 0 0 0 
0 -1 0 0 0 0 0 0 0 
0 0 0 -1 0 0 0 -1 0 
-1 0 0 0 0 0 0 0 0 
0 0 0 0 0 0 0 0 0 
0 0 0 0 0 0 0 0 0 
0 0 0 0 0 0 0 0 0 
0 0 0 0 0 0 0 0 0 
0 0 0 0 0 0 0 0 0 
0 0 0 0 0 0 0 0 0 
0 1 0 0 0 0 0 0 0 
0 1 0 0 0 0 0 0 0 
0 0 0 0 0 0 0 0 0 
0 0 0 0 0 0 0 0 0 
0 0 0 0 0 0 0 0 0 
0 0 0 0 0 0 0 0 0 
0 0 0 0 0 0 0 0 0 
0 1 0 0 0 0 0 0 0 
0 0 0 0 0 0 0 0 0 
0 0 0 0 0 0 0 0 0 
0 0 0 0 1 0 0 0 0 
0 0 0 0 1 0 0 0 0 
0 0 0 0 0 0 0 0 0 
0 0 0 0 0 0 0 0 0 
0 0 0 0 0 0 0 0 0 
0 0 0 0 0 0 0 0 0 
0 0 0 0 0 0 0 0 0 
0 0 0 0 0 0 0 0 0 
0 0 0 1 0 0 0 0 0 
0 0 0 0 0 0 0 0 0 
0 0 0 0 0 0 0 0 0 
0 0 0 0 0 0 0 0 0 
0 0 0 0 0 0 0 0 0 
0 0 0 0 0 0 0 0 0 
0 0 0 0 0 0 0 0 0 
0 0 0 0 0 0 0 0 0 
0 0 0 0 0 0 0 0 0 
0 0 0 0 0 0 0 0 0 
0 0 0 0 0 0 0 0 0 
0 0 0 0 0 0 0 0 0 
0 0 0 -1 0 0 0 0 0 
0 0 0 0 0 0 0 0 0 
0 0 0 0 0 0 0 0 0 
0 0 0 0 0 0 0 0 0 
0 0 0 0 0 0 0 0 0 
0 0 0 0 0 0 0 0 0 
0 0 0 0 0 0 0 0 0 
0 0 0 0 0 0 0 0 0 
0 0 0 0 0 0 0 0 0 
0 0 0 0 0 0 0 0 0 
0 0 0 0 0 0 0 0 0 
0 0 0 0 0 0 0 0 0 
0 0 0 0 0 0 0 0 0 
0 0 0 0 0 0 0 0 0 
0 0 0 0 0 0 0 0 0 
0 0 0 0 0 0 0 0 0 
0 0 0 0 0 0 0 0 0 
0 0 0 0 0 0 0 0 0 
0 0 0 0 0 0 0 0 0 
0 0 0 0 0 0 0 0 0 
0 0 0 -1 0 0 0 0 0 
0 0 0 0 0 0 0 0 0 
0 0 0 0 0 0 0 0 0 
0 0 0 0 0 0 0 0 0 
0 0 0 0 0 0 0 0 0 
0 0 0 0 0 0 0 0 0 
0 0 0 0 0 0 0 0 0 
0 0 0 0 0 0 0 0 0 
1 0 0 0 0 0 0 0 0 
1 0 0 1 0 0 0 0 0 
0 0 0 0 0 0 0 0 0 
0 0 0 0 0 0 0 0 0 
0 0 0 0 0 0 0 0 0 
0 0 0 0 0 0 0 0 0 
0 0 0 0 0 0 0 0 0 
0 0 0 0 0 0 0 0 0 
0 0 0 0 0 0 0 0 0 
0 0 0 0 0 0 0 0 0 
0 0 0 0 0 0 0 0 0 
0 0 0 0 0 0 0 0 0 
0 0 0 0 0 0 0 0 0 
0 0 0 0 0 0 0 0 0 
0 0 0 0 0 0 0 0 0 
0 0 0 0 0 0 0 0 0 
0 0 0 0 0 0 0 0 0 
0 0 0 0 0 0 0 0 0 
0 0 0 0 0 0 0 -1 0 
0 0 0 0 0 0 0 0 0 
0 0 0 0 0 0 0 0 0 
0 0 0 0 0 0 0 0 0 
0 0 0 0 0 0 0 -1 0 
0 0 0 0 -1 0 0 0 0 
0 0 0 0 0 0 0 0 0 
0 0 0 0 0 0 0 0 0 
0 0 0 0 0 0 0 0 0 
0 0 0 0 0 0 0 0 0 
0 0 0 0 0 0 0 0 0 
0 0 0 0 0 0 0 0 0 
0 0 0 0 0 0 0 0 0 
0 0 0 0 0 0 0 0 0 
0 0 0 0 0 0 -1 0 0 
0 0 0 0 0 0 0 0 0 
0 0 0 0 0 0 0 0 0 
0 0 0 0 0 0 0 0 0 
0 0 0 0 0 0 0 0 0 
0 0 0 0 0 0 0 0 0 
0 0 0 0 0 0 0 0 0 
0 0 0 0 0 0 0 0 0 
0 0 0 0 0 0 0 0 0 
0 1 0 0 0 0 0 0 0 
0 0 0 0 0 0 0 0 0 
0 0 0 0 0 0 0 0 0 
0 0 0 0 0 0 0 0 0 
0 0 0 0 0 0 0 0 0 
0 0 0 0 0 0 0 1 0 
0 0 0 0 0 0 0 0 0 
0 0 0 0 0 0 0 0 0 
0 1 0 0 0 0 0 0 0 
0 0 0 0 0 0 0 0 0 
0 0 0 0 0 0 0 0 0 
0 0 0 0 0 0 0 1 0 
0 0 0 0 1 0 0 0 0 
0 0 0 0 0 0 0 0 0 
0 0 0 0 0 0 0 0 0 
0 0 0 0 0 0 0 0 0 
0 0 0 1 0 0 0 0 0 
0 0 0 0 0 0 0 0 0 
0 0 0 0 0 0 0 0 0 
0 0 0 0 0 0 0 0 0 
0 0 0 0 0 0 0 0 0 
0 0 0 0 0 0 0 0 0 
0 0 0 0 0 0 0 0 0 
0 0 0 0 0 0 0 0 0 
0 0 0 0 0 0 0 0 0 
0 0 0 0 0 0 0 0 0 
0 0 0 0 0 0 0 0 0 
0 0 0 0 0 0 0 0 0 
0 0 0 0 0 0 0 0 0 
-1 0 0 -1 0 0 0 0 0 
0 0 0 0 0 0 0 0 0 
0 0 0 0 0 0 0 0 0 
0 0 0 0 0 0 0 0 0 
0 0 0 0 0 0 0 0 0 
0 0 0 0 0 0 0 0 0 
0 0 0 0 0 0 0 0 0 
0 0 0 0 0 0 0 0 0 
0 0 0 0 0 0 0 0 0 
0 0 0 0 0 0 0 0 0 
0 0 0 0 0 0 0 0 0 
0 0 0 0 0 0 0 0 0 
0 0 0 0 0 0 0 0 0 
0 0 0 0 0 0 0 0 0 
0 0 0 0 0 0 0 0 0 
0 0 0 0 0 0 0 0 0 
0 0 0 0 0 0 0 0 0 
0 0 0 0 0 0 0 0 0 
0 0 0 0 0 0 0 0 0 
0 0 0 0 0 0 0 0 0 