# vtk DataFile Version 4.0
Generated by LIGGGHTS
ASCII
DATASET POLYDATA
POINTS 2000 float
-125.756 -124.102 9.91858 -112.018 -139.639 9.91906 -92.5539 -135.213 9.91877 
-106.113 -120.572 9.91849 -84.9847 -113.065 9.91786 -58.9512 -128.272 9.91705 
-39.0814 -130.144 9.91876 -19.2898 -127.574 9.91743 -45.4975 -111.244 9.91877 
13.17 -138.36 9.91843 4.68305 -121.543 16.5111 29.3454 -126.667 9.91877 
96.3602 -123.302 9.91709 95.8375 -140.81 19.484 115.247 -133.341 9.91767 
135.052 -130.796 9.91877 121.948 -114.549 9.91877 -137.796 -108.185 9.92029 
-129.051 -90.2426 9.91826 -118.804 -106.333 15.7791 -100.594 -100.627 9.92094 
-101.32 -80.6817 9.91074 -55.3604 -92.1076 9.91922 -65.37 -109.374 9.91892 
-31.7785 -96.7453 9.92058 6.22747 -102.766 9.9196 -10.9355 -92.5783 9.9186 
21.9135 -90.4244 9.91879 33.8384 -106.43 9.91872 39.4877 -80.9634 9.91978 
51.4137 -96.9705 9.91923 71.237 -94.6412 9.91866 59.3086 -78.6392 9.91877 
88.5072 -104.647 9.91913 94.4715 -85.5991 9.92224 107.985 -100.286 9.91877 
128.602 -95.7396 9.91368 113.941 -81.235 9.91343 -135.482 -60.0969 9.91581 
-118.566 -70.6625 9.91877 -117.862 -50.7151 9.91797 -100.597 -60.7339 9.92003 
-80.7078 -62.4496 9.91955 -57.8998 -72.3119 9.91849 -38.7841 -78.0533 9.91877 
-19.1647 -74.3949 9.90954 -32.1429 -59.2285 9.91939 -8.00317 -57.8569 9.91691 
0.739934 -75.8006 9.91702 36.1116 -57.3283 9.91632 18.2625 -66.2518 9.91874 
56.0316 -56.1683 9.91767 77.5775 -53.5858 9.92123 78.596 -73.5136 9.91968 
137.34 -77.8083 9.91864 126.575 -61.005 9.91877 -128.617 -33.901 9.91904 
-111.574 -17.3018 18.9507 -89.166 -44.3743 9.92006 -85.1053 -24.8389 9.91717 
-106.43 -34.3492 9.91985 -30.5137 -24.6652 9.91865 -23.8595 -42.2965 16.4935 
-12.1365 -16.8791 9.90756 45.0684 -39.4909 9.91856 92.1653 -39.9714 9.91373 
108.941 -22.5956 9.92177 89.7578 -17.1023 9.91745 111.985 -42.3218 9.91908 
135.773 -43.2953 9.90833 127.027 -26.9156 17.1728 -129.053 -13.9466 9.91877 
-131.232 9.78469 9.91697 -106.768 6.08699 9.91967 -90.6394 -5.66843 9.91764 
-65.5829 -6.99391 9.91765 -45.5165 6.999 17.3178 -45.5485 -11.538 9.91876 
-14.8473 4.95153 9.92194 1.69715 -2.06334 18.6006 35.9286 12.1255 9.91821 
27.6194 -6.53237 9.91877 104.104 -3.22646 9.91965 123.289 -8.72066 9.91173 
-116.66 23.4224 9.91803 -107.528 38.0974 19.8968 -45.8626 30.0709 9.91621 
-30.2974 17.5822 9.91878 -29.3304 41.2389 9.91524 32.5991 31.8014 9.91717 
70.6756 20.0455 9.91685 77.7529 38.7023 9.9141 51.3063 24.8536 9.91877 
56.1042 44.2302 9.92085 90.3748 23.2416 9.91815 97.3166 42.6169 9.91623 
-120.452 49.5608 9.91871 -131.328 66.2861 9.91122 -140.311 47.5702 9.91862 
-94.085 48.9737 9.91975 -99.7479 68.1137 9.91877 -56.4319 47.0028 9.91822 
-77.2682 75.1942 9.91686 -74.9165 54.5112 10.563 -59.1767 66.7701 9.91859 
2.18906 63.9111 9.91877 26.6178 50.8389 9.91673 27.656 71.1083 9.91872 
44.179 60.11 11.9552 63.8704 62.6154 9.91889 100.024 67.6233 9.91877 
84.5777 55.4332 18.3954 80.8397 73.1132 9.91932 114.073 53.4529 9.91755 
130.815 64.3066 9.91719 -116.236 79.3622 9.92049 -135.098 85.8732 9.91017 
-94.8015 87.4509 9.91552 -21.8102 103.794 9.9112 13.4131 85.0822 9.91877 
-4.52116 93.8289 9.91586 5.06104 109.105 18.4562 22.0696 103.064 9.92135 
104.975 86.9561 9.91877 85.7903 92.4449 9.92033 98.7815 107.6 9.92047 
117.973 102.099 9.91922 124.586 83.2657 9.9174 -131.592 138.442 9.92008 
-88.7698 127.194 9.91504 -73.6897 140.27 9.9191 -54.6649 134.237 9.91718 
-37.0552 116.669 9.91625 -28.7136 134.8 9.9211 -6.30549 139.27 9.91483 
-9.61655 119.591 9.91833 15.496 123.819 9.91833 39.1572 137.952 9.91624 
34.7296 118.492 9.91737 61.5234 121.774 9.91877 78.0023 110.701 11.9653 
82.3169 130.07 9.91426 134.648 114.229 9.91503 127.35 132.797 9.91845 
112.846 120.447 15.8691 -116.837 -128.777 27.1502 -136.075 -133.238 30.0413 
-128.169 -113.096 32.0549 -120.27 -122.713 47.6588 -133.608 -137.46 49.3922 
-100.421 -131.1 38.2609 -85.9014 -123.114 27.1367 -81.3859 -136.06 41.6401 
-103.566 -113.936 28.5697 -66.0426 -121.125 27.1465 -49.4757 -134.066 26.5002 
-61.321 -130.85 43.9207 -53.1977 -112.706 39.894 -0.497714 -136.945 28.1044 
9.28867 -128.823 48.1238 17.5722 -128.694 29.9682 33.5262 -140.612 28.7498 
32.3003 -115.476 32.5541 33.9682 -132.634 47.0342 64.8302 -125.6 24.7974 
97.9439 -128.993 35.4256 88.9134 -113.722 47.1575 108.714 -114.897 44.9197 
106.415 -114.447 24.7073 135.356 -116.915 25.5417 119.714 -126.695 33.165 
128.441 -112.123 43.6448 -112.381 -89.5096 24.3868 -138.264 -96.8532 26.3433 
-79.2075 -89.8191 35.3567 -18.4244 -109.289 39.6775 -44.4457 -86.6953 33.9348 
5.38285 -88.8921 24.2461 15.2533 -104.584 31.6391 -1.05446 -79.0646 42.045 
17.3146 -86.6149 40.0827 32.826 -96.2895 27.0802 28.0905 -102.049 46.7088 
94.8881 -96.4263 28.8695 91.1439 -93.9181 48.3133 109.981 -95.2128 41.8733 
121.958 -102.262 27.5568 125.651 -83.4279 45.5726 126.114 -82.837 25.6365 
-130.566 -77.4404 25.1556 -117.837 -62.3413 28.0459 -110.137 -59.2669 46.2015 
-92.385 -57.5087 37.2465 -104.631 -47.7852 24.5684 -76.268 -57.791 49.0153 
-27.7266 -77.8593 27.5834 -20.0151 -59.5433 25.767 8.21311 -69.3649 27.2672 
-5.73778 -59.8074 39.7072 13.0618 -63.048 45.5677 26.1882 -77.6276 24.6272 
33.2796 -64.036 37.4077 45.6703 -48.7122 28.6571 37.8905 -47.1351 46.9699 
46.7092 -67.8657 23.1408 66.7731 -65.537 23.88 66.3189 -52.5821 40.0894 
99.5362 -62.4592 35.6188 133.812 -64.7804 29.2229 133.764 -65.5491 49.1654 
-124.681 -46.0666 42.6551 -133.294 -46.8547 24.6783 -118.517 -33.8048 27.765 
-137.399 -27.4198 26.6304 -123.427 -15.8417 34.9481 -57.7602 -40.6988 24.7997 
-24.8364 -41.9878 36.4302 13.7822 -34.9571 24.8012 -9.72555 -42.8479 49.4421 
38.6028 -25.978 47.6951 65.4555 -43.6377 22.2679 55.0771 -37.0746 45.703 
98.204 -29.0444 25.4743 88.1248 -30.1929 42.6673 129.201 -45.3755 28.6322 
-120.183 0.136805 23.4469 -114.125 0.146616 42.4681 -140.793 -6.30269 26.0224 
-136.932 3.7793 42.8098 -100.706 -2.54878 26.865 -100.106 12.9115 48.7338 
-78.4362 -12.5359 24.1446 -69.1783 -12.4024 41.8254 -56.6401 -5.89718 27.7257 
-53.2365 11.1534 48.1207 -24.4305 -7.37179 41.1879 9.31521 0.599343 36.8522 
27.4289 5.26012 26.6218 28.4499 -7.99888 41.5055 23.8113 11.4511 45.2493 
59.1074 -9.3711 24.7974 88.9397 7.7697 30.8957 82.0574 1.80686 48.6557 
-126.984 34.1328 23.225 -110.958 17.233 28.0149 -127.776 20.8928 38.1396 
-105.986 30.7056 41.8668 -76.583 22.645 24.7986 -48.5749 43.1937 28.5703 
-41.8959 24.3854 28.6327 0.991993 32.3185 24.7982 33.8114 23.2041 32.5906 
43.2141 40.1598 24.6056 74.621 21.5949 29.4198 68.2389 46.5194 25.6081 
86.9862 20.9321 45.7733 86.3362 39.6239 30.4472 121.984 22.8502 24.8016 
136.604 45.0189 47.5089 -116.658 63.9725 41.5276 -85.3382 49.0987 45.8781 
-85.6941 56.2921 27.2684 -82.0275 68.5052 42.6312 -88.4747 77.8367 26.2151 
-62.3207 49.0565 42.6932 -62.7213 70.4098 29.2202 -52.4931 65.3567 48.7164 
-28.1454 72.8264 24.7936 4.6187 65.6661 34.5889 -7.35612 57.0508 48.0279 
27.689 47.3814 41.566 22.2169 59.9838 27.0955 40.9768 65.0985 44.731 
21.1714 67.3714 45.6085 52.0029 57.2205 30.0839 72.9859 64.9679 31.5551 
65.2765 67.9035 49.7326 102.068 51.4637 27.1597 90.9378 75.0847 27.0233 
88.4739 56.5118 40.867 106.104 72.5194 39.7432 134.607 55.331 27.3341 
117.864 65.9423 25.0179 122.461 58.3232 42.8857 137.369 76.2064 24.5344 
132.778 76.4229 43.9514 -135.52 92.8182 47.3028 -93.3588 89.9953 41.2648 
-66.3845 104.876 24.7968 -50.315 85.2038 48.7981 -37.8196 100.12 44.348 
-31.6065 107.529 26.8862 2.21994 89.7669 28.2582 -12.0147 103.722 27.2937 
-8.47148 93.8103 44.6196 7.49891 81.9063 45.8294 2.63878 109.578 39.5067 
18.4737 101.063 30.8481 19.2702 79.5236 29.8894 25.2447 92.8214 47.7143 
51.6008 91.7553 24.7962 77.4368 99.701 46.9385 79.4806 80.3456 42.4971 
86.098 94.2482 29.7997 134.276 97.2372 20.3607 113.98 105.664 47.5089 
-115.908 110.984 24.7969 -139.512 125.803 45.8668 -88.2025 131.79 29.3259 
-98.5084 132.225 46.4087 -90.5343 112.892 48.7436 -67.441 139.565 28.8625 
-52.7159 132.899 40.5715 -31.4994 140.371 37.8356 -21.8827 124.932 25.8733 
-41.592 129.729 24.3056 -33.5122 120.882 41.5853 -3.13135 137.644 46.4503 
-2.02913 125.163 27.9513 -13.6559 120.924 43.6107 15.066 133.824 33.5609 
45.7967 126.207 24.6229 29.4124 117.704 32.2246 47.0822 134.414 45.3506 
62.2073 123.26 35.5877 107.978 140.435 47.2416 78.698 112.671 31.8155 
89.4627 135.042 37.3698 94.4008 121.668 23.3946 82.5789 120.85 49.6024 
114.184 137.38 26.3467 134.52 125.698 27.5672 126.937 137.589 41.6906 
-140.52 -120.121 56.4601 -133.444 -133.91 69.0326 -137.863 -115.63 75.7231 
-109.896 -137.103 56.8052 -95.1093 -117.291 51.6562 -90.3347 -134.775 60.0145 
-75.3469 -119.816 52.8604 -71.2886 -140.484 58.277 -58.3214 -126.087 63.07 
-76.3453 -126.542 71.6289 -55.4835 -114.118 78.7899 -42.6972 -131.707 51.0437 
-40.1388 -118.24 65.5482 -36.6302 -136.717 72.2256 -20.9209 -140.719 54.7377 
-18.2052 -130.396 76.5755 -4.50595 -132.125 62.1638 6.82264 -115.707 62.9623 
8.11867 -129.437 77.3876 45.0499 -116.874 52.2518 26.0693 -118.175 58.2906 
35.0377 -128.341 73.785 23.0378 -112.779 77.2617 48.5264 -134.701 60.5253 
62.7338 -117.56 61.4819 68.2274 -136.403 57.8482 62.965 -137.959 77.0326 
86.8539 -133.098 51.4975 103.685 -127.283 60.5084 87.2774 -123.466 71.7663 
105.87 -133.545 79.3329 122.083 -128.625 52.891 125.72 -116.169 68.0546 
126.5 -134.102 76.7805 -123.994 -89.3472 57.342 -84.5605 -107.144 65.2248 
-90.8185 -88.441 68.2818 -64.142 -106.238 62.2652 -47.7545 -97.6885 54.7189 
-70.8823 -88.7996 69.2724 -52.4883 -94.9946 73.9193 -33.5915 -99.854 69.7099 
10.6037 -97.6749 55.284 -4.12936 -85.3552 60.7347 15.025 -78.4238 58.1398 
27.5834 -95.5117 65.5584 41.3837 -109.139 70.2872 57.7464 -84.3227 51.9203 
82.5823 -105.584 64.249 106.053 -86.9916 59.6314 107.466 -107.927 63.5805 
89.895 -91.0928 75.863 124.413 -98.9349 58.0752 112.827 -94.1486 76.9883 
132.23 -98.2834 79.1747 -127.938 -54.7597 60.3156 -126.845 -62.9682 80.0807 
-109.301 -58.8931 66.1402 -93.5773 -65.2376 55.6076 -82.7568 -56.0289 69.6196 
[...]
POINT_DATA 2000
FIELD FieldData 7
id 1 2000 int
244 224 311 293 113 306 121 444 93 
415 89 380 194 73 97 382 171 384 
223 143 82 191 270 442 187 214 158 
46 323 149 414 310 401 228 154 173 
262 297 55 268 363 64 258 245 148 
302 174 231 246 326 153 204 227 239 
71 274 152 103 201 417 78 241 256 
54 352 168 410 225 402 340 233 29 
208 252 349 90 458 351 135 408 34 
159 134 282 328 428 216 107 404 165 
67 264 436 166 94 238 226 456 277 
367 120 329 240 260 290 253 147 421 
379 394 182 450 139 338 76 405 446 
170 63 222 199 119 347 376 190 434 
232 133 318 209 48 455 198 123 276 
35 100 75 242 400 261 146 361 373 
180 230 32 142 280 448 350 422 53 
424 286 427 271 60 202 186 344 441 
235 275 22 294 52 197 341 91 452 
316 70 111 9 2 284 412 254 358 
110 132 80 439 291 88 74 127 285 
314 257 429 287 137 65 43 86 196 
105 289 457 178 325 151 355 296 85 
25 322 403 37 343 117 309 411 10 
337 11 183 308 144 397 288 390 212 
49 353 416 332 39 317 362 181 237 
192 4 419 160 383 360 7 301 51 
138 69 263 330 20 392 87 12 324 
375 266 243 57 249 15 345 3 265 
381 281 213 145 388 321 8 215 99 
377 167 131 399 378 108 320 203 247 
359 269 354 96 77 335 346 251 364 
27 331 445 305 116 304 334 30 425 
162 31 435 18 312 140 372 295 17 
6 33 38 368 36 59 303 81 430 
389 125 356 236 115 163 423 426 279 
255 348 61 79 229 283 66 443 259 
1869 858 1289 406 365 1824 164 1196 431 
1754 1015 307 300 1911 299 1878 112 102 
1590 386 420 339 1019 175 195 248 1720 
185 1432 1941 1859 432 727 1671 5 1033 
1555 156 366 327 1883 184 409 272 385 
371 83 14 109 47 1285 1927 118 708 
862 1786 1564 393 336 1724 220 559 342 
193 23 1860 319 1947 333 981 1609 449 
124 437 218 1649 1726 217 1875 1194 315 
661 1084 745 26 267 250 418 1736 205 
45 370 1164 72 398 114 1369 757 141 
155 937 588 844 1762 19 766 769 1160 
84 391 1511 374 106 206 234 157 1866 
28 219 130 751 68 41 56 1393 1662 
101 357 1449 629 1411 454 1915 1023 1446 
453 62 1570 665 313 1606 207 188 433 
1 577 104 58 597 590 273 1771 16 
24 1403 1118 150 1053 407 172 1683 200 
129 126 278 98 447 44 1658 292 1087 
794 221 177 1957 1421 440 1130 211 189 
1980 1520 128 176 413 21 210 395 1404 
1812 161 1874 709 438 929 1840 169 1089 
1711 1889 92 1370 553 1434 1452 298 1402 
1857 1691 95 387 1900 1095 1721 40 136 
1287 1595 13 179 396 1504 776 1623 42 
369 50 974 1075 481 485 1254 1538 972 
1337 959 1816 1343 1312 549 555 1617 1297 
1897 917 1200 1655 606 909 1944 1386 1029 
542 1178 1842 675 1267 521 1455 1004 658 
1693 1717 1477 884 1734 1413 1541 668 1058 
1798 649 1464 1225 1154 1152 1529 541 1959 
1491 1211 1321 1684 1176 2000 463 1682 762 
920 1731 880 1425 487 659 1844 1679 496 
490 1871 1148 838 1823 1522 1216 798 992 
1544 1368 870 609 1419 1239 1008 1172 1108 
1608 1021 847 1041 867 1742 1804 1465 533 
915 1288 1031 451 1346 651 1395 1835 967 
977 811 1919 1735 1389 1125 1483 587 1473 
1962 1070 759 1195 1038 1168 1408 1701 467 
122 1751 716 1405 1681 1990 894 1410 601 
1604 475 507 1965 1416 1576 1533 846 573 
493 1043 942 1639 1766 1732 1936 1537 1773 
1199 615 1365 1205 681 1457 1532 982 604 
1749 859 956 1725 571 1625 1493 1951 822 
1778 1611 969 1870 1246 1145 560 975 1428 
1966 680 961 819 907 789 1896 1025 955 
898 1420 1175 1263 1904 663 842 913 470 
1161 1776 1111 1910 519 1181 1607 1987 1850 
1078 971 1257 1348 1279 1057 958 1640 1556 
843 1846 1566 1926 1062 1833 1899 569 758 
953 872 1183 462 580 1543 1831 837 1689 
815 893 1002 725 460 1584 628 780 1045 
912 1218 480 1431 1879 784 850 868 476 
1546 1123 1052 1328 1633 860 1470 921 633 
1135 881 682 895 1571 1592 976 1901 647 
534 1230 1587 673 1049 1377 522 1744 1105 
1423 1182 1134 1761 531 729 706 1723 804 
1558 945 472 552 1372 581 1502 1101 1275 
1953 1887 1855 1149 719 1568 1073 1578 793 
465 1838 1499 1458 635 750 471 1048 468 
1463 940 1688 1917 667 631 1613 671 650 
1340 968 1600 1935 1418 1081 1685 925 1890 
1177 1659 1484 1796 1808 1114 1266 1064 1219 
1653 1059 1308 1583 504 1478 1644 1480 1863 
1136 1642 1868 1497 1360 899 1526 1120 854 
1938 943 1272 960 1772 1273 1596 1984 1445 
973 1330 754 595 1829 1826 678 808 514 
1898 1834 1437 1895 1740 1849 538 1206 1918 
1221 998 1066 1690 637 1969 1236 882 735 
1548 1110 1268 523 806 1943 1757 988 489 
1295 1234 1476 1104 1228 1983 756 1466 918 
856 1707 997 1923 1673 572 694 1668 1638 
951 812 1091 625 1619 1097 677 1968 1214 
840 551 1126 1208 1210 1067 994 1490 1979 
1127 1357 730 1667 1259 1333 1939 1774 540 
1937 786 892 693 1124 1818 763 1140 488 
979 596 1536 623 499 1192 900 993 1579 
529 1026 1012 1338 1777 1569 1213 1313 1291 
902 1498 871 941 814 1793 1472 1562 1347 
1942 1401 1044 1494 1339 1621 1274 494 1132 
928 1349 1554 1924 910 1746 1374 720 1083 
1925 1851 1574 1286 1069 1071 1507 1202 582 
803 1706 1077 576 1322 652 539 1056 689 
901 1954 738 1932 1618 1864 630 512 1143 
1080 1055 764 1307 1139 770 1280 1260 1789 
802 1115 810 1442 931 564 536 1209 566 
1950 1224 1631 1893 1527 1885 1422 1189 739 
1794 474 1854 1615 1391 532 554 1989 1158 
1426 611 1634 1506 1424 717 1508 509 1993 
1170 705 1841 558 1601 1847 999 991 1387 
1913 1174 1486 1383 653 1945 1231 1672 1730 
1250 1656 1131 1552 1061 1827 602 1060 497 
1076 1809 704 1171 1865 825 1063 1074 1517 
1582 1107 1670 823 1467 1985 1068 1785 799 
774 1759 692 742 1256 484 768 1451 1819 
1034 1251 527 1801 760 1293 1970 674 1997 
747 1304 1795 618 1096 908 923 1098 1042 
1637 1882 1462 1227 835 1603 736 1106 1712 
1450 1678 876 1474 700 1839 1680 801 516 
746 1371 877 779 1810 922 1510 775 732 
1704 1716 639 785 1314 1573 1122 608 614 
621 1001 1783 1627 1155 1775 1862 1000 1549 
477 1179 1902 1946 1269 1147 1112 524 916 
887 695 1622 483 930 1496 1100 782 1316 
1429 1156 703 1929 1581 1563 620 1788 1353 
765 1780 1560 1471 1624 935 891 1748 607 
1006 1963 1197 744 1233 807 1976 1342 648 
579 1728 1255 662 1646 1861 1713 1769 795 
1364 1050 568 1958 1201 1620 1998 1747 1317 
1090 1813 1252 1180 526 634 1032 1738 1814 
949 1363 492 1905 574 1822 1373 1460 1948 
654 1379 1359 548 1444 1380 503 1676 1955 
1741 926 1054 1492 805 1361 1561 830 1265 
479 1436 1807 1765 1551 836 520 1988 1144 
546 995 1381 1299 715 1577 696 966 500 
1017 1186 1242 603 1591 792 816 1325 1355 
1832 1240 726 1438 510 1037 1977 1443 1128 
656 1247 688 1612 1014 1165 1843 873 1332 
530 627 1666 1858 1459 687 827 610 1710 
1320 1184 1157 924 1700 1516 1515 686 1531 
1884 1550 1119 875 1215 874 1837 1301 657 
1908 1628 1398 724 1745 1427 711 1396 1435 
978 701 1277 1674 1931 1881 679 1836 1281 
914 1514 1309 1750 1982 578 511 1981 1598 
469 748 1973 1585 832 1872 1237 952 1972 
1648 1138 1072 1366 547 824 565 755 1229 
1400 1752 1845 1151 1599 1505 1803 638 1888 
1760 1018 1534 1047 619 1007 684 1519 1453 
749 1559 1358 1825 1652 866 1433 664 586 
1141 1545 1245 550 1344 698 1580 707 1193 
1971 1647 1036 1907 1390 464 800 1928 535 
790 1709 570 965 473 1085 1005 1310 1727 
1553 1086 1495 1503 1244 1099 1643 948 1787 
1294 957 853 482 1876 934 1102 599 1602 
1512 685 525 1167 1030 660 655 864 1912 
1815 933 1226 1743 1412 1523 1999 1616 905 
1173 1967 722 1065 1657 517 1800 641 712 
1805 1282 983 1362 598 1597 1306 583 851 
752 1013 591 1261 515 1485 1686 777 593 
1479 567 1651 1696 1821 1594 1092 1852 1220 
1415 1166 670 1350 962 1392 861 1117 820 
906 1039 1113 1283 1626 970 486 1768 612 
1934 501 1352 1797 826 821 771 1733 831 
761 1922 1440 1914 1518 1376 1708 834 1964 
897 1311 1886 1409 1542 740 1489 478 796 
1318 1488 676 1763 1605 1133 594 1940 1524 
1094 987 1695 1430 1781 839 1996 1324 841 
753 1758 1586 1994 946 1046 645 985 781 
1995 626 1894 1933 1417 989 617 833 1129 
1481 950 857 829 1817 1331 1853 585 556 
787 1190 1806 1153 1767 518 1394 1142 1873 
980 1382 1718 1284 600 1521 624 1203 622 
1513 1292 702 1290 1461 1315 767 1992 1270 
869 1079 772 584 1891 1687 963 1705 1469 
1345 1187 1921 1235 1764 1614 737 1632 1867 
605 562 1916 1082 1629 1547 1675 818 1137 
927 632 1335 879 1880 1698 731 1198 1739 
1020 1892 1278 1475 1022 1692 1016 1276 1241 
1729 644 1326 1024 1121 1645 863 743 984 
561 1722 1856 713 1792 809 1378 1243 506 
1956 1799 1329 498 817 1961 1702 616 1303 
932 1232 845 1217 1341 1447 1146 1677 1588 
1238 1660 1351 669 714 1051 1384 1163 1593 
1191 1535 1641 710 1169 849 939 896 783 
537 1974 1334 1456 1116 1664 543 1906 1697 
944 1828 1264 848 563 1753 1635 885 1782 
1454 1509 1185 954 778 1756 883 1439 575 
791 1367 1530 886 1565 1323 1305 466 508 
728 723 495 1930 741 1575 1298 1212 1500 
1802 1011 1302 640 513 911 1399 545 646 
1223 1356 904 1669 1040 1589 733 1978 505 
683 1258 1159 828 1830 1103 672 1540 1665 
889 878 1035 1909 1249 1699 773 1027 1009 
697 557 718 1448 852 1375 1093 1525 1779 
459 1949 788 690 491 1572 1262 1694 1162 
642 1975 613 1003 964 1468 1407 1661 1385 
1414 1296 1848 528 1501 996 903 1960 1719 
1820 1397 1319 643 1567 666 544 721 1654 
1088 1406 1300 1991 1952 1737 502 1557 865 
592 855 1528 1714 947 1271 1109 1150 589 
1791 1028 1663 1487 1703 936 1354 1388 890 
1636 888 1610 1903 1188 1877 813 1986 990 
1248 1010 1441 1650 938 1790 797 919 1253 
1327 1482 1920 1630 1207 1539 734 1770 1755 
691 1204 699 1336 1715 1222 1784 636 1811 
986 461 
type 1 2000 int
1 1 1 1 1 1 1 1 1 
1 1 1 1 1 1 1 1 1 
1 1 1 1 1 1 1 1 1 
1 1 1 1 1 1 1 1 1 
1 1 1 1 1 1 1 1 1 
1 1 1 1 1 1 1 1 1 
1 1 1 1 1 1 1 1 1 
1 1 1 1 1 1 1 1 1 
1 1 1 1 1 1 1 1 1 
1 1 1 1 1 1 1 1 1 
1 1 1 1 1 1 1 1 1 
1 1 1 1 1 1 1 1 1 
1 1 1 1 1 1 1 1 1 
1 1 1 1 1 1 1 1 1 
1 1 1 1 1 1 1 1 1 
1 1 1 1 1 1 1 1 1 
1 1 1 1 1 1 1 1 1 
1 1 1 1 1 1 1 1 1 
1 1 1 1 1 1 1 1 1 
1 1 1 1 1 1 1 1 1 
1 1 1 1 1 1 1 1 1 
1 1 1 1 1 1 1 1 1 
1 1 1 1 1 1 1 1 1 
1 1 1 1 1 1 1 1 1 
1 1 1 1 1 1 1 1 1 
1 1 1 1 1 1 1 1 1 
1 1 1 1 1 1 1 1 1 
1 1 1 1 1 1 1 1 1 
1 1 1 1 1 1 1 1 1 
1 1 1 1 1 1 1 1 1 
1 1 1 1 1 1 1 1 1 
1 1 1 1 1 1 1 1 1 
1 1 1 1 1 1 1 1 1 
1 1 1 1 1 1 1 1 1 
1 1 1 1 1 1 1 1 1 
1 1 1 1 1 1 1 1 1 
1 1 1 1 1 1 1 1 1 
1 1 1 1 1 1 1 1 1 
1 1 1 1 1 1 1 1 1 
1 1 1 1 1 1 1 1 1 
1 1 1 1 1 1 1 1 1 
1 1 1 1 1 1 1 1 1 
1 1 1 1 1 1 1 1 1 
1 1 1 1 1 1 1 1 1 
1 1 1 1 1 1 1 1 1 
1 1 1 1 1 1 1 1 1 
1 1 1 1 1 1 1 1 1 
1 1 1 1 1 1 1 1 1 
1 1 1 1 1 1 1 1 1 
1 1 1 1 1 1 1 1 1 
1 1 1 1 1 1 1 1 1 
1 1 1 1 1 1 1 1 1 
1 1 1 1 1 1 1 1 1 
1 1 1 1 1 1 1 1 1 
1 1 1 1 1 1 1 1 1 
1 1 1 1 1 1 1 1 1 
1 1 1 1 1 1 1 1 1 
1 1 1 1 1 1 1 1 1 
1 1 1 1 1 1 1 1 1 
1 1 1 1 1 1 1 1 1 
1 1 1 1 1 1 1 1 1 
1 1 1 1 1 1 1 1 1 
1 1 1 1 1 1 1 1 1 
1 1 1 1 1 1 1 1 1 
1 1 1 1 1 1 1 1 1 
1 1 1 1 1 1 1 1 1 
1 1 1 1 1 1 1 1 1 
1 1 1 1 1 1 1 1 1 
1 1 1 1 1 1 1 1 1 
1 1 1 1 1 1 1 1 1 
1 1 1 1 1 1 1 1 1 
1 1 1 1 1 1 1 1 1 
1 1 1 1 1 1 1 1 1 
1 1 1 1 1 1 1 1 1 
1 1 1 1 1 1 1 1 1 
1 1 1 1 1 1 1 1 1 
1 1 1 1 1 1 1 1 1 
1 1 1 1 1 1 1 1 1 
1 1 1 1 1 1 1 1 1 
1 1 1 1 1 1 1 1 1 
1 1 1 1 1 1 1 1 1 
1 1 1 1 1 1 1 1 1 
1 1 1 1 1 1 1 1 1 
1 1 1 1 1 1 1 1 1 
1 1 1 1 1 1 1 1 1 
1 1 1 1 1 1 1 1 1 
1 1 1 1 1 1 1 1 1 
1 1 1 1 1 1 1 1 1 
1 1 1 1 1 1 1 1 1 
1 1 1 1 1 1 1 1 1 
1 1 1 1 1 1 1 1 1 
1 1 1 1 1 1 1 1 1 
1 1 1 1 1 1 1 1 1 
1 1 1 1 1 1 1 1 1 
1 1 1 1 1 1 1 1 1 
1 1 1 1 1 1 1 1 1 
1 1 1 1 1 1 1 1 1 
1 1 1 1 1 1 1 1 1 
1 1 1 1 1 1 1 1 1 
1 1 1 1 1 1 1 1 1 
1 1 1 1 1 1 1 1 1 
1 1 1 1 1 1 1 1 1 
1 1 1 1 1 1 1 1 1 
1 1 1 1 1 1 1 1 1 
1 1 1 1 1 1 1 1 1 
1 1 1 1 1 1 1 1 1 
1 1 1 1 1 1 1 1 1 
1 1 1 1 1 1 1 1 1 
1 1 1 1 1 1 1 1 1 
1 1 1 1 1 1 1 1 1 
1 1 1 1 1 1 1 1 1 
1 1 1 1 1 1 1 1 1 
1 1 1 1 1 1 1 1 1 
1 1 1 1 1 1 1 1 1 
1 1 1 1 1 1 1 1 1 
1 1 1 1 1 1 1 1 1 
1 1 1 1 1 1 1 1 1 
1 1 1 1 1 1 1 1 1 
1 1 1 1 1 1 1 1 1 
1 1 1 1 1 1 1 1 1 
1 1 1 1 1 1 1 1 1 
1 1 1 1 1 1 1 1 1 
1 1 1 1 1 1 1 1 1 
1 1 1 1 1 1 1 1 1 
1 1 1 1 1 1 1 1 1 
1 1 1 1 1 1 1 1 1 
1 1 1 1 1 1 1 1 1 
1 1 1 1 1 1 1 1 1 
1 1 1 1 1 1 1 1 1 
1 1 1 1 1 1 1 1 1 
1 1 1 1 1 1 1 1 1 
1 1 1 1 1 1 1 1 1 
1 1 1 1 1 1 1 1 1 
1 1 1 1 1 1 1 1 1 
1 1 1 1 1 1 1 1 1 
1 1 1 1 1 1 1 1 1 
1 1 1 1 1 1 1 1 1 
1 1 1 1 1 1 1 1 1 
1 1 1 1 1 1 1 1 1 
1 1 1 1 1 1 1 1 1 
1 1 1 1 1 1 1 1 1 
1 1 1 1 1 1 1 1 1 
1 1 1 1 1 1 1 1 1 
1 1 1 1 1 1 1 1 1 
1 1 1 1 1 1 1 1 1 
1 1 1 1 1 1 1 1 1 
1 1 1 1 1 1 1 1 1 
1 1 1 1 1 1 1 1 1 
1 1 1 1 1 1 1 1 1 
1 1 1 1 1 1 1 1 1 
1 1 1 1 1 1 1 1 1 
1 1 1 1 1 1 1 1 1 
1 1 1 1 1 1 1 1 1 
1 1 1 1 1 1 1 1 1 
1 1 1 1 1 1 1 1 1 
1 1 1 1 1 1 1 1 1 
1 1 1 1 1 1 1 1 1 
1 1 1 1 1 1 1 1 1 
1 1 1 1 1 1 1 1 1 
1 1 1 1 1 1 1 1 1 
1 1 1 1 1 1 1 1 1 
1 1 1 1 1 1 1 1 1 
1 1 1 1 1 1 1 1 1 
1 1 1 1 1 1 1 1 1 
1 1 1 1 1 1 1 1 1 
1 1 1 1 1 1 1 1 1 
1 1 1 1 1 1 1 1 1 
1 1 1 1 1 1 1 1 1 
1 1 1 1 1 1 1 1 1 
1 1 1 1 1 1 1 1 1 
1 1 1 1 1 1 1 1 1 
1 1 1 1 1 1 1 1 1 
1 1 1 1 1 1 1 1 1 
1 1 1 1 1 1 1 1 1 
1 1 1 1 1 1 1 1 1 
1 1 1 1 1 1 1 1 1 
1 1 1 1 1 1 1 1 1 
1 1 1 1 1 1 1 1 1 
1 1 1 1 1 1 1 1 1 
1 1 1 1 1 1 1 1 1 
1 1 1 1 1 1 1 1 1 
1 1 1 1 1 1 1 1 1 
1 1 1 1 1 1 1 1 1 
1 1 1 1 1 1 1 1 1 
1 1 1 1 1 1 1 1 1 
1 1 1 1 1 1 1 1 1 
1 1 1 1 1 1 1 1 1 
1 1 1 1 1 1 1 1 1 
1 1 1 1 1 1 1 1 1 
1 1 1 1 1 1 1 1 1 
1 1 1 1 1 1 1 1 1 
1 1 1 1 1 1 1 1 1 
1 1 1 1 1 1 1 1 1 
1 1 1 1 1 1 1 1 1 
1 1 1 1 1 1 1 1 1 
1 1 1 1 1 1 1 1 1 
1 1 1 1 1 1 1 1 1 
1 1 1 1 1 1 1 1 1 
1 1 1 1 1 1 1 1 1 
1 1 1 1 1 1 1 1 1 
1 1 1 1 1 1 1 1 1 
1 1 1 1 1 1 1 1 1 
1 1 1 1 1 1 1 1 1 
1 1 1 1 1 1 1 1 1 
1 1 1 1 1 1 1 1 1 
1 1 1 1 1 1 1 1 1 
1 1 1 1 1 1 1 1 1 
1 1 1 1 1 1 1 1 1 
1 1 1 1 1 1 1 1 1 
1 1 1 1 1 1 1 1 1 
1 1 1 1 1 1 1 1 1 
1 1 1 1 1 1 1 1 1 
1 1 1 1 1 1 1 1 1 
1 1 1 1 1 1 1 1 1 
1 1 1 1 1 1 1 1 1 
1 1 1 1 1 1 1 1 1 
1 1 1 1 1 1 1 1 1 
1 1 1 1 1 1 1 1 1 
1 1 1 1 1 1 1 1 1 
1 1 1 1 1 1 1 1 1 
1 1 1 1 1 1 1 1 1 
1 1 1 1 1 1 1 1 1 
1 1 
i 3 2000 int
0 0 0 0 0 0 0 0 0 
0 0 0 0 0 0 0 0 0 
0 0 0 0 0 0 0 0 0 
0 0 0 0 0 0 0 0 0 
0 0 0 0 0 0 0 0 0 
0 0 0 0 0 0 0 0 0 
0 0 0 0 0 0 0 0 0 
0 0 0 0 0 0 0 0 0 
0 0 0 0 0 0 0 0 0 
0 0 0 0 0 0 0 0 0 
0 0 0 0 0 0 0 0 0 
0 0 0 0 0 0 0 0 0 
0 0 0 0 0 0 0 0 0 
0 0 0 0 0 0 0 0 0 
0 0 0 0 0 0 0 0 0 
0 0 0 0 0 0 0 0 0 
0 0 0 0 0 0 0 0 0 
0 0 0 0 0 0 0 0 0 
0 0 0 0 0 0 0 0 0 
0 0 0 0 0 0 0 0 0 
0 0 0 0 0 0 0 0 0 
0 0 0 0 0 0 0 0 0 
0 0 0 0 0 0 0 0 0 
0 0 0 0 0 0 0 0 0 
1 0 0 0 0 0 0 0 0 
0 0 0 0 0 0 0 0 0 
0 0 0 0 0 0 0 0 0 
0 0 0 0 0 0 0 0 0 
0 0 0 0 0 0 0 0 0 
0 0 0 0 0 0 0 0 0 
0 0 0 0 0 0 0 0 0 
0 0 0 0 0 0 0 0 0 
0 0 0 0 0 0 1 0 0 
0 0 0 0 0 0 0 0 0 
0 0 0 0 0 0 0 0 0 
0 0 0 0 0 0 0 0 0 
0 0 0 0 0 0 0 0 0 
0 0 0 0 0 0 0 0 0 
0 0 0 0 0 0 0 0 0 
0 0 0 0 0 0 0 0 0 
0 0 0 0 0 0 0 0 0 
0 0 0 0 0 0 0 0 0 
0 0 0 0 0 0 0 -1 0 
0 0 0 0 0 0 0 0 0 
0 0 0 0 0 0 0 -1 0 
0 0 0 0 0 0 0 -1 0 
0 0 0 0 0 0 0 0 0 
0 0 0 0 0 0 0 0 0 
0 0 0 0 0 0 0 0 0 
0 0 0 0 0 0 0 0 0 
0 0 0 0 0 0 0 0 0 
0 0 0 0 0 0 0 0 0 
0 0 0 0 0 0 0 0 0 
0 0 0 0 0 0 0 0 0 
0 0 0 0 0 0 0 0 0 
0 0 0 0 0 0 0 0 0 
0 0 0 0 0 0 0 0 0 
0 0 0 0 0 0 0 0 0 
0 0 0 0 0 0 0 0 0 
0 0 0 0 0 0 0 0 0 
0 0 0 0 0 0 0 0 0 
0 0 0 0 0 0 0 0 0 
0 0 0 0 0 0 0 0 0 
0 0 0 0 0 0 0 0 0 
0 0 0 0 0 0 0 0 0 
0 0 0 0 0 0 0 0 0 
0 0 0 0 0 0 0 0 0 
0 0 0 0 0 0 0 0 0 
0 0 0 0 0 0 0 0 0 
0 0 0 0 0 0 0 0 0 
0 0 0 0 0 0 0 0 0 
1 0 0 0 0 0 0 0 0 
0 0 0 0 0 0 0 0 0 
0 0 0 0 0 0 0 0 0 
0 0 0 0 0 0 0 0 0 
0 0 0 0 0 0 1 0 0 
1 0 0 0 0 0 0 0 0 
0 0 0 0 0 0 0 0 0 
0 0 0 0 0 0 0 0 0 
0 0 0 0 0 0 0 0 0 
0 0 0 0 0 0 0 0 0 
0 0 0 0 0 0 0 0 0 
0 0 0 0 0 0 0 0 0 
0 0 0 0 0 0 0 0 0 
0 0 0 0 0 0 0 0 0 
0 0 0 0 0 0 0 0 0 
0 0 0 0 0 0 0 0 0 
0 0 0 0 0 0 0 0 0 
0 0 0 0 0 0 0 0 0 
0 0 0 0 0 0 0 0 0 
0 0 0 0 0 0 0 0 0 
0 0 0 0 0 0 0 0 0 
0 0 0 0 0 0 0 0 0 
0 0 0 0 0 0 0 0 0 
0 0 0 0 0 0 0 0 0 
0 0 0 0 0 0 0 0 0 
0 0 0 0 0 0 0 0 0 
0 0 0 0 0 0 0 0 0 
0 0 0 0 0 0 0 0 0 
0 0 0 0 0 0 0 0 0 
0 0 0 0 0 0 0 0 0 
0 0 0 0 0 0 0 0 0 
0 0 0 0 0 0 0 0 0 
0 0 0 0 0 0 0 -1 0 
0 0 0 0 0 0 0 0 0 
0 0 0 0 0 0 0 -1 0 
0 0 0 0 0 0 0 0 0 
0 0 0 0 0 0 0 -1 0 
0 0 0 0 -1 0 0 0 0 
0 -1 0 0 0 0 0 0 0 
0 0 0 0 0 0 0 0 0 
0 0 0 0 0 0 0 0 0 
0 0 0 0 0 0 0 0 0 
0 0 0 0 0 0 0 0 0 
0 0 0 0 0 0 0 0 0 
0 0 0 0 0 0 0 0 0 
0 0 0 0 0 0 0 0 0 
0 0 0 0 0 0 0 0 0 
0 0 0 0 0 0 0 0 0 
0 0 0 0 0 0 0 0 0 
0 0 0 0 0 0 0 0 0 
0 0 0 0 0 0 0 0 0 
0 0 0 0 0 0 0 0 0 
0 0 0 0 0 0 0 0 0 
0 0 0 0 0 0 0 0 0 
0 0 0 0 0 0 0 0 0 
0 0 0 0 0 0 0 0 0 
0 0 0 0 0 0 0 0 0 
0 0 0 0 0 0 0 0 0 
-1 0 0 0 0 0 0 0 0 
0 0 0 0 0 0 0 0 0 
0 0 0 0 0 0 0 0 0 
0 0 0 0 0 0 0 0 0 
0 0 0 0 0 0 0 0 0 
0 0 0 0 0 0 0 0 0 
0 0 0 0 0 0 0 0 0 
0 0 0 -1 0 0 0 0 0 
0 0 0 0 0 0 0 0 0 
0 0 0 0 0 0 0 0 0 
0 0 0 0 0 0 0 0 0 
0 0 0 0 0 0 0 0 0 
0 0 0 0 0 0 0 0 0 
0 0 0 0 0 0 0 0 0 
0 0 0 0 0 0 0 0 0 
0 0 0 0 0 0 0 0 0 
0 0 0 0 0 0 0 0 0 
0 0 0 0 0 0 0 0 0 
0 0 0 0 0 0 0 0 0 
0 0 0 0 0 0 0 0 0 
0 0 0 0 0 0 0 0 0 
0 0 0 0 0 0 0 0 0 
0 0 0 0 0 0 0 0 0 
0 0 0 0 0 0 0 0 0 
0 0 0 0 0 0 0 0 0 
0 0 0 0 0 0 0 0 0 
0 0 0 0 0 0 0 0 0 
0 0 0 0 0 0 0 0 0 
0 0 0 0 0 0 0 0 0 
0 0 0 0 0 0 0 0 0 
0 0 0 0 0 0 0 0 0 
0 0 0 0 0 0 0 0 0 
0 0 0 0 0 0 0 0 0 
0 0 0 -1 0 0 0 0 0 
0 0 0 0 0 0 0 0 0 
0 0 0 0 0 0 0 0 0 
0 0 0 0 0 0 0 0 0 
0 0 0 0 0 0 0 0 0 
0 0 0 0 0 0 0 0 0 
0 0 0 0 0 0 0 0 0 
0 0 0 0 0 0 0 0 0 
0 0 0 0 0 0 0 0 0 
0 0 0 0 0 0 0 0 0 
0 0 0 0 0 0 0 0 0 
0 0 0 0 0 0 0 0 0 
0 0 0 0 0 0 0 0 0 
0 0 0 0 0 0 0 0 0 
0 0 0 0 0 0 0 0 0 
0 0 0 0 0 0 0 0 0 
0 0 0 0 0 0 0 0 0 
0 0 0 0 0 0 0 0 0 
0 0 0 0 0 0 0 0 0 
0 0 0 0 0 0 0 0 0 
0 -1 0 0 0 0 0 0 0 
0 0 0 0 0 0 0 0 0 
0 0 0 0 0 0 0 0 0 
0 0 0 0 0 0 0 0 0 
0 0 0 0 0 0 0 0 0 
0 0 0 0 0 0 0 0 0 
0 0 0 0 0 0 0 1 0 
0 0 0 0 0 0 0 0 0 
0 0 0 0 0 0 0 0 0 
0 0 0 0 0 0 0 0 0 
0 0 0 0 0 0 0 0 0 
0 0 0 0 0 0 0 0 0 
0 0 0 0 0 0 0 0 0 
0 0 0 0 0 0 0 0 0 
0 0 0 0 0 0 0 0 0 
0 0 0 0 0 0 0 0 0 
0 0 0 0 0 0 0 0 0 
1 0 0 0 0 0 0 0 0 
0 0 0 0 0 0 0 0 0 
0 0 0 0 0 0 0 0 0 
0 0 0 0 0 0 0 0 0 
0 0 0 0 0 0 0 0 0 
0 0 0 0 0 0 0 0 0 
0 0 0 0 0 0 0 0 0 
0 0 0 0 0 0 0 0 0 
0 0 0 0 0 0 0 0 0 
0 0 0 0 0 0 0 0 0 
0 0 0 0 0 0 0 0 0 
0 0 0 0 0 0 0 0 0 
0 0 0 0 0 0 0 0 0 
0 0 0 0 0 0 0 0 0 
0 0 0 0 0 0 0 0 0 
0 0 0 0 0 0 0 0 0 
0 0 0 0 0 0 0 0 0 
0 0 0 0 0 0 0 0 0 
0 0 0 0 0 0 0 0 0 
0 0 0 0 0 0 0 0 0 
0 0 0 0 0 0 0 0 0 
0 0 0 0 0 0 0 0 0 
0 0 0 0 0 0 0 0 0 
0 0 0 0 0 0 0 0 0 
0 0 0 0 0 0 0 0 0 
0 0 0 0 0 0 0 0 0 
0 0 0 0 0 0 0 0 0 
0 0 0 0 0 0 0 0 0 
0 0 0 0 0 0 0 0 0 
0 0 0 0 0 0 0 0 0 
0 0 0 0 0 0 0 0 0 
0 0 0 0 0 0 0 0 0 
0 0 0 0 0 0 0 0 0 
0 0 0 0 0 0 0 0 0 
0 0 0 0 0 0 0 0 0 
0 0 0 0 0 0 0 0 0 
0 0 0 0 0 0 0 -1 0 
0 0 0 0 0 0 0 0 0 
0 0 0 0 0 0 0 0 0 
0 0 0 0 0 0 0 0 0 
0 0 0 0 0 0 0 0 0 
0 0 0 0 0 0 0 0 0 
0 0 0 0 0 0 0 0 0 
0 0 0 0 -1 0 0 0 0 
0 0 0 0 0 0 0 0 0 
0 0 0 0 0 0 0 0 0 
0 -1 0 0 0 0 0 0 0 
0 0 0 0 0 0 0 0 0 
0 0 0 0 1 0 0 0 0 
0 0 0 0 0 0 0 0 0 
0 1 0 0 1 0 0 0 0 
0 0 0 0 0 0 0 1 0 
0 0 0 0 0 0 0 0 0 
0 0 0 0 0 0 0 0 0 
0 0 0 0 0 0 0 0 0 
0 0 0 0 0 0 0 0 0 
0 0 0 0 0 0 0 0 0 
0 0 0 0 0 0 0 0 0 
0 0 0 0 0 0 0 0 0 
0 0 0 0 0 0 0 0 0 
0 0 0 0 0 0 0 0 0 
0 0 0 0 0 0 0 0 0 
0 0 0 0 0 0 0 0 0 
0 0 0 0 0 0 0 0 0 
0 0 0 0 0 0 0 0 0 
0 0 0 0 0 0 0 0 0 
0 0 0 0 0 0 0 0 0 
0 0 0 0 0 0 0 0 0 
0 0 0 0 0 0 0 0 0 
0 0 0 0 0 0 0 0 0 
0 0 0 0 0 0 0 0 0 
0 0 0 0 0 0 0 0 0 
0 0 0 0 0 0 0 0 0 
0 0 0 0 0 0 0 0 0 
0 0 0 0 0 0 0 0 0 
0 0 0 0 0 0 0 0 0 
0 0 0 0 0 0 0 0 0 
0 0 0 0 0 0 0 0 0 
0 0 0 0 0 0 0 0 0 
0 0 0 0 0 0 0 0 0 
0 0 0 0 0 0 0 0 0 
0 0 0 0 0 0 0 0 0 
0 0 0 0 0 0 0 0 0 
0 0 0 0 0 0 0 0 0 
0 0 0 0 0 0 0 0 0 
0 0 0 0 0 0 0 0 0 
1 0 0 0 0 0 0 0 0 
0 0 0 0 0 0 0 0 0 
0 0 0 0 0 0 0 0 0 
0 0 0 0 0 0 0 0 0 
1 0 0 0 0 0 0 0 0 
0 0 0 0 0 0 0 0 0 
0 0 0 0 0 0 0 0 0 
0 0 0 0 0 0 0 0 0 
0 0 0 0 0 0 0 0 0 
0 0 0 0 0 0 0 0 0 
0 0 0 0 0 0 0 0 0 
0 0 0 0 0 0 0 0 0 
0 0 0 0 0 0 0 0 0 
0 0 0 0 0 0 0 0 0 
0 0 0 0 0 0 0 0 0 
0 0 0 0 0 0 0 0 0 
0 0 0 0 0 0 -1 0 0 
0 0 0 0 0 0 0 0 0 
0 0 0 0 0 0 0 1 0 
0 1 0 0 0 0 0 0 0 
0 1 0 0 1 0 0 0 0 
0 0 0 0 0 0 0 0 0 
0 1 0 0 0 0 0 0 0 
0 0 0 0 0 0 0 0 0 
0 0 0 0 0 0 0 0 0 
0 0 0 0 0 0 0 0 0 
0 0 0 0 0 0 0 0 0 
0 0 0 0 0 0 0 0 0 
0 0 0 0 0 0 0 0 0 
0 0 0 0 0 0 0 0 0 
0 0 0 0 0 0 1 0 0 
0 0 0 0 0 0 0 0 0 
0 0 0 0 0 0 0 0 0 
0 0 0 0 0 0 0 0 0 
0 0 0 0 0 0 1 0 0 
0 0 0 0 0 0 0 0 0 
0 0 0 0 0 0 0 0 0 
0 0 0 0 0 0 0 0 0 
0 0 0 0 0 0 0 0 0 
0 0 0 0 0 0 0 0 0 
0 0 0 0 0 0 0 0 0 
0 0 0 0 0 0 0 0 0 
0 0 0 0 0 0 0 0 0 
0 0 0 0 0 0 0 0 0 
0 0 0 0 0 0 0 0 0 
0 0 0 0 0 0 0 0 0 
0 0 0 0 0 0 0 0 0 
0 0 0 0 0 0 0 0 0 
0 0 0 0 0 0 0 0 0 
0 0 0 0 0 0 0 0 0 
0 0 0 0 0 0 0 0 0 
0 0 0 -1 0 0 0 0 0 
0 0 0 0 0 0 0 0 0 
0 0 0 0 0 0 0 0 0 
0 0 0 0 0 0 0 0 0 
0 0 0 0 0 0 0 0 0 
0 0 0 0 0 0 0 0 0 
0 0 0 0 0 0 0 0 0 
0 0 0 0 0 0 0 0 0 
0 0 0 0 0 0 0 0 0 