# vtk DataFile Version 4.0
Generated by LIGGGHTS
ASCII
DATASET POLYDATA
POINTS 1577 float
-85.3436 -85.1671 9.99892 -88.5067 -63.6857 9.99897 -72.1444 -100.339 9.99753 
-102.561 -95.3401 9.99779 -89.3369 -110.923 9.99868 -70.3082 -71.9798 9.99978 
-88.3125 -70.5391 28.7861 -106.89 -71.5584 9.99866 -74.1665 -59.669 37.8811 
-96.487 -88.7693 27.8823 -72.9722 -84.1459 25.679 -102.731 -59.5747 37.3854 
-60.8563 -100.036 26.501 -81.265 -76.193 46.628 -91.4385 -109.335 29.8228 
-62.2652 -75.8564 40.3963 -101.017 -78.2656 44.2868 -108.62 -111.653 19.8536 
-84.656 -95.475 42.5455 -109.118 -105.726 38.9465 -66.7116 -103.886 45.2298 
-91.1713 -60.318 53.6867 -68.7318 -87.8356 56.9872 -105.856 -94.3834 55.0904 
-57.1205 -87.0153 9.99935 -55.9881 -60.26 29.5664 -14.4488 -76.8028 27.1712 
-10.0874 -86.3565 9.99972 -30.3722 -104.811 9.99791 -33.5458 -85.0484 9.99973 
-0.48354 -97.944 25.3966 -13.311 -66.6181 9.99798 -47.7753 -77.9626 25.1881 
-41.1761 -96.8927 24.8464 -50.9605 -106.042 9.99835 -10.0723 -106.365 9.99822 
-31.4345 -83.1406 35.6113 -49.5571 -91.204 42.0898 -31.358 -66.6018 24.0079 
-32.9714 -103.133 41.983 -20.3523 -95.7573 24.7488 -14.2214 -78.0736 47.1293 
-11.2888 -98.6398 42.3417 -31.3161 -67.7751 48.4094 -32.6075 -87.9469 54.9889 
-49.0733 -107.232 54.0397 -12.5835 -59.7866 39.1992 -48.6321 -75.9808 55.0282 
11.5383 -93.6684 9.9975 4.56899 -78.7048 21.2867 29.2676 -68.8931 17.0754 
54.8422 -92.4437 24.8196 39.0977 -84.8081 9.99965 46.2763 -61.1087 9.9984 
49.6304 -72.0834 26.3757 11.3154 -63.6423 9.99637 28.4065 -101.383 17.4724 
46.8621 -103.239 9.99765 3.20568 -85.0257 40.209 12.4825 -113.201 14.8796 
19.9997 -76.213 33.763 10.38 -59.2126 29.4748 36.2014 -87.2816 29.8992 
37.298 -70.3579 42.0235 13.07 -107.334 36.7139 33.0163 -105.926 36.3937 
52.8938 -107.206 38.1685 44.1843 -91.8986 47.6458 25.5241 -83.3856 51.5963 
55.6565 -62.2893 44.5639 4.53777 -66.4214 47.4225 0.579506 -109.307 54.3975 
23.56 -103.755 53.8801 59.8198 -81.4827 40.788 58.3884 -79.4975 9.99701 
110.717 -85.7356 19.5333 85.33 -84.6214 9.99771 86.047 -103.322 17.0475 
66.4774 -63.6224 19.0783 71.942 -82.0752 24.6337 85.916 -66.836 22.5641 
68.3412 -97.1969 9.99973 101.089 -70.2765 9.99892 104.731 -102.263 9.99774 
70.7145 -103.506 29.8829 105.906 -68.9984 29.3678 92.8841 -84.611 28.5144 
101.091 -103.017 30.2205 78.0611 -71.3802 40.3854 85.7347 -88.724 46.7315 
106.033 -70.7363 49.2915 110.016 -87.6696 39.4255 90.9579 -107.725 50.1412 
67.821 -97.9329 48.8694 102.312 -92.82 57.1476 72.257 -59.8497 55.6592 
-57.6505 -56.4958 9.99749 -111.463 -54.8689 20.0222 -101.605 -9.24144 22.3735 
-97.5811 -24.4263 9.99797 -82.4933 -32.349 20.4628 -67.4703 -22.7022 9.99973 
-88.8376 -0.0929795 9.99608 -62.3162 -7.55411 23.2369 -97.0783 -45.2499 9.99806 
-88.2365 -50.2747 27.2176 -113.043 -35.2168 16.6661 -75.9788 -48.0975 9.99837 
-61.969 -40.4929 22.0741 -81.8306 -11.6868 24.7043 -110.53 -12.576 39.9561 
-68.3253 -24.423 32.1403 -81.5917 -12.8034 44.6686 -99.699 -27.8145 29.5946 
-82.5148 -36.0948 40.1086 -68.6023 -45.5614 50.918 -101.035 -35.5033 48.0095 
-59.8878 -14.0712 47.0276 -111.031 -53.1988 54.4274 -102.888 -5.11062 56.8611 
-54.2452 -36.2343 40.0224 -27.5173 -10.424 9.99845 -50.8192 -23.8911 22.2871 
-9.04152 -30.0583 9.99973 -33.9679 -52.5682 9.99951 -17.9686 -51.2599 21.9288 
-2.10599 -48.8166 9.99815 -37.6485 -9.65535 27.2811 -7.37008 -10.129 9.99741 
-47.339 -6.94778 9.99828 -22.5676 -28.9058 24.6865 -4.08241 -18.0777 28.0497 
-36.1228 -29.6367 9.99949 -4.25736 -1.18987 38.7577 -37.0267 -26.1719 38.54 
-10.7812 -32.1035 40.6324 -42.1831 -41.7732 24.6953 -43.7528 -52.886 43.56 
-27.0162 -43.4742 37.973 -20.7635 -14.5336 38.4956 -38.6927 -12.0884 52.6399 
-21.9292 -24.8695 55.5762 -22.4657 -0.398691 52.5399 -6.47022 -12.055 55.4 
-18.395 -0.308773 24.6405 22.9105 -56.7617 44.8667 1.64909 -37.0995 25.7629 
49.9619 -10.1759 25.5768 49.2767 -33.6887 20.8914 15.6908 -16.0644 25.8363 
16.9944 -45.437 16.0185 12.5589 -4.26043 9.99915 38.2973 -19.6986 9.99934 
36.0075 -43.9473 9.99883 10.8398 -27.2922 9.99973 32.5231 -0.536768 9.99739 
33.7689 -24.0091 28.9964 7.87314 -24.5191 42.7315 2.30495 -47.0201 43.1152 
32.3512 -52.2966 27.8007 52.3495 -52.2907 27.5618 50.7201 -20.0732 42.9388 
20.2053 -37.7539 34.2022 31.3184 -4.17191 29.6244 19.042 -8.07383 44.9218 
43.503 -38.3962 39.4514 15.4106 -38.7531 55.758 28.7774 -25.9025 48.2683 
38.1517 -6.54456 50.6186 36.4375 -47.1194 56.0031 92.5766 -56.2448 38.1648 
113.169 -42.3627 35.2591 58.2962 -19.5479 9.99859 61.6771 -44.9785 9.99879 
83.3061 -0.882753 25.9602 100.071 -49.5503 9.99795 75.4553 -38.127 23.2128 
96.9133 -29.7489 9.99815 71.7622 -4.32199 9.99754 80.2697 -52.3421 9.99703 
77.9728 -23.3316 9.99643 69.2396 -15.6992 26.2886 107.994 -16.8481 20.5203 
93.5537 -7.23001 9.99973 63.2179 -35.1108 38.7376 71.0494 -53.2435 35.5505 
89.1051 -20.02 26.2747 95.0364 -39.6573 27.2677 72.0829 -3.95621 42.2244 
84.1638 -20.4533 45.6471 102.625 -25.9751 39.753 97.6328 -6.63893 38.6695 
80.9375 -40.1455 46.9799 100.44 -42.5808 50.6818 104.331 -14.2855 55.8903 
65.5602 -16.9285 55.9772 -105.845 16.0343 26.5327 -69.6448 5.52206 9.99815 
-98.6184 24.6582 9.99894 -78.8321 27.5672 9.99674 -84.1047 13.8348 23.5435 
-64.5102 41.5256 9.99889 -80.1874 48.6458 21.041 -96.7342 46.5803 9.99943 
-108.169 5.03078 9.99719 -72.9777 3.19218 36.3061 -92.9121 1.6421 36.724 
-92.9158 31.2164 28.0356 -67.8082 44.4869 41.5657 -72.9894 29.8276 28.9874 
-108.697 10.2643 45.4666 -105.831 46.4832 27.8592 -100.616 28.5725 46.3025 
-64.5745 24.6112 46.3611 -83.431 18.938 42.8673 -88.6862 47.3321 39.0975 
-62.9421 5.95613 53.3827 -61.4091 54.1001 25.2372 -60.5715 14.5152 25.3827 
-80.7626 39.7557 56.0495 -84.9293 3.60002 55.612 -51.5507 1.41504 37.5064 
-29.1782 55.3447 9.9962 -54.0355 35.533 26.1408 -19.8766 13.2314 9.99837 
-25.633 22.8416 26.5661 -41.4225 54.5146 25.7865 -51.917 23.9168 9.99884 
-44.4944 42.4873 10.0002 -23.7844 35.0594 9.99973 -1.81784 7.79346 16.926 
-38.722 10.1018 15.9167 -4.75767 26.3217 9.99701 -8.70343 52.8388 9.99973 
-31.6529 39.8355 35.2235 -5.97391 26.1385 29.9557 -46.4896 21.2232 37.8965 
-9.88038 45.7295 29.0137 -15.1273 36.4289 45.9607 -32.3833 7.08581 36.8707 
-30.4353 23.9894 49.4958 -12.7108 15.6065 45.5634 -48.9202 39.3672 45.95 
-31.1853 42.8943 55.9733 52.3414 2.13817 9.99858 15.1225 15.873 9.99973 
38.3085 41.3639 23.4322 24.1217 25.8637 24.9571 51.3817 34.4011 9.99714 
51.2426 19.8781 23.745 23.8239 44.4622 9.99766 36.4938 21.0461 9.99978 
6.53428 40.1165 19.0622 12.9364 3.7011 29.7922 20.756 44.7515 32.396 
45.9821 6.67823 37.8201 26.7453 10.2675 42.6841 7.99067 18.6306 42.1454 
43.1343 29.8582 39.0602 24.176 29.9106 45.4254 43.859 51.257 39.9006 
4.35751 38.3937 41.9124 50.9065 23.7267 56.4352 27.1385 48.6636 51.7085 
4.68098 54.8694 55.5938 6.27769 3.4727 55.1057 56.4803 0.80183 53.7965 
112.658 39.8371 53.7975 113.684 37.0492 9.9988 57.5603 38.8173 28.4973 
104.686 3.54527 22.9713 93.1931 19.6495 25.888 65.5152 17.1855 9.99869 
109.289 31.203 28.6118 84.5662 11.1015 9.99883 104.031 54.5652 9.99866 
64.1325 53.1036 9.99967 105.311 18.7841 9.99973 93.7146 35.0789 9.99964 
74.0279 25.2312 27.127 63.952 4.6174 26.0906 73.7204 35.5516 9.99915 
89.3217 39.0002 29.1318 77.8903 29.1299 46.3781 104.806 48.5109 37.5714 
62.5037 17.3469 41.4448 73.2998 50.4756 32.535 101.163 23.3641 45.1181 
86.1923 10.4279 42.1991 84.1266 52.6304 9.99819 62.3803 42.7635 47.5018 
101.878 5.47532 54.0325 92.6683 40.4357 53.7074 -60.0422 104.141 9.9988 
-98.3686 99.4707 16.6923 -65.8656 82.7278 9.99826 -70.5926 63.2269 9.99735 
-73.1297 112.368 24.0278 -102.942 81.1888 9.99897 -90.4539 65.5685 9.99761 
-108.486 63.9506 18.4915 -70.537 73.5335 27.1342 -102.348 82.1224 32.2902 
-79.5247 99.6303 9.99773 -88.7151 65.0983 29.9141 -86.2337 84.0637 20.6068 
-106.822 63.6185 38.4176 -107.074 102.808 34.4912 -71.8936 87.542 41.343 
-87.6641 98.005 34.8728 -89.0318 76.7086 46.1953 -74.4568 63.2144 43.8092 
-83.3504 113.113 47.2496 -59.7132 92.5513 26.2944 -104.516 90.8454 50.3125 
-85.2964 94.5485 54.4271 -60.905 101.121 51.083 -55.3366 110.372 34.2485 
-4.55429 88.2076 24.4832 -1.84905 101.731 9.99936 -15.3703 79.6472 9.99973 
-21.5368 105.248 9.99911 -26.0195 90.692 22.9602 -34.1359 73.4521 16.8834 
-50.3473 63.9613 9.99973 -41.286 105.701 16.7585 -4.79965 68.2937 22.65 
-8.36773 111.778 27.3146 -46.4703 87.6074 9.99829 -32.6397 59.7369 45.2915 
-27.7761 108.874 31.1572 -22.6626 61.0776 28.0119 -33.023 77.6471 36.4043 
-50.5867 72.6829 28.2293 -42.0433 95.4557 35.1972 -23.8421 90.4648 48.7046 
-13.1205 76.8795 38.6816 -52.4155 58.751 42.4825 -12.2298 57.8323 44.761 
-53.0436 82.3566 45.5604 -14.982 108.9 46.5289 -35.2875 106.793 50.2232 
-3.93696 92.3819 48.7979 -36.9461 76.0993 55.9542 44.2163 57.2171 9.99883 
55.2984 60.6067 26.2986 25.7837 72.082 9.99831 32.0574 102.091 9.99771 
45.4784 77.5759 9.99973 11.7829 59.1951 16.1549 51.3571 96.8515 9.99916 
15.435 94.5883 18.1995 32.5608 85.5282 23.1602 6.84313 78.5024 9.99598 
44.3913 110.205 23.4874 7.10232 101.661 34.9445 27.3551 103.515 31.5475 
15.3816 76.4857 27.9653 48.7272 92.4425 32.6893 31.2922 60.0528 24.9946 
5.63234 57.3931 35.7768 20.9524 88.4281 43.0088 42.1618 71.0782 37.6522 
55.7285 103.503 47.8097 5.65202 75.0888 45.3805 36.0311 107.03 49.2198 
23.5247 66.3896 43.1867 34.2431 78.9022 54.5237 55.4858 79.227 50.1412 
15.8001 105.866 52.4538 45.9027 62.7344 56.1483 112.314 108.611 51.9914 
62.706 79.1512 27.4044 90.8027 58.8984 27.7758 66.0457 110.758 9.99973 
95.8041 105.731 27.3547 79.1516 94.8542 25.2606 105.806 75.7782 9.99764 
68.7304 86.9468 9.99973 88.7136 86.1593 9.99876 105.734 105.552 9.99723 
77.0135 70.0507 16.7734 85.7392 105.967 9.99712 110.455 90.6766 22.5018 
86.2799 77.7344 32.7447 104.709 93.4062 41.4604 63.0552 105.992 29.3592 
105.342 72.496 29.7195 109.097 75.405 49.1457 86.2204 63.4195 46.7096 
86.7106 101.518 44.66 70.0844 90.6037 42.5702 65.8105 62.4499 46.6943 
90.7871 83.115 51.4714 72.6652 111.572 54.7405 103.171 57.3674 55.4268 
[...]
POINT_DATA 1577
FIELD FieldData 7
id 1 1577 int
96 161 204 266 280 295 360 366 32 
37 43 200 145 9 235 300 371 34 
309 334 193 362 555 587 172 21 3 
130 181 206 217 240 274 305 313 356 
64 124 136 330 346 13 273 184 354 
1243 326 1181 5 51 70 78 84 119 
142 227 262 263 139 125 158 175 283 
365 40 347 246 162 377 103 1530 1076 
1244 41 272 95 97 151 167 250 253 
256 303 333 16 76 169 277 350 109 
120 260 291 322 1305 453 231 118 35 
68 73 106 111 153 205 289 293 320 
338 348 81 112 159 234 302 10 186 
223 290 261 147 11 22 44 65 94 
128 152 155 164 232 288 294 8 93 
100 335 173 91 304 221 247 1436 683 
323 66 357 18 20 24 27 79 80 
117 329 122 47 90 170 265 298 321 
352 59 315 98 75 194 195 1371 229 
299 249 218 56 87 104 121 188 192 
201 284 286 358 113 138 163 254 83 
63 144 244 267 370 1412 528 36 67 
99 108 137 226 233 331 351 312 134 
212 239 281 285 363 2 189 197 241 
279 287 14 215 711 171 19 72 82 
178 230 252 297 310 314 372 31 242 
1 185 208 101 38 116 85 191 359 
332 336 114 127 176 199 269 328 367 
373 42 102 150 196 306 48 238 258 
168 17 209 641 30 143 224 236 49 
140 45 123 149 210 213 219 222 245 
248 255 364 50 60 154 177 308 325 
278 88 110 344 156 7 15 28 57 
129 198 203 216 275 316 327 4 126 
228 270 69 133 141 157 376 131 1271 
1505 165 26 61 132 146 182 183 202 
292 339 341 355 378 23 160 180 243 
259 296 12 55 58 135 220 301 375 
1479 1459 311 174 39 46 62 89 148 
179 282 340 349 25 71 77 92 317 
337 33 86 211 307 264 318 343 369 
410 1542 696 225 166 268 29 53 54 
214 257 271 353 361 374 52 251 319 
324 115 187 237 276 345 74 934 680 
342 1443 411 701 798 1100 1482 1571 889 
1235 1307 1320 1091 539 643 726 1231 1203 
1067 1208 1390 737 1535 541 566 769 828 
1343 1553 509 1166 1551 995 423 710 1554 
1023 383 508 1239 397 1501 1171 735 1028 
417 746 515 707 1417 1152 412 546 973 
1103 1230 401 621 876 989 603 1400 393 
679 1386 960 1007 517 790 1421 628 606 
1281 1176 435 1288 725 682 1204 368 745 
1207 627 740 970 1049 481 1154 1190 1238 
1002 1223 636 1282 1356 1574 1306 386 1502 
1089 610 589 1321 6 916 1098 1205 1477 
644 821 1145 601 384 504 608 536 732 
810 850 691 1013 985 1368 519 1556 875 
482 530 1295 1011 777 105 1012 1532 429 
448 611 624 785 1155 629 1111 1259 1350 
409 1085 488 460 1322 1380 1444 674 1032 
660 767 1025 1512 522 1031 1253 1339 1511 
1003 808 545 793 1358 1391 605 917 1340 
503 1150 553 404 998 908 418 1168 107 
1180 1414 434 442 915 1005 1118 1328 531 
775 1269 507 562 1541 585 1372 1074 1336 
381 449 1529 961 812 706 612 1066 1264 
1285 616 1251 1327 1338 426 607 1133 1470 
602 860 866 895 950 939 1383 1447 1538 
708 1220 794 878 884 948 1009 1222 390 
838 1174 1189 1330 1428 1573 431 395 811 
1192 560 1299 1513 661 668 854 430 671 
1108 190 946 958 1053 559 1058 1157 768 
1063 1153 1504 547 1062 475 604 880 999 
1355 637 1258 748 1186 971 450 1040 457 
405 398 1575 1000 1266 1200 403 474 1156 
1430 1514 897 1046 996 1104 758 979 387 
1276 1043 1008 1114 1345 596 1309 1500 714 
997 677 1387 207 712 1394 413 780 836 
1075 416 1134 1273 1409 852 535 446 1377 
440 1527 1404 752 1468 584 1318 1381 565 
982 935 1047 1165 1233 529 532 689 1035 
1467 394 666 1130 975 1090 1373 1454 498 
987 1015 1315 675 1014 1101 779 890 1021 
1248 1485 543 485 1106 1374 486 1036 439 
1037 762 945 1296 391 1480 1092 1488 1228 
518 1123 1286 871 664 830 1446 1543 952 
638 631 736 757 1478 663 669 734 867 
1518 763 1170 1197 1520 525 665 1010 428 
902 1439 1099 802 1139 493 658 548 1369 
1473 402 1278 1310 649 1162 537 833 926 
716 1127 1362 1389 676 1547 1352 595 865 
1177 1277 1438 1017 623 913 814 981 639 
1549 1054 1218 516 791 807 1084 573 479 
1071 672 1080 1342 1254 885 1060 803 953 
1242 1528 520 888 909 1316 750 1050 630 
634 1016 686 1385 549 1135 1427 462 459 
1562 396 1496 1121 1148 809 978 1333 877 
896 468 1365 651 692 656 764 1044 1142 
1143 1138 1216 437 1457 659 931 1303 1540 
1126 1261 1120 1301 1533 967 776 385 380 
730 1024 433 1202 1357 577 1265 1324 1415 
1495 864 1132 1308 1526 969 1225 1030 1476 
1183 1312 572 813 957 747 874 1199 438 
494 502 1566 1422 943 1169 1237 513 1392 
1397 826 1167 1370 1440 642 408 1039 569 
1088 632 744 1319 1004 955 694 940 1313 
1045 788 1279 1419 1522 420 443 618 1226 
1366 1423 801 755 1052 894 919 427 1006 
1497 1367 1570 540 590 1105 491 815 1424 
893 1462 883 1051 1094 1236 1406 526 731 
844 954 717 1247 1072 719 1093 501 538 
1469 1149 715 781 1344 907 554 455 1095 
521 556 901 389 968 1112 1363 693 1534 
593 579 1402 753 900 1292 1326 461 609 
1249 399 424 1283 1332 1137 699 456 1113 
447 533 824 1274 831 870 1379 990 1448 
818 984 1160 1539 690 495 843 1182 891 
1503 463 1131 795 640 452 1359 796 842 
941 1102 1193 1109 567 1083 937 966 1210 
721 688 1256 1082 832 839 848 704 487 
741 879 1079 1472 1563 622 856 1163 1524 
1115 1187 822 933 1458 534 662 1567 400 
484 1393 1061 1198 477 903 524 1195 1460 
392 552 770 697 723 1097 928 1317 1196 
1275 1449 489 678 976 613 1164 1334 1499 
1260 419 1246 473 751 841 1471 1569 673 
414 1270 906 464 1078 684 782 432 861 
938 1486 506 1019 1565 1214 892 1284 965 
1224 600 1490 787 817 918 1122 1560 1335 
574 1212 1418 772 1250 1521 783 514 564 
834 1413 646 1410 1349 1376 863 930 925 
1323 670 1401 1405 421 576 1188 1361 923 
1206 1398 1525 1353 592 904 470 561 724 
921 1559 1561 1055 1411 786 1287 1116 1209 
1022 729 422 862 1136 1341 1346 1576 705 
1433 625 784 1298 1523 944 597 653 1129 
929 703 805 648 1442 1184 980 727 759 
1509 1048 480 1140 1128 1178 568 718 1407 
1550 756 872 1297 1426 1519 920 1219 1557 
379 792 835 857 695 853 1234 1147 749 
1536 542 466 527 1396 949 1179 932 591 
1348 1027 1211 582 655 1494 774 406 882 
483 1572 1069 914 887 436 1117 425 1020 
1498 647 911 1241 956 492 1158 570 1293 
557 1300 1077 472 1268 1429 575 709 451 
972 1262 1475 490 1034 1304 687 1213 1517 
1029 1435 804 1018 1065 1506 1548 511 1291 
881 1245 496 974 1257 761 571 827 1314 
1481 415 733 816 1552 620 1172 992 1096 
1546 1445 849 558 1280 845 1420 594 458 
959 1489 986 1229 1059 1289 617 588 1151 
868 469 851 619 497 444 512 1119 1227 
578 1001 983 1492 599 1107 1073 654 778 
563 1070 500 1453 1466 583 1491 963 1125 
1455 550 837 1451 1510 829 988 523 742 
1388 700 898 1042 1191 922 1378 1431 635 
720 1141 1441 1463 1465 551 1068 1564 912 
1057 994 645 825 1483 1232 467 1311 615 
722 633 1375 1351 899 1484 685 1215 1452 
1252 993 681 1144 471 1087 1173 1555 478 
977 760 806 1201 1416 698 454 1064 1026 
598 947 1159 1185 1240 964 754 886 1110 
936 586 927 1294 441 1161 657 1434 1487 
1461 1331 962 1493 445 820 581 991 1329 
799 1033 765 1325 1558 766 739 1456 580 
1516 1408 1086 702 823 869 1384 1272 773 
614 1464 1255 1537 626 1395 1263 388 1038 
910 1577 1360 1507 924 650 743 951 1425 
819 797 847 738 1217 1544 1124 1474 1337 
1175 1403 1354 855 652 1382 771 1545 407 
1568 1081 873 858 544 667 1515 499 859 
1056 1290 1531 1364 1267 713 382 1399 1437 
789 800 1432 1221 728 905 1302 510 505 
1347 1450 476 846 840 1146 465 1508 942 
1194 1041 
type 1 1577 int
1 1 1 1 1 1 1 1 1 
1 1 1 1 1 1 1 1 1 
1 1 1 1 1 1 1 1 1 
1 1 1 1 1 1 1 1 1 
1 1 1 1 1 1 1 1 1 
1 1 1 1 1 1 1 1 1 
1 1 1 1 1 1 1 1 1 
1 1 1 1 1 1 1 1 1 
1 1 1 1 1 1 1 1 1 
1 1 1 1 1 1 1 1 1 
1 1 1 1 1 1 1 1 1 
1 1 1 1 1 1 1 1 1 
1 1 1 1 1 1 1 1 1 
1 1 1 1 1 1 1 1 1 
1 1 1 1 1 1 1 1 1 
1 1 1 1 1 1 1 1 1 
1 1 1 1 1 1 1 1 1 
1 1 1 1 1 1 1 1 1 
1 1 1 1 1 1 1 1 1 
1 1 1 1 1 1 1 1 1 
1 1 1 1 1 1 1 1 1 
1 1 1 1 1 1 1 1 1 
1 1 1 1 1 1 1 1 1 
1 1 1 1 1 1 1 1 1 
1 1 1 1 1 1 1 1 1 
1 1 1 1 1 1 1 1 1 
1 1 1 1 1 1 1 1 1 
1 1 1 1 1 1 1 1 1 
1 1 1 1 1 1 1 1 1 
1 1 1 1 1 1 1 1 1 
1 1 1 1 1 1 1 1 1 
1 1 1 1 1 1 1 1 1 
1 1 1 1 1 1 1 1 1 
1 1 1 1 1 1 1 1 1 
1 1 1 1 1 1 1 1 1 
1 1 1 1 1 1 1 1 1 
1 1 1 1 1 1 1 1 1 
1 1 1 1 1 1 1 1 1 
1 1 1 1 1 1 1 1 1 
1 1 1 1 1 1 1 1 1 
1 1 1 1 1 1 1 1 1 
1 1 1 1 1 1 1 1 1 
1 1 1 1 1 1 1 1 1 
1 1 1 1 1 1 1 1 1 
1 1 1 1 1 1 1 1 1 
1 1 1 1 1 1 1 1 1 
1 1 1 1 1 1 1 1 1 
1 1 1 1 1 1 1 1 1 
1 1 1 1 1 1 1 1 1 
1 1 1 1 1 1 1 1 1 
1 1 1 1 1 1 1 1 1 
1 1 1 1 1 1 1 1 1 
1 1 1 1 1 1 1 1 1 
1 1 1 1 1 1 1 1 1 
1 1 1 1 1 1 1 1 1 
1 1 1 1 1 1 1 1 1 
1 1 1 1 1 1 1 1 1 
1 1 1 1 1 1 1 1 1 
1 1 1 1 1 1 1 1 1 
1 1 1 1 1 1 1 1 1 
1 1 1 1 1 1 1 1 1 
1 1 1 1 1 1 1 1 1 
1 1 1 1 1 1 1 1 1 
1 1 1 1 1 1 1 1 1 
1 1 1 1 1 1 1 1 1 
1 1 1 1 1 1 1 1 1 
1 1 1 1 1 1 1 1 1 
1 1 1 1 1 1 1 1 1 
1 1 1 1 1 1 1 1 1 
1 1 1 1 1 1 1 1 1 
1 1 1 1 1 1 1 1 1 
1 1 1 1 1 1 1 1 1 
1 1 1 1 1 1 1 1 1 
1 1 1 1 1 1 1 1 1 
1 1 1 1 1 1 1 1 1 
1 1 1 1 1 1 1 1 1 
1 1 1 1 1 1 1 1 1 
1 1 1 1 1 1 1 1 1 
1 1 1 1 1 1 1 1 1 
1 1 1 1 1 1 1 1 1 
1 1 1 1 1 1 1 1 1 
1 1 1 1 1 1 1 1 1 
1 1 1 1 1 1 1 1 1 
1 1 1 1 1 1 1 1 1 
1 1 1 1 1 1 1 1 1 
1 1 1 1 1 1 1 1 1 
1 1 1 1 1 1 1 1 1 
1 1 1 1 1 1 1 1 1 
1 1 1 1 1 1 1 1 1 
1 1 1 1 1 1 1 1 1 
1 1 1 1 1 1 1 1 1 
1 1 1 1 1 1 1 1 1 
1 1 1 1 1 1 1 1 1 
1 1 1 1 1 1 1 1 1 
1 1 1 1 1 1 1 1 1 
1 1 1 1 1 1 1 1 1 
1 1 1 1 1 1 1 1 1 
1 1 1 1 1 1 1 1 1 
1 1 1 1 1 1 1 1 1 
1 1 1 1 1 1 1 1 1 
1 1 1 1 1 1 1 1 1 
1 1 1 1 1 1 1 1 1 
1 1 1 1 1 1 1 1 1 
1 1 1 1 1 1 1 1 1 
1 1 1 1 1 1 1 1 1 
1 1 1 1 1 1 1 1 1 
1 1 1 1 1 1 1 1 1 
1 1 1 1 1 1 1 1 1 
1 1 1 1 1 1 1 1 1 
1 1 1 1 1 1 1 1 1 
1 1 1 1 1 1 1 1 1 
1 1 1 1 1 1 1 1 1 
1 1 1 1 1 1 1 1 1 
1 1 1 1 1 1 1 1 1 
1 1 1 1 1 1 1 1 1 
1 1 1 1 1 1 1 1 1 
1 1 1 1 1 1 1 1 1 
1 1 1 1 1 1 1 1 1 
1 1 1 1 1 1 1 1 1 
1 1 1 1 1 1 1 1 1 
1 1 1 1 1 1 1 1 1 
1 1 1 1 1 1 1 1 1 
1 1 1 1 1 1 1 1 1 
1 1 1 1 1 1 1 1 1 
1 1 1 1 1 1 1 1 1 
1 1 1 1 1 1 1 1 1 
1 1 1 1 1 1 1 1 1 
1 1 1 1 1 1 1 1 1 
1 1 1 1 1 1 1 1 1 
1 1 1 1 1 1 1 1 1 
1 1 1 1 1 1 1 1 1 
1 1 1 1 1 1 1 1 1 
1 1 1 1 1 1 1 1 1 
1 1 1 1 1 1 1 1 1 
1 1 1 1 1 1 1 1 1 
1 1 1 1 1 1 1 1 1 
1 1 1 1 1 1 1 1 1 
1 1 1 1 1 1 1 1 1 
1 1 1 1 1 1 1 1 1 
1 1 1 1 1 1 1 1 1 
1 1 1 1 1 1 1 1 1 
1 1 1 1 1 1 1 1 1 
1 1 1 1 1 1 1 1 1 
1 1 1 1 1 1 1 1 1 
1 1 1 1 1 1 1 1 1 
1 1 1 1 1 1 1 1 1 
1 1 1 1 1 1 1 1 1 
1 1 1 1 1 1 1 1 1 
1 1 1 1 1 1 1 1 1 
1 1 1 1 1 1 1 1 1 
1 1 1 1 1 1 1 1 1 
1 1 1 1 1 1 1 1 1 
1 1 1 1 1 1 1 1 1 
1 1 1 1 1 1 1 1 1 
1 1 1 1 1 1 1 1 1 
1 1 1 1 1 1 1 1 1 
1 1 1 1 1 1 1 1 1 
1 1 1 1 1 1 1 1 1 
1 1 1 1 1 1 1 1 1 
1 1 1 1 1 1 1 1 1 
1 1 1 1 1 1 1 1 1 
1 1 1 1 1 1 1 1 1 
1 1 1 1 1 1 1 1 1 
1 1 1 1 1 1 1 1 1 
1 1 1 1 1 1 1 1 1 
1 1 1 1 1 1 1 1 1 
1 1 1 1 1 1 1 1 1 
1 1 1 1 1 1 1 1 1 
1 1 1 1 1 1 1 1 1 
1 1 1 1 1 1 1 1 1 
1 1 1 1 1 1 1 1 1 
1 1 1 1 1 1 1 1 1 
1 1 1 1 1 1 1 1 1 
1 1 1 1 1 1 1 1 1 
1 1 1 1 1 1 1 1 1 
1 1 
i 3 1577 int
0 0 0 0 0 0 0 0 0 
0 0 0 0 0 0 0 0 0 
0 0 0 0 0 0 0 0 0 
0 0 0 0 0 0 0 0 0 
0 0 0 0 0 0 0 0 0 
0 0 0 0 0 0 0 1 0 
0 0 0 0 0 0 0 0 0 
0 0 0 0 0 0 0 0 0 
0 0 0 0 0 0 0 0 0 
0 0 0 0 0 0 0 0 0 
0 0 0 0 0 0 0 0 0 
0 0 0 0 0 0 0 0 0 
0 0 0 0 0 0 0 0 0 
0 0 0 0 0 0 0 0 0 
0 0 0 0 0 0 0 0 0 
0 0 0 0 0 0 0 0 0 
0 0 0 0 0 0 0 0 0 
0 0 0 0 0 0 0 0 0 
0 0 0 0 0 0 0 0 0 
0 0 0 0 0 0 0 0 0 
0 0 0 0 0 0 0 0 0 
0 0 0 0 0 0 0 0 0 
0 0 0 0 0 0 0 0 0 
0 0 0 0 0 0 0 0 0 
0 0 0 0 0 0 0 0 0 
0 0 0 0 0 0 0 0 0 
0 0 0 0 0 0 0 0 0 
0 0 0 0 0 0 0 0 0 
0 0 0 0 0 0 0 0 0 
0 0 0 0 0 0 0 0 0 
0 0 0 0 0 0 0 0 0 
0 0 0 0 0 0 0 0 0 
0 0 0 0 0 0 0 0 0 
0 0 0 0 0 0 0 0 0 
0 0 0 0 0 0 0 0 0 
0 0 0 0 0 0 0 0 0 
0 0 0 0 0 0 0 0 0 
0 0 0 0 0 0 0 0 0 
0 0 0 0 0 0 0 0 0 
0 0 0 0 0 0 0 0 0 
0 0 0 0 0 0 0 0 0 
0 0 0 0 0 0 0 0 0 
0 0 0 0 0 0 0 0 0 
0 0 0 0 0 0 0 0 0 
0 0 0 0 0 0 0 0 0 
0 0 0 0 0 0 0 0 0 
0 0 0 0 0 0 0 0 0 
0 0 0 0 0 0 0 0 0 
0 0 0 0 0 0 0 0 0 
0 0 0 0 0 0 0 0 0 
0 0 0 0 0 0 0 0 0 
0 0 0 0 0 0 0 0 0 
0 0 0 0 0 0 0 0 0 
0 0 0 0 0 0 0 0 0 
0 0 0 0 0 0 0 0 0 
0 0 0 0 0 0 0 0 0 
0 0 0 0 0 0 0 0 0 
-1 0 0 0 0 0 0 0 0 
0 0 0 0 0 0 0 0 0 
0 0 0 0 0 0 0 0 0 
0 0 0 0 0 0 0 0 0 
0 0 0 0 0 0 0 0 0 
0 0 0 0 0 0 0 0 0 
0 0 0 0 0 0 0 0 0 
0 0 0 0 0 0 0 0 0 
0 0 0 0 0 0 0 0 0 
0 0 0 0 0 0 0 0 0 
0 0 0 0 0 0 0 0 0 
0 0 0 0 0 0 0 0 0 
0 0 0 0 0 0 0 0 0 
0 0 0 0 0 0 0 0 0 
0 0 0 0 0 0 0 0 0 
0 0 0 0 0 0 0 0 0 
0 0 0 0 0 0 0 0 0 
0 0 0 0 0 0 0 0 0 
0 0 0 0 0 0 0 0 0 
0 0 0 0 0 0 0 0 0 
0 0 0 0 0 0 0 0 0 
0 0 0 0 0 0 0 0 0 
0 0 0 0 0 0 0 0 0 
0 0 0 0 0 0 0 0 0 
0 0 0 0 0 0 0 0 0 
0 0 0 0 0 0 0 0 0 
0 0 0 0 0 0 0 0 0 
0 0 0 0 0 0 0 0 0 
0 0 0 0 0 0 0 0 0 
0 0 0 0 0 0 0 0 0 
0 0 0 0 0 0 0 0 0 
0 0 0 0 0 0 0 0 0 
0 0 0 0 0 0 0 0 0 
0 0 0 0 0 0 0 0 0 
0 0 0 0 0 0 0 0 0 
0 0 0 0 0 0 0 0 0 
0 0 0 0 0 0 0 0 0 
0 0 0 0 0 0 0 0 0 
0 0 0 0 0 0 0 0 0 
0 0 0 0 0 0 0 0 0 
0 0 0 0 0 0 0 0 0 
0 0 0 0 0 0 0 0 0 
0 0 0 0 0 0 0 0 0 
0 0 0 0 0 0 0 0 0 
0 0 0 0 0 0 0 0 0 
0 0 0 0 0 0 0 0 0 
0 0 0 0 0 0 0 0 0 
0 0 0 0 0 0 0 0 0 
0 0 0 0 0 0 0 0 0 
0 0 0 0 0 0 0 0 0 
0 0 0 0 0 0 0 0 0 
0 0 0 0 0 0 0 0 0 
0 0 0 0 0 0 0 0 0 
0 0 0 0 0 0 0 0 0 
0 0 0 0 0 0 0 0 0 
0 0 0 0 0 0 0 0 0 
0 0 0 0 0 0 0 0 0 
0 0 0 0 0 0 0 0 0 
0 0 0 0 0 0 0 0 0 
0 0 0 0 0 0 0 0 0 
0 0 0 0 0 0 0 0 0 
0 0 0 0 0 0 0 0 0 
0 0 0 0 0 0 0 0 0 
0 0 0 0 0 0 0 0 0 
0 0 0 0 0 0 0 0 0 
0 0 0 0 0 0 0 0 0 
0 0 0 0 0 0 -1 0 0 
0 0 0 0 0 0 0 0 0 
0 0 0 0 0 0 0 0 0 
0 0 0 0 0 0 0 0 0 
0 0 0 0 0 0 0 0 0 
0 0 0 0 0 0 0 0 0 
0 0 0 0 0 0 0 0 0 
0 0 0 0 0 0 0 0 0 
0 0 0 0 0 0 0 0 0 
0 0 0 0 0 0 0 0 0 
0 0 0 0 0 0 0 0 0 
0 0 0 0 0 0 0 0 0 
0 0 0 0 0 0 0 0 0 
0 0 0 0 0 0 0 0 0 
0 0 0 0 0 0 0 0 0 
0 0 0 0 0 0 0 0 0 
0 0 0 0 1 0 0 0 0 
0 0 0 0 0 0 0 0 0 
0 0 0 0 0 0 0 0 0 
0 0 0 0 0 0 0 0 0 
0 0 0 0 0 0 0 0 0 
0 0 0 0 0 0 0 0 0 
0 0 0 0 0 0 0 0 0 
0 0 0 0 0 0 0 0 0 
0 0 0 0 0 0 0 0 0 
0 0 0 0 0 0 0 0 0 
0 0 0 0 0 0 0 0 0 
0 0 0 0 0 0 0 0 0 
0 0 0 0 0 0 0 0 0 
0 0 0 0 0 0 0 0 0 
0 0 0 0 0 0 0 0 0 
0 0 0 0 0 0 0 0 0 
0 0 0 0 0 0 0 0 0 
0 0 0 0 0 0 0 0 0 
0 0 0 0 0 0 0 0 0 
0 0 0 0 0 0 0 0 0 
0 0 0 0 0 0 0 0 0 
0 0 0 0 0 0 0 0 0 
0 0 0 0 0 0 0 0 0 
0 0 0 0 0 0 0 0 0 
0 0 0 0 0 0 0 0 0 
0 0 0 0 0 0 0 0 0 
0 0 0 0 0 0 0 1 0 
-1 0 0 0 0 0 0 0 0 
0 0 0 0 0 0 0 0 0 
0 0 0 0 0 0 0 0 0 
0 0 0 0 0 0 0 0 0 
0 0 0 0 0 0 0 0 0 
0 0 0 0 0 0 0 0 0 
0 0 0 0 0 0 0 0 0 
0 0 0 0 0 0 0 0 0 
0 0 0 0 0 0 0 0 0 
0 0 0 0 0 0 0 0 0 
0 0 0 0 0 0 0 0 0 
0 0 0 0 0 0 0 0 0 
0 0 0 0 0 0 0 0 0 
0 0 0 0 0 0 0 0 0 
0 0 0 0 0 0 0 0 0 
0 0 0 0 0 0 0 0 0 
0 0 0 0 0 0 0 0 0 
0 0 0 0 0 0 0 0 0 
0 0 0 0 0 0 0 0 0 
0 0 0 0 0 0 0 0 0 
0 0 0 0 0 0 0 0 0 
0 0 0 0 0 0 0 0 0 
0 0 0 0 0 0 0 0 0 
0 0 0 0 0 0 0 0 0 
0 0 0 0 0 0 0 0 0 
0 0 0 0 0 0 0 0 0 
0 0 0 0 0 0 0 0 0 
0 0 0 0 0 0 0 0 0 
0 0 0 0 0 0 0 0 0 
0 0 0 0 0 0 0 0 0 
0 0 0 0 0 0 0 0 0 
0 0 0 0 0 0 0 0 0 
0 0 0 0 0 0 0 0 0 
0 0 0 0 0 0 0 0 0 
0 0 0 0 0 0 0 0 0 
0 0 0 0 0 0 0 0 0 
0 0 0 0 0 0 0 0 0 
0 0 0 0 0 0 0 0 0 
0 0 0 0 0 0 0 0 0 
0 0 0 0 0 0 0 0 0 
0 0 0 0 0 0 0 0 0 
0 0 0 0 0 0 0 0 0 
0 0 0 0 0 0 0 0 0 
0 0 0 0 0 0 0 0 0 
0 0 0 0 0 0 0 0 0 
0 0 0 0 0 0 0 0 0 
0 0 0 0 0 0 0 0 0 
0 0 0 0 0 0 0 0 0 
0 0 0 0 0 0 0 0 0 
0 0 0 0 0 0 0 0 0 
0 0 0 0 0 0 0 0 0 
0 0 0 0 0 0 0 0 0 
0 0 0 0 0 0 0 0 0 
0 0 0 0 0 0 0 0 0 
0 0 0 0 0 0 0 0 0 
0 0 0 0 0 0 0 0 0 
0 0 0 0 0 0 0 0 0 
0 0 0 0 0 0 0 0 0 
0 0 0 0 0 0 0 0 0 
0 0 0 0 0 0 0 0 0 
0 0 0 -1 0 0 0 0 0 
0 0 0 0 0 0 0 0 0 
0 0 0 0 0 0 0 0 0 
0 0 0 0 0 0 0 0 0 
0 0 0 0 0 0 0 0 0 
0 0 0 0 0 0 0 0 0 
0 0 0 0 0 0 0 0 0 
0 0 0 0 0 0 0 0 0 
0 0 0 0 0 0 0 0 0 
0 0 0 0 0 0 0 0 0 
0 0 0 0 0 0 0 0 0 
0 0 0 0 0 0 0 0 0 
0 0 0 0 0 0 0 0 0 
0 0 0 0 0 0 0 0 0 
0 0 0 0 0 0 0 0 0 
0 0 0 0 0 0 0 0 0 
0 0 0 0 -1 0 0 -1 0 
0 0 0 0 0 0 0 0 0 
0 0 0 0 0 0 0 0 0 
0 0 0 0 0 0 0 0 0 
0 0 0 0 0 0 0 0 0 
0 0 0 0 0 0 0 0 0 
0 0 0 0 0 0 0 0 0 
0 0 0 0 0 0 0 0 0 
0 0 0 0 0 0 0 0 0 
0 0 0 0 0 0 0 0 0 
0 0 0 0 0 0 0 0 0 
0 0 0 0 0 0 0 0 0 
0 0 0 0 0 0 0 0 0 
0 0 0 0 0 0 0 0 0 
0 0 0 0 0 0 0 0 0 
0 0 0 0 0 0 0 0 0 
0 0 0 0 0 0 0 0 0 
0 0 0 0 0 0 0 0 0 
0 0 0 0 0 0 0 -1 0 
0 0 0 0 0 0 0 0 0 
0 0 0 0 0 0 0 0 0 
0 0 0 0 0 0 0 0 0 
0 0 0 0 0 0 0 0 0 
0 0 0 0 0 0 0 0 0 
0 0 0 0 0 0 0 0 0 
0 0 0 0 0 0 0 0 0 
0 0 0 0 0 0 0 0 0 
0 0 0 0 0 0 0 0 0 
0 0 0 0 0 0 0 0 0 
0 0 0 0 0 0 0 0 0 
0 0 0 0 0 0 0 0 0 
0 0 0 0 0 0 0 0 0 
0 0 0 0 0 0 0 0 0 
0 0 0 0 0 0 0 0 0 
0 0 0 0 0 0 0 0 0 
0 0 0 0 0 0 0 0 0 
0 0 0 0 0 0 0 0 0 
0 0 0 0 0 0 0 0 0 
0 0 0 0 0 0 0 0 0 
0 0 0 0 0 0 0 0 0 
0 0 0 0 0 0 0 0 0 
0 0 0 0 0 0 0 0 0 
0 0 0 0 0 0 0 0 0 
0 0 0 0 0 0 0 0 0 
0 0 0 0 0 0 0 0 0 
0 0 0 0 0 0 0 0 0 
0 0 0 0 0 0 0 0 0 
0 0 0 0 0 0 0 0 0 
0 0 0 0 0 0 0 0 0 
0 0 0 0 0 0 0 0 0 
0 0 0 0 0 0 0 0 0 
0 0 0 0 0 0 0 0 0 
0 0 0 0 0 0 0 0 0 
0 0 0 0 0 0 0 0 0 
0 0 0 0 0 0 0 0 0 
0 0 0 0 0 0 0 0 0 
0 0 0 0 0 0 0 0 0 
0 0 0 0 0 0 0 0 0 
0 0 0 0 0 0 0 0 0 
0 0 0 0 0 0 0 0 0 
0 0 0 0 0 0 0 0 0 
0 0 0 0 0 0 0 0 0 
0 0 0 0 0 0 0 0 0 
0 0 0 0 0 0 0 0 0 
0 0 0 0 0 0 0 0 0 
0 0 0 0 0 0 0 0 0 
0 0 0 0 0 0 0 0 0 
0 0 0 0 0 0 0 0 0 
0 0 0 0 0 0 1 0 0 
0 0 0 0 0 0 0 0 0 
0 0 0 0 0 0 0 0 0 
0 0 0 0 0 0 0 0 0 
0 0 0 0 0 0 0 0 0 
0 0 0 0 0 0 0 0 0 
0 0 0 0 0 0 0 0 0 
0 0 0 0 0 0 0 0 0 
0 0 0 0 0 0 0 0 0 
0 0 0 0 0 0 0 0 0 
0 0 0 0 0 0 0 0 0 
0 0 0 0 0 0 0 0 0 
0 0 0 0 0 0 0 0 0 
0 0 0 0 0 0 0 0 0 
0 0 0 0 0 0 0 0 0 
0 0 0 0 0 0 0 0 0 
0 0 0 0 0 0 0 0 0 
0 0 0 0 0 0 0 0 0 
0 0 0 0 0 0 0 0 0 
0 0 0 0 0 0 0 0 0 
0 0 0 0 0 0 0 0 0 
0 0 0 0 0 0 0 0 0 
0 0 0 0 0 0 0 0 0 
0 0 0 0 0 0 0 0 0 
0 0 0 0 0 0 0 0 0 
0 0 0 0 0 0 0 0 0 
0 0 0 0 0 0 0 0 0 
0 0 0 0 0 0 0 0 0 
0 0 0 0 0 0 0 0 0 
0 0 0 0 0 0 0 0 0 
0 0 0 0 0 0 0 0 0 
0 0 0 0 0 0 0 0 0 
0 0 0 0 0 0 0 0 0 
0 0 0 0 0 0 0 0 0 
0 0 0 0 0 0 0 0 0 
0 0 0 0 0 0 0 0 0 
0 0 0 0 0 0 0 0 0 
0 0 0 0 0 0 0 0 0 
0 0 0 0 0 0 0 0 0 
0 0 0 0 0 0 0 0 0 
0 0 0 0 0 0 0 0 0 
0 0 0 0 0 0 0 0 0 
0 0 0 0 0 0 0 0 0 
0 0 0 0 0 0 0 0 0 
0 0 0 0 0 0 0 0 0 
0 0 0 0 0 0 0 0 0 
0 0 0 0 0 0 0 0 0 
0 0 0 0 0 0 0 0 0 
0 0 0 0 0 0 0 0 0 
0 0 0 0 0 0 0 0 0 
0 0 0 0 0 0 0 0 0 
0 0 0 0 0 0 0 0 0 
0 0 0 0 0 0 0 0 0 
0 0 0 0 0 0 0 0 0 
0 0 0 0 0 0 0 0 0 
0 0 0 0 0 0 0 0 0 
0 0 0 0 0 0 0 0 0 
0 0 0 0 0 0 0 0 0 
0 0 0 0 0 0 0 0 0 
0 0 0 0 0 0 0 0 0 
0 0 0 0 0 0 0 0 0 
0 0 0 0 0 0 0 0 0 
0 0 0 0 0 0 0 0 0 
0 0 0 0 0 0 0 0 0 
0 0 0 0 0 0 0 0 0 
0 0 0 0 0 0 0 0 0 
0 0 0 0 0 0 0 0 0 
0 0 0 0 0 0 0 0 0 
0 0 0 0 0 0 0 0 0 
0 0 0 0 0 0 0 0 0 
0 0 0 0 0 0 0 0 0 
0 0 0 0 0 0 0 0 0 
0 0 0 0 0 0 0 0 0 
0 0 0 0 0 0 0 0 0 
0 0 0 0 0 0 0 0 0 
0 0 0 0 0 0 0 0 0 
0 0 0 0 0 0 0 0 0 
0 0 0 0 0 0 0 0 0 
0 0 0 0 0 0 0 0 0 
0 0 0 0 0 0 0 0 0 
0 0 0 0 0 0 0 0 0 
0 0 0 0 0 0 0 0 0 
0 0 0 0 0 0 0 0 0 
0 0 0 0 0 0 0 0 0 
0 0 0 0 0 0 0 0 0 
0 0 0 0 0 0 0 0 0 
0 0 0 0 0 0 0 0 0 
0 0 0 0 0 0 0 0 0 
0 0 0 0 0 0 0 0 0 
0 0 0 0 0 0 0 0 0 
0 -1 0 0 0 0 0 0 0 
0 0 0 0 0 0 0 0 0 
0 0 0 0 0 0 0 0 0 
0 0 0 0 0 0 0 0 0 
0 0 0 0 0 0 0 0 0 
0 0 0 0 0 0 0 0 0 
0 0 0 0 0 0 0 0 0 
0 0 0 0 0 0 0 0 0 
0 0 0 0 0 0 0 0 0 
0 0 0 0 0 0 0 0 0 
0 0 0 0 0 0 0 0 0 
0 0 0 0 0 0 0 0 0 
0 0 0 0 0 0 0 0 0 
0 0 0 0 0 0 0 1 0 
0 0 0 0 0 0 0 0 0 
0 0 0 0 0 0 0 0 0 
0 0 0 0 0 0 0 0 0 
0 0 0 0 0 0 0 0 0 
0 0 0 0 0 0 0 0 0 
0 0 0 0 0 0 0 0 0 
0 0 0 0 0 0 0 0 0 
0 0 0 0 0 0 0 1 0 
0 0 0 0 0 0 0 0 0 
0 0 0 0 0 0 0 0 0 
0 0 0 0 0 0 0 0 0 
0 0 0 0 0 0 0 0 0 
0 0 0 0 0 0 0 0 0 
0 0 0 0 0 0 0 0 0 
0 0 0 0 0 0 0 0 0 
0 0 0 0 0 0 0 0 0 
0 0 0 0 0 0 0 0 0 
0 0 0 0 0 0 0 0 0 
0 0 0 0 0 0 0 0 0 
0 0 0 0 0 0 0 0 0 
0 0 0 0 0 0 0 0 0 
0 0 0 0 0 0 0 0 0 
0 0 0 0 0 0 0 0 0 
0 0 0 0 0 0 0 0 0 
0 0 0 0 0 0 0 0 0 
0 0 0 0 0 0 0 0 0 
0 0 0 0 0 0 0 0 0 
0 0 0 0 0 0 0 0 0 
0 0 0 0 0 0 0 0 0 
0 0 0 0 0 0 0 0 0 
1 0 0 0 0 0 0 0 0 
0 0 0 0 0 0 0 0 0 
0 0 0 0 0 0 0 0 0 
0 0 0 0 0 0 0 0 0 
0 0 0 0 0 0 0 0 0 
0 0 0 0 0 0 0 0 0 
0 0 0 0 0 0 0 0 0 
0 0 0 0 0 0 0 0 0 
0 0 0 0 0 0 0 0 0 
0 0 0 0 0 0 0 0 0 
0 0 0 0 0 0 0 0 0 
0 0 0 0 0 0 0 0 0 
0 0 0 0 0 0 0 0 0 
0 0 0 0 0 0 0 0 0 
0 0 0 0 0 0 0 0 0 
0 0 0 0 0 0 0 0 0 
0 0 0 0 0 0 0 0 0 
0 0 0 0 0 0 0 0 0 
0 0 0 0 0 0 0 0 0 
0 0 0 0 0 0 0 0 0 
0 0 0 0 0 0 0 0 0 
0 0 0 0 0 0 0 0 0 
0 0 0 0 0 0 0 0 0 
0 0 0 0 0 0 0 0 0 
0 0 0 0 0 0 0 0 0 
0 0 0 0 0 0 0 0 0 
0 0 0 0 0 0 0 0 0 
0 0 0 0 0 0 0 0 0 
0 0 0 0 0 0 0 0 0 
0 0 0 0 0 0 0 0 0 
0 0 0 0 0 0 0 0 0 
0 0 0 0 0 0 0 0 0 
0 0 0 0 0 0 0 0 0 
0 0 0 0 0 0 0 0 0 
0 0 0 0 0 0 0 0 0 
0 0 0 0 0 0 0 0 0 
0 0 0 0 0 0 0 0 0 
0 0 0 0 0 0 0 0 0 
0 0 0 0 0 0 0 0 0 
0 0 0 0 0 0 0 0 0 
0 0 0 0 0 0 0 0 0 
0 0 0 0 0 0 0 0 0 
0 0 0 0 0 0 0 0 0 
0 0 0 0 0 0 0 0 0 
0 0 0 0 0 0 0 0 0 
0 0 0 0 0 0 0 0 0 
0 0 0 0 0 0 0 0 0 
0 0 0 0 0 0 0 0 0 
0 0 0 0 0 0 0 0 0 
0 0 0 0 0 0 0 0 0 
0 0 0 0 0 0 0 -1 0 
0 -1 0 0 -1 0 0 0 0 
1 0 0 0 0 0 0 0 0 
0 0 0 0 0 0 0 0 0 
0 0 0 0 0 0 0 0 0 
0 0 0 0 0 0 0 0 0 
0 0 0 0 0 0 0 0 0 
0 0 0 0 0 0 0 0 0 
1 0 0 0 0 0 0 0 0 
0 0 0 0 0 0 0 0 0 
0 0 0 0 0 0 0 0 0 
0 0 0 0 0 0 0 0 0 