# vtk DataFile Version 4.0
Generated by LIGGGHTS
ASCII
DATASET POLYDATA
POINTS 2000 float
-100.2 -85.2093 9.91282 -90.2611 -103.099 9.91645 -108.804 -133.163 9.91891 
-120.799 -117.209 9.91837 -88.9203 -131.453 9.91826 -128.615 -135.57 9.91576 
-128.103 -98.6344 9.91869 -109.313 -101.97 15.761 -115.597 -129.448 28.8972 
-98.1789 -117.679 21.0058 -131.828 -117.844 28.3325 -121.711 -100.91 31.3641 
-96.5322 -135.119 30.5622 -43.5068 -113.616 9.91877 -44.3625 -133.557 9.91874 
-55.1628 -91.2362 9.91877 -61.556 -122.137 9.91959 -70.3319 -104.209 9.91909 
-59.6881 -112.116 27.08 -78.7782 -121.399 23.8592 -57.9162 -135.31 24.4677 
-77.4694 -140.718 28.7005 -70.8031 -139.825 9.91476 -27.5572 -96.0479 9.91838 
8.53827 -102.284 9.91877 -9.96273 -137.021 9.91931 27.7713 -96.9467 9.91927 
-8.15911 -91.3482 9.91889 21.8618 -124.827 9.91896 -26.1635 -125.361 9.91756 
21.856 -103.864 27.6832 2.23294 -121.222 9.91729 19.7832 -123.609 29.7339 
7.46105 -138.212 19.5865 13.8194 -86.5075 21.9813 35.1843 -86.504 25.229 
81.3065 -88.3593 9.91883 38.4888 -113.786 9.91933 49.0924 -93.9759 9.91877 
37.2327 -129.941 21.5751 69.8473 -117.827 24.7942 140.929 -100.241 26.555 
119.188 -123.851 9.91946 136.839 -110.473 9.91692 117.983 -103.93 9.9179 
101.331 -114.929 9.91872 100.917 -133.8 25.3697 121.159 -100.378 29.2981 
100.13 -95.0042 9.91892 136.677 -128.586 18.2926 135.649 -90.5496 9.92011 
122.261 -120.302 29.3198 102.207 -94.1286 29.7502 103.67 -113.828 32.5918 
-95.2042 -30.6063 25.8107 -124.401 -57.2318 9.91893 -93.4745 -56.455 24.1644 
-140.642 -45.632 9.92101 -118.576 -38.1445 9.92183 -106.631 -66.3177 9.91997 
-91.5588 -42.1176 9.91863 -115.031 -49.6639 25.8351 -111.093 -78.3912 25.1786 
-129.911 -63.5063 28.0471 -131.023 -37.7232 25.525 -134.873 -74.2201 9.91502 
-130.317 -83.4347 27.0184 -113.778 -31.1144 33.0979 -81.3647 -64.4505 9.91875 
-38.9181 -79.6382 9.91862 -33.3187 -58.2188 9.91848 -62.5531 -72.6956 9.91882 
-59.9549 -41.1846 24.7929 -48.16 -74.0204 26.693 -26.3564 -40.2864 15.2414 
11.4459 -55.6537 9.91651 -8.3235 -58.4125 9.91924 -4.9136 -38.7469 9.91879 
3.03483 -74.8237 9.91849 26.5816 -77.0218 9.91842 -19.5196 -74.9368 9.91877 
12.7876 -59.436 29.4637 -20.8094 -56.56 25.3817 -5.70947 -44.0616 29.1409 
-26.6139 -40.1804 35.1986 63.2311 -79.8881 9.9193 45.3579 -72.6487 15.0855 
61.1794 -60.0359 9.91752 79.3993 -68.1828 9.91877 31.3093 -57.6299 9.91281 
70.9923 -37.0411 9.9204 46.6721 -53.5321 21.9806 72.392 -51.2346 23.886 
57.7268 -37.1585 24.8362 31.5056 -66.1917 27.9297 86.5497 -49.5472 9.91976 
98.7299 -77.461 19.3362 111.051 -64.8969 9.91871 99.28 -34.1747 9.91857 
130.882 -62.6234 9.91915 116.79 -84.0103 9.91877 118.996 -46.5905 9.91663 
135.143 -52.9821 27.4071 133.176 -76.6023 23.9812 129.514 -30.7585 15.9917 
116.974 -81.5781 34.5169 133.742 -34.6221 35.1068 -134.164 -25.683 9.91817 
-111.165 7.26258 9.92213 -96.2002 -5.94775 9.91945 -123.984 -8.03713 9.9183 
-85.8229 -23.0002 9.91927 -109.221 -18.5747 18.2516 -115.779 -1.90056 27.0451 
-112.887 17.8447 26.7651 -128.036 22.6835 9.91877 -139.108 0.96404 33.1376 
-108.716 27.6919 9.91688 -82.4346 -14.5937 27.7009 -34.2664 -22.7495 9.91922 
-50.2616 4.90615 9.91471 -31.1214 17.0175 9.91755 -31.9046 -2.92849 9.91877 
-78.0648 19.9514 24.7979 -43.4414 15.3011 25.5226 -55.3188 -6.56315 25.4407 
24.356 -26.7958 24.7977 -14.3699 -21.1702 9.91877 -13.6098 7.45536 10.442 
9.28131 5.80348 9.91877 19.0226 7.22171 30.7483 29.1944 4.44781 9.9189 
55.8513 -24.0342 9.9184 38.415 10.8203 33.815 78.7816 24.0838 23.8819 
47.2257 -4.10898 9.9185 45.6212 15.7858 9.91877 64.7715 21.4113 9.91894 
82.0958 10.2244 9.91307 52.9506 23.6796 29.1581 83.7252 -21.6683 9.91918 
140.762 -17.8592 26.8604 101.438 -12.4644 9.91985 140.003 0.562438 9.91898 
124.784 -12.3504 9.91687 113.159 -21.7954 23.1105 112.978 16.974 24.7938 
-93.0522 66.3588 9.91953 -115.164 46.5783 9.91739 -95.2049 46.5169 9.91866 
-136.881 77.4791 9.91748 -135.127 57.5949 9.91752 -126.476 38.4476 24.2111 
-86.826 81.7394 21.0118 -85.0592 53.8478 29.5928 -140.407 38.3467 9.91874 
-107.759 35.3224 34.9374 -45.4318 30.9349 9.91877 -30.2137 75.5968 24.7949 
-60.1061 65.2929 9.92005 -59.2393 45.3512 9.91878 -30.3261 43.9803 9.91872 
-76.9426 54.5727 9.91877 -65.035 73.9759 27.2052 -61.2538 50.2716 29.1566 
-70.0022 82.6264 9.91839 18.692 75.7342 9.91464 0.408211 67.7335 9.9182 
0.297762 36.1176 24.794 16.5035 66.9368 27.6867 30.7966 53.0899 26.2288 
31.4314 41.6093 9.91722 50.325 35.1833 9.91877 68.7795 42.7778 9.91877 
71.4424 62.557 9.91609 34.7438 63.8747 9.91422 67.3198 39.2385 29.9739 
47.729 42.9385 29.1121 52.9791 54.9682 9.91877 69.9302 58.8382 32.6663 
33.3603 30.1226 34.3825 84.4138 51.9701 20.7706 87.4102 68.4148 31.6771 
87.3524 35.4827 9.91691 128.781 66.0183 9.91877 90.7961 67.4511 9.91671 
109.538 74.3193 9.91873 103.546 47.152 9.91916 123.503 46.7787 9.91642 
104.147 59.2979 25.7471 132.586 50.3514 27.3261 119.081 72.4435 27.3481 
135.771 83.3873 27.101 -90.5765 97.9024 9.91874 -115.102 117.854 24.7962 
-139.134 97.3106 9.91877 -84.8271 126.965 9.91875 -38.0092 119.421 9.91791 
-54.3127 130.933 9.91828 -32.621 110.392 26.8804 -41.552 135.265 24.6404 
-66.886 108.316 33.3972 -28.1619 136.782 9.91842 20.6429 132.331 9.92073 
-1.95205 89.7752 9.91999 0.304012 127.863 9.91809 -6.68129 109.166 9.91878 
23.0287 95.211 9.91921 9.693 96.3843 24.7246 13.0029 112.466 9.91762 
-15.9931 123.3 20.496 -2.63682 111.39 29.3371 12.4387 124.078 26.1384 
25.2308 108.481 27.9841 26.9898 139.348 34.6297 -4.27524 130.463 34.9796 
48.7295 140.643 9.9188 67.0335 132.684 9.91871 32.9625 112.518 9.91778 
51.2876 120.426 9.91668 36.862 128.672 20.9673 54.0158 88.9312 24.7948 
70.4697 119.755 24.7338 56.386 132.505 30.8428 83.695 121.702 9.91738 
88.3178 84.6686 19.6966 90.6823 140.396 9.91807 85.3593 101.814 9.91851 
125.895 85.7595 9.91864 101.75 113.205 9.91863 130.261 136.477 9.91699 
110.637 140.116 9.92003 103.418 93.3166 9.92313 135.295 117.166 9.91679 
99.7475 128.379 23.3682 118.44 123.084 18.815 119.76 104.704 11.1616 
133.641 131.216 28.871 114.883 134.157 35.0326 -90.745 -118.25 39.5202 
-131.57 -134.089 39.9265 -120.412 -118.243 44.6982 -104.735 -130.13 48.0565 
-122.017 -133.52 57.4424 -129.633 -116.96 65.5647 -133.966 -137.39 73.6275 
-95.8822 -87.0703 82.4744 -138.719 -107.529 80.6239 -92.596 -130.707 63.8859 
-45.8396 -123.814 35.4327 -44.9923 -91.5958 35.606 -84.5436 -113.46 57.8767 
-82.2414 -134.639 47.0996 -44.4785 -117.146 54.1936 -34.6019 -100.884 65.4389 
-67.3268 -129.339 59.2528 -70.9614 -118.963 42.06 -50.4794 -96.5671 54.1411 
-84.3534 -97.7211 70.1496 -64.989 -109.527 58.6006 -42.7558 -136.666 50.3905 
-63.5322 -140.248 42.9757 -54.1661 -120.442 71.331 -76.3311 -114.165 78.1124 
-61.0835 -101.401 76.406 -61.1868 -139.995 74.9722 -42.1248 -136.326 70.3361 
-38.9954 -88.5363 83.484 -79.7603 -133.809 78.8486 -30.3539 -120.225 67.9521 
-43.2609 -108.006 82.4959 -79.2826 -85.2821 37.8943 -32.3789 -131.764 87.1433 
-13.889 -110.09 38.847 19.9784 -113.295 46.8211 8.51245 -136.895 39.4761 
10.3581 -127.518 56.9937 10.527 -108.762 63.8095 -8.20377 -139.143 57.4042 
-3.80995 -87.0383 63.0921 14.9718 -94.3728 50.7191 3.33567 -134.528 74.3077 
-16.588 -135.376 75.1199 14.012 -90.6011 71.3305 24.7497 -125.479 70.6707 
30.452 -107.978 62.9559 33.0224 -96.3786 42.4379 36.7119 -114.704 35.436 
44.7406 -136.031 40.8922 58.5981 -132.018 54.6761 40.2828 -124.276 56.397 
64.7685 -120.021 69.3647 48.1024 -107.083 49.9451 47.9277 -99.2499 68.2997 
71.453 -105.415 57.5181 43.2742 -117.491 74.9292 30.8998 -88.1228 60.9961 
71.1248 -138.927 68.6034 31.4367 -96.3716 79.1645 53.2407 -134.719 76.3965 
73.0641 -128.41 85.4585 31.0798 -140.631 82.0142 81.4777 -126.951 56.4524 
140.727 -110.865 50.5393 140.328 -130.173 56.6884 87.7435 -98.8462 48.0399 
92.2043 -137.639 42.9186 129.709 -135.056 40.5109 101.636 -112.496 52.4012 
121.07 -113.093 47.8928 110.547 -129.801 42.3854 129.308 -94.9534 46.6915 
100.736 -131.043 59.7213 109.422 -94.568 48.3552 120.613 -129.248 59.6042 
98.4818 -97.5224 65.2141 114.476 -109.273 67.338 110.645 -128.543 76.8721 
91.7923 -115.847 69.4371 116.126 -89.575 70.0977 133.121 -124.138 74.2961 
131.95 -91.1739 82.1529 104.215 -111.196 84.3488 124.12 -110.276 85.489 
-123.313 -82.8693 61.2437 -124.229 -52.0676 43.3846 -99.561 -44.7841 39.1682 
-106.537 -63.4142 37.5547 -130.981 -33.3554 45.0076 -101.576 -56.1357 55.4626 
-134.265 -41.7895 62.8004 -92.2596 -68.4136 68.1442 -86.6676 -49.2631 79.8645 
-136.515 -54.9733 77.6144 -105.667 -55.3398 79.0674 -134.265 -34.3005 81.3062 
-93.2505 -68.0999 88.0764 -31.8314 -67.1381 56.8082 -83.3975 -52.1682 48.2551 
-65.5117 -58.0358 54.8896 -38.9225 -33.3285 51.5717 -60.7747 -83.5542 67.4774 
-55.3741 -41.4532 59.4283 -67.1701 -44.9858 80.14 -75.1021 -40.7118 62.333 
-40.6741 -37.0253 72.1725 -53.1393 -74.4574 83.5119 -67.0961 -63.9339 73.8856 
-50.1505 -54.7283 83.8494 -77.7149 -80.4222 77.5624 -2.68596 -69.0417 37.6289 
22.1749 -80.0019 38.8992 16.3707 -56.4967 64.0938 -10.7417 -40.3787 49.0603 
-22.9423 -34.0223 63.5216 -4.3761 -28.747 68.6149 69.2086 -41.2031 40.843 
59.7088 -74.2656 46.9018 75.32 -46.8103 61.849 44.4703 -42.8578 48.4294 
59.7916 -34.7706 58.3444 65.808 -61.9401 79.028 41.7034 -76.9823 76.7238 
76.3231 -45.4539 83.0643 50.1047 -51.8631 71.9371 41.901 -33.2951 69.6442 
62.3466 -32.1458 77.965 102.973 -50.1826 40.757 93.1833 -80.7701 54.5221 
137.344 -50.2006 47.0498 132.674 -69.0506 42.448 94.2814 -46.4438 74.3976 
119.204 -78.1256 54.046 85.2164 -63.0251 67.9732 124.027 -73.2429 78.4198 
128.087 -47.5381 64.9068 100.234 -77.8449 72.9636 93.2204 -64.6421 86.1868 
-98.4602 -6.10185 36.0311 -104.911 10.4879 45.0592 -125.066 -15.504 38.3188 
-104.989 -22.9759 65.9234 -124.779 8.62963 44.7201 -103.068 11.8903 64.8819 
-122.909 13.7995 63.9052 -93.3676 26.5913 55.5007 -114.891 7.01186 80.8767 
-95.7313 4.265 85.7483 -122.937 25.177 84.3114 -86.6533 4.7159 55.0527 
-128.771 -6.54871 85.5506 -84.6654 16.9793 70.6784 -138.214 14.8616 76.6658 
[...]
POINT_DATA 2000
FIELD FieldData 7
id 1 2000 int
41 77 196 230 301 308 411 107 205 
282 106 55 343 53 85 259 296 439 
275 328 424 223 311 157 185 265 297 
299 410 440 49 172 336 218 351 95 
300 376 408 437 22 380 59 139 141 
164 29 30 201 379 252 335 47 283 
36 142 215 338 414 456 171 32 161 
261 453 395 381 80 246 112 143 231 
10 211 243 115 208 212 232 365 48 
167 45 281 422 397 113 174 222 318 
108 354 285 317 149 200 434 117 135 
262 286 314 334 274 213 86 183 114 
239 342 346 413 66 147 238 99 412 
320 443 225 50 69 345 20 46 220 
11 37 358 390 416 122 359 123 256 
264 347 430 54 204 197 298 97 178 
271 404 15 84 199 362 400 458 234 
184 378 266 450 187 8 279 321 399 
250 384 387 224 195 240 12 186 133 
111 131 132 389 419 229 369 375 72 
315 449 233 253 34 102 154 221 330 
173 352 58 329 138 6 444 179 168 
455 295 385 27 88 62 169 302 339 
341 79 83 426 294 433 127 128 78 
33 110 227 396 421 18 251 242 429 
366 344 160 96 209 288 367 370 452 
116 198 284 247 447 438 442 166 401 
448 1283 852 1551 856 1025 371 273 361 
304 71 82 119 130 350 319 383 409 
292 1007 1248 1875 1713 1903 903 1746 290 
1938 9 1533 2 241 355 156 64 76 
210 293 1584 1870 1852 1011 418 39 216 
263 269 144 165 382 42 74 332 364 
1712 1941 1809 1945 949 323 244 1861 137 
38 51 125 394 445 81 155 249 272 
436 1279 1425 1934 701 720 1921 1306 1709 
5 245 276 425 331 388 307 553 1536 
1779 655 1754 1406 23 65 163 415 191 
236 1673 1716 1727 1791 662 643 911 417 
75 28 226 353 1158 392 14 44 306 
118 89 327 931 1602 120 1654 25 180 
313 398 189 188 1315 1641 1867 1919 1953 
255 309 405 26 278 129 322 303 761 
764 1565 43 739 1505 1015 152 57 151 
162 68 158 214 257 175 176 368 427 
864 1210 874 1539 793 1282 1363 121 4 
217 357 94 190 202 349 402 1858 571 
591 746 603 268 219 7 100 333 104 
457 70 454 63 1386 1764 1001 752 153 
623 432 582 386 291 277 326 19 441 
1404 839 3 254 228 393 145 177 377 
140 1045 1599 1674 1396 1956 420 1457 1 
270 109 170 91 312 93 909 1030 1693 
451 260 61 373 67 267 60 87 316 
372 1650 467 280 73 789 235 374 16 
103 194 148 310 356 1079 1951 1403 1414 
661 206 1123 337 35 258 24 159 182 
435 340 1427 1973 1111 1817 105 126 360 
403 237 287 363 92 348 406 1682 1395 
1514 1766 609 1190 181 324 391 21 407 
40 428 56 98 1805 1891 1086 1281 1359 
207 289 446 90 101 192 13 124 1589 
1866 1397 923 1449 1740 193 146 423 136 
305 52 150 431 1081 1881 1995 771 817 
1498 1833 1849 203 1703 1364 325 17 31 
134 248 1616 967 1139 1444 741 1604 1758 
481 1067 1691 1541 954 1291 784 1104 519 
1769 814 1017 1725 1130 1194 485 1379 600 
1021 1175 542 1172 1999 669 1169 1329 907 
1980 948 965 1257 1600 1895 1070 521 1835 
952 470 1335 1261 1645 951 1618 1155 1662 
1851 554 1447 1684 549 1632 1049 1267 1590 
1960 1127 1988 463 1188 838 1050 1471 1839 
1994 563 1890 775 1561 914 866 1146 1148 
1219 1456 1647 1177 753 1826 480 757 946 
974 487 1524 574 1424 1842 1837 1538 462 
1340 1251 541 1205 1680 1485 1542 718 1116 
887 1824 1273 490 997 652 878 995 1044 
1170 1675 1578 622 1076 1154 1816 1863 1142 
833 889 627 1586 875 906 1129 1212 1517 
1036 1892 1418 534 1722 985 1566 641 969 
1811 1362 779 653 645 1224 1233 1370 1871 
862 1582 667 1388 845 1041 938 476 723 
1412 1670 806 1101 1166 496 522 1477 1915 
1733 1797 854 1601 1439 1907 842 861 1013 
1416 1033 1098 1176 1626 1735 1128 1462 1322 
659 533 754 1062 1189 1879 1947 1493 629 
531 1847 722 1162 1401 1023 1065 712 1715 
1554 1563 699 799 1143 584 709 1338 1828 
1742 1572 472 1937 1441 1726 970 595 960 
1398 1911 1579 888 1118 1672 1366 465 1092 
1382 581 475 1465 1496 1339 1269 1035 1723 
1888 507 1532 1959 644 1193 1594 961 1928 
1831 901 1409 745 494 1411 1199 1570 1527 
471 598 1676 1882 1073 919 1171 892 798 
1651 1039 853 675 702 1717 975 1528 1801 
841 657 1413 1478 468 1107 1789 953 565 
1982 567 1487 493 1260 1679 837 934 1051 
1455 1577 1056 1302 1771 1467 1332 1472 1421 
674 625 1929 1240 1450 1606 1862 729 962 
968 1324 1902 966 1636 1855 1438 1474 1634 
1183 1254 474 749 1782 1301 797 514 1822 
1353 803 893 1435 805 1860 1819 1334 1887 
936 1430 848 1931 1889 536 1266 532 810 
1218 1944 1552 538 1200 1977 1910 1152 1522 
1877 1624 589 1054 1681 1918 991 489 1215 
981 1500 605 1225 710 1417 1627 672 631 
728 1289 1963 876 1222 1230 1548 1502 1124 
964 1097 832 1827 1544 1841 509 1103 1608 
1053 1699 1986 1834 1164 2000 1731 523 1262 
990 1384 697 1905 1802 552 1936 1419 460 
566 915 688 1058 1168 1660 944 984 1631 
801 1480 1055 820 1376 1732 676 1117 1208 
1962 1612 1088 1749 835 671 1459 1576 1978 
1100 647 1812 1721 1060 1778 1458 1202 1119 
1228 1358 1976 1484 1093 987 1059 1120 751 
1204 1470 596 668 1648 769 1820 912 850 
1326 972 1659 1350 1972 497 736 1788 686 
1664 540 1932 1253 1186 1767 1221 687 1857 
781 807 1753 886 1083 1443 1930 1099 619 
730 1165 1669 1026 1597 1066 1245 1029 1134 
1018 1330 1770 758 1004 1832 527 1614 1671 
602 1794 693 1466 755 1207 488 1341 1564 
1285 1964 516 1550 1365 590 1492 865 1307 
896 1531 740 477 1298 617 871 788 575 
499 809 894 935 916 1786 1630 986 1803 
725 1504 1034 1573 1874 770 1488 1464 1558 
1935 529 1075 633 1394 1704 1708 1442 1308 
1568 918 830 759 1620 1331 1569 1280 1491 
1061 576 1063 1268 1501 1843 994 1069 689 
1149 608 999 615 1196 922 1125 1316 570 
683 1048 1521 1768 646 1091 1698 1422 924 
777 1490 1150 1854 925 1916 539 1113 895 
1310 1948 732 1856 1575 614 1925 1922 1559 
1368 1213 1765 1737 512 904 1611 1773 624 
1263 1463 1781 1893 1556 1105 1885 1047 524 
713 504 665 1909 1917 601 1072 1137 1617 
885 1739 929 1846 733 1108 1787 1133 802 
1274 1191 1227 1806 535 738 1864 795 765 
1957 1970 1426 526 558 628 642 1701 573 
1135 1249 550 473 1203 1357 1729 656 1024 
1145 1638 1853 1705 560 1040 1807 790 1796 
1761 562 1077 1965 503 700 1304 1639 1952 
1195 1549 1042 492 1613 1415 942 1311 1738 
1497 1356 464 1898 1489 1238 1246 825 800 
1452 1896 568 1259 1354 1288 1367 649 1808 
1090 1904 1174 847 1635 950 479 1352 648 
1429 1942 1372 1734 1868 1009 698 1052 1757 
548 1373 831 593 520 1993 1405 1342 992 
1595 1981 1437 1068 1961 998 679 715 1939 
1815 1667 1380 1511 546 920 988 1046 1949 
1486 1161 1022 708 818 959 1244 1661 794 
1663 1293 1287 1241 1557 1571 500 1159 1121 
815 635 1991 1180 1751 1605 1236 530 787 
1319 1836 597 1800 1355 592 1087 1585 1250 
1348 1431 1234 1547 1825 1850 719 811 1658 
747 1300 1844 1005 484 1089 822 604 1138 
510 763 1374 1692 690 1971 1479 1436 517 
1006 1509 1526 1546 1876 680 650 694 1106 
1112 1473 1665 682 1619 1433 742 868 796 
867 1209 869 1325 486 1760 908 1829 1084 
612 774 917 1545 1295 1621 1830 621 572 
651 1451 1900 1790 1741 1537 501 1160 902 
1696 511 1454 1702 1736 1391 1314 681 1420 
717 1343 1151 780 870 1115 1178 1510 469 
704 1428 955 1389 1914 900 1924 483 1776 
1615 945 971 1231 1873 1132 1513 1271 1966 
910 1519 1640 1512 829 982 1580 1383 1275 
547 1360 1958 1064 1423 993 1719 1508 696 
1173 1346 750 819 1838 1303 559 1743 1223 
1393 1975 748 836 1940 760 1141 632 1593 
1974 1499 1529 1581 1592 1752 1880 1010 791 
939 1037 678 1992 743 1038 881 1967 1445 
613 744 1000 827 1555 1082 1755 1926 776 
1886 978 658 1351 1810 1818 580 1197 1920 
1644 1823 695 1122 824 1475 1507 1284 731 
943 618 1745 1453 851 1540 564 579 762 
1239 1845 1984 459 1095 785 1697 1574 1336 
863 1799 691 767 1184 1883 1147 1759 956 
1387 1997 1678 1943 783 684 518 1028 973 
1136 1865 1461 1181 1913 1078 711 1229 1375 
1625 1278 594 1710 1859 1756 1516 599 1256 
858 737 941 1780 1131 927 977 1286 616 
1320 921 1016 556 1666 1908 813 1714 1637 
1074 1309 482 958 1689 1785 626 724 1328 
1192 873 1518 1264 1378 1071 928 1094 1609 
899 1272 1872 1996 578 1012 506 1371 1884 
1237 989 1469 1167 1506 525 1596 1683 1718 
1235 1008 1014 1390 1950 1057 897 1270 654 
1649 1955 1720 638 812 1543 1694 544 610 
1946 555 705 976 561 857 1276 1793 1798 
1588 926 1327 1226 1333 1211 840 1114 1784 
1656 1848 577 1643 1220 1591 543 1140 846 
1583 502 1344 1652 1408 585 663 1214 1688 
804 1157 1668 707 1255 1185 1232 1043 1377 
884 1897 1821 1553 664 849 515 1323 1587 
843 1163 498 1530 1628 933 1792 1265 940 
772 587 1031 1677 1775 890 773 1633 703 
1297 1503 877 778 1968 844 1998 1687 963 
1277 569 1369 1814 537 1494 1361 1109 1525 
606 1345 1448 1299 905 1927 880 1560 1317 
1695 937 1878 508 1483 1258 466 1381 1744 
766 816 1110 879 557 716 898 721 495 
913 792 1724 855 826 1385 505 1446 947 
756 1923 1748 1292 735 1432 1182 1906 1795 
673 1126 1700 588 980 1206 1085 666 1296 
1933 1686 634 1252 1153 883 823 1657 872 
891 1774 1990 834 513 1402 1690 1392 1027 
1096 1318 1243 782 1901 630 1305 1535 640 
478 734 1750 1187 545 1198 551 821 670 
1482 1987 639 768 1019 1217 1763 1985 1349 
677 1899 1772 860 1598 1312 1989 1410 620 
611 1520 1032 1468 726 828 1685 1777 607 
996 1337 491 1607 957 1460 1400 1567 1653 
1622 636 1290 1730 706 1407 1156 1840 528 
1711 1969 1495 1813 1954 1399 1313 637 1080 
660 1294 714 1562 1983 1440 1481 1646 1347 
859 586 1706 1523 1102 882 583 1603 1144 
808 1728 1179 1003 1979 786 983 1020 1321 
1242 1655 1642 1002 1434 1201 930 932 1783 
1247 1629 1515 1894 1476 1610 1869 1912 1623 
1216 1762 1534 1804 727 1747 685 461 979 
692 1707 
type 1 2000 int
1 1 1 1 1 1 1 1 1 
1 1 1 1 1 1 1 1 1 
1 1 1 1 1 1 1 1 1 
1 1 1 1 1 1 1 1 1 
1 1 1 1 1 1 1 1 1 
1 1 1 1 1 1 1 1 1 
1 1 1 1 1 1 1 1 1 
1 1 1 1 1 1 1 1 1 
1 1 1 1 1 1 1 1 1 
1 1 1 1 1 1 1 1 1 
1 1 1 1 1 1 1 1 1 
1 1 1 1 1 1 1 1 1 
1 1 1 1 1 1 1 1 1 
1 1 1 1 1 1 1 1 1 
1 1 1 1 1 1 1 1 1 
1 1 1 1 1 1 1 1 1 
1 1 1 1 1 1 1 1 1 
1 1 1 1 1 1 1 1 1 
1 1 1 1 1 1 1 1 1 
1 1 1 1 1 1 1 1 1 
1 1 1 1 1 1 1 1 1 
1 1 1 1 1 1 1 1 1 
1 1 1 1 1 1 1 1 1 
1 1 1 1 1 1 1 1 1 
1 1 1 1 1 1 1 1 1 
1 1 1 1 1 1 1 1 1 
1 1 1 1 1 1 1 1 1 
1 1 1 1 1 1 1 1 1 
1 1 1 1 1 1 1 1 1 
1 1 1 1 1 1 1 1 1 
1 1 1 1 1 1 1 1 1 
1 1 1 1 1 1 1 1 1 
1 1 1 1 1 1 1 1 1 
1 1 1 1 1 1 1 1 1 
1 1 1 1 1 1 1 1 1 
1 1 1 1 1 1 1 1 1 
1 1 1 1 1 1 1 1 1 
1 1 1 1 1 1 1 1 1 
1 1 1 1 1 1 1 1 1 
1 1 1 1 1 1 1 1 1 
1 1 1 1 1 1 1 1 1 
1 1 1 1 1 1 1 1 1 
1 1 1 1 1 1 1 1 1 
1 1 1 1 1 1 1 1 1 
1 1 1 1 1 1 1 1 1 
1 1 1 1 1 1 1 1 1 
1 1 1 1 1 1 1 1 1 
1 1 1 1 1 1 1 1 1 
1 1 1 1 1 1 1 1 1 
1 1 1 1 1 1 1 1 1 
1 1 1 1 1 1 1 1 1 
1 1 1 1 1 1 1 1 1 
1 1 1 1 1 1 1 1 1 
1 1 1 1 1 1 1 1 1 
1 1 1 1 1 1 1 1 1 
1 1 1 1 1 1 1 1 1 
1 1 1 1 1 1 1 1 1 
1 1 1 1 1 1 1 1 1 
1 1 1 1 1 1 1 1 1 
1 1 1 1 1 1 1 1 1 
1 1 1 1 1 1 1 1 1 
1 1 1 1 1 1 1 1 1 
1 1 1 1 1 1 1 1 1 
1 1 1 1 1 1 1 1 1 
1 1 1 1 1 1 1 1 1 
1 1 1 1 1 1 1 1 1 
1 1 1 1 1 1 1 1 1 
1 1 1 1 1 1 1 1 1 
1 1 1 1 1 1 1 1 1 
1 1 1 1 1 1 1 1 1 
1 1 1 1 1 1 1 1 1 
1 1 1 1 1 1 1 1 1 
1 1 1 1 1 1 1 1 1 
1 1 1 1 1 1 1 1 1 
1 1 1 1 1 1 1 1 1 
1 1 1 1 1 1 1 1 1 
1 1 1 1 1 1 1 1 1 
1 1 1 1 1 1 1 1 1 
1 1 1 1 1 1 1 1 1 
1 1 1 1 1 1 1 1 1 
1 1 1 1 1 1 1 1 1 
1 1 1 1 1 1 1 1 1 
1 1 1 1 1 1 1 1 1 
1 1 1 1 1 1 1 1 1 
1 1 1 1 1 1 1 1 1 
1 1 1 1 1 1 1 1 1 
1 1 1 1 1 1 1 1 1 
1 1 1 1 1 1 1 1 1 
1 1 1 1 1 1 1 1 1 
1 1 1 1 1 1 1 1 1 
1 1 1 1 1 1 1 1 1 
1 1 1 1 1 1 1 1 1 
1 1 1 1 1 1 1 1 1 
1 1 1 1 1 1 1 1 1 
1 1 1 1 1 1 1 1 1 
1 1 1 1 1 1 1 1 1 
1 1 1 1 1 1 1 1 1 
1 1 1 1 1 1 1 1 1 
1 1 1 1 1 1 1 1 1 
1 1 1 1 1 1 1 1 1 
1 1 1 1 1 1 1 1 1 
1 1 1 1 1 1 1 1 1 
1 1 1 1 1 1 1 1 1 
1 1 1 1 1 1 1 1 1 
1 1 1 1 1 1 1 1 1 
1 1 1 1 1 1 1 1 1 
1 1 1 1 1 1 1 1 1 
1 1 1 1 1 1 1 1 1 
1 1 1 1 1 1 1 1 1 
1 1 1 1 1 1 1 1 1 
1 1 1 1 1 1 1 1 1 
1 1 1 1 1 1 1 1 1 
1 1 1 1 1 1 1 1 1 
1 1 1 1 1 1 1 1 1 
1 1 1 1 1 1 1 1 1 
1 1 1 1 1 1 1 1 1 
1 1 1 1 1 1 1 1 1 
1 1 1 1 1 1 1 1 1 
1 1 1 1 1 1 1 1 1 
1 1 1 1 1 1 1 1 1 
1 1 1 1 1 1 1 1 1 
1 1 1 1 1 1 1 1 1 
1 1 1 1 1 1 1 1 1 
1 1 1 1 1 1 1 1 1 
1 1 1 1 1 1 1 1 1 
1 1 1 1 1 1 1 1 1 
1 1 1 1 1 1 1 1 1 
1 1 1 1 1 1 1 1 1 
1 1 1 1 1 1 1 1 1 
1 1 1 1 1 1 1 1 1 
1 1 1 1 1 1 1 1 1 
1 1 1 1 1 1 1 1 1 
1 1 1 1 1 1 1 1 1 
1 1 1 1 1 1 1 1 1 
1 1 1 1 1 1 1 1 1 
1 1 1 1 1 1 1 1 1 
1 1 1 1 1 1 1 1 1 
1 1 1 1 1 1 1 1 1 
1 1 1 1 1 1 1 1 1 
1 1 1 1 1 1 1 1 1 
1 1 1 1 1 1 1 1 1 
1 1 1 1 1 1 1 1 1 
1 1 1 1 1 1 1 1 1 
1 1 1 1 1 1 1 1 1 
1 1 1 1 1 1 1 1 1 
1 1 1 1 1 1 1 1 1 
1 1 1 1 1 1 1 1 1 
1 1 1 1 1 1 1 1 1 
1 1 1 1 1 1 1 1 1 
1 1 1 1 1 1 1 1 1 
1 1 1 1 1 1 1 1 1 
1 1 1 1 1 1 1 1 1 
1 1 1 1 1 1 1 1 1 
1 1 1 1 1 1 1 1 1 
1 1 1 1 1 1 1 1 1 
1 1 1 1 1 1 1 1 1 
1 1 1 1 1 1 1 1 1 
1 1 1 1 1 1 1 1 1 
1 1 1 1 1 1 1 1 1 
1 1 1 1 1 1 1 1 1 
1 1 1 1 1 1 1 1 1 
1 1 1 1 1 1 1 1 1 
1 1 1 1 1 1 1 1 1 
1 1 1 1 1 1 1 1 1 
1 1 1 1 1 1 1 1 1 
1 1 1 1 1 1 1 1 1 
1 1 1 1 1 1 1 1 1 
1 1 1 1 1 1 1 1 1 
1 1 1 1 1 1 1 1 1 
1 1 1 1 1 1 1 1 1 
1 1 1 1 1 1 1 1 1 
1 1 1 1 1 1 1 1 1 
1 1 1 1 1 1 1 1 1 
1 1 1 1 1 1 1 1 1 
1 1 1 1 1 1 1 1 1 
1 1 1 1 1 1 1 1 1 
1 1 1 1 1 1 1 1 1 
1 1 1 1 1 1 1 1 1 
1 1 1 1 1 1 1 1 1 
1 1 1 1 1 1 1 1 1 
1 1 1 1 1 1 1 1 1 
1 1 1 1 1 1 1 1 1 
1 1 1 1 1 1 1 1 1 
1 1 1 1 1 1 1 1 1 
1 1 1 1 1 1 1 1 1 
1 1 1 1 1 1 1 1 1 
1 1 1 1 1 1 1 1 1 
1 1 1 1 1 1 1 1 1 
1 1 1 1 1 1 1 1 1 
1 1 1 1 1 1 1 1 1 
1 1 1 1 1 1 1 1 1 
1 1 1 1 1 1 1 1 1 
1 1 1 1 1 1 1 1 1 
1 1 1 1 1 1 1 1 1 
1 1 1 1 1 1 1 1 1 
1 1 1 1 1 1 1 1 1 
1 1 1 1 1 1 1 1 1 
1 1 1 1 1 1 1 1 1 
1 1 1 1 1 1 1 1 1 
1 1 1 1 1 1 1 1 1 
1 1 1 1 1 1 1 1 1 
1 1 1 1 1 1 1 1 1 
1 1 1 1 1 1 1 1 1 
1 1 1 1 1 1 1 1 1 
1 1 1 1 1 1 1 1 1 
1 1 1 1 1 1 1 1 1 
1 1 1 1 1 1 1 1 1 
1 1 1 1 1 1 1 1 1 
1 1 1 1 1 1 1 1 1 
1 1 1 1 1 1 1 1 1 
1 1 1 1 1 1 1 1 1 
1 1 1 1 1 1 1 1 1 
1 1 1 1 1 1 1 1 1 
1 1 1 1 1 1 1 1 1 
1 1 1 1 1 1 1 1 1 
1 1 1 1 1 1 1 1 1 
1 1 1 1 1 1 1 1 1 
1 1 1 1 1 1 1 1 1 
1 1 1 1 1 1 1 1 1 
1 1 1 1 1 1 1 1 1 
1 1 1 1 1 1 1 1 1 
1 1 1 1 1 1 1 1 1 
1 1 
i 3 2000 int
0 0 0 0 0 0 0 0 0 
0 0 0 0 0 0 0 0 0 
0 0 0 0 0 0 0 0 0 
0 0 0 0 0 0 0 0 0 
0 0 0 0 0 0 0 0 0 
0 0 0 0 0 0 0 0 0 
0 0 0 0 0 0 0 0 0 
0 0 0 0 1 0 0 0 0 
0 0 0 0 0 0 0 0 0 
0 0 0 0 0 0 0 0 0 
0 0 0 0 0 0 0 0 0 
0 1 0 0 0 0 0 0 0 
0 0 0 0 0 0 0 0 0 
0 0 0 0 0 0 -1 0 0 
0 0 0 0 0 0 0 0 0 
0 0 0 0 0 0 0 0 0 
0 0 0 0 0 0 0 0 0 
0 0 0 0 0 0 0 0 0 
0 0 0 0 0 0 0 0 0 
0 0 0 0 0 0 0 0 0 
0 0 0 0 0 0 0 0 0 
0 0 0 0 0 0 1 0 0 
0 0 0 0 0 0 0 0 0 
0 0 0 0 0 0 0 0 0 
0 0 0 0 0 0 0 0 0 
0 0 0 0 0 0 0 0 0 
0 0 0 0 0 0 0 0 0 
0 0 0 0 0 0 0 0 0 
0 0 0 0 0 0 0 0 0 
0 0 0 0 0 0 0 0 0 
0 0 0 0 0 0 0 0 0 
0 0 0 0 0 0 0 0 0 
0 0 0 0 0 0 0 0 0 
0 0 0 0 0 0 0 0 0 
0 0 0 0 0 0 0 0 0 
0 0 0 0 0 0 0 0 0 
0 0 0 0 0 0 0 0 0 
0 0 0 0 0 0 0 0 0 
0 0 0 0 0 0 1 0 0 
0 0 0 0 0 0 0 0 0 
0 0 0 0 0 0 0 0 0 
0 0 0 0 0 0 0 0 0 
0 0 0 0 0 0 0 0 0 
0 0 0 0 0 0 0 0 0 
0 0 0 0 0 0 0 0 0 
0 0 0 0 0 0 0 0 0 
0 0 0 0 0 0 0 0 0 
0 0 0 0 0 0 0 0 0 
0 0 0 0 0 0 0 0 0 
0 0 0 0 0 0 0 0 0 
0 0 0 0 0 0 0 0 0 
0 0 0 0 0 0 1 0 0 
0 0 0 0 0 0 0 0 0 
0 0 0 0 0 0 0 0 0 
0 0 0 0 0 0 0 0 0 
0 0 0 0 0 0 0 0 0 
0 0 0 0 0 0 0 0 0 
0 0 0 0 0 0 0 0 0 
0 0 0 0 0 0 0 0 0 
0 0 0 0 0 0 0 0 0 
0 0 0 0 0 0 0 0 0 
0 0 0 0 0 0 0 0 0 
0 0 0 0 0 0 0 0 0 
0 0 0 0 0 0 0 0 0 
0 0 0 0 0 0 0 0 0 
0 0 0 0 0 0 0 0 0 
0 0 0 0 0 0 0 0 0 
0 0 0 0 0 0 0 0 0 
0 0 0 0 0 0 0 0 0 
0 0 0 0 0 0 0 0 0 
0 0 0 0 0 0 0 0 0 
0 0 0 0 0 0 0 0 0 
0 -1 0 0 0 0 0 0 0 
0 0 0 0 0 0 0 0 0 
0 0 0 0 0 0 0 0 0 
0 0 0 0 0 0 0 0 0 
0 0 0 0 0 0 0 0 0 
0 0 0 0 0 0 0 0 0 
0 0 0 0 0 0 0 0 0 
0 0 0 0 0 0 0 0 0 
0 0 0 0 0 0 0 0 0 
0 0 0 0 0 0 0 0 0 
0 0 0 0 0 0 0 0 0 
0 0 0 0 0 0 0 0 0 
0 0 0 0 0 0 0 0 0 
0 0 0 0 0 0 0 0 0 
0 0 0 0 0 0 0 0 0 
0 1 0 0 0 0 0 0 0 
0 0 0 0 0 0 0 0 0 
0 0 0 0 0 0 0 0 0 
0 0 0 0 0 0 0 0 0 
0 0 0 0 0 0 0 0 0 
0 0 0 0 0 0 0 0 0 
0 0 0 0 0 0 0 0 0 
0 0 0 0 0 0 0 0 0 
0 0 0 0 0 0 0 0 0 
0 0 0 0 0 0 0 0 0 
0 0 0 0 0 0 0 0 0 
0 0 0 0 0 0 0 0 0 
0 0 0 0 0 0 0 0 0 
0 0 0 0 1 0 0 0 0 
-1 0 0 -1 0 0 0 0 0 
0 0 0 0 0 0 0 0 0 
0 0 0 0 0 0 0 0 0 
0 0 0 0 0 0 0 0 0 
0 0 0 0 0 0 0 0 0 
0 0 0 0 0 0 0 0 0 
-1 0 0 0 0 0 0 0 0 
0 0 0 0 0 0 0 0 0 
0 0 0 0 0 0 0 0 0 
0 0 0 0 0 0 0 0 0 
0 0 0 0 0 0 1 0 0 
0 0 0 0 0 0 0 0 0 
0 0 0 0 0 0 0 0 0 
0 0 0 0 0 0 0 0 0 
0 0 0 0 0 0 0 0 0 
0 0 0 0 0 0 0 0 0 
0 0 0 0 0 0 0 0 0 
0 0 0 0 0 0 0 0 0 
0 0 0 0 0 0 0 0 0 
0 0 0 0 0 0 0 0 0 
0 0 0 0 0 0 0 0 0 
0 0 0 0 0 0 0 0 0 
0 0 0 0 0 0 0 0 0 
0 0 0 0 0 0 0 0 0 
0 0 0 0 0 0 0 0 0 
0 0 0 0 0 0 0 0 0 
0 0 0 0 0 0 0 0 0 
0 0 0 0 0 0 0 0 0 
0 0 0 0 0 0 0 0 0 
0 0 0 0 0 0 1 0 0 
0 0 0 0 0 0 0 0 0 
0 0 0 0 0 0 0 0 0 
0 0 0 0 0 0 0 0 0 
0 0 0 0 0 0 0 0 0 
0 0 0 0 0 0 0 0 0 
0 0 0 0 0 0 0 0 0 
0 0 0 0 0 0 0 0 0 
0 0 0 0 0 0 0 0 0 
0 0 0 0 0 0 0 0 0 
0 0 0 0 0 0 0 0 0 
0 0 0 0 0 0 0 0 0 
0 0 0 0 0 0 0 0 0 
0 0 0 0 0 0 0 0 0 
0 0 0 0 0 0 0 0 0 
0 0 0 0 0 0 0 0 0 
0 0 0 0 0 0 0 0 0 
0 0 0 0 0 0 0 0 0 
0 0 0 0 0 0 0 0 0 
0 0 0 0 0 0 0 0 0 
0 0 0 0 0 0 0 0 0 
0 0 0 0 0 0 0 0 0 
0 0 0 0 0 0 0 0 0 
0 0 0 0 0 0 0 0 0 
0 0 0 0 0 0 0 0 0 
0 0 0 0 0 0 0 0 0 
0 0 0 0 0 0 0 0 0 
0 0 0 0 0 0 0 0 0 
0 0 0 0 0 0 0 0 0 
0 0 0 0 0 0 0 0 0 
0 0 0 0 0 0 0 0 0 
0 0 0 0 0 0 0 0 0 
0 0 0 0 0 0 0 0 0 
0 0 0 0 0 0 0 0 0 
0 0 0 0 0 0 0 0 0 
0 0 0 0 0 0 0 0 0 
0 0 0 0 0 0 0 0 0 
0 0 0 0 0 0 0 0 0 
0 0 0 0 0 0 0 0 0 
0 0 0 0 0 0 0 0 0 
0 0 0 0 0 0 0 0 0 
0 0 0 0 0 0 0 0 0 
0 0 0 0 0 0 0 -1 0 
0 0 0 0 0 0 0 0 0 
0 0 0 0 0 0 0 0 0 
0 0 0 0 0 0 0 0 0 
0 0 0 0 0 0 0 0 0 
0 0 0 0 0 0 0 0 0 
0 -1 0 0 0 0 0 0 0 
0 0 0 0 0 0 0 0 0 
0 0 0 0 0 0 0 0 0 
0 0 0 0 0 0 0 0 0 
0 0 0 0 0 0 0 0 0 
0 0 0 0 -1 0 0 0 0 
0 0 0 0 0 0 0 0 0 
0 0 0 0 0 0 0 0 0 
0 0 0 0 0 0 0 0 0 
0 0 0 0 0 0 0 0 0 
0 0 0 0 0 0 0 0 0 
0 0 0 0 0 0 0 0 0 
0 0 0 0 0 0 0 0 0 
0 0 0 0 0 0 0 0 0 
0 0 0 0 0 0 -1 0 0 
0 0 0 0 0 0 0 0 0 
0 0 0 0 0 0 0 0 0 
0 0 0 0 0 0 0 0 0 
0 0 0 0 0 0 0 0 0 
0 0 0 0 0 0 0 0 0 
0 0 0 0 0 0 0 0 0 
0 0 0 0 0 0 0 0 0 
0 0 0 0 0 0 0 0 0 
0 0 0 0 0 0 0 0 0 
0 0 0 0 0 0 0 0 0 
0 0 0 0 0 0 0 0 0 
0 0 0 0 0 0 0 0 0 
0 0 0 0 0 0 0 0 0 
0 0 0 0 0 0 0 0 0 
0 0 0 0 0 0 0 1 0 
0 0 0 0 0 0 0 0 0 
0 0 0 0 0 0 0 0 0 
0 0 0 0 0 0 0 0 0 
0 0 0 0 1 0 0 0 0 
0 1 0 0 0 0 0 0 0 
0 0 0 0 0 0 0 0 0 
0 0 0 0 0 0 0 0 0 
0 0 0 0 0 0 0 0 0 
0 1 0 0 0 0 0 0 0 
0 0 0 0 0 0 0 0 0 
0 0 0 0 0 0 0 0 0 
0 0 0 0 0 0 0 0 0 
0 0 0 0 0 0 0 0 0 
0 0 0 0 0 0 0 0 0 
0 0 0 0 0 0 0 0 0 
0 0 0 0 0 0 0 0 0 
0 0 0 0 0 0 0 0 0 
0 0 0 0 0 0 0 0 0 
0 0 0 0 0 0 0 0 0 
0 0 0 0 0 0 0 0 0 
0 0 0 0 0 0 0 0 0 
0 0 0 0 0 0 0 0 0 
0 0 0 0 0 0 0 0 0 
0 0 0 0 0 0 0 0 0 
0 0 0 0 0 0 0 0 0 
0 0 0 0 0 0 0 0 0 
0 0 0 0 0 0 0 0 0 
0 0 0 0 0 0 0 0 0 
0 0 0 0 0 0 0 0 0 
0 0 0 0 0 0 0 0 0 
0 0 0 0 0 0 0 0 0 
0 0 0 0 0 0 0 0 0 
0 0 0 0 0 0 0 0 0 
0 0 0 0 0 0 0 0 0 
0 0 0 0 0 0 0 0 0 
0 0 0 0 0 0 0 0 0 
0 0 0 0 0 0 0 0 0 
0 0 0 0 0 0 0 0 0 
0 0 0 0 0 0 0 0 0 
0 0 0 0 0 0 0 0 0 
0 0 0 0 0 0 0 0 0 
0 0 0 0 0 0 0 0 0 
0 0 0 0 0 0 0 0 0 
0 0 0 0 0 0 0 0 0 
0 0 0 -1 0 0 0 0 0 
0 0 0 0 0 0 0 0 0 
0 0 0 0 0 0 0 0 0 
0 0 0 0 0 0 0 0 0 
0 0 0 0 0 0 0 0 0 
0 0 0 0 0 0 0 0 0 
0 0 0 0 0 0 0 0 0 
0 0 0 0 0 0 0 0 0 
1 0 0 0 0 0 0 0 0 
0 0 0 0 0 0 0 0 0 
0 0 0 0 0 0 0 0 0 
0 0 0 0 0 0 0 0 0 
0 0 0 0 0 0 0 0 0 
0 0 0 0 0 0 0 0 0 
0 0 0 0 0 0 0 0 0 
0 0 0 0 0 0 0 0 0 
0 0 0 0 0 0 0 0 0 
0 0 0 0 0 0 0 0 0 
0 0 0 0 0 0 0 0 0 
0 0 0 0 0 0 0 0 0 
0 0 0 0 0 0 0 0 0 
0 0 0 0 0 0 0 0 0 
0 0 0 0 0 0 0 0 0 
0 0 0 0 0 0 0 -1 0 
0 -1 0 0 0 0 0 0 0 
0 0 0 0 0 0 0 0 0 
0 0 0 0 0 0 0 0 0 
0 0 0 0 0 0 0 0 0 
0 0 0 0 0 0 0 0 0 
0 0 0 0 0 0 0 0 0 
0 0 0 0 0 0 0 0 0 
0 0 0 0 0 0 0 0 0 
0 0 0 0 0 0 0 0 0 
0 0 0 0 0 0 0 0 0 
0 0 0 0 0 0 0 0 0 
0 0 0 0 0 0 0 0 0 
0 0 0 0 0 0 0 0 0 
0 0 0 0 0 0 0 0 0 
0 0 0 0 0 0 0 0 0 
0 0 0 0 0 0 0 0 0 
0 0 0 0 0 0 0 0 0 
0 -1 0 0 0 0 0 0 0 
0 0 0 0 0 0 0 0 0 
0 0 0 0 0 0 0 0 0 
-1 0 0 -1 0 0 0 0 0 
0 0 0 0 0 0 -1 0 0 
0 0 0 0 0 0 0 0 0 
0 0 0 0 0 0 0 0 0 
0 0 0 0 0 0 0 0 0 
0 0 0 0 0 0 0 0 0 
0 0 0 0 0 0 0 0 0 
0 0 0 0 0 0 0 0 0 
0 0 0 0 0 0 0 0 0 
0 0 0 0 0 0 0 0 0 
0 0 0 0 0 0 0 0 0 
0 0 0 0 0 0 0 1 0 
0 0 0 0 0 0 0 0 0 
0 0 0 0 0 0 0 0 0 
0 0 0 0 0 0 0 0 0 
0 0 0 0 0 0 0 0 0 
0 0 0 0 0 0 0 0 0 
0 0 0 0 0 0 0 0 0 
0 0 0 0 0 0 0 0 0 
0 0 0 0 0 0 0 0 0 
0 0 0 0 0 0 0 0 0 
0 0 0 0 0 0 0 0 0 
0 0 0 0 0 0 0 0 0 
0 0 0 0 0 0 0 0 0 
0 0 0 0 0 0 0 0 0 
0 0 0 0 0 0 0 0 0 
0 0 0 0 0 0 0 0 0 
0 0 0 0 0 0 0 0 0 
0 0 0 0 0 0 0 0 0 
0 0 0 0 0 0 0 0 0 
0 0 0 0 0 0 0 0 0 
0 0 0 0 0 0 0 0 0 
0 0 0 0 0 0 0 0 0 
0 0 0 0 0 0 0 0 0 
0 0 0 0 0 0 0 0 0 
0 0 0 0 0 0 0 0 0 
0 0 0 -1 0 0 0 0 0 
0 0 0 0 0 0 0 0 0 
0 0 0 0 0 0 0 0 0 
0 0 0 0 0 0 0 0 0 
0 0 0 0 0 0 0 0 0 
0 0 0 0 0 0 0 0 0 
0 0 0 0 0 0 0 0 0 
0 0 0 0 0 0 0 0 0 
0 0 0 0 0 0 0 0 0 
0 0 0 0 0 0 0 0 0 
0 0 0 0 0 0 0 0 0 
0 0 0 0 0 0 0 0 0 
0 0 0 0 0 0 0 0 0 