# vtk DataFile Version 4.0
Generated by LIGGGHTS
ASCII
DATASET POLYDATA
POINTS 2000 float
-87.0386 -91.1599 9.99384 -96.3138 -114.832 9.99973 -107.173 -132.412 9.99756 
-118.817 -115.935 9.99364 -88.6956 -140.072 9.99983 -132.692 -133.264 10.0006 
-130.125 -84.9523 9.99559 -107.539 -98.0795 9.99973 -120.05 -129.151 24.9435 
-111.338 -108.372 26.927 -134.718 -115.807 22.324 -118.626 -89.7984 25.6192 
-93.9558 -116.718 32.2266 -56.5916 -100.197 9.97769 -30.0028 -127.076 9.99918 
-75.2871 -107.742 9.99907 -66.8113 -135.438 9.99733 -80.416 -124.457 19.7085 
-37.5131 -100.946 17.5116 -60.4491 -117.641 19.0489 -47.9977 -133.059 16.3515 
-55.8899 -140.742 33.0436 -36.0017 -138.643 32.8094 1.02124 -104.961 9.99648 
1.03431 -136.976 10.01 20.4748 -99.4265 10.0385 -18.8973 -101.584 10.0044 
13.6475 -120.641 9.99973 -10.9583 -120.973 10.0093 8.85011 -130.066 27.0675 
23.2872 -89.5153 27.296 3.66836 -90.5062 23.5574 21.6129 -115.511 32.0677 
25.3207 -136.323 17.6073 35.6607 -104.612 22.72 53.2571 -127.643 9.99977 
68.0026 -91.8339 10.0001 33.9049 -119.942 9.99806 65.3748 -111.667 10.0296 
79.5831 -139.063 10.0056 48.4435 -95.9813 9.99798 38.4133 -125.785 28.5901 
43.6995 -86.844 27.1812 139.226 -97.773 19.1551 115.968 -126.599 10.0013 
131.223 -113.655 10.0028 103.393 -93.1067 9.99835 87.4788 -110.336 9.99973 
96.2119 -127.947 13.7922 120.369 -91.1818 20.5069 85.9445 -85.8912 16.5908 
132.222 -133.111 21.0488 111.68 -109.101 18.6858 90.1596 -100.681 29.3831 
129.157 -112.002 29.8853 104.034 -120.274 33.4151 -95.4085 -33.1129 18.0193 
-111.748 -74.5068 9.99859 -122.015 -57.3503 9.99255 -113.133 -39.3074 9.98821 
-90.2735 -71.4254 10.0549 -102.661 -56.5116 14.9616 -99.8067 -83.4545 23.3093 
-132.006 -69.4098 22.4346 -133.257 -49.5696 24.5743 -116.014 -40.8564 29.7038 
-89.3059 -48.3928 29.5735 -85.0247 -48.5006 9.99981 -139.184 -84.3883 33.5741 
-116.296 -60.7435 31.9443 -140.014 -37.6762 9.98839 -94.9754 -67.1076 33.7687 
-32.6602 -71.5082 9.9906 -30.9015 -51.5905 10 -49.3629 -81.9041 13.5756 
-61.2442 -66.2209 9.99936 -76.8582 -62.3685 21.8879 -57.5535 -32.8393 24.991 
-34.6631 -81.647 27.3479 -26.2598 -62.3756 26.5812 13.2812 -53.7736 10.0019 
-5.02998 -45.7268 9.99985 3.6053 -72.2168 9.99985 22.2802 -79.4191 9.99973 
-25.92 -31.8968 9.99973 -14.3626 -63.4171 10.0001 -14.2736 -35.3494 25.9356 
-12.1601 -77.66 23.8771 24.0986 -64.3457 23.1061 9.48699 -73.8282 32.932 
42.1075 -74.5575 9.99973 53.5552 -50.4868 9.99825 72.2269 -58.1207 9.99542 
33.2205 -50.8279 9.98363 69.753 -41.2158 20.3908 43.4698 -59.5965 24.7424 
62.2968 -66.3034 25.2962 52.8196 -43.0355 31.0905 86.5754 -44.2004 9.99479 
90.2649 -67.4962 9.9972 132.661 -79.4188 9.99707 118.63 -56.7381 10.0222 
110.378 -74.701 13.5237 114.055 -37.201 9.99157 138.532 -58.6833 9.99776 
127.937 -42.4422 23.3818 126.116 -73.2068 27.8399 -118.522 8.70779 9.99324 
-103.331 -8.47458 10.0086 -117.795 -20.8382 16.3962 -129.534 -2.97205 23.1209 
-108.122 -6.64464 29.3676 -91.6177 -17.9184 30.5184 -110.476 17.6645 25.9546 
-85.3928 -17.4032 9.99794 -139.486 -17.5569 11.6093 -129.918 21.8951 27.9069 
-46.475 1.69997 9.99891 -32.1238 -12.8822 9.99973 -75.7179 13.7357 24.9959 
-32.997 16.3615 27.203 -41.7523 -1.60445 29.1501 -38.6039 25.9635 9.99972 
19.8407 -27.8052 32.6695 -6.80244 -25.7962 10.0062 -24.8836 10.1817 9.99957 
-13.152 -6.07115 9.99428 -1.55139 -1.06356 25.4879 4.62699 9.95272 9.99151 
21.2741 6.76334 26.0207 23.3998 18.5615 10.0047 29.1405 -2.31044 9.99985 
61.5304 -26.2261 10.0125 42.8606 12.04 12.7332 80.9653 -14.7183 9.98774 
58.5489 -0.139779 10.0059 64.7602 19.7296 9.99973 36.6184 25.0205 26.6505 
59.4832 19.5984 30.9586 85.9101 11.0444 24.0954 97.0678 -26.65 10 
140.084 6.05798 10.1275 101.138 20.4782 9.99973 96.6468 0.375505 10.0057 
138.996 26.0891 10.0871 124.427 -22.6574 19.3838 118.154 -5.19835 9.98235 
103.126 -13.1046 23.4158 -105.011 28.4236 10.0073 -89.3413 69.1668 9.99973 
-112.918 59.0214 10.0018 -127.75 39.0364 9.99973 -137.56 77.634 30.3803 
-140.583 38.7115 25.6614 -130.508 61.6168 19.1712 -99.4945 44.1936 21.0072 
-117.386 37.6142 27.0621 -133.048 79.2084 9.99985 -82.7662 44.5982 9.99981 
-33.365 69.7204 24.9951 -67.1599 60.552 10.0055 -50.3189 42.3813 9.99973 
-62.3237 50.11 26.3668 -73.9601 72.3527 24.6667 -81.9547 48.2591 29.7173 
22.8857 78.3966 9.99951 -1.8624 61.3163 9.9998 -23.6872 39.3395 9.99973 
12.0468 67.6391 22.9156 23.1569 55.1123 10.0035 2.30169 35.7415 33.5255 
-3.86921 81.4236 10.0004 25.0059 79.6501 32.2838 29.4041 57.9291 28.7969 
32.7771 36.2298 10.05 59.6656 42.5409 10.0011 59.7707 62.5528 10.0376 
42.2578 72.5025 9.99856 77.0953 52.349 10.1325 71.5504 33.685 23.4325 
52.0983 37.947 27.9375 42.6558 53.027 14.5625 78.9289 72.4314 10.0058 
66.2165 54.58 27.2458 119.172 31.0412 10.0004 86.3646 34.0921 9.99741 
118.904 57.7089 9.99943 104.973 72.0606 9.99657 104.013 44.1254 10.0295 
137.579 50.5512 10.0061 93.6122 58.5955 19.524 117.459 44.1124 25.0451 
92.3816 81.8891 22.0278 114.496 67.453 26.9663 130.98 72.2412 16.5541 
90.2015 39.3418 29.5399 -114 85.3076 9.9997 -115.325 118.175 24.9934 
-140.883 94.5473 20.1913 -73.9304 136.408 25.6827 -77.3009 85.5378 10.0052 
-56.4824 93.2495 10.0092 -46.4662 111.777 9.99973 -83.0494 104.698 9.9998 
-79.2177 124.323 10.578 -54.2439 130.521 9.99972 -30.4457 104.622 25.126 
-33.1959 135.639 14.3337 -32.4116 123.816 30.4537 -16.3863 139.797 25.3948 
-26.752 117.184 10.0112 14.7801 130.489 9.98483 -10.2964 128.548 9.99643 
-2.82428 110.001 9.9973 10.2184 89.1241 21.9303 16.9347 108.475 12.6567 
2.09927 131.702 25.3922 -13.4585 116.534 25.6722 26.6657 99.0294 27.5882 
21.9795 128.912 28.561 -11.2835 96.7368 22.3361 6.07798 112.375 29.0124 
35.1707 94.1798 10.0633 61.6845 133.96 10.0041 35.6262 115.065 10.0004 
55.6222 114.903 9.99918 41.8889 137.37 9.99565 80.4477 121.069 10.0567 
69.4887 123.017 26.7729 50.7976 130.116 26.3602 60.5692 89.992 34.1581 
37.2297 115.863 29.9198 124.509 90.0001 9.99978 86.3551 101.442 9.99973 
115.942 108.695 9.99805 138.254 132.064 10.0085 110.246 136.164 9.99459 
104.565 92.2482 10.0193 135.7 111.784 10.0094 99.8793 119.69 14.5805 
123.292 123.981 20.6355 88.7949 120.048 31.2236 115.586 140.551 28.7547 
-136.358 -103.701 38.3196 -106.365 -133.028 38.9974 -132.804 -125.535 39.9054 
-116.955 -114.518 45.1121 -93.82 -123.258 51.1227 -88.4627 -136.907 64.9968 
-110.265 -121.983 62.4286 -128.992 -128.765 60.6571 -133.07 -110.924 71.8831 
-105.436 -136.074 75.7878 -93.3906 -112.843 68.2143 -128.817 -99.4426 87.7699 
-88.235 -140.911 84.8046 -80.6201 -132.852 39.5669 -70.6467 -91.8671 40.9023 
-49.5843 -121.025 35.5608 -41.4761 -100.896 64.979 -75.769 -122.096 59.6445 
-59.8741 -87.7277 73.9415 -65.1741 -139.015 50.6702 -56.2949 -120.296 55.4702 
-42.1471 -133.851 51.4761 -29.4596 -111.439 77.1399 -64.4009 -109.63 70.38 
-67.1359 -138.63 70.587 -47.3481 -127.23 81.9015 -32.2522 -129.544 68.9523 
-81.6276 -98.2642 75.2334 -72.7977 -128.268 86.821 -16.1755 -111.797 43.3776 
16.6845 -99.662 43.2156 13.638 -127.01 54.9027 4.59846 -118.146 71.2769 
-2.70104 -139.04 61.6904 -10.7848 -93.4935 72.7308 23.492 -136.185 39.2401 
8.74347 -93.2729 77.2326 -13.1702 -126.027 76.0476 21.9387 -93.4877 61.4935 
8.46513 -137.737 78.2194 20.4726 -109.284 79.6628 26.1638 -128.424 78.5889 
26.5618 -112.947 60.9083 27.46 -90.5682 84.8433 70.7718 -127.413 41.8224 
36.8957 -126.648 50.6139 54.6367 -115.305 70.4237 41.3066 -106.264 41.8328 
76.6038 -116.48 74.5645 40.835 -137.838 66.7577 39.081 -103.61 75.0341 
61.1886 -135.786 74.4243 45.4776 -127.633 83.7408 80.3737 -134.138 83.6482 
101.95 -118.947 55.2731 109.818 -91.1437 37.5006 132.311 -136.183 40.9613 
121.103 -114.447 48.0707 113.447 -132.87 46.686 129.312 -94.4995 45.3236 
101.595 -138.487 61.7723 94.5858 -87.3918 49.9051 140.303 -114.737 54.1979 
108.964 -100.226 55.2943 88.5643 -103.727 60.7426 121.096 -133.037 65.1858 
134.676 -97.9051 65.1857 95.2615 -123.606 73.5339 138.424 -127.916 74.3076 
98.6841 -89.6023 70.6688 134.294 -105.866 84.5674 110.518 -97.5541 84.7065 
112.309 -112.58 71.2501 139.989 -84.8688 83.9159 122.766 -122.194 85.3483 
115.192 -140.563 82.8738 -116.027 -82.77 59.8009 -132.74 -53.7167 49.4739 
-85.776 -64.9481 58.6085 -102.363 -34.2475 61.2295 -131.874 -55.3512 75.001 
-96.146 -62.7554 80.5372 -78.5956 -78.5182 72.7171 -29.4856 -35.8377 45.687 
-74.7276 -57.1963 43.3324 -62.9752 -46.0881 56.9264 -65.728 -65.0088 62.7877 
-51.6293 -39.2494 71.9368 -78.2528 -55.6032 75.2092 -61.8278 -69.481 81.8871 
-30.8376 -67.322 60.9222 -69.4489 -38.6098 80.9884 -33.3255 -36.2441 79.4125 
-45.6566 -84.435 87.6157 -47.6716 -51.481 87.2688 4.82804 -84.4264 49.2384 
27.8711 -82.6599 45.5456 -3.19312 -60.0131 39.8786 -10.4845 -41.9571 44.4335 
17.6232 -60.0353 70.8245 -11.7995 -37.3412 64.093 3.48878 -31.0917 84.5197 
44.1178 -36.2916 56.4074 60.9697 -80.8286 57.104 65.5994 -48.0692 45.6346 
77.8734 -49.3586 67.6296 58.0848 -47.0381 65.8741 70.6058 -31.1169 71.5238 
68.564 -45.5839 85.1727 48.8219 -48.3265 83.5526 50.9707 -29.4972 74.9638 
99.8991 -54.0083 40.8317 140.965 -36.122 37.1496 116.07 -81.5378 55.1583 
134.471 -57.1251 36.3664 132.729 -73.8198 47.2305 107.416 -71.516 70.2126 
131.996 -78.1016 66.7479 88.4007 -66.2693 73.5988 128.403 -60.8567 76.2017 
120.287 -80.2054 82.8214 -124.95 -24.1222 36.1446 -98.714 -1.33441 46.8709 
-132.229 -6.65629 42.6666 -110.018 24.9198 44.5955 -116.784 6.24192 41.9908 
-113.898 -0.423347 60.6253 -108.438 25.3166 67.1161 -93.2065 20.6282 54.5498 
-133.381 4.35404 59.3421 -111.088 8.93094 78.3435 -129.715 16.3587 74.9174 
-89.88 -8.1616 80.9183 -95.1464 4.18382 65.8011 -123.147 -7.07044 77.1166 
-45.1784 -27.2655 57.2832 -78.0693 -13.9399 46.2902 -44.2426 17.7379 43.6839 
-68.903 0.945184 56.8591 -60.0676 19.4454 55.8868 -51.2528 4.64 66.5371 
-53.1774 -9.998 51.1368 -39.8983 10.6705 81.9023 -68.1336 -26.7922 57.9545 
-56.0842 -16.7001 70.3212 -78.2149 14.5467 68.1767 -39.5729 -15.6598 81.5743 
-70.7046 -4.31738 76.0826 -57.841 20.0781 87.1322 -19.0086 -3.96061 55.6752 
[...]
POINT_DATA 2000
FIELD FieldData 7
id 1 2000 int
41 77 196 230 301 308 411 107 205 
282 106 55 438 53 85 259 296 439 
157 275 424 371 40 185 265 297 299 
410 440 172 95 351 336 437 49 33 
300 376 408 344 397 216 149 380 59 
139 141 164 29 30 201 379 335 434 
394 283 36 142 338 414 456 32 161 
261 453 80 276 171 381 245 114 425 
112 143 231 246 215 10 273 211 115 
208 232 365 225 48 243 45 167 75 
113 174 222 318 108 354 285 317 200 
117 252 262 286 314 395 334 274 239 
342 66 147 255 443 309 413 298 278 
50 345 20 46 220 187 11 212 69 
37 358 390 416 347 122 359 123 197 
264 430 315 204 256 135 346 54 97 
178 213 271 404 238 84 199 320 400 
99 234 450 152 444 362 8 279 321 
250 384 378 195 240 399 186 111 12 
169 73 133 131 132 389 419 449 229 
369 375 102 72 330 253 34 154 221 
266 173 352 366 58 329 206 138 6 
284 328 184 224 168 179 311 455 295 
385 90 78 88 62 302 339 79 83 
218 426 127 128 294 433 341 110 227 
396 421 429 251 242 18 423 96 160 
209 288 367 370 452 116 198 203 247 
244 343 442 166 304 361 401 448 1864 
1820 1025 1285 1194 223 9 71 82 130 
350 292 119 409 290 383 1191 1007 1904 
1249 1749 2 241 156 64 76 210 263 
1855 1873 364 1584 1941 1011 418 327 22 
144 165 382 323 332 42 1715 1811 1945 
137 47 51 125 445 81 155 249 272 
436 74 1428 1281 1934 720 1920 856 700 
1308 1922 1665 1854 5 331 388 26 307 
552 319 422 65 163 191 236 1719 1793 
23 1676 1730 903 642 293 39 417 281 
28 226 1366 392 14 44 189 306 104 
931 1603 118 25 183 86 313 398 180 
188 1317 1870 1643 405 43 412 129 322 
761 1508 303 326 764 1565 1819 176 1155 
415 151 162 68 158 214 257 121 368 
175 427 353 1211 864 4 217 357 202 
402 94 190 349 120 1159 570 746 268 
260 219 7 100 333 432 457 70 63 
1767 622 153 386 291 15 277 19 441 
581 1015 1407 839 3 254 57 228 393 
145 177 420 1046 1600 1399 909 340 1956 
1 270 387 109 170 181 140 312 91 
93 1163 372 61 67 267 60 316 87 
1652 590 583 207 923 709 193 280 373 
235 374 16 194 148 789 1080 1406 431 
1082 1951 310 377 103 233 337 35 258 
356 24 159 182 435 1430 1367 1124 852 
105 360 403 237 287 363 92 348 21 
1398 1517 1852 324 1685 27 428 391 56 
98 1807 1893 1087 1716 1200 355 1283 407 
289 446 101 192 13 124 1869 1400 1589 
701 269 146 136 150 1883 1995 771 817 
1501 1706 1836 52 305 325 406 38 126 
17 31 447 134 248 967 1140 1618 1447 
480 1068 1694 1542 1293 1726 784 954 1878 
1938 1195 484 1382 1176 1178 541 1173 1999 
1170 1331 1982 1021 948 1258 1601 1838 668 
907 520 952 1262 1252 1865 1304 1712 1337 
553 1450 1687 651 548 997 1678 951 1634 
1551 1537 654 1128 1988 1409 462 1105 1189 
1728 1757 1051 1474 739 838 1842 1561 1649 
599 661 911 914 1147 1149 1459 866 1220 
1829 479 753 1845 974 486 1527 1840 752 
573 1427 89 1953 540 1206 1275 1683 1488 
1656 1543 1781 489 1050 854 878 995 1045 
1171 1578 1013 1994 1077 1520 1866 658 1143 
833 889 1799 626 1586 1213 875 1130 874 
1540 757 793 1284 1894 1421 533 1725 985 
1566 640 1861 602 652 1365 1001 644 1225 
1234 1415 1673 779 862 1373 1874 666 1389 
806 1167 495 1729 1480 1444 521 1112 1442 
1908 842 861 1419 1034 1177 1628 1093 1099 
1736 1738 1129 1465 1677 532 1460 754 1063 
1190 1496 1947 1850 1031 1696 1404 1023 1066 
712 1718 1563 1881 698 799 1144 451 466 
1340 1831 1271 1745 1401 1391 1572 467 454 
594 960 1385 1417 1912 970 1579 1675 888 
1119 1369 1602 1102 474 1975 580 1468 1499 
1270 1341 1769 506 1533 1929 643 1412 673 
1595 1890 1959 608 1570 1362 1529 470 597 
1679 628 1172 1074 1534 1452 566 674 1720 
1743 965 975 1803 1884 841 656 1416 1481 
892 1040 1791 1108 853 949 1815 564 1490 
1773 492 1647 1620 1261 741 1424 1606 660 
729 1761 962 968 1960 624 1470 1241 1453 
1608 518 1771 814 1131 1903 1334 1326 966 
1638 1858 1441 1477 1636 1017 513 1825 1355 
1822 803 936 964 1433 1896 848 1931 1891 
1267 1889 925 1948 1071 469 1734 1268 1591 
1156 1552 537 1201 1979 1911 1153 1525 562 
775 1892 1054 1684 588 1919 991 488 1216 
749 671 630 946 728 876 1291 1965 1461 
1098 845 461 475 832 1830 1545 1844 1125 
1104 718 1342 1539 1117 810 887 1827 522 
1667 1263 459 565 915 687 1058 1169 1662 
944 1633 621 1037 906 675 1209 1962 781 
1614 1089 1752 835 670 1462 1203 1120 969 
1229 1813 1978 1582 1361 1487 1094 487 1223 
912 1042 938 723 850 987 1328 972 1661 
1352 1663 1974 589 1916 574 1254 1932 986 
1324 539 807 1756 886 1936 1118 1084 1930 
618 530 1018 1332 1772 1004 1491 1835 1616 
1135 758 722 1554 1208 1343 493 1564 1796 
471 1287 1495 865 1309 1917 896 1532 1937 
1550 1187 788 464 498 809 894 935 1740 
916 1788 1558 1935 528 1036 1076 1467 1573 
1397 1475 1834 745 961 1414 901 1197 1333 
1569 1282 1494 1846 1048 1062 575 1064 1269 
1504 1928 919 1126 798 1653 1318 569 1524 
922 682 1770 645 1312 538 953 1214 1114 
895 1613 837 934 1052 1458 1577 713 1056 
511 1925 904 1371 1859 1682 503 664 1910 
1918 600 1073 1184 759 1255 1784 1849 733 
1303 797 1109 1789 805 893 1438 525 557 
1175 535 1146 790 1837 1722 531 1708 559 
1204 1219 1944 1887 1809 1043 1798 1764 1626 
491 1879 1615 1418 473 981 1422 1503 1226 
604 710 1629 825 1420 1939 1231 1548 508 
1505 1029 478 1354 1053 2000 1387 1732 1702 
1360 1165 1760 1610 697 1024 1964 1359 696 
990 1344 1041 551 1804 992 1670 1906 1596 
1983 984 801 1383 1483 1055 820 1379 1514 
1735 646 1576 1980 1101 1780 1814 1724 818 
959 1245 1664 1122 794 1059 1121 751 667 
769 1205 1473 1823 1060 595 1650 1991 1181 
1754 867 496 736 1790 685 1251 1350 1434 
1088 616 1235 529 831 1547 483 1860 1069 
1090 1100 1446 686 730 1166 1222 1672 1026 
1598 1445 1246 763 1067 1030 526 1622 1674 
601 692 1289 1469 614 1061 1604 1966 515 
742 755 868 796 908 1210 740 476 611 
871 1300 1368 774 917 1546 1297 1632 1805 
725 770 902 1507 1035 1699 1877 510 1457 
1705 632 1707 523 1711 1310 780 830 1568 
918 870 1116 994 1070 688 1150 482 607 
765 1778 1049 1092 1701 1863 1425 924 1493 
993 1857 732 777 1575 1923 613 695 1151 
1174 1559 1940 1348 750 819 1768 1775 623 
705 1264 1466 1783 1106 760 1142 1556 1619 
631 1594 1976 999 1138 885 1039 1742 910 
881 1969 929 1448 1134 1963 802 1192 1228 
1247 1276 1972 534 738 1808 1867 1250 627 
641 1336 1704 549 572 472 1856 655 998 
699 1640 1700 1574 502 1952 561 1078 1306 
1549 1196 1641 1741 1967 942 1313 1957 1992 
1358 463 800 1455 1897 567 1260 1356 1818 
1942 648 1290 1370 647 1375 1432 1737 1590 
547 1376 592 928 1095 1408 1871 1440 1961 
678 715 1168 1509 1500 545 920 988 1047 
1489 1949 1162 708 1666 1295 1006 1242 1557 
1160 1571 1905 1585 1607 499 1009 1237 787 
1321 1839 1828 1853 596 719 811 1993 1660 
1802 747 1005 1302 509 822 519 1139 514 
1256 1377 1695 1482 689 1973 586 1439 1152 
516 815 855 679 681 1512 649 693 1113 
1107 1476 1668 1277 1832 869 1327 485 1763 
1623 1833 620 571 650 1454 1901 500 1161 
1538 603 468 1394 1316 1739 1792 680 791 
717 1423 743 1179 1513 703 1431 955 826 
1392 1515 1915 1617 945 971 1232 1876 1133 
1516 1273 1968 546 1363 1958 1065 891 1307 
1426 1703 1511 1305 1841 558 1224 1396 1746 
1320 1744 1977 836 1502 1530 1593 677 1581 
1755 1882 978 1010 612 744 1000 1580 827 
1083 1555 1758 1926 795 657 1353 1812 1821 
579 1198 1646 1826 1921 1136 1429 563 1541 
578 762 1240 1311 1072 863 1338 1801 690 
767 1185 1885 517 1028 973 1137 1868 1899 
1079 1386 711 731 1230 860 1378 1627 1759 
1810 1091 847 858 950 737 941 977 1782 
481 958 1851 785 1132 1692 1787 1611 899 
1274 1875 1996 577 1012 505 873 1472 1182 
524 1597 1686 1721 1014 1236 1022 1492 1637 
653 1239 1651 1723 1955 637 812 1544 1862 
634 704 927 976 560 857 1278 1795 1322 
1800 1357 591 576 1645 1221 1521 1592 542 
1141 1212 1411 1847 584 662 846 1215 1691 
663 804 937 1158 1671 772 1057 1325 1587 
843 1164 1032 1680 1697 1777 890 773 1299 
1635 1621 672 1690 963 1279 1436 1588 568 
1372 1085 605 1347 1817 1451 905 1301 1927 
1880 507 1486 821 1345 766 816 1727 1747 
1111 556 669 716 879 1388 504 900 1449 
756 947 829 1522 1642 1907 1127 587 980 
1207 1776 1990 512 834 1086 1405 1689 1693 
477 734 748 1753 544 1188 939 1038 1314 
1485 1987 638 768 1019 1218 1351 1599 1766 
776 1888 1989 982 1413 619 610 851 694 
824 1123 1478 1286 1510 617 943 1748 1848 
458 1985 1096 635 1688 1779 1148 1762 956 
1390 1339 1681 1943 606 783 996 1914 490 
1954 683 957 1403 1463 1609 1280 593 1713 
1567 598 1257 1519 1288 615 554 921 1016 
555 1669 1909 1717 1639 1624 1381 1075 813 
625 724 1330 1193 1265 1292 1733 1410 1157 
706 1374 1886 989 1997 1971 1498 527 1714 
1008 1464 897 1272 1393 1950 1402 1315 1081 
636 543 1984 1655 1562 1296 714 659 1946 
926 1329 1227 1335 1786 1443 1115 840 1583 
1654 501 1658 1648 1484 1346 930 1898 1380 
1233 707 1238 849 1044 1186 1553 1349 884 
859 497 1630 933 1531 1709 1103 882 1794 
1266 940 702 1970 877 778 609 1998 1731 
1605 1180 1145 808 582 844 536 1003 1497 
1364 983 786 1020 1323 1981 1110 880 1319 
1560 1002 1437 1644 1243 1528 1657 1259 639 
465 932 1384 1785 1824 913 721 494 898 
691 1248 1518 1631 792 735 1895 1872 1612 
1924 1506 1710 1435 1294 1183 1751 726 823 
883 1625 1659 1913 1253 1154 633 665 1298 
1933 872 1202 1217 1535 1536 1806 1902 1244 
782 1395 1027 1097 460 684 1750 1199 727 
629 550 1986 676 1774 1900 1523 1033 828 
1471 1797 1456 1843 1816 585 1526 1698 1479 
1765 979 
type 1 2000 int
1 1 1 1 1 1 1 1 1 
1 1 1 1 1 1 1 1 1 
1 1 1 1 1 1 1 1 1 
1 1 1 1 1 1 1 1 1 
1 1 1 1 1 1 1 1 1 
1 1 1 1 1 1 1 1 1 
1 1 1 1 1 1 1 1 1 
1 1 1 1 1 1 1 1 1 
1 1 1 1 1 1 1 1 1 
1 1 1 1 1 1 1 1 1 
1 1 1 1 1 1 1 1 1 
1 1 1 1 1 1 1 1 1 
1 1 1 1 1 1 1 1 1 
1 1 1 1 1 1 1 1 1 
1 1 1 1 1 1 1 1 1 
1 1 1 1 1 1 1 1 1 
1 1 1 1 1 1 1 1 1 
1 1 1 1 1 1 1 1 1 
1 1 1 1 1 1 1 1 1 
1 1 1 1 1 1 1 1 1 
1 1 1 1 1 1 1 1 1 
1 1 1 1 1 1 1 1 1 
1 1 1 1 1 1 1 1 1 
1 1 1 1 1 1 1 1 1 
1 1 1 1 1 1 1 1 1 
1 1 1 1 1 1 1 1 1 
1 1 1 1 1 1 1 1 1 
1 1 1 1 1 1 1 1 1 
1 1 1 1 1 1 1 1 1 
1 1 1 1 1 1 1 1 1 
1 1 1 1 1 1 1 1 1 
1 1 1 1 1 1 1 1 1 
1 1 1 1 1 1 1 1 1 
1 1 1 1 1 1 1 1 1 
1 1 1 1 1 1 1 1 1 
1 1 1 1 1 1 1 1 1 
1 1 1 1 1 1 1 1 1 
1 1 1 1 1 1 1 1 1 
1 1 1 1 1 1 1 1 1 
1 1 1 1 1 1 1 1 1 
1 1 1 1 1 1 1 1 1 
1 1 1 1 1 1 1 1 1 
1 1 1 1 1 1 1 1 1 
1 1 1 1 1 1 1 1 1 
1 1 1 1 1 1 1 1 1 
1 1 1 1 1 1 1 1 1 
1 1 1 1 1 1 1 1 1 
1 1 1 1 1 1 1 1 1 
1 1 1 1 1 1 1 1 1 
1 1 1 1 1 1 1 1 1 
1 1 1 1 1 1 1 1 1 
1 1 1 1 1 1 1 1 1 
1 1 1 1 1 1 1 1 1 
1 1 1 1 1 1 1 1 1 
1 1 1 1 1 1 1 1 1 
1 1 1 1 1 1 1 1 1 
1 1 1 1 1 1 1 1 1 
1 1 1 1 1 1 1 1 1 
1 1 1 1 1 1 1 1 1 
1 1 1 1 1 1 1 1 1 
1 1 1 1 1 1 1 1 1 
1 1 1 1 1 1 1 1 1 
1 1 1 1 1 1 1 1 1 
1 1 1 1 1 1 1 1 1 
1 1 1 1 1 1 1 1 1 
1 1 1 1 1 1 1 1 1 
1 1 1 1 1 1 1 1 1 
1 1 1 1 1 1 1 1 1 
1 1 1 1 1 1 1 1 1 
1 1 1 1 1 1 1 1 1 
1 1 1 1 1 1 1 1 1 
1 1 1 1 1 1 1 1 1 
1 1 1 1 1 1 1 1 1 
1 1 1 1 1 1 1 1 1 
1 1 1 1 1 1 1 1 1 
1 1 1 1 1 1 1 1 1 
1 1 1 1 1 1 1 1 1 
1 1 1 1 1 1 1 1 1 
1 1 1 1 1 1 1 1 1 
1 1 1 1 1 1 1 1 1 
1 1 1 1 1 1 1 1 1 
1 1 1 1 1 1 1 1 1 
1 1 1 1 1 1 1 1 1 
1 1 1 1 1 1 1 1 1 
1 1 1 1 1 1 1 1 1 
1 1 1 1 1 1 1 1 1 
1 1 1 1 1 1 1 1 1 
1 1 1 1 1 1 1 1 1 
1 1 1 1 1 1 1 1 1 
1 1 1 1 1 1 1 1 1 
1 1 1 1 1 1 1 1 1 
1 1 1 1 1 1 1 1 1 
1 1 1 1 1 1 1 1 1 
1 1 1 1 1 1 1 1 1 
1 1 1 1 1 1 1 1 1 
1 1 1 1 1 1 1 1 1 
1 1 1 1 1 1 1 1 1 
1 1 1 1 1 1 1 1 1 
1 1 1 1 1 1 1 1 1 
1 1 1 1 1 1 1 1 1 
1 1 1 1 1 1 1 1 1 
1 1 1 1 1 1 1 1 1 
1 1 1 1 1 1 1 1 1 
1 1 1 1 1 1 1 1 1 
1 1 1 1 1 1 1 1 1 
1 1 1 1 1 1 1 1 1 
1 1 1 1 1 1 1 1 1 
1 1 1 1 1 1 1 1 1 
1 1 1 1 1 1 1 1 1 
1 1 1 1 1 1 1 1 1 
1 1 1 1 1 1 1 1 1 
1 1 1 1 1 1 1 1 1 
1 1 1 1 1 1 1 1 1 
1 1 1 1 1 1 1 1 1 
1 1 1 1 1 1 1 1 1 
1 1 1 1 1 1 1 1 1 
1 1 1 1 1 1 1 1 1 
1 1 1 1 1 1 1 1 1 
1 1 1 1 1 1 1 1 1 
1 1 1 1 1 1 1 1 1 
1 1 1 1 1 1 1 1 1 
1 1 1 1 1 1 1 1 1 
1 1 1 1 1 1 1 1 1 
1 1 1 1 1 1 1 1 1 
1 1 1 1 1 1 1 1 1 
1 1 1 1 1 1 1 1 1 
1 1 1 1 1 1 1 1 1 
1 1 1 1 1 1 1 1 1 
1 1 1 1 1 1 1 1 1 
1 1 1 1 1 1 1 1 1 
1 1 1 1 1 1 1 1 1 
1 1 1 1 1 1 1 1 1 
1 1 1 1 1 1 1 1 1 
1 1 1 1 1 1 1 1 1 
1 1 1 1 1 1 1 1 1 
1 1 1 1 1 1 1 1 1 
1 1 1 1 1 1 1 1 1 
1 1 1 1 1 1 1 1 1 
1 1 1 1 1 1 1 1 1 
1 1 1 1 1 1 1 1 1 
1 1 1 1 1 1 1 1 1 
1 1 1 1 1 1 1 1 1 
1 1 1 1 1 1 1 1 1 
1 1 1 1 1 1 1 1 1 
1 1 1 1 1 1 1 1 1 
1 1 1 1 1 1 1 1 1 
1 1 1 1 1 1 1 1 1 
1 1 1 1 1 1 1 1 1 
1 1 1 1 1 1 1 1 1 
1 1 1 1 1 1 1 1 1 
1 1 1 1 1 1 1 1 1 
1 1 1 1 1 1 1 1 1 
1 1 1 1 1 1 1 1 1 
1 1 1 1 1 1 1 1 1 
1 1 1 1 1 1 1 1 1 
1 1 1 1 1 1 1 1 1 
1 1 1 1 1 1 1 1 1 
1 1 1 1 1 1 1 1 1 
1 1 1 1 1 1 1 1 1 
1 1 1 1 1 1 1 1 1 
1 1 1 1 1 1 1 1 1 
1 1 1 1 1 1 1 1 1 
1 1 1 1 1 1 1 1 1 
1 1 1 1 1 1 1 1 1 
1 1 1 1 1 1 1 1 1 
1 1 1 1 1 1 1 1 1 
1 1 1 1 1 1 1 1 1 
1 1 1 1 1 1 1 1 1 
1 1 1 1 1 1 1 1 1 
1 1 1 1 1 1 1 1 1 
1 1 1 1 1 1 1 1 1 
1 1 1 1 1 1 1 1 1 
1 1 1 1 1 1 1 1 1 
1 1 1 1 1 1 1 1 1 
1 1 1 1 1 1 1 1 1 
1 1 1 1 1 1 1 1 1 
1 1 1 1 1 1 1 1 1 
1 1 1 1 1 1 1 1 1 
1 1 1 1 1 1 1 1 1 
1 1 1 1 1 1 1 1 1 
1 1 1 1 1 1 1 1 1 
1 1 1 1 1 1 1 1 1 
1 1 1 1 1 1 1 1 1 
1 1 1 1 1 1 1 1 1 
1 1 1 1 1 1 1 1 1 
1 1 1 1 1 1 1 1 1 
1 1 1 1 1 1 1 1 1 
1 1 1 1 1 1 1 1 1 
1 1 1 1 1 1 1 1 1 
1 1 1 1 1 1 1 1 1 
1 1 1 1 1 1 1 1 1 
1 1 1 1 1 1 1 1 1 
1 1 1 1 1 1 1 1 1 
1 1 1 1 1 1 1 1 1 
1 1 1 1 1 1 1 1 1 
1 1 1 1 1 1 1 1 1 
1 1 1 1 1 1 1 1 1 
1 1 1 1 1 1 1 1 1 
1 1 1 1 1 1 1 1 1 
1 1 1 1 1 1 1 1 1 
1 1 1 1 1 1 1 1 1 
1 1 1 1 1 1 1 1 1 
1 1 1 1 1 1 1 1 1 
1 1 1 1 1 1 1 1 1 
1 1 1 1 1 1 1 1 1 
1 1 1 1 1 1 1 1 1 
1 1 1 1 1 1 1 1 1 
1 1 1 1 1 1 1 1 1 
1 1 1 1 1 1 1 1 1 
1 1 1 1 1 1 1 1 1 
1 1 1 1 1 1 1 1 1 
1 1 1 1 1 1 1 1 1 
1 1 1 1 1 1 1 1 1 
1 1 1 1 1 1 1 1 1 
1 1 1 1 1 1 1 1 1 
1 1 1 1 1 1 1 1 1 
1 1 1 1 1 1 1 1 1 
1 1 1 1 1 1 1 1 1 
1 1 1 1 1 1 1 1 1 
1 1 1 1 1 1 1 1 1 
1 1 1 1 1 1 1 1 1 
1 1 1 1 1 1 1 1 1 
1 1 
i 3 2000 int
0 0 0 0 0 0 0 0 0 
0 0 0 0 0 0 0 0 0 
0 0 0 0 0 0 0 0 0 
0 0 0 0 0 0 0 0 0 
0 0 0 0 0 0 0 0 0 
0 0 0 0 0 0 0 0 0 
0 0 0 0 0 0 0 0 0 
0 0 0 0 1 0 0 0 0 
0 0 0 0 0 0 0 0 0 
0 0 0 0 0 0 0 0 0 
0 0 0 0 0 0 0 0 0 
0 0 0 0 0 0 0 0 0 
0 0 0 0 0 0 0 0 0 
0 1 0 0 0 0 0 0 0 
0 0 0 -1 0 0 0 0 0 
0 0 0 0 0 0 0 0 0 
0 0 0 0 0 0 0 0 0 
0 0 0 0 0 0 0 0 0 
0 0 0 0 0 0 0 0 0 
0 0 0 0 0 0 0 0 0 
0 0 0 0 0 0 0 0 0 
0 0 0 0 0 0 0 0 0 
0 0 0 0 0 0 0 0 0 
0 0 0 0 0 0 0 0 0 
0 0 0 0 0 0 0 0 0 
0 0 0 0 0 0 0 0 0 
0 0 0 0 0 0 0 0 0 
0 0 0 0 0 0 0 0 0 
0 0 0 0 0 0 0 0 0 
0 0 0 0 0 0 0 0 0 
0 0 0 0 0 0 0 0 0 
0 0 0 0 0 0 0 0 0 
0 0 0 0 0 0 0 0 0 
0 0 0 0 0 0 0 0 0 
0 0 0 0 0 0 0 0 0 
0 0 0 0 0 0 0 0 0 
0 0 0 0 0 0 0 0 0 
0 0 0 0 0 0 0 0 0 
0 0 0 1 0 0 0 0 0 
0 0 0 0 0 0 0 0 0 
0 0 0 0 0 0 0 0 0 
0 0 0 0 0 0 0 0 0 
0 0 0 0 0 0 0 0 0 
0 0 0 0 0 0 0 0 0 
0 0 0 0 0 0 0 0 0 
0 0 0 0 0 0 0 0 0 
0 0 0 0 0 0 0 0 0 
-1 0 0 0 0 0 0 0 0 
0 0 0 0 0 0 0 0 0 
0 0 0 0 0 0 0 0 0 
0 0 0 0 0 0 0 0 0 
0 0 0 0 0 0 0 0 0 
0 0 0 0 0 0 0 0 0 
0 0 0 0 0 0 0 0 0 
0 0 0 0 0 0 0 0 0 
0 0 0 0 0 0 0 0 0 
0 0 0 0 0 0 0 0 0 
0 0 0 0 0 0 0 0 0 
0 0 0 0 0 0 0 0 0 
0 0 0 0 0 0 0 0 0 
0 0 0 0 0 0 0 0 0 
0 0 0 0 0 0 0 0 0 
0 0 0 0 0 0 0 0 0 
0 0 0 0 0 0 0 0 0 
0 0 0 0 0 0 0 0 0 
0 0 0 0 0 0 0 0 0 
1 0 0 0 -1 0 0 0 0 
0 0 0 0 0 0 0 0 0 
0 0 0 0 0 0 0 0 0 
0 0 0 0 0 0 0 0 0 
0 0 0 0 0 0 0 0 0 
0 0 0 0 0 0 0 0 0 
0 0 0 0 0 0 0 0 0 
0 0 0 0 0 0 0 0 0 
0 0 0 0 0 0 0 0 0 
0 0 0 0 0 0 0 0 0 
0 0 0 0 0 0 0 0 0 
0 0 0 0 0 0 0 0 0 
0 0 0 0 0 0 0 0 0 
0 0 0 0 0 0 0 0 0 
0 0 0 0 0 0 0 0 0 
0 0 0 0 0 0 0 0 0 
0 0 0 0 0 0 0 0 0 
0 0 0 0 0 0 0 0 0 
0 0 0 0 0 0 0 0 0 
0 1 0 0 0 0 0 0 0 
0 0 0 0 0 0 0 0 0 
0 0 0 0 1 0 0 0 0 
0 0 0 0 0 0 0 0 0 
0 0 0 0 0 0 0 0 0 
0 0 0 0 0 0 0 0 0 
0 0 0 0 0 0 0 0 0 
0 0 0 0 0 0 0 0 0 
0 0 0 0 0 0 0 0 0 
0 0 0 0 0 0 0 0 0 
0 0 0 0 0 0 0 0 0 
0 0 0 0 0 0 0 0 0 
0 0 0 0 0 0 0 0 0 
0 0 0 0 0 0 0 0 0 
0 0 0 0 0 0 0 0 0 
0 0 0 0 0 0 0 0 0 
0 0 0 0 0 0 0 0 0 
0 0 0 0 0 0 0 0 0 
0 0 0 0 0 0 0 0 0 
0 0 0 -1 0 0 0 0 0 
0 0 0 -1 0 0 0 0 0 
0 0 0 0 0 0 0 0 0 
0 0 0 0 0 0 0 0 0 
0 0 0 0 0 0 0 0 0 
0 0 0 0 0 0 0 0 0 
0 0 0 0 0 0 0 0 0 
0 0 0 0 0 0 0 0 0 
0 0 0 0 0 0 0 0 0 
0 0 0 0 0 0 0 0 0 
0 0 0 0 0 0 0 0 0 
0 0 0 0 0 0 0 0 0 
0 0 0 0 0 0 0 0 0 
0 0 0 0 0 0 0 0 0 
0 0 0 0 0 0 0 0 0 
0 0 0 0 0 0 0 0 0 
0 0 0 0 0 0 0 0 0 
0 0 0 0 0 0 0 0 0 
1 0 0 0 0 0 0 0 0 
0 0 0 0 0 0 0 0 0 
1 0 0 0 0 0 0 0 0 
0 0 0 0 0 0 0 0 0 
0 0 0 0 0 0 0 0 0 
0 0 0 0 0 0 0 0 0 
0 0 0 0 0 0 0 0 0 
0 0 0 0 0 0 0 0 0 
0 0 0 0 0 0 0 0 0 
0 0 0 0 0 0 0 0 0 
0 0 0 0 0 0 0 0 0 
0 0 0 0 0 0 0 0 0 
0 0 0 0 0 0 0 0 0 
0 0 0 0 0 0 0 0 0 
0 0 0 0 0 0 0 0 0 
0 0 0 0 0 0 0 0 0 
0 0 0 0 0 0 0 0 0 
0 0 0 0 0 0 0 0 0 
0 0 0 0 0 0 0 0 0 
0 0 0 0 0 0 0 0 0 
0 0 0 0 0 0 0 0 0 
0 0 0 0 0 0 0 0 0 
0 0 0 0 0 0 0 0 0 
0 0 0 0 0 0 0 0 0 
0 0 0 1 0 0 0 0 0 
0 0 0 0 0 0 0 0 0 
0 0 0 0 0 0 0 0 0 
0 0 0 0 0 0 0 0 0 
0 0 0 0 0 0 0 0 0 
0 0 0 0 0 0 0 0 0 
0 0 0 0 0 0 0 0 0 
0 0 0 0 0 0 0 0 0 
0 0 0 0 0 0 0 0 0 
0 0 0 0 0 0 0 0 0 
0 0 0 0 0 0 0 0 0 
0 0 0 0 0 0 0 0 0 
0 0 0 0 0 0 0 0 0 
0 0 0 0 0 0 0 0 0 
-1 0 0 0 0 0 0 0 0 
0 0 0 0 0 0 0 0 0 
0 0 0 0 0 0 0 0 0 
0 0 0 0 0 0 0 0 0 
0 0 0 0 0 0 0 -1 0 
0 0 0 0 0 0 0 0 0 
0 0 0 0 0 0 0 0 0 
0 0 0 0 0 0 0 0 0 
0 0 0 0 0 0 0 0 0 
0 0 0 0 0 0 0 0 0 
0 0 0 0 0 0 0 0 0 
0 0 0 0 0 0 0 0 0 
0 0 0 0 -1 0 0 0 0 
0 -1 0 0 0 0 0 0 0 
0 -1 0 0 0 0 0 0 0 
0 0 0 0 0 0 0 0 0 
0 0 0 0 0 0 0 0 0 
0 0 0 0 -1 0 0 0 0 
0 0 0 0 0 0 0 0 0 
0 0 0 0 0 0 0 0 0 
0 0 0 0 0 0 0 0 0 
0 0 0 0 0 0 0 0 0 
-1 0 0 0 -1 0 -1 0 0 
0 0 0 0 0 0 0 0 0 
0 0 0 0 0 0 0 0 0 
0 0 0 0 0 0 0 0 0 
0 0 0 0 0 0 0 0 0 
0 0 0 0 0 0 0 0 0 
0 0 0 0 0 0 0 0 0 
0 0 0 0 0 0 0 0 0 
0 0 0 0 0 0 0 0 0 
0 0 0 0 0 0 0 0 0 
0 0 0 0 0 0 0 0 0 
0 0 0 0 0 0 0 0 0 
0 0 0 0 0 0 0 0 0 
0 0 0 0 0 0 0 0 0 
0 0 0 0 0 0 0 1 0 
0 1 0 0 0 0 0 0 0 
0 0 0 0 0 0 0 0 0 
0 0 0 0 0 0 0 0 0 
0 0 0 0 0 0 0 0 0 
0 0 0 0 0 0 0 0 0 
0 0 0 0 0 0 0 0 0 
0 0 0 0 0 0 0 0 0 
0 0 0 1 0 0 0 0 0 
0 0 0 0 0 0 0 0 0 
0 0 0 0 0 0 0 0 0 
0 0 0 0 0 0 0 0 0 
0 0 0 0 0 0 0 0 0 
0 0 0 0 0 0 0 0 0 
0 0 0 0 0 0 0 0 0 
0 0 0 0 0 0 0 0 0 
0 0 0 0 0 0 0 0 0 
0 0 0 0 0 0 0 0 0 
0 0 0 0 0 0 0 0 0 
0 0 0 0 0 0 0 0 0 
0 0 0 0 0 0 -1 0 0 
0 0 0 0 0 0 0 0 0 
0 0 0 0 0 0 0 0 0 
0 0 0 0 0 0 0 0 0 
0 0 0 0 0 0 0 0 0 
0 0 0 0 0 0 0 0 0 
0 0 0 0 0 0 0 0 0 
0 0 0 0 0 0 0 0 0 
0 0 0 0 0 0 0 0 0 
0 0 0 0 0 0 0 0 0 
0 0 0 0 0 0 0 0 0 
0 0 0 0 0 0 0 0 0 
0 0 0 0 0 0 0 0 0 
0 0 0 0 0 0 0 0 0 
0 0 0 0 0 0 0 0 0 
0 0 0 0 0 0 0 0 0 
0 0 0 0 0 0 0 0 0 
0 0 0 0 0 0 0 0 0 
0 0 0 0 0 0 0 0 0 
0 0 0 0 0 0 0 0 0 
0 0 0 0 0 0 0 0 0 
0 0 0 0 0 0 0 0 0 
0 0 0 0 0 0 0 0 0 
0 0 0 0 0 0 0 0 0 
0 0 0 0 0 0 0 0 0 
0 0 0 0 0 0 0 0 0 
0 0 0 0 0 0 0 0 0 
0 0 0 0 0 0 1 0 0 
0 0 0 0 0 0 0 0 0 
0 0 0 0 0 0 0 0 0 
0 0 0 0 0 0 0 0 0 
0 0 0 0 0 0 0 0 0 
0 0 0 0 0 0 0 0 0 
0 0 0 0 0 0 0 0 0 
0 0 0 0 0 0 0 0 0 
0 0 0 0 0 0 0 0 0 
0 0 0 0 0 0 0 0 0 
0 0 0 0 0 0 0 0 0 
0 0 0 0 0 0 0 0 0 
0 0 0 0 0 0 0 0 0 
0 0 0 0 0 0 0 0 0 
0 0 0 0 0 0 0 0 0 
0 0 0 0 0 0 0 0 0 
0 0 0 0 0 0 0 0 0 
0 0 0 0 0 0 1 0 0 
0 0 0 0 -1 0 0 0 0 
0 0 0 0 0 0 0 0 0 
0 0 0 0 0 0 0 0 0 
0 0 0 0 0 0 0 0 0 
0 0 0 0 -1 0 0 0 0 
0 0 0 0 0 0 0 0 0 
0 0 0 0 0 0 0 0 0 
0 0 0 0 0 0 0 0 0 
0 0 0 0 0 0 0 0 0 
0 0 0 0 0 0 0 0 0 
0 0 0 0 0 0 0 0 0 
0 0 0 0 0 0 0 0 0 
0 0 0 0 0 0 0 0 0 
0 0 0 0 0 0 0 0 0 
0 0 0 0 0 0 0 0 0 
0 0 0 0 0 0 0 0 0 
0 0 0 0 0 0 0 0 0 
0 0 0 0 0 0 0 0 0 
0 0 0 0 0 0 0 0 0 
0 0 0 0 0 0 0 0 0 
0 1 0 0 0 0 0 0 0 
0 0 0 0 0 0 0 0 0 
0 0 0 0 0 0 0 0 0 
0 0 0 0 0 0 0 0 0 
0 0 0 0 0 0 0 0 0 
0 0 0 0 0 0 0 0 0 
0 0 0 0 0 0 0 0 0 
0 0 0 0 0 0 0 0 0 
0 1 0 0 0 0 0 0 0 
0 0 0 0 0 0 0 0 0 
0 0 0 0 0 0 0 0 0 
0 0 0 0 0 0 0 0 0 
0 0 0 0 0 0 0 0 0 
0 0 0 0 0 0 0 0 0 
0 0 0 0 0 0 0 0 0 
0 0 0 0 0 0 0 0 0 
0 0 0 0 0 0 0 0 0 
0 0 0 0 0 0 0 0 0 
0 0 0 0 0 0 0 0 0 
0 0 0 0 0 0 0 0 0 
0 0 0 0 0 0 0 0 0 
0 0 0 0 0 0 0 0 0 
0 0 0 0 0 0 0 0 0 
0 0 0 0 0 0 0 0 0 
0 0 0 0 0 0 0 0 0 
0 0 0 0 0 0 0 0 0 
0 0 0 0 0 0 0 0 0 
0 0 0 0 0 0 0 0 0 
0 0 0 0 0 0 0 0 0 
0 0 0 0 0 0 0 0 0 
0 0 0 0 0 0 0 0 0 
0 0 0 0 0 0 0 0 0 
0 0 0 0 0 0 0 0 0 
0 0 0 0 0 0 0 0 0 
0 0 0 0 0 0 0 0 0 
0 0 0 0 0 0 0 0 0 
0 0 0 0 0 0 0 0 0 
0 0 0 0 0 0 0 0 0 
0 0 0 0 0 0 0 0 0 
0 0 0 0 0 0 0 0 0 
0 0 0 0 0 0 0 0 0 
0 0 0 0 0 0 0 0 0 
0 0 0 0 0 0 0 0 0 
0 0 0 0 0 0 0 0 0 
0 0 0 0 0 0 0 0 0 
-1 0 0 0 0 0 0 0 0 
0 0 0 0 0 0 0 0 0 
0 0 0 0 0 0 0 0 0 
0 0 0 0 0 0 0 0 0 
0 0 0 0 0 0 0 0 0 
0 0 0 0 0 0 0 0 0 
0 0 0 0 0 0 0 0 0 
0 0 0 0 0 0 0 0 0 
0 0 0 0 0 0 0 0 0 
0 0 0 0 0 0 0 0 0 
0 0 0 0 0 0 0 0 0 
0 0 0 0 0 0 0 0 0 
0 0 0 0 0 0 0 0 0 
0 0 0 0 0 0 0 0 0 
0 0 0 0 0 0 0 0 0 
0 0 0 0 0 0 0 0 0 
0 0 0 0 0 0 0 0 0 
0 0 0 0 0 0 0 0 0 
0 0 0 0 0 0 0 0 0 