# vtk DataFile Version 4.0
Generated by LIGGGHTS
ASCII
DATASET POLYDATA
POINTS 1577 float
-85.3457 -85.1638 9.99893 -88.5074 -63.6838 9.99926 -72.1425 -100.421 9.99726 
-102.561 -95.3408 9.99778 -89.3358 -110.934 9.99863 -70.309 -71.978 9.99974 
-88.3132 -70.5367 28.7862 -106.89 -71.5583 9.99845 -74.1679 -59.6675 37.8837 
-96.4871 -88.7667 27.8815 -72.9755 -84.1408 25.6797 -102.734 -59.5737 37.3873 
-60.856 -100.028 26.4995 -81.2667 -76.1923 46.628 -91.438 -109.336 29.8219 
-62.2669 -75.8532 40.3967 -101.019 -78.2649 44.287 -108.619 -111.653 19.8532 
-84.6527 -95.4744 42.5412 -109.117 -105.727 38.946 -66.7077 -103.885 45.228 
-91.1755 -60.3172 53.6895 -68.7343 -87.8359 56.9866 -105.852 -94.385 55.0894 
-57.1235 -87.0155 9.99943 -55.9906 -60.2565 29.5668 -14.4454 -76.8069 27.1724 
-10.0992 -86.3656 9.99974 -30.3721 -104.813 9.99761 -34.0018 -85.1094 9.99973 
-0.483308 -97.9442 25.3962 -13.311 -66.6244 9.99797 -47.7808 -77.9603 25.1883 
-41.1754 -96.8886 24.8426 -50.9619 -106.042 9.99847 -10.0708 -106.365 9.99803 
-31.4334 -83.1398 35.6109 -49.5539 -91.1968 42.0854 -31.3563 -66.6104 24.004 
-32.9678 -103.129 41.9781 -20.3524 -95.7596 24.7484 -14.2237 -78.0739 47.1306 
-11.2927 -98.6424 42.3431 -31.3187 -67.7758 48.4106 -32.6052 -87.9456 54.9884 
-49.0669 -107.225 54.0348 -12.5828 -59.7884 39.1985 -48.6335 -75.9791 55.0294 
11.5396 -93.6699 9.99756 4.57165 -78.7044 21.2852 29.2685 -68.8937 17.0759 
54.842 -92.4437 24.8196 39.0957 -84.8104 9.99961 46.2765 -61.1088 9.99831 
49.6306 -72.0834 26.3756 11.3173 -63.6404 9.99651 28.4063 -101.39 17.4698 
46.8637 -103.24 9.9976 3.20314 -85.0246 40.2076 12.4354 -113.125 14.7883 
20.0014 -76.2106 33.7618 10.3816 -59.2095 29.4749 36.1993 -87.2839 29.895 
37.2918 -70.3574 42.0182 13.0711 -107.334 36.7125 33.0173 -105.928 36.392 
52.8946 -107.206 38.1684 44.1849 -91.8962 47.6415 25.5285 -83.3964 51.5886 
55.6504 -62.2896 44.561 4.53731 -66.4201 47.4206 0.581193 -109.307 54.3946 
23.5591 -103.755 53.8769 59.8228 -81.4816 40.7868 58.3886 -79.4976 9.99712 
110.717 -85.7357 19.5332 85.3299 -84.6233 9.99743 86.0471 -103.324 17.0472 
66.4791 -63.6239 19.0786 71.9431 -82.0775 24.6345 85.9138 -66.8389 22.5635 
68.3298 -97.2702 9.99973 101.088 -70.2759 9.99879 104.731 -102.263 9.99777 
70.7146 -103.506 29.8825 105.906 -68.9984 29.3673 92.8841 -84.6133 28.5139 
101.095 -103.021 30.2162 78.0608 -71.3816 40.3859 85.7354 -88.7248 46.7317 
106.034 -70.7399 49.2906 110.018 -87.6736 39.4249 90.9619 -107.725 50.1438 
67.822 -97.9324 48.8689 102.318 -92.8207 57.1499 72.2582 -59.8513 55.6604 
-57.6521 -56.4935 9.99751 -111.463 -54.8689 20.0222 -101.603 -9.24142 22.3742 
-97.5806 -24.4256 9.99775 -82.4941 -32.3512 20.4626 -67.1288 -22.9643 9.99973 
-88.8376 -0.0922405 9.99603 -62.316 -7.55621 23.2349 -97.0772 -45.2522 9.99812 
-88.2385 -50.2756 27.2194 -113.042 -35.2163 16.6661 -75.9763 -48.0986 9.99827 
-61.9664 -40.4939 22.0741 -81.8292 -11.6855 24.7039 -110.528 -12.5765 39.9562 
-68.3256 -24.4243 32.1388 -81.5864 -12.802 44.668 -99.6987 -27.8113 29.5944 
-82.5073 -36.0964 40.1084 -68.6005 -45.564 50.9234 -101.031 -35.5021 48.008 
-59.8752 -14.0802 47.0243 -111.036 -53.2031 54.4302 -102.884 -5.11079 56.8592 
-54.2457 -36.2338 40.0236 -27.479 -10.4596 9.99855 -50.8166 -23.8918 22.2859 
-9.04102 -30.0574 9.99971 -33.967 -52.5736 9.99908 -17.9676 -51.2643 21.9268 
-2.10517 -48.8157 9.99785 -37.6462 -9.6563 27.2808 -7.36958 -10.1278 9.99739 
-47.337 -6.94849 9.99828 -22.5656 -28.8897 24.6868 -4.08274 -18.0765 28.0497 
-36.1195 -29.6384 9.99946 -4.25627 -1.18699 38.7546 -37.0263 -26.1726 38.54 
-10.7853 -32.1045 40.6281 -42.1805 -41.7761 24.6941 -43.7541 -52.8859 43.5609 
-27.0187 -43.4765 37.9675 -20.7642 -14.5324 38.4952 -38.6913 -12.0893 52.6402 
-21.9297 -24.8701 55.5749 -22.467 -0.395876 52.5384 -6.47545 -12.0596 55.391 
-18.3963 -0.307333 24.6398 22.9123 -56.7543 44.8665 1.64818 -37.0986 25.7627 
49.9624 -10.1755 25.576 49.2773 -33.6893 20.8928 15.6904 -16.0643 25.8344 
16.9953 -45.4344 16.0191 12.5579 -4.25816 9.99893 38.2975 -19.7003 9.99926 
36.0085 -43.9469 9.99881 10.8121 -27.2777 9.99973 32.5229 -0.535223 9.99744 
33.7674 -24.0113 28.9954 7.8653 -24.5255 42.7343 2.30259 -47.0189 43.1149 
32.3488 -52.2958 27.8001 52.3468 -52.2939 27.5569 50.7167 -20.0738 42.9376 
20.2017 -37.7563 34.2057 31.3191 -4.17393 29.6239 19.0365 -8.08064 44.9148 
43.4923 -38.3939 39.45 15.4071 -38.7505 55.7578 28.7754 -25.9018 48.2673 
38.1444 -6.54888 50.6168 36.437 -47.1138 56.0075 92.5822 -56.2486 38.1615 
113.173 -42.3621 35.2595 58.2962 -19.5493 9.9986 61.6787 -44.9764 9.99872 
83.306 -0.882837 25.9609 100.071 -49.5506 9.99796 75.4486 -38.1286 23.2104 
96.9135 -29.748 9.9981 71.7628 -4.32201 9.99763 80.2701 -52.3433 9.99694 
77.9721 -23.3322 9.99614 69.2395 -15.7005 26.289 107.995 -16.8468 20.5186 
93.5404 -7.26649 9.99973 63.2084 -35.1153 38.7336 71.0431 -53.2416 35.5507 
89.1066 -20.0197 26.2721 95.0398 -39.6599 27.2659 72.0818 -3.95713 42.2248 
84.1691 -20.4567 45.645 102.627 -25.9746 39.7501 97.6306 -6.6374 38.6734 
80.9357 -40.1475 46.9803 100.439 -42.5805 50.6789 104.34 -14.2874 55.8885 
65.5562 -16.9312 55.9748 -105.845 16.0336 26.5326 -69.644 5.52117 9.99788 
-98.6193 24.6565 9.99848 -78.8332 27.5683 9.99669 -84.1033 13.8349 23.5433 
-64.5107 41.5258 9.99898 -80.1854 48.6383 21.0395 -96.734 46.5799 9.99945 
-108.17 5.02937 9.99748 -72.9741 3.1932 36.3045 -92.9094 1.64224 36.7239 
-92.9158 31.2159 28.035 -67.8031 44.4848 41.5661 -72.9893 29.8281 28.9871 
-108.695 10.2641 45.4665 -105.831 46.4827 27.8591 -100.617 28.5703 46.3007 
-64.5721 24.6105 46.3599 -83.4298 18.9406 42.8664 -88.6805 47.3296 39.0979 
-62.94 5.95569 53.3821 -61.4097 54.1003 25.2371 -60.575 14.5173 25.3837 
-80.8117 39.7678 56.0059 -84.9259 3.60178 55.6105 -51.5525 1.41475 37.5043 
-29.1781 55.3442 9.99641 -54.0352 35.5334 26.1408 -19.8787 13.2338 9.99838 
-25.6677 22.848 26.5521 -41.4233 54.517 25.7866 -51.9192 23.9166 9.99892 
-44.4933 42.4856 9.99976 -25.1271 34.1184 9.99973 -1.81997 7.79482 16.9239 
-38.7235 10.1025 15.9179 -4.75873 26.3238 9.9968 -8.53011 52.6139 9.99973 
-31.6666 39.8364 35.2343 -5.97447 26.1423 29.9555 -46.4924 21.2236 37.8982 
-9.87636 45.7337 29.0015 -15.1262 36.4222 45.9619 -32.3855 7.08694 36.8692 
-30.4364 23.9884 49.4948 -12.7109 15.6082 45.5616 -48.8101 39.3858 45.9445 
-31.1833 42.8933 55.9728 52.3413 2.13915 9.99855 15.3799 15.5477 9.99974 
38.3148 41.3655 23.4316 23.7853 26.6942 24.3246 51.3875 34.4008 9.99709 
51.2412 19.8766 23.7434 23.8299 44.4619 9.99753 36.4966 20.9284 9.99961 
6.54134 40.1116 19.061 12.937 3.69954 29.7858 20.7466 44.7524 32.3662 
45.9806 6.67618 37.8245 26.7436 10.2693 42.6783 7.99627 18.6324 42.1363 
43.1401 29.8607 39.0606 24.1798 29.9132 45.4188 43.852 51.2663 39.8997 
4.35473 38.4081 41.9038 50.9092 23.7293 56.437 27.1389 48.6637 51.7106 
4.70675 54.8862 55.6021 6.28217 3.47431 55.1009 56.4761 0.787339 53.7982 
112.657 39.8374 53.7934 113.684 37.0485 9.99861 57.5658 38.8191 28.497 
104.686 3.54312 22.9728 93.193 19.6484 25.8885 65.5163 17.1855 9.99889 
109.288 31.2024 28.6112 84.5672 11.0999 9.99883 104.031 54.5638 9.99898 
64.1308 53.0992 9.9996 105.311 18.7835 9.99973 93.7155 35.0784 9.99952 
74.0252 25.2211 27.1223 63.9519 4.61692 26.0907 73.7213 35.549 9.99909 
89.321 39.0002 29.1278 77.9035 29.1131 46.3719 104.806 48.5095 37.5724 
62.5032 17.3449 41.4462 73.3026 50.4792 32.5383 101.166 23.362 45.1187 
86.1958 10.4263 42.1999 84.1261 52.6288 9.99823 62.3833 42.766 47.5022 
101.881 5.47253 54.0307 92.6675 40.4338 53.7062 -60.0426 104.14 9.99876 
-98.3687 99.4697 16.6925 -65.8818 82.7316 9.99814 -70.5936 63.2266 9.99733 
-73.3232 112.542 23.9538 -102.943 81.1881 9.9993 -90.4547 65.5684 9.99734 
-108.486 63.9501 18.4914 -70.5378 73.5319 27.1349 -102.348 82.1206 32.2906 
-79.5249 99.6291 9.99779 -88.7152 65.0956 29.9138 -86.2343 84.0621 20.6064 
-106.825 63.6171 38.4174 -107.074 102.809 34.4917 -71.894 87.5416 41.3422 
-87.6635 98.0068 34.8693 -89.03 76.7068 46.1941 -74.4565 63.2104 43.8084 
-83.3438 113.112 47.2455 -59.7131 92.5475 26.2926 -104.512 90.8289 50.2999 
-85.2991 94.5485 54.4239 -60.9029 101.131 51.0631 -55.3268 110.374 34.2269 
-4.58713 88.2026 24.4807 -1.84858 101.722 9.99934 -15.3785 79.6092 9.99973 
-21.5348 105.247 9.99906 -26.0176 90.6882 22.9572 -34.1395 73.4507 16.8833 
-50.4043 63.9977 9.99973 -41.2845 105.698 16.7532 -4.79767 68.2882 22.6503 
-8.3668 111.778 27.315 -46.476 87.6043 9.99835 -32.6401 59.7367 45.2921 
-27.7766 108.878 31.1523 -22.6633 61.0788 28.012 -33.022 77.6464 36.4037 
-50.5877 72.6828 28.2324 -42.0408 95.4552 35.1901 -23.8392 90.4685 48.6981 
-13.1193 76.8806 38.6773 -52.4158 58.7506 42.4823 -12.2151 57.8342 44.7517 
-53.0424 82.3627 45.5604 -14.9783 108.9 46.5208 -35.286 106.796 50.2137 
-3.93343 92.3818 48.7935 -36.9542 76.0999 55.9516 44.2309 57.2091 9.99872 
55.3045 60.598 26.3045 25.7877 72.0761 9.99844 32.0595 102.09 9.9978 
45.5531 77.5233 9.99973 11.7879 59.1914 16.1609 51.3628 96.8647 9.99911 
15.44 94.5803 18.1988 32.5694 85.5246 23.1555 6.84623 78.4952 9.99578 
44.3941 110.204 23.4873 7.10579 101.661 34.9396 27.3581 103.512 31.5457 
15.391 76.482 27.9621 48.7311 92.4405 32.6909 31.3077 60.0507 24.994 
5.70716 57.4814 35.7969 20.9539 88.4259 43.0074 42.1556 71.1027 37.647 
55.7285 103.504 47.8107 5.65487 75.0926 45.3743 36.0278 107.029 49.2209 
23.5272 66.3905 43.1896 34.2378 78.9039 54.5334 55.486 79.2305 50.1425 
15.8005 105.864 52.4507 45.9017 62.7387 56.1503 112.311 108.611 51.9895 
62.7049 79.1458 27.4015 90.8056 58.8985 27.7742 65.9567 110.676 9.99973 
95.8029 105.73 27.3537 79.1505 94.8532 25.2603 105.806 75.7773 9.99757 
68.7293 86.948 9.99978 88.7122 86.1571 9.99874 105.734 105.551 9.99706 
77.0146 70.0514 16.7696 85.7397 105.965 9.99706 110.456 90.6755 22.5011 
86.2789 77.7332 32.7432 104.71 93.4036 41.4598 63.0559 105.993 29.3594 
105.342 72.4963 29.7196 109.096 75.4038 49.1463 86.2187 63.4181 46.7077 
86.7137 101.518 44.6616 70.0864 90.6057 42.5725 65.812 62.4532 46.6973 
[...]
POINT_DATA 1577
FIELD FieldData 7
id 1 1577 int
96 161 204 266 280 295 360 366 32 
37 43 200 145 9 235 300 371 34 
309 334 193 362 555 587 172 21 3 
130 181 206 217 240 274 305 313 356 
64 124 136 330 346 13 273 184 354 
1243 326 1181 5 51 70 78 84 119 
142 227 262 263 139 125 158 175 283 
365 40 347 246 162 377 103 1530 1076 
1244 41 272 95 97 151 167 250 253 
256 303 333 16 76 169 277 350 109 
120 260 291 322 1305 453 231 118 35 
68 73 106 111 153 205 289 293 320 
338 348 81 112 159 234 302 10 186 
223 290 261 147 11 22 44 65 94 
128 152 155 164 232 288 294 8 93 
100 335 173 91 304 221 247 1436 683 
323 66 357 18 20 24 27 79 80 
117 329 122 47 90 170 265 298 321 
352 59 315 98 75 194 195 1371 229 
299 249 218 56 87 104 121 188 192 
201 284 286 358 113 138 163 254 83 
63 144 244 267 370 1412 528 36 67 
99 108 137 226 233 331 351 312 134 
212 239 281 285 363 2 189 197 241 
279 287 14 215 711 171 19 72 82 
178 230 252 297 310 314 372 31 242 
1 185 208 101 38 116 85 191 359 
332 336 114 127 176 199 269 328 367 
373 42 102 150 196 306 48 238 258 
168 17 209 641 30 143 224 236 49 
140 45 123 149 210 213 219 222 245 
248 255 364 50 60 154 177 308 325 
278 88 110 344 156 7 15 28 57 
129 198 203 216 275 316 327 4 126 
228 270 69 133 141 157 376 131 1271 
1505 165 26 61 132 146 182 183 202 
292 339 341 355 378 23 160 180 243 
259 296 12 55 58 135 220 301 375 
1479 1459 311 174 39 46 62 89 148 
179 282 340 349 25 71 77 92 317 
337 33 86 211 307 264 318 343 369 
410 1542 696 225 166 268 29 53 54 
214 257 271 353 361 374 52 251 319 
324 115 187 237 276 345 74 934 680 
342 1443 411 701 798 1100 1482 1571 889 
1235 1307 1320 1091 539 643 726 1231 1203 
1067 1208 1390 737 1535 541 566 769 828 
1343 1553 509 1166 1551 995 423 710 1554 
1023 383 508 1239 397 1501 1171 735 1028 
417 746 515 707 1417 1152 412 546 973 
1103 1230 401 621 876 989 603 1400 393 
679 1386 960 1007 517 790 1421 628 606 
1281 1176 435 1288 725 682 1204 368 745 
1207 627 740 970 1049 481 1154 1190 1238 
1002 1223 636 1282 1356 1574 1306 386 1502 
1089 610 589 1321 6 916 1098 1205 1477 
644 821 1145 601 384 504 608 536 732 
810 850 691 1013 985 1368 519 1556 875 
482 530 1295 1011 777 105 1012 1532 429 
448 611 624 785 1155 629 1111 1259 1350 
409 1085 488 460 1322 1380 1444 674 1032 
660 767 1025 1512 522 1031 1253 1339 1511 
1003 808 545 793 1358 1391 605 917 1340 
503 1150 553 404 998 908 418 1168 107 
1180 1414 434 442 915 1005 1118 1328 531 
775 1269 507 562 1541 585 1372 1074 1336 
381 449 1529 961 812 706 612 1066 1264 
1285 616 1251 1327 1338 426 607 1133 1470 
602 860 866 895 950 939 1383 1447 1538 
708 1220 794 878 884 948 1009 1222 390 
838 1174 1189 1330 1428 1573 431 395 811 
1192 560 1299 1513 661 668 854 430 671 
1108 190 946 958 1053 559 1058 1157 768 
1063 1153 1504 547 1062 475 604 880 999 
1355 637 1258 748 1186 971 450 1040 457 
405 398 1575 1000 1266 1200 403 474 1156 
1430 1514 897 1046 996 1104 758 979 387 
1276 1043 1008 1114 1345 596 1309 1500 714 
997 677 1387 207 712 1394 413 780 836 
1075 416 1134 1273 1409 852 535 446 1377 
440 1527 1404 752 1468 584 1318 1381 565 
982 935 1047 1165 1233 529 532 689 1035 
1467 394 666 1130 975 1090 1373 1454 498 
987 1015 1315 675 1014 1101 779 890 1021 
1248 1485 543 485 1106 1374 486 1036 439 
1037 762 945 1296 391 1480 1092 1488 1228 
518 1123 1286 871 664 830 1446 1543 952 
638 631 736 757 1478 663 669 734 867 
1518 763 1170 1197 1520 525 665 1010 428 
902 1439 1099 802 1139 493 658 548 1369 
1473 402 1278 1310 649 1162 537 833 926 
716 1127 1362 1389 676 1547 1352 595 865 
1177 1277 1438 1017 623 913 814 981 639 
1549 1054 1218 516 791 807 1084 573 479 
1071 672 1080 1342 1254 885 1060 803 953 
1242 1528 520 888 909 1316 750 1050 630 
634 1016 686 1385 549 1135 1427 462 459 
1562 396 1496 1121 1148 809 978 1333 877 
896 468 1365 651 692 656 764 1044 1142 
1143 1138 1216 437 1457 659 931 1303 1540 
1126 1261 1120 1301 1533 967 776 385 380 
730 1024 433 1202 1357 577 1265 1324 1415 
1495 864 1132 1308 1526 969 1225 1030 1476 
1183 1312 572 813 957 747 874 1199 438 
494 502 1566 1422 943 1169 1237 513 1392 
1397 826 1167 1370 1440 642 408 1039 569 
1088 632 744 1319 1004 955 694 940 1313 
1045 788 1279 1419 1522 420 443 618 1226 
1366 1423 801 755 1052 894 919 427 1006 
1497 1367 1570 540 590 1105 491 815 1424 
893 1462 883 1051 1094 1236 1406 526 731 
844 954 717 1247 1072 719 1093 501 538 
1469 1149 715 781 1344 907 554 455 1095 
521 556 901 389 968 1112 1363 693 1534 
593 579 1402 753 900 1292 1326 461 609 
1249 399 424 1283 1332 1137 699 456 1113 
447 533 824 1274 831 870 1379 990 1448 
818 984 1160 1539 690 495 843 1182 891 
1503 463 1131 795 640 452 1359 796 842 
941 1102 1193 1109 567 1083 937 966 1210 
721 688 1256 1082 832 839 848 704 487 
741 879 1079 1472 1563 622 856 1163 1524 
1115 1187 822 933 1458 534 662 1567 400 
484 1393 1061 1198 477 903 524 1195 1460 
392 552 770 697 723 1097 928 1317 1196 
1275 1449 489 678 976 613 1164 1334 1499 
1260 419 1246 473 751 841 1471 1569 673 
414 1270 906 464 1078 684 782 432 861 
938 1486 506 1019 1565 1214 892 1284 965 
1224 600 1490 787 817 918 1122 1560 1335 
574 1212 1418 772 1250 1521 783 514 564 
834 1413 646 1410 1349 1376 863 930 925 
1323 670 1401 1405 421 576 1188 1361 923 
1206 1398 1525 1353 592 904 470 561 724 
921 1559 1561 1055 1411 786 1287 1116 1209 
1022 729 422 862 1136 1341 1346 1576 705 
1433 625 784 1298 1523 944 597 653 1129 
929 703 805 648 1442 1184 980 727 759 
1509 1048 480 1140 1128 1178 568 718 1407 
1550 756 872 1297 1426 1519 920 1219 1557 
379 792 835 857 695 853 1234 1147 749 
1536 542 466 527 1396 949 1179 932 591 
1348 1027 1211 582 655 1494 774 406 882 
483 1572 1069 914 887 436 1117 425 1020 
1498 647 911 1241 956 492 1158 570 1293 
557 1300 1077 472 1268 1429 575 709 451 
972 1262 1475 490 1034 1304 687 1213 1517 
1029 1435 804 1018 1065 1506 1548 511 1291 
881 1245 496 974 1257 761 571 827 1314 
1481 415 733 816 1552 620 1172 992 1096 
1546 1445 849 558 1280 845 1420 594 458 
959 1489 986 1229 1059 1289 617 588 1151 
868 469 851 619 497 444 512 1119 1227 
578 1001 983 1492 599 1107 1073 654 778 
563 1070 500 1453 1466 583 1491 963 1125 
1455 550 837 1451 1510 829 988 523 742 
1388 700 898 1042 1191 922 1378 1431 635 
720 1141 1441 1463 1465 551 1068 1564 912 
1057 994 645 825 1483 1232 467 1311 615 
722 633 1375 1351 899 1484 685 1215 1452 
1252 993 681 1144 471 1087 1173 1555 478 
977 760 806 1201 1416 698 454 1064 1026 
598 947 1159 1185 1240 964 754 886 1110 
936 586 927 1294 441 1161 657 1434 1487 
1461 1331 962 1493 445 820 581 991 1329 
799 1033 765 1325 1558 766 739 1456 580 
1516 1408 1086 702 823 869 1384 1272 773 
614 1464 1255 1537 626 1395 1263 388 1038 
910 1577 1360 1507 924 650 743 951 1425 
819 797 847 738 1217 1544 1124 1474 1337 
1175 1403 1354 855 652 1382 771 1545 407 
1568 1081 873 858 544 667 1515 499 859 
1056 1290 1531 1364 1267 713 382 1399 1437 
789 800 1432 1221 728 905 1302 510 505 
1347 1450 476 846 840 1146 465 1508 942 
1194 1041 
type 1 1577 int
1 1 1 1 1 1 1 1 1 
1 1 1 1 1 1 1 1 1 
1 1 1 1 1 1 1 1 1 
1 1 1 1 1 1 1 1 1 
1 1 1 1 1 1 1 1 1 
1 1 1 1 1 1 1 1 1 
1 1 1 1 1 1 1 1 1 
1 1 1 1 1 1 1 1 1 
1 1 1 1 1 1 1 1 1 
1 1 1 1 1 1 1 1 1 
1 1 1 1 1 1 1 1 1 
1 1 1 1 1 1 1 1 1 
1 1 1 1 1 1 1 1 1 
1 1 1 1 1 1 1 1 1 
1 1 1 1 1 1 1 1 1 
1 1 1 1 1 1 1 1 1 
1 1 1 1 1 1 1 1 1 
1 1 1 1 1 1 1 1 1 
1 1 1 1 1 1 1 1 1 
1 1 1 1 1 1 1 1 1 
1 1 1 1 1 1 1 1 1 
1 1 1 1 1 1 1 1 1 
1 1 1 1 1 1 1 1 1 
1 1 1 1 1 1 1 1 1 
1 1 1 1 1 1 1 1 1 
1 1 1 1 1 1 1 1 1 
1 1 1 1 1 1 1 1 1 
1 1 1 1 1 1 1 1 1 
1 1 1 1 1 1 1 1 1 
1 1 1 1 1 1 1 1 1 
1 1 1 1 1 1 1 1 1 
1 1 1 1 1 1 1 1 1 
1 1 1 1 1 1 1 1 1 
1 1 1 1 1 1 1 1 1 
1 1 1 1 1 1 1 1 1 
1 1 1 1 1 1 1 1 1 
1 1 1 1 1 1 1 1 1 
1 1 1 1 1 1 1 1 1 
1 1 1 1 1 1 1 1 1 
1 1 1 1 1 1 1 1 1 
1 1 1 1 1 1 1 1 1 
1 1 1 1 1 1 1 1 1 
1 1 1 1 1 1 1 1 1 
1 1 1 1 1 1 1 1 1 
1 1 1 1 1 1 1 1 1 
1 1 1 1 1 1 1 1 1 
1 1 1 1 1 1 1 1 1 
1 1 1 1 1 1 1 1 1 
1 1 1 1 1 1 1 1 1 
1 1 1 1 1 1 1 1 1 
1 1 1 1 1 1 1 1 1 
1 1 1 1 1 1 1 1 1 
1 1 1 1 1 1 1 1 1 
1 1 1 1 1 1 1 1 1 
1 1 1 1 1 1 1 1 1 
1 1 1 1 1 1 1 1 1 
1 1 1 1 1 1 1 1 1 
1 1 1 1 1 1 1 1 1 
1 1 1 1 1 1 1 1 1 
1 1 1 1 1 1 1 1 1 
1 1 1 1 1 1 1 1 1 
1 1 1 1 1 1 1 1 1 
1 1 1 1 1 1 1 1 1 
1 1 1 1 1 1 1 1 1 
1 1 1 1 1 1 1 1 1 
1 1 1 1 1 1 1 1 1 
1 1 1 1 1 1 1 1 1 
1 1 1 1 1 1 1 1 1 
1 1 1 1 1 1 1 1 1 
1 1 1 1 1 1 1 1 1 
1 1 1 1 1 1 1 1 1 
1 1 1 1 1 1 1 1 1 
1 1 1 1 1 1 1 1 1 
1 1 1 1 1 1 1 1 1 
1 1 1 1 1 1 1 1 1 
1 1 1 1 1 1 1 1 1 
1 1 1 1 1 1 1 1 1 
1 1 1 1 1 1 1 1 1 
1 1 1 1 1 1 1 1 1 
1 1 1 1 1 1 1 1 1 
1 1 1 1 1 1 1 1 1 
1 1 1 1 1 1 1 1 1 
1 1 1 1 1 1 1 1 1 
1 1 1 1 1 1 1 1 1 
1 1 1 1 1 1 1 1 1 
1 1 1 1 1 1 1 1 1 
1 1 1 1 1 1 1 1 1 
1 1 1 1 1 1 1 1 1 
1 1 1 1 1 1 1 1 1 
1 1 1 1 1 1 1 1 1 
1 1 1 1 1 1 1 1 1 
1 1 1 1 1 1 1 1 1 
1 1 1 1 1 1 1 1 1 
1 1 1 1 1 1 1 1 1 
1 1 1 1 1 1 1 1 1 
1 1 1 1 1 1 1 1 1 
1 1 1 1 1 1 1 1 1 
1 1 1 1 1 1 1 1 1 
1 1 1 1 1 1 1 1 1 
1 1 1 1 1 1 1 1 1 
1 1 1 1 1 1 1 1 1 
1 1 1 1 1 1 1 1 1 
1 1 1 1 1 1 1 1 1 
1 1 1 1 1 1 1 1 1 
1 1 1 1 1 1 1 1 1 
1 1 1 1 1 1 1 1 1 
1 1 1 1 1 1 1 1 1 
1 1 1 1 1 1 1 1 1 
1 1 1 1 1 1 1 1 1 
1 1 1 1 1 1 1 1 1 
1 1 1 1 1 1 1 1 1 
1 1 1 1 1 1 1 1 1 
1 1 1 1 1 1 1 1 1 
1 1 1 1 1 1 1 1 1 
1 1 1 1 1 1 1 1 1 
1 1 1 1 1 1 1 1 1 
1 1 1 1 1 1 1 1 1 
1 1 1 1 1 1 1 1 1 
1 1 1 1 1 1 1 1 1 
1 1 1 1 1 1 1 1 1 
1 1 1 1 1 1 1 1 1 
1 1 1 1 1 1 1 1 1 
1 1 1 1 1 1 1 1 1 
1 1 1 1 1 1 1 1 1 
1 1 1 1 1 1 1 1 1 
1 1 1 1 1 1 1 1 1 
1 1 1 1 1 1 1 1 1 
1 1 1 1 1 1 1 1 1 
1 1 1 1 1 1 1 1 1 
1 1 1 1 1 1 1 1 1 
1 1 1 1 1 1 1 1 1 
1 1 1 1 1 1 1 1 1 
1 1 1 1 1 1 1 1 1 
1 1 1 1 1 1 1 1 1 
1 1 1 1 1 1 1 1 1 
1 1 1 1 1 1 1 1 1 
1 1 1 1 1 1 1 1 1 
1 1 1 1 1 1 1 1 1 
1 1 1 1 1 1 1 1 1 
1 1 1 1 1 1 1 1 1 
1 1 1 1 1 1 1 1 1 
1 1 1 1 1 1 1 1 1 
1 1 1 1 1 1 1 1 1 
1 1 1 1 1 1 1 1 1 
1 1 1 1 1 1 1 1 1 
1 1 1 1 1 1 1 1 1 
1 1 1 1 1 1 1 1 1 
1 1 1 1 1 1 1 1 1 
1 1 1 1 1 1 1 1 1 
1 1 1 1 1 1 1 1 1 
1 1 1 1 1 1 1 1 1 
1 1 1 1 1 1 1 1 1 
1 1 1 1 1 1 1 1 1 
1 1 1 1 1 1 1 1 1 
1 1 1 1 1 1 1 1 1 
1 1 1 1 1 1 1 1 1 
1 1 1 1 1 1 1 1 1 
1 1 1 1 1 1 1 1 1 
1 1 1 1 1 1 1 1 1 
1 1 1 1 1 1 1 1 1 
1 1 1 1 1 1 1 1 1 
1 1 1 1 1 1 1 1 1 
1 1 1 1 1 1 1 1 1 
1 1 1 1 1 1 1 1 1 
1 1 1 1 1 1 1 1 1 
1 1 1 1 1 1 1 1 1 
1 1 1 1 1 1 1 1 1 
1 1 1 1 1 1 1 1 1 
1 1 1 1 1 1 1 1 1 
1 1 1 1 1 1 1 1 1 
1 1 1 1 1 1 1 1 1 
1 1 1 1 1 1 1 1 1 
1 1 1 1 1 1 1 1 1 
1 1 1 1 1 1 1 1 1 
1 1 1 1 1 1 1 1 1 
1 1 
i 3 1577 int
0 0 0 0 0 0 0 0 0 
0 0 0 0 0 0 0 0 0 
0 0 0 0 0 0 0 0 0 
0 0 0 0 0 0 0 0 0 
0 0 0 0 0 0 0 0 0 
0 0 0 0 0 0 0 1 0 
0 0 0 0 0 0 0 0 0 
0 0 0 0 0 0 0 0 0 
0 0 0 0 0 0 0 0 0 
0 0 0 0 0 0 0 0 0 
0 0 0 0 0 0 0 0 0 
0 0 0 0 0 0 0 0 0 
0 0 0 0 0 0 0 0 0 
0 0 0 0 0 0 0 0 0 
0 0 0 0 0 0 0 0 0 
0 0 0 0 0 0 0 0 0 
0 0 0 0 0 0 0 0 0 
0 0 0 0 0 0 0 0 0 
0 0 0 0 0 0 0 0 0 
0 0 0 0 0 0 0 0 0 
0 0 0 0 0 0 0 0 0 
0 0 0 0 0 0 0 0 0 
0 0 0 0 0 0 0 0 0 
0 0 0 0 0 0 0 0 0 
0 0 0 0 0 0 0 0 0 
0 0 0 0 0 0 0 0 0 
0 0 0 0 0 0 0 0 0 
0 0 0 0 0 0 0 0 0 
0 0 0 0 0 0 0 0 0 
0 0 0 0 0 0 0 0 0 
0 0 0 0 0 0 0 0 0 
0 0 0 0 0 0 0 0 0 
0 0 0 0 0 0 0 0 0 
0 0 0 0 0 0 0 0 0 
0 0 0 0 0 0 0 0 0 
0 0 0 0 0 0 0 0 0 
0 0 0 0 0 0 0 0 0 
0 0 0 0 0 0 0 0 0 
0 0 0 0 0 0 0 0 0 
0 0 0 0 0 0 0 0 0 
0 0 0 0 0 0 0 0 0 
0 0 0 0 0 0 0 0 0 
0 0 0 0 0 0 0 0 0 
0 0 0 0 0 0 0 0 0 
0 0 0 0 0 0 0 0 0 
0 0 0 0 0 0 0 0 0 
0 0 0 0 0 0 0 0 0 
0 0 0 0 0 0 0 0 0 
0 0 0 0 0 0 0 0 0 
0 0 0 0 0 0 0 0 0 
0 0 0 0 0 0 0 0 0 
0 0 0 0 0 0 0 0 0 
0 0 0 0 0 0 0 0 0 
0 0 0 0 0 0 0 0 0 
0 0 0 0 0 0 0 0 0 
0 0 0 0 0 0 0 0 0 
0 0 0 0 0 0 0 0 0 
-1 0 0 0 0 0 0 0 0 
0 0 0 0 0 0 0 0 0 
0 0 0 0 0 0 0 0 0 
0 0 0 0 0 0 0 0 0 
0 0 0 0 0 0 0 0 0 
0 0 0 0 0 0 0 0 0 
0 0 0 0 0 0 0 0 0 
0 0 0 0 0 0 0 0 0 
0 0 0 0 0 0 0 0 0 
0 0 0 0 0 0 0 0 0 
0 0 0 0 0 0 0 0 0 
0 0 0 0 0 0 0 0 0 
0 0 0 0 0 0 0 0 0 
0 0 0 0 0 0 0 0 0 
0 0 0 0 0 0 0 0 0 
0 0 0 0 0 0 0 0 0 
0 0 0 0 0 0 0 0 0 
0 0 0 0 0 0 0 0 0 
0 0 0 0 0 0 0 0 0 
0 0 0 0 0 0 0 0 0 
0 0 0 0 0 0 0 0 0 
0 0 0 0 0 0 0 0 0 
0 0 0 0 0 0 0 0 0 
0 0 0 0 0 0 0 0 0 
0 0 0 0 0 0 0 0 0 
0 0 0 0 0 0 0 0 0 
0 0 0 0 0 0 0 0 0 
0 0 0 0 0 0 0 0 0 
0 0 0 0 0 0 0 0 0 
0 0 0 0 0 0 0 0 0 
0 0 0 0 0 0 0 0 0 
0 0 0 0 0 0 0 0 0 
0 0 0 0 0 0 0 0 0 
0 0 0 0 0 0 0 0 0 
0 0 0 0 0 0 0 0 0 
0 0 0 0 0 0 0 0 0 
0 0 0 0 0 0 0 0 0 
0 0 0 0 0 0 0 0 0 
0 0 0 0 0 0 0 0 0 
0 0 0 0 0 0 0 0 0 
0 0 0 0 0 0 0 0 0 
0 0 0 0 0 0 0 0 0 
0 0 0 0 0 0 0 0 0 
0 0 0 0 0 0 0 0 0 
0 0 0 0 0 0 0 0 0 
0 0 0 0 0 0 0 0 0 
0 0 0 0 0 0 0 0 0 
0 0 0 0 0 0 0 0 0 
0 0 0 0 0 0 0 0 0 
0 0 0 0 0 0 0 0 0 
0 0 0 0 0 0 0 0 0 
0 0 0 0 0 0 0 0 0 
0 0 0 0 0 0 0 0 0 
0 0 0 0 0 0 0 0 0 
0 0 0 0 0 0 0 0 0 
0 0 0 0 0 0 0 0 0 
0 0 0 0 0 0 0 0 0 
0 0 0 0 0 0 0 0 0 
0 0 0 0 0 0 0 0 0 
0 0 0 0 0 0 0 0 0 
0 0 0 0 0 0 0 0 0 
0 0 0 0 0 0 0 0 0 
0 0 0 0 0 0 0 0 0 
0 0 0 0 0 0 0 0 0 
0 0 0 0 0 0 0 0 0 
0 0 0 0 0 0 0 0 0 
0 0 0 0 0 0 -1 0 0 
0 0 0 0 0 0 0 0 0 
0 0 0 0 0 0 0 0 0 
0 0 0 0 0 0 0 0 0 
0 0 0 0 0 0 0 0 0 
0 0 0 0 0 0 0 0 0 
0 0 0 0 0 0 0 0 0 
0 0 0 0 0 0 0 0 0 
0 0 0 0 0 0 0 0 0 
0 0 0 0 0 0 0 0 0 
0 0 0 0 0 0 0 0 0 
0 0 0 0 0 0 0 0 0 
0 0 0 0 0 0 0 0 0 
0 0 0 0 0 0 0 0 0 
0 0 0 0 0 0 0 0 0 
0 0 0 0 0 0 0 0 0 
0 0 0 0 1 0 0 0 0 
0 0 0 0 0 0 0 0 0 
0 0 0 0 0 0 0 0 0 
0 0 0 0 0 0 0 0 0 
0 0 0 0 0 0 0 0 0 
0 0 0 0 0 0 0 0 0 
0 0 0 0 0 0 0 0 0 
0 0 0 0 0 0 0 0 0 
0 0 0 0 0 0 0 0 0 
0 0 0 0 0 0 0 0 0 
0 0 0 0 0 0 0 0 0 
0 0 0 0 0 0 0 0 0 
0 0 0 0 0 0 0 0 0 
0 0 0 0 0 0 0 0 0 
0 0 0 0 0 0 0 0 0 
0 0 0 0 0 0 0 0 0 
0 0 0 0 0 0 0 0 0 
0 0 0 0 0 0 0 0 0 
0 0 0 0 0 0 0 0 0 
0 0 0 0 0 0 0 0 0 
0 0 0 0 0 0 0 0 0 
0 0 0 0 0 0 0 0 0 
0 0 0 0 0 0 0 0 0 
0 0 0 0 0 0 0 0 0 
0 0 0 0 0 0 0 0 0 
0 0 0 0 0 0 0 0 0 
0 0 0 0 0 0 0 1 0 
-1 0 0 0 0 0 0 0 0 
0 0 0 0 0 0 0 0 0 
0 0 0 0 0 0 0 0 0 
0 0 0 0 0 0 0 0 0 
0 0 0 0 0 0 0 0 0 
0 0 0 0 0 0 0 0 0 
0 0 0 0 0 0 0 0 0 
0 0 0 0 0 0 0 0 0 
0 0 0 0 0 0 0 0 0 
0 0 0 0 0 0 0 0 0 
0 0 0 0 0 0 0 0 0 
0 0 0 0 0 0 0 0 0 
0 0 0 0 0 0 0 0 0 
0 0 0 0 0 0 0 0 0 
0 0 0 0 0 0 0 0 0 
0 0 0 0 0 0 0 0 0 
0 0 0 0 0 0 0 0 0 
0 0 0 0 0 0 0 0 0 
0 0 0 0 0 0 0 0 0 
0 0 0 0 0 0 0 0 0 
0 0 0 0 0 0 0 0 0 
0 0 0 0 0 0 0 0 0 
0 0 0 0 0 0 0 0 0 
0 0 0 0 0 0 0 0 0 
0 0 0 0 0 0 0 0 0 
0 0 0 0 0 0 0 0 0 
0 0 0 0 0 0 0 0 0 
0 0 0 0 0 0 0 0 0 
0 0 0 0 0 0 0 0 0 
0 0 0 0 0 0 0 0 0 
0 0 0 0 0 0 0 0 0 
0 0 0 0 0 0 0 0 0 
0 0 0 0 0 0 0 0 0 
0 0 0 0 0 0 0 0 0 
0 0 0 0 0 0 0 0 0 
0 0 0 0 0 0 0 0 0 
0 0 0 0 0 0 0 0 0 
0 0 0 0 0 0 0 0 0 
0 0 0 0 0 0 0 0 0 
0 0 0 0 0 0 0 0 0 
0 0 0 0 0 0 0 0 0 
0 0 0 0 0 0 0 0 0 
0 0 0 0 0 0 0 0 0 
0 0 0 0 0 0 0 0 0 
0 0 0 0 0 0 0 0 0 
0 0 0 0 0 0 0 0 0 
0 0 0 0 0 0 0 0 0 
0 0 0 0 0 0 0 0 0 
0 0 0 0 0 0 0 0 0 
0 0 0 0 0 0 0 0 0 
0 0 0 0 0 0 0 0 0 
0 0 0 0 0 0 0 0 0 
0 0 0 0 0 0 0 0 0 
0 0 0 0 0 0 0 0 0 
0 0 0 0 0 0 0 0 0 
0 0 0 0 0 0 0 0 0 
0 0 0 0 0 0 0 0 0 
0 0 0 0 0 0 0 0 0 
0 0 0 0 0 0 0 0 0 
0 0 0 0 0 0 0 0 0 
0 0 0 -1 0 0 0 0 0 
0 0 0 0 0 0 0 0 0 
0 0 0 0 0 0 0 0 0 
0 0 0 0 0 0 0 0 0 
0 0 0 0 0 0 0 0 0 
0 0 0 0 0 0 0 0 0 
0 0 0 0 0 0 0 0 0 
0 0 0 0 0 0 0 0 0 
0 0 0 0 0 0 0 0 0 
0 0 0 0 0 0 0 0 0 
0 0 0 0 0 0 0 0 0 
0 0 0 0 0 0 0 0 0 
0 0 0 0 0 0 0 0 0 
0 0 0 0 0 0 0 0 0 
0 0 0 0 0 0 0 0 0 
0 0 0 0 0 0 0 0 0 
0 0 0 0 -1 0 0 -1 0 
0 0 0 0 0 0 0 0 0 
0 0 0 0 0 0 0 0 0 
0 0 0 0 0 0 0 0 0 
0 0 0 0 0 0 0 0 0 
0 0 0 0 0 0 0 0 0 
0 0 0 0 0 0 0 0 0 
0 0 0 0 0 0 0 0 0 
0 0 0 0 0 0 0 0 0 
0 0 0 0 0 0 0 0 0 
0 0 0 0 0 0 0 0 0 
0 0 0 0 0 0 0 0 0 
0 0 0 0 0 0 0 0 0 
0 0 0 0 0 0 0 0 0 
0 0 0 0 0 0 0 0 0 
0 0 0 0 0 0 0 0 0 
0 0 0 0 0 0 0 0 0 
0 0 0 0 0 0 0 0 0 
0 0 0 0 0 0 0 -1 0 
0 0 0 0 0 0 0 0 0 
0 0 0 0 0 0 0 0 0 
0 0 0 0 0 0 0 0 0 
0 0 0 0 0 0 0 0 0 
0 0 0 0 0 0 0 0 0 
0 0 0 0 0 0 0 0 0 
0 0 0 0 0 0 0 0 0 
0 0 0 0 0 0 0 0 0 
0 0 0 0 0 0 0 0 0 
0 0 0 0 0 0 0 0 0 
0 0 0 0 0 0 0 0 0 
0 0 0 0 0 0 0 0 0 
0 0 0 0 0 0 0 0 0 
0 0 0 0 0 0 0 0 0 
0 0 0 0 0 0 0 0 0 
0 0 0 0 0 0 0 0 0 
0 0 0 0 0 0 0 0 0 
0 0 0 0 0 0 0 0 0 
0 0 0 0 0 0 0 0 0 
0 0 0 0 0 0 0 0 0 
0 0 0 0 0 0 0 0 0 
0 0 0 0 0 0 0 0 0 
0 0 0 0 0 0 0 0 0 
0 0 0 0 0 0 0 0 0 
0 0 0 0 0 0 0 0 0 
0 0 0 0 0 0 0 0 0 
0 0 0 0 0 0 0 0 0 
0 0 0 0 0 0 0 0 0 
0 0 0 0 0 0 0 0 0 
0 0 0 0 0 0 0 0 0 
0 0 0 0 0 0 0 0 0 
0 0 0 0 0 0 0 0 0 
0 0 0 0 0 0 0 0 0 
0 0 0 0 0 0 0 0 0 
0 0 0 0 0 0 0 0 0 
0 0 0 0 0 0 0 0 0 
0 0 0 0 0 0 0 0 0 
0 0 0 0 0 0 0 0 0 
0 0 0 0 0 0 0 0 0 
0 0 0 0 0 0 0 0 0 
0 0 0 0 0 0 0 0 0 
0 0 0 0 0 0 0 0 0 
0 0 0 0 0 0 0 0 0 
0 0 0 0 0 0 0 0 0 
0 0 0 0 0 0 0 0 0 
0 0 0 0 0 0 0 0 0 
0 0 0 0 0 0 0 0 0 
0 0 0 0 0 0 0 0 0 
0 0 0 0 0 0 0 0 0 
0 0 0 0 0 0 1 0 0 
0 0 0 0 0 0 0 0 0 
0 0 0 0 0 0 0 0 0 
0 0 0 0 0 0 0 0 0 
0 0 0 0 0 0 0 0 0 
0 0 0 0 0 0 0 0 0 
0 0 0 0 0 0 0 0 0 
0 0 0 0 0 0 0 0 0 
0 0 0 0 0 0 0 0 0 
0 0 0 0 0 0 0 0 0 
0 0 0 0 0 0 0 0 0 
0 0 0 0 0 0 0 0 0 
0 0 0 0 0 0 0 0 0 
0 0 0 0 0 0 0 0 0 
0 0 0 0 0 0 0 0 0 
0 0 0 0 0 0 0 0 0 
0 0 0 0 0 0 0 0 0 
0 0 0 0 0 0 0 0 0 
0 0 0 0 0 0 0 0 0 
0 0 0 0 0 0 0 0 0 
0 0 0 0 0 0 0 0 0 
0 0 0 0 0 0 0 0 0 
0 0 0 0 0 0 0 0 0 
0 0 0 0 0 0 0 0 0 
0 0 0 0 0 0 0 0 0 
0 0 0 0 0 0 0 0 0 
0 0 0 0 0 0 0 0 0 
0 0 0 0 0 0 0 0 0 
0 0 0 0 0 0 0 0 0 
0 0 0 0 0 0 0 0 0 
0 0 0 0 0 0 0 0 0 
0 0 0 0 0 0 0 0 0 
0 0 0 0 0 0 0 0 0 
0 0 0 0 0 0 0 0 0 
0 0 0 0 0 0 0 0 0 
0 0 0 0 0 0 0 0 0 
0 0 0 0 0 0 0 0 0 
0 0 0 0 0 0 0 0 0 
0 0 0 0 0 0 0 0 0 
0 0 0 0 0 0 0 0 0 
0 0 0 0 0 0 0 0 0 
0 0 0 0 0 0 0 0 0 
0 0 0 0 0 0 0 0 0 
0 0 0 0 0 0 0 0 0 
0 0 0 0 0 0 0 0 0 
0 0 0 0 0 0 0 0 0 
0 0 0 0 0 0 0 0 0 
0 0 0 0 0 0 0 0 0 
0 0 0 0 0 0 0 0 0 
0 0 0 0 0 0 0 0 0 
0 0 0 0 0 0 0 0 0 
0 0 0 0 0 0 0 0 0 
0 0 0 0 0 0 0 0 0 
0 0 0 0 0 0 0 0 0 
0 0 0 0 0 0 0 0 0 
0 0 0 0 0 0 0 0 0 
0 0 0 0 0 0 0 0 0 
0 0 0 0 0 0 0 0 0 
0 0 0 0 0 0 0 0 0 
0 0 0 0 0 0 0 0 0 
0 0 0 0 0 0 0 0 0 
0 0 0 0 0 0 0 0 0 
0 0 0 0 0 0 0 0 0 
0 0 0 0 0 0 0 0 0 
0 0 0 0 0 0 0 0 0 
0 0 0 0 0 0 0 0 0 
0 0 0 0 0 0 0 0 0 
0 0 0 0 0 0 0 0 0 
0 0 0 0 0 0 0 0 0 
0 0 0 0 0 0 0 0 0 
0 0 0 0 0 0 0 0 0 
0 0 0 0 0 0 0 0 0 
0 0 0 0 0 0 0 0 0 
0 0 0 0 0 0 0 0 0 
0 0 0 0 0 0 0 0 0 
0 0 0 0 0 0 0 0 0 
0 0 0 0 0 0 0 0 0 
0 0 0 0 0 0 0 0 0 
0 0 0 0 0 0 0 0 0 
0 0 0 0 0 0 0 0 0 
0 0 0 0 0 0 0 0 0 
0 0 0 0 0 0 0 0 0 
0 0 0 0 0 0 0 0 0 
0 0 0 0 0 0 0 0 0 
0 0 0 0 0 0 0 0 0 
0 0 0 0 0 0 0 0 0 
0 0 0 0 0 0 0 0 0 
0 0 0 0 0 0 0 0 0 
0 0 0 0 0 0 0 0 0 
0 0 0 0 0 0 0 0 0 
0 -1 0 0 0 0 0 0 0 
0 0 0 0 0 0 0 0 0 
0 0 0 0 0 0 0 0 0 
0 0 0 0 0 0 0 0 0 
0 0 0 0 0 0 0 0 0 
0 0 0 0 0 0 0 0 0 
0 0 0 0 0 0 0 0 0 
0 0 0 0 0 0 0 0 0 
0 0 0 0 0 0 0 0 0 
0 0 0 0 0 0 0 0 0 
0 0 0 0 0 0 0 0 0 
0 0 0 0 0 0 0 0 0 
0 0 0 0 0 0 0 0 0 
0 0 0 0 0 0 0 1 0 
0 0 0 0 0 0 0 0 0 
0 0 0 0 0 0 0 0 0 
0 0 0 0 0 0 0 0 0 
0 0 0 0 0 0 0 0 0 
0 0 0 0 0 0 0 0 0 
0 0 0 0 0 0 0 0 0 
0 0 0 0 0 0 0 0 0 
0 0 0 0 0 0 0 1 0 
0 0 0 0 0 0 0 0 0 
0 0 0 0 0 0 0 0 0 
0 0 0 0 0 0 0 0 0 
0 0 0 0 0 0 0 0 0 
0 0 0 0 0 0 0 0 0 
0 0 0 0 0 0 0 0 0 
0 0 0 0 0 0 0 0 0 
0 0 0 0 0 0 0 0 0 
0 0 0 0 0 0 0 0 0 
0 0 0 0 0 0 0 0 0 
0 0 0 0 0 0 0 0 0 
0 0 0 0 0 0 0 0 0 
0 0 0 0 0 0 0 0 0 
0 0 0 0 0 0 0 0 0 
0 0 0 0 0 0 0 0 0 
0 0 0 0 0 0 0 0 0 
0 0 0 0 0 0 0 0 0 
0 0 0 0 0 0 0 0 0 
0 0 0 0 0 0 0 0 0 
0 0 0 0 0 0 0 0 0 
0 0 0 0 0 0 0 0 0 
0 0 0 0 0 0 0 0 0 
1 0 0 0 0 0 0 0 0 
0 0 0 0 0 0 0 0 0 
0 0 0 0 0 0 0 0 0 
0 0 0 0 0 0 0 0 0 
0 0 0 0 0 0 0 0 0 
0 0 0 0 0 0 0 0 0 
0 0 0 0 0 0 0 0 0 
0 0 0 0 0 0 0 0 0 
0 0 0 0 0 0 0 0 0 
0 0 0 0 0 0 0 0 0 
0 0 0 0 0 0 0 0 0 
0 0 0 0 0 0 0 0 0 
0 0 0 0 0 0 0 0 0 
0 0 0 0 0 0 0 0 0 
0 0 0 0 0 0 0 0 0 
0 0 0 0 0 0 0 0 0 
0 0 0 0 0 0 0 0 0 
0 0 0 0 0 0 0 0 0 
0 0 0 0 0 0 0 0 0 
0 0 0 0 0 0 0 0 0 
0 0 0 0 0 0 0 0 0 
0 0 0 0 0 0 0 0 0 
0 0 0 0 0 0 0 0 0 
0 0 0 0 0 0 0 0 0 
0 0 0 0 0 0 0 0 0 
0 0 0 0 0 0 0 0 0 
0 0 0 0 0 0 0 0 0 
0 0 0 0 0 0 0 0 0 
0 0 0 0 0 0 0 0 0 
0 0 0 0 0 0 0 0 0 
0 0 0 0 0 0 0 0 0 
0 0 0 0 0 0 0 0 0 
0 0 0 0 0 0 0 0 0 
0 0 0 0 0 0 0 0 0 
0 0 0 0 0 0 0 0 0 
0 0 0 0 0 0 0 0 0 
0 0 0 0 0 0 0 0 0 
0 0 0 0 0 0 0 0 0 
0 0 0 0 0 0 0 0 0 
0 0 0 0 0 0 0 0 0 
0 0 0 0 0 0 0 0 0 
0 0 0 0 0 0 0 0 0 
0 0 0 0 0 0 0 0 0 
0 0 0 0 0 0 0 0 0 
0 0 0 0 0 0 0 0 0 
0 0 0 0 0 0 0 0 0 
0 0 0 0 0 0 0 0 0 
0 0 0 0 0 0 0 0 0 
0 0 0 0 0 0 0 0 0 
0 0 0 0 0 0 0 0 0 
0 0 0 0 0 0 0 -1 0 
0 -1 0 0 -1 0 0 0 0 
1 0 0 0 0 0 0 0 0 
0 0 0 0 0 0 0 0 0 
0 0 0 0 0 0 0 0 0 
0 0 0 0 0 0 0 0 0 
0 0 0 0 0 0 0 0 0 
0 0 0 0 0 0 0 0 0 
1 0 0 0 0 0 0 0 0 
0 0 0 0 0 0 0 0 0 
0 0 0 0 0 0 0 0 0 
0 0 0 0 0 0 0 0 0 