# vtk DataFile Version 4.0
Generated by LIGGGHTS
ASCII
DATASET POLYDATA
POINTS 2000 float
-100.075 -85.3049 9.90589 -90.2699 -103.239 9.91906 -109.005 -133.028 9.91895 
-121.1 -117.151 9.91832 -89.1528 -131.024 9.91644 -128.795 -135.565 9.91357 
-128.187 -98.4926 9.91862 -109.375 -102.025 15.5706 -115.539 -129.344 28.7563 
-98.2482 -117.511 21.4519 -140.976 -100.233 26.6144 -131.887 -117.912 28.3374 
-121.598 -101.07 31.3185 -96.5306 -135.072 30.7752 -43.0671 -113.705 9.91877 
-43.9853 -133.642 9.91546 -55.3313 -91.4665 9.91877 -61.0884 -122.285 9.91831 
-70.357 -104.604 9.92139 -27.8783 -96.7918 9.9183 -59.4995 -112.334 27.1425 
-78.8487 -121.413 24.0438 -57.6604 -135.696 24.3026 -77.5099 -140.758 28.7828 
-45.6697 -124.163 35.3289 -44.7444 -91.5924 35.4832 -71.1084 -139.546 9.91821 
8.52606 -101.751 9.91704 -9.55172 -136.762 9.92072 27.9144 -97.0126 9.91885 
-8.62233 -91.538 9.9163 21.7373 -125.329 9.92009 -25.8714 -125.27 9.91359 
22.3025 -104.026 27.7425 2.31389 -120.715 9.92259 19.6529 -123.7 29.8141 
7.87939 -138.321 19.5374 13.7072 -86.5293 21.7322 35.259 -86.3363 25.4041 
81.1686 -88.296 9.91894 38.2354 -114.094 9.91789 49.1601 -93.6537 9.91886 
37.1667 -130.239 21.5986 69.6445 -117.742 24.7871 118.95 -123.907 9.91386 
136.738 -110.289 9.91803 117.805 -103.975 9.9162 101.13 -114.934 9.91606 
100.642 -133.86 25.3006 121.244 -100.303 29.2259 99.9694 -95.0102 9.91955 
136.52 -128.446 18.2095 135.587 -90.359 9.91829 122.094 -120.23 29.2704 
102.311 -94.021 29.7189 103.491 -113.754 32.5055 -95.1282 -30.587 25.8203 
-124.114 -57.268 9.92183 -93.1076 -56.3981 24.336 -140.391 -45.7144 9.91365 
-118.079 -38.2427 9.91839 -106.344 -66.357 9.91986 -91.5376 -42.1009 9.91823 
-114.834 -49.7278 25.9151 -110.875 -78.3944 25.1861 -129.84 -63.5977 27.9633 
-130.889 -37.8722 25.6045 -134.658 -74.223 9.91869 -130.071 -83.5301 26.9622 
-113.684 -31.146 33.1332 -81.3316 -64.4857 9.9186 -38.8928 -80.1471 9.91877 
-33.2457 -58.1598 9.91684 -62.244 -72.7426 9.91864 -59.933 -41.2091 24.792 
-47.9815 -73.9932 26.6369 -26.3071 -40.2485 15.3431 11.2699 -55.6065 9.90558 
-8.49535 -58.3361 9.91352 -5.06859 -38.6742 9.91853 2.51713 -74.9783 9.91768 
26.7307 -77.0898 9.91627 -19.6376 -74.8949 9.91877 12.7564 -59.4707 29.4101 
-20.8499 -56.5591 25.4732 -6.01031 -43.7412 29.2007 63.2424 -79.509 9.91955 
45.3755 -72.4051 15.2988 60.923 -59.6857 9.91834 79.2514 -67.586 9.91877 
31.1247 -57.6261 9.916 71.0893 -36.3428 9.91616 46.3633 -53.6885 22.1816 
72.4562 -51.2876 23.8755 57.63 -37.0024 24.6307 31.4903 -66.2514 28.2475 
86.5264 -48.9973 9.91407 98.8502 -77.3953 19.2336 111.242 -64.8261 9.91843 
99.5766 -33.8944 9.9168 131.078 -62.6637 9.91725 116.649 -84.0458 9.91877 
119.297 -46.5564 9.91707 135.291 -52.9436 27.4096 133.478 -76.4851 24.1095 
129.876 -30.7296 15.9266 117.128 -81.489 34.4097 133.874 -34.5795 35.1025 
-133.726 -25.8544 9.91959 -111.102 7.28608 9.91765 -96.1601 -5.94771 9.91926 
-123.909 -8.02414 9.91822 -85.7721 -22.9909 9.9159 -109.17 -18.5261 18.3424 
-115.768 -1.82169 27.0507 -113.023 17.9449 26.928 -128.226 22.4278 9.91877 
-139.087 0.889752 33.0879 -141.042 -17.9178 26.707 -108.935 27.5516 9.91822 
-82.2788 -14.5013 27.6369 -34.2548 -22.7598 9.91912 -50.4663 4.92436 9.91605 
-31.0747 17.0193 9.91835 -32.1108 -2.91443 9.91877 -78.2118 20.0844 24.7912 
-43.5809 15.4714 25.3948 -55.6013 -6.54654 25.417 24.2215 -26.7811 24.8022 
-14.3723 -21.0167 9.91877 -13.6175 7.36065 10.5018 9.31474 5.78017 9.91886 
18.8413 7.16359 31.064 29.2292 4.43417 9.91898 55.6954 -23.6287 9.93246 
38.3844 10.565 33.2262 78.8115 24.1032 23.8875 47.2673 -4.1097 9.91954 
45.6487 15.7849 9.91877 64.8172 21.3499 9.91995 82.0999 10.2499 9.91005 
52.8984 23.6445 29.16 84.1399 -21.2454 9.91649 102.221 -12.8008 9.91738 
140.162 0.750293 9.91893 125.065 -12.3064 9.92088 113.835 -21.6212 23.5408 
112.994 16.919 24.7991 -92.8796 66.5684 9.9215 -115.163 46.5137 9.91951 
-95.2046 46.7471 9.91846 -137.027 77.4865 9.91701 -135.223 57.6058 9.91689 
-126.449 38.4478 24.2725 -86.7086 81.8768 21.1442 -84.9261 54.0018 29.8319 
-140.316 38.3075 9.91868 -45.3865 30.934 9.91877 -30.1241 75.6639 24.7946 
-59.9846 65.2821 9.91643 -59.2008 45.3431 9.91731 -30.3407 44.0481 9.91861 
-76.8702 54.6397 9.91877 -64.9405 73.9305 27.2039 -61.3359 50.3739 29.1132 
-69.9871 82.5514 9.92015 18.6659 75.8586 9.91652 0.463518 67.6816 9.91667 
0.252187 36.0701 24.7961 16.5484 66.8504 27.5957 30.8094 52.9692 26.1132 
31.4277 41.3147 9.91891 50.4136 35.1703 9.91877 68.8548 42.7879 9.91877 
71.5248 62.5652 9.91295 34.6883 63.961 9.91632 67.4027 39.3027 29.9636 
47.8014 42.9345 29.0625 53.0531 54.9668 9.91877 70.0744 58.8852 32.7123 
33.447 29.8958 33.7923 84.4867 51.9686 20.7588 87.486 68.5554 31.4696 
87.4108 35.4712 9.9152 128.665 65.9845 9.91877 90.9074 67.422 9.90989 
109.647 74.3066 9.91903 103.621 47.1115 9.91738 123.575 46.6973 9.91512 
104.226 59.3911 25.6364 132.589 50.5224 27.3062 119.185 72.4913 27.358 
88.3781 84.6357 19.6632 -90.6472 97.9035 9.91904 -115.104 117.945 24.7898 
-139.086 97.3392 9.9188 -84.8038 126.984 9.91873 -38.1849 119.892 9.9174 
-54.7025 131.093 9.9177 -32.7031 110.461 26.6282 -41.3619 134.776 24.2971 
-66.9155 108.263 33.3804 -27.6703 136.856 9.91983 20.905 131.986 9.92714 
-1.82124 89.7553 9.91832 0.338572 127.905 9.91765 -6.5051 109.157 9.91985 
23.1132 95.3096 9.92131 9.75965 96.4853 24.7134 13.1536 112.607 9.91998 
-15.9858 123.245 20.4115 -2.72041 111.344 29.3961 12.1679 124.23 26.1195 
25.3415 108.554 27.8431 26.8801 139.264 34.576 48.7836 140.493 9.91876 
67.1702 132.733 9.92081 33.11 112.577 9.91222 51.4466 120.441 9.92331 
37.0741 128.581 21.1481 54.0854 88.925 24.793 70.5321 119.749 24.7098 
56.4551 132.491 30.8355 83.79 121.689 9.91836 90.4942 140.486 9.91707 
135.78 83.5819 27.1896 85.4482 101.802 9.91787 126.003 85.7543 9.92033 
101.842 113.186 9.91859 130.109 136.567 9.91854 110.45 140.034 9.91977 
103.504 93.2966 9.92116 135.284 117.287 9.91804 99.6541 128.308 23.2919 
118.378 123.083 18.7953 119.851 104.69 11.2013 133.518 131.306 28.8684 
114.735 134.173 34.982 -141.026 -110.968 50.4066 -90.6106 -118.324 39.8745 
-131.387 -134.18 39.8869 -120.354 -118.237 44.6244 -104.626 -129.967 48.2867 
-121.998 -133.415 57.4825 -129.685 -116.991 65.8132 -133.877 -137.421 73.298 
-95.6844 -87.163 82.4744 -138.51 -107.355 80.8989 -92.2708 -130.703 63.9422 
-84.3926 -113.301 58.1685 -82.0445 -134.754 47.2774 -44.9488 -116.448 53.7238 
-34.5606 -100.871 65.6292 -66.9714 -129.42 59.2164 -70.7939 -119.09 42.1478 
-50.2272 -96.7463 53.9715 -83.6981 -97.4446 70.2756 -64.7866 -109.584 58.6273 
-43.0164 -136.136 51.0714 -63.3825 -140.288 42.8633 -53.7395 -120.485 71.1818 
-76.0605 -114.009 78.3609 -60.7762 -101.34 76.3494 -60.8276 -139.814 75.1152 
-41.6191 -136.343 70.9779 -38.9878 -88.6022 83.5309 -79.4274 -133.679 78.9249 
-30.2452 -120.184 68.2141 -43.104 -108.112 82.6674 -79.0567 -85.4173 37.8041 
-13.8856 -110.13 39.0246 20.0103 -113.375 46.8913 8.38181 -137.054 39.4573 
10.4175 -127.69 56.9686 10.5874 -108.985 63.9309 -7.86456 -138.922 57.8781 
-3.77944 -86.943 63.1273 14.9965 -94.4832 50.9286 3.41383 -134.722 74.2902 
-16.5028 -135.292 75.5002 14.0815 -90.7241 71.1703 25.025 -125.728 70.43 
30.4989 -108.023 63.014 33.0617 -96.1928 42.6168 36.6336 -115.214 35.9803 
44.5324 -135.912 40.9151 58.4883 -132.045 54.6518 40.2399 -124.166 56.4692 
64.6697 -120.083 69.3885 48.0998 -106.968 50.0819 48.0236 -99.1665 68.4361 
71.356 -105.481 57.5274 43.3893 -117.44 74.9946 31.0353 -88.1747 60.9857 
71.2449 -138.905 68.3859 31.4597 -96.3556 79.1858 53.2058 -134.743 76.62 
73.2208 -128.537 85.32 31.1035 -140.866 81.9357 81.5554 -126.772 56.3617 
140.362 -129.969 56.4886 87.7893 -99.1313 48.1418 91.9867 -137.576 42.9015 
129.529 -134.964 40.4879 101.841 -112.664 52.3676 121.292 -113.16 47.9172 
110.338 -129.77 42.2548 129.559 -95.0446 46.5902 100.726 -131.21 59.6767 
109.672 -94.7711 48.256 120.612 -129.498 59.3582 98.5859 -97.6243 65.0838 
114.631 -109.282 67.3138 110.785 -128.629 76.7093 92.0604 -115.975 69.4445 
116.154 -89.5744 70.0883 132.967 -124.481 74.1998 132.073 -91.0194 82.0497 
104.46 -111.321 84.3669 124.353 -110.507 85.5366 -123.07 -82.9971 61.1866 
-124.312 -52.106 43.3173 -99.5786 -44.7314 39.182 -106.251 -63.4691 37.5874 
-130.865 -33.3328 45.042 -101.585 -56.0458 55.5107 -134.107 -41.7392 62.8472 
-92.1177 -68.3233 68.0818 -86.3506 -49.0837 79.7247 -136.244 -55.0683 77.538 
-105.316 -55.2754 78.9519 -134.084 -34.2074 81.3351 -31.8814 -67.1501 56.8832 
-83.4348 -52.3242 48.1255 -65.5589 -58.0764 54.8668 -39.001 -33.3456 51.6335 
-60.8886 -83.4194 67.5781 -55.4537 -41.4866 59.4515 -66.8638 -44.7539 80.0447 
-75.198 -40.9597 62.3128 -40.8046 -37.0878 72.2929 -53.1079 -74.5094 83.6499 
-66.8348 -63.7553 73.9505 -50.0789 -54.7918 84.0287 -77.5848 -80.0763 77.9796 
-26.6277 -40.1844 35.2991 -2.82883 -68.9149 37.5506 21.8206 -80.156 38.8102 
16.3585 -56.6069 64.0322 -10.8038 -40.3459 49.2362 -23.0806 -34.0076 63.6366 
-4.40766 -28.8523 68.4332 11.1026 -28.2331 83.7161 69.3158 -41.1758 40.7897 
59.8487 -74.1939 47.051 75.4816 -46.6441 61.8009 44.4001 -42.8821 48.3451 
59.5993 -34.9917 58.588 66.4527 -61.9701 79.1062 41.5622 -77.2473 76.6685 
76.3842 -44.9978 82.4801 50.0508 -51.4312 71.7019 41.8905 -33.3474 69.3266 
61.8842 -31.9791 78.1847 103.083 -50.1214 40.6592 93.4156 -80.9134 54.0559 
137.434 -50.1659 47.0559 132.802 -69.0712 42.6298 94.5453 -46.2371 74.3123 
119.13 -78.1552 53.987 85.4029 -62.8174 67.9935 124.246 -73.1179 77.9649 
128.213 -47.5477 64.7997 100.157 -77.9019 72.6016 93.4888 -64.8272 86.1319 
-98.4178 -6.16666 35.9016 -104.555 10.2128 45.5124 -124.967 -15.5062 38.2898 
-104.867 -22.8601 65.9101 -124.405 8.68367 44.13 -103.244 12.0334 65.3416 
-123.097 13.2306 63.5203 -93.3128 26.4172 55.6577 -115.047 7.11568 80.7213 
-95.9446 4.41423 85.8392 -122.773 25.1729 84.4141 -86.5109 4.81724 55.0899 
-128.706 -6.60073 85.6091 -84.6865 16.8528 70.8942 -138.015 14.8119 76.6992 
[...]
POINT_DATA 2000
FIELD FieldData 7
id 1 2000 int
41 77 196 230 301 308 411 107 205 
282 380 106 55 343 53 85 259 296 
439 157 275 328 424 223 371 273 311 
185 265 297 299 410 440 49 172 336 
218 351 95 300 376 408 437 22 59 
139 141 164 29 30 201 379 252 335 
47 283 36 142 215 338 414 456 171 
32 161 261 453 395 381 80 246 112 
143 231 10 211 243 115 208 212 232 
365 48 167 45 281 397 113 174 222 
318 108 354 285 317 149 200 434 117 
135 262 286 314 334 274 213 86 183 
114 239 342 346 413 66 147 238 99 
412 298 320 443 225 50 69 345 20 
46 220 11 37 358 390 416 122 359 
123 256 264 347 430 54 204 197 97 
178 271 404 15 84 199 362 400 458 
234 184 378 266 187 8 279 321 399 
250 384 387 224 195 240 12 186 133 
111 131 132 389 419 229 369 375 72 
315 449 233 253 34 102 154 221 330 
173 352 58 366 138 6 444 179 168 
455 295 385 27 88 62 169 302 339 
341 79 83 426 294 433 127 128 33 
110 227 396 421 18 251 242 429 344 
329 160 96 209 288 367 370 452 116 
198 284 247 447 244 438 442 166 401 
448 1283 852 1551 856 1025 361 304 71 
82 119 130 350 319 383 409 292 1007 
1248 1875 1713 1903 903 1746 290 1938 9 
2 241 355 156 64 76 210 293 1584 
1870 1852 1011 418 39 216 263 269 144 
165 382 42 74 332 364 1712 1941 1809 
1945 949 323 1861 137 38 51 125 394 
445 81 155 249 272 436 1279 1425 1934 
701 720 1921 1306 1709 5 245 276 425 
331 388 307 553 1536 1779 655 1754 23 
65 163 415 191 236 1673 1716 1727 1791 
662 643 911 422 417 75 28 226 353 
1158 1363 392 14 44 306 118 89 327 
931 1602 120 1654 25 180 313 398 189 
188 1315 1641 1867 1919 1953 255 309 405 
26 278 129 322 303 761 764 1565 43 
739 1505 1015 152 57 151 162 68 158 
214 257 175 176 368 427 864 1210 874 
1539 793 1282 121 4 260 217 357 94 
190 202 349 402 1858 571 591 746 603 
268 219 7 100 333 104 457 70 454 
63 1386 1764 1001 752 153 623 432 582 
386 291 277 326 19 441 1404 839 3 
254 450 228 393 145 177 377 140 1045 
1599 1674 1396 1956 420 1457 1 270 109 
170 91 312 93 909 1030 1693 451 61 
373 67 267 60 87 316 372 1650 584 
467 280 73 789 235 374 16 103 194 
148 310 356 1079 1951 1403 1414 661 206 
1123 337 35 258 24 159 182 435 340 
1427 1973 1111 1817 105 126 360 403 237 
287 363 92 348 406 1682 1395 1514 1849 
1766 609 1190 181 324 391 21 407 40 
428 56 98 1805 1891 1086 1281 1359 78 
207 289 446 90 101 192 13 124 1589 
1866 1397 923 1449 1740 193 146 423 136 
305 52 150 431 1081 1881 1995 771 817 
1498 1833 203 1703 1364 325 17 31 134 
248 1616 967 1139 1444 741 1604 1758 481 
1067 1691 1541 954 1291 784 1104 519 1769 
814 1017 1155 1725 1194 485 1533 1379 600 
1021 1175 542 1172 1999 669 1169 1329 907 
1980 948 965 1257 1600 1895 1070 521 1835 
952 470 1335 1261 1645 951 1618 1662 1851 
554 1447 1684 549 1632 1049 1267 1590 1406 
1127 1988 463 1188 838 1050 1471 1839 1994 
563 1890 775 1561 914 866 1146 1148 1219 
1456 1647 1177 753 1826 480 757 946 974 
487 1524 574 1424 1842 1837 1538 462 1340 
1251 541 1205 1680 1485 1542 718 1116 887 
1824 1273 490 997 652 878 995 1044 1170 
1675 1578 622 1076 1154 1816 1863 1142 833 
889 627 1586 875 906 1129 1733 1212 1517 
1036 1892 1418 534 1722 985 1566 641 969 
1362 779 653 645 1224 1233 1370 1871 862 
1582 667 1388 845 1041 938 476 723 1412 
1670 806 1101 1166 496 522 1477 1915 1441 
1797 854 1601 1439 1907 842 861 1013 1416 
1033 1098 1176 1626 1735 1128 1462 659 533 
754 1062 1189 1879 1947 1493 629 531 1847 
722 1162 1401 1023 1065 712 1715 1554 1563 
699 799 1143 709 1338 1828 1742 1572 472 
1937 1726 970 595 960 1398 1911 1579 888 
1118 1672 1366 465 1092 1382 581 475 1465 
1496 1339 1269 1723 1888 507 1532 1959 644 
1193 1594 961 1928 1831 901 1409 745 1199 
1570 1527 471 598 1676 1882 1073 919 1171 
892 798 1651 1039 853 675 702 1717 975 
1528 1801 841 657 1413 1478 468 1107 1789 
953 565 1982 567 1487 493 1260 1679 837 
934 1051 1455 1577 1056 1302 1960 1467 1771 
1332 1472 1421 674 625 1929 1240 1450 1606 
1862 729 962 968 1130 1324 1902 966 1636 
1855 1438 1474 1634 1183 759 1254 474 749 
1782 1301 589 797 514 1822 1353 803 893 
1435 805 1860 1819 1887 936 1430 848 1931 
1889 925 536 1266 532 810 1218 1944 1552 
538 1200 1977 1910 1152 1522 1877 1624 1054 
1681 1918 991 489 1215 981 1500 605 1225 
710 1417 1936 1627 672 631 728 1289 1963 
876 1222 1230 1548 1502 964 1097 832 1827 
1124 1544 1841 509 1103 1608 1053 1699 1986 
1834 1164 1731 523 1262 2000 990 1384 697 
1905 1802 1419 460 566 915 688 1058 1168 
1660 944 984 1631 801 1480 1055 820 1376 
1732 676 1117 1208 1962 1612 1088 1749 835 
671 1459 1576 1978 1100 647 1812 1721 1060 
1778 1458 1202 1119 1228 1358 1976 1484 1093 
987 1059 1120 751 1204 1470 596 668 1648 
769 1811 1820 912 850 1326 972 1659 1350 
1972 497 736 1788 686 1664 540 1932 1253 
1186 1767 1221 687 1857 781 1322 807 1753 
886 1083 1443 1930 1099 619 730 1165 1669 
1026 1597 1066 1245 1029 1134 1018 1330 1770 
758 1004 1832 527 1614 1671 602 1794 693 
1466 755 1207 488 1341 1564 1285 1964 516 
590 1492 865 1307 896 1531 1550 740 477 
1298 617 871 1365 788 575 499 809 894 
935 916 1786 1630 986 1368 1803 725 1504 
1034 1573 1874 770 1488 1464 1558 1935 529 
1075 633 1394 1704 1708 1442 1308 1568 918 
1035 1620 1331 1569 1280 1491 1061 576 1063 
1268 1501 494 1843 994 1069 689 1149 608 
999 615 1411 1196 922 1125 1316 570 683 
1048 1521 1768 646 1091 1698 1422 924 777 
1490 1150 1854 1916 539 1113 895 1310 1948 
732 1856 1575 614 1925 1922 1559 1213 1765 
1737 512 904 1611 1773 624 1263 1463 1781 
1893 1556 1885 1105 1047 524 713 504 665 
1909 1917 601 1072 1137 1617 885 1739 1846 
733 1108 1787 1133 802 1274 1191 1227 1970 
1806 535 738 1864 795 1426 765 526 558 
628 642 1334 1701 573 1135 1249 550 473 
1203 1357 1729 656 1024 1145 1638 1853 1705 
560 1040 1807 790 1796 1761 562 1077 1965 
503 700 1304 1639 1952 1195 1549 1042 492 
1613 1415 942 1311 1957 1738 1497 1356 464 
1898 1489 1246 825 800 1452 1896 568 1259 
1354 1288 1367 649 1808 1090 1904 1174 847 
479 1352 648 1429 1942 1372 1734 1868 698 
1052 1757 548 1373 831 593 520 1993 1342 
552 992 1595 1981 1437 1068 1961 998 679 
715 1939 1815 1667 1380 1511 546 920 988 
1046 1949 1486 1161 1022 1635 1238 708 818 
959 1244 1661 794 1663 1293 1287 1241 1557 
1571 500 1159 1121 815 1991 1180 1751 1605 
1009 1236 530 787 1319 1836 597 1800 1355 
592 1087 1585 1250 1348 1431 1234 1547 1825 
1850 719 811 1658 747 1300 1844 1005 484 
1089 822 604 1138 510 763 1374 1692 690 
1971 1479 1436 517 1006 1151 1509 1526 1546 
1876 680 650 694 1106 1112 1473 1665 682 
1619 742 868 796 867 1209 869 1325 486 
1760 908 1829 1084 612 774 917 1545 1295 
1621 1830 621 572 651 1451 1900 1790 1741 
1537 501 1160 902 1696 511 1454 1702 1736 
1391 1314 681 1420 717 780 830 870 1115 
1178 1510 469 704 1428 955 1389 1914 900 
1924 483 1776 1615 945 971 1231 1873 1132 
1513 1271 1966 910 1519 1640 1512 829 1906 
982 1275 547 1360 1958 1064 1423 1719 1508 
696 993 1173 1346 750 819 1838 1303 559 
1743 1223 1393 1975 748 1940 760 1141 632 
1593 1974 1499 1529 1581 1592 678 1752 1880 
1010 791 929 1992 743 1038 881 1967 1445 
613 744 1580 1000 827 1555 1082 1755 1926 
776 1886 978 1383 658 1351 1810 1818 580 
1197 1920 1644 1823 695 1122 824 1475 1507 
851 1540 564 579 762 1239 1845 1984 1284 
459 1095 1697 1574 1336 863 1799 691 767 
1184 1883 1071 1147 1759 956 1387 518 1028 
973 1136 1865 1461 1181 1913 1078 711 731 
1229 860 1375 1625 1278 594 1710 858 950 
737 941 1780 1131 927 977 1286 616 555 
1320 921 1016 556 1666 1908 813 1309 482 
958 785 1689 1785 626 724 1328 1192 873 
1518 1264 928 1094 1405 1609 899 1272 1872 
1996 578 1012 506 1371 1884 1237 1997 1469 
1167 1506 525 1596 1683 1718 1235 1008 1014 
1390 1950 654 1649 1955 1720 638 812 1543 
1859 1694 544 610 635 705 976 561 857 
1276 1793 1798 1588 926 1327 1226 1333 1848 
577 1643 1220 1591 543 1140 1211 846 1583 
1652 1408 585 664 663 1214 1688 937 804 
1157 1668 707 1255 1185 1232 1043 1377 849 
884 515 1057 1323 1587 843 1163 498 1530 
1628 933 1792 772 587 1031 1677 1775 890 
773 1633 703 1297 1503 877 778 1968 844 
1687 963 1433 1277 569 1369 1814 537 1494 
1361 606 1345 1448 1299 905 1927 880 1109 
1560 1317 1878 508 1483 1897 1258 466 1821 
821 1343 1724 1744 766 816 1110 879 557 
716 898 721 495 855 826 1385 505 1446 
947 756 1923 1748 1598 1292 735 1432 1182 
1795 673 1126 1700 588 980 1206 1085 666 
1296 1933 1686 634 1252 1153 891 1774 1990 
834 513 1402 1690 1392 1027 1096 1318 1243 
782 1901 630 640 1305 478 836 734 1750 
1187 545 670 939 1482 1037 1987 639 768 
1019 1217 1763 1985 1349 1312 1989 1410 620 
611 1520 1032 1468 726 828 943 618 1745 
1453 1685 1777 1337 1678 1943 607 783 996 
684 491 1607 957 1460 1756 1516 1400 1567 
599 1256 1653 1378 1714 1637 1622 1074 636 
1290 1730 706 1407 1156 1840 989 528 1711 
1969 1495 1954 897 1270 1399 1313 637 1080 
1813 660 1946 1294 714 1562 1983 840 1114 
1440 1784 1656 502 930 1344 1481 1646 1347 
859 1553 586 1265 940 1706 1523 1102 882 
1998 583 1603 1144 808 1728 1003 1979 786 
983 1020 1321 1525 1242 1655 1695 1642 1002 
1434 932 1783 1381 913 792 1247 1515 1629 
1179 1894 1476 1610 1869 883 1912 823 1623 
1657 1201 1216 1535 1762 1534 872 1804 727 
1747 685 461 1198 979 692 551 1772 1707 
1899 677 
type 1 2000 int
1 1 1 1 1 1 1 1 1 
1 1 1 1 1 1 1 1 1 
1 1 1 1 1 1 1 1 1 
1 1 1 1 1 1 1 1 1 
1 1 1 1 1 1 1 1 1 
1 1 1 1 1 1 1 1 1 
1 1 1 1 1 1 1 1 1 
1 1 1 1 1 1 1 1 1 
1 1 1 1 1 1 1 1 1 
1 1 1 1 1 1 1 1 1 
1 1 1 1 1 1 1 1 1 
1 1 1 1 1 1 1 1 1 
1 1 1 1 1 1 1 1 1 
1 1 1 1 1 1 1 1 1 
1 1 1 1 1 1 1 1 1 
1 1 1 1 1 1 1 1 1 
1 1 1 1 1 1 1 1 1 
1 1 1 1 1 1 1 1 1 
1 1 1 1 1 1 1 1 1 
1 1 1 1 1 1 1 1 1 
1 1 1 1 1 1 1 1 1 
1 1 1 1 1 1 1 1 1 
1 1 1 1 1 1 1 1 1 
1 1 1 1 1 1 1 1 1 
1 1 1 1 1 1 1 1 1 
1 1 1 1 1 1 1 1 1 
1 1 1 1 1 1 1 1 1 
1 1 1 1 1 1 1 1 1 
1 1 1 1 1 1 1 1 1 
1 1 1 1 1 1 1 1 1 
1 1 1 1 1 1 1 1 1 
1 1 1 1 1 1 1 1 1 
1 1 1 1 1 1 1 1 1 
1 1 1 1 1 1 1 1 1 
1 1 1 1 1 1 1 1 1 
1 1 1 1 1 1 1 1 1 
1 1 1 1 1 1 1 1 1 
1 1 1 1 1 1 1 1 1 
1 1 1 1 1 1 1 1 1 
1 1 1 1 1 1 1 1 1 
1 1 1 1 1 1 1 1 1 
1 1 1 1 1 1 1 1 1 
1 1 1 1 1 1 1 1 1 
1 1 1 1 1 1 1 1 1 
1 1 1 1 1 1 1 1 1 
1 1 1 1 1 1 1 1 1 
1 1 1 1 1 1 1 1 1 
1 1 1 1 1 1 1 1 1 
1 1 1 1 1 1 1 1 1 
1 1 1 1 1 1 1 1 1 
1 1 1 1 1 1 1 1 1 
1 1 1 1 1 1 1 1 1 
1 1 1 1 1 1 1 1 1 
1 1 1 1 1 1 1 1 1 
1 1 1 1 1 1 1 1 1 
1 1 1 1 1 1 1 1 1 
1 1 1 1 1 1 1 1 1 
1 1 1 1 1 1 1 1 1 
1 1 1 1 1 1 1 1 1 
1 1 1 1 1 1 1 1 1 
1 1 1 1 1 1 1 1 1 
1 1 1 1 1 1 1 1 1 
1 1 1 1 1 1 1 1 1 
1 1 1 1 1 1 1 1 1 
1 1 1 1 1 1 1 1 1 
1 1 1 1 1 1 1 1 1 
1 1 1 1 1 1 1 1 1 
1 1 1 1 1 1 1 1 1 
1 1 1 1 1 1 1 1 1 
1 1 1 1 1 1 1 1 1 
1 1 1 1 1 1 1 1 1 
1 1 1 1 1 1 1 1 1 
1 1 1 1 1 1 1 1 1 
1 1 1 1 1 1 1 1 1 
1 1 1 1 1 1 1 1 1 
1 1 1 1 1 1 1 1 1 
1 1 1 1 1 1 1 1 1 
1 1 1 1 1 1 1 1 1 
1 1 1 1 1 1 1 1 1 
1 1 1 1 1 1 1 1 1 
1 1 1 1 1 1 1 1 1 
1 1 1 1 1 1 1 1 1 
1 1 1 1 1 1 1 1 1 
1 1 1 1 1 1 1 1 1 
1 1 1 1 1 1 1 1 1 
1 1 1 1 1 1 1 1 1 
1 1 1 1 1 1 1 1 1 
1 1 1 1 1 1 1 1 1 
1 1 1 1 1 1 1 1 1 
1 1 1 1 1 1 1 1 1 
1 1 1 1 1 1 1 1 1 
1 1 1 1 1 1 1 1 1 
1 1 1 1 1 1 1 1 1 
1 1 1 1 1 1 1 1 1 
1 1 1 1 1 1 1 1 1 
1 1 1 1 1 1 1 1 1 
1 1 1 1 1 1 1 1 1 
1 1 1 1 1 1 1 1 1 
1 1 1 1 1 1 1 1 1 
1 1 1 1 1 1 1 1 1 
1 1 1 1 1 1 1 1 1 
1 1 1 1 1 1 1 1 1 
1 1 1 1 1 1 1 1 1 
1 1 1 1 1 1 1 1 1 
1 1 1 1 1 1 1 1 1 
1 1 1 1 1 1 1 1 1 
1 1 1 1 1 1 1 1 1 
1 1 1 1 1 1 1 1 1 
1 1 1 1 1 1 1 1 1 
1 1 1 1 1 1 1 1 1 
1 1 1 1 1 1 1 1 1 
1 1 1 1 1 1 1 1 1 
1 1 1 1 1 1 1 1 1 
1 1 1 1 1 1 1 1 1 
1 1 1 1 1 1 1 1 1 
1 1 1 1 1 1 1 1 1 
1 1 1 1 1 1 1 1 1 
1 1 1 1 1 1 1 1 1 
1 1 1 1 1 1 1 1 1 
1 1 1 1 1 1 1 1 1 
1 1 1 1 1 1 1 1 1 
1 1 1 1 1 1 1 1 1 
1 1 1 1 1 1 1 1 1 
1 1 1 1 1 1 1 1 1 
1 1 1 1 1 1 1 1 1 
1 1 1 1 1 1 1 1 1 
1 1 1 1 1 1 1 1 1 
1 1 1 1 1 1 1 1 1 
1 1 1 1 1 1 1 1 1 
1 1 1 1 1 1 1 1 1 
1 1 1 1 1 1 1 1 1 
1 1 1 1 1 1 1 1 1 
1 1 1 1 1 1 1 1 1 
1 1 1 1 1 1 1 1 1 
1 1 1 1 1 1 1 1 1 
1 1 1 1 1 1 1 1 1 
1 1 1 1 1 1 1 1 1 
1 1 1 1 1 1 1 1 1 
1 1 1 1 1 1 1 1 1 
1 1 1 1 1 1 1 1 1 
1 1 1 1 1 1 1 1 1 
1 1 1 1 1 1 1 1 1 
1 1 1 1 1 1 1 1 1 
1 1 1 1 1 1 1 1 1 
1 1 1 1 1 1 1 1 1 
1 1 1 1 1 1 1 1 1 
1 1 1 1 1 1 1 1 1 
1 1 1 1 1 1 1 1 1 
1 1 1 1 1 1 1 1 1 
1 1 1 1 1 1 1 1 1 
1 1 1 1 1 1 1 1 1 
1 1 1 1 1 1 1 1 1 
1 1 1 1 1 1 1 1 1 
1 1 1 1 1 1 1 1 1 
1 1 1 1 1 1 1 1 1 
1 1 1 1 1 1 1 1 1 
1 1 1 1 1 1 1 1 1 
1 1 1 1 1 1 1 1 1 
1 1 1 1 1 1 1 1 1 
1 1 1 1 1 1 1 1 1 
1 1 1 1 1 1 1 1 1 
1 1 1 1 1 1 1 1 1 
1 1 1 1 1 1 1 1 1 
1 1 1 1 1 1 1 1 1 
1 1 1 1 1 1 1 1 1 
1 1 1 1 1 1 1 1 1 
1 1 1 1 1 1 1 1 1 
1 1 1 1 1 1 1 1 1 
1 1 1 1 1 1 1 1 1 
1 1 1 1 1 1 1 1 1 
1 1 1 1 1 1 1 1 1 
1 1 1 1 1 1 1 1 1 
1 1 1 1 1 1 1 1 1 
1 1 1 1 1 1 1 1 1 
1 1 1 1 1 1 1 1 1 
1 1 1 1 1 1 1 1 1 
1 1 1 1 1 1 1 1 1 
1 1 1 1 1 1 1 1 1 
1 1 1 1 1 1 1 1 1 
1 1 1 1 1 1 1 1 1 
1 1 1 1 1 1 1 1 1 
1 1 1 1 1 1 1 1 1 
1 1 1 1 1 1 1 1 1 
1 1 1 1 1 1 1 1 1 
1 1 1 1 1 1 1 1 1 
1 1 1 1 1 1 1 1 1 
1 1 1 1 1 1 1 1 1 
1 1 1 1 1 1 1 1 1 
1 1 1 1 1 1 1 1 1 
1 1 1 1 1 1 1 1 1 
1 1 1 1 1 1 1 1 1 
1 1 1 1 1 1 1 1 1 
1 1 1 1 1 1 1 1 1 
1 1 1 1 1 1 1 1 1 
1 1 1 1 1 1 1 1 1 
1 1 1 1 1 1 1 1 1 
1 1 1 1 1 1 1 1 1 
1 1 1 1 1 1 1 1 1 
1 1 1 1 1 1 1 1 1 
1 1 1 1 1 1 1 1 1 
1 1 1 1 1 1 1 1 1 
1 1 1 1 1 1 1 1 1 
1 1 1 1 1 1 1 1 1 
1 1 1 1 1 1 1 1 1 
1 1 1 1 1 1 1 1 1 
1 1 1 1 1 1 1 1 1 
1 1 1 1 1 1 1 1 1 
1 1 1 1 1 1 1 1 1 
1 1 1 1 1 1 1 1 1 
1 1 1 1 1 1 1 1 1 
1 1 1 1 1 1 1 1 1 
1 1 1 1 1 1 1 1 1 
1 1 1 1 1 1 1 1 1 
1 1 1 1 1 1 1 1 1 
1 1 1 1 1 1 1 1 1 
1 1 1 1 1 1 1 1 1 
1 1 1 1 1 1 1 1 1 
1 1 1 1 1 1 1 1 1 
1 1 1 1 1 1 1 1 1 
1 1 1 1 1 1 1 1 1 
1 1 1 1 1 1 1 1 1 
1 1 1 1 1 1 1 1 1 
1 1 
i 3 2000 int
0 0 0 0 0 0 0 0 0 
0 0 0 0 0 0 0 0 0 
0 0 0 0 0 0 0 0 0 
0 0 0 0 0 0 0 0 0 
0 0 0 0 0 0 0 0 0 
0 0 0 0 0 0 0 0 0 
0 0 0 0 0 0 0 0 0 
0 0 0 0 0 0 0 0 0 
0 0 0 0 0 0 0 1 0 
0 0 0 0 0 0 0 0 0 
0 0 0 0 0 0 0 0 0 
0 0 0 0 0 0 0 0 0 
0 1 0 0 0 0 0 0 0 
0 0 0 0 0 0 0 0 0 
0 0 0 0 0 0 0 0 0 
0 0 0 0 0 0 0 0 0 
0 0 0 0 0 0 0 0 0 
0 0 0 0 0 0 0 0 0 
0 0 0 0 0 0 0 0 0 
0 0 0 0 0 0 0 0 0 
0 0 0 0 0 0 0 0 0 
0 0 0 0 0 0 0 0 0 
0 0 0 1 0 0 0 0 0 
0 0 0 0 0 0 0 0 0 
0 0 0 0 0 0 0 0 0 
0 0 0 0 0 0 0 0 0 
0 0 0 0 0 0 0 0 0 
0 0 0 0 0 0 0 0 0 
0 0 0 0 0 0 0 0 0 
0 0 0 0 0 0 0 0 0 
0 0 0 0 0 0 0 0 0 
0 0 0 0 0 0 0 0 0 
0 0 0 0 0 0 0 0 0 
0 0 0 0 0 0 0 0 0 
0 0 0 0 0 0 0 0 0 
0 0 0 0 0 0 0 0 0 
0 0 0 0 0 0 0 0 0 
0 0 0 0 0 0 0 0 0 
0 0 0 0 0 0 0 0 0 
1 0 0 1 0 0 0 0 0 
0 0 0 0 0 0 0 0 0 
0 0 0 0 0 0 0 0 0 
0 0 0 0 0 0 0 0 0 
0 0 0 0 0 0 0 0 0 
0 0 0 0 0 0 0 0 0 
0 0 0 0 0 0 0 0 0 
0 0 0 0 0 0 0 0 0 
0 0 0 0 0 0 0 0 0 
0 0 0 0 0 0 0 0 0 
0 0 0 0 0 0 0 0 0 
0 0 0 0 0 0 0 0 0 
0 0 0 0 0 0 0 0 0 
1 0 0 0 0 0 0 0 0 
0 0 0 0 0 0 0 0 0 
0 0 0 0 0 0 0 0 0 
0 0 0 0 0 0 0 0 0 
0 0 0 0 0 0 0 0 0 
0 0 0 0 0 0 0 0 0 
0 0 0 0 0 0 0 0 0 
0 0 0 0 0 0 0 0 0 
0 0 0 0 0 0 0 0 0 
0 0 0 0 0 0 0 0 0 
0 0 0 0 0 0 0 0 0 
0 0 0 0 0 0 0 0 0 
0 0 0 0 0 0 0 0 0 
0 0 0 0 0 0 0 0 0 
0 0 0 0 0 0 0 0 0 
0 0 0 0 0 0 0 0 0 
0 0 0 0 0 0 0 0 0 
0 0 0 0 0 0 0 0 0 
0 0 0 0 0 0 0 0 0 
0 0 0 0 0 0 0 -1 0 
0 0 0 0 0 0 0 0 0 
0 0 0 0 0 0 0 0 0 
0 0 0 0 0 0 0 0 0 
0 0 0 0 0 0 0 0 0 
0 0 0 0 0 0 0 0 0 
0 0 0 0 0 0 0 0 0 
0 0 0 0 0 0 0 0 0 
0 0 0 0 0 0 0 0 0 
0 0 0 0 0 0 0 0 0 
0 0 0 0 0 0 0 0 0 
0 0 0 0 0 0 0 0 0 
0 0 0 0 0 0 0 0 0 
0 0 0 0 0 0 0 0 0 
0 0 0 0 0 0 0 0 0 
0 0 0 0 1 0 0 0 0 
0 0 0 0 0 0 0 0 0 
0 0 0 0 0 0 0 0 0 
0 0 0 0 0 0 0 0 0 
0 0 0 0 0 0 0 0 0 
0 0 0 0 0 0 0 0 0 
0 0 0 0 0 0 0 0 0 
0 0 0 0 0 0 0 0 0 
0 0 0 0 0 0 0 0 0 
0 0 0 0 0 0 0 0 0 
0 0 0 0 0 0 0 0 0 
0 0 0 0 0 0 0 0 0 
0 0 0 0 0 0 0 0 0 
0 0 0 0 1 0 0 0 0 
-1 0 0 0 0 0 0 0 0 
0 0 0 0 0 0 0 0 0 
0 0 0 0 0 0 0 0 0 
0 0 0 0 0 0 0 0 0 
0 0 0 0 0 0 0 0 0 
0 0 0 0 0 0 -1 0 0 
0 0 0 0 0 0 0 0 0 
0 0 0 0 0 0 0 0 0 
0 0 0 0 0 0 0 0 0 
0 0 0 0 0 0 0 0 0 
0 0 0 1 0 0 0 0 0 
0 0 0 0 0 0 0 0 0 
0 0 0 0 0 0 0 0 0 
0 0 0 0 0 0 0 0 0 
0 0 0 0 0 0 0 0 0 
0 0 0 0 0 0 0 0 0 
0 0 0 0 0 0 0 0 0 
0 0 0 0 0 0 0 0 0 
0 0 0 0 0 0 0 0 0 
0 0 0 0 0 0 0 0 0 
0 0 0 0 0 0 0 0 0 
0 0 0 0 0 0 0 0 0 
0 0 0 0 0 0 0 0 0 
0 0 0 0 0 0 0 0 0 
0 0 0 0 0 0 0 0 0 
0 0 0 0 0 0 0 0 0 
0 0 0 0 0 0 0 0 0 
0 0 0 0 0 0 0 0 0 
0 0 0 0 0 0 0 0 0 
0 0 0 0 0 0 1 0 0 
0 0 0 0 0 0 0 0 0 
0 0 0 0 0 0 0 0 0 
0 0 0 0 0 0 0 0 0 
0 0 0 0 0 0 0 0 0 
0 0 0 0 0 0 0 0 0 
0 0 0 0 0 0 0 0 0 
0 0 0 0 0 0 0 0 0 
0 0 0 0 0 0 0 0 0 
0 0 0 0 0 0 0 0 0 
0 0 0 0 0 0 0 0 0 
0 0 0 0 0 0 0 0 0 
0 0 0 0 0 0 0 0 0 
0 0 0 0 0 0 0 0 0 
0 0 0 0 0 0 0 0 0 
0 0 0 0 0 0 0 0 0 
0 0 0 0 0 0 0 0 0 
0 0 0 0 0 0 0 0 0 
0 0 0 0 0 0 0 0 0 
0 0 0 0 0 0 0 0 0 
0 0 0 0 0 0 0 0 0 
0 0 0 0 0 0 0 0 0 
0 0 0 0 0 0 0 0 0 
0 0 0 0 0 0 0 0 0 
0 0 0 0 0 0 0 0 0 
0 0 0 0 0 0 0 0 0 
0 0 0 0 0 0 0 0 0 
0 0 0 0 0 0 0 0 0 
0 0 0 0 0 0 0 0 0 
0 0 0 0 0 0 0 0 0 
0 0 0 0 0 0 0 0 0 
0 0 0 0 0 0 0 0 0 
0 0 0 0 0 0 0 0 0 
0 0 0 0 0 0 0 0 0 
0 0 0 0 0 0 0 0 0 
0 0 0 0 0 0 0 0 0 
0 0 0 0 0 0 0 0 0 
0 0 0 0 0 0 0 0 0 
0 0 0 0 0 0 0 0 0 
0 0 0 0 0 0 0 0 0 
0 0 0 0 0 0 0 0 0 
0 0 0 0 0 0 0 0 0 
0 0 0 0 0 0 0 0 0 
0 -1 0 0 0 0 0 0 0 
0 0 0 0 0 0 0 0 0 
0 0 0 0 0 0 0 0 0 
0 0 0 0 0 0 0 0 0 
0 0 0 0 0 0 0 0 0 
0 0 0 0 0 0 0 -1 0 
0 0 0 0 0 0 0 0 0 
0 0 0 0 0 0 0 0 0 
0 0 0 0 0 0 0 0 0 
0 0 0 0 0 0 0 0 0 
0 0 0 0 0 0 0 0 0 
0 0 0 0 -1 0 0 0 0 
0 0 0 0 0 0 0 0 0 
0 0 0 0 0 0 0 0 0 
0 0 0 0 0 0 0 0 0 
0 0 0 0 0 0 0 0 0 
0 0 0 0 0 0 0 0 0 
0 0 0 0 0 0 0 0 0 
0 0 0 0 0 0 0 0 0 
0 0 0 0 0 0 0 0 0 
0 0 0 0 0 0 0 0 0 
0 0 0 0 0 0 0 0 0 
0 0 0 0 0 0 0 0 0 
0 0 0 0 0 0 0 0 0 
0 0 0 0 0 0 0 0 0 
0 0 0 0 0 0 0 0 0 
0 0 0 0 0 0 0 0 0 
0 0 0 0 0 0 0 0 0 
0 0 0 0 0 0 0 0 0 
0 0 0 0 0 0 1 0 0 
0 0 0 0 0 0 0 0 0 
0 0 0 0 0 0 0 0 0 
0 0 0 0 0 0 0 0 0 
0 0 0 0 0 0 0 0 0 
0 0 0 0 0 0 0 0 0 
0 0 0 0 0 0 0 1 0 
0 0 0 0 0 0 0 0 0 
0 0 0 0 0 0 0 0 0 
0 0 0 0 0 0 0 0 0 
0 0 0 0 1 0 0 0 0 
0 1 0 0 0 0 0 0 0 
0 0 0 0 0 0 0 0 0 
0 0 0 0 0 0 0 0 0 
0 0 0 0 0 0 0 0 0 
0 0 0 0 0 0 0 0 0 
0 0 0 0 0 0 0 0 0 
0 0 0 0 0 0 0 0 0 
0 0 0 0 0 0 0 0 0 
0 0 0 0 0 0 0 0 0 
0 0 0 0 0 0 0 0 0 
0 0 0 0 0 0 0 0 0 
0 0 0 0 0 0 0 0 0 
0 0 0 0 0 0 0 0 0 
0 0 0 0 0 0 0 0 0 
0 0 0 0 0 0 0 0 0 
0 0 0 0 0 0 0 0 0 
0 0 0 0 0 0 0 0 0 
0 0 0 0 0 0 0 0 0 
0 0 0 0 0 0 0 0 0 
0 0 0 0 0 0 0 0 0 
0 0 0 0 0 0 0 0 0 
0 0 0 0 0 0 0 0 0 
0 0 0 0 0 0 0 0 0 
0 0 0 0 0 0 0 0 0 
0 0 0 0 0 0 0 0 0 
0 0 0 0 0 0 0 0 0 
0 0 0 0 0 0 0 0 0 
1 0 0 0 0 0 0 0 0 
0 0 0 0 0 0 0 0 0 
0 0 0 0 0 0 0 0 0 
0 0 0 0 0 0 0 0 0 
0 0 0 0 0 0 0 0 0 
0 0 0 0 0 0 0 0 0 
0 0 0 0 0 0 0 0 0 
0 0 0 0 0 0 0 0 0 
0 0 0 0 0 0 0 0 0 
0 0 0 0 0 0 0 0 0 
0 0 0 0 0 0 0 0 0 
0 0 0 0 0 0 0 0 0 
0 0 0 0 0 0 0 0 0 
-1 0 0 0 0 0 0 0 0 
0 0 0 0 0 0 0 0 0 
0 0 0 0 0 0 0 0 0 
0 0 0 0 0 0 0 0 0 
0 0 0 0 0 0 0 0 0 
0 0 0 0 0 0 0 0 0 
0 0 0 0 0 0 0 0 0 
0 0 0 1 0 0 0 0 0 
0 0 0 0 0 0 0 0 0 
0 0 0 0 0 0 0 0 0 
0 0 0 0 0 0 0 0 0 
0 0 0 0 0 0 0 0 0 
0 0 0 0 0 0 0 0 0 
0 0 0 0 0 0 0 0 0 
0 0 0 0 0 0 0 0 0 
0 0 0 0 0 0 0 0 0 
0 0 0 0 0 0 0 0 0 
0 0 0 0 0 0 0 0 0 
0 0 0 0 0 0 0 0 0 
0 0 0 0 0 0 0 0 0 
0 0 0 0 0 0 0 0 0 
0 0 0 0 0 0 0 0 0 
0 -1 0 0 -1 0 0 0 0 
0 0 0 0 0 0 0 0 0 
0 0 0 0 0 0 0 0 0 
0 0 0 0 0 0 0 0 0 
0 0 0 0 0 0 0 0 0 
0 0 0 0 0 0 0 0 0 
0 0 0 0 0 0 0 0 0 
0 0 0 0 0 0 0 0 0 
0 0 0 0 0 0 0 0 0 
0 0 0 0 0 0 0 0 0 
0 0 0 0 0 0 0 0 0 
0 0 0 0 0 0 0 0 0 
0 0 0 0 0 0 0 0 0 
0 0 0 0 0 0 0 0 0 
0 0 0 0 0 0 0 0 0 
0 0 0 0 0 0 0 0 0 
0 0 0 0 0 0 0 -1 0 
0 0 0 0 0 0 0 0 0 
0 0 0 0 0 0 0 0 0 
0 0 0 0 0 0 0 0 0 
-1 0 0 -1 0 0 0 0 0 
0 0 0 0 0 0 -1 0 0 
0 0 0 0 0 0 0 0 0 
0 0 0 0 0 0 0 0 0 
0 0 0 0 0 0 0 0 0 
0 0 0 0 0 0 0 0 0 
0 0 0 0 0 0 0 0 0 
0 0 0 0 0 0 0 0 0 
0 0 0 0 0 0 0 0 0 
0 0 0 0 0 0 0 0 0 
0 0 0 0 0 0 0 0 0 
0 0 0 0 0 0 0 0 0 
0 0 0 0 0 0 0 1 0 
0 0 0 0 0 0 0 0 0 
0 0 0 0 0 0 0 0 0 
0 0 0 0 0 0 0 0 0 
0 0 0 0 0 0 0 0 0 
0 0 0 0 0 0 0 0 0 
0 0 0 0 0 0 0 0 0 
0 0 0 0 0 0 0 0 0 
0 0 0 0 0 0 0 0 0 
0 0 0 0 0 0 0 0 0 
0 0 0 0 0 0 0 0 0 
0 0 0 0 0 0 0 0 0 
0 0 0 0 0 0 1 0 0 
0 0 0 0 0 0 0 0 0 
0 0 0 0 0 0 0 0 0 
0 0 0 0 0 0 0 0 0 
0 0 0 0 0 0 0 0 0 
0 0 0 0 0 0 0 0 0 
0 0 0 0 0 0 0 0 0 
0 0 0 0 0 0 0 0 0 
0 0 0 0 0 0 0 0 0 
0 0 0 0 0 0 0 0 0 
0 0 0 0 0 0 0 0 0 
0 0 0 0 0 0 0 0 0 
0 0 0 0 0 0 -1 0 0 
0 0 0 0 0 0 0 0 0 
0 0 0 0 0 0 0 0 0 
0 0 0 0 0 0 0 0 0 
0 0 0 0 0 0 0 0 0 
0 0 0 0 0 0 0 0 0 
0 0 0 0 0 0 0 0 0 
0 0 0 0 0 0 0 0 0 
0 0 0 0 0 0 0 0 0 
0 0 0 0 0 0 0 0 0 
0 0 0 0 0 0 0 0 0 
0 0 0 0 0 0 0 0 0 
0 0 0 0 0 0 0 0 0 
0 0 0 0 0 0 0 0 0 
0 0 0 0 0 0 0 0 0 