# vtk DataFile Version 4.0
Generated by LIGGGHTS
ASCII
DATASET POLYDATA
POINTS 2000 float
-88.4957 -87.0049 9.99895 -95.6864 -116.403 9.99973 -107.128 -133.129 9.99676 
-117.656 -114.429 10.0009 -87.8863 -138.58 10.0521 -133.064 -132.608 9.99816 
-125.204 -88.04 9.98494 -104.935 -98.4659 10.5761 -120.369 -128.775 24.9668 
-110.093 -111.986 28.4965 -132.37 -112.256 23.3745 -117.21 -93.3273 27.5183 
-56.9499 -99.2743 9.99966 -30.7261 -129.853 9.99819 -74.815 -108.264 9.99993 
-66.1782 -132.988 10.0022 -80.1979 -123.897 21.2557 -39.369 -97.4851 19.3645 
-59.2885 -116.496 20.7274 -48.2759 -133.35 18.9253 0.495377 -105.042 9.99529 
-2.20688 -135.08 9.99973 22.6912 -100.787 9.99974 -20.8075 -97.8427 9.99973 
14.8234 -122.065 9.99872 -14.0469 -118.796 10.0059 7.92665 -130.205 26.9129 
25.1571 -87.1337 28.9637 6.54225 -90.096 21.8191 20.4412 -115.336 32.639 
36.1732 -104.63 24.2802 51.7288 -129.902 10.0028 71.008 -92.2793 9.99973 
34.5072 -118.549 10.0005 65.8661 -113.669 10.0005 27.9656 -136.191 18.8866 
78.9157 -135.103 9.98243 51.0005 -88.381 9.99519 140.33 -95.0582 18.8992 
117.745 -127.12 9.99806 131.029 -110.358 9.99648 106.141 -94.5036 9.99872 
89.7532 -114.454 9.99993 98.6181 -131.879 14.2175 121.15 -90.8898 22.7255 
89.8222 -85.7206 17.5131 133.893 -126.182 21.9644 114.043 -109.476 20.6469 
91.9389 -97.9321 33.25 -96.7886 -33.7535 19.5027 -113.783 -71.5745 10.2969 
-126.992 -50.267 10.0002 -114.345 -34.7736 9.99376 -94.0197 -66.4136 10.0007 
-107.96 -53.1392 15.4303 -101.342 -79.8828 23.5723 -133.454 -63.5202 23.5166 
-135.312 -41.4738 25.9184 -116.134 -37.299 29.8054 -91.304 -48.7759 31.5018 
-85.4549 -47.2139 9.99776 -141.881 -31.314 9.99706 -137.125 -81.0466 32.4238 
-32.7013 -73.7556 10.0049 -29.726 -52.541 9.99963 -50.7407 -80.8868 14.9067 
-62.6547 -65.5896 9.99973 -78.7075 -61.7482 21.9956 -57.0984 -34.363 25.9848 
-38.9841 -79.9778 31.0875 -25.6236 -64.2477 26.7001 14.1031 -55.1628 10.004 
-3.90999 -46.4355 10.001 4.30172 -73.038 9.99975 22.8125 -80.6235 9.99976 
-25.7405 -32.808 10.207 -14.4777 -65.5016 10.0138 -13.7915 -41.5017 26.6754 
-7.78383 -75.2842 26.1211 22.9842 -63.6881 25.7874 18.7904 -28.8381 33.8507 
40.4324 -71.1609 10.0246 53.6475 -51.6237 10.0005 70.2986 -62.7074 10.042 
33.738 -49.6984 10.0219 67.7047 -41.4289 20.8805 42.5706 -59.6937 26.5655 
44.7333 -83.1019 28.2332 60.3291 -68.9113 26.2326 85.0623 -44.9864 10.0451 
89.789 -67.1879 9.99482 131.541 -79.4144 10.0251 115.33 -54.4876 10.0683 
112.305 -75.0622 13.5663 112.45 -34.6236 10.4257 135.197 -56.8365 9.99858 
125.68 -37.273 25.4524 129.542 -68.7726 26.8925 -119.42 9.50811 10.0016 
-101.065 -7.66661 10.0589 -118.329 -17.9497 20.0425 -126.01 -0.481976 26.0231 
-107.592 26.2022 10.0446 -105.764 -5.21477 29.3955 -90.6285 -18.3807 30.6982 
-110.711 15.0352 28.9332 -84.4926 -19.1026 9.99973 -47.0576 0.0259671 9.99902 
-32.9322 -14.1376 9.99992 -76.0029 12.8904 24.9926 -36.4121 16.0018 27.1034 
-40.9809 -3.41787 28.7387 -37.8431 26.4537 9.99971 -6.73909 -26.5132 10.0225 
-25.3645 8.44818 10.0048 -13.5716 -7.70283 10.0017 26.2729 -3.47361 9.99989 
-1.42556 -1.52954 25.4631 4.43969 9.69978 9.99551 20.3965 5.59066 26.9018 
24.978 20.5812 9.9997 59.8426 -26.6037 9.99966 40.5994 9.01715 16.4423 
78.6372 -14.1063 9.99046 81.7204 13.8522 26.1648 57.6653 0.816946 9.99969 
65.593 19.8647 9.99973 36.1178 25.7839 28.3265 58.4824 20.5953 34.0433 
93.955 -26.9633 10.004 140.704 1.64837 9.99785 140.906 -13.5527 22.9916 
92.7023 18.1022 9.99941 94.4412 -1.83364 9.99977 138.154 21.5694 10.0242 
120.627 -18.2042 22.0905 114.454 -3.50509 9.99973 101.05 -14.5485 24.0129 
117.354 28.1102 10.0326 -87.6039 71.0916 9.99974 -114.494 86.5526 9.99978 
-111.338 58.1424 9.97086 -125.991 36.2092 9.99973 -85.6406 46.6348 10.0028 
-137.408 78.217 29.9623 -139.934 34.4022 24.9284 -128.244 54.6198 20.3158 
-100.116 40.2571 22.25 -118.273 34.9787 28.7777 -134.421 81.7468 9.99973 
-32.9975 69.1389 25.0908 -66.5026 60.583 10.0086 -50.7009 43.0074 9.99058 
-61.6207 49.0004 25.6344 -72.465 73.5678 24.0161 -81.2716 49.3377 29.3315 
22.2185 77.6297 10.0022 -0.445901 60.9042 9.99973 -22.5328 39.3416 10.0028 
12.4318 67.6679 24.3075 21.7594 56.4869 9.99973 2.86913 35.3535 33.751 
-4.39537 82.496 9.99452 29.1851 59.2447 31.5319 35.4008 37.6406 10.5805 
59.1445 44.4873 9.99953 84.9564 36.5315 10.6242 59.592 64.9424 10.6584 
41.9299 74.2935 9.99831 76.0892 53.9663 14.8009 71.2992 32.8401 24.7814 
51.7781 38.2807 27.5309 42.4217 55.3973 16.5347 79.3614 73.1123 10.0267 
67.0537 55.5531 32.5926 119.288 56.9966 9.99128 104.272 70.1965 9.99904 
103.619 43.7755 9.99909 136.584 46.9152 10.0186 95.8135 57.1378 22.7001 
117.906 42.7981 23.994 92.7307 78.834 23.8524 113.07 68.4916 27.9382 
130.061 71.9426 17.7505 86.7403 42.4381 33.1475 -115.452 118.361 24.9842 
-73.5342 139.32 25.8983 -76.0108 87.4061 10.0188 -54.5674 92.4607 9.99973 
-27.9507 116.808 9.99658 -47.3178 111.813 10.0136 -75.8389 107.408 10.0002 
-75.8681 127.408 10.0039 -53.3261 131.048 9.99973 -30.0123 104.001 25.2066 
-33.7977 134.051 18.2539 16.0047 128.724 9.98186 -12.7567 129.898 10.0102 
-1.98784 108.775 10.041 10.2785 87.5649 22.5964 17.2876 108.731 15.3922 
1.70264 130.936 23.846 -14.2776 116.328 24.6261 27.4009 95.6847 28.9816 
21.0744 127.783 29.2823 -10.0605 96.5271 23.6973 4.42947 112.147 30.3294 
-16.4188 139.994 26.8795 33.6976 94.5051 10.0095 62.8879 134.489 9.99979 
35.354 115.432 10.0033 55.7749 115.042 10.0564 42.0071 134.62 10.0002 
81.6413 121.344 10.0015 69.8201 124.449 25.8473 49.8831 126.092 26.2867 
61.7962 91.0024 34.7836 35.3234 113.754 32.3435 124.626 89.5498 9.99582 
87.0866 100.913 9.99973 116.072 107.622 10.04 138.184 132.528 10.0011 
111.904 135.756 10.0001 104.643 90.9092 10.598 135.71 111.379 9.99467 
100.956 119.763 14.9238 123.73 123.493 20.4738 139.822 95.9575 22.0606 
89.1665 123.042 30.7401 -138.669 -100.188 38.0289 -106.65 -132.795 38.9863 
-92.8361 -118.606 36.1244 -133.208 -124.032 39.5534 -115.862 -118.3 49.2853 
-91.1614 -124.437 56.7054 -117.683 -84.4019 61.3423 -87.4628 -137.068 75.4707 
-108.131 -122.323 67.4282 -131.873 -128.008 59.1087 -136.893 -112.201 71.4496 
-110.622 -131.481 85.1912 -129.631 -134.592 77.8603 -91.4499 -116.559 77.0044 
-81.1637 -133.712 42.0701 -72.344 -90.6314 40.862 -50.861 -118.246 39.1174 
-45.7095 -100.56 61.2876 -75.3229 -115.62 65.1907 -60.6742 -86.9799 73.7327 
-65.2977 -138.151 53.398 -56.6118 -119.677 59.3064 -42.1328 -132.109 53.2014 
-34.2462 -112.385 74.0011 -56.1401 -106.478 77.4452 -67.9277 -133.56 72.6864 
-56.2427 -140.671 35.7442 -34.2284 -139.182 36.2289 -49.1102 -124.471 84.3389 
-31.5711 -132.419 73.1914 -16.8535 -109.612 43.6653 16.4323 -98.5985 42.886 
5.01525 -136.923 45.5253 18.7381 -124.574 53.2246 7.34088 -116.125 68.6381 
-4.56972 -135.837 63.9146 -8.06009 -92.7358 73.1102 7.7878 -85.2979 55.6147 
25.1768 -137.435 39.3345 10.7337 -91.5803 79.9953 -14.6067 -121.327 76.683 
27.1075 -90.3049 65.5905 5.54928 -137.859 81.1304 21.6381 -108.422 80.9061 
23.1426 -128.254 83.1204 29.8273 -108.727 58.2992 72.5521 -125.43 42.9914 
39.3288 -122.731 32.2623 38.7526 -128.973 51.3226 54.156 -119 72.1117 
42.6097 -105.601 43.2135 75.712 -120.435 77.4762 35.9421 -135.975 69.8397 
40.5542 -104.562 74.6573 63.2222 -135.365 84.131 100.712 -117.378 62.1988 
109.554 -90.4045 39.0113 132.342 -135.63 39.8291 106.376 -119.339 36.2731 
118.537 -114.838 53.2968 127.618 -112.674 35.3795 111.402 -134.002 48.9127 
126.722 -97.0758 48.7259 98.0636 -138.302 63.1945 93.7137 -87.6932 50.9153 
138.446 -112.966 52.6153 108.429 -98.9236 59.9743 88.0372 -101.338 64.7905 
115.626 -130.106 68.1185 123.949 -104.163 71.6292 94.708 -126.422 79.191 
130.15 -123.852 80.3605 96.7867 -88.7431 77.6306 -118.436 -56.0835 36.2961 
-100.059 -65.684 37.6017 -134.356 -50.3375 51.1309 -87.7649 -65.8362 60.2241 
-104.967 -35.4838 62.9741 -133.312 -51.9294 77.71 -96.3085 -64.6069 80.7573 
-80.4712 -79.2722 73.136 -31.9732 -36.0741 50.3641 -78.592 -56.2603 45.0457 
-64.2852 -45.8473 58.3712 -66.4544 -65.1034 64.1179 -53.475 -41.121 74.7033 
-79.0612 -55.4189 76.2342 -62.8379 -69.5754 83.4276 -31.5878 -67.3723 66.0299 
-70.9022 -38.9234 84.3887 -34.0678 -35.2483 79.8687 27.093 -80.4875 48.0628 
9.99965 -75.7058 35.2623 -2.25232 -65.2095 47.0725 -9.44153 -46.3062 45.5957 
17.9696 -57.7502 74.6409 -8.53962 -37.5354 63.5646 53.1973 -46.5873 37.3103 
42.3193 -36.0943 58.7319 60.1702 -79.8642 59.4738 66.7041 -46.1577 52.394 
78.3511 -48.409 68.8936 57.9802 -46.6097 70.4943 68.9361 -30.0161 72.6695 
49.1174 -29.0678 77.2296 71.7967 -43.5615 87.1546 98.8889 -54.0843 41.1407 
137.787 -31.0424 40.4696 116.279 -81.0706 55.3891 133.582 -51.9625 37.0144 
135.984 -69.9885 46.5366 87.9671 -29.5956 63.6285 105.511 -72.307 70.2909 
130.771 -77.6593 68.7562 87.5478 -65.543 75.9301 126.785 -60.3209 77.8967 
118.481 -77.6697 84.538 -126.473 -22.1786 37.8349 -131.208 17.5395 32.9555 
-95.1782 0.35044 51.5195 -134.41 -4.81834 43.8064 -109.153 24.6355 47.8138 
-117.504 6.32665 45.728 -111.377 -1.08291 63.2587 -102.917 25.5587 70.6417 
-90.1928 22.8371 55.4296 -136.367 1.70046 62.6161 -111.866 10.2693 79.9307 
-130.636 15.7304 75.6716 -94.4954 -9.74228 84.2479 -78.3333 -15.0459 46.1082 
-45.215 16.2312 45.0864 -68.6346 -0.0257179 56.6894 -59.4518 17.7241 59.3629 
-51.5878 0.0826687 68.4487 -52.9474 -11.647 52.2991 -45.2387 -27.3057 62.6047 
-39.5741 9.78106 81.1776 -86.1901 7.01475 68.787 -71.0885 -27.1134 60.3085 
-59.9154 -18.5196 74.4868 -68.5556 12.3498 76.8757 -40.8357 -16.2458 80.0099 
-75.2649 -6.5762 79.2207 -18.7471 -4.0423 55.7672 15.3624 -8.71387 62.2883 
15.8356 7.97312 51.2758 24.191 23.3196 72.6954 5.77751 -24.1451 70.7586 
26.0753 2.0034 75.341 -8.97595 19.1798 81.3547 -4.71545 -9.82219 87.3185 
8.35113 10.7462 72.2584 26.8727 -22.6222 79.0365 -16.9365 -25.5933 84.4145 
29.7674 24.2004 53.4549 33.4055 2.75524 42.3175 65.6245 -12.6206 42.4465 
34.545 -14.363 61.9623 82.5195 17.9355 45.7526 42.2696 7.17055 64.7711 
72.5892 5.04322 71.8533 49.8411 -9.35529 73.836 51.9956 7.80994 84.0593 
[...]
POINT_DATA 2000
FIELD FieldData 7
id 1 2000 int
41 77 196 230 301 308 411 107 205 
282 106 55 53 85 259 296 439 157 
275 424 185 265 297 299 410 440 172 
95 351 336 49 33 300 376 408 437 
344 397 380 59 139 141 164 29 30 
201 379 335 434 36 142 338 414 456 
32 161 261 453 80 276 171 114 381 
112 143 231 246 215 10 273 211 115 
208 232 365 225 48 243 45 167 11 
113 174 222 318 108 354 149 285 200 
117 252 262 286 314 395 334 274 239 
342 66 147 238 255 443 309 413 50 
345 20 46 220 187 212 69 37 122 
358 390 416 347 359 123 197 256 264 
430 315 204 135 346 298 54 97 178 
213 271 404 330 84 138 199 320 362 
400 99 234 450 152 444 8 279 321 
250 384 378 195 240 399 186 111 12 
169 133 131 132 253 389 419 449 229 
369 375 102 72 34 154 221 266 173 
352 366 58 329 206 6 328 184 224 
88 168 179 311 455 295 385 62 302 
339 79 83 218 426 127 128 294 433 
78 341 110 227 396 421 429 251 242 
18 423 96 160 209 288 367 370 452 
116 198 284 203 244 343 438 442 166 
304 5 361 401 448 1864 1820 852 1025 
223 9 71 82 130 350 292 119 409 
290 383 1191 371 40 1007 1904 2 241 
355 156 64 76 210 293 263 1855 1873 
364 1584 1941 1011 418 22 216 144 165 
382 323 332 42 1715 137 47 51 283 
125 394 445 81 155 249 272 436 74 
1428 1281 1934 720 1920 245 425 331 388 
26 307 552 319 422 65 163 191 236 
1719 1793 23 1676 1730 39 75 417 281 
28 226 317 392 14 44 189 306 104 
118 931 25 183 86 313 398 386 180 
188 1317 1870 1643 405 278 43 412 129 
322 761 1508 303 326 764 1565 1819 151 
162 68 158 214 257 415 121 176 368 
175 427 353 1211 4 217 357 202 402 
268 94 190 349 120 1159 260 219 7 
100 153 333 432 457 70 63 291 15 
277 19 441 581 1015 1407 3 254 57 
228 393 145 177 420 1046 1600 1399 909 
1 270 387 109 170 181 140 312 324 
91 93 372 61 67 207 267 60 316 
73 87 1652 193 590 280 373 235 374 
16 194 310 148 431 789 1080 377 103 
233 337 35 258 356 24 159 182 435 
340 1430 1367 105 360 403 237 287 363 
92 348 21 1685 1398 1517 1852 27 428 
391 56 98 1807 1893 90 1087 1283 407 
289 446 101 192 13 124 1869 1400 923 
1589 269 146 136 305 52 150 325 1883 
1995 771 817 1501 406 38 126 17 31 
247 447 134 248 967 1140 1618 1447 1285 
1551 1922 480 1068 1694 1542 1293 1726 1249 
1878 1716 1938 1195 1749 903 1890 484 1382 
541 1173 1838 1999 668 1170 1331 1534 1982 
1845 520 1811 1945 327 952 1262 856 700 
1308 1665 1712 1854 1337 553 1450 1687 997 
651 548 1537 1781 654 1128 1988 1409 462 
1105 1189 1728 1994 1757 1051 1474 599 642 
661 911 914 1147 1149 1459 1649 866 1220 
974 486 1527 1840 1366 89 1603 1953 540 
1206 1275 1683 1488 489 1050 854 878 995 
1045 1171 1678 739 1077 1155 1520 1866 658 
1143 833 889 1799 864 874 1540 757 793 
1284 1894 1421 533 1725 985 1566 570 746 
1861 602 652 1365 1001 644 1225 1234 1415 
752 1673 779 622 1389 1656 1767 806 1167 
495 1729 454 1480 839 1112 1442 1908 842 
861 1013 1419 1034 1177 1628 1677 532 1956 
1460 754 1063 1031 1696 1163 1404 1023 1066 
712 1718 451 583 466 709 1340 1831 1271 
1745 1401 1391 1572 1602 1406 1444 1951 594 
960 1385 1417 1912 970 1579 1675 888 1119 
1124 1102 474 1975 580 1468 1499 1947 506 
1769 1533 1929 1194 1959 608 1200 1570 1362 
1529 1452 470 597 1679 853 566 674 701 
949 1720 1743 965 975 1803 1815 1884 841 
656 1416 564 1082 1706 1490 1773 1836 492 
1647 1865 741 1424 1606 660 729 1761 962 
968 1960 624 1470 673 1241 784 954 518 
1771 814 1131 1903 1017 1176 513 671 1021 
907 948 1071 1258 1601 1889 936 964 1433 
1896 469 951 1268 1591 1634 1156 838 562 
1842 621 775 1892 1561 1037 1054 1684 1178 
479 630 753 1829 946 728 573 845 1427 
461 475 1098 876 1734 718 1252 1342 1539 
1543 1117 810 1916 887 1827 1578 459 1324 
565 915 1552 626 875 906 1130 1586 675 
1209 1962 781 640 1203 1213 1120 969 1229 
1813 1978 862 1373 1874 1582 666 912 1042 
938 723 850 987 1328 521 1738 1093 539 
1099 1129 1465 1736 807 1756 530 1190 1496 
1850 722 1018 1332 1772 1554 1563 1881 1208 
698 799 1144 487 1343 493 471 1287 1495 
865 1309 1917 1369 788 1937 464 574 498 
809 894 935 1453 1341 1270 1558 1935 528 
1036 1475 643 1412 1834 1595 745 961 1334 
1414 901 1197 1333 628 1928 1074 919 1126 
1172 798 1653 1040 467 1481 892 1791 538 
953 1214 837 1261 1304 1620 1682 934 1052 
1108 1458 1577 713 1056 1740 1608 503 664 
1910 1326 966 1441 1638 1858 473 1477 1636 
1825 803 925 1355 1822 805 893 848 1931 
1891 1267 535 1438 531 1768 1708 559 1204 
1219 537 1201 1979 1911 1153 1525 1626 588 
1919 991 1216 749 981 1422 1503 1291 1965 
488 1231 1548 832 1461 1830 1125 1545 1844 
508 1053 1104 2000 1610 522 1667 1263 1359 
1387 696 990 1344 687 1058 1169 1662 944 
984 1633 801 1383 1483 1118 1614 835 1089 
1752 670 1462 1576 1980 1361 1487 1094 1059 
1121 1223 751 667 769 1205 1473 972 1661 
1352 1663 1974 496 736 1823 1254 1932 1187 
483 1088 886 1084 1100 1446 1930 1936 618 
686 730 1166 1222 758 1004 1491 1835 526 
1616 1622 1674 922 1564 1796 1966 515 1135 
896 740 1532 1550 476 589 611 616 871 
1300 916 1573 1632 1788 1805 725 770 902 
986 1507 1076 1467 632 1397 1707 523 1445 
1711 1569 1048 1062 1282 1494 575 994 1064 
1070 1269 1504 1318 569 682 1049 1524 1770 
645 1092 1701 1863 1114 895 1312 1948 732 
777 1575 1923 511 1925 904 1371 1613 1775 
1859 1887 623 705 1264 1466 1846 1918 600 
1073 999 1138 1619 1184 733 759 1255 1784 
1849 1303 797 1109 1134 1789 1963 525 1175 
1250 557 1146 1732 1722 472 1856 1041 1944 
1809 790 1043 1615 1798 1764 502 942 1952 
491 1879 1313 1418 1500 1957 1992 1226 604 
646 710 1629 800 825 1420 1939 1505 478 
1354 1702 1837 1360 697 1024 1029 1165 1760 
1964 551 1804 992 1596 1670 1906 1983 1440 
1055 820 1379 1514 545 920 1735 1101 1780 
1814 708 818 959 1245 1664 1060 595 1650 
1724 1991 1181 794 1585 1754 1790 685 1235 
1251 1350 529 831 1547 1828 1853 1860 1069 
1434 509 1090 822 1672 1026 1246 1598 763 
1067 1030 1377 1695 601 692 1122 1289 1469 
614 679 681 1061 1512 1604 742 755 868 
796 867 908 1210 1277 1832 1368 774 917 
1546 1297 1511 1623 1833 1035 510 1699 1877 
1457 1705 1310 780 830 918 1568 910 743 
870 1116 688 1150 482 607 765 1778 1425 
924 1493 1857 613 695 993 1151 1174 1348 
1559 1940 750 819 1305 1841 1783 1106 760 
1142 1556 631 1502 1530 1594 1976 885 1039 
1742 881 1969 929 1448 802 1192 1228 1247 
1276 1972 534 738 1808 1867 627 641 1336 
1704 549 572 1136 1429 655 699 998 1640 
1700 1072 1574 561 1078 1306 1549 1196 1641 
1741 1967 1358 463 1455 1897 567 1260 1356 
1818 1942 648 1290 1370 1810 647 1375 1432 
1737 1590 547 1376 592 928 1095 1408 1611 
1871 1961 678 524 715 1168 1509 988 1047 
1489 1949 1022 1162 1492 1666 1295 1006 1242 
1557 1160 1571 1905 1607 499 787 1009 1237 
1321 1357 1839 596 719 811 1660 1802 1993 
747 1005 1302 603 519 1139 1482 514 1256 
689 1973 586 1152 1439 516 815 855 649 
693 1107 1113 1476 1668 869 1327 485 1763 
620 571 650 1454 1901 500 1161 1538 1880 
468 1394 1316 1739 1792 680 791 717 821 
1423 1179 1513 703 1431 955 826 1392 1515 
1915 1617 945 971 1232 1876 1133 1516 829 
1273 1522 1642 1968 546 1065 1363 1958 891 
1307 1320 1426 1703 1776 558 1224 1396 1744 
1746 1977 477 836 1593 677 1581 1755 1882 
978 1010 612 744 827 1000 1580 1083 1555 
1758 1926 795 657 579 1353 1812 1821 1198 
1646 1826 1921 563 578 1541 762 1240 1311 
863 1338 1801 690 767 1148 1185 1762 1885 
517 1028 973 1137 1868 1914 1899 1079 1386 
711 731 1182 1230 860 1378 1627 1759 1091 
847 858 950 737 941 977 1288 1782 481 
958 1851 625 785 1132 1692 1787 899 1274 
1875 1996 577 1012 505 873 1374 1472 1886 
1597 1686 1721 1008 1014 1236 1464 1637 653 
1239 1651 1723 1955 637 812 1544 1862 634 
704 560 857 927 976 1278 1795 926 1322 
1800 591 576 1645 1221 1521 1592 542 1141 
1212 1411 1847 584 662 846 1215 1691 804 
937 1158 1671 663 772 1057 1325 1587 497 
843 1164 890 1032 1680 1697 1777 702 773 
1299 1635 1621 672 1690 963 1279 1436 1588 
568 1372 1085 605 1347 1817 1451 905 1301 
1927 507 1486 1345 766 816 1727 1747 1111 
556 669 716 879 1388 504 900 1449 756 
947 1751 1907 1127 587 980 1207 665 1298 
1933 1990 512 834 1086 1405 1689 1693 1027 
1097 734 748 1753 544 1188 939 1038 1314 
1485 1987 638 768 1019 1218 1351 1599 1766 
776 1888 1989 619 982 1413 610 1471 1797 
851 694 824 1123 1286 1478 1510 617 943 
1456 1748 1848 458 1985 1096 635 1688 1779 
956 1390 1339 1681 1943 606 783 996 490 
1954 683 957 1403 1463 1609 1280 593 1713 
1567 598 1257 1519 615 554 555 921 1016 
1669 1909 1717 1639 1624 1381 1075 813 724 
1330 1193 1265 1292 1733 1843 1410 1157 706 
989 1997 1971 1498 527 1714 897 1272 1393 
1950 1816 1402 1315 1081 636 543 1984 1655 
1562 1296 714 659 1946 1329 1227 1335 1786 
1443 1115 840 501 1583 1654 1658 1648 1484 
1346 930 1553 1349 1898 1380 1233 707 1238 
849 884 1044 1186 859 585 1709 1526 1103 
882 1794 1630 1266 940 933 1531 1998 1731 
1605 1180 1145 808 582 1970 877 844 778 
609 983 786 1020 1323 1981 536 1003 1110 
1497 1364 1002 1437 1644 1698 1243 880 1319 
1528 1560 1657 932 1384 1785 1259 639 465 
1824 691 1248 1518 1631 792 913 721 494 
898 1479 1612 1872 1895 735 726 1183 1294 
1435 1710 1506 1924 823 883 1625 1659 633 
1154 1253 1913 872 1202 1217 1535 1536 1765 
1806 1395 782 1244 1902 460 684 979 1750 
1199 629 727 550 1986 676 1774 1900 828 
1033 1523 
type 1 2000 int
1 1 1 1 1 1 1 1 1 
1 1 1 1 1 1 1 1 1 
1 1 1 1 1 1 1 1 1 
1 1 1 1 1 1 1 1 1 
1 1 1 1 1 1 1 1 1 
1 1 1 1 1 1 1 1 1 
1 1 1 1 1 1 1 1 1 
1 1 1 1 1 1 1 1 1 
1 1 1 1 1 1 1 1 1 
1 1 1 1 1 1 1 1 1 
1 1 1 1 1 1 1 1 1 
1 1 1 1 1 1 1 1 1 
1 1 1 1 1 1 1 1 1 
1 1 1 1 1 1 1 1 1 
1 1 1 1 1 1 1 1 1 
1 1 1 1 1 1 1 1 1 
1 1 1 1 1 1 1 1 1 
1 1 1 1 1 1 1 1 1 
1 1 1 1 1 1 1 1 1 
1 1 1 1 1 1 1 1 1 
1 1 1 1 1 1 1 1 1 
1 1 1 1 1 1 1 1 1 
1 1 1 1 1 1 1 1 1 
1 1 1 1 1 1 1 1 1 
1 1 1 1 1 1 1 1 1 
1 1 1 1 1 1 1 1 1 
1 1 1 1 1 1 1 1 1 
1 1 1 1 1 1 1 1 1 
1 1 1 1 1 1 1 1 1 
1 1 1 1 1 1 1 1 1 
1 1 1 1 1 1 1 1 1 
1 1 1 1 1 1 1 1 1 
1 1 1 1 1 1 1 1 1 
1 1 1 1 1 1 1 1 1 
1 1 1 1 1 1 1 1 1 
1 1 1 1 1 1 1 1 1 
1 1 1 1 1 1 1 1 1 
1 1 1 1 1 1 1 1 1 
1 1 1 1 1 1 1 1 1 
1 1 1 1 1 1 1 1 1 
1 1 1 1 1 1 1 1 1 
1 1 1 1 1 1 1 1 1 
1 1 1 1 1 1 1 1 1 
1 1 1 1 1 1 1 1 1 
1 1 1 1 1 1 1 1 1 
1 1 1 1 1 1 1 1 1 
1 1 1 1 1 1 1 1 1 
1 1 1 1 1 1 1 1 1 
1 1 1 1 1 1 1 1 1 
1 1 1 1 1 1 1 1 1 
1 1 1 1 1 1 1 1 1 
1 1 1 1 1 1 1 1 1 
1 1 1 1 1 1 1 1 1 
1 1 1 1 1 1 1 1 1 
1 1 1 1 1 1 1 1 1 
1 1 1 1 1 1 1 1 1 
1 1 1 1 1 1 1 1 1 
1 1 1 1 1 1 1 1 1 
1 1 1 1 1 1 1 1 1 
1 1 1 1 1 1 1 1 1 
1 1 1 1 1 1 1 1 1 
1 1 1 1 1 1 1 1 1 
1 1 1 1 1 1 1 1 1 
1 1 1 1 1 1 1 1 1 
1 1 1 1 1 1 1 1 1 
1 1 1 1 1 1 1 1 1 
1 1 1 1 1 1 1 1 1 
1 1 1 1 1 1 1 1 1 
1 1 1 1 1 1 1 1 1 
1 1 1 1 1 1 1 1 1 
1 1 1 1 1 1 1 1 1 
1 1 1 1 1 1 1 1 1 
1 1 1 1 1 1 1 1 1 
1 1 1 1 1 1 1 1 1 
1 1 1 1 1 1 1 1 1 
1 1 1 1 1 1 1 1 1 
1 1 1 1 1 1 1 1 1 
1 1 1 1 1 1 1 1 1 
1 1 1 1 1 1 1 1 1 
1 1 1 1 1 1 1 1 1 
1 1 1 1 1 1 1 1 1 
1 1 1 1 1 1 1 1 1 
1 1 1 1 1 1 1 1 1 
1 1 1 1 1 1 1 1 1 
1 1 1 1 1 1 1 1 1 
1 1 1 1 1 1 1 1 1 
1 1 1 1 1 1 1 1 1 
1 1 1 1 1 1 1 1 1 
1 1 1 1 1 1 1 1 1 
1 1 1 1 1 1 1 1 1 
1 1 1 1 1 1 1 1 1 
1 1 1 1 1 1 1 1 1 
1 1 1 1 1 1 1 1 1 
1 1 1 1 1 1 1 1 1 
1 1 1 1 1 1 1 1 1 
1 1 1 1 1 1 1 1 1 
1 1 1 1 1 1 1 1 1 
1 1 1 1 1 1 1 1 1 
1 1 1 1 1 1 1 1 1 
1 1 1 1 1 1 1 1 1 
1 1 1 1 1 1 1 1 1 
1 1 1 1 1 1 1 1 1 
1 1 1 1 1 1 1 1 1 
1 1 1 1 1 1 1 1 1 
1 1 1 1 1 1 1 1 1 
1 1 1 1 1 1 1 1 1 
1 1 1 1 1 1 1 1 1 
1 1 1 1 1 1 1 1 1 
1 1 1 1 1 1 1 1 1 
1 1 1 1 1 1 1 1 1 
1 1 1 1 1 1 1 1 1 
1 1 1 1 1 1 1 1 1 
1 1 1 1 1 1 1 1 1 
1 1 1 1 1 1 1 1 1 
1 1 1 1 1 1 1 1 1 
1 1 1 1 1 1 1 1 1 
1 1 1 1 1 1 1 1 1 
1 1 1 1 1 1 1 1 1 
1 1 1 1 1 1 1 1 1 
1 1 1 1 1 1 1 1 1 
1 1 1 1 1 1 1 1 1 
1 1 1 1 1 1 1 1 1 
1 1 1 1 1 1 1 1 1 
1 1 1 1 1 1 1 1 1 
1 1 1 1 1 1 1 1 1 
1 1 1 1 1 1 1 1 1 
1 1 1 1 1 1 1 1 1 
1 1 1 1 1 1 1 1 1 
1 1 1 1 1 1 1 1 1 
1 1 1 1 1 1 1 1 1 
1 1 1 1 1 1 1 1 1 
1 1 1 1 1 1 1 1 1 
1 1 1 1 1 1 1 1 1 
1 1 1 1 1 1 1 1 1 
1 1 1 1 1 1 1 1 1 
1 1 1 1 1 1 1 1 1 
1 1 1 1 1 1 1 1 1 
1 1 1 1 1 1 1 1 1 
1 1 1 1 1 1 1 1 1 
1 1 1 1 1 1 1 1 1 
1 1 1 1 1 1 1 1 1 
1 1 1 1 1 1 1 1 1 
1 1 1 1 1 1 1 1 1 
1 1 1 1 1 1 1 1 1 
1 1 1 1 1 1 1 1 1 
1 1 1 1 1 1 1 1 1 
1 1 1 1 1 1 1 1 1 
1 1 1 1 1 1 1 1 1 
1 1 1 1 1 1 1 1 1 
1 1 1 1 1 1 1 1 1 
1 1 1 1 1 1 1 1 1 
1 1 1 1 1 1 1 1 1 
1 1 1 1 1 1 1 1 1 
1 1 1 1 1 1 1 1 1 
1 1 1 1 1 1 1 1 1 
1 1 1 1 1 1 1 1 1 
1 1 1 1 1 1 1 1 1 
1 1 1 1 1 1 1 1 1 
1 1 1 1 1 1 1 1 1 
1 1 1 1 1 1 1 1 1 
1 1 1 1 1 1 1 1 1 
1 1 1 1 1 1 1 1 1 
1 1 1 1 1 1 1 1 1 
1 1 1 1 1 1 1 1 1 
1 1 1 1 1 1 1 1 1 
1 1 1 1 1 1 1 1 1 
1 1 1 1 1 1 1 1 1 
1 1 1 1 1 1 1 1 1 
1 1 1 1 1 1 1 1 1 
1 1 1 1 1 1 1 1 1 
1 1 1 1 1 1 1 1 1 
1 1 1 1 1 1 1 1 1 
1 1 1 1 1 1 1 1 1 
1 1 1 1 1 1 1 1 1 
1 1 1 1 1 1 1 1 1 
1 1 1 1 1 1 1 1 1 
1 1 1 1 1 1 1 1 1 
1 1 1 1 1 1 1 1 1 
1 1 1 1 1 1 1 1 1 
1 1 1 1 1 1 1 1 1 
1 1 1 1 1 1 1 1 1 
1 1 1 1 1 1 1 1 1 
1 1 1 1 1 1 1 1 1 
1 1 1 1 1 1 1 1 1 
1 1 1 1 1 1 1 1 1 
1 1 1 1 1 1 1 1 1 
1 1 1 1 1 1 1 1 1 
1 1 1 1 1 1 1 1 1 
1 1 1 1 1 1 1 1 1 
1 1 1 1 1 1 1 1 1 
1 1 1 1 1 1 1 1 1 
1 1 1 1 1 1 1 1 1 
1 1 1 1 1 1 1 1 1 
1 1 1 1 1 1 1 1 1 
1 1 1 1 1 1 1 1 1 
1 1 1 1 1 1 1 1 1 
1 1 1 1 1 1 1 1 1 
1 1 1 1 1 1 1 1 1 
1 1 1 1 1 1 1 1 1 
1 1 1 1 1 1 1 1 1 
1 1 1 1 1 1 1 1 1 
1 1 1 1 1 1 1 1 1 
1 1 1 1 1 1 1 1 1 
1 1 1 1 1 1 1 1 1 
1 1 1 1 1 1 1 1 1 
1 1 1 1 1 1 1 1 1 
1 1 1 1 1 1 1 1 1 
1 1 1 1 1 1 1 1 1 
1 1 1 1 1 1 1 1 1 
1 1 1 1 1 1 1 1 1 
1 1 1 1 1 1 1 1 1 
1 1 1 1 1 1 1 1 1 
1 1 1 1 1 1 1 1 1 
1 1 1 1 1 1 1 1 1 
1 1 1 1 1 1 1 1 1 
1 1 1 1 1 1 1 1 1 
1 1 1 1 1 1 1 1 1 
1 1 1 1 1 1 1 1 1 
1 1 1 1 1 1 1 1 1 
1 1 1 1 1 1 1 1 1 
1 1 1 1 1 1 1 1 1 
1 1 1 1 1 1 1 1 1 
1 1 
i 3 2000 int
0 0 0 0 0 0 0 0 0 
0 0 0 0 0 0 0 0 0 
0 0 0 0 0 0 0 0 0 
0 0 0 0 0 0 0 0 0 
0 0 0 0 0 0 0 0 0 
0 0 0 0 0 0 0 0 0 
0 0 0 0 0 0 0 0 0 
0 0 0 0 0 0 0 0 0 
0 0 0 0 0 0 0 0 0 
0 0 0 0 0 0 0 0 0 
0 0 0 0 0 0 0 0 0 
0 0 0 0 0 0 0 0 0 
0 1 0 0 0 0 -1 0 0 
0 0 0 0 0 0 0 0 0 
0 0 0 0 0 0 0 0 0 
0 0 0 0 0 0 0 0 0 
0 0 0 0 0 0 0 0 0 
0 0 0 0 0 0 0 0 0 
0 0 0 0 0 0 0 0 0 
0 0 0 0 0 0 0 0 0 
0 0 0 0 0 0 0 0 0 
0 0 0 0 0 0 0 0 0 
0 0 0 0 0 0 0 0 0 
0 0 0 0 0 0 0 0 0 
0 0 0 0 0 0 0 0 0 
0 0 0 0 0 0 0 0 0 
0 0 0 0 0 0 0 0 0 
0 0 0 0 0 0 0 0 0 
0 0 0 0 0 0 0 0 0 
0 0 0 0 0 0 0 0 0 
0 0 0 0 0 0 0 0 0 
0 0 0 0 0 0 0 0 0 
0 0 0 0 0 0 0 0 0 
0 0 0 0 0 0 0 0 0 
0 0 0 0 0 0 0 0 0 
0 0 0 0 0 0 0 0 0 
0 0 0 0 0 0 0 0 0 
0 0 0 0 0 0 0 0 0 
0 0 0 0 0 0 0 0 0 
0 0 0 0 0 0 0 0 0 
0 0 0 0 0 0 0 0 0 
0 0 0 0 0 0 0 0 0 
0 0 0 0 0 0 0 0 0 
0 0 0 -1 0 0 0 0 0 
0 0 0 0 0 0 0 0 0 
0 0 0 0 0 0 0 0 0 
0 0 0 0 0 0 0 0 0 
0 0 0 0 0 0 0 0 0 
0 0 0 0 0 0 0 0 0 
0 0 0 0 0 0 0 0 0 
0 0 0 0 0 0 0 0 0 
0 0 0 0 0 0 0 0 0 
0 0 0 0 0 0 0 0 0 
0 0 0 0 0 0 0 0 0 
0 0 0 0 0 0 0 0 0 
0 0 0 0 0 0 0 0 0 
0 0 0 0 0 0 0 0 0 
0 0 0 0 0 0 0 0 0 
0 0 0 0 0 0 0 0 0 
0 0 0 0 0 0 0 0 0 
0 0 0 0 0 0 0 0 0 
0 0 0 0 0 0 0 0 0 
0 -1 0 0 0 0 0 0 0 
0 0 0 0 0 0 0 0 0 
0 0 0 0 0 0 0 0 0 
0 0 0 0 0 0 0 0 0 
0 0 0 0 0 0 0 0 0 
0 0 0 0 0 0 0 0 0 
0 0 0 0 0 0 0 0 0 
0 0 0 0 0 0 0 0 0 
0 0 0 0 0 0 0 0 0 
0 0 0 0 0 0 0 0 0 
0 0 0 0 0 0 0 0 0 
0 0 0 0 0 0 0 0 0 
0 0 0 0 0 0 0 0 0 
0 0 0 0 0 0 0 0 0 
0 0 0 0 0 0 0 0 0 
0 0 0 0 0 0 0 0 0 
0 0 0 0 0 0 0 0 0 
0 0 0 0 0 0 0 0 0 
0 0 0 0 0 0 0 0 0 
0 0 0 0 0 0 0 0 0 
0 0 0 0 0 0 0 0 0 
0 1 0 0 0 0 0 0 0 
0 0 0 0 0 0 0 0 0 
0 0 0 0 1 0 0 0 0 
0 0 0 0 0 0 0 0 0 
0 0 0 0 0 0 0 0 0 
0 0 0 0 0 0 0 0 0 
0 0 0 0 0 0 0 0 0 
0 0 0 0 0 0 0 0 0 
0 0 0 0 0 0 0 0 0 
0 0 0 0 0 0 0 0 0 
0 0 0 0 0 0 0 0 0 
0 0 0 0 0 0 0 0 0 
0 0 0 0 0 0 0 0 0 
0 0 0 0 0 0 0 0 0 
0 0 0 0 0 0 0 0 0 
0 0 0 0 0 0 0 0 0 
0 0 0 0 0 0 0 0 0 
0 0 0 0 0 0 0 0 0 
0 0 0 0 0 0 0 0 0 
0 0 0 0 0 0 0 0 0 
0 0 0 0 0 0 0 0 0 
0 0 0 0 0 0 0 0 0 
0 0 0 0 0 0 0 0 0 
0 0 0 0 0 0 0 0 0 
0 0 0 0 0 0 0 0 0 
0 0 0 0 0 0 0 0 0 
0 0 0 0 0 0 0 0 0 
0 0 0 0 0 0 0 0 0 
0 0 0 0 0 0 0 0 0 
0 0 0 0 0 0 0 0 0 
0 0 0 0 0 0 0 0 0 
0 0 0 0 0 0 0 0 0 
0 0 0 0 0 0 0 0 0 
0 0 0 1 0 0 0 0 0 
0 0 0 0 0 0 0 0 0 
0 0 0 1 0 0 0 0 0 
0 0 0 0 0 0 0 0 0 
0 0 0 0 0 0 0 0 0 
0 0 0 0 0 0 0 0 0 
0 0 0 0 0 0 0 0 0 
0 0 0 0 0 0 0 0 0 
0 0 0 0 0 0 0 0 0 
0 0 0 0 0 0 0 0 0 
0 0 0 0 0 0 0 0 0 
0 0 0 0 0 0 0 0 0 
0 0 0 0 0 0 0 0 0 
0 0 0 0 0 0 0 0 0 
0 0 0 0 0 0 0 0 0 
0 0 0 0 0 0 0 0 0 
0 0 0 0 0 0 0 0 0 
0 0 0 0 0 0 0 0 0 
0 0 0 0 0 0 0 0 0 
0 0 0 0 0 0 0 0 0 
0 0 0 0 0 0 0 0 0 
0 0 0 0 0 0 0 0 0 
0 0 0 0 0 0 0 0 0 
0 0 0 0 0 0 0 0 0 
0 0 0 0 0 0 0 0 0 
0 0 0 0 0 0 0 0 0 
0 0 0 0 0 0 0 0 0 
0 0 0 0 0 0 0 0 0 
0 0 0 0 0 0 0 0 0 
0 0 0 0 0 0 0 0 0 
0 0 0 0 0 0 0 0 0 
0 0 0 0 0 0 0 0 0 
0 0 0 0 0 0 0 0 0 
0 0 0 -1 0 0 0 0 0 
0 0 0 0 0 0 0 0 0 
0 0 0 0 0 0 0 0 0 
0 0 0 0 0 0 0 0 0 
0 0 0 0 0 0 0 0 0 
0 0 0 0 0 0 0 0 0 
0 0 0 0 0 0 0 0 0 
0 0 0 0 0 0 0 0 0 
0 0 0 0 0 0 0 0 0 
0 0 0 0 0 0 0 0 0 
0 0 0 0 0 0 0 0 0 
0 0 0 0 0 0 0 0 0 
0 0 0 0 0 0 0 0 0 
0 -1 0 0 0 0 0 0 0 
0 0 0 0 0 0 0 0 0 
0 0 0 0 0 0 0 0 0 
0 0 0 0 -1 0 0 0 0 
0 0 0 0 0 0 0 0 0 
0 0 0 0 0 0 0 0 0 
0 0 0 0 0 0 0 0 0 
0 0 0 -1 0 0 0 -1 0 
-1 0 0 0 0 0 0 0 0 
0 0 0 0 0 0 0 0 0 
0 0 0 0 0 0 0 0 0 
0 0 0 0 0 0 0 0 0 
0 0 0 0 0 0 0 0 0 
0 0 0 0 0 0 0 0 0 
0 0 0 0 0 0 0 0 0 
0 0 0 0 0 0 0 0 0 
0 0 0 0 0 0 0 0 0 
0 0 0 0 0 0 0 0 0 
0 0 0 0 0 0 0 0 0 
0 0 0 0 0 0 0 0 0 
0 0 0 0 0 0 0 0 0 
0 0 0 0 0 0 0 0 0 
0 0 0 0 0 0 0 0 0 
0 0 0 -1 0 0 0 0 0 
0 0 0 0 0 0 0 0 0 
0 0 0 0 0 0 0 0 0 
0 0 0 0 0 0 0 0 0 
0 0 0 0 0 0 0 0 0 
0 0 0 0 0 0 0 0 0 
0 0 0 0 0 0 0 0 0 
0 0 0 0 0 0 0 0 0 
0 0 0 1 0 0 0 0 0 
0 0 0 0 0 0 0 0 0 
0 0 0 0 0 0 0 0 0 
0 0 0 0 0 0 0 0 0 
0 0 0 0 0 0 0 0 0 
0 0 0 0 0 0 0 0 0 
0 0 0 0 0 0 0 0 0 
0 0 0 0 0 0 0 0 0 
0 0 0 0 0 0 0 0 0 
0 0 0 0 0 0 0 0 0 
0 0 0 0 0 0 0 0 0 
0 0 0 0 0 0 0 0 0 
0 0 0 0 0 0 0 0 0 
0 0 0 0 0 0 0 0 0 
0 0 0 0 0 0 0 0 0 
0 0 0 0 0 0 0 0 0 
0 0 0 0 0 0 0 0 0 
0 0 0 0 0 0 0 0 0 
0 0 0 0 0 0 0 0 0 
0 0 0 0 0 0 0 0 0 
0 0 0 0 0 0 0 0 0 
0 0 0 0 0 0 0 0 0 
0 0 0 0 0 0 0 0 0 
0 0 0 0 0 0 0 0 0 
0 0 0 0 0 0 0 0 0 
0 0 0 0 0 0 0 0 0 
0 0 0 0 0 0 0 0 0 
0 0 0 0 0 0 0 0 0 
0 0 0 0 0 0 0 0 0 
0 0 0 0 0 0 0 0 0 
0 0 0 0 0 0 0 0 0 
0 0 0 0 0 0 0 0 0 
0 0 0 0 0 0 0 0 0 
0 0 0 0 0 0 0 0 0 
0 0 0 0 0 0 0 0 0 
0 0 0 0 0 0 0 0 0 
0 0 0 0 0 0 0 0 0 
0 0 0 0 0 0 0 0 0 
0 0 0 0 0 0 0 0 0 
0 0 0 0 0 0 0 0 0 
0 0 0 0 0 0 0 0 0 
0 0 0 0 0 0 0 0 0 
0 0 0 0 0 0 0 0 0 
0 0 0 0 0 0 0 0 0 
0 0 0 0 0 0 0 0 0 
0 0 0 0 0 0 0 0 0 
0 0 0 0 0 0 0 0 0 
0 0 0 0 0 0 0 0 0 
0 0 0 0 0 0 0 0 0 
0 0 0 0 0 0 0 0 0 
0 0 0 0 0 0 0 0 0 
0 0 0 0 0 0 0 0 0 
0 0 0 0 0 0 0 0 0 
0 0 0 0 0 0 0 0 0 
0 0 0 0 0 0 0 0 0 
0 0 0 0 0 0 0 0 0 
0 0 0 0 0 0 0 0 0 
0 0 0 0 0 0 0 0 0 
0 0 0 0 0 0 0 0 0 
0 0 0 0 0 0 0 0 0 
0 0 0 0 0 0 0 0 0 
0 0 0 0 0 0 0 0 0 
0 0 0 0 0 0 0 0 0 
0 0 0 0 0 0 0 0 0 
0 0 0 0 0 0 0 0 0 
0 0 0 0 0 0 0 0 0 
0 0 0 0 0 0 0 0 0 
0 0 0 0 0 0 0 0 0 
0 0 0 0 0 0 0 0 0 
0 0 0 0 0 0 0 0 0 
0 0 0 0 0 0 0 0 0 
0 0 0 0 0 0 0 0 0 
0 0 0 0 0 0 0 0 0 
0 0 0 0 0 0 0 0 0 
0 0 0 0 0 0 0 0 0 
0 0 0 0 0 0 0 0 0 
0 0 0 0 0 0 0 0 0 
0 0 0 0 0 0 0 0 0 
0 0 0 0 0 0 0 0 0 
0 0 0 0 0 0 0 0 0 
0 0 0 0 0 0 0 0 0 
0 0 0 0 0 0 0 0 0 
0 0 0 0 0 0 0 0 0 
0 0 0 0 0 0 0 0 0 
0 0 0 0 0 0 0 0 0 
0 0 0 0 0 0 0 0 0 
0 0 0 0 0 0 0 0 0 
0 0 0 0 0 0 0 0 0 
0 0 0 0 0 0 0 0 0 
0 0 0 0 0 0 0 0 0 
0 0 0 0 0 0 0 0 0 
0 0 0 0 0 0 0 0 0 
0 0 0 0 0 0 0 0 0 
0 0 0 0 0 0 0 0 0 
0 0 0 0 0 0 0 0 0 
0 0 0 0 0 0 0 0 0 
0 0 0 0 0 0 0 0 0 
0 0 0 0 0 0 0 0 0 
0 0 0 0 0 0 0 0 0 
0 0 0 0 0 0 0 0 0 
0 0 0 0 0 0 0 0 0 
0 0 0 0 0 0 0 0 0 
0 0 0 0 0 0 0 0 0 
0 0 0 0 0 0 0 0 0 
0 0 0 0 0 0 0 0 0 
0 0 0 0 0 0 0 0 0 
0 0 0 0 0 0 0 0 0 
0 0 0 0 0 0 0 0 0 
0 0 0 0 0 0 0 0 0 
0 0 0 0 0 0 0 0 0 
0 0 0 0 0 0 0 0 0 
0 0 0 0 0 0 0 0 0 
0 0 0 0 0 0 0 0 0 
0 0 0 0 0 0 0 0 0 
0 0 0 0 0 0 0 0 0 
0 0 0 0 0 0 0 0 0 
0 0 0 0 0 0 0 0 0 
0 0 0 0 0 0 0 0 0 
0 0 0 0 0 0 0 0 0 
0 0 0 0 0 0 0 0 0 
0 0 0 0 0 0 0 0 0 
0 0 0 0 0 0 0 0 0 
0 0 0 0 0 0 0 -1 0 
0 0 0 0 0 0 0 0 0 
0 0 0 0 0 0 0 0 0 
0 0 0 0 0 0 0 0 0 
0 0 0 0 0 0 0 0 0 
0 0 0 0 0 0 0 0 0 
0 0 0 0 0 0 0 0 0 
0 0 0 0 0 0 0 0 0 
0 0 0 0 0 0 0 0 0 
0 0 0 0 0 0 0 0 0 
0 0 0 0 0 0 0 0 0 
0 0 0 0 0 0 0 0 0 
0 0 0 0 0 0 0 0 0 
0 0 0 0 0 0 0 0 0 
0 0 0 0 0 0 0 0 0 
0 0 0 0 0 0 0 0 0 
0 0 0 0 0 0 0 0 0 
0 0 0 0 0 0 0 0 0 
0 0 0 0 0 0 0 0 0 
0 0 0 0 0 0 0 0 0 
0 0 0 0 0 0 0 0 0 
0 0 0 0 0 0 0 0 0 
0 0 0 0 0 0 0 0 0 
0 0 0 0 0 0 0 0 0 
0 0 0 0 0 0 0 0 0 
0 0 0 0 0 0 0 0 0 
0 0 0 0 0 0 0 0 0 
0 0 0 0 0 0 0 0 0 
0 0 0 0 0 0 0 0 0 
0 0 0 0 0 0 0 0 0 