# vtk DataFile Version 4.0
Generated by LIGGGHTS
ASCII
DATASET POLYDATA
POINTS 2000 float
-87.7334 -92.4942 9.99698 -95.0395 -113.762 9.99973 -105.993 -131.221 9.99512 
-117.445 -114.826 9.99768 -127.725 -132.935 9.99973 -107.14 -97.6823 9.99611 
-117.247 -127.022 25.9797 -109.701 -108.555 27.3588 -133.17 -115.486 22.3329 
-118.513 -90.7722 24.9192 -92.4689 -118.152 30.6425 -56.6088 -101.177 9.98889 
-30.7148 -122.829 9.9999 -75.6919 -108.585 10.0016 -66.3276 -139.486 9.99973 
-79.0414 -126.51 18.4059 -37.9088 -105.123 15.8905 -60.3293 -119.729 16.4559 
-47.0797 -134.1 12.2433 -59.1379 -140.713 31.678 -38.7235 -138.898 29.908 
-33.5755 -85.8259 22.6502 -50.2056 -122.909 33.4066 -1.99326 -104.509 10.0116 
1.22171 -138.682 9.99897 17.9103 -102.351 9.99301 -20.5409 -96.9929 9.99957 
9.84416 -120.644 9.99825 -10.7187 -122.632 9.98809 8.25283 -130.997 27.0704 
20.7446 -92.1148 26.9268 0.919983 -91.052 24.5258 20.6373 -114.266 26.0194 
25.3237 -131.428 16.6589 38.7089 -100.097 22.8139 55.3391 -128.022 9.98482 
38.2603 -115.443 9.99691 65.1682 -110.605 9.99929 47.6135 -87.5879 9.99967 
40.5657 -122.244 28.6594 84.3591 -104.978 9.99929 138.475 -97.2455 17.8149 
117.52 -127.991 9.99407 132.381 -114.61 9.98962 100.064 -92.5983 9.99848 
94.3864 -124.78 9.99973 119.119 -92.3714 16.0767 136.51 -131.129 20.4743 
109.79 -109.803 13.0597 93.5016 -100.649 27.2834 130.529 -111.452 29.6394 
105.843 -121.175 29.0309 119.216 -139.17 26.482 111.454 -93.5343 34.5122 
-130.238 -84.4714 9.99778 -95.7807 -32.7813 15.7652 -112.421 -75.1452 9.99974 
-121.832 -57.4381 9.99684 -113.875 -39.0897 9.99902 -89.7835 -72.3415 9.99998 
-102.415 -57.592 14.7855 -99.8869 -83.5355 23.1393 -132.568 -68.8914 22.3828 
-132.729 -49.0044 24.4895 -114.685 -42.1624 29.7439 -91.003 -47.2293 28.8522 
-84.7458 -49.5368 9.99788 -139.973 -84.3501 32.681 -114.588 -62.7372 29.7972 
-138.737 -36.5707 9.99954 -95.1818 -66.3166 33.1229 -31.959 -68.219 9.99973 
-48.7279 -82.6065 9.99973 -59.5918 -65.8133 9.99973 -75.8822 -63.5538 21.3853 
-57.8353 -32.927 24.9915 -23.8923 -47.024 9.99657 -17.7373 -55.8817 26.8355 
11.2441 -57.1666 9.99861 -3.06357 -42.7859 9.99973 4.87722 -77.8921 9.998 
25.2675 -81.5884 10.0338 -8.12737 -62.1388 9.99923 -15.3519 -32.2588 25.4418 
-15.4279 -79.1761 17.5098 23.7686 -65.7623 23.0047 7.7284 -73.7482 31.8798 
67.1718 -83.4093 9.99969 37.7103 -79.8906 25.6441 44.5585 -67.8228 9.99976 
50.3398 -46.3823 10.027 72.3244 -56.035 9.99344 30.8847 -51.2722 9.99605 
71.3488 -41.3061 23.4801 40.9718 -56.2213 26.5905 59.7641 -62.5867 24.1022 
53.3095 -41.4839 32.1108 61.2456 -29.6163 9.99958 84.7999 -83.6684 19.4432 
86.1943 -40.8001 9.99975 90.7444 -66.9443 9.98956 132.565 -78.8725 9.9976 
118.461 -58.5519 9.99955 108.338 -75.0759 14.9433 114.363 -38.9852 10.5708 
138.442 -57.6328 10.0079 129.502 -42.8952 23.0619 125.027 -73.2677 27.6522 
-119.798 5.20063 9.99864 -104.508 -10.4948 9.99843 -123.122 -21.4616 11.9952 
-132.576 -3.98538 22.3388 -108.533 -12.3599 29.4979 -89.7767 -19.3848 29.6332 
-111.13 14.4275 25.49 -85.126 -16.8678 9.99973 -129.793 21.5759 24.679 
-106.007 26.0199 9.99972 -123.312 -24.7119 34.8764 -45.5955 5.43285 9.99565 
-29.7577 -6.78052 9.99895 -76.1452 13.5927 24.9913 -28.3006 22.2876 27.0127 
-42.2993 -1.09864 28.6072 -38.1343 26.0456 9.99973 -26.6977 -26.5442 9.99806 
22.058 -25.7311 32.2318 -6.29177 -23.0234 9.99973 -21.6898 14.0724 9.99972 
-10.0213 -3.36734 9.99973 1.67253 1.91467 25.5685 7.6965 12.8651 9.98024 
20.7987 8.62163 25.6422 26.4852 19.7094 9.99843 33.4631 -0.609377 9.99973 
47.5134 13.71 9.99973 81.8487 -15.0676 9.99163 60.8312 -1.64257 9.99107 
71.3776 20.1992 9.99973 38.4168 22.6789 25.7683 62.2267 19.7002 29.0833 
39.2465 4.67188 34.4159 139.628 -16.4119 9.99948 87.5651 14.2758 20.8129 
99.3737 -25.7568 9.99963 138.069 6.90406 9.99247 103.853 18.4904 10.0013 
96.2062 -0.300678 9.99973 139.685 26.8859 10.0033 122.042 -21.9656 17.7365 
119.107 -3.62284 9.99516 105.505 -12.4395 23.7238 -88.9138 67.6228 9.99008 
-111.947 59.6934 9.99558 -127.161 40.9705 9.9992 -136.73 78.8427 29.8353 
-129.622 63.1867 18.6823 -99.1216 46.2854 17.4774 -116.18 39.888 26.6787 
-130.876 81.2802 10.0003 -140.85 39.5942 25.385 -80.6182 44.9807 9.99968 
-35.4354 69.443 24.9965 -66.674 63.2159 9.99972 -52.8985 40.459 9.99973 
-64.3495 49.4775 24.3471 -72.6382 74.6915 25.3238 -83.4355 47.5922 30.0516 
20.8193 79.9461 9.99443 -4.39093 62.6922 9.99771 -23.5659 40.0362 9.99973 
8.73923 70.5681 22.88 22.2996 54.9566 9.99973 2.36145 37.9323 33.7928 
-5.27129 82.6705 9.99979 26.7605 78.9339 29.0582 31.509 59.5093 27.5272 
39.4758 34.9977 10.0001 63.5111 39.0082 9.98667 62.0702 63.423 9.99977 
39.6285 72.9221 9.99778 80.5547 49.5188 10.0002 77.8131 32.1687 27.7928 
52.3896 36.9597 26.4623 44.9136 53.8683 13.7966 80.1128 72.0661 9.99972 
69.2901 50.3692 27.4439 50.8265 55.8254 32.8858 120.465 32.4512 9.99352 
88.3199 31.088 9.99974 119.413 59.1394 9.99286 105.046 73.0598 10.0001 
104.006 43.8157 9.99955 138.182 52.0936 9.99972 95.2225 58.7695 19.9639 
118.475 45.7768 24.8352 92.1552 83.2387 21.408 116.102 69.6242 26.6941 
132.396 73.284 15.579 97.367 36.3476 27.324 -88.9627 140.3 9.99604 
-112.128 88.2852 9.99973 -114.248 120.123 24.9975 -139.667 96.3304 20.591 
-87.0786 103.916 10.0313 -77.122 135.289 25.306 -76.5509 86.914 9.99392 
-57.2917 92.2842 9.99456 -46.0697 108.829 10.0028 -79.6937 122.57 9.99973 
-50.499 128.327 10.0046 -31.3759 104.209 25.1822 -30.4832 136.551 9.99995 
-34.0977 123.67 28.942 -27.6862 116.69 9.99833 -17.8794 137.765 25.4812 
18.7486 132.264 9.99179 -10.7381 127.297 10.0021 -3.059 108.833 9.99888 
8.69602 90.5874 21.9404 16.5635 104.977 10.0418 4.21683 128.504 23.2788 
-14.8244 117.206 26.7821 25.9269 99.5447 27.7561 24.6363 131.695 29.0862 
-12.0125 96.416 22.8656 8.6458 109.607 28.1442 83.9651 139.233 9.99975 
34.3635 95.863 9.99512 64.2024 134.832 9.99973 36.8954 116.702 9.99546 
57.403 115.944 9.99973 40.9779 140.058 9.99681 80.4354 119.543 9.99527 
68.6162 122.697 25.8103 50.4366 132.001 25.6634 59.8217 89.639 33.1844 
37.8804 116.712 29.9656 126.095 91.4237 9.99834 84.6577 98.0118 9.99554 
117.06 109.265 9.99217 139.389 134.086 9.99426 110.906 135.129 9.9989 
105.321 93.062 9.99964 137.059 112.452 9.99906 100.008 118.87 14.1019 
124.79 124.761 19.9851 88.2346 123.482 29.593 -135.288 -103.111 37.8974 
-103.671 -131.98 39.8114 -129.175 -125.045 41.9054 -112.283 -115.054 46.0964 
-88.9841 -122.736 49.7911 -87.4475 -137.451 63.2519 -105.514 -123.519 62.998 
-125.102 -127.203 61.3647 -131.992 -110.854 71.8831 -105.963 -140.713 73.2091 
-92.4774 -108.355 63.2365 -128.262 -98.5061 87.5209 -140.509 -113.907 54.0482 
-74.1484 -129.112 37.9971 -70.9312 -92.4575 40.6964 -43.9063 -99.8715 61.6593 
-72.5151 -123.393 61.3166 -61.1577 -87.7425 73.9796 -54.4109 -120.897 52.8604 
-43.3274 -137.211 49.2936 -28.8643 -106.353 75.5244 -59.1996 -110.342 69.1691 
-54.3749 -128.632 75.6557 -35.1455 -124.927 71.5236 -79.94 -97.2345 74.1609 
-73.6767 -132.488 79.7327 -63.1191 -138.944 51.6129 -66.9915 -105.516 86.9439 
-17.789 -114.024 43.154 15.6981 -103.352 42.8567 13.1102 -125.895 54.5272 
3.60093 -119.177 70.7883 -3.44445 -140.013 61.6838 -11.4792 -93.625 70.8778 
23.9022 -133.15 39.3335 8.44733 -94.8494 72.0271 -14.4038 -127.712 75.1776 
23.8279 -94.4383 59.2544 8.11529 -137.366 77.7817 20.0511 -110.098 78.9456 
25.8275 -128.836 74.1342 27.8295 -113.954 60.9313 26.6612 -91.4381 82.3562 
3.05002 -86.151 46.8516 73.2285 -127.671 40.0457 39.4186 -124.483 48.497 
54.5612 -114.44 66.5148 39.9009 -105.51 42.0304 80.9121 -113.047 70.9006 
42.0059 -137.16 63.7428 39.921 -101.748 71.4813 60.1602 -136.069 72.0518 
44.5045 -127.608 81.1666 79.3061 -132.293 76.3906 103.862 -117.897 53.8601 
135.169 -134.277 40.2092 122.524 -112.1 47.9441 115.934 -130.609 44.2463 
128.741 -93.3976 44.5759 102.196 -137.781 56.8751 96.3196 -86.3768 45.4775 
109.527 -98.7701 55.2352 89.8464 -101.892 56.9028 121.266 -132.912 63.3807 
132.086 -98.5719 63.6021 97.1733 -124.85 71.3705 139.211 -127.647 70.6867 
97.6984 -86.2053 66.5061 132.559 -108.806 81.517 113.037 -101.154 82.1971 
118.443 -113.541 67.4628 122.905 -126.317 82.185 93.9818 -106.714 84.6475 
-116.419 -82.3615 58.8228 -126.776 -51.408 43.4968 -85.6545 -65.6976 57.9604 
-101.588 -34.6836 61.3263 -129.31 -52.8406 72.6966 -95.35 -63.5824 80.1698 
-140.231 -35.1893 36.8496 -94.4624 -82.1381 87.5867 -78.5135 -77.3417 72.5822 
-28.2197 -35.7016 43.413 -75.1438 -57.3388 43.1417 -67.6422 -43.647 56.8664 
-65.3491 -63.456 59.4741 -50.2772 -41.0587 70.0076 -77.2142 -57.4259 74.415 
-59.6305 -68.2194 78.0357 -30.6782 -67.787 57.1496 -68.8379 -39.4972 77.3299 
-30.7467 -37.1185 74.0119 -44.96 -83.3928 85.0281 -47.1805 -54.1213 84.8269 
-42.525 -28.853 56.1963 -0.78523 -56.7406 38.0538 -8.49884 -38.9643 42.991 
17.7671 -60.9601 67.4404 -13.6801 -37.623 62.2776 4.48254 -32.1299 82.2451 
4.7897 -28.8296 62.5249 28.7559 -83.6436 43.1639 46.6939 -36.2947 54.8319 
61.9817 -80.9448 53.8125 66.1982 -46.976 46.3902 79.0874 -48.7217 67.771 
59.2785 -47.9375 65.1295 72.1644 -28.2202 73.2409 67.5037 -44.7346 83.5772 
47.0124 -47.3751 81.046 52.2028 -29.4478 73.6068 59.18 -63.016 83.7434 
77.9118 -69.4273 86.5735 92.1304 -83.452 85.5163 140.387 -81.8856 83.5766 
100.276 -51.8797 40.0958 116.398 -80.124 53.0195 135.626 -54.1584 38.5416 
133.851 -72.3083 46.8342 109.196 -69.9861 68.6799 131.548 -78.4034 65.9571 
89.1623 -65.992 70.1966 129.886 -59.9232 73.4142 119.298 -81.9476 81.4016 
93.072 -34.1886 75.0763 -99.0106 -3.87821 44.9008 -135.343 -10.0386 41.1969 
-111.321 20.6588 44.5308 -119.956 2.63455 39.1657 -112.39 1.7211 58.6605 
-110.73 20.91 65.3199 -94.2581 16.7892 54.7625 -132.207 4.31401 57.9773 
-106.212 5.60444 77.3728 -127.127 14.2617 74.6402 -92.2114 -1.04307 63.584 
-120.532 -8.14107 74.028 -87.8242 8.39565 86.7076 -103.083 -11.444 87.4557 
-140.347 27.1703 82.2888 -121.382 -23.5726 87.9568 -84.6646 -10.1696 79.701 
-77.5988 -13.845 46.6681 -44.1768 18.2259 38.4816 -68.1375 0.69449 56.6163 
[...]
POINT_DATA 2000
FIELD FieldData 7
id 1 2000 int
41 77 196 230 308 107 205 282 106 
55 438 53 85 259 296 439 157 275 
424 371 40 273 71 185 265 297 299 
410 440 172 95 351 336 437 49 33 
376 408 397 216 164 380 59 139 141 
29 30 379 335 434 394 283 247 47 
411 36 142 338 414 456 32 161 261 
453 80 276 171 381 245 114 425 112 
231 246 215 10 143 211 115 208 232 
365 48 243 45 167 75 300 149 113 
174 222 318 108 354 285 317 359 201 
200 117 252 262 286 314 395 334 274 
239 342 66 147 255 443 309 413 278 
238 405 50 345 20 46 220 187 225 
11 212 69 37 358 390 416 347 122 
123 197 264 430 315 204 219 298 256 
135 346 54 97 178 213 271 404 84 
199 320 400 234 450 152 444 99 362 
8 279 321 250 384 378 195 240 399 
186 111 12 169 73 133 131 132 389 
419 449 229 369 375 102 72 374 330 
253 34 154 221 266 173 352 366 58 
329 206 301 138 6 284 179 328 184 
224 168 311 455 295 385 90 88 78 
62 302 339 79 83 218 426 127 128 
294 433 344 341 110 227 396 421 429 
251 242 18 423 96 160 209 288 367 
370 452 116 198 203 244 343 442 166 
304 361 401 448 1864 1820 1025 1285 272 
223 9 82 130 350 119 409 290 383 
1007 1904 1249 1749 292 1878 2 241 156 
64 76 210 263 1855 1873 364 1584 1941 
1011 418 327 293 22 144 165 382 323 
332 42 1715 1811 1945 137 51 125 445 
81 155 249 436 74 1428 1281 1934 720 
1920 856 700 1308 1665 1450 5 331 388 
26 307 552 183 1551 319 422 65 163 
191 236 1719 1793 23 1676 1730 903 642 
415 417 281 28 226 1366 402 39 392 
14 44 189 306 104 931 1603 118 89 
1953 997 1922 25 86 313 398 180 188 
1317 1870 1643 581 43 412 129 322 761 
1508 303 326 764 1565 176 1155 1520 1143 
1112 739 1819 151 162 68 158 214 257 
121 368 175 427 353 1211 864 874 1540 
4 217 357 202 94 190 349 120 1159 
570 746 1001 268 260 7 100 333 432 
457 70 63 1767 622 1389 153 386 291 
15 277 19 441 1015 1407 839 3 254 
57 228 393 145 177 420 1046 1600 1399 
909 340 1956 93 1 270 387 109 170 
181 140 312 91 1163 1404 712 372 61 
67 267 60 316 87 1652 590 583 207 
923 709 280 373 235 16 194 148 789 
1080 1406 431 1082 1951 1417 377 182 310 
103 233 337 35 258 356 24 159 435 
1430 1367 1124 1975 1194 852 105 360 403 
237 287 363 92 348 21 1398 1517 1852 
1685 324 1191 27 428 391 56 98 1807 
1893 1087 1716 1200 355 1283 407 289 446 
101 192 13 124 1869 1400 1589 701 674 
193 269 146 136 150 1883 1995 771 817 
1501 1706 1836 949 1815 1773 1854 52 305 
325 406 38 126 17 31 447 134 248 
967 1140 1618 1447 741 1424 968 1068 480 
1694 1542 1293 1726 784 954 1929 1771 814 
1334 1938 1195 484 1382 1176 1178 1017 1220 
541 1173 1999 1170 1331 1982 1021 948 1601 
1452 1896 1845 1838 668 907 520 952 1262 
1252 1865 1539 1071 1304 1712 1337 553 1687 
651 548 1678 951 1634 1050 1156 1537 654 
1128 1988 1409 462 1105 1189 1728 1757 1051 
1474 838 1842 1561 1649 599 661 911 914 
1147 1149 1459 866 1829 479 753 974 486 
1527 1840 752 573 1427 845 540 1206 1275 
1683 1488 1656 1543 718 1117 1342 1781 489 
878 995 1045 1171 1578 1013 1994 1077 1866 
833 889 626 1586 875 1130 621 906 1799 
1284 1213 757 793 1894 1421 533 1725 985 
1566 640 1861 602 652 1365 644 1225 1234 
1415 779 862 1373 1874 666 1167 960 723 
912 1042 1673 806 495 1729 1480 1444 521 
454 574 1908 854 658 1442 842 861 1419 
1034 1177 1628 1099 1736 1738 1129 1465 1324 
915 1756 1677 532 1460 754 1063 1190 1496 
1947 1850 628 1453 1341 1031 1696 1023 1066 
1718 1563 1881 698 799 1144 722 1554 1813 
1208 451 466 1340 1831 1271 1745 1401 1391 
1572 467 471 970 594 1385 1912 1675 888 
1119 1369 1602 464 1579 1093 1102 474 580 
1468 1499 1270 1769 506 1533 643 1412 1595 
1928 1414 1890 1959 608 1570 1362 470 597 
1679 1172 1074 919 798 1258 1529 1534 1720 
1743 965 975 1803 1884 841 656 1416 1481 
892 1040 1791 1108 1653 566 853 564 1490 
492 1647 1620 1261 1052 1577 1458 673 1475 
1682 1606 660 729 1761 962 1960 624 1470 
1241 1608 664 518 1131 1903 1326 966 1638 
1858 1441 1477 1636 759 1784 1070 513 1825 
1355 1822 803 805 893 925 728 1438 936 
964 1433 848 1931 1891 1859 1830 1610 1267 
1889 469 1734 1887 810 531 1268 1591 1552 
537 1201 1979 1153 1525 885 1879 1073 562 
1892 1054 1684 588 1919 991 488 1216 749 
981 1058 1037 473 604 671 630 946 876 
1291 1965 1461 508 1229 1231 1548 1098 461 
475 832 1545 1844 1125 1104 2000 1387 1360 
887 1827 522 1667 1263 696 990 1702 1359 
1804 1906 1911 1422 775 459 565 687 1169 
1662 944 1633 801 1483 1055 820 675 1209 
1962 781 1614 1089 1752 835 670 1462 1576 
1980 1101 1780 1060 1135 1203 1120 969 1978 
1582 1361 1487 1094 487 1223 758 1121 751 
1205 1059 1473 1823 850 987 1328 972 1661 
1352 1663 1974 589 616 496 1916 1254 1932 
986 1860 1222 539 807 886 1936 1118 1084 
1930 618 1100 686 1166 1711 730 1026 530 
1018 1332 1772 1004 1835 1616 1935 1622 601 
493 755 1343 1564 1796 1287 740 1966 515 
938 1495 865 1309 896 1532 1937 1300 1550 
1368 1187 788 498 809 894 935 1740 916 
1788 1632 1573 725 770 1507 1035 1491 1558 
528 1036 1076 1467 1397 632 1707 830 1310 
1834 745 961 901 1197 1333 1569 1282 1494 
1846 1062 575 1064 1269 1504 994 688 1150 
607 1126 1318 569 1524 922 682 1770 645 
1049 1092 1701 1863 924 1312 1948 1917 538 
953 1214 1114 895 1613 732 613 1575 1783 
837 713 1056 511 1925 904 623 1264 1768 
705 934 1775 1910 523 1048 1371 503 1918 
600 1138 1466 999 1184 1255 1849 733 1303 
797 1109 1789 1963 802 1192 1247 1276 1957 
1228 1336 738 1808 1867 1972 525 557 1250 
627 641 535 790 1837 1722 1764 1732 1856 
472 1146 1204 1708 1219 1944 1809 1798 1041 
1952 561 1078 1196 1741 1134 1043 1626 491 
1418 942 1313 1992 1549 1083 1175 1503 710 
1629 825 1420 800 1455 1897 1260 1666 567 
1356 1818 1226 1370 1810 1290 1505 1029 478 
1354 647 1375 1053 1024 1964 1704 1942 1432 
1165 1760 697 551 1440 547 1802 831 1376 
502 1344 992 1596 1983 1961 1069 678 1735 
1939 1670 984 1383 1379 1514 545 920 988 
1358 1047 1500 1489 646 1724 818 959 1245 
1664 1122 794 708 1295 1242 1557 1160 499 
1607 667 769 595 1650 1991 1181 1754 529 
1585 1009 1237 736 685 787 1839 1790 1251 
1350 1434 1088 1235 1547 1828 1853 620 596 
1993 483 1090 822 519 1139 1660 1814 1571 
509 1446 1672 1598 1246 763 1067 1030 1377 
1695 689 1973 1439 1289 526 1674 692 1469 
614 1061 1604 1006 679 681 649 1107 1668 
1476 867 742 868 796 1210 869 1327 1833 
476 611 871 774 917 1546 1297 1623 571 
650 1901 1454 1305 1792 1394 902 1805 1699 
1877 510 1457 1705 603 1142 1739 680 1445 
780 1568 918 870 1116 1512 743 1179 1513 
1152 703 955 468 1431 693 1277 482 765 
1778 945 971 1232 1876 1113 1133 1516 1273 
1968 1642 1832 908 1425 1493 993 1857 546 
1363 1065 1958 1307 1426 1151 777 1923 695 
1174 1559 1940 1348 750 819 1511 1841 558 
1224 1396 1746 1744 1977 559 1106 760 1556 
631 1594 1976 1502 1530 1882 1755 1010 1593 
1581 1515 1617 1615 1619 1039 1742 910 881 
1969 929 1448 612 744 1580 1000 827 1555 
1926 534 795 657 1353 1821 1429 1812 579 
1646 1826 1921 851 1123 694 824 1478 549 
572 1136 1541 655 563 578 762 1240 1311 
1700 1574 1338 1801 690 1185 1875 1753 863 
767 1885 1762 699 1148 1390 998 1641 1967 
1028 1899 517 1137 973 463 1079 731 1230 
860 1759 1280 1492 653 1378 648 1905 1091 
950 1198 847 858 737 941 1782 1322 1132 
1288 615 785 921 1016 1669 1909 1737 1590 
1871 481 958 927 873 1330 1193 1072 592 
928 1095 1408 1611 899 1274 1996 1012 1472 
577 505 1374 1886 1306 1168 1509 524 1597 
1182 1686 1721 1014 1393 1949 1162 1022 1637 
1239 1723 1955 637 812 1862 1236 1544 554 
634 704 976 560 857 1278 1795 1800 1588 
977 926 1329 1227 1335 1970 1787 1321 1357 
591 576 1645 1521 1592 1847 1851 1221 1141 
1212 1583 719 811 747 1005 1302 1411 584 
663 1256 1161 662 846 1215 1691 804 937 
1158 1671 707 1238 1044 715 514 1057 1325 
1587 772 843 1531 1651 1482 586 516 815 
855 1032 1680 1697 1777 890 773 1635 1164 
1299 1621 1690 963 1279 1436 672 568 1817 
536 1364 542 485 1763 1085 605 1347 1451 
1301 905 1927 880 1560 500 1538 507 1898 
1259 1747 1316 717 1423 821 1345 816 766 
556 716 879 1727 1111 826 1392 1915 1388 
900 1449 1751 756 947 1924 1506 1372 1703 
829 1522 1907 1127 1086 587 980 1207 665 
1298 1933 1097 1689 1497 1797 1990 1880 891 
1776 834 512 1405 1693 1395 1027 1848 1486 
1640 1320 836 734 748 544 1188 669 477 
791 677 939 1314 1485 1038 1987 638 619 
1019 1218 1766 768 1523 828 504 1386 711 
978 1599 1758 776 1888 1989 982 1413 610 
1471 1033 1286 1510 943 1748 1456 617 458 
1985 1096 635 1688 956 1339 1681 1943 606 
783 1997 996 683 1868 1914 490 1464 1954 
957 1463 1627 593 1713 598 1519 1403 1567 
1257 1655 555 1381 813 1717 1639 1624 1075 
714 1692 625 1265 1292 1733 1157 706 1843 
1410 724 989 527 1971 1498 1609 1714 1008 
897 1272 1950 1315 1081 1816 1402 636 543 
1296 1946 1984 1562 659 1115 840 1786 1443 
1998 501 1648 1346 1553 1654 1233 1380 849 
1349 884 859 585 497 1186 1630 1794 1266 
940 1526 1709 1103 882 933 702 877 778 
609 1605 1145 808 582 844 1731 1003 786 
1020 1528 983 1323 1981 1658 1484 1110 1319 
1002 1243 1657 1698 1437 1644 930 465 932 
1384 1824 1785 913 721 898 494 1631 792 
1248 1180 1435 1294 735 1872 1612 1183 1518 
1479 1895 1253 1154 633 823 883 1625 1659 
1913 1779 1806 1535 1244 782 1202 1217 1536 
1902 872 1765 979 684 1750 629 727 1199 
460 639 691 550 1986 1351 726 1774 1900 
1710 676 
type 1 2000 int
1 1 1 1 1 1 1 1 1 
1 1 1 1 1 1 1 1 1 
1 1 1 1 1 1 1 1 1 
1 1 1 1 1 1 1 1 1 
1 1 1 1 1 1 1 1 1 
1 1 1 1 1 1 1 1 1 
1 1 1 1 1 1 1 1 1 
1 1 1 1 1 1 1 1 1 
1 1 1 1 1 1 1 1 1 
1 1 1 1 1 1 1 1 1 
1 1 1 1 1 1 1 1 1 
1 1 1 1 1 1 1 1 1 
1 1 1 1 1 1 1 1 1 
1 1 1 1 1 1 1 1 1 
1 1 1 1 1 1 1 1 1 
1 1 1 1 1 1 1 1 1 
1 1 1 1 1 1 1 1 1 
1 1 1 1 1 1 1 1 1 
1 1 1 1 1 1 1 1 1 
1 1 1 1 1 1 1 1 1 
1 1 1 1 1 1 1 1 1 
1 1 1 1 1 1 1 1 1 
1 1 1 1 1 1 1 1 1 
1 1 1 1 1 1 1 1 1 
1 1 1 1 1 1 1 1 1 
1 1 1 1 1 1 1 1 1 
1 1 1 1 1 1 1 1 1 
1 1 1 1 1 1 1 1 1 
1 1 1 1 1 1 1 1 1 
1 1 1 1 1 1 1 1 1 
1 1 1 1 1 1 1 1 1 
1 1 1 1 1 1 1 1 1 
1 1 1 1 1 1 1 1 1 
1 1 1 1 1 1 1 1 1 
1 1 1 1 1 1 1 1 1 
1 1 1 1 1 1 1 1 1 
1 1 1 1 1 1 1 1 1 
1 1 1 1 1 1 1 1 1 
1 1 1 1 1 1 1 1 1 
1 1 1 1 1 1 1 1 1 
1 1 1 1 1 1 1 1 1 
1 1 1 1 1 1 1 1 1 
1 1 1 1 1 1 1 1 1 
1 1 1 1 1 1 1 1 1 
1 1 1 1 1 1 1 1 1 
1 1 1 1 1 1 1 1 1 
1 1 1 1 1 1 1 1 1 
1 1 1 1 1 1 1 1 1 
1 1 1 1 1 1 1 1 1 
1 1 1 1 1 1 1 1 1 
1 1 1 1 1 1 1 1 1 
1 1 1 1 1 1 1 1 1 
1 1 1 1 1 1 1 1 1 
1 1 1 1 1 1 1 1 1 
1 1 1 1 1 1 1 1 1 
1 1 1 1 1 1 1 1 1 
1 1 1 1 1 1 1 1 1 
1 1 1 1 1 1 1 1 1 
1 1 1 1 1 1 1 1 1 
1 1 1 1 1 1 1 1 1 
1 1 1 1 1 1 1 1 1 
1 1 1 1 1 1 1 1 1 
1 1 1 1 1 1 1 1 1 
1 1 1 1 1 1 1 1 1 
1 1 1 1 1 1 1 1 1 
1 1 1 1 1 1 1 1 1 
1 1 1 1 1 1 1 1 1 
1 1 1 1 1 1 1 1 1 
1 1 1 1 1 1 1 1 1 
1 1 1 1 1 1 1 1 1 
1 1 1 1 1 1 1 1 1 
1 1 1 1 1 1 1 1 1 
1 1 1 1 1 1 1 1 1 
1 1 1 1 1 1 1 1 1 
1 1 1 1 1 1 1 1 1 
1 1 1 1 1 1 1 1 1 
1 1 1 1 1 1 1 1 1 
1 1 1 1 1 1 1 1 1 
1 1 1 1 1 1 1 1 1 
1 1 1 1 1 1 1 1 1 
1 1 1 1 1 1 1 1 1 
1 1 1 1 1 1 1 1 1 
1 1 1 1 1 1 1 1 1 
1 1 1 1 1 1 1 1 1 
1 1 1 1 1 1 1 1 1 
1 1 1 1 1 1 1 1 1 
1 1 1 1 1 1 1 1 1 
1 1 1 1 1 1 1 1 1 
1 1 1 1 1 1 1 1 1 
1 1 1 1 1 1 1 1 1 
1 1 1 1 1 1 1 1 1 
1 1 1 1 1 1 1 1 1 
1 1 1 1 1 1 1 1 1 
1 1 1 1 1 1 1 1 1 
1 1 1 1 1 1 1 1 1 
1 1 1 1 1 1 1 1 1 
1 1 1 1 1 1 1 1 1 
1 1 1 1 1 1 1 1 1 
1 1 1 1 1 1 1 1 1 
1 1 1 1 1 1 1 1 1 
1 1 1 1 1 1 1 1 1 
1 1 1 1 1 1 1 1 1 
1 1 1 1 1 1 1 1 1 
1 1 1 1 1 1 1 1 1 
1 1 1 1 1 1 1 1 1 
1 1 1 1 1 1 1 1 1 
1 1 1 1 1 1 1 1 1 
1 1 1 1 1 1 1 1 1 
1 1 1 1 1 1 1 1 1 
1 1 1 1 1 1 1 1 1 
1 1 1 1 1 1 1 1 1 
1 1 1 1 1 1 1 1 1 
1 1 1 1 1 1 1 1 1 
1 1 1 1 1 1 1 1 1 
1 1 1 1 1 1 1 1 1 
1 1 1 1 1 1 1 1 1 
1 1 1 1 1 1 1 1 1 
1 1 1 1 1 1 1 1 1 
1 1 1 1 1 1 1 1 1 
1 1 1 1 1 1 1 1 1 
1 1 1 1 1 1 1 1 1 
1 1 1 1 1 1 1 1 1 
1 1 1 1 1 1 1 1 1 
1 1 1 1 1 1 1 1 1 
1 1 1 1 1 1 1 1 1 
1 1 1 1 1 1 1 1 1 
1 1 1 1 1 1 1 1 1 
1 1 1 1 1 1 1 1 1 
1 1 1 1 1 1 1 1 1 
1 1 1 1 1 1 1 1 1 
1 1 1 1 1 1 1 1 1 
1 1 1 1 1 1 1 1 1 
1 1 1 1 1 1 1 1 1 
1 1 1 1 1 1 1 1 1 
1 1 1 1 1 1 1 1 1 
1 1 1 1 1 1 1 1 1 
1 1 1 1 1 1 1 1 1 
1 1 1 1 1 1 1 1 1 
1 1 1 1 1 1 1 1 1 
1 1 1 1 1 1 1 1 1 
1 1 1 1 1 1 1 1 1 
1 1 1 1 1 1 1 1 1 
1 1 1 1 1 1 1 1 1 
1 1 1 1 1 1 1 1 1 
1 1 1 1 1 1 1 1 1 
1 1 1 1 1 1 1 1 1 
1 1 1 1 1 1 1 1 1 
1 1 1 1 1 1 1 1 1 
1 1 1 1 1 1 1 1 1 
1 1 1 1 1 1 1 1 1 
1 1 1 1 1 1 1 1 1 
1 1 1 1 1 1 1 1 1 
1 1 1 1 1 1 1 1 1 
1 1 1 1 1 1 1 1 1 
1 1 1 1 1 1 1 1 1 
1 1 1 1 1 1 1 1 1 
1 1 1 1 1 1 1 1 1 
1 1 1 1 1 1 1 1 1 
1 1 1 1 1 1 1 1 1 
1 1 1 1 1 1 1 1 1 
1 1 1 1 1 1 1 1 1 
1 1 1 1 1 1 1 1 1 
1 1 1 1 1 1 1 1 1 
1 1 1 1 1 1 1 1 1 
1 1 1 1 1 1 1 1 1 
1 1 1 1 1 1 1 1 1 
1 1 1 1 1 1 1 1 1 
1 1 1 1 1 1 1 1 1 
1 1 1 1 1 1 1 1 1 
1 1 1 1 1 1 1 1 1 
1 1 1 1 1 1 1 1 1 
1 1 1 1 1 1 1 1 1 
1 1 1 1 1 1 1 1 1 
1 1 1 1 1 1 1 1 1 
1 1 1 1 1 1 1 1 1 
1 1 1 1 1 1 1 1 1 
1 1 1 1 1 1 1 1 1 
1 1 1 1 1 1 1 1 1 
1 1 1 1 1 1 1 1 1 
1 1 1 1 1 1 1 1 1 
1 1 1 1 1 1 1 1 1 
1 1 1 1 1 1 1 1 1 
1 1 1 1 1 1 1 1 1 
1 1 1 1 1 1 1 1 1 
1 1 1 1 1 1 1 1 1 
1 1 1 1 1 1 1 1 1 
1 1 1 1 1 1 1 1 1 
1 1 1 1 1 1 1 1 1 
1 1 1 1 1 1 1 1 1 
1 1 1 1 1 1 1 1 1 
1 1 1 1 1 1 1 1 1 
1 1 1 1 1 1 1 1 1 
1 1 1 1 1 1 1 1 1 
1 1 1 1 1 1 1 1 1 
1 1 1 1 1 1 1 1 1 
1 1 1 1 1 1 1 1 1 
1 1 1 1 1 1 1 1 1 
1 1 1 1 1 1 1 1 1 
1 1 1 1 1 1 1 1 1 
1 1 1 1 1 1 1 1 1 
1 1 1 1 1 1 1 1 1 
1 1 1 1 1 1 1 1 1 
1 1 1 1 1 1 1 1 1 
1 1 1 1 1 1 1 1 1 
1 1 1 1 1 1 1 1 1 
1 1 1 1 1 1 1 1 1 
1 1 1 1 1 1 1 1 1 
1 1 1 1 1 1 1 1 1 
1 1 1 1 1 1 1 1 1 
1 1 1 1 1 1 1 1 1 
1 1 1 1 1 1 1 1 1 
1 1 1 1 1 1 1 1 1 
1 1 1 1 1 1 1 1 1 
1 1 1 1 1 1 1 1 1 
1 1 1 1 1 1 1 1 1 
1 1 1 1 1 1 1 1 1 
1 1 1 1 1 1 1 1 1 
1 1 1 1 1 1 1 1 1 
1 1 1 1 1 1 1 1 1 
1 1 1 1 1 1 1 1 1 
1 1 1 1 1 1 1 1 1 
1 1 1 1 1 1 1 1 1 
1 1 
i 3 2000 int
0 0 0 0 0 0 0 0 0 
0 0 0 0 0 0 0 0 0 
0 0 0 0 0 0 0 0 0 
0 0 0 0 0 0 0 0 0 
0 0 0 0 0 0 0 0 0 
0 0 0 0 0 0 0 0 0 
0 0 0 0 0 0 0 1 0 
0 0 0 0 0 0 0 0 0 
0 0 0 0 0 0 0 0 0 
0 0 0 0 0 0 0 0 0 
0 0 0 0 0 0 0 0 0 
0 0 0 0 0 0 0 0 0 
0 0 0 0 0 0 0 0 0 
0 0 0 0 0 0 -1 0 0 
0 0 0 0 0 0 0 0 0 
0 0 0 0 0 0 0 0 0 
0 0 0 0 0 0 0 0 0 
0 0 0 0 1 0 0 0 0 
0 0 0 0 0 0 0 0 0 
0 0 0 0 0 0 0 0 0 
0 0 0 0 0 0 0 0 0 
0 0 0 0 0 0 0 0 0 
0 0 0 0 0 0 0 0 0 
0 0 0 0 0 0 0 0 0 
0 0 0 0 0 0 0 0 0 
0 0 0 0 0 0 0 0 0 
0 0 0 0 0 0 0 0 0 
0 0 0 0 0 0 0 0 0 
0 0 0 0 0 0 0 0 0 
0 0 0 0 0 0 0 0 0 
0 0 0 0 0 0 0 0 0 
0 0 0 0 0 0 0 0 0 
0 0 0 0 0 0 0 0 0 
0 0 0 0 0 0 0 0 0 
0 0 0 0 0 0 0 0 0 
0 0 0 0 0 0 0 0 0 
0 0 0 0 0 0 0 0 0 
0 0 0 0 0 0 0 0 0 
0 0 0 0 0 0 0 0 0 
0 0 0 0 0 0 0 0 0 
0 0 0 0 0 0 0 0 0 
0 0 0 0 0 0 0 0 0 
0 0 0 0 0 0 0 0 0 
0 0 0 0 0 0 0 0 0 
0 0 0 0 0 0 0 0 0 
0 0 0 0 0 0 0 0 0 
0 0 0 0 0 0 0 0 0 
0 0 0 0 0 0 0 0 0 
0 0 0 -1 0 0 0 0 0 
0 0 0 0 0 0 0 0 0 
0 0 0 0 0 0 0 0 0 
0 0 0 0 0 0 0 0 0 
0 0 0 0 0 0 0 0 0 
0 0 0 0 0 0 0 0 0 
0 0 0 0 0 0 0 0 0 
0 0 0 0 0 0 0 0 0 
0 0 0 0 0 0 0 0 0 
0 0 0 0 0 0 0 0 0 
0 0 0 0 0 0 0 0 0 
0 0 0 0 0 0 0 0 0 
0 0 0 0 0 0 0 0 0 
0 0 0 0 0 0 0 0 0 
0 0 0 0 0 0 0 0 0 
0 0 0 0 0 0 0 0 0 
0 0 0 0 0 0 0 0 0 
0 0 0 0 0 0 0 0 0 
0 0 0 0 0 0 0 -1 0 
0 0 0 0 0 0 1 0 0 
0 0 0 0 -1 0 0 0 0 
0 0 0 0 0 0 0 0 0 
0 0 0 0 0 0 0 0 0 
0 0 0 0 0 0 0 0 0 
0 0 0 0 0 0 0 0 0 
0 0 0 0 0 0 0 0 0 
0 0 0 0 0 0 0 0 0 
0 0 0 0 0 0 0 0 0 
0 0 0 0 0 0 0 0 0 
0 0 0 0 0 0 0 0 0 
0 0 0 0 0 0 0 0 0 
0 0 0 0 0 0 0 0 0 
0 0 0 0 0 0 0 0 0 
0 0 0 0 0 0 0 0 0 
0 0 0 0 0 0 0 0 0 
0 0 0 0 0 0 0 0 0 
0 0 0 0 0 0 0 0 0 
0 0 0 0 0 0 0 0 0 
0 0 0 0 0 0 1 0 0 
0 0 0 0 0 0 0 0 0 
0 0 0 0 0 0 0 0 0 
0 0 0 0 0 0 0 0 0 
0 0 0 0 0 0 0 0 0 
0 0 0 0 1 0 0 0 0 
0 0 0 0 0 0 0 0 0 
0 0 0 0 0 0 0 0 0 
0 0 0 0 0 0 0 0 0 
0 0 0 0 0 0 0 0 0 
0 0 0 0 0 0 0 0 0 
0 0 0 0 0 0 0 0 0 
0 0 0 0 0 0 0 0 0 
0 0 0 0 0 0 0 0 0 
0 0 0 0 0 0 0 0 0 
0 0 0 0 0 0 0 0 0 
0 0 0 0 0 0 0 0 0 
0 0 0 0 0 0 0 0 0 
0 0 0 0 0 0 0 0 0 
0 0 0 -1 0 0 0 0 0 
0 0 0 0 0 0 0 0 0 
0 0 0 0 0 0 0 0 0 
0 0 0 0 0 0 0 0 0 
1 0 0 0 0 0 0 0 0 
0 0 0 0 0 0 0 0 0 
0 0 0 0 0 0 0 0 0 
0 0 0 0 0 0 0 0 0 
0 0 0 0 0 0 0 0 0 
0 0 0 0 0 0 0 0 0 
0 0 0 0 0 0 0 0 0 
0 0 0 0 0 0 0 0 0 
0 0 0 0 0 0 0 0 0 
0 0 0 0 0 0 0 0 0 
0 0 0 0 0 0 0 0 0 
0 0 0 0 0 0 -1 0 0 
0 0 0 0 0 0 0 0 0 
0 0 0 0 0 0 0 0 0 
0 0 0 0 0 0 0 0 0 
0 0 0 0 0 0 1 0 0 
0 0 0 0 0 0 0 0 0 
0 0 0 0 0 0 1 0 0 
0 0 0 0 0 0 0 0 0 
0 0 0 0 0 0 0 0 0 
1 0 0 0 0 0 0 0 0 
0 0 0 0 0 0 0 0 0 
0 0 0 0 0 0 0 0 0 
0 0 0 0 0 0 0 0 0 
0 0 0 0 0 0 0 0 0 
0 0 0 0 0 0 0 0 0 
0 0 0 0 0 0 0 0 0 
0 0 0 0 0 0 0 0 0 
0 0 0 0 0 0 0 0 0 
0 0 0 0 0 0 0 0 0 
0 0 0 0 0 0 0 0 0 
0 0 0 0 0 0 0 0 0 
0 0 0 0 0 0 0 0 0 
0 0 0 0 0 0 0 0 0 
0 0 0 0 0 0 0 0 0 
0 0 0 0 0 0 0 0 0 
0 0 0 0 0 0 0 0 0 
0 0 0 0 0 0 0 0 0 
0 0 0 0 0 0 0 0 0 
0 0 0 0 0 0 0 0 0 
0 0 0 0 0 0 0 0 0 
0 0 0 1 0 0 0 0 0 
0 0 0 0 0 0 0 0 0 
0 0 0 0 0 0 0 0 0 
0 0 0 0 0 0 0 0 0 
0 0 0 0 0 0 0 0 0 
0 0 0 0 0 0 0 0 0 
0 0 0 0 0 0 0 0 0 
0 0 0 0 0 0 0 0 0 
0 0 0 0 0 0 0 0 0 
0 0 0 0 0 0 0 0 0 
0 0 0 0 0 0 0 0 0 
0 0 0 0 0 0 0 0 0 
0 0 0 0 0 0 0 0 0 
0 0 0 0 0 0 0 0 0 
-1 0 0 0 0 0 0 0 0 
0 0 0 0 0 0 0 0 0 
0 0 0 0 0 0 0 0 0 
0 0 0 0 0 0 0 0 0 
0 0 0 0 0 0 0 0 0 
1 0 0 0 0 0 0 -1 0 
0 0 0 0 0 0 0 0 0 
0 0 0 0 0 0 0 0 0 
0 0 0 0 0 0 0 0 0 
0 0 0 0 0 0 0 0 0 
0 0 0 0 0 0 0 -1 0 
0 0 0 0 0 0 0 0 0 
0 0 0 0 0 0 0 0 0 
0 0 0 0 0 0 0 -1 0 
0 0 0 0 -1 0 0 0 0 
0 0 0 0 -1 0 0 0 0 
0 0 0 0 0 0 0 0 0 
0 0 0 0 0 0 0 0 0 
0 0 0 0 0 0 0 0 0 
0 0 0 0 -1 0 0 0 0 
0 0 0 0 0 0 0 0 0 
0 0 0 0 0 0 0 0 0 
0 0 0 0 0 0 0 0 0 
0 0 0 0 0 0 0 0 0 
0 -1 0 0 0 0 0 0 0 
0 0 0 -1 0 0 0 -1 0 
-1 0 0 0 0 0 0 0 0 
0 0 0 0 0 0 0 0 0 
0 0 0 0 0 0 0 0 0 
0 0 0 0 0 0 0 0 0 
0 0 0 0 0 0 0 0 0 
0 0 0 0 0 0 0 0 0 
0 0 0 0 0 0 0 0 0 
0 1 0 0 0 0 0 0 0 
0 1 0 0 0 0 0 0 0 
0 0 0 0 0 0 0 0 0 
0 0 0 0 0 0 0 0 0 
0 0 0 0 0 0 0 0 0 
0 0 0 0 0 0 0 0 0 
0 0 0 0 0 0 0 0 0 
0 1 0 0 0 0 0 0 0 
0 0 0 0 0 0 0 0 0 
0 0 0 0 0 0 0 0 0 
0 0 0 0 1 0 0 0 0 
0 0 0 0 1 0 0 0 0 
0 0 0 0 0 0 0 0 0 
0 0 0 0 0 0 0 0 0 
0 0 0 0 0 0 0 0 0 
0 0 0 0 0 0 0 0 0 
0 0 0 0 0 0 0 0 0 
0 0 0 0 0 0 0 0 0 
0 0 0 1 0 0 0 0 0 
0 0 0 0 0 0 0 0 0 
0 0 0 0 0 0 0 0 0 
0 0 0 0 0 0 0 0 0 
0 0 0 0 0 0 0 0 0 
0 0 0 0 0 0 0 0 0 
0 0 0 0 0 0 0 0 0 
0 0 0 0 0 0 0 0 0 
0 0 0 0 0 0 0 0 0 
0 0 0 0 0 0 0 0 0 
0 0 0 0 0 0 0 0 0 
0 0 0 0 0 0 0 0 0 
0 0 0 -1 0 0 0 0 0 
0 0 0 0 0 0 0 0 0 
0 0 0 0 0 0 0 0 0 
0 0 0 0 0 0 0 0 0 
0 0 0 0 0 0 0 0 0 
0 0 0 0 0 0 0 0 0 
0 0 0 0 0 0 0 0 0 
0 0 0 0 0 0 0 0 0 
0 0 0 0 0 0 0 0 0 
0 0 0 0 0 0 0 0 0 
0 0 0 0 0 0 0 0 0 
0 0 0 0 0 0 0 0 0 
0 0 0 0 0 0 0 0 0 
0 0 0 0 0 0 0 0 0 
0 0 0 0 0 0 0 0 0 
0 0 0 0 0 0 0 0 0 
0 0 0 0 0 0 0 0 0 
0 0 0 0 0 0 0 0 0 
0 0 0 0 0 0 0 0 0 
0 0 0 0 0 0 0 0 0 
0 0 0 -1 0 0 0 0 0 
0 0 0 0 0 0 0 0 0 
0 0 0 0 0 0 0 0 0 
0 0 0 0 0 0 0 0 0 
0 0 0 0 0 0 0 0 0 
0 0 0 0 0 0 0 0 0 
0 0 0 0 0 0 0 0 0 
0 0 0 0 0 0 0 0 0 
1 0 0 0 0 0 0 0 0 
1 0 0 1 0 0 0 0 0 
0 0 0 0 0 0 0 0 0 
0 0 0 0 0 0 0 0 0 
0 0 0 0 0 0 0 0 0 
0 0 0 0 0 0 0 0 0 
0 0 0 0 0 0 0 0 0 
0 0 0 0 0 0 0 0 0 
0 0 0 0 0 0 0 0 0 
0 0 0 0 0 0 0 0 0 
0 0 0 0 0 0 0 0 0 
0 0 0 0 0 0 0 0 0 
0 0 0 0 0 0 0 0 0 
0 0 0 0 0 0 0 0 0 
0 0 0 0 0 0 0 0 0 
0 0 0 0 0 0 0 0 0 
0 0 0 0 0 0 0 0 0 
0 0 0 0 0 0 0 0 0 
0 0 0 0 0 0 0 -1 0 
0 0 0 0 0 0 0 0 0 
0 0 0 0 0 0 0 0 0 
0 0 0 0 0 0 0 0 0 
0 0 0 0 0 0 0 -1 0 
0 0 0 0 -1 0 0 0 0 
0 0 0 0 0 0 0 0 0 
0 0 0 0 0 0 0 0 0 
0 0 0 0 0 0 0 0 0 
0 0 0 0 0 0 0 0 0 
0 0 0 0 0 0 0 0 0 
0 0 0 0 0 0 0 0 0 
0 0 0 0 0 0 0 0 0 
0 0 0 0 0 0 0 0 0 
0 0 0 0 0 0 -1 0 0 
0 0 0 0 0 0 0 0 0 
0 0 0 0 0 0 0 0 0 
0 0 0 0 0 0 0 0 0 
0 0 0 0 0 0 0 0 0 
0 0 0 0 0 0 0 0 0 
0 0 0 0 0 0 0 0 0 
0 0 0 0 0 0 0 0 0 
0 0 0 0 0 0 0 0 0 
0 1 0 0 0 0 0 0 0 
0 0 0 0 0 0 0 0 0 
0 0 0 0 0 0 0 0 0 
0 0 0 0 0 0 0 0 0 
0 0 0 0 0 0 0 0 0 
0 0 0 0 0 0 0 1 0 
0 0 0 0 0 0 0 0 0 
0 0 0 0 0 0 0 0 0 
0 1 0 0 0 0 0 0 0 
0 0 0 0 0 0 0 0 0 
0 0 0 0 0 0 0 0 0 
0 0 0 0 0 0 0 1 0 
0 0 0 0 1 0 0 0 0 
0 0 0 0 0 0 0 0 0 
0 0 0 0 0 0 0 0 0 
0 0 0 0 0 0 0 0 0 
0 0 0 1 0 0 0 0 0 
0 0 0 0 0 0 0 0 0 
0 0 0 0 0 0 0 0 0 
0 0 0 0 0 0 0 0 0 
0 0 0 0 0 0 0 0 0 
0 0 0 0 0 0 0 0 0 
0 0 0 0 0 0 0 0 0 
0 0 0 0 0 0 0 0 0 
0 0 0 0 0 0 0 0 0 
0 0 0 0 0 0 0 0 0 
0 0 0 0 0 0 0 0 0 
0 0 0 0 0 0 0 0 0 
0 0 0 0 0 0 0 0 0 
-1 0 0 -1 0 0 0 0 0 
0 0 0 0 0 0 0 0 0 
0 0 0 0 0 0 0 0 0 
0 0 0 0 0 0 0 0 0 
0 0 0 0 0 0 0 0 0 
0 0 0 0 0 0 0 0 0 
0 0 0 0 0 0 0 0 0 
0 0 0 0 0 0 0 0 0 
0 0 0 0 0 0 0 0 0 
0 0 0 0 0 0 0 0 0 
0 0 0 0 0 0 0 0 0 
0 0 0 0 0 0 0 0 0 
0 0 0 0 0 0 0 0 0 
0 0 0 0 0 0 0 0 0 
0 0 0 0 0 0 0 0 0 
0 0 0 0 0 0 0 0 0 
0 0 0 0 0 0 0 0 0 
0 0 0 0 0 0 0 0 0 
0 0 0 0 0 0 0 0 0 
0 0 0 0 0 0 0 0 0 