# vtk DataFile Version 4.0
Generated by LIGGGHTS
ASCII
DATASET POLYDATA
POINTS 2000 float
-125.772 -124.094 9.91858 -112.01 -139.653 9.91883 -92.5493 -135.206 9.91877 
-106.125 -120.581 9.91823 -84.9508 -113.069 9.91823 -58.986 -128.286 9.91535 
-39.1197 -130.173 9.91863 -19.3425 -127.51 9.9152 -45.4664 -111.248 9.91877 
13.0877 -138.364 9.91938 4.6999 -121.495 16.5223 29.2994 -126.722 9.91877 
96.2899 -123.257 9.91619 95.7644 -140.791 19.4333 115.231 -133.397 9.91821 
135.031 -130.808 9.91877 121.869 -114.583 9.91877 -137.804 -108.17 9.92201 
-129.05 -90.2302 9.91829 -118.806 -106.326 15.7641 -100.581 -100.655 9.91972 
-101.362 -80.7102 9.91107 -55.3353 -92.0896 9.9187 -65.3379 -109.362 9.92012 
-31.7307 -96.7654 9.92095 6.16588 -102.71 9.9215 -11.0327 -92.5809 9.91866 
21.8477 -90.3602 9.91893 33.7669 -106.37 9.91865 39.4436 -80.936 9.91976 
51.3624 -96.9474 9.91914 71.1867 -94.6286 9.91862 59.2676 -78.6199 9.91877 
88.4523 -104.642 9.91957 94.4322 -85.5972 9.9233 107.934 -100.293 9.91877 
128.548 -95.7824 9.9133 113.904 -81.2453 9.91452 -135.538 -60.141 9.91592 
-118.572 -70.6292 9.91863 -117.833 -50.6828 9.91809 -100.606 -60.7623 9.91897 
-80.7191 -62.45 9.91857 -57.8783 -72.293 9.91881 -38.7791 -78.089 9.91877 
-19.1738 -74.3574 9.9081 -32.2056 -59.2399 9.91849 -7.96173 -57.8525 9.91736 
0.723048 -75.8247 9.91508 36.0791 -57.337 9.91998 18.2128 -66.2209 9.91871 
55.9995 -56.2149 9.9171 77.5614 -53.582 9.92116 78.5615 -73.5083 9.92251 
137.295 -77.8556 9.91679 126.521 -61.0579 9.91877 -128.687 -33.9335 9.91878 
-111.613 -17.2992 19.0158 -89.1984 -44.3809 9.91978 -85.1553 -24.8352 9.91903 
-106.429 -34.2999 9.92068 -30.5461 -24.6519 9.91861 -23.906 -42.3024 16.4583 
-12.1592 -16.8898 9.90492 45.0665 -39.5161 9.91885 92.1563 -39.9782 9.91192 
108.979 -22.6055 9.91903 89.7964 -17.1172 9.91695 111.975 -42.3389 9.91901 
135.712 -43.344 9.90988 127.054 -26.9231 17.189 -129.066 -13.9782 9.91887 
-131.211 9.76894 9.91277 -106.809 6.07802 9.92039 -90.6627 -5.65174 9.91553 
-65.6357 -6.99889 9.9185 -45.5369 7.02209 17.3054 -45.5773 -11.52 9.91879 
-14.8592 4.97575 9.91834 1.68328 -2.04766 18.5948 35.9322 12.1037 9.92 
27.6726 -6.51749 9.9188 104.14 -3.2388 9.91925 123.326 -8.73142 9.91196 
-116.667 23.4339 9.91694 -107.541 38.0943 19.9196 -45.8771 30.0943 9.91547 
-30.3116 17.6049 9.91877 -29.335 41.2433 9.91409 32.5966 31.7799 9.91801 
70.6966 20.0869 9.91924 77.7851 38.7352 9.91167 51.3085 24.8353 9.91877 
56.1488 44.2019 9.92285 90.4016 23.2689 9.91907 97.3528 42.609 9.91489 
-120.439 49.5586 9.92046 -131.316 66.2754 9.91013 -140.3 47.5781 9.91882 
-94.1112 48.9729 9.92032 -99.7419 68.1226 9.91877 -77.3087 75.1942 9.9175 
-74.9438 54.5249 10.5675 -56.4541 47.0236 9.91798 -59.2072 66.7897 9.91902 
2.16662 63.926 9.91878 26.6321 50.8251 9.91796 27.6629 71.0606 9.9188 
44.2051 60.0771 11.9258 63.8992 62.591 9.91847 100.076 67.6333 9.91877 
84.5928 55.4278 18.4801 80.8767 73.0733 9.9177 114.106 53.4439 9.91726 
130.831 64.3185 9.91287 -116.239 79.3593 9.91965 -135.109 85.8537 9.90898 
-94.8129 87.4642 9.9165 -21.8015 103.788 9.91208 13.3955 85.0163 9.91877 
-4.52147 93.8089 9.91371 5.00201 109.125 18.4617 22.0636 102.995 9.91876 
104.934 86.9895 9.91877 85.7367 92.4296 9.92135 98.7634 107.558 9.92142 
117.969 102.101 9.91926 124.535 83.2528 9.91712 -131.589 138.456 9.92018 
-88.8097 127.192 9.91558 -73.6996 140.231 9.92008 -54.6647 134.228 9.91887 
-37.0692 116.634 9.92303 -28.7452 134.774 9.91961 -6.39477 139.306 9.91434 
-9.66168 119.623 9.91795 15.477 123.817 9.91959 39.1307 137.908 9.91535 
34.702 118.443 9.91963 61.4649 121.753 9.91873 77.9576 110.692 11.9255 
82.2224 130.074 9.91136 134.61 114.18 9.9145 127.37 132.769 9.91843 
112.81 120.457 15.8093 -116.859 -128.723 27.1659 -136.07 -133.194 30.2172 
-128.253 -113.066 32.0013 -120.245 -122.687 47.5462 -133.51 -137.466 49.5452 
-100.471 -130.987 38.3302 -85.9455 -123.087 27.1521 -81.4519 -136.052 41.6469 
-103.595 -113.873 28.5456 -66.0851 -121.116 27.1281 -49.5187 -134.109 26.4934 
-61.3987 -130.814 43.9241 -53.1935 -112.692 39.8254 -0.491816 -136.923 28.0768 
9.30862 -128.814 48.1218 17.5842 -128.689 29.9612 33.4945 -140.671 28.7499 
32.2513 -115.409 32.5571 33.9711 -132.601 46.9933 64.7632 -125.584 24.7976 
97.8895 -128.991 35.3835 88.9291 -113.727 47.0854 108.746 -114.902 44.9362 
106.432 -114.473 24.6872 135.298 -116.982 25.4735 119.685 -126.75 33.1757 
128.486 -112.201 43.6215 -112.371 -89.497 24.3519 -138.332 -96.8022 26.3198 
-79.2019 -89.793 35.3357 -18.4177 -109.286 39.7067 -44.4372 -86.6994 33.9294 
5.37515 -88.8647 24.2841 15.2557 -104.557 31.6638 -1.09629 -79.0335 42.0745 
17.2701 -86.6037 40.1483 32.8045 -96.2253 27.0804 28.0618 -102.032 46.763 
94.8502 -96.4258 28.8701 91.1205 -93.9213 48.3174 109.953 -95.2192 41.8633 
121.963 -102.287 27.5842 125.625 -83.4423 45.5759 126.074 -82.8573 25.6405 
-130.535 -77.3885 25.1264 -117.872 -62.2312 28.0111 -110.147 -59.2546 46.1723 
-92.3866 -57.4911 37.2348 -104.566 -47.7638 24.5389 -76.2829 -57.7777 49.0255 
-27.7156 -77.8681 27.5798 -20.0272 -59.5452 25.7265 8.10553 -69.3106 27.2727 
-5.75485 -59.7766 39.6721 13.0361 -63.0175 45.5598 26.0755 -77.5923 24.6666 
33.2462 -64.0418 37.4464 45.6698 -48.6975 28.6352 37.902 -47.1215 46.9531 
46.6642 -67.8682 23.1708 66.7464 -65.5478 23.8986 66.2775 -52.6137 40.0103 
99.5133 -62.4617 35.6239 133.783 -64.8017 29.208 133.739 -65.5582 49.1513 
-124.694 -46.0562 42.6308 -133.317 -46.8796 24.6567 -118.519 -33.8579 27.7508 
-137.389 -27.4439 26.668 -123.483 -15.8007 35.0007 -57.7967 -40.678 24.7989 
-24.8628 -41.9675 36.3956 13.7889 -34.9189 24.8025 -9.7511 -42.8185 49.4036 
38.6405 -25.9669 47.6712 65.4012 -43.6202 22.2163 55.0973 -37.079 45.6643 
98.2297 -29.0519 25.4556 88.1251 -30.18 42.6278 129.189 -45.3911 28.6549 
-120.197 0.154848 23.4857 -114.152 0.180128 42.5072 -140.794 -6.33373 26.0235 
-136.918 3.74766 42.8073 -100.716 -2.53414 26.8692 -100.098 12.9189 48.7501 
-78.4881 -12.531 24.1516 -69.1989 -12.3688 41.8142 -56.6557 -5.88257 27.7077 
-53.2408 11.1901 48.1293 -24.4519 -7.35358 41.1736 9.29738 0.608952 36.8495 
27.4633 5.245 26.6465 28.521 -8.0045 41.5395 23.7977 11.4432 45.2634 
59.1609 -9.34001 24.8001 88.9722 7.89837 30.7417 81.735 2.7051 48.5985 
-126.949 34.1194 23.2758 -110.967 17.2551 28.0167 -127.766 20.8763 38.1863 
-105.989 30.7094 41.8809 -76.5917 22.6566 24.7992 -48.6225 43.2465 28.6335 
-41.9085 24.4505 28.6441 0.98745 32.333 24.7987 33.7977 23.206 32.6136 
43.2599 40.0934 24.5975 74.5891 21.6686 29.4374 68.2609 46.4544 25.6422 
86.9932 21.6432 45.0883 86.3701 39.8518 30.8301 122.014 22.84 24.8 
136.544 45.0665 47.5106 -116.682 63.9698 41.5419 -85.3577 49.102 45.8861 
-85.7193 56.2974 27.2758 -82.0525 68.5104 42.6363 -88.5088 77.8404 26.2212 
-62.3163 49.042 42.7234 -62.7465 70.4123 29.2249 -52.4978 65.353 48.7364 
-28.1713 72.8288 24.7942 4.60213 65.688 34.5665 -7.357 57.0707 48.02 
27.6857 47.4142 41.5494 22.2024 60.0077 27.0732 40.9359 65.0247 44.6617 
21.1487 67.3915 45.5889 52.0248 57.1734 30.0553 72.9409 64.91 31.62 
65.1916 67.9275 49.764 102.154 51.4958 27.1236 90.8981 74.9875 27.0679 
88.7378 56.9489 40.8521 106.133 72.5733 39.7284 134.587 55.3409 27.3315 
117.86 65.9824 24.985 122.458 58.4252 42.8725 137.351 76.2155 24.548 
132.791 76.513 43.9714 -135.583 92.7983 47.2682 -93.3873 89.9987 41.2768 
-66.4197 104.877 24.7932 -50.3476 85.2052 48.7837 -37.8499 100.132 44.3307 
-31.6438 107.537 26.8577 2.18858 89.7776 28.2633 -12.0535 103.729 27.3244 
-8.50212 93.8188 44.619 7.4728 81.9179 45.8272 2.65119 109.556 39.4936 
18.4656 101.051 30.7825 19.2436 79.546 29.8783 25.2119 92.836 47.6735 
51.5995 91.716 24.7963 77.4408 99.6688 46.9296 79.4542 80.301 42.5313 
86.1027 94.167 29.8082 134.255 97.195 20.3702 113.953 105.735 47.4782 
-115.943 110.977 24.7982 -139.536 125.873 45.8248 -88.2413 131.787 29.3285 
-98.5978 132.291 46.3806 -90.5688 112.884 48.7435 -67.499 139.563 28.883 
-52.7478 132.901 40.5614 -31.5684 140.4 37.8477 -21.8874 124.922 25.8682 
-41.6041 129.698 24.3156 -33.5529 120.896 41.558 -3.09657 137.642 46.4133 
-2.0409 125.181 27.9972 -13.7023 120.963 43.6358 15.0527 133.844 33.5926 
45.7863 126.166 24.6115 29.4231 117.668 32.2542 47.0267 134.392 45.3267 
62.2528 123.237 35.4949 107.941 140.43 47.1772 78.7265 112.603 31.7794 
89.4083 135.043 37.3193 94.3675 121.682 23.3363 82.5191 120.854 49.5523 
114.077 137.349 26.3601 134.505 125.747 27.5246 126.914 137.654 41.6356 
-140.513 -120.125 56.5222 -133.547 -133.886 69.1806 -137.89 -115.549 75.7763 
-109.946 -137.043 56.8287 -95.174 -117.2 51.7545 -90.382 -134.721 60.0269 
-75.4132 -119.773 52.8774 -71.3459 -140.45 58.2878 -58.3583 -126.072 63.0746 
-76.3796 -126.502 71.6417 -55.3639 -114.108 78.7704 -42.7677 -131.641 51.0279 
-40.1902 -118.191 65.5444 -36.6851 -136.677 72.1982 -20.8932 -140.751 54.6946 
-18.2544 -130.345 76.4833 -4.48823 -132.158 62.1486 6.82534 -115.732 62.9907 
8.07844 -129.47 77.42 45.0701 -116.888 52.318 26.0738 -118.186 58.3117 
34.9729 -128.332 73.7434 23.0146 -112.752 77.269 48.4708 -134.762 60.5315 
62.7768 -117.547 61.5073 68.1704 -136.413 57.8371 62.9329 -137.934 77.0306 
86.7755 -133.091 51.4378 103.602 -127.369 60.5163 87.1892 -123.593 71.8356 
105.625 -133.469 79.4116 122.011 -128.63 52.9141 125.702 -116.195 68.0846 
126.51 -134.096 76.8822 -123.999 -89.3449 57.302 -84.5426 -107.04 65.2489 
-90.8334 -88.334 68.2534 -64.1449 -106.222 62.2451 -47.7591 -97.6656 54.7094 
-70.9052 -88.7972 69.2584 -52.5069 -94.9635 73.906 -33.6109 -99.8201 69.7133 
10.5843 -97.6704 55.3579 -4.14747 -85.336 60.7632 14.8735 -78.378 58.1727 
27.5695 -95.4897 65.6121 41.3638 -109.125 70.3234 57.7279 -84.3169 51.9523 
82.4372 -105.771 64.2076 106.042 -87.0005 59.6259 107.559 -108.058 63.6474 
89.8416 -91.2491 75.7321 124.429 -98.9978 58.0279 112.675 -94.163 77.0343 
132.122 -98.1803 79.0525 -127.969 -54.761 60.2852 -126.922 -62.9993 80.0692 
-109.329 -58.8801 66.1101 -93.5975 -65.23 55.5918 -82.7947 -56.0165 69.6162 
[...]
POINT_DATA 2000
FIELD FieldData 7
id 1 2000 int
244 224 311 293 113 306 121 444 93 
415 89 380 194 73 97 382 171 384 
223 143 82 191 270 442 187 214 158 
46 323 149 414 310 401 228 154 173 
262 297 55 268 363 64 258 245 148 
302 174 231 246 326 153 204 227 239 
71 274 152 103 201 417 78 241 256 
54 352 168 410 225 402 340 233 29 
208 252 349 90 458 351 135 408 34 
159 134 282 328 428 216 107 404 165 
67 264 436 166 94 238 226 456 277 
367 120 240 260 329 290 253 147 421 
379 394 182 450 139 338 76 405 446 
170 63 222 199 119 347 376 190 434 
232 133 318 209 48 455 198 123 276 
35 100 75 242 400 261 146 361 373 
180 230 32 142 280 448 350 422 53 
424 286 427 271 60 202 186 344 441 
235 275 22 294 52 197 341 91 452 
316 70 111 9 2 284 412 254 358 
110 132 80 439 291 88 74 127 285 
314 257 429 287 137 65 43 86 196 
105 289 457 178 325 151 355 296 85 
25 322 403 37 343 117 309 411 10 
337 11 183 308 144 397 288 390 212 
49 353 416 332 39 317 362 181 237 
192 4 419 160 383 360 7 301 51 
138 69 263 330 20 392 87 12 324 
375 266 243 57 249 15 345 3 265 
381 281 213 145 388 321 8 215 99 
377 167 131 399 378 108 320 203 247 
359 269 354 96 77 335 346 251 364 
27 331 445 305 116 304 334 30 425 
162 31 435 18 312 140 372 295 17 
6 33 38 368 36 59 303 81 430 
389 125 356 236 115 163 423 426 279 
255 348 61 79 229 283 66 443 259 
1869 858 1289 406 365 1824 164 1196 431 
1754 1015 307 300 1911 299 1878 112 102 
1590 386 420 339 1019 175 195 248 1720 
185 1432 1941 1859 432 727 1671 5 1033 
1555 156 366 327 1883 184 409 272 385 
371 83 14 109 47 1285 1927 118 708 
862 1786 1564 393 336 1724 220 559 342 
193 23 1860 319 1947 333 981 1609 449 
124 437 218 1649 1726 217 1875 1194 315 
661 1084 745 26 267 250 418 1736 205 
45 370 1164 72 398 114 1369 757 141 
155 937 588 844 1762 19 766 769 1160 
84 391 1511 374 106 206 234 157 1866 
28 219 130 751 68 41 56 1393 1662 
101 357 1449 629 1411 454 1915 1023 1446 
453 62 1570 665 313 1606 207 188 433 
1 577 104 58 597 590 273 1771 16 
24 1403 1118 150 1053 407 172 1683 200 
129 126 278 98 447 44 1658 292 1087 
794 221 177 1957 440 1130 211 189 1980 
1520 128 176 413 21 210 395 1404 1812 
161 1874 709 438 929 1840 169 1089 1711 
1889 92 1370 553 1434 1452 298 1402 1857 
1691 95 387 1900 1095 1721 40 136 1287 
1595 13 179 396 1504 776 1623 42 369 
50 974 1075 481 485 1254 1538 972 1337 
959 1816 1343 1312 549 555 1617 1297 1897 
917 1200 1655 606 909 1944 1386 1029 542 
1178 1842 675 1267 521 1455 1004 658 1693 
1477 884 1734 1413 1541 668 1058 1833 1798 
649 1464 1225 1154 1152 1529 541 1959 1491 
1211 1321 1684 1717 1176 2000 463 1682 762 
920 1731 880 1425 487 659 1844 1679 496 
490 1871 1148 838 1823 1522 1216 798 992 
1544 1368 870 609 1419 1239 1008 1172 1108 
1608 1021 847 1041 867 1742 1804 1465 533 
915 1288 1031 451 1346 651 1395 1835 967 
977 811 1919 1735 1389 1125 894 1483 587 
1473 1962 1070 759 1195 1038 1168 1408 1701 
467 122 1751 716 1405 1681 1990 1421 1410 
601 1604 475 507 1965 1416 1576 1533 846 
573 493 1043 942 1639 1766 1732 1936 1537 
1773 1199 615 1365 1205 681 1457 1532 982 
604 1749 859 956 1725 571 1625 1493 1951 
822 1778 1611 969 1870 1246 1145 560 975 
1428 1966 680 961 819 907 789 1896 1025 
955 898 1420 1175 1263 1904 663 842 913 
470 1161 1776 1111 1910 519 1181 1607 1987 
1850 1078 971 1257 1348 1279 1057 958 1640 
1556 843 1846 1566 1926 1062 1899 569 758 
953 872 1183 462 580 1543 1831 837 1689 
815 893 1002 725 460 628 780 1045 912 
1218 480 1431 1879 784 850 868 476 1546 
1123 1052 1328 1633 1584 860 1470 921 633 
1135 881 682 895 1571 1592 976 1901 647 
534 1230 1587 673 1049 1377 522 1744 1105 
1423 1182 1134 1761 531 729 706 1723 804 
1558 945 472 552 1372 581 1502 1101 1275 
1953 1887 1855 1149 719 1568 1073 1578 793 
465 1838 1499 1458 635 750 471 1048 468 
1463 940 1688 1917 667 631 1613 671 650 
1340 968 1600 1935 1418 1081 1685 925 1890 
1177 1484 1796 1808 1114 1266 1064 1219 1653 
1059 1308 1583 504 1478 1644 1480 1863 1136 
1642 1868 1497 1260 1360 899 1526 1120 854 
1938 943 1272 960 1772 1273 1596 1984 1445 
973 1330 754 595 1829 1826 678 808 514 
1898 1834 1437 1895 1740 1849 538 1206 1918 
1221 998 1066 1690 637 1969 1236 882 735 
1548 1110 1268 523 806 1943 1757 988 489 
1295 1234 1476 1104 1228 1983 756 1466 918 
856 1707 997 1923 1673 572 694 1668 1638 
951 812 1091 625 1619 1097 677 1968 1214 
840 551 1126 1208 1210 1067 994 1490 1979 
1127 1357 730 1667 1259 1333 1939 1774 540 
1937 786 892 693 1124 1818 763 1140 488 
979 596 1536 623 499 1192 900 993 1579 
529 1026 1012 1338 1777 1569 1213 1313 1291 
902 1498 871 941 814 1793 1472 1562 1347 
1942 1401 1044 1494 1339 1621 1274 494 1132 
928 1349 1554 1924 910 1746 1374 720 1083 
1925 1851 1574 1286 1069 1071 1507 1202 582 
803 1706 1077 576 1322 652 539 1056 689 
1659 901 1954 738 1932 1618 1864 630 512 
1143 1080 1055 764 1307 1139 770 1280 1789 
802 1115 810 1442 931 564 536 1209 566 
1950 1224 1631 1893 1527 1885 1422 1189 739 
1794 474 1854 1615 1391 532 554 1989 1158 
1426 611 1634 1506 1424 717 1508 509 1993 
1170 705 1841 558 1601 1847 999 991 1387 
1913 1174 1486 1383 653 1945 1231 1730 1250 
1656 1131 1552 1061 1827 602 1060 497 1076 
1809 704 1171 1865 825 1063 1074 1517 1582 
1107 1670 823 1467 1985 1068 1785 799 774 
1759 692 742 1256 1795 484 768 1451 1819 
1034 1251 527 1801 760 1293 1970 674 1997 
747 1304 618 1096 908 923 1098 1042 1637 
1882 1462 1227 835 1603 736 1106 1712 1450 
1678 876 1474 700 1839 1680 801 516 746 
1371 877 779 1810 922 1510 775 732 1704 
1716 639 785 1314 1573 1122 608 614 621 
1001 1783 1627 1155 1931 1775 1862 1000 1549 
477 1179 1902 1946 1269 1147 1112 524 916 
887 695 1622 483 930 1496 1100 782 1316 
1429 1156 703 1929 1581 1563 620 1788 1353 
765 1780 1560 1471 1624 935 891 1748 607 
1006 1963 1197 744 1233 807 1976 1342 648 
579 1728 1255 662 1646 1861 1713 1769 795 
1364 1050 568 1958 1201 1620 1998 1747 1317 
1090 1813 1252 1180 526 634 1032 1738 1814 
949 1363 492 1905 574 1822 1373 1460 1948 
1294 654 1379 1359 548 1444 1380 503 1676 
1955 1741 926 1054 1492 805 1672 1361 1561 
830 1265 479 1436 1807 1765 1551 836 520 
1988 1144 546 995 1381 1299 715 1577 696 
966 500 1017 1186 1242 603 1591 792 816 
1355 1832 1240 726 1438 510 1037 1977 1443 
1128 656 1247 688 1612 1014 1165 1843 873 
1332 1325 530 627 1666 1858 1459 687 827 
610 1710 1320 1184 1157 924 1700 1516 1515 
686 1531 1884 1550 1119 875 1215 874 1837 
1301 657 1908 1628 1398 724 1745 1427 711 
1396 1435 978 701 1277 1674 1881 679 1836 
1281 914 1514 1309 1750 1982 578 511 1981 
1598 469 748 1973 1585 832 1872 1237 952 
1972 1648 1138 1072 1366 547 824 565 755 
1229 1400 1752 1845 1151 1599 1505 1803 638 
1888 1760 1018 1534 1047 619 1007 684 1519 
1453 749 1559 1358 1825 1652 866 1433 664 
586 1141 1545 1245 550 1344 698 1580 707 
1193 1971 1647 1036 1390 464 800 1928 535 
790 1709 570 965 473 1085 1005 1310 1727 
1553 1086 1495 1503 1244 1099 1643 948 1787 
957 853 482 1876 934 1102 599 1602 1512 
685 525 1167 1030 660 655 864 1912 1815 
933 1226 1743 1412 1523 1999 1616 905 1173 
1967 722 1065 1657 517 1800 641 712 1805 
1282 983 1362 598 1597 1306 583 851 752 
1013 591 1261 515 1485 1686 777 593 1479 
567 1651 1696 1821 1594 1092 1852 1220 1415 
1166 670 1350 962 1392 861 1117 820 906 
1039 954 1113 1283 1626 970 486 1768 612 
501 1352 1797 826 821 771 1733 831 761 
1922 1440 1914 1518 1376 1708 834 1964 897 
1311 1886 1409 1542 740 1489 478 796 1318 
1488 676 1763 1605 1133 594 1940 1524 1094 
987 1695 1430 1781 839 1996 1324 841 753 
1758 1586 1994 946 1046 645 1907 985 781 
1995 626 1894 1933 1417 989 617 833 1129 
1481 950 624 857 829 1817 1331 1853 585 
556 787 1190 1806 1153 1767 518 1394 1142 
1873 980 1382 1718 1284 600 1203 622 1513 
1292 702 1290 1461 1315 767 1992 1270 869 
1079 772 584 1891 1687 963 1705 1469 1345 
1187 1235 1764 737 1632 1867 605 562 1916 
1082 1629 1547 1675 818 1137 927 632 1335 
879 1880 1698 731 1198 1739 1020 1892 1278 
1475 903 1022 1692 1016 1276 1241 1729 644 
1326 1024 1121 1645 863 743 984 561 1856 
713 1792 809 1378 1243 506 1956 1799 1329 
498 817 1961 1702 616 1303 932 1232 845 
1217 1341 1447 1146 1677 1588 1238 1660 669 
714 1051 1384 1163 1593 1191 1535 1641 710 
1169 849 939 896 778 783 537 1974 1334 
1456 1116 1664 543 1906 1697 944 1828 1264 
848 563 1753 1635 885 1782 1454 1509 1185 
1756 883 1439 575 791 1367 1530 1934 886 
1565 1323 1305 466 508 728 723 1930 741 
1575 1298 1212 1500 1802 1011 1302 640 513 
911 1399 545 646 1223 1356 904 1669 1040 
1589 733 505 683 1258 1159 828 1830 1103 
672 1540 1665 889 878 1035 1909 1249 1699 
773 1027 1009 697 557 718 1448 852 1375 
1093 1525 1779 459 1949 788 690 491 1572 
1262 1521 1694 1162 642 1975 613 1003 964 
1468 1921 1614 1407 1661 1385 1296 1414 1848 
528 1501 996 1960 1719 1820 1397 1319 643 
1567 666 544 721 1722 1654 1088 1406 1300 
1991 1952 502 1557 1351 865 592 855 1528 
1714 947 1271 1109 1150 589 1737 1791 1028 
1663 1487 1703 936 1354 1388 890 1636 888 
1610 1903 1188 1877 813 1327 1986 990 1248 
1010 1441 1650 938 1790 797 919 1253 495 
1482 1920 1207 1539 734 1770 1755 691 1204 
699 1336 1978 1715 1630 1784 1222 636 1811 
986 461 
type 1 2000 int
1 1 1 1 1 1 1 1 1 
1 1 1 1 1 1 1 1 1 
1 1 1 1 1 1 1 1 1 
1 1 1 1 1 1 1 1 1 
1 1 1 1 1 1 1 1 1 
1 1 1 1 1 1 1 1 1 
1 1 1 1 1 1 1 1 1 
1 1 1 1 1 1 1 1 1 
1 1 1 1 1 1 1 1 1 
1 1 1 1 1 1 1 1 1 
1 1 1 1 1 1 1 1 1 
1 1 1 1 1 1 1 1 1 
1 1 1 1 1 1 1 1 1 
1 1 1 1 1 1 1 1 1 
1 1 1 1 1 1 1 1 1 
1 1 1 1 1 1 1 1 1 
1 1 1 1 1 1 1 1 1 
1 1 1 1 1 1 1 1 1 
1 1 1 1 1 1 1 1 1 
1 1 1 1 1 1 1 1 1 
1 1 1 1 1 1 1 1 1 
1 1 1 1 1 1 1 1 1 
1 1 1 1 1 1 1 1 1 
1 1 1 1 1 1 1 1 1 
1 1 1 1 1 1 1 1 1 
1 1 1 1 1 1 1 1 1 
1 1 1 1 1 1 1 1 1 
1 1 1 1 1 1 1 1 1 
1 1 1 1 1 1 1 1 1 
1 1 1 1 1 1 1 1 1 
1 1 1 1 1 1 1 1 1 
1 1 1 1 1 1 1 1 1 
1 1 1 1 1 1 1 1 1 
1 1 1 1 1 1 1 1 1 
1 1 1 1 1 1 1 1 1 
1 1 1 1 1 1 1 1 1 
1 1 1 1 1 1 1 1 1 
1 1 1 1 1 1 1 1 1 
1 1 1 1 1 1 1 1 1 
1 1 1 1 1 1 1 1 1 
1 1 1 1 1 1 1 1 1 
1 1 1 1 1 1 1 1 1 
1 1 1 1 1 1 1 1 1 
1 1 1 1 1 1 1 1 1 
1 1 1 1 1 1 1 1 1 
1 1 1 1 1 1 1 1 1 
1 1 1 1 1 1 1 1 1 
1 1 1 1 1 1 1 1 1 
1 1 1 1 1 1 1 1 1 
1 1 1 1 1 1 1 1 1 
1 1 1 1 1 1 1 1 1 
1 1 1 1 1 1 1 1 1 
1 1 1 1 1 1 1 1 1 
1 1 1 1 1 1 1 1 1 
1 1 1 1 1 1 1 1 1 
1 1 1 1 1 1 1 1 1 
1 1 1 1 1 1 1 1 1 
1 1 1 1 1 1 1 1 1 
1 1 1 1 1 1 1 1 1 
1 1 1 1 1 1 1 1 1 
1 1 1 1 1 1 1 1 1 
1 1 1 1 1 1 1 1 1 
1 1 1 1 1 1 1 1 1 
1 1 1 1 1 1 1 1 1 
1 1 1 1 1 1 1 1 1 
1 1 1 1 1 1 1 1 1 
1 1 1 1 1 1 1 1 1 
1 1 1 1 1 1 1 1 1 
1 1 1 1 1 1 1 1 1 
1 1 1 1 1 1 1 1 1 
1 1 1 1 1 1 1 1 1 
1 1 1 1 1 1 1 1 1 
1 1 1 1 1 1 1 1 1 
1 1 1 1 1 1 1 1 1 
1 1 1 1 1 1 1 1 1 
1 1 1 1 1 1 1 1 1 
1 1 1 1 1 1 1 1 1 
1 1 1 1 1 1 1 1 1 
1 1 1 1 1 1 1 1 1 
1 1 1 1 1 1 1 1 1 
1 1 1 1 1 1 1 1 1 
1 1 1 1 1 1 1 1 1 
1 1 1 1 1 1 1 1 1 
1 1 1 1 1 1 1 1 1 
1 1 1 1 1 1 1 1 1 
1 1 1 1 1 1 1 1 1 
1 1 1 1 1 1 1 1 1 
1 1 1 1 1 1 1 1 1 
1 1 1 1 1 1 1 1 1 
1 1 1 1 1 1 1 1 1 
1 1 1 1 1 1 1 1 1 
1 1 1 1 1 1 1 1 1 
1 1 1 1 1 1 1 1 1 
1 1 1 1 1 1 1 1 1 
1 1 1 1 1 1 1 1 1 
1 1 1 1 1 1 1 1 1 
1 1 1 1 1 1 1 1 1 
1 1 1 1 1 1 1 1 1 
1 1 1 1 1 1 1 1 1 
1 1 1 1 1 1 1 1 1 
1 1 1 1 1 1 1 1 1 
1 1 1 1 1 1 1 1 1 
1 1 1 1 1 1 1 1 1 
1 1 1 1 1 1 1 1 1 
1 1 1 1 1 1 1 1 1 
1 1 1 1 1 1 1 1 1 
1 1 1 1 1 1 1 1 1 
1 1 1 1 1 1 1 1 1 
1 1 1 1 1 1 1 1 1 
1 1 1 1 1 1 1 1 1 
1 1 1 1 1 1 1 1 1 
1 1 1 1 1 1 1 1 1 
1 1 1 1 1 1 1 1 1 
1 1 1 1 1 1 1 1 1 
1 1 1 1 1 1 1 1 1 
1 1 1 1 1 1 1 1 1 
1 1 1 1 1 1 1 1 1 
1 1 1 1 1 1 1 1 1 
1 1 1 1 1 1 1 1 1 
1 1 1 1 1 1 1 1 1 
1 1 1 1 1 1 1 1 1 
1 1 1 1 1 1 1 1 1 
1 1 1 1 1 1 1 1 1 
1 1 1 1 1 1 1 1 1 
1 1 1 1 1 1 1 1 1 
1 1 1 1 1 1 1 1 1 
1 1 1 1 1 1 1 1 1 
1 1 1 1 1 1 1 1 1 
1 1 1 1 1 1 1 1 1 
1 1 1 1 1 1 1 1 1 
1 1 1 1 1 1 1 1 1 
1 1 1 1 1 1 1 1 1 
1 1 1 1 1 1 1 1 1 
1 1 1 1 1 1 1 1 1 
1 1 1 1 1 1 1 1 1 
1 1 1 1 1 1 1 1 1 
1 1 1 1 1 1 1 1 1 
1 1 1 1 1 1 1 1 1 
1 1 1 1 1 1 1 1 1 
1 1 1 1 1 1 1 1 1 
1 1 1 1 1 1 1 1 1 
1 1 1 1 1 1 1 1 1 
1 1 1 1 1 1 1 1 1 
1 1 1 1 1 1 1 1 1 
1 1 1 1 1 1 1 1 1 
1 1 1 1 1 1 1 1 1 
1 1 1 1 1 1 1 1 1 
1 1 1 1 1 1 1 1 1 
1 1 1 1 1 1 1 1 1 
1 1 1 1 1 1 1 1 1 
1 1 1 1 1 1 1 1 1 
1 1 1 1 1 1 1 1 1 
1 1 1 1 1 1 1 1 1 
1 1 1 1 1 1 1 1 1 
1 1 1 1 1 1 1 1 1 
1 1 1 1 1 1 1 1 1 
1 1 1 1 1 1 1 1 1 
1 1 1 1 1 1 1 1 1 
1 1 1 1 1 1 1 1 1 
1 1 1 1 1 1 1 1 1 
1 1 1 1 1 1 1 1 1 
1 1 1 1 1 1 1 1 1 
1 1 1 1 1 1 1 1 1 
1 1 1 1 1 1 1 1 1 
1 1 1 1 1 1 1 1 1 
1 1 1 1 1 1 1 1 1 
1 1 1 1 1 1 1 1 1 
1 1 1 1 1 1 1 1 1 
1 1 1 1 1 1 1 1 1 
1 1 1 1 1 1 1 1 1 
1 1 1 1 1 1 1 1 1 
1 1 1 1 1 1 1 1 1 
1 1 1 1 1 1 1 1 1 
1 1 1 1 1 1 1 1 1 
1 1 1 1 1 1 1 1 1 
1 1 1 1 1 1 1 1 1 
1 1 1 1 1 1 1 1 1 
1 1 1 1 1 1 1 1 1 
1 1 1 1 1 1 1 1 1 
1 1 1 1 1 1 1 1 1 
1 1 1 1 1 1 1 1 1 
1 1 1 1 1 1 1 1 1 
1 1 1 1 1 1 1 1 1 
1 1 1 1 1 1 1 1 1 
1 1 1 1 1 1 1 1 1 
1 1 1 1 1 1 1 1 1 
1 1 1 1 1 1 1 1 1 
1 1 1 1 1 1 1 1 1 
1 1 1 1 1 1 1 1 1 
1 1 1 1 1 1 1 1 1 
1 1 1 1 1 1 1 1 1 
1 1 1 1 1 1 1 1 1 
1 1 1 1 1 1 1 1 1 
1 1 1 1 1 1 1 1 1 
1 1 1 1 1 1 1 1 1 
1 1 1 1 1 1 1 1 1 
1 1 1 1 1 1 1 1 1 
1 1 1 1 1 1 1 1 1 
1 1 1 1 1 1 1 1 1 
1 1 1 1 1 1 1 1 1 
1 1 1 1 1 1 1 1 1 
1 1 1 1 1 1 1 1 1 
1 1 1 1 1 1 1 1 1 
1 1 1 1 1 1 1 1 1 
1 1 1 1 1 1 1 1 1 
1 1 1 1 1 1 1 1 1 
1 1 1 1 1 1 1 1 1 
1 1 1 1 1 1 1 1 1 
1 1 1 1 1 1 1 1 1 
1 1 1 1 1 1 1 1 1 
1 1 1 1 1 1 1 1 1 
1 1 1 1 1 1 1 1 1 
1 1 1 1 1 1 1 1 1 
1 1 1 1 1 1 1 1 1 
1 1 1 1 1 1 1 1 1 
1 1 1 1 1 1 1 1 1 
1 1 1 1 1 1 1 1 1 
1 1 1 1 1 1 1 1 1 
1 1 1 1 1 1 1 1 1 
1 1 1 1 1 1 1 1 1 
1 1 1 1 1 1 1 1 1 
1 1 1 1 1 1 1 1 1 
1 1 
i 3 2000 int
0 0 0 0 0 0 0 0 0 
0 0 0 0 0 0 0 0 0 
0 0 0 0 0 0 0 0 0 
0 0 0 0 0 0 0 0 0 
0 0 0 0 0 0 0 0 0 
0 0 0 0 0 0 0 0 0 
0 0 0 0 0 0 0 0 0 
0 0 0 0 0 0 0 0 0 
0 0 0 0 0 0 0 0 0 
0 0 0 0 0 0 0 0 0 
0 0 0 0 0 0 0 0 0 
0 0 0 0 0 0 0 0 0 
0 0 0 0 0 0 0 0 0 
0 0 0 0 0 0 0 0 0 
0 0 0 0 0 0 0 0 0 
0 0 0 0 0 0 0 0 0 
0 0 0 0 0 0 0 0 0 
0 0 0 0 0 0 0 0 0 
0 0 0 0 0 0 0 0 0 
0 0 0 0 0 0 0 0 0 
0 0 0 0 0 0 0 0 0 
0 0 0 0 0 0 0 0 0 
0 0 0 0 0 0 0 0 0 
0 0 0 0 0 0 0 0 0 
1 0 0 0 0 0 0 0 0 
0 0 0 0 0 0 0 0 0 
0 0 0 0 0 0 0 0 0 
0 0 0 0 0 0 0 0 0 
0 0 0 0 0 0 0 0 0 
0 0 0 0 0 0 0 0 0 
0 0 0 0 0 0 0 0 0 
0 0 0 0 0 0 0 0 0 
0 0 0 0 0 0 1 0 0 
0 0 0 0 0 0 0 0 0 
0 0 0 0 0 0 0 0 0 
0 0 0 0 0 0 0 0 0 
0 0 0 0 0 0 0 0 0 
0 0 0 0 0 0 0 0 0 
0 0 0 0 0 0 0 0 0 
0 0 0 0 0 0 0 0 0 
0 0 0 0 0 0 0 0 0 
0 0 0 0 0 0 0 0 0 
0 0 0 0 0 0 0 -1 0 
0 0 0 0 0 0 0 0 0 
0 0 0 0 0 0 0 -1 0 
0 0 0 0 0 0 0 -1 0 
0 0 0 0 0 0 0 0 0 
0 0 0 0 0 0 0 0 0 
0 0 0 0 0 0 0 0 0 
0 0 0 0 0 0 0 0 0 
0 0 0 0 0 0 0 0 0 
0 0 0 0 0 0 0 0 0 
0 0 0 0 0 0 0 0 0 
0 0 0 0 0 0 0 0 0 
0 0 0 0 0 0 0 0 0 
0 0 0 0 0 0 0 0 0 
0 0 0 0 0 0 0 0 0 
0 0 0 0 0 0 0 0 0 
0 0 0 0 0 0 0 0 0 
0 0 0 0 0 0 0 0 0 
0 0 0 0 0 0 0 0 0 
0 0 0 0 0 0 0 0 0 
0 0 0 0 0 0 0 0 0 
0 0 0 0 0 0 0 0 0 
0 0 0 0 0 0 0 0 0 
0 0 0 0 0 0 0 0 0 
0 0 0 0 0 0 0 0 0 
0 0 0 0 0 0 0 0 0 
0 0 0 0 0 0 0 0 0 
0 0 0 0 0 0 0 0 0 
0 0 0 0 0 0 0 0 0 
1 0 0 0 0 0 0 0 0 
0 0 0 0 0 0 0 0 0 
0 0 0 0 0 0 0 0 0 
0 0 0 0 0 0 0 0 0 
0 0 0 0 0 0 1 0 0 
1 0 0 0 0 0 0 0 0 
0 0 0 0 0 0 0 0 0 
0 0 0 0 0 0 0 0 0 
0 0 0 0 0 0 0 0 0 
0 0 0 0 0 0 0 0 0 
0 0 0 0 0 0 0 0 0 
0 0 0 0 0 0 0 0 0 
0 0 0 0 0 0 0 0 0 
0 0 0 0 0 0 0 0 0 
0 0 0 0 0 0 0 0 0 
0 0 0 0 0 0 0 0 0 
0 0 0 0 0 0 0 0 0 
0 0 0 0 0 0 0 0 0 
0 0 0 0 0 0 0 0 0 
0 0 0 0 0 0 0 0 0 
0 0 0 0 0 0 0 0 0 
0 0 0 0 0 0 0 0 0 
0 0 0 0 0 0 0 0 0 
0 0 0 0 0 0 0 0 0 
0 0 0 0 0 0 0 0 0 
0 0 0 0 0 0 0 0 0 
0 0 0 0 0 0 0 0 0 
0 0 0 0 0 0 0 0 0 
0 0 0 0 0 0 0 0 0 
0 0 0 0 0 0 0 0 0 
0 0 0 0 0 0 0 0 0 
0 0 0 0 0 0 0 0 0 
0 0 0 0 0 0 0 -1 0 
0 0 0 0 0 0 0 0 0 
0 0 0 0 0 0 0 -1 0 
0 0 0 0 0 0 0 0 0 
0 0 0 0 0 0 0 -1 0 
0 0 0 0 -1 0 0 0 0 
0 -1 0 0 0 0 0 0 0 
0 0 0 0 0 0 0 0 0 
0 0 0 0 0 0 0 0 0 
0 0 0 0 0 0 0 0 0 
0 0 0 0 0 0 0 0 0 
0 0 0 0 0 0 0 0 0 
0 0 0 0 0 0 0 0 0 
0 0 0 0 0 0 0 0 0 
0 0 0 0 0 0 0 0 0 
0 0 0 0 0 0 0 0 0 
0 0 0 0 0 0 0 0 0 
0 0 0 0 0 0 0 0 0 
0 0 0 0 0 0 0 0 0 
0 0 0 0 0 0 0 0 0 
0 0 0 0 0 0 0 0 0 
0 0 0 0 0 0 0 0 0 
0 0 0 0 0 0 0 0 0 
0 0 0 0 0 0 0 0 0 
0 0 0 0 0 0 0 0 0 
0 0 0 0 0 0 0 0 0 
-1 0 0 0 0 0 0 0 0 
0 0 0 0 0 0 0 0 0 
0 0 0 0 0 0 0 0 0 
0 0 0 0 0 0 0 0 0 
0 0 0 0 0 0 0 0 0 
0 0 0 0 0 0 0 0 0 
0 0 0 0 0 0 0 0 0 
0 0 0 -1 0 0 0 0 0 
0 0 0 0 0 0 0 0 0 
0 0 0 0 0 0 0 0 0 
0 0 0 0 0 0 0 0 0 
0 0 0 0 0 0 0 0 0 
0 0 0 0 0 0 0 0 0 
0 0 0 0 0 0 0 0 0 
0 0 0 0 0 0 0 0 0 
0 0 0 0 0 0 0 0 0 
0 0 0 0 0 0 0 0 0 
0 0 0 0 0 0 0 0 0 
0 0 0 0 0 0 0 0 0 
0 0 0 0 0 0 0 0 0 
0 0 0 0 0 0 0 0 0 
0 0 0 0 0 0 0 0 0 
0 0 0 0 0 0 0 0 0 
0 0 0 0 0 0 0 0 0 
0 0 0 0 0 0 0 0 0 
0 0 0 0 0 0 0 0 0 
0 0 0 0 0 0 0 0 0 
0 0 0 0 0 0 0 0 0 
0 0 0 0 0 0 0 0 0 
0 0 0 0 0 0 0 0 0 
0 0 0 0 0 0 0 0 0 
0 0 0 0 0 0 0 0 0 
0 0 0 0 0 0 0 0 0 
0 0 0 -1 0 0 0 0 0 
0 0 0 0 0 0 0 0 0 
0 0 0 0 0 0 0 0 0 
0 0 0 0 0 0 0 0 0 
0 0 0 0 0 0 0 0 0 
0 0 0 0 0 0 0 0 0 
0 0 0 0 0 0 0 0 0 
0 0 0 0 0 0 0 0 0 
0 0 0 0 0 0 0 0 0 
0 0 0 0 0 0 0 0 0 
0 0 0 0 0 0 0 0 0 
0 0 0 0 0 0 0 0 0 
0 0 0 0 0 0 0 0 0 
0 0 0 0 0 0 0 0 0 
0 0 0 0 0 0 0 0 0 
0 0 0 0 0 0 0 0 0 
0 0 0 0 0 0 0 0 0 
0 0 0 0 0 0 0 0 0 
0 0 0 0 0 0 0 0 0 
0 0 0 0 0 0 0 -1 0 
0 0 0 0 0 0 0 0 0 
0 0 0 0 0 0 0 0 0 
0 0 0 0 0 0 0 0 0 
0 0 0 0 0 0 0 0 0 
0 0 0 0 0 0 0 0 0 
0 0 0 0 0 0 0 0 0 
0 0 0 0 1 0 0 0 0 
0 0 0 0 0 0 0 0 0 
0 0 0 0 0 0 0 0 0 
0 0 0 0 0 0 0 0 0 
0 0 0 0 0 0 0 0 0 
0 0 0 0 0 0 0 0 0 
0 0 0 0 0 0 0 0 0 
0 0 0 0 0 0 0 0 0 
0 0 0 0 0 0 0 0 0 
0 0 0 0 0 0 0 0 0 
0 0 0 1 0 0 0 0 0 
0 0 0 0 0 0 0 0 0 
0 0 0 0 0 0 0 0 0 
0 0 0 0 0 0 0 0 0 
0 0 0 0 0 0 0 0 0 
0 0 0 0 0 0 0 0 0 
0 0 0 0 0 0 0 0 0 
0 0 0 0 0 0 0 0 0 
0 0 0 0 0 0 0 0 0 
0 0 0 0 0 0 0 0 0 
0 0 0 0 0 0 0 0 0 
0 0 0 0 0 0 0 0 0 
0 0 0 0 0 0 0 0 0 
0 0 0 0 0 0 0 0 0 
0 0 0 0 0 0 0 0 0 
0 0 0 0 0 0 0 0 0 
0 0 0 0 0 0 0 0 0 
0 0 0 0 0 0 0 0 0 
0 0 0 0 0 0 0 0 0 
0 0 0 0 0 0 0 0 0 
0 0 0 0 0 0 0 0 0 
0 0 0 0 0 0 0 0 0 
0 0 0 0 0 0 0 0 0 
0 0 0 0 0 0 0 0 0 
0 0 0 0 0 0 0 0 0 
0 0 0 0 0 0 0 0 0 
0 0 0 0 0 0 0 0 0 
0 0 0 0 0 0 0 0 0 
0 0 0 0 0 0 0 0 0 
0 0 0 0 0 0 0 0 0 
0 0 0 0 0 0 0 0 0 
0 0 0 0 0 0 0 0 0 
0 0 0 0 0 0 0 0 0 
0 0 0 0 0 0 0 0 0 
0 0 0 0 0 0 0 0 0 
0 0 0 0 0 0 0 0 0 
0 0 0 0 0 0 0 0 0 
0 0 0 0 0 0 0 0 0 
0 -1 0 0 0 0 0 0 0 
0 0 0 0 0 0 0 0 0 
0 0 0 0 0 0 0 0 0 
0 0 0 0 0 0 0 0 0 
0 0 0 0 0 0 0 0 0 
0 0 0 0 0 0 0 0 0 
0 0 0 0 0 0 0 -1 0 
0 0 0 0 0 0 0 0 0 
0 0 0 0 0 0 0 0 0 
0 0 0 0 -1 0 0 0 0 
0 0 0 0 0 0 0 0 0 
0 0 0 0 0 0 0 1 0 
0 0 0 0 0 0 0 0 0 
0 0 0 0 1 0 0 1 0 
0 0 0 0 0 0 0 0 0 
0 1 0 0 0 0 0 0 0 
0 0 0 0 0 0 0 0 0 
0 0 0 0 0 0 0 0 0 
0 0 0 0 0 0 0 0 0 
0 0 0 0 0 0 0 0 0 
0 0 0 0 0 0 0 0 0 
0 0 0 0 0 0 0 0 0 
0 0 0 0 0 0 0 0 0 
0 0 0 0 0 0 0 0 0 
0 0 0 0 0 0 0 0 0 
0 0 0 0 0 0 0 0 0 
0 0 0 0 0 0 0 0 0 
0 0 0 0 0 0 0 0 0 
0 0 0 0 0 0 0 0 0 
0 0 0 0 0 0 0 0 0 
0 0 0 0 0 0 0 0 0 
0 0 0 0 0 0 0 0 0 
0 0 0 0 0 0 0 0 0 
0 0 0 0 0 0 0 0 0 
0 0 0 0 0 0 0 0 0 
0 0 0 0 0 0 0 0 0 
0 0 0 0 0 0 0 0 0 
0 0 0 0 0 0 0 0 0 
0 0 0 0 0 0 0 0 0 
0 0 0 0 0 0 0 0 0 
0 0 0 0 0 0 0 0 0 
0 0 0 0 0 0 0 0 0 
0 0 0 0 0 0 0 0 0 
0 0 0 0 0 0 0 0 0 
0 0 0 0 0 0 0 0 0 
0 0 0 0 0 0 0 0 0 
0 0 0 0 0 0 0 0 0 
0 0 0 0 0 0 0 0 0 
0 0 0 0 0 0 0 0 0 
1 0 0 0 0 0 0 0 0 
0 0 0 0 0 0 0 0 0 
0 0 0 0 0 0 0 0 0 
0 0 0 0 0 0 0 0 0 
1 0 0 0 0 0 0 0 0 
0 0 0 0 0 0 0 0 0 
0 0 0 0 0 0 0 0 0 
0 0 0 0 0 0 0 0 0 
0 0 0 0 0 0 0 0 0 
0 0 0 0 0 0 0 0 0 
0 0 0 0 0 0 0 0 0 
0 0 0 0 0 0 0 0 0 
0 0 0 0 0 0 0 0 0 
0 0 0 0 0 0 0 0 0 
0 0 0 0 0 0 0 0 0 
0 0 0 0 0 0 0 0 0 
0 0 0 -1 0 0 0 0 0 
0 0 0 0 0 0 0 0 0 
0 0 0 0 1 0 0 1 0 
0 0 0 0 0 0 0 0 0 
0 1 0 0 1 0 0 0 0 
0 0 0 0 0 0 0 0 0 
0 1 0 0 0 0 0 0 0 
0 0 0 0 0 0 0 0 0 
0 0 0 0 0 0 0 0 0 
0 0 0 0 0 0 0 0 0 
0 0 0 0 0 0 0 0 0 
0 0 0 0 0 0 0 0 0 
0 0 0 0 0 0 0 0 0 
0 0 0 0 0 0 0 0 0 
0 0 0 0 0 0 1 0 0 
0 0 0 0 0 0 0 0 0 
0 0 0 0 0 0 0 0 0 
0 0 0 0 0 0 0 0 0 
0 0 0 0 0 0 1 0 0 
0 0 0 0 0 0 0 0 0 
0 0 0 0 0 0 0 0 0 
0 0 0 0 0 0 0 0 0 
0 0 0 0 0 0 0 0 0 
0 0 0 0 0 0 0 0 0 
0 0 0 0 0 0 0 0 0 
0 0 0 0 0 0 0 0 0 
0 0 0 0 0 0 0 0 0 
0 0 0 0 0 0 0 0 0 
0 0 0 0 0 0 0 0 0 
0 0 0 0 0 0 0 0 0 
0 0 0 0 0 0 0 0 0 
0 0 0 0 0 0 0 0 0 
0 0 0 0 0 0 0 0 0 
0 0 0 0 0 0 0 0 0 
0 0 0 0 0 0 0 0 0 
0 0 0 -1 0 0 0 0 0 
0 0 0 0 0 0 0 0 0 
0 0 0 0 0 0 0 0 0 
0 0 0 0 0 0 0 0 0 
0 0 0 0 0 0 0 0 0 
0 0 0 0 0 0 0 0 0 
0 0 0 0 0 0 0 0 0 
0 0 0 0 0 0 0 0 0 
0 0 0 0 0 0 0 0 0 