# vtk DataFile Version 4.0
Generated by LIGGGHTS
ASCII
DATASET POLYDATA
POINTS 2000 float
-125.585 -123.998 9.92218 -111.912 -139.245 9.91826 -92.4491 -134.844 9.91877 
-105.99 -120.187 9.91935 -84.8021 -112.945 9.91576 -58.8765 -127.984 9.91423 
-39.1669 -131.109 9.91958 -19.5733 -127.318 9.91586 -45.5021 -112.179 9.91877 
12.7164 -138.084 9.91905 4.44252 -121.021 16.1534 29.0298 -126.584 9.91877 
96.6441 -122.386 9.91939 96.0067 -140.114 19.0646 115.455 -132.78 9.91774 
135.25 -130.199 9.92245 122.138 -113.976 9.91893 -137.819 -108.216 9.91854 
-129.282 -90.1734 9.91774 -118.875 -106.147 15.828 -100.597 -100.728 9.91562 
-101.715 -80.7916 9.90779 -55.3262 -91.7094 9.91703 -65.218 -109.053 9.92015 
-32.206 -97.2904 9.92134 -38.52 -78.3524 9.91877 6.36797 -102.154 9.92128 
-11.1278 -92.5494 9.91775 22.4809 -90.3744 9.9204 34.4482 -106.349 9.91848 
39.6808 -80.2514 9.91853 51.648 -96.223 9.91866 71.465 -93.8515 9.91905 
88.8975 -103.994 9.91784 94.768 -84.9232 9.91824 108.354 -99.5426 9.91732 
129.017 -95.2406 9.91274 114.216 -80.4669 9.90536 -135.405 -59.4214 9.91469 
-118.415 -69.8774 9.9189 -117.516 -49.937 9.9193 -100.61 -60.8604 9.91869 
-80.705 -62.2987 9.91839 -57.3908 -71.8517 9.91984 -19.0965 -73.7677 9.91053 
-32.7855 -59.231 9.91634 -8.23656 -57.0338 9.91719 0.836234 -74.8157 9.92195 
36.4015 -56.6853 9.91486 18.616 -65.7444 9.91987 59.5027 -77.8736 9.91877 
56.423 -55.3036 9.91246 77.8498 -52.9809 9.91348 78.8399 -72.9078 9.92582 
137.547 -77.202 9.91598 126.667 -60.4639 9.91877 -128.617 -33.3487 9.91861 
-112.175 -16.4074 18.8813 -89.4108 -44.3376 9.91936 -85.6169 -24.7423 9.91858 
-106.179 -33.5094 9.91829 -30.6991 -24.4097 9.91857 -24.2755 -42.2682 16.1322 
-12.2586 -16.7816 9.89614 45.227 -38.7823 9.91848 92.4304 -39.3577 9.92079 
108.689 -22.1138 9.91863 89.5235 -16.5303 9.91949 112.239 -41.7634 9.9227 
135.74 -42.6804 9.91805 126.708 -26.4872 17.3029 -129.755 -13.4217 9.91832 
-131.424 9.99913 9.91398 -107.845 6.22306 9.91926 -91.3559 -5.01923 9.91867 
-65.1999 -6.41221 9.91946 -45.7404 7.32068 17.4469 -45.6381 -11.1661 9.91911 
-15.1069 5.39652 9.90426 1.48478 -1.74366 18.3831 35.6604 12.6694 9.91904 
27.3792 -5.87204 9.92261 103.938 -2.724 9.91982 123.1 -8.29824 9.91976 
-117.106 23.9031 9.92023 -107.771 38.3539 20.0385 -46.0595 30.5947 9.91772 
-30.6186 17.9518 9.91875 -29.3604 41.5157 9.91623 32.5754 32.3879 9.91796 
70.5951 20.5409 9.92042 77.6935 39.1838 9.90767 51.1929 25.2061 9.91877 
55.7155 44.6488 9.91568 90.2944 23.7098 9.91655 97.2523 43.0921 9.92007 
-120.401 50.0097 9.91638 -131.321 66.7038 9.90792 -140.245 47.9032 9.9178 
-94.4291 49.2312 9.92072 -99.8075 68.4548 9.91877 -77.3988 75.5501 9.91217 
-75.2709 54.8253 10.4097 -56.715 47.4726 9.91758 -59.2496 67.2651 9.91693 
2.15697 64.1943 9.91896 26.4077 51.3675 9.91715 27.7348 71.8386 9.91811 
43.9732 60.5672 12.5379 63.597 62.9993 9.9207 99.2007 67.3251 9.92153 
84.7796 56.2678 18.2261 80.3392 73.8514 9.91701 114.001 53.922 9.91972 
130.843 64.6116 9.90247 -116.243 79.7817 9.91888 -135.114 86.287 9.91436 
-94.8788 87.7969 9.91815 -21.9176 104.09 9.90345 13.4685 85.7701 9.91877 
-4.61068 94.1839 9.91836 5.20675 109.312 18.7533 22.2796 103.671 9.91928 
104.971 86.4509 9.91877 86.0966 92.9477 9.90126 98.4912 108.579 9.91173 
117.365 102.124 9.91792 124.722 83.5889 9.91737 -131.495 138.923 9.92178 
-88.745 127.544 9.91139 -73.6187 140.563 9.91741 -54.6053 134.516 9.91564 
-37.1018 117.027 9.91195 -27.64 134.597 9.92244 -6.72679 139.411 9.91575 
-9.40714 119.637 9.91803 15.6366 124.171 9.91877 39.613 138.494 9.91604 
34.9385 119.091 9.91479 61.9179 122.302 9.91872 78.358 111.204 12.1531 
82.3026 130.634 9.91794 134.643 114.707 9.91709 127.582 133.371 9.91938 
113.207 120.771 15.6779 -116.703 -128.731 27.166 -135.724 -133.229 31.2021 
-128.19 -113.144 32.0333 -118.811 -122.392 47.0228 -100.358 -130.974 38.4207 
-85.8084 -122.931 27.3743 -81.3194 -135.915 41.852 -103.518 -113.832 28.6822 
-65.9741 -120.767 27.1047 -49.0641 -133.443 27.0962 -61.5728 -130.086 44.1898 
-53.2393 -112.303 39.926 -0.284988 -136.526 27.8001 9.73366 -128.213 47.8215 
17.6183 -127.881 29.4884 33.7073 -139.653 28.5851 32.518 -114.971 32.5971 
34.3968 -131.838 46.9359 65.1191 -124.827 24.7932 98.5339 -127.789 34.5454 
89.1412 -113.112 47.3185 108.04 -140.573 46.5627 108.953 -114.418 45.0504 
107.927 -113.741 23.9328 135.515 -117.484 25.3207 119.782 -126.607 33.5387 
129.495 -112.415 43.6675 -112.512 -89.2771 24.3787 -138.338 -96.9196 26.3731 
-79.3006 -89.5114 35.2367 -18.443 -109.187 39.7586 -44.5055 -86.681 33.8412 
4.78127 -88.2473 24.1582 15.0438 -103.77 31.3805 -1.58295 -78.6564 41.8119 
16.9504 -85.7733 39.7922 32.7949 -95.8669 26.8219 28.1576 -101.009 46.1749 
93.6075 -95.4922 28.582 91.2583 -93.2901 48.2806 109.577 -94.9939 40.5454 
123.427 -101.808 27.8993 125.726 -82.9813 45.5608 126.332 -82.1866 25.6483 
-129.251 -77.1702 25.059 -117.568 -61.2386 27.8916 -110.305 -59.2153 46.3724 
-92.615 -57.2743 37.3331 -103.807 -47.2678 24.18 -76.4149 -57.5258 48.9944 
-27.8022 -77.8859 27.3744 -20.4041 -59.4329 25.5587 8.37455 -68.8832 27.4272 
-5.90924 -59.3464 39.2698 12.7026 -62.379 45.7972 26.2834 -77.1569 24.3911 
33.4889 -63.4929 37.0414 45.803 -48.1583 28.8508 47.1878 -67.1912 23.0057 
66.9996 -64.897 23.8541 66.5684 -51.8596 40.1782 99.7421 -61.8305 35.664 
133.998 -64.0966 29.1545 134.142 -65.2412 49.0808 -124.846 -46.0343 42.7359 
-133.155 -46.0962 24.5895 -117.918 -33.5219 27.3848 -137.571 -26.7257 26.4821 
-58.06 -40.239 24.7983 -25.0208 -41.6801 36.0759 13.9064 -34.4793 24.7965 
-9.91022 -42.4444 49.0933 37.8261 -46.7965 47.0945 38.548 -25.4392 47.8415 
65.9228 -42.9298 22.3509 54.9248 -36.6007 45.6016 98.2342 -28.3651 25.7298 
88.2595 -29.6482 42.9707 129.378 -44.6853 28.7238 -123.578 -15.5088 35.2393 
-120.811 0.815865 24.094 -114.257 0.374822 42.9321 -140.693 -5.72412 26.1723 
-136.909 4.46188 42.9124 -101.237 -1.80352 26.9605 -100.202 13.272 48.7926 
-78.6145 -12.0076 23.5981 -69.9463 -11.9862 41.5742 -56.8216 -5.482 28.0126 
-53.2967 11.4565 47.9885 -24.4895 -7.10702 41.136 9.2485 0.773147 36.5907 
26.9936 5.43015 26.3775 28.2621 -7.42013 41.6029 23.2884 11.4021 45.9782 
58.8621 -8.80711 24.7963 88.8557 7.91807 31.2072 81.2254 2.88496 48.9652 
-127.152 34.8365 23.259 -111.155 17.8535 27.9896 -127.879 21.6245 38.2018 
-106.045 31.1194 42.0279 -76.7478 23.0197 24.7967 -48.7378 43.5597 28.606 
-42.0545 24.7537 28.5799 0.965092 32.6019 24.8002 33.467 22.9961 33.3193 
43.0531 41.0249 24.9135 74.7691 21.9588 29.4009 67.9354 46.784 25.5429 
87.2593 21.606 45.6303 86.2441 40.3021 30.1195 121.901 23.3009 24.7928 
136.433 45.5734 47.454 -116.722 64.3891 41.5523 -85.436 49.4745 45.8969 
-85.7665 56.6859 27.2875 -82.0885 68.8821 42.6535 -88.5442 78.2122 26.2376 
-62.2528 49.4091 42.5191 -62.7532 70.7224 29.2596 -52.5032 65.6671 48.7458 
-28.1811 73.1085 24.7875 4.57523 65.9494 34.5957 -7.40603 57.3255 48.0276 
27.751 47.4369 41.6337 22.2457 60.205 27.318 40.8475 65.937 44.8715 
21.0054 67.6858 45.7812 52.1366 57.8829 30.5416 72.7886 65.2106 31.4408 
65.2636 68.1274 49.6996 102.125 52.0087 27.1163 91.2441 75.6834 26.5355 
88.4453 57.045 40.7609 106.136 73.2486 39.6005 134.55 55.7552 27.372 
117.872 66.4709 24.9479 122.538 59.1659 42.9173 137.322 76.5825 24.5012 
132.811 77.0727 43.9392 -135.508 93.28 47.365 -93.4035 90.3887 41.2924 
-66.4028 105.186 24.8004 -50.3296 85.4998 48.7746 -37.8365 100.409 44.3556 
-31.6367 107.821 26.9069 2.14095 90.054 28.5062 -12.0584 104.012 27.2496 
-8.68833 94.0825 44.7883 7.18596 82.0667 46.0823 2.6367 109.634 39.5156 
18.5668 101.081 31.0809 19.4724 80.356 30.4407 25.466 92.5796 47.7641 
51.8016 92.3479 24.795 77.7067 99.9795 46.9706 79.7526 80.5519 42.115 
86.3113 94.7533 29.7497 134.258 97.689 20.3302 114.075 106.348 47.4956 
-115.917 111.396 24.7975 -139.417 126.482 45.7924 -88.1636 132.147 29.3134 
-98.5659 132.768 46.324 -90.5609 113.105 48.7674 -67.2506 140.512 28.8305 
-52.5191 133.307 40.2076 -31.5724 140.465 38.4584 -21.3005 124.881 26.1692 
-41.125 130.498 24.0633 -32.837 120.859 41.9552 -2.4708 138.066 46.2088 
-1.45638 125.565 28.2275 -12.98 121.248 43.9444 15.4754 134.695 33.5892 
45.6875 126.757 24.8703 29.1146 118.007 31.7204 47.3621 135.081 45.2333 
62.475 123.94 35.2668 78.9341 113.147 32.0124 90.1771 136.312 37.3464 
94.398 122.518 23.5722 82.9506 122.12 49.3802 114.176 137.713 26.1725 
134.54 126.218 27.3138 127.052 138.215 41.401 -131.625 -137.341 50.2957 
-140.008 -120.493 56.9568 -133.212 -134.05 69.9133 -137.573 -115.585 76.1537 
-109.866 -136.981 57.2867 -95.7432 -117.039 51.9515 -90.276 -134.397 60.14 
-75.9522 -119.417 52.9922 -71.0736 -140.393 58.389 -57.9267 -126.243 63.4361 
-76.096 -126.394 71.6914 -55.757 -114.082 79.1163 -42.9519 -131.273 51.242 
-39.8733 -118.082 65.8908 -36.3656 -136.59 72.4816 -20.1938 -140.676 54.8217 
-17.8287 -130.175 76.1209 -3.82224 -131.824 62.01 7.17372 -115.194 62.7469 
8.67067 -129.002 77.3171 45.6165 -116.293 52.4866 26.4071 -117.131 57.8105 
34.8217 -128.058 73.4641 23.0575 -112.316 76.8905 48.7489 -134.253 60.5926 
63.5664 -116.798 61.2059 68.4392 -135.851 57.7793 63.6866 -137.629 77.0761 
87.215 -132.426 51.9591 104.168 -127.781 61.4025 87.8118 -122.464 71.5711 
107.445 -134.213 80.0084 122.377 -128.412 53.2449 126.165 -115.666 68.1237 
127.204 -133.278 77.4147 -124.027 -89.4264 57.3608 -85.1021 -106.551 65.1898 
-90.8487 -87.6756 68.1529 -64.2363 -106.049 62.0829 -47.7085 -97.5082 54.8608 
-70.8574 -88.5884 69.1206 -52.6357 -95.0362 74.0474 -33.6957 -99.4862 69.6523 
10.6437 -97.1678 54.9216 -4.15226 -85.0224 60.5511 27.6079 -94.9069 65.1807 
41.4534 -108.341 70.3013 57.89 -83.5891 51.9329 83.0274 -104.495 64.2833 
107.109 -87.0573 58.6908 108.045 -108.376 64.0376 90.3898 -90.349 76.3058 
124.343 -98.9255 57.4497 113.108 -93.6691 76.5419 132.299 -98.4055 79.2963 
-127.996 -54.8465 60.3647 -125.058 -62.3098 79.3644 -109.399 -58.9681 66.303 
-93.6442 -65.0688 55.6772 -82.7284 -55.9136 69.6771 -80.6577 -73.811 78.2487 
[...]
POINT_DATA 2000
FIELD FieldData 7
id 1 2000 int
244 224 311 293 113 306 121 444 93 
415 89 380 194 73 97 382 171 384 
223 143 82 191 270 442 187 148 214 
158 46 323 149 414 310 228 154 173 
262 297 55 268 363 64 258 245 302 
174 231 246 326 153 401 204 227 239 
71 274 152 103 201 417 78 241 256 
54 352 168 410 225 402 340 233 29 
208 252 349 90 458 351 135 408 34 
159 134 282 328 428 216 107 404 165 
67 264 436 166 94 238 226 456 277 
367 120 240 260 329 290 253 147 421 
379 394 182 450 139 338 76 405 446 
170 63 222 199 119 347 376 190 434 
232 133 318 209 48 455 198 123 276 
35 100 75 242 400 261 146 361 373 
180 230 32 142 280 350 422 53 424 
286 427 271 60 202 186 344 441 235 
275 22 294 52 348 197 341 91 452 
316 70 111 9 2 284 412 254 358 
110 132 80 439 291 88 74 127 285 
314 257 429 287 137 65 43 86 196 
105 289 457 178 325 355 296 85 25 
322 403 37 343 117 309 10 337 11 
183 151 308 144 397 288 390 212 411 
49 353 416 332 39 317 362 181 237 
192 4 419 160 383 360 7 301 51 
138 69 263 330 20 392 87 12 324 
375 266 243 57 249 15 345 3 265 
381 281 213 145 388 321 8 215 99 
377 167 131 399 378 108 320 203 247 
359 269 354 96 77 335 346 251 364 
27 331 445 305 116 304 334 30 425 
162 31 435 18 312 140 372 295 17 
6 33 38 368 36 59 303 81 430 
389 125 356 236 115 163 423 426 279 
255 61 79 229 283 66 443 259 448 
1869 858 1289 406 365 1824 164 1196 431 
1754 1015 307 300 1911 299 1878 112 102 
1590 386 420 339 1019 175 195 248 1720 
185 1432 1941 1859 432 727 1671 5 1033 
1555 156 366 327 1883 184 409 272 371 
83 14 109 47 1285 1927 118 708 862 
1786 1564 393 336 1724 220 559 342 193 
1798 23 1860 319 385 1947 333 981 1609 
449 124 437 218 1649 1726 217 1875 1194 
315 745 26 267 250 418 1736 205 45 
370 1164 72 398 114 1369 757 141 155 
937 588 844 1762 19 766 769 1160 84 
391 1511 374 106 206 234 157 1866 28 
219 130 751 68 41 56 1393 1662 101 
357 1449 629 1411 454 1915 1023 1446 453 
62 1570 665 313 1606 207 188 433 1 
577 104 58 597 590 273 1771 16 24 
1403 1118 150 1053 407 172 1683 200 129 
126 278 98 447 44 1658 292 1087 794 
221 177 1957 1421 440 1130 211 189 1980 
1520 128 176 413 21 210 395 1404 1812 
161 1874 438 929 1840 169 1089 1711 92 
1370 553 1434 1452 298 1402 1857 1691 95 
387 1900 1095 1721 40 136 1287 1595 13 
1889 179 396 1504 776 1623 42 369 50 
974 1075 481 485 1538 972 1337 959 1816 
1343 549 555 1617 1297 1897 917 1254 1200 
1655 606 909 1944 1386 542 1178 1842 675 
1267 521 1312 1455 1004 658 1693 1717 1477 
884 1734 1413 1541 668 1058 649 1464 1225 
1154 1152 1529 541 1959 1491 1211 1321 1684 
1176 661 1084 2000 463 1682 762 920 1731 
880 1425 487 659 1844 1679 496 490 1871 
1148 838 1823 1522 1216 798 1901 992 1544 
1368 870 609 1419 1239 1008 1172 1108 1608 
1021 847 1041 867 1742 1804 1465 533 915 
1288 1031 451 1346 651 1395 1835 967 977 
811 1919 1735 1389 1125 1483 587 1473 1962 
1070 759 1195 1038 1168 1408 1701 467 122 
1751 716 1405 1681 1990 1410 601 894 1604 
475 507 1965 1416 1576 709 1533 846 573 
493 1043 942 1639 1766 1732 1936 1537 1773 
1199 615 1365 1205 681 1457 1532 982 604 
1749 859 956 1725 571 1625 1493 1951 822 
1778 1611 969 1870 1246 1145 560 975 1428 
1966 961 819 907 789 1896 1025 955 898 
1175 1263 1904 1420 663 913 842 470 1161 
1776 1111 1910 519 1181 1029 1607 1987 1850 
1078 971 1279 1057 958 1640 1556 843 1846 
1566 1926 1899 1833 569 758 953 872 1183 
462 580 1543 1831 837 1689 1348 815 893 
1002 725 1584 460 628 780 1045 912 1218 
480 1431 1879 784 850 868 476 1546 1123 
1052 1328 1633 860 1470 921 633 1135 881 
682 895 1571 1592 976 647 534 1230 1587 
673 1049 1377 522 1744 1105 1423 1182 1134 
1761 531 729 706 1723 804 1558 945 472 
552 1372 581 1502 1101 1275 1953 1338 1887 
1855 719 1568 1149 1073 1578 793 465 1044 
1838 1499 1458 635 750 471 1048 468 940 
1463 1688 1917 667 631 1613 671 650 1340 
968 1600 1935 1418 1081 1685 925 1890 1177 
1484 1796 1808 1114 1266 1064 1219 1653 1059 
1308 1583 680 504 1478 1644 1445 1480 1863 
1851 1136 1642 1868 1497 1360 899 1526 1120 
854 1938 943 1272 960 1772 1273 1596 1984 
973 1330 754 595 1829 1826 678 808 514 
1898 1834 1437 1895 1740 1849 1257 538 1206 
1918 1062 1221 998 1690 637 1969 1236 882 
735 1548 1110 1268 523 806 1066 1943 1757 
988 489 1234 1295 1476 1104 1228 1983 756 
1466 918 856 997 1259 1923 1673 572 694 
1668 1638 951 812 1091 1619 1097 677 1968 
1214 840 1818 551 1126 1208 1210 1067 994 
1490 1979 1127 1357 730 1667 1333 1939 1774 
540 625 1937 786 892 693 1124 763 1140 
488 979 596 1536 623 499 1192 900 993 
1579 529 1026 1012 1777 1569 1213 1313 1291 
902 1498 871 941 814 1793 1472 1562 1347 
1942 1401 1494 1339 1621 1274 494 1132 928 
1349 539 1554 1924 910 1746 1374 720 1083 
1925 1574 1286 1069 1071 1507 1202 582 803 
1706 1077 576 1322 652 1056 1659 689 901 
1954 738 1932 1618 1864 630 512 1143 1080 
1055 764 1307 1139 770 1789 1260 802 1115 
810 1442 931 564 536 1209 566 1950 1224 
1631 1893 1527 1885 1422 1189 739 1794 474 
1615 532 554 1989 1158 1426 611 1634 1506 
1424 717 1508 509 1993 1170 1707 1841 705 
1391 558 1601 1847 999 991 1387 1913 1741 
1174 1486 1383 653 1945 1231 1730 1250 1656 
1131 1552 1061 1827 602 1060 497 1076 1809 
704 1171 1865 825 1063 1074 1517 1582 1107 
1670 823 1467 1985 1068 1785 799 774 1759 
692 742 1795 1256 1096 484 768 1451 1819 
736 1034 1251 527 1801 760 1293 1970 674 
1997 747 1304 1371 618 908 923 1098 1042 
1637 1882 1227 835 1603 1106 1712 1450 1678 
1474 700 1839 1680 801 516 746 877 779 
1810 922 1510 775 732 1704 1716 639 785 
1314 1573 1122 608 614 621 1783 1001 1627 
1155 1775 1862 1000 477 1179 1549 1902 1946 
1269 1147 1112 1471 524 916 695 1622 483 
930 1496 1100 782 1316 1429 1156 703 1929 
1581 1563 824 620 1788 1353 765 1780 1560 
1624 935 887 1748 607 1006 891 1963 1197 
1280 744 807 1233 1976 1872 1342 648 579 
1728 1255 662 1646 1861 1713 1769 795 1364 
1050 568 1958 1201 1620 949 1998 1317 1813 
1854 1180 1252 526 634 1032 1738 1814 1363 
492 805 1905 574 1822 1373 1460 1948 654 
1379 1359 548 1444 1380 503 1676 1955 926 
1054 1492 1672 1361 1561 1265 830 479 1017 
1807 603 1765 1551 836 1988 1144 546 1381 
995 1299 715 1577 696 966 500 1186 1242 
1843 1591 792 816 1355 1832 1240 726 1438 
510 1037 1977 1443 1128 656 688 1612 1014 
1165 873 1332 530 627 1628 1858 1459 687 
827 1462 610 1710 1184 1320 1157 876 924 
1700 1516 1515 686 1531 1113 1884 1550 1119 
875 1215 874 1837 1301 657 1908 1398 1745 
711 1396 1435 978 701 1277 1518 1674 1931 
1881 1836 1281 914 1514 1309 1750 1982 578 
511 1752 1981 469 748 1973 1585 832 1237 
952 1972 1072 1366 547 565 755 1229 1400 
1845 1151 1599 1505 1586 1803 638 1888 1760 
1018 1047 1534 619 1007 1519 1453 749 1090 
1358 1825 1433 664 1141 1545 550 1344 1580 
698 707 1971 1647 1036 1747 1907 464 1390 
800 1928 535 1709 570 965 473 1085 1005 
1310 1727 1553 1086 1495 1503 1244 1099 1643 
1294 957 853 482 1876 934 1102 599 1602 
1512 685 525 1167 1030 660 655 864 1912 
1815 933 863 1436 1226 1743 1412 1523 1999 
1616 905 520 1967 722 1065 1657 517 1800 
641 712 1282 1805 983 1362 598 1597 1306 
583 851 752 1013 591 1261 515 1485 1686 
777 593 1247 1479 1283 567 1651 1696 1821 
1594 1092 1852 1325 1220 1415 1666 1166 670 
962 1392 861 1117 820 906 1626 970 486 
1376 1768 612 501 1352 1797 724 1350 1427 
826 821 771 831 1733 1922 1440 1914 1708 
834 679 1964 897 1311 1886 1409 1542 740 
1489 796 1598 1318 1488 1763 1894 1648 1133 
594 1138 1524 1094 987 1695 1430 1781 839 
1996 1324 841 753 1758 478 1994 946 1046 
684 985 781 1933 1559 1417 989 1652 1129 
1481 586 1830 857 829 1245 1853 585 1190 
1806 1153 1767 518 1394 1142 980 1873 718 
1382 866 1284 1203 622 1817 790 1292 702 
1315 767 1992 869 1079 772 584 1891 963 
1687 1705 1469 1187 1235 737 1632 1867 600 
1787 948 1137 927 632 1335 1880 879 1698 
731 1020 1892 1278 1475 1022 1692 1016 1241 
1729 644 1547 1326 1024 743 984 561 1856 
1792 809 1378 1198 1243 506 1173 498 817 
1961 1702 616 932 1232 1217 1334 1146 1677 
1588 669 714 1051 1163 1593 1329 1535 1641 
710 1169 896 778 1303 537 543 1906 1697 
944 1264 848 1753 563 885 1635 1782 1454 
1509 1039 1756 954 883 575 1456 1367 1934 
886 1565 1305 508 728 723 761 1930 1212 
1500 1258 1802 1302 513 911 1399 545 1223 
1356 646 676 904 1027 1605 1040 505 1940 
1103 672 1035 787 1699 1193 773 645 1009 
697 1995 626 1448 617 1525 833 950 556 
1331 459 1949 788 690 491 1718 1262 1521 
562 1513 624 1290 818 1461 1270 1694 1162 
642 613 1003 1345 1960 1921 1614 1468 1764 
605 1916 1675 1082 1629 1385 1296 1414 1739 
1848 1975 996 1501 1397 903 1719 1276 1319 
643 544 1121 1645 1722 713 1654 528 1799 
1088 1956 1406 1714 1300 1952 1737 845 1341 
1447 502 1238 1557 1351 1384 865 855 1191 
947 592 1528 1271 1109 888 849 939 589 
1150 783 1974 1791 1116 1664 1028 1663 1487 
1703 1660 936 1828 1354 1388 890 797 1636 
1610 1185 1439 1188 1877 813 791 1327 1011 
1530 1986 990 1323 1248 1010 466 1441 938 
919 1253 495 741 1575 1903 1298 1482 1920 
1630 640 889 1249 1207 1539 734 691 1204 
1755 699 557 1669 1336 1589 733 1093 1978 
1715 683 1159 828 1540 1665 878 1222 1909 
636 1811 986 461 852 1375 1779 1784 1572 
964 1407 1661 1820 666 1567 1991 721 1650 
1790 1770 
type 1 2000 int
1 1 1 1 1 1 1 1 1 
1 1 1 1 1 1 1 1 1 
1 1 1 1 1 1 1 1 1 
1 1 1 1 1 1 1 1 1 
1 1 1 1 1 1 1 1 1 
1 1 1 1 1 1 1 1 1 
1 1 1 1 1 1 1 1 1 
1 1 1 1 1 1 1 1 1 
1 1 1 1 1 1 1 1 1 
1 1 1 1 1 1 1 1 1 
1 1 1 1 1 1 1 1 1 
1 1 1 1 1 1 1 1 1 
1 1 1 1 1 1 1 1 1 
1 1 1 1 1 1 1 1 1 
1 1 1 1 1 1 1 1 1 
1 1 1 1 1 1 1 1 1 
1 1 1 1 1 1 1 1 1 
1 1 1 1 1 1 1 1 1 
1 1 1 1 1 1 1 1 1 
1 1 1 1 1 1 1 1 1 
1 1 1 1 1 1 1 1 1 
1 1 1 1 1 1 1 1 1 
1 1 1 1 1 1 1 1 1 
1 1 1 1 1 1 1 1 1 
1 1 1 1 1 1 1 1 1 
1 1 1 1 1 1 1 1 1 
1 1 1 1 1 1 1 1 1 
1 1 1 1 1 1 1 1 1 
1 1 1 1 1 1 1 1 1 
1 1 1 1 1 1 1 1 1 
1 1 1 1 1 1 1 1 1 
1 1 1 1 1 1 1 1 1 
1 1 1 1 1 1 1 1 1 
1 1 1 1 1 1 1 1 1 
1 1 1 1 1 1 1 1 1 
1 1 1 1 1 1 1 1 1 
1 1 1 1 1 1 1 1 1 
1 1 1 1 1 1 1 1 1 
1 1 1 1 1 1 1 1 1 
1 1 1 1 1 1 1 1 1 
1 1 1 1 1 1 1 1 1 
1 1 1 1 1 1 1 1 1 
1 1 1 1 1 1 1 1 1 
1 1 1 1 1 1 1 1 1 
1 1 1 1 1 1 1 1 1 
1 1 1 1 1 1 1 1 1 
1 1 1 1 1 1 1 1 1 
1 1 1 1 1 1 1 1 1 
1 1 1 1 1 1 1 1 1 
1 1 1 1 1 1 1 1 1 
1 1 1 1 1 1 1 1 1 
1 1 1 1 1 1 1 1 1 
1 1 1 1 1 1 1 1 1 
1 1 1 1 1 1 1 1 1 
1 1 1 1 1 1 1 1 1 
1 1 1 1 1 1 1 1 1 
1 1 1 1 1 1 1 1 1 
1 1 1 1 1 1 1 1 1 
1 1 1 1 1 1 1 1 1 
1 1 1 1 1 1 1 1 1 
1 1 1 1 1 1 1 1 1 
1 1 1 1 1 1 1 1 1 
1 1 1 1 1 1 1 1 1 
1 1 1 1 1 1 1 1 1 
1 1 1 1 1 1 1 1 1 
1 1 1 1 1 1 1 1 1 
1 1 1 1 1 1 1 1 1 
1 1 1 1 1 1 1 1 1 
1 1 1 1 1 1 1 1 1 
1 1 1 1 1 1 1 1 1 
1 1 1 1 1 1 1 1 1 
1 1 1 1 1 1 1 1 1 
1 1 1 1 1 1 1 1 1 
1 1 1 1 1 1 1 1 1 
1 1 1 1 1 1 1 1 1 
1 1 1 1 1 1 1 1 1 
1 1 1 1 1 1 1 1 1 
1 1 1 1 1 1 1 1 1 
1 1 1 1 1 1 1 1 1 
1 1 1 1 1 1 1 1 1 
1 1 1 1 1 1 1 1 1 
1 1 1 1 1 1 1 1 1 
1 1 1 1 1 1 1 1 1 
1 1 1 1 1 1 1 1 1 
1 1 1 1 1 1 1 1 1 
1 1 1 1 1 1 1 1 1 
1 1 1 1 1 1 1 1 1 
1 1 1 1 1 1 1 1 1 
1 1 1 1 1 1 1 1 1 
1 1 1 1 1 1 1 1 1 
1 1 1 1 1 1 1 1 1 
1 1 1 1 1 1 1 1 1 
1 1 1 1 1 1 1 1 1 
1 1 1 1 1 1 1 1 1 
1 1 1 1 1 1 1 1 1 
1 1 1 1 1 1 1 1 1 
1 1 1 1 1 1 1 1 1 
1 1 1 1 1 1 1 1 1 
1 1 1 1 1 1 1 1 1 
1 1 1 1 1 1 1 1 1 
1 1 1 1 1 1 1 1 1 
1 1 1 1 1 1 1 1 1 
1 1 1 1 1 1 1 1 1 
1 1 1 1 1 1 1 1 1 
1 1 1 1 1 1 1 1 1 
1 1 1 1 1 1 1 1 1 
1 1 1 1 1 1 1 1 1 
1 1 1 1 1 1 1 1 1 
1 1 1 1 1 1 1 1 1 
1 1 1 1 1 1 1 1 1 
1 1 1 1 1 1 1 1 1 
1 1 1 1 1 1 1 1 1 
1 1 1 1 1 1 1 1 1 
1 1 1 1 1 1 1 1 1 
1 1 1 1 1 1 1 1 1 
1 1 1 1 1 1 1 1 1 
1 1 1 1 1 1 1 1 1 
1 1 1 1 1 1 1 1 1 
1 1 1 1 1 1 1 1 1 
1 1 1 1 1 1 1 1 1 
1 1 1 1 1 1 1 1 1 
1 1 1 1 1 1 1 1 1 
1 1 1 1 1 1 1 1 1 
1 1 1 1 1 1 1 1 1 
1 1 1 1 1 1 1 1 1 
1 1 1 1 1 1 1 1 1 
1 1 1 1 1 1 1 1 1 
1 1 1 1 1 1 1 1 1 
1 1 1 1 1 1 1 1 1 
1 1 1 1 1 1 1 1 1 
1 1 1 1 1 1 1 1 1 
1 1 1 1 1 1 1 1 1 
1 1 1 1 1 1 1 1 1 
1 1 1 1 1 1 1 1 1 
1 1 1 1 1 1 1 1 1 
1 1 1 1 1 1 1 1 1 
1 1 1 1 1 1 1 1 1 
1 1 1 1 1 1 1 1 1 
1 1 1 1 1 1 1 1 1 
1 1 1 1 1 1 1 1 1 
1 1 1 1 1 1 1 1 1 
1 1 1 1 1 1 1 1 1 
1 1 1 1 1 1 1 1 1 
1 1 1 1 1 1 1 1 1 
1 1 1 1 1 1 1 1 1 
1 1 1 1 1 1 1 1 1 
1 1 1 1 1 1 1 1 1 
1 1 1 1 1 1 1 1 1 
1 1 1 1 1 1 1 1 1 
1 1 1 1 1 1 1 1 1 
1 1 1 1 1 1 1 1 1 
1 1 1 1 1 1 1 1 1 
1 1 1 1 1 1 1 1 1 
1 1 1 1 1 1 1 1 1 
1 1 1 1 1 1 1 1 1 
1 1 1 1 1 1 1 1 1 
1 1 1 1 1 1 1 1 1 
1 1 1 1 1 1 1 1 1 
1 1 1 1 1 1 1 1 1 
1 1 1 1 1 1 1 1 1 
1 1 1 1 1 1 1 1 1 
1 1 1 1 1 1 1 1 1 
1 1 1 1 1 1 1 1 1 
1 1 1 1 1 1 1 1 1 
1 1 1 1 1 1 1 1 1 
1 1 1 1 1 1 1 1 1 
1 1 1 1 1 1 1 1 1 
1 1 1 1 1 1 1 1 1 
1 1 1 1 1 1 1 1 1 
1 1 1 1 1 1 1 1 1 
1 1 1 1 1 1 1 1 1 
1 1 1 1 1 1 1 1 1 
1 1 1 1 1 1 1 1 1 
1 1 1 1 1 1 1 1 1 
1 1 1 1 1 1 1 1 1 
1 1 1 1 1 1 1 1 1 
1 1 1 1 1 1 1 1 1 
1 1 1 1 1 1 1 1 1 
1 1 1 1 1 1 1 1 1 
1 1 1 1 1 1 1 1 1 
1 1 1 1 1 1 1 1 1 
1 1 1 1 1 1 1 1 1 
1 1 1 1 1 1 1 1 1 
1 1 1 1 1 1 1 1 1 
1 1 1 1 1 1 1 1 1 
1 1 1 1 1 1 1 1 1 
1 1 1 1 1 1 1 1 1 
1 1 1 1 1 1 1 1 1 
1 1 1 1 1 1 1 1 1 
1 1 1 1 1 1 1 1 1 
1 1 1 1 1 1 1 1 1 
1 1 1 1 1 1 1 1 1 
1 1 1 1 1 1 1 1 1 
1 1 1 1 1 1 1 1 1 
1 1 1 1 1 1 1 1 1 
1 1 1 1 1 1 1 1 1 
1 1 1 1 1 1 1 1 1 
1 1 1 1 1 1 1 1 1 
1 1 1 1 1 1 1 1 1 
1 1 1 1 1 1 1 1 1 
1 1 1 1 1 1 1 1 1 
1 1 1 1 1 1 1 1 1 
1 1 1 1 1 1 1 1 1 
1 1 1 1 1 1 1 1 1 
1 1 1 1 1 1 1 1 1 
1 1 1 1 1 1 1 1 1 
1 1 1 1 1 1 1 1 1 
1 1 1 1 1 1 1 1 1 
1 1 1 1 1 1 1 1 1 
1 1 1 1 1 1 1 1 1 
1 1 1 1 1 1 1 1 1 
1 1 1 1 1 1 1 1 1 
1 1 1 1 1 1 1 1 1 
1 1 1 1 1 1 1 1 1 
1 1 1 1 1 1 1 1 1 
1 1 1 1 1 1 1 1 1 
1 1 1 1 1 1 1 1 1 
1 1 1 1 1 1 1 1 1 
1 1 1 1 1 1 1 1 1 
1 1 1 1 1 1 1 1 1 
1 1 1 1 1 1 1 1 1 
1 1 1 1 1 1 1 1 1 
1 1 
i 3 2000 int
0 0 0 0 0 0 0 0 0 
0 0 0 0 0 0 0 0 0 
0 0 0 0 0 0 0 0 0 
0 0 0 0 0 0 0 0 0 
0 0 0 0 0 0 0 0 0 
0 0 0 0 0 0 0 0 0 
0 0 0 0 0 0 0 0 0 
0 0 0 0 0 0 0 0 0 
0 0 0 0 0 0 0 0 0 
0 0 0 0 0 0 0 0 0 
0 0 0 0 0 0 0 0 0 
0 0 0 0 0 0 0 0 0 
0 0 0 0 0 0 0 0 0 
0 0 0 0 0 0 0 0 0 
0 0 0 0 0 0 0 0 0 
0 0 0 0 0 0 0 0 0 
0 0 0 0 0 0 0 0 0 
0 0 0 0 0 0 0 0 0 
0 0 0 0 0 0 0 0 0 
0 0 0 0 0 0 0 0 0 
0 0 0 0 0 0 0 0 0 
0 0 0 0 0 0 0 0 0 
0 0 0 0 0 0 0 0 0 
0 0 0 0 0 0 0 0 0 
1 0 0 0 0 0 0 0 0 
0 0 0 0 0 0 0 0 0 
0 0 0 0 0 0 0 0 0 
0 0 0 0 0 0 0 0 0 
0 0 0 0 0 0 0 0 0 
0 0 0 0 0 0 0 0 0 
0 0 0 0 0 0 0 0 0 
0 0 0 0 0 0 0 0 0 
0 0 0 0 0 0 1 0 0 
0 0 0 0 0 0 0 0 0 
0 0 0 0 0 0 0 0 0 
0 0 0 0 0 0 0 0 0 
0 0 0 0 0 0 0 0 0 
0 0 0 0 0 0 0 0 0 
0 0 0 0 0 0 0 0 0 
0 0 0 0 0 0 0 0 0 
0 0 0 0 0 0 0 0 0 
0 0 0 0 0 0 0 0 0 
0 0 0 0 0 0 0 -1 0 
0 0 0 0 0 0 0 0 0 
0 0 0 0 0 0 0 -1 0 
0 0 0 0 0 0 0 -1 0 
0 0 0 0 0 0 0 0 0 
0 0 0 0 0 0 0 0 0 
0 0 0 0 0 0 0 0 0 
0 0 0 0 0 0 0 0 0 
0 0 0 0 0 0 0 0 0 
0 0 0 0 0 0 0 0 0 
0 0 0 0 0 0 0 0 0 
0 0 0 0 0 0 0 0 0 
0 0 0 0 0 0 0 0 0 
0 0 0 0 0 0 0 0 0 
0 0 0 0 0 0 0 0 0 
0 0 0 0 0 0 0 0 0 
0 0 0 0 0 0 0 0 0 
0 0 0 0 0 0 0 0 0 
0 0 0 0 0 0 0 0 0 
0 0 0 0 0 0 0 0 0 
0 0 0 0 0 0 0 0 0 
0 0 0 0 0 0 0 0 0 
0 0 0 0 0 0 0 0 0 
0 0 0 0 0 0 0 0 0 
0 0 0 0 0 0 0 0 0 
0 0 0 0 0 0 0 0 0 
0 0 0 0 0 0 0 0 0 
0 0 0 0 0 0 0 0 0 
0 0 0 0 0 0 1 0 0 
0 0 0 0 0 0 0 0 0 
0 0 0 0 0 0 0 0 0 
0 0 0 0 0 0 0 0 0 
0 0 0 0 0 0 0 0 0 
0 0 0 0 0 0 1 0 0 
1 0 0 0 0 0 0 0 0 
0 0 0 0 0 0 0 0 0 
0 0 0 0 0 0 0 0 0 
0 0 0 0 0 0 0 0 0 
0 0 0 0 0 0 0 0 0 
0 0 0 0 0 0 0 0 0 
0 0 0 0 0 0 0 0 0 
0 0 0 0 0 0 0 0 0 
0 0 0 0 0 0 0 0 0 
0 0 0 0 0 0 0 0 0 
0 0 0 0 0 0 0 0 0 
0 0 0 0 0 0 0 0 0 
0 0 0 0 0 0 0 0 0 
0 0 0 0 0 0 0 0 0 
0 0 0 0 0 0 0 0 0 
0 0 0 0 0 0 0 0 0 
0 0 0 0 0 0 0 0 0 
0 0 0 0 0 0 0 0 0 
0 0 0 0 0 0 0 0 0 
0 0 0 0 0 0 0 0 0 
0 0 0 0 0 0 0 0 0 
0 0 0 0 0 0 0 0 0 
0 0 0 0 0 0 0 0 0 
0 0 0 0 0 0 0 0 0 
0 0 0 0 0 0 0 0 0 
0 0 0 0 0 0 0 0 0 
0 0 0 0 0 0 0 0 0 
0 0 0 0 0 0 0 -1 0 
0 0 0 0 0 0 0 0 0 
0 0 0 0 0 0 0 -1 0 
0 0 0 0 0 0 0 0 0 
0 0 0 0 0 0 0 -1 0 
0 0 0 0 0 0 0 -1 0 
0 0 0 0 0 0 0 0 0 
0 0 0 0 0 0 0 0 0 
0 0 0 0 0 0 0 0 0 
0 0 0 0 0 0 0 0 0 
0 0 0 0 0 0 0 0 0 
0 0 0 0 0 0 0 0 0 
0 0 0 0 0 0 0 0 0 
0 0 0 0 0 0 0 0 0 
0 0 0 0 0 0 0 0 0 
0 0 0 0 0 0 0 0 0 
0 0 0 0 0 0 0 0 0 
0 0 0 0 0 0 0 0 0 
0 0 0 0 0 0 0 0 0 
0 0 0 0 0 0 0 0 0 
0 0 0 0 0 0 0 0 0 
0 0 0 0 0 0 0 0 0 
0 0 0 0 0 0 0 0 0 
0 0 0 0 0 0 0 0 0 
0 0 0 0 0 0 0 0 0 
0 0 0 0 0 0 -1 0 0 
0 0 0 0 0 0 0 0 0 
0 0 0 0 0 0 0 0 0 
0 0 0 0 0 0 0 0 0 
0 0 0 0 0 0 0 0 0 
0 0 0 0 0 0 0 0 0 
0 0 0 0 0 0 0 0 0 
0 0 0 0 0 0 0 0 0 
0 0 0 0 0 0 -1 0 0 
0 0 0 0 0 0 0 0 0 
0 0 0 0 0 0 0 0 0 
0 0 0 0 0 0 0 0 0 
0 0 0 0 0 0 0 0 0 
0 0 0 0 0 0 0 0 0 
0 0 0 0 0 0 0 0 0 
0 0 0 0 0 0 0 0 0 
0 0 0 0 0 0 0 0 0 
0 0 0 0 0 0 0 0 0 
0 0 0 0 0 0 0 0 0 
0 0 0 0 0 0 0 0 0 
0 0 0 0 0 0 0 0 0 
0 0 0 0 0 0 0 0 0 
0 0 0 0 0 0 0 0 0 
0 0 0 0 0 0 0 0 0 
0 0 0 0 0 0 0 0 0 
0 0 0 0 0 0 0 0 0 
0 0 0 0 0 0 0 0 0 
0 0 0 0 0 0 0 0 0 
0 0 0 0 0 0 0 0 0 
0 0 0 0 0 0 0 0 0 
0 0 0 0 0 0 0 0 0 
0 0 0 0 0 0 0 0 0 
0 0 0 0 0 0 0 0 0 
0 0 0 0 0 0 0 0 0 
-1 0 0 0 0 0 0 0 0 
0 0 0 0 0 0 0 0 0 
0 0 0 0 0 0 0 0 0 
0 0 0 0 0 0 0 0 0 
0 0 0 0 0 0 0 0 0 
0 0 0 0 0 0 0 0 0 
0 0 0 0 0 0 0 0 0 
0 0 0 0 0 0 0 0 0 
0 0 0 0 0 0 0 0 0 
0 0 0 0 0 0 0 0 0 
0 0 0 0 0 0 0 0 0 
0 0 0 0 0 0 0 0 0 
0 0 0 0 0 0 0 0 0 
0 0 0 0 0 0 0 0 0 
0 0 0 0 0 0 0 0 0 
0 0 0 0 0 0 0 0 0 
0 0 0 0 0 0 0 0 0 
0 0 0 0 0 0 0 0 0 
0 0 0 0 0 0 0 0 0 
0 -1 0 0 0 0 0 0 0 
0 0 0 0 0 0 0 0 0 
0 0 0 0 0 0 0 0 0 
0 0 0 0 0 0 0 0 0 
0 0 0 0 0 0 0 0 0 
0 0 0 0 0 0 0 0 0 
0 0 0 0 0 0 0 1 0 
0 0 0 0 0 0 0 0 0 
0 0 0 0 0 0 0 0 0 
0 0 0 0 0 0 0 0 0 
0 0 0 0 0 0 0 0 0 
0 0 0 0 0 0 0 0 0 
0 0 0 0 0 0 0 0 0 
0 0 0 0 0 0 0 0 0 
0 0 0 0 0 0 0 0 0 
0 0 0 0 0 0 0 0 0 
0 0 0 0 0 0 0 0 0 
1 0 0 0 0 0 0 0 0 
0 0 0 0 0 0 0 0 0 
0 0 0 0 0 0 0 0 0 
0 0 0 0 0 0 0 0 0 
0 0 0 0 0 0 0 0 0 
0 0 0 0 0 0 0 0 0 
0 0 0 0 0 0 0 0 0 
0 0 0 0 0 0 0 0 0 
0 0 0 0 0 0 0 0 0 
0 0 0 0 0 0 0 0 0 
0 0 0 0 0 0 0 0 0 
0 0 0 0 0 0 0 0 0 
0 0 0 0 0 0 0 0 0 
0 0 0 0 0 0 0 0 0 
0 0 0 0 0 0 0 0 0 
0 0 0 0 0 0 0 0 0 
0 0 0 0 0 0 0 0 0 
0 0 0 0 0 0 0 0 0 
0 0 0 0 0 0 0 0 0 
0 0 0 0 0 0 0 0 0 
0 0 0 0 0 0 0 0 0 
0 0 0 0 0 0 0 0 0 
0 0 0 0 0 0 0 0 0 
0 0 0 0 0 0 0 0 0 
0 0 0 0 0 0 0 0 0 
0 0 0 0 0 0 0 0 0 
0 0 0 0 0 0 0 0 0 
0 0 0 0 0 0 0 0 0 
0 0 0 0 0 0 0 0 0 
0 0 0 0 0 0 0 0 0 
0 0 0 0 0 0 0 0 0 
0 0 0 0 0 0 0 0 0 
0 0 0 0 0 0 0 0 0 
0 0 0 0 0 0 0 0 0 
0 0 0 0 0 0 0 0 0 
0 0 0 0 0 0 0 0 0 
0 0 0 0 0 0 0 0 0 
0 0 0 0 0 0 0 -1 0 
0 0 0 0 0 0 0 0 0 
0 0 0 0 0 0 0 0 0 
0 0 0 0 0 0 0 0 0 
0 0 0 0 0 0 0 0 0 
0 0 0 0 0 0 0 0 0 
0 0 0 0 0 0 0 0 0 
0 0 0 0 -1 0 0 0 0 
0 0 0 0 0 0 0 0 0 
0 0 0 0 0 0 0 0 0 
0 -1 0 0 0 0 0 0 0 
0 0 0 0 0 0 0 0 0 
0 1 0 0 0 0 0 0 0 
0 0 0 0 0 0 0 1 0 
0 0 0 0 0 0 0 0 0 
0 1 0 0 1 0 0 0 0 
0 0 0 0 0 0 0 0 0 
0 0 0 0 0 0 0 0 0 
0 0 0 0 0 0 0 0 0 
0 0 0 0 0 0 0 0 0 
0 0 0 0 0 0 0 0 0 
0 0 0 0 0 0 0 0 0 
0 0 0 0 0 0 0 0 0 
0 0 0 0 0 0 0 0 0 
0 0 0 0 0 0 0 0 0 
0 0 0 0 0 0 0 0 0 
0 0 0 0 0 0 0 0 0 
0 0 0 0 0 0 0 0 0 
0 0 0 0 0 0 0 0 0 
0 0 0 0 0 0 0 0 0 
0 0 0 0 0 0 0 0 0 
0 0 0 0 0 0 0 0 0 
0 0 0 0 0 0 0 0 0 
0 0 0 0 0 0 0 0 0 
0 0 0 0 0 0 0 0 0 
0 0 0 0 0 0 0 0 0 
0 0 0 0 0 0 0 0 0 
0 0 0 0 0 0 0 0 0 
0 0 0 0 0 0 0 0 0 
0 0 0 0 0 0 0 0 0 
0 0 0 0 0 0 0 0 0 
0 0 0 0 0 0 0 0 0 
0 0 0 0 0 0 0 0 0 
0 0 0 0 0 0 0 0 0 
0 0 0 0 0 0 0 0 0 
0 0 0 0 0 0 0 0 0 
0 0 0 0 0 0 0 0 0 
0 0 0 0 0 0 0 0 0 
0 0 0 0 0 0 0 0 0 
1 0 0 0 0 0 0 0 0 
0 0 0 0 0 0 0 0 0 
0 0 0 0 0 0 0 0 0 
0 0 0 0 0 0 0 0 0 
0 0 0 0 0 0 1 0 0 
0 0 0 0 0 0 0 0 0 
0 0 0 0 0 0 0 0 0 
0 0 0 0 0 0 0 0 0 
0 0 0 0 0 0 0 0 0 
0 0 0 0 0 0 0 0 0 
0 0 0 0 0 0 0 0 0 
0 0 0 0 0 0 0 0 0 
0 0 0 0 0 0 0 0 0 
0 0 0 0 0 0 0 0 0 
0 0 0 0 0 0 0 0 0 
0 0 0 0 0 0 0 0 0 
0 0 0 0 0 0 0 0 0 
0 0 0 -1 0 0 0 0 0 
0 0 0 0 0 0 0 0 0 
1 1 0 0 0 0 0 0 0 
0 1 0 0 1 0 0 0 0 
0 0 0 0 1 0 0 1 0 
0 0 0 0 0 0 0 0 0 
0 0 0 0 1 0 0 0 0 
0 0 0 0 0 0 0 0 0 
0 0 0 0 0 0 0 0 0 
0 0 0 0 0 0 0 0 0 
0 0 0 0 0 0 0 0 0 
0 0 0 0 0 0 0 0 0 
0 0 0 0 0 0 0 0 0 
0 0 0 0 0 0 0 0 0 
0 0 0 0 0 0 0 0 0 
0 0 0 0 0 0 0 0 0 
0 0 0 0 0 0 0 0 0 
0 0 0 0 0 0 0 0 0 
0 0 0 0 0 0 0 0 0 
0 0 0 1 0 0 0 0 0 
0 0 0 0 0 0 0 0 0 
0 0 0 0 0 0 0 0 0 
0 0 0 0 0 0 0 0 0 
0 0 0 0 0 0 0 0 0 
0 0 0 0 0 0 0 0 0 
0 0 0 0 0 0 0 0 0 
0 0 0 0 0 0 0 0 0 
0 0 0 0 0 0 0 0 0 
0 0 0 0 0 0 0 0 0 
0 0 0 0 0 0 0 0 0 
0 0 0 0 0 0 0 0 0 
0 0 0 0 0 0 0 0 0 
0 0 0 0 0 0 0 0 0 
0 0 0 0 0 0 0 0 0 
0 0 0 0 0 0 0 0 0 
0 0 0 0 0 0 0 0 0 
-1 0 0 0 0 0 0 0 0 
0 0 0 0 0 0 0 0 0 
0 0 0 0 0 0 0 0 0 
0 0 0 0 0 0 0 0 0 
0 0 0 0 0 0 0 0 0 
0 0 0 0 0 0 0 0 0 
0 0 0 0 0 0 0 0 0 
0 0 0 0 0 0 0 0 0 