# vtk DataFile Version 4.0
Generated by LIGGGHTS
ASCII
DATASET POLYDATA
POINTS 2000 float
-150.125 -157.168 9.99261 -169.449 -162.304 9.98488 -105.762 -163.478 9.99067 
-57.0829 -158.894 9.9875 -35.999 -151.548 9.99288 -1.7305 -160.541 9.99104 
35.8677 -160.304 9.99191 62.444 -159.733 9.99204 86.138 -164.047 9.99241 
103.785 -154.644 9.99188 115.28 -167.722 19.825 149.561 -161.13 9.99221 
161.77 -147.834 18.5943 -103.835 -117.182 9.99197 -61.9789 -117.873 9.99059 
-10.0233 -118.433 9.98721 48.0886 -129.81 9.98688 48.4236 -109.82 9.99105 
160.409 -129.832 9.99254 149.39 -111.611 9.99151 -154.409 -108.528 9.99216 
-166 -88.1737 9.99171 -93.3336 -100.13 9.99218 -29.5508 -95.5437 9.99254 
-2.4186 -87.1435 9.98276 5.29712 -105.588 9.98915 59.5847 -93.2299 9.99269 
73.8168 -79.1858 9.99198 133.878 -98.9931 9.99195 168.17 -106.109 14.0933 
-161.242 -63.2251 9.99198 -142.069 -50.3192 9.9925 -122.084 -49.6763 9.99144 
-94.8464 -73.1996 9.99261 -99.4145 -51.5371 9.98968 -80.1928 -57.0429 9.99117 
-58.8397 -51.9966 9.99263 -16.6182 -54.9439 9.99232 -38.8636 -56.1306 9.99243 
0.966083 -67.4356 9.9926 41.4931 -55.684 9.99136 58.0518 -66.8892 9.99274 
79.6896 -48.76 9.99274 -157.225 -36.978 9.99124 -117.16 -30.2966 9.98878 
-97.2165 -31.6636 9.992 -77.9991 -37.1707 9.99088 -22.3495 -35.7862 9.99259 
-9.02954 -17.8243 9.99242 42.2708 -17.9643 9.99184 72.4392 -30.1244 9.99269 
56.3156 -41.9518 9.99256 87.1419 -16.5718 9.99282 137.244 -20.9389 9.99227 
170.083 -23.2785 9.99314 146.06 -38.8862 9.99247 165.66 -42.8413 9.99217 
-149.851 -11.8955 9.99202 -168.071 -3.6556 9.99263 -129.607 -10.4901 9.99275 
-68.4621 4.56641 9.98324 -42.834 9.18914 9.99296 -23.9007 -4.45613 9.99205 
-14.2571 13.1882 9.99205 7.44875 -6.4968 9.98336 16.233 11.4617 9.98988 
120.199 3.53342 9.99256 154.29 -7.41375 9.9928 -169.155 40.662 9.98911 
-125.8 44.0292 9.99146 -89.016 29.6192 9.99281 -108.542 33.9309 9.99221 
34.1305 41.6883 9.99212 67.4356 43.5061 9.99151 -162.265 71.0973 9.9925 
-147.3 51.0399 9.99279 -128.503 63.8415 9.99194 -83.0161 51.5616 9.99206 
-47.567 50.171 9.98927 -64.9521 59.5076 13.2149 -27.5851 49.4942 9.98918 
-6.41207 70.2807 9.98943 21.7251 65.0982 9.98155 41.1926 60.3951 9.98785 
60.8225 72.2138 9.99259 116.753 49.3292 9.99268 136.914 53.3784 9.99204 
123.456 68.1686 9.99265 157.107 52.9901 9.98291 -153.07 92.1397 9.99221 
-69.1052 78.7998 9.99208 -66.7213 98.653 9.99244 10.1145 81.0256 13.3354 
-6.61132 91.4603 9.99193 26.478 92.0207 9.99251 50.3119 89.225 9.99254 
77.4952 102.191 9.99246 119.812 90.0019 9.98853 -163.95 108.918 9.99272 
-92.5697 109.514 9.99177 -54.1346 117.761 9.99261 -74.1227 117.229 9.99212 
-34.2159 116.018 9.99249 -20.4775 128.499 17.4295 -15.4879 109.276 11.8928 
3.32134 115.79 9.99203 -4.72053 138.309 9.99221 71.3244 122.057 9.99288 
132.619 124.482 9.99222 170.84 127.57 9.99233 150.531 115.594 9.99256 
150.455 134.962 14.9628 -155.002 142.553 9.9924 -162.306 161.094 11.6414 
-142.453 162.825 9.99244 -122.753 166.255 9.99266 -121.502 146.298 9.99269 
-9.65179 163.1 9.99137 14.913 159.473 9.98982 34.2286 154.312 9.99148 
58.4877 142.914 9.99075 49.9637 166.647 9.9923 76.9286 150.635 9.98172 
102.362 162.574 9.99054 121.338 156.271 9.99243 134.508 169.651 16.8739 
140.819 151.764 9.99207 165.71 146.897 9.99205 160.285 165.143 16.1145 
-163.682 -164.732 44.407 -118.757 -163.372 25.1853 -128.988 -160.193 44.9528 
-110.937 -151.679 43.7256 -83.2968 -141.225 24.9816 -101.303 -168.325 49.1996 
-67.4212 -168.816 39.5119 -53.1177 -155.092 35.9975 -29.9734 -157.612 42.8062 
-14.2202 -162.722 25.4538 9.65843 -169.215 23.95 40.5074 -156.223 39.7075 
48.6615 -148.955 20.3522 57.0811 -148.02 47.3157 92.8361 -161.191 41.0716 
143.457 -161.78 44.1858 -166.992 -134.977 26.2867 -162.242 -113.446 28.644 
-132.242 -131.083 24.9726 -62.2218 -109.259 50.0289 -36.0681 -124.738 32.4845 
-8.6422 -139.461 48.4751 16.9058 -134.998 24.98 79.5256 -133.123 24.9787 
97.0512 -114.258 48.6769 129.419 -136.128 24.9782 118.859 -111.511 47.4952 
141.657 -111.383 46.4826 159.924 -135.052 42.0925 160.826 -120.977 27.9171 
-166.974 -93.2494 33.1491 -150.064 -107.09 43.175 -135.16 -81.1789 24.9787 
-100.729 -87.2184 23.3513 -65.5281 -85.0608 24.9714 -7.7992 -105.483 25.0958 
29.1075 -84.7832 24.9727 103.746 -89.397 24.975 136.19 -102.116 29.6273 
131.67 -91.5049 45.9612 157.592 -102.758 35.4942 -162.798 -71.4441 44.1095 
-167.641 -52.0447 43.8209 -163.956 -49.4528 24.2327 -110.799 -51.2636 26.4206 
-116.744 -58.4008 44.1225 -91.4419 -61.5607 25.893 -103.387 -72.9865 37.1441 
-97.6359 -52.6794 42.7037 -86.7115 -72.8253 49.9954 -70.3076 -50.3326 26.2887 
-46.1935 -56.1189 28.5966 -18.4918 -75.0206 38.5936 68.1272 -59.5488 43.3875 
120.87 -65.7356 44.2463 149.928 -70.2754 24.9717 -137.854 -29.6372 38.1941 
-82.5975 -34.8513 29.3123 -102.325 -34.2113 32.5174 -79.1298 -20.0064 45.1201 
-50.5507 -21.4783 24.9791 -17.7156 -32.8061 29.2154 -31.8317 -43.3013 44.9117 
16.9166 -36.3121 25.6488 59.1239 -19.6543 20.6195 109.688 -38.7485 24.9776 
121.201 -16.7334 49.6234 154.569 -23.2872 41.362 -159.209 -3.56414 47.6041 
-125.739 2.55231 48.2226 -99.7225 -0.139954 24.9738 -1.64526 5.26867 23.3371 
47.8077 13.173 24.9719 116.011 -1.79034 37.3907 128.176 -9.08369 23.2974 
131.864 2.25763 48.8857 170.632 12.3079 47.801 -145.702 19.4549 24.976 
-169.711 33.3613 46.3012 -113.26 31.837 29.3106 -96.8341 44.2745 22.473 
-92.5585 37.4744 40.784 -59.4852 28.0361 34.3283 -26.9619 21.2441 23.3421 
2.55773 39.9655 24.9861 33.3177 40.2938 41.6721 68.3618 35.1612 42.8158 
96.4979 24.4714 24.9752 121.444 22.3732 49.4279 146.462 23.2286 24.9736 
-165.582 48.0689 28.2122 -146.43 72.6069 44.1953 -123.051 52.186 28.0395 
-97.2455 54.6435 49.8977 -75.7249 58.7126 38.7226 -30.1075 47.0252 35.3715 
-1.16516 74.5515 28.8058 1.03656 66.979 47.1808 34.4605 75.2585 40.9398 
48.6065 48.1409 23.9379 67.8863 49.6252 29.0214 66.7463 62.6548 45.7703 
92.3775 74.2889 24.9798 126.309 53.9726 26.9336 123.356 68.6094 40.2338 
159.732 52.798 38.161 143.966 48.0557 49.5066 -163.21 102.114 35.6838 
-120.17 95.2089 49.1149 -100.729 78.9617 24.9759 -70.4579 95.9419 29.4484 
-36.5601 79.8127 24.978 8.28696 99.5705 20.579 102.823 101.674 44.0991 
120.647 101.592 26.2592 125.696 97.5299 45.1758 150.85 83.9706 24.9764 
-164.559 125.345 38.5201 -133.334 116.852 24.9713 -78.6864 114.165 29.2179 
-98.6667 113.711 28.5673 -20.1077 137.81 46.6659 -0.34586 137.866 36.466 
34.182 122.692 24.9782 101.668 130.961 24.9813 166.515 115.263 25.1475 
-163.401 142.395 28.138 -146.255 152.59 26.7448 -146.894 142.676 44.3038 
-166.438 142.628 48.5259 -126.434 150.945 28.8056 -117.865 165.798 40.4943 
-134.671 158.048 48.0586 -90.2243 150.98 24.9748 -40.5082 156.184 24.9757 
1.31927 152.397 22.8324 21.6748 155.204 28.3174 34.3947 170.527 26.5126 
31.5527 168.474 49.8023 64.4739 160.325 41.2033 96.8827 165.388 29.0108 
98.8218 157.707 47.3703 126.394 167.56 35.0299 131.278 149.454 27.4123 
120.629 151.733 45.8053 159.955 149.577 28.9529 147.408 164.952 31.4121 
140.323 161.3 49.8169 -148.373 -159.157 75.3727 -166.228 -150.767 78.6395 
-129.487 -155.285 64.371 -115.881 -145.141 78.3302 -107.694 -161.729 70.7361 
-97.1976 -150.235 58.1826 -87.8086 -163.67 71.5486 -80.7078 -162.17 52.896 
-53.938 -164.494 53.6234 -39.986 -160.66 71.6846 -23.4644 -149.871 68.4729 
14.2544 -147.826 69.5089 25.3135 -154.74 52.6231 71.1186 -140.837 59.612 
82.9055 -157.35 58.3228 83.0238 -146.34 75.0142 116.667 -161.199 66.6842 
152.01 -151.518 63.3276 168.834 -169.499 77.7506 149.238 -165.637 78.6774 
-143.704 -124.549 73.1808 -115.854 -136.179 55.4696 -100.442 -134.982 70.6994 
-65.4988 -136.712 71.4755 -28.9476 -130.784 66.2037 -32.5882 -112.078 72.2406 
1.88933 -111.266 66.3297 25.9976 -135.722 58.7652 51.529 -111.853 60.5068 
108.194 -130.479 52.222 90.9254 -139.05 57.5289 89.4031 -124.79 71.4629 
106.917 -130.131 79.4996 134.724 -119.731 64.7112 114.894 -117.584 66.1291 
166.924 -124.664 57.6769 145.554 -134.084 55.9641 -145.696 -89.6208 73.9505 
-150.469 -81.2307 56.4418 -117.786 -82.4254 75.7736 -101.476 -104.314 53.8769 
-79.9844 -81.123 70.8512 -68.684 -92.597 58.9988 -47.8326 -84.4713 55.1554 
-45.2131 -103.902 59.0704 -28.1581 -93.334 66.8038 94.5168 -90.271 74.0904 
125.938 -100.71 62.7614 128.421 -83.5661 79.5052 124.627 -79.2301 60.088 
160.587 -92.0536 68.6768 -144.189 -61.0872 52.17 -119.674 -74.4799 55.6369 
-135.72 -73.5275 67.5256 -126.919 -56.7092 61.2486 -122.01 -63.239 79.4999 
-98.9558 -75.8282 74.3005 -102.705 -64.2732 58.417 -94.2832 -47.605 69.9807 
-60.4326 -52.7178 62.732 -33.1489 -74.3 70.3626 -5.76478 -76.5816 71.1518 
28.4004 -69.1264 72.4343 62.8853 -74.7123 74.4869 101.873 -65.5092 50.4811 
93.694 -56.0083 67.0195 112.568 -48.6785 72.6379 127.712 -61.76 69.3148 
135.105 -54.2492 52.3212 153.535 -59.4651 58.0526 145.849 -57.1496 76.3614 
-162.782 -46.6301 78.0514 -139.171 -21.3511 72.7697 -110.416 -45.8102 58.3056 
-129.347 -39.3098 70.7905 -88.9936 -36.4959 50.6576 -70.4671 -19.9546 69.7712 
-39.666 -24.9415 58.0579 -12.1822 -39.9641 73.667 38.8374 -42.5502 52.2022 
20.117 -37.3062 60.4768 37.7273 -35.8186 77.7326 50.4621 -30.0853 62.6578 
100.938 -39.2541 58.8563 101.748 -28.4952 75.6915 122.314 -39.8158 57.5943 
-156.168 -15.1577 64.2596 -142.499 -1.42996 58.3777 -153.267 8.49355 71.9938 
-169.543 -0.300785 64.4035 -81.8839 8.76005 53.7228 -104.886 -14.3597 72.6137 
-65.1975 -8.72201 54.0896 -19.3632 5.21099 53.5063 27.7649 -3.88719 67.4603 
59.973 6.6879 76.7144 79.3227 -12.0952 54.4117 107.595 -7.62104 74.5337 
93.2694 15.4085 70.9416 111.851 0.586307 56.8037 166.227 -14.1427 77.4189 
-158.432 22.7264 58.9328 -157.194 42.6834 58.8006 -126.07 30.8057 69.5166 
-97.062 21.6863 52.1977 -91.2433 27.5028 70.4222 -81.6762 43.7964 56.3223 
-78.4279 41.8204 75.9528 -31.2344 27.3741 77.8366 -7.28535 37.6755 58.4893 
22.2026 26.1831 50.453 50.754 40.1992 72.6272 113.547 17.6026 67.1683 
147.418 21.7577 74.9222 -113.799 64.9728 54.2696 -130.008 65.2492 74.199 
[...]
POINT_DATA 2000
FIELD FieldData 7
id 1 2000 int
428 203 284 211 242 249 417 196 240 
380 206 82 365 389 355 309 333 420 
224 281 109 125 184 160 298 285 105 
319 217 360 205 317 426 295 444 79 
103 293 233 158 226 358 357 352 140 
139 280 446 435 276 398 369 154 429 
121 406 302 452 371 388 112 88 127 
464 439 172 227 204 384 455 187 142 
418 323 450 157 266 297 221 107 252 
395 104 185 222 407 308 201 294 451 
269 141 322 90 197 273 215 390 405 
136 167 278 93 306 393 272 255 433 
171 311 345 351 381 124 289 332 130 
432 394 248 216 94 261 419 174 198 
177 98 102 70 258 84 422 74 461 
378 77 78 150 256 342 241 131 100 
277 244 437 42 409 3 113 5 33 
460 43 368 156 190 238 321 117 53 
359 31 183 65 72 339 144 210 138 
202 152 349 376 316 182 448 411 99 
83 55 29 331 38 27 263 415 129 
9 377 463 15 366 62 155 69 220 
353 51 268 47 379 337 457 404 44 
170 186 80 134 11 214 17 135 231 
48 169 21 336 4 459 176 239 396 
151 348 75 279 192 330 73 327 391 
195 161 367 385 56 403 13 434 427 
410 375 28 265 35 147 340 212 343 
19 63 110 250 251 208 370 97 402 
335 6 71 300 173 290 283 58 76 
143 162 86 454 81 401 120 392 1206 
442 858 1703 1312 194 200 303 347 1479 
1802 243 307 301 312 32 936 1053 1194 
8 386 430 34 363 260 10 292 57 
87 286 114 975 447 305 199 207 287 
397 1214 14 291 310 228 149 85 20 
374 257 443 39 236 423 123 166 1722 
95 326 89 41 425 318 67 399 412 
372 188 237 341 328 1170 49 1097 246 
905 218 213 1894 45 350 414 179 438 
408 181 148 275 346 1493 436 126 46 
234 7 66 264 12 163 92 362 1607 
271 116 54 132 108 344 1920 354 324 
270 22 413 40 122 267 1589 25 1 
373 193 400 1413 254 262 23 465 329 
209 387 245 115 230 50 165 259 223 
776 91 37 424 1924 296 178 101 137 
338 106 146 364 299 1954 61 64 60 
314 775 18 466 325 274 219 153 24 
1233 932 164 133 1173 1189 445 356 334 
313 453 361 382 168 16 111 145 941 
235 441 191 1408 1627 1176 1398 1229 1832 
1532 1636 1146 1945 1481 68 1843 1866 1456 
180 1721 1462 1055 912 118 988 1400 1023 
1753 1010 1118 1827 704 253 458 1303 119 
1927 631 1837 1442 829 915 557 620 504 
1940 229 1724 946 1042 1942 1892 1252 1710 
986 1218 1477 1955 989 1602 883 950 1963 
1762 383 416 1354 899 1914 225 1063 1473 
641 128 1646 1633 247 59 887 1885 30 
1756 1425 672 1969 1198 852 1564 36 304 
96 787 288 1340 747 1979 1593 669 1296 
1139 1083 159 1740 1548 1080 1622 1114 26 
1735 971 456 838 1488 2 1159 1179 1337 
1697 812 431 1014 913 1279 925 1191 1662 
1568 449 232 1868 1776 485 1682 597 1182 
282 1445 421 788 987 1457 1990 1030 1371 
1566 1571 848 1559 1897 1653 175 462 1637 
1864 1440 1106 1246 877 1898 981 320 1008 
1661 579 189 1546 1086 1282 1788 1694 822 
969 621 52 1184 1601 1846 1938 1781 1140 
440 1612 723 934 315 1676 1530 1790 711 
1092 1605 1714 1292 860 1280 991 1814 577 
1787 1739 790 1464 491 1137 1484 1875 1128 
1104 574 1151 1270 552 789 808 717 1289 
690 1338 1931 649 996 1417 709 675 1877 
754 472 791 1669 782 1393 1922 825 940 
1046 1348 1436 571 1992 931 507 733 859 
1161 798 1658 518 1939 1454 608 515 1893 
1995 1309 955 1582 1614 1487 625 1671 999 
1976 1842 810 980 695 1394 1476 895 1599 
483 1800 1613 1277 1157 864 628 1286 661 
882 1224 1003 556 781 866 1900 1806 1472 
1965 480 757 1505 476 1929 944 1463 698 
619 964 1536 1804 706 1860 1624 1402 903 
1881 1256 1459 1947 1901 512 1784 1667 797 
1826 494 1438 1045 1526 1986 1839 1318 1033 
753 1861 593 535 1245 1982 1351 1785 1666 
659 687 1933 1640 1610 1380 1132 992 665 
1512 1623 953 857 1311 1271 901 1196 479 
1838 1334 1331 836 1253 1854 956 1911 1200 
978 549 500 1544 1673 1416 1060 949 823 
1551 863 960 1997 1448 640 471 702 1754 
1896 1089 990 1718 1406 1503 1098 1572 1254 
1579 551 1977 750 1415 622 1069 1590 1049 
1962 1527 985 490 802 1934 1887 894 1704 
1002 519 1238 1326 613 1240 1775 1539 868 
1685 1187 553 1403 1554 1908 609 983 997 
1148 1199 1871 1291 1634 524 844 1734 1195 
1930 1315 567 1202 703 1968 481 713 1319 
774 1925 1910 502 1654 1767 1619 1329 1983 
1081 1153 1217 1035 645 843 473 1793 1129 
1345 1295 539 984 1012 477 1381 1913 880 
714 547 766 1149 1772 1737 1435 1906 1600 
1410 947 1596 1364 726 1446 1510 1249 1205 
917 734 662 525 973 1174 658 544 1700 
660 807 1050 761 1219 1359 1028 1523 1409 
1377 2000 1521 1805 1465 732 1084 886 1186 
1594 794 1895 1801 1065 508 1973 1306 572 
584 1807 1603 1391 1715 495 1621 1899 554 
469 1325 1960 684 506 1902 942 1323 496 
1905 1560 865 1684 1828 1203 1344 918 1006 
824 542 486 1138 1486 909 977 1220 1746 
1369 1180 1399 1628 1048 1750 834 596 1154 
654 1915 1857 1972 642 979 1650 1232 1362 
870 1040 861 1999 1241 612 1553 1496 1222 
1397 520 1904 1223 1226 1815 1443 1105 1518 
1850 586 505 1130 1760 1489 1674 623 762 
1741 1470 907 1373 847 1889 1745 1313 1274 
1562 1166 1255 1833 1975 862 1917 1565 1038 
694 1643 1820 685 513 1082 1499 1923 587 
832 1260 933 1444 1859 1469 1037 1844 611 
1584 718 923 1691 1586 1731 1651 1492 1711 
1285 1360 1698 1126 879 1520 1070 741 1117 
1165 820 1547 740 1424 749 1264 1293 1290 
1047 1061 772 1932 799 1639 1474 1987 688 
578 1778 1236 1094 644 1668 510 1299 1577 
484 720 1870 1263 963 630 1795 916 1352 
746 1587 1374 1958 982 1414 1829 816 1355 
1405 696 770 1181 1235 707 785 1550 976 
1952 1125 1971 1529 548 1872 1365 1093 1743 
994 1471 1891 1310 674 1683 1043 1298 498 
1514 634 1670 1251 671 1783 1935 1386 1903 
773 962 1873 1088 786 972 516 1131 809 
1110 1575 1269 1239 1491 1052 1017 643 1841 
1576 618 813 1581 908 1335 1067 1029 1709 
546 475 1441 1725 1197 1797 1383 1890 1495 
1162 1774 1758 1552 1847 529 1779 1100 550 
543 993 1429 1322 487 1729 635 1136 1133 
1712 760 1657 651 1948 603 1346 1183 664 
1822 1949 1504 1644 1921 1759 1755 615 1434 
1208 872 1261 1789 1771 1757 679 1142 538 
1645 1119 764 1123 1845 1834 1091 1076 566 
1382 1461 1347 1549 1966 742 1273 970 691 
1821 656 1852 902 821 1022 1420 638 1107 
1516 560 1629 1515 1808 1237 1531 1327 1534 
1366 954 1497 1272 763 1799 1573 1770 1056 
1525 503 558 835 1538 818 1168 1508 1936 
670 854 605 715 744 1308 1390 1231 1210 
724 627 1609 767 1498 489 1835 1840 1631 
922 737 1597 1675 884 1031 1230 1044 1782 
1617 1719 1689 900 1946 1330 1909 878 1216 
1786 1830 1649 534 1054 1466 705 892 591 
650 1882 569 830 1375 855 876 965 1768 
1287 1591 1068 1638 1991 845 653 1752 841 
1396 1967 639 1242 1387 1353 1695 1699 1981 
1728 666 1738 1912 1540 536 478 1626 1988 
1155 1349 1961 827 1595 1855 1791 1389 1257 
873 1025 1062 1234 1075 1511 867 1288 1431 
1121 1500 1475 828 1641 1585 839 1819 1713 
1451 1616 1749 1421 1101 1358 1944 831 1569 
924 564 1164 626 869 881 1705 1185 1485 
948 958 1517 722 1192 482 889 1672 851 
1201 1811 1574 575 1213 1019 1888 1792 533 
1777 1243 846 1468 771 739 1543 1957 939 
673 1702 1825 1803 1611 1542 1458 1665 680 
468 1011 1265 1652 795 576 1648 1158 541 
1096 1563 1502 777 511 1428 719 1026 765 
1449 1009 1765 1057 1372 914 537 1592 1314 
1090 1247 1074 521 581 768 589 1259 1212 
966 1085 1113 1869 1363 961 967 817 1879 
598 1537 1171 1302 1696 633 501 888 1284 
1659 1079 522 1032 683 1541 1439 1677 1301 
1615 897 585 850 1385 806 1943 1021 1951 
751 689 1077 1324 497 1341 1918 974 1692 
1102 1145 499 1207 1430 1211 745 756 678 
959 1167 601 1567 1209 1268 1994 1283 1275 
682 1095 1000 1606 1736 1836 1578 1367 1221 
1989 1519 951 1141 891 1478 759 699 1432 
1376 1985 610 1294 930 663 1433 1655 1555 
1708 614 1423 1761 604 545 531 1730 929 
729 1127 801 1687 1720 815 1321 1262 1974 
1688 1604 943 1798 710 493 1883 600 842 
562 1959 1763 1664 826 893 1120 1143 676 
1858 1407 1751 1225 1066 1227 1831 1588 1625 
632 1175 1813 1258 731 1039 617 1152 1112 
1004 736 636 952 1848 708 1524 1865 1078 
1876 1773 1707 1328 1190 1874 607 1115 1701 
1051 1680 1278 1886 1392 1818 898 890 1036 
1733 1455 803 1087 532 906 1528 957 1156 
1300 1742 1317 1570 1686 701 1660 1248 527 
1706 1356 1996 1941 738 1766 1937 1024 1336 
646 526 1244 1357 716 945 602 1535 755 
1342 1452 1919 1717 1447 1583 1160 769 1427 
492 1426 1880 1204 1111 488 1928 594 1215 
935 648 1656 1058 1297 1305 1744 1001 1368 
1780 1630 1361 1956 1533 1172 1618 1072 686 
1480 1404 885 563 1103 735 509 1663 1727 
728 568 837 800 606 998 725 1513 1690 
1147 1450 1716 624 559 1561 1401 1178 1642 
599 1978 1073 1034 1395 1177 1276 1041 1020 
811 629 588 1116 1824 1794 911 1747 1134 
528 1647 517 1950 721 1810 1748 871 784 
1849 1027 796 896 1411 1984 555 1412 1608 
727 692 1228 1144 1122 748 580 1384 1281 
595 1545 1726 874 590 804 693 1169 1679 
1482 1723 474 920 1007 910 1681 752 919 
1419 849 1764 1016 1494 1816 1812 1378 1557 
904 655 1993 1769 1862 1370 1350 937 681 
1635 1266 583 783 1964 926 540 1884 1333 
779 780 1598 833 1124 1437 730 1796 1878 
853 1998 1620 1851 1108 1379 1150 1556 1339 
1071 667 1267 1467 1809 1856 1316 1453 467 
1693 1926 1507 1320 697 530 1059 1343 1188 
1916 1558 1483 1678 758 1863 1460 805 840 
995 1817 582 1304 1005 875 657 968 1580 
565 1907 1015 1135 570 1422 792 668 1853 
928 1823 819 938 1501 523 1099 1509 647 
1388 921 616 1953 1163 1867 778 700 1064 
1970 677 1018 927 1307 1250 743 1332 814 
652 1980 1522 592 712 1109 1193 1418 514 
1506 573 793 1490 856 561 1632 637 1732 
1013 470 
type 1 2000 int
1 1 1 1 1 1 1 1 1 
1 1 1 1 1 1 1 1 1 
1 1 1 1 1 1 1 1 1 
1 1 1 1 1 1 1 1 1 
1 1 1 1 1 1 1 1 1 
1 1 1 1 1 1 1 1 1 
1 1 1 1 1 1 1 1 1 
1 1 1 1 1 1 1 1 1 
1 1 1 1 1 1 1 1 1 
1 1 1 1 1 1 1 1 1 
1 1 1 1 1 1 1 1 1 
1 1 1 1 1 1 1 1 1 
1 1 1 1 1 1 1 1 1 
1 1 1 1 1 1 1 1 1 
1 1 1 1 1 1 1 1 1 
1 1 1 1 1 1 1 1 1 
1 1 1 1 1 1 1 1 1 
1 1 1 1 1 1 1 1 1 
1 1 1 1 1 1 1 1 1 
1 1 1 1 1 1 1 1 1 
1 1 1 1 1 1 1 1 1 
1 1 1 1 1 1 1 1 1 
1 1 1 1 1 1 1 1 1 
1 1 1 1 1 1 1 1 1 
1 1 1 1 1 1 1 1 1 
1 1 1 1 1 1 1 1 1 
1 1 1 1 1 1 1 1 1 
1 1 1 1 1 1 1 1 1 
1 1 1 1 1 1 1 1 1 
1 1 1 1 1 1 1 1 1 
1 1 1 1 1 1 1 1 1 
1 1 1 1 1 1 1 1 1 
1 1 1 1 1 1 1 1 1 
1 1 1 1 1 1 1 1 1 
1 1 1 1 1 1 1 1 1 
1 1 1 1 1 1 1 1 1 
1 1 1 1 1 1 1 1 1 
1 1 1 1 1 1 1 1 1 
1 1 1 1 1 1 1 1 1 
1 1 1 1 1 1 1 1 1 
1 1 1 1 1 1 1 1 1 
1 1 1 1 1 1 1 1 1 
1 1 1 1 1 1 1 1 1 
1 1 1 1 1 1 1 1 1 
1 1 1 1 1 1 1 1 1 
1 1 1 1 1 1 1 1 1 
1 1 1 1 1 1 1 1 1 
1 1 1 1 1 1 1 1 1 
1 1 1 1 1 1 1 1 1 
1 1 1 1 1 1 1 1 1 
1 1 1 1 1 1 1 1 1 
1 1 1 1 1 1 1 1 1 
1 1 1 1 1 1 1 1 1 
1 1 1 1 1 1 1 1 1 
1 1 1 1 1 1 1 1 1 
1 1 1 1 1 1 1 1 1 
1 1 1 1 1 1 1 1 1 
1 1 1 1 1 1 1 1 1 
1 1 1 1 1 1 1 1 1 
1 1 1 1 1 1 1 1 1 
1 1 1 1 1 1 1 1 1 
1 1 1 1 1 1 1 1 1 
1 1 1 1 1 1 1 1 1 
1 1 1 1 1 1 1 1 1 
1 1 1 1 1 1 1 1 1 
1 1 1 1 1 1 1 1 1 
1 1 1 1 1 1 1 1 1 
1 1 1 1 1 1 1 1 1 
1 1 1 1 1 1 1 1 1 
1 1 1 1 1 1 1 1 1 
1 1 1 1 1 1 1 1 1 
1 1 1 1 1 1 1 1 1 
1 1 1 1 1 1 1 1 1 
1 1 1 1 1 1 1 1 1 
1 1 1 1 1 1 1 1 1 
1 1 1 1 1 1 1 1 1 
1 1 1 1 1 1 1 1 1 
1 1 1 1 1 1 1 1 1 
1 1 1 1 1 1 1 1 1 
1 1 1 1 1 1 1 1 1 
1 1 1 1 1 1 1 1 1 
1 1 1 1 1 1 1 1 1 
1 1 1 1 1 1 1 1 1 
1 1 1 1 1 1 1 1 1 
1 1 1 1 1 1 1 1 1 
1 1 1 1 1 1 1 1 1 
1 1 1 1 1 1 1 1 1 
1 1 1 1 1 1 1 1 1 
1 1 1 1 1 1 1 1 1 
1 1 1 1 1 1 1 1 1 
1 1 1 1 1 1 1 1 1 
1 1 1 1 1 1 1 1 1 
1 1 1 1 1 1 1 1 1 
1 1 1 1 1 1 1 1 1 
1 1 1 1 1 1 1 1 1 
1 1 1 1 1 1 1 1 1 
1 1 1 1 1 1 1 1 1 
1 1 1 1 1 1 1 1 1 
1 1 1 1 1 1 1 1 1 
1 1 1 1 1 1 1 1 1 
1 1 1 1 1 1 1 1 1 
1 1 1 1 1 1 1 1 1 
1 1 1 1 1 1 1 1 1 
1 1 1 1 1 1 1 1 1 
1 1 1 1 1 1 1 1 1 
1 1 1 1 1 1 1 1 1 
1 1 1 1 1 1 1 1 1 
1 1 1 1 1 1 1 1 1 
1 1 1 1 1 1 1 1 1 
1 1 1 1 1 1 1 1 1 
1 1 1 1 1 1 1 1 1 
1 1 1 1 1 1 1 1 1 
1 1 1 1 1 1 1 1 1 
1 1 1 1 1 1 1 1 1 
1 1 1 1 1 1 1 1 1 
1 1 1 1 1 1 1 1 1 
1 1 1 1 1 1 1 1 1 
1 1 1 1 1 1 1 1 1 
1 1 1 1 1 1 1 1 1 
1 1 1 1 1 1 1 1 1 
1 1 1 1 1 1 1 1 1 
1 1 1 1 1 1 1 1 1 
1 1 1 1 1 1 1 1 1 
1 1 1 1 1 1 1 1 1 
1 1 1 1 1 1 1 1 1 
1 1 1 1 1 1 1 1 1 
1 1 1 1 1 1 1 1 1 
1 1 1 1 1 1 1 1 1 
1 1 1 1 1 1 1 1 1 
1 1 1 1 1 1 1 1 1 
1 1 1 1 1 1 1 1 1 
1 1 1 1 1 1 1 1 1 
1 1 1 1 1 1 1 1 1 
1 1 1 1 1 1 1 1 1 
1 1 1 1 1 1 1 1 1 
1 1 1 1 1 1 1 1 1 
1 1 1 1 1 1 1 1 1 
1 1 1 1 1 1 1 1 1 
1 1 1 1 1 1 1 1 1 
1 1 1 1 1 1 1 1 1 
1 1 1 1 1 1 1 1 1 
1 1 1 1 1 1 1 1 1 
1 1 1 1 1 1 1 1 1 
1 1 1 1 1 1 1 1 1 
1 1 1 1 1 1 1 1 1 
1 1 1 1 1 1 1 1 1 
1 1 1 1 1 1 1 1 1 
1 1 1 1 1 1 1 1 1 
1 1 1 1 1 1 1 1 1 
1 1 1 1 1 1 1 1 1 
1 1 1 1 1 1 1 1 1 
1 1 1 1 1 1 1 1 1 
1 1 1 1 1 1 1 1 1 
1 1 1 1 1 1 1 1 1 
1 1 1 1 1 1 1 1 1 
1 1 1 1 1 1 1 1 1 
1 1 1 1 1 1 1 1 1 
1 1 1 1 1 1 1 1 1 
1 1 1 1 1 1 1 1 1 
1 1 1 1 1 1 1 1 1 
1 1 1 1 1 1 1 1 1 
1 1 1 1 1 1 1 1 1 
1 1 1 1 1 1 1 1 1 
1 1 1 1 1 1 1 1 1 
1 1 1 1 1 1 1 1 1 
1 1 1 1 1 1 1 1 1 
1 1 1 1 1 1 1 1 1 
1 1 1 1 1 1 1 1 1 
1 1 1 1 1 1 1 1 1 
1 1 1 1 1 1 1 1 1 
1 1 1 1 1 1 1 1 1 
1 1 1 1 1 1 1 1 1 
1 1 1 1 1 1 1 1 1 
1 1 1 1 1 1 1 1 1 
1 1 1 1 1 1 1 1 1 
1 1 1 1 1 1 1 1 1 
1 1 1 1 1 1 1 1 1 
1 1 1 1 1 1 1 1 1 
1 1 1 1 1 1 1 1 1 
1 1 1 1 1 1 1 1 1 
1 1 1 1 1 1 1 1 1 
1 1 1 1 1 1 1 1 1 
1 1 1 1 1 1 1 1 1 
1 1 1 1 1 1 1 1 1 
1 1 1 1 1 1 1 1 1 
1 1 1 1 1 1 1 1 1 
1 1 1 1 1 1 1 1 1 
1 1 1 1 1 1 1 1 1 
1 1 1 1 1 1 1 1 1 
1 1 1 1 1 1 1 1 1 
1 1 1 1 1 1 1 1 1 
1 1 1 1 1 1 1 1 1 
1 1 1 1 1 1 1 1 1 
1 1 1 1 1 1 1 1 1 
1 1 1 1 1 1 1 1 1 
1 1 1 1 1 1 1 1 1 
1 1 1 1 1 1 1 1 1 
1 1 1 1 1 1 1 1 1 
1 1 1 1 1 1 1 1 1 
1 1 1 1 1 1 1 1 1 
1 1 1 1 1 1 1 1 1 
1 1 1 1 1 1 1 1 1 
1 1 1 1 1 1 1 1 1 
1 1 1 1 1 1 1 1 1 
1 1 1 1 1 1 1 1 1 
1 1 1 1 1 1 1 1 1 
1 1 1 1 1 1 1 1 1 
1 1 1 1 1 1 1 1 1 
1 1 1 1 1 1 1 1 1 
1 1 1 1 1 1 1 1 1 
1 1 1 1 1 1 1 1 1 
1 1 1 1 1 1 1 1 1 
1 1 1 1 1 1 1 1 1 
1 1 1 1 1 1 1 1 1 
1 1 1 1 1 1 1 1 1 
1 1 1 1 1 1 1 1 1 
1 1 1 1 1 1 1 1 1 
1 1 1 1 1 1 1 1 1 
1 1 1 1 1 1 1 1 1 
1 1 1 1 1 1 1 1 1 
1 1 1 1 1 1 1 1 1 
1 1 1 1 1 1 1 1 1 
1 1 
i 3 2000 int
0 0 0 0 0 0 0 0 0 
0 0 0 0 0 0 0 0 0 
0 0 0 0 0 0 0 0 0 
0 0 0 0 1 0 0 0 0 
0 0 0 0 0 0 0 0 0 
0 0 0 0 0 0 0 0 0 
-1 0 0 0 0 0 0 0 0 
0 0 0 0 0 0 0 0 0 
0 0 0 0 0 0 0 0 0 
0 0 0 0 0 0 0 0 0 
0 0 0 0 0 0 0 0 0 
0 0 0 0 0 0 0 0 0 
0 0 0 0 0 0 0 0 0 
0 0 0 0 0 0 0 0 0 
0 0 0 0 0 0 0 0 0 
0 0 0 0 0 0 0 0 0 
0 0 0 0 0 0 0 0 0 
0 0 0 0 0 0 0 0 0 
0 0 0 0 0 0 0 0 0 
0 0 0 1 0 0 0 0 0 
0 0 0 0 0 0 0 0 0 
0 0 0 0 0 0 0 0 0 
0 0 0 0 0 0 1 0 0 
0 0 0 0 0 0 0 0 0 
0 0 0 0 0 0 0 0 0 
0 0 0 0 0 0 0 0 0 
0 0 0 0 0 0 0 0 0 
0 0 0 0 0 0 0 0 0 
0 0 0 0 0 0 0 0 0 
0 0 0 0 0 0 0 0 0 
0 0 0 0 0 0 0 0 0 
0 0 0 0 0 0 0 0 0 
0 0 0 0 0 0 1 0 0 
0 0 0 0 0 0 0 0 0 
0 0 0 0 0 0 0 0 0 
0 0 0 0 0 0 0 0 0 
0 0 0 0 0 0 0 0 0 
0 0 0 0 0 0 0 0 0 
0 0 0 0 -1 0 0 0 0 
0 0 0 0 0 0 0 0 0 
0 0 0 0 0 0 0 0 0 
0 0 0 0 0 0 0 -1 0 
0 0 0 0 0 0 0 -1 0 
0 0 0 0 0 0 0 0 0 
0 0 0 0 0 0 0 0 0 
0 0 0 0 0 0 0 0 0 
0 0 0 0 0 0 0 1 0 
0 0 0 0 0 0 0 0 0 
0 0 0 0 0 0 0 0 0 
0 0 0 0 0 0 0 0 0 
0 0 0 0 0 0 0 0 0 
0 0 0 0 0 0 0 0 0 
0 0 0 0 0 0 0 0 0 
0 0 0 0 0 0 0 0 0 
0 0 0 0 0 0 0 0 0 
0 0 0 0 0 0 0 0 0 
0 0 0 0 0 0 0 0 0 
1 0 0 0 0 0 0 0 0 
0 0 0 0 0 0 0 0 0 
0 0 0 0 0 0 0 0 0 
0 0 0 0 0 0 0 0 0 
0 0 0 0 0 0 0 0 0 
0 0 0 0 0 0 0 0 0 
0 0 0 0 0 0 0 0 0 
0 0 0 0 0 0 0 0 0 
0 0 0 0 0 0 0 0 0 
0 0 0 0 0 0 0 0 0 
0 0 0 0 0 0 0 0 0 
0 0 0 0 0 0 0 0 0 
1 0 0 0 0 0 0 0 0 
0 0 0 0 0 0 0 0 0 
0 0 0 0 0 0 0 0 0 
0 0 0 0 0 0 0 0 0 
1 0 0 0 0 0 0 0 0 
0 0 0 0 0 0 0 0 0 
0 0 0 0 0 0 0 0 0 
0 0 0 0 0 0 0 0 0 
0 0 0 0 0 0 0 0 0 
0 0 0 0 0 0 1 0 0 
0 0 0 0 0 0 0 0 0 
0 0 0 0 0 0 0 0 0 
0 0 0 0 0 0 0 0 0 
0 0 0 0 0 0 0 0 0 
0 0 0 0 0 0 0 0 0 
0 0 0 0 0 0 -1 0 0 
0 0 0 0 0 0 0 0 0 
0 0 0 0 0 0 0 0 0 
0 0 0 0 0 0 0 0 0 
0 0 0 0 0 0 0 0 0 
0 -1 0 0 0 0 0 0 0 
0 0 0 0 0 0 0 0 0 
0 0 0 0 0 0 0 0 0 
0 0 0 0 0 0 0 0 0 
0 0 0 0 0 0 0 0 0 
0 0 0 0 0 0 0 0 0 
0 0 0 0 1 0 0 0 0 
0 0 0 0 0 0 0 0 0 
0 1 0 0 0 0 0 0 0 
0 0 0 -1 0 0 0 0 0 
0 0 0 0 0 0 0 0 0 
0 0 0 0 0 0 0 0 0 
0 0 0 0 0 0 0 0 0 
0 0 0 0 0 0 0 0 0 
0 0 0 0 0 0 0 0 0 
-1 0 0 0 0 0 0 0 0 
0 0 0 0 0 0 0 0 0 
0 0 0 0 0 0 0 0 0 
0 0 0 0 0 0 0 0 0 
0 0 0 0 0 0 0 0 0 
0 0 0 0 0 0 0 0 0 
0 0 0 0 0 0 0 0 0 
0 0 0 0 0 0 0 0 0 
0 0 0 0 0 0 0 0 0 
0 0 0 0 0 0 0 0 0 
0 0 0 0 0 0 0 0 0 
0 0 0 0 0 0 0 0 0 
0 0 0 0 0 0 0 0 0 
0 0 0 0 0 0 0 0 0 
0 0 0 0 0 0 0 0 0 
0 0 0 0 0 0 0 0 0 
0 0 0 0 0 0 0 0 0 
0 0 0 0 0 0 1 0 0 
1 0 0 0 0 0 0 0 0 
0 0 0 0 0 0 0 0 0 
0 0 0 0 0 0 0 0 0 
0 0 0 0 0 0 0 0 0 
0 0 0 0 0 0 0 0 0 
0 0 0 0 0 0 0 0 0 
0 0 0 0 0 0 0 0 0 
0 0 0 0 0 0 0 0 0 
0 0 0 0 0 0 0 0 0 
0 0 0 0 0 0 0 0 0 
0 0 0 0 0 0 0 0 0 
0 0 0 0 0 0 0 0 0 
0 0 0 0 0 0 0 0 0 
0 0 0 0 0 0 -1 0 0 
0 0 0 0 0 0 0 0 0 
0 0 0 0 0 0 0 0 0 
0 0 0 0 0 0 0 0 0 
0 0 0 0 0 0 0 0 0 
0 0 0 0 0 0 0 0 0 
0 0 0 0 0 0 -1 0 0 
0 0 0 0 0 0 0 0 0 
0 0 0 0 0 0 0 0 0 
0 0 0 0 0 0 0 0 0 
0 0 0 0 0 0 0 0 0 
0 0 0 0 0 0 0 0 0 
0 0 0 0 0 0 0 -1 0 
0 0 0 0 0 0 0 0 0 
0 0 0 0 0 0 0 0 0 
0 0 0 0 0 0 0 0 0 
0 0 0 0 0 0 0 0 0 
0 0 0 0 0 0 0 0 0 
0 0 0 0 0 0 -1 0 0 
0 0 0 0 0 0 1 0 0 
0 0 0 0 0 0 0 0 0 
0 0 0 0 0 0 0 1 0 
0 0 0 0 0 0 0 0 0 
0 0 0 0 0 0 0 0 0 
0 1 0 0 0 0 0 0 0 
0 0 0 0 0 0 0 0 0 
0 0 0 0 1 0 0 0 0 
0 0 0 0 0 0 0 0 0 
0 0 0 0 0 0 0 0 0 
0 0 0 0 0 0 0 0 0 
0 0 0 0 0 0 0 0 0 
0 0 0 1 0 0 0 0 0 
0 0 0 0 0 0 0 0 0 
0 0 0 0 0 0 0 0 0 
0 0 0 0 0 0 0 0 0 
0 0 0 0 0 0 0 0 0 
0 0 0 0 0 0 0 0 0 
0 0 0 0 0 0 0 0 0 
0 0 0 0 0 0 0 0 0 
0 0 0 0 0 0 0 0 0 
0 0 0 0 0 0 0 0 0 
0 0 0 0 0 0 0 0 0 
0 0 0 0 0 0 0 0 0 
0 0 0 0 0 0 0 0 0 
0 0 0 0 0 0 0 0 0 
0 0 0 1 0 0 0 0 0 
0 0 0 0 0 0 0 0 0 
0 0 0 0 0 0 0 0 0 
0 0 0 0 0 0 0 0 0 
0 0 0 0 0 0 0 0 0 
0 0 0 0 0 0 1 0 0 
0 0 0 0 0 0 0 0 0 
0 0 0 0 0 0 0 0 0 
0 0 0 0 0 0 0 0 0 
0 0 0 0 0 0 0 0 0 
0 0 0 0 0 0 0 0 0 
0 0 0 0 0 0 0 0 0 
0 0 0 0 0 0 0 0 0 
0 0 0 0 0 0 0 0 0 
0 0 0 0 0 0 0 0 0 
0 0 0 0 0 0 0 0 0 
0 0 0 0 0 0 0 0 0 
0 0 0 0 0 0 0 0 0 
0 0 0 0 0 0 0 0 0 
0 0 0 0 0 0 0 0 0 
0 0 0 0 0 0 -1 0 0 
0 0 0 0 0 0 0 0 0 
0 0 0 0 0 0 0 0 0 
0 0 0 0 0 0 0 0 0 
0 0 0 0 0 0 0 0 0 
0 0 0 0 0 0 0 0 0 
0 0 0 0 0 0 0 0 0 
0 0 0 0 0 0 0 0 0 
0 0 0 -1 0 0 0 0 0 
0 -1 0 1 0 0 1 0 0 
0 -1 0 0 0 0 0 0 0 
0 0 0 0 0 0 0 0 0 
0 0 0 0 0 0 0 -1 0 
0 0 0 0 0 0 0 -1 0 
0 0 0 0 -1 0 0 0 0 
1 0 0 0 0 0 0 0 0 
0 0 0 0 0 0 0 0 0 
0 0 0 0 0 0 0 0 0 
0 0 0 0 0 0 0 0 0 
0 0 0 0 0 0 0 0 0 
0 0 0 0 0 0 0 0 0 
0 0 0 0 0 0 0 0 0 
0 0 0 0 0 0 0 0 0 
0 0 0 0 0 0 0 0 0 
0 0 0 0 0 0 0 0 0 
0 0 0 0 0 0 0 0 0 
0 0 0 0 0 0 0 0 0 
0 0 0 0 0 0 0 0 0 
0 0 0 0 0 0 0 0 0 
0 0 0 0 0 0 0 0 0 
0 0 0 0 0 0 0 0 0 
0 0 0 0 0 0 0 0 0 
0 0 0 0 0 0 0 0 0 
0 0 0 0 0 0 0 0 0 
0 0 0 0 0 0 0 0 0 
0 0 0 0 0 0 0 0 0 
0 0 0 0 0 0 0 0 0 
0 0 0 0 0 0 -1 0 0 
0 0 0 0 0 0 0 0 0 
0 0 0 0 0 0 0 0 0 
0 0 0 0 0 0 0 0 0 
0 0 0 0 0 0 1 0 0 
0 0 0 0 0 0 0 0 0 
0 0 0 0 0 0 0 0 0 
0 0 0 1 0 0 0 0 0 
0 0 0 0 0 0 0 0 0 
0 0 0 0 0 0 0 0 0 
0 0 0 0 0 0 0 0 0 
0 0 0 0 0 0 0 0 0 
0 0 0 0 0 0 0 0 0 
0 0 0 0 0 0 0 0 0 
0 0 0 0 0 0 0 0 0 
0 0 0 0 0 0 0 0 0 
0 0 0 0 0 0 0 0 0 
1 0 0 0 0 0 0 0 0 
0 0 0 0 0 0 0 0 0 
0 0 0 0 0 0 0 0 0 
0 0 0 0 0 0 0 0 0 
0 0 0 0 0 0 1 0 0 
0 -1 0 0 0 0 0 0 0 
0 0 0 0 0 0 0 0 0 
0 0 0 0 0 0 0 0 0 
0 0 0 0 0 0 0 0 0 
0 0 0 0 0 0 0 0 0 
0 0 0 0 0 0 0 0 0 
0 0 0 0 0 0 0 0 0 
0 0 0 0 0 0 0 0 0 
0 0 0 0 0 0 0 0 0 
0 0 0 0 0 0 0 1 0 
0 1 0 0 0 0 0 0 0 
0 0 0 0 0 0 0 0 0 
0 0 0 0 0 0 0 0 0 
0 0 0 0 0 0 0 0 0 
0 0 0 0 0 0 0 0 0 
0 0 0 0 0 0 0 0 0 
0 0 0 0 0 0 0 0 0 
-1 0 0 0 0 0 0 0 0 
1 0 0 0 0 0 0 0 0 
0 0 0 0 0 0 0 0 0 
0 0 0 0 0 0 0 0 0 
0 0 0 0 0 0 1 0 0 
0 0 0 0 0 0 0 0 0 
0 0 0 0 0 0 0 0 0 
0 0 0 0 0 0 0 0 0 
0 0 0 0 0 0 0 0 0 
0 0 0 0 0 0 0 0 0 
0 0 0 0 0 0 0 0 0 
0 0 0 0 0 0 0 0 0 
0 0 0 0 0 0 0 0 0 
0 0 0 0 0 0 0 0 0 
0 0 0 0 0 0 0 0 0 
0 0 0 0 0 0 0 0 0 
0 0 0 0 0 0 0 0 0 
0 0 0 -1 0 0 0 0 0 
0 0 0 0 0 0 0 0 0 
0 0 0 0 0 0 0 0 0 
0 0 0 0 0 0 0 0 0 
0 0 0 0 0 0 0 0 0 
0 0 0 0 0 0 0 0 0 
0 0 0 0 0 0 0 0 0 
0 0 0 0 0 0 0 0 0 
0 0 0 0 0 0 0 0 0 
0 0 0 0 0 0 0 0 0 
0 0 0 0 0 0 0 0 0 
0 0 0 0 0 0 0 0 0 
0 0 0 0 0 0 0 0 0 
0 0 0 0 0 0 0 0 0 
0 0 0 0 0 0 0 0 0 
0 0 0 0 0 0 0 0 0 
0 0 0 0 0 0 0 0 0 
0 0 0 0 0 0 0 0 0 
0 -1 0 0 0 0 0 0 0 
0 0 0 0 0 0 0 0 0 
0 0 0 0 0 0 0 0 0 
0 0 0 0 0 0 0 0 0 
0 0 0 0 0 0 0 0 0 
0 0 0 -1 0 0 0 0 0 
0 0 0 0 0 0 0 0 0 
0 0 0 0 0 0 0 0 0 
0 0 0 0 0 0 0 0 0 
0 0 0 0 0 0 0 0 0 
0 1 0 0 0 0 0 0 0 
0 0 0 0 0 0 0 0 0 
0 0 0 0 0 0 0 0 0 
0 0 0 0 0 0 0 0 0 
0 0 0 0 0 0 0 0 0 
0 0 0 0 0 0 0 0 0 
0 0 0 0 0 0 0 0 0 
0 0 0 0 0 0 0 0 0 
0 0 0 0 0 0 0 0 0 
0 0 0 0 0 0 0 0 0 
0 0 0 0 0 0 0 0 0 
0 0 0 0 0 0 0 0 0 
0 0 0 0 0 0 0 0 0 
0 0 0 0 0 0 0 0 0 
0 0 0 0 0 0 0 0 0 
0 0 0 0 0 0 0 0 0 
0 0 0 0 0 0 0 0 0 
0 0 0 0 0 0 0 0 0 
0 0 0 0 0 0 0 0 0 
1 0 0 0 0 0 0 0 0 
0 0 0 0 0 0 0 0 0 
0 0 0 0 0 0 0 0 0 
0 0 0 0 0 0 0 0 0 
0 0 0 0 0 0 0 0 0 