# vtk DataFile Version 4.0
Generated by LIGGGHTS
ASCII
DATASET POLYDATA
POINTS 2000 float
-125.761 -124.09 9.91854 -112.025 -139.629 9.91904 -92.5604 -135.205 9.91877 
-106.117 -120.563 9.91838 -84.9895 -113.061 9.9182 -58.9535 -128.264 9.91766 
-39.0825 -130.128 9.91861 -19.2888 -127.573 9.91746 -45.502 -111.228 9.91877 
13.1735 -138.355 9.9185 4.67083 -121.546 16.5113 29.3486 -126.662 9.91877 
96.3534 -123.302 9.91677 95.8263 -140.816 19.4723 115.238 -133.346 9.91759 
135.042 -130.793 9.91877 121.936 -114.553 9.91877 -137.793 -108.167 9.92069 
-129.034 -90.2316 9.9182 -118.805 -106.327 15.7952 -100.599 -100.624 9.92094 
-101.328 -80.6789 9.91076 -55.365 -92.1023 9.9193 -65.3753 -109.368 9.91873 
-31.7804 -96.7326 9.92043 6.21764 -102.769 9.91998 -10.9421 -92.5752 9.91869 
21.9201 -90.4476 9.91891 33.8444 -106.453 9.9187 39.4821 -80.9639 9.91982 
51.4075 -96.9715 9.91931 71.2307 -94.6425 9.91866 59.303 -78.6402 9.91877 
88.5007 -104.648 9.91915 94.4637 -85.5994 9.92248 107.978 -100.286 9.91877 
128.588 -95.7426 9.9135 113.934 -81.2351 9.91296 -135.494 -60.1005 9.91547 
-118.58 -70.6696 9.91878 -117.871 -50.7224 9.91806 -100.6 -60.7313 9.91989 
-80.7114 -62.4457 9.9195 -57.9103 -72.3076 9.91844 -38.7929 -78.0434 9.91877 
-19.172 -74.392 9.90929 -32.1452 -59.2212 9.91911 -8.0095 -57.8545 9.91698 
0.732451 -75.7989 9.91683 36.1039 -57.326 9.91599 18.2546 -66.2492 9.91874 
56.024 -56.1671 9.91776 77.5735 -53.5837 9.92134 78.5898 -73.5116 9.91974 
137.341 -77.8183 9.9186 126.564 -61.0226 9.91877 -128.638 -33.9164 9.91889 
-111.571 -17.3046 18.9551 -89.1705 -44.3706 9.92016 -85.1096 -24.8352 9.91725 
-106.441 -34.3548 9.92003 -30.5189 -24.6593 9.91865 -23.863 -42.2895 16.495 
-12.1414 -16.8739 9.90751 45.0618 -39.489 9.91856 92.1629 -39.971 9.91387 
108.938 -22.5976 9.92149 89.7546 -17.1041 9.91754 111.982 -42.3239 9.91917 
135.749 -43.3063 9.90757 127.023 -26.9173 17.1752 -129.051 -13.9615 9.91877 
-131.232 9.79152 9.91668 -106.766 6.09462 9.9198 -90.6404 -5.664 9.91721 
-65.5894 -6.98918 9.91779 -45.5219 7.00381 17.318 -45.5545 -11.5331 9.91876 
-14.8502 4.95497 9.92198 1.69406 -2.05874 18.603 35.9241 12.1245 9.9184 
27.6162 -6.53106 9.91877 104.101 -3.22861 9.91963 123.286 -8.72297 9.91177 
-116.66 23.4292 9.91803 -107.531 38.1052 19.8984 -45.8663 30.0748 9.91621 
-30.3015 17.585 9.91878 -29.3355 41.2446 9.91518 32.5939 31.8005 9.91722 
70.6712 20.0454 9.91674 77.7531 38.7 9.9139 51.3014 24.8529 9.91877 
56.1027 44.2286 9.92109 90.3716 23.2364 9.91824 97.316 42.6168 9.91612 
-120.455 49.5681 9.91861 -131.33 66.2947 9.9101 -140.313 47.5668 9.91861 
-94.0889 48.98 9.91975 -99.7519 68.1202 9.91877 -56.4351 47.0075 9.91819 
-77.2715 75.2003 9.91661 -74.9202 54.516 10.5617 -59.181 66.7748 9.91839 
2.18338 63.916 9.91877 26.6146 50.8392 9.91674 27.6518 71.105 9.91873 
44.176 60.1077 11.9557 63.8669 62.6143 9.91884 100.026 67.6227 9.91877 
84.5762 55.4288 18.4003 80.8394 73.1056 9.91906 114.073 53.451 9.91749 
130.815 64.3046 9.91725 -116.238 79.3718 9.92056 -135.1 85.8816 9.91 
-94.8096 87.4585 9.91507 -21.8122 103.798 9.91054 13.4086 85.0794 9.91877 
-4.52401 93.8307 9.91546 5.05794 109.106 18.4564 22.0645 103.062 9.92117 
104.981 86.9542 9.91877 85.7944 92.4351 9.92021 98.7838 107.59 9.92008 
117.977 102.099 9.919 124.593 83.2664 9.91747 -131.598 138.451 9.92002 
-88.7729 127.202 9.91492 -73.6953 140.28 9.91869 -54.6717 134.244 9.91703 
-37.0587 116.672 9.91616 -28.7291 134.807 9.9213 -6.30165 139.273 9.91504 
-9.61771 119.595 9.91835 15.4912 123.822 9.91843 39.1505 137.951 9.9164 
34.724 118.49 9.91758 61.528 121.769 9.91877 78.0029 110.689 11.964 
82.299 130.062 9.91376 134.642 114.227 9.91522 127.348 132.796 9.91847 
112.842 120.446 15.8646 -116.855 -128.763 27.1576 -136.093 -133.237 30.0301 
-128.194 -113.086 32.0585 -120.271 -122.703 47.6496 -133.602 -137.456 49.3785 
-100.418 -131.131 38.2262 -85.8887 -123.112 27.1373 -81.3812 -136.058 41.6434 
-103.559 -113.944 28.5742 -66.0306 -121.114 27.1528 -49.4746 -134.062 26.4981 
-61.3103 -130.854 43.9198 -53.2082 -112.699 39.9257 -0.508203 -136.945 28.1106 
9.27512 -128.829 48.1138 17.5658 -128.7 29.9613 33.5219 -140.617 28.7516 
32.2929 -115.484 32.5573 33.9654 -132.634 47.034 64.8239 -125.602 24.7975 
97.9412 -129.002 35.4139 88.9122 -113.723 47.1524 108.714 -114.897 44.9176 
106.404 -114.444 24.7066 135.341 -116.914 25.523 119.705 -126.697 33.1564 
128.443 -112.131 43.6355 -112.388 -89.4949 24.3894 -138.263 -96.8289 26.3398 
-79.2133 -89.8133 35.3558 -18.4346 -109.286 39.6766 -44.4517 -86.6876 33.934 
5.37483 -88.8918 24.2447 15.2436 -104.585 31.6382 -1.05979 -79.064 42.0354 
17.3095 -86.6154 40.0793 32.8195 -96.301 27.0721 28.0841 -102.051 46.7055 
94.888 -96.4279 28.8726 91.1375 -93.9179 48.315 109.977 -95.2114 41.881 
121.947 -102.26 27.5591 125.649 -83.4263 45.5702 126.108 -82.8377 25.6343 
-130.584 -77.4394 25.1603 -117.829 -62.3624 28.0514 -110.137 -59.2616 46.2063 
-92.3865 -57.5014 37.2507 -104.643 -47.7888 24.5707 -76.2684 -57.7869 49.0176 
-27.7306 -77.8538 27.5848 -20.0204 -59.5371 25.7684 8.21604 -69.3645 27.2626 
-5.74263 -59.8054 39.7077 13.0575 -63.0472 45.5647 26.1856 -77.6379 24.6192 
33.2647 -64.0451 37.4057 45.6645 -48.7089 28.6531 37.8816 -47.1443 46.9656 
46.6999 -67.8637 23.1406 66.7676 -65.5336 23.8799 66.3143 -52.5803 40.0922 
99.5309 -62.4595 35.6193 133.807 -64.7834 29.2234 133.758 -65.5464 49.1657 
-124.673 -46.0586 42.6345 -133.3 -46.8464 24.6654 -118.522 -33.8029 27.772 
-137.401 -27.4124 26.6308 -123.428 -15.837 34.9494 -57.7644 -40.6947 24.7997 
-24.8416 -41.9832 36.4314 13.7757 -34.9543 24.801 -9.73056 -42.8456 49.4417 
38.5949 -25.9725 47.6956 65.4496 -43.6387 22.2691 55.0639 -37.076 45.6986 
98.2029 -29.0448 25.4747 88.1224 -30.1921 42.6663 129.199 -45.3788 28.6387 
-120.183 0.135696 23.4408 -114.122 0.151864 42.4605 -140.801 -6.3083 26.019 
-136.934 3.77366 42.8051 -100.707 -2.54594 26.8644 -100.112 12.9221 48.7338 
-78.4411 -12.5328 24.1459 -69.1824 -12.3987 41.8261 -56.6454 -5.89273 27.7255 
-53.2411 11.1588 48.1207 -24.4354 -7.36686 41.1878 9.31002 0.604945 36.8559 
27.4239 5.25609 26.6208 28.4477 -7.99959 41.5072 23.8161 11.4439 45.2516 
59.1041 -9.37136 24.7973 88.9365 7.7722 30.8875 82.0319 1.85534 48.6542 
-126.988 34.1325 23.2276 -110.961 17.2324 28.0136 -127.779 20.8885 38.1387 
-105.994 30.713 41.8602 -76.5872 22.6508 24.7985 -48.5782 43.1983 28.5693 
-41.9001 24.3896 28.6329 0.986575 32.3233 24.798 33.8045 23.2013 32.5874 
43.2096 40.161 24.6039 74.6155 21.5958 29.4198 68.2382 46.5116 25.6096 
86.9818 20.9695 45.7342 86.3371 39.6327 30.4684 121.981 22.8478 24.8019 
136.595 45.0295 47.5008 -116.664 63.9812 41.5269 -85.3443 49.1062 45.8744 
-85.702 56.2978 27.2646 -82.0331 68.5118 42.6274 -88.4807 77.8432 26.2123 
-62.3124 49.067 42.6755 -62.7268 70.416 29.2195 -52.4955 65.3651 48.7205 
-28.1508 72.8319 24.7938 4.61346 65.6711 34.5866 -7.3607 57.0563 48.027 
27.6837 47.3869 41.565 22.2119 59.9883 27.0934 40.9681 65.0917 44.7232 
21.1648 67.3757 45.6068 52.0052 57.2182 30.0823 72.9771 64.9633 31.5538 
65.263 67.9 49.7293 102.071 51.4649 27.1579 90.9339 75.0789 27.0248 
88.4824 56.5357 40.8619 106.105 72.5247 39.7413 134.6 55.3309 27.3376 
117.861 65.9471 25.0131 122.451 58.3354 42.8849 137.364 76.2123 24.5303 
132.772 76.433 43.9468 -135.531 92.8249 47.2942 -93.3653 90.0023 41.2606 
-66.3893 104.883 24.7972 -50.3195 85.2117 48.7986 -37.8233 100.127 44.3465 
-31.6115 107.535 26.8835 2.21401 89.7729 28.2594 -12.0202 103.728 27.2936 
-8.47736 93.8159 44.6209 7.49214 81.9102 45.8294 2.63395 109.582 39.5041 
18.47 101.065 30.8499 19.2626 79.5275 29.8883 25.2385 92.8154 47.7131 
51.5954 91.7533 24.7962 77.4328 99.6968 46.9371 79.4741 80.3405 42.4963 
86.0934 94.2426 29.7991 134.275 97.2386 20.3684 113.97 105.672 47.5085 
-115.913 110.994 24.7969 -139.521 125.81 45.8635 -88.2053 131.798 29.3253 
-98.501 132.219 46.4141 -90.539 112.898 48.7447 -67.4409 139.571 28.8592 
-52.7217 132.904 40.5748 -31.5086 140.373 37.8316 -21.8933 124.941 25.873 
-41.6033 129.728 24.3064 -33.5183 120.883 41.5859 -3.14024 137.633 46.4534 
-2.03929 125.163 27.9456 -13.6619 120.913 43.6043 15.0544 133.821 33.5644 
45.7952 126.205 24.6204 29.4107 117.706 32.2245 47.0751 134.41 45.3484 
62.2054 123.257 35.5858 107.966 140.426 47.2381 78.6949 112.666 31.8137 
89.4567 135.036 37.3606 94.3937 121.662 23.3848 82.5664 120.852 49.5994 
114.168 137.376 26.3472 134.512 125.701 27.5638 126.928 137.595 41.6849 
-140.514 -120.12 56.4521 -133.436 -133.912 69.02 -137.858 -115.635 75.7168 
-109.888 -137.091 56.7885 -95.1042 -117.311 51.6101 -90.326 -134.778 60.0046 
-75.3412 -119.816 52.8456 -71.2794 -140.488 58.2761 -58.3101 -126.093 63.069 
-76.3394 -126.535 71.6159 -55.5171 -114.114 78.7887 -42.6921 -131.713 51.0579 
-40.1305 -118.244 65.5602 -36.6329 -136.725 72.2313 -20.9315 -140.718 54.7338 
-18.2085 -130.402 76.5775 -4.51555 -132.126 62.159 6.81846 -115.712 62.9529 
8.11312 -129.442 77.3801 45.0485 -116.876 52.2546 26.068 -118.174 58.2918 
35.0428 -128.353 73.7907 23.039 -112.795 77.2686 48.5259 -134.704 60.5221 
62.7385 -117.56 61.4734 68.2268 -136.406 57.8475 62.9493 -137.963 77.0275 
86.848 -133.1 51.4842 103.672 -127.309 60.5228 87.2738 -123.465 71.7526 
105.904 -133.555 79.3463 122.062 -128.622 52.8846 125.725 -116.172 68.0468 
126.489 -134.1 76.7852 -123.998 -89.3411 57.3457 -84.5892 -107.165 65.2048 
-90.822 -88.4564 68.2826 -64.1492 -106.236 62.263 -47.7633 -97.6819 54.7181 
-70.8877 -88.7973 69.2719 -52.4958 -94.9943 73.9196 -33.5993 -99.85 69.7094 
10.5968 -97.676 55.2799 -4.13326 -85.3503 60.7267 15.0167 -78.4242 58.1356 
27.5763 -95.5131 65.5548 41.378 -109.137 70.2871 57.7395 -84.3225 51.9176 
82.5817 -105.58 64.2422 106.043 -86.9884 59.6369 107.487 -107.959 63.5915 
89.8892 -91.0863 75.858 124.413 -98.9409 58.0635 112.83 -94.1587 76.9831 
132.237 -98.2589 79.1984 -127.927 -54.7498 60.2954 -126.847 -62.995 80.123 
-109.3 -58.8888 66.1448 -93.5774 -65.2322 55.6112 -82.7656 -56.0225 69.6296 
[...]
POINT_DATA 2000
FIELD FieldData 7
id 1 2000 int
244 224 311 293 113 306 121 444 93 
415 89 380 194 73 97 382 171 384 
223 143 82 191 270 442 187 214 158 
46 323 149 414 310 401 228 154 173 
262 297 55 268 363 64 258 245 148 
302 174 231 246 326 153 204 227 239 
71 274 152 103 201 417 78 241 256 
54 352 168 410 225 402 340 233 29 
208 252 349 90 458 351 135 408 34 
159 134 282 328 428 216 107 404 165 
67 264 436 166 94 238 226 456 277 
367 120 329 240 260 290 253 147 421 
379 394 182 450 139 338 76 405 446 
170 63 222 199 119 347 376 190 434 
232 133 318 209 48 455 198 123 276 
35 100 75 242 400 261 146 361 373 
180 230 32 142 280 448 350 422 53 
424 286 427 271 60 202 186 344 441 
235 275 22 294 52 197 341 91 452 
316 70 111 9 2 284 412 254 358 
110 132 80 439 291 88 74 127 285 
314 257 429 287 137 65 43 86 196 
105 289 457 178 325 151 355 296 85 
25 322 403 37 343 117 309 411 10 
337 11 183 308 144 397 288 390 212 
49 353 416 332 39 317 362 181 237 
192 4 419 160 383 360 7 301 51 
138 69 263 330 20 392 87 12 324 
375 266 243 57 249 15 345 3 265 
381 281 213 145 388 321 8 215 99 
377 167 131 399 378 108 320 203 247 
359 269 354 96 77 335 346 251 364 
27 331 445 305 116 304 334 30 425 
162 31 435 18 312 140 372 295 17 
6 33 38 368 36 59 303 81 430 
389 125 356 236 115 163 423 426 279 
255 348 61 79 229 283 66 443 259 
1869 858 1289 406 365 1824 164 1196 431 
1754 1015 307 300 1911 299 1878 112 102 
1590 386 420 339 1019 175 195 248 1720 
185 1432 1941 1859 432 727 1671 5 1033 
1555 156 366 327 1883 184 409 272 385 
371 83 14 109 47 1285 1927 118 708 
862 1786 1564 393 336 1724 220 559 342 
193 23 1860 319 1947 333 981 1609 449 
124 437 218 1649 1726 217 1875 1194 315 
661 1084 745 26 267 250 418 1736 205 
45 370 1164 72 398 114 1369 757 141 
155 937 588 844 1762 19 766 769 1160 
84 391 1511 374 106 206 234 157 1866 
28 219 130 751 68 41 56 1393 1662 
101 357 1449 629 1411 454 1915 1023 1446 
453 62 1570 665 313 1606 207 188 433 
1 577 104 58 597 590 273 1771 16 
24 1403 1118 150 1053 407 172 1683 200 
129 126 278 98 447 44 1658 292 1087 
794 221 177 1957 1421 440 1130 211 189 
1980 1520 128 176 413 21 210 395 1404 
1812 161 1874 709 438 929 1840 169 1089 
1711 1889 92 1370 553 1434 1452 298 1402 
1857 1691 95 387 1900 1095 1721 40 136 
1287 1595 13 179 396 1504 776 1623 42 
369 50 974 1075 481 485 1254 1538 972 
1337 959 1816 1343 1312 549 555 1617 1297 
1897 917 1200 1655 606 909 1944 1386 1029 
542 1178 1842 675 1267 521 1455 1004 658 
1693 1717 1477 884 1734 1413 1541 668 1058 
1798 649 1464 1225 1154 1152 1529 541 1959 
1491 1211 1321 1684 1176 2000 463 1682 762 
920 1731 880 1425 487 659 1844 1679 496 
490 1871 1148 838 1823 1522 1216 798 992 
1544 1368 870 609 1419 1239 1008 1172 1108 
1608 1021 847 1041 867 1742 1804 1465 533 
915 1288 1031 451 1346 651 1395 1835 967 
977 811 1919 1735 1389 1125 1483 587 1473 
1962 1070 759 1195 1038 1168 1408 1701 467 
122 1751 716 1405 1681 1990 894 1410 601 
1604 475 507 1965 1416 1576 1533 846 573 
493 1043 942 1639 1766 1732 1936 1537 1773 
1199 615 1365 1205 681 1457 1532 982 604 
1749 859 956 1725 571 1625 1493 1951 822 
1778 1611 969 1870 1246 1145 560 975 1428 
1966 680 961 819 907 789 1896 1025 955 
898 1420 1175 1263 1904 663 842 913 470 
1161 1776 1111 1910 519 1181 1607 1987 1850 
1078 971 1257 1348 1279 1057 958 1640 1556 
843 1846 1566 1926 1062 1833 1899 569 758 
953 872 1183 462 580 1543 1831 837 1689 
815 893 1002 725 460 1584 628 780 1045 
912 1218 480 1431 1879 784 850 868 476 
1546 1123 1052 1328 1633 860 1470 921 633 
1135 881 682 895 1571 1592 976 1901 647 
534 1230 1587 673 1049 1377 522 1744 1105 
1423 1182 1134 1761 531 729 706 1723 804 
1558 945 472 552 1372 581 1502 1101 1275 
1953 1887 1855 1149 719 1568 1073 1578 793 
465 1838 1499 1458 635 750 471 1048 468 
1463 940 1688 1917 667 631 1613 671 650 
1340 968 1600 1935 1418 1081 1685 925 1890 
1177 1659 1484 1796 1808 1114 1266 1064 1219 
1653 1059 1308 1583 504 1478 1644 1480 1863 
1136 1642 1868 1497 1360 899 1526 1120 854 
1938 943 1272 960 1772 1273 1596 1984 1445 
973 1330 754 595 1829 1826 678 808 514 
1898 1834 1437 1895 1740 1849 538 1206 1918 
1221 998 1066 1690 637 1969 1236 882 735 
1548 1110 1268 523 806 1943 1757 988 489 
1295 1234 1476 1104 1228 1983 756 1466 918 
856 1707 997 1923 1673 572 694 1668 1638 
951 812 1091 625 1619 1097 677 1968 1214 
840 551 1126 1208 1210 1067 994 1490 1979 
1127 1357 730 1667 1259 1333 1939 1774 540 
1937 786 892 693 1124 1818 763 1140 488 
979 596 1536 623 499 1192 900 993 1579 
529 1026 1012 1338 1777 1569 1213 1313 1291 
902 1498 871 941 814 1793 1472 1562 1347 
1942 1401 1044 1494 1339 1621 1274 494 1132 
928 1349 1554 1924 910 1746 1374 720 1083 
1925 1851 1574 1286 1069 1071 1507 1202 582 
803 1706 1077 576 1322 652 539 1056 689 
901 1954 738 1932 1618 1864 630 512 1143 
1080 1055 764 1307 1139 770 1280 1260 1789 
802 1115 810 1442 931 564 536 1209 566 
1950 1224 1631 1893 1527 1885 1422 1189 739 
1794 474 1854 1615 1391 532 554 1989 1158 
1426 611 1634 1506 1424 717 1508 509 1993 
1170 705 1841 558 1601 1847 999 991 1387 
1913 1174 1486 1383 653 1945 1231 1672 1730 
1250 1656 1131 1552 1061 1827 602 1060 497 
1076 1809 704 1171 1865 825 1063 1074 1517 
1582 1107 1670 823 1467 1985 1068 1785 799 
774 1759 692 742 1256 484 768 1451 1819 
1034 1251 527 1801 760 1293 1970 674 1997 
747 1304 1795 618 1096 908 923 1098 1042 
1637 1882 1462 1227 835 1603 736 1106 1712 
1450 1678 876 1474 700 1839 1680 801 516 
746 1371 877 779 1810 922 1510 775 732 
1704 1716 639 785 1314 1573 1122 608 614 
621 1001 1783 1627 1155 1775 1862 1000 1549 
477 1179 1902 1946 1269 1147 1112 524 916 
887 695 1622 483 930 1496 1100 782 1316 
1429 1156 703 1929 1581 1563 620 1788 1353 
765 1780 1560 1471 1624 935 891 1748 607 
1006 1963 1197 744 1233 807 1976 1342 648 
579 1728 1255 662 1646 1861 1713 1769 795 
1364 1050 568 1958 1201 1620 1998 1747 1317 
1090 1813 1252 1180 526 634 1032 1738 1814 
949 1363 492 1905 574 1822 1373 1460 1948 
654 1379 1359 548 1444 1380 503 1676 1955 
1741 926 1054 1492 805 1361 1561 830 1265 
479 1436 1807 1765 1551 836 520 1988 1144 
546 995 1381 1299 715 1577 696 966 500 
1017 1186 1242 603 1591 792 816 1325 1355 
1832 1240 726 1438 510 1037 1977 1443 1128 
656 1247 688 1612 1014 1165 1843 873 1332 
530 627 1666 1858 1459 687 827 610 1710 
1320 1184 1157 924 1700 1516 1515 686 1531 
1884 1550 1119 875 1215 874 1837 1301 657 
1908 1628 1398 724 1745 1427 711 1396 1435 
978 701 1277 1674 1931 1881 679 1836 1281 
914 1514 1309 1750 1982 578 511 1981 1598 
469 748 1973 1585 832 1872 1237 952 1972 
1648 1138 1072 1366 547 824 565 755 1229 
1400 1752 1845 1151 1599 1505 1803 638 1888 
1760 1018 1534 1047 619 1007 684 1519 1453 
749 1559 1358 1825 1652 866 1433 664 586 
1141 1545 1245 550 1344 698 1580 707 1193 
1971 1647 1036 1907 1390 464 800 1928 535 
790 1709 570 965 473 1085 1005 1310 1727 
1553 1086 1495 1503 1244 1099 1643 948 1787 
1294 957 853 482 1876 934 1102 599 1602 
1512 685 525 1167 1030 660 655 864 1912 
1815 933 1226 1743 1412 1523 1999 1616 905 
1173 1967 722 1065 1657 517 1800 641 712 
1805 1282 983 1362 598 1597 1306 583 851 
752 1013 591 1261 515 1485 1686 777 593 
1479 567 1651 1696 1821 1594 1092 1852 1220 
1415 1166 670 1350 962 1392 861 1117 820 
906 1039 1113 1283 1626 970 486 1768 612 
1934 501 1352 1797 826 821 771 1733 831 
761 1922 1440 1914 1518 1376 1708 834 1964 
897 1311 1886 1409 1542 740 1489 478 796 
1318 1488 676 1763 1605 1133 594 1940 1524 
1094 987 1695 1430 1781 839 1996 1324 841 
753 1758 1586 1994 946 1046 645 985 781 
1995 626 1894 1933 1417 989 617 833 1129 
1481 950 857 829 1817 1331 1853 585 556 
787 1190 1806 1153 1767 518 1394 1142 1873 
980 1382 1718 1284 600 1521 624 1203 622 
1513 1292 702 1290 1461 1315 767 1992 1270 
869 1079 772 584 1891 1687 963 1705 1469 
1345 1187 1921 1235 1764 1614 737 1632 1867 
605 562 1916 1082 1629 1547 1675 818 1137 
927 632 1335 879 1880 1698 731 1198 1739 
1020 1892 1278 1475 1022 1692 1016 1276 1241 
1729 644 1326 1024 1121 1645 863 743 984 
561 1722 1856 713 1792 809 1378 1243 506 
1956 1799 1329 498 817 1961 1702 616 1303 
932 1232 845 1217 1341 1447 1146 1677 1588 
1238 1660 1351 669 714 1051 1384 1163 1593 
1191 1535 1641 710 1169 849 939 896 783 
537 1974 1334 1456 1116 1664 543 1906 1697 
944 1828 1264 848 563 1753 1635 885 1782 
1454 1509 1185 954 778 1756 883 1439 575 
791 1367 1530 886 1565 1323 1305 466 508 
728 723 495 1930 741 1575 1298 1212 1500 
1802 1011 1302 640 513 911 1399 545 646 
1223 1356 904 1669 1040 1589 733 1978 505 
683 1258 1159 828 1830 1103 672 1540 1665 
889 878 1035 1909 1249 1699 773 1027 1009 
697 557 718 1448 852 1375 1093 1525 1779 
459 1949 788 690 491 1572 1262 1694 1162 
642 1975 613 1003 964 1468 1407 1661 1385 
1414 1296 1848 528 1501 996 903 1960 1719 
1820 1397 1319 643 1567 666 544 721 1654 
1088 1406 1300 1991 1952 1737 502 1557 865 
592 855 1528 1714 947 1271 1109 1150 589 
1791 1028 1663 1487 1703 936 1354 1388 890 
1636 888 1610 1903 1188 1877 813 1986 990 
1248 1010 1441 1650 938 1790 797 919 1253 
1327 1482 1920 1630 1207 1539 734 1770 1755 
691 1204 699 1336 1715 1222 1784 636 1811 
986 461 
type 1 2000 int
1 1 1 1 1 1 1 1 1 
1 1 1 1 1 1 1 1 1 
1 1 1 1 1 1 1 1 1 
1 1 1 1 1 1 1 1 1 
1 1 1 1 1 1 1 1 1 
1 1 1 1 1 1 1 1 1 
1 1 1 1 1 1 1 1 1 
1 1 1 1 1 1 1 1 1 
1 1 1 1 1 1 1 1 1 
1 1 1 1 1 1 1 1 1 
1 1 1 1 1 1 1 1 1 
1 1 1 1 1 1 1 1 1 
1 1 1 1 1 1 1 1 1 
1 1 1 1 1 1 1 1 1 
1 1 1 1 1 1 1 1 1 
1 1 1 1 1 1 1 1 1 
1 1 1 1 1 1 1 1 1 
1 1 1 1 1 1 1 1 1 
1 1 1 1 1 1 1 1 1 
1 1 1 1 1 1 1 1 1 
1 1 1 1 1 1 1 1 1 
1 1 1 1 1 1 1 1 1 
1 1 1 1 1 1 1 1 1 
1 1 1 1 1 1 1 1 1 
1 1 1 1 1 1 1 1 1 
1 1 1 1 1 1 1 1 1 
1 1 1 1 1 1 1 1 1 
1 1 1 1 1 1 1 1 1 
1 1 1 1 1 1 1 1 1 
1 1 1 1 1 1 1 1 1 
1 1 1 1 1 1 1 1 1 
1 1 1 1 1 1 1 1 1 
1 1 1 1 1 1 1 1 1 
1 1 1 1 1 1 1 1 1 
1 1 1 1 1 1 1 1 1 
1 1 1 1 1 1 1 1 1 
1 1 1 1 1 1 1 1 1 
1 1 1 1 1 1 1 1 1 
1 1 1 1 1 1 1 1 1 
1 1 1 1 1 1 1 1 1 
1 1 1 1 1 1 1 1 1 
1 1 1 1 1 1 1 1 1 
1 1 1 1 1 1 1 1 1 
1 1 1 1 1 1 1 1 1 
1 1 1 1 1 1 1 1 1 
1 1 1 1 1 1 1 1 1 
1 1 1 1 1 1 1 1 1 
1 1 1 1 1 1 1 1 1 
1 1 1 1 1 1 1 1 1 
1 1 1 1 1 1 1 1 1 
1 1 1 1 1 1 1 1 1 
1 1 1 1 1 1 1 1 1 
1 1 1 1 1 1 1 1 1 
1 1 1 1 1 1 1 1 1 
1 1 1 1 1 1 1 1 1 
1 1 1 1 1 1 1 1 1 
1 1 1 1 1 1 1 1 1 
1 1 1 1 1 1 1 1 1 
1 1 1 1 1 1 1 1 1 
1 1 1 1 1 1 1 1 1 
1 1 1 1 1 1 1 1 1 
1 1 1 1 1 1 1 1 1 
1 1 1 1 1 1 1 1 1 
1 1 1 1 1 1 1 1 1 
1 1 1 1 1 1 1 1 1 
1 1 1 1 1 1 1 1 1 
1 1 1 1 1 1 1 1 1 
1 1 1 1 1 1 1 1 1 
1 1 1 1 1 1 1 1 1 
1 1 1 1 1 1 1 1 1 
1 1 1 1 1 1 1 1 1 
1 1 1 1 1 1 1 1 1 
1 1 1 1 1 1 1 1 1 
1 1 1 1 1 1 1 1 1 
1 1 1 1 1 1 1 1 1 
1 1 1 1 1 1 1 1 1 
1 1 1 1 1 1 1 1 1 
1 1 1 1 1 1 1 1 1 
1 1 1 1 1 1 1 1 1 
1 1 1 1 1 1 1 1 1 
1 1 1 1 1 1 1 1 1 
1 1 1 1 1 1 1 1 1 
1 1 1 1 1 1 1 1 1 
1 1 1 1 1 1 1 1 1 
1 1 1 1 1 1 1 1 1 
1 1 1 1 1 1 1 1 1 
1 1 1 1 1 1 1 1 1 
1 1 1 1 1 1 1 1 1 
1 1 1 1 1 1 1 1 1 
1 1 1 1 1 1 1 1 1 
1 1 1 1 1 1 1 1 1 
1 1 1 1 1 1 1 1 1 
1 1 1 1 1 1 1 1 1 
1 1 1 1 1 1 1 1 1 
1 1 1 1 1 1 1 1 1 
1 1 1 1 1 1 1 1 1 
1 1 1 1 1 1 1 1 1 
1 1 1 1 1 1 1 1 1 
1 1 1 1 1 1 1 1 1 
1 1 1 1 1 1 1 1 1 
1 1 1 1 1 1 1 1 1 
1 1 1 1 1 1 1 1 1 
1 1 1 1 1 1 1 1 1 
1 1 1 1 1 1 1 1 1 
1 1 1 1 1 1 1 1 1 
1 1 1 1 1 1 1 1 1 
1 1 1 1 1 1 1 1 1 
1 1 1 1 1 1 1 1 1 
1 1 1 1 1 1 1 1 1 
1 1 1 1 1 1 1 1 1 
1 1 1 1 1 1 1 1 1 
1 1 1 1 1 1 1 1 1 
1 1 1 1 1 1 1 1 1 
1 1 1 1 1 1 1 1 1 
1 1 1 1 1 1 1 1 1 
1 1 1 1 1 1 1 1 1 
1 1 1 1 1 1 1 1 1 
1 1 1 1 1 1 1 1 1 
1 1 1 1 1 1 1 1 1 
1 1 1 1 1 1 1 1 1 
1 1 1 1 1 1 1 1 1 
1 1 1 1 1 1 1 1 1 
1 1 1 1 1 1 1 1 1 
1 1 1 1 1 1 1 1 1 
1 1 1 1 1 1 1 1 1 
1 1 1 1 1 1 1 1 1 
1 1 1 1 1 1 1 1 1 
1 1 1 1 1 1 1 1 1 
1 1 1 1 1 1 1 1 1 
1 1 1 1 1 1 1 1 1 
1 1 1 1 1 1 1 1 1 
1 1 1 1 1 1 1 1 1 
1 1 1 1 1 1 1 1 1 
1 1 1 1 1 1 1 1 1 
1 1 1 1 1 1 1 1 1 
1 1 1 1 1 1 1 1 1 
1 1 1 1 1 1 1 1 1 
1 1 1 1 1 1 1 1 1 
1 1 1 1 1 1 1 1 1 
1 1 1 1 1 1 1 1 1 
1 1 1 1 1 1 1 1 1 
1 1 1 1 1 1 1 1 1 
1 1 1 1 1 1 1 1 1 
1 1 1 1 1 1 1 1 1 
1 1 1 1 1 1 1 1 1 
1 1 1 1 1 1 1 1 1 
1 1 1 1 1 1 1 1 1 
1 1 1 1 1 1 1 1 1 
1 1 1 1 1 1 1 1 1 
1 1 1 1 1 1 1 1 1 
1 1 1 1 1 1 1 1 1 
1 1 1 1 1 1 1 1 1 
1 1 1 1 1 1 1 1 1 
1 1 1 1 1 1 1 1 1 
1 1 1 1 1 1 1 1 1 
1 1 1 1 1 1 1 1 1 
1 1 1 1 1 1 1 1 1 
1 1 1 1 1 1 1 1 1 
1 1 1 1 1 1 1 1 1 
1 1 1 1 1 1 1 1 1 
1 1 1 1 1 1 1 1 1 
1 1 1 1 1 1 1 1 1 
1 1 1 1 1 1 1 1 1 
1 1 1 1 1 1 1 1 1 
1 1 1 1 1 1 1 1 1 
1 1 1 1 1 1 1 1 1 
1 1 1 1 1 1 1 1 1 
1 1 1 1 1 1 1 1 1 
1 1 1 1 1 1 1 1 1 
1 1 1 1 1 1 1 1 1 
1 1 1 1 1 1 1 1 1 
1 1 1 1 1 1 1 1 1 
1 1 1 1 1 1 1 1 1 
1 1 1 1 1 1 1 1 1 
1 1 1 1 1 1 1 1 1 
1 1 1 1 1 1 1 1 1 
1 1 1 1 1 1 1 1 1 
1 1 1 1 1 1 1 1 1 
1 1 1 1 1 1 1 1 1 
1 1 1 1 1 1 1 1 1 
1 1 1 1 1 1 1 1 1 
1 1 1 1 1 1 1 1 1 
1 1 1 1 1 1 1 1 1 
1 1 1 1 1 1 1 1 1 
1 1 1 1 1 1 1 1 1 
1 1 1 1 1 1 1 1 1 
1 1 1 1 1 1 1 1 1 
1 1 1 1 1 1 1 1 1 
1 1 1 1 1 1 1 1 1 
1 1 1 1 1 1 1 1 1 
1 1 1 1 1 1 1 1 1 
1 1 1 1 1 1 1 1 1 
1 1 1 1 1 1 1 1 1 
1 1 1 1 1 1 1 1 1 
1 1 1 1 1 1 1 1 1 
1 1 1 1 1 1 1 1 1 
1 1 1 1 1 1 1 1 1 
1 1 1 1 1 1 1 1 1 
1 1 1 1 1 1 1 1 1 
1 1 1 1 1 1 1 1 1 
1 1 1 1 1 1 1 1 1 
1 1 1 1 1 1 1 1 1 
1 1 1 1 1 1 1 1 1 
1 1 1 1 1 1 1 1 1 
1 1 1 1 1 1 1 1 1 
1 1 1 1 1 1 1 1 1 
1 1 1 1 1 1 1 1 1 
1 1 1 1 1 1 1 1 1 
1 1 1 1 1 1 1 1 1 
1 1 1 1 1 1 1 1 1 
1 1 1 1 1 1 1 1 1 
1 1 1 1 1 1 1 1 1 
1 1 1 1 1 1 1 1 1 
1 1 1 1 1 1 1 1 1 
1 1 1 1 1 1 1 1 1 
1 1 1 1 1 1 1 1 1 
1 1 1 1 1 1 1 1 1 
1 1 1 1 1 1 1 1 1 
1 1 1 1 1 1 1 1 1 
1 1 1 1 1 1 1 1 1 
1 1 1 1 1 1 1 1 1 
1 1 1 1 1 1 1 1 1 
1 1 
i 3 2000 int
0 0 0 0 0 0 0 0 0 
0 0 0 0 0 0 0 0 0 
0 0 0 0 0 0 0 0 0 
0 0 0 0 0 0 0 0 0 
0 0 0 0 0 0 0 0 0 
0 0 0 0 0 0 0 0 0 
0 0 0 0 0 0 0 0 0 
0 0 0 0 0 0 0 0 0 
0 0 0 0 0 0 0 0 0 
0 0 0 0 0 0 0 0 0 
0 0 0 0 0 0 0 0 0 
0 0 0 0 0 0 0 0 0 
0 0 0 0 0 0 0 0 0 
0 0 0 0 0 0 0 0 0 
0 0 0 0 0 0 0 0 0 
0 0 0 0 0 0 0 0 0 
0 0 0 0 0 0 0 0 0 
0 0 0 0 0 0 0 0 0 
0 0 0 0 0 0 0 0 0 
0 0 0 0 0 0 0 0 0 
0 0 0 0 0 0 0 0 0 
0 0 0 0 0 0 0 0 0 
0 0 0 0 0 0 0 0 0 
0 0 0 0 0 0 0 0 0 
1 0 0 0 0 0 0 0 0 
0 0 0 0 0 0 0 0 0 
0 0 0 0 0 0 0 0 0 
0 0 0 0 0 0 0 0 0 
0 0 0 0 0 0 0 0 0 
0 0 0 0 0 0 0 0 0 
0 0 0 0 0 0 0 0 0 
0 0 0 0 0 0 0 0 0 
0 0 0 0 0 0 1 0 0 
0 0 0 0 0 0 0 0 0 
0 0 0 0 0 0 0 0 0 
0 0 0 0 0 0 0 0 0 
0 0 0 0 0 0 0 0 0 
0 0 0 0 0 0 0 0 0 
0 0 0 0 0 0 0 0 0 
0 0 0 0 0 0 0 0 0 
0 0 0 0 0 0 0 0 0 
0 0 0 0 0 0 0 0 0 
0 0 0 0 0 0 0 -1 0 
0 0 0 0 0 0 0 0 0 
0 0 0 0 0 0 0 -1 0 
0 0 0 0 0 0 0 -1 0 
0 0 0 0 0 0 0 0 0 
0 0 0 0 0 0 0 0 0 
0 0 0 0 0 0 0 0 0 
0 0 0 0 0 0 0 0 0 
0 0 0 0 0 0 0 0 0 
0 0 0 0 0 0 0 0 0 
0 0 0 0 0 0 0 0 0 
0 0 0 0 0 0 0 0 0 
0 0 0 0 0 0 0 0 0 
0 0 0 0 0 0 0 0 0 
0 0 0 0 0 0 0 0 0 
0 0 0 0 0 0 0 0 0 
0 0 0 0 0 0 0 0 0 
0 0 0 0 0 0 0 0 0 
0 0 0 0 0 0 0 0 0 
0 0 0 0 0 0 0 0 0 
0 0 0 0 0 0 0 0 0 
0 0 0 0 0 0 0 0 0 
0 0 0 0 0 0 0 0 0 
0 0 0 0 0 0 0 0 0 
0 0 0 0 0 0 0 0 0 
0 0 0 0 0 0 0 0 0 
0 0 0 0 0 0 0 0 0 
0 0 0 0 0 0 0 0 0 
0 0 0 0 0 0 0 0 0 
1 0 0 0 0 0 0 0 0 
0 0 0 0 0 0 0 0 0 
0 0 0 0 0 0 0 0 0 
0 0 0 0 0 0 0 0 0 
0 0 0 0 0 0 1 0 0 
1 0 0 0 0 0 0 0 0 
0 0 0 0 0 0 0 0 0 
0 0 0 0 0 0 0 0 0 
0 0 0 0 0 0 0 0 0 
0 0 0 0 0 0 0 0 0 
0 0 0 0 0 0 0 0 0 
0 0 0 0 0 0 0 0 0 
0 0 0 0 0 0 0 0 0 
0 0 0 0 0 0 0 0 0 
0 0 0 0 0 0 0 0 0 
0 0 0 0 0 0 0 0 0 
0 0 0 0 0 0 0 0 0 
0 0 0 0 0 0 0 0 0 
0 0 0 0 0 0 0 0 0 
0 0 0 0 0 0 0 0 0 
0 0 0 0 0 0 0 0 0 
0 0 0 0 0 0 0 0 0 
0 0 0 0 0 0 0 0 0 
0 0 0 0 0 0 0 0 0 
0 0 0 0 0 0 0 0 0 
0 0 0 0 0 0 0 0 0 
0 0 0 0 0 0 0 0 0 
0 0 0 0 0 0 0 0 0 
0 0 0 0 0 0 0 0 0 
0 0 0 0 0 0 0 0 0 
0 0 0 0 0 0 0 0 0 
0 0 0 0 0 0 0 0 0 
0 0 0 0 0 0 0 -1 0 
0 0 0 0 0 0 0 0 0 
0 0 0 0 0 0 0 -1 0 
0 0 0 0 0 0 0 0 0 
0 0 0 0 0 0 0 -1 0 
0 0 0 0 -1 0 0 0 0 
0 -1 0 0 0 0 0 0 0 
0 0 0 0 0 0 0 0 0 
0 0 0 0 0 0 0 0 0 
0 0 0 0 0 0 0 0 0 
0 0 0 0 0 0 0 0 0 
0 0 0 0 0 0 0 0 0 
0 0 0 0 0 0 0 0 0 
0 0 0 0 0 0 0 0 0 
0 0 0 0 0 0 0 0 0 
0 0 0 0 0 0 0 0 0 
0 0 0 0 0 0 0 0 0 
0 0 0 0 0 0 0 0 0 
0 0 0 0 0 0 0 0 0 
0 0 0 0 0 0 0 0 0 
0 0 0 0 0 0 0 0 0 
0 0 0 0 0 0 0 0 0 
0 0 0 0 0 0 0 0 0 
0 0 0 0 0 0 0 0 0 
0 0 0 0 0 0 0 0 0 
0 0 0 0 0 0 0 0 0 
-1 0 0 0 0 0 0 0 0 
0 0 0 0 0 0 0 0 0 
0 0 0 0 0 0 0 0 0 
0 0 0 0 0 0 0 0 0 
0 0 0 0 0 0 0 0 0 
0 0 0 0 0 0 0 0 0 
0 0 0 0 0 0 0 0 0 
0 0 0 -1 0 0 0 0 0 
0 0 0 0 0 0 0 0 0 
0 0 0 0 0 0 0 0 0 
0 0 0 0 0 0 0 0 0 
0 0 0 0 0 0 0 0 0 
0 0 0 0 0 0 0 0 0 
0 0 0 0 0 0 0 0 0 
0 0 0 0 0 0 0 0 0 
0 0 0 0 0 0 0 0 0 
0 0 0 0 0 0 0 0 0 
0 0 0 0 0 0 0 0 0 
0 0 0 0 0 0 0 0 0 
0 0 0 0 0 0 0 0 0 
0 0 0 0 0 0 0 0 0 
0 0 0 0 0 0 0 0 0 
0 0 0 0 0 0 0 0 0 
0 0 0 0 0 0 0 0 0 
0 0 0 0 0 0 0 0 0 
0 0 0 0 0 0 0 0 0 
0 0 0 0 0 0 0 0 0 
0 0 0 0 0 0 0 0 0 
0 0 0 0 0 0 0 0 0 
0 0 0 0 0 0 0 0 0 
0 0 0 0 0 0 0 0 0 
0 0 0 0 0 0 0 0 0 
0 0 0 0 0 0 0 0 0 
0 0 0 -1 0 0 0 0 0 
0 0 0 0 0 0 0 0 0 
0 0 0 0 0 0 0 0 0 
0 0 0 0 0 0 0 0 0 
0 0 0 0 0 0 0 0 0 
0 0 0 0 0 0 0 0 0 
0 0 0 0 0 0 0 0 0 
0 0 0 0 0 0 0 0 0 
0 0 0 0 0 0 0 0 0 
0 0 0 0 0 0 0 0 0 
0 0 0 0 0 0 0 0 0 
0 0 0 0 0 0 0 0 0 
0 0 0 0 0 0 0 0 0 
0 0 0 0 0 0 0 0 0 
0 0 0 0 0 0 0 0 0 
0 0 0 0 0 0 0 0 0 
0 0 0 0 0 0 0 0 0 
0 0 0 0 0 0 0 0 0 
0 0 0 0 0 0 0 0 0 
0 0 0 0 0 0 0 0 0 
0 -1 0 0 0 0 0 0 0 
0 0 0 0 0 0 0 0 0 
0 0 0 0 0 0 0 0 0 
0 0 0 0 0 0 0 0 0 
0 0 0 0 0 0 0 0 0 
0 0 0 0 0 0 0 0 0 
0 0 0 0 0 0 0 1 0 
0 0 0 0 0 0 0 0 0 
0 0 0 0 0 0 0 0 0 
0 0 0 0 0 0 0 0 0 
0 0 0 0 0 0 0 0 0 
0 0 0 0 0 0 0 0 0 
0 0 0 0 0 0 0 0 0 
0 0 0 0 0 0 0 0 0 
0 0 0 0 0 0 0 0 0 
0 0 0 0 0 0 0 0 0 
0 0 0 0 0 0 0 0 0 
1 0 0 0 0 0 0 0 0 
0 0 0 0 0 0 0 0 0 
0 0 0 0 0 0 0 0 0 
0 0 0 0 0 0 0 0 0 
0 0 0 0 0 0 0 0 0 
0 0 0 0 0 0 0 0 0 
0 0 0 0 0 0 0 0 0 
0 0 0 0 0 0 0 0 0 
0 0 0 0 0 0 0 0 0 
0 0 0 0 0 0 0 0 0 
0 0 0 0 0 0 0 0 0 
0 0 0 0 0 0 0 0 0 
0 0 0 0 0 0 0 0 0 
0 0 0 0 0 0 0 0 0 
0 0 0 0 0 0 0 0 0 
0 0 0 0 0 0 0 0 0 
0 0 0 0 0 0 0 0 0 
0 0 0 0 0 0 0 0 0 
0 0 0 0 0 0 0 0 0 
0 0 0 0 0 0 0 0 0 
0 0 0 0 0 0 0 0 0 
0 0 0 0 0 0 0 0 0 
0 0 0 0 0 0 0 0 0 
0 0 0 0 0 0 0 0 0 
0 0 0 0 0 0 0 0 0 
0 0 0 0 0 0 0 0 0 
0 0 0 0 0 0 0 0 0 
0 0 0 0 0 0 0 0 0 
0 0 0 0 0 0 0 0 0 
0 0 0 0 0 0 0 0 0 
0 0 0 0 0 0 0 0 0 
0 0 0 0 0 0 0 0 0 
0 0 0 0 0 0 0 0 0 
0 0 0 0 0 0 0 0 0 
0 0 0 0 0 0 0 0 0 
0 0 0 0 0 0 0 0 0 
0 0 0 0 0 0 0 -1 0 
0 0 0 0 0 0 0 0 0 
0 0 0 0 0 0 0 0 0 
0 0 0 0 0 0 0 0 0 
0 0 0 0 0 0 0 0 0 
0 0 0 0 0 0 0 0 0 
0 0 0 0 0 0 0 0 0 
0 0 0 0 -1 0 0 0 0 
0 0 0 0 0 0 0 0 0 
0 0 0 0 0 0 0 0 0 
0 -1 0 0 0 0 0 0 0 
0 0 0 0 0 0 0 0 0 
0 0 0 0 1 0 0 0 0 
0 0 0 0 0 0 0 0 0 
0 1 0 0 1 0 0 0 0 
0 0 0 0 0 0 0 1 0 
0 0 0 0 0 0 0 0 0 
0 0 0 0 0 0 0 0 0 
0 0 0 0 0 0 0 0 0 
0 0 0 0 0 0 0 0 0 
0 0 0 0 0 0 0 0 0 
0 0 0 0 0 0 0 0 0 
0 0 0 0 0 0 0 0 0 
0 0 0 0 0 0 0 0 0 
0 0 0 0 0 0 0 0 0 
0 0 0 0 0 0 0 0 0 
0 0 0 0 0 0 0 0 0 
0 0 0 0 0 0 0 0 0 
0 0 0 0 0 0 0 0 0 
0 0 0 0 0 0 0 0 0 
0 0 0 0 0 0 0 0 0 
0 0 0 0 0 0 0 0 0 
0 0 0 0 0 0 0 0 0 
0 0 0 0 0 0 0 0 0 
0 0 0 0 0 0 0 0 0 
0 0 0 0 0 0 0 0 0 
0 0 0 0 0 0 0 0 0 
0 0 0 0 0 0 0 0 0 
0 0 0 0 0 0 0 0 0 
0 0 0 0 0 0 0 0 0 
0 0 0 0 0 0 0 0 0 
0 0 0 0 0 0 0 0 0 
0 0 0 0 0 0 0 0 0 
0 0 0 0 0 0 0 0 0 
0 0 0 0 0 0 0 0 0 
0 0 0 0 0 0 0 0 0 
0 0 0 0 0 0 0 0 0 
0 0 0 0 0 0 0 0 0 
0 0 0 0 0 0 0 0 0 
0 0 0 0 0 0 0 0 0 
1 0 0 0 0 0 0 0 0 
0 0 0 0 0 0 0 0 0 
0 0 0 0 0 0 0 0 0 
0 0 0 0 0 0 0 0 0 
1 0 0 0 0 0 0 0 0 
0 0 0 0 0 0 0 0 0 
0 0 0 0 0 0 0 0 0 
0 0 0 0 0 0 0 0 0 
0 0 0 0 0 0 0 0 0 
0 0 0 0 0 0 0 0 0 
0 0 0 0 0 0 0 0 0 
0 0 0 0 0 0 0 0 0 
0 0 0 0 0 0 0 0 0 
0 0 0 0 0 0 0 0 0 
0 0 0 0 0 0 0 0 0 
0 0 0 0 0 0 0 0 0 
0 0 0 0 0 0 -1 0 0 
0 0 0 0 0 0 0 0 0 
0 0 0 0 0 0 0 1 0 
0 1 0 0 0 0 0 0 0 
0 1 0 0 1 0 0 0 0 
0 0 0 0 0 0 0 0 0 
0 1 0 0 0 0 0 0 0 
0 0 0 0 0 0 0 0 0 
0 0 0 0 0 0 0 0 0 
0 0 0 0 0 0 0 0 0 
0 0 0 0 0 0 0 0 0 
0 0 0 0 0 0 0 0 0 
0 0 0 0 0 0 0 0 0 
0 0 0 0 0 0 0 0 0 
0 0 0 0 0 0 1 0 0 
0 0 0 0 0 0 0 0 0 
0 0 0 0 0 0 0 0 0 
0 0 0 0 0 0 0 0 0 
0 0 0 0 0 0 1 0 0 
0 0 0 0 0 0 0 0 0 
0 0 0 0 0 0 0 0 0 
0 0 0 0 0 0 0 0 0 
0 0 0 0 0 0 0 0 0 
0 0 0 0 0 0 0 0 0 
0 0 0 0 0 0 0 0 0 
0 0 0 0 0 0 0 0 0 
0 0 0 0 0 0 0 0 0 
0 0 0 0 0 0 0 0 0 
0 0 0 0 0 0 0 0 0 
0 0 0 0 0 0 0 0 0 
0 0 0 0 0 0 0 0 0 
0 0 0 0 0 0 0 0 0 
0 0 0 0 0 0 0 0 0 
0 0 0 0 0 0 0 0 0 
0 0 0 0 0 0 0 0 0 
0 0 0 -1 0 0 0 0 0 
0 0 0 0 0 0 0 0 0 
0 0 0 0 0 0 0 0 0 
0 0 0 0 0 0 0 0 0 
0 0 0 0 0 0 0 0 0 
0 0 0 0 0 0 0 0 0 
0 0 0 0 0 0 0 0 0 
0 0 0 0 0 0 0 0 0 
0 0 0 0 0 0 0 0 0 