# vtk DataFile Version 4.0
Generated by LIGGGHTS
ASCII
DATASET POLYDATA
POINTS 2000 float
-88.4423 -87.5041 9.99051 -95.61 -116.543 9.99973 -107.187 -132.867 9.9997 
-117.491 -115.106 9.99099 -88.042 -138.674 10.1246 -133.159 -132.633 9.99517 
-125.623 -87.9683 9.98678 -105.144 -98.6401 9.99861 -120.475 -128.869 24.9863 
-110.082 -112.117 28.3137 -132.553 -112.9 22.9572 -117.075 -93.4245 27.2062 
-56.9999 -99.4536 9.97054 -30.2834 -129.684 10.0011 -74.7643 -108.739 9.98804 
-66.322 -133.066 10.006 -80.2262 -124.175 21.5007 -39.1212 -98.134 18.9518 
-59.3898 -116.611 20.0418 -48.1152 -133.03 18.4098 0.805166 -105.066 10.0009 
-1.18997 -135.488 9.99976 22.6519 -100.505 10.0414 -20.5859 -98.5381 9.99973 
14.7522 -121.706 9.9978 -13.1138 -119.426 9.99993 8.24817 -130.056 26.9647 
24.8146 -87.1029 29.3405 6.39158 -90.2558 22.2226 21.0243 -114.852 32.3344 
36.689 -104.037 23.8336 51.7419 -129.328 9.99973 70.4362 -92.5927 9.99973 
34.4574 -118.3 9.99714 65.4363 -113.163 9.99973 26.8484 -136.396 18.3749 
78.75 -135.381 9.97969 50.6507 -89.3044 10.0054 140.141 -95.4958 18.9108 
117.711 -126.73 10.0039 130.952 -110.864 10.0036 105.783 -94.2497 9.99591 
89.6465 -114.025 9.9997 98.6625 -131.374 14.209 120.959 -91.1591 22.7299 
89.2826 -85.6694 17.349 133.813 -126.704 21.916 113.703 -109.603 20.0642 
91.7186 -98.2337 32.7158 -96.7827 -33.888 19.5021 -113.641 -71.7338 10.2577 
-126.337 -51.3781 9.99156 -114.334 -35.3866 9.96961 -93.5855 -67.0916 10.0008 
-107.194 -53.4802 15.4414 -101.294 -80.3151 23.5228 -133.688 -63.8789 23.7643 
-135.444 -43.2299 25.8128 -116.577 -37.8698 29.6489 -90.1443 -48.5397 31.3946 
-85.4565 -47.3593 9.99941 -142.187 -32.9693 10.0243 -137.96 -81.2197 32.8043 
-32.3803 -73.6701 10.0072 -29.8659 -52.2998 10.0081 -50.379 -81.1267 14.6997 
-62.4628 -65.7187 9.99974 -78.2783 -61.8707 21.7713 -57.1222 -34.256 25.8246 
-38.2362 -79.9653 30.5933 -25.5243 -64.1914 26.6651 13.9327 -54.8539 10.0002 
-4.16401 -46.309 10.0858 4.16411 -72.9866 9.99973 22.7339 -80.5051 9.99985 
-25.7677 -32.721 10.2616 -14.256 -65.1429 9.99976 -13.8921 -40.5701 26.6252 
-8.36029 -75.5599 26.0314 23.283 -63.6483 25.3472 18.8083 -28.7028 33.8506 
40.5522 -71.3858 9.99961 53.3151 -51.2469 10.0138 70.3278 -61.7978 10.0381 
33.3627 -49.7836 9.99969 67.9202 -41.1037 20.5606 42.704 -58.952 26.2213 
44.4556 -83.5133 28.1301 60.379 -68.3111 26.1496 84.6655 -44.7914 10.004 
89.7813 -67.0835 9.98537 131.441 -79.846 10.0001 115.735 -55.1112 10.0962 
112.178 -75.3485 13.4988 112.99 -35.2823 10.2852 135.697 -56.547 10.0138 
126.319 -38.4717 24.8954 128.902 -69.5364 26.9539 -119.025 9.40455 9.99885 
-101.141 -7.62084 10.0793 -118.264 -18.2947 19.7078 -126.284 -0.916993 25.5139 
-107.402 26.0436 10.0045 -106.246 -5.06147 29.2955 -90.8719 -18.4099 30.7076 
-111.177 15.4561 27.6977 -84.4812 -18.9132 9.99973 -47.1753 0.366817 9.99988 
-33.1359 -14.1241 9.99992 -76.3143 12.9321 24.9951 -35.9415 16.0137 27.0611 
-41.3114 -3.17678 28.808 -38.0716 26.3106 9.99913 -6.73584 -26.4216 10.0098 
-25.2354 8.69687 9.99882 -13.446 -7.46297 9.99973 26.7011 -3.15154 10.0492 
-1.63542 -1.58118 25.3927 4.32118 9.70724 9.99825 20.4352 5.93729 26.817 
24.1256 19.9466 9.99969 59.9256 -26.1189 9.99966 41.0391 9.53826 16.2955 
79.295 -14.1695 10.0093 83.3966 13.1816 26.3001 58.0032 0.999564 9.99972 
65.4302 19.6804 9.99971 35.9015 25.4815 28.2655 58.5578 20.5815 33.8255 
94.6597 -27.2075 10.0042 140.661 2.29515 9.99966 140.789 -13.8741 21.9953 
93.9608 17.9851 10.0114 95.1534 -1.98092 10.0002 138.291 22.1851 10.0007 
121.308 -18.7118 21.8722 115.064 -3.87619 10.0014 101.618 -14.7215 24.004 
116.936 28.6357 10.0121 -88.0449 70.9746 9.99998 -114.794 86.6826 9.9997 
-112.005 58.489 10.0965 -126.329 36.5361 10.0707 -85.3901 45.9211 9.99986 
-137.565 78.4625 30.5054 -140.021 35.0376 24.9941 -129.419 55.7887 19.5725 
-100.316 40.5553 22.2459 -118.848 35.2213 28.6606 -134.026 81.0253 9.99973 
-33.2084 69.1901 24.9887 -67.0813 60.652 9.99983 -51.1595 43.1611 9.99574 
-61.9691 49.264 25.6755 -73.4185 73.5356 24.2554 -81.6263 49.3443 29.3422 
22.6787 77.5379 10.0002 -0.69561 61.0247 9.99973 -22.8368 39.2655 9.99643 
12.4635 67.7245 24.1311 21.2262 56.6224 9.99664 2.64819 35.434 33.6713 
-4.05116 81.9332 9.99871 29.0509 59.4273 31.6481 34.6239 36.9583 10.6137 
58.9919 44.057 9.99642 85.4545 36.073 10.7112 59.9967 64.3559 10.721 
42.3078 73.6616 9.99985 76.2711 53.4055 14.6189 71.3291 32.8072 24.4835 
51.544 38.2473 27.6206 42.1454 54.5836 16.3381 79.2383 72.6385 9.99834 
67.0047 55.5509 32.3692 119.57 57.2998 9.99993 104.51 70.4618 10.0011 
103.849 43.885 9.99795 136.973 47.3217 10.0245 95.8678 57.1857 22.782 
117.829 43.3994 24.3064 92.5807 78.7132 23.8169 113.325 68.0424 27.791 
130.39 72.2579 17.6959 87.0928 41.9393 32.7344 -115.476 118.494 24.9951 
-73.6515 139.174 25.8773 -76.439 87.2629 10.0272 -54.807 92.5911 9.99973 
-27.9291 117.13 10.0327 -47.2838 112.061 10.0005 -75.8707 107.254 9.99874 
-76.0333 127.251 9.99981 -53.4138 131.15 9.99973 -29.8946 104.403 25.3918 
-34.4988 134.36 17.7411 15.5544 129.427 10.0327 -12.7752 130.192 10.0002 
-2.12367 108.942 10.1083 10.5775 87.606 22.3978 17.3764 108.748 14.9474 
1.38222 131.657 24.0611 -14.1727 116.757 24.7919 27.4297 96.2517 28.8161 
20.8497 127.998 29.2827 -10.4303 96.1952 23.2558 4.75332 112.812 29.9184 
-17.1307 141.195 26.2968 34.3804 93.8607 10.0113 62.8501 134.481 10.0013 
35.5692 115.421 9.9996 55.9136 114.928 9.97458 41.8382 135.27 9.99982 
81.4578 121.559 9.99959 69.8033 124.639 25.9677 49.9389 126.947 26.2819 
61.5281 90.806 34.6653 35.4767 114.307 31.8731 124.822 89.8618 10.0208 
87.2017 100.733 9.99973 115.96 107.837 9.97672 138.083 132.502 9.99973 
111.795 136.128 9.99952 104.621 90.612 10.4393 135.66 111.55 10.0056 
100.796 120.16 14.904 123.459 123.592 20.3466 140.048 95.855 21.6128 
89.0818 122.71 30.9283 -138.307 -100.566 37.9303 -106.875 -132.645 39.1536 
-92.902 -118.657 36.1668 -133.262 -124.142 39.613 -116.4 -117.451 48.1136 
-91.5502 -123.633 55.8537 -117.135 -83.8796 60.8616 -87.7043 -138.497 74.0966 
-109.042 -122.662 66.0501 -131.907 -128.131 59.1843 -136.815 -111.863 71.711 
-110.717 -132.377 83.4706 -129.787 -135.382 77.7091 -92.073 -117.616 75.3747 
-81.1685 -133.743 42.0292 -71.7751 -91.1098 40.5443 -50.6047 -119.031 38.3487 
-45.3046 -100.477 61.4422 -75.1899 -116.27 64.7135 -61.073 -87.2357 73.8307 
-64.9443 -138.28 52.8008 -56.2289 -119.347 59.1142 -42.0506 -132.127 53.1109 
-34.7249 -112.189 73.7556 -58.4627 -108.151 75.7012 -67.1945 -134.398 72.289 
-56.0158 -140.76 35.0774 -34.6942 -138.977 35.8038 -50.0101 -125.613 83.3655 
-31.7119 -131.805 71.1929 -16.741 -109.784 43.4835 16.4568 -98.6989 43.3438 
5.26684 -137.143 45.4269 18.5133 -124.299 53.2762 7.04469 -116.485 69.077 
-5.32916 -136.873 63.8768 -8.21159 -92.4589 72.9033 6.54416 -85.261 54.4097 
24.751 -136.957 39.0604 10.6287 -92.3996 79.606 -14.9607 -122.063 76.2391 
27.1802 -90.722 64.7635 5.44645 -138.314 80.7827 22.0115 -108.853 80.0738 
23.2847 -128.682 82.567 30.7795 -109.103 57.6694 72.3329 -125.596 42.9414 
39.5713 -122.583 30.883 38.1952 -127.507 50.6482 54.9729 -118.957 72.6214 
43.4527 -105.831 42.5639 75.7573 -120.427 77.3552 36.0826 -135.692 68.8205 
40.8275 -104.932 74.4698 62.7078 -134.914 82.3298 100.776 -117.448 61.6396 
109.135 -90.3104 38.8343 131.695 -135.704 39.7349 106.185 -119.573 35.6824 
118.826 -114.968 53.3913 127.623 -112.472 34.7132 111.955 -133.9 48.3839 
126.702 -97.0104 48.1436 98.7146 -138.58 62.6226 93.2612 -87.342 50.6461 
138.715 -112.96 52.8189 108.324 -99.0358 59.6396 87.318 -101.471 63.5433 
116.486 -131.09 67.9462 125.664 -103.671 69.4293 94.6899 -126.774 78.2585 
131.273 -124.581 79.7861 96.5972 -89.0093 76.193 -118.981 -57.2905 35.7083 
-98.7078 -65.7222 37.0139 -134.263 -51.5899 51.3937 -87.2299 -65.7095 59.5704 
-105.09 -35.3878 62.5827 -133.969 -54.0703 76.62 -96.1505 -64.6226 81.4291 
-80.2165 -78.8108 73.0145 -31.1379 -36.3679 49.193 -77.5163 -56.0902 44.9416 
-64.4803 -46.4476 57.7828 -66.3755 -65.4464 63.6847 -53.4176 -40.7549 73.9557 
-79.1886 -55.7961 75.5915 -62.6879 -69.7385 83.6793 -31.4985 -67.37 65.6099 
-70.508 -38.8016 84.201 -34.2649 -35.2757 79.4958 26.7236 -79.6799 47.8554 
9.78759 -75.0341 34.74 -2.69681 -64.1907 45.9846 -10.1421 -45.6302 45.6037 
17.405 -58.3958 74.0611 -8.73978 -36.9467 63.5757 53.0974 -45.3754 36.6044 
42.3167 -36.9426 58.7412 60.0461 -79.9437 59.2745 66.2858 -46.3209 51.775 
77.9527 -48.2584 68.7977 56.9473 -46.5079 69.4715 69.2217 -30.5629 72.038 
48.6671 -28.7695 75.8884 71.4162 -43.7393 87.1775 98.7496 -53.9152 41.1308 
137.893 -31.647 39.7385 116.017 -81.0328 55.1574 133.516 -53.0706 37.3208 
134.936 -70.4401 47.1407 87.8598 -29.2743 63.4731 105.812 -72.3723 70.0137 
131.03 -77.5782 67.9988 87.7156 -65.6768 75.2665 126.689 -60.2078 77.5292 
119.146 -77.4947 84.1906 -126.524 -22.3838 37.4637 -130.934 17.5893 31.6048 
-96.1434 -1.00581 50.2458 -134.158 -4.93256 43.5542 -110.372 25.208 46.2694 
-117.517 6.42263 44.3855 -112.256 -1.13246 62.1423 -104.432 25.9817 69.9322 
-91.6768 22.8958 54.8315 -136.593 1.82397 62.2186 -112.239 9.88144 78.9001 
-131.032 15.8136 75.3845 -94.3016 -9.88985 83.9884 -78.2968 -14.9039 46.1144 
-44.9964 16.7597 44.9129 -68.9264 0.107159 56.7134 -60.2246 18.0334 58.3415 
-52.2486 0.818467 67.8687 -53.3072 -11.5178 52.1599 -45.4732 -27.8772 60.6103 
-40.281 9.78053 81.1941 -88.2371 6.1023 67.8993 -71.0851 -27.6656 59.7115 
-59.9979 -18.7996 73.7898 -70.5346 12.4425 75.6314 -41.2447 -15.7391 80.0171 
-75.5096 -6.81199 77.7924 -18.917 -4.05947 55.725 15.3083 -8.53236 62.2382 
15.938 8.06561 51.101 24.7395 22.8371 71.8837 6.08424 -24.7886 69.3368 
26.3671 2.2602 74.9351 -8.77536 19.3588 81.0053 -4.77479 -10.2621 87.1416 
8.6398 10.8631 71.3315 26.3599 -23.7149 78.5234 -17.2053 -25.523 83.3285 
30.2246 24.1851 52.4561 33.8456 3.32337 41.704 65.6091 -12.6595 42.1887 
34.5135 -14.132 61.7372 83.3277 17.3073 46.0163 42.5811 7.22603 63.9686 
73.6199 5.07262 71.2943 50.0039 -8.84716 73.2813 51.8667 8.47454 83.4334 
[...]
POINT_DATA 2000
FIELD FieldData 7
id 1 2000 int
41 77 196 230 301 308 411 107 205 
282 106 55 53 85 259 296 439 157 
275 424 185 265 297 299 410 440 172 
95 351 336 49 33 300 376 408 437 
344 397 380 59 139 141 164 29 30 
201 379 335 434 36 142 338 414 456 
32 161 261 453 80 276 171 114 381 
112 143 231 246 215 10 273 211 115 
208 232 365 225 48 243 45 167 11 
113 174 222 318 108 354 149 285 200 
117 252 262 286 314 395 334 274 239 
342 66 147 238 255 443 309 413 50 
345 20 46 220 187 212 69 37 122 
358 390 416 347 359 123 197 256 264 
430 315 204 135 346 298 54 97 178 
213 271 404 330 84 138 199 320 362 
400 99 234 450 152 444 8 279 321 
250 384 378 195 240 399 186 111 12 
169 133 131 132 253 389 419 449 229 
369 375 102 72 34 154 221 266 173 
352 366 58 329 206 6 328 184 224 
88 168 179 311 455 295 385 62 302 
339 79 83 218 426 127 128 294 433 
78 341 110 227 396 421 429 251 242 
18 423 96 160 209 288 367 370 452 
116 198 284 203 244 343 438 442 166 
304 5 361 401 448 1864 1820 852 1025 
223 9 71 82 130 350 292 119 409 
290 383 1191 371 40 1007 1904 2 241 
355 156 64 76 210 293 263 1855 1873 
364 1584 1941 1011 418 22 216 144 165 
382 323 332 42 1715 137 47 51 283 
125 394 445 81 155 249 272 436 74 
1428 1281 1934 720 1920 245 425 331 388 
26 307 552 319 422 65 163 191 236 
1719 1793 23 1676 1730 39 75 417 281 
28 226 317 392 14 44 189 306 104 
118 931 25 183 86 313 398 386 180 
188 1317 1870 1643 405 278 43 412 129 
322 761 1508 303 326 764 1565 1819 151 
162 68 158 214 257 415 121 176 368 
175 427 353 1211 4 217 357 202 402 
268 94 190 349 120 1159 260 219 7 
100 153 333 432 457 70 63 291 15 
277 19 441 581 1015 1407 3 254 57 
228 393 145 177 420 1046 1600 1399 909 
1 270 387 109 170 181 140 312 324 
91 93 372 61 67 207 267 60 316 
73 87 1652 193 590 280 373 235 374 
16 194 310 148 431 789 1080 377 103 
233 337 35 258 356 24 159 182 435 
340 1430 1367 105 360 403 237 287 363 
92 348 21 1685 1398 1517 1852 27 428 
391 56 98 1807 1893 90 1087 1283 407 
289 446 101 192 13 124 1869 1400 923 
1589 269 146 136 305 52 150 325 1883 
1995 771 817 1501 406 38 126 17 31 
247 447 134 248 967 1140 1618 1447 1285 
1551 1922 480 1068 1694 1542 1293 1726 1249 
1878 1716 1938 1195 1749 903 1890 484 1382 
541 1173 1838 1999 668 1170 1331 1534 1982 
1845 520 1811 1945 327 952 1262 856 700 
1308 1665 1712 1854 1337 553 1450 1687 997 
651 548 1537 1781 654 1128 1988 1409 462 
1105 1189 1728 1994 1757 1051 1474 599 642 
661 911 914 1147 1149 1459 1649 866 1220 
974 486 1527 1840 1366 89 1603 1953 540 
1206 1275 1683 1488 489 1050 854 878 995 
1045 1171 1678 739 1077 1155 1520 1866 658 
1143 833 889 1799 864 874 1540 757 793 
1284 1894 1421 533 1725 985 1566 570 746 
1861 602 652 1365 1001 644 1225 1234 1415 
752 1673 779 622 1389 1656 1767 806 1167 
495 1729 454 1480 839 1112 1442 1908 842 
861 1013 1419 1034 1177 1628 1677 532 1956 
1460 754 1063 1031 1696 1163 1404 1023 1066 
712 1718 451 583 466 709 1340 1831 1271 
1745 1401 1391 1572 1602 1406 1444 1951 594 
960 1385 1417 1912 970 1579 1675 888 1119 
1124 1102 474 1975 580 1468 1499 1947 506 
1769 1533 1929 1194 1959 608 1200 1570 1362 
1529 1452 470 597 1679 853 566 674 701 
949 1720 1743 965 975 1803 1815 1884 841 
656 1416 564 1082 1706 1490 1773 1836 492 
1647 1865 741 1424 1606 660 729 1761 962 
968 1960 624 1470 673 1241 784 954 518 
1771 814 1131 1903 1017 1176 513 671 1021 
907 948 1071 1258 1601 1889 936 964 1433 
1896 469 951 1268 1591 1634 1156 838 562 
1842 621 775 1892 1561 1037 1054 1684 1178 
479 630 753 1829 946 728 573 845 1427 
461 475 1098 876 1734 718 1252 1342 1539 
1543 1117 810 1916 887 1827 1578 459 1324 
565 915 1552 626 875 906 1130 1586 675 
1209 1962 781 640 1203 1213 1120 969 1229 
1813 1978 862 1373 1874 1582 666 912 1042 
938 723 850 987 1328 521 1738 1093 539 
1099 1129 1465 1736 807 1756 530 1190 1496 
1850 722 1018 1332 1772 1554 1563 1881 1208 
698 799 1144 487 1343 493 471 1287 1495 
865 1309 1917 1369 788 1937 464 574 498 
809 894 935 1453 1341 1270 1558 1935 528 
1036 1475 643 1412 1834 1595 745 961 1334 
1414 901 1197 1333 628 1928 1074 919 1126 
1172 798 1653 1040 467 1481 892 1791 538 
953 1214 837 1261 1304 1620 1682 934 1052 
1108 1458 1577 713 1056 1740 1608 503 664 
1910 1326 966 1441 1638 1858 473 1477 1636 
1825 803 925 1355 1822 805 893 848 1931 
1891 1267 535 1438 531 1768 1708 559 1204 
1219 537 1201 1979 1911 1153 1525 1626 588 
1919 991 1216 749 981 1422 1503 1291 1965 
488 1231 1548 832 1461 1830 1125 1545 1844 
508 1053 1104 2000 1610 522 1667 1263 1359 
1387 696 990 1344 687 1058 1169 1662 944 
984 1633 801 1383 1483 1118 1614 835 1089 
1752 670 1462 1576 1980 1361 1487 1094 1059 
1121 1223 751 667 769 1205 1473 972 1661 
1352 1663 1974 496 736 1823 1254 1932 1187 
483 1088 886 1084 1100 1446 1930 1936 618 
686 730 1166 1222 758 1004 1491 1835 526 
1616 1622 1674 922 1564 1796 1966 515 1135 
896 740 1532 1550 476 589 611 616 871 
1300 916 1573 1632 1788 1805 725 770 902 
986 1507 1076 1467 632 1397 1707 523 1445 
1711 1569 1048 1062 1282 1494 575 994 1064 
1070 1269 1504 1318 569 682 1049 1524 1770 
645 1092 1701 1863 1114 895 1312 1948 732 
777 1575 1923 511 1925 904 1371 1613 1775 
1859 1887 623 705 1264 1466 1846 1918 600 
1073 999 1138 1619 1184 733 759 1255 1784 
1849 1303 797 1109 1134 1789 1963 525 1175 
1250 557 1146 1732 1722 472 1856 1041 1944 
1809 790 1043 1615 1798 1764 502 942 1952 
491 1879 1313 1418 1500 1957 1992 1226 604 
646 710 1629 800 825 1420 1939 1505 478 
1354 1702 1837 1360 697 1024 1029 1165 1760 
1964 551 1804 992 1596 1670 1906 1983 1440 
1055 820 1379 1514 545 920 1735 1101 1780 
1814 708 818 959 1245 1664 1060 595 1650 
1724 1991 1181 794 1585 1754 1790 685 1235 
1251 1350 529 831 1547 1828 1853 1860 1069 
1434 509 1090 822 1672 1026 1246 1598 763 
1067 1030 1377 1695 601 692 1122 1289 1469 
614 679 681 1061 1512 1604 742 755 868 
796 867 908 1210 1277 1832 1368 774 917 
1546 1297 1511 1623 1833 1035 510 1699 1877 
1457 1705 1310 780 830 918 1568 910 743 
870 1116 688 1150 482 607 765 1778 1425 
924 1493 1857 613 695 993 1151 1174 1348 
1559 1940 750 819 1305 1841 1783 1106 760 
1142 1556 631 1502 1530 1594 1976 885 1039 
1742 881 1969 929 1448 802 1192 1228 1247 
1276 1972 534 738 1808 1867 627 641 1336 
1704 549 572 1136 1429 655 699 998 1640 
1700 1072 1574 561 1078 1306 1549 1196 1641 
1741 1967 1358 463 1455 1897 567 1260 1356 
1818 1942 648 1290 1370 1810 647 1375 1432 
1737 1590 547 1376 592 928 1095 1408 1611 
1871 1961 678 524 715 1168 1509 988 1047 
1489 1949 1022 1162 1492 1666 1295 1006 1242 
1557 1160 1571 1905 1607 499 787 1009 1237 
1321 1357 1839 596 719 811 1660 1802 1993 
747 1005 1302 603 519 1139 1482 514 1256 
689 1973 586 1152 1439 516 815 855 649 
693 1107 1113 1476 1668 869 1327 485 1763 
620 571 650 1454 1901 500 1161 1538 1880 
468 1394 1316 1739 1792 680 791 717 821 
1423 1179 1513 703 1431 955 826 1392 1515 
1915 1617 945 971 1232 1876 1133 1516 829 
1273 1522 1642 1968 546 1065 1363 1958 891 
1307 1320 1426 1703 1776 558 1224 1396 1744 
1746 1977 477 836 1593 677 1581 1755 1882 
978 1010 612 744 827 1000 1580 1083 1555 
1758 1926 795 657 579 1353 1812 1821 1198 
1646 1826 1921 563 578 1541 762 1240 1311 
863 1338 1801 690 767 1148 1185 1762 1885 
517 1028 973 1137 1868 1914 1899 1079 1386 
711 731 1182 1230 860 1378 1627 1759 1091 
847 858 950 737 941 977 1288 1782 481 
958 1851 625 785 1132 1692 1787 899 1274 
1875 1996 577 1012 505 873 1374 1472 1886 
1597 1686 1721 1008 1014 1236 1464 1637 653 
1239 1651 1723 1955 637 812 1544 1862 634 
704 560 857 927 976 1278 1795 926 1322 
1800 591 576 1645 1221 1521 1592 542 1141 
1212 1411 1847 584 662 846 1215 1691 804 
937 1158 1671 663 772 1057 1325 1587 497 
843 1164 890 1032 1680 1697 1777 702 773 
1299 1635 1621 672 1690 963 1279 1436 1588 
568 1372 1085 605 1347 1817 1451 905 1301 
1927 507 1486 1345 766 816 1727 1747 1111 
556 669 716 879 1388 504 900 1449 756 
947 1751 1907 1127 587 980 1207 665 1298 
1933 1990 512 834 1086 1405 1689 1693 1027 
1097 734 748 1753 544 1188 939 1038 1314 
1485 1987 638 768 1019 1218 1351 1599 1766 
776 1888 1989 619 982 1413 610 1471 1797 
851 694 824 1123 1286 1478 1510 617 943 
1456 1748 1848 458 1985 1096 635 1688 1779 
956 1390 1339 1681 1943 606 783 996 490 
1954 683 957 1403 1463 1609 1280 593 1713 
1567 598 1257 1519 615 554 555 921 1016 
1669 1909 1717 1639 1624 1381 1075 813 724 
1330 1193 1265 1292 1733 1843 1410 1157 706 
989 1997 1971 1498 527 1714 897 1272 1393 
1950 1816 1402 1315 1081 636 543 1984 1655 
1562 1296 714 659 1946 1329 1227 1335 1786 
1443 1115 840 501 1583 1654 1658 1648 1484 
1346 930 1553 1349 1898 1380 1233 707 1238 
849 884 1044 1186 859 585 1709 1526 1103 
882 1794 1630 1266 940 933 1531 1998 1731 
1605 1180 1145 808 582 1970 877 844 778 
609 983 786 1020 1323 1981 536 1003 1110 
1497 1364 1002 1437 1644 1698 1243 880 1319 
1528 1560 1657 932 1384 1785 1259 639 465 
1824 691 1248 1518 1631 792 913 721 494 
898 1479 1612 1872 1895 735 726 1183 1294 
1435 1710 1506 1924 823 883 1625 1659 633 
1154 1253 1913 872 1202 1217 1535 1536 1765 
1806 1395 782 1244 1902 460 684 979 1750 
1199 629 727 550 1986 676 1774 1900 828 
1033 1523 
type 1 2000 int
1 1 1 1 1 1 1 1 1 
1 1 1 1 1 1 1 1 1 
1 1 1 1 1 1 1 1 1 
1 1 1 1 1 1 1 1 1 
1 1 1 1 1 1 1 1 1 
1 1 1 1 1 1 1 1 1 
1 1 1 1 1 1 1 1 1 
1 1 1 1 1 1 1 1 1 
1 1 1 1 1 1 1 1 1 
1 1 1 1 1 1 1 1 1 
1 1 1 1 1 1 1 1 1 
1 1 1 1 1 1 1 1 1 
1 1 1 1 1 1 1 1 1 
1 1 1 1 1 1 1 1 1 
1 1 1 1 1 1 1 1 1 
1 1 1 1 1 1 1 1 1 
1 1 1 1 1 1 1 1 1 
1 1 1 1 1 1 1 1 1 
1 1 1 1 1 1 1 1 1 
1 1 1 1 1 1 1 1 1 
1 1 1 1 1 1 1 1 1 
1 1 1 1 1 1 1 1 1 
1 1 1 1 1 1 1 1 1 
1 1 1 1 1 1 1 1 1 
1 1 1 1 1 1 1 1 1 
1 1 1 1 1 1 1 1 1 
1 1 1 1 1 1 1 1 1 
1 1 1 1 1 1 1 1 1 
1 1 1 1 1 1 1 1 1 
1 1 1 1 1 1 1 1 1 
1 1 1 1 1 1 1 1 1 
1 1 1 1 1 1 1 1 1 
1 1 1 1 1 1 1 1 1 
1 1 1 1 1 1 1 1 1 
1 1 1 1 1 1 1 1 1 
1 1 1 1 1 1 1 1 1 
1 1 1 1 1 1 1 1 1 
1 1 1 1 1 1 1 1 1 
1 1 1 1 1 1 1 1 1 
1 1 1 1 1 1 1 1 1 
1 1 1 1 1 1 1 1 1 
1 1 1 1 1 1 1 1 1 
1 1 1 1 1 1 1 1 1 
1 1 1 1 1 1 1 1 1 
1 1 1 1 1 1 1 1 1 
1 1 1 1 1 1 1 1 1 
1 1 1 1 1 1 1 1 1 
1 1 1 1 1 1 1 1 1 
1 1 1 1 1 1 1 1 1 
1 1 1 1 1 1 1 1 1 
1 1 1 1 1 1 1 1 1 
1 1 1 1 1 1 1 1 1 
1 1 1 1 1 1 1 1 1 
1 1 1 1 1 1 1 1 1 
1 1 1 1 1 1 1 1 1 
1 1 1 1 1 1 1 1 1 
1 1 1 1 1 1 1 1 1 
1 1 1 1 1 1 1 1 1 
1 1 1 1 1 1 1 1 1 
1 1 1 1 1 1 1 1 1 
1 1 1 1 1 1 1 1 1 
1 1 1 1 1 1 1 1 1 
1 1 1 1 1 1 1 1 1 
1 1 1 1 1 1 1 1 1 
1 1 1 1 1 1 1 1 1 
1 1 1 1 1 1 1 1 1 
1 1 1 1 1 1 1 1 1 
1 1 1 1 1 1 1 1 1 
1 1 1 1 1 1 1 1 1 
1 1 1 1 1 1 1 1 1 
1 1 1 1 1 1 1 1 1 
1 1 1 1 1 1 1 1 1 
1 1 1 1 1 1 1 1 1 
1 1 1 1 1 1 1 1 1 
1 1 1 1 1 1 1 1 1 
1 1 1 1 1 1 1 1 1 
1 1 1 1 1 1 1 1 1 
1 1 1 1 1 1 1 1 1 
1 1 1 1 1 1 1 1 1 
1 1 1 1 1 1 1 1 1 
1 1 1 1 1 1 1 1 1 
1 1 1 1 1 1 1 1 1 
1 1 1 1 1 1 1 1 1 
1 1 1 1 1 1 1 1 1 
1 1 1 1 1 1 1 1 1 
1 1 1 1 1 1 1 1 1 
1 1 1 1 1 1 1 1 1 
1 1 1 1 1 1 1 1 1 
1 1 1 1 1 1 1 1 1 
1 1 1 1 1 1 1 1 1 
1 1 1 1 1 1 1 1 1 
1 1 1 1 1 1 1 1 1 
1 1 1 1 1 1 1 1 1 
1 1 1 1 1 1 1 1 1 
1 1 1 1 1 1 1 1 1 
1 1 1 1 1 1 1 1 1 
1 1 1 1 1 1 1 1 1 
1 1 1 1 1 1 1 1 1 
1 1 1 1 1 1 1 1 1 
1 1 1 1 1 1 1 1 1 
1 1 1 1 1 1 1 1 1 
1 1 1 1 1 1 1 1 1 
1 1 1 1 1 1 1 1 1 
1 1 1 1 1 1 1 1 1 
1 1 1 1 1 1 1 1 1 
1 1 1 1 1 1 1 1 1 
1 1 1 1 1 1 1 1 1 
1 1 1 1 1 1 1 1 1 
1 1 1 1 1 1 1 1 1 
1 1 1 1 1 1 1 1 1 
1 1 1 1 1 1 1 1 1 
1 1 1 1 1 1 1 1 1 
1 1 1 1 1 1 1 1 1 
1 1 1 1 1 1 1 1 1 
1 1 1 1 1 1 1 1 1 
1 1 1 1 1 1 1 1 1 
1 1 1 1 1 1 1 1 1 
1 1 1 1 1 1 1 1 1 
1 1 1 1 1 1 1 1 1 
1 1 1 1 1 1 1 1 1 
1 1 1 1 1 1 1 1 1 
1 1 1 1 1 1 1 1 1 
1 1 1 1 1 1 1 1 1 
1 1 1 1 1 1 1 1 1 
1 1 1 1 1 1 1 1 1 
1 1 1 1 1 1 1 1 1 
1 1 1 1 1 1 1 1 1 
1 1 1 1 1 1 1 1 1 
1 1 1 1 1 1 1 1 1 
1 1 1 1 1 1 1 1 1 
1 1 1 1 1 1 1 1 1 
1 1 1 1 1 1 1 1 1 
1 1 1 1 1 1 1 1 1 
1 1 1 1 1 1 1 1 1 
1 1 1 1 1 1 1 1 1 
1 1 1 1 1 1 1 1 1 
1 1 1 1 1 1 1 1 1 
1 1 1 1 1 1 1 1 1 
1 1 1 1 1 1 1 1 1 
1 1 1 1 1 1 1 1 1 
1 1 1 1 1 1 1 1 1 
1 1 1 1 1 1 1 1 1 
1 1 1 1 1 1 1 1 1 
1 1 1 1 1 1 1 1 1 
1 1 1 1 1 1 1 1 1 
1 1 1 1 1 1 1 1 1 
1 1 1 1 1 1 1 1 1 
1 1 1 1 1 1 1 1 1 
1 1 1 1 1 1 1 1 1 
1 1 1 1 1 1 1 1 1 
1 1 1 1 1 1 1 1 1 
1 1 1 1 1 1 1 1 1 
1 1 1 1 1 1 1 1 1 
1 1 1 1 1 1 1 1 1 
1 1 1 1 1 1 1 1 1 
1 1 1 1 1 1 1 1 1 
1 1 1 1 1 1 1 1 1 
1 1 1 1 1 1 1 1 1 
1 1 1 1 1 1 1 1 1 
1 1 1 1 1 1 1 1 1 
1 1 1 1 1 1 1 1 1 
1 1 1 1 1 1 1 1 1 
1 1 1 1 1 1 1 1 1 
1 1 1 1 1 1 1 1 1 
1 1 1 1 1 1 1 1 1 
1 1 1 1 1 1 1 1 1 
1 1 1 1 1 1 1 1 1 
1 1 1 1 1 1 1 1 1 
1 1 1 1 1 1 1 1 1 
1 1 1 1 1 1 1 1 1 
1 1 1 1 1 1 1 1 1 
1 1 1 1 1 1 1 1 1 
1 1 1 1 1 1 1 1 1 
1 1 1 1 1 1 1 1 1 
1 1 1 1 1 1 1 1 1 
1 1 1 1 1 1 1 1 1 
1 1 1 1 1 1 1 1 1 
1 1 1 1 1 1 1 1 1 
1 1 1 1 1 1 1 1 1 
1 1 1 1 1 1 1 1 1 
1 1 1 1 1 1 1 1 1 
1 1 1 1 1 1 1 1 1 
1 1 1 1 1 1 1 1 1 
1 1 1 1 1 1 1 1 1 
1 1 1 1 1 1 1 1 1 
1 1 1 1 1 1 1 1 1 
1 1 1 1 1 1 1 1 1 
1 1 1 1 1 1 1 1 1 
1 1 1 1 1 1 1 1 1 
1 1 1 1 1 1 1 1 1 
1 1 1 1 1 1 1 1 1 
1 1 1 1 1 1 1 1 1 
1 1 1 1 1 1 1 1 1 
1 1 1 1 1 1 1 1 1 
1 1 1 1 1 1 1 1 1 
1 1 1 1 1 1 1 1 1 
1 1 1 1 1 1 1 1 1 
1 1 1 1 1 1 1 1 1 
1 1 1 1 1 1 1 1 1 
1 1 1 1 1 1 1 1 1 
1 1 1 1 1 1 1 1 1 
1 1 1 1 1 1 1 1 1 
1 1 1 1 1 1 1 1 1 
1 1 1 1 1 1 1 1 1 
1 1 1 1 1 1 1 1 1 
1 1 1 1 1 1 1 1 1 
1 1 1 1 1 1 1 1 1 
1 1 1 1 1 1 1 1 1 
1 1 1 1 1 1 1 1 1 
1 1 1 1 1 1 1 1 1 
1 1 1 1 1 1 1 1 1 
1 1 1 1 1 1 1 1 1 
1 1 1 1 1 1 1 1 1 
1 1 1 1 1 1 1 1 1 
1 1 1 1 1 1 1 1 1 
1 1 1 1 1 1 1 1 1 
1 1 1 1 1 1 1 1 1 
1 1 1 1 1 1 1 1 1 
1 1 1 1 1 1 1 1 1 
1 1 1 1 1 1 1 1 1 
1 1 1 1 1 1 1 1 1 
1 1 1 1 1 1 1 1 1 
1 1 
i 3 2000 int
0 0 0 0 0 0 0 0 0 
0 0 0 0 0 0 0 0 0 
0 0 0 0 0 0 0 0 0 
0 0 0 0 0 0 0 0 0 
0 0 0 0 0 0 0 0 0 
0 0 0 0 0 0 0 0 0 
0 0 0 0 0 0 0 0 0 
0 0 0 0 0 0 0 0 0 
0 0 0 0 0 0 0 0 0 
0 0 0 0 0 0 0 0 0 
0 0 0 0 0 0 0 0 0 
0 0 0 0 0 0 0 0 0 
0 1 0 0 0 0 -1 0 0 
0 0 0 0 0 0 0 0 0 
0 0 0 0 0 0 0 0 0 
0 0 0 0 0 0 0 0 0 
0 0 0 0 0 0 0 0 0 
0 0 0 0 0 0 0 0 0 
0 0 0 0 0 0 0 0 0 
0 0 0 0 0 0 0 0 0 
0 0 0 0 0 0 0 0 0 
0 0 0 0 0 0 0 0 0 
0 0 0 0 0 0 0 0 0 
0 0 0 0 0 0 0 0 0 
0 0 0 0 0 0 0 0 0 
0 0 0 0 0 0 0 0 0 
0 0 0 0 0 0 0 0 0 
0 0 0 0 0 0 0 0 0 
0 0 0 0 0 0 0 0 0 
0 0 0 0 0 0 0 0 0 
0 0 0 0 0 0 0 0 0 
0 0 0 0 0 0 0 0 0 
0 0 0 0 0 0 0 0 0 
0 0 0 0 0 0 0 0 0 
0 0 0 0 0 0 0 0 0 
0 0 0 0 0 0 0 0 0 
0 0 0 0 0 0 0 0 0 
0 0 0 0 0 0 0 0 0 
0 0 0 0 0 0 0 0 0 
0 0 0 0 0 0 0 0 0 
0 0 0 0 0 0 0 0 0 
0 0 0 0 0 0 0 0 0 
0 0 0 0 0 0 0 0 0 
0 0 0 -1 0 0 0 0 0 
0 0 0 0 0 0 0 0 0 
0 0 0 0 0 0 0 0 0 
0 0 0 0 0 0 0 0 0 
0 0 0 0 0 0 0 0 0 
0 0 0 0 0 0 0 0 0 
0 0 0 0 0 0 0 0 0 
0 0 0 0 0 0 0 0 0 
0 0 0 0 0 0 0 0 0 
0 0 0 0 0 0 0 0 0 
0 0 0 0 0 0 0 0 0 
0 0 0 0 0 0 0 0 0 
0 0 0 0 0 0 0 0 0 
0 0 0 0 0 0 0 0 0 
0 0 0 0 0 0 0 0 0 
0 0 0 0 0 0 0 0 0 
0 0 0 0 0 0 0 0 0 
0 0 0 0 0 0 0 0 0 
0 0 0 0 0 0 0 0 0 
0 -1 0 0 0 0 0 0 0 
0 0 0 0 0 0 0 0 0 
0 0 0 0 0 0 0 0 0 
0 0 0 0 0 0 0 0 0 
0 0 0 0 0 0 0 0 0 
0 0 0 0 0 0 0 0 0 
0 0 0 0 0 0 0 0 0 
0 0 0 0 0 0 0 0 0 
0 0 0 0 0 0 0 0 0 
0 0 0 0 0 0 0 0 0 
0 0 0 0 0 0 0 0 0 
0 0 0 0 0 0 0 0 0 
0 0 0 0 0 0 0 0 0 
0 0 0 0 0 0 0 0 0 
0 0 0 0 0 0 0 0 0 
0 0 0 0 0 0 0 0 0 
0 0 0 0 0 0 0 0 0 
0 0 0 0 0 0 0 0 0 
0 0 0 0 0 0 0 0 0 
0 0 0 0 0 0 0 0 0 
0 0 0 0 0 0 0 0 0 
0 1 0 0 0 0 0 0 0 
0 0 0 0 0 0 0 0 0 
0 0 0 0 1 0 0 0 0 
0 0 0 0 0 0 0 0 0 
0 0 0 0 0 0 0 0 0 
0 0 0 0 0 0 0 0 0 
0 0 0 0 0 0 0 0 0 
0 0 0 0 0 0 0 0 0 
0 0 0 0 0 0 0 0 0 
0 0 0 0 0 0 0 0 0 
0 0 0 0 0 0 0 0 0 
0 0 0 0 0 0 0 0 0 
0 0 0 0 0 0 0 0 0 
0 0 0 0 0 0 0 0 0 
0 0 0 0 0 0 0 0 0 
0 0 0 0 0 0 0 0 0 
0 0 0 0 0 0 0 0 0 
0 0 0 0 0 0 0 0 0 
0 0 0 0 0 0 0 0 0 
0 0 0 0 0 0 0 0 0 
0 0 0 0 0 0 0 0 0 
0 0 0 0 0 0 0 0 0 
0 0 0 0 0 0 0 0 0 
0 0 0 0 0 0 0 0 0 
0 0 0 0 0 0 0 0 0 
0 0 0 0 0 0 0 0 0 
0 0 0 0 0 0 0 0 0 
0 0 0 0 0 0 0 0 0 
0 0 0 0 0 0 0 0 0 
0 0 0 0 0 0 0 0 0 
0 0 0 0 0 0 0 0 0 
0 0 0 0 0 0 0 0 0 
0 0 0 0 0 0 0 0 0 
0 0 0 1 0 0 0 0 0 
0 0 0 0 0 0 0 0 0 
0 0 0 1 0 0 0 0 0 
0 0 0 0 0 0 0 0 0 
0 0 0 0 0 0 0 0 0 
0 0 0 0 0 0 0 0 0 
0 0 0 0 0 0 0 0 0 
0 0 0 0 0 0 0 0 0 
0 0 0 0 0 0 0 0 0 
0 0 0 0 0 0 0 0 0 
0 0 0 0 0 0 0 0 0 
0 0 0 0 0 0 0 0 0 
0 0 0 0 0 0 0 0 0 
0 0 0 0 0 0 0 0 0 
0 0 0 0 0 0 0 0 0 
0 0 0 0 0 0 0 0 0 
0 0 0 0 0 0 0 0 0 
0 0 0 0 0 0 0 0 0 
0 0 0 0 0 0 0 0 0 
0 0 0 0 0 0 0 0 0 
0 0 0 0 0 0 0 0 0 
0 0 0 0 0 0 0 0 0 
0 0 0 0 0 0 0 0 0 
0 0 0 0 0 0 0 0 0 
0 0 0 0 0 0 0 0 0 
0 0 0 0 0 0 0 0 0 
0 0 0 0 0 0 0 0 0 
0 0 0 0 0 0 0 0 0 
0 0 0 0 0 0 0 0 0 
0 0 0 0 0 0 0 0 0 
0 0 0 0 0 0 0 0 0 
0 0 0 0 0 0 0 0 0 
0 0 0 0 0 0 0 0 0 
0 0 0 -1 0 0 0 0 0 
0 0 0 0 0 0 0 0 0 
0 0 0 0 0 0 0 0 0 
0 0 0 0 0 0 0 0 0 
0 0 0 0 0 0 0 0 0 
0 0 0 0 0 0 0 0 0 
0 0 0 0 0 0 0 0 0 
0 0 0 0 0 0 0 0 0 
0 0 0 0 0 0 0 0 0 
0 0 0 0 0 0 0 0 0 
0 0 0 0 0 0 0 0 0 
0 0 0 0 0 0 0 0 0 
0 0 0 0 0 0 0 0 0 
0 -1 0 0 0 0 0 0 0 
0 0 0 0 0 0 0 0 0 
0 0 0 0 0 0 0 0 0 
0 0 0 0 -1 0 0 0 0 
0 0 0 0 0 0 0 0 0 
0 0 0 0 0 0 0 0 0 
0 0 0 0 0 0 0 0 0 
0 0 0 -1 0 0 0 -1 0 
-1 0 0 0 0 0 0 0 0 
0 0 0 0 0 0 0 0 0 
0 0 0 0 0 0 0 0 0 
0 0 0 0 0 0 0 0 0 
0 0 0 0 0 0 0 0 0 
0 0 0 0 0 0 0 0 0 
0 0 0 0 0 0 0 0 0 
0 0 0 0 0 0 0 0 0 
0 0 0 0 0 0 0 0 0 
0 0 0 0 0 0 0 0 0 
0 0 0 0 0 0 0 0 0 
0 0 0 0 0 0 0 0 0 
0 0 0 0 0 0 0 0 0 
0 0 0 0 0 0 0 0 0 
0 0 0 0 0 0 0 0 0 
0 0 0 -1 0 0 0 0 0 
0 0 0 0 0 0 0 0 0 
0 0 0 0 0 0 0 0 0 
0 0 0 0 0 0 0 0 0 
0 0 0 0 0 0 0 0 0 
0 0 0 0 0 0 0 0 0 
0 0 0 0 0 0 0 0 0 
0 0 0 0 0 0 0 0 0 
0 0 0 1 0 0 0 0 0 
0 0 0 0 0 0 0 0 0 
0 0 0 0 0 0 0 0 0 
0 0 0 0 0 0 0 0 0 
0 0 0 0 0 0 0 0 0 
0 0 0 0 0 0 0 0 0 
0 0 0 0 0 0 0 0 0 
0 0 0 0 0 0 0 0 0 
0 0 0 0 0 0 0 0 0 
0 0 0 0 0 0 0 0 0 
0 0 0 0 0 0 0 0 0 
0 0 0 0 0 0 0 0 0 
0 0 0 0 0 0 0 0 0 
0 0 0 0 0 0 0 0 0 
0 0 0 0 0 0 0 0 0 
0 0 0 0 0 0 0 0 0 
0 0 0 0 0 0 0 0 0 
0 0 0 0 0 0 0 0 0 
0 0 0 0 0 0 0 0 0 
0 0 0 0 0 0 0 0 0 
0 0 0 0 0 0 0 0 0 
0 0 0 0 0 0 0 0 0 
0 0 0 0 0 0 0 0 0 
0 0 0 0 0 0 0 0 0 
0 0 0 0 0 0 0 0 0 
0 0 0 0 0 0 0 0 0 
0 0 0 0 0 0 0 0 0 
0 0 0 0 0 0 0 0 0 
0 0 0 0 0 0 0 0 0 
0 0 0 0 0 0 0 0 0 
0 0 0 0 0 0 0 0 0 
0 0 0 0 0 0 0 0 0 
0 0 0 0 0 0 0 0 0 
0 0 0 0 0 0 0 0 0 
0 0 0 0 0 0 0 0 0 
0 0 0 0 0 0 0 0 0 
0 0 0 0 0 0 0 0 0 
0 0 0 0 0 0 0 0 0 
0 0 0 0 0 0 0 0 0 
0 0 0 0 0 0 0 0 0 
0 0 0 0 0 0 0 0 0 
0 0 0 0 0 0 0 0 0 
0 0 0 0 0 0 0 0 0 
0 0 0 0 0 0 0 0 0 
0 0 0 0 0 0 0 0 0 
0 0 0 0 0 0 0 0 0 
0 0 0 0 0 0 0 0 0 
0 0 0 0 0 0 0 0 0 
0 0 0 0 0 0 0 0 0 
0 0 0 0 0 0 0 0 0 
0 0 0 0 0 0 0 0 0 
0 0 0 0 0 0 0 0 0 
0 0 0 0 0 0 0 0 0 
0 0 0 0 0 0 0 0 0 
0 0 0 0 0 0 0 0 0 
0 0 0 0 0 0 0 0 0 
0 0 0 0 0 0 0 0 0 
0 0 0 0 0 0 0 0 0 
0 0 0 0 0 0 0 0 0 
0 0 0 0 0 0 0 0 0 
0 0 0 0 0 0 0 0 0 
0 0 0 0 0 0 0 0 0 
0 0 0 0 0 0 0 0 0 
0 0 0 0 0 0 0 0 0 
0 0 0 0 0 0 0 0 0 
0 0 0 0 0 0 0 0 0 
0 0 0 0 0 0 0 0 0 
0 0 0 0 0 0 0 0 0 
0 0 0 0 0 0 0 0 0 
0 0 0 0 0 0 0 0 0 
0 0 0 0 0 0 0 0 0 
0 0 0 0 0 0 0 0 0 
0 0 0 0 0 0 0 0 0 
0 0 0 0 0 0 0 0 0 
0 0 0 0 0 0 0 0 0 
0 0 0 0 0 0 0 0 0 
0 0 0 0 0 0 0 0 0 
0 0 0 0 0 0 0 0 0 
0 0 0 0 0 0 0 0 0 
0 0 0 0 0 0 0 0 0 
0 0 0 0 0 0 0 0 0 
0 0 0 0 0 0 0 0 0 
0 0 0 0 0 0 0 0 0 
0 0 0 0 0 0 0 0 0 
0 0 0 0 0 0 0 0 0 
0 0 0 0 0 0 0 0 0 
0 0 0 0 0 0 0 0 0 
0 0 0 0 0 0 0 0 0 
0 0 0 0 0 0 0 0 0 
0 0 0 0 0 0 0 0 0 
0 0 0 0 0 0 0 0 0 
0 0 0 0 0 0 0 0 0 
0 0 0 0 0 0 0 0 0 
0 0 0 0 0 0 0 0 0 
0 0 0 0 0 0 0 0 0 
0 0 0 0 0 0 0 0 0 
0 0 0 0 0 0 0 0 0 
0 0 0 0 0 0 0 0 0 
0 0 0 0 0 0 0 0 0 
0 0 0 0 0 0 0 0 0 
0 0 0 0 0 0 0 0 0 
0 0 0 0 0 0 0 0 0 
0 0 0 0 0 0 0 0 0 
0 0 0 0 0 0 0 0 0 
0 0 0 0 0 0 0 0 0 
0 0 0 0 0 0 0 0 0 
0 0 0 0 0 0 0 0 0 
0 0 0 0 0 0 0 0 0 
0 0 0 0 0 0 0 0 0 
0 0 0 0 0 0 0 0 0 
0 0 0 0 0 0 0 0 0 
0 0 0 0 0 0 0 0 0 
0 0 0 0 0 0 0 0 0 
0 0 0 0 0 0 0 0 0 
0 0 0 0 0 0 0 0 0 
0 0 0 0 0 0 0 0 0 
0 0 0 0 0 0 0 0 0 
0 0 0 0 0 0 0 0 0 
0 0 0 0 0 0 0 0 0 
0 0 0 0 0 0 0 0 0 
0 0 0 0 0 0 0 0 0 
0 0 0 0 0 0 0 0 0 
0 0 0 0 0 0 0 -1 0 
0 0 0 0 0 0 0 0 0 
0 0 0 0 0 0 0 0 0 
0 0 0 0 0 0 0 0 0 
0 0 0 0 0 0 0 0 0 
0 0 0 0 0 0 0 0 0 
0 0 0 0 0 0 0 0 0 
0 0 0 0 0 0 0 0 0 
0 0 0 0 0 0 0 0 0 
0 0 0 0 0 0 0 0 0 
0 0 0 0 0 0 0 0 0 
0 0 0 0 0 0 0 0 0 
0 0 0 0 0 0 0 0 0 
0 0 0 0 0 0 0 0 0 
0 0 0 0 0 0 0 0 0 
0 0 0 0 0 0 0 0 0 
0 0 0 0 0 0 0 0 0 
0 0 0 0 0 0 0 0 0 
0 0 0 0 0 0 0 0 0 
0 0 0 0 0 0 0 0 0 
0 0 0 0 0 0 0 0 0 
0 0 0 0 0 0 0 0 0 
0 0 0 0 0 0 0 0 0 
0 0 0 0 0 0 0 0 0 
0 0 0 0 0 0 0 0 0 
0 0 0 0 0 0 0 0 0 
0 0 0 0 0 0 0 0 0 
0 0 0 0 0 0 0 0 0 
0 0 0 0 0 0 0 0 0 
0 0 0 0 0 0 0 0 0 