# vtk DataFile Version 4.0
Generated by LIGGGHTS
ASCII
DATASET POLYDATA
POINTS 2000 float
-87.6604 -92.8368 9.99383 -95.3476 -113.021 9.99973 -106.137 -130.767 9.99756 
-117.169 -114.089 9.99805 -127.173 -131.604 9.99973 -107.279 -96.7084 9.99717 
-116.377 -126.465 26.6274 -109.442 -107.747 27.8515 -132.925 -115.341 22.2458 
-118.66 -90.2132 25.1033 -92.472 -117.838 31.0411 -56.5274 -101.942 9.99185 
-30.4178 -123.051 9.99949 -75.567 -108.763 9.99957 -66.3136 -138.842 9.99612 
-79.5192 -126.443 18.4653 -37.5397 -105.107 15.4035 -60.5325 -120.627 15.8882 
-46.8385 -134.41 11.146 -58.1981 -140.333 28.6761 -38.2766 -138.572 28.7339 
-34.0304 -86.2684 21.4524 -50.3514 -122.265 33.0235 -2.7118 -104.562 9.99916 
1.87158 -138.981 9.99623 17.113 -101.927 9.9992 -20.6861 -95.7949 10.0004 
9.4192 -120.461 9.99922 -10.4189 -123.208 9.99446 8.39257 -130.918 27.0947 
18.8563 -90.8373 26.5503 -0.940259 -90.0862 23.6839 22.1167 -113.609 25.4419 
25.1774 -131.09 16.2196 42.2725 -96.7998 22.2068 55.3522 -127.749 9.99355 
40.2909 -112.516 9.99852 60.2562 -107.388 9.99973 52.6044 -83.8467 9.99976 
41.7164 -119.055 28.844 80.0588 -100.728 9.99973 138.453 -96.8827 17.5263 
117.677 -127.98 9.99444 132.447 -114.495 9.99615 99.0997 -92.047 9.99848 
93.9324 -124.598 10.0168 118.923 -93.8676 13.2509 136.699 -130.953 20.5311 
107.772 -110.149 9.99964 93.2595 -100.982 26.9089 130.874 -110.904 29.6031 
106.089 -124.284 25.9174 119.473 -139.211 26.4367 111.995 -96.062 31.8854 
-130.206 -84.0293 9.99568 -94.8159 -33.2865 14.447 -112.257 -74.8124 9.99938 
-121.352 -56.8742 9.99953 -113.625 -38.4272 9.99904 -88.7826 -72.7633 10.0093 
-101.813 -58.1393 14.0752 -99.6937 -83.4665 22.9316 -131.897 -68.4518 22.4391 
-132.529 -48.5595 24.4043 -114.205 -42.4474 29.5811 -91.4232 -47.1341 28.4727 
-139.02 -84.2769 32.3779 -113.767 -63.4144 29.2154 -138.217 -35.9074 9.9991 
-94.1959 -66.5949 32.1573 -84.1701 -49.6496 9.99916 -31.1349 -66.6107 9.99974 
-50.0997 -83.0037 10.0027 -56.924 -64.2044 9.99964 -74.7119 -63.5517 20.8643 
-57.5451 -32.586 24.9958 -26.9754 -45.3779 9.99959 -18.1681 -53.913 25.7974 
11.5476 -56.0925 9.9997 -2.45396 -41.4562 9.99975 4.41276 -76.513 9.99973 
25.7531 -81.9502 9.99973 -7.91528 -60.6956 10.0168 -14.128 -32.9485 23.945 
-15.9654 -77.6429 16.9424 24.6097 -65.7437 21.6761 7.82542 -73.1316 29.6567 
71.4459 -77.1394 9.99968 40.5622 -77.1601 25.5718 44.8948 -65.3882 9.99756 
50.9381 -44.1944 9.99973 72.0794 -55.3188 9.99897 31.1676 -50.8465 9.99382 
71.9165 -40.5202 23.4508 40.4082 -54.8638 27.3352 59.1916 -60.9778 24.2058 
53.9214 -40.8033 32.1709 63.8764 -26.1371 9.99973 86.6384 -82.0557 22.0416 
86.7126 -40.2913 9.99866 90.2372 -66.5021 9.99474 132.339 -79.3941 9.99785 
118.91 -58.5131 10.0043 108.025 -74.7019 14.4041 115.196 -38.8627 9.99912 
138.884 -57.523 9.99908 130.08 -44.1577 22.2623 124.162 -74.5596 27.5952 
-119.721 6.4716 9.99864 -104.889 -8.62547 9.99967 -121.986 -19.7887 9.99973 
-132.052 -3.60835 22.0939 -108.656 -13.1321 29.1176 -89.46 -18.7489 29.3263 
-111.034 15.6164 25.5179 -84.8089 -16.5517 9.99949 -129.787 22.5206 24.7674 
-105.568 27.1515 9.99971 -124.52 -25.2149 30.6453 -45.6244 5.37449 9.99445 
-28.5363 -5.28022 9.99973 -76.0857 13.8463 24.9941 -42.1537 -1.34941 28.5025 
-39.0185 24.5296 9.99973 -27.9811 21.5622 27.0529 -26.5521 -25.2771 9.99973 
22.6603 -25.071 32.0777 -4.68421 -21.5812 9.99978 -20.8619 13.9151 9.99951 
-8.74591 -1.99767 9.99974 2.48729 2.8323 25.8314 8.20756 13.5963 9.9902 
21.3874 9.37031 25.9817 27.1843 19.8987 9.99715 37.474 2.33341 9.99973 
51.2337 16.8748 10.0149 82.1028 -14.3452 9.99413 61.8697 -0.766491 9.99528 
71.2125 17.8574 10.002 38.0051 23.3546 26.4541 61.7486 19.4684 27.5488 
39.5995 5.40168 35.1128 140.229 -16.2266 9.99916 87.4085 13.2402 20.7963 
100.252 -25.5719 9.99947 138.216 7.1598 9.99467 103.818 17.9711 9.99768 
96.7763 -0.747655 9.99917 139.551 27.1511 9.99798 122.508 -21.7896 17.4148 
119.755 -3.42442 9.99267 106.007 -12.1102 23.6243 -89.4455 66.1837 9.99568 
-111.655 60.0031 9.99966 -127.428 40.3523 9.99711 -136.59 79.1611 30.1519 
-129.476 63.5521 18.356 -98.3589 45.4766 13.4983 -115.67 41.0729 26.1543 
-130.777 81.6758 9.99967 -140.756 39.7827 25.4785 -78.588 45.3719 9.99804 
-36.1557 69.4711 24.9931 -67.1924 63.3941 9.99973 -54.0431 39.026 9.99973 
-64.6004 49.1155 23.7915 -72.207 74.9003 25.573 -83.8532 47.9647 29.1156 
20.1133 81.5959 9.99852 -5.19104 62.9938 10.0042 -24.2023 39.6238 9.99973 
8.60708 70.7601 22.2534 21.3993 55.1617 9.99983 2.00386 38.4123 33.8688 
-6.69952 82.9385 9.99911 26.4783 80.4512 28.923 31.6563 59.8844 26.5074 
41.0441 34.3295 9.9958 64.2659 37.1237 9.9947 62.6773 62.8242 9.99973 
39.2852 73.5817 9.99973 80.8708 48.8259 9.9995 77.3865 31.9192 26.9068 
52.4872 37.1367 26.1502 44.7263 53.9989 10.5547 80.8792 71.1261 9.99973 
68.4695 49.7773 25.6612 50.573 56.2024 31.8577 120.344 32.7183 9.99453 
87.9127 30.0991 9.99938 119.758 59.3439 9.99353 105.13 72.9798 9.99897 
103.81 43.9702 9.99945 138.403 52.1189 9.997 94.9883 58.9066 19.9529 
118.978 46.166 25.0109 92.1919 83.1572 21.3534 116.074 69.8369 26.6096 
132.812 73.3594 15.7457 97.0075 35.793 26.9358 -89.3626 140.346 9.99725 
-111.902 88.4183 9.99484 -114.074 120.635 25.0173 -139.064 96.5286 20.5498 
-87.5669 103.413 9.99758 -77.171 136.303 25.3251 -76.7551 86.5894 9.99834 
-57.6901 92.6312 9.99911 -45.0963 108.168 10.0021 -78.8298 122.022 9.99973 
-49.133 127.756 9.99945 -31.9188 104.211 24.8429 -29.7529 136.75 9.99973 
-33.9655 123.952 27.3087 -26.9957 116.674 9.99837 -16.4288 137.924 25.1257 
19.7591 131.869 9.99766 -9.69639 126.706 9.99966 -2.48684 107.965 9.99973 
7.12979 90.7036 22.1817 17.6354 108.396 9.99973 4.86274 128.644 23.5722 
-15.4108 116.546 26.301 26.3506 101.697 27.6329 25.6977 132.741 29.0727 
-13.4234 96.9238 22.6169 8.0033 109.58 28.7271 34.6859 97.2899 9.99573 
66.5379 135.046 9.99704 37.5836 117.252 9.99285 58.0798 116.663 9.99973 
40.9455 140.296 9.99962 80.445 119.7 9.99586 68.6637 122.995 25.8116 
51.0378 132.446 25.3796 59.9187 89.9027 33.0914 38.5966 117.475 29.957 
87.77 138.34 9.99973 126.696 91.5127 9.99913 85.2618 99.7071 9.99973 
117.214 109.121 9.99408 139.414 134.271 9.99437 111.02 135.162 9.99749 
105.41 92.9767 9.99954 137.358 112.575 9.99778 100.093 118.802 13.6113 
124.91 124.685 19.913 88.3716 123.255 29.1915 -134.722 -103.037 37.9061 
-102.969 -132 40.4817 -128.152 -125.624 42.7703 -111.119 -114.82 46.6689 
-87.775 -122.962 49.8314 -87.3749 -137.671 63.4285 -104.04 -126.895 60.9543 
-123.994 -127.258 62.2645 -131.561 -111.239 71.5498 -92.5695 -108.274 62.5268 
-128.117 -99.2238 87.3516 -140.286 -114.171 53.7952 -73.4176 -129.075 37.3262 
-70.5821 -92.2326 40.5303 -43.5105 -99.2372 61.5787 -70.815 -123.795 60.3979 
-59.4522 -89.9788 73.6409 -52.7858 -119.796 52.7201 -43.3808 -137.077 49.0728 
-28.4436 -101.862 74.4665 -59.1523 -109.387 68.8149 -54.0323 -128.088 73.7161 
-35.3765 -120.625 72.4647 -80.593 -96.6316 73.7709 -73.728 -133.732 77.5083 
-63.1353 -139.637 50.8395 -66.9123 -103.852 86.4421 -17.8223 -113.972 42.9244 
15.8968 -104.621 42.1905 13.2456 -125.783 53.9267 3.59184 -119.118 70.1229 
-3.56714 -139.686 61.9061 -10.9939 -93.0876 70.1632 24.6957 -131.729 38.6468 
8.9042 -94.0758 71.9001 -14.1286 -127.966 74.7893 22.9913 -94.1845 57.7055 
8.3558 -136.991 77.7383 20.0655 -109.508 78.0907 25.7878 -128.17 73.4654 
27.7567 -113.462 60.0579 26.9586 -91.1184 81.8744 3.22372 -86.0362 44.2268 
73.985 -127.289 39.6095 40.2676 -123.658 48.2514 54.6844 -113.883 65.5458 
37.8416 -103.452 40.7605 81.2719 -112.226 70.3461 41.8141 -136.534 63.4717 
39.8699 -101.441 70.6174 60.0977 -134.795 71.3851 44.2281 -127.573 81.1828 
79.4325 -131.514 75.3018 104.469 -117.518 53.7509 135.817 -133.944 40.2862 
122.789 -111.572 47.8773 116.521 -130.165 44.0192 129.764 -93.1355 44.4949 
102.826 -137.249 56.753 94.2358 -86.1713 40.3134 109.982 -98.4045 55.7785 
90.179 -101.131 56.2958 121.453 -132.68 63.2303 132.774 -99.0514 63.3606 
97.6985 -124.455 71.2432 139.633 -128.008 70.1325 98.2782 -85.4518 65.7038 
132.826 -108.95 80.7422 113.75 -100.459 81.9043 118.611 -113.291 67.3554 
122.041 -126.282 82.163 94.0557 -103.712 83.155 -115.969 -82.4759 59.126 
-125.196 -53.1188 42.444 -85.3211 -65.3547 57.4188 -101.629 -34.6315 61.2927 
-129.456 -52.9208 72.1409 -94.5286 -63.7015 79.444 -141.065 -34.9272 36.2965 
-92.4268 -83.6644 84.9976 -78.536 -76.7888 72.3581 -77.1087 -57.6171 39.8209 
-68.0232 -43.2244 56.6478 -64.7467 -62.851 58.6265 -51.4188 -42.1045 67.7341 
-76.8357 -56.6753 73.3123 -58.3674 -68.168 76.8193 -30.1293 -67.3546 56.1515 
-70.0201 -38.0537 75.9454 -30.8547 -36.8583 73.3101 -44.648 -81.963 84.4493 
-46.2741 -53.0045 83.6898 -41.4608 -29.4085 55.918 -27.5113 -35.1249 42.7763 
1.79303 -55.3092 36.4349 -7.86403 -38.8044 42.292 18.2605 -60.7331 66.8389 
-13.3699 -37.0938 61.4569 4.37154 -32.0317 81.6406 4.75732 -28.6609 61.9338 
28.8648 -82.9593 41.969 46.7603 -38.0934 53.8623 61.9927 -80.6443 53.0211 
66.6645 -46.5862 46.4549 79.7743 -48.8161 67.9031 59.9735 -47.8676 65.2577 
67.8502 -42.5258 82.847 47.2117 -46.6936 80.6108 55.2127 -29.4806 71.5696 
58.8271 -62.8038 82.9602 77.725 -68.8883 85.3842 92.0379 -82.8317 84.5261 
140.778 -82.3488 83.3589 100.664 -51.7683 39.9745 117.07 -79.9806 52.606 
136.214 -54.7906 38.0516 134.747 -72.8363 46.5671 110.343 -69.7336 68.4067 
131.941 -78.3371 65.8708 89.7402 -67.0848 69.4892 129.75 -59.6765 72.72 
119.896 -81.4312 81.5332 93.6054 -35.5226 73.5557 -99.1036 -4.16919 44.244 
-135.346 -10.3467 40.6328 -109.719 22.2313 44.3462 -119.679 1.63505 36.9068 
-112.155 2.0306 58.0706 -110.361 20.7506 65.1211 -93.3329 17.1844 55.2619 
-132.088 3.48043 57.3259 -105.595 5.51671 77.168 -126.935 13.7197 73.8307 
-91.6835 -1.12696 63.1279 -120.197 -7.72302 73.7784 -88.0129 8.47568 86.2402 
-102.975 -11.4284 87.4601 -139.687 28.3643 78.6344 -121.123 -23.3899 88.0959 
-84.6482 -10.0833 79.566 -77.7976 -13.751 46.4415 -43.9856 17.6873 38.4034 
-68.3447 0.624345 56.6326 -60.257 18.8934 55.7954 -48.9728 6.35172 66.5344 
[...]
POINT_DATA 2000
FIELD FieldData 7
id 1 2000 int
41 77 196 230 308 107 205 282 106 
55 438 53 85 259 296 439 157 275 
424 371 40 273 71 185 265 297 299 
410 440 172 95 351 336 437 49 33 
376 408 397 216 164 380 59 139 141 
29 30 379 335 434 394 283 247 47 
411 36 142 338 414 456 32 161 261 
453 80 276 381 245 114 425 171 112 
231 246 215 10 143 211 115 208 232 
365 48 243 45 167 75 300 149 113 
174 222 318 108 354 285 317 359 201 
200 117 252 262 286 314 395 334 274 
239 342 66 147 255 443 309 413 278 
238 405 50 345 20 220 187 46 225 
11 212 69 37 358 390 416 347 122 
123 197 264 430 315 204 219 298 256 
135 346 54 97 178 213 271 404 84 
199 320 400 234 450 152 444 99 362 
8 279 321 250 384 378 195 240 399 
186 111 12 169 73 133 131 132 389 
419 449 229 369 375 102 72 374 330 
253 34 154 221 266 173 352 366 58 
329 206 301 138 6 284 179 328 184 
224 168 311 455 295 385 90 88 78 
62 302 339 79 83 218 426 127 128 
294 433 341 110 227 396 421 429 251 
242 18 423 344 96 160 209 288 367 
370 452 116 198 203 244 343 442 166 
304 361 401 448 1864 1025 1285 272 223 
9 82 130 350 119 409 290 383 1007 
1904 1249 1749 292 1878 2 241 156 64 
76 210 263 1855 1873 364 1584 1941 1011 
418 327 293 22 144 165 382 323 332 
42 1715 1811 1945 137 51 125 445 81 
155 249 436 74 1428 1281 1934 720 1920 
856 700 1308 1665 1450 5 331 388 26 
307 552 183 1551 319 65 163 191 236 
1719 1793 23 1676 1730 903 642 415 422 
417 281 28 226 1366 402 39 392 14 
44 189 306 931 1603 118 89 1953 997 
1922 25 86 313 398 180 188 1317 1870 
1643 581 43 412 129 322 761 1508 303 
326 764 1565 176 1155 1520 1143 1112 739 
1819 151 162 68 158 214 257 121 368 
175 427 353 1211 864 874 1540 4 217 
357 202 94 190 349 120 1159 570 746 
104 1001 268 260 7 100 333 432 457 
70 63 1767 622 1389 454 153 386 291 
15 277 19 441 1015 1407 839 1908 3 
254 57 228 393 145 177 420 1046 1600 
1399 909 340 1956 712 1975 1460 93 1 
270 387 109 170 181 140 312 91 1163 
1404 372 61 67 267 60 316 87 1652 
590 583 207 923 709 280 373 235 16 
194 148 789 1080 1406 431 1082 1951 1417 
377 182 310 103 233 337 35 258 356 
24 159 435 1430 1367 1124 1820 1194 852 
105 360 403 237 287 363 92 348 21 
1398 1517 1852 1685 324 1191 27 428 391 
56 98 1807 1893 1087 1716 1200 355 1283 
407 289 446 101 192 13 124 1869 1400 
1589 701 674 193 269 146 136 150 1883 
1995 771 817 1501 1706 1836 949 1815 1773 
1854 52 305 325 406 38 126 17 31 
447 134 248 967 1140 1618 1447 741 1424 
968 1761 1068 480 1694 1293 1726 784 954 
1929 1771 814 1334 1938 1195 484 1382 1176 
1178 1017 1220 541 1173 1999 1170 1982 1021 
948 1601 1452 1896 1534 1331 1838 668 907 
520 952 1262 1252 1865 1539 1071 1304 1712 
1337 553 1687 651 548 951 1634 1050 1156 
1542 654 1128 1988 1409 462 1105 1189 1728 
1757 1051 1474 838 1842 1561 1649 562 1537 
599 661 911 914 1147 1149 1459 866 1829 
479 753 946 1845 974 486 1527 1840 752 
573 1427 845 540 1206 1275 1683 1488 1656 
1543 718 1117 1342 1678 1781 489 878 995 
1045 1171 1578 1013 1994 1077 1866 833 889 
626 1586 875 1130 621 906 1799 1284 1213 
757 793 1894 1421 533 1725 985 1566 640 
1874 1203 1861 602 652 1365 644 1225 1234 
1415 779 862 1373 666 1167 960 723 912 
1042 1328 938 1673 806 495 1729 1480 1444 
521 574 854 658 1442 842 861 1419 1034 
1628 1099 1736 1738 1129 1465 1324 915 1756 
1677 532 754 1063 1190 1496 1947 1850 628 
1453 722 1270 1031 1696 1023 1066 1718 1563 
1881 698 799 1144 1554 1813 1208 451 466 
1340 1831 1271 1745 1401 1391 1572 467 471 
970 1937 594 1385 1912 1675 888 1119 1369 
1602 464 1579 1177 1341 1093 1102 474 580 
1468 1499 1769 506 1533 643 1412 1595 1928 
1414 1890 1959 608 1570 1362 470 597 1679 
1172 1074 919 798 1258 1529 1720 1743 965 
975 1803 1884 841 656 1416 1481 892 1040 
1791 1108 1653 566 853 564 1490 492 1647 
1620 1261 1052 1577 1458 837 934 673 1475 
1682 1606 660 729 962 1960 624 1470 1241 
1608 664 518 1131 1903 1326 966 1638 1858 
1441 1477 1636 759 1784 1070 1825 1552 1255 
1303 797 513 1355 1822 803 805 893 925 
728 1438 1092 936 964 1433 848 1931 1891 
1859 1830 1610 1844 535 1837 1267 1889 469 
1734 1887 810 531 1768 1268 1591 537 1201 
1979 1153 1525 885 1879 1073 1626 1892 1054 
1684 588 1919 991 488 1216 749 981 1037 
473 604 1503 671 630 876 1291 1965 1461 
508 1229 1231 1548 1098 461 475 832 1545 
1125 1104 2000 1387 1360 551 887 1827 522 
1667 1263 696 990 1702 1359 1804 1906 1058 
1911 1422 775 459 565 687 1169 1662 944 
1633 801 1483 1055 820 675 1209 1962 781 
1614 1089 1752 835 670 1462 1576 1980 1101 
1780 1060 1135 1120 969 1978 1582 1361 1487 
1094 487 1223 1121 751 1205 1059 1473 1823 
667 850 987 972 1661 1352 1663 1974 589 
616 496 1916 1254 1932 986 1860 539 807 
886 1936 1118 1084 1930 618 1100 686 1166 
1711 730 1026 1446 763 530 1018 1332 1772 
1004 1835 1616 1935 1622 601 493 755 692 
614 758 1343 1564 1796 1287 740 1966 515 
1495 865 1309 896 1532 1300 1550 1368 1222 
1187 788 498 809 894 935 1740 916 1788 
1632 1573 725 770 1507 1035 1264 1491 1558 
528 1036 1076 1467 1397 632 1707 830 1310 
1834 745 961 901 1197 1333 1569 1282 1494 
1846 1062 575 1064 1269 1504 994 688 1150 
607 999 1126 1318 569 1524 922 682 1770 
645 1049 1701 1863 924 1312 1948 1917 538 
953 1214 1114 895 1613 732 613 1575 1783 
1923 713 1056 511 1925 904 623 705 1775 
1910 523 1048 1371 503 1918 600 1138 1466 
1849 733 1109 1789 1963 802 1192 1247 1276 
1957 1228 1336 738 1808 1867 1972 525 557 
1250 627 641 572 655 790 1722 1764 1732 
1856 472 1204 1708 1219 1944 1809 1798 1041 
1952 561 1078 1196 1184 1741 1134 1043 491 
1418 942 1313 1992 1549 1083 1175 710 1629 
825 1420 800 1455 1897 1260 1666 567 1356 
1818 1370 1810 1290 648 1505 1029 478 1354 
647 1375 1053 1024 1964 1704 1942 1432 1590 
1165 1760 697 1440 547 1802 831 1376 502 
1344 992 1596 1983 1961 1069 678 1735 1670 
984 1383 1379 1514 545 920 988 1358 1047 
1500 1489 1492 1226 646 1724 818 959 1245 
1664 1122 794 1295 1557 1160 499 1607 704 
769 595 1650 1991 1181 1754 529 1585 1009 
1237 736 685 787 867 1357 1790 1251 1350 
1434 1088 1235 1547 1828 1853 620 596 1993 
483 1090 822 519 1139 1660 1939 708 1814 
1571 509 1672 1598 1246 1067 1030 1377 1695 
689 1973 1439 1242 1289 526 1674 1469 1061 
1604 1006 679 681 649 1107 1668 1476 1839 
742 868 796 1210 869 1327 1833 485 1085 
476 611 871 774 917 1546 1297 1623 571 
650 1901 1454 1792 1394 902 1805 1699 1877 
510 1457 1705 603 1142 1739 680 1345 1445 
780 1568 918 870 1116 1512 743 1179 1513 
1152 703 955 468 1431 1392 1915 693 1277 
482 765 1778 945 971 1232 1876 1113 1133 
1516 1273 1968 1642 1703 829 1522 1907 1832 
908 1425 1493 993 1857 546 1363 1065 1958 
1307 1426 1146 1305 1151 777 695 1174 1559 
1940 750 819 1511 1841 558 1224 1396 1746 
1744 1977 836 1348 559 1106 760 1556 631 
1594 1976 1502 1882 1755 1010 1593 1581 677 
1530 1515 1617 1615 1619 1039 1742 910 881 
1969 929 1448 612 744 1580 1000 827 1555 
1926 534 795 657 1353 1821 1429 1812 579 
1646 1921 851 1123 694 824 1478 615 1286 
1510 549 1136 1541 563 578 762 1240 1311 
863 1700 1574 1338 1801 690 1185 1875 1753 
767 1885 1762 699 1148 1390 956 1339 1641 
1967 1028 1899 517 1137 939 1464 973 463 
1079 731 1230 860 1280 1378 1627 1713 1905 
1091 950 1198 847 858 737 941 1782 1322 
1132 1288 785 921 1016 1669 1909 555 1717 
1737 1871 481 958 927 873 1330 1193 1692 
1265 1072 592 928 1095 1408 1611 899 1274 
1996 1012 1472 577 505 1374 1886 724 998 
1306 1168 1509 524 1597 1182 1686 1721 1014 
1393 1008 1950 1315 1759 653 1949 1162 1022 
1637 1239 1723 1955 637 812 1862 1236 1544 
554 634 976 560 857 1278 1795 1800 1588 
977 926 1329 1227 1335 1970 840 1787 1321 
591 576 1645 1521 1592 1847 1851 1221 1141 
1212 1583 1671 719 811 747 1005 1302 1411 
584 663 1256 1161 662 846 1215 1691 804 
937 1158 707 1238 1044 843 1654 1380 715 
514 1057 1325 1587 772 1531 1482 1630 1794 
1266 1651 586 516 815 855 1032 1680 1697 
1777 890 773 1635 1164 1299 933 702 877 
808 1621 1690 963 1279 1436 672 568 1817 
536 1364 1451 1003 786 542 1763 605 1347 
1301 1927 880 1560 1110 500 507 1898 1259 
1747 1824 1316 717 1423 816 766 556 716 
879 1111 721 898 1727 826 1388 900 1449 
1751 756 947 1924 1506 1435 735 1183 1826 
1372 1127 1086 587 980 1207 665 1298 1933 
1097 1689 1497 1797 1253 1154 905 1990 1880 
891 1776 834 512 1405 1693 1395 1027 1848 
1538 1486 1640 1320 734 748 544 1351 821 
1188 669 477 791 1314 1485 1038 1987 638 
619 1019 1218 1766 768 1523 828 504 1386 
711 978 1599 1758 776 1888 1989 982 1413 
610 1471 1033 943 1748 1456 617 1688 1519 
458 1985 1096 1681 1943 606 783 996 683 
1986 1868 1914 490 1954 957 1463 593 598 
1403 1257 1655 1381 813 1639 1624 1075 714 
1410 635 625 1292 1733 1157 706 1843 1997 
989 527 1971 1498 1609 1714 897 1272 1081 
1816 1402 636 543 1296 1946 1562 659 1984 
1115 1786 1443 1998 501 1648 1346 1553 1233 
849 1349 884 859 585 1526 1186 940 1103 
882 497 1709 778 609 1605 1145 582 844 
1731 1020 1528 983 1323 1981 1658 1484 1319 
1002 1243 1657 1698 1437 1202 930 465 932 
1384 1785 913 494 1631 792 1248 1180 1294 
1872 1612 1518 1479 1895 633 823 883 1625 
1659 1913 1536 872 1644 1779 1806 1535 1244 
782 1217 1902 629 1765 979 684 1750 727 
1199 460 639 550 691 676 1710 1900 1774 
726 1567 
type 1 2000 int
1 1 1 1 1 1 1 1 1 
1 1 1 1 1 1 1 1 1 
1 1 1 1 1 1 1 1 1 
1 1 1 1 1 1 1 1 1 
1 1 1 1 1 1 1 1 1 
1 1 1 1 1 1 1 1 1 
1 1 1 1 1 1 1 1 1 
1 1 1 1 1 1 1 1 1 
1 1 1 1 1 1 1 1 1 
1 1 1 1 1 1 1 1 1 
1 1 1 1 1 1 1 1 1 
1 1 1 1 1 1 1 1 1 
1 1 1 1 1 1 1 1 1 
1 1 1 1 1 1 1 1 1 
1 1 1 1 1 1 1 1 1 
1 1 1 1 1 1 1 1 1 
1 1 1 1 1 1 1 1 1 
1 1 1 1 1 1 1 1 1 
1 1 1 1 1 1 1 1 1 
1 1 1 1 1 1 1 1 1 
1 1 1 1 1 1 1 1 1 
1 1 1 1 1 1 1 1 1 
1 1 1 1 1 1 1 1 1 
1 1 1 1 1 1 1 1 1 
1 1 1 1 1 1 1 1 1 
1 1 1 1 1 1 1 1 1 
1 1 1 1 1 1 1 1 1 
1 1 1 1 1 1 1 1 1 
1 1 1 1 1 1 1 1 1 
1 1 1 1 1 1 1 1 1 
1 1 1 1 1 1 1 1 1 
1 1 1 1 1 1 1 1 1 
1 1 1 1 1 1 1 1 1 
1 1 1 1 1 1 1 1 1 
1 1 1 1 1 1 1 1 1 
1 1 1 1 1 1 1 1 1 
1 1 1 1 1 1 1 1 1 
1 1 1 1 1 1 1 1 1 
1 1 1 1 1 1 1 1 1 
1 1 1 1 1 1 1 1 1 
1 1 1 1 1 1 1 1 1 
1 1 1 1 1 1 1 1 1 
1 1 1 1 1 1 1 1 1 
1 1 1 1 1 1 1 1 1 
1 1 1 1 1 1 1 1 1 
1 1 1 1 1 1 1 1 1 
1 1 1 1 1 1 1 1 1 
1 1 1 1 1 1 1 1 1 
1 1 1 1 1 1 1 1 1 
1 1 1 1 1 1 1 1 1 
1 1 1 1 1 1 1 1 1 
1 1 1 1 1 1 1 1 1 
1 1 1 1 1 1 1 1 1 
1 1 1 1 1 1 1 1 1 
1 1 1 1 1 1 1 1 1 
1 1 1 1 1 1 1 1 1 
1 1 1 1 1 1 1 1 1 
1 1 1 1 1 1 1 1 1 
1 1 1 1 1 1 1 1 1 
1 1 1 1 1 1 1 1 1 
1 1 1 1 1 1 1 1 1 
1 1 1 1 1 1 1 1 1 
1 1 1 1 1 1 1 1 1 
1 1 1 1 1 1 1 1 1 
1 1 1 1 1 1 1 1 1 
1 1 1 1 1 1 1 1 1 
1 1 1 1 1 1 1 1 1 
1 1 1 1 1 1 1 1 1 
1 1 1 1 1 1 1 1 1 
1 1 1 1 1 1 1 1 1 
1 1 1 1 1 1 1 1 1 
1 1 1 1 1 1 1 1 1 
1 1 1 1 1 1 1 1 1 
1 1 1 1 1 1 1 1 1 
1 1 1 1 1 1 1 1 1 
1 1 1 1 1 1 1 1 1 
1 1 1 1 1 1 1 1 1 
1 1 1 1 1 1 1 1 1 
1 1 1 1 1 1 1 1 1 
1 1 1 1 1 1 1 1 1 
1 1 1 1 1 1 1 1 1 
1 1 1 1 1 1 1 1 1 
1 1 1 1 1 1 1 1 1 
1 1 1 1 1 1 1 1 1 
1 1 1 1 1 1 1 1 1 
1 1 1 1 1 1 1 1 1 
1 1 1 1 1 1 1 1 1 
1 1 1 1 1 1 1 1 1 
1 1 1 1 1 1 1 1 1 
1 1 1 1 1 1 1 1 1 
1 1 1 1 1 1 1 1 1 
1 1 1 1 1 1 1 1 1 
1 1 1 1 1 1 1 1 1 
1 1 1 1 1 1 1 1 1 
1 1 1 1 1 1 1 1 1 
1 1 1 1 1 1 1 1 1 
1 1 1 1 1 1 1 1 1 
1 1 1 1 1 1 1 1 1 
1 1 1 1 1 1 1 1 1 
1 1 1 1 1 1 1 1 1 
1 1 1 1 1 1 1 1 1 
1 1 1 1 1 1 1 1 1 
1 1 1 1 1 1 1 1 1 
1 1 1 1 1 1 1 1 1 
1 1 1 1 1 1 1 1 1 
1 1 1 1 1 1 1 1 1 
1 1 1 1 1 1 1 1 1 
1 1 1 1 1 1 1 1 1 
1 1 1 1 1 1 1 1 1 
1 1 1 1 1 1 1 1 1 
1 1 1 1 1 1 1 1 1 
1 1 1 1 1 1 1 1 1 
1 1 1 1 1 1 1 1 1 
1 1 1 1 1 1 1 1 1 
1 1 1 1 1 1 1 1 1 
1 1 1 1 1 1 1 1 1 
1 1 1 1 1 1 1 1 1 
1 1 1 1 1 1 1 1 1 
1 1 1 1 1 1 1 1 1 
1 1 1 1 1 1 1 1 1 
1 1 1 1 1 1 1 1 1 
1 1 1 1 1 1 1 1 1 
1 1 1 1 1 1 1 1 1 
1 1 1 1 1 1 1 1 1 
1 1 1 1 1 1 1 1 1 
1 1 1 1 1 1 1 1 1 
1 1 1 1 1 1 1 1 1 
1 1 1 1 1 1 1 1 1 
1 1 1 1 1 1 1 1 1 
1 1 1 1 1 1 1 1 1 
1 1 1 1 1 1 1 1 1 
1 1 1 1 1 1 1 1 1 
1 1 1 1 1 1 1 1 1 
1 1 1 1 1 1 1 1 1 
1 1 1 1 1 1 1 1 1 
1 1 1 1 1 1 1 1 1 
1 1 1 1 1 1 1 1 1 
1 1 1 1 1 1 1 1 1 
1 1 1 1 1 1 1 1 1 
1 1 1 1 1 1 1 1 1 
1 1 1 1 1 1 1 1 1 
1 1 1 1 1 1 1 1 1 
1 1 1 1 1 1 1 1 1 
1 1 1 1 1 1 1 1 1 
1 1 1 1 1 1 1 1 1 
1 1 1 1 1 1 1 1 1 
1 1 1 1 1 1 1 1 1 
1 1 1 1 1 1 1 1 1 
1 1 1 1 1 1 1 1 1 
1 1 1 1 1 1 1 1 1 
1 1 1 1 1 1 1 1 1 
1 1 1 1 1 1 1 1 1 
1 1 1 1 1 1 1 1 1 
1 1 1 1 1 1 1 1 1 
1 1 1 1 1 1 1 1 1 
1 1 1 1 1 1 1 1 1 
1 1 1 1 1 1 1 1 1 
1 1 1 1 1 1 1 1 1 
1 1 1 1 1 1 1 1 1 
1 1 1 1 1 1 1 1 1 
1 1 1 1 1 1 1 1 1 
1 1 1 1 1 1 1 1 1 
1 1 1 1 1 1 1 1 1 
1 1 1 1 1 1 1 1 1 
1 1 1 1 1 1 1 1 1 
1 1 1 1 1 1 1 1 1 
1 1 1 1 1 1 1 1 1 
1 1 1 1 1 1 1 1 1 
1 1 1 1 1 1 1 1 1 
1 1 1 1 1 1 1 1 1 
1 1 1 1 1 1 1 1 1 
1 1 1 1 1 1 1 1 1 
1 1 1 1 1 1 1 1 1 
1 1 1 1 1 1 1 1 1 
1 1 1 1 1 1 1 1 1 
1 1 1 1 1 1 1 1 1 
1 1 1 1 1 1 1 1 1 
1 1 1 1 1 1 1 1 1 
1 1 1 1 1 1 1 1 1 
1 1 1 1 1 1 1 1 1 
1 1 1 1 1 1 1 1 1 
1 1 1 1 1 1 1 1 1 
1 1 1 1 1 1 1 1 1 
1 1 1 1 1 1 1 1 1 
1 1 1 1 1 1 1 1 1 
1 1 1 1 1 1 1 1 1 
1 1 1 1 1 1 1 1 1 
1 1 1 1 1 1 1 1 1 
1 1 1 1 1 1 1 1 1 
1 1 1 1 1 1 1 1 1 
1 1 1 1 1 1 1 1 1 
1 1 1 1 1 1 1 1 1 
1 1 1 1 1 1 1 1 1 
1 1 1 1 1 1 1 1 1 
1 1 1 1 1 1 1 1 1 
1 1 1 1 1 1 1 1 1 
1 1 1 1 1 1 1 1 1 
1 1 1 1 1 1 1 1 1 
1 1 1 1 1 1 1 1 1 
1 1 1 1 1 1 1 1 1 
1 1 1 1 1 1 1 1 1 
1 1 1 1 1 1 1 1 1 
1 1 1 1 1 1 1 1 1 
1 1 1 1 1 1 1 1 1 
1 1 1 1 1 1 1 1 1 
1 1 1 1 1 1 1 1 1 
1 1 1 1 1 1 1 1 1 
1 1 1 1 1 1 1 1 1 
1 1 1 1 1 1 1 1 1 
1 1 1 1 1 1 1 1 1 
1 1 1 1 1 1 1 1 1 
1 1 1 1 1 1 1 1 1 
1 1 1 1 1 1 1 1 1 
1 1 1 1 1 1 1 1 1 
1 1 1 1 1 1 1 1 1 
1 1 1 1 1 1 1 1 1 
1 1 1 1 1 1 1 1 1 
1 1 1 1 1 1 1 1 1 
1 1 1 1 1 1 1 1 1 
1 1 1 1 1 1 1 1 1 
1 1 1 1 1 1 1 1 1 
1 1 1 1 1 1 1 1 1 
1 1 
i 3 2000 int
0 0 0 0 0 0 0 0 0 
0 0 0 0 0 0 0 0 0 
0 0 0 0 0 0 0 0 0 
0 0 0 0 0 0 0 0 0 
0 0 0 0 0 0 0 0 0 
0 0 0 0 0 0 0 0 0 
0 0 0 0 0 0 0 1 0 
0 0 0 0 0 0 0 0 0 
0 0 0 0 0 0 0 0 0 
0 0 0 0 0 0 0 0 0 
0 0 0 0 0 0 0 0 0 
0 0 0 0 0 0 0 0 0 
0 0 0 0 0 0 0 0 0 
0 0 0 0 0 0 -1 0 0 
0 0 0 0 0 0 0 0 0 
0 0 0 0 0 0 0 0 0 
0 0 0 0 0 0 0 0 0 
0 0 0 0 1 0 0 0 0 
0 0 0 0 0 0 0 0 0 
0 0 0 0 0 0 0 0 0 
0 0 0 0 0 0 0 0 0 
0 0 0 0 0 0 0 0 0 
0 0 0 0 0 0 0 0 0 
0 0 0 0 0 0 0 0 0 
0 0 0 0 0 0 0 0 0 
0 0 0 0 0 0 0 0 0 
0 0 0 0 0 0 0 0 0 
0 0 0 0 0 0 0 0 0 
0 0 0 0 0 0 0 0 0 
0 0 0 0 0 0 0 0 0 
0 0 0 0 0 0 0 0 0 
0 0 0 0 0 0 0 0 0 
0 0 0 0 0 0 0 0 0 
0 0 0 0 0 0 0 0 0 
0 0 0 0 0 0 0 0 0 
0 0 0 0 0 0 0 0 0 
0 0 0 0 0 0 0 0 0 
0 0 0 0 0 0 0 0 0 
0 0 0 0 0 0 0 0 0 
0 0 0 0 0 0 0 0 0 
0 0 0 0 0 0 0 0 0 
0 0 0 0 0 0 0 0 0 
0 0 0 0 0 0 0 0 0 
0 0 0 0 0 0 0 0 0 
0 0 0 0 0 0 0 0 0 
0 0 0 0 0 0 0 0 0 
0 0 0 0 0 0 0 0 0 
0 0 0 0 0 0 0 0 0 
0 0 0 -1 0 0 0 0 0 
0 0 0 0 0 0 0 0 0 
0 0 0 0 0 0 0 0 0 
0 0 0 0 0 0 0 0 0 
0 0 0 0 0 0 0 0 0 
0 0 0 0 0 0 0 0 0 
0 0 0 0 0 0 0 0 0 
0 0 0 0 0 0 0 0 0 
0 0 0 0 0 0 0 0 0 
0 0 0 0 0 0 0 0 0 
0 0 0 0 0 0 0 0 0 
0 0 0 0 0 0 0 0 0 
0 0 0 0 0 0 0 0 0 
0 0 0 0 0 0 0 0 0 
0 0 0 0 0 0 0 0 0 
0 0 0 0 0 0 0 0 0 
0 0 0 0 0 0 0 0 0 
0 0 0 0 0 0 0 0 0 
0 0 0 0 0 0 0 -1 0 
0 0 0 0 0 0 1 0 0 
0 0 0 0 -1 0 0 0 0 
0 0 0 0 0 0 0 0 0 
0 0 0 0 0 0 0 0 0 
0 0 0 0 0 0 0 0 0 
0 0 0 0 0 0 0 0 0 
0 0 0 0 0 0 0 0 0 
0 0 0 0 0 0 0 0 0 
0 0 0 0 0 0 0 0 0 
0 0 0 0 0 0 0 0 0 
0 0 0 0 0 0 0 0 0 
0 0 0 0 0 0 0 0 0 
0 0 0 0 0 0 0 0 0 
0 0 0 0 0 0 0 0 0 
0 0 0 0 0 0 0 0 0 
0 0 0 0 0 0 0 0 0 
0 0 0 0 0 0 0 0 0 
0 0 0 0 0 0 0 0 0 
0 0 0 0 0 0 0 0 0 
0 0 0 1 0 0 0 0 0 
0 0 0 0 0 0 0 0 0 
0 0 0 0 0 0 0 0 0 
0 0 0 0 0 0 0 0 0 
0 0 0 0 0 0 0 0 0 
0 1 0 0 0 0 0 0 0 
0 0 0 0 0 0 0 0 0 
0 0 0 0 0 0 0 0 0 
0 0 0 0 0 0 0 0 0 
0 0 0 0 0 0 0 0 0 
0 0 0 0 0 0 0 0 0 
0 0 0 0 0 0 0 0 0 
0 0 0 0 0 0 0 0 0 
0 0 0 0 0 0 0 0 0 
0 0 0 0 0 0 0 0 0 
0 0 0 0 0 0 0 0 0 
0 0 0 0 0 0 0 0 0 
0 0 0 0 0 0 0 0 0 
0 0 0 0 0 0 0 0 0 
-1 0 0 0 0 0 0 0 0 
0 0 0 0 0 0 0 0 0 
0 0 0 0 0 0 0 0 0 
0 0 0 0 0 0 1 0 0 
0 0 0 0 0 0 0 0 0 
0 0 0 0 0 0 0 0 0 
0 0 0 0 0 0 0 0 0 
0 0 0 0 0 0 0 0 0 
0 0 0 0 0 0 0 0 0 
0 0 0 0 0 0 0 0 0 
0 0 0 0 0 0 0 0 0 
0 0 0 0 0 0 0 0 0 
0 0 0 0 0 0 0 0 0 
0 0 0 0 0 0 0 0 0 
0 0 0 0 0 0 0 0 0 
-1 0 0 0 0 0 0 0 0 
0 0 0 0 0 0 0 0 0 
0 0 0 0 0 0 0 0 0 
0 0 0 0 0 0 0 0 0 
1 0 0 0 0 0 0 0 0 
0 0 0 0 0 0 0 0 0 
1 0 0 0 0 0 0 0 0 
0 0 0 0 0 0 0 0 0 
0 0 0 1 0 0 0 0 0 
0 0 0 0 0 0 0 0 0 
0 0 0 0 0 0 0 0 0 
0 0 0 0 0 0 0 0 0 
0 0 0 0 0 0 0 0 0 
0 0 0 0 0 0 0 0 0 
0 0 0 0 0 0 0 0 0 
0 0 0 0 0 0 0 0 0 
0 0 0 0 0 0 0 0 0 
0 0 0 0 0 0 0 0 0 
0 0 0 0 0 0 0 0 0 
0 0 0 0 0 0 0 0 0 
0 0 0 0 0 0 0 0 0 
0 0 0 0 0 0 0 0 0 
0 0 0 0 0 0 0 0 0 
0 0 0 0 0 0 0 0 0 
0 0 0 0 0 0 0 0 0 
0 0 0 0 0 0 0 0 0 
0 0 0 0 0 0 0 0 0 
0 0 0 0 0 0 0 0 0 
0 0 0 0 0 0 0 0 0 
0 0 0 0 0 0 0 0 0 
0 0 0 0 0 0 1 0 0 
0 0 0 0 0 0 1 0 0 
0 0 0 0 0 0 0 0 0 
0 0 0 0 0 0 0 0 0 
0 0 0 0 0 0 0 0 0 
0 0 0 0 0 0 0 0 0 
0 0 0 0 0 0 0 0 0 
0 0 0 0 0 0 0 0 0 
0 0 0 0 0 0 0 0 0 
0 0 0 0 0 0 0 0 0 
0 0 0 0 0 0 0 0 0 
0 0 0 0 0 0 0 0 0 
0 0 0 0 0 0 0 0 0 
0 0 0 0 0 0 0 0 0 
0 0 0 0 0 0 0 0 0 
-1 0 0 0 0 0 0 0 0 
0 0 0 0 0 0 0 0 0 
0 0 0 0 0 0 0 0 0 
0 0 0 0 0 0 0 0 0 
0 0 0 0 0 0 0 0 0 
0 -1 0 0 0 0 0 -1 0 
0 0 0 0 0 0 0 0 0 
0 0 0 0 0 0 0 0 0 
0 0 0 0 0 0 0 0 0 
0 0 0 0 0 0 0 0 0 
0 0 0 0 0 0 0 -1 0 
0 0 0 0 0 0 0 0 0 
0 0 0 0 0 0 0 0 0 
0 0 0 0 0 0 0 -1 0 
0 0 0 0 -1 0 0 0 0 
0 0 0 0 -1 0 0 0 0 
0 0 0 0 0 0 0 0 0 
0 0 0 0 0 0 0 0 0 
0 0 0 0 0 0 0 0 0 
0 0 0 0 -1 0 0 0 0 
0 0 0 0 0 0 0 0 0 
0 0 0 0 0 0 0 0 0 
0 0 0 0 0 0 0 0 0 
0 0 0 0 0 0 0 0 0 
0 -1 0 0 0 0 0 0 0 
0 0 0 -1 0 0 0 -1 0 
-1 0 0 0 0 0 0 0 0 
0 0 0 0 0 0 0 0 0 
0 0 0 0 0 0 0 0 0 
0 0 0 0 0 0 0 0 0 
0 0 0 0 0 0 0 0 0 
0 0 0 0 0 0 0 0 0 
0 0 0 0 0 0 0 0 0 
0 1 0 0 0 0 0 0 0 
0 1 0 0 0 0 0 0 0 
0 0 0 0 0 0 0 0 0 
0 0 0 0 0 0 0 0 0 
0 0 0 0 0 0 0 0 0 
0 0 0 0 0 0 0 0 0 
0 0 0 0 0 0 0 1 0 
0 0 0 0 0 0 0 0 0 
0 0 0 0 0 0 0 0 0 
0 0 0 0 0 0 0 0 0 
0 0 0 0 1 0 0 0 0 
0 0 0 0 1 0 0 0 0 
0 0 0 0 0 0 0 0 0 
0 0 0 0 0 0 0 0 0 
0 0 0 0 0 0 0 0 0 
0 0 0 0 0 0 0 0 0 
0 0 0 0 0 0 0 0 0 
0 0 0 0 0 0 0 0 0 
1 0 0 0 0 0 0 0 0 
0 0 0 0 0 0 0 0 0 
0 0 0 0 0 0 0 0 0 
0 0 0 0 0 0 0 0 0 
0 0 0 0 0 0 0 0 0 
0 0 0 0 0 0 0 0 0 
0 0 0 0 0 0 0 0 0 
0 0 0 0 0 0 0 0 0 
0 0 0 0 0 0 0 0 0 
0 0 0 0 0 0 0 0 0 
0 0 0 0 0 0 0 0 0 
0 0 0 0 0 0 0 0 0 
0 0 0 0 0 0 0 0 0 
0 0 0 0 0 0 -1 0 0 
0 0 0 0 0 0 0 0 0 
0 0 0 0 0 0 0 0 0 
0 0 0 0 0 0 0 0 0 
0 0 0 0 0 0 0 0 0 
0 0 0 0 0 0 0 0 0 
0 0 0 0 0 0 0 0 0 
0 0 0 0 0 0 0 0 0 
0 0 0 0 0 0 0 0 0 
0 0 0 0 0 0 0 0 0 
0 0 0 0 0 0 0 0 0 
0 0 0 0 0 0 0 0 0 
0 0 0 0 0 0 0 0 0 
0 0 0 0 0 0 0 0 0 
0 0 0 0 0 0 0 0 0 
0 0 0 0 0 0 0 0 0 
0 0 0 0 0 0 0 0 0 
0 0 0 0 0 0 0 0 0 
0 0 0 0 0 0 0 0 0 
0 0 0 0 0 0 0 0 0 
0 0 0 0 0 0 0 0 0 
-1 0 0 0 0 0 0 0 0 
0 0 0 0 0 0 0 0 0 
0 0 0 0 0 0 0 0 0 
0 0 0 0 0 0 0 0 0 
0 0 0 0 0 0 0 0 0 
0 0 0 0 0 0 0 0 0 
0 0 0 0 0 0 0 0 0 
1 0 0 0 0 0 0 0 0 
1 0 0 0 0 0 1 0 0 
0 0 0 0 0 0 0 0 0 
0 0 0 0 0 0 0 0 0 
0 0 0 0 0 0 0 0 0 
0 0 0 0 0 0 0 0 0 
0 0 0 0 0 0 0 0 0 
0 0 0 0 0 0 0 0 0 
0 0 0 0 0 0 0 0 0 
0 0 0 0 0 0 0 0 0 
0 0 0 0 0 0 0 0 0 
0 0 0 0 0 0 0 0 0 
0 0 0 0 0 0 0 0 0 
0 0 0 0 0 0 0 0 0 
0 0 0 0 0 0 0 0 0 
0 0 0 0 0 0 0 0 0 
0 0 0 0 0 0 0 0 0 
0 0 0 0 0 0 0 0 0 
0 0 0 0 0 0 0 0 0 
0 0 0 0 -1 0 0 0 0 
0 0 0 0 0 0 0 0 0 
0 0 0 0 0 0 0 0 0 
0 0 0 0 0 0 0 0 0 
0 0 0 0 -1 0 0 0 0 
0 0 0 0 0 0 0 0 0 
0 0 0 0 0 0 0 0 0 
0 0 0 0 0 0 0 0 0 
0 0 0 0 0 0 0 0 0 
0 0 0 0 0 0 0 0 0 
0 0 0 0 0 0 0 0 0 
0 0 0 0 0 0 0 0 0 
0 0 0 0 0 0 0 0 0 
0 0 0 0 0 0 0 -1 0 
0 0 0 0 0 0 -1 0 0 
0 0 0 0 0 0 0 0 0 
0 0 0 0 0 0 0 0 0 
0 0 0 0 0 0 0 0 0 
0 0 0 0 0 0 0 0 0 
0 0 0 0 0 0 0 0 0 
0 0 0 0 0 0 0 0 0 
0 0 0 0 0 0 0 0 0 
0 0 0 0 0 0 0 1 0 
0 0 0 1 0 0 0 0 0 
0 0 0 0 0 0 0 0 0 
0 0 0 0 0 0 0 0 0 
0 0 0 0 0 0 0 0 0 
0 0 0 0 0 0 0 1 0 
0 0 0 0 0 0 0 0 0 
0 0 0 0 0 0 0 0 0 
0 1 0 0 0 0 0 0 0 
0 0 0 0 0 0 0 0 0 
0 0 0 0 0 0 0 0 0 
0 0 0 0 1 0 0 0 0 
0 0 0 0 0 0 0 0 0 
0 0 0 0 0 0 0 0 0 
0 0 0 0 0 0 0 0 0 
0 1 0 0 0 0 0 1 0 
0 0 0 0 0 0 0 0 0 
0 0 0 0 0 0 0 0 0 
0 0 0 0 0 0 0 0 0 
0 0 0 0 0 0 0 0 0 
0 0 0 0 0 0 0 0 0 
0 0 0 0 0 0 0 0 0 
0 0 0 0 0 0 0 0 0 
0 0 0 0 0 0 0 0 0 
0 0 0 0 0 0 0 0 0 
0 0 0 0 0 0 0 0 0 
0 0 0 0 0 0 0 0 0 
0 0 0 0 0 0 0 0 0 
0 0 0 0 0 0 0 0 0 
0 0 0 0 0 0 0 0 0 
0 0 0 0 0 0 0 0 0 
0 0 0 0 0 0 0 0 0 
0 0 0 -1 0 0 -1 0 0 
0 0 0 0 0 0 0 0 0 
0 0 0 0 0 0 0 0 0 
0 0 0 0 0 0 0 0 0 
0 0 0 0 0 0 0 0 0 
0 0 0 0 0 0 0 0 0 
0 0 0 0 0 0 0 0 0 
0 0 0 0 0 0 0 0 0 
0 0 0 0 0 0 0 0 0 
0 0 0 0 0 0 0 0 0 
0 0 0 0 0 0 0 0 0 
0 0 0 0 0 0 0 0 0 
0 0 0 0 0 0 0 0 0 
0 0 0 0 0 0 0 0 0 
0 0 0 0 0 0 0 0 0 