# vtk DataFile Version 4.0
Generated by LIGGGHTS
ASCII
DATASET POLYDATA
POINTS 2000 float
-100.172 -85.1726 9.91179 -90.2481 -103.062 9.91645 -108.784 -133.136 9.91903 
-120.76 -117.167 9.91816 -88.8982 -131.415 9.91891 -128.6 -135.518 9.91613 
-128.082 -98.5994 9.91886 -109.293 -101.923 15.7775 -115.612 -129.412 28.8926 
-98.1664 -117.645 21.0027 -131.853 -117.823 28.3536 -121.716 -100.899 31.3624 
-96.5499 -135.086 30.5629 -43.564 -113.589 9.91877 -44.3575 -133.532 9.91847 
-55.1508 -91.198 9.91877 -61.6049 -122.127 9.91908 -70.3196 -104.17 9.91905 
-59.7128 -112.116 27.0823 -78.7671 -121.362 23.8724 -57.9178 -135.293 24.4603 
-77.4883 -140.687 28.6971 -70.8039 -139.84 9.91532 -27.5587 -96.0428 9.91875 
8.54712 -102.264 9.91877 -9.95805 -137.003 9.9195 27.7757 -96.9127 9.91894 
-8.16035 -91.3445 9.91874 21.8588 -124.794 9.91958 -26.1572 -125.341 9.91712 
21.859 -103.843 27.6777 2.2285 -121.197 9.91746 19.7795 -123.588 29.7363 
7.4572 -138.2 19.6029 13.8333 -86.48 21.9778 35.1919 -86.4732 25.2277 
81.3146 -88.334 9.91885 38.487 -113.756 9.91925 49.0873 -93.9491 9.91877 
37.2295 -129.91 21.576 69.8451 -117.798 24.7945 140.923 -100.214 26.5597 
119.18 -123.838 9.91886 136.847 -110.447 9.91733 117.987 -103.915 9.91791 
101.329 -114.906 9.91863 100.914 -133.77 25.3808 121.154 -100.36 29.2992 
100.138 -94.9811 9.91875 136.674 -128.563 18.2856 135.664 -90.5245 9.91913 
122.257 -120.284 29.3165 102.206 -94.1003 29.7507 103.669 -113.801 32.5893 
-95.2087 -30.5783 25.8144 -124.414 -57.1898 9.91912 -93.4753 -56.448 24.1558 
-140.668 -45.6077 9.92034 -118.56 -38.1113 9.92181 -106.657 -66.2994 9.91997 
-91.5706 -42.0861 9.9185 -115.008 -49.6431 25.8244 -111.082 -78.3864 25.1786 
-129.899 -63.489 28.0465 -131.018 -37.7269 25.517 -134.863 -74.1929 9.9162 
-130.308 -83.4172 27.0153 -113.786 -31.0924 33.0903 -81.3541 -64.4434 9.91876 
-38.8957 -79.616 9.91884 -33.3277 -58.1868 9.91852 -62.5662 -72.6675 9.91875 
-59.9668 -41.1568 24.7929 -48.1621 -73.9898 26.6776 -26.3704 -40.2503 15.2341 
11.4538 -55.6176 9.91529 -8.3126 -58.3867 9.91886 -4.90486 -38.7206 9.91869 
3.0242 -74.8135 9.91875 26.5932 -76.987 9.9182 -19.4974 -74.9176 9.91877 
12.7966 -59.4025 29.46 -20.8069 -56.5208 25.3717 -5.70347 -44.0289 29.1423 
-26.6241 -40.1488 35.1911 63.2352 -79.8706 9.91924 45.3694 -72.6173 15.0892 
61.1648 -60.0196 9.91827 79.3921 -68.1511 9.91877 31.3161 -57.5939 9.91305 
70.9847 -37.0326 9.91961 46.6703 -53.5042 21.9926 72.3967 -51.2291 23.8796 
57.7275 -37.1327 24.8411 31.514 -66.1597 27.9288 86.5551 -49.5211 9.91797 
98.7175 -77.4379 19.3314 111.051 -64.8821 9.91876 99.2819 -34.1462 9.91919 
130.882 -62.613 9.9185 116.802 -83.9936 9.91877 119.002 -46.5763 9.91591 
135.147 -52.9758 27.41 133.186 -76.5837 23.9844 129.497 -30.726 15.9869 
116.981 -81.5581 34.5172 133.747 -34.6092 35.0939 -134.172 -25.6787 9.9185 
-111.181 7.28365 9.92094 -96.2068 -5.91532 9.91934 -123.997 -8.01873 9.91871 
-85.8329 -22.9691 9.92029 -109.225 -18.5449 18.2523 -115.795 -1.87506 27.045 
-112.89 17.8684 26.7611 -128.04 22.7211 9.91877 -139.109 0.992703 33.1127 
-108.718 27.7245 9.91733 -82.444 -14.5642 27.7045 -34.2845 -22.7126 9.9193 
-50.2619 4.94002 9.91482 -31.1214 17.0529 9.91739 -31.9044 -2.89339 9.91877 
-78.0675 19.9804 24.7984 -43.4431 15.3387 25.521 -55.3233 -6.53597 25.4347 
24.3605 -26.7598 24.7982 -14.3862 -21.1573 9.91877 -13.6117 7.48696 10.4372 
9.27476 5.83925 9.91876 19.0291 7.2626 30.7215 29.188 4.48612 9.91909 
55.8565 -24.012 9.91858 38.43 10.8489 33.7472 78.7759 24.1071 23.8704 
47.2399 -4.02567 9.91813 45.5875 15.8653 9.91877 64.7475 21.4603 9.91932 
82.1019 10.2407 9.91219 52.9779 23.7131 29.1401 83.7127 -21.6569 9.9193 
140.76 -17.8382 26.8562 101.4 -12.4056 9.91935 139.994 0.589851 9.9192 
124.768 -12.3148 9.91728 113.121 -21.7809 23.0767 112.977 17.0167 24.7943 
-93.0649 66.3748 9.91975 -115.185 46.6051 9.91769 -95.2253 46.5339 9.91861 
-136.899 77.5176 9.91705 -135.15 57.6322 9.91703 -126.49 38.476 24.217 
-86.8408 81.7628 21.0028 -85.0813 53.8754 29.5759 -140.415 38.3802 9.91874 
-107.769 35.3575 34.9101 -45.4463 30.9559 9.91877 -30.2408 75.6187 24.7949 
-60.1353 65.3216 9.91969 -59.2447 45.3814 9.91868 -30.3413 44.0021 9.91873 
-76.9595 54.5821 9.91877 -65.0623 74.004 27.2047 -61.2488 50.2961 29.1591 
-70.041 82.6496 9.91851 18.6702 75.7638 9.91392 0.384325 67.7678 9.91824 
0.285683 36.1517 24.7941 16.4835 66.9738 27.6884 30.7812 53.1325 26.2229 
31.4181 41.6455 9.91672 50.323 35.2554 9.91877 68.7842 42.8316 9.91877 
71.47 62.6073 9.91548 34.7379 63.9255 9.91481 67.2939 39.2521 29.9513 
47.7038 42.9606 29.0985 52.9974 55.0385 9.91877 69.8982 58.8511 32.6592 
33.3449 30.1405 34.3828 84.4089 51.9983 20.7852 87.3681 68.4485 31.6925 
87.3494 35.5205 9.91706 128.761 66.0603 9.91877 90.8371 67.4514 9.91708 
109.57 74.3468 9.91875 103.541 47.1936 9.91963 123.497 46.8194 9.91562 
104.102 59.325 25.7614 132.561 50.4144 27.3311 119.052 72.451 27.3793 
135.736 83.4043 27.13 -90.6056 97.9286 9.91871 -115.124 117.889 24.7964 
-139.158 97.3486 9.91877 -84.8502 127.005 9.91877 -37.9898 119.432 9.9189 
-54.2919 130.948 9.91817 -32.6355 110.415 26.9011 -41.5436 135.297 24.6456 
-66.9076 108.345 33.3882 -28.1588 136.803 9.91826 20.6333 132.348 9.92131 
-1.97445 89.7883 9.9202 0.307723 127.881 9.91763 -6.68061 109.185 9.91767 
23.0367 95.2334 9.91933 9.68874 96.3878 24.7154 13.0034 112.484 9.91832 
-15.9861 123.319 20.4985 -2.62554 111.405 29.3323 12.4595 124.084 26.1498 
25.2207 108.483 28.006 26.9916 139.364 34.6473 -4.25984 130.477 34.9781 
48.7253 140.674 9.91879 67.0294 132.716 9.91817 32.9617 112.545 9.91748 
51.2815 120.462 9.91643 36.8531 128.697 20.9711 54.0275 88.9696 24.7945 
70.4558 119.807 24.7531 56.3631 132.547 30.8631 83.6676 121.7 9.91745 
88.3235 84.667 19.6924 90.6497 140.397 9.91837 85.3483 101.813 9.91875 
125.917 85.8048 9.91887 101.728 113.219 9.91858 130.231 136.509 9.91687 
110.606 140.139 9.9194 103.415 93.3324 9.9227 135.274 117.201 9.91668 
99.7267 128.412 23.3706 118.417 123.114 18.8155 119.745 104.735 11.1636 
133.62 131.24 28.8688 114.864 134.186 35.0352 -90.7485 -118.224 39.5229 
-131.569 -134.076 39.9357 -120.42 -118.222 44.7065 -104.745 -130.11 48.0657 
-122.027 -133.493 57.4566 -129.646 -116.942 65.5929 -133.951 -137.363 73.6106 
-95.8741 -87.0486 82.4694 -138.709 -107.496 80.6553 -92.5941 -130.689 63.8868 
-45.8438 -123.794 35.4274 -44.9832 -91.5677 35.5806 -84.517 -113.454 57.8723 
-82.2552 -134.62 47.1019 -44.4807 -117.142 54.1945 -34.5946 -100.855 65.4471 
-67.3332 -129.305 59.2418 -70.9676 -118.942 42.0856 -50.4533 -96.5575 54.1153 
-84.3602 -97.7202 70.1495 -64.9686 -109.496 58.6145 -42.7622 -136.658 50.3747 
-63.5459 -140.219 42.967 -54.1624 -120.44 71.3345 -76.3185 -114.157 78.1102 
-61.0693 -101.392 76.4334 -61.1817 -139.967 74.9525 -42.1154 -136.319 70.3201 
-38.9718 -88.536 83.457 -79.7569 -133.8 78.847 -30.3584 -120.197 67.9619 
-43.2405 -108.008 82.4888 -79.2724 -85.2604 37.9052 -32.3673 -131.754 87.1253 
-13.8915 -110.077 38.8529 19.9784 -113.272 46.8218 8.51647 -136.874 39.4919 
10.3627 -127.488 57.0072 10.5298 -108.726 63.8079 -8.20357 -139.116 57.4296 
-3.82155 -87.0254 63.1032 14.97 -94.3466 50.7057 3.28578 -134.514 74.2945 
-16.6379 -135.355 75.1231 14.0072 -90.568 71.3375 24.755 -125.451 70.6871 
30.4539 -107.953 62.9555 33.024 -96.3532 42.4321 36.7095 -114.683 35.4401 
44.7439 -136.007 40.8951 58.5941 -131.979 54.68 40.2734 -124.249 56.3947 
64.7555 -119.99 69.3765 48.0999 -107.058 49.9474 47.9329 -99.23 68.3053 
71.451 -105.39 57.5282 43.2715 -117.471 74.9289 30.891 -88.0957 60.9921 
71.1213 -138.892 68.6053 31.4365 -96.342 79.1605 53.2405 -134.695 76.4117 
73.0447 -128.386 85.4706 31.0308 -140.607 82.061 81.4726 -126.91 56.4576 
140.702 -110.851 50.5765 140.32 -130.137 56.6865 87.7288 -98.8045 48.04 
92.1993 -137.605 42.9294 129.702 -135.033 40.5133 101.617 -112.462 52.396 
121.049 -113.062 47.8835 110.543 -129.769 42.3946 129.307 -94.9312 46.6888 
100.73 -131.004 59.7299 109.422 -94.5411 48.3551 120.607 -129.203 59.6151 
98.4732 -97.4895 65.2133 114.462 -109.248 67.3295 110.637 -128.515 76.8832 
91.7969 -115.817 69.4446 116.122 -89.5516 70.0973 133.128 -124.122 74.3061 
131.948 -91.1462 82.1509 104.221 -111.16 84.3534 124.126 -110.254 85.49 
-123.31 -82.8585 61.242 -124.201 -52.048 43.3764 -99.5565 -44.7735 39.159 
-106.537 -63.4033 37.5497 -130.973 -33.3429 44.9957 -101.578 -56.1226 55.456 
-134.26 -41.7692 62.7909 -92.2702 -68.3816 68.162 -86.6395 -49.2254 79.8721 
-136.512 -54.9561 77.6003 -105.629 -55.325 79.0616 -134.259 -34.2731 81.294 
-93.2305 -68.0873 88.0959 -31.8299 -67.1142 56.7928 -83.3974 -52.1463 48.263 
-65.5094 -58.0069 54.8942 -38.921 -33.3039 51.562 -60.7504 -83.5583 67.4797 
-55.3693 -41.4259 59.4269 -67.1355 -44.9876 80.152 -75.0964 -40.7131 62.3575 
-40.6665 -37.0072 72.1722 -53.1145 -74.4548 83.5087 -67.0749 -63.9327 73.8843 
-50.1162 -54.728 83.8657 -77.7021 -80.421 77.5437 -2.68083 -69.0074 37.6182 
22.1829 -79.9707 38.8976 16.3682 -56.4656 64.0902 -10.7419 -40.3526 49.0465 
-22.94 -33.9991 63.5109 -4.38289 -28.7238 68.6399 69.2118 -41.1818 40.827 
59.7089 -74.2406 46.9107 75.3389 -46.8014 61.8679 44.4701 -42.8328 48.4253 
59.814 -34.7692 58.3224 65.8004 -61.9196 79.0365 41.6892 -76.9636 76.7234 
76.3033 -45.416 83.0113 50.101 -51.8369 71.943 41.8743 -33.2333 69.6239 
62.3038 -32.1203 77.948 102.976 -50.1636 40.7537 93.182 -80.7394 54.5422 
137.346 -50.1775 47.0509 132.681 -69.0287 42.4495 94.2785 -46.4294 74.3906 
119.21 -78.1033 54.0464 85.2352 -63.0242 67.9711 124.031 -73.2159 78.4044 
128.102 -47.514 64.8909 100.238 -77.8149 72.9819 93.2117 -64.6118 86.1982 
-98.4717 -6.06783 36.0268 -104.909 10.5201 45.0685 -125.072 -15.483 38.3203 
-104.98 -22.9617 65.9124 -124.777 8.66445 44.6892 -103.085 11.9069 64.8945 
-122.921 13.8312 63.8771 -93.3518 26.5882 55.5174 -114.889 7.03621 80.8411 
-95.7358 4.2835 85.7381 -122.954 25.2286 84.2886 -86.6262 4.72155 55.05 
-128.763 -6.52279 85.5298 -84.6755 16.96 70.7001 -138.22 14.8956 76.6443 
[...]
POINT_DATA 2000
FIELD FieldData 7
id 1 2000 int
41 77 196 230 301 308 411 107 205 
282 106 55 343 53 85 259 296 439 
275 328 424 223 311 157 185 265 297 
299 410 440 49 172 336 218 351 95 
300 376 408 437 22 380 59 139 141 
164 29 30 201 379 252 335 47 283 
36 142 215 338 414 456 171 32 161 
261 453 395 381 80 246 112 143 231 
10 211 243 115 208 212 232 365 48 
167 45 281 422 397 113 174 222 318 
108 354 285 317 149 200 434 117 135 
262 286 314 334 274 213 86 183 114 
239 342 346 413 66 147 238 99 412 
320 443 225 50 69 345 20 46 220 
11 37 358 390 416 122 359 123 256 
264 347 430 54 204 197 298 97 178 
271 404 15 84 199 362 400 458 234 
184 378 266 450 187 8 279 321 399 
250 384 387 224 195 240 12 186 133 
111 131 132 389 419 229 369 375 72 
315 449 233 253 34 102 154 221 330 
173 352 58 329 138 6 444 179 168 
455 295 385 27 88 62 169 302 339 
341 79 83 426 294 433 127 128 78 
33 110 227 396 421 18 251 242 429 
366 344 160 96 209 288 367 370 452 
116 198 284 247 447 438 442 166 401 
448 1283 852 1551 856 1025 371 273 361 
304 71 82 119 130 350 319 383 409 
292 1007 1248 1875 1713 1903 903 1746 290 
1938 9 1533 2 241 355 156 64 76 
210 293 1584 1870 1852 1011 418 39 216 
263 269 144 165 382 42 74 332 364 
1712 1941 1809 1945 949 323 244 1861 137 
38 51 125 394 445 81 155 249 272 
436 1279 1425 1934 701 720 1921 1306 1709 
5 245 276 425 331 388 307 553 1536 
1779 655 1754 1406 23 65 163 415 191 
236 1673 1716 1727 1791 662 643 911 417 
75 28 226 353 1158 392 14 44 306 
118 89 327 931 1602 120 1654 25 180 
313 398 189 188 1315 1641 1867 1919 1953 
255 309 405 26 278 129 322 303 761 
764 1565 43 739 1505 1015 152 57 151 
162 68 158 214 257 175 176 368 427 
864 1210 874 1539 793 1282 1363 121 4 
217 357 94 190 202 349 402 1858 571 
591 746 603 268 219 7 100 333 104 
457 70 454 63 1386 1764 1001 752 153 
623 432 582 386 291 277 326 19 441 
1404 839 3 254 228 393 145 177 377 
140 1045 1599 1674 1396 1956 420 1457 1 
270 109 170 91 312 93 909 1030 1693 
451 260 61 373 67 267 60 87 316 
372 1650 467 280 73 789 235 374 16 
103 194 148 310 356 1079 1951 1403 1414 
661 206 1123 337 35 258 24 159 182 
435 340 1427 1973 1111 1817 105 126 360 
403 237 287 363 92 348 406 1682 1395 
1514 1766 609 1190 181 324 391 21 407 
40 428 56 98 1805 1891 1086 1281 1359 
207 289 446 90 101 192 13 124 1589 
1866 1397 923 1449 1740 193 146 423 136 
305 52 150 431 1081 1881 1995 771 817 
1498 1833 1849 203 1703 1364 325 17 31 
134 248 1616 967 1139 1444 741 1604 1758 
481 1067 1691 1541 954 1291 784 1104 519 
1769 814 1017 1725 1130 1194 485 1379 600 
1021 1175 542 1172 1999 669 1169 1329 907 
1980 948 965 1257 1600 1895 1070 521 1835 
952 470 1335 1261 1645 951 1618 1155 1662 
1851 554 1447 1684 549 1632 1049 1267 1590 
1960 1127 1988 463 1188 838 1050 1471 1839 
1994 563 1890 775 1561 914 866 1146 1148 
1219 1456 1647 1177 753 1826 480 757 946 
974 487 1524 574 1424 1842 1837 1538 462 
1340 1251 541 1205 1680 1485 1542 718 1116 
887 1824 1273 490 997 652 878 995 1044 
1170 1675 1578 622 1076 1154 1816 1863 1142 
833 889 627 1586 875 906 1129 1212 1517 
1036 1892 1418 534 1722 985 1566 641 969 
1811 1362 779 653 645 1224 1233 1370 1871 
862 1582 667 1388 845 1041 938 476 723 
1412 1670 806 1101 1166 496 522 1477 1915 
1733 1797 854 1601 1439 1907 842 861 1013 
1416 1033 1098 1176 1626 1735 1128 1462 1322 
659 533 754 1062 1189 1879 1947 1493 629 
531 1847 722 1162 1401 1023 1065 712 1715 
1554 1563 699 799 1143 584 709 1338 1828 
1742 1572 472 1937 1441 1726 970 595 960 
1398 1911 1579 888 1118 1672 1366 465 1092 
1382 581 475 1465 1496 1339 1269 1035 1723 
1888 507 1532 1959 644 1193 1594 961 1928 
1831 901 1409 745 494 1411 1199 1570 1527 
471 598 1676 1882 1073 919 1171 892 798 
1651 1039 853 675 702 1717 975 1528 1801 
841 657 1413 1478 468 1107 1789 953 565 
1982 567 1487 493 1260 1679 837 934 1051 
1455 1577 1056 1302 1771 1467 1332 1472 1421 
674 625 1929 1240 1450 1606 1862 729 962 
968 1324 1902 966 1636 1855 1438 1474 1634 
1183 1254 474 749 1782 1301 797 514 1822 
1353 803 893 1435 805 1860 1819 1334 1887 
936 1430 848 1931 1889 536 1266 532 810 
1218 1944 1552 538 1200 1977 1910 1152 1522 
1877 1624 589 1054 1681 1918 991 489 1215 
981 1500 605 1225 710 1417 1627 672 631 
728 1289 1963 876 1222 1230 1548 1502 1124 
964 1097 832 1827 1544 1841 509 1103 1608 
1053 1699 1986 1834 1164 2000 1731 523 1262 
990 1384 697 1905 1802 552 1936 1419 460 
566 915 688 1058 1168 1660 944 984 1631 
801 1480 1055 820 1376 1732 676 1117 1208 
1962 1612 1088 1749 835 671 1459 1576 1978 
1100 647 1812 1721 1060 1778 1458 1202 1119 
1228 1358 1976 1484 1093 987 1059 1120 751 
1204 1470 596 668 1648 769 1820 912 850 
1326 972 1659 1350 1972 497 736 1788 686 
1664 540 1932 1253 1186 1767 1221 687 1857 
781 807 1753 886 1083 1443 1930 1099 619 
730 1165 1669 1026 1597 1066 1245 1029 1134 
1018 1330 1770 758 1004 1832 527 1614 1671 
602 1794 693 1466 755 1207 488 1341 1564 
1285 1964 516 1550 1365 590 1492 865 1307 
896 1531 740 477 1298 617 871 788 575 
499 809 894 935 916 1786 1630 986 1803 
725 1504 1034 1573 1874 770 1488 1464 1558 
1935 529 1075 633 1394 1704 1708 1442 1308 
1568 918 830 759 1620 1331 1569 1280 1491 
1061 576 1063 1268 1501 1843 994 1069 689 
1149 608 999 615 1196 922 1125 1316 570 
683 1048 1521 1768 646 1091 1698 1422 924 
777 1490 1150 1854 925 1916 539 1113 895 
1310 1948 732 1856 1575 614 1925 1922 1559 
1368 1213 1765 1737 512 904 1611 1773 624 
1263 1463 1781 1893 1556 1105 1885 1047 524 
713 504 665 1909 1917 601 1072 1137 1617 
885 1739 929 1846 733 1108 1787 1133 802 
1274 1191 1227 1806 535 738 1864 795 765 
1957 1970 1426 526 558 628 642 1701 573 
1135 1249 550 473 1203 1357 1729 656 1024 
1145 1638 1853 1705 560 1040 1807 790 1796 
1761 562 1077 1965 503 700 1304 1639 1952 
1195 1549 1042 492 1613 1415 942 1311 1738 
1497 1356 464 1898 1489 1238 1246 825 800 
1452 1896 568 1259 1354 1288 1367 649 1808 
1090 1904 1174 847 1635 950 479 1352 648 
1429 1942 1372 1734 1868 1009 698 1052 1757 
548 1373 831 593 520 1993 1405 1342 992 
1595 1981 1437 1068 1961 998 679 715 1939 
1815 1667 1380 1511 546 920 988 1046 1949 
1486 1161 1022 708 818 959 1244 1661 794 
1663 1293 1287 1241 1557 1571 500 1159 1121 
815 635 1991 1180 1751 1605 1236 530 787 
1319 1836 597 1800 1355 592 1087 1585 1250 
1348 1431 1234 1547 1825 1850 719 811 1658 
747 1300 1844 1005 484 1089 822 604 1138 
510 763 1374 1692 690 1971 1479 1436 517 
1006 1509 1526 1546 1876 680 650 694 1106 
1112 1473 1665 682 1619 1433 742 868 796 
867 1209 869 1325 486 1760 908 1829 1084 
612 774 917 1545 1295 1621 1830 621 572 
651 1451 1900 1790 1741 1537 501 1160 902 
1696 511 1454 1702 1736 1391 1314 681 1420 
717 1343 1151 780 870 1115 1178 1510 469 
704 1428 955 1389 1914 900 1924 483 1776 
1615 945 971 1231 1873 1132 1513 1271 1966 
910 1519 1640 1512 829 982 1580 1383 1275 
547 1360 1958 1064 1423 993 1719 1508 696 
1173 1346 750 819 1838 1303 559 1743 1223 
1393 1975 748 836 1940 760 1141 632 1593 
1974 1499 1529 1581 1592 1752 1880 1010 791 
939 1037 678 1992 743 1038 881 1967 1445 
613 744 1000 827 1555 1082 1755 1926 776 
1886 978 658 1351 1810 1818 580 1197 1920 
1644 1823 695 1122 824 1475 1507 1284 731 
943 618 1745 1453 851 1540 564 579 762 
1239 1845 1984 459 1095 785 1697 1574 1336 
863 1799 691 767 1184 1883 1147 1759 956 
1387 1997 1678 1943 783 684 518 1028 973 
1136 1865 1461 1181 1913 1078 711 1229 1375 
1625 1278 594 1710 1859 1756 1516 599 1256 
858 737 941 1780 1131 927 977 1286 616 
1320 921 1016 556 1666 1908 813 1714 1637 
1074 1309 482 958 1689 1785 626 724 1328 
1192 873 1518 1264 1378 1071 928 1094 1609 
899 1272 1872 1996 578 1012 506 1371 1884 
1237 989 1469 1167 1506 525 1596 1683 1718 
1235 1008 1014 1390 1950 1057 897 1270 654 
1649 1955 1720 638 812 1543 1694 544 610 
1946 555 705 976 561 857 1276 1793 1798 
1588 926 1327 1226 1333 1211 840 1114 1784 
1656 1848 577 1643 1220 1591 543 1140 846 
1583 502 1344 1652 1408 585 663 1214 1688 
804 1157 1668 707 1255 1185 1232 1043 1377 
884 1897 1821 1553 664 849 515 1323 1587 
843 1163 498 1530 1628 933 1792 1265 940 
772 587 1031 1677 1775 890 773 1633 703 
1297 1503 877 778 1968 844 1998 1687 963 
1277 569 1369 1814 537 1494 1361 1109 1525 
606 1345 1448 1299 905 1927 880 1560 1317 
1695 937 1878 508 1483 1258 466 1381 1744 
766 816 1110 879 557 716 898 721 495 
913 792 1724 855 826 1385 505 1446 947 
756 1923 1748 1292 735 1432 1182 1906 1795 
673 1126 1700 588 980 1206 1085 666 1296 
1933 1686 634 1252 1153 883 823 1657 872 
891 1774 1990 834 513 1402 1690 1392 1027 
1096 1318 1243 782 1901 630 1305 1535 640 
478 734 1750 1187 545 1198 551 821 670 
1482 1987 639 768 1019 1217 1763 1985 1349 
677 1899 1772 860 1598 1312 1989 1410 620 
611 1520 1032 1468 726 828 1685 1777 607 
996 1337 491 1607 957 1460 1400 1567 1653 
1622 636 1290 1730 706 1407 1156 1840 528 
1711 1969 1495 1813 1954 1399 1313 637 1080 
660 1294 714 1562 1983 1440 1481 1646 1347 
859 586 1706 1523 1102 882 583 1603 1144 
808 1728 1179 1003 1979 786 983 1020 1321 
1242 1655 1642 1002 1434 1201 930 932 1783 
1247 1629 1515 1894 1476 1610 1869 1912 1623 
1216 1762 1534 1804 727 1747 685 461 979 
692 1707 
type 1 2000 int
1 1 1 1 1 1 1 1 1 
1 1 1 1 1 1 1 1 1 
1 1 1 1 1 1 1 1 1 
1 1 1 1 1 1 1 1 1 
1 1 1 1 1 1 1 1 1 
1 1 1 1 1 1 1 1 1 
1 1 1 1 1 1 1 1 1 
1 1 1 1 1 1 1 1 1 
1 1 1 1 1 1 1 1 1 
1 1 1 1 1 1 1 1 1 
1 1 1 1 1 1 1 1 1 
1 1 1 1 1 1 1 1 1 
1 1 1 1 1 1 1 1 1 
1 1 1 1 1 1 1 1 1 
1 1 1 1 1 1 1 1 1 
1 1 1 1 1 1 1 1 1 
1 1 1 1 1 1 1 1 1 
1 1 1 1 1 1 1 1 1 
1 1 1 1 1 1 1 1 1 
1 1 1 1 1 1 1 1 1 
1 1 1 1 1 1 1 1 1 
1 1 1 1 1 1 1 1 1 
1 1 1 1 1 1 1 1 1 
1 1 1 1 1 1 1 1 1 
1 1 1 1 1 1 1 1 1 
1 1 1 1 1 1 1 1 1 
1 1 1 1 1 1 1 1 1 
1 1 1 1 1 1 1 1 1 
1 1 1 1 1 1 1 1 1 
1 1 1 1 1 1 1 1 1 
1 1 1 1 1 1 1 1 1 
1 1 1 1 1 1 1 1 1 
1 1 1 1 1 1 1 1 1 
1 1 1 1 1 1 1 1 1 
1 1 1 1 1 1 1 1 1 
1 1 1 1 1 1 1 1 1 
1 1 1 1 1 1 1 1 1 
1 1 1 1 1 1 1 1 1 
1 1 1 1 1 1 1 1 1 
1 1 1 1 1 1 1 1 1 
1 1 1 1 1 1 1 1 1 
1 1 1 1 1 1 1 1 1 
1 1 1 1 1 1 1 1 1 
1 1 1 1 1 1 1 1 1 
1 1 1 1 1 1 1 1 1 
1 1 1 1 1 1 1 1 1 
1 1 1 1 1 1 1 1 1 
1 1 1 1 1 1 1 1 1 
1 1 1 1 1 1 1 1 1 
1 1 1 1 1 1 1 1 1 
1 1 1 1 1 1 1 1 1 
1 1 1 1 1 1 1 1 1 
1 1 1 1 1 1 1 1 1 
1 1 1 1 1 1 1 1 1 
1 1 1 1 1 1 1 1 1 
1 1 1 1 1 1 1 1 1 
1 1 1 1 1 1 1 1 1 
1 1 1 1 1 1 1 1 1 
1 1 1 1 1 1 1 1 1 
1 1 1 1 1 1 1 1 1 
1 1 1 1 1 1 1 1 1 
1 1 1 1 1 1 1 1 1 
1 1 1 1 1 1 1 1 1 
1 1 1 1 1 1 1 1 1 
1 1 1 1 1 1 1 1 1 
1 1 1 1 1 1 1 1 1 
1 1 1 1 1 1 1 1 1 
1 1 1 1 1 1 1 1 1 
1 1 1 1 1 1 1 1 1 
1 1 1 1 1 1 1 1 1 
1 1 1 1 1 1 1 1 1 
1 1 1 1 1 1 1 1 1 
1 1 1 1 1 1 1 1 1 
1 1 1 1 1 1 1 1 1 
1 1 1 1 1 1 1 1 1 
1 1 1 1 1 1 1 1 1 
1 1 1 1 1 1 1 1 1 
1 1 1 1 1 1 1 1 1 
1 1 1 1 1 1 1 1 1 
1 1 1 1 1 1 1 1 1 
1 1 1 1 1 1 1 1 1 
1 1 1 1 1 1 1 1 1 
1 1 1 1 1 1 1 1 1 
1 1 1 1 1 1 1 1 1 
1 1 1 1 1 1 1 1 1 
1 1 1 1 1 1 1 1 1 
1 1 1 1 1 1 1 1 1 
1 1 1 1 1 1 1 1 1 
1 1 1 1 1 1 1 1 1 
1 1 1 1 1 1 1 1 1 
1 1 1 1 1 1 1 1 1 
1 1 1 1 1 1 1 1 1 
1 1 1 1 1 1 1 1 1 
1 1 1 1 1 1 1 1 1 
1 1 1 1 1 1 1 1 1 
1 1 1 1 1 1 1 1 1 
1 1 1 1 1 1 1 1 1 
1 1 1 1 1 1 1 1 1 
1 1 1 1 1 1 1 1 1 
1 1 1 1 1 1 1 1 1 
1 1 1 1 1 1 1 1 1 
1 1 1 1 1 1 1 1 1 
1 1 1 1 1 1 1 1 1 
1 1 1 1 1 1 1 1 1 
1 1 1 1 1 1 1 1 1 
1 1 1 1 1 1 1 1 1 
1 1 1 1 1 1 1 1 1 
1 1 1 1 1 1 1 1 1 
1 1 1 1 1 1 1 1 1 
1 1 1 1 1 1 1 1 1 
1 1 1 1 1 1 1 1 1 
1 1 1 1 1 1 1 1 1 
1 1 1 1 1 1 1 1 1 
1 1 1 1 1 1 1 1 1 
1 1 1 1 1 1 1 1 1 
1 1 1 1 1 1 1 1 1 
1 1 1 1 1 1 1 1 1 
1 1 1 1 1 1 1 1 1 
1 1 1 1 1 1 1 1 1 
1 1 1 1 1 1 1 1 1 
1 1 1 1 1 1 1 1 1 
1 1 1 1 1 1 1 1 1 
1 1 1 1 1 1 1 1 1 
1 1 1 1 1 1 1 1 1 
1 1 1 1 1 1 1 1 1 
1 1 1 1 1 1 1 1 1 
1 1 1 1 1 1 1 1 1 
1 1 1 1 1 1 1 1 1 
1 1 1 1 1 1 1 1 1 
1 1 1 1 1 1 1 1 1 
1 1 1 1 1 1 1 1 1 
1 1 1 1 1 1 1 1 1 
1 1 1 1 1 1 1 1 1 
1 1 1 1 1 1 1 1 1 
1 1 1 1 1 1 1 1 1 
1 1 1 1 1 1 1 1 1 
1 1 1 1 1 1 1 1 1 
1 1 1 1 1 1 1 1 1 
1 1 1 1 1 1 1 1 1 
1 1 1 1 1 1 1 1 1 
1 1 1 1 1 1 1 1 1 
1 1 1 1 1 1 1 1 1 
1 1 1 1 1 1 1 1 1 
1 1 1 1 1 1 1 1 1 
1 1 1 1 1 1 1 1 1 
1 1 1 1 1 1 1 1 1 
1 1 1 1 1 1 1 1 1 
1 1 1 1 1 1 1 1 1 
1 1 1 1 1 1 1 1 1 
1 1 1 1 1 1 1 1 1 
1 1 1 1 1 1 1 1 1 
1 1 1 1 1 1 1 1 1 
1 1 1 1 1 1 1 1 1 
1 1 1 1 1 1 1 1 1 
1 1 1 1 1 1 1 1 1 
1 1 1 1 1 1 1 1 1 
1 1 1 1 1 1 1 1 1 
1 1 1 1 1 1 1 1 1 
1 1 1 1 1 1 1 1 1 
1 1 1 1 1 1 1 1 1 
1 1 1 1 1 1 1 1 1 
1 1 1 1 1 1 1 1 1 
1 1 1 1 1 1 1 1 1 
1 1 1 1 1 1 1 1 1 
1 1 1 1 1 1 1 1 1 
1 1 1 1 1 1 1 1 1 
1 1 1 1 1 1 1 1 1 
1 1 1 1 1 1 1 1 1 
1 1 1 1 1 1 1 1 1 
1 1 1 1 1 1 1 1 1 
1 1 1 1 1 1 1 1 1 
1 1 1 1 1 1 1 1 1 
1 1 1 1 1 1 1 1 1 
1 1 1 1 1 1 1 1 1 
1 1 1 1 1 1 1 1 1 
1 1 1 1 1 1 1 1 1 
1 1 1 1 1 1 1 1 1 
1 1 1 1 1 1 1 1 1 
1 1 1 1 1 1 1 1 1 
1 1 1 1 1 1 1 1 1 
1 1 1 1 1 1 1 1 1 
1 1 1 1 1 1 1 1 1 
1 1 1 1 1 1 1 1 1 
1 1 1 1 1 1 1 1 1 
1 1 1 1 1 1 1 1 1 
1 1 1 1 1 1 1 1 1 
1 1 1 1 1 1 1 1 1 
1 1 1 1 1 1 1 1 1 
1 1 1 1 1 1 1 1 1 
1 1 1 1 1 1 1 1 1 
1 1 1 1 1 1 1 1 1 
1 1 1 1 1 1 1 1 1 
1 1 1 1 1 1 1 1 1 
1 1 1 1 1 1 1 1 1 
1 1 1 1 1 1 1 1 1 
1 1 1 1 1 1 1 1 1 
1 1 1 1 1 1 1 1 1 
1 1 1 1 1 1 1 1 1 
1 1 1 1 1 1 1 1 1 
1 1 1 1 1 1 1 1 1 
1 1 1 1 1 1 1 1 1 
1 1 1 1 1 1 1 1 1 
1 1 1 1 1 1 1 1 1 
1 1 1 1 1 1 1 1 1 
1 1 1 1 1 1 1 1 1 
1 1 1 1 1 1 1 1 1 
1 1 1 1 1 1 1 1 1 
1 1 1 1 1 1 1 1 1 
1 1 1 1 1 1 1 1 1 
1 1 1 1 1 1 1 1 1 
1 1 1 1 1 1 1 1 1 
1 1 1 1 1 1 1 1 1 
1 1 1 1 1 1 1 1 1 
1 1 1 1 1 1 1 1 1 
1 1 1 1 1 1 1 1 1 
1 1 1 1 1 1 1 1 1 
1 1 1 1 1 1 1 1 1 
1 1 1 1 1 1 1 1 1 
1 1 1 1 1 1 1 1 1 
1 1 1 1 1 1 1 1 1 
1 1 1 1 1 1 1 1 1 
1 1 1 1 1 1 1 1 1 
1 1 
i 3 2000 int
0 0 0 0 0 0 0 0 0 
0 0 0 0 0 0 0 0 0 
0 0 0 0 0 0 0 0 0 
0 0 0 0 0 0 0 0 0 
0 0 0 0 0 0 0 0 0 
0 0 0 0 0 0 0 0 0 
0 0 0 0 0 0 0 0 0 
0 0 0 0 1 0 0 0 0 
0 0 0 0 0 0 0 0 0 
0 0 0 0 0 0 0 0 0 
0 0 0 0 0 0 0 0 0 
0 1 0 0 0 0 0 0 0 
0 0 0 0 0 0 0 0 0 
0 0 0 0 0 0 -1 0 0 
0 0 0 0 0 0 0 0 0 
0 0 0 0 0 0 0 0 0 
0 0 0 0 0 0 0 0 0 
0 0 0 0 0 0 0 0 0 
0 0 0 0 0 0 0 0 0 
0 0 0 0 0 0 0 0 0 
0 0 0 0 0 0 0 0 0 
0 0 0 0 0 0 1 0 0 
0 0 0 0 0 0 0 0 0 
0 0 0 0 0 0 0 0 0 
0 0 0 0 0 0 0 0 0 
0 0 0 0 0 0 0 0 0 
0 0 0 0 0 0 0 0 0 
0 0 0 0 0 0 0 0 0 
0 0 0 0 0 0 0 0 0 
0 0 0 0 0 0 0 0 0 
0 0 0 0 0 0 0 0 0 
0 0 0 0 0 0 0 0 0 
0 0 0 0 0 0 0 0 0 
0 0 0 0 0 0 0 0 0 
0 0 0 0 0 0 0 0 0 
0 0 0 0 0 0 0 0 0 
0 0 0 0 0 0 0 0 0 
0 0 0 0 0 0 0 0 0 
0 0 0 0 0 0 1 0 0 
0 0 0 0 0 0 0 0 0 
0 0 0 0 0 0 0 0 0 
0 0 0 0 0 0 0 0 0 
0 0 0 0 0 0 0 0 0 
0 0 0 0 0 0 0 0 0 
0 0 0 0 0 0 0 0 0 
0 0 0 0 0 0 0 0 0 
0 0 0 0 0 0 0 0 0 
0 0 0 0 0 0 0 0 0 
0 0 0 0 0 0 0 0 0 
0 0 0 0 0 0 0 0 0 
0 0 0 0 0 0 0 0 0 
0 0 0 0 0 0 1 0 0 
0 0 0 0 0 0 0 0 0 
0 0 0 0 0 0 0 0 0 
0 0 0 0 0 0 0 0 0 
0 0 0 0 0 0 0 0 0 
0 0 0 0 0 0 0 0 0 
0 0 0 0 0 0 0 0 0 
0 0 0 0 0 0 0 0 0 
0 0 0 0 0 0 0 0 0 
0 0 0 0 0 0 0 0 0 
0 0 0 0 0 0 0 0 0 
0 0 0 0 0 0 0 0 0 
0 0 0 0 0 0 0 0 0 
0 0 0 0 0 0 0 0 0 
0 0 0 0 0 0 0 0 0 
0 0 0 0 0 0 0 0 0 
0 0 0 0 0 0 0 0 0 
0 0 0 0 0 0 0 0 0 
0 0 0 0 0 0 0 0 0 
0 0 0 0 0 0 0 0 0 
0 0 0 0 0 0 0 0 0 
0 -1 0 0 0 0 0 0 0 
0 0 0 0 0 0 0 0 0 
0 0 0 0 0 0 0 0 0 
0 0 0 0 0 0 0 0 0 
0 0 0 0 0 0 0 0 0 
0 0 0 0 0 0 0 0 0 
0 0 0 0 0 0 0 0 0 
0 0 0 0 0 0 0 0 0 
0 0 0 0 0 0 0 0 0 
0 0 0 0 0 0 0 0 0 
0 0 0 0 0 0 0 0 0 
0 0 0 0 0 0 0 0 0 
0 0 0 0 0 0 0 0 0 
0 0 0 0 0 0 0 0 0 
0 0 0 0 0 0 0 0 0 
0 1 0 0 0 0 0 0 0 
0 0 0 0 0 0 0 0 0 
0 0 0 0 0 0 0 0 0 
0 0 0 0 0 0 0 0 0 
0 0 0 0 0 0 0 0 0 
0 0 0 0 0 0 0 0 0 
0 0 0 0 0 0 0 0 0 
0 0 0 0 0 0 0 0 0 
0 0 0 0 0 0 0 0 0 
0 0 0 0 0 0 0 0 0 
0 0 0 0 0 0 0 0 0 
0 0 0 0 0 0 0 0 0 
0 0 0 0 0 0 0 0 0 
0 0 0 0 1 0 0 0 0 
-1 0 0 -1 0 0 0 0 0 
0 0 0 0 0 0 0 0 0 
0 0 0 0 0 0 0 0 0 
0 0 0 0 0 0 0 0 0 
0 0 0 0 0 0 0 0 0 
0 0 0 0 0 0 0 0 0 
-1 0 0 0 0 0 0 0 0 
0 0 0 0 0 0 0 0 0 
0 0 0 0 0 0 0 0 0 
0 0 0 0 0 0 0 0 0 
0 0 0 0 0 0 1 0 0 
0 0 0 0 0 0 0 0 0 
0 0 0 0 0 0 0 0 0 
0 0 0 0 0 0 0 0 0 
0 0 0 0 0 0 0 0 0 
0 0 0 0 0 0 0 0 0 
0 0 0 0 0 0 0 0 0 
0 0 0 0 0 0 0 0 0 
0 0 0 0 0 0 0 0 0 
0 0 0 0 0 0 0 0 0 
0 0 0 0 0 0 0 0 0 
0 0 0 0 0 0 0 0 0 
0 0 0 0 0 0 0 0 0 
0 0 0 0 0 0 0 0 0 
0 0 0 0 0 0 0 0 0 
0 0 0 0 0 0 0 0 0 
0 0 0 0 0 0 0 0 0 
0 0 0 0 0 0 0 0 0 
0 0 0 0 0 0 0 0 0 
0 0 0 0 0 0 1 0 0 
0 0 0 0 0 0 0 0 0 
0 0 0 0 0 0 0 0 0 
0 0 0 0 0 0 0 0 0 
0 0 0 0 0 0 0 0 0 
0 0 0 0 0 0 0 0 0 
0 0 0 0 0 0 0 0 0 
0 0 0 0 0 0 0 0 0 
0 0 0 0 0 0 0 0 0 
0 0 0 0 0 0 0 0 0 
0 0 0 0 0 0 0 0 0 
0 0 0 0 0 0 0 0 0 
0 0 0 0 0 0 0 0 0 
0 0 0 0 0 0 0 0 0 
0 0 0 0 0 0 0 0 0 
0 0 0 0 0 0 0 0 0 
0 0 0 0 0 0 0 0 0 
0 0 0 0 0 0 0 0 0 
0 0 0 0 0 0 0 0 0 
0 0 0 0 0 0 0 0 0 
0 0 0 0 0 0 0 0 0 
0 0 0 0 0 0 0 0 0 
0 0 0 0 0 0 0 0 0 
0 0 0 0 0 0 0 0 0 
0 0 0 0 0 0 0 0 0 
0 0 0 0 0 0 0 0 0 
0 0 0 0 0 0 0 0 0 
0 0 0 0 0 0 0 0 0 
0 0 0 0 0 0 0 0 0 
0 0 0 0 0 0 0 0 0 
0 0 0 0 0 0 0 0 0 
0 0 0 0 0 0 0 0 0 
0 0 0 0 0 0 0 0 0 
0 0 0 0 0 0 0 0 0 
0 0 0 0 0 0 0 0 0 
0 0 0 0 0 0 0 0 0 
0 0 0 0 0 0 0 0 0 
0 0 0 0 0 0 0 0 0 
0 0 0 0 0 0 0 0 0 
0 0 0 0 0 0 0 0 0 
0 0 0 0 0 0 0 0 0 
0 0 0 0 0 0 0 0 0 
0 0 0 0 0 0 0 -1 0 
0 0 0 0 0 0 0 0 0 
0 0 0 0 0 0 0 0 0 
0 0 0 0 0 0 0 0 0 
0 0 0 0 0 0 0 0 0 
0 0 0 0 0 0 0 0 0 
0 -1 0 0 0 0 0 0 0 
0 0 0 0 0 0 0 0 0 
0 0 0 0 0 0 0 0 0 
0 0 0 0 0 0 0 0 0 
0 0 0 0 0 0 0 0 0 
0 0 0 0 -1 0 0 0 0 
0 0 0 0 0 0 0 0 0 
0 0 0 0 0 0 0 0 0 
0 0 0 0 0 0 0 0 0 
0 0 0 0 0 0 0 0 0 
0 0 0 0 0 0 0 0 0 
0 0 0 0 0 0 0 0 0 
0 0 0 0 0 0 0 0 0 
0 0 0 0 0 0 0 0 0 
0 0 0 0 0 0 -1 0 0 
0 0 0 0 0 0 0 0 0 
0 0 0 0 0 0 0 0 0 
0 0 0 0 0 0 0 0 0 
0 0 0 0 0 0 0 0 0 
0 0 0 0 0 0 0 0 0 
0 0 0 0 0 0 0 0 0 
0 0 0 0 0 0 0 0 0 
0 0 0 0 0 0 0 0 0 
0 0 0 0 0 0 0 0 0 
0 0 0 0 0 0 0 0 0 
0 0 0 0 0 0 0 0 0 
0 0 0 0 0 0 0 0 0 
0 0 0 0 0 0 0 0 0 
0 0 0 0 0 0 0 0 0 
0 0 0 0 0 0 0 1 0 
0 0 0 0 0 0 0 0 0 
0 0 0 0 0 0 0 0 0 
0 0 0 0 0 0 0 0 0 
0 0 0 0 1 0 0 0 0 
0 1 0 0 0 0 0 0 0 
0 0 0 0 0 0 0 0 0 
0 0 0 0 0 0 0 0 0 
0 0 0 0 0 0 0 0 0 
0 1 0 0 0 0 0 0 0 
0 0 0 0 0 0 0 0 0 
0 0 0 0 0 0 0 0 0 
0 0 0 0 0 0 0 0 0 
0 0 0 0 0 0 0 0 0 
0 0 0 0 0 0 0 0 0 
0 0 0 0 0 0 0 0 0 
0 0 0 0 0 0 0 0 0 
0 0 0 0 0 0 0 0 0 
0 0 0 0 0 0 0 0 0 
0 0 0 0 0 0 0 0 0 
0 0 0 0 0 0 0 0 0 
0 0 0 0 0 0 0 0 0 
0 0 0 0 0 0 0 0 0 
0 0 0 0 0 0 0 0 0 
0 0 0 0 0 0 0 0 0 
0 0 0 0 0 0 0 0 0 
0 0 0 0 0 0 0 0 0 
0 0 0 0 0 0 0 0 0 
0 0 0 0 0 0 0 0 0 
0 0 0 0 0 0 0 0 0 
0 0 0 0 0 0 0 0 0 
0 0 0 0 0 0 0 0 0 
0 0 0 0 0 0 0 0 0 
0 0 0 0 0 0 0 0 0 
0 0 0 0 0 0 0 0 0 
0 0 0 0 0 0 0 0 0 
0 0 0 0 0 0 0 0 0 
0 0 0 0 0 0 0 0 0 
0 0 0 0 0 0 0 0 0 
0 0 0 0 0 0 0 0 0 
0 0 0 0 0 0 0 0 0 
0 0 0 0 0 0 0 0 0 
0 0 0 0 0 0 0 0 0 
0 0 0 0 0 0 0 0 0 
0 0 0 0 0 0 0 0 0 
0 0 0 -1 0 0 0 0 0 
0 0 0 0 0 0 0 0 0 
0 0 0 0 0 0 0 0 0 
0 0 0 0 0 0 0 0 0 
0 0 0 0 0 0 0 0 0 
0 0 0 0 0 0 0 0 0 
0 0 0 0 0 0 0 0 0 
0 0 0 0 0 0 0 0 0 
1 0 0 0 0 0 0 0 0 
0 0 0 0 0 0 0 0 0 
0 0 0 0 0 0 0 0 0 
0 0 0 0 0 0 0 0 0 
0 0 0 0 0 0 0 0 0 
0 0 0 0 0 0 0 0 0 
0 0 0 0 0 0 0 0 0 
0 0 0 0 0 0 0 0 0 
0 0 0 0 0 0 0 0 0 
0 0 0 0 0 0 0 0 0 
0 0 0 0 0 0 0 0 0 
0 0 0 0 0 0 0 0 0 
0 0 0 0 0 0 0 0 0 
0 0 0 0 0 0 0 0 0 
0 0 0 0 0 0 0 0 0 
0 0 0 0 0 0 0 -1 0 
0 -1 0 0 0 0 0 0 0 
0 0 0 0 0 0 0 0 0 
0 0 0 0 0 0 0 0 0 
0 0 0 0 0 0 0 0 0 
0 0 0 0 0 0 0 0 0 
0 0 0 0 0 0 0 0 0 
0 0 0 0 0 0 0 0 0 
0 0 0 0 0 0 0 0 0 
0 0 0 0 0 0 0 0 0 
0 0 0 0 0 0 0 0 0 
0 0 0 0 0 0 0 0 0 
0 0 0 0 0 0 0 0 0 
0 0 0 0 0 0 0 0 0 
0 0 0 0 0 0 0 0 0 
0 0 0 0 0 0 0 0 0 
0 0 0 0 0 0 0 0 0 
0 0 0 0 0 0 0 0 0 
0 -1 0 0 0 0 0 0 0 
0 0 0 0 0 0 0 0 0 
0 0 0 0 0 0 0 0 0 
-1 0 0 -1 0 0 0 0 0 
0 0 0 0 0 0 -1 0 0 
0 0 0 0 0 0 0 0 0 
0 0 0 0 0 0 0 0 0 
0 0 0 0 0 0 0 0 0 
0 0 0 0 0 0 0 0 0 
0 0 0 0 0 0 0 0 0 
0 0 0 0 0 0 0 0 0 
0 0 0 0 0 0 0 0 0 
0 0 0 0 0 0 0 0 0 
0 0 0 0 0 0 0 0 0 
0 0 0 0 0 0 0 1 0 
0 0 0 0 0 0 0 0 0 
0 0 0 0 0 0 0 0 0 
0 0 0 0 0 0 0 0 0 
0 0 0 0 0 0 0 0 0 
0 0 0 0 0 0 0 0 0 
0 0 0 0 0 0 0 0 0 
0 0 0 0 0 0 0 0 0 
0 0 0 0 0 0 0 0 0 
0 0 0 0 0 0 0 0 0 
0 0 0 0 0 0 0 0 0 
0 0 0 0 0 0 0 0 0 
0 0 0 0 0 0 0 0 0 
0 0 0 0 0 0 0 0 0 
0 0 0 0 0 0 0 0 0 
0 0 0 0 0 0 0 0 0 
0 0 0 0 0 0 0 0 0 
0 0 0 0 0 0 0 0 0 
0 0 0 0 0 0 0 0 0 
0 0 0 0 0 0 0 0 0 
0 0 0 0 0 0 0 0 0 
0 0 0 0 0 0 0 0 0 
0 0 0 0 0 0 0 0 0 
0 0 0 0 0 0 0 0 0 
0 0 0 0 0 0 0 0 0 
0 0 0 -1 0 0 0 0 0 
0 0 0 0 0 0 0 0 0 
0 0 0 0 0 0 0 0 0 
0 0 0 0 0 0 0 0 0 
0 0 0 0 0 0 0 0 0 
0 0 0 0 0 0 0 0 0 
0 0 0 0 0 0 0 0 0 
0 0 0 0 0 0 0 0 0 
0 0 0 0 0 0 0 0 0 
0 0 0 0 0 0 0 0 0 
0 0 0 0 0 0 0 0 0 
0 0 0 0 0 0 0 0 0 
0 0 0 0 0 0 0 0 0 