# vtk DataFile Version 4.0
Generated by LIGGGHTS
ASCII
DATASET POLYDATA
POINTS 2000 float
-87.6657 -92.8243 9.99474 -95.3615 -113.097 9.99973 -106.147 -130.788 9.99772 
-117.176 -114.107 9.99751 -127.193 -131.704 9.99973 -107.276 -96.7325 9.99745 
-116.42 -126.493 26.6087 -109.452 -107.784 27.9046 -132.933 -115.358 22.2461 
-118.671 -90.2588 25.1025 -92.4728 -117.862 31.0831 -56.5453 -101.941 9.99271 
-30.4152 -123.108 9.99947 -75.5982 -108.77 9.99967 -66.3317 -138.844 9.99736 
-79.5442 -126.451 18.4693 -37.5688 -105.172 15.4067 -60.5714 -120.622 15.8864 
-46.8658 -134.417 11.2152 -58.2295 -140.357 28.7986 -38.3088 -138.586 28.8039 
-34.1026 -86.411 21.4704 -50.3444 -122.253 32.9954 -2.70637 -104.561 9.99863 
1.85918 -138.983 9.99727 17.1199 -101.938 9.99831 -20.7144 -95.8633 10.001 
9.41757 -120.467 9.99954 -10.416 -123.196 9.99283 8.39136 -130.918 27.0893 
18.8782 -90.8652 26.5581 -0.902684 -90.1133 23.7078 22.0691 -113.612 25.4642 
25.1872 -131.074 16.2274 42.1771 -96.843 22.1704 55.3546 -127.742 9.99616 
40.1909 -112.586 9.99726 60.564 -107.589 9.99973 52.4225 -83.9284 9.9999 
41.6924 -119.112 28.8392 80.3185 -100.985 9.99973 138.391 -96.8951 17.5063 
117.648 -127.974 9.99397 132.431 -114.503 9.99559 99.1185 -92.0892 9.99891 
93.9493 -124.532 9.9997 118.914 -93.8327 13.3603 136.686 -130.965 20.5204 
107.868 -110.163 9.99932 93.2163 -100.965 26.92 130.857 -110.922 29.6039 
106.231 -124.138 26.0901 119.454 -139.209 26.4317 111.895 -95.9341 32.0495 
-130.22 -84.0792 9.99549 -94.8221 -33.2877 14.4937 -112.255 -74.8489 9.99901 
-121.36 -56.9014 9.99969 -113.61 -38.4644 9.99917 -88.7936 -72.7224 9.9996 
-101.825 -58.1186 14.11 -99.7142 -83.5015 22.9534 -131.923 -68.4809 22.4221 
-132.543 -48.5886 24.4017 -114.213 -42.4885 29.5801 -91.4053 -47.1608 28.4885 
-139.054 -84.3032 32.3618 -113.813 -63.4027 29.2211 -138.169 -35.9036 9.99963 
-94.2424 -66.6139 32.1652 -84.1906 -49.6274 9.99934 -31.1607 -66.7497 9.99973 
-50.1263 -83.0012 10.0002 -56.9779 -64.2131 9.99959 -74.8567 -63.4935 20.981 
-57.5463 -32.5938 24.996 -26.8568 -45.4261 9.99979 -18.1454 -54.0004 25.8311 
11.5091 -56.1681 9.99968 -2.58603 -41.5266 9.99943 4.39232 -76.546 9.99971 
25.7057 -81.9645 9.9991 -7.94858 -60.7931 10.0233 -14.1972 -32.9942 24.0545 
-15.965 -77.738 16.9922 24.6033 -65.7956 21.717 7.81059 -73.1443 29.7143 
71.3465 -77.4579 9.99966 40.5782 -77.1977 25.5578 44.8946 -65.3986 9.9987 
50.8896 -44.3462 9.99973 72.0203 -55.2815 9.99868 31.1747 -50.8298 9.99337 
71.9278 -40.4918 23.4609 40.3791 -54.865 27.3395 59.1597 -60.9867 24.2111 
53.9208 -40.7748 32.1581 63.6865 -26.3956 9.99973 86.6547 -82.0837 22.0242 
86.7158 -40.2946 9.99825 90.2631 -66.5192 9.99448 132.343 -79.3758 9.99751 
118.868 -58.5175 10.0023 108.083 -74.7683 14.4224 115.207 -38.8567 9.99962 
138.844 -57.5502 9.9995 130.083 -44.0928 22.298 124.213 -74.5031 27.6052 
-119.707 6.42535 9.99809 -105 -8.7592 9.99945 -122.012 -19.7763 9.99973 
-132.067 -3.60836 22.0991 -108.714 -13.0529 29.1764 -89.5186 -18.6833 29.3234 
-111.041 15.5999 25.5123 -84.8198 -16.5625 9.99943 -129.792 22.5027 24.7635 
-105.611 27.2241 9.9997 -124.431 -25.2746 31.0681 -45.6232 5.38305 9.99525 
-28.5534 -5.34232 9.99973 -76.0925 13.8348 24.9928 -42.1699 -1.35003 28.5029 
-38.9722 24.6266 9.99973 -27.9864 21.5066 27.0761 -26.5675 -25.3444 9.99973 
22.6474 -25.0651 32.083 -4.80293 -21.6506 9.99977 -20.9369 13.8464 9.99952 
-8.79999 -2.05423 9.99973 2.45877 2.82627 25.8279 8.19296 13.5889 9.99093 
21.3548 9.37356 25.9837 27.1721 19.8855 9.9967 37.2233 2.14949 9.99973 
51.0698 16.7036 9.99973 82.1009 -14.3399 9.99746 61.8017 -0.815211 9.99684 
71.1955 17.8286 9.99847 38.0327 23.3305 26.4303 61.737 19.459 27.5428 
39.5979 5.3993 35.1397 140.225 -16.2315 9.99954 87.4078 13.2547 20.7846 
100.254 -25.5755 9.99845 138.22 7.1739 9.99492 103.815 17.9697 9.99878 
96.7704 -0.747501 9.99893 139.551 27.1515 9.9972 122.51 -21.7879 17.4378 
119.758 -3.42982 9.99266 105.996 -12.1127 23.626 -89.4037 66.2586 9.99584 
-111.625 59.9752 9.99964 -127.427 40.3498 9.99693 -136.598 79.1646 30.1574 
-129.444 63.4812 18.378 -98.3564 45.484 13.7339 -115.749 40.9499 26.2162 
-130.732 81.5958 9.99968 -140.76 39.7771 25.4825 -78.5979 45.3613 9.99972 
-36.1584 69.4673 24.9928 -67.1924 63.3766 9.99969 -54.0099 39.1042 9.99973 
-64.6385 49.147 23.8195 -72.2192 74.8847 25.5656 -83.9099 47.9005 29.1133 
20.1053 81.6203 9.99813 -5.20285 62.9857 10.0045 -24.1575 39.6685 9.99973 
8.60043 70.7666 22.2388 21.4409 55.0976 9.9996 2.01125 38.418 33.8629 
-6.70771 82.9262 9.99761 26.4734 80.4992 28.9221 31.6372 59.7967 26.5508 
41.054 34.3264 9.99536 64.272 37.2124 9.99567 62.6414 62.8817 9.99973 
39.3209 73.5424 9.99973 80.8737 48.8148 9.99921 77.3827 31.8983 26.9064 
52.4925 37.1369 26.1518 44.775 53.9564 11.0932 80.8277 71.2184 9.99973 
68.4727 49.759 25.6607 50.5882 56.2001 31.8732 120.344 32.7144 9.9962 
87.911 30.0945 9.99935 119.755 59.3377 9.99388 105.131 72.9766 9.99925 
103.803 43.9563 9.99939 138.399 52.1085 9.99697 94.9893 58.9008 19.9478 
118.983 46.1588 25.0114 92.2008 83.1597 21.3595 116.089 69.831 26.6138 
132.798 73.3564 15.7593 97.0007 35.7818 26.9371 -89.3726 140.328 9.99813 
-111.899 88.4266 9.99593 -114.083 120.617 25.0258 -139.08 96.5316 20.5579 
-87.5808 103.401 9.99605 -77.1825 136.287 25.325 -76.7619 86.5821 9.99732 
-57.6969 92.6216 9.99819 -45.1193 108.171 9.99935 -78.8878 122.041 9.99973 
-49.1753 127.755 9.99968 -31.9325 104.208 24.8432 -29.7742 136.766 9.99973 
-33.9878 123.942 27.3457 -27.0054 116.669 9.99849 -16.4163 137.882 25.1694 
19.7801 131.95 9.99852 -9.70735 126.704 9.99974 -2.53548 107.935 9.99973 
7.10941 90.7103 22.1803 17.5796 108.18 9.99973 4.85514 128.643 23.5734 
-15.4151 116.502 26.33 26.3171 101.593 27.6438 25.7108 132.74 29.0808 
-13.4556 96.8824 22.6316 8.01179 109.582 28.7322 34.7053 97.3276 9.99637 
66.468 135.034 9.99569 37.5925 117.253 9.99268 58.1133 116.615 9.99973 
40.9513 140.309 9.99981 80.4349 119.697 9.99686 68.6537 123 25.8129 
51.0309 132.447 25.3816 59.9257 89.9034 33.0948 38.596 117.47 29.9571 
87.5676 138.45 9.99973 126.693 91.5114 9.99961 85.2145 99.601 9.99973 
117.21 109.121 9.99468 139.411 134.255 9.99381 111 135.158 9.99684 
105.415 92.9724 9.99863 137.345 112.574 9.99819 100.082 118.787 13.6163 
124.9 124.689 19.9105 88.3616 123.254 29.1921 -134.741 -103.038 37.8928 
-102.986 -132.023 40.5083 -128.189 -125.612 42.7524 -111.138 -114.83 46.6613 
-87.7964 -122.984 49.8648 -87.3713 -137.677 63.4479 -104.036 -126.91 60.9306 
-123.99 -127.247 62.2369 -131.564 -111.244 71.564 -92.574 -108.272 62.5417 
-128.101 -99.242 87.352 -140.305 -114.181 53.8186 -73.4504 -129.08 37.3348 
-70.5941 -92.2329 40.5354 -43.5215 -99.2577 61.5771 -70.8394 -123.826 60.4427 
-59.4666 -89.9626 73.641 -52.8371 -119.833 52.6985 -43.3907 -137.078 49.0399 
-28.4608 -101.92 74.4646 -59.1676 -109.396 68.817 -54.0126 -128.076 73.7964 
-35.288 -120.787 72.4808 -80.5669 -96.6435 73.7868 -73.7413 -133.77 77.5544 
-63.1438 -139.642 50.8326 -66.8798 -103.89 86.4373 -17.8204 -113.975 42.9263 
15.8924 -104.601 42.216 13.2476 -125.744 53.9374 3.58583 -119.102 70.1384 
-3.57079 -139.698 61.8983 -11.021 -93.112 70.1875 24.6787 -131.735 38.6614 
8.87729 -94.1234 71.9157 -14.0775 -127.976 74.7811 22.9891 -94.1885 57.7451 
8.35323 -136.987 77.7191 20.0807 -109.505 78.1366 25.8059 -128.188 73.4935 
27.7749 -113.461 60.107 26.9522 -91.104 81.8939 3.1367 -85.978 44.3239 
73.9687 -127.289 39.6275 40.2492 -123.655 48.2598 54.6511 -113.887 65.5535 
37.996 -103.729 41.0737 81.2491 -112.219 70.3623 41.8179 -136.532 63.4779 
39.833 -101.448 70.621 60.108 -134.801 71.3767 44.2482 -127.598 81.2012 
79.4385 -131.513 75.3002 104.463 -117.533 53.7584 135.795 -133.948 40.2762 
122.776 -111.584 47.8799 116.511 -130.178 44.0219 129.747 -93.1411 44.5134 
102.815 -137.26 56.7561 94.2127 -86.1717 40.342 109.968 -98.4163 55.7763 
90.1646 -101.129 56.3136 121.462 -132.68 63.229 132.785 -99.0428 63.3797 
97.7134 -124.469 71.2586 139.649 -128.029 70.1509 98.2912 -85.4789 65.7413 
132.813 -108.958 80.754 113.745 -100.461 81.9206 118.604 -113.283 67.361 
122.044 -126.281 82.1606 94.0854 -103.89 83.2407 -115.984 -82.4844 59.1172 
-125.23 -53.1058 42.4601 -85.3475 -65.3723 57.4399 -101.645 -34.64 61.2886 
-129.479 -52.9383 72.1462 -94.5473 -63.7294 79.454 -141.051 -35.024 36.4285 
-92.4568 -83.5766 85.0227 -78.5298 -76.7991 72.3699 -76.8749 -57.5053 40.1882 
-68.0388 -43.2363 56.6505 -64.7584 -62.8608 58.6486 -51.4391 -42.1219 67.7482 
-76.8561 -56.6947 73.3317 -58.3826 -68.2243 76.8294 -30.1403 -67.3678 56.1749 
-70.0558 -38.0721 75.9593 -30.8716 -36.865 73.3215 -44.6224 -82.0479 84.4569 
-46.2869 -53.0376 83.7222 -41.4831 -29.4254 55.9301 -27.5265 -35.141 42.7949 
1.72725 -55.3109 36.4145 -7.87361 -38.7904 42.3154 18.251 -60.7281 66.8447 
-13.3823 -37.1027 61.4647 4.35494 -32.04 81.641 4.74232 -28.6655 61.9358 
28.8553 -82.9628 41.9831 46.7499 -38.0571 53.8834 61.9828 -80.6398 53.033 
66.6529 -46.586 46.4414 79.7915 -48.7436 67.916 59.9881 -47.8311 65.2562 
67.7729 -42.5728 82.9125 47.21 -46.6859 80.5985 55.047 -29.5379 71.6537 
58.8224 -62.7945 82.9739 77.7052 -68.8984 85.4622 92.027 -82.8289 84.549 
140.759 -82.377 83.3611 100.656 -51.7707 39.9786 117.048 -79.9865 52.619 
136.201 -54.8023 38.0417 134.724 -72.816 46.604 110.324 -69.7339 68.4157 
131.929 -78.3445 65.8731 89.6577 -66.9651 69.5279 129.749 -59.6862 72.7368 
119.88 -81.4291 81.5343 93.5763 -35.4337 73.6476 -99.0913 -4.15378 44.2894 
-135.392 -10.3105 40.6443 -109.792 22.1613 44.3635 -119.766 1.67711 37.0224 
-112.19 1.97781 58.1023 -110.375 20.7235 65.1326 -93.3584 17.172 55.2483 
-132.12 3.48742 57.3827 -105.602 5.49963 77.1885 -126.937 13.7084 73.88 
-91.7057 -1.13305 63.1332 -120.21 -7.72466 73.7696 -88.0421 8.44527 86.2957 
-103.01 -11.4551 87.4704 -139.666 28.3524 78.7455 -121.134 -23.4028 88.0975 
-84.6843 -10.0901 79.5786 -77.8083 -13.7642 46.4384 -44.0148 17.7526 38.4331 
-68.3583 0.614096 56.6314 -60.2615 18.8805 55.7912 -48.9771 6.34134 66.5271 
[...]
POINT_DATA 2000
FIELD FieldData 7
id 1 2000 int
41 77 196 230 308 107 205 282 106 
55 438 53 85 259 296 439 157 275 
424 371 40 273 71 185 265 297 299 
410 440 172 95 351 336 437 49 33 
376 408 397 216 164 380 59 139 141 
29 30 379 335 434 394 283 247 47 
411 36 142 338 414 456 32 161 261 
453 80 276 381 245 114 425 171 112 
231 246 215 10 143 211 115 208 232 
365 48 243 45 167 75 300 149 113 
174 222 318 108 354 285 317 359 201 
200 117 252 262 286 314 395 334 274 
239 342 66 147 255 443 309 413 278 
238 405 50 345 20 220 187 46 225 
11 212 69 37 358 390 416 347 122 
123 197 264 430 315 204 219 298 256 
135 346 54 97 178 213 271 404 84 
199 320 400 234 450 152 444 99 362 
8 279 321 250 384 378 195 240 399 
186 111 12 169 73 133 131 132 389 
419 449 229 369 375 102 72 374 330 
253 34 154 221 266 173 352 366 58 
329 206 301 138 6 284 179 328 184 
224 168 311 455 295 385 90 88 78 
62 302 339 79 83 218 426 127 128 
294 433 341 110 227 396 421 429 251 
242 18 423 344 96 160 209 288 367 
370 452 116 198 203 244 343 442 166 
304 361 401 448 1864 1025 1285 272 223 
9 82 130 350 119 409 290 383 1007 
1904 1249 1749 292 1878 2 241 156 64 
76 210 263 1855 1873 364 1584 1941 1011 
418 327 293 22 144 165 382 323 332 
42 1715 1811 1945 137 51 125 445 81 
155 249 436 74 1428 1281 1934 720 1920 
856 700 1308 1665 1450 5 331 388 26 
307 552 183 1551 319 65 163 191 236 
1719 1793 23 1676 1730 903 642 415 422 
417 281 28 226 1366 402 39 392 14 
44 189 306 931 1603 118 89 1953 997 
1922 25 86 313 398 180 188 1317 1870 
1643 581 43 412 129 322 761 1508 303 
326 764 1565 176 1155 1520 1143 1112 739 
1819 151 162 68 158 214 257 121 368 
175 427 353 1211 864 874 1540 4 217 
357 202 94 190 349 120 1159 570 746 
104 1001 268 260 7 100 333 432 457 
70 63 1767 622 1389 454 153 386 291 
15 277 19 441 1015 1407 839 1908 3 
254 57 228 393 145 177 420 1046 1600 
1399 909 340 1956 712 1975 1460 93 1 
270 387 109 170 181 140 312 91 1163 
1404 372 61 67 267 60 316 87 1652 
590 583 207 923 709 280 373 235 16 
194 148 789 1080 1406 431 1082 1951 1417 
377 182 310 103 233 337 35 258 356 
24 159 435 1430 1367 1124 1820 1194 852 
105 360 403 237 287 363 92 348 21 
1398 1517 1852 1685 324 1191 27 428 391 
56 98 1807 1893 1087 1716 1200 355 1283 
407 289 446 101 192 13 124 1869 1400 
1589 701 674 193 269 146 136 150 1883 
1995 771 817 1501 1706 1836 949 1815 1773 
1854 52 305 325 406 38 126 17 31 
447 134 248 967 1140 1618 1447 741 1424 
968 1761 1068 480 1694 1293 1726 784 954 
1929 1771 814 1334 1938 1195 484 1382 1176 
1178 1017 1220 541 1173 1999 1170 1982 1021 
948 1601 1452 1896 1534 1331 1838 668 907 
520 952 1262 1252 1865 1539 1071 1304 1712 
1337 553 1687 651 548 951 1634 1050 1156 
1542 654 1128 1988 1409 462 1105 1189 1728 
1757 1051 1474 838 1842 1561 1649 562 1537 
599 661 911 914 1147 1149 1459 866 1829 
479 753 946 1845 974 486 1527 1840 752 
573 1427 845 540 1206 1275 1683 1488 1656 
1543 718 1117 1342 1678 1781 489 878 995 
1045 1171 1578 1013 1994 1077 1866 833 889 
626 1586 875 1130 621 906 1799 1284 1213 
757 793 1894 1421 533 1725 985 1566 640 
1874 1203 1861 602 652 1365 644 1225 1234 
1415 779 862 1373 666 1167 960 723 912 
1042 1328 938 1673 806 495 1729 1480 1444 
521 574 854 658 1442 842 861 1419 1034 
1628 1099 1736 1738 1129 1465 1324 915 1756 
1677 532 754 1063 1190 1496 1947 1850 628 
1453 722 1270 1031 1696 1023 1066 1718 1563 
1881 698 799 1144 1554 1813 1208 451 466 
1340 1831 1271 1745 1401 1391 1572 467 471 
970 1937 594 1385 1912 1675 888 1119 1369 
1602 464 1579 1177 1341 1093 1102 474 580 
1468 1499 1769 506 1533 643 1412 1595 1928 
1414 1890 1959 608 1570 1362 470 597 1679 
1172 1074 919 798 1258 1529 1720 1743 965 
975 1803 1884 841 656 1416 1481 892 1040 
1791 1108 1653 566 853 564 1490 492 1647 
1620 1261 1052 1577 1458 837 934 673 1475 
1682 1606 660 729 962 1960 624 1470 1241 
1608 664 518 1131 1903 1326 966 1638 1858 
1441 1477 1636 759 1784 1070 1825 1552 1255 
1303 797 513 1355 1822 803 805 893 925 
728 1438 1092 936 964 1433 848 1931 1891 
1859 1830 1610 1844 535 1837 1267 1889 469 
1734 1887 810 531 1768 1268 1591 537 1201 
1979 1153 1525 885 1879 1073 1626 1892 1054 
1684 588 1919 991 488 1216 749 981 1037 
473 604 1503 671 630 876 1291 1965 1461 
508 1229 1231 1548 1098 461 475 832 1545 
1125 1104 2000 1387 1360 551 887 1827 522 
1667 1263 696 990 1702 1359 1804 1906 1058 
1911 1422 775 459 565 687 1169 1662 944 
1633 801 1483 1055 820 675 1209 1962 781 
1614 1089 1752 835 670 1462 1576 1980 1101 
1780 1060 1135 1120 969 1978 1582 1361 1487 
1094 487 1223 1121 751 1205 1059 1473 1823 
667 850 987 972 1661 1352 1663 1974 589 
616 496 1916 1254 1932 986 1860 539 807 
886 1936 1118 1084 1930 618 1100 686 1166 
1711 730 1026 1446 763 530 1018 1332 1772 
1004 1835 1616 1935 1622 601 493 755 692 
614 758 1343 1564 1796 1287 740 1966 515 
1495 865 1309 896 1532 1300 1550 1368 1222 
1187 788 498 809 894 935 1740 916 1788 
1632 1573 725 770 1507 1035 1264 1491 1558 
528 1036 1076 1467 1397 632 1707 830 1310 
1834 745 961 901 1197 1333 1569 1282 1494 
1846 1062 575 1064 1269 1504 994 688 1150 
607 999 1126 1318 569 1524 922 682 1770 
645 1049 1701 1863 924 1312 1948 1917 538 
953 1214 1114 895 1613 732 613 1575 1783 
1923 713 1056 511 1925 904 623 705 1775 
1910 523 1048 1371 503 1918 600 1138 1466 
1849 733 1109 1789 1963 802 1192 1247 1276 
1957 1228 1336 738 1808 1867 1972 525 557 
1250 627 641 572 655 790 1722 1764 1732 
1856 472 1204 1708 1219 1944 1809 1798 1041 
1952 561 1078 1196 1184 1741 1134 1043 491 
1418 942 1313 1992 1549 1083 1175 710 1629 
825 1420 800 1455 1897 1260 1666 567 1356 
1818 1370 1810 1290 648 1505 1029 478 1354 
647 1375 1053 1024 1964 1704 1942 1432 1590 
1165 1760 697 1440 547 1802 831 1376 502 
1344 992 1596 1983 1961 1069 678 1735 1670 
984 1383 1379 1514 545 920 988 1358 1047 
1500 1489 1492 1226 646 1724 818 959 1245 
1664 1122 794 1295 1557 1160 499 1607 704 
769 595 1650 1991 1181 1754 529 1585 1009 
1237 736 685 787 867 1357 1790 1251 1350 
1434 1088 1235 1547 1828 1853 620 596 1993 
483 1090 822 519 1139 1660 1939 708 1814 
1571 509 1672 1598 1246 1067 1030 1377 1695 
689 1973 1439 1242 1289 526 1674 1469 1061 
1604 1006 679 681 649 1107 1668 1476 1839 
742 868 796 1210 869 1327 1833 485 1085 
476 611 871 774 917 1546 1297 1623 571 
650 1901 1454 1792 1394 902 1805 1699 1877 
510 1457 1705 603 1142 1739 680 1345 1445 
780 1568 918 870 1116 1512 743 1179 1513 
1152 703 955 468 1431 1392 1915 693 1277 
482 765 1778 945 971 1232 1876 1113 1133 
1516 1273 1968 1642 1703 829 1522 1907 1832 
908 1425 1493 993 1857 546 1363 1065 1958 
1307 1426 1146 1305 1151 777 695 1174 1559 
1940 750 819 1511 1841 558 1224 1396 1746 
1744 1977 836 1348 559 1106 760 1556 631 
1594 1976 1502 1882 1755 1010 1593 1581 677 
1530 1515 1617 1615 1619 1039 1742 910 881 
1969 929 1448 612 744 1580 1000 827 1555 
1926 534 795 657 1353 1821 1429 1812 579 
1646 1921 851 1123 694 824 1478 615 1286 
1510 549 1136 1541 563 578 762 1240 1311 
863 1700 1574 1338 1801 690 1185 1875 1753 
767 1885 1762 699 1148 1390 956 1339 1641 
1967 1028 1899 517 1137 939 1464 973 463 
1079 731 1230 860 1280 1378 1627 1713 1905 
1091 950 1198 847 858 737 941 1782 1322 
1132 1288 785 921 1016 1669 1909 555 1717 
1737 1871 481 958 927 873 1330 1193 1692 
1265 1072 592 928 1095 1408 1611 899 1274 
1996 1012 1472 577 505 1374 1886 724 998 
1306 1168 1509 524 1597 1182 1686 1721 1014 
1393 1008 1950 1315 1759 653 1949 1162 1022 
1637 1239 1723 1955 637 812 1862 1236 1544 
554 634 976 560 857 1278 1795 1800 1588 
977 926 1329 1227 1335 1970 840 1787 1321 
591 576 1645 1521 1592 1847 1851 1221 1141 
1212 1583 1671 719 811 747 1005 1302 1411 
584 663 1256 1161 662 846 1215 1691 804 
937 1158 707 1238 1044 843 1654 1380 715 
514 1057 1325 1587 772 1531 1482 1630 1794 
1266 1651 586 516 815 855 1032 1680 1697 
1777 890 773 1635 1164 1299 933 702 877 
808 1621 1690 963 1279 1436 672 568 1817 
536 1364 1451 1003 786 542 1763 605 1347 
1301 1927 880 1560 1110 500 507 1898 1259 
1747 1824 1316 717 1423 816 766 556 716 
879 1111 721 898 1727 826 1388 900 1449 
1751 756 947 1924 1506 1435 735 1183 1826 
1372 1127 1086 587 980 1207 665 1298 1933 
1097 1689 1497 1797 1253 1154 905 1990 1880 
891 1776 834 512 1405 1693 1395 1027 1848 
1538 1486 1640 1320 734 748 544 1351 821 
1188 669 477 791 1314 1485 1038 1987 638 
619 1019 1218 1766 768 1523 828 504 1386 
711 978 1599 1758 776 1888 1989 982 1413 
610 1471 1033 943 1748 1456 617 1688 1519 
458 1985 1096 1681 1943 606 783 996 683 
1986 1868 1914 490 1954 957 1463 593 598 
1403 1257 1655 1381 813 1639 1624 1075 714 
1410 635 625 1292 1733 1157 706 1843 1997 
989 527 1971 1498 1609 1714 897 1272 1081 
1816 1402 636 543 1296 1946 1562 659 1984 
1115 1786 1443 1998 501 1648 1346 1553 1233 
849 1349 884 859 585 1526 1186 940 1103 
882 497 1709 778 609 1605 1145 582 844 
1731 1020 1528 983 1323 1981 1658 1484 1319 
1002 1243 1657 1698 1437 1202 930 465 932 
1384 1785 913 494 1631 792 1248 1180 1294 
1872 1612 1518 1479 1895 633 823 883 1625 
1659 1913 1536 872 1644 1779 1806 1535 1244 
782 1217 1902 629 1765 979 684 1750 727 
1199 460 639 550 691 676 1710 1900 1774 
726 1567 
type 1 2000 int
1 1 1 1 1 1 1 1 1 
1 1 1 1 1 1 1 1 1 
1 1 1 1 1 1 1 1 1 
1 1 1 1 1 1 1 1 1 
1 1 1 1 1 1 1 1 1 
1 1 1 1 1 1 1 1 1 
1 1 1 1 1 1 1 1 1 
1 1 1 1 1 1 1 1 1 
1 1 1 1 1 1 1 1 1 
1 1 1 1 1 1 1 1 1 
1 1 1 1 1 1 1 1 1 
1 1 1 1 1 1 1 1 1 
1 1 1 1 1 1 1 1 1 
1 1 1 1 1 1 1 1 1 
1 1 1 1 1 1 1 1 1 
1 1 1 1 1 1 1 1 1 
1 1 1 1 1 1 1 1 1 
1 1 1 1 1 1 1 1 1 
1 1 1 1 1 1 1 1 1 
1 1 1 1 1 1 1 1 1 
1 1 1 1 1 1 1 1 1 
1 1 1 1 1 1 1 1 1 
1 1 1 1 1 1 1 1 1 
1 1 1 1 1 1 1 1 1 
1 1 1 1 1 1 1 1 1 
1 1 1 1 1 1 1 1 1 
1 1 1 1 1 1 1 1 1 
1 1 1 1 1 1 1 1 1 
1 1 1 1 1 1 1 1 1 
1 1 1 1 1 1 1 1 1 
1 1 1 1 1 1 1 1 1 
1 1 1 1 1 1 1 1 1 
1 1 1 1 1 1 1 1 1 
1 1 1 1 1 1 1 1 1 
1 1 1 1 1 1 1 1 1 
1 1 1 1 1 1 1 1 1 
1 1 1 1 1 1 1 1 1 
1 1 1 1 1 1 1 1 1 
1 1 1 1 1 1 1 1 1 
1 1 1 1 1 1 1 1 1 
1 1 1 1 1 1 1 1 1 
1 1 1 1 1 1 1 1 1 
1 1 1 1 1 1 1 1 1 
1 1 1 1 1 1 1 1 1 
1 1 1 1 1 1 1 1 1 
1 1 1 1 1 1 1 1 1 
1 1 1 1 1 1 1 1 1 
1 1 1 1 1 1 1 1 1 
1 1 1 1 1 1 1 1 1 
1 1 1 1 1 1 1 1 1 
1 1 1 1 1 1 1 1 1 
1 1 1 1 1 1 1 1 1 
1 1 1 1 1 1 1 1 1 
1 1 1 1 1 1 1 1 1 
1 1 1 1 1 1 1 1 1 
1 1 1 1 1 1 1 1 1 
1 1 1 1 1 1 1 1 1 
1 1 1 1 1 1 1 1 1 
1 1 1 1 1 1 1 1 1 
1 1 1 1 1 1 1 1 1 
1 1 1 1 1 1 1 1 1 
1 1 1 1 1 1 1 1 1 
1 1 1 1 1 1 1 1 1 
1 1 1 1 1 1 1 1 1 
1 1 1 1 1 1 1 1 1 
1 1 1 1 1 1 1 1 1 
1 1 1 1 1 1 1 1 1 
1 1 1 1 1 1 1 1 1 
1 1 1 1 1 1 1 1 1 
1 1 1 1 1 1 1 1 1 
1 1 1 1 1 1 1 1 1 
1 1 1 1 1 1 1 1 1 
1 1 1 1 1 1 1 1 1 
1 1 1 1 1 1 1 1 1 
1 1 1 1 1 1 1 1 1 
1 1 1 1 1 1 1 1 1 
1 1 1 1 1 1 1 1 1 
1 1 1 1 1 1 1 1 1 
1 1 1 1 1 1 1 1 1 
1 1 1 1 1 1 1 1 1 
1 1 1 1 1 1 1 1 1 
1 1 1 1 1 1 1 1 1 
1 1 1 1 1 1 1 1 1 
1 1 1 1 1 1 1 1 1 
1 1 1 1 1 1 1 1 1 
1 1 1 1 1 1 1 1 1 
1 1 1 1 1 1 1 1 1 
1 1 1 1 1 1 1 1 1 
1 1 1 1 1 1 1 1 1 
1 1 1 1 1 1 1 1 1 
1 1 1 1 1 1 1 1 1 
1 1 1 1 1 1 1 1 1 
1 1 1 1 1 1 1 1 1 
1 1 1 1 1 1 1 1 1 
1 1 1 1 1 1 1 1 1 
1 1 1 1 1 1 1 1 1 
1 1 1 1 1 1 1 1 1 
1 1 1 1 1 1 1 1 1 
1 1 1 1 1 1 1 1 1 
1 1 1 1 1 1 1 1 1 
1 1 1 1 1 1 1 1 1 
1 1 1 1 1 1 1 1 1 
1 1 1 1 1 1 1 1 1 
1 1 1 1 1 1 1 1 1 
1 1 1 1 1 1 1 1 1 
1 1 1 1 1 1 1 1 1 
1 1 1 1 1 1 1 1 1 
1 1 1 1 1 1 1 1 1 
1 1 1 1 1 1 1 1 1 
1 1 1 1 1 1 1 1 1 
1 1 1 1 1 1 1 1 1 
1 1 1 1 1 1 1 1 1 
1 1 1 1 1 1 1 1 1 
1 1 1 1 1 1 1 1 1 
1 1 1 1 1 1 1 1 1 
1 1 1 1 1 1 1 1 1 
1 1 1 1 1 1 1 1 1 
1 1 1 1 1 1 1 1 1 
1 1 1 1 1 1 1 1 1 
1 1 1 1 1 1 1 1 1 
1 1 1 1 1 1 1 1 1 
1 1 1 1 1 1 1 1 1 
1 1 1 1 1 1 1 1 1 
1 1 1 1 1 1 1 1 1 
1 1 1 1 1 1 1 1 1 
1 1 1 1 1 1 1 1 1 
1 1 1 1 1 1 1 1 1 
1 1 1 1 1 1 1 1 1 
1 1 1 1 1 1 1 1 1 
1 1 1 1 1 1 1 1 1 
1 1 1 1 1 1 1 1 1 
1 1 1 1 1 1 1 1 1 
1 1 1 1 1 1 1 1 1 
1 1 1 1 1 1 1 1 1 
1 1 1 1 1 1 1 1 1 
1 1 1 1 1 1 1 1 1 
1 1 1 1 1 1 1 1 1 
1 1 1 1 1 1 1 1 1 
1 1 1 1 1 1 1 1 1 
1 1 1 1 1 1 1 1 1 
1 1 1 1 1 1 1 1 1 
1 1 1 1 1 1 1 1 1 
1 1 1 1 1 1 1 1 1 
1 1 1 1 1 1 1 1 1 
1 1 1 1 1 1 1 1 1 
1 1 1 1 1 1 1 1 1 
1 1 1 1 1 1 1 1 1 
1 1 1 1 1 1 1 1 1 
1 1 1 1 1 1 1 1 1 
1 1 1 1 1 1 1 1 1 
1 1 1 1 1 1 1 1 1 
1 1 1 1 1 1 1 1 1 
1 1 1 1 1 1 1 1 1 
1 1 1 1 1 1 1 1 1 
1 1 1 1 1 1 1 1 1 
1 1 1 1 1 1 1 1 1 
1 1 1 1 1 1 1 1 1 
1 1 1 1 1 1 1 1 1 
1 1 1 1 1 1 1 1 1 
1 1 1 1 1 1 1 1 1 
1 1 1 1 1 1 1 1 1 
1 1 1 1 1 1 1 1 1 
1 1 1 1 1 1 1 1 1 
1 1 1 1 1 1 1 1 1 
1 1 1 1 1 1 1 1 1 
1 1 1 1 1 1 1 1 1 
1 1 1 1 1 1 1 1 1 
1 1 1 1 1 1 1 1 1 
1 1 1 1 1 1 1 1 1 
1 1 1 1 1 1 1 1 1 
1 1 1 1 1 1 1 1 1 
1 1 1 1 1 1 1 1 1 
1 1 1 1 1 1 1 1 1 
1 1 1 1 1 1 1 1 1 
1 1 1 1 1 1 1 1 1 
1 1 1 1 1 1 1 1 1 
1 1 1 1 1 1 1 1 1 
1 1 1 1 1 1 1 1 1 
1 1 1 1 1 1 1 1 1 
1 1 1 1 1 1 1 1 1 
1 1 1 1 1 1 1 1 1 
1 1 1 1 1 1 1 1 1 
1 1 1 1 1 1 1 1 1 
1 1 1 1 1 1 1 1 1 
1 1 1 1 1 1 1 1 1 
1 1 1 1 1 1 1 1 1 
1 1 1 1 1 1 1 1 1 
1 1 1 1 1 1 1 1 1 
1 1 1 1 1 1 1 1 1 
1 1 1 1 1 1 1 1 1 
1 1 1 1 1 1 1 1 1 
1 1 1 1 1 1 1 1 1 
1 1 1 1 1 1 1 1 1 
1 1 1 1 1 1 1 1 1 
1 1 1 1 1 1 1 1 1 
1 1 1 1 1 1 1 1 1 
1 1 1 1 1 1 1 1 1 
1 1 1 1 1 1 1 1 1 
1 1 1 1 1 1 1 1 1 
1 1 1 1 1 1 1 1 1 
1 1 1 1 1 1 1 1 1 
1 1 1 1 1 1 1 1 1 
1 1 1 1 1 1 1 1 1 
1 1 1 1 1 1 1 1 1 
1 1 1 1 1 1 1 1 1 
1 1 1 1 1 1 1 1 1 
1 1 1 1 1 1 1 1 1 
1 1 1 1 1 1 1 1 1 
1 1 1 1 1 1 1 1 1 
1 1 1 1 1 1 1 1 1 
1 1 1 1 1 1 1 1 1 
1 1 1 1 1 1 1 1 1 
1 1 1 1 1 1 1 1 1 
1 1 1 1 1 1 1 1 1 
1 1 1 1 1 1 1 1 1 
1 1 1 1 1 1 1 1 1 
1 1 1 1 1 1 1 1 1 
1 1 1 1 1 1 1 1 1 
1 1 1 1 1 1 1 1 1 
1 1 1 1 1 1 1 1 1 
1 1 1 1 1 1 1 1 1 
1 1 1 1 1 1 1 1 1 
1 1 
i 3 2000 int
0 0 0 0 0 0 0 0 0 
0 0 0 0 0 0 0 0 0 
0 0 0 0 0 0 0 0 0 
0 0 0 0 0 0 0 0 0 
0 0 0 0 0 0 0 0 0 
0 0 0 0 0 0 0 0 0 
0 0 0 0 0 0 0 1 0 
0 0 0 0 0 0 0 0 0 
0 0 0 0 0 0 0 0 0 
0 0 0 0 0 0 0 0 0 
0 0 0 0 0 0 0 0 0 
0 0 0 0 0 0 0 0 0 
0 0 0 0 0 0 0 0 0 
0 0 0 0 0 0 -1 0 0 
0 0 0 0 0 0 0 0 0 
0 0 0 0 0 0 0 0 0 
0 0 0 0 0 0 0 0 0 
0 0 0 0 1 0 0 0 0 
0 0 0 0 0 0 0 0 0 
0 0 0 0 0 0 0 0 0 
0 0 0 0 0 0 0 0 0 
0 0 0 0 0 0 0 0 0 
0 0 0 0 0 0 0 0 0 
0 0 0 0 0 0 0 0 0 
0 0 0 0 0 0 0 0 0 
0 0 0 0 0 0 0 0 0 
0 0 0 0 0 0 0 0 0 
0 0 0 0 0 0 0 0 0 
0 0 0 0 0 0 0 0 0 
0 0 0 0 0 0 0 0 0 
0 0 0 0 0 0 0 0 0 
0 0 0 0 0 0 0 0 0 
0 0 0 0 0 0 0 0 0 
0 0 0 0 0 0 0 0 0 
0 0 0 0 0 0 0 0 0 
0 0 0 0 0 0 0 0 0 
0 0 0 0 0 0 0 0 0 
0 0 0 0 0 0 0 0 0 
0 0 0 0 0 0 0 0 0 
0 0 0 0 0 0 0 0 0 
0 0 0 0 0 0 0 0 0 
0 0 0 0 0 0 0 0 0 
0 0 0 0 0 0 0 0 0 
0 0 0 0 0 0 0 0 0 
0 0 0 0 0 0 0 0 0 
0 0 0 0 0 0 0 0 0 
0 0 0 0 0 0 0 0 0 
0 0 0 0 0 0 0 0 0 
0 0 0 -1 0 0 0 0 0 
0 0 0 0 0 0 0 0 0 
0 0 0 0 0 0 0 0 0 
0 0 0 0 0 0 0 0 0 
0 0 0 0 0 0 0 0 0 
0 0 0 0 0 0 0 0 0 
0 0 0 0 0 0 0 0 0 
0 0 0 0 0 0 0 0 0 
0 0 0 0 0 0 0 0 0 
0 0 0 0 0 0 0 0 0 
0 0 0 0 0 0 0 0 0 
0 0 0 0 0 0 0 0 0 
0 0 0 0 0 0 0 0 0 
0 0 0 0 0 0 0 0 0 
0 0 0 0 0 0 0 0 0 
0 0 0 0 0 0 0 0 0 
0 0 0 0 0 0 0 0 0 
0 0 0 0 0 0 0 0 0 
0 0 0 0 0 0 0 -1 0 
0 0 0 0 0 0 1 0 0 
0 0 0 0 -1 0 0 0 0 
0 0 0 0 0 0 0 0 0 
0 0 0 0 0 0 0 0 0 
0 0 0 0 0 0 0 0 0 
0 0 0 0 0 0 0 0 0 
0 0 0 0 0 0 0 0 0 
0 0 0 0 0 0 0 0 0 
0 0 0 0 0 0 0 0 0 
0 0 0 0 0 0 0 0 0 
0 0 0 0 0 0 0 0 0 
0 0 0 0 0 0 0 0 0 
0 0 0 0 0 0 0 0 0 
0 0 0 0 0 0 0 0 0 
0 0 0 0 0 0 0 0 0 
0 0 0 0 0 0 0 0 0 
0 0 0 0 0 0 0 0 0 
0 0 0 0 0 0 0 0 0 
0 0 0 0 0 0 0 0 0 
0 0 0 1 0 0 0 0 0 
0 0 0 0 0 0 0 0 0 
0 0 0 0 0 0 0 0 0 
0 0 0 0 0 0 0 0 0 
0 0 0 0 0 0 0 0 0 
0 1 0 0 0 0 0 0 0 
0 0 0 0 0 0 0 0 0 
0 0 0 0 0 0 0 0 0 
0 0 0 0 0 0 0 0 0 
0 0 0 0 0 0 0 0 0 
0 0 0 0 0 0 0 0 0 
0 0 0 0 0 0 0 0 0 
0 0 0 0 0 0 0 0 0 
0 0 0 0 0 0 0 0 0 
0 0 0 0 0 0 0 0 0 
0 0 0 0 0 0 0 0 0 
0 0 0 0 0 0 0 0 0 
0 0 0 0 0 0 0 0 0 
0 0 0 0 0 0 0 0 0 
-1 0 0 0 0 0 0 0 0 
0 0 0 0 0 0 0 0 0 
0 0 0 0 0 0 0 0 0 
0 0 0 0 0 0 1 0 0 
0 0 0 0 0 0 0 0 0 
0 0 0 0 0 0 0 0 0 
0 0 0 0 0 0 0 0 0 
0 0 0 0 0 0 0 0 0 
0 0 0 0 0 0 0 0 0 
0 0 0 0 0 0 0 0 0 
0 0 0 0 0 0 0 0 0 
0 0 0 0 0 0 0 0 0 
0 0 0 0 0 0 0 0 0 
0 0 0 0 0 0 0 0 0 
0 0 0 0 0 0 0 0 0 
-1 0 0 0 0 0 0 0 0 
0 0 0 0 0 0 0 0 0 
0 0 0 0 0 0 0 0 0 
0 0 0 0 0 0 0 0 0 
1 0 0 0 0 0 0 0 0 
0 0 0 0 0 0 0 0 0 
1 0 0 0 0 0 0 0 0 
0 0 0 0 0 0 0 0 0 
0 0 0 1 0 0 0 0 0 
0 0 0 0 0 0 0 0 0 
0 0 0 0 0 0 0 0 0 
0 0 0 0 0 0 0 0 0 
0 0 0 0 0 0 0 0 0 
0 0 0 0 0 0 0 0 0 
0 0 0 0 0 0 0 0 0 
0 0 0 0 0 0 0 0 0 
0 0 0 0 0 0 0 0 0 
0 0 0 0 0 0 0 0 0 
0 0 0 0 0 0 0 0 0 
0 0 0 0 0 0 0 0 0 
0 0 0 0 0 0 0 0 0 
0 0 0 0 0 0 0 0 0 
0 0 0 0 0 0 0 0 0 
0 0 0 0 0 0 0 0 0 
0 0 0 0 0 0 0 0 0 
0 0 0 0 0 0 0 0 0 
0 0 0 0 0 0 0 0 0 
0 0 0 0 0 0 0 0 0 
0 0 0 0 0 0 0 0 0 
0 0 0 0 0 0 0 0 0 
0 0 0 0 0 0 1 0 0 
0 0 0 0 0 0 1 0 0 
0 0 0 0 0 0 0 0 0 
0 0 0 0 0 0 0 0 0 
0 0 0 0 0 0 0 0 0 
0 0 0 0 0 0 0 0 0 
0 0 0 0 0 0 0 0 0 
0 0 0 0 0 0 0 0 0 
0 0 0 0 0 0 0 0 0 
0 0 0 0 0 0 0 0 0 
0 0 0 0 0 0 0 0 0 
0 0 0 0 0 0 0 0 0 
0 0 0 0 0 0 0 0 0 
0 0 0 0 0 0 0 0 0 
0 0 0 0 0 0 0 0 0 
-1 0 0 0 0 0 0 0 0 
0 0 0 0 0 0 0 0 0 
0 0 0 0 0 0 0 0 0 
0 0 0 0 0 0 0 0 0 
0 0 0 0 0 0 0 0 0 
0 -1 0 0 0 0 0 -1 0 
0 0 0 0 0 0 0 0 0 
0 0 0 0 0 0 0 0 0 
0 0 0 0 0 0 0 0 0 
0 0 0 0 0 0 0 0 0 
0 0 0 0 0 0 0 -1 0 
0 0 0 0 0 0 0 0 0 
0 0 0 0 0 0 0 0 0 
0 0 0 0 0 0 0 -1 0 
0 0 0 0 -1 0 0 0 0 
0 0 0 0 -1 0 0 0 0 
0 0 0 0 0 0 0 0 0 
0 0 0 0 0 0 0 0 0 
0 0 0 0 0 0 0 0 0 
0 0 0 0 -1 0 0 0 0 
0 0 0 0 0 0 0 0 0 
0 0 0 0 0 0 0 0 0 
0 0 0 0 0 0 0 0 0 
0 0 0 0 0 0 0 0 0 
0 -1 0 0 0 0 0 0 0 
0 0 0 -1 0 0 0 -1 0 
-1 0 0 0 0 0 0 0 0 
0 0 0 0 0 0 0 0 0 
0 0 0 0 0 0 0 0 0 
0 0 0 0 0 0 0 0 0 
0 0 0 0 0 0 0 0 0 
0 0 0 0 0 0 0 0 0 
0 0 0 0 0 0 0 0 0 
0 1 0 0 0 0 0 0 0 
0 1 0 0 0 0 0 0 0 
0 0 0 0 0 0 0 0 0 
0 0 0 0 0 0 0 0 0 
0 0 0 0 0 0 0 0 0 
0 0 0 0 0 0 0 0 0 
0 0 0 0 0 0 0 1 0 
0 0 0 0 0 0 0 0 0 
0 0 0 0 0 0 0 0 0 
0 0 0 0 0 0 0 0 0 
0 0 0 0 1 0 0 0 0 
0 0 0 0 1 0 0 0 0 
0 0 0 0 0 0 0 0 0 
0 0 0 0 0 0 0 0 0 
0 0 0 0 0 0 0 0 0 
0 0 0 0 0 0 0 0 0 
0 0 0 0 0 0 0 0 0 
0 0 0 0 0 0 0 0 0 
1 0 0 0 0 0 0 0 0 
0 0 0 0 0 0 0 0 0 
0 0 0 0 0 0 0 0 0 
0 0 0 0 0 0 0 0 0 
0 0 0 0 0 0 0 0 0 
0 0 0 0 0 0 0 0 0 
0 0 0 0 0 0 0 0 0 
0 0 0 0 0 0 0 0 0 
0 0 0 0 0 0 0 0 0 
0 0 0 0 0 0 0 0 0 
0 0 0 0 0 0 0 0 0 
0 0 0 0 0 0 0 0 0 
0 0 0 0 0 0 0 0 0 
0 0 0 0 0 0 -1 0 0 
0 0 0 0 0 0 0 0 0 
0 0 0 0 0 0 0 0 0 
0 0 0 0 0 0 0 0 0 
0 0 0 0 0 0 0 0 0 
0 0 0 0 0 0 0 0 0 
0 0 0 0 0 0 0 0 0 
0 0 0 0 0 0 0 0 0 
0 0 0 0 0 0 0 0 0 
0 0 0 0 0 0 0 0 0 
0 0 0 0 0 0 0 0 0 
0 0 0 0 0 0 0 0 0 
0 0 0 0 0 0 0 0 0 
0 0 0 0 0 0 0 0 0 
0 0 0 0 0 0 0 0 0 
0 0 0 0 0 0 0 0 0 
0 0 0 0 0 0 0 0 0 
0 0 0 0 0 0 0 0 0 
0 0 0 0 0 0 0 0 0 
0 0 0 0 0 0 0 0 0 
0 0 0 0 0 0 0 0 0 
-1 0 0 0 0 0 0 0 0 
0 0 0 0 0 0 0 0 0 
0 0 0 0 0 0 0 0 0 
0 0 0 0 0 0 0 0 0 
0 0 0 0 0 0 0 0 0 
0 0 0 0 0 0 0 0 0 
0 0 0 0 0 0 0 0 0 
1 0 0 0 0 0 0 0 0 
1 0 0 0 0 0 1 0 0 
0 0 0 0 0 0 0 0 0 
0 0 0 0 0 0 0 0 0 
0 0 0 0 0 0 0 0 0 
0 0 0 0 0 0 0 0 0 
0 0 0 0 0 0 0 0 0 
0 0 0 0 0 0 0 0 0 
0 0 0 0 0 0 0 0 0 
0 0 0 0 0 0 0 0 0 
0 0 0 0 0 0 0 0 0 
0 0 0 0 0 0 0 0 0 
0 0 0 0 0 0 0 0 0 
0 0 0 0 0 0 0 0 0 
0 0 0 0 0 0 0 0 0 
0 0 0 0 0 0 0 0 0 
0 0 0 0 0 0 0 0 0 
0 0 0 0 0 0 0 0 0 
0 0 0 0 0 0 0 0 0 
0 0 0 0 -1 0 0 0 0 
0 0 0 0 0 0 0 0 0 
0 0 0 0 0 0 0 0 0 
0 0 0 0 0 0 0 0 0 
0 0 0 0 -1 0 0 0 0 
0 0 0 0 0 0 0 0 0 
0 0 0 0 0 0 0 0 0 
0 0 0 0 0 0 0 0 0 
0 0 0 0 0 0 0 0 0 
0 0 0 0 0 0 0 0 0 
0 0 0 0 0 0 0 0 0 
0 0 0 0 0 0 0 0 0 
0 0 0 0 0 0 0 0 0 
0 0 0 0 0 0 0 -1 0 
0 0 0 0 0 0 -1 0 0 
0 0 0 0 0 0 0 0 0 
0 0 0 0 0 0 0 0 0 
0 0 0 0 0 0 0 0 0 
0 0 0 0 0 0 0 0 0 
0 0 0 0 0 0 0 0 0 
0 0 0 0 0 0 0 0 0 
0 0 0 0 0 0 0 0 0 
0 0 0 0 0 0 0 1 0 
0 0 0 1 0 0 0 0 0 
0 0 0 0 0 0 0 0 0 
0 0 0 0 0 0 0 0 0 
0 0 0 0 0 0 0 0 0 
0 0 0 0 0 0 0 1 0 
0 0 0 0 0 0 0 0 0 
0 0 0 0 0 0 0 0 0 
0 1 0 0 0 0 0 0 0 
0 0 0 0 0 0 0 0 0 
0 0 0 0 0 0 0 0 0 
0 0 0 0 1 0 0 0 0 
0 0 0 0 0 0 0 0 0 
0 0 0 0 0 0 0 0 0 
0 0 0 0 0 0 0 0 0 
0 1 0 0 0 0 0 1 0 
0 0 0 0 0 0 0 0 0 
0 0 0 0 0 0 0 0 0 
0 0 0 0 0 0 0 0 0 
0 0 0 0 0 0 0 0 0 
0 0 0 0 0 0 0 0 0 
0 0 0 0 0 0 0 0 0 
0 0 0 0 0 0 0 0 0 
0 0 0 0 0 0 0 0 0 
0 0 0 0 0 0 0 0 0 
0 0 0 0 0 0 0 0 0 
0 0 0 0 0 0 0 0 0 
0 0 0 0 0 0 0 0 0 
0 0 0 0 0 0 0 0 0 
0 0 0 0 0 0 0 0 0 
0 0 0 0 0 0 0 0 0 
0 0 0 0 0 0 0 0 0 
0 0 0 -1 0 0 -1 0 0 
0 0 0 0 0 0 0 0 0 
0 0 0 0 0 0 0 0 0 
0 0 0 0 0 0 0 0 0 
0 0 0 0 0 0 0 0 0 
0 0 0 0 0 0 0 0 0 
0 0 0 0 0 0 0 0 0 
0 0 0 0 0 0 0 0 0 
0 0 0 0 0 0 0 0 0 
0 0 0 0 0 0 0 0 0 
0 0 0 0 0 0 0 0 0 
0 0 0 0 0 0 0 0 0 
0 0 0 0 0 0 0 0 0 
0 0 0 0 0 0 0 0 0 
0 0 0 0 0 0 0 0 0 