# vtk DataFile Version 4.0
Generated by LIGGGHTS
ASCII
DATASET POLYDATA
POINTS 2000 float
-100.554 -86.0798 9.92888 -89.9296 -104.11 9.91786 -109.685 -133.451 9.91876 
-121.972 -117.73 9.91854 -89.7785 -132.173 9.91454 -129.437 -136.255 9.91927 
-128.031 -98.7148 9.91831 -109.329 -103.215 15.2311 -114.994 -129.837 28.8188 
-99.3874 -119.441 21.9124 -140.629 -100.486 26.4009 -130.982 -117.908 27.7244 
-121.232 -100.811 31.0742 -96.4063 -136.178 32.3534 -43.8191 -114.255 9.91877 
-43.8143 -134.214 9.91825 -55.2931 -91.4828 9.91877 -61.6911 -123.141 9.92117 
-69.9883 -104.991 9.91546 -29.1641 -98.915 9.91944 -59.1187 -111.999 26.2874 
-79.5532 -121.419 23.2457 -57.7874 -137.038 23.8865 -77.1918 -140.377 29.0539 
-45.6135 -124.666 33.76 -44.7512 -91.4322 34.953 7.52356 -100.512 9.91788 
-9.28823 -136.011 9.91938 27.1876 -97.0706 9.91307 -10.4808 -91.8927 9.91929 
21.642 -124.863 9.91521 -26.038 -125.156 9.90966 23.4395 -105.061 27.8024 
2.3354 -119.785 9.9219 19.986 -124.601 29.7966 7.86218 -138.355 19.8611 
13.3986 -85.5279 21.7164 35.443 -86.3393 25.5367 81.2491 -88.499 9.91872 
38.2032 -113.718 9.91984 49.2926 -93.5969 9.91889 37.0984 -130.337 21.2973 
69.5506 -117.872 24.795 119.016 -124.309 9.91793 136.709 -110.735 9.92039 
117.787 -104.389 9.91766 101.059 -115.275 9.91841 100.804 -133.507 25.0625 
121.596 -100.193 29.053 99.9961 -95.3441 9.91925 136.376 -128.637 18.7569 
135.652 -90.7956 9.91827 121.851 -120.135 29.4804 102.397 -94.7821 29.7265 
103.19 -114.356 33.5619 -95.0318 -30.8111 26.1098 -123.716 -57.9006 9.92152 
-93.4516 -56.6367 24.316 -139.964 -46.3036 9.92152 -118.248 -38.7032 9.9173 
-105.866 -66.8362 9.91728 -92.0915 -42.1044 9.91819 -114.833 -50.038 25.9818 
-111.034 -78.5952 25.189 -129.764 -63.4998 28.1002 -130.702 -37.9343 25.4964 
-134.874 -74.4576 9.91959 -130.289 -83.436 27.249 -113.555 -31.5882 33.5052 
-81.948 -64.3646 9.93212 -38.2264 -81.1314 9.91877 -33.3347 -57.3227 9.91958 
-62.0479 -72.7021 9.91696 -60.4901 -41.1256 24.793 -48.2236 -73.8086 26.257 
-26.8891 -39.2438 15.3916 11.6691 -56.0511 9.90705 -8.21916 -57.6712 9.9162 
-5.659 -37.8753 9.92168 0.841057 -75.4555 9.91854 27.122 -77.1132 9.91804 
-19.5428 -74.1079 9.91877 12.8892 -59.7518 29.4635 -20.7399 -55.4502 25.292 
-7.62405 -41.0097 29.5406 -27.2239 -39.4827 35.3459 63.4317 -79.5089 9.91952 
45.6654 -72.3775 15.585 60.3272 -59.7996 9.91129 78.9585 -66.9512 9.91877 
31.5605 -57.6565 9.91654 71.0983 -35.9096 9.91778 46.3196 -53.7628 22.7671 
72.5921 -52.1363 23.6534 57.4761 -37.009 24.4604 31.6519 -66.4919 28.524 
86.6009 -48.5009 9.91798 99.0337 -77.7895 19.8107 111.077 -65.3182 9.91912 
100.203 -33.8889 9.91234 130.885 -62.8587 9.91924 116.726 -84.4597 9.91877 
119.109 -46.7463 9.9145 135.078 -53.3367 27.2616 133.156 -76.8468 23.9762 
130.269 -31.2414 15.6827 -133.432 -25.7519 9.92064 -111.54 7.47403 9.91787 
-96.7317 -5.90936 9.91984 -123.817 -8.2645 9.91438 -86.3826 -22.9784 9.91795 
-109.299 -18.3424 19.1907 -116.359 -1.43778 27.112 -113.05 18.2328 27.1771 
-127.989 21.5004 9.91877 -138.93 0.760748 32.9041 -140.523 -18.2447 27.0047 
-108.902 27.3404 9.91555 -83.177 -14.7301 27.8059 -35.314 -21.9956 9.91937 
-50.2671 4.95801 9.91262 -30.2752 17.5448 9.91878 -31.6995 -2.36468 9.91877 
-78.2198 19.7238 24.7962 -43.5084 15.7327 25.2841 -55.2435 -6.59237 25.4018 
24.0157 -26.9539 24.7932 -15.4134 -20.4608 9.91877 -13.2669 7.1503 10.9446 
9.47646 6.12115 9.91896 19.3149 7.42476 28.8822 29.3441 4.2093 9.91823 
55.4697 -23.4644 9.9354 38.7863 10.0977 32.349 78.7682 24.1611 24.3169 
47.7435 -3.5298 9.91952 45.2433 16.2717 9.91877 64.4914 21.5476 9.91877 
81.6596 10.6465 9.91724 53.3227 23.3322 28.8996 84.7111 -21.3142 9.9144 
103.266 -13.959 9.91904 140.364 0.726747 9.91843 125.606 -12.711 9.91908 
114.903 -21.7259 24.1539 112.787 16.1934 24.7889 -92.8587 66.3539 9.91865 
-114.964 46.354 9.91816 -95.0048 46.5134 9.9181 -136.879 75.6766 9.91692 
-133.808 55.9542 9.91996 -126.426 38.2528 24.1094 -86.745 81.7556 21.0407 
-84.667 53.7447 29.4602 -140.418 37.12 9.91926 -45.1916 30.8083 9.91877 
-30.2478 75.9284 24.7928 -60.1691 65.7042 9.91665 -59.2286 44.9995 9.91798 
-30.4935 44.3114 9.91878 -76.7426 54.5764 9.91877 -65.0513 74.18 27.3078 
-61.7464 50.2499 29.0076 -70.2089 82.9603 9.92191 18.8723 75.369 9.91767 
0.346525 67.933 9.92021 0.0953113 36.3149 24.7949 16.4856 67.0174 27.8855 
30.7025 53.1044 26.2345 31.2678 41.6144 9.92067 50.295 35.5797 9.91877 
68.8475 42.9383 9.9199 71.7516 62.6841 9.92409 35.0908 63.7316 9.91896 
84.5522 51.6227 20.5485 67.4499 39.7398 29.5739 47.7952 43.1458 28.8861 
53.1968 55.3269 9.91877 70.6554 59.1933 32.6893 33.6331 29.3696 31.7168 
88.5778 67.8953 31.3804 87.3648 34.9796 9.91416 128.034 65.3694 9.91877 
91.2046 67.1403 9.91569 109.987 73.878 9.91841 103.692 46.4726 9.91781 
123.648 45.8919 9.91947 105.64 60.214 24.4372 132.424 50.9889 27.1059 
120.464 73.3498 26.8973 88.4111 84.2075 19.8703 -90.4725 97.9038 9.91841 
-115.328 117.443 24.7952 -138.176 95.592 9.91839 -85.115 126.813 9.92507 
-71.6266 141.545 9.90812 -37.9324 120.176 9.91609 -54.667 131.043 9.91634 
-32.8396 110.716 26.7278 -40.8701 133.983 24.0305 -67.0313 108.497 33.5657 
-27.068 136.916 9.91792 20.3264 131.627 9.92399 -1.96879 90.0807 9.92182 
-0.090705 128.276 9.91835 -6.74187 109.459 9.9179 23.09 94.8781 9.91965 
9.79587 96.5009 24.7205 12.8816 113.108 9.91841 -16.1188 123.355 20.7472 
-2.83248 111.234 29.4091 12.0986 124.166 26.5146 25.3746 108.495 28.1604 
26.6083 138.852 34.5128 -4.64225 130.116 35.6079 48.8465 140.24 9.91586 
67.3832 132.579 9.91833 32.825 112.302 9.91889 51.5048 120.467 9.92237 
36.8161 128.576 20.7634 54.1483 88.9582 24.7964 70.6087 119.776 24.879 
56.2825 132.364 30.7716 83.7553 121.142 9.91981 90.5667 140.503 9.91637 
136.977 84.5587 26.8356 85.4165 101.252 9.91952 126.373 85.2755 9.92323 
101.822 112.624 9.91911 130.243 136.54 9.92317 110.516 139.633 9.91884 
103.464 92.7354 9.91628 135.044 117.158 9.92177 99.4851 128.636 23.3883 
118.052 123.237 18.4476 119.903 104.166 10.9499 133.523 130.581 28.6957 
114.874 134.304 34.753 -139.059 -111.822 48.8166 -90.4362 -118.614 39.7293 
-131.313 -133.995 39.5386 -119.958 -118.309 44.3519 -104.151 -129.373 49.4276 
-122.054 -133.438 57.2146 -129.527 -117.44 66.5098 -133.887 -138.862 72.3443 
-94.6906 -88.0562 81.5443 -138.207 -107.593 81.5387 -91.4415 -130.811 64.7293 
-84.0758 -113.547 57.9507 -81.4971 -134.605 47.6618 -46.2602 -116.226 51.8349 
-34.7684 -100.558 65.709 -66.3588 -129.97 59.8027 -70.5311 -119.339 40.9241 
-50.0465 -96.6926 53.4618 -81.6305 -97.9369 70.1349 -64.4056 -110.201 57.5711 
-43.5554 -135.932 50.1146 -62.8852 -140.087 42.9451 -52.6506 -120.036 70.3541 
-75.6902 -114.967 78.6811 -59.9582 -102.126 75.276 -60.4401 -140.061 75.9854 
-41.2073 -136.277 72.2343 -38.2455 -88.9936 82.737 -79.2008 -134.569 80.0201 
-30.4806 -119.814 68.7351 -42.7489 -108.419 83.1942 -79.1127 -85.6315 37.5284 
-74.1297 -97.7335 88.6287 -14.1609 -110.465 39.2875 19.7238 -114.141 46.974 
8.26262 -137.261 39.7872 9.96994 -128.075 57.4162 10.5113 -109.245 63.9939 
-7.59652 -138.861 58.5605 -4.18914 -87.2341 63.4091 14.9391 -94.9278 50.8079 
3.26357 -135.044 74.8692 -16.6532 -135.57 76.032 13.8931 -90.8864 71.0384 
25.6188 -126.186 70.0212 30.4006 -108.219 62.7584 33.2057 -96.4477 42.9083 
36.8272 -116.681 37.0037 44.5539 -136.655 40.387 57.8168 -131.923 54.5605 
39.3437 -124.399 55.2493 64.5398 -119.999 69.1029 48.2536 -107.226 50.3559 
48.2994 -99.5167 68.7513 72.0609 -105.633 57.4664 43.669 -118.277 73.7537 
30.9482 -88.3508 60.9992 71.2628 -138.737 67.6552 31.4503 -96.7767 79.0739 
54.0321 -135.017 77.0055 74.1553 -128.976 85.0556 30.735 -140.874 82.5319 
82.1185 -126.509 56.2238 140.291 -130.193 56.1524 88.8098 -100.265 48.0319 
92.4794 -137.089 42.8393 130.105 -135.137 39.7195 103.948 -113.371 53.4789 
123.262 -115.161 48.7623 111.127 -129.974 43.1336 130.24 -96.5762 46.6776 
100.911 -131.93 60.1668 110.368 -95.2801 48.0173 120.849 -131.213 60.5203 
99.2607 -98.0497 65.3836 115.961 -108.476 68.6409 110.512 -130.07 77.555 
92.7838 -116.42 69.7375 116.072 -88.6081 70.5465 133.22 -125.901 75.2527 
132.103 -91.4318 82.0914 104.934 -111.939 84.9193 124.827 -111.519 86.2512 
-122.881 -83.5215 61.3953 -123.788 -52.4981 43.6462 -99.7131 -45.0297 39.3087 
-106.383 -63.7818 37.7419 -130.095 -33.6165 45.0929 -101.799 -56.2712 55.6617 
-133.383 -42.0121 62.8853 -92.5095 -67.9614 68.9052 -85.4722 -49.1164 79.7752 
-135.426 -55.2614 77.6494 -104.371 -55.4834 79.0069 -133.485 -34.4751 81.3689 
-31.8082 -67.0248 56.3484 -83.6154 -52.6881 48.2867 -65.6198 -58.3853 54.7424 
-38.9467 -33.2176 51.1427 -60.4535 -83.9571 67.023 -55.7047 -41.708 59.4025 
-65.9789 -44.9432 80.7026 -75.2916 -42.3932 63.2311 -40.8501 -37.0623 71.8989 
-52.6602 -75.1985 83.1723 -66.1574 -63.7313 73.9653 -49.4371 -55.5354 84.2377 
-76.3912 -80.635 78.5802 -2.42855 -69.6199 37.6115 21.9538 -80.4335 39.0111 
16.3946 -56.7437 64.0844 -10.5808 -40.1791 49.2702 -22.8822 -34.0731 63.7581 
-4.21135 -28.8669 68.4695 11.7129 -28.9777 84.7548 23.9209 -80.7685 88.3142 
69.1348 -41.5166 40.1884 59.9619 -74.4366 47.3993 75.4459 -46.6979 61.9493 
44.3556 -43.1834 48.1103 59.0857 -35.5952 59.2335 67.3378 -62.3006 79.3235 
41.2083 -77.8748 76.6816 76.2593 -44.6185 81.7815 50.0701 -51.205 71.571 
41.7829 -33.2235 68.8925 60.6591 -31.7531 79.0291 116.671 -81.5625 34.1983 
103.001 -50.0885 40.7345 133.963 -34.9512 34.9415 93.741 -81.5321 52.833 
137.388 -50.5658 46.897 133.18 -69.5951 42.5745 94.7598 -46.2331 74.4703 
119.078 -78.2578 53.7369 85.5034 -62.7662 68.1941 126.332 -72.9132 77.3876 
128.466 -47.9168 64.5629 99.3756 -77.7301 71.5964 93.9343 -65.2812 86.2119 
-99.0904 -5.94436 36.0311 -104.838 10.6406 45.5268 -124.451 -15.6385 38.548 
-104.236 -23.0145 66.0749 -124.684 8.98006 44.217 -102.997 11.9006 65.3545 
-122.881 12.5524 63.7727 -93.2369 26.3516 55.6427 -114.407 6.91819 80.9445 
-95.2781 4.27466 85.9872 -122.445 24.9294 83.9761 -86.1148 4.90446 55.4397 
[...]
POINT_DATA 2000
FIELD FieldData 7
id 1 2000 int
41 77 196 230 301 308 411 107 205 
282 380 106 55 343 53 85 259 296 
439 157 275 328 424 223 371 273 185 
265 297 299 410 440 49 172 336 218 
351 95 300 376 408 437 22 59 139 
141 164 29 30 201 379 252 335 47 
283 36 142 215 338 414 456 171 32 
161 261 453 395 381 80 246 112 143 
231 10 211 243 115 208 212 232 365 
48 167 45 281 422 397 113 174 222 
318 108 354 285 317 149 200 434 117 
135 262 286 314 334 274 213 114 239 
342 346 413 66 147 238 99 412 298 
320 443 225 50 69 345 20 46 220 
11 37 358 390 416 122 359 123 256 
264 347 430 54 204 197 97 178 271 
404 15 84 199 362 400 458 234 184 
378 266 187 8 279 321 399 250 384 
387 224 195 240 12 186 133 111 131 
132 389 419 449 229 369 375 72 315 
233 253 34 102 154 221 330 173 352 
58 366 138 6 444 179 311 168 455 
295 385 27 88 62 169 302 339 341 
79 83 426 294 433 127 128 78 33 
110 227 396 421 18 251 242 429 344 
329 160 96 209 288 367 370 452 116 
198 284 247 447 244 438 442 166 401 
448 1283 852 1551 856 1025 361 304 71 
82 119 130 350 319 383 409 292 1007 
1248 1875 1713 1903 903 1746 290 1938 9 
1194 2 241 355 156 64 76 210 293 
1584 1870 1852 1011 418 39 216 263 269 
144 165 382 42 74 332 364 1712 1941 
1809 1945 949 323 1861 137 38 51 125 
394 445 81 155 249 272 436 1279 1425 
1934 701 720 1921 1306 1709 5 245 276 
425 331 388 307 553 1536 1779 655 1754 
23 65 163 415 191 236 1673 1716 1727 
1791 662 643 911 417 75 28 226 353 
1158 1363 974 392 14 44 306 118 89 
327 931 1602 120 1654 86 25 183 180 
313 398 189 188 1315 1641 1867 1919 1953 
255 309 405 26 278 129 322 303 761 
764 1565 43 739 1505 1015 152 57 151 
162 68 158 214 257 175 176 368 427 
864 1210 874 1539 793 1282 121 4 260 
217 357 94 190 202 349 402 1858 571 
591 746 603 268 219 7 100 333 104 
457 70 454 63 1386 1764 1001 752 153 
623 432 582 386 291 277 326 19 441 
1404 839 3 254 450 228 393 145 177 
377 140 1045 1599 1674 1396 1956 420 1457 
661 1 270 109 170 91 312 93 909 
1030 1693 451 61 373 67 267 60 87 
316 372 1650 584 467 280 73 789 235 
374 16 103 194 148 310 356 1079 1951 
1403 1414 206 1123 337 35 258 24 159 
182 435 340 1427 1973 1111 1817 105 126 
360 403 237 287 363 92 348 406 1682 
1395 1514 1849 1766 609 1190 181 324 391 
21 407 40 428 56 98 1805 1891 1086 
1281 1359 207 289 446 90 101 192 13 
124 1589 1866 1397 923 1449 1740 193 146 
423 136 305 52 150 431 1081 1881 1995 
771 817 1498 1833 1703 203 1364 325 17 
31 134 248 1616 967 1139 1444 741 1604 
1758 481 1067 1691 1541 954 1291 784 1104 
519 1769 814 1017 1155 1725 485 1533 1379 
600 1021 1175 542 1172 1999 669 1169 1329 
907 1980 948 965 1257 1600 1895 521 1835 
952 470 1335 1261 1645 951 1618 1340 1662 
1851 554 1447 1684 549 1632 1049 1267 1590 
1406 1127 1988 463 1188 838 1050 1471 1839 
1994 563 1890 775 1561 914 866 1146 1148 
1219 1456 1647 1177 753 1826 480 757 946 
487 1524 574 1424 1842 1837 1538 462 1251 
541 1205 1680 1485 1542 718 1116 887 1824 
1273 490 997 652 878 995 1044 1170 1675 
1578 622 1076 1154 1816 1863 1142 833 889 
627 1586 875 906 1129 1733 1212 1517 1892 
1418 534 1722 985 1566 641 969 1811 1362 
779 653 645 1224 1233 1370 1871 862 1582 
667 1388 845 1041 938 476 723 1412 1670 
806 1101 1166 496 522 1477 1915 1797 854 
1601 1439 1907 842 861 1013 1416 1033 1098 
1176 1626 1735 1128 1462 659 533 754 1062 
1189 1879 1947 1493 629 531 1847 722 1162 
1401 1023 1065 712 1715 1554 1563 699 799 
1143 709 1338 1828 1742 1572 472 1937 1441 
1726 970 595 960 1398 1911 1579 888 1118 
1672 1366 465 1092 1382 581 475 1465 1496 
1339 1269 1035 1723 1888 507 1532 1959 644 
1193 1594 961 1928 1831 901 1409 745 1199 
1570 1527 471 598 1676 1882 1073 919 1171 
892 798 1651 1039 853 675 702 1717 565 
975 1528 1801 841 657 1413 1478 468 1107 
1789 953 1982 567 1487 1771 493 1260 1679 
837 934 1051 1455 1577 1056 1302 1332 1472 
1421 674 625 1929 1240 1450 1606 1862 729 
962 968 1467 1960 1130 1324 1902 966 1636 
1855 1438 1474 1634 1183 759 1254 474 749 
1782 1301 514 1822 1353 803 893 1435 805 
1860 1819 1887 936 1430 848 1931 1889 925 
536 1070 1266 532 810 1218 1944 1552 538 
1200 1977 1910 1152 1522 1877 1624 1054 1681 
589 1918 991 489 1215 981 1500 605 1036 
1225 710 1417 672 631 728 1289 1963 876 
1222 1230 1548 1502 964 1097 832 1827 1124 
1544 1841 509 1103 1608 1053 1699 1986 1834 
1164 1731 523 1262 2000 990 1384 697 1905 
1802 1419 1936 460 566 915 688 1058 1168 
1660 944 984 1631 801 1480 1055 820 1376 
676 1117 1208 1962 1612 1088 1749 835 671 
1459 1576 1978 1100 647 1812 1721 1060 687 
1778 1458 1202 1119 1228 1358 1976 1484 1093 
987 1059 1120 751 1204 1470 596 668 1648 
769 1820 912 850 1326 972 1659 1350 1972 
497 736 1788 686 1664 540 1932 1253 1186 
1767 1857 1221 781 1322 807 1753 886 1083 
1443 1930 1099 619 730 1165 1669 1026 1597 
1066 1134 1018 1330 1770 758 1004 1832 527 
1614 1620 1671 602 1794 755 1207 488 1341 
1564 1285 1964 516 590 1492 865 1307 896 
1531 1550 740 477 1298 617 871 1365 788 
575 499 809 894 935 916 1786 1630 986 
1368 1803 725 1504 1034 1573 770 1488 1464 
1558 1935 529 1075 633 1394 1704 1708 1442 
1308 1568 918 1331 1569 1280 1491 1061 576 
1063 1268 1501 494 1843 994 1069 689 1149 
608 999 615 1411 1196 922 1125 1316 570 
683 1048 1521 1768 646 1091 1698 1422 924 
777 1490 1150 1916 539 1113 895 1310 1948 
732 1856 1575 614 1925 1922 1559 1213 1765 
1737 512 904 1611 1773 624 1263 1463 1781 
1893 1556 1885 1047 524 713 504 665 1909 
1917 601 1072 1137 1617 885 1739 929 1846 
733 797 1108 1787 1133 802 1274 1191 1227 
1970 1806 1246 535 738 1864 795 1426 526 
558 628 642 1334 1701 573 1135 1249 1719 
473 1203 1357 1729 656 1024 1145 1638 1853 
1705 560 1040 1807 790 1796 1761 562 1077 
1195 1965 503 700 1304 1549 1639 1042 492 
1613 1415 1992 942 1311 1957 1738 1497 1627 
825 1939 800 1452 1896 568 1259 1354 1815 
1288 1367 649 1808 1090 1904 1174 479 1352 
648 1429 1942 1372 1734 1868 698 1052 1757 
548 1373 831 593 1342 552 992 1595 1981 
1437 1068 1961 520 998 679 1356 1667 1380 
1511 546 1732 920 988 1046 1949 1486 1161 
708 818 959 1244 1661 794 1663 1293 1006 
1287 1241 1557 1571 500 1151 1159 1991 1180 
1751 1605 1009 1236 530 787 1319 1836 597 
1800 1355 1087 1585 1250 1348 1431 1234 1547 
1825 1850 719 811 1993 1658 747 1300 1844 
484 1089 822 604 1138 1121 510 1245 763 
1029 1374 1692 690 1971 1479 1436 517 693 
1466 1509 1526 1546 1876 680 650 694 1106 
1112 1473 1665 682 742 868 796 867 1209 
869 1325 486 1760 612 774 917 1545 1295 
1621 1830 621 572 651 1451 1900 1790 1741 
1537 902 1696 1874 511 1454 1702 1736 1391 
1314 681 1420 780 830 870 1115 743 1178 
1510 469 704 1428 955 1389 1914 1924 483 
765 1776 1615 945 971 1231 1873 1132 1513 
1271 1966 910 1519 1640 908 1275 1829 1854 
547 1360 1958 1064 1423 1508 696 993 1173 
1940 1346 750 819 1838 1303 559 1743 1223 
1393 1975 1952 1105 760 1141 632 1593 1974 
1499 1529 1581 1592 678 1752 1880 1010 791 
1038 881 1967 1445 613 744 1580 1000 827 
1555 1512 1082 1755 1926 776 1886 658 1351 
1810 1818 580 1197 1920 1644 1823 851 695 
1122 550 1540 564 579 762 1239 1309 1845 
1984 1697 1574 1336 863 1799 691 767 1184 
1883 1071 1147 1759 956 518 1028 973 1136 
1865 1461 464 1898 1078 711 731 1181 1229 
860 1489 1375 1625 1278 847 858 950 737 
941 1780 1131 927 977 1286 616 555 482 
958 785 1689 1785 626 724 1328 1192 928 
1094 1405 1609 899 1272 1872 1996 578 1012 
506 873 1469 1371 1884 715 1167 1506 525 
1596 1683 1718 1235 1008 1014 1022 1635 1238 
654 1649 1955 1720 638 812 1543 1859 635 
705 976 561 857 1276 1793 1798 1588 1320 
926 1327 1848 592 577 1643 1518 1220 1591 
543 1140 1211 1005 1408 585 664 663 846 
1214 1688 937 804 1157 1668 707 1237 1255 
515 1057 772 1323 1587 843 1163 498 1530 
587 815 855 1031 1677 1775 890 1694 773 
1633 703 1297 1619 1687 963 1433 1277 569 
1369 1814 537 1494 1361 1084 606 1345 1878 
1448 1299 905 1927 880 501 1160 508 1483 
1897 1258 640 717 821 1343 1724 1744 766 
816 1110 670 879 557 716 898 721 826 
1385 900 505 1446 947 756 1923 1503 1748 
673 829 1906 1126 1700 588 980 1206 1085 
666 1296 1933 891 1305 1774 1990 834 513 
1402 1686 1690 1392 1027 1096 1318 478 836 
734 748 1750 1187 545 978 939 1312 1482 
1037 1987 639 768 1019 1217 1598 1763 1985 
1349 1383 1989 982 1410 620 611 1520 1032 
1468 824 1475 1284 1507 943 618 1745 1453 
459 1095 1685 636 1777 1387 1337 1678 1943 
607 783 996 1913 491 1954 1607 684 957 
1460 1756 594 1710 1516 1400 1567 599 1256 
921 1016 556 1666 1908 813 1378 1714 1637 
1622 1074 1264 1290 1730 706 1407 1156 1840 
989 1997 528 1711 1969 1495 1390 897 1270 
1950 1399 1313 637 1080 1813 660 544 1946 
1294 714 1562 1653 1983 1226 1333 840 1114 
1440 1784 1583 1652 1656 502 930 1344 1481 
1646 1185 1232 1043 1377 849 884 1347 859 
1553 586 1628 933 1792 1265 940 1706 1523 
1102 882 610 877 778 1968 1998 583 844 
1603 1179 1144 808 1728 1003 1109 1979 786 
983 1020 1321 1560 1317 1242 1525 1655 1695 
1642 1002 1434 466 932 1821 1783 1381 913 
792 692 495 1247 1515 1629 1292 726 735 
1707 1432 1182 1894 1476 1610 1869 634 883 
1912 1252 1153 823 1623 1657 1243 782 1201 
1216 1535 1901 1762 1534 872 1804 1747 685 
461 1198 727 630 979 551 1899 677 828 
1772 1795 
type 1 2000 int
1 1 1 1 1 1 1 1 1 
1 1 1 1 1 1 1 1 1 
1 1 1 1 1 1 1 1 1 
1 1 1 1 1 1 1 1 1 
1 1 1 1 1 1 1 1 1 
1 1 1 1 1 1 1 1 1 
1 1 1 1 1 1 1 1 1 
1 1 1 1 1 1 1 1 1 
1 1 1 1 1 1 1 1 1 
1 1 1 1 1 1 1 1 1 
1 1 1 1 1 1 1 1 1 
1 1 1 1 1 1 1 1 1 
1 1 1 1 1 1 1 1 1 
1 1 1 1 1 1 1 1 1 
1 1 1 1 1 1 1 1 1 
1 1 1 1 1 1 1 1 1 
1 1 1 1 1 1 1 1 1 
1 1 1 1 1 1 1 1 1 
1 1 1 1 1 1 1 1 1 
1 1 1 1 1 1 1 1 1 
1 1 1 1 1 1 1 1 1 
1 1 1 1 1 1 1 1 1 
1 1 1 1 1 1 1 1 1 
1 1 1 1 1 1 1 1 1 
1 1 1 1 1 1 1 1 1 
1 1 1 1 1 1 1 1 1 
1 1 1 1 1 1 1 1 1 
1 1 1 1 1 1 1 1 1 
1 1 1 1 1 1 1 1 1 
1 1 1 1 1 1 1 1 1 
1 1 1 1 1 1 1 1 1 
1 1 1 1 1 1 1 1 1 
1 1 1 1 1 1 1 1 1 
1 1 1 1 1 1 1 1 1 
1 1 1 1 1 1 1 1 1 
1 1 1 1 1 1 1 1 1 
1 1 1 1 1 1 1 1 1 
1 1 1 1 1 1 1 1 1 
1 1 1 1 1 1 1 1 1 
1 1 1 1 1 1 1 1 1 
1 1 1 1 1 1 1 1 1 
1 1 1 1 1 1 1 1 1 
1 1 1 1 1 1 1 1 1 
1 1 1 1 1 1 1 1 1 
1 1 1 1 1 1 1 1 1 
1 1 1 1 1 1 1 1 1 
1 1 1 1 1 1 1 1 1 
1 1 1 1 1 1 1 1 1 
1 1 1 1 1 1 1 1 1 
1 1 1 1 1 1 1 1 1 
1 1 1 1 1 1 1 1 1 
1 1 1 1 1 1 1 1 1 
1 1 1 1 1 1 1 1 1 
1 1 1 1 1 1 1 1 1 
1 1 1 1 1 1 1 1 1 
1 1 1 1 1 1 1 1 1 
1 1 1 1 1 1 1 1 1 
1 1 1 1 1 1 1 1 1 
1 1 1 1 1 1 1 1 1 
1 1 1 1 1 1 1 1 1 
1 1 1 1 1 1 1 1 1 
1 1 1 1 1 1 1 1 1 
1 1 1 1 1 1 1 1 1 
1 1 1 1 1 1 1 1 1 
1 1 1 1 1 1 1 1 1 
1 1 1 1 1 1 1 1 1 
1 1 1 1 1 1 1 1 1 
1 1 1 1 1 1 1 1 1 
1 1 1 1 1 1 1 1 1 
1 1 1 1 1 1 1 1 1 
1 1 1 1 1 1 1 1 1 
1 1 1 1 1 1 1 1 1 
1 1 1 1 1 1 1 1 1 
1 1 1 1 1 1 1 1 1 
1 1 1 1 1 1 1 1 1 
1 1 1 1 1 1 1 1 1 
1 1 1 1 1 1 1 1 1 
1 1 1 1 1 1 1 1 1 
1 1 1 1 1 1 1 1 1 
1 1 1 1 1 1 1 1 1 
1 1 1 1 1 1 1 1 1 
1 1 1 1 1 1 1 1 1 
1 1 1 1 1 1 1 1 1 
1 1 1 1 1 1 1 1 1 
1 1 1 1 1 1 1 1 1 
1 1 1 1 1 1 1 1 1 
1 1 1 1 1 1 1 1 1 
1 1 1 1 1 1 1 1 1 
1 1 1 1 1 1 1 1 1 
1 1 1 1 1 1 1 1 1 
1 1 1 1 1 1 1 1 1 
1 1 1 1 1 1 1 1 1 
1 1 1 1 1 1 1 1 1 
1 1 1 1 1 1 1 1 1 
1 1 1 1 1 1 1 1 1 
1 1 1 1 1 1 1 1 1 
1 1 1 1 1 1 1 1 1 
1 1 1 1 1 1 1 1 1 
1 1 1 1 1 1 1 1 1 
1 1 1 1 1 1 1 1 1 
1 1 1 1 1 1 1 1 1 
1 1 1 1 1 1 1 1 1 
1 1 1 1 1 1 1 1 1 
1 1 1 1 1 1 1 1 1 
1 1 1 1 1 1 1 1 1 
1 1 1 1 1 1 1 1 1 
1 1 1 1 1 1 1 1 1 
1 1 1 1 1 1 1 1 1 
1 1 1 1 1 1 1 1 1 
1 1 1 1 1 1 1 1 1 
1 1 1 1 1 1 1 1 1 
1 1 1 1 1 1 1 1 1 
1 1 1 1 1 1 1 1 1 
1 1 1 1 1 1 1 1 1 
1 1 1 1 1 1 1 1 1 
1 1 1 1 1 1 1 1 1 
1 1 1 1 1 1 1 1 1 
1 1 1 1 1 1 1 1 1 
1 1 1 1 1 1 1 1 1 
1 1 1 1 1 1 1 1 1 
1 1 1 1 1 1 1 1 1 
1 1 1 1 1 1 1 1 1 
1 1 1 1 1 1 1 1 1 
1 1 1 1 1 1 1 1 1 
1 1 1 1 1 1 1 1 1 
1 1 1 1 1 1 1 1 1 
1 1 1 1 1 1 1 1 1 
1 1 1 1 1 1 1 1 1 
1 1 1 1 1 1 1 1 1 
1 1 1 1 1 1 1 1 1 
1 1 1 1 1 1 1 1 1 
1 1 1 1 1 1 1 1 1 
1 1 1 1 1 1 1 1 1 
1 1 1 1 1 1 1 1 1 
1 1 1 1 1 1 1 1 1 
1 1 1 1 1 1 1 1 1 
1 1 1 1 1 1 1 1 1 
1 1 1 1 1 1 1 1 1 
1 1 1 1 1 1 1 1 1 
1 1 1 1 1 1 1 1 1 
1 1 1 1 1 1 1 1 1 
1 1 1 1 1 1 1 1 1 
1 1 1 1 1 1 1 1 1 
1 1 1 1 1 1 1 1 1 
1 1 1 1 1 1 1 1 1 
1 1 1 1 1 1 1 1 1 
1 1 1 1 1 1 1 1 1 
1 1 1 1 1 1 1 1 1 
1 1 1 1 1 1 1 1 1 
1 1 1 1 1 1 1 1 1 
1 1 1 1 1 1 1 1 1 
1 1 1 1 1 1 1 1 1 
1 1 1 1 1 1 1 1 1 
1 1 1 1 1 1 1 1 1 
1 1 1 1 1 1 1 1 1 
1 1 1 1 1 1 1 1 1 
1 1 1 1 1 1 1 1 1 
1 1 1 1 1 1 1 1 1 
1 1 1 1 1 1 1 1 1 
1 1 1 1 1 1 1 1 1 
1 1 1 1 1 1 1 1 1 
1 1 1 1 1 1 1 1 1 
1 1 1 1 1 1 1 1 1 
1 1 1 1 1 1 1 1 1 
1 1 1 1 1 1 1 1 1 
1 1 1 1 1 1 1 1 1 
1 1 1 1 1 1 1 1 1 
1 1 1 1 1 1 1 1 1 
1 1 1 1 1 1 1 1 1 
1 1 1 1 1 1 1 1 1 
1 1 1 1 1 1 1 1 1 
1 1 1 1 1 1 1 1 1 
1 1 1 1 1 1 1 1 1 
1 1 1 1 1 1 1 1 1 
1 1 1 1 1 1 1 1 1 
1 1 1 1 1 1 1 1 1 
1 1 1 1 1 1 1 1 1 
1 1 1 1 1 1 1 1 1 
1 1 1 1 1 1 1 1 1 
1 1 1 1 1 1 1 1 1 
1 1 1 1 1 1 1 1 1 
1 1 1 1 1 1 1 1 1 
1 1 1 1 1 1 1 1 1 
1 1 1 1 1 1 1 1 1 
1 1 1 1 1 1 1 1 1 
1 1 1 1 1 1 1 1 1 
1 1 1 1 1 1 1 1 1 
1 1 1 1 1 1 1 1 1 
1 1 1 1 1 1 1 1 1 
1 1 1 1 1 1 1 1 1 
1 1 1 1 1 1 1 1 1 
1 1 1 1 1 1 1 1 1 
1 1 1 1 1 1 1 1 1 
1 1 1 1 1 1 1 1 1 
1 1 1 1 1 1 1 1 1 
1 1 1 1 1 1 1 1 1 
1 1 1 1 1 1 1 1 1 
1 1 1 1 1 1 1 1 1 
1 1 1 1 1 1 1 1 1 
1 1 1 1 1 1 1 1 1 
1 1 1 1 1 1 1 1 1 
1 1 1 1 1 1 1 1 1 
1 1 1 1 1 1 1 1 1 
1 1 1 1 1 1 1 1 1 
1 1 1 1 1 1 1 1 1 
1 1 1 1 1 1 1 1 1 
1 1 1 1 1 1 1 1 1 
1 1 1 1 1 1 1 1 1 
1 1 1 1 1 1 1 1 1 
1 1 1 1 1 1 1 1 1 
1 1 1 1 1 1 1 1 1 
1 1 1 1 1 1 1 1 1 
1 1 1 1 1 1 1 1 1 
1 1 1 1 1 1 1 1 1 
1 1 1 1 1 1 1 1 1 
1 1 1 1 1 1 1 1 1 
1 1 1 1 1 1 1 1 1 
1 1 1 1 1 1 1 1 1 
1 1 1 1 1 1 1 1 1 
1 1 1 1 1 1 1 1 1 
1 1 1 1 1 1 1 1 1 
1 1 1 1 1 1 1 1 1 
1 1 
i 3 2000 int
0 0 0 0 0 0 0 0 0 
0 0 0 0 0 0 0 0 0 
0 0 0 0 0 0 0 0 0 
0 0 0 0 0 0 0 0 0 
0 0 0 0 0 0 0 0 0 
0 0 0 0 0 0 0 0 0 
0 0 0 0 0 0 0 0 0 
0 0 0 0 0 0 0 0 0 
0 0 0 0 0 0 0 0 0 
0 0 0 0 0 0 0 0 0 
0 0 0 0 0 0 0 0 0 
0 0 0 0 0 0 0 1 0 
0 0 0 0 0 0 0 0 0 
0 0 0 0 0 0 0 0 0 
0 0 0 0 0 0 0 0 0 
0 0 0 0 0 0 0 0 0 
0 0 0 0 0 0 0 0 0 
0 0 0 0 0 0 0 0 0 
0 0 0 0 0 0 0 0 0 
0 0 0 0 0 0 0 0 0 
0 0 0 0 0 0 0 0 0 
0 0 0 0 0 0 0 0 0 
1 0 0 0 0 0 0 0 0 
0 0 0 0 0 0 0 0 0 
0 0 0 0 0 0 0 0 0 
0 0 0 0 0 0 0 0 0 
0 0 0 0 0 0 0 0 0 
0 0 0 0 0 0 0 0 0 
0 0 0 0 0 0 0 0 0 
0 0 0 0 0 0 0 0 0 
0 0 0 0 0 0 0 0 0 
0 0 0 0 0 0 0 0 0 
0 0 0 0 0 0 0 0 0 
0 0 0 0 0 0 0 0 0 
0 0 0 0 0 0 0 0 0 
0 0 0 0 0 0 0 0 0 
0 0 0 0 0 0 0 0 0 
0 0 0 0 0 0 0 0 0 
0 0 0 1 0 0 1 0 0 
0 0 0 0 0 0 0 0 0 
0 0 0 0 0 0 0 0 0 
0 0 0 0 0 0 0 0 0 
0 0 0 0 0 0 0 0 0 
0 0 0 0 0 0 0 0 0 
0 0 0 0 0 0 0 0 0 
0 0 0 0 0 0 0 0 0 
0 0 0 0 0 0 0 0 0 
0 0 0 0 0 0 0 0 0 
0 0 0 0 0 0 0 0 0 
0 0 0 0 0 0 0 0 0 
0 0 0 0 0 0 0 0 0 
0 0 0 1 0 0 0 0 0 
0 0 0 0 0 0 0 0 0 
0 0 0 0 0 0 0 0 0 
0 0 0 0 0 0 0 0 0 
0 0 0 0 0 0 0 0 0 
0 0 0 0 0 0 0 0 0 
0 0 0 0 0 0 0 0 0 
0 0 0 0 0 0 0 0 0 
0 0 0 0 0 0 0 0 0 
0 0 0 0 0 0 0 0 0 
0 0 0 0 0 0 0 0 0 
0 0 0 0 0 0 0 0 0 
0 0 0 0 0 0 0 0 0 
0 0 0 0 0 0 0 0 0 
0 0 0 0 0 0 0 0 0 
0 0 0 0 0 0 0 0 0 
0 0 0 0 0 0 0 0 0 
0 0 0 0 0 0 0 0 0 
0 0 0 0 0 0 0 0 0 
0 0 0 0 0 0 0 0 0 
0 0 0 0 0 0 0 -1 0 
0 0 0 0 0 0 0 0 0 
0 0 0 0 0 0 0 0 0 
0 0 0 0 0 0 0 0 0 
0 0 0 0 0 0 0 0 0 
0 0 0 0 0 0 0 0 0 
0 0 0 0 0 0 0 0 0 
0 0 0 0 0 0 0 0 0 
0 0 0 0 0 0 0 0 0 
0 0 0 0 0 0 0 0 0 
0 0 0 0 0 0 0 0 0 
0 0 0 0 0 0 0 0 0 
0 0 0 0 0 0 0 0 0 
0 0 0 0 0 0 0 0 0 
0 0 0 0 0 0 0 0 0 
0 0 0 0 1 0 0 0 0 
0 0 0 0 0 0 0 0 0 
0 0 0 0 0 0 0 0 0 
0 0 0 0 0 0 0 0 0 
0 0 0 0 0 0 0 0 0 
0 0 0 0 0 0 0 0 0 
0 0 0 0 0 0 0 0 0 
0 0 0 0 0 0 0 0 0 
0 0 0 0 0 0 0 0 0 
0 0 0 0 0 0 0 0 0 
0 0 0 0 0 0 0 0 0 
0 0 0 0 0 0 0 0 0 
0 0 0 0 0 0 0 0 0 
0 0 0 0 0 0 0 1 0 
0 0 0 -1 0 0 0 0 0 
0 0 0 0 0 0 0 0 0 
0 0 0 0 0 0 0 0 0 
0 0 0 0 0 0 0 0 0 
0 0 0 0 0 0 0 0 0 
0 0 0 0 0 0 0 0 0 
-1 0 0 0 0 0 0 0 0 
0 0 0 0 0 0 0 0 0 
0 0 0 0 0 0 0 0 0 
0 0 0 0 0 0 0 0 0 
0 0 0 0 0 0 1 0 0 
0 0 0 0 0 0 0 0 0 
0 0 0 0 0 0 0 0 0 
0 0 0 0 0 0 0 0 0 
0 0 0 0 0 0 0 0 0 
0 0 0 0 0 0 0 0 0 
0 0 0 0 0 0 0 0 0 
0 0 0 0 0 0 0 0 0 
0 0 0 0 0 0 0 0 0 
0 0 0 0 0 0 0 0 0 
0 0 0 0 0 0 0 0 0 
0 0 0 0 0 0 0 0 0 
0 0 0 0 0 0 0 0 0 
0 0 0 0 0 0 0 0 0 
0 0 0 0 0 0 0 0 0 
0 0 0 0 0 0 0 0 0 
0 0 0 0 0 0 0 0 0 
0 0 0 0 0 0 0 0 0 
0 0 0 0 0 0 0 0 0 
0 0 0 0 0 0 0 0 0 
0 0 0 0 0 0 1 0 0 
0 0 0 0 0 0 0 0 0 
0 0 0 0 0 0 0 0 0 
0 0 0 0 0 0 0 0 0 
0 0 0 0 0 0 0 0 0 
0 0 0 0 0 0 0 0 0 
0 0 0 0 0 0 0 0 0 
0 0 0 0 0 0 0 0 0 
0 0 0 0 0 0 0 0 0 
0 0 0 0 0 0 0 0 0 
0 0 0 0 0 0 0 0 0 
0 0 0 0 0 0 0 0 0 
0 0 0 0 0 0 0 0 0 
0 0 0 0 0 0 0 0 0 
0 0 0 0 0 0 0 0 0 
0 0 0 0 0 0 0 0 0 
0 0 0 0 0 0 0 0 0 
0 0 0 0 0 0 0 0 0 
0 0 0 0 0 0 0 0 0 
0 0 0 0 0 0 0 0 0 
0 0 0 0 0 0 0 0 0 
0 0 0 0 0 0 0 0 0 
0 0 0 0 0 0 0 0 0 
0 0 0 0 0 0 0 0 0 
0 0 0 0 0 0 0 0 0 
0 0 0 0 0 0 0 0 0 
1 0 0 0 0 0 0 0 0 
0 0 0 0 0 0 0 0 0 
0 0 0 0 0 0 0 0 0 
0 0 0 0 0 0 0 0 0 
0 0 0 0 0 0 0 0 0 
0 0 0 0 0 0 0 0 0 
0 0 0 0 0 0 0 0 0 
0 0 0 0 0 0 0 0 0 
0 0 0 0 0 0 0 0 0 
0 0 0 0 0 0 0 0 0 
0 0 0 0 0 0 0 0 0 
0 0 0 0 0 0 0 0 0 
0 0 0 0 0 0 0 0 0 
0 0 0 0 0 0 0 0 0 
0 0 0 0 0 0 0 0 0 
0 0 0 0 0 0 0 0 0 
0 0 0 0 0 0 0 0 0 
0 -1 0 0 0 0 0 0 0 
0 0 0 0 0 0 0 0 0 
0 0 0 0 0 0 0 0 0 
0 0 0 0 0 0 0 0 0 
0 0 0 0 0 0 0 0 0 
0 0 0 0 0 0 0 -1 0 
0 0 0 0 0 0 0 0 0 
0 0 0 0 0 0 0 0 0 
0 0 0 0 0 0 0 0 0 
0 0 0 0 0 0 0 0 0 
0 0 0 0 0 0 0 0 0 
0 -1 0 0 0 0 0 0 0 
0 0 0 0 0 0 0 0 0 
0 0 0 0 0 0 0 0 0 
0 0 0 0 0 0 0 0 0 
0 0 0 0 0 0 0 0 0 
0 0 0 0 0 0 0 0 0 
0 0 0 0 0 0 0 0 0 
0 0 0 0 0 0 0 0 0 
0 0 0 0 0 0 0 0 0 
0 0 0 0 0 0 0 0 0 
0 0 0 0 0 0 0 0 0 
0 0 0 0 0 0 0 0 0 
0 0 0 0 0 0 0 0 0 
0 0 0 0 0 0 0 0 0 
0 0 0 0 0 0 0 0 0 
0 0 0 0 0 0 0 0 0 
0 0 0 0 0 0 0 0 0 
0 0 0 0 0 0 0 0 0 
0 0 0 1 0 0 0 0 0 
0 0 0 0 0 0 0 0 0 
0 0 0 0 0 0 0 0 0 
0 0 0 0 0 0 0 0 0 
0 0 0 0 0 0 0 0 0 
0 0 0 0 0 0 0 0 0 
0 1 0 0 0 0 0 0 0 
0 0 0 0 0 0 0 0 0 
0 0 0 0 0 0 0 0 0 
0 0 0 0 1 0 0 0 0 
0 1 0 0 0 0 0 0 0 
0 0 0 0 0 0 0 0 0 
0 0 0 0 0 0 0 0 0 
0 0 0 0 0 0 0 0 0 
0 0 0 0 0 0 0 0 0 
0 0 0 0 0 0 0 0 0 
0 0 0 0 0 0 0 0 0 
0 0 0 0 0 0 0 0 0 
0 0 0 0 0 0 0 0 0 
0 0 0 0 0 0 0 0 0 
0 0 0 0 0 0 0 0 0 
0 0 0 0 0 0 0 0 0 
0 0 0 0 0 0 0 0 0 
0 0 0 0 0 0 0 0 0 
0 0 0 0 0 0 0 0 0 
0 0 0 0 0 0 0 0 0 
0 0 0 0 0 0 0 0 0 
0 0 0 0 0 0 0 0 0 
0 0 0 0 0 0 0 0 0 
0 0 0 0 0 0 0 0 0 
0 0 0 0 0 0 0 0 0 
0 0 0 0 0 0 0 0 0 
0 0 0 0 0 0 0 0 0 
0 0 0 0 0 0 0 0 0 
0 0 0 0 0 0 0 0 0 
0 0 0 0 0 0 0 0 0 
0 0 0 0 0 0 1 0 0 
0 0 0 0 0 0 0 0 0 
0 0 0 0 0 0 0 0 0 
0 0 0 0 0 0 0 0 0 
0 0 0 0 0 0 0 0 0 
0 0 0 0 0 0 0 0 0 
0 0 0 0 0 0 0 0 0 
0 0 0 0 0 0 0 0 0 
0 0 0 0 0 0 0 0 0 
0 0 0 0 0 0 0 0 0 
0 0 0 0 0 0 0 0 0 
0 0 0 0 0 0 0 0 0 
0 0 0 0 0 0 0 0 0 
0 0 0 -1 0 0 0 0 0 
0 0 0 0 0 0 0 0 0 
0 0 0 0 0 0 0 0 0 
0 0 0 0 0 0 0 0 0 
0 0 0 0 0 0 0 0 0 
0 0 0 0 0 0 0 0 0 
0 0 0 0 0 0 0 0 0 
0 0 0 0 0 0 1 0 0 
0 0 0 0 0 0 0 0 0 
0 0 0 0 0 0 0 0 0 
0 0 0 0 0 0 0 0 0 
0 0 0 0 0 0 0 0 0 
0 0 0 0 0 0 0 0 0 
0 0 0 0 0 0 0 0 0 
0 0 0 0 0 0 0 0 0 
0 0 0 0 0 0 0 0 0 
0 0 0 0 0 0 0 0 0 
0 0 0 0 0 0 0 0 0 
0 0 0 0 0 0 0 0 0 
0 0 0 0 0 0 0 0 0 
0 0 0 0 0 0 0 0 0 
0 0 0 0 0 0 0 0 0 
0 0 0 0 0 0 0 0 0 
0 -1 0 0 -1 0 0 0 0 
0 0 0 0 0 0 0 0 0 
0 0 0 0 0 0 0 0 0 
0 0 0 0 0 0 0 0 0 
0 0 0 0 0 0 0 0 0 
0 0 0 0 0 0 0 0 0 
0 0 0 0 0 0 0 0 0 
0 0 0 0 0 0 0 0 0 
0 0 0 0 0 0 0 0 0 
0 0 0 0 0 0 0 0 0 
0 0 0 0 0 0 0 0 0 
0 0 0 0 0 0 0 0 0 
0 0 0 0 0 0 0 0 0 
0 0 0 0 0 0 0 0 0 
0 0 0 0 0 0 0 0 0 
0 0 0 0 0 0 0 0 0 
0 0 0 0 0 0 0 0 0 
0 -1 0 0 0 0 0 0 0 
0 0 0 0 0 0 0 0 0 
0 0 0 -1 0 0 -1 0 0 
0 0 0 0 0 0 0 0 0 
-1 0 0 0 0 0 0 0 0 
0 0 0 0 0 0 0 0 0 
0 0 0 0 0 0 0 0 0 
0 0 0 0 0 0 0 0 0 
0 0 0 0 0 0 0 0 0 
0 0 0 0 0 0 0 0 0 
0 0 0 0 0 0 0 0 0 
0 0 0 0 0 0 0 0 0 
0 0 0 0 0 0 0 0 0 
0 0 0 0 0 0 0 0 0 
0 0 0 0 0 0 0 0 0 
0 1 0 0 0 0 0 0 0 
0 0 0 0 0 0 0 0 0 
0 0 0 0 0 0 0 0 0 
0 0 0 0 0 0 0 0 0 
0 0 0 0 0 0 0 0 0 
0 0 0 0 0 0 0 0 0 
0 0 0 0 0 0 0 0 0 
0 0 0 0 0 0 0 0 0 
0 0 0 0 0 0 0 0 0 
0 0 0 0 0 0 0 0 0 
0 0 0 0 0 0 0 0 0 
0 0 0 0 0 0 0 0 0 
0 0 0 0 0 0 0 0 0 
0 0 0 0 0 0 0 0 0 
0 0 0 0 0 0 0 0 0 
0 0 0 0 0 0 0 0 0 
0 0 0 0 0 0 0 0 0 
0 0 0 0 0 0 0 0 0 
0 0 0 0 0 0 0 0 0 
0 0 0 0 0 0 0 0 0 
0 0 0 0 0 0 0 0 0 
0 0 0 0 0 0 0 0 0 
0 0 0 0 0 0 0 0 0 
0 0 0 0 0 0 0 0 0 
0 0 0 -1 0 0 0 0 0 
0 0 0 0 0 0 0 0 0 
0 0 0 0 0 0 0 0 0 
0 0 0 0 0 0 0 0 0 
0 0 0 0 0 0 0 0 0 
0 0 0 0 0 0 0 0 0 
0 0 0 0 0 0 0 0 0 
0 0 0 0 0 0 0 0 0 
0 0 0 0 0 0 0 0 0 
0 0 0 0 0 0 0 0 0 
0 0 0 0 0 0 0 0 0 
0 0 0 0 0 0 1 0 0 
0 0 0 0 0 0 0 0 0 
0 0 0 0 0 0 0 0 0 
0 0 0 0 0 0 0 0 0 