# vtk DataFile Version 4.0
Generated by LIGGGHTS
ASCII
DATASET POLYDATA
POINTS 2000 float
-87.611 -92.9239 9.99465 -95.0209 -112.392 9.99973 -106.187 -130.661 9.99804 
-117.168 -113.949 9.99798 -127.418 -131.26 9.99973 -107.274 -96.5695 9.99895 
-116.433 -126.265 26.5995 -109.161 -107.62 27.1962 -132.892 -115.298 22.2791 
-118.681 -90.1557 25.1207 -92.3665 -117.844 30.8548 -56.419 -101.959 9.99229 
-30.3553 -122.662 9.99973 -75.3396 -108.714 9.99912 -66.0787 -138.882 9.99786 
-79.2685 -126.426 18.4123 -37.3445 -104.697 15.3362 -60.167 -120.703 15.8749 
-46.5951 -134.328 10.385 -58.0573 -140.239 28.268 -38.0936 -138.35 28.0356 
-33.6043 -85.3295 21.2582 -50.4133 -122.444 33.2474 -2.67548 -104.491 9.99965 
2.00859 -138.967 9.99628 17.3665 -101.902 9.99936 -20.4754 -95.3729 9.99967 
9.44757 -120.398 9.99932 -10.3639 -123.244 9.99442 8.40462 -130.896 27.1354 
18.2993 -90.5538 26.4411 -1.47692 -89.8254 23.551 22.5501 -113.603 25.3679 
25.1257 -131.173 16.1682 45.0938 -96.7772 22.4324 55.3095 -127.725 9.99549 
41.276 -111.968 9.99762 60.2877 -105.76 10.0005 41.6032 -118.58 28.8673 
78.0992 -96.6646 9.99951 138.591 -96.9132 17.5517 117.777 -127.989 9.99316 
132.593 -114.56 9.99632 99.676 -92.3363 9.99946 93.213 -124.446 9.99973 
119.41 -94.5956 12.3399 136.793 -130.967 20.6294 107.727 -110.66 9.99972 
94.0375 -101.486 26.8655 130.89 -110.907 29.5824 106.087 -124.14 25.7542 
119.531 -139.229 26.4319 113.229 -97.6683 31.1108 -130.192 -83.9464 9.99594 
-94.7728 -33.4235 13.8616 -112.45 -74.7167 9.99949 -121.413 -56.6095 9.99922 
-113.861 -37.9712 9.99852 -88.5869 -72.9082 9.99965 -101.804 -58.1836 13.643 
-99.7342 -83.3151 22.9393 -131.84 -68.3509 22.4074 -132.606 -48.4702 24.4368 
-114.35 -42.1126 29.5572 -91.9295 -47.0917 28.182 -138.727 -84.2861 32.3366 
-113.624 -63.3062 28.9407 -138.584 -35.9898 9.99902 -94.1155 -66.5452 32.2765 
-84.0034 -49.8272 9.9992 -30.9664 -64.8362 9.99973 -49.973 -83.0265 9.99968 
-56.6193 -64.1634 9.99959 -73.8901 -63.8307 20.079 -57.5151 -32.5518 24.9961 
-28.4395 -44.9907 9.99987 -18.6729 -53.3715 25.3097 11.8508 -55.7014 9.99967 
-1.78709 -41.0727 9.99968 4.22124 -76.2678 9.99876 25.8759 -82.0536 9.99932 
-7.7169 -60.1732 9.9997 -13.7806 -32.4767 23.5 -15.9354 -77.1064 16.7605 
24.6789 -65.783 21.5668 7.79667 -73.0867 29.4172 53.6733 -83.6701 9.99962 
71.8673 -75.3632 9.99973 40.4297 -77.5577 25.4042 44.7491 -65.5573 9.99945 
51.5688 -42.2209 9.99973 73.3022 -55.415 9.99968 31.2727 -50.7679 9.99445 
71.8022 -40.5536 23.299 40.6386 -55.09 27.1285 59.4396 -61.7164 23.0166 
53.8618 -40.9412 32.1272 86.493 -82.6469 21.5335 86.7353 -40.3087 9.99909 
90.2018 -66.4636 9.99464 132.311 -79.494 9.99814 118.893 -58.5196 9.99963 
107.936 -74.662 14.4012 115.075 -38.8875 9.99866 138.867 -57.4641 9.99971 
129.952 -44.3556 22.1936 123.269 -75.3914 27.3563 -119.867 6.69681 9.99647 
-103.96 -6.61492 9.99954 -121.262 -18.7632 9.99952 -131.998 -3.63029 22.0814 
-108.746 -13.7293 28.0678 -89.4802 -18.9566 29.2878 -111.038 15.6483 25.5463 
-84.7826 -16.5349 9.99911 -129.779 22.5822 24.7905 -105.534 26.9619 9.99965 
-125.394 -24.7996 28.6133 -45.6256 5.41152 9.99467 -28.5171 -4.95372 9.99973 
-76.0908 13.8707 24.9952 -42.1467 -1.30391 28.5036 -39.5651 24.7119 9.99973 
-28.118 21.8352 26.9933 -26.4107 -24.8471 9.9996 22.7079 -24.9929 32.0595 
-4.22715 -21.2224 9.99944 -20.8527 14.1926 9.99952 -8.77028 -1.74531 9.99965 
2.50359 2.89844 25.853 8.20595 13.6389 9.98923 21.3987 9.44624 25.976 
27.1609 20.001 9.9996 64.0662 -23.8817 9.99973 37.5186 2.73531 9.99973 
51.3892 17.1841 9.99973 82.1145 -14.3145 9.99681 62.6993 -0.187738 9.99461 
71.4298 18.2705 9.99897 37.8744 23.5172 26.5143 61.8697 19.5477 27.5182 
39.7134 5.46252 34.9148 140.26 -16.2415 9.99892 87.5451 13.3678 20.7814 
100.199 -25.5205 9.99926 138.147 7.01574 9.99521 103.831 18.0241 9.99719 
96.7864 -0.715644 9.99965 139.546 27.105 9.99827 122.491 -21.8078 17.2978 
119.702 -3.39965 9.99417 106.011 -12.0846 23.6249 -90.0648 65.3349 9.99773 
-111.658 60.159 9.99958 -127.448 40.3252 9.99794 -136.594 79.0948 30.1051 
-129.518 63.7207 18.2664 -98.4194 45.438 12.8294 -115.079 42.036 25.6155 
-130.778 81.888 9.99955 -140.742 39.7966 25.469 -78.6211 45.3937 9.99953 
-36.1721 69.5326 24.9922 -67.2455 63.4625 9.99865 -54.4807 38.0402 9.99973 
-64.642 49.2115 23.7856 -72.207 74.9746 25.5815 -83.883 48.0422 29.1124 
20.0801 81.6769 9.99899 -5.23846 62.9534 9.99945 -24.7854 39.0416 9.99973 
8.61861 70.6972 22.1672 21.2097 55.2023 9.99944 1.92734 38.4077 33.8977 
-6.65237 82.903 9.99902 26.4014 80.5944 28.9422 31.6596 60.0857 26.3375 
41.052 34.3817 9.99296 64.2722 36.9629 9.9955 63.1352 62.0768 9.99979 
38.6645 74.2358 9.99973 80.8137 48.8878 9.99938 77.4605 32.0584 26.9136 
52.4927 37.1562 26.1504 43.3896 54.6823 9.99973 81.5233 69.9435 9.99981 
68.3785 49.8305 25.6344 50.4804 56.2053 31.8792 120.356 32.7372 9.99249 
87.9703 30.2071 9.99945 119.774 59.362 9.99365 105.141 72.9933 9.99903 
103.883 44.0784 9.99941 138.423 52.1469 9.99781 94.9494 58.9524 19.9472 
118.955 46.1933 25.019 92.1622 83.1618 21.3162 116.055 69.8553 26.6007 
132.937 73.3497 15.5634 97.0864 35.9064 26.9406 -89.3777 140.508 9.99802 
-111.901 88.5109 9.9961 -114.059 120.712 24.9952 -139.154 96.5605 20.702 
-87.5385 103.488 9.99902 -77.1425 136.572 25.3164 -76.7338 86.6594 9.99793 
-57.6759 92.7216 9.99888 -44.9126 108.119 10.0006 -78.0755 121.767 9.99973 
-48.5969 127.776 9.9996 -31.7503 104.252 24.8141 -29.4488 136.61 9.99973 
-34.0008 124.091 27.1971 -26.8836 116.774 9.99908 -16.3173 137.971 25.0438 
19.9656 131.04 9.99937 -9.51302 126.686 9.99928 -1.83182 108.198 9.99973 
7.09741 90.6423 22.2886 18.4205 111.071 9.99926 5.04598 128.661 23.5688 
-15.2609 116.582 26.2738 26.325 101.898 27.4817 25.7818 132.812 29.052 
-13.2351 97.0434 22.5159 7.89193 109.554 28.7451 34.4415 96.5706 9.99689 
67.3449 135.15 9.99655 37.5853 117.283 9.99288 57.6437 117.288 9.99973 
40.9274 140.236 9.99856 80.4573 119.699 9.99617 68.6617 122.977 25.8054 
51.058 132.459 25.3878 59.8907 89.8885 33.0717 38.6076 117.493 29.9567 
87.8536 138.282 9.99973 126.716 91.5236 9.99896 86.3305 100.394 9.99973 
117.22 109.124 9.99344 139.388 134.297 9.9971 111.06 135.149 9.9983 
105.402 92.9905 9.99938 137.387 112.549 9.99952 100.105 118.811 13.621 
124.948 124.652 19.9387 88.3689 123.266 29.1888 103.024 135.529 35.0863 
-134.747 -103.055 37.9819 -102.825 -131.952 40.4184 -128.105 -125.58 42.8239 
-111.042 -114.85 46.7334 -87.5996 -122.823 49.6289 -87.1296 -137.585 63.1142 
-104.044 -127.149 60.8656 -123.99 -127.243 62.3243 -131.624 -111.225 71.5496 
-92.541 -108.316 62.4768 -128.225 -99.3396 87.2702 -140.271 -114.059 53.7413 
-73.0618 -128.816 37.2724 -70.5134 -92.2747 40.5208 -43.4737 -99.2104 61.6329 
-70.3476 -123.034 59.7435 -59.4214 -89.8064 73.6243 -51.8524 -119.163 52.9239 
-43.3826 -137.011 49.3775 -28.3273 -101.892 74.415 -59.1514 -109.249 68.9418 
-54.2573 -128.063 73.6366 -35.8906 -120.277 72.2157 -80.7478 -96.5537 73.7106 
-73.2901 -133.273 76.8929 -63.1609 -139.507 50.9702 -67.0354 -103.583 86.4573 
-38.3133 -139.541 77.3837 -17.858 -113.961 42.8915 15.8537 -104.604 41.9249 
13.2112 -125.861 53.7578 3.69055 -119.082 69.9919 -3.47787 -139.485 62.0344 
-10.9328 -93.0312 70.0678 24.8272 -131.599 38.5223 8.9651 -94.0597 71.7864 
-14.1183 -127.992 74.7338 22.8926 -94.121 57.4339 8.50873 -136.903 77.8337 
20.0603 -109.533 77.9051 25.8719 -128.098 73.2564 27.6509 -113.399 59.8122 
26.9532 -91.1487 81.7106 4.97422 -87.4342 43.0618 74.0716 -127.291 39.5327 
40.3706 -123.556 48.1963 54.5427 -113.872 65.2912 35.6948 -102.483 39.1604 
81.3717 -112.213 70.2586 41.901 -136.54 63.3273 39.7529 -101.34 70.2094 
60.1884 -134.676 71.201 44.2946 -127.535 81.0175 79.5522 -131.536 75.0836 
104.527 -117.483 53.7147 135.891 -133.938 40.3854 122.789 -111.504 47.8535 
116.592 -130.118 43.9822 129.616 -93.1071 43.9829 102.902 -137.216 56.7117 
94.0194 -86.1254 39.7336 110.01 -98.3724 55.8608 90.198 -101.074 56.1893 
121.406 -132.732 63.2104 132.199 -99.0515 62.9032 97.8458 -124.433 71.2359 
139.58 -127.996 70.0849 98.3043 -85.3682 65.5466 132.786 -108.964 80.7938 
113.732 -100.477 81.814 118.663 -113.356 67.3321 121.975 -126.368 82.1536 
93.8516 -102.535 82.5285 -115.935 -82.5003 59.1583 -125.028 -53.1878 42.3347 
-85.2256 -65.325 57.3163 -101.599 -34.6495 61.2843 -129.405 -52.9224 72.1364 
-94.5039 -63.7032 79.4636 -92.1514 -84.0825 84.7865 -77.1536 -77.0173 71.3911 
-77.3235 -57.8819 38.8622 -67.9781 -43.194 56.6525 -64.7123 -62.8334 58.5332 
-51.3166 -42.0052 67.6513 -76.7757 -56.7143 73.2652 -58.3153 -67.9048 76.7898 
-30.0879 -67.3071 56.0689 -69.9696 -38.0543 75.8774 -30.8454 -36.7721 73.1555 
-44.8916 -81.3873 84.4866 -46.2615 -52.9734 83.5988 -41.3769 -29.2551 55.8774 
-27.4571 -35.0583 42.7415 2.07451 -55.1585 36.1857 -7.82875 -38.824 42.1087 
18.3017 -60.7042 66.7693 -13.3539 -37.0378 61.4209 4.34007 -32.1056 81.5892 
4.79047 -28.6422 61.8997 28.9296 -82.102 41.1227 46.9905 -38.0274 53.6315 
61.984 -80.6368 52.8279 66.7178 -46.5642 46.3771 79.7568 -49.2154 67.8671 
59.9828 -47.9422 65.1562 67.5138 -41.0776 82.364 47.2413 -46.6013 80.512 
56.8799 -28.7715 69.9359 58.7738 -62.7852 82.7565 77.7591 -68.6408 85.0508 
139.559 -32.7804 35.3734 91.9595 -82.7074 84.3305 140.783 -82.4074 83.3612 
100.726 -51.7738 39.9617 117.161 -79.9991 52.5302 136.203 -54.7476 38.0968 
134.826 -72.8784 46.4253 110.484 -69.7576 68.3547 131.968 -78.3628 65.8707 
90.0998 -67.5304 69.3517 129.727 -59.6836 72.6565 119.928 -81.4635 81.5366 
93.7178 -35.8997 73.1362 -99.4384 -4.70257 43.295 -135.009 -10.7464 40.5241 
-109.721 22.3771 44.334 -119.106 1.08361 36.6268 -112.084 2.58373 56.9689 
-110.362 20.7747 65.1001 -93.315 17.2083 55.2757 -132.079 2.4367 56.589 
-105.555 5.52571 77.1128 -126.744 12.7998 73.3462 -91.7013 -1.12904 63.0901 
-120.16 -7.7092 73.7175 -87.9086 8.4878 86.2414 -102.958 -11.4115 87.4244 
-84.6339 -10.0663 79.5257 -77.7937 -13.7369 46.4331 -43.8849 17.0424 38.3258 
-68.3198 0.638556 56.6089 -60.3309 18.9872 55.8189 -48.9978 6.44189 66.5023 
[...]
POINT_DATA 2000
FIELD FieldData 7
id 1 2000 int
41 77 196 230 308 107 205 282 106 
55 438 53 85 259 296 439 157 275 
424 371 40 273 71 185 265 297 299 
410 440 172 95 351 336 437 49 33 
376 408 216 164 380 59 139 141 29 
30 379 335 434 394 283 247 47 411 
36 142 338 414 456 32 161 261 453 
80 276 381 245 114 425 171 112 231 
246 215 10 143 211 115 208 232 365 
48 243 45 167 75 397 300 149 113 
174 222 318 108 354 285 317 201 200 
117 252 262 286 314 395 334 274 239 
342 66 147 255 443 309 413 278 238 
405 50 345 20 220 187 46 225 11 
212 69 37 358 390 416 347 359 122 
123 197 264 430 315 204 219 298 256 
135 346 54 97 178 213 271 404 84 
199 320 400 234 450 152 444 99 362 
8 279 321 250 384 378 195 240 399 
186 111 12 169 73 133 131 132 389 
419 449 229 369 375 102 72 374 330 
253 34 154 221 266 173 352 366 58 
329 206 301 138 6 284 179 328 184 
224 168 311 455 295 385 90 88 78 
62 302 339 79 83 218 426 127 128 
294 433 341 110 227 396 421 429 251 
242 18 423 344 96 160 209 288 367 
370 452 116 198 203 38 244 343 442 
166 304 361 401 448 1864 1025 1285 272 
223 9 82 130 350 119 409 290 383 
1007 1904 1249 1749 292 1878 1893 2 241 
156 64 76 210 263 1855 1873 364 1584 
1941 1011 418 327 293 22 144 165 382 
323 332 42 1715 1811 1945 137 51 125 
445 81 155 249 436 74 1428 1281 1934 
720 1920 856 700 1308 1665 1450 5 331 
388 26 307 552 1551 319 65 163 191 
236 1719 1793 23 1676 1730 903 642 415 
422 417 281 28 226 1366 402 39 392 
14 44 189 306 931 1603 118 89 1953 
183 997 1922 25 86 313 398 180 188 
1317 1870 1643 581 43 412 129 322 761 
1508 303 326 764 1565 176 1155 1520 1143 
1819 151 162 68 158 214 257 121 368 
175 427 353 1211 864 874 1540 4 217 
357 202 94 190 349 120 1159 570 746 
104 1001 268 260 7 100 333 432 457 
70 63 1767 622 1389 454 153 386 291 
15 277 19 441 1015 1407 839 1908 1112 
3 254 57 228 393 145 177 420 1046 
1600 1399 909 340 1956 712 1975 1460 93 
1 270 387 109 170 181 140 312 91 
1163 1404 372 61 67 267 60 316 87 
1652 590 583 207 709 280 923 373 235 
16 194 148 789 1080 1406 431 1082 1417 
377 182 310 103 233 337 35 258 356 
24 159 435 1430 1367 1124 1820 1194 852 
105 360 403 237 287 363 92 348 21 
1398 1517 1852 1685 324 1191 27 428 391 
56 98 1807 1087 1716 1200 407 355 1283 
289 446 101 192 13 124 1869 1400 1589 
701 674 1951 193 269 146 136 150 1883 
1995 771 817 1501 1706 1836 949 1815 1773 
1854 52 305 325 406 126 17 31 447 
134 248 967 1140 1618 1447 741 1424 968 
1761 1068 480 1694 1293 1726 784 954 1929 
1771 814 1334 673 518 1938 1195 484 1382 
1176 1178 1017 1220 1021 541 1173 1999 1170 
1982 948 1601 1452 1896 1534 1331 1838 668 
907 520 952 1262 1252 1865 1539 1071 810 
1304 1712 1337 553 1687 651 548 951 1634 
1050 1156 1542 654 1128 1988 1409 462 1105 
1189 1728 1757 1051 1474 838 1842 1561 1649 
562 1537 599 661 911 914 1147 1149 1459 
866 1829 479 753 946 1845 974 486 1527 
1840 752 573 1427 845 540 1206 1275 1683 
1488 1656 1543 718 1117 1342 1678 1781 489 
878 995 1045 1171 1578 1013 739 1994 1077 
1866 833 889 626 1586 875 1130 621 906 
1284 1213 757 793 1894 1421 533 1725 985 
1566 640 1874 1203 1861 602 652 1365 644 
1225 1234 1415 779 862 1373 666 1167 960 
723 912 1042 1328 1673 806 495 1729 1480 
1444 521 574 1799 854 658 1442 842 861 
1419 1034 1628 1099 1736 1738 1129 1465 1324 
915 1756 807 1677 532 754 1063 1190 1496 
1947 1850 628 1453 722 1270 580 1031 1696 
1023 1066 1718 1563 1881 698 799 1144 1554 
1813 1208 938 451 466 1340 1831 1271 1745 
1401 1391 1572 467 471 970 1937 594 1385 
1912 1675 888 1119 1369 1602 464 1579 1177 
1341 1093 1102 474 1468 1499 1769 506 1533 
643 1412 1595 1928 1414 1890 1959 608 1570 
1362 470 597 1679 1172 1074 919 798 1258 
1529 1720 1743 965 975 1803 1884 841 656 
1416 1481 892 1040 1791 1108 1653 566 853 
564 1490 492 1647 1620 1261 1052 1577 1458 
837 934 1475 1682 1606 660 729 962 1960 
624 1470 1241 1608 664 1131 1903 1326 966 
1638 1858 1441 1477 1636 759 1784 1070 1825 
1255 1303 797 513 1355 803 805 893 925 
728 1438 1092 936 964 1433 848 1931 1891 
1859 1830 1610 535 1837 1267 1889 469 1734 
1887 531 1768 1268 1591 537 1201 1979 1153 
1525 885 1879 1073 1626 1184 1552 1892 1054 
1684 588 1919 991 488 1216 749 981 1037 
473 604 1503 1822 671 630 876 1291 1965 
1461 508 1229 1231 1548 1844 1098 461 475 
832 1545 1125 1104 2000 1387 1360 551 1165 
697 887 1827 522 1667 1263 696 990 1702 
1359 1804 1906 565 992 1058 1911 1422 775 
459 687 1169 1662 944 1633 801 1483 1055 
820 675 1209 1962 781 1614 1089 1752 835 
670 1462 1576 1980 1101 1780 1060 1135 1120 
969 1978 1582 1361 1487 1094 487 1223 1121 
751 1205 1059 1473 1823 667 850 987 972 
1661 1352 1663 1974 589 616 496 1916 1254 
1932 986 1860 539 886 1936 1118 1084 1930 
618 686 1166 1711 730 1026 1446 763 530 
1018 1332 1772 1004 1835 1616 1935 601 493 
755 692 614 758 1343 1564 1796 1287 740 
1966 515 1495 865 1309 896 1532 1300 1550 
1368 1222 1187 788 498 809 894 935 1740 
916 1788 1632 1573 770 1507 1035 1264 705 
1100 1491 1558 528 1036 1076 1467 1397 632 
1707 830 1310 1622 1834 745 961 901 1197 
1333 1569 1282 1494 1846 1062 575 1064 1269 
1504 994 688 1150 607 999 1126 1318 569 
1524 922 682 1770 645 1049 1701 1863 924 
1312 1425 1948 1917 538 953 1214 1114 895 
1613 732 613 1575 1783 1923 777 725 713 
1056 511 1925 904 623 1775 1466 559 1910 
523 1048 1371 503 1918 600 1138 1849 733 
1109 1789 1963 802 1192 1247 1276 1957 1228 
1336 738 1867 1972 525 557 1250 627 641 
572 655 790 1722 1764 1732 1856 472 1204 
1708 1219 1944 1809 1798 1041 1952 561 1078 
1196 699 1808 1741 1134 1043 491 1418 942 
1313 1992 1549 1083 1555 1175 710 1629 825 
1420 800 1455 1897 1260 567 1356 1818 1370 
1810 1290 648 1505 1029 478 1354 647 1375 
1053 1024 1964 1704 1942 1432 1590 1802 1871 
1760 1440 547 831 1376 502 1344 1596 1983 
1961 1069 678 998 1735 1670 984 1383 1379 
1514 545 920 988 1358 1047 1500 1489 1492 
1666 1226 646 1724 818 959 1245 1664 1122 
794 1295 1557 1160 499 1607 704 769 595 
1650 1991 1181 1754 529 1585 1009 1237 736 
685 787 1357 1645 1790 1251 1350 1434 1088 
1235 1547 1828 1853 596 1993 483 1090 822 
519 1139 1660 509 1482 1939 708 1814 1571 
1672 1598 1246 1067 1030 1377 1695 689 1973 
1439 586 1242 1289 526 1674 1469 1061 1604 
1006 679 681 649 1107 1668 1476 1621 867 
1839 742 868 796 1210 869 1327 1833 485 
1085 1546 1763 620 476 611 871 774 917 
1297 1623 650 1901 1454 1792 1394 902 1805 
1699 1877 510 1457 1705 603 1142 1739 680 
1345 1445 780 1568 918 870 1116 1512 743 
1179 1513 1152 703 955 468 1431 1392 1915 
693 1277 482 765 1778 945 971 1232 1876 
1113 1133 1516 1273 1968 1642 1703 829 1522 
1907 1086 1832 908 1493 993 1857 546 1363 
1065 1958 1307 1426 1151 571 1146 1305 695 
1174 1559 1940 750 819 1511 1841 558 1224 
1396 1746 1744 1977 836 1640 748 1348 1106 
760 1556 631 1594 1976 1502 1882 1755 1010 
1593 1581 677 1619 1530 1515 1617 1615 1039 
1742 910 881 1969 929 1448 612 744 1580 
1000 827 1926 978 1888 534 795 657 1353 
1821 1429 1812 579 1646 1921 851 1123 694 
824 1286 1510 555 1456 617 1519 549 1136 
1541 563 578 762 1240 1311 863 1985 1700 
1574 1338 1801 690 1185 1875 1753 767 1885 
1762 1148 1390 956 1339 1641 1967 1028 1899 
517 1137 939 1464 1987 1868 1954 615 973 
463 1079 731 1230 860 1280 1378 1627 1713 
776 1905 1091 950 1198 847 858 737 941 
1782 1322 1132 1288 785 921 1016 1669 1909 
1717 813 1075 1737 481 958 927 873 1330 
1193 1692 1265 1072 592 928 1095 1408 1611 
899 1274 1996 1012 1472 577 505 1374 1886 
724 1306 1168 1509 524 1597 1182 1721 1014 
1393 1008 1950 1315 1759 653 1949 1162 1022 
1637 1239 1723 1955 637 812 1862 1236 1544 
554 634 976 560 857 1278 1795 1800 1588 
977 926 1329 1227 1335 1970 840 1697 1787 
1321 591 576 1521 1592 1847 1851 1221 1141 
1212 1583 1671 1553 1233 719 811 747 1005 
1302 1411 584 663 1256 662 846 1215 1691 
804 1158 707 1238 1044 843 1654 1380 1587 
859 1686 715 514 1057 1325 772 1531 1630 
1794 1266 1651 516 815 855 1032 1680 1777 
890 773 1635 1164 1299 933 702 808 1690 
963 1279 1436 672 568 1817 536 1364 1451 
1003 786 1110 947 1528 542 605 1347 1301 
1927 880 1560 1161 937 500 507 1898 1259 
1747 1824 1538 1316 717 1423 816 766 556 
716 879 1111 721 898 821 877 1727 826 
1388 900 1449 1751 756 1924 1506 1435 735 
1183 1518 1478 1826 1372 1127 587 980 1207 
665 1298 1933 1097 1689 1497 1797 1253 1154 
905 1990 1880 891 1776 834 512 1693 1395 
1027 1848 629 1405 1486 1320 734 544 639 
1351 1188 669 477 791 1314 1485 1038 638 
619 1019 1218 1766 768 726 1523 828 504 
1386 711 1599 1758 1989 982 1413 610 1471 
1033 676 943 1748 1688 1096 458 1681 1943 
606 783 996 683 1971 979 1986 1914 490 
957 1463 593 598 1403 1257 1655 1381 1639 
1624 1410 1946 635 625 1292 1733 1157 706 
1843 1997 989 527 1498 1609 1714 897 1272 
1081 1816 1402 636 543 1562 659 714 1984 
1115 1786 1443 1998 1731 501 1648 1346 849 
1349 884 585 1526 1186 940 1103 882 1296 
497 1709 778 609 1605 1145 582 844 1020 
983 1323 1981 1658 1484 1319 1002 1243 1657 
1698 1437 1202 930 465 932 1384 1785 913 
494 1631 792 1248 1180 1294 1872 1612 1479 
1895 633 823 883 1625 1659 1913 1536 872 
1644 1779 1806 1535 1244 782 1217 1902 1765 
684 1750 727 1199 460 550 691 1567 1774 
1710 1900 
type 1 2000 int
1 1 1 1 1 1 1 1 1 
1 1 1 1 1 1 1 1 1 
1 1 1 1 1 1 1 1 1 
1 1 1 1 1 1 1 1 1 
1 1 1 1 1 1 1 1 1 
1 1 1 1 1 1 1 1 1 
1 1 1 1 1 1 1 1 1 
1 1 1 1 1 1 1 1 1 
1 1 1 1 1 1 1 1 1 
1 1 1 1 1 1 1 1 1 
1 1 1 1 1 1 1 1 1 
1 1 1 1 1 1 1 1 1 
1 1 1 1 1 1 1 1 1 
1 1 1 1 1 1 1 1 1 
1 1 1 1 1 1 1 1 1 
1 1 1 1 1 1 1 1 1 
1 1 1 1 1 1 1 1 1 
1 1 1 1 1 1 1 1 1 
1 1 1 1 1 1 1 1 1 
1 1 1 1 1 1 1 1 1 
1 1 1 1 1 1 1 1 1 
1 1 1 1 1 1 1 1 1 
1 1 1 1 1 1 1 1 1 
1 1 1 1 1 1 1 1 1 
1 1 1 1 1 1 1 1 1 
1 1 1 1 1 1 1 1 1 
1 1 1 1 1 1 1 1 1 
1 1 1 1 1 1 1 1 1 
1 1 1 1 1 1 1 1 1 
1 1 1 1 1 1 1 1 1 
1 1 1 1 1 1 1 1 1 
1 1 1 1 1 1 1 1 1 
1 1 1 1 1 1 1 1 1 
1 1 1 1 1 1 1 1 1 
1 1 1 1 1 1 1 1 1 
1 1 1 1 1 1 1 1 1 
1 1 1 1 1 1 1 1 1 
1 1 1 1 1 1 1 1 1 
1 1 1 1 1 1 1 1 1 
1 1 1 1 1 1 1 1 1 
1 1 1 1 1 1 1 1 1 
1 1 1 1 1 1 1 1 1 
1 1 1 1 1 1 1 1 1 
1 1 1 1 1 1 1 1 1 
1 1 1 1 1 1 1 1 1 
1 1 1 1 1 1 1 1 1 
1 1 1 1 1 1 1 1 1 
1 1 1 1 1 1 1 1 1 
1 1 1 1 1 1 1 1 1 
1 1 1 1 1 1 1 1 1 
1 1 1 1 1 1 1 1 1 
1 1 1 1 1 1 1 1 1 
1 1 1 1 1 1 1 1 1 
1 1 1 1 1 1 1 1 1 
1 1 1 1 1 1 1 1 1 
1 1 1 1 1 1 1 1 1 
1 1 1 1 1 1 1 1 1 
1 1 1 1 1 1 1 1 1 
1 1 1 1 1 1 1 1 1 
1 1 1 1 1 1 1 1 1 
1 1 1 1 1 1 1 1 1 
1 1 1 1 1 1 1 1 1 
1 1 1 1 1 1 1 1 1 
1 1 1 1 1 1 1 1 1 
1 1 1 1 1 1 1 1 1 
1 1 1 1 1 1 1 1 1 
1 1 1 1 1 1 1 1 1 
1 1 1 1 1 1 1 1 1 
1 1 1 1 1 1 1 1 1 
1 1 1 1 1 1 1 1 1 
1 1 1 1 1 1 1 1 1 
1 1 1 1 1 1 1 1 1 
1 1 1 1 1 1 1 1 1 
1 1 1 1 1 1 1 1 1 
1 1 1 1 1 1 1 1 1 
1 1 1 1 1 1 1 1 1 
1 1 1 1 1 1 1 1 1 
1 1 1 1 1 1 1 1 1 
1 1 1 1 1 1 1 1 1 
1 1 1 1 1 1 1 1 1 
1 1 1 1 1 1 1 1 1 
1 1 1 1 1 1 1 1 1 
1 1 1 1 1 1 1 1 1 
1 1 1 1 1 1 1 1 1 
1 1 1 1 1 1 1 1 1 
1 1 1 1 1 1 1 1 1 
1 1 1 1 1 1 1 1 1 
1 1 1 1 1 1 1 1 1 
1 1 1 1 1 1 1 1 1 
1 1 1 1 1 1 1 1 1 
1 1 1 1 1 1 1 1 1 
1 1 1 1 1 1 1 1 1 
1 1 1 1 1 1 1 1 1 
1 1 1 1 1 1 1 1 1 
1 1 1 1 1 1 1 1 1 
1 1 1 1 1 1 1 1 1 
1 1 1 1 1 1 1 1 1 
1 1 1 1 1 1 1 1 1 
1 1 1 1 1 1 1 1 1 
1 1 1 1 1 1 1 1 1 
1 1 1 1 1 1 1 1 1 
1 1 1 1 1 1 1 1 1 
1 1 1 1 1 1 1 1 1 
1 1 1 1 1 1 1 1 1 
1 1 1 1 1 1 1 1 1 
1 1 1 1 1 1 1 1 1 
1 1 1 1 1 1 1 1 1 
1 1 1 1 1 1 1 1 1 
1 1 1 1 1 1 1 1 1 
1 1 1 1 1 1 1 1 1 
1 1 1 1 1 1 1 1 1 
1 1 1 1 1 1 1 1 1 
1 1 1 1 1 1 1 1 1 
1 1 1 1 1 1 1 1 1 
1 1 1 1 1 1 1 1 1 
1 1 1 1 1 1 1 1 1 
1 1 1 1 1 1 1 1 1 
1 1 1 1 1 1 1 1 1 
1 1 1 1 1 1 1 1 1 
1 1 1 1 1 1 1 1 1 
1 1 1 1 1 1 1 1 1 
1 1 1 1 1 1 1 1 1 
1 1 1 1 1 1 1 1 1 
1 1 1 1 1 1 1 1 1 
1 1 1 1 1 1 1 1 1 
1 1 1 1 1 1 1 1 1 
1 1 1 1 1 1 1 1 1 
1 1 1 1 1 1 1 1 1 
1 1 1 1 1 1 1 1 1 
1 1 1 1 1 1 1 1 1 
1 1 1 1 1 1 1 1 1 
1 1 1 1 1 1 1 1 1 
1 1 1 1 1 1 1 1 1 
1 1 1 1 1 1 1 1 1 
1 1 1 1 1 1 1 1 1 
1 1 1 1 1 1 1 1 1 
1 1 1 1 1 1 1 1 1 
1 1 1 1 1 1 1 1 1 
1 1 1 1 1 1 1 1 1 
1 1 1 1 1 1 1 1 1 
1 1 1 1 1 1 1 1 1 
1 1 1 1 1 1 1 1 1 
1 1 1 1 1 1 1 1 1 
1 1 1 1 1 1 1 1 1 
1 1 1 1 1 1 1 1 1 
1 1 1 1 1 1 1 1 1 
1 1 1 1 1 1 1 1 1 
1 1 1 1 1 1 1 1 1 
1 1 1 1 1 1 1 1 1 
1 1 1 1 1 1 1 1 1 
1 1 1 1 1 1 1 1 1 
1 1 1 1 1 1 1 1 1 
1 1 1 1 1 1 1 1 1 
1 1 1 1 1 1 1 1 1 
1 1 1 1 1 1 1 1 1 
1 1 1 1 1 1 1 1 1 
1 1 1 1 1 1 1 1 1 
1 1 1 1 1 1 1 1 1 
1 1 1 1 1 1 1 1 1 
1 1 1 1 1 1 1 1 1 
1 1 1 1 1 1 1 1 1 
1 1 1 1 1 1 1 1 1 
1 1 1 1 1 1 1 1 1 
1 1 1 1 1 1 1 1 1 
1 1 1 1 1 1 1 1 1 
1 1 1 1 1 1 1 1 1 
1 1 1 1 1 1 1 1 1 
1 1 1 1 1 1 1 1 1 
1 1 1 1 1 1 1 1 1 
1 1 1 1 1 1 1 1 1 
1 1 1 1 1 1 1 1 1 
1 1 1 1 1 1 1 1 1 
1 1 1 1 1 1 1 1 1 
1 1 1 1 1 1 1 1 1 
1 1 1 1 1 1 1 1 1 
1 1 1 1 1 1 1 1 1 
1 1 1 1 1 1 1 1 1 
1 1 1 1 1 1 1 1 1 
1 1 1 1 1 1 1 1 1 
1 1 1 1 1 1 1 1 1 
1 1 1 1 1 1 1 1 1 
1 1 1 1 1 1 1 1 1 
1 1 1 1 1 1 1 1 1 
1 1 1 1 1 1 1 1 1 
1 1 1 1 1 1 1 1 1 
1 1 1 1 1 1 1 1 1 
1 1 1 1 1 1 1 1 1 
1 1 1 1 1 1 1 1 1 
1 1 1 1 1 1 1 1 1 
1 1 1 1 1 1 1 1 1 
1 1 1 1 1 1 1 1 1 
1 1 1 1 1 1 1 1 1 
1 1 1 1 1 1 1 1 1 
1 1 1 1 1 1 1 1 1 
1 1 1 1 1 1 1 1 1 
1 1 1 1 1 1 1 1 1 
1 1 1 1 1 1 1 1 1 
1 1 1 1 1 1 1 1 1 
1 1 1 1 1 1 1 1 1 
1 1 1 1 1 1 1 1 1 
1 1 1 1 1 1 1 1 1 
1 1 1 1 1 1 1 1 1 
1 1 1 1 1 1 1 1 1 
1 1 1 1 1 1 1 1 1 
1 1 1 1 1 1 1 1 1 
1 1 1 1 1 1 1 1 1 
1 1 1 1 1 1 1 1 1 
1 1 1 1 1 1 1 1 1 
1 1 1 1 1 1 1 1 1 
1 1 1 1 1 1 1 1 1 
1 1 1 1 1 1 1 1 1 
1 1 1 1 1 1 1 1 1 
1 1 1 1 1 1 1 1 1 
1 1 1 1 1 1 1 1 1 
1 1 1 1 1 1 1 1 1 
1 1 1 1 1 1 1 1 1 
1 1 1 1 1 1 1 1 1 
1 1 1 1 1 1 1 1 1 
1 1 1 1 1 1 1 1 1 
1 1 1 1 1 1 1 1 1 
1 1 1 1 1 1 1 1 1 
1 1 1 1 1 1 1 1 1 
1 1 
i 3 2000 int
0 0 0 0 0 0 0 0 0 
0 0 0 0 0 0 0 0 0 
0 0 0 0 0 0 0 0 0 
0 0 0 0 0 0 0 0 0 
0 0 0 0 0 0 0 0 0 
0 0 0 0 0 0 0 0 0 
0 0 0 0 0 0 0 1 0 
0 0 0 0 0 0 0 0 0 
0 0 0 0 0 0 0 0 0 
0 0 0 0 0 0 0 0 0 
0 0 0 0 0 0 0 0 0 
0 0 0 0 0 0 0 0 0 
0 0 0 0 0 0 0 0 0 
0 0 0 -1 0 0 0 0 0 
0 0 0 0 0 0 0 0 0 
0 0 0 0 0 0 0 0 0 
0 0 0 0 0 0 0 0 0 
0 1 0 0 0 0 0 0 0 
0 0 0 0 0 0 0 0 0 
0 0 0 0 0 0 0 0 0 
0 0 0 0 0 0 0 0 0 
0 0 0 0 0 0 0 0 0 
0 0 0 0 0 0 0 0 0 
0 0 0 0 0 0 0 0 0 
0 0 0 0 0 0 0 0 0 
0 0 0 0 0 0 0 0 0 
0 0 0 0 0 0 0 0 0 
0 0 0 0 0 0 0 0 0 
0 0 0 0 0 0 0 0 0 
0 0 0 0 0 0 0 0 0 
0 0 0 0 0 0 0 0 0 
0 0 0 0 0 0 0 0 0 
0 0 0 0 0 0 0 0 0 
0 0 0 0 0 0 0 0 0 
0 0 0 0 0 0 0 0 0 
0 0 0 0 0 0 0 0 0 
0 0 0 0 0 0 0 0 0 
0 0 0 0 0 0 0 0 0 
0 0 0 0 0 0 0 0 0 
0 0 0 0 0 0 0 0 0 
0 0 0 0 0 0 0 0 0 
0 0 0 0 0 0 0 0 0 
0 0 0 0 0 0 0 0 0 
0 0 0 0 0 0 0 0 0 
0 0 0 0 0 0 0 0 0 
0 0 0 0 0 0 0 0 0 
0 0 0 0 0 0 0 0 0 
0 0 0 0 0 0 0 0 0 
0 0 0 -1 0 0 0 0 0 
0 0 0 0 0 0 0 0 0 
0 0 0 0 0 0 0 0 0 
0 0 0 0 0 0 0 0 0 
0 0 0 0 0 0 0 0 0 
0 0 0 0 0 0 0 0 0 
0 0 0 0 0 0 0 0 0 
0 0 0 0 0 0 0 0 0 
0 0 0 0 0 0 0 0 0 
0 0 0 0 0 0 0 0 0 
0 0 0 0 0 0 0 0 0 
0 0 0 0 0 0 0 0 0 
0 0 0 0 0 0 0 0 0 
0 0 0 0 0 0 0 0 0 
0 0 0 0 0 0 0 0 0 
0 0 0 0 0 0 0 0 0 
0 0 0 0 0 0 0 0 0 
0 0 0 0 0 0 0 0 0 
0 0 0 0 0 0 0 -1 0 
0 0 0 0 0 0 1 0 0 
0 0 0 0 -1 0 0 0 0 
0 0 0 0 0 0 0 0 0 
0 0 0 0 0 0 0 0 0 
0 0 0 0 0 0 0 0 0 
0 0 0 0 0 0 0 0 0 
0 0 0 0 0 0 0 0 0 
0 0 0 0 0 0 0 0 0 
0 0 0 0 0 0 0 0 0 
0 0 0 0 0 0 0 0 0 
0 0 0 0 0 0 0 0 0 
0 0 0 0 0 0 0 0 0 
0 0 0 0 0 0 0 0 0 
0 0 0 0 0 0 0 0 0 
0 0 0 0 0 0 0 0 0 
0 0 0 0 0 0 0 -1 0 
0 0 0 0 0 0 0 0 0 
0 0 0 0 0 0 0 0 0 
0 0 0 0 0 0 0 0 0 
0 0 0 0 0 0 1 0 0 
0 0 0 0 0 0 0 0 0 
0 0 0 0 0 0 0 0 0 
0 0 0 0 0 0 0 0 0 
0 0 0 0 0 0 0 0 0 
0 0 0 0 1 0 0 0 0 
0 1 0 0 0 0 0 0 0 
0 0 0 0 0 0 0 0 0 
0 0 0 0 0 0 0 0 0 
0 0 0 0 0 0 0 0 0 
0 0 0 0 0 0 0 0 0 
0 0 0 0 0 0 0 0 0 
0 0 0 0 0 0 0 0 0 
0 0 0 0 0 0 0 0 0 
0 0 0 0 0 0 0 0 0 
0 0 0 0 0 0 0 0 0 
0 0 0 0 0 0 0 0 0 
0 0 0 0 0 0 0 0 0 
0 0 0 0 0 0 0 0 0 
0 0 0 0 0 0 -1 0 0 
0 0 0 0 0 0 0 0 0 
0 0 0 0 0 0 0 0 0 
0 0 0 0 0 0 0 0 0 
0 0 0 0 0 0 0 0 0 
0 0 0 0 0 0 0 0 0 
0 0 0 0 0 0 0 0 0 
0 0 0 0 0 0 0 0 0 
0 0 0 0 0 0 0 0 0 
0 0 0 0 0 0 0 0 0 
0 0 0 0 0 0 0 0 0 
0 0 0 0 0 0 0 0 0 
0 0 0 0 0 0 0 0 0 
0 0 0 0 0 0 0 0 0 
0 0 0 0 0 0 0 0 0 
0 0 0 0 0 0 -1 0 0 
0 0 0 0 0 0 0 0 0 
0 0 0 0 0 0 0 0 0 
0 0 0 0 0 0 0 0 0 
0 0 0 0 0 0 1 0 0 
0 0 0 0 0 0 0 0 0 
0 0 0 0 0 0 1 0 0 
0 0 0 0 0 0 0 0 0 
0 0 0 0 0 0 0 0 0 
0 0 0 0 0 0 0 0 0 
0 0 0 0 0 0 0 0 0 
0 0 0 0 0 0 0 0 0 
0 0 0 0 0 0 0 0 0 
0 0 0 0 0 0 0 0 0 
0 0 0 0 0 0 0 0 0 
0 0 0 0 0 0 0 0 0 
0 0 0 0 0 0 0 0 0 
0 0 0 0 0 0 0 0 0 
0 0 0 0 0 0 0 0 0 
0 0 0 0 0 0 0 0 0 
0 0 0 0 0 0 0 0 0 
0 0 0 0 0 0 0 0 0 
0 0 0 0 0 0 0 0 0 
0 0 0 0 0 0 0 0 0 
0 0 0 0 0 0 0 0 0 
0 0 0 0 0 0 0 0 0 
0 0 0 0 0 0 1 0 0 
0 0 0 0 0 0 0 0 0 
0 0 0 0 0 0 0 0 0 
0 0 0 0 0 0 0 0 0 
0 0 0 0 0 0 0 0 0 
1 0 0 0 0 0 0 0 0 
1 0 0 0 0 0 0 0 0 
0 0 0 0 0 0 0 0 0 
0 0 0 0 0 0 0 0 0 
0 0 0 0 0 0 0 0 0 
0 0 0 0 0 0 0 0 0 
0 0 0 0 0 0 0 0 0 
0 0 0 0 0 0 0 0 0 
0 0 0 0 0 0 0 0 0 
0 0 0 0 0 0 0 0 0 
0 0 0 0 0 0 0 0 0 
0 0 0 0 0 0 0 0 0 
0 0 0 0 0 0 0 0 0 
0 0 0 0 0 0 0 0 0 
-1 0 0 0 0 0 0 0 0 
0 0 0 0 0 0 0 0 0 
0 0 0 0 0 0 0 0 0 
0 0 0 0 0 0 0 0 0 
0 0 0 0 0 0 0 0 0 
0 -1 0 0 0 0 0 -1 0 
0 0 0 0 0 0 0 0 0 
0 0 0 0 0 0 0 0 0 
0 0 0 0 0 0 0 0 0 
0 0 0 0 0 0 0 0 0 
0 0 0 0 0 0 0 -1 0 
0 0 0 0 0 0 0 0 0 
0 0 0 0 0 0 0 0 0 
0 0 0 0 -1 0 0 0 0 
0 0 0 0 -1 0 0 0 0 
0 -1 0 0 0 0 0 0 0 
0 0 0 0 0 0 0 0 0 
0 0 0 0 0 0 0 0 0 
0 0 0 0 0 0 0 0 0 
0 0 0 0 -1 0 0 0 0 
0 0 0 0 0 0 0 0 0 
0 0 0 0 0 0 0 0 0 
0 0 0 0 0 0 0 0 0 
0 0 0 0 0 0 0 0 0 
0 -1 0 0 0 0 0 0 0 
0 0 0 -1 0 0 -1 0 0 
0 0 0 0 0 0 0 0 0 
0 0 0 0 0 0 0 0 0 
0 0 0 0 0 0 0 0 0 
0 0 0 0 0 0 0 0 0 
0 0 0 0 0 0 0 0 0 
0 0 0 0 0 0 0 0 0 
0 0 0 0 0 0 0 1 0 
0 0 0 0 0 0 0 1 0 
1 1 0 0 0 0 0 0 0 
0 0 0 0 0 0 0 0 0 
0 0 0 0 0 0 0 0 0 
0 0 0 0 0 0 0 0 0 
0 0 0 0 0 0 0 0 0 
0 0 0 0 0 0 0 0 0 
0 1 0 0 0 0 0 0 0 
0 0 0 0 0 0 0 0 0 
0 0 0 0 0 0 0 0 0 
0 0 0 0 0 0 0 1 0 
0 0 0 0 0 0 0 0 0 
0 1 0 0 0 0 0 0 0 
0 0 0 0 0 0 0 0 0 
0 0 0 0 0 0 0 0 0 
0 0 0 0 0 0 0 0 0 
0 0 0 0 0 0 0 0 0 
0 0 0 0 0 0 0 0 0 
0 0 0 0 0 0 1 0 0 
0 0 0 0 0 0 0 0 0 
0 0 0 0 0 0 0 0 0 
0 0 0 0 0 0 0 0 0 
0 0 0 0 0 0 0 0 0 
0 0 0 0 0 0 0 0 0 
0 0 0 0 0 0 0 0 0 
0 0 0 0 0 0 0 0 0 
0 0 0 0 0 0 0 0 0 
0 0 0 0 0 0 0 0 0 
0 0 0 0 0 0 0 0 0 
0 0 0 0 0 0 0 0 0 
0 0 0 0 0 0 0 0 0 
0 0 0 0 0 0 0 0 0 
0 0 0 -1 0 0 0 0 0 
0 0 0 0 0 0 0 0 0 
0 0 0 0 0 0 0 0 0 
0 0 0 0 0 0 0 0 0 
0 0 0 0 0 0 0 0 0 
0 0 0 0 0 0 0 0 0 
0 0 0 0 0 0 0 0 0 
0 0 0 0 0 0 0 0 0 
0 0 0 0 0 0 0 0 0 
0 0 0 0 0 0 0 0 0 
0 0 0 0 0 0 0 0 0 
0 0 0 0 0 0 0 0 0 
0 0 0 0 0 0 0 0 0 
0 0 0 0 0 0 0 0 0 
0 0 0 0 0 0 0 0 0 
0 0 0 0 0 0 0 0 0 
0 0 0 0 0 0 0 0 0 
0 0 0 0 0 0 0 0 0 
0 0 0 0 0 0 0 0 0 
0 0 0 0 0 0 0 0 0 
-1 0 0 0 0 0 -1 0 0 
0 0 0 0 0 0 0 0 0 
0 0 0 0 0 0 0 0 0 
0 0 0 0 0 0 0 0 0 
0 0 0 0 0 0 0 0 0 
0 0 0 0 0 0 0 0 0 
0 0 0 0 0 0 0 0 0 
0 0 0 0 0 0 0 0 0 
1 0 0 0 0 0 0 0 0 
1 0 0 0 0 0 1 0 0 
1 0 0 0 0 0 0 0 0 
0 0 0 0 0 0 0 0 0 
0 0 0 0 0 0 0 0 0 
0 0 0 0 0 0 0 0 0 
0 0 0 0 0 0 0 0 0 
0 0 0 0 0 0 0 0 0 
0 0 0 0 0 0 0 0 0 
0 0 0 0 0 0 0 0 0 
0 0 0 0 0 0 0 0 0 
0 0 0 0 0 0 0 0 0 
0 0 0 0 0 0 0 0 0 
0 0 0 0 0 0 0 0 0 
0 0 0 0 0 0 0 0 0 
0 0 0 0 0 0 0 0 0 
0 0 0 0 0 0 0 0 0 
0 0 0 0 0 0 0 0 0 
0 0 0 0 0 0 0 0 0 
0 0 0 0 0 0 0 -1 0 
0 0 0 0 0 0 0 0 0 
0 0 0 0 0 0 0 0 0 
0 0 0 0 0 0 0 0 0 
0 0 0 0 0 0 0 -1 0 
0 0 0 0 0 0 0 0 0 
0 0 0 0 0 0 0 0 0 
0 0 0 0 0 0 0 0 0 
0 0 0 0 0 0 0 0 0 
0 0 0 0 0 0 0 0 0 
0 0 0 0 0 0 0 0 0 
0 0 0 0 0 0 0 0 0 
0 0 0 0 0 0 0 0 0 
0 0 0 0 0 0 0 0 0 
0 -1 0 0 0 0 -1 0 0 
0 0 0 0 0 0 0 0 0 
0 0 0 0 0 0 0 0 0 
0 0 0 0 0 0 0 0 0 
0 0 0 0 0 0 0 0 0 
0 0 0 0 0 0 0 0 0 
0 0 0 0 0 0 0 0 0 
0 0 0 0 0 0 0 0 0 
0 0 0 0 1 0 0 0 0 
0 0 0 0 0 0 0 0 0 
0 0 0 0 0 0 0 0 0 
0 0 0 0 0 0 0 0 0 
0 0 0 0 0 0 0 1 0 
0 0 0 0 0 0 0 0 0 
0 0 0 0 0 0 0 0 0 
0 1 0 0 0 0 0 0 0 
0 0 0 0 0 0 0 0 0 
0 0 0 0 0 0 0 0 0 
0 1 0 0 0 0 0 0 0 
0 0 0 0 0 0 0 0 0 
0 0 0 0 0 0 0 0 0 
0 0 0 0 1 0 0 0 0 
0 1 0 0 0 0 -1 0 0 
1 0 0 0 0 0 0 0 0 
0 0 0 0 0 0 0 0 0 
0 0 0 0 0 0 0 0 0 
0 0 0 0 0 0 0 0 0 
0 0 0 0 0 0 0 0 0 
0 0 0 0 0 0 0 0 0 
0 0 0 0 0 0 0 0 0 
0 0 0 0 0 0 0 0 0 
0 0 0 0 0 0 0 0 0 
0 0 0 0 0 0 0 0 0 
0 0 0 0 0 0 0 0 0 
0 0 0 0 0 0 0 0 0 
0 0 0 0 0 0 0 0 0 
0 0 0 0 0 0 0 0 0 
0 0 0 0 0 0 0 0 0 
0 0 0 0 0 0 0 0 0 
0 0 0 0 0 0 0 0 0 
0 0 0 0 0 0 0 0 0 
0 0 0 -1 0 0 -1 0 0 
0 0 0 0 0 0 0 0 0 
0 0 0 0 0 0 0 0 0 
0 0 0 0 0 0 0 0 0 
0 0 0 0 0 0 0 0 0 
0 0 0 0 0 0 0 0 0 
0 0 0 0 0 0 0 0 0 
0 0 0 0 0 0 0 0 0 
0 0 0 0 0 0 0 0 0 
0 0 0 0 0 0 0 0 0 
0 0 0 0 0 0 0 0 0 
0 0 0 0 0 0 0 0 0 
0 0 0 0 0 0 0 0 0 