# vtk DataFile Version 4.0
Generated by LIGGGHTS
ASCII
DATASET POLYDATA
POINTS 2000 float
-100.201 -85.2256 9.91158 -90.2645 -103.113 9.91645 -108.815 -133.176 9.91894 
-120.815 -117.227 9.91831 -88.9313 -131.461 9.91844 -128.626 -135.59 9.91574 
-128.12 -98.6522 9.91871 -109.323 -101.987 15.7424 -115.613 -129.463 28.8855 
-98.1891 -117.689 21.0074 -131.836 -117.848 28.3261 -121.713 -100.917 31.3513 
-96.5478 -135.126 30.5679 -43.4783 -113.625 9.91877 -44.3429 -133.565 9.91893 
-55.1662 -91.2555 9.91877 -61.5287 -122.143 9.91913 -70.3349 -104.23 9.91858 
-59.6855 -112.132 27.0873 -78.7882 -121.408 23.8604 -57.903 -135.326 24.4613 
-77.4881 -140.729 28.6932 -70.8056 -139.815 9.91457 -27.5585 -96.0841 9.91839 
8.54026 -102.288 9.91877 -9.94464 -137.038 9.91918 27.7767 -96.96 9.91919 
-8.16548 -91.3637 9.91898 21.8546 -124.867 9.91977 -26.1418 -125.374 9.91792 
21.8501 -103.861 27.6851 2.23383 -121.226 9.91621 19.7689 -123.605 29.7339 
7.4791 -138.226 19.5856 13.8081 -86.5095 21.9796 35.184 -86.5149 25.2303 
81.2956 -88.3698 9.91883 38.4731 -113.814 9.91972 49.0852 -93.9807 9.91877 
37.2297 -129.974 21.5714 69.8345 -117.837 24.7942 140.924 -100.244 26.5536 
119.176 -123.865 9.91927 136.83 -110.476 9.91678 117.971 -103.944 9.91784 
101.319 -114.944 9.91874 100.901 -133.814 25.3731 121.155 -100.395 29.2973 
100.117 -95.0196 9.91867 136.67 -128.591 18.2875 135.639 -90.5531 9.91973 
122.251 -120.319 29.3194 102.204 -94.1423 29.7487 103.659 -113.843 32.5873 
-95.1967 -30.6184 25.8114 -124.401 -57.2401 9.91896 -93.4835 -56.4721 24.1533 
-140.645 -45.6454 9.9212 -118.567 -38.1547 9.92093 -106.637 -66.3359 9.92009 
-91.5482 -42.1271 9.91848 -115.019 -49.6767 25.8299 -111.093 -78.4122 25.1785 
-129.896 -63.5113 28.0528 -131.016 -37.7435 25.5216 -134.877 -74.2267 9.91502 
-130.321 -83.4391 27.0186 -113.773 -31.1273 33.0937 -81.3656 -64.4493 9.91878 
-38.9122 -79.6694 9.91894 -33.3046 -58.2227 9.91851 -62.5333 -72.7056 9.9189 
-59.9444 -41.1936 24.7926 -48.1523 -74.031 26.6884 -26.3425 -40.2935 15.2527 
11.4391 -55.6602 9.91632 -8.33094 -58.4145 9.91866 -4.91859 -38.7492 9.91872 
3.01721 -74.8317 9.91819 26.5802 -77.0348 9.91852 -19.5181 -74.9461 9.91877 
12.782 -59.4436 29.4629 -20.8047 -56.5721 25.3902 -5.72505 -44.047 29.1449 
-26.6072 -40.1946 35.2097 63.2234 -79.8925 9.91929 45.3523 -72.6522 15.0908 
61.1713 -60.0405 9.91724 79.3915 -68.1866 9.91877 31.3023 -57.6404 9.91316 
70.9863 -37.0601 9.92019 46.6642 -53.545 21.9842 72.3955 -51.253 23.8846 
57.7225 -37.1724 24.8375 31.5048 -66.1879 27.9367 86.5528 -49.555 9.91956 
98.7265 -77.4751 19.3335 111.045 -64.9065 9.91875 99.2918 -34.1896 9.91849 
130.876 -62.6341 9.91873 116.777 -84.0235 9.91877 118.993 -46.5998 9.91579 
135.144 -53.0072 27.4054 133.172 -76.6087 23.983 129.514 -30.7706 15.9938 
116.974 -81.5965 34.519 133.749 -34.6472 35.1047 -134.163 -25.7015 9.91797 
-111.162 7.24856 9.92229 -96.194 -5.95827 9.91944 -123.979 -8.05295 9.91815 
-85.8138 -23.0091 9.92074 -109.214 -18.5907 18.2456 -115.771 -1.91918 27.0442 
-112.882 17.8264 26.7685 -128.035 22.6558 9.91877 -139.1 0.945646 33.1284 
-108.716 27.6688 9.91673 -82.4237 -14.6035 27.7046 -34.254 -22.7607 9.91925 
-50.2572 4.89923 9.91468 -31.1208 17.0077 9.91749 -31.9016 -2.9385 9.91877 
-78.0613 19.9426 24.798 -43.4381 15.2918 25.5246 -55.3146 -6.57131 25.4396 
24.3536 -26.8044 24.7976 -14.3589 -21.1638 9.91877 -13.6133 7.43829 10.448 
9.28223 5.78791 9.91877 19.0298 7.21276 30.7574 29.1957 4.43904 9.91898 
55.8494 -24.0488 9.91845 38.4263 10.8071 33.8014 78.7905 24.066 23.8729 
47.2331 -4.1045 9.91834 45.6147 15.7892 9.91877 64.7688 21.4029 9.9191 
82.1113 10.202 9.9116 52.965 23.6658 29.1528 83.7278 -21.6948 9.91909 
140.768 -17.8813 26.8635 101.426 -12.4639 9.91971 140.007 0.543339 9.91893 
124.783 -12.3636 9.91684 113.147 -21.8169 23.0948 112.989 16.9652 24.7943 
-93.0518 66.3483 9.91961 -115.164 46.5552 9.91728 -95.2039 46.5064 9.91865 
-136.89 77.4672 9.91722 -135.142 57.582 9.91727 -126.468 38.4213 24.2145 
-86.8258 81.7227 21.0207 -85.0599 53.8379 29.5949 -140.396 38.3268 9.91875 
-107.759 35.305 34.9416 -45.4332 30.923 9.91877 -30.2117 75.5829 24.7945 
-60.106 65.2843 9.91981 -59.2371 45.343 9.91871 -30.3256 43.9662 9.91873 
-76.9416 54.5626 9.91877 -65.0333 73.9667 27.205 -61.2475 50.2612 29.1575 
-70.0256 82.6042 9.9186 18.6919 75.7233 9.91475 0.410029 67.7179 9.91825 
0.297868 36.1018 24.794 16.5051 66.9212 27.685 30.7972 53.0746 26.2259 
31.4314 41.5911 9.91688 50.3308 35.1838 9.91877 68.7904 42.7646 9.91877 
71.4699 62.5413 9.91584 34.7451 63.8654 9.91464 67.3163 39.2101 29.9664 
47.7274 42.9201 29.11 52.9999 54.9672 9.91877 69.9291 58.8072 32.6728 
33.3594 30.1055 34.3848 84.4288 51.9557 20.7856 87.4002 68.4006 31.6988 
87.3651 35.4763 9.91748 128.769 66.0112 9.91877 90.8277 67.4204 9.91702 
109.564 74.3053 9.91875 103.56 47.1438 9.91908 123.517 46.7662 9.91593 
104.126 59.2643 25.7677 132.58 50.355 27.3328 119.061 72.4082 27.371 
135.75 83.3538 27.1206 -90.5852 97.8776 9.91878 -115.104 117.838 24.7956 
-139.141 97.299 9.91877 -84.8364 126.974 9.91879 -38.0172 119.423 9.91807 
-54.3097 130.951 9.91833 -32.6141 110.379 26.8686 -41.5368 135.253 24.6385 
-66.8817 108.31 33.3757 -28.1455 136.77 9.91826 20.6643 132.321 9.92023 
-1.94483 89.7518 9.92018 0.32355 127.847 9.91813 -6.65577 109.147 9.91823 
23.0485 95.1958 9.91936 9.70504 96.3686 24.7181 13.0271 112.454 9.91792 
-15.9779 123.28 20.4874 -2.6192 111.377 29.3366 12.4479 124.073 26.1338 
25.2482 108.457 27.9829 26.9902 139.32 34.6164 -4.26962 130.45 34.9748 
48.7361 140.615 9.91882 67.0475 132.674 9.918 32.9861 112.501 9.91791 
51.3123 120.404 9.91636 36.8873 128.66 20.9591 54.0347 88.9092 24.7947 
70.4691 119.743 24.734 56.3817 132.491 30.8408 83.6971 121.675 9.91754 
88.3351 84.6398 19.6908 90.6616 140.378 9.91823 85.3697 101.788 9.91859 
125.915 85.7554 9.91869 101.755 113.186 9.9186 130.243 136.475 9.91659 
110.617 140.106 9.91985 103.433 93.2987 9.92267 135.293 117.168 9.91635 
99.7443 128.365 23.3697 118.437 123.073 18.8178 119.768 104.694 11.1655 
133.636 131.212 28.8679 114.879 134.144 35.0365 -90.7536 -118.254 39.5211 
-131.586 -134.095 39.9179 -120.417 -118.257 44.6892 -104.734 -130.129 48.0662 
-122.024 -133.536 57.43 -129.624 -116.981 65.5776 -133.967 -137.377 73.6263 
-95.8754 -87.0823 82.4758 -138.713 -107.543 80.6303 -92.5975 -130.702 63.8961 
-45.8263 -123.827 35.4238 -44.9877 -91.6085 35.5986 -84.5516 -113.458 57.8771 
-82.2547 -134.648 47.0931 -44.4742 -117.159 54.1855 -34.6049 -100.904 65.4362 
-67.3381 -129.347 59.2428 -70.9699 -118.973 42.0617 -50.4774 -96.5873 54.1311 
-84.3339 -97.7179 70.1489 -64.9951 -109.535 58.6018 -42.7364 -136.677 50.3813 
-63.5463 -140.254 42.9631 -54.1679 -120.461 71.3182 -76.3309 -114.166 78.1242 
-61.0752 -101.414 76.4077 -61.1845 -139.987 74.9681 -42.1195 -136.34 70.3272 
-38.9949 -88.5654 83.4796 -79.759 -133.81 78.8542 -30.3551 -120.244 67.9487 
-43.2557 -108.036 82.4865 -79.2771 -85.2905 37.8867 -32.3803 -131.786 87.1402 
-13.878 -110.103 38.8527 19.9948 -113.277 46.8154 8.52016 -136.91 39.4753 
10.3945 -127.517 56.9812 10.5399 -108.766 63.8116 -8.20034 -139.163 57.3976 
-3.80841 -87.0487 63.1 14.9687 -94.3633 50.7307 3.32086 -134.541 74.2681 
-16.6016 -135.389 75.1034 14.0128 -90.6077 71.3419 24.7791 -125.503 70.6721 
30.4643 -107.99 62.9639 33.0152 -96.3825 42.4432 36.7007 -114.707 35.4392 
44.7258 -136.035 40.8964 58.5898 -132.031 54.676 40.2786 -124.283 56.407 
64.7622 -120.032 69.3616 48.0939 -107.091 49.9481 47.9211 -99.2576 68.303 
71.4526 -105.425 57.518 43.2867 -117.502 74.9381 30.9024 -88.1324 61.0107 
71.1255 -138.935 68.5965 31.4339 -96.3884 79.1763 53.2445 -134.734 76.3997 
73.0573 -128.423 85.4545 31.0928 -140.664 82.0166 81.477 -126.955 56.4492 
140.706 -110.885 50.5762 140.324 -130.17 56.684 87.7362 -98.8504 48.0318 
92.1897 -137.645 42.9254 129.697 -135.069 40.5167 101.619 -112.51 52.3961 
121.053 -113.095 47.8866 110.534 -129.814 42.3852 129.313 -94.9656 46.6846 
100.732 -131.055 59.7253 109.427 -94.5922 48.35 120.609 -129.251 59.5983 
98.4729 -97.5355 65.2104 114.465 -109.29 67.3282 110.648 -128.546 76.8703 
91.7921 -115.861 69.4418 116.118 -89.594 70.1006 133.114 -124.132 74.2885 
131.952 -91.19 82.1451 104.216 -111.2 84.3483 124.122 -110.273 85.4898 
-123.306 -82.892 61.2412 -124.198 -52.0799 43.3895 -99.5636 -44.8021 39.1604 
-106.539 -63.4325 37.5502 -130.97 -33.3741 45.0019 -101.572 -56.1557 55.456 
-134.255 -41.8078 62.7938 -92.2606 -68.4227 68.1523 -86.6269 -49.257 79.8709 
-136.52 -54.9951 77.6004 -105.613 -55.3646 79.0599 -134.258 -34.3197 81.3007 
-93.2008 -68.1194 88.0871 -31.8344 -67.1561 56.8114 -83.3958 -52.177 48.2463 
-65.5125 -58.0456 54.8875 -38.9187 -33.3446 51.5782 -60.7813 -83.5678 67.477 
-55.3736 -41.4665 59.4294 -67.1291 -44.9922 80.1478 -75.1008 -40.7535 62.3505 
-40.6713 -37.0381 72.1701 -53.1382 -74.4857 83.5156 -67.0765 -63.9388 73.8872 
-50.1296 -54.7604 83.8722 -77.7135 -80.4148 77.569 -2.69108 -69.05 37.6279 
22.1714 -80.006 38.894 16.3664 -56.5062 64.0928 -10.7476 -40.3972 49.0517 
-22.936 -34.0421 63.5236 -4.37539 -28.7544 68.624 69.2126 -41.2177 40.8392 
59.7064 -74.2755 46.9051 75.3326 -46.8343 61.8626 44.4662 -42.8689 48.4281 
59.8093 -34.7988 58.3214 65.7974 -61.9575 79.0332 41.6952 -76.9966 76.723 
76.3163 -45.4714 83.0372 50.0988 -51.8756 71.9421 41.8884 -33.2948 69.6408 
62.3308 -32.1716 77.9459 102.976 -50.2 40.7566 93.1793 -80.7811 54.5322 
137.347 -50.2246 47.0487 132.673 -69.0751 42.4563 94.2821 -46.4687 74.395 
119.197 -78.1462 54.0491 85.2271 -63.0559 67.9717 124.026 -73.2602 78.4136 
128.095 -47.5565 64.9006 100.233 -77.8548 72.9731 93.2121 -64.6532 86.1952 
-98.4517 -6.11399 36.0321 -104.911 10.4761 45.0536 -125.06 -15.5184 38.3207 
-104.978 -22.9964 65.92 -124.777 8.60481 44.7226 -103.064 11.8699 64.8764 
-122.904 13.7744 63.9073 -93.3596 26.5743 55.5049 -114.879 6.98996 80.8773 
-95.7175 4.2478 85.7436 -122.942 25.1603 84.3127 -86.6468 4.69863 55.0496 
[...]
POINT_DATA 2000
FIELD FieldData 7
id 1 2000 int
41 77 196 230 301 308 411 107 205 
282 106 55 343 53 85 259 296 439 
275 328 424 223 311 157 185 265 297 
299 410 440 49 172 336 218 351 95 
300 376 408 437 22 380 59 139 141 
164 29 30 201 379 252 335 47 283 
36 142 215 338 414 456 171 32 161 
261 453 395 381 80 246 112 143 231 
10 211 243 115 208 212 232 365 48 
167 45 281 422 397 113 174 222 318 
108 354 285 317 149 200 434 117 135 
262 286 314 334 274 213 86 183 114 
239 342 346 413 66 147 238 99 412 
320 443 225 50 69 345 20 46 220 
11 37 358 390 416 122 359 123 256 
264 347 430 54 204 197 298 97 178 
271 404 15 84 199 362 400 458 234 
184 378 266 450 187 8 279 321 399 
250 384 387 224 195 240 12 186 133 
111 131 132 389 419 229 369 375 72 
315 449 233 253 34 102 154 221 330 
173 352 58 329 138 6 444 179 168 
455 295 385 27 88 62 169 302 339 
341 79 83 426 294 433 127 128 78 
33 110 227 396 421 18 251 242 429 
366 344 160 96 209 288 367 370 452 
116 198 284 247 447 438 442 166 401 
448 1283 852 1551 856 1025 371 273 361 
304 71 82 119 130 350 319 383 409 
292 1007 1248 1875 1713 1903 903 1746 290 
1938 9 1533 2 241 355 156 64 76 
210 293 1584 1870 1852 1011 418 39 216 
263 269 144 165 382 42 74 332 364 
1712 1941 1809 1945 949 323 244 1861 137 
38 51 125 394 445 81 155 249 272 
436 1279 1425 1934 701 720 1921 1306 1709 
5 245 276 425 331 388 307 553 1536 
1779 655 1754 1406 23 65 163 415 191 
236 1673 1716 1727 1791 662 643 911 417 
75 28 226 353 1158 392 14 44 306 
118 89 327 931 1602 120 1654 25 180 
313 398 189 188 1315 1641 1867 1919 1953 
255 309 405 26 278 129 322 303 761 
764 1565 43 739 1505 1015 152 57 151 
162 68 158 214 257 175 176 368 427 
864 1210 874 1539 793 1282 1363 121 4 
217 357 94 190 202 349 402 1858 571 
591 746 603 268 219 7 100 333 104 
457 70 454 63 1386 1764 1001 752 153 
623 432 582 386 291 277 326 19 441 
1404 839 3 254 228 393 145 177 377 
140 1045 1599 1674 1396 1956 420 1457 1 
270 109 170 91 312 93 909 1030 1693 
451 260 61 373 67 267 60 87 316 
372 1650 467 280 73 789 235 374 16 
103 194 148 310 356 1079 1951 1403 1414 
661 206 1123 337 35 258 24 159 182 
435 340 1427 1973 1111 1817 105 126 360 
403 237 287 363 92 348 406 1682 1395 
1514 1766 609 1190 181 324 391 21 407 
40 428 56 98 1805 1891 1086 1281 1359 
207 289 446 90 101 192 13 124 1589 
1866 1397 923 1449 1740 193 146 423 136 
305 52 150 431 1081 1881 1995 771 817 
1498 1833 1849 203 1703 1364 325 17 31 
134 248 1616 967 1139 1444 741 1604 1758 
481 1067 1691 1541 954 1291 784 1104 519 
1769 814 1017 1725 1130 1194 485 1379 600 
1021 1175 542 1172 1999 669 1169 1329 907 
1980 948 965 1257 1600 1895 1070 521 1835 
952 470 1335 1261 1645 951 1618 1155 1662 
1851 554 1447 1684 549 1632 1049 1267 1590 
1960 1127 1988 463 1188 838 1050 1471 1839 
1994 563 1890 775 1561 914 866 1146 1148 
1219 1456 1647 1177 753 1826 480 757 946 
974 487 1524 574 1424 1842 1837 1538 462 
1340 1251 541 1205 1680 1485 1542 718 1116 
887 1824 1273 490 997 652 878 995 1044 
1170 1675 1578 622 1076 1154 1816 1863 1142 
833 889 627 1586 875 906 1129 1212 1517 
1036 1892 1418 534 1722 985 1566 641 969 
1811 1362 779 653 645 1224 1233 1370 1871 
862 1582 667 1388 845 1041 938 476 723 
1412 1670 806 1101 1166 496 522 1477 1915 
1733 1797 854 1601 1439 1907 842 861 1013 
1416 1033 1098 1176 1626 1735 1128 1462 1322 
659 533 754 1062 1189 1879 1947 1493 629 
531 1847 722 1162 1401 1023 1065 712 1715 
1554 1563 699 799 1143 584 709 1338 1828 
1742 1572 472 1937 1441 1726 970 595 960 
1398 1911 1579 888 1118 1672 1366 465 1092 
1382 581 475 1465 1496 1339 1269 1035 1723 
1888 507 1532 1959 644 1193 1594 961 1928 
1831 901 1409 745 494 1411 1199 1570 1527 
471 598 1676 1882 1073 919 1171 892 798 
1651 1039 853 675 702 1717 975 1528 1801 
841 657 1413 1478 468 1107 1789 953 565 
1982 567 1487 493 1260 1679 837 934 1051 
1455 1577 1056 1302 1771 1467 1332 1472 1421 
674 625 1929 1240 1450 1606 1862 729 962 
968 1324 1902 966 1636 1855 1438 1474 1634 
1183 1254 474 749 1782 1301 797 514 1822 
1353 803 893 1435 805 1860 1819 1334 1887 
936 1430 848 1931 1889 536 1266 532 810 
1218 1944 1552 538 1200 1977 1910 1152 1522 
1877 1624 589 1054 1681 1918 991 489 1215 
981 1500 605 1225 710 1417 1627 672 631 
728 1289 1963 876 1222 1230 1548 1502 1124 
964 1097 832 1827 1544 1841 509 1103 1608 
1053 1699 1986 1834 1164 2000 1731 523 1262 
990 1384 697 1905 1802 552 1936 1419 460 
566 915 688 1058 1168 1660 944 984 1631 
801 1480 1055 820 1376 1732 676 1117 1208 
1962 1612 1088 1749 835 671 1459 1576 1978 
1100 647 1812 1721 1060 1778 1458 1202 1119 
1228 1358 1976 1484 1093 987 1059 1120 751 
1204 1470 596 668 1648 769 1820 912 850 
1326 972 1659 1350 1972 497 736 1788 686 
1664 540 1932 1253 1186 1767 1221 687 1857 
781 807 1753 886 1083 1443 1930 1099 619 
730 1165 1669 1026 1597 1066 1245 1029 1134 
1018 1330 1770 758 1004 1832 527 1614 1671 
602 1794 693 1466 755 1207 488 1341 1564 
1285 1964 516 1550 1365 590 1492 865 1307 
896 1531 740 477 1298 617 871 788 575 
499 809 894 935 916 1786 1630 986 1803 
725 1504 1034 1573 1874 770 1488 1464 1558 
1935 529 1075 633 1394 1704 1708 1442 1308 
1568 918 830 759 1620 1331 1569 1280 1491 
1061 576 1063 1268 1501 1843 994 1069 689 
1149 608 999 615 1196 922 1125 1316 570 
683 1048 1521 1768 646 1091 1698 1422 924 
777 1490 1150 1854 925 1916 539 1113 895 
1310 1948 732 1856 1575 614 1925 1922 1559 
1368 1213 1765 1737 512 904 1611 1773 624 
1263 1463 1781 1893 1556 1105 1885 1047 524 
713 504 665 1909 1917 601 1072 1137 1617 
885 1739 929 1846 733 1108 1787 1133 802 
1274 1191 1227 1806 535 738 1864 795 765 
1957 1970 1426 526 558 628 642 1701 573 
1135 1249 550 473 1203 1357 1729 656 1024 
1145 1638 1853 1705 560 1040 1807 790 1796 
1761 562 1077 1965 503 700 1304 1639 1952 
1195 1549 1042 492 1613 1415 942 1311 1738 
1497 1356 464 1898 1489 1238 1246 825 800 
1452 1896 568 1259 1354 1288 1367 649 1808 
1090 1904 1174 847 1635 950 479 1352 648 
1429 1942 1372 1734 1868 1009 698 1052 1757 
548 1373 831 593 520 1993 1405 1342 992 
1595 1981 1437 1068 1961 998 679 715 1939 
1815 1667 1380 1511 546 920 988 1046 1949 
1486 1161 1022 708 818 959 1244 1661 794 
1663 1293 1287 1241 1557 1571 500 1159 1121 
815 635 1991 1180 1751 1605 1236 530 787 
1319 1836 597 1800 1355 592 1087 1585 1250 
1348 1431 1234 1547 1825 1850 719 811 1658 
747 1300 1844 1005 484 1089 822 604 1138 
510 763 1374 1692 690 1971 1479 1436 517 
1006 1509 1526 1546 1876 680 650 694 1106 
1112 1473 1665 682 1619 1433 742 868 796 
867 1209 869 1325 486 1760 908 1829 1084 
612 774 917 1545 1295 1621 1830 621 572 
651 1451 1900 1790 1741 1537 501 1160 902 
1696 511 1454 1702 1736 1391 1314 681 1420 
717 1343 1151 780 870 1115 1178 1510 469 
704 1428 955 1389 1914 900 1924 483 1776 
1615 945 971 1231 1873 1132 1513 1271 1966 
910 1519 1640 1512 829 982 1580 1383 1275 
547 1360 1958 1064 1423 993 1719 1508 696 
1173 1346 750 819 1838 1303 559 1743 1223 
1393 1975 748 836 1940 760 1141 632 1593 
1974 1499 1529 1581 1592 1752 1880 1010 791 
939 1037 678 1992 743 1038 881 1967 1445 
613 744 1000 827 1555 1082 1755 1926 776 
1886 978 658 1351 1810 1818 580 1197 1920 
1644 1823 695 1122 824 1475 1507 1284 731 
943 618 1745 1453 851 1540 564 579 762 
1239 1845 1984 459 1095 785 1697 1574 1336 
863 1799 691 767 1184 1883 1147 1759 956 
1387 1997 1678 1943 783 684 518 1028 973 
1136 1865 1461 1181 1913 1078 711 1229 1375 
1625 1278 594 1710 1859 1756 1516 599 1256 
858 737 941 1780 1131 927 977 1286 616 
1320 921 1016 556 1666 1908 813 1714 1637 
1074 1309 482 958 1689 1785 626 724 1328 
1192 873 1518 1264 1378 1071 928 1094 1609 
899 1272 1872 1996 578 1012 506 1371 1884 
1237 989 1469 1167 1506 525 1596 1683 1718 
1235 1008 1014 1390 1950 1057 897 1270 654 
1649 1955 1720 638 812 1543 1694 544 610 
1946 555 705 976 561 857 1276 1793 1798 
1588 926 1327 1226 1333 1211 840 1114 1784 
1656 1848 577 1643 1220 1591 543 1140 846 
1583 502 1344 1652 1408 585 663 1214 1688 
804 1157 1668 707 1255 1185 1232 1043 1377 
884 1897 1821 1553 664 849 515 1323 1587 
843 1163 498 1530 1628 933 1792 1265 940 
772 587 1031 1677 1775 890 773 1633 703 
1297 1503 877 778 1968 844 1998 1687 963 
1277 569 1369 1814 537 1494 1361 1109 1525 
606 1345 1448 1299 905 1927 880 1560 1317 
1695 937 1878 508 1483 1258 466 1381 1744 
766 816 1110 879 557 716 898 721 495 
913 792 1724 855 826 1385 505 1446 947 
756 1923 1748 1292 735 1432 1182 1906 1795 
673 1126 1700 588 980 1206 1085 666 1296 
1933 1686 634 1252 1153 883 823 1657 872 
891 1774 1990 834 513 1402 1690 1392 1027 
1096 1318 1243 782 1901 630 1305 1535 640 
478 734 1750 1187 545 1198 551 821 670 
1482 1987 639 768 1019 1217 1763 1985 1349 
677 1899 1772 860 1598 1312 1989 1410 620 
611 1520 1032 1468 726 828 1685 1777 607 
996 1337 491 1607 957 1460 1400 1567 1653 
1622 636 1290 1730 706 1407 1156 1840 528 
1711 1969 1495 1813 1954 1399 1313 637 1080 
660 1294 714 1562 1983 1440 1481 1646 1347 
859 586 1706 1523 1102 882 583 1603 1144 
808 1728 1179 1003 1979 786 983 1020 1321 
1242 1655 1642 1002 1434 1201 930 932 1783 
1247 1629 1515 1894 1476 1610 1869 1912 1623 
1216 1762 1534 1804 727 1747 685 461 979 
692 1707 
type 1 2000 int
1 1 1 1 1 1 1 1 1 
1 1 1 1 1 1 1 1 1 
1 1 1 1 1 1 1 1 1 
1 1 1 1 1 1 1 1 1 
1 1 1 1 1 1 1 1 1 
1 1 1 1 1 1 1 1 1 
1 1 1 1 1 1 1 1 1 
1 1 1 1 1 1 1 1 1 
1 1 1 1 1 1 1 1 1 
1 1 1 1 1 1 1 1 1 
1 1 1 1 1 1 1 1 1 
1 1 1 1 1 1 1 1 1 
1 1 1 1 1 1 1 1 1 
1 1 1 1 1 1 1 1 1 
1 1 1 1 1 1 1 1 1 
1 1 1 1 1 1 1 1 1 
1 1 1 1 1 1 1 1 1 
1 1 1 1 1 1 1 1 1 
1 1 1 1 1 1 1 1 1 
1 1 1 1 1 1 1 1 1 
1 1 1 1 1 1 1 1 1 
1 1 1 1 1 1 1 1 1 
1 1 1 1 1 1 1 1 1 
1 1 1 1 1 1 1 1 1 
1 1 1 1 1 1 1 1 1 
1 1 1 1 1 1 1 1 1 
1 1 1 1 1 1 1 1 1 
1 1 1 1 1 1 1 1 1 
1 1 1 1 1 1 1 1 1 
1 1 1 1 1 1 1 1 1 
1 1 1 1 1 1 1 1 1 
1 1 1 1 1 1 1 1 1 
1 1 1 1 1 1 1 1 1 
1 1 1 1 1 1 1 1 1 
1 1 1 1 1 1 1 1 1 
1 1 1 1 1 1 1 1 1 
1 1 1 1 1 1 1 1 1 
1 1 1 1 1 1 1 1 1 
1 1 1 1 1 1 1 1 1 
1 1 1 1 1 1 1 1 1 
1 1 1 1 1 1 1 1 1 
1 1 1 1 1 1 1 1 1 
1 1 1 1 1 1 1 1 1 
1 1 1 1 1 1 1 1 1 
1 1 1 1 1 1 1 1 1 
1 1 1 1 1 1 1 1 1 
1 1 1 1 1 1 1 1 1 
1 1 1 1 1 1 1 1 1 
1 1 1 1 1 1 1 1 1 
1 1 1 1 1 1 1 1 1 
1 1 1 1 1 1 1 1 1 
1 1 1 1 1 1 1 1 1 
1 1 1 1 1 1 1 1 1 
1 1 1 1 1 1 1 1 1 
1 1 1 1 1 1 1 1 1 
1 1 1 1 1 1 1 1 1 
1 1 1 1 1 1 1 1 1 
1 1 1 1 1 1 1 1 1 
1 1 1 1 1 1 1 1 1 
1 1 1 1 1 1 1 1 1 
1 1 1 1 1 1 1 1 1 
1 1 1 1 1 1 1 1 1 
1 1 1 1 1 1 1 1 1 
1 1 1 1 1 1 1 1 1 
1 1 1 1 1 1 1 1 1 
1 1 1 1 1 1 1 1 1 
1 1 1 1 1 1 1 1 1 
1 1 1 1 1 1 1 1 1 
1 1 1 1 1 1 1 1 1 
1 1 1 1 1 1 1 1 1 
1 1 1 1 1 1 1 1 1 
1 1 1 1 1 1 1 1 1 
1 1 1 1 1 1 1 1 1 
1 1 1 1 1 1 1 1 1 
1 1 1 1 1 1 1 1 1 
1 1 1 1 1 1 1 1 1 
1 1 1 1 1 1 1 1 1 
1 1 1 1 1 1 1 1 1 
1 1 1 1 1 1 1 1 1 
1 1 1 1 1 1 1 1 1 
1 1 1 1 1 1 1 1 1 
1 1 1 1 1 1 1 1 1 
1 1 1 1 1 1 1 1 1 
1 1 1 1 1 1 1 1 1 
1 1 1 1 1 1 1 1 1 
1 1 1 1 1 1 1 1 1 
1 1 1 1 1 1 1 1 1 
1 1 1 1 1 1 1 1 1 
1 1 1 1 1 1 1 1 1 
1 1 1 1 1 1 1 1 1 
1 1 1 1 1 1 1 1 1 
1 1 1 1 1 1 1 1 1 
1 1 1 1 1 1 1 1 1 
1 1 1 1 1 1 1 1 1 
1 1 1 1 1 1 1 1 1 
1 1 1 1 1 1 1 1 1 
1 1 1 1 1 1 1 1 1 
1 1 1 1 1 1 1 1 1 
1 1 1 1 1 1 1 1 1 
1 1 1 1 1 1 1 1 1 
1 1 1 1 1 1 1 1 1 
1 1 1 1 1 1 1 1 1 
1 1 1 1 1 1 1 1 1 
1 1 1 1 1 1 1 1 1 
1 1 1 1 1 1 1 1 1 
1 1 1 1 1 1 1 1 1 
1 1 1 1 1 1 1 1 1 
1 1 1 1 1 1 1 1 1 
1 1 1 1 1 1 1 1 1 
1 1 1 1 1 1 1 1 1 
1 1 1 1 1 1 1 1 1 
1 1 1 1 1 1 1 1 1 
1 1 1 1 1 1 1 1 1 
1 1 1 1 1 1 1 1 1 
1 1 1 1 1 1 1 1 1 
1 1 1 1 1 1 1 1 1 
1 1 1 1 1 1 1 1 1 
1 1 1 1 1 1 1 1 1 
1 1 1 1 1 1 1 1 1 
1 1 1 1 1 1 1 1 1 
1 1 1 1 1 1 1 1 1 
1 1 1 1 1 1 1 1 1 
1 1 1 1 1 1 1 1 1 
1 1 1 1 1 1 1 1 1 
1 1 1 1 1 1 1 1 1 
1 1 1 1 1 1 1 1 1 
1 1 1 1 1 1 1 1 1 
1 1 1 1 1 1 1 1 1 
1 1 1 1 1 1 1 1 1 
1 1 1 1 1 1 1 1 1 
1 1 1 1 1 1 1 1 1 
1 1 1 1 1 1 1 1 1 
1 1 1 1 1 1 1 1 1 
1 1 1 1 1 1 1 1 1 
1 1 1 1 1 1 1 1 1 
1 1 1 1 1 1 1 1 1 
1 1 1 1 1 1 1 1 1 
1 1 1 1 1 1 1 1 1 
1 1 1 1 1 1 1 1 1 
1 1 1 1 1 1 1 1 1 
1 1 1 1 1 1 1 1 1 
1 1 1 1 1 1 1 1 1 
1 1 1 1 1 1 1 1 1 
1 1 1 1 1 1 1 1 1 
1 1 1 1 1 1 1 1 1 
1 1 1 1 1 1 1 1 1 
1 1 1 1 1 1 1 1 1 
1 1 1 1 1 1 1 1 1 
1 1 1 1 1 1 1 1 1 
1 1 1 1 1 1 1 1 1 
1 1 1 1 1 1 1 1 1 
1 1 1 1 1 1 1 1 1 
1 1 1 1 1 1 1 1 1 
1 1 1 1 1 1 1 1 1 
1 1 1 1 1 1 1 1 1 
1 1 1 1 1 1 1 1 1 
1 1 1 1 1 1 1 1 1 
1 1 1 1 1 1 1 1 1 
1 1 1 1 1 1 1 1 1 
1 1 1 1 1 1 1 1 1 
1 1 1 1 1 1 1 1 1 
1 1 1 1 1 1 1 1 1 
1 1 1 1 1 1 1 1 1 
1 1 1 1 1 1 1 1 1 
1 1 1 1 1 1 1 1 1 
1 1 1 1 1 1 1 1 1 
1 1 1 1 1 1 1 1 1 
1 1 1 1 1 1 1 1 1 
1 1 1 1 1 1 1 1 1 
1 1 1 1 1 1 1 1 1 
1 1 1 1 1 1 1 1 1 
1 1 1 1 1 1 1 1 1 
1 1 1 1 1 1 1 1 1 
1 1 1 1 1 1 1 1 1 
1 1 1 1 1 1 1 1 1 
1 1 1 1 1 1 1 1 1 
1 1 1 1 1 1 1 1 1 
1 1 1 1 1 1 1 1 1 
1 1 1 1 1 1 1 1 1 
1 1 1 1 1 1 1 1 1 
1 1 1 1 1 1 1 1 1 
1 1 1 1 1 1 1 1 1 
1 1 1 1 1 1 1 1 1 
1 1 1 1 1 1 1 1 1 
1 1 1 1 1 1 1 1 1 
1 1 1 1 1 1 1 1 1 
1 1 1 1 1 1 1 1 1 
1 1 1 1 1 1 1 1 1 
1 1 1 1 1 1 1 1 1 
1 1 1 1 1 1 1 1 1 
1 1 1 1 1 1 1 1 1 
1 1 1 1 1 1 1 1 1 
1 1 1 1 1 1 1 1 1 
1 1 1 1 1 1 1 1 1 
1 1 1 1 1 1 1 1 1 
1 1 1 1 1 1 1 1 1 
1 1 1 1 1 1 1 1 1 
1 1 1 1 1 1 1 1 1 
1 1 1 1 1 1 1 1 1 
1 1 1 1 1 1 1 1 1 
1 1 1 1 1 1 1 1 1 
1 1 1 1 1 1 1 1 1 
1 1 1 1 1 1 1 1 1 
1 1 1 1 1 1 1 1 1 
1 1 1 1 1 1 1 1 1 
1 1 1 1 1 1 1 1 1 
1 1 1 1 1 1 1 1 1 
1 1 1 1 1 1 1 1 1 
1 1 1 1 1 1 1 1 1 
1 1 1 1 1 1 1 1 1 
1 1 1 1 1 1 1 1 1 
1 1 1 1 1 1 1 1 1 
1 1 1 1 1 1 1 1 1 
1 1 1 1 1 1 1 1 1 
1 1 1 1 1 1 1 1 1 
1 1 1 1 1 1 1 1 1 
1 1 1 1 1 1 1 1 1 
1 1 1 1 1 1 1 1 1 
1 1 1 1 1 1 1 1 1 
1 1 1 1 1 1 1 1 1 
1 1 1 1 1 1 1 1 1 
1 1 1 1 1 1 1 1 1 
1 1 
i 3 2000 int
0 0 0 0 0 0 0 0 0 
0 0 0 0 0 0 0 0 0 
0 0 0 0 0 0 0 0 0 
0 0 0 0 0 0 0 0 0 
0 0 0 0 0 0 0 0 0 
0 0 0 0 0 0 0 0 0 
0 0 0 0 0 0 0 0 0 
0 0 0 0 1 0 0 0 0 
0 0 0 0 0 0 0 0 0 
0 0 0 0 0 0 0 0 0 
0 0 0 0 0 0 0 0 0 
0 1 0 0 0 0 0 0 0 
0 0 0 0 0 0 0 0 0 
0 0 0 0 0 0 -1 0 0 
0 0 0 0 0 0 0 0 0 
0 0 0 0 0 0 0 0 0 
0 0 0 0 0 0 0 0 0 
0 0 0 0 0 0 0 0 0 
0 0 0 0 0 0 0 0 0 
0 0 0 0 0 0 0 0 0 
0 0 0 0 0 0 0 0 0 
0 0 0 0 0 0 1 0 0 
0 0 0 0 0 0 0 0 0 
0 0 0 0 0 0 0 0 0 
0 0 0 0 0 0 0 0 0 
0 0 0 0 0 0 0 0 0 
0 0 0 0 0 0 0 0 0 
0 0 0 0 0 0 0 0 0 
0 0 0 0 0 0 0 0 0 
0 0 0 0 0 0 0 0 0 
0 0 0 0 0 0 0 0 0 
0 0 0 0 0 0 0 0 0 
0 0 0 0 0 0 0 0 0 
0 0 0 0 0 0 0 0 0 
0 0 0 0 0 0 0 0 0 
0 0 0 0 0 0 0 0 0 
0 0 0 0 0 0 0 0 0 
0 0 0 0 0 0 0 0 0 
0 0 0 0 0 0 1 0 0 
0 0 0 0 0 0 0 0 0 
0 0 0 0 0 0 0 0 0 
0 0 0 0 0 0 0 0 0 
0 0 0 0 0 0 0 0 0 
0 0 0 0 0 0 0 0 0 
0 0 0 0 0 0 0 0 0 
0 0 0 0 0 0 0 0 0 
0 0 0 0 0 0 0 0 0 
0 0 0 0 0 0 0 0 0 
0 0 0 0 0 0 0 0 0 
0 0 0 0 0 0 0 0 0 
0 0 0 0 0 0 0 0 0 
0 0 0 0 0 0 1 0 0 
0 0 0 0 0 0 0 0 0 
0 0 0 0 0 0 0 0 0 
0 0 0 0 0 0 0 0 0 
0 0 0 0 0 0 0 0 0 
0 0 0 0 0 0 0 0 0 
0 0 0 0 0 0 0 0 0 
0 0 0 0 0 0 0 0 0 
0 0 0 0 0 0 0 0 0 
0 0 0 0 0 0 0 0 0 
0 0 0 0 0 0 0 0 0 
0 0 0 0 0 0 0 0 0 
0 0 0 0 0 0 0 0 0 
0 0 0 0 0 0 0 0 0 
0 0 0 0 0 0 0 0 0 
0 0 0 0 0 0 0 0 0 
0 0 0 0 0 0 0 0 0 
0 0 0 0 0 0 0 0 0 
0 0 0 0 0 0 0 0 0 
0 0 0 0 0 0 0 0 0 
0 0 0 0 0 0 0 0 0 
0 -1 0 0 0 0 0 0 0 
0 0 0 0 0 0 0 0 0 
0 0 0 0 0 0 0 0 0 
0 0 0 0 0 0 0 0 0 
0 0 0 0 0 0 0 0 0 
0 0 0 0 0 0 0 0 0 
0 0 0 0 0 0 0 0 0 
0 0 0 0 0 0 0 0 0 
0 0 0 0 0 0 0 0 0 
0 0 0 0 0 0 0 0 0 
0 0 0 0 0 0 0 0 0 
0 0 0 0 0 0 0 0 0 
0 0 0 0 0 0 0 0 0 
0 0 0 0 0 0 0 0 0 
0 0 0 0 0 0 0 0 0 
0 1 0 0 0 0 0 0 0 
0 0 0 0 0 0 0 0 0 
0 0 0 0 0 0 0 0 0 
0 0 0 0 0 0 0 0 0 
0 0 0 0 0 0 0 0 0 
0 0 0 0 0 0 0 0 0 
0 0 0 0 0 0 0 0 0 
0 0 0 0 0 0 0 0 0 
0 0 0 0 0 0 0 0 0 
0 0 0 0 0 0 0 0 0 
0 0 0 0 0 0 0 0 0 
0 0 0 0 0 0 0 0 0 
0 0 0 0 0 0 0 0 0 
0 0 0 0 1 0 0 0 0 
-1 0 0 -1 0 0 0 0 0 
0 0 0 0 0 0 0 0 0 
0 0 0 0 0 0 0 0 0 
0 0 0 0 0 0 0 0 0 
0 0 0 0 0 0 0 0 0 
0 0 0 0 0 0 0 0 0 
-1 0 0 0 0 0 0 0 0 
0 0 0 0 0 0 0 0 0 
0 0 0 0 0 0 0 0 0 
0 0 0 0 0 0 0 0 0 
0 0 0 0 0 0 1 0 0 
0 0 0 0 0 0 0 0 0 
0 0 0 0 0 0 0 0 0 
0 0 0 0 0 0 0 0 0 
0 0 0 0 0 0 0 0 0 
0 0 0 0 0 0 0 0 0 
0 0 0 0 0 0 0 0 0 
0 0 0 0 0 0 0 0 0 
0 0 0 0 0 0 0 0 0 
0 0 0 0 0 0 0 0 0 
0 0 0 0 0 0 0 0 0 
0 0 0 0 0 0 0 0 0 
0 0 0 0 0 0 0 0 0 
0 0 0 0 0 0 0 0 0 
0 0 0 0 0 0 0 0 0 
0 0 0 0 0 0 0 0 0 
0 0 0 0 0 0 0 0 0 
0 0 0 0 0 0 0 0 0 
0 0 0 0 0 0 0 0 0 
0 0 0 0 0 0 1 0 0 
0 0 0 0 0 0 0 0 0 
0 0 0 0 0 0 0 0 0 
0 0 0 0 0 0 0 0 0 
0 0 0 0 0 0 0 0 0 
0 0 0 0 0 0 0 0 0 
0 0 0 0 0 0 0 0 0 
0 0 0 0 0 0 0 0 0 
0 0 0 0 0 0 0 0 0 
0 0 0 0 0 0 0 0 0 
0 0 0 0 0 0 0 0 0 
0 0 0 0 0 0 0 0 0 
0 0 0 0 0 0 0 0 0 
0 0 0 0 0 0 0 0 0 
0 0 0 0 0 0 0 0 0 
0 0 0 0 0 0 0 0 0 
0 0 0 0 0 0 0 0 0 
0 0 0 0 0 0 0 0 0 
0 0 0 0 0 0 0 0 0 
0 0 0 0 0 0 0 0 0 
0 0 0 0 0 0 0 0 0 
0 0 0 0 0 0 0 0 0 
0 0 0 0 0 0 0 0 0 
0 0 0 0 0 0 0 0 0 
0 0 0 0 0 0 0 0 0 
0 0 0 0 0 0 0 0 0 
0 0 0 0 0 0 0 0 0 
0 0 0 0 0 0 0 0 0 
0 0 0 0 0 0 0 0 0 
0 0 0 0 0 0 0 0 0 
0 0 0 0 0 0 0 0 0 
0 0 0 0 0 0 0 0 0 
0 0 0 0 0 0 0 0 0 
0 0 0 0 0 0 0 0 0 
0 0 0 0 0 0 0 0 0 
0 0 0 0 0 0 0 0 0 
0 0 0 0 0 0 0 0 0 
0 0 0 0 0 0 0 0 0 
0 0 0 0 0 0 0 0 0 
0 0 0 0 0 0 0 0 0 
0 0 0 0 0 0 0 0 0 
0 0 0 0 0 0 0 0 0 
0 0 0 0 0 0 0 -1 0 
0 0 0 0 0 0 0 0 0 
0 0 0 0 0 0 0 0 0 
0 0 0 0 0 0 0 0 0 
0 0 0 0 0 0 0 0 0 
0 0 0 0 0 0 0 0 0 
0 -1 0 0 0 0 0 0 0 
0 0 0 0 0 0 0 0 0 
0 0 0 0 0 0 0 0 0 
0 0 0 0 0 0 0 0 0 
0 0 0 0 0 0 0 0 0 
0 0 0 0 -1 0 0 0 0 
0 0 0 0 0 0 0 0 0 
0 0 0 0 0 0 0 0 0 
0 0 0 0 0 0 0 0 0 
0 0 0 0 0 0 0 0 0 
0 0 0 0 0 0 0 0 0 
0 0 0 0 0 0 0 0 0 
0 0 0 0 0 0 0 0 0 
0 0 0 0 0 0 0 0 0 
0 0 0 0 0 0 -1 0 0 
0 0 0 0 0 0 0 0 0 
0 0 0 0 0 0 0 0 0 
0 0 0 0 0 0 0 0 0 
0 0 0 0 0 0 0 0 0 
0 0 0 0 0 0 0 0 0 
0 0 0 0 0 0 0 0 0 
0 0 0 0 0 0 0 0 0 
0 0 0 0 0 0 0 0 0 
0 0 0 0 0 0 0 0 0 
0 0 0 0 0 0 0 0 0 
0 0 0 0 0 0 0 0 0 
0 0 0 0 0 0 0 0 0 
0 0 0 0 0 0 0 0 0 
0 0 0 0 0 0 0 0 0 
0 0 0 0 0 0 0 1 0 
0 0 0 0 0 0 0 0 0 
0 0 0 0 0 0 0 0 0 
0 0 0 0 0 0 0 0 0 
0 0 0 0 1 0 0 0 0 
0 1 0 0 0 0 0 0 0 
0 0 0 0 0 0 0 0 0 
0 0 0 0 0 0 0 0 0 
0 0 0 0 0 0 0 0 0 
0 1 0 0 0 0 0 0 0 
0 0 0 0 0 0 0 0 0 
0 0 0 0 0 0 0 0 0 
0 0 0 0 0 0 0 0 0 
0 0 0 0 0 0 0 0 0 
0 0 0 0 0 0 0 0 0 
0 0 0 0 0 0 0 0 0 
0 0 0 0 0 0 0 0 0 
0 0 0 0 0 0 0 0 0 
0 0 0 0 0 0 0 0 0 
0 0 0 0 0 0 0 0 0 
0 0 0 0 0 0 0 0 0 
0 0 0 0 0 0 0 0 0 
0 0 0 0 0 0 0 0 0 
0 0 0 0 0 0 0 0 0 
0 0 0 0 0 0 0 0 0 
0 0 0 0 0 0 0 0 0 
0 0 0 0 0 0 0 0 0 
0 0 0 0 0 0 0 0 0 
0 0 0 0 0 0 0 0 0 
0 0 0 0 0 0 0 0 0 
0 0 0 0 0 0 0 0 0 
0 0 0 0 0 0 0 0 0 
0 0 0 0 0 0 0 0 0 
0 0 0 0 0 0 0 0 0 
0 0 0 0 0 0 0 0 0 
0 0 0 0 0 0 0 0 0 
0 0 0 0 0 0 0 0 0 
0 0 0 0 0 0 0 0 0 
0 0 0 0 0 0 0 0 0 
0 0 0 0 0 0 0 0 0 
0 0 0 0 0 0 0 0 0 
0 0 0 0 0 0 0 0 0 
0 0 0 0 0 0 0 0 0 
0 0 0 0 0 0 0 0 0 
0 0 0 0 0 0 0 0 0 
0 0 0 -1 0 0 0 0 0 
0 0 0 0 0 0 0 0 0 
0 0 0 0 0 0 0 0 0 
0 0 0 0 0 0 0 0 0 
0 0 0 0 0 0 0 0 0 
0 0 0 0 0 0 0 0 0 
0 0 0 0 0 0 0 0 0 
0 0 0 0 0 0 0 0 0 
1 0 0 0 0 0 0 0 0 
0 0 0 0 0 0 0 0 0 
0 0 0 0 0 0 0 0 0 
0 0 0 0 0 0 0 0 0 
0 0 0 0 0 0 0 0 0 
0 0 0 0 0 0 0 0 0 
0 0 0 0 0 0 0 0 0 
0 0 0 0 0 0 0 0 0 
0 0 0 0 0 0 0 0 0 
0 0 0 0 0 0 0 0 0 
0 0 0 0 0 0 0 0 0 
0 0 0 0 0 0 0 0 0 
0 0 0 0 0 0 0 0 0 
0 0 0 0 0 0 0 0 0 
0 0 0 0 0 0 0 0 0 
0 0 0 0 0 0 0 -1 0 
0 -1 0 0 0 0 0 0 0 
0 0 0 0 0 0 0 0 0 
0 0 0 0 0 0 0 0 0 
0 0 0 0 0 0 0 0 0 
0 0 0 0 0 0 0 0 0 
0 0 0 0 0 0 0 0 0 
0 0 0 0 0 0 0 0 0 
0 0 0 0 0 0 0 0 0 
0 0 0 0 0 0 0 0 0 
0 0 0 0 0 0 0 0 0 
0 0 0 0 0 0 0 0 0 
0 0 0 0 0 0 0 0 0 
0 0 0 0 0 0 0 0 0 
0 0 0 0 0 0 0 0 0 
0 0 0 0 0 0 0 0 0 
0 0 0 0 0 0 0 0 0 
0 0 0 0 0 0 0 0 0 
0 -1 0 0 0 0 0 0 0 
0 0 0 0 0 0 0 0 0 
0 0 0 0 0 0 0 0 0 
-1 0 0 -1 0 0 0 0 0 
0 0 0 0 0 0 -1 0 0 
0 0 0 0 0 0 0 0 0 
0 0 0 0 0 0 0 0 0 
0 0 0 0 0 0 0 0 0 
0 0 0 0 0 0 0 0 0 
0 0 0 0 0 0 0 0 0 
0 0 0 0 0 0 0 0 0 
0 0 0 0 0 0 0 0 0 
0 0 0 0 0 0 0 0 0 
0 0 0 0 0 0 0 0 0 
0 0 0 0 0 0 0 1 0 
0 0 0 0 0 0 0 0 0 
0 0 0 0 0 0 0 0 0 
0 0 0 0 0 0 0 0 0 
0 0 0 0 0 0 0 0 0 
0 0 0 0 0 0 0 0 0 
0 0 0 0 0 0 0 0 0 
0 0 0 0 0 0 0 0 0 
0 0 0 0 0 0 0 0 0 
0 0 0 0 0 0 0 0 0 
0 0 0 0 0 0 0 0 0 
0 0 0 0 0 0 0 0 0 
0 0 0 0 0 0 0 0 0 
0 0 0 0 0 0 0 0 0 
0 0 0 0 0 0 0 0 0 
0 0 0 0 0 0 0 0 0 
0 0 0 0 0 0 0 0 0 
0 0 0 0 0 0 0 0 0 
0 0 0 0 0 0 0 0 0 
0 0 0 0 0 0 0 0 0 
0 0 0 0 0 0 0 0 0 
0 0 0 0 0 0 0 0 0 
0 0 0 0 0 0 0 0 0 
0 0 0 0 0 0 0 0 0 
0 0 0 0 0 0 0 0 0 
0 0 0 -1 0 0 0 0 0 
0 0 0 0 0 0 0 0 0 
0 0 0 0 0 0 0 0 0 
0 0 0 0 0 0 0 0 0 
0 0 0 0 0 0 0 0 0 
0 0 0 0 0 0 0 0 0 
0 0 0 0 0 0 0 0 0 
0 0 0 0 0 0 0 0 0 
0 0 0 0 0 0 0 0 0 
0 0 0 0 0 0 0 0 0 
0 0 0 0 0 0 0 0 0 
0 0 0 0 0 0 0 0 0 
0 0 0 0 0 0 0 0 0 