# vtk DataFile Version 4.0
Generated by LIGGGHTS
ASCII
DATASET POLYDATA
POINTS 2000 float
-87.6278 -92.8959 9.99347 -95.0451 -112.416 9.99973 -106.177 -130.673 9.99738 
-117.163 -113.964 9.99809 -127.339 -131.297 9.99973 -107.284 -96.5761 9.99933 
-116.436 -126.301 26.5966 -109.205 -107.648 27.2233 -132.903 -115.289 22.262 
-118.697 -90.1723 25.122 -92.3815 -117.836 30.8466 -56.4408 -101.945 9.99164 
-30.3735 -122.655 9.9995 -75.3699 -108.696 9.99879 -66.0767 -138.879 9.99726 
-79.2559 -126.415 18.4169 -37.3767 -104.705 15.3572 -60.1903 -120.689 15.8718 
-46.6066 -134.328 10.4343 -58.0582 -140.196 28.2708 -38.1218 -138.364 28.0896 
-33.6205 -85.311 21.282 -50.4302 -122.393 33.2476 -2.70792 -104.521 9.99899 
1.99384 -138.959 9.99677 17.3619 -101.901 9.99905 -20.5056 -95.3992 9.99937 
9.45547 -120.396 10.0002 -10.3819 -123.24 9.99242 8.40411 -130.892 27.1329 
18.4283 -90.5727 26.4461 -1.35187 -89.8971 23.5736 22.4776 -113.606 25.3864 
25.1358 -131.161 16.1811 44.3265 -96.776 22.445 55.3224 -127.728 9.99521 
41.0561 -112.085 9.99848 60.0944 -105.959 9.99964 41.6296 -118.699 28.8626 
78.2744 -97.6232 9.99971 138.561 -96.8847 17.5628 117.761 -127.981 9.99372 
132.566 -114.539 9.99557 99.5294 -92.2502 9.99938 93.4712 -124.532 9.99973 
119.304 -94.4119 12.7059 136.777 -130.954 20.6119 107.729 -110.496 9.99972 
93.9036 -101.388 26.8764 130.877 -110.897 29.5835 106.107 -124.247 25.8089 
119.521 -139.215 26.4369 112.933 -97.2691 31.4481 -130.2 -83.9476 9.99644 
-94.785 -33.4197 13.8899 -112.45 -74.7341 9.99948 -121.408 -56.6438 9.99973 
-113.841 -38.0779 9.99778 -88.6059 -72.8986 9.99963 -101.802 -58.2061 13.6586 
-99.7653 -83.3025 22.9318 -131.857 -68.3625 22.4192 -132.622 -48.4804 24.4378 
-114.347 -42.1804 29.5633 -91.8589 -47.0899 28.1916 -138.757 -84.2802 32.3677 
-113.627 -63.3527 28.9444 -138.615 -35.9941 9.99901 -94.1217 -66.539 32.2651 
-84.0148 -49.8283 9.99943 -31.005 -65.2456 9.99973 -49.9741 -83.018 9.99954 
-56.6555 -64.1674 9.99971 -73.9159 -63.8304 20.0969 -57.5255 -32.5549 24.9953 
-28.1429 -45.0455 9.99973 -18.5198 -53.4103 25.4395 11.7867 -55.7241 9.99933 
-1.84311 -41.0888 9.99939 4.2777 -76.3076 9.99926 25.902 -81.9918 9.99931 
-7.76453 -60.1908 10.0013 -13.7813 -32.451 23.522 -15.9298 -77.1459 16.7691 
24.6296 -65.749 21.5979 7.74992 -73.079 29.4283 53.6229 -83.8024 9.99973 
71.7767 -75.3665 9.99964 40.4023 -77.406 25.5092 44.7435 -65.5519 9.99876 
51.4232 -42.6763 9.99973 72.9913 -55.4012 9.99973 31.2591 -50.7711 9.99388 
71.8113 -40.5199 23.3196 40.5305 -54.9983 27.2167 59.2184 -61.4159 23.339 
53.8581 -40.9157 32.1204 86.3843 -82.6064 21.5837 86.7254 -40.2994 9.99855 
90.2077 -66.4645 9.9946 132.312 -79.4593 9.99813 118.887 -58.5226 9.99964 
107.911 -74.6419 14.4366 115.065 -38.8898 9.99911 138.86 -57.4761 9.99973 
129.934 -44.3736 22.1976 123.524 -75.1536 27.4379 -119.873 6.66989 9.99775 
-103.972 -6.88441 9.99978 -121.196 -18.9899 10.0002 -132.013 -3.64868 22.0833 
-108.711 -13.6167 28.227 -89.4406 -18.854 29.3127 -111.043 15.6396 25.5378 
-84.7934 -16.5375 9.99925 -129.781 22.5856 24.7875 -105.528 26.9616 9.99966 
-125.191 -24.9377 28.6732 -45.6284 5.40482 9.99512 -28.5191 -4.95122 9.99979 
-76.0944 13.8671 24.9947 -42.1486 -1.31188 28.5029 -39.4508 24.6205 9.99973 
-28.121 21.8812 26.9764 -26.4022 -24.8439 9.99973 22.6879 -25.0012 32.0613 
-4.22419 -21.2325 10.0017 -20.8662 14.1904 9.99969 -8.77623 -1.75893 9.99843 
2.49212 2.89577 25.8503 8.20294 13.6389 9.9899 21.3869 9.43816 25.9823 
27.1704 19.9656 9.99835 64.4059 -24.2106 9.99973 37.584 2.68996 9.99973 
51.3812 17.1918 9.99973 82.1038 -14.3153 9.99549 62.4991 -0.308439 9.99584 
71.3848 18.2436 9.9985 37.8782 23.4976 26.5123 61.8399 19.5303 27.5248 
39.6971 5.45042 34.932 140.228 -16.2459 9.99952 87.4992 13.3461 20.7835 
100.194 -25.5167 9.99883 138.144 7.00916 9.99572 103.829 18.01 9.99671 
96.7698 -0.716299 9.99964 139.547 27.1336 9.99874 122.451 -21.8002 17.3054 
119.685 -3.39193 9.99322 106.011 -12.079 23.6195 -89.9226 65.51 9.99743 
-111.653 60.1257 9.99963 -127.436 40.3411 9.99784 -136.582 79.1082 30.0946 
-129.505 63.6941 18.2791 -98.401 45.4258 12.8755 -115.257 41.796 25.7904 
-130.764 81.8556 9.99961 -140.739 39.7956 25.4692 -78.6099 45.3904 9.99859 
-36.1723 69.5233 24.993 -67.2383 63.4589 9.99908 -54.3746 38.2441 9.99973 
-64.6437 49.204 23.7953 -72.2029 74.97 25.5814 -83.8848 47.988 29.1136 
20.0995 81.6356 9.99879 -5.23627 62.9584 9.99944 -24.6509 39.1759 9.99973 
8.59544 70.7187 22.1834 21.2245 55.2112 9.99914 1.9413 38.4148 33.8952 
-6.67625 82.9053 9.99868 26.4415 80.4991 28.9311 31.6617 60.0485 26.3584 
41.0397 34.3672 9.99323 64.2585 36.9399 9.99413 63.0362 62.2487 9.99973 
38.8262 74.0692 9.99973 80.8258 48.8701 9.99908 77.4436 32.0244 26.9104 
52.4824 37.1498 26.1492 43.6802 54.5922 9.99973 81.3942 70.2028 9.99973 
68.3953 49.814 25.6372 50.4993 56.206 31.8672 120.351 32.7424 9.99361 
87.9605 30.1829 9.99935 119.773 59.3594 9.99351 105.145 72.9944 9.99885 
103.86 44.058 9.99945 138.423 52.1451 9.99786 94.9511 58.9508 19.9407 
118.961 46.197 25.0235 92.1732 83.1677 21.3188 116.059 69.8603 26.5974 
132.922 73.354 15.579 97.0663 35.8862 26.9418 -89.3554 140.515 9.99832 
-111.894 88.4822 9.9952 -114.063 120.704 24.9954 -139.132 96.5611 20.6625 
-87.54 103.482 9.99909 -77.1271 136.555 25.3156 -76.7346 86.6541 9.99825 
-57.6753 92.713 9.99922 -44.9301 108.125 9.99986 -78.2496 121.826 9.99973 
-48.63 127.78 9.99962 -31.7753 104.245 24.8171 -29.5397 136.589 9.99973 
-33.9661 124.093 27.2054 -26.8886 116.755 9.99925 -16.333 137.951 25.0739 
19.9489 131.143 9.99801 -9.53822 126.702 9.99874 -1.9918 108.163 9.99973 
7.10939 90.6629 22.2357 18.194 110.564 9.99973 5.0355 128.675 23.5737 
-15.2559 116.574 26.2687 26.3406 101.882 27.5231 25.7781 132.804 29.0548 
-13.2638 97.0277 22.5332 7.91399 109.565 28.7205 34.5025 96.7632 9.99688 
67.1631 135.127 9.99554 37.5898 117.273 9.99309 57.7443 117.144 9.99973 
40.9252 140.237 9.99847 80.462 119.704 9.99617 68.6694 122.982 25.8074 
51.0637 132.459 25.3815 59.9012 89.892 33.0719 38.6144 117.494 29.9569 
87.9964 138.231 9.99973 126.713 91.5273 9.99901 85.9915 100.381 9.99973 
117.222 109.13 9.99335 139.391 134.301 9.99694 111.066 135.159 9.99784 
105.412 92.9919 9.99877 137.378 112.565 9.99935 100.11 118.823 13.6173 
124.937 124.669 19.9326 88.3765 123.258 29.1921 103.01 135.547 35.0893 
-134.751 -103.065 37.9822 -102.836 -131.949 40.4063 -128.122 -125.587 42.8094 
-111.049 -114.865 46.781 -87.6227 -122.807 49.6245 -87.138 -137.569 63.1102 
-104.01 -127.034 61.0079 -124.006 -127.239 62.3104 -131.63 -111.224 71.5509 
-92.5532 -108.306 62.4838 -128.224 -99.3261 87.2801 -140.273 -114.066 53.7435 
-73.0798 -128.822 37.2849 -70.5348 -92.2643 40.5208 -43.4951 -99.2312 61.622 
-70.4948 -123.087 59.9469 -59.4399 -89.8175 73.637 -52.1405 -119.343 52.9392 
-43.3956 -137.011 49.3533 -28.3521 -101.902 74.4122 -59.1809 -109.255 68.9355 
-54.2833 -128.071 73.6234 -35.9179 -120.283 72.2007 -80.7322 -96.5663 73.7176 
-73.285 -133.373 76.9105 -63.1699 -139.53 50.9637 -67.0256 -103.617 86.4573 
-38.2918 -139.485 77.3721 -17.8609 -113.963 42.8924 15.8532 -104.609 41.9741 
13.209 -125.84 53.7826 3.63436 -119.157 70.021 -3.49569 -139.515 62.0086 
-10.9516 -93.0445 70.0801 24.8056 -131.622 38.5483 8.94594 -94.0593 71.8036 
-14.1486 -127.986 74.7398 22.9035 -94.1314 57.4816 8.49063 -136.923 77.819 
20.0434 -109.534 77.9121 25.8603 -128.119 73.2665 27.6627 -113.412 59.8341 
26.9621 -91.142 81.7236 4.47809 -87.0242 43.386 74.0628 -127.288 39.5457 
40.3596 -123.589 48.2122 54.593 -113.842 65.3345 35.7441 -102.509 39.5758 
81.3615 -112.209 70.2704 41.8879 -136.559 63.355 39.7592 -101.36 70.244 
60.1724 -134.708 71.2412 44.2812 -127.526 81.0309 79.5344 -131.528 75.1027 
104.519 -117.48 53.7271 135.873 -133.94 40.3656 122.787 -111.506 47.8586 
116.581 -130.118 43.9945 129.617 -93.099 44.0524 102.892 -137.219 56.7247 
94.1426 -86.144 39.8208 110.006 -98.3656 55.8447 90.1977 -101.077 56.2035 
121.416 -132.732 63.2171 132.291 -98.9886 62.9769 97.8377 -124.432 71.2488 
139.586 -128.005 70.1088 98.3093 -85.3757 65.5601 132.774 -108.966 80.7862 
113.727 -100.478 81.8195 118.643 -113.359 67.333 121.972 -126.36 82.1582 
93.844 -102.523 82.5328 -115.951 -82.496 59.1556 -125.083 -53.1788 42.3598 
-85.2511 -65.329 57.3347 -101.616 -34.6466 61.2807 -129.421 -52.9184 72.1395 
-94.5091 -63.7016 79.4537 -92.1597 -84.0831 84.7761 -77.6848 -76.8956 71.7884 
-77.4 -57.7928 38.8895 -67.9965 -43.1968 56.6487 -64.7239 -62.8334 58.5458 
-51.3455 -42.0225 67.6648 -76.8029 -56.7035 73.2761 -58.3257 -67.8049 76.8293 
-30.1017 -67.3163 56.0796 -69.9859 -38.0537 75.8728 -30.872 -36.8014 73.2023 
-44.8909 -81.4221 84.4918 -46.2549 -52.9673 83.6131 -41.3963 -29.2854 55.8844 
-27.4721 -35.0715 42.7454 1.99242 -55.2005 36.2953 -7.83766 -38.8068 42.1745 
18.2874 -60.7072 66.7767 -13.3608 -37.0509 61.4311 4.3388 -32.0729 81.5989 
4.77104 -28.6236 61.9059 28.9961 -82.348 41.2998 46.957 -38.0356 53.6495 
61.9822 -80.6401 52.8725 66.6898 -46.5731 46.3778 79.7516 -49.1477 67.8815 
59.9751 -47.9272 65.1662 67.8661 -41.4377 82.359 47.2261 -46.6124 80.5178 
56.8431 -28.7601 69.9414 58.781 -62.7753 82.7941 77.777 -68.5957 85.078 
139.995 -33.3416 35.5029 91.9483 -82.6878 84.33 140.776 -82.4005 83.3687 
100.702 -51.7645 39.9673 117.141 -79.9798 52.5501 136.193 -54.7563 38.104 
134.819 -72.8705 46.4698 110.453 -69.7398 68.3701 131.956 -78.3488 65.8821 
90.0785 -67.5456 69.3448 129.733 -59.6744 72.6863 119.903 -81.4585 81.5358 
93.6945 -35.8351 73.2046 -99.3953 -4.60416 43.4571 -135.041 -10.6593 40.5654 
-109.65 22.2912 44.3474 -119.216 1.17806 36.676 -112.109 2.48935 57.1691 
-110.366 20.7626 65.1094 -93.3265 17.204 55.2703 -132.104 2.57461 56.7287 
-105.56 5.51753 77.1248 -126.805 13.0813 73.5186 -91.7024 -1.1305 63.0907 
-120.167 -7.71759 73.7496 -87.9038 8.46941 86.2575 -102.957 -11.422 87.4292 
-84.6366 -10.0758 79.5242 -77.8017 -13.7387 46.4351 -43.9208 17.2817 38.3428 
-68.3221 0.634441 56.6087 -60.327 18.9691 55.8169 -49.0086 6.42368 66.5145 
[...]
POINT_DATA 2000
FIELD FieldData 7
id 1 2000 int
41 77 196 230 308 107 205 282 106 
55 438 53 85 259 296 439 157 275 
424 371 40 273 71 185 265 297 299 
410 440 172 95 351 336 437 49 33 
376 408 216 164 380 59 139 141 29 
30 379 335 434 394 283 247 47 411 
36 142 338 414 456 32 161 261 453 
80 276 381 245 114 425 171 112 231 
246 215 10 143 211 115 208 232 365 
48 243 45 167 75 397 300 149 113 
174 222 318 108 354 285 317 201 200 
117 252 262 286 314 395 334 274 239 
342 66 147 255 443 309 413 278 238 
405 50 345 20 220 187 46 225 11 
212 69 37 358 390 416 347 359 122 
123 197 264 430 315 204 219 298 256 
135 346 54 97 178 213 271 404 84 
199 320 400 234 450 152 444 99 362 
8 279 321 250 384 378 195 240 399 
186 111 12 169 73 133 131 132 389 
419 449 229 369 375 102 72 374 330 
253 34 154 221 266 173 352 366 58 
329 206 301 138 6 284 179 328 184 
224 168 311 455 295 385 90 88 78 
62 302 339 79 83 218 426 127 128 
294 433 341 110 227 396 421 429 251 
242 18 423 344 96 160 209 288 367 
370 452 116 198 203 38 244 343 442 
166 304 361 401 448 1864 1025 1285 272 
223 9 82 130 350 119 409 290 383 
1007 1904 1249 1749 292 1878 1893 2 241 
156 64 76 210 263 1855 1873 364 1584 
1941 1011 418 327 293 22 144 165 382 
323 332 42 1715 1811 1945 137 51 125 
445 81 155 249 436 74 1428 1281 1934 
720 1920 856 700 1308 1665 1450 5 331 
388 26 307 552 1551 319 65 163 191 
236 1719 1793 23 1676 1730 903 642 415 
422 417 281 28 226 1366 402 39 392 
14 44 189 306 931 1603 118 89 1953 
183 997 1922 25 86 313 398 180 188 
1317 1870 1643 581 43 412 129 322 761 
1508 303 326 764 1565 176 1155 1520 1143 
1819 151 162 68 158 214 257 121 368 
175 427 353 1211 864 874 1540 4 217 
357 202 94 190 349 120 1159 570 746 
104 1001 268 260 7 100 333 432 457 
70 63 1767 622 1389 454 153 386 291 
15 277 19 441 1015 1407 839 1908 1112 
3 254 57 228 393 145 177 420 1046 
1600 1399 909 340 1956 712 1975 1460 93 
1 270 387 109 170 181 140 312 91 
1163 1404 372 61 67 267 60 316 87 
1652 590 583 207 709 280 923 373 235 
16 194 148 789 1080 1406 431 1082 1417 
377 182 310 103 233 337 35 258 356 
24 159 435 1430 1367 1124 1820 1194 852 
105 360 403 237 287 363 92 348 21 
1398 1517 1852 1685 324 1191 27 428 391 
56 98 1807 1087 1716 1200 407 355 1283 
289 446 101 192 13 124 1869 1400 1589 
701 674 1951 193 269 146 136 150 1883 
1995 771 817 1501 1706 1836 949 1815 1773 
1854 52 305 325 406 126 17 31 447 
134 248 967 1140 1618 1447 741 1424 968 
1761 1068 480 1694 1293 1726 784 954 1929 
1771 814 1334 673 518 1938 1195 484 1382 
1176 1178 1017 1220 1021 541 1173 1999 1170 
1982 948 1601 1452 1896 1534 1331 1838 668 
907 520 952 1262 1252 1865 1539 1071 810 
1304 1712 1337 553 1687 651 548 951 1634 
1050 1156 1542 654 1128 1988 1409 462 1105 
1189 1728 1757 1051 1474 838 1842 1561 1649 
562 1537 599 661 911 914 1147 1149 1459 
866 1829 479 753 946 1845 974 486 1527 
1840 752 573 1427 845 540 1206 1275 1683 
1488 1656 1543 718 1117 1342 1678 1781 489 
878 995 1045 1171 1578 1013 739 1994 1077 
1866 833 889 626 1586 875 1130 621 906 
1284 1213 757 793 1894 1421 533 1725 985 
1566 640 1874 1203 1861 602 652 1365 644 
1225 1234 1415 779 862 1373 666 1167 960 
723 912 1042 1328 1673 806 495 1729 1480 
1444 521 574 1799 854 658 1442 842 861 
1419 1034 1628 1099 1736 1738 1129 1465 1324 
915 1756 807 1677 532 754 1063 1190 1496 
1947 1850 628 1453 722 1270 580 1031 1696 
1023 1066 1718 1563 1881 698 799 1144 1554 
1813 1208 938 451 466 1340 1831 1271 1745 
1401 1391 1572 467 471 970 1937 594 1385 
1912 1675 888 1119 1369 1602 464 1579 1177 
1341 1093 1102 474 1468 1499 1769 506 1533 
643 1412 1595 1928 1414 1890 1959 608 1570 
1362 470 597 1679 1172 1074 919 798 1258 
1529 1720 1743 965 975 1803 1884 841 656 
1416 1481 892 1040 1791 1108 1653 566 853 
564 1490 492 1647 1620 1261 1052 1577 1458 
837 934 1475 1682 1606 660 729 962 1960 
624 1470 1241 1608 664 1131 1903 1326 966 
1638 1858 1441 1477 1636 759 1784 1070 1825 
1255 1303 797 513 1355 803 805 893 925 
728 1438 1092 936 964 1433 848 1931 1891 
1859 1830 1610 535 1837 1267 1889 469 1734 
1887 531 1768 1268 1591 537 1201 1979 1153 
1525 885 1879 1073 1626 1184 1552 1892 1054 
1684 588 1919 991 488 1216 749 981 1037 
473 604 1503 1822 671 630 876 1291 1965 
1461 508 1229 1231 1548 1844 1098 461 475 
832 1545 1125 1104 2000 1387 1360 551 1165 
697 887 1827 522 1667 1263 696 990 1702 
1359 1804 1906 565 992 1058 1911 1422 775 
459 687 1169 1662 944 1633 801 1483 1055 
820 675 1209 1962 781 1614 1089 1752 835 
670 1462 1576 1980 1101 1780 1060 1135 1120 
969 1978 1582 1361 1487 1094 487 1223 1121 
751 1205 1059 1473 1823 667 850 987 972 
1661 1352 1663 1974 589 616 496 1916 1254 
1932 986 1860 539 886 1936 1118 1084 1930 
618 686 1166 1711 730 1026 1446 763 530 
1018 1332 1772 1004 1835 1616 1935 601 493 
755 692 614 758 1343 1564 1796 1287 740 
1966 515 1495 865 1309 896 1532 1300 1550 
1368 1222 1187 788 498 809 894 935 1740 
916 1788 1632 1573 770 1507 1035 1264 705 
1100 1491 1558 528 1036 1076 1467 1397 632 
1707 830 1310 1622 1834 745 961 901 1197 
1333 1569 1282 1494 1846 1062 575 1064 1269 
1504 994 688 1150 607 999 1126 1318 569 
1524 922 682 1770 645 1049 1701 1863 924 
1312 1425 1948 1917 538 953 1214 1114 895 
1613 732 613 1575 1783 1923 777 725 713 
1056 511 1925 904 623 1775 1466 559 1910 
523 1048 1371 503 1918 600 1138 1849 733 
1109 1789 1963 802 1192 1247 1276 1957 1228 
1336 738 1867 1972 525 557 1250 627 641 
572 655 790 1722 1764 1732 1856 472 1204 
1708 1219 1944 1809 1798 1041 1952 561 1078 
1196 699 1808 1741 1134 1043 491 1418 942 
1313 1992 1549 1083 1555 1175 710 1629 825 
1420 800 1455 1897 1260 567 1356 1818 1370 
1810 1290 648 1505 1029 478 1354 647 1375 
1053 1024 1964 1704 1942 1432 1590 1802 1871 
1760 1440 547 831 1376 502 1344 1596 1983 
1961 1069 678 998 1735 1670 984 1383 1379 
1514 545 920 988 1358 1047 1500 1489 1492 
1666 1226 646 1724 818 959 1245 1664 1122 
794 1295 1557 1160 499 1607 704 769 595 
1650 1991 1181 1754 529 1585 1009 1237 736 
685 787 1357 1645 1790 1251 1350 1434 1088 
1235 1547 1828 1853 596 1993 483 1090 822 
519 1139 1660 509 1482 1939 708 1814 1571 
1672 1598 1246 1067 1030 1377 1695 689 1973 
1439 586 1242 1289 526 1674 1469 1061 1604 
1006 679 681 649 1107 1668 1476 1621 867 
1839 742 868 796 1210 869 1327 1833 485 
1085 1546 1763 620 476 611 871 774 917 
1297 1623 650 1901 1454 1792 1394 902 1805 
1699 1877 510 1457 1705 603 1142 1739 680 
1345 1445 780 1568 918 870 1116 1512 743 
1179 1513 1152 703 955 468 1431 1392 1915 
693 1277 482 765 1778 945 971 1232 1876 
1113 1133 1516 1273 1968 1642 1703 829 1522 
1907 1086 1832 908 1493 993 1857 546 1363 
1065 1958 1307 1426 1151 571 1146 1305 695 
1174 1559 1940 750 819 1511 1841 558 1224 
1396 1746 1744 1977 836 1640 748 1348 1106 
760 1556 631 1594 1976 1502 1882 1755 1010 
1593 1581 677 1619 1530 1515 1617 1615 1039 
1742 910 881 1969 929 1448 612 744 1580 
1000 827 1926 978 1888 534 795 657 1353 
1821 1429 1812 579 1646 1921 851 1123 694 
824 1286 1510 555 1456 617 1519 549 1136 
1541 563 578 762 1240 1311 863 1985 1700 
1574 1338 1801 690 1185 1875 1753 767 1885 
1762 1148 1390 956 1339 1641 1967 1028 1899 
517 1137 939 1464 1987 1868 1954 615 973 
463 1079 731 1230 860 1280 1378 1627 1713 
776 1905 1091 950 1198 847 858 737 941 
1782 1322 1132 1288 785 921 1016 1669 1909 
1717 813 1075 1737 481 958 927 873 1330 
1193 1692 1265 1072 592 928 1095 1408 1611 
899 1274 1996 1012 1472 577 505 1374 1886 
724 1306 1168 1509 524 1597 1182 1721 1014 
1393 1008 1950 1315 1759 653 1949 1162 1022 
1637 1239 1723 1955 637 812 1862 1236 1544 
554 634 976 560 857 1278 1795 1800 1588 
977 926 1329 1227 1335 1970 840 1697 1787 
1321 591 576 1521 1592 1847 1851 1221 1141 
1212 1583 1671 1553 1233 719 811 747 1005 
1302 1411 584 663 1256 662 846 1215 1691 
804 1158 707 1238 1044 843 1654 1380 1587 
859 1686 715 514 1057 1325 772 1531 1630 
1794 1266 1651 516 815 855 1032 1680 1777 
890 773 1635 1164 1299 933 702 808 1690 
963 1279 1436 672 568 1817 536 1364 1451 
1003 786 1110 947 1528 542 605 1347 1301 
1927 880 1560 1161 937 500 507 1898 1259 
1747 1824 1538 1316 717 1423 816 766 556 
716 879 1111 721 898 821 877 1727 826 
1388 900 1449 1751 756 1924 1506 1435 735 
1183 1518 1478 1826 1372 1127 587 980 1207 
665 1298 1933 1097 1689 1497 1797 1253 1154 
905 1990 1880 891 1776 834 512 1693 1395 
1027 1848 629 1405 1486 1320 734 544 639 
1351 1188 669 477 791 1314 1485 1038 638 
619 1019 1218 1766 768 726 1523 828 504 
1386 711 1599 1758 1989 982 1413 610 1471 
1033 676 943 1748 1688 1096 458 1681 1943 
606 783 996 683 1971 979 1986 1914 490 
957 1463 593 598 1403 1257 1655 1381 1639 
1624 1410 1946 635 625 1292 1733 1157 706 
1843 1997 989 527 1498 1609 1714 897 1272 
1081 1816 1402 636 543 1562 659 714 1984 
1115 1786 1443 1998 1731 501 1648 1346 849 
1349 884 585 1526 1186 940 1103 882 1296 
497 1709 778 609 1605 1145 582 844 1020 
983 1323 1981 1658 1484 1319 1002 1243 1657 
1698 1437 1202 930 465 932 1384 1785 913 
494 1631 792 1248 1180 1294 1872 1612 1479 
1895 633 823 883 1625 1659 1913 1536 872 
1644 1779 1806 1535 1244 782 1217 1902 1765 
684 1750 727 1199 460 550 691 1567 1774 
1710 1900 
type 1 2000 int
1 1 1 1 1 1 1 1 1 
1 1 1 1 1 1 1 1 1 
1 1 1 1 1 1 1 1 1 
1 1 1 1 1 1 1 1 1 
1 1 1 1 1 1 1 1 1 
1 1 1 1 1 1 1 1 1 
1 1 1 1 1 1 1 1 1 
1 1 1 1 1 1 1 1 1 
1 1 1 1 1 1 1 1 1 
1 1 1 1 1 1 1 1 1 
1 1 1 1 1 1 1 1 1 
1 1 1 1 1 1 1 1 1 
1 1 1 1 1 1 1 1 1 
1 1 1 1 1 1 1 1 1 
1 1 1 1 1 1 1 1 1 
1 1 1 1 1 1 1 1 1 
1 1 1 1 1 1 1 1 1 
1 1 1 1 1 1 1 1 1 
1 1 1 1 1 1 1 1 1 
1 1 1 1 1 1 1 1 1 
1 1 1 1 1 1 1 1 1 
1 1 1 1 1 1 1 1 1 
1 1 1 1 1 1 1 1 1 
1 1 1 1 1 1 1 1 1 
1 1 1 1 1 1 1 1 1 
1 1 1 1 1 1 1 1 1 
1 1 1 1 1 1 1 1 1 
1 1 1 1 1 1 1 1 1 
1 1 1 1 1 1 1 1 1 
1 1 1 1 1 1 1 1 1 
1 1 1 1 1 1 1 1 1 
1 1 1 1 1 1 1 1 1 
1 1 1 1 1 1 1 1 1 
1 1 1 1 1 1 1 1 1 
1 1 1 1 1 1 1 1 1 
1 1 1 1 1 1 1 1 1 
1 1 1 1 1 1 1 1 1 
1 1 1 1 1 1 1 1 1 
1 1 1 1 1 1 1 1 1 
1 1 1 1 1 1 1 1 1 
1 1 1 1 1 1 1 1 1 
1 1 1 1 1 1 1 1 1 
1 1 1 1 1 1 1 1 1 
1 1 1 1 1 1 1 1 1 
1 1 1 1 1 1 1 1 1 
1 1 1 1 1 1 1 1 1 
1 1 1 1 1 1 1 1 1 
1 1 1 1 1 1 1 1 1 
1 1 1 1 1 1 1 1 1 
1 1 1 1 1 1 1 1 1 
1 1 1 1 1 1 1 1 1 
1 1 1 1 1 1 1 1 1 
1 1 1 1 1 1 1 1 1 
1 1 1 1 1 1 1 1 1 
1 1 1 1 1 1 1 1 1 
1 1 1 1 1 1 1 1 1 
1 1 1 1 1 1 1 1 1 
1 1 1 1 1 1 1 1 1 
1 1 1 1 1 1 1 1 1 
1 1 1 1 1 1 1 1 1 
1 1 1 1 1 1 1 1 1 
1 1 1 1 1 1 1 1 1 
1 1 1 1 1 1 1 1 1 
1 1 1 1 1 1 1 1 1 
1 1 1 1 1 1 1 1 1 
1 1 1 1 1 1 1 1 1 
1 1 1 1 1 1 1 1 1 
1 1 1 1 1 1 1 1 1 
1 1 1 1 1 1 1 1 1 
1 1 1 1 1 1 1 1 1 
1 1 1 1 1 1 1 1 1 
1 1 1 1 1 1 1 1 1 
1 1 1 1 1 1 1 1 1 
1 1 1 1 1 1 1 1 1 
1 1 1 1 1 1 1 1 1 
1 1 1 1 1 1 1 1 1 
1 1 1 1 1 1 1 1 1 
1 1 1 1 1 1 1 1 1 
1 1 1 1 1 1 1 1 1 
1 1 1 1 1 1 1 1 1 
1 1 1 1 1 1 1 1 1 
1 1 1 1 1 1 1 1 1 
1 1 1 1 1 1 1 1 1 
1 1 1 1 1 1 1 1 1 
1 1 1 1 1 1 1 1 1 
1 1 1 1 1 1 1 1 1 
1 1 1 1 1 1 1 1 1 
1 1 1 1 1 1 1 1 1 
1 1 1 1 1 1 1 1 1 
1 1 1 1 1 1 1 1 1 
1 1 1 1 1 1 1 1 1 
1 1 1 1 1 1 1 1 1 
1 1 1 1 1 1 1 1 1 
1 1 1 1 1 1 1 1 1 
1 1 1 1 1 1 1 1 1 
1 1 1 1 1 1 1 1 1 
1 1 1 1 1 1 1 1 1 
1 1 1 1 1 1 1 1 1 
1 1 1 1 1 1 1 1 1 
1 1 1 1 1 1 1 1 1 
1 1 1 1 1 1 1 1 1 
1 1 1 1 1 1 1 1 1 
1 1 1 1 1 1 1 1 1 
1 1 1 1 1 1 1 1 1 
1 1 1 1 1 1 1 1 1 
1 1 1 1 1 1 1 1 1 
1 1 1 1 1 1 1 1 1 
1 1 1 1 1 1 1 1 1 
1 1 1 1 1 1 1 1 1 
1 1 1 1 1 1 1 1 1 
1 1 1 1 1 1 1 1 1 
1 1 1 1 1 1 1 1 1 
1 1 1 1 1 1 1 1 1 
1 1 1 1 1 1 1 1 1 
1 1 1 1 1 1 1 1 1 
1 1 1 1 1 1 1 1 1 
1 1 1 1 1 1 1 1 1 
1 1 1 1 1 1 1 1 1 
1 1 1 1 1 1 1 1 1 
1 1 1 1 1 1 1 1 1 
1 1 1 1 1 1 1 1 1 
1 1 1 1 1 1 1 1 1 
1 1 1 1 1 1 1 1 1 
1 1 1 1 1 1 1 1 1 
1 1 1 1 1 1 1 1 1 
1 1 1 1 1 1 1 1 1 
1 1 1 1 1 1 1 1 1 
1 1 1 1 1 1 1 1 1 
1 1 1 1 1 1 1 1 1 
1 1 1 1 1 1 1 1 1 
1 1 1 1 1 1 1 1 1 
1 1 1 1 1 1 1 1 1 
1 1 1 1 1 1 1 1 1 
1 1 1 1 1 1 1 1 1 
1 1 1 1 1 1 1 1 1 
1 1 1 1 1 1 1 1 1 
1 1 1 1 1 1 1 1 1 
1 1 1 1 1 1 1 1 1 
1 1 1 1 1 1 1 1 1 
1 1 1 1 1 1 1 1 1 
1 1 1 1 1 1 1 1 1 
1 1 1 1 1 1 1 1 1 
1 1 1 1 1 1 1 1 1 
1 1 1 1 1 1 1 1 1 
1 1 1 1 1 1 1 1 1 
1 1 1 1 1 1 1 1 1 
1 1 1 1 1 1 1 1 1 
1 1 1 1 1 1 1 1 1 
1 1 1 1 1 1 1 1 1 
1 1 1 1 1 1 1 1 1 
1 1 1 1 1 1 1 1 1 
1 1 1 1 1 1 1 1 1 
1 1 1 1 1 1 1 1 1 
1 1 1 1 1 1 1 1 1 
1 1 1 1 1 1 1 1 1 
1 1 1 1 1 1 1 1 1 
1 1 1 1 1 1 1 1 1 
1 1 1 1 1 1 1 1 1 
1 1 1 1 1 1 1 1 1 
1 1 1 1 1 1 1 1 1 
1 1 1 1 1 1 1 1 1 
1 1 1 1 1 1 1 1 1 
1 1 1 1 1 1 1 1 1 
1 1 1 1 1 1 1 1 1 
1 1 1 1 1 1 1 1 1 
1 1 1 1 1 1 1 1 1 
1 1 1 1 1 1 1 1 1 
1 1 1 1 1 1 1 1 1 
1 1 1 1 1 1 1 1 1 
1 1 1 1 1 1 1 1 1 
1 1 1 1 1 1 1 1 1 
1 1 1 1 1 1 1 1 1 
1 1 1 1 1 1 1 1 1 
1 1 1 1 1 1 1 1 1 
1 1 1 1 1 1 1 1 1 
1 1 1 1 1 1 1 1 1 
1 1 1 1 1 1 1 1 1 
1 1 1 1 1 1 1 1 1 
1 1 1 1 1 1 1 1 1 
1 1 1 1 1 1 1 1 1 
1 1 1 1 1 1 1 1 1 
1 1 1 1 1 1 1 1 1 
1 1 1 1 1 1 1 1 1 
1 1 1 1 1 1 1 1 1 
1 1 1 1 1 1 1 1 1 
1 1 1 1 1 1 1 1 1 
1 1 1 1 1 1 1 1 1 
1 1 1 1 1 1 1 1 1 
1 1 1 1 1 1 1 1 1 
1 1 1 1 1 1 1 1 1 
1 1 1 1 1 1 1 1 1 
1 1 1 1 1 1 1 1 1 
1 1 1 1 1 1 1 1 1 
1 1 1 1 1 1 1 1 1 
1 1 1 1 1 1 1 1 1 
1 1 1 1 1 1 1 1 1 
1 1 1 1 1 1 1 1 1 
1 1 1 1 1 1 1 1 1 
1 1 1 1 1 1 1 1 1 
1 1 1 1 1 1 1 1 1 
1 1 1 1 1 1 1 1 1 
1 1 1 1 1 1 1 1 1 
1 1 1 1 1 1 1 1 1 
1 1 1 1 1 1 1 1 1 
1 1 1 1 1 1 1 1 1 
1 1 1 1 1 1 1 1 1 
1 1 1 1 1 1 1 1 1 
1 1 1 1 1 1 1 1 1 
1 1 1 1 1 1 1 1 1 
1 1 1 1 1 1 1 1 1 
1 1 1 1 1 1 1 1 1 
1 1 1 1 1 1 1 1 1 
1 1 1 1 1 1 1 1 1 
1 1 1 1 1 1 1 1 1 
1 1 1 1 1 1 1 1 1 
1 1 1 1 1 1 1 1 1 
1 1 1 1 1 1 1 1 1 
1 1 1 1 1 1 1 1 1 
1 1 1 1 1 1 1 1 1 
1 1 1 1 1 1 1 1 1 
1 1 1 1 1 1 1 1 1 
1 1 1 1 1 1 1 1 1 
1 1 
i 3 2000 int
0 0 0 0 0 0 0 0 0 
0 0 0 0 0 0 0 0 0 
0 0 0 0 0 0 0 0 0 
0 0 0 0 0 0 0 0 0 
0 0 0 0 0 0 0 0 0 
0 0 0 0 0 0 0 0 0 
0 0 0 0 0 0 0 1 0 
0 0 0 0 0 0 0 0 0 
0 0 0 0 0 0 0 0 0 
0 0 0 0 0 0 0 0 0 
0 0 0 0 0 0 0 0 0 
0 0 0 0 0 0 0 0 0 
0 0 0 0 0 0 0 0 0 
0 0 0 -1 0 0 0 0 0 
0 0 0 0 0 0 0 0 0 
0 0 0 0 0 0 0 0 0 
0 0 0 0 0 0 0 0 0 
0 1 0 0 0 0 0 0 0 
0 0 0 0 0 0 0 0 0 
0 0 0 0 0 0 0 0 0 
0 0 0 0 0 0 0 0 0 
0 0 0 0 0 0 0 0 0 
0 0 0 0 0 0 0 0 0 
0 0 0 0 0 0 0 0 0 
0 0 0 0 0 0 0 0 0 
0 0 0 0 0 0 0 0 0 
0 0 0 0 0 0 0 0 0 
0 0 0 0 0 0 0 0 0 
0 0 0 0 0 0 0 0 0 
0 0 0 0 0 0 0 0 0 
0 0 0 0 0 0 0 0 0 
0 0 0 0 0 0 0 0 0 
0 0 0 0 0 0 0 0 0 
0 0 0 0 0 0 0 0 0 
0 0 0 0 0 0 0 0 0 
0 0 0 0 0 0 0 0 0 
0 0 0 0 0 0 0 0 0 
0 0 0 0 0 0 0 0 0 
0 0 0 0 0 0 0 0 0 
0 0 0 0 0 0 0 0 0 
0 0 0 0 0 0 0 0 0 
0 0 0 0 0 0 0 0 0 
0 0 0 0 0 0 0 0 0 
0 0 0 0 0 0 0 0 0 
0 0 0 0 0 0 0 0 0 
0 0 0 0 0 0 0 0 0 
0 0 0 0 0 0 0 0 0 
0 0 0 0 0 0 0 0 0 
0 0 0 -1 0 0 0 0 0 
0 0 0 0 0 0 0 0 0 
0 0 0 0 0 0 0 0 0 
0 0 0 0 0 0 0 0 0 
0 0 0 0 0 0 0 0 0 
0 0 0 0 0 0 0 0 0 
0 0 0 0 0 0 0 0 0 
0 0 0 0 0 0 0 0 0 
0 0 0 0 0 0 0 0 0 
0 0 0 0 0 0 0 0 0 
0 0 0 0 0 0 0 0 0 
0 0 0 0 0 0 0 0 0 
0 0 0 0 0 0 0 0 0 
0 0 0 0 0 0 0 0 0 
0 0 0 0 0 0 0 0 0 
0 0 0 0 0 0 0 0 0 
0 0 0 0 0 0 0 0 0 
0 0 0 0 0 0 0 0 0 
0 0 0 0 0 0 0 -1 0 
0 0 0 0 0 0 1 0 0 
0 0 0 0 -1 0 0 0 0 
0 0 0 0 0 0 0 0 0 
0 0 0 0 0 0 0 0 0 
0 0 0 0 0 0 0 0 0 
0 0 0 0 0 0 0 0 0 
0 0 0 0 0 0 0 0 0 
0 0 0 0 0 0 0 0 0 
0 0 0 0 0 0 0 0 0 
0 0 0 0 0 0 0 0 0 
0 0 0 0 0 0 0 0 0 
0 0 0 0 0 0 0 0 0 
0 0 0 0 0 0 0 0 0 
0 0 0 0 0 0 0 0 0 
0 0 0 0 0 0 0 0 0 
0 0 0 0 0 0 0 -1 0 
0 0 0 0 0 0 0 0 0 
0 0 0 0 0 0 0 0 0 
0 0 0 0 0 0 0 0 0 
0 0 0 0 0 0 1 0 0 
0 0 0 0 0 0 0 0 0 
0 0 0 0 0 0 0 0 0 
0 0 0 0 0 0 0 0 0 
0 0 0 0 0 0 0 0 0 
0 0 0 0 1 0 0 0 0 
0 1 0 0 0 0 0 0 0 
0 0 0 0 0 0 0 0 0 
0 0 0 0 0 0 0 0 0 
0 0 0 0 0 0 0 0 0 
0 0 0 0 0 0 0 0 0 
0 0 0 0 0 0 0 0 0 
0 0 0 0 0 0 0 0 0 
0 0 0 0 0 0 0 0 0 
0 0 0 0 0 0 0 0 0 
0 0 0 0 0 0 0 0 0 
0 0 0 0 0 0 0 0 0 
0 0 0 0 0 0 0 0 0 
0 0 0 0 0 0 0 0 0 
0 0 0 0 0 0 -1 0 0 
0 0 0 0 0 0 0 0 0 
0 0 0 0 0 0 0 0 0 
0 0 0 0 0 0 0 0 0 
0 0 0 0 0 0 0 0 0 
0 0 0 0 0 0 0 0 0 
0 0 0 0 0 0 0 0 0 
0 0 0 0 0 0 0 0 0 
0 0 0 0 0 0 0 0 0 
0 0 0 0 0 0 0 0 0 
0 0 0 0 0 0 0 0 0 
0 0 0 0 0 0 0 0 0 
0 0 0 0 0 0 0 0 0 
0 0 0 0 0 0 0 0 0 
0 0 0 0 0 0 0 0 0 
0 0 0 0 0 0 -1 0 0 
0 0 0 0 0 0 0 0 0 
0 0 0 0 0 0 0 0 0 
0 0 0 0 0 0 0 0 0 
0 0 0 0 0 0 1 0 0 
0 0 0 0 0 0 0 0 0 
0 0 0 0 0 0 1 0 0 
0 0 0 0 0 0 0 0 0 
0 0 0 0 0 0 0 0 0 
0 0 0 0 0 0 0 0 0 
0 0 0 0 0 0 0 0 0 
0 0 0 0 0 0 0 0 0 
0 0 0 0 0 0 0 0 0 
0 0 0 0 0 0 0 0 0 
0 0 0 0 0 0 0 0 0 
0 0 0 0 0 0 0 0 0 
0 0 0 0 0 0 0 0 0 
0 0 0 0 0 0 0 0 0 
0 0 0 0 0 0 0 0 0 
0 0 0 0 0 0 0 0 0 
0 0 0 0 0 0 0 0 0 
0 0 0 0 0 0 0 0 0 
0 0 0 0 0 0 0 0 0 
0 0 0 0 0 0 0 0 0 
0 0 0 0 0 0 0 0 0 
0 0 0 0 0 0 0 0 0 
0 0 0 0 0 0 1 0 0 
0 0 0 0 0 0 0 0 0 
0 0 0 0 0 0 0 0 0 
0 0 0 0 0 0 0 0 0 
0 0 0 0 0 0 0 0 0 
1 0 0 0 0 0 0 0 0 
1 0 0 0 0 0 0 0 0 
0 0 0 0 0 0 0 0 0 
0 0 0 0 0 0 0 0 0 
0 0 0 0 0 0 0 0 0 
0 0 0 0 0 0 0 0 0 
0 0 0 0 0 0 0 0 0 
0 0 0 0 0 0 0 0 0 
0 0 0 0 0 0 0 0 0 
0 0 0 0 0 0 0 0 0 
0 0 0 0 0 0 0 0 0 
0 0 0 0 0 0 0 0 0 
0 0 0 0 0 0 0 0 0 
0 0 0 0 0 0 0 0 0 
-1 0 0 0 0 0 0 0 0 
0 0 0 0 0 0 0 0 0 
0 0 0 0 0 0 0 0 0 
0 0 0 0 0 0 0 0 0 
0 0 0 0 0 0 0 0 0 
0 -1 0 0 0 0 0 -1 0 
0 0 0 0 0 0 0 0 0 
0 0 0 0 0 0 0 0 0 
0 0 0 0 0 0 0 0 0 
0 0 0 0 0 0 0 0 0 
0 0 0 0 0 0 0 -1 0 
0 0 0 0 0 0 0 0 0 
0 0 0 0 0 0 0 0 0 
0 0 0 0 -1 0 0 0 0 
0 0 0 0 -1 0 0 0 0 
0 -1 0 0 0 0 0 0 0 
0 0 0 0 0 0 0 0 0 
0 0 0 0 0 0 0 0 0 
0 0 0 0 0 0 0 0 0 
0 0 0 0 -1 0 0 0 0 
0 0 0 0 0 0 0 0 0 
0 0 0 0 0 0 0 0 0 
0 0 0 0 0 0 0 0 0 
0 0 0 0 0 0 0 0 0 
0 -1 0 0 0 0 0 0 0 
0 0 0 -1 0 0 -1 0 0 
0 0 0 0 0 0 0 0 0 
0 0 0 0 0 0 0 0 0 
0 0 0 0 0 0 0 0 0 
0 0 0 0 0 0 0 0 0 
0 0 0 0 0 0 0 0 0 
0 0 0 0 0 0 0 0 0 
0 0 0 0 0 0 0 1 0 
0 0 0 0 0 0 0 1 0 
1 1 0 0 0 0 0 0 0 
0 0 0 0 0 0 0 0 0 
0 0 0 0 0 0 0 0 0 
0 0 0 0 0 0 0 0 0 
0 0 0 0 0 0 0 0 0 
0 0 0 0 0 0 0 0 0 
0 1 0 0 0 0 0 0 0 
0 0 0 0 0 0 0 0 0 
0 0 0 0 0 0 0 0 0 
0 0 0 0 0 0 0 1 0 
0 0 0 0 0 0 0 0 0 
0 1 0 0 0 0 0 0 0 
0 0 0 0 0 0 0 0 0 
0 0 0 0 0 0 0 0 0 
0 0 0 0 0 0 0 0 0 
0 0 0 0 0 0 0 0 0 
0 0 0 0 0 0 0 0 0 
0 0 0 0 0 0 1 0 0 
0 0 0 0 0 0 0 0 0 
0 0 0 0 0 0 0 0 0 
0 0 0 0 0 0 0 0 0 
0 0 0 0 0 0 0 0 0 
0 0 0 0 0 0 0 0 0 
0 0 0 0 0 0 0 0 0 
0 0 0 0 0 0 0 0 0 
0 0 0 0 0 0 0 0 0 
0 0 0 0 0 0 0 0 0 
0 0 0 0 0 0 0 0 0 
0 0 0 0 0 0 0 0 0 
0 0 0 0 0 0 0 0 0 
0 0 0 0 0 0 0 0 0 
0 0 0 -1 0 0 0 0 0 
0 0 0 0 0 0 0 0 0 
0 0 0 0 0 0 0 0 0 
0 0 0 0 0 0 0 0 0 
0 0 0 0 0 0 0 0 0 
0 0 0 0 0 0 0 0 0 
0 0 0 0 0 0 0 0 0 
0 0 0 0 0 0 0 0 0 
0 0 0 0 0 0 0 0 0 
0 0 0 0 0 0 0 0 0 
0 0 0 0 0 0 0 0 0 
0 0 0 0 0 0 0 0 0 
0 0 0 0 0 0 0 0 0 
0 0 0 0 0 0 0 0 0 
0 0 0 0 0 0 0 0 0 
0 0 0 0 0 0 0 0 0 
0 0 0 0 0 0 0 0 0 
0 0 0 0 0 0 0 0 0 
0 0 0 0 0 0 0 0 0 
0 0 0 0 0 0 0 0 0 
-1 0 0 0 0 0 -1 0 0 
0 0 0 0 0 0 0 0 0 
0 0 0 0 0 0 0 0 0 
0 0 0 0 0 0 0 0 0 
0 0 0 0 0 0 0 0 0 
0 0 0 0 0 0 0 0 0 
0 0 0 0 0 0 0 0 0 
0 0 0 0 0 0 0 0 0 
1 0 0 0 0 0 0 0 0 
1 0 0 0 0 0 1 0 0 
1 0 0 0 0 0 0 0 0 
0 0 0 0 0 0 0 0 0 
0 0 0 0 0 0 0 0 0 
0 0 0 0 0 0 0 0 0 
0 0 0 0 0 0 0 0 0 
0 0 0 0 0 0 0 0 0 
0 0 0 0 0 0 0 0 0 
0 0 0 0 0 0 0 0 0 
0 0 0 0 0 0 0 0 0 
0 0 0 0 0 0 0 0 0 
0 0 0 0 0 0 0 0 0 
0 0 0 0 0 0 0 0 0 
0 0 0 0 0 0 0 0 0 
0 0 0 0 0 0 0 0 0 
0 0 0 0 0 0 0 0 0 
0 0 0 0 0 0 0 0 0 
0 0 0 0 0 0 0 0 0 
0 0 0 0 0 0 0 -1 0 
0 0 0 0 0 0 0 0 0 
0 0 0 0 0 0 0 0 0 
0 0 0 0 0 0 0 0 0 
0 0 0 0 0 0 0 -1 0 
0 0 0 0 0 0 0 0 0 
0 0 0 0 0 0 0 0 0 
0 0 0 0 0 0 0 0 0 
0 0 0 0 0 0 0 0 0 
0 0 0 0 0 0 0 0 0 
0 0 0 0 0 0 0 0 0 
0 0 0 0 0 0 0 0 0 
0 0 0 0 0 0 0 0 0 
0 0 0 0 0 0 0 0 0 
0 -1 0 0 0 0 -1 0 0 
0 0 0 0 0 0 0 0 0 
0 0 0 0 0 0 0 0 0 
0 0 0 0 0 0 0 0 0 
0 0 0 0 0 0 0 0 0 
0 0 0 0 0 0 0 0 0 
0 0 0 0 0 0 0 0 0 
0 0 0 0 0 0 0 0 0 
0 0 0 0 1 0 0 0 0 
0 0 0 0 0 0 0 0 0 
0 0 0 0 0 0 0 0 0 
0 0 0 0 0 0 0 0 0 
0 0 0 0 0 0 0 1 0 
0 0 0 0 0 0 0 0 0 
0 0 0 0 0 0 0 0 0 
0 1 0 0 0 0 0 0 0 
0 0 0 0 0 0 0 0 0 
0 0 0 0 0 0 0 0 0 
0 1 0 0 0 0 0 0 0 
0 0 0 0 0 0 0 0 0 
0 0 0 0 0 0 0 0 0 
0 0 0 0 1 0 0 0 0 
0 1 0 0 0 0 -1 0 0 
1 0 0 0 0 0 0 0 0 
0 0 0 0 0 0 0 0 0 
0 0 0 0 0 0 0 0 0 
0 0 0 0 0 0 0 0 0 
0 0 0 0 0 0 0 0 0 
0 0 0 0 0 0 0 0 0 
0 0 0 0 0 0 0 0 0 
0 0 0 0 0 0 0 0 0 
0 0 0 0 0 0 0 0 0 
0 0 0 0 0 0 0 0 0 
0 0 0 0 0 0 0 0 0 
0 0 0 0 0 0 0 0 0 
0 0 0 0 0 0 0 0 0 
0 0 0 0 0 0 0 0 0 
0 0 0 0 0 0 0 0 0 
0 0 0 0 0 0 0 0 0 
0 0 0 0 0 0 0 0 0 
0 0 0 0 0 0 0 0 0 
0 0 0 -1 0 0 -1 0 0 
0 0 0 0 0 0 0 0 0 
0 0 0 0 0 0 0 0 0 
0 0 0 0 0 0 0 0 0 
0 0 0 0 0 0 0 0 0 
0 0 0 0 0 0 0 0 0 
0 0 0 0 0 0 0 0 0 
0 0 0 0 0 0 0 0 0 
0 0 0 0 0 0 0 0 0 
0 0 0 0 0 0 0 0 0 
0 0 0 0 0 0 0 0 0 
0 0 0 0 0 0 0 0 0 
0 0 0 0 0 0 0 0 0 