# vtk DataFile Version 4.0
Generated by LIGGGHTS
ASCII
DATASET POLYDATA
POINTS 2000 float
-87.015 -90.8251 9.99952 -95.7094 -115.838 10.0069 -107.386 -132.409 9.99967 
-119.019 -116.129 9.99396 -88.9653 -140.226 9.99945 -133.269 -133.291 9.99973 
-129.649 -85.2712 9.99914 -106.854 -98.2405 10.0111 -120.446 -129.298 24.9877 
-111.369 -109.157 27.1102 -135.052 -115.797 21.9311 -118.712 -90.5905 25.8747 
-93.9767 -117.266 32.7435 -56.1835 -100.558 9.99579 -30.0977 -128.189 9.99529 
-75.3602 -108.272 9.99525 -66.5746 -135.005 10.0009 -80.7515 -124.847 19.7958 
-37.6434 -100.39 17.6439 -60.3199 -117.989 19.0752 -47.9607 -133.598 17.1788 
-55.0487 -140.381 34.6245 -35.0645 -139.227 34.3107 0.872603 -104.751 10.0174 
0.608151 -136.377 9.99213 20.2376 -99.6708 10.1902 -19.0962 -101.05 10.0025 
13.3622 -120.379 10.0332 -11.614 -120.556 9.99704 8.65314 -129.864 27.0966 
23.7657 -89.1946 27.5387 4.16865 -90.5124 23.7124 21.3755 -115.325 32.2519 
25.2304 -136.035 17.7723 -16.6947 -141.532 25.9883 35.9034 -104.426 22.7761 
52.0321 -127.391 10.002 68.9326 -92.4158 9.99979 33.6078 -119.63 9.99507 
64.7807 -111.98 10.1067 79.2079 -137.967 9.98866 48.0634 -94.9327 10.0059 
38.6306 -124.786 28.6668 139.141 -97.597 19.1656 116.186 -126.931 9.99882 
131.032 -113.529 10.0195 104.062 -93.5449 9.99406 88.1567 -111.418 9.99973 
96.7097 -129.08 14.133 120.254 -91.4729 21.5372 86.6667 -86.198 16.8465 
132.471 -130.436 21.2938 112.006 -109.565 19.0001 90.1148 -100.312 30.8071 
128.417 -112.244 30.4864 -95.6915 -33.3436 18.9869 -111.966 -73.5028 9.99973 
-122.529 -56.335 10.0042 -113.649 -38.3858 10.0022 -90.5279 -70.8995 10.0019 
-103.16 -55.6745 14.925 -100.184 -83.204 22.9791 -132.846 -68.7329 22.4483 
-133.803 -48.8905 24.7575 -116.615 -39.9486 29.7189 -88.8497 -48.672 29.8661 
-85.2665 -48.2251 10.0062 -138.987 -84.2165 33.5164 -117.492 -59.9449 32.6615 
-32.4141 -72.2654 10.0034 -30.5515 -51.4968 10.0095 -49.5119 -82.0309 13.5248 
-61.2283 -66.2083 9.9998 -76.8314 -62.5813 21.9769 -57.5384 -33.0345 25.0129 
-35.3597 -80.9772 28.1474 -25.9492 -63.147 26.6042 13.2256 -53.6847 10.3497 
-5.16526 -45.7611 10.0026 3.74595 -71.7935 10.0346 22.1499 -79.7312 9.99808 
-25.9599 -32.0067 9.98783 -14.445 -63.4794 10.002 -14.5679 -36.32 25.9136 
-10.9776 -77.0148 24.3387 24.6273 -65.0111 23.4303 19.4877 -27.5716 32.8554 
10.0823 -74.1887 33.6353 41.6612 -73.5408 9.99973 53.8221 -50.7897 9.99871 
72.0115 -59.158 9.9963 32.9552 -50.4195 9.99963 68.7383 -41.9847 20.1938 
43.8772 -59.7791 24.8382 43.5576 -86.3459 27.4945 62.2438 -67.9357 25.0734 
85.9121 -44.5791 9.99972 52.8049 -43.4896 32.2483 141.259 -37.0785 10.0158 
90.1606 -67.7316 10.0021 132.024 -80.1506 9.99773 117.577 -56.5593 9.99975 
111.041 -75.1388 13.5585 113.529 -36.9734 9.99925 137.608 -57.3625 10.0016 
127.434 -42.382 23.5024 125.837 -73.1489 27.7593 -118.585 8.96131 9.99856 
-102.732 -7.79813 10.0393 -117.31 -19.676 16.8811 -128.486 -2.50596 23.5022 
-105.875 27.4597 10.0325 -108.045 -5.50717 29.225 -91.6165 -17.6546 30.7578 
-110.575 17.0308 26.4505 -85.3587 -17.7329 10.015 -139.982 -17.0666 14.6242 
-130.094 20.7972 28.6667 -46.5486 1.29666 9.99579 -32.6755 -13.1448 9.99976 
-75.7827 13.5086 24.9914 -34.2393 16.4679 26.8844 -41.6946 -2.03122 29.104 
-38.768 26.204 10.0022 -6.95056 -25.8338 10.0043 -25.5378 10.2504 9.99276 
-13.7365 -6.65437 10.0117 28.4625 -2.31707 9.9999 -2.20724 -1.11492 25.5373 
4.18902 9.67328 9.9845 21.2736 6.78983 26.2882 22.9952 18.4497 10.0496 
61.2698 -26.4837 9.9995 42.5247 11.3177 14.0578 80.703 -14.3062 9.9994 
58.7371 0.198162 10.0835 64.959 19.7138 10.0121 36.2283 25.1869 27.0183 
58.8382 19.8909 31.4894 86.8039 10.2643 23.8757 96.2845 -26.8433 10.0136 
140.49 5.15231 9.99973 99.3121 19.3128 9.99964 96.4513 -0.584157 10.0343 
138.967 25.1063 9.99973 122.778 -22.259 20.113 117.584 -5.66732 9.97111 
103.163 -13.7806 23.5424 -89.4334 69.8304 9.99973 -112.737 59.0976 10.0304 
-127.431 38.0217 9.99958 -83.5089 44.1928 10.0044 -137.533 77.7474 30.807 
-140.243 37.7302 25.4768 -130.769 60.7336 18.6516 -99.9143 42.8921 21.377 
-117.996 36.6869 27.5833 -133.349 78.6519 10.0884 -33.2325 69.5593 24.9966 
-67.0897 60.4853 9.99977 -50.5541 43.0327 9.99974 -62.1518 49.8909 26.3039 
-74.1035 72.2365 24.5836 -81.8143 48.2192 29.5516 22.907 77.7705 10.0116 
-1.54907 60.9955 9.99973 -23.7344 39.3941 10.0016 12.5728 67.1387 23.4568 
22.7902 55.2808 9.99987 2.25801 35.3044 33.7245 -3.73364 80.9593 10.0069 
29.5725 58.066 29.3938 32.7451 36.0029 10.0292 58.9431 42.7179 10.0011 
59.9095 63.2691 10.0194 42.3889 72.9449 10.005 76.4656 52.1957 11.7991 
71.0786 33.9908 23.3117 51.4351 38.1403 27.9639 42.1588 53.0711 14.6551 
78.5598 72.8893 9.98427 65.803 54.9374 28.6047 118.263 30.7089 10.0069 
86.0984 34.4735 9.99954 118.921 57.781 10.0002 104.625 71.7597 9.99485 
103.742 44.4587 10.0922 137.124 49.5082 9.99665 93.5306 58.3625 20.2088 
116.551 44.1609 25.4732 92.1364 81.5415 22.1626 114.107 67.1266 27.0149 
130.913 72.2883 17.0361 89.5753 40.102 29.1258 -114.496 85.3777 10.0003 
-115.45 118.062 25.008 -72.653 136.857 26.1337 -76.9335 85.6225 9.99927 
-56.0054 93.2429 9.99973 -46.2459 111.484 9.99968 -80.0983 105.373 10.0064 
-77.6635 125.24 10.1753 -53.7764 130.246 10.0543 -30.3207 104.476 25.1693 
-33.1752 134.986 15.9905 -31.1875 123.269 32.2146 -26.8071 117.004 9.99359 
14.3573 131.067 10.0358 -11.175 129.469 9.99659 -2.93951 109.982 10.0012 
10.4847 88.5992 21.8827 16.706 108.56 13.4516 1.70556 132.632 25.6351 
-13.5593 116.488 25.6458 26.8615 98.612 27.6597 21.5755 129.102 28.5992 
-10.8605 96.3542 22.3167 5.78417 113.136 29.5708 35.2874 93.4972 9.99967 
61.6051 134.551 10.0204 35.5891 114.724 9.99462 55.5877 115.48 10.1869 
41.5913 137.505 9.99436 80.6396 120.952 9.9986 69.4343 123.428 26.375 
50.5618 130.033 26.2263 60.5407 90.496 34.2556 36.8826 115.913 29.9108 
124.539 89.9211 10.0257 86.7976 101.049 9.99973 115.847 108.342 9.99342 
137.858 131.887 9.99973 110.459 135.906 9.99414 104.626 91.7782 9.99933 
135.595 111.614 10.0002 100.001 119.553 14.8016 122.804 124.018 20.625 
141.175 94.3801 20.1953 88.5981 119.885 31.2274 114.446 140.054 29.1415 
-136.984 -103.668 37.7135 -106.652 -133.001 38.9891 -133.887 -125.586 39.3254 
-118.264 -114.7 45.4396 -93.5797 -124.274 51.4714 -88.5622 -138.223 67.3706 
-112.523 -122.961 62.7246 -131.199 -129.991 61.3997 -133.662 -110.729 71.7211 
-106.262 -135.234 77.2199 -126.796 -140.638 79.0532 -94.9272 -116.189 69.7512 
-127.355 -100.669 87.8337 -79.2194 -133.532 41.0705 -70.5322 -92.5939 40.9051 
-49.2861 -120.935 36.008 -42.491 -100.295 64.305 -75.9036 -121.634 60.4541 
-60.2254 -88.5234 74.2501 -63.6147 -138.43 52.5905 -56.2797 -120.312 56.8242 
-41.9593 -133.502 52.2554 -31.1291 -111.846 76.0381 -64.37 -108.994 71.2032 
-64.2165 -136.955 72.5247 -47.8789 -127.449 81.745 -31.5518 -130.791 69.1182 
-80.6027 -98.4191 77.2274 -16.2201 -111.169 43.3907 16.9734 -99.6693 43.905 
4.31134 -140.451 43.4948 14.7363 -125.853 54.3438 5.1314 -118.051 70.2568 
-5.15182 -139.578 61.0913 -10.3038 -93.3499 72.9224 5.39155 -84.4167 50.1683 
23.3476 -136.021 39.197 9.19119 -92.7959 77.4861 -13.4773 -124.872 75.5077 
23.6598 -92.5923 62.2959 7.35712 -138.117 78.5657 20.8853 -108.925 79.1701 
24.9112 -128.643 80.0347 28.3672 -111.997 60.8797 70.8585 -127.259 42.2332 
36.9211 -126.976 50.7664 54.5388 -116.594 71.3215 42.3254 -106.042 41.6451 
75.8474 -117.437 75.5008 39.3796 -137.049 67.9244 39.868 -103.466 74.9674 
61.6484 -135.582 76.6796 44.2775 -127.251 84.8207 27.9468 -90.245 84.119 
101.884 -118.887 56.0678 109.806 -90.6951 38.568 131.363 -136.453 40.4005 
104.141 -119.669 34.3675 120.69 -114.616 49.1531 112.775 -132.922 46.8985 
128.56 -95.1916 45.2882 101.186 -138.627 62.2054 94.2738 -87.3789 50.7388 
140.131 -114.411 53.8602 108.76 -100.001 56.2391 87.5841 -102.997 61.3692 
120.339 -133.622 65.4252 133.835 -98.1952 65.5097 94.5657 -124.407 74.6074 
136.48 -126.591 74.9383 97.3975 -88.8387 71.7223 135.167 -104.384 85.3803 
109.483 -96.2458 85.8495 110.387 -111.437 72.5458 -115.983 -82.917 59.9125 
-94.5792 -67.4395 33.9448 -133.474 -54.1689 50.2772 -85.4643 -65.8892 58.0014 
-102.962 -33.963 61.3845 -133.017 -55.723 75.001 -96.0833 -62.895 80.5999 
-94.8329 -81.5357 87.9106 -78.6689 -78.4927 73.9555 -29.9793 -36.0071 46.3926 
-74.878 -57.2845 43.3462 -63.0142 -46.5268 56.8349 -65.9857 -65.4612 62.5373 
-51.8838 -40.2947 72.252 -78.5787 -55.4308 74.3954 -61.8926 -69.5931 81.6696 
-31.0324 -67.2518 62.1423 -69.4409 -39.5953 82.5001 -33.7816 -36.3866 79.913 
-44.6212 -28.3001 57.8252 27.5321 -81.58 45.6727 -3.06275 -60.8861 40.8251 
-11.3317 -42.9798 44.5129 17.4887 -59.353 71.3906 -11.6417 -37.772 63.8343 
2.82652 -30.8189 85.3874 44.3799 -35.9803 56.0347 60.5148 -80.749 57.5922 
65.5677 -47.6732 47.1501 77.7299 -49.6433 67.9869 58.0549 -46.8002 65.8261 
70.1511 -31.4189 71.2009 69.2353 -44.8521 85.9838 48.8717 -46.4989 83.5879 
99.427 -54.1398 40.8988 140.124 -35.7567 37.5284 115.927 -81.3554 55.4373 
134.066 -56.7125 36.5685 132.369 -73.8057 46.9196 107.177 -71.3151 70.3806 
132.059 -77.9558 66.7534 88.2619 -65.6767 73.6398 128.198 -60.7134 76.692 
120.55 -79.0825 83.074 140.817 -84.1743 84.3803 -125.944 -23.6547 36.6171 
-99.3241 -1.88979 47.2103 -132.505 -5.87985 43.0391 -109.53 24.8871 45.7963 
-116.854 6.56543 42.5165 -113.901 -0.374413 61.1562 -108.179 26.452 68.1622 
-93.0263 20.7235 56.4033 -134.689 4.53506 60.0062 -112.592 9.8203 78.3448 
-131.364 16.4479 75.7213 -91.2614 -8.41889 82.253 -95.0569 3.66532 66.8012 
-123.909 -6.62916 77.3014 -78.336 -14.2421 46.2543 -45.048 18.3016 43.6057 
-69.1432 0.672256 56.9057 -60.6415 18.7722 56.1204 -51.7932 3.98519 66.2844 
-53.4261 -10.4506 51.4961 -40.3339 10.8032 81.2059 -68.7119 -27.3609 57.9069 
-57.9578 -17.8501 71.8323 -77.9321 15.0861 68.2828 -40.6484 -15.1977 81.5056 
-72.6798 -4.66384 75.8541 -19.3022 -4.03128 55.9229 14.7384 -9.11776 62.261 
16.9581 7.70047 49.434 27.1807 18.0104 65.0053 5.63726 -26.8764 64.9885 
[...]
POINT_DATA 2000
FIELD FieldData 7
id 1 2000 int
41 77 196 230 301 308 411 107 205 
282 106 55 438 53 85 259 296 439 
157 275 424 371 40 185 265 297 299 
410 440 172 95 351 336 437 78 49 
33 300 376 408 344 397 216 380 59 
139 141 164 29 30 201 379 335 434 
394 36 142 338 414 456 32 161 261 
453 80 276 171 381 245 112 143 231 
246 215 10 273 211 115 208 232 365 
225 48 243 45 167 11 75 113 174 
222 318 108 354 149 285 200 317 114 
117 252 262 286 314 395 334 274 239 
342 66 147 238 255 443 309 413 298 
278 50 345 20 46 220 187 212 69 
37 122 358 390 416 347 359 123 197 
264 430 315 204 256 135 346 54 97 
178 213 271 404 84 199 320 362 400 
99 234 450 152 444 8 279 321 250 
384 378 195 240 399 186 111 12 169 
133 131 132 389 419 449 229 369 375 
102 72 330 253 34 154 221 266 173 
352 366 58 329 206 138 6 328 184 
224 168 179 311 455 295 385 90 88 
62 302 339 79 83 218 426 127 128 
294 433 341 110 227 396 421 429 251 
242 18 423 96 160 209 288 367 370 
452 116 198 284 203 247 244 343 442 
166 304 361 401 448 1864 1820 852 1025 
1285 223 9 71 82 130 350 292 119 
409 290 383 1191 1007 1904 1249 2 241 
355 156 64 76 210 293 263 1855 1873 
364 1584 1941 1011 418 22 144 165 382 
323 332 42 1715 1811 327 137 47 51 
283 125 445 81 155 249 272 436 74 
1428 1281 1934 720 1920 856 700 1308 5 
425 331 388 26 307 552 1551 319 422 
65 163 191 236 1719 1793 23 1676 1730 
415 39 417 281 28 226 1366 392 14 
44 189 306 104 931 1603 25 183 86 
313 398 180 188 1317 1870 1643 1922 405 
43 412 129 322 761 1508 303 326 764 
1565 1819 176 1155 151 162 68 158 214 
257 121 368 175 427 353 1211 4 217 
357 202 402 268 94 190 349 120 1159 
570 746 118 260 219 7 100 153 333 
432 457 70 63 1767 386 291 15 277 
19 441 581 1015 1407 839 3 254 57 
228 393 145 177 420 1046 1600 1399 909 
340 1956 1 270 387 109 170 181 140 
312 91 93 1163 372 61 67 267 60 
316 73 87 1652 590 583 193 280 373 
235 374 16 194 148 789 1080 1406 310 
377 103 233 337 35 258 356 24 159 
182 435 1430 1367 1124 105 360 403 237 
287 363 92 348 21 1398 1517 1852 324 
1685 27 428 391 56 98 1807 1893 1087 
1716 207 1283 407 289 446 101 192 13 
124 1869 1400 923 1589 431 269 146 136 
52 150 1883 1995 771 817 1501 1082 1706 
1836 305 325 406 38 126 17 31 447 
134 248 967 1140 1618 1447 480 1068 1694 
1542 1293 1726 1769 784 954 1878 1938 1195 
1749 903 484 1382 1649 1176 1178 541 1173 
1838 1999 668 1170 1331 1534 1982 1845 1021 
907 520 1945 952 1262 1252 1304 1665 1712 
1854 1337 553 1450 1687 651 548 1537 654 
1128 1988 1409 462 1105 1189 1728 1757 1051 
1474 739 838 1842 599 642 661 911 914 
1147 1149 1459 866 1220 1829 974 486 1527 
1840 752 573 89 1953 540 1206 1275 1683 
1488 1656 1543 997 1781 489 1050 854 878 
995 1045 1171 1678 1578 1994 1077 1520 1866 
658 1143 833 889 1799 626 1586 864 874 
1540 757 793 1284 1894 1421 533 1725 985 
1566 640 1213 1861 602 652 1365 1001 644 
1225 1234 1415 1673 779 862 1373 1874 622 
1389 806 1167 495 1729 1480 1444 521 1112 
1442 1908 842 861 1013 1419 1034 1177 1628 
1093 1099 1736 1677 532 1460 754 1063 1190 
1496 1031 1696 1404 1023 1066 712 1718 1563 
1881 698 799 451 466 709 1340 1831 1271 
1745 1401 1391 1572 454 1951 594 960 1385 
1417 1912 970 1579 1675 888 1119 1369 1602 
1102 474 1975 580 1468 1499 1947 1270 506 
1533 1929 1194 643 1412 1890 1959 608 1200 
1570 1362 1529 470 597 1679 628 1172 1452 
853 566 674 701 1720 1743 965 975 1803 
1884 841 656 1416 1481 892 949 1815 564 
1490 1773 492 1647 1865 1620 741 1424 1606 
660 729 1761 962 968 1960 624 1470 673 
1241 518 1771 814 1131 1903 1334 1326 966 
1638 1858 1017 513 1825 1355 948 1071 1258 
1601 936 964 1433 1896 848 1931 1891 1267 
1889 469 951 1268 1591 1634 1156 1552 537 
1201 1979 562 775 1892 1561 1054 1684 588 
1919 991 671 479 630 753 946 728 876 
1822 1291 1965 488 1461 845 1427 461 475 
1098 1734 832 1830 1545 1844 718 1342 1539 
1117 810 887 1827 522 1667 1263 459 1324 
565 915 687 1058 1169 621 1037 875 906 
1130 675 1209 1962 781 1614 1089 1752 1203 
1120 969 1229 1813 1978 1582 1361 1487 1094 
666 912 1042 938 723 850 987 1328 972 
1661 1352 1663 1916 1738 539 574 1254 1932 
1187 1129 1465 807 1756 886 1936 530 1850 
1018 1332 1772 758 1004 1491 722 1554 1208 
1144 487 1343 493 471 1287 1495 865 1309 
1917 467 896 1532 788 1937 464 498 809 
894 935 1740 1341 1558 1935 528 1036 1076 
1467 1475 1834 1595 745 961 1414 901 1197 
1333 1569 1282 1494 1928 1074 919 1126 798 
1653 1318 569 1524 1040 1791 538 953 1214 
1108 1114 895 1613 837 1261 1682 934 1052 
1458 1577 713 1056 511 1925 904 1453 1608 
503 664 1910 1846 1918 1441 473 1477 1636 
1184 759 1255 1784 1849 803 925 805 893 
1438 525 535 557 1146 531 1768 1708 559 
1204 1219 1944 790 1911 1153 1525 1626 491 
1879 1216 749 981 1422 1503 1226 604 646 
710 1231 1548 508 1505 1029 1125 1053 1104 
2000 1387 1732 1702 1837 1360 1165 1760 1610 
1359 696 990 1344 1041 551 1804 992 1670 
1906 1662 944 984 1633 801 1383 1483 1055 
820 1379 1118 835 670 1462 1576 1980 1101 
1780 1814 1724 1059 1121 1223 751 667 769 
1205 1473 1823 1060 595 1650 1991 1974 496 
736 1790 685 1251 1350 1434 483 1088 1860 
1069 1084 1100 1446 1930 618 686 730 1166 
1222 1672 1026 1598 1835 526 1616 1622 1674 
601 692 1289 1564 1796 1966 515 1135 742 
755 740 1550 476 589 611 616 871 1300 
1368 774 916 1573 1632 1788 1805 725 770 
902 986 1507 1035 1699 1877 632 1397 1707 
523 1445 1711 1310 780 830 1568 1048 1062 
575 994 1064 1070 1269 1504 688 1150 922 
682 1049 1770 645 1092 1701 1863 1425 924 
1493 1312 1948 732 777 1575 1923 613 695 
993 1151 1174 1559 1940 1371 1775 1859 1887 
623 705 1264 1466 1783 1106 760 1142 1556 
600 1073 999 1138 1619 885 1039 1742 733 
1303 797 1109 1134 1789 1963 802 1192 1228 
1247 1276 1175 1250 627 641 1336 1704 1722 
472 1856 655 998 1809 1043 1798 1764 502 
942 1952 561 1078 1615 1313 1418 1500 1957 
1992 1358 1629 800 825 1420 1939 1455 1897 
567 1260 1356 478 1354 647 1375 1432 697 
1024 1964 547 1376 1596 1983 1440 1961 1514 
545 920 1735 988 1047 708 818 959 1245 
1664 1122 1666 1295 1006 1242 1557 1181 794 
1585 1754 1607 499 1009 1237 1235 529 831 
1547 1828 1853 596 719 811 1993 509 1090 
822 519 1246 763 1067 1030 1377 1695 1482 
689 1973 586 1439 1469 614 679 681 1061 
1512 1604 649 693 1113 868 796 867 908 
1210 1277 1832 869 1327 917 1546 1297 1511 
1623 1833 620 571 650 1454 510 1457 1705 
603 468 1394 1316 1739 1792 918 910 743 
870 1116 1179 1513 703 482 607 765 1778 
1617 945 971 1232 1876 1857 546 1363 1958 
1348 750 819 1305 1841 558 1224 1396 1746 
631 1502 1530 1594 1976 1593 677 1581 1755 
1882 881 1969 929 1448 612 744 1000 1580 
1972 534 738 1808 1867 795 657 1353 1812 
1821 549 572 1136 1429 563 1541 699 1640 
1700 1072 1574 863 1338 1801 1306 1549 1196 
1641 1741 1967 517 1028 463 1899 1079 1386 
711 731 1182 1818 1942 648 1290 1370 1810 
1091 847 858 950 1737 1590 481 958 592 
928 1095 1408 1611 1871 899 1274 1875 1996 
678 524 715 1168 1509 1597 1686 1489 1949 
1022 1162 1492 1637 653 1239 1651 1723 1955 
1160 1571 1905 634 704 927 976 787 1321 
1357 1839 591 576 1645 1221 1521 1592 1660 
1802 747 1005 1302 1411 1847 584 662 846 
1215 1691 1139 514 1256 663 772 1057 1325 
1152 516 815 855 1032 1680 1697 1777 1107 
1476 1668 1621 672 1690 963 1279 1436 485 
1763 1085 605 1347 1817 1901 500 1161 1538 
1880 507 680 791 717 821 1423 1345 766 
816 1727 1747 1431 955 826 1392 1515 1915 
1388 504 900 1133 1516 829 1273 1522 1642 
1968 1907 1127 1065 891 1307 1320 1426 1703 
1776 1990 512 834 1086 1405 1744 1977 477 
836 734 748 1753 978 1010 939 1038 1314 
1485 1987 827 1083 1555 1758 1926 776 1888 
1989 982 1413 579 1198 1646 1826 1921 851 
694 824 1123 1478 578 762 1240 1311 1848 
458 1985 690 767 1148 1185 1762 1885 956 
1390 1339 1681 973 1137 1868 1914 490 1954 
1230 860 1378 1627 1759 1280 593 1713 737 
941 977 1288 1782 615 554 921 1016 1851 
625 785 1132 1692 1787 724 1330 1193 1265 
1292 1733 577 1012 505 873 1374 1472 1886 
989 1997 1721 1008 1014 1236 1464 897 1272 
1393 1950 637 812 1544 1862 543 560 857 
1278 1795 926 1322 1800 1329 1227 1335 542 
1141 1212 1583 1654 804 937 1158 1671 1898 
1380 1233 707 1238 849 1044 1186 1587 497 
843 1164 1630 933 1531 890 702 773 1299 
1635 1970 877 778 609 1588 568 1372 536 
1003 1497 1364 1451 905 1301 1927 880 1319 
1560 1486 1259 639 465 1111 556 669 716 
879 913 721 494 898 1924 1506 1710 1435 
1294 1183 1449 756 947 1751 726 1253 1154 
633 587 980 1207 665 1298 1933 1902 1244 
782 1395 1689 1693 1027 1097 629 544 1188 
1986 638 768 1019 1218 1351 1599 1766 1523 
1033 828 619 610 1471 1797 1286 1510 617 
943 1456 1748 1096 635 1688 1779 1943 606 
783 996 683 957 1403 1463 1609 1567 598 
1257 1519 555 1669 1909 1717 1639 1624 1381 
1075 813 1843 1410 1157 706 1971 1498 527 
1714 1816 1402 1315 1081 636 1984 1655 1562 
1296 714 659 1946 1786 1443 1115 840 501 
1658 1648 1484 1346 930 1553 1349 884 859 
585 1709 1526 1103 882 1794 1266 940 1998 
1731 1605 1180 1145 808 582 844 983 786 
1020 1323 1981 1110 1002 1437 1644 1698 1243 
1528 1657 932 1384 1785 1824 691 1248 1518 
1631 792 1479 1612 1872 1895 735 1913 1659 
1625 883 823 1806 1765 1536 1535 1217 1202 
872 727 1199 1750 979 684 460 550 1900 
1774 676 
type 1 2000 int
1 1 1 1 1 1 1 1 1 
1 1 1 1 1 1 1 1 1 
1 1 1 1 1 1 1 1 1 
1 1 1 1 1 1 1 1 1 
1 1 1 1 1 1 1 1 1 
1 1 1 1 1 1 1 1 1 
1 1 1 1 1 1 1 1 1 
1 1 1 1 1 1 1 1 1 
1 1 1 1 1 1 1 1 1 
1 1 1 1 1 1 1 1 1 
1 1 1 1 1 1 1 1 1 
1 1 1 1 1 1 1 1 1 
1 1 1 1 1 1 1 1 1 
1 1 1 1 1 1 1 1 1 
1 1 1 1 1 1 1 1 1 
1 1 1 1 1 1 1 1 1 
1 1 1 1 1 1 1 1 1 
1 1 1 1 1 1 1 1 1 
1 1 1 1 1 1 1 1 1 
1 1 1 1 1 1 1 1 1 
1 1 1 1 1 1 1 1 1 
1 1 1 1 1 1 1 1 1 
1 1 1 1 1 1 1 1 1 
1 1 1 1 1 1 1 1 1 
1 1 1 1 1 1 1 1 1 
1 1 1 1 1 1 1 1 1 
1 1 1 1 1 1 1 1 1 
1 1 1 1 1 1 1 1 1 
1 1 1 1 1 1 1 1 1 
1 1 1 1 1 1 1 1 1 
1 1 1 1 1 1 1 1 1 
1 1 1 1 1 1 1 1 1 
1 1 1 1 1 1 1 1 1 
1 1 1 1 1 1 1 1 1 
1 1 1 1 1 1 1 1 1 
1 1 1 1 1 1 1 1 1 
1 1 1 1 1 1 1 1 1 
1 1 1 1 1 1 1 1 1 
1 1 1 1 1 1 1 1 1 
1 1 1 1 1 1 1 1 1 
1 1 1 1 1 1 1 1 1 
1 1 1 1 1 1 1 1 1 
1 1 1 1 1 1 1 1 1 
1 1 1 1 1 1 1 1 1 
1 1 1 1 1 1 1 1 1 
1 1 1 1 1 1 1 1 1 
1 1 1 1 1 1 1 1 1 
1 1 1 1 1 1 1 1 1 
1 1 1 1 1 1 1 1 1 
1 1 1 1 1 1 1 1 1 
1 1 1 1 1 1 1 1 1 
1 1 1 1 1 1 1 1 1 
1 1 1 1 1 1 1 1 1 
1 1 1 1 1 1 1 1 1 
1 1 1 1 1 1 1 1 1 
1 1 1 1 1 1 1 1 1 
1 1 1 1 1 1 1 1 1 
1 1 1 1 1 1 1 1 1 
1 1 1 1 1 1 1 1 1 
1 1 1 1 1 1 1 1 1 
1 1 1 1 1 1 1 1 1 
1 1 1 1 1 1 1 1 1 
1 1 1 1 1 1 1 1 1 
1 1 1 1 1 1 1 1 1 
1 1 1 1 1 1 1 1 1 
1 1 1 1 1 1 1 1 1 
1 1 1 1 1 1 1 1 1 
1 1 1 1 1 1 1 1 1 
1 1 1 1 1 1 1 1 1 
1 1 1 1 1 1 1 1 1 
1 1 1 1 1 1 1 1 1 
1 1 1 1 1 1 1 1 1 
1 1 1 1 1 1 1 1 1 
1 1 1 1 1 1 1 1 1 
1 1 1 1 1 1 1 1 1 
1 1 1 1 1 1 1 1 1 
1 1 1 1 1 1 1 1 1 
1 1 1 1 1 1 1 1 1 
1 1 1 1 1 1 1 1 1 
1 1 1 1 1 1 1 1 1 
1 1 1 1 1 1 1 1 1 
1 1 1 1 1 1 1 1 1 
1 1 1 1 1 1 1 1 1 
1 1 1 1 1 1 1 1 1 
1 1 1 1 1 1 1 1 1 
1 1 1 1 1 1 1 1 1 
1 1 1 1 1 1 1 1 1 
1 1 1 1 1 1 1 1 1 
1 1 1 1 1 1 1 1 1 
1 1 1 1 1 1 1 1 1 
1 1 1 1 1 1 1 1 1 
1 1 1 1 1 1 1 1 1 
1 1 1 1 1 1 1 1 1 
1 1 1 1 1 1 1 1 1 
1 1 1 1 1 1 1 1 1 
1 1 1 1 1 1 1 1 1 
1 1 1 1 1 1 1 1 1 
1 1 1 1 1 1 1 1 1 
1 1 1 1 1 1 1 1 1 
1 1 1 1 1 1 1 1 1 
1 1 1 1 1 1 1 1 1 
1 1 1 1 1 1 1 1 1 
1 1 1 1 1 1 1 1 1 
1 1 1 1 1 1 1 1 1 
1 1 1 1 1 1 1 1 1 
1 1 1 1 1 1 1 1 1 
1 1 1 1 1 1 1 1 1 
1 1 1 1 1 1 1 1 1 
1 1 1 1 1 1 1 1 1 
1 1 1 1 1 1 1 1 1 
1 1 1 1 1 1 1 1 1 
1 1 1 1 1 1 1 1 1 
1 1 1 1 1 1 1 1 1 
1 1 1 1 1 1 1 1 1 
1 1 1 1 1 1 1 1 1 
1 1 1 1 1 1 1 1 1 
1 1 1 1 1 1 1 1 1 
1 1 1 1 1 1 1 1 1 
1 1 1 1 1 1 1 1 1 
1 1 1 1 1 1 1 1 1 
1 1 1 1 1 1 1 1 1 
1 1 1 1 1 1 1 1 1 
1 1 1 1 1 1 1 1 1 
1 1 1 1 1 1 1 1 1 
1 1 1 1 1 1 1 1 1 
1 1 1 1 1 1 1 1 1 
1 1 1 1 1 1 1 1 1 
1 1 1 1 1 1 1 1 1 
1 1 1 1 1 1 1 1 1 
1 1 1 1 1 1 1 1 1 
1 1 1 1 1 1 1 1 1 
1 1 1 1 1 1 1 1 1 
1 1 1 1 1 1 1 1 1 
1 1 1 1 1 1 1 1 1 
1 1 1 1 1 1 1 1 1 
1 1 1 1 1 1 1 1 1 
1 1 1 1 1 1 1 1 1 
1 1 1 1 1 1 1 1 1 
1 1 1 1 1 1 1 1 1 
1 1 1 1 1 1 1 1 1 
1 1 1 1 1 1 1 1 1 
1 1 1 1 1 1 1 1 1 
1 1 1 1 1 1 1 1 1 
1 1 1 1 1 1 1 1 1 
1 1 1 1 1 1 1 1 1 
1 1 1 1 1 1 1 1 1 
1 1 1 1 1 1 1 1 1 
1 1 1 1 1 1 1 1 1 
1 1 1 1 1 1 1 1 1 
1 1 1 1 1 1 1 1 1 
1 1 1 1 1 1 1 1 1 
1 1 1 1 1 1 1 1 1 
1 1 1 1 1 1 1 1 1 
1 1 1 1 1 1 1 1 1 
1 1 1 1 1 1 1 1 1 
1 1 1 1 1 1 1 1 1 
1 1 1 1 1 1 1 1 1 
1 1 1 1 1 1 1 1 1 
1 1 1 1 1 1 1 1 1 
1 1 1 1 1 1 1 1 1 
1 1 1 1 1 1 1 1 1 
1 1 1 1 1 1 1 1 1 
1 1 1 1 1 1 1 1 1 
1 1 1 1 1 1 1 1 1 
1 1 1 1 1 1 1 1 1 
1 1 1 1 1 1 1 1 1 
1 1 1 1 1 1 1 1 1 
1 1 1 1 1 1 1 1 1 
1 1 1 1 1 1 1 1 1 
1 1 1 1 1 1 1 1 1 
1 1 1 1 1 1 1 1 1 
1 1 1 1 1 1 1 1 1 
1 1 1 1 1 1 1 1 1 
1 1 1 1 1 1 1 1 1 
1 1 1 1 1 1 1 1 1 
1 1 1 1 1 1 1 1 1 
1 1 1 1 1 1 1 1 1 
1 1 1 1 1 1 1 1 1 
1 1 1 1 1 1 1 1 1 
1 1 1 1 1 1 1 1 1 
1 1 1 1 1 1 1 1 1 
1 1 1 1 1 1 1 1 1 
1 1 1 1 1 1 1 1 1 
1 1 1 1 1 1 1 1 1 
1 1 1 1 1 1 1 1 1 
1 1 1 1 1 1 1 1 1 
1 1 1 1 1 1 1 1 1 
1 1 1 1 1 1 1 1 1 
1 1 1 1 1 1 1 1 1 
1 1 1 1 1 1 1 1 1 
1 1 1 1 1 1 1 1 1 
1 1 1 1 1 1 1 1 1 
1 1 1 1 1 1 1 1 1 
1 1 1 1 1 1 1 1 1 
1 1 1 1 1 1 1 1 1 
1 1 1 1 1 1 1 1 1 
1 1 1 1 1 1 1 1 1 
1 1 1 1 1 1 1 1 1 
1 1 1 1 1 1 1 1 1 
1 1 1 1 1 1 1 1 1 
1 1 1 1 1 1 1 1 1 
1 1 1 1 1 1 1 1 1 
1 1 1 1 1 1 1 1 1 
1 1 1 1 1 1 1 1 1 
1 1 1 1 1 1 1 1 1 
1 1 1 1 1 1 1 1 1 
1 1 1 1 1 1 1 1 1 
1 1 1 1 1 1 1 1 1 
1 1 1 1 1 1 1 1 1 
1 1 1 1 1 1 1 1 1 
1 1 1 1 1 1 1 1 1 
1 1 1 1 1 1 1 1 1 
1 1 1 1 1 1 1 1 1 
1 1 1 1 1 1 1 1 1 
1 1 1 1 1 1 1 1 1 
1 1 1 1 1 1 1 1 1 
1 1 1 1 1 1 1 1 1 
1 1 1 1 1 1 1 1 1 
1 1 1 1 1 1 1 1 1 
1 1 1 1 1 1 1 1 1 
1 1 1 1 1 1 1 1 1 
1 1 1 1 1 1 1 1 1 
1 1 
i 3 2000 int
0 0 0 0 0 0 0 0 0 
0 0 0 0 0 0 0 0 0 
0 0 0 0 0 0 0 0 0 
0 0 0 0 0 0 0 0 0 
0 0 0 0 0 0 0 0 0 
0 0 0 0 0 0 0 0 0 
0 0 0 0 0 0 0 0 0 
0 0 0 0 1 0 0 0 0 
0 0 0 0 0 0 0 0 0 
0 0 0 0 0 0 0 0 0 
0 0 0 0 0 0 0 0 0 
0 0 0 0 1 0 0 0 0 
0 0 0 0 0 0 0 0 0 
0 0 0 0 1 0 0 0 0 
0 0 0 -1 0 0 0 0 0 
0 0 0 0 0 0 0 0 0 
0 0 0 0 0 0 0 0 0 
0 0 0 0 0 0 0 0 0 
0 0 0 0 0 0 0 0 0 
0 0 0 0 0 0 0 0 0 
0 0 0 0 0 0 0 0 0 
0 0 0 0 0 0 0 0 0 
0 0 0 0 0 0 0 0 0 
0 0 0 0 0 0 0 0 0 
0 0 0 0 0 0 0 0 0 
0 0 0 0 0 0 0 0 0 
0 0 0 0 0 0 0 0 0 
0 0 0 0 0 0 0 0 0 
0 0 0 0 0 0 0 0 0 
0 0 0 0 0 0 0 0 0 
0 0 0 0 0 0 0 0 0 
0 0 0 0 0 0 0 0 0 
0 0 0 0 0 0 -1 0 0 
0 0 0 0 0 0 0 0 0 
0 0 0 0 0 0 0 0 0 
0 0 0 0 0 0 0 0 0 
0 0 0 0 0 0 0 0 0 
0 0 0 0 0 0 0 0 0 
0 0 0 0 0 0 1 0 0 
0 0 0 0 0 0 0 0 0 
0 0 0 0 0 0 0 0 0 
0 0 0 0 0 0 0 0 0 
0 0 0 0 0 0 0 0 0 
0 0 0 0 0 0 0 0 0 
0 0 0 0 0 0 0 0 0 
0 0 0 0 0 0 0 0 0 
0 0 0 0 0 0 0 0 0 
-1 0 0 0 0 0 0 0 0 
0 0 0 0 0 0 0 0 0 
0 0 0 0 0 0 0 0 0 
0 0 0 0 0 0 0 0 0 
0 0 0 0 0 0 0 0 0 
0 0 0 0 0 0 0 0 0 
0 0 0 0 0 0 0 0 0 
0 0 0 0 0 0 0 0 0 
0 0 0 0 0 0 0 0 0 
0 0 0 0 0 0 0 0 0 
0 0 0 0 0 0 0 0 0 
0 0 0 0 0 0 0 0 0 
0 0 0 0 0 0 0 0 0 
0 0 0 0 0 0 0 0 0 
0 0 0 0 0 0 0 0 0 
0 0 0 0 0 0 0 0 0 
0 0 0 0 0 0 0 0 0 
0 0 0 0 0 0 0 0 0 
0 0 0 0 -1 0 0 0 0 
0 0 0 0 0 0 0 0 0 
0 0 0 0 0 0 0 0 0 
0 0 0 0 0 0 0 0 0 
0 0 0 0 0 0 0 0 0 
0 0 0 0 0 0 0 0 0 
0 0 0 0 0 0 0 0 0 
0 0 0 0 0 0 0 0 0 
0 0 0 0 0 0 0 0 0 
0 0 0 0 0 0 0 0 0 
0 0 0 0 0 0 0 0 0 
0 0 0 0 0 0 0 0 0 
0 0 0 0 0 0 0 0 0 
0 0 0 0 0 0 0 0 0 
0 0 0 0 0 0 0 0 0 
0 0 0 0 0 0 0 0 0 
0 0 0 0 0 0 0 0 0 
0 0 0 0 0 0 0 0 0 
0 0 0 0 0 0 0 0 0 
0 0 0 0 0 0 0 0 0 
0 0 0 0 0 0 0 0 0 
0 0 0 0 1 0 0 0 0 
0 0 0 0 0 0 0 0 0 
0 0 0 0 0 0 0 0 0 
0 0 0 0 0 0 0 0 0 
0 0 0 0 0 0 0 0 0 
0 0 0 0 0 0 0 0 0 
0 0 0 0 0 0 0 0 0 
0 0 0 0 0 0 0 0 0 
0 0 0 0 0 0 0 0 0 
0 0 0 0 0 0 0 0 0 
0 0 0 0 0 0 0 0 0 
0 0 0 0 0 0 0 0 0 
0 0 0 0 0 0 0 0 0 
0 0 0 0 0 0 0 0 0 
0 0 0 0 0 0 0 0 0 
0 0 0 0 0 0 0 0 0 
0 0 0 0 0 0 0 0 0 
0 0 0 0 0 0 -1 0 0 
0 0 0 0 0 0 0 0 0 
0 0 0 0 0 0 0 0 0 
0 0 0 0 0 0 0 0 0 
0 0 0 0 0 0 0 0 0 
0 0 0 0 0 0 0 0 0 
0 0 0 0 0 0 0 0 0 
0 0 0 0 0 0 0 0 0 
0 0 0 0 0 0 0 0 0 
0 0 0 0 0 0 0 0 0 
0 0 0 0 0 0 0 0 0 
0 0 0 0 0 0 0 0 0 
0 0 0 0 0 0 0 0 0 
0 0 0 0 0 0 0 0 0 
0 0 0 0 0 0 0 0 0 
0 0 0 0 0 0 0 0 0 
0 0 0 -1 0 0 0 0 0 
0 0 0 1 0 0 0 0 0 
0 0 0 0 0 0 0 0 0 
0 0 0 1 0 0 0 0 0 
0 0 0 0 0 0 0 0 0 
0 0 0 0 0 0 0 0 0 
0 0 0 0 0 0 0 0 0 
0 0 0 0 0 0 0 0 0 
0 0 0 0 0 0 0 0 0 
0 0 0 0 0 0 0 0 0 
0 0 0 0 0 0 0 0 0 
0 0 0 0 0 0 0 0 0 
0 0 0 0 0 0 0 0 0 
0 0 0 0 0 0 0 0 0 
0 0 0 0 0 0 0 0 0 
0 0 0 0 0 0 0 0 0 
0 0 0 0 0 0 0 0 0 
0 0 0 0 0 0 0 0 0 
0 0 0 0 0 0 0 0 0 
0 0 0 0 0 0 0 0 0 
0 0 0 0 0 0 0 0 0 
0 0 0 0 0 0 0 0 0 
0 0 0 0 0 0 0 0 0 
0 0 0 0 0 0 0 0 0 
0 0 0 0 0 0 0 0 0 
1 0 0 0 0 0 0 0 0 
0 0 0 0 0 0 0 0 0 
0 0 0 0 0 0 0 0 0 
0 0 0 0 0 0 0 0 0 
0 0 0 0 0 0 0 0 0 
0 0 0 0 0 0 0 0 0 
0 0 0 0 0 0 0 0 0 
0 0 0 0 0 0 0 0 0 
0 0 0 0 0 0 0 0 0 
0 0 0 0 0 0 0 0 0 
0 0 0 0 0 0 0 0 0 
0 0 0 0 0 0 0 0 0 
-1 0 0 0 0 0 0 0 0 
0 0 0 0 0 0 0 0 0 
0 0 0 0 0 0 0 0 0 
0 0 0 0 0 0 0 0 0 
0 0 0 0 0 0 0 0 0 
0 0 0 0 0 0 0 0 0 
0 0 0 0 0 0 0 0 0 
0 0 0 0 0 0 0 0 0 
0 0 0 0 0 0 0 0 0 
0 0 0 0 0 0 0 0 0 
0 0 0 0 0 0 0 0 0 
0 0 0 0 0 0 0 0 0 
0 -1 0 0 0 0 0 0 0 
0 0 0 0 -1 0 0 0 0 
0 0 0 0 0 0 0 0 0 
0 0 0 0 0 0 0 0 0 
0 0 0 0 0 0 0 0 0 
0 -1 0 0 0 0 0 0 0 
0 0 0 0 0 0 0 0 0 
0 0 0 0 0 0 0 0 0 
0 0 0 0 0 0 0 0 0 
0 0 0 0 0 0 0 0 0 
-1 0 0 0 -1 0 -1 0 0 
0 0 0 0 0 0 0 0 0 
0 0 0 0 0 0 0 0 0 
0 0 0 0 0 0 0 0 0 
0 0 0 0 0 0 0 0 0 
0 0 0 0 0 0 0 0 0 
0 1 0 0 0 0 0 0 0 
0 0 0 0 0 0 0 0 0 
0 0 0 0 0 0 0 0 0 
0 0 0 0 0 0 0 0 0 
0 0 0 0 0 0 0 0 0 
0 0 0 0 0 0 0 0 0 
0 0 0 0 0 0 0 0 0 
0 0 0 0 0 0 0 0 0 
0 0 0 0 0 0 0 0 0 
0 0 0 0 0 0 0 0 0 
0 1 0 0 0 0 0 0 0 
0 0 0 0 0 0 0 0 0 
0 0 0 0 0 0 0 0 0 
0 0 0 0 0 0 0 0 0 
0 0 0 0 0 0 0 0 0 
0 0 0 0 0 0 0 0 0 
0 0 0 1 0 0 0 0 0 
0 0 0 0 0 0 0 0 0 
0 0 0 0 0 0 0 0 0 
0 0 0 0 0 0 0 0 0 
0 0 0 0 0 0 0 0 0 
0 0 0 0 0 0 0 0 0 
0 0 0 0 0 0 0 0 0 
0 0 0 0 0 0 0 0 0 
0 0 0 0 0 0 0 0 0 
0 0 0 0 0 0 0 0 0 
0 0 0 0 0 0 0 0 0 
0 0 0 -1 0 0 0 0 0 
0 0 0 0 0 0 0 0 0 
0 0 0 0 0 0 0 0 0 
0 0 0 0 0 0 0 0 0 
0 0 0 0 0 0 0 0 0 
0 0 0 0 0 0 0 0 0 
0 0 0 0 0 0 0 0 0 
0 0 0 0 0 0 0 0 0 
0 0 0 0 0 0 0 0 0 
0 0 0 0 0 0 0 0 0 
0 0 0 0 0 0 0 0 0 
0 0 0 0 0 0 0 0 0 
0 0 0 0 0 0 0 0 0 
0 0 0 0 0 0 0 0 0 
0 0 0 0 0 0 0 0 0 
0 0 0 0 0 0 0 0 0 
0 0 0 0 0 0 0 0 0 
0 0 0 0 0 0 0 0 0 
0 0 0 0 0 0 0 0 0 
0 0 0 0 0 0 0 0 0 
0 0 0 0 0 0 0 0 0 
0 0 0 0 0 0 0 0 0 
0 0 0 0 0 0 0 0 0 
0 0 0 0 0 0 0 0 0 
0 0 0 0 0 0 0 0 0 
0 0 0 0 0 0 0 0 0 
0 0 0 0 0 0 0 0 0 
0 0 0 0 0 0 0 0 0 
0 0 0 0 0 0 0 0 0 
0 0 0 0 0 0 0 0 0 
0 0 0 0 0 0 0 0 0 
0 0 0 0 0 0 0 0 0 
0 0 0 0 0 0 0 0 0 
0 0 0 0 0 0 0 0 0 
0 0 0 0 0 0 0 0 0 
0 0 0 0 0 0 0 0 0 
0 0 0 0 0 0 0 0 0 
0 0 0 0 0 0 0 0 0 
0 0 0 0 0 0 0 0 0 
0 0 0 0 0 0 0 0 0 
0 0 0 0 0 0 0 0 0 
0 0 0 0 0 0 0 0 0 
0 0 0 0 0 0 0 -1 0 
0 0 0 0 0 0 0 0 0 
0 0 0 0 0 0 0 0 0 
0 0 0 0 0 0 0 0 0 
0 0 0 0 0 0 0 0 0 
0 0 0 0 0 0 0 0 0 
0 0 0 0 0 0 0 0 0 
0 0 0 0 0 0 0 0 0 
0 0 0 0 0 0 0 0 0 
0 0 0 0 0 0 0 0 0 
0 0 0 0 0 0 0 0 0 
0 0 0 0 0 0 0 0 0 
0 0 0 0 0 0 0 0 0 
0 0 0 0 0 0 0 0 0 
0 0 0 0 0 0 0 0 0 
0 0 0 0 0 0 0 0 0 
0 0 0 0 0 0 0 0 0 
0 0 0 0 0 0 0 0 0 
0 0 0 0 0 0 0 0 0 
0 1 0 0 0 0 0 0 0 
0 0 0 0 0 0 0 0 0 
0 0 0 0 0 0 0 0 0 
0 0 0 0 0 0 0 0 0 
0 0 0 0 0 0 0 0 0 
0 0 0 0 0 0 0 0 0 
0 0 0 0 0 0 0 0 0 
0 0 0 0 0 0 0 0 0 
0 0 0 0 0 0 0 0 0 
0 0 0 0 0 0 0 0 0 
0 0 0 0 0 0 0 0 0 
0 0 0 0 0 0 0 0 0 
0 0 0 0 0 0 0 0 0 
0 0 0 0 0 0 0 0 0 
0 0 0 0 0 0 0 0 0 
0 0 0 0 0 0 0 0 0 
0 0 0 0 0 0 0 0 0 
0 0 0 0 0 0 0 0 0 
0 0 0 0 0 0 0 0 0 
0 0 0 0 0 0 0 0 0 
0 0 0 0 0 0 0 0 0 
0 0 0 0 0 0 0 0 0 
0 0 0 0 0 0 0 0 0 
0 0 0 0 0 0 0 0 0 
0 0 0 0 0 0 0 0 0 
0 0 0 0 0 0 0 0 0 
0 0 0 0 0 0 0 0 0 
0 0 0 0 0 0 0 0 0 
0 0 0 0 0 0 0 0 0 
0 0 0 0 0 0 0 0 0 
0 0 0 0 0 0 0 0 0 
0 0 0 0 0 0 0 0 0 
0 0 0 0 0 0 0 0 0 
0 0 0 0 0 0 0 0 0 
0 0 0 0 0 0 0 0 0 
0 0 0 0 0 0 0 0 0 
0 0 0 0 0 0 0 0 0 
0 0 0 0 0 0 0 0 0 
0 0 0 0 0 0 0 0 0 
0 0 0 0 0 0 0 0 0 
0 0 0 0 0 0 0 0 0 
0 0 0 0 0 0 0 0 0 
0 0 0 0 0 0 0 0 0 
0 0 0 0 0 0 0 0 0 
0 0 0 0 0 0 0 0 0 
0 0 0 0 0 0 0 0 0 
0 0 0 0 0 0 0 0 0 
0 0 0 0 0 0 0 0 0 
0 0 0 0 0 0 0 0 0 
0 0 0 0 0 0 0 0 0 
0 0 0 0 0 0 0 0 0 
0 0 0 0 0 0 0 0 0 
0 0 0 0 0 0 0 0 0 
0 0 0 0 0 0 0 0 0 
0 0 0 0 0 0 0 0 0 
0 0 0 0 0 0 0 0 0 
0 0 0 0 0 0 0 0 0 
0 0 0 0 0 0 0 0 0 
0 0 0 0 0 0 0 0 0 
0 0 0 0 0 0 0 0 0 
0 0 0 0 0 0 0 0 0 
0 0 0 0 0 0 0 0 0 
0 0 0 0 0 0 0 0 0 
0 0 0 0 0 0 0 0 0 
0 0 0 0 0 0 0 0 0 
0 0 0 0 -1 0 0 0 0 
0 0 0 0 0 0 0 0 0 
0 0 0 0 0 0 0 0 0 
0 0 0 0 0 0 0 0 0 
0 0 0 0 0 0 0 0 0 
0 0 0 0 0 0 0 0 0 
0 0 0 0 0 0 0 0 0 
0 0 0 0 0 0 0 0 0 