# vtk DataFile Version 4.0
Generated by LIGGGHTS
ASCII
DATASET POLYDATA
POINTS 1577 float
-85.3331 -85.1859 9.99874 -88.5062 -63.6865 9.99888 -72.1406 -100.256 9.99756 
-102.565 -95.3349 9.99767 -89.3354 -110.931 9.99833 -70.3097 -71.9845 9.99967 
-88.3145 -70.532 28.7892 -106.889 -71.5608 9.99856 -74.1635 -59.6753 37.8774 
-96.4857 -88.7671 27.8812 -72.9575 -84.1752 25.6755 -102.73 -59.578 37.3866 
-60.8505 -100.072 26.5015 -81.264 -76.197 46.6269 -91.4366 -109.339 29.8218 
-62.2653 -75.8668 40.3922 -101.016 -78.2683 44.2882 -108.619 -111.649 19.8528 
-84.6577 -95.4785 42.5449 -109.131 -105.722 38.9452 -66.7126 -103.888 45.2355 
-91.1683 -60.3211 53.6866 -68.705 -87.8207 56.9748 -105.868 -94.3828 55.0911 
-57.1273 -87.0245 9.99927 -55.9834 -60.2697 29.5664 -14.4536 -76.8013 27.1654 
-10.0612 -86.3683 9.99971 -30.3657 -104.804 9.99801 -32.8795 -84.7891 9.99973 
-0.47914 -97.9459 25.3977 -13.301 -66.6086 9.99808 -47.7859 -77.9808 25.1954 
-41.1737 -96.9022 24.8526 -50.9532 -106.047 9.99864 -10.0669 -106.37 9.99824 
-31.4362 -83.1412 35.6094 -49.5636 -91.219 42.0933 -31.3729 -66.6141 24.0144 
-32.9785 -103.145 41.9931 -20.3482 -95.7601 24.7561 -14.2124 -78.0654 47.1234 
-11.2872 -98.6398 42.3509 -31.3098 -67.7717 48.4022 -32.5929 -87.9498 54.9871 
-49.0769 -107.244 54.0472 -12.6072 -59.7747 39.195 -48.6228 -75.991 55.0234 
11.5417 -93.672 9.99738 4.56555 -78.7141 21.2897 29.2644 -68.8789 17.0655 
54.8392 -92.4402 24.8197 39.0991 -84.7956 9.99968 46.2827 -61.1075 9.99804 
49.6349 -72.0831 26.3747 11.3024 -63.6501 9.99611 28.4071 -101.378 17.4857 
46.8566 -103.232 9.99715 3.2127 -85.0318 40.2137 12.5312 -113.276 14.9608 
19.9895 -76.224 33.7744 10.3646 -59.2294 29.4764 36.2048 -87.2751 29.9199 
37.2945 -70.3722 42.0178 13.0637 -107.337 36.7276 33.0102 -105.921 36.408 
52.8894 -107.207 38.1624 44.1915 -91.9066 47.661 25.5206 -83.3866 51.609 
55.5035 -62.3037 44.6169 4.47154 -66.4294 47.447 0.558054 -109.312 54.4251 
23.5562 -103.767 53.8972 59.8161 -81.4832 40.7917 58.3952 -79.4967 9.99708 
110.71 -85.7331 19.5331 85.3285 -84.6198 9.99793 86.0452 -103.321 17.0481 
66.4724 -63.6139 19.0741 71.936 -82.0672 24.6291 85.9096 -66.8309 22.5683 
68.3563 -97.099 9.99973 101.077 -70.2769 9.9986 104.729 -102.263 9.99786 
70.7116 -103.503 29.8823 105.898 -68.9956 29.3662 92.8783 -84.6073 28.5165 
101.063 -103.012 30.2507 78.0524 -71.3803 40.3872 85.7231 -88.7261 46.731 
106.022 -70.7256 49.2906 110.011 -87.6589 39.426 90.9513 -107.726 50.1369 
67.8132 -97.937 48.8704 102.301 -92.8213 57.1416 72.2413 -59.8503 55.6584 
-57.6471 -56.5044 9.99761 -111.459 -54.8707 20.0225 -101.607 -9.24274 22.3719 
-97.582 -24.4278 9.99754 -82.4928 -32.3463 20.4642 -67.9256 -22.3526 9.99973 
-88.8375 -0.0933878 9.99655 -62.3178 -7.5535 23.2379 -97.0762 -45.25 9.9979 
-88.2316 -50.2754 27.2158 -113.043 -35.2194 16.6641 -75.982 -48.0952 9.99863 
-61.9724 -40.4905 22.0745 -81.8309 -11.6855 24.7067 -110.532 -12.5815 39.9535 
-68.3261 -24.4213 32.1441 -81.594 -12.8009 44.6715 -99.7008 -27.816 29.594 
-82.5293 -36.0872 40.1109 -68.6142 -45.5656 50.918 -101.054 -35.506 48.0192 
-59.9283 -14.05 47.0403 -111.028 -53.1958 54.4272 -102.907 -5.11442 56.8652 
-54.2473 -36.2357 40.0232 -27.5729 -10.3761 9.99851 -50.8181 -23.891 22.325 
-9.06031 -30.0634 10.0011 -33.9827 -52.5877 9.99929 -17.9794 -51.2494 21.9198 
-2.10859 -48.8157 9.99836 -37.6528 -9.65512 27.282 -7.37234 -10.1355 9.99746 
-47.3414 -6.94502 9.99831 -22.5972 -29.1523 24.6949 -4.08631 -18.0804 28.0519 
-36.1542 -29.6392 9.99949 -4.26739 -1.1938 38.7621 -37.0311 -26.1688 38.5449 
-10.7818 -32.102 40.641 -42.188 -41.7875 24.6963 -43.752 -52.8861 43.558 
-27.0182 -43.4692 37.9719 -20.7676 -14.5318 38.4971 -38.6999 -12.0861 52.645 
-21.9409 -24.8699 55.5773 -22.4683 -0.40338 52.5481 -6.46811 -12.0543 55.4086 
-18.4 -0.30772 24.6414 22.8995 -56.7852 44.8656 1.65184 -37.1 25.7635 
49.9461 -10.1832 25.5686 49.2688 -33.6871 20.8889 15.6881 -16.0627 25.8461 
16.9896 -45.4458 16.0144 12.5564 -4.27135 9.9993 38.2974 -19.702 9.99973 
36.0038 -43.9527 9.99862 10.9038 -27.3638 9.99973 32.5226 -0.533675 9.99704 
33.7721 -23.9973 29.0037 7.87098 -24.4975 42.7429 2.29694 -47.0272 43.113 
32.3868 -52.3037 27.8117 52.3849 -52.2662 27.6024 50.7237 -20.0831 42.9281 
20.1688 -37.7561 34.2009 31.3109 -4.16129 29.6246 19.0469 -8.05704 44.9334 
43.5395 -38.4218 39.4557 15.4035 -38.7558 55.7529 28.7703 -25.8992 48.2726 
38.1652 -6.54783 50.6131 36.4348 -47.1427 55.9916 92.5558 -56.2343 38.1716 
113.162 -42.3636 35.256 58.2996 -19.5521 9.99849 61.6758 -44.974 9.99924 
83.3073 -0.879121 25.9589 100.073 -49.56 9.99785 75.4799 -38.1179 23.2193 
96.9133 -29.7516 9.99831 71.7617 -4.31547 9.99731 80.2694 -52.3362 9.99774 
77.9761 -23.3246 9.99637 69.2403 -15.6967 26.2887 107.993 -16.8546 20.5261 
93.7411 -7.27229 9.99973 63.2491 -35.1044 38.7503 71.0514 -53.2489 35.5529 
89.1024 -20.0174 26.2799 95.0264 -39.6494 27.2729 72.0799 -3.94952 42.2213 
84.1607 -20.447 45.6521 102.62 -25.9769 39.7597 97.632 -6.63097 38.672 
80.9367 -40.14 46.9716 100.436 -42.5892 50.6809 104.307 -14.2775 55.9011 
65.5843 -16.9282 55.981 -105.847 16.0366 26.5316 -69.6445 5.52289 9.99826 
-98.6206 24.6621 9.9988 -78.8332 27.5671 9.9965 -84.1068 13.8357 23.5436 
-64.5101 41.5245 9.99894 -80.1987 48.6708 21.0478 -96.7367 46.5733 9.99932 
-108.168 5.03212 9.99683 -72.9803 3.19307 36.3064 -92.9147 1.64145 36.7218 
-92.917 31.2182 28.0346 -67.8307 44.4887 41.5633 -72.9913 29.8197 28.9882 
-108.701 10.2614 45.4631 -105.83 46.4861 27.8579 -100.617 28.5763 46.3013 
-64.5804 24.6048 46.3645 -83.4362 18.9332 42.8691 -88.7229 47.3474 39.0913 
-62.9438 5.94863 53.3836 -61.4112 54.0961 25.2401 -60.5676 14.513 25.383 
-80.7686 39.7548 56.0603 -84.9504 3.59872 55.6152 -51.5535 1.41139 37.5113 
-29.1851 55.338 9.99607 -54.0383 35.5283 26.1434 -19.8768 13.2306 9.99781 
-25.6164 22.8312 26.5768 -41.4246 54.5023 25.791 -51.9151 23.9163 9.9989 
-44.5134 42.4952 9.99942 -21.8032 36.7543 10.5306 -1.81937 7.78492 16.9248 
-38.7213 10.1018 15.9206 -4.75141 26.3145 9.99692 -8.93453 53.1387 9.99973 
-31.6497 39.8249 35.2253 -5.97319 26.127 29.9554 -46.4892 21.2215 37.9006 
-9.88616 45.7184 29.0428 -15.1315 36.4191 45.9745 -32.3852 7.08141 36.8782 
-30.4381 23.988 49.5046 -12.7148 15.6053 45.5682 -49.0048 39.3468 45.9712 
-31.1918 42.8951 55.9758 52.3413 2.13714 9.99833 14.8 16.4933 9.9997 
38.2934 41.3776 23.4314 24.3737 23.4162 26.1634 51.3653 34.4125 9.99716 
51.2387 19.8858 23.7413 23.807 44.4673 9.99747 36.7127 20.6548 9.99973 
6.51748 40.1261 19.0631 12.9272 3.70654 29.8046 20.7428 44.7554 32.4033 
45.9739 6.69079 37.8181 26.774 10.2804 42.6945 7.98073 18.6306 42.1638 
43.116 29.861 39.0524 24.1626 29.9186 45.4314 43.8675 51.2464 39.9058 
4.35241 38.379 41.921 50.8887 23.7306 56.4276 27.1251 48.6767 51.6997 
4.65184 54.8551 55.5836 6.26681 3.48045 55.1074 56.4939 0.856508 53.7946 
112.655 39.83 53.8078 113.678 37.0484 9.99855 57.5465 38.8252 28.4981 
104.69 3.54994 22.9741 93.1932 19.6519 25.8901 65.5127 17.1868 9.99826 
109.288 31.2058 28.6133 84.5653 11.1085 9.99904 104.034 54.5685 9.99882 
64.1353 53.1085 9.99964 105.314 18.7876 9.99967 93.7163 35.0814 9.9997 
74.0293 25.2377 27.1275 63.9511 4.62765 26.0887 73.7212 35.5563 9.99883 
89.322 39.0017 29.1393 77.8681 29.1564 46.3834 104.806 48.5144 37.5718 
62.4959 17.359 41.441 73.2953 50.4741 32.5293 101.143 23.3706 45.1121 
86.1622 10.446 42.193 84.1292 52.6334 9.99847 62.3608 42.7629 47.5059 
101.872 5.4847 54.0316 92.6656 40.438 53.7096 -60.0395 104.139 9.99864 
-98.3692 99.473 16.6911 -65.8609 82.7204 9.9974 -70.5917 63.2206 9.9972 
-72.8115 112.073 24.1503 -102.931 81.1879 9.99919 -90.4528 65.5601 9.99745 
-108.485 63.9549 18.4932 -70.5363 73.5294 27.1322 -102.344 82.1364 32.2942 
-79.5248 99.6377 9.99789 -88.7158 65.1213 29.9152 -86.2284 84.0717 20.6118 
-106.82 63.6325 38.4192 -107.078 102.81 34.4899 -71.8885 87.5384 41.3401 
-87.67 97.9972 34.8916 -89.0408 76.7144 46.2088 -74.4612 63.2217 43.8124 
-83.3701 113.114 47.2596 -59.7075 92.5453 26.2915 -104.492 90.8645 50.3198 
-85.2713 94.5464 54.4432 -61.1511 101.264 51.1539 -55.3648 110.349 34.3024 
-4.47382 88.2177 24.4952 -1.85229 101.745 9.99926 -15.3337 79.6815 9.99973 
-21.5421 105.249 9.9992 -26.0307 90.7012 22.9672 -34.1295 73.4486 16.8848 
-50.391 63.6323 9.99973 -41.2862 105.692 16.7704 -4.81278 68.3067 22.6457 
-8.36183 111.775 27.3156 -46.4666 87.602 9.99846 -32.6447 59.7358 45.2903 
-27.7694 108.871 31.1621 -22.6656 61.0677 28.011 -33.0282 77.6475 36.4054 
-50.586 72.6759 28.2228 -42.0428 95.459 35.2008 -23.848 90.4498 48.7221 
-13.1238 76.8715 38.6929 -52.4211 58.7424 42.4889 -12.2604 57.8302 44.7783 
-53.0388 82.349 45.5549 -14.9982 108.889 46.553 -35.2878 106.782 50.2379 
-3.94376 92.3778 48.8245 -36.9463 76.0979 55.9557 44.2023 57.2751 9.99864 
55.3107 60.6585 26.2818 25.7638 72.0983 9.99862 32.0476 102.078 9.99781 
45.3788 77.646 9.99973 11.7652 59.2028 16.147 51.3385 96.8073 9.99924 
15.4091 94.6144 18.202 32.5311 85.5466 23.164 6.82555 78.5257 9.99578 
44.3733 110.211 23.4837 7.09491 101.656 34.9693 27.3385 103.526 31.5518 
15.348 76.5139 27.973 48.7106 92.4687 32.6659 31.265 60.0616 24.9919 
5.58993 57.3682 35.7647 20.9428 88.4413 43.0201 42.1572 71.0649 37.6494 
55.7238 103.503 47.8049 5.64229 75.0985 45.3995 36.0126 107.028 49.2283 
23.511 66.4004 43.1727 34.2337 78.9005 54.5223 55.4771 79.2234 50.1365 
15.7796 105.862 52.4846 45.8933 62.7332 56.1484 112.325 108.606 51.9929 
62.7297 79.1956 27.4323 90.7998 58.9 27.7793 66.1644 110.868 9.99973 
95.8909 105.748 27.4042 79.1509 94.8547 25.2613 105.813 75.7874 9.99736 
68.7344 86.9425 9.99915 88.718 86.1645 9.99963 105.732 105.559 9.99684 
77.008 70.0465 16.7834 85.7371 105.969 9.99738 110.458 90.686 22.5024 
86.2785 77.7361 32.7484 104.703 93.4118 41.459 63.057 106.001 29.3445 
105.34 72.4986 29.7185 109.086 75.407 49.146 86.2229 63.4234 46.7154 
86.7011 101.517 44.6537 70.0769 90.5995 42.5666 65.8023 62.447 46.6876 
90.7813 83.1254 51.4739 72.6857 111.583 54.7639 103.173 57.3658 55.4298 
[...]
POINT_DATA 1577
FIELD FieldData 7
id 1 1577 int
96 161 204 266 280 295 360 366 32 
37 43 200 145 9 235 300 371 34 
309 334 193 362 555 587 172 21 3 
130 181 206 217 240 274 305 313 356 
64 124 136 330 346 13 273 184 354 
1243 326 1181 5 51 70 78 84 119 
142 227 262 263 139 125 158 175 283 
365 40 347 246 162 377 103 1530 1076 
1244 41 272 95 97 151 167 250 253 
256 303 333 16 76 169 277 350 109 
120 260 291 322 1305 453 231 118 35 
68 73 106 111 153 205 289 293 320 
338 348 81 112 159 234 302 10 186 
223 290 261 147 11 22 44 65 94 
128 152 155 164 232 288 294 8 93 
100 335 173 91 304 221 247 1436 683 
323 66 357 18 20 24 27 79 80 
117 329 122 47 90 170 265 298 321 
352 59 315 98 75 194 195 1371 229 
299 249 218 56 87 104 121 188 192 
201 284 286 358 113 138 163 254 83 
63 144 244 267 370 1412 528 36 67 
99 108 137 226 233 331 351 312 134 
212 239 281 285 363 2 189 197 241 
279 287 14 215 711 171 19 72 82 
178 230 252 297 310 314 372 31 242 
1 185 208 101 38 116 85 191 359 
332 336 114 127 176 199 269 328 367 
373 42 102 150 196 306 48 238 258 
168 17 209 641 30 143 224 236 49 
140 45 123 149 210 213 219 222 245 
248 255 364 50 60 154 177 308 325 
278 88 110 344 156 7 15 28 57 
129 198 203 216 275 316 327 4 126 
228 270 69 133 141 157 376 131 1271 
1505 165 26 61 132 146 182 183 202 
292 339 341 355 378 23 160 180 243 
259 296 12 55 58 135 220 301 375 
1479 1459 311 174 39 46 62 89 148 
179 282 340 349 25 71 77 92 317 
337 33 86 211 307 264 318 343 369 
410 1542 696 225 166 268 29 53 54 
214 257 271 353 361 374 52 251 319 
324 115 187 237 276 345 74 934 680 
342 1443 411 701 798 1100 1482 1571 889 
1235 1307 1320 1091 539 643 726 1231 1203 
1067 1208 1390 737 1535 541 566 769 828 
1343 1553 509 1166 1551 995 423 710 1554 
1023 383 508 1239 397 1501 1171 735 1028 
417 746 515 707 1417 1152 412 546 973 
1103 1230 401 621 876 989 603 1400 393 
679 1386 960 1007 517 790 1421 628 606 
1281 1176 435 1288 725 682 1204 368 745 
1207 627 740 970 1049 481 1154 1190 1238 
1002 1223 636 1282 1356 1574 1306 386 1502 
1089 610 589 1321 6 916 1098 1205 1477 
644 821 1145 601 384 504 608 536 732 
810 850 691 1013 985 1368 519 1556 875 
482 530 1295 1011 777 105 1012 1532 429 
448 611 624 785 1155 629 1111 1259 1350 
409 1085 488 460 1322 1380 1444 674 1032 
660 767 1025 1512 522 1031 1253 1339 1511 
1003 808 545 793 1358 1391 605 917 1340 
503 1150 553 404 998 908 418 1168 107 
1180 1414 434 442 915 1005 1118 1328 531 
775 1269 507 562 1541 585 1372 1074 1336 
381 449 1529 961 812 706 612 1066 1264 
1285 616 1251 1327 1338 426 607 1133 1470 
602 860 866 895 950 939 1383 1447 1538 
708 1220 794 878 884 948 1009 1222 390 
838 1174 1189 1330 1428 1573 431 395 811 
1192 560 1299 1513 661 668 854 430 671 
1108 190 946 958 1053 559 1058 1157 768 
1063 1153 1504 547 1062 475 604 880 999 
1355 637 1258 748 1186 971 450 1040 457 
405 398 1575 1000 1266 1200 403 474 1156 
1430 1514 897 1046 996 1104 758 979 387 
1276 1043 1008 1114 1345 596 1309 1500 714 
997 677 1387 207 712 1394 413 780 836 
1075 416 1134 1273 1409 852 535 446 1377 
440 1527 1404 752 1468 584 1318 1381 565 
982 935 1047 1165 1233 529 532 689 1035 
1467 394 666 1130 975 1090 1373 1454 498 
987 1015 1315 675 1014 1101 779 890 1021 
1248 1485 543 485 1106 1374 486 1036 439 
1037 762 945 1296 391 1480 1092 1488 1228 
518 1123 1286 871 664 830 1446 1543 952 
638 631 736 757 1478 663 669 734 867 
1518 763 1170 1197 1520 525 665 1010 428 
902 1439 1099 802 1139 493 658 548 1369 
1473 402 1278 1310 649 1162 537 833 926 
716 1127 1362 1389 676 1547 1352 595 865 
1177 1277 1438 1017 623 913 814 981 639 
1549 1054 1218 516 791 807 1084 573 479 
1071 672 1080 1342 1254 885 1060 803 953 
1242 1528 520 888 909 1316 750 1050 630 
634 1016 686 1385 549 1135 1427 462 459 
1562 396 1496 1121 1148 809 978 1333 877 
896 468 1365 651 692 656 764 1044 1142 
1143 1138 1216 437 1457 659 931 1303 1540 
1126 1261 1120 1301 1533 967 776 385 380 
730 1024 433 1202 1357 577 1265 1324 1415 
1495 864 1132 1308 1526 969 1225 1030 1476 
1183 1312 572 813 957 747 874 1199 438 
494 502 1566 1422 943 1169 1237 513 1392 
1397 826 1167 1370 1440 642 408 1039 569 
1088 632 744 1319 1004 955 694 940 1313 
1045 788 1279 1419 1522 420 443 618 1226 
1366 1423 801 755 1052 894 919 427 1006 
1497 1367 1570 540 590 1105 491 815 1424 
893 1462 883 1051 1094 1236 1406 526 731 
844 954 717 1247 1072 719 1093 501 538 
1469 1149 715 781 1344 907 554 455 1095 
521 556 901 389 968 1112 1363 693 1534 
593 579 1402 753 900 1292 1326 461 609 
1249 399 424 1283 1332 1137 699 456 1113 
447 533 824 1274 831 870 1379 990 1448 
818 984 1160 1539 690 495 843 1182 891 
1503 463 1131 795 640 452 1359 796 842 
941 1102 1193 1109 567 1083 937 966 1210 
721 688 1256 1082 832 839 848 704 487 
741 879 1079 1472 1563 622 856 1163 1524 
1115 1187 822 933 1458 534 662 1567 400 
484 1393 1061 1198 477 903 524 1195 1460 
392 552 770 697 723 1097 928 1317 1196 
1275 1449 489 678 976 613 1164 1334 1499 
1260 419 1246 473 751 841 1471 1569 673 
414 1270 906 464 1078 684 782 432 861 
938 1486 506 1019 1565 1214 892 1284 965 
1224 600 1490 787 817 918 1122 1560 1335 
574 1212 1418 772 1250 1521 783 514 564 
834 1413 646 1410 1349 1376 863 930 925 
1323 670 1401 1405 421 576 1188 1361 923 
1206 1398 1525 1353 592 904 470 561 724 
921 1559 1561 1055 1411 786 1287 1116 1209 
1022 729 422 862 1136 1341 1346 1576 705 
1433 625 784 1298 1523 944 597 653 1129 
929 703 805 648 1442 1184 980 727 759 
1509 1048 480 1140 1128 1178 568 718 1407 
1550 756 872 1297 1426 1519 920 1219 1557 
379 792 835 857 695 853 1234 1147 749 
1536 542 466 527 1396 949 1179 932 591 
1348 1027 1211 582 655 1494 774 406 882 
483 1572 1069 914 887 436 1117 425 1020 
1498 647 911 1241 956 492 1158 570 1293 
557 1300 1077 472 1268 1429 575 709 451 
972 1262 1475 490 1034 1304 687 1213 1517 
1029 1435 804 1018 1065 1506 1548 511 1291 
881 1245 496 974 1257 761 571 827 1314 
1481 415 733 816 1552 620 1172 992 1096 
1546 1445 849 558 1280 845 1420 594 458 
959 1489 986 1229 1059 1289 617 588 1151 
868 469 851 619 497 444 512 1119 1227 
578 1001 983 1492 599 1107 1073 654 778 
563 1070 500 1453 1466 583 1491 963 1125 
1455 550 837 1451 1510 829 988 523 742 
1388 700 898 1042 1191 922 1378 1431 635 
720 1141 1441 1463 1465 551 1068 1564 912 
1057 994 645 825 1483 1232 467 1311 615 
722 633 1375 1351 899 1484 685 1215 1452 
1252 993 681 1144 471 1087 1173 1555 478 
977 760 806 1201 1416 698 454 1064 1026 
598 947 1159 1185 1240 964 754 886 1110 
936 586 927 1294 441 1161 657 1434 1487 
1461 1331 962 1493 445 820 581 991 1329 
799 1033 765 1325 1558 766 739 1456 580 
1516 1408 1086 702 823 869 1384 1272 773 
614 1464 1255 1537 626 1395 1263 388 1038 
910 1577 1360 1507 924 650 743 951 1425 
819 797 847 738 1217 1544 1124 1474 1337 
1175 1403 1354 855 652 1382 771 1545 407 
1568 1081 873 858 544 667 1515 499 859 
1056 1290 1531 1364 1267 713 382 1399 1437 
789 800 1432 1221 728 905 1302 510 505 
1347 1450 476 846 840 1146 465 1508 942 
1194 1041 
type 1 1577 int
1 1 1 1 1 1 1 1 1 
1 1 1 1 1 1 1 1 1 
1 1 1 1 1 1 1 1 1 
1 1 1 1 1 1 1 1 1 
1 1 1 1 1 1 1 1 1 
1 1 1 1 1 1 1 1 1 
1 1 1 1 1 1 1 1 1 
1 1 1 1 1 1 1 1 1 
1 1 1 1 1 1 1 1 1 
1 1 1 1 1 1 1 1 1 
1 1 1 1 1 1 1 1 1 
1 1 1 1 1 1 1 1 1 
1 1 1 1 1 1 1 1 1 
1 1 1 1 1 1 1 1 1 
1 1 1 1 1 1 1 1 1 
1 1 1 1 1 1 1 1 1 
1 1 1 1 1 1 1 1 1 
1 1 1 1 1 1 1 1 1 
1 1 1 1 1 1 1 1 1 
1 1 1 1 1 1 1 1 1 
1 1 1 1 1 1 1 1 1 
1 1 1 1 1 1 1 1 1 
1 1 1 1 1 1 1 1 1 
1 1 1 1 1 1 1 1 1 
1 1 1 1 1 1 1 1 1 
1 1 1 1 1 1 1 1 1 
1 1 1 1 1 1 1 1 1 
1 1 1 1 1 1 1 1 1 
1 1 1 1 1 1 1 1 1 
1 1 1 1 1 1 1 1 1 
1 1 1 1 1 1 1 1 1 
1 1 1 1 1 1 1 1 1 
1 1 1 1 1 1 1 1 1 
1 1 1 1 1 1 1 1 1 
1 1 1 1 1 1 1 1 1 
1 1 1 1 1 1 1 1 1 
1 1 1 1 1 1 1 1 1 
1 1 1 1 1 1 1 1 1 
1 1 1 1 1 1 1 1 1 
1 1 1 1 1 1 1 1 1 
1 1 1 1 1 1 1 1 1 
1 1 1 1 1 1 1 1 1 
1 1 1 1 1 1 1 1 1 
1 1 1 1 1 1 1 1 1 
1 1 1 1 1 1 1 1 1 
1 1 1 1 1 1 1 1 1 
1 1 1 1 1 1 1 1 1 
1 1 1 1 1 1 1 1 1 
1 1 1 1 1 1 1 1 1 
1 1 1 1 1 1 1 1 1 
1 1 1 1 1 1 1 1 1 
1 1 1 1 1 1 1 1 1 
1 1 1 1 1 1 1 1 1 
1 1 1 1 1 1 1 1 1 
1 1 1 1 1 1 1 1 1 
1 1 1 1 1 1 1 1 1 
1 1 1 1 1 1 1 1 1 
1 1 1 1 1 1 1 1 1 
1 1 1 1 1 1 1 1 1 
1 1 1 1 1 1 1 1 1 
1 1 1 1 1 1 1 1 1 
1 1 1 1 1 1 1 1 1 
1 1 1 1 1 1 1 1 1 
1 1 1 1 1 1 1 1 1 
1 1 1 1 1 1 1 1 1 
1 1 1 1 1 1 1 1 1 
1 1 1 1 1 1 1 1 1 
1 1 1 1 1 1 1 1 1 
1 1 1 1 1 1 1 1 1 
1 1 1 1 1 1 1 1 1 
1 1 1 1 1 1 1 1 1 
1 1 1 1 1 1 1 1 1 
1 1 1 1 1 1 1 1 1 
1 1 1 1 1 1 1 1 1 
1 1 1 1 1 1 1 1 1 
1 1 1 1 1 1 1 1 1 
1 1 1 1 1 1 1 1 1 
1 1 1 1 1 1 1 1 1 
1 1 1 1 1 1 1 1 1 
1 1 1 1 1 1 1 1 1 
1 1 1 1 1 1 1 1 1 
1 1 1 1 1 1 1 1 1 
1 1 1 1 1 1 1 1 1 
1 1 1 1 1 1 1 1 1 
1 1 1 1 1 1 1 1 1 
1 1 1 1 1 1 1 1 1 
1 1 1 1 1 1 1 1 1 
1 1 1 1 1 1 1 1 1 
1 1 1 1 1 1 1 1 1 
1 1 1 1 1 1 1 1 1 
1 1 1 1 1 1 1 1 1 
1 1 1 1 1 1 1 1 1 
1 1 1 1 1 1 1 1 1 
1 1 1 1 1 1 1 1 1 
1 1 1 1 1 1 1 1 1 
1 1 1 1 1 1 1 1 1 
1 1 1 1 1 1 1 1 1 
1 1 1 1 1 1 1 1 1 
1 1 1 1 1 1 1 1 1 
1 1 1 1 1 1 1 1 1 
1 1 1 1 1 1 1 1 1 
1 1 1 1 1 1 1 1 1 
1 1 1 1 1 1 1 1 1 
1 1 1 1 1 1 1 1 1 
1 1 1 1 1 1 1 1 1 
1 1 1 1 1 1 1 1 1 
1 1 1 1 1 1 1 1 1 
1 1 1 1 1 1 1 1 1 
1 1 1 1 1 1 1 1 1 
1 1 1 1 1 1 1 1 1 
1 1 1 1 1 1 1 1 1 
1 1 1 1 1 1 1 1 1 
1 1 1 1 1 1 1 1 1 
1 1 1 1 1 1 1 1 1 
1 1 1 1 1 1 1 1 1 
1 1 1 1 1 1 1 1 1 
1 1 1 1 1 1 1 1 1 
1 1 1 1 1 1 1 1 1 
1 1 1 1 1 1 1 1 1 
1 1 1 1 1 1 1 1 1 
1 1 1 1 1 1 1 1 1 
1 1 1 1 1 1 1 1 1 
1 1 1 1 1 1 1 1 1 
1 1 1 1 1 1 1 1 1 
1 1 1 1 1 1 1 1 1 
1 1 1 1 1 1 1 1 1 
1 1 1 1 1 1 1 1 1 
1 1 1 1 1 1 1 1 1 
1 1 1 1 1 1 1 1 1 
1 1 1 1 1 1 1 1 1 
1 1 1 1 1 1 1 1 1 
1 1 1 1 1 1 1 1 1 
1 1 1 1 1 1 1 1 1 
1 1 1 1 1 1 1 1 1 
1 1 1 1 1 1 1 1 1 
1 1 1 1 1 1 1 1 1 
1 1 1 1 1 1 1 1 1 
1 1 1 1 1 1 1 1 1 
1 1 1 1 1 1 1 1 1 
1 1 1 1 1 1 1 1 1 
1 1 1 1 1 1 1 1 1 
1 1 1 1 1 1 1 1 1 
1 1 1 1 1 1 1 1 1 
1 1 1 1 1 1 1 1 1 
1 1 1 1 1 1 1 1 1 
1 1 1 1 1 1 1 1 1 
1 1 1 1 1 1 1 1 1 
1 1 1 1 1 1 1 1 1 
1 1 1 1 1 1 1 1 1 
1 1 1 1 1 1 1 1 1 
1 1 1 1 1 1 1 1 1 
1 1 1 1 1 1 1 1 1 
1 1 1 1 1 1 1 1 1 
1 1 1 1 1 1 1 1 1 
1 1 1 1 1 1 1 1 1 
1 1 1 1 1 1 1 1 1 
1 1 1 1 1 1 1 1 1 
1 1 1 1 1 1 1 1 1 
1 1 1 1 1 1 1 1 1 
1 1 1 1 1 1 1 1 1 
1 1 1 1 1 1 1 1 1 
1 1 1 1 1 1 1 1 1 
1 1 1 1 1 1 1 1 1 
1 1 1 1 1 1 1 1 1 
1 1 1 1 1 1 1 1 1 
1 1 1 1 1 1 1 1 1 
1 1 1 1 1 1 1 1 1 
1 1 1 1 1 1 1 1 1 
1 1 1 1 1 1 1 1 1 
1 1 1 1 1 1 1 1 1 
1 1 1 1 1 1 1 1 1 
1 1 1 1 1 1 1 1 1 
1 1 1 1 1 1 1 1 1 
1 1 1 1 1 1 1 1 1 
1 1 1 1 1 1 1 1 1 
1 1 
i 3 1577 int
0 0 0 0 0 0 0 0 0 
0 0 0 0 0 0 0 0 0 
0 0 0 0 0 0 0 0 0 
0 0 0 0 0 0 0 0 0 
0 0 0 0 0 0 0 0 0 
0 0 0 0 0 0 0 1 0 
0 0 0 0 0 0 0 0 0 
0 0 0 0 0 0 0 0 0 
0 0 0 0 0 0 0 0 0 
0 0 0 0 0 0 0 0 0 
0 0 0 0 0 0 0 0 0 
0 0 0 0 0 0 0 0 0 
0 0 0 0 0 0 0 0 0 
0 0 0 0 0 0 0 0 0 
0 0 0 0 0 0 0 0 0 
0 0 0 0 0 0 0 0 0 
0 0 0 0 0 0 0 0 0 
0 0 0 0 0 0 0 0 0 
0 0 0 0 0 0 0 0 0 
0 0 0 0 0 0 0 0 0 
0 0 0 0 0 0 0 0 0 
0 0 0 0 0 0 0 0 0 
0 0 0 0 0 0 0 0 0 
0 0 0 0 0 0 0 0 0 
0 0 0 0 0 0 0 0 0 
0 0 0 0 0 0 0 0 0 
0 0 0 0 0 0 0 0 0 
0 0 0 0 0 0 0 0 0 
0 0 0 0 0 0 0 0 0 
0 0 0 0 0 0 0 0 0 
0 0 0 0 0 0 0 0 0 
0 0 0 0 0 0 0 0 0 
0 0 0 0 0 0 0 0 0 
0 0 0 0 0 0 0 0 0 
0 0 0 0 0 0 0 0 0 
0 0 0 0 0 0 0 0 0 
0 0 0 0 0 0 0 0 0 
0 0 0 0 0 0 0 0 0 
0 0 0 0 0 0 0 0 0 
0 0 0 0 0 0 0 0 0 
0 0 0 0 0 0 0 0 0 
0 0 0 0 0 0 0 0 0 
0 0 0 0 0 0 0 0 0 
0 0 0 0 0 0 0 0 0 
0 0 0 0 0 0 0 0 0 
0 0 0 0 0 0 0 0 0 
0 0 0 0 0 0 0 0 0 
0 0 0 0 0 0 0 0 0 
0 0 0 0 0 0 0 0 0 
0 0 0 0 0 0 0 0 0 
0 0 0 0 0 0 0 0 0 
0 0 0 0 0 0 0 0 0 
0 0 0 0 0 0 0 0 0 
0 0 0 0 0 0 0 0 0 
0 0 0 0 0 0 0 0 0 
0 0 0 0 0 0 0 0 0 
0 0 0 0 0 0 0 0 0 
-1 0 0 0 0 0 0 0 0 
0 0 0 0 0 0 0 0 0 
0 0 0 0 0 0 0 0 0 
0 0 0 0 0 0 0 0 0 
0 0 0 0 0 0 0 0 0 
0 0 0 0 0 0 0 0 0 
0 0 0 0 0 0 0 0 0 
0 0 0 0 0 0 0 0 0 
0 0 0 0 0 0 0 0 0 
0 0 0 0 0 0 0 0 0 
0 0 0 0 0 0 0 0 0 
0 0 0 0 0 0 0 0 0 
0 0 0 0 0 0 0 0 0 
0 0 0 0 0 0 0 0 0 
0 0 0 0 0 0 0 0 0 
0 0 0 0 0 0 0 0 0 
0 0 0 0 0 0 0 0 0 
0 0 0 0 0 0 0 0 0 
0 0 0 0 0 0 0 0 0 
0 0 0 0 0 0 0 0 0 
0 0 0 0 0 0 0 0 0 
0 0 0 0 0 0 0 0 0 
0 0 0 0 0 0 0 0 0 
0 0 0 0 0 0 0 0 0 
0 0 0 0 0 0 0 0 0 
0 0 0 0 0 0 0 0 0 
0 0 0 0 0 0 0 0 0 
0 0 0 0 0 0 0 0 0 
0 0 0 0 0 0 0 0 0 
0 0 0 0 0 0 0 0 0 
0 0 0 0 0 0 0 0 0 
0 0 0 0 0 0 0 0 0 
0 0 0 0 0 0 0 0 0 
0 0 0 0 0 0 0 0 0 
0 0 0 0 0 0 0 0 0 
0 0 0 0 0 0 0 0 0 
0 0 0 0 0 0 0 0 0 
0 0 0 0 0 0 0 0 0 
0 0 0 0 0 0 0 0 0 
0 0 0 0 0 0 0 0 0 
0 0 0 0 0 0 0 0 0 
0 0 0 0 0 0 0 0 0 
0 0 0 0 0 0 0 0 0 
0 0 0 0 0 0 0 0 0 
0 0 0 0 0 0 0 0 0 
0 0 0 0 0 0 0 0 0 
0 0 0 0 0 0 0 0 0 
0 0 0 0 0 0 0 0 0 
0 0 0 0 0 0 0 0 0 
0 0 0 0 0 0 0 0 0 
0 0 0 0 0 0 0 0 0 
0 0 0 0 0 0 0 0 0 
0 0 0 0 0 0 0 0 0 
0 0 0 0 0 0 0 0 0 
0 0 0 0 0 0 0 0 0 
0 0 0 0 0 0 0 0 0 
0 0 0 0 0 0 0 0 0 
0 0 0 0 0 0 0 0 0 
0 0 0 0 0 0 0 0 0 
0 0 0 0 0 0 0 0 0 
0 0 0 0 0 0 0 0 0 
0 0 0 0 0 0 0 0 0 
0 0 0 0 0 0 0 0 0 
0 0 0 0 0 0 0 0 0 
0 0 0 0 0 0 0 0 0 
0 0 0 0 0 0 0 0 0 
0 0 0 0 0 0 -1 0 0 
0 0 0 0 0 0 0 0 0 
0 0 0 0 0 0 0 0 0 
0 0 0 0 0 0 0 0 0 
0 0 0 0 0 0 0 0 0 
0 0 0 0 0 0 0 0 0 
0 0 0 0 0 0 0 0 0 
0 0 0 0 0 0 0 0 0 
0 0 0 0 0 0 0 0 0 
0 0 0 0 0 0 0 0 0 
0 0 0 0 0 0 0 0 0 
0 0 0 0 0 0 0 0 0 
0 0 0 0 0 0 0 0 0 
0 0 0 0 0 0 0 0 0 
0 0 0 0 0 0 0 0 0 
0 0 0 0 0 0 0 0 0 
0 0 0 0 1 0 0 0 0 
0 0 0 0 0 0 0 0 0 
0 0 0 0 0 0 0 0 0 
0 0 0 0 0 0 0 0 0 
0 0 0 0 0 0 0 0 0 
0 0 0 0 0 0 0 0 0 
0 0 0 0 0 0 0 0 0 
0 0 0 0 0 0 0 0 0 
0 0 0 0 0 0 0 0 0 
0 0 0 0 0 0 0 0 0 
0 0 0 0 0 0 0 0 0 
0 0 0 0 0 0 0 0 0 
0 0 0 0 0 0 0 0 0 
0 0 0 0 0 0 0 0 0 
0 0 0 0 0 0 0 0 0 
0 0 0 0 0 0 0 0 0 
0 0 0 0 0 0 0 0 0 
0 0 0 0 0 0 0 0 0 
0 0 0 0 0 0 0 0 0 
0 0 0 0 0 0 0 0 0 
0 0 0 0 0 0 0 0 0 
0 0 0 0 0 0 0 0 0 
0 0 0 0 0 0 0 0 0 
0 0 0 0 0 0 0 0 0 
0 0 0 0 0 0 0 0 0 
0 0 0 0 0 0 0 0 0 
0 0 0 0 0 0 0 1 0 
-1 0 0 0 0 0 0 0 0 
0 0 0 0 0 0 0 0 0 
0 0 0 0 0 0 0 0 0 
0 0 0 0 0 0 0 0 0 
0 0 0 0 0 0 0 0 0 
0 0 0 0 0 0 0 0 0 
0 0 0 0 0 0 0 0 0 
0 0 0 0 0 0 0 0 0 
0 0 0 0 0 0 0 0 0 
0 0 0 0 0 0 0 0 0 
0 0 0 0 0 0 0 0 0 
0 0 0 0 0 0 0 0 0 
0 0 0 0 0 0 0 0 0 
0 0 0 0 0 0 0 0 0 
0 0 0 0 0 0 0 0 0 
0 0 0 0 0 0 0 0 0 
0 0 0 0 0 0 0 0 0 
0 0 0 0 0 0 0 0 0 
0 0 0 0 0 0 0 0 0 
0 0 0 0 0 0 0 0 0 
0 0 0 0 0 0 0 0 0 
0 0 0 0 0 0 0 0 0 
0 0 0 0 0 0 0 0 0 
0 0 0 0 0 0 0 0 0 
0 0 0 0 0 0 0 0 0 
0 0 0 0 0 0 0 0 0 
0 0 0 0 0 0 0 0 0 
0 0 0 0 0 0 0 0 0 
0 0 0 0 0 0 0 0 0 
0 0 0 0 0 0 0 0 0 
0 0 0 0 0 0 0 0 0 
0 0 0 0 0 0 0 0 0 
0 0 0 0 0 0 0 0 0 
0 0 0 0 0 0 0 0 0 
0 0 0 0 0 0 0 0 0 
0 0 0 0 0 0 0 0 0 
0 0 0 0 0 0 0 0 0 
0 0 0 0 0 0 0 0 0 
0 0 0 0 0 0 0 0 0 
0 0 0 0 0 0 0 0 0 
0 0 0 0 0 0 0 0 0 
0 0 0 0 0 0 0 0 0 
0 0 0 0 0 0 0 0 0 
0 0 0 0 0 0 0 0 0 
0 0 0 0 0 0 0 0 0 
0 0 0 0 0 0 0 0 0 
0 0 0 0 0 0 0 0 0 
0 0 0 0 0 0 0 0 0 
0 0 0 0 0 0 0 0 0 
0 0 0 0 0 0 0 0 0 
0 0 0 0 0 0 0 0 0 
0 0 0 0 0 0 0 0 0 
0 0 0 0 0 0 0 0 0 
0 0 0 0 0 0 0 0 0 
0 0 0 0 0 0 0 0 0 
0 0 0 0 0 0 0 0 0 
0 0 0 0 0 0 0 0 0 
0 0 0 0 0 0 0 0 0 
0 0 0 0 0 0 0 0 0 
0 0 0 0 0 0 0 0 0 
0 0 0 -1 0 0 0 0 0 
0 0 0 0 0 0 0 0 0 
0 0 0 0 0 0 0 0 0 
0 0 0 0 0 0 0 0 0 
0 0 0 0 0 0 0 0 0 
0 0 0 0 0 0 0 0 0 
0 0 0 0 0 0 0 0 0 
0 0 0 0 0 0 0 0 0 
0 0 0 0 0 0 0 0 0 
0 0 0 0 0 0 0 0 0 
0 0 0 0 0 0 0 0 0 
0 0 0 0 0 0 0 0 0 
0 0 0 0 0 0 0 0 0 
0 0 0 0 0 0 0 0 0 
0 0 0 0 0 0 0 0 0 
0 0 0 0 0 0 0 0 0 
0 0 0 0 -1 0 0 -1 0 
0 0 0 0 0 0 0 0 0 
0 0 0 0 0 0 0 0 0 
0 0 0 0 0 0 0 0 0 
0 0 0 0 0 0 0 0 0 
0 0 0 0 0 0 0 0 0 
0 0 0 0 0 0 0 0 0 
0 0 0 0 0 0 0 0 0 
0 0 0 0 0 0 0 0 0 
0 0 0 0 0 0 0 0 0 
0 0 0 0 0 0 0 0 0 
0 0 0 0 0 0 0 0 0 
0 0 0 0 0 0 0 0 0 
0 0 0 0 0 0 0 0 0 
0 0 0 0 0 0 0 0 0 
0 0 0 0 0 0 0 0 0 
0 0 0 0 0 0 0 0 0 
0 0 0 0 0 0 0 0 0 
0 0 0 0 0 0 0 -1 0 
0 0 0 0 0 0 0 0 0 
0 0 0 0 0 0 0 0 0 
0 0 0 0 0 0 0 0 0 
0 0 0 0 0 0 0 0 0 
0 0 0 0 0 0 0 0 0 
0 0 0 0 0 0 0 0 0 
0 0 0 0 0 0 0 0 0 
0 0 0 0 0 0 0 0 0 
0 0 0 0 0 0 0 0 0 
0 0 0 0 0 0 0 0 0 
0 0 0 0 0 0 0 0 0 
0 0 0 0 0 0 0 0 0 
0 0 0 0 0 0 0 0 0 
0 0 0 0 0 0 0 0 0 
0 0 0 0 0 0 0 0 0 
0 0 0 0 0 0 0 0 0 
0 0 0 0 0 0 0 0 0 
0 0 0 0 0 0 0 0 0 
0 0 0 0 0 0 0 0 0 
0 0 0 0 0 0 0 0 0 
0 0 0 0 0 0 0 0 0 
0 0 0 0 0 0 0 0 0 
0 0 0 0 0 0 0 0 0 
0 0 0 0 0 0 0 0 0 
0 0 0 0 0 0 0 0 0 
0 0 0 0 0 0 0 0 0 
0 0 0 0 0 0 0 0 0 
0 0 0 0 0 0 0 0 0 
0 0 0 0 0 0 0 0 0 
0 0 0 0 0 0 0 0 0 
0 0 0 0 0 0 0 0 0 
0 0 0 0 0 0 0 0 0 
0 0 0 0 0 0 0 0 0 
0 0 0 0 0 0 0 0 0 
0 0 0 0 0 0 0 0 0 
0 0 0 0 0 0 0 0 0 
0 0 0 0 0 0 0 0 0 
0 0 0 0 0 0 0 0 0 
0 0 0 0 0 0 0 0 0 
0 0 0 0 0 0 0 0 0 
0 0 0 0 0 0 0 0 0 
0 0 0 0 0 0 0 0 0 
0 0 0 0 0 0 0 0 0 
0 0 0 0 0 0 0 0 0 
0 0 0 0 0 0 0 0 0 
0 0 0 0 0 0 0 0 0 
0 0 0 0 0 0 0 0 0 
0 0 0 0 0 0 0 0 0 
0 0 0 0 0 0 0 0 0 
0 0 0 0 0 0 1 0 0 
0 0 0 0 0 0 0 0 0 
0 0 0 0 0 0 0 0 0 
0 0 0 0 0 0 0 0 0 
0 0 0 0 0 0 0 0 0 
0 0 0 0 0 0 0 0 0 
0 0 0 0 0 0 0 0 0 
0 0 0 0 0 0 0 0 0 
0 0 0 0 0 0 0 0 0 
0 0 0 0 0 0 0 0 0 
0 0 0 0 0 0 0 0 0 
0 0 0 0 0 0 0 0 0 
0 0 0 0 0 0 0 0 0 
0 0 0 0 0 0 0 0 0 
0 0 0 0 0 0 0 0 0 
0 0 0 0 0 0 0 0 0 
0 0 0 0 0 0 0 0 0 
0 0 0 0 0 0 0 0 0 
0 0 0 0 0 0 0 0 0 
0 0 0 0 0 0 0 0 0 
0 0 0 0 0 0 0 0 0 
0 0 0 0 0 0 0 0 0 
0 0 0 0 0 0 0 0 0 
0 0 0 0 0 0 0 0 0 
0 0 0 0 0 0 0 0 0 
0 0 0 0 0 0 0 0 0 
0 0 0 0 0 0 0 0 0 
0 0 0 0 0 0 0 0 0 
0 0 0 0 0 0 0 0 0 
0 0 0 0 0 0 0 0 0 
0 0 0 0 0 0 0 0 0 
0 0 0 0 0 0 0 0 0 
0 0 0 0 0 0 0 0 0 
0 0 0 0 0 0 0 0 0 
0 0 0 0 0 0 0 0 0 
0 0 0 0 0 0 0 0 0 
0 0 0 0 0 0 0 0 0 
0 0 0 0 0 0 0 0 0 
0 0 0 0 0 0 0 0 0 
0 0 0 0 0 0 0 0 0 
0 0 0 0 0 0 0 0 0 
0 0 0 0 0 0 0 0 0 
0 0 0 0 0 0 0 0 0 
0 0 0 0 0 0 0 0 0 
0 0 0 0 0 0 0 0 0 
0 0 0 0 0 0 0 0 0 
0 0 0 0 0 0 0 0 0 
0 0 0 0 0 0 0 0 0 
0 0 0 0 0 0 0 0 0 
0 0 0 0 0 0 0 0 0 
0 0 0 0 0 0 0 0 0 
0 0 0 0 0 0 0 0 0 
0 0 0 0 0 0 0 0 0 
0 0 0 0 0 0 0 0 0 
0 0 0 0 0 0 0 0 0 
0 0 0 0 0 0 0 0 0 
0 0 0 0 0 0 0 0 0 
0 0 0 0 0 0 0 0 0 
0 0 0 0 0 0 0 0 0 
0 0 0 0 0 0 0 0 0 
0 0 0 0 0 0 0 0 0 
0 0 0 0 0 0 0 0 0 
0 0 0 0 0 0 0 0 0 
0 0 0 0 0 0 0 0 0 
0 0 0 0 0 0 0 0 0 
0 0 0 0 0 0 0 0 0 
0 0 0 0 0 0 0 0 0 
0 0 0 0 0 0 0 0 0 
0 0 0 0 0 0 0 0 0 
0 0 0 0 0 0 0 0 0 
0 0 0 0 0 0 0 0 0 
0 0 0 0 0 0 0 0 0 
0 0 0 0 0 0 0 0 0 
0 0 0 0 0 0 0 0 0 
0 0 0 0 0 0 0 0 0 
0 0 0 0 0 0 0 0 0 
0 0 0 0 0 0 0 0 0 
0 0 0 0 0 0 0 0 0 
0 0 0 0 0 0 0 0 0 
0 0 0 0 0 0 0 0 0 
0 0 0 0 0 0 0 0 0 
0 0 0 0 0 0 0 0 0 
0 0 0 0 0 0 0 0 0 
0 0 0 0 0 0 0 0 0 
0 0 0 0 0 0 0 0 0 
0 0 0 0 0 0 0 0 0 
0 0 0 0 0 0 0 0 0 
0 0 0 0 0 0 0 0 0 
0 0 0 0 0 0 0 0 0 
0 0 0 0 0 0 0 0 0 
0 -1 0 0 0 0 0 0 0 
0 0 0 0 0 0 0 0 0 
0 0 0 0 0 0 0 0 0 
0 0 0 0 0 0 0 0 0 
0 0 0 0 0 0 0 0 0 
0 0 0 0 0 0 0 0 0 
0 0 0 0 0 0 0 0 0 
0 0 0 0 0 0 0 0 0 
0 0 0 0 0 0 0 0 0 
0 0 0 0 0 0 0 0 0 
0 0 0 0 0 0 0 0 0 
0 0 0 0 0 0 0 0 0 
0 0 0 0 0 0 0 0 0 
0 0 0 0 0 0 0 1 0 
0 0 0 0 0 0 0 0 0 
0 0 0 0 0 0 0 0 0 
0 0 0 0 0 0 0 0 0 
0 0 0 0 0 0 0 0 0 
0 0 0 0 0 0 0 0 0 
0 0 0 0 0 0 0 0 0 
0 0 0 0 0 0 0 0 0 
0 0 0 0 0 0 0 1 0 
0 0 0 0 0 0 0 0 0 
0 0 0 0 0 0 0 0 0 
0 0 0 0 0 0 0 0 0 
0 0 0 0 0 0 0 0 0 
0 0 0 0 0 0 0 0 0 
0 0 0 0 0 0 0 0 0 
0 0 0 0 0 0 0 0 0 
0 0 0 0 0 0 0 0 0 
0 0 0 0 0 0 0 0 0 
0 0 0 0 0 0 0 0 0 
0 0 0 0 0 0 0 0 0 
0 0 0 0 0 0 0 0 0 
0 0 0 0 0 0 0 0 0 
0 0 0 0 0 0 0 0 0 
0 0 0 0 0 0 0 0 0 
0 0 0 0 0 0 0 0 0 
0 0 0 0 0 0 0 0 0 
0 0 0 0 0 0 0 0 0 
0 0 0 0 0 0 0 0 0 
0 0 0 0 0 0 0 0 0 
0 0 0 0 0 0 0 0 0 
0 0 0 0 0 0 0 0 0 
1 0 0 0 0 0 0 0 0 
0 0 0 0 0 0 0 0 0 
0 0 0 0 0 0 0 0 0 
0 0 0 0 0 0 0 0 0 
0 0 0 0 0 0 0 0 0 
0 0 0 0 0 0 0 0 0 
0 0 0 0 0 0 0 0 0 
0 0 0 0 0 0 0 0 0 
0 0 0 0 0 0 0 0 0 
0 0 0 0 0 0 0 0 0 
0 0 0 0 0 0 0 0 0 
0 0 0 0 0 0 0 0 0 
0 0 0 0 0 0 0 0 0 
0 0 0 0 0 0 0 0 0 
0 0 0 0 0 0 0 0 0 
0 0 0 0 0 0 0 0 0 
0 0 0 0 0 0 0 0 0 
0 0 0 0 0 0 0 0 0 
0 0 0 0 0 0 0 0 0 
0 0 0 0 0 0 0 0 0 
0 0 0 0 0 0 0 0 0 
0 0 0 0 0 0 0 0 0 
0 0 0 0 0 0 0 0 0 
0 0 0 0 0 0 0 0 0 
0 0 0 0 0 0 0 0 0 
0 0 0 0 0 0 0 0 0 
0 0 0 0 0 0 0 0 0 
0 0 0 0 0 0 0 0 0 
0 0 0 0 0 0 0 0 0 
0 0 0 0 0 0 0 0 0 
0 0 0 0 0 0 0 0 0 
0 0 0 0 0 0 0 0 0 
0 0 0 0 0 0 0 0 0 
0 0 0 0 0 0 0 0 0 
0 0 0 0 0 0 0 0 0 
0 0 0 0 0 0 0 0 0 
0 0 0 0 0 0 0 0 0 
0 0 0 0 0 0 0 0 0 
0 0 0 0 0 0 0 0 0 
0 0 0 0 0 0 0 0 0 
0 0 0 0 0 0 0 0 0 
0 0 0 0 0 0 0 0 0 
0 0 0 0 0 0 0 0 0 
0 0 0 0 0 0 0 0 0 
0 0 0 0 0 0 0 0 0 
0 0 0 0 0 0 0 0 0 
0 0 0 0 0 0 0 0 0 
0 0 0 0 0 0 0 0 0 
0 0 0 0 0 0 0 0 0 
0 0 0 0 0 0 0 0 0 
0 0 0 0 0 0 0 -1 0 
0 -1 0 0 -1 0 0 0 0 
1 0 0 0 0 0 0 0 0 
0 0 0 0 0 0 0 0 0 
0 0 0 0 0 0 0 0 0 
0 0 0 0 0 0 0 0 0 
0 0 0 0 0 0 0 0 0 
0 0 0 0 0 0 0 0 0 
1 0 0 0 0 0 0 0 0 
0 0 0 0 0 0 0 0 0 
0 0 0 0 0 0 0 0 0 
0 0 0 0 0 0 0 0 0 