# vtk DataFile Version 4.0
Generated by LIGGGHTS
ASCII
DATASET POLYDATA
POINTS 2000 float
-100.129 -85.2256 9.91228 -90.1887 -103.158 9.91754 -108.803 -133.21 9.91897 
-120.804 -117.261 9.91849 -88.9235 -131.486 9.91771 -128.61 -135.627 9.91446 
-128.105 -98.6845 9.91876 -109.276 -102.009 15.6447 -115.546 -129.498 28.8767 
-98.1765 -117.706 21.0026 -131.721 -117.82 28.3166 -121.604 -100.874 31.2995 
-96.4802 -135.178 30.4948 -43.4324 -113.659 9.91877 -44.4282 -133.594 9.92184 
-55.0893 -91.2321 9.91877 -61.4985 -122.143 9.91716 -70.2553 -104.21 9.9157 
-59.5875 -112.129 27.0758 -78.757 -121.369 23.7928 -57.9488 -135.28 24.5124 
-77.3715 -140.657 28.7365 -70.7858 -139.809 9.91707 -27.4599 -96.0026 9.91622 
8.58796 -102.489 9.91877 -10.0423 -137.159 9.91895 27.7509 -96.9156 9.91604 
-8.02999 -91.4364 9.91794 21.8803 -124.672 9.91913 -26.204 -125.445 9.92185 
21.9278 -103.926 27.6704 2.19247 -121.393 9.91923 19.7498 -123.653 29.7382 
7.38428 -138.25 19.5896 13.8173 -86.6096 21.968 35.1878 -86.4574 25.1973 
81.3513 -88.3652 9.91872 38.5506 -113.698 9.91797 49.1301 -93.9898 9.91876 
37.2487 -129.864 21.5493 69.8938 -117.833 24.795 141.011 -100.229 26.5912 
119.234 -123.846 9.91756 136.906 -110.401 9.91817 118.027 -103.925 9.917 
101.377 -114.932 9.91864 101.028 -133.686 25.41 121.238 -100.364 29.2879 
100.171 -95.0096 9.91903 136.738 -128.518 18.2893 135.702 -90.4769 9.91832 
122.294 -120.286 29.3148 102.285 -94.1245 29.7469 103.707 -113.823 32.6293 
-95.1841 -30.6323 25.8436 -124.289 -57.1885 9.92163 -93.3942 -56.4963 24.21 
-140.583 -45.6609 9.91995 -118.295 -38.1507 9.9185 -106.546 -66.3272 9.91903 
-91.624 -42.125 9.91868 -114.906 -49.6702 25.8608 -111.026 -78.3993 25.1698 
-129.849 -63.4794 28.0304 -130.994 -37.861 25.5914 -134.82 -74.1457 9.91783 
-130.254 -83.4097 26.9934 -113.778 -31.0916 33.0861 -81.3485 -64.56 9.91847 
-38.8544 -79.6194 9.91614 -33.332 -58.1736 9.91896 -62.5852 -72.7339 9.91877 
-60.0201 -41.2211 24.7948 -48.1702 -74.037 26.655 -26.4301 -40.2129 15.2234 
11.4419 -55.5568 9.90849 -8.29812 -58.4815 9.91478 -4.75557 -38.8408 9.91782 
3.09384 -74.8652 9.917 26.4975 -76.9969 9.91931 -19.4253 -75.0511 9.91877 
12.6936 -59.33 29.4514 -20.7819 -56.4656 25.345 -5.54668 -44.1345 29.1445 
-26.6789 -40.1398 35.1801 63.2741 -79.9073 9.91877 45.217 -72.4401 15.1309 
61.26 -60.0513 9.91733 79.4643 -68.2328 9.91877 31.2939 -57.6228 9.91988 
71.0986 -37.011 9.91828 46.7102 -53.5356 21.9217 72.4345 -51.2019 23.8857 
57.8121 -37.1645 24.8137 31.4739 -65.942 28.0637 86.5979 -49.5909 9.91911 
98.7493 -77.4681 19.3331 111.061 -64.8914 9.91885 99.2959 -34.1935 9.92073 
130.89 -62.617 9.91742 116.821 -84.0024 9.91877 119.011 -46.582 9.91453 
135.19 -52.9737 27.4184 133.245 -76.5536 24.0045 129.579 -30.7737 15.9706 
117.05 -81.5769 34.5292 133.764 -34.6086 35.103 -134.041 -25.8861 9.91778 
-111.242 7.18137 9.9193 -96.1848 -5.92236 9.92044 -124.017 -8.15641 9.91781 
-85.8703 -23.0129 9.91919 -109.173 -18.6332 18.1827 -115.796 -2.01742 27.0344 
-112.832 17.7129 26.8035 -128.051 22.5653 9.91877 -139.114 0.894845 33.115 
-108.715 27.5141 9.9163 -82.4437 -14.5817 27.6818 -34.398 -22.6957 9.91928 
-50.2239 4.89392 9.91951 -31.0484 17.0486 9.91737 -31.8484 -2.89728 9.91877 
-78.0195 19.958 24.7993 -43.3937 15.3315 25.5018 -55.3217 -6.60106 25.4207 
24.457 -26.7542 24.7972 -14.4807 -21.4123 9.91877 -13.5407 7.47744 10.4134 
9.30389 5.83397 9.91876 19.0347 7.24748 30.7391 29.2184 4.5008 9.91874 
55.9538 -24.01 9.9187 38.4486 10.8099 33.6931 78.8014 24.0931 23.8866 
47.256 -4.04447 9.91884 45.6373 15.8487 9.91877 64.788 21.4716 9.91862 
82.1026 10.2382 9.91188 52.9958 23.6991 29.1516 83.7981 -21.6138 9.91969 
140.808 -17.9061 26.7543 101.57 -12.5299 9.91901 140.03 0.568309 9.919 
124.825 -12.3617 9.91776 113.266 -21.8018 23.1716 112.99 16.9513 24.7982 
-93.0146 66.3083 9.91865 -115.196 46.3888 9.91729 -95.2363 46.4735 9.91876 
-137.063 77.4609 9.91776 -135.375 57.5718 9.91831 -126.494 38.2987 24.2447 
-86.8774 81.7239 21.0116 -85.0742 53.8349 29.6408 -140.391 38.2528 9.91876 
-107.781 35.2598 34.857 -45.4262 30.8974 9.91877 -30.2678 75.5612 24.7935 
-60.1806 65.3 9.92315 -59.1887 45.3581 9.91969 -30.3211 43.9436 9.91881 
-76.9469 54.4683 9.91877 -65.0909 74.0104 27.2067 -61.1707 50.2559 29.1665 
-69.9741 82.695 9.91721 18.6881 75.6871 9.91381 0.371066 67.7638 9.91801 
0.320056 36.148 24.794 16.5051 66.9709 27.7249 30.8125 53.1378 26.2354 
31.4486 41.6678 9.91695 50.343 35.2446 9.91877 68.8122 42.8042 9.91877 
71.5059 62.579 9.91652 34.796 63.9039 9.91522 67.3185 39.2377 29.9558 
47.7314 42.9521 29.1108 53.0314 55.023 9.91877 69.9429 58.8316 32.6624 
33.3843 30.103 34.3355 84.4526 51.976 20.7868 87.4933 68.2929 31.8754 
87.3787 35.4879 9.92026 128.56 66.0559 9.91877 90.8649 67.439 9.91856 
109.593 74.3393 9.91887 103.589 47.1305 9.9145 123.546 46.744 9.91666 
104.174 59.1829 25.8038 132.648 50.192 27.3409 119 72.4428 27.4204 
135.686 83.3859 27.1424 -90.5083 97.9147 9.91902 -115.087 117.803 24.7947 
-139.162 97.3092 9.91877 -84.819 126.94 9.91877 -38.0777 119.324 9.9156 
-54.3049 130.939 9.91911 -32.6051 110.358 26.8792 -41.6023 135.275 24.6917 
-66.8645 108.351 33.435 -28.2628 136.701 9.91762 20.5623 132.292 9.92063 
-1.9757 89.6901 9.92289 0.320863 127.784 9.918 -6.67408 109.088 9.91788 
23.076 95.1515 9.92045 9.70797 96.3065 24.7031 13.0096 112.38 9.91676 
-15.9806 123.226 20.4899 -2.63456 111.304 29.3375 12.473 123.962 26.1574 
25.2311 108.399 28.0456 27.0057 139.317 34.6676 -4.24502 130.386 34.9593 
48.7293 140.679 9.9187 67.0194 132.691 9.91438 32.967 112.484 9.91754 
51.2708 120.438 9.91646 36.8134 128.674 20.9328 54.079 88.9524 24.7968 
70.4401 119.822 24.7743 56.3299 132.546 30.888 83.6445 121.655 9.91904 
88.3834 84.65 19.7157 90.6694 140.336 9.9185 85.3747 101.774 9.91809 
125.911 85.8325 9.91709 101.728 113.217 9.91867 130.264 136.56 9.91894 
110.627 140.148 9.92159 103.461 93.3334 9.92655 135.305 117.246 9.91661 
99.7815 128.498 23.4033 118.446 123.159 18.8028 119.77 104.776 11.1534 
133.693 131.218 28.8456 114.958 134.227 35.0393 -90.6966 -118.328 39.4979 
-131.535 -134.059 39.9195 -120.296 -118.266 44.6768 -104.693 -130.258 48.0052 
-121.976 -133.525 57.4332 -129.633 -117.004 65.6049 -133.869 -137.397 73.6344 
-95.8712 -87.0715 82.4841 -138.699 -107.54 80.6582 -92.6192 -130.733 63.889 
-45.8586 -123.872 35.5578 -44.9522 -91.6161 35.5409 -84.398 -113.588 57.8404 
-82.1908 -134.675 47.1575 -44.4736 -117.045 54.2614 -34.5434 -100.881 65.4483 
-67.3175 -129.433 59.3885 -70.9066 -119.043 41.9906 -50.3868 -96.6151 54.0833 
-84.5015 -97.852 70.1227 -64.8453 -109.641 58.5155 -42.8276 -136.602 50.6274 
-63.466 -140.226 43.0451 -54.1181 -120.492 71.3902 -76.3292 -114.227 78.075 
-61.0483 -101.514 76.3439 -61.2635 -140.258 75.0302 -42.1846 -136.473 70.5743 
-38.9731 -88.5213 83.4336 -79.7762 -133.864 78.8415 -30.3262 -120.224 67.9779 
-43.2083 -108.003 82.4944 -79.2465 -85.3549 37.9193 -32.247 -131.774 87.2298 
-13.8901 -110.155 38.8333 20.0116 -113.185 46.738 8.5096 -136.954 39.4755 
10.4891 -127.465 56.9195 10.5657 -108.714 63.7485 -8.15539 -139.089 57.5625 
-3.75262 -87.0441 62.9969 14.9149 -94.2904 50.653 3.19203 -134.495 74.1116 
-16.7204 -135.317 75.1913 14.0574 -90.5654 71.2737 24.8825 -125.523 70.6139 
30.4967 -107.983 62.9098 32.9896 -96.2991 42.4254 36.7371 -114.846 35.4019 
44.6627 -135.823 40.9377 58.5891 -131.95 54.6933 40.2956 -124.174 56.5466 
64.792 -119.963 69.3809 48.0703 -107.053 49.8606 47.9776 -99.273 68.2357 
71.5081 -105.371 57.5349 43.2025 -117.399 75.0923 30.9014 -88.1184 60.8913 
71.1132 -138.873 68.6187 31.4906 -96.3275 79.0851 53.1874 -134.641 76.3173 
73.2213 -128.326 85.4278 31.1258 -140.659 82.0341 81.5291 -126.984 56.4406 
140.631 -110.896 50.6606 140.36 -130.231 56.7008 87.7456 -98.7572 47.9974 
92.2944 -137.578 42.936 129.787 -135.038 40.4724 101.56 -112.466 52.4245 
120.986 -113.078 47.8812 110.643 -129.753 42.4541 129.276 -94.9575 46.7379 
100.79 -131.014 59.761 109.39 -94.5514 48.3951 120.662 -129.155 59.7041 
98.49 -97.5095 65.278 114.503 -109.26 67.273 110.622 -128.441 76.9331 
91.7154 -115.809 69.4629 116.149 -89.5766 70.1244 133.282 -124.068 74.3117 
131.979 -91.1727 82.1713 104.205 -111.033 84.2767 124.114 -110.253 85.4282 
-123.295 -82.9218 61.2286 -124.14 -52.0821 43.39 -99.5134 -44.8205 39.197 
-106.474 -63.4544 37.5837 -130.976 -33.4027 45.0467 -101.591 -56.148 55.5013 
-134.236 -41.7914 62.8526 -92.2496 -68.4531 68.1387 -86.4985 -49.151 79.8555 
-136.49 -55.0311 77.6031 -105.451 -55.358 79.0161 -134.215 -34.2659 81.34 
-93.0621 -68.1179 88.0789 -31.7856 -67.1553 56.7367 -83.3881 -52.2519 48.3115 
-65.4819 -58.1004 54.8991 -38.8555 -33.348 51.4677 -60.6657 -83.6557 67.4495 
-55.3675 -41.5066 59.4187 -66.9815 -44.9673 80.0956 -75.0927 -40.7462 62.354 
-40.6237 -37.0323 72.0871 -53.1085 -74.433 83.4377 -67.1606 -63.9411 73.9093 
-49.9829 -54.7334 83.8548 -77.7243 -80.5222 77.3415 -2.5897 -69.2095 37.6493 
22.1521 -79.9316 38.8262 16.4031 -56.4665 64.0653 -10.703 -40.3957 48.9696 
-22.8877 -34.0438 63.4464 -4.35122 -28.7251 68.6026 69.2579 -41.1921 40.8563 
59.7306 -74.2531 46.8638 75.3041 -46.7521 61.7663 44.5318 -42.8297 48.452 
59.801 -34.6495 58.3692 65.8397 -61.863 78.9727 41.7816 -76.8752 76.7279 
76.4029 -45.4078 83.0812 50.1402 -51.8023 71.8651 41.9084 -33.2441 69.6445 
62.4124 -32.1081 77.9926 103.013 -50.1996 40.7612 93.179 -80.7301 54.6211 
137.383 -50.1743 47.059 132.697 -69.0271 42.4814 94.364 -46.4417 74.4134 
119.239 -78.1399 54.065 85.1799 -62.9493 67.9701 124.073 -73.2375 78.4031 
128.118 -47.5512 64.9207 100.284 -77.8241 73.0453 93.2471 -64.6004 86.2362 
-98.4484 -6.06927 36.0285 -104.82 10.5117 45.1288 -125.126 -15.5384 38.359 
-104.96 -22.9663 65.9098 -124.67 8.52858 44.5749 -103.075 11.9073 64.96 
-122.919 13.637 63.7877 -93.2922 26.5279 55.5318 -114.905 7.0281 80.8343 
-95.7641 4.27598 85.7711 -122.905 25.1493 84.3792 -86.567 4.69983 55.0592 
-128.738 -6.55833 85.5463 -84.6449 16.9139 70.7356 -138.124 14.8143 76.6577 
[...]
POINT_DATA 2000
FIELD FieldData 7
id 1 2000 int
41 77 196 230 301 308 411 107 205 
282 106 55 343 53 85 259 296 439 
275 328 424 223 311 157 185 265 297 
299 410 440 49 172 336 218 351 95 
300 376 408 437 22 380 59 139 141 
164 29 30 201 379 252 335 47 283 
36 142 215 338 414 456 171 32 161 
261 453 395 381 80 246 112 143 231 
10 211 243 115 208 212 232 365 48 
167 45 281 422 397 113 174 222 318 
108 354 285 317 149 200 434 117 135 
262 286 314 334 274 213 86 183 114 
239 342 346 413 66 147 238 99 412 
320 443 225 50 69 345 20 46 220 
11 37 358 390 416 122 359 123 256 
264 347 430 54 204 197 298 97 178 
271 404 15 84 199 362 400 458 234 
184 378 266 450 187 8 279 321 399 
250 384 387 224 195 240 12 186 133 
111 131 132 389 419 229 369 375 72 
315 449 233 253 34 102 154 221 330 
173 352 58 329 138 6 444 179 168 
455 295 385 27 88 62 169 302 339 
341 79 83 426 294 433 127 128 78 
33 110 227 396 421 18 251 242 429 
366 344 160 96 209 288 367 370 452 
116 198 284 247 447 438 442 166 401 
448 1283 852 1551 856 1025 371 273 361 
304 71 82 119 130 350 319 383 409 
292 1007 1248 1875 1713 1903 903 1746 290 
1938 9 1533 2 241 355 156 64 76 
210 293 1584 1870 1852 1011 418 39 216 
263 269 144 165 382 42 74 332 364 
1712 1941 1809 1945 949 323 244 1861 137 
38 51 125 394 445 81 155 249 272 
436 1279 1425 1934 701 720 1921 1306 1709 
5 245 276 425 331 388 307 553 1536 
1779 655 1754 1406 23 65 163 415 191 
236 1673 1716 1727 1791 662 643 911 417 
75 28 226 353 1158 392 14 44 306 
118 89 327 931 1602 120 1654 25 180 
313 398 189 188 1315 1641 1867 1919 1953 
255 309 405 26 278 129 322 303 761 
764 1565 43 739 1505 1015 152 57 151 
162 68 158 214 257 175 176 368 427 
864 1210 874 1539 793 1282 1363 121 4 
217 357 94 190 202 349 402 1858 571 
591 746 603 268 219 7 100 333 104 
457 70 454 63 1386 1764 1001 752 153 
623 432 582 386 291 277 326 19 441 
1404 839 3 254 228 393 145 177 377 
140 1045 1599 1674 1396 1956 420 1457 1 
270 109 170 91 312 93 909 1030 1693 
451 260 61 373 67 267 60 87 316 
372 1650 467 280 73 789 235 374 16 
103 194 148 310 356 1079 1951 1403 1414 
661 206 1123 337 35 258 24 159 182 
435 340 1427 1973 1111 1817 105 126 360 
403 237 287 363 92 348 406 1682 1395 
1514 1766 609 1190 181 324 391 21 407 
40 428 56 98 1805 1891 1086 1281 1359 
207 289 446 90 101 192 13 124 1589 
1866 1397 923 1449 1740 193 146 423 136 
305 52 150 431 1081 1881 1995 771 817 
1498 1833 1849 203 1703 1364 325 17 31 
134 248 1616 967 1139 1444 741 1604 1758 
481 1067 1691 1541 954 1291 784 1104 519 
1769 814 1017 1725 1130 1194 485 1379 600 
1021 1175 542 1172 1999 669 1169 1329 907 
1980 948 965 1257 1600 1895 1070 521 1835 
952 470 1335 1261 1645 951 1618 1155 1662 
1851 554 1447 1684 549 1632 1049 1267 1590 
1960 1127 1988 463 1188 838 1050 1471 1839 
1994 563 1890 775 1561 914 866 1146 1148 
1219 1456 1647 1177 753 1826 480 757 946 
974 487 1524 574 1424 1842 1837 1538 462 
1340 1251 541 1205 1680 1485 1542 718 1116 
887 1824 1273 490 997 652 878 995 1044 
1170 1675 1578 622 1076 1154 1816 1863 1142 
833 889 627 1586 875 906 1129 1212 1517 
1036 1892 1418 534 1722 985 1566 641 969 
1811 1362 779 653 645 1224 1233 1370 1871 
862 1582 667 1388 845 1041 938 476 723 
1412 1670 806 1101 1166 496 522 1477 1915 
1733 1797 854 1601 1439 1907 842 861 1013 
1416 1033 1098 1176 1626 1735 1128 1462 1322 
659 533 754 1062 1189 1879 1947 1493 629 
531 1847 722 1162 1401 1023 1065 712 1715 
1554 1563 699 799 1143 584 709 1338 1828 
1742 1572 472 1937 1441 1726 970 595 960 
1398 1911 1579 888 1118 1672 1366 465 1092 
1382 581 475 1465 1496 1339 1269 1035 1723 
1888 507 1532 1959 644 1193 1594 961 1928 
1831 901 1409 745 494 1411 1199 1570 1527 
471 598 1676 1882 1073 919 1171 892 798 
1651 1039 853 675 702 1717 975 1528 1801 
841 657 1413 1478 468 1107 1789 953 565 
1982 567 1487 493 1260 1679 837 934 1051 
1455 1577 1056 1302 1771 1467 1332 1472 1421 
674 625 1929 1240 1450 1606 1862 729 962 
968 1324 1902 966 1636 1855 1438 1474 1634 
1183 1254 474 749 1782 1301 797 514 1822 
1353 803 893 1435 805 1860 1819 1334 1887 
936 1430 848 1931 1889 536 1266 532 810 
1218 1944 1552 538 1200 1977 1910 1152 1522 
1877 1624 589 1054 1681 1918 991 489 1215 
981 1500 605 1225 710 1417 1627 672 631 
728 1289 1963 876 1222 1230 1548 1502 1124 
964 1097 832 1827 1544 1841 509 1103 1608 
1053 1699 1986 1834 1164 2000 1731 523 1262 
990 1384 697 1905 1802 552 1936 1419 460 
566 915 688 1058 1168 1660 944 984 1631 
801 1480 1055 820 1376 1732 676 1117 1208 
1962 1612 1088 1749 835 671 1459 1576 1978 
1100 647 1812 1721 1060 1778 1458 1202 1119 
1228 1358 1976 1484 1093 987 1059 1120 751 
1204 1470 596 668 1648 769 1820 912 850 
1326 972 1659 1350 1972 497 736 1788 686 
1664 540 1932 1253 1186 1767 1221 687 1857 
781 807 1753 886 1083 1443 1930 1099 619 
730 1165 1669 1026 1597 1066 1245 1029 1134 
1018 1330 1770 758 1004 1832 527 1614 1671 
602 1794 693 1466 755 1207 488 1341 1564 
1285 1964 516 1550 1365 590 1492 865 1307 
896 1531 740 477 1298 617 871 788 575 
499 809 894 935 916 1786 1630 986 1803 
725 1504 1034 1573 1874 770 1488 1464 1558 
1935 529 1075 633 1394 1704 1708 1442 1308 
1568 918 830 759 1620 1331 1569 1280 1491 
1061 576 1063 1268 1501 1843 994 1069 689 
1149 608 999 615 1196 922 1125 1316 570 
683 1048 1521 1768 646 1091 1698 1422 924 
777 1490 1150 1854 925 1916 539 1113 895 
1310 1948 732 1856 1575 614 1925 1922 1559 
1368 1213 1765 1737 512 904 1611 1773 624 
1263 1463 1781 1893 1556 1105 1885 1047 524 
713 504 665 1909 1917 601 1072 1137 1617 
885 1739 929 1846 733 1108 1787 1133 802 
1274 1191 1227 1806 535 738 1864 795 765 
1957 1970 1426 526 558 628 642 1701 573 
1135 1249 550 473 1203 1357 1729 656 1024 
1145 1638 1853 1705 560 1040 1807 790 1796 
1761 562 1077 1965 503 700 1304 1639 1952 
1195 1549 1042 492 1613 1415 942 1311 1738 
1497 1356 464 1898 1489 1238 1246 825 800 
1452 1896 568 1259 1354 1288 1367 649 1808 
1090 1904 1174 847 1635 950 479 1352 648 
1429 1942 1372 1734 1868 1009 698 1052 1757 
548 1373 831 593 520 1993 1405 1342 992 
1595 1981 1437 1068 1961 998 679 715 1939 
1815 1667 1380 1511 546 920 988 1046 1949 
1486 1161 1022 708 818 959 1244 1661 794 
1663 1293 1287 1241 1557 1571 500 1159 1121 
815 635 1991 1180 1751 1605 1236 530 787 
1319 1836 597 1800 1355 592 1087 1585 1250 
1348 1431 1234 1547 1825 1850 719 811 1658 
747 1300 1844 1005 484 1089 822 604 1138 
510 763 1374 1692 690 1971 1479 1436 517 
1006 1509 1526 1546 1876 680 650 694 1106 
1112 1473 1665 682 1619 1433 742 868 796 
867 1209 869 1325 486 1760 908 1829 1084 
612 774 917 1545 1295 1621 1830 621 572 
651 1451 1900 1790 1741 1537 501 1160 902 
1696 511 1454 1702 1736 1391 1314 681 1420 
717 1343 1151 780 870 1115 1178 1510 469 
704 1428 955 1389 1914 900 1924 483 1776 
1615 945 971 1231 1873 1132 1513 1271 1966 
910 1519 1640 1512 829 982 1580 1383 1275 
547 1360 1958 1064 1423 993 1719 1508 696 
1173 1346 750 819 1838 1303 559 1743 1223 
1393 1975 748 836 1940 760 1141 632 1593 
1974 1499 1529 1581 1592 1752 1880 1010 791 
939 1037 678 1992 743 1038 881 1967 1445 
613 744 1000 827 1555 1082 1755 1926 776 
1886 978 658 1351 1810 1818 580 1197 1920 
1644 1823 695 1122 824 1475 1507 1284 731 
943 618 1745 1453 851 1540 564 579 762 
1239 1845 1984 459 1095 785 1697 1574 1336 
863 1799 691 767 1184 1883 1147 1759 956 
1387 1997 1678 1943 783 684 518 1028 973 
1136 1865 1461 1181 1913 1078 711 1229 1375 
1625 1278 594 1710 1859 1756 1516 599 1256 
858 737 941 1780 1131 927 977 1286 616 
1320 921 1016 556 1666 1908 813 1714 1637 
1074 1309 482 958 1689 1785 626 724 1328 
1192 873 1518 1264 1378 1071 928 1094 1609 
899 1272 1872 1996 578 1012 506 1371 1884 
1237 989 1469 1167 1506 525 1596 1683 1718 
1235 1008 1014 1390 1950 1057 897 1270 654 
1649 1955 1720 638 812 1543 1694 544 610 
1946 555 705 976 561 857 1276 1793 1798 
1588 926 1327 1226 1333 1211 840 1114 1784 
1656 1848 577 1643 1220 1591 543 1140 846 
1583 502 1344 1652 1408 585 663 1214 1688 
804 1157 1668 707 1255 1185 1232 1043 1377 
884 1897 1821 1553 664 849 515 1323 1587 
843 1163 498 1530 1628 933 1792 1265 940 
772 587 1031 1677 1775 890 773 1633 703 
1297 1503 877 778 1968 844 1998 1687 963 
1277 569 1369 1814 537 1494 1361 1109 1525 
606 1345 1448 1299 905 1927 880 1560 1317 
1695 937 1878 508 1483 1258 466 1381 1744 
766 816 1110 879 557 716 898 721 495 
913 792 1724 855 826 1385 505 1446 947 
756 1923 1748 1292 735 1432 1182 1906 1795 
673 1126 1700 588 980 1206 1085 666 1296 
1933 1686 634 1252 1153 883 823 1657 872 
891 1774 1990 834 513 1402 1690 1392 1027 
1096 1318 1243 782 1901 630 1305 1535 640 
478 734 1750 1187 545 1198 551 821 670 
1482 1987 639 768 1019 1217 1763 1985 1349 
677 1899 1772 860 1598 1312 1989 1410 620 
611 1520 1032 1468 726 828 1685 1777 607 
996 1337 491 1607 957 1460 1400 1567 1653 
1622 636 1290 1730 706 1407 1156 1840 528 
1711 1969 1495 1813 1954 1399 1313 637 1080 
660 1294 714 1562 1983 1440 1481 1646 1347 
859 586 1706 1523 1102 882 583 1603 1144 
808 1728 1179 1003 1979 786 983 1020 1321 
1242 1655 1642 1002 1434 1201 930 932 1783 
1247 1629 1515 1894 1476 1610 1869 1912 1623 
1216 1762 1534 1804 727 1747 685 461 979 
692 1707 
type 1 2000 int
1 1 1 1 1 1 1 1 1 
1 1 1 1 1 1 1 1 1 
1 1 1 1 1 1 1 1 1 
1 1 1 1 1 1 1 1 1 
1 1 1 1 1 1 1 1 1 
1 1 1 1 1 1 1 1 1 
1 1 1 1 1 1 1 1 1 
1 1 1 1 1 1 1 1 1 
1 1 1 1 1 1 1 1 1 
1 1 1 1 1 1 1 1 1 
1 1 1 1 1 1 1 1 1 
1 1 1 1 1 1 1 1 1 
1 1 1 1 1 1 1 1 1 
1 1 1 1 1 1 1 1 1 
1 1 1 1 1 1 1 1 1 
1 1 1 1 1 1 1 1 1 
1 1 1 1 1 1 1 1 1 
1 1 1 1 1 1 1 1 1 
1 1 1 1 1 1 1 1 1 
1 1 1 1 1 1 1 1 1 
1 1 1 1 1 1 1 1 1 
1 1 1 1 1 1 1 1 1 
1 1 1 1 1 1 1 1 1 
1 1 1 1 1 1 1 1 1 
1 1 1 1 1 1 1 1 1 
1 1 1 1 1 1 1 1 1 
1 1 1 1 1 1 1 1 1 
1 1 1 1 1 1 1 1 1 
1 1 1 1 1 1 1 1 1 
1 1 1 1 1 1 1 1 1 
1 1 1 1 1 1 1 1 1 
1 1 1 1 1 1 1 1 1 
1 1 1 1 1 1 1 1 1 
1 1 1 1 1 1 1 1 1 
1 1 1 1 1 1 1 1 1 
1 1 1 1 1 1 1 1 1 
1 1 1 1 1 1 1 1 1 
1 1 1 1 1 1 1 1 1 
1 1 1 1 1 1 1 1 1 
1 1 1 1 1 1 1 1 1 
1 1 1 1 1 1 1 1 1 
1 1 1 1 1 1 1 1 1 
1 1 1 1 1 1 1 1 1 
1 1 1 1 1 1 1 1 1 
1 1 1 1 1 1 1 1 1 
1 1 1 1 1 1 1 1 1 
1 1 1 1 1 1 1 1 1 
1 1 1 1 1 1 1 1 1 
1 1 1 1 1 1 1 1 1 
1 1 1 1 1 1 1 1 1 
1 1 1 1 1 1 1 1 1 
1 1 1 1 1 1 1 1 1 
1 1 1 1 1 1 1 1 1 
1 1 1 1 1 1 1 1 1 
1 1 1 1 1 1 1 1 1 
1 1 1 1 1 1 1 1 1 
1 1 1 1 1 1 1 1 1 
1 1 1 1 1 1 1 1 1 
1 1 1 1 1 1 1 1 1 
1 1 1 1 1 1 1 1 1 
1 1 1 1 1 1 1 1 1 
1 1 1 1 1 1 1 1 1 
1 1 1 1 1 1 1 1 1 
1 1 1 1 1 1 1 1 1 
1 1 1 1 1 1 1 1 1 
1 1 1 1 1 1 1 1 1 
1 1 1 1 1 1 1 1 1 
1 1 1 1 1 1 1 1 1 
1 1 1 1 1 1 1 1 1 
1 1 1 1 1 1 1 1 1 
1 1 1 1 1 1 1 1 1 
1 1 1 1 1 1 1 1 1 
1 1 1 1 1 1 1 1 1 
1 1 1 1 1 1 1 1 1 
1 1 1 1 1 1 1 1 1 
1 1 1 1 1 1 1 1 1 
1 1 1 1 1 1 1 1 1 
1 1 1 1 1 1 1 1 1 
1 1 1 1 1 1 1 1 1 
1 1 1 1 1 1 1 1 1 
1 1 1 1 1 1 1 1 1 
1 1 1 1 1 1 1 1 1 
1 1 1 1 1 1 1 1 1 
1 1 1 1 1 1 1 1 1 
1 1 1 1 1 1 1 1 1 
1 1 1 1 1 1 1 1 1 
1 1 1 1 1 1 1 1 1 
1 1 1 1 1 1 1 1 1 
1 1 1 1 1 1 1 1 1 
1 1 1 1 1 1 1 1 1 
1 1 1 1 1 1 1 1 1 
1 1 1 1 1 1 1 1 1 
1 1 1 1 1 1 1 1 1 
1 1 1 1 1 1 1 1 1 
1 1 1 1 1 1 1 1 1 
1 1 1 1 1 1 1 1 1 
1 1 1 1 1 1 1 1 1 
1 1 1 1 1 1 1 1 1 
1 1 1 1 1 1 1 1 1 
1 1 1 1 1 1 1 1 1 
1 1 1 1 1 1 1 1 1 
1 1 1 1 1 1 1 1 1 
1 1 1 1 1 1 1 1 1 
1 1 1 1 1 1 1 1 1 
1 1 1 1 1 1 1 1 1 
1 1 1 1 1 1 1 1 1 
1 1 1 1 1 1 1 1 1 
1 1 1 1 1 1 1 1 1 
1 1 1 1 1 1 1 1 1 
1 1 1 1 1 1 1 1 1 
1 1 1 1 1 1 1 1 1 
1 1 1 1 1 1 1 1 1 
1 1 1 1 1 1 1 1 1 
1 1 1 1 1 1 1 1 1 
1 1 1 1 1 1 1 1 1 
1 1 1 1 1 1 1 1 1 
1 1 1 1 1 1 1 1 1 
1 1 1 1 1 1 1 1 1 
1 1 1 1 1 1 1 1 1 
1 1 1 1 1 1 1 1 1 
1 1 1 1 1 1 1 1 1 
1 1 1 1 1 1 1 1 1 
1 1 1 1 1 1 1 1 1 
1 1 1 1 1 1 1 1 1 
1 1 1 1 1 1 1 1 1 
1 1 1 1 1 1 1 1 1 
1 1 1 1 1 1 1 1 1 
1 1 1 1 1 1 1 1 1 
1 1 1 1 1 1 1 1 1 
1 1 1 1 1 1 1 1 1 
1 1 1 1 1 1 1 1 1 
1 1 1 1 1 1 1 1 1 
1 1 1 1 1 1 1 1 1 
1 1 1 1 1 1 1 1 1 
1 1 1 1 1 1 1 1 1 
1 1 1 1 1 1 1 1 1 
1 1 1 1 1 1 1 1 1 
1 1 1 1 1 1 1 1 1 
1 1 1 1 1 1 1 1 1 
1 1 1 1 1 1 1 1 1 
1 1 1 1 1 1 1 1 1 
1 1 1 1 1 1 1 1 1 
1 1 1 1 1 1 1 1 1 
1 1 1 1 1 1 1 1 1 
1 1 1 1 1 1 1 1 1 
1 1 1 1 1 1 1 1 1 
1 1 1 1 1 1 1 1 1 
1 1 1 1 1 1 1 1 1 
1 1 1 1 1 1 1 1 1 
1 1 1 1 1 1 1 1 1 
1 1 1 1 1 1 1 1 1 
1 1 1 1 1 1 1 1 1 
1 1 1 1 1 1 1 1 1 
1 1 1 1 1 1 1 1 1 
1 1 1 1 1 1 1 1 1 
1 1 1 1 1 1 1 1 1 
1 1 1 1 1 1 1 1 1 
1 1 1 1 1 1 1 1 1 
1 1 1 1 1 1 1 1 1 
1 1 1 1 1 1 1 1 1 
1 1 1 1 1 1 1 1 1 
1 1 1 1 1 1 1 1 1 
1 1 1 1 1 1 1 1 1 
1 1 1 1 1 1 1 1 1 
1 1 1 1 1 1 1 1 1 
1 1 1 1 1 1 1 1 1 
1 1 1 1 1 1 1 1 1 
1 1 1 1 1 1 1 1 1 
1 1 1 1 1 1 1 1 1 
1 1 1 1 1 1 1 1 1 
1 1 1 1 1 1 1 1 1 
1 1 1 1 1 1 1 1 1 
1 1 1 1 1 1 1 1 1 
1 1 1 1 1 1 1 1 1 
1 1 1 1 1 1 1 1 1 
1 1 1 1 1 1 1 1 1 
1 1 1 1 1 1 1 1 1 
1 1 1 1 1 1 1 1 1 
1 1 1 1 1 1 1 1 1 
1 1 1 1 1 1 1 1 1 
1 1 1 1 1 1 1 1 1 
1 1 1 1 1 1 1 1 1 
1 1 1 1 1 1 1 1 1 
1 1 1 1 1 1 1 1 1 
1 1 1 1 1 1 1 1 1 
1 1 1 1 1 1 1 1 1 
1 1 1 1 1 1 1 1 1 
1 1 1 1 1 1 1 1 1 
1 1 1 1 1 1 1 1 1 
1 1 1 1 1 1 1 1 1 
1 1 1 1 1 1 1 1 1 
1 1 1 1 1 1 1 1 1 
1 1 1 1 1 1 1 1 1 
1 1 1 1 1 1 1 1 1 
1 1 1 1 1 1 1 1 1 
1 1 1 1 1 1 1 1 1 
1 1 1 1 1 1 1 1 1 
1 1 1 1 1 1 1 1 1 
1 1 1 1 1 1 1 1 1 
1 1 1 1 1 1 1 1 1 
1 1 1 1 1 1 1 1 1 
1 1 1 1 1 1 1 1 1 
1 1 1 1 1 1 1 1 1 
1 1 1 1 1 1 1 1 1 
1 1 1 1 1 1 1 1 1 
1 1 1 1 1 1 1 1 1 
1 1 1 1 1 1 1 1 1 
1 1 1 1 1 1 1 1 1 
1 1 1 1 1 1 1 1 1 
1 1 1 1 1 1 1 1 1 
1 1 1 1 1 1 1 1 1 
1 1 1 1 1 1 1 1 1 
1 1 1 1 1 1 1 1 1 
1 1 1 1 1 1 1 1 1 
1 1 1 1 1 1 1 1 1 
1 1 1 1 1 1 1 1 1 
1 1 1 1 1 1 1 1 1 
1 1 1 1 1 1 1 1 1 
1 1 1 1 1 1 1 1 1 
1 1 1 1 1 1 1 1 1 
1 1 1 1 1 1 1 1 1 
1 1 1 1 1 1 1 1 1 
1 1 
i 3 2000 int
0 0 0 0 0 0 0 0 0 
0 0 0 0 0 0 0 0 0 
0 0 0 0 0 0 0 0 0 
0 0 0 0 0 0 0 0 0 
0 0 0 0 0 0 0 0 0 
0 0 0 0 0 0 0 0 0 
0 0 0 0 0 0 0 0 0 
0 0 0 0 1 0 0 0 0 
0 0 0 0 0 0 0 0 0 
0 0 0 0 0 0 0 0 0 
0 0 0 0 0 0 0 0 0 
0 1 0 0 0 0 0 0 0 
0 0 0 0 0 0 0 0 0 
0 0 0 0 0 0 -1 0 0 
0 0 0 0 0 0 0 0 0 
0 0 0 0 0 0 0 0 0 
0 0 0 0 0 0 0 0 0 
0 0 0 0 0 0 0 0 0 
0 0 0 0 0 0 0 0 0 
0 0 0 0 0 0 0 0 0 
0 0 0 0 0 0 0 0 0 
0 0 0 0 0 0 1 0 0 
0 0 0 0 0 0 0 0 0 
0 0 0 0 0 0 0 0 0 
0 0 0 0 0 0 0 0 0 
0 0 0 0 0 0 0 0 0 
0 0 0 0 0 0 0 0 0 
0 0 0 0 0 0 0 0 0 
0 0 0 0 0 0 0 0 0 
0 0 0 0 0 0 0 0 0 
0 0 0 0 0 0 0 0 0 
0 0 0 0 0 0 0 0 0 
0 0 0 0 0 0 0 0 0 
0 0 0 0 0 0 0 0 0 
0 0 0 0 0 0 0 0 0 
0 0 0 0 0 0 0 0 0 
0 0 0 0 0 0 0 0 0 
0 0 0 0 0 0 0 0 0 
0 0 0 0 0 0 1 0 0 
0 0 0 0 0 0 0 0 0 
0 0 0 0 0 0 0 0 0 
0 0 0 0 0 0 0 0 0 
0 0 0 0 0 0 0 0 0 
0 0 0 0 0 0 0 0 0 
0 0 0 0 0 0 0 0 0 
0 0 0 0 0 0 0 0 0 
0 0 0 0 0 0 0 0 0 
0 0 0 0 0 0 0 0 0 
0 0 0 0 0 0 0 0 0 
0 0 0 0 0 0 0 0 0 
0 0 0 0 0 0 0 0 0 
0 0 0 0 0 0 1 0 0 
0 0 0 0 0 0 0 0 0 
0 0 0 0 0 0 0 0 0 
0 0 0 0 0 0 0 0 0 
0 0 0 0 0 0 0 0 0 
0 0 0 0 0 0 0 0 0 
0 0 0 0 0 0 0 0 0 
0 0 0 0 0 0 0 0 0 
0 0 0 0 0 0 0 0 0 
0 0 0 0 0 0 0 0 0 
0 0 0 0 0 0 0 0 0 
0 0 0 0 0 0 0 0 0 
0 0 0 0 0 0 0 0 0 
0 0 0 0 0 0 0 0 0 
0 0 0 0 0 0 0 0 0 
0 0 0 0 0 0 0 0 0 
0 0 0 0 0 0 0 0 0 
0 0 0 0 0 0 0 0 0 
0 0 0 0 0 0 0 0 0 
0 0 0 0 0 0 0 0 0 
0 0 0 0 0 0 0 0 0 
0 -1 0 0 0 0 0 0 0 
0 0 0 0 0 0 0 0 0 
0 0 0 0 0 0 0 0 0 
0 0 0 0 0 0 0 0 0 
0 0 0 0 0 0 0 0 0 
0 0 0 0 0 0 0 0 0 
0 0 0 0 0 0 0 0 0 
0 0 0 0 0 0 0 0 0 
0 0 0 0 0 0 0 0 0 
0 0 0 0 0 0 0 0 0 
0 0 0 0 0 0 0 0 0 
0 0 0 0 0 0 0 0 0 
0 0 0 0 0 0 0 0 0 
0 0 0 0 0 0 0 0 0 
0 0 0 0 0 0 0 0 0 
0 1 0 0 0 0 0 0 0 
0 0 0 0 0 0 0 0 0 
0 0 0 0 0 0 0 0 0 
0 0 0 0 0 0 0 0 0 
0 0 0 0 0 0 0 0 0 
0 0 0 0 0 0 0 0 0 
0 0 0 0 0 0 0 0 0 
0 0 0 0 0 0 0 0 0 
0 0 0 0 0 0 0 0 0 
0 0 0 0 0 0 0 0 0 
0 0 0 0 0 0 0 0 0 
0 0 0 0 0 0 0 0 0 
0 0 0 0 0 0 0 0 0 
0 0 0 0 1 0 0 0 0 
-1 0 0 -1 0 0 0 0 0 
0 0 0 0 0 0 0 0 0 
0 0 0 0 0 0 0 0 0 
0 0 0 0 0 0 0 0 0 
0 0 0 0 0 0 0 0 0 
0 0 0 0 0 0 0 0 0 
-1 0 0 0 0 0 0 0 0 
0 0 0 0 0 0 0 0 0 
0 0 0 0 0 0 0 0 0 
0 0 0 0 0 0 0 0 0 
0 0 0 0 0 0 1 0 0 
0 0 0 0 0 0 0 0 0 
0 0 0 0 0 0 0 0 0 
0 0 0 0 0 0 0 0 0 
0 0 0 0 0 0 0 0 0 
0 0 0 0 0 0 0 0 0 
0 0 0 0 0 0 0 0 0 
0 0 0 0 0 0 0 0 0 
0 0 0 0 0 0 0 0 0 
0 0 0 0 0 0 0 0 0 
0 0 0 0 0 0 0 0 0 
0 0 0 0 0 0 0 0 0 
0 0 0 0 0 0 0 0 0 
0 0 0 0 0 0 0 0 0 
0 0 0 0 0 0 0 0 0 
0 0 0 0 0 0 0 0 0 
0 0 0 0 0 0 0 0 0 
0 0 0 0 0 0 0 0 0 
0 0 0 0 0 0 0 0 0 
0 0 0 0 0 0 1 0 0 
0 0 0 0 0 0 0 0 0 
0 0 0 0 0 0 0 0 0 
0 0 0 0 0 0 0 0 0 
0 0 0 0 0 0 0 0 0 
0 0 0 0 0 0 0 0 0 
0 0 0 0 0 0 0 0 0 
0 0 0 0 0 0 0 0 0 
0 0 0 0 0 0 0 0 0 
0 0 0 0 0 0 0 0 0 
0 0 0 0 0 0 0 0 0 
0 0 0 0 0 0 0 0 0 
0 0 0 0 0 0 0 0 0 
0 0 0 0 0 0 0 0 0 
0 0 0 0 0 0 0 0 0 
0 0 0 0 0 0 0 0 0 
0 0 0 0 0 0 0 0 0 
0 0 0 0 0 0 0 0 0 
0 0 0 0 0 0 0 0 0 
0 0 0 0 0 0 0 0 0 
0 0 0 0 0 0 0 0 0 
0 0 0 0 0 0 0 0 0 
0 0 0 0 0 0 0 0 0 
0 0 0 0 0 0 0 0 0 
0 0 0 0 0 0 0 0 0 
0 0 0 0 0 0 0 0 0 
0 0 0 0 0 0 0 0 0 
0 0 0 0 0 0 0 0 0 
0 0 0 0 0 0 0 0 0 
0 0 0 0 0 0 0 0 0 
0 0 0 0 0 0 0 0 0 
0 0 0 0 0 0 0 0 0 
0 0 0 0 0 0 0 0 0 
0 0 0 0 0 0 0 0 0 
0 0 0 0 0 0 0 0 0 
0 0 0 0 0 0 0 0 0 
0 0 0 0 0 0 0 0 0 
0 0 0 0 0 0 0 0 0 
0 0 0 0 0 0 0 0 0 
0 0 0 0 0 0 0 0 0 
0 0 0 0 0 0 0 0 0 
0 0 0 0 0 0 0 0 0 
0 0 0 0 0 0 0 -1 0 
0 0 0 0 0 0 0 0 0 
0 0 0 0 0 0 0 0 0 
0 0 0 0 0 0 0 0 0 
0 0 0 0 0 0 0 0 0 
0 0 0 0 0 0 0 0 0 
0 -1 0 0 0 0 0 0 0 
0 0 0 0 0 0 0 0 0 
0 0 0 0 0 0 0 0 0 
0 0 0 0 0 0 0 0 0 
0 0 0 0 0 0 0 0 0 
0 0 0 0 -1 0 0 0 0 
0 0 0 0 0 0 0 0 0 
0 0 0 0 0 0 0 0 0 
0 0 0 0 0 0 0 0 0 
0 0 0 0 0 0 0 0 0 
0 0 0 0 0 0 0 0 0 
0 0 0 0 0 0 0 0 0 
0 0 0 0 0 0 0 0 0 
0 0 0 0 0 0 0 0 0 
0 0 0 0 0 0 -1 0 0 
0 0 0 0 0 0 0 0 0 
0 0 0 0 0 0 0 0 0 
0 0 0 0 0 0 0 0 0 
0 0 0 0 0 0 0 0 0 
0 0 0 0 0 0 0 0 0 
0 0 0 0 0 0 0 0 0 
0 0 0 0 0 0 0 0 0 
0 0 0 0 0 0 0 0 0 
0 0 0 0 0 0 0 0 0 
0 0 0 0 0 0 0 0 0 
0 0 0 0 0 0 0 0 0 
0 0 0 0 0 0 0 0 0 
0 0 0 0 0 0 0 0 0 
0 0 0 0 0 0 0 0 0 
0 0 0 0 0 0 0 1 0 
0 0 0 0 0 0 0 0 0 
0 0 0 0 0 0 0 0 0 
0 0 0 0 0 0 0 0 0 
0 0 0 0 1 0 0 0 0 
0 1 0 0 0 0 0 0 0 
0 0 0 0 0 0 0 0 0 
0 0 0 0 0 0 0 0 0 
0 0 0 0 0 0 0 0 0 
0 1 0 0 0 0 0 0 0 
0 0 0 0 0 0 0 0 0 
0 0 0 0 0 0 0 0 0 
0 0 0 0 0 0 0 0 0 
0 0 0 0 0 0 0 0 0 
0 0 0 0 0 0 0 0 0 
0 0 0 0 0 0 0 0 0 
0 0 0 0 0 0 0 0 0 
0 0 0 0 0 0 0 0 0 
0 0 0 0 0 0 0 0 0 
0 0 0 0 0 0 0 0 0 
0 0 0 0 0 0 0 0 0 
0 0 0 0 0 0 0 0 0 
0 0 0 0 0 0 0 0 0 
0 0 0 0 0 0 0 0 0 
0 0 0 0 0 0 0 0 0 
0 0 0 0 0 0 0 0 0 
0 0 0 0 0 0 0 0 0 
0 0 0 0 0 0 0 0 0 
0 0 0 0 0 0 0 0 0 
0 0 0 0 0 0 0 0 0 
0 0 0 0 0 0 0 0 0 
0 0 0 0 0 0 0 0 0 
0 0 0 0 0 0 0 0 0 
0 0 0 0 0 0 0 0 0 
0 0 0 0 0 0 0 0 0 
0 0 0 0 0 0 0 0 0 
0 0 0 0 0 0 0 0 0 
0 0 0 0 0 0 0 0 0 
0 0 0 0 0 0 0 0 0 
0 0 0 0 0 0 0 0 0 
0 0 0 0 0 0 0 0 0 
0 0 0 0 0 0 0 0 0 
0 0 0 0 0 0 0 0 0 
0 0 0 0 0 0 0 0 0 
0 0 0 0 0 0 0 0 0 
0 0 0 -1 0 0 0 0 0 
0 0 0 0 0 0 0 0 0 
0 0 0 0 0 0 0 0 0 
0 0 0 0 0 0 0 0 0 
0 0 0 0 0 0 0 0 0 
0 0 0 0 0 0 0 0 0 
0 0 0 0 0 0 0 0 0 
0 0 0 0 0 0 0 0 0 
1 0 0 0 0 0 0 0 0 
0 0 0 0 0 0 0 0 0 
0 0 0 0 0 0 0 0 0 
0 0 0 0 0 0 0 0 0 
0 0 0 0 0 0 0 0 0 
0 0 0 0 0 0 0 0 0 
0 0 0 0 0 0 0 0 0 
0 0 0 0 0 0 0 0 0 
0 0 0 0 0 0 0 0 0 
0 0 0 0 0 0 0 0 0 
0 0 0 0 0 0 0 0 0 
0 0 0 0 0 0 0 0 0 
0 0 0 0 0 0 0 0 0 
0 0 0 0 0 0 0 0 0 
0 0 0 0 0 0 0 0 0 
0 0 0 0 0 0 0 -1 0 
0 -1 0 0 0 0 0 0 0 
0 0 0 0 0 0 0 0 0 
0 0 0 0 0 0 0 0 0 
0 0 0 0 0 0 0 0 0 
0 0 0 0 0 0 0 0 0 
0 0 0 0 0 0 0 0 0 
0 0 0 0 0 0 0 0 0 
0 0 0 0 0 0 0 0 0 
0 0 0 0 0 0 0 0 0 
0 0 0 0 0 0 0 0 0 
0 0 0 0 0 0 0 0 0 
0 0 0 0 0 0 0 0 0 
0 0 0 0 0 0 0 0 0 
0 0 0 0 0 0 0 0 0 
0 0 0 0 0 0 0 0 0 
0 0 0 0 0 0 0 0 0 
0 0 0 0 0 0 0 0 0 
0 -1 0 0 0 0 0 0 0 
0 0 0 0 0 0 0 0 0 
0 0 0 0 0 0 0 0 0 
-1 0 0 -1 0 0 0 0 0 
0 0 0 0 0 0 -1 0 0 
0 0 0 0 0 0 0 0 0 
0 0 0 0 0 0 0 0 0 
0 0 0 0 0 0 0 0 0 
0 0 0 0 0 0 0 0 0 
0 0 0 0 0 0 0 0 0 
0 0 0 0 0 0 0 0 0 
0 0 0 0 0 0 0 0 0 
0 0 0 0 0 0 0 0 0 
0 0 0 0 0 0 0 0 0 
0 0 0 0 0 0 0 1 0 
0 0 0 0 0 0 0 0 0 
0 0 0 0 0 0 0 0 0 
0 0 0 0 0 0 0 0 0 
0 0 0 0 0 0 0 0 0 
0 0 0 0 0 0 0 0 0 
0 0 0 0 0 0 0 0 0 
0 0 0 0 0 0 0 0 0 
0 0 0 0 0 0 0 0 0 
0 0 0 0 0 0 0 0 0 
0 0 0 0 0 0 0 0 0 
0 0 0 0 0 0 0 0 0 
0 0 0 0 0 0 0 0 0 
0 0 0 0 0 0 0 0 0 
0 0 0 0 0 0 0 0 0 
0 0 0 0 0 0 0 0 0 
0 0 0 0 0 0 0 0 0 
0 0 0 0 0 0 0 0 0 
0 0 0 0 0 0 0 0 0 
0 0 0 0 0 0 0 0 0 
0 0 0 0 0 0 0 0 0 
0 0 0 0 0 0 0 0 0 
0 0 0 0 0 0 0 0 0 
0 0 0 0 0 0 0 0 0 
0 0 0 0 0 0 0 0 0 
0 0 0 -1 0 0 0 0 0 
0 0 0 0 0 0 0 0 0 
0 0 0 0 0 0 0 0 0 
0 0 0 0 0 0 0 0 0 
0 0 0 0 0 0 0 0 0 
0 0 0 0 0 0 0 0 0 
0 0 0 0 0 0 0 0 0 
0 0 0 0 0 0 0 0 0 
0 0 0 0 0 0 0 0 0 
0 0 0 0 0 0 0 0 0 
0 0 0 0 0 0 0 0 0 
0 0 0 0 0 0 0 0 0 
0 0 0 0 0 0 0 0 0 