# vtk DataFile Version 4.0
Generated by LIGGGHTS
ASCII
DATASET POLYDATA
POINTS 2000 float
-150.172 -148.272 9.91988 -161.688 -164.573 9.91877 -131.679 -155.759 9.92001 
-112.385 -150.676 9.9169 -51.0357 -143.693 9.91878 -27.2321 -149.896 9.91879 
-16.0417 -166.423 9.91869 37.9959 -153.772 9.91908 62.2665 -150.239 9.91877 
66.3368 -169.779 9.91889 86.2937 -169.471 9.91885 115.3 -159.154 9.91954 
160.436 -166.453 9.92095 -160.494 -131.198 9.9176 -56.422 -122.525 9.91867 
-75.0787 -109.687 9.919 39.0141 -133.833 9.91805 27.8951 -117.251 9.92236 
60.9422 -130.324 9.91877 56.9771 -110.763 9.91877 76.9297 -110.251 9.91877 
164.901 -120.141 9.91896 147.581 -110.241 9.91898 -147.756 -98.2735 9.91849 
-93.9447 -103.172 9.91877 -89.4611 -83.723 9.91878 -27.0893 -90.4664 9.91879 
-12.3955 -103.974 9.91877 7.39727 -106.546 9.91877 -0.272098 -88.119 9.91876 
69.0262 -91.9236 9.91877 129.573 -101.657 9.91607 -158.601 -72.1859 9.9187 
-151.008 -53.7278 9.91873 -93.7115 -64.2215 9.91967 -75.2027 -56.7517 9.91878 
-55.9133 -51.6244 9.91874 -21.6017 -71.2764 9.91877 -37.3965 -59.0743 9.91876 
5.38882 -67.6314 9.91875 -10.0592 -54.9933 9.91876 42.5301 -56.2721 9.91821 
57.9791 -68.9128 9.91806 63.7092 -49.797 9.91877 77.8616 -67.1659 9.91877 
164.6 -49.1736 9.91877 -168.152 -30.0222 9.91878 -112.92 -46.0901 9.91877 
-105.328 -27.6311 9.91876 -90.4682 -45.5921 16.3062 -69.9983 -37.483 9.91878 
-11.3938 -23.5151 9.91877 42.4479 -18.0725 9.91694 48.2644 -37.159 9.91905 
82.0979 -42.0447 9.91769 145.049 -45.1603 9.91877 154.182 -26.6142 9.91877 
-164.652 -10.3724 9.91741 -131.043 5.62469 9.91877 -68.0938 3.8738 9.91878 
-16.2706 -4.16085 9.91877 -33.7011 9.85057 9.90909 2.92903 -9.61458 9.91877 
111.59 8.42588 9.91418 138.271 -11.5825 9.91852 120.483 -7.50013 17.9933 
157.687 -6.9651 9.91813 170.473 8.36277 9.91826 -121.748 30.0527 9.91854 
-82.6724 34.3467 9.90773 -103.673 45.1185 9.91877 -20.7846 25.0412 9.91308 
-1.93401 18.4861 9.91848 29.0103 41.9623 9.91845 122.668 45.6432 9.91857 
-140.41 63.0136 9.91875 -156.975 74.1472 9.91877 -125.597 49.6371 9.91879 
-85.8175 54.0374 9.91148 -65.9061 55.1755 9.91003 -75.6762 72.7945 12.3072 
-33.0375 47.4315 9.91458 20.3728 72.8875 9.91534 36.1067 60.6162 9.91739 
51.9035 51.802 18.3375 69.6625 55.222 9.91374 107.862 62.1648 9.91875 
127.021 67.7587 9.91877 141.74 51.5234 9.91884 161.648 50.1025 9.91844 
152.926 68.054 9.91859 -140.829 104.56 13.0343 -139.05 82.9263 9.91879 
-113.142 107.638 9.91879 -88.8898 101.53 9.91877 -71.2888 92.1184 9.91878 
-56.8506 105.899 9.91878 -19.7389 98.3229 9.91878 -37.0346 108.284 9.91878 
-11.8573 79.9859 9.91874 34.4788 86.9578 11.1029 108.723 103.288 9.91297 
-159.557 110.71 9.91857 -97.2166 119.669 9.91877 -7.63165 114.191 9.91878 
4.55679 135.549 9.91878 57.9717 136.203 9.91877 82.9957 114.825 9.91879 
138.699 130.098 9.91877 163.622 117.347 9.91775 167.76 136.869 9.91632 
-143.183 169.932 9.91877 -166.558 158.074 9.91733 -124.377 163.228 9.91955 
2.68137 168.663 9.91876 22.16 169.342 14.2158 18.0023 150.3 9.91877 
42.3656 148.646 9.91869 41.6362 168.598 9.91869 81.6308 153.122 9.91878 
103.851 169.099 18.7715 120.845 163.506 9.91935 135.325 149.77 9.91655 
139.984 169.176 9.91931 155.574 156.185 9.91637 -165.912 -144.87 23.7054 
-154.531 -168.439 28.4469 -137.059 -157.831 30.7555 -125.142 -151.892 45.6227 
-113.892 -155.049 29.3326 -108.887 -140.495 47.6813 -102.498 -161.188 44.5258 
-82.4838 -140.426 24.7938 -74.4499 -168.095 44.5632 -60.9257 -154.013 48.695 
-18.8066 -158.894 38.804 8.54333 -142.266 24.7904 28.123 -169.992 33.0757 
40.9989 -159.812 47.9972 21.3499 -162.445 50.2604 49.0875 -155.744 30.2097 
85.7066 -162.65 49.1549 116.321 -164.551 31.9276 141.352 -141.239 24.7961 
168.156 -163.413 28.0738 154.14 -165.573 49.8587 -163.878 -126.604 31.49 
-156.343 -113.818 44.8359 -129.667 -124.202 24.7984 -36.6655 -126.233 38.4992 
49.3515 -125.89 48.3639 91.5402 -138.291 24.792 102.21 -114.885 48.4397 
117.75 -117.726 35.3193 162.351 -117.798 39.9796 144.685 -108.852 37.4839 
-160.67 -108.085 24.774 -159.247 -87.7529 22.393 -148.476 -95.6372 42.3973 
-162.741 -81.7376 41.1001 -57.8518 -83.1786 24.8011 31.2584 -85.8052 24.7981 
100.524 -89.2088 24.8005 126.849 -91.2164 47.7021 170.615 -99.6419 39.3435 
-156.723 -53.8609 29.2155 -150.783 -61.1955 46.8021 -127.058 -74.371 24.7918 
-95.5984 -59.8444 29.3034 -78.3633 -58.9094 39.332 -62.976 -48.8863 29.094 
-39.2057 -54.2874 31.0355 -12.9654 -73.2412 44.2053 67.3847 -57.2719 44.0717 
101.456 -63.5956 48.5509 121.011 -68.9436 44.5649 137.203 -52.9246 47.7782 
148.792 -76.5545 24.7955 169.912 -54.6191 41.9322 -109.69 -45.4448 33.873 
-136.869 -25.4499 24.7969 -84.9421 -24.1069 22.8268 -102.64 -26.4982 31.74 
-90.5165 -43.0855 38.8831 -72.4575 -34.1127 38.5833 -43.5352 -20.1757 24.7878 
-17.7023 -44.4213 25.0245 -24.7029 -40.3893 46.1812 16.6608 -38.0929 24.7964 
46.1691 -29.6288 41.4861 95.626 -23.5202 48.9997 113.696 -41.0838 24.7961 
155.292 -23.1036 45.6859 -161.151 -2.18406 34.2776 -143.71 4.65448 41.1615 
-99.4891 7.60157 24.797 -75.5518 -14.4273 37.5406 -72.1557 3.26451 46.1264 
-20.5912 6.02449 27.6245 -9.97365 -10.8763 27.6281 28.6157 10.3499 24.797 
73.4039 -11.6476 24.7935 100.373 -4.11057 45.6922 86.5125 9.86208 49.0095 
107.822 13.8615 50.1523 110.35 4.24069 30.5561 168.054 9.39373 44.3052 
-153.109 34.06 24.7958 -114.526 39.1122 26.1706 -87.8529 40.1432 29.9506 
-89.1326 31.6282 47.9568 -54.7324 29.0121 30.1787 -22.7819 30.3383 44.2685 
26.7747 40.2727 42.7551 45.0133 40.099 32.9537 93.2177 34.1443 24.7952 
123.996 43.4744 44.1647 141.043 19.9137 24.7943 164.544 28.4156 49.2164 
154.601 45.147 44.8038 -167.772 65.581 28.3105 -108.109 76.4235 24.7931 
-90.2319 53.6954 44.4089 -76.3975 56.2816 27.3641 -43.358 77.3085 24.8004 
-1.54046 50.1002 24.7956 38.908 73.0447 42.8478 73.384 55.8958 43.6212 
116.494 71.4528 31.5179 134.236 62.5423 29.469 138.555 56.406 48.5445 
127.868 73.2441 47.8172 151.87 66.7188 37.8331 169.172 64.8327 47.6043 
-151.389 92.1831 43.9581 -125.47 106.736 25.5896 10.8636 82.7652 24.4086 
2.27686 100.303 20.2788 84.2949 83.2371 24.8003 101.508 101.911 48.799 
112.925 86.0803 44.6246 139.646 96.745 24.7965 158.021 81.1929 50.1218 
-142.631 137.414 24.7971 -165.417 123.969 47.6203 -170.623 116.797 28.3007 
-59.3121 121.664 41.1531 -29.5366 137.211 31.5267 -20.7098 121.378 23.1728 
-2.74657 120.11 31.78 31.4714 118.963 24.7987 65.0989 111.769 30.9943 
82.8633 114.885 39.5436 107.445 134.869 24.7971 118.972 111.943 48.5069 
157.09 130.453 25.5163 -160.859 161.19 42.7753 -139.317 166.435 43.9704 
-125.837 167.723 29.3103 -117.228 167.04 47.3053 -94.4094 153.132 24.793 
-68.8176 154.465 48.5472 -46.4794 167.019 24.7916 -0.331698 153.574 41.5394 
30.486 153.885 25.0738 61.9525 155.342 40.198 95.1772 165.467 36.3803 
120.47 156.99 48.5022 140.289 164.389 42.0106 146.617 148.141 26.2897 
151.746 167.426 25.9518 166.523 149.307 25.4699 161.271 159.678 41.6856 
-157.917 -149.232 57.4392 -114.556 -160.133 60.3983 -126.422 -149.668 72.5697 
-132.475 -168.662 71.4493 -99.1599 -152.076 70.2164 -86.2579 -156.419 55.6279 
-67.4553 -167.307 63.2397 -18.9729 -150.195 56.7667 -41.7472 -168.076 69.4214 
-38.7621 -148.82 65.0806 -15.9825 -166.617 68.4764 0.82647 -148.229 58.3434 
0.728438 -158.318 75.5643 19.6715 -141.668 57.9072 67.8599 -155.022 53.8062 
81.5956 -153.064 75.4431 83.4191 -142.688 58.4912 78.8657 -170.527 66.1714 
115.561 -154.529 65.3919 149.151 -148.125 58.1556 -170.999 -126.188 80.2176 
-125.638 -135.854 57.4925 -117.885 -132.879 79.2007 -101.532 -132.793 65.6487 
-68.6276 -135.272 77.1412 -43.9291 -111.175 71.6392 0.240662 -115.393 70.276 
70.4193 -136.582 74.1077 91.2558 -130.327 72.0624 107.793 -120.489 66.7643 
125.637 -110.62 52.2142 126.529 -122.334 73.3939 135.628 -127.39 56.3624 
155.537 -136.668 73.1959 155.389 -129.511 54.564 -159.808 -79.1606 64.7145 
-139.781 -106.035 74.6028 -122.485 -80.0089 58.9705 -95.2973 -101.002 52.5617 
-60.562 -104.725 52.1767 -64.2444 -86.3359 59.0077 -42.9459 -95.5115 53.8915 
-20.4483 -87.6602 75.1393 -37.9413 -81.829 67.5083 -1.0087 -80.9662 76.1256 
33.806 -78.6825 74.1184 51.0151 -108.738 78.7517 82.7651 -96.4537 70.8695 
110.602 -80.4611 57.0926 118.602 -96.9653 64.9516 114.17 -83.427 78.9306 
153.214 -98.0524 69.6026 -141.926 -76.3258 56.3408 -133.026 -69.5191 72.8477 
-125.052 -59.7278 56.4538 -114.369 -49.9897 70.2165 -102.889 -52.1877 51.6286 
-106.853 -72.191 68.6076 -89.3219 -66.6111 54.1283 -95.2404 -55.666 69.7334 
-78.3417 -74.9671 68.5498 -53.6174 -50.9806 62.6948 90.012 -62.277 70.225 
111.477 -65.5967 70.3783 119.546 -53.0912 57.0818 130.969 -72.3479 61.5227 
129.095 -57.0159 74.1616 149.311 -65.3636 57.8925 167.983 -70.8226 53.4321 
165.523 -52.6414 61.2994 169.242 -67.3556 74.2582 -146.933 -37.4736 72.1668 
-119.655 -41.3983 50.6863 -95.4678 -20.9838 65.4903 41.9269 -45.9003 65.1369 
23.1662 -43.8563 58.6397 64.2591 -27.4079 61.9404 83.6116 -32.2765 62.3153 
98.0604 -45.2945 55.7598 116.482 -24.5553 77.0118 151.179 -22.1699 80.3776 
-154.507 -10.658 51.0835 -122.906 10.1245 50.608 -138.911 3.45632 60.4969 
-128.12 -12.7627 56.1559 -126.515 -9.47733 76.657 -116.886 6.3649 69.2625 
-101.309 13.6867 59.1573 -47.8805 2.0859 51.3671 -55.5615 -12.1548 63.0535 
-43.8595 -8.82758 78.8763 -14.5683 -1.97027 61.1019 33.6223 -12.1778 69.0354 
66.1013 -5.04306 58.3112 67.7299 -12.8806 76.5846 84.4423 -12.3658 61.201 
86.6189 4.89645 70.9809 126.038 6.32597 53.275 112.978 9.24423 68.8731 
162.668 -6.57169 75.5726 143.43 -2.9665 71.6611 -135.207 16.0957 75.492 
-119.528 43.4731 60.4764 -101.31 19.5256 78.2444 -84.6831 43.9248 63.0353 
-66.4199 17.8123 77.3712 -6.93033 34.5872 55.6357 11.8068 41.472 55.9111 
60.6272 29.2359 62.2583 95.3152 26.738 58.8785 139.386 31.7041 73.2428 
-128.799 76.7556 65.6972 -104.797 69.183 78.9952 -33.3781 53.9468 67.7468 
8.87967 61.2154 56.2388 0.52546 46.8094 72.2775 13.3703 71.0127 73.0358 
-5.22326 70.4235 80.2617 33.7464 71.3563 77.3657 64.4821 63.8708 64.8083 
[...]
POINT_DATA 2000
FIELD FieldData 7
id 1 2000 int
428 203 332 284 211 249 255 417 240 
261 419 380 82 224 355 389 241 183 
196 333 105 360 281 109 184 295 309 
160 285 298 420 217 205 317 139 79 
103 293 233 158 446 226 319 358 357 
302 352 426 140 444 280 435 276 369 
398 406 429 121 388 112 127 88 439 
154 227 337 204 371 142 187 297 464 
172 418 308 450 157 459 269 221 403 
252 104 185 222 323 407 201 294 384 
336 266 455 136 147 141 167 90 93 
395 197 390 451 278 272 300 216 273 
171 405 311 289 381 130 432 256 394 
248 94 433 206 174 177 198 98 365 
124 251 84 258 422 461 74 378 77 
242 5 283 243 150 342 100 162 43 
102 370 244 117 42 3 57 33 460 
368 238 339 437 125 321 138 31 65 
72 374 210 152 397 53 359 316 99 
83 55 29 412 331 341 38 202 349 
27 263 415 448 129 9 377 463 15 
366 155 62 69 452 220 51 218 126 
214 268 47 12 163 231 362 379 404 
44 186 80 134 11 396 135 279 48 
169 21 170 161 116 56 239 107 13 
17 75 192 327 195 465 329 209 245 
4 340 322 434 73 375 391 28 364 
35 146 110 60 306 393 343 19 215 
427 63 410 345 250 208 97 402 6 
361 71 16 290 58 76 454 120 351 
86 81 401 70 442 392 164 194 200 
303 78 1479 363 1146 113 1945 292 131 
307 286 301 32 277 199 386 858 430 
34 149 10 458 114 305 87 207 156 
936 190 1837 8 423 14 409 310 228 
85 425 318 67 253 20 144 447 443 
39 123 287 236 905 182 376 411 89 
291 41 372 188 148 1063 225 237 328 
1170 829 49 246 46 350 414 438 181 
408 30 1607 275 353 271 346 1097 159 
132 234 213 96 7 66 264 288 92 
1593 457 413 1493 436 1969 54 108 344 
36 324 270 22 456 40 267 122 1 
151 400 193 431 348 330 1413 23 232 
387 1682 176 25 175 230 421 50 165 
91 262 296 101 338 1954 106 153 137 
115 367 299 61 64 462 314 173 212 
259 37 143 325 1924 274 424 189 24 
265 1233 335 133 356 1173 1189 445 334 
453 382 313 168 347 52 1601 1802 111 
440 145 219 941 235 441 191 1053 969 
1530 1788 1703 1312 1636 1045 704 1605 1846 
1843 68 1866 312 1721 723 789 988 1787 
1194 1176 1739 1627 1206 1464 1398 1229 1532 
1827 1875 260 552 975 118 631 1023 1442 
915 326 1010 1753 95 1118 1128 620 504 
1940 229 119 1354 946 899 257 1042 1710 
1892 1252 986 1214 1722 166 1955 989 1602 
883 1646 1393 399 416 1724 1914 1942 507 
733 1756 1218 128 1894 45 179 247 1762 
59 1885 887 810 672 1473 1139 852 1564 
1740 304 1633 1979 747 695 1198 628 1159 
1589 354 1080 1622 913 26 1340 254 971 
1568 669 1868 1488 1296 1425 2 1337 1920 
812 1697 476 373 1191 925 1279 1662 987 
449 619 1900 485 1371 1559 1965 597 385 
1179 282 1445 775 1864 788 877 223 1106 
1898 1661 178 964 1776 1990 1804 1030 1566 
1086 1653 621 1182 1637 1440 1246 776 18 
320 466 1008 579 1408 1546 1694 932 1832 
1033 1092 1481 1184 1938 1781 180 1612 934 
1982 315 1400 822 1282 1676 687 1790 711 
1714 860 1292 1303 1151 1456 1280 1814 1055 
1462 808 577 1253 790 1854 717 1200 491 
1137 1104 996 574 857 912 1927 690 557 
1338 1931 1484 791 649 1417 709 675 1289 
1877 1477 1572 1669 782 1922 940 551 383 
571 1992 1309 750 955 472 641 1962 950 
1963 825 1658 894 1348 515 1995 1582 1614 
1083 859 1487 625 798 999 518 1454 895 
1939 787 608 613 1548 1671 1976 1114 1476 
1968 1014 882 1003 556 1735 838 866 980 
1800 1806 1277 1286 661 757 1224 1256 781 
1157 480 1329 1505 944 698 1217 1901 1035 
1536 1826 1457 1925 706 1860 1571 848 1897 
1402 903 593 984 1459 1947 726 981 512 
797 1667 1438 494 1839 1986 753 1861 1364 
1446 535 1245 1140 734 1785 1351 1666 659 
1933 1640 1610 1380 1132 992 1435 665 953 
1311 807 901 1050 1334 1838 1377 1331 956 
2000 1551 1465 549 500 1544 1673 1270 1623 
479 1060 863 1911 823 990 960 978 1603 
640 1254 471 1754 1416 949 754 1406 1718 
1448 1098 490 1579 942 802 1905 1436 1896 
1089 1893 931 1503 1415 1750 1161 1049 1539 
1527 985 1685 1934 1187 1887 1046 1842 1704 
1326 1238 622 918 824 1069 1240 1775 868 
524 553 1403 1599 1554 1195 1002 1908 609 
983 1232 1048 1199 1241 1871 1291 1634 713 
1734 483 1613 774 703 481 1081 1929 1975 
1463 1319 473 1394 1373 1741 1129 502 1295 
539 1012 1983 1833 1153 862 1381 694 1472 
547 1149 1881 1906 1596 587 477 1913 1784 
880 714 973 1469 1526 1345 1737 1600 1318 
766 1410 947 1512 1510 991 1249 917 1271 
1205 662 1285 525 1360 1624 1174 879 658 
544 1700 1547 1594 660 1586 1196 1359 1293 
1219 836 1028 1409 1061 1521 1084 1186 1895 
1065 508 761 1973 572 584 1577 1807 1391 
495 1899 1560 702 554 469 1997 684 1715 
1902 1323 496 865 1203 1872 1006 1365 834 
1590 506 542 1683 486 1977 1486 519 1220 
1746 1399 1344 1180 1369 671 596 786 654 
1397 909 1972 1857 642 979 1628 1105 997 
1148 1202 1386 505 1154 844 1222 1581 520 
1067 1930 1223 1315 1226 1518 586 1654 1767 
1274 1130 1904 623 762 567 907 1793 864 
1889 1745 513 1619 1166 1313 1499 1760 1255 
487 645 1565 1038 1470 847 1643 1082 760 
1562 718 832 1444 933 843 1126 1136 1859 
1037 1820 1844 1772 611 1584 1691 923 1731 
1651 1492 1711 1698 538 1047 1949 1119 1070 
1520 1845 741 1641 1639 820 688 1434 1261 
1424 1757 749 1264 1164 1290 1523 1852 821 
1932 799 772 732 1123 1474 886 1987 1789 
794 963 1778 1094 916 644 1805 954 1299 
982 720 818 484 1272 1870 1263 1801 1621 
1236 1795 746 1306 1668 1325 1529 1374 1960 
1829 816 1355 1508 1405 696 1498 1181 770 
1043 1138 707 977 1550 785 976 1684 1828 
1414 1670 627 1093 773 1471 1743 994 1903 
962 1891 1310 1915 1514 1125 1597 1952 634 
1251 1783 1935 1553 1873 972 1841 1110 1239 
1815 1575 1443 1491 1650 1052 1999 1044 1967 
1040 1197 1496 618 1131 653 908 809 830 
1029 1335 1375 1269 546 1362 861 1017 870 
612 1725 1383 1797 1576 1890 1674 1162 1729 
1758 1774 1850 1779 475 1910 543 993 1429 
1923 1322 1489 635 1552 529 1155 685 1657 
651 1948 1260 603 1917 1025 1183 1062 664 
1759 1644 1921 1822 1755 615 872 1208 1749 
1771 679 1142 1645 764 1504 1133 1288 1107 
1076 1167 828 566 1117 1165 1382 1461 948 
1347 742 1273 970 691 1821 902 1500 1420 
1022 1516 560 1549 1966 578 1629 1237 1808 
510 1534 1366 1497 638 763 1770 1573 630 
503 1352 558 1958 1210 548 1538 1168 724 
767 670 1235 1298 854 1308 1971 1587 1390 
1231 1502 1230 1609 1719 1689 489 1088 900 
674 1330 1631 737 498 1054 744 884 705 
1617 1247 1090 1782 591 643 1946 1216 516 
1212 534 1466 1768 1302 892 1287 1278 1441 
1085 569 878 813 1830 876 855 1709 965 
1537 1696 633 1591 650 1638 1068 1495 1079 
888 1991 845 1912 967 1752 1847 841 1396 
550 1541 1353 1387 1981 1728 666 1540 536 
478 1100 639 1349 1712 1699 827 839 1595 
1389 873 1257 1738 564 1346 1234 1626 1988 
867 1511 1431 1121 1961 497 1585 740 1616 
1451 1855 1268 1101 1421 1358 1095 924 1944 
1367 626 1091 881 1705 869 1519 1485 1819 
1888 722 1567 1517 482 1192 831 1515 1777 
889 1736 851 1468 656 1574 1543 1834 575 
1213 891 1555 1792 533 1243 1201 846 1531 
835 1327 1730 1957 673 1708 1019 1799 815 
1056 1665 468 1011 1265 939 511 1120 1803 
795 1611 1525 605 1158 1675 1031 1592 1428 
719 1026 1936 765 1449 1835 1009 576 1057 
1649 914 537 1314 521 1882 1909 768 1786 
1765 922 1840 1259 1372 607 966 636 748 
632 1074 1363 589 598 1171 1680 1570 1317 
1848 1113 1659 898 522 1032 683 1156 689 
1439 1077 1677 501 1695 897 1301 1284 585 
850 1385 806 1102 1535 1943 1021 751 1075 
1242 1324 1615 716 1791 1918 1341 974 499 
1430 1951 594 678 959 1475 1426 1994 1283 
1713 1275 1209 682 1569 1000 1672 1211 1836 
1606 745 1221 1141 1172 769 958 759 1656 
699 545 610 739 1294 663 951 1655 1702 
614 1761 604 1001 680 1604 929 1127 801 
1825 1720 1542 998 842 1321 1458 1147 1276 
715 1561 1688 943 1563 1798 1652 493 1116 
600 562 624 1959 541 1096 588 777 1175 
1824 1143 676 1073 1407 1034 1751 1225 1648 
1647 1588 1625 871 893 1258 1813 1984 1858 
581 617 1066 1112 1701 1748 1392 796 708 
1524 1078 1707 1869 961 1087 817 1879 1818 
1660 890 1865 1733 1036 1455 1876 803 532 
1874 906 957 1993 1300 1742 1686 1886 1051 
701 527 1706 1356 1941 1996 904 738 1937 
1766 1528 1024 646 526 1248 1244 1692 602 
1145 755 783 926 1342 1207 1452 1919 1884 
756 833 1447 1215 1583 1467 601 1185 1796 
492 1478 1880 1204 1620 1111 488 1811 1339 
1989 1727 1316 648 1058 1856 1453 1998 1297 
1432 563 1376 1744 1368 568 467 1404 1507 
885 725 1262 1103 735 771 531 1433 837 
1687 606 1916 1513 1450 1716 1041 1974 559 
1663 1401 729 1863 710 599 1642 1883 911 
1978 1690 1907 1177 1020 1395 1015 1763 811 
826 1664 1810 721 668 1794 1853 1747 928 
1134 1412 528 1227 1388 517 1004 629 784 
1950 1849 1027 896 731 555 1608 1545 727 
692 1152 736 1144 1228 952 1411 1953 819 
1867 1163 1501 1384 778 595 1099 1039 1773 
920 1328 1726 1190 1115 590 804 693 580 
1281 652 474 1007 1769 1681 1419 919 849 
1494 1016 1679 1378 1557 655 1336 1862 910 
1370 1350 937 1598 681 945 1357 1635 1816 
1812 1964 540 780 779 1717 1764 1267 935 
1437 1160 1427 1266 583 1851 1379 1150 1305 
1578 1928 1556 1956 1071 1780 1732 667 1072 
1809 853 856 1693 1320 1985 1483 1678 509 
1618 1533 530 1059 686 1423 1480 1558 995 
1005 1304 875 930 1630 728 1343 1188 1460 
800 805 840 1817 582 657 1178 758 1580 
565 1135 1013 570 792 968 1509 647 921 
1422 523 1064 1823 1831 874 1122 616 814 
700 1970 677 1018 1307 927 1250 938 1332 
1169 1522 592 743 514 752 1109 1482 1980 
1723 1193 1418 1333 712 573 1490 793 637 
1108 561 1506 1124 730 1878 1926 1632 697 
1361 470 
type 1 2000 int
1 1 1 1 1 1 1 1 1 
1 1 1 1 1 1 1 1 1 
1 1 1 1 1 1 1 1 1 
1 1 1 1 1 1 1 1 1 
1 1 1 1 1 1 1 1 1 
1 1 1 1 1 1 1 1 1 
1 1 1 1 1 1 1 1 1 
1 1 1 1 1 1 1 1 1 
1 1 1 1 1 1 1 1 1 
1 1 1 1 1 1 1 1 1 
1 1 1 1 1 1 1 1 1 
1 1 1 1 1 1 1 1 1 
1 1 1 1 1 1 1 1 1 
1 1 1 1 1 1 1 1 1 
1 1 1 1 1 1 1 1 1 
1 1 1 1 1 1 1 1 1 
1 1 1 1 1 1 1 1 1 
1 1 1 1 1 1 1 1 1 
1 1 1 1 1 1 1 1 1 
1 1 1 1 1 1 1 1 1 
1 1 1 1 1 1 1 1 1 
1 1 1 1 1 1 1 1 1 
1 1 1 1 1 1 1 1 1 
1 1 1 1 1 1 1 1 1 
1 1 1 1 1 1 1 1 1 
1 1 1 1 1 1 1 1 1 
1 1 1 1 1 1 1 1 1 
1 1 1 1 1 1 1 1 1 
1 1 1 1 1 1 1 1 1 
1 1 1 1 1 1 1 1 1 
1 1 1 1 1 1 1 1 1 
1 1 1 1 1 1 1 1 1 
1 1 1 1 1 1 1 1 1 
1 1 1 1 1 1 1 1 1 
1 1 1 1 1 1 1 1 1 
1 1 1 1 1 1 1 1 1 
1 1 1 1 1 1 1 1 1 
1 1 1 1 1 1 1 1 1 
1 1 1 1 1 1 1 1 1 
1 1 1 1 1 1 1 1 1 
1 1 1 1 1 1 1 1 1 
1 1 1 1 1 1 1 1 1 
1 1 1 1 1 1 1 1 1 
1 1 1 1 1 1 1 1 1 
1 1 1 1 1 1 1 1 1 
1 1 1 1 1 1 1 1 1 
1 1 1 1 1 1 1 1 1 
1 1 1 1 1 1 1 1 1 
1 1 1 1 1 1 1 1 1 
1 1 1 1 1 1 1 1 1 
1 1 1 1 1 1 1 1 1 
1 1 1 1 1 1 1 1 1 
1 1 1 1 1 1 1 1 1 
1 1 1 1 1 1 1 1 1 
1 1 1 1 1 1 1 1 1 
1 1 1 1 1 1 1 1 1 
1 1 1 1 1 1 1 1 1 
1 1 1 1 1 1 1 1 1 
1 1 1 1 1 1 1 1 1 
1 1 1 1 1 1 1 1 1 
1 1 1 1 1 1 1 1 1 
1 1 1 1 1 1 1 1 1 
1 1 1 1 1 1 1 1 1 
1 1 1 1 1 1 1 1 1 
1 1 1 1 1 1 1 1 1 
1 1 1 1 1 1 1 1 1 
1 1 1 1 1 1 1 1 1 
1 1 1 1 1 1 1 1 1 
1 1 1 1 1 1 1 1 1 
1 1 1 1 1 1 1 1 1 
1 1 1 1 1 1 1 1 1 
1 1 1 1 1 1 1 1 1 
1 1 1 1 1 1 1 1 1 
1 1 1 1 1 1 1 1 1 
1 1 1 1 1 1 1 1 1 
1 1 1 1 1 1 1 1 1 
1 1 1 1 1 1 1 1 1 
1 1 1 1 1 1 1 1 1 
1 1 1 1 1 1 1 1 1 
1 1 1 1 1 1 1 1 1 
1 1 1 1 1 1 1 1 1 
1 1 1 1 1 1 1 1 1 
1 1 1 1 1 1 1 1 1 
1 1 1 1 1 1 1 1 1 
1 1 1 1 1 1 1 1 1 
1 1 1 1 1 1 1 1 1 
1 1 1 1 1 1 1 1 1 
1 1 1 1 1 1 1 1 1 
1 1 1 1 1 1 1 1 1 
1 1 1 1 1 1 1 1 1 
1 1 1 1 1 1 1 1 1 
1 1 1 1 1 1 1 1 1 
1 1 1 1 1 1 1 1 1 
1 1 1 1 1 1 1 1 1 
1 1 1 1 1 1 1 1 1 
1 1 1 1 1 1 1 1 1 
1 1 1 1 1 1 1 1 1 
1 1 1 1 1 1 1 1 1 
1 1 1 1 1 1 1 1 1 
1 1 1 1 1 1 1 1 1 
1 1 1 1 1 1 1 1 1 
1 1 1 1 1 1 1 1 1 
1 1 1 1 1 1 1 1 1 
1 1 1 1 1 1 1 1 1 
1 1 1 1 1 1 1 1 1 
1 1 1 1 1 1 1 1 1 
1 1 1 1 1 1 1 1 1 
1 1 1 1 1 1 1 1 1 
1 1 1 1 1 1 1 1 1 
1 1 1 1 1 1 1 1 1 
1 1 1 1 1 1 1 1 1 
1 1 1 1 1 1 1 1 1 
1 1 1 1 1 1 1 1 1 
1 1 1 1 1 1 1 1 1 
1 1 1 1 1 1 1 1 1 
1 1 1 1 1 1 1 1 1 
1 1 1 1 1 1 1 1 1 
1 1 1 1 1 1 1 1 1 
1 1 1 1 1 1 1 1 1 
1 1 1 1 1 1 1 1 1 
1 1 1 1 1 1 1 1 1 
1 1 1 1 1 1 1 1 1 
1 1 1 1 1 1 1 1 1 
1 1 1 1 1 1 1 1 1 
1 1 1 1 1 1 1 1 1 
1 1 1 1 1 1 1 1 1 
1 1 1 1 1 1 1 1 1 
1 1 1 1 1 1 1 1 1 
1 1 1 1 1 1 1 1 1 
1 1 1 1 1 1 1 1 1 
1 1 1 1 1 1 1 1 1 
1 1 1 1 1 1 1 1 1 
1 1 1 1 1 1 1 1 1 
1 1 1 1 1 1 1 1 1 
1 1 1 1 1 1 1 1 1 
1 1 1 1 1 1 1 1 1 
1 1 1 1 1 1 1 1 1 
1 1 1 1 1 1 1 1 1 
1 1 1 1 1 1 1 1 1 
1 1 1 1 1 1 1 1 1 
1 1 1 1 1 1 1 1 1 
1 1 1 1 1 1 1 1 1 
1 1 1 1 1 1 1 1 1 
1 1 1 1 1 1 1 1 1 
1 1 1 1 1 1 1 1 1 
1 1 1 1 1 1 1 1 1 
1 1 1 1 1 1 1 1 1 
1 1 1 1 1 1 1 1 1 
1 1 1 1 1 1 1 1 1 
1 1 1 1 1 1 1 1 1 
1 1 1 1 1 1 1 1 1 
1 1 1 1 1 1 1 1 1 
1 1 1 1 1 1 1 1 1 
1 1 1 1 1 1 1 1 1 
1 1 1 1 1 1 1 1 1 
1 1 1 1 1 1 1 1 1 
1 1 1 1 1 1 1 1 1 
1 1 1 1 1 1 1 1 1 
1 1 1 1 1 1 1 1 1 
1 1 1 1 1 1 1 1 1 
1 1 1 1 1 1 1 1 1 
1 1 1 1 1 1 1 1 1 
1 1 1 1 1 1 1 1 1 
1 1 1 1 1 1 1 1 1 
1 1 1 1 1 1 1 1 1 
1 1 1 1 1 1 1 1 1 
1 1 1 1 1 1 1 1 1 
1 1 1 1 1 1 1 1 1 
1 1 1 1 1 1 1 1 1 
1 1 1 1 1 1 1 1 1 
1 1 1 1 1 1 1 1 1 
1 1 1 1 1 1 1 1 1 
1 1 1 1 1 1 1 1 1 
1 1 1 1 1 1 1 1 1 
1 1 1 1 1 1 1 1 1 
1 1 1 1 1 1 1 1 1 
1 1 1 1 1 1 1 1 1 
1 1 1 1 1 1 1 1 1 
1 1 1 1 1 1 1 1 1 
1 1 1 1 1 1 1 1 1 
1 1 1 1 1 1 1 1 1 
1 1 1 1 1 1 1 1 1 
1 1 1 1 1 1 1 1 1 
1 1 1 1 1 1 1 1 1 
1 1 1 1 1 1 1 1 1 
1 1 1 1 1 1 1 1 1 
1 1 1 1 1 1 1 1 1 
1 1 1 1 1 1 1 1 1 
1 1 1 1 1 1 1 1 1 
1 1 1 1 1 1 1 1 1 
1 1 1 1 1 1 1 1 1 
1 1 1 1 1 1 1 1 1 
1 1 1 1 1 1 1 1 1 
1 1 1 1 1 1 1 1 1 
1 1 1 1 1 1 1 1 1 
1 1 1 1 1 1 1 1 1 
1 1 1 1 1 1 1 1 1 
1 1 1 1 1 1 1 1 1 
1 1 1 1 1 1 1 1 1 
1 1 1 1 1 1 1 1 1 
1 1 1 1 1 1 1 1 1 
1 1 1 1 1 1 1 1 1 
1 1 1 1 1 1 1 1 1 
1 1 1 1 1 1 1 1 1 
1 1 1 1 1 1 1 1 1 
1 1 1 1 1 1 1 1 1 
1 1 1 1 1 1 1 1 1 
1 1 1 1 1 1 1 1 1 
1 1 1 1 1 1 1 1 1 
1 1 1 1 1 1 1 1 1 
1 1 1 1 1 1 1 1 1 
1 1 1 1 1 1 1 1 1 
1 1 1 1 1 1 1 1 1 
1 1 1 1 1 1 1 1 1 
1 1 1 1 1 1 1 1 1 
1 1 1 1 1 1 1 1 1 
1 1 1 1 1 1 1 1 1 
1 1 1 1 1 1 1 1 1 
1 1 1 1 1 1 1 1 1 
1 1 1 1 1 1 1 1 1 
1 1 1 1 1 1 1 1 1 
1 1 1 1 1 1 1 1 1 
1 1 
i 3 2000 int
0 0 0 0 0 0 0 0 0 
0 0 0 0 0 0 0 0 0 
0 1 0 0 0 0 0 0 0 
0 1 0 0 1 0 0 0 0 
0 0 0 0 0 0 0 0 0 
0 0 0 0 0 0 0 0 0 
0 0 0 0 0 0 0 0 0 
0 0 0 0 0 0 0 0 0 
0 0 0 0 0 0 0 0 0 
0 0 0 0 0 0 0 0 0 
0 0 0 0 0 0 0 0 0 
0 0 0 0 0 0 0 0 0 
0 0 0 0 0 0 0 0 0 
0 0 0 0 0 0 0 0 0 
0 0 0 0 0 0 0 0 0 
0 0 0 0 0 0 0 0 0 
0 0 0 0 0 0 0 0 0 
0 0 0 0 0 0 0 0 0 
0 0 0 0 0 0 0 0 0 
1 0 0 0 0 0 0 0 0 
0 0 0 0 0 0 0 0 0 
0 0 0 0 0 0 0 0 0 
0 0 0 0 0 0 0 0 0 
0 0 0 0 0 0 0 0 0 
0 0 0 0 0 0 0 0 0 
0 0 0 0 0 0 0 0 0 
0 0 0 0 0 0 0 0 0 
0 0 0 0 0 0 0 0 0 
0 0 0 0 0 0 0 0 0 
0 0 0 0 0 0 0 0 0 
0 0 0 0 0 0 0 0 0 
0 0 0 0 0 0 0 0 0 
0 0 0 0 0 0 0 0 0 
0 0 0 0 0 0 0 0 0 
0 0 0 0 0 0 0 0 0 
0 0 0 0 0 0 0 0 0 
0 0 0 0 0 0 0 0 0 
0 0 0 0 0 0 0 0 0 
0 0 0 0 -1 0 0 0 0 
0 0 0 0 0 0 0 0 0 
0 0 0 0 0 0 0 0 0 
0 -1 0 0 0 0 1 0 0 
0 1 0 0 1 0 0 0 0 
0 0 0 0 0 0 0 0 0 
0 0 0 0 0 0 0 0 0 
0 0 0 0 0 0 0 0 0 
0 0 0 0 0 0 0 1 0 
0 0 0 0 1 0 0 0 0 
0 0 0 -1 1 0 0 0 0 
0 0 0 0 0 0 0 0 0 
0 0 0 0 0 0 0 0 0 
0 0 0 0 0 0 0 0 0 
0 0 0 0 0 0 0 0 0 
0 0 0 0 0 0 0 0 0 
0 0 0 0 0 0 0 0 0 
0 0 0 0 0 0 0 0 0 
0 0 0 0 0 0 0 0 0 
0 0 0 0 0 0 0 0 0 
0 0 0 0 0 0 0 0 0 
0 0 0 0 0 0 0 0 0 
0 0 0 0 0 0 0 0 0 
0 0 0 0 0 0 0 0 0 
0 0 0 0 0 0 0 0 0 
0 0 0 0 0 0 0 0 0 
0 0 0 0 0 0 0 0 0 
0 0 0 0 0 0 0 0 0 
0 0 0 0 0 0 0 0 0 
0 0 0 0 0 0 0 0 0 
0 0 0 0 0 0 0 0 0 
0 0 0 0 0 0 0 0 0 
0 0 0 0 0 0 0 0 0 
0 0 0 0 0 0 0 0 0 
0 0 0 0 0 0 0 0 0 
0 0 0 0 0 0 0 0 0 
0 0 0 0 0 0 0 0 0 
0 0 0 0 0 0 0 0 0 
0 0 0 0 0 0 0 0 0 
0 0 0 0 0 0 -1 0 0 
0 0 0 0 0 0 0 0 0 
0 0 0 0 0 0 0 0 0 
0 0 0 0 0 0 0 0 0 
0 0 0 0 0 0 0 0 0 
0 0 0 0 0 0 0 0 0 
0 0 0 0 0 0 0 0 0 
0 0 0 0 0 0 0 0 0 
0 0 0 0 0 0 0 0 0 
0 0 0 0 0 0 0 0 0 
0 0 0 0 0 0 0 0 0 
0 0 0 0 0 0 0 0 0 
0 0 0 0 0 0 0 0 0 
0 0 0 0 0 0 0 0 0 
0 0 0 0 0 0 0 0 0 
0 0 0 0 0 0 0 0 0 
0 0 0 0 0 0 0 0 0 
0 0 0 0 1 0 0 0 0 
0 0 0 0 0 0 0 0 0 
0 0 0 0 0 0 0 1 0 
0 0 0 0 0 0 0 0 0 
0 0 0 0 0 0 0 0 0 
0 0 0 0 0 0 0 0 0 
0 0 0 0 0 0 0 0 0 
0 0 0 0 0 0 0 0 0 
0 0 0 0 0 0 0 0 0 
0 0 0 0 0 0 0 0 0 
0 0 0 0 0 0 0 0 0 
0 0 0 0 0 0 0 0 0 
0 0 0 0 0 0 0 0 0 
0 0 0 0 0 0 0 0 0 
0 0 0 0 0 0 0 0 0 
0 0 0 0 0 0 0 0 0 
0 0 0 0 0 0 0 0 0 
0 0 0 0 0 0 0 0 0 
0 0 0 0 0 0 0 0 0 
0 0 0 0 0 0 0 0 0 
0 0 0 0 0 0 0 0 0 
0 0 0 0 0 0 0 0 0 
0 0 0 0 0 0 0 0 0 
0 0 0 0 0 0 0 0 0 
0 0 0 0 0 0 0 0 0 
0 0 0 0 0 0 0 0 0 
0 0 0 0 0 0 0 0 0 
0 0 0 0 0 0 0 0 0 
0 0 0 0 0 0 0 0 0 
0 0 0 0 0 0 0 0 0 
0 0 0 0 0 0 0 0 0 
0 0 0 0 0 0 0 0 0 
0 0 0 0 0 0 0 0 0 
0 0 0 0 0 0 0 0 0 
0 0 0 0 0 0 0 0 0 
0 0 0 0 0 0 0 0 0 
0 0 0 0 0 0 0 0 0 
0 0 0 0 0 0 0 0 0 
0 0 0 0 0 0 0 0 0 
0 0 0 0 0 0 0 0 0 
0 0 0 0 0 0 0 0 0 
0 0 0 0 0 0 0 0 0 
0 0 0 0 0 0 0 0 0 
0 0 0 0 0 0 0 0 0 
-1 0 0 0 0 0 0 0 0 
0 0 0 0 0 0 0 0 0 
0 0 0 0 0 0 0 0 0 
0 0 0 0 0 0 0 0 0 
0 0 0 0 0 0 0 0 0 
0 0 0 0 0 0 0 0 0 
0 0 0 0 0 0 0 0 0 
0 0 0 0 0 0 0 0 0 
0 0 0 0 0 0 0 0 0 
0 0 0 0 0 0 0 0 0 
0 0 0 0 0 0 0 0 0 
0 0 0 0 -1 0 0 0 0 
0 0 0 0 0 0 0 0 0 
0 0 0 0 0 0 0 0 0 
-1 0 0 0 0 0 0 0 0 
1 0 0 0 0 0 0 0 0 
0 0 0 0 0 0 0 0 0 
0 0 0 0 0 0 0 1 0 
0 0 0 0 0 0 0 0 0 
0 0 0 0 0 0 0 0 0 
0 0 0 0 0 0 0 0 0 
0 0 0 0 0 0 0 0 0 
0 0 0 0 0 0 0 0 0 
0 0 0 0 0 0 0 0 0 
0 0 0 0 0 0 0 0 0 
0 0 0 0 0 0 0 0 0 
0 0 0 0 0 0 0 0 0 
0 0 0 0 0 0 0 0 0 
0 0 0 0 0 0 0 0 0 
0 0 0 0 0 0 0 0 0 
0 0 0 0 0 0 0 0 0 
0 0 0 0 0 0 0 0 0 
0 0 0 0 0 0 -1 0 0 
0 0 0 0 0 0 0 0 0 
0 0 0 0 0 0 0 0 0 
0 0 0 0 0 0 0 0 0 
0 0 0 0 0 0 0 0 0 
0 0 0 0 0 0 0 0 0 
0 0 0 0 0 0 0 0 0 
0 0 0 1 0 0 0 0 0 
0 0 0 0 0 0 0 0 0 
0 0 0 0 0 0 0 0 0 
0 0 0 0 0 0 0 0 0 
0 0 0 0 0 0 0 0 0 
0 0 0 0 0 0 0 0 0 
0 0 0 0 0 0 0 0 0 
0 0 0 0 0 0 0 0 0 
0 0 0 0 0 0 0 0 0 
0 0 0 0 0 0 0 0 0 
0 0 0 0 0 0 0 0 0 
0 0 0 0 0 0 0 0 0 
0 0 0 0 0 0 0 0 0 
0 0 0 0 0 0 0 0 0 
0 0 0 0 0 0 0 0 0 
0 0 0 0 0 0 0 0 0 
0 0 0 0 0 0 0 0 0 
0 0 0 0 0 0 0 0 0 
0 0 0 0 0 0 0 0 0 
0 0 0 0 0 0 0 0 0 
0 0 0 0 0 0 0 0 0 
0 0 0 0 0 0 0 0 0 
0 0 0 0 0 0 0 0 0 
0 0 0 0 0 0 0 0 0 
0 0 0 0 0 0 0 0 0 
0 0 0 0 0 0 0 0 0 
0 0 0 0 0 0 0 0 0 
-1 0 0 0 0 0 0 0 0 
0 0 0 0 0 0 0 0 0 
0 0 0 0 0 0 0 0 0 
0 0 0 0 0 0 0 0 0 
0 0 0 0 0 0 0 0 0 
1 0 0 0 0 0 0 -1 0 
0 0 0 0 -1 0 0 -1 0 
0 0 0 0 0 0 0 0 0 
0 0 0 0 0 0 0 0 0 
0 0 0 0 -1 0 0 0 0 
0 0 0 0 0 0 0 0 0 
0 0 0 0 0 0 0 0 0 
0 0 0 0 0 0 0 0 0 
0 0 0 0 0 0 0 0 0 
0 0 0 0 0 0 0 0 0 
0 0 0 0 0 0 0 0 0 
0 0 0 0 0 0 0 0 0 
1 0 0 0 0 0 0 0 0 
0 0 0 0 0 0 0 0 0 
0 0 0 0 0 0 0 0 0 
0 0 0 0 0 0 0 0 0 
0 0 0 0 0 0 0 0 0 
0 0 0 0 0 0 0 0 0 
0 0 0 0 0 0 0 0 0 
0 0 0 0 0 0 0 0 0 
0 0 0 0 0 0 0 0 0 
0 0 0 0 0 0 0 0 0 
0 0 0 0 0 0 0 0 0 
0 0 0 0 0 0 0 0 0 
0 0 0 0 0 0 0 0 0 
0 0 0 0 0 0 0 0 0 
0 0 0 0 0 0 0 0 0 
0 0 0 0 0 0 0 0 0 
0 0 0 0 0 0 0 0 0 
0 0 0 0 0 0 0 0 0 
0 0 0 0 0 0 0 0 0 
0 0 0 0 0 0 0 0 0 
0 0 0 0 0 0 0 0 0 
0 0 0 0 0 0 0 0 0 
0 0 0 0 0 0 0 0 0 
0 0 0 0 0 0 0 0 0 
0 0 0 0 0 0 0 0 0 
0 0 0 0 0 0 0 0 0 
0 0 0 0 0 0 0 0 0 
0 0 0 0 0 0 0 0 0 
0 0 0 0 0 0 0 0 0 
0 0 0 0 0 0 0 0 0 
0 0 0 0 0 0 0 0 0 
0 0 0 0 0 0 0 0 0 
0 0 0 0 0 0 0 0 0 
0 0 0 0 0 0 0 0 0 
0 0 0 0 0 0 0 0 0 
0 0 0 0 0 0 0 0 0 
0 0 0 0 0 0 0 0 0 
0 0 0 0 0 0 1 0 0 
0 0 0 0 0 0 0 0 0 
0 0 0 0 0 0 0 0 0 
0 0 0 0 0 0 0 0 0 
0 -1 0 0 0 0 0 0 0 
0 0 0 0 0 0 0 0 0 
0 0 0 0 0 0 0 0 0 
0 0 0 0 0 0 0 0 0 
0 0 0 0 0 0 0 0 0 
0 0 0 0 0 0 0 1 0 
0 0 0 0 0 0 0 0 0 
0 1 0 0 0 0 0 0 0 
0 0 0 0 0 0 0 0 0 
0 0 0 0 0 0 0 0 0 
0 0 0 0 0 0 0 0 0 
0 0 0 0 0 0 0 0 0 
0 0 0 0 0 0 0 0 0 
0 0 0 0 0 0 0 0 0 
0 0 0 0 0 0 0 0 0 
0 0 0 0 0 0 0 0 0 
0 0 0 -1 0 0 0 0 0 
0 0 0 0 0 0 0 0 0 
0 0 0 0 0 0 0 0 0 
0 0 0 0 0 0 0 0 0 
0 0 0 0 0 0 0 0 0 
0 0 0 0 0 0 0 0 0 
0 0 0 0 0 0 0 0 0 
0 0 0 0 0 0 0 0 0 
0 0 0 0 0 0 0 0 0 
0 0 0 0 0 0 0 0 0 
0 0 0 0 0 0 -1 0 0 
0 0 0 0 0 0 0 0 0 
0 0 0 0 0 0 0 0 0 
0 0 0 0 0 0 0 0 0 
0 0 0 0 0 0 0 0 0 
0 0 0 0 0 0 0 0 0 
-1 0 0 0 0 0 0 0 0 
0 0 0 0 0 0 0 0 0 
0 0 0 0 0 0 0 0 0 
0 0 0 0 0 0 0 0 0 
0 0 0 0 0 0 0 0 0 
0 0 0 0 0 0 0 0 0 
0 0 0 0 0 0 0 0 0 
0 0 0 0 0 0 -1 0 0 
0 0 0 0 0 0 0 0 0 
0 0 0 0 0 0 0 0 0 
0 0 0 0 0 0 0 0 0 
0 0 0 0 0 0 0 0 0 
0 0 0 0 0 0 0 0 0 
0 0 0 0 0 0 0 0 0 
0 0 0 0 0 0 0 0 0 
0 0 0 0 0 0 0 0 0 
0 0 0 0 0 0 0 0 0 
0 0 0 0 0 0 0 0 0 
0 0 0 0 0 0 0 0 0 
0 -1 0 0 0 0 0 -1 0 
0 0 0 0 0 0 0 0 0 
0 0 0 0 0 0 0 0 0 
0 0 0 0 0 0 0 0 0 
0 0 0 0 0 0 0 0 0 
0 0 0 0 0 0 0 1 0 
0 0 0 0 0 0 0 0 0 
0 0 0 0 0 0 0 0 0 
0 0 0 0 0 0 0 0 0 
0 0 0 0 0 0 0 0 0 
0 0 0 0 0 0 0 0 0 
0 0 0 0 0 0 0 0 0 
0 0 0 0 0 0 0 0 0 
0 0 0 0 0 0 0 0 0 
0 0 0 0 0 0 0 0 0 
0 0 0 0 0 0 0 0 0 
0 0 0 0 0 0 0 0 0 
0 0 0 0 0 0 0 0 0 
0 0 0 0 0 0 0 0 0 
0 0 0 0 0 0 0 0 0 
0 0 0 0 0 0 0 0 0 
0 0 0 0 0 0 0 0 0 
0 0 0 0 0 0 0 0 0 
0 0 0 0 0 0 -1 0 0 
0 0 0 0 0 0 0 0 0 
0 0 0 0 0 0 0 0 0 
0 0 0 0 0 0 0 0 0 
0 0 0 0 0 0 0 0 0 
0 0 0 0 0 0 0 0 0 
0 0 0 0 0 0 0 0 0 
0 0 0 0 0 0 0 0 0 
0 0 0 0 0 0 0 0 0 