# vtk DataFile Version 4.0
Generated by LIGGGHTS
ASCII
DATASET POLYDATA
POINTS 2000 float
-147.674 -159.098 9.99313 -169.47 -162.265 9.99162 -104.697 -164.21 9.99043 
-35.0998 -154.811 9.99188 -11.6398 -159.713 9.99188 35.4978 -163.332 9.99254 
59.1235 -161.821 9.99288 78 -168.416 9.99233 103.222 -157.32 9.99296 
150.221 -161.907 9.99151 -158.705 -110.41 9.99245 -98.6919 -115.34 9.99123 
-65.4793 -115.085 9.99254 -10.3292 -116.557 9.98956 47.3162 -130.685 9.98937 
47.6976 -110.691 9.99258 159.221 -130.247 9.99283 147.281 -113.016 9.99187 
-165.984 -87.6302 9.99202 -94.1214 -95.8745 9.99225 -18.0827 -97.3408 9.99234 
-1.93335 -85.5497 9.99261 5.75999 -104.693 9.98894 59.4767 -94.5316 9.99273 
131.646 -100.319 9.99179 164.404 -103.701 14.4535 -162.377 -63.2376 9.99274 
-116.032 -50.7432 9.99277 -138.167 -49.0738 9.98627 -94.1159 -69.6624 9.99292 
-96.7341 -50.5419 15.2277 -77.9538 -54.9852 9.99232 -57.291 -52.3726 9.99183 
-18.7697 -59.1597 9.99042 -37.9633 -55.3265 14.1828 1.93348 -65.9309 9.9924 
36.7317 -52.8498 9.99254 69.5397 -74.1024 9.99228 75.4242 -49.6167 9.99253 
56.1355 -59.506 12.6573 -155.943 -36.2227 9.99263 -118.599 -30.9122 9.99019 
-98.606 -31.2773 9.9917 -78.9613 -35.0133 9.99205 -24.7938 -40.0954 9.99281 
-8.89029 -27.9789 9.98893 36.8302 -21.0475 9.99166 72.0999 -29.8986 9.99255 
52.626 -36.5777 9.99254 135.987 -20.6961 9.99151 170.469 -23.7033 9.98703 
146.29 -39.5095 9.99212 165.861 -43.6147 9.99326 -149.121 -11.7913 9.99254 
-169.952 -0.837313 9.99254 -129.139 -12.5375 9.99253 -68.5959 4.68468 9.9882 
-40.1498 8.43841 9.99182 -12.8532 11.69 9.98927 -12.3961 -8.29685 9.99322 
12.8348 7.96833 9.99254 7.91167 -11.5513 9.99254 95.3164 -10.1924 9.99142 
120.119 4.2575 9.99339 151.995 -8.71226 9.9742 -169.924 40.663 9.99284 
-83.6401 27.4358 9.99347 -107.739 34.4718 9.99254 34.8848 41.4457 9.99143 
-165.831 60.6806 9.99265 -146.101 57.124 9.9927 -145.878 76.7733 13.6944 
-129.038 46.6982 9.99163 -88.849 46.7529 9.99135 -46.8481 51.1548 9.98783 
-72.752 74.839 9.99182 -26.3181 50.4959 9.99254 -8.4956 68.1319 9.99093 
10.7546 76.5902 19.1223 22.9591 63.6473 9.9915 42.5983 59.892 9.98898 
73.9557 49.794 9.99254 61.2014 64.7916 15.436 114.217 51.0482 9.98447 
134.579 51.7901 9.99088 123.663 68.658 9.98473 154.539 53.0094 9.99246 
-157.715 94.2184 9.99236 -92.6103 106.39 9.99249 -69.2734 94.53 9.9925 
-15.9677 108.344 18.7576 -5.67632 87.9304 9.99288 30.6951 87.1797 9.99254 
63.6153 100.206 9.99254 120.074 92.284 9.99534 -53.8306 114.123 9.99254 
-74.093 113.937 9.99223 -33.3094 113.909 9.99242 -21.2444 128.082 17.2986 
2.3453 113.601 9.99292 -4.50789 136.228 9.99232 74.8677 127.349 9.99185 
58.0689 139.289 9.99254 137.108 131.812 9.99356 171.364 109.479 9.99272 
167.274 129.981 9.98236 152.241 118.897 17.107 -155.734 140.094 9.99297 
-160.582 161.974 15.6313 -141.432 163.132 9.99233 -121.853 167.522 9.99238 
-121.915 147.527 9.99215 -9.79708 162.377 9.9911 4.64522 152.372 19.5373 
19.6837 161.592 9.99236 36.5492 150.849 9.99272 53.8559 160.889 9.99263 
77.6969 149.565 9.9918 97.8718 165.379 9.99053 121.923 162.439 9.99165 
140.094 152.08 9.99171 166.47 149.954 9.99153 -161.896 -165.116 47.2629 
-117.045 -162.642 25.7292 -127.293 -159.948 46.7754 -110.13 -150.013 44.25 
-81.9951 -142.197 24.9715 -68.0364 -170.321 40.4178 -51.5645 -154.799 36.7839 
-22.9408 -155.836 26.026 -33.006 -157.082 44.1724 -12.0214 -148.3 41.0397 
46.751 -151.629 21.949 16.6692 -169.696 26.8699 39.845 -162.108 37.519 
24.2241 -158.384 49.4539 55.2174 -152.459 45.9116 88.9119 -163.254 45.0898 
111.712 -169.176 23.6929 161.567 -150.221 21.591 144.55 -161.29 46.4361 
-167.221 -136.031 26.7116 -165.562 -112.133 28.6969 -132.592 -131.299 24.9761 
-35.7281 -123.84 32.9267 15.9644 -134.759 24.981 78.3694 -136.634 24.9783 
94.9053 -114.96 46.9266 103.737 -132.815 48.7793 128.727 -138.622 24.9788 
115.038 -113.894 45.6144 134.971 -113.447 48.5551 158.771 -137.653 43.3543 
159.669 -122.998 29.7794 -169.046 -93.929 36.2022 -150.931 -106.788 41.9296 
-135.164 -80.5488 24.9778 -100.259 -82.7688 23.7896 -63.8739 -83.3013 24.98 
2.06151 -103.678 33.6547 29.6574 -83.9896 24.97 102.224 -88.711 24.9656 
133.702 -102.279 32.017 127.6 -85.1714 48.8039 155.716 -103.965 34.7918 
-163.738 -73.3636 43.9863 -163.26 -53.3738 44.1943 -162.76 -48.8719 23.8971 
-112.743 -52.6776 29.6219 -119.401 -58.8087 47.4523 -88.5518 -59.2914 31.2384 
-104.647 -69.1844 37.7911 -99.8344 -50.5026 45.5236 -87.3718 -72.0116 48.3265 
-71.397 -49.277 28.1408 -44.8126 -55.0788 33.067 -16.9601 -75.2412 41.0145 
67.6965 -59.0518 45.6848 122.433 -62.9817 46.3317 148.973 -71.0181 24.9809 
-137.622 -30.0531 39.3464 -83.2593 -33.2395 29.4926 -103.221 -35.3586 32.6772 
-89.2675 -27.8088 47.7719 -50.3699 -21.4909 24.9678 -18.6537 -41.0715 29.0001 
-32.5254 -43.7754 45.5563 15.8084 -36.6681 33.2003 48.4303 -22.6504 26.7769 
109.69 -38.3562 24.9817 154.767 -24.116 41.2516 -159.375 -3.73666 47.0216 
-127.599 2.11576 48.7967 -99.9101 0.318158 24.9776 -75.4778 -11.3637 47.1406 
-1.17463 1.5878 23.2687 47.0816 12.2719 24.979 118.479 2.63489 37.0753 
128.918 -8.15838 23.8705 -145.981 20.0029 24.9779 -170.297 35.2981 44.9643 
-113.89 31.3528 33.1064 -96.9695 40.1648 27.0343 -90.3074 35.0672 45.1852 
-57.9793 28.0406 33.781 -25.7677 19.5407 23.0769 -26.6636 40.7704 42.8313 
3.37284 38.8244 24.9827 32.1741 37.1063 44.7852 66.4237 31.7856 47.2243 
95.2055 25.7926 24.9643 120.431 20.9239 48.722 170.791 15.7067 48.8401 
146.08 22.3329 24.9704 -161.59 51.2512 27.1265 -148.295 75.2906 48.8079 
-129.374 50.0594 31.7217 -104.371 74.3055 24.9751 -80.2168 54.2131 40.4974 
-70.8949 58.9877 22.0388 -3.98756 73.1955 32.2559 36.7425 72.3266 42.167 
53.472 47.4585 21.8247 68.8157 47.258 34.646 92.9283 76.0533 24.9779 
128.468 61.1701 48.4885 158.421 52.8262 36.893 142.732 47.1419 49.4203 
-166.257 105.1 38.8506 -78.9626 105.903 27.6439 -71.8864 87.222 28.5378 
-37.2515 81.2739 24.9867 7.38185 95.9434 22.8537 101.817 104.836 42.7848 
122.001 79.5845 44.1315 121.127 103.391 26.593 124.953 99.2932 45.7872 
150.813 84.8346 24.9806 -161.53 123.319 45.8755 -170.962 122.832 28.2611 
-134.214 116.917 24.9727 -98.7914 110.252 28.6129 3.21269 136.952 32.187 
33.4859 119.154 24.965 79.4034 111.591 23.4021 105.617 134.721 24.9825 
152.644 138.577 20.6151 -160.113 140.718 30.7983 -145.251 153.586 27.143 
-143.187 144.35 44.7588 -125.111 150.398 29.5204 -117.901 165.646 40.2595 
-90.3554 149.604 24.9724 -40.7865 156.079 24.9725 21.6757 151.793 30.4425 
35.6476 164.802 24.4912 30.5959 164.621 49.7717 63.5352 154.742 43.0849 
93.384 167.21 29.3865 137.586 168.839 20.6457 126.378 170.635 37.1069 
136.515 150.482 29.5987 122.545 154.394 48.4568 160.988 166.446 19.8733 
163.942 149.198 33.2377 149.42 164.295 36.1079 -149.486 -156.422 78.8194 
-129.892 -153.254 65.4364 -137.695 -170.98 71.8444 -109.812 -151.8 64.3413 
-116.513 -141.433 80.8961 -103.733 -166.999 52.8577 -92.1506 -159.519 69.6541 
-79.9204 -161.651 53.9841 -55.4746 -163.463 54.3678 -68.631 -169.68 68.5277 
-45.452 -163.325 71.6633 -27.3659 -154.876 72.702 -14.7824 -145.155 60.5893 
7.2684 -148.122 71.8756 41.1468 -160.043 80.0601 68.1596 -143.606 64.8963 
77.5305 -160.902 61.3547 86.8547 -140 58.7613 82.3855 -152.288 78.7261 
114.97 -159.698 68.1653 151.465 -152.819 63.176 165.799 -165.047 79.1986 
-144.642 -122.323 72.6482 -116.655 -135.013 55.9079 -100.611 -131.262 74.3105 
-65.909 -134.937 71.7287 -30.592 -134.08 65.9934 -35.5451 -115.721 72.1787 
-0.184421 -114.133 67.5627 23.4209 -138.486 58.962 49.167 -114.787 59.1684 
90.696 -132.713 77.2404 131.751 -122.595 66.0429 114.622 -119.176 75.7808 
160.826 -129.62 64.4972 143.508 -135.705 56.566 -151.531 -87.7931 75.0685 
-149.839 -80.003 56.7362 -117.763 -86.7481 76.7063 -100.311 -104.321 51.9821 
-78.7281 -80.8355 73.044 -60.891 -107.347 50.7972 -68.7616 -90.8045 58.8096 
-48.3721 -83.3343 56.3533 -43.5662 -102.484 59.5183 -28.3227 -93.3667 68.7022 
-8.78739 -80.9445 74.5605 91.9309 -92.6143 73.7056 122.662 -101.373 59.4346 
124.98 -83.3465 80.4899 156.156 -94.0669 68.7558 -142.417 -61.6787 53.5428 
-121.465 -76.894 56.9714 -136.201 -74.4715 70.2731 -129.348 -55.8555 67.7632 
-98.3581 -77.1326 73.9283 -104.226 -66.7924 57.7391 -97.7231 -52.5147 70.1373 
-63.3718 -50.9831 63.1649 -36.3472 -72.1368 70.0089 25.2258 -71.3909 73.1313 
59.7034 -77.2356 74.4954 103.939 -67.3724 52.6414 95.0063 -57.4132 67.4883 
111.796 -47.4131 72.1324 122.127 -72.7151 63.7974 129.935 -55.7288 70.8901 
138.204 -52.6301 52.9534 155.786 -60.8421 57.7716 -163.158 -45.7123 79.3614 
-111.732 -42.5904 59.5134 -130.021 -36.539 72.8815 -68.0553 -16.2944 65.2255 
-13.6995 -40.2215 76.5457 39.312 -42.9719 58.3473 20.0784 -37.1755 67.9265 
37.3033 -35.8934 78.3216 52.0379 -29.5043 65.8619 99.2741 -40.1729 58.3312 
98.586 -29.8644 77.5833 112.924 -22.4695 58.0525 123.087 -40.2052 57.2579 
-160.065 -14.2231 64.4412 -144.455 2.70101 59.6263 -140.96 -13.8471 70.2925 
-158.996 -1.90317 80.615 -83.1423 12.3839 53.2253 -106.229 -10.888 73.2752 
-58.5332 -2.7856 53.3938 -46.583 -16.1868 63.2326 -18.4173 4.11637 53.615 
28.6422 -3.26121 68.7655 60.9577 6.79134 77.8461 79.7661 -11.3754 54.592 
108.384 -4.03914 75.1414 93.7664 14.5328 73.471 132.793 1.34251 51.0101 
112.975 0.223639 56.1489 168.777 0.564623 61.7276 -161.083 17.4517 66.5687 
-161.008 44.6658 59.9844 -129.615 33.1894 70.3302 -101.669 20.7672 53.3224 
-95.172 27.0382 71.1671 -87.9297 43.8035 63.0148 -31.7945 26.7235 76.7322 
-9.74559 38.2512 57.42 16.6786 33.5699 56.9194 51.2263 40.4049 77.7989 
112.117 18.6877 66.7561 145.797 23.3911 74.9397 -115.977 66.5286 61.0047 
-131.288 67.2169 78.3011 -102.357 52.9773 52.6455 -99.5603 49.8585 78.1127 
-80.2534 77.481 68.6417 -33.0519 61.1423 70.5567 0.64727 52.4364 66.9387 
2.34925 67.4801 50.834 20.5285 51.4188 65.0701 33.8836 74.1127 77.0547 
53.3963 75.0661 72.82 69.6052 65.065 51.7576 73.1993 74.5995 70.1438 
99.0361 51.1231 67.8648 132.277 62.0581 68.1059 160.169 66.2764 53.1329 
[...]
POINT_DATA 2000
FIELD FieldData 7
id 1 2000 int
428 203 284 211 249 417 196 240 380 
82 109 389 355 309 333 420 224 281 
125 184 160 298 285 105 217 360 205 
426 317 295 444 79 103 293 233 158 
226 319 357 358 352 140 139 280 446 
435 276 398 369 429 121 406 302 452 
371 388 112 88 464 127 172 439 154 
227 204 384 187 142 418 450 157 266 
455 297 221 269 252 395 322 104 185 
323 222 407 308 201 294 451 136 141 
393 90 197 273 390 167 278 93 306 
272 255 433 216 171 405 311 345 381 
124 289 332 130 432 300 394 248 94 
261 419 174 177 98 70 258 84 422 
74 378 77 242 78 150 241 256 342 
243 131 100 206 365 277 244 437 42 
3 5 33 460 87 43 368 156 190 
238 321 117 53 359 31 183 65 72 
339 144 210 138 202 152 349 376 316 
182 448 411 99 83 55 29 331 38 
27 263 415 218 9 377 463 15 366 
62 69 220 353 51 129 268 47 379 
337 44 170 186 80 134 11 214 396 
17 135 231 48 169 404 21 336 4 
459 56 239 107 151 75 279 192 73 
327 195 161 367 147 403 13 434 427 
391 410 375 28 265 110 35 340 343 
19 215 63 351 250 251 208 97 402 
6 71 173 290 283 58 76 198 162 
86 454 102 81 401 392 442 164 1312 
858 461 194 200 303 313 347 1479 113 
1802 68 307 301 286 312 32 936 1053 
8 386 430 34 363 260 10 292 57 
114 447 305 199 207 287 397 1214 14 
291 409 310 228 149 85 318 20 374 
257 39 236 423 123 166 95 326 89 
41 425 67 399 412 372 188 443 237 
341 328 49 246 905 213 45 350 414 
179 438 408 181 155 148 275 346 1097 
1493 126 46 234 1894 7 66 264 12 
163 92 457 362 436 271 116 54 132 
108 344 354 324 270 22 413 40 122 
267 176 1589 25 1 373 348 400 1413 
91 330 262 23 465 209 387 245 115 
146 385 230 50 193 165 259 223 37 
296 178 424 329 101 137 106 364 299 
1954 61 64 60 314 212 18 466 325 
274 153 219 24 370 1233 335 133 1173 
445 356 334 453 361 382 168 16 111 
143 145 941 235 191 120 441 1408 1206 
1627 1788 1176 1703 1229 969 1636 1832 1146 
1945 1843 1866 1456 180 1721 1462 118 723 
1194 1400 1023 1532 1827 704 253 1303 458 
975 1927 631 1837 1442 915 1753 1010 1118 
557 620 504 1940 229 946 119 1042 1942 
1892 829 1252 1710 986 1722 1218 1955 989 
1602 883 950 1963 1762 383 1724 416 1354 
899 1914 225 1063 1170 1473 641 128 1646 
1633 247 59 887 30 1607 1969 1198 852 
999 36 304 96 787 288 1340 747 1593 
669 1296 1139 159 1740 1920 1080 1622 26 
971 1568 456 1488 2 1159 1179 1697 812 
431 913 1014 1279 925 1191 254 1662 449 
232 1868 1776 485 1682 597 1182 282 175 
1445 421 788 776 1898 987 1990 1924 338 
1804 1030 1371 1566 1571 1653 1897 462 1637 
1864 775 1440 1106 1246 877 981 320 1008 
1661 579 189 1546 1086 932 1694 1189 621 
52 1481 1184 1601 1846 1938 1781 1140 440 
1612 934 315 822 1282 1676 1398 1530 1045 
1790 711 1092 1605 1714 1292 1151 860 1280 
1055 1814 912 988 1787 789 808 1739 1464 
491 1137 1875 1104 574 1270 552 717 1289 
690 1128 1484 1931 1417 709 675 1877 733 
1477 472 791 1669 782 1393 1922 1348 571 
1992 507 955 825 1658 1939 1454 608 1046 
1885 515 1995 1893 1756 672 1083 1564 1487 
1671 798 1976 518 1979 810 980 695 1548 
661 1476 1114 895 1735 838 866 1800 1425 
1277 628 1337 1286 882 1224 1003 556 781 
1900 1157 1965 480 757 476 1256 698 619 
1457 964 1536 1667 706 1559 848 1860 1624 
1402 1459 1947 1901 512 797 494 1839 1986 
1033 753 593 535 1245 1982 1785 1351 1666 
659 687 1933 1640 1380 1861 992 1623 857 
1311 577 790 1253 1854 1200 549 500 665 
1673 479 1060 949 823 1448 1338 640 649 
996 702 1416 754 1718 1406 940 1254 551 
1436 931 750 1415 622 1572 1962 490 802 
1187 1887 894 1704 1309 1238 1582 1614 859 
1161 1527 1775 868 524 553 1842 1599 1002 
1554 1908 609 625 1291 1968 1195 1734 483 
1613 703 481 1929 1319 1463 473 1394 1806 
1472 1129 880 502 1505 1329 984 944 1217 
1381 1826 1925 903 1295 1881 539 726 477 
1035 1784 714 547 1438 1526 1600 1318 766 
947 1596 1364 1446 1510 1249 1205 991 1271 
917 734 1334 1610 1132 1435 1700 1512 660 
953 807 1196 1050 1838 836 1219 1331 1911 
956 2000 1551 1594 1544 508 761 572 863 
990 960 978 1603 1807 1084 495 471 1754 
1896 1089 469 1997 684 1098 1902 942 1579 
1905 1560 865 1326 1503 1048 1344 1590 1069 
824 1049 985 1934 1685 486 1977 1486 519 
1180 1628 1369 918 613 1240 596 1539 654 
1403 1397 1857 909 1746 642 1223 979 983 
1232 1148 1199 1241 1871 1634 844 1222 1315 
567 997 586 1202 505 1130 1081 713 1904 
774 1565 1741 1793 513 1767 1619 1983 1166 
1562 1313 1012 1255 1153 1975 1833 862 645 
843 1038 694 1910 864 1373 1643 1906 587 
1731 832 1444 1492 1913 973 1469 1345 1149 
1772 1410 1691 901 1651 662 1711 1285 525 
1377 1174 1360 658 1844 544 1586 749 1359 
1293 1028 1409 1521 794 1895 1973 1778 1465 
484 1391 1186 1801 1065 1899 1621 1236 746 
584 1715 1323 496 1795 707 554 1684 1529 
1203 1399 1872 1006 1750 1365 506 542 1683 
1952 977 1514 1220 1650 671 834 1743 1903 
786 1841 1915 1972 1105 1815 1443 1362 870 
1040 1553 1154 1496 520 1335 1067 1930 1226 
907 612 1797 1322 1274 993 1760 1489 1674 
623 1518 762 1654 1745 1499 1429 487 1729 
933 1136 1470 685 1082 718 1260 538 1126 
1859 1037 1820 1737 611 1584 923 679 1698 
879 1949 1070 741 1921 820 1789 1757 1061 
1523 772 799 1639 732 1474 1987 886 688 
578 1094 644 1805 1577 1272 1870 963 630 
916 1306 1668 1374 1325 1960 1299 982 816 
1405 696 770 854 1138 1550 785 976 1828 
1093 994 1891 1498 1181 1310 1125 1597 634 
1251 1935 643 1873 972 516 1131 498 1575 
861 1999 1386 1441 1197 1576 618 813 1581 
1110 809 1269 475 1725 1890 1162 1774 1758 
1850 1889 543 1923 635 847 1155 1759 615 
760 1712 651 1917 1183 664 1822 1547 1434 
872 1771 1142 1164 1047 1119 1645 1504 1520 
1500 1117 1641 1165 1261 742 1424 1273 1264 
1821 1290 1932 560 1966 1629 691 1808 510 
638 1516 1263 1770 1515 1352 558 1829 1355 
489 1043 1235 1308 1971 548 1414 627 962 
773 674 1631 605 1670 1783 1044 1689 1088 
900 1946 1216 1830 908 534 1239 1491 1052 
591 1991 830 1029 1375 546 1017 1383 1638 
1591 1495 666 653 1779 1100 550 1981 1728 
1948 536 1552 529 1988 1133 1349 497 1657 
827 1257 603 1346 1062 1025 867 1644 1755 
1585 1208 1852 764 740 1382 1944 851 656 
1123 1076 1549 482 1237 835 1366 1957 720 
763 670 1056 503 1958 954 1210 818 1508 
1525 1158 1587 1390 724 1609 767 1471 765 
576 1298 737 744 1054 884 705 1617 1719 
1782 1882 1330 878 1840 1786 1649 1466 1537 
1768 892 650 569 589 876 1709 965 1967 
1287 1068 1079 845 1912 1752 1396 1847 639 
1387 1695 1353 1699 1540 1385 478 1626 1075 
1791 839 1595 1389 1101 873 1738 564 1431 
1616 1451 1749 1421 1095 1358 924 626 1288 
1845 1167 828 1461 1347 1275 1713 970 1777 
1736 902 821 1022 1107 1834 566 1019 948 
1517 604 1468 1420 1534 1011 673 1799 1573 
1243 680 468 1168 1538 719 1936 1803 795 
562 1231 1675 1502 1265 521 1026 1449 1835 
537 1247 1090 1230 1909 768 1765 922 1212 
966 636 633 1074 1085 1363 1879 855 841 
1171 1302 501 1113 1301 888 850 967 683 
689 1077 1242 1541 585 1102 499 1951 959 
1961 1430 1511 1121 492 1268 1341 1855 682 
1569 1211 1367 869 1091 881 1819 958 1567 
722 1192 831 1672 610 1574 1543 575 1888 
1555 1792 1201 1531 1327 739 1497 1213 1825 
533 1611 815 1458 846 1665 939 511 493 
600 715 1031 1428 1120 1009 1751 1057 914 
1588 1959 1592 777 581 1259 1372 1701 1524 
1865 1869 961 817 607 598 1696 1278 1439 
1848 1659 898 522 1032 1156 1317 1677 1615 
1284 897 1455 806 1021 1943 751 646 1324 
1918 1426 1209 974 1145 488 1234 594 678 
1475 1994 1204 1000 1836 1705 891 1485 699 
1811 1956 1294 663 951 1655 614 1761 1262 
545 1001 1730 929 1127 1702 1708 1542 1147 
842 531 1688 943 1652 1407 624 1096 1563 
1175 1143 676 1858 1648 541 1625 1314 708 
731 617 1225 1004 1112 1066 748 632 890 
1039 1078 1707 1570 1680 1818 1036 1087 532 
906 1528 1993 1300 1886 701 1248 527 1356 
1535 1937 1024 526 601 716 1244 1692 602 
1207 1919 756 1185 1796 1478 1283 1620 1880 
1111 889 1606 745 1221 1215 1519 769 759 
1998 563 1376 1368 1618 1404 1103 771 930 
1663 568 801 1720 606 1321 998 1276 1450 
1974 1561 1604 1798 710 1883 1073 911 1034 
528 1020 1763 826 1664 588 893 1794 1116 
1134 517 1748 871 1813 1984 1608 692 1152 
693 1392 796 1281 595 1876 920 1328 1190 
1545 590 1681 1686 1660 1733 803 1726 1874 
957 1769 1742 1051 1419 919 1706 1378 1941 
1996 904 738 1336 1342 1452 910 1370 1717 
937 681 945 1812 755 1884 780 1447 833 
1583 1160 1427 583 1379 697 1339 1989 1141 
1656 1297 1985 1727 648 467 509 1433 1687 
1916 805 725 1690 1177 735 1716 1041 559 
1401 728 729 1642 1178 599 1978 1015 1395 
1824 1412 647 1647 629 784 1849 1950 1411 
1258 1384 555 727 1227 1831 736 1144 952 
1867 1773 592 1115 804 1953 580 652 474 
1007 514 712 1494 1679 1964 1766 540 1350 
1598 1809 1635 1816 1357 1490 1557 783 926 
779 667 1764 1437 1467 1851 1150 1578 1928 
1556 1172 1316 1058 853 1856 1432 1483 1744 
1678 1361 1533 530 1059 1423 1480 885 1817 
1507 582 1005 875 1304 1343 837 686 800 
995 1513 1907 1630 657 1863 758 1580 565 
1135 570 1810 668 523 1747 928 968 1388 
811 792 721 819 1027 896 1501 1099 1064 
1823 1307 1228 616 1163 778 700 677 1522 
1018 927 743 1122 938 1332 1169 814 1980 
1482 1970 1862 849 573 1109 1723 655 1418 
1193 1333 561 1124 793 637 1108 470 1267 
935 730 1266 856 1632 1305 1780 1071 1732 
1072 1693 1320 1453 1188 1460 1558 1013 840 
1853 1509 921 1422 874 1250 752 1016 1506 
1878 1926 
type 1 2000 int
1 1 1 1 1 1 1 1 1 
1 1 1 1 1 1 1 1 1 
1 1 1 1 1 1 1 1 1 
1 1 1 1 1 1 1 1 1 
1 1 1 1 1 1 1 1 1 
1 1 1 1 1 1 1 1 1 
1 1 1 1 1 1 1 1 1 
1 1 1 1 1 1 1 1 1 
1 1 1 1 1 1 1 1 1 
1 1 1 1 1 1 1 1 1 
1 1 1 1 1 1 1 1 1 
1 1 1 1 1 1 1 1 1 
1 1 1 1 1 1 1 1 1 
1 1 1 1 1 1 1 1 1 
1 1 1 1 1 1 1 1 1 
1 1 1 1 1 1 1 1 1 
1 1 1 1 1 1 1 1 1 
1 1 1 1 1 1 1 1 1 
1 1 1 1 1 1 1 1 1 
1 1 1 1 1 1 1 1 1 
1 1 1 1 1 1 1 1 1 
1 1 1 1 1 1 1 1 1 
1 1 1 1 1 1 1 1 1 
1 1 1 1 1 1 1 1 1 
1 1 1 1 1 1 1 1 1 
1 1 1 1 1 1 1 1 1 
1 1 1 1 1 1 1 1 1 
1 1 1 1 1 1 1 1 1 
1 1 1 1 1 1 1 1 1 
1 1 1 1 1 1 1 1 1 
1 1 1 1 1 1 1 1 1 
1 1 1 1 1 1 1 1 1 
1 1 1 1 1 1 1 1 1 
1 1 1 1 1 1 1 1 1 
1 1 1 1 1 1 1 1 1 
1 1 1 1 1 1 1 1 1 
1 1 1 1 1 1 1 1 1 
1 1 1 1 1 1 1 1 1 
1 1 1 1 1 1 1 1 1 
1 1 1 1 1 1 1 1 1 
1 1 1 1 1 1 1 1 1 
1 1 1 1 1 1 1 1 1 
1 1 1 1 1 1 1 1 1 
1 1 1 1 1 1 1 1 1 
1 1 1 1 1 1 1 1 1 
1 1 1 1 1 1 1 1 1 
1 1 1 1 1 1 1 1 1 
1 1 1 1 1 1 1 1 1 
1 1 1 1 1 1 1 1 1 
1 1 1 1 1 1 1 1 1 
1 1 1 1 1 1 1 1 1 
1 1 1 1 1 1 1 1 1 
1 1 1 1 1 1 1 1 1 
1 1 1 1 1 1 1 1 1 
1 1 1 1 1 1 1 1 1 
1 1 1 1 1 1 1 1 1 
1 1 1 1 1 1 1 1 1 
1 1 1 1 1 1 1 1 1 
1 1 1 1 1 1 1 1 1 
1 1 1 1 1 1 1 1 1 
1 1 1 1 1 1 1 1 1 
1 1 1 1 1 1 1 1 1 
1 1 1 1 1 1 1 1 1 
1 1 1 1 1 1 1 1 1 
1 1 1 1 1 1 1 1 1 
1 1 1 1 1 1 1 1 1 
1 1 1 1 1 1 1 1 1 
1 1 1 1 1 1 1 1 1 
1 1 1 1 1 1 1 1 1 
1 1 1 1 1 1 1 1 1 
1 1 1 1 1 1 1 1 1 
1 1 1 1 1 1 1 1 1 
1 1 1 1 1 1 1 1 1 
1 1 1 1 1 1 1 1 1 
1 1 1 1 1 1 1 1 1 
1 1 1 1 1 1 1 1 1 
1 1 1 1 1 1 1 1 1 
1 1 1 1 1 1 1 1 1 
1 1 1 1 1 1 1 1 1 
1 1 1 1 1 1 1 1 1 
1 1 1 1 1 1 1 1 1 
1 1 1 1 1 1 1 1 1 
1 1 1 1 1 1 1 1 1 
1 1 1 1 1 1 1 1 1 
1 1 1 1 1 1 1 1 1 
1 1 1 1 1 1 1 1 1 
1 1 1 1 1 1 1 1 1 
1 1 1 1 1 1 1 1 1 
1 1 1 1 1 1 1 1 1 
1 1 1 1 1 1 1 1 1 
1 1 1 1 1 1 1 1 1 
1 1 1 1 1 1 1 1 1 
1 1 1 1 1 1 1 1 1 
1 1 1 1 1 1 1 1 1 
1 1 1 1 1 1 1 1 1 
1 1 1 1 1 1 1 1 1 
1 1 1 1 1 1 1 1 1 
1 1 1 1 1 1 1 1 1 
1 1 1 1 1 1 1 1 1 
1 1 1 1 1 1 1 1 1 
1 1 1 1 1 1 1 1 1 
1 1 1 1 1 1 1 1 1 
1 1 1 1 1 1 1 1 1 
1 1 1 1 1 1 1 1 1 
1 1 1 1 1 1 1 1 1 
1 1 1 1 1 1 1 1 1 
1 1 1 1 1 1 1 1 1 
1 1 1 1 1 1 1 1 1 
1 1 1 1 1 1 1 1 1 
1 1 1 1 1 1 1 1 1 
1 1 1 1 1 1 1 1 1 
1 1 1 1 1 1 1 1 1 
1 1 1 1 1 1 1 1 1 
1 1 1 1 1 1 1 1 1 
1 1 1 1 1 1 1 1 1 
1 1 1 1 1 1 1 1 1 
1 1 1 1 1 1 1 1 1 
1 1 1 1 1 1 1 1 1 
1 1 1 1 1 1 1 1 1 
1 1 1 1 1 1 1 1 1 
1 1 1 1 1 1 1 1 1 
1 1 1 1 1 1 1 1 1 
1 1 1 1 1 1 1 1 1 
1 1 1 1 1 1 1 1 1 
1 1 1 1 1 1 1 1 1 
1 1 1 1 1 1 1 1 1 
1 1 1 1 1 1 1 1 1 
1 1 1 1 1 1 1 1 1 
1 1 1 1 1 1 1 1 1 
1 1 1 1 1 1 1 1 1 
1 1 1 1 1 1 1 1 1 
1 1 1 1 1 1 1 1 1 
1 1 1 1 1 1 1 1 1 
1 1 1 1 1 1 1 1 1 
1 1 1 1 1 1 1 1 1 
1 1 1 1 1 1 1 1 1 
1 1 1 1 1 1 1 1 1 
1 1 1 1 1 1 1 1 1 
1 1 1 1 1 1 1 1 1 
1 1 1 1 1 1 1 1 1 
1 1 1 1 1 1 1 1 1 
1 1 1 1 1 1 1 1 1 
1 1 1 1 1 1 1 1 1 
1 1 1 1 1 1 1 1 1 
1 1 1 1 1 1 1 1 1 
1 1 1 1 1 1 1 1 1 
1 1 1 1 1 1 1 1 1 
1 1 1 1 1 1 1 1 1 
1 1 1 1 1 1 1 1 1 
1 1 1 1 1 1 1 1 1 
1 1 1 1 1 1 1 1 1 
1 1 1 1 1 1 1 1 1 
1 1 1 1 1 1 1 1 1 
1 1 1 1 1 1 1 1 1 
1 1 1 1 1 1 1 1 1 
1 1 1 1 1 1 1 1 1 
1 1 1 1 1 1 1 1 1 
1 1 1 1 1 1 1 1 1 
1 1 1 1 1 1 1 1 1 
1 1 1 1 1 1 1 1 1 
1 1 1 1 1 1 1 1 1 
1 1 1 1 1 1 1 1 1 
1 1 1 1 1 1 1 1 1 
1 1 1 1 1 1 1 1 1 
1 1 1 1 1 1 1 1 1 
1 1 1 1 1 1 1 1 1 
1 1 1 1 1 1 1 1 1 
1 1 1 1 1 1 1 1 1 
1 1 1 1 1 1 1 1 1 
1 1 1 1 1 1 1 1 1 
1 1 1 1 1 1 1 1 1 
1 1 1 1 1 1 1 1 1 
1 1 1 1 1 1 1 1 1 
1 1 1 1 1 1 1 1 1 
1 1 1 1 1 1 1 1 1 
1 1 1 1 1 1 1 1 1 
1 1 1 1 1 1 1 1 1 
1 1 1 1 1 1 1 1 1 
1 1 1 1 1 1 1 1 1 
1 1 1 1 1 1 1 1 1 
1 1 1 1 1 1 1 1 1 
1 1 1 1 1 1 1 1 1 
1 1 1 1 1 1 1 1 1 
1 1 1 1 1 1 1 1 1 
1 1 1 1 1 1 1 1 1 
1 1 1 1 1 1 1 1 1 
1 1 1 1 1 1 1 1 1 
1 1 1 1 1 1 1 1 1 
1 1 1 1 1 1 1 1 1 
1 1 1 1 1 1 1 1 1 
1 1 1 1 1 1 1 1 1 
1 1 1 1 1 1 1 1 1 
1 1 1 1 1 1 1 1 1 
1 1 1 1 1 1 1 1 1 
1 1 1 1 1 1 1 1 1 
1 1 1 1 1 1 1 1 1 
1 1 1 1 1 1 1 1 1 
1 1 1 1 1 1 1 1 1 
1 1 1 1 1 1 1 1 1 
1 1 1 1 1 1 1 1 1 
1 1 1 1 1 1 1 1 1 
1 1 1 1 1 1 1 1 1 
1 1 1 1 1 1 1 1 1 
1 1 1 1 1 1 1 1 1 
1 1 1 1 1 1 1 1 1 
1 1 1 1 1 1 1 1 1 
1 1 1 1 1 1 1 1 1 
1 1 1 1 1 1 1 1 1 
1 1 1 1 1 1 1 1 1 
1 1 1 1 1 1 1 1 1 
1 1 1 1 1 1 1 1 1 
1 1 1 1 1 1 1 1 1 
1 1 1 1 1 1 1 1 1 
1 1 1 1 1 1 1 1 1 
1 1 1 1 1 1 1 1 1 
1 1 1 1 1 1 1 1 1 
1 1 1 1 1 1 1 1 1 
1 1 1 1 1 1 1 1 1 
1 1 1 1 1 1 1 1 1 
1 1 1 1 1 1 1 1 1 
1 1 1 1 1 1 1 1 1 
1 1 1 1 1 1 1 1 1 
1 1 
i 3 2000 int
0 0 0 0 0 0 0 0 0 
0 0 0 0 0 0 0 0 0 
0 0 0 0 0 0 0 0 0 
0 0 0 0 0 0 0 0 0 
0 0 0 0 0 0 0 0 0 
0 0 0 -1 0 0 0 0 0 
0 0 0 0 0 0 0 0 0 
0 0 0 0 0 0 0 0 0 
0 0 0 0 0 0 0 0 0 
0 0 0 0 0 0 0 0 0 
0 0 0 0 0 0 0 0 0 
0 0 0 0 0 0 0 0 0 
0 0 0 0 0 0 0 0 0 
0 0 0 0 0 0 0 0 0 
0 0 0 0 0 0 0 0 0 
0 0 0 0 0 0 0 0 0 
0 0 0 0 0 0 0 0 0 
0 0 0 0 0 0 0 0 0 
1 0 0 0 0 0 0 0 0 
0 0 0 0 0 0 0 0 0 
0 0 0 0 0 0 0 0 0 
0 0 0 0 0 0 1 0 0 
0 0 0 0 0 0 0 0 0 
0 0 0 0 0 0 0 0 0 
0 0 0 0 0 0 0 0 0 
0 0 0 0 0 0 0 0 0 
0 0 0 0 0 0 0 0 0 
0 0 0 0 0 0 0 0 0 
0 0 0 0 0 0 0 0 0 
0 0 0 0 0 0 0 0 0 
0 0 0 0 0 0 0 0 0 
0 0 0 0 0 0 0 0 0 
0 0 0 0 0 0 0 0 0 
0 0 0 0 0 0 0 0 0 
0 0 0 0 0 0 0 0 0 
0 0 0 0 0 0 0 0 0 
0 0 0 0 0 0 0 -1 0 
0 0 0 0 0 0 0 0 0 
0 0 0 0 0 0 0 0 0 
0 0 0 0 0 0 0 0 0 
0 0 0 0 0 0 0 0 0 
0 0 0 0 0 0 0 0 0 
0 0 0 0 0 0 0 0 0 
0 0 0 0 0 0 0 0 0 
0 0 0 0 0 0 0 1 0 
0 0 0 0 0 0 0 0 0 
0 1 0 0 0 0 0 0 0 
0 0 0 0 0 0 0 0 0 
0 0 0 0 0 0 0 0 0 
0 0 0 0 0 0 0 0 0 
0 0 0 0 0 0 0 0 0 
0 0 0 0 0 0 0 0 0 
0 0 0 0 0 0 0 0 0 
0 0 0 0 0 0 0 0 0 
0 0 0 0 0 0 0 0 0 
0 0 0 1 0 0 0 0 0 
0 0 0 0 0 0 0 0 0 
0 0 0 0 0 0 0 0 0 
0 0 0 0 0 0 0 0 0 
0 0 0 0 0 0 0 0 0 
0 0 0 0 0 0 0 0 0 
0 0 0 0 0 0 0 0 0 
0 0 0 0 0 0 0 0 0 
0 0 0 0 0 0 0 0 0 
0 0 0 0 0 0 0 0 0 
0 0 0 0 0 0 0 0 0 
0 0 0 0 0 0 1 0 0 
0 0 0 0 0 0 0 0 0 
0 0 0 0 0 0 0 0 0 
0 0 0 0 0 0 0 0 0 
0 0 0 0 0 0 0 0 0 
0 0 0 1 0 0 0 0 0 
0 0 0 0 0 0 0 0 0 
0 0 0 0 0 0 0 0 0 
0 0 0 0 0 0 0 0 0 
0 0 0 0 0 0 0 0 0 
1 0 0 0 0 0 0 0 0 
0 0 0 0 0 0 0 0 0 
0 0 0 0 0 0 0 0 0 
0 0 0 0 0 0 0 0 0 
0 0 0 0 0 0 0 0 0 
0 0 0 0 0 0 0 0 0 
0 0 0 0 0 0 0 0 0 
0 0 0 0 0 0 0 0 0 
0 0 0 0 0 0 0 0 0 
0 0 0 0 -1 0 0 0 0 
0 0 0 0 -1 0 0 0 0 
0 0 0 0 0 0 0 -1 0 
0 0 0 0 0 0 0 0 0 
0 0 0 0 0 0 0 0 0 
0 0 0 0 0 0 0 0 0 
0 0 0 0 0 0 0 1 0 
0 1 0 0 0 0 0 0 0 
0 0 0 0 0 0 0 0 0 
0 1 0 0 0 0 0 0 0 
0 0 0 0 0 0 -1 0 0 
0 0 0 0 0 0 0 0 0 
0 0 0 0 0 0 0 0 0 
0 0 0 0 0 0 0 0 0 
0 0 0 0 0 0 0 0 0 
-1 0 0 0 0 0 0 0 0 
0 0 0 0 0 0 0 0 0 
0 0 0 0 0 0 0 0 0 
0 0 0 0 0 0 0 0 0 
0 0 0 0 0 0 0 0 0 
0 0 0 0 0 0 0 0 0 
0 0 0 0 0 0 0 0 0 
0 0 0 0 0 0 0 0 0 
0 0 0 0 0 0 0 0 0 
0 0 0 0 0 0 0 0 0 
0 0 0 0 0 0 0 0 0 
0 0 0 0 0 0 0 0 0 
0 0 0 0 0 0 0 0 0 
0 0 0 0 0 0 0 0 0 
0 0 0 0 0 0 0 0 0 
0 0 0 0 0 0 0 0 0 
0 0 0 0 0 0 0 0 0 
1 0 0 0 0 0 0 0 0 
0 0 0 0 0 0 0 0 0 
0 0 0 0 0 0 0 0 0 
0 0 0 0 0 0 0 0 0 
0 0 0 0 0 0 0 0 0 
0 0 0 0 0 0 0 0 0 
0 0 0 0 0 0 0 0 0 
0 0 0 0 0 0 0 0 0 
0 0 0 0 0 0 0 0 0 
0 0 0 0 0 0 0 0 0 
0 0 0 0 0 0 0 0 0 
0 0 0 0 0 0 0 0 0 
0 0 0 0 0 0 0 0 0 
0 0 0 0 0 0 0 0 0 
0 0 0 -1 0 0 0 0 0 
0 0 0 0 0 0 0 0 0 
0 0 0 0 0 0 0 0 0 
0 0 0 0 0 0 0 0 0 
0 0 0 0 0 0 0 0 0 
0 0 0 0 0 0 0 0 0 
0 0 0 0 0 0 0 0 0 
0 0 0 0 0 0 0 0 0 
0 0 0 0 0 0 0 0 0 
0 0 0 0 0 0 0 0 0 
0 0 0 0 0 0 0 0 0 
0 0 0 0 0 0 0 0 0 
0 0 0 0 0 0 0 0 0 
0 0 0 0 0 0 0 0 0 
0 0 0 0 0 0 0 0 0 
0 0 0 0 0 0 0 0 0 
0 0 0 0 0 0 0 0 0 
0 0 0 -1 0 0 0 0 0 
0 0 0 0 0 0 0 0 0 
0 0 0 0 0 0 1 0 0 
0 0 0 0 0 0 0 0 0 
0 0 0 0 0 0 0 1 0 
0 0 0 0 0 0 0 0 0 
0 0 0 0 1 0 0 0 0 
0 0 0 0 0 0 0 0 0 
0 0 0 0 1 0 0 0 0 
0 0 0 0 0 0 0 0 0 
0 0 0 0 0 0 0 0 0 
0 0 0 0 0 0 0 0 0 
0 0 0 0 0 0 0 0 0 
0 0 0 0 0 0 0 0 0 
0 0 0 0 0 0 0 0 0 
0 0 0 0 0 0 0 0 0 
0 0 0 0 0 0 0 0 0 
0 0 0 1 0 0 0 0 0 
0 0 0 0 0 0 0 0 0 
0 0 0 0 0 0 0 0 0 
0 0 0 0 0 0 0 0 0 
0 0 0 0 0 0 0 0 0 
0 0 0 0 0 0 0 0 0 
0 0 0 0 0 0 0 0 0 
0 0 0 0 0 0 0 0 0 
0 0 0 0 0 0 0 0 0 
0 0 0 0 0 0 0 0 0 
0 0 0 0 0 0 0 0 0 
0 0 0 0 0 0 0 0 0 
0 0 0 0 0 0 0 0 0 
0 0 0 0 0 0 0 0 0 
0 0 0 0 0 0 0 0 0 
0 0 0 1 0 0 0 0 0 
0 0 0 0 0 0 0 0 0 
0 0 0 0 0 0 0 0 0 
0 0 0 0 0 0 0 0 0 
0 0 0 0 0 0 0 0 0 
0 0 0 0 0 0 0 0 0 
0 0 0 0 0 0 0 0 0 
0 0 0 0 0 0 0 0 0 
0 0 0 0 0 0 0 0 0 
0 0 0 0 0 0 0 0 0 
0 0 0 0 0 0 0 0 0 
0 0 0 0 0 0 0 0 0 
0 0 0 0 0 0 0 0 0 
0 0 0 0 0 0 0 0 0 
0 0 0 0 0 0 0 0 0 
0 0 0 0 0 0 -1 0 0 
0 0 0 0 0 0 0 0 0 
0 0 0 0 0 0 0 0 0 
0 0 0 0 0 0 0 0 0 
0 0 0 0 0 0 0 0 0 
0 0 0 0 0 0 0 0 0 
0 0 0 0 0 0 0 0 0 
0 0 0 -1 0 0 0 0 0 
1 0 0 0 0 0 0 0 0 
0 0 0 0 -1 0 0 0 0 
0 0 0 0 0 0 0 0 0 
0 0 0 0 -1 0 0 0 0 
0 0 0 0 0 0 0 -1 0 
0 0 0 0 0 0 0 0 0 
0 0 0 1 0 0 0 0 0 
0 0 0 0 0 0 0 0 0 
0 0 0 0 0 0 0 0 0 
0 0 0 0 0 0 0 0 0 
0 0 0 0 0 0 0 0 0 
0 0 0 0 0 0 0 0 0 
0 0 0 0 0 0 0 0 0 
0 0 0 0 0 0 0 0 0 
0 0 0 0 0 0 0 0 0 
0 0 0 0 0 0 0 0 0 
0 0 0 0 0 0 0 0 0 
0 0 0 0 0 0 0 0 0 
0 0 0 0 0 0 0 0 0 
0 0 0 0 0 0 0 0 0 
0 0 0 0 0 0 0 0 0 
0 0 0 0 0 0 0 0 0 
0 0 0 0 0 0 0 0 0 
0 0 0 0 0 0 0 0 0 
0 0 0 0 0 0 0 0 0 
0 0 0 0 0 0 0 0 0 
0 0 0 0 0 0 0 0 0 
0 0 0 0 0 0 0 0 0 
0 0 0 0 0 0 0 0 0 
0 0 0 0 0 0 0 0 0 
0 0 0 0 0 0 0 0 0 
0 0 0 0 0 0 0 0 0 
0 0 0 0 0 0 0 0 0 
0 0 0 0 0 0 0 0 0 
0 0 0 0 0 0 0 0 0 
0 0 0 0 0 0 0 0 0 
0 0 0 0 0 0 0 0 0 
0 0 0 0 0 0 0 0 0 
0 0 0 0 0 0 0 0 0 
0 0 0 0 0 0 0 0 0 
0 0 0 0 0 0 0 0 0 
0 0 0 0 0 0 0 0 0 
0 0 0 0 0 0 1 0 0 
0 0 0 0 0 0 0 0 0 
0 0 0 0 0 0 0 0 0 
0 0 0 0 0 0 0 0 0 
0 0 0 0 0 0 0 0 0 
0 0 0 0 0 0 0 0 0 
0 0 0 0 0 0 0 0 0 
0 0 0 0 0 0 0 0 0 
0 0 0 0 0 0 0 1 0 
0 0 0 0 0 0 0 0 0 
0 0 0 0 0 0 0 0 0 
0 0 0 0 0 0 0 0 0 
0 0 0 0 0 0 0 0 0 
0 0 0 0 0 0 0 0 0 
0 0 0 0 0 0 0 0 0 
0 0 0 0 0 0 0 0 0 
0 0 0 0 0 0 0 0 0 
0 0 0 0 0 0 0 0 0 
0 0 0 0 0 0 0 0 0 
0 0 0 0 0 0 0 0 0 
0 0 0 0 0 0 0 0 0 
0 0 0 0 0 0 0 0 0 
0 0 0 0 0 0 0 0 0 
0 0 0 0 0 0 0 0 0 
0 0 0 0 0 0 0 0 0 
0 0 0 0 0 0 0 0 0 
0 0 0 0 0 0 0 0 0 
0 0 0 0 0 0 0 0 0 
0 0 0 0 0 0 0 0 0 
0 0 0 0 0 0 0 0 0 
0 0 0 0 0 0 0 0 0 
0 0 0 0 0 0 0 0 0 
0 0 0 0 0 0 0 0 0 
0 0 0 0 0 0 0 0 0 
0 0 0 0 0 0 1 0 0 
0 0 0 0 0 0 0 0 0 
0 0 0 0 0 0 0 0 0 
0 0 0 0 0 0 0 0 0 
0 0 0 0 0 0 0 0 0 
0 0 0 0 0 0 0 0 0 
0 0 0 0 0 0 0 0 0 
0 0 0 1 0 0 0 0 0 
0 0 0 0 0 0 0 0 0 
0 0 0 0 0 0 0 0 0 
0 0 0 0 0 0 0 0 0 
0 0 0 0 -1 0 0 0 0 
0 0 0 0 0 0 0 -1 0 
0 0 0 0 0 0 0 0 0 
0 0 0 0 0 0 0 0 0 
0 0 0 0 0 0 0 0 0 
0 0 0 0 0 0 0 0 0 
0 0 0 0 0 0 0 0 0 
0 0 0 0 0 0 0 0 0 
0 0 0 0 0 0 0 0 0 
0 0 0 0 0 0 0 0 0 
0 0 0 0 0 0 0 0 0 
0 0 0 0 0 0 0 0 0 
0 0 0 0 0 0 0 0 0 
0 0 0 0 0 0 0 0 0 
0 0 0 0 0 0 0 0 0 
0 0 0 0 0 0 0 0 0 
0 0 0 0 0 0 0 0 0 
0 0 0 0 0 0 0 0 0 
0 0 0 0 0 0 0 0 0 
0 0 0 0 0 0 0 0 0 
0 0 0 0 0 0 0 0 0 
0 0 0 0 0 0 0 0 0 
0 0 0 0 0 0 0 0 0 
0 0 0 0 0 0 0 0 0 
0 0 0 0 0 0 0 0 0 
0 0 0 0 0 0 0 0 0 
0 0 0 0 0 0 0 0 0 
0 0 0 0 0 0 -1 0 0 
0 0 0 0 0 0 0 0 0 
0 0 0 0 0 0 0 0 0 
0 0 0 0 0 0 0 0 0 
0 0 0 0 0 0 0 0 0 
0 0 0 0 0 0 0 0 0 
0 0 0 0 0 0 0 0 0 
0 0 0 0 0 0 -1 0 0 
0 0 0 0 0 0 0 0 0 
0 0 0 0 0 0 0 0 0 
0 0 0 0 0 0 0 0 0 
0 0 0 0 0 0 0 0 0 
0 0 0 0 0 0 0 0 0 
0 0 0 0 0 0 0 0 0 
-1 0 0 -1 0 0 0 0 0 
0 0 0 0 0 0 0 0 0 
0 0 0 0 0 0 0 0 0 
0 0 0 0 0 0 0 0 0 
0 0 0 0 0 0 0 0 0 
0 0 0 0 0 0 0 0 0 
0 0 0 0 0 0 0 0 0 
0 0 0 0 0 0 0 0 0 
0 0 0 0 0 0 0 0 0 
0 0 0 0 0 0 0 0 0 
0 0 0 0 0 0 0 0 0 
0 0 0 0 0 0 0 0 0 
0 0 0 0 0 0 0 0 0 
0 0 0 0 0 0 0 0 0 