# vtk DataFile Version 4.0
Generated by LIGGGHTS
ASCII
DATASET POLYDATA
POINTS 2000 float
-87.8017 -92.3467 9.99972 -94.9078 -113.721 9.99966 -105.942 -131.159 9.99892 
-117.525 -114.852 10.0067 -88.8536 -141.546 9.99866 -127.986 -132.882 9.99973 
-107.138 -97.7629 9.99834 -117.215 -127.061 26.0003 -109.735 -108.563 27.3757 
-133.162 -115.528 22.4551 -118.439 -90.7269 24.9208 -92.5249 -118.141 30.8394 
-130.187 -84.4867 9.99514 -56.6276 -101.01 9.995 -30.8175 -122.643 9.9985 
-75.6059 -108.481 9.99263 -66.3819 -139.304 9.99975 -79.0581 -126.342 18.5347 
-37.8656 -104.852 15.8143 -60.3447 -119.521 16.7032 -47.1361 -133.93 12.4841 
-59.1307 -140.6 31.8443 -38.5155 -138.883 29.8488 -33.543 -85.6763 22.8064 
-50.3481 -122.733 33.7206 -1.88606 -104.502 9.99945 1.04703 -138.643 9.99796 
18.0096 -102.416 9.99458 -20.4088 -96.9587 9.99969 9.92709 -120.714 9.99809 
-10.8198 -122.547 9.99232 8.2012 -131.023 27.0476 20.8045 -92.0205 26.8517 
0.957367 -91.0683 24.5392 20.3987 -114.257 25.9298 25.3072 -131.602 16.6965 
38.4376 -100.644 22.8775 55.2952 -128.058 9.99196 67.1069 -83.9971 9.99998 
37.9842 -115.939 9.9982 65.4487 -110.83 9.99779 47.5931 -88.3819 9.99988 
40.446 -122.69 28.6598 138.55 -97.2816 17.9223 117.524 -127.994 9.99636 
132.365 -114.584 9.99586 100.167 -92.6011 9.99933 84.6361 -105.198 10.0358 
94.4227 -124.835 9.99973 119.138 -92.0122 16.2973 136.453 -131.111 20.534 
110.234 -109.667 13.3039 93.5516 -101.019 27.5737 130.458 -111.439 29.6496 
105.688 -121.029 29.1185 119.148 -139.162 26.5029 111.266 -93.2958 34.6376 
-95.8695 -32.6184 15.9177 -112.486 -75.0823 9.99971 -121.949 -57.4467 9.99871 
-113.865 -39.1489 10.0016 -89.8889 -72.1216 9.99962 -102.541 -57.3811 14.8275 
-99.8964 -83.3309 23.1976 -132.633 -68.8644 22.465 -132.813 -48.9771 24.5573 
-114.808 -42.0106 29.7741 -90.9157 -47.2006 28.935 -84.8576 -49.3837 9.99965 
-140.046 -84.2806 32.822 -114.721 -62.6852 29.7774 -138.824 -36.6568 9.99758 
-95.3118 -66.2227 33.2746 -32.021 -68.3003 9.99973 -48.5849 -82.4426 10.0102 
-59.7061 -65.8155 9.99974 -75.9247 -63.4396 21.4627 -57.8339 -32.9099 24.9911 
-23.5558 -47.2747 10.0199 -17.4712 -56.0927 26.9749 11.1985 -56.9716 10.0015 
-3.10418 -42.7552 9.99976 4.83071 -77.6681 9.99973 25.1337 -81.5028 9.99973 
-8.12649 -62.121 10.0006 -15.5155 -32.3947 25.565 -15.3699 -79.151 17.5818 
23.7733 -65.6479 22.9114 7.7819 -73.7279 31.7988 37.9907 -80.4157 25.6318 
44.4449 -68.6311 9.99974 50.4027 -46.4722 9.99973 72.5924 -56.0561 9.99339 
30.9844 -51.3211 9.99454 71.2881 -41.3381 23.4614 41.2482 -56.5561 26.3769 
60.0666 -62.8988 23.9985 53.2341 -41.554 32.0424 61.2298 -29.5388 9.99973 
84.8211 -83.7076 19.2816 86.0621 -40.7397 9.99767 90.7605 -67.0109 9.99688 
132.672 -78.7046 9.99718 118.418 -58.4364 9.99994 108.406 -75.0311 14.9392 
114.13 -38.9036 10.5278 138.424 -57.5159 10.0002 129.285 -42.7185 23.0431 
125.115 -73.0353 27.6206 -119.835 5.08039 9.99837 -104.417 -10.5432 10.0012 
-123.148 -21.5707 12.3298 -132.65 -3.9295 22.4314 -108.522 -12.4431 29.488 
-89.7789 -19.416 29.7219 -111.201 14.3218 25.4893 -85.0903 -16.8198 9.99966 
-129.879 21.4149 24.6749 -106.011 25.8576 9.99906 -123.428 -24.6688 34.8073 
-45.7147 5.1528 9.99994 -29.8213 -6.99432 9.99958 -76.2152 13.6099 24.9878 
-28.2838 22.2679 27.036 -42.47 -1.273 28.7823 -38.0348 26.1336 10.0011 
-26.7356 -26.7544 9.99969 21.9581 -25.8655 32.2456 -6.21734 -22.9768 9.99973 
-21.6924 14.0978 10.0034 -10.1446 -3.36473 9.99973 1.55643 1.76463 25.5609 
7.62159 12.7146 9.98541 20.7116 8.5011 25.5748 26.3424 19.731 9.99228 
33.2124 -0.793326 10.0025 47.2563 13.4986 9.99973 81.7676 -15.0968 9.99483 
60.7049 -1.63059 9.99408 71.2907 20.6467 9.99973 38.3342 22.6675 25.7177 
62.2019 19.7035 29.1782 39.0771 4.59254 34.2344 139.678 -16.3794 9.9997 
87.5198 14.5405 20.9126 99.1718 -25.6353 10.0026 137.977 6.8452 9.99898 
103.819 18.6509 9.99475 96.2526 -0.0376631 9.99973 139.694 26.9109 9.99999 
122.062 -21.9711 17.654 118.997 -3.63786 9.98942 105.558 -12.3909 23.6635 
-88.9296 67.7176 10 -112.006 59.7378 9.99866 -127.302 40.8584 9.99932 
-136.697 78.8119 29.6665 -129.685 63.1007 18.7468 -99.2771 46.3608 17.6936 
-116.349 39.6514 26.6888 -131.055 81.3343 10.015 -80.8649 45.0182 9.99972 
-35.3932 69.3998 24.9929 -66.4992 63.2714 10.0068 -52.6791 40.5322 9.99973 
-64.2798 49.6232 24.4602 -72.7191 74.6733 25.2845 -83.3887 47.6821 30.0804 
20.7979 79.8374 9.99627 -4.43339 62.5879 10.0019 -23.5472 39.9789 10.0038 
8.69456 70.4783 22.8828 22.4557 55.0596 9.99973 2.35265 37.82 33.7788 
-5.1706 82.5713 9.99789 26.6565 78.8392 29.0877 31.4819 59.4976 27.5014 
39.231 35.0318 9.99874 63.383 39.139 9.99657 62.0745 63.4206 9.99985 
39.4901 72.6206 9.99973 80.3922 49.6521 9.99688 77.8198 32.1247 27.7312 
52.3512 36.9001 26.5203 45.005 53.7706 13.9283 80.089 72.1031 9.99799 
69.436 50.3076 27.531 50.8251 55.7584 32.9791 141.102 39.6368 25.3656 
120.473 32.4368 9.99696 88.3145 31.2879 10.0088 119.376 59.108 9.99372 
105.087 73.0973 10.0086 104.014 43.848 9.99898 138.1 52.0824 9.99961 
95.1515 58.7812 19.9315 118.375 45.7351 24.8213 92.1594 83.2418 21.4053 
116.056 69.6111 26.6865 132.424 73.258 15.4145 97.3589 36.3725 27.3131 
-112.291 88.2809 9.99966 -114.254 120.074 24.9961 -139.739 96.3436 20.5364 
-87.0275 103.985 10.0155 -77.0295 135.307 25.2835 -76.521 86.975 9.99203 
-57.2391 92.2628 10.0017 -46.3224 109.016 9.9994 -79.7074 122.649 9.99953 
-50.6474 128.54 10.0127 -31.3773 104.168 25.1264 -30.7775 136.623 9.99983 
-34.0032 123.643 28.9964 -27.8967 116.787 9.99965 -18.0919 137.879 25.4112 
18.7248 132.257 9.9898 -10.8976 127.32 10.0067 -3.01905 108.94 9.99891 
8.75389 90.692 21.8372 16.5646 104.886 10.0308 3.9988 128.628 23.3212 
-14.8479 117.152 26.7721 25.8278 99.6102 27.6684 24.6741 131.639 29.061 
-11.816 96.3852 22.84 8.57596 109.725 27.9815 83.7258 139.287 9.99973 
34.3508 95.7359 9.99115 63.8892 134.846 9.99973 36.7812 116.642 9.997 
57.2628 115.903 9.99973 40.9927 139.955 9.99767 80.449 119.513 9.99531 
68.6255 122.63 25.8143 50.3178 131.884 25.7392 59.8174 89.5754 33.182 
37.8837 116.655 29.963 125.995 91.4021 9.99817 84.6884 97.8733 9.99937 
117.06 109.293 9.99684 139.404 134.12 9.99973 110.876 135.136 9.99966 
105.318 93.1067 10.0286 137.035 112.52 10.0011 100.002 118.871 14.1415 
124.789 124.792 19.9924 88.2347 123.416 29.6626 -135.385 -103.047 37.9193 
-103.644 -132.084 39.8782 -129.189 -125.158 41.9038 -112.346 -115.175 46.0685 
-89.4134 -122.431 50.122 -87.5103 -137.352 63.2991 -105.708 -122.963 63.2509 
-125.155 -127.231 61.3773 -132.142 -110.759 71.8633 -105.717 -140.388 73.0625 
-92.5606 -107.898 63.4918 -128.363 -98.4238 87.5295 -132.58 -122.216 88.2433 
-140.515 -113.944 53.9851 -74.7966 -129.496 38.2394 -70.9871 -92.3904 40.7213 
-44.0355 -100.008 61.7268 -73.0102 -122.679 61.6898 -61.1908 -87.5373 73.9701 
-54.6354 -120.874 53.161 -43.3671 -137.052 49.695 -28.7676 -106.832 75.6886 
-59.2901 -110.343 69.5078 -54.4024 -128.637 75.9378 -35.2237 -125.285 71.3695 
-79.7879 -97.0437 74.3976 -73.6395 -132.344 80.1391 -63.1988 -138.957 51.5163 
-17.814 -113.976 43.1883 15.6054 -102.983 42.8826 13.1023 -125.828 54.5152 
3.53174 -119.248 70.7916 -3.41606 -139.975 61.6692 -11.4628 -93.6115 70.9391 
23.8194 -133.246 39.356 8.4619 -94.8488 72.1827 -14.5356 -127.776 75.1783 
23.8798 -94.4273 59.3883 8.12795 -137.404 77.7943 19.9963 -110.155 78.9641 
25.8425 -128.886 74.1281 27.8426 -113.957 60.969 26.6411 -91.6172 82.5945 
3.09436 -86.1297 46.837 73.1403 -127.742 40.0887 39.3301 -124.593 48.5352 
54.5306 -114.561 66.6318 39.944 -105.64 42.1847 80.9542 -113.106 70.9838 
41.9544 -137.213 63.8186 39.9381 -101.833 71.6863 60.1278 -136.18 72.0931 
44.5134 -127.591 81.165 79.2293 -132.274 76.5248 103.775 -117.975 53.9126 
135.115 -134.322 40.2378 122.496 -112.162 47.9767 115.879 -130.668 44.3073 
128.624 -93.4311 44.5903 102.116 -137.824 56.9237 96.389 -86.276 46.0346 
109.458 -98.8483 55.2274 89.7773 -101.957 56.9147 121.311 -132.963 63.417 
132.127 -98.5762 63.6832 97.1201 -124.932 71.4388 139.158 -127.641 70.7015 
97.6453 -86.3007 66.5504 132.536 -108.801 81.7468 113.078 -101.18 82.2628 
118.432 -113.574 67.5071 122.867 -126.36 82.2308 94.0503 -106.938 84.8989 
-116.484 -82.3058 58.8304 -126.941 -51.055 43.5937 -85.7018 -65.6814 57.9036 
-101.601 -34.6446 61.3359 -129.27 -52.8468 72.7574 -95.3071 -63.6181 79.9724 
-140.375 -35.0964 36.8128 -78.4487 -77.1743 72.573 -28.2756 -35.7303 43.4977 
-75.1639 -57.3266 43.1067 -67.0096 -43.4311 57.1136 -65.3959 -63.3817 59.4873 
-50.1611 -40.9241 70.2472 -77.0989 -57.3049 74.624 -59.5063 -67.9917 78.0639 
-30.7437 -67.7887 57.297 -68.6836 -39.4006 77.6302 -30.7623 -37.0917 74.1287 
-45.023 -83.4505 85.1397 -47.0146 -54.0001 85.0437 -42.6304 -28.7999 56.2442 
-0.817172 -56.8038 38.1038 -8.56915 -39.0629 43.1211 17.7137 -60.9725 67.5834 
-13.5829 -37.5664 62.4289 4.54012 -32.0897 82.3254 4.76239 -28.8549 62.5885 
28.6669 -83.5447 43.1764 46.5267 -36.1193 54.9632 61.8965 -81.0199 53.8828 
66.0656 -47.0989 46.3424 78.933 -48.7796 67.7987 59.1008 -47.9368 65.0703 
71.682 -28.317 73.2314 67.619 -44.8809 83.8348 47.0883 -47.5322 81.0537 
51.7085 -29.4027 73.8024 59.2398 -63.1638 83.8661 77.9834 -69.5536 86.6515 
92.1405 -83.6369 85.5886 140.414 -81.7884 83.4925 100.169 -51.9254 40.141 
116.276 -80.178 53.0583 135.543 -54.0881 38.3363 133.598 -72.0902 46.8835 
109.085 -70.0437 68.7237 131.472 -78.3921 65.9284 89.1585 -66.1301 70.3053 
129.941 -59.9439 73.4925 119.581 -82.0021 81.6043 93.4158 -33.6818 75.8701 
-99.0878 -3.84551 44.9095 -135.364 -9.99029 41.2964 -111.482 20.5793 44.7257 
-119.892 2.58014 39.3801 -112.484 1.61301 58.7173 -110.795 20.9963 65.3368 
-94.3529 16.8278 54.7454 -132.276 4.384 57.989 -106.43 5.55966 77.3657 
-127.111 14.1747 74.6774 -92.1721 -1.01188 63.5125 -120.576 -8.23764 74.28 
-87.4135 8.38411 86.8156 -102.849 -11.2845 87.5817 -140.36 27.1749 82.3339 
-121.464 -23.5821 87.9407 -84.5497 -10.1335 79.5955 -77.6038 -13.8283 46.6598 
-44.1849 18.1151 38.4421 -68.1577 0.750091 56.5707 -60.1462 19.0496 55.5941 
[...]
POINT_DATA 2000
FIELD FieldData 7
id 1 2000 int
41 77 196 230 301 308 107 205 282 
106 55 438 411 53 85 259 296 439 
157 275 424 371 40 273 71 185 265 
297 299 410 440 172 95 351 336 437 
49 33 300 376 408 397 216 380 59 
139 141 164 29 30 379 335 434 394 
283 247 47 36 142 338 414 456 32 
161 261 453 80 276 171 381 245 114 
425 112 231 246 215 10 143 211 115 
208 232 365 48 243 45 167 75 149 
113 174 222 318 108 354 285 317 359 
201 200 117 252 262 286 314 395 334 
274 239 342 66 147 255 443 309 413 
278 238 405 50 345 20 46 220 187 
225 11 212 69 37 358 390 416 347 
122 123 197 264 430 315 204 219 298 
256 135 346 54 97 178 213 271 404 
84 199 320 400 234 450 152 444 362 
8 279 321 250 384 378 195 240 399 
186 111 12 169 73 133 131 132 389 
419 449 229 369 375 102 72 374 99 
330 253 34 154 221 266 173 352 366 
58 329 206 138 6 284 179 328 184 
224 168 311 455 295 385 90 88 78 
62 302 339 79 83 218 426 127 128 
294 433 344 341 110 227 396 421 429 
251 242 18 423 96 160 209 288 367 
370 452 116 198 203 244 343 442 166 
304 361 401 448 1864 1820 1025 1285 1068 
272 223 9 82 130 350 119 409 290 
383 1007 1904 1249 1749 292 2 241 156 
64 76 210 263 1855 1873 364 1584 1941 
1011 418 327 293 22 144 165 382 323 
332 42 1715 1811 1945 137 51 125 445 
81 155 249 436 74 1428 1281 1934 720 
1920 856 700 1308 1665 1450 5 331 388 
26 307 552 183 319 422 65 163 191 
236 1719 1793 23 1676 1730 903 642 415 
417 281 28 226 1366 402 39 392 14 
44 189 306 104 931 1603 118 89 1953 
997 1922 25 86 313 398 180 188 1317 
1870 1643 581 43 412 129 322 761 1508 
303 326 764 1565 176 1155 1520 1143 1112 
739 1819 151 162 68 158 214 257 121 
368 175 427 353 1211 864 874 1540 4 
217 357 202 94 190 349 120 1159 570 
746 1001 268 260 7 100 333 432 457 
70 63 1767 622 1389 153 386 291 15 
277 19 441 1015 1407 839 1908 3 254 
57 228 393 145 177 420 1046 1600 1399 
909 340 1956 377 93 1 270 387 109 
170 181 140 312 91 1163 324 1404 712 
372 61 67 267 60 316 87 1652 590 
583 207 923 709 280 373 235 16 194 
148 789 1080 1406 431 1082 1951 1417 182 
310 103 233 337 35 258 356 24 159 
435 1430 1367 1124 1975 1194 852 105 360 
403 237 287 363 92 348 21 1398 1517 
1852 1685 1191 27 428 391 56 98 1807 
1893 1087 1716 1200 355 1283 407 289 446 
101 192 13 124 1869 1400 1589 701 674 
193 269 146 136 150 1883 1995 771 817 
1501 1706 1836 949 1815 1773 1854 52 305 
325 406 38 126 17 31 447 134 248 
967 1140 1618 1447 741 1424 968 480 1694 
1542 1293 1726 784 954 1929 1771 814 1334 
1878 1938 1195 484 1382 1176 1178 1017 1220 
541 1173 1999 1170 1331 1982 1021 948 1258 
1601 1452 1896 1845 1838 668 907 520 952 
1262 1252 1865 1539 1304 1712 1337 553 1687 
651 548 1678 951 1634 1050 1551 1537 654 
1128 1988 1409 462 1105 1189 1728 1757 1051 
1474 838 1842 1561 1649 599 661 911 914 
1147 1149 1459 866 1829 479 753 974 486 
1527 1840 752 573 1427 845 540 1206 1275 
1683 1488 1656 1543 718 1117 1342 1781 489 
878 995 1045 1171 1578 1013 1994 1077 1866 
833 889 626 1586 875 1130 621 906 1284 
1213 757 793 1894 1421 533 1725 985 1566 
640 1861 602 652 1365 644 1225 1234 1415 
779 862 1373 1874 666 1167 960 723 912 
1042 1673 806 495 1729 1480 1444 521 454 
574 1799 854 658 1442 842 861 1419 1034 
1177 1628 1099 1736 1738 1129 1465 1324 915 
1756 1677 532 1460 754 1063 1190 1496 1947 
1850 628 1453 1031 1696 1023 1066 1718 1563 
1881 698 799 1144 722 1554 1813 451 466 
1340 1831 1271 1745 1401 1391 1572 467 471 
970 594 1385 1912 1675 888 1119 1369 1602 
464 1579 1093 1341 1102 474 580 1468 1499 
1270 1769 506 1533 643 1412 673 1595 1475 
1928 1890 1959 608 1570 1362 470 597 1679 
1172 1074 919 798 1529 1534 1720 1743 965 
975 1803 1884 841 656 1416 1481 892 1040 
1791 1108 1653 566 853 564 1490 492 1647 
1620 1261 1052 1577 1458 1682 1606 660 729 
1761 962 1960 624 1470 1241 1608 664 518 
1131 1903 1326 966 1638 1858 1441 1477 1636 
759 1784 513 1825 1355 1822 803 805 893 
925 728 1438 936 964 1433 848 1931 1891 
1859 1830 1610 1267 1889 1071 469 1734 1887 
810 531 1268 1591 1156 1552 537 1201 1979 
1153 1525 885 1879 562 1892 1054 1684 588 
1919 991 488 1216 749 981 1058 1037 473 
671 630 946 876 1291 1965 1461 508 1229 
1231 1548 1098 461 475 832 1545 1844 1125 
1104 2000 1387 1360 887 1827 522 1667 1263 
696 990 1702 1359 1804 1911 1422 775 459 
565 687 1169 1662 944 1633 801 1483 1055 
820 675 1209 1962 781 1614 1089 1752 835 
670 1462 1576 1980 1101 1780 1060 1135 1203 
1120 969 1978 1582 1361 1487 1094 487 1223 
758 1121 751 1205 1059 1473 1823 938 850 
987 1328 972 1661 1352 1663 1974 589 616 
496 1916 1254 1932 986 1860 539 807 886 
1936 1118 1084 1930 618 1100 686 1166 1711 
730 1026 530 1018 1332 1772 1004 1835 1616 
1935 1622 601 493 1208 1343 1564 1796 1287 
740 1966 755 515 1495 865 1309 896 1532 
1937 1300 1550 1368 1187 788 498 809 894 
935 1740 916 1788 1632 1573 725 770 1507 
1035 1491 1558 528 1036 1076 1467 1397 632 
1707 830 1834 745 961 1414 901 1197 1333 
1569 1282 1494 1846 1062 575 1064 1269 1504 
994 1070 688 1150 607 1126 1318 569 1524 
922 682 1770 645 1049 1092 1701 1863 924 
1312 1948 1917 538 953 1214 1114 895 1613 
732 613 1575 1783 837 713 1056 511 1925 
904 623 1264 1768 705 934 1073 1910 523 
1048 1371 503 1918 600 1138 1466 999 1184 
1255 1849 733 1303 797 1109 1789 1963 802 
1192 1247 1276 1957 1228 1336 738 1808 1867 
1972 525 557 1250 627 641 535 790 1837 
1722 1204 1764 1732 1856 472 1708 1219 1944 
1809 1798 1041 1952 561 1078 1196 1741 1134 
1043 1626 491 1418 942 1313 1992 1549 1175 
1503 604 710 1629 825 1420 800 1455 1897 
1260 1666 567 1356 1818 1226 1370 1810 1505 
1029 478 1354 647 1375 1053 1024 1964 1704 
1942 1432 1165 1760 697 551 1440 547 1802 
831 1376 502 1344 992 1906 1596 1983 1961 
1069 1735 1939 1670 984 1383 1379 1514 545 
920 988 1358 1047 1500 1489 1949 646 1814 
1724 818 959 1245 1664 1122 794 708 1295 
1242 1557 1160 1571 499 667 769 595 1650 
1991 1181 1754 529 1585 1607 1009 1237 736 
685 787 1839 1790 1251 1350 1434 1088 1235 
1547 1828 1853 620 596 1993 483 1090 822 
519 1139 1222 1660 509 1446 1672 1598 1246 
763 1067 1030 1377 1695 689 1973 1439 1289 
526 1674 692 1469 614 1061 1604 1006 679 
681 649 1107 1668 867 742 868 796 1210 
869 1327 1833 476 611 871 774 917 1546 
1297 1623 571 650 1901 1454 902 1805 1699 
1877 510 1457 1705 603 1142 1739 1445 1310 
780 1568 918 870 1116 1512 743 1179 1513 
1152 703 955 693 1277 482 765 1778 945 
971 1232 1876 1113 1133 1516 1273 1968 1832 
908 1425 1493 993 1857 546 1363 1065 1958 
1307 1426 1146 777 1923 695 1151 1174 1559 
1940 1348 750 819 1511 1305 1841 558 1224 
1396 1746 1744 1977 559 1775 1106 760 1556 
631 1594 1976 1502 1530 1882 1755 1010 1593 
1581 1515 1617 1615 1619 1039 1742 910 881 
1969 929 1448 612 744 1580 1000 827 1083 
1555 534 795 657 1353 1821 1429 1812 579 
1646 1826 1921 851 1123 549 572 1136 1541 
655 563 578 762 1240 1311 1700 1574 1338 
1801 690 1185 1875 1753 863 767 1885 1762 
699 998 1641 1967 1028 1899 517 973 1137 
463 1079 731 1230 860 1759 1280 648 1290 
1905 1091 950 1198 847 858 737 941 1782 
1322 1132 1288 615 554 1737 1590 1871 481 
958 785 927 1072 592 928 1095 1408 1611 
899 1274 1996 1012 873 1472 577 505 1306 
678 1168 1509 524 1597 1182 1686 1721 1014 
1162 1022 1492 1637 1239 653 1723 1955 637 
812 1862 634 704 976 560 857 1278 1795 
1800 1588 977 926 1329 1227 1787 1321 1357 
591 576 1645 1521 1592 1847 1851 1221 542 
1141 1212 719 811 747 1005 1302 1411 584 
663 1256 1161 662 846 1215 1691 804 937 
1158 1671 707 1238 715 514 1057 1325 1587 
772 843 1651 1482 586 516 815 855 1032 
1680 1697 1777 890 773 1635 1164 1299 1476 
1621 1690 963 1279 1436 672 568 1817 536 
1364 485 1763 1085 605 1347 1451 1301 905 
1927 500 1538 1792 507 1898 1259 1394 1316 
680 717 1423 821 1345 816 766 1747 556 
716 879 1727 1111 468 1431 826 1392 1915 
1388 900 504 1449 1751 756 947 1924 1506 
1372 1703 829 1522 1642 1907 1127 1086 587 
980 1207 665 1298 1933 1097 1990 1880 891 
1776 834 512 1405 1689 1693 1395 1027 1486 
1640 1320 836 734 748 1188 544 669 477 
791 677 939 1314 1485 1038 1987 638 619 
1019 1218 1766 1386 711 978 1599 1758 1926 
776 1888 1989 982 1413 610 1471 1033 694 
824 1478 1286 1510 943 1748 1456 617 1848 
458 1985 1096 635 1688 1779 1148 956 1390 
1339 1681 1943 606 783 1997 996 1868 1914 
490 1464 1954 683 957 1463 1627 593 1713 
598 1519 1403 1567 1257 1655 921 1016 555 
1669 1909 1381 813 1717 1639 1624 1075 1692 
625 1330 1193 1265 1292 1733 1157 706 1843 
1410 724 1374 1886 989 527 1971 1498 1609 
1714 1236 1008 1393 497 897 1272 1950 1315 
1081 1816 1402 636 1544 543 1296 1946 1984 
1562 714 659 1335 1115 840 1786 1443 1583 
501 1658 930 1648 1484 1346 1654 1233 1044 
1380 849 1349 884 859 585 1553 1186 1630 
933 1531 1794 1266 940 1526 1709 1103 882 
702 1970 877 778 609 1998 1605 1180 1145 
808 582 844 1731 1497 1003 786 1020 1528 
983 1323 1981 1110 880 1319 1560 1002 1243 
1657 1698 1437 1644 465 932 1384 1824 1785 
913 721 898 494 691 1631 792 1248 1435 
1294 735 1872 1612 1183 1518 1479 1895 1253 
1154 633 1797 823 883 1625 1659 1913 1806 
1535 1244 782 1202 1217 1536 1902 1765 872 
979 684 1750 629 727 1199 460 639 550 
1986 768 1351 1900 1378 1710 676 1774 726 
828 1523 
type 1 2000 int
1 1 1 1 1 1 1 1 1 
1 1 1 1 1 1 1 1 1 
1 1 1 1 1 1 1 1 1 
1 1 1 1 1 1 1 1 1 
1 1 1 1 1 1 1 1 1 
1 1 1 1 1 1 1 1 1 
1 1 1 1 1 1 1 1 1 
1 1 1 1 1 1 1 1 1 
1 1 1 1 1 1 1 1 1 
1 1 1 1 1 1 1 1 1 
1 1 1 1 1 1 1 1 1 
1 1 1 1 1 1 1 1 1 
1 1 1 1 1 1 1 1 1 
1 1 1 1 1 1 1 1 1 
1 1 1 1 1 1 1 1 1 
1 1 1 1 1 1 1 1 1 
1 1 1 1 1 1 1 1 1 
1 1 1 1 1 1 1 1 1 
1 1 1 1 1 1 1 1 1 
1 1 1 1 1 1 1 1 1 
1 1 1 1 1 1 1 1 1 
1 1 1 1 1 1 1 1 1 
1 1 1 1 1 1 1 1 1 
1 1 1 1 1 1 1 1 1 
1 1 1 1 1 1 1 1 1 
1 1 1 1 1 1 1 1 1 
1 1 1 1 1 1 1 1 1 
1 1 1 1 1 1 1 1 1 
1 1 1 1 1 1 1 1 1 
1 1 1 1 1 1 1 1 1 
1 1 1 1 1 1 1 1 1 
1 1 1 1 1 1 1 1 1 
1 1 1 1 1 1 1 1 1 
1 1 1 1 1 1 1 1 1 
1 1 1 1 1 1 1 1 1 
1 1 1 1 1 1 1 1 1 
1 1 1 1 1 1 1 1 1 
1 1 1 1 1 1 1 1 1 
1 1 1 1 1 1 1 1 1 
1 1 1 1 1 1 1 1 1 
1 1 1 1 1 1 1 1 1 
1 1 1 1 1 1 1 1 1 
1 1 1 1 1 1 1 1 1 
1 1 1 1 1 1 1 1 1 
1 1 1 1 1 1 1 1 1 
1 1 1 1 1 1 1 1 1 
1 1 1 1 1 1 1 1 1 
1 1 1 1 1 1 1 1 1 
1 1 1 1 1 1 1 1 1 
1 1 1 1 1 1 1 1 1 
1 1 1 1 1 1 1 1 1 
1 1 1 1 1 1 1 1 1 
1 1 1 1 1 1 1 1 1 
1 1 1 1 1 1 1 1 1 
1 1 1 1 1 1 1 1 1 
1 1 1 1 1 1 1 1 1 
1 1 1 1 1 1 1 1 1 
1 1 1 1 1 1 1 1 1 
1 1 1 1 1 1 1 1 1 
1 1 1 1 1 1 1 1 1 
1 1 1 1 1 1 1 1 1 
1 1 1 1 1 1 1 1 1 
1 1 1 1 1 1 1 1 1 
1 1 1 1 1 1 1 1 1 
1 1 1 1 1 1 1 1 1 
1 1 1 1 1 1 1 1 1 
1 1 1 1 1 1 1 1 1 
1 1 1 1 1 1 1 1 1 
1 1 1 1 1 1 1 1 1 
1 1 1 1 1 1 1 1 1 
1 1 1 1 1 1 1 1 1 
1 1 1 1 1 1 1 1 1 
1 1 1 1 1 1 1 1 1 
1 1 1 1 1 1 1 1 1 
1 1 1 1 1 1 1 1 1 
1 1 1 1 1 1 1 1 1 
1 1 1 1 1 1 1 1 1 
1 1 1 1 1 1 1 1 1 
1 1 1 1 1 1 1 1 1 
1 1 1 1 1 1 1 1 1 
1 1 1 1 1 1 1 1 1 
1 1 1 1 1 1 1 1 1 
1 1 1 1 1 1 1 1 1 
1 1 1 1 1 1 1 1 1 
1 1 1 1 1 1 1 1 1 
1 1 1 1 1 1 1 1 1 
1 1 1 1 1 1 1 1 1 
1 1 1 1 1 1 1 1 1 
1 1 1 1 1 1 1 1 1 
1 1 1 1 1 1 1 1 1 
1 1 1 1 1 1 1 1 1 
1 1 1 1 1 1 1 1 1 
1 1 1 1 1 1 1 1 1 
1 1 1 1 1 1 1 1 1 
1 1 1 1 1 1 1 1 1 
1 1 1 1 1 1 1 1 1 
1 1 1 1 1 1 1 1 1 
1 1 1 1 1 1 1 1 1 
1 1 1 1 1 1 1 1 1 
1 1 1 1 1 1 1 1 1 
1 1 1 1 1 1 1 1 1 
1 1 1 1 1 1 1 1 1 
1 1 1 1 1 1 1 1 1 
1 1 1 1 1 1 1 1 1 
1 1 1 1 1 1 1 1 1 
1 1 1 1 1 1 1 1 1 
1 1 1 1 1 1 1 1 1 
1 1 1 1 1 1 1 1 1 
1 1 1 1 1 1 1 1 1 
1 1 1 1 1 1 1 1 1 
1 1 1 1 1 1 1 1 1 
1 1 1 1 1 1 1 1 1 
1 1 1 1 1 1 1 1 1 
1 1 1 1 1 1 1 1 1 
1 1 1 1 1 1 1 1 1 
1 1 1 1 1 1 1 1 1 
1 1 1 1 1 1 1 1 1 
1 1 1 1 1 1 1 1 1 
1 1 1 1 1 1 1 1 1 
1 1 1 1 1 1 1 1 1 
1 1 1 1 1 1 1 1 1 
1 1 1 1 1 1 1 1 1 
1 1 1 1 1 1 1 1 1 
1 1 1 1 1 1 1 1 1 
1 1 1 1 1 1 1 1 1 
1 1 1 1 1 1 1 1 1 
1 1 1 1 1 1 1 1 1 
1 1 1 1 1 1 1 1 1 
1 1 1 1 1 1 1 1 1 
1 1 1 1 1 1 1 1 1 
1 1 1 1 1 1 1 1 1 
1 1 1 1 1 1 1 1 1 
1 1 1 1 1 1 1 1 1 
1 1 1 1 1 1 1 1 1 
1 1 1 1 1 1 1 1 1 
1 1 1 1 1 1 1 1 1 
1 1 1 1 1 1 1 1 1 
1 1 1 1 1 1 1 1 1 
1 1 1 1 1 1 1 1 1 
1 1 1 1 1 1 1 1 1 
1 1 1 1 1 1 1 1 1 
1 1 1 1 1 1 1 1 1 
1 1 1 1 1 1 1 1 1 
1 1 1 1 1 1 1 1 1 
1 1 1 1 1 1 1 1 1 
1 1 1 1 1 1 1 1 1 
1 1 1 1 1 1 1 1 1 
1 1 1 1 1 1 1 1 1 
1 1 1 1 1 1 1 1 1 
1 1 1 1 1 1 1 1 1 
1 1 1 1 1 1 1 1 1 
1 1 1 1 1 1 1 1 1 
1 1 1 1 1 1 1 1 1 
1 1 1 1 1 1 1 1 1 
1 1 1 1 1 1 1 1 1 
1 1 1 1 1 1 1 1 1 
1 1 1 1 1 1 1 1 1 
1 1 1 1 1 1 1 1 1 
1 1 1 1 1 1 1 1 1 
1 1 1 1 1 1 1 1 1 
1 1 1 1 1 1 1 1 1 
1 1 1 1 1 1 1 1 1 
1 1 1 1 1 1 1 1 1 
1 1 1 1 1 1 1 1 1 
1 1 1 1 1 1 1 1 1 
1 1 1 1 1 1 1 1 1 
1 1 1 1 1 1 1 1 1 
1 1 1 1 1 1 1 1 1 
1 1 1 1 1 1 1 1 1 
1 1 1 1 1 1 1 1 1 
1 1 1 1 1 1 1 1 1 
1 1 1 1 1 1 1 1 1 
1 1 1 1 1 1 1 1 1 
1 1 1 1 1 1 1 1 1 
1 1 1 1 1 1 1 1 1 
1 1 1 1 1 1 1 1 1 
1 1 1 1 1 1 1 1 1 
1 1 1 1 1 1 1 1 1 
1 1 1 1 1 1 1 1 1 
1 1 1 1 1 1 1 1 1 
1 1 1 1 1 1 1 1 1 
1 1 1 1 1 1 1 1 1 
1 1 1 1 1 1 1 1 1 
1 1 1 1 1 1 1 1 1 
1 1 1 1 1 1 1 1 1 
1 1 1 1 1 1 1 1 1 
1 1 1 1 1 1 1 1 1 
1 1 1 1 1 1 1 1 1 
1 1 1 1 1 1 1 1 1 
1 1 1 1 1 1 1 1 1 
1 1 1 1 1 1 1 1 1 
1 1 1 1 1 1 1 1 1 
1 1 1 1 1 1 1 1 1 
1 1 1 1 1 1 1 1 1 
1 1 1 1 1 1 1 1 1 
1 1 1 1 1 1 1 1 1 
1 1 1 1 1 1 1 1 1 
1 1 1 1 1 1 1 1 1 
1 1 1 1 1 1 1 1 1 
1 1 1 1 1 1 1 1 1 
1 1 1 1 1 1 1 1 1 
1 1 1 1 1 1 1 1 1 
1 1 1 1 1 1 1 1 1 
1 1 1 1 1 1 1 1 1 
1 1 1 1 1 1 1 1 1 
1 1 1 1 1 1 1 1 1 
1 1 1 1 1 1 1 1 1 
1 1 1 1 1 1 1 1 1 
1 1 1 1 1 1 1 1 1 
1 1 1 1 1 1 1 1 1 
1 1 1 1 1 1 1 1 1 
1 1 1 1 1 1 1 1 1 
1 1 1 1 1 1 1 1 1 
1 1 1 1 1 1 1 1 1 
1 1 1 1 1 1 1 1 1 
1 1 1 1 1 1 1 1 1 
1 1 1 1 1 1 1 1 1 
1 1 1 1 1 1 1 1 1 
1 1 1 1 1 1 1 1 1 
1 1 1 1 1 1 1 1 1 
1 1 1 1 1 1 1 1 1 
1 1 1 1 1 1 1 1 1 
1 1 
i 3 2000 int
0 0 0 0 0 0 0 0 0 
0 0 0 0 0 0 0 0 0 
0 0 0 0 0 0 0 0 0 
0 0 0 0 0 0 0 0 0 
0 0 0 0 0 0 0 0 0 
0 0 0 0 0 0 0 0 0 
0 0 0 0 0 0 0 0 0 
0 0 0 0 1 0 0 0 0 
0 0 0 0 0 0 0 0 0 
0 0 0 0 0 0 0 0 0 
0 0 0 0 0 0 0 0 0 
0 0 0 0 0 0 0 0 0 
0 0 0 0 0 0 0 0 0 
0 0 0 0 0 0 0 0 0 
0 0 0 -1 0 0 0 0 0 
0 0 0 0 0 0 0 0 0 
0 0 0 0 0 0 0 0 0 
0 0 0 0 0 0 0 0 0 
0 0 0 0 1 0 0 0 0 
0 0 0 0 0 0 0 0 0 
0 0 0 0 0 0 0 0 0 
0 0 0 0 0 0 0 0 0 
0 0 0 0 0 0 0 0 0 
0 0 0 0 0 0 0 0 0 
0 0 0 0 0 0 0 0 0 
0 0 0 0 0 0 0 0 0 
0 0 0 0 0 0 0 0 0 
0 0 0 0 0 0 0 0 0 
0 0 0 0 0 0 0 0 0 
0 0 0 0 0 0 0 0 0 
0 0 0 0 0 0 0 0 0 
0 0 0 0 0 0 0 0 0 
0 0 0 0 0 0 0 0 0 
0 0 0 0 0 0 0 0 0 
0 0 0 0 0 0 0 0 0 
0 0 0 0 0 0 0 0 0 
0 0 0 0 0 0 0 0 0 
0 0 0 0 0 0 0 0 0 
0 0 0 0 0 0 0 0 0 
0 0 0 0 0 0 0 0 0 
0 0 0 0 0 0 0 0 0 
0 0 0 0 0 0 0 0 0 
0 0 0 0 0 0 0 0 0 
0 0 0 0 0 0 0 0 0 
0 0 0 0 0 0 0 0 0 
0 0 0 0 0 0 0 0 0 
0 0 0 0 0 0 0 0 0 
0 0 0 0 0 0 0 0 0 
0 0 0 0 0 0 -1 0 0 
0 0 0 0 0 0 0 0 0 
0 0 0 0 0 0 0 0 0 
0 0 0 0 0 0 0 0 0 
0 0 0 0 0 0 0 0 0 
0 0 0 0 0 0 0 0 0 
0 0 0 0 0 0 0 0 0 
0 0 0 0 0 0 0 0 0 
0 0 0 0 0 0 0 0 0 
0 0 0 0 0 0 0 0 0 
0 0 0 0 0 0 0 0 0 
0 0 0 0 0 0 0 0 0 
0 0 0 0 0 0 0 0 0 
0 0 0 0 0 0 0 0 0 
0 0 0 0 0 0 -1 0 0 
0 0 0 0 0 0 0 0 0 
0 0 0 0 0 0 0 0 0 
0 0 0 0 0 0 0 0 0 
0 0 0 0 0 0 0 0 0 
0 0 0 0 0 0 1 0 0 
0 0 0 0 -1 0 0 0 0 
0 0 0 0 0 0 0 0 0 
0 0 0 0 0 0 0 0 0 
0 0 0 0 0 0 0 0 0 
0 0 0 0 0 0 0 0 0 
0 0 0 0 0 0 0 0 0 
0 0 0 0 0 0 0 0 0 
0 0 0 0 0 0 0 0 0 
0 0 0 0 0 0 0 0 0 
0 0 0 0 0 0 0 0 0 
0 0 0 0 0 0 0 0 0 
0 0 0 0 0 0 0 0 0 
0 0 0 0 0 0 0 0 0 
0 0 0 0 0 0 0 0 0 
0 0 0 0 0 0 0 0 0 
0 0 0 0 0 0 0 0 0 
0 0 0 0 0 0 0 0 0 
0 0 0 0 0 0 0 0 0 
0 0 0 0 0 0 0 0 0 
1 0 0 0 0 0 0 0 0 
0 0 0 0 0 0 0 0 0 
0 0 0 0 0 0 0 0 0 
0 0 0 0 0 0 0 0 0 
0 0 0 0 0 0 0 1 0 
0 0 0 0 0 0 0 0 0 
0 0 0 0 0 0 0 0 0 
0 0 0 0 0 0 0 0 0 
0 0 0 0 0 0 0 0 0 
0 0 0 0 0 0 0 0 0 
0 0 0 0 0 0 0 0 0 
0 0 0 0 0 0 0 0 0 
0 0 0 0 0 0 0 0 0 
0 0 0 0 0 0 0 0 0 
0 0 0 0 0 0 0 0 0 
0 0 0 0 0 0 0 0 0 
0 0 0 0 0 0 0 0 0 
0 0 0 0 0 0 0 0 0 
0 0 0 -1 0 0 0 0 0 
0 0 0 0 0 0 0 0 0 
0 0 0 0 0 0 0 0 0 
0 0 0 0 0 0 0 0 0 
1 0 0 0 0 0 0 0 0 
0 0 0 0 0 0 0 0 0 
0 0 0 0 0 0 0 0 0 
0 0 0 0 0 0 0 0 0 
0 0 0 0 0 0 0 0 0 
0 0 0 0 0 0 0 0 0 
0 0 0 0 0 0 0 0 0 
0 0 0 0 0 0 0 0 0 
0 0 0 0 0 0 0 0 0 
0 0 0 0 0 0 0 0 0 
0 0 0 0 0 0 0 0 0 
0 0 0 -1 0 0 0 0 0 
0 0 0 0 0 0 0 0 0 
0 0 0 0 0 0 0 0 0 
0 0 0 0 0 0 0 0 0 
0 0 0 1 0 0 0 0 0 
0 0 0 0 0 0 0 0 0 
0 0 0 1 0 0 0 0 0 
0 0 0 0 0 0 0 0 0 
0 0 0 0 0 0 1 0 0 
0 0 0 0 0 0 0 0 0 
0 0 0 0 0 0 0 0 0 
0 0 0 0 0 0 0 0 0 
0 0 0 0 0 0 0 0 0 
0 0 0 0 0 0 0 0 0 
0 0 0 0 0 0 0 0 0 
0 0 0 0 0 0 0 0 0 
0 0 0 0 0 0 0 0 0 
0 0 0 0 0 0 0 0 0 
0 0 0 0 0 0 0 0 0 
0 0 0 0 0 0 0 0 0 
0 0 0 0 0 0 0 0 0 
0 0 0 0 0 0 0 0 0 
0 0 0 0 0 0 0 0 0 
0 0 0 0 0 0 0 0 0 
0 0 0 0 0 0 0 0 0 
0 0 0 0 0 0 0 0 0 
0 0 0 0 0 0 0 0 0 
0 0 0 0 0 0 0 0 0 
0 0 0 0 0 0 0 0 0 
0 0 0 0 0 0 0 0 0 
0 0 0 1 0 0 0 0 0 
0 0 0 0 0 0 0 0 0 
0 0 0 0 0 0 0 0 0 
0 0 0 0 0 0 0 0 0 
0 0 0 0 0 0 0 0 0 
0 0 0 0 0 0 0 0 0 
0 0 0 0 0 0 0 0 0 
0 0 0 0 0 0 0 0 0 
0 0 0 0 0 0 0 0 0 
0 0 0 0 0 0 0 0 0 
0 0 0 0 0 0 0 0 0 
0 0 0 0 0 0 0 0 0 
0 0 0 0 0 0 0 0 0 
0 0 0 0 0 0 0 0 0 
0 0 0 0 0 0 0 0 0 
0 0 0 0 0 0 0 0 0 
0 0 0 0 0 0 0 0 0 
0 0 0 0 0 0 0 0 0 
0 0 0 0 0 0 0 0 0 
0 0 0 1 0 0 0 0 0 
0 -1 0 0 0 0 0 0 0 
0 0 0 0 0 0 0 0 0 
0 0 0 0 0 0 0 0 0 
0 0 0 0 0 0 0 0 0 
0 0 0 0 0 0 0 -1 0 
0 0 0 0 0 0 0 0 0 
0 0 0 0 0 0 0 0 0 
0 0 0 0 0 0 0 -1 0 
0 0 0 0 -1 0 0 0 0 
0 0 0 0 -1 0 0 0 0 
0 0 0 0 0 0 0 0 0 
0 0 0 0 0 0 0 0 0 
0 0 0 0 0 0 0 0 0 
0 0 0 0 -1 0 0 0 0 
0 0 0 0 0 0 0 0 0 
0 0 0 0 0 0 0 0 0 
0 0 0 0 0 0 0 0 0 
0 0 0 0 0 0 0 0 0 
0 -1 0 0 0 0 0 0 0 
0 0 0 -1 0 0 0 -1 0 
-1 0 0 0 0 0 0 0 0 
0 0 0 0 0 0 0 0 0 
0 0 0 0 0 0 0 0 0 
0 0 0 0 0 0 0 0 0 
0 0 0 0 0 0 0 0 0 
0 0 0 0 0 0 0 0 0 
0 0 0 0 0 0 0 1 0 
0 0 0 0 0 0 0 1 0 
0 0 0 0 0 0 0 0 0 
0 0 0 0 0 0 0 0 0 
0 0 0 0 0 0 0 0 0 
0 0 0 0 0 0 0 0 0 
0 0 0 0 0 0 0 0 0 
0 0 0 0 0 0 0 0 0 
0 0 0 0 1 0 0 0 0 
0 0 0 0 0 0 0 0 0 
0 0 0 0 0 0 0 0 0 
0 0 0 0 0 0 0 1 0 
0 0 0 0 1 0 0 0 0 
0 0 0 0 0 0 0 0 0 
0 0 0 0 0 0 0 0 0 
0 0 0 0 0 0 0 0 0 
0 0 0 0 0 0 0 0 0 
0 0 0 0 0 0 0 0 0 
0 0 0 0 0 0 0 0 0 
0 0 0 1 0 0 0 0 0 
0 0 0 0 0 0 0 0 0 
0 0 0 0 0 0 0 0 0 
0 0 0 0 0 0 0 0 0 
0 0 0 0 0 0 0 0 0 
0 0 0 0 0 0 0 0 0 
0 0 0 0 0 0 0 0 0 
0 0 0 0 0 0 0 0 0 
0 0 0 0 0 0 0 0 0 
0 0 0 0 0 0 0 0 0 
0 0 0 0 0 0 0 0 0 
0 0 0 0 0 0 0 0 0 
0 0 0 -1 0 0 0 0 0 
0 0 0 0 0 0 0 0 0 
0 0 0 0 0 0 0 0 0 
0 0 0 0 0 0 0 0 0 
0 0 0 0 0 0 0 0 0 
0 0 0 0 0 0 0 0 0 
0 0 0 0 0 0 0 0 0 
0 0 0 0 0 0 0 0 0 
0 0 0 0 0 0 0 0 0 
0 0 0 0 0 0 0 0 0 
0 0 0 0 0 0 0 0 0 
0 0 0 0 0 0 0 0 0 
0 0 0 0 0 0 0 0 0 
0 0 0 0 0 0 0 0 0 
0 0 0 0 0 0 0 0 0 
0 0 0 0 0 0 0 0 0 
0 0 0 0 0 0 0 0 0 
0 0 0 0 0 0 0 0 0 
0 0 0 0 0 0 0 0 0 
0 0 0 -1 0 0 0 0 0 
-1 0 0 0 0 0 0 0 0 
0 0 0 0 0 0 0 0 0 
0 0 0 0 0 0 0 0 0 
0 0 0 0 0 0 0 0 0 
0 0 0 0 0 0 0 0 0 
0 0 0 0 0 0 0 0 0 
0 0 0 0 0 0 0 0 0 
0 0 0 0 0 0 1 0 0 
0 0 0 0 0 0 1 0 0 
0 0 0 0 0 0 0 0 0 
0 0 0 0 0 0 0 0 0 
0 0 0 0 0 0 0 0 0 
0 0 0 0 0 0 0 0 0 
0 0 0 0 0 0 0 0 0 
0 0 0 0 0 0 0 0 0 
0 0 0 0 0 0 0 0 0 
0 0 0 0 0 0 0 0 0 
0 0 0 0 0 0 0 0 0 
0 0 0 0 0 0 0 0 0 
0 0 0 0 0 0 0 0 0 
0 0 0 0 0 0 0 0 0 
0 0 0 0 0 0 0 0 0 
0 0 0 0 0 0 0 0 0 
0 0 0 0 0 0 0 0 0 
0 0 0 0 0 0 0 0 0 
1 0 0 0 0 0 0 0 0 
0 0 0 0 -1 0 0 0 0 
0 0 0 0 0 0 0 0 0 
0 0 0 0 0 0 0 0 0 
0 0 0 0 0 0 0 0 0 
0 0 0 0 0 0 0 -1 0 
0 0 0 0 0 0 0 0 0 
0 0 0 0 0 0 0 0 0 
0 0 0 0 0 0 0 0 0 
0 0 0 0 0 0 0 0 0 
0 0 0 0 0 0 0 0 0 
0 0 0 0 0 0 0 0 0 
0 0 0 0 0 0 0 0 0 
0 0 0 0 0 0 0 0 0 
0 0 0 0 0 0 0 0 0 
0 0 0 0 0 0 0 0 0 
0 0 0 0 0 0 0 0 0 
0 0 0 0 0 0 0 0 0 
0 0 0 0 0 0 0 0 0 
0 0 0 0 0 0 0 0 0 
0 0 0 0 0 0 0 0 0 
0 0 0 0 0 0 0 0 0 
0 0 0 0 0 0 0 0 0 
0 0 0 0 0 0 0 0 0 
0 0 0 0 0 0 0 0 0 
0 0 0 0 0 0 0 0 0 
0 0 0 0 0 0 0 0 0 
0 0 0 0 0 0 0 0 0 
0 1 0 0 0 0 0 0 0 
0 0 0 0 0 0 0 0 0 
0 0 0 0 0 0 0 1 0 
0 0 0 0 0 0 0 0 0 
0 0 0 0 0 0 0 0 0 
0 0 0 0 0 0 0 0 0 
0 0 0 0 0 0 0 1 0 
0 0 0 0 0 0 0 0 0 
0 0 0 0 0 0 0 0 0 
0 0 0 0 0 0 0 0 0 
0 0 0 0 0 0 0 0 0 
1 0 0 0 0 0 0 0 0 
0 0 0 0 0 0 0 0 0 
0 0 0 0 0 0 0 0 0 
0 0 0 0 0 0 0 0 0 
0 0 0 0 0 0 0 0 0 
0 0 0 0 0 0 0 0 0 
0 0 0 0 0 0 0 0 0 
0 0 0 0 0 0 0 0 0 
0 0 0 0 0 0 0 0 0 
0 0 0 0 0 0 0 0 0 
0 0 0 0 0 0 0 0 0 
0 0 0 0 0 0 0 0 0 
-1 0 0 -1 0 0 0 0 0 
0 0 0 0 0 0 0 0 0 
0 0 0 0 0 0 0 0 0 
0 0 0 0 0 0 0 0 0 
0 0 0 0 0 0 0 0 0 
0 0 0 0 0 0 0 0 0 
0 0 0 0 0 0 0 0 0 
0 0 0 0 0 0 0 0 0 
0 0 0 0 0 0 0 0 0 
0 0 0 0 0 0 0 0 0 
0 0 0 0 0 0 0 0 0 
0 0 0 0 0 0 0 0 0 
0 0 0 0 0 0 0 0 0 
0 0 0 0 0 0 0 0 0 
0 0 0 0 0 0 0 0 0 
0 0 0 0 0 0 0 0 0 
0 0 0 0 0 0 0 0 0 
0 0 0 0 0 0 0 0 0 
0 0 0 0 0 0 0 0 0 
0 0 0 0 0 0 0 0 0 
0 0 0 0 0 0 0 0 0 
0 0 0 0 0 0 0 0 0 