# vtk DataFile Version 4.0
Generated by LIGGGHTS
ASCII
DATASET POLYDATA
POINTS 2000 float
-100.162 -85.1626 9.91197 -90.2604 -103.061 9.91431 -108.843 -133.112 9.91878 
-120.832 -117.155 9.91846 -88.9655 -131.331 9.91801 -128.655 -135.514 9.91604 
-128.128 -98.5778 9.91839 -109.324 -101.914 15.7113 -115.638 -129.388 28.8422 
-98.1897 -117.585 21.0656 -131.863 -117.77 28.3429 -121.716 -100.844 31.3178 
-96.5773 -135.064 30.5512 -43.42 -113.589 9.91877 -44.3105 -133.528 9.91838 
-55.1706 -91.2172 9.91877 -61.4811 -122.085 9.91811 -70.3338 -104.196 9.9191 
-59.69 -112.142 27.1303 -78.7992 -121.373 23.911 -57.8933 -135.301 24.4376 
-77.5287 -140.711 28.6921 -70.8514 -139.708 9.91508 -27.5717 -96.0986 9.9191 
8.5313 -102.265 9.91877 -9.91673 -137.044 9.91913 27.7686 -96.9425 9.91947 
-8.18396 -91.3564 9.91867 21.842 -124.86 9.91832 -26.0996 -125.36 9.91751 
21.8589 -103.85 27.6886 2.22298 -121.201 9.91729 19.775 -123.594 29.7301 
7.49767 -138.329 19.5894 13.7798 -86.5239 21.9537 35.1664 -86.491 25.2319 
81.2711 -88.3475 9.91877 38.4561 -113.8 9.91917 49.0873 -93.9441 9.91878 
37.1929 -129.918 21.6251 69.8172 -117.817 24.7943 140.913 -100.156 26.5561 
119.147 -123.795 9.92024 136.823 -110.386 9.91687 117.957 -103.872 9.91808 
101.297 -114.862 9.91895 100.92 -133.722 25.3771 121.142 -100.311 29.2956 
100.111 -94.9369 9.91837 136.646 -128.501 18.2871 135.641 -90.4616 9.91937 
122.223 -120.236 29.3202 102.182 -94.081 29.7503 103.631 -113.778 32.6051 
-95.2343 -30.5969 25.8135 -124.416 -57.1309 9.92028 -93.4527 -56.4506 24.1873 
-140.693 -45.5817 9.9208 -118.413 -38.0961 9.91905 -106.692 -66.3043 9.91975 
-91.594 -42.1059 9.91861 -114.956 -49.646 25.8264 -111.075 -78.3965 25.1854 
-129.912 -63.4288 28.045 -131.029 -37.8155 25.5644 -134.883 -74.1274 9.91751 
-130.319 -83.3574 27.0148 -113.81 -31.0897 33.0986 -81.3581 -64.4758 9.91869 
-38.8962 -79.6624 9.91955 -33.3605 -58.2175 9.91906 -62.5775 -72.6832 9.9188 
-59.9902 -41.1715 24.793 -48.1693 -73.9994 26.6642 -26.3952 -40.2824 15.2272 
11.4421 -55.6813 9.91361 -8.33358 -58.3813 9.91831 -4.98087 -38.7055 9.91854 
2.98854 -74.8175 9.91853 26.5548 -77.0202 9.91863 -19.5079 -74.92 9.91877 
12.7549 -59.4539 29.46 -20.8337 -56.5503 25.3687 -5.82643 -43.9464 29.1582 
-26.6451 -40.1744 35.184 63.2143 -79.8446 9.91907 45.33 -72.6346 15.0798 
61.1861 -59.9914 9.91591 79.397 -68.1565 9.91877 31.3069 -57.6352 9.91575 
70.957 -36.9926 9.91994 46.669 -53.5041 21.9717 72.3589 -51.1691 23.9002 
57.6983 -37.1157 24.8422 31.4728 -66.2112 27.9317 86.5109 -49.5052 9.9225 
98.6975 -77.4045 19.3524 111.009 -64.8424 9.91874 99.2332 -34.1247 9.91681 
130.84 -62.5754 9.91752 116.774 -83.9496 9.91877 118.961 -46.5377 9.91559 
135.111 -52.9545 27.4067 133.174 -76.5287 23.9919 129.473 -30.705 16.0021 
116.938 -81.5042 34.4716 133.736 -34.5929 35.1044 -134.155 -25.8252 9.91823 
-111.187 7.28281 9.9229 -96.2158 -5.92129 9.92085 -124.006 -8.01662 9.91871 
-85.8597 -22.988 9.91922 -109.239 -18.5565 18.2455 -115.796 -1.88595 27.0448 
-112.922 17.8611 26.769 -128.091 22.7331 9.91877 -139.129 0.964728 33.0802 
-108.761 27.703 9.91632 -82.4407 -14.5534 27.6809 -34.2999 -22.7396 9.91908 
-50.3062 4.93861 9.91491 -31.1279 17.0265 9.91781 -31.9582 -2.91689 9.91877 
-78.1021 19.9971 24.7982 -43.4772 15.3545 25.5053 -55.3878 -6.54503 25.4226 
24.3106 -26.8073 24.7971 -14.4072 -21.1125 9.91877 -13.6211 7.45493 10.432 
9.26745 5.82281 9.91878 18.9811 7.22155 30.6868 29.1781 4.43157 9.91876 
55.8023 -24.0014 9.91834 38.364 10.8077 33.8273 78.7668 24.1022 23.8669 
47.2164 -4.11182 9.91877 45.5962 15.7815 9.91877 64.7455 21.4099 9.91896 
82.0997 10.2259 9.916 52.8772 23.6904 29.1619 83.6831 -21.615 9.91791 
140.796 -17.8687 26.8101 101.381 -12.3834 9.91975 139.991 0.607369 9.91935 
124.763 -12.2958 9.91678 113.109 -21.7339 23.0905 112.973 17.035 24.7926 
-93.0318 66.3791 9.91969 -115.227 46.5826 9.91725 -95.2672 46.5464 9.9187 
-136.937 77.5427 9.91742 -135.202 57.6566 9.91737 -126.543 38.4895 24.229 
-86.8221 81.7703 21.0064 -85.0562 53.8943 29.6502 -140.456 38.4011 9.91863 
-107.812 35.357 34.9147 -45.4656 30.9146 9.91877 -30.2726 75.5937 24.7948 
-60.1691 65.3023 9.91923 -59.236 45.3652 9.9185 -30.3743 43.9769 9.91884 
-76.9709 54.5264 9.91877 -65.0949 73.9813 27.2049 -61.2459 50.2925 29.155 
-70.0903 82.6209 9.91912 18.6659 75.6796 9.91464 0.353155 67.7448 9.91826 
0.253816 36.1284 24.7933 16.4709 66.938 27.7135 30.7612 53.0919 26.2062 
31.3945 41.5794 9.91705 50.2964 35.1793 9.91877 68.7462 42.7838 9.91877 
71.3982 62.5641 9.91593 34.772 63.8932 9.91549 67.3015 39.2567 29.957 
47.7121 42.9677 29.0906 52.9389 54.9656 9.91877 69.894 58.8562 32.6748 
33.343 30.1211 34.2798 84.3755 51.991 20.7766 87.4116 68.3734 31.7602 
87.3293 35.5155 9.91425 128.714 66.0981 9.91877 90.7477 67.473 9.91704 
109.482 74.3618 9.9187 103.507 47.2045 9.91972 123.463 46.8517 9.91621 
104.171 59.3532 25.744 132.569 50.3204 27.3349 119.084 72.525 27.3193 
135.773 83.4699 27.0532 -90.6505 97.9187 9.91871 -115.146 117.907 24.7964 
-139.188 97.3745 9.91877 -84.8682 127.007 9.91878 -38.0902 119.491 9.91802 
-54.4079 130.983 9.91786 -32.6777 110.392 26.8354 -41.5635 135.227 24.5915 
-66.9382 108.324 33.3789 -28.1273 136.786 9.91789 20.5983 132.125 9.92005 
-1.97874 89.7082 9.92019 0.256549 127.785 9.91752 -6.7435 109.09 9.91664 
23.0158 95.1538 9.91909 9.67383 96.3152 24.7204 12.9411 112.379 9.91798 
-16.0366 123.229 20.5002 -2.699 111.286 29.3351 12.4166 123.935 26.1806 
25.1818 108.426 28.0679 26.9498 139.341 34.6922 -4.302 130.359 34.9865 
48.6607 140.687 9.91879 66.9527 132.701 9.91739 32.8981 112.492 9.9176 
51.1985 120.455 9.91659 36.7795 128.587 21.0596 54.0204 88.9693 24.7959 
70.4141 119.824 24.769 56.3217 132.544 30.9244 83.6107 121.714 9.91789 
88.321 84.6935 19.7058 90.642 140.393 9.91867 85.3177 101.828 9.91894 
125.815 85.8366 9.91844 101.683 113.255 9.91862 130.229 136.558 9.91781 
110.599 140.169 9.91896 103.395 93.3697 9.92106 135.255 117.245 9.91495 
99.7177 128.459 23.3833 118.402 123.167 18.8071 119.713 104.792 11.1399 
133.618 131.266 28.8634 114.867 134.228 35.0368 -90.7602 -118.24 39.5771 
-131.586 -134.038 39.9043 -120.403 -118.21 44.6773 -104.738 -130.102 48.0712 
-122.038 -133.482 57.4242 -129.661 -116.957 65.6099 -133.994 -137.37 73.6028 
-95.8811 -87.0653 82.4776 -138.71 -107.5 80.6733 -92.5891 -130.694 63.8912 
-45.8099 -123.837 35.4299 -44.979 -91.5804 35.5552 -84.5098 -113.451 57.9145 
-82.257 -134.649 47.1096 -44.47 -117.156 54.1888 -34.5955 -100.873 65.4504 
-67.3117 -129.323 59.2136 -70.9737 -118.965 42.1136 -50.4361 -96.5994 54.0849 
-84.3259 -97.704 70.1727 -64.958 -109.512 58.6321 -42.7616 -136.678 50.4011 
-63.5547 -140.235 42.9302 -54.1431 -120.485 71.3253 -76.3186 -114.158 78.1256 
-61.0653 -101.398 76.4484 -61.1782 -139.957 74.9508 -42.0952 -136.37 70.3461 
-38.9938 -88.5627 83.4521 -79.7539 -133.803 78.8519 -30.3536 -120.214 67.9634 
-43.2397 -108.04 82.4822 -79.2688 -85.2849 37.9103 -32.3485 -131.775 87.1444 
-13.8756 -110.082 38.8646 19.9933 -113.297 46.8271 8.43919 -136.957 39.4802 
10.3789 -127.546 56.9707 10.5414 -108.805 63.8251 -8.16816 -139.055 57.5422 
-3.82618 -87.0125 63.1066 14.9833 -94.383 50.7654 3.16194 -134.514 74.224 
-16.7599 -135.347 75.1719 14.0081 -90.6271 71.3012 24.7271 -125.479 70.6939 
30.4629 -107.989 62.9673 33.0179 -96.3607 42.4457 36.6937 -114.698 35.4724 
44.6813 -135.955 40.923 58.5705 -131.987 54.6869 40.2685 -124.228 56.4633 
64.7612 -119.986 69.3648 48.0981 -107.059 49.9612 47.9074 -99.2026 68.3062 
71.4569 -105.385 57.5166 43.2888 -117.433 74.9884 30.925 -88.13 61.0194 
71.1101 -138.894 68.5996 31.4131 -96.3912 79.1837 53.2215 -134.685 76.3773 
73.097 -128.368 85.4423 30.9973 -140.615 82.0991 81.4712 -126.93 56.4457 
140.751 -110.889 50.5351 140.31 -130.134 56.6667 87.7603 -98.8618 48.0272 
92.1994 -137.61 42.9104 129.685 -134.998 40.4894 101.645 -112.511 52.4231 
121.088 -113.137 47.9414 110.529 -129.737 42.4056 129.309 -94.9896 46.7131 
100.717 -131.06 59.7353 109.421 -94.5854 48.3442 120.598 -129.313 59.6255 
98.46 -97.5154 65.203 114.494 -109.214 67.3341 110.616 -128.501 76.8804 
91.7682 -115.832 69.448 116.077 -89.5111 70.0864 133.112 -124.098 74.2752 
131.918 -91.1659 82.1138 104.209 -111.135 84.3297 124.113 -110.238 85.4704 
-123.31 -82.8786 61.2423 -124.158 -52.019 43.3776 -99.5837 -44.7771 39.1708 
-106.526 -63.42 37.5627 -130.984 -33.3348 45.0128 -101.602 -56.1202 55.4715 
-134.272 -41.7519 62.8091 -92.2788 -68.3843 68.1613 -86.6856 -49.2541 79.8688 
-136.499 -54.9658 77.5982 -105.689 -55.3143 79.0677 -134.263 -34.243 81.304 
-93.305 -68.0958 88.0921 -31.8569 -67.1319 56.7932 -83.424 -52.1708 48.256 
-65.5351 -58.0184 54.8964 -38.9495 -33.3235 51.5677 -60.7782 -83.5615 67.5016 
-55.3959 -41.4415 59.4292 -67.1865 -44.9924 80.1633 -75.1234 -40.7404 62.3528 
-40.6929 -37.0265 72.1751 -53.1225 -74.4664 83.5238 -67.0707 -63.9362 73.891 
-50.1615 -54.7336 83.8485 -77.7039 -80.4085 77.606 -2.70634 -69.0795 37.6258 
22.1183 -80.0248 38.8826 16.3477 -56.5209 64.0861 -10.7563 -40.3704 49.0647 
-22.9662 -34.0164 63.5163 -4.38961 -28.7646 68.6097 69.1728 -41.1642 40.8724 
59.7021 -74.2429 46.8877 75.2826 -46.7751 61.8441 44.4366 -42.8493 48.4317 
59.736 -34.7505 58.3698 65.7857 -61.9074 79.0124 41.7153 -76.9604 76.7208 
76.2554 -45.3795 82.9851 50.0774 -51.8431 71.9185 41.8704 -33.3102 69.6332 
62.2172 -32.0958 77.9956 102.944 -50.1157 40.7587 93.1913 -80.7548 54.4389 
137.316 -50.1712 47.0508 132.669 -69.0321 42.4787 94.2492 -46.3959 74.3995 
119.138 -78.0965 54.0107 85.1937 -62.9808 67.9681 124.056 -73.2083 78.3836 
128.098 -47.4905 64.8696 100.172 -77.781 72.9019 93.2053 -64.6013 86.1785 
-98.4708 -6.08068 36.0229 -104.917 10.4932 45.0841 -125.085 -15.4748 38.3339 
-104.984 -22.954 65.9191 -124.782 8.61366 44.6545 -103.116 11.9145 64.91 
-122.957 13.7564 63.8524 -93.3703 26.5838 55.5297 -114.9 7.04721 80.8408 
-95.7521 4.28905 85.7534 -122.927 25.2071 84.3022 -86.6322 4.72798 55.0519 
-128.766 -6.51497 85.5376 -84.7025 16.9511 70.716 -138.218 14.9121 76.6584 
[...]
POINT_DATA 2000
FIELD FieldData 7
id 1 2000 int
41 77 196 230 301 308 411 107 205 
282 106 55 343 53 85 259 296 439 
275 328 424 223 311 157 185 265 297 
299 410 440 49 172 336 218 351 95 
300 376 408 437 22 380 59 139 141 
164 29 30 201 379 252 335 47 283 
36 142 215 338 414 456 171 32 161 
261 453 395 381 80 246 112 143 231 
10 211 243 115 208 212 232 365 48 
167 45 281 422 397 113 174 222 318 
108 354 285 317 149 200 434 117 135 
262 286 314 334 274 213 86 183 114 
239 342 346 413 66 147 238 99 412 
320 443 225 50 69 345 20 46 220 
11 37 358 390 416 122 359 123 256 
264 347 430 54 204 197 298 97 178 
271 404 15 84 199 362 400 458 234 
184 378 266 450 187 8 279 321 399 
250 384 387 224 195 240 12 186 133 
111 131 132 389 419 229 369 375 72 
315 449 233 253 34 102 154 221 330 
173 352 58 329 138 6 444 179 168 
455 295 385 27 88 62 169 302 339 
341 79 83 426 294 433 127 128 78 
33 110 227 396 421 18 251 242 429 
366 344 160 96 209 288 367 370 452 
116 198 284 247 447 438 442 166 401 
448 1283 852 1551 856 1025 371 273 361 
304 71 82 119 130 350 319 383 409 
292 1007 1248 1875 1713 1903 903 1746 290 
1938 9 1533 2 241 355 156 64 76 
210 293 1584 1870 1852 1011 418 39 216 
263 269 144 165 382 42 74 332 364 
1712 1941 1809 1945 949 323 244 1861 137 
38 51 125 394 445 81 155 249 272 
436 1279 1425 1934 701 720 1921 1306 1709 
5 245 276 425 331 388 307 553 1536 
1779 655 1754 1406 23 65 163 415 191 
236 1673 1716 1727 1791 662 643 911 417 
75 28 226 353 1158 392 14 44 306 
118 89 327 931 1602 120 1654 25 180 
313 398 189 188 1315 1641 1867 1919 1953 
255 309 405 26 278 129 322 303 761 
764 1565 43 739 1505 1015 152 57 151 
162 68 158 214 257 175 176 368 427 
864 1210 874 1539 793 1282 1363 121 4 
217 357 94 190 202 349 402 1858 571 
591 746 603 268 219 7 100 333 104 
457 70 454 63 1386 1764 1001 752 153 
623 432 582 386 291 277 326 19 441 
1404 839 3 254 228 393 145 177 377 
140 1045 1599 1674 1396 1956 420 1457 1 
270 109 170 91 312 93 909 1030 1693 
451 260 61 373 67 267 60 87 316 
372 1650 467 280 73 789 235 374 16 
103 194 148 310 356 1079 1951 1403 1414 
661 206 1123 337 35 258 24 159 182 
435 340 1427 1973 1111 1817 105 126 360 
403 237 287 363 92 348 406 1682 1395 
1514 1766 609 1190 181 324 391 21 407 
40 428 56 98 1805 1891 1086 1281 1359 
207 289 446 90 101 192 13 124 1589 
1866 1397 923 1449 1740 193 146 423 136 
305 52 150 431 1081 1881 1995 771 817 
1498 1833 1849 203 1703 1364 325 17 31 
134 248 1616 967 1139 1444 741 1604 1758 
481 1067 1691 1541 954 1291 784 1104 519 
1769 814 1017 1725 1130 1194 485 1379 600 
1021 1175 542 1172 1999 669 1169 1329 907 
1980 948 965 1257 1600 1895 1070 521 1835 
952 470 1335 1261 1645 951 1618 1155 1662 
1851 554 1447 1684 549 1632 1049 1267 1590 
1960 1127 1988 463 1188 838 1050 1471 1839 
1994 563 1890 775 1561 914 866 1146 1148 
1219 1456 1647 1177 753 1826 480 757 946 
974 487 1524 574 1424 1842 1837 1538 462 
1340 1251 541 1205 1680 1485 1542 718 1116 
887 1824 1273 490 997 652 878 995 1044 
1170 1675 1578 622 1076 1154 1816 1863 1142 
833 889 627 1586 875 906 1129 1212 1517 
1036 1892 1418 534 1722 985 1566 641 969 
1811 1362 779 653 645 1224 1233 1370 1871 
862 1582 667 1388 845 1041 938 476 723 
1412 1670 806 1101 1166 496 522 1477 1915 
1733 1797 854 1601 1439 1907 842 861 1013 
1416 1033 1098 1176 1626 1735 1128 1462 1322 
659 533 754 1062 1189 1879 1947 1493 629 
531 1847 722 1162 1401 1023 1065 712 1715 
1554 1563 699 799 1143 584 709 1338 1828 
1742 1572 472 1937 1441 1726 970 595 960 
1398 1911 1579 888 1118 1672 1366 465 1092 
1382 581 475 1465 1496 1339 1269 1035 1723 
1888 507 1532 1959 644 1193 1594 961 1928 
1831 901 1409 745 494 1411 1199 1570 1527 
471 598 1676 1882 1073 919 1171 892 798 
1651 1039 853 675 702 1717 975 1528 1801 
841 657 1413 1478 468 1107 1789 953 565 
1982 567 1487 493 1260 1679 837 934 1051 
1455 1577 1056 1302 1771 1467 1332 1472 1421 
674 625 1929 1240 1450 1606 1862 729 962 
968 1324 1902 966 1636 1855 1438 1474 1634 
1183 1254 474 749 1782 1301 797 514 1822 
1353 803 893 1435 805 1860 1819 1334 1887 
936 1430 848 1931 1889 536 1266 532 810 
1218 1944 1552 538 1200 1977 1910 1152 1522 
1877 1624 589 1054 1681 1918 991 489 1215 
981 1500 605 1225 710 1417 1627 672 631 
728 1289 1963 876 1222 1230 1548 1502 1124 
964 1097 832 1827 1544 1841 509 1103 1608 
1053 1699 1986 1834 1164 2000 1731 523 1262 
990 1384 697 1905 1802 552 1936 1419 460 
566 915 688 1058 1168 1660 944 984 1631 
801 1480 1055 820 1376 1732 676 1117 1208 
1962 1612 1088 1749 835 671 1459 1576 1978 
1100 647 1812 1721 1060 1778 1458 1202 1119 
1228 1358 1976 1484 1093 987 1059 1120 751 
1204 1470 596 668 1648 769 1820 912 850 
1326 972 1659 1350 1972 497 736 1788 686 
1664 540 1932 1253 1186 1767 1221 687 1857 
781 807 1753 886 1083 1443 1930 1099 619 
730 1165 1669 1026 1597 1066 1245 1029 1134 
1018 1330 1770 758 1004 1832 527 1614 1671 
602 1794 693 1466 755 1207 488 1341 1564 
1285 1964 516 1550 1365 590 1492 865 1307 
896 1531 740 477 1298 617 871 788 575 
499 809 894 935 916 1786 1630 986 1803 
725 1504 1034 1573 1874 770 1488 1464 1558 
1935 529 1075 633 1394 1704 1708 1442 1308 
1568 918 830 759 1620 1331 1569 1280 1491 
1061 576 1063 1268 1501 1843 994 1069 689 
1149 608 999 615 1196 922 1125 1316 570 
683 1048 1521 1768 646 1091 1698 1422 924 
777 1490 1150 1854 925 1916 539 1113 895 
1310 1948 732 1856 1575 614 1925 1922 1559 
1368 1213 1765 1737 512 904 1611 1773 624 
1263 1463 1781 1893 1556 1105 1885 1047 524 
713 504 665 1909 1917 601 1072 1137 1617 
885 1739 929 1846 733 1108 1787 1133 802 
1274 1191 1227 1806 535 738 1864 795 765 
1957 1970 1426 526 558 628 642 1701 573 
1135 1249 550 473 1203 1357 1729 656 1024 
1145 1638 1853 1705 560 1040 1807 790 1796 
1761 562 1077 1965 503 700 1304 1639 1952 
1195 1549 1042 492 1613 1415 942 1311 1738 
1497 1356 464 1898 1489 1238 1246 825 800 
1452 1896 568 1259 1354 1288 1367 649 1808 
1090 1904 1174 847 1635 950 479 1352 648 
1429 1942 1372 1734 1868 1009 698 1052 1757 
548 1373 831 593 520 1993 1405 1342 992 
1595 1981 1437 1068 1961 998 679 715 1939 
1815 1667 1380 1511 546 920 988 1046 1949 
1486 1161 1022 708 818 959 1244 1661 794 
1663 1293 1287 1241 1557 1571 500 1159 1121 
815 635 1991 1180 1751 1605 1236 530 787 
1319 1836 597 1800 1355 592 1087 1585 1250 
1348 1431 1234 1547 1825 1850 719 811 1658 
747 1300 1844 1005 484 1089 822 604 1138 
510 763 1374 1692 690 1971 1479 1436 517 
1006 1509 1526 1546 1876 680 650 694 1106 
1112 1473 1665 682 1619 1433 742 868 796 
867 1209 869 1325 486 1760 908 1829 1084 
612 774 917 1545 1295 1621 1830 621 572 
651 1451 1900 1790 1741 1537 501 1160 902 
1696 511 1454 1702 1736 1391 1314 681 1420 
717 1343 1151 780 870 1115 1178 1510 469 
704 1428 955 1389 1914 900 1924 483 1776 
1615 945 971 1231 1873 1132 1513 1271 1966 
910 1519 1640 1512 829 982 1580 1383 1275 
547 1360 1958 1064 1423 993 1719 1508 696 
1173 1346 750 819 1838 1303 559 1743 1223 
1393 1975 748 836 1940 760 1141 632 1593 
1974 1499 1529 1581 1592 1752 1880 1010 791 
939 1037 678 1992 743 1038 881 1967 1445 
613 744 1000 827 1555 1082 1755 1926 776 
1886 978 658 1351 1810 1818 580 1197 1920 
1644 1823 695 1122 824 1475 1507 1284 731 
943 618 1745 1453 851 1540 564 579 762 
1239 1845 1984 459 1095 785 1697 1574 1336 
863 1799 691 767 1184 1883 1147 1759 956 
1387 1997 1678 1943 783 684 518 1028 973 
1136 1865 1461 1181 1913 1078 711 1229 1375 
1625 1278 594 1710 1859 1756 1516 599 1256 
858 737 941 1780 1131 927 977 1286 616 
1320 921 1016 556 1666 1908 813 1714 1637 
1074 1309 482 958 1689 1785 626 724 1328 
1192 873 1518 1264 1378 1071 928 1094 1609 
899 1272 1872 1996 578 1012 506 1371 1884 
1237 989 1469 1167 1506 525 1596 1683 1718 
1235 1008 1014 1390 1950 1057 897 1270 654 
1649 1955 1720 638 812 1543 1694 544 610 
1946 555 705 976 561 857 1276 1793 1798 
1588 926 1327 1226 1333 1211 840 1114 1784 
1656 1848 577 1643 1220 1591 543 1140 846 
1583 502 1344 1652 1408 585 663 1214 1688 
804 1157 1668 707 1255 1185 1232 1043 1377 
884 1897 1821 1553 664 849 515 1323 1587 
843 1163 498 1530 1628 933 1792 1265 940 
772 587 1031 1677 1775 890 773 1633 703 
1297 1503 877 778 1968 844 1998 1687 963 
1277 569 1369 1814 537 1494 1361 1109 1525 
606 1345 1448 1299 905 1927 880 1560 1317 
1695 937 1878 508 1483 1258 466 1381 1744 
766 816 1110 879 557 716 898 721 495 
913 792 1724 855 826 1385 505 1446 947 
756 1923 1748 1292 735 1432 1182 1906 1795 
673 1126 1700 588 980 1206 1085 666 1296 
1933 1686 634 1252 1153 883 823 1657 872 
891 1774 1990 834 513 1402 1690 1392 1027 
1096 1318 1243 782 1901 630 1305 1535 640 
478 734 1750 1187 545 1198 551 821 670 
1482 1987 639 768 1019 1217 1763 1985 1349 
677 1899 1772 860 1598 1312 1989 1410 620 
611 1520 1032 1468 726 828 1685 1777 607 
996 1337 491 1607 957 1460 1400 1567 1653 
1622 636 1290 1730 706 1407 1156 1840 528 
1711 1969 1495 1813 1954 1399 1313 637 1080 
660 1294 714 1562 1983 1440 1481 1646 1347 
859 586 1706 1523 1102 882 583 1603 1144 
808 1728 1179 1003 1979 786 983 1020 1321 
1242 1655 1642 1002 1434 1201 930 932 1783 
1247 1629 1515 1894 1476 1610 1869 1912 1623 
1216 1762 1534 1804 727 1747 685 461 979 
692 1707 
type 1 2000 int
1 1 1 1 1 1 1 1 1 
1 1 1 1 1 1 1 1 1 
1 1 1 1 1 1 1 1 1 
1 1 1 1 1 1 1 1 1 
1 1 1 1 1 1 1 1 1 
1 1 1 1 1 1 1 1 1 
1 1 1 1 1 1 1 1 1 
1 1 1 1 1 1 1 1 1 
1 1 1 1 1 1 1 1 1 
1 1 1 1 1 1 1 1 1 
1 1 1 1 1 1 1 1 1 
1 1 1 1 1 1 1 1 1 
1 1 1 1 1 1 1 1 1 
1 1 1 1 1 1 1 1 1 
1 1 1 1 1 1 1 1 1 
1 1 1 1 1 1 1 1 1 
1 1 1 1 1 1 1 1 1 
1 1 1 1 1 1 1 1 1 
1 1 1 1 1 1 1 1 1 
1 1 1 1 1 1 1 1 1 
1 1 1 1 1 1 1 1 1 
1 1 1 1 1 1 1 1 1 
1 1 1 1 1 1 1 1 1 
1 1 1 1 1 1 1 1 1 
1 1 1 1 1 1 1 1 1 
1 1 1 1 1 1 1 1 1 
1 1 1 1 1 1 1 1 1 
1 1 1 1 1 1 1 1 1 
1 1 1 1 1 1 1 1 1 
1 1 1 1 1 1 1 1 1 
1 1 1 1 1 1 1 1 1 
1 1 1 1 1 1 1 1 1 
1 1 1 1 1 1 1 1 1 
1 1 1 1 1 1 1 1 1 
1 1 1 1 1 1 1 1 1 
1 1 1 1 1 1 1 1 1 
1 1 1 1 1 1 1 1 1 
1 1 1 1 1 1 1 1 1 
1 1 1 1 1 1 1 1 1 
1 1 1 1 1 1 1 1 1 
1 1 1 1 1 1 1 1 1 
1 1 1 1 1 1 1 1 1 
1 1 1 1 1 1 1 1 1 
1 1 1 1 1 1 1 1 1 
1 1 1 1 1 1 1 1 1 
1 1 1 1 1 1 1 1 1 
1 1 1 1 1 1 1 1 1 
1 1 1 1 1 1 1 1 1 
1 1 1 1 1 1 1 1 1 
1 1 1 1 1 1 1 1 1 
1 1 1 1 1 1 1 1 1 
1 1 1 1 1 1 1 1 1 
1 1 1 1 1 1 1 1 1 
1 1 1 1 1 1 1 1 1 
1 1 1 1 1 1 1 1 1 
1 1 1 1 1 1 1 1 1 
1 1 1 1 1 1 1 1 1 
1 1 1 1 1 1 1 1 1 
1 1 1 1 1 1 1 1 1 
1 1 1 1 1 1 1 1 1 
1 1 1 1 1 1 1 1 1 
1 1 1 1 1 1 1 1 1 
1 1 1 1 1 1 1 1 1 
1 1 1 1 1 1 1 1 1 
1 1 1 1 1 1 1 1 1 
1 1 1 1 1 1 1 1 1 
1 1 1 1 1 1 1 1 1 
1 1 1 1 1 1 1 1 1 
1 1 1 1 1 1 1 1 1 
1 1 1 1 1 1 1 1 1 
1 1 1 1 1 1 1 1 1 
1 1 1 1 1 1 1 1 1 
1 1 1 1 1 1 1 1 1 
1 1 1 1 1 1 1 1 1 
1 1 1 1 1 1 1 1 1 
1 1 1 1 1 1 1 1 1 
1 1 1 1 1 1 1 1 1 
1 1 1 1 1 1 1 1 1 
1 1 1 1 1 1 1 1 1 
1 1 1 1 1 1 1 1 1 
1 1 1 1 1 1 1 1 1 
1 1 1 1 1 1 1 1 1 
1 1 1 1 1 1 1 1 1 
1 1 1 1 1 1 1 1 1 
1 1 1 1 1 1 1 1 1 
1 1 1 1 1 1 1 1 1 
1 1 1 1 1 1 1 1 1 
1 1 1 1 1 1 1 1 1 
1 1 1 1 1 1 1 1 1 
1 1 1 1 1 1 1 1 1 
1 1 1 1 1 1 1 1 1 
1 1 1 1 1 1 1 1 1 
1 1 1 1 1 1 1 1 1 
1 1 1 1 1 1 1 1 1 
1 1 1 1 1 1 1 1 1 
1 1 1 1 1 1 1 1 1 
1 1 1 1 1 1 1 1 1 
1 1 1 1 1 1 1 1 1 
1 1 1 1 1 1 1 1 1 
1 1 1 1 1 1 1 1 1 
1 1 1 1 1 1 1 1 1 
1 1 1 1 1 1 1 1 1 
1 1 1 1 1 1 1 1 1 
1 1 1 1 1 1 1 1 1 
1 1 1 1 1 1 1 1 1 
1 1 1 1 1 1 1 1 1 
1 1 1 1 1 1 1 1 1 
1 1 1 1 1 1 1 1 1 
1 1 1 1 1 1 1 1 1 
1 1 1 1 1 1 1 1 1 
1 1 1 1 1 1 1 1 1 
1 1 1 1 1 1 1 1 1 
1 1 1 1 1 1 1 1 1 
1 1 1 1 1 1 1 1 1 
1 1 1 1 1 1 1 1 1 
1 1 1 1 1 1 1 1 1 
1 1 1 1 1 1 1 1 1 
1 1 1 1 1 1 1 1 1 
1 1 1 1 1 1 1 1 1 
1 1 1 1 1 1 1 1 1 
1 1 1 1 1 1 1 1 1 
1 1 1 1 1 1 1 1 1 
1 1 1 1 1 1 1 1 1 
1 1 1 1 1 1 1 1 1 
1 1 1 1 1 1 1 1 1 
1 1 1 1 1 1 1 1 1 
1 1 1 1 1 1 1 1 1 
1 1 1 1 1 1 1 1 1 
1 1 1 1 1 1 1 1 1 
1 1 1 1 1 1 1 1 1 
1 1 1 1 1 1 1 1 1 
1 1 1 1 1 1 1 1 1 
1 1 1 1 1 1 1 1 1 
1 1 1 1 1 1 1 1 1 
1 1 1 1 1 1 1 1 1 
1 1 1 1 1 1 1 1 1 
1 1 1 1 1 1 1 1 1 
1 1 1 1 1 1 1 1 1 
1 1 1 1 1 1 1 1 1 
1 1 1 1 1 1 1 1 1 
1 1 1 1 1 1 1 1 1 
1 1 1 1 1 1 1 1 1 
1 1 1 1 1 1 1 1 1 
1 1 1 1 1 1 1 1 1 
1 1 1 1 1 1 1 1 1 
1 1 1 1 1 1 1 1 1 
1 1 1 1 1 1 1 1 1 
1 1 1 1 1 1 1 1 1 
1 1 1 1 1 1 1 1 1 
1 1 1 1 1 1 1 1 1 
1 1 1 1 1 1 1 1 1 
1 1 1 1 1 1 1 1 1 
1 1 1 1 1 1 1 1 1 
1 1 1 1 1 1 1 1 1 
1 1 1 1 1 1 1 1 1 
1 1 1 1 1 1 1 1 1 
1 1 1 1 1 1 1 1 1 
1 1 1 1 1 1 1 1 1 
1 1 1 1 1 1 1 1 1 
1 1 1 1 1 1 1 1 1 
1 1 1 1 1 1 1 1 1 
1 1 1 1 1 1 1 1 1 
1 1 1 1 1 1 1 1 1 
1 1 1 1 1 1 1 1 1 
1 1 1 1 1 1 1 1 1 
1 1 1 1 1 1 1 1 1 
1 1 1 1 1 1 1 1 1 
1 1 1 1 1 1 1 1 1 
1 1 1 1 1 1 1 1 1 
1 1 1 1 1 1 1 1 1 
1 1 1 1 1 1 1 1 1 
1 1 1 1 1 1 1 1 1 
1 1 1 1 1 1 1 1 1 
1 1 1 1 1 1 1 1 1 
1 1 1 1 1 1 1 1 1 
1 1 1 1 1 1 1 1 1 
1 1 1 1 1 1 1 1 1 
1 1 1 1 1 1 1 1 1 
1 1 1 1 1 1 1 1 1 
1 1 1 1 1 1 1 1 1 
1 1 1 1 1 1 1 1 1 
1 1 1 1 1 1 1 1 1 
1 1 1 1 1 1 1 1 1 
1 1 1 1 1 1 1 1 1 
1 1 1 1 1 1 1 1 1 
1 1 1 1 1 1 1 1 1 
1 1 1 1 1 1 1 1 1 
1 1 1 1 1 1 1 1 1 
1 1 1 1 1 1 1 1 1 
1 1 1 1 1 1 1 1 1 
1 1 1 1 1 1 1 1 1 
1 1 1 1 1 1 1 1 1 
1 1 1 1 1 1 1 1 1 
1 1 1 1 1 1 1 1 1 
1 1 1 1 1 1 1 1 1 
1 1 1 1 1 1 1 1 1 
1 1 1 1 1 1 1 1 1 
1 1 1 1 1 1 1 1 1 
1 1 1 1 1 1 1 1 1 
1 1 1 1 1 1 1 1 1 
1 1 1 1 1 1 1 1 1 
1 1 1 1 1 1 1 1 1 
1 1 1 1 1 1 1 1 1 
1 1 1 1 1 1 1 1 1 
1 1 1 1 1 1 1 1 1 
1 1 1 1 1 1 1 1 1 
1 1 1 1 1 1 1 1 1 
1 1 1 1 1 1 1 1 1 
1 1 1 1 1 1 1 1 1 
1 1 1 1 1 1 1 1 1 
1 1 1 1 1 1 1 1 1 
1 1 1 1 1 1 1 1 1 
1 1 1 1 1 1 1 1 1 
1 1 1 1 1 1 1 1 1 
1 1 1 1 1 1 1 1 1 
1 1 1 1 1 1 1 1 1 
1 1 1 1 1 1 1 1 1 
1 1 1 1 1 1 1 1 1 
1 1 1 1 1 1 1 1 1 
1 1 1 1 1 1 1 1 1 
1 1 1 1 1 1 1 1 1 
1 1 1 1 1 1 1 1 1 
1 1 
i 3 2000 int
0 0 0 0 0 0 0 0 0 
0 0 0 0 0 0 0 0 0 
0 0 0 0 0 0 0 0 0 
0 0 0 0 0 0 0 0 0 
0 0 0 0 0 0 0 0 0 
0 0 0 0 0 0 0 0 0 
0 0 0 0 0 0 0 0 0 
0 0 0 0 1 0 0 0 0 
0 0 0 0 0 0 0 0 0 
0 0 0 0 0 0 0 0 0 
0 0 0 0 0 0 0 0 0 
0 1 0 0 0 0 0 0 0 
0 0 0 0 0 0 0 0 0 
0 0 0 0 0 0 -1 0 0 
0 0 0 0 0 0 0 0 0 
0 0 0 0 0 0 0 0 0 
0 0 0 0 0 0 0 0 0 
0 0 0 0 0 0 0 0 0 
0 0 0 0 0 0 0 0 0 
0 0 0 0 0 0 0 0 0 
0 0 0 0 0 0 0 0 0 
0 0 0 0 0 0 1 0 0 
0 0 0 0 0 0 0 0 0 
0 0 0 0 0 0 0 0 0 
0 0 0 0 0 0 0 0 0 
0 0 0 0 0 0 0 0 0 
0 0 0 0 0 0 0 0 0 
0 0 0 0 0 0 0 0 0 
0 0 0 0 0 0 0 0 0 
0 0 0 0 0 0 0 0 0 
0 0 0 0 0 0 0 0 0 
0 0 0 0 0 0 0 0 0 
0 0 0 0 0 0 0 0 0 
0 0 0 0 0 0 0 0 0 
0 0 0 0 0 0 0 0 0 
0 0 0 0 0 0 0 0 0 
0 0 0 0 0 0 0 0 0 
0 0 0 0 0 0 0 0 0 
0 0 0 0 0 0 1 0 0 
0 0 0 0 0 0 0 0 0 
0 0 0 0 0 0 0 0 0 
0 0 0 0 0 0 0 0 0 
0 0 0 0 0 0 0 0 0 
0 0 0 0 0 0 0 0 0 
0 0 0 0 0 0 0 0 0 
0 0 0 0 0 0 0 0 0 
0 0 0 0 0 0 0 0 0 
0 0 0 0 0 0 0 0 0 
0 0 0 0 0 0 0 0 0 
0 0 0 0 0 0 0 0 0 
0 0 0 0 0 0 0 0 0 
0 0 0 0 0 0 1 0 0 
0 0 0 0 0 0 0 0 0 
0 0 0 0 0 0 0 0 0 
0 0 0 0 0 0 0 0 0 
0 0 0 0 0 0 0 0 0 
0 0 0 0 0 0 0 0 0 
0 0 0 0 0 0 0 0 0 
0 0 0 0 0 0 0 0 0 
0 0 0 0 0 0 0 0 0 
0 0 0 0 0 0 0 0 0 
0 0 0 0 0 0 0 0 0 
0 0 0 0 0 0 0 0 0 
0 0 0 0 0 0 0 0 0 
0 0 0 0 0 0 0 0 0 
0 0 0 0 0 0 0 0 0 
0 0 0 0 0 0 0 0 0 
0 0 0 0 0 0 0 0 0 
0 0 0 0 0 0 0 0 0 
0 0 0 0 0 0 0 0 0 
0 0 0 0 0 0 0 0 0 
0 0 0 0 0 0 0 0 0 
0 -1 0 0 0 0 0 0 0 
0 0 0 0 0 0 0 0 0 
0 0 0 0 0 0 0 0 0 
0 0 0 0 0 0 0 0 0 
0 0 0 0 0 0 0 0 0 
0 0 0 0 0 0 0 0 0 
0 0 0 0 0 0 0 0 0 
0 0 0 0 0 0 0 0 0 
0 0 0 0 0 0 0 0 0 
0 0 0 0 0 0 0 0 0 
0 0 0 0 0 0 0 0 0 
0 0 0 0 0 0 0 0 0 
0 0 0 0 0 0 0 0 0 
0 0 0 0 0 0 0 0 0 
0 0 0 0 0 0 0 0 0 
0 1 0 0 0 0 0 0 0 
0 0 0 0 0 0 0 0 0 
0 0 0 0 0 0 0 0 0 
0 0 0 0 0 0 0 0 0 
0 0 0 0 0 0 0 0 0 
0 0 0 0 0 0 0 0 0 
0 0 0 0 0 0 0 0 0 
0 0 0 0 0 0 0 0 0 
0 0 0 0 0 0 0 0 0 
0 0 0 0 0 0 0 0 0 
0 0 0 0 0 0 0 0 0 
0 0 0 0 0 0 0 0 0 
0 0 0 0 0 0 0 0 0 
0 0 0 0 1 0 0 0 0 
-1 0 0 -1 0 0 0 0 0 
0 0 0 0 0 0 0 0 0 
0 0 0 0 0 0 0 0 0 
0 0 0 0 0 0 0 0 0 
0 0 0 0 0 0 0 0 0 
0 0 0 0 0 0 0 0 0 
-1 0 0 0 0 0 0 0 0 
0 0 0 0 0 0 0 0 0 
0 0 0 0 0 0 0 0 0 
0 0 0 0 0 0 0 0 0 
0 0 0 0 0 0 1 0 0 
0 0 0 0 0 0 0 0 0 
0 0 0 0 0 0 0 0 0 
0 0 0 0 0 0 0 0 0 
0 0 0 0 0 0 0 0 0 
0 0 0 0 0 0 0 0 0 
0 0 0 0 0 0 0 0 0 
0 0 0 0 0 0 0 0 0 
0 0 0 0 0 0 0 0 0 
0 0 0 0 0 0 0 0 0 
0 0 0 0 0 0 0 0 0 
0 0 0 0 0 0 0 0 0 
0 0 0 0 0 0 0 0 0 
0 0 0 0 0 0 0 0 0 
0 0 0 0 0 0 0 0 0 
0 0 0 0 0 0 0 0 0 
0 0 0 0 0 0 0 0 0 
0 0 0 0 0 0 0 0 0 
0 0 0 0 0 0 0 0 0 
0 0 0 0 0 0 1 0 0 
0 0 0 0 0 0 0 0 0 
0 0 0 0 0 0 0 0 0 
0 0 0 0 0 0 0 0 0 
0 0 0 0 0 0 0 0 0 
0 0 0 0 0 0 0 0 0 
0 0 0 0 0 0 0 0 0 
0 0 0 0 0 0 0 0 0 
0 0 0 0 0 0 0 0 0 
0 0 0 0 0 0 0 0 0 
0 0 0 0 0 0 0 0 0 
0 0 0 0 0 0 0 0 0 
0 0 0 0 0 0 0 0 0 
0 0 0 0 0 0 0 0 0 
0 0 0 0 0 0 0 0 0 
0 0 0 0 0 0 0 0 0 
0 0 0 0 0 0 0 0 0 
0 0 0 0 0 0 0 0 0 
0 0 0 0 0 0 0 0 0 
0 0 0 0 0 0 0 0 0 
0 0 0 0 0 0 0 0 0 
0 0 0 0 0 0 0 0 0 
0 0 0 0 0 0 0 0 0 
0 0 0 0 0 0 0 0 0 
0 0 0 0 0 0 0 0 0 
0 0 0 0 0 0 0 0 0 
0 0 0 0 0 0 0 0 0 
0 0 0 0 0 0 0 0 0 
0 0 0 0 0 0 0 0 0 
0 0 0 0 0 0 0 0 0 
0 0 0 0 0 0 0 0 0 
0 0 0 0 0 0 0 0 0 
0 0 0 0 0 0 0 0 0 
0 0 0 0 0 0 0 0 0 
0 0 0 0 0 0 0 0 0 
0 0 0 0 0 0 0 0 0 
0 0 0 0 0 0 0 0 0 
0 0 0 0 0 0 0 0 0 
0 0 0 0 0 0 0 0 0 
0 0 0 0 0 0 0 0 0 
0 0 0 0 0 0 0 0 0 
0 0 0 0 0 0 0 0 0 
0 0 0 0 0 0 0 -1 0 
0 0 0 0 0 0 0 0 0 
0 0 0 0 0 0 0 0 0 
0 0 0 0 0 0 0 0 0 
0 0 0 0 0 0 0 0 0 
0 0 0 0 0 0 0 0 0 
0 -1 0 0 0 0 0 0 0 
0 0 0 0 0 0 0 0 0 
0 0 0 0 0 0 0 0 0 
0 0 0 0 0 0 0 0 0 
0 0 0 0 0 0 0 0 0 
0 0 0 0 -1 0 0 0 0 
0 0 0 0 0 0 0 0 0 
0 0 0 0 0 0 0 0 0 
0 0 0 0 0 0 0 0 0 
0 0 0 0 0 0 0 0 0 
0 0 0 0 0 0 0 0 0 
0 0 0 0 0 0 0 0 0 
0 0 0 0 0 0 0 0 0 
0 0 0 0 0 0 0 0 0 
0 0 0 0 0 0 -1 0 0 
0 0 0 0 0 0 0 0 0 
0 0 0 0 0 0 0 0 0 
0 0 0 0 0 0 0 0 0 
0 0 0 0 0 0 0 0 0 
0 0 0 0 0 0 0 0 0 
0 0 0 0 0 0 0 0 0 
0 0 0 0 0 0 0 0 0 
0 0 0 0 0 0 0 0 0 
0 0 0 0 0 0 0 0 0 
0 0 0 0 0 0 0 0 0 
0 0 0 0 0 0 0 0 0 
0 0 0 0 0 0 0 0 0 
0 0 0 0 0 0 0 0 0 
0 0 0 0 0 0 0 0 0 
0 0 0 0 0 0 0 1 0 
0 0 0 0 0 0 0 0 0 
0 0 0 0 0 0 0 0 0 
0 0 0 0 0 0 0 0 0 
0 0 0 0 1 0 0 0 0 
0 1 0 0 0 0 0 0 0 
0 0 0 0 0 0 0 0 0 
0 0 0 0 0 0 0 0 0 
0 0 0 0 0 0 0 0 0 
0 1 0 0 0 0 0 0 0 
0 0 0 0 0 0 0 0 0 
0 0 0 0 0 0 0 0 0 
0 0 0 0 0 0 0 0 0 
0 0 0 0 0 0 0 0 0 
0 0 0 0 0 0 0 0 0 
0 0 0 0 0 0 0 0 0 
0 0 0 0 0 0 0 0 0 
0 0 0 0 0 0 0 0 0 
0 0 0 0 0 0 0 0 0 
0 0 0 0 0 0 0 0 0 
0 0 0 0 0 0 0 0 0 
0 0 0 0 0 0 0 0 0 
0 0 0 0 0 0 0 0 0 
0 0 0 0 0 0 0 0 0 
0 0 0 0 0 0 0 0 0 
0 0 0 0 0 0 0 0 0 
0 0 0 0 0 0 0 0 0 
0 0 0 0 0 0 0 0 0 
0 0 0 0 0 0 0 0 0 
0 0 0 0 0 0 0 0 0 
0 0 0 0 0 0 0 0 0 
0 0 0 0 0 0 0 0 0 
0 0 0 0 0 0 0 0 0 
0 0 0 0 0 0 0 0 0 
0 0 0 0 0 0 0 0 0 
0 0 0 0 0 0 0 0 0 
0 0 0 0 0 0 0 0 0 
0 0 0 0 0 0 0 0 0 
0 0 0 0 0 0 0 0 0 
0 0 0 0 0 0 0 0 0 
0 0 0 0 0 0 0 0 0 
0 0 0 0 0 0 0 0 0 
0 0 0 0 0 0 0 0 0 
0 0 0 0 0 0 0 0 0 
0 0 0 0 0 0 0 0 0 
0 0 0 -1 0 0 0 0 0 
0 0 0 0 0 0 0 0 0 
0 0 0 0 0 0 0 0 0 
0 0 0 0 0 0 0 0 0 
0 0 0 0 0 0 0 0 0 
0 0 0 0 0 0 0 0 0 
0 0 0 0 0 0 0 0 0 
0 0 0 0 0 0 0 0 0 
1 0 0 0 0 0 0 0 0 
0 0 0 0 0 0 0 0 0 
0 0 0 0 0 0 0 0 0 
0 0 0 0 0 0 0 0 0 
0 0 0 0 0 0 0 0 0 
0 0 0 0 0 0 0 0 0 
0 0 0 0 0 0 0 0 0 
0 0 0 0 0 0 0 0 0 
0 0 0 0 0 0 0 0 0 
0 0 0 0 0 0 0 0 0 
0 0 0 0 0 0 0 0 0 
0 0 0 0 0 0 0 0 0 
0 0 0 0 0 0 0 0 0 
0 0 0 0 0 0 0 0 0 
0 0 0 0 0 0 0 0 0 
0 0 0 0 0 0 0 -1 0 
0 -1 0 0 0 0 0 0 0 
0 0 0 0 0 0 0 0 0 
0 0 0 0 0 0 0 0 0 
0 0 0 0 0 0 0 0 0 
0 0 0 0 0 0 0 0 0 
0 0 0 0 0 0 0 0 0 
0 0 0 0 0 0 0 0 0 
0 0 0 0 0 0 0 0 0 
0 0 0 0 0 0 0 0 0 
0 0 0 0 0 0 0 0 0 
0 0 0 0 0 0 0 0 0 
0 0 0 0 0 0 0 0 0 
0 0 0 0 0 0 0 0 0 
0 0 0 0 0 0 0 0 0 
0 0 0 0 0 0 0 0 0 
0 0 0 0 0 0 0 0 0 
0 0 0 0 0 0 0 0 0 
0 -1 0 0 0 0 0 0 0 
0 0 0 0 0 0 0 0 0 
0 0 0 0 0 0 0 0 0 
-1 0 0 -1 0 0 0 0 0 
0 0 0 0 0 0 -1 0 0 
0 0 0 0 0 0 0 0 0 
0 0 0 0 0 0 0 0 0 
0 0 0 0 0 0 0 0 0 
0 0 0 0 0 0 0 0 0 
0 0 0 0 0 0 0 0 0 
0 0 0 0 0 0 0 0 0 
0 0 0 0 0 0 0 0 0 
0 0 0 0 0 0 0 0 0 
0 0 0 0 0 0 0 0 0 
0 0 0 0 0 0 0 1 0 
0 0 0 0 0 0 0 0 0 
0 0 0 0 0 0 0 0 0 
0 0 0 0 0 0 0 0 0 
0 0 0 0 0 0 0 0 0 
0 0 0 0 0 0 0 0 0 
0 0 0 0 0 0 0 0 0 
0 0 0 0 0 0 0 0 0 
0 0 0 0 0 0 0 0 0 
0 0 0 0 0 0 0 0 0 
0 0 0 0 0 0 0 0 0 
0 0 0 0 0 0 0 0 0 
0 0 0 0 0 0 0 0 0 
0 0 0 0 0 0 0 0 0 
0 0 0 0 0 0 0 0 0 
0 0 0 0 0 0 0 0 0 
0 0 0 0 0 0 0 0 0 
0 0 0 0 0 0 0 0 0 
0 0 0 0 0 0 0 0 0 
0 0 0 0 0 0 0 0 0 
0 0 0 0 0 0 0 0 0 
0 0 0 0 0 0 0 0 0 
0 0 0 0 0 0 0 0 0 
0 0 0 0 0 0 0 0 0 
0 0 0 0 0 0 0 0 0 
0 0 0 -1 0 0 0 0 0 
0 0 0 0 0 0 0 0 0 
0 0 0 0 0 0 0 0 0 
0 0 0 0 0 0 0 0 0 
0 0 0 0 0 0 0 0 0 
0 0 0 0 0 0 0 0 0 
0 0 0 0 0 0 0 0 0 
0 0 0 0 0 0 0 0 0 
0 0 0 0 0 0 0 0 0 
0 0 0 0 0 0 0 0 0 
0 0 0 0 0 0 0 0 0 
0 0 0 0 0 0 0 0 0 
0 0 0 0 0 0 0 0 0 