# vtk DataFile Version 4.0
Generated by LIGGGHTS
ASCII
DATASET POLYDATA
POINTS 2000 float
-87.6567 -92.7875 9.99519 -95.4031 -113.324 9.99973 -106.13 -130.838 9.99777 
-117.152 -114.151 9.99819 -127.253 -132.005 9.99973 -107.252 -96.7767 9.999 
-116.566 -126.55 26.5097 -109.523 -107.887 28.0092 -132.908 -115.397 22.2485 
-118.678 -90.3455 25.0991 -92.5173 -117.951 31.0956 -56.5771 -101.945 9.99568 
-30.3822 -123.217 9.99839 -75.6784 -108.801 9.99965 -66.3526 -138.875 9.99723 
-79.5862 -126.497 18.4569 -37.6342 -105.364 15.4228 -60.6444 -120.627 15.8586 
-46.9002 -134.415 11.2856 -58.4782 -140.381 29.9602 -38.3503 -138.622 28.869 
-34.0477 -86.699 21.6597 -50.3139 -122.286 32.9034 -2.69182 -104.669 9.99802 
1.83438 -139.052 9.99788 17.1661 -102.101 9.99966 -20.761 -96.098 9.9993 
9.44813 -120.56 10.0144 -10.3852 -123.142 9.99499 8.35709 -130.998 27.1003 
19.1103 -91.0597 26.5617 -0.678042 -90.2967 23.7555 21.9992 -113.7 25.5601 
25.2032 -131.144 16.3144 41.8425 -96.8403 22.0676 55.3493 -127.761 9.9957 
39.9454 -112.675 9.99915 61.4874 -108.193 9.99973 51.8038 -84.3596 9.99976 
41.6213 -119.22 28.8228 81.0974 -101.755 9.99973 138.311 -96.9227 17.5 
117.636 -127.951 9.9946 132.455 -114.522 9.99651 99.2711 -92.2775 9.99951 
93.9587 -124.476 9.99973 118.798 -93.8167 14.1549 136.7 -130.993 20.5126 
108.047 -110.288 10.531 93.1328 -100.965 26.9357 130.852 -110.979 29.6106 
106.838 -123.664 26.5511 119.449 -139.192 26.4292 111.536 -95.6251 32.7379 
-130.238 -84.1678 9.99718 -94.8732 -33.2376 14.6337 -112.234 -74.9654 9.99947 
-121.361 -56.9741 9.99913 -113.591 -38.5408 9.99903 -88.819 -72.6967 9.99976 
-101.859 -58.0725 14.2929 -99.7287 -83.5809 23.0133 -131.931 -68.5694 22.4009 
-132.516 -48.6719 24.3733 -114.205 -42.547 29.5831 -91.4131 -47.2163 28.5115 
-139.111 -84.3509 32.3672 -113.908 -63.3392 29.3617 -138.02 -35.9017 9.99952 
-94.369 -66.6477 32.2065 -84.2411 -49.633 9.99935 -31.2553 -67.1684 9.99975 
-49.8559 -82.9391 9.99965 -57.1233 -64.2639 9.99978 -74.9938 -63.4525 21.112 
-57.5782 -32.628 24.9966 -26.4677 -45.6243 9.99973 -18.1324 -54.3181 25.984 
11.4473 -56.4576 9.99973 -2.832 -41.652 9.99973 4.36163 -76.6039 9.99973 
25.5798 -81.9087 9.99759 -8.10832 -60.9553 9.99966 -14.4551 -33.032 24.0053 
-15.9932 -78.02 17.1036 24.5526 -65.8481 21.8675 7.83702 -73.2909 29.9358 
70.9175 -78.4724 9.9997 40.5992 -77.1903 25.5773 44.9539 -65.4136 9.99967 
50.744 -44.8017 9.99973 71.9508 -55.2491 9.99749 31.1971 -50.8466 9.99562 
71.9339 -40.4565 23.4556 40.3693 -54.8837 27.3027 59.1542 -61.0205 24.2387 
53.9133 -40.764 32.1184 63.1167 -27.171 9.99973 86.6 -82.2859 21.8147 
86.7208 -40.3112 9.99585 90.3429 -66.5906 9.99638 132.316 -79.3816 9.99794 
118.736 -58.542 9.9998 108.157 -74.9212 14.4484 115.305 -38.8348 9.99863 
138.719 -57.7393 9.99857 130.14 -43.9846 22.3808 124.318 -74.3955 27.6356 
-119.665 6.29345 9.99631 -105.138 -9.1167 9.99973 -122.087 -19.7442 9.99973 
-132.103 -3.62651 22.1093 -108.759 -12.8173 29.3179 -89.599 -18.5862 29.3172 
-111.043 15.52 25.5016 -84.8261 -16.5784 9.99942 -129.805 22.4005 24.7514 
-105.749 27.4078 9.99948 -124.083 -25.3331 32.24 -45.6232 5.37089 9.99324 
-28.7071 -5.56493 9.99973 -76.0902 13.8154 24.9943 -42.2027 -1.38337 28.4981 
-38.8333 24.9175 9.99973 -27.9858 21.5583 27.0505 -26.6122 -25.5461 9.99964 
22.6132 -25.108 32.0977 -5.10042 -21.7652 10.0004 -21.0711 13.7219 10 
-8.87661 -2.12618 9.999 2.38139 2.73975 25.797 8.15266 13.5221 9.98883 
21.2781 9.32128 25.9537 27.1153 19.868 9.99702 36.4713 1.59772 9.99973 
50.3585 16.1049 9.99973 82.0749 -14.357 9.99686 61.5914 -0.942251 9.99362 
71.2449 17.8757 9.9993 38.0109 23.2962 26.4109 61.7369 19.4709 27.5216 
39.5613 5.36169 35.1167 140.209 -16.2525 9.99876 87.4547 13.3084 20.7885 
100.291 -25.6227 9.99879 138.218 7.18404 9.99808 103.779 17.9691 9.99973 
96.7366 -0.753007 9.99974 139.554 27.1424 9.99888 122.52 -21.7688 17.5284 
119.732 -3.45418 9.99332 105.963 -12.1309 23.6271 -89.2746 66.4332 9.99725 
-111.527 59.8502 9.99929 -127.417 40.3857 10.0013 -136.602 79.1433 30.1301 
-129.346 63.2806 18.4078 -98.2222 45.4844 14.0685 -115.872 40.7474 26.3259 
-130.614 81.3829 9.99974 -140.77 39.7295 25.4563 -78.6423 45.366 9.99779 
-36.1154 69.4431 24.9944 -67.1195 63.2414 9.99575 -53.9105 39.3387 9.99973 
-64.6933 49.0256 23.851 -72.2589 74.7605 25.514 -83.9856 47.7798 29.1188 
20.1211 81.5385 9.99922 -5.16953 62.9365 9.99864 -24.0229 39.8029 9.99973 
8.64804 70.7478 22.3248 21.5687 54.9174 9.99924 2.03008 38.3656 33.8578 
-6.67498 82.8778 9.99879 26.5168 80.4003 28.914 31.6272 59.5028 26.666 
40.9671 34.3375 9.99942 64.1758 37.5139 9.99341 62.5346 63.055 9.9997 
39.4279 73.4244 9.99973 80.8645 48.8633 9.99992 77.3775 31.9205 26.9122 
52.4422 37.1336 26.1751 44.9182 53.8276 12.1227 80.6778 71.477 9.99987 
68.4906 49.7953 25.6845 50.6151 56.175 31.9962 120.339 32.6898 9.99287 
87.9012 30.1422 9.99902 119.727 59.329 9.99234 105.112 72.9768 9.99941 
103.765 43.8831 9.99917 138.367 52.0883 9.99745 95.0109 58.881 19.9761 
118.976 46.1331 24.9926 92.2274 83.1623 21.4042 116.083 69.8344 26.6111 
132.737 73.3723 15.7685 96.9888 35.8418 27.0106 -89.3742 140.248 9.99788 
-111.88 88.3839 9.99243 -114.09 120.56 25.0427 -139.15 96.5359 20.5911 
-87.5466 103.384 10.0365 -77.1752 136.187 25.3131 -76.7775 86.5348 9.99676 
-57.7041 92.5449 9.9964 -45.231 108.178 10.0003 -79.0619 122.1 9.99973 
-49.3297 127.752 10.0696 -31.9296 104.191 24.8633 -29.8381 136.815 9.99973 
-34.0248 123.894 27.5845 -27.1294 116.68 9.99935 -16.4585 137.847 25.2087 
19.7498 132.145 9.99891 -9.81695 126.692 9.99762 -2.66257 107.919 9.99973 
7.14549 90.695 22.1565 17.412 107.529 9.99973 4.70628 128.586 23.6145 
-15.167 116.377 26.2748 26.1889 101.331 27.6256 25.674 132.685 29.0922 
-13.4701 96.7783 22.6715 7.9923 109.547 28.7754 34.7747 97.4057 9.99547 
66.293 134.977 9.99629 37.573 117.234 9.99353 58.214 116.471 9.99973 
40.9768 140.308 9.99879 80.4444 119.695 9.99921 68.6591 122.983 25.8192 
51.0225 132.404 25.3787 59.943 89.8859 33.1182 38.5862 117.43 29.9588 
86.9607 138.777 9.99973 126.624 91.5167 9.99765 85.0725 99.2825 9.99973 
117.176 109.141 9.99495 139.421 134.22 9.99505 110.987 135.181 9.99621 
105.395 92.9824 9.99931 137.316 112.572 9.99869 100.073 118.806 13.7276 
124.882 124.704 19.9068 88.3486 123.3 29.2912 -134.75 -103.072 37.8873 
-103.111 -132.043 40.539 -128.258 -125.559 42.7041 -111.312 -114.878 46.7027 
-87.9308 -123 49.9079 -87.3493 -137.691 63.4694 -104.082 -126.94 61.0252 
-124.046 -127.194 62.1866 -131.574 -111.234 71.5978 -92.5744 -108.245 62.5829 
-128.074 -99.2799 87.3328 -140.328 -114.163 53.8586 -73.6226 -129.146 37.3606 
-70.6035 -92.2266 40.5484 -43.5421 -99.3098 61.5843 -70.988 -123.952 60.5006 
-59.7336 -89.5641 73.7099 -53.0384 -119.99 52.621 -43.4329 -137.124 48.8609 
-28.4784 -102.206 74.4286 -59.1815 -109.539 68.7428 -53.9722 -128.103 74.1037 
-35.2069 -121.366 72.4254 -80.4713 -96.6751 73.827 -73.7203 -133.9 77.6355 
-63.1745 -139.686 50.7644 -66.778 -104.004 86.427 -17.8228 -114.015 42.949 
16.0079 -104.511 42.2829 13.2462 -125.723 54.0343 3.51537 -119.126 70.2122 
-3.5784 -139.783 61.8671 -11.0952 -93.2159 70.2789 24.5938 -131.834 38.7442 
8.80604 -94.3445 71.8764 -14.0577 -127.927 74.8395 23.0912 -94.189 57.8831 
8.32836 -137.032 77.6989 20.1439 -109.539 78.2394 25.7997 -128.237 73.5415 
27.8113 -113.482 60.1928 26.9732 -91.1035 81.9481 2.98237 -85.8951 44.6849 
73.9144 -127.306 39.6571 40.187 -123.723 48.2819 54.7086 -113.871 65.6488 
38.5843 -104.29 41.7789 81.2122 -112.222 70.3846 41.8031 -136.554 63.533 
39.8642 -101.458 70.698 60.0946 -134.884 71.4717 44.2356 -127.639 81.2644 
79.4324 -131.601 75.3658 104.427 -117.554 53.7554 135.76 -133.968 40.2674 
122.758 -111.624 47.8829 116.481 -130.216 44.0437 129.67 -93.1637 44.5153 
102.768 -137.294 56.7605 94.1044 -86.1703 40.3588 109.947 -98.4374 55.7442 
90.1438 -101.159 56.3211 121.48 -132.698 63.242 132.666 -98.9462 63.4264 
97.6642 -124.49 71.2501 139.618 -128.007 70.2414 98.2917 -85.5137 65.7405 
132.82 -108.961 80.8219 113.727 -100.537 82.0102 118.634 -113.263 67.3811 
122.095 -126.275 82.1656 94.1834 -104.514 83.5149 -116.01 -82.4879 59.0981 
-125.383 -53.1061 42.5242 -85.386 -65.3975 57.4768 -101.659 -34.6474 61.2869 
-129.51 -52.9409 72.1239 -94.6216 -63.715 79.4723 -140.885 -35.2925 36.6613 
-92.7713 -83.4521 85.2522 -78.7019 -76.7395 72.5318 -76.1525 -57.2492 41.5451 
-68.0562 -43.2642 56.6513 -64.7558 -62.8824 58.706 -51.4916 -42.2096 67.8063 
-76.8824 -56.7657 73.3867 -58.4054 -68.3264 76.8724 -30.138 -67.4204 56.255 
-69.9935 -38.1892 76.1175 -30.833 -36.9037 73.3777 -44.4966 -82.3468 84.4665 
-46.2801 -53.0255 83.8005 -41.5642 -29.5148 55.9621 -27.5838 -35.2029 42.8391 
1.49738 -55.464 36.4081 -7.92708 -38.8342 42.2828 18.2493 -60.7254 66.9104 
-13.3846 -37.1435 61.4985 4.3963 -32.0474 81.6867 4.75012 -28.7282 61.9722 
28.8004 -83.1339 42.1585 46.8133 -37.7075 54.0181 61.9695 -80.6494 53.0761 
66.6217 -46.6076 46.4107 79.7125 -48.6874 67.8755 59.909 -47.8701 65.2056 
67.5045 -42.7095 82.9707 47.2294 -46.6541 80.6231 54.5316 -29.8409 71.9888 
58.8196 -62.777 83.0029 77.656 -68.9683 85.6119 92.0352 -82.8271 84.5446 
140.791 -82.4959 83.3875 100.635 -51.7824 39.9884 117.017 -79.9916 52.6577 
136.218 -54.9643 37.9509 134.723 -72.9246 46.617 110.276 -69.7348 68.4423 
131.91 -78.3562 65.9002 89.4651 -66.6828 69.6262 129.765 -59.694 72.7619 
119.826 -81.458 81.5323 93.1579 -35.1279 73.8226 -99.0338 -4.06572 44.4577 
-135.512 -10.2209 40.6757 -109.999 22.0835 44.3648 -120.05 1.95392 37.1131 
-112.298 1.90211 58.1849 -110.41 20.6969 65.1571 -93.4429 17.0978 55.2068 
-132.223 3.48447 57.5047 -105.619 5.49647 77.2374 -126.958 13.6932 73.9322 
-91.6891 -1.15326 63.1949 -120.242 -7.75594 73.7929 -88.0299 8.40456 86.3652 
-103.032 -11.4806 87.4854 -139.847 27.9742 79.3974 -121.158 -23.3979 88.0829 
-84.6838 -10.1538 79.6394 -77.8094 -13.7772 46.4492 -44.0444 18.004 38.4291 
-68.3694 0.607827 56.6391 -60.2387 18.8573 55.7842 -48.9897 6.31511 66.555 
[...]
POINT_DATA 2000
FIELD FieldData 7
id 1 2000 int
41 77 196 230 308 107 205 282 106 
55 438 53 85 259 296 439 157 275 
424 371 40 273 71 185 265 297 299 
410 440 172 95 351 336 437 49 33 
376 408 397 216 164 380 59 139 141 
29 30 379 335 434 394 283 247 47 
411 36 142 338 414 456 32 161 261 
453 80 276 381 245 114 425 171 112 
231 246 215 10 143 211 115 208 232 
365 48 243 45 167 75 300 149 113 
174 222 318 108 354 285 317 359 201 
200 117 252 262 286 314 395 334 274 
239 342 66 147 255 443 309 413 278 
238 405 50 345 20 220 187 46 225 
11 212 69 37 358 390 416 347 122 
123 197 264 430 315 204 219 298 256 
135 346 54 97 178 213 271 404 84 
199 320 400 234 450 152 444 99 362 
8 279 321 250 384 378 195 240 399 
186 111 12 169 73 133 131 132 389 
419 449 229 369 375 102 72 374 330 
253 34 154 221 266 173 352 366 58 
329 206 301 138 6 284 179 328 184 
224 168 311 455 295 385 90 88 78 
62 302 339 79 83 218 426 127 128 
294 433 341 110 227 396 421 429 251 
242 18 423 344 96 160 209 288 367 
370 452 116 198 203 244 343 442 166 
304 361 401 448 1864 1025 1285 272 223 
9 82 130 350 119 409 290 383 1007 
1904 1249 1749 292 1878 2 241 156 64 
76 210 263 1855 1873 364 1584 1941 1011 
418 327 293 22 144 165 382 323 332 
42 1715 1811 1945 137 51 125 445 81 
155 249 436 74 1428 1281 1934 720 1920 
856 700 1308 1665 1450 5 331 388 26 
307 552 183 1551 319 65 163 191 236 
1719 1793 23 1676 1730 903 642 415 422 
417 281 28 226 1366 402 39 392 14 
44 189 306 931 1603 118 89 1953 997 
1922 25 86 313 398 180 188 1317 1870 
1643 581 43 412 129 322 761 1508 303 
326 764 1565 176 1155 1520 1143 1112 739 
1819 151 162 68 158 214 257 121 368 
175 427 353 1211 864 874 1540 4 217 
357 202 94 190 349 120 1159 570 746 
104 1001 268 260 7 100 333 432 457 
70 63 1767 622 1389 454 153 386 291 
15 277 19 441 1015 1407 839 1908 3 
254 57 228 393 145 177 420 1046 1600 
1399 909 340 1956 712 1975 1460 93 1 
270 387 109 170 181 140 312 91 1163 
1404 372 61 67 267 60 316 87 1652 
590 583 207 923 709 280 373 235 16 
194 148 789 1080 1406 431 1082 1951 1417 
377 182 310 103 233 337 35 258 356 
24 159 435 1430 1367 1124 1820 1194 852 
105 360 403 237 287 363 92 348 21 
1398 1517 1852 1685 324 1191 27 428 391 
56 98 1807 1893 1087 1716 1200 355 1283 
407 289 446 101 192 13 124 1869 1400 
1589 701 674 193 269 146 136 150 1883 
1995 771 817 1501 1706 1836 949 1815 1773 
1854 52 305 325 406 38 126 17 31 
447 134 248 967 1140 1618 1447 741 1424 
968 1761 1068 480 1694 1293 1726 784 954 
1929 1771 814 1334 1938 1195 484 1382 1176 
1178 1017 1220 541 1173 1999 1170 1982 1021 
948 1601 1452 1896 1534 1331 1838 668 907 
520 952 1262 1252 1865 1539 1071 1304 1712 
1337 553 1687 651 548 951 1634 1050 1156 
1542 654 1128 1988 1409 462 1105 1189 1728 
1757 1051 1474 838 1842 1561 1649 562 1537 
599 661 911 914 1147 1149 1459 866 1829 
479 753 946 1845 974 486 1527 1840 752 
573 1427 845 540 1206 1275 1683 1488 1656 
1543 718 1117 1342 1678 1781 489 878 995 
1045 1171 1578 1013 1994 1077 1866 833 889 
626 1586 875 1130 621 906 1799 1284 1213 
757 793 1894 1421 533 1725 985 1566 640 
1874 1203 1861 602 652 1365 644 1225 1234 
1415 779 862 1373 666 1167 960 723 912 
1042 1328 938 1673 806 495 1729 1480 1444 
521 574 854 658 1442 842 861 1419 1034 
1628 1099 1736 1738 1129 1465 1324 915 1756 
1677 532 754 1063 1190 1496 1947 1850 628 
1453 722 1270 1031 1696 1023 1066 1718 1563 
1881 698 799 1144 1554 1813 1208 451 466 
1340 1831 1271 1745 1401 1391 1572 467 471 
970 1937 594 1385 1912 1675 888 1119 1369 
1602 464 1579 1177 1341 1093 1102 474 580 
1468 1499 1769 506 1533 643 1412 1595 1928 
1414 1890 1959 608 1570 1362 470 597 1679 
1172 1074 919 798 1258 1529 1720 1743 965 
975 1803 1884 841 656 1416 1481 892 1040 
1791 1108 1653 566 853 564 1490 492 1647 
1620 1261 1052 1577 1458 837 934 673 1475 
1682 1606 660 729 962 1960 624 1470 1241 
1608 664 518 1131 1903 1326 966 1638 1858 
1441 1477 1636 759 1784 1070 1825 1552 1255 
1303 797 513 1355 1822 803 805 893 925 
728 1438 1092 936 964 1433 848 1931 1891 
1859 1830 1610 1844 535 1837 1267 1889 469 
1734 1887 810 531 1768 1268 1591 537 1201 
1979 1153 1525 885 1879 1073 1626 1892 1054 
1684 588 1919 991 488 1216 749 981 1037 
473 604 1503 671 630 876 1291 1965 1461 
508 1229 1231 1548 1098 461 475 832 1545 
1125 1104 2000 1387 1360 551 887 1827 522 
1667 1263 696 990 1702 1359 1804 1906 1058 
1911 1422 775 459 565 687 1169 1662 944 
1633 801 1483 1055 820 675 1209 1962 781 
1614 1089 1752 835 670 1462 1576 1980 1101 
1780 1060 1135 1120 969 1978 1582 1361 1487 
1094 487 1223 1121 751 1205 1059 1473 1823 
667 850 987 972 1661 1352 1663 1974 589 
616 496 1916 1254 1932 986 1860 539 807 
886 1936 1118 1084 1930 618 1100 686 1166 
1711 730 1026 1446 763 530 1018 1332 1772 
1004 1835 1616 1935 1622 601 493 755 692 
614 758 1343 1564 1796 1287 740 1966 515 
1495 865 1309 896 1532 1300 1550 1368 1222 
1187 788 498 809 894 935 1740 916 1788 
1632 1573 725 770 1507 1035 1264 1491 1558 
528 1036 1076 1467 1397 632 1707 830 1310 
1834 745 961 901 1197 1333 1569 1282 1494 
1846 1062 575 1064 1269 1504 994 688 1150 
607 999 1126 1318 569 1524 922 682 1770 
645 1049 1701 1863 924 1312 1948 1917 538 
953 1214 1114 895 1613 732 613 1575 1783 
1923 713 1056 511 1925 904 623 705 1775 
1910 523 1048 1371 503 1918 600 1138 1466 
1849 733 1109 1789 1963 802 1192 1247 1276 
1957 1228 1336 738 1808 1867 1972 525 557 
1250 627 641 572 655 790 1722 1764 1732 
1856 472 1204 1708 1219 1944 1809 1798 1041 
1952 561 1078 1196 1184 1741 1134 1043 491 
1418 942 1313 1992 1549 1083 1175 710 1629 
825 1420 800 1455 1897 1260 1666 567 1356 
1818 1370 1810 1290 648 1505 1029 478 1354 
647 1375 1053 1024 1964 1704 1942 1432 1590 
1165 1760 697 1440 547 1802 831 1376 502 
1344 992 1596 1983 1961 1069 678 1735 1670 
984 1383 1379 1514 545 920 988 1358 1047 
1500 1489 1492 1226 646 1724 818 959 1245 
1664 1122 794 1295 1557 1160 499 1607 704 
769 595 1650 1991 1181 1754 529 1585 1009 
1237 736 685 787 867 1357 1790 1251 1350 
1434 1088 1235 1547 1828 1853 620 596 1993 
483 1090 822 519 1139 1660 1939 708 1814 
1571 509 1672 1598 1246 1067 1030 1377 1695 
689 1973 1439 1242 1289 526 1674 1469 1061 
1604 1006 679 681 649 1107 1668 1476 1839 
742 868 796 1210 869 1327 1833 485 1085 
476 611 871 774 917 1546 1297 1623 571 
650 1901 1454 1792 1394 902 1805 1699 1877 
510 1457 1705 603 1142 1739 680 1345 1445 
780 1568 918 870 1116 1512 743 1179 1513 
1152 703 955 468 1431 1392 1915 693 1277 
482 765 1778 945 971 1232 1876 1113 1133 
1516 1273 1968 1642 1703 829 1522 1907 1832 
908 1425 1493 993 1857 546 1363 1065 1958 
1307 1426 1146 1305 1151 777 695 1174 1559 
1940 750 819 1511 1841 558 1224 1396 1746 
1744 1977 836 1348 559 1106 760 1556 631 
1594 1976 1502 1882 1755 1010 1593 1581 677 
1530 1515 1617 1615 1619 1039 1742 910 881 
1969 929 1448 612 744 1580 1000 827 1555 
1926 534 795 657 1353 1821 1429 1812 579 
1646 1921 851 1123 694 824 1478 615 1286 
1510 549 1136 1541 563 578 762 1240 1311 
863 1700 1574 1338 1801 690 1185 1875 1753 
767 1885 1762 699 1148 1390 956 1339 1641 
1967 1028 1899 517 1137 939 1464 973 463 
1079 731 1230 860 1280 1378 1627 1713 1905 
1091 950 1198 847 858 737 941 1782 1322 
1132 1288 785 921 1016 1669 1909 555 1717 
1737 1871 481 958 927 873 1330 1193 1692 
1265 1072 592 928 1095 1408 1611 899 1274 
1996 1012 1472 577 505 1374 1886 724 998 
1306 1168 1509 524 1597 1182 1686 1721 1014 
1393 1008 1950 1315 1759 653 1949 1162 1022 
1637 1239 1723 1955 637 812 1862 1236 1544 
554 634 976 560 857 1278 1795 1800 1588 
977 926 1329 1227 1335 1970 840 1787 1321 
591 576 1645 1521 1592 1847 1851 1221 1141 
1212 1583 1671 719 811 747 1005 1302 1411 
584 663 1256 1161 662 846 1215 1691 804 
937 1158 707 1238 1044 843 1654 1380 715 
514 1057 1325 1587 772 1531 1482 1630 1794 
1266 1651 586 516 815 855 1032 1680 1697 
1777 890 773 1635 1164 1299 933 702 877 
808 1621 1690 963 1279 1436 672 568 1817 
536 1364 1451 1003 786 542 1763 605 1347 
1301 1927 880 1560 1110 500 507 1898 1259 
1747 1824 1316 717 1423 816 766 556 716 
879 1111 721 898 1727 826 1388 900 1449 
1751 756 947 1924 1506 1435 735 1183 1826 
1372 1127 1086 587 980 1207 665 1298 1933 
1097 1689 1497 1797 1253 1154 905 1990 1880 
891 1776 834 512 1405 1693 1395 1027 1848 
1538 1486 1640 1320 734 748 544 1351 821 
1188 669 477 791 1314 1485 1038 1987 638 
619 1019 1218 1766 768 1523 828 504 1386 
711 978 1599 1758 776 1888 1989 982 1413 
610 1471 1033 943 1748 1456 617 1688 1519 
458 1985 1096 1681 1943 606 783 996 683 
1986 1868 1914 490 1954 957 1463 593 598 
1403 1257 1655 1381 813 1639 1624 1075 714 
1410 635 625 1292 1733 1157 706 1843 1997 
989 527 1971 1498 1609 1714 897 1272 1081 
1816 1402 636 543 1296 1946 1562 659 1984 
1115 1786 1443 1998 501 1648 1346 1553 1233 
849 1349 884 859 585 1526 1186 940 1103 
882 497 1709 778 609 1605 1145 582 844 
1731 1020 1528 983 1323 1981 1658 1484 1319 
1002 1243 1657 1698 1437 1202 930 465 932 
1384 1785 913 494 1631 792 1248 1180 1294 
1872 1612 1518 1479 1895 633 823 883 1625 
1659 1913 1536 872 1644 1779 1806 1535 1244 
782 1217 1902 629 1765 979 684 1750 727 
1199 460 639 550 691 676 1710 1900 1774 
726 1567 
type 1 2000 int
1 1 1 1 1 1 1 1 1 
1 1 1 1 1 1 1 1 1 
1 1 1 1 1 1 1 1 1 
1 1 1 1 1 1 1 1 1 
1 1 1 1 1 1 1 1 1 
1 1 1 1 1 1 1 1 1 
1 1 1 1 1 1 1 1 1 
1 1 1 1 1 1 1 1 1 
1 1 1 1 1 1 1 1 1 
1 1 1 1 1 1 1 1 1 
1 1 1 1 1 1 1 1 1 
1 1 1 1 1 1 1 1 1 
1 1 1 1 1 1 1 1 1 
1 1 1 1 1 1 1 1 1 
1 1 1 1 1 1 1 1 1 
1 1 1 1 1 1 1 1 1 
1 1 1 1 1 1 1 1 1 
1 1 1 1 1 1 1 1 1 
1 1 1 1 1 1 1 1 1 
1 1 1 1 1 1 1 1 1 
1 1 1 1 1 1 1 1 1 
1 1 1 1 1 1 1 1 1 
1 1 1 1 1 1 1 1 1 
1 1 1 1 1 1 1 1 1 
1 1 1 1 1 1 1 1 1 
1 1 1 1 1 1 1 1 1 
1 1 1 1 1 1 1 1 1 
1 1 1 1 1 1 1 1 1 
1 1 1 1 1 1 1 1 1 
1 1 1 1 1 1 1 1 1 
1 1 1 1 1 1 1 1 1 
1 1 1 1 1 1 1 1 1 
1 1 1 1 1 1 1 1 1 
1 1 1 1 1 1 1 1 1 
1 1 1 1 1 1 1 1 1 
1 1 1 1 1 1 1 1 1 
1 1 1 1 1 1 1 1 1 
1 1 1 1 1 1 1 1 1 
1 1 1 1 1 1 1 1 1 
1 1 1 1 1 1 1 1 1 
1 1 1 1 1 1 1 1 1 
1 1 1 1 1 1 1 1 1 
1 1 1 1 1 1 1 1 1 
1 1 1 1 1 1 1 1 1 
1 1 1 1 1 1 1 1 1 
1 1 1 1 1 1 1 1 1 
1 1 1 1 1 1 1 1 1 
1 1 1 1 1 1 1 1 1 
1 1 1 1 1 1 1 1 1 
1 1 1 1 1 1 1 1 1 
1 1 1 1 1 1 1 1 1 
1 1 1 1 1 1 1 1 1 
1 1 1 1 1 1 1 1 1 
1 1 1 1 1 1 1 1 1 
1 1 1 1 1 1 1 1 1 
1 1 1 1 1 1 1 1 1 
1 1 1 1 1 1 1 1 1 
1 1 1 1 1 1 1 1 1 
1 1 1 1 1 1 1 1 1 
1 1 1 1 1 1 1 1 1 
1 1 1 1 1 1 1 1 1 
1 1 1 1 1 1 1 1 1 
1 1 1 1 1 1 1 1 1 
1 1 1 1 1 1 1 1 1 
1 1 1 1 1 1 1 1 1 
1 1 1 1 1 1 1 1 1 
1 1 1 1 1 1 1 1 1 
1 1 1 1 1 1 1 1 1 
1 1 1 1 1 1 1 1 1 
1 1 1 1 1 1 1 1 1 
1 1 1 1 1 1 1 1 1 
1 1 1 1 1 1 1 1 1 
1 1 1 1 1 1 1 1 1 
1 1 1 1 1 1 1 1 1 
1 1 1 1 1 1 1 1 1 
1 1 1 1 1 1 1 1 1 
1 1 1 1 1 1 1 1 1 
1 1 1 1 1 1 1 1 1 
1 1 1 1 1 1 1 1 1 
1 1 1 1 1 1 1 1 1 
1 1 1 1 1 1 1 1 1 
1 1 1 1 1 1 1 1 1 
1 1 1 1 1 1 1 1 1 
1 1 1 1 1 1 1 1 1 
1 1 1 1 1 1 1 1 1 
1 1 1 1 1 1 1 1 1 
1 1 1 1 1 1 1 1 1 
1 1 1 1 1 1 1 1 1 
1 1 1 1 1 1 1 1 1 
1 1 1 1 1 1 1 1 1 
1 1 1 1 1 1 1 1 1 
1 1 1 1 1 1 1 1 1 
1 1 1 1 1 1 1 1 1 
1 1 1 1 1 1 1 1 1 
1 1 1 1 1 1 1 1 1 
1 1 1 1 1 1 1 1 1 
1 1 1 1 1 1 1 1 1 
1 1 1 1 1 1 1 1 1 
1 1 1 1 1 1 1 1 1 
1 1 1 1 1 1 1 1 1 
1 1 1 1 1 1 1 1 1 
1 1 1 1 1 1 1 1 1 
1 1 1 1 1 1 1 1 1 
1 1 1 1 1 1 1 1 1 
1 1 1 1 1 1 1 1 1 
1 1 1 1 1 1 1 1 1 
1 1 1 1 1 1 1 1 1 
1 1 1 1 1 1 1 1 1 
1 1 1 1 1 1 1 1 1 
1 1 1 1 1 1 1 1 1 
1 1 1 1 1 1 1 1 1 
1 1 1 1 1 1 1 1 1 
1 1 1 1 1 1 1 1 1 
1 1 1 1 1 1 1 1 1 
1 1 1 1 1 1 1 1 1 
1 1 1 1 1 1 1 1 1 
1 1 1 1 1 1 1 1 1 
1 1 1 1 1 1 1 1 1 
1 1 1 1 1 1 1 1 1 
1 1 1 1 1 1 1 1 1 
1 1 1 1 1 1 1 1 1 
1 1 1 1 1 1 1 1 1 
1 1 1 1 1 1 1 1 1 
1 1 1 1 1 1 1 1 1 
1 1 1 1 1 1 1 1 1 
1 1 1 1 1 1 1 1 1 
1 1 1 1 1 1 1 1 1 
1 1 1 1 1 1 1 1 1 
1 1 1 1 1 1 1 1 1 
1 1 1 1 1 1 1 1 1 
1 1 1 1 1 1 1 1 1 
1 1 1 1 1 1 1 1 1 
1 1 1 1 1 1 1 1 1 
1 1 1 1 1 1 1 1 1 
1 1 1 1 1 1 1 1 1 
1 1 1 1 1 1 1 1 1 
1 1 1 1 1 1 1 1 1 
1 1 1 1 1 1 1 1 1 
1 1 1 1 1 1 1 1 1 
1 1 1 1 1 1 1 1 1 
1 1 1 1 1 1 1 1 1 
1 1 1 1 1 1 1 1 1 
1 1 1 1 1 1 1 1 1 
1 1 1 1 1 1 1 1 1 
1 1 1 1 1 1 1 1 1 
1 1 1 1 1 1 1 1 1 
1 1 1 1 1 1 1 1 1 
1 1 1 1 1 1 1 1 1 
1 1 1 1 1 1 1 1 1 
1 1 1 1 1 1 1 1 1 
1 1 1 1 1 1 1 1 1 
1 1 1 1 1 1 1 1 1 
1 1 1 1 1 1 1 1 1 
1 1 1 1 1 1 1 1 1 
1 1 1 1 1 1 1 1 1 
1 1 1 1 1 1 1 1 1 
1 1 1 1 1 1 1 1 1 
1 1 1 1 1 1 1 1 1 
1 1 1 1 1 1 1 1 1 
1 1 1 1 1 1 1 1 1 
1 1 1 1 1 1 1 1 1 
1 1 1 1 1 1 1 1 1 
1 1 1 1 1 1 1 1 1 
1 1 1 1 1 1 1 1 1 
1 1 1 1 1 1 1 1 1 
1 1 1 1 1 1 1 1 1 
1 1 1 1 1 1 1 1 1 
1 1 1 1 1 1 1 1 1 
1 1 1 1 1 1 1 1 1 
1 1 1 1 1 1 1 1 1 
1 1 1 1 1 1 1 1 1 
1 1 1 1 1 1 1 1 1 
1 1 1 1 1 1 1 1 1 
1 1 1 1 1 1 1 1 1 
1 1 1 1 1 1 1 1 1 
1 1 1 1 1 1 1 1 1 
1 1 1 1 1 1 1 1 1 
1 1 1 1 1 1 1 1 1 
1 1 1 1 1 1 1 1 1 
1 1 1 1 1 1 1 1 1 
1 1 1 1 1 1 1 1 1 
1 1 1 1 1 1 1 1 1 
1 1 1 1 1 1 1 1 1 
1 1 1 1 1 1 1 1 1 
1 1 1 1 1 1 1 1 1 
1 1 1 1 1 1 1 1 1 
1 1 1 1 1 1 1 1 1 
1 1 1 1 1 1 1 1 1 
1 1 1 1 1 1 1 1 1 
1 1 1 1 1 1 1 1 1 
1 1 1 1 1 1 1 1 1 
1 1 1 1 1 1 1 1 1 
1 1 1 1 1 1 1 1 1 
1 1 1 1 1 1 1 1 1 
1 1 1 1 1 1 1 1 1 
1 1 1 1 1 1 1 1 1 
1 1 1 1 1 1 1 1 1 
1 1 1 1 1 1 1 1 1 
1 1 1 1 1 1 1 1 1 
1 1 1 1 1 1 1 1 1 
1 1 1 1 1 1 1 1 1 
1 1 1 1 1 1 1 1 1 
1 1 1 1 1 1 1 1 1 
1 1 1 1 1 1 1 1 1 
1 1 1 1 1 1 1 1 1 
1 1 1 1 1 1 1 1 1 
1 1 1 1 1 1 1 1 1 
1 1 1 1 1 1 1 1 1 
1 1 1 1 1 1 1 1 1 
1 1 1 1 1 1 1 1 1 
1 1 1 1 1 1 1 1 1 
1 1 1 1 1 1 1 1 1 
1 1 1 1 1 1 1 1 1 
1 1 1 1 1 1 1 1 1 
1 1 1 1 1 1 1 1 1 
1 1 1 1 1 1 1 1 1 
1 1 1 1 1 1 1 1 1 
1 1 1 1 1 1 1 1 1 
1 1 1 1 1 1 1 1 1 
1 1 1 1 1 1 1 1 1 
1 1 1 1 1 1 1 1 1 
1 1 1 1 1 1 1 1 1 
1 1 
i 3 2000 int
0 0 0 0 0 0 0 0 0 
0 0 0 0 0 0 0 0 0 
0 0 0 0 0 0 0 0 0 
0 0 0 0 0 0 0 0 0 
0 0 0 0 0 0 0 0 0 
0 0 0 0 0 0 0 0 0 
0 0 0 0 0 0 0 1 0 
0 0 0 0 0 0 0 0 0 
0 0 0 0 0 0 0 0 0 
0 0 0 0 0 0 0 0 0 
0 0 0 0 0 0 0 0 0 
0 0 0 0 0 0 0 0 0 
0 0 0 0 0 0 0 0 0 
0 0 0 0 0 0 -1 0 0 
0 0 0 0 0 0 0 0 0 
0 0 0 0 0 0 0 0 0 
0 0 0 0 0 0 0 0 0 
0 0 0 0 1 0 0 0 0 
0 0 0 0 0 0 0 0 0 
0 0 0 0 0 0 0 0 0 
0 0 0 0 0 0 0 0 0 
0 0 0 0 0 0 0 0 0 
0 0 0 0 0 0 0 0 0 
0 0 0 0 0 0 0 0 0 
0 0 0 0 0 0 0 0 0 
0 0 0 0 0 0 0 0 0 
0 0 0 0 0 0 0 0 0 
0 0 0 0 0 0 0 0 0 
0 0 0 0 0 0 0 0 0 
0 0 0 0 0 0 0 0 0 
0 0 0 0 0 0 0 0 0 
0 0 0 0 0 0 0 0 0 
0 0 0 0 0 0 0 0 0 
0 0 0 0 0 0 0 0 0 
0 0 0 0 0 0 0 0 0 
0 0 0 0 0 0 0 0 0 
0 0 0 0 0 0 0 0 0 
0 0 0 0 0 0 0 0 0 
0 0 0 0 0 0 0 0 0 
0 0 0 0 0 0 0 0 0 
0 0 0 0 0 0 0 0 0 
0 0 0 0 0 0 0 0 0 
0 0 0 0 0 0 0 0 0 
0 0 0 0 0 0 0 0 0 
0 0 0 0 0 0 0 0 0 
0 0 0 0 0 0 0 0 0 
0 0 0 0 0 0 0 0 0 
0 0 0 0 0 0 0 0 0 
0 0 0 -1 0 0 0 0 0 
0 0 0 0 0 0 0 0 0 
0 0 0 0 0 0 0 0 0 
0 0 0 0 0 0 0 0 0 
0 0 0 0 0 0 0 0 0 
0 0 0 0 0 0 0 0 0 
0 0 0 0 0 0 0 0 0 
0 0 0 0 0 0 0 0 0 
0 0 0 0 0 0 0 0 0 
0 0 0 0 0 0 0 0 0 
0 0 0 0 0 0 0 0 0 
0 0 0 0 0 0 0 0 0 
0 0 0 0 0 0 0 0 0 
0 0 0 0 0 0 0 0 0 
0 0 0 0 0 0 0 0 0 
0 0 0 0 0 0 0 0 0 
0 0 0 0 0 0 0 0 0 
0 0 0 0 0 0 0 0 0 
0 0 0 0 0 0 0 -1 0 
0 0 0 0 0 0 1 0 0 
0 0 0 0 -1 0 0 0 0 
0 0 0 0 0 0 0 0 0 
0 0 0 0 0 0 0 0 0 
0 0 0 0 0 0 0 0 0 
0 0 0 0 0 0 0 0 0 
0 0 0 0 0 0 0 0 0 
0 0 0 0 0 0 0 0 0 
0 0 0 0 0 0 0 0 0 
0 0 0 0 0 0 0 0 0 
0 0 0 0 0 0 0 0 0 
0 0 0 0 0 0 0 0 0 
0 0 0 0 0 0 0 0 0 
0 0 0 0 0 0 0 0 0 
0 0 0 0 0 0 0 0 0 
0 0 0 0 0 0 0 0 0 
0 0 0 0 0 0 0 0 0 
0 0 0 0 0 0 0 0 0 
0 0 0 0 0 0 0 0 0 
0 0 0 1 0 0 0 0 0 
0 0 0 0 0 0 0 0 0 
0 0 0 0 0 0 0 0 0 
0 0 0 0 0 0 0 0 0 
0 0 0 0 0 0 0 0 0 
0 1 0 0 0 0 0 0 0 
0 0 0 0 0 0 0 0 0 
0 0 0 0 0 0 0 0 0 
0 0 0 0 0 0 0 0 0 
0 0 0 0 0 0 0 0 0 
0 0 0 0 0 0 0 0 0 
0 0 0 0 0 0 0 0 0 
0 0 0 0 0 0 0 0 0 
0 0 0 0 0 0 0 0 0 
0 0 0 0 0 0 0 0 0 
0 0 0 0 0 0 0 0 0 
0 0 0 0 0 0 0 0 0 
0 0 0 0 0 0 0 0 0 
0 0 0 0 0 0 0 0 0 
-1 0 0 0 0 0 0 0 0 
0 0 0 0 0 0 0 0 0 
0 0 0 0 0 0 0 0 0 
0 0 0 0 0 0 1 0 0 
0 0 0 0 0 0 0 0 0 
0 0 0 0 0 0 0 0 0 
0 0 0 0 0 0 0 0 0 
0 0 0 0 0 0 0 0 0 
0 0 0 0 0 0 0 0 0 
0 0 0 0 0 0 0 0 0 
0 0 0 0 0 0 0 0 0 
0 0 0 0 0 0 0 0 0 
0 0 0 0 0 0 0 0 0 
0 0 0 0 0 0 0 0 0 
0 0 0 0 0 0 0 0 0 
-1 0 0 0 0 0 0 0 0 
0 0 0 0 0 0 0 0 0 
0 0 0 0 0 0 0 0 0 
0 0 0 0 0 0 0 0 0 
1 0 0 0 0 0 0 0 0 
0 0 0 0 0 0 0 0 0 
1 0 0 0 0 0 0 0 0 
0 0 0 0 0 0 0 0 0 
0 0 0 1 0 0 0 0 0 
0 0 0 0 0 0 0 0 0 
0 0 0 0 0 0 0 0 0 
0 0 0 0 0 0 0 0 0 
0 0 0 0 0 0 0 0 0 
0 0 0 0 0 0 0 0 0 
0 0 0 0 0 0 0 0 0 
0 0 0 0 0 0 0 0 0 
0 0 0 0 0 0 0 0 0 
0 0 0 0 0 0 0 0 0 
0 0 0 0 0 0 0 0 0 
0 0 0 0 0 0 0 0 0 
0 0 0 0 0 0 0 0 0 
0 0 0 0 0 0 0 0 0 
0 0 0 0 0 0 0 0 0 
0 0 0 0 0 0 0 0 0 
0 0 0 0 0 0 0 0 0 
0 0 0 0 0 0 0 0 0 
0 0 0 0 0 0 0 0 0 
0 0 0 0 0 0 0 0 0 
0 0 0 0 0 0 0 0 0 
0 0 0 0 0 0 0 0 0 
0 0 0 0 0 0 1 0 0 
0 0 0 0 0 0 1 0 0 
0 0 0 0 0 0 0 0 0 
0 0 0 0 0 0 0 0 0 
0 0 0 0 0 0 0 0 0 
0 0 0 0 0 0 0 0 0 
0 0 0 0 0 0 0 0 0 
0 0 0 0 0 0 0 0 0 
0 0 0 0 0 0 0 0 0 
0 0 0 0 0 0 0 0 0 
0 0 0 0 0 0 0 0 0 
0 0 0 0 0 0 0 0 0 
0 0 0 0 0 0 0 0 0 
0 0 0 0 0 0 0 0 0 
0 0 0 0 0 0 0 0 0 
-1 0 0 0 0 0 0 0 0 
0 0 0 0 0 0 0 0 0 
0 0 0 0 0 0 0 0 0 
0 0 0 0 0 0 0 0 0 
0 0 0 0 0 0 0 0 0 
0 -1 0 0 0 0 0 -1 0 
0 0 0 0 0 0 0 0 0 
0 0 0 0 0 0 0 0 0 
0 0 0 0 0 0 0 0 0 
0 0 0 0 0 0 0 0 0 
0 0 0 0 0 0 0 -1 0 
0 0 0 0 0 0 0 0 0 
0 0 0 0 0 0 0 0 0 
0 0 0 0 0 0 0 -1 0 
0 0 0 0 -1 0 0 0 0 
0 0 0 0 -1 0 0 0 0 
0 0 0 0 0 0 0 0 0 
0 0 0 0 0 0 0 0 0 
0 0 0 0 0 0 0 0 0 
0 0 0 0 -1 0 0 0 0 
0 0 0 0 0 0 0 0 0 
0 0 0 0 0 0 0 0 0 
0 0 0 0 0 0 0 0 0 
0 0 0 0 0 0 0 0 0 
0 -1 0 0 0 0 0 0 0 
0 0 0 -1 0 0 0 -1 0 
-1 0 0 0 0 0 0 0 0 
0 0 0 0 0 0 0 0 0 
0 0 0 0 0 0 0 0 0 
0 0 0 0 0 0 0 0 0 
0 0 0 0 0 0 0 0 0 
0 0 0 0 0 0 0 0 0 
0 0 0 0 0 0 0 0 0 
0 1 0 0 0 0 0 0 0 
0 1 0 0 0 0 0 0 0 
0 0 0 0 0 0 0 0 0 
0 0 0 0 0 0 0 0 0 
0 0 0 0 0 0 0 0 0 
0 0 0 0 0 0 0 0 0 
0 0 0 0 0 0 0 1 0 
0 0 0 0 0 0 0 0 0 
0 0 0 0 0 0 0 0 0 
0 0 0 0 0 0 0 0 0 
0 0 0 0 1 0 0 0 0 
0 0 0 0 1 0 0 0 0 
0 0 0 0 0 0 0 0 0 
0 0 0 0 0 0 0 0 0 
0 0 0 0 0 0 0 0 0 
0 0 0 0 0 0 0 0 0 
0 0 0 0 0 0 0 0 0 
0 0 0 0 0 0 0 0 0 
1 0 0 0 0 0 0 0 0 
0 0 0 0 0 0 0 0 0 
0 0 0 0 0 0 0 0 0 
0 0 0 0 0 0 0 0 0 
0 0 0 0 0 0 0 0 0 
0 0 0 0 0 0 0 0 0 
0 0 0 0 0 0 0 0 0 
0 0 0 0 0 0 0 0 0 
0 0 0 0 0 0 0 0 0 
0 0 0 0 0 0 0 0 0 
0 0 0 0 0 0 0 0 0 
0 0 0 0 0 0 0 0 0 
0 0 0 0 0 0 0 0 0 
0 0 0 0 0 0 -1 0 0 
0 0 0 0 0 0 0 0 0 
0 0 0 0 0 0 0 0 0 
0 0 0 0 0 0 0 0 0 
0 0 0 0 0 0 0 0 0 
0 0 0 0 0 0 0 0 0 
0 0 0 0 0 0 0 0 0 
0 0 0 0 0 0 0 0 0 
0 0 0 0 0 0 0 0 0 
0 0 0 0 0 0 0 0 0 
0 0 0 0 0 0 0 0 0 
0 0 0 0 0 0 0 0 0 
0 0 0 0 0 0 0 0 0 
0 0 0 0 0 0 0 0 0 
0 0 0 0 0 0 0 0 0 
0 0 0 0 0 0 0 0 0 
0 0 0 0 0 0 0 0 0 
0 0 0 0 0 0 0 0 0 
0 0 0 0 0 0 0 0 0 
0 0 0 0 0 0 0 0 0 
0 0 0 0 0 0 0 0 0 
-1 0 0 0 0 0 0 0 0 
0 0 0 0 0 0 0 0 0 
0 0 0 0 0 0 0 0 0 
0 0 0 0 0 0 0 0 0 
0 0 0 0 0 0 0 0 0 
0 0 0 0 0 0 0 0 0 
0 0 0 0 0 0 0 0 0 
1 0 0 0 0 0 0 0 0 
1 0 0 0 0 0 1 0 0 
0 0 0 0 0 0 0 0 0 
0 0 0 0 0 0 0 0 0 
0 0 0 0 0 0 0 0 0 
0 0 0 0 0 0 0 0 0 
0 0 0 0 0 0 0 0 0 
0 0 0 0 0 0 0 0 0 
0 0 0 0 0 0 0 0 0 
0 0 0 0 0 0 0 0 0 
0 0 0 0 0 0 0 0 0 
0 0 0 0 0 0 0 0 0 
0 0 0 0 0 0 0 0 0 
0 0 0 0 0 0 0 0 0 
0 0 0 0 0 0 0 0 0 
0 0 0 0 0 0 0 0 0 
0 0 0 0 0 0 0 0 0 
0 0 0 0 0 0 0 0 0 
0 0 0 0 0 0 0 0 0 
0 0 0 0 -1 0 0 0 0 
0 0 0 0 0 0 0 0 0 
0 0 0 0 0 0 0 0 0 
0 0 0 0 0 0 0 0 0 
0 0 0 0 -1 0 0 0 0 
0 0 0 0 0 0 0 0 0 
0 0 0 0 0 0 0 0 0 
0 0 0 0 0 0 0 0 0 
0 0 0 0 0 0 0 0 0 
0 0 0 0 0 0 0 0 0 
0 0 0 0 0 0 0 0 0 
0 0 0 0 0 0 0 0 0 
0 0 0 0 0 0 0 0 0 
0 0 0 0 0 0 0 -1 0 
0 0 0 0 0 0 -1 0 0 
0 0 0 0 0 0 0 0 0 
0 0 0 0 0 0 0 0 0 
0 0 0 0 0 0 0 0 0 
0 0 0 0 0 0 0 0 0 
0 0 0 0 0 0 0 0 0 
0 0 0 0 0 0 0 0 0 
0 0 0 0 0 0 0 0 0 
0 0 0 0 0 0 0 1 0 
0 0 0 1 0 0 0 0 0 
0 0 0 0 0 0 0 0 0 
0 0 0 0 0 0 0 0 0 
0 0 0 0 0 0 0 0 0 
0 0 0 0 0 0 0 1 0 
0 0 0 0 0 0 0 0 0 
0 0 0 0 0 0 0 0 0 
0 1 0 0 0 0 0 0 0 
0 0 0 0 0 0 0 0 0 
0 0 0 0 0 0 0 0 0 
0 0 0 0 1 0 0 0 0 
0 0 0 0 0 0 0 0 0 
0 0 0 0 0 0 0 0 0 
0 0 0 0 0 0 0 0 0 
0 1 0 0 0 0 0 1 0 
0 0 0 0 0 0 0 0 0 
0 0 0 0 0 0 0 0 0 
0 0 0 0 0 0 0 0 0 
0 0 0 0 0 0 0 0 0 
0 0 0 0 0 0 0 0 0 
0 0 0 0 0 0 0 0 0 
0 0 0 0 0 0 0 0 0 
0 0 0 0 0 0 0 0 0 
0 0 0 0 0 0 0 0 0 
0 0 0 0 0 0 0 0 0 
0 0 0 0 0 0 0 0 0 
0 0 0 0 0 0 0 0 0 
0 0 0 0 0 0 0 0 0 
0 0 0 0 0 0 0 0 0 
0 0 0 0 0 0 0 0 0 
0 0 0 0 0 0 0 0 0 
0 0 0 -1 0 0 -1 0 0 
0 0 0 0 0 0 0 0 0 
0 0 0 0 0 0 0 0 0 
0 0 0 0 0 0 0 0 0 
0 0 0 0 0 0 0 0 0 
0 0 0 0 0 0 0 0 0 
0 0 0 0 0 0 0 0 0 
0 0 0 0 0 0 0 0 0 
0 0 0 0 0 0 0 0 0 
0 0 0 0 0 0 0 0 0 
0 0 0 0 0 0 0 0 0 
0 0 0 0 0 0 0 0 0 
0 0 0 0 0 0 0 0 0 
0 0 0 0 0 0 0 0 0 
0 0 0 0 0 0 0 0 0 