# vtk DataFile Version 4.0
Generated by LIGGGHTS
ASCII
DATASET POLYDATA
POINTS 2000 float
-150.609 -148.859 9.91877 -162.026 -165.223 9.91877 -131.784 -155.47 9.91989 
-112.488 -150.394 9.91409 -51.1334 -143.424 9.91868 -18.2089 -160.607 9.92317 
37.3227 -154.198 9.91853 63.3692 -152.648 9.91888 89.3669 -169.889 9.91683 
115.333 -159.201 9.90904 160.081 -166.812 9.9175 -160.439 -131.498 9.9127 
-56.0807 -122.932 9.91693 -75.1281 -109.451 9.91629 38.3377 -134.265 9.91875 
25.9181 -116.743 9.92028 60.4199 -132.911 9.91895 57.2979 -113.199 9.91877 
77.0394 -110.26 9.91888 165.037 -120.329 9.91908 147.77 -110.348 9.91916 
-147.902 -98.0149 9.91899 -93.3792 -101.375 9.91877 -89.4849 -81.7992 9.9188 
-26.9638 -89.5234 9.91854 -12.5461 -103.324 9.91877 7.22021 -106.088 9.91872 
-0.268938 -87.5873 9.91884 69.2058 -91.902 9.91877 129.714 -101.878 9.91459 
-158.786 -72.004 9.91877 -151.255 -53.522 9.91842 -94.5648 -62.4976 9.91595 
-75.473 -56.6788 9.91853 -56.2301 -51.3814 9.91866 -21.46 -70.3392 9.9182 
-37.6486 -58.666 9.9187 5.64223 -67.0839 9.91891 -9.64735 -54.2527 9.9184 
42.9239 -56.1794 9.91995 58.2395 -69.0695 9.91695 64.1268 -50.0036 9.91877 
78.1083 -67.2045 9.91821 164.962 -49.5408 9.91894 -168.219 -31.4017 9.91911 
-113.195 -45.7512 9.91863 -105.668 -27.2659 9.91881 -89.4864 -44.9295 17.914 
-70.2684 -37.1943 9.9187 -11.0355 -23.6263 9.91842 42.7658 -17.8607 9.91879 
48.8844 -37.1258 9.91747 82.4954 -42.2104 9.91664 145.428 -45.4401 9.91897 
154.203 -27.5122 9.91877 -165.75 -11.5986 9.91631 -131.403 5.883 9.91894 
-68.4783 3.92795 9.91881 -16.2665 -4.36608 9.9198 -33.7635 10.1492 9.90331 
3.03067 -9.46552 9.91878 111.88 8.37227 9.91876 137.073 -11.4113 9.91762 
119.996 -7.23226 19.3527 156.68 -7.70602 9.91863 170.357 7.46281 9.91504 
-120.834 31.4866 9.90452 -83.3107 34.7893 9.91095 -103.68 45.408 9.90757 
-20.2817 24.8272 9.90973 -1.35553 18.5038 9.9177 29.2839 42.366 9.91876 
122.871 45.598 9.91876 -146.244 63.5575 9.91883 -126.485 50.6257 9.91431 
-85.9563 54.5578 9.91148 -66.0679 55.903 9.90364 -75.7502 73.4056 13.1811 
-32.8785 47.6001 9.91863 20.1109 73.3156 9.91703 35.9523 61.1778 9.91838 
51.76 52.3065 18.2679 69.6966 54.9225 9.91769 107.835 62.1997 9.91897 
127.106 67.3943 9.91881 144.64 51.357 9.91888 164.591 51.9045 9.91829 
154.143 68.9091 9.91856 -159.24 78.7064 9.91877 -141.036 105.026 13.1112 
-139.623 82.3865 9.9187 -113.398 107.869 9.91873 -88.8096 101.33 9.91885 
-70.9135 92.4932 9.91863 -56.3961 106.191 9.90644 -19.3199 98.4342 9.91838 
-36.5661 108.487 9.91831 -11.531 80.0548 9.91925 38.4103 87.058 11.4354 
108.186 103.49 9.89997 -159.661 111.441 9.91832 -97.1513 119.462 9.91877 
-13.5796 117.55 9.91875 5.3 135.764 9.9188 58.0434 136.472 9.91878 
82.9668 114.672 9.91885 138.343 130.036 9.91862 163.189 117.055 9.91716 
168.024 136.415 9.91492 -143.198 170.157 9.91877 -167.21 157.509 9.91688 
-124.274 163.819 9.90851 -15.4143 161.63 9.91923 3.50455 167.997 9.90179 
22.9988 169.78 13.7976 18.5126 150.722 9.91789 42.1789 148.583 9.91809 
42.538 168.538 9.91877 69.489 170.358 9.91327 81.6128 153.72 9.91877 
120.75 163.586 9.91843 135.126 149.735 9.91664 139.929 169.105 9.91729 
154.903 155.915 9.91219 -165.807 -144.305 24.2384 -154.023 -167.735 29.1621 
-137.076 -157.432 31.3821 -125.092 -151.215 46.082 -114.007 -154.767 29.3233 
-102.609 -160.944 44.4876 -82.5809 -140.17 24.7973 -74.49 -167.841 44.5486 
-60.9953 -153.732 48.6917 -18.906 -159.42 39.7858 7.86722 -142.707 24.7914 
27.75 -170.213 33.0794 40.2776 -160.041 47.5506 20.7074 -162.888 50.2494 
49.0179 -156.304 29.9996 85.5249 -162.442 49.3336 120.808 -168.156 33.5707 
141.387 -141.317 24.7919 168.662 -162.983 27.5264 155.22 -166.058 49.6834 
-163.912 -125.966 31.8975 -155.094 -110.524 44.7846 -129.758 -123.911 24.7901 
-108.838 -139.763 47.8529 -36.9208 -125.946 38.9784 48.9761 -126.2 47.738 
91.5729 -138.345 24.7824 102.58 -115.028 48.3645 117.788 -117.863 35.4684 
162.026 -118.078 40.7537 144.509 -109.003 37.6931 -160.784 -107.852 24.1214 
-159.466 -87.3972 22.604 -149.628 -91.3355 45.3159 -57.8894 -82.9539 24.7955 
31.2848 -85.5814 24.7942 100.718 -89.305 24.7896 126.711 -90.2118 48.1239 
170.689 -100.161 39.2362 -161.099 -76.2522 39.0814 -156.513 -53.9826 29.2492 
-150.846 -61.0932 47.017 -127.233 -74.0843 24.7872 -95.7221 -59.8159 29.6545 
-78.0587 -58.0843 38.7597 -63.0441 -48.668 29.06 -39.501 -53.8825 30.8813 
-12.9519 -72.5402 43.8203 67.619 -57.3939 44.1531 101.71 -63.6951 48.5321 
121.278 -69.1337 44.5714 137.692 -53.0252 47.7028 149.032 -76.8516 24.7946 
170.016 -54.7172 41.837 -109.791 -45.0593 33.3683 -137.217 -25.1952 24.7951 
-119.816 -41.5989 50.2742 -85.318 -23.8264 22.4486 -102.94 -26.2905 31.494 
-90.649 -42.6128 38.3992 -72.66 -34.0007 38.5684 -43.8841 -19.7678 24.7879 
-17.1825 -43.4569 24.9201 -24.8576 -39.7751 46.2048 17.2791 -37.6882 24.7978 
46.7222 -29.4943 41.736 95.7567 -24.0745 49.0747 114.091 -41.2386 24.7943 
155.621 -23.1022 45.6597 -161.042 -1.66082 34.74 -143.469 4.03077 42.8986 
-99.8488 7.86325 24.7959 -76.0287 -14.3788 37.3766 -72.1887 3.35781 45.6624 
-20.4986 6.06251 27.4062 -9.27141 -10.4378 27.6012 29.2935 10.7459 24.7876 
73.7986 -11.8177 24.7975 100.318 -4.83639 46.4622 86.906 9.71023 48.9973 
107.73 13.3197 50.1676 110.798 4.70754 32.4266 167.962 9.56781 44.8897 
-152.413 32.5487 24.7964 -113.502 39.9853 26.3889 -88.2274 40.4752 29.5104 
-89.1489 32.0821 47.5967 -55.0998 29.3685 29.7866 -23.1154 30.4426 43.7937 
26.5863 40.2416 43.3013 45.9975 40.2831 33.1191 93.4402 34.052 24.8002 
124.13 43.3566 44.2033 141.31 19.9188 24.8017 164.797 28.7989 49.112 
154.617 45.3744 44.7 -165.608 64.6247 29.0279 -108.541 76.6352 24.8107 
-90.4059 53.8697 44.1431 -76.7629 56.6888 27.4988 -43.0521 77.5399 24.7859 
-1.3652 50.1176 24.8009 38.9177 72.9229 43.3864 73.5913 55.6899 43.7372 
116.174 71.1972 31.8313 134.03 62.4833 30.0405 138.511 56.4923 48.5568 
127.628 73.2062 48.0435 151.819 66.9078 37.9081 169.216 65.2938 47.6418 
-151.6 92.8561 44.1156 -125.671 107.263 25.6472 10.9659 82.8116 24.8971 
2.40611 100.379 20.8382 84.0864 83.0743 24.7926 100.408 100.838 50.0703 
112.543 85.8733 44.8681 139.028 96.6751 24.7998 157.877 81.5471 50.0343 
-142.402 137.927 24.8004 -165.257 124.827 47.789 -170.529 117.457 28.0723 
-59.3102 121.853 40.9885 -29.7638 137.132 30.286 -22.0113 118.887 27.9599 
-2.37687 119.351 31.5175 31.906 118.683 24.795 65.4082 111.74 31.8845 
83.3925 114.479 40.0953 107.131 135.058 24.8005 118.558 112.108 48.5444 
156.154 131.161 25.0744 -159.568 161.78 43.7124 -139.692 167.315 43.5062 
-125.717 168.297 29.2898 -117.098 167.638 47.2629 -94.4396 153.375 24.7905 
-68.8266 154.619 48.517 -46.5217 167.297 24.7936 -0.524976 152.894 41.1297 
30.7006 153.59 25.4585 62.2144 155.087 40.4784 95.5594 165.237 38.0768 
105.517 169.789 21.4033 120.131 156.991 48.6965 140.422 164.697 42.4065 
146.377 148.514 26.3545 152.345 167.557 26.6577 166.328 148.582 25.6374 
162.717 158.992 42.2735 -157.814 -148.376 58.0034 -115.479 -160.106 61.1387 
-127.018 -149.466 74.476 -131.572 -168.289 69.6475 -99.6742 -151.437 69.6995 
-86.6034 -156.387 55.48 -67.3535 -167.225 63.1759 -19.2293 -149.864 57.3061 
-41.5452 -168.11 69.254 -39.1835 -148.688 65.3898 -17.1631 -166.594 69.0812 
0.651335 -148.531 58.4798 -0.176473 -158.499 75.7514 19.5819 -142.25 57.7073 
67.5358 -155.14 54.0139 80.3744 -152.343 75.9292 83.25 -143.374 58.3386 
78.1741 -169.727 66.3806 115.575 -154.633 65.3611 149.248 -148.913 57.9796 
-125.547 -134.969 57.6667 -102.331 -131.907 66.5889 -69.2062 -135.272 77.191 
-45.7167 -110.613 69.3783 0.706818 -115.562 70.0536 68.918 -136.045 74.6892 
90.738 -130.979 72.0733 108.038 -120.54 66.7553 125.857 -109.802 51.8498 
126.676 -122.538 73.6112 134.936 -127.078 56.032 154.766 -137.589 73.463 
154.665 -129.929 55.0332 -159.634 -78.846 65.4701 -139.381 -105.456 75.5796 
-122.588 -79.7216 58.9519 -95.3919 -100.691 52.5149 -60.6239 -104.109 52.4722 
-64.5262 -85.6517 58.9951 -42.9433 -94.988 53.9884 -19.9734 -87.7547 74.4867 
-37.4641 -81.2917 67.4019 -1.19396 -81.1123 75.5977 33.5969 -78.2659 74.1008 
50.3299 -108.699 77.9451 82.4373 -97.0587 70.5532 110.302 -80.6886 57.2674 
118.961 -96.7733 65.3078 113.494 -83.6755 79.3426 153.602 -98.2171 69.6538 
-142.099 -76.4523 56.2943 -132.944 -69.4684 72.5811 -124.957 -59.8176 56.6021 
-114.179 -50.2314 71.0678 -102.86 -52.106 51.0175 -106.911 -71.7744 68.4042 
-88.4674 -66.4599 53.5865 -95.0868 -55.712 69.0459 -78.2761 -74.8106 68.5789 
-53.6739 -50.7162 62.6617 90.0438 -62.9562 70.3652 112.254 -65.8402 70.4611 
120.059 -53.2734 57.0549 131.128 -72.6695 61.7025 129.808 -57.0495 74.0589 
149.392 -65.5929 57.8723 168.122 -70.8628 53.4415 165.943 -52.6154 61.2542 
168.942 -67.2076 74.5218 -146.629 -37.327 72.2666 -95.9474 -20.9833 65.3162 
41.8952 -45.6784 64.6638 22.9382 -43.7913 58.7296 63.9363 -27.742 62.2646 
83.394 -32.1673 62.4689 98.323 -45.3845 55.6953 116.799 -24.7505 76.9758 
151.506 -22.7576 80.3498 -154.348 -10.3803 51.4024 -122.938 10.2084 50.9179 
-138.24 4.06197 62.162 -128.488 -12.2477 56.0542 -126.761 -8.90858 76.5342 
-116.665 6.83178 69.5636 -101.141 13.8828 59.1886 -47.9747 2.71138 51.2238 
-58.8264 -13.2282 65.0368 -44.3441 -8.85179 78.056 -14.712 -1.67264 60.9861 
33.4349 -12.0689 68.9523 65.9858 -5.29742 58.215 67.5591 -13.5557 76.3059 
84.508 -12.3243 60.6393 87.255 4.79255 70.5287 126.214 6.47379 53.302 
113.566 9.05856 68.7714 162.611 -6.8177 75.774 143.515 -2.91033 71.4789 
-137.366 18.035 76.3923 -119.465 43.6008 60.6037 -102.524 18.8047 78.479 
-84.5846 45.1569 61.9696 -67.631 18.4622 76.8324 -7.31924 34.2523 55.3649 
11.3434 41.2543 56.1287 61.1391 29.03 62.5298 95.814 26.745 58.8872 
139.729 31.7805 73.2476 -128.934 76.8934 65.3842 -104.741 69.459 78.924 
-33.5852 53.7707 67.6116 8.75497 61.0352 56.4138 0.373806 47.3148 72.7165 
13.4711 70.7236 73.2139 33.3737 70.9495 77.8286 64.8094 63.6965 64.9312 
48.5218 57.6862 78.0393 99.564 60.6202 66.5827 133.19 66.0862 74.3545 
[...]
POINT_DATA 2000
FIELD FieldData 7
id 1 2000 int
428 203 332 284 211 249 417 240 419 
380 82 224 355 389 241 183 196 333 
105 360 281 109 184 295 309 160 285 
298 420 217 205 317 139 79 103 293 
233 158 446 226 319 358 357 302 352 
426 140 444 280 435 276 369 398 406 
429 121 388 112 127 88 439 154 227 
337 204 371 142 187 297 464 172 418 
308 450 459 269 221 403 252 104 185 
222 323 407 201 294 384 336 157 266 
455 136 147 141 167 90 93 395 197 
390 451 278 272 300 216 273 171 405 
311 289 381 130 255 432 256 394 248 
94 261 433 174 177 198 98 365 124 
251 84 258 461 74 378 77 242 5 
283 243 150 342 100 162 43 102 370 
244 117 42 422 3 57 33 460 368 
238 339 437 125 321 31 65 72 374 
210 138 152 397 53 359 316 99 83 
55 29 412 331 341 38 202 349 27 
246 263 415 448 129 9 377 463 15 
366 155 62 69 452 220 51 218 126 
214 268 47 12 163 231 362 379 404 
44 186 80 134 11 396 135 279 48 
169 21 170 161 116 56 239 107 13 
17 75 192 327 195 465 329 209 245 
4 340 322 434 73 375 391 28 364 
35 146 110 60 306 393 343 19 215 
427 63 410 345 250 208 97 402 6 
361 71 16 290 58 76 206 454 120 
351 86 81 401 70 442 392 164 194 
200 303 78 1479 363 1146 113 1945 292 
131 307 286 301 32 277 386 430 34 
149 10 458 114 305 87 207 156 936 
190 1837 8 423 14 409 310 228 85 
425 318 67 253 20 144 447 443 39 
123 287 236 905 182 376 411 89 291 
41 372 188 148 1063 225 237 328 1170 
829 49 46 350 414 438 181 408 30 
1607 275 353 271 346 1097 159 132 234 
213 96 7 66 264 288 92 1593 457 
413 1493 436 1969 54 108 344 36 324 
270 22 456 40 267 122 1 151 400 
193 348 330 1413 23 232 387 1682 176 
25 175 230 421 50 165 259 91 262 
296 101 338 1954 106 137 115 367 299 
61 64 462 314 173 212 37 143 325 
1924 274 153 424 189 24 265 1233 335 
133 356 1173 1189 445 334 453 382 313 
168 347 52 1601 1802 111 440 145 219 
941 235 441 191 1053 969 1530 1788 1703 
1312 1636 1832 1045 704 1605 1846 1843 68 
1866 312 1721 723 789 988 1787 1194 1176 
1739 1627 1206 1464 1398 1229 858 1532 1827 
1875 260 552 975 118 199 631 1023 1442 
915 326 1010 1753 95 1118 1128 620 504 
1940 229 399 119 1354 946 899 257 1942 
1042 1710 1892 1252 986 1214 1722 166 1955 
989 1602 883 1646 1393 416 1724 1914 507 
733 1756 1218 641 128 1894 1963 45 179 
247 1762 59 1885 887 810 672 1473 1139 
852 1564 1740 304 1633 787 1979 747 695 
1198 628 1159 1589 354 1080 1622 913 26 
1340 254 971 1568 669 1868 1488 1296 1425 
2 1337 1920 812 1697 476 373 1191 431 
925 1279 1662 987 449 619 1900 485 1371 
1559 1965 597 385 1179 282 1445 775 1182 
1864 788 877 223 1106 1898 1661 178 964 
1776 1990 1804 1030 1566 1086 1653 621 1637 
1440 1246 776 18 320 466 1008 579 1408 
1546 1694 932 1033 1092 1481 1184 1938 1781 
180 1612 934 1982 315 1400 822 1282 1676 
687 1790 711 1714 860 1292 1303 1151 1456 
1280 1814 1055 1462 808 577 790 1253 1854 
717 1200 491 1137 1104 996 574 857 912 
1927 690 557 1338 1931 1484 791 649 1417 
709 675 1289 1877 1477 1572 1669 782 1922 
940 551 383 571 1992 1309 750 955 472 
1962 950 825 1658 894 1348 515 1995 1582 
1614 1083 859 1487 625 798 999 518 1454 
895 1939 608 613 1548 1671 1976 1114 1476 
1968 1014 882 1003 556 1735 838 866 980 
1800 1806 1277 1286 661 757 1224 1256 781 
1157 480 1329 1505 944 698 1217 1901 1035 
1536 1826 1457 1925 706 1860 1571 848 1897 
1402 903 593 984 1459 1947 726 981 512 
797 1667 1438 494 1839 1986 753 1861 1364 
1446 535 1245 1140 734 1785 1351 1666 659 
1933 1640 1610 1380 1132 1700 992 1435 665 
953 1311 807 901 991 1050 1334 1838 1377 
1331 956 2000 1551 1465 549 500 1544 1673 
1270 1623 479 1060 863 1911 823 990 960 
978 1603 640 1254 471 1754 1416 949 754 
1406 1718 1448 1098 490 1579 942 1905 1436 
1896 1089 1893 931 1503 1415 1750 1161 1049 
1539 1527 985 802 1685 1934 1187 1887 1046 
1842 1704 1326 1238 622 918 824 1069 1240 
1775 868 524 553 1403 1599 1554 1195 1002 
1908 609 983 1232 1048 1199 1241 1871 1291 
1634 713 1734 483 1613 774 703 481 1081 
1929 1975 1319 1463 473 1394 1373 1129 502 
1295 539 1012 1983 1833 1153 862 1381 694 
1472 547 1149 1881 1906 1596 477 1913 1784 
880 714 973 1469 1526 1345 1737 1600 1318 
766 1410 947 1512 1510 1249 917 1271 1205 
662 1285 525 1624 1360 1174 879 658 544 
1547 1594 660 1586 1196 1359 1293 1219 836 
1028 1409 1521 1061 1084 1186 1895 1065 508 
761 1973 572 584 1577 1807 1391 495 1899 
1560 702 554 469 1997 684 1715 1902 1323 
496 865 1203 1872 1399 1006 1365 834 1590 
506 542 1683 486 1977 1486 519 1220 1746 
1344 1180 1369 671 596 786 654 1397 909 
1972 1857 642 979 1628 1105 997 1148 1202 
1386 505 1154 844 1222 1581 520 1067 1930 
1223 1315 1226 1518 586 1654 1767 1274 1130 
1760 1904 623 762 567 1741 907 864 1793 
1889 1745 513 1619 1166 1313 1499 1255 487 
645 1565 1038 1470 847 1643 1082 760 1562 
587 718 832 1444 933 843 1126 1136 1859 
1037 1844 1772 611 1584 1691 923 1731 1651 
1492 1711 1698 538 1047 1949 1119 1070 1520 
799 1845 741 1639 1641 820 688 1434 1261 
1424 1757 749 1264 1164 1290 1523 1852 821 
772 732 1123 1474 886 1987 1789 794 963 
1778 1094 916 644 1932 1805 954 1299 982 
720 484 1272 1870 1263 1801 1621 1236 1795 
746 1306 1668 1325 1529 1374 1960 1829 818 
816 1355 1508 1405 696 1498 1181 770 1043 
1138 707 977 1550 785 976 1684 1828 1414 
1670 627 1093 773 1471 1743 994 1903 962 
1891 1310 1915 1514 1125 1597 1952 634 1251 
1783 1935 1553 1873 972 1841 516 1110 1239 
1815 1575 1443 1491 1650 1052 1999 1044 1967 
1040 1197 1383 1496 618 1131 653 908 809 
830 1029 1335 1375 1269 546 1362 861 1017 
870 612 1725 1797 1576 1890 1674 1162 1729 
1758 1774 1850 1779 475 1910 543 993 1429 
1923 1322 1948 1489 635 1552 529 685 1657 
651 1260 603 1917 1025 1183 1062 664 1820 
1155 1759 1644 1921 1822 1755 615 872 1208 
1749 1771 679 1142 1645 764 1504 1133 1288 
1167 1107 1076 828 566 1117 1165 1382 740 
1461 948 1347 742 1273 970 691 1821 902 
1500 1420 1022 1516 560 1549 1966 578 1629 
1808 510 1366 1497 638 1210 763 1770 1573 
630 503 1352 558 1958 548 1538 1168 724 
767 670 1235 1298 854 1308 1971 1587 1390 
1231 1230 1502 1609 1719 1689 489 1088 900 
674 1330 1631 498 1054 744 884 705 1617 
1247 1090 591 643 1946 1216 1830 1466 1768 
1302 892 1287 1441 1085 569 878 813 876 
855 534 1709 965 1537 1696 633 650 1638 
1068 1495 1079 888 1991 845 1912 967 1752 
841 1847 1396 550 1591 1353 1981 1728 666 
1540 536 478 1075 1100 639 1349 1387 497 
1699 1712 827 839 1595 1389 1257 873 1738 
564 1346 1234 1626 1988 867 1511 1431 1121 
1961 1585 1616 1451 1855 1268 1421 1101 1358 
1095 924 1367 626 1091 881 1705 1819 722 
1567 1517 482 1192 831 1515 1777 1736 851 
1468 656 1574 869 1543 1834 1213 1888 1019 
1555 1792 533 1243 1237 1201 846 1531 835 
1327 739 1534 1730 1957 673 1799 815 1056 
1611 1525 1665 468 1011 1265 939 1803 795 
605 1158 1675 1428 719 1026 1120 1936 765 
1449 1835 576 737 922 1057 1649 914 537 
1031 1592 1314 1782 748 521 1882 1909 768 
1786 1765 1840 1212 1259 607 966 636 632 
1074 1363 589 598 1278 1171 1680 1317 1848 
501 1113 1659 898 522 1032 683 689 1439 
1077 1242 1541 1677 1695 897 1301 1284 585 
850 1385 806 1102 1943 1021 751 1324 1615 
716 1791 1918 1341 974 499 1951 1430 678 
959 1475 1426 1994 1713 1275 1209 682 1944 
1569 1000 889 1672 1211 1836 1606 594 745 
1221 1519 1141 1485 769 958 759 699 545 
610 1294 663 575 951 891 1655 614 604 
1761 1001 771 1604 929 1127 1702 1708 801 
1825 1542 998 1458 1147 842 1276 680 1688 
1561 943 826 1563 1652 511 1798 493 1883 
600 1034 562 624 715 541 1096 1175 1143 
676 1009 1073 1407 1751 1225 1648 1959 1066 
1588 1625 777 1813 581 1858 617 1372 1112 
1701 796 708 1524 1869 1078 1707 961 817 
1879 1874 1993 1570 1686 1392 1818 1660 890 
1865 1733 1036 1455 1876 1087 803 532 906 
1528 1156 957 1300 1886 1051 701 1248 527 
1356 1706 1941 1996 1937 1024 646 526 1244 
945 1692 602 1535 1145 755 1342 1207 1452 
756 1884 1583 1467 601 1185 1796 492 1478 
1283 1204 1880 1111 488 1919 1811 1339 1989 
1215 1727 1172 1058 1656 1998 1297 563 1376 
1368 648 1404 1262 735 531 1433 728 568 
1720 1687 606 1321 725 1450 1103 1716 1974 
559 1663 1401 729 710 911 599 1978 1690 
1177 1395 1020 1015 1041 1647 1763 1664 588 
893 1116 1824 1794 1134 1412 528 1227 517 
1004 629 871 784 1258 1027 1984 731 555 
1608 1545 727 692 1152 736 1144 952 1849 
1748 1867 1411 1384 1281 896 595 1039 1773 
1328 920 1726 1190 1115 590 693 1953 580 
652 474 1007 1769 1681 1742 1419 919 849 
1494 1679 1378 1557 904 738 1766 1336 910 
1370 1350 937 1764 1598 1809 681 1635 1816 
1357 1812 1379 1964 783 926 540 780 779 
1717 833 1447 1267 1437 935 1160 1427 1266 
583 1620 1851 1150 1578 1556 1956 667 1072 
1316 1856 853 1432 1693 1320 1985 1483 1744 
1533 1618 530 1059 1423 1453 467 1480 885 
1507 1817 509 930 1343 1188 686 1460 800 
1558 1916 805 995 840 1513 582 1907 1005 
875 1630 657 837 1178 1863 1642 758 1580 
565 1135 570 811 792 1810 668 1853 1747 
928 968 1509 647 1388 1422 721 1950 819 
523 1099 1064 1823 1831 874 1228 616 1163 
1501 778 677 592 1018 927 1122 1250 804 
938 1332 1169 814 1482 1970 1522 1862 514 
752 712 1016 1109 1490 1980 1723 655 1193 
1418 1333 561 1506 1124 573 793 637 1108 
730 1878 856 1926 1632 1305 697 1928 1780 
1361 1071 1732 1678 1304 1013 921 1307 700 
743 470 
type 1 2000 int
1 1 1 1 1 1 1 1 1 
1 1 1 1 1 1 1 1 1 
1 1 1 1 1 1 1 1 1 
1 1 1 1 1 1 1 1 1 
1 1 1 1 1 1 1 1 1 
1 1 1 1 1 1 1 1 1 
1 1 1 1 1 1 1 1 1 
1 1 1 1 1 1 1 1 1 
1 1 1 1 1 1 1 1 1 
1 1 1 1 1 1 1 1 1 
1 1 1 1 1 1 1 1 1 
1 1 1 1 1 1 1 1 1 
1 1 1 1 1 1 1 1 1 
1 1 1 1 1 1 1 1 1 
1 1 1 1 1 1 1 1 1 
1 1 1 1 1 1 1 1 1 
1 1 1 1 1 1 1 1 1 
1 1 1 1 1 1 1 1 1 
1 1 1 1 1 1 1 1 1 
1 1 1 1 1 1 1 1 1 
1 1 1 1 1 1 1 1 1 
1 1 1 1 1 1 1 1 1 
1 1 1 1 1 1 1 1 1 
1 1 1 1 1 1 1 1 1 
1 1 1 1 1 1 1 1 1 
1 1 1 1 1 1 1 1 1 
1 1 1 1 1 1 1 1 1 
1 1 1 1 1 1 1 1 1 
1 1 1 1 1 1 1 1 1 
1 1 1 1 1 1 1 1 1 
1 1 1 1 1 1 1 1 1 
1 1 1 1 1 1 1 1 1 
1 1 1 1 1 1 1 1 1 
1 1 1 1 1 1 1 1 1 
1 1 1 1 1 1 1 1 1 
1 1 1 1 1 1 1 1 1 
1 1 1 1 1 1 1 1 1 
1 1 1 1 1 1 1 1 1 
1 1 1 1 1 1 1 1 1 
1 1 1 1 1 1 1 1 1 
1 1 1 1 1 1 1 1 1 
1 1 1 1 1 1 1 1 1 
1 1 1 1 1 1 1 1 1 
1 1 1 1 1 1 1 1 1 
1 1 1 1 1 1 1 1 1 
1 1 1 1 1 1 1 1 1 
1 1 1 1 1 1 1 1 1 
1 1 1 1 1 1 1 1 1 
1 1 1 1 1 1 1 1 1 
1 1 1 1 1 1 1 1 1 
1 1 1 1 1 1 1 1 1 
1 1 1 1 1 1 1 1 1 
1 1 1 1 1 1 1 1 1 
1 1 1 1 1 1 1 1 1 
1 1 1 1 1 1 1 1 1 
1 1 1 1 1 1 1 1 1 
1 1 1 1 1 1 1 1 1 
1 1 1 1 1 1 1 1 1 
1 1 1 1 1 1 1 1 1 
1 1 1 1 1 1 1 1 1 
1 1 1 1 1 1 1 1 1 
1 1 1 1 1 1 1 1 1 
1 1 1 1 1 1 1 1 1 
1 1 1 1 1 1 1 1 1 
1 1 1 1 1 1 1 1 1 
1 1 1 1 1 1 1 1 1 
1 1 1 1 1 1 1 1 1 
1 1 1 1 1 1 1 1 1 
1 1 1 1 1 1 1 1 1 
1 1 1 1 1 1 1 1 1 
1 1 1 1 1 1 1 1 1 
1 1 1 1 1 1 1 1 1 
1 1 1 1 1 1 1 1 1 
1 1 1 1 1 1 1 1 1 
1 1 1 1 1 1 1 1 1 
1 1 1 1 1 1 1 1 1 
1 1 1 1 1 1 1 1 1 
1 1 1 1 1 1 1 1 1 
1 1 1 1 1 1 1 1 1 
1 1 1 1 1 1 1 1 1 
1 1 1 1 1 1 1 1 1 
1 1 1 1 1 1 1 1 1 
1 1 1 1 1 1 1 1 1 
1 1 1 1 1 1 1 1 1 
1 1 1 1 1 1 1 1 1 
1 1 1 1 1 1 1 1 1 
1 1 1 1 1 1 1 1 1 
1 1 1 1 1 1 1 1 1 
1 1 1 1 1 1 1 1 1 
1 1 1 1 1 1 1 1 1 
1 1 1 1 1 1 1 1 1 
1 1 1 1 1 1 1 1 1 
1 1 1 1 1 1 1 1 1 
1 1 1 1 1 1 1 1 1 
1 1 1 1 1 1 1 1 1 
1 1 1 1 1 1 1 1 1 
1 1 1 1 1 1 1 1 1 
1 1 1 1 1 1 1 1 1 
1 1 1 1 1 1 1 1 1 
1 1 1 1 1 1 1 1 1 
1 1 1 1 1 1 1 1 1 
1 1 1 1 1 1 1 1 1 
1 1 1 1 1 1 1 1 1 
1 1 1 1 1 1 1 1 1 
1 1 1 1 1 1 1 1 1 
1 1 1 1 1 1 1 1 1 
1 1 1 1 1 1 1 1 1 
1 1 1 1 1 1 1 1 1 
1 1 1 1 1 1 1 1 1 
1 1 1 1 1 1 1 1 1 
1 1 1 1 1 1 1 1 1 
1 1 1 1 1 1 1 1 1 
1 1 1 1 1 1 1 1 1 
1 1 1 1 1 1 1 1 1 
1 1 1 1 1 1 1 1 1 
1 1 1 1 1 1 1 1 1 
1 1 1 1 1 1 1 1 1 
1 1 1 1 1 1 1 1 1 
1 1 1 1 1 1 1 1 1 
1 1 1 1 1 1 1 1 1 
1 1 1 1 1 1 1 1 1 
1 1 1 1 1 1 1 1 1 
1 1 1 1 1 1 1 1 1 
1 1 1 1 1 1 1 1 1 
1 1 1 1 1 1 1 1 1 
1 1 1 1 1 1 1 1 1 
1 1 1 1 1 1 1 1 1 
1 1 1 1 1 1 1 1 1 
1 1 1 1 1 1 1 1 1 
1 1 1 1 1 1 1 1 1 
1 1 1 1 1 1 1 1 1 
1 1 1 1 1 1 1 1 1 
1 1 1 1 1 1 1 1 1 
1 1 1 1 1 1 1 1 1 
1 1 1 1 1 1 1 1 1 
1 1 1 1 1 1 1 1 1 
1 1 1 1 1 1 1 1 1 
1 1 1 1 1 1 1 1 1 
1 1 1 1 1 1 1 1 1 
1 1 1 1 1 1 1 1 1 
1 1 1 1 1 1 1 1 1 
1 1 1 1 1 1 1 1 1 
1 1 1 1 1 1 1 1 1 
1 1 1 1 1 1 1 1 1 
1 1 1 1 1 1 1 1 1 
1 1 1 1 1 1 1 1 1 
1 1 1 1 1 1 1 1 1 
1 1 1 1 1 1 1 1 1 
1 1 1 1 1 1 1 1 1 
1 1 1 1 1 1 1 1 1 
1 1 1 1 1 1 1 1 1 
1 1 1 1 1 1 1 1 1 
1 1 1 1 1 1 1 1 1 
1 1 1 1 1 1 1 1 1 
1 1 1 1 1 1 1 1 1 
1 1 1 1 1 1 1 1 1 
1 1 1 1 1 1 1 1 1 
1 1 1 1 1 1 1 1 1 
1 1 1 1 1 1 1 1 1 
1 1 1 1 1 1 1 1 1 
1 1 1 1 1 1 1 1 1 
1 1 1 1 1 1 1 1 1 
1 1 1 1 1 1 1 1 1 
1 1 1 1 1 1 1 1 1 
1 1 1 1 1 1 1 1 1 
1 1 1 1 1 1 1 1 1 
1 1 1 1 1 1 1 1 1 
1 1 1 1 1 1 1 1 1 
1 1 1 1 1 1 1 1 1 
1 1 1 1 1 1 1 1 1 
1 1 1 1 1 1 1 1 1 
1 1 1 1 1 1 1 1 1 
1 1 1 1 1 1 1 1 1 
1 1 1 1 1 1 1 1 1 
1 1 1 1 1 1 1 1 1 
1 1 1 1 1 1 1 1 1 
1 1 1 1 1 1 1 1 1 
1 1 1 1 1 1 1 1 1 
1 1 1 1 1 1 1 1 1 
1 1 1 1 1 1 1 1 1 
1 1 1 1 1 1 1 1 1 
1 1 1 1 1 1 1 1 1 
1 1 1 1 1 1 1 1 1 
1 1 1 1 1 1 1 1 1 
1 1 1 1 1 1 1 1 1 
1 1 1 1 1 1 1 1 1 
1 1 1 1 1 1 1 1 1 
1 1 1 1 1 1 1 1 1 
1 1 1 1 1 1 1 1 1 
1 1 1 1 1 1 1 1 1 
1 1 1 1 1 1 1 1 1 
1 1 1 1 1 1 1 1 1 
1 1 1 1 1 1 1 1 1 
1 1 1 1 1 1 1 1 1 
1 1 1 1 1 1 1 1 1 
1 1 1 1 1 1 1 1 1 
1 1 1 1 1 1 1 1 1 
1 1 1 1 1 1 1 1 1 
1 1 1 1 1 1 1 1 1 
1 1 1 1 1 1 1 1 1 
1 1 1 1 1 1 1 1 1 
1 1 1 1 1 1 1 1 1 
1 1 1 1 1 1 1 1 1 
1 1 1 1 1 1 1 1 1 
1 1 1 1 1 1 1 1 1 
1 1 1 1 1 1 1 1 1 
1 1 1 1 1 1 1 1 1 
1 1 1 1 1 1 1 1 1 
1 1 1 1 1 1 1 1 1 
1 1 1 1 1 1 1 1 1 
1 1 1 1 1 1 1 1 1 
1 1 1 1 1 1 1 1 1 
1 1 1 1 1 1 1 1 1 
1 1 1 1 1 1 1 1 1 
1 1 1 1 1 1 1 1 1 
1 1 1 1 1 1 1 1 1 
1 1 1 1 1 1 1 1 1 
1 1 1 1 1 1 1 1 1 
1 1 1 1 1 1 1 1 1 
1 1 1 1 1 1 1 1 1 
1 1 1 1 1 1 1 1 1 
1 1 1 1 1 1 1 1 1 
1 1 
i 3 2000 int
0 0 0 0 0 0 0 0 0 
0 0 0 0 0 0 0 0 0 
0 0 0 0 0 0 0 1 0 
0 0 0 0 0 0 0 0 0 
0 0 0 0 0 0 0 0 0 
0 0 0 0 0 0 0 0 0 
0 0 0 0 0 0 0 0 0 
0 0 0 0 0 0 0 0 0 
0 0 0 0 0 0 0 0 0 
0 0 0 0 0 0 0 0 0 
0 0 0 0 0 0 0 0 0 
0 0 0 0 0 0 0 0 0 
0 0 0 0 0 0 0 0 0 
0 0 0 0 0 0 0 0 0 
0 0 0 0 0 0 0 0 0 
0 0 0 0 0 0 0 0 0 
0 0 0 0 0 0 0 0 0 
0 0 0 0 0 0 0 0 0 
0 0 0 1 0 0 0 0 0 
0 0 0 0 0 0 0 0 0 
0 0 0 0 0 0 0 0 0 
0 0 0 0 0 0 0 0 0 
0 0 0 0 0 0 0 0 0 
0 0 0 0 0 0 0 0 0 
0 0 0 0 0 0 0 0 0 
0 0 0 0 0 0 0 0 0 
0 0 0 0 0 0 0 0 0 
0 0 0 0 0 0 0 0 0 
0 0 0 0 0 0 0 0 0 
0 0 0 0 0 0 0 0 0 
0 0 0 0 0 0 0 0 0 
0 0 0 0 0 0 0 0 0 
0 0 0 0 0 0 0 0 0 
0 0 0 0 0 0 0 0 0 
0 0 0 0 0 0 0 0 0 
0 0 0 0 0 0 0 0 0 
0 0 0 0 0 0 0 0 0 
0 0 0 0 0 0 0 0 0 
0 -1 0 0 0 0 0 0 0 
0 0 0 0 0 0 0 0 0 
0 0 0 0 0 0 0 -1 0 
0 0 0 1 0 0 0 1 0 
0 1 0 0 0 0 0 0 0 
0 0 0 0 0 0 0 0 0 
0 0 0 0 0 0 0 0 0 
0 0 0 0 0 0 0 0 0 
0 1 0 0 0 0 0 1 0 
0 0 0 0 0 0 -1 1 0 
0 0 0 0 0 0 0 0 0 
0 0 0 0 0 0 0 0 0 
0 0 0 0 0 0 0 0 0 
0 0 0 0 0 0 0 0 0 
0 0 0 0 0 0 0 0 0 
0 0 0 0 0 0 0 0 0 
0 0 0 0 0 0 0 0 0 
0 0 0 0 0 0 0 0 0 
0 0 0 0 0 0 0 0 0 
0 0 0 0 0 0 0 0 0 
0 0 0 0 0 0 0 0 0 
0 0 0 0 0 0 0 0 0 
0 0 0 0 0 0 0 0 0 
0 0 0 0 0 0 0 0 0 
0 0 0 0 0 0 0 0 0 
0 0 0 0 0 0 0 0 0 
0 0 0 0 0 0 0 0 0 
0 0 0 0 0 0 0 0 0 
0 0 0 0 0 0 0 0 0 
0 0 0 0 0 0 0 0 0 
0 0 0 0 0 0 0 0 0 
0 0 0 0 0 0 0 0 0 
0 0 0 0 0 0 0 0 0 
0 0 0 0 0 0 0 0 0 
0 0 0 0 0 0 0 0 0 
0 0 0 0 0 0 0 0 0 
0 0 0 0 0 0 0 0 0 
0 0 0 0 0 0 0 0 0 
0 0 0 0 0 0 0 0 0 
0 0 0 0 0 0 -1 0 0 
0 0 0 0 0 0 0 0 0 
0 0 0 0 0 0 0 0 0 
0 0 0 0 0 0 0 0 0 
0 0 0 0 0 0 0 0 0 
0 0 0 0 0 0 0 0 0 
0 0 0 0 0 0 0 0 0 
0 0 0 0 0 0 0 0 0 
0 0 0 0 0 0 0 0 0 
0 0 0 0 0 0 0 0 0 
0 0 0 0 0 0 0 0 0 
0 0 0 0 0 0 0 0 0 
0 0 0 0 0 0 0 0 0 
0 0 0 0 0 0 0 0 0 
0 0 0 0 0 0 0 0 0 
0 0 0 0 0 0 0 0 0 
0 0 0 0 0 0 0 0 0 
0 0 0 0 0 0 0 1 0 
0 0 0 0 0 0 0 0 0 
0 0 0 0 0 0 0 0 0 
0 1 0 0 0 0 0 0 0 
0 0 0 0 0 0 0 0 0 
0 0 0 0 0 0 0 0 0 
0 0 0 0 0 0 0 0 0 
0 0 0 0 0 0 0 0 0 
0 0 0 0 0 0 0 0 0 
0 0 0 0 0 0 0 0 0 
0 0 0 0 0 0 0 0 0 
0 0 0 0 0 0 0 0 0 
0 0 0 0 0 0 0 0 0 
0 0 0 0 0 0 0 0 0 
0 0 0 0 0 0 0 0 0 
0 0 0 0 0 0 0 0 0 
0 0 0 0 0 0 0 0 0 
0 0 0 0 0 0 0 0 0 
0 0 0 0 0 0 0 0 0 
0 0 0 0 0 0 0 0 0 
0 0 0 0 0 0 0 0 0 
0 0 0 0 0 0 0 0 0 
0 0 0 0 0 0 0 0 0 
0 0 0 0 0 0 0 0 0 
0 0 0 0 0 0 0 0 0 
0 0 0 0 0 0 0 0 0 
0 0 0 0 0 0 0 0 0 
0 0 0 0 0 0 0 0 0 
0 0 0 0 0 0 0 0 0 
0 0 0 0 0 0 0 0 0 
0 0 0 0 0 0 0 0 0 
0 0 0 0 0 0 0 0 0 
0 0 0 0 0 0 0 0 0 
0 0 0 0 0 0 0 0 0 
0 0 0 0 0 0 0 0 0 
0 0 0 0 0 0 0 0 0 
0 0 0 0 0 0 0 0 0 
0 0 0 0 0 0 0 0 0 
0 0 0 0 0 0 0 0 0 
0 0 0 0 0 0 0 0 0 
0 0 0 0 0 0 0 0 0 
0 0 0 0 0 0 0 0 0 
0 0 0 0 0 0 0 0 0 
-1 0 0 0 0 0 0 0 0 
0 0 0 0 0 0 0 0 0 
0 0 0 0 0 0 0 0 0 
0 0 0 0 0 0 0 0 0 
0 0 0 0 0 0 0 0 0 
0 0 0 0 0 0 0 0 0 
0 0 0 0 0 0 0 0 0 
0 0 0 0 0 0 0 0 0 
0 0 0 0 0 0 0 0 0 
0 0 0 0 0 0 0 0 0 
0 0 0 0 0 0 0 0 0 
0 0 0 0 -1 0 0 0 0 
0 0 0 0 0 0 0 0 0 
0 0 0 0 0 0 0 0 0 
-1 0 0 0 0 0 0 0 0 
1 0 0 0 0 0 0 0 0 
0 0 0 0 0 0 0 0 0 
0 0 0 0 0 0 0 0 0 
0 1 0 0 0 0 0 0 0 
0 0 0 0 0 0 0 0 0 
0 0 0 0 0 0 0 0 0 
0 0 0 0 0 0 0 0 0 
0 0 0 0 0 0 0 0 0 
0 0 0 0 0 0 0 0 0 
0 0 0 0 0 0 0 0 0 
0 0 0 0 0 0 0 0 0 
0 0 0 0 0 0 -1 0 0 
0 0 0 0 0 0 0 0 0 
0 0 0 0 0 0 0 0 0 
0 0 0 0 0 0 0 0 0 
0 0 0 0 0 0 0 0 0 
0 0 0 0 0 0 0 0 0 
0 0 0 0 0 0 0 0 0 
0 0 0 0 0 0 0 0 0 
0 0 0 -1 0 0 0 0 0 
0 0 0 0 0 0 0 0 0 
0 0 0 0 0 0 0 0 0 
0 0 0 0 0 0 0 0 0 
0 0 0 0 0 0 0 0 0 
0 0 0 0 0 0 0 0 0 
0 0 0 1 0 0 0 0 0 
0 0 0 0 0 0 0 0 0 
0 0 0 0 0 0 0 0 0 
0 0 0 0 0 0 0 0 0 
0 0 0 0 0 0 0 0 0 
0 0 0 0 0 0 0 0 0 
0 0 0 0 0 0 0 0 0 
0 0 0 0 0 0 0 0 0 
0 0 0 0 0 0 0 0 0 
0 0 0 0 0 0 0 0 0 
0 0 0 0 0 0 0 0 0 
0 0 0 0 0 0 0 0 0 
0 0 0 0 0 0 0 0 0 
0 0 0 0 0 0 0 0 0 
0 0 0 0 0 0 0 0 0 
0 0 0 0 0 0 0 0 0 
0 0 0 0 0 0 0 0 0 
0 0 0 0 0 0 0 0 0 
0 0 0 0 0 0 0 0 0 
0 0 0 0 0 0 0 0 0 
0 0 0 0 0 0 0 0 0 
0 0 0 0 0 0 0 0 0 
0 0 0 0 0 0 0 0 0 
0 0 0 0 0 0 0 0 0 
0 0 0 0 0 0 0 0 0 
0 0 0 0 0 0 0 0 0 
0 0 0 0 0 0 0 0 0 
0 0 0 0 0 0 0 0 0 
0 0 0 0 0 0 -1 0 0 
0 0 0 0 0 0 0 0 0 
0 0 0 0 0 0 0 0 0 
0 0 0 0 0 0 0 0 0 
0 0 0 0 0 0 0 0 0 
0 0 0 1 0 0 0 0 0 
0 0 0 0 -1 0 0 -1 0 
0 0 0 0 0 0 0 0 0 
0 0 0 0 0 0 0 0 0 
0 0 0 0 -1 0 0 0 0 
0 0 0 0 0 0 0 0 0 
0 0 0 0 0 0 0 0 0 
0 0 0 0 0 0 0 0 0 
0 0 0 0 0 0 0 0 0 
0 0 0 0 0 0 0 0 0 
0 0 0 0 0 0 0 0 0 
0 0 0 0 0 0 0 0 0 
1 0 0 0 0 0 0 0 0 
0 0 0 0 0 0 0 0 0 
0 0 0 0 0 0 0 0 0 
0 0 0 0 0 0 0 0 0 
0 0 0 0 0 0 0 0 0 
0 0 0 0 0 0 0 0 0 
0 0 0 0 0 0 0 0 0 
0 0 0 0 0 0 0 0 0 
0 0 0 0 0 0 0 0 0 
0 0 0 0 0 0 0 0 0 
0 0 0 0 0 0 0 0 0 
0 0 0 0 0 0 0 0 0 
0 0 0 0 0 0 0 0 0 
0 0 0 0 0 0 0 0 0 
0 0 0 0 0 0 0 0 0 
0 0 0 0 0 0 0 0 0 
0 0 0 0 0 0 0 0 0 
0 0 0 0 0 0 0 0 0 
0 0 0 0 0 0 0 0 0 
0 0 0 0 0 0 0 0 0 
0 0 0 0 0 0 0 0 0 
0 0 0 0 0 0 0 0 0 
0 0 0 0 0 0 0 0 0 
0 0 0 0 0 0 0 0 0 
0 0 0 0 0 0 0 0 0 
0 0 0 0 0 0 0 0 0 
0 0 0 0 0 0 0 0 0 
0 0 0 0 0 0 0 0 0 
0 0 0 0 0 0 0 0 0 
0 0 0 0 0 0 0 0 0 
0 0 0 0 0 0 0 0 0 
0 0 0 0 0 0 0 0 0 
0 0 0 0 0 0 0 0 0 
0 0 0 0 0 0 0 0 0 
0 0 0 0 0 0 0 0 0 
0 0 0 0 0 0 0 0 0 
0 0 0 0 0 0 1 0 0 
0 0 0 0 0 0 0 0 0 
0 0 0 0 0 0 0 0 0 
0 0 0 0 0 0 0 0 0 
0 -1 0 0 0 0 0 0 0 
0 0 0 0 0 0 0 0 0 
0 0 0 0 0 0 0 0 0 
0 0 0 0 0 0 0 0 0 
0 0 0 0 0 0 0 0 0 
0 0 0 0 0 0 0 0 0 
0 1 0 0 0 0 0 0 0 
0 0 0 0 0 0 0 1 0 
0 0 0 0 0 0 0 0 0 
0 0 0 0 0 0 0 0 0 
0 0 0 0 0 0 0 0 0 
0 0 0 0 0 0 0 0 0 
0 0 0 0 0 0 0 0 0 
0 0 0 0 0 0 0 0 0 
0 0 0 0 0 0 0 0 0 
0 0 0 0 0 0 0 0 0 
0 0 0 0 0 0 0 0 0 
-1 0 0 0 0 0 0 0 0 
0 0 0 0 0 0 0 0 0 
0 0 0 0 0 0 0 0 0 
0 0 0 0 0 0 0 0 0 
0 0 0 0 0 0 0 0 0 
0 0 0 0 0 0 0 0 0 
0 0 0 0 0 0 0 0 0 
0 0 0 0 0 0 0 0 0 
0 0 0 0 0 0 0 0 0 
0 0 0 0 0 0 0 0 0 
0 0 0 -1 0 0 0 0 0 
0 0 0 0 0 0 0 0 0 
0 0 0 0 0 0 0 0 0 
0 0 0 0 0 0 0 0 0 
0 0 0 0 0 0 0 0 0 
0 0 0 0 0 0 -1 0 0 
0 0 0 0 0 0 0 0 0 
0 0 0 0 0 0 0 0 0 
0 0 0 0 0 0 0 0 0 
0 0 0 0 0 0 0 0 0 
0 0 0 0 0 0 0 0 0 
0 0 0 0 0 0 0 0 0 
0 0 0 0 0 0 0 0 0 
0 0 0 0 0 0 0 0 0 
0 0 0 0 0 0 0 0 0 
0 0 0 0 0 0 0 0 0 
0 0 0 0 0 0 0 0 0 
0 0 0 0 0 0 0 0 0 
0 0 0 0 0 0 0 0 0 
0 0 0 0 0 0 0 0 0 
0 0 0 0 0 0 0 0 0 
0 0 0 0 0 0 0 0 0 
0 0 0 0 0 0 0 0 0 
0 0 0 0 0 0 0 0 0 
0 -1 0 0 0 0 0 0 0 
0 0 0 0 0 0 0 0 0 
0 0 0 0 0 0 0 0 0 
0 0 0 0 0 0 0 0 0 
0 0 0 0 0 0 0 0 0 
0 1 0 0 0 0 0 0 0 
0 0 0 0 0 0 0 0 0 
0 0 0 0 0 0 0 0 0 
0 0 0 0 0 0 0 0 0 
0 0 0 0 0 0 0 0 0 
0 0 0 0 0 0 0 0 0 
0 0 0 0 0 0 0 0 0 
0 0 0 0 0 0 0 0 0 
0 0 0 0 0 0 0 0 0 
0 0 0 0 0 0 0 0 0 
0 0 0 0 0 0 0 0 0 
0 0 0 0 0 0 0 0 0 
0 0 0 0 0 0 0 0 0 
0 0 0 1 0 0 0 0 0 
0 0 0 0 0 0 0 0 0 
0 0 0 0 0 0 0 0 0 
0 0 0 0 0 0 0 0 0 
0 0 0 0 0 0 0 0 0 
-1 0 0 0 0 0 0 0 0 
0 0 0 0 0 0 0 0 0 
0 0 0 0 0 0 0 0 0 
0 0 0 0 0 0 0 0 0 
0 0 0 0 0 0 0 0 0 
0 0 0 0 0 0 0 0 0 
0 0 0 0 0 0 0 0 0 
0 0 0 0 0 0 0 0 0 
0 0 0 0 0 0 0 0 0 