# vtk DataFile Version 4.0
Generated by LIGGGHTS
ASCII
DATASET POLYDATA
POINTS 2000 float
-150.125 -157.168 9.99267 -169.449 -162.303 9.98492 -105.762 -163.478 9.99068 
-57.0828 -158.893 9.98746 -34.3167 -151.491 9.99293 -1.73045 -160.541 9.99112 
35.8678 -160.304 9.99184 62.444 -159.733 9.99205 86.138 -164.047 9.99245 
103.785 -154.644 9.99195 115.28 -167.722 19.8251 149.561 -161.129 9.99223 
161.77 -147.834 18.5943 -103.835 -117.182 9.99195 -61.979 -117.873 9.99051 
-10.0232 -118.433 9.98729 48.0886 -129.81 9.98682 48.4236 -109.82 9.99116 
160.409 -129.832 9.99258 149.39 -111.611 9.9915 -154.409 -108.528 9.99214 
-166 -88.1736 9.99177 -93.3336 -100.13 9.99223 -32.7325 -95.0237 9.99254 
-2.41869 -87.1435 9.98276 5.29714 -105.588 9.98922 59.5847 -93.2299 9.99281 
73.8169 -79.1857 9.992 133.878 -98.9931 9.99199 168.17 -106.109 14.0933 
-161.242 -63.225 9.99203 -142.069 -50.3192 9.99247 -122.084 -49.6763 9.99147 
-94.8464 -73.1995 9.99257 -99.4145 -51.5371 9.98968 -80.1928 -57.0429 9.99115 
-58.8399 -51.9965 9.9927 -16.6181 -54.9437 9.99234 -38.8638 -56.1161 9.99253 
0.683976 -67.3893 9.99258 41.4931 -55.684 9.99139 58.0518 -66.8891 9.99275 
79.6896 -48.76 9.99275 -157.225 -36.9778 9.99122 -117.16 -30.2965 9.98877 
-97.2165 -31.6636 9.99205 -77.9991 -37.1707 9.99092 -22.3494 -35.7861 9.99262 
-9.02956 -17.8244 9.99242 42.2708 -17.9642 9.99196 72.4392 -30.1244 9.99268 
56.0726 -41.6131 9.99255 87.1418 -16.5718 9.99281 137.245 -20.9388 9.99228 
170.083 -23.2784 9.99321 146.06 -38.8861 9.99245 165.66 -42.8412 9.99217 
-149.851 -11.8955 9.99211 -168.071 -3.65556 9.99263 -129.551 -10.6505 9.99311 
-68.4621 4.56649 9.98323 -42.834 9.18919 9.99291 -23.9007 -4.45608 9.99202 
-14.2572 13.1883 9.99206 7.44871 -6.49676 9.9834 16.2329 11.4618 9.98991 
120.199 3.53338 9.9926 154.29 -7.41375 9.99285 -169.155 40.662 9.98909 
-125.8 44.0293 9.99147 -89.0159 29.6192 9.99275 -108.542 33.9311 9.99225 
34.1305 41.6883 9.99214 67.3323 43.5146 9.99157 -161.184 73.8648 9.9925 
-146.892 51.0579 9.99273 -128.503 63.8415 9.992 -83.0161 51.5617 9.99208 
-47.567 50.171 9.98931 -64.9521 59.5077 13.2149 -27.5851 49.4942 9.98917 
-6.41204 70.2808 9.98927 21.725 65.0983 9.98161 41.1925 60.3951 9.98791 
60.8225 72.2139 9.99261 116.753 49.3292 9.9927 136.914 53.3784 9.99202 
123.456 68.1686 9.99269 157.107 52.9902 9.98292 -153.072 92.1417 9.99194 
-69.1052 78.7999 9.9921 -66.7213 98.6531 9.99242 10.1145 81.0256 13.3353 
-6.61141 91.4603 9.99197 26.478 92.0207 9.99258 52.2005 90.2558 9.99253 
75.4695 101.012 9.99242 119.812 90.0019 9.98855 -163.95 108.919 9.99277 
-92.5697 109.514 9.99174 -54.1346 117.762 9.99258 -74.1227 117.229 9.99206 
-34.2159 116.018 9.99252 -20.4775 128.499 17.4295 -15.488 109.276 11.8928 
3.32135 115.79 9.99206 -4.72055 138.309 9.99226 71.7689 120.663 9.99292 
132.619 124.482 9.9922 170.84 127.57 9.99229 150.531 115.594 9.99254 
150.455 134.963 14.9628 -155.001 142.553 9.99236 -162.306 161.094 11.6414 
-142.453 162.825 9.99243 -122.753 166.256 9.99253 -121.502 146.298 9.99279 
-9.65174 163.1 9.99135 14.913 159.473 9.98989 34.2287 154.312 9.99148 
58.4878 142.914 9.99071 49.9637 166.647 9.99229 76.9286 150.635 9.98166 
102.362 162.574 9.99046 121.338 156.271 9.99241 134.508 169.651 16.8738 
140.819 151.764 9.99206 165.71 146.897 9.99191 160.285 165.143 16.1145 
-163.682 -164.732 44.4071 -118.757 -163.372 25.1852 -128.988 -160.193 44.949 
-110.938 -151.679 43.7216 -83.2967 -141.224 24.9816 -101.305 -168.325 49.1981 
-67.421 -168.816 39.5119 -53.1177 -155.092 35.9975 -29.9733 -157.611 42.8065 
-14.2201 -162.722 25.4537 9.6585 -169.215 23.9501 40.5077 -156.223 39.7074 
48.6616 -148.955 20.3522 57.0813 -148.021 47.3155 92.8363 -161.191 41.0716 
143.457 -161.78 44.186 -166.992 -134.977 26.2868 -162.242 -113.446 28.644 
-132.242 -131.083 24.9726 -62.2219 -109.259 50.029 -36.0681 -124.738 32.4845 
-8.64183 -139.461 48.4752 16.9061 -134.998 24.9801 79.5255 -133.123 24.9788 
97.0511 -114.258 48.6771 129.419 -136.128 24.9783 118.858 -111.511 47.4953 
141.657 -111.382 46.4827 159.924 -135.052 42.0926 160.826 -120.977 27.9172 
-166.974 -93.2492 33.1491 -150.064 -107.09 43.175 -135.16 -81.1787 24.9787 
-100.729 -87.2182 23.3513 -65.5282 -85.0606 24.9715 -7.79935 -105.483 25.0958 
29.1074 -84.7831 24.9729 103.746 -89.3969 24.975 136.19 -102.116 29.6274 
131.67 -91.5048 45.9613 157.591 -102.758 35.4944 -162.798 -71.4439 44.1095 
-167.641 -52.0444 43.8209 -163.956 -49.4526 24.2328 -110.799 -51.2635 26.4206 
-116.744 -58.4005 44.1225 -91.4418 -61.5605 25.8929 -103.387 -72.9862 37.1441 
-97.6358 -52.6792 42.7037 -86.7116 -72.825 49.9954 -70.3077 -50.3324 26.2888 
-46.1939 -56.1185 28.5969 -18.4919 -75.0202 38.5935 68.1272 -59.5486 43.3876 
120.87 -65.7354 44.2463 149.928 -70.2752 24.9717 -137.854 -29.6369 38.1941 
-82.5975 -34.8511 29.3124 -102.325 -34.2111 32.5175 -79.1298 -20.0061 45.1202 
-50.5507 -21.4781 24.9792 -17.7156 -32.8059 29.2154 -31.8317 -43.301 44.9117 
16.9166 -36.3119 25.6489 59.124 -19.6542 20.6195 109.688 -38.7484 24.9776 
121.2 -16.7332 49.6235 154.569 -23.2869 41.3621 -159.209 -3.56382 47.6041 
-125.739 2.55262 48.2227 -99.7225 -0.139776 24.9738 -1.6453 5.26877 23.3371 
47.8077 13.1732 24.972 116.011 -1.79019 37.3908 128.176 -9.08362 23.2975 
131.864 2.25777 48.8857 170.632 12.3082 47.801 -145.702 19.4551 24.976 
-169.711 33.3616 46.3013 -113.26 31.8371 29.3106 -96.8341 44.2747 22.4731 
-92.5585 37.4746 40.784 -59.4852 28.0363 34.3283 -26.9619 21.2441 23.3421 
2.55759 39.9655 24.9861 33.3174 40.294 41.6722 68.3617 35.1614 42.8159 
96.4979 24.4716 24.9752 121.444 22.3735 49.428 146.461 23.2288 24.9737 
-165.582 48.0691 28.2123 -146.43 72.6072 44.1954 -123.051 52.1862 28.0397 
-97.2453 54.6438 49.8977 -75.7249 58.7128 38.7227 -30.1076 47.0252 35.3714 
-1.15651 74.5535 28.8023 1.03601 66.9809 47.178 34.4604 75.2587 40.9399 
48.6064 48.1411 23.938 67.8862 49.6253 29.0215 66.7465 62.6548 45.771 
92.3775 74.289 24.9798 126.309 53.9726 26.9336 123.356 68.6094 40.2338 
159.732 52.7981 38.1611 143.966 48.056 49.5066 -163.209 102.114 35.6839 
-120.17 95.2092 49.115 -100.728 78.9619 24.976 -70.4578 95.942 29.4484 
-36.56 79.8128 24.9781 8.28692 99.5706 20.5791 102.823 101.674 44.0991 
120.647 101.592 26.2593 125.696 97.5301 45.1758 150.85 83.9708 24.9765 
-164.559 125.345 38.5201 -133.334 116.852 24.9714 -78.6863 114.165 29.2178 
-98.6666 113.711 28.5673 -20.1076 137.811 46.666 -0.345828 137.866 36.4662 
34.182 122.692 24.9782 101.668 130.961 24.9813 166.515 115.263 25.1476 
-163.401 142.395 28.1379 -146.255 152.59 26.7448 -146.894 142.676 44.3035 
-166.438 142.628 48.526 -126.434 150.945 28.8057 -117.865 165.799 40.4942 
-134.671 158.048 48.0581 -90.2243 150.98 24.9748 -40.5081 156.184 24.9757 
1.31922 152.397 22.8325 21.675 155.204 28.3174 34.3949 170.527 26.5125 
31.553 168.474 49.8024 64.4741 160.325 41.2032 96.8828 165.388 29.0108 
98.8222 157.707 47.3703 126.394 167.56 35.0299 131.278 149.454 27.4122 
120.629 151.733 45.8054 159.955 149.577 28.9527 147.408 164.952 31.412 
140.323 161.301 49.817 -148.374 -159.157 75.3729 -166.228 -150.767 78.6396 
-129.448 -155.252 64.3188 -115.881 -145.141 78.3303 -107.693 -161.728 70.7361 
-97.2005 -150.234 58.1801 -87.8083 -163.67 71.5485 -80.7077 -162.17 52.896 
-53.9378 -164.494 53.6234 -39.9858 -160.659 71.6845 -23.4642 -149.871 68.4729 
14.2545 -147.825 69.5092 25.3138 -154.739 52.6233 71.1186 -140.837 59.6122 
82.9056 -157.35 58.323 83.0241 -146.339 75.014 116.667 -161.199 66.6843 
152.01 -151.518 63.3277 168.835 -169.499 77.7507 149.239 -165.636 78.6776 
-143.704 -124.549 73.181 -115.854 -136.179 55.4697 -100.442 -134.982 70.6995 
-65.4986 -136.712 71.4755 -28.9475 -130.784 66.2037 -32.5882 -112.078 72.2407 
1.88944 -111.266 66.3296 25.9974 -135.722 58.7654 51.5288 -111.853 60.5072 
108.194 -130.479 52.2221 90.9254 -139.05 57.5291 89.4031 -124.79 71.4629 
106.917 -130.13 79.4997 134.724 -119.73 64.7113 114.894 -117.583 66.1292 
166.924 -124.663 57.677 145.554 -134.084 55.9641 -145.696 -89.6204 73.9506 
-150.469 -81.2304 56.4418 -117.786 -82.4249 75.7737 -101.476 -104.314 53.8769 
-79.9844 -81.1225 70.8512 -68.6839 -92.5965 58.9989 -47.8327 -84.471 55.1554 
-45.2131 -103.901 59.0704 -28.1586 -93.334 66.8033 94.5168 -90.2707 74.0904 
125.938 -100.709 62.7615 128.421 -83.5658 79.5053 124.628 -79.23 60.0881 
160.587 -92.0533 68.677 -144.189 -61.0869 52.1699 -119.674 -74.4796 55.6369 
-135.72 -73.5272 67.5256 -126.919 -56.7088 61.2486 -122.01 -63.2385 79.4998 
-98.9558 -75.8278 74.3006 -102.705 -64.2729 58.417 -94.2832 -47.6045 69.9808 
-60.4327 -52.7174 62.7321 -33.1493 -74.2998 70.3625 -5.765 -76.5811 71.1519 
28.4003 -69.126 72.4345 62.8852 -74.7121 74.4871 101.873 -65.5091 50.4811 
93.694 -56.0081 67.0195 112.568 -48.6781 72.6381 127.712 -61.7599 69.3149 
135.105 -54.249 52.3213 153.535 -59.4648 58.0527 145.849 -57.1493 76.3615 
-162.782 -46.6297 78.0515 -139.171 -21.3507 72.7697 -110.416 -45.8098 58.3057 
-129.347 -39.3094 70.7906 -88.9936 -36.4956 50.6576 -70.4672 -19.9541 69.7713 
-39.666 -24.9413 58.058 -12.1822 -39.9638 73.6671 38.8373 -42.55 52.2023 
20.1169 -37.306 60.477 37.7273 -35.8182 77.7328 50.462 -30.085 62.6579 
100.938 -39.2539 58.8563 101.748 -28.4948 75.6916 122.314 -39.8156 57.5944 
-156.168 -15.1574 64.2597 -142.498 -1.42966 58.3778 -153.267 8.4939 71.9939 
-169.543 -0.300444 64.4036 -81.8839 8.76047 53.7228 -104.886 -14.3593 72.6138 
-65.1975 -8.72161 54.0897 -19.3632 5.21126 53.5064 27.7649 -3.88691 67.4605 
59.9729 6.68816 76.7146 79.3226 -12.095 54.4118 107.595 -7.6207 74.5338 
93.2694 15.4089 70.9418 111.851 0.58657 56.8038 166.227 -14.1423 77.419 
-158.432 22.7268 58.9328 -157.194 42.6837 58.8007 -126.07 30.8061 69.5167 
-97.062 21.6866 52.1977 -91.2433 27.5032 70.4223 -81.6762 43.7967 56.3224 
-78.4278 41.8208 75.9529 -31.2344 27.3745 77.8367 -7.28541 37.6756 58.4892 
22.2025 26.1833 50.4531 50.7538 40.1994 72.6274 113.546 17.603 67.1684 
147.418 21.7581 74.9223 -113.798 64.973 54.2698 -130.008 65.2496 74.1992 
[...]
POINT_DATA 2000
FIELD FieldData 7
id 1 2000 int
428 203 284 211 242 249 417 196 240 
380 206 82 365 389 355 309 333 420 
224 281 109 125 184 160 298 285 105 
319 217 360 205 317 426 295 444 79 
103 293 233 158 226 358 357 352 140 
139 280 446 435 276 398 369 154 429 
121 406 302 452 371 388 112 88 127 
464 439 172 227 204 384 455 187 142 
418 323 450 157 266 297 221 107 252 
395 104 185 222 407 308 201 294 451 
269 141 322 90 197 273 215 390 405 
136 167 278 93 306 393 272 255 433 
171 311 345 351 381 124 289 332 130 
432 394 248 216 94 261 419 174 198 
177 98 102 70 258 84 422 74 461 
378 77 78 150 256 342 241 131 100 
277 244 437 42 409 3 113 5 33 
460 43 368 156 190 238 321 117 53 
359 31 183 65 72 339 144 210 138 
202 152 349 376 316 182 448 411 99 
83 55 29 331 38 27 263 415 129 
9 377 463 15 366 62 155 69 220 
353 51 268 47 379 337 457 404 44 
170 186 80 134 11 214 17 135 231 
48 169 21 336 4 459 176 239 396 
151 348 75 279 192 330 73 327 391 
195 161 367 385 56 403 13 434 427 
410 375 28 265 35 147 340 212 343 
19 63 110 250 251 208 370 97 402 
335 6 71 300 173 290 283 58 76 
143 162 86 454 81 401 120 392 1206 
442 858 1703 1312 194 200 303 347 1479 
1802 243 307 301 312 32 936 1053 1194 
8 386 430 34 363 260 10 292 57 
87 286 114 975 447 305 199 207 287 
397 1214 14 291 310 228 149 85 20 
374 257 443 39 236 423 123 166 1722 
95 326 89 41 425 318 67 399 412 
372 188 237 341 328 1170 49 1097 246 
905 218 213 1894 45 350 414 179 438 
408 181 148 275 346 1493 436 126 46 
234 7 66 264 12 163 92 362 1607 
271 116 54 132 108 344 1920 354 324 
270 22 413 40 122 267 1589 25 1 
373 193 400 1413 254 262 23 465 329 
209 387 245 115 230 50 165 259 223 
776 91 37 424 1924 296 178 101 137 
338 106 146 364 299 1954 61 64 60 
314 775 18 466 325 274 219 153 24 
1233 932 164 133 1173 1189 445 356 334 
313 453 361 382 168 16 111 145 941 
235 441 191 1408 1627 1176 1398 1229 1832 
1532 1636 1146 1945 1481 68 1843 1866 1456 
180 1721 1462 1055 912 118 988 1400 1023 
1753 1010 1118 1827 704 253 458 1303 119 
1927 631 1837 1442 829 915 557 620 504 
1940 229 1724 946 1042 1942 1892 1252 1710 
986 1218 1477 1955 989 1602 883 950 1963 
1762 383 416 1354 899 1914 225 1063 1473 
641 128 1646 1633 247 59 887 1885 30 
1756 1425 672 1969 1198 852 1564 36 304 
96 787 288 1340 747 1979 1593 669 1296 
1139 1083 159 1740 1548 1080 1622 1114 26 
1735 971 456 838 1488 2 1159 1179 1337 
1697 812 431 1014 913 1279 925 1191 1662 
1568 449 232 1868 1776 485 1682 597 1182 
282 1445 421 788 987 1457 1990 1030 1371 
1566 1571 848 1559 1897 1653 175 462 1637 
1864 1440 1106 1246 877 1898 981 320 1008 
1661 579 189 1546 1086 1282 1788 1694 822 
969 621 52 1184 1601 1846 1938 1781 1140 
440 1612 723 934 315 1676 1530 1790 711 
1092 1605 1714 1292 860 1280 991 1814 577 
1787 1739 790 1464 491 1137 1484 1875 1128 
1104 574 1151 1270 552 789 808 717 1289 
690 1338 1931 649 996 1417 709 675 1877 
754 472 791 1669 782 1393 1922 825 940 
1046 1348 1436 571 1992 931 507 733 859 
1161 798 1658 518 1939 1454 608 515 1893 
1995 1309 955 1582 1614 1487 625 1671 999 
1976 1842 810 980 695 1394 1476 895 1599 
483 1800 1613 1277 1157 864 628 1286 661 
882 1224 1003 556 781 866 1900 1806 1472 
1965 480 757 1505 476 1929 944 1463 698 
619 964 1536 1804 706 1860 1624 1402 903 
1881 1256 1459 1947 1901 512 1784 1667 797 
1826 494 1438 1045 1526 1986 1839 1318 1033 
753 1861 593 535 1245 1982 1351 1785 1666 
659 687 1933 1640 1610 1380 1132 992 665 
1512 1623 953 857 1311 1271 901 1196 479 
1838 1334 1331 836 1253 1854 956 1911 1200 
978 549 500 1544 1673 1416 1060 949 823 
1551 863 960 1997 1448 640 471 702 1754 
1896 1089 990 1718 1406 1503 1098 1572 1254 
1579 551 1977 750 1415 622 1069 1590 1049 
1962 1527 985 490 802 1934 1887 894 1704 
1002 519 1238 1326 613 1240 1775 1539 868 
1685 1187 553 1403 1554 1908 609 983 997 
1148 1199 1871 1291 1634 524 844 1734 1195 
1930 1315 567 1202 703 1968 481 713 1319 
774 1925 1910 502 1654 1767 1619 1329 1983 
1081 1153 1217 1035 645 843 473 1793 1129 
1345 1295 539 984 1012 477 1381 1913 880 
714 547 766 1149 1772 1737 1435 1906 1600 
1410 947 1596 1364 726 1446 1510 1249 1205 
917 734 662 525 973 1174 658 544 1700 
660 807 1050 761 1219 1359 1028 1523 1409 
1377 2000 1521 1805 1465 732 1084 886 1186 
1594 794 1895 1801 1065 508 1973 1306 572 
584 1807 1603 1391 1715 495 1621 1899 554 
469 1325 1960 684 506 1902 942 1323 496 
1905 1560 865 1684 1828 1203 1344 918 1006 
824 542 486 1138 1486 909 977 1220 1746 
1369 1180 1399 1628 1048 1750 834 596 1154 
654 1915 1857 1972 642 979 1650 1232 1362 
870 1040 861 1999 1241 612 1553 1496 1222 
1397 520 1904 1223 1226 1815 1443 1105 1518 
1850 586 505 1130 1760 1489 1674 623 762 
1741 1470 907 1373 847 1889 1745 1313 1274 
1562 1166 1255 1833 1975 862 1917 1565 1038 
694 1643 1820 685 513 1082 1499 1923 587 
832 1260 933 1444 1859 1469 1037 1844 611 
1584 718 923 1691 1586 1731 1651 1492 1711 
1285 1360 1698 1126 879 1520 1070 741 1117 
1165 820 1547 740 1424 749 1264 1293 1290 
1047 1061 772 1932 799 1639 1474 1987 688 
578 1778 1236 1094 644 1668 510 1299 1577 
484 720 1870 1263 963 630 1795 916 1352 
746 1587 1374 1958 982 1414 1829 816 1355 
1405 696 770 1181 1235 707 785 1550 976 
1952 1125 1971 1529 548 1872 1365 1093 1743 
994 1471 1891 1310 674 1683 1043 1298 498 
1514 634 1670 1251 671 1783 1935 1386 1903 
773 962 1873 1088 786 972 516 1131 809 
1110 1575 1269 1239 1491 1052 1017 643 1841 
1576 618 813 1581 908 1335 1067 1029 1709 
546 475 1441 1725 1197 1797 1383 1890 1495 
1162 1774 1758 1552 1847 529 1779 1100 550 
543 993 1429 1322 487 1729 635 1136 1133 
1712 760 1657 651 1948 603 1346 1183 664 
1822 1949 1504 1644 1921 1759 1755 615 1434 
1208 872 1261 1789 1771 1757 679 1142 538 
1645 1119 764 1123 1845 1834 1091 1076 566 
1382 1461 1347 1549 1966 742 1273 970 691 
1821 656 1852 902 821 1022 1420 638 1107 
1516 560 1629 1515 1808 1237 1531 1327 1534 
1366 954 1497 1272 763 1799 1573 1770 1056 
1525 503 558 835 1538 818 1168 1508 1936 
670 854 605 715 744 1308 1390 1231 1210 
724 627 1609 767 1498 489 1835 1840 1631 
922 737 1597 1675 884 1031 1230 1044 1782 
1617 1719 1689 900 1946 1330 1909 878 1216 
1786 1830 1649 534 1054 1466 705 892 591 
650 1882 569 830 1375 855 876 965 1768 
1287 1591 1068 1638 1991 845 653 1752 841 
1396 1967 639 1242 1387 1353 1695 1699 1981 
1728 666 1738 1912 1540 536 478 1626 1988 
1155 1349 1961 827 1595 1855 1791 1389 1257 
873 1025 1062 1234 1075 1511 867 1288 1431 
1121 1500 1475 828 1641 1585 839 1819 1713 
1451 1616 1749 1421 1101 1358 1944 831 1569 
924 564 1164 626 869 881 1705 1185 1485 
948 958 1517 722 1192 482 889 1672 851 
1201 1811 1574 575 1213 1019 1888 1792 533 
1777 1243 846 1468 771 739 1543 1957 939 
673 1702 1825 1803 1611 1542 1458 1665 680 
468 1011 1265 1652 795 576 1648 1158 541 
1096 1563 1502 777 511 1428 719 1026 765 
1449 1009 1765 1057 1372 914 537 1592 1314 
1090 1247 1074 521 581 768 589 1259 1212 
966 1085 1113 1869 1363 961 967 817 1879 
598 1537 1171 1302 1696 633 501 888 1284 
1659 1079 522 1032 683 1541 1439 1677 1301 
1615 897 585 850 1385 806 1943 1021 1951 
751 689 1077 1324 497 1341 1918 974 1692 
1102 1145 499 1207 1430 1211 745 756 678 
959 1167 601 1567 1209 1268 1994 1283 1275 
682 1095 1000 1606 1736 1836 1578 1367 1221 
1989 1519 951 1141 891 1478 759 699 1432 
1376 1985 610 1294 930 663 1655 1555 1708 
614 1423 1761 604 545 531 1433 1730 929 
729 1127 801 1687 1720 815 1321 1262 1974 
1688 1604 943 1798 710 493 1883 600 842 
1407 562 1020 1959 1763 1664 826 893 1120 
1143 676 1858 1751 1225 1066 1227 1831 1588 
1625 632 1175 1813 1258 731 1039 617 1152 
1112 1004 736 636 952 1848 708 1524 1865 
1078 1876 1773 1707 1328 1545 1190 1874 607 
1115 1701 1051 1680 1278 1886 1392 1818 898 
890 1036 1733 1455 803 1087 532 906 1528 
957 1156 1300 1742 1317 1570 1686 701 1660 
1248 527 1706 1356 1996 1941 738 1766 1937 
1024 1336 646 526 1244 1357 716 945 602 
1535 755 1342 1452 1919 1717 1447 1583 1160 
769 1427 492 1426 1880 1204 1111 488 1928 
594 1215 935 648 1856 1656 1058 1297 1305 
1744 1001 1368 1780 1630 1361 1956 1533 1172 
1618 1072 686 1480 1404 885 563 1103 735 
509 1663 1727 728 568 837 800 606 998 
725 1513 1690 1147 1450 1716 624 559 1561 
1401 1178 1642 599 1978 1073 1034 1395 1177 
1276 1041 811 629 588 1116 1824 1794 911 
1747 1134 528 1647 517 748 1950 721 1810 
1748 871 784 1849 1027 796 896 1411 1984 
555 1412 1608 727 692 1228 1144 1122 580 
1384 1281 595 1726 874 590 804 693 1169 
1679 1482 1723 474 920 1007 910 1681 919 
1419 849 1764 1016 1494 1816 1812 1378 1557 
904 655 1993 1769 1862 1370 752 1350 937 
681 1635 1266 583 783 1964 926 540 1884 
1333 779 780 1598 833 1124 1437 730 1796 
1878 853 1998 1620 1851 1108 1379 1150 1556 
1339 1071 667 1267 1467 1809 1316 1453 467 
1693 1926 1507 1320 697 530 1059 1343 1188 
1916 1558 1483 1678 758 1863 1460 805 840 
995 1817 582 1304 1005 875 657 968 1580 
565 1907 1015 1135 570 1422 792 668 1853 
928 1823 1501 819 938 523 1099 1509 647 
1388 921 616 1953 1163 1867 778 700 1064 
1970 677 1018 927 1307 743 1332 814 652 
1980 1522 592 1250 712 1109 1193 1418 514 
1506 573 793 1490 856 561 1632 637 1732 
1013 470 
type 1 2000 int
1 1 1 1 1 1 1 1 1 
1 1 1 1 1 1 1 1 1 
1 1 1 1 1 1 1 1 1 
1 1 1 1 1 1 1 1 1 
1 1 1 1 1 1 1 1 1 
1 1 1 1 1 1 1 1 1 
1 1 1 1 1 1 1 1 1 
1 1 1 1 1 1 1 1 1 
1 1 1 1 1 1 1 1 1 
1 1 1 1 1 1 1 1 1 
1 1 1 1 1 1 1 1 1 
1 1 1 1 1 1 1 1 1 
1 1 1 1 1 1 1 1 1 
1 1 1 1 1 1 1 1 1 
1 1 1 1 1 1 1 1 1 
1 1 1 1 1 1 1 1 1 
1 1 1 1 1 1 1 1 1 
1 1 1 1 1 1 1 1 1 
1 1 1 1 1 1 1 1 1 
1 1 1 1 1 1 1 1 1 
1 1 1 1 1 1 1 1 1 
1 1 1 1 1 1 1 1 1 
1 1 1 1 1 1 1 1 1 
1 1 1 1 1 1 1 1 1 
1 1 1 1 1 1 1 1 1 
1 1 1 1 1 1 1 1 1 
1 1 1 1 1 1 1 1 1 
1 1 1 1 1 1 1 1 1 
1 1 1 1 1 1 1 1 1 
1 1 1 1 1 1 1 1 1 
1 1 1 1 1 1 1 1 1 
1 1 1 1 1 1 1 1 1 
1 1 1 1 1 1 1 1 1 
1 1 1 1 1 1 1 1 1 
1 1 1 1 1 1 1 1 1 
1 1 1 1 1 1 1 1 1 
1 1 1 1 1 1 1 1 1 
1 1 1 1 1 1 1 1 1 
1 1 1 1 1 1 1 1 1 
1 1 1 1 1 1 1 1 1 
1 1 1 1 1 1 1 1 1 
1 1 1 1 1 1 1 1 1 
1 1 1 1 1 1 1 1 1 
1 1 1 1 1 1 1 1 1 
1 1 1 1 1 1 1 1 1 
1 1 1 1 1 1 1 1 1 
1 1 1 1 1 1 1 1 1 
1 1 1 1 1 1 1 1 1 
1 1 1 1 1 1 1 1 1 
1 1 1 1 1 1 1 1 1 
1 1 1 1 1 1 1 1 1 
1 1 1 1 1 1 1 1 1 
1 1 1 1 1 1 1 1 1 
1 1 1 1 1 1 1 1 1 
1 1 1 1 1 1 1 1 1 
1 1 1 1 1 1 1 1 1 
1 1 1 1 1 1 1 1 1 
1 1 1 1 1 1 1 1 1 
1 1 1 1 1 1 1 1 1 
1 1 1 1 1 1 1 1 1 
1 1 1 1 1 1 1 1 1 
1 1 1 1 1 1 1 1 1 
1 1 1 1 1 1 1 1 1 
1 1 1 1 1 1 1 1 1 
1 1 1 1 1 1 1 1 1 
1 1 1 1 1 1 1 1 1 
1 1 1 1 1 1 1 1 1 
1 1 1 1 1 1 1 1 1 
1 1 1 1 1 1 1 1 1 
1 1 1 1 1 1 1 1 1 
1 1 1 1 1 1 1 1 1 
1 1 1 1 1 1 1 1 1 
1 1 1 1 1 1 1 1 1 
1 1 1 1 1 1 1 1 1 
1 1 1 1 1 1 1 1 1 
1 1 1 1 1 1 1 1 1 
1 1 1 1 1 1 1 1 1 
1 1 1 1 1 1 1 1 1 
1 1 1 1 1 1 1 1 1 
1 1 1 1 1 1 1 1 1 
1 1 1 1 1 1 1 1 1 
1 1 1 1 1 1 1 1 1 
1 1 1 1 1 1 1 1 1 
1 1 1 1 1 1 1 1 1 
1 1 1 1 1 1 1 1 1 
1 1 1 1 1 1 1 1 1 
1 1 1 1 1 1 1 1 1 
1 1 1 1 1 1 1 1 1 
1 1 1 1 1 1 1 1 1 
1 1 1 1 1 1 1 1 1 
1 1 1 1 1 1 1 1 1 
1 1 1 1 1 1 1 1 1 
1 1 1 1 1 1 1 1 1 
1 1 1 1 1 1 1 1 1 
1 1 1 1 1 1 1 1 1 
1 1 1 1 1 1 1 1 1 
1 1 1 1 1 1 1 1 1 
1 1 1 1 1 1 1 1 1 
1 1 1 1 1 1 1 1 1 
1 1 1 1 1 1 1 1 1 
1 1 1 1 1 1 1 1 1 
1 1 1 1 1 1 1 1 1 
1 1 1 1 1 1 1 1 1 
1 1 1 1 1 1 1 1 1 
1 1 1 1 1 1 1 1 1 
1 1 1 1 1 1 1 1 1 
1 1 1 1 1 1 1 1 1 
1 1 1 1 1 1 1 1 1 
1 1 1 1 1 1 1 1 1 
1 1 1 1 1 1 1 1 1 
1 1 1 1 1 1 1 1 1 
1 1 1 1 1 1 1 1 1 
1 1 1 1 1 1 1 1 1 
1 1 1 1 1 1 1 1 1 
1 1 1 1 1 1 1 1 1 
1 1 1 1 1 1 1 1 1 
1 1 1 1 1 1 1 1 1 
1 1 1 1 1 1 1 1 1 
1 1 1 1 1 1 1 1 1 
1 1 1 1 1 1 1 1 1 
1 1 1 1 1 1 1 1 1 
1 1 1 1 1 1 1 1 1 
1 1 1 1 1 1 1 1 1 
1 1 1 1 1 1 1 1 1 
1 1 1 1 1 1 1 1 1 
1 1 1 1 1 1 1 1 1 
1 1 1 1 1 1 1 1 1 
1 1 1 1 1 1 1 1 1 
1 1 1 1 1 1 1 1 1 
1 1 1 1 1 1 1 1 1 
1 1 1 1 1 1 1 1 1 
1 1 1 1 1 1 1 1 1 
1 1 1 1 1 1 1 1 1 
1 1 1 1 1 1 1 1 1 
1 1 1 1 1 1 1 1 1 
1 1 1 1 1 1 1 1 1 
1 1 1 1 1 1 1 1 1 
1 1 1 1 1 1 1 1 1 
1 1 1 1 1 1 1 1 1 
1 1 1 1 1 1 1 1 1 
1 1 1 1 1 1 1 1 1 
1 1 1 1 1 1 1 1 1 
1 1 1 1 1 1 1 1 1 
1 1 1 1 1 1 1 1 1 
1 1 1 1 1 1 1 1 1 
1 1 1 1 1 1 1 1 1 
1 1 1 1 1 1 1 1 1 
1 1 1 1 1 1 1 1 1 
1 1 1 1 1 1 1 1 1 
1 1 1 1 1 1 1 1 1 
1 1 1 1 1 1 1 1 1 
1 1 1 1 1 1 1 1 1 
1 1 1 1 1 1 1 1 1 
1 1 1 1 1 1 1 1 1 
1 1 1 1 1 1 1 1 1 
1 1 1 1 1 1 1 1 1 
1 1 1 1 1 1 1 1 1 
1 1 1 1 1 1 1 1 1 
1 1 1 1 1 1 1 1 1 
1 1 1 1 1 1 1 1 1 
1 1 1 1 1 1 1 1 1 
1 1 1 1 1 1 1 1 1 
1 1 1 1 1 1 1 1 1 
1 1 1 1 1 1 1 1 1 
1 1 1 1 1 1 1 1 1 
1 1 1 1 1 1 1 1 1 
1 1 1 1 1 1 1 1 1 
1 1 1 1 1 1 1 1 1 
1 1 1 1 1 1 1 1 1 
1 1 1 1 1 1 1 1 1 
1 1 1 1 1 1 1 1 1 
1 1 1 1 1 1 1 1 1 
1 1 1 1 1 1 1 1 1 
1 1 1 1 1 1 1 1 1 
1 1 1 1 1 1 1 1 1 
1 1 1 1 1 1 1 1 1 
1 1 1 1 1 1 1 1 1 
1 1 1 1 1 1 1 1 1 
1 1 1 1 1 1 1 1 1 
1 1 1 1 1 1 1 1 1 
1 1 1 1 1 1 1 1 1 
1 1 1 1 1 1 1 1 1 
1 1 1 1 1 1 1 1 1 
1 1 1 1 1 1 1 1 1 
1 1 1 1 1 1 1 1 1 
1 1 1 1 1 1 1 1 1 
1 1 1 1 1 1 1 1 1 
1 1 1 1 1 1 1 1 1 
1 1 1 1 1 1 1 1 1 
1 1 1 1 1 1 1 1 1 
1 1 1 1 1 1 1 1 1 
1 1 1 1 1 1 1 1 1 
1 1 1 1 1 1 1 1 1 
1 1 1 1 1 1 1 1 1 
1 1 1 1 1 1 1 1 1 
1 1 1 1 1 1 1 1 1 
1 1 1 1 1 1 1 1 1 
1 1 1 1 1 1 1 1 1 
1 1 1 1 1 1 1 1 1 
1 1 1 1 1 1 1 1 1 
1 1 1 1 1 1 1 1 1 
1 1 1 1 1 1 1 1 1 
1 1 1 1 1 1 1 1 1 
1 1 1 1 1 1 1 1 1 
1 1 1 1 1 1 1 1 1 
1 1 1 1 1 1 1 1 1 
1 1 1 1 1 1 1 1 1 
1 1 1 1 1 1 1 1 1 
1 1 1 1 1 1 1 1 1 
1 1 1 1 1 1 1 1 1 
1 1 1 1 1 1 1 1 1 
1 1 1 1 1 1 1 1 1 
1 1 1 1 1 1 1 1 1 
1 1 1 1 1 1 1 1 1 
1 1 1 1 1 1 1 1 1 
1 1 1 1 1 1 1 1 1 
1 1 1 1 1 1 1 1 1 
1 1 1 1 1 1 1 1 1 
1 1 1 1 1 1 1 1 1 
1 1 1 1 1 1 1 1 1 
1 1 1 1 1 1 1 1 1 
1 1 1 1 1 1 1 1 1 
1 1 
i 3 2000 int
0 0 0 0 0 0 0 0 0 
0 0 0 0 0 0 0 0 0 
0 0 0 0 0 0 0 0 0 
0 0 0 0 1 0 0 0 0 
0 0 0 0 0 0 0 0 0 
0 0 0 0 0 0 0 0 0 
-1 0 0 0 0 0 0 0 0 
0 0 0 0 0 0 0 0 0 
0 0 0 0 0 0 0 0 0 
0 0 0 0 0 0 0 0 0 
0 0 0 0 0 0 0 0 0 
0 0 0 0 0 0 0 0 0 
0 0 0 0 0 0 0 0 0 
0 0 0 0 0 0 0 0 0 
0 0 0 0 0 0 0 0 0 
0 0 0 0 0 0 0 0 0 
0 0 0 0 0 0 0 0 0 
0 0 0 0 0 0 0 0 0 
0 0 0 0 0 0 0 0 0 
0 0 0 1 0 0 0 0 0 
0 0 0 0 0 0 0 0 0 
0 0 0 0 0 0 0 0 0 
0 0 0 0 0 0 1 0 0 
0 0 0 0 0 0 0 0 0 
0 0 0 0 0 0 0 0 0 
0 0 0 0 0 0 0 0 0 
0 0 0 0 0 0 0 0 0 
0 0 0 0 0 0 0 0 0 
0 0 0 0 0 0 0 0 0 
0 0 0 0 0 0 0 0 0 
0 0 0 0 0 0 0 0 0 
0 0 0 0 0 0 0 0 0 
0 0 0 0 0 0 1 0 0 
0 0 0 0 0 0 0 0 0 
0 0 0 0 0 0 0 0 0 
0 0 0 0 0 0 0 0 0 
0 0 0 0 0 0 0 0 0 
0 0 0 0 0 0 0 0 0 
0 0 0 0 -1 0 0 0 0 
0 0 0 0 0 0 0 0 0 
0 0 0 0 0 0 0 0 0 
0 0 0 0 0 0 0 -1 0 
0 0 0 0 0 0 0 -1 0 
0 0 0 0 0 0 0 0 0 
0 0 0 0 0 0 0 0 0 
0 0 0 0 0 0 0 0 0 
0 0 0 0 0 0 0 1 0 
0 0 0 0 0 0 0 0 0 
0 0 0 0 0 0 0 0 0 
0 0 0 0 0 0 0 0 0 
0 0 0 0 0 0 0 0 0 
0 0 0 0 0 0 0 0 0 
0 0 0 0 0 0 0 0 0 
0 0 0 0 0 0 0 0 0 
0 0 0 0 0 0 0 0 0 
0 0 0 0 0 0 0 0 0 
0 0 0 0 0 0 0 0 0 
1 0 0 0 0 0 0 0 0 
0 0 0 0 0 0 0 0 0 
0 0 0 0 0 0 0 0 0 
0 0 0 0 0 0 0 0 0 
0 0 0 0 0 0 0 0 0 
0 0 0 0 0 0 0 0 0 
0 0 0 0 0 0 0 0 0 
0 0 0 0 0 0 0 0 0 
0 0 0 0 0 0 0 0 0 
0 0 0 0 0 0 0 0 0 
0 0 0 0 0 0 0 0 0 
0 0 0 0 0 0 0 0 0 
1 0 0 0 0 0 0 0 0 
0 0 0 0 0 0 0 0 0 
0 0 0 0 0 0 0 0 0 
0 0 0 0 0 0 0 0 0 
1 0 0 0 0 0 0 0 0 
0 0 0 0 0 0 0 0 0 
0 0 0 0 0 0 0 0 0 
0 0 0 0 0 0 0 0 0 
0 0 0 0 0 0 0 0 0 
0 0 0 0 0 0 1 0 0 
0 0 0 0 0 0 0 0 0 
0 0 0 0 0 0 0 0 0 
0 0 0 0 0 0 0 0 0 
0 0 0 0 0 0 0 0 0 
0 0 0 0 0 0 0 0 0 
0 0 0 0 0 0 -1 0 0 
0 0 0 0 0 0 0 0 0 
0 0 0 0 0 0 0 0 0 
0 0 0 0 0 0 0 0 0 
0 0 0 0 0 0 0 0 0 
0 -1 0 0 0 0 0 0 0 
0 0 0 0 0 0 0 0 0 
0 0 0 0 0 0 0 0 0 
0 0 0 0 0 0 0 0 0 
0 0 0 0 0 0 0 0 0 
0 0 0 0 0 0 0 0 0 
0 0 0 0 1 0 0 0 0 
0 0 0 0 0 0 0 0 0 
0 1 0 0 0 0 0 0 0 
0 0 0 -1 0 0 0 0 0 
0 0 0 0 0 0 0 0 0 
0 0 0 0 0 0 0 0 0 
0 0 0 0 0 0 0 0 0 
0 0 0 0 0 0 0 0 0 
0 0 0 0 0 0 0 0 0 
-1 0 0 0 0 0 0 0 0 
0 0 0 0 0 0 0 0 0 
0 0 0 0 0 0 0 0 0 
0 0 0 0 0 0 0 0 0 
0 0 0 0 0 0 0 0 0 
0 0 0 0 0 0 0 0 0 
0 0 0 0 0 0 0 0 0 
0 0 0 0 0 0 0 0 0 
0 0 0 0 0 0 0 0 0 
0 0 0 0 0 0 0 0 0 
0 0 0 0 0 0 0 0 0 
0 0 0 0 0 0 0 0 0 
0 0 0 0 0 0 0 0 0 
0 0 0 0 0 0 0 0 0 
0 0 0 0 0 0 0 0 0 
0 0 0 0 0 0 0 0 0 
0 0 0 0 0 0 0 0 0 
0 0 0 0 0 0 1 0 0 
1 0 0 0 0 0 0 0 0 
0 0 0 0 0 0 0 0 0 
0 0 0 0 0 0 0 0 0 
0 0 0 0 0 0 0 0 0 
0 0 0 0 0 0 0 0 0 
0 0 0 0 0 0 0 0 0 
0 0 0 0 0 0 0 0 0 
0 0 0 0 0 0 0 0 0 
0 0 0 0 0 0 0 0 0 
0 0 0 0 0 0 0 0 0 
0 0 0 0 0 0 0 0 0 
0 0 0 0 0 0 0 0 0 
0 0 0 0 0 0 0 0 0 
0 0 0 0 0 0 -1 0 0 
0 0 0 0 0 0 0 0 0 
0 0 0 0 0 0 0 0 0 
0 0 0 0 0 0 0 0 0 
0 0 0 0 0 0 0 0 0 
0 0 0 0 0 0 0 0 0 
0 0 0 0 0 0 -1 0 0 
0 0 0 0 0 0 0 0 0 
0 0 0 0 0 0 0 0 0 
0 0 0 0 0 0 0 0 0 
0 0 0 0 0 0 0 0 0 
0 0 0 0 0 0 0 0 0 
0 0 0 0 0 0 0 -1 0 
0 0 0 0 0 0 0 0 0 
0 0 0 0 0 0 0 0 0 
0 0 0 0 0 0 0 0 0 
0 0 0 0 0 0 0 0 0 
0 0 0 0 0 0 0 0 0 
0 0 0 0 0 0 -1 0 0 
0 0 0 0 0 0 1 0 0 
0 0 0 0 0 0 0 0 0 
0 0 0 0 0 0 0 1 0 
0 0 0 0 0 0 0 0 0 
0 0 0 0 0 0 0 0 0 
0 1 0 0 0 0 0 0 0 
0 0 0 0 0 0 0 0 0 
0 0 0 0 1 0 0 0 0 
0 0 0 0 0 0 0 0 0 
0 0 0 0 0 0 0 0 0 
0 0 0 0 0 0 0 0 0 
0 0 0 0 0 0 0 0 0 
0 0 0 1 0 0 0 0 0 
0 0 0 0 0 0 0 0 0 
0 0 0 0 0 0 0 0 0 
0 0 0 0 0 0 0 0 0 
0 0 0 0 0 0 0 0 0 
0 0 0 0 0 0 0 0 0 
0 0 0 0 0 0 0 0 0 
0 0 0 0 0 0 0 0 0 
0 0 0 0 0 0 0 0 0 
0 0 0 0 0 0 0 0 0 
0 0 0 0 0 0 0 0 0 
0 0 0 0 0 0 0 0 0 
0 0 0 0 0 0 0 0 0 
0 0 0 0 0 0 0 0 0 
0 0 0 1 0 0 0 0 0 
0 0 0 0 0 0 0 0 0 
0 0 0 0 0 0 0 0 0 
0 0 0 0 0 0 0 0 0 
0 0 0 0 0 0 0 0 0 
0 0 0 0 0 0 1 0 0 
0 0 0 0 0 0 0 0 0 
0 0 0 0 0 0 0 0 0 
0 0 0 0 0 0 0 0 0 
0 0 0 0 0 0 0 0 0 
0 0 0 0 0 0 0 0 0 
0 0 0 0 0 0 0 0 0 
0 0 0 0 0 0 0 0 0 
0 0 0 0 0 0 0 0 0 
0 0 0 0 0 0 0 0 0 
0 0 0 0 0 0 0 0 0 
0 0 0 0 0 0 0 0 0 
0 0 0 0 0 0 0 0 0 
0 0 0 0 0 0 0 0 0 
0 0 0 0 0 0 0 0 0 
0 0 0 0 0 0 -1 0 0 
0 0 0 0 0 0 0 0 0 
0 0 0 0 0 0 0 0 0 
0 0 0 0 0 0 0 0 0 
0 0 0 0 0 0 0 0 0 
0 0 0 0 0 0 0 0 0 
0 0 0 0 0 0 0 0 0 
0 0 0 0 0 0 0 0 0 
0 0 0 -1 0 0 0 0 0 
0 -1 0 1 0 0 1 0 0 
0 -1 0 0 0 0 0 0 0 
0 0 0 0 0 0 0 0 0 
0 0 0 0 0 0 0 -1 0 
0 0 0 0 0 0 0 -1 0 
0 0 0 0 -1 0 0 0 0 
1 0 0 0 0 0 0 0 0 
0 0 0 0 0 0 0 0 0 
0 0 0 0 0 0 0 0 0 
0 0 0 0 0 0 0 0 0 
0 0 0 0 0 0 0 0 0 
0 0 0 0 0 0 0 0 0 
0 0 0 0 0 0 0 0 0 
0 0 0 0 0 0 0 0 0 
0 0 0 0 0 0 0 0 0 
0 0 0 0 0 0 0 0 0 
0 0 0 0 0 0 0 0 0 
0 0 0 0 0 0 0 0 0 
0 0 0 0 0 0 0 0 0 
0 0 0 0 0 0 0 0 0 
0 0 0 0 0 0 0 0 0 
0 0 0 0 0 0 0 0 0 
0 0 0 0 0 0 0 0 0 
0 0 0 0 0 0 0 0 0 
0 0 0 0 0 0 0 0 0 
0 0 0 0 0 0 0 0 0 
0 0 0 0 0 0 0 0 0 
0 0 0 0 0 0 0 0 0 
0 0 0 0 0 0 -1 0 0 
0 0 0 0 0 0 0 0 0 
0 0 0 0 0 0 0 0 0 
0 0 0 0 0 0 0 0 0 
0 0 0 0 0 0 1 0 0 
0 0 0 0 0 0 0 0 0 
0 0 0 0 0 0 0 0 0 
0 0 0 1 0 0 0 0 0 
0 0 0 0 0 0 0 0 0 
0 0 0 0 0 0 0 0 0 
0 0 0 0 0 0 0 0 0 
0 0 0 0 0 0 0 0 0 
0 0 0 0 0 0 0 0 0 
0 0 0 0 0 0 0 0 0 
0 0 0 0 0 0 0 0 0 
0 0 0 0 0 0 0 0 0 
0 0 0 0 0 0 0 0 0 
1 0 0 0 0 0 0 0 0 
0 0 0 0 0 0 0 0 0 
0 0 0 0 0 0 0 0 0 
0 0 0 0 0 0 0 0 0 
0 0 0 0 0 0 1 0 0 
0 -1 0 0 0 0 0 0 0 
0 0 0 0 0 0 0 0 0 
0 0 0 0 0 0 0 0 0 
0 0 0 0 0 0 0 0 0 
0 0 0 0 0 0 0 0 0 
0 0 0 0 0 0 0 0 0 
0 0 0 0 0 0 0 0 0 
0 0 0 0 0 0 0 0 0 
0 0 0 0 0 0 0 0 0 
0 0 0 0 0 0 0 1 0 
0 1 0 0 0 0 0 0 0 
0 0 0 0 0 0 0 0 0 
0 0 0 0 0 0 0 0 0 
0 0 0 0 0 0 0 0 0 
0 0 0 0 0 0 0 0 0 
0 0 0 0 0 0 0 0 0 
0 0 0 0 0 0 0 0 0 
-1 0 0 0 0 0 0 0 0 
1 0 0 0 0 0 0 0 0 
0 0 0 0 0 0 0 0 0 
0 0 0 0 0 0 0 0 0 
0 0 0 0 0 0 1 0 0 
0 0 0 0 0 0 0 0 0 
0 0 0 0 0 0 0 0 0 
0 0 0 0 0 0 0 0 0 
0 0 0 0 0 0 0 0 0 
0 0 0 0 0 0 0 0 0 
0 0 0 0 0 0 0 0 0 
0 0 0 0 0 0 0 0 0 
0 0 0 0 0 0 0 0 0 
0 0 0 0 0 0 0 0 0 
0 0 0 0 0 0 0 0 0 
0 0 0 0 0 0 0 0 0 
0 0 0 0 0 0 0 0 0 
0 0 0 -1 0 0 0 0 0 
0 0 0 0 0 0 0 0 0 
0 0 0 0 0 0 0 0 0 
0 0 0 0 0 0 0 0 0 
0 0 0 0 0 0 0 0 0 
0 0 0 0 0 0 0 0 0 
0 0 0 0 0 0 0 0 0 
0 0 0 0 0 0 0 0 0 
0 0 0 0 0 0 0 0 0 
0 0 0 0 0 0 0 0 0 
0 0 0 0 0 0 0 0 0 
0 0 0 0 0 0 0 0 0 
0 0 0 0 0 0 0 0 0 
0 0 0 0 0 0 0 0 0 
0 0 0 0 0 0 0 0 0 
0 0 0 0 0 0 0 0 0 
0 0 0 0 0 0 0 0 0 
0 0 0 0 0 0 0 0 0 
0 -1 0 0 0 0 0 0 0 
0 0 0 0 0 0 0 0 0 
0 0 0 0 0 0 0 0 0 
0 0 0 0 0 0 0 0 0 
0 0 0 0 0 0 0 0 0 
0 0 0 -1 0 0 0 0 0 
0 0 0 0 0 0 0 0 0 
0 0 0 0 0 0 0 0 0 
0 0 0 0 0 0 0 0 0 
0 0 0 0 0 0 0 0 0 
0 1 0 0 0 0 0 0 0 
0 0 0 0 0 0 0 0 0 
0 0 0 0 0 0 0 0 0 
0 0 0 0 0 0 0 0 0 
0 0 0 0 0 0 0 0 0 
0 0 0 0 0 0 0 0 0 
0 0 0 0 0 0 0 0 0 
0 0 0 0 0 0 0 0 0 
0 0 0 0 0 0 0 0 0 
0 0 0 0 0 0 0 0 0 
0 0 0 0 0 0 0 0 0 
0 0 0 0 0 0 0 0 0 
0 0 0 0 0 0 0 0 0 
0 0 0 0 0 0 0 0 0 
0 0 0 0 0 0 0 0 0 
0 0 0 0 0 0 0 0 0 
0 0 0 0 0 0 0 0 0 
0 0 0 0 0 0 0 0 0 
0 0 0 0 0 0 0 0 0 
1 0 0 0 0 0 0 0 0 
0 0 0 0 0 0 0 0 0 
0 0 0 0 0 0 0 0 0 
0 0 0 0 0 0 0 0 0 
0 0 0 0 0 0 0 0 0 