# vtk DataFile Version 4.0
Generated by LIGGGHTS
ASCII
DATASET POLYDATA
POINTS 2000 float
-87.9284 -92.1815 10.0015 -94.8527 -113.658 9.99973 -105.877 -131.077 9.99802 
-117.575 -114.858 9.99749 -88.7397 -141.381 10.0457 -128.247 -132.828 9.99973 
-107.12 -97.8095 9.99829 -117.214 -127.101 25.9904 -109.763 -108.587 27.3443 
-133.169 -115.563 22.4931 -118.382 -90.7079 24.9195 -92.5499 -118.128 30.8817 
-130.171 -84.5498 9.99327 -56.6287 -100.785 9.99895 -30.835 -122.416 10.0005 
-75.5523 -108.354 9.98468 -66.4489 -139.132 9.99768 -79.0061 -126.113 18.5288 
-37.8923 -104.405 15.9833 -60.3149 -119.156 17.108 -47.2061 -133.583 12.6691 
-58.9672 -140.701 31.8017 -38.236 -138.88 29.7387 -33.539 -85.5822 23.0649 
-50.3627 -122.795 34.0617 -1.79355 -104.539 9.99513 0.937781 -138.598 9.99805 
18.069 -102.223 9.99634 -20.3189 -96.9561 10.0011 10.2208 -120.616 9.9979 
-10.8393 -122.439 9.98572 8.20323 -130.968 26.9928 20.8814 -91.8087 26.8313 
1.01108 -91.0401 24.475 20.2534 -114.601 26.2584 25.3819 -131.773 16.7482 
38.1195 -101.16 22.9144 55.3059 -128.111 9.99281 67.0451 -84.6329 10.0001 
37.7251 -116.422 9.99706 65.5942 -110.863 9.99973 47.566 -89.1639 9.9986 
40.2934 -123.088 28.6742 138.66 -97.3129 18.004 117.455 -127.954 9.98817 
132.438 -114.579 9.99103 100.35 -92.7294 10.0043 84.9094 -105.457 10 
94.459 -124.89 9.99848 119.281 -91.6572 16.6026 136.399 -131.103 20.5364 
110.694 -109.468 13.6019 93.6181 -101.409 27.9029 130.504 -111.462 29.6404 
105.563 -120.849 29.2266 119.069 -139.111 26.4903 111.032 -93.1029 34.7941 
-95.9193 -32.4253 15.9974 -112.558 -75.0055 9.9994 -122.064 -57.4091 9.99964 
-113.756 -39.1957 9.99697 -90.0016 -71.8804 9.99964 -102.668 -57.1937 14.8857 
-99.9425 -83.1057 23.2353 -132.551 -68.8963 22.5712 -132.79 -48.8686 24.5594 
-114.786 -41.8988 29.7826 -90.837 -47.1687 29.0121 -84.9769 -49.246 9.99971 
-140.045 -84.3204 32.8611 -114.91 -62.6538 29.7562 -138.924 -36.6091 9.99823 
-95.4297 -66.1607 33.3784 -32.0829 -68.3816 9.99973 -48.4695 -82.2519 10.1166 
-59.8368 -65.7978 9.9998 -75.9971 -63.3005 21.5133 -57.8719 -32.9044 24.9889 
-23.3909 -47.501 9.99973 -17.2055 -56.2529 26.9188 11.2234 -56.623 9.99973 
-3.16672 -42.7036 10.0022 4.74943 -77.2712 9.99973 24.8556 -81.2795 9.99973 
-8.24939 -62.0467 10.0003 -15.656 -32.5655 25.6523 -15.3351 -79.1298 17.6313 
23.783 -65.5215 22.9591 7.8045 -73.7057 31.7603 38.4454 -81.0285 25.8297 
44.3294 -69.4277 9.99982 50.5928 -46.5124 9.99973 72.7775 -56.1563 9.99022 
31.0338 -51.4417 9.9884 71.1887 -41.442 23.4286 41.5125 -56.8431 26.1387 
60.3191 -63.2558 23.9201 53.1257 -41.6537 31.991 61.2174 -29.4745 9.99973 
84.859 -83.8453 19.0606 85.9935 -40.647 10.0121 90.7982 -67.0296 9.99951 
132.782 -78.465 9.99854 118.409 -58.2653 9.99968 108.489 -74.8874 15.0276 
113.889 -38.7785 10.4109 138.397 -57.3935 9.99975 129.121 -42.3425 23.1253 
125.216 -72.7603 27.6055 -119.868 4.96301 9.99172 -104.291 -10.4816 9.99779 
-123.174 -21.5399 12.7683 -132.709 -3.91897 22.4772 -108.475 -12.2701 29.4706 
-89.7628 -19.3177 29.8081 -111.227 14.2016 25.4743 -85.0647 -16.738 9.99547 
-129.912 21.2665 24.6607 -105.963 25.7365 9.99975 -123.365 -24.5298 34.7488 
-45.8258 4.86598 10.0137 -29.8924 -7.22209 10.0042 -76.2434 13.6285 24.9855 
-28.4557 22.0109 27.0772 -42.7846 -1.37926 28.7946 -37.9807 26.2084 9.99958 
-26.7876 -26.9814 9.99967 21.8012 -26.0612 32.2305 -6.14307 -22.9266 9.99933 
-21.8803 13.9417 9.99966 -10.2695 -3.35751 10.0008 1.37135 1.5444 25.5463 
7.45197 12.4963 9.9828 20.6583 8.28938 25.5405 26.078 19.7667 10.0556 
32.9413 -1.00362 10.0365 46.9578 13.2628 9.99971 81.741 -15.1572 9.99257 
60.6482 -1.63188 9.98638 71.2038 21.1359 9.99972 38.2904 22.6353 25.7424 
62.1956 19.7177 29.3361 38.7223 4.51125 34.1797 139.731 -16.2764 9.99677 
87.2995 14.5704 21.0527 98.9869 -25.4487 9.99668 137.909 6.78099 9.99329 
103.805 18.8042 9.99277 96.2989 0.225352 9.99973 139.695 26.8577 9.99783 
122.1 -21.9874 17.532 118.917 -3.68549 9.98755 105.482 -12.2762 23.5666 
-88.9582 67.7814 9.99097 -112.091 59.7297 9.9993 -127.447 40.7469 9.99748 
-136.664 78.7869 29.4856 -129.713 63.0712 18.8468 -99.4376 46.3967 17.8805 
-116.495 39.4109 26.6756 -131.286 81.3523 9.99973 -81.1052 45.0526 9.99966 
-35.265 69.4101 24.995 -66.3235 63.3198 9.9983 -52.4597 40.6053 9.99973 
-64.2203 49.6681 24.4601 -72.7619 74.6135 25.1933 -83.3393 47.7063 30.0056 
20.7972 79.7989 9.99521 -4.42132 62.4473 9.99625 -23.4851 39.9876 9.99978 
8.65409 70.446 22.8394 22.6118 55.1626 10.0011 2.34571 37.6584 33.7528 
-5.07705 82.4323 10.0029 26.6184 78.7168 29.0928 31.4776 59.3851 27.4705 
39.1109 34.9311 9.99542 63.1659 39.4496 10.0029 62.0381 63.434 9.99604 
39.347 72.2696 10.002 80.2873 49.7849 9.99973 77.9055 32.3106 27.5193 
52.2913 36.8885 26.59 45.148 53.5469 14.0909 80.0561 72.1355 9.9998 
69.5308 50.4924 27.4912 50.7511 55.7235 33.16 141.059 39.6024 25.3577 
120.475 32.389 9.98965 88.3312 31.4739 9.99941 119.353 59.0801 9.99122 
105.133 73.1371 9.99842 104.158 43.9502 9.998 138.093 52.1027 9.99854 
95.1347 58.7695 19.9395 118.282 45.6709 24.7768 92.1764 83.2112 21.4209 
115.981 69.5624 26.6897 132.426 73.262 15.2542 97.4529 36.534 27.3188 
-112.452 88.2915 9.99973 -114.314 120.035 24.9939 -139.767 96.3471 20.4424 
-86.9976 104.11 9.9957 -76.9027 135.321 25.2838 -76.5066 87.09 10.0261 
-57.2155 92.3665 9.99918 -46.5594 109.29 10.0688 -79.7639 122.751 9.99705 
-50.7795 128.858 9.99973 -31.3143 104.181 25.0381 -31.2367 136.687 9.99622 
-33.8259 123.632 28.9393 -28.0456 116.948 9.99911 -18.3583 138.069 25.237 
18.6205 132.233 9.98802 -10.9504 127.324 9.99972 -2.9333 109.006 9.99747 
8.83267 90.68 21.7765 16.629 104.853 10.0081 3.81938 128.796 23.4695 
-14.9037 117.096 26.7517 25.7537 99.7097 27.5725 24.6864 131.58 29.019 
-11.5044 96.327 22.8667 8.51872 109.858 27.8779 83.4919 139.366 9.99973 
34.3864 95.6543 9.99406 63.576 134.859 9.99973 36.7041 116.561 9.99837 
57.1226 115.863 9.99973 41.0785 139.837 9.99737 80.4174 119.485 9.99222 
68.6549 122.578 25.8558 50.3227 131.762 25.7835 59.8378 89.5271 33.2148 
37.9137 116.612 29.9595 125.889 91.411 9.99519 84.843 97.9196 9.99969 
117.04 109.339 9.98841 139.398 134.167 9.99784 110.786 135.193 9.99673 
105.319 93.1344 10.0523 136.958 112.558 9.9952 99.9692 118.889 14.1356 
124.74 124.876 19.9345 88.2752 123.378 29.7449 -135.363 -103.082 37.9598 
-103.687 -132.111 39.8441 -129.223 -125.237 41.8861 -112.5 -115.094 46.0545 
-89.8726 -122.118 50.2929 -87.4495 -137.234 63.1619 -105.834 -122.556 63.3665 
-125.149 -127.433 61.3598 -132.248 -110.66 71.8343 -105.507 -140.118 72.9185 
-92.6432 -107.534 63.6891 -128.422 -98.3601 87.4956 -132.651 -122.175 88.1812 
-140.529 -113.966 53.9332 -75.5941 -129.91 38.3297 -71.0372 -92.3273 40.7526 
-44.112 -100.171 61.7386 -73.5052 -121.965 61.965 -61.2007 -87.3214 73.9671 
-55.0272 -120.801 53.4037 -43.3115 -136.831 49.9794 -28.6468 -107.119 75.7751 
-59.2423 -110.371 69.9354 -54.2204 -128.647 76.305 -35.1271 -125.655 71.1975 
-79.6017 -96.9476 74.5511 -73.5865 -132.197 80.43 -63.3707 -138.992 51.3046 
-17.7802 -113.871 43.1871 15.5126 -102.614 42.8104 13.0481 -125.921 54.5547 
3.53691 -119.127 70.7766 -3.4381 -139.947 61.602 -11.4353 -93.5684 70.9709 
23.7272 -133.344 39.3684 8.53816 -94.7644 72.3979 -14.6459 -127.708 75.1726 
23.7505 -94.4516 59.4168 8.14642 -137.315 77.6893 19.9597 -110.24 78.9929 
25.9575 -128.871 74.223 27.7526 -113.98 60.965 26.5177 -91.7218 82.7895 
3.1599 -86.0423 46.8079 73.0404 -127.791 40.1564 39.218 -124.693 48.5777 
54.3499 -114.534 66.6126 39.9659 -105.727 42.2966 81.1666 -113.181 71.2037 
41.9816 -137.249 63.8897 39.7508 -101.8 71.627 60.2163 -136.288 72.0337 
44.6726 -127.605 81.1943 79.3218 -132.476 76.528 103.683 -118.008 53.9391 
135.033 -134.314 40.229 122.478 -112.18 47.9329 115.792 -130.672 44.3049 
128.502 -93.4149 44.536 102.057 -137.925 56.8923 96.3978 -86.1457 46.5394 
109.399 -98.8891 55.1451 89.7368 -102.032 56.9717 121.226 -132.987 63.397 
132.164 -98.5826 63.6767 97.2176 -125.109 71.4753 139.132 -127.742 70.6904 
97.5019 -86.3528 66.659 132.587 -108.677 81.9142 113.283 -101.133 82.2467 
118.421 -113.579 67.4603 122.741 -126.382 82.1982 94.3538 -106.851 85.538 
-116.544 -82.2197 58.8172 -127.129 -50.7188 43.6681 -85.7609 -65.5991 57.9329 
-101.608 -34.5827 61.3671 -129.231 -52.75 72.8504 -95.5739 -63.6829 79.8479 
-140.297 -34.9668 36.8217 -78.4024 -77.0795 72.5754 -28.3767 -35.7325 43.598 
-75.2418 -57.299 43.0936 -66.5107 -43.4666 57.2182 -65.8633 -63.3399 59.69 
-50.3443 -40.7288 70.3828 -77.3155 -57.2002 74.898 -59.373 -67.8412 78.1164 
-30.8259 -67.7658 57.4425 -68.7692 -39.3969 78.0381 -30.7492 -37.0327 74.1861 
-45.1367 -83.453 85.2584 -47.0008 -53.7889 85.1538 -42.8441 -28.6704 56.3058 
-0.713023 -56.8074 38.2178 -8.68842 -39.1897 43.3018 17.6284 -61.0129 67.7264 
-13.5315 -37.51 62.636 4.47085 -32.1222 82.4924 4.78621 -28.8226 62.7318 
28.6355 -83.5242 43.2955 46.2913 -36.1811 55.1018 61.8704 -81.0713 53.997 
65.943 -47.1652 46.3167 78.8122 -48.7507 67.8032 59.0048 -47.9904 65.0516 
71.2344 -28.4651 73.2102 67.7288 -44.9836 84.0182 47.0857 -47.6661 81.1012 
51.2744 -29.4481 73.9966 59.2842 -63.2409 84.0014 78.0067 -69.5993 86.9695 
92.1123 -83.7202 85.7395 140.5 -81.9534 83.5303 100.068 -51.9247 40.1803 
116.165 -80.1928 53.0769 135.411 -54.0502 38.1247 133.324 -71.9166 46.8665 
108.949 -70.0874 68.7496 131.401 -78.3656 65.8922 89.0885 -66.3697 70.544 
130.062 -59.9213 73.4968 119.861 -82.117 81.8106 93.7595 -33.175 76.5659 
-99.0978 -3.78034 44.9585 -135.305 -9.90089 41.374 -111.643 20.4998 44.8225 
-119.722 2.5927 39.458 -112.581 1.53459 58.7571 -110.774 21.0708 65.3423 
-94.3492 16.8947 54.7453 -132.364 4.37859 58.0423 -106.537 5.67041 77.3673 
-127.118 14.1075 74.7283 -92.0273 -0.948117 63.4576 -120.587 -8.24592 74.4304 
-87.016 8.34843 86.7853 -102.622 -10.9668 87.7501 -140.458 26.8799 82.4431 
-121.416 -23.4246 87.9608 -84.4177 -10.0992 79.5215 -77.603 -13.8042 46.6673 
-44.2791 17.9391 38.6204 -68.1666 0.792527 56.5426 -60.1119 19.0631 55.549 
[...]
POINT_DATA 2000
FIELD FieldData 7
id 1 2000 int
41 77 196 230 301 308 107 205 282 
106 55 438 411 53 85 259 296 439 
157 275 424 371 40 273 71 185 265 
297 299 410 440 172 95 351 336 437 
49 33 300 376 408 397 216 380 59 
139 141 164 29 30 379 335 434 394 
283 247 47 36 142 338 414 456 32 
161 261 453 80 276 171 381 245 114 
425 112 231 246 215 10 143 211 115 
208 232 365 48 243 45 167 75 149 
113 174 222 318 108 354 285 317 359 
201 200 117 252 262 286 314 395 334 
274 239 342 66 147 255 443 309 413 
278 238 405 50 345 20 46 220 187 
225 11 212 69 37 358 390 416 347 
122 123 197 264 430 315 204 219 298 
256 135 346 54 97 178 213 271 404 
84 199 320 400 234 450 152 444 362 
8 279 321 250 384 378 195 240 399 
186 111 12 169 73 133 131 132 389 
419 449 229 369 375 102 72 374 99 
330 253 34 154 221 266 173 352 366 
58 329 206 138 6 284 179 328 184 
224 168 311 455 295 385 90 88 78 
62 302 339 79 83 218 426 127 128 
294 433 344 341 110 227 396 421 429 
251 242 18 423 96 160 209 288 367 
370 452 116 198 203 244 343 442 166 
304 361 401 448 1864 1820 1025 1285 1068 
272 223 9 82 130 350 119 409 290 
383 1007 1904 1249 1749 292 2 241 156 
64 76 210 263 1855 1873 364 1584 1941 
1011 418 327 293 22 144 165 382 323 
332 42 1715 1811 1945 137 51 125 445 
81 155 249 436 74 1428 1281 1934 720 
1920 856 700 1308 1665 1450 5 331 388 
26 307 552 183 319 422 65 163 191 
236 1719 1793 23 1676 1730 903 642 415 
417 281 28 226 1366 402 39 392 14 
44 189 306 104 931 1603 118 89 1953 
997 1922 25 86 313 398 180 188 1317 
1870 1643 581 43 412 129 322 761 1508 
303 326 764 1565 176 1155 1520 1143 1112 
739 1819 151 162 68 158 214 257 121 
368 175 427 353 1211 864 874 1540 4 
217 357 202 94 190 349 120 1159 570 
746 1001 268 260 7 100 333 432 457 
70 63 1767 622 1389 153 386 291 15 
277 19 441 1015 1407 839 1908 3 254 
57 228 393 145 177 420 1046 1600 1399 
909 340 1956 377 93 1 270 387 109 
170 181 140 312 91 1163 324 1404 712 
372 61 67 267 60 316 87 1652 590 
583 207 923 709 280 373 235 16 194 
148 789 1080 1406 431 1082 1951 1417 182 
310 103 233 337 35 258 356 24 159 
435 1430 1367 1124 1975 1194 852 105 360 
403 237 287 363 92 348 21 1398 1517 
1852 1685 1191 27 428 391 56 98 1807 
1893 1087 1716 1200 355 1283 407 289 446 
101 192 13 124 1869 1400 1589 701 674 
193 269 146 136 150 1883 1995 771 817 
1501 1706 1836 949 1815 1773 1854 52 305 
325 406 38 126 17 31 447 134 248 
967 1140 1618 1447 741 1424 968 480 1694 
1542 1293 1726 784 954 1929 1771 814 1334 
1878 1938 1195 484 1382 1176 1178 1017 1220 
541 1173 1999 1170 1331 1982 1021 948 1258 
1601 1452 1896 1845 1838 668 907 520 952 
1262 1252 1865 1539 1304 1712 1337 553 1687 
651 548 1678 951 1634 1050 1551 1537 654 
1128 1988 1409 462 1105 1189 1728 1757 1051 
1474 838 1842 1561 1649 599 661 911 914 
1147 1149 1459 866 1829 479 753 974 486 
1527 1840 752 573 1427 845 540 1206 1275 
1683 1488 1656 1543 718 1117 1342 1781 489 
878 995 1045 1171 1578 1013 1994 1077 1866 
833 889 626 1586 875 1130 621 906 1284 
1213 757 793 1894 1421 533 1725 985 1566 
640 1861 602 652 1365 644 1225 1234 1415 
779 862 1373 1874 666 1167 960 723 912 
1042 1673 806 495 1729 1480 1444 521 454 
574 1799 854 658 1442 842 861 1419 1034 
1177 1628 1099 1736 1738 1129 1465 1324 915 
1756 1677 532 1460 754 1063 1190 1496 1947 
1850 628 1453 1031 1696 1023 1066 1718 1563 
1881 698 799 1144 722 1554 1813 451 466 
1340 1831 1271 1745 1401 1391 1572 467 471 
970 594 1385 1912 1675 888 1119 1369 1602 
464 1579 1093 1341 1102 474 580 1468 1499 
1270 1769 506 1533 643 1412 673 1595 1475 
1928 1890 1959 608 1570 1362 470 597 1679 
1172 1074 919 798 1529 1534 1720 1743 965 
975 1803 1884 841 656 1416 1481 892 1040 
1791 1108 1653 566 853 564 1490 492 1647 
1620 1261 1052 1577 1458 1682 1606 660 729 
1761 962 1960 624 1470 1241 1608 664 518 
1131 1903 1326 966 1638 1858 1441 1477 1636 
759 1784 513 1825 1355 1822 803 805 893 
925 728 1438 936 964 1433 848 1931 1891 
1859 1830 1610 1267 1889 1071 469 1734 1887 
810 531 1268 1591 1156 1552 537 1201 1979 
1153 1525 885 1879 562 1892 1054 1684 588 
1919 991 488 1216 749 981 1058 1037 473 
671 630 946 876 1291 1965 1461 508 1229 
1231 1548 1098 461 475 832 1545 1844 1125 
1104 2000 1387 1360 887 1827 522 1667 1263 
696 990 1702 1359 1804 1911 1422 775 459 
565 687 1169 1662 944 1633 801 1483 1055 
820 675 1209 1962 781 1614 1089 1752 835 
670 1462 1576 1980 1101 1780 1060 1135 1203 
1120 969 1978 1582 1361 1487 1094 487 1223 
758 1121 751 1205 1059 1473 1823 938 850 
987 1328 972 1661 1352 1663 1974 589 616 
496 1916 1254 1932 986 1860 539 807 886 
1936 1118 1084 1930 618 1100 686 1166 1711 
730 1026 530 1018 1332 1772 1004 1835 1616 
1935 1622 601 493 1208 1343 1564 1796 1287 
740 1966 755 515 1495 865 1309 896 1532 
1937 1300 1550 1368 1187 788 498 809 894 
935 1740 916 1788 1632 1573 725 770 1507 
1035 1491 1558 528 1036 1076 1467 1397 632 
1707 830 1834 745 961 1414 901 1197 1333 
1569 1282 1494 1846 1062 575 1064 1269 1504 
994 1070 688 1150 607 1126 1318 569 1524 
922 682 1770 645 1049 1092 1701 1863 924 
1312 1948 1917 538 953 1214 1114 895 1613 
732 613 1575 1783 837 713 1056 511 1925 
904 623 1264 1768 705 934 1073 1910 523 
1048 1371 503 1918 600 1138 1466 999 1184 
1255 1849 733 1303 797 1109 1789 1963 802 
1192 1247 1276 1957 1228 1336 738 1808 1867 
1972 525 557 1250 627 641 535 790 1837 
1722 1204 1764 1732 1856 472 1708 1219 1944 
1809 1798 1041 1952 561 1078 1196 1741 1134 
1043 1626 491 1418 942 1313 1992 1549 1175 
1503 604 710 1629 825 1420 800 1455 1897 
1260 1666 567 1356 1818 1226 1370 1810 1505 
1029 478 1354 647 1375 1053 1024 1964 1704 
1942 1432 1165 1760 697 551 1440 547 1802 
831 1376 502 1344 992 1906 1596 1983 1961 
1069 1735 1939 1670 984 1383 1379 1514 545 
920 988 1358 1047 1500 1489 1949 646 1814 
1724 818 959 1245 1664 1122 794 708 1295 
1242 1557 1160 1571 499 667 769 595 1650 
1991 1181 1754 529 1585 1607 1009 1237 736 
685 787 1839 1790 1251 1350 1434 1088 1235 
1547 1828 1853 620 596 1993 483 1090 822 
519 1139 1222 1660 509 1446 1672 1598 1246 
763 1067 1030 1377 1695 689 1973 1439 1289 
526 1674 692 1469 614 1061 1604 1006 679 
681 649 1107 1668 867 742 868 796 1210 
869 1327 1833 476 611 871 774 917 1546 
1297 1623 571 650 1901 1454 902 1805 1699 
1877 510 1457 1705 603 1142 1739 1445 1310 
780 1568 918 870 1116 1512 743 1179 1513 
1152 703 955 693 1277 482 765 1778 945 
971 1232 1876 1113 1133 1516 1273 1968 1832 
908 1425 1493 993 1857 546 1363 1065 1958 
1307 1426 1146 777 1923 695 1151 1174 1559 
1940 1348 750 819 1511 1305 1841 558 1224 
1396 1746 1744 1977 559 1775 1106 760 1556 
631 1594 1976 1502 1530 1882 1755 1010 1593 
1581 1515 1617 1615 1619 1039 1742 910 881 
1969 929 1448 612 744 1580 1000 827 1083 
1555 534 795 657 1353 1821 1429 1812 579 
1646 1826 1921 851 1123 549 572 1136 1541 
655 563 578 762 1240 1311 1700 1574 1338 
1801 690 1185 1875 1753 863 767 1885 1762 
699 998 1641 1967 1028 1899 517 973 1137 
463 1079 731 1230 860 1759 1280 648 1290 
1905 1091 950 1198 847 858 737 941 1782 
1322 1132 1288 615 554 1737 1590 1871 481 
958 785 927 1072 592 928 1095 1408 1611 
899 1274 1996 1012 873 1472 577 505 1306 
678 1168 1509 524 1597 1182 1686 1721 1014 
1162 1022 1492 1637 1239 653 1723 1955 637 
812 1862 634 704 976 560 857 1278 1795 
1800 1588 977 926 1329 1227 1787 1321 1357 
591 576 1645 1521 1592 1847 1851 1221 542 
1141 1212 719 811 747 1005 1302 1411 584 
663 1256 1161 662 846 1215 1691 804 937 
1158 1671 707 1238 715 514 1057 1325 1587 
772 843 1651 1482 586 516 815 855 1032 
1680 1697 1777 890 773 1635 1164 1299 1476 
1621 1690 963 1279 1436 672 568 1817 536 
1364 485 1763 1085 605 1347 1451 1301 905 
1927 500 1538 1792 507 1898 1259 1394 1316 
680 717 1423 821 1345 816 766 1747 556 
716 879 1727 1111 468 1431 826 1392 1915 
1388 900 504 1449 1751 756 947 1924 1506 
1372 1703 829 1522 1642 1907 1127 1086 587 
980 1207 665 1298 1933 1097 1990 1880 891 
1776 834 512 1405 1689 1693 1395 1027 1486 
1640 1320 836 734 748 1188 544 669 477 
791 677 939 1314 1485 1038 1987 638 619 
1019 1218 1766 1386 711 978 1599 1758 1926 
776 1888 1989 982 1413 610 1471 1033 694 
824 1478 1286 1510 943 1748 1456 617 1848 
458 1985 1096 635 1688 1779 1148 956 1390 
1339 1681 1943 606 783 1997 996 1868 1914 
490 1464 1954 683 957 1463 1627 593 1713 
598 1519 1403 1567 1257 1655 921 1016 555 
1669 1909 1381 813 1717 1639 1624 1075 1692 
625 1330 1193 1265 1292 1733 1157 706 1843 
1410 724 1374 1886 989 527 1971 1498 1609 
1714 1236 1008 1393 497 897 1272 1950 1315 
1081 1816 1402 636 1544 543 1296 1946 1984 
1562 714 659 1335 1115 840 1786 1443 1583 
501 1658 930 1648 1484 1346 1654 1233 1044 
1380 849 1349 884 859 585 1553 1186 1630 
933 1531 1794 1266 940 1526 1709 1103 882 
702 1970 877 778 609 1998 1605 1180 1145 
808 582 844 1731 1497 1003 786 1020 1528 
983 1323 1981 1110 880 1319 1560 1002 1243 
1657 1698 1437 1644 465 932 1384 1824 1785 
913 721 898 494 691 1631 792 1248 1435 
1294 735 1872 1612 1183 1518 1479 1895 1253 
1154 633 1797 823 883 1625 1659 1913 1806 
1535 1244 782 1202 1217 1536 1902 1765 872 
979 684 1750 629 727 1199 460 639 550 
1986 768 1351 1900 1378 1710 676 1774 726 
828 1523 
type 1 2000 int
1 1 1 1 1 1 1 1 1 
1 1 1 1 1 1 1 1 1 
1 1 1 1 1 1 1 1 1 
1 1 1 1 1 1 1 1 1 
1 1 1 1 1 1 1 1 1 
1 1 1 1 1 1 1 1 1 
1 1 1 1 1 1 1 1 1 
1 1 1 1 1 1 1 1 1 
1 1 1 1 1 1 1 1 1 
1 1 1 1 1 1 1 1 1 
1 1 1 1 1 1 1 1 1 
1 1 1 1 1 1 1 1 1 
1 1 1 1 1 1 1 1 1 
1 1 1 1 1 1 1 1 1 
1 1 1 1 1 1 1 1 1 
1 1 1 1 1 1 1 1 1 
1 1 1 1 1 1 1 1 1 
1 1 1 1 1 1 1 1 1 
1 1 1 1 1 1 1 1 1 
1 1 1 1 1 1 1 1 1 
1 1 1 1 1 1 1 1 1 
1 1 1 1 1 1 1 1 1 
1 1 1 1 1 1 1 1 1 
1 1 1 1 1 1 1 1 1 
1 1 1 1 1 1 1 1 1 
1 1 1 1 1 1 1 1 1 
1 1 1 1 1 1 1 1 1 
1 1 1 1 1 1 1 1 1 
1 1 1 1 1 1 1 1 1 
1 1 1 1 1 1 1 1 1 
1 1 1 1 1 1 1 1 1 
1 1 1 1 1 1 1 1 1 
1 1 1 1 1 1 1 1 1 
1 1 1 1 1 1 1 1 1 
1 1 1 1 1 1 1 1 1 
1 1 1 1 1 1 1 1 1 
1 1 1 1 1 1 1 1 1 
1 1 1 1 1 1 1 1 1 
1 1 1 1 1 1 1 1 1 
1 1 1 1 1 1 1 1 1 
1 1 1 1 1 1 1 1 1 
1 1 1 1 1 1 1 1 1 
1 1 1 1 1 1 1 1 1 
1 1 1 1 1 1 1 1 1 
1 1 1 1 1 1 1 1 1 
1 1 1 1 1 1 1 1 1 
1 1 1 1 1 1 1 1 1 
1 1 1 1 1 1 1 1 1 
1 1 1 1 1 1 1 1 1 
1 1 1 1 1 1 1 1 1 
1 1 1 1 1 1 1 1 1 
1 1 1 1 1 1 1 1 1 
1 1 1 1 1 1 1 1 1 
1 1 1 1 1 1 1 1 1 
1 1 1 1 1 1 1 1 1 
1 1 1 1 1 1 1 1 1 
1 1 1 1 1 1 1 1 1 
1 1 1 1 1 1 1 1 1 
1 1 1 1 1 1 1 1 1 
1 1 1 1 1 1 1 1 1 
1 1 1 1 1 1 1 1 1 
1 1 1 1 1 1 1 1 1 
1 1 1 1 1 1 1 1 1 
1 1 1 1 1 1 1 1 1 
1 1 1 1 1 1 1 1 1 
1 1 1 1 1 1 1 1 1 
1 1 1 1 1 1 1 1 1 
1 1 1 1 1 1 1 1 1 
1 1 1 1 1 1 1 1 1 
1 1 1 1 1 1 1 1 1 
1 1 1 1 1 1 1 1 1 
1 1 1 1 1 1 1 1 1 
1 1 1 1 1 1 1 1 1 
1 1 1 1 1 1 1 1 1 
1 1 1 1 1 1 1 1 1 
1 1 1 1 1 1 1 1 1 
1 1 1 1 1 1 1 1 1 
1 1 1 1 1 1 1 1 1 
1 1 1 1 1 1 1 1 1 
1 1 1 1 1 1 1 1 1 
1 1 1 1 1 1 1 1 1 
1 1 1 1 1 1 1 1 1 
1 1 1 1 1 1 1 1 1 
1 1 1 1 1 1 1 1 1 
1 1 1 1 1 1 1 1 1 
1 1 1 1 1 1 1 1 1 
1 1 1 1 1 1 1 1 1 
1 1 1 1 1 1 1 1 1 
1 1 1 1 1 1 1 1 1 
1 1 1 1 1 1 1 1 1 
1 1 1 1 1 1 1 1 1 
1 1 1 1 1 1 1 1 1 
1 1 1 1 1 1 1 1 1 
1 1 1 1 1 1 1 1 1 
1 1 1 1 1 1 1 1 1 
1 1 1 1 1 1 1 1 1 
1 1 1 1 1 1 1 1 1 
1 1 1 1 1 1 1 1 1 
1 1 1 1 1 1 1 1 1 
1 1 1 1 1 1 1 1 1 
1 1 1 1 1 1 1 1 1 
1 1 1 1 1 1 1 1 1 
1 1 1 1 1 1 1 1 1 
1 1 1 1 1 1 1 1 1 
1 1 1 1 1 1 1 1 1 
1 1 1 1 1 1 1 1 1 
1 1 1 1 1 1 1 1 1 
1 1 1 1 1 1 1 1 1 
1 1 1 1 1 1 1 1 1 
1 1 1 1 1 1 1 1 1 
1 1 1 1 1 1 1 1 1 
1 1 1 1 1 1 1 1 1 
1 1 1 1 1 1 1 1 1 
1 1 1 1 1 1 1 1 1 
1 1 1 1 1 1 1 1 1 
1 1 1 1 1 1 1 1 1 
1 1 1 1 1 1 1 1 1 
1 1 1 1 1 1 1 1 1 
1 1 1 1 1 1 1 1 1 
1 1 1 1 1 1 1 1 1 
1 1 1 1 1 1 1 1 1 
1 1 1 1 1 1 1 1 1 
1 1 1 1 1 1 1 1 1 
1 1 1 1 1 1 1 1 1 
1 1 1 1 1 1 1 1 1 
1 1 1 1 1 1 1 1 1 
1 1 1 1 1 1 1 1 1 
1 1 1 1 1 1 1 1 1 
1 1 1 1 1 1 1 1 1 
1 1 1 1 1 1 1 1 1 
1 1 1 1 1 1 1 1 1 
1 1 1 1 1 1 1 1 1 
1 1 1 1 1 1 1 1 1 
1 1 1 1 1 1 1 1 1 
1 1 1 1 1 1 1 1 1 
1 1 1 1 1 1 1 1 1 
1 1 1 1 1 1 1 1 1 
1 1 1 1 1 1 1 1 1 
1 1 1 1 1 1 1 1 1 
1 1 1 1 1 1 1 1 1 
1 1 1 1 1 1 1 1 1 
1 1 1 1 1 1 1 1 1 
1 1 1 1 1 1 1 1 1 
1 1 1 1 1 1 1 1 1 
1 1 1 1 1 1 1 1 1 
1 1 1 1 1 1 1 1 1 
1 1 1 1 1 1 1 1 1 
1 1 1 1 1 1 1 1 1 
1 1 1 1 1 1 1 1 1 
1 1 1 1 1 1 1 1 1 
1 1 1 1 1 1 1 1 1 
1 1 1 1 1 1 1 1 1 
1 1 1 1 1 1 1 1 1 
1 1 1 1 1 1 1 1 1 
1 1 1 1 1 1 1 1 1 
1 1 1 1 1 1 1 1 1 
1 1 1 1 1 1 1 1 1 
1 1 1 1 1 1 1 1 1 
1 1 1 1 1 1 1 1 1 
1 1 1 1 1 1 1 1 1 
1 1 1 1 1 1 1 1 1 
1 1 1 1 1 1 1 1 1 
1 1 1 1 1 1 1 1 1 
1 1 1 1 1 1 1 1 1 
1 1 1 1 1 1 1 1 1 
1 1 1 1 1 1 1 1 1 
1 1 1 1 1 1 1 1 1 
1 1 1 1 1 1 1 1 1 
1 1 1 1 1 1 1 1 1 
1 1 1 1 1 1 1 1 1 
1 1 1 1 1 1 1 1 1 
1 1 1 1 1 1 1 1 1 
1 1 1 1 1 1 1 1 1 
1 1 1 1 1 1 1 1 1 
1 1 1 1 1 1 1 1 1 
1 1 1 1 1 1 1 1 1 
1 1 1 1 1 1 1 1 1 
1 1 1 1 1 1 1 1 1 
1 1 1 1 1 1 1 1 1 
1 1 1 1 1 1 1 1 1 
1 1 1 1 1 1 1 1 1 
1 1 1 1 1 1 1 1 1 
1 1 1 1 1 1 1 1 1 
1 1 1 1 1 1 1 1 1 
1 1 1 1 1 1 1 1 1 
1 1 1 1 1 1 1 1 1 
1 1 1 1 1 1 1 1 1 
1 1 1 1 1 1 1 1 1 
1 1 1 1 1 1 1 1 1 
1 1 1 1 1 1 1 1 1 
1 1 1 1 1 1 1 1 1 
1 1 1 1 1 1 1 1 1 
1 1 1 1 1 1 1 1 1 
1 1 1 1 1 1 1 1 1 
1 1 1 1 1 1 1 1 1 
1 1 1 1 1 1 1 1 1 
1 1 1 1 1 1 1 1 1 
1 1 1 1 1 1 1 1 1 
1 1 1 1 1 1 1 1 1 
1 1 1 1 1 1 1 1 1 
1 1 1 1 1 1 1 1 1 
1 1 1 1 1 1 1 1 1 
1 1 1 1 1 1 1 1 1 
1 1 1 1 1 1 1 1 1 
1 1 1 1 1 1 1 1 1 
1 1 1 1 1 1 1 1 1 
1 1 1 1 1 1 1 1 1 
1 1 1 1 1 1 1 1 1 
1 1 1 1 1 1 1 1 1 
1 1 1 1 1 1 1 1 1 
1 1 1 1 1 1 1 1 1 
1 1 1 1 1 1 1 1 1 
1 1 1 1 1 1 1 1 1 
1 1 1 1 1 1 1 1 1 
1 1 1 1 1 1 1 1 1 
1 1 1 1 1 1 1 1 1 
1 1 1 1 1 1 1 1 1 
1 1 1 1 1 1 1 1 1 
1 1 1 1 1 1 1 1 1 
1 1 1 1 1 1 1 1 1 
1 1 1 1 1 1 1 1 1 
1 1 1 1 1 1 1 1 1 
1 1 
i 3 2000 int
0 0 0 0 0 0 0 0 0 
0 0 0 0 0 0 0 0 0 
0 0 0 0 0 0 0 0 0 
0 0 0 0 0 0 0 0 0 
0 0 0 0 0 0 0 0 0 
0 0 0 0 0 0 0 0 0 
0 0 0 0 0 0 0 0 0 
0 0 0 0 1 0 0 0 0 
0 0 0 0 0 0 0 0 0 
0 0 0 0 0 0 0 0 0 
0 0 0 0 0 0 0 0 0 
0 0 0 0 0 0 0 0 0 
0 0 0 0 0 0 0 0 0 
0 0 0 0 0 0 0 0 0 
0 0 0 -1 0 0 0 0 0 
0 0 0 0 0 0 0 0 0 
0 0 0 0 0 0 0 0 0 
0 0 0 0 0 0 0 0 0 
0 0 0 0 1 0 0 0 0 
0 0 0 0 0 0 0 0 0 
0 0 0 0 0 0 0 0 0 
0 0 0 0 0 0 0 0 0 
0 0 0 0 0 0 0 0 0 
0 0 0 0 0 0 0 0 0 
0 0 0 0 0 0 0 0 0 
0 0 0 0 0 0 0 0 0 
0 0 0 0 0 0 0 0 0 
0 0 0 0 0 0 0 0 0 
0 0 0 0 0 0 0 0 0 
0 0 0 0 0 0 0 0 0 
0 0 0 0 0 0 0 0 0 
0 0 0 0 0 0 0 0 0 
0 0 0 0 0 0 0 0 0 
0 0 0 0 0 0 0 0 0 
0 0 0 0 0 0 0 0 0 
0 0 0 0 0 0 0 0 0 
0 0 0 0 0 0 0 0 0 
0 0 0 0 0 0 0 0 0 
0 0 0 0 0 0 0 0 0 
0 0 0 0 0 0 0 0 0 
0 0 0 0 0 0 0 0 0 
0 0 0 0 0 0 0 0 0 
0 0 0 0 0 0 0 0 0 
0 0 0 0 0 0 0 0 0 
0 0 0 0 0 0 0 0 0 
0 0 0 0 0 0 0 0 0 
0 0 0 0 0 0 0 0 0 
0 0 0 0 0 0 0 0 0 
0 0 0 0 0 0 -1 0 0 
0 0 0 0 0 0 0 0 0 
0 0 0 0 0 0 0 0 0 
0 0 0 0 0 0 0 0 0 
0 0 0 0 0 0 0 0 0 
0 0 0 0 0 0 0 0 0 
0 0 0 0 0 0 0 0 0 
0 0 0 0 0 0 0 0 0 
0 0 0 0 0 0 0 0 0 
0 0 0 0 0 0 0 0 0 
0 0 0 0 0 0 0 0 0 
0 0 0 0 0 0 0 0 0 
0 0 0 0 0 0 0 0 0 
0 0 0 0 0 0 0 0 0 
0 0 0 0 0 0 -1 0 0 
0 0 0 0 0 0 0 0 0 
0 0 0 0 0 0 0 0 0 
0 0 0 0 0 0 0 0 0 
0 0 0 0 0 0 0 0 0 
0 0 0 0 0 0 1 0 0 
0 0 0 0 -1 0 0 0 0 
0 0 0 0 0 0 0 0 0 
0 0 0 0 0 0 0 0 0 
0 0 0 0 0 0 0 0 0 
0 0 0 0 0 0 0 0 0 
0 0 0 0 0 0 0 0 0 
0 0 0 0 0 0 0 0 0 
0 0 0 0 0 0 0 0 0 
0 0 0 0 0 0 0 0 0 
0 0 0 0 0 0 0 0 0 
0 0 0 0 0 0 0 0 0 
0 0 0 0 0 0 0 0 0 
0 0 0 0 0 0 0 0 0 
0 0 0 0 0 0 0 0 0 
0 0 0 0 0 0 0 0 0 
0 0 0 0 0 0 0 0 0 
0 0 0 0 0 0 0 0 0 
0 0 0 0 0 0 0 0 0 
0 0 0 0 0 0 0 0 0 
1 0 0 0 0 0 0 0 0 
0 0 0 0 0 0 0 0 0 
0 0 0 0 0 0 0 0 0 
0 0 0 0 0 0 0 0 0 
0 0 0 0 0 0 0 1 0 
0 0 0 0 0 0 0 0 0 
0 0 0 0 0 0 0 0 0 
0 0 0 0 0 0 0 0 0 
0 0 0 0 0 0 0 0 0 
0 0 0 0 0 0 0 0 0 
0 0 0 0 0 0 0 0 0 
0 0 0 0 0 0 0 0 0 
0 0 0 0 0 0 0 0 0 
0 0 0 0 0 0 0 0 0 
0 0 0 0 0 0 0 0 0 
0 0 0 0 0 0 0 0 0 
0 0 0 0 0 0 0 0 0 
0 0 0 0 0 0 0 0 0 
0 0 0 -1 0 0 0 0 0 
0 0 0 0 0 0 0 0 0 
0 0 0 0 0 0 0 0 0 
0 0 0 0 0 0 0 0 0 
1 0 0 0 0 0 0 0 0 
0 0 0 0 0 0 0 0 0 
0 0 0 0 0 0 0 0 0 
0 0 0 0 0 0 0 0 0 
0 0 0 0 0 0 0 0 0 
0 0 0 0 0 0 0 0 0 
0 0 0 0 0 0 0 0 0 
0 0 0 0 0 0 0 0 0 
0 0 0 0 0 0 0 0 0 
0 0 0 0 0 0 0 0 0 
0 0 0 0 0 0 0 0 0 
0 0 0 -1 0 0 0 0 0 
0 0 0 0 0 0 0 0 0 
0 0 0 0 0 0 0 0 0 
0 0 0 0 0 0 0 0 0 
0 0 0 1 0 0 0 0 0 
0 0 0 0 0 0 0 0 0 
0 0 0 1 0 0 0 0 0 
0 0 0 0 0 0 0 0 0 
0 0 0 0 0 0 1 0 0 
0 0 0 0 0 0 0 0 0 
0 0 0 0 0 0 0 0 0 
0 0 0 0 0 0 0 0 0 
0 0 0 0 0 0 0 0 0 
0 0 0 0 0 0 0 0 0 
0 0 0 0 0 0 0 0 0 
0 0 0 0 0 0 0 0 0 
0 0 0 0 0 0 0 0 0 
0 0 0 0 0 0 0 0 0 
0 0 0 0 0 0 0 0 0 
0 0 0 0 0 0 0 0 0 
0 0 0 0 0 0 0 0 0 
0 0 0 0 0 0 0 0 0 
0 0 0 0 0 0 0 0 0 
0 0 0 0 0 0 0 0 0 
0 0 0 0 0 0 0 0 0 
0 0 0 0 0 0 0 0 0 
0 0 0 0 0 0 0 0 0 
0 0 0 0 0 0 0 0 0 
0 0 0 0 0 0 0 0 0 
0 0 0 0 0 0 0 0 0 
0 0 0 1 0 0 0 0 0 
0 0 0 0 0 0 0 0 0 
0 0 0 0 0 0 0 0 0 
0 0 0 0 0 0 0 0 0 
0 0 0 0 0 0 0 0 0 
0 0 0 0 0 0 0 0 0 
0 0 0 0 0 0 0 0 0 
0 0 0 0 0 0 0 0 0 
0 0 0 0 0 0 0 0 0 
0 0 0 0 0 0 0 0 0 
0 0 0 0 0 0 0 0 0 
0 0 0 0 0 0 0 0 0 
0 0 0 0 0 0 0 0 0 
0 0 0 0 0 0 0 0 0 
0 0 0 0 0 0 0 0 0 
0 0 0 0 0 0 0 0 0 
0 0 0 0 0 0 0 0 0 
0 0 0 0 0 0 0 0 0 
0 0 0 0 0 0 0 0 0 
0 0 0 1 0 0 0 0 0 
0 -1 0 0 0 0 0 0 0 
0 0 0 0 0 0 0 0 0 
0 0 0 0 0 0 0 0 0 
0 0 0 0 0 0 0 0 0 
0 0 0 0 0 0 0 -1 0 
0 0 0 0 0 0 0 0 0 
0 0 0 0 0 0 0 0 0 
0 0 0 0 0 0 0 -1 0 
0 0 0 0 -1 0 0 0 0 
0 0 0 0 -1 0 0 0 0 
0 0 0 0 0 0 0 0 0 
0 0 0 0 0 0 0 0 0 
0 0 0 0 0 0 0 0 0 
0 0 0 0 -1 0 0 0 0 
0 0 0 0 0 0 0 0 0 
0 0 0 0 0 0 0 0 0 
0 0 0 0 0 0 0 0 0 
0 0 0 0 0 0 0 0 0 
0 -1 0 0 0 0 0 0 0 
0 0 0 -1 0 0 0 -1 0 
-1 0 0 0 0 0 0 0 0 
0 0 0 0 0 0 0 0 0 
0 0 0 0 0 0 0 0 0 
0 0 0 0 0 0 0 0 0 
0 0 0 0 0 0 0 0 0 
0 0 0 0 0 0 0 0 0 
0 0 0 0 0 0 0 1 0 
0 0 0 0 0 0 0 1 0 
0 0 0 0 0 0 0 0 0 
0 0 0 0 0 0 0 0 0 
0 0 0 0 0 0 0 0 0 
0 0 0 0 0 0 0 0 0 
0 0 0 0 0 0 0 0 0 
0 0 0 0 0 0 0 0 0 
0 0 0 0 1 0 0 0 0 
0 0 0 0 0 0 0 0 0 
0 0 0 0 0 0 0 0 0 
0 0 0 0 0 0 0 1 0 
0 0 0 0 1 0 0 0 0 
0 0 0 0 0 0 0 0 0 
0 0 0 0 0 0 0 0 0 
0 0 0 0 0 0 0 0 0 
0 0 0 0 0 0 0 0 0 
0 0 0 0 0 0 0 0 0 
0 0 0 0 0 0 0 0 0 
0 0 0 1 0 0 0 0 0 
0 0 0 0 0 0 0 0 0 
0 0 0 0 0 0 0 0 0 
0 0 0 0 0 0 0 0 0 
0 0 0 0 0 0 0 0 0 
0 0 0 0 0 0 0 0 0 
0 0 0 0 0 0 0 0 0 
0 0 0 0 0 0 0 0 0 
0 0 0 0 0 0 0 0 0 
0 0 0 0 0 0 0 0 0 
0 0 0 0 0 0 0 0 0 
0 0 0 0 0 0 0 0 0 
0 0 0 -1 0 0 0 0 0 
0 0 0 0 0 0 0 0 0 
0 0 0 0 0 0 0 0 0 
0 0 0 0 0 0 0 0 0 
0 0 0 0 0 0 0 0 0 
0 0 0 0 0 0 0 0 0 
0 0 0 0 0 0 0 0 0 
0 0 0 0 0 0 0 0 0 
0 0 0 0 0 0 0 0 0 
0 0 0 0 0 0 0 0 0 
0 0 0 0 0 0 0 0 0 
0 0 0 0 0 0 0 0 0 
0 0 0 0 0 0 0 0 0 
0 0 0 0 0 0 0 0 0 
0 0 0 0 0 0 0 0 0 
0 0 0 0 0 0 0 0 0 
0 0 0 0 0 0 0 0 0 
0 0 0 0 0 0 0 0 0 
0 0 0 0 0 0 0 0 0 
0 0 0 -1 0 0 0 0 0 
-1 0 0 0 0 0 0 0 0 
0 0 0 0 0 0 0 0 0 
0 0 0 0 0 0 0 0 0 
0 0 0 0 0 0 0 0 0 
0 0 0 0 0 0 0 0 0 
0 0 0 0 0 0 0 0 0 
0 0 0 0 0 0 0 0 0 
0 0 0 0 0 0 1 0 0 
0 0 0 0 0 0 1 0 0 
0 0 0 0 0 0 0 0 0 
0 0 0 0 0 0 0 0 0 
0 0 0 0 0 0 0 0 0 
0 0 0 0 0 0 0 0 0 
0 0 0 0 0 0 0 0 0 
0 0 0 0 0 0 0 0 0 
0 0 0 0 0 0 0 0 0 
0 0 0 0 0 0 0 0 0 
0 0 0 0 0 0 0 0 0 
0 0 0 0 0 0 0 0 0 
0 0 0 0 0 0 0 0 0 
0 0 0 0 0 0 0 0 0 
0 0 0 0 0 0 0 0 0 
0 0 0 0 0 0 0 0 0 
0 0 0 0 0 0 0 0 0 
0 0 0 0 0 0 0 0 0 
1 0 0 0 0 0 0 0 0 
0 0 0 0 -1 0 0 0 0 
0 0 0 0 0 0 0 0 0 
0 0 0 0 0 0 0 0 0 
0 0 0 0 0 0 0 0 0 
0 0 0 0 0 0 0 -1 0 
0 0 0 0 0 0 0 0 0 
0 0 0 0 0 0 0 0 0 
0 0 0 0 0 0 0 0 0 
0 0 0 0 0 0 0 0 0 
0 0 0 0 0 0 0 0 0 
0 0 0 0 0 0 0 0 0 
0 0 0 0 0 0 0 0 0 
0 0 0 0 0 0 0 0 0 
0 0 0 0 0 0 0 0 0 
0 0 0 0 0 0 0 0 0 
0 0 0 0 0 0 0 0 0 
0 0 0 0 0 0 0 0 0 
0 0 0 0 0 0 0 0 0 
0 0 0 0 0 0 0 0 0 
0 0 0 0 0 0 0 0 0 
0 0 0 0 0 0 0 0 0 
0 0 0 0 0 0 0 0 0 
0 0 0 0 0 0 0 0 0 
0 0 0 0 0 0 0 0 0 
0 0 0 0 0 0 0 0 0 
0 0 0 0 0 0 0 0 0 
0 0 0 0 0 0 0 0 0 
0 1 0 0 0 0 0 0 0 
0 0 0 0 0 0 0 0 0 
0 0 0 0 0 0 0 1 0 
0 0 0 0 0 0 0 0 0 
0 0 0 0 0 0 0 0 0 
0 0 0 0 0 0 0 0 0 
0 0 0 0 0 0 0 1 0 
0 0 0 0 0 0 0 0 0 
0 0 0 0 0 0 0 0 0 
0 0 0 0 0 0 0 0 0 
0 0 0 0 0 0 0 0 0 
1 0 0 0 0 0 0 0 0 
0 0 0 0 0 0 0 0 0 
0 0 0 0 0 0 0 0 0 
0 0 0 0 0 0 0 0 0 
0 0 0 0 0 0 0 0 0 
0 0 0 0 0 0 0 0 0 
0 0 0 0 0 0 0 0 0 
0 0 0 0 0 0 0 0 0 
0 0 0 0 0 0 0 0 0 
0 0 0 0 0 0 0 0 0 
0 0 0 0 0 0 0 0 0 
0 0 0 0 0 0 0 0 0 
-1 0 0 -1 0 0 0 0 0 
0 0 0 0 0 0 0 0 0 
0 0 0 0 0 0 0 0 0 
0 0 0 0 0 0 0 0 0 
0 0 0 0 0 0 0 0 0 
0 0 0 0 0 0 0 0 0 
0 0 0 0 0 0 0 0 0 
0 0 0 0 0 0 0 0 0 
0 0 0 0 0 0 0 0 0 
0 0 0 0 0 0 0 0 0 
0 0 0 0 0 0 0 0 0 
0 0 0 0 0 0 0 0 0 
0 0 0 0 0 0 0 0 0 
0 0 0 0 0 0 0 0 0 
0 0 0 0 0 0 0 0 0 
0 0 0 0 0 0 0 0 0 
0 0 0 0 0 0 0 0 0 
0 0 0 0 0 0 0 0 0 
0 0 0 0 0 0 0 0 0 
0 0 0 0 0 0 0 0 0 
0 0 0 0 0 0 0 0 0 
0 0 0 0 0 0 0 0 0 