# vtk DataFile Version 4.0
Generated by LIGGGHTS
ASCII
DATASET POLYDATA
POINTS 2000 float
-100.032 -85.5222 9.90461 -90.1886 -103.259 9.91977 -109.277 -133.121 9.92511 
-121.41 -117.275 9.91868 -89.3843 -131.48 9.91893 -129.066 -135.705 9.91563 
-128.22 -98.517 9.91772 -109.388 -102.289 15.3219 -115.697 -129.417 28.4773 
-98.5334 -117.907 21.3341 -140.952 -100.11 26.4847 -131.945 -117.826 28.3227 
-121.552 -101.014 31.0973 -96.7746 -135.221 31.0926 -44.0351 -113.939 9.91877 
-43.9571 -133.899 9.91602 -55.3738 -91.3818 9.91877 -61.9194 -122.796 9.91967 
-70.2718 -104.674 9.9128 -28.1867 -97.1851 9.91212 -59.4501 -112.2 26.6585 
-79.0103 -121.337 23.6304 -57.7499 -136.142 24.1594 -77.6631 -140.536 28.9061 
-45.7239 -124.235 34.7456 -44.5647 -91.3736 35.0524 -71.4876 -140.312 9.92133 
8.2173 -101.657 9.91835 -9.51541 -136.859 9.91737 27.6329 -97.0236 9.91694 
-9.02301 -91.5962 9.91661 21.6446 -125.086 9.91827 -25.8777 -125.426 9.92515 
22.5208 -104.162 27.8372 2.17428 -120.68 9.92137 19.8088 -123.839 29.7514 
7.9259 -138.378 19.4905 13.8585 -86.511 21.6264 35.3603 -86.2465 25.5487 
81.1437 -88.346 9.91841 38.2098 -113.949 9.91862 49.3451 -93.4959 9.91877 
37.0861 -130.16 21.5055 69.5954 -117.777 24.7935 118.889 -123.866 9.91129 
136.685 -110.327 9.91469 117.78 -103.936 9.91625 101.078 -114.87 9.91845 
100.671 -133.754 25.2565 121.282 -100.242 29.2103 99.9688 -94.9456 9.91879 
136.39 -128.413 18.3541 135.561 -90.3892 9.9242 121.873 -120.174 29.285 
102.307 -94.0694 29.7222 103.336 -113.742 32.9214 -94.9431 -30.6153 25.9603 
-123.856 -57.4771 9.91874 -93.1422 -56.382 24.3008 -140.13 -45.9242 9.92724 
-118.039 -38.3863 9.91945 -106.055 -66.4982 9.92109 -91.626 -42.0207 9.91902 
-114.842 -49.7939 25.9843 -110.776 -78.4905 25.1703 -129.768 -63.4963 28.0062 
-130.787 -37.798 25.6013 -134.718 -74.2199 9.90576 -130.029 -83.425 26.9629 
-113.533 -31.2348 33.2147 -81.393 -64.2837 9.91883 -38.782 -80.2787 9.9135 
-33.2919 -57.8679 9.9197 -61.9668 -72.5413 9.92099 -60.0241 -40.9781 24.7893 
-47.9343 -73.7179 26.3786 -26.4153 -39.9169 15.2875 11.5506 -55.9312 9.90514 
-8.26879 -58.2682 9.91766 -5.37969 -38.5186 9.91845 2.32985 -75.1808 9.91867 
26.9842 -77.0767 9.9196 -19.622 -74.6841 9.91877 12.825 -59.6689 29.4483 
-20.7452 -56.1897 25.3538 -6.99066 -42.3147 29.4462 63.368 -79.2933 9.91781 
45.5365 -72.3123 15.5234 60.5353 -59.5434 9.90983 79.0643 -66.9542 9.91877 
31.4388 -57.6216 9.91836 71.0641 -35.9519 9.92028 46.3236 -53.6782 22.6161 
72.5874 -51.7393 23.7587 57.4731 -36.9821 24.5067 31.5592 -66.4831 28.5212 
86.6118 -48.4716 9.92594 98.849 -77.3825 19.3303 111.165 -64.8072 9.91889 
100.193 -33.8367 9.91162 131.008 -62.6723 9.92096 116.654 -84.0006 9.91877 
119.241 -46.5506 9.91996 135.263 -53.0075 27.389 133.465 -76.5018 24.1109 
130.132 -30.8829 15.7898 117.056 -81.4414 34.3323 133.912 -34.6235 35.0309 
-133.493 -25.7547 9.91751 -111.231 7.37812 9.91851 -96.2043 -5.75892 9.91966 
-123.701 -8.20527 9.91754 -85.951 -22.8835 9.91478 -108.938 -18.4572 18.5831 
-115.8 -1.7475 27.0706 -112.95 18.0065 26.9422 -128.125 22.3108 9.91877 
-138.822 0.831553 33.1361 -140.819 -17.9755 26.7717 -108.88 27.5993 9.9188 
-82.4811 -14.3611 27.6243 -34.4113 -22.4383 9.91825 -50.2982 5.22062 9.91451 
-30.9667 17.2976 9.92118 -31.9488 -2.63441 9.91877 -78.143 20.1936 24.7951 
-43.4817 15.7906 25.4048 -55.4268 -6.3494 25.3418 24.0186 -26.8917 24.801 
-14.521 -20.7756 9.91877 -13.6551 7.39177 10.6802 9.50012 6.05934 9.91874 
19.1396 7.36054 29.6557 29.3783 4.26592 9.91908 55.4485 -23.5207 9.91488 
38.6364 10.3573 32.6761 79.0842 24.1101 24.0847 47.3136 -4.48811 9.91803 
45.9287 15.4243 9.91877 64.9605 21.4369 9.91877 82.2767 10.4245 9.91569 
53.1654 23.5254 28.9513 84.6479 -21.3262 9.91584 102.812 -13.0495 9.91929 
140.424 0.66587 9.91787 125.346 -12.4115 9.92019 114.332 -21.6549 23.7619 
113.239 16.7977 24.7995 -92.9257 66.541 9.91753 -115.288 46.5022 9.91876 
-95.3309 46.7284 9.91837 -136.883 77.4145 9.91963 -135.077 57.5345 9.91466 
-126.381 38.3383 24.3628 -86.7753 81.8944 21.0864 -84.7496 54.1 30.0467 
-140.155 38.2348 9.91884 -45.5054 30.9674 9.91877 -30.3667 75.7659 24.7919 
-60.2646 65.4782 9.91675 -59.1854 45.4973 9.9187 -30.5165 44.1475 9.91893 
-76.9694 54.5532 9.91877 -65.1905 74.1369 27.2063 -61.2731 50.4845 29.131 
-70.2447 82.7669 9.92571 18.5629 75.7936 9.90789 0.247553 67.863 9.9187 
0.0979101 36.2462 24.7938 16.5677 66.917 27.6502 30.744 52.9582 26.0973 
31.3166 41.2752 9.92082 50.2389 34.9155 9.91877 68.7001 42.5091 9.91877 
71.3582 62.2931 9.91802 34.6262 63.9496 9.91118 67.3145 39.1752 29.7769 
47.7306 42.8918 28.9389 52.8983 54.6985 9.91877 70.011 58.7194 32.7407 
33.4017 29.6132 33.025 84.3454 51.7049 20.7564 87.509 68.229 31.4838 
87.5967 35.2767 9.91197 128.81 65.9037 9.91877 90.7066 67.2133 9.91971 
109.391 74.2458 9.91887 103.775 46.9639 9.91941 123.73 46.6114 9.91657 
104.549 60.3325 24.7212 132.069 51.7499 27.3071 119.782 73.0421 26.9175 
88.4481 84.3979 19.8218 -90.7162 97.9619 9.91944 -115.304 117.839 24.7959 
-139.284 97.2312 9.91921 -85.0681 127.065 9.91695 -38.1564 119.753 9.91685 
-54.5334 131.159 9.92351 -32.8058 110.56 26.8005 -41.2026 134.618 24.3697 
-67.0539 108.475 33.3832 -27.5904 136.685 9.91897 20.954 131.929 9.91378 
-1.9429 89.629 9.92278 0.389055 127.806 9.9202 -6.48113 109.065 9.91733 
23.1751 95.2017 9.91844 9.7397 96.4148 24.6264 13.1829 112.478 9.91532 
-15.9686 123.165 20.3768 -2.6909 111.29 29.3854 12.2272 124.135 26.0783 
25.3704 108.404 27.874 26.7964 139.182 34.3979 48.7093 140.476 9.92259 
67.1029 132.723 9.91273 33.1458 112.481 9.93087 51.499 120.305 9.91141 
37.1663 128.574 21.0507 54.1419 88.813 24.7924 70.4594 119.702 24.6596 
56.3711 132.447 30.7593 83.7511 121.736 9.91665 90.5133 140.514 9.91771 
136.319 84.2204 26.8256 85.3173 101.84 9.91877 125.797 85.6221 9.91969 
101.758 113.159 9.91837 130.135 136.617 9.91885 110.468 140.04 9.92036 
103.34 93.2642 9.91821 135.097 117.284 9.9134 99.4842 128.417 23.3083 
118.181 123.238 18.6539 119.739 104.595 11.0448 133.406 131.165 28.8429 
114.646 134.308 34.8779 -140.054 -111.155 49.0714 -90.5452 -118.206 39.6211 
-131.447 -134.147 39.8027 -120.214 -118.324 44.4568 -104.49 -129.849 48.6938 
-122.091 -133.393 57.4175 -129.638 -117.138 66.1823 -133.899 -137.489 72.9951 
-95.292 -87.4173 82.1896 -138.356 -107.292 81.1882 -92.0101 -130.524 64.2474 
-84.0126 -113.394 57.8628 -82.0147 -134.468 47.4244 -45.4655 -116.25 53.0346 
-34.5648 -100.686 65.6747 -66.8959 -129.681 59.5438 -70.7069 -119.074 41.6378 
-49.8984 -96.7899 53.5062 -83.1377 -97.6574 70.1145 -64.3957 -109.718 58.0992 
-43.2239 -135.953 50.7172 -63.4183 -140.094 42.8762 -53.3805 -120.362 70.8905 
-75.8902 -114.392 78.6002 -60.6565 -101.77 76.0217 -60.6271 -140.022 75.4254 
-41.3886 -136.295 71.646 -38.9686 -88.7558 83.0863 -79.4274 -134.019 79.3331 
-30.3352 -120.005 68.3635 -43.1419 -108.272 83.0226 -78.8789 -85.3305 37.6974 
-14.0134 -110.2 39.0655 19.8531 -113.718 46.9559 8.36441 -137.035 39.3963 
10.1337 -127.932 57.0564 10.459 -109.231 63.9901 -7.6696 -138.664 58.2944 
-3.87707 -86.9696 63.1185 14.9815 -94.786 50.9862 3.33027 -134.818 74.5061 
-16.5764 -135.267 75.8165 14.0333 -90.8989 71.0048 25.2034 -126.132 70.0175 
30.3694 -108.176 62.9979 33.2095 -96.2889 42.7359 36.6736 -115.413 36.2982 
44.638 -136.413 40.6331 58.0908 -131.839 54.639 39.6497 -124.264 55.6679 
64.74 -120.159 69.389 48.2213 -107.069 50.2709 48.1394 -99.2884 68.6433 
71.6169 -105.589 57.6096 43.7248 -117.956 74.1588 31.0398 -88.3259 60.9064 
71.158 -138.995 67.9144 31.3983 -96.4529 79.1242 53.6857 -135.065 76.7311 
73.5947 -128.744 85.0857 30.9276 -140.909 82.1483 81.7469 -126.666 56.3259 
140.33 -129.667 56.3579 88.3364 -99.9417 48.2905 92.154 -137.327 42.9478 
129.785 -134.849 40.2315 102.808 -112.9 52.8538 122.194 -113.875 48.221 
110.633 -129.773 42.6826 129.813 -95.4964 46.6207 100.777 -131.446 59.9433 
109.922 -94.8481 48.1576 120.689 -129.973 59.9264 98.7718 -97.7285 65.1778 
115.166 -108.774 67.9693 110.613 -129.148 77.1337 92.3653 -116.119 69.5554 
115.97 -88.9743 70.3228 133.164 -124.315 74.4513 132.116 -91.0109 81.9036 
104.636 -111.672 84.6729 124.505 -110.398 85.8525 -122.869 -83.2339 61.1505 
-124.122 -52.2352 43.4863 -99.6412 -44.7862 39.1893 -106.204 -63.5541 37.5797 
-130.585 -33.4196 45.081 -101.59 -56.1016 55.5117 -133.826 -41.8228 62.8958 
-92.1026 -68.2428 68.1957 -85.9892 -49.0552 79.7413 -135.914 -55.2464 77.5191 
-104.906 -55.3599 78.896 -133.826 -34.2794 81.3772 -31.8409 -67.0381 56.659 
-83.4483 -52.2908 48.1187 -65.5316 -57.9656 54.8217 -39.0041 -33.2159 51.5939 
-60.5607 -83.7798 67.4004 -55.4304 -41.3948 59.4282 -66.4929 -44.8257 80.2859 
-75.1409 -41.3787 62.6258 -40.8572 -37.1707 72.3893 -53.0107 -74.586 83.414 
-66.7733 -63.7238 73.885 -49.7078 -54.9251 84.135 -77.1602 -80.2795 77.9069 
-26.7006 -39.9094 35.2449 -2.6438 -69.2912 37.5987 21.7405 -80.4059 38.9153 
16.4093 -56.7463 64.0668 -10.6768 -40.1652 49.4752 -23.1774 -33.927 63.7224 
-4.42328 -29.0426 68.4757 11.2263 -28.5228 83.9814 69.2646 -41.3297 40.4577 
59.9814 -74.3025 47.2793 75.5693 -46.6957 61.9691 44.3451 -43.074 48.1519 
59.1942 -35.6249 59.1961 66.929 -62.1294 79.2933 41.4515 -77.5701 76.7229 
76.2229 -44.6764 82.0847 50.0748 -51.3281 71.6868 41.8896 -33.3244 68.8765 
61.2786 -31.8827 78.6855 103.09 -50.0703 40.7052 93.7002 -81.3413 53.1507 
137.45 -50.1748 47.0338 133.044 -69.1444 42.66 94.5809 -46.1807 74.3751 
119.205 -78.1292 53.8907 85.5742 -62.8415 68.1039 125.338 -72.8037 77.333 
128.413 -47.6657 64.6632 99.5162 -77.7814 71.9108 93.6839 -65.1029 86.1854 
-98.4693 -5.90102 36.0565 -104.588 10.5789 45.5063 -124.754 -15.5522 38.3666 
-104.615 -22.8977 65.9601 -124.442 8.92315 44.3573 -103.259 12.0123 65.3674 
-123.102 13.4263 63.7525 -93.1516 26.2917 55.7547 -114.912 7.02117 80.7851 
-95.8497 4.3085 86.0502 -122.652 25.0717 84.2995 -86.1526 4.7206 55.0973 
-128.514 -6.73966 85.678 -84.6944 16.5416 71.1224 -138.026 14.7053 76.9392 
[...]
POINT_DATA 2000
FIELD FieldData 7
id 1 2000 int
41 77 196 230 301 308 411 107 205 
282 380 106 55 343 53 85 259 296 
439 157 275 328 424 223 371 273 311 
185 265 297 299 410 440 49 172 336 
218 351 95 300 376 408 437 22 59 
139 141 164 29 30 201 379 252 335 
47 283 36 142 215 338 414 456 171 
32 161 261 453 395 381 80 246 112 
143 231 10 211 243 115 208 212 232 
365 48 167 45 281 397 113 174 222 
318 108 354 285 317 149 200 434 117 
135 262 286 314 334 274 213 86 183 
114 239 342 346 413 66 147 238 99 
412 298 320 443 225 50 69 345 20 
46 220 11 37 358 390 416 122 359 
123 256 264 347 430 54 204 197 97 
178 271 404 15 84 199 362 400 458 
234 184 378 266 187 8 279 321 399 
250 384 387 224 195 240 12 186 133 
111 131 132 389 419 229 369 375 72 
315 449 233 253 34 102 154 221 330 
173 352 58 366 138 6 444 179 168 
455 295 385 27 88 62 169 302 339 
341 79 83 426 294 433 127 128 33 
110 227 396 421 18 251 242 429 344 
329 160 96 209 288 367 370 452 116 
198 284 247 447 244 438 442 166 401 
448 1283 852 1551 856 1025 361 304 71 
82 119 130 350 319 383 409 292 1007 
1248 1875 1713 1903 903 1746 290 1938 9 
2 241 355 156 64 76 210 293 1584 
1870 1852 1011 418 39 216 263 269 144 
165 382 42 74 332 364 1712 1941 1809 
1945 949 323 1861 137 38 51 125 394 
445 81 155 249 272 436 1279 1425 1934 
701 720 1921 1306 1709 5 245 276 425 
331 388 307 553 1536 1779 655 1754 23 
65 163 415 191 236 1673 1716 1727 1791 
662 643 911 422 417 75 28 226 353 
1158 1363 392 14 44 306 118 89 327 
931 1602 120 1654 25 180 313 398 189 
188 1315 1641 1867 1919 1953 255 309 405 
26 278 129 322 303 761 764 1565 43 
739 1505 1015 152 57 151 162 68 158 
214 257 175 176 368 427 864 1210 874 
1539 793 1282 121 4 260 217 357 94 
190 202 349 402 1858 571 591 746 603 
268 219 7 100 333 104 457 70 454 
63 1386 1764 1001 752 153 623 432 582 
386 291 277 326 19 441 1404 839 3 
254 450 228 393 145 177 377 140 1045 
1599 1674 1396 1956 420 1457 1 270 109 
170 91 312 93 909 1030 1693 451 61 
373 67 267 60 87 316 372 1650 584 
467 280 73 789 235 374 16 103 194 
148 310 356 1079 1951 1403 1414 661 206 
1123 337 35 258 24 159 182 435 340 
1427 1973 1111 1817 105 126 360 403 237 
287 363 92 348 406 1682 1395 1514 1849 
1766 609 1190 181 324 391 21 407 40 
428 56 98 1805 1891 1086 1281 1359 78 
207 289 446 90 101 192 13 124 1589 
1866 1397 923 1449 1740 193 146 423 136 
305 52 150 431 1081 1881 1995 771 817 
1498 1833 203 1703 1364 325 17 31 134 
248 1616 967 1139 1444 741 1604 1758 481 
1067 1691 1541 954 1291 784 1104 519 1769 
814 1017 1155 1725 1194 485 1533 1379 600 
1021 1175 542 1172 1999 669 1169 1329 907 
1980 948 965 1257 1600 1895 1070 521 1835 
952 470 1335 1261 1645 951 1618 1662 1851 
554 1447 1684 549 1632 1049 1267 1590 1406 
1127 1988 463 1188 838 1050 1471 1839 1994 
563 1890 775 1561 914 866 1146 1148 1219 
1456 1647 1177 753 1826 480 757 946 974 
487 1524 574 1424 1842 1837 1538 462 1340 
1251 541 1205 1680 1485 1542 718 1116 887 
1824 1273 490 997 652 878 995 1044 1170 
1675 1578 622 1076 1154 1816 1863 1142 833 
889 627 1586 875 906 1129 1733 1212 1517 
1036 1892 1418 534 1722 985 1566 641 969 
1362 779 653 645 1224 1233 1370 1871 862 
1582 667 1388 845 1041 938 476 723 1412 
1670 806 1101 1166 496 522 1477 1915 1441 
1797 854 1601 1439 1907 842 861 1013 1416 
1033 1098 1176 1626 1735 1128 1462 659 533 
754 1062 1189 1879 1947 1493 629 531 1847 
722 1162 1401 1023 1065 712 1715 1554 1563 
699 799 1143 709 1338 1828 1742 1572 472 
1937 1726 970 595 960 1398 1911 1579 888 
1118 1672 1366 465 1092 1382 581 475 1465 
1496 1339 1269 1723 1888 507 1532 1959 644 
1193 1594 961 1928 1831 901 1409 745 1199 
1570 1527 471 598 1676 1882 1073 919 1171 
892 798 1651 1039 853 675 702 1717 975 
1528 1801 841 657 1413 1478 468 1107 1789 
953 565 1982 567 1487 493 1260 1679 837 
934 1051 1455 1577 1056 1302 1960 1467 1771 
1332 1472 1421 674 625 1929 1240 1450 1606 
1862 729 962 968 1130 1324 1902 966 1636 
1855 1438 1474 1634 1183 759 1254 474 749 
1782 1301 589 797 514 1822 1353 803 893 
1435 805 1860 1819 1887 936 1430 848 1931 
1889 925 536 1266 532 810 1218 1944 1552 
538 1200 1977 1910 1152 1522 1877 1624 1054 
1681 1918 991 489 1215 981 1500 605 1225 
710 1417 1936 1627 672 631 728 1289 1963 
876 1222 1230 1548 1502 964 1097 832 1827 
1124 1544 1841 509 1103 1608 1053 1699 1986 
1834 1164 1731 523 1262 2000 990 1384 697 
1905 1802 1419 460 566 915 688 1058 1168 
1660 944 984 1631 801 1480 1055 820 1376 
1732 676 1117 1208 1962 1612 1088 1749 835 
671 1459 1576 1978 1100 647 1812 1721 1060 
1778 1458 1202 1119 1228 1358 1976 1484 1093 
987 1059 1120 751 1204 1470 596 668 1648 
769 1811 1820 912 850 1326 972 1659 1350 
1972 497 736 1788 686 1664 540 1932 1253 
1186 1767 1221 687 1857 781 1322 807 1753 
886 1083 1443 1930 1099 619 730 1165 1669 
1026 1597 1066 1245 1029 1134 1018 1330 1770 
758 1004 1832 527 1614 1671 602 1794 693 
1466 755 1207 488 1341 1564 1285 1964 516 
590 1492 865 1307 896 1531 1550 740 477 
1298 617 871 1365 788 575 499 809 894 
935 916 1786 1630 986 1368 1803 725 1504 
1034 1573 1874 770 1488 1464 1558 1935 529 
1075 633 1394 1704 1708 1442 1308 1568 918 
1035 1620 1331 1569 1280 1491 1061 576 1063 
1268 1501 494 1843 994 1069 689 1149 608 
999 615 1411 1196 922 1125 1316 570 683 
1048 1521 1768 646 1091 1698 1422 924 777 
1490 1150 1854 1916 539 1113 895 1310 1948 
732 1856 1575 614 1925 1922 1559 1213 1765 
1737 512 904 1611 1773 624 1263 1463 1781 
1893 1556 1885 1105 1047 524 713 504 665 
1909 1917 601 1072 1137 1617 885 1739 1846 
733 1108 1787 1133 802 1274 1191 1227 1970 
1806 535 738 1864 795 1426 765 526 558 
628 642 1334 1701 573 1135 1249 550 473 
1203 1357 1729 656 1024 1145 1638 1853 1705 
560 1040 1807 790 1796 1761 562 1077 1965 
503 700 1304 1639 1952 1195 1549 1042 492 
1613 1415 942 1311 1957 1738 1497 1356 464 
1898 1489 1246 825 800 1452 1896 568 1259 
1354 1288 1367 649 1808 1090 1904 1174 847 
479 1352 648 1429 1942 1372 1734 1868 698 
1052 1757 548 1373 831 593 520 1993 1342 
552 992 1595 1981 1437 1068 1961 998 679 
715 1939 1815 1667 1380 1511 546 920 988 
1046 1949 1486 1161 1022 1635 1238 708 818 
959 1244 1661 794 1663 1293 1287 1241 1557 
1571 500 1159 1121 815 1991 1180 1751 1605 
1009 1236 530 787 1319 1836 597 1800 1355 
592 1087 1585 1250 1348 1431 1234 1547 1825 
1850 719 811 1658 747 1300 1844 1005 484 
1089 822 604 1138 510 763 1374 1692 690 
1971 1479 1436 517 1006 1151 1509 1526 1546 
1876 680 650 694 1106 1112 1473 1665 682 
1619 742 868 796 867 1209 869 1325 486 
1760 908 1829 1084 612 774 917 1545 1295 
1621 1830 621 572 651 1451 1900 1790 1741 
1537 501 1160 902 1696 511 1454 1702 1736 
1391 1314 681 1420 717 780 830 870 1115 
1178 1510 469 704 1428 955 1389 1914 900 
1924 483 1776 1615 945 971 1231 1873 1132 
1513 1271 1966 910 1519 1640 1512 829 1906 
982 1275 547 1360 1958 1064 1423 1719 1508 
696 993 1173 1346 750 819 1838 1303 559 
1743 1223 1393 1975 748 1940 760 1141 632 
1593 1974 1499 1529 1581 1592 678 1752 1880 
1010 791 929 1992 743 1038 881 1967 1445 
613 744 1580 1000 827 1555 1082 1755 1926 
776 1886 978 1383 658 1351 1810 1818 580 
1197 1920 1644 1823 695 1122 824 1475 1507 
851 1540 564 579 762 1239 1845 1984 1284 
459 1095 1697 1574 1336 863 1799 691 767 
1184 1883 1071 1147 1759 956 1387 518 1028 
973 1136 1865 1461 1181 1913 1078 711 731 
1229 860 1375 1625 1278 594 1710 858 950 
737 941 1780 1131 927 977 1286 616 555 
1320 921 1016 556 1666 1908 813 1309 482 
958 785 1689 1785 626 724 1328 1192 873 
1518 1264 928 1094 1405 1609 899 1272 1872 
1996 578 1012 506 1371 1884 1237 1997 1469 
1167 1506 525 1596 1683 1718 1235 1008 1014 
1390 1950 654 1649 1955 1720 638 812 1543 
1859 1694 544 610 635 705 976 561 857 
1276 1793 1798 1588 926 1327 1226 1333 1848 
577 1643 1220 1591 543 1140 1211 846 1583 
1652 1408 585 664 663 1214 1688 937 804 
1157 1668 707 1255 1185 1232 1043 1377 849 
884 515 1057 1323 1587 843 1163 498 1530 
1628 933 1792 772 587 1031 1677 1775 890 
773 1633 703 1297 1503 877 778 1968 844 
1687 963 1433 1277 569 1369 1814 537 1494 
1361 606 1345 1448 1299 905 1927 880 1109 
1560 1317 1878 508 1483 1897 1258 466 1821 
821 1343 1724 1744 766 816 1110 879 557 
716 898 721 495 855 826 1385 505 1446 
947 756 1923 1748 1598 1292 735 1432 1182 
1795 673 1126 1700 588 980 1206 1085 666 
1296 1933 1686 634 1252 1153 891 1774 1990 
834 513 1402 1690 1392 1027 1096 1318 1243 
782 1901 630 640 1305 478 836 734 1750 
1187 545 670 939 1482 1037 1987 639 768 
1019 1217 1763 1985 1349 1312 1989 1410 620 
611 1520 1032 1468 726 828 943 618 1745 
1453 1685 1777 1337 1678 1943 607 783 996 
684 491 1607 957 1460 1756 1516 1400 1567 
599 1256 1653 1378 1714 1637 1622 1074 636 
1290 1730 706 1407 1156 1840 989 528 1711 
1969 1495 1954 897 1270 1399 1313 637 1080 
1813 660 1946 1294 714 1562 1983 840 1114 
1440 1784 1656 502 930 1344 1481 1646 1347 
859 1553 586 1265 940 1706 1523 1102 882 
1998 583 1603 1144 808 1728 1003 1979 786 
983 1020 1321 1525 1242 1655 1695 1642 1002 
1434 932 1783 1381 913 792 1247 1515 1629 
1179 1894 1476 1610 1869 883 1912 823 1623 
1657 1201 1216 1535 1762 1534 872 1804 727 
1747 685 461 1198 979 692 551 1772 1707 
1899 677 
type 1 2000 int
1 1 1 1 1 1 1 1 1 
1 1 1 1 1 1 1 1 1 
1 1 1 1 1 1 1 1 1 
1 1 1 1 1 1 1 1 1 
1 1 1 1 1 1 1 1 1 
1 1 1 1 1 1 1 1 1 
1 1 1 1 1 1 1 1 1 
1 1 1 1 1 1 1 1 1 
1 1 1 1 1 1 1 1 1 
1 1 1 1 1 1 1 1 1 
1 1 1 1 1 1 1 1 1 
1 1 1 1 1 1 1 1 1 
1 1 1 1 1 1 1 1 1 
1 1 1 1 1 1 1 1 1 
1 1 1 1 1 1 1 1 1 
1 1 1 1 1 1 1 1 1 
1 1 1 1 1 1 1 1 1 
1 1 1 1 1 1 1 1 1 
1 1 1 1 1 1 1 1 1 
1 1 1 1 1 1 1 1 1 
1 1 1 1 1 1 1 1 1 
1 1 1 1 1 1 1 1 1 
1 1 1 1 1 1 1 1 1 
1 1 1 1 1 1 1 1 1 
1 1 1 1 1 1 1 1 1 
1 1 1 1 1 1 1 1 1 
1 1 1 1 1 1 1 1 1 
1 1 1 1 1 1 1 1 1 
1 1 1 1 1 1 1 1 1 
1 1 1 1 1 1 1 1 1 
1 1 1 1 1 1 1 1 1 
1 1 1 1 1 1 1 1 1 
1 1 1 1 1 1 1 1 1 
1 1 1 1 1 1 1 1 1 
1 1 1 1 1 1 1 1 1 
1 1 1 1 1 1 1 1 1 
1 1 1 1 1 1 1 1 1 
1 1 1 1 1 1 1 1 1 
1 1 1 1 1 1 1 1 1 
1 1 1 1 1 1 1 1 1 
1 1 1 1 1 1 1 1 1 
1 1 1 1 1 1 1 1 1 
1 1 1 1 1 1 1 1 1 
1 1 1 1 1 1 1 1 1 
1 1 1 1 1 1 1 1 1 
1 1 1 1 1 1 1 1 1 
1 1 1 1 1 1 1 1 1 
1 1 1 1 1 1 1 1 1 
1 1 1 1 1 1 1 1 1 
1 1 1 1 1 1 1 1 1 
1 1 1 1 1 1 1 1 1 
1 1 1 1 1 1 1 1 1 
1 1 1 1 1 1 1 1 1 
1 1 1 1 1 1 1 1 1 
1 1 1 1 1 1 1 1 1 
1 1 1 1 1 1 1 1 1 
1 1 1 1 1 1 1 1 1 
1 1 1 1 1 1 1 1 1 
1 1 1 1 1 1 1 1 1 
1 1 1 1 1 1 1 1 1 
1 1 1 1 1 1 1 1 1 
1 1 1 1 1 1 1 1 1 
1 1 1 1 1 1 1 1 1 
1 1 1 1 1 1 1 1 1 
1 1 1 1 1 1 1 1 1 
1 1 1 1 1 1 1 1 1 
1 1 1 1 1 1 1 1 1 
1 1 1 1 1 1 1 1 1 
1 1 1 1 1 1 1 1 1 
1 1 1 1 1 1 1 1 1 
1 1 1 1 1 1 1 1 1 
1 1 1 1 1 1 1 1 1 
1 1 1 1 1 1 1 1 1 
1 1 1 1 1 1 1 1 1 
1 1 1 1 1 1 1 1 1 
1 1 1 1 1 1 1 1 1 
1 1 1 1 1 1 1 1 1 
1 1 1 1 1 1 1 1 1 
1 1 1 1 1 1 1 1 1 
1 1 1 1 1 1 1 1 1 
1 1 1 1 1 1 1 1 1 
1 1 1 1 1 1 1 1 1 
1 1 1 1 1 1 1 1 1 
1 1 1 1 1 1 1 1 1 
1 1 1 1 1 1 1 1 1 
1 1 1 1 1 1 1 1 1 
1 1 1 1 1 1 1 1 1 
1 1 1 1 1 1 1 1 1 
1 1 1 1 1 1 1 1 1 
1 1 1 1 1 1 1 1 1 
1 1 1 1 1 1 1 1 1 
1 1 1 1 1 1 1 1 1 
1 1 1 1 1 1 1 1 1 
1 1 1 1 1 1 1 1 1 
1 1 1 1 1 1 1 1 1 
1 1 1 1 1 1 1 1 1 
1 1 1 1 1 1 1 1 1 
1 1 1 1 1 1 1 1 1 
1 1 1 1 1 1 1 1 1 
1 1 1 1 1 1 1 1 1 
1 1 1 1 1 1 1 1 1 
1 1 1 1 1 1 1 1 1 
1 1 1 1 1 1 1 1 1 
1 1 1 1 1 1 1 1 1 
1 1 1 1 1 1 1 1 1 
1 1 1 1 1 1 1 1 1 
1 1 1 1 1 1 1 1 1 
1 1 1 1 1 1 1 1 1 
1 1 1 1 1 1 1 1 1 
1 1 1 1 1 1 1 1 1 
1 1 1 1 1 1 1 1 1 
1 1 1 1 1 1 1 1 1 
1 1 1 1 1 1 1 1 1 
1 1 1 1 1 1 1 1 1 
1 1 1 1 1 1 1 1 1 
1 1 1 1 1 1 1 1 1 
1 1 1 1 1 1 1 1 1 
1 1 1 1 1 1 1 1 1 
1 1 1 1 1 1 1 1 1 
1 1 1 1 1 1 1 1 1 
1 1 1 1 1 1 1 1 1 
1 1 1 1 1 1 1 1 1 
1 1 1 1 1 1 1 1 1 
1 1 1 1 1 1 1 1 1 
1 1 1 1 1 1 1 1 1 
1 1 1 1 1 1 1 1 1 
1 1 1 1 1 1 1 1 1 
1 1 1 1 1 1 1 1 1 
1 1 1 1 1 1 1 1 1 
1 1 1 1 1 1 1 1 1 
1 1 1 1 1 1 1 1 1 
1 1 1 1 1 1 1 1 1 
1 1 1 1 1 1 1 1 1 
1 1 1 1 1 1 1 1 1 
1 1 1 1 1 1 1 1 1 
1 1 1 1 1 1 1 1 1 
1 1 1 1 1 1 1 1 1 
1 1 1 1 1 1 1 1 1 
1 1 1 1 1 1 1 1 1 
1 1 1 1 1 1 1 1 1 
1 1 1 1 1 1 1 1 1 
1 1 1 1 1 1 1 1 1 
1 1 1 1 1 1 1 1 1 
1 1 1 1 1 1 1 1 1 
1 1 1 1 1 1 1 1 1 
1 1 1 1 1 1 1 1 1 
1 1 1 1 1 1 1 1 1 
1 1 1 1 1 1 1 1 1 
1 1 1 1 1 1 1 1 1 
1 1 1 1 1 1 1 1 1 
1 1 1 1 1 1 1 1 1 
1 1 1 1 1 1 1 1 1 
1 1 1 1 1 1 1 1 1 
1 1 1 1 1 1 1 1 1 
1 1 1 1 1 1 1 1 1 
1 1 1 1 1 1 1 1 1 
1 1 1 1 1 1 1 1 1 
1 1 1 1 1 1 1 1 1 
1 1 1 1 1 1 1 1 1 
1 1 1 1 1 1 1 1 1 
1 1 1 1 1 1 1 1 1 
1 1 1 1 1 1 1 1 1 
1 1 1 1 1 1 1 1 1 
1 1 1 1 1 1 1 1 1 
1 1 1 1 1 1 1 1 1 
1 1 1 1 1 1 1 1 1 
1 1 1 1 1 1 1 1 1 
1 1 1 1 1 1 1 1 1 
1 1 1 1 1 1 1 1 1 
1 1 1 1 1 1 1 1 1 
1 1 1 1 1 1 1 1 1 
1 1 1 1 1 1 1 1 1 
1 1 1 1 1 1 1 1 1 
1 1 1 1 1 1 1 1 1 
1 1 1 1 1 1 1 1 1 
1 1 1 1 1 1 1 1 1 
1 1 1 1 1 1 1 1 1 
1 1 1 1 1 1 1 1 1 
1 1 1 1 1 1 1 1 1 
1 1 1 1 1 1 1 1 1 
1 1 1 1 1 1 1 1 1 
1 1 1 1 1 1 1 1 1 
1 1 1 1 1 1 1 1 1 
1 1 1 1 1 1 1 1 1 
1 1 1 1 1 1 1 1 1 
1 1 1 1 1 1 1 1 1 
1 1 1 1 1 1 1 1 1 
1 1 1 1 1 1 1 1 1 
1 1 1 1 1 1 1 1 1 
1 1 1 1 1 1 1 1 1 
1 1 1 1 1 1 1 1 1 
1 1 1 1 1 1 1 1 1 
1 1 1 1 1 1 1 1 1 
1 1 1 1 1 1 1 1 1 
1 1 1 1 1 1 1 1 1 
1 1 1 1 1 1 1 1 1 
1 1 1 1 1 1 1 1 1 
1 1 1 1 1 1 1 1 1 
1 1 1 1 1 1 1 1 1 
1 1 1 1 1 1 1 1 1 
1 1 1 1 1 1 1 1 1 
1 1 1 1 1 1 1 1 1 
1 1 1 1 1 1 1 1 1 
1 1 1 1 1 1 1 1 1 
1 1 1 1 1 1 1 1 1 
1 1 1 1 1 1 1 1 1 
1 1 1 1 1 1 1 1 1 
1 1 1 1 1 1 1 1 1 
1 1 1 1 1 1 1 1 1 
1 1 1 1 1 1 1 1 1 
1 1 1 1 1 1 1 1 1 
1 1 1 1 1 1 1 1 1 
1 1 1 1 1 1 1 1 1 
1 1 1 1 1 1 1 1 1 
1 1 1 1 1 1 1 1 1 
1 1 1 1 1 1 1 1 1 
1 1 1 1 1 1 1 1 1 
1 1 1 1 1 1 1 1 1 
1 1 1 1 1 1 1 1 1 
1 1 1 1 1 1 1 1 1 
1 1 1 1 1 1 1 1 1 
1 1 1 1 1 1 1 1 1 
1 1 
i 3 2000 int
0 0 0 0 0 0 0 0 0 
0 0 0 0 0 0 0 0 0 
0 0 0 0 0 0 0 0 0 
0 0 0 0 0 0 0 0 0 
0 0 0 0 0 0 0 0 0 
0 0 0 0 0 0 0 0 0 
0 0 0 0 0 0 0 0 0 
0 0 0 0 0 0 0 0 0 
0 0 0 0 0 0 0 1 0 
0 0 0 0 0 0 0 0 0 
0 0 0 0 0 0 0 0 0 
0 0 0 0 0 0 0 0 0 
0 1 0 0 0 0 0 0 0 
0 0 0 0 0 0 0 0 0 
0 0 0 0 0 0 0 0 0 
0 0 0 0 0 0 0 0 0 
0 0 0 0 0 0 0 0 0 
0 0 0 0 0 0 0 0 0 
0 0 0 0 0 0 0 0 0 
0 0 0 0 0 0 0 0 0 
0 0 0 0 0 0 0 0 0 
0 0 0 0 0 0 0 0 0 
0 0 0 1 0 0 0 0 0 
0 0 0 0 0 0 0 0 0 
0 0 0 0 0 0 0 0 0 
0 0 0 0 0 0 0 0 0 
0 0 0 0 0 0 0 0 0 
0 0 0 0 0 0 0 0 0 
0 0 0 0 0 0 0 0 0 
0 0 0 0 0 0 0 0 0 
0 0 0 0 0 0 0 0 0 
0 0 0 0 0 0 0 0 0 
0 0 0 0 0 0 0 0 0 
0 0 0 0 0 0 0 0 0 
0 0 0 0 0 0 0 0 0 
0 0 0 0 0 0 0 0 0 
0 0 0 0 0 0 0 0 0 
0 0 0 0 0 0 0 0 0 
0 0 0 0 0 0 0 0 0 
1 0 0 1 0 0 0 0 0 
0 0 0 0 0 0 0 0 0 
0 0 0 0 0 0 0 0 0 
0 0 0 0 0 0 0 0 0 
0 0 0 0 0 0 0 0 0 
0 0 0 0 0 0 0 0 0 
0 0 0 0 0 0 0 0 0 
0 0 0 0 0 0 0 0 0 
0 0 0 0 0 0 0 0 0 
0 0 0 0 0 0 0 0 0 
0 0 0 0 0 0 0 0 0 
0 0 0 0 0 0 0 0 0 
0 0 0 0 0 0 0 0 0 
1 0 0 0 0 0 0 0 0 
0 0 0 0 0 0 0 0 0 
0 0 0 0 0 0 0 0 0 
0 0 0 0 0 0 0 0 0 
0 0 0 0 0 0 0 0 0 
0 0 0 0 0 0 0 0 0 
0 0 0 0 0 0 0 0 0 
0 0 0 0 0 0 0 0 0 
0 0 0 0 0 0 0 0 0 
0 0 0 0 0 0 0 0 0 
0 0 0 0 0 0 0 0 0 
0 0 0 0 0 0 0 0 0 
0 0 0 0 0 0 0 0 0 
0 0 0 0 0 0 0 0 0 
0 0 0 0 0 0 0 0 0 
0 0 0 0 0 0 0 0 0 
0 0 0 0 0 0 0 0 0 
0 0 0 0 0 0 0 0 0 
0 0 0 0 0 0 0 0 0 
0 0 0 0 0 0 0 -1 0 
0 0 0 0 0 0 0 0 0 
0 0 0 0 0 0 0 0 0 
0 0 0 0 0 0 0 0 0 
0 0 0 0 0 0 0 0 0 
0 0 0 0 0 0 0 0 0 
0 0 0 0 0 0 0 0 0 
0 0 0 0 0 0 0 0 0 
0 0 0 0 0 0 0 0 0 
0 0 0 0 0 0 0 0 0 
0 0 0 0 0 0 0 0 0 
0 0 0 0 0 0 0 0 0 
0 0 0 0 0 0 0 0 0 
0 0 0 0 0 0 0 0 0 
0 0 0 0 0 0 0 0 0 
0 0 0 0 1 0 0 0 0 
0 0 0 0 0 0 0 0 0 
0 0 0 0 0 0 0 0 0 
0 0 0 0 0 0 0 0 0 
0 0 0 0 0 0 0 0 0 
0 0 0 0 0 0 0 0 0 
0 0 0 0 0 0 0 0 0 
0 0 0 0 0 0 0 0 0 
0 0 0 0 0 0 0 0 0 
0 0 0 0 0 0 0 0 0 
0 0 0 0 0 0 0 0 0 
0 0 0 0 0 0 0 0 0 
0 0 0 0 0 0 0 0 0 
0 0 0 0 1 0 0 0 0 
-1 0 0 0 0 0 0 0 0 
0 0 0 0 0 0 0 0 0 
0 0 0 0 0 0 0 0 0 
0 0 0 0 0 0 0 0 0 
0 0 0 0 0 0 0 0 0 
0 0 0 0 0 0 -1 0 0 
0 0 0 0 0 0 0 0 0 
0 0 0 0 0 0 0 0 0 
0 0 0 0 0 0 0 0 0 
0 0 0 0 0 0 0 0 0 
0 0 0 1 0 0 0 0 0 
0 0 0 0 0 0 0 0 0 
0 0 0 0 0 0 0 0 0 
0 0 0 0 0 0 0 0 0 
0 0 0 0 0 0 0 0 0 
0 0 0 0 0 0 0 0 0 
0 0 0 0 0 0 0 0 0 
0 0 0 0 0 0 0 0 0 
0 0 0 0 0 0 0 0 0 
0 0 0 0 0 0 0 0 0 
0 0 0 0 0 0 0 0 0 
0 0 0 0 0 0 0 0 0 
0 0 0 0 0 0 0 0 0 
0 0 0 0 0 0 0 0 0 
0 0 0 0 0 0 0 0 0 
0 0 0 0 0 0 0 0 0 
0 0 0 0 0 0 0 0 0 
0 0 0 0 0 0 0 0 0 
0 0 0 0 0 0 0 0 0 
0 0 0 0 0 0 1 0 0 
0 0 0 0 0 0 0 0 0 
0 0 0 0 0 0 0 0 0 
0 0 0 0 0 0 0 0 0 
0 0 0 0 0 0 0 0 0 
0 0 0 0 0 0 0 0 0 
0 0 0 0 0 0 0 0 0 
0 0 0 0 0 0 0 0 0 
0 0 0 0 0 0 0 0 0 
0 0 0 0 0 0 0 0 0 
0 0 0 0 0 0 0 0 0 
0 0 0 0 0 0 0 0 0 
0 0 0 0 0 0 0 0 0 
0 0 0 0 0 0 0 0 0 
0 0 0 0 0 0 0 0 0 
0 0 0 0 0 0 0 0 0 
0 0 0 0 0 0 0 0 0 
0 0 0 0 0 0 0 0 0 
0 0 0 0 0 0 0 0 0 
0 0 0 0 0 0 0 0 0 
0 0 0 0 0 0 0 0 0 
0 0 0 0 0 0 0 0 0 
0 0 0 0 0 0 0 0 0 
0 0 0 0 0 0 0 0 0 
0 0 0 0 0 0 0 0 0 
0 0 0 0 0 0 0 0 0 
0 0 0 0 0 0 0 0 0 
0 0 0 0 0 0 0 0 0 
0 0 0 0 0 0 0 0 0 
0 0 0 0 0 0 0 0 0 
0 0 0 0 0 0 0 0 0 
0 0 0 0 0 0 0 0 0 
0 0 0 0 0 0 0 0 0 
0 0 0 0 0 0 0 0 0 
0 0 0 0 0 0 0 0 0 
0 0 0 0 0 0 0 0 0 
0 0 0 0 0 0 0 0 0 
0 0 0 0 0 0 0 0 0 
0 0 0 0 0 0 0 0 0 
0 0 0 0 0 0 0 0 0 
0 0 0 0 0 0 0 0 0 
0 0 0 0 0 0 0 0 0 
0 0 0 0 0 0 0 0 0 
0 -1 0 0 0 0 0 0 0 
0 0 0 0 0 0 0 0 0 
0 0 0 0 0 0 0 0 0 
0 0 0 0 0 0 0 0 0 
0 0 0 0 0 0 0 0 0 
0 0 0 0 0 0 0 -1 0 
0 0 0 0 0 0 0 0 0 
0 0 0 0 0 0 0 0 0 
0 0 0 0 0 0 0 0 0 
0 0 0 0 0 0 0 0 0 
0 0 0 0 0 0 0 0 0 
0 0 0 0 -1 0 0 0 0 
0 0 0 0 0 0 0 0 0 
0 0 0 0 0 0 0 0 0 
0 0 0 0 0 0 0 0 0 
0 0 0 0 0 0 0 0 0 
0 0 0 0 0 0 0 0 0 
0 0 0 0 0 0 0 0 0 
0 0 0 0 0 0 0 0 0 
0 0 0 0 0 0 0 0 0 
0 0 0 0 0 0 0 0 0 
0 0 0 0 0 0 0 0 0 
0 0 0 0 0 0 0 0 0 
0 0 0 0 0 0 0 0 0 
0 0 0 0 0 0 0 0 0 
0 0 0 0 0 0 0 0 0 
0 0 0 0 0 0 0 0 0 
0 0 0 0 0 0 0 0 0 
0 0 0 0 0 0 0 0 0 
0 0 0 0 0 0 1 0 0 
0 0 0 0 0 0 0 0 0 
0 0 0 0 0 0 0 0 0 
0 0 0 0 0 0 0 0 0 
0 0 0 0 0 0 0 0 0 
0 0 0 0 0 0 0 0 0 
0 0 0 0 0 0 0 1 0 
0 0 0 0 0 0 0 0 0 
0 0 0 0 0 0 0 0 0 
0 0 0 0 0 0 0 0 0 
0 0 0 0 1 0 0 0 0 
0 1 0 0 0 0 0 0 0 
0 0 0 0 0 0 0 0 0 
0 0 0 0 0 0 0 0 0 
0 0 0 0 0 0 0 0 0 
0 0 0 0 0 0 0 0 0 
0 0 0 0 0 0 0 0 0 
0 0 0 0 0 0 0 0 0 
0 0 0 0 0 0 0 0 0 
0 0 0 0 0 0 0 0 0 
0 0 0 0 0 0 0 0 0 
0 0 0 0 0 0 0 0 0 
0 0 0 0 0 0 0 0 0 
0 0 0 0 0 0 0 0 0 
0 0 0 0 0 0 0 0 0 
0 0 0 0 0 0 0 0 0 
0 0 0 0 0 0 0 0 0 
0 0 0 0 0 0 0 0 0 
0 0 0 0 0 0 0 0 0 
0 0 0 0 0 0 0 0 0 
0 0 0 0 0 0 0 0 0 
0 0 0 0 0 0 0 0 0 
0 0 0 0 0 0 0 0 0 
0 0 0 0 0 0 0 0 0 
0 0 0 0 0 0 0 0 0 
0 0 0 0 0 0 0 0 0 
0 0 0 0 0 0 0 0 0 
0 0 0 0 0 0 0 0 0 
1 0 0 0 0 0 0 0 0 
0 0 0 0 0 0 0 0 0 
0 0 0 0 0 0 0 0 0 
0 0 0 0 0 0 0 0 0 
0 0 0 0 0 0 0 0 0 
0 0 0 0 0 0 0 0 0 
0 0 0 0 0 0 0 0 0 
0 0 0 0 0 0 0 0 0 
0 0 0 0 0 0 0 0 0 
0 0 0 0 0 0 0 0 0 
0 0 0 0 0 0 0 0 0 
0 0 0 0 0 0 0 0 0 
0 0 0 0 0 0 0 0 0 
-1 0 0 0 0 0 0 0 0 
0 0 0 0 0 0 0 0 0 
0 0 0 0 0 0 0 0 0 
0 0 0 0 0 0 0 0 0 
0 0 0 0 0 0 0 0 0 
0 0 0 0 0 0 0 0 0 
0 0 0 0 0 0 0 0 0 
0 0 0 1 0 0 0 0 0 
0 0 0 0 0 0 0 0 0 
0 0 0 0 0 0 0 0 0 
0 0 0 0 0 0 0 0 0 
0 0 0 0 0 0 0 0 0 
0 0 0 0 0 0 0 0 0 
0 0 0 0 0 0 0 0 0 
0 0 0 0 0 0 0 0 0 
0 0 0 0 0 0 0 0 0 
0 0 0 0 0 0 0 0 0 
0 0 0 0 0 0 0 0 0 
0 0 0 0 0 0 0 0 0 
0 0 0 0 0 0 0 0 0 
0 0 0 0 0 0 0 0 0 
0 0 0 0 0 0 0 0 0 
0 -1 0 0 -1 0 0 0 0 
0 0 0 0 0 0 0 0 0 
0 0 0 0 0 0 0 0 0 
0 0 0 0 0 0 0 0 0 
0 0 0 0 0 0 0 0 0 
0 0 0 0 0 0 0 0 0 
0 0 0 0 0 0 0 0 0 
0 0 0 0 0 0 0 0 0 
0 0 0 0 0 0 0 0 0 
0 0 0 0 0 0 0 0 0 
0 0 0 0 0 0 0 0 0 
0 0 0 0 0 0 0 0 0 
0 0 0 0 0 0 0 0 0 
0 0 0 0 0 0 0 0 0 
0 0 0 0 0 0 0 0 0 
0 0 0 0 0 0 0 0 0 
0 0 0 0 0 0 0 -1 0 
0 0 0 0 0 0 0 0 0 
0 0 0 0 0 0 0 0 0 
0 0 0 0 0 0 0 0 0 
-1 0 0 -1 0 0 0 0 0 
0 0 0 0 0 0 -1 0 0 
0 0 0 0 0 0 0 0 0 
0 0 0 0 0 0 0 0 0 
0 0 0 0 0 0 0 0 0 
0 0 0 0 0 0 0 0 0 
0 0 0 0 0 0 0 0 0 
0 0 0 0 0 0 0 0 0 
0 0 0 0 0 0 0 0 0 
0 0 0 0 0 0 0 0 0 
0 0 0 0 0 0 0 0 0 
0 0 0 0 0 0 0 0 0 
0 0 0 0 0 0 0 1 0 
0 0 0 0 0 0 0 0 0 
0 0 0 0 0 0 0 0 0 
0 0 0 0 0 0 0 0 0 
0 0 0 0 0 0 0 0 0 
0 0 0 0 0 0 0 0 0 
0 0 0 0 0 0 0 0 0 
0 0 0 0 0 0 0 0 0 
0 0 0 0 0 0 0 0 0 
0 0 0 0 0 0 0 0 0 
0 0 0 0 0 0 0 0 0 
0 0 0 0 0 0 0 0 0 
0 0 0 0 0 0 1 0 0 
0 0 0 0 0 0 0 0 0 
0 0 0 0 0 0 0 0 0 
0 0 0 0 0 0 0 0 0 
0 0 0 0 0 0 0 0 0 
0 0 0 0 0 0 0 0 0 
0 0 0 0 0 0 0 0 0 
0 0 0 0 0 0 0 0 0 
0 0 0 0 0 0 0 0 0 
0 0 0 0 0 0 0 0 0 
0 0 0 0 0 0 0 0 0 
0 0 0 0 0 0 0 0 0 
0 0 0 0 0 0 -1 0 0 
0 0 0 0 0 0 0 0 0 
0 0 0 0 0 0 0 0 0 
0 0 0 0 0 0 0 0 0 
0 0 0 0 0 0 0 0 0 
0 0 0 0 0 0 0 0 0 
0 0 0 0 0 0 0 0 0 
0 0 0 0 0 0 0 0 0 
0 0 0 0 0 0 0 0 0 
0 0 0 0 0 0 0 0 0 
0 0 0 0 0 0 0 0 0 
0 0 0 0 0 0 0 0 0 
0 0 0 0 0 0 0 0 0 
0 0 0 0 0 0 0 0 0 
0 0 0 0 0 0 0 0 0 