# vtk DataFile Version 4.0
Generated by LIGGGHTS
ASCII
DATASET POLYDATA
POINTS 2000 float
-100.63 -86.0691 9.90061 -89.9809 -104.299 9.91973 -109.226 -133.852 9.92026 
-121.649 -118.233 9.91733 -89.2841 -133.032 9.91922 -129.47 -136.576 9.90477 
-128.694 -99.5691 9.92004 -109.699 -103.09 14.9846 -115.005 -130.13 28.6625 
-99.2691 -120.176 21.4665 -140.763 -100.395 26.3987 -131.094 -117.826 27.4983 
-121.354 -100.763 31.009 -96.5055 -136.525 32.5726 -44.2196 -114.65 9.91877 
-43.1113 -134.578 9.91004 -55.3995 -91.5693 9.91877 -62.1283 -123.459 9.92092 
-70.0395 -105.137 9.91782 -29.4225 -99.6844 9.91889 -59.1266 -111.872 25.9001 
-79.3898 -121.429 22.7999 -57.2474 -137.309 23.7137 -77.2443 -140.289 28.9599 
-45.6551 -124.416 33.6378 -44.8227 -91.4447 35.0228 7.34096 -100.062 9.91902 
-8.57386 -136.069 9.92003 27.0435 -96.8608 9.91845 -10.9609 -92.0954 9.9032 
21.7308 -124.479 9.91121 -25.4172 -125.372 9.90672 23.7292 -104.96 27.8559 
2.41543 -119.404 9.92825 19.9805 -124.469 29.7786 8.34267 -139.035 20.0992 
13.2994 -85.1368 21.7571 35.4731 -86.2786 25.4203 81.1747 -88.4583 9.91871 
38.3009 -113.347 9.91987 49.4075 -93.5483 9.91871 37.102 -130.246 21.2697 
69.5978 -117.882 24.7899 118.967 -124.256 9.91583 136.696 -110.682 9.91482 
117.754 -104.325 9.91102 101.112 -115.345 9.91794 100.813 -133.593 25.0588 
121.471 -100.505 29.1314 99.8746 -95.4294 9.92152 136.415 -128.658 18.5703 
135.393 -90.7776 9.91473 121.759 -120.442 29.3018 102.352 -94.8005 29.7194 
103.237 -114.372 33.5325 -94.9156 -31.0262 26.1928 -123.84 -58.0105 9.91152 
-93.7155 -56.8109 24.2475 -140.179 -46.5592 9.91499 -117.748 -38.5309 9.91834 
-105.944 -66.8377 9.92221 -92.2167 -42.2723 9.92056 -114.565 -50.2324 25.7626 
-111.137 -78.6669 25.1521 -129.319 -63.4414 28.318 -130.511 -38.2493 25.2709 
-135.099 -74.4801 9.91964 -130.408 -83.3558 27.3331 -113.473 -31.8687 33.4801 
-82.0694 -64.4087 9.92348 -38.0546 -81.6886 9.91877 -33.3221 -57.1256 9.91618 
-62.0702 -72.7583 9.91782 -60.6175 -41.1755 24.794 -48.3067 -73.8444 26.2762 
-27.0204 -39.01 15.4406 11.5584 -55.6785 9.89146 -8.29448 -57.6556 9.91234 
-5.48657 -37.9021 9.91826 0.327153 -75.6478 9.91941 27.0963 -76.8982 9.91912 
-19.5871 -74.1063 9.91877 12.9471 -59.4864 29.3953 -20.7522 -55.1958 25.2926 
-7.49371 -40.8989 29.5498 -27.3782 -39.3168 35.3935 63.4241 -79.3388 9.91775 
45.6584 -72.2265 15.5664 60.1006 -59.655 9.92364 78.8048 -66.6234 9.91877 
31.4435 -57.4123 9.92152 71.1882 -35.5114 9.91482 46.1511 -53.6739 22.8956 
72.6075 -52.2116 23.594 57.4581 -36.9054 24.3205 31.7017 -66.2456 28.5178 
86.553 -48.2324 9.89729 98.7409 -77.966 19.622 110.72 -65.2858 9.92021 
100.271 -33.733 9.93052 130.553 -63.0318 9.91405 116.493 -84.3921 9.91877 
119.362 -46.5162 9.90374 135.268 -53.7214 27.3485 133.003 -76.8978 24.0435 
130.614 -31.1317 15.7846 -133.088 -25.7731 9.9131 -111.436 7.57374 9.91975 
-96.8232 -6.01931 9.91656 -123.7 -8.16865 9.91578 -86.5592 -23.1316 9.89959 
-109.373 -18.1902 19.5399 -116.48 -1.16091 27.146 -113.158 18.5129 27.1226 
-127.862 21.4836 9.91877 -138.957 0.479447 32.7301 -140.432 -18.58 27.0162 
-108.886 27.6677 9.91495 -83.3702 -14.8229 27.7457 -35.5945 -21.8538 9.91803 
-50.3598 4.81178 9.92466 -30.622 17.648 9.91873 -31.7025 -2.27988 9.91877 
-78.3109 19.6146 24.7775 -43.6041 15.6111 25.3008 -55.2706 -6.646 25.5218 
24.0607 -26.666 24.7981 -15.6681 -20.7394 9.91877 -13.4953 7.44921 10.9024 
9.86767 6.43582 9.91858 19.7326 7.71158 29.3071 29.7259 4.44386 9.92024 
55.4829 -23.2068 9.92137 39.1007 10.7068 33.0783 78.8115 24.012 24.1835 
47.9429 -3.69622 9.91418 45.894 16.1585 9.91877 64.9895 21.9817 9.92065 
81.7875 10.372 9.91924 53.8342 23.4689 28.7803 84.8912 -21.0058 9.91914 
103.591 -14.0397 9.91833 140.399 0.654239 9.91815 125.599 -12.7379 9.91658 
115.087 -21.8728 24.2241 112.866 16.1924 24.7926 -93.2627 66.4509 9.91704 
-114.835 46.7131 9.90806 -94.8803 46.5533 9.91914 -136.357 75.1787 9.91656 
-132.898 55.5202 9.91768 -126.242 38.2859 23.9395 -86.9344 81.7294 21.0933 
-84.6281 53.6646 29.4552 -140.392 37.0215 9.91908 -45.3225 31.1431 9.91877 
-30.2358 76.1402 24.7935 -60.2145 66.1178 9.91368 -59.5827 45.1017 9.92133 
-30.5121 44.5235 9.91901 -76.8505 55.1004 9.91877 -65.0228 74.313 27.4575 
-62.1314 50.2908 29.0296 -70.4626 83.2482 9.92056 18.948 75.391 9.91963 
0.353587 68.124 9.92048 0.074715 36.5012 24.7865 16.7751 67.0353 27.9171 
30.8425 52.9858 26.1579 31.3086 41.4036 9.9158 50.4032 35.6045 9.91877 
68.9444 42.9869 9.92081 71.8308 62.7345 9.91821 35.1575 63.7379 9.91442 
84.4234 51.5086 20.5838 67.7543 39.7269 29.5805 48.1549 43.4037 28.7833 
53.2797 55.3588 9.91877 70.657 59.2108 32.7878 33.7358 29.8537 31.3819 
88.7143 67.6293 31.5192 87.4419 34.9481 9.90306 128.294 65.3173 9.91877 
91.3593 66.871 9.91367 110.144 73.6076 9.91873 103.759 46.4644 9.91722 
123.72 45.8876 9.91889 105.835 60.2011 24.4386 132.561 50.6406 27.1715 
120.68 73.3187 26.8678 88.4122 83.8708 19.9332 -90.3085 97.9206 9.91942 
-115.408 117.144 24.7988 -138.037 95.0659 9.91867 -85.2534 126.634 9.91819 
-71.1117 140.717 9.91807 -37.0663 119.897 9.90868 -53.8934 130.627 9.93167 
-32.7981 110.899 27.1897 -40.0807 133.661 24.0326 -67.0488 108.63 33.6947 
-26.2786 136.69 9.92188 20.7422 131.091 9.9119 -1.74511 89.8288 9.91281 
0.0444226 127.937 9.91994 -6.7087 109.162 9.9244 23.1484 94.9081 9.91363 
9.93114 96.1356 24.8076 12.9386 112.708 9.91638 -15.9458 123.097 20.8513 
-2.50812 111.053 29.3507 12.7042 123.669 26.5881 25.322 108.314 28.4444 
26.6095 138.686 34.4999 -4.07032 130.031 35.3222 48.8421 140.255 9.92312 
67.5596 132.581 9.91101 32.8917 112.331 9.91806 51.6909 120.488 9.91532 
37.1363 128.463 20.984 54.1945 88.9728 24.7954 70.5333 119.852 24.9808 
56.2217 132.43 30.9384 83.6156 120.731 9.92159 90.5506 140.436 9.91636 
137.285 84.3868 26.6281 85.3348 100.851 9.91712 126.395 85.194 9.91952 
101.701 112.278 9.91893 130.214 136.466 9.91486 110.503 139.663 9.92646 
103.414 92.3941 9.90941 134.963 117.075 9.92303 99.4165 128.569 23.4162 
117.98 123.214 18.4375 119.865 104.04 10.8702 133.462 130.531 28.6926 
114.821 134.217 34.7939 -138.99 -111.785 48.2379 -90.3458 -118.764 39.2621 
-131.47 -133.928 39.29 -119.911 -118.367 44.0258 -103.993 -129.089 49.5096 
-121.996 -133.525 56.8549 -129.273 -117.689 66.5774 -133.755 -138.854 72.0764 
-94.5143 -88.2712 81.2737 -138.151 -107.917 81.5388 -91.447 -130.977 64.916 
-84.2745 -113.818 57.6225 -81.366 -134.5 47.6069 -46.3193 -116.083 51.7648 
-34.8125 -100.481 65.728 -66.166 -130.168 59.8039 -70.4307 -119.39 40.5269 
-50.1459 -96.5729 53.5627 -81.5437 -98.3594 69.9557 -64.6072 -110.425 57.3921 
-43.874 -135.806 49.9357 -62.7826 -139.882 42.7072 -52.4394 -120.192 70.3123 
-75.5639 -115.201 78.8177 -59.8045 -102.235 74.9481 -60.3013 -139.896 76.2113 
-40.991 -136.372 72.6181 -38.1127 -89.0512 82.5922 -79.1259 -134.768 80.3874 
-30.622 -119.755 68.786 -42.7488 -108.437 83.278 -79.2031 -85.7119 37.4771 
-73.8799 -97.7591 88.3745 -14.1203 -110.493 39.4137 19.8136 -113.992 46.9746 
8.44353 -137.151 39.9735 10.1533 -127.881 57.5631 10.6595 -108.995 63.9948 
-7.70878 -138.943 58.6396 -4.18898 -87.187 63.4748 14.7392 -94.492 50.9038 
3.1642 -134.906 74.8861 -16.742 -135.713 76.136 13.881 -90.6596 71.1907 
25.5076 -125.871 70.1554 30.5461 -108.058 62.7192 33.083 -96.411 43.2744 
36.9 -116.809 37.0487 44.4294 -136.482 40.3228 57.7555 -131.984 54.4805 
39.3298 -124.383 55.3536 64.341 -119.965 68.9776 48.2817 -107.25 50.354 
48.2652 -99.5161 68.7455 72.0475 -105.651 57.4087 43.5831 -118.242 73.867 
31.0331 -88.1749 61.3365 71.246 -138.64 67.5945 31.5037 -96.9303 79.2646 
54.0442 -134.887 77.3055 73.5313 -129.081 84.9671 30.9166 -140.584 82.499 
82.1848 -126.377 56.2621 140.394 -129.971 56.0242 89.1108 -100.839 48.2467 
92.4431 -137.218 42.8187 130.04 -135.246 39.8029 104.092 -113.469 53.4446 
123.353 -115.261 48.5101 111.058 -130.039 43.1293 130.168 -96.5931 46.6562 
100.89 -132.137 60.1699 110.301 -95.2893 48.0236 120.978 -131.351 60.3955 
99.2581 -98.1026 65.2273 115.868 -108.6 68.7965 110.684 -130.121 77.4408 
93.0552 -116.513 69.7943 115.983 -88.7512 70.8219 133.045 -126.375 75.5018 
132.116 -91.7825 82.1744 105.021 -112.141 85.1672 124.932 -111.855 86.5459 
-122.928 -83.7118 61.4603 -123.068 -52.3554 43.6936 -99.8166 -45.2213 39.313 
-106.519 -63.9457 37.7957 -130.021 -33.6862 44.9104 -101.879 -56.4321 55.6871 
-133.345 -42.2056 62.6444 -92.5149 -68.162 68.8263 -85.4554 -49.3285 79.5303 
-135.485 -55.3224 77.533 -104.374 -55.6454 78.907 -133.532 -34.7953 81.1705 
-31.7651 -66.9781 56.2781 -83.6892 -52.8028 48.3158 -65.6392 -58.5133 54.7075 
-38.872 -33.185 50.951 -60.3826 -83.997 66.8658 -55.7921 -41.7999 59.3919 
-66.0284 -44.9323 80.7798 -75.3478 -42.5875 63.2898 -41.0177 -37.1786 71.9798 
-52.5911 -75.3231 83.0664 -66.0244 -63.6957 73.975 -49.5225 -55.6311 84.1463 
-76.3024 -80.6302 78.4174 -2.40114 -69.3473 37.4894 22.1246 -80.2822 38.9917 
16.4178 -56.5639 64.0106 -10.6477 -39.9969 49.3647 -23.1928 -33.9082 63.6349 
-4.45269 -28.8728 68.3111 11.7283 -28.9213 84.8505 23.9669 -80.7055 88.1171 
69.2806 -41.5705 40.1457 59.9459 -74.4484 47.3773 75.6408 -46.8077 61.8825 
44.3985 -43.1601 47.9355 59.0956 -35.9404 59.3499 67.5769 -62.39 79.2661 
41.0518 -77.9305 76.563 76.3921 -44.6601 81.7049 50.1207 -51.0908 71.4348 
41.8351 -33.1038 68.957 60.2883 -31.6408 79.0613 116.791 -81.8963 34.5459 
103.1 -50.3368 40.5718 134.139 -35.3031 34.973 93.7252 -81.8622 52.3708 
137.458 -50.886 46.9755 133.043 -69.8681 42.7134 94.8366 -46.3641 74.284 
119.004 -78.3693 54.0595 85.6275 -62.9425 68.0756 126.48 -73.1889 77.6015 
128.424 -48.1117 64.5383 99.2057 -77.9472 71.1587 94.1121 -65.5448 85.942 
-99.2592 -6.00728 35.991 -105.062 10.6239 45.3698 -124.225 -15.7651 38.3234 
-104.251 -23.1486 66.028 -124.899 8.88168 44.1239 -103.172 11.7549 65.2008 
-123.078 11.984 63.7511 -93.1754 26.1734 55.7124 -114.376 6.8042 80.9454 
-95.2202 4.18679 85.8801 -122.351 24.8378 84.0858 -86.3478 4.89396 55.4081 
[...]
POINT_DATA 2000
FIELD FieldData 7
id 1 2000 int
41 77 196 230 301 308 411 107 205 
282 380 106 55 343 53 85 259 296 
439 157 275 328 424 223 371 273 185 
265 297 299 410 440 49 172 336 218 
351 95 300 376 408 437 22 59 139 
141 164 29 30 201 379 252 335 47 
283 36 142 215 338 414 456 171 32 
161 261 453 395 381 80 246 112 143 
231 10 211 243 115 208 212 232 365 
48 167 45 281 422 397 113 174 222 
318 108 354 285 317 149 200 434 117 
135 262 286 314 334 274 213 114 239 
342 346 413 66 147 238 99 412 298 
320 443 225 50 69 345 20 46 220 
11 37 358 390 416 122 359 123 256 
264 347 430 54 204 197 97 178 271 
404 15 84 199 362 400 458 234 184 
378 266 187 8 279 321 399 250 384 
387 224 195 240 12 186 133 111 131 
132 389 419 449 229 369 375 72 315 
233 253 34 102 154 221 330 173 352 
58 366 138 6 444 179 311 168 455 
295 385 27 88 62 169 302 339 341 
79 83 426 294 433 127 128 78 33 
110 227 396 421 18 251 242 429 344 
329 160 96 209 288 367 370 452 116 
198 284 247 447 244 438 442 166 401 
448 1283 852 1551 856 1025 361 304 71 
82 119 130 350 319 383 409 292 1007 
1248 1875 1713 1903 903 1746 290 1938 9 
1194 2 241 355 156 64 76 210 293 
1584 1870 1852 1011 418 39 216 263 269 
144 165 382 42 74 332 364 1712 1941 
1809 1945 949 323 1861 137 38 51 125 
394 445 81 155 249 272 436 1279 1425 
1934 701 720 1921 1306 1709 5 245 276 
425 331 388 307 553 1536 1779 655 1754 
23 65 163 415 191 236 1673 1716 1727 
1791 662 643 911 417 75 28 226 353 
1158 1363 974 392 14 44 306 118 89 
327 931 1602 120 1654 86 25 183 180 
313 398 189 188 1315 1641 1867 1919 1953 
255 309 405 26 278 129 322 303 761 
764 1565 43 739 1505 1015 152 57 151 
162 68 158 214 257 175 176 368 427 
864 1210 874 1539 793 1282 121 4 260 
217 357 94 190 202 349 402 1858 571 
591 746 603 268 219 7 100 333 104 
457 70 454 63 1386 1764 1001 752 153 
623 432 582 386 291 277 326 19 441 
1404 839 3 254 450 228 393 145 177 
377 140 1045 1599 1674 1396 1956 420 1457 
661 1 270 109 170 91 312 93 909 
1030 1693 451 61 373 67 267 60 87 
316 372 1650 584 467 280 73 789 235 
374 16 103 194 148 310 356 1079 1951 
1403 1414 206 1123 337 35 258 24 159 
182 435 340 1427 1973 1111 1817 105 126 
360 403 237 287 363 92 348 406 1682 
1395 1514 1849 1766 609 1190 181 324 391 
21 407 40 428 56 98 1805 1891 1086 
1281 1359 207 289 446 90 101 192 13 
124 1589 1866 1397 923 1449 1740 193 146 
423 136 305 52 150 431 1081 1881 1995 
771 817 1498 1833 1703 203 1364 325 17 
31 134 248 1616 967 1139 1444 741 1604 
1758 481 1067 1691 1541 954 1291 784 1104 
519 1769 814 1017 1155 1725 485 1533 1379 
600 1021 1175 542 1172 1999 669 1169 1329 
907 1980 948 965 1257 1600 1895 521 1835 
952 470 1335 1261 1645 951 1618 1340 1662 
1851 554 1447 1684 549 1632 1049 1267 1590 
1406 1127 1988 463 1188 838 1050 1471 1839 
1994 563 1890 775 1561 914 866 1146 1148 
1219 1456 1647 1177 753 1826 480 757 946 
487 1524 574 1424 1842 1837 1538 462 1251 
541 1205 1680 1485 1542 718 1116 887 1824 
1273 490 997 652 878 995 1044 1170 1675 
1578 622 1076 1154 1816 1863 1142 833 889 
627 1586 875 906 1129 1733 1212 1517 1892 
1418 534 1722 985 1566 641 969 1811 1362 
779 653 645 1224 1233 1370 1871 862 1582 
667 1388 845 1041 938 476 723 1412 1670 
806 1101 1166 496 522 1477 1915 1797 854 
1601 1439 1907 842 861 1013 1416 1033 1098 
1176 1626 1735 1128 1462 659 533 754 1062 
1189 1879 1947 1493 629 531 1847 722 1162 
1401 1023 1065 712 1715 1554 1563 699 799 
1143 709 1338 1828 1742 1572 472 1937 1441 
1726 970 595 960 1398 1911 1579 888 1118 
1672 1366 465 1092 1382 581 475 1465 1496 
1339 1269 1035 1723 1888 507 1532 1959 644 
1193 1594 961 1928 1831 901 1409 745 1199 
1570 1527 471 598 1676 1882 1073 919 1171 
892 798 1651 1039 853 675 702 1717 565 
975 1528 1801 841 657 1413 1478 468 1107 
1789 953 1982 567 1487 1771 493 1260 1679 
837 934 1051 1455 1577 1056 1302 1332 1472 
1421 674 625 1929 1240 1450 1606 1862 729 
962 968 1467 1960 1130 1324 1902 966 1636 
1855 1438 1474 1634 1183 759 1254 474 749 
1782 1301 514 1822 1353 803 893 1435 805 
1860 1819 1887 936 1430 848 1931 1889 925 
536 1070 1266 532 810 1218 1944 1552 538 
1200 1977 1910 1152 1522 1877 1624 1054 1681 
589 1918 991 489 1215 981 1500 605 1036 
1225 710 1417 672 631 728 1289 1963 876 
1222 1230 1548 1502 964 1097 832 1827 1124 
1544 1841 509 1103 1608 1053 1699 1986 1834 
1164 1731 523 1262 2000 990 1384 697 1905 
1802 1419 1936 460 566 915 688 1058 1168 
1660 944 984 1631 801 1480 1055 820 1376 
676 1117 1208 1962 1612 1088 1749 835 671 
1459 1576 1978 1100 647 1812 1721 1060 687 
1778 1458 1202 1119 1228 1358 1976 1484 1093 
987 1059 1120 751 1204 1470 596 668 1648 
769 1820 912 850 1326 972 1659 1350 1972 
497 736 1788 686 1664 540 1932 1253 1186 
1767 1857 1221 781 1322 807 1753 886 1083 
1443 1930 1099 619 730 1165 1669 1026 1597 
1066 1134 1018 1330 1770 758 1004 1832 527 
1614 1620 1671 602 1794 755 1207 488 1341 
1564 1285 1964 516 590 1492 865 1307 896 
1531 1550 740 477 1298 617 871 1365 788 
575 499 809 894 935 916 1786 1630 986 
1368 1803 725 1504 1034 1573 770 1488 1464 
1558 1935 529 1075 633 1394 1704 1708 1442 
1308 1568 918 1331 1569 1280 1491 1061 576 
1063 1268 1501 494 1843 994 1069 689 1149 
608 999 615 1411 1196 922 1125 1316 570 
683 1048 1521 1768 646 1091 1698 1422 924 
777 1490 1150 1916 539 1113 895 1310 1948 
732 1856 1575 614 1925 1922 1559 1213 1765 
1737 512 904 1611 1773 624 1263 1463 1781 
1893 1556 1885 1047 524 713 504 665 1909 
1917 601 1072 1137 1617 885 1739 929 1846 
733 797 1108 1787 1133 802 1274 1191 1227 
1970 1806 1246 535 738 1864 795 1426 526 
558 628 642 1334 1701 573 1135 1249 1719 
473 1203 1357 1729 656 1024 1145 1638 1853 
1705 560 1040 1807 790 1796 1761 562 1077 
1195 1965 503 700 1304 1549 1639 1042 492 
1613 1415 1992 942 1311 1957 1738 1497 1627 
825 1939 800 1452 1896 568 1259 1354 1815 
1288 1367 649 1808 1090 1904 1174 479 1352 
648 1429 1942 1372 1734 1868 698 1052 1757 
548 1373 831 593 1342 552 992 1595 1981 
1437 1068 1961 520 998 679 1356 1667 1380 
1511 546 1732 920 988 1046 1949 1486 1161 
708 818 959 1244 1661 794 1663 1293 1006 
1287 1241 1557 1571 500 1151 1159 1991 1180 
1751 1605 1009 1236 530 787 1319 1836 597 
1800 1355 1087 1585 1250 1348 1431 1234 1547 
1825 1850 719 811 1993 1658 747 1300 1844 
484 1089 822 604 1138 1121 510 1245 763 
1029 1374 1692 690 1971 1479 1436 517 693 
1466 1509 1526 1546 1876 680 650 694 1106 
1112 1473 1665 682 742 868 796 867 1209 
869 1325 486 1760 612 774 917 1545 1295 
1621 1830 621 572 651 1451 1900 1790 1741 
1537 902 1696 1874 511 1454 1702 1736 1391 
1314 681 1420 780 830 870 1115 743 1178 
1510 469 704 1428 955 1389 1914 1924 483 
765 1776 1615 945 971 1231 1873 1132 1513 
1271 1966 910 1519 1640 908 1275 1829 1854 
547 1360 1958 1064 1423 1508 696 993 1173 
1940 1346 750 819 1838 1303 559 1743 1223 
1393 1975 1952 1105 760 1141 632 1593 1974 
1499 1529 1581 1592 678 1752 1880 1010 791 
1038 881 1967 1445 613 744 1580 1000 827 
1555 1512 1082 1755 1926 776 1886 658 1351 
1810 1818 580 1197 1920 1644 1823 851 695 
1122 550 1540 564 579 762 1239 1309 1845 
1984 1697 1574 1336 863 1799 691 767 1184 
1883 1071 1147 1759 956 518 1028 973 1136 
1865 1461 464 1898 1078 711 731 1181 1229 
860 1489 1375 1625 1278 847 858 950 737 
941 1780 1131 927 977 1286 616 555 482 
958 785 1689 1785 626 724 1328 1192 928 
1094 1405 1609 899 1272 1872 1996 578 1012 
506 873 1469 1371 1884 715 1167 1506 525 
1596 1683 1718 1235 1008 1014 1022 1635 1238 
654 1649 1955 1720 638 812 1543 1859 635 
705 976 561 857 1276 1793 1798 1588 1320 
926 1327 1848 592 577 1643 1518 1220 1591 
543 1140 1211 1005 1408 585 664 663 846 
1214 1688 937 804 1157 1668 707 1237 1255 
515 1057 772 1323 1587 843 1163 498 1530 
587 815 855 1031 1677 1775 890 1694 773 
1633 703 1297 1619 1687 963 1433 1277 569 
1369 1814 537 1494 1361 1084 606 1345 1878 
1448 1299 905 1927 880 501 1160 508 1483 
1897 1258 640 717 821 1343 1724 1744 766 
816 1110 670 879 557 716 898 721 826 
1385 900 505 1446 947 756 1923 1503 1748 
673 829 1906 1126 1700 588 980 1206 1085 
666 1296 1933 891 1305 1774 1990 834 513 
1402 1686 1690 1392 1027 1096 1318 478 836 
734 748 1750 1187 545 978 939 1312 1482 
1037 1987 639 768 1019 1217 1598 1763 1985 
1349 1383 1989 982 1410 620 611 1520 1032 
1468 824 1475 1284 1507 943 618 1745 1453 
459 1095 1685 636 1777 1387 1337 1678 1943 
607 783 996 1913 491 1954 1607 684 957 
1460 1756 594 1710 1516 1400 1567 599 1256 
921 1016 556 1666 1908 813 1378 1714 1637 
1622 1074 1264 1290 1730 706 1407 1156 1840 
989 1997 528 1711 1969 1495 1390 897 1270 
1950 1399 1313 637 1080 1813 660 544 1946 
1294 714 1562 1653 1983 1226 1333 840 1114 
1440 1784 1583 1652 1656 502 930 1344 1481 
1646 1185 1232 1043 1377 849 884 1347 859 
1553 586 1628 933 1792 1265 940 1706 1523 
1102 882 610 877 778 1968 1998 583 844 
1603 1179 1144 808 1728 1003 1109 1979 786 
983 1020 1321 1560 1317 1242 1525 1655 1695 
1642 1002 1434 466 932 1821 1783 1381 913 
792 692 495 1247 1515 1629 1292 726 735 
1707 1432 1182 1894 1476 1610 1869 634 883 
1912 1252 1153 823 1623 1657 1243 782 1201 
1216 1535 1901 1762 1534 872 1804 1747 685 
461 1198 727 630 979 551 1899 677 828 
1772 1795 
type 1 2000 int
1 1 1 1 1 1 1 1 1 
1 1 1 1 1 1 1 1 1 
1 1 1 1 1 1 1 1 1 
1 1 1 1 1 1 1 1 1 
1 1 1 1 1 1 1 1 1 
1 1 1 1 1 1 1 1 1 
1 1 1 1 1 1 1 1 1 
1 1 1 1 1 1 1 1 1 
1 1 1 1 1 1 1 1 1 
1 1 1 1 1 1 1 1 1 
1 1 1 1 1 1 1 1 1 
1 1 1 1 1 1 1 1 1 
1 1 1 1 1 1 1 1 1 
1 1 1 1 1 1 1 1 1 
1 1 1 1 1 1 1 1 1 
1 1 1 1 1 1 1 1 1 
1 1 1 1 1 1 1 1 1 
1 1 1 1 1 1 1 1 1 
1 1 1 1 1 1 1 1 1 
1 1 1 1 1 1 1 1 1 
1 1 1 1 1 1 1 1 1 
1 1 1 1 1 1 1 1 1 
1 1 1 1 1 1 1 1 1 
1 1 1 1 1 1 1 1 1 
1 1 1 1 1 1 1 1 1 
1 1 1 1 1 1 1 1 1 
1 1 1 1 1 1 1 1 1 
1 1 1 1 1 1 1 1 1 
1 1 1 1 1 1 1 1 1 
1 1 1 1 1 1 1 1 1 
1 1 1 1 1 1 1 1 1 
1 1 1 1 1 1 1 1 1 
1 1 1 1 1 1 1 1 1 
1 1 1 1 1 1 1 1 1 
1 1 1 1 1 1 1 1 1 
1 1 1 1 1 1 1 1 1 
1 1 1 1 1 1 1 1 1 
1 1 1 1 1 1 1 1 1 
1 1 1 1 1 1 1 1 1 
1 1 1 1 1 1 1 1 1 
1 1 1 1 1 1 1 1 1 
1 1 1 1 1 1 1 1 1 
1 1 1 1 1 1 1 1 1 
1 1 1 1 1 1 1 1 1 
1 1 1 1 1 1 1 1 1 
1 1 1 1 1 1 1 1 1 
1 1 1 1 1 1 1 1 1 
1 1 1 1 1 1 1 1 1 
1 1 1 1 1 1 1 1 1 
1 1 1 1 1 1 1 1 1 
1 1 1 1 1 1 1 1 1 
1 1 1 1 1 1 1 1 1 
1 1 1 1 1 1 1 1 1 
1 1 1 1 1 1 1 1 1 
1 1 1 1 1 1 1 1 1 
1 1 1 1 1 1 1 1 1 
1 1 1 1 1 1 1 1 1 
1 1 1 1 1 1 1 1 1 
1 1 1 1 1 1 1 1 1 
1 1 1 1 1 1 1 1 1 
1 1 1 1 1 1 1 1 1 
1 1 1 1 1 1 1 1 1 
1 1 1 1 1 1 1 1 1 
1 1 1 1 1 1 1 1 1 
1 1 1 1 1 1 1 1 1 
1 1 1 1 1 1 1 1 1 
1 1 1 1 1 1 1 1 1 
1 1 1 1 1 1 1 1 1 
1 1 1 1 1 1 1 1 1 
1 1 1 1 1 1 1 1 1 
1 1 1 1 1 1 1 1 1 
1 1 1 1 1 1 1 1 1 
1 1 1 1 1 1 1 1 1 
1 1 1 1 1 1 1 1 1 
1 1 1 1 1 1 1 1 1 
1 1 1 1 1 1 1 1 1 
1 1 1 1 1 1 1 1 1 
1 1 1 1 1 1 1 1 1 
1 1 1 1 1 1 1 1 1 
1 1 1 1 1 1 1 1 1 
1 1 1 1 1 1 1 1 1 
1 1 1 1 1 1 1 1 1 
1 1 1 1 1 1 1 1 1 
1 1 1 1 1 1 1 1 1 
1 1 1 1 1 1 1 1 1 
1 1 1 1 1 1 1 1 1 
1 1 1 1 1 1 1 1 1 
1 1 1 1 1 1 1 1 1 
1 1 1 1 1 1 1 1 1 
1 1 1 1 1 1 1 1 1 
1 1 1 1 1 1 1 1 1 
1 1 1 1 1 1 1 1 1 
1 1 1 1 1 1 1 1 1 
1 1 1 1 1 1 1 1 1 
1 1 1 1 1 1 1 1 1 
1 1 1 1 1 1 1 1 1 
1 1 1 1 1 1 1 1 1 
1 1 1 1 1 1 1 1 1 
1 1 1 1 1 1 1 1 1 
1 1 1 1 1 1 1 1 1 
1 1 1 1 1 1 1 1 1 
1 1 1 1 1 1 1 1 1 
1 1 1 1 1 1 1 1 1 
1 1 1 1 1 1 1 1 1 
1 1 1 1 1 1 1 1 1 
1 1 1 1 1 1 1 1 1 
1 1 1 1 1 1 1 1 1 
1 1 1 1 1 1 1 1 1 
1 1 1 1 1 1 1 1 1 
1 1 1 1 1 1 1 1 1 
1 1 1 1 1 1 1 1 1 
1 1 1 1 1 1 1 1 1 
1 1 1 1 1 1 1 1 1 
1 1 1 1 1 1 1 1 1 
1 1 1 1 1 1 1 1 1 
1 1 1 1 1 1 1 1 1 
1 1 1 1 1 1 1 1 1 
1 1 1 1 1 1 1 1 1 
1 1 1 1 1 1 1 1 1 
1 1 1 1 1 1 1 1 1 
1 1 1 1 1 1 1 1 1 
1 1 1 1 1 1 1 1 1 
1 1 1 1 1 1 1 1 1 
1 1 1 1 1 1 1 1 1 
1 1 1 1 1 1 1 1 1 
1 1 1 1 1 1 1 1 1 
1 1 1 1 1 1 1 1 1 
1 1 1 1 1 1 1 1 1 
1 1 1 1 1 1 1 1 1 
1 1 1 1 1 1 1 1 1 
1 1 1 1 1 1 1 1 1 
1 1 1 1 1 1 1 1 1 
1 1 1 1 1 1 1 1 1 
1 1 1 1 1 1 1 1 1 
1 1 1 1 1 1 1 1 1 
1 1 1 1 1 1 1 1 1 
1 1 1 1 1 1 1 1 1 
1 1 1 1 1 1 1 1 1 
1 1 1 1 1 1 1 1 1 
1 1 1 1 1 1 1 1 1 
1 1 1 1 1 1 1 1 1 
1 1 1 1 1 1 1 1 1 
1 1 1 1 1 1 1 1 1 
1 1 1 1 1 1 1 1 1 
1 1 1 1 1 1 1 1 1 
1 1 1 1 1 1 1 1 1 
1 1 1 1 1 1 1 1 1 
1 1 1 1 1 1 1 1 1 
1 1 1 1 1 1 1 1 1 
1 1 1 1 1 1 1 1 1 
1 1 1 1 1 1 1 1 1 
1 1 1 1 1 1 1 1 1 
1 1 1 1 1 1 1 1 1 
1 1 1 1 1 1 1 1 1 
1 1 1 1 1 1 1 1 1 
1 1 1 1 1 1 1 1 1 
1 1 1 1 1 1 1 1 1 
1 1 1 1 1 1 1 1 1 
1 1 1 1 1 1 1 1 1 
1 1 1 1 1 1 1 1 1 
1 1 1 1 1 1 1 1 1 
1 1 1 1 1 1 1 1 1 
1 1 1 1 1 1 1 1 1 
1 1 1 1 1 1 1 1 1 
1 1 1 1 1 1 1 1 1 
1 1 1 1 1 1 1 1 1 
1 1 1 1 1 1 1 1 1 
1 1 1 1 1 1 1 1 1 
1 1 1 1 1 1 1 1 1 
1 1 1 1 1 1 1 1 1 
1 1 1 1 1 1 1 1 1 
1 1 1 1 1 1 1 1 1 
1 1 1 1 1 1 1 1 1 
1 1 1 1 1 1 1 1 1 
1 1 1 1 1 1 1 1 1 
1 1 1 1 1 1 1 1 1 
1 1 1 1 1 1 1 1 1 
1 1 1 1 1 1 1 1 1 
1 1 1 1 1 1 1 1 1 
1 1 1 1 1 1 1 1 1 
1 1 1 1 1 1 1 1 1 
1 1 1 1 1 1 1 1 1 
1 1 1 1 1 1 1 1 1 
1 1 1 1 1 1 1 1 1 
1 1 1 1 1 1 1 1 1 
1 1 1 1 1 1 1 1 1 
1 1 1 1 1 1 1 1 1 
1 1 1 1 1 1 1 1 1 
1 1 1 1 1 1 1 1 1 
1 1 1 1 1 1 1 1 1 
1 1 1 1 1 1 1 1 1 
1 1 1 1 1 1 1 1 1 
1 1 1 1 1 1 1 1 1 
1 1 1 1 1 1 1 1 1 
1 1 1 1 1 1 1 1 1 
1 1 1 1 1 1 1 1 1 
1 1 1 1 1 1 1 1 1 
1 1 1 1 1 1 1 1 1 
1 1 1 1 1 1 1 1 1 
1 1 1 1 1 1 1 1 1 
1 1 1 1 1 1 1 1 1 
1 1 1 1 1 1 1 1 1 
1 1 1 1 1 1 1 1 1 
1 1 1 1 1 1 1 1 1 
1 1 1 1 1 1 1 1 1 
1 1 1 1 1 1 1 1 1 
1 1 1 1 1 1 1 1 1 
1 1 1 1 1 1 1 1 1 
1 1 1 1 1 1 1 1 1 
1 1 1 1 1 1 1 1 1 
1 1 1 1 1 1 1 1 1 
1 1 1 1 1 1 1 1 1 
1 1 1 1 1 1 1 1 1 
1 1 1 1 1 1 1 1 1 
1 1 1 1 1 1 1 1 1 
1 1 1 1 1 1 1 1 1 
1 1 1 1 1 1 1 1 1 
1 1 1 1 1 1 1 1 1 
1 1 1 1 1 1 1 1 1 
1 1 1 1 1 1 1 1 1 
1 1 1 1 1 1 1 1 1 
1 1 1 1 1 1 1 1 1 
1 1 
i 3 2000 int
0 0 0 0 0 0 0 0 0 
0 0 0 0 0 0 0 0 0 
0 0 0 0 0 0 0 0 0 
0 0 0 0 0 0 0 0 0 
0 0 0 0 0 0 0 0 0 
0 0 0 0 0 0 0 0 0 
0 0 0 0 0 0 0 0 0 
0 0 0 0 0 0 0 0 0 
0 0 0 0 0 0 0 0 0 
0 0 0 0 0 0 0 0 0 
0 0 0 0 0 0 0 0 0 
0 0 0 0 0 0 0 1 0 
0 0 0 0 0 0 0 0 0 
0 0 0 0 0 0 0 0 0 
0 0 0 0 0 0 0 0 0 
0 0 0 0 0 0 0 0 0 
0 0 0 0 0 0 0 0 0 
0 0 0 0 0 0 0 0 0 
0 0 0 0 0 0 0 0 0 
0 0 0 0 0 0 0 0 0 
0 0 0 0 0 0 0 0 0 
0 0 0 0 0 0 0 0 0 
1 0 0 0 0 0 0 0 0 
0 0 0 0 0 0 0 0 0 
0 0 0 0 0 0 0 0 0 
0 0 0 0 0 0 0 0 0 
0 0 0 0 0 0 0 0 0 
0 0 0 0 0 0 0 0 0 
0 0 0 0 0 0 0 0 0 
0 0 0 0 0 0 0 0 0 
0 0 0 0 0 0 0 0 0 
0 0 0 0 0 0 0 0 0 
0 0 0 0 0 0 0 0 0 
0 0 0 0 0 0 0 0 0 
0 0 0 0 0 0 0 0 0 
0 0 0 0 0 0 0 0 0 
0 0 0 0 0 0 0 0 0 
0 0 0 0 0 0 0 0 0 
0 0 0 1 0 0 1 0 0 
0 0 0 0 0 0 0 0 0 
0 0 0 0 0 0 0 0 0 
0 0 0 0 0 0 0 0 0 
0 0 0 0 0 0 0 0 0 
0 0 0 0 0 0 0 0 0 
0 0 0 0 0 0 0 0 0 
0 0 0 0 0 0 0 0 0 
0 0 0 0 0 0 0 0 0 
0 0 0 0 0 0 0 0 0 
0 0 0 0 0 0 0 0 0 
0 0 0 0 0 0 0 0 0 
0 0 0 0 0 0 0 0 0 
0 0 0 1 0 0 0 0 0 
0 0 0 0 0 0 0 0 0 
0 0 0 0 0 0 0 0 0 
0 0 0 0 0 0 0 0 0 
0 0 0 0 0 0 0 0 0 
0 0 0 0 0 0 0 0 0 
0 0 0 0 0 0 0 0 0 
0 0 0 0 0 0 0 0 0 
0 0 0 0 0 0 0 0 0 
0 0 0 0 0 0 0 0 0 
0 0 0 0 0 0 0 0 0 
0 0 0 0 0 0 0 0 0 
0 0 0 0 0 0 0 0 0 
0 0 0 0 0 0 0 0 0 
0 0 0 0 0 0 0 0 0 
0 0 0 0 0 0 0 0 0 
0 0 0 0 0 0 0 0 0 
0 0 0 0 0 0 0 0 0 
0 0 0 0 0 0 0 0 0 
0 0 0 0 0 0 0 0 0 
0 0 0 0 0 0 0 -1 0 
0 0 0 0 0 0 0 0 0 
0 0 0 0 0 0 0 0 0 
0 0 0 0 0 0 0 0 0 
0 0 0 0 0 0 0 0 0 
0 0 0 0 0 0 0 0 0 
0 0 0 0 0 0 0 0 0 
0 0 0 0 0 0 0 0 0 
0 0 0 0 0 0 0 0 0 
0 0 0 0 0 0 0 0 0 
0 0 0 0 0 0 0 0 0 
0 0 0 0 0 0 0 0 0 
0 0 0 0 0 0 0 0 0 
0 0 0 0 0 0 0 0 0 
0 0 0 0 0 0 0 0 0 
0 0 0 0 1 0 0 0 0 
0 0 0 0 0 0 0 0 0 
0 0 0 0 0 0 0 0 0 
0 0 0 0 0 0 0 0 0 
0 0 0 0 0 0 0 0 0 
0 0 0 0 0 0 0 0 0 
0 0 0 0 0 0 0 0 0 
0 0 0 0 0 0 0 0 0 
0 0 0 0 0 0 0 0 0 
0 0 0 0 0 0 0 0 0 
0 0 0 0 0 0 0 0 0 
0 0 0 0 0 0 0 0 0 
0 0 0 0 0 0 0 0 0 
0 0 0 0 0 0 0 1 0 
0 0 0 -1 0 0 0 0 0 
0 0 0 0 0 0 0 0 0 
0 0 0 0 0 0 0 0 0 
0 0 0 0 0 0 0 0 0 
0 0 0 0 0 0 0 0 0 
0 0 0 0 0 0 0 0 0 
-1 0 0 0 0 0 0 0 0 
0 0 0 0 0 0 0 0 0 
0 0 0 0 0 0 0 0 0 
0 0 0 0 0 0 0 0 0 
0 0 0 0 0 0 1 0 0 
0 0 0 0 0 0 0 0 0 
0 0 0 0 0 0 0 0 0 
0 0 0 0 0 0 0 0 0 
0 0 0 0 0 0 0 0 0 
0 0 0 0 0 0 0 0 0 
0 0 0 0 0 0 0 0 0 
0 0 0 0 0 0 0 0 0 
0 0 0 0 0 0 0 0 0 
0 0 0 0 0 0 0 0 0 
0 0 0 0 0 0 0 0 0 
0 0 0 0 0 0 0 0 0 
0 0 0 0 0 0 0 0 0 
0 0 0 0 0 0 0 0 0 
0 0 0 0 0 0 0 0 0 
0 0 0 0 0 0 0 0 0 
0 0 0 0 0 0 0 0 0 
0 0 0 0 0 0 0 0 0 
0 0 0 0 0 0 0 0 0 
0 0 0 0 0 0 0 0 0 
0 0 0 0 0 0 1 0 0 
0 0 0 0 0 0 0 0 0 
0 0 0 0 0 0 0 0 0 
0 0 0 0 0 0 0 0 0 
0 0 0 0 0 0 0 0 0 
0 0 0 0 0 0 0 0 0 
0 0 0 0 0 0 0 0 0 
0 0 0 0 0 0 0 0 0 
0 0 0 0 0 0 0 0 0 
0 0 0 0 0 0 0 0 0 
0 0 0 0 0 0 0 0 0 
0 0 0 0 0 0 0 0 0 
0 0 0 0 0 0 0 0 0 
0 0 0 0 0 0 0 0 0 
0 0 0 0 0 0 0 0 0 
0 0 0 0 0 0 0 0 0 
0 0 0 0 0 0 0 0 0 
0 0 0 0 0 0 0 0 0 
0 0 0 0 0 0 0 0 0 
0 0 0 0 0 0 0 0 0 
0 0 0 0 0 0 0 0 0 
0 0 0 0 0 0 0 0 0 
0 0 0 0 0 0 0 0 0 
0 0 0 0 0 0 0 0 0 
0 0 0 0 0 0 0 0 0 
0 0 0 0 0 0 0 0 0 
1 0 0 0 0 0 0 0 0 
0 0 0 0 0 0 0 0 0 
0 0 0 0 0 0 0 0 0 
0 0 0 0 0 0 0 0 0 
0 0 0 0 0 0 0 0 0 
0 0 0 0 0 0 0 0 0 
0 0 0 0 0 0 0 0 0 
0 0 0 0 0 0 0 0 0 
0 0 0 0 0 0 0 0 0 
0 0 0 0 0 0 0 0 0 
0 0 0 0 0 0 0 0 0 
0 0 0 0 0 0 0 0 0 
0 0 0 0 0 0 0 0 0 
0 0 0 0 0 0 0 0 0 
0 0 0 0 0 0 0 0 0 
0 0 0 0 0 0 0 0 0 
0 0 0 0 0 0 0 0 0 
0 -1 0 0 0 0 0 0 0 
0 0 0 0 0 0 0 0 0 
0 0 0 0 0 0 0 0 0 
0 0 0 0 0 0 0 0 0 
0 0 0 0 0 0 0 0 0 
0 0 0 0 0 0 0 -1 0 
0 0 0 0 0 0 0 0 0 
0 0 0 0 0 0 0 0 0 
0 0 0 0 0 0 0 0 0 
0 0 0 0 0 0 0 0 0 
0 0 0 0 0 0 0 0 0 
0 -1 0 0 0 0 0 0 0 
0 0 0 0 0 0 0 0 0 
0 0 0 0 0 0 0 0 0 
0 0 0 0 0 0 0 0 0 
0 0 0 0 0 0 0 0 0 
0 0 0 0 0 0 0 0 0 
0 0 0 0 0 0 0 0 0 
0 0 0 0 0 0 0 0 0 
0 0 0 0 0 0 0 0 0 
0 0 0 0 0 0 0 0 0 
0 0 0 0 0 0 0 0 0 
0 0 0 0 0 0 0 0 0 
0 0 0 0 0 0 0 0 0 
0 0 0 0 0 0 0 0 0 
0 0 0 0 0 0 0 0 0 
0 0 0 0 0 0 0 0 0 
0 0 0 0 0 0 0 0 0 
0 0 0 0 0 0 0 0 0 
0 0 0 1 0 0 0 0 0 
0 0 0 0 0 0 0 0 0 
0 0 0 0 0 0 0 0 0 
0 0 0 0 0 0 0 0 0 
0 0 0 0 0 0 0 0 0 
0 0 0 0 0 0 0 0 0 
0 1 0 0 0 0 0 0 0 
0 0 0 0 0 0 0 0 0 
0 0 0 0 0 0 0 0 0 
0 0 0 0 1 0 0 0 0 
0 1 0 0 0 0 0 0 0 
0 0 0 0 0 0 0 0 0 
0 0 0 0 0 0 0 0 0 
0 0 0 0 0 0 0 0 0 
0 0 0 0 0 0 0 0 0 
0 0 0 0 0 0 0 0 0 
0 0 0 0 0 0 0 0 0 
0 0 0 0 0 0 0 0 0 
0 0 0 0 0 0 0 0 0 
0 0 0 0 0 0 0 0 0 
0 0 0 0 0 0 0 0 0 
0 0 0 0 0 0 0 0 0 
0 0 0 0 0 0 0 0 0 
0 0 0 0 0 0 0 0 0 
0 0 0 0 0 0 0 0 0 
0 0 0 0 0 0 0 0 0 
0 0 0 0 0 0 0 0 0 
0 0 0 0 0 0 0 0 0 
0 0 0 0 0 0 0 0 0 
0 0 0 0 0 0 0 0 0 
0 0 0 0 0 0 0 0 0 
0 0 0 0 0 0 0 0 0 
0 0 0 0 0 0 0 0 0 
0 0 0 0 0 0 0 0 0 
0 0 0 0 0 0 0 0 0 
0 0 0 0 0 0 0 0 0 
0 0 0 0 0 0 1 0 0 
0 0 0 0 0 0 0 0 0 
0 0 0 0 0 0 0 0 0 
0 0 0 0 0 0 0 0 0 
0 0 0 0 0 0 0 0 0 
0 0 0 0 0 0 0 0 0 
0 0 0 0 0 0 0 0 0 
0 0 0 0 0 0 0 0 0 
0 0 0 0 0 0 0 0 0 
0 0 0 0 0 0 0 0 0 
0 0 0 0 0 0 0 0 0 
0 0 0 0 0 0 0 0 0 
0 0 0 0 0 0 0 0 0 
0 0 0 -1 0 0 0 0 0 
0 0 0 0 0 0 0 0 0 
0 0 0 0 0 0 0 0 0 
0 0 0 0 0 0 0 0 0 
0 0 0 0 0 0 0 0 0 
0 0 0 0 0 0 0 0 0 
0 0 0 0 0 0 0 0 0 
0 0 0 0 0 0 1 0 0 
0 0 0 0 0 0 0 0 0 
0 0 0 0 0 0 0 0 0 
0 0 0 0 0 0 0 0 0 
0 0 0 0 0 0 0 0 0 
0 0 0 0 0 0 0 0 0 
0 0 0 0 0 0 0 0 0 
0 0 0 0 0 0 0 0 0 
0 0 0 0 0 0 0 0 0 
0 0 0 0 0 0 0 0 0 
0 0 0 0 0 0 0 0 0 
0 0 0 0 0 0 0 0 0 
0 0 0 0 0 0 0 0 0 
0 0 0 0 0 0 0 0 0 
0 0 0 0 0 0 0 0 0 
0 0 0 0 0 0 0 0 0 
0 -1 0 0 -1 0 0 0 0 
0 0 0 0 0 0 0 0 0 
0 0 0 0 0 0 0 0 0 
0 0 0 0 0 0 0 0 0 
0 0 0 0 0 0 0 0 0 
0 0 0 0 0 0 0 0 0 
0 0 0 0 0 0 0 0 0 
0 0 0 0 0 0 0 0 0 
0 0 0 0 0 0 0 0 0 
0 0 0 0 0 0 0 0 0 
0 0 0 0 0 0 0 0 0 
0 0 0 0 0 0 0 0 0 
0 0 0 0 0 0 0 0 0 
0 0 0 0 0 0 0 0 0 
0 0 0 0 0 0 0 0 0 
0 0 0 0 0 0 0 0 0 
0 0 0 0 0 0 0 0 0 
0 -1 0 0 0 0 0 0 0 
0 0 0 0 0 0 0 0 0 
0 0 0 -1 0 0 -1 0 0 
0 0 0 0 0 0 0 0 0 
-1 0 0 0 0 0 0 0 0 
0 0 0 0 0 0 0 0 0 
0 0 0 0 0 0 0 0 0 
0 0 0 0 0 0 0 0 0 
0 0 0 0 0 0 0 0 0 
0 0 0 0 0 0 0 0 0 
0 0 0 0 0 0 0 0 0 
0 0 0 0 0 0 0 0 0 
0 0 0 0 0 0 0 0 0 
0 0 0 0 0 0 0 0 0 
0 0 0 0 0 0 0 0 0 
0 1 0 0 0 0 0 0 0 
0 0 0 0 0 0 0 0 0 
0 0 0 0 0 0 0 0 0 
0 0 0 0 0 0 0 0 0 
0 0 0 0 0 0 0 0 0 
0 0 0 0 0 0 0 0 0 
0 0 0 0 0 0 0 0 0 
0 0 0 0 0 0 0 0 0 
0 0 0 0 0 0 0 0 0 
0 0 0 0 0 0 0 0 0 
0 0 0 0 0 0 0 0 0 
0 0 0 0 0 0 0 0 0 
0 0 0 0 0 0 0 0 0 
0 0 0 0 0 0 0 0 0 
0 0 0 0 0 0 0 0 0 
0 0 0 0 0 0 0 0 0 
0 0 0 0 0 0 0 0 0 
0 0 0 0 0 0 0 0 0 
0 0 0 0 0 0 0 0 0 
0 0 0 0 0 0 0 0 0 
0 0 0 0 0 0 0 0 0 
0 0 0 0 0 0 0 0 0 
0 0 0 0 0 0 0 0 0 
0 0 0 0 0 0 0 0 0 
0 0 0 -1 0 0 0 0 0 
0 0 0 0 0 0 0 0 0 
0 0 0 0 0 0 0 0 0 
0 0 0 0 0 0 0 0 0 
0 0 0 0 0 0 0 0 0 
0 0 0 0 0 0 0 0 0 
0 0 0 0 0 0 0 0 0 
0 0 0 0 0 0 0 0 0 
0 0 0 0 0 0 0 0 0 
0 0 0 0 0 0 0 0 0 
0 0 0 0 0 0 0 0 0 
0 0 0 0 0 0 1 0 0 
0 0 0 0 0 0 0 0 0 
0 0 0 0 0 0 0 0 0 
0 0 0 0 0 0 0 0 0 