# vtk DataFile Version 4.0
Generated by LIGGGHTS
ASCII
DATASET POLYDATA
POINTS 2000 float
-87.8945 -91.9437 9.99973 -94.8092 -113.579 9.99926 -105.753 -130.931 9.9947 
-117.717 -114.888 9.99857 -88.6105 -141.225 10.0731 -128.507 -132.774 9.99973 
-107.114 -97.8132 9.99198 -117.239 -127.106 25.9066 -109.81 -108.591 27.2814 
-133.387 -115.481 22.4114 -118.322 -90.6531 24.9156 -92.5843 -118.072 30.9276 
-130.165 -84.5743 9.99575 -56.6769 -100.533 9.99979 -30.8441 -122.19 9.9988 
-75.5509 -108.177 9.99338 -66.4693 -138.978 9.99841 -78.9433 -125.919 18.589 
-37.9493 -103.969 16.2382 -60.329 -118.678 17.5973 -47.3149 -133.136 12.9601 
-58.7934 -140.752 31.6161 -38.011 -138.8 29.7322 -33.4583 -85.5077 23.2639 
-50.281 -122.87 34.3692 -1.63635 -104.523 9.99976 0.831578 -138.506 9.99922 
18.1956 -101.966 9.99459 -20.289 -96.9412 10.0033 10.5103 -120.483 9.99853 
-10.847 -122.272 9.98997 8.11092 -130.959 27.0267 20.9602 -91.4774 26.7888 
1.04783 -90.9013 24.3972 20.1668 -114.871 26.715 25.4356 -132.04 17.0548 
37.7522 -101.62 22.9065 55.2814 -128.091 10.0094 67.0265 -85.304 9.99859 
37.4714 -116.885 9.99497 65.6806 -110.91 9.99973 47.5645 -89.9034 10.0088 
40.1691 -123.436 28.6942 138.647 -97.2434 18.1033 117.432 -127.969 9.99641 
132.324 -114.404 9.99199 100.604 -92.801 10 85.0817 -105.726 9.99973 
94.4954 -124.945 10.0238 119.435 -91.4718 16.9571 136.154 -131.039 20.4056 
111.109 -109.389 13.8481 93.6845 -101.799 28.134 130.407 -111.388 29.6601 
105.41 -120.78 29.2697 118.888 -139.137 26.5176 110.692 -92.9371 34.955 
-96.0451 -32.4213 16.0288 -112.585 -75.0242 9.99979 -122.292 -57.5067 9.99875 
-113.796 -39.4026 9.99872 -90.0826 -71.6482 9.99937 -102.865 -57.0709 14.9133 
-99.8892 -82.9615 23.2588 -132.759 -68.8766 22.6907 -132.939 -48.8493 24.5467 
-114.963 -41.8139 29.8179 -90.7756 -47.1417 29.0961 -85.1681 -49.1556 10.0002 
-140.193 -84.3003 33.0235 -115.11 -62.6177 29.7207 -139.093 -36.5551 9.99912 
-95.5546 -66.1141 33.4021 -32.1449 -68.4629 9.99973 -48.3458 -82.0809 10.1614 
-60.0196 -65.7736 10.0022 -76.1314 -63.1301 21.5643 -57.9687 -32.9227 24.9909 
-24.0248 -47.6846 9.99973 -17.5934 -56.4023 26.991 11.3929 -56.2596 9.99972 
-3.2366 -42.6149 10.006 4.66774 -76.8734 9.99965 24.5775 -81.0561 9.99969 
-8.57787 -61.8882 10.0024 -15.7577 -32.7893 25.6829 -15.3326 -79.1126 17.6074 
23.7468 -65.2902 22.9263 7.79192 -73.5527 31.7074 38.8644 -81.6315 26.0045 
44.208 -70.1891 9.99923 50.7857 -46.5321 9.99973 72.8999 -56.1982 9.99728 
31.0788 -51.5936 9.99091 71.0872 -41.5091 23.4436 41.7287 -57.0948 25.9977 
60.5621 -63.4973 23.9417 53.0558 -41.7677 32.0837 61.2096 -29.4297 9.99973 
84.9337 -84.0337 18.8121 85.9754 -40.7591 9.99979 90.792 -67.0616 9.99984 
132.831 -78.352 9.99901 118.233 -58.1226 9.99898 108.498 -74.8304 15.1017 
113.714 -38.6432 10.1309 138.298 -57.4759 9.99973 128.938 -41.9891 23.2393 
125.247 -72.6251 27.5933 -119.847 4.82485 9.99448 -104.229 -10.4448 9.99565 
-123.081 -21.5979 13.1129 -132.767 -3.78218 22.5917 -108.572 -11.9557 29.454 
-89.9282 -19.206 29.7427 -111.22 14.1815 25.4186 -85.2123 -16.7251 10.0001 
-129.967 21.0961 24.639 -105.876 25.7466 10.0012 -123.372 -24.3371 34.6973 
-45.9236 4.58796 9.99939 -29.9439 -7.43865 9.99947 -76.2325 13.6218 24.9906 
-28.7301 21.6169 27.1371 -43.0007 -1.46798 28.8403 -37.909 26.3167 9.99975 
-26.8584 -27.1989 10.0035 21.6926 -26.2408 32.205 -6.06856 -22.8161 10.0039 
-22.1481 13.6821 9.99947 -10.3759 -3.28593 9.99676 1.30369 1.40741 25.5338 
7.36309 12.4173 9.98849 20.6287 8.16409 25.3944 25.9438 19.8082 10.0217 
32.6259 -1.26698 10.0741 46.6267 13.0149 9.99979 81.5768 -15.1548 9.98846 
60.4204 -1.61462 9.99894 71.0742 21.616 10.0061 38.49 22.5237 25.7906 
62.1465 19.6673 29.2848 38.4949 4.39706 34.2389 139.907 -16.2121 10.0011 
86.8841 14.3416 21.2324 98.7624 -25.3692 9.99576 137.818 6.74892 9.99614 
103.789 19.0534 9.99963 96.3447 0.488364 9.99973 139.653 26.7782 9.99824 
122.224 -22.0197 17.3397 118.813 -3.71131 9.99575 105.122 -12.1371 23.5758 
-88.9265 67.8856 9.98147 -112.172 59.6875 9.99991 -127.516 40.6098 10.0104 
-136.642 78.7597 29.4631 -129.725 63.1099 18.956 -99.5951 46.3892 18.0612 
-116.508 39.1833 26.6477 -131.561 81.3345 9.99973 -81.3387 45.0843 9.99957 
-35.1826 69.4252 24.9916 -66.3425 63.0248 9.99963 -52.2402 40.6785 9.99973 
-63.9669 49.4616 24.5043 -72.7679 74.5977 25.1535 -83.132 47.6417 29.939 
20.9143 79.8984 9.99106 -4.34123 62.4396 9.99746 -23.3805 40.0628 9.99953 
8.66816 70.6207 22.7933 22.7744 55.2008 9.99961 2.38811 37.6244 33.7405 
-5.06527 82.4533 9.99852 26.4886 78.8677 29.1591 31.3276 59.1613 27.6389 
39.2149 34.7662 9.99588 62.9325 39.8866 10.0057 62.0096 63.4398 9.99183 
39.2412 71.896 9.99852 80.1515 50.0547 9.99495 77.9056 32.7912 27.1945 
52.348 36.9121 26.7084 45.2995 53.3261 14.2854 80.0067 72.2027 9.99768 
69.5764 50.9739 27.3421 50.7922 55.7084 33.3649 141.023 39.5186 25.366 
120.449 32.3656 9.99128 88.3426 31.7583 10.001 119.385 59.0853 9.99228 
105.199 73.1816 9.99971 104.265 44.1141 9.9988 138.143 52.1521 9.99974 
95.0943 58.8113 19.9855 118.321 45.6647 24.7739 92.1705 83.2334 21.4118 
115.901 69.5595 26.6623 132.415 73.3226 15.2257 97.5628 36.6735 27.3117 
-112.592 88.326 9.99973 -114.342 120.009 24.9946 -139.827 96.3078 20.4165 
-86.9876 104.139 10.0066 -76.8273 135.354 25.2908 -76.5787 87.0662 9.99532 
-57.415 92.8396 9.99979 -46.8322 109.806 10.0821 -79.8252 122.81 9.99837 
-50.8309 129.4 9.9994 -31.2879 104.21 25.014 -31.6874 136.743 9.99943 
-33.704 123.68 28.9765 -28.1951 117.052 9.99832 -18.5249 138.299 25.1439 
18.6397 132.251 9.98746 -11.1208 127.462 9.99978 -3.00118 109.19 9.99894 
8.76389 90.6645 21.887 16.6631 104.984 9.99949 3.6149 129.016 23.5135 
-14.9642 117.036 26.7331 25.6326 99.8518 27.4799 24.7518 131.628 29.0037 
-11.4174 96.3909 22.8566 8.43946 110.066 27.71 83.2581 139.445 9.99973 
34.3775 95.6284 9.9965 63.2628 134.872 9.99973 36.6666 116.552 9.99587 
56.9825 115.822 10.0007 41.1164 139.746 9.99737 80.3186 119.418 9.99375 
68.6343 122.582 25.9038 50.3745 131.688 25.7851 59.8301 89.514 33.2246 
37.9151 116.605 29.9513 125.808 91.4564 9.9958 84.9969 98.0081 9.99963 
116.989 109.401 9.99696 139.407 134.201 9.99522 110.654 135.173 9.99691 
105.29 93.181 10.0601 136.926 112.551 9.99787 99.8682 118.856 14.168 
124.752 124.914 19.9394 88.2638 123.246 29.8576 -135.416 -103.081 37.9715 
-103.752 -132.101 39.8003 -129.386 -125.367 41.6934 -112.725 -115.168 45.9826 
-90.176 -121.945 50.4014 -87.3068 -137.267 62.9323 -105.925 -122.273 63.4854 
-125.056 -127.579 61.0957 -132.199 -110.732 71.7378 -105.422 -139.934 72.8446 
-92.5925 -107.375 63.8801 -128.388 -98.2857 87.5748 -132.623 -122.135 88.1545 
-140.529 -114.082 53.8723 -76.5832 -130.308 38.2574 -71.0657 -92.2276 40.817 
-44.162 -100.228 61.7267 -74.0003 -121.25 62.142 -61.179 -87.2073 74.0136 
-55.3825 -120.813 53.5975 -43.222 -136.588 50.2156 -28.5086 -107.382 75.8967 
-59.4097 -110.112 70.0812 -54.231 -128.355 76.4371 -35.1565 -125.664 71.0791 
-79.4002 -96.8536 74.6056 -73.4723 -132.206 80.6206 -63.626 -138.879 51.0185 
-17.6874 -113.7 43.2156 15.4257 -102.274 42.706 12.9136 -126.156 54.7568 
3.46302 -119.045 70.878 -3.40596 -139.883 61.527 -11.4612 -93.4833 71.0991 
23.5811 -133.376 39.4652 8.44883 -94.5974 72.6272 -14.613 -127.516 75.2164 
23.4283 -94.4338 59.3624 8.12096 -137.265 77.6711 19.8504 -110.19 78.971 
26.0628 -128.715 74.3909 27.5134 -113.943 60.884 26.3269 -91.7004 83.0012 
3.33955 -85.9468 46.9263 72.9245 -127.796 40.2639 39.0847 -124.688 48.6217 
53.9155 -114.213 66.3254 40.0014 -105.726 42.3456 81.102 -113.269 71.3227 
42.1176 -137.267 63.8606 39.2562 -101.57 71.3581 60.3918 -136.477 71.92 
44.9191 -127.652 81.1622 79.3765 -132.498 76.741 103.578 -118.065 54.0564 
134.822 -134.363 40.1626 122.446 -112.322 47.9743 115.612 -130.761 44.3717 
128.303 -93.5113 44.5448 101.916 -137.932 57.0474 96.313 -86.0662 47.0444 
109.372 -98.9556 55.0547 89.7305 -102.119 57.093 121.283 -132.98 63.4258 
132.202 -98.5889 63.5721 97.2448 -125.093 71.6686 139.179 -127.785 70.774 
97.2255 -86.4558 67.0176 132.54 -108.49 82.1681 113.446 -101.2 82.3964 
118.471 -113.595 67.5294 122.759 -126.346 82.323 94.5842 -106.766 86.1809 
-116.624 -82.1811 58.8212 -127.433 -50.4391 43.7215 -85.851 -65.5358 57.9612 
-101.727 -34.5299 61.3976 -129.276 -52.7618 72.9731 -95.7949 -63.6501 79.9679 
-140.243 -34.8567 36.8285 -78.321 -76.9952 72.5158 -28.5185 -35.6607 43.6844 
-75.3439 -57.3504 43.0482 -66.0942 -43.6608 57.3139 -65.9136 -63.4663 60.082 
-50.3567 -40.3362 70.6536 -77.5924 -57.0214 75.006 -59.4518 -67.6169 78.5471 
-30.8779 -67.6766 57.6047 -68.924 -39.3207 78.4129 -30.8581 -36.8876 74.2335 
-45.205 -83.363 85.4164 -46.9547 -53.5345 85.2908 -43.0397 -28.4458 56.3314 
-0.867443 -56.8421 38.4621 -8.84154 -39.1768 43.3775 17.5947 -61.0058 67.9012 
-13.4341 -37.5721 62.803 4.4207 -31.9836 82.8253 4.70777 -28.8765 62.7731 
28.6173 -83.4567 43.4245 46.1351 -36.1085 55.2282 61.8354 -81.0722 54.1791 
65.8842 -47.1784 46.4381 78.6886 -48.8287 67.8333 58.8781 -47.903 65.1486 
71.0516 -28.5847 73.1701 67.7553 -44.9819 84.1332 47.1459 -47.6377 81.3336 
51.1016 -29.3404 74.2896 59.3347 -63.2263 84.1753 77.9595 -69.7635 87.3486 
91.9928 -83.9566 86.1558 140.634 -82.3123 83.6557 99.9872 -51.9418 40.199 
116.058 -80.2174 53.1101 135.155 -53.9815 37.9955 133.07 -71.8374 46.7612 
108.731 -70.1771 68.7701 131.317 -78.3566 65.8962 89.1376 -66.4524 70.4994 
130.187 -59.9249 73.572 120.103 -82.2469 81.9917 94.1033 -32.6682 77.1636 
-99.1452 -3.67263 45.0194 -135.268 -9.73316 41.5124 -111.805 20.4203 44.8213 
-119.552 2.60529 39.4377 -112.633 1.41838 58.8807 -110.677 21.1832 65.3956 
-94.2736 16.8586 54.8054 -132.413 4.2572 57.9557 -106.599 5.74699 77.4537 
-127.066 14.1408 74.5212 -91.7274 -1.01835 63.3956 -120.627 -8.29123 74.7717 
-86.9064 8.19527 86.832 -102.38 -10.8324 87.8102 -140.632 26.4233 82.7977 
-121.457 -23.289 88.0293 -84.2152 -10.2158 79.4793 -77.6729 -13.8087 46.6862 
-44.1718 17.8518 39.2854 -68.3338 0.829577 56.5907 -60.1547 19.2122 55.9413 
[...]
POINT_DATA 2000
FIELD FieldData 7
id 1 2000 int
41 77 196 230 301 308 107 205 282 
106 55 438 411 53 85 259 296 439 
157 275 424 371 40 273 71 185 265 
297 299 410 440 172 95 351 336 437 
49 33 300 376 408 397 216 380 59 
139 141 164 29 30 379 335 434 394 
283 247 47 36 142 338 414 456 32 
161 261 453 80 276 171 381 245 114 
425 112 231 246 215 10 143 211 115 
208 232 365 48 243 45 167 75 149 
113 174 222 318 108 354 285 317 359 
201 200 117 252 262 286 314 395 334 
274 239 342 66 147 255 443 309 413 
278 238 405 50 345 20 46 220 187 
225 11 212 69 37 358 390 416 347 
122 123 197 264 430 315 204 219 298 
256 135 346 54 97 178 213 271 404 
84 199 320 400 234 450 152 444 362 
8 279 321 250 384 378 195 240 399 
186 111 12 169 73 133 131 132 389 
419 449 229 369 375 102 72 374 99 
330 253 34 154 221 266 173 352 366 
58 329 206 138 6 284 179 328 184 
224 168 311 455 295 385 90 88 78 
62 302 339 79 83 218 426 127 128 
294 433 344 341 110 227 396 421 429 
251 242 18 423 96 160 209 288 367 
370 452 116 198 203 244 343 442 166 
304 361 401 448 1864 1820 1025 1285 1068 
272 223 9 82 130 350 119 409 290 
383 1007 1904 1249 1749 292 2 241 156 
64 76 210 263 1855 1873 364 1584 1941 
1011 418 327 293 22 144 165 382 323 
332 42 1715 1811 1945 137 51 125 445 
81 155 249 436 74 1428 1281 1934 720 
1920 856 700 1308 1665 1450 5 331 388 
26 307 552 183 319 422 65 163 191 
236 1719 1793 23 1676 1730 903 642 415 
417 281 28 226 1366 402 39 392 14 
44 189 306 104 931 1603 118 89 1953 
997 1922 25 86 313 398 180 188 1317 
1870 1643 581 43 412 129 322 761 1508 
303 326 764 1565 176 1155 1520 1143 1112 
739 1819 151 162 68 158 214 257 121 
368 175 427 353 1211 864 874 1540 4 
217 357 202 94 190 349 120 1159 570 
746 1001 268 260 7 100 333 432 457 
70 63 1767 622 1389 153 386 291 15 
277 19 441 1015 1407 839 1908 3 254 
57 228 393 145 177 420 1046 1600 1399 
909 340 1956 377 93 1 270 387 109 
170 181 140 312 91 1163 324 1404 712 
372 61 67 267 60 316 87 1652 590 
583 207 923 709 280 373 235 16 194 
148 789 1080 1406 431 1082 1951 1417 182 
310 103 233 337 35 258 356 24 159 
435 1430 1367 1124 1975 1194 852 105 360 
403 237 287 363 92 348 21 1398 1517 
1852 1685 1191 27 428 391 56 98 1807 
1893 1087 1716 1200 355 1283 407 289 446 
101 192 13 124 1869 1400 1589 701 674 
193 269 146 136 150 1883 1995 771 817 
1501 1706 1836 949 1815 1773 1854 52 305 
325 406 38 126 17 31 447 134 248 
967 1140 1618 1447 741 1424 968 480 1694 
1542 1293 1726 784 954 1929 1771 814 1334 
1878 1938 1195 484 1382 1176 1178 1017 1220 
541 1173 1999 1170 1331 1982 1021 948 1258 
1601 1452 1896 1845 1838 668 907 520 952 
1262 1252 1865 1539 1304 1712 1337 553 1687 
651 548 1678 951 1634 1050 1551 1537 654 
1128 1988 1409 462 1105 1189 1728 1757 1051 
1474 838 1842 1561 1649 599 661 911 914 
1147 1149 1459 866 1829 479 753 974 486 
1527 1840 752 573 1427 845 540 1206 1275 
1683 1488 1656 1543 718 1117 1342 1781 489 
878 995 1045 1171 1578 1013 1994 1077 1866 
833 889 626 1586 875 1130 621 906 1284 
1213 757 793 1894 1421 533 1725 985 1566 
640 1861 602 652 1365 644 1225 1234 1415 
779 862 1373 1874 666 1167 960 723 912 
1042 1673 806 495 1729 1480 1444 521 454 
574 1799 854 658 1442 842 861 1419 1034 
1177 1628 1099 1736 1738 1129 1465 1324 915 
1756 1677 532 1460 754 1063 1190 1496 1947 
1850 628 1453 1031 1696 1023 1066 1718 1563 
1881 698 799 1144 722 1554 1813 451 466 
1340 1831 1271 1745 1401 1391 1572 467 471 
970 594 1385 1912 1675 888 1119 1369 1602 
464 1579 1093 1341 1102 474 580 1468 1499 
1270 1769 506 1533 643 1412 673 1595 1475 
1928 1890 1959 608 1570 1362 470 597 1679 
1172 1074 919 798 1529 1534 1720 1743 965 
975 1803 1884 841 656 1416 1481 892 1040 
1791 1108 1653 566 853 564 1490 492 1647 
1620 1261 1052 1577 1458 1682 1606 660 729 
1761 962 1960 624 1470 1241 1608 664 518 
1131 1903 1326 966 1638 1858 1441 1477 1636 
759 1784 513 1825 1355 1822 803 805 893 
925 728 1438 936 964 1433 848 1931 1891 
1859 1830 1610 1267 1889 1071 469 1734 1887 
810 531 1268 1591 1156 1552 537 1201 1979 
1153 1525 885 1879 562 1892 1054 1684 588 
1919 991 488 1216 749 981 1058 1037 473 
671 630 946 876 1291 1965 1461 508 1229 
1231 1548 1098 461 475 832 1545 1844 1125 
1104 2000 1387 1360 887 1827 522 1667 1263 
696 990 1702 1359 1804 1911 1422 775 459 
565 687 1169 1662 944 1633 801 1483 1055 
820 675 1209 1962 781 1614 1089 1752 835 
670 1462 1576 1980 1101 1780 1060 1135 1203 
1120 969 1978 1582 1361 1487 1094 487 1223 
758 1121 751 1205 1059 1473 1823 938 850 
987 1328 972 1661 1352 1663 1974 589 616 
496 1916 1254 1932 986 1860 539 807 886 
1936 1118 1084 1930 618 1100 686 1166 1711 
730 1026 530 1018 1332 1772 1004 1835 1616 
1935 1622 601 493 1208 1343 1564 1796 1287 
740 1966 755 515 1495 865 1309 896 1532 
1937 1300 1550 1368 1187 788 498 809 894 
935 1740 916 1788 1632 1573 725 770 1507 
1035 1491 1558 528 1036 1076 1467 1397 632 
1707 830 1834 745 961 1414 901 1197 1333 
1569 1282 1494 1846 1062 575 1064 1269 1504 
994 1070 688 1150 607 1126 1318 569 1524 
922 682 1770 645 1049 1092 1701 1863 924 
1312 1948 1917 538 953 1214 1114 895 1613 
732 613 1575 1783 837 713 1056 511 1925 
904 623 1264 1768 705 934 1073 1910 523 
1048 1371 503 1918 600 1138 1466 999 1184 
1255 1849 733 1303 797 1109 1789 1963 802 
1192 1247 1276 1957 1228 1336 738 1808 1867 
1972 525 557 1250 627 641 535 790 1837 
1722 1204 1764 1732 1856 472 1708 1219 1944 
1809 1798 1041 1952 561 1078 1196 1741 1134 
1043 1626 491 1418 942 1313 1992 1549 1175 
1503 604 710 1629 825 1420 800 1455 1897 
1260 1666 567 1356 1818 1226 1370 1810 1505 
1029 478 1354 647 1375 1053 1024 1964 1704 
1942 1432 1165 1760 697 551 1440 547 1802 
831 1376 502 1344 992 1906 1596 1983 1961 
1069 1735 1939 1670 984 1383 1379 1514 545 
920 988 1358 1047 1500 1489 1949 646 1814 
1724 818 959 1245 1664 1122 794 708 1295 
1242 1557 1160 1571 499 667 769 595 1650 
1991 1181 1754 529 1585 1607 1009 1237 736 
685 787 1839 1790 1251 1350 1434 1088 1235 
1547 1828 1853 620 596 1993 483 1090 822 
519 1139 1222 1660 509 1446 1672 1598 1246 
763 1067 1030 1377 1695 689 1973 1439 1289 
526 1674 692 1469 614 1061 1604 1006 679 
681 649 1107 1668 867 742 868 796 1210 
869 1327 1833 476 611 871 774 917 1546 
1297 1623 571 650 1901 1454 902 1805 1699 
1877 510 1457 1705 603 1142 1739 1445 1310 
780 1568 918 870 1116 1512 743 1179 1513 
1152 703 955 693 1277 482 765 1778 945 
971 1232 1876 1113 1133 1516 1273 1968 1832 
908 1425 1493 993 1857 546 1363 1065 1958 
1307 1426 1146 777 1923 695 1151 1174 1559 
1940 1348 750 819 1511 1305 1841 558 1224 
1396 1746 1744 1977 559 1775 1106 760 1556 
631 1594 1976 1502 1530 1882 1755 1010 1593 
1581 1515 1617 1615 1619 1039 1742 910 881 
1969 929 1448 612 744 1580 1000 827 1083 
1555 534 795 657 1353 1821 1429 1812 579 
1646 1826 1921 851 1123 549 572 1136 1541 
655 563 578 762 1240 1311 1700 1574 1338 
1801 690 1185 1875 1753 863 767 1885 1762 
699 998 1641 1967 1028 1899 517 973 1137 
463 1079 731 1230 860 1759 1280 648 1290 
1905 1091 950 1198 847 858 737 941 1782 
1322 1132 1288 615 554 1737 1590 1871 481 
958 785 927 1072 592 928 1095 1408 1611 
899 1274 1996 1012 873 1472 577 505 1306 
678 1168 1509 524 1597 1182 1686 1721 1014 
1162 1022 1492 1637 1239 653 1723 1955 637 
812 1862 634 704 976 560 857 1278 1795 
1800 1588 977 926 1329 1227 1787 1321 1357 
591 576 1645 1521 1592 1847 1851 1221 542 
1141 1212 719 811 747 1005 1302 1411 584 
663 1256 1161 662 846 1215 1691 804 937 
1158 1671 707 1238 715 514 1057 1325 1587 
772 843 1651 1482 586 516 815 855 1032 
1680 1697 1777 890 773 1635 1164 1299 1476 
1621 1690 963 1279 1436 672 568 1817 536 
1364 485 1763 1085 605 1347 1451 1301 905 
1927 500 1538 1792 507 1898 1259 1394 1316 
680 717 1423 821 1345 816 766 1747 556 
716 879 1727 1111 468 1431 826 1392 1915 
1388 900 504 1449 1751 756 947 1924 1506 
1372 1703 829 1522 1642 1907 1127 1086 587 
980 1207 665 1298 1933 1097 1990 1880 891 
1776 834 512 1405 1689 1693 1395 1027 1486 
1640 1320 836 734 748 1188 544 669 477 
791 677 939 1314 1485 1038 1987 638 619 
1019 1218 1766 1386 711 978 1599 1758 1926 
776 1888 1989 982 1413 610 1471 1033 694 
824 1478 1286 1510 943 1748 1456 617 1848 
458 1985 1096 635 1688 1779 1148 956 1390 
1339 1681 1943 606 783 1997 996 1868 1914 
490 1464 1954 683 957 1463 1627 593 1713 
598 1519 1403 1567 1257 1655 921 1016 555 
1669 1909 1381 813 1717 1639 1624 1075 1692 
625 1330 1193 1265 1292 1733 1157 706 1843 
1410 724 1374 1886 989 527 1971 1498 1609 
1714 1236 1008 1393 497 897 1272 1950 1315 
1081 1816 1402 636 1544 543 1296 1946 1984 
1562 714 659 1335 1115 840 1786 1443 1583 
501 1658 930 1648 1484 1346 1654 1233 1044 
1380 849 1349 884 859 585 1553 1186 1630 
933 1531 1794 1266 940 1526 1709 1103 882 
702 1970 877 778 609 1998 1605 1180 1145 
808 582 844 1731 1497 1003 786 1020 1528 
983 1323 1981 1110 880 1319 1560 1002 1243 
1657 1698 1437 1644 465 932 1384 1824 1785 
913 721 898 494 691 1631 792 1248 1435 
1294 735 1872 1612 1183 1518 1479 1895 1253 
1154 633 1797 823 883 1625 1659 1913 1806 
1535 1244 782 1202 1217 1536 1902 1765 872 
979 684 1750 629 727 1199 460 639 550 
1986 768 1351 1900 1378 1710 676 1774 726 
828 1523 
type 1 2000 int
1 1 1 1 1 1 1 1 1 
1 1 1 1 1 1 1 1 1 
1 1 1 1 1 1 1 1 1 
1 1 1 1 1 1 1 1 1 
1 1 1 1 1 1 1 1 1 
1 1 1 1 1 1 1 1 1 
1 1 1 1 1 1 1 1 1 
1 1 1 1 1 1 1 1 1 
1 1 1 1 1 1 1 1 1 
1 1 1 1 1 1 1 1 1 
1 1 1 1 1 1 1 1 1 
1 1 1 1 1 1 1 1 1 
1 1 1 1 1 1 1 1 1 
1 1 1 1 1 1 1 1 1 
1 1 1 1 1 1 1 1 1 
1 1 1 1 1 1 1 1 1 
1 1 1 1 1 1 1 1 1 
1 1 1 1 1 1 1 1 1 
1 1 1 1 1 1 1 1 1 
1 1 1 1 1 1 1 1 1 
1 1 1 1 1 1 1 1 1 
1 1 1 1 1 1 1 1 1 
1 1 1 1 1 1 1 1 1 
1 1 1 1 1 1 1 1 1 
1 1 1 1 1 1 1 1 1 
1 1 1 1 1 1 1 1 1 
1 1 1 1 1 1 1 1 1 
1 1 1 1 1 1 1 1 1 
1 1 1 1 1 1 1 1 1 
1 1 1 1 1 1 1 1 1 
1 1 1 1 1 1 1 1 1 
1 1 1 1 1 1 1 1 1 
1 1 1 1 1 1 1 1 1 
1 1 1 1 1 1 1 1 1 
1 1 1 1 1 1 1 1 1 
1 1 1 1 1 1 1 1 1 
1 1 1 1 1 1 1 1 1 
1 1 1 1 1 1 1 1 1 
1 1 1 1 1 1 1 1 1 
1 1 1 1 1 1 1 1 1 
1 1 1 1 1 1 1 1 1 
1 1 1 1 1 1 1 1 1 
1 1 1 1 1 1 1 1 1 
1 1 1 1 1 1 1 1 1 
1 1 1 1 1 1 1 1 1 
1 1 1 1 1 1 1 1 1 
1 1 1 1 1 1 1 1 1 
1 1 1 1 1 1 1 1 1 
1 1 1 1 1 1 1 1 1 
1 1 1 1 1 1 1 1 1 
1 1 1 1 1 1 1 1 1 
1 1 1 1 1 1 1 1 1 
1 1 1 1 1 1 1 1 1 
1 1 1 1 1 1 1 1 1 
1 1 1 1 1 1 1 1 1 
1 1 1 1 1 1 1 1 1 
1 1 1 1 1 1 1 1 1 
1 1 1 1 1 1 1 1 1 
1 1 1 1 1 1 1 1 1 
1 1 1 1 1 1 1 1 1 
1 1 1 1 1 1 1 1 1 
1 1 1 1 1 1 1 1 1 
1 1 1 1 1 1 1 1 1 
1 1 1 1 1 1 1 1 1 
1 1 1 1 1 1 1 1 1 
1 1 1 1 1 1 1 1 1 
1 1 1 1 1 1 1 1 1 
1 1 1 1 1 1 1 1 1 
1 1 1 1 1 1 1 1 1 
1 1 1 1 1 1 1 1 1 
1 1 1 1 1 1 1 1 1 
1 1 1 1 1 1 1 1 1 
1 1 1 1 1 1 1 1 1 
1 1 1 1 1 1 1 1 1 
1 1 1 1 1 1 1 1 1 
1 1 1 1 1 1 1 1 1 
1 1 1 1 1 1 1 1 1 
1 1 1 1 1 1 1 1 1 
1 1 1 1 1 1 1 1 1 
1 1 1 1 1 1 1 1 1 
1 1 1 1 1 1 1 1 1 
1 1 1 1 1 1 1 1 1 
1 1 1 1 1 1 1 1 1 
1 1 1 1 1 1 1 1 1 
1 1 1 1 1 1 1 1 1 
1 1 1 1 1 1 1 1 1 
1 1 1 1 1 1 1 1 1 
1 1 1 1 1 1 1 1 1 
1 1 1 1 1 1 1 1 1 
1 1 1 1 1 1 1 1 1 
1 1 1 1 1 1 1 1 1 
1 1 1 1 1 1 1 1 1 
1 1 1 1 1 1 1 1 1 
1 1 1 1 1 1 1 1 1 
1 1 1 1 1 1 1 1 1 
1 1 1 1 1 1 1 1 1 
1 1 1 1 1 1 1 1 1 
1 1 1 1 1 1 1 1 1 
1 1 1 1 1 1 1 1 1 
1 1 1 1 1 1 1 1 1 
1 1 1 1 1 1 1 1 1 
1 1 1 1 1 1 1 1 1 
1 1 1 1 1 1 1 1 1 
1 1 1 1 1 1 1 1 1 
1 1 1 1 1 1 1 1 1 
1 1 1 1 1 1 1 1 1 
1 1 1 1 1 1 1 1 1 
1 1 1 1 1 1 1 1 1 
1 1 1 1 1 1 1 1 1 
1 1 1 1 1 1 1 1 1 
1 1 1 1 1 1 1 1 1 
1 1 1 1 1 1 1 1 1 
1 1 1 1 1 1 1 1 1 
1 1 1 1 1 1 1 1 1 
1 1 1 1 1 1 1 1 1 
1 1 1 1 1 1 1 1 1 
1 1 1 1 1 1 1 1 1 
1 1 1 1 1 1 1 1 1 
1 1 1 1 1 1 1 1 1 
1 1 1 1 1 1 1 1 1 
1 1 1 1 1 1 1 1 1 
1 1 1 1 1 1 1 1 1 
1 1 1 1 1 1 1 1 1 
1 1 1 1 1 1 1 1 1 
1 1 1 1 1 1 1 1 1 
1 1 1 1 1 1 1 1 1 
1 1 1 1 1 1 1 1 1 
1 1 1 1 1 1 1 1 1 
1 1 1 1 1 1 1 1 1 
1 1 1 1 1 1 1 1 1 
1 1 1 1 1 1 1 1 1 
1 1 1 1 1 1 1 1 1 
1 1 1 1 1 1 1 1 1 
1 1 1 1 1 1 1 1 1 
1 1 1 1 1 1 1 1 1 
1 1 1 1 1 1 1 1 1 
1 1 1 1 1 1 1 1 1 
1 1 1 1 1 1 1 1 1 
1 1 1 1 1 1 1 1 1 
1 1 1 1 1 1 1 1 1 
1 1 1 1 1 1 1 1 1 
1 1 1 1 1 1 1 1 1 
1 1 1 1 1 1 1 1 1 
1 1 1 1 1 1 1 1 1 
1 1 1 1 1 1 1 1 1 
1 1 1 1 1 1 1 1 1 
1 1 1 1 1 1 1 1 1 
1 1 1 1 1 1 1 1 1 
1 1 1 1 1 1 1 1 1 
1 1 1 1 1 1 1 1 1 
1 1 1 1 1 1 1 1 1 
1 1 1 1 1 1 1 1 1 
1 1 1 1 1 1 1 1 1 
1 1 1 1 1 1 1 1 1 
1 1 1 1 1 1 1 1 1 
1 1 1 1 1 1 1 1 1 
1 1 1 1 1 1 1 1 1 
1 1 1 1 1 1 1 1 1 
1 1 1 1 1 1 1 1 1 
1 1 1 1 1 1 1 1 1 
1 1 1 1 1 1 1 1 1 
1 1 1 1 1 1 1 1 1 
1 1 1 1 1 1 1 1 1 
1 1 1 1 1 1 1 1 1 
1 1 1 1 1 1 1 1 1 
1 1 1 1 1 1 1 1 1 
1 1 1 1 1 1 1 1 1 
1 1 1 1 1 1 1 1 1 
1 1 1 1 1 1 1 1 1 
1 1 1 1 1 1 1 1 1 
1 1 1 1 1 1 1 1 1 
1 1 1 1 1 1 1 1 1 
1 1 1 1 1 1 1 1 1 
1 1 1 1 1 1 1 1 1 
1 1 1 1 1 1 1 1 1 
1 1 1 1 1 1 1 1 1 
1 1 1 1 1 1 1 1 1 
1 1 1 1 1 1 1 1 1 
1 1 1 1 1 1 1 1 1 
1 1 1 1 1 1 1 1 1 
1 1 1 1 1 1 1 1 1 
1 1 1 1 1 1 1 1 1 
1 1 1 1 1 1 1 1 1 
1 1 1 1 1 1 1 1 1 
1 1 1 1 1 1 1 1 1 
1 1 1 1 1 1 1 1 1 
1 1 1 1 1 1 1 1 1 
1 1 1 1 1 1 1 1 1 
1 1 1 1 1 1 1 1 1 
1 1 1 1 1 1 1 1 1 
1 1 1 1 1 1 1 1 1 
1 1 1 1 1 1 1 1 1 
1 1 1 1 1 1 1 1 1 
1 1 1 1 1 1 1 1 1 
1 1 1 1 1 1 1 1 1 
1 1 1 1 1 1 1 1 1 
1 1 1 1 1 1 1 1 1 
1 1 1 1 1 1 1 1 1 
1 1 1 1 1 1 1 1 1 
1 1 1 1 1 1 1 1 1 
1 1 1 1 1 1 1 1 1 
1 1 1 1 1 1 1 1 1 
1 1 1 1 1 1 1 1 1 
1 1 1 1 1 1 1 1 1 
1 1 1 1 1 1 1 1 1 
1 1 1 1 1 1 1 1 1 
1 1 1 1 1 1 1 1 1 
1 1 1 1 1 1 1 1 1 
1 1 1 1 1 1 1 1 1 
1 1 1 1 1 1 1 1 1 
1 1 1 1 1 1 1 1 1 
1 1 1 1 1 1 1 1 1 
1 1 1 1 1 1 1 1 1 
1 1 1 1 1 1 1 1 1 
1 1 1 1 1 1 1 1 1 
1 1 1 1 1 1 1 1 1 
1 1 1 1 1 1 1 1 1 
1 1 1 1 1 1 1 1 1 
1 1 1 1 1 1 1 1 1 
1 1 1 1 1 1 1 1 1 
1 1 1 1 1 1 1 1 1 
1 1 1 1 1 1 1 1 1 
1 1 
i 3 2000 int
0 0 0 0 0 0 0 0 0 
0 0 0 0 0 0 0 0 0 
0 0 0 0 0 0 0 0 0 
0 0 0 0 0 0 0 0 0 
0 0 0 0 0 0 0 0 0 
0 0 0 0 0 0 0 0 0 
0 0 0 0 0 0 0 0 0 
0 0 0 0 1 0 0 0 0 
0 0 0 0 0 0 0 0 0 
0 0 0 0 0 0 0 0 0 
0 0 0 0 0 0 0 0 0 
0 0 0 0 0 0 0 0 0 
0 0 0 0 0 0 0 0 0 
0 0 0 0 0 0 0 0 0 
0 0 0 -1 0 0 0 0 0 
0 0 0 0 0 0 0 0 0 
0 0 0 0 0 0 0 0 0 
0 0 0 0 0 0 0 0 0 
0 0 0 0 1 0 0 0 0 
0 0 0 0 0 0 0 0 0 
0 0 0 0 0 0 0 0 0 
0 0 0 0 0 0 0 0 0 
0 0 0 0 0 0 0 0 0 
0 0 0 0 0 0 0 0 0 
0 0 0 0 0 0 0 0 0 
0 0 0 0 0 0 0 0 0 
0 0 0 0 0 0 0 0 0 
0 0 0 0 0 0 0 0 0 
0 0 0 0 0 0 0 0 0 
0 0 0 0 0 0 0 0 0 
0 0 0 0 0 0 0 0 0 
0 0 0 0 0 0 0 0 0 
0 0 0 0 0 0 0 0 0 
0 0 0 0 0 0 0 0 0 
0 0 0 0 0 0 0 0 0 
0 0 0 0 0 0 0 0 0 
0 0 0 0 0 0 0 0 0 
0 0 0 0 0 0 0 0 0 
0 0 0 0 0 0 0 0 0 
0 0 0 0 0 0 0 0 0 
0 0 0 0 0 0 0 0 0 
0 0 0 0 0 0 0 0 0 
0 0 0 0 0 0 0 0 0 
0 0 0 0 0 0 0 0 0 
0 0 0 0 0 0 0 0 0 
0 0 0 0 0 0 0 0 0 
0 0 0 0 0 0 0 0 0 
0 0 0 0 0 0 0 0 0 
0 0 0 0 0 0 -1 0 0 
0 0 0 0 0 0 0 0 0 
0 0 0 0 0 0 0 0 0 
0 0 0 0 0 0 0 0 0 
0 0 0 0 0 0 0 0 0 
0 0 0 0 0 0 0 0 0 
0 0 0 0 0 0 0 0 0 
0 0 0 0 0 0 0 0 0 
0 0 0 0 0 0 0 0 0 
0 0 0 0 0 0 0 0 0 
0 0 0 0 0 0 0 0 0 
0 0 0 0 0 0 0 0 0 
0 0 0 0 0 0 0 0 0 
0 0 0 0 0 0 0 0 0 
0 0 0 0 0 0 -1 0 0 
0 0 0 0 0 0 0 0 0 
0 0 0 0 0 0 0 0 0 
0 0 0 0 0 0 0 0 0 
0 0 0 0 0 0 0 0 0 
0 0 0 0 0 0 1 0 0 
0 0 0 0 -1 0 0 0 0 
0 0 0 0 0 0 0 0 0 
0 0 0 0 0 0 0 0 0 
0 0 0 0 0 0 0 0 0 
0 0 0 0 0 0 0 0 0 
0 0 0 0 0 0 0 0 0 
0 0 0 0 0 0 0 0 0 
0 0 0 0 0 0 0 0 0 
0 0 0 0 0 0 0 0 0 
0 0 0 0 0 0 0 0 0 
0 0 0 0 0 0 0 0 0 
0 0 0 0 0 0 0 0 0 
0 0 0 0 0 0 0 0 0 
0 0 0 0 0 0 0 0 0 
0 0 0 0 0 0 0 0 0 
0 0 0 0 0 0 0 0 0 
0 0 0 0 0 0 0 0 0 
0 0 0 0 0 0 0 0 0 
0 0 0 0 0 0 0 0 0 
1 0 0 0 0 0 0 0 0 
0 0 0 0 0 0 0 0 0 
0 0 0 0 0 0 0 0 0 
0 0 0 0 0 0 0 0 0 
0 0 0 0 0 0 0 1 0 
0 0 0 0 0 0 0 0 0 
0 0 0 0 0 0 0 0 0 
0 0 0 0 0 0 0 0 0 
0 0 0 0 0 0 0 0 0 
0 0 0 0 0 0 0 0 0 
0 0 0 0 0 0 0 0 0 
0 0 0 0 0 0 0 0 0 
0 0 0 0 0 0 0 0 0 
0 0 0 0 0 0 0 0 0 
0 0 0 0 0 0 0 0 0 
0 0 0 0 0 0 0 0 0 
0 0 0 0 0 0 0 0 0 
0 0 0 0 0 0 0 0 0 
0 0 0 -1 0 0 0 0 0 
0 0 0 0 0 0 0 0 0 
0 0 0 0 0 0 0 0 0 
0 0 0 0 0 0 0 0 0 
1 0 0 0 0 0 0 0 0 
0 0 0 0 0 0 0 0 0 
0 0 0 0 0 0 0 0 0 
0 0 0 0 0 0 0 0 0 
0 0 0 0 0 0 0 0 0 
0 0 0 0 0 0 0 0 0 
0 0 0 0 0 0 0 0 0 
0 0 0 0 0 0 0 0 0 
0 0 0 0 0 0 0 0 0 
0 0 0 0 0 0 0 0 0 
0 0 0 0 0 0 0 0 0 
0 0 0 -1 0 0 0 0 0 
0 0 0 0 0 0 0 0 0 
0 0 0 0 0 0 0 0 0 
0 0 0 0 0 0 0 0 0 
0 0 0 1 0 0 0 0 0 
0 0 0 0 0 0 0 0 0 
0 0 0 1 0 0 0 0 0 
0 0 0 0 0 0 0 0 0 
0 0 0 0 0 0 1 0 0 
0 0 0 0 0 0 0 0 0 
0 0 0 0 0 0 0 0 0 
0 0 0 0 0 0 0 0 0 
0 0 0 0 0 0 0 0 0 
0 0 0 0 0 0 0 0 0 
0 0 0 0 0 0 0 0 0 
0 0 0 0 0 0 0 0 0 
0 0 0 0 0 0 0 0 0 
0 0 0 0 0 0 0 0 0 
0 0 0 0 0 0 0 0 0 
0 0 0 0 0 0 0 0 0 
0 0 0 0 0 0 0 0 0 
0 0 0 0 0 0 0 0 0 
0 0 0 0 0 0 0 0 0 
0 0 0 0 0 0 0 0 0 
0 0 0 0 0 0 0 0 0 
0 0 0 0 0 0 0 0 0 
0 0 0 0 0 0 0 0 0 
0 0 0 0 0 0 0 0 0 
0 0 0 0 0 0 0 0 0 
0 0 0 0 0 0 0 0 0 
0 0 0 1 0 0 0 0 0 
0 0 0 0 0 0 0 0 0 
0 0 0 0 0 0 0 0 0 
0 0 0 0 0 0 0 0 0 
0 0 0 0 0 0 0 0 0 
0 0 0 0 0 0 0 0 0 
0 0 0 0 0 0 0 0 0 
0 0 0 0 0 0 0 0 0 
0 0 0 0 0 0 0 0 0 
0 0 0 0 0 0 0 0 0 
0 0 0 0 0 0 0 0 0 
0 0 0 0 0 0 0 0 0 
0 0 0 0 0 0 0 0 0 
0 0 0 0 0 0 0 0 0 
0 0 0 0 0 0 0 0 0 
0 0 0 0 0 0 0 0 0 
0 0 0 0 0 0 0 0 0 
0 0 0 0 0 0 0 0 0 
0 0 0 0 0 0 0 0 0 
0 0 0 1 0 0 0 0 0 
0 -1 0 0 0 0 0 0 0 
0 0 0 0 0 0 0 0 0 
0 0 0 0 0 0 0 0 0 
0 0 0 0 0 0 0 0 0 
0 0 0 0 0 0 0 -1 0 
0 0 0 0 0 0 0 0 0 
0 0 0 0 0 0 0 0 0 
0 0 0 0 0 0 0 -1 0 
0 0 0 0 -1 0 0 0 0 
0 0 0 0 -1 0 0 0 0 
0 0 0 0 0 0 0 0 0 
0 0 0 0 0 0 0 0 0 
0 0 0 0 0 0 0 0 0 
0 0 0 0 -1 0 0 0 0 
0 0 0 0 0 0 0 0 0 
0 0 0 0 0 0 0 0 0 
0 0 0 0 0 0 0 0 0 
0 0 0 0 0 0 0 0 0 
0 -1 0 0 0 0 0 0 0 
0 0 0 -1 0 0 0 -1 0 
-1 0 0 0 0 0 0 0 0 
0 0 0 0 0 0 0 0 0 
0 0 0 0 0 0 0 0 0 
0 0 0 0 0 0 0 0 0 
0 0 0 0 0 0 0 0 0 
0 0 0 0 0 0 0 0 0 
0 0 0 0 0 0 0 1 0 
0 0 0 0 0 0 0 1 0 
0 0 0 0 0 0 0 0 0 
0 0 0 0 0 0 0 0 0 
0 0 0 0 0 0 0 0 0 
0 0 0 0 0 0 0 0 0 
0 0 0 0 0 0 0 0 0 
0 0 0 0 0 0 0 0 0 
0 0 0 0 1 0 0 0 0 
0 0 0 0 0 0 0 0 0 
0 0 0 0 0 0 0 0 0 
0 0 0 0 0 0 0 1 0 
0 0 0 0 1 0 0 0 0 
0 0 0 0 0 0 0 0 0 
0 0 0 0 0 0 0 0 0 
0 0 0 0 0 0 0 0 0 
0 0 0 0 0 0 0 0 0 
0 0 0 0 0 0 0 0 0 
0 0 0 0 0 0 0 0 0 
0 0 0 1 0 0 0 0 0 
0 0 0 0 0 0 0 0 0 
0 0 0 0 0 0 0 0 0 
0 0 0 0 0 0 0 0 0 
0 0 0 0 0 0 0 0 0 
0 0 0 0 0 0 0 0 0 
0 0 0 0 0 0 0 0 0 
0 0 0 0 0 0 0 0 0 
0 0 0 0 0 0 0 0 0 
0 0 0 0 0 0 0 0 0 
0 0 0 0 0 0 0 0 0 
0 0 0 0 0 0 0 0 0 
0 0 0 -1 0 0 0 0 0 
0 0 0 0 0 0 0 0 0 
0 0 0 0 0 0 0 0 0 
0 0 0 0 0 0 0 0 0 
0 0 0 0 0 0 0 0 0 
0 0 0 0 0 0 0 0 0 
0 0 0 0 0 0 0 0 0 
0 0 0 0 0 0 0 0 0 
0 0 0 0 0 0 0 0 0 
0 0 0 0 0 0 0 0 0 
0 0 0 0 0 0 0 0 0 
0 0 0 0 0 0 0 0 0 
0 0 0 0 0 0 0 0 0 
0 0 0 0 0 0 0 0 0 
0 0 0 0 0 0 0 0 0 
0 0 0 0 0 0 0 0 0 
0 0 0 0 0 0 0 0 0 
0 0 0 0 0 0 0 0 0 
0 0 0 0 0 0 0 0 0 
0 0 0 -1 0 0 0 0 0 
-1 0 0 0 0 0 0 0 0 
0 0 0 0 0 0 0 0 0 
0 0 0 0 0 0 0 0 0 
0 0 0 0 0 0 0 0 0 
0 0 0 0 0 0 0 0 0 
0 0 0 0 0 0 0 0 0 
0 0 0 0 0 0 0 0 0 
0 0 0 0 0 0 1 0 0 
0 0 0 0 0 0 1 0 0 
0 0 0 0 0 0 0 0 0 
0 0 0 0 0 0 0 0 0 
0 0 0 0 0 0 0 0 0 
0 0 0 0 0 0 0 0 0 
0 0 0 0 0 0 0 0 0 
0 0 0 0 0 0 0 0 0 
0 0 0 0 0 0 0 0 0 
0 0 0 0 0 0 0 0 0 
0 0 0 0 0 0 0 0 0 
0 0 0 0 0 0 0 0 0 
0 0 0 0 0 0 0 0 0 
0 0 0 0 0 0 0 0 0 
0 0 0 0 0 0 0 0 0 
0 0 0 0 0 0 0 0 0 
0 0 0 0 0 0 0 0 0 
0 0 0 0 0 0 0 0 0 
1 0 0 0 0 0 0 0 0 
0 0 0 0 -1 0 0 0 0 
0 0 0 0 0 0 0 0 0 
0 0 0 0 0 0 0 0 0 
0 0 0 0 0 0 0 0 0 
0 0 0 0 0 0 0 -1 0 
0 0 0 0 0 0 0 0 0 
0 0 0 0 0 0 0 0 0 
0 0 0 0 0 0 0 0 0 
0 0 0 0 0 0 0 0 0 
0 0 0 0 0 0 0 0 0 
0 0 0 0 0 0 0 0 0 
0 0 0 0 0 0 0 0 0 
0 0 0 0 0 0 0 0 0 
0 0 0 0 0 0 0 0 0 
0 0 0 0 0 0 0 0 0 
0 0 0 0 0 0 0 0 0 
0 0 0 0 0 0 0 0 0 
0 0 0 0 0 0 0 0 0 
0 0 0 0 0 0 0 0 0 
0 0 0 0 0 0 0 0 0 
0 0 0 0 0 0 0 0 0 
0 0 0 0 0 0 0 0 0 
0 0 0 0 0 0 0 0 0 
0 0 0 0 0 0 0 0 0 
0 0 0 0 0 0 0 0 0 
0 0 0 0 0 0 0 0 0 
0 0 0 0 0 0 0 0 0 
0 1 0 0 0 0 0 0 0 
0 0 0 0 0 0 0 0 0 
0 0 0 0 0 0 0 1 0 
0 0 0 0 0 0 0 0 0 
0 0 0 0 0 0 0 0 0 
0 0 0 0 0 0 0 0 0 
0 0 0 0 0 0 0 1 0 
0 0 0 0 0 0 0 0 0 
0 0 0 0 0 0 0 0 0 
0 0 0 0 0 0 0 0 0 
0 0 0 0 0 0 0 0 0 
1 0 0 0 0 0 0 0 0 
0 0 0 0 0 0 0 0 0 
0 0 0 0 0 0 0 0 0 
0 0 0 0 0 0 0 0 0 
0 0 0 0 0 0 0 0 0 
0 0 0 0 0 0 0 0 0 
0 0 0 0 0 0 0 0 0 
0 0 0 0 0 0 0 0 0 
0 0 0 0 0 0 0 0 0 
0 0 0 0 0 0 0 0 0 
0 0 0 0 0 0 0 0 0 
0 0 0 0 0 0 0 0 0 
-1 0 0 -1 0 0 0 0 0 
0 0 0 0 0 0 0 0 0 
0 0 0 0 0 0 0 0 0 
0 0 0 0 0 0 0 0 0 
0 0 0 0 0 0 0 0 0 
0 0 0 0 0 0 0 0 0 
0 0 0 0 0 0 0 0 0 
0 0 0 0 0 0 0 0 0 
0 0 0 0 0 0 0 0 0 
0 0 0 0 0 0 0 0 0 
0 0 0 0 0 0 0 0 0 
0 0 0 0 0 0 0 0 0 
0 0 0 0 0 0 0 0 0 
0 0 0 0 0 0 0 0 0 
0 0 0 0 0 0 0 0 0 
0 0 0 0 0 0 0 0 0 
0 0 0 0 0 0 0 0 0 
0 0 0 0 0 0 0 0 0 
0 0 0 0 0 0 0 0 0 
0 0 0 0 0 0 0 0 0 
0 0 0 0 0 0 0 0 0 
0 0 0 0 0 0 0 0 0 