# vtk DataFile Version 4.0
Generated by LIGGGHTS
ASCII
DATASET POLYDATA
POINTS 2000 float
-86.986 -90.8134 9.99931 -95.6227 -113.57 10.0027 -106.268 -132.181 10.0042 
-118.146 -115.376 9.99553 -87.8822 -140.404 9.99876 -129.938 -132.295 9.99973 
-107.22 -97.2458 10.0421 -118.148 -127.878 25.5999 -111.032 -108.338 27.3087 
-134.257 -116.141 21.8166 -118.263 -89.8335 25.0512 -93.8428 -117.746 31.3034 
-56.7079 -99.3098 9.9811 -31.5014 -123.322 9.99771 -75.2365 -106.998 9.99728 
-67.1761 -137.244 10.0148 -79.7391 -124.39 18.7823 -38.3677 -103.24 16.8599 
-60.8971 -117.212 19.4821 -48.5207 -132.363 15.337 -57.7179 -140.888 31.6094 
-37.3357 -138.566 30.711 -0.142104 -104.866 9.99301 0.212992 -137.722 10.0013 
19.4505 -99.7639 9.99126 -19.7356 -100.864 9.99951 12.1706 -120.614 10.5263 
-11.5794 -121.573 9.99578 7.80765 -130.701 27.2364 21.3009 -89.6393 27.1263 
1.591 -90.6239 23.913 20.4876 -115.57 30.6981 25.1305 -133.992 17.8056 
35.2618 -103.21 22.5773 54.6111 -128.176 9.99311 67.0986 -89.4198 10.4727 
35.4898 -118.742 9.99041 66.0982 -111.221 9.99973 81.8158 -141.667 9.99973 
47.5647 -93.6873 10.0001 38.61 -124.29 28.9403 40.5797 -84.3263 26.9029 
139.751 -98.097 18.5769 115.978 -126.841 10.0097 131.39 -114.101 9.99397 
102.438 -92.4454 9.99725 85.7871 -107.426 9.99973 94.7437 -125.336 10.2106 
120.994 -91.1188 18.571 85.3371 -85.4578 17.6607 134.639 -131.131 19.9671 
111.584 -108.706 17.1916 93.5173 -103.652 28.4539 129.976 -111.569 29.7816 
104.367 -120.644 31.513 118.05 -139.573 27.2779 -130.298 -84.5547 9.99035 
-95.6248 -32.1713 16.5352 -112.602 -75.1903 10.0121 -122.321 -57.7104 10.0068 
-112.751 -40.1575 9.99069 -90.0489 -71.0498 9.99944 -102.755 -56.5918 15.455 
-99.6482 -82.7374 23.3005 -132.414 -69.1082 22.9644 -133.113 -49.1723 24.5244 
-115.293 -41.765 29.7533 -90.4145 -46.654 29.3064 -85.323 -48.378 9.99973 
-139.742 -84.6603 33.1665 -115.29 -61.797 30.3937 -139.044 -36.7608 10.0105 
-95.7073 -65.3295 34.1463 -32.5189 -68.9523 10.0077 -28.0834 -48.7459 10.0036 
-48.3 -81.2117 11.8779 -60.9479 -65.8313 10.0014 -76.6498 -62.0698 21.8223 
-57.8293 -32.7337 24.9961 -33.4763 -84.3259 24.9384 -21.8894 -57.901 26.6715 
12.2039 -55.3469 9.99758 -3.76298 -43.3078 10.2191 4.04208 -74.3482 10.0054 
23.4412 -79.3685 9.99835 -25.2046 -28.9542 9.99969 -11.5028 -61.7464 9.99974 
-14.3173 -34.2249 25.9312 -14.6235 -79.4024 20.4062 23.5093 -64.8349 23.7343 
7.85066 -73.6786 32.4759 20.8223 -27.7022 32.2808 43.5722 -74.067 9.99853 
52.0639 -48.3573 9.99973 72.6882 -56.7571 9.9828 31.9967 -52.4998 9.99888 
70.22 -41.291 22.4039 42.3876 -58.6285 25.9459 61.3609 -64.7399 24.3756 
52.5697 -42.5093 31.9686 85.8979 -41.4854 9.99569 89.692 -67.3361 10.0782 
132.967 -77.5762 10.0258 118.786 -57.1388 10.2053 108.367 -73.7754 14.0153 
114.038 -37.7179 9.99829 138.738 -58.432 9.99641 128.166 -42.0717 23.4665 
125.349 -71.7376 27.5669 -119.247 5.98127 9.99984 -105.002 -10.3607 10.0127 
-120.91 -21.7961 14.7548 -131.131 -3.91322 22.6951 -109.926 -11.2542 29.3758 
-89.9643 -17.9092 30.1285 -111.035 15.2799 25.7255 -85.0164 -16.5297 9.99912 
-139.707 -16.7689 9.99977 -129.909 21.8593 25.0782 -104.956 26.8557 9.99973 
-46.2945 3.15899 9.99614 -31.0919 -9.84109 10.1776 -76.0734 13.8103 24.9847 
-30.3802 19.1143 27.3904 -41.9765 -0.729821 29.1295 -37.9534 25.8328 9.99976 
-5.92414 -23.4274 10.0301 -23.615 11.889 9.99964 -11.8121 -4.30345 9.99314 
0.392144 -0.179105 25.2803 6.24149 11.2467 9.97748 19.2933 6.46239 24.4547 
24.7906 19.2133 10.0359 30.8028 -2.62338 10.0008 61.0541 -27.3687 9.99973 
44.087 12.4419 10.0067 81.1738 -15.0094 9.98089 59.4593 -0.905942 9.99068 
69.028 21.1051 10.1005 38.6182 22.9589 26.2006 61.4457 19.5423 29.106 
83.5955 13.6471 21.7782 98.1125 -25.6294 9.9957 139.01 6.05508 9.99973 
103.303 20.5896 10.0183 96.7967 1.67029 9.99973 139.556 26.074 10.0743 
125.018 -22.502 18.3129 118.57 -4.17977 9.97868 103.679 -11.7749 23.2937 
-89.3876 68.1629 9.99529 -112.661 59.3334 9.99651 -127.368 39.6727 9.99958 
-137.053 78.5654 29.442 -130.161 62.714 19.3697 -99.7134 45.5534 19.2936 
-116.884 38.7747 27.0073 -132.701 80.4243 10.0002 -82.0159 44.9107 9.99967 
-34.2042 69.6586 24.9933 -66.4989 61.777 9.99908 -50.9236 41.1177 9.99973 
-62.8616 49.5567 25.4068 -73.6342 73.2651 24.7322 -82.3755 48.4518 29.6827 
21.3578 80.2141 9.99326 -3.49749 62.0771 9.99594 -23.3567 39.5311 9.99973 
10.0941 69.5363 22.6357 23.5769 55.2641 9.99959 2.55549 36.8717 33.5056 
-4.88922 82.0259 10.0004 26.0679 79.6402 29.413 30.9965 57.5274 28.4336 
37.5586 34.6705 10.012 61.5621 42.2159 10.0011 61.8209 63.2364 10.0164 
40.2181 71.7086 9.99973 79.2296 51.629 9.99604 74.4537 34.3021 24.6473 
52.505 37.3257 27.1521 44.7904 52.7283 14.6884 79.589 72.4665 10.0018 
67.9431 53.125 26.4329 140.452 38.9445 25.4903 120.254 31.8785 9.99298 
88.0512 33.5521 9.9996 119.171 58.7351 9.99872 105.106 73.1457 10.0069 
104.913 44.7103 10.0061 138.257 51.4049 10.0002 94.9734 58.9585 19.9126 
118.558 45.275 24.7775 92.0726 83.1909 21.4614 115.337 69.2053 26.7451 
131.312 73.6868 15.5755 93.9434 37.851 28.6793 -113.637 86.5042 9.99977 
-114.586 119.305 24.9933 -140.524 96.0384 20.3551 -86.9444 103.894 10.001 
-76.128 135.339 25.2311 -77.6943 86.1628 9.99834 -57.1976 93.5806 10.0069 
-47.2703 111 10.0003 -80.7593 122.91 10.2582 -53.503 130.161 10.0013 
-30.8752 104.506 25.0891 -34.0692 136.543 10.7368 -33.3389 123.884 29.3782 
-17.2317 139.331 25.2263 -28.2208 117.365 10.0003 16.0087 132.017 9.99639 
-11.1862 127.847 10.0017 -2.7489 109.553 9.99977 8.67986 89.7438 22.5036 
17.0032 106.351 10.4804 1.7258 129.594 25.195 -14.4098 115.974 25.8224 
25.7835 99.6159 27.6528 23.0064 130.318 28.6499 -10.8326 96.335 22.6511 
7.03462 110.519 28.3709 34.3669 95.4778 10.0209 61.7858 134.848 10.0012 
35.662 115.468 9.98359 55.7231 114.948 9.99431 41.1823 138.996 9.99768 
79.7235 119.95 9.99681 68.2988 122.448 26.2168 50.0724 130.689 25.8709 
59.76 89.2887 33.4435 37.2737 115.864 29.8939 124.387 91.726 10.0002 
85.4454 100.095 9.99973 116.171 110.115 9.99616 139.306 134.184 9.99734 
110.096 136.05 10.051 104.489 93.8844 9.99897 136.489 112.403 9.99784 
99.2392 119.82 14.3484 124.787 124.953 20.2669 87.9825 121.606 30.7778 
-135.247 -103.68 37.426 -104.887 -132.505 39.8318 -130.325 -125.145 41.2442 
-113.978 -114.681 46.0364 -92.188 -121.666 50.839 -87.5831 -137.106 63.1706 
-107.228 -120.416 63.9484 -126.27 -127.029 60.8021 -132.41 -110.54 71.6927 
-105.218 -138.466 72.5576 -92.3637 -106.935 64.357 -129.155 -98.3179 87.366 
-80.7421 -131.68 37.6514 -70.7696 -91.4673 41.0399 -49.9997 -122.809 35.2898 
-44.7485 -99.7488 63.0954 -74.4956 -121.03 60.1396 -60.9105 -87.6793 74.4056 
-55.3759 -119.927 54.3811 -42.8727 -135.286 51.6007 -28.8335 -109.541 76.5214 
-61.8431 -109.018 69.9707 -53.2302 -128.882 77.9228 -35.0798 -127.517 69.6441 
-78.8029 -96.6198 74.8274 -72.5085 -130.674 82.9138 -17.488 -112.631 43.3087 
15.5694 -100.529 42.9292 13.0962 -127.016 54.4992 2.87457 -118.111 71.2481 
-3.47846 -139 61.5497 -11.6204 -93.4152 71.9504 23.4033 -134.633 39.1227 
8.15555 -93.9293 74.8082 -15.5023 -125.72 75.7479 22.2794 -93.977 60.5937 
7.99222 -137.017 77.8019 19.0039 -109.885 80.0389 25.9278 -128.568 75.1003 
26.0898 -113.611 61.72 25.4146 -91.425 84.8122 71.377 -127.845 40.7056 
37.3137 -124.05 48.8851 53.6354 -113.561 67.3329 39.6406 -105.438 41.9587 
78.4868 -115.051 72.4965 41.8411 -136.266 64.0465 37.9289 -101.286 72.3202 
59.9078 -136.812 72.5927 44.7825 -127.444 81.732 79.147 -134.409 77.4734 
102.329 -117.833 53.613 109.362 -92.5318 34.7746 133.9 -134.28 40.5043 
121.797 -112.54 48.0047 114.715 -131.028 45.1105 128.374 -93.3219 44.8024 
100.465 -138.717 56.8495 94.5585 -86.6024 46.8385 141.149 -113.65 53.8316 
108.583 -98.8446 54.1452 89.3028 -102.936 57.5179 121.011 -133.014 63.988 
132.752 -98.4217 63.7362 95.812 -125.316 70.9741 138.693 -127.46 71.4998 
97.8565 -87.6082 67.0895 133.083 -107.719 82.6225 111.396 -100.196 82.442 
116.822 -112.182 67.3802 122.079 -124.469 82.2738 93.0784 -84.5822 86.2666 
-116.413 -82.0656 59.1196 -130.026 -49.9362 45.4275 -85.863 -65.0123 58.2777 
-102.226 -34.1766 61.3113 -130.013 -53.1856 73.4308 -96.4282 -62.5055 81.0349 
-140.648 -35.2914 36.8862 -77.7757 -76.8127 72.2558 -28.8913 -35.5754 44.4559 
-75.5927 -56.7434 43.2412 -64.4486 -44.9224 57.1305 -65.7584 -64.1788 62.4252 
-51.1413 -39.4196 71.039 -78.4761 -55.7468 75.3547 -61.8302 -68.9753 81.4832 
-31.0318 -67.2092 59.2562 -68.7797 -38.4891 80.4625 -31.9851 -36.9427 76.8214 
-45.7857 -83.1653 86.6813 -49.8931 -53.3883 85.2965 3.81905 -85.1932 48.9514 
27.6885 -82.7428 44.765 -2.09567 -58.4601 40.7904 -9.45567 -40.2523 44.5387 
17.3856 -60.5632 69.7859 -13.1737 -37.358 64.0832 4.10881 -31.7974 84.7044 
5.21717 -28.2998 63.7 44.8592 -35.1905 56.6156 61.0316 -81.1503 55.2675 
65.1102 -47.4559 46.7361 77.4883 -49.2052 67.7484 57.6887 -47.8028 65.3404 
70.2956 -29.8453 72.2786 67.3295 -45.3614 84.5315 47.6549 -48.555 82.6184 
50.5124 -30.1959 75.1686 59.3683 -64.4057 86.0107 77.8922 -71.6813 87.9881 
139.268 -83.9162 84.0524 99.1875 -52.4169 40.4873 115.921 -80.2534 53.5191 
134.345 -55.832 36.5977 133.296 -73.0338 46.7459 108.065 -70.4986 69.1146 
131.459 -78.459 65.9764 88.841 -65.2471 71.7515 130.853 -60.3894 74.5665 
119.498 -81.9309 81.6218 -123.996 -24.4426 34.6715 -99.0643 -3.37879 44.9985 
-134.192 -8.80919 41.867 -111.073 21.4324 44.7733 -118.283 3.3224 40.221 
-113.886 -1.13961 59.2413 -109.989 21.7007 66.0977 -93.9073 18.0503 54.7935 
-133.614 2.5352 58.4671 -107.783 5.90782 78.1602 -126.151 12.6578 74.0219 
-86.3024 -9.15743 79.9656 -93.653 0.253589 63.918 -121.489 -9.05861 76.2024 
-88.0482 9.36853 87.4387 -104.593 -11.3431 87.7534 -44.1466 -27.3003 56.7499 
-77.9671 -13.7753 46.4494 -43.5104 17.4189 42.6059 -68.9101 0.815586 56.721 
-59.9024 20.5289 55.2764 -50.0945 6.16752 65.1505 -52.5656 -7.84468 49.1178 
-36.6409 9.38669 81.3252 -66.3086 -25.0335 58.1666 -52.6256 -13.4091 68.3765 
-78.7895 13.1325 68.9951 -36.7198 -17.2145 81.3608 -67.6864 -2.67859 76.4251 
[...]
POINT_DATA 2000
FIELD FieldData 7
id 1 2000 int
41 77 196 230 301 308 107 205 282 
106 55 438 53 85 259 296 439 157 
275 424 371 40 185 265 297 299 410 
440 172 95 351 336 437 49 33 300 
376 408 344 397 216 149 380 59 139 
141 164 29 30 201 379 335 434 394 
283 247 411 36 142 338 414 456 32 
161 261 453 80 276 171 381 245 114 
425 112 143 231 246 215 10 273 211 
115 208 232 365 225 48 243 45 167 
75 11 113 174 222 318 108 354 285 
317 200 117 252 262 286 314 395 334 
274 239 342 66 147 255 443 309 413 
298 278 238 50 345 20 46 220 187 
212 69 37 358 390 416 347 122 359 
123 197 264 430 315 204 256 135 346 
54 97 178 213 271 404 84 199 320 
400 234 450 152 444 362 8 279 321 
250 384 378 195 240 399 186 111 12 
169 73 133 131 132 389 419 449 229 
369 375 102 72 99 330 253 34 154 
221 266 173 352 366 58 329 206 138 
6 284 179 328 184 224 168 311 455 
295 385 90 78 88 62 302 339 79 
83 218 426 127 128 294 433 341 110 
227 396 421 429 251 242 18 423 96 
160 209 288 367 370 452 116 198 203 
244 343 442 166 304 361 401 448 1864 
1820 1025 1285 223 9 71 82 130 350 
119 409 290 383 1007 1904 1249 1749 2 
241 156 64 76 210 263 1855 1873 364 
1584 1941 1011 418 327 22 144 165 382 
323 332 42 1715 1811 1945 137 47 51 
125 445 81 155 249 272 436 74 1428 
1281 1934 720 1920 856 700 1308 1665 997 
5 331 388 26 307 552 183 319 422 
65 163 191 236 1719 1793 23 1676 1730 
903 642 293 39 417 281 28 226 1366 
402 392 14 44 189 306 104 931 1603 
118 89 1953 1922 25 86 313 398 180 
188 1317 1870 1643 405 43 412 129 322 
761 1508 303 326 764 1565 1819 176 1155 
1520 1143 415 151 162 68 158 214 257 
121 368 175 427 353 1211 864 874 1540 
1284 4 217 357 202 94 190 349 120 
1159 570 746 268 260 219 7 100 333 
432 457 70 63 1767 622 153 386 291 
15 277 19 441 581 1015 1407 839 3 
254 57 228 393 145 177 420 1046 1600 
1399 909 340 1956 182 1975 1 270 387 
109 170 181 140 312 91 93 1163 324 
1404 712 372 61 67 267 60 316 87 
1652 590 583 207 923 709 193 280 373 
235 374 16 194 148 789 1080 1406 431 
1082 1951 1417 310 377 103 233 337 35 
258 356 24 159 435 1430 1367 1124 1194 
852 105 360 403 237 287 363 92 348 
21 1398 1517 1852 1685 292 1191 27 428 
391 56 98 1807 1893 1087 1716 1200 355 
1283 407 289 446 101 192 13 124 1869 
1400 1589 701 269 146 136 150 1883 1995 
771 817 1501 1706 1836 949 1854 52 305 
325 406 38 126 17 31 447 134 248 
967 1140 1618 1447 741 1424 480 1068 1694 
1542 1293 1726 784 954 1929 1771 814 1878 
1938 1195 484 1382 1176 1178 1017 541 1173 
1999 1170 1331 1982 1021 948 1258 1601 1452 
1896 1838 668 907 520 952 1262 1252 1865 
1539 1304 1712 1337 553 1450 1687 651 548 
1678 951 1634 1050 1551 1537 654 1128 1988 
1409 462 1105 1189 1728 1757 1051 1474 838 
1842 1561 1649 599 661 911 914 1147 1149 
1459 866 1220 1829 479 753 1845 974 486 
1527 1840 752 573 1427 845 540 1206 1275 
1683 1488 1656 1543 1781 489 878 995 1045 
1171 1578 1013 739 1994 1077 1866 833 889 
1799 626 1586 1213 875 1130 621 757 793 
1894 1421 533 1725 985 1566 640 1861 602 
652 1365 1001 644 1225 1234 1415 779 862 
1373 1874 666 1167 960 723 1673 1389 806 
495 1729 1480 1444 521 454 574 854 658 
1112 1442 1908 842 861 1419 1034 1177 1628 
1093 1099 1736 1738 1129 1465 1324 1677 532 
1460 754 1063 1190 1496 1947 1850 628 1453 
1031 1696 1023 1066 1718 1563 1881 698 799 
1144 722 1554 451 466 1340 1831 1271 1745 
1401 1391 1572 467 471 594 1385 1912 970 
1675 888 1119 1369 1602 464 1579 1102 474 
580 1468 1499 1270 1341 1769 506 1533 643 
1412 673 1595 1475 1890 1959 608 1570 1362 
1529 470 597 1679 1172 1074 919 1534 566 
674 1720 1743 965 975 1803 1884 841 656 
1416 1481 892 1040 1791 1108 853 1815 564 
1490 1773 492 1647 1620 1261 1052 1606 660 
729 1761 962 968 1960 624 1470 1241 1608 
1682 518 1131 1903 1334 1326 966 1638 1858 
1441 1477 1636 513 1825 1355 1822 803 728 
805 893 936 964 1433 848 1931 1891 1267 
925 1889 1071 469 1734 1887 1268 1591 1156 
1552 537 1201 1979 1911 1153 1525 562 1892 
1054 1684 588 1919 991 488 1216 749 981 
1422 671 630 946 876 1291 1965 1461 508 
1098 461 475 832 1830 1545 1844 1125 1104 
2000 1610 718 1342 1117 810 887 1827 522 
1667 1263 696 990 775 459 565 687 1058 
1169 1662 944 1633 801 1483 1037 906 675 
1209 1962 781 1614 1089 1752 835 670 1462 
1135 1576 1980 1101 1203 1120 969 1229 1813 
1978 1582 1361 1487 1094 487 1223 758 1121 
751 1205 912 1042 938 850 987 1328 972 
1661 1352 1663 1974 589 616 1916 1254 1932 
986 915 539 807 1756 886 1936 1118 1084 
1930 618 1100 686 1166 530 1018 1332 1772 
1004 1835 1616 1935 1622 601 1208 1343 493 
1564 1796 1287 1495 865 1309 896 1532 1937 
740 1300 1187 788 498 809 894 935 1740 
916 1788 1632 1491 1558 528 1036 1076 1467 
1573 1397 632 1707 1711 1834 745 961 1414 
901 1197 1333 1569 1282 1494 1846 1048 1062 
575 1064 1269 1504 1928 994 1070 1126 798 
1653 1318 569 1524 922 682 1770 645 1312 
1049 1092 1701 1863 1948 1917 1550 538 953 
1214 1114 895 1613 1859 732 837 934 1458 
1577 713 1056 511 1925 904 1371 623 1264 
503 664 1910 1918 600 1073 1138 1184 759 
1255 1784 1849 733 1303 797 1109 1789 1175 
1134 1963 802 1192 1247 1276 1438 525 557 
1250 627 1336 535 790 1837 1722 1204 1764 
1732 1856 531 1708 559 1219 1944 1809 1798 
1041 502 1952 561 1043 1626 491 1879 1418 
942 1313 1957 1992 473 1503 1226 604 710 
1629 825 1420 1735 800 1455 1897 1260 1666 
1231 1548 1505 1029 478 1354 647 1375 1053 
1387 1702 1360 1165 1760 697 1024 1964 551 
1440 1359 1344 1804 992 1906 1596 1983 1939 
1670 984 1383 1055 820 1379 1514 545 920 
988 646 1780 1814 1724 818 959 1245 1664 
1122 794 1060 1289 708 1295 1059 667 769 
1473 1823 595 1650 1991 1181 1754 867 529 
1585 1607 496 736 1790 685 1251 1350 1434 
1088 1235 831 1547 1069 1828 1853 483 1090 
509 822 1860 1446 730 1222 1672 1026 1598 
1445 1246 763 1067 1030 1377 1695 689 1973 
526 1674 692 1469 614 1061 1604 1006 679 
681 1966 515 742 755 868 796 1210 1277 
1832 476 611 871 1368 774 917 1546 1297 
902 1623 1833 620 1805 725 770 1507 1035 
1699 1877 510 1457 1705 523 1310 780 830 
1568 918 870 1116 1512 743 1179 1513 688 
1150 482 607 765 1778 1617 945 971 1232 
1876 908 1425 924 1493 993 1857 546 1363 
1146 777 1575 1923 613 695 1151 1174 1559 
1940 1348 750 819 1783 1511 1305 1841 558 
1768 1775 705 1106 760 1142 1556 631 1594 
1976 1502 1530 1882 1615 1466 1619 999 885 
1039 1742 910 881 1969 929 1448 612 744 
1580 1228 1972 534 738 1808 1867 795 657 
1353 1821 641 1704 549 572 1136 1429 1541 
472 655 699 1640 1700 1574 1072 1338 1801 
998 1078 1306 1549 1196 1641 1741 1967 1028 
1358 463 1899 1079 1386 567 1356 1818 648 
1290 1370 1905 1810 1091 950 1942 1432 1737 
1590 1871 481 547 1376 592 928 1095 1408 
1802 1611 899 1274 1875 1996 1961 678 1168 
1509 524 1597 1500 1047 1489 1949 1162 1022 
1492 1637 1239 1242 1557 1160 1571 499 634 
704 927 1009 1237 787 1321 1839 1357 591 
576 1645 1521 1592 596 719 811 1993 1660 
747 1005 1302 1411 1847 584 663 715 519 
1139 514 1256 1057 1482 586 1439 1152 516 
815 855 1032 1680 649 693 1107 1476 1668 
1621 1690 963 1279 1436 869 1327 485 1763 
1085 605 1347 1817 1880 571 650 1454 1901 
500 1161 1538 1792 603 1394 1316 1739 680 
791 717 1423 821 1345 816 1727 468 703 
1431 955 826 1392 1515 1915 1388 900 1113 
1133 1516 1273 1968 1703 672 829 1522 1642 
1907 1127 1958 1065 891 1307 1426 1776 1990 
834 1086 1224 1396 1746 1320 1744 1977 836 
477 734 748 1753 1593 677 1581 1755 978 
1010 939 1314 1485 1000 827 1083 1555 1758 
1926 776 1888 1989 982 1413 1812 579 1198 
1646 1826 1921 851 694 824 1123 563 578 
762 1240 1311 1848 458 1985 863 690 767 
1185 1885 1148 1762 956 1390 1339 1681 517 
973 1137 1868 1914 490 711 731 1230 860 
1378 1627 1759 1280 593 847 858 737 941 
977 1782 1132 1288 615 554 921 1016 958 
1851 785 1692 1787 625 724 1330 1193 1265 
577 1012 505 873 1472 1374 1886 989 1997 
1182 1686 1721 1014 1236 1008 1464 1393 497 
653 1651 1723 1955 637 812 1544 1862 543 
976 560 857 1278 1795 1322 1800 926 1329 
1227 1221 542 1141 1212 1583 662 846 1215 
1691 804 937 1158 1671 1898 1233 707 1238 
1044 1186 772 1325 1587 843 1164 1630 933 
1531 1697 1777 890 773 1299 1635 702 1970 
877 778 609 1751 1588 568 1372 536 1497 
1364 1451 905 1301 1927 880 1319 1560 507 
1486 1259 639 465 766 1747 1111 556 669 
716 879 913 721 898 504 1449 756 947 
1924 1506 1435 1294 726 587 980 1207 1253 
1154 633 665 1298 1933 512 1405 1689 1693 
1244 782 1395 1027 1097 544 1188 1986 1038 
1987 638 768 1019 1218 1351 1599 1766 1797 
1471 828 1033 1523 619 610 1456 1478 1286 
1510 617 943 1748 1096 635 1688 1779 1943 
606 783 996 1954 683 957 1463 1609 1403 
1713 1567 598 1257 1519 555 1669 1909 1717 
1639 1624 1381 1075 813 1843 1292 1733 1410 
1157 706 1971 1498 527 1714 1816 897 1272 
1950 1402 1315 1081 636 1984 1655 1562 1296 
714 659 1946 1335 1786 1443 1115 840 1654 
501 1658 1648 1484 1346 930 585 1380 849 
1553 1349 884 859 1526 1709 1103 882 1794 
1266 940 1998 1731 1605 1180 1145 808 582 
844 1003 983 786 1020 1323 1981 1110 1698 
1002 1437 1644 1243 1528 1657 932 1384 1785 
1824 494 691 1248 1518 1631 792 1479 735 
1895 1872 1612 1710 1183 823 883 1625 1659 
1913 1765 872 1202 1217 1535 1536 1806 1902 
979 460 684 1750 1199 727 629 550 1900 
1774 676 
type 1 2000 int
1 1 1 1 1 1 1 1 1 
1 1 1 1 1 1 1 1 1 
1 1 1 1 1 1 1 1 1 
1 1 1 1 1 1 1 1 1 
1 1 1 1 1 1 1 1 1 
1 1 1 1 1 1 1 1 1 
1 1 1 1 1 1 1 1 1 
1 1 1 1 1 1 1 1 1 
1 1 1 1 1 1 1 1 1 
1 1 1 1 1 1 1 1 1 
1 1 1 1 1 1 1 1 1 
1 1 1 1 1 1 1 1 1 
1 1 1 1 1 1 1 1 1 
1 1 1 1 1 1 1 1 1 
1 1 1 1 1 1 1 1 1 
1 1 1 1 1 1 1 1 1 
1 1 1 1 1 1 1 1 1 
1 1 1 1 1 1 1 1 1 
1 1 1 1 1 1 1 1 1 
1 1 1 1 1 1 1 1 1 
1 1 1 1 1 1 1 1 1 
1 1 1 1 1 1 1 1 1 
1 1 1 1 1 1 1 1 1 
1 1 1 1 1 1 1 1 1 
1 1 1 1 1 1 1 1 1 
1 1 1 1 1 1 1 1 1 
1 1 1 1 1 1 1 1 1 
1 1 1 1 1 1 1 1 1 
1 1 1 1 1 1 1 1 1 
1 1 1 1 1 1 1 1 1 
1 1 1 1 1 1 1 1 1 
1 1 1 1 1 1 1 1 1 
1 1 1 1 1 1 1 1 1 
1 1 1 1 1 1 1 1 1 
1 1 1 1 1 1 1 1 1 
1 1 1 1 1 1 1 1 1 
1 1 1 1 1 1 1 1 1 
1 1 1 1 1 1 1 1 1 
1 1 1 1 1 1 1 1 1 
1 1 1 1 1 1 1 1 1 
1 1 1 1 1 1 1 1 1 
1 1 1 1 1 1 1 1 1 
1 1 1 1 1 1 1 1 1 
1 1 1 1 1 1 1 1 1 
1 1 1 1 1 1 1 1 1 
1 1 1 1 1 1 1 1 1 
1 1 1 1 1 1 1 1 1 
1 1 1 1 1 1 1 1 1 
1 1 1 1 1 1 1 1 1 
1 1 1 1 1 1 1 1 1 
1 1 1 1 1 1 1 1 1 
1 1 1 1 1 1 1 1 1 
1 1 1 1 1 1 1 1 1 
1 1 1 1 1 1 1 1 1 
1 1 1 1 1 1 1 1 1 
1 1 1 1 1 1 1 1 1 
1 1 1 1 1 1 1 1 1 
1 1 1 1 1 1 1 1 1 
1 1 1 1 1 1 1 1 1 
1 1 1 1 1 1 1 1 1 
1 1 1 1 1 1 1 1 1 
1 1 1 1 1 1 1 1 1 
1 1 1 1 1 1 1 1 1 
1 1 1 1 1 1 1 1 1 
1 1 1 1 1 1 1 1 1 
1 1 1 1 1 1 1 1 1 
1 1 1 1 1 1 1 1 1 
1 1 1 1 1 1 1 1 1 
1 1 1 1 1 1 1 1 1 
1 1 1 1 1 1 1 1 1 
1 1 1 1 1 1 1 1 1 
1 1 1 1 1 1 1 1 1 
1 1 1 1 1 1 1 1 1 
1 1 1 1 1 1 1 1 1 
1 1 1 1 1 1 1 1 1 
1 1 1 1 1 1 1 1 1 
1 1 1 1 1 1 1 1 1 
1 1 1 1 1 1 1 1 1 
1 1 1 1 1 1 1 1 1 
1 1 1 1 1 1 1 1 1 
1 1 1 1 1 1 1 1 1 
1 1 1 1 1 1 1 1 1 
1 1 1 1 1 1 1 1 1 
1 1 1 1 1 1 1 1 1 
1 1 1 1 1 1 1 1 1 
1 1 1 1 1 1 1 1 1 
1 1 1 1 1 1 1 1 1 
1 1 1 1 1 1 1 1 1 
1 1 1 1 1 1 1 1 1 
1 1 1 1 1 1 1 1 1 
1 1 1 1 1 1 1 1 1 
1 1 1 1 1 1 1 1 1 
1 1 1 1 1 1 1 1 1 
1 1 1 1 1 1 1 1 1 
1 1 1 1 1 1 1 1 1 
1 1 1 1 1 1 1 1 1 
1 1 1 1 1 1 1 1 1 
1 1 1 1 1 1 1 1 1 
1 1 1 1 1 1 1 1 1 
1 1 1 1 1 1 1 1 1 
1 1 1 1 1 1 1 1 1 
1 1 1 1 1 1 1 1 1 
1 1 1 1 1 1 1 1 1 
1 1 1 1 1 1 1 1 1 
1 1 1 1 1 1 1 1 1 
1 1 1 1 1 1 1 1 1 
1 1 1 1 1 1 1 1 1 
1 1 1 1 1 1 1 1 1 
1 1 1 1 1 1 1 1 1 
1 1 1 1 1 1 1 1 1 
1 1 1 1 1 1 1 1 1 
1 1 1 1 1 1 1 1 1 
1 1 1 1 1 1 1 1 1 
1 1 1 1 1 1 1 1 1 
1 1 1 1 1 1 1 1 1 
1 1 1 1 1 1 1 1 1 
1 1 1 1 1 1 1 1 1 
1 1 1 1 1 1 1 1 1 
1 1 1 1 1 1 1 1 1 
1 1 1 1 1 1 1 1 1 
1 1 1 1 1 1 1 1 1 
1 1 1 1 1 1 1 1 1 
1 1 1 1 1 1 1 1 1 
1 1 1 1 1 1 1 1 1 
1 1 1 1 1 1 1 1 1 
1 1 1 1 1 1 1 1 1 
1 1 1 1 1 1 1 1 1 
1 1 1 1 1 1 1 1 1 
1 1 1 1 1 1 1 1 1 
1 1 1 1 1 1 1 1 1 
1 1 1 1 1 1 1 1 1 
1 1 1 1 1 1 1 1 1 
1 1 1 1 1 1 1 1 1 
1 1 1 1 1 1 1 1 1 
1 1 1 1 1 1 1 1 1 
1 1 1 1 1 1 1 1 1 
1 1 1 1 1 1 1 1 1 
1 1 1 1 1 1 1 1 1 
1 1 1 1 1 1 1 1 1 
1 1 1 1 1 1 1 1 1 
1 1 1 1 1 1 1 1 1 
1 1 1 1 1 1 1 1 1 
1 1 1 1 1 1 1 1 1 
1 1 1 1 1 1 1 1 1 
1 1 1 1 1 1 1 1 1 
1 1 1 1 1 1 1 1 1 
1 1 1 1 1 1 1 1 1 
1 1 1 1 1 1 1 1 1 
1 1 1 1 1 1 1 1 1 
1 1 1 1 1 1 1 1 1 
1 1 1 1 1 1 1 1 1 
1 1 1 1 1 1 1 1 1 
1 1 1 1 1 1 1 1 1 
1 1 1 1 1 1 1 1 1 
1 1 1 1 1 1 1 1 1 
1 1 1 1 1 1 1 1 1 
1 1 1 1 1 1 1 1 1 
1 1 1 1 1 1 1 1 1 
1 1 1 1 1 1 1 1 1 
1 1 1 1 1 1 1 1 1 
1 1 1 1 1 1 1 1 1 
1 1 1 1 1 1 1 1 1 
1 1 1 1 1 1 1 1 1 
1 1 1 1 1 1 1 1 1 
1 1 1 1 1 1 1 1 1 
1 1 1 1 1 1 1 1 1 
1 1 1 1 1 1 1 1 1 
1 1 1 1 1 1 1 1 1 
1 1 1 1 1 1 1 1 1 
1 1 1 1 1 1 1 1 1 
1 1 1 1 1 1 1 1 1 
1 1 1 1 1 1 1 1 1 
1 1 1 1 1 1 1 1 1 
1 1 1 1 1 1 1 1 1 
1 1 1 1 1 1 1 1 1 
1 1 1 1 1 1 1 1 1 
1 1 1 1 1 1 1 1 1 
1 1 1 1 1 1 1 1 1 
1 1 1 1 1 1 1 1 1 
1 1 1 1 1 1 1 1 1 
1 1 1 1 1 1 1 1 1 
1 1 1 1 1 1 1 1 1 
1 1 1 1 1 1 1 1 1 
1 1 1 1 1 1 1 1 1 
1 1 1 1 1 1 1 1 1 
1 1 1 1 1 1 1 1 1 
1 1 1 1 1 1 1 1 1 
1 1 1 1 1 1 1 1 1 
1 1 1 1 1 1 1 1 1 
1 1 1 1 1 1 1 1 1 
1 1 1 1 1 1 1 1 1 
1 1 1 1 1 1 1 1 1 
1 1 1 1 1 1 1 1 1 
1 1 1 1 1 1 1 1 1 
1 1 1 1 1 1 1 1 1 
1 1 1 1 1 1 1 1 1 
1 1 1 1 1 1 1 1 1 
1 1 1 1 1 1 1 1 1 
1 1 1 1 1 1 1 1 1 
1 1 1 1 1 1 1 1 1 
1 1 1 1 1 1 1 1 1 
1 1 1 1 1 1 1 1 1 
1 1 1 1 1 1 1 1 1 
1 1 1 1 1 1 1 1 1 
1 1 1 1 1 1 1 1 1 
1 1 1 1 1 1 1 1 1 
1 1 1 1 1 1 1 1 1 
1 1 1 1 1 1 1 1 1 
1 1 1 1 1 1 1 1 1 
1 1 1 1 1 1 1 1 1 
1 1 1 1 1 1 1 1 1 
1 1 1 1 1 1 1 1 1 
1 1 1 1 1 1 1 1 1 
1 1 1 1 1 1 1 1 1 
1 1 1 1 1 1 1 1 1 
1 1 1 1 1 1 1 1 1 
1 1 1 1 1 1 1 1 1 
1 1 1 1 1 1 1 1 1 
1 1 1 1 1 1 1 1 1 
1 1 1 1 1 1 1 1 1 
1 1 1 1 1 1 1 1 1 
1 1 1 1 1 1 1 1 1 
1 1 
i 3 2000 int
0 0 0 0 0 0 0 0 0 
0 0 0 0 0 0 0 0 0 
0 0 0 0 0 0 0 0 0 
0 0 0 0 0 0 0 0 0 
0 0 0 0 0 0 0 0 0 
0 0 0 0 0 0 0 0 0 
0 0 0 0 0 0 0 0 0 
0 1 0 0 0 0 0 0 0 
0 0 0 0 0 0 0 0 0 
0 0 0 0 0 0 0 0 0 
0 0 0 0 0 0 0 0 0 
0 0 0 0 0 0 0 0 0 
0 0 0 0 0 0 0 1 0 
0 0 0 0 0 0 0 0 0 
-1 0 0 0 0 0 0 0 0 
0 0 0 0 0 0 0 0 0 
0 0 0 0 0 0 0 0 0 
0 0 0 0 0 0 0 0 0 
0 0 0 0 1 0 0 0 0 
0 0 0 0 0 0 0 0 0 
0 0 0 0 0 0 0 0 0 
0 0 0 0 0 0 0 0 0 
0 0 0 0 0 0 0 0 0 
0 0 0 0 0 0 0 0 0 
0 0 0 0 0 0 0 0 0 
0 0 0 0 0 0 0 0 0 
0 0 0 0 0 0 0 0 0 
0 0 0 0 0 0 0 0 0 
0 0 0 0 0 0 0 0 0 
0 0 0 0 0 0 0 0 0 
0 0 0 0 0 0 0 0 0 
0 0 0 0 0 0 0 0 0 
0 0 0 0 0 0 0 0 0 
0 0 0 0 0 0 0 0 0 
0 0 0 0 0 0 0 0 0 
0 0 0 0 0 0 0 0 0 
0 0 0 0 0 0 0 0 0 
0 0 0 0 0 0 0 0 0 
0 0 0 0 0 0 0 0 0 
1 0 0 0 0 0 0 0 0 
0 0 0 0 0 0 0 0 0 
0 0 0 0 0 0 0 0 0 
0 0 0 0 0 0 0 0 0 
0 0 0 0 0 0 0 0 0 
0 0 0 0 0 0 0 0 0 
0 0 0 0 0 0 0 0 0 
0 0 0 0 0 0 0 0 0 
0 0 0 0 0 0 -1 0 0 
0 0 0 0 0 0 0 0 0 
0 0 0 0 0 0 0 0 0 
0 0 0 0 0 0 0 0 0 
0 0 0 0 0 0 0 0 0 
0 0 0 0 0 0 0 0 0 
0 0 0 0 0 0 0 0 0 
0 0 0 0 0 0 0 0 0 
0 0 0 0 0 0 0 0 0 
0 0 0 0 0 0 0 0 0 
0 0 0 0 0 0 0 0 0 
0 0 0 0 0 0 0 0 0 
0 0 0 0 0 0 0 0 0 
0 0 0 0 0 0 0 0 0 
0 0 0 -1 0 0 0 0 0 
0 0 0 0 0 0 0 0 0 
0 0 0 0 0 0 0 0 0 
0 0 0 0 0 0 0 0 0 
0 0 0 0 0 0 0 0 0 
0 0 0 1 0 0 0 0 0 
0 -1 0 0 0 0 0 0 0 
0 0 0 0 0 0 0 0 0 
0 0 0 0 0 0 0 0 0 
0 0 0 0 0 0 0 0 0 
0 0 0 0 0 0 0 0 0 
0 0 0 0 0 0 0 0 0 
0 0 0 0 0 0 0 0 0 
0 0 0 0 0 0 0 0 0 
0 0 0 0 0 0 0 0 0 
0 0 0 0 0 0 0 0 0 
0 0 0 0 0 0 0 0 0 
0 0 0 0 0 0 0 0 0 
0 0 0 0 0 0 0 0 0 
0 0 0 0 0 0 0 0 0 
0 0 0 0 0 0 0 0 0 
0 0 0 0 0 0 0 0 0 
0 0 0 0 0 0 0 0 0 
0 0 0 0 0 0 0 0 0 
0 0 0 0 0 0 0 0 0 
0 0 0 0 0 0 0 0 0 
0 0 0 0 0 0 0 0 0 
0 0 0 0 0 0 0 0 0 
0 0 0 0 0 0 0 0 0 
0 0 0 0 0 0 0 0 0 
0 0 0 0 0 0 0 0 0 
0 0 0 0 0 0 0 0 0 
0 0 0 0 0 0 0 0 0 
0 0 0 0 0 0 0 0 0 
0 0 0 0 0 0 0 0 0 
0 0 0 0 0 0 0 0 0 
0 0 0 0 0 0 0 0 0 
0 0 0 0 0 0 0 0 0 
0 0 0 0 0 0 0 0 0 
0 0 0 0 0 0 0 0 0 
0 0 0 0 0 0 0 0 0 
0 0 0 0 0 0 0 0 0 
0 0 0 -1 0 0 0 0 0 
0 0 0 0 0 0 0 0 0 
0 0 0 0 0 0 0 0 0 
0 0 0 0 0 0 0 0 0 
1 0 0 0 0 0 0 0 0 
0 0 0 0 0 0 0 0 0 
0 0 0 0 0 0 0 0 0 
0 0 0 0 0 0 0 0 0 
0 0 0 0 0 0 0 0 0 
0 0 0 0 0 0 0 0 0 
0 0 0 0 0 0 0 0 0 
0 0 0 0 0 0 0 0 0 
0 0 0 0 0 0 0 0 0 
0 0 0 0 0 0 0 0 0 
0 0 0 0 0 0 0 0 0 
-1 0 0 0 0 0 0 0 0 
0 0 0 0 0 0 0 0 0 
0 0 0 0 0 0 0 0 0 
0 0 0 0 0 0 0 0 0 
1 0 0 0 0 0 0 0 0 
0 0 0 0 0 0 0 0 0 
1 0 0 0 0 0 0 0 0 
0 0 0 0 0 0 0 0 0 
0 0 0 0 0 0 0 0 0 
0 0 0 0 0 0 0 0 0 
0 0 0 0 0 0 0 0 0 
0 0 0 0 0 0 0 0 0 
0 0 0 0 0 0 0 0 0 
0 0 0 0 0 0 0 0 0 
0 0 0 0 0 0 0 0 0 
0 0 0 0 0 0 0 0 0 
0 0 0 0 0 0 0 0 0 
0 0 0 0 0 0 0 0 0 
0 0 0 0 0 0 0 0 0 
0 0 0 0 0 0 0 0 0 
0 0 0 0 0 0 0 0 0 
0 0 0 0 0 0 0 0 0 
0 0 0 0 0 0 0 0 0 
0 0 0 0 0 0 0 0 0 
0 0 0 0 0 0 0 0 0 
0 0 0 0 0 0 0 0 0 
0 0 0 0 0 0 0 0 0 
0 0 0 0 0 0 0 0 0 
0 0 0 0 0 0 0 0 0 
0 0 0 0 0 0 1 0 0 
0 0 0 1 0 0 1 0 0 
0 0 0 0 0 0 0 0 0 
0 0 0 0 0 0 0 0 0 
0 0 0 0 0 0 0 0 0 
0 0 0 0 0 0 0 0 0 
0 0 0 0 0 0 0 0 0 
0 0 0 0 0 0 0 0 0 
0 0 0 0 0 0 0 0 0 
0 0 0 0 0 0 0 0 0 
0 0 0 0 0 0 0 0 0 
0 0 0 0 0 0 0 0 0 
0 0 0 0 0 0 0 0 0 
0 0 0 0 0 0 0 0 0 
0 0 0 0 0 0 0 0 0 
0 0 0 0 0 0 0 0 0 
0 0 0 -1 0 0 0 0 0 
0 0 0 0 0 0 0 0 0 
0 0 0 0 0 0 0 0 0 
0 0 0 0 0 0 0 0 0 
0 0 0 0 0 0 0 0 0 
0 -1 0 0 0 0 0 0 0 
0 0 0 0 0 0 0 0 0 
0 0 0 0 0 0 0 0 0 
0 0 0 0 0 0 0 0 0 
0 0 0 0 0 0 0 0 0 
0 -1 0 0 0 0 0 0 0 
0 0 0 0 0 0 0 0 0 
0 0 0 0 0 0 0 0 0 
0 -1 0 0 0 0 0 -1 0 
0 0 0 0 0 0 0 -1 0 
0 0 0 0 0 0 0 0 0 
0 0 0 0 0 0 0 0 0 
0 0 0 0 0 0 0 0 0 
0 -1 0 0 0 0 0 0 0 
0 0 0 0 0 0 0 0 0 
0 0 0 0 0 0 0 0 0 
0 0 0 0 0 0 0 0 0 
0 -1 0 0 0 0 0 0 0 
0 0 0 -1 0 0 0 -1 0 
-1 0 0 0 0 0 0 0 0 
0 0 0 0 0 0 0 0 0 
0 0 0 0 0 0 0 0 0 
0 0 0 0 0 0 0 0 0 
0 0 0 0 0 0 0 0 0 
0 0 0 0 0 0 0 0 0 
0 0 0 0 0 0 0 1 0 
0 0 0 0 0 0 0 0 0 
0 0 0 0 0 0 0 0 0 
0 0 0 0 0 0 0 0 0 
0 0 0 0 0 0 0 0 0 
0 0 0 0 0 0 0 0 0 
0 0 0 0 0 0 0 0 0 
0 0 0 0 0 0 0 1 0 
0 0 0 0 0 0 0 0 0 
0 0 0 0 0 0 0 0 0 
0 0 0 0 0 0 0 1 0 
0 0 0 0 1 0 0 0 0 
0 0 0 0 0 0 0 0 0 
0 0 0 0 0 0 0 0 0 
0 0 0 0 0 0 0 0 0 
0 0 0 0 0 0 0 0 0 
0 0 0 0 0 0 0 0 0 
0 0 0 0 0 0 0 0 0 
0 0 0 0 0 0 1 0 0 
0 0 0 0 0 0 0 0 0 
0 0 0 0 0 0 0 0 0 
0 0 0 0 0 0 0 0 0 
0 0 0 0 0 0 0 0 0 
0 0 0 0 0 0 0 0 0 
0 0 0 0 0 0 0 0 0 
0 0 0 0 0 0 0 0 0 
0 0 0 0 0 0 0 0 0 
0 0 0 0 0 0 0 0 0 
0 0 0 0 0 0 0 0 0 
0 0 0 0 0 0 0 0 0 
0 0 0 -1 0 0 0 0 0 
0 0 0 0 0 0 0 0 0 
0 0 0 0 0 0 0 0 0 
0 0 0 0 0 0 0 0 0 
0 0 0 0 0 0 0 0 0 
0 0 0 0 0 0 0 0 0 
0 0 0 0 0 0 0 0 0 
0 0 0 0 0 0 0 0 0 
0 0 0 0 0 0 0 0 0 
0 0 0 0 0 0 0 0 0 
0 0 0 0 0 0 0 0 0 
0 0 0 0 0 0 0 0 0 
0 0 0 0 0 0 0 0 0 
0 0 0 0 0 0 0 0 0 
0 0 0 0 0 0 0 0 0 
0 0 0 0 0 0 0 0 0 
0 0 0 0 0 0 0 0 0 
0 0 0 0 0 0 0 0 0 
0 0 0 0 0 0 0 0 0 
0 0 0 0 0 0 -1 0 0 
0 0 0 0 0 0 0 0 0 
0 0 0 0 0 0 0 0 0 
0 0 0 0 0 0 0 0 0 
0 0 0 0 0 0 0 0 0 
0 0 0 0 0 0 0 0 0 
0 0 0 0 0 0 0 0 0 
0 0 0 0 0 0 0 0 0 
0 0 0 0 0 0 1 0 0 
0 0 0 0 0 0 1 0 0 
0 0 0 0 0 0 0 0 0 
0 0 0 0 0 0 0 0 0 
0 0 0 0 0 0 0 0 0 
0 0 0 0 0 0 0 0 0 
0 0 0 0 0 0 0 0 0 
0 0 0 0 0 0 0 0 0 
0 0 0 0 0 0 0 0 0 
0 0 0 0 0 0 0 0 0 
0 0 0 0 0 0 0 0 0 
0 0 0 0 0 0 0 0 0 
0 0 0 0 0 0 0 0 0 
0 0 0 0 0 0 0 0 0 
0 0 0 0 0 0 0 0 0 
0 0 0 0 0 0 0 0 0 
0 0 0 0 0 0 0 0 0 
0 0 0 1 0 0 0 0 0 
0 0 0 0 -1 0 0 0 0 
0 0 0 0 0 0 0 0 0 
0 0 0 0 0 0 0 0 0 
0 0 0 0 0 0 0 0 0 
0 0 0 0 -1 0 0 0 0 
0 0 0 0 0 0 0 0 0 
0 0 0 0 0 0 0 0 0 
0 0 0 0 0 0 0 0 0 
0 0 0 0 0 0 0 0 0 
0 0 0 0 0 0 0 0 0 
0 0 0 0 0 0 0 0 0 
0 0 0 0 0 0 0 0 0 
0 0 0 0 0 0 0 0 0 
0 0 0 0 0 0 0 0 0 
0 0 0 0 0 0 0 0 0 
0 0 0 0 0 0 0 0 0 
0 0 0 0 0 0 0 0 0 
0 0 0 0 0 0 0 0 0 
0 0 0 0 1 0 0 0 0 
0 0 0 0 0 0 0 0 0 
0 0 0 0 0 0 0 0 0 
0 0 0 0 0 0 0 0 0 
0 0 0 0 0 0 0 0 0 
0 0 0 0 0 0 0 0 0 
0 0 0 0 0 0 0 0 0 
0 0 0 0 0 0 0 0 0 
0 0 0 0 0 0 0 0 0 
0 0 0 0 0 0 0 1 0 
0 0 0 0 0 0 0 0 0 
0 0 0 0 0 0 0 0 0 
0 0 0 0 0 0 0 0 0 
0 0 0 0 0 0 0 0 0 
0 0 0 0 0 0 0 0 0 
0 0 0 0 0 0 0 0 0 
0 0 0 0 0 0 0 0 0 
0 0 0 0 0 0 0 0 0 
0 0 0 0 0 0 0 0 0 
0 0 0 0 0 0 0 0 0 
0 0 0 0 0 0 0 0 0 
0 0 0 0 0 0 0 0 0 
0 0 0 0 0 0 0 0 0 
0 0 0 0 0 0 0 0 0 
0 0 0 0 0 0 0 0 0 
0 0 0 0 0 0 0 0 0 
0 0 0 0 0 0 0 0 0 
0 0 0 -1 0 0 0 0 0 
0 0 0 0 0 0 0 0 0 
0 0 0 0 0 0 0 0 0 
0 0 0 0 0 0 0 0 0 
0 0 0 0 0 0 0 0 0 
0 0 0 0 0 0 0 0 0 
0 0 0 0 0 0 0 0 0 
0 0 0 0 0 0 0 0 0 
0 0 0 0 0 0 0 0 0 
0 0 0 0 0 0 0 0 0 
0 0 0 0 0 0 0 0 0 
0 0 0 0 0 0 0 0 0 
0 0 0 0 0 0 0 0 0 
0 0 0 0 0 0 0 0 0 
0 0 0 0 0 0 0 0 0 
0 0 0 0 0 0 0 0 0 
0 0 0 0 0 0 0 0 0 
0 0 0 0 0 0 0 0 0 
0 0 0 0 0 0 0 0 0 
0 0 0 0 0 0 0 0 0 
0 0 0 0 0 0 0 0 0 
0 0 0 0 0 0 0 0 0 
0 0 0 -1 0 0 0 0 0 
0 0 0 0 0 0 0 0 0 
0 0 0 0 0 0 0 0 0 
0 0 0 0 0 0 0 0 0 
0 0 0 0 0 0 0 0 0 
1 0 0 0 0 0 0 0 0 
0 0 0 0 0 0 0 0 0 
0 0 0 0 0 0 0 0 0 
0 0 0 0 0 0 0 0 0 
0 0 0 0 0 0 0 0 0 