# vtk DataFile Version 4.0
Generated by LIGGGHTS
ASCII
DATASET POLYDATA
POINTS 2000 float
-150.16 -148.305 9.91934 -161.694 -164.593 9.91877 -131.663 -155.791 9.91959 
-112.368 -150.705 9.9175 -51.0225 -143.735 9.91878 -29.4917 -148.362 9.91877 
-16.9058 -163.853 9.91877 38.0205 -153.722 9.91881 62.2233 -150.19 9.91878 
66.3338 -169.722 9.91896 86.2917 -169.481 9.91884 115.29 -159.146 9.91794 
160.429 -166.423 9.91959 -160.486 -131.231 9.91798 -56.4367 -122.5 9.91872 
-74.9435 -109.736 9.91913 39.0035 -133.786 9.91861 27.8512 -117.232 9.91951 
60.9375 -130.273 9.91878 56.9737 -110.711 9.91877 76.9275 -110.25 9.91877 
164.914 -120.162 9.91889 147.606 -110.234 9.91892 -147.782 -98.3306 9.91877 
-93.3772 -102.082 9.91877 -89.4479 -82.5139 9.91875 -27.0863 -90.4736 9.91878 
-12.366 -103.952 9.91877 7.42565 -106.533 9.91877 -0.23545 -88.1027 9.91876 
69.0349 -91.9174 9.91876 129.592 -101.657 9.91696 -158.652 -72.1394 9.91876 
-151.013 -53.6998 9.91875 -94.0978 -63.1042 9.91736 -75.1883 -56.7175 9.91866 
-55.8987 -51.5914 9.91879 -21.6142 -71.2792 9.91877 -37.3827 -59.0429 9.91877 
5.41415 -67.6468 9.91874 -10.0412 -55.0177 9.91876 42.5549 -56.2657 9.91894 
58.0091 -68.9089 9.9166 63.7059 -49.7888 9.91877 77.8914 -67.1584 9.91876 
164.591 -49.1528 9.91878 -168.087 -30.0354 9.91876 -112.905 -46.1555 9.91879 
-105.269 -27.7151 9.91878 -89.6089 -45.2089 17.532 -69.9833 -37.4493 9.91871 
-11.3763 -23.5057 9.91877 42.4365 -18.0704 9.91562 48.2696 -37.1479 9.91843 
82.0909 -42.0422 9.91556 145.037 -45.1489 9.91877 154.245 -26.639 9.91877 
-164.592 -10.3846 9.91781 -131.019 5.62563 9.91877 -68.0776 3.87494 9.91877 
-16.2406 -4.14832 9.91875 -33.6428 9.84784 9.90831 2.95552 -9.61439 9.91877 
111.625 8.4027 9.91255 138.331 -11.6176 9.91842 120.531 -7.5288 17.9595 
157.743 -6.98866 9.91861 170.517 8.34581 9.91802 -121.71 30.1096 9.91864 
-82.6142 34.3595 9.90619 -103.631 45.1051 9.91877 -20.7844 25.0857 9.91255 
-1.94053 18.5112 9.91849 29.0246 41.9571 9.91841 122.709 45.6137 9.91846 
-140.439 63.0325 9.91877 -156.977 74.2075 9.91877 -125.599 49.6862 9.91877 
-85.7853 54.0438 9.91041 -65.874 55.1475 9.90869 -75.6665 72.7673 12.3015 
-33.0114 47.4369 9.91388 20.4554 72.8527 9.91493 36.1906 60.5843 9.91718 
51.9736 51.7528 18.343 69.7202 55.2146 9.91293 107.923 62.1289 9.91878 
127.061 67.7955 9.91878 141.782 51.4917 9.91886 161.692 50.1199 9.91831 
152.926 68.0497 9.91851 -140.786 104.567 13.0283 -139.03 82.9418 9.91876 
-113.105 107.624 9.91886 -88.8881 101.52 9.91878 -71.2945 92.0953 9.91878 
-56.8656 105.886 9.91879 -19.749 98.334 9.9188 -37.0512 108.284 9.9188 
-11.8558 80.0021 9.91874 34.5149 86.9721 11.0722 108.784 103.289 9.9129 
-159.511 110.729 9.91855 -97.1915 119.67 9.91877 -7.64022 114.201 9.91873 
4.19002 134.975 9.91878 57.96 136.183 9.91876 83.0459 114.805 9.91875 
138.736 130.114 9.91877 163.676 117.387 9.91769 167.824 136.906 9.91642 
-143.191 169.916 9.91877 -166.527 158.044 9.91767 -124.367 163.273 9.9192 
0.861554 169.054 9.91877 20.0807 168.158 15.228 18.3988 148.992 9.91881 
42.3596 148.632 9.91861 39.3198 168.36 9.91878 81.6542 153.106 9.91878 
103.856 169.092 18.7583 120.861 163.512 9.91905 135.351 149.784 9.91679 
139.995 169.193 9.91789 155.6 156.208 9.91748 -165.938 -144.908 23.6838 
-154.535 -168.408 28.4149 -137.133 -157.852 30.7153 -125.189 -151.965 45.5823 
-113.872 -155.077 29.3338 -108.903 -140.613 47.6436 -102.479 -161.201 44.5346 
-82.4678 -140.445 24.7945 -74.4511 -168.12 44.5639 -60.9155 -154.048 48.6908 
-18.8205 -158.9 38.7761 8.54636 -142.275 24.7908 28.1166 -170.005 33.0905 
40.9837 -159.812 48.0056 21.338 -162.449 50.2712 49.0462 -155.735 30.2086 
85.6948 -162.669 49.146 116.342 -164.583 31.9168 141.333 -141.223 24.7964 
168.154 -163.378 28.0695 154.1 -165.563 49.8568 -163.878 -126.634 31.441 
-156.348 -113.903 44.8418 -129.657 -124.235 24.7971 -36.6564 -126.209 38.4827 
49.3422 -125.894 48.3842 91.5196 -138.299 24.7931 102.221 -114.901 48.4356 
117.718 -117.745 35.3673 162.379 -117.824 39.9785 144.73 -108.843 37.4811 
-160.648 -108.096 24.7861 -159.306 -87.7623 22.3229 -148.509 -95.7152 42.3667 
-162.717 -81.7591 41.0498 -57.8399 -83.1463 24.8 31.2961 -85.803 24.798 
100.534 -89.2213 24.8007 126.858 -91.2072 47.7063 170.605 -99.6504 39.3304 
-156.647 -53.8749 29.2208 -150.77 -61.1724 46.8438 -127.114 -74.4017 24.7913 
-95.6693 -59.9399 29.5584 -78.3134 -58.8498 39.3448 -62.9678 -48.8583 29.1192 
-39.1586 -54.2782 31.0387 -12.9384 -73.271 44.1932 67.4137 -57.274 44.0919 
101.483 -63.6163 48.5584 121.012 -68.9452 44.5644 137.168 -52.9445 47.7928 
148.796 -76.5417 24.7947 169.963 -54.634 41.9077 -109.678 -45.5192 33.8924 
-136.804 -25.4567 24.7964 -84.8905 -24.0486 22.7622 -102.568 -26.4693 31.7083 
-90.4944 -43.0424 38.8294 -72.4182 -34.077 38.6262 -43.5027 -20.1684 24.7868 
-17.6908 -44.4472 25.0222 -24.6567 -40.4107 46.141 16.6691 -38.1017 24.7961 
46.1888 -29.6418 41.4676 95.6238 -23.5121 48.9993 113.683 -41.0896 24.7965 
155.293 -23.1452 45.6891 -161.169 -2.24566 34.2022 -143.768 4.6193 41.1628 
-99.4679 7.64172 24.7978 -75.5261 -14.3985 37.5119 -72.1449 3.27759 46.1348 
-20.556 6.02923 27.625 -9.93984 -10.8724 27.6233 28.6012 10.3454 24.7972 
73.3916 -11.6505 24.7948 100.395 -4.12922 45.6555 86.5382 9.83912 49.0082 
107.846 13.8343 50.1452 110.382 4.20449 30.5172 168.09 9.3383 44.2934 
-153.08 34.0526 24.7949 -114.472 39.1687 26.1637 -87.7856 40.1807 29.8641 
-89.084 31.7182 47.8937 -54.6841 28.995 30.18 -22.7351 30.3337 44.2667 
26.8081 40.2808 42.7318 45.0295 40.0764 32.9534 93.2577 34.1198 24.7962 
124.031 43.4424 44.1604 141.081 19.8814 24.7933 164.587 28.3598 49.2169 
154.665 45.1038 44.7991 -167.731 65.5808 28.2936 -108.096 76.4058 24.7934 
-90.2125 53.6599 44.3829 -76.296 56.3023 27.3236 -43.3541 77.3047 24.8017 
-1.51769 50.1243 24.7968 38.9638 73.0408 42.8063 73.4309 55.8819 43.6175 
116.583 71.4504 31.493 134.318 62.5492 29.3484 138.609 56.3611 48.5144 
127.965 73.2285 47.7901 151.899 66.7264 37.8237 169.205 64.8329 47.5853 
-151.37 92.194 43.9452 -125.432 106.732 25.5915 10.9258 82.7739 24.3638 
2.27535 100.278 20.2251 84.3713 83.2184 24.8006 101.572 101.865 48.829 
113.007 86.0561 44.6198 139.711 96.7707 24.796 158.05 81.1869 50.1295 
-142.566 137.42 24.7972 -165.378 123.988 47.6061 -170.582 116.836 28.306 
-59.348 121.638 41.1824 -29.5533 137.177 31.6034 -20.7323 121.39 23.1578 
-2.77131 120.116 31.769 31.4485 118.959 24.7978 65.0656 111.685 30.9531 
82.8329 114.901 39.4583 107.48 134.868 24.7973 119.033 111.958 48.5067 
157.138 130.497 25.5082 -160.824 161.198 42.7392 -139.315 166.453 43.9651 
-125.826 167.758 29.3126 -117.23 167.031 47.3117 -94.4215 153.118 24.7935 
-68.8332 154.451 48.5524 -46.4843 166.974 24.7912 -0.344931 153.573 41.5524 
30.4563 153.882 25.054 61.928 155.349 40.1669 95.1577 165.456 36.3512 
120.446 156.977 48.5462 140.258 164.405 41.9829 146.674 148.149 26.2681 
151.752 167.448 25.9518 166.584 149.304 25.5024 161.303 159.722 41.6788 
-157.949 -149.232 57.4242 -114.567 -160.121 60.3804 -126.457 -149.697 72.5584 
-132.461 -168.696 71.3009 -99.1666 -152.08 70.2048 -86.25 -156.435 55.6306 
-67.5181 -167.321 63.263 -18.9787 -150.194 56.7354 -41.7635 -168.051 69.412 
-38.7313 -148.803 65.0632 -15.9816 -166.653 68.4975 0.820176 -148.245 58.3405 
0.724488 -158.328 75.5655 19.6699 -141.697 57.9096 67.8545 -155.028 53.7965 
81.617 -153.115 75.4318 83.4071 -142.712 58.4923 78.8657 -170.572 66.1564 
115.549 -154.561 65.3812 149.126 -148.112 58.1549 -171.014 -126.189 80.2134 
-125.634 -135.941 57.473 -117.896 -132.915 79.1745 -101.504 -132.805 65.5836 
-68.6064 -135.255 77.1015 -43.9026 -111.158 71.6238 0.253374 -115.408 70.2711 
70.4516 -136.627 74.0769 91.2548 -130.35 72.0558 107.797 -120.518 66.7586 
125.648 -110.609 52.2283 126.518 -122.377 73.4247 135.599 -127.402 56.3741 
155.516 -136.663 73.1978 155.363 -129.498 54.5686 -159.786 -79.1604 64.7264 
-139.768 -106.05 74.5799 -122.471 -80.0083 58.9683 -95.292 -100.996 52.5278 
-60.556 -104.707 52.1635 -64.2484 -86.3231 59.0018 -42.9406 -95.4955 53.886 
-20.424 -87.6698 75.1334 -37.9115 -81.8298 67.5078 -0.979863 -80.9802 76.1171 
33.837 -78.7133 74.1233 51.0424 -108.767 78.785 82.7807 -96.4727 70.8718 
110.603 -80.4605 57.0911 118.616 -96.9507 64.9625 114.172 -83.4214 78.9467 
153.229 -98.034 69.6027 -141.906 -76.3045 56.3737 -132.97 -69.4535 72.8397 
-125.089 -59.7267 56.438 -114.352 -49.9718 70.1478 -102.836 -52.1719 51.5829 
-106.836 -72.1967 68.6052 -89.2862 -66.6094 54.1035 -95.2249 -55.6592 69.6998 
-78.2653 -74.9872 68.4822 -53.5557 -50.967 62.7042 90.024 -62.2944 70.2579 
111.455 -65.6006 70.3811 119.508 -53.0755 57.0932 131.025 -72.3008 61.5004 
129.062 -57.0022 74.1671 149.379 -65.3407 57.8873 168.034 -70.8404 53.4033 
165.607 -52.6615 61.2827 169.281 -67.3534 74.2754 -146.898 -37.4177 72.1745 
-119.621 -41.4081 50.7039 -95.426 -20.9747 65.4683 41.9603 -45.922 65.1738 
23.2163 -43.8747 58.6297 64.3111 -27.4044 61.9552 83.658 -32.2947 62.3422 
98.0966 -45.3204 55.7821 116.479 -24.5292 77.0145 151.177 -22.1567 80.377 
-154.513 -10.6596 51.033 -122.864 10.09 50.6349 -138.908 3.46501 60.4868 
-128.075 -12.7266 56.1441 -126.435 -9.46846 76.7454 -116.84 6.36926 69.296 
-101.265 13.6691 59.1708 -47.8472 2.07521 51.3813 -55.5765 -12.1438 63.0621 
-43.8394 -8.79899 78.8552 -14.5293 -1.97353 61.0997 33.6596 -12.1921 69.0258 
66.1478 -5.05643 58.3289 67.7592 -12.8719 76.6151 84.4812 -12.3819 61.2601 
86.7129 4.89277 71.0055 126.066 6.30989 53.2762 112.977 9.27321 68.8866 
162.707 -6.59438 75.5559 143.466 -2.9883 71.6648 -135.218 16.0937 75.496 
-119.498 43.4478 60.4762 -101.302 19.4947 78.2637 -84.6534 43.9544 63.0268 
-66.4069 17.8362 77.3738 -6.88708 34.5891 55.6306 11.8506 41.4621 55.8956 
60.6588 29.2237 62.2526 95.3465 26.712 58.8797 139.43 31.6838 73.238 
-128.796 76.7262 65.6733 -104.81 69.1794 78.9926 -33.3385 53.943 67.7418 
8.95453 61.2078 56.2357 0.57053 46.8256 72.2631 13.3911 71.0135 73.0445 
-5.20673 70.452 80.2679 33.7475 71.3077 77.3137 64.5304 63.8596 64.7666 
[...]
POINT_DATA 2000
FIELD FieldData 7
id 1 2000 int
428 203 332 284 211 249 255 417 240 
261 419 380 82 224 355 389 241 183 
196 333 105 360 281 109 184 295 309 
160 285 298 420 217 205 317 139 79 
103 293 233 158 446 226 319 358 357 
302 352 426 140 444 280 435 276 369 
398 406 429 121 388 112 127 88 439 
154 227 337 204 371 142 187 297 464 
172 418 308 450 157 459 269 221 403 
252 104 185 222 323 407 201 294 384 
336 266 455 136 147 141 167 90 93 
395 197 390 451 278 272 300 216 273 
171 405 311 289 381 130 432 256 394 
248 94 433 206 174 177 198 98 365 
124 251 84 258 422 461 74 378 77 
242 5 283 243 150 342 100 162 43 
102 370 244 117 42 3 57 33 460 
368 238 339 437 125 321 138 31 65 
72 374 210 152 397 53 359 316 99 
83 55 29 412 331 341 38 202 349 
27 263 415 448 129 9 377 463 15 
366 155 62 69 452 220 51 218 126 
214 268 47 12 163 231 362 379 404 
44 186 80 134 11 396 135 279 48 
169 21 170 161 116 56 239 107 13 
17 75 192 327 195 465 329 209 245 
4 340 322 434 73 375 391 28 364 
35 146 110 60 306 393 343 19 215 
427 63 410 345 250 208 97 402 6 
361 71 16 290 58 76 454 120 351 
86 81 401 70 442 392 164 194 200 
303 78 1479 363 1146 113 1945 292 131 
307 286 301 32 277 199 386 858 430 
34 149 10 458 114 305 87 207 156 
936 190 1837 8 423 14 409 310 228 
85 425 318 67 253 20 144 447 443 
39 123 287 236 905 182 376 411 89 
291 41 372 188 148 1063 225 237 328 
1170 829 49 246 46 350 414 438 181 
408 30 1607 275 353 271 346 1097 159 
132 234 213 96 7 66 264 288 92 
1593 457 413 1493 436 1969 54 108 344 
36 324 270 22 456 40 267 122 1 
151 400 193 431 348 330 1413 23 232 
387 1682 176 25 175 230 421 50 165 
91 262 296 101 338 1954 106 153 137 
115 367 299 61 64 462 173 212 259 
37 143 325 1924 274 424 189 24 265 
1233 335 133 356 1173 1189 445 334 453 
314 382 313 168 347 52 1601 1802 111 
440 145 219 941 235 441 191 1053 969 
1530 1788 1703 1312 1636 1045 704 1605 1846 
1843 68 1866 312 1721 723 789 988 1787 
1194 1176 1739 1627 1206 1464 1398 1229 1532 
1827 1875 260 552 975 118 631 1023 1442 
915 326 1010 1753 95 1118 1128 620 504 
1940 229 119 1354 946 899 257 1042 1942 
1710 1892 1252 986 1214 1722 166 1955 989 
1602 883 1646 1393 399 416 1724 1914 507 
733 1756 1218 128 1894 45 179 247 1762 
59 1885 887 810 672 1473 1139 852 1564 
1740 304 1633 1979 747 695 1198 628 1159 
1589 354 1080 1622 913 26 1340 254 971 
1568 669 1868 1488 1296 1425 2 1337 1920 
812 1697 476 373 1191 925 1279 1662 987 
449 619 1900 485 1371 1559 1965 597 385 
1179 282 1445 775 1864 788 877 223 1106 
1898 1661 178 964 1776 1990 1804 1030 1566 
1086 1653 621 1182 1637 1440 1246 776 18 
320 466 1008 579 1408 1546 1694 932 1832 
1033 1092 1481 1184 1938 1781 180 1612 934 
1982 315 1400 822 1282 1676 687 1790 711 
1714 860 1292 1303 1151 1456 1280 1814 1055 
1462 808 577 1253 790 1854 717 1200 491 
1137 1104 996 574 857 912 1927 690 557 
1338 1931 1484 791 649 1417 709 675 1289 
1877 1477 1572 1669 782 1922 940 551 383 
571 1992 1309 750 955 472 641 1962 950 
1963 825 1658 894 1348 515 1995 1582 1614 
1083 859 1487 625 798 999 518 1454 895 
1939 787 608 613 1548 1671 1976 1114 1476 
1968 1014 882 1003 556 1735 838 866 980 
1800 1806 1277 1286 661 757 1224 1256 781 
480 1329 1505 944 698 1217 1901 1035 1536 
1826 1457 1925 706 1860 1571 848 1897 1402 
903 593 984 1459 1947 726 981 512 797 
1667 1438 494 1839 1986 753 1861 1364 1446 
535 1245 1140 734 1785 1351 1666 659 1933 
1640 1610 1380 1132 992 1435 665 953 1311 
807 901 1050 1334 1838 1377 1331 956 2000 
1551 1465 549 500 1544 1673 1270 1623 479 
1060 863 1911 823 990 960 978 1603 640 
1254 471 1754 1416 949 754 1406 1718 1448 
1098 490 1579 942 802 1905 1436 1896 1089 
1893 931 1503 1415 1750 1161 1049 1539 1527 
985 1685 1934 1187 1887 1046 1842 1704 1326 
1238 622 918 824 1069 1240 1775 868 524 
553 1403 1599 1554 1195 1002 1908 609 983 
1232 1048 1199 1241 1871 1291 1634 713 1734 
483 1613 774 703 481 1081 1929 1975 1463 
1319 473 1394 1157 1373 1741 1129 502 1295 
539 1012 1983 1833 1153 862 1381 694 1472 
547 1149 1881 1906 1596 477 1913 1784 880 
714 973 1469 1526 1345 1737 1600 1318 766 
1410 947 1512 1510 991 1249 917 1271 1205 
662 1285 525 1624 1174 879 1360 658 544 
1700 1547 1594 660 1586 1196 1359 1293 1219 
836 1028 1409 1061 1521 1084 1186 1895 1065 
508 761 1973 572 584 1577 1807 1391 495 
1899 1560 702 554 469 1997 684 1715 1902 
1323 496 865 1203 1872 1006 1365 834 1590 
506 542 1683 486 1977 1486 519 1220 1746 
1399 1344 1180 1369 671 596 786 654 1397 
909 1972 1857 642 979 1628 1105 997 1148 
1202 1386 505 1154 844 1222 1581 520 1067 
1930 1223 1315 1226 1518 586 1654 1767 1274 
1130 1904 623 762 567 907 1793 864 1889 
1745 513 1619 1166 1313 1499 1760 1255 487 
645 1565 1038 1470 847 1643 1082 760 1562 
718 587 832 1444 933 843 1126 1136 1859 
1037 1820 1844 1772 611 1584 1691 923 1731 
1651 1492 1711 1698 538 1047 1949 1119 1070 
1520 1845 741 1641 1639 820 688 1434 1261 
1424 1757 749 1264 1164 1290 1523 1852 821 
1932 799 772 732 1123 1474 886 1987 1789 
794 963 1778 1094 916 644 1805 954 1299 
982 720 818 484 1272 1870 1263 1801 1621 
1236 1795 746 1306 1668 1325 1529 1374 1960 
1829 816 1355 1508 1405 696 1498 1181 770 
1043 1138 707 977 1550 785 976 1684 1828 
1414 1670 627 1093 773 1471 1743 994 1903 
962 1891 1310 1915 1514 1125 1597 1952 634 
1251 1783 1935 1553 1873 972 1841 1110 1239 
1815 1575 1443 1491 1650 1052 1999 1044 1967 
1040 1197 1496 618 1131 653 908 809 830 
1029 1335 1375 1269 546 1362 861 1017 870 
612 1725 1383 1797 1576 1890 1674 1162 1729 
1758 1774 1850 1779 475 1910 543 993 1429 
1923 1322 1489 635 1552 529 1155 685 1657 
651 1948 1260 603 1917 1025 1183 1062 664 
1759 1644 1921 1822 1755 615 872 1208 1749 
1771 679 1142 1645 764 1504 1133 1288 1107 
1076 1167 828 566 1117 1165 1382 1461 948 
1347 742 1273 970 691 1821 902 1500 1420 
1022 1516 560 1549 1966 578 1629 1237 1808 
510 1534 1366 1497 638 763 1770 1573 630 
503 1352 558 1958 1210 548 1538 1168 724 
767 670 1235 1298 854 1308 1971 1587 1390 
1231 1502 1230 1609 1719 1689 489 1088 900 
674 1330 1631 737 498 1054 744 884 705 
1617 1247 1090 1782 591 643 1946 1216 516 
1212 534 1466 1768 1302 892 1287 1278 1441 
1085 569 878 813 1830 876 855 1709 965 
1537 1696 633 1591 650 1638 1068 1495 1079 
888 1991 845 1912 967 1752 1847 841 1396 
550 1541 1353 1387 1981 1728 666 1540 536 
478 1100 639 1349 1712 1699 827 839 1595 
1389 873 1257 1738 564 1346 1234 1626 1988 
867 1511 1431 1121 1961 497 1585 740 1616 
1451 1855 1268 1101 1421 1358 1095 924 1944 
1367 626 1091 881 1705 869 1519 1485 1819 
1888 722 1567 1517 482 1192 831 1515 1777 
889 1736 851 1468 656 1574 1543 1834 575 
1213 891 1555 1792 533 1243 1201 846 1531 
835 1327 1730 1957 673 1708 1019 1799 815 
1056 1665 468 1011 1265 939 511 1120 1803 
795 1611 1525 605 1158 1675 1031 1592 1428 
719 1026 1936 765 1449 1835 1009 576 1057 
1649 914 537 1314 521 1882 1909 768 1786 
1765 922 1840 1259 1372 607 966 636 748 
632 1074 1363 589 598 1171 1680 1570 1317 
1848 1113 1659 898 522 1032 683 1156 689 
1439 1077 1677 501 1695 897 1301 1284 585 
850 1385 806 1102 1535 1943 1021 751 1075 
1242 1324 1615 716 1791 1918 1341 974 499 
1430 1951 594 678 959 1475 1426 1994 1283 
1713 1275 1209 682 1569 1000 1672 1211 1836 
1606 745 1221 1141 1172 769 958 759 1656 
699 545 610 739 1294 663 951 1655 1702 
614 1761 604 1001 680 1604 929 1127 801 
1825 1720 1542 998 842 1321 1458 1147 1276 
715 1561 1688 943 1563 1798 1652 493 1116 
600 562 624 1959 541 1096 588 777 1175 
1824 1143 676 1073 1407 1034 1751 1225 1648 
1647 1588 1625 871 893 1258 1813 1984 1858 
581 617 1066 1112 1701 1748 1392 796 708 
1524 1078 1707 1869 961 1087 817 1879 1818 
1660 890 1865 1733 1036 1455 1876 803 532 
1874 906 957 1993 1300 1742 1686 1886 1051 
701 527 1706 1356 1941 1996 904 738 1937 
1766 1528 1024 646 526 1248 1244 1692 602 
1145 755 783 926 1342 1207 1452 1919 1884 
756 833 1447 1215 1583 1467 601 1185 1796 
492 1478 1880 1204 1620 1111 488 1811 1339 
1989 1727 1316 648 1058 1856 1453 1998 1297 
1432 563 1376 1744 1368 568 467 1404 1507 
885 725 1262 1103 735 771 531 1433 837 
1687 606 1916 1513 1450 1716 1041 1974 559 
1663 1401 729 1863 710 599 1642 1883 911 
1978 1690 1907 1177 1020 1395 1015 1763 811 
826 1664 1810 721 668 1794 1853 1747 928 
1134 1412 528 1227 1388 517 1004 629 784 
1950 1849 1027 896 731 555 1608 1545 727 
692 1152 736 1144 1228 952 1411 1953 819 
1867 1163 1501 1384 778 595 1099 1039 1773 
920 1328 1726 1190 1115 590 804 693 580 
1281 652 474 1007 1769 1681 1419 919 849 
1494 1016 1679 1378 1557 655 1336 1862 910 
1370 1350 937 1598 681 945 1357 1635 1816 
1812 1964 540 780 779 1717 1764 1267 935 
1437 1160 1427 1266 583 1851 1379 1150 1305 
1578 1928 1556 1956 1071 1780 667 1732 1072 
1809 853 856 1693 1320 1985 1483 1678 509 
1618 1533 530 1059 686 1423 1480 1558 1005 
1304 875 930 1630 728 1343 1188 1460 800 
805 995 1817 582 657 1178 758 1580 840 
565 1135 1013 570 792 968 1509 647 921 
1422 523 1064 1823 1831 874 1122 616 814 
700 1970 677 1018 1307 927 1250 938 1332 
1169 1522 592 743 514 752 1109 1482 1980 
1723 1193 1418 1333 712 573 1490 793 637 
1108 561 1506 1124 730 1878 1926 1632 697 
1361 470 
type 1 2000 int
1 1 1 1 1 1 1 1 1 
1 1 1 1 1 1 1 1 1 
1 1 1 1 1 1 1 1 1 
1 1 1 1 1 1 1 1 1 
1 1 1 1 1 1 1 1 1 
1 1 1 1 1 1 1 1 1 
1 1 1 1 1 1 1 1 1 
1 1 1 1 1 1 1 1 1 
1 1 1 1 1 1 1 1 1 
1 1 1 1 1 1 1 1 1 
1 1 1 1 1 1 1 1 1 
1 1 1 1 1 1 1 1 1 
1 1 1 1 1 1 1 1 1 
1 1 1 1 1 1 1 1 1 
1 1 1 1 1 1 1 1 1 
1 1 1 1 1 1 1 1 1 
1 1 1 1 1 1 1 1 1 
1 1 1 1 1 1 1 1 1 
1 1 1 1 1 1 1 1 1 
1 1 1 1 1 1 1 1 1 
1 1 1 1 1 1 1 1 1 
1 1 1 1 1 1 1 1 1 
1 1 1 1 1 1 1 1 1 
1 1 1 1 1 1 1 1 1 
1 1 1 1 1 1 1 1 1 
1 1 1 1 1 1 1 1 1 
1 1 1 1 1 1 1 1 1 
1 1 1 1 1 1 1 1 1 
1 1 1 1 1 1 1 1 1 
1 1 1 1 1 1 1 1 1 
1 1 1 1 1 1 1 1 1 
1 1 1 1 1 1 1 1 1 
1 1 1 1 1 1 1 1 1 
1 1 1 1 1 1 1 1 1 
1 1 1 1 1 1 1 1 1 
1 1 1 1 1 1 1 1 1 
1 1 1 1 1 1 1 1 1 
1 1 1 1 1 1 1 1 1 
1 1 1 1 1 1 1 1 1 
1 1 1 1 1 1 1 1 1 
1 1 1 1 1 1 1 1 1 
1 1 1 1 1 1 1 1 1 
1 1 1 1 1 1 1 1 1 
1 1 1 1 1 1 1 1 1 
1 1 1 1 1 1 1 1 1 
1 1 1 1 1 1 1 1 1 
1 1 1 1 1 1 1 1 1 
1 1 1 1 1 1 1 1 1 
1 1 1 1 1 1 1 1 1 
1 1 1 1 1 1 1 1 1 
1 1 1 1 1 1 1 1 1 
1 1 1 1 1 1 1 1 1 
1 1 1 1 1 1 1 1 1 
1 1 1 1 1 1 1 1 1 
1 1 1 1 1 1 1 1 1 
1 1 1 1 1 1 1 1 1 
1 1 1 1 1 1 1 1 1 
1 1 1 1 1 1 1 1 1 
1 1 1 1 1 1 1 1 1 
1 1 1 1 1 1 1 1 1 
1 1 1 1 1 1 1 1 1 
1 1 1 1 1 1 1 1 1 
1 1 1 1 1 1 1 1 1 
1 1 1 1 1 1 1 1 1 
1 1 1 1 1 1 1 1 1 
1 1 1 1 1 1 1 1 1 
1 1 1 1 1 1 1 1 1 
1 1 1 1 1 1 1 1 1 
1 1 1 1 1 1 1 1 1 
1 1 1 1 1 1 1 1 1 
1 1 1 1 1 1 1 1 1 
1 1 1 1 1 1 1 1 1 
1 1 1 1 1 1 1 1 1 
1 1 1 1 1 1 1 1 1 
1 1 1 1 1 1 1 1 1 
1 1 1 1 1 1 1 1 1 
1 1 1 1 1 1 1 1 1 
1 1 1 1 1 1 1 1 1 
1 1 1 1 1 1 1 1 1 
1 1 1 1 1 1 1 1 1 
1 1 1 1 1 1 1 1 1 
1 1 1 1 1 1 1 1 1 
1 1 1 1 1 1 1 1 1 
1 1 1 1 1 1 1 1 1 
1 1 1 1 1 1 1 1 1 
1 1 1 1 1 1 1 1 1 
1 1 1 1 1 1 1 1 1 
1 1 1 1 1 1 1 1 1 
1 1 1 1 1 1 1 1 1 
1 1 1 1 1 1 1 1 1 
1 1 1 1 1 1 1 1 1 
1 1 1 1 1 1 1 1 1 
1 1 1 1 1 1 1 1 1 
1 1 1 1 1 1 1 1 1 
1 1 1 1 1 1 1 1 1 
1 1 1 1 1 1 1 1 1 
1 1 1 1 1 1 1 1 1 
1 1 1 1 1 1 1 1 1 
1 1 1 1 1 1 1 1 1 
1 1 1 1 1 1 1 1 1 
1 1 1 1 1 1 1 1 1 
1 1 1 1 1 1 1 1 1 
1 1 1 1 1 1 1 1 1 
1 1 1 1 1 1 1 1 1 
1 1 1 1 1 1 1 1 1 
1 1 1 1 1 1 1 1 1 
1 1 1 1 1 1 1 1 1 
1 1 1 1 1 1 1 1 1 
1 1 1 1 1 1 1 1 1 
1 1 1 1 1 1 1 1 1 
1 1 1 1 1 1 1 1 1 
1 1 1 1 1 1 1 1 1 
1 1 1 1 1 1 1 1 1 
1 1 1 1 1 1 1 1 1 
1 1 1 1 1 1 1 1 1 
1 1 1 1 1 1 1 1 1 
1 1 1 1 1 1 1 1 1 
1 1 1 1 1 1 1 1 1 
1 1 1 1 1 1 1 1 1 
1 1 1 1 1 1 1 1 1 
1 1 1 1 1 1 1 1 1 
1 1 1 1 1 1 1 1 1 
1 1 1 1 1 1 1 1 1 
1 1 1 1 1 1 1 1 1 
1 1 1 1 1 1 1 1 1 
1 1 1 1 1 1 1 1 1 
1 1 1 1 1 1 1 1 1 
1 1 1 1 1 1 1 1 1 
1 1 1 1 1 1 1 1 1 
1 1 1 1 1 1 1 1 1 
1 1 1 1 1 1 1 1 1 
1 1 1 1 1 1 1 1 1 
1 1 1 1 1 1 1 1 1 
1 1 1 1 1 1 1 1 1 
1 1 1 1 1 1 1 1 1 
1 1 1 1 1 1 1 1 1 
1 1 1 1 1 1 1 1 1 
1 1 1 1 1 1 1 1 1 
1 1 1 1 1 1 1 1 1 
1 1 1 1 1 1 1 1 1 
1 1 1 1 1 1 1 1 1 
1 1 1 1 1 1 1 1 1 
1 1 1 1 1 1 1 1 1 
1 1 1 1 1 1 1 1 1 
1 1 1 1 1 1 1 1 1 
1 1 1 1 1 1 1 1 1 
1 1 1 1 1 1 1 1 1 
1 1 1 1 1 1 1 1 1 
1 1 1 1 1 1 1 1 1 
1 1 1 1 1 1 1 1 1 
1 1 1 1 1 1 1 1 1 
1 1 1 1 1 1 1 1 1 
1 1 1 1 1 1 1 1 1 
1 1 1 1 1 1 1 1 1 
1 1 1 1 1 1 1 1 1 
1 1 1 1 1 1 1 1 1 
1 1 1 1 1 1 1 1 1 
1 1 1 1 1 1 1 1 1 
1 1 1 1 1 1 1 1 1 
1 1 1 1 1 1 1 1 1 
1 1 1 1 1 1 1 1 1 
1 1 1 1 1 1 1 1 1 
1 1 1 1 1 1 1 1 1 
1 1 1 1 1 1 1 1 1 
1 1 1 1 1 1 1 1 1 
1 1 1 1 1 1 1 1 1 
1 1 1 1 1 1 1 1 1 
1 1 1 1 1 1 1 1 1 
1 1 1 1 1 1 1 1 1 
1 1 1 1 1 1 1 1 1 
1 1 1 1 1 1 1 1 1 
1 1 1 1 1 1 1 1 1 
1 1 1 1 1 1 1 1 1 
1 1 1 1 1 1 1 1 1 
1 1 1 1 1 1 1 1 1 
1 1 1 1 1 1 1 1 1 
1 1 1 1 1 1 1 1 1 
1 1 1 1 1 1 1 1 1 
1 1 1 1 1 1 1 1 1 
1 1 1 1 1 1 1 1 1 
1 1 1 1 1 1 1 1 1 
1 1 1 1 1 1 1 1 1 
1 1 1 1 1 1 1 1 1 
1 1 1 1 1 1 1 1 1 
1 1 1 1 1 1 1 1 1 
1 1 1 1 1 1 1 1 1 
1 1 1 1 1 1 1 1 1 
1 1 1 1 1 1 1 1 1 
1 1 1 1 1 1 1 1 1 
1 1 1 1 1 1 1 1 1 
1 1 1 1 1 1 1 1 1 
1 1 1 1 1 1 1 1 1 
1 1 1 1 1 1 1 1 1 
1 1 1 1 1 1 1 1 1 
1 1 1 1 1 1 1 1 1 
1 1 1 1 1 1 1 1 1 
1 1 1 1 1 1 1 1 1 
1 1 1 1 1 1 1 1 1 
1 1 1 1 1 1 1 1 1 
1 1 1 1 1 1 1 1 1 
1 1 1 1 1 1 1 1 1 
1 1 1 1 1 1 1 1 1 
1 1 1 1 1 1 1 1 1 
1 1 1 1 1 1 1 1 1 
1 1 1 1 1 1 1 1 1 
1 1 1 1 1 1 1 1 1 
1 1 1 1 1 1 1 1 1 
1 1 1 1 1 1 1 1 1 
1 1 1 1 1 1 1 1 1 
1 1 1 1 1 1 1 1 1 
1 1 1 1 1 1 1 1 1 
1 1 1 1 1 1 1 1 1 
1 1 1 1 1 1 1 1 1 
1 1 1 1 1 1 1 1 1 
1 1 1 1 1 1 1 1 1 
1 1 1 1 1 1 1 1 1 
1 1 1 1 1 1 1 1 1 
1 1 1 1 1 1 1 1 1 
1 1 1 1 1 1 1 1 1 
1 1 1 1 1 1 1 1 1 
1 1 1 1 1 1 1 1 1 
1 1 1 1 1 1 1 1 1 
1 1 
i 3 2000 int
0 0 0 0 0 0 0 0 0 
0 0 0 0 0 0 0 0 0 
0 1 0 0 0 0 0 0 0 
0 1 0 0 1 0 0 0 0 
0 0 0 0 0 0 0 0 0 
0 0 0 0 0 0 0 0 0 
0 0 0 0 0 0 0 0 0 
0 0 0 0 0 0 0 0 0 
0 0 0 0 0 0 0 0 0 
0 0 0 0 0 0 0 0 0 
0 0 0 0 0 0 0 0 0 
0 0 0 0 0 0 0 0 0 
0 0 0 0 0 0 0 0 0 
0 0 0 0 0 0 0 0 0 
0 0 0 0 0 0 0 0 0 
0 0 0 0 0 0 0 0 0 
0 0 0 0 0 0 0 0 0 
0 0 0 0 0 0 0 0 0 
0 0 0 0 0 0 0 0 0 
1 0 0 0 0 0 0 0 0 
0 0 0 0 0 0 0 0 0 
0 0 0 0 0 0 0 0 0 
0 0 0 0 0 0 0 0 0 
0 0 0 0 0 0 0 0 0 
0 0 0 0 0 0 0 0 0 
0 0 0 0 0 0 0 0 0 
0 0 0 0 0 0 0 0 0 
0 0 0 0 0 0 0 0 0 
0 0 0 0 0 0 0 0 0 
0 0 0 0 0 0 0 0 0 
0 0 0 0 0 0 0 0 0 
0 0 0 0 0 0 0 0 0 
0 0 0 0 0 0 0 0 0 
0 0 0 0 0 0 0 0 0 
0 0 0 0 0 0 0 0 0 
0 0 0 0 0 0 0 0 0 
0 0 0 0 0 0 0 0 0 
0 0 0 0 0 0 0 0 0 
0 0 0 0 -1 0 0 0 0 
0 0 0 0 0 0 0 0 0 
0 0 0 0 0 0 0 0 0 
0 -1 0 0 0 0 1 0 0 
0 1 0 0 1 0 0 0 0 
0 0 0 0 0 0 0 0 0 
0 0 0 0 0 0 0 0 0 
0 0 0 0 0 0 0 0 0 
0 0 0 0 0 0 0 1 0 
0 0 0 0 1 0 0 0 0 
0 0 0 -1 1 0 0 0 0 
0 0 0 0 0 0 0 0 0 
0 0 0 0 0 0 0 0 0 
0 0 0 0 0 0 0 0 0 
0 0 0 0 0 0 0 0 0 
0 0 0 0 0 0 0 0 0 
0 0 0 0 0 0 0 0 0 
0 0 0 0 0 0 0 0 0 
0 0 0 0 0 0 0 0 0 
0 0 0 0 0 0 0 0 0 
0 0 0 0 0 0 0 0 0 
0 0 0 0 0 0 0 0 0 
0 0 0 0 0 0 0 0 0 
0 0 0 0 0 0 0 0 0 
0 0 0 0 0 0 0 0 0 
0 0 0 0 0 0 0 0 0 
0 0 0 0 0 0 0 0 0 
0 0 0 0 0 0 0 0 0 
0 0 0 0 0 0 0 0 0 
0 0 0 0 0 0 0 0 0 
0 0 0 0 0 0 0 0 0 
0 0 0 0 0 0 0 0 0 
0 0 0 0 0 0 0 0 0 
0 0 0 0 0 0 0 0 0 
0 0 0 0 0 0 0 0 0 
0 0 0 0 0 0 0 0 0 
0 0 0 0 0 0 0 0 0 
0 0 0 0 0 0 0 0 0 
0 0 0 0 0 0 0 0 0 
0 0 0 0 0 0 -1 0 0 
0 0 0 0 0 0 0 0 0 
0 0 0 0 0 0 0 0 0 
0 0 0 0 0 0 0 0 0 
0 0 0 0 0 0 0 0 0 
0 0 0 0 0 0 0 0 0 
0 0 0 0 0 0 0 0 0 
0 0 0 0 0 0 0 0 0 
0 0 0 0 0 0 0 0 0 
0 0 0 0 0 0 0 0 0 
0 0 0 0 0 0 0 0 0 
0 0 0 0 0 0 0 0 0 
0 0 0 0 0 0 0 0 0 
0 0 0 0 0 0 0 0 0 
0 0 0 0 0 0 0 0 0 
0 0 0 0 0 0 0 0 0 
0 0 0 0 0 0 0 0 0 
0 0 0 0 1 0 0 0 0 
0 0 0 0 0 0 0 0 0 
0 0 0 0 0 0 0 1 0 
0 0 0 0 0 0 0 0 0 
0 0 0 0 0 0 0 0 0 
0 0 0 0 0 0 0 0 0 
0 0 0 0 0 0 0 0 0 
0 0 0 0 0 0 0 0 0 
0 0 0 0 0 0 0 0 0 
0 0 0 0 0 0 0 0 0 
0 0 0 0 0 0 0 0 0 
0 0 0 0 0 0 0 0 0 
0 0 0 0 0 0 0 0 0 
0 0 0 0 0 0 0 0 0 
0 0 0 0 0 0 0 0 0 
0 0 0 0 0 0 0 0 0 
0 0 0 0 0 0 0 0 0 
0 0 0 0 0 0 0 0 0 
0 0 0 0 0 0 0 0 0 
0 0 0 0 0 0 0 0 0 
0 0 0 0 0 0 0 0 0 
0 0 0 0 0 0 0 0 0 
0 0 0 0 0 0 0 0 0 
0 0 0 0 0 0 0 0 0 
0 0 0 0 0 0 0 0 0 
0 0 0 0 0 0 0 0 0 
0 0 0 0 0 0 0 0 0 
0 0 0 0 0 0 0 0 0 
0 0 0 0 0 0 0 0 0 
0 0 0 0 0 0 0 0 0 
0 0 0 0 0 0 0 0 0 
0 0 0 0 0 0 0 0 0 
0 0 0 0 0 0 0 0 0 
0 0 0 0 0 0 0 0 0 
0 0 0 0 0 0 0 0 0 
0 0 0 0 0 0 0 0 0 
0 0 0 0 0 0 0 0 0 
0 0 0 0 0 0 0 0 0 
0 0 0 0 0 0 0 0 0 
0 0 0 0 0 0 0 0 0 
0 0 0 0 0 0 0 0 0 
0 0 0 0 0 0 0 0 0 
0 0 0 0 0 0 0 0 0 
0 0 0 0 0 0 0 0 0 
-1 0 0 0 0 0 0 0 0 
0 0 0 0 0 0 0 0 0 
0 0 0 0 0 0 0 0 0 
0 0 0 0 0 0 0 0 0 
0 0 0 0 0 0 0 0 0 
0 0 0 0 0 0 0 0 0 
0 0 0 0 0 0 0 0 0 
0 0 0 0 0 0 0 0 0 
0 0 0 0 0 0 0 0 0 
0 0 0 0 0 0 0 0 0 
0 0 0 0 0 0 0 0 0 
0 0 0 0 -1 0 0 0 0 
0 0 0 0 0 0 0 0 0 
0 0 0 0 0 0 0 0 0 
-1 0 0 0 0 0 0 0 0 
1 0 0 0 0 0 0 0 0 
0 0 0 0 0 0 0 0 0 
0 0 0 0 0 0 0 1 0 
0 0 0 0 0 0 0 0 0 
0 0 0 0 0 0 0 0 0 
0 0 0 0 0 0 0 0 0 
0 0 0 0 0 0 0 0 0 
0 0 0 0 0 0 0 0 0 
0 0 0 0 0 0 0 0 0 
0 0 0 0 0 0 0 0 0 
0 0 0 0 0 0 0 0 0 
0 0 0 0 0 0 0 0 0 
0 0 0 0 0 0 0 0 0 
0 0 0 0 0 0 0 0 0 
0 0 0 0 0 0 0 0 0 
0 0 0 0 0 0 0 0 0 
0 0 0 0 0 0 0 0 0 
0 0 0 0 0 0 0 0 0 
-1 0 0 0 0 0 0 0 0 
0 0 0 0 0 0 0 0 0 
0 0 0 0 0 0 0 0 0 
0 0 0 0 0 0 0 0 0 
0 0 0 0 0 0 0 0 0 
0 0 0 0 0 0 0 0 0 
0 0 0 1 0 0 0 0 0 
0 0 0 0 0 0 0 0 0 
0 0 0 0 0 0 0 0 0 
0 0 0 0 0 0 0 0 0 
0 0 0 0 0 0 0 0 0 
0 0 0 0 0 0 0 0 0 
0 0 0 0 0 0 0 0 0 
0 0 0 0 0 0 0 0 0 
0 0 0 0 0 0 0 0 0 
0 0 0 0 0 0 0 0 0 
0 0 0 0 0 0 0 0 0 
0 0 0 0 0 0 0 0 0 
0 0 0 0 0 0 0 0 0 
0 0 0 0 0 0 0 0 0 
0 0 0 0 0 0 0 0 0 
0 0 0 0 0 0 0 0 0 
0 0 0 0 0 0 0 0 0 
0 0 0 0 0 0 0 0 0 
0 0 0 0 0 0 0 0 0 
0 0 0 0 0 0 0 0 0 
0 0 0 0 0 0 0 0 0 
0 0 0 0 0 0 0 0 0 
0 0 0 0 0 0 0 0 0 
0 0 0 0 0 0 0 0 0 
0 0 0 0 0 0 0 0 0 
0 0 0 0 0 0 0 0 0 
0 0 0 0 0 0 0 0 0 
-1 0 0 0 0 0 0 0 0 
0 0 0 0 0 0 0 0 0 
0 0 0 0 0 0 0 0 0 
0 0 0 0 0 0 0 0 0 
0 0 0 0 0 0 0 0 0 
1 0 0 0 0 0 0 -1 0 
0 0 0 0 -1 0 0 -1 0 
0 0 0 0 0 0 0 0 0 
0 0 0 0 0 0 0 0 0 
0 0 0 0 -1 0 0 0 0 
0 0 0 0 0 0 0 0 0 
0 0 0 0 0 0 0 0 0 
0 0 0 0 0 0 0 0 0 
0 0 0 0 0 0 0 0 0 
0 0 0 0 0 0 0 0 0 
0 0 0 0 0 0 0 0 0 
0 0 0 0 0 0 0 0 0 
1 0 0 0 0 0 0 0 0 
0 0 0 0 0 0 0 0 0 
0 0 0 0 0 0 0 0 0 
0 0 0 0 0 0 0 0 0 
0 0 0 0 0 0 0 0 0 
0 0 0 0 0 0 0 0 0 
0 0 0 0 0 0 0 0 0 
0 0 0 0 0 0 0 0 0 
0 0 0 0 0 0 0 0 0 
0 0 0 0 0 0 0 0 0 
0 0 0 0 0 0 0 0 0 
0 0 0 0 0 0 0 0 0 
0 0 0 0 0 0 0 0 0 
0 0 0 0 0 0 0 0 0 
0 0 0 0 0 0 0 0 0 
0 0 0 0 0 0 0 0 0 
0 0 0 0 0 0 0 0 0 
0 0 0 0 0 0 0 0 0 
0 0 0 0 0 0 0 0 0 
0 0 0 0 0 0 0 0 0 
0 0 0 0 0 0 0 0 0 
0 0 0 0 0 0 0 0 0 
0 0 0 0 0 0 0 0 0 
0 0 0 0 0 0 0 0 0 
0 0 0 0 0 0 0 0 0 
0 0 0 0 0 0 0 0 0 
0 0 0 0 0 0 0 0 0 
0 0 0 0 0 0 0 0 0 
0 0 0 0 0 0 0 0 0 
0 0 0 0 0 0 0 0 0 
0 0 0 0 0 0 0 0 0 
0 0 0 0 0 0 0 0 0 
0 0 0 0 0 0 0 0 0 
0 0 0 0 0 0 0 0 0 
0 0 0 0 0 0 0 0 0 
0 0 0 0 0 0 0 0 0 
0 0 0 0 0 0 0 0 0 
0 0 0 1 0 0 0 0 0 
0 0 0 0 0 0 0 0 0 
0 0 0 0 0 0 0 0 0 
0 0 0 0 0 0 0 -1 0 
0 0 0 0 0 0 0 0 0 
0 0 0 0 0 0 0 0 0 
0 0 0 0 0 0 0 0 0 
0 0 0 0 0 0 0 0 0 
0 0 0 0 0 0 0 0 0 
0 0 0 0 1 0 0 0 0 
0 0 0 0 0 0 0 1 0 
0 0 0 0 0 0 0 0 0 
0 0 0 0 0 0 0 0 0 
0 0 0 0 0 0 0 0 0 
0 0 0 0 0 0 0 0 0 
0 0 0 0 0 0 0 0 0 
0 0 0 0 0 0 0 0 0 
0 0 0 0 0 0 0 0 0 
0 0 0 0 0 0 0 0 0 
0 0 0 0 0 0 0 0 0 
-1 0 0 0 0 0 0 0 0 
0 0 0 0 0 0 0 0 0 
0 0 0 0 0 0 0 0 0 
0 0 0 0 0 0 0 0 0 
0 0 0 0 0 0 0 0 0 
0 0 0 0 0 0 0 0 0 
0 0 0 0 0 0 0 0 0 
0 0 0 0 0 0 0 0 0 
0 0 0 0 0 0 0 0 0 
0 0 0 0 0 0 0 0 0 
0 0 0 -1 0 0 0 0 0 
0 0 0 0 0 0 0 0 0 
0 0 0 0 0 0 0 0 0 
0 0 0 0 0 0 0 0 0 
0 0 0 0 0 0 0 0 0 
0 0 0 0 0 0 -1 0 0 
0 0 0 0 0 0 0 0 0 
0 0 0 0 0 0 0 0 0 
0 0 0 0 0 0 0 0 0 
0 0 0 0 0 0 0 0 0 
0 0 0 0 0 0 0 0 0 
0 0 0 0 0 0 0 0 0 
0 0 0 0 0 0 0 0 0 
0 0 0 0 0 0 -1 0 0 
0 0 0 0 0 0 0 0 0 
0 0 0 0 0 0 0 0 0 
0 0 0 0 0 0 0 0 0 
0 0 0 0 0 0 0 0 0 
0 0 0 0 0 0 0 0 0 
0 0 0 0 0 0 0 0 0 
0 0 0 0 0 0 0 0 0 
0 0 0 0 0 0 0 0 0 
0 0 0 0 0 0 0 0 0 
0 0 0 0 0 0 0 0 0 
0 0 0 0 0 0 0 -1 0 
0 0 0 0 -1 0 0 0 0 
0 0 0 0 0 0 0 0 0 
0 0 0 0 0 0 0 0 0 
0 0 0 0 0 0 0 0 0 
0 0 0 0 0 0 0 0 0 
0 0 0 0 1 0 0 0 0 
0 0 0 0 0 0 0 0 0 
0 0 0 0 0 0 0 0 0 
0 0 0 0 0 0 0 0 0 
0 0 0 0 0 0 0 0 0 
0 0 0 0 0 0 0 0 0 
0 0 0 0 0 0 0 0 0 
0 0 0 0 0 0 0 0 0 
0 0 0 0 0 0 0 0 0 
0 0 0 0 0 0 0 0 0 
0 0 0 0 0 0 0 0 0 
0 0 0 0 0 0 0 0 0 
0 0 0 0 0 0 0 0 0 
0 0 0 0 0 0 0 0 0 
0 0 0 0 0 0 0 0 0 
0 0 0 0 0 0 0 0 0 
0 0 0 0 0 0 0 0 0 
0 0 0 0 0 0 0 0 0 
0 0 0 -1 0 0 0 0 0 
0 0 0 0 0 0 0 0 0 
0 0 0 0 0 0 0 0 0 
0 0 0 0 0 0 0 0 0 
0 0 0 0 0 0 0 0 0 
0 0 0 0 0 0 0 0 0 
0 0 0 0 0 0 0 0 0 
0 0 0 0 0 0 0 0 0 
0 0 0 0 0 0 0 0 0 