# vtk DataFile Version 4.0
Generated by LIGGGHTS
ASCII
DATASET POLYDATA
POINTS 2000 float
-87.6564 -92.6862 9.994 -95.4723 -113.703 9.99973 -105.916 -130.874 9.9997 
-117.094 -114.292 9.99759 -127.353 -132.507 9.99973 -107.2 -96.9138 10.0066 
-116.822 -126.578 26.2032 -109.551 -108.016 27.8397 -132.902 -115.37 22.1965 
-118.644 -90.4214 25.0652 -92.4624 -117.946 30.8869 -56.5681 -101.736 9.98989 
-30.3877 -123.235 9.9989 -75.8322 -108.813 9.99735 -66.3521 -139.14 9.99976 
-79.5172 -126.606 18.3435 -37.6997 -105.447 15.4863 -60.6663 -120.316 16.132 
-47.0299 -134.214 11.5633 -58.5619 -140.48 30.8873 -38.2987 -138.744 28.9761 
-33.5934 -86.8605 21.7463 -50.3157 -122.406 33.109 -2.31452 -104.672 9.99953 
1.5221 -139.031 9.9983 17.554 -102.388 9.99826 -20.6138 -96.602 9.99967 
9.59862 -120.737 9.99897 -10.391 -122.969 10.0033 8.25399 -131.103 27.0789 
19.9237 -91.6542 26.7034 0.0341822 -90.6413 24.0679 21.8733 -113.977 25.7395 
25.2107 -131.417 16.491 40.6742 -97.6429 22.5326 55.3054 -127.876 9.99411 
39.4716 -113.201 9.99854 63.0265 -109.199 9.99973 50.0402 -85.1852 9.9996 
41.358 -119.957 28.726 82.3957 -103.04 9.99973 138.366 -96.9405 17.6023 
117.648 -127.938 9.99351 132.461 -114.504 9.9968 99.4244 -92.4655 9.99956 
94.1321 -124.393 9.99973 118.685 -93.5497 15.2765 136.707 -130.974 20.5146 
108.379 -110.284 11.5415 92.9886 -100.763 27.218 130.723 -110.987 29.6046 
106.94 -122.33 27.4487 119.453 -139.166 26.4348 111.732 -94.8065 33.9868 
-130.226 -84.2069 9.99548 -95.0621 -33.125 14.8939 -112.287 -75.1972 9.99973 
-121.365 -57.0233 9.99788 -113.713 -38.4314 9.99805 -89.1081 -72.7021 9.99973 
-101.906 -57.8927 14.534 -99.7838 -83.7261 23.133 -132.046 -68.5807 22.3385 
-132.546 -48.691 24.3313 -114.321 -42.3646 29.5955 -91.3835 -47.3004 28.5171 
-84.2276 -49.7161 9.99863 -139.346 -84.2231 32.4357 -114.152 -63.1624 29.4417 
-138.32 -36.0013 9.99687 -94.6565 -66.6848 32.2599 -31.5254 -67.6499 9.99973 
-49.319 -82.9826 9.99973 -58.1603 -64.9892 9.99973 -75.0304 -63.482 21.2169 
-57.5686 -32.7065 24.9952 -25.6853 -45.8765 9.99973 -18.1502 -55.0816 26.1725 
11.1126 -56.8649 9.99973 -3.1778 -42.2882 9.99971 4.31578 -77.0829 10.0014 
25.3325 -81.3741 9.99941 -8.35451 -61.6084 10.0007 -15.0746 -32.2505 24.9572 
-15.7335 -78.6679 17.385 24.3344 -65.5983 22.2513 8.03264 -73.5454 30.6835 
69.4326 -80.2881 9.99967 39.8515 -77.8013 25.5449 44.7399 -65.9 10.001 
50.5014 -45.5607 9.99973 72.086 -55.3709 9.99636 31.2076 -50.9313 9.99461 
71.8243 -40.5964 23.4675 40.6069 -55.057 27.1581 59.3924 -61.2895 24.2716 
53.82 -40.9034 32.1636 62.1671 -28.4634 9.99973 85.956 -82.613 21.0249 
86.6077 -40.3643 9.99938 90.5153 -66.5639 9.99631 132.02 -79.568 9.99747 
118.488 -58.5767 9.99969 108.055 -75.0146 14.5761 115.239 -38.8419 9.99952 
138.504 -57.7751 10.0002 129.978 -43.4341 22.7149 124.248 -74.3079 27.6557 
-119.671 6.07432 9.99943 -105.018 -9.69337 10.0011 -122.227 -19.956 10.1918 
-132.195 -3.72925 22.1241 -108.475 -12.4405 29.5206 -89.5236 -18.8262 29.3155 
-111.048 15.2707 25.5248 -84.8186 -16.6606 9.99889 -129.765 22.2747 24.7622 
-105.993 27.1967 9.99973 -123.293 -25.06 34.1177 -45.5858 5.37056 9.99951 
-29.0786 -5.98244 9.99973 -76.0866 13.7355 24.9937 -28.1992 22.1907 26.9634 
-42.186 -1.45875 28.4868 -38.6019 25.4023 9.99973 -26.7004 -25.8437 9.99802 
22.5148 -25.2597 32.1302 -5.74134 -22.4355 9.99974 -21.519 13.9696 9.99951 
-9.25569 -2.74594 9.99973 2.23623 2.52936 25.72 8.04242 13.4016 9.98715 
21.1104 9.13736 25.8218 26.9622 19.8715 9.99659 35.2178 0.678094 9.99973 
49.173 15.1071 9.99973 82.0343 -14.4849 9.99681 61.2739 -1.15832 9.99331 
71.2592 17.7075 9.99792 38.1748 23.147 26.2256 61.7544 19.3846 27.512 
39.416 5.24497 35.0448 139.962 -16.2215 9.9991 87.6272 13.3867 20.8013 
100.183 -25.6774 9.99977 138.18 7.14317 9.99444 103.822 17.9737 9.99969 
96.6443 -0.826032 9.99964 139.632 27.0925 9.99942 122.318 -21.7578 17.6157 
119.47 -3.46808 9.99973 105.81 -12.1984 23.6616 -88.9971 66.9288 9.99492 
-111.657 59.6826 9.99972 -127.083 40.9553 9.99839 -136.642 79.1018 30.138 
-129.422 63.1615 18.5018 -98.4666 45.602 15.2678 -115.831 40.7868 26.5296 
-130.52 81.2332 9.99973 -140.619 39.7076 25.4195 -79.1651 45.2799 9.99992 
-35.9779 69.4285 24.9911 -66.9885 63.0751 9.99964 -53.7416 39.7422 9.99973 
-64.8568 48.8608 23.9064 -72.2804 74.8496 25.5062 -84.0881 47.6217 29.2551 
20.2699 81.0969 9.99757 -5.03392 62.9009 9.99824 -23.7987 40.0268 9.99973 
8.71148 70.8774 22.7526 21.7471 54.7823 9.99823 2.1307 38.3059 33.8436 
-6.31538 82.8589 9.99922 26.635 79.9465 28.9196 31.5503 59.3759 26.814 
40.3148 34.7864 9.99959 64.1264 38.0129 9.99489 62.2501 63.443 9.99881 
39.6063 73.2279 9.99973 80.8949 48.9356 9.9998 77.3269 31.913 26.8292 
52.5179 37.0758 26.2462 44.8106 54.0693 12.8158 80.3981 71.846 9.99863 
68.5769 49.8615 25.727 50.7123 56.0692 32.2243 120.329 32.6382 9.99269 
88.0137 30.2398 10.0015 119.645 59.3111 9.99319 105.125 73.0587 10.008 
103.607 43.6112 9.9996 138.282 52.058 9.99837 95.1216 58.8724 19.9426 
118.912 46.0862 24.9692 92.2326 83.1992 21.4431 116.025 69.8466 26.6007 
132.586 73.3855 15.8522 96.9398 35.8353 27.1811 -89.2592 140.061 9.99489 
-111.843 88.4446 9.99362 -114.106 120.547 25.0452 -139.274 96.5004 20.5921 
-87.3989 103.583 10.0845 -77.1269 135.873 25.333 -76.7606 86.6506 9.99723 
-57.6315 92.4821 9.99934 -45.7698 108.583 10.0778 -79.352 122.198 9.99973 
-50.1573 128.095 9.99937 -31.7802 104.176 24.9344 -29.9598 136.872 9.9997 
-33.8749 123.76 28.4036 -27.5296 116.782 10.0014 -17.0114 137.824 25.2124 
19.6286 132.393 9.99583 -10.2015 126.767 9.99982 -2.79034 108.191 9.99935 
7.56536 90.8362 21.9846 17.1333 106.446 9.99973 4.72149 128.686 23.6247 
-14.9179 116.856 26.7192 26.2434 100.002 28.0147 25.5284 132.475 29.1002 
-13.3665 96.7508 22.5389 8.39407 109.678 28.6359 85.7627 139.093 9.99973 
34.723 96.9196 9.99654 65.954 134.82 9.99645 37.4933 117.228 9.99877 
58.3803 116.231 9.99872 40.9904 140.164 9.99551 80.4703 119.61 9.99646 
68.6702 122.88 25.8043 50.9807 132.199 25.3751 59.9403 89.8096 33.1971 
38.4931 117.274 29.9722 126.514 91.52 9.99866 84.836 98.7516 9.99973 
117.148 109.19 9.9937 139.431 134.242 9.99154 110.95 135.216 9.99978 
105.335 93.0572 9.99773 137.311 112.578 9.99975 100.077 118.86 13.8658 
124.889 124.738 19.8946 88.335 123.552 29.3572 -134.871 -102.972 37.7621 
-103.077 -131.995 40.3841 -128.469 -125.214 42.4036 -111.449 -114.968 46.7024 
-88.0153 -122.787 49.7746 -87.2941 -137.467 63.347 -104.011 -126.696 61.1716 
-123.996 -127.268 61.7907 -131.632 -111.211 71.7066 -106.713 -142.162 73.7738 
-92.8304 -108.394 62.7877 -128.001 -99.2179 87.4176 -140.342 -113.969 53.9164 
-73.7399 -129.162 37.3137 -70.6761 -92.3031 40.5895 -43.6488 -99.5058 61.6288 
-71.3554 -124.119 60.8305 -60.2409 -88.9975 73.8326 -53.4022 -120.533 52.78 
-43.4989 -137.302 48.2336 -28.8526 -103.493 74.5228 -59.1619 -109.952 68.7449 
-54.1732 -128.274 75.1549 -35.2707 -122.396 72.1899 -80.2483 -97.0795 73.9047 
-73.6719 -133.832 78.1776 -63.2026 -139.811 50.5574 -66.6403 -104.551 86.5017 
-17.8148 -114.05 43.0227 16.6676 -104.535 42.5853 13.2209 -125.682 54.2641 
3.41015 -119.079 70.3921 -3.69203 -140.006 61.7702 -11.2892 -93.4282 70.5358 
24.3358 -132.168 38.9572 8.6113 -94.854 71.8898 -14.4351 -127.929 74.978 
23.5437 -94.2898 58.6005 8.15318 -137.1 77.6544 20.0319 -109.868 78.5276 
25.7872 -128.454 73.8885 27.9393 -113.698 60.5638 26.6676 -91.3009 81.8671 
2.95521 -85.9136 45.8426 73.7321 -127.422 39.7406 39.9766 -123.902 48.2826 
54.7537 -113.895 65.8465 39.5066 -104.928 41.7898 81.1401 -112.584 70.5581 
41.9095 -136.713 63.5177 39.9674 -101.401 70.8661 60.0984 -135.276 71.7021 
44.3102 -127.742 81.3913 79.3887 -131.834 75.6909 104.287 -117.562 53.6708 
135.682 -133.978 40.2618 122.716 -111.712 47.9105 116.377 -130.283 44.0774 
129.522 -93.2102 44.549 102.644 -137.369 56.7655 94.4255 -86.3783 41.1088 
109.802 -98.4191 55.4177 90.065 -101.435 56.5589 121.465 -132.585 63.2745 
132.384 -98.7722 63.5477 97.4179 -124.475 71.1346 139.586 -128.014 70.5291 
98.2649 -85.7767 65.9146 132.809 -108.653 80.9311 113.477 -100.566 82.0641 
118.676 -113.172 67.4383 122.386 -126.158 82.1836 94.174 -105.445 83.9402 
-116.093 -82.5155 59.0616 -125.428 -53.0743 42.5212 -85.4728 -65.5569 57.6325 
-101.604 -34.718 61.2899 -129.474 -52.9408 72.1694 -95.0877 -63.7123 79.8017 
-140.38 -35.1137 36.7438 -93.0495 -83.6386 85.7519 -79.2179 -77.1496 72.6745 
-27.6999 -35.395 43.0292 -75.208 -57.2715 42.6055 -68.0204 -43.4043 56.6383 
-64.8964 -63.029 58.8767 -50.8612 -41.975 68.6517 -76.9857 -57.2737 73.7338 
-58.623 -68.5084 77.0584 -30.2713 -67.5637 56.5543 -69.0991 -39.0933 76.4123 
-30.8213 -36.9928 73.5844 -44.535 -82.8879 84.6008 -46.479 -53.6504 84.2876 
-41.7004 -29.4642 56.0204 0.946381 -55.8884 36.8497 -8.01405 -38.8899 42.4853 
18.1341 -60.7626 67.0527 -13.4296 -37.2965 61.6729 4.40369 -32.1327 81.7853 
4.73743 -28.8131 62.0671 28.8102 -83.4326 42.62 46.8689 -37.2548 54.2205 
62.0437 -80.7266 53.2561 66.5364 -46.6614 46.4864 79.518 -48.7111 67.8618 
59.7059 -47.9176 65.2439 73.574 -26.7119 73.6452 67.1274 -43.0271 83.2479 
47.1473 -46.8009 80.7725 53.7907 -29.5048 72.737 58.8653 -62.83 83.1632 
77.6532 -69.1394 85.8429 91.9848 -83.0425 84.705 140.744 -82.2248 83.4258 
100.565 -51.719 40.0521 116.951 -79.9485 52.6743 136.203 -54.5986 38.0964 
134.539 -72.636 46.5746 110.041 -69.8157 68.4671 131.843 -78.3807 65.9286 
89.3242 -66.3203 69.8087 129.831 -59.7437 72.9013 119.673 -81.5615 81.4719 
92.6337 -34.8532 73.8587 -98.8455 -3.94198 44.8545 -135.452 -10.1743 40.7741 
-110.229 22.0329 44.3301 -120.248 2.48536 37.8485 -112.241 1.84149 58.5311 
-110.646 20.6665 65.2245 -93.9426 16.7947 54.9363 -132.128 3.72107 57.5571 
-105.862 5.54219 77.3995 -127.051 13.9999 74.5946 -91.7391 -1.20704 63.3624 
-120.236 -7.96675 74.0191 -88.1851 8.28813 86.3406 -103.176 -11.5302 87.4581 
-140.042 27.6051 81.4329 -121.174 -23.417 88.011 -84.6919 -10.2751 79.7716 
-77.741 -13.8348 46.4848 -44.0912 18.3525 38.4831 -68.326 0.588643 56.6507 
[...]
POINT_DATA 2000
FIELD FieldData 7
id 1 2000 int
41 77 196 230 308 107 205 282 106 
55 438 53 85 259 296 439 157 275 
424 371 40 273 71 185 265 297 299 
410 440 172 95 351 336 437 49 33 
376 408 397 216 164 380 59 139 141 
29 30 379 335 434 394 283 247 47 
411 36 142 338 414 456 32 161 261 
453 80 276 171 381 245 114 425 112 
231 246 215 10 143 211 115 208 232 
365 48 243 45 167 75 300 149 113 
174 222 318 108 354 285 317 359 201 
200 117 252 262 286 314 395 334 274 
239 342 66 147 255 443 309 413 278 
238 405 50 345 20 46 220 187 225 
11 212 69 37 358 390 416 347 122 
123 197 264 430 315 204 219 298 256 
135 346 54 97 178 213 271 404 84 
199 320 400 234 450 152 444 99 362 
8 279 321 250 384 378 195 240 399 
186 111 12 169 73 133 131 132 389 
419 449 229 369 375 102 72 374 330 
253 34 154 221 266 173 352 366 58 
329 206 301 138 6 284 179 328 184 
224 168 311 455 295 385 90 88 78 
62 302 339 79 83 218 426 127 128 
294 433 344 341 110 227 396 421 429 
251 242 18 423 96 160 209 288 367 
370 452 116 198 203 244 343 442 166 
304 361 401 448 1864 1820 1025 1285 272 
223 9 82 130 350 119 409 290 383 
1007 1904 1249 1749 292 1878 2 241 156 
64 76 210 263 1855 1873 364 1584 1941 
1011 418 327 293 22 144 165 382 323 
332 42 1715 1811 1945 137 51 125 445 
81 155 249 436 74 1428 1281 1934 720 
1920 856 700 1308 1665 1450 5 331 388 
26 307 552 183 1551 319 422 65 163 
191 236 1719 1793 23 1676 1730 903 642 
415 417 281 28 226 1366 402 39 392 
14 44 189 306 104 931 1603 118 89 
1953 997 1922 25 86 313 398 180 188 
1317 1870 1643 581 43 412 129 322 761 
1508 303 326 764 1565 176 1155 1520 1143 
1112 739 1819 151 162 68 158 214 257 
121 368 175 427 353 1211 864 874 1540 
4 217 357 202 94 190 349 120 1159 
570 746 1001 268 260 7 100 333 432 
457 70 63 1767 622 1389 153 386 291 
15 277 19 441 1015 1407 839 3 254 
57 228 393 145 177 420 1046 1600 1399 
909 340 1956 93 1 270 387 109 170 
181 140 312 91 1163 1404 712 372 61 
67 267 60 316 87 1652 590 583 207 
923 709 280 373 235 16 194 148 789 
1080 1406 431 1082 1951 1417 377 182 310 
103 233 337 35 258 356 24 159 435 
1430 1367 1124 1975 1194 852 105 360 403 
237 287 363 92 348 21 1398 1517 1852 
1685 324 1191 27 428 391 56 98 1807 
1893 1087 1716 1200 355 1283 407 289 446 
101 192 13 124 1869 1400 1589 701 674 
193 269 146 136 150 1883 1995 771 817 
1501 1706 1836 949 1815 1773 1854 52 305 
325 406 38 126 17 31 447 134 248 
967 1140 1618 1447 741 1424 968 1068 480 
1694 1542 1293 1726 784 954 1929 1771 814 
1334 1938 1195 484 1382 1176 1178 1017 1220 
541 1173 1999 1170 1331 1982 1021 948 1601 
1452 1896 1845 1838 668 907 520 952 1262 
1252 1865 1539 1071 1304 1712 1337 553 1687 
651 548 1678 951 1634 1050 1156 1537 654 
1128 1988 1409 462 1105 1189 1728 1757 1051 
1474 838 1842 1561 1649 599 661 911 914 
1147 1149 1459 866 1829 479 753 974 486 
1527 1840 752 573 1427 845 540 1206 1275 
1683 1488 1656 1543 718 1117 1342 1781 489 
878 995 1045 1171 1578 1013 1994 1077 1866 
833 889 626 1586 875 1130 621 906 1799 
1284 1213 757 793 1894 1421 533 1725 985 
1566 640 1861 602 652 1365 644 1225 1234 
1415 779 862 1373 1874 666 1167 960 723 
912 1042 1673 806 495 1729 1480 1444 521 
454 574 1908 854 658 1442 842 861 1419 
1034 1177 1628 1099 1736 1738 1129 1465 1324 
915 1756 1677 532 1460 754 1063 1190 1496 
1947 1850 628 1453 1341 1031 1696 1023 1066 
1718 1563 1881 698 799 1144 722 1554 1813 
1208 451 466 1340 1831 1271 1745 1401 1391 
1572 467 471 970 594 1385 1912 1675 888 
1119 1369 1602 464 1579 1093 1102 474 580 
1468 1499 1270 1769 506 1533 643 1412 1595 
1928 1414 1890 1959 608 1570 1362 470 597 
1679 1172 1074 919 798 1258 1529 1534 1720 
1743 965 975 1803 1884 841 656 1416 1481 
892 1040 1791 1108 1653 566 853 564 1490 
492 1647 1620 1261 1052 1577 1458 673 1475 
1682 1606 660 729 1761 962 1960 624 1470 
1241 1608 664 518 1131 1903 1326 966 1638 
1858 1441 1477 1636 759 1784 1070 513 1825 
1355 1822 803 805 893 925 728 1438 936 
964 1433 848 1931 1891 1859 1830 1610 1267 
1889 469 1734 1887 810 531 1268 1591 1552 
537 1201 1979 1153 1525 885 1879 1073 562 
1892 1054 1684 588 1919 991 488 1216 749 
981 1058 1037 473 604 671 630 946 876 
1291 1965 1461 508 1229 1231 1548 1098 461 
475 832 1545 1844 1125 1104 2000 1387 1360 
887 1827 522 1667 1263 696 990 1702 1359 
1804 1906 1911 1422 775 459 565 687 1169 
1662 944 1633 801 1483 1055 820 675 1209 
1962 781 1614 1089 1752 835 670 1462 1576 
1980 1101 1780 1060 1135 1203 1120 969 1978 
1582 1361 1487 1094 487 1223 758 1121 751 
1205 1059 1473 1823 850 987 1328 972 1661 
1352 1663 1974 589 616 496 1916 1254 1932 
986 1860 1222 539 807 886 1936 1118 1084 
1930 618 1100 686 1166 1711 730 1026 530 
1018 1332 1772 1004 1835 1616 1935 1622 601 
493 755 1343 1564 1796 1287 740 1966 515 
938 1495 865 1309 896 1532 1937 1300 1550 
1368 1187 788 498 809 894 935 1740 916 
1788 1632 1573 725 770 1507 1035 1491 1558 
528 1036 1076 1467 1397 632 1707 830 1310 
1834 745 961 901 1197 1333 1569 1282 1494 
1846 1062 575 1064 1269 1504 994 688 1150 
607 1126 1318 569 1524 922 682 1770 645 
1049 1092 1701 1863 924 1312 1948 1917 538 
953 1214 1114 895 1613 732 613 1575 1783 
837 713 1056 511 1925 904 623 1264 1768 
705 934 1775 1910 523 1048 1371 503 1918 
600 1138 1466 999 1184 1255 1849 733 1303 
797 1109 1789 1963 802 1192 1247 1276 1957 
1228 1336 738 1808 1867 1972 525 557 1250 
627 641 535 790 1837 1722 1764 1732 1856 
472 1146 1204 1708 1219 1944 1809 1798 1041 
1952 561 1078 1196 1741 1134 1043 1626 491 
1418 942 1313 1992 1549 1083 1175 1503 710 
1629 825 1420 800 1455 1897 1260 1666 567 
1356 1818 1226 1370 1810 1290 1505 1029 478 
1354 647 1375 1053 1024 1964 1704 1942 1432 
1165 1760 697 551 1440 547 1802 831 1376 
502 1344 992 1596 1983 1961 1069 678 1735 
1939 1670 984 1383 1379 1514 545 920 988 
1358 1047 1500 1489 646 1724 818 959 1245 
1664 1122 794 708 1295 1242 1557 1160 499 
1607 667 769 595 1650 1991 1181 1754 529 
1585 1009 1237 736 685 787 1839 1790 1251 
1350 1434 1088 1235 1547 1828 1853 620 596 
1993 483 1090 822 519 1139 1660 1814 1571 
509 1446 1672 1598 1246 763 1067 1030 1377 
1695 689 1973 1439 1289 526 1674 692 1469 
614 1061 1604 1006 679 681 649 1107 1668 
1476 867 742 868 796 1210 869 1327 1833 
476 611 871 774 917 1546 1297 1623 571 
650 1901 1454 1305 1792 1394 902 1805 1699 
1877 510 1457 1705 603 1142 1739 680 1445 
780 1568 918 870 1116 1512 743 1179 1513 
1152 703 955 468 1431 693 1277 482 765 
1778 945 971 1232 1876 1113 1133 1516 1273 
1968 1642 1832 908 1425 1493 993 1857 546 
1363 1065 1958 1307 1426 1151 777 1923 695 
1174 1559 1940 1348 750 819 1511 1841 558 
1224 1396 1746 1744 1977 559 1106 760 1556 
631 1594 1976 1502 1530 1882 1755 1010 1593 
1581 1515 1617 1615 1619 1039 1742 910 881 
1969 929 1448 612 744 1580 1000 827 1555 
1926 534 795 657 1353 1821 1429 1812 579 
1646 1826 1921 851 1123 694 824 1478 549 
572 1136 1541 655 563 578 762 1240 1311 
1700 1574 1338 1801 690 1185 1875 1753 863 
767 1885 1762 699 1148 1390 998 1641 1967 
1028 1899 517 1137 973 463 1079 731 1230 
860 1759 1280 1492 653 1378 648 1905 1091 
950 1198 847 858 737 941 1782 1322 1132 
1288 615 785 921 1016 1669 1909 1737 1590 
1871 481 958 927 873 1330 1193 1072 592 
928 1095 1408 1611 899 1274 1996 1012 1472 
577 505 1374 1886 1306 1168 1509 524 1597 
1182 1686 1721 1014 1393 1949 1162 1022 1637 
1239 1723 1955 637 812 1862 1236 1544 554 
634 704 976 560 857 1278 1795 1800 1588 
977 926 1329 1227 1335 1970 1787 1321 1357 
591 576 1645 1521 1592 1847 1851 1221 1141 
1212 1583 719 811 747 1005 1302 1411 584 
663 1256 1161 662 846 1215 1691 804 937 
1158 1671 707 1238 1044 715 514 1057 1325 
1587 772 843 1531 1651 1482 586 516 815 
855 1032 1680 1697 1777 890 773 1635 1164 
1299 1621 1690 963 1279 1436 672 568 1817 
536 1364 542 485 1763 1085 605 1347 1451 
1301 905 1927 880 1560 500 1538 507 1898 
1259 1747 1316 717 1423 821 1345 816 766 
556 716 879 1727 1111 826 1392 1915 1388 
900 1449 1751 756 947 1924 1506 1372 1703 
829 1522 1907 1127 1086 587 980 1207 665 
1298 1933 1097 1689 1497 1797 1990 1880 891 
1776 834 512 1405 1693 1395 1027 1848 1486 
1640 1320 836 734 748 544 1188 669 477 
791 677 939 1314 1485 1038 1987 638 619 
1019 1218 1766 768 1523 828 504 1386 711 
978 1599 1758 776 1888 1989 982 1413 610 
1471 1033 1286 1510 943 1748 1456 617 458 
1985 1096 635 1688 956 1339 1681 1943 606 
783 1997 996 683 1868 1914 490 1464 1954 
957 1463 1627 593 1713 598 1519 1403 1567 
1257 1655 555 1381 813 1717 1639 1624 1075 
714 1692 625 1265 1292 1733 1157 706 1843 
1410 724 989 527 1971 1498 1609 1714 1008 
897 1272 1950 1315 1081 1816 1402 636 543 
1296 1946 1984 1562 659 1115 840 1786 1443 
1998 501 1648 1346 1553 1654 1233 1380 849 
1349 884 859 585 497 1186 1630 1794 1266 
940 1526 1709 1103 882 933 702 877 778 
609 1605 1145 808 582 844 1731 1003 786 
1020 1528 983 1323 1981 1658 1484 1110 1319 
1002 1243 1657 1698 1437 1644 930 465 932 
1384 1824 1785 913 721 898 494 1631 792 
1248 1180 1435 1294 735 1872 1612 1183 1518 
1479 1895 1253 1154 633 823 883 1625 1659 
1913 1779 1806 1535 1244 782 1202 1217 1536 
1902 872 1765 979 684 1750 629 727 1199 
460 639 691 550 1986 1351 726 1774 1900 
1710 676 
type 1 2000 int
1 1 1 1 1 1 1 1 1 
1 1 1 1 1 1 1 1 1 
1 1 1 1 1 1 1 1 1 
1 1 1 1 1 1 1 1 1 
1 1 1 1 1 1 1 1 1 
1 1 1 1 1 1 1 1 1 
1 1 1 1 1 1 1 1 1 
1 1 1 1 1 1 1 1 1 
1 1 1 1 1 1 1 1 1 
1 1 1 1 1 1 1 1 1 
1 1 1 1 1 1 1 1 1 
1 1 1 1 1 1 1 1 1 
1 1 1 1 1 1 1 1 1 
1 1 1 1 1 1 1 1 1 
1 1 1 1 1 1 1 1 1 
1 1 1 1 1 1 1 1 1 
1 1 1 1 1 1 1 1 1 
1 1 1 1 1 1 1 1 1 
1 1 1 1 1 1 1 1 1 
1 1 1 1 1 1 1 1 1 
1 1 1 1 1 1 1 1 1 
1 1 1 1 1 1 1 1 1 
1 1 1 1 1 1 1 1 1 
1 1 1 1 1 1 1 1 1 
1 1 1 1 1 1 1 1 1 
1 1 1 1 1 1 1 1 1 
1 1 1 1 1 1 1 1 1 
1 1 1 1 1 1 1 1 1 
1 1 1 1 1 1 1 1 1 
1 1 1 1 1 1 1 1 1 
1 1 1 1 1 1 1 1 1 
1 1 1 1 1 1 1 1 1 
1 1 1 1 1 1 1 1 1 
1 1 1 1 1 1 1 1 1 
1 1 1 1 1 1 1 1 1 
1 1 1 1 1 1 1 1 1 
1 1 1 1 1 1 1 1 1 
1 1 1 1 1 1 1 1 1 
1 1 1 1 1 1 1 1 1 
1 1 1 1 1 1 1 1 1 
1 1 1 1 1 1 1 1 1 
1 1 1 1 1 1 1 1 1 
1 1 1 1 1 1 1 1 1 
1 1 1 1 1 1 1 1 1 
1 1 1 1 1 1 1 1 1 
1 1 1 1 1 1 1 1 1 
1 1 1 1 1 1 1 1 1 
1 1 1 1 1 1 1 1 1 
1 1 1 1 1 1 1 1 1 
1 1 1 1 1 1 1 1 1 
1 1 1 1 1 1 1 1 1 
1 1 1 1 1 1 1 1 1 
1 1 1 1 1 1 1 1 1 
1 1 1 1 1 1 1 1 1 
1 1 1 1 1 1 1 1 1 
1 1 1 1 1 1 1 1 1 
1 1 1 1 1 1 1 1 1 
1 1 1 1 1 1 1 1 1 
1 1 1 1 1 1 1 1 1 
1 1 1 1 1 1 1 1 1 
1 1 1 1 1 1 1 1 1 
1 1 1 1 1 1 1 1 1 
1 1 1 1 1 1 1 1 1 
1 1 1 1 1 1 1 1 1 
1 1 1 1 1 1 1 1 1 
1 1 1 1 1 1 1 1 1 
1 1 1 1 1 1 1 1 1 
1 1 1 1 1 1 1 1 1 
1 1 1 1 1 1 1 1 1 
1 1 1 1 1 1 1 1 1 
1 1 1 1 1 1 1 1 1 
1 1 1 1 1 1 1 1 1 
1 1 1 1 1 1 1 1 1 
1 1 1 1 1 1 1 1 1 
1 1 1 1 1 1 1 1 1 
1 1 1 1 1 1 1 1 1 
1 1 1 1 1 1 1 1 1 
1 1 1 1 1 1 1 1 1 
1 1 1 1 1 1 1 1 1 
1 1 1 1 1 1 1 1 1 
1 1 1 1 1 1 1 1 1 
1 1 1 1 1 1 1 1 1 
1 1 1 1 1 1 1 1 1 
1 1 1 1 1 1 1 1 1 
1 1 1 1 1 1 1 1 1 
1 1 1 1 1 1 1 1 1 
1 1 1 1 1 1 1 1 1 
1 1 1 1 1 1 1 1 1 
1 1 1 1 1 1 1 1 1 
1 1 1 1 1 1 1 1 1 
1 1 1 1 1 1 1 1 1 
1 1 1 1 1 1 1 1 1 
1 1 1 1 1 1 1 1 1 
1 1 1 1 1 1 1 1 1 
1 1 1 1 1 1 1 1 1 
1 1 1 1 1 1 1 1 1 
1 1 1 1 1 1 1 1 1 
1 1 1 1 1 1 1 1 1 
1 1 1 1 1 1 1 1 1 
1 1 1 1 1 1 1 1 1 
1 1 1 1 1 1 1 1 1 
1 1 1 1 1 1 1 1 1 
1 1 1 1 1 1 1 1 1 
1 1 1 1 1 1 1 1 1 
1 1 1 1 1 1 1 1 1 
1 1 1 1 1 1 1 1 1 
1 1 1 1 1 1 1 1 1 
1 1 1 1 1 1 1 1 1 
1 1 1 1 1 1 1 1 1 
1 1 1 1 1 1 1 1 1 
1 1 1 1 1 1 1 1 1 
1 1 1 1 1 1 1 1 1 
1 1 1 1 1 1 1 1 1 
1 1 1 1 1 1 1 1 1 
1 1 1 1 1 1 1 1 1 
1 1 1 1 1 1 1 1 1 
1 1 1 1 1 1 1 1 1 
1 1 1 1 1 1 1 1 1 
1 1 1 1 1 1 1 1 1 
1 1 1 1 1 1 1 1 1 
1 1 1 1 1 1 1 1 1 
1 1 1 1 1 1 1 1 1 
1 1 1 1 1 1 1 1 1 
1 1 1 1 1 1 1 1 1 
1 1 1 1 1 1 1 1 1 
1 1 1 1 1 1 1 1 1 
1 1 1 1 1 1 1 1 1 
1 1 1 1 1 1 1 1 1 
1 1 1 1 1 1 1 1 1 
1 1 1 1 1 1 1 1 1 
1 1 1 1 1 1 1 1 1 
1 1 1 1 1 1 1 1 1 
1 1 1 1 1 1 1 1 1 
1 1 1 1 1 1 1 1 1 
1 1 1 1 1 1 1 1 1 
1 1 1 1 1 1 1 1 1 
1 1 1 1 1 1 1 1 1 
1 1 1 1 1 1 1 1 1 
1 1 1 1 1 1 1 1 1 
1 1 1 1 1 1 1 1 1 
1 1 1 1 1 1 1 1 1 
1 1 1 1 1 1 1 1 1 
1 1 1 1 1 1 1 1 1 
1 1 1 1 1 1 1 1 1 
1 1 1 1 1 1 1 1 1 
1 1 1 1 1 1 1 1 1 
1 1 1 1 1 1 1 1 1 
1 1 1 1 1 1 1 1 1 
1 1 1 1 1 1 1 1 1 
1 1 1 1 1 1 1 1 1 
1 1 1 1 1 1 1 1 1 
1 1 1 1 1 1 1 1 1 
1 1 1 1 1 1 1 1 1 
1 1 1 1 1 1 1 1 1 
1 1 1 1 1 1 1 1 1 
1 1 1 1 1 1 1 1 1 
1 1 1 1 1 1 1 1 1 
1 1 1 1 1 1 1 1 1 
1 1 1 1 1 1 1 1 1 
1 1 1 1 1 1 1 1 1 
1 1 1 1 1 1 1 1 1 
1 1 1 1 1 1 1 1 1 
1 1 1 1 1 1 1 1 1 
1 1 1 1 1 1 1 1 1 
1 1 1 1 1 1 1 1 1 
1 1 1 1 1 1 1 1 1 
1 1 1 1 1 1 1 1 1 
1 1 1 1 1 1 1 1 1 
1 1 1 1 1 1 1 1 1 
1 1 1 1 1 1 1 1 1 
1 1 1 1 1 1 1 1 1 
1 1 1 1 1 1 1 1 1 
1 1 1 1 1 1 1 1 1 
1 1 1 1 1 1 1 1 1 
1 1 1 1 1 1 1 1 1 
1 1 1 1 1 1 1 1 1 
1 1 1 1 1 1 1 1 1 
1 1 1 1 1 1 1 1 1 
1 1 1 1 1 1 1 1 1 
1 1 1 1 1 1 1 1 1 
1 1 1 1 1 1 1 1 1 
1 1 1 1 1 1 1 1 1 
1 1 1 1 1 1 1 1 1 
1 1 1 1 1 1 1 1 1 
1 1 1 1 1 1 1 1 1 
1 1 1 1 1 1 1 1 1 
1 1 1 1 1 1 1 1 1 
1 1 1 1 1 1 1 1 1 
1 1 1 1 1 1 1 1 1 
1 1 1 1 1 1 1 1 1 
1 1 1 1 1 1 1 1 1 
1 1 1 1 1 1 1 1 1 
1 1 1 1 1 1 1 1 1 
1 1 1 1 1 1 1 1 1 
1 1 1 1 1 1 1 1 1 
1 1 1 1 1 1 1 1 1 
1 1 1 1 1 1 1 1 1 
1 1 1 1 1 1 1 1 1 
1 1 1 1 1 1 1 1 1 
1 1 1 1 1 1 1 1 1 
1 1 1 1 1 1 1 1 1 
1 1 1 1 1 1 1 1 1 
1 1 1 1 1 1 1 1 1 
1 1 1 1 1 1 1 1 1 
1 1 1 1 1 1 1 1 1 
1 1 1 1 1 1 1 1 1 
1 1 1 1 1 1 1 1 1 
1 1 1 1 1 1 1 1 1 
1 1 1 1 1 1 1 1 1 
1 1 1 1 1 1 1 1 1 
1 1 1 1 1 1 1 1 1 
1 1 1 1 1 1 1 1 1 
1 1 1 1 1 1 1 1 1 
1 1 1 1 1 1 1 1 1 
1 1 1 1 1 1 1 1 1 
1 1 1 1 1 1 1 1 1 
1 1 1 1 1 1 1 1 1 
1 1 1 1 1 1 1 1 1 
1 1 1 1 1 1 1 1 1 
1 1 1 1 1 1 1 1 1 
1 1 1 1 1 1 1 1 1 
1 1 1 1 1 1 1 1 1 
1 1 
i 3 2000 int
0 0 0 0 0 0 0 0 0 
0 0 0 0 0 0 0 0 0 
0 0 0 0 0 0 0 0 0 
0 0 0 0 0 0 0 0 0 
0 0 0 0 0 0 0 0 0 
0 0 0 0 0 0 0 0 0 
0 0 0 0 0 0 0 1 0 
0 0 0 0 0 0 0 0 0 
0 0 0 0 0 0 0 0 0 
0 0 0 0 0 0 0 0 0 
0 0 0 0 0 0 0 0 0 
0 0 0 0 0 0 0 0 0 
0 0 0 0 0 0 0 0 0 
0 0 0 0 0 0 -1 0 0 
0 0 0 0 0 0 0 0 0 
0 0 0 0 0 0 0 0 0 
0 0 0 0 0 0 0 0 0 
0 0 0 0 1 0 0 0 0 
0 0 0 0 0 0 0 0 0 
0 0 0 0 0 0 0 0 0 
0 0 0 0 0 0 0 0 0 
0 0 0 0 0 0 0 0 0 
0 0 0 0 0 0 0 0 0 
0 0 0 0 0 0 0 0 0 
0 0 0 0 0 0 0 0 0 
0 0 0 0 0 0 0 0 0 
0 0 0 0 0 0 0 0 0 
0 0 0 0 0 0 0 0 0 
0 0 0 0 0 0 0 0 0 
0 0 0 0 0 0 0 0 0 
0 0 0 0 0 0 0 0 0 
0 0 0 0 0 0 0 0 0 
0 0 0 0 0 0 0 0 0 
0 0 0 0 0 0 0 0 0 
0 0 0 0 0 0 0 0 0 
0 0 0 0 0 0 0 0 0 
0 0 0 0 0 0 0 0 0 
0 0 0 0 0 0 0 0 0 
0 0 0 0 0 0 0 0 0 
0 0 0 0 0 0 0 0 0 
0 0 0 0 0 0 0 0 0 
0 0 0 0 0 0 0 0 0 
0 0 0 0 0 0 0 0 0 
0 0 0 0 0 0 0 0 0 
0 0 0 0 0 0 0 0 0 
0 0 0 0 0 0 0 0 0 
0 0 0 0 0 0 0 0 0 
0 0 0 0 0 0 0 0 0 
0 0 0 -1 0 0 0 0 0 
0 0 0 0 0 0 0 0 0 
0 0 0 0 0 0 0 0 0 
0 0 0 0 0 0 0 0 0 
0 0 0 0 0 0 0 0 0 
0 0 0 0 0 0 0 0 0 
0 0 0 0 0 0 0 0 0 
0 0 0 0 0 0 0 0 0 
0 0 0 0 0 0 0 0 0 
0 0 0 0 0 0 0 0 0 
0 0 0 0 0 0 0 0 0 
0 0 0 0 0 0 0 0 0 
0 0 0 0 0 0 0 0 0 
0 0 0 0 0 0 0 0 0 
0 0 0 0 0 0 0 0 0 
0 0 0 0 0 0 0 0 0 
0 0 0 0 0 0 0 0 0 
0 0 0 0 0 0 0 0 0 
0 0 0 0 0 0 0 -1 0 
0 0 0 0 0 0 1 0 0 
0 0 0 0 -1 0 0 0 0 
0 0 0 0 0 0 0 0 0 
0 0 0 0 0 0 0 0 0 
0 0 0 0 0 0 0 0 0 
0 0 0 0 0 0 0 0 0 
0 0 0 0 0 0 0 0 0 
0 0 0 0 0 0 0 0 0 
0 0 0 0 0 0 0 0 0 
0 0 0 0 0 0 0 0 0 
0 0 0 0 0 0 0 0 0 
0 0 0 0 0 0 0 0 0 
0 0 0 0 0 0 0 0 0 
0 0 0 0 0 0 0 0 0 
0 0 0 0 0 0 0 0 0 
0 0 0 0 0 0 0 0 0 
0 0 0 0 0 0 0 0 0 
0 0 0 0 0 0 0 0 0 
0 0 0 0 0 0 0 0 0 
0 0 0 0 0 0 1 0 0 
0 0 0 0 0 0 0 0 0 
0 0 0 0 0 0 0 0 0 
0 0 0 0 0 0 0 0 0 
0 0 0 0 0 0 0 0 0 
0 0 0 0 1 0 0 0 0 
0 0 0 0 0 0 0 0 0 
0 0 0 0 0 0 0 0 0 
0 0 0 0 0 0 0 0 0 
0 0 0 0 0 0 0 0 0 
0 0 0 0 0 0 0 0 0 
0 0 0 0 0 0 0 0 0 
0 0 0 0 0 0 0 0 0 
0 0 0 0 0 0 0 0 0 
0 0 0 0 0 0 0 0 0 
0 0 0 0 0 0 0 0 0 
0 0 0 0 0 0 0 0 0 
0 0 0 0 0 0 0 0 0 
0 0 0 0 0 0 0 0 0 
0 0 0 -1 0 0 0 0 0 
0 0 0 0 0 0 0 0 0 
0 0 0 0 0 0 0 0 0 
0 0 0 0 0 0 0 0 0 
1 0 0 0 0 0 0 0 0 
0 0 0 0 0 0 0 0 0 
0 0 0 0 0 0 0 0 0 
0 0 0 0 0 0 0 0 0 
0 0 0 0 0 0 0 0 0 
0 0 0 0 0 0 0 0 0 
0 0 0 0 0 0 0 0 0 
0 0 0 0 0 0 0 0 0 
0 0 0 0 0 0 0 0 0 
0 0 0 0 0 0 0 0 0 
0 0 0 0 0 0 0 0 0 
0 0 0 0 0 0 -1 0 0 
0 0 0 0 0 0 0 0 0 
0 0 0 0 0 0 0 0 0 
0 0 0 0 0 0 0 0 0 
0 0 0 0 0 0 1 0 0 
0 0 0 0 0 0 0 0 0 
0 0 0 0 0 0 1 0 0 
0 0 0 0 0 0 0 0 0 
0 0 0 0 0 0 0 0 0 
1 0 0 0 0 0 0 0 0 
0 0 0 0 0 0 0 0 0 
0 0 0 0 0 0 0 0 0 
0 0 0 0 0 0 0 0 0 
0 0 0 0 0 0 0 0 0 
0 0 0 0 0 0 0 0 0 
0 0 0 0 0 0 0 0 0 
0 0 0 0 0 0 0 0 0 
0 0 0 0 0 0 0 0 0 
0 0 0 0 0 0 0 0 0 
0 0 0 0 0 0 0 0 0 
0 0 0 0 0 0 0 0 0 
0 0 0 0 0 0 0 0 0 
0 0 0 0 0 0 0 0 0 
0 0 0 0 0 0 0 0 0 
0 0 0 0 0 0 0 0 0 
0 0 0 0 0 0 0 0 0 
0 0 0 0 0 0 0 0 0 
0 0 0 0 0 0 0 0 0 
0 0 0 0 0 0 0 0 0 
0 0 0 0 0 0 0 0 0 
0 0 0 1 0 0 0 0 0 
0 0 0 0 0 0 0 0 0 
0 0 0 0 0 0 0 0 0 
0 0 0 0 0 0 0 0 0 
0 0 0 0 0 0 0 0 0 
0 0 0 0 0 0 0 0 0 
0 0 0 0 0 0 0 0 0 
0 0 0 0 0 0 0 0 0 
0 0 0 0 0 0 0 0 0 
0 0 0 0 0 0 0 0 0 
0 0 0 0 0 0 0 0 0 
0 0 0 0 0 0 0 0 0 
0 0 0 0 0 0 0 0 0 
0 0 0 0 0 0 0 0 0 
-1 0 0 0 0 0 0 0 0 
0 0 0 0 0 0 0 0 0 
0 0 0 0 0 0 0 0 0 
0 0 0 0 0 0 0 0 0 
0 0 0 0 0 0 0 0 0 
1 0 0 0 0 0 0 -1 0 
0 0 0 0 0 0 0 0 0 
0 0 0 0 0 0 0 0 0 
0 0 0 0 0 0 0 0 0 
0 0 0 0 0 0 0 0 0 
0 0 0 0 0 0 0 -1 0 
0 0 0 0 0 0 0 0 0 
0 0 0 0 0 0 0 0 0 
0 0 0 0 0 0 0 -1 0 
0 0 0 0 -1 0 0 0 0 
0 0 0 0 -1 0 0 0 0 
0 0 0 0 0 0 0 0 0 
0 0 0 0 0 0 0 0 0 
0 0 0 0 0 0 0 0 0 
0 0 0 0 -1 0 0 0 0 
0 0 0 0 0 0 0 0 0 
0 0 0 0 0 0 0 0 0 
0 0 0 0 0 0 0 0 0 
0 0 0 0 0 0 0 0 0 
0 -1 0 0 0 0 0 0 0 
0 0 0 -1 0 0 0 -1 0 
-1 0 0 0 0 0 0 0 0 
0 0 0 0 0 0 0 0 0 
0 0 0 0 0 0 0 0 0 
0 0 0 0 0 0 0 0 0 
0 0 0 0 0 0 0 0 0 
0 0 0 0 0 0 0 0 0 
0 0 0 0 0 0 0 0 0 
0 1 0 0 0 0 0 0 0 
0 1 0 0 0 0 0 0 0 
0 0 0 0 0 0 0 0 0 
0 0 0 0 0 0 0 0 0 
0 0 0 0 0 0 0 0 0 
0 0 0 0 0 0 0 0 0 
0 0 0 0 0 0 0 0 0 
0 1 0 0 0 0 0 0 0 
0 0 0 0 0 0 0 0 0 
0 0 0 0 0 0 0 0 0 
0 0 0 0 1 0 0 0 0 
0 0 0 0 1 0 0 0 0 
0 0 0 0 0 0 0 0 0 
0 0 0 0 0 0 0 0 0 
0 0 0 0 0 0 0 0 0 
0 0 0 0 0 0 0 0 0 
0 0 0 0 0 0 0 0 0 
0 0 0 0 0 0 0 0 0 
0 0 0 1 0 0 0 0 0 
0 0 0 0 0 0 0 0 0 
0 0 0 0 0 0 0 0 0 
0 0 0 0 0 0 0 0 0 
0 0 0 0 0 0 0 0 0 
0 0 0 0 0 0 0 0 0 
0 0 0 0 0 0 0 0 0 
0 0 0 0 0 0 0 0 0 
0 0 0 0 0 0 0 0 0 
0 0 0 0 0 0 0 0 0 
0 0 0 0 0 0 0 0 0 
0 0 0 0 0 0 0 0 0 
0 0 0 -1 0 0 0 0 0 
0 0 0 0 0 0 0 0 0 
0 0 0 0 0 0 0 0 0 
0 0 0 0 0 0 0 0 0 
0 0 0 0 0 0 0 0 0 
0 0 0 0 0 0 0 0 0 
0 0 0 0 0 0 0 0 0 
0 0 0 0 0 0 0 0 0 
0 0 0 0 0 0 0 0 0 
0 0 0 0 0 0 0 0 0 
0 0 0 0 0 0 0 0 0 
0 0 0 0 0 0 0 0 0 
0 0 0 0 0 0 0 0 0 
0 0 0 0 0 0 0 0 0 
0 0 0 0 0 0 0 0 0 
0 0 0 0 0 0 0 0 0 
0 0 0 0 0 0 0 0 0 
0 0 0 0 0 0 0 0 0 
0 0 0 0 0 0 0 0 0 
0 0 0 0 0 0 0 0 0 
0 0 0 -1 0 0 0 0 0 
0 0 0 0 0 0 0 0 0 
0 0 0 0 0 0 0 0 0 
0 0 0 0 0 0 0 0 0 
0 0 0 0 0 0 0 0 0 
0 0 0 0 0 0 0 0 0 
0 0 0 0 0 0 0 0 0 
0 0 0 0 0 0 0 0 0 
1 0 0 0 0 0 0 0 0 
1 0 0 1 0 0 0 0 0 
0 0 0 0 0 0 0 0 0 
0 0 0 0 0 0 0 0 0 
0 0 0 0 0 0 0 0 0 
0 0 0 0 0 0 0 0 0 
0 0 0 0 0 0 0 0 0 
0 0 0 0 0 0 0 0 0 
0 0 0 0 0 0 0 0 0 
0 0 0 0 0 0 0 0 0 
0 0 0 0 0 0 0 0 0 
0 0 0 0 0 0 0 0 0 
0 0 0 0 0 0 0 0 0 
0 0 0 0 0 0 0 0 0 
0 0 0 0 0 0 0 0 0 
0 0 0 0 0 0 0 0 0 
0 0 0 0 0 0 0 0 0 
0 0 0 0 0 0 0 0 0 
0 0 0 0 0 0 0 -1 0 
0 0 0 0 0 0 0 0 0 
0 0 0 0 0 0 0 0 0 
0 0 0 0 0 0 0 0 0 
0 0 0 0 0 0 0 -1 0 
0 0 0 0 -1 0 0 0 0 
0 0 0 0 0 0 0 0 0 
0 0 0 0 0 0 0 0 0 
0 0 0 0 0 0 0 0 0 
0 0 0 0 0 0 0 0 0 
0 0 0 0 0 0 0 0 0 
0 0 0 0 0 0 0 0 0 
0 0 0 0 0 0 0 0 0 
0 0 0 0 0 0 0 0 0 
0 0 0 0 0 0 -1 0 0 
0 0 0 0 0 0 0 0 0 
0 0 0 0 0 0 0 0 0 
0 0 0 0 0 0 0 0 0 
0 0 0 0 0 0 0 0 0 
0 0 0 0 0 0 0 0 0 
0 0 0 0 0 0 0 0 0 
0 0 0 0 0 0 0 0 0 
0 0 0 0 0 0 0 0 0 
0 1 0 0 0 0 0 0 0 
0 0 0 0 0 0 0 0 0 
0 0 0 0 0 0 0 0 0 
0 0 0 0 0 0 0 0 0 
0 0 0 0 0 0 0 0 0 
0 0 0 0 0 0 0 1 0 
0 0 0 0 0 0 0 0 0 
0 0 0 0 0 0 0 0 0 
0 1 0 0 0 0 0 0 0 
0 0 0 0 0 0 0 0 0 
0 0 0 0 0 0 0 0 0 
0 0 0 0 0 0 0 1 0 
0 0 0 0 1 0 0 0 0 
0 0 0 0 0 0 0 0 0 
0 0 0 0 0 0 0 0 0 
0 0 0 0 0 0 0 0 0 
0 0 0 1 0 0 0 0 0 
0 0 0 0 0 0 0 0 0 
0 0 0 0 0 0 0 0 0 
0 0 0 0 0 0 0 0 0 
0 0 0 0 0 0 0 0 0 
0 0 0 0 0 0 0 0 0 
0 0 0 0 0 0 0 0 0 
0 0 0 0 0 0 0 0 0 
0 0 0 0 0 0 0 0 0 
0 0 0 0 0 0 0 0 0 
0 0 0 0 0 0 0 0 0 
0 0 0 0 0 0 0 0 0 
0 0 0 0 0 0 0 0 0 
-1 0 0 -1 0 0 0 0 0 
0 0 0 0 0 0 0 0 0 
0 0 0 0 0 0 0 0 0 
0 0 0 0 0 0 0 0 0 
0 0 0 0 0 0 0 0 0 
0 0 0 0 0 0 0 0 0 
0 0 0 0 0 0 0 0 0 
0 0 0 0 0 0 0 0 0 
0 0 0 0 0 0 0 0 0 
0 0 0 0 0 0 0 0 0 
0 0 0 0 0 0 0 0 0 
0 0 0 0 0 0 0 0 0 
0 0 0 0 0 0 0 0 0 
0 0 0 0 0 0 0 0 0 
0 0 0 0 0 0 0 0 0 
0 0 0 0 0 0 0 0 0 
0 0 0 0 0 0 0 0 0 
0 0 0 0 0 0 0 0 0 
0 0 0 0 0 0 0 0 0 
0 0 0 0 0 0 0 0 0 