# vtk DataFile Version 4.0
Generated by LIGGGHTS
ASCII
DATASET POLYDATA
POINTS 2000 float
-148.488 -158.212 9.99179 -169.44 -162.297 9.9843 -105.759 -163.489 9.98581 
-49.3575 -155.385 9.99302 -28.778 -154.231 15.3413 -1.53523 -160.618 9.99031 
35.9633 -160.191 9.99273 62.4521 -159.759 9.99251 83.1775 -164.565 9.99304 
103.785 -154.66 9.99206 115.257 -167.743 19.8525 149.579 -161.074 9.9925 
161.813 -147.802 18.5952 -103.829 -117.154 9.99304 -61.9482 -117.905 9.99146 
-10.0016 -118.359 9.98692 48.1089 -129.79 9.98475 48.3739 -109.8 9.99028 
160.412 -129.807 9.98935 149.384 -111.63 9.99116 -154.416 -108.548 9.99224 
-166.018 -88.1687 9.99172 -93.3429 -100.013 9.99153 -21.5965 -96.8439 9.99254 
-2.40001 -87.0965 9.97421 5.32729 -105.532 9.9856 59.5803 -93.2421 9.99258 
73.8074 -79.1941 9.98884 133.86 -99.0267 9.99078 168.162 -106.111 14.0788 
-161.258 -63.2556 9.99293 -141.963 -49.9671 9.99235 -121.969 -49.6409 9.99173 
-96.5756 -71.8001 9.99218 -99.3963 -51.483 9.99008 -80.161 -56.9377 9.99186 
-58.8944 -51.9552 9.99275 -16.9875 -55.0637 9.99098 -39.2368 -55.8699 9.99254 
1.63241 -66.7633 9.99254 41.5451 -55.6218 9.98948 58.069 -66.8706 9.9939 
79.7357 -48.8026 9.99203 -157.229 -36.9204 9.98592 -117.172 -30.2296 9.99096 
-97.227 -31.6067 9.99066 -77.9939 -37.0626 9.99004 -22.2711 -35.7455 9.99295 
-9.77035 -18.603 9.99236 42.7575 -18.1049 9.99303 72.4775 -30.1695 9.99269 
56.9653 -42.7874 9.99238 87.1642 -16.5998 9.99158 137.249 -20.9546 9.98965 
170.085 -23.3145 9.99184 146.099 -38.8817 9.99177 165.689 -42.8764 9.99064 
-149.811 -11.806 9.99195 -168.086 -3.68806 9.99235 -129.864 -9.6433 9.99186 
-68.4408 4.55346 9.98382 -42.8002 9.2063 9.99038 -23.8568 -4.4112 9.99295 
-14.2429 13.1732 9.99277 7.39981 -6.47533 9.97769 16.2674 11.4419 9.98821 
120.194 3.51824 9.98794 153.055 -7.71612 9.993 -169.177 40.7146 9.98803 
-125.749 44.1078 9.99271 -86.3185 28.5701 9.99302 -108.416 34.14 9.99095 
34.1578 41.6184 9.98973 68.5043 43.076 9.99259 -167.078 63.481 9.99299 
-148.217 51.1314 9.99254 -136.919 67.6302 9.99253 -83.0602 51.4058 9.99065 
-47.5028 50.2149 9.98299 -64.9947 59.3552 13.1899 -27.5224 49.5512 9.98732 
-6.39968 70.2472 9.98825 21.7946 65.0379 9.97812 41.2264 60.3207 9.9881 
60.2032 64.8485 14.9946 116.537 49.4297 9.99233 136.892 53.3649 9.99194 
123.469 68.1859 9.99165 157.059 53.0092 9.98179 -154.7 91.1962 9.99247 
-69.2558 78.6279 9.99216 -66.8388 98.4771 9.99249 10.1525 80.9217 13.4268 
-6.54534 91.3725 9.99185 26.4732 91.9537 9.99293 47.0505 85.4876 9.99253 
79.8127 108.118 10.1729 119.816 90.0102 9.98607 -163.943 108.928 9.99242 
-92.5572 109.361 9.99141 -54.1283 117.55 9.99226 -74.1201 117.101 9.99218 
-34.1952 115.955 9.99249 -20.5391 128.524 17.4332 -15.4871 109.156 11.8966 
3.3335 115.639 9.99209 -4.63176 138.086 9.9925 70.5283 125.828 9.99184 
132.882 125.681 9.99303 170.839 127.577 9.99183 150.487 115.624 9.99293 
150.419 134.991 14.9743 -155.037 142.545 9.99208 -162.322 161.093 11.6402 
-142.47 162.815 9.99293 -122.776 166.269 9.99191 -121.515 146.313 9.99283 
-9.65483 163.111 9.99165 14.9864 159.607 9.99273 34.2547 154.259 9.99192 
58.5192 142.819 9.98968 49.977 166.615 9.99004 76.9184 150.637 9.97458 
102.301 162.656 9.98669 121.292 156.397 9.99245 134.505 169.735 16.873 
140.745 151.766 9.99071 165.685 146.906 9.99128 160.219 165.14 16.1133 
-163.681 -164.712 44.4079 -118.745 -163.371 25.1829 -128.972 -160.342 45.3069 
-110.9 -151.824 43.6871 -83.288 -141.247 24.9705 -100.115 -167.755 49.1449 
-67.4607 -168.837 39.5416 -53.046 -154.99 35.9624 -32.6317 -157.49 44.0289 
-11.6715 -154.639 29.3578 9.76839 -169.188 24.0832 40.5065 -156.285 39.5473 
48.6619 -149.115 20.9542 57.0366 -148.071 47.2327 92.7771 -161.195 41.1517 
143.457 -161.814 44.1959 -166.977 -134.938 26.3257 -162.236 -113.458 28.6121 
-132.226 -131.085 24.9675 -62.1803 -109.118 50.0527 -36.0256 -124.617 32.5186 
-8.65538 -139.545 48.4152 16.9198 -134.943 24.9757 79.5405 -133.148 24.9742 
97.0786 -114.288 48.6566 129.435 -136.164 24.9782 118.607 -111.668 47.5021 
140.354 -110.878 47.173 159.901 -135.041 42.1591 160.815 -120.968 27.9157 
-166.995 -93.2478 33.1366 -150.079 -107.109 43.1631 -135.176 -81.1883 24.9783 
-100.721 -87.0829 23.3414 -65.519 -84.9719 24.9617 -2.16031 -105.823 28.5242 
29.1204 -84.7101 24.9603 103.731 -89.4091 24.9671 136.218 -102.149 29.5987 
131.658 -91.5768 45.9447 157.574 -102.755 35.4825 -162.825 -71.472 44.1039 
-167.672 -52.0741 43.7896 -163.952 -49.4951 24.2492 -110.736 -51.2585 26.454 
-116.807 -58.376 44.1224 -91.2071 -61.2354 26.0979 -103.423 -72.7696 37.0412 
-97.7865 -52.3599 42.7646 -86.885 -72.7028 49.8114 -70.3613 -50.2413 26.2841 
-46.3796 -56.0415 29.5783 -18.4699 -75.1105 38.634 68.1539 -59.5285 43.3996 
120.862 -65.7619 44.2465 149.902 -70.2776 24.9675 -137.887 -29.5208 38.1839 
-82.5894 -34.7117 29.3086 -102.322 -34.1565 32.4967 -78.9662 -19.6574 45.2337 
-50.4896 -21.4659 24.975 -17.6029 -32.6063 29.2813 -31.9492 -43.4388 44.9131 
17.0105 -36.2229 25.6727 60.042 -19.4984 21.4535 109.723 -38.7613 24.9751 
154.57 -23.2924 41.3582 -159.276 -3.45913 47.5541 -125.743 2.60592 48.2062 
-99.7168 -0.0818679 24.9675 -1.66898 5.25294 23.3718 47.8411 13.1116 24.972 
116.053 -1.76707 37.3834 128.191 -9.08606 23.285 131.892 2.26974 48.9004 
170.693 12.5099 47.8414 -145.681 19.5502 24.9691 -169.708 33.5503 46.2129 
-113.227 31.9109 29.2711 -96.6984 44.1841 22.7008 -92.4365 37.6772 41.1171 
-59.4816 28.0787 34.2818 -26.9525 21.2509 23.3303 -28.2214 42.0837 41.4477 
2.58824 39.9408 24.99 32.9934 39.6348 42.3109 68.406 34.9519 42.9906 
96.5117 24.4707 24.968 121.48 23.2644 49.4573 146.475 23.2228 24.9646 
-165.379 48.3038 28.0887 -146.506 72.8013 44.4603 -123.281 52.1787 28.3396 
-75.913 58.6296 38.8169 -1.14163 74.5276 28.7993 1.03286 66.9575 47.1785 
34.4952 75.1091 40.9759 48.8377 48.0764 23.9208 68.2717 49.2486 29.0112 
66.8176 62.6027 45.8141 92.3903 74.2815 24.9771 126.067 53.9194 28.4344 
122.982 70.969 41.644 159.861 52.8014 38.0206 143.881 48.3491 49.1828 
-163.255 102.239 35.652 -100.88 78.8522 24.973 -70.5333 95.6944 29.4465 
-36.5223 79.8603 24.9738 8.30596 99.4711 20.6531 102.78 101.722 44.0447 
120.682 101.67 26.2005 125.654 97.5431 45.1202 150.855 83.9992 24.9741 
-164.595 125.369 38.5575 -133.332 116.899 24.9617 -78.6954 113.947 29.2008 
-98.6792 113.594 28.5502 -0.0994216 137.828 36.4297 34.1805 122.631 24.9667 
101.716 131.045 24.9804 166.475 115.313 25.1694 -163.46 142.391 28.1265 
-146.31 152.577 26.7352 -146.915 142.546 44.5055 -166.499 142.656 48.5168 
-126.481 151.003 28.7866 -118.093 165.556 40.288 -134.769 157.969 48.2784 
-90.2285 150.965 24.9655 -40.5262 156.243 24.9672 1.3856 152.364 22.737 
22.1563 155.128 29.866 34.439 170.531 26.4376 31.5005 168.263 49.7622 
64.46 160.267 41.2047 96.8481 165.458 29.0122 98.6539 157.227 47.9954 
126.427 167.597 35.0401 131.359 149.472 27.495 120.696 151.77 45.8331 
159.867 149.498 28.9438 147.347 164.892 31.4145 140.345 161.272 49.8581 
-148.273 -159.084 75.4105 -166.092 -150.704 78.8655 -129.231 -155.243 64.8539 
-115.814 -144.91 78.8171 -108.517 -162.161 71.839 -98.2983 -150.55 59.163 
-88.5725 -163.422 71.2605 -80.6891 -162.114 52.9365 -53.9807 -164.362 53.5937 
-39.9822 -160.499 71.6472 -23.3435 -149.871 68.5185 14.0828 -147.826 69.4938 
25.2937 -154.924 52.45 71.0159 -140.914 59.6105 82.8904 -157.452 58.3856 
83.0452 -146.412 75.0559 116.673 -161.217 66.6938 152.004 -151.586 63.3776 
168.83 -169.368 77.7617 149.21 -165.665 78.7663 -143.646 -124.47 73.1719 
-115.812 -136.138 55.4578 -100.458 -134.569 71.2713 -65.5257 -136.588 71.4515 
-28.9427 -130.824 66.2164 -32.683 -112.136 72.2403 1.80613 -111.402 66.3928 
26.0589 -135.96 58.741 51.4334 -111.923 60.4436 108.21 -130.507 52.2168 
90.8238 -139.104 57.5593 89.6638 -124.956 71.6408 107.164 -130.186 79.7771 
134.682 -119.781 64.7022 114.855 -117.674 66.2028 166.322 -124.955 58.1865 
145.499 -134.175 56.0041 -145.894 -89.5582 74.0337 -150.478 -81.2161 56.4492 
-118.947 -83.2747 75.7214 -101.48 -104.254 53.8252 -79.4414 -80.9032 71.1366 
-68.3987 -92.3726 59.0424 -47.8944 -84.3185 55.1858 -45.1669 -103.74 59.0737 
-28.051 -93.1621 67.04 94.4227 -90.3709 74.0539 125.91 -101.257 63.3478 
128.347 -83.7442 79.4378 124.612 -79.411 60.1609 160.574 -92.0638 68.6626 
-144.094 -61.0059 52.1299 -162.757 -46.6566 78.0121 -119.719 -74.4541 55.6413 
-135.728 -73.5908 67.5871 -126.92 -56.7295 61.4278 -98.5077 -75.5633 73.9497 
-102.839 -64.0407 58.1915 -94.4574 -47.537 70.1353 -60.6351 -52.613 62.7263 
-33.0358 -74.0976 70.4354 -5.82932 -76.7363 71.2083 28.3057 -69.1775 72.4455 
62.805 -74.6766 74.4894 101.879 -65.5695 50.52 93.8299 -56.1162 66.9312 
112.656 -48.6356 72.5531 127.709 -61.8973 69.298 135.09 -54.2881 52.3434 
153.532 -59.4738 58.0467 145.813 -57.1691 76.3477 -139.208 -21.3177 72.7316 
-110.612 -45.6184 58.2112 -129.334 -39.2474 70.812 -88.9819 -36.1494 50.4785 
-70.5208 -19.8159 69.7814 -40.4506 -24.3583 58.3741 -12.2094 -39.9343 73.5873 
38.8402 -42.5976 52.2695 20.1371 -37.3317 60.4989 37.7753 -35.938 77.9244 
50.8696 -29.9399 64.0535 100.974 -39.282 58.8505 101.819 -28.5249 75.6807 
116.748 -18.5148 52.6411 122.427 -39.7258 57.5573 -156.239 -15.1377 64.2778 
-142.575 -1.29787 58.3357 -145.649 0.150866 78.0409 -169.631 -0.293605 64.3617 
-81.7998 8.84047 53.6538 -104.939 -14.2408 72.616 -64.8741 -8.65357 54.1849 
-19.3847 5.28349 53.5367 27.739 -3.90071 67.4469 59.8549 6.6017 76.6383 
79.3911 -12.0929 54.4302 107.63 -7.61471 74.6002 93.3141 15.3703 71.0431 
111.974 0.448188 56.8294 166.289 -14.1527 77.4365 -158.059 19.5785 61.046 
-157.219 42.7474 58.8359 -126.035 30.9568 69.4795 -97.0392 21.701 52.2205 
-91.2187 27.5671 70.4599 -81.3813 43.733 56.6354 -78.5702 42.0255 76.3549 
-31.357 27.3685 77.8829 -7.3206 37.7589 58.4817 19.5863 27.1883 52.7938 
50.738 40.1617 72.8076 113.516 17.5719 67.04 147.355 21.7848 74.9047 
-113.724 67.3405 55.4224 -129.928 65.3713 74.354 -97.8618 54.8796 50.2869 
-97.3938 49.0254 78.298 -77.4112 76.2155 69.0258 -29.646 61.6235 71.0018 
[...]
POINT_DATA 2000
FIELD FieldData 7
id 1 2000 int
428 203 284 211 242 249 417 196 240 
380 206 82 365 389 355 309 333 420 
224 281 109 125 184 160 298 285 105 
319 217 360 205 317 426 295 444 79 
103 293 233 158 226 358 357 352 140 
139 280 446 435 276 398 369 154 429 
121 406 302 452 371 388 112 88 127 
464 439 172 227 204 384 455 187 142 
418 323 450 157 266 297 221 107 252 
395 104 185 222 407 308 201 294 451 
269 141 322 90 197 273 215 390 405 
136 167 278 93 306 393 272 255 433 
171 311 345 351 381 124 289 332 130 
432 394 248 216 94 261 419 174 198 
177 98 102 70 258 84 422 74 461 
378 77 78 150 256 342 241 131 100 
277 244 437 42 409 3 113 5 33 
460 43 368 156 190 238 321 117 53 
359 31 183 65 72 339 144 210 138 
202 152 349 376 316 182 448 411 99 
83 55 29 331 38 27 263 415 129 
9 377 463 15 366 62 69 220 353 
51 268 47 379 337 457 404 44 170 
186 80 134 11 214 396 17 135 231 
48 169 21 336 4 459 239 151 348 
75 279 192 330 73 327 391 195 161 
367 56 403 13 434 427 410 375 28 
265 35 147 340 343 19 63 110 250 
251 208 370 97 402 335 6 71 300 
173 290 283 58 76 143 162 86 454 
81 401 120 392 1206 442 858 1703 1312 
194 200 303 347 1479 1802 243 307 301 
312 32 936 1053 1194 8 386 430 34 
363 260 10 292 57 87 286 114 975 
447 305 199 207 287 397 1214 14 291 
310 228 149 85 20 374 257 443 39 
236 49 423 123 166 95 326 89 41 
425 318 67 399 412 372 188 237 341 
328 1170 1097 246 905 218 213 1894 45 
350 414 179 438 408 181 155 148 275 
346 1493 436 126 46 234 7 66 264 
12 163 92 362 1607 271 116 54 132 
108 344 1920 354 324 270 22 413 40 
122 267 176 1589 25 1 373 193 400 
1413 254 262 23 465 329 209 387 245 
115 385 230 50 165 259 223 776 91 
37 424 296 178 101 137 338 106 146 
364 299 1954 61 64 60 314 212 775 
18 466 325 274 219 153 24 1233 932 
164 133 1173 1189 445 356 334 313 453 
361 382 168 16 111 145 941 235 441 
191 1408 1627 1176 1398 1229 1636 1832 1532 
1146 1945 1481 68 1843 1866 1456 180 1721 
1462 1055 912 118 988 1400 1787 1023 1753 
1118 1827 704 253 458 1303 119 1927 631 
1837 1442 829 915 1010 557 620 504 1940 
229 1724 946 1042 1942 1892 1252 1710 986 
1722 1218 1477 1955 989 1602 883 950 1963 
1762 383 416 1354 899 1914 225 1063 1473 
641 1198 128 1646 1633 247 59 887 1885 
30 1756 672 1969 852 1564 36 304 96 
787 1735 288 1340 747 1979 1593 669 1296 
1139 1083 159 1740 1548 1080 1622 1114 26 
971 456 838 1488 2 1159 1179 1337 1697 
812 1014 913 1279 925 1191 1662 1568 449 
232 1868 1776 485 1682 597 1182 431 282 
1445 421 788 987 1924 1457 1990 1030 1371 
1566 1571 848 1559 1897 175 462 1637 1864 
1440 1106 1246 877 1898 981 320 1008 1661 
579 189 1546 1086 1282 1788 1694 822 1653 
969 621 52 1184 1601 1846 1938 1781 1140 
440 1612 723 934 315 1676 1530 1790 711 
1092 1605 1714 1292 860 1151 1280 991 1814 
577 1739 790 808 1464 491 1137 1484 1875 
1128 1104 574 1270 552 1060 789 717 1289 
690 1338 1931 649 996 1417 709 675 1877 
754 733 472 791 1669 782 1393 1922 825 
940 1046 1348 1436 571 1992 507 859 1161 
798 1658 518 1939 1454 608 515 1893 1309 
955 1582 1614 1487 625 1671 999 1976 1187 
1842 1995 810 980 695 1425 1476 895 1599 
483 1800 1613 1277 1157 628 1286 661 882 
1224 1003 556 781 866 1900 1806 1472 1965 
480 757 1505 476 1929 944 1463 698 619 
964 1536 1804 706 1860 1624 1402 903 1881 
1256 1459 1947 1901 512 1784 1667 797 494 
1438 1045 1526 1986 1839 1318 1033 753 1861 
593 535 1245 1982 1351 1785 1666 659 687 
1933 1640 1610 1380 1132 992 1435 665 1512 
1623 953 857 1311 1271 901 1196 479 1838 
1331 836 1253 1854 956 1911 1200 978 549 
500 1544 1673 949 823 1551 863 960 1997 
1448 640 471 702 1754 1416 1896 1089 990 
1718 1406 1503 1098 1572 1254 1579 551 1977 
931 750 1415 622 1069 1590 1049 1962 1527 
985 490 802 1934 1887 894 1704 1002 519 
1238 1326 613 1240 1775 1539 1685 553 1403 
1554 1908 609 983 997 1148 1199 1871 868 
1291 1634 524 844 1734 1195 1930 1315 567 
1394 1202 703 1968 481 713 1319 774 1925 
864 1910 502 1767 1619 1329 1983 1081 1153 
1217 1035 645 473 1793 1129 1295 539 984 
1012 477 1381 843 1826 1913 880 714 547 
1345 766 1149 1772 1737 1906 1600 1410 947 
1596 1364 726 1446 1510 1249 1205 917 734 
1334 662 525 973 658 544 1700 660 807 
1050 761 1219 1028 1409 1377 2000 1521 1805 
1465 1084 886 1186 1594 794 1895 1801 1065 
508 1973 1306 572 584 1807 1603 1391 1715 
495 1621 1899 554 469 684 506 1902 942 
1323 496 1905 1560 865 1684 1828 1203 1344 
918 1006 824 1750 542 486 1138 1486 909 
977 1220 1746 1369 1180 1399 1650 1628 1048 
834 596 1154 654 1915 1857 1972 642 979 
1105 1232 1443 1362 870 1040 861 1999 1241 
612 1553 1496 1222 1397 520 1223 1226 1815 
1518 1850 586 505 1745 1130 1760 1489 623 
1904 762 1741 1470 907 1373 847 1654 1889 
1313 1274 1562 1166 1255 1833 1975 862 1917 
1565 1038 694 1643 1820 685 513 1082 1499 
1923 587 832 933 1444 1859 1469 1037 1360 
1844 611 1584 718 1691 1586 1731 1651 923 
1492 1711 1359 1285 1698 1126 1174 879 1520 
1070 741 1921 1117 1165 1547 820 1424 1789 
749 1264 1293 644 1290 1523 1047 1852 1061 
772 1932 799 732 1639 1474 1987 688 578 
1778 1236 1094 1668 510 1299 1577 484 720 
1870 1263 963 630 1795 916 1352 746 1587 
1325 1374 1960 982 1414 1829 816 1355 696 
770 1181 707 785 1550 976 1952 1529 548 
1872 1670 1365 1093 1405 1743 994 1471 1891 
1310 674 1683 1043 498 1514 1125 634 1251 
671 1783 1935 1386 1903 773 962 1873 786 
972 516 1131 809 1110 1575 1269 1239 1491 
1052 1017 643 1841 1576 618 813 1581 908 
1335 1067 1029 1709 546 1779 475 1441 1725 
1197 1797 1383 1890 1495 1162 1674 1774 1758 
1552 1847 529 1100 550 543 993 1429 1322 
487 1729 635 1136 1133 760 1657 651 1948 
1260 603 1346 1183 664 1822 1759 1949 1504 
1755 615 1434 1208 872 1261 1771 1757 679 
1142 538 1645 1119 764 1123 1845 1834 1091 
1076 1382 1461 740 1347 1549 1713 1966 742 
1273 970 691 1821 656 902 821 1420 638 
1107 1516 560 1629 1573 1515 1808 1237 1531 
1327 1366 1534 954 1497 818 1272 763 1770 
1056 1525 503 558 835 1958 1168 1508 767 
1936 670 1235 854 605 1308 1971 715 1390 
1231 1210 724 627 1609 1498 489 1835 1840 
1631 1298 737 744 1597 1675 884 1054 1031 
705 1230 1044 1782 1617 1719 1689 1330 1088 
900 1946 1909 878 1216 1786 1830 1649 534 
1466 892 591 650 1882 569 830 1375 855 
876 965 1768 1287 1591 1068 1638 1079 1991 
845 653 1752 841 1396 1967 639 1242 1387 
1353 1695 1699 1981 1728 666 1738 1912 1540 
536 478 1626 1988 1075 867 1155 1349 1961 
1712 827 1595 1855 1791 1389 1257 873 1025 
1062 1511 1288 1644 1431 1121 1500 1641 828 
1585 839 1819 1451 1616 1749 1421 1101 1358 
1944 1569 924 564 1164 626 869 881 1705 
566 1185 948 958 1517 722 1192 482 1672 
889 851 1022 575 1213 1019 1888 1792 533 
1777 1243 1201 846 1468 739 1543 1957 1011 
673 1825 1799 1803 1611 1458 680 468 1538 
1265 939 511 795 576 1158 541 1096 1592 
1502 777 1428 719 1026 765 1449 1009 922 
1057 1372 914 537 1314 1247 1090 521 581 
768 1765 589 1212 966 1074 1085 1363 961 
967 817 1537 1171 1302 1696 633 501 1113 
888 1284 1659 522 850 1879 1032 683 598 
1541 1439 1677 1301 1615 897 585 1385 806 
1943 1021 1951 751 689 1077 959 1324 497 
1341 1918 974 1102 1145 499 1430 1211 1234 
745 1167 1475 601 1567 1209 1268 1994 1275 
682 831 1095 1000 1736 1836 1367 1574 1221 
1519 951 1141 891 1485 1478 759 699 610 
1294 663 1655 1555 614 1708 604 545 531 
1730 1604 1433 929 1127 1702 801 1720 815 
1542 1321 842 1665 1688 943 1652 1798 493 
600 1407 562 1959 1563 826 1664 893 1143 
1175 1120 676 1858 1751 1225 1648 1588 1625 
632 1813 731 617 1259 1066 1112 636 708 
1524 1865 1039 1869 1078 1707 1328 1190 1874 
607 1701 1051 1680 1278 1392 1848 1818 898 
890 1036 1455 1876 803 1087 532 906 1528 
1993 1156 1300 1317 1570 1886 701 1248 527 
1706 1356 1996 1941 755 1937 1342 1024 1336 
646 526 1244 716 1692 602 1535 488 1452 
1207 1919 756 678 1583 769 1160 492 1426 
1283 1204 1111 1606 1811 1578 594 1989 1215 
1727 1172 648 1656 1998 1297 1376 1985 1001 
1956 1368 930 1618 1404 1761 563 1103 735 
771 1663 728 568 1687 606 998 1690 725 
1262 1147 1450 1177 624 1716 1974 1561 1401 
729 1178 710 1883 1978 1073 1034 1276 1020 
1763 588 1116 1794 911 1134 1412 528 1227 
1647 517 629 1748 871 784 1849 1258 1824 
1984 555 1608 727 692 1152 1831 736 1144 
1004 748 796 1411 1384 1281 595 1773 1545 
1726 1115 590 693 580 1733 474 920 1007 
957 910 1742 1681 1419 1686 919 849 1660 
1494 1816 1378 1679 1557 904 738 926 1766 
1769 1370 1350 937 1764 681 945 1635 1357 
1812 783 1964 540 1884 780 779 1717 1598 
1447 833 1809 1437 1467 1427 1796 1266 583 
1880 1620 1379 1928 1339 1556 667 1072 1316 
1058 1856 467 1693 1432 1507 1320 1483 1744 
1533 530 1059 1423 1453 1480 885 1817 509 
1630 1343 1188 686 1460 800 805 1916 995 
1513 582 1005 875 559 657 837 1863 1642 
758 599 1580 840 565 1015 1395 1041 570 
792 1810 668 1853 1747 928 968 1509 1388 
811 1228 1422 721 1950 819 1027 523 1099 
1064 1823 647 874 616 952 1953 1163 1867 
896 1501 778 677 592 927 1122 1250 804 
938 1332 1169 652 1482 1970 1522 1862 514 
752 712 1016 1109 1980 1723 655 1418 1333 
1124 573 793 1490 637 1108 561 1267 935 
730 1878 853 856 1851 1632 1150 1305 697 
1780 1361 1071 1732 1678 1304 1558 1907 1135 
1013 921 700 1307 1018 743 814 1193 1506 
470 1926 
type 1 2000 int
1 1 1 1 1 1 1 1 1 
1 1 1 1 1 1 1 1 1 
1 1 1 1 1 1 1 1 1 
1 1 1 1 1 1 1 1 1 
1 1 1 1 1 1 1 1 1 
1 1 1 1 1 1 1 1 1 
1 1 1 1 1 1 1 1 1 
1 1 1 1 1 1 1 1 1 
1 1 1 1 1 1 1 1 1 
1 1 1 1 1 1 1 1 1 
1 1 1 1 1 1 1 1 1 
1 1 1 1 1 1 1 1 1 
1 1 1 1 1 1 1 1 1 
1 1 1 1 1 1 1 1 1 
1 1 1 1 1 1 1 1 1 
1 1 1 1 1 1 1 1 1 
1 1 1 1 1 1 1 1 1 
1 1 1 1 1 1 1 1 1 
1 1 1 1 1 1 1 1 1 
1 1 1 1 1 1 1 1 1 
1 1 1 1 1 1 1 1 1 
1 1 1 1 1 1 1 1 1 
1 1 1 1 1 1 1 1 1 
1 1 1 1 1 1 1 1 1 
1 1 1 1 1 1 1 1 1 
1 1 1 1 1 1 1 1 1 
1 1 1 1 1 1 1 1 1 
1 1 1 1 1 1 1 1 1 
1 1 1 1 1 1 1 1 1 
1 1 1 1 1 1 1 1 1 
1 1 1 1 1 1 1 1 1 
1 1 1 1 1 1 1 1 1 
1 1 1 1 1 1 1 1 1 
1 1 1 1 1 1 1 1 1 
1 1 1 1 1 1 1 1 1 
1 1 1 1 1 1 1 1 1 
1 1 1 1 1 1 1 1 1 
1 1 1 1 1 1 1 1 1 
1 1 1 1 1 1 1 1 1 
1 1 1 1 1 1 1 1 1 
1 1 1 1 1 1 1 1 1 
1 1 1 1 1 1 1 1 1 
1 1 1 1 1 1 1 1 1 
1 1 1 1 1 1 1 1 1 
1 1 1 1 1 1 1 1 1 
1 1 1 1 1 1 1 1 1 
1 1 1 1 1 1 1 1 1 
1 1 1 1 1 1 1 1 1 
1 1 1 1 1 1 1 1 1 
1 1 1 1 1 1 1 1 1 
1 1 1 1 1 1 1 1 1 
1 1 1 1 1 1 1 1 1 
1 1 1 1 1 1 1 1 1 
1 1 1 1 1 1 1 1 1 
1 1 1 1 1 1 1 1 1 
1 1 1 1 1 1 1 1 1 
1 1 1 1 1 1 1 1 1 
1 1 1 1 1 1 1 1 1 
1 1 1 1 1 1 1 1 1 
1 1 1 1 1 1 1 1 1 
1 1 1 1 1 1 1 1 1 
1 1 1 1 1 1 1 1 1 
1 1 1 1 1 1 1 1 1 
1 1 1 1 1 1 1 1 1 
1 1 1 1 1 1 1 1 1 
1 1 1 1 1 1 1 1 1 
1 1 1 1 1 1 1 1 1 
1 1 1 1 1 1 1 1 1 
1 1 1 1 1 1 1 1 1 
1 1 1 1 1 1 1 1 1 
1 1 1 1 1 1 1 1 1 
1 1 1 1 1 1 1 1 1 
1 1 1 1 1 1 1 1 1 
1 1 1 1 1 1 1 1 1 
1 1 1 1 1 1 1 1 1 
1 1 1 1 1 1 1 1 1 
1 1 1 1 1 1 1 1 1 
1 1 1 1 1 1 1 1 1 
1 1 1 1 1 1 1 1 1 
1 1 1 1 1 1 1 1 1 
1 1 1 1 1 1 1 1 1 
1 1 1 1 1 1 1 1 1 
1 1 1 1 1 1 1 1 1 
1 1 1 1 1 1 1 1 1 
1 1 1 1 1 1 1 1 1 
1 1 1 1 1 1 1 1 1 
1 1 1 1 1 1 1 1 1 
1 1 1 1 1 1 1 1 1 
1 1 1 1 1 1 1 1 1 
1 1 1 1 1 1 1 1 1 
1 1 1 1 1 1 1 1 1 
1 1 1 1 1 1 1 1 1 
1 1 1 1 1 1 1 1 1 
1 1 1 1 1 1 1 1 1 
1 1 1 1 1 1 1 1 1 
1 1 1 1 1 1 1 1 1 
1 1 1 1 1 1 1 1 1 
1 1 1 1 1 1 1 1 1 
1 1 1 1 1 1 1 1 1 
1 1 1 1 1 1 1 1 1 
1 1 1 1 1 1 1 1 1 
1 1 1 1 1 1 1 1 1 
1 1 1 1 1 1 1 1 1 
1 1 1 1 1 1 1 1 1 
1 1 1 1 1 1 1 1 1 
1 1 1 1 1 1 1 1 1 
1 1 1 1 1 1 1 1 1 
1 1 1 1 1 1 1 1 1 
1 1 1 1 1 1 1 1 1 
1 1 1 1 1 1 1 1 1 
1 1 1 1 1 1 1 1 1 
1 1 1 1 1 1 1 1 1 
1 1 1 1 1 1 1 1 1 
1 1 1 1 1 1 1 1 1 
1 1 1 1 1 1 1 1 1 
1 1 1 1 1 1 1 1 1 
1 1 1 1 1 1 1 1 1 
1 1 1 1 1 1 1 1 1 
1 1 1 1 1 1 1 1 1 
1 1 1 1 1 1 1 1 1 
1 1 1 1 1 1 1 1 1 
1 1 1 1 1 1 1 1 1 
1 1 1 1 1 1 1 1 1 
1 1 1 1 1 1 1 1 1 
1 1 1 1 1 1 1 1 1 
1 1 1 1 1 1 1 1 1 
1 1 1 1 1 1 1 1 1 
1 1 1 1 1 1 1 1 1 
1 1 1 1 1 1 1 1 1 
1 1 1 1 1 1 1 1 1 
1 1 1 1 1 1 1 1 1 
1 1 1 1 1 1 1 1 1 
1 1 1 1 1 1 1 1 1 
1 1 1 1 1 1 1 1 1 
1 1 1 1 1 1 1 1 1 
1 1 1 1 1 1 1 1 1 
1 1 1 1 1 1 1 1 1 
1 1 1 1 1 1 1 1 1 
1 1 1 1 1 1 1 1 1 
1 1 1 1 1 1 1 1 1 
1 1 1 1 1 1 1 1 1 
1 1 1 1 1 1 1 1 1 
1 1 1 1 1 1 1 1 1 
1 1 1 1 1 1 1 1 1 
1 1 1 1 1 1 1 1 1 
1 1 1 1 1 1 1 1 1 
1 1 1 1 1 1 1 1 1 
1 1 1 1 1 1 1 1 1 
1 1 1 1 1 1 1 1 1 
1 1 1 1 1 1 1 1 1 
1 1 1 1 1 1 1 1 1 
1 1 1 1 1 1 1 1 1 
1 1 1 1 1 1 1 1 1 
1 1 1 1 1 1 1 1 1 
1 1 1 1 1 1 1 1 1 
1 1 1 1 1 1 1 1 1 
1 1 1 1 1 1 1 1 1 
1 1 1 1 1 1 1 1 1 
1 1 1 1 1 1 1 1 1 
1 1 1 1 1 1 1 1 1 
1 1 1 1 1 1 1 1 1 
1 1 1 1 1 1 1 1 1 
1 1 1 1 1 1 1 1 1 
1 1 1 1 1 1 1 1 1 
1 1 1 1 1 1 1 1 1 
1 1 1 1 1 1 1 1 1 
1 1 1 1 1 1 1 1 1 
1 1 1 1 1 1 1 1 1 
1 1 1 1 1 1 1 1 1 
1 1 1 1 1 1 1 1 1 
1 1 1 1 1 1 1 1 1 
1 1 1 1 1 1 1 1 1 
1 1 1 1 1 1 1 1 1 
1 1 1 1 1 1 1 1 1 
1 1 1 1 1 1 1 1 1 
1 1 1 1 1 1 1 1 1 
1 1 1 1 1 1 1 1 1 
1 1 1 1 1 1 1 1 1 
1 1 1 1 1 1 1 1 1 
1 1 1 1 1 1 1 1 1 
1 1 1 1 1 1 1 1 1 
1 1 1 1 1 1 1 1 1 
1 1 1 1 1 1 1 1 1 
1 1 1 1 1 1 1 1 1 
1 1 1 1 1 1 1 1 1 
1 1 1 1 1 1 1 1 1 
1 1 1 1 1 1 1 1 1 
1 1 1 1 1 1 1 1 1 
1 1 1 1 1 1 1 1 1 
1 1 1 1 1 1 1 1 1 
1 1 1 1 1 1 1 1 1 
1 1 1 1 1 1 1 1 1 
1 1 1 1 1 1 1 1 1 
1 1 1 1 1 1 1 1 1 
1 1 1 1 1 1 1 1 1 
1 1 1 1 1 1 1 1 1 
1 1 1 1 1 1 1 1 1 
1 1 1 1 1 1 1 1 1 
1 1 1 1 1 1 1 1 1 
1 1 1 1 1 1 1 1 1 
1 1 1 1 1 1 1 1 1 
1 1 1 1 1 1 1 1 1 
1 1 1 1 1 1 1 1 1 
1 1 1 1 1 1 1 1 1 
1 1 1 1 1 1 1 1 1 
1 1 1 1 1 1 1 1 1 
1 1 1 1 1 1 1 1 1 
1 1 1 1 1 1 1 1 1 
1 1 1 1 1 1 1 1 1 
1 1 1 1 1 1 1 1 1 
1 1 1 1 1 1 1 1 1 
1 1 1 1 1 1 1 1 1 
1 1 1 1 1 1 1 1 1 
1 1 1 1 1 1 1 1 1 
1 1 1 1 1 1 1 1 1 
1 1 1 1 1 1 1 1 1 
1 1 1 1 1 1 1 1 1 
1 1 1 1 1 1 1 1 1 
1 1 1 1 1 1 1 1 1 
1 1 1 1 1 1 1 1 1 
1 1 1 1 1 1 1 1 1 
1 1 1 1 1 1 1 1 1 
1 1 
i 3 2000 int
0 0 0 0 0 0 0 0 0 
0 0 0 0 0 0 0 0 0 
0 0 0 0 0 0 0 0 0 
0 0 0 0 1 0 0 0 0 
0 0 0 0 0 0 0 0 0 
0 0 0 0 0 0 0 0 0 
-1 0 0 0 0 0 0 0 0 
0 0 0 0 0 0 0 0 0 
0 0 0 0 0 0 0 0 0 
0 0 0 0 0 0 0 0 0 
0 0 0 0 0 0 0 0 0 
0 0 0 0 0 0 0 0 0 
0 0 0 0 0 0 0 0 0 
0 0 0 0 0 0 0 0 0 
0 0 0 0 0 0 0 0 0 
0 0 0 0 0 0 0 0 0 
0 0 0 0 0 0 0 0 0 
0 0 0 0 0 0 0 0 0 
0 0 0 0 0 0 0 0 0 
0 0 0 1 0 0 0 0 0 
0 0 0 0 0 0 0 0 0 
0 0 0 0 0 0 0 0 0 
0 0 0 0 0 0 1 0 0 
0 0 0 0 0 0 0 0 0 
0 0 0 0 0 0 0 0 0 
0 0 0 0 0 0 0 0 0 
0 0 0 0 0 0 0 0 0 
0 0 0 0 0 0 0 0 0 
0 0 0 0 0 0 0 0 0 
0 0 0 0 0 0 0 0 0 
0 0 0 0 0 0 0 0 0 
0 0 0 0 0 0 0 0 0 
0 0 0 0 0 0 1 0 0 
0 0 0 0 0 0 0 0 0 
0 0 0 0 0 0 0 0 0 
0 0 0 0 0 0 0 0 0 
0 0 0 0 0 0 0 0 0 
0 0 0 0 0 0 0 0 0 
0 0 0 0 -1 0 0 0 0 
0 0 0 0 0 0 0 0 0 
0 0 0 0 0 0 0 0 0 
0 0 0 0 0 0 0 -1 0 
0 0 0 0 0 0 0 -1 0 
0 0 0 0 0 0 0 0 0 
0 0 0 0 0 0 0 0 0 
0 0 0 0 0 0 0 0 0 
0 0 0 0 0 0 0 1 0 
0 0 0 0 0 0 0 0 0 
0 0 0 0 0 0 0 0 0 
0 0 0 0 0 0 0 0 0 
0 0 0 0 0 0 0 0 0 
0 0 0 0 0 0 0 0 0 
0 0 0 0 0 0 0 0 0 
0 0 0 0 0 0 0 0 0 
0 0 0 0 0 0 0 0 0 
0 0 0 0 0 0 0 0 0 
0 0 0 0 0 0 0 0 0 
1 0 0 0 0 0 0 0 0 
0 0 0 0 0 0 0 0 0 
0 0 0 0 0 0 0 0 0 
0 0 0 0 0 0 0 0 0 
0 0 0 0 0 0 0 0 0 
0 0 0 0 0 0 0 0 0 
0 0 0 0 0 0 0 0 0 
0 0 0 0 0 0 0 0 0 
0 0 0 0 0 0 0 0 0 
0 0 0 0 0 0 0 0 0 
0 0 0 0 0 0 0 0 0 
0 0 0 0 0 0 1 0 0 
0 0 0 0 0 0 0 0 0 
0 0 0 0 0 0 0 0 0 
0 0 0 0 0 0 0 0 0 
0 0 0 0 0 0 0 0 0 
1 0 0 0 0 0 0 0 0 
0 0 0 0 0 0 0 0 0 
0 0 0 0 0 0 0 0 0 
0 0 0 0 0 0 0 0 0 
0 0 0 0 0 0 0 0 0 
1 0 0 0 0 0 0 0 0 
0 0 0 0 0 0 0 0 0 
0 0 0 0 0 0 0 0 0 
0 0 0 0 0 0 0 0 0 
0 0 0 0 0 0 0 0 0 
0 0 0 -1 0 0 0 0 0 
0 0 0 0 0 0 0 0 0 
0 0 0 0 0 0 0 0 0 
0 0 0 0 0 0 0 0 0 
0 0 0 0 0 0 0 -1 0 
0 0 0 0 0 0 0 0 0 
0 0 0 0 0 0 0 0 0 
0 0 0 0 0 0 0 0 0 
0 0 0 0 0 0 0 0 0 
0 0 0 0 0 0 0 0 0 
0 0 0 0 0 0 0 0 0 
0 1 0 0 0 0 0 0 0 
0 0 0 0 0 0 0 1 0 
0 0 0 0 0 0 0 0 0 
-1 0 0 0 0 0 0 0 0 
0 0 0 0 0 0 0 0 0 
0 0 0 0 0 0 0 0 0 
0 0 0 0 0 0 0 0 0 
0 0 0 0 0 0 0 0 0 
0 0 0 0 0 0 -1 0 0 
0 0 0 0 0 0 0 0 0 
0 0 0 0 0 0 0 0 0 
0 0 0 0 0 0 0 0 0 
0 0 0 0 0 0 0 0 0 
0 0 0 0 0 0 0 0 0 
0 0 0 0 0 0 0 0 0 
0 0 0 0 0 0 0 0 0 
0 0 0 0 0 0 0 0 0 
0 0 0 0 0 0 0 0 0 
0 0 0 0 0 0 0 0 0 
0 0 0 0 0 0 0 0 0 
0 0 0 0 0 0 0 0 0 
0 0 0 0 0 0 0 0 0 
0 0 0 0 0 0 0 0 0 
0 0 0 0 0 0 0 0 0 
0 0 0 0 0 0 0 0 0 
0 0 0 0 0 0 0 0 0 
0 0 0 1 0 0 1 0 0 
0 0 0 0 0 0 0 0 0 
0 0 0 0 0 0 0 0 0 
0 0 0 0 0 0 0 0 0 
0 0 0 0 0 0 0 0 0 
0 0 0 0 0 0 0 0 0 
0 0 0 0 0 0 0 0 0 
0 0 0 0 0 0 0 0 0 
0 0 0 0 0 0 0 0 0 
0 0 0 0 0 0 0 0 0 
0 0 0 0 0 0 0 0 0 
0 0 0 0 0 0 0 0 0 
0 0 0 0 0 0 0 0 0 
0 0 0 0 0 0 0 0 0 
0 0 0 0 0 0 -1 0 0 
0 0 0 0 0 0 0 0 0 
0 0 0 0 0 0 0 0 0 
0 0 0 0 0 0 0 0 0 
0 0 0 0 0 0 0 0 0 
0 0 0 0 0 0 0 0 0 
0 0 0 0 0 0 -1 0 0 
0 0 0 0 0 0 0 0 0 
0 0 0 0 0 0 0 0 0 
0 0 0 0 0 0 0 0 0 
0 0 0 0 0 0 0 0 0 
0 0 0 0 0 0 0 0 0 
0 0 0 0 0 0 0 0 0 
0 -1 0 0 0 0 0 0 0 
0 0 0 0 0 0 0 0 0 
0 0 0 0 0 0 0 0 0 
0 0 0 0 0 0 0 0 0 
0 0 0 0 0 0 0 0 0 
0 0 0 0 0 0 0 0 0 
-1 0 0 0 0 0 0 0 0 
1 0 0 0 0 0 0 0 0 
0 0 0 0 0 0 0 0 0 
0 1 0 0 0 0 0 0 0 
0 0 0 0 0 0 0 0 0 
0 0 0 0 1 0 0 0 0 
0 0 0 0 0 0 0 0 0 
0 0 0 0 0 0 0 1 0 
0 0 0 0 0 0 0 0 0 
0 0 0 0 0 0 0 0 0 
0 0 0 0 0 0 0 0 0 
0 0 0 0 0 0 0 0 0 
0 0 0 0 0 0 1 0 0 
0 0 0 0 0 0 0 0 0 
0 0 0 0 0 0 0 0 0 
0 0 0 0 0 0 0 0 0 
0 0 0 0 0 0 0 0 0 
0 0 0 0 0 0 0 0 0 
0 0 0 0 0 0 0 0 0 
0 0 0 0 0 0 0 0 0 
0 0 0 0 0 0 0 0 0 
0 0 0 0 0 0 0 0 0 
0 0 0 0 0 0 0 0 0 
0 0 0 0 0 0 0 0 0 
0 0 0 0 0 0 0 0 0 
0 0 0 0 0 0 0 0 0 
0 0 0 0 0 0 0 0 0 
0 0 0 0 0 0 0 0 0 
0 0 0 0 0 0 0 0 0 
0 0 0 0 0 0 0 0 0 
0 0 0 0 0 0 0 0 0 
0 0 0 0 0 0 0 0 0 
0 0 0 0 0 0 1 0 0 
0 0 0 0 0 0 0 0 0 
0 0 0 0 0 0 0 0 0 
0 0 0 0 0 0 0 0 0 
0 0 0 0 0 0 0 0 0 
0 0 0 0 0 0 0 0 0 
0 0 0 0 0 0 0 0 0 
0 0 0 0 0 0 0 0 0 
0 0 0 0 0 0 0 0 0 
0 0 0 0 0 0 0 0 0 
0 0 0 0 0 0 0 0 0 
0 0 0 0 0 0 0 0 0 
0 0 0 0 0 0 0 0 0 
0 0 0 0 0 0 0 0 0 
0 0 0 0 0 0 0 0 0 
0 0 0 0 0 0 -1 0 0 
0 0 0 0 0 0 0 0 0 
0 0 0 0 0 0 0 0 0 
0 0 0 0 0 0 0 0 0 
0 0 0 0 0 0 0 0 0 
0 0 0 0 0 0 0 0 0 
0 0 0 0 0 0 0 0 0 
0 0 0 0 0 0 0 0 0 
-1 0 0 0 0 0 0 -1 0 
1 0 0 1 0 0 0 0 0 
0 -1 0 0 0 0 0 0 0 
0 0 0 0 0 0 0 0 0 
0 0 0 0 0 0 0 -1 0 
0 0 0 0 0 0 0 -1 0 
0 0 0 0 -1 0 0 0 0 
1 0 0 0 0 0 0 0 0 
0 0 0 0 0 0 0 0 0 
0 0 0 0 0 0 0 0 0 
0 0 0 0 0 0 0 0 0 
0 0 0 0 0 0 0 0 0 
0 0 0 0 0 0 0 0 0 
0 0 0 0 0 0 0 0 0 
0 0 0 0 0 0 0 0 0 
0 0 0 0 0 0 0 0 0 
0 0 0 0 0 0 0 0 0 
0 0 0 0 0 0 0 0 0 
0 0 0 0 0 0 0 0 0 
0 0 0 0 0 0 0 0 0 
0 0 0 0 0 0 0 0 0 
0 0 0 0 0 0 0 0 0 
0 0 0 0 0 0 0 0 0 
0 0 0 0 0 0 0 0 0 
0 0 0 0 0 0 0 0 0 
0 0 0 0 0 0 0 0 0 
0 0 0 0 0 0 0 0 0 
0 0 0 0 0 0 0 0 0 
0 0 0 0 0 0 0 0 0 
-1 0 0 0 0 0 0 0 0 
0 0 0 0 0 0 0 0 0 
0 0 0 0 0 0 0 0 0 
0 0 0 0 0 0 0 0 0 
0 0 0 0 0 0 1 0 0 
0 0 0 0 0 0 0 0 0 
0 0 0 0 0 0 0 0 0 
0 0 0 1 0 0 0 0 0 
0 0 0 0 0 0 0 0 0 
0 0 0 0 0 0 0 0 0 
0 0 0 0 0 0 0 0 0 
0 0 0 0 0 0 0 0 0 
0 0 0 0 0 0 0 0 0 
0 0 0 0 0 0 0 0 0 
0 0 0 0 0 0 0 0 0 
0 0 0 0 0 0 0 0 0 
0 0 0 0 0 0 1 0 0 
0 0 0 0 0 0 0 0 0 
0 0 0 0 0 0 0 0 0 
0 0 0 0 0 0 0 0 0 
0 0 0 0 0 0 0 0 0 
1 0 0 0 -1 0 0 0 0 
0 0 0 0 0 0 0 0 0 
0 0 0 0 0 0 0 0 0 
0 0 0 0 0 0 0 0 0 
0 0 0 0 0 0 0 0 0 
0 0 0 0 0 0 0 0 0 
0 0 0 0 0 0 0 0 0 
0 0 0 0 0 0 0 0 0 
0 0 0 0 0 0 0 0 0 
0 0 0 0 0 0 0 0 0 
0 0 0 0 1 0 0 1 0 
0 0 0 0 0 0 0 0 0 
0 0 0 0 0 0 0 0 0 
0 0 0 0 0 0 0 0 0 
0 0 0 0 0 0 0 0 0 
0 0 0 0 0 0 0 0 0 
0 0 0 0 0 0 -1 0 0 
0 0 0 0 0 0 1 0 0 
0 0 0 0 0 0 0 0 0 
0 0 0 0 0 0 0 0 0 
0 0 0 0 0 0 0 0 0 
0 0 0 0 0 0 1 0 0 
0 0 0 0 0 0 0 0 0 
0 0 0 0 0 0 0 0 0 
0 0 0 0 0 0 0 0 0 
0 0 0 0 0 0 0 0 0 
0 0 0 0 0 0 0 0 0 
0 0 0 0 0 0 0 0 0 
0 0 0 0 0 0 0 0 0 
0 0 0 0 0 0 0 0 0 
0 0 0 0 0 0 0 0 0 
0 0 0 0 0 0 0 0 0 
0 0 0 0 0 0 0 0 0 
0 0 0 0 0 0 0 0 0 
-1 0 0 0 0 0 0 0 0 
0 0 0 0 0 0 0 0 0 
0 0 0 0 0 0 0 0 0 
0 0 0 0 0 0 0 0 0 
0 0 0 0 0 0 0 0 0 
1 0 0 0 0 0 0 0 0 
0 0 0 0 0 0 0 0 0 
0 0 0 0 0 0 0 0 0 
-1 0 0 0 0 0 0 0 0 
0 0 0 0 0 0 0 0 0 
0 0 0 0 0 0 0 0 0 
0 0 0 0 0 0 0 0 0 
0 0 0 0 0 0 0 0 0 
0 0 0 0 0 0 0 0 0 
0 0 0 0 0 0 0 0 0 
0 0 0 0 0 0 0 0 0 
0 0 0 0 0 0 0 0 0 
0 0 0 0 0 0 0 0 0 
0 0 0 0 0 0 0 0 0 
0 0 0 0 0 0 0 0 0 
0 0 0 0 0 0 0 0 0 
0 0 0 0 0 0 0 0 0 
0 0 0 0 0 0 0 0 0 
0 -1 0 0 0 0 0 0 0 
-1 0 0 0 0 0 0 0 0 
0 0 0 0 0 0 0 0 0 
0 0 0 0 0 0 0 0 0 
0 0 0 0 0 0 0 1 0 
0 0 0 0 0 0 0 0 0 
0 0 0 0 0 0 0 0 0 
0 0 0 0 0 0 0 0 0 
0 0 0 0 0 0 0 0 0 
0 0 0 0 0 0 0 0 0 
0 0 0 0 0 0 0 0 0 
0 0 0 0 0 0 0 0 0 
0 0 0 0 0 0 0 0 0 
0 0 0 0 0 0 0 0 0 
0 0 0 0 0 0 0 0 0 
0 0 0 0 0 0 0 0 0 
0 0 0 0 0 0 0 0 0 
0 0 0 0 0 0 0 0 0 
0 0 0 0 0 0 0 0 0 
0 0 0 0 0 0 0 0 0 
0 0 0 0 0 0 0 0 0 
0 0 0 0 0 0 0 0 0 
0 0 0 0 0 0 0 0 0 
0 0 0 1 0 0 0 0 0 
0 0 0 0 0 0 0 0 0 
0 0 0 0 0 0 0 0 0 
0 0 0 0 0 0 0 0 0 
0 0 0 0 0 0 0 0 0 
0 0 0 0 0 0 0 0 0 
0 0 0 0 0 0 0 0 0 