/*--------------------------------*- C++ -*----------------------------------*\
| =========                 |                                                 |
| \\      /  F ield         | OpenFOAM: The Open Source CFD Toolbox           |
|  \\    /   O peration     | Version:  5.x                                   |
|   \\  /    A nd           | Web:      www.OpenFOAM.org                      |
|    \\/     M anipulation  |                                                 |
\*---------------------------------------------------------------------------*/
FoamFile
{
    version     2.0;
    format      ascii;
    class       surfaceScalarField;
    location    "0.02";
    object      phi;
}
// * * * * * * * * * * * * * * * * * * * * * * * * * * * * * * * * * * * * * //

dimensions      [0 3 -1 0 0 0 0];

internalField   nonuniform List<scalar> 
5825
(
-3.01553e-17
-1.10822e-16
-9.99998e-10
-5.46332e-17
-1.09154e-16
-9.99998e-10
-9.2483e-17
-1.16241e-16
-9.99999e-10
-1.19776e-16
-1.24548e-16
-9.99999e-10
-1.37438e-16
-9.99999e-10
-2.83781e-17
-7.95455e-17
-9.99999e-10
-6.27347e-17
-7.90462e-17
-9.99999e-10
-1.03215e-16
-8.56067e-17
-9.99999e-10
-1.32095e-16
-9.5044e-17
-9.99999e-10
-1.09638e-16
-9.99999e-10
-2.75302e-17
-5.14961e-17
-9.99999e-10
-6.96471e-17
-5.28864e-17
-9.99999e-10
-1.13469e-16
-5.95331e-17
-9.99999e-10
-1.48708e-16
-6.95171e-17
-9.99999e-10
-8.42853e-17
-9.99999e-10
-2.86092e-17
-2.60176e-17
-9.99999e-10
-7.63061e-17
-2.85446e-17
-9.99999e-10
-1.23373e-16
-3.34979e-17
-9.99999e-10
-1.64121e-16
-3.84029e-17
-9.99999e-10
-4.40079e-17
-1e-09
-3.09392e-17
-9.99999e-10
-8.11445e-17
-9.99999e-10
-1.27976e-16
-9.99999e-10
-1.69316e-16
-9.99999e-10
-1e-09
-8.99962e-17
-3.1947e-16
-9.99998e-10
-1.69814e-16
-3.12044e-16
-9.99998e-10
-2.96343e-16
-3.29316e-16
-9.99999e-10
-4.40914e-16
-3.35089e-16
-9.99999e-10
-3.3059e-16
-9.99999e-10
-8.19273e-17
-2.28658e-16
-9.99999e-10
-1.89824e-16
-2.29871e-16
-9.99999e-10
-3.14331e-16
-2.5096e-16
-9.99999e-10
-4.13675e-16
-2.73313e-16
-9.99999e-10
-2.98735e-16
-9.99999e-10
-8.1654e-17
-1.51204e-16
-9.99999e-10
-2.11676e-16
-1.59442e-16
-9.99999e-10
-3.38234e-16
-1.78483e-16
-9.99999e-10
-4.32003e-16
-1.99512e-16
-9.99999e-10
-2.20813e-16
-1e-09
-8.8478e-17
-8.1271e-17
-9.99999e-10
-2.3086e-16
-9.23087e-17
-9.99999e-10
-3.59007e-16
-1.02998e-16
-9.99999e-10
-4.56638e-16
-1.08841e-16
-9.99999e-10
-1.08841e-16
-1e-09
-9.88697e-17
-9.99999e-10
-2.41365e-16
-9.99999e-10
-3.63824e-16
-9.99999e-10
-4.54532e-16
-9.99999e-10
-1e-09
-1.59336e-16
-5.32326e-16
-9.99998e-10
-3.22187e-16
-5.20006e-16
-9.99998e-10
-5.5825e-16
-5.45302e-16
-9.99998e-10
-7.70754e-16
-5.55546e-16
-9.99999e-10
-5.21792e-16
-9.99999e-10
-1.46445e-16
-3.96998e-16
-9.99998e-10
-3.46677e-16
-4.06669e-16
-9.99999e-10
-5.57612e-16
-4.40565e-16
-9.99999e-10
-7.33369e-16
-4.68786e-16
-9.99999e-10
-4.61895e-16
-9.99999e-10
-1.52504e-16
-2.78834e-16
-9.99999e-10
-3.81485e-16
-2.96394e-16
-9.99999e-10
-5.85502e-16
-3.19764e-16
-9.99999e-10
-7.36437e-16
-3.37024e-16
-9.99999e-10
-3.32447e-16
-1e-09
-1.67479e-16
-1.58249e-16
-9.99999e-10
-4.05048e-16
-1.74678e-16
-9.99999e-10
-6.02013e-16
-1.83411e-16
-9.99999e-10
-7.39692e-16
-1.83202e-16
-9.99999e-10
-1.66767e-16
-1e-09
-1.83741e-16
-9.99999e-10
-4.12727e-16
-9.99999e-10
-6.00067e-16
-9.99999e-10
-7.21919e-16
-1e-09
-1e-09
-2.43904e-16
-7.91643e-16
-9.99998e-10
-5.30353e-16
-7.92965e-16
-9.99998e-10
-8.80673e-16
-8.26462e-16
-9.99998e-10
-1.20574e-15
-8.22164e-16
-9.99999e-10
-7.53514e-16
-9.99999e-10
-2.41114e-16
-6.33048e-16
-9.99998e-10
-5.61506e-16
-6.53803e-16
-9.99998e-10
-8.64812e-16
-6.86756e-16
-9.99999e-10
-1.12993e-15
-6.99266e-16
-9.99999e-10
-6.52369e-16
-1e-09
-2.56819e-16
-4.65741e-16
-9.99999e-10
-5.95788e-16
-4.84725e-16
-9.99999e-10
-8.79968e-16
-4.99432e-16
-9.99999e-10
-1.09486e-15
-5.0314e-16
-1e-09
-4.72843e-16
-1e-09
-2.73092e-16
-2.64851e-16
-9.99999e-10
-6.10831e-16
-2.79589e-16
-9.99999e-10
-8.83533e-16
-2.84163e-16
-9.99999e-10
-1.06872e-15
-2.81814e-16
-1e-09
-2.61223e-16
-1e-09
-2.87317e-16
-9.99999e-10
-6.13487e-16
-9.99999e-10
-8.78714e-16
-1e-09
-1.04776e-15
-1e-09
-1e-09
-3.77493e-16
-1.18624e-15
-9.99998e-10
-8.36142e-16
-1.20847e-15
-9.99998e-10
-1.29118e-15
-1.23914e-15
-9.99998e-10
-1.64714e-15
-1.22287e-15
-9.99999e-10
-1.13629e-15
-9.99999e-10
-3.90292e-16
-9.92452e-16
-9.99998e-10
-8.59347e-16
-1.01354e-15
-9.99998e-10
-1.26445e-15
-1.02971e-15
-9.99999e-10
-1.58544e-15
-1.02431e-15
-9.99999e-10
-9.57864e-16
-1e-09
-4.06673e-16
-7.33887e-16
-9.99999e-10
-8.7747e-16
-7.45192e-16
-9.99999e-10
-1.26215e-15
-7.49184e-16
-9.99999e-10
-1.53744e-15
-7.46494e-16
-1e-09
-7.16066e-16
-1e-09
-4.1535e-16
-4.08753e-16
-9.99999e-10
-8.81571e-16
-4.22229e-16
-9.99999e-10
-1.25884e-15
-4.28093e-16
-1e-09
-1.51021e-15
-4.29617e-16
-1e-09
-4.231e-16
-1e-09
-4.28194e-16
-9.99999e-10
-8.84684e-16
-9.99999e-10
-1.2571e-15
-1e-09
-1.50215e-15
-1e-09
-1e-09
-6.00393e-16
-1.77808e-15
-9.99997e-10
-1.26745e-15
-1.79513e-15
-9.99998e-10
-1.83617e-15
-1.7901e-15
-9.99998e-10
-2.21261e-15
-1.74258e-15
-9.99999e-10
-1.65003e-15
-1e-09
-6.07395e-16
-1.49894e-15
-9.99998e-10
-1.25662e-15
-1.50677e-15
-9.99998e-10
-1.78386e-15
-1.50192e-15
-9.99999e-10
-2.14571e-15
-1.48422e-15
-9.99999e-10
-1.41536e-15
-1e-09
-6.10917e-16
-1.09793e-15
-9.99999e-10
-1.25334e-15
-1.10444e-15
-9.99999e-10
-1.76895e-15
-1.10382e-15
-9.99999e-10
-2.11005e-15
-1.10166e-15
-1e-09
-1.0918e-15
-1e-09
-6.14712e-16
-6.03557e-16
-9.99999e-10
-1.25232e-15
-6.20494e-16
-9.99999e-10
-1.76561e-15
-6.25832e-16
-1e-09
-2.10528e-15
-6.2901e-16
-1e-09
-6.39803e-16
-1e-09
-6.30216e-16
-9.99999e-10
-1.25448e-15
-1e-09
-1.76507e-15
-1e-09
-2.11324e-15
-1e-09
-1e-09
-9.10635e-16
-2.57113e-15
-9.99997e-10
-1.80683e-15
-2.55917e-15
-9.99997e-10
-2.52625e-15
-2.51469e-15
-9.99998e-10
-2.99479e-15
-2.43314e-15
-9.99999e-10
-2.29378e-15
-1e-09
-8.91372e-16
-2.16363e-15
-9.99998e-10
-1.75994e-15
-2.16005e-15
-9.99998e-10
-2.44557e-15
-2.1421e-15
-9.99999e-10
-2.89729e-15
-2.11688e-15
-1e-09
-2.0447e-15
-1e-09
-8.82424e-16
-1.58277e-15
-9.99999e-10
-1.74208e-15
-1.59026e-15
-9.99999e-10
-2.42078e-15
-1.58355e-15
-1e-09
-2.86286e-15
-1.57864e-15
-1e-09
-1.57553e-15
-1e-09
-8.86214e-16
-8.6379e-16
-9.99999e-10
-1.73482e-15
-8.76118e-16
-1e-09
-2.41494e-15
-8.72718e-16
-1e-09
-2.86753e-15
-8.72877e-16
-1e-09
-8.77953e-16
-1e-09
-8.953e-16
-1e-09
-1.72764e-15
-1e-09
-2.41005e-15
-1e-09
-2.86862e-15
-1e-09
-1e-09
-1.27782e-15
-3.58994e-15
-9.99996e-10
-2.44381e-15
-3.56435e-15
-9.99996e-10
-3.36691e-15
-3.51124e-15
-9.99997e-10
-4.02016e-15
-3.4275e-15
-9.99998e-10
-3.28545e-15
-9.99999e-10
-1.24474e-15
-3.03559e-15
-9.99997e-10
-2.39201e-15
-3.03068e-15
-9.99998e-10
-3.28715e-15
-3.00298e-15
-9.99998e-10
-3.90405e-15
-2.96852e-15
-1e-09
-2.89523e-15
-1e-09
-1.23236e-15
-2.22558e-15
-9.99998e-10
-2.36375e-15
-2.227e-15
-9.99999e-10
-3.25232e-15
-2.20676e-15
-1e-09
-3.84378e-15
-2.19237e-15
-1e-09
-2.16613e-15
-1e-09
-1.22827e-15
-1.19569e-15
-9.99999e-10
-2.34339e-15
-1.19237e-15
-1e-09
-3.23789e-15
-1.18251e-15
-1e-09
-3.82245e-15
-1.17831e-15
-1e-09
-1.15709e-15
-1e-09
-1.2197e-15
-1e-09
-2.32835e-15
-1e-09
-3.22633e-15
-1e-09
-3.79443e-15
-1e-09
-1e-09
-1.71825e-15
-4.94616e-15
-9.99994e-10
-3.25677e-15
-4.93488e-15
-9.99995e-10
-4.45472e-15
-4.89636e-15
-9.99996e-10
-5.25729e-15
-4.83959e-15
-9.99998e-10
-4.74488e-15
-9.99999e-10
-1.69592e-15
-4.21023e-15
-9.99996e-10
-3.21828e-15
-4.20287e-15
-9.99997e-10
-4.40067e-15
-4.16227e-15
-9.99998e-10
-5.19831e-15
-4.12039e-15
-1e-09
-4.04547e-15
-1e-09
-1.679e-15
-3.07621e-15
-9.99998e-10
-3.17785e-15
-3.06279e-15
-9.99999e-10
-4.35859e-15
-3.0332e-15
-1e-09
-5.13218e-15
-3.00987e-15
-1e-09
-2.95726e-15
-1e-09
-1.65802e-15
-1.62242e-15
-9.99999e-10
-3.14801e-15
-1.61188e-15
-1e-09
-4.33502e-15
-1.6059e-15
-1e-09
-5.08127e-15
-1.59815e-15
-1e-09
-1.56645e-15
-1e-09
-1.64012e-15
-1e-09
-3.13485e-15
-1e-09
-4.31665e-15
-1e-09
-5.03826e-15
-1e-09
-1e-09
-2.31634e-15
-6.81492e-15
-9.99992e-10
-4.39259e-15
-6.81397e-15
-9.99993e-10
-5.98704e-15
-6.77164e-15
-9.99995e-10
-6.97236e-15
-6.73117e-15
-9.99997e-10
-6.68829e-15
-1e-09
-2.30058e-15
-5.80681e-15
-9.99995e-10
-4.34968e-15
-5.78986e-15
-9.99996e-10
-5.94509e-15
-5.73879e-15
-9.99997e-10
-6.95786e-15
-5.69138e-15
-1e-09
-5.62575e-15
-1e-09
-2.271e-15
-4.21754e-15
-9.99997e-10
-4.29938e-15
-4.19878e-15
-9.99998e-10
-5.8972e-15
-4.17193e-15
-1e-09
-6.90371e-15
-4.14491e-15
-1e-09
-4.09738e-15
-1e-09
-2.24184e-15
-2.20693e-15
-9.99999e-10
-4.27172e-15
-2.20555e-15
-1e-09
-5.86882e-15
-2.20365e-15
-1e-09
-6.86065e-15
-2.19634e-15
-1e-09
-2.18572e-15
-1.00001e-09
-2.23081e-15
-1e-09
-4.25988e-15
-1e-09
-5.84665e-15
-1e-09
-6.83469e-15
-1e-09
-1.00001e-09
-3.15855e-15
-9.38093e-15
-9.9999e-10
-5.97675e-15
-9.37092e-15
-9.99991e-10
-8.14913e-15
-9.31298e-15
-9.99993e-10
-9.43444e-15
-9.27158e-15
-9.99996e-10
-9.25273e-15
-1e-09
-3.1281e-15
-7.97721e-15
-9.99993e-10
-5.91999e-15
-7.957e-15
-9.99994e-10
-8.10807e-15
-7.90635e-15
-9.99997e-10
-9.46003e-15
-7.85667e-15
-1e-09
-7.8095e-15
-1e-09
-3.08924e-15
-5.78186e-15
-9.99996e-10
-5.86935e-15
-5.77325e-15
-9.99997e-10
-8.05729e-15
-5.75184e-15
-1e-09
-9.42867e-15
-5.72652e-15
-1e-09
-5.70676e-15
-1.00001e-09
-3.06674e-15
-3.03017e-15
-9.99998e-10
-5.84694e-15
-3.0366e-15
-1e-09
-8.03057e-15
-3.03348e-15
-1e-09
-9.41403e-15
-3.0329e-15
-1e-09
-3.04447e-15
-1.00001e-09
-3.06049e-15
-1e-09
-5.82993e-15
-1e-09
-8.01019e-15
-1e-09
-9.40454e-15
-1.00001e-09
-1.00001e-09
-4.30355e-15
-1.28721e-14
-9.99986e-10
-8.13389e-15
-1.28568e-14
-9.99988e-10
-1.11168e-14
-1.28009e-14
-9.99991e-10
-1.29342e-14
-1.2768e-14
-9.99995e-10
-1.27604e-14
-1e-09
-4.26014e-15
-1.09419e-14
-9.99991e-10
-8.08121e-15
-1.09311e-14
-9.99992e-10
-1.10915e-14
-1.08872e-14
-9.99995e-10
-1.29592e-14
-1.0843e-14
-1e-09
-1.08321e-14
-1e-09
-4.22316e-15
-7.93876e-15
-9.99995e-10
-8.03619e-15
-7.94145e-15
-9.99997e-10
-1.10461e-14
-7.92283e-15
-1e-09
-1.29538e-14
-7.9042e-15
-1e-09
-7.90673e-15
-1.00001e-09
-4.20766e-15
-4.16874e-15
-9.99998e-10
-8.01738e-15
-4.17613e-15
-1e-09
-1.10275e-14
-4.17516e-15
-1e-09
-1.29578e-14
-4.17757e-15
-1.00001e-09
-4.1842e-15
-1.00001e-09
-4.19627e-15
-1e-09
-7.99697e-15
-1e-09
-1.10038e-14
-1e-09
-1.29345e-14
-1.00001e-09
-1.00001e-09
-5.84778e-15
-1.76377e-14
-9.99981e-10
-1.10732e-14
-1.7632e-14
-9.99983e-10
-1.51801e-14
-1.75815e-14
-9.99987e-10
-1.77326e-14
-1.75391e-14
-9.99993e-10
-1.75099e-14
-1e-09
-5.80348e-15
-1.50045e-14
-9.99988e-10
-1.10292e-14
-1.50063e-14
-9.9999e-10
-1.51639e-14
-1.49673e-14
-9.99994e-10
-1.77504e-14
-1.49269e-14
-9.99999e-10
-1.49343e-14
-1.00001e-09
-5.77036e-15
-1.08977e-14
-9.99993e-10
-1.09886e-14
-1.09089e-14
-9.99996e-10
-1.51229e-14
-1.08935e-14
-1e-09
-1.77486e-14
-1.0872e-14
-1.00001e-09
-1.08675e-14
-1.00001e-09
-5.75676e-15
-5.72683e-15
-9.99997e-10
-1.09736e-14
-5.7409e-15
-1e-09
-1.5102e-14
-5.73903e-15
-1e-09
-1.77393e-14
-5.72449e-15
-1.00001e-09
-5.70451e-15
-1.00002e-09
-5.74355e-15
-1e-09
-1.09455e-14
-1e-09
-1.50526e-14
-1.00001e-09
-1.7677e-14
-1.00001e-09
-1.00002e-09
-7.95132e-15
-2.41712e-14
-9.99974e-10
-1.50879e-14
-2.41779e-14
-9.99977e-10
-2.07364e-14
-2.41205e-14
-9.99983e-10
-2.43023e-14
-2.40572e-14
-9.9999e-10
-2.39812e-14
-9.99999e-10
-7.90407e-15
-2.05725e-14
-9.99983e-10
-1.50349e-14
-2.05868e-14
-9.99986e-10
-2.06953e-14
-2.05453e-14
-9.99992e-10
-2.42728e-14
-2.04893e-14
-9.99999e-10
-2.04625e-14
-1.00001e-09
-7.87137e-15
-1.49511e-14
-9.99991e-10
-1.49925e-14
-1.49725e-14
-9.99994e-10
-2.06392e-14
-1.49477e-14
-9.99999e-10
-2.42349e-14
-1.48948e-14
-1.00001e-09
-1.48409e-14
-1.00002e-09
-7.85873e-15
-7.86438e-15
-9.99997e-10
-1.49673e-14
-7.88222e-15
-1e-09
-2.05863e-14
-7.85982e-15
-1.00001e-09
-2.4175e-14
-7.81307e-15
-1.00001e-09
-7.75667e-15
-1.00002e-09
-7.84047e-15
-1e-09
-1.49099e-14
-1e-09
-2.04923e-14
-1.00001e-09
-2.40609e-14
-1.00002e-09
-1.00002e-09
-1.08203e-14
-3.31364e-14
-9.99965e-10
-2.05629e-14
-3.3158e-14
-9.99969e-10
-2.83032e-14
-3.30797e-14
-9.99977e-10
-3.32278e-14
-3.29842e-14
-9.99987e-10
-3.28792e-14
-9.99999e-10
-1.07669e-14
-2.82106e-14
-9.99978e-10
-2.04857e-14
-2.8235e-14
-9.99981e-10
-2.82118e-14
-2.81638e-14
-9.99989e-10
-3.31474e-14
-2.80521e-14
-9.99999e-10
-2.79382e-14
-1.00001e-09
-1.07273e-14
-2.05071e-14
-9.99988e-10
-2.04139e-14
-2.05271e-14
-9.99992e-10
-2.80997e-14
-2.04604e-14
-9.99999e-10
-3.30315e-14
-2.03466e-14
-1.00001e-09
-2.02086e-14
-1.00002e-09
-1.07007e-14
-1.07861e-14
-9.99996e-10
-2.03459e-14
-1.07891e-14
-1e-09
-2.79855e-14
-1.07349e-14
-1.00001e-09
-3.28906e-14
-1.06572e-14
-1.00002e-09
-1.05616e-14
-1.00003e-09
-1.06558e-14
-1e-09
-2.02449e-14
-1e-09
-2.78438e-14
-1.00001e-09
-3.27187e-14
-1.00002e-09
-1.00003e-09
-1.47476e-14
-4.54504e-14
-9.99952e-10
-2.80633e-14
-4.54785e-14
-9.99958e-10
-3.86452e-14
-4.53317e-14
-9.99968e-10
-4.54227e-14
-4.51353e-14
-9.99983e-10
-4.49076e-14
-1e-09
-1.46736e-14
-3.86892e-14
-9.9997e-10
-2.7917e-14
-3.87041e-14
-9.99975e-10
-3.84506e-14
-3.85536e-14
-9.99985e-10
-4.52062e-14
-3.83305e-14
-9.99999e-10
-3.80783e-14
-1.00002e-09
-1.46011e-14
-2.81096e-14
-9.99984e-10
-2.77645e-14
-2.81054e-14
-9.99989e-10
-3.82263e-14
-2.7971e-14
-9.99999e-10
-4.49541e-14
-2.77753e-14
-1.00001e-09
-2.75394e-14
-1.00003e-09
-1.45334e-14
-1.47661e-14
-9.99995e-10
-2.76282e-14
-1.47497e-14
-1e-09
-3.80305e-14
-1.46694e-14
-1.00001e-09
-4.47175e-14
-1.45602e-14
-1.00002e-09
-1.44314e-14
-1.00004e-09
-1.4452e-14
-1e-09
-2.74843e-14
-1.00001e-09
-3.7834e-14
-1.00002e-09
-4.44866e-14
-1.00003e-09
-1.00005e-09
-2.01406e-14
-6.23569e-14
-9.99935e-10
-3.83544e-14
-6.23538e-14
-9.99943e-10
-5.28354e-14
-6.20458e-14
-9.99957e-10
-6.21756e-14
-6.16115e-14
-9.99977e-10
-6.10573e-14
-1e-09
-1.99989e-14
-5.30397e-14
-9.99959e-10
-3.80483e-14
-5.30154e-14
-9.99966e-10
-5.24085e-14
-5.27317e-14
-9.9998e-10
-6.16324e-14
-5.23256e-14
-9.99999e-10
-5.18379e-14
-1.00002e-09
-1.98543e-14
-3.85045e-14
-9.99979e-10
-3.7761e-14
-3.84675e-14
-9.99986e-10
-5.20016e-14
-3.82482e-14
-1e-09
-6.11407e-14
-3.79407e-14
-1.00002e-09
-3.75819e-14
-1.00004e-09
-1.97303e-14
-2.02098e-14
-9.99993e-10
-3.75392e-14
-2.01852e-14
-1e-09
-5.16937e-14
-2.00733e-14
-1.00001e-09
-6.07797e-14
-1.99178e-14
-1.00003e-09
-1.97487e-14
-1.00005e-09
-1.96161e-14
-1e-09
-3.73404e-14
-1.00001e-09
-5.14195e-14
-1.00002e-09
-6.04721e-14
-1.00004e-09
-1.00006e-09
-2.75112e-14
-8.55063e-14
-9.99912e-10
-5.23811e-14
-8.54296e-14
-9.99923e-10
-7.2164e-14
-8.48834e-14
-9.99942e-10
-8.4964e-14
-8.41018e-14
-9.99968e-10
-8.31035e-14
-9.99999e-10
-2.72434e-14
-7.26691e-14
-9.99944e-10
-5.18354e-14
-7.2583e-14
-9.99954e-10
-7.13905e-14
-7.21137e-14
-9.99973e-10
-8.39806e-14
-7.14517e-14
-9.99999e-10
-7.06382e-14
-1.00003e-09
-2.69927e-14
-5.27322e-14
-9.99972e-10
-5.13627e-14
-5.26599e-14
-9.99981e-10
-7.07288e-14
-5.23233e-14
-1e-09
-8.3162e-14
-5.18579e-14
-1.00003e-09
-5.13134e-14
-1.00006e-09
-2.68014e-14
-2.76773e-14
-9.99991e-10
-5.10225e-14
-2.76438e-14
-1e-09
-7.02617e-14
-2.74788e-14
-1.00002e-09
-8.26134e-14
-2.72504e-14
-1.00004e-09
-2.69956e-14
-1.00007e-09
-2.66453e-14
-1e-09
-5.07396e-14
-1.00001e-09
-6.98731e-14
-1.00003e-09
-8.21698e-14
-1.00006e-09
-1.00008e-09
-3.75333e-14
-1.17146e-13
-9.99881e-10
-7.14198e-14
-1.1696e-13
-9.99895e-10
-9.83571e-14
-1.16112e-13
-9.99921e-10
-1.15717e-13
-1.14918e-13
-9.99957e-10
-1.13471e-13
-9.99999e-10
-3.7084e-14
-9.95243e-14
-9.99925e-10
-7.05687e-14
-9.93549e-14
-9.99938e-10
-9.71671e-14
-9.86329e-14
-9.99964e-10
-1.14288e-13
-9.76349e-14
-1e-09
-9.64321e-14
-1.00004e-09
-3.66913e-14
-7.22166e-14
-9.99962e-10
-6.98442e-14
-7.20965e-14
-9.99975e-10
-9.6169e-14
-7.15891e-14
-1e-09
-1.13084e-13
-7.08902e-14
-1.00004e-09
-7.00593e-14
-1.00008e-09
-3.64086e-14
-3.79126e-14
-9.99989e-10
-6.93323e-14
-3.78643e-14
-1e-09
-9.54669e-14
-3.76128e-14
-1.00003e-09
-1.12249e-13
-3.72577e-14
-1.00006e-09
-3.68401e-14
-1.0001e-09
-3.61934e-14
-1e-09
-6.89217e-14
-1.00002e-09
-9.48946e-14
-1.00004e-09
-1.11576e-13
-1.00008e-09
-1.00012e-09
-5.11458e-14
-1.60442e-13
-9.99838e-10
-9.7314e-14
-1.60104e-13
-9.99857e-10
-1.33977e-13
-1.5882e-13
-9.99893e-10
-1.57498e-13
-1.57042e-13
-9.99942e-10
-1.54976e-13
-9.99999e-10
-5.04476e-14
-1.36308e-13
-9.99899e-10
-9.60255e-14
-1.36025e-13
-9.99917e-10
-1.32203e-13
-1.34937e-13
-9.99952e-10
-1.55438e-13
-1.3344e-13
-1e-09
-1.31677e-13
-1.00006e-09
-4.98595e-14
-9.89172e-14
-9.9995e-10
-9.49349e-14
-9.87293e-14
-9.99968e-10
-1.30705e-13
-9.79572e-14
-1e-09
-1.53672e-13
-9.68781e-14
-1.00005e-09
-9.55968e-14
-1.0001e-09
-4.94494e-14
-5.19467e-14
-9.99987e-10
-9.41574e-14
-5.18659e-14
-1e-09
-1.29622e-13
-5.14608e-14
-1.00004e-09
-1.52387e-13
-5.0892e-14
-1.00009e-09
-5.02177e-14
-1.00014e-09
-4.91409e-14
-1.00001e-09
-9.35365e-14
-1.00002e-09
-1.28757e-13
-1.00006e-09
-1.51364e-13
-1.0001e-09
-1.00016e-09
-6.96638e-14
-2.19859e-13
-9.9978e-10
-1.32597e-13
-2.19301e-13
-9.99806e-10
-1.82526e-13
-2.17332e-13
-9.99854e-10
-2.14522e-13
-2.14617e-13
-9.99921e-10
-2.11477e-13
-1e-09
-6.8614e-14
-1.86772e-13
-9.99863e-10
-1.30624e-13
-1.86313e-13
-9.99888e-10
-1.79822e-13
-1.84651e-13
-9.99935e-10
-2.11392e-13
-1.82347e-13
-1e-09
-1.79652e-13
-1.00008e-09
-6.77379e-14
-1.35545e-13
-9.99933e-10
-1.28956e-13
-1.35229e-13
-9.99958e-10
-1.77516e-13
-1.34019e-13
-1e-09
-2.08688e-13
-1.32333e-13
-1.00007e-09
-1.30345e-13
-1.00014e-09
-6.71179e-14
-7.1191e-14
-9.99984e-10
-1.27739e-13
-7.10177e-14
-1.00001e-09
-1.75826e-13
-7.03698e-14
-1.00005e-09
-2.06692e-13
-6.94816e-14
-1.00012e-09
-6.84315e-14
-1.00019e-09
-6.66338e-14
-1.00001e-09
-1.26797e-13
-1.00003e-09
-1.74536e-13
-1.00008e-09
-2.05168e-13
-1.00014e-09
-1.00022e-09
-9.48966e-14
-3.01528e-13
-9.99702e-10
-1.80641e-13
-3.00607e-13
-9.99736e-10
-2.48627e-13
-2.97569e-13
-9.99802e-10
-2.92233e-13
-2.93391e-13
-9.99893e-10
-2.8851e-13
-1e-09
-9.33051e-14
-2.56064e-13
-9.99815e-10
-1.77597e-13
-2.55289e-13
-9.99849e-10
-2.44458e-13
-2.52706e-13
-9.99913e-10
-2.87377e-13
-2.49137e-13
-1e-09
-2.44962e-13
-1.00011e-09
-9.19591e-14
-1.85792e-13
-9.99912e-10
-1.75004e-13
-1.85217e-13
-9.99945e-10
-2.40889e-13
-1.83327e-13
-1.00001e-09
-2.83192e-13
-1.80726e-13
-1.00009e-09
-1.77674e-13
-1.0002e-09
-9.0968e-14
-9.75468e-14
-9.99981e-10
-1.73102e-13
-9.72197e-14
-1.00001e-09
-2.38283e-13
-9.62281e-14
-1.00008e-09
-2.80129e-13
-9.48653e-14
-1.00016e-09
-9.32729e-14
-1.00026e-09
-9.02182e-14
-1.00002e-09
-1.71711e-13
-1.00005e-09
-2.36374e-13
-1.00011e-09
-2.77894e-13
-1.0002e-09
-1.0003e-09
-1.29265e-13
-4.13798e-13
-9.99595e-10
-2.46006e-13
-4.1225e-13
-9.99642e-10
-3.38573e-13
-4.07551e-13
-9.99732e-10
-3.97985e-13
-4.01113e-13
-9.99855e-10
-3.93558e-13
-1e-09
-1.26797e-13
-3.51218e-13
-9.99751e-10
-2.41294e-13
-3.49884e-13
-9.99797e-10
-3.32131e-13
-3.45879e-13
-9.99884e-10
-3.90447e-13
-3.40384e-13
-1e-09
-3.3395e-13
-1.00015e-09
-1.24683e-13
-2.54705e-13
-9.99883e-10
-2.37278e-13
-2.53714e-13
-9.99928e-10
-3.26639e-13
-2.5081e-13
-1.00001e-09
-3.84011e-13
-2.46818e-13
-1.00013e-09
-2.42163e-13
-1.00027e-09
-1.23123e-13
-1.33671e-13
-9.99979e-10
-2.34357e-13
-1.3315e-13
-1.00002e-09
-3.2264e-13
-1.31628e-13
-1.00011e-09
-3.79345e-13
-1.29537e-13
-1.00022e-09
-1.27116e-13
-1.00036e-09
-1.22028e-13
-1.00003e-09
-2.32292e-13
-1.00007e-09
-3.19808e-13
-1.00016e-09
-3.76051e-13
-1.00027e-09
-1.0004e-09
-1.76022e-13
-5.68215e-13
-9.9945e-10
-3.34917e-13
-5.65622e-13
-9.99514e-10
-4.60958e-13
-5.58374e-13
-9.99636e-10
-5.41833e-13
-5.48466e-13
-9.99805e-10
-5.36853e-13
-1e-09
-1.72167e-13
-4.81943e-13
-9.99665e-10
-3.27647e-13
-4.79719e-13
-9.99727e-10
-4.51032e-13
-4.73552e-13
-9.99846e-10
-5.30234e-13
-4.65093e-13
-1.00001e-09
-4.55196e-13
-1.0002e-09
-1.6888e-13
-3.49309e-13
-9.99847e-10
-3.21467e-13
-3.47701e-13
-9.99908e-10
-4.42577e-13
-3.43219e-13
-1.00002e-09
-5.20351e-13
-3.37069e-13
-1.00018e-09
-3.29907e-13
-1.00037e-09
-1.66496e-13
-1.83279e-13
-9.99979e-10
-3.16966e-13
-1.82441e-13
-1.00004e-09
-4.36417e-13
-1.80074e-13
-1.00015e-09
-5.1318e-13
-1.76857e-13
-1.0003e-09
-1.73112e-13
-1.00049e-09
-1.64871e-13
-1.00005e-09
-3.13863e-13
-1.00011e-09
-4.32195e-13
-1.00022e-09
-5.0825e-13
-1.00037e-09
-1.00055e-09
-2.39623e-13
-7.80835e-13
-9.99254e-10
-4.55911e-13
-7.76581e-13
-9.99341e-10
-6.27531e-13
-7.65405e-13
-9.99508e-10
-7.37606e-13
-7.50115e-13
-9.99737e-10
-7.32251e-13
-1.00001e-09
-2.33645e-13
-6.61715e-13
-9.99551e-10
-4.44707e-13
-6.58103e-13
-9.99635e-10
-6.12221e-13
-6.48562e-13
-9.99795e-10
-7.19747e-13
-6.35489e-13
-1.00002e-09
-6.20226e-13
-1.00027e-09
-2.28579e-13
-4.79324e-13
-9.99801e-10
-4.35151e-13
-4.76701e-13
-9.99883e-10
-5.99153e-13
-4.69736e-13
-1.00004e-09
-7.04509e-13
-4.60226e-13
-1.00025e-09
-4.49117e-13
-1.0005e-09
-2.24895e-13
-2.51417e-13
-9.99982e-10
-4.28164e-13
-2.50014e-13
-1.00006e-09
-5.89626e-13
-2.46358e-13
-1.00021e-09
-6.93394e-13
-2.41375e-13
-1.00042e-09
-2.35538e-13
-1.00066e-09
-2.22423e-13
-1.00008e-09
-4.23514e-13
-1.00016e-09
-5.83279e-13
-1.0003e-09
-6.85952e-13
-1.00051e-09
-1.00075e-09
-3.26188e-13
-1.07395e-12
-9.9899e-10
-6.20652e-13
-1.06704e-12
-9.99108e-10
-8.54289e-13
-1.04969e-12
-9.99334e-10
-1.00411e-12
-1.02599e-12
-9.99646e-10
-9.98383e-13
-1.00001e-09
-3.16934e-13
-9.09139e-13
-9.99399e-10
-6.03277e-13
-9.03257e-13
-9.99512e-10
-8.30584e-13
-8.88416e-13
-9.99729e-10
-9.76488e-13
-8.68153e-13
-1.00003e-09
-8.44542e-13
-1.00038e-09
-3.09064e-13
-6.58038e-13
-9.99743e-10
-5.88421e-13
-6.53721e-13
-9.99853e-10
-8.10328e-13
-6.42906e-13
-1.00006e-09
-9.52895e-13
-6.28138e-13
-1.00035e-09
-6.10888e-13
-1.00069e-09
-3.03302e-13
-3.44979e-13
-9.99991e-10
-5.77579e-13
-3.42692e-13
-1.0001e-09
-7.95539e-13
-3.37026e-13
-1.0003e-09
-9.35633e-13
-3.29267e-13
-1.00058e-09
-3.20174e-13
-1.00091e-09
-2.99567e-13
-1.00012e-09
-5.70567e-13
-1.00023e-09
-7.85934e-13
-1.00043e-09
-9.24367e-13
-1.0007e-09
-1.00102e-09
-4.44009e-13
-1.47839e-12
-9.98633e-10
-8.44887e-13
-1.46718e-12
-9.98794e-10
-1.16288e-12
-1.44012e-12
-9.99102e-10
-1.36672e-12
-1.40335e-12
-9.99526e-10
-1.36069e-12
-1.00002e-09
-4.29593e-13
-1.24977e-12
-9.99198e-10
-8.17824e-13
-1.24018e-12
-9.99351e-10
-1.12614e-12
-1.21706e-12
-9.99644e-10
-1.32405e-12
-1.18559e-12
-1.00005e-09
-1.149e-12
-1.00052e-09
-4.17284e-13
-9.03704e-13
-9.99672e-10
-7.94697e-13
-8.96682e-13
-9.99819e-10
-1.09467e-12
-8.79836e-13
-1.0001e-09
-1.28746e-12
-8.56844e-13
-1.00048e-09
-8.30065e-13
-1.00094e-09
-4.08295e-13
-4.7354e-13
-1.00001e-09
-7.7782e-13
-4.69847e-13
-1.00016e-09
-1.07166e-12
-4.60991e-13
-1.00043e-09
-1.26065e-12
-4.48877e-13
-1.0008e-09
-4.34755e-13
-1.00124e-09
-4.02639e-13
-1.00019e-09
-7.67145e-13
-1.00033e-09
-1.05706e-12
-1.0006e-09
-1.24358e-12
-1.00096e-09
-1.00139e-09
-6.04235e-13
-2.03682e-12
-9.98154e-10
-1.14994e-12
-2.0186e-12
-9.98373e-10
-1.58281e-12
-1.97637e-12
-9.98791e-10
-1.86013e-12
-1.91931e-12
-9.99369e-10
-1.85349e-12
-1.00005e-09
-5.81651e-13
-1.71882e-12
-9.98934e-10
-1.10773e-12
-1.70323e-12
-9.9914e-10
-1.52581e-12
-1.66713e-12
-9.99535e-10
-1.79428e-12
-1.61812e-12
-1.00008e-09
-1.56138e-12
-1.00072e-09
-5.62376e-13
-1.24154e-12
-9.99587e-10
-1.07163e-12
-1.23014e-12
-9.99783e-10
-1.47684e-12
-1.20378e-12
-1.00016e-09
-1.73752e-12
-1.16789e-12
-1.00067e-09
-1.12626e-12
-1.00128e-09
-5.48312e-13
-6.50322e-13
-1.00006e-09
-1.04523e-12
-6.44297e-13
-1.00024e-09
-1.44094e-12
-6.30414e-13
-1.0006e-09
-1.69584e-12
-6.11466e-13
-1.0011e-09
-5.89509e-13
-1.00169e-09
-5.39627e-13
-1.0003e-09
-1.0289e-12
-1.00049e-09
-1.41862e-12
-1.00084e-09
-1.6699e-12
-1.00132e-09
-1.0019e-09
-8.21902e-13
-2.80846e-12
-9.97513e-10
-1.56483e-12
-2.77879e-12
-9.97809e-10
-2.15451e-12
-2.71262e-12
-9.98378e-10
-2.53192e-12
-2.62388e-12
-9.99164e-10
-2.52231e-12
-1.00009e-09
-7.86321e-13
-2.36476e-12
-9.98591e-10
-1.49874e-12
-2.33943e-12
-9.98867e-10
-2.06586e-12
-2.2828e-12
-9.99397e-10
-2.43028e-12
-2.20623e-12
-1.00013e-09
-2.11814e-12
-1.001e-09
-7.56002e-13
-1.70626e-12
-9.99489e-10
-1.44215e-12
-1.68768e-12
-9.99748e-10
-1.98937e-12
-1.64633e-12
-1.00025e-09
-2.34216e-12
-1.59005e-12
-1.00094e-09
-1.52512e-12
-1.00176e-09
-7.33808e-13
-8.93682e-13
-1.00013e-09
-1.40077e-12
-8.8383e-13
-1.00038e-09
-1.93311e-12
-8.62055e-13
-1.00085e-09
-2.27716e-12
-8.32312e-13
-1.00151e-09
-7.97879e-13
-1.0023e-09
-7.20368e-13
-1.00048e-09
-1.3757e-12
-1.00072e-09
-1.89883e-12
-1.00118e-09
-2.23734e-12
-1.00182e-09
-1.00258e-09
-1.117e-12
-3.87549e-12
-9.96661e-10
-2.12885e-12
-3.82686e-12
-9.97059e-10
-2.93351e-12
-3.72242e-12
-9.97831e-10
-3.448e-12
-3.58363e-12
-9.98904e-10
-3.42679e-12
-1.00017e-09
-1.0604e-12
-3.25391e-12
-9.98153e-10
-2.02462e-12
-3.21256e-12
-9.98517e-10
-2.79489e-12
-3.12349e-12
-9.99226e-10
-3.29095e-12
-3.00312e-12
-1.00022e-09
-2.86586e-12
-1.0014e-09
-1.01237e-12
-2.34577e-12
-9.99385e-10
-1.93566e-12
-2.31528e-12
-9.99722e-10
-2.67473e-12
-2.25038e-12
-1.00038e-09
-3.15363e-12
-2.16162e-12
-1.0013e-09
-2.05967e-12
-1.0024e-09
-9.77035e-13
-1.22982e-12
-1.00027e-09
-1.87072e-12
-1.21354e-12
-1.00059e-09
-2.58606e-12
-1.17951e-12
-1.00121e-09
-3.05159e-12
-1.13236e-12
-1.00208e-09
-1.0779e-12
-1.00312e-09
-9.55958e-13
-1.00075e-09
-1.83223e-12
-1.00105e-09
-2.53285e-12
-1.00166e-09
-2.98982e-12
-1.00249e-09
-1.0035e-09
-1.51505e-12
-5.35201e-12
-9.95537e-10
-2.89446e-12
-5.27135e-12
-9.96067e-10
-3.9966e-12
-5.10492e-12
-9.97109e-10
-4.70158e-12
-4.88572e-12
-9.98578e-10
-4.6427e-12
-1.00033e-09
-1.42374e-12
-4.47579e-12
-9.97605e-10
-2.72844e-12
-4.408e-12
-9.98076e-10
-3.77774e-12
-4.26796e-12
-9.99014e-10
-4.45798e-12
-4.07704e-12
-1.00035e-09
-3.86167e-12
-1.00195e-09
-1.34719e-12
-3.22667e-12
-9.99287e-10
-2.58861e-12
-3.1756e-12
-9.99713e-10
-3.58739e-12
-3.07462e-12
-1.00057e-09
-4.24248e-12
-2.93313e-12
-1.00179e-09
-2.7719e-12
-1.00327e-09
-1.28976e-12
-1.6978e-12
-1.00051e-09
-2.48738e-12
-1.66989e-12
-1.0009e-09
-3.4463e-12
-1.6177e-12
-1.00171e-09
-4.08111e-12
-1.5419e-12
-1.00283e-09
-1.45517e-12
-1.00422e-09
-1.25552e-12
-1.00119e-09
-2.42901e-12
-1.00155e-09
-3.36251e-12
-1.00234e-09
-3.98436e-12
-1.00341e-09
-1.00474e-09
-2.04599e-12
-7.39828e-12
-9.9407e-10
-3.93017e-12
-7.26187e-12
-9.94756e-10
-5.45167e-12
-6.99313e-12
-9.96152e-10
-6.42944e-12
-6.64048e-12
-9.98174e-10
-6.25935e-12
-1.00062e-09
-1.89522e-12
-6.14715e-12
-9.96961e-10
-3.66162e-12
-6.03549e-12
-9.97536e-10
-5.09951e-12
-5.81857e-12
-9.98751e-10
-6.04684e-12
-5.51114e-12
-1.00053e-09
-5.16953e-12
-1.00273e-09
-1.77274e-12
-4.44282e-12
-9.99219e-10
-3.44471e-12
-4.35203e-12
-9.99725e-10
-4.79397e-12
-4.20077e-12
-1.00084e-09
-5.70514e-12
-3.97063e-12
-1.00242e-09
-3.71432e-12
-1.00441e-09
-1.67392e-12
-2.36153e-12
-1.00092e-09
-3.29171e-12
-2.30858e-12
-1.00132e-09
-4.56551e-12
-2.23506e-12
-1.0024e-09
-5.44853e-12
-2.10966e-12
-1.00381e-09
-1.97123e-12
-1.00565e-09
-1.61261e-12
-1.00194e-09
-3.20862e-12
-1.00226e-09
-4.43012e-12
-1.00335e-09
-5.29569e-12
-1.00466e-09
-1.00642e-09
-2.73839e-12
-1.02524e-11
-9.9215e-10
-5.32215e-12
-1.00121e-11
-9.93004e-10
-7.45581e-12
-9.56836e-12
-9.94848e-10
-8.84636e-12
-8.97947e-12
-9.97675e-10
-8.35917e-12
-1.00121e-09
-2.47658e-12
-8.40265e-12
-9.96334e-10
-4.87488e-12
-8.21958e-12
-9.96931e-10
-6.86633e-12
-7.90351e-12
-9.98424e-10
-8.22337e-12
-7.39491e-12
-1.00076e-09
-6.84363e-12
-1.00376e-09
-2.28234e-12
-6.13262e-12
-9.99206e-10
-4.55653e-12
-5.94435e-12
-9.99726e-10
-6.36485e-12
-5.7492e-12
-1.00119e-09
-7.67295e-12
-5.35668e-12
-1.00315e-09
-4.95145e-12
-1.00579e-09
-2.08618e-12
-3.34348e-12
-1.00162e-09
-4.3496e-12
-3.21748e-12
-1.00179e-09
-5.97929e-12
-3.15107e-12
-1.00337e-09
-7.26604e-12
-2.92538e-12
-1.00496e-09
-2.71011e-12
-1.0074e-09
-1.95725e-12
-1.00333e-09
-4.26062e-12
-1.00318e-09
-5.74249e-12
-1.00502e-09
-7.02686e-12
-1.0063e-09
-1.00869e-09
-3.60766e-12
-1.43335e-11
-9.89428e-10
-7.17445e-12
-1.38681e-11
-9.90511e-10
-1.02572e-11
-1.31012e-11
-9.92913e-10
-1.2321e-11
-1.20459e-11
-9.97035e-10
-1.0931e-11
-1.00234e-09
-3.09399e-12
-1.13078e-11
-9.96266e-10
-6.37947e-12
-1.1032e-11
-9.96481e-10
-9.19065e-12
-1.06718e-11
-9.98043e-10
-1.12085e-11
-9.79026e-12
-1.00099e-09
-8.87721e-12
-1.00484e-09
-2.82099e-12
-8.53324e-12
-9.9916e-10
-6.00192e-12
-8.01187e-12
-9.99566e-10
-8.33562e-12
-7.92484e-12
-1.0016e-09
-1.03013e-11
-7.1666e-12
-1.00381e-09
-6.56142e-12
-1.00702e-09
-2.37594e-12
-4.91949e-12
-1.00286e-09
-5.82317e-12
-4.52109e-12
-1.00183e-09
-7.60128e-12
-4.67055e-12
-1.00485e-09
-9.68434e-12
-4.16389e-12
-1.00588e-09
-3.88175e-12
-1.0091e-09
-2.11107e-12
-1.00614e-09
-5.84584e-12
-1.00396e-09
-7.10551e-12
-1.00843e-09
-9.3487e-12
-1.00822e-09
-1.01181e-09
-4.71565e-12
-2.06246e-11
-9.84174e-10
-9.61472e-12
-1.95496e-11
-9.86334e-10
-1.4331e-11
-1.81012e-11
-9.89394e-10
-1.75467e-11
-1.59916e-11
-9.96203e-10
-1.35179e-11
-1.00457e-09
-3.42816e-12
-1.45197e-11
-9.98943e-10
-7.98511e-12
-1.42138e-11
-9.9726e-10
-1.21335e-11
-1.4261e-11
-9.97734e-10
-1.51061e-11
-1.26264e-11
-1.00139e-09
-1.10744e-11
-1.00449e-09
-3.34965e-12
-1.21821e-11
-9.98148e-10
-7.95006e-12
-1.03275e-11
-9.98851e-10
-1.0588e-11
-1.11844e-11
-1.00204e-09
-1.35861e-11
-9.28136e-12
-1.00415e-09
-8.64702e-12
-1.00636e-09
-2.30894e-12
-7.72386e-12
-1.00501e-09
-8.06931e-12
-6.36072e-12
-1.00004e-09
-9.00469e-12
-7.67988e-12
-1.00741e-09
-1.28899e-11
-6.11247e-12
-1.00516e-09
-6.07549e-12
-1.00911e-09
-1.86852e-12
-1.01199e-09
-8.52168e-12
-1.00367e-09
-8.05776e-12
-1.01658e-09
-1.26766e-11
-1.00971e-09
-1.01635e-09
-6.88007e-12
-3.13713e-11
-9.70302e-10
-1.29684e-11
-2.88328e-11
-9.77971e-10
-2.09467e-11
-2.58189e-11
-9.80731e-10
-2.58849e-11
-2.1168e-11
-9.95542e-10
-1.43184e-11
-1.00891e-09
-2.50598e-12
-1.71349e-11
-1.01067e-09
-8.66591e-12
-1.66836e-11
-1.00325e-09
-1.55953e-11
-1.88718e-11
-9.97752e-10
-1.95027e-11
-1.54536e-11
-1.00319e-09
-1.29472e-11
-9.9711e-10
-4.28951e-12
-1.8526e-11
-9.92468e-10
-1.07581e-11
-1.18609e-11
-9.97205e-10
-1.28799e-11
-1.67745e-11
-1.00202e-09
-1.72997e-11
-1.0781e-11
-1.00441e-09
-1.16471e-11
-9.98878e-10
-1.5021e-12
-1.3188e-11
-1.00885e-09
-1.14434e-11
-8.91394e-12
-9.93043e-10
-9.64996e-12