/*--------------------------------*- C++ -*----------------------------------*\
| =========                 |                                                 |
| \\      /  F ield         | OpenFOAM: The Open Source CFD Toolbox           |
|  \\    /   O peration     | Version:  5.x                                   |
|   \\  /    A nd           | Web:      www.OpenFOAM.org                      |
|    \\/     M anipulation  |                                                 |
\*---------------------------------------------------------------------------*/
FoamFile
{
    version     2.0;
    format      ascii;
    class       volVectorField;
    location    "0.02";
    object      U;
}
// * * * * * * * * * * * * * * * * * * * * * * * * * * * * * * * * * * * * * //

dimensions      [0 1 -1 0 0 0 0];

internalField   nonuniform List<vector> 
2250
(
(-1.50293e-11 -1.19927e-10 -0.000999998)
(-4.28083e-11 -1.20463e-10 -0.000999998)
(-7.3924e-11 -1.23063e-10 -0.000999999)
(-1.04921e-10 -1.22151e-10 -0.000999999)
(-1.65407e-10 -1.11544e-10 -0.000999999)
(-1.4172e-11 -9.63681e-11 -0.000999999)
(-4.5895e-11 -9.53979e-11 -0.000999999)
(-8.35802e-11 -1.02738e-10 -0.000999999)
(-1.18055e-10 -1.1357e-10 -0.000999999)
(-1.56639e-10 -1.29516e-10 -0.000999999)
(-1.38461e-11 -6.61335e-11 -0.000999999)
(-4.89697e-11 -6.6559e-11 -0.000999999)
(-9.20908e-11 -7.32654e-11 -0.000999999)
(-1.31676e-10 -8.33845e-11 -0.000999999)
(-1.59163e-10 -9.93712e-11 -0.000999999)
(-1.44497e-11 -3.90888e-11 -0.000999999)
(-5.28823e-11 -4.10006e-11 -0.000999999)
(-1.00399e-10 -4.68207e-11 -0.000999999)
(-1.4415e-10 -5.43072e-11 -0.000999999)
(-1.65602e-10 -6.4779e-11 -0.001)
(-1.56398e-11 -1.30929e-11 -0.000999999)
(-5.65024e-11 -1.43411e-11 -0.000999999)
(-1.05179e-10 -1.6846e-11 -0.000999999)
(-1.49327e-10 -1.93208e-11 -0.000999999)
(-1.67563e-10 -2.23058e-11 -0.001)
(-4.44354e-11 -3.4707e-10 -0.000999998)
(-1.31301e-10 -3.4701e-10 -0.000999998)
(-2.34472e-10 -3.55313e-10 -0.000999999)
(-3.29484e-10 -3.55823e-10 -0.000999999)
(-4.76507e-10 -3.16501e-10 -0.000999999)
(-4.10425e-11 -2.78208e-10 -0.000999999)
(-1.37242e-10 -2.75767e-10 -0.000999999)
(-2.54042e-10 -2.95699e-10 -0.000999999)
(-3.61614e-10 -3.17973e-10 -0.000999999)
(-4.64919e-10 -3.55346e-10 -0.000999999)
(-4.14099e-11 -1.91843e-10 -0.000999999)
(-1.48223e-10 -1.96452e-10 -0.000999999)
(-2.76657e-10 -2.16537e-10 -0.000999999)
(-3.89143e-10 -2.39136e-10 -0.000999999)
(-4.70318e-10 -2.65633e-10 -0.000999999)
(-4.52467e-11 -1.17287e-10 -0.000999999)
(-1.61543e-10 -1.26834e-10 -0.000999999)
(-2.96705e-10 -1.41759e-10 -0.000999999)
(-4.10692e-10 -1.55266e-10 -0.000999999)
(-4.78146e-10 -1.6675e-10 -0.001)
(-5.0622e-11 -4.08719e-11 -0.000999999)
(-1.72119e-10 -4.63919e-11 -0.000999999)
(-3.04467e-10 -5.18239e-11 -0.000999999)
(-4.13305e-10 -5.47424e-11 -0.000999999)
(-4.74773e-10 -5.52421e-11 -0.001)
(-7.96404e-11 -5.89315e-10 -0.000999998)
(-2.43303e-10 -5.86873e-10 -0.000999998)
(-4.42069e-10 -5.99855e-10 -0.000999999)
(-6.83032e-10 -6.08633e-10 -0.000999999)
(-7.29284e-10 -6.29877e-10 -0.000999999)
(-7.38434e-11 -4.74237e-10 -0.000999998)
(-2.49003e-10 -4.73664e-10 -0.000999999)
(-4.54205e-10 -5.02135e-10 -0.000999999)
(-6.58849e-10 -5.17561e-10 -0.000999999)
(-7.99859e-10 -4.90532e-10 -0.000999999)
(-7.80974e-11 -3.41091e-10 -0.000999999)
(-2.70256e-10 -3.54425e-10 -0.000999999)
(-4.85953e-10 -3.83012e-10 -0.000999999)
(-6.71434e-10 -4.06505e-10 -0.000999999)
(-8.04981e-10 -4.02563e-10 -0.001)
(-8.64665e-11 -2.20472e-10 -0.000999999)
(-2.90238e-10 -2.37439e-10 -0.000999999)
(-5.06252e-10 -2.53256e-10 -0.000999999)
(-6.78389e-10 -2.61807e-10 -0.000999999)
(-8.02111e-10 -2.51933e-10 -0.001)
(-9.44355e-11 -7.95965e-11 -0.000999999)
(-3.01997e-10 -8.78652e-11 -0.000999999)
(-5.09258e-10 -9.20706e-11 -0.000999999)
(-6.68718e-10 -9.19095e-11 -0.000999999)
(-7.88274e-10 -8.37991e-11 -0.001)
(-1.22276e-10 -8.76991e-10 -0.000999998)
(-3.90325e-10 -8.76392e-10 -0.000999998)
(-7.11017e-10 -8.91603e-10 -0.000999998)
(-1.08184e-09 -9.03869e-10 -0.000999999)
(-1.05419e-09 -9.81058e-10 -0.000999999)
(-1.22141e-10 -7.27258e-10 -0.000999998)
(-4.05216e-10 -7.38256e-10 -0.000999999)
(-7.17598e-10 -7.69991e-10 -0.000999999)
(-1.0134e-09 -7.69376e-10 -0.000999999)
(-1.17364e-09 -6.87594e-10 -0.001)
(-1.31804e-10 -5.5397e-10 -0.000999999)
(-4.31631e-10 -5.73687e-10 -0.000999999)
(-7.42104e-10 -5.97667e-10 -0.000999999)
(-9.99438e-10 -6.07356e-10 -0.000999999)
(-1.17722e-09 -5.71096e-10 -0.001)
(-1.40721e-10 -3.68397e-10 -0.000999999)
(-4.47813e-10 -3.84678e-10 -0.000999999)
(-7.51218e-10 -3.94016e-10 -0.000999999)
(-9.86793e-10 -3.94599e-10 -0.001)
(-1.16611e-09 -3.69756e-10 -0.001)
(-1.47019e-10 -1.3323e-10 -0.000999999)
(-4.55601e-10 -1.40141e-10 -0.000999999)
(-7.50449e-10 -1.42222e-10 -0.000999999)
(-9.73138e-10 -1.40924e-10 -0.001)
(-1.14897e-09 -1.30619e-10 -0.001)
(-1.89512e-10 -1.27572e-09 -0.000999998)
(-6.10941e-10 -1.28069e-09 -0.000999998)
(-1.06979e-09 -1.2901e-09 -0.000999998)
(-1.53014e-09 -1.29021e-09 -0.000999999)
(-1.5441e-09 -1.369e-09 -0.000999999)
(-1.97535e-10 -1.10782e-09 -0.000999998)
(-6.30377e-10 -1.12773e-09 -0.000999998)
(-1.06789e-09 -1.14781e-09 -0.000999999)
(-1.44467e-09 -1.13377e-09 -0.000999999)
(-1.64609e-09 -1.03101e-09 -0.001)
(-2.07222e-10 -8.69842e-10 -0.000999999)
(-6.4877e-10 -8.86083e-10 -0.000999999)
(-1.07579e-09 -8.96618e-10 -0.000999999)
(-1.41334e-09 -8.94415e-10 -0.001)
(-1.63272e-09 -8.49009e-10 -0.001)
(-2.12043e-10 -5.75754e-10 -0.000999999)
(-6.55428e-10 -5.87235e-10 -0.000999999)
(-1.07616e-09 -5.91847e-10 -0.001)
(-1.39702e-09 -5.91146e-10 -0.001)
(-1.62074e-09 -5.73542e-10 -0.001)
(-2.17163e-10 -2.05366e-10 -0.000999999)
(-6.62405e-10 -2.11297e-10 -0.000999999)
(-1.07747e-09 -2.14058e-10 -0.001)
(-1.39217e-09 -2.14786e-10 -0.001)
(-1.60843e-09 -2.12033e-10 -0.001)
(-3.01703e-10 -1.84545e-09 -0.000999997)
(-9.39395e-10 -1.84864e-09 -0.000999998)
(-1.55863e-09 -1.84441e-09 -0.000999998)
(-2.12249e-09 -1.82591e-09 -0.000999999)
(-2.14465e-09 -1.89827e-09 -0.001)
(-3.06179e-10 -1.65843e-09 -0.000999998)
(-9.38776e-10 -1.6686e-09 -0.000999998)
(-1.52779e-09 -1.66175e-09 -0.000999999)
(-1.99279e-09 -1.62937e-09 -0.000999999)
(-2.24429e-09 -1.49616e-09 -0.001)
(-3.08652e-10 -1.30817e-09 -0.000999999)
(-9.39484e-10 -1.31525e-09 -0.000999999)
(-1.51932e-09 -1.31304e-09 -0.000999999)
(-1.95681e-09 -1.30513e-09 -0.001)
(-2.22124e-09 -1.2715e-09 -0.001)
(-3.1069e-10 -8.5722e-10 -0.000999999)
(-9.4106e-10 -8.68215e-10 -0.000999999)
(-1.5176e-09 -8.70434e-10 -0.001)
(-1.95119e-09 -8.71016e-10 -0.001)
(-2.21469e-09 -8.73054e-10 -0.001)
(-3.17367e-10 -3.03323e-10 -0.000999999)
(-9.49148e-10 -3.11189e-10 -0.001)
(-1.51906e-09 -3.13845e-10 -0.001)
(-1.95551e-09 -3.15639e-10 -0.001)
(-2.20791e-09 -3.21987e-10 -0.001)
(-4.57346e-10 -2.62177e-09 -0.000999997)
(-1.36592e-09 -2.61442e-09 -0.000999997)
(-2.1754e-09 -2.59712e-09 -0.000999998)
(-2.86457e-09 -2.57151e-09 -0.000999999)
(-2.87641e-09 -2.6742e-09 -0.001)
(-4.47896e-10 -2.38879e-09 -0.000999998)
(-1.33383e-09 -2.37969e-09 -0.000999998)
(-2.11289e-09 -2.34844e-09 -0.000999999)
(-2.71081e-09 -2.29733e-09 -0.001)
(-2.99335e-09 -2.15014e-09 -0.001)
(-4.43633e-10 -1.88726e-09 -0.000999999)
(-1.32085e-09 -1.88866e-09 -0.000999999)
(-2.09299e-09 -1.87656e-09 -0.001)
(-2.66634e-09 -1.86282e-09 -0.001)
(-2.98367e-09 -1.82905e-09 -0.001)
(-4.45605e-10 -1.2328e-09 -0.000999999)
(-1.31933e-09 -1.24242e-09 -0.001)
(-2.08691e-09 -1.2372e-09 -0.001)
(-2.66323e-09 -1.23493e-09 -0.001)
(-2.9827e-09 -1.23807e-09 -0.001)
(-4.49943e-10 -4.34498e-10 -0.001)
(-1.32018e-09 -4.40562e-10 -0.001)
(-2.08132e-09 -4.38787e-10 -0.001)
(-2.66195e-09 -4.39049e-10 -0.001)
(-2.97294e-09 -4.42644e-10 -0.001)
(-6.41204e-10 -3.66082e-09 -0.000999996)
(-1.87087e-09 -3.64668e-09 -0.000999997)
(-2.91992e-09 -3.62134e-09 -0.000999997)
(-3.75187e-09 -3.59907e-09 -0.000999998)
(-3.90772e-09 -3.6922e-09 -0.000999999)
(-6.249e-10 -3.33851e-09 -0.000999997)
(-1.82951e-09 -3.32264e-09 -0.000999998)
(-2.85533e-09 -3.28388e-09 -0.000999999)
(-3.63242e-09 -3.22764e-09 -0.001)
(-3.97864e-09 -3.111e-09 -0.001)
(-6.18833e-10 -2.65074e-09 -0.000999999)
(-1.80959e-09 -2.64803e-09 -0.000999999)
(-2.82481e-09 -2.624e-09 -0.001)
(-3.57899e-09 -2.60021e-09 -0.001)
(-3.97915e-09 -2.55162e-09 -0.001)
(-6.16993e-10 -1.7242e-09 -0.000999999)
(-1.79746e-09 -1.72279e-09 -0.001)
(-2.80734e-09 -1.70736e-09 -0.001)
(-3.55993e-09 -1.69831e-09 -0.001)
(-3.97389e-09 -1.67655e-09 -0.001)
(-6.12875e-10 -6.01654e-10 -0.001)
(-1.78582e-09 -5.99884e-10 -0.001)
(-2.79475e-09 -5.94696e-10 -0.001)
(-3.5412e-09 -5.92753e-10 -0.001)
(-3.95324e-09 -5.82838e-10 -0.001)
(-8.62646e-10 -5.07735e-09 -0.000999995)
(-2.5029e-09 -5.06714e-09 -0.000999996)
(-3.87868e-09 -5.03369e-09 -0.000999997)
(-4.91785e-09 -4.99123e-09 -0.000999998)
(-5.3549e-09 -5.02502e-09 -0.000999999)
(-8.51702e-10 -4.6135e-09 -0.000999997)
(-2.473e-09 -4.60312e-09 -0.000999997)
(-3.83274e-09 -4.5642e-09 -0.000999998)
(-4.83982e-09 -4.51676e-09 -0.001)
(-5.3475e-09 -4.42808e-09 -0.001)
(-8.43309e-10 -3.6713e-09 -0.000999998)
(-2.44447e-09 -3.65963e-09 -0.000999999)
(-3.79217e-09 -3.62453e-09 -0.001)
(-4.78173e-09 -3.59262e-09 -0.001)
(-5.32425e-09 -3.53023e-09 -0.001)
(-8.32897e-10 -2.36757e-09 -0.000999999)
(-2.41891e-09 -2.35456e-09 -0.001)
(-3.76549e-09 -2.33646e-09 -0.001)
(-4.74537e-09 -2.32135e-09 -0.001)
(-5.30369e-09 -2.28059e-09 -0.001)
(-8.24148e-10 -8.15954e-10 -0.001)
(-2.40396e-09 -8.10366e-10 -0.001)
(-3.75147e-09 -8.073e-10 -0.001)
(-4.71652e-09 -8.03669e-10 -0.001)
(-5.27676e-09 -7.8769e-10 -0.001)
(-1.16429e-09 -7.02814e-09 -0.000999993)
(-3.37751e-09 -7.02306e-09 -0.000999994)
(-5.22205e-09 -6.98004e-09 -0.000999996)
(-6.5509e-09 -6.91228e-09 -0.000999997)
(-7.31127e-09 -6.86494e-09 -0.001)
(-1.15609e-09 -6.36089e-09 -0.000999996)
(-3.34786e-09 -6.35018e-09 -0.000999996)
(-5.18046e-09 -6.30372e-09 -0.000999998)
(-6.50361e-09 -6.26083e-09 -0.001)
(-7.2421e-09 -6.2015e-09 -0.001)
(-1.1413e-09 -5.05078e-09 -0.000999998)
(-3.30781e-09 -5.03107e-09 -0.000999998)
(-5.13251e-09 -4.99232e-09 -0.001)
(-6.44868e-09 -4.95632e-09 -0.001)
(-7.19181e-09 -4.90148e-09 -0.001)
(-1.12664e-09 -3.23683e-09 -0.000999999)
(-3.27936e-09 -3.22549e-09 -0.001)
(-5.1054e-09 -3.21123e-09 -0.001)
(-6.41258e-09 -3.19423e-09 -0.001)
(-7.16418e-09 -3.1656e-09 -0.00100001)
(-1.12155e-09 -1.10973e-09 -0.001)
(-3.26941e-09 -1.10893e-09 -0.001)
(-5.09106e-09 -1.10829e-09 -0.001)
(-6.39032e-09 -1.10456e-09 -0.001)
(-7.14244e-09 -1.09861e-09 -0.00100001)
(-1.58808e-09 -9.69497e-09 -0.000999991)
(-4.60027e-09 -9.68715e-09 -0.000999992)
(-7.1077e-09 -9.63685e-09 -0.000999994)
(-8.89958e-09 -9.56353e-09 -0.000999997)
(-9.91722e-09 -9.4992e-09 -0.001)
(-1.57296e-09 -8.74945e-09 -0.000999994)
(-4.55664e-09 -8.73183e-09 -0.000999995)
(-7.0614e-09 -8.67823e-09 -0.000999997)
(-8.85383e-09 -8.63662e-09 -0.001)
(-9.84953e-09 -8.58725e-09 -0.001)
(-1.55358e-09 -6.9328e-09 -0.000999997)
(-4.51183e-09 -6.91549e-09 -0.000999998)
(-7.01221e-09 -6.87968e-09 -0.001)
(-8.8086e-09 -6.84351e-09 -0.001)
(-9.79707e-09 -6.81287e-09 -0.00100001)
(-1.54226e-09 -4.44013e-09 -0.000999999)
(-4.48975e-09 -4.43797e-09 -0.001)
(-6.98898e-09 -4.42603e-09 -0.001)
(-8.78675e-09 -4.41263e-09 -0.001)
(-9.77805e-09 -4.40863e-09 -0.00100001)
(-1.53984e-09 -1.52425e-09 -0.001)
(-4.48015e-09 -1.52774e-09 -0.001)
(-6.97287e-09 -1.52635e-09 -0.001)
(-8.77368e-09 -1.52533e-09 -0.00100001)
(-9.76137e-09 -1.53054e-09 -0.00100001)
(-2.16486e-09 -1.33228e-08 -0.000999988)
(-6.26529e-09 -1.33112e-08 -0.000999989)
(-9.69363e-09 -1.3256e-08 -0.000999992)
(-1.21253e-08 -1.31853e-08 -0.000999995)
(-1.35717e-08 -1.30743e-08 -0.001)
(-2.14333e-09 -1.20044e-08 -0.000999992)
(-6.21702e-09 -1.19874e-08 -0.000999993)
(-9.65463e-09 -1.19386e-08 -0.000999996)
(-1.21186e-08 -1.19041e-08 -0.001)
(-1.34514e-08 -1.19035e-08 -0.001)
(-2.12473e-09 -9.51413e-09 -0.000999996)
(-6.1759e-09 -9.50641e-09 -0.000999997)
(-9.60995e-09 -9.47535e-09 -0.001)
(-1.20902e-08 -9.4439e-09 -0.001)
(-1.34015e-08 -9.43866e-09 -0.00100001)
(-2.11718e-09 -6.10221e-09 -0.000999998)
(-6.15933e-09 -6.10613e-09 -0.001)
(-9.59153e-09 -6.09615e-09 -0.001)
(-1.20816e-08 -6.08712e-09 -0.00100001)
(-1.33839e-08 -6.09135e-09 -0.00100001)
(-2.11268e-09 -2.09818e-09 -0.001)
(-6.14564e-09 -2.10182e-09 -0.001)
(-9.57166e-09 -2.10061e-09 -0.001)
(-1.20614e-08 -2.10085e-09 -0.00100001)
(-1.33559e-08 -2.10411e-09 -0.00100001)
(-2.94303e-09 -1.82733e-08 -0.000999984)
(-8.52624e-09 -1.82651e-08 -0.000999985)
(-1.32251e-08 -1.82051e-08 -0.000999989)
(-1.65682e-08 -1.81304e-08 -0.000999994)
(-1.85595e-08 -1.79584e-08 -0.001)
(-2.92008e-09 -1.64538e-08 -0.000999989)
(-8.48034e-09 -1.64459e-08 -0.000999991)
(-1.31927e-08 -1.64033e-08 -0.000999995)
(-1.65793e-08 -1.63722e-08 -0.001)
(-1.83952e-08 -1.63938e-08 -0.00100001)
(-2.90338e-09 -1.30544e-08 -0.000999994)
(-8.44339e-09 -1.3057e-08 -0.000999996)
(-1.31508e-08 -1.30297e-08 -0.001)
(-1.65587e-08 -1.29969e-08 -0.001)
(-1.83282e-08 -1.29949e-08 -0.00100001)
(-2.89738e-09 -8.38103e-09 -0.000999998)
(-8.42967e-09 -8.39134e-09 -0.001)
(-1.31317e-08 -8.38188e-09 -0.001)
(-1.6544e-08 -8.36286e-09 -0.00100001)
(-1.82886e-08 -8.34985e-09 -0.00100001)
(-2.89178e-09 -2.88321e-09 -0.001)
(-8.41104e-09 -2.88878e-09 -0.001)
(-1.3096e-08 -2.88674e-09 -0.001)
(-1.64938e-08 -2.87892e-09 -0.00100001)
(-1.82307e-08 -2.86895e-09 -0.00100002)
(-4.00105e-09 -2.505e-08 -0.000999978)
(-1.16089e-08 -2.50483e-08 -0.00099998)
(-1.80492e-08 -2.49775e-08 -0.000999985)
(-2.26678e-08 -2.48953e-08 -0.000999992)
(-2.52784e-08 -2.4702e-08 -0.000999999)
(-3.97647e-09 -2.25531e-08 -0.000999986)
(-1.15569e-08 -2.25558e-08 -0.000999988)
(-1.79981e-08 -2.25077e-08 -0.000999993)
(-2.26522e-08 -2.24541e-08 -0.000999999)
(-2.511e-08 -2.24449e-08 -0.00100001)
(-3.96025e-09 -1.79065e-08 -0.000999992)
(-1.15192e-08 -1.79193e-08 -0.000999995)
(-1.79469e-08 -1.78853e-08 -0.001)
(-2.26049e-08 -1.78283e-08 -0.00100001)
(-2.50127e-08 -1.77835e-08 -0.00100001)
(-3.9546e-09 -1.15035e-08 -0.000999997)
(-1.15002e-08 -1.1519e-08 -0.001)
(-1.7906e-08 -1.14941e-08 -0.001)
(-2.25497e-08 -1.14434e-08 -0.00100001)
(-2.49347e-08 -1.13875e-08 -0.00100002)
(-3.94578e-09 -3.95898e-09 -0.001)
(-1.14645e-08 -3.96544e-09 -0.001)
(-1.78353e-08 -3.95358e-09 -0.00100001)
(-2.24535e-08 -3.93006e-09 -0.00100001)
(-2.48366e-08 -3.90161e-09 -0.00100002)
(-5.44369e-09 -3.4339e-08 -0.00099997)
(-1.58129e-08 -3.43404e-08 -0.000999973)
(-2.46175e-08 -3.42374e-08 -0.00099998)
(-3.09991e-08 -3.41112e-08 -0.000999989)
(-3.44342e-08 -3.39272e-08 -0.000999999)
(-5.4166e-09 -3.0924e-08 -0.000999981)
(-1.57463e-08 -3.09368e-08 -0.000999984)
(-2.45311e-08 -3.08617e-08 -0.00099999)
(-3.09113e-08 -3.07575e-08 -0.000999999)
(-3.42448e-08 -3.06576e-08 -0.00100001)
(-5.39687e-09 -2.4559e-08 -0.00099999)
(-1.569e-08 -2.45732e-08 -0.000999993)
(-2.44373e-08 -2.45028e-08 -0.000999999)
(-3.07951e-08 -2.43882e-08 -0.00100001)
(-3.40859e-08 -2.42605e-08 -0.00100002)
(-5.38333e-09 -1.57781e-08 -0.000999996)
(-1.56415e-08 -1.57835e-08 -0.001)
(-2.43447e-08 -1.57222e-08 -0.00100001)
(-3.06681e-08 -1.56261e-08 -0.00100001)
(-3.39506e-08 -1.55089e-08 -0.00100003)
(-5.36141e-09 -5.42909e-09 -0.001)
(-1.55722e-08 -5.428e-09 -0.001)
(-2.42309e-08 -5.40098e-09 -0.00100001)
(-3.05208e-08 -5.36214e-09 -0.00100002)
(-3.38037e-08 -5.31393e-09 -0.00100003)
(-7.42e-09 -4.70842e-08 -0.000999959)
(-2.15721e-08 -4.70781e-08 -0.000999964)
(-3.36068e-08 -4.68974e-08 -0.000999972)
(-4.23534e-08 -4.66513e-08 -0.000999985)
(-4.70459e-08 -4.63347e-08 -0.000999999)
(-7.38259e-09 -4.24165e-08 -0.000999974)
(-2.14603e-08 -4.24238e-08 -0.000999978)
(-3.34338e-08 -4.22737e-08 -0.000999987)
(-4.2145e-08 -4.20615e-08 -0.000999999)
(-4.67191e-08 -4.18237e-08 -0.00100001)
(-7.34583e-09 -3.36741e-08 -0.000999986)
(-2.13463e-08 -3.36673e-08 -0.000999991)
(-3.32432e-08 -3.35229e-08 -0.000999999)
(-4.19035e-08 -3.33115e-08 -0.00100001)
(-4.6429e-08 -3.30655e-08 -0.00100003)
(-7.31099e-09 -2.1618e-08 -0.000999995)
(-2.12427e-08 -2.16e-08 -0.001)
(-3.3076e-08 -2.14921e-08 -0.00100001)
(-4.16863e-08 -2.1339e-08 -0.00100002)
(-4.6198e-08 -2.11555e-08 -0.00100003)
(-7.27198e-09 -7.4326e-09 -0.001)
(-2.11361e-08 -7.42197e-09 -0.001)
(-3.29157e-08 -7.38208e-09 -0.00100001)
(-4.14839e-08 -7.32704e-09 -0.00100003)
(-4.59848e-08 -7.26168e-09 -0.00100004)
(-1.01338e-08 -6.45593e-08 -0.000999944)
(-2.94761e-08 -6.45195e-08 -0.00099995)
(-4.59422e-08 -6.41961e-08 -0.000999963)
(-5.79356e-08 -6.37445e-08 -0.00099998)
(-6.4238e-08 -6.31731e-08 -0.001)
(-1.00624e-08 -5.81755e-08 -0.000999964)
(-2.92498e-08 -5.81424e-08 -0.000999971)
(-4.5571e-08 -5.78445e-08 -0.000999983)
(-5.74509e-08 -5.74222e-08 -0.000999999)
(-6.36882e-08 -5.69071e-08 -0.00100002)
(-9.98909e-09 -4.61487e-08 -0.000999981)
(-2.90315e-08 -4.61009e-08 -0.000999988)
(-4.52202e-08 -4.58467e-08 -0.001)
(-5.69982e-08 -4.54862e-08 -0.00100002)
(-6.31998e-08 -4.50583e-08 -0.00100004)
(-9.92594e-09 -2.96045e-08 -0.000999994)
(-2.88568e-08 -2.95635e-08 -0.001)
(-4.49535e-08 -2.93969e-08 -0.00100001)
(-5.66608e-08 -2.91633e-08 -0.00100003)
(-6.2832e-08 -2.88965e-08 -0.00100005)
(-9.87186e-09 -1.01738e-08 -0.001)
(-2.87088e-08 -1.01584e-08 -0.00100001)
(-4.47295e-08 -1.01022e-08 -0.00100002)
(-5.63847e-08 -1.00234e-08 -0.00100003)
(-6.25249e-08 -9.93781e-09 -0.00100005)
(-1.38424e-08 -8.84787e-08 -0.000999924)
(-4.02596e-08 -8.83638e-08 -0.000999933)
(-6.27478e-08 -8.78127e-08 -0.000999949)
(-7.91548e-08 -8.70498e-08 -0.000999972)
(-8.76275e-08 -8.61492e-08 -0.000999999)
(-1.37079e-08 -7.97436e-08 -0.000999952)
(-3.98489e-08 -7.96349e-08 -0.00099996)
(-6.20804e-08 -7.91231e-08 -0.000999977)
(-7.82733e-08 -7.83972e-08 -0.000999999)
(-8.67309e-08 -7.74962e-08 -0.00100003)
(-1.35811e-08 -6.32166e-08 -0.000999975)
(-3.94835e-08 -6.31142e-08 -0.000999984)
(-6.15077e-08 -6.27074e-08 -0.001)
(-7.75277e-08 -6.2138e-08 -0.00100002)
(-8.5965e-08 -6.14513e-08 -0.00100005)
(-1.34842e-08 -4.05446e-08 -0.000999992)
(-3.92153e-08 -4.04776e-08 -0.001)
(-6.11005e-08 -4.02245e-08 -0.00100002)
(-7.70149e-08 -3.9874e-08 -0.00100004)
(-8.54079e-08 -3.94702e-08 -0.00100006)
(-1.34102e-08 -1.39342e-08 -0.001)
(-3.90064e-08 -1.39129e-08 -0.00100001)
(-6.07808e-08 -1.38295e-08 -0.00100003)
(-7.66196e-08 -1.37143e-08 -0.00100005)
(-8.49597e-08 -1.35863e-08 -0.00100007)
(-1.88864e-08 -1.21203e-07 -0.000999897)
(-5.49069e-08 -1.20969e-07 -0.000999909)
(-8.55354e-08 -1.20089e-07 -0.000999932)
(-1.07853e-07 -1.18865e-07 -0.000999963)
(-1.19542e-07 -1.17446e-07 -0.000999999)
(-1.86599e-08 -1.09236e-07 -0.000999935)
(-5.42494e-08 -1.09019e-07 -0.000999947)
(-8.45041e-08 -1.08226e-07 -0.000999969)
(-1.06532e-07 -1.07122e-07 -0.000999999)
(-1.18082e-07 -1.05794e-07 -0.00100004)
(-1.84614e-08 -8.6577e-08 -0.000999967)
(-5.36847e-08 -8.64011e-08 -0.000999978)
(-8.36349e-08 -8.57809e-08 -0.001)
(-1.05421e-07 -8.49243e-08 -0.00100003)
(-1.16884e-07 -8.38969e-08 -0.00100007)
(-1.83184e-08 -5.55315e-08 -0.00099999)
(-5.32832e-08 -5.54279e-08 -0.001)
(-8.30222e-08 -5.50451e-08 -0.00100002)
(-1.04645e-07 -5.45132e-08 -0.00100005)
(-1.16028e-07 -5.38836e-08 -0.00100009)
(-1.82159e-08 -1.90883e-08 -0.001)
(-5.29841e-08 -1.90578e-08 -0.00100001)
(-8.25523e-08 -1.89311e-08 -0.00100004)
(-1.0405e-07 -1.87528e-08 -0.00100007)
(-1.15357e-07 -1.85435e-08 -0.0010001)
(-2.57379e-08 -1.66029e-07 -0.00099986)
(-7.48191e-08 -1.6563e-07 -0.000999876)
(-1.16527e-07 -1.64289e-07 -0.000999907)
(-1.46845e-07 -1.62422e-07 -0.000999949)
(-1.62927e-07 -1.60209e-07 -0.000999999)
(-2.53849e-08 -1.4961e-07 -0.000999912)
(-7.38134e-08 -1.49244e-07 -0.000999928)
(-1.14981e-07 -1.48047e-07 -0.000999958)
(-1.44917e-07 -1.46396e-07 -0.001)
(-1.60691e-07 -1.44472e-07 -0.00100005)
(-2.50876e-08 -1.18582e-07 -0.000999956)
(-7.29648e-08 -1.18303e-07 -0.000999972)
(-1.13674e-07 -1.17365e-07 -0.001)
(-1.4327e-07 -1.16065e-07 -0.00100004)
(-1.58842e-07 -1.14527e-07 -0.00100009)
(-2.48804e-08 -7.60737e-08 -0.000999988)
(-7.23647e-08 -7.59128e-08 -0.001)
(-1.12735e-07 -7.53194e-08 -0.00100003)
(-1.42075e-07 -7.44884e-08 -0.00100007)
(-1.57511e-07 -7.35023e-08 -0.00100012)
(-2.47329e-08 -2.61555e-08 -0.001)
(-7.19185e-08 -2.61063e-08 -0.00100002)
(-1.12022e-07 -2.59028e-08 -0.00100005)
(-1.41168e-07 -2.56171e-08 -0.00100009)
(-1.56504e-07 -2.52784e-08 -0.00100014)
(-3.50576e-08 -2.27558e-07 -0.00099981)
(-1.01933e-07 -2.26906e-07 -0.000999832)
(-1.58764e-07 -2.24872e-07 -0.000999874)
(-2.00027e-07 -2.2207e-07 -0.000999932)
(-2.21839e-07 -2.18737e-07 -0.000999999)
(-3.45264e-08 -2.05008e-07 -0.000999881)
(-1.00404e-07 -2.04423e-07 -0.000999903)
(-1.56404e-07 -2.02591e-07 -0.000999944)
(-1.97097e-07 -2.00063e-07 -0.001)
(-2.18512e-07 -1.97135e-07 -0.00100007)
(-3.40841e-08 -1.62488e-07 -0.000999941)
(-9.91191e-08 -1.62042e-07 -0.000999963)
(-1.54398e-07 -1.60593e-07 -0.001)
(-1.94571e-07 -1.58578e-07 -0.00100006)
(-2.15696e-07 -1.56213e-07 -0.00100012)
(-3.37713e-08 -1.04249e-07 -0.000999985)
(-9.81912e-08 -1.03967e-07 -0.00100001)
(-1.5293e-07 -1.03031e-07 -0.00100005)
(-1.92712e-07 -1.01733e-07 -0.0010001)
(-2.13641e-07 -1.002e-07 -0.00100017)
(-3.35379e-08 -3.58457e-08 -0.00100001)
(-9.75027e-08 -3.57463e-08 -0.00100003)
(-1.51853e-07 -3.54208e-08 -0.00100007)
(-1.91354e-07 -3.49745e-08 -0.00100012)
(-2.12146e-07 -3.44461e-08 -0.00100019)
(-4.77549e-08 -3.1214e-07 -0.000999742)
(-1.3886e-07 -3.11065e-07 -0.000999772)
(-2.16274e-07 -3.07936e-07 -0.000999829)
(-2.72489e-07 -3.03641e-07 -0.000999907)
(-3.02091e-07 -2.98567e-07 -0.001)
(-4.6951e-08 -2.81114e-07 -0.00099984)
(-1.36519e-07 -2.80162e-07 -0.000999869)
(-2.12635e-07 -2.77327e-07 -0.000999925)
(-2.67943e-07 -2.73422e-07 -0.001)
(-2.97008e-07 -2.68873e-07 -0.00100009)
(-4.62721e-08 -2.22751e-07 -0.000999922)
(-1.3453e-07 -2.21995e-07 -0.000999951)
(-2.09524e-07 -2.19737e-07 -0.00100001)
(-2.64034e-07 -2.16623e-07 -0.00100008)
(-2.9269e-07 -2.12976e-07 -0.00100017)
(-4.5772e-08 -1.42875e-07 -0.000999983)
(-1.3307e-07 -1.42372e-07 -0.00100001)
(-2.0725e-07 -1.40919e-07 -0.00100006)
(-2.61175e-07 -1.38921e-07 -0.00100014)
(-2.89537e-07 -1.36577e-07 -0.00100023)
(-4.54079e-08 -4.91153e-08 -0.00100001)
(-1.32031e-07 -4.89338e-08 -0.00100004)
(-2.05652e-07 -4.84357e-08 -0.0010001)
(-2.59167e-07 -4.77506e-08 -0.00100017)
(-2.87326e-07 -4.69486e-08 -0.00100025)
(-6.50496e-08 -4.28494e-07 -0.000999649)
(-1.89122e-07 -4.26725e-07 -0.00099969)
(-2.94523e-07 -4.21879e-07 -0.000999768)
(-3.71105e-07 -4.15221e-07 -0.000999875)
(-4.11413e-07 -4.07382e-07 -0.001)
(-6.38043e-08 -3.85686e-07 -0.000999784)
(-1.85497e-07 -3.841e-07 -0.000999823)
(-2.88896e-07 -3.7971e-07 -0.000999899)
(-3.64045e-07 -3.73688e-07 -0.001)
(-4.03564e-07 -3.66634e-07 -0.00100013)
(-6.27376e-08 -3.05457e-07 -0.000999898)
(-1.82402e-07 -3.0418e-07 -0.000999937)
(-2.84098e-07 -3.00694e-07 -0.00100001)
(-3.58029e-07 -2.9591e-07 -0.00100011)
(-3.96908e-07 -2.90316e-07 -0.00100023)
(-6.19503e-08 -1.95835e-07 -0.00099998)
(-1.80141e-07 -1.95007e-07 -0.00100002)
(-2.80608e-07 -1.92775e-07 -0.00100009)
(-3.53656e-07 -1.89707e-07 -0.00100019)
(-3.92076e-07 -1.86137e-07 -0.00100031)
(-6.14175e-08 -6.73019e-08 -0.00100002)
(-1.78603e-07 -6.70176e-08 -0.00100006)
(-2.78226e-07 -6.62524e-08 -0.00100013)
(-3.50677e-07 -6.51994e-08 -0.00100023)
(-3.88785e-07 -6.39817e-08 -0.00100035)
(-8.85807e-08 -5.8866e-07 -0.000999524)
(-2.57496e-07 -5.85777e-07 -0.000999579)
(-4.00973e-07 -5.78285e-07 -0.000999685)
(-5.05267e-07 -5.68004e-07 -0.00099983)
(-5.60146e-07 -5.55946e-07 -0.001)
(-8.66348e-08 -5.29436e-07 -0.000999709)
(-2.51879e-07 -5.26823e-07 -0.000999763)
(-3.923e-07 -5.20055e-07 -0.000999865)
(-4.94382e-07 -5.10785e-07 -0.00100001)
(-5.48084e-07 -4.99915e-07 -0.00100017)
(-8.49753e-08 -4.19033e-07 -0.000999865)
(-2.47099e-07 -4.16959e-07 -0.000999918)
(-3.84919e-07 -4.1159e-07 -0.00100002)
(-4.85126e-07 -4.04223e-07 -0.00100015)
(-5.37836e-07 -3.95619e-07 -0.00100032)
(-8.37726e-08 -2.68543e-07 -0.000999979)
(-2.43624e-07 -2.6722e-07 -0.00100003)
(-3.79539e-07 -2.63765e-07 -0.00100013)
(-4.78397e-07 -2.59039e-07 -0.00100026)
(-5.30406e-07 -2.5354e-07 -0.00100042)
(-8.29819e-08 -9.22766e-08 -0.00100004)
(-2.41316e-07 -9.18242e-08 -0.00100009)
(-3.75962e-07 -9.06321e-08 -0.00100019)
(-4.73933e-07 -8.90126e-08 -0.00100032)
(-5.25465e-07 -8.71291e-08 -0.00100047)
(-1.20588e-07 -8.09377e-07 -0.000999354)
(-3.50528e-07 -8.0472e-07 -0.000999429)
(-5.4585e-07 -7.93144e-07 -0.000999573)
(-6.87838e-07 -7.77276e-07 -0.000999771)
(-7.62543e-07 -7.58722e-07 -0.001)
(-1.1757e-07 -7.27242e-07 -0.000999609)
(-3.41851e-07 -7.23023e-07 -0.000999682)
(-5.32475e-07 -7.12573e-07 -0.000999821)
(-6.71074e-07 -6.98258e-07 -0.00100001)
(-7.43979e-07 -6.81519e-07 -0.00100024)
(-1.15013e-07 -5.75166e-07 -0.000999824)
(-3.34467e-07 -5.71828e-07 -0.000999895)
(-5.21062e-07 -5.63505e-07 -0.00100003)
(-6.56785e-07 -5.52115e-07 -0.00100021)
(-7.28178e-07 -5.38816e-07 -0.00100043)
(-1.13156e-07 -3.68434e-07 -0.00099998)
(-3.2908e-07 -3.66281e-07 -0.00100005)
(-5.12729e-07 -3.60923e-07 -0.00100018)
(-6.46366e-07 -3.53612e-07 -0.00100036)
(-7.16692e-07 -3.45067e-07 -0.00100057)
(-1.11946e-07 -1.26575e-07 -0.00100006)
(-3.25586e-07 -1.25826e-07 -0.00100013)
(-5.07341e-07 -1.23985e-07 -0.00100026)
(-6.39616e-07 -1.21477e-07 -0.00100044)
(-7.0923e-07 -1.1854e-07 -0.00100065)
(-1.6415e-07 -1.11394e-06 -0.000999124)
(-4.77173e-07 -1.10645e-06 -0.000999226)
(-7.43089e-07 -1.0885e-06 -0.000999422)
(-9.3634e-07 -1.06397e-06 -0.000999692)
(-1.03796e-06 -1.03534e-06 -0.00100001)
(-1.59478e-07 -9.99699e-07 -0.000999476)
(-4.63722e-07 -9.9291e-07 -0.000999574)
(-7.22358e-07 -9.76674e-07 -0.000999762)
(-9.10434e-07 -9.54492e-07 -0.00100002)
(-1.00933e-06 -9.28639e-07 -0.00100033)
(-1.55506e-07 -7.89912e-07 -0.000999772)
(-4.52244e-07 -7.84504e-07 -0.000999868)
(-7.0464e-07 -7.71565e-07 -0.00100005)
(-8.88304e-07 -7.53899e-07 -0.0010003)
(-9.84928e-07 -7.33289e-07 -0.00100059)
(-1.52599e-07 -5.0567e-07 -0.000999986)
(-4.43858e-07 -5.02171e-07 -0.00100008)
(-6.91708e-07 -4.93858e-07 -0.00100026)
(-8.72131e-07 -4.82498e-07 -0.0010005)
(-9.6712e-07 -4.6921e-07 -0.00100078)
(-1.50763e-07 -1.73663e-07 -0.0010001)
(-4.3857e-07 -1.72453e-07 -0.00100019)
(-6.83541e-07 -1.69601e-07 -0.00100036)
(-8.61879e-07 -1.65695e-07 -0.0010006)
(-9.55816e-07 -1.61118e-07 -0.00100088)
(-2.23433e-07 -1.53473e-06 -0.000998814)
(-6.49539e-07 -1.52265e-06 -0.000998953)
(-1.01153e-06 -1.49474e-06 -0.00099922)
(-1.27448e-06 -1.45681e-06 -0.000999587)
(-1.41255e-06 -1.41273e-06 -0.00100002)
(-2.16153e-07 -1.3752e-06 -0.0009993)
(-6.2858e-07 -1.36424e-06 -0.000999433)
(-9.79315e-07 -1.33895e-06 -0.000999687)
(-1.23443e-06 -1.30452e-06 -0.00100004)
(-1.36848e-06 -1.26456e-06 -0.00100045)
(-2.09941e-07 -1.08532e-06 -0.000999708)
(-6.10678e-07 -1.07658e-06 -0.000999836)
(-9.51763e-07 -1.05643e-06 -0.00100008)
(-1.20009e-06 -1.02896e-06 -0.00100041)
(-1.33077e-06 -9.96993e-07 -0.00100081)
(-2.05404e-07 -6.94256e-07 -0.001)
(-5.97615e-07 -6.88622e-07 -0.00100013)
(-9.31636e-07 -6.75663e-07 -0.00100036)
(-1.17496e-06 -6.57958e-07 -0.00100069)
(-1.30315e-06 -6.37327e-07 -0.00100107)
(-2.02615e-07 -2.38353e-07 -0.00100016)
(-5.89553e-07 -2.36415e-07 -0.00100028)
(-9.1917e-07 -2.31957e-07 -0.00100051)
(-1.15935e-06 -2.25858e-07 -0.00100083)
(-1.28599e-06 -2.18749e-07 -0.0010012)
(-3.04041e-07 -2.11678e-06 -0.000998397)
(-8.83977e-07 -2.09725e-06 -0.000998586)
(-1.37676e-06 -2.05371e-06 -0.000998949)
(-1.73463e-06 -1.99498e-06 -0.000999448)
(-1.92215e-06 -1.92721e-06 -0.00100004)
(-2.92631e-07 -1.89293e-06 -0.000999068)
(-8.51216e-07 -1.87525e-06 -0.000999247)
(-1.32666e-06 -1.83576e-06 -0.00099959)
(-1.67267e-06 -1.78227e-06 -0.00100006)
(-1.85432e-06 -1.72047e-06 -0.00100062)
(-2.82899e-07 -1.49176e-06 -0.000999629)
(-8.23235e-07 -1.47767e-06 -0.0009998)
(-1.28371e-06 -1.44618e-06 -0.00100013)
(-1.61934e-06 -1.40337e-06 -0.00100058)
(-1.79598e-06 -1.35375e-06 -0.00100111)
(-2.758e-07 -9.53528e-07 -0.00100003)
(-8.02801e-07 -9.44435e-07 -0.0010002)
(-1.25227e-06 -9.2415e-07 -0.00100051)
(-1.5802e-06 -8.96494e-07 -0.00100095)
(-1.75311e-06 -8.64419e-07 -0.00100146)
(-2.71504e-07 -3.27292e-07 -0.00100025)
(-7.90416e-07 -3.24152e-07 -0.00100041)
(-1.23316e-06 -3.17166e-07 -0.00100071)
(-1.55635e-06 -3.07626e-07 -0.00100114)
(-1.72694e-06 -2.96566e-07 -0.00100164)
(-4.13519e-07 -2.92289e-06 -0.000997838)
(-1.20264e-06 -2.89122e-06 -0.000998094)
(-1.87372e-06 -2.82297e-06 -0.000998587)
(-2.36114e-06 -2.73185e-06 -0.000999268)
(-2.61584e-06 -2.62772e-06 -0.00100007)
(-3.95525e-07 -2.60704e-06 -0.000998765)
(-1.15119e-06 -2.57845e-06 -0.000999005)
(-1.79556e-06 -2.51655e-06 -0.000999467)
(-2.26516e-06 -2.43318e-06 -0.00100011)
(-2.51144e-06 -2.33752e-06 -0.00100086)
(-3.80209e-07 -2.05103e-06 -0.000999538)
(-1.10727e-06 -2.02824e-06 -0.000999765)
(-1.72837e-06 -1.97887e-06 -0.0010002)
(-2.18211e-06 -1.9119e-06 -0.0010008)
(-2.42105e-06 -1.83472e-06 -0.00100152)
(-3.69004e-07 -1.31019e-06 -0.00100009)
(-1.07517e-06 -1.29544e-06 -0.00100031)
(-1.6791e-06 -1.26364e-06 -0.00100073)
(-2.12094e-06 -1.22026e-06 -0.0010013)
(-2.35427e-06 -1.17013e-06 -0.00100199)
(-3.62333e-07 -4.4972e-07 -0.00100039)
(-1.05605e-06 -4.44616e-07 -0.0010006)
(-1.64968e-06 -4.33663e-07 -0.001001)
(-2.08422e-06 -4.18688e-07 -0.00100156)
(-2.314e-06 -4.01338e-07 -0.00100223)
(-5.61852e-07 -4.04069e-06 -0.000997093)
(-1.63525e-06 -3.98896e-06 -0.000997439)
(-2.55013e-06 -3.88129e-06 -0.000998108)
(-3.21527e-06 -3.73948e-06 -0.000999036)
(-3.56106e-06 -3.57991e-06 -0.00100013)
(-5.33196e-07 -3.59205e-06 -0.000998374)
(-1.55381e-06 -3.54557e-06 -0.000998694)
(-2.42739e-06 -3.44805e-06 -0.000999312)
(-3.0661e-06 -3.31735e-06 -0.00100017)
(-3.40071e-06 -3.16894e-06 -0.0010012)
(-5.08923e-07 -2.8204e-06 -0.000999436)
(-1.48457e-06 -2.78335e-06 -0.000999734)
(-2.3218e-06 -2.70582e-06 -0.00100031)
(-2.93616e-06 -2.60042e-06 -0.00100112)
(-3.26037e-06 -2.47975e-06 -0.00100207)
(-4.91065e-07 -1.80155e-06 -0.0010002)
(-1.43395e-06 -1.77742e-06 -0.00100048)
(-2.24431e-06 -1.72761e-06 -0.00100103)