/*--------------------------------*- C++ -*----------------------------------*\
  =========                 |
  \\      /  F ield         | OpenFOAM: The Open Source CFD Toolbox
   \\    /   O peration     | Website:  https://openfoam.org
    \\  /    A nd           | Version:  9
     \\/     M anipulation  |
\*---------------------------------------------------------------------------*/
FoamFile
{
    format      ascii;
    class       volVectorField;
    location    "5000";
    object      U;
}
// * * * * * * * * * * * * * * * * * * * * * * * * * * * * * * * * * * * * * //

dimensions      [0 1 -1 0 0 0 0];

internalField   nonuniform List<vector> 
720
(
(-0.0307573 0.013553 24.2302)
(-0.0289775 0.011845 23.5014)
(-0.0333005 0.0164635 24.1244)
(-0.0320724 0.0133299 23.4625)
(-0.0441096 0.0129693 24.645)
(-0.0528316 0.0184939 24.7709)
(-0.02522 0.0158866 24.544)
(-0.0467094 0.0199475 24.5567)
(-0.078607 0.0117 24.8516)
(-0.0503733 0.026798 24.1295)
(-0.0691048 0.0145915 24.7486)
(-0.0801892 0.00535695 24.4215)
(-0.106859 0.0114582 25.0596)
(-0.07382 -0.0238144 24.1573)
(-0.143102 0.0143323 24.912)
(-0.13184 -0.038624 24.1875)
(-0.134643 0.000784552 24.1334)
(-0.123899 -0.0749008 24.2361)
(-0.171081 0.00192682 24.1415)
(-0.20422 -0.08588 24.2964)
(-0.193304 -0.0304635 25.0453)
(-0.161322 -0.165826 24.4039)
(-0.227922 -0.0289082 24.6252)
(-0.105005 -0.0449576 23.5258)
(-0.166932 -0.020367 24.3273)
(-0.120331 -0.108276 23.5587)
(-0.213517 -0.0480488 24.9463)
(-0.120881 -0.0633832 24.0718)
(-0.248426 -0.0650584 24.7901)
(-0.162517 -0.13387 24.3888)
(-0.228583 -0.0368591 24.2054)
(-0.165786 -0.114046 24.1592)
(-0.275699 -0.0800092 24.9001)
(-0.142186 -0.122272 24.0566)
(-0.420672 -0.0623478 24.6973)
(-0.414795 -0.266691 23.9352)
(-0.349933 -0.120318 24.7403)
(-0.27052 -0.308621 24.1452)
(-0.357901 -0.0611019 24.8212)
(-0.619591 -0.405214 23.9076)
(-0.438376 -0.134665 24.9263)
(-0.349669 -0.431828 24.1977)
(-0.64465 -0.0791911 24.7707)
(-0.341777 -0.240605 23.7539)
(-0.276353 -0.0665116 24.8005)
(-0.247679 -0.435768 24.1265)
(-0.825185 -0.11299 24.7959)
(-0.247575 -0.180608 23.1087)
(-0.255989 -0.0723156 24.9501)
(-0.268544 -0.492566 24.1369)
(-0.54852 -0.071957 24.8038)
(0.027385 0.0158591 23.9144)
(-0.235131 -0.0715337 25.0166)
(-0.201952 -0.411679 24.1555)
(-0.511475 -0.0708664 24.8572)
(0.0521957 0.0987442 23.3692)
(-0.224083 -0.0764594 24.8834)
(-0.196592 -0.335682 24.4104)
(-0.428598 -0.0772337 24.8767)
(-0.29985 -0.128803 23.5944)
(-0.201205 -0.0942385 25.0018)
(-0.0758147 -0.192402 23.5906)
(-0.328086 -0.0945871 25.1468)
(-0.253083 -0.155395 23.3203)
(-0.150534 -0.0872239 25.2756)
(0.0401063 -0.196071 24.1797)
(-0.113233 -0.0837334 24.4228)
(-0.0818281 -0.0174589 23.4109)
(-0.169346 -0.140776 25.001)
(0.0723455 -0.182088 24.3319)
(-0.0772766 -0.0150949 24.9359)
(0.117451 0.185233 23.1748)
(-0.166194 -0.177539 24.4125)
(-0.11135 -0.0774625 24.2374)
(-0.056241 -0.0978141 25.0454)
(0.183147 0.239684 23.3875)
(-0.241661 -0.280125 25.3588)
(-0.299823 0.0225897 24.2174)
(0.0597719 -0.301939 25.0615)
(0.227263 0.263023 23.6348)
(-0.406376 -0.435654 25.4596)
(-0.106619 0.0206853 23.6044)
(0.187864 -0.370771 24.4818)
(0.239489 0.321495 23.2521)
(-0.6963 -0.700804 25.3133)
(-0.168131 0.0661411 24.1983)
(0.191901 -0.394345 25.0132)
(0.383406 0.437498 23.5752)
(-0.720212 -0.763671 25.4264)
(-0.0327261 0.157434 23.9731)
(0.0789856 0.046259 24.1457)
(0.252411 0.334075 23.4781)
(-0.449809 -0.601891 25.4016)
(0.0628758 0.271592 23.2192)
(0.0901851 0.0163872 24.8768)
(0.308789 0.314167 23.6009)
(-0.32166 -0.58364 25.9376)
(0.183983 0.0773954 23.9327)
(-0.0113228 0.14144 24.214)
(0.356973 0.26351 23.666)
(-0.0562821 -0.166565 24.8176)
(0.165903 -0.0311915 24.0761)
(0.073558 -0.0371867 24.6561)
(0.398417 0.206784 23.7402)
(-0.0857169 -0.209283 25.6498)
(-0.00605406 0.0899124 23.8386)
(0.0634185 -0.00881059 24.278)
(0.47561 0.243817 23.6188)
(-0.160421 -0.262745 25.776)
(0.0494356 0.216026 23.6467)
(-0.000348493 -0.0391581 24.4333)
(0.316915 0.113785 23.7655)
(-0.193989 -0.377132 25.7054)
(0.0591595 0.0844014 23.6892)
(0.110167 -0.115188 24.3451)
(0.261221 0.0462414 23.7357)
(-0.119947 -0.43351 25.5943)
(0.0511232 0.0125002 23.7824)
(-0.0409235 -0.130312 24.4428)
(0.206352 -0.0168818 23.7617)
(-0.0952486 -0.368136 25.6532)
(0.0326955 -0.0938265 23.7714)
(-0.166134 0.395588 24.0443)
(0.125715 -0.0875654 23.8437)
(-0.101063 -0.366039 25.6906)
(0.0173515 -0.200536 23.6913)
(-0.16105 0.47653 24.2912)
(-0.106866 0.127896 23.5608)
(-0.103737 -0.387288 25.6765)
(0.0281962 -0.220149 23.7828)
(-0.0979023 0.489942 24.3894)
(-0.107513 0.143796 23.6254)
(-0.118881 -0.413439 25.6841)
(0.0146932 -0.286361 23.7177)
(-0.43713 0.272474 24.4746)
(-0.113754 0.144649 23.8606)
(-0.13502 -0.360072 25.7159)
(0.00537727 -0.333944 23.7525)
(-0.870557 0.0804302 24.149)
(-0.378156 0.121882 23.5638)
(-0.149267 -0.311538 25.7083)
(-0.0103815 -0.276459 23.7513)
(-0.483622 0.320791 24.6155)
(-0.516487 0.0218765 23.2693)
(-0.165316 -0.307724 25.7462)
(-0.0259684 -0.230507 23.752)
(-0.454658 0.317053 24.4981)
(-0.316932 0.314439 23.7318)
(-0.188077 -0.28087 25.7285)
(-0.0440522 -0.242181 23.7106)
(-0.564787 0.324581 24.3818)
(-0.63183 0.0155494 23.5241)
(-0.208225 -0.232304 26.0624)
(-0.0623669 -0.1203 23.745)
(-0.519629 0.433305 24.5537)
(-0.801003 -0.181097 23.1952)
(-0.252268 -0.107579 25.2206)
(-0.120151 0.0153376 23.9682)
(-0.329423 0.398214 24.8182)
(-0.622424 0.158966 23.2814)
(-0.32567 -0.145903 25.7923)
(-0.132073 -0.248541 23.2073)
(-0.581498 0.283336 24.9734)
(-0.45115 0.173093 23.0422)
(-0.355322 -0.0374076 25.9403)
(-0.120402 -0.235413 23.6202)
(-0.822893 0.154747 24.4709)
(-0.591884 0.0833129 23.4796)
(-0.566926 0.0311171 25.9619)
(-0.122381 -0.144273 23.806)
(-0.705711 0.375379 25.0611)
(-0.822363 0.0813581 22.9979)
(-0.842656 -0.0604966 25.6512)
(-0.573689 0.122821 23.9256)
(-0.622942 0.420895 25.0649)
(-0.478645 0.216293 22.7363)
(-0.612423 -0.00182946 26.0218)
(-0.609176 -0.063952 22.8234)
(-0.486917 0.240453 25.2027)
(-0.430413 0.14847 23.2916)
(-0.50371 0.17559 26.4164)
(-0.22732 -0.125903 23.5297)
(-0.325937 0.0907622 24.7635)
(-0.288314 0.0589068 22.9023)
(-0.423041 -0.0400108 24.949)
(-0.28435 -0.0470818 23.5632)
(-0.442882 0.112071 25.3572)
(-0.27974 0.482871 22.8713)
(-0.572648 -0.0724273 26.1545)
(-0.422439 0.203428 23.2903)
(-0.453745 0.0539742 25.3343)
(-0.279147 0.548176 23.0903)
(-0.541741 -0.100315 26.3558)
(-0.282446 -0.0697593 22.5344)
(-0.385222 0.289672 25.2683)
(-0.307275 0.751431 23.1633)
(-0.663776 0.108158 26.2129)
(-0.0731808 -0.564924 23.4908)
(-0.358869 0.491462 25.3155)
(-0.00528747 0.878833 22.8462)
(-0.755798 0.352851 25.9766)
(-0.0151528 -0.554473 22.8294)
(-0.380566 0.302711 25.3751)
(0.204091 0.48954 22.6727)
(-0.427615 0.168456 26.1138)
(-0.234553 0.0663457 23.1195)
(-0.341714 0.313049 25.4066)
(0.262077 0.258366 23.117)
(-0.299117 0.184306 26.5809)
(-0.118686 -0.113956 22.7524)
(-0.306348 0.330432 25.4194)
(0.349917 0.382167 23.208)
(-0.222873 -0.0811006 25.1456)
(-0.0512514 -0.138681 22.912)
(-0.233811 0.292206 25.6128)
(0.537542 1.01036 23.0465)
(-0.291807 -0.217254 26.2696)
(-0.107327 -0.202875 22.7266)
(-0.0791783 0.074462 25.08)
(0.613912 1.16603 23.1639)
(-0.318266 -0.304901 26.4272)
(0.0295187 -0.250979 22.7584)
(-0.100229 -0.0379982 25.3484)
(0.5462 0.728537 23.2178)
(-0.13749 -0.294466 26.2557)
(0.0394927 -0.288168 22.3582)
(-0.0908491 -0.117105 25.6308)
(0.59894 0.611934 23.2699)
(0.11477 -0.183637 26.1929)
(0.0226056 -0.447436 22.8881)
(0.136856 0.0754304 25.171)
(0.615127 0.480816 23.3193)
(0.0654465 -0.202016 26.1107)
(0.226553 -0.457004 22.8374)
(0.0263605 0.352781 24.7872)
(0.511869 0.350669 23.3396)
(0.132812 -0.133966 26.6175)
(0.327188 -0.4012 22.4088)
(-0.388023 0.476964 25.4248)
(0.394694 0.228667 23.5062)
(-0.124693 -0.090249 25.1872)
(0.235384 -0.407515 22.8548)
(-0.340918 0.529332 25.4302)
(0.405034 0.388373 23.1521)
(-0.160853 -0.10133 26.1783)
(0.323197 -0.499188 22.9213)
(-0.0324604 0.540051 25.2821)
(0.688661 0.497224 23.2489)
(-0.195325 -0.0971701 26.265)
(0.851843 -0.754185 22.9356)
(0.0325496 0.506279 25.4076)
(0.731139 0.866848 23.1432)
(0.0970803 -0.0959152 25.9851)
(0.861871 -0.671671 22.7733)
(-0.181876 0.55277 24.9472)
(0.595723 1.1046 23.5152)
(0.360082 -0.0613797 26.2546)
(0.488263 -0.37102 22.8187)
(-0.213912 0.627963 25.2411)
(0.712427 1.02595 23.7072)
(-0.29392 -0.0608302 24.91)
(0.444855 -0.274679 22.9561)
(-0.187733 0.645939 25.5432)
(0.981949 0.782364 23.2734)
(-0.525482 -0.115963 25.9104)
(0.393151 -0.186695 22.8747)
(-0.0125111 0.587679 24.9698)
(1.04348 0.801716 23.5983)
(-0.671539 -0.0593659 26.0086)
(0.332973 -0.128691 23.0475)
(0.0447827 0.55312 25.3739)
(0.739541 1.05163 23.8793)
(-0.391739 -0.149283 25.81)
(0.283059 -0.0267257 22.3127)
(-0.364922 0.65279 24.963)
(0.990485 0.955733 23.6999)
(-0.0594841 -0.252046 25.7196)
(0.219714 0.022525 22.5259)
(-0.102126 0.622675 25.2701)
(1.31979 0.920933 23.8089)
(-0.505391 -0.0363806 25.6362)
(0.123386 0.107156 22.8196)
(-0.189326 0.443367 25.0418)
(0.926726 1.07849 24.1152)
(-0.559066 0.0537906 25.702)
(0.367538 0.059076 22.7047)
(-0.217006 0.559299 25.0917)
(0.952681 1.08771 24.1043)
(-0.528007 0.170412 25.9843)
(0.735831 -0.0444886 22.3181)
(-0.0946037 0.576484 25.27)
(1.00256 1.0674 24.1039)
(-0.647299 -0.320533 24.9361)
(0.558594 0.0208331 22.7124)
(-0.19903 0.509486 25.1608)
(0.791437 1.0911 24.536)
(-0.759753 -0.159123 25.6303)
(0.265426 -0.0658743 22.0934)
(-0.312419 0.384048 24.9731)
(0.648478 0.761302 24.0988)
(-0.752793 0.0841995 26.0303)
(0.218301 0.0593957 22.263)
(-0.320625 0.179633 24.8892)
(0.641058 0.809633 24.2631)
(-0.771095 0.0546042 25.7515)
(0.172215 0.138732 22.3045)
(-0.301658 0.286931 25.2474)
(0.549384 0.938419 24.5911)
(-1.07162 -0.606541 24.7543)
(-0.0519935 0.146261 22.2885)
(-0.492389 0.385529 25.3369)
(0.253531 0.900275 24.7301)
(-1.35294 -0.781723 26.057)
(-0.284654 0.168701 21.958)
(-0.848379 0.629554 25.255)
(0.0442816 0.857107 24.3321)
(-1.38745 -0.738009 26.026)
(-0.545049 -0.00560475 21.5392)
(-0.974738 0.678975 25.483)
(0.125912 1.03508 24.8895)
(-1.70456 -0.419734 26.0143)
(-0.830709 0.159925 21.6875)
(-0.673736 -0.0144341 24.7913)
(0.238486 0.706136 24.1213)
(-2.06425 -0.282417 26.089)
(-0.844778 0.131421 21.5818)
(-0.759915 0.0252809 25.3293)
(0.128677 0.892935 24.9754)
(-2.04963 -0.574271 26.2851)
(-1.09389 0.168274 21.0712)
(-0.719069 0.0241869 25.9662)
(0.367602 0.679544 24.2281)
(-2.07549 -0.584766 26.6937)
(-0.876145 0.09597 20.8338)
(-0.676442 0.0488213 24.6899)
(-0.051289 0.830824 24.9057)
(-1.97352 -0.771538 26.6131)
(-0.407344 -0.0890064 20.7516)
(-1.16203 0.293876 25.7128)
(-0.259912 0.624288 24.6045)
(-1.93323 -1.01354 26.1971)
(-0.230651 -0.144492 20.6884)
(-0.658023 -0.0995203 25.6651)
(-0.222899 0.527063 24.2538)
(-2.11941 -1.19665 27.1682)
(0.0564737 -0.371518 20.1909)
(-0.656846 -0.03544 24.8734)
(-0.403946 0.496645 24.7906)
(-2.11615 -0.968148 27.5775)
(0.0167262 -0.601209 20.4059)
(-0.951504 0.108801 25.6816)
(-0.635036 0.455398 24.5796)
(-1.92754 -0.716363 27.1103)
(-0.0498367 -0.494454 20.4259)
(-1.03676 0.189227 25.9609)
(-0.664512 0.136668 23.6906)
(-2.17177 -1.07955 27.357)
(-0.0761139 -0.181598 20.3029)
(-1.25967 0.633246 26.0131)
(-0.745714 0.0869008 24.3849)
(-2.22331 -1.44149 27.0545)
(-0.107309 -0.401865 19.9401)
(-0.991437 0.0606103 25.45)
(-0.918015 0.150741 24.3544)
(-2.54946 -1.42241 27.9849)
(-0.111171 -0.472704 19.7049)
(-0.866567 -0.16523 25.8494)
(-1.26796 0.54822 24.1834)
(-2.7729 -1.1532 28.3954)
(-0.225874 -0.496432 19.6537)
(-0.432602 -0.272518 25.0631)
(-1.06048 0.39461 23.8252)
(-2.76785 -0.776059 27.8288)
(-0.682723 -0.207247 19.5447)
(-0.552703 -0.0119992 26.3187)
(-0.808697 0.131051 23.6706)
(-3.24388 -0.254705 28.4921)
(-1.12336 0.0775004 19.2261)
(-0.919202 0.330318 26.4749)
(-0.148614 0.29329 23.5889)
(-3.41655 -0.217478 29.0467)
(-1.55616 0.230239 18.905)
(-1.87193 0.879033 26.3064)
(0.101194 0.789382 23.7187)
(-3.20173 0.165979 28.3246)
(-2.02363 0.557461 18.4752)
(-2.46875 1.21398 26.7668)
(0.604229 1.24817 23.5442)
(-3.9803 0.811284 29.7637)
(-2.57127 1.13265 17.9421)
(-0.859035 0.895691 26.6479)
(0.670808 1.85438 23.7794)
(-3.20363 1.06553 28.6083)
(-2.35999 1.53611 17.4379)
(0.162712 1.35411 25.3496)
(1.01668 2.36164 23.8041)
(-4.31647 1.39477 29.7066)
(-1.75915 2.08688 16.7318)
(-0.858049 2.73103 28.5466)
(1.3211 2.85116 24.2956)
(-4.91604 1.66132 29.8774)
(-0.812134 2.72884 16.0276)
(0.0740193 2.73616 26.1505)
(1.78455 3.45514 24.4011)
(-5.65193 1.99414 29.628)
(-0.2417 3.55213 15.2278)
(-0.602163 2.81538 28.2691)
(2.20695 3.72172 25.1279)
(-6.60478 1.9502 29.9121)
(0.799076 4.50653 14.344)
(0.429858 3.11119 27.9521)
(2.76972 4.45572 25.3868)
(-6.76804 3.31301 29.8029)
(1.47102 5.77431 13.3733)
(1.59517 3.33019 26.5122)
(3.48719 4.59558 26.5398)
(-7.37493 4.21829 29.7533)
(2.35982 7.18485 12.4326)
(0.418307 4.72127 29.3652)
(4.11306 5.49521 26.9647)
(-8.02957 5.21036 30.008)
(2.04415 9.55039 10.8164)
(1.11315 5.37169 27.9913)
(5.14521 5.91553 28.4922)
(-7.27023 6.13477 29.4641)
(2.89958 10.5655 10.4271)
(0.61395 6.54235 29.6715)
(5.79007 6.94019 29.4407)
(-8.26425 9.12569 28.5544)
(-2.73089 16.9833 7.14831)
(1.87649 7.50534 29.4803)
(7.27124 7.47982 31.2755)
(-13.1967 12.2331 28.0589)
(-5.49705 19.801 5.78932)
(1.18199 9.51337 29.7917)
(5.93156 10.1243 33.5189)
(-15.5737 14.7112 30.537)
(-3.57185 27.2652 6.70176)
(-0.472102 12.0612 30.7175)
(6.74327 11.5465 35.8299)
(-22.6487 21.3947 34.2034)
(-112.412 106.464 -8.81804)
(-3.06448 14.7057 32.1869)
(3.26 16.8887 41.3778)
(-38.7293 35.0975 36.4209)
(-119.817 106.18 -23.2779)
(-6.89474 16.9285 36.5093)
(-6.91675 26.1823 46.7309)
(-62.1662 53.9763 41.9464)
(-113.411 98.1301 -37.7178)
(-10.5683 22.2616 38.7794)
(-16.5993 36.3704 51.6083)
(-88.6037 66.2744 46.4349)
(-103.675 94.8692 -54.5969)
(-20.9776 26.2453 44.5449)
(-21.0276 40.9691 60.1289)
(-104.118 73.999 53.264)
(-90.6362 95.7525 -72.6813)
(-36.3154 37.1455 52.0265)
(-25.1843 46.7558 63.3603)
(-111.844 75.2695 58.3199)
(-72.1415 88.7266 -90.679)
(-42.62 37.5738 60.8889)
(-26.7953 51.5366 68.5085)
(-115.118 73.5724 61.9435)
(-50.8545 82.2362 -106.189)
(-49.1209 40.8684 69.1959)
(-30.5823 53.4677 69.8527)
(-113.893 69.9337 64.9872)
(-27.5732 69.005 -121.506)
(-48.0136 37.0141 78.595)
(-24.5082 62.2823 77.145)
(-111.597 64.9269 66.1435)
(-2.62211 53.5054 -134.386)
(-48.7222 36.6138 85.6153)
(-26.6001 63.2343 76.8272)
(-107.468 59.6765 67.716)
(21.5604 32.9548 -145.453)
(-45.6731 31.6664 94.409)
(-11.9299 65.7548 81.3579)
(-104.226 53.6663 67.1304)
(44.269 10.3388 -154.164)
(-43.9225 29.7761 99.3611)
(-5.32317 66.0551 84.3469)
(-101.416 47.9055 67.5407)
(62.8614 -14.9409 -160.169)
(-41.1966 25.6952 106.078)
(-8.42623 64.8357 84.2697)
(-99.8875 42.6107 65.6148)
(75.8432 -39.7114 -163.838)
(-38.8054 23.1605 110.389)
(-8.97022 63.8688 85.0528)
(-98.5519 37.8004 64.6256)
(82.387 -62.3933 -165.708)
(-38.0229 20.6491 115.306)
(-5.0099 62.6146 83.2859)
(-97.6844 33.2955 62.45)
(82.5946 -79.7585 -166.115)
(-35.3831 17.9481 119.443)
(-1.3167 62.3855 83.7906)
(-96.0433 29.5883 61.3604)
(77.9484 -90.4594 -165.647)
(-34.1872 16.381 122.668)
(6.7056 62.1178 78.5417)
(-94 25.4864 59.8089)
(71.4414 -94.721 -164.738)
(-32.6407 15.3285 125.349)
(7.552 61.485 78.0934)
(-90.7266 22.0653 59.2815)
(66.3913 -94.8842 -163.6)
(-31.2743 14.5353 127.789)
(5.98081 59.4427 73.7799)
(-87.3741 18.2835 58.4435)
(63.9328 -93.4553 -162.399)
(-29.6978 13.4551 130.491)
(3.7139 57.3815 71.5029)
(-83.5577 15.7017 58.4999)
(61.2668 -91.8498 -162.936)
(-33.7679 14.7951 132.321)
(3.72292 54.73 67.223)
(-79.318 12.6042 57.6305)
(58.3612 -89.3543 -159.911)
(-40.5395 17.6562 136.553)
(3.06317 48.8616 65.1495)
(-74.8276 10.3255 57.316)
(56.151 -86.9795 -159.049)
(-44.3286 19.1575 138.418)
(6.02695 43.3708 58.8162)
(-69.7633 8.08879 56.0664)
(53.8543 -83.8928 -156.111)
(-49.204 21.6375 142.888)
(7.39841 35.2592 56.9954)
(-64.6449 6.72531 55.5418)
(51.1347 -79.7275 -154.399)
(-52.3298 23.1288 144.41)
(10.2843 26.5971 49.0234)
(-58.1636 5.6583 54.1572)
(47.8726 -74.1754 -150.244)
(-57.9315 27.4607 150.072)
(10.6374 16.8947 46.6713)
(-51.9323 4.54856 52.7591)
(45.0311 -68.5511 -148.376)
(-58.6693 27.8036 151.817)
(13.0868 3.35013 38.1398)
(-43.8568 3.67644 50.5514)
(42.4087 -63.4009 -142.537)
(-61.8818 30.8916 156.535)
(14.32 -8.77402 32.9828)
(-37.8747 2.25369 48.9016)
(40.2812 -58.5163 -137.18)
(-63.9035 32.4516 160.241)
(14.953 -29.0906 27.8083)
(-33.2706 3.55718 46.1645)
(38.2073 -52.4649 -130.174)
(-65.1511 33.5878 165.317)
(18.7765 -55.434 17.0732)
(-30.258 5.02111 44.2279)
(37.864 -48.3337 -124.011)
(-64.6683 33.1421 167.739)
(27.6154 -62.7373 11.6656)
(-24.0325 13.4379 41.4616)
(35.7804 -44.6211 -117.959)
(-65.2588 36.0457 171.561)
(42.0854 -25.7949 -0.15081)
(-16.2467 21.5676 37.6038)
(35.3817 -42.7023 -113.48)
(-64.6288 45.2931 176.242)
(43.4629 -11.8084 -2.63114)
(-9.46298 29.177 32.6967)
(34.2898 -41.5518 -109.172)
(-61.8151 57.6826 180.771)
(45.5943 -4.63918 -9.26262)
(-4.15993 31.669 25.1385)
(33.5449 -40.1205 -105.257)
(-58.8401 70.4321 186.111)
(46.3054 0.255751 -7.75226)
(-0.358733 29.6552 18.6278)
(32.8496 -39.7567 -102.048)
(-56.603 81.6365 192.325)
(43.5295 -1.1128 -13.1213)
(-2.25985 22.9743 14.3266)
(33.1405 -39.9778 -98.151)
(-52.7145 91.835 198.802)
(41.8819 -1.66509 -16.2043)
(-11.5635 4.59071 4.53378)
(32.991 -39.854 -96.1698)
(-43.5069 98.696 205.501)
(42.7674 -1.84213 -16.004)
(-13.107 -40.6656 1.62474)
(33.4781 -40.3099 -92.9045)
(-27.9406 97.5814 208.332)
(48.2064 -10.8398 -21.0924)
(2.24278 -54.4249 -12.7185)
(34.5141 -40.2528 -89.5863)
(-8.03182 86.3132 208.652)
(48.3199 -10.8988 -18.8678)
(6.74297 -49.2775 -10.0423)
(34.5199 -41.3559 -86.2563)
(13.6524 65.5999 207.004)
(50.9436 -16.5568 -19.5781)
(36.3448 -41.3881 1.27651)
(36.3707 -43.2032 -82.1877)
(34.6897 37.6242 202.294)
(52.4803 -22.8814 -17.1014)
(43.8657 -53.208 -3.73984)
(37.5213 -44.9304 -73.4558)
(52.8506 6.25709 195.523)
(54.1138 -34.1673 -15.6481)
(50.5815 -61.0625 -2.33437)
(39.0549 -46.465 -68.4468)
(66.7326 -25.1907 185.961)
(53.363 -37.5891 -14.1295)
(59.117 -76.0459 -0.389346)
(39.9833 -48.8009 -57.9622)
(75.7428 -53.5137 173.711)
(44.83 -49.9293 -14.0819)
(64.8252 -87.9442 3.10837)
(41.1936 -49.6748 -51.4265)
(80.1109 -76.4067 159.659)
(40.7675 -46.1271 -12.4149)
(67.75 -96.9074 6.53506)
(42.6378 -52.0826 -40.1373)
(80.5746 -92.7864 144.581)
(34.8074 -43.2669 -9.87154)
(67.9144 -101.61 10.0143)
(42.6466 -52.2238 -32.8301)
(78.0929 -102.638 129.161)
(30.1789 -38.4972 -10.6947)
(65.6255 -100.988 15.0024)
(43.3106 -54.6158 -21.0936)
(73.6051 -106.519 113.805)
(26.0685 -32.5616 -8.19608)
(61.9309 -95.8915 19.9366)
(41.9236 -53.9161 -13.525)
(67.9233 -105.36 99.02)
(22.1244 -26.2422 -8.96771)
(57.6774 -87.7304 24.8127)
(42.2569 -57.5645 -7.36964)
(61.7196 -100.316 85.2867)
(19.6019 -21.2574 -6.52335)
(53.1827 -77.843 29.1634)
(40.2978 -47.944 -0.108368)
(55.4767 -92.5787 72.815)
(16.9972 -16.3348 -7.07808)
(48.78 -67.2448 32.7362)
(38.7897 -38.6638 7.80079)
(49.5127 -83.2177 61.7731)
(15.434 -11.7903 -4.8461)
(44.6257 -56.7622 35.4723)
(37.3756 -30.7273 13.454)
(43.9958 -73.1367 52.1382)
(13.5233 -7.0239 -4.63863)
(40.7566 -46.9191 37.4737)
(35.7497 -23.4224 18.5707)
(38.9776 -63.0227 43.9307)
(12.7828 -4.02182 -2.52075)
(37.2215 -38.1317 38.7265)
(33.5034 -16.8998 22.5531)
(34.4503 -53.3778 36.9739)
(12.3707 -1.57259 -1.49579)
(33.9896 -30.4865 39.4521)
(30.8697 -11.1992 25.9198)
(30.3283 -44.4771 31.2609)
(12.8512 -0.688427 1.23396)
(31.0423 -24.1661 39.6082)
(28.1348 -6.69605 28.2992)
(26.5796 -36.5488 26.5709)
(11.9133 3.30055 2.57281)
(28.3456 -18.888 39.5109)
(25.5147 -3.14514 30.4128)
(23.0654 -29.5438 22.7952)
(9.98254 7.54979 4.84424)
(25.8321 -14.8703 38.9248)
(22.9822 -0.654696 31.8745)
(19.8808 -23.7 19.6286)
(7.8433 10.4995 6.24126)
(23.5703 -11.4916 38.4251)
(20.7737 1.16258 33.4806)
(16.8284 -18.5982 17.0965)
(5.87849 13.0898 8.75142)
(21.4086 -9.23217 37.347)
(18.6658 2.23172 34.0995)
(14.1739 -14.6936 15.0926)
(3.7525 14.6037 10.0496)
(19.4773 -7.14371 36.8157)
(16.7007 2.9145 34.763)
(11.6231 -11.2122 13.6212)
(1.89205 15.7 12.1601)
(17.6513 -6.01796 35.3971)
(15.5683 3.22135 36.6319)
(9.5288 -8.86349 12.5102)
(0.261572 16.153 13.3917)
(15.8596 -4.77419 35.0703)
(14.198 3.25731 35.669)
(7.5548 -6.67163 11.7957)
(-1.14405 16.4189 14.7729)
(14.2649 -4.25844 33.4957)
(12.5347 3.61344 36.8946)
(6.01003 -5.48286 11.179)
(-2.42354 16.6745 16.1731)
(12.6354 -3.60856 32.88)
(11.2685 3.52434 35.1934)
(4.65965 -4.08514 11.0017)
(-3.41196 16.5509 16.7578)
(11.1828 -3.2283 32.5711)
(9.83792 3.94933 36.7993)
(3.4856 -3.62832 10.6809)
(-4.11416 15.7717 18.219)
(10.0954 -3.1166 32.2581)
(9.12237 3.96394 36.8363)
(1.90953 -2.09195 10.8359)
(-4.80542 15.2817 18.412)
(9.31761 -3.12742 30.4852)
(8.4609 3.51473 35.1714)
(1.73245 -2.10513 10.7502)
(-5.35365 15.5431 19.7035)
(7.55542 -2.67749 30.5633)
(7.16686 3.94657 35.9228)
(-1.39823 0.00416964 11.1918)
(-5.76779 15.6607 20.5066)
)
;

boundaryField
{
    inlet
    {
        type            zeroGradient;
    }
    outlet
    {
        type            zeroGradient;
    }
    repeat_boundary
    {
        type            slip;
    }
}


// ************************************************************************* //
