FoamFile
{version 2.0; format ascii;class vectorField; location 0;object  v;}
344
(
( 0.0109524 0.00794154 0.207998 )  
( -0.018777 -0.014643 0.159167 )  
( -0.0752098 -0.0118105 0.157268 )  
( 0.0152442 -0.0130708 0.160927 )  
( -0.00365241 -0.0367586 0.147332 )  
( -0.00850942 0.0758197 0.191811 )  
( 0.0257236 0.00968819 0.155134 )  
( -0.0606539 -0.0217947 0.210579 )  
( -0.113197 0.00703662 0.191845 )  
( 0.0303474 0.112342 0.182248 )  
( -0.0113369 -0.00242051 0.179129 )  
( -0.00481753 -0.0587221 0.15887 )  
( -0.0376714 -0.0375285 0.187521 )  
( 0.0191231 -0.0176113 0.181979 )  
( -0.0810329 0.0587246 0.448573 )  
( 0.0285607 -0.0213946 0.469892 )  
( -0.0259863 0.0725334 0.1883 )  
( -0.00979588 -0.0642606 0.123273 )  
( -0.135877 -0.068154 0.461253 )  
( -0.154652 -0.184015 0.453021 )  
( 0.0433444 -0.00180856 0.138009 )  
( -0.0383093 0.0211605 0.175859 )  
( 0.0249785 -0.0171388 0.156011 )  
( 0.0497117 -0.0161999 0.398849 )  
( -0.0374627 -0.1083 0.486 )  
( -0.195733 0.0422847 0.460833 )  
( 0.00541663 -0.027951 0.280697 )  
( -0.0219595 0.0384286 0.494621 )  
( 0.0848765 -0.116591 0.449358 )  
( -0.0838961 -0.00870926 0.17651 )  
( -0.0955674 -0.127056 0.68684 )  
( -0.00461871 0.143817 0.48052 )  
( 0.00917182 -0.0176694 0.431002 )  
( -0.0702324 -0.0256608 0.405379 )  
( 0.00313811 -0.051106 0.358789 )  
( -0.1536 -0.0124272 0.233213 )  
( -0.0637654 -0.0399387 0.487258 )  
( -0.0926246 -0.0643423 0.476 )  
( -0.0595192 0.0439005 0.277278 )  
( -0.256951 0.0265753 0.701902 )  
( -0.0996224 0.0016865 0.379345 )  
( -0.0865162 -0.095165 0.456158 )  
( -0.044983 -0.0879431 0.446341 )  
( 0.0283009 0.0369179 0.426439 )  
( -0.110444 0.0965987 0.589515 )  
( -0.0422728 -0.000195921 0.459758 )  
( -0.00364762 -0.0117985 0.806553 )  
( -0.100575 -0.0241658 0.777259 )  
( -0.00780786 -0.0804472 0.766509 )  
( -0.0960503 -0.0401129 0.493359 )  
( -0.0501249 -0.0842391 0.7522 )  
( -0.0760552 0.0173537 1.09933 )  
( -0.0693075 -0.0711349 0.800414 )  
( -0.107131 -0.0727166 0.990177 )  
( 0.0139916 0.0026933 0.789489 )  
( -0.271248 -0.108233 0.684386 )  
( -0.052778 0.0348358 0.672916 )  
( -0.0180346 -0.0479573 0.832844 )  
( -0.00652296 -0.0197795 0.65281 )  
( -0.279554 -0.0219472 0.855998 )  
( -0.0212064 -0.0371008 0.8058 )  
( -0.166624 -0.017227 0.972365 )  
( -0.145398 -0.083534 0.804448 )  
( -0.110852 -0.0214375 0.822872 )  
( -0.292669 -0.0250489 0.734558 )  
( 0.0484031 0.0692357 0.95678 )  
( -0.155711 -0.0497786 1.08959 )  
( 0.0216154 -0.137191 0.825133 )  
( 0.0458805 -0.0697932 0.963433 )  
( -0.146667 -0.045324 1.19765 )  
( 0.0980457 -0.0355339 0.842963 )  
( -0.0783508 -0.0845171 1.24464 )  
( -0.143143 -0.139546 1.01149 )  
( -0.152939 -0.100187 0.998998 )  
( -0.140298 -0.0723126 1.0587 )  
( 0.0911134 -0.132796 1.11239 )  
( -0.11631 -0.0618565 1.04943 )  
( -0.0594134 -0.154158 1.19072 )  
( -0.143424 -0.0367893 1.151 )  
( 0.0103817 -0.0852731 0.718184 )  
( -0.0635383 -0.122245 0.954886 )  
( -0.0606655 0.0393939 1.09859 )  
( -0.0276351 -0.000107177 1.21016 )  
( -0.0784555 -0.107551 1.15203 )  
( -0.0716208 0.0621112 0.987487 )  
( -0.0874369 -0.0773749 1.34191 )  
( -0.0527454 -0.032405 1.57082 )  
( 0.0496284 -0.0887123 1.27112 )  
( 0.0527273 -0.0571087 1.53659 )  
( -0.0632684 -0.0555624 1.44725 )  
( -0.153863 -0.104734 1.23058 )  
( 0.220708 -0.0213509 1.20947 )  
( -0.0616906 -0.121041 1.26202 )  
( -0.189567 -0.0737296 1.40332 )  
( -0.0224868 -0.0543274 1.40593 )  
( 0.0386117 -0.136461 0.999496 )  
( 0.100739 -0.0934867 1.56962 )  
( -0.142736 -0.0949816 1.78942 )  
( 0.184658 -0.161576 1.81216 )  
( -0.0334821 -0.111806 1.50397 )  
( 0.0655163 -0.0390873 1.63902 )  
( 0.00471186 -0.0550793 1.44591 )  
( -0.153214 0.00672079 1.70554 )  
( -0.0289634 -0.0326036 1.65171 )  
( 0.111846 -0.00550644 1.3199 )  
( -0.0492938 -0.0991034 1.26503 )  
( -0.0719985 -0.183 1.39175 )  
( 0.106728 -0.244223 1.43629 )  
( -0.135959 -0.0714364 1.34153 )  
( -0.0048229 -0.0106176 1.46641 )  
( -0.0443972 0.00443521 1.58064 )  
( -0.0277295 -0.119704 1.77798 )  
( -0.051951 -0.0588012 2.00747 )  
( 0.0743654 -0.203591 1.49464 )  
( -0.0939909 -0.0269939 2.13651 )  
( -0.000495657 -0.141076 1.57946 )  
( 0.0967681 -0.119098 1.96915 )  
( 0.0697135 -0.114257 1.92714 )  
( 0.00371991 -0.0179066 1.56409 )  
( 0.00511121 0.00864655 1.59084 )  
( -0.0184163 0.0189275 1.93424 )  
( 0.110571 0.000449712 1.64897 )  
( 0.0565848 -0.186186 1.96818 )  
( 0.0628408 -0.127805 2.00541 )  
( -0.139088 -0.0303746 1.65662 )  
( 0.0312871 0.0235564 2.35934 )  
( -0.0564724 -0.0114193 2.04868 )  
( -0.0829172 0.0341767 2.31224 )  
( -0.0237939 -0.288836 2.01219 )  
( 0.0913031 -0.0812105 2.15372 )  
( -0.147394 -0.0334416 2.26263 )  
( 0.0697249 -0.121882 1.86756 )  
( -0.08805 -0.0539567 1.65112 )  
( -0.0676341 -0.101304 2.19733 )  
( 0.175435 -0.00220642 2.21514 )  
( 0.102796 0.0792303 2.55379 )  
( -0.0186656 -0.0490474 2.05869 )  
( 0.0236271 -0.00986217 1.99315 )  
( -0.0443385 -0.0795993 2.33616 )  
( 0.0176689 -0.100607 2.74898 )  
( 0.185363 -0.0280404 2.37688 )  
( -0.0159709 -0.0509287 2.39765 )  
( -0.00163291 -0.0694404 2.76083 )  
( -0.020953 -0.0457085 2.23256 )  
( 0.145597 0.0492164 2.7509 )  
( 0.0698684 -0.079523 1.95989 )  
( 0.0518408 -0.086325 2.80529 )  
( 0.0648685 -0.073792 2.49918 )  
( -0.0268802 -0.0732978 2.4526 )  
( 0.117754 0.00460308 2.10312 )  
( 0.00214036 0.00769703 2.12123 )  
( 0.0473036 -0.00297286 2.5168 )  
( 0.0116741 0.0482703 2.62829 )  
( 0.0830855 -0.0819092 2.857 )  
( 0.0508987 -0.0344045 3.3179 )  
( 0.0700352 -0.0967353 2.73512 )  
( -0.055446 -0.0262271 2.72321 )  
( -0.00529914 -0.109641 2.16957 )  
( 0.0941539 -0.133748 2.52736 )  
( 0.125027 0.202628 2.65181 )  
( -0.0614169 -0.0235476 2.65972 )  
( 0.118942 -0.0806573 2.66646 )  
( 0.021895 0.106952 3.04048 )  
( 0.0559495 -0.0510825 2.7342 )  
( -0.0597939 -0.0753525 2.39827 )  
( -0.0329931 -0.111998 2.93041 )  
( 0.0885396 0.0612446 3.30748 )  
( -0.0800314 -0.046909 2.74865 )  
( 0.0647701 -0.0850579 2.80827 )  
( -0.00894191 -0.174331 3.41775 )  
( -0.0238773 0.188645 3.08096 )  
( 0.044374 0.025155 3.18698 )  
( 0.0283181 -0.0434171 3.31958 )  
( -0.0373681 -0.0133769 3.11127 )  
( -0.017122 -0.00322902 3.27579 )  
( -0.0198398 0.0704965 3.34038 )  
( 0.0615885 -0.0827383 2.88096 )  
( -0.183089 -0.00842663 2.9461 )  
( 0.00993868 -0.00201632 3.02422 )  
( -0.0013557 -0.0139583 3.5743 )  
( 0.0641292 0.0800911 3.20873 )  
( -0.0448832 -0.027947 3.54507 )  
( 0.0186345 -0.0231252 3.38891 )  
( -0.0395389 -0.0489289 3.06465 )  
( 0.0711655 -0.0453415 3.67886 )  
( -0.103295 0.0087341 2.89955 )  
( 0.126486 -0.0740401 2.95659 )  
( 0.0860029 -0.124747 3.63849 )  
( 0.0466066 -0.0130349 3.48971 )  
( 0.00791902 0.053877 3.47595 )  
( 0.0722044 0.100368 3.17806 )  
( 0.0644694 0.0841017 3.0825 )  
( 0.161863 -0.129172 3.27897 )  
( -0.00863235 -0.0270873 3.4366 )  
( -0.0171172 0.0577013 3.32055 )  
( -0.0669943 -0.0883257 3.29993 )  
( 0.0427643 -0.111631 3.58834 )  
( -0.0674434 0.0667408 3.70567 )  
( 0.0690572 0.00278282 3.81739 )  
( 0.045408 -0.0412071 3.66039 )  
( 0.00600732 -0.186882 3.59168 )  
( 0.067447 -0.0713923 3.58633 )  
( 0.00196374 -0.0308049 3.58977 )  
( -0.149218 0.0769881 3.61021 )  
( -0.119569 -0.0166162 3.46819 )  
( -0.0668203 0.0239142 3.37832 )  
( -0.1194 -0.136543 3.52015 )  
( -0.0350834 0.0820172 3.60767 )  
( 0.0750572 0.0288924 3.46329 )  
( -0.0846815 0.0780714 3.77731 )  
( 0.0115551 -0.00827935 3.61232 )  
( 0.0840968 -0.0602526 3.61578 )  
( -0.0641805 -0.0106616 3.56158 )  
( -0.0515629 0.103258 3.64608 )  
( -0.00101078 -0.00502083 3.69158 )  
( 0.068792 -0.00465779 3.60832 )  
( 0.110162 -0.111718 3.71307 )  
( 0.0326494 -0.107584 3.55265 )  
( -0.172071 -0.149951 3.55686 )  
( 0.0131226 -0.071137 3.56677 )  
( -0.0397028 -0.0836164 3.62772 )  
( 0.205453 0.0184318 3.63861 )  
( -0.142498 0.0128776 3.69385 )  
( 0.129143 0.0550476 3.56781 )  
( 0.0091591 -0.00535227 3.59547 )  
( 0.0428051 0.0530354 3.60935 )  
( 0.0259764 -0.0350946 3.65794 )  
( -0.151181 0.0384333 3.59843 )  
( 0.106101 -0.00408998 3.58644 )  
( -4.80441e-05 -0.0238226 3.59943 )  
( 0.0875995 0.0151271 3.51555 )  
( 0.0624161 -0.0925792 3.52781 )  
( -0.108331 0.0265573 3.64089 )  
( -0.0359647 -0.030562 3.46208 )  
( 0.0817839 0.04599 3.37766 )  
( 0.0424455 -0.0273379 3.49298 )  
( -0.0899548 -0.0583824 3.60936 )  
( -0.0344515 -0.0227681 3.70869 )  
( 0.129416 0.111234 3.59795 )  
( 0.0651974 0.0514308 3.84836 )  
( -0.0327295 -0.0206201 3.58826 )  
( -0.00108282 -0.0523831 3.53896 )  
( 0.121518 -0.192856 3.74355 )  
( -0.0488979 -0.00504244 3.43189 )  
( 0.0771586 0.0571907 3.66544 )  
( -0.141825 0.0614654 3.77047 )  
( -0.000800064 0.0148732 3.62595 )  
( -0.0664356 0.0946379 3.52745 )  
( 0.0400203 0.021262 3.56225 )  
( -0.0252302 -0.032273 3.74061 )  
( -0.0666859 -0.0606879 3.49815 )  
( -0.00413304 0.00106809 3.59253 )  
( -0.241288 -0.161578 3.57533 )  
( -0.0342816 -0.0765118 3.78629 )  
( -0.00519989 -0.00322422 3.60816 )  
( 0.0828522 0.0463511 3.48439 )  
( 0.0714002 -0.0166431 3.51663 )  
( -0.0461283 0.0643761 3.3713 )  
( 0.0140568 0.15867 3.54744 )  
( -0.0741174 -0.00821698 3.48423 )  
( 0.192879 0.0463414 3.48451 )  
( -0.0507005 -0.045744 3.46458 )  
( -0.0915137 -0.0655244 3.33553 )  
( 0.055914 -0.00343221 3.59882 )  
( 0.0598129 0.00455133 3.56849 )  
( -0.0923817 -0.00133851 3.3351 )  
( 0.115776 -0.0730751 3.65013 )  
( 0.189987 0.126325 3.47007 )  
( -0.00556754 0.017557 3.494 )  
( 0.175402 0.0816376 3.57362 )  
( 0.100553 -0.0349077 3.62488 )  
( 0.0229099 -0.00939288 3.50955 )  
( -0.0371964 0.055322 3.73528 )  
( -0.0644419 0.0413409 3.65461 )  
( -0.0063747 0.0869565 3.71417 )  
( 0.0283139 -0.132894 3.58317 )  
( 0.0257202 -0.0391138 3.43371 )  
( 0.00855272 -0.00979947 3.75196 )  
( 0.019518 -0.0511687 3.13431 )  
( -0.188367 -0.0900516 3.53787 )  
( -0.0219247 0.112662 3.56673 )  
( 0.00436767 -0.0736319 3.7536 )  
( 0.0136547 0.0037987 3.6354 )  
( -0.0614022 -0.168166 3.36093 )  
( 0.00133671 -0.117688 3.73843 )  
( 0.270587 -0.179153 3.66569 )  
( -0.116691 -0.00416388 3.45058 )  
( -0.0964232 -0.00191228 3.59879 )  
( -0.0650852 0.0434425 3.70624 )  
( -0.105652 -0.0135392 3.55875 )  
( 0.154174 0.0589432 3.3505 )  
( -0.0263761 0.0752892 3.64591 )  
( -0.233804 -0.0616245 3.44003 )  
( -0.102633 0.0229745 3.52843 )  
( -0.0268593 -0.164045 3.43617 )  
( -0.188446 0.0454552 3.50278 )  
( -0.114745 0.000849116 3.57764 )  
( 0.130081 -0.0506961 3.52662 )  
( -0.132656 -0.120144 3.64722 )  
( 0.165792 0.231767 3.72956 )  
( -0.0108541 -0.0388998 3.65914 )  
( 0.0443124 0.00405577 3.62753 )  
( -0.147044 0.0900861 3.70809 )  
( -0.0102434 -0.037484 3.51035 )  
( 0.0594094 0.0546583 3.84187 )  
( 0.143234 0.0298902 3.51261 )  
( -0.0767797 -0.0876185 3.43965 )  
( 0.0537427 0.0944457 3.74179 )  
( 0.133834 -0.126264 3.3338 )  
( 1.083 -0.328286 2.99263 )  
( -0.225393 0.165542 3.65093 )  
( 0.0600101 0.282965 3.45365 )  
( 0.3692 -0.128065 3.29237 )  
( -0.284737 0.00923132 3.46403 )  
( -0.156673 -0.028733 3.86766 )  
( 0.17749 -0.188646 3.69458 )  
( -0.106607 -0.0805158 3.6854 )  
( -0.121693 0.0221932 3.51252 )  
( -0.191377 0.140915 2.84445 )  
( -0.0690173 -0.178484 3.34311 )  
( -0.0734671 0.0427252 3.67644 )  
( 0.109286 -0.0283113 2.62176 )  
( 0.0777723 0.143242 3.59225 )  
( -0.0180614 0.0051103 0.0844969 )  
( 0.0049691 0.0366702 0.0159048 )  
( 0.0956483 -0.738979 3.44636 )  
( -0.0952659 0.0173134 3.71076 )  
( -0.0957923 -0.264714 3.74958 )  
( 0.250105 -0.0912348 3.85824 )  
( 0.0149604 0.0110981 0.026339 )  
( 0.0409687 -0.169482 3.97228 )  
( -0.00963659 0.0315448 0.66496 )  
( 0.0993467 0.166996 0.899533 )  
( -0.366965 0.35704 3.68863 )  
( 0.0542804 0.729735 3.46781 )  
( 0.0254443 0.119222 3.65742 )  
( -0.294988 -0.339292 3.42692 )  
( -0.0168935 0.0719749 3.77212 )  
( -0.574885 -1.26595 2.35348 )  
( -0.218409 0.147656 0.623783 )  
( -0.00995965 0.0560554 0.184852 )  
( -0.0170151 0.0352134 0.0721832 )  
( -0.00798303 0.00519743 0.0585771 )  
( -0.0164724 0.00443695 0.0468625 )  
)
