/*--------------------------------*- C++ -*----------------------------------*\
| =========                 |                                                 |
| \\      /  F ield         | OpenFOAM: The Open Source CFD Toolbox           |
|  \\    /   O peration     | Version:  5.x                                   |
|   \\  /    A nd           | Web:      www.OpenFOAM.org                      |
|    \\/     M anipulation  |                                                 |
\*---------------------------------------------------------------------------*/
FoamFile
{
    version     2.0;
    format      ascii;
    class       volVectorField;
    location    "1000";
    object      stored_U;
}
// * * * * * * * * * * * * * * * * * * * * * * * * * * * * * * * * * * * * * //

dimensions      [0 1 -1 0 0 0 0];

internalField   nonuniform List<vector> 
180
(
(-7.44625e-10 -5.91349e-10 -0.00100018)
(-1.66493e-09 -1.53331e-09 -0.00100018)
(-2.73041e-09 -2.59644e-09 -0.00100018)
(-3.87308e-09 -3.67006e-09 -0.00100018)
(-5.08525e-09 -4.7714e-09 -0.00100018)
(-6.39986e-09 -5.89558e-09 -0.00100018)
(-7.84663e-09 -7.0439e-09 -0.00100017)
(-9.45441e-09 -8.22065e-09 -0.00100017)
(-1.12528e-08 -9.43171e-09 -0.00100017)
(-1.32728e-08 -1.06844e-08 -0.00100016)
(-1.55466e-08 -1.19876e-08 -0.00100016)
(-1.81092e-08 -1.33513e-08 -0.00100016)
(-2.0997e-08 -1.47876e-08 -0.00100016)
(-2.42434e-08 -1.63124e-08 -0.00100016)
(-2.78945e-08 -1.7938e-08 -0.00100016)
(-3.20052e-08 -1.96752e-08 -0.00100016)
(-3.6637e-08 -2.15353e-08 -0.00100016)
(-4.18581e-08 -2.35301e-08 -0.00100017)
(-4.77444e-08 -2.56714e-08 -0.00100017)
(-5.43806e-08 -2.79708e-08 -0.00100018)
(-6.18619e-08 -3.04395e-08 -0.00100019)
(-7.02945e-08 -3.30882e-08 -0.00100021)
(-7.97973e-08 -3.59276e-08 -0.00100022)
(-9.05029e-08 -3.89678e-08 -0.00100024)
(-1.02559e-07 -4.22189e-08 -0.00100026)
(-1.1613e-07 -4.5691e-08 -0.00100028)
(-1.31398e-07 -4.93942e-08 -0.00100031)
(-1.48563e-07 -5.33394e-08 -0.00100034)
(-1.67849e-07 -5.75376e-08 -0.00100037)
(-1.89501e-07 -6.20007e-08 -0.00100041)
(-2.13788e-07 -6.67417e-08 -0.00100044)
(-2.41008e-07 -7.17741e-08 -0.00100048)
(-2.71487e-07 -7.71124e-08 -0.00100053)
(-3.05585e-07 -8.27718e-08 -0.00100058)
(-3.43695e-07 -8.87675e-08 -0.00100063)
(-3.8625e-07 -9.51147e-08 -0.00100069)
(-4.33724e-07 -1.01827e-07 -0.00100075)
(-4.86638e-07 -1.08917e-07 -0.00100082)
(-5.45564e-07 -1.16391e-07 -0.0010009)
(-6.11124e-07 -1.24255e-07 -0.00100098)
(-6.84003e-07 -1.32504e-07 -0.00100107)
(-7.64949e-07 -1.41126e-07 -0.00100118)
(-8.54775e-07 -1.50098e-07 -0.0010013)
(-9.54369e-07 -1.59382e-07 -0.00100143)
(-1.0647e-06 -1.68922e-07 -0.00100157)
(-1.1868e-06 -1.78642e-07 -0.00100174)
(-1.32181e-06 -1.88438e-07 -0.00100192)
(-1.47094e-06 -1.98174e-07 -0.00100213)
(-1.63551e-06 -2.07679e-07 -0.00100236)
(-1.81689e-06 -2.16734e-07 -0.00100262)
(-2.01659e-06 -2.25065e-07 -0.00100291)
(-2.23615e-06 -2.32335e-07 -0.00100324)
(-2.47725e-06 -2.38127e-07 -0.00100361)
(-2.74157e-06 -2.41932e-07 -0.00100403)
(-3.03089e-06 -2.43133e-07 -0.00100451)
(-3.34699e-06 -2.40979e-07 -0.00100504)
(-3.69169e-06 -2.34567e-07 -0.00100564)
(-4.06685e-06 -2.22812e-07 -0.00100631)
(-4.47432e-06 -2.04411e-07 -0.00100708)
(-4.91604e-06 -1.77811e-07 -0.00100794)
(-5.3941e-06 -1.41152e-07 -0.00100891)
(-5.91104e-06 -9.22112e-08 -0.00101)
(-6.46919e-06 -2.83017e-08 -0.00101124)
(-7.07027e-06 5.38279e-08 -0.00101263)
(-7.71574e-06 1.58101e-07 -0.00101421)
(-8.40674e-06 2.89239e-07 -0.00101598)
(-9.14392e-06 4.52815e-07 -0.00101799)
(-9.92723e-06 6.55338e-07 -0.00102026)
(-1.07557e-05 9.04376e-07 -0.00102281)
(-1.16274e-05 1.20872e-06 -0.00102568)
(-1.25389e-05 1.57854e-06 -0.00102892)
(-1.34853e-05 2.0256e-06 -0.00103257)
(-1.44574e-05 2.56355e-06 -0.00103666)
(-1.5443e-05 3.20756e-06 -0.00104125)
(-1.64246e-05 3.9728e-06 -0.00104666)
(-1.73785e-05 4.87663e-06 -0.00105415)
(-1.82661e-05 5.92655e-06 -0.00105963)
(-1.89732e-05 7.21364e-06 -0.00102227)
(-1.8406e-05 9.9573e-06 -0.000815554)
(-1.08577e-05 2.32548e-05 -0.00259878)
(-5.17068e-05 3.04874e-05 0.000138997)
(-5.19005e-05 0.0001678 -0.00501805)
(-5.41452e-05 -5.56844e-06 -0.00209151)
(-0.000185723 9.899e-06 -0.00257456)
(-0.000253428 4.47304e-05 -0.00322073)
(-7.24014e-05 -1.60707e-05 -0.00387174)
(-9.08566e-06 -2.73584e-05 -0.00119296)
(4.98667e-05 7.17993e-05 -0.00444993)
(0.000119273 -0.000106619 -0.00273149)
(1.7867e-05 -0.000120812 -0.00269856)
(4.85439e-05 -0.00010509 -0.00373958)
(2.27095e-05 -0.000108839 -0.00238821)
(3.84981e-05 0.000132464 -0.00468115)
(-9.82835e-05 0.000335532 -0.0012065)
(-0.00031285 0.000857084 -0.00444458)
(-9.79516e-05 0.000777123 -0.00310746)
(7.26651e-05 0.000662363 -0.0047048)
(0.000175849 0.000356755 -0.00107212)
(1.54502e-06 0.000303483 -0.00546197)
(7.18974e-06 -0.000160697 -0.00357862)
(-0.000244433 -0.000127613 -0.00256492)
(-0.000395891 7.51302e-05 -0.00284793)
(-0.000139288 -4.48267e-05 -0.00118412)
(0.000250782 -0.000227759 -0.0034198)
(1.23845e-05 -0.000293216 -0.00289268)
(8.67092e-05 -0.000253345 -0.00156972)
(8.73042e-05 -0.000216537 -0.00133894)
(7.51105e-05 -0.000186743 -0.00130249)
(6.36846e-05 -0.000161198 -0.00126577)
(5.39835e-05 -0.000139243 -0.00122934)
(4.58122e-05 -0.000120355 -0.00119767)
(3.89206e-05 -0.000104088 -0.00117062)
(3.31002e-05 -9.00677e-05 -0.0011474)
(2.81791e-05 -7.79773e-05 -0.00112743)
(2.40146e-05 -6.75453e-05 -0.00111023)
(2.04875e-05 -5.85396e-05 -0.00109539)
(1.74979e-05 -5.07614e-05 -0.00108259)
(1.49622e-05 -4.40406e-05 -0.00107155)
(1.28098e-05 -3.82305e-05 -0.00106201)
(1.0981e-05 -3.32045e-05 -0.00105378)
(9.42539e-06 -2.88536e-05 -0.00104667)
(8.1006e-06 -2.50854e-05 -0.00104053)
(6.97108e-06 -2.18202e-05 -0.00103522)
(6.00688e-06 -1.89893e-05 -0.00103063)
(5.18283e-06 -1.65339e-05 -0.00102665)
(4.47768e-06 -1.44031e-05 -0.0010232)
(3.87355e-06 -1.25532e-05 -0.00102021)
(3.35533e-06 -1.09462e-05 -0.00101762)
(2.91028e-06 -9.54977e-06 -0.00101537)
(2.52761e-06 -8.33567e-06 -0.00101341)
(2.1982e-06 -7.27964e-06 -0.00101171)
(1.91432e-06 -6.3607e-06 -0.00101023)
(1.6694e-06 -5.5607e-06 -0.00100894)
(1.45786e-06 -4.86399e-06 -0.00100782)
(1.27492e-06 -4.25718e-06 -0.00100684)
(1.11652e-06 -3.72854e-06 -0.00100598)
(9.79211e-07 -3.26788e-06 -0.00100524)
(8.60044e-07 -2.86632e-06 -0.00100459)
(7.56582e-07 -2.51613e-06 -0.00100402)
(6.66603e-07 -2.21038e-06 -0.00100352)
(5.88214e-07 -1.94315e-06 -0.00100309)
(5.19805e-07 -1.70936e-06 -0.00100271)
(4.60004e-07 -1.50463e-06 -0.00100238)
(4.07639e-07 -1.32521e-06 -0.00100209)
(3.61708e-07 -1.16785e-06 -0.00100183)
(3.21353e-07 -1.02973e-06 -0.0010016)
(2.85837e-07 -9.0842e-07 -0.00100139)
(2.54529e-07 -8.01794e-07 -0.00100121)
(2.26886e-07 -7.08019e-07 -0.00100105)
(2.0244e-07 -6.25496e-07 -0.00100091)
(1.80789e-07 -5.52832e-07 -0.00100078)
(1.61582e-07 -4.88815e-07 -0.00100066)
(1.44518e-07 -4.32383e-07 -0.00100056)
(1.29333e-07 -3.82612e-07 -0.00100046)
(1.15799e-07 -3.38691e-07 -0.00100038)
(1.03715e-07 -2.9991e-07 -0.0010003)
(9.29084e-08 -2.65647e-07 -0.00100023)
(8.32244e-08 -2.35355e-07 -0.00100018)
(7.45293e-08 -2.08557e-07 -0.00100012)
(6.67052e-08 -1.84834e-07 -0.00100008)
(5.96489e-08 -1.63815e-07 -0.00100004)
(5.32702e-08 -1.45179e-07 -0.001)
(4.74914e-08 -1.28644e-07 -0.000999974)
(4.22453e-08 -1.13963e-07 -0.00099995)
(3.74752e-08 -1.00926e-07 -0.000999931)
(3.31338e-08 -8.93465e-08 -0.000999916)
(2.91824e-08 -7.9068e-08 -0.000999905)
(2.55902e-08 -6.99549e-08 -0.000999898)
(2.23331e-08 -6.18921e-08 -0.000999894)
(1.93927e-08 -5.47821e-08 -0.000999894)
(1.67554e-08 -4.85428e-08 -0.000999896)
(1.44109e-08 -4.31048e-08 -0.0009999)
(1.23519e-08 -3.84104e-08 -0.000999907)
(1.05725e-08 -3.44112e-08 -0.000999916)
(9.06862e-09 -3.1069e-08 -0.000999926)
(7.83639e-09 -2.83464e-08 -0.000999938)
(6.86689e-09 -2.62056e-08 -0.00099995)
(6.16066e-09 -2.46246e-08 -0.000999964)
(5.63441e-09 -2.3501e-08 -0.000999978)
(5.33654e-09 -2.28465e-08 -0.000999993)
)
;

boundaryField
{
    inlet
    {
        type            calculated;
        value           uniform (5.33654e-09 -2.28465e-08 -0.000999993);
    }
    outlet
    {
        type            calculated;
        value           uniform (-7.44625e-10 -5.91349e-10 -0.00100018);
    }
    repeat_boundary
    {
        type            calculated;
        value           nonuniform List<vector> 
360
(
(-7.44625e-10 0 -0.00100018)
(-1.66493e-09 0 -0.00100018)
(-2.73041e-09 0 -0.00100018)
(-3.87308e-09 0 -0.00100018)
(-5.08525e-09 0 -0.00100018)
(-6.39986e-09 0 -0.00100018)
(-7.84663e-09 0 -0.00100017)
(-9.45441e-09 0 -0.00100017)
(-1.12528e-08 0 -0.00100017)
(-1.32728e-08 0 -0.00100016)
(-1.55466e-08 0 -0.00100016)
(-1.81092e-08 0 -0.00100016)
(-2.0997e-08 0 -0.00100016)
(-2.42434e-08 0 -0.00100016)
(-2.78945e-08 0 -0.00100016)
(-3.20052e-08 0 -0.00100016)
(-3.6637e-08 0 -0.00100016)
(-4.18581e-08 0 -0.00100017)
(-4.77444e-08 0 -0.00100017)
(-5.43806e-08 0 -0.00100018)
(-6.18619e-08 0 -0.00100019)
(-7.02945e-08 0 -0.00100021)
(-7.97973e-08 0 -0.00100022)
(-9.05029e-08 0 -0.00100024)
(-1.02559e-07 0 -0.00100026)
(-1.1613e-07 0 -0.00100028)
(-1.31398e-07 0 -0.00100031)
(-1.48563e-07 0 -0.00100034)
(-1.67849e-07 0 -0.00100037)
(-1.89501e-07 0 -0.00100041)
(-2.13788e-07 0 -0.00100044)
(-2.41008e-07 0 -0.00100048)
(-2.71487e-07 0 -0.00100053)
(-3.05585e-07 0 -0.00100058)
(-3.43695e-07 0 -0.00100063)
(-3.8625e-07 0 -0.00100069)
(-4.33724e-07 0 -0.00100075)
(-4.86638e-07 0 -0.00100082)
(-5.45564e-07 0 -0.0010009)
(-6.11124e-07 0 -0.00100098)
(-6.84003e-07 0 -0.00100107)
(-7.64949e-07 0 -0.00100118)
(-8.54775e-07 0 -0.0010013)
(-9.54369e-07 0 -0.00100143)
(-1.0647e-06 0 -0.00100157)
(-1.1868e-06 0 -0.00100174)
(-1.32181e-06 0 -0.00100192)
(-1.47094e-06 0 -0.00100213)
(-1.63551e-06 0 -0.00100236)
(-1.81689e-06 0 -0.00100262)
(-2.01659e-06 0 -0.00100291)
(-2.23615e-06 0 -0.00100324)
(-2.47725e-06 0 -0.00100361)
(-2.74157e-06 0 -0.00100403)
(-3.03089e-06 0 -0.00100451)
(-3.34699e-06 0 -0.00100504)
(-3.69169e-06 0 -0.00100564)
(-4.06685e-06 0 -0.00100631)
(-4.47432e-06 0 -0.00100708)
(-4.91604e-06 0 -0.00100794)
(-5.3941e-06 0 -0.00100891)
(-5.91104e-06 0 -0.00101)
(-6.46919e-06 0 -0.00101124)
(-7.07027e-06 0 -0.00101263)
(-7.71574e-06 0 -0.00101421)
(-8.40674e-06 0 -0.00101598)
(-9.14392e-06 0 -0.00101799)
(-9.92723e-06 0 -0.00102026)
(-1.07557e-05 0 -0.00102281)
(-1.16274e-05 0 -0.00102568)
(-1.25389e-05 0 -0.00102892)
(-1.34853e-05 0 -0.00103257)
(-1.44574e-05 0 -0.00103666)
(-1.5443e-05 0 -0.00104125)
(-1.64246e-05 0 -0.00104666)
(-1.73785e-05 0 -0.00105415)
(-1.82661e-05 0 -0.00105963)
(-1.89732e-05 0 -0.00102227)
(-1.8406e-05 0 -0.000815554)
(-1.08577e-05 0 -0.00259878)
(-5.17068e-05 0 0.000138997)
(-5.19005e-05 0 -0.00501805)
(-5.41452e-05 0 -0.00209151)
(-0.000185723 0 -0.00257456)
(-0.000253428 0 -0.00322073)
(-7.24014e-05 0 -0.00387174)
(-9.08566e-06 0 -0.00119296)
(4.98667e-05 0 -0.00444993)
(0.000119273 0 -0.00273149)
(1.7867e-05 0 -0.00269856)
(4.85439e-05 0 -0.00373958)
(2.27095e-05 0 -0.00238821)
(3.84981e-05 0 -0.00468115)
(-9.82835e-05 0 -0.0012065)
(-0.00031285 0 -0.00444458)
(-9.79516e-05 0 -0.00310746)
(7.26651e-05 0 -0.0047048)
(0.000175849 0 -0.00107212)
(1.54502e-06 0 -0.00546197)
(7.18974e-06 0 -0.00357862)
(-0.000244433 0 -0.00256492)
(-0.000395891 0 -0.00284793)
(-0.000139288 0 -0.00118412)
(0.000250782 0 -0.0034198)
(1.23845e-05 0 -0.00289268)
(8.67092e-05 0 -0.00156972)
(8.73042e-05 0 -0.00133894)
(7.51105e-05 0 -0.00130249)
(6.36846e-05 0 -0.00126577)
(5.39835e-05 0 -0.00122934)
(4.58122e-05 0 -0.00119767)
(3.89206e-05 0 -0.00117062)
(3.31002e-05 0 -0.0011474)
(2.81791e-05 0 -0.00112743)
(2.40146e-05 0 -0.00111023)
(2.04875e-05 0 -0.00109539)
(1.74979e-05 0 -0.00108259)
(1.49622e-05 0 -0.00107155)
(1.28098e-05 0 -0.00106201)
(1.0981e-05 0 -0.00105378)
(9.42539e-06 0 -0.00104667)
(8.1006e-06 0 -0.00104053)
(6.97108e-06 0 -0.00103522)
(6.00688e-06 0 -0.00103063)
(5.18283e-06 0 -0.00102665)
(4.47768e-06 0 -0.0010232)
(3.87355e-06 0 -0.00102021)
(3.35533e-06 0 -0.00101762)
(2.91028e-06 0 -0.00101537)
(2.52761e-06 0 -0.00101341)
(2.1982e-06 0 -0.00101171)
(1.91432e-06 0 -0.00101023)
(1.6694e-06 0 -0.00100894)
(1.45786e-06 0 -0.00100782)
(1.27492e-06 0 -0.00100684)
(1.11652e-06 0 -0.00100598)
(9.79211e-07 0 -0.00100524)
(8.60044e-07 0 -0.00100459)
(7.56582e-07 0 -0.00100402)
(6.66603e-07 0 -0.00100352)
(5.88214e-07 0 -0.00100309)
(5.19805e-07 0 -0.00100271)
(4.60004e-07 0 -0.00100238)
(4.07639e-07 0 -0.00100209)
(3.61708e-07 0 -0.00100183)
(3.21353e-07 0 -0.0010016)
(2.85837e-07 0 -0.00100139)
(2.54529e-07 0 -0.00100121)
(2.26886e-07 0 -0.00100105)
(2.0244e-07 0 -0.00100091)
(1.80789e-07 0 -0.00100078)
(1.61582e-07 0 -0.00100066)
(1.44518e-07 0 -0.00100056)
(1.29333e-07 0 -0.00100046)
(1.15799e-07 0 -0.00100038)
(1.03715e-07 0 -0.0010003)
(9.29084e-08 0 -0.00100023)
(8.32244e-08 0 -0.00100018)
(7.45293e-08 0 -0.00100012)
(6.67052e-08 0 -0.00100008)
(5.96489e-08 0 -0.00100004)
(5.32702e-08 0 -0.001)
(4.74914e-08 0 -0.000999974)
(4.22453e-08 0 -0.00099995)
(3.74752e-08 0 -0.000999931)
(3.31338e-08 0 -0.000999916)
(2.91824e-08 0 -0.000999905)
(2.55902e-08 0 -0.000999898)
(2.23331e-08 0 -0.000999894)
(1.93927e-08 0 -0.000999894)
(1.67554e-08 0 -0.000999896)
(1.44109e-08 0 -0.0009999)
(1.23519e-08 0 -0.000999907)
(1.05725e-08 0 -0.000999916)
(9.06862e-09 0 -0.000999926)
(7.83639e-09 0 -0.000999938)
(6.86689e-09 0 -0.00099995)
(6.16066e-09 0 -0.000999964)
(5.63441e-09 0 -0.000999978)
(5.33654e-09 0 -0.000999993)
(0 -5.91349e-10 -0.00100018)
(0 -1.53331e-09 -0.00100018)
(0 -2.59644e-09 -0.00100018)
(0 -3.67006e-09 -0.00100018)
(0 -4.7714e-09 -0.00100018)
(0 -5.89558e-09 -0.00100018)
(0 -7.0439e-09 -0.00100017)
(0 -8.22065e-09 -0.00100017)
(0 -9.43171e-09 -0.00100017)
(0 -1.06844e-08 -0.00100016)
(0 -1.19876e-08 -0.00100016)
(0 -1.33513e-08 -0.00100016)
(0 -1.47876e-08 -0.00100016)
(0 -1.63124e-08 -0.00100016)
(0 -1.7938e-08 -0.00100016)
(0 -1.96752e-08 -0.00100016)
(0 -2.15353e-08 -0.00100016)
(0 -2.35301e-08 -0.00100017)
(0 -2.56714e-08 -0.00100017)
(0 -2.79708e-08 -0.00100018)
(0 -3.04395e-08 -0.00100019)
(0 -3.30882e-08 -0.00100021)
(0 -3.59276e-08 -0.00100022)
(0 -3.89678e-08 -0.00100024)
(0 -4.22189e-08 -0.00100026)
(0 -4.5691e-08 -0.00100028)
(0 -4.93942e-08 -0.00100031)
(0 -5.33394e-08 -0.00100034)
(0 -5.75376e-08 -0.00100037)
(0 -6.20007e-08 -0.00100041)
(0 -6.67417e-08 -0.00100044)
(0 -7.17741e-08 -0.00100048)
(0 -7.71124e-08 -0.00100053)
(0 -8.27718e-08 -0.00100058)
(0 -8.87675e-08 -0.00100063)
(0 -9.51147e-08 -0.00100069)
(0 -1.01827e-07 -0.00100075)
(0 -1.08917e-07 -0.00100082)
(0 -1.16391e-07 -0.0010009)
(0 -1.24255e-07 -0.00100098)
(0 -1.32504e-07 -0.00100107)
(0 -1.41126e-07 -0.00100118)
(0 -1.50098e-07 -0.0010013)
(0 -1.59382e-07 -0.00100143)
(0 -1.68922e-07 -0.00100157)
(0 -1.78642e-07 -0.00100174)
(0 -1.88438e-07 -0.00100192)
(0 -1.98174e-07 -0.00100213)
(0 -2.07679e-07 -0.00100236)
(0 -2.16734e-07 -0.00100262)
(0 -2.25065e-07 -0.00100291)
(0 -2.32335e-07 -0.00100324)
(0 -2.38127e-07 -0.00100361)
(0 -2.41932e-07 -0.00100403)
(0 -2.43133e-07 -0.00100451)
(0 -2.40979e-07 -0.00100504)
(0 -2.34567e-07 -0.00100564)
(0 -2.22812e-07 -0.00100631)
(0 -2.04411e-07 -0.00100708)
(0 -1.77811e-07 -0.00100794)
(0 -1.41152e-07 -0.00100891)
(0 -9.22112e-08 -0.00101)
(0 -2.83017e-08 -0.00101124)
(0 5.38279e-08 -0.00101263)
(0 1.58101e-07 -0.00101421)
(0 2.89239e-07 -0.00101598)
(0 4.52815e-07 -0.00101799)
(0 6.55338e-07 -0.00102026)
(0 9.04376e-07 -0.00102281)
(0 1.20872e-06 -0.00102568)
(0 1.57854e-06 -0.00102892)
(0 2.0256e-06 -0.00103257)
(0 2.56355e-06 -0.00103666)
(0 3.20756e-06 -0.00104125)
(0 3.9728e-06 -0.00104666)
(0 4.87663e-06 -0.00105415)
(0 5.92655e-06 -0.00105963)
(0 7.21364e-06 -0.00102227)
(0 9.9573e-06 -0.000815554)
(0 2.32548e-05 -0.00259878)
(0 3.04874e-05 0.000138997)
(0 0.0001678 -0.00501805)
(0 -5.56844e-06 -0.00209151)
(0 9.899e-06 -0.00257456)
(0 4.47304e-05 -0.00322073)
(0 -1.60707e-05 -0.00387174)
(0 -2.73584e-05 -0.00119296)
(0 7.17993e-05 -0.00444993)
(0 -0.000106619 -0.00273149)
(0 -0.000120812 -0.00269856)
(0 -0.00010509 -0.00373958)
(0 -0.000108839 -0.00238821)
(0 0.000132464 -0.00468115)
(0 0.000335532 -0.0012065)
(0 0.000857084 -0.00444458)
(0 0.000777123 -0.00310746)
(0 0.000662363 -0.0047048)
(0 0.000356755 -0.00107212)
(0 0.000303483 -0.00546197)
(0 -0.000160697 -0.00357862)
(0 -0.000127613 -0.00256492)
(0 7.51302e-05 -0.00284793)
(0 -4.48267e-05 -0.00118412)
(0 -0.000227759 -0.0034198)
(0 -0.000293216 -0.00289268)
(0 -0.000253345 -0.00156972)
(0 -0.000216537 -0.00133894)
(0 -0.000186743 -0.00130249)
(0 -0.000161198 -0.00126577)
(0 -0.000139243 -0.00122934)
(0 -0.000120355 -0.00119767)
(0 -0.000104088 -0.00117062)
(0 -9.00677e-05 -0.0011474)
(0 -7.79773e-05 -0.00112743)
(0 -6.75453e-05 -0.00111023)
(0 -5.85396e-05 -0.00109539)
(0 -5.07614e-05 -0.00108259)
(0 -4.40406e-05 -0.00107155)
(0 -3.82305e-05 -0.00106201)
(0 -3.32045e-05 -0.00105378)
(0 -2.88536e-05 -0.00104667)
(0 -2.50854e-05 -0.00104053)
(0 -2.18202e-05 -0.00103522)
(0 -1.89893e-05 -0.00103063)
(0 -1.65339e-05 -0.00102665)
(0 -1.44031e-05 -0.0010232)
(0 -1.25532e-05 -0.00102021)
(0 -1.09462e-05 -0.00101762)
(0 -9.54977e-06 -0.00101537)
(0 -8.33567e-06 -0.00101341)
(0 -7.27964e-06 -0.00101171)
(0 -6.3607e-06 -0.00101023)
(0 -5.5607e-06 -0.00100894)
(0 -4.86399e-06 -0.00100782)
(0 -4.25718e-06 -0.00100684)
(0 -3.72854e-06 -0.00100598)
(0 -3.26788e-06 -0.00100524)
(0 -2.86632e-06 -0.00100459)
(0 -2.51613e-06 -0.00100402)
(0 -2.21038e-06 -0.00100352)
(0 -1.94315e-06 -0.00100309)
(0 -1.70936e-06 -0.00100271)
(0 -1.50463e-06 -0.00100238)
(0 -1.32521e-06 -0.00100209)
(0 -1.16785e-06 -0.00100183)
(0 -1.02973e-06 -0.0010016)
(0 -9.0842e-07 -0.00100139)
(0 -8.01794e-07 -0.00100121)
(0 -7.08019e-07 -0.00100105)
(0 -6.25496e-07 -0.00100091)
(0 -5.52832e-07 -0.00100078)
(0 -4.88815e-07 -0.00100066)
(0 -4.32383e-07 -0.00100056)
(0 -3.82612e-07 -0.00100046)
(0 -3.38691e-07 -0.00100038)
(0 -2.9991e-07 -0.0010003)
(0 -2.65647e-07 -0.00100023)
(0 -2.35355e-07 -0.00100018)
(0 -2.08557e-07 -0.00100012)
(0 -1.84834e-07 -0.00100008)
(0 -1.63815e-07 -0.00100004)
(0 -1.45179e-07 -0.001)
(0 -1.28644e-07 -0.000999974)
(0 -1.13963e-07 -0.00099995)
(0 -1.00926e-07 -0.000999931)
(0 -8.93465e-08 -0.000999916)
(0 -7.9068e-08 -0.000999905)
(0 -6.99549e-08 -0.000999898)
(0 -6.18921e-08 -0.000999894)
(0 -5.47821e-08 -0.000999894)
(0 -4.85428e-08 -0.000999896)
(0 -4.31048e-08 -0.0009999)
(0 -3.84104e-08 -0.000999907)
(0 -3.44112e-08 -0.000999916)
(0 -3.1069e-08 -0.000999926)
(0 -2.83464e-08 -0.000999938)
(0 -2.62056e-08 -0.00099995)
(0 -2.46246e-08 -0.000999964)
(0 -2.3501e-08 -0.000999978)
(0 -2.28465e-08 -0.000999993)
)
;
    }
    procBoundary1to0
    {
        type            processor;
        value           nonuniform List<vector> 
180
(
(-7.44528e-10 8.78578e-11 -0.00100016)
(-1.66507e-09 2.40297e-10 -0.00100016)
(-2.73043e-09 4.30823e-10 -0.00100016)
(-3.87308e-09 6.12322e-10 -0.00100016)
(-5.08525e-09 7.95145e-10 -0.00100015)
(-6.39986e-09 9.65509e-10 -0.00100015)
(-7.84663e-09 1.11583e-09 -0.00100014)
(-9.45441e-09 1.24106e-09 -0.00100014)
(-1.12528e-08 1.33719e-09 -0.00100013)
(-1.32728e-08 1.40126e-09 -0.00100012)
(-1.55466e-08 1.43124e-09 -0.00100011)
(-1.81092e-08 1.426e-09 -0.0010001)
(-2.0997e-08 1.38565e-09 -0.0010001)
(-2.42434e-08 1.31385e-09 -0.00100009)
(-2.78945e-08 1.21032e-09 -0.00100008)
(-3.20052e-08 1.07425e-09 -0.00100007)
(-3.6637e-08 9.04757e-10 -0.00100006)
(-4.18581e-08 7.01831e-10 -0.00100006)
(-4.77444e-08 4.65692e-10 -0.00100005)
(-5.43806e-08 1.97502e-10 -0.00100004)
(-6.18619e-08 -1.00656e-10 -0.00100003)
(-7.02945e-08 -4.25362e-10 -0.00100003)
(-7.97973e-08 -7.7119e-10 -0.00100002)
(-9.05029e-08 -1.13011e-09 -0.00100001)
(-1.02559e-07 -1.49045e-09 -0.001)
(-1.1613e-07 -1.83564e-09 -0.000999996)
(-1.31398e-07 -2.14275e-09 -0.000999986)
(-1.48563e-07 -2.38066e-09 -0.000999974)
(-1.67849e-07 -2.50793e-09 -0.000999961)
(-1.89501e-07 -2.47033e-09 -0.000999945)
(-2.13788e-07 -2.19789e-09 -0.000999927)
(-2.41008e-07 -1.60153e-09 -0.000999905)
(-2.71487e-07 -5.69166e-10 -0.000999881)
(-3.05585e-07 1.03892e-09 -0.000999853)
(-3.43695e-07 3.3953e-09 -0.000999821)
(-3.86249e-07 6.71164e-09 -0.000999785)
(-4.33724e-07 1.12459e-08 -0.000999744)
(-4.86638e-07 1.73108e-08 -0.000999699)
(-5.45563e-07 2.52838e-08 -0.000999649)
(-6.11123e-07 3.56187e-08 -0.000999594)
(-6.84003e-07 4.88595e-08 -0.000999534)
(-7.64948e-07 6.56566e-08 -0.000999468)
(-8.54774e-07 8.67866e-08 -0.000999398)
(-9.54368e-07 1.13174e-07 -0.000999323)
(-1.06469e-06 1.4592e-07 -0.000999243)
(-1.1868e-06 1.86332e-07 -0.000999159)
(-1.32181e-06 2.35963e-07 -0.000999072)
(-1.47094e-06 2.96654e-07 -0.000998982)
(-1.6355e-06 3.70587e-07 -0.000998891)
(-1.81689e-06 4.60345e-07 -0.000998799)
(-2.01658e-06 5.68987e-07 -0.00099871)
(-2.23615e-06 7.00131e-07 -0.000998625)
(-2.47724e-06 8.58056e-07 -0.000998549)
(-2.74156e-06 1.04782e-06 -0.000998484)
(-3.03087e-06 1.27542e-06 -0.000998437)
(-3.34697e-06 1.54792e-06 -0.000998414)
(-3.69167e-06 1.87361e-06 -0.000998422)
(-4.06682e-06 2.26219e-06 -0.000998469)
(-4.47429e-06 2.72489e-06 -0.000998564)
(-4.916e-06 3.27464e-06 -0.000998717)
(-5.39405e-06 3.92604e-06 -0.000998933)
(-5.91098e-06 4.69505e-06 -0.000999224)
(-6.46912e-06 5.60064e-06 -0.000999616)
(-7.07017e-06 6.66588e-06 -0.00100013)
(-7.71562e-06 7.91757e-06 -0.00100081)
(-8.40659e-06 9.3868e-06 -0.00100167)
(-9.14374e-06 1.11097e-05 -0.00100275)
(-9.92701e-06 1.31279e-05 -0.0010041)
(-1.07555e-05 1.54901e-05 -0.00100576)
(-1.16271e-05 1.82522e-05 -0.00100781)
(-1.25385e-05 2.14791e-05 -0.0010103)
(-1.34847e-05 2.52458e-05 -0.00101334)
(-1.44566e-05 2.96441e-05 -0.00101704)
(-1.5442e-05 3.47799e-05 -0.00102153)
(-1.64235e-05 4.07772e-05 -0.00102727)
(-1.7376e-05 4.77811e-05 -0.00103562)
(-1.82657e-05 5.59479e-05 -0.00104277)
(-1.89839e-05 6.54297e-05 -0.00101214)
(-1.86244e-05 7.65834e-05 -0.000827439)
(-1.39154e-05 9.12848e-05 -0.00233383)
(-5.42717e-05 -0.000116109 -4.0677e-05)
(-9.89463e-05 -8.15967e-05 -0.00375073)
(-0.000107721 -0.000160109 -0.00228532)
(-0.000221158 -0.000258783 -0.00244792)
(-0.000167966 -0.000264885 -0.00315954)
(-0.000107956 -0.000118832 -0.00188833)
(-0.000128418 6.55635e-05 -0.00406457)
(-8.2874e-05 -1.89482e-05 -0.00159574)
(3.94858e-05 6.37277e-05 -0.00390919)
(-3.83673e-05 -5.01357e-05 -0.00257482)
(5.70477e-05 7.81148e-05 -0.00182692)
(0.000167094 8.68971e-05 -0.00422032)
(-2.30124e-05 0.000116762 -0.00131414)
(-0.00039452 8.27653e-05 -0.00526565)
(-0.000309758 0.000207965 0.00116074)
(-0.000115101 6.24819e-05 -0.00498251)
(-0.000322736 -5.96955e-05 -0.00308486)
(-0.000241268 -0.000103675 6.73485e-05)
(9.83032e-05 0.000248532 -0.00415118)
(0.000118511 0.00050649 -0.00136101)
(8.0148e-05 0.000766912 -0.00410803)
(0.000220134 0.000447307 0.000243451)
(0.00040359 0.00039358 -0.000771956)
(0.000268656 0.000533373 -0.00215271)
(0.000133371 -9.96164e-06 -0.00263631)
(0.000118524 -0.000100043 -0.00122167)
(8.99584e-05 -9.48058e-05 -0.0010418)
(7.52794e-05 -8.60772e-05 -0.00105019)
(6.36994e-05 -7.76215e-05 -0.00105313)
(5.39864e-05 -6.98013e-05 -0.00105038)
(4.5814e-05 -6.26378e-05 -0.0010469)
(3.89219e-05 -5.61072e-05 -0.00104338)
(3.31011e-05 -5.01772e-05 -0.00103989)
(2.81798e-05 -4.48099e-05 -0.00103649)
(2.40152e-05 -3.99654e-05 -0.00103323)
(2.04879e-05 -3.56035e-05 -0.00103016)
(1.74982e-05 -3.16846e-05 -0.00102728)
(1.49624e-05 -2.81707e-05 -0.00102461)
(1.281e-05 -2.50256e-05 -0.00102215)
(1.09811e-05 -2.22155e-05 -0.0010199)
(9.42547e-06 -1.97088e-05 -0.00101783)
(8.10067e-06 -1.74754e-05 -0.00101596)
(6.97113e-06 -1.54875e-05 -0.00101426)
(6.00692e-06 -1.372e-05 -0.00101272)
(5.18285e-06 -1.21496e-05 -0.00101134)
(4.47771e-06 -1.07555e-05 -0.00101009)
(3.87357e-06 -9.51879e-06 -0.00100898)
(3.35535e-06 -8.42231e-06 -0.00100797)
(2.91029e-06 -7.45071e-06 -0.00100708)
(2.52762e-06 -6.59019e-06 -0.00100628)
(2.19821e-06 -5.82836e-06 -0.00100557)
(1.91433e-06 -5.15418e-06 -0.00100493)
(1.66941e-06 -4.55778e-06 -0.00100437)
(1.45786e-06 -4.03032e-06 -0.00100386)
(1.27492e-06 -3.56377e-06 -0.00100342)
(1.11652e-06 -3.15114e-06 -0.00100302)
(9.79212e-07 -2.78625e-06 -0.00100267)
(8.60045e-07 -2.46362e-06 -0.00100236)
(7.56582e-07 -2.17822e-06 -0.00100208)
(6.66604e-07 -1.92566e-06 -0.00100184)
(5.88215e-07 -1.70212e-06 -0.00100162)
(5.19806e-07 -1.50426e-06 -0.00100143)
(4.60004e-07 -1.32913e-06 -0.00100126)
(4.07639e-07 -1.17414e-06 -0.0010011)
(3.61708e-07 -1.037e-06 -0.00100096)
(3.21353e-07 -9.1568e-07 -0.00100084)
(2.85837e-07 -8.08382e-07 -0.00100073)
(2.54529e-07 -7.13514e-07 -0.00100062)
(2.26886e-07 -6.29665e-07 -0.00100053)
(2.0244e-07 -5.55578e-07 -0.00100044)
(1.80789e-07 -4.90142e-07 -0.00100037)
(1.61582e-07 -4.3237e-07 -0.0010003)
(1.44518e-07 -3.81387e-07 -0.00100023)
(1.29333e-07 -3.36418e-07 -0.00100017)
(1.15799e-07 -2.96775e-07 -0.00100012)
(1.03715e-07 -2.61849e-07 -0.00100007)
(9.29084e-08 -2.31099e-07 -0.00100003)
(8.32244e-08 -2.04048e-07 -0.000999991)
(7.45294e-08 -1.80272e-07 -0.000999957)
(6.67052e-08 -1.59398e-07 -0.000999928)
(5.96489e-08 -1.41094e-07 -0.000999902)
(5.32702e-08 -1.2507e-07 -0.000999881)
(4.74914e-08 -1.11065e-07 -0.000999864)
(4.22453e-08 -9.88507e-08 -0.00099985)
(3.74752e-08 -8.82208e-08 -0.00099984)
(3.31338e-08 -7.89931e-08 -0.000999833)
(2.91824e-08 -7.10047e-08 -0.00099983)
(2.55902e-08 -6.41101e-08 -0.00099983)
(2.23331e-08 -5.81792e-08 -0.000999832)
(1.93927e-08 -5.3096e-08 -0.000999838)
(1.67554e-08 -4.87571e-08 -0.000999846)
(1.44111e-08 -4.5071e-08 -0.000999856)
(1.23523e-08 -4.1957e-08 -0.000999869)
(1.05731e-08 -3.93446e-08 -0.000999883)
(9.06919e-09 -3.71724e-08 -0.000999899)
(7.83667e-09 -3.53912e-08 -0.000999916)
(6.86707e-09 -3.39698e-08 -0.000999934)
(6.16066e-09 -3.28723e-08 -0.000999952)
(5.63441e-09 -3.21494e-08 -0.000999971)
(5.33654e-09 -3.17024e-08 -0.000999991)
)
;
    }
    procBoundary1to3
    {
        type            processor;
        value           nonuniform List<vector> 
180
(
(-1.42357e-09 -5.91202e-10 -0.0010002)
(-3.43877e-09 -1.53339e-09 -0.0010002)
(-5.75769e-09 -2.59644e-09 -0.0010002)
(-8.15546e-09 -3.67006e-09 -0.0010002)
(-1.06518e-08 -4.7714e-09 -0.0010002)
(-1.32609e-08 -5.89558e-09 -0.0010002)
(-1.60064e-08 -7.0439e-09 -0.0010002)
(-1.89161e-08 -8.22065e-09 -0.0010002)
(-2.20217e-08 -9.43171e-09 -0.00100019)
(-2.53584e-08 -1.06844e-08 -0.00100019)
(-2.89654e-08 -1.19876e-08 -0.00100019)
(-3.28865e-08 -1.33513e-08 -0.00100019)
(-3.71702e-08 -1.47876e-08 -0.00100019)
(-4.18696e-08 -1.63124e-08 -0.00100019)
(-4.70428e-08 -1.7938e-08 -0.00100019)
(-5.27546e-08 -1.96752e-08 -0.00100019)
(-5.9077e-08 -2.15353e-08 -0.0010002)
(-6.609e-08 -2.35301e-08 -0.00100021)
(-7.38815e-08 -2.56714e-08 -0.00100022)
(-8.25489e-08 -2.79708e-08 -0.00100023)
(-9.22007e-08 -3.04395e-08 -0.00100024)
(-1.02957e-07 -3.30882e-08 -0.00100026)
(-1.14954e-07 -3.59276e-08 -0.00100028)
(-1.28341e-07 -3.89678e-08 -0.0010003)
(-1.43288e-07 -4.22189e-08 -0.00100033)
(-1.59985e-07 -4.5691e-08 -0.00100036)
(-1.78649e-07 -4.93942e-08 -0.00100039)
(-1.99522e-07 -5.33394e-08 -0.00100042)
(-2.22879e-07 -5.75376e-08 -0.00100046)
(-2.49031e-07 -6.20007e-08 -0.0010005)
(-2.78332e-07 -6.67417e-08 -0.00100054)
(-3.1118e-07 -7.17741e-08 -0.00100059)
(-3.4803e-07 -7.71125e-08 -0.00100064)
(-3.89396e-07 -8.27718e-08 -0.00100069)
(-4.35858e-07 -8.87676e-08 -0.00100075)
(-4.88076e-07 -9.51147e-08 -0.00100082)
(-5.46797e-07 -1.01827e-07 -0.00100089)
(-6.12866e-07 -1.08917e-07 -0.00100097)
(-6.87239e-07 -1.16391e-07 -0.00100105)
(-7.70998e-07 -1.24255e-07 -0.00100114)
(-8.65367e-07 -1.32504e-07 -0.00100124)
(-9.71732e-07 -1.41126e-07 -0.00100136)
(-1.09166e-06 -1.50098e-07 -0.00100148)
(-1.22693e-06 -1.59382e-07 -0.00100162)
(-1.37954e-06 -1.68923e-07 -0.00100177)
(-1.55178e-06 -1.78643e-07 -0.00100193)
(-1.74621e-06 -1.88439e-07 -0.00100212)
(-1.96578e-06 -1.98176e-07 -0.00100232)
(-2.21378e-06 -2.07681e-07 -0.00100255)
(-2.49398e-06 -2.16736e-07 -0.0010028)
(-2.81065e-06 -2.25069e-07 -0.00100307)
(-3.16863e-06 -2.32339e-07 -0.00100338)
(-3.57344e-06 -2.38132e-07 -0.00100372)
(-4.03134e-06 -2.4194e-07 -0.00100409)
(-4.54946e-06 -2.43142e-07 -0.00100451)
(-5.13591e-06 -2.40992e-07 -0.00100496)
(-5.79992e-06 -2.34584e-07 -0.00100547)
(-6.55191e-06 -2.22834e-07 -0.00100603)
(-7.4037e-06 -2.04441e-07 -0.00100665)
(-8.36859e-06 -1.77851e-07 -0.00100733)
(-9.46142e-06 -1.41205e-07 -0.00100808)
(-1.06985e-05 -9.22821e-08 -0.0010089)
(-1.20984e-05 -2.83963e-08 -0.00100981)
(-1.36826e-05 5.37018e-08 -0.00101081)
(-1.54756e-05 1.57932e-07 -0.0010119)
(-1.75048e-05 2.89014e-07 -0.0010131)
(-1.98014e-05 4.52514e-07 -0.0010144)
(-2.24007e-05 6.54935e-07 -0.00101582)
(-2.53426e-05 9.03836e-07 -0.00101736)
(-2.86724e-05 1.208e-06 -0.00101905)
(-3.24414e-05 1.57756e-06 -0.00102088)
(-3.67081e-05 2.02429e-06 -0.00102286)
(-4.15413e-05 2.56181e-06 -0.00102501)
(-4.70198e-05 3.2053e-06 -0.00102734)
(-5.32365e-05 3.96935e-06 -0.00103019)
(-6.03194e-05 4.85724e-06 -0.001035)
(-6.82503e-05 5.93561e-06 -0.00103711)
(-7.70316e-05 7.22348e-06 -0.000992543)
(-8.39664e-05 1.00648e-05 -0.000750005)
(-7.92743e-05 2.1423e-05 -0.00240656)
(-0.000167622 -0.000128167 1.35568e-05)
(3.00516e-05 9.00865e-05 -0.00438889)
(-0.000289126 -0.000228007 -0.00110622)
(-0.000267312 -9.29198e-05 -0.00373656)
(-0.000302297 -1.82801e-05 -0.00262749)
(-0.000311946 -4.67013e-05 -0.0019442)
(-0.000156173 0.000244584 -0.00529632)
(3.45892e-05 -2.01029e-05 0.000747592)
(-0.000155031 0.000168185 -0.00543175)
(0.000107151 0.000191905 -0.00247056)
(0.00014663 0.000207736 -0.00175017)
(0.000245223 0.000219882 -0.00206501)
(0.000426105 0.000504328 -0.00416266)
(0.000410926 0.000603554 -0.00122437)
(0.000424429 0.000663005 -0.00349452)
(0.000312027 0.000291681 0.000208403)
(0.000294142 0.000493299 -0.00310561)
(0.000444708 0.000646684 -0.00263249)
(0.000196621 0.000399138 -0.00111111)
(-0.000101517 0.000150521 0.000568821)
(-0.000161732 -7.05276e-05 -0.00359467)
(-0.000500262 -0.00016788 4.61244e-05)
(-0.000148153 0.000366481 0.000459522)
(0.000263108 0.000176983 -0.00135406)