/*--------------------------------*- C++ -*----------------------------------*\
| =========                 |                                                 |
| \\      /  F ield         | OpenFOAM: The Open Source CFD Toolbox           |
|  \\    /   O peration     | Version:  5.x                                   |
|   \\  /    A nd           | Web:      www.OpenFOAM.org                      |
|    \\/     M anipulation  |                                                 |
\*---------------------------------------------------------------------------*/
FoamFile
{
    version     2.0;
    format      ascii;
    class       surfaceScalarField;
    location    "0.004";
    object      phi;
}
// * * * * * * * * * * * * * * * * * * * * * * * * * * * * * * * * * * * * * //

dimensions      [0 3 -1 0 0 0 0];

internalField   nonuniform List<scalar> 
179
(
-2.49986e-10
-2.49986e-10
-2.49986e-10
-2.49985e-10
-2.49985e-10
-2.49984e-10
-2.49984e-10
-2.49983e-10
-2.49982e-10
-2.49981e-10
-2.49979e-10
-2.49978e-10
-2.49976e-10
-2.49973e-10
-2.49971e-10
-2.49968e-10
-2.49965e-10
-2.49961e-10
-2.49957e-10
-2.49952e-10
-2.49947e-10
-2.49942e-10
-2.49935e-10
-2.49928e-10
-2.4992e-10
-2.49912e-10
-2.49902e-10
-2.49892e-10
-2.49881e-10
-2.49868e-10
-2.49854e-10
-2.49838e-10
-2.49821e-10
-2.49803e-10
-2.49782e-10
-2.49759e-10
-2.49734e-10
-2.49706e-10
-2.49675e-10
-2.49641e-10
-2.49604e-10
-2.49562e-10
-2.49517e-10
-2.49466e-10
-2.49411e-10
-2.49349e-10
-2.49281e-10
-2.49207e-10
-2.49124e-10
-2.49034e-10
-2.48934e-10
-2.48824e-10
-2.48702e-10
-2.48568e-10
-2.4842e-10
-2.48257e-10
-2.48078e-10
-2.4788e-10
-2.47661e-10
-2.4742e-10
-2.47153e-10
-2.46859e-10
-2.46534e-10
-2.46175e-10
-2.45777e-10
-2.45336e-10
-2.44848e-10
-2.44307e-10
-2.43705e-10
-2.43035e-10
-2.42287e-10
-2.41451e-10
-2.40514e-10
-2.39461e-10
-2.38272e-10
-2.36927e-10
-2.35412e-10
-2.33731e-10
-2.3198e-10
-2.30207e-10
-2.29712e-10
-2.29745e-10
-2.34778e-10
-2.3518e-10
-2.27849e-10
-2.13651e-10
-2.12122e-10
-2.03195e-10
-2.0389e-10
-2.18111e-10
-2.34876e-10
-2.47022e-10
-2.60898e-10
-2.78017e-10
-2.79572e-10
-2.76585e-10
-2.60468e-10
-2.50688e-10
-2.39308e-10
-2.33351e-10
-2.24236e-10
-2.17777e-10
-2.16756e-10
-2.17125e-10
-2.17333e-10
-2.19305e-10
-2.21992e-10
-2.24716e-10
-2.27244e-10
-2.29534e-10
-2.31595e-10
-2.33451e-10
-2.3512e-10
-2.3662e-10
-2.3797e-10
-2.39184e-10
-2.40275e-10
-2.41256e-10
-2.42139e-10
-2.42932e-10
-2.43645e-10
-2.44286e-10
-2.44862e-10
-2.45381e-10
-2.45847e-10
-2.46266e-10
-2.46642e-10
-2.46981e-10
-2.47285e-10
-2.47558e-10
-2.47803e-10
-2.48024e-10
-2.48223e-10
-2.48402e-10
-2.48563e-10
-2.48708e-10
-2.48838e-10
-2.48955e-10
-2.4906e-10
-2.49155e-10
-2.4924e-10
-2.49316e-10
-2.49385e-10
-2.49447e-10
-2.49503e-10
-2.49553e-10
-2.49598e-10
-2.49638e-10
-2.49674e-10
-2.49707e-10
-2.49737e-10
-2.49763e-10
-2.49787e-10
-2.49808e-10
-2.49827e-10
-2.49845e-10
-2.4986e-10
-2.49874e-10
-2.49887e-10
-2.49899e-10
-2.49909e-10
-2.49918e-10
-2.49927e-10
-2.49935e-10
-2.49942e-10
-2.49948e-10
-2.49954e-10
-2.49959e-10
-2.49964e-10
-2.49968e-10
-2.49972e-10
-2.49976e-10
-2.49979e-10
-2.49982e-10
-2.49985e-10
-2.49988e-10
-2.4999e-10
-2.49993e-10
-2.49995e-10
)
;

boundaryField
{
    inlet
    {
        type            calculated;
        value           uniform -2.49997e-10;
    }
    outlet
    {
        type            calculated;
        value           uniform 2.49986e-10;
    }
    repeat_boundary
    {
        type            calculated;
        value           uniform 0;
    }
    procBoundary0to1
    {
        type            processor;
        value           nonuniform List<scalar> 
180
(
1.64433e-17
3.00164e-18
-5.85552e-18
-1.07343e-17
-1.28067e-17
-1.28237e-17
-1.08555e-17
-6.78981e-18
-4.88307e-19
8.15725e-18
1.92091e-17
3.26833e-17
4.8554e-17
6.67619e-17
8.72232e-17
1.09842e-16
1.34527e-16
1.61205e-16
1.8984e-16
2.2045e-16
2.53126e-16
2.88051e-16
3.25516e-16
3.65944e-16
4.09904e-16
4.58133e-16
5.11554e-16
5.71306e-16
6.38829e-16
7.16058e-16
8.04603e-16
9.03216e-16
1.01297e-15
1.13458e-15
1.27066e-15
1.42311e-15
1.59398e-15
1.78544e-15
2.00011e-15
2.24092e-15
2.51122e-15
2.81482e-15
3.15609e-15
3.54008e-15
3.97274e-15
4.46141e-15
5.01537e-15
5.64614e-15
6.36961e-15
7.1206e-15
7.93389e-15
8.83284e-15
9.82386e-15
1.0913e-14
1.21056e-14
1.34058e-14
1.4816e-14
1.63355e-14
1.79604e-14
1.96815e-14
2.14829e-14
2.33394e-14
2.52138e-14
2.70527e-14
2.87821e-14
3.03001e-14
3.14683e-14
3.21016e-14
3.18224e-14
3.03905e-14
2.73899e-14
2.22405e-14
1.41434e-14
1.89441e-15
-1.66251e-14
-4.47726e-14
-8.91456e-14
-1.58794e-13
-2.31297e-13
-3.88556e-13
-3.02159e-13
2.09738e-14
4.30423e-12
4.18867e-13
-3.69517e-12
-9.75175e-12
-8.17804e-13
-4.3577e-12
5.50182e-13
4.70769e-12
2.8848e-12
1.50025e-12
-1.38148e-13
-2.04533e-12
-1.23938e-12
-2.72689e-12
-6.72061e-12
-2.64473e-12
-3.15466e-12
-1.45656e-12
-3.83122e-12
-4.88116e-12
-9.20445e-13
1.94214e-13
6.89922e-13
2.16995e-12
2.7025e-12
2.72266e-12
2.54173e-12
2.31344e-12
2.08969e-12
1.88362e-12
1.69692e-12
1.52846e-12
1.37663e-12
1.23983e-12
1.11658e-12
1.00554e-12
9.05527e-13
8.15437e-13
7.34293e-13
6.6121e-13
5.95389e-13
5.36111e-13
4.82729e-13
4.34664e-13
3.91384e-13
3.52413e-13
3.17321e-13
2.85722e-13
2.57268e-13
2.31648e-13
2.08581e-13
1.87814e-13
1.69117e-13
1.52285e-13
1.37132e-13
1.2349e-13
1.11208e-13
1.00151e-13
9.0197e-14
8.12351e-14
7.31664e-14
6.59018e-14
5.9361e-14
5.34718e-14
4.81691e-14
4.33944e-14
3.90951e-14
3.52238e-14
3.1738e-14
2.85994e-14
2.57734e-14
2.32291e-14
2.09386e-14
1.88768e-14
1.70211e-14
1.53511e-14
1.38486e-14
1.24971e-14
1.12819e-14
1.01896e-14
9.20831e-15
8.32731e-15
7.53698e-15
6.82873e-15
6.19489e-15
5.62858e-15
5.12369e-15
4.67481e-15
4.27712e-15
3.92638e-15
3.61885e-15
3.35128e-15
3.12086e-15
2.92523e-15
2.76241e-15
2.63107e-15
2.53193e-15
2.52341e-15
)
;
    }
    procBoundary0to2
    {
        type            processor;
        value           nonuniform List<scalar> 
180
(
-1.68454e-16
-2.57505e-16
-3.8827e-16
-5.34297e-16
-6.87944e-16
-8.47928e-16
-1.01497e-15
-1.19047e-15
-1.37612e-15
-1.57381e-15
-1.7856e-15
-2.01379e-15
-2.26087e-15
-2.52959e-15
-2.82299e-15
-3.14435e-15
-3.49728e-15
-3.88569e-15
-4.31384e-15
-4.78638e-15
-5.30834e-15
-5.8852e-15
-6.52292e-15
-7.22798e-15
-8.00746e-15
-8.8691e-15
-9.82135e-15
-1.08735e-14
-1.20357e-14
-1.33192e-14
-1.47364e-14
-1.63008e-14
-1.80275e-14
-1.9933e-14
-2.20358e-14
-2.4356e-14
-2.69161e-14
-2.97409e-14
-3.28577e-14
-3.62966e-14
-4.00909e-14
-4.42772e-14
-4.8896e-14
-5.39919e-14
-5.96139e-14
-6.58161e-14
-7.26585e-14
-8.02071e-14
-8.85336e-14
-9.77168e-14
-1.07844e-13
-1.19011e-13
-1.31324e-13
-1.449e-13
-1.59868e-13
-1.76372e-13
-1.9457e-13
-2.14636e-13
-2.36765e-13
-2.61173e-13
-2.88096e-13
-3.178e-13
-3.50579e-13
-3.86757e-13
-4.26698e-13
-4.70846e-13
-5.19714e-13
-5.73864e-13
-6.33947e-13
-7.00743e-13
-7.75155e-13
-8.58254e-13
-9.51317e-13
-1.05577e-12
-1.17257e-12
-1.29991e-12
-1.42647e-12
-1.52159e-12
-1.5202e-12
-1.385e-12
-1.91583e-13
1.151e-14
7.28873e-13
-1.69109e-14
-3.63565e-12
-4.44641e-12
-7.11117e-13
-4.56931e-12
1.44808e-13
9.51269e-12
1.38804e-11
1.06466e-11
1.40134e-11
1.91648e-11
2.79435e-12
-2.59886e-13
-9.39661e-12
-7.13511e-12
-8.22615e-12
-4.50038e-12
-5.28444e-12
-1.57798e-12
-9.99507e-14
1.74576e-13
-4.82463e-13
-1.97653e-13
-1.59862e-14
1.60318e-15
-1.36807e-14
-2.41051e-14
-2.76785e-14
-2.81702e-14
-2.78594e-14
-2.73034e-14
-2.66121e-14
-2.58222e-14
-2.4957e-14
-2.40346e-14
-2.30705e-14
-2.20779e-14
-2.10667e-14
-2.00405e-14
-1.90046e-14
-1.78064e-14
-1.62586e-14
-1.5864e-14
-1.51075e-14
-1.42897e-14
-1.34927e-14
-1.27321e-14
-1.16078e-14
-1.06799e-14
-9.89616e-15
-9.13544e-15
-8.44681e-15
-7.81236e-15
-7.22258e-15
-6.67226e-15
-6.15696e-15
-5.67232e-15
-5.21819e-15
-4.7941e-15
-4.39922e-15
-4.03247e-15
-3.69265e-15
-3.37842e-15
-3.08839e-15
-2.82117e-15
-2.57536e-15
-2.34957e-15
-2.14243e-15
-1.95261e-15
-1.7788e-15
-1.61976e-15
-1.47431e-15
-1.34133e-15
-1.21974e-15
-1.1085e-15
-1.00666e-15
-9.13426e-16
-8.28046e-16
-7.49934e-16
-6.78553e-16
-6.13148e-16
-5.53349e-16
-4.99595e-16
-4.52028e-16
-4.10131e-16
-3.73367e-16
-3.41214e-16
-3.13084e-16
-2.8839e-16
-2.66626e-16
-2.47349e-16
-2.30151e-16
-2.14612e-16
-2.0026e-16
-1.86858e-16
-1.75242e-16
-1.57521e-16
)
;
    }
}


// ************************************************************************* //
