/*--------------------------------*- C++ -*----------------------------------*\
| =========                 |                                                 |
| \\      /  F ield         | OpenFOAM: The Open Source CFD Toolbox           |
|  \\    /   O peration     | Version:  5.x                                   |
|   \\  /    A nd           | Web:      www.OpenFOAM.org                      |
|    \\/     M anipulation  |                                                 |
\*---------------------------------------------------------------------------*/
FoamFile
{
    version     2.0;
    format      ascii;
    class       volVectorField;
    location    "0.004";
    object      stored_U;
}
// * * * * * * * * * * * * * * * * * * * * * * * * * * * * * * * * * * * * * //

dimensions      [0 1 -1 0 0 0 0];

internalField   nonuniform List<vector> 
180
(
(9.48806e-10 -5.76163e-09 -0.000999948)
(9.305e-10 -8.74862e-09 -0.000999948)
(1.09523e-09 -1.32104e-08 -0.000999947)
(1.39376e-09 -1.83141e-08 -0.000999945)
(1.75226e-09 -2.37641e-08 -0.000999942)
(2.13855e-09 -2.95051e-08 -0.000999939)
(2.5427e-09 -3.55686e-08 -0.000999936)
(2.96336e-09 -4.2012e-08 -0.000999932)
(3.40151e-09 -4.89029e-08 -0.000999927)
(3.85862e-09 -5.63147e-08 -0.000999922)
(4.3363e-09 -6.43268e-08 -0.000999916)
(4.83634e-09 -7.30251e-08 -0.000999909)
(5.36087e-09 -8.25025e-08 -0.000999902)
(5.91253e-09 -9.28599e-08 -0.000999893)
(6.49461e-09 -1.04207e-07 -0.000999883)
(7.11122e-09 -1.16663e-07 -0.000999872)
(7.76743e-09 -1.30358e-07 -0.00099986)
(8.46937e-09 -1.45436e-07 -0.000999847)
(9.2244e-09 -1.62053e-07 -0.000999831)
(1.00412e-08 -1.80379e-07 -0.000999815)
(1.09299e-08 -2.00604e-07 -0.000999796)
(1.1902e-08 -2.22934e-07 -0.000999775)
(1.2971e-08 -2.47599e-07 -0.000999751)
(1.4152e-08 -2.7485e-07 -0.000999725)
(1.5462e-08 -3.04964e-07 -0.000999696)
(1.69205e-08 -3.38248e-07 -0.000999664)
(1.85489e-08 -3.75041e-07 -0.000999629)
(2.0372e-08 -4.15716e-07 -0.000999589)
(2.2417e-08 -4.60686e-07 -0.000999546)
(2.47154e-08 -5.10408e-07 -0.000999497)
(2.73026e-08 -5.65385e-07 -0.000999443)
(3.02194e-08 -6.26174e-07 -0.000999384)
(3.35113e-08 -6.93388e-07 -0.000999318)
(3.72289e-08 -7.67706e-07 -0.000999246)
(4.14283e-08 -8.49878e-07 -0.000999165)
(4.61725e-08 -9.40733e-07 -0.000999076)
(5.15322e-08 -1.04118e-06 -0.000998978)
(5.75875e-08 -1.15224e-06 -0.000998869)
(6.44291e-08 -1.27501e-06 -0.000998749)
(7.21598e-08 -1.41073e-06 -0.000998617)
(8.08972e-08 -1.56075e-06 -0.00099847)
(9.07764e-08 -1.72656e-06 -0.000998309)
(1.01953e-07 -1.90981e-06 -0.000998131)
(1.14607e-07 -2.11231e-06 -0.000997934)
(1.28947e-07 -2.33606e-06 -0.000997718)
(1.45219e-07 -2.58328e-06 -0.000997479)
(1.63711e-07 -2.85638e-06 -0.000997217)
(1.84762e-07 -3.15807e-06 -0.000996928)
(2.08774e-07 -3.49125e-06 -0.000996611)
(2.36231e-07 -3.85913e-06 -0.000996262)
(2.67653e-07 -4.26525e-06 -0.000995878)
(3.03627e-07 -4.71348e-06 -0.000995455)
(3.44832e-07 -5.20811e-06 -0.000994991)
(3.9205e-07 -5.75382e-06 -0.00099448)
(4.46183e-07 -6.35576e-06 -0.000993919)
(5.08265e-07 -7.01959e-06 -0.000993303)
(5.79486e-07 -7.75151e-06 -0.000992626)
(6.61203e-07 -8.55832e-06 -0.000991882)
(7.54972e-07 -9.4475e-06 -0.000991066)
(8.62565e-07 -1.04272e-05 -0.00099017)
(9.86003e-07 -1.15065e-05 -0.000989187)
(1.12759e-06 -1.26951e-05 -0.000988109)
(1.28993e-06 -1.40039e-05 -0.000986927)
(1.47602e-06 -1.54447e-05 -0.000985631)
(1.6892e-06 -1.70304e-05 -0.000984211)
(1.93332e-06 -1.87752e-05 -0.000982656)
(2.21268e-06 -2.06946e-05 -0.000980954)
(2.53215e-06 -2.28057e-05 -0.00097909)
(2.89717e-06 -2.51272e-05 -0.000977048)
(3.31374e-06 -2.76796e-05 -0.000974812)
(3.78846e-06 -3.04855e-05 -0.000972364)
(4.32854e-06 -3.35698e-05 -0.000969679)
(4.94125e-06 -3.69587e-05 -0.000966691)
(5.63205e-06 -4.06748e-05 -0.000963298)
(6.39857e-06 -4.47097e-05 -0.000959714)
(7.21543e-06 -4.89305e-05 -0.00095734)
(7.99848e-06 -5.27942e-05 -0.000957381)
(8.59832e-06 -5.48035e-05 -0.000946333)
(8.83854e-06 -5.13548e-05 -0.000894607)
(8.89908e-06 -3.69687e-05 -0.000747771)
(1.09774e-05 1.63106e-07 -0.00291845)
(6.50228e-06 -2.22802e-07 1.42559e-06)
(0.000166803 4.20942e-05 -0.00343443)
(-1.74402e-06 -1.03754e-06 -4.78829e-05)
(-0.000457612 -0.00025978 -0.00286421)
(-0.000528929 -0.000286663 -0.00276296)
(-5.0748e-05 -4.34863e-05 -0.00050344)
(-0.000122052 -0.000153571 -0.00500699)
(-4.90144e-06 -8.3918e-06 -0.000168079)
(0.000295871 0.00028858 -0.00436549)
(0.000220514 0.000432419 -0.0018)
(6.90111e-05 0.000919537 -0.00338737)
(1.04609e-05 5.77545e-05 -0.000258782)
(-0.000169338 0.00137798 -0.00323747)
(-0.000190535 0.000394547 -0.00299227)
(-5.91986e-05 -1.80063e-05 -0.00106714)
(-0.000474425 -0.00106909 -0.00376076)
(-6.51498e-05 -0.000119841 -0.000739213)
(-0.00017506 -0.000394553 -0.00377181)
(-0.000106838 -0.000165965 -0.00177185)
(-0.000236196 -0.000174604 -0.00291583)
(-0.000130897 -7.8538e-05 -0.00246895)
(-2.30026e-05 -1.18935e-05 -0.00157723)
(4.58841e-06 1.56801e-05 -0.00175845)
(1.37748e-05 -1.31315e-05 -0.000794335)
(7.50804e-05 6.49148e-07 -0.000961575)
(9.95742e-05 7.51632e-06 -0.000879751)
(0.000102133 7.71467e-06 -0.000883089)
(9.56762e-05 6.22424e-06 -0.000899236)
(8.70113e-05 4.96245e-06 -0.000911395)
(7.84495e-05 4.05189e-06 -0.000920452)
(7.0573e-05 3.34287e-06 -0.000928418)
(6.34558e-05 2.7548e-06 -0.000935698)
(5.70519e-05 2.25777e-06 -0.000942271)
(5.12949e-05 1.83707e-06 -0.000948169)
(4.61202e-05 1.48174e-06 -0.00095346)
(4.14691e-05 1.18249e-06 -0.000958209)
(3.72883e-05 9.31351e-07 -0.000962472)
(3.35302e-05 7.21428e-07 -0.000966299)
(3.0152e-05 5.46751e-07 -0.000969734)
(2.71151e-05 4.02151e-07 -0.000972818)
(2.4385e-05 2.83157e-07 -0.000975586)
(2.19307e-05 1.85899e-07 -0.000978071)
(1.97241e-05 1.07014e-07 -0.000980301)
(1.77403e-05 4.35718e-08 -0.000982303)
(1.59565e-05 -6.92391e-09 -0.0009841)
(1.43526e-05 -4.66044e-08 -0.000985713)
(1.29103e-05 -7.7286e-08 -0.000987162)
(1.16133e-05 -1.00535e-07 -0.000988462)
(1.04469e-05 -1.17714e-07 -0.000989629)
(9.39778e-06 -1.30001e-07 -0.000990678)
(8.45426e-06 -1.38116e-07 -0.000991621)
(7.60569e-06 -1.42774e-07 -0.000992469)
(6.84249e-06 -1.44636e-07 -0.000993232)
(6.15606e-06 -1.44254e-07 -0.000993916)
(5.53866e-06 -1.42099e-07 -0.000994532)
(4.98333e-06 -1.38574e-07 -0.000995084)
(4.4838e-06 -1.3402e-07 -0.000995581)
(4.03445e-06 -1.28719e-07 -0.000996027)
(3.63023e-06 -1.22906e-07 -0.000996428)
(3.26659e-06 -1.16769e-07 -0.000996788)
(2.93944e-06 -1.10462e-07 -0.000997112)
(2.64511e-06 -1.04106e-07 -0.000997403)
(2.38029e-06 -9.77986e-08 -0.000997664)
(2.14204e-06 -9.16136e-08 -0.0009979)
(1.92766e-06 -8.56078e-08 -0.000998111)
(1.73478e-06 -7.98228e-08 -0.000998301)
(1.56123e-06 -7.42878e-08 -0.000998472)
(1.40508e-06 -6.90224e-08 -0.000998626)
(1.26459e-06 -6.40374e-08 -0.000998764)
(1.13818e-06 -5.93372e-08 -0.000998889)
(1.02447e-06 -5.49211e-08 -0.000999001)
(9.22166e-07 -5.07847e-08 -0.000999102)
(8.30148e-07 -4.69201e-08 -0.000999193)
(7.4739e-07 -4.33178e-08 -0.000999275)
(6.72971e-07 -3.99668e-08 -0.000999348)
(6.06064e-07 -3.68551e-08 -0.000999415)
(5.45924e-07 -3.39704e-08 -0.000999475)
(4.91884e-07 -3.12999e-08 -0.000999529)
(4.4334e-07 -2.8831e-08 -0.000999578)
(3.99751e-07 -2.65514e-08 -0.000999621)
(3.60632e-07 -2.44488e-08 -0.000999661)
(3.25545e-07 -2.25114e-08 -0.000999697)
(2.94099e-07 -2.07281e-08 -0.000999729)
(2.65942e-07 -1.90877e-08 -0.000999758)
(2.4076e-07 -1.75797e-08 -0.000999784)
(2.1827e-07 -1.61939e-08 -0.000999808)
(1.98221e-07 -1.49215e-08 -0.00099983)
(1.80388e-07 -1.3754e-08 -0.000999849)
(1.64573e-07 -1.26837e-08 -0.000999867)
(1.50597e-07 -1.17037e-08 -0.000999884)
(1.38304e-07 -1.0807e-08 -0.000999898)
(1.27557e-07 -9.98715e-09 -0.000999912)
(1.18236e-07 -9.23787e-09 -0.000999925)
(1.10237e-07 -8.55233e-09 -0.000999936)
(1.03474e-07 -7.92165e-09 -0.000999947)
(9.78769e-08 -7.33335e-09 -0.000999957)
(9.34071e-08 -6.78247e-09 -0.000999967)
(9.01154e-08 -6.30259e-09 -0.000999977)
(8.82925e-08 -5.9998e-09 -0.000999985)
)
;

boundaryField
{
    inlet
    {
        type            calculated;
        value           uniform (8.82925e-08 -5.9998e-09 -0.000999985);
    }
    outlet
    {
        type            calculated;
        value           uniform (9.48806e-10 -5.76163e-09 -0.000999948);
    }
    repeat_boundary
    {
        type            calculated;
        value           nonuniform List<vector> 
360
(
(9.48806e-10 0 -0.000999948)
(9.305e-10 0 -0.000999948)
(1.09523e-09 0 -0.000999947)
(1.39376e-09 0 -0.000999945)
(1.75226e-09 0 -0.000999942)
(2.13855e-09 0 -0.000999939)
(2.5427e-09 0 -0.000999936)
(2.96336e-09 0 -0.000999932)
(3.40151e-09 0 -0.000999927)
(3.85862e-09 0 -0.000999922)
(4.3363e-09 0 -0.000999916)
(4.83634e-09 0 -0.000999909)
(5.36087e-09 0 -0.000999902)
(5.91253e-09 0 -0.000999893)
(6.49461e-09 0 -0.000999883)
(7.11122e-09 0 -0.000999872)
(7.76743e-09 0 -0.00099986)
(8.46937e-09 0 -0.000999847)
(9.2244e-09 0 -0.000999831)
(1.00412e-08 0 -0.000999815)
(1.09299e-08 0 -0.000999796)
(1.1902e-08 0 -0.000999775)
(1.2971e-08 0 -0.000999751)
(1.4152e-08 0 -0.000999725)
(1.5462e-08 0 -0.000999696)
(1.69205e-08 0 -0.000999664)
(1.85489e-08 0 -0.000999629)
(2.0372e-08 0 -0.000999589)
(2.2417e-08 0 -0.000999546)
(2.47154e-08 0 -0.000999497)
(2.73026e-08 0 -0.000999443)
(3.02194e-08 0 -0.000999384)
(3.35113e-08 0 -0.000999318)
(3.72289e-08 0 -0.000999246)
(4.14283e-08 0 -0.000999165)
(4.61725e-08 0 -0.000999076)
(5.15322e-08 0 -0.000998978)
(5.75875e-08 0 -0.000998869)
(6.44291e-08 0 -0.000998749)
(7.21598e-08 0 -0.000998617)
(8.08972e-08 0 -0.00099847)
(9.07764e-08 0 -0.000998309)
(1.01953e-07 0 -0.000998131)
(1.14607e-07 0 -0.000997934)
(1.28947e-07 0 -0.000997718)
(1.45219e-07 0 -0.000997479)
(1.63711e-07 0 -0.000997217)
(1.84762e-07 0 -0.000996928)
(2.08774e-07 0 -0.000996611)
(2.36231e-07 0 -0.000996262)
(2.67653e-07 0 -0.000995878)
(3.03627e-07 0 -0.000995455)
(3.44832e-07 0 -0.000994991)
(3.9205e-07 0 -0.00099448)
(4.46183e-07 0 -0.000993919)
(5.08265e-07 0 -0.000993303)
(5.79486e-07 0 -0.000992626)
(6.61203e-07 0 -0.000991882)
(7.54972e-07 0 -0.000991066)
(8.62565e-07 0 -0.00099017)
(9.86003e-07 0 -0.000989187)
(1.12759e-06 0 -0.000988109)
(1.28993e-06 0 -0.000986927)
(1.47602e-06 0 -0.000985631)
(1.6892e-06 0 -0.000984211)
(1.93332e-06 0 -0.000982656)
(2.21268e-06 0 -0.000980954)
(2.53215e-06 0 -0.00097909)
(2.89717e-06 0 -0.000977048)
(3.31374e-06 0 -0.000974812)
(3.78846e-06 0 -0.000972364)
(4.32854e-06 0 -0.000969679)
(4.94125e-06 0 -0.000966691)
(5.63205e-06 0 -0.000963298)
(6.39857e-06 0 -0.000959714)
(7.21543e-06 0 -0.00095734)
(7.99848e-06 0 -0.000957381)
(8.59832e-06 0 -0.000946333)
(8.83854e-06 0 -0.000894607)
(8.89908e-06 0 -0.000747771)
(1.09774e-05 0 -0.00291845)
(6.50228e-06 0 1.42559e-06)
(0.000166803 0 -0.00343443)
(-1.74402e-06 0 -4.78829e-05)
(-0.000457612 0 -0.00286421)
(-0.000528929 0 -0.00276296)
(-5.0748e-05 0 -0.00050344)
(-0.000122052 0 -0.00500699)
(-4.90144e-06 0 -0.000168079)
(0.000295871 0 -0.00436549)
(0.000220514 0 -0.0018)
(6.90111e-05 0 -0.00338737)
(1.04609e-05 0 -0.000258782)
(-0.000169338 0 -0.00323747)
(-0.000190535 0 -0.00299227)
(-5.91986e-05 0 -0.00106714)
(-0.000474425 0 -0.00376076)
(-6.51498e-05 0 -0.000739213)
(-0.00017506 0 -0.00377181)
(-0.000106838 0 -0.00177185)
(-0.000236196 0 -0.00291583)
(-0.000130897 0 -0.00246895)
(-2.30026e-05 0 -0.00157723)
(4.58841e-06 0 -0.00175845)
(1.37748e-05 0 -0.000794335)
(7.50804e-05 0 -0.000961575)
(9.95742e-05 0 -0.000879751)
(0.000102133 0 -0.000883089)
(9.56762e-05 0 -0.000899236)
(8.70113e-05 0 -0.000911395)
(7.84495e-05 0 -0.000920452)
(7.0573e-05 0 -0.000928418)
(6.34558e-05 0 -0.000935698)
(5.70519e-05 0 -0.000942271)
(5.12949e-05 0 -0.000948169)
(4.61202e-05 0 -0.00095346)
(4.14691e-05 0 -0.000958209)
(3.72883e-05 0 -0.000962472)
(3.35302e-05 0 -0.000966299)
(3.0152e-05 0 -0.000969734)
(2.71151e-05 0 -0.000972818)
(2.4385e-05 0 -0.000975586)
(2.19307e-05 0 -0.000978071)
(1.97241e-05 0 -0.000980301)
(1.77403e-05 0 -0.000982303)
(1.59565e-05 0 -0.0009841)
(1.43526e-05 0 -0.000985713)
(1.29103e-05 0 -0.000987162)
(1.16133e-05 0 -0.000988462)
(1.04469e-05 0 -0.000989629)
(9.39778e-06 0 -0.000990678)
(8.45426e-06 0 -0.000991621)
(7.60569e-06 0 -0.000992469)
(6.84249e-06 0 -0.000993232)
(6.15606e-06 0 -0.000993916)
(5.53866e-06 0 -0.000994532)
(4.98333e-06 0 -0.000995084)
(4.4838e-06 0 -0.000995581)
(4.03445e-06 0 -0.000996027)
(3.63023e-06 0 -0.000996428)
(3.26659e-06 0 -0.000996788)
(2.93944e-06 0 -0.000997112)
(2.64511e-06 0 -0.000997403)
(2.38029e-06 0 -0.000997664)
(2.14204e-06 0 -0.0009979)
(1.92766e-06 0 -0.000998111)
(1.73478e-06 0 -0.000998301)
(1.56123e-06 0 -0.000998472)
(1.40508e-06 0 -0.000998626)
(1.26459e-06 0 -0.000998764)
(1.13818e-06 0 -0.000998889)
(1.02447e-06 0 -0.000999001)
(9.22166e-07 0 -0.000999102)
(8.30148e-07 0 -0.000999193)
(7.4739e-07 0 -0.000999275)
(6.72971e-07 0 -0.000999348)
(6.06064e-07 0 -0.000999415)
(5.45924e-07 0 -0.000999475)
(4.91884e-07 0 -0.000999529)
(4.4334e-07 0 -0.000999578)
(3.99751e-07 0 -0.000999621)
(3.60632e-07 0 -0.000999661)
(3.25545e-07 0 -0.000999697)
(2.94099e-07 0 -0.000999729)
(2.65942e-07 0 -0.000999758)
(2.4076e-07 0 -0.000999784)
(2.1827e-07 0 -0.000999808)
(1.98221e-07 0 -0.00099983)
(1.80388e-07 0 -0.000999849)
(1.64573e-07 0 -0.000999867)
(1.50597e-07 0 -0.000999884)
(1.38304e-07 0 -0.000999898)
(1.27557e-07 0 -0.000999912)
(1.18236e-07 0 -0.000999925)
(1.10237e-07 0 -0.000999936)
(1.03474e-07 0 -0.000999947)
(9.78769e-08 0 -0.000999957)
(9.34071e-08 0 -0.000999967)
(9.01154e-08 0 -0.000999977)
(8.82925e-08 0 -0.000999985)
(0 -5.76163e-09 -0.000999948)
(0 -8.74862e-09 -0.000999948)
(0 -1.32104e-08 -0.000999947)
(0 -1.83141e-08 -0.000999945)
(0 -2.37641e-08 -0.000999942)
(0 -2.95051e-08 -0.000999939)
(0 -3.55686e-08 -0.000999936)
(0 -4.2012e-08 -0.000999932)
(0 -4.89029e-08 -0.000999927)
(0 -5.63147e-08 -0.000999922)
(0 -6.43268e-08 -0.000999916)
(0 -7.30251e-08 -0.000999909)
(0 -8.25025e-08 -0.000999902)
(0 -9.28599e-08 -0.000999893)
(0 -1.04207e-07 -0.000999883)
(0 -1.16663e-07 -0.000999872)
(0 -1.30358e-07 -0.00099986)
(0 -1.45436e-07 -0.000999847)
(0 -1.62053e-07 -0.000999831)
(0 -1.80379e-07 -0.000999815)
(0 -2.00604e-07 -0.000999796)
(0 -2.22934e-07 -0.000999775)
(0 -2.47599e-07 -0.000999751)
(0 -2.7485e-07 -0.000999725)
(0 -3.04964e-07 -0.000999696)
(0 -3.38248e-07 -0.000999664)
(0 -3.75041e-07 -0.000999629)
(0 -4.15716e-07 -0.000999589)
(0 -4.60686e-07 -0.000999546)
(0 -5.10408e-07 -0.000999497)
(0 -5.65385e-07 -0.000999443)
(0 -6.26174e-07 -0.000999384)
(0 -6.93388e-07 -0.000999318)
(0 -7.67706e-07 -0.000999246)
(0 -8.49878e-07 -0.000999165)
(0 -9.40733e-07 -0.000999076)
(0 -1.04118e-06 -0.000998978)
(0 -1.15224e-06 -0.000998869)
(0 -1.27501e-06 -0.000998749)
(0 -1.41073e-06 -0.000998617)
(0 -1.56075e-06 -0.00099847)
(0 -1.72656e-06 -0.000998309)
(0 -1.90981e-06 -0.000998131)
(0 -2.11231e-06 -0.000997934)
(0 -2.33606e-06 -0.000997718)
(0 -2.58328e-06 -0.000997479)
(0 -2.85638e-06 -0.000997217)
(0 -3.15807e-06 -0.000996928)
(0 -3.49125e-06 -0.000996611)
(0 -3.85913e-06 -0.000996262)
(0 -4.26525e-06 -0.000995878)
(0 -4.71348e-06 -0.000995455)
(0 -5.20811e-06 -0.000994991)
(0 -5.75382e-06 -0.00099448)
(0 -6.35576e-06 -0.000993919)
(0 -7.01959e-06 -0.000993303)
(0 -7.75151e-06 -0.000992626)
(0 -8.55832e-06 -0.000991882)
(0 -9.4475e-06 -0.000991066)
(0 -1.04272e-05 -0.00099017)
(0 -1.15065e-05 -0.000989187)
(0 -1.26951e-05 -0.000988109)
(0 -1.40039e-05 -0.000986927)
(0 -1.54447e-05 -0.000985631)
(0 -1.70304e-05 -0.000984211)
(0 -1.87752e-05 -0.000982656)
(0 -2.06946e-05 -0.000980954)
(0 -2.28057e-05 -0.00097909)
(0 -2.51272e-05 -0.000977048)
(0 -2.76796e-05 -0.000974812)
(0 -3.04855e-05 -0.000972364)
(0 -3.35698e-05 -0.000969679)
(0 -3.69587e-05 -0.000966691)
(0 -4.06748e-05 -0.000963298)
(0 -4.47097e-05 -0.000959714)
(0 -4.89305e-05 -0.00095734)
(0 -5.27942e-05 -0.000957381)
(0 -5.48035e-05 -0.000946333)
(0 -5.13548e-05 -0.000894607)
(0 -3.69687e-05 -0.000747771)
(0 1.63106e-07 -0.00291845)
(0 -2.22802e-07 1.42559e-06)
(0 4.20942e-05 -0.00343443)
(0 -1.03754e-06 -4.78829e-05)
(0 -0.00025978 -0.00286421)
(0 -0.000286663 -0.00276296)
(0 -4.34863e-05 -0.00050344)
(0 -0.000153571 -0.00500699)
(0 -8.3918e-06 -0.000168079)
(0 0.00028858 -0.00436549)
(0 0.000432419 -0.0018)
(0 0.000919537 -0.00338737)
(0 5.77545e-05 -0.000258782)
(0 0.00137798 -0.00323747)
(0 0.000394547 -0.00299227)
(0 -1.80063e-05 -0.00106714)
(0 -0.00106909 -0.00376076)
(0 -0.000119841 -0.000739213)
(0 -0.000394553 -0.00377181)
(0 -0.000165965 -0.00177185)
(0 -0.000174604 -0.00291583)
(0 -7.8538e-05 -0.00246895)
(0 -1.18935e-05 -0.00157723)
(0 1.56801e-05 -0.00175845)
(0 -1.31315e-05 -0.000794335)
(0 6.49148e-07 -0.000961575)
(0 7.51632e-06 -0.000879751)
(0 7.71467e-06 -0.000883089)
(0 6.22424e-06 -0.000899236)
(0 4.96245e-06 -0.000911395)
(0 4.05189e-06 -0.000920452)
(0 3.34287e-06 -0.000928418)
(0 2.7548e-06 -0.000935698)
(0 2.25777e-06 -0.000942271)
(0 1.83707e-06 -0.000948169)
(0 1.48174e-06 -0.00095346)
(0 1.18249e-06 -0.000958209)
(0 9.31351e-07 -0.000962472)
(0 7.21428e-07 -0.000966299)
(0 5.46751e-07 -0.000969734)
(0 4.02151e-07 -0.000972818)
(0 2.83157e-07 -0.000975586)
(0 1.85899e-07 -0.000978071)
(0 1.07014e-07 -0.000980301)
(0 4.35718e-08 -0.000982303)
(0 -6.92391e-09 -0.0009841)
(0 -4.66044e-08 -0.000985713)
(0 -7.7286e-08 -0.000987162)
(0 -1.00535e-07 -0.000988462)
(0 -1.17714e-07 -0.000989629)
(0 -1.30001e-07 -0.000990678)
(0 -1.38116e-07 -0.000991621)
(0 -1.42774e-07 -0.000992469)
(0 -1.44636e-07 -0.000993232)
(0 -1.44254e-07 -0.000993916)
(0 -1.42099e-07 -0.000994532)
(0 -1.38574e-07 -0.000995084)
(0 -1.3402e-07 -0.000995581)
(0 -1.28719e-07 -0.000996027)
(0 -1.22906e-07 -0.000996428)
(0 -1.16769e-07 -0.000996788)
(0 -1.10462e-07 -0.000997112)
(0 -1.04106e-07 -0.000997403)
(0 -9.77986e-08 -0.000997664)
(0 -9.16136e-08 -0.0009979)
(0 -8.56078e-08 -0.000998111)
(0 -7.98228e-08 -0.000998301)
(0 -7.42878e-08 -0.000998472)
(0 -6.90224e-08 -0.000998626)
(0 -6.40374e-08 -0.000998764)
(0 -5.93372e-08 -0.000998889)
(0 -5.49211e-08 -0.000999001)
(0 -5.07847e-08 -0.000999102)
(0 -4.69201e-08 -0.000999193)
(0 -4.33178e-08 -0.000999275)
(0 -3.99668e-08 -0.000999348)
(0 -3.68551e-08 -0.000999415)
(0 -3.39704e-08 -0.000999475)
(0 -3.12999e-08 -0.000999529)
(0 -2.8831e-08 -0.000999578)
(0 -2.65514e-08 -0.000999621)
(0 -2.44488e-08 -0.000999661)
(0 -2.25114e-08 -0.000999697)
(0 -2.07281e-08 -0.000999729)
(0 -1.90877e-08 -0.000999758)
(0 -1.75797e-08 -0.000999784)
(0 -1.61939e-08 -0.000999808)
(0 -1.49215e-08 -0.00099983)
(0 -1.3754e-08 -0.000999849)
(0 -1.26837e-08 -0.000999867)
(0 -1.17037e-08 -0.000999884)
(0 -1.0807e-08 -0.000999898)
(0 -9.98715e-09 -0.000999912)
(0 -9.23787e-09 -0.000999925)
(0 -8.55233e-09 -0.000999936)
(0 -7.92165e-09 -0.000999947)
(0 -7.33335e-09 -0.000999957)
(0 -6.78247e-09 -0.000999967)
(0 -6.30259e-09 -0.000999977)
(0 -5.9998e-09 -0.000999985)
)
;
    }
    procBoundary0to1
    {
        type            processor;
        value           nonuniform List<vector> 
180
(
(9.48808e-10 -5.76296e-09 -0.000999941)
(9.30495e-10 -8.74667e-09 -0.00099994)
(1.09522e-09 -1.32005e-08 -0.000999939)
(1.39376e-09 -1.8298e-08 -0.000999937)
(1.75225e-09 -2.37455e-08 -0.000999934)
(2.13855e-09 -2.94948e-08 -0.000999931)
(2.5427e-09 -3.55792e-08 -0.000999927)
(2.96336e-09 -4.20565e-08 -0.000999923)
(3.4015e-09 -4.89935e-08 -0.000999918)
(3.85862e-09 -5.64623e-08 -0.000999912)
(4.3363e-09 -6.45401e-08 -0.000999906)
(4.83634e-09 -7.33107e-08 -0.000999898)
(5.36087e-09 -8.28646e-08 -0.00099989)
(5.91253e-09 -9.33008e-08 -0.000999881)
(6.49461e-09 -1.04728e-07 -0.000999871)
(7.11121e-09 -1.17264e-07 -0.000999859)
(7.76742e-09 -1.3104e-07 -0.000999846)
(8.46936e-09 -1.46201e-07 -0.000999831)
(9.22438e-09 -1.62905e-07 -0.000999815)
(1.00412e-08 -1.81329e-07 -0.000999796)
(1.09298e-08 -2.01665e-07 -0.000999776)
(1.1902e-08 -2.24129e-07 -0.000999753)
(1.2971e-08 -2.48958e-07 -0.000999727)
(1.4152e-08 -2.76413e-07 -0.000999698)
(1.5462e-08 -3.06783e-07 -0.000999667)
(1.69204e-08 -3.40389e-07 -0.000999631)
(1.85489e-08 -3.77584e-07 -0.000999592)
(2.03719e-08 -4.18758e-07 -0.000999548)
(2.24169e-08 -4.64345e-07 -0.000999499)
(2.47152e-08 -5.14821e-07 -0.000999445)
(2.73024e-08 -5.70716e-07 -0.000999385)
(3.02191e-08 -6.32614e-07 -0.000999318)
(3.3511e-08 -7.01163e-07 -0.000999244)
(3.72285e-08 -7.77079e-07 -0.000999161)
(4.14279e-08 -8.61154e-07 -0.00099907)
(4.61719e-08 -9.54264e-07 -0.000998969)
(5.15315e-08 -1.05738e-06 -0.000998857)
(5.75867e-08 -1.17157e-06 -0.000998733)
(6.4428e-08 -1.29804e-06 -0.000998595)
(7.21585e-08 -1.43808e-06 -0.000998442)
(8.08957e-08 -1.59317e-06 -0.000998274)
(9.07745e-08 -1.76491e-06 -0.000998087)
(1.0195e-07 -1.9551e-06 -0.000997879)
(1.14604e-07 -2.1657e-06 -0.00099765)
(1.28944e-07 -2.39893e-06 -0.000997396)
(1.45215e-07 -2.65719e-06 -0.000997114)
(1.63706e-07 -2.94318e-06 -0.000996802)
(1.84755e-07 -3.25985e-06 -0.000996456)
(2.08766e-07 -3.61054e-06 -0.000996072)
(2.36222e-07 -3.99893e-06 -0.000995646)
(2.67641e-07 -4.4291e-06 -0.000995174)
(3.03613e-07 -4.90558e-06 -0.000994651)
(3.44814e-07 -5.43336e-06 -0.00099407)
(3.92028e-07 -6.01801e-06 -0.000993427)
(4.46155e-07 -6.66569e-06 -0.000992713)
(5.08231e-07 -7.3832e-06 -0.00099192)
(5.79445e-07 -8.17812e-06 -0.000991042)
(6.61153e-07 -9.05883e-06 -0.000990067)
(7.5491e-07 -1.00346e-05 -0.000988985)
(8.62488e-07 -1.11157e-05 -0.000987785)
(9.85909e-07 -1.23136e-05 -0.000986454)
(1.12747e-06 -1.36408e-05 -0.000984977)
(1.28979e-06 -1.51112e-05 -0.00098334)
(1.47584e-06 -1.67404e-05 -0.000981524)
(1.68899e-06 -1.85452e-05 -0.000979512)
(1.93305e-06 -2.05445e-05 -0.000977281)
(2.21234e-06 -2.27592e-05 -0.00097481)
(2.53173e-06 -2.52121e-05 -0.000972071)
(2.89666e-06 -2.79287e-05 -0.00096904)
(3.3131e-06 -3.09366e-05 -0.000965685)
(3.78761e-06 -3.42666e-05 -0.000961976)
(4.32714e-06 -3.79519e-05 -0.000957876)
(4.93778e-06 -4.20275e-05 -0.000953311)
(5.61934e-06 -4.65222e-05 -0.000948173)
(6.3464e-06 -5.14299e-05 -0.000942646)
(7.01138e-06 -5.66109e-05 -0.000938069)
(7.29121e-06 -6.14853e-05 -0.00093578)
(6.47384e-06 -6.41976e-05 -0.000924024)
(3.6083e-06 -5.99983e-05 -0.000872383)
(-5.3868e-07 -4.14111e-05 -0.000682228)
(-7.79518e-07 2.0774e-07 -0.00258007)
(-1.58649e-05 2.64887e-06 -1.5092e-05)
(0.000168463 -0.000244506 -0.00262005)
(4.81877e-05 -7.38667e-05 -0.00336869)
(-4.02529e-05 1.08655e-05 -0.000628293)
(-0.000559352 0.000286264 -0.00441914)
(-4.25239e-05 9.45655e-07 -0.000183145)
(-0.000288799 0.00028144 -0.00322401)
(6.39153e-05 -0.000113977 -0.00170413)
(0.000326509 -0.000150191 -0.00371967)
(7.87588e-05 6.84575e-06 -0.00152222)
(2.32132e-05 5.33096e-05 -0.00416199)
(-1.87435e-05 7.73145e-05 -0.000965213)
(-0.000155786 0.000588993 -0.00414499)
(5.07463e-06 2.03524e-05 -0.000101144)
(-0.000270816 0.000515833 -0.00436881)
(-0.000141795 0.000208662 -0.00174513)
(-0.000213007 0.000262729 -0.00218817)
(-0.000207428 0.000330703 -0.00366359)
(-7.38308e-05 -3.49481e-05 -0.00184866)
(-0.000250881 -5.58969e-05 -0.00290376)
(-0.000406544 -7.72342e-05 -0.00252312)
(-0.000107689 -5.21367e-05 -0.0017865)
(4.84857e-06 -2.87432e-05 -0.00171486)
(4.37985e-05 -1.6604e-05 -0.00137879)
(8.96266e-05 -1.16283e-05 -0.00123637)
(0.000105061 -1.50078e-05 -0.0011358)
(0.000103624 -1.74364e-05 -0.00111508)
(9.59473e-05 -1.73299e-05 -0.00110941)
(8.69956e-05 -1.59596e-05 -0.00110048)
(7.83879e-05 -1.43074e-05 -0.00109033)
(7.05151e-05 -1.273e-05 -0.00108107)
(6.34085e-05 -1.13053e-05 -0.00107288)
(5.70142e-05 -1.00355e-05 -0.00106557)
(5.1265e-05 -8.90767e-06 -0.00105898)
(4.60965e-05 -7.90696e-06 -0.00105306)
(4.14502e-05 -7.01921e-06 -0.00104773)
(3.72733e-05 -6.23166e-06 -0.00104293)
(3.35183e-05 -5.53297e-06 -0.00103862)
(3.01425e-05 -4.91309e-06 -0.00103474)
(2.71076e-05 -4.36311e-06 -0.00103126)
(2.43791e-05 -3.87513e-06 -0.00102812)
(2.19259e-05 -3.44214e-06 -0.00102529)
(1.97203e-05 -3.05792e-06 -0.00102276)
(1.77372e-05 -2.71696e-06 -0.00102047)
(1.59541e-05 -2.41438e-06 -0.00101842)
(1.43506e-05 -2.14583e-06 -0.00101657)
(1.29087e-05 -1.90747e-06 -0.00101491)
(1.16121e-05 -1.6959e-06 -0.00101341)
(1.04459e-05 -1.50807e-06 -0.00101206)
(9.39699e-06 -1.34131e-06 -0.00101085)
(8.45363e-06 -1.19323e-06 -0.00100977)
(7.60518e-06 -1.06171e-06 -0.00100879)
(6.84209e-06 -9.44896e-07 -0.00100791)
(6.15574e-06 -8.41113e-07 -0.00100711)
(5.5384e-06 -7.48893e-07 -0.0010064)
(4.98312e-06 -6.66932e-07 -0.00100576)
(4.48363e-06 -5.94073e-07 -0.00100518)
(4.03432e-06 -5.29291e-07 -0.00100467)
(3.63013e-06 -4.71679e-07 -0.0010042)
(3.2665e-06 -4.2043e-07 -0.00100378)
(2.93937e-06 -3.74829e-07 -0.0010034)
(2.64505e-06 -3.34245e-07 -0.00100306)
(2.38025e-06 -2.98116e-07 -0.00100275)
(2.142e-06 -2.65944e-07 -0.00100248)
(1.92764e-06 -2.37291e-07 -0.00100223)
(1.73476e-06 -2.11766e-07 -0.00100201)
(1.56121e-06 -1.89023e-07 -0.00100181)
(1.40507e-06 -1.68756e-07 -0.00100163)
(1.26457e-06 -1.50694e-07 -0.00100146)
(1.13817e-06 -1.34597e-07 -0.00100132)
(1.02446e-06 -1.20251e-07 -0.00100119)
(9.2216e-07 -1.07467e-07 -0.00100107)
(8.30143e-07 -9.60759e-08 -0.00100096)
(7.47386e-07 -8.59294e-08 -0.00100086)
(6.72967e-07 -7.68938e-08 -0.00100078)
(6.06061e-07 -6.88501e-08 -0.0010007)
(5.45922e-07 -6.16917e-08 -0.00100063)
(4.91882e-07 -5.53226e-08 -0.00100057)
(4.43339e-07 -4.9657e-08 -0.00100051)
(3.9975e-07 -4.46176e-08 -0.00100046)
(3.60631e-07 -4.0135e-08 -0.00100041)
(3.25545e-07 -3.61472e-08 -0.00100037)
(2.94099e-07 -3.25984e-08 -0.00100033)
(2.65942e-07 -2.94389e-08 -0.0010003)
(2.40759e-07 -2.66243e-08 -0.00100027)
(2.18269e-07 -2.4115e-08 -0.00100024)
(1.9822e-07 -2.18759e-08 -0.00100021)
(1.80388e-07 -1.98761e-08 -0.00100019)
(1.64572e-07 -1.80884e-08 -0.00100017)
(1.50596e-07 -1.64889e-08 -0.00100015)
(1.38304e-07 -1.50568e-08 -0.00100013)
(1.27557e-07 -1.37738e-08 -0.00100011)
(1.18235e-07 -1.26245e-08 -0.0010001)
(1.10237e-07 -1.15958e-08 -0.00100009)
(1.03474e-07 -1.06789e-08 -0.00100007)
(9.78769e-08 -9.87475e-09 -0.00100006)
(9.34071e-08 -9.20579e-09 -0.00100005)
(9.01154e-08 -8.73298e-09 -0.00100003)
(8.82925e-08 -8.53821e-09 -0.00100002)
)
;
    }
    procBoundary0to2
    {
        type            processor;
        value           nonuniform List<vector> 
180
(
(9.47471e-10 -5.76164e-09 -0.00100005)
(9.32445e-10 -8.74863e-09 -0.00100005)
(1.10512e-09 -1.32104e-08 -0.00100005)
(1.40987e-09 -1.83142e-08 -0.00100005)
(1.77081e-09 -2.37641e-08 -0.00100006)
(2.14882e-09 -2.95051e-08 -0.00100006)
(2.53207e-09 -3.55686e-08 -0.00100006)
(2.91887e-09 -4.20121e-08 -0.00100007)
(3.31087e-09 -4.89029e-08 -0.00100007)
(3.71103e-09 -5.63147e-08 -0.00100008)
(4.12297e-09 -6.43269e-08 -0.00100009)
(4.55076e-09 -7.30252e-08 -0.00100009)
(4.99877e-09 -8.25026e-08 -0.0010001)
(5.47157e-09 -9.286e-08 -0.00100011)
(5.97386e-09 -1.04207e-07 -0.00100012)
(6.51036e-09 -1.16663e-07 -0.00100014)
(7.08578e-09 -1.30359e-07 -0.00100015)
(7.70473e-09 -1.45436e-07 -0.00100017)
(8.3718e-09 -1.62053e-07 -0.00100019)
(9.09152e-09 -1.80379e-07 -0.00100021)
(9.86841e-09 -2.00604e-07 -0.00100023)
(1.07071e-08 -2.22935e-07 -0.00100025)
(1.16123e-08 -2.476e-07 -0.00100028)
(1.25891e-08 -2.74851e-07 -0.00100031)
(1.3643e-08 -3.04965e-07 -0.00100034)
(1.47798e-08 -3.38249e-07 -0.00100037)
(1.60062e-08 -3.75042e-07 -0.00100041)
(1.73297e-08 -4.15718e-07 -0.00100046)
(1.87587e-08 -4.60689e-07 -0.00100051)
(2.03027e-08 -5.10411e-07 -0.00100056)
(2.19723e-08 -5.65388e-07 -0.00100062)
(2.37792e-08 -6.26177e-07 -0.00100068)
(2.5736e-08 -6.93392e-07 -0.00100075)
(2.78559e-08 -7.67712e-07 -0.00100083)
(3.01528e-08 -8.49885e-07 -0.00100092)
(3.26412e-08 -9.40741e-07 -0.00100102)
(3.53361e-08 -1.04119e-06 -0.00100112)
(3.82523e-08 -1.15225e-06 -0.00100124)
(4.14047e-08 -1.27503e-06 -0.00100137)
(4.48078e-08 -1.41075e-06 -0.00100152)
(4.84759e-08 -1.56077e-06 -0.00100168)
(5.24232e-08 -1.72659e-06 -0.00100185)
(5.66635e-08 -1.90984e-06 -0.00100205)
(6.12114e-08 -2.11236e-06 -0.00100226)
(6.60835e-08 -2.33612e-06 -0.0010025)
(7.13025e-08 -2.58335e-06 -0.00100276)
(7.69108e-08 -2.85647e-06 -0.00100305)
(8.29718e-08 -3.15817e-06 -0.00100338)
(8.94837e-08 -3.49138e-06 -0.00100373)
(9.64331e-08 -3.8593e-06 -0.00100412)
(1.03795e-07 -4.26545e-06 -0.00100456)
(1.11528e-07 -4.71373e-06 -0.00100504)
(1.19575e-07 -5.20842e-06 -0.00100556)
(1.27853e-07 -5.7542e-06 -0.00100614)
(1.36246e-07 -6.35623e-06 -0.00100678)
(1.44641e-07 -7.02016e-06 -0.00100749)
(1.5286e-07 -7.75222e-06 -0.00100827)
(1.60685e-07 -8.5592e-06 -0.00100913)
(1.67848e-07 -9.44858e-06 -0.00101007)
(1.74034e-07 -1.04286e-05 -0.00101111)
(1.78859e-07 -1.15081e-05 -0.00101226)
(1.81878e-07 -1.26971e-05 -0.00101352)
(1.82564e-07 -1.40064e-05 -0.00101491)
(1.80295e-07 -1.54477e-05 -0.00101643)
(1.74357e-07 -1.70341e-05 -0.00101812)
(1.63923e-07 -1.87798e-05 -0.00101996)
(1.48046e-07 -2.07003e-05 -0.001022)
(1.25663e-07 -2.28127e-05 -0.00102424)
(9.55945e-08 -2.51357e-05 -0.0010267)
(5.65563e-08 -2.76901e-05 -0.00102941)
(7.16464e-09 -3.04985e-05 -0.0010324)
(-5.41232e-08 -3.35862e-05 -0.00103569)
(-1.29601e-07 -3.69806e-05 -0.00103929)
(-2.26053e-07 -4.07075e-05 -0.00104312)
(-3.7229e-07 -4.47692e-05 -0.0010474)
(-6.74033e-07 -4.90609e-05 -0.00105378)
(-1.39126e-06 -5.3093e-05 -0.00106474)
(-2.82763e-06 -5.5412e-05 -0.00106786)
(-4.69829e-06 -5.25759e-05 -0.00102761)
(-4.1398e-06 -3.88033e-05 -0.000805658)
(2.29867e-06 -2.46015e-06 -0.00325022)
(3.14295e-06 9.54863e-08 -5.16893e-07)
(-0.00013388 4.61388e-05 -0.00381985)
(2.5587e-06 -1.54611e-06 -0.000298659)
(8.70383e-05 -0.000145964 -0.0039017)
(3.21911e-05 -0.000218587 -0.00429331)
(1.51421e-05 -3.64492e-05 -0.00043771)
(0.000364573 -0.000375977 -0.00468706)
(-6.31e-05 2.43941e-05 -0.00111538)
(-0.000334758 0.000762092 -0.00288176)
(-0.000425869 0.000974432 -0.00317212)
(-0.00012606 0.000158705 -0.000680238)
(-0.00100561 0.00140593 -0.0027683)
(-0.000307345 0.000437657 -0.00259148)
(2.82922e-06 -1.46817e-05 -9.11619e-05)
(9.29102e-05 -2.4858e-05 -0.00498533)
(8.59395e-06 -1.95176e-05 -0.000276981)
(0.00067567 -0.00062299 -0.00254074)