/*--------------------------------*- C++ -*----------------------------------*\
| =========                 |                                                 |
| \\      /  F ield         | OpenFOAM: The Open Source CFD Toolbox           |
|  \\    /   O peration     | Version:  5.x                                   |
|   \\  /    A nd           | Web:      www.OpenFOAM.org                      |
|    \\/     M anipulation  |                                                 |
\*---------------------------------------------------------------------------*/
FoamFile
{
    version     2.0;
    format      ascii;
    class       volScalarField;
    location    "8000";
    object      p;
}
// * * * * * * * * * * * * * * * * * * * * * * * * * * * * * * * * * * * * * //

dimensions      [0 2 -2 0 0 0 0];

internalField   nonuniform List<scalar> 
180
(
-121.492
-275.567
-291.787
-275.892
-291.692
-319.793
-331.456
-331.62
-320.846
-303.92
-298.977
-282.108
-247.834
-217.698
-186.593
-153.13
-119.803
-84.0886
-100.037
-137.026
-132.17
-74.8468
-37.6752
-3.01178
38.33
67.192
104.477
143.713
178.755
209.417
246.739
290.029
330.868
302.661
217.087
188.872
222.613
170.368
125.468
135.682
183.253
231.665
270.813
302.903
339.851
341.62
320.311
335.223
337.78
299.158
309.548
314.91
270.229
280.438
335.439
343.386
369.412
419.847
458.547
441.994
405.858
415.042
486.786
530.123
562.164
601.325
628.118
669.389
726.408
784.225
764.095
720.411
733.665
767.337
736.719
752.324
825.642
895.797
978.023
984.633
815.028
687.26
662.447
729.413
845.697
905.92
830.627
720.153
679.65
706.83
766.759
768.368
726.456
697.39
701.209
717.228
745.349
760.433
766.18
771.753
778.301
782.573
782.741
777.807
758.905
722.934
691.815
663.367
623.433
576.171
528.789
477.319
422.128
364.258
301.686
234.387
170.425
101.455
35.69
-33.8151
-98.9542
-165.991
-235.006
-305.166
-375.798
-447.214
-522.63
-597.578
-670.539
-741.543
-812.081
-880.197
-944.559
-1007.9
-1073.15
-1140.59
-1208.08
-1276.84
-1345.12
-1413.55
-1480.11
-1544.5
-1605.59
-1660.58
-1712.43
-1762.54
-1814.83
-1868.76
-1930.82
-1992.84
-2054.14
-2107.69
-2159.33
-2207.92
-2253.44
-2297.45
-2340.35
-2381.73
-2427.12
-2458.52
-2483.39
-2494.1
-2484.25
-2464.71
-2412.39
-2365.91
-2300.91
-2219.62
-2124.22
-1997.48
-1855.35
-1679.51
-1474.18
-1222.58
-955.152
-639.885
-525.603
-570.615
-639.545
-637.209
)
;

boundaryField
{
    inlet
    {
        type            zeroGradient;
    }
    outlet
    {
        type            fixedValue;
        value           uniform 0;
    }
    repeat_boundary
    {
        type            zeroGradient;
    }
    procBoundary2to0
    {
        type            processor;
        value           nonuniform List<scalar> 
180
(
-141.122
-254.659
-261.698
-242.768
-224.465
-203.689
-182.227
-182.218
-208.631
-240.364
-255.142
-246.728
-215.773
-197.652
-176.285
-162.557
-194.208
-208.139
-194.265
-145.547
-104.037
-61.7722
-18.0675
18.9821
34.5024
27.7963
45.708
107.763
141.268
182.726
235.581
234.402
221.691
230.552
241.369
136.676
68.2777
70.3288
111.3
150.099
178.141
197.043
206.645
195.304
179.555
180.441
195.868
189.012
191.035
204.167
232.348
278.363
314.906
321.386
294.723
308.882
324.685
313.092
342.428
346.223
328.464
323.814
352.546
394.275
419.682
396.912
332.525
314.162
391.466
476.779
563.029
630.078
691.698
746.488
790.035
806.036
804.378
790.359
783.854
771.373
753.135
747.763
752.758
759.105
721.883
681.968
682.235
734.264
795.677
752.294
693.175
705.386
786.418
877.015
944.505
1006.11
1048.67
1073.78
1132.72
1225.49
1317.04
1278.56
1207.09
1229.52
1354.5
1451.17
1457.48
1331.12
1183.58
1032.52
869.298
711.392
560.343
411.841
261.094
116.858
-32.4052
-170.996
-314.503
-380.474
-369.047
-354.958
-429.611
-541.762
-606.207
-617.541
-657.098
-690.7
-711.77
-760.495
-838.578
-877.994
-887.758
-956.712
-1063.45
-1175.54
-1279.46
-1391.7
-1510.18
-1639.13
-1763.5
-1895.27
-1996.38
-2023.53
-1995.33
-1940.78
-1886.98
-1842.14
-1858.54
-1998.11
-2132.15
-2199.06
-2219.3
-2236.43
-2313.35
-2445.24
-2614.38
-2759.1
-2826.44
-2849.46
-2847.1
-2844.11
-2853.27
-2861.63
-2950.52
-3239.46
-3530.6
-3635.23
-3567.64
-3409.76
-3261.2
-3130.58
-2999.01
-2865.03
-2921.87
-3037.97
-3019.38
-2988.81
-3194.64
-3318.14
)
;
    }
    procBoundary2to3
    {
        type            processor;
        value           nonuniform List<scalar> 
180
(
-169.859
-304.988
-293.163
-237.001
-238.237
-272.174
-287.994
-293.247
-286.666
-253.105
-225.972
-203.877
-210.365
-232.246
-242.078
-244.194
-235.393
-194.27
-152.866
-120.148
-82.1442
-49.0607
-13.1444
22.9311
58.97
51.4525
24.3356
32.3326
91.3856
120.246
153.22
178.196
162.649
174.854
182.584
159.27
170.012
172.699
138.507
143.743
191.64
225.356
256.095
287.299
313.987
345.159
378.076
380.478
357.457
360.724
408.552
425.509
419.285
432.232
465.331
487.485
511.793
543.837
562.417
572.902
584.126
619.161
631.813
650.273
681.014
697.495
723.901
737.509
735.327
748.104
799.143
829.115
866.944
910.742
875.364
824.221
781.275
749.896
732.653
729.229
731.637
735.83
743.54
752.065
768.965
781.488
790.456
808.582
823.857
845.037
862.644
856.982
869.179
884.724
892.914
920.225
964.409
991.628
989.011
964.013
931.145
914.302
900.847
841.67
799.92
740.753
683.099
657.598
618.964
551.446
486.869
428.035
371.495
313.635
252.881
193.517
130.366
67.026
-3.05563
-69.0252
-139.277
-206.911
-278.685
-345.957
-416.22
-482.524
-550.169
-616.623
-678.503
-740.768
-798.119
-857.05
-912.287
-968.868
-1020.9
-1070.83
-1123.35
-1177.31
-1233.89
-1289.59
-1347.19
-1401.9
-1457.94
-1515.49
-1572.24
-1629.43
-1685
-1739.32
-1791.44
-1841.6
-1889.89
-1936.42
-1980.94
-2025.07
-2066.67
-2110.27
-2147.76
-2189.58
-2220.13
-2255.96
-2279.59
-2309.8
-2331.64
-2358.66
-2381.38
-2398.78
-2411.27
-2413.14
-2411.11
-2406.38
-2399.26
-2386.01
-2357.71
-2310.64
-2248.44
-2175.28
-2099.91
-2013.85
-1947.36
-1913.13
)
;
    }
}


// ************************************************************************* //
