/*--------------------------------*- C++ -*----------------------------------*\
| =========                 |                                                 |
| \\      /  F ield         | OpenFOAM: The Open Source CFD Toolbox           |
|  \\    /   O peration     | Version:  5.x                                   |
|   \\  /    A nd           | Web:      www.OpenFOAM.org                      |
|    \\/     M anipulation  |                                                 |
\*---------------------------------------------------------------------------*/
FoamFile
{
    version     2.0;
    format      ascii;
    class       surfaceScalarField;
    location    "8000";
    object      phi;
}
// * * * * * * * * * * * * * * * * * * * * * * * * * * * * * * * * * * * * * //

dimensions      [0 3 -1 0 0 0 0];

internalField   nonuniform List<scalar> 
179
(
2.72101e+07
2.72072e+07
2.72052e+07
2.72054e+07
2.7207e+07
2.72133e+07
2.72154e+07
2.72223e+07
2.723e+07
2.72344e+07
2.72472e+07
2.72577e+07
2.72689e+07
2.72826e+07
2.72868e+07
2.7293e+07
2.7301e+07
2.72999e+07
2.73017e+07
2.73039e+07
2.7306e+07
2.73045e+07
2.73095e+07
2.73197e+07
2.73334e+07
2.73433e+07
2.73518e+07
2.73634e+07
2.7377e+07
2.73845e+07
2.73847e+07
2.73789e+07
2.73663e+07
2.73614e+07
2.73624e+07
2.73512e+07
2.73342e+07
2.73213e+07
2.7309e+07
2.72956e+07
2.7271e+07
2.72309e+07
2.72022e+07
2.71693e+07
2.71325e+07
2.70971e+07
2.70605e+07
2.70156e+07
2.69654e+07
2.6918e+07
2.68693e+07
2.68077e+07
2.67539e+07
2.67055e+07
2.66588e+07
2.66153e+07
2.6568e+07
2.65183e+07
2.64696e+07
2.64183e+07
2.63699e+07
2.63247e+07
2.62792e+07
2.62327e+07
2.61882e+07
2.6145e+07
2.61017e+07
2.60501e+07
2.59941e+07
2.59358e+07
2.58858e+07
2.58409e+07
2.57911e+07
2.57448e+07
2.57012e+07
2.5638e+07
2.5552e+07
2.54417e+07
2.53039e+07
2.51372e+07
2.49662e+07
2.48031e+07
2.46237e+07
2.44224e+07
2.42289e+07
2.40665e+07
2.39366e+07
2.38294e+07
2.37422e+07
2.36779e+07
2.36091e+07
2.35518e+07
2.35109e+07
2.34847e+07
2.34786e+07
2.34796e+07
2.34971e+07
2.35217e+07
2.35624e+07
2.3615e+07
2.36743e+07
2.37406e+07
2.38327e+07
2.39461e+07
2.4081e+07
2.42352e+07
2.43866e+07
2.45255e+07
2.4654e+07
2.4772e+07
2.48977e+07
2.50211e+07
2.51618e+07
2.53069e+07
2.54701e+07
2.56365e+07
2.58185e+07
2.59983e+07
2.61895e+07
2.63711e+07
2.65543e+07
2.67394e+07
2.69333e+07
2.7112e+07
2.72899e+07
2.7464e+07
2.76467e+07
2.78264e+07
2.80087e+07
2.81853e+07
2.83596e+07
2.85314e+07
2.87046e+07
2.88958e+07
2.91159e+07
2.93655e+07
2.96465e+07
2.9956e+07
3.02913e+07
3.06461e+07
3.10124e+07
3.13851e+07
3.17575e+07
3.21277e+07
3.24874e+07
3.28354e+07
3.31736e+07
3.34987e+07
3.38009e+07
3.40784e+07
3.43283e+07
3.45564e+07
3.47649e+07
3.496e+07
3.51416e+07
3.53143e+07
3.54752e+07
3.56366e+07
3.57861e+07
3.59381e+07
3.6075e+07
3.62235e+07
3.63658e+07
3.65318e+07
3.66948e+07
3.68885e+07
3.70782e+07
3.7287e+07
3.74962e+07
3.77244e+07
3.79552e+07
3.82207e+07
3.84699e+07
3.87003e+07
3.88947e+07
3.90014e+07
3.90663e+07
3.91609e+07
3.92032e+07
)
;

boundaryField
{
    inlet
    {
        type            calculated;
        value           uniform 3.91992e+07;
    }
    outlet
    {
        type            calculated;
        value           uniform -2.72133e+07;
    }
    repeat_boundary
    {
        type            calculated;
        value           uniform 0;
    }
    procBoundary2to0
    {
        type            processor;
        value           nonuniform List<scalar> 
180
(
1969.21
1589.55
1025.14
199.949
-809.043
-4412.95
-4370.01
-5733.81
-5402.51
-1541.96
-5721.56
-5582.95
-8763.28
-11071.5
-6534.23
-6616.64
-7022.82
-3562.66
-6111.46
-8412.66
-8769.94
-6105.98
-10446.6
-11791.7
-13533.8
-12583.3
-13428
-16593.9
-16109.7
-10516.3
-10342.5
-7151.04
-4373.23
-11026
-12522.9
-3100.86
-1182.96
-3390
771.769
5927.59
7410.07
11767.2
9716.02
14200.4
17752.5
18776.7
22470.9
28761.6
32693.5
35015.6
38782.4
43852.3
41211.8
38871
38603.8
37463.1
41314
43903.3
42659.6
48098.6
50743.2
49767.8
49194.3
51873.4
52414
52295.5
54776.5
59559.1
63802.4
67348
66495.6
66223.3
65912.3
63876.5
56754
52233.6
54926.7
59627.8
64442.3
56078
36339
21519.4
34258.5
53946.4
44837.1
25727.6
10294.1
4194.72
105.199
-15489.7
-6636.28
-6554.99
-5801
-9040.83
-22959.4
-23209.7
-26364
-28569.5
-41885.7
-50064.5
-58053.6
-62675.3
-73741
-78287.6
-74708.8
-66754.3
-49663.8
-33892.9
-21451.5
-10130.3
-11035.8
-3116.19
-10823.7
-9422.03
-20809.1
-21992.7
-34524.9
-33320.3
-45688
-38951.3
-44044.1
-50721.8
-62181.8
-52835.6
-53257.1
-55715.1
-65510.4
-69471.1
-75792.2
-79480.3
-84943.4
-91100.7
-100706
-125089
-157463
-185949
-213494
-236010
-255023
-267658
-273436
-275385
-272204
-269362
-260092
-251903
-245667
-237799
-219416
-200322
-177022
-158987
-142398
-130770
-117848
-107595
-94376.4
-92296.3
-79738.4
-77510.2
-65970
-70198.6
-79138
-93415.8
-119230
-141753
-166688
-180946
-204390
-220454
-242201
-265498
-275383
-273294
-278305
-219229
-178169
-184115
-170621
-129617
)
;
    }
    procBoundary2to3
    {
        type            processor;
        value           nonuniform List<scalar> 
180
(
1244.37
1282.18
1056.69
-418.121
-794.605
-1863.27
2240.72
-1143.8
-2363.14
-2831.95
-7114.63
-4899.46
-2413.35
-2639.6
2379.83
357.345
-930.747
4675.57
4285.88
6254.12
6613.07
7598.47
5448.08
1565.24
-72.1471
2667.81
4844.15
4996.6
2521.72
3032.86
10153.5
12908.7
17000
15921.6
11587.1
14278.2
18156.4
16285.3
11561.3
7496.93
17190.2
28327.7
18945.9
18662.6
19116.6
16559.6
14176
16084.2
17551
12422.7
9851.69
17810.2
12589.3
9446.25
8111.76
6080.39
6003.69
5754.45
6001.53
3262.19
-2352.06
-4529.25
-3695.09
-5447.26
-7868.91
-9120.32
-11483.5
-7934.48
-7848.81
-8998.01
-16481.8
-21355.7
-16067.7
-17610.9
-13177.6
10974.2
31126.4
50652.3
73338.2
110589
134733
141555
145107
147330
148662
136711
119623
103033
87038.3
79849
75350.9
63884.3
46708.2
35276.3
29054
22208.7
8824.38
3956.57
1191.96
-2508.15
-1217.05
-3655.94
-18336.9
-35142.1
-60210.4
-87419.5
-101775
-104931
-107092
-107845
-114670
-120309
-129881
-135664
-142357
-144437
-147479
-146446
-145545
-142661
-139139
-134395
-131746
-125852
-124608
-118341
-117271
-110163
-106505
-97160.2
-89367.4
-80655.3
-72474.4
-66122.7
-62690.2
-63630.9
-67538.3
-73461.3
-80320.8
-87125.6
-92856.7
-97302.1
-100224
-100798
-99614.1
-96115.5
-92473.7
-87366.6
-82722.1
-77167.9
-72930.3
-69142.1
-66045.8
-64387.3
-63688.9
-65097.8
-66530.3
-69086.6
-69811.4
-74442.3
-70958.5
-78287.7
-63223.5
-72513.6
-43814.6
-51926.1
-23027.8
-27897.9
-4752.77
-7718.32
11393.5
-74.8513
26225.6
42890.3
83864.2
112612
113247
89532.3
128321
133616
)
;
    }
}


// ************************************************************************* //
