/*--------------------------------*- C++ -*----------------------------------*\
| =========                 |                                                 |
| \\      /  F ield         | OpenFOAM: The Open Source CFD Toolbox           |
|  \\    /   O peration     | Version:  5.x                                   |
|   \\  /    A nd           | Web:      www.OpenFOAM.org                      |
|    \\/     M anipulation  |                                                 |
\*---------------------------------------------------------------------------*/
FoamFile
{
    version     2.0;
    format      ascii;
    class       volVectorField;
    location    "8000";
    object      stored_U;
}
// * * * * * * * * * * * * * * * * * * * * * * * * * * * * * * * * * * * * * //

dimensions      [0 1 -1 0 0 0 0];

internalField   nonuniform List<vector> 
180
(
(0.0250449 -0.0695298 107.732)
(-0.00791338 -0.077475 108.219)
(-0.0562657 -0.021501 108.49)
(-0.0280132 -0.0411328 108.417)
(-0.00322576 -0.0717188 107.949)
(0.116084 -0.123907 107.681)
(0.136029 -0.0468627 108.474)
(0.117012 0.0214375 108.494)
(0.240077 -0.0133114 107.432)
(0.271432 -0.0128308 108.315)
(0.432228 -0.199328 108.326)
(0.580219 -0.130108 107.332)
(0.68401 -0.147873 108.253)
(0.293815 0.0990775 107.177)
(0.163835 0.0690949 108.245)
(0.0192169 0.340274 107.171)
(0.0346328 0.419101 108.114)
(0.252417 0.608547 107.231)
(0.230156 0.632022 107.875)
(0.319178 0.636428 108.127)
(0.36354 0.613241 107.103)
(0.371448 0.611376 108.274)
(0.432127 0.847741 107.475)
(0.483831 0.683747 107.929)
(0.60078 0.468061 107.828)
(0.633597 0.559974 107.867)
(0.455776 0.829019 107.303)
(0.399881 0.995635 107.933)
(0.334135 1.03341 107.876)
(0.369554 0.843141 107.661)
(0.498845 0.650534 108.009)
(0.399248 1.03418 107.435)
(0.342186 1.10837 108.088)
(0.153163 1.21897 107.535)
(0.0686332 1.37516 107.541)
(-0.00470402 1.57736 108.151)
(-0.0587291 1.50238 107.855)
(-0.0154666 1.14883 107.848)
(0.11535 0.929774 107.843)
(0.0609513 1.03378 107.528)
(0.0104048 1.07288 107.936)
(-0.120966 0.785969 106.97)
(-0.0690666 0.712901 108.053)
(0.0508304 0.165721 106.758)
(0.0479088 0.215511 107.621)
(0.102207 0.0441159 107.202)
(0.260232 -0.296868 106.167)
(0.244933 -0.308476 107.073)
(0.245395 -0.326146 106.52)
(0.134099 -0.333082 106.246)
(0.196535 -0.51909 106.307)
(0.289922 -0.607102 105.521)
(0.0647494 -0.600972 104.992)
(0.327627 -0.924958 105.394)
(0.295998 -0.89292 105.203)
(-0.243155 -0.424178 105.061)
(-0.292749 -0.643661 103.9)
(-0.122326 -0.894613 105.02)
(-0.0190125 -1.24497 103.395)
(-0.258142 -1.0761 104.042)
(-0.348055 -1.05733 104.155)
(-0.568617 -0.953599 102.54)
(-0.808623 -0.890027 103.496)
(-0.714382 -1.1372 103.405)
(-0.973522 -1.11441 102.246)
(-1.11647 -1.06859 102.822)
(-1.80744 -1.51076 102.784)
(-1.58795 -1.23216 101.346)
(-1.68374 -1.2594 102.309)
(-2.01641 -1.37184 102.172)
(-1.49801 -1.26726 101.547)
(-0.888694 -0.89441 100.478)
(-1.40456 -1.0971 101.463)
(-1.51626 -0.920582 101.197)
(-1.39804 -0.484179 101.189)
(-0.698602 -0.364893 99.8418)
(-0.157522 -0.216529 100.518)
(1.54454 -0.213663 98.4408)
(1.20677 -0.192836 99.7265)
(1.84592 0.248354 97.8405)
(1.63971 0.850672 97.5422)
(1.6551 1.07448 97.262)
(1.70653 0.857296 96.24)
(0.0555254 3.01238 94.8004)
(-0.258756 3.1151 95.7193)
(-0.716339 3.43501 94.6375)
(-0.872878 3.40341 94.2181)
(-1.08792 3.32857 93.8597)
(-1.38312 3.1404 93.721)
(-1.42123 3.2171 94.1789)
(-1.40167 2.97067 93.3531)
(-2.32268 2.60807 93.2286)
(-3.42393 2.48057 93.0922)
(-3.72044 2.99059 93.6944)
(-3.65495 3.0337 93.7829)
(-3.47019 2.82179 93.1338)
(-3.47516 2.83071 93.9706)
(-3.69693 3.07606 93.9095)
(-3.99898 2.8413 93.8473)
(-4.23575 2.84461 94.6093)
(-5.51352 2.56515 94.0632)
(-5.66294 3.00038 95.5698)
(-6.06706 2.62622 94.9948)
(-5.95455 2.70775 96.25)
(-6.41257 2.2846 96.1716)
(-7.0028 1.61663 96.8458)
(-6.9367 1.01241 97.5048)
(-6.698 0.389368 97.9545)
(-6.44438 -0.212636 98.3615)
(-6.24347 -0.628544 98.8274)
(-6.25066 -0.828272 99.1957)
(-5.82445 -1.36733 99.7958)
(-5.72724 -1.29712 100.238)
(-5.19211 -1.4829 100.951)
(-5.09634 -1.14277 101.463)
(-4.79424 -1.03184 102.293)
(-4.83867 -0.61957 102.946)
(-4.75519 -0.418054 103.726)
(-4.83946 -0.0571434 104.517)
(-4.93421 0.119977 105.218)
(-5.03961 0.519878 106.065)
(-5.2787 0.882107 106.65)
(-5.44596 1.31176 107.591)
(-5.80656 1.63822 108.176)
(-6.04312 2.37801 108.972)
(-6.422 2.91005 109.569)
(-6.65603 3.66697 110.335)
(-6.97946 4.01387 111.094)
(-7.0888 4.47121 111.815)
(-7.33905 4.76034 112.587)
(-7.54816 5.21482 113.217)
(-8.02073 5.67332 114.022)
(-8.58956 6.33399 114.663)
(-9.57236 7.3661 115.536)
(-10.9145 8.56942 116.398)
(-12.6876 10.0717 117.555)
(-14.6927 11.617 118.694)
(-16.8915 13.3 120.082)
(-19.1334 14.8579 121.453)
(-21.3514 16.3161 122.997)
(-23.445 17.4886 124.5)
(-25.3281 18.4022 126.085)
(-26.9501 18.9534 127.608)
(-28.2458 19.2071 129.15)
(-29.1965 19.0692 130.574)
(-29.839 18.7551 131.997)
(-30.1498 18.1538 133.264)
(-30.16 17.4662 134.557)
(-29.9099 16.5385 135.587)
(-29.4786 15.6723 136.779)
(-28.9827 14.6793 137.583)
(-28.4609 13.8273 138.659)
(-27.9803 12.9608 139.22)
(-27.6718 12.409 140.237)
(-27.4907 11.8928 140.7)
(-27.6087 11.5838 141.598)
(-27.7389 11.3233 142.045)
(-28.3665 11.4247 142.913)
(-28.8462 11.3693 143.256)
(-29.9329 11.8086 144.317)
(-30.7298 12.007 144.521)
(-32.2379 12.9328 145.746)
(-33.3037 13.8643 145.931)
(-35.3429 15.8177 147.091)
(-35.9784 17.7897 147.687)
(-38.1311 20.4539 148.41)
(-37.9348 23.2323 149.73)
(-39.1697 25.99 150.088)
(-38.1627 29.3081 151.696)
(-37.2837 31.8272 152.327)
(-35.4712 33.7425 153.925)
(-33.2007 35.3241 154.831)
(-28.4812 36.0417 156.544)
(-24.0249 35.8168 157.172)
(-19.3535 35.107 158.713)
(-17.2423 33.9542 158.679)
(-14.8697 33.4429 160.258)
(-14.6494 32.1535 159.383)
(-11.1755 30.8656 161.427)
(-11.0095 28.9527 160.262)
)
;

boundaryField
{
    inlet
    {
        type            calculated;
        value           uniform (-11.0095 28.9527 160.262);
    }
    outlet
    {
        type            calculated;
        value           uniform (0.0250449 -0.0695298 107.732);
    }
    repeat_boundary
    {
        type            calculated;
        value           nonuniform List<vector> 
360
(
(0.0250449 0 107.732)
(-0.00791338 0 108.219)
(-0.0562657 0 108.49)
(-0.0280132 0 108.417)
(-0.00322576 0 107.949)
(0.116084 0 107.681)
(0.136029 0 108.474)
(0.117012 0 108.494)
(0.240077 0 107.432)
(0.271432 0 108.315)
(0.432228 0 108.326)
(0.580219 0 107.332)
(0.68401 0 108.253)
(0.293815 0 107.177)
(0.163835 0 108.245)
(0.0192169 0 107.171)
(0.0346328 0 108.114)
(0.252417 0 107.231)
(0.230156 0 107.875)
(0.319178 0 108.127)
(0.36354 0 107.103)
(0.371448 0 108.274)
(0.432127 0 107.475)
(0.483831 0 107.929)
(0.60078 0 107.828)
(0.633597 0 107.867)
(0.455776 0 107.303)
(0.399881 0 107.933)
(0.334135 0 107.876)
(0.369554 0 107.661)
(0.498845 0 108.009)
(0.399248 0 107.435)
(0.342186 0 108.088)
(0.153163 0 107.535)
(0.0686332 0 107.541)
(-0.00470402 0 108.151)
(-0.0587291 0 107.855)
(-0.0154666 0 107.848)
(0.11535 0 107.843)
(0.0609513 0 107.528)
(0.0104048 0 107.936)
(-0.120966 0 106.97)
(-0.0690666 0 108.053)
(0.0508304 0 106.758)
(0.0479088 0 107.621)
(0.102207 0 107.202)
(0.260232 0 106.167)
(0.244933 0 107.073)
(0.245395 0 106.52)
(0.134099 0 106.246)
(0.196535 0 106.307)
(0.289922 0 105.521)
(0.0647494 0 104.992)
(0.327627 0 105.394)
(0.295998 0 105.203)
(-0.243155 0 105.061)
(-0.292749 0 103.9)
(-0.122326 0 105.02)
(-0.0190125 0 103.395)
(-0.258142 0 104.042)
(-0.348055 0 104.155)
(-0.568617 0 102.54)
(-0.808623 0 103.496)
(-0.714382 0 103.405)
(-0.973522 0 102.246)
(-1.11647 0 102.822)
(-1.80744 0 102.784)
(-1.58795 0 101.346)
(-1.68374 0 102.309)
(-2.01641 0 102.172)
(-1.49801 0 101.547)
(-0.888694 0 100.478)
(-1.40456 0 101.463)
(-1.51626 0 101.197)
(-1.39804 0 101.189)
(-0.698602 0 99.8418)
(-0.157522 0 100.518)
(1.54454 0 98.4408)
(1.20677 0 99.7265)
(1.84592 0 97.8405)
(1.63971 0 97.5422)
(1.6551 0 97.262)
(1.70653 0 96.24)
(0.0555254 0 94.8004)
(-0.258756 0 95.7193)
(-0.716339 0 94.6375)
(-0.872878 0 94.2181)
(-1.08792 0 93.8597)
(-1.38312 0 93.721)
(-1.42123 0 94.1789)
(-1.40167 0 93.3531)
(-2.32268 0 93.2286)
(-3.42393 0 93.0922)
(-3.72044 0 93.6944)
(-3.65495 0 93.7829)
(-3.47019 0 93.1338)
(-3.47516 0 93.9706)
(-3.69693 0 93.9095)
(-3.99898 0 93.8473)
(-4.23575 0 94.6093)
(-5.51352 0 94.0632)
(-5.66294 0 95.5698)
(-6.06706 0 94.9948)
(-5.95455 0 96.25)
(-6.41257 0 96.1716)
(-7.0028 0 96.8458)
(-6.9367 0 97.5048)
(-6.698 0 97.9545)
(-6.44438 0 98.3615)
(-6.24347 0 98.8274)
(-6.25066 0 99.1957)
(-5.82445 0 99.7958)
(-5.72724 0 100.238)
(-5.19211 0 100.951)
(-5.09634 0 101.463)
(-4.79424 0 102.293)
(-4.83867 0 102.946)
(-4.75519 0 103.726)
(-4.83946 0 104.517)
(-4.93421 0 105.218)
(-5.03961 0 106.065)
(-5.2787 0 106.65)
(-5.44596 0 107.591)
(-5.80656 0 108.176)
(-6.04312 0 108.972)
(-6.422 0 109.569)
(-6.65603 0 110.335)
(-6.97946 0 111.094)
(-7.0888 0 111.815)
(-7.33905 0 112.587)
(-7.54816 0 113.217)
(-8.02073 0 114.022)
(-8.58956 0 114.663)
(-9.57236 0 115.536)
(-10.9145 0 116.398)
(-12.6876 0 117.555)
(-14.6927 0 118.694)
(-16.8915 0 120.082)
(-19.1334 0 121.453)
(-21.3514 0 122.997)
(-23.445 0 124.5)
(-25.3281 0 126.085)
(-26.9501 0 127.608)
(-28.2458 0 129.15)
(-29.1965 0 130.574)
(-29.839 0 131.997)
(-30.1498 0 133.264)
(-30.16 0 134.557)
(-29.9099 0 135.587)
(-29.4786 0 136.779)
(-28.9827 0 137.583)
(-28.4609 0 138.659)
(-27.9803 0 139.22)
(-27.6718 0 140.237)
(-27.4907 0 140.7)
(-27.6087 0 141.598)
(-27.7389 0 142.045)
(-28.3665 0 142.913)
(-28.8462 0 143.256)
(-29.9329 0 144.317)
(-30.7298 0 144.521)
(-32.2379 0 145.746)
(-33.3037 0 145.931)
(-35.3429 0 147.091)
(-35.9784 0 147.687)
(-38.1311 0 148.41)
(-37.9348 0 149.73)
(-39.1697 0 150.088)
(-38.1627 0 151.696)
(-37.2837 0 152.327)
(-35.4712 0 153.925)
(-33.2007 0 154.831)
(-28.4812 0 156.544)
(-24.0249 0 157.172)
(-19.3535 0 158.713)
(-17.2423 0 158.679)
(-14.8697 0 160.258)
(-14.6494 0 159.383)
(-11.1755 0 161.427)
(-11.0095 0 160.262)
(0 -0.0695298 107.732)
(0 -0.077475 108.219)
(0 -0.021501 108.49)
(0 -0.0411328 108.417)
(0 -0.0717188 107.949)
(0 -0.123907 107.681)
(0 -0.0468627 108.474)
(0 0.0214375 108.494)
(0 -0.0133114 107.432)
(0 -0.0128308 108.315)
(0 -0.199328 108.326)
(0 -0.130108 107.332)
(0 -0.147873 108.253)
(0 0.0990775 107.177)
(0 0.0690949 108.245)
(0 0.340274 107.171)
(0 0.419101 108.114)
(0 0.608547 107.231)
(0 0.632022 107.875)
(0 0.636428 108.127)
(0 0.613241 107.103)
(0 0.611376 108.274)
(0 0.847741 107.475)
(0 0.683747 107.929)
(0 0.468061 107.828)
(0 0.559974 107.867)
(0 0.829019 107.303)
(0 0.995635 107.933)
(0 1.03341 107.876)
(0 0.843141 107.661)
(0 0.650534 108.009)
(0 1.03418 107.435)
(0 1.10837 108.088)
(0 1.21897 107.535)
(0 1.37516 107.541)
(0 1.57736 108.151)
(0 1.50238 107.855)
(0 1.14883 107.848)
(0 0.929774 107.843)
(0 1.03378 107.528)
(0 1.07288 107.936)
(0 0.785969 106.97)
(0 0.712901 108.053)
(0 0.165721 106.758)
(0 0.215511 107.621)
(0 0.0441159 107.202)
(0 -0.296868 106.167)
(0 -0.308476 107.073)
(0 -0.326146 106.52)
(0 -0.333082 106.246)
(0 -0.51909 106.307)
(0 -0.607102 105.521)
(0 -0.600972 104.992)
(0 -0.924958 105.394)
(0 -0.89292 105.203)
(0 -0.424178 105.061)
(0 -0.643661 103.9)
(0 -0.894613 105.02)
(0 -1.24497 103.395)
(0 -1.0761 104.042)
(0 -1.05733 104.155)
(0 -0.953599 102.54)
(0 -0.890027 103.496)
(0 -1.1372 103.405)
(0 -1.11441 102.246)
(0 -1.06859 102.822)
(0 -1.51076 102.784)
(0 -1.23216 101.346)
(0 -1.2594 102.309)
(0 -1.37184 102.172)
(0 -1.26726 101.547)
(0 -0.89441 100.478)
(0 -1.0971 101.463)
(0 -0.920582 101.197)
(0 -0.484179 101.189)
(0 -0.364893 99.8418)
(0 -0.216529 100.518)
(0 -0.213663 98.4408)
(0 -0.192836 99.7265)
(0 0.248354 97.8405)
(0 0.850672 97.5422)
(0 1.07448 97.262)
(0 0.857296 96.24)
(0 3.01238 94.8004)
(0 3.1151 95.7193)
(0 3.43501 94.6375)
(0 3.40341 94.2181)
(0 3.32857 93.8597)
(0 3.1404 93.721)
(0 3.2171 94.1789)
(0 2.97067 93.3531)
(0 2.60807 93.2286)
(0 2.48057 93.0922)
(0 2.99059 93.6944)
(0 3.0337 93.7829)
(0 2.82179 93.1338)
(0 2.83071 93.9706)
(0 3.07606 93.9095)
(0 2.8413 93.8473)
(0 2.84461 94.6093)
(0 2.56515 94.0632)
(0 3.00038 95.5698)
(0 2.62622 94.9948)
(0 2.70775 96.25)
(0 2.2846 96.1716)
(0 1.61663 96.8458)
(0 1.01241 97.5048)
(0 0.389368 97.9545)
(0 -0.212636 98.3615)
(0 -0.628544 98.8274)
(0 -0.828272 99.1957)
(0 -1.36733 99.7958)
(0 -1.29712 100.238)
(0 -1.4829 100.951)
(0 -1.14277 101.463)
(0 -1.03184 102.293)
(0 -0.61957 102.946)
(0 -0.418054 103.726)
(0 -0.0571434 104.517)
(0 0.119977 105.218)
(0 0.519878 106.065)
(0 0.882107 106.65)
(0 1.31176 107.591)
(0 1.63822 108.176)
(0 2.37801 108.972)
(0 2.91005 109.569)
(0 3.66697 110.335)
(0 4.01387 111.094)
(0 4.47121 111.815)
(0 4.76034 112.587)
(0 5.21482 113.217)
(0 5.67332 114.022)
(0 6.33399 114.663)
(0 7.3661 115.536)
(0 8.56942 116.398)
(0 10.0717 117.555)
(0 11.617 118.694)
(0 13.3 120.082)
(0 14.8579 121.453)
(0 16.3161 122.997)
(0 17.4886 124.5)
(0 18.4022 126.085)
(0 18.9534 127.608)
(0 19.2071 129.15)
(0 19.0692 130.574)
(0 18.7551 131.997)
(0 18.1538 133.264)
(0 17.4662 134.557)
(0 16.5385 135.587)
(0 15.6723 136.779)
(0 14.6793 137.583)
(0 13.8273 138.659)
(0 12.9608 139.22)
(0 12.409 140.237)
(0 11.8928 140.7)
(0 11.5838 141.598)
(0 11.3233 142.045)
(0 11.4247 142.913)
(0 11.3693 143.256)
(0 11.8086 144.317)
(0 12.007 144.521)
(0 12.9328 145.746)
(0 13.8643 145.931)
(0 15.8177 147.091)
(0 17.7897 147.687)
(0 20.4539 148.41)
(0 23.2323 149.73)
(0 25.99 150.088)
(0 29.3081 151.696)
(0 31.8272 152.327)
(0 33.7425 153.925)
(0 35.3241 154.831)
(0 36.0417 156.544)
(0 35.8168 157.172)
(0 35.107 158.713)
(0 33.9542 158.679)
(0 33.4429 160.258)
(0 32.1535 159.383)
(0 30.8656 161.427)
(0 28.9527 160.262)
)
;
    }
    procBoundary2to0
    {
        type            processor;
        value           nonuniform List<vector> 
180
(
(0.0419117 -0.0697796 106.295)
(0.0240127 -0.0516019 107.404)
(0.0331125 -0.0450584 107.277)
(0.0539022 -0.0650312 106.959)
(0.0738683 -0.0824243 107.163)
(0.0836205 -0.123374 106.537)
(0.085807 -0.0796248 107.147)
(0.00992956 -0.187288 106.993)
(0.0811768 -0.307894 106.861)
(0.360148 -0.366957 106.925)
(0.580597 -0.400123 106.78)
(0.706212 -0.38932 106.982)
(1.1957 -0.176041 106.352)
(1.12895 -0.249356 106.942)
(0.852351 -0.318308 106.894)
(0.751189 -0.125401 106.289)
(1.12749 0.15011 106.257)
(1.43819 0.223103 106.125)
(1.48158 0.185585 106.379)
(1.41086 0.0973108 104.956)
(1.59301 0.230043 105.874)
(1.42364 0.313063 104.984)
(1.47842 0.177365 105.275)
(1.66725 0.386348 103.893)
(1.71982 0.472762 104.606)
(1.69955 0.408339 104.748)
(1.88902 0.248144 103.091)
(1.95222 0.213151 104.448)
(2.04508 0.547535 102.47)
(2.00648 0.395242 103.968)
(1.57496 0.156026 101.915)
(1.54308 0.0335306 102.792)
(1.57762 -0.0466699 102.825)
(1.67588 0.117521 102.137)
(0.900323 -0.38339 101.814)
(-0.162529 -0.694017 101.376)
(-0.531259 -1.08199 101.847)
(-1.18972 -1.39875 101.193)
(-1.42283 -1.72191 101.904)
(-1.58756 -1.88345 101.763)
(-1.50764 -1.88475 101.758)
(-1.38424 -1.74204 102.118)
(-1.65705 -1.6338 101.953)
(-2.09474 -1.81114 102.237)
(-2.07847 -1.79439 102.653)
(-2.44994 -2.42628 102.323)
(-2.49332 -2.47457 103.227)
(-2.95758 -2.64191 102.94)
(-2.98169 -2.65478 103.717)
(-2.93846 -2.93675 103.712)
(-3.12131 -3.23214 104.334)
(-3.30508 -3.1202 104.559)
(-3.0693 -2.88225 104.773)
(-2.81449 -3.04992 105.633)
(-2.6042 -2.71955 105.529)
(-3.33265 -3.06788 105.952)
(-3.19387 -3.22001 106.604)
(-3.28027 -3.35094 106.563)
(-3.41933 -3.28728 107.202)
(-3.50992 -3.39513 107.852)
(-3.31267 -3.45006 107.755)
(-3.233 -3.2192 108.678)
(-2.41385 -2.87666 108.676)
(-1.77837 -2.69253 109.196)
(-2.70787 -3.42377 109.296)
(-2.77874 -3.46487 110.003)
(-2.78244 -3.4932 109.917)
(-2.69039 -3.5982 110.586)
(-2.69071 -3.7408 110.83)
(-2.6362 -3.85191 111.08)
(-2.50371 -3.98546 111.57)
(-2.32994 -3.96493 111.77)
(-2.17312 -3.77647 112.069)
(-1.94014 -3.45804 112.276)
(-1.79656 -3.35432 112.455)
(-1.73858 -3.39531 112.674)
(-0.865356 -3.19228 112.521)
(-0.768392 -3.08039 112.852)
(-0.648268 -2.95008 112.794)
(-0.452297 -2.73419 112.745)
(-0.315357 -2.5269 112.678)
(-0.393913 -2.59349 112.866)
(0.767647 -2.2156 111.589)
(0.680147 -2.16209 112.39)
(0.692604 -2.06622 111.951)
(0.901192 -2.1612 111.354)
(1.0694 -2.16238 111.601)
(1.42292 -0.988873 109.477)
(1.37908 -0.808829 110.532)
(1.30525 -0.689765 109.892)
(1.55372 -0.569082 109.181)
(1.84406 -0.406489 109.438)
(1.02059 -0.354222 107.01)
(0.99639 -0.0739285 108.901)
(0.833388 0.0718933 106.921)
(0.889663 0.194857 107.016)
(0.848325 0.201714 106.918)
(0.83667 0.181718 106.115)
(0.952948 0.127176 106.258)
(0.972898 0.437234 105.278)
(0.957282 0.672055 105.589)
(0.484507 0.590086 104.589)
(0.104312 0.516134 103.745)
(0.250058 0.765018 105.201)
(0.208784 0.294774 103.033)
(0.533094 0.444147 104.298)
(0.691846 0.324284 103.126)
(0.110701 -0.181385 102.629)
(-1.22203 0.121818 102.603)
(-2.96667 0.170743 102.209)
(-5.33362 0.83222 101.92)
(-7.74344 1.19356 101.656)
(-10.2416 2.1522 101.569)
(-12.3687 2.57034 101.308)
(-14.7278 3.40823 101.352)
(-16.8072 3.60292 101.202)
(-19.1586 4.25424 101.207)
(-21.0751 4.06971 101.371)
(-22.8379 4.695 101.292)
(-25.9679 4.25967 100.953)
(-25.6131 3.62255 102.286)
(-27.1859 4.13436 101.447)
(-28.5049 4.12477 101.511)
(-30.0817 2.69202 101.318)
(-30.4642 1.8193 101.875)
(-30.0874 1.82954 101.769)
(-29.22 2.17352 101.826)
(-28.8257 2.33593 101.61)
(-29.1681 1.97823 101.263)
(-29.1743 1.88526 101.084)
(-29.0456 1.86498 100.682)
(-28.9811 1.92127 100.548)
(-31.6309 3.19242 99.7539)
(-34.6802 4.88131 99.3993)
(-37.5288 6.46475 98.8958)
(-40.847 7.22542 98.6009)
(-43.9428 7.83096 98.1392)
(-46.5275 7.73816 97.8136)
(-48.4052 7.44008 97.5118)
(-49.6353 6.63492 97.1264)
(-50.4646 5.72422 97.0181)
(-51.0849 4.66578 96.3405)
(-51.3009 3.65371 96.8528)
(-51.2472 2.57928 95.74)
(-50.2031 1.6689 96.5042)
(-50.0863 0.991368 95.6284)
(-49.2261 0.146761 96.7366)
(-49.2366 -0.328233 95.8756)
(-46.4344 -0.677534 95.7457)
(-44.8458 -0.9856 95.8041)
(-44.2181 -1.72996 96.5562)
(-43.8179 -1.93913 96.6688)
(-42.5017 -2.14422 95.7674)
(-41.5377 -2.70274 97.2362)
(-40.9989 -2.99266 97.592)
(-39.6787 -3.3279 97.431)
(-38.0265 -3.44204 98.1715)
(-36.8398 -3.82157 99.2162)
(-35.5291 -3.73046 98.9106)
(-35.2165 -4.04576 100.457)
(-32.5406 -3.76438 99.4666)
(-32.1196 -4.27188 101.316)
(-29.2533 -4.26828 99.7021)
(-29.031 -4.64387 101.166)
(-27.2931 -4.73063 100.562)
(-25.7137 -5.04684 99.8498)
(-24.4539 -5.99767 99.7706)
(-22.8645 -6.83259 97.4402)
(-22.7182 -7.7075 99.3726)
(-22.8663 -7.54071 95.5865)
(-23.0788 -8.28186 96.4286)
(-22.4422 -8.23889 93.6856)
(-22.1293 -9.23879 94.6298)
(-21.7995 -8.90243 90.8761)
(-22.392 -10.6948 91.8624)
(-22.5952 -11.3679 92.0719)
(-23.5407 -11.3351 88.9443)
(-23.3461 -11.7349 89.0535)
(-22.749 -13.0143 89.6598)
(-23.6302 -14.1117 89.0883)
)
;
    }
    procBoundary2to3
    {
        type            processor;
        value           nonuniform List<vector> 
180
(
(0.0297373 -0.0889453 106.81)
(-0.0050273 -0.087763 108.025)
(0.00822725 -0.0715226 107.325)
(0.0276957 -0.0779098 107.696)
(0.00571119 -0.0907116 107.297)
(0.224413 -0.0431818 106.892)
(0.271499 0.171172 107.757)
(0.319741 0.285328 107.76)
(0.378557 0.0365839 107.218)
(0.522752 -0.042595 107.592)
(0.428071 -0.666347 107.156)
(0.514026 -0.666616 107.896)
(0.581503 -0.458168 107.699)
(0.570655 -0.188477 107.458)
(0.382244 -0.377459 107.64)
(0.230642 -0.887768 107.682)
(0.222963 -0.700209 106.758)
(0.194687 -0.820977 107.868)
(0.185902 -1.0981 106.6)
(0.20113 -1.08478 107.426)
(0.327508 -1.25759 106.842)
(0.305958 -1.38644 107.207)
(0.534271 -1.53088 106.315)
(0.596697 -1.5097 107.095)
(0.60377 -1.19888 106.46)
(0.704974 -1.21377 106.771)
(0.743921 -1.36235 106.956)
(0.666628 -1.43743 106.241)
(0.615848 -1.53834 107.111)
(0.579825 -1.07111 105.891)
(0.728202 -1.0027 106.873)
(0.772861 -1.04175 106.723)
(0.639374 -1.23744 106.424)
(0.453712 -1.42809 106.871)
(0.337492 -1.25717 106.615)
(0.422453 -0.554194 106.196)
(0.381157 -0.456207 106.983)
(0.439597 -0.454902 106.849)
(0.560671 -0.56882 106.656)
(0.556852 -0.369802 107.146)
(0.470827 0.0961723 106.703)
(0.497941 0.22836 107.38)
(0.549501 0.48314 106.799)
(0.590948 0.427664 107.6)
(0.90091 1.53653 107.092)
(0.92477 1.18188 107.747)
(1.08346 1.46549 107.421)
(1.05307 1.32675 107.814)
(1.00169 1.12592 108.032)
(1.01457 1.36378 108.012)
(0.843722 1.32845 108.1)
(1.01561 0.990435 108.197)
(1.39562 0.638523 108.736)
(1.34491 0.577026 108.541)
(0.655515 0.883437 108.764)
(0.595224 0.916877 108.476)
(0.894643 0.601376 108.906)
(0.918836 0.622858 108.876)
(0.730688 0.605749 108.841)
(0.511856 0.647363 109.025)
(0.735264 0.630993 108.739)
(0.672276 0.540948 109.124)
(0.687402 0.529366 108.941)
(0.753885 0.560471 109.068)
(1.01296 0.23277 108.617)
(0.760453 -0.0586185 109.21)
(0.716633 -0.276588 108.43)
(0.850514 -0.235157 108.666)
(0.964069 -0.167007 108.822)
(1.08069 -0.271078 107.835)
(1.12812 -0.352689 108.5)
(0.987216 -0.784726 107.698)
(0.732427 -1.01932 108.145)
(0.992907 -0.811772 107.571)
(2.52942 -0.563877 107.158)
(4.52248 0.360199 107.533)
(6.1709 1.01016 107.465)
(7.84771 2.1241 107.954)
(9.00342 2.6217 108.226)
(9.9124 3.43944 108.951)
(10.4189 4.06058 109.477)
(10.8198 4.44902 110.307)
(10.7894 4.51219 110.912)
(10.3693 4.57528 111.834)
(10.1765 4.63888 112.468)
(9.96757 4.65073 113.068)
(9.22666 4.60545 113.751)
(8.39312 4.38992 114.353)
(7.36335 4.19617 114.792)
(7.14583 4.1988 115.581)
(6.89981 4.1861 115.583)
(6.31492 3.96943 116.168)
(6.05127 4.00952 116.806)
(6.01551 4.0761 116.851)
(5.53234 3.66585 117.208)
(4.99226 3.57844 117.585)
(4.07815 3.21146 117.704)
(2.57585 1.81312 117.706)
(2.50945 1.95621 118.282)
(2.56708 2.37428 117.553)
(2.58664 2.30718 118.236)
(2.21831 1.89092 117.629)
(0.956645 -0.160448 117.451)
(-0.264943 -2.28492 116.871)
(-1.18098 -4.5165 116.529)
(-1.75505 -6.96423 114.666)
(-1.9555 -8.24492 114.287)
(-1.92677 -9.08121 112.293)
(-2.27482 -8.60765 110.979)
(-2.73804 -7.02706 108.959)
(-3.508 -4.13546 107.95)
(-4.48779 -0.888463 105.824)
(-5.40026 2.88295 104.954)
(-6.23127 6.18853 102.987)
(-6.73512 9.9186 102.36)
(-7.02851 12.9448 100.707)
(-7.08688 16.4164 100.266)
(-6.9205 18.9951 98.962)
(-6.68833 22.0797 98.5864)
(-6.25288 24.6259 97.6395)
(-5.80741 27.29 97.2415)
(-5.21603 29.6013 96.6127)
(-4.80986 31.9531 96.1422)
(-4.06747 34.1289 95.8258)
(-3.74686 36.3458 95.4063)
(-2.88297 38.4052 95.45)
(-2.52347 40.5036 95.0908)
(-1.51595 42.4098 95.4157)
(-1.02191 44.2835 95.1369)
(0.140996 46.1061 95.5645)
(0.953114 47.8953 95.5843)
(2.13679 49.3596 96.0751)
(3.29666 50.7846 96.458)
(4.64365 51.6891 97.007)
(6.02185 52.7653 97.525)
(7.49035 53.5022 98.0874)
(9.02869 54.3795 98.6384)
(10.6769 55.0131 99.3012)
(12.3581 55.4515 99.8081)
(14.0951 55.7366 100.411)
(15.8238 55.7824 100.792)
(17.4654 56.043 101.399)
(19.0016 55.9751 101.701)
(20.3978 55.4944 102.329)
(21.5867 54.7223 102.619)
(22.5896 53.6071 103.13)
(23.254 51.9089 103.431)
(23.7257 49.7043 103.84)
(23.8861 46.94 104.026)
(23.9067 43.7361 104.214)
(23.7064 39.8383 104.16)
(23.4627 35.2185 104.103)
(23.153 29.8621 103.756)
(22.8845 24.0281 103.38)
(22.6395 18.0826 102.701)
(22.551 12.0334 101.883)
(22.5396 5.7967 100.815)
(22.9213 -0.084088 99.36)
(23.2564 -5.77946 98.0609)
(24.0163 -10.3337 95.7799)
(24.9964 -14.4423 94.3705)
(26.2118 -16.8625 91.3019)
(28.5001 -18.0943 90.0306)
(30.1309 -17.4742 86.6435)
(33.1141 -14.9504 85.7618)
(34.4762 -10.9549 82.7771)
(36.6403 -5.44671 82.2611)
(37.109 0.765012 80.1022)
(37.882 7.83057 79.9216)
(36.3137 14.1832 78.7491)
(35.447 19.4518 79.0889)
(32.2347 23.3659 78.5803)
(30.575 25.9745 79.4095)
(27.6312 26.7373 79.5745)
(26.4543 26.6282 80.462)
(24.6964 25.1693 81.1514)
(22.9603 22.3297 81.8088)
(22.202 19.4784 82.3983)
(22.3213 18.6249 82.8352)
(22.2288 19.0179 83.5537)
)
;
    }
}


// ************************************************************************* //
