/*--------------------------------*- C++ -*----------------------------------*\
| =========                 |                                                 |
| \\      /  F ield         | OpenFOAM: The Open Source CFD Toolbox           |
|  \\    /   O peration     | Version:  5.x                                   |
|   \\  /    A nd           | Web:      www.OpenFOAM.org                      |
|    \\/     M anipulation  |                                                 |
\*---------------------------------------------------------------------------*/
FoamFile
{
    version     2.0;
    format      ascii;
    class       volVectorField;
    location    "8000";
    object      U;
}
// * * * * * * * * * * * * * * * * * * * * * * * * * * * * * * * * * * * * * //

dimensions      [0 1 -1 0 0 0 0];

internalField   nonuniform List<vector> 
180
(
(0.0361988 -0.0740586 108.647)
(0.0247783 -0.0793877 108.813)
(0.0309395 -0.0640028 108.979)
(-0.0162115 -0.0292244 109.087)
(-0.0269179 -0.0256623 108.473)
(-0.0253528 0.0523812 108.986)
(0.0707027 -0.0251581 108.835)
(-0.0493739 0.155137 108.828)
(-0.115 0.263205 109.02)
(-0.0493521 0.318767 108.892)
(-0.180874 0.569954 108.87)
(-0.098576 0.424172 109.1)
(-0.261141 0.492719 109.061)
(-0.430258 0.546295 109.066)
(-0.342243 0.475276 109.188)
(-0.314137 0.522 109.118)
(-0.171237 0.521112 109.215)
(-0.0215002 0.496851 109.443)
(0.158545 0.590398 108.782)
(0.17666 0.534126 109.186)
(0.1921 0.40429 109.385)
(0.252255 0.428642 109.397)
(0.229911 0.637435 108.958)
(0.0393959 0.65146 109.475)
(-0.0277259 0.687553 109.172)
(-0.102785 0.730931 109.399)
(-0.135814 0.787868 109.376)
(-0.175076 0.800498 109.466)
(-0.146421 0.657781 109.443)
(0.0545774 0.542797 109.522)
(0.215602 0.529981 109.559)
(0.296047 0.485837 109.557)
(0.416409 0.442079 109.782)
(0.389245 0.752642 109.008)
(0.190502 1.07501 109.26)
(0.160139 1.02876 109.765)
(0.492057 0.827064 109.694)
(0.51108 0.785265 108.623)
(0.112561 1.05304 109.468)
(0.0318171 1.10127 109.337)
(0.495179 0.707804 109.197)
(0.909504 0.327893 109.017)
(0.53096 0.596388 108.82)
(0.519726 0.570459 108.742)
(0.532896 0.502077 108.797)
(0.357123 0.304918 108.177)
(0.261577 0.23981 108.234)
(0.2528 0.0634891 108.592)
(0.429595 -0.272617 107.606)
(0.311067 -0.396069 107.532)
(0.0220907 -0.315997 108.294)
(0.31141 -0.509111 106.795)
(0.361237 -0.4313 106.989)
(0.110208 -0.359349 107.343)
(0.0671672 -0.338432 106.717)
(-0.025372 -0.168102 106.265)
(-0.0310186 -0.380857 106.622)
(-0.0599247 -0.406194 106.101)
(-0.124722 -0.308373 106.253)
(-0.177084 -0.725132 105.301)
(-0.367684 -0.812831 105.554)
(-0.480754 -0.831612 105.535)
(-0.52867 -0.890059 105.497)
(-0.624448 -0.767507 104.654)
(-0.686126 -0.718781 105.118)
(-0.774536 -0.75979 104.478)
(-0.878414 -0.926869 104.553)
(-0.981557 -1.06341 104.258)
(-1.07464 -1.17697 104.213)
(-1.21788 -1.22418 104.128)
(-1.42381 -1.19232 103.057)
(-1.36661 -1.19554 103.391)
(-1.27394 -1.30069 103.788)
(-1.52784 -1.30825 102.884)
(-1.8021 -1.09675 102.527)
(-1.73363 -0.962753 103.087)
(-2.00484 -1.1218 102.337)
(-2.3829 -1.34944 102)
(-2.1329 -1.48535 101.972)
(-0.338404 -1.07454 100.679)
(0.99199 -0.27857 99.6064)
(1.0985 0.886939 99.6013)
(1.08804 1.23129 99.0242)
(1.34652 0.225062 98.2198)
(1.54358 -0.606968 97.7342)
(0.600848 1.07465 96.284)
(-0.210937 2.17647 95.9573)
(-0.805877 3.01904 94.9763)
(-0.911348 3.52654 95.3176)
(-0.984133 3.09181 95.1604)
(-1.14315 2.34983 94.7024)
(-1.62636 2.27362 94.0801)
(-2.39308 2.53712 94.0651)
(-3.13686 2.92883 93.9727)
(-3.30516 3.10626 93.9212)
(-3.44573 2.94691 93.9707)
(-3.6943 2.70066 93.9986)
(-3.9356 2.55721 93.9569)
(-3.92291 3.29438 94.1713)
(-3.93644 3.60072 94.3221)
(-3.88549 3.89859 94.6138)
(-3.87346 4.18378 94.79)
(-3.88312 4.44406 95.1408)
(-3.83081 4.6809 95.5664)
(-4.6908 3.98763 95.9941)
(-5.92413 2.95617 96.5674)
(-6.53667 2.12183 97.3232)
(-6.65404 1.33809 97.8422)
(-6.57717 0.690216 98.3402)
(-6.32239 0.0184697 98.8554)
(-6.36314 -0.222994 99.3428)
(-6.02901 -0.812515 99.8324)
(-5.9498 -0.930575 100.334)
(-5.50539 -1.28575 100.968)
(-5.3343 -1.16075 101.489)
(-4.99173 -1.16759 102.232)
(-4.93453 -0.862395 102.901)
(-4.82448 -0.698742 103.608)
(-4.82442 -0.364191 104.412)
(-4.90129 -0.181062 105.066)
(-4.93568 0.182495 105.933)
(-5.14141 0.51325 106.502)
(-5.26026 0.992412 107.409)
(-5.56849 1.24497 108.054)
(-5.77314 1.86979 108.843)
(-6.13757 2.33531 109.49)
(-6.38248 3.12793 110.201)
(-6.7477 3.61117 110.966)
(-6.91665 4.12664 111.645)
(-7.17241 4.48212 112.431)
(-7.33814 4.91923 113.043)
(-7.69344 5.33105 113.828)
(-8.10488 5.79031 114.435)
(-8.82068 6.58993 115.214)
(-9.83695 7.55563 115.953)
(-11.2771 8.82312 116.965)
(-13.0234 10.1987 117.964)
(-15.0344 11.7739 119.201)
(-17.1811 13.3257 120.449)
(-19.3814 14.8561 121.873)
(-21.5408 16.185 123.295)
(-23.5641 17.3243 124.8)
(-25.3893 18.1304 126.27)
(-26.9574 18.681 127.802)
(-28.1969 18.849 129.225)
(-29.1288 18.8385 130.689)
(-29.7397 18.5104 131.992)
(-30.0426 18.0678 133.421)
(-30.0531 17.2994 134.539)
(-29.816 16.4938 135.865)
(-29.4295 15.5398 136.736)
(-28.9753 14.6906 137.912)
(-28.4594 13.7242 138.536)
(-28.0699 13.0261 139.583)
(-27.7119 12.3787 140.103)
(-27.6744 11.9587 141.031)
(-27.5958 11.4907 141.481)
(-27.9931 11.4369 142.339)
(-28.2397 11.1629 142.683)
(-29.0846 11.41 143.644)
(-29.658 11.3876 143.823)
(-30.9547 12.0202 144.773)
(-31.7887 12.592 145.042)
(-33.8406 13.965 145.814)
(-34.4694 15.5982 146.566)
(-36.7422 17.7098 146.91)
(-36.9925 20.2485 148.206)
(-38.3737 22.6092 148.428)
(-38.2368 25.6403 149.812)
(-37.9022 28.482 150.21)
(-36.5462 30.8208 151.526)
(-35.2485 32.815 152.13)
(-31.8212 34.2645 153.583)
(-27.9436 34.7984 154.273)
(-23.1175 34.4753 155.229)
(-19.2677 34.2398 156.707)
(-18.5923 31.9176 155.658)
(-17.6998 30.8439 155.963)
(-15.5522 30.2439 157.05)
(-15.2518 29.5448 156.787)
)
;

boundaryField
{
    inlet
    {
        type            zeroGradient;
    }
    outlet
    {
        type            zeroGradient;
    }
    repeat_boundary
    {
        type            slip;
    }
    procBoundary2to0
    {
        type            processor;
        value           nonuniform List<vector> 
180
(
(0.0490277 -0.074355 107.218)
(0.0759284 -0.0640272 107.91)
(0.0659102 -0.0556106 107.725)
(0.0915992 -0.0254612 107.58)
(0.0848904 0.0358958 107.596)
(0.0306327 0.140364 107.577)
(0.022691 0.259343 107.646)
(0.0397679 0.120178 107.412)
(-0.00933719 0.0437532 107.537)
(0.144648 -0.242412 107.293)
(0.296939 -0.179407 107.452)
(0.3261 -0.0100949 107.496)
(-0.100847 0.179023 107.431)
(-0.6629 0.321082 107.136)
(-0.208579 0.0384277 107.468)
(-0.0715907 0.0158609 107.136)
(0.524932 0.101185 106.876)
(0.79267 -0.0390102 106.939)
(0.951133 -0.0284279 106.847)
(0.709157 0.150543 106.651)
(0.265234 0.270823 106.211)
(0.52562 0.047268 106.313)
(0.587106 0.179759 105.858)
(0.647309 0.271316 105.899)
(1.14937 0.3984 105.297)
(1.32208 0.331448 105.13)
(1.49552 0.341543 105.113)
(1.58575 0.560601 104.945)
(1.42648 0.665825 104.045)
(1.3606 0.324296 104.593)
(1.43876 0.308158 103.922)
(1.57197 0.130346 103.587)
(1.48489 0.063708 103.473)
(1.36312 0.184594 103.633)
(1.77174 -0.100767 103.219)
(0.880609 -0.728476 102.167)
(-0.136477 -0.537073 103.078)
(-0.187709 -0.42568 102.862)
(0.456276 -1.09329 102.677)
(0.682382 -1.58839 102.48)
(0.244022 -1.29513 102.487)
(0.21454 -1.23506 102.447)
(-0.113116 -1.31667 102.577)
(-1.1126 -1.61663 102.365)
(-1.36021 -1.69264 102.603)
(-1.27398 -1.67551 102.876)
(-0.597679 -1.87871 102.918)
(-0.259143 -2.22583 102.747)
(-0.592726 -2.22625 103.253)
(-0.891804 -2.27626 102.973)
(-1.81176 -2.72242 103.553)
(-2.58016 -2.96218 103.506)
(-3.08581 -2.92754 104.009)
(-2.64862 -2.79549 104.037)
(-2.07933 -2.71341 104.006)
(-2.60146 -2.80063 105.042)
(-2.79135 -2.8612 104.551)
(-3.09841 -3.0057 104.907)
(-3.09977 -3.01297 105.873)
(-3.20281 -3.00488 105.369)
(-3.55961 -3.13718 106.212)
(-3.78699 -3.07046 106.343)
(-3.2191 -2.93429 107.187)
(-3.33614 -3.1968 107.241)
(-2.85656 -3.35264 107.905)
(-3.80872 -3.19438 108.116)
(-4.49947 -3.16529 108.181)
(-3.77357 -3.42154 109.425)
(-3.43228 -3.61332 109.459)
(-2.88277 -3.87545 110.117)
(-2.68968 -3.97112 110.41)
(-2.53751 -3.97402 110.737)
(-2.34831 -3.93345 111.257)
(-2.19085 -3.78493 111.438)
(-1.95057 -3.50274 111.887)
(-1.67822 -3.2907 111.865)
(-1.31336 -3.25536 112.14)
(-1.20317 -3.30836 112.314)
(-1.09591 -3.50755 112.706)
(-0.690322 -3.24563 112.705)
(-0.469703 -2.54411 112.904)
(-0.572483 -2.67934 113.077)
(-1.04834 -4.06513 112.935)
(-1.24652 -4.57087 113.305)
(-0.191539 -2.87862 112.792)
(-0.174683 -2.85516 113.193)
(-0.20729 -2.85551 113.256)
(-0.659429 -3.36899 113.01)
(-1.00036 -3.71057 113.227)
(0.333076 -1.89117 111.699)
(0.410101 -1.71982 112.318)
(0.430506 -1.69631 112.183)
(0.051661 -2.1447 111.72)
(-0.165974 -2.36737 111.613)
(0.393714 -1.63979 111.036)
(0.509633 -1.37818 111.081)
(0.658085 -0.879731 110.266)
(0.781878 -0.592325 110.094)
(0.908529 -0.321294 109.749)
(0.997964 -0.0582046 109.311)
(1.07639 0.207148 109.172)
(0.773598 0.41161 107.209)
(1.05531 0.83167 107.647)
(1.3241 1.13134 107.516)
(1.43294 1.48371 106.805)
(1.31569 1.69354 106.153)
(1.2952 1.21241 105.481)
(1.11743 0.646622 104.857)
(0.238012 0.507116 104.735)
(-1.02367 0.338445 104.151)
(-3.01334 0.747144 103.823)
(-5.21437 0.84145 103.485)
(-7.72324 1.65501 103.287)
(-9.91291 1.99489 103.004)
(-12.3616 2.86639 102.883)
(-14.4238 3.04328 102.829)
(-16.9117 3.82359 102.62)
(-18.7802 3.6306 102.998)
(-21.4568 4.35983 102.262)
(-21.3635 3.80002 103.193)
(-21.4371 3.6021 103.462)
(-23.8172 3.6955 102.655)
(-25.8325 4.17377 102.912)
(-28.5233 3.20304 102.164)
(-28.2399 2.7215 103.17)
(-28.8869 2.26095 103.096)
(-29.0836 2.23246 102.443)
(-28.8492 2.07894 103.058)
(-28.9012 1.96842 102.447)
(-28.9272 1.89431 102.512)
(-28.9805 1.89893 101.511)
(-28.8427 1.95166 102.103)
(-29.5537 2.22151 101.404)
(-32.0247 3.36815 100.887)
(-34.5324 5.03136 100.391)
(-37.5216 6.08443 100.11)
(-40.633 6.94612 99.7557)
(-43.6135 7.21202 99.3573)
(-46.021 7.22695 99.2238)
(-47.8229 6.76208 98.7101)
(-49.0705 5.94719 98.843)
(-50.1168 5.02389 97.9459)
(-50.2059 4.07834 98.3114)
(-50.0895 3.22326 98.1875)
(-50.1458 2.21425 98.0122)
(-49.8908 1.47784 97.9076)
(-49.2492 1.20722 97.7328)
(-48.696 0.933046 97.9333)
(-47.7523 0.202311 97.4027)
(-45.9267 -0.462736 97.2325)
(-44.7942 -1.30876 97.4582)
(-44.0889 -1.8696 97.5771)
(-43.5602 -2.27393 98.0087)
(-42.5249 -2.54433 97.9367)
(-41.4398 -2.89576 98.512)
(-40.4601 -3.23098 98.4867)
(-39.2034 -3.69322 99.2856)
(-37.5603 -3.7455 99.5676)
(-36.6789 -4.22643 100.555)
(-36.6413 -4.89768 101.097)
(-36.8502 -5.78299 101.553)
(-36.5532 -6.12598 102.315)
(-35.8988 -5.94643 102.641)
(-35.5642 -6.16631 103.827)
(-32.2325 -5.69945 103.365)
(-28.8633 -5.64014 103.175)
(-26.128 -5.77219 102.644)
(-26.233 -6.58354 103.348)
(-26.9683 -8.08134 102.887)
(-27.6569 -9.66254 101.982)
(-27.5291 -10.2604 101.302)
(-26.9276 -10.3505 100.506)
(-26.5961 -10.9391 99.8151)
(-26.2121 -11.5365 100.006)
(-24.1366 -10.8733 96.4114)
(-23.9223 -13.3632 97.5305)
(-23.9246 -14.7575 98.2441)
(-22.9507 -14.3422 96.3504)
(-22.2508 -14.3416 94.6855)
(-23.1976 -16.285 96.659)
)
;
    }
    procBoundary2to3
    {
        type            processor;
        value           nonuniform List<vector> 
180
(
(0.0409676 -0.0893562 107.912)
(0.0551447 -0.0916805 108.652)
(0.0518736 -0.0929423 108.587)
(0.0162526 -0.0941879 108.635)
(-0.00159148 -0.0784654 107.927)
(-0.035956 -0.0724247 108.506)
(0.135602 -0.00259588 108.315)
(0.0286131 0.0884005 108.324)
(-0.0423732 0.195605 108.375)
(-0.134909 0.407124 108.495)
(-0.310661 0.74822 108.264)
(-0.221731 0.52619 108.687)
(0.096814 0.100067 108.122)
(0.199185 0.0401555 108.573)
(0.489697 -0.250504 108.316)
(0.222497 -0.111892 108.357)
(-0.00995529 -0.0646781 108.243)
(0.293843 0.0866438 108.434)
(0.143659 0.777963 108.023)
(0.347107 0.346736 108.272)
(0.38342 0.28221 108.062)
(0.379873 0.211089 108.118)
(0.228749 0.124677 108.053)
(0.109812 0.0317443 108.035)
(0.0409093 -0.0696786 108.151)
(0.303762 -0.653138 107.57)
(0.412092 -0.764431 107.777)
(0.471588 -0.840178 107.928)
(0.268229 -1.0022 107.96)
(0.103731 -1.0164 107.241)
(0.509472 -0.794159 108.052)
(0.645207 -0.925167 107.272)
(0.750554 -0.869904 107.619)
(0.785393 -0.810074 107.893)
(0.697931 -1.1054 107.589)
(0.946979 -1.14298 107.524)
(0.915782 -0.898643 108.327)
(0.793308 -0.83869 107.514)
(0.836207 -0.877195 107.918)
(0.575311 -0.59883 108.288)
(0.887648 -0.840864 108.137)
(1.35076 -1.18401 108.15)
(0.970843 -0.924633 108.434)
(0.958606 -1.04296 108.377)
(0.9723 -1.1524 108.514)
(0.970271 -1.31065 108.547)
(0.945066 -1.48003 108.703)
(1.06941 -0.115799 108.347)
(0.998893 -0.134612 108.584)
(0.768304 -0.21825 108.802)
(0.857612 -0.841742 108.95)
(1.18378 -0.425636 108.347)
(0.903765 0.0244712 108.856)
(0.787256 0.025747 108.703)
(0.697189 -0.362673 108.981)
(0.649959 -0.711369 108.493)
(0.648957 -0.251258 108.969)
(0.636448 -0.207518 108.628)
(0.688624 0.179303 108.855)
(0.580605 0.284377 108.699)
(0.431496 0.336072 108.858)
(0.309742 0.539787 109.056)
(0.369471 0.865997 108.581)
(0.298845 1.0029 109.277)
(0.171563 1.17073 108.881)
(0.132516 1.25526 109.137)
(0.0544194 1.24603 109.13)
(0.401281 0.618245 108.957)
(0.460499 0.380415 108.903)
(0.464315 0.0468802 109.007)
(0.133328 0.213631 109.045)
(-0.185755 0.527229 108.339)
(0.117009 -0.232274 108.927)
(0.225925 -0.617584 108.338)
(0.893824 -0.92083 107.948)
(2.68352 -0.329447 108.058)
(4.45347 0.189745 107.833)
(6.29636 1.2464 108.031)
(7.76634 1.87476 108.067)
(8.98321 2.66606 108.523)
(9.70769 3.40253 108.884)
(10.2835 4.01431 109.599)
(10.6049 4.26332 110.123)
(10.4632 4.3885 110.913)
(10.2758 4.53144 111.609)
(10.2376 4.61451 112.279)
(9.742 4.63376 112.89)
(9.13416 4.51977 113.647)
(8.08885 4.29483 113.974)
(7.50525 4.22302 114.775)
(7.27346 4.25101 115.063)
(6.80235 4.04592 115.413)
(6.29312 3.98923 116.161)
(6.19631 4.06421 116.135)
(5.88691 3.83684 116.571)
(5.41664 3.69926 116.775)
(4.61461 3.4839 117.21)
(4.54098 3.36681 117.128)
(4.23686 3.18765 117.229)
(3.92203 3.27504 117.465)
(3.93341 3.53938 117.45)
(3.69548 3.29711 117.88)
(2.51783 1.9979 117.778)
(1.0796 -0.142701 117.436)
(-0.0935389 -2.18461 117.642)
(-1.05383 -4.81712 116.091)
(-1.61456 -6.45825 115.774)
(-1.74586 -7.88888 114.143)
(-1.99462 -8.46783 112.98)
(-2.32924 -8.11426 111.007)
(-2.85382 -6.28689 110.048)
(-3.64145 -3.85253 107.915)
(-4.49235 -0.456966 106.983)
(-5.39582 2.66522 104.969)
(-6.10234 6.39222 104.195)
(-6.60351 9.48145 102.49)
(-6.90334 13.0883 101.865)
(-6.92514 15.9079 100.563)
(-6.85744 19.0475 100.02)
(-6.54631 21.7816 99.086)
(-6.23512 24.5755 98.5301)
(-5.6503 27.0454 97.9343)
(-5.3221 29.4771 97.3422)
(-4.53929 31.6801 97.0333)
(-4.23451 33.916 96.4821)
(-3.36349 35.9702 96.4887)
(-3.02522 38.0654 96.0458)
(-2.08301 40.0368 96.264)
(-1.61055 41.9234 95.9643)
(-0.598706 43.7102 96.2322)
(0.203118 45.5654 96.2166)
(1.26404 47.0731 96.5564)
(2.33838 48.6815 96.8713)
(3.56839 49.8297 97.3019)
(4.87125 50.9827 97.7549)
(6.25199 51.8438 98.2937)
(7.69881 52.7759 98.7899)
(9.24881 53.6622 99.4402)
(10.8565 54.2839 99.9357)
(12.523 54.7847 100.589)
(14.231 54.958 100.948)
(15.9062 55.1829 101.572)
(17.5011 55.3464 101.877)
(19.0202 55.2138 102.469)
(20.3493 54.791 102.792)
(21.5542 54.0648 103.281)
(22.4531 52.8628 103.593)
(23.1636 51.2166 104.004)
(23.5536 49.0278 104.243)
(23.7704 46.4605 104.511)
(23.7336 43.2817 104.553)
(23.5881 39.4677 104.608)
(23.3258 34.8664 104.412)
(23.0727 29.5607 104.157)
(22.7741 23.8524 103.7)
(22.6246 18.0187 103.002)
(22.4456 11.8343 102.282)
(22.6229 5.8538 100.884)
(22.845 -0.196505 99.9976)
(23.2944 -5.36189 97.7728)
(24.1706 -10.2701 96.7161)
(24.8458 -13.9186 93.6705)
(26.8694 -16.4889 92.5181)
(28.1333 -17.5862 89.1056)
(30.992 -16.7889 87.9822)
(32.5566 -14.4747 84.8938)
(35.0455 -10.3756 83.9386)
(35.9569 -5.36513 81.6124)
(37.5825 0.934969 80.9651)
(36.8927 7.37523 79.4547)
(36.9376 13.4533 79.4023)
(34.5695 18.3689 78.599)
(33.0828 22.2889 78.9848)
(30.3527 24.4241 78.9098)
(28.6214 25.4485 79.4916)
(26.8589 25.2095 80.1209)
(25.7258 23.834 80.6097)
(23.5545 21.0553 81.4453)
(23.9011 19.5112 81.3983)
(24.728 18.7722 81.9037)
)
;
    }
}


// ************************************************************************* //
