/*--------------------------------*- C++ -*----------------------------------*\
| =========                 |                                                 |
| \\      /  F ield         | OpenFOAM: The Open Source CFD Toolbox           |
|  \\    /   O peration     | Version:  5.x                                   |
|   \\  /    A nd           | Web:      www.OpenFOAM.org                      |
|    \\/     M anipulation  |                                                 |
\*---------------------------------------------------------------------------*/
FoamFile
{
    version     2.0;
    format      ascii;
    class       volVectorField;
    location    "900";
    object      stored_U;
}
// * * * * * * * * * * * * * * * * * * * * * * * * * * * * * * * * * * * * * //

dimensions      [0 1 -1 0 0 0 0];

internalField   nonuniform List<vector> 
90
(
(1.86699e-09 -3.75559e-09 -0.000999979)
(2.54483e-09 -6.22359e-09 -0.000999977)
(3.50062e-09 -9.3314e-09 -0.000999974)
(4.56297e-09 -1.28127e-08 -0.000999971)
(5.69767e-09 -1.67204e-08 -0.000999966)
(6.88269e-09 -2.11505e-08 -0.00099996)
(8.07546e-09 -2.61996e-08 -0.000999953)
(9.20041e-09 -3.19575e-08 -0.000999944)
(1.01372e-08 -3.85018e-08 -0.000999934)
(1.07061e-08 -4.5891e-08 -0.000999922)
(1.06483e-08 -5.41541e-08 -0.000999909)
(9.59889e-09 -6.32736e-08 -0.000999894)
(7.05041e-09 -7.31613e-08 -0.000999878)
(2.31011e-09 -8.36258e-08 -0.00099986)
(-5.55474e-09 -9.43285e-08 -0.000999842)
(-1.79612e-08 -1.04634e-07 -0.000999823)
(-3.68413e-08 -1.13556e-07 -0.000999807)
(-6.48437e-08 -1.19595e-07 -0.000999794)
(-1.05598e-07 -1.20519e-07 -0.000999789)
(-1.64072e-07 -1.13063e-07 -0.000999795)
(-2.47045e-07 -9.25109e-08 -0.00099982)
(-3.63714e-07 -5.22022e-08 -0.000999873)
(-5.26461e-07 1.7059e-08 -0.000999968)
(-7.52165e-07 1.28402e-07 -0.00100012)
(-1.06347e-06 2.99734e-07 -0.00100036)
(-1.49102e-06 5.56024e-07 -0.00100073)
(-2.07614e-06 9.3175e-07 -0.00100127)
(-2.87445e-06 1.47415e-06 -0.00100205)
(-3.96075e-06 2.24778e-06 -0.00100317)
(-5.43575e-06 3.34081e-06 -0.00100474)
(-7.43512e-06 4.87377e-06 -0.00100693)
(-1.01434e-05 7.01335e-06 -0.00101008)
(-1.38291e-05 1.00033e-05 -0.00101496)
(-1.89249e-05 1.42294e-05 -0.00102179)
(-2.59235e-05 2.01491e-05 -0.00102503)
(-3.19064e-05 2.55085e-05 -0.00101755)
(-3.67244e-05 3.13679e-05 -0.00105102)
(-3.28168e-05 3.13579e-05 -0.00128603)
(-2.41213e-05 2.27981e-05 -0.00036874)
(8.99516e-05 -5.15027e-05 -0.00259664)
(-3.63545e-06 9.44486e-08 -0.00119158)
(-6.68646e-05 1.84037e-05 -0.00305144)
(-2.51558e-05 1.58648e-05 -0.00180937)
(-8.88836e-05 2.33751e-05 -0.00332501)
(-7.41753e-05 -4.94788e-05 -0.00215444)
(-8.79852e-05 -1.81559e-05 -0.00331448)
(-5.58372e-05 3.3878e-05 -0.00195651)
(-2.51631e-05 0.00012914 -0.00332854)
(1.22019e-05 2.16222e-05 -0.00232752)
(-5.54544e-05 -4.23948e-05 -0.00275321)
(-4.27279e-05 -5.63268e-05 -0.0026486)
(-1.43198e-05 -2.62166e-05 -0.00168038)
(-3.56168e-06 1.14832e-05 -0.0024696)
(7.28684e-05 -3.73467e-05 -0.00107494)
(7.66693e-05 -4.88122e-05 -0.00106775)
(6.26599e-05 -4.19942e-05 -0.00108207)
(4.82669e-05 -3.24616e-05 -0.00106803)
(3.78031e-05 -2.51104e-05 -0.00105265)
(2.96859e-05 -1.94201e-05 -0.001041)
(2.33312e-05 -1.50134e-05 -0.00103218)
(1.83557e-05 -1.16101e-05 -0.00102532)
(1.44584e-05 -8.98379e-06 -0.00101995)
(1.14031e-05 -6.95561e-06 -0.00101574)
(9.00524e-06 -5.38917e-06 -0.00101243)
(7.12114e-06 -4.17888e-06 -0.00100984)
(5.6389e-06 -3.2433e-06 -0.00100779)
(4.4713e-06 -2.51966e-06 -0.00100618)
(3.55033e-06 -1.95962e-06 -0.00100491)
(2.82294e-06 -1.52591e-06 -0.00100391)
(2.24766e-06 -1.18979e-06 -0.00100311)
(1.79209e-06 -9.29085e-07 -0.00100248)
(1.43084e-06 -7.26679e-07 -0.00100198)
(1.14409e-06 -5.69353e-07 -0.00100159)
(9.16281e-07 -4.46911e-07 -0.00100127)
(7.35021e-07 -3.51493e-07 -0.00100102)
(5.9052e-07 -2.77034e-07 -0.00100082)
(4.7516e-07 -2.18846e-07 -0.00100066)
(3.82974e-07 -1.73298e-07 -0.00100053)
(3.09226e-07 -1.37581e-07 -0.00100043)
(2.50165e-07 -1.09524e-07 -0.00100034)
(2.02826e-07 -8.74478e-08 -0.00100028)
(1.6487e-07 -7.00543e-08 -0.00100023)
(1.3445e-07 -5.6343e-08 -0.00100018)
(1.10106e-07 -4.55433e-08 -0.00100015)
(9.06906e-08 -3.70629e-08 -0.00100012)
(7.52884e-08 -3.04458e-08 -0.0010001)
(6.31447e-08 -2.53266e-08 -0.00100008)
(5.36222e-08 -2.13905e-08 -0.00100006)
(4.64678e-08 -1.84442e-08 -0.00100004)
(4.35559e-08 -1.71858e-08 -0.00100003)
)
;

boundaryField
{
    inlet
    {
        type            calculated;
        value           uniform (4.35559e-08 -1.71858e-08 -0.00100003);
    }
    outlet
    {
        type            calculated;
        value           uniform (1.86699e-09 -3.75559e-09 -0.000999979);
    }
    repeat_boundary
    {
        type            calculated;
        value           nonuniform List<vector> 
180
(
(1.86699e-09 0 -0.000999979)
(2.54483e-09 0 -0.000999977)
(3.50062e-09 0 -0.000999974)
(4.56297e-09 0 -0.000999971)
(5.69767e-09 0 -0.000999966)
(6.88269e-09 0 -0.00099996)
(8.07546e-09 0 -0.000999953)
(9.20041e-09 0 -0.000999944)
(1.01372e-08 0 -0.000999934)
(1.07061e-08 0 -0.000999922)
(1.06483e-08 0 -0.000999909)
(9.59889e-09 0 -0.000999894)
(7.05041e-09 0 -0.000999878)
(2.31011e-09 0 -0.00099986)
(-5.55474e-09 0 -0.000999842)
(-1.79612e-08 0 -0.000999823)
(-3.68413e-08 0 -0.000999807)
(-6.48437e-08 0 -0.000999794)
(-1.05598e-07 0 -0.000999789)
(-1.64072e-07 0 -0.000999795)
(-2.47045e-07 0 -0.00099982)
(-3.63714e-07 0 -0.000999873)
(-5.26461e-07 0 -0.000999968)
(-7.52165e-07 0 -0.00100012)
(-1.06347e-06 0 -0.00100036)
(-1.49102e-06 0 -0.00100073)
(-2.07614e-06 0 -0.00100127)
(-2.87445e-06 0 -0.00100205)
(-3.96075e-06 0 -0.00100317)
(-5.43575e-06 0 -0.00100474)
(-7.43512e-06 0 -0.00100693)
(-1.01434e-05 0 -0.00101008)
(-1.38291e-05 0 -0.00101496)
(-1.89249e-05 0 -0.00102179)
(-2.59235e-05 0 -0.00102503)
(-3.19064e-05 0 -0.00101755)
(-3.67244e-05 0 -0.00105102)
(-3.28168e-05 0 -0.00128603)
(-2.41213e-05 0 -0.00036874)
(8.99516e-05 0 -0.00259664)
(-3.63545e-06 0 -0.00119158)
(-6.68646e-05 0 -0.00305144)
(-2.51558e-05 0 -0.00180937)
(-8.88836e-05 0 -0.00332501)
(-7.41753e-05 0 -0.00215444)
(-8.79852e-05 0 -0.00331448)
(-5.58372e-05 0 -0.00195651)
(-2.51631e-05 0 -0.00332854)
(1.22019e-05 0 -0.00232752)
(-5.54544e-05 0 -0.00275321)
(-4.27279e-05 0 -0.0026486)
(-1.43198e-05 0 -0.00168038)
(-3.56168e-06 0 -0.0024696)
(7.28684e-05 0 -0.00107494)
(7.66693e-05 0 -0.00106775)
(6.26599e-05 0 -0.00108207)
(4.82669e-05 0 -0.00106803)
(3.78031e-05 0 -0.00105265)
(2.96859e-05 0 -0.001041)
(2.33312e-05 0 -0.00103218)
(1.83557e-05 0 -0.00102532)
(1.44584e-05 0 -0.00101995)
(1.14031e-05 0 -0.00101574)
(9.00524e-06 0 -0.00101243)
(7.12114e-06 0 -0.00100984)
(5.6389e-06 0 -0.00100779)
(4.4713e-06 0 -0.00100618)
(3.55033e-06 0 -0.00100491)
(2.82294e-06 0 -0.00100391)
(2.24766e-06 0 -0.00100311)
(1.79209e-06 0 -0.00100248)
(1.43084e-06 0 -0.00100198)
(1.14409e-06 0 -0.00100159)
(9.16281e-07 0 -0.00100127)
(7.35021e-07 0 -0.00100102)
(5.9052e-07 0 -0.00100082)
(4.7516e-07 0 -0.00100066)
(3.82974e-07 0 -0.00100053)
(3.09226e-07 0 -0.00100043)
(2.50165e-07 0 -0.00100034)
(2.02826e-07 0 -0.00100028)
(1.6487e-07 0 -0.00100023)
(1.3445e-07 0 -0.00100018)
(1.10106e-07 0 -0.00100015)
(9.06906e-08 0 -0.00100012)
(7.52884e-08 0 -0.0010001)
(6.31447e-08 0 -0.00100008)
(5.36222e-08 0 -0.00100006)
(4.64678e-08 0 -0.00100004)
(4.35559e-08 0 -0.00100003)
(0 -3.75559e-09 -0.000999979)
(0 -6.22359e-09 -0.000999977)
(0 -9.3314e-09 -0.000999974)
(0 -1.28127e-08 -0.000999971)
(0 -1.67204e-08 -0.000999966)
(0 -2.11505e-08 -0.00099996)
(0 -2.61996e-08 -0.000999953)
(0 -3.19575e-08 -0.000999944)
(0 -3.85018e-08 -0.000999934)
(0 -4.5891e-08 -0.000999922)
(0 -5.41541e-08 -0.000999909)
(0 -6.32736e-08 -0.000999894)
(0 -7.31613e-08 -0.000999878)
(0 -8.36258e-08 -0.00099986)
(0 -9.43285e-08 -0.000999842)
(0 -1.04634e-07 -0.000999823)
(0 -1.13556e-07 -0.000999807)
(0 -1.19595e-07 -0.000999794)
(0 -1.20519e-07 -0.000999789)
(0 -1.13063e-07 -0.000999795)
(0 -9.25109e-08 -0.00099982)
(0 -5.22022e-08 -0.000999873)
(0 1.7059e-08 -0.000999968)
(0 1.28402e-07 -0.00100012)
(0 2.99734e-07 -0.00100036)
(0 5.56024e-07 -0.00100073)
(0 9.3175e-07 -0.00100127)
(0 1.47415e-06 -0.00100205)
(0 2.24778e-06 -0.00100317)
(0 3.34081e-06 -0.00100474)
(0 4.87377e-06 -0.00100693)
(0 7.01335e-06 -0.00101008)
(0 1.00033e-05 -0.00101496)
(0 1.42294e-05 -0.00102179)
(0 2.01491e-05 -0.00102503)
(0 2.55085e-05 -0.00101755)
(0 3.13679e-05 -0.00105102)
(0 3.13579e-05 -0.00128603)
(0 2.27981e-05 -0.00036874)
(0 -5.15027e-05 -0.00259664)
(0 9.44486e-08 -0.00119158)
(0 1.84037e-05 -0.00305144)
(0 1.58648e-05 -0.00180937)
(0 2.33751e-05 -0.00332501)
(0 -4.94788e-05 -0.00215444)
(0 -1.81559e-05 -0.00331448)
(0 3.3878e-05 -0.00195651)
(0 0.00012914 -0.00332854)
(0 2.16222e-05 -0.00232752)
(0 -4.23948e-05 -0.00275321)
(0 -5.63268e-05 -0.0026486)
(0 -2.62166e-05 -0.00168038)
(0 1.14832e-05 -0.0024696)
(0 -3.73467e-05 -0.00107494)
(0 -4.88122e-05 -0.00106775)
(0 -4.19942e-05 -0.00108207)
(0 -3.24616e-05 -0.00106803)
(0 -2.51104e-05 -0.00105265)
(0 -1.94201e-05 -0.001041)
(0 -1.50134e-05 -0.00103218)
(0 -1.16101e-05 -0.00102532)
(0 -8.98379e-06 -0.00101995)
(0 -6.95561e-06 -0.00101574)
(0 -5.38917e-06 -0.00101243)
(0 -4.17888e-06 -0.00100984)
(0 -3.2433e-06 -0.00100779)
(0 -2.51966e-06 -0.00100618)
(0 -1.95962e-06 -0.00100491)
(0 -1.52591e-06 -0.00100391)
(0 -1.18979e-06 -0.00100311)
(0 -9.29085e-07 -0.00100248)
(0 -7.26679e-07 -0.00100198)
(0 -5.69353e-07 -0.00100159)
(0 -4.46911e-07 -0.00100127)
(0 -3.51493e-07 -0.00100102)
(0 -2.77034e-07 -0.00100082)
(0 -2.18846e-07 -0.00100066)
(0 -1.73298e-07 -0.00100053)
(0 -1.37581e-07 -0.00100043)
(0 -1.09524e-07 -0.00100034)
(0 -8.74478e-08 -0.00100028)
(0 -7.00543e-08 -0.00100023)
(0 -5.6343e-08 -0.00100018)
(0 -4.55433e-08 -0.00100015)
(0 -3.70629e-08 -0.00100012)
(0 -3.04458e-08 -0.0010001)
(0 -2.53266e-08 -0.00100008)
(0 -2.13905e-08 -0.00100006)
(0 -1.84442e-08 -0.00100004)
(0 -1.71858e-08 -0.00100003)
)
;
    }
    procBoundary1to0
    {
        type            processor;
        value           nonuniform List<vector> 
90
(
(1.86701e-09 -5.65425e-09 -0.000999988)
(2.54487e-09 -1.00078e-08 -0.000999987)
(3.50069e-09 -1.54176e-08 -0.000999985)
(4.56308e-09 -2.15908e-08 -0.000999982)
(5.69775e-09 -2.8752e-08 -0.000999978)
(6.88267e-09 -3.72477e-08 -0.000999973)
(8.07546e-09 -4.75113e-08 -0.000999965)
(9.2005e-09 -6.00818e-08 -0.000999955)
(1.01374e-08 -7.56308e-08 -0.000999943)
(1.07064e-08 -9.50023e-08 -0.000999926)
(1.06488e-08 -1.19258e-07 -0.000999905)
(9.59974e-09 -1.4974e-07 -0.000999877)
(7.05187e-09 -1.88143e-07 -0.000999842)
(2.31269e-09 -2.36618e-07 -0.000999798)
(-5.55016e-09 -2.97889e-07 -0.00099974)
(-1.79529e-08 -3.755e-07 -0.000999666)
(-3.68263e-08 -4.73985e-07 -0.00099957)
(-6.48165e-08 -5.99167e-07 -0.000999446)
(-1.05549e-07 -7.58547e-07 -0.000999285)
(-1.63981e-07 -9.61799e-07 -0.000999075)
(-2.46877e-07 -1.22143e-06 -0.000998803)
(-3.63408e-07 -1.55361e-06 -0.000998447)
(-5.25904e-07 -1.97933e-06 -0.000997983)
(-7.51163e-07 -2.52575e-06 -0.000997377)
(-1.06168e-06 -3.22819e-06 -0.000996584)
(-1.48781e-06 -4.1325e-06 -0.000995545)
(-2.0704e-06 -5.29832e-06 -0.000994184)
(-2.86418e-06 -6.80324e-06 -0.000992401)
(-3.94239e-06 -8.74837e-06 -0.00099006)
(-5.40312e-06 -1.12658e-05 -0.000986981)
(-7.37779e-06 -1.45286e-05 -0.000982928)
(-1.00437e-05 -1.87674e-05 -0.000977694)
(-1.36497e-05 -2.43026e-05 -0.000971111)
(-1.85622e-05 -3.15816e-05 -0.000962052)
(-2.51654e-05 -4.09758e-05 -0.000945582)
(-3.19633e-05 -5.01893e-05 -0.000921059)
(-3.60104e-05 -5.5064e-05 -0.000916594)
(-3.33758e-05 -4.96057e-05 -0.00105006)
(-2.54507e-05 -3.40292e-05 -0.000362121)
(0.000103322 0.000137799 -0.00194679)
(-5.74486e-06 -8.26324e-06 -0.0016921)
(-3.69587e-05 -6.83004e-05 -0.00154091)
(-3.37633e-05 -5.81962e-05 -0.00241105)
(-6.61543e-05 -5.90205e-05 -0.00214473)
(-8.39572e-05 -7.69911e-05 -0.0024337)
(-5.13311e-05 -3.69758e-05 -0.00181218)
(-6.43256e-05 2.61345e-05 -0.00260187)
(-1.74386e-05 5.41987e-05 -0.00174618)
(1.50135e-05 8.6011e-05 -0.00234286)
(-5.24083e-05 -2.30393e-05 -0.00227988)
(-3.25871e-05 -3.80405e-05 -0.00165633)
(-1.27437e-05 -1.04506e-05 -0.00162185)
(2.36524e-05 6.16998e-05 -0.00180689)
(4.21189e-05 3.48494e-05 -0.00102177)
(5.91024e-05 3.98661e-05 -0.000867796)
(6.01122e-05 3.1481e-05 -0.000912271)
(4.90362e-05 2.37253e-05 -0.000940618)
(3.85033e-05 1.75355e-05 -0.000954963)
(3.01213e-05 1.29016e-05 -0.000964997)
(2.35912e-05 9.45141e-06 -0.000972868)
(1.85105e-05 6.89627e-06 -0.000979003)
(1.45509e-05 5.01025e-06 -0.000983735)
(1.14585e-05 3.62038e-06 -0.000987383)
(9.03851e-06 2.59928e-06 -0.000990199)
(7.14119e-06 1.85165e-06 -0.000992376)
(5.65103e-06 1.30648e-06 -0.000994061)
(4.47866e-06 9.10869e-07 -0.000995367)
(3.55482e-06 6.25476e-07 -0.000996381)
(2.82568e-06 4.21062e-07 -0.00099717)
(2.24934e-06 2.75913e-07 -0.000997783)
(1.79312e-06 1.73939e-07 -0.000998261)
(1.43148e-06 1.03262e-07 -0.000998634)
(1.14448e-06 5.52142e-08 -0.000998927)
(9.16527e-07 2.35354e-08 -0.000999156)
(7.35174e-07 3.27412e-09 -0.000999334)
(5.90615e-07 -9.22715e-09 -0.000999474)
(4.7522e-07 -1.64392e-08 -0.000999584)
(3.83012e-07 -2.00492e-08 -0.000999672)
(3.0925e-07 -2.13001e-08 -0.000999741)
(2.5018e-07 -2.10839e-08 -0.000999796)
(2.02836e-07 -2.00213e-08 -0.00099984)
(1.64876e-07 -1.85305e-08 -0.000999875)
(1.34453e-07 -1.68867e-08 -0.000999903)
(1.10109e-07 -1.52649e-08 -0.000999925)
(9.06918e-08 -1.37711e-08 -0.000999942)
(7.52886e-08 -1.24639e-08 -0.000999955)
(6.31415e-08 -1.13645e-08 -0.000999966)
(5.36012e-08 -1.04507e-08 -0.000999974)
(4.64911e-08 -9.6872e-09 -0.000999982)
(4.35589e-08 -9.33169e-09 -0.000999985)
)
;
    }
    procBoundary1to3
    {
        type            processor;
        value           nonuniform List<vector> 
90
(
(3.76563e-09 -3.75562e-09 -0.00100001)
(6.32898e-09 -6.22363e-09 -0.00100001)
(9.58671e-09 -9.33143e-09 -0.00100001)
(1.33409e-08 -1.28128e-08 -0.00100001)
(1.77292e-08 -1.67205e-08 -0.00100001)
(2.29801e-08 -2.11506e-08 -0.00100001)
(2.93875e-08 -2.61998e-08 -0.00100001)
(3.73249e-08 -3.19578e-08 -0.00100001)
(4.72664e-08 -3.85021e-08 -0.00100001)
(5.98176e-08 -4.58915e-08 -0.001)
(7.57529e-08 -5.41549e-08 -0.000999999)
(9.60655e-08 -6.32748e-08 -0.000999993)
(1.22033e-07 -7.31632e-08 -0.000999984)
(1.55304e-07 -8.36289e-08 -0.00099997)
(1.98009e-07 -9.43333e-08 -0.000999951)
(2.5291e-07 -1.04642e-07 -0.000999924)
(3.23596e-07 -1.1357e-07 -0.000999886)
(4.14745e-07 -1.19617e-07 -0.000999833)
(5.32458e-07 -1.20557e-07 -0.000999758)
(6.84717e-07 -1.13128e-07 -0.000999655)
(8.81967e-07 -9.26269e-08 -0.000999512)
(1.13787e-06 -5.24089e-08 -0.000999315)
(1.47023e-06 1.66875e-08 -0.000999045)
(1.9025e-06 1.2773e-07 -0.000998676)
(2.46531e-06 2.98512e-07 -0.000998174)
(3.19892e-06 5.53795e-07 -0.000997489)
(4.15625e-06 9.27678e-07 -0.00099656)
(5.40676e-06 1.46671e-06 -0.000995302)
(7.04169e-06 2.23422e-06 -0.000993601)
(9.1812e-06 3.31629e-06 -0.000991298)
(1.19844e-05 4.83008e-06 -0.000988181)
(1.56655e-05 6.93626e-06 -0.000984078)
(2.05222e-05 9.8611e-06 -0.000978968)
(2.69602e-05 1.39311e-05 -0.000972019)
(3.5344e-05 1.952e-05 -0.000957707)
(4.41345e-05 2.5803e-05 -0.000930154)
(4.96689e-05 3.05797e-05 -0.000922646)
(4.88678e-05 3.23476e-05 -0.00110444)
(3.56463e-05 2.59537e-05 -0.000299343)
(-8.37547e-05 -5.29718e-05 -0.00210391)
(3.2334e-06 9.85446e-07 -0.00158025)
(3.87454e-05 5.63318e-06 -0.00162162)
(6.22028e-05 3.54715e-05 -0.0028891)
(-6.23571e-07 -3.20462e-06 -0.00152061)
(-6.42508e-05 -5.49629e-05 -0.0027736)
(-5.10308e-05 -2.10338e-05 -0.00200094)
(-5.15185e-05 7.47838e-05 -0.00253079)
(-4.3543e-05 5.39955e-05 -0.00199955)
(-3.97179e-05 1.68603e-05 -0.00268395)
(-4.70929e-05 -4.72206e-05 -0.00162963)
(-7.80434e-05 -5.75955e-05 -0.00276642)
(-2.92848e-05 -3.68885e-05 -0.00112751)
(-6.15909e-05 -4.90921e-05 -0.0020064)
(9.46594e-06 -4.14123e-05 -0.00108754)
(-1.98004e-05 -4.74302e-05 -0.000944377)
(-1.34261e-05 -4.17658e-05 -0.000953515)
(-8.17609e-06 -3.32463e-05 -0.000975205)
(-4.77234e-06 -2.56514e-05 -0.000983072)
(-2.56745e-06 -1.97425e-05 -0.000987707)
(-1.08938e-06 -1.52008e-05 -0.000991175)
(-1.2337e-07 -1.17185e-05 -0.000993782)
(4.81152e-07 -9.04634e-06 -0.000995674)
(8.37367e-07 -6.99168e-06 -0.000997033)
(1.02305e-06 -5.40996e-06 -0.000998012)
(1.09444e-06 -4.19085e-06 -0.000998709)
(1.09146e-06 -3.25019e-06 -0.0009992)
(1.0422e-06 -2.52363e-06 -0.000999542)
(9.66119e-07 -1.96191e-06 -0.000999776)
(8.76509e-07 -1.52723e-06 -0.000999933)
(7.82289e-07 -1.19055e-06 -0.00100003)
(6.89263e-07 -9.29529e-07 -0.00100009)
(6.01025e-07 -7.26937e-07 -0.00100013)
(5.19594e-07 -5.69504e-07 -0.00100014)
(4.4588e-07 -4.46999e-07 -0.00100015)
(3.80282e-07 -3.51544e-07 -0.00100014)
(3.2273e-07 -2.77065e-07 -0.00100013)
(2.72764e-07 -2.18864e-07 -0.00100012)
(2.29732e-07 -1.73308e-07 -0.00100011)
(1.92949e-07 -1.37588e-07 -0.0010001)
(1.61727e-07 -1.09528e-07 -0.00100009)
(1.35401e-07 -8.745e-08 -0.00100008)
(1.13347e-07 -7.00556e-08 -0.00100007)
(9.49938e-08 -5.63437e-08 -0.00100006)
(7.98282e-08 -4.55437e-08 -0.00100005)
(6.73984e-08 -3.70631e-08 -0.00100004)
(5.73053e-08 -3.04452e-08 -0.00100004)
(4.91782e-08 -2.53239e-08 -0.00100003)
(4.26671e-08 -2.13806e-08 -0.00100002)
(3.77291e-08 -1.84561e-08 -0.00100002)
(3.57059e-08 -1.71883e-08 -0.00100001)
)
;
    }
}


// ************************************************************************* //
