/*--------------------------------*- C++ -*----------------------------------*\
| =========                 |                                                 |
| \\      /  F ield         | OpenFOAM: The Open Source CFD Toolbox           |
|  \\    /   O peration     | Version:  5.x                                   |
|   \\  /    A nd           | Web:      www.OpenFOAM.org                      |
|    \\/     M anipulation  |                                                 |
\*---------------------------------------------------------------------------*/
FoamFile
{
    version     2.0;
    format      ascii;
    class       volVectorField;
    location    "900";
    object      U;
}
// * * * * * * * * * * * * * * * * * * * * * * * * * * * * * * * * * * * * * //

dimensions      [0 1 -1 0 0 0 0];

internalField   nonuniform List<vector> 
90
(
(1.82919e-09 -3.77306e-09 -0.000999976)
(2.41898e-09 -6.20955e-09 -0.000999974)
(3.28992e-09 -9.29991e-09 -0.000999972)
(4.27532e-09 -1.27826e-08 -0.000999968)
(5.34198e-09 -1.67159e-08 -0.000999964)
(6.46731e-09 -2.12013e-08 -0.000999958)
(7.60651e-09 -2.63412e-08 -0.000999951)
(8.68012e-09 -3.22312e-08 -0.000999943)
(9.56242e-09 -3.89561e-08 -0.000999933)
(1.00667e-08 -4.6584e-08 -0.000999922)
(9.92549e-09 -5.51565e-08 -0.000999909)
(8.76299e-09 -6.46733e-08 -0.000999894)
(6.05722e-09 -7.50695e-08 -0.000999877)
(1.09492e-09 -8.61838e-08 -0.000999859)
(-7.09026e-09 -9.77137e-08 -0.00099984)
(-1.99375e-08 -1.09083e-07 -0.00099982)
(-3.94167e-08 -1.19377e-07 -0.000999802)
(-6.82306e-08 -1.27188e-07 -0.000999788)
(-1.10084e-07 -1.30404e-07 -0.000999779)
(-1.70044e-07 -1.25914e-07 -0.000999782)
(-2.55027e-07 -1.092e-07 -0.000999803)
(-3.74407e-07 -7.38796e-08 -0.000999851)
(-5.4077e-07 -1.11686e-08 -0.000999938)
(-7.71149e-07 9.1272e-08 -0.00100008)
(-1.0887e-06 2.50961e-07 -0.00100031)
(-1.52459e-06 4.91998e-07 -0.00100066)
(-2.12079e-06 8.47653e-07 -0.00100118)
(-2.93377e-06 1.36356e-06 -0.00100193)
(-4.03947e-06 2.10217e-06 -0.00100302)
(-5.54013e-06 3.14885e-06 -0.00100454)
(-7.57349e-06 4.62048e-06 -0.00100667)
(-1.0327e-05 6.67899e-06 -0.00100973)
(-1.4073e-05 9.5622e-06 -0.00101451)
(-1.92484e-05 1.36469e-05 -0.0010212)
(-2.63353e-05 1.93653e-05 -0.00102422)
(-3.23726e-05 2.44118e-05 -0.00101641)
(-3.71796e-05 2.97904e-05 -0.00104961)
(-3.31909e-05 2.90981e-05 -0.00128387)
(-2.43527e-05 1.9576e-05 -0.000365757)
(8.95294e-05 -5.56313e-05 -0.00259131)
(-2.76254e-06 4.16583e-06 -0.00118473)
(-6.46083e-05 2.60252e-05 -0.00303851)
(-2.10539e-05 3.55936e-05 -0.0018007)
(-8.58916e-05 3.93704e-05 -0.00331426)
(-6.5993e-05 -1.73958e-05 -0.00214888)
(-8.0782e-05 1.11505e-05 -0.00330941)
(-4.18184e-05 8.36824e-05 -0.0019536)
(-1.73532e-05 0.000158691 -0.00332897)
(2.60942e-05 7.21932e-05 -0.00233113)
(-4.06545e-05 1.06217e-05 -0.00276415)
(-2.60688e-05 4.6287e-06 -0.00266531)
(4.8675e-06 3.79129e-05 -0.0016955)
(-2.72717e-06 1.28733e-05 -0.00248572)
(7.05023e-05 -4.62464e-05 -0.00108487)
(7.48079e-05 -5.53843e-05 -0.00107489)
(6.13563e-05 -4.69597e-05 -0.00108742)
(4.72762e-05 -3.61891e-05 -0.00107205)
(3.7058e-05 -2.79148e-05 -0.00105566)
(2.91269e-05 -2.15293e-05 -0.00104327)
(2.29123e-05 -1.65991e-05 -0.00103388)
(1.80421e-05 -1.28017e-05 -0.0010266)
(1.4224e-05 -9.88023e-06 -0.00102091)
(1.12281e-05 -7.6306e-06 -0.00101647)
(8.87478e-06 -5.89765e-06 -0.00101298)
(7.02418e-06 -4.56213e-06 -0.00101025)
(5.56713e-06 -3.53236e-06 -0.0010081)
(4.4185e-06 -2.73789e-06 -0.00100642)
(3.51183e-06 -2.12458e-06 -0.00100509)
(2.79521e-06 -1.6508e-06 -0.00100404)
(2.22804e-06 -1.28452e-06 -0.00100321)
(1.77854e-06 -1.00108e-06 -0.00100256)
(1.42182e-06 -7.81488e-07 -0.00100204)
(1.13835e-06 -6.11137e-07 -0.00100163)
(9.12792e-07 -4.78778e-07 -0.0010013)
(7.32997e-07 -3.75764e-07 -0.00100104)
(5.89371e-07 -2.95443e-07 -0.00100083)
(4.74432e-07 -2.32692e-07 -0.00100067)
(3.82323e-07 -1.83558e-07 -0.00100054)
(3.08451e-07 -1.44996e-07 -0.00100043)
(2.49145e-07 -1.14661e-07 -0.00100035)
(2.0149e-07 -9.07485e-08 -0.00100028)
(1.63186e-07 -7.18706e-08 -0.00100023)
(1.32412e-07 -5.69591e-08 -0.00100019)
(1.07732e-07 -4.5193e-08 -0.00100015)
(8.80077e-08 -3.59418e-08 -0.00100012)
(7.23357e-08 -2.87196e-08 -0.0010001)
(5.99648e-08 -2.31379e-08 -0.00100008)
(5.02618e-08 -1.88648e-08 -0.00100006)
(4.29862e-08 -1.5699e-08 -0.00100004)
(4.00946e-08 -1.43966e-08 -0.00100003)
)
;

boundaryField
{
    inlet
    {
        type            zeroGradient;
    }
    outlet
    {
        type            zeroGradient;
    }
    repeat_boundary
    {
        type            slip;
    }
    procBoundary1to0
    {
        type            processor;
        value           nonuniform List<vector> 
90
(
(1.82922e-09 -5.7856e-09 -0.000999985)
(2.41902e-09 -1.02728e-08 -0.000999984)
(3.28999e-09 -1.58275e-08 -0.000999982)
(4.27543e-09 -2.21498e-08 -0.000999979)
(5.34205e-09 -2.94658e-08 -0.000999976)
(6.46729e-09 -3.81273e-08 -0.00099997)
(7.60651e-09 -4.8576e-08 -0.000999963)
(8.68021e-09 -6.13623e-08 -0.000999954)
(9.5626e-09 -7.71731e-08 -0.000999941)
(1.0067e-08 -9.6872e-08 -0.000999925)
(9.926e-09 -1.21546e-07 -0.000999903)
(8.76387e-09 -1.52567e-07 -0.000999876)
(6.05873e-09 -1.91673e-07 -0.00099984)
(1.09758e-09 -2.41066e-07 -0.000999794)
(-7.08553e-09 -3.03545e-07 -0.000999735)
(-1.9929e-08 -3.82737e-07 -0.000999658)
(-3.94013e-08 -4.83293e-07 -0.000999558)
(-6.82025e-08 -6.11191e-07 -0.00099943)
(-1.10032e-07 -7.74135e-07 -0.000999262)
(-1.69949e-07 -9.82074e-07 -0.000999045)
(-2.54855e-07 -1.24787e-06 -0.000998762)
(-3.74091e-07 -1.58818e-06 -0.000998393)
(-5.40196e-07 -2.02459e-06 -0.000997911)
(-7.70117e-07 -2.58511e-06 -0.000997281)
(-1.08686e-06 -3.3061e-06 -0.000996456)
(-1.52129e-06 -4.23482e-06 -0.000995377)
(-2.11489e-06 -5.43276e-06 -0.000993963)
(-2.9232e-06 -6.97992e-06 -0.00099211)
(-4.02059e-06 -8.98061e-06 -0.000989677)
(-5.50659e-06 -1.15711e-05 -0.000986475)
(-7.51455e-06 -1.49303e-05 -0.000982262)
(-1.02243e-05 -1.9296e-05 -0.000976816)
(-1.38878e-05 -2.49982e-05 -0.000969958)
(-1.88747e-05 -3.24941e-05 -0.000960535)
(-2.55675e-05 -4.2161e-05 -0.00094355)
(-3.24337e-05 -5.16647e-05 -0.000918311)
(-3.64704e-05 -5.67803e-05 -0.000913024)
(-3.37592e-05 -5.15662e-05 -0.00104573)
(-2.56362e-05 -3.6238e-05 -0.000356539)
(0.000103068 0.000134786 -0.00193875)
(-5.60937e-06 -5.2301e-06 -0.00167863)
(-3.41818e-05 -5.37596e-05 -0.001528)
(-2.99012e-05 -4.16118e-05 -0.00239289)
(-6.08407e-05 -3.61164e-05 -0.0021293)
(-7.69556e-05 -4.83307e-05 -0.0024189)
(-3.82957e-05 8.18816e-06 -0.0018037)
(-5.28334e-05 6.76104e-05 -0.00259548)
(-1.63941e-06 0.000111208 -0.00174471)
(2.72639e-05 0.000131778 -0.00234874)
(-3.6601e-05 3.29358e-05 -0.00229593)
(-7.61529e-06 4.45618e-05 -0.00167824)
(7.12323e-06 6.03891e-05 -0.00164939)
(2.48788e-05 6.76144e-05 -0.00183351)
(4.09868e-05 2.63757e-05 -0.0010387)
(5.7454e-05 3.3483e-05 -0.000879645)
(5.87605e-05 2.65275e-05 -0.000921347)
(4.80442e-05 1.99893e-05 -0.000947437)
(3.77642e-05 1.47295e-05 -0.000960093)
(2.95668e-05 1.07937e-05 -0.000968854)
(2.31751e-05 7.86729e-06 -0.00097577)
(1.81987e-05 5.70532e-06 -0.000981186)
(1.43175e-05 4.11602e-06 -0.000985377)
(1.12841e-05 2.94973e-06 -0.000988618)
(8.90844e-06 2.09671e-06 -0.000991127)
(7.04448e-06 1.47544e-06 -0.000993074)
(5.57941e-06 1.02526e-06 -0.000994586)
(4.42596e-06 7.01071e-07 -0.000995762)
(3.51638e-06 4.69395e-07 -0.000996678)
(2.79799e-06 3.05382e-07 -0.000997392)
(2.22975e-06 1.90614e-07 -0.00099795)
(1.77959e-06 1.11465e-07 -0.000998385)
(1.42247e-06 5.79017e-08 -0.000998726)
(1.13875e-06 2.25885e-08 -0.000998994)
(9.13041e-07 1.58977e-10 -0.000999203)
(7.33152e-07 -1.34637e-08 -0.000999368)
(5.89468e-07 -2.12775e-08 -0.000999496)
(4.74493e-07 -2.528e-08 -0.000999599)
(3.82361e-07 -2.67967e-08 -0.00099968)
(3.08475e-07 -2.66806e-08 -0.000999746)
(2.4916e-07 -2.5597e-08 -0.000999799)
(2.015e-07 -2.40139e-08 -0.000999842)
(1.63192e-07 -2.22406e-08 -0.000999876)
(1.32416e-07 -2.04723e-08 -0.000999903)
(1.07734e-07 -1.88253e-08 -0.000999925)
(8.8009e-08 -1.73626e-08 -0.000999943)
(7.23359e-08 -1.61126e-08 -0.000999957)
(5.99613e-08 -1.50754e-08 -0.000999967)
(5.02397e-08 -1.42151e-08 -0.000999975)
(4.30108e-08 -1.34893e-08 -0.000999982)
(4.00978e-08 -1.30812e-08 -0.000999986)
)
;
    }
    procBoundary1to3
    {
        type            processor;
        value           nonuniform List<vector> 
90
(
(3.84171e-09 -3.77309e-09 -0.00100001)
(6.48213e-09 -6.20959e-09 -0.00100001)
(9.81734e-09 -9.29994e-09 -0.00100001)
(1.36422e-08 -1.27827e-08 -0.00100001)
(1.80918e-08 -1.6716e-08 -0.00100001)
(2.33935e-08 -2.12015e-08 -0.00100001)
(2.98416e-08 -2.63414e-08 -0.00100001)
(3.78114e-08 -3.22314e-08 -0.00100001)
(4.77796e-08 -3.89565e-08 -0.00100001)
(6.03549e-08 -4.65845e-08 -0.00100001)
(7.63153e-08 -5.51573e-08 -0.001)
(9.66572e-08 -6.46746e-08 -0.000999997)
(1.22662e-07 -7.50715e-08 -0.000999989)
(1.55979e-07 -8.61869e-08 -0.000999976)
(1.98744e-07 -9.77187e-08 -0.000999959)
(2.53722e-07 -1.09091e-07 -0.000999933)
(3.24509e-07 -1.1939e-07 -0.000999897)
(4.15789e-07 -1.27211e-07 -0.000999847)
(5.33677e-07 -1.30443e-07 -0.000999775)
(6.86171e-07 -1.25981e-07 -0.000999676)
(8.83741e-07 -1.09319e-07 -0.000999539)
(1.14007e-06 -7.40921e-08 -0.00099935)
(1.47296e-06 -1.15506e-08 -0.000999092)
(1.90576e-06 9.05809e-08 -0.000998738)
(2.46924e-06 2.49704e-07 -0.000998255)
(3.20368e-06 4.89707e-07 -0.000997596)
(4.162e-06 8.43467e-07 -0.000996702)
(5.41364e-06 1.35591e-06 -0.00099549)
(7.04978e-06 2.08824e-06 -0.000993851)
(9.19054e-06 3.12366e-06 -0.00099163)
(1.1995e-05 4.57559e-06 -0.000988623)
(1.56771e-05 6.59966e-06 -0.000984668)
(2.05341e-05 9.41544e-06 -0.000979759)
(2.69693e-05 1.33399e-05 -0.00097308)
(3.53353e-05 1.87284e-05 -0.000959096)
(4.40459e-05 2.47093e-05 -0.00093193)
(4.93637e-05 2.9013e-05 -0.000925065)
(4.82266e-05 3.01179e-05 -0.00110809)
(3.45059e-05 2.2759e-05 -0.000304254)
(-8.51292e-05 -5.71449e-05 -0.00211191)
(4.10976e-06 4.49565e-06 -0.00159371)
(4.26937e-05 2.05983e-05 -0.00163534)
(6.54651e-05 4.86809e-05 -0.00291119)
(7.91698e-06 2.85435e-05 -0.00153062)
(-5.71446e-05 -2.79646e-05 -0.00278874)
(-4.1105e-05 1.6449e-05 -0.00200897)
(-4.24304e-05 0.000109586 -0.00253616)
(-2.90735e-05 0.000105951 -0.00199841)
(-2.45901e-05 7.02797e-05 -0.00267646)
(-2.50982e-05 3.11605e-05 -0.00161783)
(-6.19847e-05 7.29064e-07 -0.0027344)
(-7.01985e-06 4.25976e-05 -0.00110566)
(-6.21465e-05 -4.37392e-05 -0.00197556)
(7.55359e-06 -4.97427e-05 -0.00107035)
(-2.15569e-05 -5.41122e-05 -0.000931865)
(-1.47361e-05 -4.67226e-05 -0.000944425)
(-9.16537e-06 -3.69828e-05 -0.000968382)
(-5.51653e-06 -2.84612e-05 -0.000977948)
(-3.12751e-06 -2.18552e-05 -0.000983848)
(-1.50964e-06 -1.67887e-05 -0.000988269)
(-4.37411e-07 -1.29114e-05 -0.000991602)
(2.44631e-07 -9.94352e-06 -0.000994045)
(6.58052e-07 -7.66711e-06 -0.000995813)
(8.8671e-07 -5.9187e-06 -0.000997095)
(9.90466e-07 -4.57424e-06 -0.000998019)
(1.01187e-06 -3.53934e-06 -0.000998682)
(9.80986e-07 -2.74191e-06 -0.000999152)
(9.18742e-07 -2.1269e-06 -0.000999482)
(8.39571e-07 -1.65214e-06 -0.000999711)
(7.53241e-07 -1.2853e-06 -0.000999866)
(6.66206e-07 -1.00153e-06 -0.000999967)
(5.82553e-07 -7.81751e-07 -0.00100003)
(5.04697e-07 -6.1129e-07 -0.00100007)
(4.33901e-07 -4.78867e-07 -0.00100009)
(3.70725e-07 -3.75816e-07 -0.0010001)
(3.15222e-07 -2.95474e-07 -0.0010001)
(2.67031e-07 -2.3271e-07 -0.00100009)
(2.25568e-07 -1.83568e-07 -0.00100009)
(1.9014e-07 -1.45002e-07 -0.00100008)
(1.60083e-07 -1.14665e-07 -0.00100007)
(1.34757e-07 -9.07508e-08 -0.00100007)
(1.13557e-07 -7.18719e-08 -0.00100006)
(9.59261e-08 -5.69599e-08 -0.00100005)
(8.1364e-08 -4.51935e-08 -0.00100005)
(6.94282e-08 -3.5942e-08 -0.00100004)
(5.97274e-08 -2.8719e-08 -0.00100004)
(5.18978e-08 -2.31352e-08 -0.00100003)
(4.55976e-08 -1.88552e-08 -0.00100002)
(4.07941e-08 -1.57106e-08 -0.00100002)
(3.87834e-08 -1.43992e-08 -0.00100001)
)
;
    }
}


// ************************************************************************* //
