/*--------------------------------*- C++ -*----------------------------------*\
| =========                 |                                                 |
| \\      /  F ield         | OpenFOAM: The Open Source CFD Toolbox           |
|  \\    /   O peration     | Version:  5.x                                   |
|   \\  /    A nd           | Web:      www.OpenFOAM.org                      |
|    \\/     M anipulation  |                                                 |
\*---------------------------------------------------------------------------*/
FoamFile
{
    version     2.0;
    format      ascii;
    class       volScalarField;
    location    "700";
    object      p;
}
// * * * * * * * * * * * * * * * * * * * * * * * * * * * * * * * * * * * * * //

dimensions      [0 2 -2 0 0 0 0];

internalField   nonuniform List<scalar> 
90
(
-9.22793e-11
-2.68947e-10
-4.2242e-10
-5.38418e-10
-6.0456e-10
-6.10609e-10
-5.48593e-10
-4.12638e-10
-1.98574e-10
9.66718e-11
4.75892e-10
9.42591e-10
1.50216e-09
2.16336e-09
2.94014e-09
3.8542e-09
4.93825e-09
6.24017e-09
7.8294e-09
9.80461e-09
1.23028e-08
1.55095e-08
1.96861e-08
2.52807e-08
3.27041e-08
4.25509e-08
5.56423e-08
7.30568e-08
9.62197e-08
1.2702e-07
1.67905e-07
2.21917e-07
2.93393e-07
3.91614e-07
5.34803e-07
7.24847e-07
8.10216e-07
5.58169e-07
4.80509e-06
-7.30286e-06
1.19035e-05
0.000552292
0.00125269
0.00211073
0.00315741
0.00398492
0.00470849
0.0054369
0.00624174
0.00718927
0.00791875
0.00848466
0.00859604
0.00859536
0.00859354
0.00859237
0.00859157
0.00859095
0.00859049
0.00859014
0.00858987
0.00858967
0.00858953
0.00858942
0.00858934
0.00858928
0.00858923
0.00858919
0.00858917
0.00858915
0.00858913
0.00858912
0.00858911
0.00858911
0.0085891
0.0085891
0.0085891
0.0085891
0.00858909
0.00858909
0.00858909
0.00858909
0.00858909
0.00858909
0.00858909
0.00858909
0.00858909
0.00858908
0.00858908
0.00858908
)
;

boundaryField
{
    inlet
    {
        type            zeroGradient;
    }
    outlet
    {
        type            fixedValue;
        value           uniform 0;
    }
    repeat_boundary
    {
        type            zeroGradient;
    }
    procBoundary3to1
    {
        type            processor;
        value           nonuniform List<scalar> 
90
(
-4.45873e-11
-1.32979e-10
-2.16697e-10
-2.93606e-10
-3.60575e-10
-4.14234e-10
-4.51144e-10
-4.68086e-10
-4.62452e-10
-4.32527e-10
-3.77619e-10
-2.98166e-10
-1.95625e-10
-7.19444e-11
7.15156e-11
2.35094e-10
4.29611e-10
6.5099e-10
9.08832e-10
1.22245e-09
1.62368e-09
2.16184e-09
2.89458e-09
3.80105e-09
5.03593e-09
6.74876e-09
9.09493e-09
1.228e-08
1.65773e-08
2.2352e-08
3.00283e-08
3.99026e-08
5.25165e-08
7.28947e-08
1.17255e-07
1.78415e-07
4.01224e-08
-5.13414e-07
4.29154e-06
-1.16871e-05
1.40768e-05
0.000594839
0.00133877
0.00218134
0.00301644
0.00393926
0.00494484
0.00571228
0.00635395
0.00711776
0.00782924
0.00848426
0.00859189
0.00858962
0.00858918
0.00858916
0.00858914
0.00858912
0.0085891
0.00858909
0.00858909
0.00858908
0.00858908
0.00858908
0.00858908
0.00858908
0.00858908
0.00858908
0.00858908
0.00858908
0.00858908
0.00858909
0.00858909
0.00858909
0.00858909
0.00858909
0.00858909
0.00858909
0.00858909
0.00858909
0.00858909
0.00858909
0.00858909
0.00858909
0.00858909
0.00858909
0.00858909
0.00858909
0.00858909
0.00858909
)
;
    }
    procBoundary3to2
    {
        type            processor;
        value           nonuniform List<scalar> 
90
(
-3.02595e-11
-8.63251e-11
-1.35941e-10
-1.75838e-10
-2.01479e-10
-2.08161e-10
-1.91102e-10
-1.45599e-10
-6.72447e-11
4.78102e-11
2.02555e-10
3.98903e-10
6.37651e-10
9.18683e-10
1.24149e-09
1.60604e-09
2.01397e-09
2.47037e-09
2.98486e-09
3.57295e-09
4.25737e-09
5.06909e-09
6.04815e-09
7.24394e-09
8.71166e-09
1.05145e-08
1.27249e-08
1.54258e-08
1.87172e-08
2.27206e-08
2.75111e-08
3.28696e-08
3.86885e-08
4.94934e-08
8.15252e-08
1.2888e-07
-5.34774e-08
-6.98051e-07
4.51592e-06
-1.3172e-05
1.48672e-05
0.000699003
0.0014088
0.002124
0.00293429
0.00377218
0.00454012
0.00526136
0.00610245
0.00697256
0.0077283
0.00841949
0.00858532
0.0085906
0.00858881
0.00858896
0.00858902
0.00858904
0.00858906
0.00858907
0.00858908
0.00858909
0.00858909
0.00858909
0.00858909
0.00858909
0.00858909
0.00858909
0.00858909
0.00858909
0.00858909
0.00858909
0.00858909
0.00858909
0.00858909
0.00858909
0.00858909
0.00858909
0.00858909
0.00858909
0.00858909
0.00858909
0.00858909
0.00858909
0.00858909
0.00858909
0.00858909
0.00858909
0.00858909
0.00858909
)
;
    }
}


// ************************************************************************* //
