/*--------------------------------*- C++ -*----------------------------------*\
| =========                 |                                                 |
| \\      /  F ield         | OpenFOAM: The Open Source CFD Toolbox           |
|  \\    /   O peration     | Version:  5.x                                   |
|   \\  /    A nd           | Web:      www.OpenFOAM.org                      |
|    \\/     M anipulation  |                                                 |
\*---------------------------------------------------------------------------*/
FoamFile
{
    version     2.0;
    format      ascii;
    class       volVectorField;
    location    "400";
    object      stored_U;
}
// * * * * * * * * * * * * * * * * * * * * * * * * * * * * * * * * * * * * * //

dimensions      [0 1 -1 0 0 0 0];

internalField   nonuniform List<vector> 
90
(
(1.37038e-09 -2.30517e-09 -0.000999997)
(2.51904e-09 -5.02348e-09 -0.000999997)
(3.92732e-09 -8.18874e-09 -0.000999996)
(5.48244e-09 -1.17424e-08 -0.000999994)
(7.20945e-09 -1.58465e-08 -0.000999992)
(9.13775e-09 -2.07117e-08 -0.000999989)
(1.12913e-08 -2.65988e-08 -0.000999985)
(1.36851e-08 -3.38353e-08 -0.00099998)
(1.63194e-08 -4.28224e-08 -0.000999974)
(1.91743e-08 -5.40694e-08 -0.000999967)
(2.21994e-08 -6.82183e-08 -0.000999957)
(2.53013e-08 -8.60834e-08 -0.000999944)
(2.83237e-08 -1.08702e-07 -0.000999928)
(3.10198e-08 -1.37399e-07 -0.000999906)
(3.30141e-08 -1.73874e-07 -0.000999878)
(3.3751e-08 -2.20309e-07 -0.000999841)
(3.24248e-08 -2.79513e-07 -0.000999793)
(2.78877e-08 -3.55105e-07 -0.00099973)
(1.85353e-08 -4.51742e-07 -0.000999646)
(2.20481e-09 -5.75396e-07 -0.000999537)
(-2.43295e-08 -7.33893e-07 -0.000999392)
(-6.5898e-08 -9.37571e-07 -0.000999198)
(-1.29076e-07 -1.19984e-06 -0.000998942)
(-2.22894e-07 -1.53818e-06 -0.000998603)
(-3.59653e-07 -1.97543e-06 -0.000998153)
(-5.56516e-07 -2.54146e-06 -0.000997557)
(-8.36987e-07 -3.27539e-06 -0.000996768)
(-1.23316e-06 -4.22851e-06 -0.000995721)
(-1.78878e-06 -5.46812e-06 -0.000994332)
(-2.56328e-06 -7.08263e-06 -0.000992489)
(-3.63731e-06 -9.18822e-06 -0.000990043)
(-5.12027e-06 -1.19381e-05 -0.000986805)
(-7.16366e-06 -1.55398e-05 -0.00098256)
(-9.99697e-06 -2.03096e-05 -0.000976796)
(-1.40444e-05 -2.68539e-05 -0.000966916)
(-1.85736e-05 -3.39e-05 -0.000954974)
(-2.50077e-05 -4.36542e-05 -0.000962657)
(-3.00716e-05 -5.089e-05 -0.00106552)
(-4.58066e-05 -6.90812e-05 -0.000407539)
(6.05323e-05 7.63386e-05 -0.0019504)
(-7.47501e-06 -7.25451e-06 -0.00168847)
(-4.00836e-05 -6.20276e-05 -0.00155167)
(-3.23065e-05 -5.06949e-05 -0.00240018)
(-7.0526e-05 -4.92877e-05 -0.0021605)
(-9.33707e-05 -6.38127e-05 -0.00242415)
(-6.0264e-05 -1.75409e-05 -0.00182603)
(-7.30234e-05 4.29162e-05 -0.00259932)
(-3.06719e-05 7.74445e-05 -0.0017564)
(4.71817e-06 0.000103114 -0.00234501)
(-6.56275e-05 -2.16018e-06 -0.0022979)
(-5.43881e-05 -8.96806e-06 -0.0016462)
(-4.67883e-05 3.97831e-05 -0.00164747)
(-3.74153e-05 4.49384e-05 -0.00181607)
(1.07996e-05 -8.8754e-07 -0.000946875)
(7.54182e-05 3.3708e-05 -0.000880934)
(6.40069e-05 3.03717e-05 -0.000913966)
(4.94486e-05 2.25735e-05 -0.000941122)
(3.81181e-05 1.64393e-05 -0.000955693)
(2.94283e-05 1.19406e-05 -0.000966074)
(2.27543e-05 8.64558e-06 -0.000974062)
(1.7622e-05 6.23788e-06 -0.000980175)
(1.36694e-05 4.48499e-06 -0.00098483)
(1.06204e-05 3.21212e-06 -0.000988376)
(8.26468e-06 2.28824e-06 -0.000991079)
(6.44146e-06 1.61984e-06 -0.000993141)
(5.02792e-06 1.13812e-06 -0.000994717)
(3.93016e-06 7.91972e-07 -0.000995924)
(3.07626e-06 5.44221e-07 -0.000996849)
(2.41106e-06 3.67812e-07 -0.000997561)
(1.89212e-06 2.43044e-07 -0.00099811)
(1.48673e-06 1.55556e-07 -0.000998533)
(1.16965e-06 9.48945e-08 -0.00099886)
(9.2136e-07 5.34696e-08 -0.000999113)
(7.2675e-07 2.57945e-08 -0.000999309)
(5.74101e-07 7.91277e-09 -0.000999462)
(4.54291e-07 -3.05456e-09 -0.00099958)
(3.60146e-07 -9.33283e-09 -0.000999672)
(2.86078e-07 -1.25184e-08 -0.000999743)
(2.27746e-07 -1.37163e-08 -0.000999798)
(1.8177e-07 -1.369e-08 -0.000999841)
(1.45517e-07 -1.29623e-08 -0.000999875)
(1.16935e-07 -1.18851e-08 -0.000999901)
(9.44268e-08 -1.06898e-08 -0.000999922)
(7.67546e-08 -9.52274e-09 -0.000999938)
(6.29599e-08 -8.47205e-09 -0.000999952)
(5.23065e-08 -7.58791e-09 -0.000999962)
(4.42264e-08 -6.89915e-09 -0.000999972)
(3.82534e-08 -6.42561e-09 -0.000999979)
(3.39562e-08 -6.1284e-09 -0.000999987)
(3.17762e-08 -5.82738e-09 -0.000999993)
)
;

boundaryField
{
    inlet
    {
        type            calculated;
        value           uniform (3.17762e-08 -5.82738e-09 -0.000999993);
    }
    outlet
    {
        type            calculated;
        value           uniform (1.37038e-09 -2.30517e-09 -0.000999997);
    }
    repeat_boundary
    {
        type            calculated;
        value           nonuniform List<vector> 
180
(
(1.37038e-09 0 -0.000999997)
(2.51904e-09 0 -0.000999997)
(3.92732e-09 0 -0.000999996)
(5.48244e-09 0 -0.000999994)
(7.20945e-09 0 -0.000999992)
(9.13775e-09 0 -0.000999989)
(1.12913e-08 0 -0.000999985)
(1.36851e-08 0 -0.00099998)
(1.63194e-08 0 -0.000999974)
(1.91743e-08 0 -0.000999967)
(2.21994e-08 0 -0.000999957)
(2.53013e-08 0 -0.000999944)
(2.83237e-08 0 -0.000999928)
(3.10198e-08 0 -0.000999906)
(3.30141e-08 0 -0.000999878)
(3.3751e-08 0 -0.000999841)
(3.24248e-08 0 -0.000999793)
(2.78877e-08 0 -0.00099973)
(1.85353e-08 0 -0.000999646)
(2.20481e-09 0 -0.000999537)
(-2.43295e-08 0 -0.000999392)
(-6.5898e-08 0 -0.000999198)
(-1.29076e-07 0 -0.000998942)
(-2.22894e-07 0 -0.000998603)
(-3.59653e-07 0 -0.000998153)
(-5.56516e-07 0 -0.000997557)
(-8.36987e-07 0 -0.000996768)
(-1.23316e-06 0 -0.000995721)
(-1.78878e-06 0 -0.000994332)
(-2.56328e-06 0 -0.000992489)
(-3.63731e-06 0 -0.000990043)
(-5.12027e-06 0 -0.000986805)
(-7.16366e-06 0 -0.00098256)
(-9.99697e-06 0 -0.000976796)
(-1.40444e-05 0 -0.000966916)
(-1.85736e-05 0 -0.000954974)
(-2.50077e-05 0 -0.000962657)
(-3.00716e-05 0 -0.00106552)
(-4.58066e-05 0 -0.000407539)
(6.05323e-05 0 -0.0019504)
(-7.47501e-06 0 -0.00168847)
(-4.00836e-05 0 -0.00155167)
(-3.23065e-05 0 -0.00240018)
(-7.0526e-05 0 -0.0021605)
(-9.33707e-05 0 -0.00242415)
(-6.0264e-05 0 -0.00182603)
(-7.30234e-05 0 -0.00259932)
(-3.06719e-05 0 -0.0017564)
(4.71817e-06 0 -0.00234501)
(-6.56275e-05 0 -0.0022979)
(-5.43881e-05 0 -0.0016462)
(-4.67883e-05 0 -0.00164747)
(-3.74153e-05 0 -0.00181607)
(1.07996e-05 0 -0.000946875)
(7.54182e-05 0 -0.000880934)
(6.40069e-05 0 -0.000913966)
(4.94486e-05 0 -0.000941122)
(3.81181e-05 0 -0.000955693)
(2.94283e-05 0 -0.000966074)
(2.27543e-05 0 -0.000974062)
(1.7622e-05 0 -0.000980175)
(1.36694e-05 0 -0.00098483)
(1.06204e-05 0 -0.000988376)
(8.26468e-06 0 -0.000991079)
(6.44146e-06 0 -0.000993141)
(5.02792e-06 0 -0.000994717)
(3.93016e-06 0 -0.000995924)
(3.07626e-06 0 -0.000996849)
(2.41106e-06 0 -0.000997561)
(1.89212e-06 0 -0.00099811)
(1.48673e-06 0 -0.000998533)
(1.16965e-06 0 -0.00099886)
(9.2136e-07 0 -0.000999113)
(7.2675e-07 0 -0.000999309)
(5.74101e-07 0 -0.000999462)
(4.54291e-07 0 -0.00099958)
(3.60146e-07 0 -0.000999672)
(2.86078e-07 0 -0.000999743)
(2.27746e-07 0 -0.000999798)
(1.8177e-07 0 -0.000999841)
(1.45517e-07 0 -0.000999875)
(1.16935e-07 0 -0.000999901)
(9.44268e-08 0 -0.000999922)
(7.67546e-08 0 -0.000999938)
(6.29599e-08 0 -0.000999952)
(5.23065e-08 0 -0.000999962)
(4.42264e-08 0 -0.000999972)
(3.82534e-08 0 -0.000999979)
(3.39562e-08 0 -0.000999987)
(3.17762e-08 0 -0.000999993)
(0 -2.30517e-09 -0.000999997)
(0 -5.02348e-09 -0.000999997)
(0 -8.18874e-09 -0.000999996)
(0 -1.17424e-08 -0.000999994)
(0 -1.58465e-08 -0.000999992)
(0 -2.07117e-08 -0.000999989)
(0 -2.65988e-08 -0.000999985)
(0 -3.38353e-08 -0.00099998)
(0 -4.28224e-08 -0.000999974)
(0 -5.40694e-08 -0.000999967)
(0 -6.82183e-08 -0.000999957)
(0 -8.60834e-08 -0.000999944)
(0 -1.08702e-07 -0.000999928)
(0 -1.37399e-07 -0.000999906)
(0 -1.73874e-07 -0.000999878)
(0 -2.20309e-07 -0.000999841)
(0 -2.79513e-07 -0.000999793)
(0 -3.55105e-07 -0.00099973)
(0 -4.51742e-07 -0.000999646)
(0 -5.75396e-07 -0.000999537)
(0 -7.33893e-07 -0.000999392)
(0 -9.37571e-07 -0.000999198)
(0 -1.19984e-06 -0.000998942)
(0 -1.53818e-06 -0.000998603)
(0 -1.97543e-06 -0.000998153)
(0 -2.54146e-06 -0.000997557)
(0 -3.27539e-06 -0.000996768)
(0 -4.22851e-06 -0.000995721)
(0 -5.46812e-06 -0.000994332)
(0 -7.08263e-06 -0.000992489)
(0 -9.18822e-06 -0.000990043)
(0 -1.19381e-05 -0.000986805)
(0 -1.55398e-05 -0.00098256)
(0 -2.03096e-05 -0.000976796)
(0 -2.68539e-05 -0.000966916)
(0 -3.39e-05 -0.000954974)
(0 -4.36542e-05 -0.000962657)
(0 -5.089e-05 -0.00106552)
(0 -6.90812e-05 -0.000407539)
(0 7.63386e-05 -0.0019504)
(0 -7.25451e-06 -0.00168847)
(0 -6.20276e-05 -0.00155167)
(0 -5.06949e-05 -0.00240018)
(0 -4.92877e-05 -0.0021605)
(0 -6.38127e-05 -0.00242415)
(0 -1.75409e-05 -0.00182603)
(0 4.29162e-05 -0.00259932)
(0 7.74445e-05 -0.0017564)
(0 0.000103114 -0.00234501)
(0 -2.16018e-06 -0.0022979)
(0 -8.96806e-06 -0.0016462)
(0 3.97831e-05 -0.00164747)
(0 4.49384e-05 -0.00181607)
(0 -8.8754e-07 -0.000946875)
(0 3.3708e-05 -0.000880934)
(0 3.03717e-05 -0.000913966)
(0 2.25735e-05 -0.000941122)
(0 1.64393e-05 -0.000955693)
(0 1.19406e-05 -0.000966074)
(0 8.64558e-06 -0.000974062)
(0 6.23788e-06 -0.000980175)
(0 4.48499e-06 -0.00098483)
(0 3.21212e-06 -0.000988376)
(0 2.28824e-06 -0.000991079)
(0 1.61984e-06 -0.000993141)
(0 1.13812e-06 -0.000994717)
(0 7.91972e-07 -0.000995924)
(0 5.44221e-07 -0.000996849)
(0 3.67812e-07 -0.000997561)
(0 2.43044e-07 -0.00099811)
(0 1.55556e-07 -0.000998533)
(0 9.48945e-08 -0.00099886)
(0 5.34696e-08 -0.000999113)
(0 2.57945e-08 -0.000999309)
(0 7.91277e-09 -0.000999462)
(0 -3.05456e-09 -0.00099958)
(0 -9.33283e-09 -0.000999672)
(0 -1.25184e-08 -0.000999743)
(0 -1.37163e-08 -0.000999798)
(0 -1.369e-08 -0.000999841)
(0 -1.29623e-08 -0.000999875)
(0 -1.18851e-08 -0.000999901)
(0 -1.06898e-08 -0.000999922)
(0 -9.52274e-09 -0.000999938)
(0 -8.47205e-09 -0.000999952)
(0 -7.58791e-09 -0.000999962)
(0 -6.89915e-09 -0.000999972)
(0 -6.42561e-09 -0.000999979)
(0 -6.1284e-09 -0.000999987)
(0 -5.82738e-09 -0.000999993)
)
;
    }
    procBoundary0to1
    {
        type            processor;
        value           nonuniform List<vector> 
90
(
(1.37037e-09 -1.69172e-09 -0.000999984)
(2.51902e-09 -3.41775e-09 -0.000999983)
(3.92729e-09 -5.45791e-09 -0.000999981)
(5.48232e-09 -7.71481e-09 -0.000999977)
(7.20924e-09 -1.02489e-08 -0.000999973)
(9.13782e-09 -1.31328e-08 -0.000999968)
(1.12915e-08 -1.6443e-08 -0.000999962)
(1.36851e-08 -2.026e-08 -0.000999955)
(1.63194e-08 -2.46639e-08 -0.000999946)
(1.91742e-08 -2.97305e-08 -0.000999936)
(2.21993e-08 -3.55263e-08 -0.000999925)
(2.53012e-08 -4.21008e-08 -0.000999912)
(2.83234e-08 -4.94731e-08 -0.000999898)
(3.10193e-08 -5.76115e-08 -0.000999881)
(3.30134e-08 -6.64043e-08 -0.000999863)
(3.37499e-08 -7.56168e-08 -0.000999843)
(3.24228e-08 -8.48324e-08 -0.000999821)
(2.78844e-08 -9.33698e-08 -0.000999797)
(1.85294e-08 -1.00168e-07 -0.000999773)
(2.1942e-09 -1.03646e-07 -0.00099975)
(-2.43487e-08 -1.01352e-07 -0.000999732)
(-6.59334e-08 -8.95739e-08 -0.000999724)
(-1.29141e-07 -6.30646e-08 -0.000999731)
(-2.23015e-07 -1.44499e-08 -0.000999763)
(-3.59875e-07 6.64022e-08 -0.000999834)
(-5.5692e-07 1.94254e-07 -0.000999965)
(-8.37725e-07 3.89702e-07 -0.00100018)
(-1.23451e-06 6.81316e-07 -0.00100053)
(-1.79126e-06 1.10862e-06 -0.00100106)
(-2.56784e-06 1.72607e-06 -0.00100185)
(-3.64567e-06 2.60852e-06 -0.001003)
(-5.13542e-06 3.85878e-06 -0.00100468)
(-7.18856e-06 5.6183e-06 -0.00100714)
(-1.00134e-05 8.07933e-06 -0.00101046)
(-1.38793e-05 1.14903e-05 -0.00101279)
(-1.91028e-05 1.62256e-05 -0.00101129)
(-2.53191e-05 2.23921e-05 -0.00103886)
(-3.0167e-05 2.81692e-05 -0.00125256)
(-4.41519e-05 3.68264e-05 -0.000347887)
(5.70891e-05 -2.83547e-05 -0.00257752)
(-4.62335e-06 2.19323e-06 -0.00120377)
(-6.69088e-05 2.23102e-05 -0.00297236)
(-2.63519e-05 2.32871e-05 -0.00192177)
(-8.76828e-05 3.2938e-05 -0.00318293)
(-8.83468e-05 -3.10352e-05 -0.00225857)
(-9.18775e-05 -7.37556e-06 -0.00324576)
(-6.65354e-05 5.54701e-05 -0.00197327)
(-2.99701e-05 0.000139998 -0.003316)
(1.93341e-06 4.11359e-05 -0.00233074)
(-6.36929e-05 -2.38246e-05 -0.00275641)
(-5.15684e-05 -3.75319e-05 -0.00264384)
(-2.69221e-05 2.63936e-07 -0.00170378)
(-8.36863e-06 5.76885e-05 -0.00246785)
(9.5675e-05 -4.70819e-05 -0.00111418)
(8.56569e-05 -5.93624e-05 -0.00108278)
(6.39198e-05 -4.69568e-05 -0.00108946)
(4.90546e-05 -3.57191e-05 -0.00107318)
(3.78773e-05 -2.71477e-05 -0.00105638)
(2.92894e-05 -2.06423e-05 -0.00104342)
(2.26742e-05 -1.56977e-05 -0.00103358)
(1.75758e-05 -1.19425e-05 -0.00102602)
(1.36426e-05 -9.09252e-06 -0.00102019)
(1.06048e-05 -6.9287e-06 -0.00101568)
(8.25556e-06 -5.28295e-06 -0.0010122)
(6.43612e-06 -4.03108e-06 -0.00100951)
(5.02478e-06 -3.07878e-06 -0.00100742)
(3.92831e-06 -2.35375e-06 -0.00100579)
(3.07517e-06 -1.80127e-06 -0.00100453)
(2.41041e-06 -1.3799e-06 -0.00100355)
(1.89173e-06 -1.05824e-06 -0.00100278)
(1.48649e-06 -8.12495e-07 -0.00100219)
(1.16951e-06 -6.24583e-07 -0.00100172)
(9.21275e-07 -4.80773e-07 -0.00100135)
(7.26699e-07 -3.70621e-07 -0.00100107)
(5.7407e-07 -2.86179e-07 -0.00100084)
(4.54272e-07 -2.21389e-07 -0.00100066)
(3.60135e-07 -1.71635e-07 -0.00100052)
(2.86071e-07 -1.33396e-07 -0.00100041)
(2.27742e-07 -1.0398e-07 -0.00100033)
(1.81768e-07 -8.13307e-08 -0.00100026)
(1.45515e-07 -6.38784e-08 -0.0010002)
(1.16934e-07 -5.0425e-08 -0.00100016)
(9.44261e-08 -4.00598e-08 -0.00100012)
(7.67541e-08 -3.20925e-08 -0.0010001)
(6.29599e-08 -2.60028e-08 -0.00100008)
(5.23064e-08 -2.14043e-08 -0.00100006)
(4.42265e-08 -1.8012e-08 -0.00100004)
(3.82546e-08 -1.56166e-08 -0.00100003)
(3.39549e-08 -1.39896e-08 -0.00100002)
(3.17761e-08 -1.30345e-08 -0.00100001)
)
;
    }
    procBoundary0to2
    {
        type            processor;
        value           nonuniform List<vector> 
90
(
(1.98426e-09 -2.30556e-09 -0.00100003)
(4.1251e-09 -5.02378e-09 -0.00100003)
(6.6572e-09 -8.18792e-09 -0.00100003)
(9.50948e-09 -1.1742e-08 -0.00100003)
(1.28061e-08 -1.58457e-08 -0.00100004)
(1.67164e-08 -2.07115e-08 -0.00100004)
(2.14485e-08 -2.66001e-08 -0.00100005)
(2.72607e-08 -3.38356e-08 -0.00100006)
(3.44781e-08 -4.28227e-08 -0.00100008)
(4.35134e-08 -5.40697e-08 -0.0010001)
(5.48918e-08 -6.82189e-08 -0.00100012)
(6.92845e-08 -8.60842e-08 -0.00100015)
(8.75532e-08 -1.08703e-07 -0.00100019)
(1.10808e-07 -1.37401e-07 -0.00100024)
(1.40486e-07 -1.73877e-07 -0.0010003)
(1.78447e-07 -2.20315e-07 -0.00100038)
(2.27112e-07 -2.79523e-07 -0.00100048)
(2.89633e-07 -3.5512e-07 -0.0010006)
(3.70127e-07 -4.51767e-07 -0.00100076)
(4.73983e-07 -5.75438e-07 -0.00100097)
(6.08258e-07 -7.33963e-07 -0.00100123)
(7.82174e-07 -9.37688e-07 -0.00100156)
(1.00782e-06 -1.20004e-06 -0.00100199)
(1.30103e-06 -1.53851e-06 -0.00100254)
(1.68251e-06 -1.976e-06 -0.00100324)
(2.17975e-06 -2.54244e-06 -0.00100415)
(2.82902e-06 -3.27709e-06 -0.00100533)
(3.67817e-06 -4.23145e-06 -0.00100685)
(4.79046e-06 -5.47322e-06 -0.00100882)
(6.24957e-06 -7.09153e-06 -0.00101138)
(8.16632e-06 -9.20377e-06 -0.00101471)
(1.06879e-05 -1.1965e-05 -0.00101906)
(1.40113e-05 -1.55823e-05 -0.00102483)
(1.84017e-05 -2.03371e-05 -0.00103222)
(2.42028e-05 -2.65942e-05 -0.00103926)
(3.18473e-05 -3.4729e-05 -0.0010421)
(4.11754e-05 -4.4117e-05 -0.00107742)
(4.86401e-05 -5.06962e-05 -0.00132046)
(5.80699e-05 -6.53831e-05 -0.000348601)
(-4.32114e-05 7.12678e-05 -0.00276692)
(2.22215e-06 -4.398e-06 -0.00131754)
(6.33567e-05 -0.000105753 -0.002948)
(5.06525e-05 -5.27428e-05 -0.00233272)
(9.94439e-06 -6.86833e-05 -0.0031692)
(-6.05416e-05 -6.0491e-05 -0.00217837)
(-7.95855e-05 -3.30482e-05 -0.00321295)
(-5.59554e-05 5.18554e-05 -0.00225616)
(-7.23656e-05 0.000168611 -0.00334922)
(-4.8698e-05 5.65457e-05 -0.00180655)
(-9.47191e-05 -5.76187e-07 -0.00331188)
(-8.09476e-05 2.04183e-06 -0.00203182)
(-6.19302e-05 2.49487e-05 -0.00205527)
(1.96297e-05 8.00969e-05 -0.00203245)
(9.86612e-06 4.71752e-05 -0.00146557)
(-2.22791e-05 4.06252e-05 -0.000926386)
(-1.52077e-05 3.12364e-05 -0.00101171)
(-9.21172e-06 2.25149e-05 -0.00101485)
(-5.60983e-06 1.63507e-05 -0.00100959)
(-3.23475e-06 1.18907e-05 -0.00100551)
(-1.63677e-06 8.61896e-06 -0.00100295)
(-5.86823e-07 6.22375e-06 -0.00100127)
(7.48839e-08 4.47751e-06 -0.00100019)
(4.69441e-07 3.20817e-06 -0.000999534)
(6.87425e-07 2.28614e-06 -0.000999172)
(7.86922e-07 1.61871e-06 -0.000998991)
(8.08878e-07 1.1375e-06 -0.000998931)
(7.83154e-07 7.91636e-07 -0.000998949)
(7.30008e-07 5.44036e-07 -0.000999012)
(6.62898e-07 3.67709e-07 -0.000999098)
(5.90559e-07 2.42987e-07 -0.000999194)
(5.18514e-07 1.55524e-07 -0.000999291)
(4.50075e-07 9.48765e-08 -0.000999383)
(3.8706e-07 5.34593e-08 -0.000999468)
(3.303e-07 2.57887e-08 -0.000999544)
(2.79989e-07 7.90944e-09 -0.000999612)
(2.35945e-07 -3.05649e-09 -0.000999671)
(1.97837e-07 -9.33394e-09 -0.000999722)
(1.65197e-07 -1.25191e-08 -0.000999767)
(1.3748e-07 -1.37167e-08 -0.000999806)
(1.14128e-07 -1.36902e-08 -0.000999839)
(9.45999e-08 -1.29624e-08 -0.000999867)
(7.83941e-08 -1.18853e-08 -0.00099989)
(6.50564e-08 -1.06901e-08 -0.00099991)
(5.41845e-08 -9.52308e-09 -0.000999928)
(4.54293e-08 -8.47149e-09 -0.000999942)
(3.84902e-08 -7.58778e-09 -0.000999955)
(3.31138e-08 -6.89902e-09 -0.000999966)
(2.90639e-08 -6.42545e-09 -0.000999976)
(2.60935e-08 -6.12872e-09 -0.000999985)
(2.45689e-08 -5.82754e-09 -0.000999993)
)
;
    }
}


// ************************************************************************* //
