/*--------------------------------*- C++ -*----------------------------------*\
| =========                 |                                                 |
| \\      /  F ield         | OpenFOAM: The Open Source CFD Toolbox           |
|  \\    /   O peration     | Version:  5.x                                   |
|   \\  /    A nd           | Web:      www.OpenFOAM.org                      |
|    \\/     M anipulation  |                                                 |
\*---------------------------------------------------------------------------*/
FoamFile
{
    version     2.0;
    format      ascii;
    class       surfaceScalarField;
    location    "20000";
    object      phi;
}
// * * * * * * * * * * * * * * * * * * * * * * * * * * * * * * * * * * * * * //

dimensions      [0 3 -1 0 0 0 0];

internalField   nonuniform List<scalar> 
5825
(
-4.53215e-05
0.00015875
-1000
-3.16156e-05
0.000136418
-1000
-2.74131e-05
0.000148074
-1000
-3.82553e-06
0.000148581
-1000
0.000146517
-1000
-4.64836e-05
0.000134377
-999.999
-3.88683e-05
0.000126431
-999.999
-2.20607e-05
0.000138131
-1000
-6.71684e-06
0.000137845
-1000
0.00013131
-1000
-3.30357e-05
0.000103421
-999.999
-2.54544e-05
0.000107511
-999.999
-1.77405e-05
0.000106349
-999.999
-1.27177e-05
9.96353e-05
-999.999
9.16577e-05
-999.999
-3.06941e-05
6.57703e-05
-999.999
-2.62848e-05
6.02154e-05
-999.999
-2.35568e-05
5.31495e-05
-999.999
-2.04507e-05
4.47738e-05
-999.999
4.02466e-05
-999.999
-4.15241e-05
-999.999
-3.22492e-05
-999.999
-3.25597e-05
-999.999
-2.60147e-05
-999.999
-999.999
-0.000157727
0.000427118
-1000
-8.86681e-05
0.000432427
-1000
-6.2095e-05
0.000447462
-1000
-1.74754e-05
0.000437073
-1000
0.000416436
-1000
-0.000125122
0.000418912
-999.999
-0.00010336
0.000398583
-999.999
-6.91434e-05
0.000406462
-1000
-4.04657e-05
0.000391498
-1000
0.000370615
-1000
-9.64605e-05
0.000339057
-999.999
-9.03893e-05
0.000322586
-999.999
-8.0394e-05
0.000305973
-999.999
-6.06357e-05
0.000280438
-999.999
0.000259963
-999.999
-0.000112002
0.000201655
-999.999
-0.000105363
0.000177214
-999.999
-0.000102461
0.000150154
-999.999
-8.33275e-05
0.000126661
-999.999
0.000116091
-999.999
-0.000139912
-999.999
-0.000131021
-999.999
-0.000128102
-999.999
-9.8771e-05
-999.999
-999.999
-0.000394234
0.000691726
-999.999
-0.000225834
0.00075363
-1000
-0.000142329
0.000777327
-1000
-7.0969e-05
0.000759874
-1000
0.000728593
-1000
-0.000256508
0.000729867
-999.999
-0.00020679
0.000706221
-999.999
-0.000159376
0.000698558
-999.999
-9.9425e-05
0.000663963
-1000
0.000633834
-1000
-0.000224159
0.000599611
-999.999
-0.000218476
0.000544864
-999.999
-0.000190644
0.000505552
-999.999
-0.000128902
0.000464628
-999.999
0.000438592
-999.999
-0.000268568
0.000331455
-999.998
-0.000255196
0.000283472
-999.999
-0.000231288
0.000238722
-999.999
-0.000157528
0.000214275
-999.999
0.000206722
-999.999
-0.000321133
-999.998
-0.000296323
-999.999
-0.000257748
-999.999
-0.000163558
-999.999
-999.999
-0.00055825
0.00108158
-999.999
-0.000433943
0.00113736
-1000
-0.000299025
0.00115215
-1000
-0.000163896
0.0011446
-1000
0.00112527
-1000
-0.000448724
0.00104821
-999.999
-0.000385647
0.00104388
-999.999
-0.000303888
0.00101827
-999.999
-0.000172618
0.00098019
-1000
0.000950262
-1000
-0.000465967
0.000826286
-999.998
-0.000421453
0.000773872
-999.999
-0.000345138
0.000723069
-999.999
-0.000199199
0.000680704
-999.999
0.000659893
-999.999
-0.000522219
0.000430665
-999.998
-0.000469521
0.000386043
-999.999
-0.00038697
0.000346394
-999.999
-0.000219101
0.000333943
-999.999
0.000341311
-999.999
-0.000571121
-999.998
-0.000507277
-999.998
-0.000403734
-999.999
-0.000214148
-999.999
-999.999
-0.000751083
0.0016314
-999.999
-0.000683823
0.00163259
-1000
-0.000498467
0.00163793
-1000
-0.000255487
0.00163851
-1000
0.00162544
-1000
-0.000752349
0.00143862
-999.999
-0.000646345
0.00142856
-999.999
-0.000484902
0.00140708
-999.999
-0.000254014
0.0013762
-1000
0.00135045
-1000
-0.000766038
0.00106258
-999.998
-0.000677022
0.00103395
-999.999
-0.000518146
0.000994104
-999.999
-0.000275465
0.000965909
-999.999
0.000957143
-999.999
-0.000802313
0.000535815
-999.998
-0.000714222
0.000519282
-999.998
-0.000546065
0.000501656
-999.998
-0.000281526
0.000504408
-999.999
0.000520206
-999.999
-0.000827117
-999.998
-0.000729796
-999.998
-0.000543152
-999.998
-0.000266103
-999.998
-999.998
-0.00101739
0.00237189
-999.999
-0.000961045
0.00228005
-1000
-0.000696173
0.00228188
-1000
-0.000336205
0.00227535
-1000
0.00224011
-1000
-0.00109569
0.00197712
-999.998
-0.000962557
0.00194005
-999.999
-0.000693951
0.0019212
-999.999
-0.000353049
0.00189784
-999.999
0.00187697
-1000
-0.00113033
0.00138651
-999.998
-0.000979042
0.00138593
-999.998
-0.000719286
0.0013686
-999.998
-0.000369305
0.00136144
-999.999
0.00136453
-999.999
-0.00113668
0.000705412
-999.997
-0.0009958
0.000715416
-999.998
-0.000727372
0.000722936
-999.998
-0.000362836
0.00073541
-999.998
0.000747023
-999.998
-0.0011251
-999.997
-0.000986706
-999.997
-0.000713775
-999.998
-0.000348885
-999.998
-999.998
-0.00146556
0.0031834
-999.999
-0.00129462
0.00315351
-1000
-0.000931482
0.0031446
-1000
-0.000465077
0.00311015
-1000
0.0030554
-1000
-0.00155215
0.00269379
-999.998
-0.00135143
0.00265683
-999.999
-0.000968508
0.00263847
-999.999
-0.000503716
0.00262187
-999.999
0.002612
-1000
-0.00157753
0.00189148
-999.997
-0.00135941
0.00190789
-999.998
-0.000984721
0.00191054
-999.998
-0.000507178
0.00191895
-999.998
0.00192635
-999.999
-0.0015644
0.000990827
-999.996
-0.00135707
0.00101437
-999.997
-0.000976958
0.00103066
-999.997
-0.000495477
0.00103985
-999.998
0.00104308
-999.998
-0.00153494
-999.996
-0.00133872
-999.996
-0.000966121
-999.997
-0.000487748
-999.997
-999.997
-0.00212176
0.00434142
-999.999
-0.00179362
0.00435562
-1000
-0.00130127
0.00432687
-1000
-0.000692752
0.00428549
-1000
0.00425102
-1000
-0.00216455
0.00367956
-999.997
-0.0018597
0.00368067
-999.998
-0.00135037
0.00366441
-999.999
-0.000712207
0.00366027
-999.999
0.00366204
-1000
-0.00217743
0.00266461
-999.996
-0.00187282
0.00267636
-999.997
-0.00135456
0.0026855
-999.997
-0.000702428
0.00269696
-999.998
0.00270016
-999.998
-0.00216256
0.00143035
-999.995
-0.0018639
0.00143849
-999.996
-0.001343
0.00144518
-999.996
-0.000694084
0.00144531
-999.997
0.00144528
-999.997
-0.00214842
-999.994
-0.00185257
-999.995
-0.00133864
-999.996
-0.000687771
-999.996
-999.997
-0.00292207
0.0060791
-999.999
-0.00251724
0.0060326
-1000
-0.0018496
0.00598886
-1000
-0.000991663
0.00597368
-1000
0.00597515
-1000
-0.00296608
0.00512161
-999.997
-0.00254568
0.00512888
-999.998
-0.00186265
0.00511076
-999.999
-0.000975381
0.00511717
-999.999
0.00511911
-1000
-0.00300009
0.00375576
-999.995
-0.0025673
0.00374865
-999.996
-0.00185703
0.00374947
-999.997
-0.000963605
0.00375559
-999.997
0.00375186
-999.998
-0.00300687
0.00201407
-999.993
-0.00256522
0.00199566
-999.994
-0.00185033
0.00199419
-999.995
-0.000960651
0.00199264
-999.996
0.00199152
-999.996
-0.00301803
-999.992
-0.00255844
-999.994
-0.00184479
-999.995
-0.000953205
-999.995
-999.996
-0.00392582
0.00847248
-999.999
-0.00345972
0.00832257
-1000
-0.00254729
0.00828687
-1000
-0.00134221
0.00829728
-1000
0.00830175
-1000
-0.00403317
0.00708035
-999.996
-0.0034653
0.00709733
-999.997
-0.00252924
0.0070806
-999.998
-0.00131729
0.00708845
-999.999
0.00708153
-1000
-0.0041053
0.00518836
-999.993
-0.00348777
0.0051765
-999.994
-0.00252358
0.0051717
-999.996
-0.00131099
0.00517407
-999.997
0.00516316
-999.997
-0.00412152
0.00273993
-999.991
-0.00348928
0.00272567
-999.992
-0.00252076
0.00272777
-999.994
-0.00131231
0.00272856
-999.995
0.00272352
-999.995
-0.00412716
-999.99
-0.0034758
-999.991
-0.0025112
-999.993
-0.00130671
-999.994
-999.994
-0.00535167
0.011501
-999.999
-0.00468239
0.0114381
-1000
-0.00343384
0.0113962
-1000
-0.00180378
0.011407
-1000
0.0113978
-1000
-0.00549962
0.00973329
-999.994
-0.00469666
0.00973654
-999.996
-0.00341537
0.00972605
-999.998
-0.00178508
0.00973048
-999.999
0.00971267
-1000
-0.00555754
0.0070687
-999.991
-0.00470728
0.0070787
-999.993
-0.00341294
0.00707736
-999.994
-0.00178307
0.00707583
-999.995
0.00705525
-999.996
-0.00555913
0.00370075
-999.988
-0.00470552
0.00371426
-999.99
-0.00341431
0.00371766
-999.992
-0.00178841
0.00371587
-999.993
0.00370756
-999.994
-0.00553417
-999.987
-0.00468828
-999.989
-0.00340642
-999.99
-0.0017827
-999.992
-999.992
-0.0073144
0.015769
-999.998
-0.00629641
0.0156827
-1000
-0.00460855
0.0156285
-1000
-0.00243131
0.0156244
-1000
0.0156
-1000.01
-0.00745636
0.0133556
-999.992
-0.00634388
0.0133288
-999.995
-0.00460929
0.0133147
-999.997
-0.00241926
0.0133039
-999.999
0.013264
-1000
-0.00750131
0.00965277
-999.987
-0.00635697
0.00967124
-999.99
-0.00462066
0.00966264
-999.992
-0.00242951
0.00964756
-999.994
0.00961757
-999.995
-0.00748978
0.00505614
-999.984
-0.0063638
0.00507496
-999.986
-0.00463546
0.00506498
-999.989
-0.00243708
0.00505858
-999.991
0.00504938
-999.991
-0.00745498
-999.982
-0.00635749
-999.985
-0.00463016
-999.987
-0.00242802
-999.989
-999.99
-0.0100008
0.0215581
-999.998
-0.00851965
0.0214965
-1000
-0.00619101
0.0214265
-1000
-0.0032535
0.0213828
-1000.01
0.0213037
-1000.01
-0.0101146
0.0182954
-999.99
-0.00858712
0.018255
-999.993
-0.00623503
0.0182073
-999.997
-0.00328385
0.0181588
-999.999
0.0180892
-1000
-0.0101628
0.0132403
-999.983
-0.00863281
0.0132304
-999.987
-0.00628301
0.0131905
-999.99
-0.00331119
0.0131592
-999.992
0.0131243
-999.993
-0.0101757
0.00695316
-999.978
-0.00867192
0.00694239
-999.982
-0.00631346
0.00691689
-999.985
-0.00331567
0.00690991
-999.987
0.00689772
-999.988
-0.0101638
-999.975
-0.008677
-999.979
-0.00630518
-999.982
-0.00330423
-999.985
-999.986
-0.0137781
0.0293646
-999.997
-0.0116205
0.0293867
-1000
-0.00838181
0.0293025
-1000.01
-0.00440546
0.029193
-1000.01
0.02905
-1000.01
-0.0138039
0.0250084
-999.986
-0.0116991
0.0249588
-999.991
-0.00849185
0.0248598
-999.995
-0.0044825
0.0247777
-999.999
0.0246965
-1000
-0.0138646
0.0181503
-999.977
-0.0117958
0.0180856
-999.982
-0.00857273
0.0180165
-999.986
-0.00450626
0.0179827
-999.989
0.0179408
-999.991
-0.0139313
0.00953076
-999.97
-0.0118643
0.00949284
-999.975
-0.00860502
0.00946979
-999.98
-0.00450639
0.00946281
-999.983
0.00944328
-999.984
-0.0139371
-999.966
-0.0118603
-999.972
-0.00859237
-999.976
-0.00449432
-999.979
-999.981
-0.018909
0.040048
-999.996
-0.0158982
0.0400824
-1000
-0.011487
0.0399582
-1000.01
-0.00607015
0.0398238
-1000.01
0.0396869
-1000.02
-0.0189006
0.0341358
-999.981
-0.0160148
0.0340517
-999.988
-0.0116201
0.0339231
-999.994
-0.00611763
0.033845
-999.998
0.0337574
-1000
-0.0189966
0.0247951
-999.968
-0.0161414
0.0246979
-999.975
-0.0116965
0.0246276
-999.981
-0.00612751
0.0245946
-999.986
0.0245306
-999.988
-0.019096
0.0130053
-999.959
-0.0162107
0.0129796
-999.966
-0.0117278
0.012966
-999.972
-0.00613445
0.0129506
-999.976
0.0129138
-999.979
-0.0190779
-999.954
-0.0161881
-999.961
-0.0117175
-999.967
-0.00612812
-999.972
-999.974
-0.025652
0.0547866
-999.995
-0.021707
0.054661
-1000
-0.0157678
0.0544743
-1000.01
-0.00831748
0.05437
-1000.02
0.0542388
-1000.02
-0.0258104
0.0466001
-999.974
-0.0218904
0.0464518
-999.984
-0.0158701
0.0463167
-999.992
-0.00832602
0.0462394
-999.997
0.0461056
-1000
-0.025965
0.0338399
-999.957
-0.0220238
0.033739
-999.966
-0.0159457
0.0336595
-999.974
-0.0083544
0.0336008
-999.98
0.0334926
-999.984
-0.0260666
0.0177733
-999.944
-0.022102
0.0177521
-999.954
-0.016003
0.0177171
-999.962
-0.00838562
0.0176777
-999.968
0.0176139
-999.971
-0.0260284
-999.938
-0.0220883
-999.947
-0.0160066
-999.956
-0.00839057
-999.962
-999.965
-0.0347111
0.0749662
-999.992
-0.0295624
0.074592
-1000.01
-0.0214947
0.0743315
-1000.02
-0.0112829
0.0741994
-1000.02
0.0739571
-1000.03
-0.0351196
0.0636651
-999.965
-0.0298266
0.0634263
-999.978
-0.0216259
0.0632413
-999.989
-0.0113564
0.063099
-999.997
0.0628776
-1000
-0.0353574
0.0462574
-999.941
-0.0300112
0.0461007
-999.954
-0.0217666
0.0459521
-999.965
-0.0114344
0.045836
-999.973
0.0456681
-999.978
-0.0355118
0.0243595
-999.924
-0.0301593
0.0242585
-999.937
-0.0218813
0.0241649
-999.948
-0.011498
0.0240903
-999.957
0.0240087
-999.961
-0.0355315
-999.915
-0.0301853
-999.928
-0.0219059
-999.94
-0.0114991
-999.948
-999.952
-0.047244
0.102387
-999.99
-0.0402627
0.101824
-1000.01
-0.0292349
0.101442
-1000.02
-0.0153484
0.101168
-1000.03
0.100752
-1000.04
-0.0478186
0.0870093
-999.952
-0.0406525
0.0866193
-999.97
-0.0295082
0.0862941
-999.985
-0.0155339
0.0860321
-999.996
0.0857057
-1000
-0.0482014
0.0632525
-999.92
-0.0409786
0.0629451
-999.938
-0.0297679
0.0626791
-999.953
-0.0156647
0.062488
-999.964
0.0622558
-999.97
-0.0485043
0.0333227
-999.896
-0.0412447
0.033105
-999.915
-0.0299569
0.032947
-999.93
-0.0157549
0.0328376
-999.941
0.0327435
-999.947
-0.0486103
-999.884
-0.0413093
-999.902
-0.0299973
-999.918
-0.015739
-999.929
-999.935
-0.0645774
0.139672
-999.986
-0.0549023
0.138954
-1000.01
-0.0398618
0.138351
-1000.03
-0.0209682
0.137884
-1000.04
0.137305
-1000.05
-0.0653012
0.118851
-999.934
-0.0555147
0.118218
-999.959
-0.0403273
0.117674
-999.979
-0.0212328
0.117264
-999.994
0.116804
-1000
-0.0659242
0.0863847
-999.891
-0.0560596
0.0858815
-999.915
-0.040734
0.0854681
-999.936
-0.0214259
0.0851783
-999.951
0.084861
-999.959
-0.0664226
0.045444
-999.859
-0.0564735
0.0451546
-999.884
-0.0410208
0.0449277
-999.905
-0.0215499
0.0447748
-999.92
0.0446271
-999.928
-0.0665597
-999.842
-0.056573
-999.867
-0.0410787
-999.888
-0.0215478
-999.904
-999.912
-0.0882289
0.190551
-999.981
-0.0748656
0.189497
-1000.01
-0.054396
0.188523
-1000.04
-0.0286064
0.187812
-1000.06
0.187019
-1000.07
-0.0892875
0.162228
-999.911
-0.0758546
0.161231
-999.944
-0.0551053
0.160366
-999.972
-0.0289699
0.159743
-999.992
0.159081
-1000
-0.0902715
0.117908
-999.851
-0.0767203
0.117143
-999.885
-0.055723
0.1165
-999.913
-0.029269
0.11605
-999.934
0.115574
-999.945
-0.0910321
0.061972
-999.808
-0.0773634
0.061583
-999.842
-0.0561688
0.0612407
-999.871
-0.0294804
0.0609997
-999.892
0.0607354
-999.903
-0.0912137
-999.785
-0.0775316
-999.819
-0.0562811
-999.848
-0.0295406
-999.87
-999.881
-0.120304
0.259973
-999.974
-0.102047
0.258246
-1000.02
-0.0741253
0.256694
-1000.06
-0.0389297
0.255583
-1000.08
0.254433
-1000.1
-0.122034
0.221348
-999.879
-0.103617
0.219773
-999.924
-0.0752332
0.218401
-999.962
-0.0394971
0.217424
-999.99
0.216429
-1000
-0.123595
0.160943
-999.797
-0.104992
0.159728
-999.843
-0.0762041
0.158699
-999.882
-0.0399944
0.157967
-999.911
0.15722
-999.926
-0.124805
0.0845975
-999.738
-0.106021
0.0839643
-999.785
-0.0769306
0.0834162
-999.825
-0.0403784
0.0830117
-999.853
0.0825923
-999.869
-0.125156
-999.707
-0.106333
-999.754
-0.0771619
-999.794
-0.0405191
-999.823
-999.839
-0.163946
0.354505
-999.965
-0.139063
0.351746
-1000.03
-0.100877
0.349328
-1000.08
-0.0529368
0.347549
-1000.11
0.345831
-1000.13
-0.166711
0.301964
-999.835
-0.141499
0.299441
-999.897
-0.102651
0.297259
-999.949
-0.0538632
0.295684
-999.987
0.294177
-1000.01
-0.169227
0.219639
-999.724
-0.143685
0.21769
-999.787
-0.104219
0.216039
-999.841
-0.0546918
0.21484
-999.879
0.213705
-999.9
-0.171173
0.115504
-999.643
-0.145336
0.114449
-999.707
-0.105412
0.113561
-999.762
-0.0553346
0.112896
-999.801
0.112291
-999.823
-0.171844
-999.601
-0.145903
-999.666
-0.105839
-999.721
-0.0555604
-999.761
-999.782
-0.223253
0.483351
-999.953
-0.189334
0.478968
-1000.03
-0.137216
0.475165
-1000.1
-0.0720009
0.47234
-1000.15
0.469788
-1000.18
-0.227648
0.411942
-999.776
-0.193153
0.407863
-999.86
-0.140035
0.40439
-999.931
-0.0734728
0.401858
-999.983
0.399609
-1000.01
-0.231732
0.299693
-999.624
-0.196636
0.296589
-999.711
-0.142562
0.293948
-999.784
-0.0748023
0.292016
-999.837
0.290327
-999.866
-0.234837
0.157676
-999.514
-0.19928
0.155971
-999.602
-0.144488
0.154539
-999.677
-0.0758228
0.153476
-999.732
0.152598
-999.761
-0.236023
-999.456
-0.200272
-999.545
-0.145227
-999.621
-0.0761846
-999.676
-999.706
-0.303665
0.65916
-999.938
-0.25748
0.65207
-1000.05
-0.186537
0.646026
-1000.14
-0.09786
0.641582
-1000.21
0.637795
-1000.24
-0.310775
0.561988
-999.696
-0.263543
0.555441
-999.81
-0.190974
0.549906
-999.907
-0.100176
0.545861
-999.978
0.542488
-1000.01
-0.317342
0.409004
-999.489
-0.269097
0.404041
-999.608
-0.195018
0.399805
-999.708
-0.102301
0.396689
-999.781
0.39415
-999.819
-0.322315
0.215253
-999.338
-0.273345
0.212531
-999.46
-0.198129
0.210215
-999.563
-0.103929
0.208518
-999.637
0.207166
-999.678
-0.324333
-999.259
-0.275063
-999.382
-0.199389
-999.487
-0.10458
-999.562
-999.603
-0.412916
0.898702
-999.918
-0.349782
0.887461
-1000.07
-0.253204
0.877887
-1000.19
-0.132758
0.870824
-1000.28
0.86509
-1000.33
-0.424191
0.766729
-999.588
-0.359383
0.756317
-999.744
-0.260259
0.747447
-999.876
-0.13649
0.740909
-999.971
0.735746
-1000.02
-0.434652
0.558437
-999.305
-0.368291
0.550431
-999.468
-0.266801
0.543557
-999.606
-0.139955
0.538475
-999.705
0.534578
-999.758
-0.44269
0.294012
-999.098
-0.375195
0.289617
-999.266
-0.271883
0.285835
-999.409
-0.142619
0.283072
-999.511
0.280954
-999.567
-0.446134
-998.99
-0.378173
-999.161
-0.274055
-999.305
-0.143782
-999.41
-999.466
-0.560897
1.2251
-999.893
-0.474402
1.20741
-1000.09
-0.343067
1.19214
-1000.26
-0.179834
1.18075
-1000.39
1.17197
-1000.45
-0.578652
1.04641
-999.443
-0.489709
1.02969
-999.655
-0.354444
1.01529
-999.834
-0.18589
1.00459
-999.964
0.996597
-1000.03
-0.595487
0.763018
-999.056
-0.504189
0.749924
-999.28
-0.365163
0.738633
-999.468
-0.191577
0.730294
-999.605
0.72422
-999.678
-0.608663
0.402037
-998.773
-0.515544
0.394805
-999.005
-0.373517
0.388575
-999.201
-0.19598
0.384008
-999.343
0.380707
-999.419
-0.614621
-998.623
-0.520694
-998.86
-0.377286
-999.06
-0.197984
-999.205
-999.283
-0.760164
1.67018
-999.862
-0.641994
1.64189
-1000.13
-0.463981
1.61724
-1000.36
-0.243229
1.59879
-1000.52
1.58529
-1000.61
-0.788582
1.42885
-999.249
-0.666708
1.40158
-999.537
-0.482421
1.37795
-999.78
-0.25303
1.36036
-999.955
1.34787
-1000.05
-0.816077
1.04362
-998.72
-0.690495
1.02198
-999.026
-0.500065
1.00331
-999.284
-0.262398
0.989514
-999.472
0.979901
-999.572
-0.8379
0.550616
-998.329
-0.709295
0.538598
-998.65
-0.513906
0.528255
-998.921
-0.26974
0.520637
-999.118
0.515378
-999.225
-0.848224
-998.123
-0.71819
-998.451
-0.520455
-998.73
-0.273238
-998.932
-999.041
-1.0275
2.27656
-999.825
-0.866394
2.231
-1000.18
-0.625915
2.19096
-1000.49
-0.328052
2.1609
-1000.7
2.13977
-1000.82
-1.07332
1.95224
-998.992
-0.906573
1.90741
-999.38
-0.655969
1.86838
-999.708
-0.344147
1.8392
-999.945
1.81928
-1000.07
-1.11858
1.42953
-998.266
-0.945911
1.39357
-998.685
-0.685267
1.36246
-999.039
-0.359829
1.33933
-999.297
1.32381
-999.437
-1.15493
0.755724
-997.726
-0.977281
0.735656
-998.17
-0.708513
0.718357
-998.546
-0.372263
0.705502
-998.821
0.696966
-998.97
-1.17277
-997.438
-0.992663
-997.896
-0.719944
-998.284
-0.378402
-998.568
-998.723
-1.38353
3.10209
-999.788
-1.16472
3.02826
-1000.26
-0.841328
2.96289
-1000.66
-0.440983
2.91339
-1000.94
2.87961
-1001.1
-1.45788
2.66986
-998.654
-1.23038
2.59559
-999.175
-0.890812
2.53049
-999.615
-0.467901
2.4813
-999.936
2.44874
-1000.11
-1.53301
1.96256
-997.656
-1.29608
1.90242
-998.229
-0.940243
1.8501
-998.714
-0.494721
1.81077
-999.072
1.78519
-999.268
-1.59391
1.04053
-996.904
-1.34893
1.00694
-997.519
-0.979796
0.97779
-998.043
-0.51611
0.95588
-998.43
0.941744
-998.643
-1.62461
-996.5
-1.37558
-997.138
-0.999804
-997.682
-0.526969
-998.085
-998.308
-1.85211
4.22485
-999.758
-1.55726
4.10431
-1000.37
-1.12583
3.99685
-1000.88
-0.591038
3.91438
-1001.26
3.85929
-1001.46
-1.97367
3.65632
-998.221
-1.66523
3.53211
-998.911
-1.20821
3.42215
-999.497
-0.636639
3.33764
-999.93
3.28268
-1000.17
-2.09964
2.7034
-996.842
-1.77642
2.60232
-997.622
-1.29325
2.51364
-998.289
-0.683789
2.44597
-998.79
2.40275
-999.072
-2.20224
1.43997
-995.785
-1.86613
1.38358
-996.637
-1.36131
1.33412
-997.368
-0.721215
1.29633
-997.92
1.27235
-998.234
-2.25499
-995.206
-1.91238
-996.097
-1.39656
-996.863
-0.74065
-997.445
-997.776
-2.45867
5.74801
-999.76
-2.06665
5.55056
-1000.53
-1.49912
5.3731
-1001.18
-0.790654
5.23496
-1001.68
5.1435
-1001.95
-2.6579
5.0174
-997.685
-2.24478
4.80729
-998.581
-1.63664
4.6188
-999.35
-0.868448
4.46975
-999.933
4.37248
-1000.27
-2.87171
3.74321
-995.768
-2.43604
3.57257
-996.823
-1.78699
3.42157
-997.74
-0.955051
3.30393
-998.456
3.22907
-998.883
-3.04527
2.00878
-994.257
-2.58895
1.91397
-995.434
-1.90516
1.82964
-996.459
-1.02149
1.76377
-997.264
1.72214
-997.748
-3.1356
-993.408
-2.66924
-994.649
-1.96762
-995.736
-1.05665
-996.592
-997.11
-3.22295
7.80587
-999.857
-2.71623
7.48366
-1000.78
-1.98853
7.19257
-1001.6
-1.06066
6.9656
-1002.27
6.81361
-1002.67
-3.54769
6.90768
-997.076
-3.00698
6.54561
-998.183
-2.2121
6.21556
-999.168
-1.19037
5.94096
-999.93
5.75415
-1000.4
-3.91798
5.2242
-994.373
-3.34414
4.93517
-995.786
-2.49066
4.67895
-997.057
-1.36216
4.474
-998.117
4.34198
-998.833
-4.2121
2.83695
-992.166
-3.60346
2.67847
-993.786
-2.69531
2.53455
-995.223
-1.4801
2.41876
-996.424
2.34358
-997.229
-4.36501
-990.87
-3.74255
-992.593
-2.80658
-994.137
-1.54546
-995.434
-996.313
-4.14271
10.5667
-1000.23
-3.53383
10.0558
-1001.22
-2.64648
9.59728
-1002.31
-1.45161
9.2584
-1003.32
9.02057
-1004.05
-4.65375
9.56572
-996.554
-3.98234
8.91704
-997.716
-2.9649
8.31773
-998.906
-1.63684
7.76429
-999.764
7.34591
-1000.36
-5.32297
7.37915
-992.624
-4.60317
6.88733
-994.476
-3.53022
6.46377
-996.276
-2.02775
6.11458
-997.97
5.88314
-999.398
-5.8211
4.08372
-989.3
-5.0287
3.82179
-991.513
-3.87073
3.57565
-993.493
-2.22591
3.36903
-995.322
3.22496
-996.797
-6.07475
-987.206
-5.27045
-989.576
-4.07254
-991.759
-2.35403
-993.783
-995.442
-5.14912
14.218
-1001.45
-4.60348
13.5035
-1002.19
-3.64144
12.8673
-1003.99
-2.13572
12.5178
-1005.97
12.2014
-1007.7
-5.83752
13.4074
-996.787
-5.15214
12.1333
-997.031
-3.82035
10.9649
-998.335
-2.19248
9.68037
-998.555
8.65816
-999.008
-7.17423
10.6127
-990.592
-6.38891
9.75941
-992.887
-5.18787
9.12151
-995.634
-3.29574
8.57531
-998.757
8.19864
-1002.23
-8.02286
6.05448
-985.416
-7.00405
5.6258
-988.398
-5.6572
5.19759
-990.916
-3.53096
4.81791
-993.691
4.51337
-996.644
-8.43207
-981.745
-7.43985
-984.942
-6.04347
-987.958
-3.81016
-991.199
-994.739
-6.02799
18.8555
-1005.42
-6.33765
18.3635
-1004.47
-5.57008
17.6228
-1008.65
-3.67663
17.6488
-1013
17.0933
-1017.28
-6.36601
19.3598
-1000.48
-6.31719
16.2949
-995.011
-4.08679
13.9489
-996.892
-2.57345
11.1981
-993.617
9.12045
-993.609
-9.50546
15.6668
-988.656
-9.1198
14.0817
-991.06
-8.25892
13.4233
-995.969
-6.17917
12.692
-1002.33
12.0147
-1011.31
-10.9913
9.3805
-980.494
-9.5539
8.68459
-984.439
-8.36481
7.88841
-986.57
-5.95421
7.13268
-990.543
6.34229
-996.926
-11.6182
-973.395
-10.4599
-977.416
-9.20598
-981.323
-6.69749
-986.575
-995.094
-6.59165
23.7729
-1016.94
-10.0674
25.8641
-1009.09
-9.84824
24.199
-1019.82
-7.30772
25.4617
-1028.67
23.6929
-1038.21
-4.5892
30.0903
-1016.82
-6.49419
20.7036
-987.946
-2.07988
17.7128
-994.82
-2.19496
12.5032
-980.543
8.40577
-980.517
-12.4325
23.7832
-987.043
-14.0061
20.4629
-989.246
-14.5833
21.1215
-998.801
-13.1096
19.7685
-1011.07
17.904
-1033.92
-14.8899
15.4107
-975.702
-12.0392
14.3772
-981.204
-12.2369
12.5618
-977.813
-10.6911
10.907
-983.228
9.33181
-999.045
-15.6287
-960.547
-14.4574
-964.21
-14.3903
-968.829
-13.0608
-976.998
-998.823
-7.32542
24.6957
-1043.1
-17.992
37.7107
-1017.14
-18.7453
31.2335
-1041.43
-15.0898
36.8136
-1058.33
31.3382
-1078.92
2.08063
52.7454
-1072.05
0.0738346
24.2907
-972.52
3.5504
24.5172
-991.58
1.23284
13.6681
-955.081
4.22304
-952.169
-17.9121
36.7097
-981.09
-23.5673
28.6658
-987.965
-27.2316
35.8781
-1006.5
-29.5956
31.6359
-1026.67
26.0378
-1085.33
-20.2068
27.035
-974.078
-12.1299
26.3706
-986.985
-17.4759
20.4915
-957.081
-21.2326
18.4778
-966.313
15.7478
-1009.99
-19.8877
-938.247
-19.7171
-938.011
-23.0871
-944.968
-27.9263
-953.68
-1011
-14.9587
23.1213
-1082.85
-36.2206
52.431
-1028.52
-36.4051
38.1935
-1091.53
-31.0392
52.4849
-1116.96
38.7881
-1166.27
18.4761
84.8277
-1185.06
12.3114
25.0823
-939.006
21.3448
34.9911
-997.411
8.11401
15.8413
-905.206
-18.4106
-886.855
-35.1399
55.6603
-960.72
-42.274
34.3078
-990.057
-51.1641
65.7728
-1028.39
-66.9751
54.0696
-1049.09
37.9086
-1208.62
-31.6592
49.1658
-976.603
-3.97861
54.3125
-1034.67
-25.5881
34.0507
-903.749
-44.3215
36.2568
-929.766
27.2083
-1043.61
-26.4265
-889.31
-29.0528
-881.072
-37.4257
-902.544
-63.2766
-891.573
-1047.07
31.8466
-117.718
-1443.41
51.1548
91.4837
-1230.26
-70.4026
-0.918942
-1049.38
-36.1561
84.5425
-1281.77
64.5313
-1262.79
208.347
333.147
-2091.69
95.2415
40.1498
-774.567
83.005
117.494
-1103.59
42.2678
43.6612
-823.587
-105.187
-674.869
-24.6701
172.349
-901.744
-28.0896
45.2733
-991.761
-91.882
123.359
-970.462
-178.898
116.716
-1035.13
35.1523
-1527.86
-30.9951
108.016
-982.791
60.456
172.409
-1253.26
-34.152
77.8623
-763.644
-183.375
132.207
-796.035
172.274
-1364.1
-3.04722
-767.321
-7.43884
-704.271
-36.1379
-795.983
-134.175
-661.328
-1008.97
-236.053
223.443
-1075.49
-411.484
113.038
-864.633
-146.594
129.672
-1565.46
-186.23
54.3313
-1292.72
43.8935
-1722.33
6.55467
-8.55542
-1634.31
3.47666
-81.13
-577.32
77.0091
63.5402
-1110.99
46.402
-76.9896
-661.659
-95.39
-489.184
-254.693
-4.75597
-687.468
-240.009
-9.14796
-1078.43
-173.83
192.129
-1165.23
-237.351
7.62311
-1056.22
-41.5763
-1819.02
-91.1019
92.3093
-938.577
39.3166
63.9331
-1456.76
-25.8582
58.7366
-565.077
-15.9293
-18.882
-779.458
-332.293
-1089.32
-46.3155
-488.33
-109.962
-576.692
-323.626
-523.582
-454.909
-548.928
-1796.17
2.61821
-0.192382
-1298.21
86.5269
46.3016
-1254.61
-49.1504
-209.91
-1264.81
68.7467
31.1556
-1456.18
133.413
-1639.15
127.371
70.3933
-2247.88
36.8942
-79.6795
-360.862
33.1346
123.409
-1440.55
12.0057
24.4629
-633.838
-153.392
-190.373
12.9693
29.1547
-696.483
42.9874
-86.7985
-1101.33
-58.9639
64.2303
-1004.1
-221.689
63.2845
-932.318
-89.6635
-2104.44
-38.7931
11.8549
-970.605
117.219
180.233
-1879.8
-9.87919
-12.1762
-361.572
-108.065
86.6047
-704.592
372.315
-1659.36
25.7806
-396.638
-6.00925
-364.669
87.9534
-629.721
46.3202
-420.69
-1377.54
680.174
-146.922
-2339.67
696.54
46.4918
-1408.95
-124.556
-17.5616
-194.57
129.972
142.114
-1855.16
-104.62
-1497.43
-245.105
592.924
-3439.22
15.7453
14.3974
-589.619
-27.6277
123.396
-1538.13
-75.4736
-3.60706
-440.271
17.6002
-388.067
252.77
227.136
-605.227
201.64
164.531
-1200.33
-109.433
-25.3169
-544.315
-170.786
-86.324
-788.248
-429.27
-1828.35
139.795
-111.759
-630.251
-36.2741
54.3992
-1593.6
-72.7835
60.8169
-411.196
-210.624
-9.64794
-643.429
-135.068
-2164.19
76.8679
-572.431
-51.8234
-181.578
-105.893
-514.835
-1.43172
-534.799
-1514.03
-114.642
512.853
-1587.53
-16.2933
-72.863
-1106.6
-8.24635
-50.8191
-21.3834
381.254
8.57577
-2292.75
-301.632
-784.677
-30.7599
-205.397
-2482.93
102.068
-88.8311
-706.479
-41.3663
-142.054
-1303.46
-90.2915
-92.4906
-290.28
-108.438
-671.552
-68.236
-6.68008
-473.988
-53.1736
29.9906
-1334.21
-17.8985
-6.92191
-714.722
186.096
-60.4359
-1024.3
-243.838
-1506.86
-32.8218
-62.3824
-391.482
-137.939
-89.3229
-1369.17
3.65049
19.6133
-579.32
192.463
-42.2371
-850.44
-716.979
-1498.58
40.6054
-855.737
13.8266
-244.122
-102.039
-379.356
-200.227
-478.848
-2431.24
-155.655
-457.934
-319.556
-121.759
6.85354
-1038.5
182.757
20.4333
-351.15
102.124
-7.70414
-2057.8
-20.8405
-231.334
30.0822
-529.168
-2226.77
-94.2482
-159.038
-416.257
-187.241
-476.297
-713.74
54.3475
-123.785
-415.787
-161.814
-476.232
330.259
24.7759
-1679.11
176.663
-232.855
-1106.8
-11.2161
-447.222
-555.917
354.263
-79.2531
-1434.31
-323.708
-990.701
278.087
-42.3504
-683.042
9.18941
-165.555
-1167.57
142.479
-45.9076
-1113.92
174.127
35.5694
-996.911
-314.809
-1333.35
118.822
-1808.33
7.68115
-298.536
53.6079
-471.19
-107.813
-281.858
-2853.86
53.9846
99.1225
-803.69
113.948
-38.0315
-1106.9
142.931
-4.88462
-443.465
-436.97
146.275
-922.725
158.679
-556.105
-149.656
-830.935
-1149.64
17.0617
153.724
-774.73
-18.7399
9.53172
-692.354
79.2375
-0.851432
-366.639
88.7825
-327.097
657.55
-301.322
-2904.11
140.106
48.6579
-484.291
-0.0550966
-109.101
-297.123
169.696
-129.239
-1475.67
-279.431
-452.792
133.018
-378.745
-745.16
33.8834
-19.1544
-1000.62
-43.1278
13.3296
-1159.34
425.921
57.241
-1652.44
-646.355
-540.509
29.2679
-3034.28
140.895
-429.317
-9.79173
-307.174
76.1278
-310.536
-3424.09
-255.383
121.898
-776.928
-118.191
20.7538
-941.11
5.82809
6.66627
-556.504
-168.974
-14.5209
-46.8756
-57.9179
-620.549
-255.724
-100.06
-500.876
-30.6127
98.1367
-1077.22
7.41135
77.683
-801.395
-3.24033
149.809
-520.317
6.11229
-394.368
67.9431
22.7143
-3325.81
-16.2724
57.2351
-359.174
102.288
225.943
-563.943
13.4792
129.73
-1366.78
20.7866
-453.987
202.645
-349.412
-542.948
332.711
-22.3671
-1051.09
176.733
26.839
-804.261
492.486
45.1718
-1883.64
49.9013
-77.1374
229.759
-3832.2
90.7847
-312.71
-3.43349
-186.116
893.98
-1162.78
-2480.21
2.61179
2.82885
-892.907
-43.3249
35.7796
-914.608
2.64375
-33.6198
-805.662
-25.1418
-56.6159
-36.5831
17.622
-740.239
152.227
663.311
-1682.16
7.96913
148.975
-1046.16
-201.733
70.5179
-695.83
-414.329
116.333
-480.67
122.052
-913.127
-131.008
843.324
-3838.08
-110.673
65.7753
-296.31
-143.086
166.926
-627.939
-310.256
159.06
-1242.34
0.178884
-642.369
146.655
979.667
-585.96
-41.51
6.51904
-803.667
-161.781
21.7592
-538.823
-174.488
133.581
-1845.45
54.8928
-306.34
208.45
-2744.37
-13.8007
-83.94
9.90851
-188.067
81.7892
-1101.08
-2343.53
381.249
1624.17
-3357.5
173.124
67.0455
-1026.05
-77.1615
-73.895
-529.725
290.142
13.1874
-507.537
-61.1513
-1017.27
63.3317
1931.06
-2008.56
-125.036
30.6656
-821.414
2.65853
-90.307
-807.113
13.1961
-70.2329
-407.787
-224.199
-736.883
32.7611
-98.5465
-1557.18
-12.1214
-77.1791
-143.583
164.083
63.5586
-958.009
-49.0554
-68.1433
-1031.29
-27.7778
-887.846
-12.1416
562.986
-1152.91
-3.41663
-28.7787
-860.793
-195.182
11.6537
-295.153
7.38514
377.381
-2493.54
585.86
-912.592
-46.1395
-1759.57
-1.12682
-157.731