/*--------------------------------*- C++ -*----------------------------------*\
| =========                 |                                                 |
| \\      /  F ield         | OpenFOAM: The Open Source CFD Toolbox           |
|  \\    /   O peration     | Version:  5.x                                   |
|   \\  /    A nd           | Web:      www.OpenFOAM.org                      |
|    \\/     M anipulation  |                                                 |
\*---------------------------------------------------------------------------*/
FoamFile
{
    version     2.0;
    format      ascii;
    class       volVectorField;
    location    "20000";
    object      U;
}
// * * * * * * * * * * * * * * * * * * * * * * * * * * * * * * * * * * * * * //

dimensions      [0 1 -1 0 0 0 0];

internalField   nonuniform List<vector> 
2250
(
(-1.16453e-10 7.43193e-11 -0.001)
(-2.1723e-11 1.30018e-10 -0.001)
(-3.44844e-11 1.43533e-10 -0.001)
(-8.42124e-12 1.46519e-10 -0.001)
(-2.95895e-12 1.44747e-10 -0.001)
(-5.94005e-11 1.53254e-10 -0.000999999)
(-3.95635e-11 1.32755e-10 -0.000999999)
(-2.92595e-11 1.47567e-10 -0.001)
(-1.26679e-11 1.44878e-10 -0.001)
(-4.40995e-12 1.40113e-10 -0.001)
(-5.64578e-11 1.10586e-10 -0.000999999)
(-2.73966e-11 1.16076e-10 -0.000999999)
(-2.23463e-11 1.2245e-10 -0.000999999)
(-1.55938e-11 1.19486e-10 -0.000999999)
(-7.43913e-12 1.12606e-10 -0.000999999)
(-4.83126e-11 8.44476e-11 -0.000999999)
(-2.76916e-11 8.45638e-11 -0.000999999)
(-2.58428e-11 7.99979e-11 -0.000999999)
(-2.22911e-11 7.27704e-11 -0.000999999)
(-1.10587e-11 6.70106e-11 -0.000999999)
(-4.99872e-11 3.0734e-11 -0.000999999)
(-3.17296e-11 3.07017e-11 -0.000999999)
(-3.40496e-11 2.65759e-11 -0.000999999)
(-2.83809e-11 2.24276e-11 -0.000999999)
(-1.30338e-11 2.03884e-11 -0.000999999)
(-3.03335e-10 2.51852e-10 -0.001)
(-7.42406e-11 3.76658e-10 -0.001)
(-8.91887e-11 4.16124e-10 -0.001)
(-3.39847e-11 4.31553e-10 -0.001)
(-1.2988e-11 4.25377e-10 -0.001)
(-1.89508e-10 4.50071e-10 -0.000999999)
(-9.73701e-11 4.17961e-10 -0.000999999)
(-8.72769e-11 4.3609e-10 -0.001)
(-5.4549e-11 4.18694e-10 -0.001)
(-2.31711e-11 3.98045e-10 -0.001)
(-1.69656e-10 3.6566e-10 -0.000999999)
(-8.82538e-11 3.58168e-10 -0.000999999)
(-8.84562e-11 3.57407e-10 -0.000999999)
(-7.12874e-11 3.38417e-10 -0.000999999)
(-3.28909e-11 3.18498e-10 -0.000999999)
(-1.55896e-10 2.70958e-10 -0.000999999)
(-1.0562e-10 2.52378e-10 -0.000999999)
(-1.07013e-10 2.3077e-10 -0.000999999)
(-9.28715e-11 2.07016e-10 -0.000999999)
(-4.24811e-11 1.91929e-10 -0.000999999)
(-1.64696e-10 9.9368e-11 -0.000999999)
(-1.28075e-10 9.15536e-11 -0.000999999)
(-1.33504e-10 7.65727e-11 -0.000999999)
(-1.09528e-10 6.48224e-11 -0.000999999)
(-4.74948e-11 5.95965e-11 -0.000999999)
(-3.88824e-10 5.96262e-10 -0.000999999)
(-2.30984e-10 6.95007e-10 -0.001)
(-1.93882e-10 7.34789e-10 -0.001)
(-1.08615e-10 7.52352e-10 -0.001)
(-4.10534e-11 7.47763e-10 -0.001)
(-3.25721e-10 7.33388e-10 -0.000999999)
(-1.98135e-10 7.37286e-10 -0.000999999)
(-1.89255e-10 7.50022e-10 -0.000999999)
(-1.32455e-10 7.21988e-10 -0.001)
(-5.37399e-11 6.93955e-10 -0.001)
(-3.14013e-10 6.63787e-10 -0.000999999)
(-2.14313e-10 6.26957e-10 -0.000999999)
(-2.09159e-10 6.05444e-10 -0.000999999)
(-1.63422e-10 5.68931e-10 -0.000999999)
(-6.78316e-11 5.41313e-10 -0.000999999)
(-3.13481e-10 4.64651e-10 -0.000999999)
(-2.56466e-10 4.19926e-10 -0.000999999)
(-2.47255e-10 3.78609e-10 -0.000999999)
(-1.95578e-10 3.46186e-10 -0.000999999)
(-8.03161e-11 3.27977e-10 -0.000999999)
(-3.30937e-10 1.67008e-10 -0.000999998)
(-2.99627e-10 1.45996e-10 -0.000999999)
(-2.8228e-10 1.23195e-10 -0.000999999)
(-2.12984e-10 1.10457e-10 -0.000999999)
(-8.52067e-11 1.05205e-10 -0.000999999)
(-4.51978e-10 1.1016e-09 -0.000999999)
(-4.76321e-10 1.12824e-09 -0.001)
(-3.70694e-10 1.142e-09 -0.001)
(-2.36784e-10 1.15168e-09 -0.001)
(-8.59801e-11 1.14638e-09 -0.001)
(-4.90631e-10 1.06002e-09 -0.000999999)
(-3.94106e-10 1.0972e-09 -0.000999999)
(-3.52853e-10 1.10305e-09 -0.000999999)
(-2.46063e-10 1.08094e-09 -0.001)
(-9.2304e-11 1.05875e-09 -0.001)
(-5.11088e-10 9.64945e-10 -0.000999999)
(-4.33226e-10 9.16521e-10 -0.000999999)
(-3.86913e-10 8.77181e-10 -0.000999999)
(-2.79142e-10 8.37424e-10 -0.000999999)
(-1.0623e-10 8.12001e-10 -0.000999999)
(-5.30175e-10 6.32113e-10 -0.000999998)
(-4.81851e-10 5.87419e-10 -0.000999999)
(-4.3191e-10 5.42347e-10 -0.000999999)
(-3.09688e-10 5.14461e-10 -0.000999999)
(-1.16135e-10 5.06364e-10 -0.000999999)
(-5.492e-10 2.18032e-10 -0.000999998)
(-5.2183e-10 1.976e-10 -0.000999999)
(-4.58902e-10 1.76981e-10 -0.000999999)
(-3.13508e-10 1.6975e-10 -0.000999999)
(-1.13102e-10 1.72267e-10 -0.000999999)
(-6.69834e-10 1.66325e-09 -0.000999999)
(-7.28586e-10 1.67138e-09 -0.001)
(-5.96523e-10 1.66557e-09 -0.001)
(-3.82065e-10 1.66586e-09 -0.001)
(-1.30825e-10 1.65649e-09 -0.001)
(-7.41758e-10 1.53504e-09 -0.000999999)
(-6.85018e-10 1.53403e-09 -0.000999999)
(-5.72571e-10 1.53822e-09 -0.000999999)
(-3.75951e-10 1.52803e-09 -0.001)
(-1.30719e-10 1.51333e-09 -0.001)
(-7.88125e-10 1.28268e-09 -0.000999998)
(-7.25493e-10 1.24353e-09 -0.000999999)
(-6.02442e-10 1.21079e-09 -0.000999999)
(-4.04114e-10 1.18056e-09 -0.000999999)
(-1.42695e-10 1.16274e-09 -0.000999999)
(-8.10025e-10 8.05189e-10 -0.000999998)
(-7.56878e-10 7.84822e-10 -0.000999998)
(-6.35476e-10 7.5621e-10 -0.000999999)
(-4.21713e-10 7.42687e-10 -0.000999999)
(-1.46235e-10 7.46328e-10 -0.000999999)
(-8.24036e-10 2.71635e-10 -0.000999998)
(-7.72842e-10 2.6368e-10 -0.000999998)
(-6.43263e-10 2.54126e-10 -0.000999998)
(-4.1171e-10 2.54676e-10 -0.000999999)
(-1.37297e-10 2.62801e-10 -0.000999999)
(-1.12433e-09 2.28235e-09 -0.000999999)
(-1.01256e-09 2.33462e-09 -0.001)
(-8.42295e-10 2.33706e-09 -0.001)
(-5.24067e-10 2.33331e-09 -0.001)
(-1.70641e-10 2.31051e-09 -0.001)
(-1.11108e-09 2.1699e-09 -0.000999998)
(-1.04957e-09 2.12222e-09 -0.000999999)
(-8.36109e-10 2.11786e-09 -0.000999999)
(-5.31775e-10 2.10744e-09 -0.001)
(-1.80152e-10 2.08464e-09 -0.001)
(-1.15354e-09 1.68367e-09 -0.000999998)
(-1.0646e-09 1.67568e-09 -0.000999998)
(-8.57066e-10 1.65859e-09 -0.000999999)
(-5.53294e-10 1.64232e-09 -0.000999999)
(-1.89446e-10 1.63287e-09 -0.000999999)
(-1.16115e-09 1.05816e-09 -0.000999997)
(-1.07462e-09 1.06226e-09 -0.000999998)
(-8.6939e-10 1.05662e-09 -0.000999998)
(-5.54279e-10 1.05855e-09 -0.000999998)
(-1.86393e-10 1.06667e-09 -0.000999999)
(-1.16293e-09 3.5724e-10 -0.000999997)
(-1.06397e-09 3.63094e-10 -0.000999998)
(-8.59031e-10 3.65788e-10 -0.000999998)
(-5.4007e-10 3.71775e-10 -0.000999998)
(-1.78908e-10 3.78184e-10 -0.000999998)
(-1.77424e-09 3.08462e-09 -0.000999999)
(-1.3812e-09 3.20987e-09 -0.001)
(-1.13411e-09 3.22864e-09 -0.001)
(-7.10362e-10 3.21818e-09 -0.001)
(-2.36164e-10 3.1901e-09 -0.001)
(-1.60612e-09 3.01777e-09 -0.000999998)
(-1.49029e-09 2.94187e-09 -0.000999999)
(-1.17136e-09 2.9159e-09 -0.000999999)
(-7.46271e-10 2.89186e-09 -0.000999999)
(-2.56145e-10 2.86363e-09 -0.001)
(-1.62964e-09 2.27603e-09 -0.000999997)
(-1.48307e-09 2.29481e-09 -0.000999998)
(-1.18403e-09 2.29164e-09 -0.000999998)
(-7.57049e-10 2.28732e-09 -0.000999999)
(-2.5884e-10 2.28619e-09 -0.000999999)
(-1.61791e-09 1.45645e-09 -0.000999997)
(-1.47463e-09 1.47652e-09 -0.000999997)
(-1.17874e-09 1.48517e-09 -0.000999998)
(-7.47216e-10 1.49347e-09 -0.000999998)
(-2.52842e-10 1.49978e-09 -0.000999998)
(-1.61076e-09 5.0117e-10 -0.000999996)
(-1.45145e-09 5.14268e-10 -0.000999997)
(-1.16469e-09 5.21475e-10 -0.000999997)
(-7.38017e-10 5.2599e-10 -0.000999998)
(-2.49171e-10 5.28162e-10 -0.000999998)
(-2.44804e-09 4.30864e-09 -0.000999999)
(-1.9641e-09 4.43728e-09 -0.001)
(-1.56578e-09 4.45944e-09 -0.001)
(-1.01296e-09 4.4474e-09 -0.001)
(-3.51264e-10 4.43422e-09 -0.001)
(-2.26757e-09 4.1119e-09 -0.000999998)
(-2.03855e-09 4.07271e-09 -0.000999998)
(-1.62289e-09 4.03146e-09 -0.000999999)
(-1.0449e-09 4.0079e-09 -0.000999999)
(-3.61498e-10 3.99484e-09 -0.001)
(-2.25865e-09 3.19156e-09 -0.000999996)
(-2.04454e-09 3.19913e-09 -0.000999997)
(-1.63047e-09 3.19796e-09 -0.000999998)
(-1.0417e-09 3.20178e-09 -0.000999998)
(-3.56562e-10 3.20532e-09 -0.000999998)
(-2.24296e-09 2.06343e-09 -0.000999995)
(-2.03208e-09 2.076e-09 -0.000999996)
(-1.62009e-09 2.08411e-09 -0.000999997)
(-1.03121e-09 2.09032e-09 -0.000999997)
(-3.51788e-10 2.09369e-09 -0.000999998)
(-2.23933e-09 7.21887e-10 -0.000999995)
(-2.01982e-09 7.26704e-10 -0.000999996)
(-1.61285e-09 7.30154e-10 -0.000999996)
(-1.02597e-09 7.30718e-10 -0.000999997)
(-3.48505e-10 7.31918e-10 -0.000999997)
(-3.11719e-09 6.17458e-09 -0.000999999)
(-2.82523e-09 6.1809e-09 -0.001)
(-2.19705e-09 6.18577e-09 -0.001)
(-1.43711e-09 6.17969e-09 -0.001)
(-5.02221e-10 6.18264e-09 -0.001)
(-3.11797e-09 5.57935e-09 -0.000999997)
(-2.78234e-09 5.62813e-09 -0.000999998)
(-2.22608e-09 5.59539e-09 -0.000999999)
(-1.43537e-09 5.59107e-09 -0.000999999)
(-4.93481e-10 5.59595e-09 -0.001)
(-3.09968e-09 4.49232e-09 -0.000999995)
(-2.80919e-09 4.47345e-09 -0.000999996)
(-2.23393e-09 4.46338e-09 -0.000999997)
(-1.42552e-09 4.46927e-09 -0.000999998)
(-4.86534e-10 4.46985e-09 -0.000999998)
(-3.1008e-09 2.90745e-09 -0.000999994)
(-2.81119e-09 2.8961e-09 -0.000999995)
(-2.23005e-09 2.89686e-09 -0.000999996)
(-1.42007e-09 2.90022e-09 -0.000999996)
(-4.84296e-10 2.9005e-09 -0.000999997)
(-3.10323e-09 1.01508e-09 -0.000999993)
(-2.81416e-09 1.00647e-09 -0.000999994)
(-2.22527e-09 1.00657e-09 -0.000999995)
(-1.41338e-09 1.00681e-09 -0.000999996)
(-4.79769e-10 1.00847e-09 -0.000999996)
(-4.03588e-09 8.7112e-09 -0.000999999)
(-3.90299e-09 8.57602e-09 -0.001)
(-3.01951e-09 8.57022e-09 -0.001)
(-1.96333e-09 8.56385e-09 -0.001)
(-6.7753e-10 8.56162e-09 -0.001)
(-4.21668e-09 7.67321e-09 -0.000999996)
(-3.79527e-09 7.76618e-09 -0.000999997)
(-3.02346e-09 7.74223e-09 -0.000999998)
(-1.94273e-09 7.75233e-09 -0.000999999)
(-6.64366e-10 7.75479e-09 -0.001)
(-4.2211e-09 6.21933e-09 -0.000999994)
(-3.83396e-09 6.18845e-09 -0.000999995)
(-3.03312e-09 6.1738e-09 -0.000999996)
(-1.93549e-09 6.17772e-09 -0.000999997)
(-6.60106e-10 6.17027e-09 -0.000999997)
(-4.23703e-09 3.99495e-09 -0.000999992)
(-3.84067e-09 3.98348e-09 -0.000999993)
(-3.0339e-09 3.98354e-09 -0.000999994)
(-1.93404e-09 3.98622e-09 -0.000999995)
(-6.59886e-10 3.98115e-09 -0.000999996)
(-4.23612e-09 1.3805e-09 -0.000999991)
(-3.83773e-09 1.37383e-09 -0.000999993)
(-3.02424e-09 1.37592e-09 -0.000999994)
(-1.92623e-09 1.37749e-09 -0.000999994)
(-6.56239e-10 1.37722e-09 -0.000999995)
(-5.54128e-09 1.19449e-08 -0.000999999)
(-5.18761e-09 1.18317e-08 -0.001)
(-4.0843e-09 1.18059e-08 -0.001)
(-2.64253e-09 1.17913e-08 -0.001)
(-9.08868e-10 1.1774e-08 -0.001)
(-5.69994e-09 1.06392e-08 -0.000999995)
(-5.16588e-09 1.06625e-08 -0.000999997)
(-4.08882e-09 1.06415e-08 -0.000999998)
(-2.62387e-09 1.06508e-08 -0.000999999)
(-8.98641e-10 1.06419e-08 -0.001)
(-5.71865e-09 8.48332e-09 -0.000999992)
(-5.18533e-09 8.47638e-09 -0.000999994)
(-4.09568e-09 8.46752e-09 -0.000999995)
(-2.6211e-09 8.46766e-09 -0.000999996)
(-8.97152e-10 8.45038e-09 -0.000999997)
(-5.73356e-09 5.42952e-09 -0.00099999)
(-5.18149e-09 5.4412e-09 -0.000999991)
(-4.09714e-09 5.44302e-09 -0.000999993)
(-2.6242e-09 5.44199e-09 -0.000999994)
(-8.99459e-10 5.43008e-09 -0.000999994)
(-5.72056e-09 1.86414e-09 -0.000999988)
(-5.1616e-09 1.8714e-09 -0.00099999)
(-4.08663e-09 1.87394e-09 -0.000999992)
(-2.61816e-09 1.87387e-09 -0.000999993)
(-8.96781e-10 1.87121e-09 -0.000999993)
(-7.73558e-09 1.62286e-08 -0.000999998)
(-6.90584e-09 1.6211e-08 -0.001)
(-5.49754e-09 1.61879e-08 -0.001)
(-3.55137e-09 1.61717e-08 -0.001)
(-1.22429e-09 1.61408e-08 -0.001)
(-7.75577e-09 1.46756e-08 -0.000999993)
(-6.97322e-09 1.46181e-08 -0.000999996)
(-5.52332e-09 1.45849e-08 -0.000999998)
(-3.54515e-09 1.45783e-08 -0.000999999)
(-1.21769e-09 1.45512e-08 -0.001)
(-7.7564e-09 1.15971e-08 -0.000999989)
(-6.99652e-09 1.15907e-08 -0.000999991)
(-5.53688e-09 1.15783e-08 -0.000999993)
(-3.55626e-09 1.15647e-08 -0.000999995)
(-1.22302e-09 1.15325e-08 -0.000999996)
(-7.76141e-09 7.41504e-09 -0.000999986)
(-6.99175e-09 7.43403e-09 -0.000999988)
(-5.54879e-09 7.4249e-09 -0.00099999)
(-3.56797e-09 7.41414e-09 -0.000999992)
(-1.22724e-09 7.39702e-09 -0.000999993)
(-7.74532e-09 2.54607e-09 -0.000999984)
(-6.97293e-09 2.55597e-09 -0.000999987)
(-5.54566e-09 2.55138e-09 -0.000999989)
(-3.56251e-09 2.54833e-09 -0.00099999)
(-1.22333e-09 2.54498e-09 -0.000999991)
(-1.05467e-08 2.21993e-08 -0.000999998)
(-9.36701e-09 2.21818e-08 -0.001)
(-7.41781e-09 2.21582e-08 -0.001)
(-4.76455e-09 2.21312e-08 -0.00100001)
(-1.63862e-09 2.20675e-08 -0.00100001)
(-1.05558e-08 2.009e-08 -0.000999991)
(-9.43858e-09 2.00327e-08 -0.000999994)
(-7.4754e-09 1.99733e-08 -0.000999997)
(-4.80205e-09 1.99264e-08 -0.000999999)
(-1.65406e-09 1.98575e-08 -0.001)
(-1.05516e-08 1.58924e-08 -0.000999985)
(-9.48371e-09 1.58655e-08 -0.000999988)
(-7.52348e-09 1.58214e-08 -0.000999991)
(-4.84085e-09 1.57809e-08 -0.000999993)
(-1.66852e-09 1.57328e-08 -0.000999994)
(-1.05676e-08 1.01801e-08 -0.000999981)
(-9.50927e-09 1.01691e-08 -0.000999984)
(-7.55923e-09 1.01359e-08 -0.000999987)
(-4.85908e-09 1.01163e-08 -0.000999989)
(-1.67115e-09 1.0096e-08 -0.00099999)
(-1.0565e-08 3.50068e-09 -0.000999979)
(-9.50934e-09 3.49524e-09 -0.000999982)
(-7.56119e-09 3.48239e-09 -0.000999985)
(-4.85128e-09 3.47873e-09 -0.000999987)
(-1.6659e-09 3.47407e-09 -0.000999988)
(-1.42224e-08 3.04981e-08 -0.000999997)
(-1.28393e-08 3.03668e-08 -0.001)
(-1.0085e-08 3.02956e-08 -0.00100001)
(-6.45146e-09 3.02237e-08 -0.00100001)
(-2.21972e-09 3.0115e-08 -0.00100001)
(-1.43419e-08 2.73985e-08 -0.000999988)
(-1.28684e-08 2.73855e-08 -0.000999992)
(-1.01831e-08 2.72931e-08 -0.000999996)
(-6.54682e-09 2.71954e-08 -0.000999999)
(-2.25939e-09 2.70899e-08 -0.001)
(-1.43919e-08 2.1751e-08 -0.00099998)
(-1.29447e-08 2.16906e-08 -0.000999984)
(-1.02743e-08 2.16056e-08 -0.000999988)
(-6.60062e-09 2.15468e-08 -0.000999991)
(-2.27179e-09 2.1492e-08 -0.000999992)
(-1.44521e-08 1.39552e-08 -0.000999974)
(-1.30133e-08 1.39017e-08 -0.000999978)
(-1.03259e-08 1.38545e-08 -0.000999982)
(-6.61727e-09 1.38338e-08 -0.000999985)
(-2.27187e-09 1.38073e-08 -0.000999986)
(-1.44657e-08 4.79789e-09 -0.000999971)
(-1.30201e-08 4.77823e-09 -0.000999975)
(-1.03217e-08 4.76635e-09 -0.000999979)
(-6.60756e-09 4.76264e-09 -0.000999982)
(-2.26688e-09 4.7541e-09 -0.000999983)
(-1.92631e-08 4.17788e-08 -0.000999996)
(-1.75812e-08 4.15233e-08 -0.001)
(-1.38093e-08 4.13611e-08 -0.00100001)
(-8.85929e-09 4.12413e-08 -0.00100001)
(-3.05961e-09 4.11127e-08 -0.00100001)
(-1.95049e-08 3.73717e-08 -0.000999983)
(-1.76174e-08 3.73532e-08 -0.000999989)
(-1.39384e-08 3.72266e-08 -0.000999995)
(-8.9518e-09 3.71182e-08 -0.000999998)
(-3.08426e-09 3.70161e-08 -0.001)
(-1.96592e-08 2.96989e-08 -0.000999972)
(-1.77262e-08 2.9605e-08 -0.000999979)
(-1.40432e-08 2.95037e-08 -0.000999984)
(-8.99598e-09 2.94475e-08 -0.000999987)
(-3.08895e-09 2.93812e-08 -0.000999989)
(-1.9771e-08 1.90566e-08 -0.000999965)
(-1.7812e-08 1.8992e-08 -0.000999971)
(-1.40945e-08 1.89487e-08 -0.000999976)
(-9.01537e-09 1.89241e-08 -0.00099998)
(-3.0927e-09 1.88787e-08 -0.000999982)
(-1.97835e-08 6.54703e-09 -0.00099996)
(-1.77996e-08 6.53288e-09 -0.000999967)
(-1.40832e-08 6.52562e-09 -0.000999972)
(-9.01098e-09 6.51723e-09 -0.000999975)
(-3.09135e-09 6.50009e-09 -0.000999978)
(-2.62773e-08 5.69865e-08 -0.000999995)
(-2.39093e-08 5.66584e-08 -0.001)
(-1.89022e-08 5.64186e-08 -0.00100001)
(-1.21552e-08 5.62818e-08 -0.00100002)
(-4.19285e-09 5.61271e-08 -0.00100002)
(-2.65902e-08 5.10857e-08 -0.000999978)
(-2.40672e-08 5.09462e-08 -0.000999986)
(-1.90485e-08 5.07836e-08 -0.000999993)
(-1.22117e-08 5.06909e-08 -0.000999998)
(-4.19686e-09 5.05735e-08 -0.001)
(-2.68397e-08 4.05355e-08 -0.000999963)
(-2.42113e-08 4.0408e-08 -0.000999971)
(-1.9156e-08 4.02987e-08 -0.000999978)
(-1.22643e-08 4.02298e-08 -0.000999983)
(-4.21083e-09 4.01205e-08 -0.000999986)
(-2.69889e-08 2.60189e-08 -0.000999952)
(-2.43032e-08 2.59544e-08 -0.00099996)
(-1.92248e-08 2.58956e-08 -0.000999967)
(-1.23094e-08 2.58453e-08 -0.000999972)
(-4.22707e-09 2.57659e-08 -0.000999975)
(-2.69969e-08 8.9472e-09 -0.000999946)
(-2.42876e-08 8.93494e-09 -0.000999954)
(-1.9227e-08 8.91664e-09 -0.000999962)
(-1.23188e-08 8.89598e-09 -0.000999967)
(-4.23144e-09 8.86636e-09 -0.000999969)
(-3.59321e-08 7.75904e-08 -0.000999994)
(-3.24342e-08 7.72305e-08 -0.001)
(-2.57584e-08 7.69413e-08 -0.00100001)
(-1.65425e-08 7.6773e-08 -0.00100002)
(-5.68675e-09 7.65272e-08 -0.00100002)
(-3.62904e-08 6.98646e-08 -0.00099997)
(-3.27669e-08 6.95444e-08 -0.000999981)
(-2.59588e-08 6.93166e-08 -0.00099999)
(-1.66458e-08 6.91768e-08 -0.000999997)
(-5.72324e-09 6.89651e-08 -0.001)
(-3.66075e-08 5.53892e-08 -0.000999949)
(-3.29821e-08 5.51882e-08 -0.00099996)
(-2.61239e-08 5.50187e-08 -0.00099997)
(-1.67563e-08 5.48874e-08 -0.000999977)
(-5.76257e-09 5.47079e-08 -0.000999981)
(-3.68162e-08 3.55962e-08 -0.000999934)
(-3.31363e-08 3.54642e-08 -0.000999946)
(-2.62571e-08 3.53408e-08 -0.000999955)
(-1.68466e-08 3.52436e-08 -0.000999962)
(-5.79466e-09 3.51285e-08 -0.000999966)
(-3.68552e-08 1.22617e-08 -0.000999927)
(-3.31734e-08 1.22097e-08 -0.000999938)
(-2.62926e-08 1.21619e-08 -0.000999948)
(-1.68661e-08 1.21241e-08 -0.000999955)
(-5.79757e-09 1.20867e-08 -0.000999959)
(-4.91043e-08 1.05725e-07 -0.000999991)
(-4.4142e-08 1.05298e-07 -0.00100001)
(-3.50646e-08 1.04918e-07 -0.00100002)
(-2.25002e-08 1.04644e-07 -0.00100003)
(-7.73493e-09 1.04265e-07 -0.00100003)
(-4.95577e-08 9.5447e-08 -0.000999958)
(-4.4635e-08 9.49527e-08 -0.000999974)
(-3.5399e-08 9.45918e-08 -0.000999987)
(-2.27318e-08 9.43192e-08 -0.000999996)
(-7.82809e-09 9.39749e-08 -0.001)
(-4.99784e-08 7.57136e-08 -0.000999931)
(-4.49972e-08 7.53606e-08 -0.000999946)
(-3.56952e-08 7.50605e-08 -0.000999959)
(-2.29292e-08 7.48305e-08 -0.000999969)
(-7.89382e-09 7.4572e-08 -0.000999974)
(-5.03092e-08 4.86796e-08 -0.00099991)
(-4.52865e-08 4.84133e-08 -0.000999926)
(-3.59256e-08 4.8198e-08 -0.000999939)
(-2.30703e-08 4.80453e-08 -0.000999949)
(-7.93912e-09 4.78954e-08 -0.000999954)
(-5.04077e-08 1.67729e-08 -0.0009999)
(-4.53911e-08 1.66624e-08 -0.000999916)
(-3.59922e-08 1.65826e-08 -0.000999929)
(-2.30917e-08 1.65273e-08 -0.000999939)
(-7.93432e-09 1.64851e-08 -0.000999944)
(-6.70197e-08 1.44275e-07 -0.000999988)
(-6.02675e-08 1.4362e-07 -0.00100001)
(-4.78125e-08 1.43022e-07 -0.00100003)
(-3.06988e-08 1.42558e-07 -0.00100004)
(-1.05666e-08 1.4203e-07 -0.00100005)
(-6.77186e-08 1.30281e-07 -0.000999943)
(-6.09552e-08 1.29582e-07 -0.000999964)
(-4.8356e-08 1.28999e-07 -0.000999982)
(-3.10672e-08 1.28554e-07 -0.000999995)
(-1.06995e-08 1.28071e-07 -0.001)
(-6.83591e-08 1.03412e-07 -0.000999905)
(-6.15491e-08 1.02838e-07 -0.000999927)
(-4.88373e-08 1.02353e-07 -0.000999945)
(-3.13708e-08 1.01998e-07 -0.000999958)
(-1.07966e-08 1.01637e-07 -0.000999965)
(-6.88685e-08 6.64503e-08 -0.000999878)
(-6.20125e-08 6.60482e-08 -0.000999899)
(-4.9192e-08 6.57227e-08 -0.000999917)
(-3.15787e-08 6.54976e-08 -0.000999931)
(-1.08592e-08 6.52831e-08 -0.000999938)
(-6.90297e-08 2.28744e-08 -0.000999864)
(-6.21571e-08 2.27276e-08 -0.000999885)
(-4.9291e-08 2.26129e-08 -0.000999903)
(-3.16192e-08 2.25352e-08 -0.000999917)
(-1.08617e-08 2.24684e-08 -0.000999924)
(-9.1367e-08 1.96971e-07 -0.000999983)
(-8.22641e-08 1.95836e-07 -0.00100001)
(-6.52168e-08 1.94852e-07 -0.00100004)
(-4.18861e-08 1.941e-07 -0.00100005)
(-1.44143e-08 1.93353e-07 -0.00100006)
(-9.25358e-08 1.77784e-07 -0.000999923)
(-8.33197e-08 1.76724e-07 -0.000999951)
(-6.60733e-08 1.75789e-07 -0.000999976)
(-4.24282e-08 1.75112e-07 -0.000999993)
(-1.45977e-08 1.74432e-07 -0.001)
(-9.35738e-08 1.41153e-07 -0.000999871)
(-8.4259e-08 1.40262e-07 -0.0009999)
(-6.68237e-08 1.39499e-07 -0.000999925)
(-4.28931e-08 1.38954e-07 -0.000999943)
(-1.47486e-08 1.38422e-07 -0.000999952)
(-9.43488e-08 9.06726e-08 -0.000999833)
(-8.49714e-08 9.00858e-08 -0.000999863)
(-6.73753e-08 8.95849e-08 -0.000999888)
(-4.3226e-08 8.92335e-08 -0.000999906)
(-1.4855e-08 8.88872e-08 -0.000999916)
(-9.46125e-08 3.1194e-08 -0.000999814)
(-8.51832e-08 3.09963e-08 -0.000999844)
(-6.75437e-08 3.08226e-08 -0.000999869)
(-4.33301e-08 3.07004e-08 -0.000999887)
(-1.48911e-08 3.05767e-08 -0.000999897)
(-1.24495e-07 2.68764e-07 -0.000999977)
(-1.12154e-07 2.66866e-07 -0.00100002)
(-8.88795e-08 2.65287e-07 -0.00100005)
(-5.70472e-08 2.64108e-07 -0.00100007)
(-1.96141e-08 2.63006e-07 -0.00100008)
(-1.2641e-07 2.42564e-07 -0.000999895)
(-1.13848e-07 2.40867e-07 -0.000999934)
(-9.02327e-08 2.3938e-07 -0.000999967)
(-5.78964e-08 2.38319e-07 -0.000999991)
(-1.99019e-08 2.37309e-07 -0.001)
(-1.28091e-07 1.92631e-07 -0.000999824)
(-1.15338e-07 1.91218e-07 -0.000999864)
(-9.14206e-08 1.90001e-07 -0.000999898)
(-5.86409e-08 1.89132e-07 -0.000999923)
(-2.01527e-08 1.88313e-07 -0.000999936)
(-1.29328e-07 1.23771e-07 -0.000999773)
(-1.16474e-07 1.22831e-07 -0.000999814)
(-9.23098e-08 1.22029e-07 -0.000999848)
(-5.92035e-08 1.21452e-07 -0.000999873)
(-2.03466e-08 1.20899e-07 -0.000999886)
(-1.29786e-07 4.25831e-08 -0.000999746)
(-1.16857e-07 4.22608e-08 -0.000999787)
(-9.26199e-08 4.19823e-08 -0.000999822)
(-5.94157e-08 4.17769e-08 -0.000999847)
(-2.0427e-08 4.1577e-08 -0.00099986)
(-1.69679e-07 3.66431e-07 -0.00099997)
(-1.52848e-07 3.63473e-07 -0.00100002)
(-1.2104e-07 3.60988e-07 -0.00100007)
(-7.76102e-08 3.59159e-07 -0.0010001)
(-2.66711e-08 3.57523e-07 -0.00100011)
(-1.72683e-07 3.30824e-07 -0.000999857)
(-1.55499e-07 3.28125e-07 -0.00099991)
(-1.23173e-07 3.25785e-07 -0.000999955)
(-7.89801e-08 3.24081e-07 -0.000999988)
(-2.71401e-08 3.22551e-07 -0.00100001)
(-1.75366e-07 2.62838e-07 -0.000999761)
(-1.57886e-07 2.6057e-07 -0.000999816)
(-1.25075e-07 2.58624e-07 -0.000999862)
(-8.01944e-08 2.57215e-07 -0.000999895)
(-2.75585e-08 2.5596e-07 -0.000999913)
(-1.77378e-07 1.68941e-07 -0.000999691)
(-1.59708e-07 1.67413e-07 -0.000999747)
(-1.26515e-07 1.66122e-07 -0.000999794)
(-8.11248e-08 1.65174e-07 -0.000999828)
(-2.78841e-08 1.64344e-07 -0.000999846)
(-1.78153e-07 5.81417e-08 -0.000999655)
(-1.604e-07 5.76046e-08 -0.000999711)
(-1.27067e-07 5.71532e-08 -0.000999758)
(-8.14881e-08 5.6815e-08 -0.000999792)
(-2.80095e-08 5.65266e-08 -0.000999811)
(-2.31241e-07 4.99419e-07 -0.000999959)
(-2.08129e-07 4.94901e-07 -0.00100003)
(-1.64721e-07 4.90999e-07 -0.00100009)
(-1.05563e-07 4.88153e-07 -0.00100013)
(-3.62757e-08 4.85726e-07 -0.00100016)
(-2.35917e-07 4.51171e-07 -0.000999806)
(-2.12302e-07 4.46862e-07 -0.000999878)
(-1.68087e-07 4.43162e-07 -0.00099994)
(-1.07737e-07 4.4044e-07 -0.000999985)
(-3.70195e-08 4.38148e-07 -0.00100001)
(-2.40174e-07 3.58614e-07 -0.000999675)
(-2.16139e-07 3.54964e-07 -0.000999749)
(-1.71131e-07 3.51858e-07 -0.000999813)
(-1.09691e-07 3.49589e-07 -0.000999858)
(-3.7692e-08 3.47704e-07 -0.000999883)
(-2.43415e-07 2.30565e-07 -0.000999579)
(-2.19051e-07 2.28118e-07 -0.000999655)
(-1.73445e-07 2.26046e-07 -0.00099972)
(-1.11184e-07 2.24522e-07 -0.000999767)
(-3.82078e-08 2.23291e-07 -0.000999792)
(-2.44715e-07 7.93738e-08 -0.000999529)
(-2.20241e-07 7.85068e-08 -0.000999606)
(-1.74391e-07 7.77787e-08 -0.000999672)
(-1.11785e-07 7.72385e-08 -0.000999719)
(-3.84052e-08 7.6819e-08 -0.000999744)
(-3.14924e-07 6.80675e-07 -0.000999946)
(-2.83066e-07 6.73633e-07 -0.00100004)
(-2.23962e-07 6.67534e-07 -0.00100012)
(-1.43487e-07 6.63091e-07 -0.00100018)
(-4.93007e-08 6.59462e-07 -0.00100021)
(-3.22295e-07 6.15384e-07 -0.000999736)
(-2.89748e-07 6.08448e-07 -0.000999835)
(-2.29285e-07 6.02559e-07 -0.000999919)
(-1.46909e-07 5.98245e-07 -0.00099998)
(-5.0472e-08 5.94806e-07 -0.00100001)
(-3.29057e-07 4.89339e-07 -0.000999557)
(-2.9589e-07 4.83484e-07 -0.00099966)
(-2.34147e-07 4.78516e-07 -0.000999746)
(-1.50035e-07 4.74874e-07 -0.000999809)
(-5.15468e-08 4.72027e-07 -0.000999843)
(-3.34245e-07 3.14721e-07 -0.000999427)
(-3.00561e-07 3.10807e-07 -0.000999532)
(-2.37873e-07 3.07471e-07 -0.000999621)
(-1.52436e-07 3.05021e-07 -0.000999685)
(-5.23697e-08 3.03143e-07 -0.000999719)
(-3.36446e-07 1.08368e-07 -0.000999359)
(-3.02572e-07 1.06984e-07 -0.000999465)
(-2.39475e-07 1.05806e-07 -0.000999555)
(-1.53463e-07 1.04943e-07 -0.00099962)
(-5.27198e-08 1.0429e-07 -0.000999655)
(-4.28601e-07 9.27598e-07 -0.000999928)
(-3.84728e-07 9.16575e-07 -0.00100006)
(-3.04122e-07 9.07065e-07 -0.00100017)
(-1.94712e-07 9.00089e-07 -0.00100025)
(-6.6876e-08 8.94607e-07 -0.00100029)
(-4.40201e-07 8.39289e-07 -0.000999643)
(-3.95309e-07 8.28278e-07 -0.000999778)
(-3.12567e-07 8.18898e-07 -0.000999892)
(-2.00182e-07 8.11983e-07 -0.000999974)
(-6.87651e-08 8.06716e-07 -0.00100002)
(-4.50988e-07 6.67878e-07 -0.000999398)
(-4.05118e-07 6.58501e-07 -0.000999539)
(-3.20393e-07 6.50489e-07 -0.000999657)
(-2.05253e-07 6.44577e-07 -0.000999743)
(-7.0518e-08 6.40183e-07 -0.000999789)
(-4.59349e-07 4.29817e-07 -0.00099922)
(-4.12683e-07 4.23494e-07 -0.000999364)
(-3.2646e-07 4.18063e-07 -0.000999487)
(-2.09177e-07 4.14065e-07 -0.000999575)
(-7.18652e-08 4.1114e-07 -0.000999623)
(-4.63098e-07 1.48041e-07 -0.000999127)
(-4.16097e-07 1.45803e-07 -0.000999273)
(-3.29197e-07 1.43877e-07 -0.000999397)
(-2.10949e-07 1.42468e-07 -0.000999487)
(-7.24817e-08 1.41439e-07 -0.000999535)
(-5.82617e-07 1.26392e-06 -0.000999905)
(-5.22214e-07 1.24666e-06 -0.00100008)
(-4.12257e-07 1.2317e-06 -0.00100023)
(-2.63766e-07 1.22062e-06 -0.00100033)
(-9.05805e-08 1.21228e-06 -0.00100039)
(-6.00933e-07 1.14475e-06 -0.000999516)
(-5.38959e-07 1.12725e-06 -0.0009997)
(-4.25788e-07 1.11216e-06 -0.000999855)
(-2.7261e-07 1.10092e-06 -0.000999967)
(-9.36479e-08 1.09276e-06 -0.00100003)
(-6.18323e-07 9.12044e-07 -0.000999183)
(-5.54809e-07 8.96848e-07 -0.000999375)
(-4.38551e-07 8.83762e-07 -0.000999537)
(-2.80926e-07 8.74066e-07 -0.000999655)
(-9.65266e-08 8.67199e-07 -0.000999718)
(-6.31975e-07 5.87534e-07 -0.000998938)
(-5.6722e-07 5.77159e-07 -0.000999137)
(-4.48527e-07 5.68221e-07 -0.000999306)
(-2.87389e-07 5.61638e-07 -0.000999428)
(-9.87528e-08 5.5705e-07 -0.000999494)
(-6.38387e-07 2.02475e-07 -0.00099881)
(-5.73066e-07 1.98786e-07 -0.000999013)
(-4.53221e-07 1.95609e-07 -0.000999184)
(-2.90426e-07 1.93281e-07 -0.000999309)
(-9.98046e-08 1.91668e-07 -0.000999376)
(-7.90444e-07 1.72192e-06 -0.000999877)
(-7.07201e-07 1.69469e-06 -0.00100011)
(-5.57687e-07 1.67091e-06 -0.00100031)
(-3.56692e-07 1.65314e-06 -0.00100045)
(-1.22495e-07 1.64031e-06 -0.00100053)
(-8.19712e-07 1.56185e-06 -0.000999347)
(-7.341e-07 1.53358e-06 -0.000999597)
(-5.7957e-07 1.50901e-06 -0.000999807)
(-3.71028e-07 1.49067e-06 -0.000999959)
(-1.27466e-07 1.47794e-06 -0.00100004)
(-8.48077e-07 1.24643e-06 -0.00099889)
(-7.60046e-07 1.22148e-06 -0.000999154)
(-6.00552e-07 1.19991e-06 -0.000999377)
(-3.84723e-07 1.18392e-06 -0.000999538)
(-1.3221e-07 1.17306e-06 -0.000999625)
(-8.70609e-07 8.04154e-07 -0.000998554)
(-7.80587e-07 7.86959e-07 -0.00099883)
(-6.17073e-07 7.72146e-07 -0.000999063)
(-3.95455e-07 7.61219e-07 -0.000999232)
(-1.35923e-07 7.53891e-07 -0.000999323)
(-8.81609e-07 2.77381e-07 -0.000998377)
(-7.90616e-07 2.71246e-07 -0.000998659)
(-6.25133e-07 2.65968e-07 -0.000998897)
(-4.00701e-07 2.62085e-07 -0.00099907)
(-1.3775e-07 2.59493e-07 -0.000999164)
(-1.06978e-06 2.34492e-06 -0.000999843)
(-9.55076e-07 2.30173e-06 -0.00100016)
(-7.52393e-07 2.2637e-06 -0.00100042)
(-4.81087e-07 2.235e-06 -0.00100061)
(-1.65195e-07 2.21501e-06 -0.00100071)
(-1.11684e-06 2.13137e-06 -0.000999122)
(-9.98617e-07 2.08531e-06 -0.000999459)
(-7.88006e-07 2.04504e-06 -0.000999743)
(-5.04528e-07 2.01488e-06 -0.000999949)
(-1.73366e-07 1.99466e-06 -0.00100006)
(-1.16348e-06 1.70518e-06 -0.000998496)
(-1.04141e-06 1.66393e-06 -0.000998857)
(-8.22765e-07 1.62813e-06 -0.000999163)
(-5.27344e-07 1.60145e-06 -0.000999385)
(-1.81315e-07 1.58393e-06 -0.000999504)
(-1.20097e-06 1.10266e-06 -0.000998032)
(-1.07563e-06 1.07401e-06 -0.000998413)
(-8.504e-07 1.04927e-06 -0.000998736)
(-5.45427e-07 1.03089e-06 -0.000998971)
(-1.87612e-07 1.01896e-06 -0.000999098)
(-1.21986e-06 3.80873e-07 -0.000997786)
(-1.09284e-06 3.70619e-07 -0.000998178)
(-8.64302e-07 3.61786e-07 -0.00099851)
(-5.54551e-07 3.55225e-07 -0.000998752)
(-1.90802e-07 3.50992e-07 -0.000998883)
(-1.44265e-06 3.19106e-06 -0.000999806)
(-1.28481e-06 3.12223e-06 -0.00100022)
(-1.01125e-06 3.061e-06 -0.00100057)
(-6.46604e-07 3.01425e-06 -0.00100082)
(-2.22051e-07 2.98251e-06 -0.00100095)
(-1.51876e-06 2.90936e-06 -0.000998825)
(-1.35569e-06 2.83379e-06 -0.000999279)
(-1.06965e-06 2.76728e-06 -0.000999661)
(-6.85447e-07 2.71702e-06 -0.000999939)
(-2.35736e-07 2.68413e-06 -0.00100009)
(-1.59604e-06 2.33648e-06 -0.000997965)
(-1.42688e-06 2.26777e-06 -0.000998459)
(-1.12795e-06 2.2078e-06 -0.000998878)
(-7.24157e-07 2.16262e-06 -0.000999185)
(-2.49353e-07 2.13368e-06 -0.000999351)
(-1.65882e-06 1.51614e-06 -0.000997321)
(-1.48432e-06 1.46816e-06 -0.000997849)
(-1.17469e-06 1.42649e-06 -0.000998297)
(-7.55069e-07 1.39519e-06 -0.000998626)
(-2.60206e-07 1.37538e-06 -0.000998807)
(-1.69122e-06 5.2477e-07 -0.000996977)
(-1.51386e-06 5.07592e-07 -0.000997523)
(-1.19877e-06 4.92694e-07 -0.000997987)
(-7.71034e-07 4.81502e-07 -0.000998329)
(-2.65823e-07 4.74458e-07 -0.000998517)
(-1.93499e-06 4.33743e-06 -0.000999772)
(-1.71855e-06 4.22697e-06 -0.00100031)
(-1.35232e-06 4.12752e-06 -0.00100077)
(-8.65705e-07 4.0504e-06 -0.0010011)
(-2.97635e-07 3.99883e-06 -0.00100127)
(-2.059e-06 3.97282e-06 -0.00099844)
(-1.8347e-06 3.8478e-06 -0.000999044)
(-1.44887e-06 3.73689e-06 -0.000999555)
(-9.30859e-07 3.65178e-06 -0.000999931)
(-3.20878e-07 3.59692e-06 -0.00100014)
(-2.18815e-06 3.20912e-06 -0.000997254)
(-1.95449e-06 3.09379e-06 -0.000997928)
(-1.54824e-06 2.99222e-06 -0.000998503)
(-9.98068e-07 2.91446e-06 -0.000998931)
(-3.44888e-07 2.8653e-06 -0.000999168)
(-2.29377e-06 2.09358e-06 -0.000996353)
(-2.05152e-06 2.01288e-06 -0.000997083)
(-1.62805e-06 1.94218e-06 -0.000997708)
(-1.05166e-06 1.88825e-06 -0.000998176)
(-3.63928e-07 1.85458e-06 -0.000998438)
(-2.34914e-06 7.27019e-07 -0.000995865)
(-2.10226e-06 6.98157e-07 -0.000996626)