/*--------------------------------*- C++ -*----------------------------------*\
  =========                 |
  \\      /  F ield         | OpenFOAM: The Open Source CFD Toolbox
   \\    /   O peration     | Website:  https://openfoam.org
    \\  /    A nd           | Version:  9
     \\/     M anipulation  |
\*---------------------------------------------------------------------------*/
FoamFile
{
    format      ascii;
    class       volScalarField;
    location    "1000";
    object      p;
}
// * * * * * * * * * * * * * * * * * * * * * * * * * * * * * * * * * * * * * //

dimensions      [0 2 -2 0 0 0 0];

internalField   nonuniform List<scalar> 
360
(
-0.00647383
-0.010475
-0.0152278
-0.00409101
-0.0204002
-0.0354124
-0.0192492
-0.0222117
-0.03471
-0.0475497
-0.033078
-0.0353802
-0.0488626
-0.0624589
-0.040752
-0.0509349
-0.0651812
-0.0765705
-0.0532929
-0.0655772
-0.0834534
-0.0911251
-0.0643484
-0.0808818
-0.0983046
-0.105424
-0.0771497
-0.0961371
-0.102415
-0.119566
-0.0892083
-0.111651
-0.106551
-0.134037
-0.102311
-0.127347
-0.124689
-0.149099
-0.116243
-0.143311
-0.145635
-0.164563
-0.131116
-0.159519
-0.168844
-0.180294
-0.146386
-0.175932
-0.18784
-0.195931
-0.161722
-0.19253
-0.195097
-0.211355
-0.17655
-0.209324
-0.194961
-0.227119
-0.19136
-0.226384
-0.21136
-0.243628
-0.206878
-0.243787
-0.234133
-0.260731
-0.223312
-0.261589
-0.247131
-0.2783
-0.240371
-0.279822
-0.261971
-0.296521
-0.258091
-0.298517
-0.289909
-0.315565
-0.27688
-0.317699
-0.315657
-0.335023
-0.296212
-0.337355
-0.333257
-0.354654
-0.31567
-0.357457
-0.351672
-0.374636
-0.335359
-0.377994
-0.370123
-0.394986
-0.355158
-0.398956
-0.389251
-0.415648
-0.374994
-0.420339
-0.404458
-0.436364
-0.394695
-0.442153
-0.4109
-0.457335
-0.414404
-0.464452
-0.422118
-0.479115
-0.43478
-0.487325
-0.447819
-0.501916
-0.456254
-0.51086
-0.480237
-0.525698
-0.479106
-0.53512
-0.503517
-0.550286
-0.502992
-0.560133
-0.528953
-0.575704
-0.527725
-0.585919
-0.563931
-0.602092
-0.55373
-0.612502
-0.590722
-0.629197
-0.580481
-0.639869
-0.617208
-0.65694
-0.607691
-0.667997
-0.642449
-0.685381
-0.63543
-0.696871
-0.667847
-0.714454
-0.663607
-0.726473
-0.693996
-0.744254
-0.692417
-0.756801
-0.725233
-0.774802
-0.721921
-0.787856
-0.765908
-0.806056
-0.752366
-0.81963
-0.789734
-0.837618
-0.783062
-0.852088
-0.804149
-0.869775
-0.8138
-0.885217
-0.84048
-0.902956
-0.845415
-0.919025
-0.886204
-0.936827
-0.877887
-0.953501
-0.9157
-0.970943
-0.910565
-0.988632
-0.932837
-1.00542
-0.943231
-1.02445
-0.954532
-1.04083
-0.976638
-1.06102
-0.993594
-1.07742
-1.01138
-1.09845
-1.04179
-1.11528
-1.0479
-1.13679
-1.07827
-1.15427
-1.08574
-1.17606
-1.11622
-1.19416
-1.12441
-1.21626
-1.16634
-1.23512
-1.16443
-1.2574
-1.20444
-1.27695
-1.20536
-1.29944
-1.24396
-1.31958
-1.24693
-1.34236
-1.29709
-1.36315
-1.28973
-1.38615
-1.33753
-1.40749
-1.3333
-1.43078
-1.37974
-1.45256
-1.37747
-1.47622
-1.43644
-1.49851
-1.42281
-1.52246
-1.47976
-1.54507
-1.46882
-1.56946
-1.52522
-1.59233
-1.5155
-1.61722
-1.58642
-1.6405
-1.56344
-1.66572
-1.63445
-1.68928
-1.61199
-1.71494
-1.68519
-1.7388
-1.66111
-1.76485
-1.7527
-1.78883
-1.71078
-1.8154
-1.8018
-1.8387
-1.75987
-1.86651
-1.83689
-1.88868
-1.80834
-1.91813
-1.87635
-1.93897
-1.85665
-1.97027
-1.9171
-1.98969
-1.90503
-2.02293
-1.96025
-2.04098
-1.95375
-2.07614
-2.00532
-2.09293
-2.00296
-2.12994
-2.05216
-2.14564
-2.05277
-2.18436
-2.10052
-2.19914
-2.10325
-2.23945
-2.15028
-2.2535
-2.1544
-2.29523
-2.20134
-2.30873
-2.20624
-2.35174
-2.25362
-2.36488
-2.25874
-2.40898
-2.30707
-2.42195
-2.31185
-2.46697
-2.36166
-2.47998
-2.36552
-2.52572
-2.41737
-2.53898
-2.41966
-2.58522
-2.47419
-2.59896
-2.4742
-2.64547
-2.53212
-2.65996
-2.52898
-2.70646
-2.59119
-2.72201
-2.58378
-2.76819
-2.65146
-2.78518
-2.6383
-2.83062
-2.71295
-2.84938
-2.69255
-2.89357
-2.77552
-2.91436
-2.74701
-2.9568
-2.83891
-2.98011
-2.80124
-3.02048
-2.90401
-3.04842
-2.84945
-3.08627
-2.97339
-3.12215
-2.88285
-3.15708
-3.04697
-3.19777
-2.91566
-3.23243
-3.11106
-3.25415
-3.01034
-3.29696
-3.13276
-3.25511
-3.18708
-3.31372
)
;

boundaryField
{
    inlet
    {
        type            zeroGradient;
    }
    outlet
    {
        type            fixedValue;
        value           uniform 0;
    }
    repeat_boundary
    {
        type            zeroGradient;
    }
}


// ************************************************************************* //
