/*--------------------------------*- C++ -*----------------------------------*\
  =========                 |
  \\      /  F ield         | OpenFOAM: The Open Source CFD Toolbox
   \\    /   O peration     | Website:  https://openfoam.org
    \\  /    A nd           | Version:  9
     \\/     M anipulation  |
\*---------------------------------------------------------------------------*/
FoamFile
{
    format      ascii;
    class       surfaceScalarField;
    location    "1000";
    object      phi;
}
// * * * * * * * * * * * * * * * * * * * * * * * * * * * * * * * * * * * * * //

dimensions      [0 3 -1 0 0 0 0];

internalField   nonuniform List<scalar> 
716
(
0.224367
-0.226741
-142.681
-0.027321
-112.557
0.268323
-175.684
-128.096
0.230446
-0.23437
-142.677
-0.0251607
-112.302
0.277207
-176.196
-127.844
0.230465
-0.23455
-142.673
-0.0215284
-112.05
0.268337
-176.699
-127.598
0.231399
-0.239431
-142.665
-0.0185283
-111.8
0.26853
-177.207
-127.348
0.232344
-0.240892
-142.657
-0.0156097
-111.552
0.262812
-177.71
-127.1
0.233601
-0.243738
-142.647
-0.0128449
-111.305
0.259978
-178.214
-126.853
0.235563
-0.245409
-142.637
-0.0101684
-111.06
0.255164
-178.715
-126.608
0.239245
-0.245612
-142.63
-0.00759524
-110.813
0.251333
-179.212
-126.364
0.241158
-0.245415
-142.626
-0.00516994
-110.567
0.246826
-179.704
-126.123
0.241371
-0.247938
-142.62
-0.0029247
-110.322
0.242573
-180.194
-125.883
0.240975
-0.251046
-142.61
-0.0008218
-110.08
0.238087
-180.683
-125.646
0.241114
-0.25421
-142.596
0.00119278
-109.841
0.233761
-181.171
-125.411
0.243408
-0.256444
-142.583
0.0032403
-109.6
0.229559
-181.657
-125.178
0.247759
-0.256213
-142.575
0.005328
-109.358
0.225652
-182.139
-124.947
0.250626
-0.256097
-142.57
0.00733193
-109.115
0.221865
-182.617
-124.718
0.251447
-0.258054
-142.563
0.00921937
-108.872
0.218156
-183.093
-124.491
0.252457
-0.261296
-142.554
0.011041
-108.631
0.214506
-183.569
-124.265
0.253911
-0.263904
-142.544
0.0128463
-108.39
0.210991
-184.044
-124.041
0.256128
-0.264867
-142.535
0.0146645
-108.148
0.207644
-184.517
-123.819
0.256948
-0.268073
-142.524
0.016474
-107.908
0.204412
-184.989
-123.598
0.25913
-0.270962
-142.512
0.0182866
-107.667
0.201302
-185.461
-123.378
0.262452
-0.272511
-142.502
0.0201312
-107.425
0.198352
-185.932
-123.16
0.26438
-0.274741
-142.492
0.0219705
-107.182
0.195526
-186.403
-122.942
0.266621
-0.276966
-142.482
0.0237891
-106.94
0.192823
-186.872
-122.726
0.267979
-0.280267
-142.469
0.0256441
-106.697
0.190232
-187.343
-122.51
0.270809
-0.283235
-142.457
0.0275788
-106.454
0.187795
-187.814
-122.295
0.274437
-0.284695
-142.447
0.0295805
-106.209
0.185484
-188.284
-122.08
0.276445
-0.287122
-142.436
0.0315892
-105.964
0.183223
-188.754
-121.865
0.277624
-0.29027
-142.423
0.0335802
-105.72
0.180962
-189.226
-121.65
0.278812
-0.294851
-142.407
0.035558
-105.477
0.178672
-189.699
-121.436
0.280206
-0.299088
-142.388
0.0375888
-105.234
0.176426
-190.175
-121.222
0.283213
-0.300977
-142.371
0.0397111
-104.991
0.174272
-190.65
-121.008
0.285744
-0.304928
-142.351
0.0418462
-104.747
0.172126
-191.127
-120.794
0.288425
-0.308346
-142.332
0.0440155
-104.503
0.17002
-191.605
-120.58
0.29186
-0.310795
-142.313
0.0462016
-104.257
0.167949
-192.084
-120.366
0.293877
-0.314415
-142.292
0.0483717
-104.011
0.165884
-192.564
-120.152
0.296193
-0.318017
-142.27
0.0505813
-103.766
0.163822
-193.046
-119.937
0.298313
-0.322204
-142.246
0.0528427
-103.52
0.161796
-193.53
-119.722
0.301842
-0.324755
-142.223
0.0552337
-103.274
0.15983
-194.015
-119.507
0.30506
-0.329061
-142.199
0.0576779
-103.026
0.157831
-194.502
-119.292
0.309206
-0.33281
-142.176
0.0601346
-102.777
0.155818
-194.99
-119.076
0.312793
-0.334371
-142.154
0.0625544
-102.527
0.1538
-195.478
-118.86
0.314029
-0.338524
-142.13
0.064934
-102.278
0.151698
-195.969
-118.643
0.315522
-0.344468
-142.101
0.0673533
-102.03
0.149534
-196.463
-118.426
0.318888
-0.349311
-142.07
0.0698613
-101.781
0.147389
-196.959
-118.209
0.323871
-0.351617
-142.043
0.0724491
-101.529
0.145276
-197.456
-117.991
0.326417
-0.355338
-142.014
0.0750061
-101.278
0.143077
-197.955
-117.773
0.328491
-0.35946
-141.983
0.0775384
-101.027
0.140761
-198.455
-117.555
0.330248
-0.365403
-141.948
0.0800271
-100.777
0.138293
-198.959
-117.336
0.330786
-0.371861
-141.907
0.0825034
-100.528
0.135727
-199.466
-117.118
0.333925
-0.375352
-141.865
0.0850711
-100.28
0.133158
-199.975
-116.9
0.33636
-0.381081
-141.82
0.0876422
-100.031
0.13051
-200.486
-116.682
0.337855
-0.387041
-141.771
0.0902469
-99.7833
0.127815
-201.001
-116.464
0.341276
-0.390676
-141.722
0.0929489
-99.5349
0.125134
-201.517
-116.246
0.344046
-0.396525
-141.669
0.0956626
-99.2866
0.122386
-202.036
-116.028
0.346284
-0.402302
-141.613
0.0984326
-99.0387
0.119605
-202.558
-115.81
0.349857
-0.406145
-141.557
0.101294
-98.7901
0.116838
-203.081
-115.591
0.352814
-0.412297
-141.498
0.10416
-98.5415
0.113998
-203.607
-115.373
0.356197
-0.417674
-141.436
0.107106
-98.2924
0.111141
-204.136
-115.155
0.360043
-0.421625
-141.374
0.110145
-98.0425
0.108296
-204.666
-114.937
0.362785
-0.428518
-141.309
0.113164
-97.7929
0.105352
-205.2
-114.718
0.367622
-0.433383
-141.243
0.116263
-97.5415
0.102417
-205.735
-114.499
0.372416
-0.437306
-141.178
0.119493
-97.2886
0.0995373
-206.272
-114.28
0.376923
-0.443555
-141.111
0.12278
-97.0345
0.0966347
-206.813
-114.061
0.385163
-0.44734
-141.049
0.126183
-96.7755
0.0937949
-207.354
-113.841
0.392233
-0.450441
-140.991
0.129637
-96.5129
0.090975
-207.895
-113.62
0.398955
-0.454353
-140.936
0.133111
-96.247
0.0881137
-208.438
-113.399
0.404908
-0.458742
-140.882
0.136562
-95.9787
0.0851387
-208.981
-113.177
0.410329
-0.463634
-140.829
0.139977
-95.7083
0.0820211
-209.527
-112.955
0.415333
-0.468836
-140.775
0.143352
-95.4364
0.07874
-210.075
-112.733
0.419988
-0.474334
-140.721
0.146686
-95.1631
0.0752781
-210.624
-112.511
0.424395
-0.480039
-140.665
0.149986
-94.8886
0.0716293
-211.176
-112.29
0.428599
-0.485917
-140.608
0.153261
-94.6133
0.0677856
-211.73
-112.069
0.432648
-0.491926
-140.548
0.156522
-94.3372
0.0637399
-212.285
-111.848
0.436574
-0.498032
-140.487
0.15978
-94.0604
0.0594824
-212.843
-111.629
0.4404
-0.504204
-140.423
0.163048
-93.783
0.055
-213.402
-111.411
0.444148
-0.510408
-140.357
0.166341
-93.5052
0.0502749
-213.963
-111.195
0.447831
-0.51661
-140.288
0.169675
-93.2271
0.0452824
-214.525
-110.98
0.451462
-0.522768
-140.217
0.173066
-92.9487
0.0399897
-215.087
-110.766
0.455052
-0.528836
-140.143
0.176535
-92.6702
0.0343575
-215.651
-110.556
0.458613
-0.534766
-140.067
0.180104
-92.3916
0.0283374
-216.214
-110.347
0.462147
-0.540492
-139.989
0.183799
-92.1133
0.0218464
-216.776
-110.142
0.465656
-0.545889
-139.908
0.18765
-91.8353
0.0148035
-217.337
-109.939
0.46915
-0.550803
-139.827
0.191716
-91.5579
0.00708201
-217.895
-109.74
0.472691
-0.555153
-139.744
0.196076
-91.2812
-0.00137863
-218.448
-109.546
0.476425
-0.559435
-139.661
0.200776
-91.0056
-0.00990279
-218.998
-109.355
0.480177
-0.563685
-139.578
0.20594
-90.7314
-0.0185443
-219.543
-109.167
0.483409
-0.564828
-139.496
0.212006
-90.46
-0.0308034
-220.077
-108.986
0.480449
-0.555624
-139.421
0.21741
-90.1969
-0.0605329
-220.572
-108.829
0.478541
-0.549063
0.219961
-0.0798759
)
;

boundaryField
{
    inlet
    {
        type            calculated;
        value           nonuniform List<scalar> 4(-139.351 -221.041 -89.9383 -108.689);
    }
    outlet
    {
        type            calculated;
        value           nonuniform List<scalar> 4(142.684 175.189 112.809 128.337);
    }
    repeat_boundary
    {
        type            calculated;
        value           uniform 0;
    }
}


// ************************************************************************* //
