/*--------------------------------*- C++ -*----------------------------------*\
| =========                 |                                                 |
| \\      /  F ield         | OpenFOAM: The Open Source CFD Toolbox           |
|  \\    /   O peration     | Version:  5.x                                   |
|   \\  /    A nd           | Web:      www.OpenFOAM.org                      |
|    \\/     M anipulation  |                                                 |
\*---------------------------------------------------------------------------*/
FoamFile
{
    version     2.0;
    format      ascii;
    class       surfaceScalarField;
    location    "20000";
    object      phi;
}
// * * * * * * * * * * * * * * * * * * * * * * * * * * * * * * * * * * * * * //

dimensions      [0 3 -1 0 0 0 0];

internalField   nonuniform List<scalar> 
5825
(
-1.04957e-06
0.000161194
-999.999
-5.77167e-06
0.000159066
-999.999
-3.52991e-05
0.000124107
-999.999
-5.63611e-05
8.53182e-05
-999.999
4.76217e-05
-999.999
-1.3349e-06
0.000145715
-999.999
-4.01191e-05
0.000133144
-999.999
-7.81087e-05
0.00011339
-999.999
-9.41274e-05
0.000104819
-999.999
8.5642e-05
-999.999
-1.18876e-05
9.82002e-05
-999.998
-5.51701e-05
8.92205e-05
-999.999
-8.67701e-05
8.59401e-05
-999.999
-0.000108283
8.92524e-05
-999.999
0.000102228
-999.999
-2.25274e-05
4.35585e-05
-999.998
-5.90911e-05
4.54068e-05
-999.998
-8.729e-05
4.35189e-05
-999.998
-0.00010639
4.93869e-05
-999.999
6.38494e-05
-999.999
-2.13503e-05
-999.998
-6.04941e-05
-999.998
-8.10099e-05
-999.998
-9.29854e-05
-999.998
-999.999
-1.3761e-05
0.000468656
-999.999
-6.54949e-05
0.000450503
-999.999
-0.000150691
0.000381729
-999.999
-0.000221203
0.000326921
-999.999
0.00026248
-1000
-3.66004e-05
0.000409674
-999.999
-0.000135228
0.000386726
-999.999
-0.000222863
0.000356119
-999.999
-0.000249898
0.000336631
-999.999
0.000306674
-999.999
-5.96855e-05
0.000288482
-999.998
-0.000157215
0.000282241
-999.998
-0.000241836
0.000266427
-999.999
-0.000270797
0.000276317
-999.999
0.000315269
-999.999
-6.98198e-05
0.000142753
-999.998
-0.000172018
0.000134653
-999.998
-0.000241367
0.000129475
-999.998
-0.000255032
0.000152826
-999.998
0.000193514
-999.999
-7.97371e-05
-999.998
-0.000175958
-999.998
-0.000219293
-999.998
-0.000216928
-999.998
-999.998
-8.32192e-05
0.000801529
-999.999
-0.000206478
0.00078241
-999.999
-0.000349547
0.000732337
-999.999
-0.000444431
0.000716493
-999.999
0.000687381
-1000
-0.0001084
0.000691354
-999.998
-0.000253818
0.000669916
-999.998
-0.000378789
0.000646939
-999.999
-0.000435647
0.0006449
-999.999
0.000644875
-999.999
-0.000132908
0.000489597
-999.998
-0.000270562
0.000485189
-999.998
-0.000384767
0.000471629
-999.998
-0.000402055
0.000500164
-999.998
0.000558909
-999.999
-0.00013857
0.000243953
-999.998
-0.000283607
0.000230349
-999.998
-0.000365314
0.000238175
-999.998
-0.000357609
0.000276804
-999.998
0.000318118
-999.998
-0.000153489
-999.998
-0.000276487
-999.998
-0.000327773
-999.998
-0.000305227
-999.998
-999.998
-0.000179261
0.00118316
-999.998
-0.00037981
0.00116802
-999.999
-0.000574967
0.00114914
-999.999
-0.000728399
0.00117469
-999.999
0.00122112
-999.999
-0.000200918
0.00100559
-999.998
-0.000389385
0.000991493
-999.998
-0.000545986
0.000989586
-999.998
-0.000649014
0.00101626
-999.998
0.00108546
-999.999
-0.000217003
0.000709898
-999.998
-0.000391212
0.000712786
-999.998
-0.000523848
0.000713572
-999.998
-0.000559391
0.000755287
-999.998
0.000816331
-999.998
-0.000216815
0.00035967
-999.997
-0.000389357
0.000355693
-999.997
-0.000486399
0.000375426
-999.998
-0.00049701
0.000407215
-999.998
0.000430789
-999.998
-0.000223299
-999.997
-0.00036919
-999.997
-0.000454452
-999.997
-0.000473559
-999.998
-999.998
-0.000276597
0.00162847
-999.998
-0.000565676
0.00161428
-999.998
-0.000798282
0.00162502
-999.998
-0.000973272
0.001653
-999.999
0.00171074
-999.999
-0.000297097
0.00137795
-999.997
-0.000550194
0.00138004
-999.998
-0.000740522
0.00140012
-999.998
-0.000884196
0.00144112
-999.998
0.00152759
-999.998
-0.000302582
0.00098531
-999.997
-0.000529764
0.00099632
-999.997
-0.000701303
0.00100988
-999.997
-0.000806217
0.00104542
-999.997
0.00109288
-999.998
-0.000296159
0.000516241
-999.997
-0.000516244
0.000521375
-999.997
-0.000669456
0.000540778
-999.997
-0.000769718
0.000553949
-999.997
0.000550924
-999.997
-0.000290338
-999.996
-0.00049591
-999.996
-0.000654903
-999.997
-0.000767484
-999.997
-999.997
-0.000389548
0.00221915
-999.998
-0.000758
0.00221943
-999.998
-0.00100153
0.00225208
-999.998
-0.00116051
0.00227731
-999.998
0.00225691
-999.998
-0.000412007
0.00188961
-999.997
-0.000745489
0.00190718
-999.997
-0.000991184
0.00193447
-999.997
-0.00114132
0.00195982
-999.997
0.00198764
-999.998
-0.000397523
0.00137449
-999.996
-0.000709405
0.00138559
-999.996
-0.000953959
0.00140181
-999.996
-0.00114494
0.0014167
-999.997
0.00140767
-999.997
-0.000388596
0.000732093
-999.995
-0.000695202
0.000738518
-999.996
-0.000941175
0.000752295
-999.996
-0.00113359
0.000747935
-999.996
0.000724419
-999.997
-0.000378779
-999.995
-0.00068498
-999.995
-0.000943803
-999.995
-0.00114276
-999.996
-999.996
-0.000535074
0.00307814
-999.997
-0.000963144
0.00309847
-999.997
-0.00123694
0.00314369
-999.998
-0.00145264
0.00313978
-999.998
0.00309252
-999.998
-0.00054063
0.00264498
-999.996
-0.000979641
0.0026692
-999.996
-0.00132169
0.00268112
-999.996
-0.00149775
0.00266642
-999.997
0.00260317
-999.997
-0.000516461
0.00193668
-999.995
-0.00095196
0.0019419
-999.995
-0.00130557
0.00194822
-999.995
-0.00155706
0.00193773
-999.996
0.00189043
-999.996
-0.000515492
0.00103353
-999.994
-0.000950645
0.00104329
-999.994
-0.00131888
0.00104352
-999.994
-0.00159643
0.00102957
-999.995
0.00100254
-999.995
-0.000506636
-999.993
-0.000948266
-999.994
-0.00132888
-999.994
-0.00161219
-999.994
-999.995
-0.000696875
0.00437526
-999.996
-0.00123955
0.00439614
-999.996
-0.00166819
0.00436233
-999.997
-0.0019774
0.00431406
-999.997
0.00426827
-999.999
-0.000689432
0.00373133
-999.994
-0.00128011
0.00374403
-999.995
-0.0017849
0.0037259
-999.995
-0.00207644
0.00370928
-999.996
0.00360315
-999.997
-0.000683518
0.00272488
-999.993
-0.0012942
0.00272181
-999.993
-0.00180209
0.00271375
-999.994
-0.00213627
0.00270011
-999.994
0.00264904
-999.995
-0.00069244
0.00144557
-999.992
-0.0013028
0.00145524
-999.992
-0.00182104
0.00145047
-999.993
-0.0021806
0.00144192
-999.993
0.00142486
-999.994
-0.000684226
-999.991
-0.00130454
-999.991
-0.0018259
-999.992
-0.0021744
-999.993
-999.993
-0.000893914
0.00613584
-999.995
-0.00169106
0.00612975
-999.995
-0.00240862
0.00606302
-999.996
-0.00278105
0.0059822
-999.997
0.00591186
-999.998
-0.000910958
0.00520279
-999.992
-0.00175106
0.00519705
-999.993
-0.00245897
0.0051664
-999.993
-0.00287585
0.00514523
-999.994
0.00511166
-999.996
-0.000928491
0.00378591
-999.99
-0.00178377
0.00378128
-999.991
-0.00248398
0.00377254
-999.991
-0.00292659
0.0037653
-999.992
0.00375192
-999.994
-0.000941359
0.00200011
-999.989
-0.00179207
0.00200999
-999.989
-0.00249203
0.00200373
-999.99
-0.00293914
0.00200206
-999.991
0.0020126
-999.992
-0.000934283
-999.988
-0.00179384
-999.989
-0.00248904
-999.989
-0.00291877
-999.99
-999.991
-0.00122798
0.00842727
-999.993
-0.00242843
0.00840453
-999.993
-0.00342964
0.00836116
-999.994
-0.00392913
0.00832233
-999.996
0.00827349
-999.997
-0.00126597
0.00715568
-999.99
-0.00245912
0.00715094
-999.99
-0.00340774
0.00713862
-999.991
-0.00398226
0.00712966
-999.993
0.00714835
-999.994
-0.00128687
0.0052046
-999.987
-0.00247437
0.00520653
-999.988
-0.00341931
0.00520352
-999.989
-0.00401348
0.00520029
-999.99
0.0052097
-999.991
-0.00129611
0.00274162
-999.985
-0.00247672
0.00274802
-999.986
-0.00342059
0.00273986
-999.987
-0.00401204
0.00273753
-999.988
0.00274171
-999.989
-0.00129293
-999.984
-0.00247904
-999.985
-0.00341599
-999.986
-0.00399942
-999.987
-999.989
-0.00175883
0.0115055
-999.991
-0.00343849
0.0115113
-999.991
-0.00470845
0.0115203
-999.993
-0.00540238
0.011512
-999.994
0.0114554
-999.996
-0.00177788
0.00980262
-999.986
-0.00342311
0.00981604
-999.987
-0.00468234
0.00982126
-999.988
-0.00544981
0.00980513
-999.99
0.00980656
-999.992
-0.00178535
0.0071272
-999.983
-0.00341923
0.00713393
-999.983
-0.00469824
0.00712905
-999.985
-0.00550592
0.00711646
-999.986
0.00710965
-999.989
-0.00179452
0.00374158
-999.98
-0.00342374
0.00374295
-999.981
-0.00470895
0.00373208
-999.982
-0.00552464
0.00372399
-999.984
0.00371292
-999.986
-0.00179803
-999.979
-0.00342724
-999.979
-0.00470726
-999.981
-0.0055273
-999.982
-999.985
-0.00245832
0.0157804
-999.988
-0.00469918
0.0158228
-999.989
-0.00634581
0.0158382
-999.99
-0.00729905
0.0157851
-999.993
0.0156495
-999.995
-0.0024525
0.0134451
-999.982
-0.00468385
0.0134682
-999.983
-0.00638792
0.0134621
-999.984
-0.00742964
0.0134176
-999.987
0.013338
-999.989
-0.00245917
0.00975913
-999.977
-0.0046898
0.00976506
-999.978
-0.00643264
0.00975073
-999.979
-0.00752567
0.00972519
-999.982
0.00968114
-999.984
-0.00247624
0.00511142
-999.973
-0.00470392
0.00511366
-999.974
-0.0064573
0.00510384
-999.976
-0.007575
0.00509386
-999.978
0.00507357
-999.981
-0.00248155
-999.971
-0.00470381
-999.972
-0.0064532
-999.974
-0.00758068
-999.976
-999.979
-0.00334032
0.0216922
-999.984
-0.00633591
0.0217439
-999.985
-0.00861408
0.0217271
-999.987
-0.0099816
0.0216402
-999.99
0.021495
-999.994
-0.00333949
0.018451
-999.975
-0.00635399
0.01847
-999.977
-0.00869693
0.0184358
-999.979
-0.0101331
0.0183662
-999.982
0.0182482
-999.986
-0.00336331
0.0133764
-999.968
-0.0063882
0.0133851
-999.97
-0.00876653
0.0133619
-999.972
-0.0102549
0.0133261
-999.975
0.013261
-999.979
-0.00338607
0.00700866
-999.963
-0.00641106
0.00702013
-999.965
-0.00880108
0.00701214
-999.967
-0.0103206
0.00700191
-999.97
0.00697654
-999.974
-0.00338426
-999.961
-0.00640508
-999.962
-0.00879097
-999.964
-0.0103231
-999.968
-999.971
-0.00450581
0.029772
-999.978
-0.00854632
0.0298172
-999.979
-0.0117433
0.0297607
-999.982
-0.013753
0.0296732
-999.987
0.0295821
-999.992
-0.00452909
0.0253036
-999.967
-0.00860199
0.025318
-999.968
-0.0118232
0.0252533
-999.971
-0.0138522
0.0251652
-999.976
0.0250638
-999.981
-0.00457328
0.0183481
-999.957
-0.0086677
0.0183672
-999.959
-0.0119113
0.0183312
-999.962
-0.0139642
0.0182773
-999.966
0.0182043
-999.971
-0.0045958
0.00963179
-999.95
-0.0087031
0.00965083
-999.952
-0.011963
0.00963616
-999.955
-0.0140392
0.00961491
-999.959
0.00957315
-999.964
-0.00458828
-999.947
-0.00869806
-999.948
-0.0119558
-999.951
-0.0140498
-999.956
-999.961
-0.00608256
0.0407734
-999.969
-0.0115643
0.0408032
-999.972
-0.0159751
0.0406944
-999.976
-0.0188248
0.0405875
-999.982
0.0405088
-999.988
-0.00614568
0.0346601
-999.954
-0.0116716
0.0346771
-999.956
-0.0160718
0.0345808
-999.961
-0.0189123
0.0344618
-999.967
0.0343649
-999.974
-0.00620733
0.0251584
-999.941
-0.0117696
0.025187
-999.944
-0.0161902
0.025126
-999.948
-0.0190255
0.0250304
-999.954
0.0249202
-999.961
-0.00623423
0.0132255
-999.932
-0.0118303
0.0132426
-999.934
-0.016283
0.01321
-999.939
-0.0191414
0.0131547
-999.945
0.0130768
-999.952
-0.00623175
-999.927
-0.0118357
-999.929
-0.0162994
-999.934
-0.0191776
-999.94
-999.947
-0.00826585
0.0557522
-999.958
-0.015739
0.0557737
-999.961
-0.0217198
0.0556108
-999.967
-0.0255873
0.0554344
-999.975
0.0552441
-999.984
-0.00837127
0.0474248
-999.938
-0.0159036
0.0474547
-999.941
-0.0218903
0.047321
-999.947
-0.0257783
0.0471365
-999.955
0.0469487
-999.964
-0.00844779
0.0344574
-999.92
-0.0160391
0.0344896
-999.923
-0.0220734
0.0343886
-999.929
-0.0259768
0.0342228
-999.937
0.0340344
-999.947
-0.00849174
0.0181231
-999.907
-0.0161406
0.0181359
-999.91
-0.0222366
0.0180742
-999.916
-0.0261698
0.0179712
-999.924
0.0178667
-999.934
-0.00849904
-999.9
-0.0161655
-999.904
-0.0222872
-999.91
-0.0262165
-999.918
-999.928
-0.0113062
0.0762057
-999.943
-0.0214948
0.0762487
-999.947
-0.0295665
0.0760248
-999.955
-0.0347406
0.0757096
-999.966
0.0752979
-999.979
-0.011436
0.0648587
-999.915
-0.0217251
0.0649038
-999.919
-0.0298851
0.0647072
-999.927
-0.0351578
0.0644092
-999.938
0.0640502
-999.951
-0.0115361
0.0471487
-999.891
-0.0219236
0.0471815
-999.895
-0.0301821
0.0470206
-999.903
-0.0355193
0.0467727
-999.914
0.046513
-999.927
-0.0116086
0.0248051
-999.873
-0.0220859
0.0248154
-999.877
-0.0304282
0.0247156
-999.886
-0.0357787
0.024582
-999.897
0.0244713
-999.91
-0.011627
-999.864
-0.0221363
-999.868
-0.0304919
-999.876
-0.0358085
-999.888
-999.901
-0.0154528
0.104192
-999.922
-0.0293448
0.104251
-999.928
-0.0403201
0.103911
-999.939
-0.0473329
0.103394
-999.954
0.102741
-999.971
-0.0156283
0.0886906
-999.884
-0.0296919
0.0887379
-999.889
-0.0408449
0.0884323
-999.9
-0.0479917
0.0879819
-999.915
0.0874424
-999.933
-0.0157798
0.0644916
-999.851
-0.0300006
0.0645215
-999.856
-0.0412957
0.0642757
-999.867
-0.0485273
0.0639447
-999.883
0.0636001
-999.901
-0.015895
0.033938
-999.827
-0.0302488
0.0339413
-999.832
-0.0416257
0.0338066
-999.844
-0.0488682
0.0336501
-999.859
0.0334858
-999.877
-0.0159319
-999.814
-0.0303163
-999.82
-0.0416876
-999.831
-0.0489211
-999.847
-999.865
-0.0210826
0.142454
-999.894
-0.0400501
0.1425
-999.902
-0.0550627
0.141979
-999.916
-0.0646591
0.141228
-999.937
0.140359
-999.961
-0.0213577
0.121293
-999.841
-0.0405786
0.121329
-999.849
-0.0558208
0.120862
-999.864
-0.0655288
0.120217
-999.885
0.119471
-999.909
-0.0215946
0.0882259
-999.796
-0.0410504
0.0882428
-999.804
-0.0564668
0.0878855
-999.819
-0.0662714
0.0874278
-999.84
0.0868903
-999.865
-0.0217763
0.0464284
-999.763
-0.0414107
0.0464251
-999.771
-0.0569237
0.0462493
-999.786
-0.0668048
0.0460192
-999.808
0.0457278
-999.833
-0.0218345
-999.746
-0.0414944
-999.754
-0.0570252
-999.769
-0.0669451
-999.791
-999.816
-0.0287802
0.194799
-999.855
-0.0546768
0.194826
-999.866
-0.0752268
0.194046
-999.886
-0.0884112
0.19299
-999.914
0.191851
-999.947
-0.0291928
0.165956
-999.783
-0.0554682
0.16596
-999.794
-0.0762923
0.165263
-999.814
-0.0895504
0.164332
-999.843
0.163262
-999.876
-0.0295617
0.120742
-999.721
-0.0561716
0.120733
-999.732
-0.0772254
0.120217
-999.753
-0.0906167
0.119523
-999.782
0.118675
-999.815
-0.0298414
0.0635336
-999.676
-0.0566917
0.0635273
-999.687
-0.0779186
0.0632603
-999.708
-0.0914601
0.0628901
-999.737
0.0624518
-999.772
-0.0299231
-999.652
-0.0568333
-999.663
-0.0781143
-999.685
-0.0916929
-999.714
-999.749
-0.0392944
0.266517
-999.803
-0.0746799
0.266486
-999.817
-0.102778
0.265305
-999.845
-0.120783
0.263771
-999.883
0.262095
-999.928
-0.0399255
0.227178
-999.703
-0.0758756
0.227114
-999.718
-0.104327
0.226074
-999.747
-0.122462
0.224678
-999.785
0.22307
-999.831
-0.0404997
0.165327
-999.619
-0.0769242
0.165275
-999.633
-0.105727
0.1645
-999.662
-0.124063
0.163431
-999.702
0.16217
-999.748
-0.0409223
0.0870047
-999.557
-0.077704
0.0869765
-999.572
-0.106797
0.0865495
-999.601
-0.125321
0.0859865
-999.641
0.0853417
-999.688
-0.0410544
-999.524
-0.0779602
-999.539
-0.107122
-999.569
-0.125685
-999.609
-999.657
-0.0536942
0.364763
-999.731
-0.102087
0.364599
-999.751
-0.140368
0.362825
-999.789
-0.1647
0.360483
-999.841
0.357735
-999.902
-0.0546783
0.311128
-999.595
-0.103877
0.310957
-999.615
-0.142726
0.309379
-999.654
-0.167458
0.307221
-999.707
0.304713
-999.77
-0.0555497
0.226546
-999.478
-0.105469
0.226408
-999.499
-0.144891
0.225217
-999.539
-0.169964
0.223575
-999.593
0.221659
-999.657
-0.0561965
0.119269
-999.393
-0.10667
0.119185
-999.414
-0.146536
0.118526
-999.454
-0.171879
0.117652
-999.51
0.116622
-999.575
-0.0564222
-999.349
-0.107095
-999.37
-0.147086
-999.41
-0.172527
-999.466
-999.532
-0.0734913
0.499413
-999.634
-0.139579
0.499061
-999.661
-0.191609
0.496372
-999.713
-0.224524
0.492665
-999.784
0.488221
-999.867
-0.0749646
0.426437
-999.447
-0.14229
0.426077
-999.475
-0.19533
0.423619
-999.528
-0.228985
0.420226
-999.601
0.416234
-999.687
-0.0762848
0.310789
-999.286
-0.144772
0.310472
-999.315
-0.198739
0.308601
-999.37
-0.232987
0.306014
-999.445
0.302977
-999.532
-0.0772997
0.163721
-999.169
-0.146658
0.163535
-999.198
-0.201335
0.162502
-999.254
-0.236028
0.161085
-999.33
0.159412
-999.42
-0.0776795
-999.107
-0.147373
-999.136
-0.202312
-999.193
-0.237181
-999.271
-999.361
-0.100591
0.684305
-999.503
-0.190783
0.683608
-999.54
-0.261577
0.679397
-999.611
-0.306275
0.673516
-999.708
0.666608
-999.82
-0.102825
0.585206
-999.245
-0.195029
0.584443
-999.283
-0.267477
0.580532
-999.357
-0.313211
0.575126
-999.457
0.568734
-999.574
-0.104906
0.427025
-999.023
-0.198979
0.426353
-999.062
-0.272914
0.423335
-999.138
-0.319633
0.419157
-999.242
0.41426
-999.363
-0.106539
0.225144
-998.86
-0.202023
0.224755
-998.9
-0.277114
0.223082
-998.978
-0.324546
0.220768
-999.085
0.218057
-999.209
-0.107196
-998.775
-0.203265
-998.815
-0.278828
-998.894
-0.32655
-999.002
-999.128
-0.137606
0.938612
-999.324
-0.260836
0.937165
-999.375
-0.357211
0.930482
-999.473
-0.417617
0.921203
-999.605
0.910299
-999.758
-0.14116
0.804365
-998.97
-0.267577
0.802795
-999.023
-0.366526
0.796486
-999.124
-0.428572
0.787773
-999.262
0.777507
-999.422
-0.144545
0.587954
-998.662
-0.273952
0.586602
-998.717
-0.375297
0.581651
-998.822
-0.438902
0.574836
-998.966
0.56688
-999.132
-0.147224
0.310353
-998.435
-0.278951
0.309581
-998.492
-0.382157
0.306824
-998.6
-0.4469
0.303031
-998.748
0.298609
-998.92
-0.148373
-998.316
-0.281121
-998.373
-0.385134
-998.484
-0.450366
-998.634
-998.809
-0.188384
1.28894
-999.084
-0.356809
1.28612
-999.155
-0.487855
1.27547
-999.288
-0.569115
1.26077
-999.469
1.24341
-999.677
-0.194104
1.10786
-998.595
-0.36755
1.1048
-998.668
-0.502622
1.0945
-998.808
-0.586573
1.08036
-998.998
1.06383
-999.217
-0.199671
0.811801
-998.167
-0.377963
0.809194
-998.243
-0.516873
0.800984
-998.39
-0.603244
0.789774
-998.589
0.776738
-998.819
-0.204117
0.429232
-997.849
-0.38626
0.427735
-997.928
-0.528172
0.423129
-998.081
-0.61638
0.416871
-998.287
0.409604
-998.526
-0.206142
-997.681
-0.39007
-997.761
-0.533329
-997.917
-0.62236
-998.128
-998.371
-0.258267
1.77266
-998.763
-0.488302
1.76743
-998.86
-0.666153
1.75031
-999.043
-0.775088
1.72688
-999.289
1.69936
-999.572
-0.267476
1.53002
-998.085
-0.505578
1.52425
-998.187
-0.689729
1.50724
-998.381
-0.802791
1.4841
-998.642
1.45721
-998.941
-0.276715
1.12511
-997.485
-0.522793
1.12017
-997.593
-0.713085
1.10638
-997.799
-0.829949
1.08774
-998.076
1.06617
-998.393
-0.284214
0.59631
-997.036
-0.536747
0.593418
-997.149
-0.731903
0.58566
-997.365
-0.851741
0.57523
-997.655
0.563164
-997.987
-0.287845
-996.797
-0.543433
-996.913
-0.740854
-997.134
-0.862093
-997.432
-997.772
-0.354551
2.44245
-998.337
-0.668628
2.43291
-998.471
-0.909067
2.40514
-998.722
-1.05389
2.36743
-999.057
2.32336
-999.438
-0.369575
2.12069
-997.393
-0.696666
2.10992
-997.537
-0.947069
2.08142
-997.807
-1.09832
2.04306
-998.166
1.99878
-998.574
-0.385169
1.5673
-996.547
-0.725529
1.55796
-996.701
-0.985849
1.53445
-996.992
-1.14313
1.50303
-997.378
1.46698
-997.817
-0.398107
0.833419
-995.904
-0.749337
0.827954
-996.068
-1.01764
0.814684
-996.377
-1.17963
0.796952
-996.787
0.776707
-997.251
-0.404623
-995.559
-0.761169
-995.728
-1.0334
-996.047
-1.19762
-996.47
-996.949
-0.48752
3.3732
-997.779
-0.91612
3.35579
-997.966
-1.23925
3.31018
-998.311
-1.4296
3.24881
-998.765
3.17759
-999.274
-0.512479
2.95378
-996.461
-0.962188
2.93357
-996.665
-1.30118
2.88499
-997.042
-1.50153
2.82042
-997.537
2.74676
-998.092
-0.53943
2.19851
-995.252
-1.01142
2.18073
-995.476
-1.36658
2.13989
-995.891
-1.57623
2.08595
-996.434
2.02517
-997.041
-0.562271
1.17449
-994.318
-1.05284
1.16414
-994.561
-1.42126
1.14083
-995.009
-1.63793
1.1101
-995.594
1.07578
-996.245
-0.574122
-993.81
-1.07424
-994.064
-1.4494
-994.531
-1.66934
-995.14
-995.816
-0.671818
4.67246
-997.066
-1.25589
4.64037
-997.327
-1.68624
4.56406
-997.804
-1.93264
4.46299
-998.413
4.34744
-999.087
-0.714239
4.1416
-995.216
-1.33293
4.10313
-995.509
-1.78837
4.0185
-996.041
-2.04966
3.90776
-996.72
3.78431
-997.47
-0.762134
3.11342
-993.462
-1.41876
3.07904
-993.795
-1.90071
3.00632
-994.397
-2.17526
2.91185
-995.163
2.80855
-996.001
-0.803699
1.67377
-992.074
-1.49263
1.65363
-992.446
-1.99662
1.61186
-993.111
-2.2805
1.55774
-993.956
1.49914
-994.87
-0.825962
-991.31
-1.53188
-991.704
-2.04736
-992.404
-2.33547
-993.294
-994.251
-0.928633
6.49591
-996.191
-1.72281
6.43577
-996.56
-2.28619
6.30557
-997.221
-2.59895
6.1365
-998.021
5.94859
-998.9
-1.00263
5.86034
-993.578
-1.85411
5.78532
-994.007
-2.4571
5.63434
-994.767
-2.78992
5.44001
-995.691
5.23179
-996.69
-1.09071
4.46663
-990.977
-2.00744
4.39803
-991.491
-2.65444
4.26559
-992.381
-3.00279
4.09596
-993.471
3.9197
-994.621
-1.16943
2.42072
-988.859
-2.14236
2.38048
-989.455
-2.82678
2.30495
-990.466
-3.18318
2.20727
-991.711
2.10732
-992.989
-1.21243
-987.677
-2.21464
-988.321
-2.9199
-989.393
-3.2789
-990.728
-992.076
-1.28879
9.07139
-995.203
-2.36651
8.95644
-995.729
-3.07626
8.73007
-996.664
-3.46756
8.44103
-997.655
8.13709
-998.776
-1.42128
8.39813
-991.484
-2.59432
8.24642
-992.124
-3.36815
7.97164
-993.235
-3.77833
7.61969
-994.46
7.26816
-995.763
-1.59029
6.52114
-987.51
-2.8744
6.37821
-988.339
-3.72529
6.13297
-989.692
-4.1405
5.8163
-991.253
5.51758
-992.804
-1.74666
3.56815
-984.159
-3.12613
3.48457
-985.182
-4.04636
3.34869
-986.761
-4.44832
3.16576
-988.659
2.9976
-990.409
-1.83241
-982.276
-3.25813
-983.411
-4.22189
-985.081
-4.61217
-987.172
-989.027
-1.79639
12.7375
-994.32
-3.26562
12.5138
-995.06
-4.06507
12.1169
-996.491
-4.57286
11.6035
-997.478
11.1234
-998.862
-2.03831
12.2514
-988.959
-3.66456
11.9291
-989.913
-4.58209
11.4259
-991.626
-5.07058
10.7562
-993.124
10.1708
-994.748
-2.37952
9.74585
-982.624
-4.18342
9.42881
-984.034
-5.25821
8.97433
-986.165
-5.68231
8.34305
-988.415
7.85414
-990.409
-2.70936
5.38427
-977.088
-4.65988
5.19828
-979.001
-5.89228
4.96868
-981.523
-6.1916
4.60241
-984.618
4.33256
-986.828
-2.88827
-974.003
-4.88627
-976.215
-6.23895
-978.76
-6.45836
-982.35
-984.659
-2.5067
18.0159
-994.332
-4.57982
17.5807
-995.273
-5.08823
16.9035
-998.011
-5.92686
15.9094
-997.843
15.2051
-999.468
-2.94657
18.3325
-986.329
-5.26846
17.5991
-987.609
-6.09108
16.7071
-990.607
-6.68991
15.3261
-991.942
14.4026
-993.754
-3.68102
15.0193
-975.63
-6.22509
14.2526
-978.144
-7.46874
13.45
-981.664
-7.6824
12.0389
-984.914
11.3397
-987.091
-4.42882
8.34861
-965.988
-7.11774
7.88712
-969.947
-8.8448
7.59715
-973.943
-8.42851
6.76462
-979.76
6.39598
-981.616
-4.82256
-960.832
-7.402
-965.748
-9.58462
-968.98
-8.80669
-976.364
-978.043
-3.41941
25.8279
-997.702
-6.72135
25.0093
-998.272
-5.45571
24.0273
-1005.6
-7.44126
21.6929
-999.568
20.8835
-1001
-4.16951
28.4464
-984.778
-7.83828
26.6137
-985.545
-7.57186
25.2528
-992.099
-8.51961
22.0235
-991.324
20.8255
-992.657
-5.91
24.0761
-965.35
-9.54484
22.0214
-969.916
-10.6716
20.8741
-976.159
-9.96241
17.1088
-980.709
16.6841
-981.65
-7.73811
13.324
-947.498
-11.0682
11.9748
-956.57
-14.0496
12.2125
-962.3
-10.7371
9.91026
-975.874
9.71619
-973.03
-8.66208
-938.846
-10.9754
-951.46
-15.7602
-951.983
-11.1516
-971.062
-966.83
-4.59006
37.8452
-1009.74
-10.5917
36.4069
-1007.72
-3.92332
35.5671
-1029.53
-8.27408
29.304
-1005.14
29.2253
-1002.25
-5.27784
46.4397
-988.095
-12.285
41.2793
-983.41
-8.40202
40.3184
-1000.73
-10.0674
31.6409
-991.996
31.198
-990.093
-9.79967
40.5164
-949.627
-15.2416
34.4159
-957.611
-15.2254
34.2736
-970.13
-11.9643
22.1856
-974.515
25.2117
-970.502
-14.5956
21.818
-914.204
-17.5242
17.146
-936.372
-24.2407
21.4005
-942.71
-12.271
13.9653
-979.624
15.2946
-956.913
-16.8169
-900.212
-16.3001
-934.831
-28.1344
-918.748
-12.7592
-972.472
-946.104
-7.42278
55.1422
-1037.6
-18.0197
53.5681
-1029.84
3.27042
53.1362
-1089.99
-3.97536
38.3657
-1020.13
41.5839
-991.889
-5.9878
80.9892
-1007.95
-20.301
65.2212
-980.75
-7.63263
69.2495
-1029.52
-11.1159
45.2559
-995.403
48.8249
-983.345
-16.5037
71.9917
-924.126
-25.7564
53.1625
-936.3
-19.9208
61.1761
-967.892
-13.4602
22.5544
-958.273
38.971
-946.113
-29.1026
36.0404
-849.15
-30.7329
21.0074
-902.586
-44.9542
41.1783
-908.491
-12.0326
17.9537
-1007.94
24.6945
-926.413
-33.9503
-830.221
-25.188
-922.586
-52.3771
-850.381
-13.2577
-993.638
-910.045
-19.3825
78.4787
-1082.22
-35.6663
79.6333
-1077.4
38.6693
75.3039
-1246.32
14.6434
44.6174
-1033.69
59.2356
-932.933
-10.4679
141.773
-1060.78
-39.4051
101.362
-973.542
-1.90633
126.481
-1118.19
-11.6426
64.3543
-1005.4
78.2441
-981.175
-31.4117
128.741
-879.682
-46.2671
78.2881
-898.37
-16.925
118.422
-989.176
-15.7983
13.7774
-908.824
60.5436
-900.276
-58.8488
60.0087
-721.57
-61.8805
17.165
-838.431
-85.5582
84.5114
-850.903
-8.60742
25.8386
-1096.96
40.0055
-873.803
-68.7112
-701.501
-36.4647
-937.668
-88.2909
-714.043
-16.83
-1039.26
-860.213
9.88679
60.2692
-1239.97
-56.7866
104.82
-1094.58
90.791
89.4268
-1599.49
88.6957
26.403
-1196.41
143.512
-740.115
81.3452
374.281
-1456.14
-0.145291
225.589
-1012.82
45.6944
237.172
-1311.78
-34.9889
94.0418
-992.359
125.059
-750.286
-14.7227
404.788
-895.466
-78.8239
129.343
-738.024
3.46977
255.754
-1090.05
37.3237
-60.2445
-788.392
107.207
-718.608
-192.533
162.114
-286.363
-152.614
27.5475
-776.555
-155.054
246.047
-838.756
75.6608
-76.4385
-1311.48
88.9611
-678.381
-189.187
-350.2
-105.725
-993.582
-265.976
-307.746
86.0217
-1467.7
-696.156
-232.486
117.445
-1071.83
-173.285
134.457
-1354.67
343.341
116.758
-2462.85
122.449
70.5474
-953.33
78.8356
-359.219
-122.622
172.268
-1388.34
-243.852
138.09
-895.221
-58.2208
347.455
-1728.1
-34.3501
21.1733
-966.856
117.147
-1054.89
-193.734
63.2161
-592.681
-116.542
20.9846
-698.111
2.98663
338.174
-1200.3
-133.75
-130.872
-499.609
60.8271
-759.419
-50.5603
-21.5028
-151.084
-183.072
-179.833
-443.225
-329.416
109.751
-463.99
-16.7169
167.122
-1922.17
-204.045
-480.401
-105.068
-266.635
59.9577
-1338.44
-108.432
-29.6054
-318.007
-1091
-1358.58
8.81546
-36.9073
-1076.82
-199.084
14.7572
-1163.3
-42.8653
-45.0965
-2777.52
-1.71831
37.1077
-1092.43
42.0253
-209.425
76.2907
20.55
-1522.09
-12.7182
42.2632
-833.718
60.0498
140.05
-1986.02
-214.632
39.2182
-694.284
12.7196
-824.597
12.4492
13.6491
-598.229
-44.9277
-0.643329
-597.827
-7.99451
51.2551
-1148.44
-0.374579
-126.486
-341.524
11.8205
-721.612
-8.60908
3.36659
-132.192
-0.657607
-18.7383
-433.082
26.3099
-0.103883
-439.598
123.781
-123.145
-2022.98
146.199
-402.879
-34.3727
-228.896
14.5517
-1406.1
-0.403621
-14.7541
259.027
-1473.57
-1058.97
567.499
183.274
-1990.74
192.364
-207.889
-549.894
-462.576
97.8222
-1879.1
-490.848
-160.804
-1027.67
48.6362
-985.987
104.841
147.607
-1591.26
532.722
24.2055
-1493.69
109.603
-240.035
-1225.04
13.9552
-80.9921
-678.448
-29.0938
-36.3153
159.807
63.0095
-673.439
62.7078
-68.5198
-408.002
-68.683
-280.378
-976.704
-16.8013
-173.931
-300.467
-16.6975
-729.047
-44.208
-1.17088
-23.8039
42.7085
355.883
-944.401
46.5448
-12.9899
-710.822
69.5568
14.8102
-2234.74
7.50004
-498.774
212.782
-442.849
31.4506
-868.889
33.1029
-29.3966
111.123
-1536.78
-953.177
211.345
8.02356
-2356.74
29.1286
13.9272
-389.073
18.6147
19.4229
-1934.29
-71.4137
-74.0891
-850.755
-33.6032
-1277.43
359.236
-127.375
-1815.1
393.162
-66.9898
-1446.7
-116.581
-93.047
-602.831
-41.9053
12.9876
-840.2
-86.5929
-232.513
79.3121
9.69869
-889.825
181.371
-44.2618
-532.789
29.5556
-256.005
-661.93
-86.9409
-103.891
-67.0913
-59.4108
-1104.89
-25.5944
38.3346
-26.8454
89.1824
197.318
-1300.76
-203.12
-12.2632
-662.262
-18.882
113.253
-2636.12
-360.596
-366.715
132.675
-537.189
-6.90512
-531.991
-0.986646
-47.5785
-448.29
-976.227
-1581.75
-816.787
145.706
-1198.44
-85.4341
96.2163
-1305.87
85.6818
214.362
-2544.72
-114.612
225.269
-679.302
127.872
-2274.6
66.9018
-372.089
-1364.2
-52.027
-56.2878
-1175.27
-18.3976
112.962
-535.059
16.3538
-63.6546
-586.028
98.8641
-402.153
-15.0664
-29.9525
-1216.9
125.149
15.4252
-744.717
-75.5584
-57.7657
-290.495
-98.919
363.456
-470.841
63.1078
-847.129
71.1959
6.45508
-134.449
119.24
-200.101
-1133.27
-17.644
-61.8808
-521.264
-34.3603
11.3511
-2267.3
-195.978
-61.3918
-95.8137
-434.92
-0.107864
-827.798
52.1319
-161.699
-271.407
-641.337
-1257.71
-183.007
-8.45147
-1082.4
-135.931
-181.182
-1451.37
-325.17
100.702
-1941.74
-306.034
48.0539
-729.82
-577.206
-2599.36
-10.4175
-26.2889
-1335.95
-138.002
-383.394
-845.474
77.1101
20.0407
-669.51
-51.3438
25.541
-435.061
3.7921
-1031.91
-104.997
-128.074
-1010.11
75.3979
60.777
-1369.28
-4.77319
-9.34062
-180.943
-5.08009
379.299
-824.292
-0.341554
-810.24
90.3095
11.8034
-364.636
-13.2577
-120.284
-848.647
307.304
-62.1667
-789
19.6532
106.868
-1707.22
110.164
-145.721
-98.3281
-324.789
-379.258
-667.152
130.564
-733.687
-184.955
-218.951
-514.56
-170.946
-49.0508
-952.222
127.152
42.0663
-1841.36
-69.4857
-333.537
-998.213
502.294
-59.1908
-1477.59
-359.118
-1018.46
85.039
-294.481
-1175.56
-107.299
-365.352
-245.718
19.9611
-85.7355
-1044.57
65.3089
-3.81424
-535.785
-290.926
-1205.88
-174.361
-203.507
-926.727
12.1102
-201.32
-1719.79
62.0895
-161.895
-154.763
-90.0288
-120.549
-555.439
-203.509
-756.71
-41.032
31.9141
-559.024
-10.8231
103.903
-1184.08
85.4496
-131.246
-915.921
-30.658
-0.372718
-1711.28
42.1847
-454.804
-15.5676
-277.307
-119.324
-459.491
114.509
-1098.77
33.3056
-138.12
-220.324
443.505
171.123
-1760.09
418.497
200.874
-1720.31
-57.594
-200.265
-450.874
-209.091
65.0248
-1033.36
229.791
-1384.94
-287.86
-152.156
-564.419
-5.25728
-64.9182
-262.528
13.3409
-243.349
-1020.09
-14.1414
-80.8003
-362.478
101.89
-723.548
-332.549
-152.631
-593.703
-52.7047
346.383
-2410.93
11.9646
23.5546
-486.336
30.397
-35.4133
-619.259
-97.1908
-63.959
-250.391
-165.467
-295.797
-319.267
89.4171
-858.237
-91.7143
-24.3658
-1095.55
-224.699
-96.4214
-1517.29
142.376
-1159.05
-17.4589
-425.315
-90.5736
-296.96
1.36076
-1215.07
56.8831
-290.064
-337.68
906.809
-346.936
-3221.98
-15.4527
-46.5805
-534.7
-23.734
-97.3166
-131.404
-133.193
6.2118
-1013.94
90.7787
-1328.06
74.293
3.35465
-989.002
95.5487
224.948
-555.312
-19.4715
-419.672
-582.711
0.255459
16.9992
-392.992
-0.385739
-675.943
503.494
16.9136
-1110.76
187.22
369.762