/*--------------------------------*- C++ -*----------------------------------*\
| =========                 |                                                 |
| \\      /  F ield         | OpenFOAM: The Open Source CFD Toolbox           |
|  \\    /   O peration     | Version:  5.x                                   |
|   \\  /    A nd           | Web:      www.OpenFOAM.org                      |
|    \\/     M anipulation  |                                                 |
\*---------------------------------------------------------------------------*/
FoamFile
{
    version     2.0;
    format      ascii;
    class       volVectorField;
    location    "20000";
    object      stored_U;
}
// * * * * * * * * * * * * * * * * * * * * * * * * * * * * * * * * * * * * * //

dimensions      [0 1 -1 0 0 0 0];

internalField   nonuniform List<vector> 
2250
(
(-1.01559e-11 1.05078e-10 -0.000999999)
(-4.07275e-11 9.95089e-11 -0.000999999)
(-8.07658e-11 1.13987e-10 -0.000999999)
(-8.67403e-11 1.2609e-10 -0.000999999)
(-1.17781e-10 1.66433e-10 -0.000999999)
(-1.75695e-11 7.12735e-11 -0.000999999)
(-4.44999e-11 6.56525e-11 -0.000999999)
(-5.9972e-11 7.79775e-11 -0.000999999)
(-6.43136e-11 1.03197e-10 -0.000999999)
(-5.4484e-11 1.1969e-10 -0.000999999)
(-1.5873e-11 6.37357e-11 -0.000999999)
(-3.41421e-11 6.85053e-11 -0.000999999)
(-4.32233e-11 7.9977e-11 -0.000999999)
(-4.50287e-11 8.64209e-11 -0.000999999)
(-5.34108e-11 9.34499e-11 -0.000999999)
(-1.29272e-11 4.72169e-11 -0.000999999)
(-2.83841e-11 5.28277e-11 -0.000999999)
(-4.20568e-11 5.37333e-11 -0.000999999)
(-5.08386e-11 5.00735e-11 -0.000999999)
(-5.08039e-11 4.28189e-11 -0.000999999)
(-1.03384e-11 1.77003e-11 -0.000999998)
(-2.76605e-11 2.0303e-11 -0.000999998)
(-4.58868e-11 1.84029e-11 -0.000999999)
(-5.58139e-11 1.6395e-11 -0.000999999)
(-5.62564e-11 1.32938e-11 -0.000999999)
(-4.60597e-11 3.39294e-10 -0.000999999)
(-1.24302e-10 3.38178e-10 -0.000999999)
(-1.88209e-10 3.74444e-10 -0.000999999)
(-1.6806e-10 4.04442e-10 -0.000999999)
(-2.76558e-10 4.85189e-10 -0.000999999)
(-4.7835e-11 2.6058e-10 -0.000999999)
(-1.11205e-10 2.69665e-10 -0.000999999)
(-1.45564e-10 2.9814e-10 -0.000999999)
(-1.48307e-10 3.35854e-10 -0.000999999)
(-1.56025e-10 3.36356e-10 -0.000999999)
(-3.74262e-11 2.36343e-10 -0.000999999)
(-8.72054e-11 2.53418e-10 -0.000999999)
(-1.22027e-10 2.66572e-10 -0.000999999)
(-1.29871e-10 2.73766e-10 -0.000999999)
(-1.52718e-10 2.6895e-10 -0.000999999)
(-3.1256e-11 1.69648e-10 -0.000999998)
(-8.1433e-11 1.7899e-10 -0.000999998)
(-1.25213e-10 1.74066e-10 -0.000999999)
(-1.45922e-10 1.68272e-10 -0.000999999)
(-1.54079e-10 1.53508e-10 -0.000999999)
(-2.83465e-11 6.23395e-11 -0.000999998)
(-8.29295e-11 6.53077e-11 -0.000999998)
(-1.32488e-10 6.08131e-11 -0.000999998)
(-1.50112e-10 5.78033e-11 -0.000999999)
(-1.63655e-10 5.62854e-11 -0.000999999)
(-7.54738e-11 6.83554e-10 -0.000999999)
(-1.87815e-10 6.94203e-10 -0.000999999)
(-2.55699e-10 7.21141e-10 -0.000999999)
(-1.89393e-10 7.34235e-10 -0.000999999)
(-3.50481e-10 8.13946e-10 -0.000999999)
(-6.33944e-11 5.88402e-10 -0.000999999)
(-1.586e-10 6.12274e-10 -0.000999999)
(-2.21786e-10 6.35461e-10 -0.000999999)
(-2.22418e-10 6.52085e-10 -0.000999999)
(-2.93549e-10 5.87654e-10 -0.000999999)
(-5.2764e-11 5.02774e-10 -0.000999998)
(-1.41892e-10 5.17143e-10 -0.000999998)
(-2.15864e-10 5.16563e-10 -0.000999999)
(-2.37112e-10 5.14734e-10 -0.000999999)
(-2.79814e-10 4.86911e-10 -0.000999999)
(-4.99986e-11 3.39271e-10 -0.000999998)
(-1.45751e-10 3.39963e-10 -0.000999998)
(-2.24173e-10 3.30901e-10 -0.000999998)
(-2.52055e-10 3.3106e-10 -0.000999998)
(-2.84512e-10 3.21832e-10 -0.000999999)
(-5.26529e-11 1.20345e-10 -0.000999998)
(-1.50666e-10 1.17836e-10 -0.000999998)
(-2.24337e-10 1.15399e-10 -0.000999998)
(-2.45702e-10 1.17256e-10 -0.000999998)
(-2.87524e-10 1.21246e-10 -0.000999998)
(-9.07296e-11 1.15565e-09 -0.000999999)
(-2.38826e-10 1.16701e-09 -0.000999999)
(-3.37931e-10 1.16737e-09 -0.000999999)
(-3.28239e-10 1.16033e-09 -0.000999999)
(-4.26757e-10 1.1662e-09 -0.001)
(-8.05478e-11 1.04482e-09 -0.000999999)
(-2.20506e-10 1.06009e-09 -0.000999999)
(-3.30437e-10 1.06165e-09 -0.000999999)
(-3.67639e-10 1.05172e-09 -0.000999999)
(-4.81797e-10 9.94219e-10 -0.000999999)
(-7.7483e-11 8.46548e-10 -0.000999998)
(-2.24051e-10 8.48288e-10 -0.000999998)
(-3.46376e-10 8.34249e-10 -0.000999998)
(-3.95728e-10 8.27857e-10 -0.000999998)
(-4.62368e-10 8.01855e-10 -0.000999999)
(-8.04724e-11 5.46425e-10 -0.000999998)
(-2.34524e-10 5.39552e-10 -0.000999998)
(-3.50909e-10 5.34798e-10 -0.000999998)
(-4.0002e-10 5.43525e-10 -0.000999998)
(-4.69637e-10 5.38612e-10 -0.000999998)
(-8.52408e-11 1.88621e-10 -0.000999998)
(-2.36309e-10 1.84057e-10 -0.000999998)
(-3.41763e-10 1.86771e-10 -0.000999998)
(-3.91183e-10 1.92554e-10 -0.000999998)
(-4.7231e-10 1.94878e-10 -0.000999998)
(-1.14455e-10 1.73859e-09 -0.000999999)
(-3.33338e-10 1.73884e-09 -0.000999999)
(-5.20998e-10 1.72473e-09 -0.000999999)
(-6.39107e-10 1.70498e-09 -0.000999999)
(-5.92168e-10 1.62462e-09 -0.001)
(-1.18443e-10 1.57518e-09 -0.000999998)
(-3.35716e-10 1.57414e-09 -0.000999998)
(-5.15775e-10 1.56468e-09 -0.000999998)
(-6.20602e-10 1.56215e-09 -0.000999999)
(-7.19101e-10 1.57503e-09 -0.000999999)
(-1.18473e-10 1.25054e-09 -0.000999998)
(-3.46895e-10 1.2477e-09 -0.000999998)
(-5.33064e-10 1.23479e-09 -0.000999998)
(-6.28813e-10 1.23392e-09 -0.000999998)
(-7.22369e-10 1.22584e-09 -0.000999998)
(-1.23679e-10 7.97496e-10 -0.000999997)
(-3.53897e-10 7.91281e-10 -0.000999997)
(-5.29564e-10 7.95659e-10 -0.000999997)
(-6.29501e-10 8.039e-10 -0.000999998)
(-7.35124e-10 7.97103e-10 -0.000999998)
(-1.25958e-10 2.74014e-10 -0.000999997)
(-3.49617e-10 2.72023e-10 -0.000999997)
(-5.19477e-10 2.78165e-10 -0.000999997)
(-6.26161e-10 2.81125e-10 -0.000999998)
(-7.40137e-10 2.80303e-10 -0.000999998)
(-1.71616e-10 2.44733e-09 -0.000999998)
(-5.07448e-10 2.4454e-09 -0.000999998)
(-8.02302e-10 2.43134e-09 -0.000999999)
(-1.05186e-09 2.40141e-09 -0.000999999)
(-9.01634e-10 2.27031e-09 -0.000999999)
(-1.79963e-10 2.2028e-09 -0.000999997)
(-5.19829e-10 2.20024e-09 -0.000999998)
(-8.01498e-10 2.19415e-09 -0.000999998)
(-9.92704e-10 2.20703e-09 -0.000999998)
(-1.02049e-09 2.27653e-09 -0.000999999)
(-1.78373e-10 1.75132e-09 -0.000999997)
(-5.20369e-10 1.7531e-09 -0.000999997)
(-7.95565e-10 1.75533e-09 -0.000999997)
(-9.6954e-10 1.766e-09 -0.000999998)
(-1.08907e-09 1.77579e-09 -0.000999998)
(-1.81522e-10 1.12025e-09 -0.000999996)
(-5.19219e-10 1.11925e-09 -0.000999996)
(-7.88625e-10 1.12713e-09 -0.000999997)
(-9.7223e-10 1.12757e-09 -0.000999997)
(-1.10507e-09 1.11939e-09 -0.000999998)
(-1.81154e-10 3.86721e-10 -0.000999996)
(-5.14679e-10 3.87485e-10 -0.000999996)
(-7.85762e-10 3.91033e-10 -0.000999996)
(-9.75376e-10 3.88865e-10 -0.000999997)
(-1.11114e-09 3.86009e-10 -0.000999997)
(-2.63676e-10 3.37163e-09 -0.000999998)
(-7.55755e-10 3.38101e-09 -0.000999998)
(-1.17194e-09 3.37137e-09 -0.000999998)
(-1.46281e-09 3.3372e-09 -0.000999999)
(-1.41612e-09 3.21935e-09 -0.000999999)
(-2.66445e-10 3.02916e-09 -0.000999997)
(-7.69169e-10 3.03824e-09 -0.000999997)
(-1.17835e-09 3.03541e-09 -0.000999997)
(-1.47032e-09 3.05777e-09 -0.000999998)
(-1.46023e-09 3.06474e-09 -0.000999998)
(-2.60398e-10 2.41418e-09 -0.000999996)
(-7.55373e-10 2.42473e-09 -0.000999996)
(-1.15248e-09 2.43568e-09 -0.000999996)
(-1.4334e-09 2.44622e-09 -0.000999997)
(-1.57735e-09 2.45918e-09 -0.000999997)
(-2.60506e-10 1.55228e-09 -0.000999995)
(-7.5236e-10 1.5537e-09 -0.000999995)
(-1.1569e-09 1.55612e-09 -0.000999996)
(-1.44679e-09 1.54179e-09 -0.000999996)
(-1.59961e-09 1.53084e-09 -0.000999997)
(-2.61439e-10 5.35344e-10 -0.000999995)
(-7.53095e-10 5.34938e-10 -0.000999995)
(-1.16217e-09 5.34199e-10 -0.000999995)
(-1.45583e-09 5.27451e-10 -0.000999996)
(-1.61246e-09 5.22348e-10 -0.000999996)
(-3.82082e-10 4.62234e-09 -0.000999997)
(-1.07356e-09 4.64278e-09 -0.000999997)
(-1.62638e-09 4.63442e-09 -0.000999998)
(-1.96843e-09 4.60522e-09 -0.000999998)
(-2.12177e-09 4.53899e-09 -0.000999999)
(-3.76281e-10 4.17034e-09 -0.000999996)
(-1.07437e-09 4.1913e-09 -0.000999996)
(-1.63787e-09 4.18536e-09 -0.000999996)
(-2.04263e-09 4.18214e-09 -0.000999997)
(-2.14575e-09 4.11111e-09 -0.000999998)
(-3.69182e-10 3.32357e-09 -0.000999994)
(-1.0667e-09 3.33609e-09 -0.000999995)
(-1.63565e-09 3.33468e-09 -0.000999995)
(-2.04269e-09 3.32116e-09 -0.000999996)
(-2.22423e-09 3.30056e-09 -0.000999996)
(-3.70147e-10 2.13597e-09 -0.000999993)
(-1.06973e-09 2.13658e-09 -0.000999994)
(-1.65285e-09 2.12978e-09 -0.000999994)
(-2.07669e-09 2.10528e-09 -0.000999995)
(-2.2629e-09 2.07148e-09 -0.000999996)
(-3.71968e-10 7.33181e-10 -0.000999993)
(-1.07497e-09 7.32061e-10 -0.000999993)
(-1.66376e-09 7.27305e-10 -0.000999994)
(-2.0969e-09 7.17984e-10 -0.000999994)
(-2.28839e-09 7.03079e-10 -0.000999995)
(-5.19237e-10 6.32493e-09 -0.000999996)
(-1.45961e-09 6.34146e-09 -0.000999996)
(-2.20332e-09 6.31912e-09 -0.000999997)
(-2.76786e-09 6.30415e-09 -0.000999998)
(-3.00941e-09 6.24327e-09 -0.000999999)
(-5.12809e-10 5.73714e-09 -0.000999994)
(-1.46402e-09 5.75666e-09 -0.000999994)
(-2.23294e-09 5.73728e-09 -0.000999995)
(-2.79441e-09 5.69441e-09 -0.000999996)
(-3.09364e-09 5.65919e-09 -0.000999997)
(-5.10811e-10 4.55912e-09 -0.000999992)
(-1.47073e-09 4.56602e-09 -0.000999993)
(-2.26574e-09 4.54892e-09 -0.000999993)
(-2.84595e-09 4.50409e-09 -0.000999994)
(-3.1101e-09 4.44922e-09 -0.000999995)
(-5.14692e-10 2.92231e-09 -0.000999991)
(-1.48313e-09 2.92353e-09 -0.000999991)
(-2.29493e-09 2.90873e-09 -0.000999992)
(-2.89402e-09 2.87761e-09 -0.000999993)
(-3.15308e-09 2.82925e-09 -0.000999994)
(-5.1426e-10 1.00038e-09 -0.00099999)
(-1.48715e-09 1.00175e-09 -0.000999991)
(-2.30723e-09 9.95451e-10 -0.000999991)
(-2.91976e-09 9.85078e-10 -0.000999992)
(-3.17803e-09 9.64189e-10 -0.000999993)
(-6.85998e-10 8.6274e-09 -0.000999994)
(-1.95714e-09 8.6278e-09 -0.000999995)
(-3.01394e-09 8.58695e-09 -0.000999995)
(-3.94265e-09 8.57962e-09 -0.000999997)
(-4.13635e-09 8.45081e-09 -0.000999998)
(-6.8823e-10 7.84129e-09 -0.000999992)
(-1.97669e-09 7.84792e-09 -0.000999992)
(-3.0456e-09 7.81552e-09 -0.000999993)
(-3.85121e-09 7.7678e-09 -0.000999994)
(-4.30964e-09 7.85003e-09 -0.000999995)
(-6.94477e-10 6.21661e-09 -0.000999989)
(-1.9983e-09 6.21783e-09 -0.00099999)
(-3.09427e-09 6.19024e-09 -0.000999991)
(-3.90815e-09 6.13743e-09 -0.000999992)
(-4.29359e-09 6.08991e-09 -0.000999993)
(-6.98986e-10 3.98411e-09 -0.000999988)
(-2.01522e-09 3.99029e-09 -0.000999988)
(-3.12608e-09 3.97166e-09 -0.000999989)
(-3.95141e-09 3.94427e-09 -0.00099999)
(-4.33151e-09 3.90896e-09 -0.000999991)
(-6.94683e-10 1.36675e-09 -0.000999987)
(-2.01466e-09 1.37236e-09 -0.000999987)
(-3.13428e-09 1.36611e-09 -0.000999988)
(-3.96313e-09 1.35821e-09 -0.000999989)
(-4.33918e-09 1.34686e-09 -0.00099999)
(-9.10407e-10 1.17324e-08 -0.000999992)
(-2.64181e-09 1.17189e-08 -0.000999992)
(-4.14017e-09 1.16737e-08 -0.000999994)
(-5.41615e-09 1.16541e-08 -0.000999995)
(-5.69211e-09 1.14909e-08 -0.000999997)
(-9.25939e-10 1.06481e-08 -0.000999988)
(-2.67578e-09 1.06425e-08 -0.000999989)
(-4.16076e-09 1.06083e-08 -0.00099999)
(-5.29766e-09 1.05799e-08 -0.000999992)
(-5.85271e-09 1.06956e-08 -0.000999993)
(-9.36472e-10 8.44442e-09 -0.000999985)
(-2.7025e-09 8.44788e-09 -0.000999986)
(-4.2031e-09 8.41816e-09 -0.000999987)
(-5.32887e-09 8.37731e-09 -0.000999989)
(-5.87111e-09 8.36217e-09 -0.00099999)
(-9.38811e-10 5.42492e-09 -0.000999983)
(-2.71859e-09 5.43644e-09 -0.000999984)
(-4.23144e-09 5.41607e-09 -0.000999985)
(-5.35348e-09 5.39519e-09 -0.000999986)
(-5.90266e-09 5.3843e-09 -0.000999988)
(-9.3369e-10 1.86817e-09 -0.000999982)
(-2.71673e-09 1.87511e-09 -0.000999983)
(-4.23625e-09 1.86846e-09 -0.000999984)
(-5.35021e-09 1.86227e-09 -0.000999985)
(-5.89522e-09 1.86153e-09 -0.000999987)
(-1.23403e-09 1.59454e-08 -0.000999989)
(-3.59937e-09 1.59376e-08 -0.00099999)
(-5.65493e-09 1.59044e-08 -0.000999991)
(-7.25201e-09 1.58581e-08 -0.000999993)
(-7.82019e-09 1.57243e-08 -0.000999996)
(-1.25442e-09 1.44395e-08 -0.000999984)
(-3.63547e-09 1.44385e-08 -0.000999985)
(-5.672e-09 1.44056e-08 -0.000999986)
(-7.21721e-09 1.43817e-08 -0.000999988)
(-7.94535e-09 1.44108e-08 -0.000999991)
(-1.26303e-09 1.14716e-08 -0.00099998)
(-3.6617e-09 1.14831e-08 -0.000999981)
(-5.71208e-09 1.14487e-08 -0.000999982)
(-7.24687e-09 1.14098e-08 -0.000999984)
(-8.00041e-09 1.13959e-08 -0.000999987)
(-1.26513e-09 7.38372e-09 -0.000999977)
(-3.68084e-09 7.39366e-09 -0.000999978)
(-5.74553e-09 7.36666e-09 -0.000999979)
(-7.26981e-09 7.3403e-09 -0.000999981)
(-8.03572e-09 7.33317e-09 -0.000999984)
(-1.26499e-09 2.54707e-09 -0.000999975)
(-3.68612e-09 2.54972e-09 -0.000999976)
(-5.75444e-09 2.53974e-09 -0.000999978)
(-7.26619e-09 2.52992e-09 -0.00099998)
(-8.02745e-09 2.52946e-09 -0.000999982)
(-1.68884e-09 2.17169e-08 -0.000999985)
(-4.90742e-09 2.17319e-08 -0.000999986)
(-7.66519e-09 2.1697e-08 -0.000999988)
(-9.73207e-09 2.16284e-08 -0.000999991)
(-1.07061e-08 2.14882e-08 -0.000999994)
(-1.70314e-09 1.96397e-08 -0.000999978)
(-4.94515e-09 1.96545e-08 -0.000999979)
(-7.71974e-09 1.96023e-08 -0.000999981)
(-9.79603e-09 1.95341e-08 -0.000999984)
(-1.0819e-08 1.94694e-08 -0.000999988)
(-1.71222e-09 1.56113e-08 -0.000999973)
(-4.98357e-09 1.56228e-08 -0.000999974)
(-7.78619e-09 1.55678e-08 -0.000999976)
(-9.86496e-09 1.55027e-08 -0.000999979)
(-1.09039e-08 1.54544e-08 -0.000999982)
(-1.7219e-09 1.00433e-08 -0.000999969)
(-5.01925e-09 1.0041e-08 -0.00099997)
(-7.8401e-09 9.99997e-09 -0.000999972)
(-9.90913e-09 9.95671e-09 -0.000999975)
(-1.09522e-08 9.93531e-09 -0.000999978)
(-1.73054e-09 3.46089e-09 -0.000999966)
(-5.03683e-09 3.45562e-09 -0.000999968)
(-7.85551e-09 3.4405e-09 -0.00099997)
(-9.91027e-09 3.42533e-09 -0.000999972)
(-1.09508e-08 3.42037e-09 -0.000999976)
(-2.29807e-09 2.96395e-08 -0.00099998)
(-6.67154e-09 2.96658e-08 -0.000999981)
(-1.04025e-08 2.95925e-08 -0.000999984)
(-1.31612e-08 2.94833e-08 -0.000999988)
(-1.46457e-08 2.93359e-08 -0.000999992)
(-2.31652e-09 2.67805e-08 -0.000999971)
(-6.74225e-09 2.67921e-08 -0.000999972)
(-1.05301e-08 2.66905e-08 -0.000999975)
(-1.3324e-08 2.65538e-08 -0.000999979)
(-1.47616e-08 2.64016e-08 -0.000999983)
(-2.3384e-09 2.12621e-08 -0.000999963)
(-6.81428e-09 2.12577e-08 -0.000999964)
(-1.06416e-08 2.11717e-08 -0.000999967)
(-1.34501e-08 2.10699e-08 -0.000999971)
(-1.48717e-08 2.09746e-08 -0.000999976)
(-2.36195e-09 1.36547e-08 -0.000999957)
(-6.87423e-09 1.36393e-08 -0.000999959)
(-1.07181e-08 1.35861e-08 -0.000999962)
(-1.35207e-08 1.35286e-08 -0.000999965)
(-1.49379e-08 1.34892e-08 -0.00099997)
(-2.37555e-09 4.6971e-09 -0.000999954)
(-6.89632e-09 4.688e-09 -0.000999956)
(-1.07317e-08 4.67106e-09 -0.000999959)
(-1.35206e-08 4.65404e-09 -0.000999963)
(-1.4944e-08 4.64514e-09 -0.000999967)
(-3.12664e-09 4.04684e-08 -0.000999972)
(-9.10156e-09 4.04833e-08 -0.000999974)
(-1.42088e-08 4.03512e-08 -0.000999978)
(-1.79369e-08 4.01889e-08 -0.000999983)
(-1.9997e-08 4.00139e-08 -0.00099999)
(-3.16847e-09 3.65249e-08 -0.00099996)
(-9.22971e-09 3.65122e-08 -0.000999962)
(-1.44029e-08 3.63609e-08 -0.000999966)
(-1.81748e-08 3.61721e-08 -0.000999971)
(-2.01416e-08 3.59486e-08 -0.000999977)
(-3.20984e-09 2.89667e-08 -0.000999949)
(-9.33733e-09 2.89483e-08 -0.000999951)
(-1.455e-08 2.88411e-08 -0.000999955)
(-1.83493e-08 2.87108e-08 -0.000999961)
(-2.02893e-08 2.85692e-08 -0.000999967)
(-3.24275e-09 1.8587e-08 -0.000999942)
(-9.41197e-09 1.85749e-08 -0.000999944)
(-1.46407e-08 1.85173e-08 -0.000999948)
(-1.84461e-08 1.84473e-08 -0.000999953)
(-2.03871e-08 1.838e-08 -0.000999959)
(-3.25144e-09 6.39051e-09 -0.000999938)
(-9.4252e-09 6.38791e-09 -0.00099994)
(-1.46495e-08 6.37176e-09 -0.000999944)
(-1.84505e-08 6.35123e-09 -0.000999949)
(-2.04053e-08 6.33195e-09 -0.000999955)
(-4.28351e-09 5.52506e-08 -0.000999963)
(-1.24791e-08 5.52519e-08 -0.000999965)
(-1.94637e-08 5.50647e-08 -0.000999971)
(-2.45019e-08 5.4835e-08 -0.000999978)
(-2.72602e-08 5.46015e-08 -0.000999986)
(-4.34859e-09 4.98251e-08 -0.000999946)
(-1.26505e-08 4.98024e-08 -0.000999948)
(-1.97009e-08 4.96238e-08 -0.000999954)
(-2.48064e-08 4.9393e-08 -0.000999961)
(-2.74743e-08 4.90918e-08 -0.000999969)
(-4.40234e-09 3.95149e-08 -0.000999931)
(-1.27782e-08 3.95044e-08 -0.000999934)
(-1.98745e-08 3.93835e-08 -0.000999939)
(-2.50339e-08 3.92181e-08 -0.000999946)
(-2.76925e-08 3.90116e-08 -0.000999955)
(-4.43515e-09 2.53685e-08 -0.000999921)
(-1.28591e-08 2.53747e-08 -0.000999923)
(-1.99878e-08 2.53044e-08 -0.000999929)
(-2.51775e-08 2.52047e-08 -0.000999936)
(-2.78488e-08 2.5086e-08 -0.000999945)
(-4.43639e-09 8.72846e-09 -0.000999915)
(-1.2867e-08 8.73553e-09 -0.000999918)
(-2.00063e-08 8.71301e-09 -0.000999923)
(-2.52031e-08 8.67893e-09 -0.000999931)
(-2.7885e-08 8.63918e-09 -0.000999939)
(-5.87564e-09 7.54701e-08 -0.000999949)
(-1.7098e-08 7.54667e-08 -0.000999953)
(-2.66151e-08 7.52154e-08 -0.00099996)
(-3.34459e-08 7.48799e-08 -0.00099997)
(-3.71473e-08 7.453e-08 -0.000999981)
(-5.95605e-09 6.80539e-08 -0.000999926)
(-1.7303e-08 6.80438e-08 -0.00099993)
(-2.69112e-08 6.78291e-08 -0.000999937)
(-3.38538e-08 6.75191e-08 -0.000999947)
(-3.74913e-08 6.71017e-08 -0.000999958)
(-6.01693e-09 5.40037e-08 -0.000999906)
(-1.74563e-08 5.40106e-08 -0.00099991)
(-2.71418e-08 5.38485e-08 -0.000999917)
(-3.41732e-08 5.36104e-08 -0.000999927)
(-3.78244e-08 5.33046e-08 -0.000999939)
(-6.05315e-09 3.46977e-08 -0.000999892)
(-1.75636e-08 3.47107e-08 -0.000999895)
(-2.73121e-08 3.45997e-08 -0.000999903)
(-3.43966e-08 3.44448e-08 -0.000999913)
(-3.80695e-08 3.4259e-08 -0.000999925)
(-6.05909e-09 1.19464e-08 -0.000999884)
(-1.75882e-08 1.19518e-08 -0.000999888)
(-2.73555e-08 1.19116e-08 -0.000999895)
(-3.4447e-08 1.18567e-08 -0.000999905)
(-3.81257e-08 1.17956e-08 -0.000999917)
(-8.03181e-09 1.03156e-07 -0.000999931)
(-2.33512e-08 1.03144e-07 -0.000999936)
(-3.63159e-08 1.0278e-07 -0.000999946)
(-4.56194e-08 1.02265e-07 -0.000999959)
(-5.06299e-08 1.01704e-07 -0.000999975)
(-8.13545e-09 9.30619e-08 -0.000999899)
(-2.36259e-08 9.30564e-08 -0.000999904)
(-3.67413e-08 9.27422e-08 -0.000999914)
(-4.62194e-08 9.22735e-08 -0.000999928)
(-5.11962e-08 9.16618e-08 -0.000999943)
(-8.21654e-09 7.38919e-08 -0.000999872)
(-2.38533e-08 7.38928e-08 -0.000999877)
(-3.71015e-08 7.36317e-08 -0.000999887)
(-4.66998e-08 7.32632e-08 -0.000999901)
(-5.17082e-08 7.28113e-08 -0.000999917)
(-8.27663e-09 4.7489e-08 -0.000999852)
(-2.40302e-08 4.74818e-08 -0.000999857)
(-3.73718e-08 4.73031e-08 -0.000999867)
(-4.70383e-08 4.70686e-08 -0.000999881)
(-5.20812e-08 4.67925e-08 -0.000999897)
(-8.29911e-09 1.63499e-08 -0.000999842)
(-2.40855e-08 1.6343e-08 -0.000999847)
(-3.74435e-08 1.62808e-08 -0.000999857)
(-4.71191e-08 1.62007e-08 -0.000999871)
(-5.21767e-08 1.61105e-08 -0.000999887)
(-1.09596e-08 1.41075e-07 -0.000999907)
(-3.18429e-08 1.41035e-07 -0.000999914)
(-4.952e-08 1.40459e-07 -0.000999927)
(-6.2255e-08 1.39643e-07 -0.000999945)
(-6.90086e-08 1.38727e-07 -0.000999966)
(-1.1109e-08 1.27351e-07 -0.000999863)
(-3.22647e-08 1.27315e-07 -0.00099987)
(-5.01906e-08 1.268e-07 -0.000999883)
(-6.31561e-08 1.26064e-07 -0.000999902)
(-6.99439e-08 1.25162e-07 -0.000999923)
(-1.12406e-08 1.01158e-07 -0.000999825)
(-3.26429e-08 1.01116e-07 -0.000999832)
(-5.07743e-08 1.00688e-07 -0.000999846)
(-6.38936e-08 1.00111e-07 -0.000999865)
(-7.0753e-08 9.94242e-08 -0.000999887)
(-1.13455e-08 6.50098e-08 -0.000999798)
(-3.29313e-08 6.49718e-08 -0.000999805)
(-5.11962e-08 6.46986e-08 -0.000999819)
(-6.4418e-08 6.43324e-08 -0.000999838)
(-7.1338e-08 6.38895e-08 -0.00099986)
(-1.13815e-08 2.23768e-08 -0.000999784)
(-3.30174e-08 2.23622e-08 -0.000999791)
(-5.13165e-08 2.22718e-08 -0.000999805)
(-6.45779e-08 2.21455e-08 -0.000999824)
(-7.15268e-08 2.19899e-08 -0.000999847)
(-1.49443e-08 1.9304e-07 -0.000999873)
(-4.34143e-08 1.92921e-07 -0.000999882)
(-6.75502e-08 1.91991e-07 -0.0009999)
(-8.50116e-08 1.90696e-07 -0.000999925)
(-9.4065e-08 1.89215e-07 -0.000999954)
(-1.51844e-08 1.74376e-07 -0.000999813)
(-4.41075e-08 1.74251e-07 -0.000999822)
(-6.86245e-08 1.73406e-07 -0.000999841)
(-8.63651e-08 1.72256e-07 -0.000999866)
(-9.55725e-08 1.70906e-07 -0.000999896)
(-1.54034e-08 1.38552e-07 -0.000999762)
(-4.47246e-08 1.38436e-07 -0.000999771)
(-6.95506e-08 1.37757e-07 -0.00099979)
(-8.75117e-08 1.36841e-07 -0.000999816)
(-9.68832e-08 1.35757e-07 -0.000999846)
(-1.55659e-08 8.90581e-08 -0.000999724)
(-4.51719e-08 8.89893e-08 -0.000999734)
(-7.02216e-08 8.85574e-08 -0.000999753)
(-8.8362e-08 8.79522e-08 -0.000999779)
(-9.78366e-08 8.72231e-08 -0.00099981)
(-1.56129e-08 3.06584e-08 -0.000999705)
(-4.53119e-08 3.06406e-08 -0.000999715)
(-7.04545e-08 3.04926e-08 -0.000999734)
(-8.8675e-08 3.02758e-08 -0.00099976)
(-9.81846e-08 3.00127e-08 -0.000999791)
(-2.0385e-08 2.64254e-07 -0.000999827)
(-5.92421e-08 2.63979e-07 -0.00099984)
(-9.22004e-08 2.62523e-07 -0.000999865)
(-1.16023e-07 2.6052e-07 -0.000999898)
(-1.28261e-07 2.58172e-07 -0.000999938)
(-2.07823e-08 2.38874e-07 -0.000999745)
(-6.03656e-08 2.38592e-07 -0.000999758)
(-9.38941e-08 2.3725e-07 -0.000999783)
(-1.18128e-07 2.35439e-07 -0.000999818)
(-1.30627e-07 2.33311e-07 -0.000999858)
(-2.11248e-08 1.89899e-07 -0.000999674)
(-6.13322e-08 1.89674e-07 -0.000999687)
(-9.53605e-08 1.88596e-07 -0.000999713)
(-1.19963e-07 1.87113e-07 -0.000999749)
(-1.32736e-07 1.85369e-07 -0.00099979)
(-2.13694e-08 1.2213e-07 -0.000999623)
(-6.20371e-08 1.21994e-07 -0.000999636)
(-9.6458e-08 1.21279e-07 -0.000999662)
(-1.21351e-07 1.20283e-07 -0.000999699)
(-1.34289e-07 1.19118e-07 -0.000999741)
(-2.14533e-08 4.20596e-08 -0.000999596)
(-6.23016e-08 4.20157e-08 -0.00099961)
(-9.68892e-08 4.17599e-08 -0.000999636)
(-1.2189e-07 4.14043e-08 -0.000999673)
(-1.34879e-07 4.09922e-08 -0.000999715)
(-2.78649e-08 3.61877e-07 -0.000999765)
(-8.09547e-08 3.61367e-07 -0.000999782)
(-1.25879e-07 3.59138e-07 -0.000999816)
(-1.58217e-07 3.56055e-07 -0.000999862)
(-1.74972e-07 3.52416e-07 -0.000999916)
(-2.84765e-08 3.27413e-07 -0.000999652)
(-8.26888e-08 3.26904e-07 -0.000999669)
(-1.28536e-07 3.24804e-07 -0.000999704)
(-1.61595e-07 3.21904e-07 -0.000999752)
(-1.78652e-07 3.18447e-07 -0.000999807)
(-2.89999e-08 2.60512e-07 -0.000999555)
(-8.42018e-08 2.60092e-07 -0.000999573)
(-1.30889e-07 2.58357e-07 -0.000999608)
(-1.64574e-07 2.5596e-07 -0.000999657)
(-1.81984e-07 2.53139e-07 -0.000999714)
(-2.93929e-08 1.6765e-07 -0.000999484)
(-8.53484e-08 1.67355e-07 -0.000999502)
(-1.32671e-07 1.66191e-07 -0.000999538)
(-1.66808e-07 1.64601e-07 -0.000999588)
(-1.84475e-07 1.62738e-07 -0.000999647)
(-2.95584e-08 5.77507e-08 -0.000999447)
(-8.58232e-08 5.76399e-08 -0.000999466)
(-1.33393e-07 5.72279e-08 -0.000999502)
(-1.67707e-07 5.66716e-08 -0.000999553)
(-1.85476e-07 5.60171e-08 -0.000999611)
(-3.81269e-08 4.9587e-07 -0.00099968)
(-1.10668e-07 4.94981e-07 -0.000999704)
(-1.71874e-07 4.91524e-07 -0.00099975)
(-2.1581e-07 4.86723e-07 -0.000999813)
(-2.38709e-07 4.81117e-07 -0.000999886)
(-3.90465e-08 4.4919e-07 -0.000999524)
(-1.13341e-07 4.48296e-07 -0.000999549)
(-1.76071e-07 4.44974e-07 -0.000999596)
(-2.21186e-07 4.40347e-07 -0.000999661)
(-2.4448e-07 4.34831e-07 -0.000999738)
(-3.98766e-08 3.57781e-07 -0.00099939)
(-1.15756e-07 3.56985e-07 -0.000999415)
(-1.79836e-07 3.54209e-07 -0.000999465)
(-2.25954e-07 3.50388e-07 -0.000999532)
(-2.4972e-07 3.45857e-07 -0.000999611)
(-4.05218e-08 2.30393e-07 -0.000999293)
(-1.17604e-07 2.29831e-07 -0.000999318)
(-1.82673e-07 2.27992e-07 -0.000999368)
(-2.2953e-07 2.25464e-07 -0.000999437)
(-2.537e-07 2.22451e-07 -0.000999518)
(-4.07993e-08 7.93817e-08 -0.000999242)
(-1.18379e-07 7.9179e-08 -0.000999268)
(-1.83859e-07 7.85411e-08 -0.000999319)
(-2.31056e-07 7.76546e-08 -0.000999388)
(-2.554e-07 7.6588e-08 -0.00099947)
(-5.21442e-08 6.79978e-07 -0.000999565)
(-1.51281e-07 6.7841e-07 -0.000999597)
(-2.34792e-07 6.72995e-07 -0.00099966)
(-2.94607e-07 6.655e-07 -0.000999746)
(-3.25522e-07 6.56779e-07 -0.000999847)
(-5.3591e-08 6.1696e-07 -0.00099935)
(-1.55494e-07 6.15347e-07 -0.000999384)
(-2.41387e-07 6.1009e-07 -0.000999449)
(-3.02982e-07 6.02813e-07 -0.000999539)
(-3.34657e-07 5.94175e-07 -0.000999643)
(-5.49288e-08 4.92053e-07 -0.000999165)
(-1.59347e-07 4.90622e-07 -0.0009992)
(-2.47345e-07 4.8622e-07 -0.000999268)
(-3.10522e-07 4.80147e-07 -0.000999361)
(-3.42969e-07 4.72924e-07 -0.000999469)
(-5.59532e-08 3.1717e-07 -0.00099903)
(-1.62274e-07 3.16203e-07 -0.000999065)
(-2.51868e-07 3.13274e-07 -0.000999135)
(-3.16268e-07 3.09199e-07 -0.000999231)
(-3.49334e-07 3.04351e-07 -0.000999342)
(-5.63893e-08 1.09342e-07 -0.00099896)
(-1.63546e-07 1.09009e-07 -0.000998995)
(-2.53879e-07 1.0798e-07 -0.000999066)
(-3.18843e-07 1.06535e-07 -0.000999163)
(-3.52166e-07 1.04821e-07 -0.000999276)
(-7.13629e-08 9.33134e-07 -0.000999408)
(-2.06963e-07 9.3043e-07 -0.000999453)
(-3.2098e-07 9.22007e-07 -0.000999539)
(-4.02348e-07 9.10358e-07 -0.000999657)
(-4.43719e-07 8.96666e-07 -0.000999794)
(-7.36616e-08 8.48505e-07 -0.000999112)
(-2.13596e-07 8.45682e-07 -0.000999159)
(-3.31268e-07 8.37395e-07 -0.000999249)
(-4.15369e-07 8.25954e-07 -0.000999372)
(-4.58215e-07 8.12405e-07 -0.000999516)
(-7.579e-08 6.78032e-07 -0.000998856)
(-2.19712e-07 6.75559e-07 -0.000998904)
(-3.40734e-07 6.68519e-07 -0.000998999)
(-4.27339e-07 6.58788e-07 -0.000999127)
(-4.71489e-07 6.47298e-07 -0.000999277)
(-7.74128e-08 4.37733e-07 -0.000998667)
(-2.24411e-07 4.36048e-07 -0.000998717)
(-3.48048e-07 4.31272e-07 -0.000998814)
(-4.36576e-07 4.24683e-07 -0.000998947)
(-4.81678e-07 4.16954e-07 -0.000999102)
(-7.81536e-08 1.51046e-07 -0.000998569)
(-2.26591e-07 1.50446e-07 -0.000998619)
(-3.51452e-07 1.48743e-07 -0.000998718)
(-4.4083e-07 1.46407e-07 -0.000998853)
(-4.86341e-07 1.43687e-07 -0.000999011)
(-9.78134e-08 1.28167e-06 -0.000999196)
(-2.83463e-07 1.27714e-06 -0.000999258)
(-4.39053e-07 1.26406e-06 -0.000999377)
(-5.4952e-07 1.24595e-06 -0.000999538)
(-6.04656e-07 1.22446e-06 -0.000999725)
(-1.01429e-07 1.16899e-06 -0.000998787)
(-2.93887e-07 1.16417e-06 -0.000998852)
(-4.55214e-07 1.151e-06 -0.000998977)
(-5.69953e-07 1.13284e-06 -0.000999147)
(-6.27582e-07 1.11144e-06 -0.000999344)
(-1.04833e-07 9.36757e-07 -0.000998431)
(-3.03707e-07 9.32448e-07 -0.000998498)
(-4.70427e-07 9.21025e-07 -0.00099863)
(-5.89084e-07 9.05346e-07 -0.000998808)
(-6.48812e-07 8.87017e-07 -0.000999016)
(-1.07493e-07 6.0607e-07 -0.000998167)
(-3.11408e-07 6.03043e-07 -0.000998236)
(-4.82328e-07 5.95218e-07 -0.000998373)
(-6.03941e-07 5.8457e-07 -0.000998559)
(-6.65197e-07 5.72188e-07 -0.000998774)
(-1.08793e-07 2.09375e-07 -0.000998029)
(-3.15135e-07 2.0827e-07 -0.0009981)
(-4.88009e-07 2.05482e-07 -0.000998239)
(-6.10977e-07 2.01718e-07 -0.000998428)
(-6.72942e-07 1.97348e-07 -0.000998648)
(-1.34252e-07 1.76227e-06 -0.000998912)
(-3.88644e-07 1.75473e-06 -0.000998997)
(-6.00811e-07 1.7343e-06 -0.00099916)
(-7.50265e-07 1.70606e-06 -0.000999381)
(-8.23352e-07 1.67251e-06 -0.000999634)
(-1.39991e-07 1.61424e-06 -0.000998344)
(-4.052e-07 1.60596e-06 -0.000998434)
(-6.26445e-07 1.58476e-06 -0.000998608)
(-7.82545e-07 1.55571e-06 -0.000998842)
(-8.59538e-07 1.52169e-06 -0.000999113)
(-1.45554e-07 1.29862e-06 -0.000997845)
(-4.21211e-07 1.29103e-06 -0.00099794)
(-6.51104e-07 1.27233e-06 -0.000998125)
(-8.13333e-07 1.2469e-06 -0.000998373)
(-8.93649e-07 1.21734e-06 -0.00099866)
(-1.5e-07 8.4268e-07 -0.000997473)
(-4.33959e-07 8.37299e-07 -0.000997572)
(-6.70597e-07 8.24417e-07 -0.000997765)
(-8.37511e-07 8.06993e-07 -0.000998026)
(-9.20291e-07 7.86808e-07 -0.000998326)
(-1.52223e-07 2.91571e-07 -0.000997277)
(-4.40271e-07 2.89619e-07 -0.000997378)
(-6.80182e-07 2.85032e-07 -0.000997576)
(-8.49379e-07 2.78836e-07 -0.000997843)
(-9.33326e-07 2.71659e-07 -0.00099815)
(-1.84568e-07 2.42602e-06 -0.000998532)
(-5.33454e-07 2.41345e-06 -0.00099865)
(-8.22329e-07 2.38133e-06 -0.000998874)
(-1.02335e-06 2.33716e-06 -0.000999175)
(-1.11931e-06 2.28479e-06 -0.000999518)
(-1.93815e-07 2.23563e-06 -0.000997742)
(-5.60049e-07 2.22129e-06 -0.000997868)
(-8.63295e-07 2.18684e-06 -0.00099811)
(-1.07469e-06 2.13999e-06 -0.000998433)
(-1.17667e-06 2.08537e-06 -0.000998803)
(-2.03064e-07 1.8085e-06 -0.000997038)
(-5.86504e-07 1.79508e-06 -0.000997173)
(-9.03698e-07 1.76408e-06 -0.000997433)
(-1.12482e-06 1.72224e-06 -0.000997781)
(-1.23199e-06 1.67388e-06 -0.000998178)
(-2.10571e-07 1.1785e-06 -0.000996506)
(-6.07886e-07 1.16894e-06 -0.000996649)
(-9.36162e-07 1.14733e-06 -0.000996924)
(-1.16485e-06 1.11827e-06 -0.000997292)
(-1.2758e-06 1.08487e-06 -0.000997713)
(-2.14405e-07 4.087e-07 -0.000996225)
(-6.18789e-07 4.05243e-07 -0.000996372)
(-9.52679e-07 3.97491e-07 -0.000996655)
(-1.18513e-06 3.8708e-07 -0.000997034)
(-1.29787e-06 3.75152e-07 -0.000997466)
(-2.54261e-07 3.34429e-06 -0.00099803)
(-7.33117e-07 3.3232e-06 -0.000998194)
(-1.12537e-06 3.27234e-06 -0.000998503)
(-1.39368e-06 3.2029e-06 -0.000998911)
(-1.51773e-06 3.1209e-06 -0.000999373)
(-2.69395e-07 3.10816e-06 -0.000996926)
(-7.76389e-07 3.08308e-06 -0.000997104)
(-1.19148e-06 3.02627e-06 -0.000997442)
(-1.47602e-06 2.94977e-06 -0.000997888)
(-1.60932e-06 2.86125e-06 -0.000998394)
(-2.8507e-07 2.53419e-06 -0.000995923)
(-8.20894e-07 2.51017e-06 -0.000996117)
(-1.25878e-06 2.45773e-06 -0.000996487)
(-1.55871e-06 2.38775e-06 -0.000996975)
(-1.69983e-06 2.30784e-06 -0.000997527)
(-2.98049e-07 1.66128e-06 -0.000995153)
(-8.57604e-07 1.64394e-06 -0.000995363)
(-1.31393e-06 1.60683e-06 -0.00099576)
(-1.62586e-06 1.55759e-06 -0.000996284)
(-1.77246e-06 1.50187e-06 -0.000996874)
(-3.04896e-07 5.77968e-07 -0.000994742)
(-8.76897e-07 5.71653e-07 -0.000994959)
(-1.34277e-06 5.58267e-07 -0.000995371)
(-1.6607e-06 5.40546e-07 -0.000995914)
(-1.80987e-06 5.20594e-07 -0.000996525)
(-3.51202e-07 4.61667e-06 -0.000997379)
(-1.00904e-06 4.58086e-06 -0.000997609)
(-1.53933e-06 4.49948e-06 -0.000998034)
(-1.89365e-06 4.38968e-06 -0.000998586)
(-2.05021e-06 4.26095e-06 -0.000999203)
(-3.7649e-07 4.34304e-06 -0.000995827)
(-1.08065e-06 4.29834e-06 -0.000996083)
(-1.64735e-06 4.2029e-06 -0.000996558)
(-2.02663e-06 4.07619e-06 -0.000997173)