/*--------------------------------*- C++ -*----------------------------------*\
  =========                 |
  \\      /  F ield         | OpenFOAM: The Open Source CFD Toolbox
   \\    /   O peration     | Website:  https://openfoam.org
    \\  /    A nd           | Version:  9
     \\/     M anipulation  |
\*---------------------------------------------------------------------------*/
FoamFile
{
    format      ascii;
    class       volVectorField;
    location    "500";
    object      stored_U;
}
// * * * * * * * * * * * * * * * * * * * * * * * * * * * * * * * * * * * * * //

dimensions      [0 1 -1 0 0 0 0];

internalField   nonuniform List<vector> 
360
(
(0.0367196 -0.122749 -4.79438)
(0.0228692 -0.1226 -4.6207)
(0.0906029 -0.026413 -5.35174)
(0.0647076 -0.0640813 -5.17094)
(0.0379576 -0.130045 -4.77786)
(0.0237369 -0.129174 -4.58785)
(0.0959692 -0.0274007 -5.37366)
(0.0685481 -0.0672703 -5.16818)
(0.0395312 -0.139638 -4.7723)
(0.0275382 -0.137476 -4.56403)
(0.103316 -0.0301198 -5.41781)
(0.074361 -0.0719883 -5.17629)
(0.0408583 -0.147906 -4.76009)
(0.0301199 -0.144588 -4.5344)
(0.10959 -0.0311953 -5.44876)
(0.0795816 -0.075872 -5.17809)
(0.0421498 -0.15641 -4.75003)
(0.0330851 -0.151673 -4.50544)
(0.116259 -0.0321857 -5.48868)
(0.0851671 -0.0796667 -5.18187)
(0.043311 -0.164432 -4.73808)
(0.0357669 -0.158159 -4.47397)
(0.122592 -0.0323366 -5.52688)
(0.0907164 -0.083015 -5.18486)
(0.0443966 -0.172341 -4.72634)
(0.0384142 -0.164216 -4.44163)
(0.129002 -0.0320733 -5.56924)
(0.0964523 -0.086041 -5.18778)
(0.0453969 -0.179951 -4.7139)
(0.0409217 -0.169722 -4.4078)
(0.135246 -0.0311723 -5.61232)
(0.102256 -0.0887048 -5.19035)
(0.0463428 -0.187368 -4.70129)
(0.0433349 -0.174624 -4.3729)
(0.141555 -0.0297979 -5.65798)
(0.108191 -0.0909656 -5.1924)
(0.0472432 -0.194515 -4.68833)
(0.0456477 -0.178955 -4.33693)
(0.147756 -0.0278742 -5.70504)
(0.114114 -0.0926974 -5.19393)
(0.0481251 -0.201417 -4.67522)
(0.0478664 -0.182684 -4.3001)
(0.153887 -0.0254835 -5.75408)
(0.11979 -0.0940712 -5.19473)
(0.0490049 -0.208028 -4.66194)
(0.0499904 -0.185842 -4.26245)
(0.159847 -0.0226356 -5.8045)
(0.124178 -0.0951825 -5.19653)
(0.0499202 -0.214309 -4.6486)
(0.0521096 -0.188853 -4.22406)
(0.165261 -0.0193748 -5.85645)
(0.129794 -0.096841 -5.19472)
(0.0509333 -0.220218 -4.63527)
(0.0542323 -0.191581 -4.18501)
(0.170261 -0.0157198 -5.90979)
(0.134734 -0.0982352 -5.19616)
(0.0520993 -0.22571 -4.62203)
(0.0563908 -0.193891 -4.14514)
(0.175005 -0.0117409 -5.96435)
(0.140055 -0.0998861 -5.19166)
(0.0534744 -0.230737 -4.60898)
(0.0586324 -0.19567 -4.10464)
(0.179569 -0.007512 -6.02005)
(0.145002 -0.100916 -5.19107)
(0.055126 -0.235243 -4.59622)
(0.0610208 -0.196744 -4.06345)
(0.184114 -0.00310149 -6.07677)
(0.150059 -0.101683 -5.18804)
(0.0571091 -0.23918 -4.58386)
(0.0636016 -0.197168 -4.02167)
(0.188621 0.00139475 -6.13444)
(0.155081 -0.102328 -5.18458)
(0.0594805 -0.242498 -4.57202)
(0.0664239 -0.196932 -3.97929)
(0.193172 0.00587766 -6.19302)
(0.160136 -0.102812 -5.18021)
(0.0622858 -0.245152 -4.56081)
(0.0695287 -0.196036 -3.93635)
(0.197832 0.0102313 -6.25245)
(0.165244 -0.103185 -5.17493)
(0.0655611 -0.247105 -4.55038)
(0.0729519 -0.194469 -3.89284)
(0.20269 0.0143378 -6.31271)
(0.170446 -0.103439 -5.16861)
(0.0693289 -0.248325 -4.54082)
(0.0767218 -0.192216 -3.84876)
(0.207838 0.0180755 -6.3738)
(0.175783 -0.103569 -5.16116)
(0.0735978 -0.248786 -4.53227)
(0.0808591 -0.189258 -3.80411)
(0.213363 0.0213244 -6.43573)
(0.181296 -0.103546 -5.15243)
(0.0783598 -0.248469 -4.52484)
(0.0853757 -0.185571 -3.75888)
(0.219341 0.0239689 -6.49854)
(0.187022 -0.103328 -5.14228)
(0.0835899 -0.247363 -4.51862)
(0.0902751 -0.18113 -3.7131)
(0.225821 0.0259024 -6.56228)
(0.192997 -0.102861 -5.13053)
(0.0892461 -0.245468 -4.5137)
(0.0955518 -0.175908 -3.66677)
(0.23282 0.02703 -6.62704)
(0.199247 -0.102076 -5.11702)
(0.0952702 -0.242791 -4.51017)
(0.101192 -0.169878 -3.61994)
(0.240313 0.0272724 -6.69288)
(0.20579 -0.100899 -5.10154)
(0.101589 -0.239351 -4.50807)
(0.107174 -0.163017 -3.57265)
(0.24822 0.0265677 -6.75991)
(0.212637 -0.0992483 -5.08389)
(0.108117 -0.235177 -4.50747)
(0.113469 -0.15531 -3.52499)
(0.256411 0.0248733 -6.8282)
(0.219785 -0.0970432 -5.06387)
(0.114759 -0.230308 -4.50837)
(0.120042 -0.14675 -3.47704)
(0.264695 0.0221658 -6.89783)
(0.227222 -0.0942044 -5.04128)
(0.121412 -0.224797 -4.51079)
(0.126856 -0.137341 -3.42893)
(0.272832 0.018441 -6.96886)
(0.234924 -0.09066 -5.01594)
(0.127972 -0.218706 -4.51472)
(0.133868 -0.127104 -3.38079)
(0.280534 0.0137121 -7.04132)
(0.24286 -0.0863495 -4.98769)
(0.134334 -0.212107 -4.52012)
(0.141034 -0.116078 -3.33278)
(0.287479 0.00800708 -7.11523)
(0.250986 -0.0812279 -4.95639)
(0.140396 -0.205085 -4.52696)
(0.148312 -0.104323 -3.28508)
(0.293327 0.00136615 -7.19054)
(0.259253 -0.0752697 -4.92195)
(0.146061 -0.19773 -4.53515)
(0.155659 -0.09192 -3.23786)
(0.297733 -0.00616201 -7.2672)
(0.267606 -0.0684729 -4.88431)
(0.151241 -0.190144 -4.54463)
(0.163036 -0.0789749 -3.19131)
(0.300369 -0.0145234 -7.34512)
(0.275986 -0.060862 -4.84347)
(0.155859 -0.182433 -4.55529)
(0.170408 -0.0656174 -3.14562)
(0.300935 -0.0236616 -7.42416)
(0.28433 -0.0524909 -4.79947)
(0.159849 -0.17471 -4.56701)
(0.177743 -0.0520013 -3.10096)
(0.299181 -0.0335211 -7.50419)
(0.292575 -0.043445 -4.75239)
(0.163157 -0.167088 -4.57966)
(0.185015 -0.0383036 -3.0575)
(0.294909 -0.0440476 -7.585)
(0.300652 -0.0338428 -4.70239)
(0.165744 -0.159682 -4.5931)
(0.192205 -0.0247219 -3.01539)
(0.28799 -0.0551888 -7.66642)
(0.30849 -0.0238346 -4.64965)
(0.167583 -0.152604 -4.60718)
(0.199298 -0.01147 -2.97472)
(0.278359 -0.0668931 -7.74825)
(0.316015 -0.0135984 -4.59442)
(0.168666 -0.14596 -4.62172)
(0.206291 0.00121857 -2.93551)
(0.266023 -0.0791082 -7.83028)
(0.323145 -0.00334338 -4.53704)
(0.169014 -0.139848 -4.63654)
(0.213199 0.0130874 -2.89778)
(0.251048 -0.0917779 -7.91229)
(0.329792 0.0066824 -4.47789)
(0.168673 -0.134349 -4.65149)
(0.220051 0.0238723 -2.86177)
(0.23355 -0.104836 -7.99409)
(0.335854 0.0162027 -4.41719)
(0.16769 -0.129521 -4.6664)
(0.226788 0.0333919 -2.82722)
(0.213702 -0.1182 -8.07548)
(0.341288 0.0249792 -4.35549)
(0.166076 -0.125394 -4.68111)
(0.233275 0.0416219 -2.79381)
(0.191745 -0.131765 -8.15626)
(0.346117 0.0328886 -4.2934)
(0.16381 -0.121967 -4.69545)
(0.239397 0.048635 -2.76151)
(0.167978 -0.145405 -8.23627)
(0.350375 0.0399227 -4.23137)
(0.160872 -0.119217 -4.70926)
(0.245059 0.054516 -2.7302)
(0.142731 -0.15897 -8.31537)
(0.354096 0.0461315 -4.16978)
(0.157255 -0.117097 -4.72236)
(0.250195 0.0593351 -2.69981)
(0.116343 -0.172299 -8.39341)
(0.357297 0.051579 -4.10903)
(0.152973 -0.115545 -4.73461)
(0.254756 0.0631534 -2.67028)
(0.0891407 -0.18523 -8.47029)
(0.359985 0.0563319 -4.04944)
(0.148059 -0.114486 -4.74588)
(0.258715 0.0660242 -2.64154)
(0.0614298 -0.197604 -8.54589)
(0.362162 0.0604541 -3.99131)
(0.142563 -0.113838 -4.75607)
(0.262062 0.067992 -2.61357)
(0.0334826 -0.209283 -8.62011)
(0.363819 0.0639991 -3.93488)
(0.136553 -0.113516 -4.76508)
(0.264803 0.0690951 -2.58634)
(0.00553161 -0.220152 -8.69285)
(0.364948 0.0670096 -3.88038)
(0.130111 -0.113438 -4.77285)
(0.266958 0.0693657 -2.5598)
(-0.0222313 -0.230131 -8.76401)
(0.36554 0.0695183 -3.82799)
(0.123326 -0.11353 -4.77937)
(0.268558 0.0688312 -2.53392)
(-0.0496515 -0.239177 -8.83349)
(0.365592 0.07155 -3.77788)
(0.116293 -0.113728 -4.7846)
(0.269645 0.0675188 -2.50866)
(-0.0766014 -0.247282 -8.90118)
(0.365108 0.073124 -3.73023)
(0.109107 -0.113986 -4.78855)
(0.270264 0.0654568 -2.48396)
(-0.102973 -0.254471 -8.96699)
(0.36411 0.0742632 -3.68516)
(0.101863 -0.114272 -4.79125)
(0.270468 0.0626738 -2.45975)
(-0.128674 -0.2608 -9.03086)
(0.362631 0.0749938 -3.64281)
(0.0946491 -0.114567 -4.79271)
(0.270308 0.0592009 -2.43596)
(-0.153618 -0.266347 -9.09269)
(0.360716 0.0753474 -3.60328)
(0.0875471 -0.114866 -4.79299)
(0.269834 0.0550747 -2.41252)
(-0.177722 -0.271201 -9.15247)
(0.358417 0.0753638 -3.56667)
(0.0806287 -0.115172 -4.79212)
(0.269096 0.0503385 -2.38932)
(-0.200902 -0.27546 -9.21015)
(0.3558 0.0750939 -3.53305)
(0.0739571 -0.115497 -4.79013)
(0.268142 0.0450441 -2.3663)
(-0.223073 -0.279228 -9.26574)
(0.352941 0.0745987 -3.50246)
(0.0675834 -0.115858 -4.78707)
(0.267022 0.0392626 -2.34336)
(-0.244148 -0.282606 -9.31928)
(0.349929 0.0739545 -3.47493)
(0.0615456 -0.116277 -4.78299)
(0.265767 0.0330819 -2.32044)
(-0.264046 -0.285692 -9.37081)
(0.346862 0.0732529 -3.45044)
(0.0558696 -0.116776 -4.7779)
(0.264404 0.0266062 -2.29739)
(-0.2827 -0.28858 -9.42043)
(0.343853 0.0725991 -3.42895)
(0.0505678 -0.117378 -4.77182)
(0.262936 0.0199435 -2.27412)
(-0.300056 -0.291358 -9.46825)
(0.341027 0.07211 -3.4104)
(0.0456453 -0.118103 -4.76476)
(0.261339 0.0131801 -2.25076)
(-0.316093 -0.294106 -9.5144)
(0.338515 0.0718995 -3.39466)
(0.041101 -0.11897 -4.75673)
(0.259649 0.00642954 -2.22724)
(-0.330817 -0.296893 -9.55907)
(0.336467 0.0720881 -3.38152)
(0.0369232 -0.119998 -4.74773)
(0.257888 -0.000170583 -2.20354)
(-0.344253 -0.299783 -9.60249)
(0.335048 0.0728131 -3.37064)
(0.0330948 -0.121214 -4.73775)
(0.256062 -0.00643977 -2.17973)
(-0.356442 -0.302834 -9.64489)
(0.334461 0.0742333 -3.36185)
(0.0295945 -0.122646 -4.72677)
(0.254169 -0.0122021 -2.15589)
(-0.367471 -0.306091 -9.68611)
(0.334913 0.0764994 -3.35572)
(0.0263949 -0.124202 -4.71478)
(0.252186 -0.0174685 -2.13216)
(-0.377728 -0.309586 -9.72695)
(0.336615 0.0797773 -3.35063)
(0.0234747 -0.125683 -4.70175)
(0.250077 -0.0224035 -2.10869)
(-0.387589 -0.313204 -9.76764)
(0.339265 0.0839624 -3.3465)
(0.0208269 -0.126974 -4.68768)
(0.247812 -0.0271517 -2.08558)
(-0.397205 -0.316827 -9.80807)
(0.342603 0.0889428 -3.34324)
(0.0184473 -0.128016 -4.6726)
(0.245365 -0.0318226 -2.06293)
(-0.406684 -0.320431 -9.84847)
(0.346503 0.0946708 -3.34058)
(0.0163337 -0.128749 -4.65653)
(0.242714 -0.0365119 -2.04082)
(-0.416117 -0.323982 -9.88882)
(0.350848 0.10111 -3.33842)
(0.0144877 -0.12913 -4.63953)
(0.239837 -0.0412982 -2.01931)
(-0.425556 -0.32746 -9.92913)
(0.355574 0.108249 -3.33662)
(0.0129132 -0.129122 -4.62161)
(0.23672 -0.0462511 -1.99847)
(-0.435043 -0.330854 -9.96942)
(0.360633 0.116088 -3.33509)
(0.0116174 -0.128682 -4.60284)
(0.233349 -0.0514329 -1.97834)
(-0.444607 -0.334151 -10.0097)
(0.36599 0.124642 -3.33376)
(0.0106095 -0.127762 -4.58324)
(0.229715 -0.0569011 -1.95897)
(-0.454273 -0.337342 -10.0498)
(0.371616 0.133936 -3.33254)
(0.00990172 -0.126308 -4.56288)
(0.225816 -0.0627105 -1.94041)
(-0.464065 -0.340416 -10.0899)
(0.377482 0.144007 -3.33139)
(0.00950987 -0.124244 -4.54184)
(0.221657 -0.0689117 -1.92271)
(-0.474008 -0.343353 -10.1298)
(0.383551 0.1549 -3.33026)
(0.00945418 -0.121469 -4.52016)
(0.217255 -0.0755553 -1.90593)
(-0.484135 -0.346127 -10.1695)
(0.389763 0.166667 -3.32911)
(0.00975111 -0.117875 -4.49778)
(0.212628 -0.0826968 -1.88992)
(-0.494479 -0.348713 -10.209)
(0.396049 0.179369 -3.32785)
(0.0104109 -0.113378 -4.47463)
(0.207793 -0.0904144 -1.87469)
(-0.505063 -0.351103 -10.2484)
(0.402359 0.193065 -3.32632)
(0.0114348 -0.108038 -4.45149)
(0.202815 -0.0990064 -1.86047)
(-0.5159 -0.353308 -10.2869)
(0.408663 0.207567 -3.32461)
(0.0128305 -0.101159 -4.42994)
(0.197651 -0.108396 -1.84863)
(-0.52718 -0.355075 -10.3231)
(0.414549 0.223464 -3.32341)
(0.0148467 -0.091554 -4.41006)
(0.19275 -0.118573 -1.84067)
(-0.539294 -0.355883 -10.3583)
(0.418857 0.240686 -3.32396)
(0.0174137 -0.0792896 -4.38204)
(0.187938 -0.129432 -1.83085)
(-0.552193 -0.356012 -10.4026)
(0.421401 0.259382 -3.32403)
(0.0184844 -0.0734121 -4.34854)
(0.183581 -0.137863 -1.80403)
(-0.558791 -0.357116 -10.4354)
(0.424498 0.271601 -3.3144)
)
;

boundaryField
{
    inlet
    {
        type            calculated;
        value           nonuniform List<vector> 4((0.0184844 -0.0734121 -4.34854) (-0.558791 -0.357116 -10.4354) (0.183581 -0.137863 -1.80403) (0.424498 0.271601 -3.3144));
    }
    outlet
    {
        type            calculated;
        value           nonuniform List<vector> 4((0.0367196 -0.122749 -4.79438) (0.0906029 -0.026413 -5.35174) (0.0228692 -0.1226 -4.6207) (0.0647076 -0.0640813 -5.17094));
    }
    repeat_boundary
    {
        type            calculated;
        value           nonuniform List<vector> 
720
(
(0.0367196 0 -4.79438)
(0.0379576 0 -4.77786)
(0.0395312 0 -4.7723)
(0.0408583 0 -4.76009)
(0.0421498 0 -4.75003)
(0.043311 0 -4.73808)
(0.0443966 0 -4.72634)
(0.0453969 0 -4.7139)
(0.0463428 0 -4.70129)
(0.0472432 0 -4.68833)
(0.0481251 0 -4.67522)
(0.0490049 0 -4.66194)
(0.0499202 0 -4.6486)
(0.0509333 0 -4.63527)
(0.0520993 0 -4.62203)
(0.0534744 0 -4.60898)
(0.055126 0 -4.59622)
(0.0571091 0 -4.58386)
(0.0594805 0 -4.57202)
(0.0622858 0 -4.56081)
(0.0655611 0 -4.55038)
(0.0693289 0 -4.54082)
(0.0735978 0 -4.53227)
(0.0783598 0 -4.52484)
(0.0835899 0 -4.51862)
(0.0892461 0 -4.5137)
(0.0952702 0 -4.51017)
(0.101589 0 -4.50807)
(0.108117 0 -4.50747)
(0.114759 0 -4.50837)
(0.121412 0 -4.51079)
(0.127972 0 -4.51472)
(0.134334 0 -4.52012)
(0.140396 0 -4.52696)
(0.146061 0 -4.53515)
(0.151241 0 -4.54463)
(0.155859 0 -4.55529)
(0.159849 0 -4.56701)
(0.163157 0 -4.57966)
(0.165744 0 -4.5931)
(0.167583 0 -4.60718)
(0.168666 0 -4.62172)
(0.169014 0 -4.63654)
(0.168673 0 -4.65149)
(0.16769 0 -4.6664)
(0.166076 0 -4.68111)
(0.16381 0 -4.69545)
(0.160872 0 -4.70926)
(0.157255 0 -4.72236)
(0.152973 0 -4.73461)
(0.148059 0 -4.74588)
(0.142563 0 -4.75607)
(0.136553 0 -4.76508)
(0.130111 0 -4.77285)
(0.123326 0 -4.77937)
(0.116293 0 -4.7846)
(0.109107 0 -4.78855)
(0.101863 0 -4.79125)
(0.0946491 0 -4.79271)
(0.0875471 0 -4.79299)
(0.0806287 0 -4.79212)
(0.0739571 0 -4.79013)
(0.0675834 0 -4.78707)
(0.0615456 0 -4.78299)
(0.0558696 0 -4.7779)
(0.0505678 0 -4.77182)
(0.0456453 0 -4.76476)
(0.041101 0 -4.75673)
(0.0369232 0 -4.74773)
(0.0330948 0 -4.73775)
(0.0295945 0 -4.72677)
(0.0263949 0 -4.71478)
(0.0234747 0 -4.70175)
(0.0208269 0 -4.68768)
(0.0184473 0 -4.6726)
(0.0163337 0 -4.65653)
(0.0144877 0 -4.63953)
(0.0129132 0 -4.62161)
(0.0116174 0 -4.60284)
(0.0106095 0 -4.58324)
(0.00990172 0 -4.56288)
(0.00950987 0 -4.54184)
(0.00945418 0 -4.52016)
(0.00975111 0 -4.49778)
(0.0104109 0 -4.47463)
(0.0114348 0 -4.45149)
(0.0128305 0 -4.42994)
(0.0148467 0 -4.41006)
(0.0174137 0 -4.38204)
(0.0184844 0 -4.34854)
(0.0228692 0 -4.6207)
(0.0237369 0 -4.58785)
(0.0275382 0 -4.56403)
(0.0301199 0 -4.5344)
(0.0330851 0 -4.50544)
(0.0357669 0 -4.47397)
(0.0384142 0 -4.44163)
(0.0409217 0 -4.4078)
(0.0433349 0 -4.3729)
(0.0456477 0 -4.33693)
(0.0478664 0 -4.3001)
(0.0499904 0 -4.26245)
(0.0521096 0 -4.22406)
(0.0542323 0 -4.18501)
(0.0563908 0 -4.14514)
(0.0586324 0 -4.10464)
(0.0610208 0 -4.06345)
(0.0636016 0 -4.02167)
(0.0664239 0 -3.97929)
(0.0695287 0 -3.93635)
(0.0729519 0 -3.89284)
(0.0767218 0 -3.84876)
(0.0808591 0 -3.80411)
(0.0853757 0 -3.75888)
(0.0902751 0 -3.7131)
(0.0955518 0 -3.66677)
(0.101192 0 -3.61994)
(0.107174 0 -3.57265)
(0.113469 0 -3.52499)
(0.120042 0 -3.47704)
(0.126856 0 -3.42893)
(0.133868 0 -3.38079)
(0.141034 0 -3.33278)
(0.148312 0 -3.28508)
(0.155659 0 -3.23786)
(0.163036 0 -3.19131)
(0.170408 0 -3.14562)
(0.177743 0 -3.10096)
(0.185015 0 -3.0575)
(0.192205 0 -3.01539)
(0.199298 0 -2.97472)
(0.206291 0 -2.93551)
(0.213199 0 -2.89778)
(0.220051 0 -2.86177)
(0.226788 0 -2.82722)
(0.233275 0 -2.79381)
(0.239397 0 -2.76151)
(0.245059 0 -2.7302)
(0.250195 0 -2.69981)
(0.254756 0 -2.67028)
(0.258715 0 -2.64154)
(0.262062 0 -2.61357)
(0.264803 0 -2.58634)
(0.266958 0 -2.5598)
(0.268558 0 -2.53392)
(0.269645 0 -2.50866)
(0.270264 0 -2.48396)
(0.270468 0 -2.45975)
(0.270308 0 -2.43596)
(0.269834 0 -2.41252)
(0.269096 0 -2.38932)
(0.268142 0 -2.3663)
(0.267022 0 -2.34336)
(0.265767 0 -2.32044)
(0.264404 0 -2.29739)
(0.262936 0 -2.27412)
(0.261339 0 -2.25076)
(0.259649 0 -2.22724)
(0.257888 0 -2.20354)
(0.256062 0 -2.17973)
(0.254169 0 -2.15589)
(0.252186 0 -2.13216)
(0.250077 0 -2.10869)
(0.247812 0 -2.08558)
(0.245365 0 -2.06293)
(0.242714 0 -2.04082)
(0.239837 0 -2.01931)
(0.23672 0 -1.99847)
(0.233349 0 -1.97834)
(0.229715 0 -1.95897)
(0.225816 0 -1.94041)
(0.221657 0 -1.92271)
(0.217255 0 -1.90593)
(0.212628 0 -1.88992)
(0.207793 0 -1.87469)
(0.202815 0 -1.86047)
(0.197651 0 -1.84863)
(0.19275 0 -1.84067)
(0.187938 0 -1.83085)
(0.183581 0 -1.80403)
(0 -0.1226 -4.6207)
(0 -0.0640813 -5.17094)
(0 -0.129174 -4.58785)
(0 -0.0672703 -5.16818)
(0 -0.137476 -4.56403)
(0 -0.0719883 -5.17629)
(0 -0.144588 -4.5344)
(0 -0.075872 -5.17809)
(0 -0.151673 -4.50544)
(0 -0.0796667 -5.18187)
(0 -0.158159 -4.47397)
(0 -0.083015 -5.18486)
(0 -0.164216 -4.44163)
(0 -0.086041 -5.18778)
(0 -0.169722 -4.4078)
(0 -0.0887048 -5.19035)
(0 -0.174624 -4.3729)
(0 -0.0909656 -5.1924)
(0 -0.178955 -4.33693)
(0 -0.0926974 -5.19393)
(0 -0.182684 -4.3001)
(0 -0.0940712 -5.19473)
(0 -0.185842 -4.26245)
(0 -0.0951825 -5.19653)
(0 -0.188853 -4.22406)
(0 -0.096841 -5.19472)
(0 -0.191581 -4.18501)
(0 -0.0982352 -5.19616)
(0 -0.193891 -4.14514)
(0 -0.0998861 -5.19166)
(0 -0.19567 -4.10464)
(0 -0.100916 -5.19107)
(0 -0.196744 -4.06345)
(0 -0.101683 -5.18804)
(0 -0.197168 -4.02167)
(0 -0.102328 -5.18458)
(0 -0.196932 -3.97929)
(0 -0.102812 -5.18021)
(0 -0.196036 -3.93635)
(0 -0.103185 -5.17493)
(0 -0.194469 -3.89284)
(0 -0.103439 -5.16861)
(0 -0.192216 -3.84876)
(0 -0.103569 -5.16116)
(0 -0.189258 -3.80411)
(0 -0.103546 -5.15243)
(0 -0.185571 -3.75888)
(0 -0.103328 -5.14228)
(0 -0.18113 -3.7131)
(0 -0.102861 -5.13053)
(0 -0.175908 -3.66677)
(0 -0.102076 -5.11702)
(0 -0.169878 -3.61994)
(0 -0.100899 -5.10154)
(0 -0.163017 -3.57265)
(0 -0.0992483 -5.08389)
(0 -0.15531 -3.52499)
(0 -0.0970432 -5.06387)
(0 -0.14675 -3.47704)
(0 -0.0942044 -5.04128)
(0 -0.137341 -3.42893)
(0 -0.09066 -5.01594)
(0 -0.127104 -3.38079)
(0 -0.0863495 -4.98769)
(0 -0.116078 -3.33278)
(0 -0.0812279 -4.95639)
(0 -0.104323 -3.28508)
(0 -0.0752697 -4.92195)
(0 -0.09192 -3.23786)
(0 -0.0684729 -4.88431)
(0 -0.0789749 -3.19131)
(0 -0.060862 -4.84347)
(0 -0.0656174 -3.14562)
(0 -0.0524909 -4.79947)
(0 -0.0520013 -3.10096)
(0 -0.043445 -4.75239)
(0 -0.0383036 -3.0575)
(0 -0.0338428 -4.70239)
(0 -0.0247219 -3.01539)
(0 -0.0238346 -4.64965)
(0 -0.01147 -2.97472)
(0 -0.0135984 -4.59442)
(0 0.00121857 -2.93551)
(0 -0.00334338 -4.53704)
(0 0.0130874 -2.89778)
(0 0.0066824 -4.47789)
(0 0.0238723 -2.86177)
(0 0.0162027 -4.41719)
(0 0.0333919 -2.82722)
(0 0.0249792 -4.35549)
(0 0.0416219 -2.79381)
(0 0.0328886 -4.2934)
(0 0.048635 -2.76151)
(0 0.0399227 -4.23137)
(0 0.054516 -2.7302)
(0 0.0461315 -4.16978)
(0 0.0593351 -2.69981)
(0 0.051579 -4.10903)
(0 0.0631534 -2.67028)
(0 0.0563319 -4.04944)
(0 0.0660242 -2.64154)
(0 0.0604541 -3.99131)
(0 0.067992 -2.61357)
(0 0.0639991 -3.93488)
(0 0.0690951 -2.58634)
(0 0.0670096 -3.88038)
(0 0.0693657 -2.5598)
(0 0.0695183 -3.82799)
(0 0.0688312 -2.53392)
(0 0.07155 -3.77788)
(0 0.0675188 -2.50866)
(0 0.073124 -3.73023)
(0 0.0654568 -2.48396)
(0 0.0742632 -3.68516)
(0 0.0626738 -2.45975)
(0 0.0749938 -3.64281)
(0 0.0592009 -2.43596)
(0 0.0753474 -3.60328)
(0 0.0550747 -2.41252)
(0 0.0753638 -3.56667)
(0 0.0503385 -2.38932)
(0 0.0750939 -3.53305)
(0 0.0450441 -2.3663)
(0 0.0745987 -3.50246)
(0 0.0392626 -2.34336)
(0 0.0739545 -3.47493)
(0 0.0330819 -2.32044)
(0 0.0732529 -3.45044)
(0 0.0266062 -2.29739)
(0 0.0725991 -3.42895)
(0 0.0199435 -2.27412)
(0 0.07211 -3.4104)
(0 0.0131801 -2.25076)
(0 0.0718995 -3.39466)
(0 0.00642954 -2.22724)
(0 0.0720881 -3.38152)
(0 -0.000170583 -2.20354)
(0 0.0728131 -3.37064)
(0 -0.00643977 -2.17973)
(0 0.0742333 -3.36185)
(0 -0.0122021 -2.15589)
(0 0.0764994 -3.35572)
(0 -0.0174685 -2.13216)
(0 0.0797773 -3.35063)
(0 -0.0224035 -2.10869)
(0 0.0839624 -3.3465)
(0 -0.0271517 -2.08558)
(0 0.0889428 -3.34324)
(0 -0.0318226 -2.06293)
(0 0.0946708 -3.34058)
(0 -0.0365119 -2.04082)
(0 0.10111 -3.33842)
(0 -0.0412982 -2.01931)
(0 0.108249 -3.33662)
(0 -0.0462511 -1.99847)
(0 0.116088 -3.33509)
(0 -0.0514329 -1.97834)
(0 0.124642 -3.33376)
(0 -0.0569011 -1.95897)
(0 0.133936 -3.33254)
(0 -0.0627105 -1.94041)
(0 0.144007 -3.33139)
(0 -0.0689117 -1.92271)
(0 0.1549 -3.33026)
(0 -0.0755553 -1.90593)
(0 0.166667 -3.32911)
(0 -0.0826968 -1.88992)
(0 0.179369 -3.32785)
(0 -0.0904144 -1.87469)
(0 0.193065 -3.32632)
(0 -0.0990064 -1.86047)
(0 0.207567 -3.32461)
(0 -0.108396 -1.84863)
(0 0.223464 -3.32341)
(0 -0.118573 -1.84067)
(0 0.240686 -3.32396)
(0 -0.129432 -1.83085)
(0 0.259382 -3.32403)
(0 -0.137863 -1.80403)
(0 0.271601 -3.3144)
(0.0906029 0 -5.35174)
(0.0959692 0 -5.37366)
(0.103316 0 -5.41781)
(0.10959 0 -5.44876)
(0.116259 0 -5.48868)
(0.122592 0 -5.52688)
(0.129002 0 -5.56924)
(0.135246 0 -5.61232)
(0.141555 0 -5.65798)
(0.147756 0 -5.70504)
(0.153887 0 -5.75408)
(0.159847 0 -5.8045)
(0.165261 0 -5.85645)
(0.170261 0 -5.90979)
(0.175005 0 -5.96435)
(0.179569 0 -6.02005)
(0.184114 0 -6.07677)
(0.188621 0 -6.13444)
(0.193172 0 -6.19302)
(0.197832 0 -6.25245)
(0.20269 0 -6.31271)
(0.207838 0 -6.3738)
(0.213363 0 -6.43573)
(0.219341 0 -6.49854)
(0.225821 0 -6.56228)
(0.23282 0 -6.62704)
(0.240313 0 -6.69288)
(0.24822 0 -6.75991)
(0.256411 0 -6.8282)
(0.264695 0 -6.89783)
(0.272832 0 -6.96886)
(0.280534 0 -7.04132)
(0.287479 0 -7.11523)
(0.293327 0 -7.19054)
(0.297733 0 -7.2672)
(0.300369 0 -7.34512)
(0.300935 0 -7.42416)
(0.299181 0 -7.50419)
(0.294909 0 -7.585)
(0.28799 0 -7.66642)
(0.278359 0 -7.74825)
(0.266023 0 -7.83028)
(0.251048 0 -7.91229)
(0.23355 0 -7.99409)
(0.213702 0 -8.07548)
(0.191745 0 -8.15626)
(0.167978 0 -8.23627)
(0.142731 0 -8.31537)
(0.116343 0 -8.39341)
(0.0891407 0 -8.47029)
(0.0614298 0 -8.54589)
(0.0334826 0 -8.62011)
(0.00553161 0 -8.69285)
(-0.0222313 0 -8.76401)
(-0.0496515 0 -8.83349)
(-0.0766014 0 -8.90118)
(-0.102973 0 -8.96699)
(-0.128674 0 -9.03086)
(-0.153618 0 -9.09269)
(-0.177722 0 -9.15247)
(-0.200902 0 -9.21015)
(-0.223073 0 -9.26574)
(-0.244148 0 -9.31928)
(-0.264046 0 -9.37081)
(-0.2827 0 -9.42043)
(-0.300056 0 -9.46825)
(-0.316093 0 -9.5144)
(-0.330817 0 -9.55907)
(-0.344253 0 -9.60249)
(-0.356442 0 -9.64489)
(-0.367471 0 -9.68611)
(-0.377728 0 -9.72695)
(-0.387589 0 -9.76764)
(-0.397205 0 -9.80807)
(-0.406684 0 -9.84847)
(-0.416117 0 -9.88882)
(-0.425556 0 -9.92913)
(-0.435043 0 -9.96942)
(-0.444607 0 -10.0097)
(-0.454273 0 -10.0498)
(-0.464065 0 -10.0899)
(-0.474008 0 -10.1298)
(-0.484135 0 -10.1695)
(-0.494479 0 -10.209)
(-0.505063 0 -10.2484)
(-0.5159 0 -10.2869)
(-0.52718 0 -10.3231)
(-0.539294 0 -10.3583)
(-0.552193 0 -10.4026)
(-0.558791 0 -10.4354)
(0.0647076 0 -5.17094)
(0.0685481 0 -5.16818)
(0.074361 0 -5.17629)
(0.0795816 0 -5.17809)
(0.0851671 0 -5.18187)
(0.0907164 0 -5.18486)
(0.0964523 0 -5.18778)
(0.102256 0 -5.19035)
(0.108191 0 -5.1924)
(0.114114 0 -5.19393)
(0.11979 0 -5.19473)
(0.124178 0 -5.19653)
(0.129794 0 -5.19472)
(0.134734 0 -5.19616)
(0.140055 0 -5.19166)
(0.145002 0 -5.19107)
(0.150059 0 -5.18804)
(0.155081 0 -5.18458)
(0.160136 0 -5.18021)
(0.165244 0 -5.17493)
(0.170446 0 -5.16861)
(0.175783 0 -5.16116)
(0.181296 0 -5.15243)
(0.187022 0 -5.14228)
(0.192997 0 -5.13053)
(0.199247 0 -5.11702)
(0.20579 0 -5.10154)
(0.212637 0 -5.08389)
(0.219785 0 -5.06387)
(0.227222 0 -5.04128)
(0.234924 0 -5.01594)
(0.24286 0 -4.98769)
(0.250986 0 -4.95639)
(0.259253 0 -4.92195)
(0.267606 0 -4.88431)
(0.275986 0 -4.84347)
(0.28433 0 -4.79947)
(0.292575 0 -4.75239)
(0.300652 0 -4.70239)
(0.30849 0 -4.64965)
(0.316015 0 -4.59442)
(0.323145 0 -4.53704)
(0.329792 0 -4.47789)
(0.335854 0 -4.41719)
(0.341288 0 -4.35549)
(0.346117 0 -4.2934)
(0.350375 0 -4.23137)
(0.354096 0 -4.16978)
(0.357297 0 -4.10903)
(0.359985 0 -4.04944)
(0.362162 0 -3.99131)
(0.363819 0 -3.93488)
(0.364948 0 -3.88038)
(0.36554 0 -3.82799)
(0.365592 0 -3.77788)
(0.365108 0 -3.73023)
(0.36411 0 -3.68516)
(0.362631 0 -3.64281)
(0.360716 0 -3.60328)
(0.358417 0 -3.56667)
(0.3558 0 -3.53305)
(0.352941 0 -3.50246)
(0.349929 0 -3.47493)
(0.346862 0 -3.45044)
(0.343853 0 -3.42895)
(0.341027 0 -3.4104)
(0.338515 0 -3.39466)
(0.336467 0 -3.38152)
(0.335048 0 -3.37064)
(0.334461 0 -3.36185)
(0.334913 0 -3.35572)
(0.336615 0 -3.35063)
(0.339265 0 -3.3465)
(0.342603 0 -3.34324)
(0.346503 0 -3.34058)
(0.350848 0 -3.33842)
(0.355574 0 -3.33662)
(0.360633 0 -3.33509)
(0.36599 0 -3.33376)
(0.371616 0 -3.33254)
(0.377482 0 -3.33139)
(0.383551 0 -3.33026)
(0.389763 0 -3.32911)
(0.396049 0 -3.32785)
(0.402359 0 -3.32632)
(0.408663 0 -3.32461)
(0.414549 0 -3.32341)
(0.418857 0 -3.32396)
(0.421401 0 -3.32403)
(0.424498 0 -3.3144)
(0 -0.122749 -4.79438)
(0 -0.026413 -5.35174)
(0 -0.130045 -4.77786)
(0 -0.0274007 -5.37366)
(0 -0.139638 -4.7723)
(0 -0.0301198 -5.41781)
(0 -0.147906 -4.76009)
(0 -0.0311953 -5.44876)
(0 -0.15641 -4.75003)
(0 -0.0321857 -5.48868)
(0 -0.164432 -4.73808)
(0 -0.0323366 -5.52688)
(0 -0.172341 -4.72634)
(0 -0.0320733 -5.56924)
(0 -0.179951 -4.7139)
(0 -0.0311723 -5.61232)
(0 -0.187368 -4.70129)
(0 -0.0297979 -5.65798)
(0 -0.194515 -4.68833)
(0 -0.0278742 -5.70504)
(0 -0.201417 -4.67522)
(0 -0.0254835 -5.75408)
(0 -0.208028 -4.66194)
(0 -0.0226356 -5.8045)
(0 -0.214309 -4.6486)
(0 -0.0193748 -5.85645)
(0 -0.220218 -4.63527)
(0 -0.0157198 -5.90979)
(0 -0.22571 -4.62203)
(0 -0.0117409 -5.96435)
(0 -0.230737 -4.60898)
(0 -0.007512 -6.02005)
(0 -0.235243 -4.59622)
(0 -0.00310149 -6.07677)
(0 -0.23918 -4.58386)
(0 0.00139475 -6.13444)
(0 -0.242498 -4.57202)
(0 0.00587766 -6.19302)
(0 -0.245152 -4.56081)
(0 0.0102313 -6.25245)
(0 -0.247105 -4.55038)
(0 0.0143378 -6.31271)
(0 -0.248325 -4.54082)
(0 0.0180755 -6.3738)
(0 -0.248786 -4.53227)
(0 0.0213244 -6.43573)
(0 -0.248469 -4.52484)
(0 0.0239689 -6.49854)
(0 -0.247363 -4.51862)
(0 0.0259024 -6.56228)
(0 -0.245468 -4.5137)
(0 0.02703 -6.62704)
(0 -0.242791 -4.51017)
(0 0.0272724 -6.69288)
(0 -0.239351 -4.50807)
(0 0.0265677 -6.75991)
(0 -0.235177 -4.50747)
(0 0.0248733 -6.8282)
(0 -0.230308 -4.50837)
(0 0.0221658 -6.89783)
(0 -0.224797 -4.51079)
(0 0.018441 -6.96886)
(0 -0.218706 -4.51472)
(0 0.0137121 -7.04132)
(0 -0.212107 -4.52012)
(0 0.00800708 -7.11523)
(0 -0.205085 -4.52696)
(0 0.00136615 -7.19054)
(0 -0.19773 -4.53515)
(0 -0.00616201 -7.2672)
(0 -0.190144 -4.54463)
(0 -0.0145234 -7.34512)
(0 -0.182433 -4.55529)
(0 -0.0236616 -7.42416)
(0 -0.17471 -4.56701)
(0 -0.0335211 -7.50419)
(0 -0.167088 -4.57966)
(0 -0.0440476 -7.585)
(0 -0.159682 -4.5931)
(0 -0.0551888 -7.66642)
(0 -0.152604 -4.60718)
(0 -0.0668931 -7.74825)
(0 -0.14596 -4.62172)
(0 -0.0791082 -7.83028)
(0 -0.139848 -4.63654)
(0 -0.0917779 -7.91229)
(0 -0.134349 -4.65149)
(0 -0.104836 -7.99409)
(0 -0.129521 -4.6664)
(0 -0.1182 -8.07548)
(0 -0.125394 -4.68111)
(0 -0.131765 -8.15626)
(0 -0.121967 -4.69545)
(0 -0.145405 -8.23627)
(0 -0.119217 -4.70926)
(0 -0.15897 -8.31537)
(0 -0.117097 -4.72236)
(0 -0.172299 -8.39341)
(0 -0.115545 -4.73461)
(0 -0.18523 -8.47029)
(0 -0.114486 -4.74588)
(0 -0.197604 -8.54589)
(0 -0.113838 -4.75607)
(0 -0.209283 -8.62011)
(0 -0.113516 -4.76508)
(0 -0.220152 -8.69285)
(0 -0.113438 -4.77285)
(0 -0.230131 -8.76401)
(0 -0.11353 -4.77937)
(0 -0.239177 -8.83349)
(0 -0.113728 -4.7846)
(0 -0.247282 -8.90118)
(0 -0.113986 -4.78855)
(0 -0.254471 -8.96699)
(0 -0.114272 -4.79125)
(0 -0.2608 -9.03086)
(0 -0.114567 -4.79271)
(0 -0.266347 -9.09269)
(0 -0.114866 -4.79299)
(0 -0.271201 -9.15247)
(0 -0.115172 -4.79212)
(0 -0.27546 -9.21015)
(0 -0.115497 -4.79013)
(0 -0.279228 -9.26574)
(0 -0.115858 -4.78707)
(0 -0.282606 -9.31928)
(0 -0.116277 -4.78299)
(0 -0.285692 -9.37081)
(0 -0.116776 -4.7779)
(0 -0.28858 -9.42043)
(0 -0.117378 -4.77182)
(0 -0.291358 -9.46825)
(0 -0.118103 -4.76476)
(0 -0.294106 -9.5144)
(0 -0.11897 -4.75673)
(0 -0.296893 -9.55907)
(0 -0.119998 -4.74773)
(0 -0.299783 -9.60249)
(0 -0.121214 -4.73775)
(0 -0.302834 -9.64489)
(0 -0.122646 -4.72677)
(0 -0.306091 -9.68611)
(0 -0.124202 -4.71478)
(0 -0.309586 -9.72695)
(0 -0.125683 -4.70175)
(0 -0.313204 -9.76764)
(0 -0.126974 -4.68768)
(0 -0.316827 -9.80807)
(0 -0.128016 -4.6726)
(0 -0.320431 -9.84847)
(0 -0.128749 -4.65653)
(0 -0.323982 -9.88882)
(0 -0.12913 -4.63953)
(0 -0.32746 -9.92913)
(0 -0.129122 -4.62161)
(0 -0.330854 -9.96942)
(0 -0.128682 -4.60284)
(0 -0.334151 -10.0097)
(0 -0.127762 -4.58324)
(0 -0.337342 -10.0498)
(0 -0.126308 -4.56288)
(0 -0.340416 -10.0899)
(0 -0.124244 -4.54184)
(0 -0.343353 -10.1298)
(0 -0.121469 -4.52016)
(0 -0.346127 -10.1695)
(0 -0.117875 -4.49778)
(0 -0.348713 -10.209)
(0 -0.113378 -4.47463)
(0 -0.351103 -10.2484)
(0 -0.108038 -4.45149)
(0 -0.353308 -10.2869)
(0 -0.101159 -4.42994)
(0 -0.355075 -10.3231)
(0 -0.091554 -4.41006)
(0 -0.355883 -10.3583)
(0 -0.0792896 -4.38204)
(0 -0.356012 -10.4026)
(0 -0.0734121 -4.34854)
(0 -0.357116 -10.4354)
)
;
    }
}


// ************************************************************************* //
