FoamFile
{version 2.0; format ascii;class Cloud<passiveParticle>; location 0;object  positions;}
41
(
( 0.000370222 0.000171902 9.99505e-05 ) 0 
( 0.000232602 0.000316992 9.98003e-05 ) 0 
( 0.000366546 0.000466457 9.99665e-05 ) 0 
( 7.21682e-05 0.000436308 9.98707e-05 ) 0 
( 3.39267e-05 0.000240074 9.98321e-05 ) 0 
( 0.000181701 0.000104254 9.99676e-05 ) 0 
( 0.000219022 0.000463673 0.000234979 ) 0 
( 3.90745e-05 9.92e-05 0.000241681 ) 0 
( 0.000129633 0.000288027 0.000268616 ) 0 
( 0.00048512 0.000440265 0.000259813 ) 0 
( 0.000203376 0.000125254 0.000358226 ) 0 
( 0.000343757 0.000287227 0.000263186 ) 0 
( 0.000363477 5.44331e-05 0.000261626 ) 0 
( 0.000337517 0.000484993 0.000394587 ) 0 
( 0.000452588 0.000127099 0.000425537 ) 0 
( 0.000457452 0.000327485 0.000422574 ) 0 
( 4.5885e-05 0.00026126 0.000448096 ) 0 
( 0.000241005 0.000306576 0.000433619 ) 0 
( 0.000491507 0.000462109 0.000566476 ) 0 
( 0.000289872 8.6212e-05 0.000534165 ) 0 
( 0.000379301 0.000255501 0.000591872 ) 0 
( 0.000287903 0.000433032 0.000581193 ) 0 
( 9.55394e-05 0.000381666 0.000599722 ) 0 
( 2.59524e-05 0.000119346 0.000587471 ) 0 
( 0.000190253 0.000213493 0.000651719 ) 0 
( 0.000451559 7.88852e-05 0.000651521 ) 0 
( 0.000347325 0.000232409 0.000787871 ) 0 
( 0.000215274 0.000379889 0.00075977 ) 0 
( 8.96334e-05 2.16667e-05 0.000749917 ) 0 
( 0.000148386 0.000212948 0.000847178 ) 0 
( 6.63102e-06 9.28158e-05 0.000920917 ) 0 
( 0.000284296 6.9428e-05 0.000884993 ) 0 
( 3.98972e-05 0.00046908 0.000795526 ) 0 
( 0.000382177 0.000422075 0.000861403 ) 0 
( 0.000466645 9.5484e-05 0.000962761 ) 0 
( 0.00028098 0.000291776 0.000974371 ) 0 
( 0.000166888 0.000137873 0.00103169 ) 0 
( 0.000479987 0.000292567 0.000993823 ) 0 
( 4.70189e-05 0.00034789 0.000954394 ) 0 
( 0.000349189 0.000161944 0.00111032 ) 0 
( 0.000161584 0.000364222 0.00111749 ) 0 
)
