FoamFile
{version 2.0; format ascii;class vectorField; location 0;object  v;}
42
(
( -3.40055e-05 -1.96946e-07 -4.82264e-05 )  
( -1.40436e-05 -1.41842e-05 -2.90041e-05 )  
( 7.01661e-06 -2.36164e-05 1.03149e-05 )  
( 1.72133e-05 -3.87164e-06 -3.28472e-05 )  
( -2.15549e-05 -7.12456e-06 -2.07572e-05 )  
( 8.66047e-05 -2.3835e-05 -8.00985e-05 )  
( -2.47027e-05 -1.86278e-05 -8.17005e-05 )  
( -1.57821e-06 9.03487e-06 -1.8851e-05 )  
( 4.3108e-05 6.96651e-06 -5.6777e-05 )  
( -3.38968e-05 -1.5107e-05 -5.09435e-05 )  
( 6.14949e-05 -8.57676e-06 -7.72069e-05 )  
( -3.68877e-05 8.1869e-05 8.16545e-06 )  
( 0.000132246 -1.86946e-06 -9.48684e-05 )  
( 0.000102061 5.64496e-05 -0.000175859 )  
( 4.05411e-05 -4.81869e-05 -0.000178286 )  
( 9.71977e-05 2.00509e-05 -0.000107813 )  
( 0.000134124 -4.05297e-06 -0.000106572 )  
( 0.00018277 -2.29186e-05 -0.000131547 )  
( 0.000129434 3.31118e-05 -0.000160892 )  
( 0.000111595 -2.75562e-05 -7.34658e-05 )  
( 7.07565e-05 7.57655e-05 -7.66639e-05 )  
( 0.000120314 4.73767e-05 -0.00015833 )  
( 6.57864e-05 -2.87024e-05 -0.000297595 )  
( 6.23144e-05 -2.00022e-05 -0.000281046 )  
( 8.11318e-05 7.92933e-05 -0.000175901 )  
( 0.000154438 -4.87293e-05 -0.00012187 )  
( 0.000101037 1.68871e-05 -8.83293e-05 )  
( 6.20505e-05 7.03841e-05 -0.000236634 )  
( 8.92843e-05 1.38989e-06 -9.88203e-05 )  
( 0.000220916 -6.52401e-06 -2.52175e-06 )  
( 2.2042e-05 5.48811e-05 -0.000148946 )  
( 0.000138951 -8.87696e-05 -8.3048e-05 )  
( 0.000102346 -4.65587e-05 -0.000278137 )  
( -4.83899e-05 -5.64495e-05 -0.000277599 )  
( 8.79658e-05 0.000109262 -0.00012237 )  
( 0.000103752 8.47954e-05 -0.000131361 )  
( 6.62527e-05 8.19053e-06 0.000150297 )  
( 4.49237e-05 -5.96984e-05 2.12978e-05 )  
( 1.29113e-05 -7.13369e-05 -0.000214962 )  
( -2.27819e-05 0.000113735 -0.000311621 )  
( 0.000173419 -0.000311922 -2.4449e-05 )  
( 7.73039e-05 0.000552884 -0.000739748 )  
)
