/*--------------------------------*- C++ -*----------------------------------*\
| =========                 |                                                 |
| \\      /  F ield         | OpenFOAM: The Open Source CFD Toolbox           |
|  \\    /   O peration     | Version:  5.x                                   |
|   \\  /    A nd           | Web:      www.OpenFOAM.org                      |
|    \\/     M anipulation  |                                                 |
\*---------------------------------------------------------------------------*/
FoamFile
{
    version     2.0;
    format      ascii;
    class       surfaceScalarField;
    location    "0.06";
    object      phi;
}
// * * * * * * * * * * * * * * * * * * * * * * * * * * * * * * * * * * * * * //

dimensions      [0 3 -1 0 0 0 0];

internalField   nonuniform List<scalar> 
5825
(
-6.2577e-17
-5.12541e-17
-9.99997e-10
-1.15945e-16
-5.26599e-17
-9.99997e-10
-1.57019e-16
-4.95436e-17
-9.99998e-10
-1.99522e-16
-4.45044e-17
-9.99998e-10
-2.56958e-17
-9.99998e-10
-6.39799e-17
-8.89293e-17
-9.99997e-10
-1.13136e-16
-8.27628e-17
-9.99997e-10
-1.52456e-16
-7.99178e-17
-9.99998e-10
-1.81112e-16
-7.61665e-17
-9.99998e-10
-6.14346e-17
-9.99998e-10
-5.75318e-17
-1.11682e-16
-9.99998e-10
-1.10431e-16
-1.07697e-16
-9.99998e-10
-1.48445e-16
-1.10912e-16
-9.99998e-10
-1.66195e-16
-1.16302e-16
-9.99998e-10
-1.20842e-16
-9.99998e-10
-5.32444e-17
-1.18444e-16
-9.99998e-10
-1.1415e-16
-1.21582e-16
-9.99998e-10
-1.53893e-16
-1.31074e-16
-9.99998e-10
-1.71076e-16
-1.44332e-16
-9.99998e-10
-1.86691e-16
-9.99999e-10
-5.43878e-17
-9.99998e-10
-1.2171e-16
-9.99998e-10
-1.66354e-16
-9.99998e-10
-2.14803e-16
-9.99999e-10
-9.99999e-10
-1.66083e-16
-1.35479e-16
-9.99997e-10
-3.12497e-16
-1.3374e-16
-9.99997e-10
-4.2185e-16
-1.28018e-16
-9.99997e-10
-5.12357e-16
-1.17372e-16
-9.99998e-10
-8.40365e-17
-9.99998e-10
-1.64353e-16
-2.43797e-16
-9.99997e-10
-3.07857e-16
-2.35307e-16
-9.99997e-10
-4.12315e-16
-2.36424e-16
-9.99997e-10
-4.78655e-16
-2.42034e-16
-9.99998e-10
-2.42948e-16
-9.99998e-10
-1.55151e-16
-3.22743e-16
-9.99997e-10
-3.09595e-16
-3.25451e-16
-9.99997e-10
-4.171e-16
-3.43526e-16
-9.99998e-10
-4.76566e-16
-3.74347e-16
-9.99998e-10
-4.22702e-16
-9.99998e-10
-1.57573e-16
-3.69352e-16
-9.99998e-10
-3.29077e-16
-3.94271e-16
-9.99998e-10
-4.47964e-16
-4.18776e-16
-9.99998e-10
-5.22219e-16
-4.61341e-16
-9.99998e-10
-5.86422e-16
-9.99999e-10
-1.78072e-16
-9.99998e-10
-3.51466e-16
-9.99998e-10
-4.93699e-16
-9.99998e-10
-6.47892e-16
-9.99999e-10
-9.99999e-10
-2.7539e-16
-2.30643e-16
-9.99996e-10
-5.30125e-16
-2.27935e-16
-9.99997e-10
-7.11277e-16
-2.28267e-16
-9.99997e-10
-8.17276e-16
-2.28571e-16
-9.99997e-10
-2.33773e-16
-9.99998e-10
-2.72898e-16
-4.43043e-16
-9.99997e-10
-5.3282e-16
-4.46757e-16
-9.99997e-10
-7.13864e-16
-4.65669e-16
-9.99997e-10
-8.23332e-16
-5.04296e-16
-9.99997e-10
-5.67687e-16
-9.99998e-10
-2.75449e-16
-6.18077e-16
-9.99997e-10
-5.52279e-16
-6.3955e-16
-9.99997e-10
-7.51723e-16
-6.75998e-16
-9.99997e-10
-8.82303e-16
-7.37146e-16
-9.99998e-10
-8.26801e-16
-9.99998e-10
-2.95748e-16
-7.46314e-16
-9.99997e-10
-5.89648e-16
-7.79587e-16
-9.99997e-10
-8.13139e-16
-8.10025e-16
-9.99998e-10
-9.67929e-16
-8.67725e-16
-9.99998e-10
-9.92618e-16
-9.99999e-10
-3.25142e-16
-9.99998e-10
-6.20072e-16
-9.99998e-10
-8.73156e-16
-9.99998e-10
-1.09338e-15
-9.99999e-10
-9.99999e-10
-4.14253e-16
-3.61958e-16
-9.99996e-10
-8.02822e-16
-3.65121e-16
-9.99996e-10
-1.0792e-15
-3.80777e-16
-9.99996e-10
-1.21675e-15
-4.06554e-16
-9.99997e-10
-4.6941e-16
-9.99997e-10
-4.17462e-16
-7.13681e-16
-9.99996e-10
-8.22887e-16
-7.34691e-16
-9.99996e-10
-1.10937e-15
-7.74407e-16
-9.99996e-10
-1.28502e-15
-8.4459e-16
-9.99997e-10
-9.50854e-16
-9.99998e-10
-4.34822e-16
-1.00895e-15
-9.99996e-10
-8.62733e-16
-1.04156e-15
-9.99996e-10
-1.17876e-15
-1.08548e-15
-9.99997e-10
-1.38958e-15
-1.14957e-15
-9.99997e-10
-1.22266e-15
-9.99998e-10
-4.63439e-16
-1.20217e-15
-9.99997e-10
-9.07129e-16
-1.23296e-15
-9.99997e-10
-1.2429e-15
-1.25831e-15
-9.99997e-10
-1.46173e-15
-1.29139e-15
-9.99998e-10
-1.34442e-15
-9.99998e-10
-4.88896e-16
-9.99997e-10
-9.31817e-16
-9.99997e-10
-1.27586e-15
-9.99998e-10
-1.51207e-15
-9.99998e-10
-9.99999e-10
-6.12847e-16
-5.50539e-16
-9.99995e-10
-1.17427e-15
-5.60781e-16
-9.99995e-10
-1.58471e-15
-5.89951e-16
-9.99995e-10
-1.8006e-15
-6.31415e-16
-9.99996e-10
-7.12375e-16
-9.99997e-10
-6.22937e-16
-1.06878e-15
-9.99995e-10
-1.20962e-15
-1.09883e-15
-9.99995e-10
-1.63259e-15
-1.1455e-15
-9.99996e-10
-1.89071e-15
-1.21831e-15
-9.99996e-10
-1.31369e-15
-9.99997e-10
-6.46842e-16
-1.49534e-15
-9.99995e-10
-1.25602e-15
-1.52722e-15
-9.99996e-10
-1.70428e-15
-1.562e-15
-9.99996e-10
-1.98729e-15
-1.60301e-15
-9.99997e-10
-1.63431e-15
-9.99997e-10
-6.7299e-16
-1.74656e-15
-9.99996e-10
-1.29073e-15
-1.77631e-15
-9.99996e-10
-1.7453e-15
-1.78424e-15
-9.99997e-10
-2.02347e-15
-1.78693e-15
-9.99997e-10
-1.79541e-15
-9.99998e-10
-6.97275e-16
-9.99997e-10
-1.29832e-15
-9.99997e-10
-1.74453e-15
-9.99997e-10
-2.02868e-15
-9.99998e-10
-9.99999e-10
-8.9309e-16
-8.09309e-16
-9.99993e-10
-1.67429e-15
-8.20148e-16
-9.99993e-10
-2.25804e-15
-8.46447e-16
-9.99994e-10
-2.58702e-15
-8.74956e-16
-9.99995e-10
-9.20114e-16
-9.99996e-10
-9.03823e-16
-1.52711e-15
-9.99993e-10
-1.70696e-15
-1.55187e-15
-9.99994e-10
-2.29361e-15
-1.5847e-15
-9.99994e-10
-2.64295e-15
-1.63445e-15
-9.99995e-10
-1.70053e-15
-9.99996e-10
-9.22125e-16
-2.115e-15
-9.99994e-10
-1.73936e-15
-2.13759e-15
-9.99994e-10
-2.34238e-15
-2.15148e-15
-9.99995e-10
-2.70978e-15
-2.17603e-15
-9.99996e-10
-2.2237e-15
-9.99997e-10
-9.38307e-16
-2.47175e-15
-9.99995e-10
-1.75314e-15
-2.4917e-15
-9.99995e-10
-2.36691e-15
-2.47967e-15
-9.99996e-10
-2.75924e-15
-2.49431e-15
-9.99996e-10
-2.59855e-15
-9.99998e-10
-9.50185e-16
-9.99996e-10
-1.7427e-15
-9.99996e-10
-2.38095e-15
-9.99997e-10
-2.8626e-15
-9.99998e-10
-9.99999e-10
-1.26332e-15
-1.14587e-15
-9.99991e-10
-2.33135e-15
-1.14833e-15
-9.99991e-10
-3.14068e-15
-1.15489e-15
-9.99992e-10
-3.6161e-15
-1.15497e-15
-9.99993e-10
-1.15913e-15
-9.99995e-10
-1.26595e-15
-2.12625e-15
-9.99991e-10
-2.34466e-15
-2.13659e-15
-9.99991e-10
-3.14894e-15
-2.14635e-15
-9.99992e-10
-3.63213e-15
-2.17431e-15
-9.99994e-10
-2.23166e-15
-9.99995e-10
-1.26982e-15
-2.93464e-15
-9.99992e-10
-2.35446e-15
-2.94255e-15
-9.99992e-10
-3.17651e-15
-2.93754e-15
-9.99993e-10
-3.68865e-15
-2.96857e-15
-9.99994e-10
-3.07627e-15
-9.99996e-10
-1.27019e-15
-3.45677e-15
-9.99993e-10
-2.35003e-15
-3.44655e-15
-9.99993e-10
-3.20731e-15
-3.42515e-15
-9.99994e-10
-3.79435e-15
-3.48058e-15
-9.99995e-10
-3.7091e-15
-9.99997e-10
-1.24898e-15
-9.99994e-10
-2.33077e-15
-9.99995e-10
-3.26875e-15
-9.99996e-10
-4.02394e-15
-9.99997e-10
-9.99998e-10
-1.73771e-15
-1.57378e-15
-9.99987e-10
-3.21208e-15
-1.5683e-15
-9.99988e-10
-4.34839e-15
-1.55718e-15
-9.99989e-10
-5.05671e-15
-1.54468e-15
-9.99991e-10
-1.54426e-15
-9.99993e-10
-1.73234e-15
-2.92747e-15
-9.99988e-10
-3.20946e-15
-2.92699e-15
-9.99988e-10
-4.34681e-15
-2.92294e-15
-9.9999e-10
-5.07005e-15
-2.94272e-15
-9.99991e-10
-2.99598e-15
-9.99993e-10
-1.724e-15
-4.03542e-15
-9.99989e-10
-3.20597e-15
-4.03206e-15
-9.99989e-10
-4.36728e-15
-4.02238e-15
-9.99991e-10
-5.1208e-15
-4.0588e-15
-9.99992e-10
-4.1729e-15
-9.99995e-10
-1.71091e-15
-4.75531e-15
-9.9999e-10
-3.19648e-15
-4.72135e-15
-9.99991e-10
-4.40413e-15
-4.70609e-15
-9.99992e-10
-5.22182e-15
-4.76416e-15
-9.99994e-10
-4.94011e-15
-9.99996e-10
-1.6636e-15
-9.99992e-10
-3.18287e-15
-9.99993e-10
-4.47562e-15
-9.99994e-10
-5.40078e-15
-9.99996e-10
-9.99998e-10
-2.36415e-15
-2.13508e-15
-9.99983e-10
-4.43012e-15
-2.13375e-15
-9.99983e-10
-6.05007e-15
-2.12081e-15
-9.99985e-10
-7.11983e-15
-2.11674e-15
-9.99988e-10
-2.12128e-15
-9.9999e-10
-2.36278e-15
-4.01928e-15
-9.99983e-10
-4.4287e-15
-4.01987e-15
-9.99984e-10
-6.06063e-15
-4.01418e-15
-9.99986e-10
-7.14241e-15
-4.02623e-15
-9.99988e-10
-4.04828e-15
-9.99991e-10
-2.35277e-15
-5.52979e-15
-9.99985e-10
-4.4236e-15
-5.52913e-15
-9.99986e-10
-6.07353e-15
-5.52585e-15
-9.99987e-10
-7.16322e-15
-5.54629e-15
-9.9999e-10
-5.58666e-15
-9.99993e-10
-2.33893e-15
-6.49196e-15
-9.99987e-10
-4.42006e-15
-6.47224e-15
-9.99988e-10
-6.09493e-15
-6.47401e-15
-9.9999e-10
-7.19134e-15
-6.48497e-15
-9.99992e-10
-6.48411e-15
-9.99995e-10
-2.30239e-15
-9.99989e-10
-4.42122e-15
-9.9999e-10
-6.11736e-15
-9.99992e-10
-7.18888e-15
-9.99994e-10
-9.99997e-10
-3.22559e-15
-2.9043e-15
-9.99976e-10
-6.11316e-15
-2.91497e-15
-9.99978e-10
-8.3972e-15
-2.90684e-15
-9.9998e-10
-9.92272e-15
-2.90609e-15
-9.99983e-10
-2.89158e-15
-9.99987e-10
-3.23641e-15
-5.51311e-15
-9.99977e-10
-6.12023e-15
-5.5207e-15
-9.99979e-10
-8.41621e-15
-5.51227e-15
-9.99981e-10
-9.93288e-15
-5.50432e-15
-9.99984e-10
-5.48553e-15
-9.99988e-10
-3.22992e-15
-7.57167e-15
-9.99979e-10
-6.11231e-15
-7.58318e-15
-9.99981e-10
-8.40902e-15
-7.58103e-15
-9.99983e-10
-9.91611e-15
-7.57148e-15
-9.99986e-10
-7.54325e-15
-9.9999e-10
-3.22348e-15
-8.8765e-15
-9.99982e-10
-6.11025e-15
-8.89193e-15
-9.99984e-10
-8.4007e-15
-8.90276e-15
-9.99986e-10
-9.88335e-15
-8.86887e-15
-9.99989e-10
-8.75623e-15
-9.99993e-10
-3.21482e-15
-9.99986e-10
-6.11714e-15
-9.99987e-10
-8.37144e-15
-9.99989e-10
-9.76693e-15
-9.99992e-10
-9.99996e-10
-4.41625e-15
-3.96933e-15
-9.99968e-10
-8.39336e-15
-3.98328e-15
-9.9997e-10
-1.15458e-14
-3.97246e-15
-9.99973e-10
-1.36054e-14
-3.95937e-15
-9.99977e-10
-3.92509e-15
-9.99982e-10
-4.43062e-15
-7.54024e-15
-9.99969e-10
-8.4026e-15
-7.54937e-15
-9.99971e-10
-1.15596e-14
-7.53052e-15
-9.99974e-10
-1.36038e-14
-7.49905e-15
-9.99978e-10
-7.45836e-15
-9.99984e-10
-4.4211e-15
-1.03493e-14
-9.99972e-10
-8.38446e-15
-1.03671e-14
-9.99974e-10
-1.15291e-14
-1.03504e-14
-9.99977e-10
-1.35667e-14
-1.03079e-14
-9.99981e-10
-1.0242e-14
-9.99986e-10
-4.41438e-15
-1.21378e-14
-9.99976e-10
-8.36853e-15
-1.21704e-14
-9.99978e-10
-1.14876e-14
-1.21612e-14
-9.99981e-10
-1.35075e-14
-1.20965e-14
-9.99985e-10
-1.19845e-14
-9.9999e-10
-4.41447e-15
-9.99981e-10
-8.35349e-15
-9.99982e-10
-1.14164e-14
-9.99985e-10
-1.33964e-14
-9.99989e-10
-9.99994e-10
-6.03829e-15
-5.42512e-15
-9.99956e-10
-1.14575e-14
-5.42775e-15
-9.99959e-10
-1.57631e-14
-5.40978e-15
-9.99963e-10
-1.85335e-14
-5.38457e-15
-9.99969e-10
-5.3522e-15
-9.99976e-10
-6.04188e-15
-1.02781e-14
-9.99958e-10
-1.14664e-14
-1.02825e-14
-9.99961e-10
-1.57751e-14
-1.02518e-14
-9.99965e-10
-1.85436e-14
-1.02029e-14
-9.99971e-10
-1.01483e-14
-9.99978e-10
-6.02178e-15
-1.41133e-14
-9.99962e-10
-1.14365e-14
-1.41272e-14
-9.99965e-10
-1.57284e-14
-1.40859e-14
-9.99969e-10
-1.84914e-14
-1.40069e-14
-9.99975e-10
-1.39016e-14
-9.99981e-10
-6.00254e-15
-1.6559e-14
-9.99968e-10
-1.13953e-14
-1.65878e-14
-9.9997e-10
-1.56503e-14
-1.65333e-14
-9.99974e-10
-1.83872e-14
-1.64217e-14
-9.9998e-10
-1.62535e-14
-9.99987e-10
-5.98934e-15
-9.99974e-10
-1.1336e-14
-9.99976e-10
-1.55362e-14
-9.9998e-10
-1.82207e-14
-9.99986e-10
-9.99993e-10
-8.23307e-15
-7.40187e-15
-9.99941e-10
-1.55998e-14
-7.3908e-15
-9.99944e-10
-2.14723e-14
-7.36721e-15
-9.9995e-10
-2.52539e-14
-7.33505e-15
-9.99958e-10
-7.30236e-15
-9.99967e-10
-8.22387e-15
-1.39985e-14
-9.99944e-10
-1.56125e-14
-1.39996e-14
-9.99947e-10
-2.14909e-14
-1.39581e-14
-9.99952e-10
-2.52786e-14
-1.38956e-14
-9.9996e-10
-1.3823e-14
-9.9997e-10
-8.19247e-15
-1.92389e-14
-9.99949e-10
-1.55716e-14
-1.92473e-14
-9.99952e-10
-2.14318e-14
-1.91823e-14
-9.99958e-10
-2.52072e-14
-1.9079e-14
-9.99966e-10
-1.89461e-14
-9.99975e-10
-8.15601e-15
-2.25871e-14
-9.99956e-10
-1.55049e-14
-2.26063e-14
-9.99959e-10
-2.13288e-14
-2.25139e-14
-9.99965e-10
-2.50673e-14
-2.23781e-14
-9.99973e-10
-2.2167e-14
-9.99982e-10
-8.1209e-15
-9.99964e-10
-1.54097e-14
-9.99968e-10
-2.11991e-14
-9.99973e-10
-2.48569e-14
-9.99981e-10
-9.9999e-10
-1.12098e-14
-1.00969e-14
-9.99919e-10
-2.12339e-14
-1.00798e-14
-9.99924e-10
-2.92348e-14
-1.00449e-14
-9.99932e-10
-3.44006e-14
-1.00002e-14
-9.99942e-10
-9.95702e-15
-9.99955e-10
-1.11955e-14
-1.90967e-14
-9.99923e-10
-2.1248e-14
-1.90989e-14
-9.99927e-10
-2.92581e-14
-1.90423e-14
-9.99935e-10
-3.44362e-14
-1.89645e-14
-9.99946e-10
-1.88725e-14
-9.99959e-10
-1.11539e-14
-2.62641e-14
-9.9993e-10
-2.11914e-14
-2.62709e-14
-9.99935e-10
-2.91838e-14
-2.61865e-14
-9.99942e-10
-3.43466e-14
-2.60715e-14
-9.99953e-10
-2.59269e-14
-9.99966e-10
-1.10999e-14
-3.08612e-14
-9.9994e-10
-2.11038e-14
-3.08727e-14
-9.99945e-10
-2.90683e-14
-3.07671e-14
-9.99952e-10
-3.41924e-14
-3.06348e-14
-9.99963e-10
-3.04234e-14
-9.99976e-10
-1.10396e-14
-9.99952e-10
-2.09959e-14
-9.99956e-10
-2.89461e-14
-9.99964e-10
-3.39825e-14
-9.99975e-10
-9.99987e-10
-1.52562e-14
-1.37823e-14
-9.9989e-10
-2.89111e-14
-1.37642e-14
-9.99896e-10
-3.98066e-14
-1.37084e-14
-9.99907e-10
-4.68462e-14
-1.36476e-14
-9.99922e-10
-1.35965e-14
-9.99939e-10
-1.52415e-14
-2.60966e-14
-9.99896e-10
-2.89209e-14
-2.61024e-14
-9.99901e-10
-3.98368e-14
-2.60244e-14
-9.99912e-10
-4.69021e-14
-2.59194e-14
-9.99927e-10
-2.57763e-14
-9.99944e-10
-1.51881e-14
-3.59023e-14
-9.99905e-10
-2.88426e-14
-3.59135e-14
-9.99911e-10
-3.97351e-14
-3.58063e-14
-9.99922e-10
-4.67632e-14
-3.56509e-14
-9.99936e-10
-3.542e-14
-9.99954e-10
-1.51165e-14
-4.22086e-14
-9.99919e-10
-2.87312e-14
-4.22206e-14
-9.99925e-10
-3.95794e-14
-4.20927e-14
-9.99935e-10
-4.6529e-14
-4.18977e-14
-9.9995e-10
-4.16007e-14
-9.99967e-10
-1.50325e-14
-9.99935e-10
-2.86008e-14
-9.9994e-10
-3.93884e-14
-9.99951e-10
-4.62328e-14
-9.99965e-10
-9.99982e-10
-2.0763e-14
-1.88157e-14
-9.99851e-10
-3.9392e-14
-1.87996e-14
-9.99858e-10
-5.42534e-14
-1.87232e-14
-9.99873e-10
-6.38612e-14
-1.86456e-14
-9.99893e-10
-1.85612e-14
-9.99917e-10
-2.07512e-14
-3.56808e-14
-9.99858e-10
-3.94037e-14
-3.56928e-14
-9.99866e-10
-5.42985e-14
-3.5583e-14
-9.9988e-10
-6.39218e-14
-3.5418e-14
-9.999e-10
-3.51667e-14
-9.99924e-10
-2.06833e-14
-4.90884e-14
-9.99871e-10
-3.92937e-14
-4.91095e-14
-9.99879e-10
-5.4138e-14
-4.89576e-14
-9.99894e-10
-6.36757e-14
-4.87057e-14
-9.99914e-10
-4.83185e-14
-9.99937e-10
-2.0592e-14
-5.77081e-14
-9.9989e-10
-3.91362e-14
-5.77283e-14
-9.99897e-10
-5.38858e-14
-5.75361e-14
-9.99912e-10
-6.32857e-14
-5.7196e-14
-9.99932e-10
-5.67118e-14
-9.99955e-10
-2.04825e-14
-9.99911e-10
-3.89406e-14
-9.99919e-10
-5.35492e-14
-9.99933e-10
-6.28017e-14
-9.99953e-10
-9.99976e-10
-2.8281e-14
-2.56881e-14
-9.99797e-10
-5.37309e-14
-2.56828e-14
-9.99807e-10
-7.40183e-14
-2.55873e-14
-9.99827e-10
-8.71151e-14
-2.54668e-14
-9.99855e-10
-2.52896e-14
-9.99887e-10
-2.82812e-14
-4.87732e-14
-9.99806e-10
-5.37541e-14
-4.87894e-14
-9.99817e-10
-7.40647e-14
-4.86168e-14
-9.99837e-10
-8.71347e-14
-4.83403e-14
-9.99865e-10
-4.79488e-14
-9.99897e-10
-2.81897e-14
-6.70838e-14
-9.99825e-10
-5.35816e-14
-6.7106e-14
-9.99835e-10
-7.37948e-14
-6.68621e-14
-9.99855e-10
-8.67497e-14
-6.64691e-14
-9.99883e-10
-6.59427e-14
-9.99915e-10
-2.80595e-14
-7.8823e-14
-9.9985e-10
-5.33298e-14
-7.88422e-14
-9.9986e-10
-7.34014e-14
-7.85387e-14
-9.9988e-10
-8.6219e-14
-7.80491e-14
-9.99907e-10
-7.74362e-14
-9.99939e-10
-2.79025e-14
-9.99879e-10
-5.30212e-14
-9.9989e-10
-7.29166e-14
-9.99909e-10
-8.56068e-14
-9.99936e-10
-9.99968e-10
-3.85766e-14
-3.50914e-14
-9.99723e-10
-7.33401e-14
-3.50996e-14
-9.99737e-10
-1.00999e-13
-3.49595e-14
-9.99765e-10
-1.188e-13
-3.4741e-14
-9.99802e-10
-3.44255e-14
-9.99847e-10
-3.85924e-14
-6.66476e-14
-9.99736e-10
-7.33614e-14
-6.66478e-14
-9.99751e-10
-1.01008e-13
-6.6355e-14
-9.99778e-10
-1.18751e-13
-6.59112e-14
-9.99816e-10
-6.536e-14
-9.9986e-10
-3.84466e-14
-9.16279e-14
-9.99761e-10
-7.30687e-14
-9.162e-14
-9.99776e-10
-1.00573e-13
-9.1215e-14
-9.99803e-10
-1.18209e-13
-9.06247e-14
-9.9984e-10
-8.99232e-14
-9.99884e-10
-3.82316e-14
-1.07601e-13
-9.99796e-10
-7.26528e-14
-1.07588e-13
-9.9981e-10
-9.99828e-14
-1.07102e-13
-9.99837e-10
-1.17502e-13
-1.06404e-13
-9.99874e-10
-1.05584e-13
-9.99917e-10
-3.79785e-14
-9.99836e-10
-7.21594e-14
-9.9985e-10
-9.92908e-14
-9.99877e-10
-1.16683e-13
-9.99913e-10
-9.99956e-10
-5.26669e-14
-4.79677e-14
-9.99622e-10
-1.00095e-13
-4.79638e-14
-9.99642e-10
-1.37761e-13
-4.77247e-14
-9.99679e-10
-1.61955e-13
-4.73593e-14
-9.99731e-10
-4.68982e-14
-9.99791e-10
-5.26735e-14
-9.10534e-14
-9.99641e-10
-1.00076e-13
-9.10022e-14
-9.9966e-10
-1.37705e-13
-9.05287e-14
-9.99698e-10
-1.61857e-13
-8.98676e-14
-9.99749e-10
-8.91054e-14
-9.99809e-10
-5.24235e-14
-1.25133e-13
-9.99675e-10
-9.96022e-14
-1.25061e-13
-9.99694e-10
-1.37057e-13
-1.24422e-13
-9.99731e-10
-1.61107e-13
-1.23541e-13
-9.99782e-10
-1.22516e-13
-9.99842e-10
-5.20705e-14
-1.46904e-13
-9.99722e-10
-9.8949e-14
-1.4682e-13
-9.99741e-10
-1.36175e-13
-1.46054e-13
-9.99778e-10
-1.60077e-13
-1.45002e-13
-9.99828e-10
-1.43756e-13
-9.99887e-10
-5.16596e-14
-9.99777e-10
-9.81721e-14
-9.99796e-10
-1.3513e-13
-9.99832e-10
-1.58833e-13
-9.99882e-10
-9.99941e-10
-7.18917e-14
-6.55783e-14
-9.99485e-10
-1.36565e-13
-6.55218e-14
-9.99512e-10
-1.87898e-13
-6.51367e-14
-9.99563e-10
-2.20863e-13
-6.45953e-14
-9.99633e-10
-6.39721e-14
-9.99716e-10
-7.18497e-14
-1.24415e-13
-9.9951e-10
-1.36479e-13
-1.24291e-13
-9.99537e-10
-1.87776e-13
-1.23579e-13
-9.99588e-10
-2.20731e-13
-1.22615e-13
-9.99658e-10
-1.21516e-13
-9.9974e-10
-7.14551e-14
-1.70956e-13
-9.99557e-10
-1.35768e-13
-1.70799e-13
-9.99584e-10
-1.8683e-13
-1.69829e-13
-9.99634e-10
-2.19651e-13
-1.68506e-13
-9.99703e-10
-1.66974e-13
-9.99785e-10
-7.0917e-14
-2.00665e-13
-9.99621e-10
-1.34781e-13
-2.00476e-13
-9.99648e-10
-1.85507e-13
-1.99316e-13
-9.99698e-10
-2.18112e-13
-1.97748e-13
-9.99766e-10
-1.95953e-13
-9.99847e-10
-7.0283e-14
-9.99697e-10
-1.33604e-13
-9.99723e-10
-1.83947e-13
-9.99772e-10
-2.16318e-13
-9.9984e-10
-9.9992e-10
-9.8105e-14
-8.96773e-14
-9.99297e-10
-1.86362e-13
-8.95572e-14
-9.99334e-10
-2.56429e-13
-8.89888e-14
-9.99404e-10
-3.0145e-13
-8.81997e-14
-9.995e-10
-8.72917e-14
-9.99613e-10
-9.80044e-14
-1.70127e-13
-9.99331e-10
-1.86198e-13
-1.69917e-13
-9.99369e-10
-2.56209e-13
-1.68853e-13
-9.99438e-10
-3.0121e-13
-1.67388e-13
-9.99534e-10
-1.65691e-13
-9.99646e-10
-9.74273e-14
-2.33741e-13
-9.99396e-10
-1.85135e-13
-2.33448e-13
-9.99433e-10
-2.54768e-13
-2.31963e-13
-9.99501e-10
-2.9954e-13
-2.2993e-13
-9.99596e-10
-2.27586e-13
-9.99708e-10
-9.66187e-14
-2.74265e-13
-9.99484e-10
-1.83628e-13
-2.73899e-13
-9.9952e-10
-2.52736e-13
-2.72139e-13
-9.99588e-10
-2.97188e-13
-2.69759e-13
-9.99682e-10
-2.67077e-13
-9.99792e-10
-9.56469e-14
-9.99587e-10
-1.81844e-13
-9.99623e-10
-2.50365e-13
-9.9969e-10
-2.94509e-13
-9.99782e-10
-9.99891e-10
-1.33934e-13
-1.2276e-13
-9.9904e-10
-2.54469e-13
-1.22577e-13
-9.99091e-10
-3.5018e-13
-1.21725e-13
-9.99187e-10
-4.11746e-13
-1.20514e-13
-9.99318e-10
-1.19086e-13
-9.99472e-10
-1.33777e-13
-2.32885e-13
-9.99088e-10
-2.54167e-13
-2.32517e-13
-9.99139e-10
-3.4974e-13
-2.30869e-13
-9.99233e-10
-4.11225e-13
-2.2859e-13
-9.99364e-10
-2.25931e-13
-9.99518e-10
-1.3291e-13
-3.19839e-13
-9.99176e-10
-2.52523e-13
-3.19287e-13
-9.99226e-10
-3.47495e-13
-3.1699e-13
-9.9932e-10
-4.08605e-13
-3.13855e-13
-9.9945e-10
-3.1023e-13
-9.99602e-10
-1.31657e-13
-3.75077e-13
-9.99297e-10
-2.50199e-13
-3.74401e-13
-9.99347e-10
-3.44361e-13
-3.71695e-13
-9.9944e-10
-4.04977e-13
-3.68e-13
-9.99567e-10
-3.63794e-13
-9.99718e-10
-1.30158e-13
-9.99439e-10
-2.47461e-13
-9.99488e-10
-3.40674e-13
-9.99579e-10
-4.00773e-13
-9.99705e-10
-9.99852e-10
-1.82991e-13
-1.68286e-13
-9.98689e-10
-3.47629e-13
-1.67969e-13
-9.98759e-10
-4.78383e-13
-1.66633e-13
-9.98889e-10
-5.62619e-13
-1.64754e-13
-9.99069e-10
-1.62556e-13
-9.9928e-10
-1.82709e-13
-3.19104e-13
-9.98755e-10
-3.47041e-13
-3.18418e-13
-9.98824e-10
-4.77553e-13
-3.15863e-13
-9.98954e-10
-5.61653e-13
-3.12373e-13
-9.99132e-10
-3.08326e-13
-9.99342e-10
-1.81346e-13
-4.37982e-13
-9.98876e-10
-3.44492e-13
-4.36993e-13
-9.98945e-10
-4.74109e-13
-4.33475e-13
-9.99073e-10
-5.57659e-13
-4.28691e-13
-9.9925e-10
-4.23158e-13
-9.99458e-10
-1.79406e-13
-5.1331e-13
-9.99043e-10
-3.40941e-13
-5.12143e-13
-9.9911e-10
-4.69329e-13
-5.07973e-13
-9.99237e-10
-5.5213e-13
-5.0228e-13
-9.99411e-10
-4.95786e-13
-9.99616e-10
-1.77124e-13
-9.99237e-10
-3.36729e-13
-9.99304e-10
-4.63641e-13
-9.99428e-10
-5.45638e-13
-9.99599e-10
-9.998e-10
-2.50142e-13
-2.3097e-13
-9.98208e-10
-4.75032e-13
-2.3037e-13
-9.98304e-10
-6.53714e-13
-2.2829e-13
-9.98482e-10
-7.6901e-13
-2.25446e-13
-9.98728e-10
-2.22171e-13
-9.99017e-10
-2.49589e-13
-4.37669e-13
-9.98298e-10
-4.7397e-13
-4.36466e-13
-9.98394e-10
-6.52292e-13
-4.32563e-13
-9.98571e-10
-7.67406e-13
-4.27285e-13
-9.98815e-10
-4.21194e-13
-9.99103e-10
-2.47467e-13
-6.00334e-13
-9.98466e-10
-4.7008e-13
-5.98662e-13
-9.9856e-10
-6.47078e-13
-5.93288e-13
-9.98735e-10
-7.61387e-13
-5.85996e-13
-9.98977e-10
-5.77538e-13
-9.99261e-10
-2.44508e-13
-7.03128e-13
-9.98696e-10
-4.64668e-13
-7.01139e-13
-9.98788e-10
-6.39797e-13
-6.94702e-13
-9.9896e-10
-7.52941e-13
-6.85953e-13
-9.99198e-10
-6.75869e-13
-9.99477e-10
-2.41011e-13
-9.98963e-10
-4.5818e-13
-9.99053e-10
-6.31052e-13
-9.99222e-10
-7.4286e-13
-9.99455e-10
-9.99729e-10
-3.42071e-13
-3.17384e-13
-9.97549e-10
-6.49403e-13
-3.16329e-13
-9.9768e-10
-8.93652e-13
-3.13154e-13
-9.97925e-10
-1.05148e-12
-3.08892e-13
-9.98261e-10
-3.03998e-13
-9.98657e-10
-3.41082e-13
-6.01066e-13
-9.97674e-10
-6.47614e-13
-5.99058e-13
-9.97804e-10
-8.9132e-13
-5.9312e-13
-9.98047e-10
-1.04885e-12
-5.85138e-13
-9.98381e-10
-5.75929e-13
-9.98775e-10
-3.37834e-13
-8.23845e-13
-9.97905e-10
-6.41703e-13
-8.21055e-13
-9.98034e-10
-8.83429e-13
-8.12826e-13
-9.98274e-10
-1.03973e-12
-8.01706e-13
-9.98604e-10
-7.88815e-13
-9.98992e-10
-3.33309e-13
-9.64023e-13
-9.98222e-10
-6.33435e-13
-9.60641e-13
-9.98348e-10
-8.72335e-13
-9.50732e-13
-9.98583e-10
-1.02685e-12
-9.37329e-13
-9.98907e-10
-9.21794e-13
-9.99289e-10
-3.27895e-13
-9.98591e-10
-6.23473e-13
-9.98713e-10
-8.58946e-13
-9.98943e-10
-1.01132e-12
-9.9926e-10
-9.99634e-10
-4.68155e-13
-4.36833e-13
-9.96644e-10
-8.88328e-13
-4.35063e-13
-9.96825e-10
-1.22216e-12
-4.30241e-13
-9.97161e-10
-1.4381e-12
-4.23846e-13
-9.97621e-10
-4.1649e-13
-9.98163e-10
-4.66486e-13
-8.26827e-13
-9.96817e-10
-8.85392e-13
-8.23494e-13
-9.96997e-10
-1.21839e-12
-8.14447e-13
-9.9733e-10
-1.43379e-12
-8.02391e-13
-9.97787e-10
-7.88564e-13
-9.98325e-10
-4.61491e-13
-1.13212e-12
-9.97139e-10
-8.76403e-13
-1.12747e-12
-9.97315e-10
-1.20647e-12
-1.11486e-12
-9.97643e-10
-1.42007e-12
-1.09801e-12
-9.98095e-10
-1.0787e-12
-9.98626e-10
-4.54509e-13
-1.32305e-12
-9.97577e-10
-8.63771e-13
-1.31739e-12
-9.97749e-10
-1.18967e-12
-1.30217e-12
-9.9807e-10
-1.40076e-12
-1.28181e-12
-9.98513e-10
-1.25845e-12
-9.99034e-10
-4.46128e-13
-9.98085e-10
-8.4852e-13
-9.98252e-10
-1.16936e-12
-9.98565e-10
-1.37741e-12
-9.98996e-10
-9.99506e-10
-6.41604e-13
-6.02459e-13
-9.954e-10
-1.2161e-12
-5.99473e-13
-9.95651e-10
-1.67205e-12
-5.92145e-13
-9.96112e-10
-1.96703e-12
-5.82557e-13
-9.96744e-10
-5.71691e-13
-9.97484e-10
-6.3879e-13
-1.13967e-12
-9.95641e-10
-1.21135e-12
-1.13408e-12
-9.95889e-10
-1.66602e-12
-1.12024e-12
-9.96347e-10
-1.96026e-12
-1.10212e-12
-9.96974e-10
-1.0817e-12
-9.97709e-10
-6.31002e-13
-1.55831e-12
-9.96089e-10
-1.19764e-12
-1.55047e-12
-9.96332e-10
-1.64811e-12
-1.53109e-12
-9.96782e-10
-1.93993e-12
-1.50572e-12
-9.97399e-10
-1.47716e-12
-9.98125e-10
-6.20093e-13
-1.81813e-12
-9.96697e-10
-1.17829e-12
-1.80862e-12
-9.96932e-10
-1.62284e-12
-1.78512e-12
-9.97372e-10
-1.91131e-12
-1.75426e-12
-9.97976e-10
-1.7194e-12
-9.98688e-10
-6.06982e-13
-9.974e-10
-1.15484e-12
-9.97627e-10
-1.59214e-12
-9.98052e-10
-1.87648e-12
-9.9864e-10
-9.99336e-10
-8.81392e-13
-8.32825e-13
-9.93686e-10
-1.6665e-12
-8.27624e-13
-9.94038e-10
-2.2883e-12
-8.16458e-13
-9.94674e-10
-2.69007e-12
-8.02093e-13
-9.9554e-10
-7.86408e-13
-9.96549e-10
-8.76539e-13
-1.57491e-12
-9.94022e-10
-1.65885e-12
-1.56523e-12
-9.94369e-10
-2.27877e-12
-1.54394e-12
-9.95e-10
-2.67984e-12
-1.51685e-12
-9.95858e-10
-1.48718e-12
-9.96861e-10
-8.64082e-13
-2.14917e-12
-9.9465e-10
-1.63781e-12
-2.13564e-12
-9.94988e-10
-2.25201e-12
-2.10568e-12
-9.95606e-10
-2.65019e-12
-2.06761e-12
-9.96451e-10
-2.02592e-12
-9.97441e-10
-8.46614e-13
-2.50241e-12
-9.95497e-10
-1.60802e-12
-2.48612e-12
-9.95821e-10
-2.21416e-12
-2.44957e-12
-9.96422e-10
-2.60833e-12
-2.40296e-12
-9.97246e-10
-2.35162e-12
-9.98218e-10
-8.2568e-13
-9.96473e-10
-1.57171e-12
-9.96781e-10
-2.16793e-12
-9.9736e-10
-2.55709e-12
-9.98161e-10
-9.99111e-10
-1.21601e-12
-1.15421e-12
-9.91315e-10
-2.28671e-12
-1.14445e-12
-9.91823e-10
-3.13269e-12
-1.1275e-12
-9.92701e-10
-3.6768e-12
-1.10581e-12
-9.9389e-10
-1.08367e-12
-9.95263e-10
-1.20713e-12
-2.184e-12
-9.91785e-10
-2.27452e-12
-2.16638e-12
-9.9228e-10
-3.11765e-12
-2.13347e-12
-9.93151e-10
-3.6618e-12
-2.09303e-12
-9.94327e-10
-2.05097e-12
-9.95692e-10
-1.18637e-12
-2.9711e-12
-9.92677e-10
-2.24205e-12
-2.94663e-12
-9.93152e-10
-3.07783e-12
-2.90003e-12
-9.94004e-10
-3.61952e-12
-2.84302e-12
-9.95159e-10
-2.78378e-12
-9.96509e-10
-1.15725e-12
-3.45125e-12
-9.93859e-10
-2.19587e-12
-3.42248e-12
-9.94306e-10
-3.02129e-12
-3.36507e-12
-9.95131e-10
-3.55976e-12
-3.2952e-12
-9.96256e-10
-3.22148e-12
-9.97584e-10
-1.12278e-12
-9.95225e-10
-2.1391e-12
-9.95641e-10
-2.95228e-12
-9.96429e-10
-3.48644e-12
-9.9752e-10
-9.98819e-10
-1.69136e-12
-1.60312e-12
-9.88021e-10
-3.14247e-12
-1.58242e-12
-9.88789e-10
-4.29077e-12
-1.55793e-12
-9.89995e-10
-5.01968e-12
-1.52389e-12
-9.91638e-10
-1.49413e-12
-9.93501e-10
-1.67341e-12
-3.04491e-12
-9.8867e-10
-3.1241e-12
-3.01047e-12
-9.89402e-10
-4.26625e-12
-2.95973e-12
-9.90607e-10
-4.99891e-12
-2.89896e-12
-9.92219e-10
-2.84155e-12
-9.9408e-10
-1.63691e-12
-4.11867e-12
-9.89966e-10
-3.0738e-12
-4.07086e-12
-9.90655e-10
-4.20704e-12
-3.99839e-12
-9.91832e-10
-4.94066e-12
-3.91236e-12
-9.93412e-10
-3.83192e-12
-9.95252e-10
-1.58504e-12
-4.7752e-12
-9.91618e-10
-3.00195e-12
-4.72126e-12
-9.92239e-10
-4.12214e-12
-4.62905e-12
-9.9338e-10
-4.85866e-12
-4.5254e-12
-9.94906e-10
-4.42256e-12
-9.96729e-10
-1.52472e-12
-9.93567e-10
-2.91089e-12
-9.94117e-10
-4.02041e-12
-9.95187e-10
-4.75759e-12
-9.96666e-10
-9.98454e-10
-2.38926e-12
-2.22626e-12
-9.83405e-10
-4.3216e-12
-2.17389e-12
-9.84683e-10
-5.88368e-12
-2.14666e-12
-9.86286e-10
-6.84088e-12
-2.08572e-12
-9.88595e-10
-2.05148e-12
-9.91129e-10
-2.34788e-12
-4.28473e-12
-9.84264e-10
-4.30046e-12
-4.21141e-12
-9.85412e-10
-5.83872e-12
-4.13514e-12
-9.8708e-10
-6.81659e-12
-4.04178e-12
-9.89285e-10
-3.9662e-12
-9.91854e-10
-2.28022e-12
-5.72326e-12
-9.86248e-10
-4.22261e-12
-5.61841e-12
-9.87306e-10
-5.75066e-12
-5.5104e-12
-9.88929e-10
-6.73883e-12
-5.37522e-12
-9.91091e-10
-5.27616e-12
-9.93604e-10
-2.17809e-12
-6.64822e-12
-9.88515e-10
-4.11385e-12
-6.53704e-12
-9.89385e-10
-5.61878e-12
-6.38133e-12
-9.91005e-10
-6.63487e-12
-6.23054e-12
-9.93035e-10
-6.09113e-12
-9.95581e-10
-2.06031e-12
-9.91449e-10
-3.95768e-12
-9.92124e-10
-5.4717e-12
-9.93561e-10
-6.5034e-12
-9.9554e-10
-9.98025e-10
-3.47205e-12
-3.06584e-12
-9.76867e-10
-5.9131e-12
-2.91021e-12
-9.79332e-10
-8.09565e-12
-2.92348e-12
-9.8118e-10
-9.30462e-12
-2.7828e-12
-9.84603e-10
-2.76709e-12
-9.88127e-10
-3.36069e-12
-6.13577e-12
-9.77833e-10
-5.93365e-12
-5.96707e-12
-9.79782e-10
-7.98622e-12
-5.86211e-12
-9.82089e-10
-9.29684e-12
-5.71177e-12
-9.85046e-10
-5.60418e-12
-9.8883e-10
-3.23579e-12
-7.93919e-12
-9.81209e-10
-5.81053e-12
-7.67286e-12
-9.83025e-10
-7.86077e-12
-7.55125e-12
-9.8519e-10
-9.1827e-12
-7.3048e-12
-9.88176e-10
-7.22402e-12
-9.91623e-10
-3.00805e-12
-9.3854e-12
-9.84061e-10
-5.67594e-12
-9.12827e-12
-9.85261e-10
-7.62623e-12
-8.83465e-12
-9.87771e-10
-9.08248e-12
-8.62729e-12
-9.90256e-10
-8.42767e-12
-9.9406e-10
-2.73309e-12
-9.89097e-10
-5.35988e-12
-9.89695e-10
-7.42358e-12
-9.91556e-10
-8.9186e-12
-9.94079e-10
-9.9759e-10
-5.29106e-12
-4.15601e-12
-9.6742e-10
-7.97734e-12
-3.69021e-12
-9.72956e-10
-1.12614e-11
-3.93531e-12
-9.73961e-10
-1.26541e-11
-3.53551e-12
-9.79675e-10
-3.61457e-12
-9.84844e-10
-4.94955e-12
-9.06963e-12
-9.6797e-10
-8.20813e-12
-8.64699e-12
-9.71567e-10
-1.08692e-11
-8.5552e-12
-9.74808e-10
-1.27645e-11
-8.28277e-12
-9.78403e-10
-8.042e-12
-9.85006e-10
-4.75943e-12
-1.09086e-11
-9.7461e-10
-7.95004e-12
-1.01559e-11
-9.78326e-10
-1.07688e-11
-1.01887e-11
-9.80737e-10
-1.24803e-11
-9.61266e-12
-9.85134e-10
-9.71169e-12
-9.89742e-10
-4.16955e-12
-1.36224e-11
-9.77177e-10
-7.99967e-12
-1.29881e-11
-9.78599e-10
-1.01704e-11
-1.23388e-11
-9.8345e-10
-1.2549e-11
-1.21271e-11
-9.85363e-10
-1.17064e-11
-9.9228e-10
-3.40701e-12
-9.8756e-10
-7.14307e-12
-9.87248e-10
-9.94339e-12
-9.89508e-10
-1.22923e-11
-9.92232e-10
-9.97294e-10
-8.58597e-12
-5.63561e-12
-9.53199e-10
-1.06684e-11
-4.29341e-12
-9.6658e-10
-1.6031e-11
-5.45061e-12
-9.63148e-10
-1.71921e-11
-4.17978e-12
-9.74334e-10
-4.5758e-12
-9.82189e-10
-7.58001e-12
-1.39425e-11
-9.52083e-10
-1.14931e-11
-1.27329e-11
-9.59214e-10
-1.45169e-11
-1.30149e-11
-9.64221e-10
-1.77304e-11
-1.23444e-11
-9.67026e-10
-1.16241e-11
-9.80812e-10
-7.45344e-12
-1.51607e-11
-9.65939e-10
-1.06037e-11
-1.29614e-11
-9.74947e-10
-1.49947e-11
-1.37235e-11
-9.75638e-10
-1.67224e-11
-1.21055e-11
-9.83645e-10
-1.28127e-11
-9.88586e-10
-5.72325e-12
-2.03498e-11
-9.66265e-10
-1.18271e-11
-1.88291e-11
-9.66628e-10
-1.32403e-11
-1.73508e-11
-9.7841e-10
-1.77202e-11
-1.75625e-11
-9.75426e-10
-1.6092e-11
-9.91241e-10
-3.71456e-12
-9.89177e-10
-9.08947e-12
-9.85643e-10
-1.28545e-11
-9.88333e-10
-1.70203e-11
-9.8985e-10
-9.97249e-10
-1.49151e-11
-7.86337e-12
-9.3042e-10
-1.41267e-11
-4.18379e-12
-9.63184e-10
-2.35438e-11
-8.29063e-12
-9.4544e-10
-2.28256e-11
-4.23532e-12
-9.70817e-10
-5.54947e-12
-9.81922e-10
-1.22887e-11
-2.20209e-11
-9.25637e-10
-1.68235e-11
-1.84319e-11
-9.40432e-10
-1.93519e-11
-2.05292e-11
-9.49454e-10
-2.4632e-11
-1.85969e-11
-9.47384e-10
-1.66651e-11
-9.77239e-10
-1.27204e-11
-2.24231e-11
-9.52816e-10
-1.39906e-11
-1.58531e-11
-9.76256e-10
-2.17478e-11
-1.94116e-11
-9.68998e-10
-2.10543e-11
-1.43667e-11
-9.88569e-10
-1.69088e-11
-9.8752e-10
-8.14492e-12
-3.07696e-11
-9.49774e-10
-1.83168e-11
-2.70955e-11
-9.45213e-10
-1.73335e-11
-2.38371e-11