/*--------------------------------*- C++ -*----------------------------------*\
| =========                 |                                                 |
| \\      /  F ield         | OpenFOAM: The Open Source CFD Toolbox           |
|  \\    /   O peration     | Version:  5.x                                   |
|   \\  /    A nd           | Web:      www.OpenFOAM.org                      |
|    \\/     M anipulation  |                                                 |
\*---------------------------------------------------------------------------*/
FoamFile
{
    version     2.0;
    format      ascii;
    class       volVectorField;
    location    "0.06";
    object      U;
}
// * * * * * * * * * * * * * * * * * * * * * * * * * * * * * * * * * * * * * //

dimensions      [0 1 -1 0 0 0 0];

internalField   nonuniform List<vector> 
2250
(
(-3.17512e-11 -2.60183e-11 -0.000999997)
(-9.05523e-11 -2.66482e-11 -0.000999997)
(-1.38194e-10 -2.50771e-11 -0.000999998)
(-1.80375e-10 -2.25544e-11 -0.000999998)
(-1.91794e-10 -1.31282e-11 -0.000999998)
(-3.2393e-11 -7.12416e-11 -0.000999997)
(-8.97541e-11 -6.87811e-11 -0.000999998)
(-1.34387e-10 -6.5761e-11 -0.000999998)
(-1.68777e-10 -6.13056e-11 -0.000999998)
(-1.87773e-10 -4.43828e-11 -0.000999998)
(-2.9203e-11 -1.02e-10 -0.000999998)
(-8.51129e-11 -9.68758e-11 -0.000999998)
(-1.31017e-10 -9.71608e-11 -0.000999998)
(-1.59383e-10 -9.81459e-11 -0.000999998)
(-1.83511e-10 -9.39114e-11 -0.000999998)
(-2.70694e-11 -1.18477e-10 -0.000999998)
(-8.47026e-11 -1.16966e-10 -0.000999998)
(-1.35659e-10 -1.2212e-10 -0.000999998)
(-1.65546e-10 -1.32321e-10 -0.000999998)
(-1.88054e-10 -1.63101e-10 -0.000999999)
(-2.75021e-11 -1.47273e-10 -0.000999998)
(-8.85438e-11 -1.49962e-10 -0.000999998)
(-1.46352e-10 -1.55816e-10 -0.000999998)
(-2.00332e-10 -1.62828e-10 -0.000999999)
(-2.04475e-10 -1.77299e-10 -0.000999999)
(-8.47613e-11 -6.91267e-11 -0.000999997)
(-2.43793e-10 -6.78193e-11 -0.000999997)
(-3.72649e-10 -6.49026e-11 -0.000999997)
(-4.72571e-10 -5.95183e-11 -0.000999998)
(-5.19233e-10 -4.29676e-11 -0.000999998)
(-8.3485e-11 -1.93554e-10 -0.000999997)
(-2.39904e-10 -1.87827e-10 -0.000999997)
(-3.65041e-10 -1.85366e-10 -0.000999998)
(-4.51525e-10 -1.82514e-10 -0.000999998)
(-5.12626e-10 -1.66041e-10 -0.000999998)
(-7.88355e-11 -2.8865e-10 -0.000999997)
(-2.35708e-10 -2.85514e-10 -0.000999997)
(-3.68062e-10 -2.9534e-10 -0.000999998)
(-4.54208e-10 -3.14004e-10 -0.000999998)
(-5.16381e-10 -3.42733e-10 -0.000999998)
(-7.98463e-11 -3.56251e-10 -0.000999998)
(-2.46065e-10 -3.67548e-10 -0.000999998)
(-3.93535e-10 -3.87303e-10 -0.000999998)
(-4.9896e-10 -4.30309e-10 -0.000999998)
(-5.39006e-10 -5.49037e-10 -0.000999999)
(-8.95638e-11 -4.33098e-10 -0.000999998)
(-2.66153e-10 -4.46076e-10 -0.000999998)
(-4.30791e-10 -4.58902e-10 -0.000999998)
(-6.15977e-10 -4.76688e-10 -0.000999999)
(-5.65196e-10 -4.98723e-10 -0.000999999)
(-1.39003e-10 -1.16469e-10 -0.000999997)
(-4.09313e-10 -1.1498e-10 -0.000999997)
(-6.30996e-10 -1.14995e-10 -0.000999997)
(-7.75304e-10 -1.15228e-10 -0.000999997)
(-8.79734e-10 -1.18541e-10 -0.000999998)
(-1.37553e-10 -3.42948e-10 -0.000999997)
(-4.08372e-10 -3.42789e-10 -0.000999997)
(-6.32442e-10 -3.5219e-10 -0.000999997)
(-7.80447e-10 -3.71442e-10 -0.000999998)
(-8.89437e-10 -4.06458e-10 -0.000999998)
(-1.38468e-10 -5.40598e-10 -0.000999997)
(-4.18668e-10 -5.52363e-10 -0.000999997)
(-6.6087e-10 -5.80148e-10 -0.000999997)
(-8.31199e-10 -6.30483e-10 -0.000999998)
(-9.20701e-10 -7.1257e-10 -0.000999998)
(-1.4834e-10 -6.96183e-10 -0.000999997)
(-4.46926e-10 -7.21963e-10 -0.000999998)
(-7.10567e-10 -7.553e-10 -0.000999998)
(-9.12952e-10 -8.21596e-10 -0.000999998)
(-9.53244e-10 -9.55977e-10 -0.000999999)
(-1.62939e-10 -8.07569e-10 -0.000999998)
(-4.76445e-10 -8.23791e-10 -0.000999998)
(-7.60424e-10 -8.35717e-10 -0.000999998)
(-1.03187e-09 -8.47207e-10 -0.000999999)
(-9.76842e-10 -8.63124e-10 -0.000999999)
(-2.06823e-10 -1.80692e-10 -0.000999996)
(-6.16392e-10 -1.82876e-10 -0.000999996)
(-9.56815e-10 -1.90794e-10 -0.000999997)
(-1.16726e-09 -2.04398e-10 -0.000999997)
(-1.33044e-09 -2.3753e-10 -0.000999997)
(-2.09067e-10 -5.45545e-10 -0.000999996)
(-6.27381e-10 -5.57188e-10 -0.000999996)
(-9.80244e-10 -5.84851e-10 -0.000999997)
(-1.21652e-09 -6.33321e-10 -0.000999997)
(-1.36579e-09 -7.19892e-10 -0.000999998)
(-2.17806e-10 -8.76793e-10 -0.000999997)
(-6.55872e-10 -9.02101e-10 -0.000999997)
(-1.03484e-09 -9.43893e-10 -0.000999997)
(-1.30477e-09 -1.0115e-09 -0.000999998)
(-1.41933e-09 -1.10819e-09 -0.000999998)
(-2.32673e-10 -1.12396e-09 -0.000999997)
(-6.92789e-10 -1.15437e-09 -0.000999997)
(-1.08964e-09 -1.189e-09 -0.000999998)
(-1.38093e-09 -1.24493e-09 -0.000999998)
(-1.4447e-09 -1.3112e-09 -0.000999999)
(-2.45959e-10 -1.26179e-09 -0.000999997)
(-7.18621e-10 -1.27471e-09 -0.000999998)
(-1.12525e-09 -1.28121e-09 -0.000999998)
(-1.42693e-09 -1.27711e-09 -0.000999998)
(-1.44493e-09 -1.26756e-09 -0.000999999)
(-3.06275e-10 -2.75145e-10 -0.000999995)
(-9.04588e-10 -2.81759e-10 -0.000999995)
(-1.40158e-09 -2.96752e-10 -0.000999996)
(-1.72244e-09 -3.18639e-10 -0.000999996)
(-1.93708e-09 -3.60815e-10 -0.000999997)
(-3.12948e-10 -8.20552e-10 -0.000999995)
(-9.2749e-10 -8.40864e-10 -0.000999996)
(-1.44126e-09 -8.78964e-10 -0.000999996)
(-1.79007e-09 -9.37007e-10 -0.000999997)
(-1.97901e-09 -1.02729e-09 -0.000999997)
(-3.2552e-10 -1.3036e-09 -0.000999996)
(-9.63164e-10 -1.33263e-09 -0.000999996)
(-1.50047e-09 -1.3732e-09 -0.000999996)
(-1.87427e-09 -1.43053e-09 -0.000999997)
(-2.03169e-09 -1.50073e-09 -0.000999998)
(-3.39415e-10 -1.64646e-09 -0.000999996)
(-9.94546e-10 -1.67625e-09 -0.000999997)
(-1.53917e-09 -1.69826e-09 -0.000999997)
(-1.91774e-09 -1.72523e-09 -0.000999998)
(-2.04772e-09 -1.74556e-09 -0.000999998)
(-3.52002e-10 -1.81979e-09 -0.000999997)
(-1.01161e-09 -1.82959e-09 -0.000999997)
(-1.5493e-09 -1.82835e-09 -0.000999998)
(-1.92156e-09 -1.81613e-09 -0.000999998)
(-2.03353e-09 -1.79506e-09 -0.000999999)
(-4.49815e-10 -4.07949e-10 -0.000999994)
(-1.30136e-09 -4.14493e-10 -0.000999994)
(-1.99605e-09 -4.27978e-10 -0.000999995)
(-2.46455e-09 -4.43032e-10 -0.000999995)
(-2.74727e-09 -4.66005e-10 -0.000999996)
(-4.56436e-10 -1.18554e-09 -0.000999994)
(-1.32315e-09 -1.20326e-09 -0.000999994)
(-2.02841e-09 -1.23289e-09 -0.000999995)
(-2.50731e-09 -1.27249e-09 -0.000999996)
(-2.77168e-09 -1.3285e-09 -0.000999997)
(-4.66077e-10 -1.84976e-09 -0.000999995)
(-1.34894e-09 -1.87153e-09 -0.000999995)
(-2.0691e-09 -1.89463e-09 -0.000999995)
(-2.56499e-09 -1.93168e-09 -0.000999996)
(-2.81222e-09 -1.99483e-09 -0.000999997)
(-4.74673e-10 -2.33022e-09 -0.000999995)
(-1.36447e-09 -2.34977e-09 -0.000999996)
(-2.08856e-09 -2.35176e-09 -0.000999996)
(-2.60777e-09 -2.37777e-09 -0.000999997)
(-2.83348e-09 -2.44087e-09 -0.000999998)
(-4.81158e-10 -2.55742e-09 -0.000999996)
(-1.36587e-09 -2.56162e-09 -0.000999996)
(-2.09685e-09 -2.55259e-09 -0.000999997)
(-2.65413e-09 -2.54665e-09 -0.000999998)
(-2.86161e-09 -2.57416e-09 -0.000999999)
(-6.39381e-10 -5.80456e-10 -0.000999992)
(-1.82402e-09 -5.81696e-10 -0.000999992)
(-2.77695e-09 -5.85138e-10 -0.000999993)
(-3.43464e-09 -5.85417e-10 -0.000999994)
(-3.83491e-09 -5.87068e-10 -0.000999995)
(-6.40727e-10 -1.66182e-09 -0.000999992)
(-1.831e-09 -1.66724e-09 -0.000999993)
(-2.78576e-09 -1.67535e-09 -0.000999993)
(-3.44287e-09 -1.68918e-09 -0.000999994)
(-3.84663e-09 -1.71882e-09 -0.000999996)
(-6.42892e-10 -2.56906e-09 -0.000999993)
(-1.83784e-09 -2.5765e-09 -0.000999993)
(-2.80409e-09 -2.57859e-09 -0.000999994)
(-3.48469e-09 -2.60723e-09 -0.000999995)
(-3.88809e-09 -2.69529e-09 -0.000999996)
(-6.43412e-10 -3.24763e-09 -0.000999994)
(-1.8357e-09 -3.2436e-09 -0.000999994)
(-2.81649e-09 -3.23063e-09 -0.000999995)
(-3.55987e-09 -3.28344e-09 -0.000999996)
(-3.93954e-09 -3.45439e-09 -0.000999997)
(-6.32911e-10 -3.55654e-09 -0.000999995)
(-1.81461e-09 -3.55075e-09 -0.000999995)
(-2.84367e-09 -3.54402e-09 -0.000999996)
(-3.70846e-09 -3.56595e-09 -0.000999997)
(-3.99841e-09 -3.62534e-09 -0.000999998)
(-8.80297e-10 -7.9788e-10 -0.000999989)
(-2.51202e-09 -7.94406e-10 -0.000999989)
(-3.83651e-09 -7.88959e-10 -0.000999991)
(-4.77701e-09 -7.82729e-10 -0.000999992)
(-5.3449e-09 -7.81796e-10 -0.000999994)
(-8.7697e-10 -2.28628e-09 -0.000999989)
(-2.50617e-09 -2.28165e-09 -0.00099999)
(-3.83177e-09 -2.27401e-09 -0.000999991)
(-4.77856e-09 -2.27735e-09 -0.000999992)
(-5.36504e-09 -2.30224e-09 -0.000999994)
(-8.73127e-10 -3.53459e-09 -0.00099999)
(-2.50015e-09 -3.53091e-09 -0.000999991)
(-3.83934e-09 -3.5236e-09 -0.000999992)
(-4.81438e-09 -3.55046e-09 -0.000999993)
(-5.41246e-09 -3.63535e-09 -0.000999995)
(-8.66866e-10 -4.46697e-09 -0.000999992)
(-2.4886e-09 -4.44447e-09 -0.000999992)
(-3.85132e-09 -4.43207e-09 -0.000999993)
(-4.89073e-09 -4.48676e-09 -0.000999995)
(-5.48814e-09 -4.65212e-09 -0.000999996)
(-8.42624e-10 -4.89766e-09 -0.000999993)
(-2.45679e-09 -4.88674e-09 -0.000999994)
(-3.88122e-09 -4.89379e-09 -0.000999995)
(-5.03442e-09 -4.94396e-09 -0.000999996)
(-5.55776e-09 -5.00764e-09 -0.000999998)
(-1.19738e-09 -1.08198e-09 -0.000999985)
(-3.44767e-09 -1.08056e-09 -0.000999986)
(-5.31749e-09 -1.07418e-09 -0.000999987)
(-6.68438e-09 -1.07208e-09 -0.000999989)
(-7.45252e-09 -1.07381e-09 -0.000999992)
(-1.19618e-09 -3.12569e-09 -0.000999986)
(-3.44413e-09 -3.12342e-09 -0.000999986)
(-5.31862e-09 -3.11392e-09 -0.000999988)
(-6.69621e-09 -3.11752e-09 -0.00099999)
(-7.47875e-09 -3.12975e-09 -0.000999992)
(-1.19164e-09 -4.84853e-09 -0.000999987)
(-3.43651e-09 -4.84594e-09 -0.000999988)
(-5.32146e-09 -4.84089e-09 -0.000999989)
(-6.71298e-09 -4.8562e-09 -0.000999991)
(-7.50725e-09 -4.88718e-09 -0.000999994)
(-1.18484e-09 -6.1088e-09 -0.000999989)
(-3.42752e-09 -6.09391e-09 -0.000999989)
(-5.32889e-09 -6.09279e-09 -0.000999991)
(-6.74309e-09 -6.11305e-09 -0.000999993)
(-7.55921e-09 -6.15751e-09 -0.000999995)
(-1.1658e-09 -6.71358e-09 -0.000999991)
(-3.40894e-09 -6.70972e-09 -0.000999992)
(-5.34004e-09 -6.72428e-09 -0.000999993)
(-6.77769e-09 -6.76405e-09 -0.000999995)
(-7.61251e-09 -6.80751e-09 -0.000999997)
(-1.63364e-09 -1.47173e-09 -0.00099998)
(-4.7388e-09 -1.47653e-09 -0.000999981)
(-7.36191e-09 -1.47231e-09 -0.000999983)
(-9.29498e-09 -1.47183e-09 -0.000999985)
(-1.03111e-08 -1.46423e-09 -0.000999989)
(-1.63873e-09 -4.27534e-09 -0.00099998)
(-4.74526e-09 -4.28222e-09 -0.000999982)
(-7.37049e-09 -4.27345e-09 -0.000999984)
(-9.3038e-09 -4.26866e-09 -0.000999986)
(-1.03244e-08 -4.25148e-09 -0.00099999)
(-1.63579e-09 -6.64469e-09 -0.000999982)
(-4.7378e-09 -6.65054e-09 -0.000999983)
(-7.36197e-09 -6.64487e-09 -0.000999985)
(-9.29069e-09 -6.63581e-09 -0.000999988)
(-1.03176e-08 -6.61267e-09 -0.000999991)
(-1.63264e-09 -8.35789e-09 -0.000999985)
(-4.73321e-09 -8.3653e-09 -0.000999986)
(-7.35578e-09 -8.36797e-09 -0.000999988)
(-9.27239e-09 -8.34809e-09 -0.000999991)
(-1.03172e-08 -8.30802e-09 -0.000999994)
(-1.62814e-09 -9.20742e-09 -0.000999988)
(-4.73206e-09 -9.2156e-09 -0.000999989)
(-7.344e-09 -9.22045e-09 -0.000999991)
(-9.23075e-09 -9.21571e-09 -0.000999993)
(-1.03296e-08 -9.21984e-09 -0.000999996)
(-2.23717e-09 -2.01212e-09 -0.000999972)
(-6.5007e-09 -2.01823e-09 -0.000999974)
(-1.01166e-08 -2.01248e-09 -0.000999976)
(-1.27599e-08 -2.00566e-09 -0.00099998)
(-1.41222e-08 -1.98845e-09 -0.000999985)
(-2.2437e-09 -5.84669e-09 -0.000999974)
(-6.50911e-09 -5.85504e-09 -0.000999975)
(-1.01222e-08 -5.83951e-09 -0.000999978)
(-1.2759e-08 -5.81663e-09 -0.000999981)
(-1.41261e-08 -5.77913e-09 -0.000999986)
(-2.23911e-09 -9.0851e-09 -0.000999976)
(-6.49478e-09 -9.09358e-09 -0.000999977)
(-1.00969e-08 -9.07566e-09 -0.00099998)
(-1.27238e-08 -9.03875e-09 -0.000999984)
(-1.41012e-08 -8.989e-09 -0.000999988)
(-2.23592e-09 -1.14259e-08 -0.000999979)
(-6.48298e-09 -1.14435e-08 -0.000999981)
(-1.00674e-08 -1.1428e-08 -0.000999983)
(-1.26734e-08 -1.13744e-08 -0.000999987)
(-1.40639e-08 -1.12954e-08 -0.000999991)
(-2.23607e-09 -1.26202e-08 -0.000999983)
(-6.4752e-09 -1.26348e-08 -0.000999985)
(-1.00268e-08 -1.26197e-08 -0.000999987)
(-1.25912e-08 -1.25719e-08 -0.000999991)
(-1.40457e-08 -1.25476e-08 -0.000999995)
(-3.05948e-09 -2.75096e-09 -0.000999962)
(-8.87988e-09 -2.75084e-09 -0.000999964)
(-1.38121e-08 -2.7415e-09 -0.000999968)
(-1.74008e-08 -2.72858e-09 -0.000999973)
(-1.92557e-08 -2.71268e-09 -0.000999979)
(-3.05995e-09 -7.97796e-09 -0.000999964)
(-8.88135e-09 -7.97694e-09 -0.000999966)
(-1.38146e-08 -7.95197e-09 -0.00099997)
(-1.74036e-08 -7.91442e-09 -0.000999975)
(-1.92689e-08 -7.87151e-09 -0.000999981)
(-3.04986e-09 -1.23878e-08 -0.000999967)
(-8.85565e-09 -1.23902e-08 -0.000999969)
(-1.3775e-08 -1.23539e-08 -0.000999973)
(-1.73534e-08 -1.22899e-08 -0.000999978)
(-1.9238e-08 -1.22114e-08 -0.000999984)
(-3.04033e-09 -1.55835e-08 -0.000999972)
(-8.82481e-09 -1.55954e-08 -0.000999974)
(-1.37143e-08 -1.55453e-08 -0.000999977)
(-1.72625e-08 -1.54496e-08 -0.000999982)
(-1.91857e-08 -1.53295e-08 -0.000999988)
(-3.03371e-09 -1.72567e-08 -0.000999977)
(-8.78806e-09 -1.72693e-08 -0.000999979)
(-1.36278e-08 -1.72267e-08 -0.000999983)
(-1.71376e-08 -1.71565e-08 -0.000999988)
(-1.91486e-08 -1.71114e-08 -0.000999994)
(-4.17204e-09 -3.75411e-09 -0.000999949)
(-1.20976e-08 -3.74669e-09 -0.000999952)
(-1.88124e-08 -3.73459e-09 -0.000999957)
(-2.37104e-08 -3.71837e-09 -0.000999963)
(-2.62516e-08 -3.70237e-09 -0.000999972)
(-4.16543e-09 -1.08734e-08 -0.000999951)
(-1.20929e-08 -1.08624e-08 -0.000999954)
(-1.88178e-08 -1.08292e-08 -0.000999959)
(-2.37212e-08 -1.07816e-08 -0.000999966)
(-2.62747e-08 -1.07295e-08 -0.000999974)
(-4.14939e-09 -1.68819e-08 -0.000999956)
(-1.20558e-08 -1.68775e-08 -0.000999958)
(-1.87664e-08 -1.68235e-08 -0.000999963)
(-2.36558e-08 -1.67395e-08 -0.00099997)
(-2.6223e-08 -1.66344e-08 -0.000999978)
(-4.1311e-09 -2.1248e-08 -0.000999962)
(-1.20036e-08 -2.12501e-08 -0.000999965)
(-1.86798e-08 -2.117e-08 -0.00099997)
(-2.35341e-08 -2.105e-08 -0.000999976)
(-2.61432e-08 -2.09038e-08 -0.000999984)
(-4.11336e-09 -2.35695e-08 -0.000999969)
(-1.19377e-08 -2.35729e-08 -0.000999972)
(-1.85643e-08 -2.34962e-08 -0.000999977)
(-2.33895e-08 -2.3404e-08 -0.000999984)
(-2.60837e-08 -2.33367e-08 -0.000999992)
(-5.68139e-09 -5.12197e-09 -0.000999931)
(-1.64704e-08 -5.11105e-09 -0.000999934)
(-2.56127e-08 -5.09328e-09 -0.000999941)
(-3.22947e-08 -5.07079e-09 -0.00099995)
(-3.57863e-08 -5.04906e-09 -0.000999961)
(-5.67156e-09 -1.48342e-08 -0.000999934)
(-1.64618e-08 -1.48188e-08 -0.000999937)
(-2.56183e-08 -1.47722e-08 -0.000999944)
(-3.23089e-08 -1.47104e-08 -0.000999954)
(-3.5813e-08 -1.46424e-08 -0.000999965)
(-5.65014e-09 -2.30413e-08 -0.00099994)
(-1.64116e-08 -2.30334e-08 -0.000999944)
(-2.55515e-08 -2.29614e-08 -0.00099995)
(-3.22261e-08 -2.2863e-08 -0.00099996)
(-3.57258e-08 -2.2739e-08 -0.000999971)
(-5.62284e-09 -2.90182e-08 -0.000999949)
(-1.63399e-08 -2.90124e-08 -0.000999952)
(-2.54481e-08 -2.89163e-08 -0.000999959)
(-3.20893e-08 -2.87908e-08 -0.000999968)
(-3.55961e-08 -2.86415e-08 -0.000999979)
(-5.59235e-09 -3.22008e-08 -0.000999959)
(-1.6255e-08 -3.21966e-08 -0.000999962)
(-2.53273e-08 -3.2093e-08 -0.000999969)
(-3.19513e-08 -3.19683e-08 -0.000999978)
(-3.54665e-08 -3.18374e-08 -0.000999989)
(-7.73411e-09 -6.99317e-09 -0.000999906)
(-2.24249e-08 -6.98077e-09 -0.000999911)
(-3.48768e-08 -6.95226e-09 -0.00099992)
(-4.39797e-08 -6.92126e-09 -0.000999932)
(-4.8768e-08 -6.89465e-09 -0.000999947)
(-7.72314e-09 -2.02652e-08 -0.00099991)
(-2.24113e-08 -2.02483e-08 -0.000999915)
(-3.48795e-08 -2.018e-08 -0.000999924)
(-4.40012e-08 -2.00953e-08 -0.000999937)
(-4.87975e-08 -1.99962e-08 -0.000999952)
(-7.6956e-09 -3.14941e-08 -0.000999919)
(-2.23439e-08 -3.14857e-08 -0.000999923)
(-3.47879e-08 -3.13908e-08 -0.000999933)
(-4.38789e-08 -3.1258e-08 -0.000999945)
(-4.86568e-08 -3.10667e-08 -0.00099996)
(-7.65916e-09 -3.96779e-08 -0.00099993)
(-2.22508e-08 -3.96697e-08 -0.000999935)
(-3.4652e-08 -3.95508e-08 -0.000999944)
(-4.36808e-08 -3.93726e-08 -0.000999957)
(-4.84497e-08 -3.91167e-08 -0.000999971)
(-7.61661e-09 -4.40042e-08 -0.000999944)
(-2.21423e-08 -4.39999e-08 -0.000999949)
(-3.44873e-08 -4.38706e-08 -0.000999958)
(-4.34449e-08 -4.36889e-08 -0.00099997)
(-4.82257e-08 -4.34711e-08 -0.000999985)
(-1.05286e-08 -9.54944e-09 -0.000999872)
(-3.05458e-08 -9.5365e-09 -0.000999878)
(-4.7531e-08 -9.49715e-09 -0.000999891)
(-5.9951e-08 -9.45687e-09 -0.000999908)
(-6.64754e-08 -9.41297e-09 -0.000999929)
(-1.05176e-08 -2.76956e-08 -0.000999878)
(-3.05304e-08 -2.7679e-08 -0.000999884)
(-4.75357e-08 -2.75835e-08 -0.000999897)
(-5.99743e-08 -2.74591e-08 -0.000999914)
(-6.64901e-08 -2.72877e-08 -0.000999935)
(-1.04825e-08 -4.30619e-08 -0.000999889)
(-3.04393e-08 -4.30555e-08 -0.000999896)
(-4.7398e-08 -4.29217e-08 -0.000999908)
(-5.97679e-08 -4.27093e-08 -0.000999926)
(-6.62522e-08 -4.23852e-08 -0.000999946)
(-1.04356e-08 -5.42509e-08 -0.000999905)
(-3.03122e-08 -5.42445e-08 -0.000999912)
(-4.71896e-08 -5.40702e-08 -0.000999924)
(-5.9443e-08 -5.37704e-08 -0.000999941)
(-6.59257e-08 -5.33375e-08 -0.000999961)
(-1.03796e-08 -6.01185e-08 -0.000999924)
(-3.0157e-08 -6.01092e-08 -0.00099993)
(-4.69191e-08 -5.99149e-08 -0.000999943)
(-5.90353e-08 -5.96247e-08 -0.00099996)
(-6.5596e-08 -5.93019e-08 -0.00099998)
(-1.43438e-08 -1.30401e-08 -0.000999825)
(-4.16474e-08 -1.30303e-08 -0.000999834)
(-6.48424e-08 -1.29807e-08 -0.000999851)
(-8.17903e-08 -1.29183e-08 -0.000999875)
(-9.06451e-08 -1.28272e-08 -0.000999903)
(-1.43365e-08 -3.78452e-08 -0.000999833)
(-4.1638e-08 -3.78306e-08 -0.000999842)
(-6.4845e-08 -3.76932e-08 -0.00099986)
(-8.17829e-08 -3.74902e-08 -0.000999883)
(-9.06156e-08 -3.72001e-08 -0.000999911)
(-1.42891e-08 -5.88561e-08 -0.000999849)
(-4.15028e-08 -5.88443e-08 -0.000999858)
(-6.46202e-08 -5.86318e-08 -0.000999875)
(-8.14506e-08 -5.82908e-08 -0.000999899)
(-9.02404e-08 -5.78243e-08 -0.000999926)
(-1.42218e-08 -7.41221e-08 -0.000999871)
(-4.13075e-08 -7.41051e-08 -0.00099988)
(-6.42918e-08 -7.38273e-08 -0.000999897)
(-8.09824e-08 -7.33797e-08 -0.00099992)
(-8.9752e-08 -7.28134e-08 -0.000999948)
(-1.41408e-08 -8.20966e-08 -0.000999896)
(-4.10698e-08 -8.20621e-08 -0.000999905)
(-6.38882e-08 -8.17427e-08 -0.000999922)
(-8.04366e-08 -8.12811e-08 -0.000999945)
(-8.9265e-08 -8.07921e-08 -0.000999972)
(-1.95679e-08 -1.78163e-08 -0.000999762)
(-5.68364e-08 -1.78104e-08 -0.000999774)
(-8.84926e-08 -1.77378e-08 -0.000999798)
(-1.11575e-07 -1.76256e-08 -0.00099983)
(-1.23615e-07 -1.74641e-08 -0.000999868)
(-1.95653e-08 -5.17139e-08 -0.000999773)
(-5.68258e-08 -5.16906e-08 -0.000999785)
(-8.84636e-08 -5.14693e-08 -0.000999809)
(-1.115e-07 -5.11315e-08 -0.000999841)
(-1.23526e-07 -5.06895e-08 -0.000999879)
(-1.949e-08 -8.04089e-08 -0.000999795)
(-5.66019e-08 -8.03627e-08 -0.000999807)
(-8.80942e-08 -8.00073e-08 -0.00099983)
(-1.11004e-07 -7.94807e-08 -0.000999862)
(-1.22986e-07 -7.88429e-08 -0.0009999)
(-1.93792e-08 -1.01216e-07 -0.000999824)
(-5.62797e-08 -1.01154e-07 -0.000999836)
(-8.75819e-08 -1.00701e-07 -0.000999859)
(-1.10345e-07 -1.00047e-07 -0.000999891)
(-1.22281e-07 -9.92835e-08 -0.000999929)
(-1.92488e-08 -1.12078e-07 -0.000999859)
(-5.58986e-08 -1.11992e-07 -0.000999871)
(-8.69783e-08 -1.11484e-07 -0.000999894)
(-1.09586e-07 -1.10778e-07 -0.000999925)
(-1.21522e-07 -1.10004e-07 -0.000999962)
(-2.67169e-08 -2.43568e-08 -0.000999676)
(-7.75827e-08 -2.43414e-08 -0.000999692)
(-1.20737e-07 -2.42185e-08 -0.000999724)
(-1.52152e-07 -2.40315e-08 -0.000999768)
(-1.68598e-07 -2.37951e-08 -0.00099982)
(-2.67061e-08 -7.0671e-08 -0.000999691)
(-7.75367e-08 -7.06059e-08 -0.000999708)
(-1.20639e-07 -7.02424e-08 -0.00099974)
(-1.51998e-07 -6.97187e-08 -0.000999784)
(-1.6844e-07 -6.90945e-08 -0.000999835)
(-2.65775e-08 -1.09836e-07 -0.00099972)
(-7.71677e-08 -1.09716e-07 -0.000999737)
(-1.20068e-07 -1.0915e-07 -0.000999769)
(-1.51287e-07 -1.08364e-07 -0.000999812)
(-1.67662e-07 -1.07454e-07 -0.000999864)
(-2.6396e-08 -1.38215e-07 -0.00099976)
(-7.66538e-08 -1.38065e-07 -0.000999777)
(-1.19287e-07 -1.3735e-07 -0.000999809)
(-1.50315e-07 -1.36368e-07 -0.000999852)
(-1.66607e-07 -1.35223e-07 -0.000999903)
(-2.61848e-08 -1.53022e-07 -0.000999808)
(-7.60475e-08 -1.52845e-07 -0.000999824)
(-1.18359e-07 -1.52052e-07 -0.000999855)
(-1.49159e-07 -1.5097e-07 -0.000999898)
(-1.65405e-07 -1.49746e-07 -0.000999949)
(-3.64718e-08 -3.33035e-08 -0.000999558)
(-1.05874e-07 -3.32571e-08 -0.00099958)
(-1.64706e-07 -3.30597e-08 -0.000999624)
(-2.07518e-07 -3.27821e-08 -0.000999684)
(-2.30049e-07 -3.24619e-08 -0.000999755)
(-3.64316e-08 -9.65926e-08 -0.000999579)
(-1.05755e-07 -9.64504e-08 -0.000999601)
(-1.64517e-07 -9.58909e-08 -0.000999645)
(-2.07285e-07 -9.51221e-08 -0.000999705)
(-2.29794e-07 -9.42421e-08 -0.000999776)
(-3.62288e-08 -1.50077e-07 -0.000999619)
(-1.05191e-07 -1.49856e-07 -0.000999641)
(-1.63673e-07 -1.49e-07 -0.000999685)
(-2.06253e-07 -1.47835e-07 -0.000999744)
(-2.28625e-07 -1.46493e-07 -0.000999815)
(-3.59521e-08 -1.88824e-07 -0.000999674)
(-1.04411e-07 -1.8855e-07 -0.000999696)
(-1.62497e-07 -1.87466e-07 -0.000999739)
(-2.04796e-07 -1.85996e-07 -0.000999799)
(-2.26993e-07 -1.84312e-07 -0.000999868)
(-3.56262e-08 -2.09011e-07 -0.000999739)
(-1.03486e-07 -2.08691e-07 -0.000999761)
(-1.61102e-07 -2.07467e-07 -0.000999803)
(-2.03099e-07 -2.05797e-07 -0.000999862)
(-2.25086e-07 -2.03871e-07 -0.000999931)
(-4.97736e-08 -4.55483e-08 -0.000999397)
(-1.44486e-07 -4.54632e-08 -0.000999428)
(-2.24779e-07 -4.51714e-08 -0.000999488)
(-2.8323e-07 -4.47663e-08 -0.00099957)
(-3.14084e-07 -4.42997e-08 -0.000999667)
(-4.96967e-08 -1.32099e-07 -0.000999425)
(-1.44278e-07 -1.31862e-07 -0.000999456)
(-2.2447e-07 -1.31028e-07 -0.000999516)
(-2.82852e-07 -1.29877e-07 -0.000999598)
(-3.13654e-07 -1.28546e-07 -0.000999695)
(-4.93996e-08 -2.0522e-07 -0.00099948)
(-1.43439e-07 -2.04858e-07 -0.000999511)
(-2.23195e-07 -2.0356e-07 -0.000999571)
(-2.81268e-07 -2.01779e-07 -0.000999652)
(-3.11864e-07 -1.99718e-07 -0.000999748)
(-4.89838e-08 -2.5814e-07 -0.000999556)
(-1.42256e-07 -2.57671e-07 -0.000999587)
(-2.21392e-07 -2.56018e-07 -0.000999645)
(-2.79034e-07 -2.53772e-07 -0.000999726)
(-3.09361e-07 -2.51224e-07 -0.000999821)
(-4.8485e-08 -2.85635e-07 -0.000999645)
(-1.40847e-07 -2.85086e-07 -0.000999675)
(-2.19273e-07 -2.83218e-07 -0.000999733)
(-2.76474e-07 -2.80663e-07 -0.000999812)
(-3.06384e-07 -2.77664e-07 -0.000999906)
(-6.79549e-08 -6.23597e-08 -0.000999176)
(-1.97285e-07 -6.22331e-08 -0.000999219)
(-3.06955e-07 -6.17959e-08 -0.000999301)
(-3.86828e-07 -6.11747e-08 -0.000999414)
(-4.29033e-07 -6.04426e-08 -0.000999546)
(-6.78391e-08 -1.80851e-07 -0.000999216)
(-1.9695e-07 -1.80475e-07 -0.000999258)
(-3.06422e-07 -1.79199e-07 -0.00099934)
(-3.86145e-07 -1.77417e-07 -0.000999452)
(-4.28283e-07 -1.75331e-07 -0.000999585)
(-6.73928e-08 -2.80886e-07 -0.000999292)
(-1.95665e-07 -2.80272e-07 -0.000999334)
(-3.04441e-07 -2.78266e-07 -0.000999415)
(-3.83667e-07 -2.7551e-07 -0.000999526)
(-4.25547e-07 -2.72308e-07 -0.000999657)
(-6.67497e-08 -3.53143e-07 -0.000999395)
(-1.93838e-07 -3.52335e-07 -0.000999437)
(-3.01662e-07 -3.49787e-07 -0.000999517)
(-3.8022e-07 -3.4631e-07 -0.000999627)
(-4.21754e-07 -3.42333e-07 -0.000999756)
(-6.59806e-08 -3.90545e-07 -0.000999517)
(-1.91671e-07 -3.89623e-07 -0.000999558)
(-2.98384e-07 -3.86771e-07 -0.000999637)
(-3.76213e-07 -3.8287e-07 -0.000999745)
(-4.17225e-07 -3.78292e-07 -0.000999873)
(-9.28495e-08 -8.54977e-08 -0.000998875)
(-2.69533e-07 -8.52906e-08 -0.000998934)
(-4.19344e-07 -8.46066e-08 -0.000999046)
(-5.28523e-07 -8.36448e-08 -0.0009992)
(-5.86304e-07 -8.2518e-08 -0.000999381)
(-9.26566e-08 -2.47878e-07 -0.00099893)
(-2.68951e-07 -2.47238e-07 -0.000998988)
(-4.1841e-07 -2.45253e-07 -0.000999099)
(-5.27342e-07 -2.42515e-07 -0.000999253)
(-5.85028e-07 -2.39327e-07 -0.000999434)
(-9.19559e-08 -3.84786e-07 -0.000999034)
(-2.66951e-07 -3.83735e-07 -0.000999092)
(-4.15358e-07 -3.80646e-07 -0.000999202)
(-5.23554e-07 -3.76437e-07 -0.000999354)
(-5.80878e-07 -3.71561e-07 -0.000999533)
(-9.09606e-08 -4.83469e-07 -0.000999176)
(-2.64143e-07 -4.8212e-07 -0.000999234)
(-4.11114e-07 -4.78206e-07 -0.000999342)
(-5.18301e-07 -4.72873e-07 -0.000999492)
(-5.75129e-07 -4.66752e-07 -0.000999669)
(-8.97876e-08 -5.3432e-07 -0.000999343)
(-2.6082e-07 -5.328e-07 -0.0009994)
(-4.06068e-07 -5.28417e-07 -0.000999506)
(-5.121e-07 -5.22434e-07 -0.000999654)
(-5.68293e-07 -5.15495e-07 -0.000999827)
(-1.26931e-07 -1.17366e-07 -0.000998463)
(-3.6838e-07 -1.16999e-07 -0.000998543)
(-5.73053e-07 -1.15936e-07 -0.000998696)
(-7.22333e-07 -1.1448e-07 -0.000998907)
(-8.01565e-07 -1.12801e-07 -0.000999156)
(-1.26582e-07 -3.40119e-07 -0.000998538)
(-3.67368e-07 -3.39023e-07 -0.000998618)
(-5.71498e-07 -3.35973e-07 -0.00099877)
(-7.20428e-07 -3.3183e-07 -0.00099898)
(-7.99481e-07 -3.2705e-07 -0.000999228)
(-1.25492e-07 -5.27639e-07 -0.000998682)
(-3.64291e-07 -5.25902e-07 -0.000998761)
(-5.66858e-07 -5.21184e-07 -0.000998911)
(-7.14708e-07 -5.14791e-07 -0.000999119)
(-7.93191e-07 -5.07392e-07 -0.000999364)
(-1.23971e-07 -6.62515e-07 -0.000998878)
(-3.60005e-07 -6.60306e-07 -0.000998956)
(-5.60389e-07 -6.54297e-07 -0.000999104)
(-7.06697e-07 -6.46135e-07 -0.000999309)
(-7.84431e-07 -6.3669e-07 -0.00099955)
(-1.22173e-07 -7.31599e-07 -0.000999107)
(-3.54895e-07 -7.29099e-07 -0.000999184)
(-5.52628e-07 -7.22334e-07 -0.000999329)
(-6.971e-07 -7.13128e-07 -0.00099953)
(-7.74004e-07 -7.02519e-07 -0.000999766)
(-1.73603e-07 -1.61315e-07 -0.000997899)
(-5.03705e-07 -1.60694e-07 -0.000998008)
(-7.83425e-07 -1.59071e-07 -0.000998218)
(-9.8757e-07 -1.56891e-07 -0.000998507)
(-1.09627e-06 -1.54385e-07 -0.000998847)
(-1.73005e-07 -4.67295e-07 -0.000998002)
(-5.02025e-07 -4.65491e-07 -0.000998112)
(-7.80926e-07 -4.60847e-07 -0.00099832)
(-9.84546e-07 -4.54602e-07 -0.000998608)
(-1.09294e-06 -4.47407e-07 -0.000998946)
(-1.71332e-07 -7.2444e-07 -0.0009982)
(-4.97329e-07 -7.21621e-07 -0.000998308)
(-7.73888e-07 -7.14419e-07 -0.000998514)
(-9.75887e-07 -7.04708e-07 -0.000998798)
(-1.0834e-06 -6.93473e-07 -0.000999133)
(-1.69002e-07 -9.08835e-07 -0.000998471)
(-4.90771e-07 -9.05222e-07 -0.000998577)
(-7.64014e-07 -8.95999e-07 -0.00099878)
(-9.63684e-07 -8.83526e-07 -0.000999059)
(-1.07008e-06 -8.69053e-07 -0.000999387)
(-1.66217e-07 -1.00256e-06 -0.000998786)
(-4.82896e-07 -9.98433e-07 -0.00099889)
(-7.52111e-07 -9.87973e-07 -0.000999088)
(-9.48942e-07 -9.73829e-07 -0.000999361)
(-1.05418e-06 -9.5761e-07 -0.000999683)
(-2.37648e-07 -2.22092e-07 -0.000997124)
(-6.89248e-07 -2.21074e-07 -0.000997275)
(-1.07158e-06 -2.1861e-07 -0.000997563)
(-1.35064e-06 -2.15339e-07 -0.000997958)
(-1.49968e-06 -2.11577e-07 -0.000998423)
(-2.36661e-07 -6.43112e-07 -0.000997268)
(-6.86524e-07 -6.40177e-07 -0.000997418)
(-1.06761e-06 -6.33108e-07 -0.000997704)
(-1.34585e-06 -6.23701e-07 -0.000998097)
(-1.49443e-06 -6.12897e-07 -0.00099856)
(-2.34078e-07 -9.96174e-07 -0.000997542)
(-6.79336e-07 -9.91589e-07 -0.00099769)
(-1.05693e-06 -9.80582e-07 -0.000997972)
(-1.33281e-06 -9.6589e-07 -0.00099836)
(-1.48011e-06 -9.49047e-07 -0.000998817)
(-2.30471e-07 -1.24824e-06 -0.000997916)
(-6.69259e-07 -1.24234e-06 -0.000998061)
(-1.04191e-06 -1.2282e-06 -0.000998337)
(-1.31443e-06 -1.20928e-06 -0.000998718)
(-1.46011e-06 -1.18759e-06 -0.000999167)
(-2.2615e-07 -1.37511e-06 -0.00099835)
(-6.5713e-07 -1.36833e-06 -0.000998492)
(-1.02376e-06 -1.35216e-06 -0.000998762)
(-1.2922e-06 -1.33053e-06 -0.000999134)
(-1.43616e-06 -1.30595e-06 -0.000999573)
(-3.25839e-07 -3.06401e-07 -0.000996061)
(-9.44174e-07 -3.04718e-07 -0.000996269)
(-1.46657e-06 -3.00975e-07 -0.000996664)
(-1.84756e-06 -2.96074e-07 -0.000997206)
(-2.05159e-06 -2.90515e-07 -0.000997841)
(-3.24195e-07 -8.8693e-07 -0.000996261)
(-9.39767e-07 -8.82092e-07 -0.000996468)
(-1.4603e-06 -8.71308e-07 -0.00099686)
(-1.84013e-06 -8.57187e-07 -0.000997398)
(-2.04352e-06 -8.41226e-07 -0.00099803)
(-3.20141e-07 -1.37238e-06 -0.000996641)
(-9.2867e-07 -1.36483e-06 -0.000996845)
(-1.44413e-06 -1.34795e-06 -0.000997231)
(-1.82069e-06 -1.32585e-06 -0.000997762)
(-2.02236e-06 -1.30095e-06 -0.000998386)
(-3.14473e-07 -1.71694e-06 -0.000997159)
(-9.13064e-07 -1.70723e-06 -0.000997358)
(-1.42132e-06 -1.68544e-06 -0.000997736)
(-1.79329e-06 -1.65688e-06 -0.000998255)
(-1.99272e-06 -1.62469e-06 -0.000998868)
(-3.07682e-07 -1.88803e-06 -0.000997759)
(-8.94235e-07 -1.87689e-06 -0.000997952)
(-1.39364e-06 -1.8518e-06 -0.000998319)
(-1.75994e-06 -1.8188e-06 -0.000998825)
(-1.957e-06 -1.78169e-06 -0.000999424)
(-4.48005e-07 -4.23708e-07 -0.000994597)
(-1.29557e-06 -4.20829e-07 -0.000994888)
(-2.00848e-06 -4.15132e-07 -0.000995432)
(-2.52742e-06 -4.07786e-07 -0.000996174)
(-2.80573e-06 -3.99756e-07 -0.000997041)
(-4.45177e-07 -1.22634e-06 -0.000994876)
(-1.28836e-06 -1.21811e-06 -0.000995164)
(-1.99864e-06 -1.20157e-06 -0.000995703)
(-2.51614e-06 -1.18044e-06 -0.00099644)
(-2.79366e-06 -1.1573e-06 -0.000997303)
(-4.38613e-07 -1.89506e-06 -0.000995408)
(-1.27095e-06 -1.88224e-06 -0.000995689)
(-1.97415e-06 -1.85619e-06 -0.00099622)
(-2.48749e-06 -1.82309e-06 -0.000996945)
(-2.76296e-06 -1.78682e-06 -0.000997797)
(-4.29442e-07 -2.36593e-06 -0.000996128)
(-1.24642e-06 -2.34952e-06 -0.0009964)
(-1.93949e-06 -2.31573e-06 -0.000996917)
(-2.44698e-06 -2.27278e-06 -0.000997626)
(-2.71977e-06 -2.22563e-06 -0.000998463)
(-4.18513e-07 -2.59523e-06 -0.000996959)
(-1.21679e-06 -2.57669e-06 -0.000997221)
(-1.8972e-06 -2.53762e-06 -0.00099772)
(-2.3974e-06 -2.48742e-06 -0.00099841)
(-2.66756e-06 -2.43195e-06 -0.000999227)
(-6.19215e-07 -5.87337e-07 -0.000992577)
(-1.78259e-06 -5.82025e-07 -0.000992991)
(-2.7529e-06 -5.73409e-07 -0.000993741)
(-3.45695e-06 -5.62301e-07 -0.000994759)
(-3.83328e-06 -5.50954e-07 -0.000995941)
(-6.13977e-07 -1.70123e-06 -0.000992966)
(-1.77049e-06 -1.68636e-06 -0.000993372)
(-2.73749e-06 -1.66098e-06 -0.000994117)
(-3.44001e-06 -1.6293e-06 -0.000995126)
(-3.81578e-06 -1.59653e-06 -0.000996302)
(-6.02807e-07 -2.62462e-06 -0.000993717)
(-1.74253e-06 -2.60178e-06 -0.000994111)
(-2.70034e-06 -2.56134e-06 -0.00099484)
(-3.39836e-06 -2.51181e-06 -0.000995833)
(-3.7727e-06 -2.46035e-06 -0.000996995)
(-5.87237e-07 -3.26772e-06 -0.000994721)