/*--------------------------------*- C++ -*----------------------------------*\
| =========                 |                                                 |
| \\      /  F ield         | OpenFOAM: The Open Source CFD Toolbox           |
|  \\    /   O peration     | Version:  5.x                                   |
|   \\  /    A nd           | Web:      www.OpenFOAM.org                      |
|    \\/     M anipulation  |                                                 |
\*---------------------------------------------------------------------------*/
FoamFile
{
    version     2.0;
    format      ascii;
    class       volVectorField;
    location    "10000";
    object      stored_U;
}
// * * * * * * * * * * * * * * * * * * * * * * * * * * * * * * * * * * * * * //

dimensions      [0 1 -1 0 0 0 0];

internalField   nonuniform List<vector> 
2250
(
(-1.1337e-10 6.47299e-11 -0.000999999)
(-2.77567e-11 1.17253e-10 -0.001)
(-3.94052e-11 1.18913e-10 -0.001)
(-1.96411e-11 1.16828e-10 -0.001)
(-8.51234e-12 1.14557e-10 -0.001)
(-5.03902e-11 1.39743e-10 -0.000999999)
(-5.77896e-11 1.12865e-10 -0.000999999)
(-4.45301e-11 1.13779e-10 -0.000999999)
(-2.57479e-11 1.08417e-10 -0.000999999)
(-9.29011e-12 1.03507e-10 -0.000999999)
(-5.93947e-11 7.77774e-11 -0.000999999)
(-5.37094e-11 8.0504e-11 -0.000999999)
(-4.38395e-11 8.28122e-11 -0.000999999)
(-2.9721e-11 7.8802e-11 -0.000999999)
(-1.32209e-11 7.24568e-11 -0.000999999)
(-5.60814e-11 4.68648e-11 -0.000999999)
(-5.2748e-11 5.17996e-11 -0.000999999)
(-4.62294e-11 5.01361e-11 -0.000999999)
(-3.5966e-11 4.38126e-11 -0.000999999)
(-1.54837e-11 4.24701e-11 -0.000999999)
(-5.30537e-11 1.31889e-11 -0.000999999)
(-5.02978e-11 1.87308e-11 -0.000999999)
(-5.17036e-11 1.54899e-11 -0.000999999)
(-3.72229e-11 1.31485e-11 -0.000999999)
(-1.44493e-11 1.4125e-11 -0.000999999)
(-3.11616e-10 2.22183e-10 -0.000999999)
(-8.462e-11 3.28065e-10 -0.000999999)
(-1.07038e-10 3.30116e-10 -0.001)
(-7.81739e-11 3.27445e-10 -0.001)
(-3.61908e-11 3.24515e-10 -0.001)
(-1.8149e-10 4.1227e-10 -0.000999999)
(-1.63337e-10 3.43259e-10 -0.000999999)
(-1.39391e-10 3.21349e-10 -0.000999999)
(-9.72126e-11 2.98893e-10 -0.000999999)
(-3.73551e-11 2.91728e-10 -0.001)
(-2.02576e-10 2.53858e-10 -0.000999999)
(-1.75575e-10 2.44567e-10 -0.000999999)
(-1.5141e-10 2.33951e-10 -0.000999999)
(-1.07258e-10 2.2277e-10 -0.000999999)
(-4.281e-11 2.16368e-10 -0.000999999)
(-1.92338e-10 1.53474e-10 -0.000999999)
(-1.83248e-10 1.53643e-10 -0.000999999)
(-1.6118e-10 1.4274e-10 -0.000999999)
(-1.14389e-10 1.34333e-10 -0.000999999)
(-4.33361e-11 1.36405e-10 -0.000999999)
(-1.91583e-10 4.9862e-11 -0.000999999)
(-1.8585e-10 5.4509e-11 -0.000999999)
(-1.70336e-10 4.67981e-11 -0.000999999)
(-1.13091e-10 4.49976e-11 -0.000999999)
(-4.04008e-11 4.77579e-11 -0.000999999)
(-4.20801e-10 4.87591e-10 -0.000999999)
(-2.43138e-10 5.65685e-10 -0.000999999)
(-2.42979e-10 5.56502e-10 -0.001)
(-1.83751e-10 5.54823e-10 -0.001)
(-7.29861e-11 5.564e-10 -0.001)
(-3.51529e-10 6.30168e-10 -0.000999999)
(-3.12448e-10 5.59167e-10 -0.000999999)
(-2.79124e-10 5.25881e-10 -0.000999999)
(-1.93927e-10 5.09458e-10 -0.001)
(-7.01266e-11 5.11009e-10 -0.001)
(-3.81783e-10 4.47877e-10 -0.000999999)
(-3.47383e-10 4.15019e-10 -0.000999999)
(-2.92679e-10 3.98958e-10 -0.000999999)
(-1.97658e-10 3.94228e-10 -0.000999999)
(-7.04853e-11 3.97821e-10 -0.000999999)
(-3.79693e-10 2.73381e-10 -0.000999999)
(-3.61362e-10 2.63637e-10 -0.000999999)
(-2.99903e-10 2.54126e-10 -0.000999999)
(-1.94302e-10 2.55753e-10 -0.000999999)
(-6.578e-11 2.62235e-10 -0.000999999)
(-3.82951e-10 9.37145e-11 -0.000999999)
(-3.65809e-10 9.2068e-11 -0.000999999)
(-2.99918e-10 8.84421e-11 -0.000999999)
(-1.88647e-10 9.14209e-11 -0.000999999)
(-6.3385e-11 9.35126e-11 -0.000999999)
(-5.28526e-10 8.24306e-10 -0.000999999)
(-5.07007e-10 8.57485e-10 -0.001)
(-4.49042e-10 8.50831e-10 -0.001)
(-3.04261e-10 8.54673e-10 -0.001)
(-1.04807e-10 8.57245e-10 -0.001)
(-5.5249e-10 8.34566e-10 -0.000999999)
(-5.18747e-10 7.90838e-10 -0.000999999)
(-4.44941e-10 7.82943e-10 -0.000999999)
(-2.92114e-10 7.94406e-10 -0.001)
(-9.93442e-11 8.04882e-10 -0.001)
(-5.89011e-10 6.64419e-10 -0.000999999)
(-5.58562e-10 6.25889e-10 -0.000999999)
(-4.45451e-10 6.21674e-10 -0.000999999)
(-2.80787e-10 6.33181e-10 -0.000999999)
(-9.2831e-11 6.42152e-10 -0.000999999)
(-5.96434e-10 4.06667e-10 -0.000999999)
(-5.61483e-10 4.05198e-10 -0.000999999)
(-4.37633e-10 4.11537e-10 -0.000999999)
(-2.70389e-10 4.21198e-10 -0.000999999)
(-8.91467e-11 4.22543e-10 -0.000999999)
(-5.91676e-10 1.39593e-10 -0.000999998)
(-5.52506e-10 1.4214e-10 -0.000999999)
(-4.28544e-10 1.47369e-10 -0.000999999)
(-2.68403e-10 1.5032e-10 -0.000999999)
(-9.04941e-11 1.48539e-10 -0.000999999)
(-7.76979e-10 1.17769e-09 -0.000999999)
(-8.26448e-10 1.21517e-09 -0.001)
(-6.53966e-10 1.23762e-09 -0.001)
(-4.26733e-10 1.25293e-09 -0.001)
(-1.44177e-10 1.26521e-09 -0.001)
(-8.27077e-10 1.0917e-09 -0.000999999)
(-7.69082e-10 1.12298e-09 -0.000999999)
(-6.19288e-10 1.14272e-09 -0.000999999)
(-3.94106e-10 1.17649e-09 -0.001)
(-1.31369e-10 1.19618e-09 -0.001)
(-8.36391e-10 9.15955e-10 -0.000999999)
(-7.75522e-10 9.12249e-10 -0.000999999)
(-6.00389e-10 9.27102e-10 -0.000999999)
(-3.70988e-10 9.4931e-10 -0.000999999)
(-1.22261e-10 9.5357e-10 -0.000999999)
(-8.28252e-10 5.83405e-10 -0.000999998)
(-7.57911e-10 5.98769e-10 -0.000999999)
(-5.82205e-10 6.15031e-10 -0.000999999)
(-3.65771e-10 6.2157e-10 -0.000999999)
(-1.25256e-10 6.13748e-10 -0.000999999)
(-8.15977e-10 2.03783e-10 -0.000999998)
(-7.42344e-10 2.11487e-10 -0.000999998)
(-5.76395e-10 2.17789e-10 -0.000999999)
(-3.70314e-10 2.16119e-10 -0.000999999)
(-1.28584e-10 2.12077e-10 -0.000999999)
(-1.19458e-09 1.58973e-09 -0.000999999)
(-1.13039e-09 1.68747e-09 -0.001)
(-8.99816e-10 1.7433e-09 -0.001)
(-5.90253e-10 1.78441e-09 -0.001)
(-2.04814e-10 1.81857e-09 -0.001)
(-1.13323e-09 1.50024e-09 -0.000999999)
(-1.06939e-09 1.56699e-09 -0.000999999)
(-8.36353e-10 1.62081e-09 -0.000999999)
(-5.25891e-10 1.67698e-09 -0.001)
(-1.73986e-10 1.70853e-09 -0.001)
(-1.12863e-09 1.22894e-09 -0.000999998)
(-1.00982e-09 1.27394e-09 -0.000999999)
(-7.89855e-10 1.31212e-09 -0.000999999)
(-4.99235e-10 1.33765e-09 -0.000999999)
(-1.70061e-10 1.33283e-09 -0.000999999)
(-1.10861e-09 8.21773e-10 -0.000999998)
(-9.86218e-10 8.39037e-10 -0.000999998)
(-7.72611e-10 8.55051e-10 -0.000999998)
(-5.02557e-10 8.54506e-10 -0.000999999)
(-1.7619e-10 8.4482e-10 -0.000999999)
(-1.09155e-09 2.86774e-10 -0.000999998)
(-9.7455e-10 2.94844e-10 -0.000999998)
(-7.7281e-10 2.96454e-10 -0.000999998)
(-5.06782e-10 2.93108e-10 -0.000999999)
(-1.77714e-10 2.90664e-10 -0.000999999)
(-1.77019e-09 2.13596e-09 -0.000999999)
(-1.44101e-09 2.3313e-09 -0.001)
(-1.19196e-09 2.41901e-09 -0.001)
(-7.68675e-10 2.48149e-09 -0.001)
(-2.57847e-10 2.51318e-09 -0.001)
(-1.52027e-09 2.13414e-09 -0.000999998)
(-1.42554e-09 2.17542e-09 -0.000999999)
(-1.11593e-09 2.24327e-09 -0.000999999)
(-6.96234e-10 2.30731e-09 -0.001)
(-2.29095e-10 2.32461e-09 -0.001)
(-1.51321e-09 1.66903e-09 -0.000999998)
(-1.33189e-09 1.73718e-09 -0.000999998)
(-1.06004e-09 1.78661e-09 -0.000999999)
(-6.82788e-10 1.80414e-09 -0.000999999)
(-2.36081e-10 1.79114e-09 -0.000999999)
(-1.48564e-09 1.11439e-09 -0.000999997)
(-1.30793e-09 1.13562e-09 -0.000999998)
(-1.04893e-09 1.14739e-09 -0.000999998)
(-6.88171e-10 1.14313e-09 -0.000999998)
(-2.38569e-10 1.13596e-09 -0.000999999)
(-1.46681e-09 3.86251e-10 -0.000999997)
(-1.29627e-09 3.97514e-10 -0.000999998)
(-1.05039e-09 3.95306e-10 -0.000999998)
(-6.90594e-10 3.93959e-10 -0.000999998)
(-2.4055e-10 3.90739e-10 -0.000999998)
(-2.31282e-09 3.0414e-09 -0.000999999)
(-1.93233e-09 3.22069e-09 -0.001)
(-1.52006e-09 3.31188e-09 -0.001)
(-9.42352e-10 3.35247e-09 -0.001)
(-3.0256e-10 3.34419e-09 -0.001)
(-2.07917e-09 2.92194e-09 -0.000999998)
(-1.86813e-09 2.99613e-09 -0.000999999)
(-1.47519e-09 3.0386e-09 -0.000999999)
(-9.2605e-10 3.06504e-09 -0.001)
(-3.09523e-10 3.03851e-09 -0.001)
(-2.05709e-09 2.32353e-09 -0.000999997)
(-1.81568e-09 2.36544e-09 -0.000999998)
(-1.45111e-09 2.39279e-09 -0.000999998)
(-9.36445e-10 2.38889e-09 -0.000999999)
(-3.23116e-10 2.37144e-09 -0.000999999)
(-2.03514e-09 1.50874e-09 -0.000999997)
(-1.79885e-09 1.53178e-09 -0.000999997)
(-1.45169e-09 1.53239e-09 -0.000999998)
(-9.42727e-10 1.52314e-09 -0.000999998)
(-3.22327e-10 1.51331e-09 -0.000999998)
(-2.02115e-09 5.22295e-10 -0.000999996)
(-1.78846e-09 5.34995e-10 -0.000999997)
(-1.45679e-09 5.29114e-10 -0.000999997)
(-9.50627e-10 5.26973e-10 -0.000999998)
(-3.29347e-10 5.1829e-10 -0.000999998)
(-2.8219e-09 4.44673e-09 -0.000999999)
(-2.65298e-09 4.45105e-09 -0.001)
(-1.98054e-09 4.48401e-09 -0.001)
(-1.2188e-09 4.47213e-09 -0.001)
(-4.01715e-10 4.43389e-09 -0.001)
(-2.85751e-09 3.94419e-09 -0.000999998)
(-2.51081e-09 4.06637e-09 -0.000999998)
(-1.98767e-09 4.06476e-09 -0.000999999)
(-1.26753e-09 4.03295e-09 -0.001)
(-4.34447e-10 3.97997e-09 -0.001)
(-2.84935e-09 3.235e-09 -0.000999996)
(-2.5324e-09 3.22416e-09 -0.000999997)
(-2.0139e-09 3.20519e-09 -0.000999998)
(-1.29573e-09 3.17651e-09 -0.000999999)
(-4.46832e-10 3.15665e-09 -0.000999999)
(-2.84806e-09 2.0709e-09 -0.000999996)
(-2.54058e-09 2.07576e-09 -0.000999996)
(-2.03524e-09 2.05545e-09 -0.000999997)
(-1.30985e-09 2.03666e-09 -0.000999998)
(-4.48144e-10 2.01928e-09 -0.000999998)
(-2.84336e-09 7.15335e-10 -0.000999995)
(-2.54276e-09 7.1984e-10 -0.000999996)
(-2.04883e-09 7.08079e-10 -0.000999997)
(-1.32525e-09 7.02139e-10 -0.000999997)
(-4.59362e-10 6.88667e-10 -0.000999998)
(-3.61176e-09 6.2819e-09 -0.000999999)
(-3.65023e-09 6.07804e-09 -0.001)
(-2.7017e-09 6.0572e-09 -0.001)
(-1.71689e-09 6.01402e-09 -0.001)
(-5.93239e-10 5.9818e-09 -0.001)
(-3.92502e-09 5.36787e-09 -0.000999997)
(-3.48362e-09 5.50803e-09 -0.000999998)
(-2.75562e-09 5.45329e-09 -0.000999999)
(-1.77619e-09 5.39182e-09 -0.001)
(-6.16303e-10 5.34835e-09 -0.001)
(-3.97235e-09 4.43676e-09 -0.000999995)
(-3.56481e-09 4.38281e-09 -0.000999997)
(-2.81783e-09 4.32187e-09 -0.000999998)
(-1.81127e-09 4.27764e-09 -0.000999999)
(-6.26188e-10 4.25479e-09 -0.000999999)
(-3.99746e-09 2.82931e-09 -0.000999994)
(-3.59846e-09 2.81166e-09 -0.000999996)
(-2.86068e-09 2.77224e-09 -0.000999997)
(-1.83485e-09 2.74581e-09 -0.000999997)
(-6.30819e-10 2.72344e-09 -0.000999998)
(-4.00676e-09 9.75138e-10 -0.000999994)
(-3.61462e-09 9.67269e-10 -0.000999995)
(-2.87785e-09 9.51778e-10 -0.000999996)
(-1.85098e-09 9.44347e-10 -0.000999997)
(-6.41959e-10 9.3012e-10 -0.000999997)
(-5.07633e-09 8.55785e-09 -0.000999999)
(-4.94622e-09 8.31085e-09 -0.001)
(-3.80266e-09 8.22424e-09 -0.001)
(-2.4654e-09 8.17699e-09 -0.001)
(-8.65364e-10 8.15784e-09 -0.001)
(-5.42096e-09 7.42544e-09 -0.000999996)
(-4.91199e-09 7.46161e-09 -0.000999998)
(-3.86996e-09 7.38146e-09 -0.000999999)
(-2.49698e-09 7.32599e-09 -0.001)
(-8.66111e-10 7.30187e-09 -0.001)
(-5.52066e-09 5.99309e-09 -0.000999994)
(-4.9902e-09 5.94197e-09 -0.000999996)
(-3.93816e-09 5.86823e-09 -0.000999997)
(-2.53055e-09 5.82191e-09 -0.000999998)
(-8.75156e-10 5.79654e-09 -0.000999999)
(-5.57204e-09 3.84369e-09 -0.000999992)
(-5.03678e-09 3.81263e-09 -0.000999994)
(-3.98987e-09 3.76801e-09 -0.000999996)
(-2.55718e-09 3.74025e-09 -0.000999997)
(-8.80089e-10 3.72054e-09 -0.000999997)
(-5.58856e-09 1.32337e-09 -0.000999992)
(-5.05573e-09 1.30893e-09 -0.000999993)
(-4.00247e-09 1.29438e-09 -0.000999995)
(-2.56553e-09 1.28838e-09 -0.000999996)
(-8.858e-10 1.27842e-09 -0.000999997)
(-7.29795e-09 1.15374e-08 -0.000999999)
(-6.7245e-09 1.13283e-08 -0.001)
(-5.32663e-09 1.12126e-08 -0.001)
(-3.46178e-09 1.1169e-08 -0.001)
(-1.21002e-09 1.11441e-08 -0.00100001)
(-7.52493e-09 1.02622e-08 -0.000999995)
(-6.82865e-09 1.01635e-08 -0.000999998)
(-5.4008e-09 1.00727e-08 -0.001)
(-3.47599e-09 1.00281e-08 -0.001)
(-1.20209e-09 1.00059e-08 -0.001)
(-7.64116e-09 8.1523e-09 -0.000999992)
(-6.91401e-09 8.08312e-09 -0.000999995)
(-5.4618e-09 8.01755e-09 -0.000999997)
(-3.50864e-09 7.97324e-09 -0.000999998)
(-1.21253e-09 7.94544e-09 -0.000999999)
(-7.70965e-09 5.22962e-09 -0.00099999)
(-6.9633e-09 5.19219e-09 -0.000999992)
(-5.51048e-09 5.15256e-09 -0.000999995)
(-3.53227e-09 5.12788e-09 -0.000999996)
(-1.21419e-09 5.11691e-09 -0.000999997)
(-7.72443e-09 1.79936e-09 -0.000999989)
(-6.97715e-09 1.78458e-09 -0.000999991)
(-5.51505e-09 1.77174e-09 -0.000999993)
(-3.52712e-09 1.76911e-09 -0.000999995)
(-1.21102e-09 1.76643e-09 -0.000999996)
(-1.02656e-08 1.55948e-08 -0.000999999)
(-9.27719e-09 1.5426e-08 -0.001)
(-7.37783e-09 1.53111e-08 -0.001)
(-4.77033e-09 1.52607e-08 -0.00100001)
(-1.6553e-09 1.52082e-08 -0.00100001)
(-1.04303e-08 1.40301e-08 -0.000999994)
(-9.42706e-09 1.3892e-08 -0.000999997)
(-7.46344e-09 1.37958e-08 -0.001)
(-4.79862e-09 1.37437e-08 -0.001)
(-1.65855e-09 1.37012e-08 -0.001)
(-1.05378e-08 1.11106e-08 -0.00099999)
(-9.51145e-09 1.10344e-08 -0.000999993)
(-7.52592e-09 1.09739e-08 -0.000999996)
(-4.8376e-09 1.09275e-08 -0.000999998)
(-1.6706e-09 1.08949e-08 -0.000999999)
(-1.06136e-08 7.12524e-09 -0.000999987)
(-9.56361e-09 7.08549e-09 -0.00099999)
(-7.57009e-09 7.04876e-09 -0.000999993)
(-4.85585e-09 7.0294e-09 -0.000999995)
(-1.66954e-09 7.01448e-09 -0.000999996)
(-1.06235e-08 2.4472e-09 -0.000999985)
(-9.56895e-09 2.43484e-09 -0.000999989)
(-7.56692e-09 2.42306e-09 -0.000999991)
(-4.84831e-09 2.42313e-09 -0.000999993)
(-1.66835e-09 2.41629e-09 -0.000999995)
(-1.42607e-08 2.11491e-08 -0.000999998)
(-1.2828e-08 2.10004e-08 -0.001)
(-1.01599e-08 2.08859e-08 -0.00100001)
(-6.54344e-09 2.08076e-08 -0.00100001)
(-2.26207e-09 2.07172e-08 -0.00100001)
(-1.43984e-08 1.90842e-08 -0.000999992)
(-1.296e-08 1.89701e-08 -0.000999996)
(-1.02647e-08 1.88591e-08 -0.001)
(-6.60521e-09 1.87792e-08 -0.001)
(-2.28254e-09 1.87079e-08 -0.001)
(-1.44987e-08 1.51415e-08 -0.000999986)
(-1.30531e-08 1.50582e-08 -0.000999991)
(-1.03505e-08 1.4978e-08 -0.000999995)
(-6.65722e-09 1.49224e-08 -0.000999998)
(-2.29616e-09 1.48689e-08 -0.000999999)
(-1.45834e-08 9.71762e-09 -0.000999982)
(-1.31233e-08 9.66209e-09 -0.000999987)
(-1.04001e-08 9.61437e-09 -0.000999991)
(-6.68456e-09 9.58491e-09 -0.000999994)
(-2.30652e-09 9.53308e-09 -0.000999995)
(-1.46005e-08 3.33697e-09 -0.00099998)
(-1.31304e-08 3.31914e-09 -0.000999985)
(-1.04069e-08 3.3042e-09 -0.000999989)
(-6.70624e-09 3.29188e-09 -0.000999992)
(-2.32447e-09 3.26296e-09 -0.000999993)
(-1.95807e-08 2.87973e-08 -0.000999998)
(-1.7647e-08 2.85955e-08 -0.001)
(-1.39636e-08 2.84247e-08 -0.00100001)
(-8.98164e-09 2.82918e-08 -0.00100001)
(-3.09712e-09 2.81546e-08 -0.00100001)
(-1.97746e-08 2.59587e-08 -0.000999989)
(-1.7795e-08 2.58261e-08 -0.000999995)
(-1.41125e-08 2.56642e-08 -0.001)
(-9.08299e-09 2.55441e-08 -0.001)
(-3.13317e-09 2.54312e-08 -0.00100001)
(-1.9931e-08 2.06331e-08 -0.000999981)
(-1.79415e-08 2.05006e-08 -0.000999988)
(-1.42452e-08 2.03679e-08 -0.000999993)
(-9.16379e-09 2.02795e-08 -0.000999997)
(-3.15943e-09 2.01757e-08 -0.000999999)
(-2.00596e-08 1.32662e-08 -0.000999976)
(-1.80599e-08 1.3157e-08 -0.000999982)
(-1.43331e-08 1.30677e-08 -0.000999988)
(-9.23471e-09 1.29927e-08 -0.000999992)
(-3.19674e-09 1.28979e-08 -0.000999994)
(-2.01103e-08 4.5662e-09 -0.000999973)
(-1.81043e-08 4.52139e-09 -0.00099998)
(-1.43809e-08 4.48653e-09 -0.000999985)
(-9.28942e-09 4.44545e-09 -0.000999989)
(-3.22221e-09 4.405e-09 -0.000999991)
(-2.67583e-08 3.92699e-08 -0.000999997)
(-2.41718e-08 3.89249e-08 -0.00100001)
(-1.91668e-08 3.86249e-08 -0.00100001)
(-1.23127e-08 3.84066e-08 -0.00100002)
(-4.23482e-09 3.82027e-08 -0.00100002)
(-2.71029e-08 3.53689e-08 -0.000999985)
(-2.44454e-08 3.50954e-08 -0.000999994)
(-1.94036e-08 3.48347e-08 -0.001)
(-1.24744e-08 3.46466e-08 -0.00100001)
(-4.29506e-09 3.4465e-08 -0.00100001)
(-2.73999e-08 2.81158e-08 -0.000999975)
(-2.47061e-08 2.78677e-08 -0.000999984)
(-1.9615e-08 2.76455e-08 -0.000999991)
(-1.26134e-08 2.74844e-08 -0.000999996)
(-4.34777e-09 2.73233e-08 -0.000999999)
(-2.76311e-08 1.80882e-08 -0.000999968)
(-2.49153e-08 1.78901e-08 -0.000999976)
(-1.97862e-08 1.77248e-08 -0.000999984)
(-1.27418e-08 1.75951e-08 -0.000999989)
(-4.40172e-09 1.7492e-08 -0.000999992)
(-2.77301e-08 6.23181e-09 -0.000999964)
(-2.50201e-08 6.14656e-09 -0.000999973)
(-1.98706e-08 6.07831e-09 -0.00099998)
(-1.27859e-08 6.02339e-09 -0.000999985)
(-4.40734e-09 5.99733e-09 -0.000999988)
(-3.66238e-08 5.34919e-08 -0.000999997)
(-3.30512e-08 5.29611e-08 -0.00100001)
(-2.62502e-08 5.24811e-08 -0.00100002)
(-1.68369e-08 5.21408e-08 -0.00100002)
(-5.78321e-09 5.18461e-08 -0.00100003)
(-3.71643e-08 4.82546e-08 -0.00099998)
(-3.35555e-08 4.77262e-08 -0.000999992)
(-2.66339e-08 4.73092e-08 -0.001)
(-1.70978e-08 4.70008e-08 -0.00100001)
(-5.87951e-09 4.67299e-08 -0.00100001)
(-3.76587e-08 3.83176e-08 -0.000999966)
(-3.39965e-08 3.78917e-08 -0.000999978)
(-2.69749e-08 3.75347e-08 -0.000999988)
(-1.73228e-08 3.72748e-08 -0.000999995)
(-5.96103e-09 3.70626e-08 -0.000999999)
(-3.80419e-08 2.46206e-08 -0.000999956)
(-3.4338e-08 2.43169e-08 -0.000999968)
(-2.72499e-08 2.40673e-08 -0.000999978)
(-1.74954e-08 2.39008e-08 -0.000999986)
(-6.01771e-09 2.37889e-08 -0.00099999)
(-3.81877e-08 8.47304e-09 -0.000999951)
(-3.44818e-08 8.3521e-09 -0.000999963)
(-2.73365e-08 8.26215e-09 -0.000999973)
(-1.75191e-08 8.21196e-09 -0.000999981)
(-6.01383e-09 8.18794e-09 -0.000999984)
(-5.01631e-08 7.2858e-08 -0.000999996)
(-4.51453e-08 7.20696e-08 -0.00100001)
(-3.58592e-08 7.13422e-08 -0.00100002)
(-2.29848e-08 7.0817e-08 -0.00100003)
(-7.89549e-09 7.03856e-08 -0.00100004)
(-5.09638e-08 6.58644e-08 -0.000999973)
(-4.59807e-08 6.49969e-08 -0.000999989)
(-3.64783e-08 6.43353e-08 -0.001)
(-2.34005e-08 6.38392e-08 -0.00100001)
(-8.04402e-09 6.3446e-08 -0.00100002)
(-5.1714e-08 5.22382e-08 -0.000999954)
(-4.66745e-08 5.15717e-08 -0.00099997)
(-3.70158e-08 5.10267e-08 -0.000999984)
(-2.37471e-08 5.06378e-08 -0.000999994)
(-8.16214e-09 5.03418e-08 -0.001)
(-5.22962e-08 3.35302e-08 -0.00099994)
(-4.71916e-08 3.30906e-08 -0.000999957)
(-3.74109e-08 3.27491e-08 -0.000999971)
(-2.39843e-08 3.25161e-08 -0.000999981)
(-8.23954e-09 3.23449e-08 -0.000999986)
(-5.25e-08 1.15305e-08 -0.000999933)
(-4.73621e-08 1.13734e-08 -0.00099995)
(-3.75158e-08 1.12678e-08 -0.000999964)
(-2.40392e-08 1.11951e-08 -0.000999974)
(-8.25272e-09 1.11438e-08 -0.000999979)
(-6.85964e-08 9.93264e-08 -0.000999995)
(-6.16631e-08 9.81011e-08 -0.00100002)
(-4.89356e-08 9.69878e-08 -0.00100003)
(-3.13997e-08 9.61683e-08 -0.00100005)
(-1.08027e-08 9.55289e-08 -0.00100005)
(-6.9825e-08 8.98237e-08 -0.000999964)
(-6.29432e-08 8.85355e-08 -0.000999986)
(-4.99166e-08 8.74962e-08 -0.001)
(-3.20349e-08 8.67225e-08 -0.00100002)
(-1.10209e-08 8.6154e-08 -0.00100002)
(-7.09616e-08 7.12331e-08 -0.000999938)
(-6.39907e-08 7.02314e-08 -0.00099996)
(-5.07472e-08 6.94087e-08 -0.000999979)
(-3.25693e-08 6.88088e-08 -0.000999993)
(-1.11993e-08 6.83737e-08 -0.001)
(-7.18218e-08 4.5721e-08 -0.000999919)
(-6.47666e-08 4.50812e-08 -0.000999942)
(-5.13374e-08 4.45716e-08 -0.000999961)
(-3.29325e-08 4.4197e-08 -0.000999975)
(-1.13193e-08 4.39332e-08 -0.000999982)
(-7.21187e-08 1.57188e-08 -0.000999909)
(-6.50119e-08 1.55085e-08 -0.000999932)
(-5.1529e-08 1.5347e-08 -0.000999951)
(-3.30546e-08 1.52164e-08 -0.000999965)
(-1.13532e-08 1.51305e-08 -0.000999973)
(-9.36492e-08 1.35485e-07 -0.000999993)
(-8.42269e-08 1.33527e-07 -0.00100002)
(-6.68023e-08 1.318e-07 -0.00100005)
(-4.29119e-08 1.3052e-07 -0.00100006)
(-1.47773e-08 1.29579e-07 -0.00100007)
(-9.55991e-08 1.22445e-07 -0.000999951)
(-8.61499e-08 1.20539e-07 -0.000999981)
(-6.8321e-08 1.18919e-07 -0.00100001)
(-4.38678e-08 1.17729e-07 -0.00100002)
(-1.50969e-08 1.1691e-07 -0.00100003)
(-9.73652e-08 9.71612e-08 -0.000999916)
(-8.77535e-08 9.5642e-08 -0.000999946)
(-6.96101e-08 9.43625e-08 -0.000999972)
(-4.46866e-08 9.34285e-08 -0.000999991)
(-1.53633e-08 9.27902e-08 -0.001)
(-9.86568e-08 6.23816e-08 -0.00099989)
(-8.89473e-08 6.1416e-08 -0.000999921)
(-7.0532e-08 6.05974e-08 -0.000999947)
(-4.52534e-08 6.00115e-08 -0.000999967)
(-1.55494e-08 5.9598e-08 -0.000999977)
(-9.91294e-08 2.14446e-08 -0.000999877)
(-8.93616e-08 2.11325e-08 -0.000999908)
(-7.08741e-08 2.08567e-08 -0.000999935)
(-4.54772e-08 2.06525e-08 -0.000999954)
(-1.56271e-08 2.05039e-08 -0.000999964)
(-1.27752e-07 1.84844e-07 -0.000999991)
(-1.15013e-07 1.8169e-07 -0.00100003)
(-9.11929e-08 1.78977e-07 -0.00100006)
(-5.85443e-08 1.76967e-07 -0.00100009)
(-2.01364e-08 1.75569e-07 -0.0010001)
(-1.30894e-07 1.66961e-07 -0.000999934)
(-1.17958e-07 1.64025e-07 -0.000999975)
(-9.35392e-08 1.61498e-07 -0.00100001)
(-6.00342e-08 1.59671e-07 -0.00100003)
(-2.06422e-08 1.58436e-07 -0.00100005)
(-1.33673e-07 1.32549e-07 -0.000999886)
(-1.20476e-07 1.30187e-07 -0.000999928)
(-9.55448e-08 1.28171e-07 -0.000999963)
(-6.12881e-08 1.2673e-07 -0.000999989)
(-2.10534e-08 1.25743e-07 -0.001)
(-1.35687e-07 8.51333e-08 -0.00099985)
(-1.22334e-07 8.3614e-08 -0.000999893)
(-9.69931e-08 8.23162e-08 -0.00099993)
(-6.22089e-08 8.13859e-08 -0.000999956)
(-2.13771e-08 8.07093e-08 -0.00099997)
(-1.36494e-07 2.92782e-08 -0.000999832)
(-1.23051e-07 2.8767e-08 -0.000999875)
(-9.75798e-08 2.83228e-08 -0.000999912)
(-6.26102e-08 2.79909e-08 -0.000999939)
(-2.15262e-08 2.7745e-08 -0.000999953)
(-1.74325e-07 2.52073e-07 -0.000999988)
(-1.57007e-07 2.47085e-07 -0.00100004)
(-1.24447e-07 2.42818e-07 -0.00100009)
(-7.98156e-08 2.39682e-07 -0.00100012)
(-2.74229e-08 2.3759e-07 -0.00100014)
(-1.79325e-07 2.27666e-07 -0.000999911)
(-1.61588e-07 2.23061e-07 -0.000999967)
(-1.28081e-07 2.19129e-07 -0.00100001)
(-8.214e-08 2.16305e-07 -0.00100005)
(-2.82212e-08 2.14397e-07 -0.00100007)
(-1.83685e-07 1.80808e-07 -0.000999845)
(-1.65544e-07 1.77104e-07 -0.000999902)
(-1.31199e-07 1.73948e-07 -0.000999952)
(-8.41166e-08 1.71682e-07 -0.000999987)
(-2.89012e-08 1.70126e-07 -0.00100001)
(-1.86893e-07 1.16177e-07 -0.000999796)
(-1.68445e-07 1.13766e-07 -0.000999856)
(-1.33498e-07 1.11722e-07 -0.000999906)
(-8.56188e-08 1.10217e-07 -0.000999943)
(-2.94346e-08 1.09197e-07 -0.000999962)
(-1.88251e-07 3.99796e-08 -0.000999771)
(-1.69666e-07 3.91403e-08 -0.000999832)
(-1.34483e-07 3.84307e-08 -0.000999883)
(-8.62533e-08 3.78959e-08 -0.00099992)
(-2.96437e-08 3.75548e-08 -0.000999939)
(-2.3801e-07 3.4353e-07 -0.000999984)
(-2.14284e-07 3.35778e-07 -0.00100006)
(-1.69775e-07 3.29136e-07 -0.00100012)
(-1.08854e-07 3.24299e-07 -0.00100016)
(-3.74014e-08 3.21139e-07 -0.00100019)
(-2.45837e-07 3.1039e-07 -0.000999879)
(-2.21409e-07 3.03196e-07 -0.000999956)
(-1.75411e-07 2.97075e-07 -0.00100002)
(-1.12457e-07 2.92655e-07 -0.00100007)
(-3.86403e-08 2.8973e-07 -0.00100009)
(-2.52658e-07 2.46619e-07 -0.000999789)
(-2.27599e-07 2.40807e-07 -0.000999869)
(-1.80311e-07 2.35859e-07 -0.000999936)
(-1.15616e-07 2.32258e-07 -0.000999986)
(-3.97432e-08 2.29894e-07 -0.00100001)
(-2.57749e-07 1.58523e-07 -0.000999723)
(-2.32166e-07 1.54711e-07 -0.000999805)
(-1.83953e-07 1.51485e-07 -0.000999875)
(-1.17957e-07 1.4913e-07 -0.000999926)
(-4.05404e-08 1.47626e-07 -0.000999952)
(-2.59958e-07 5.45708e-08 -0.000999689)
(-2.34177e-07 5.32313e-08 -0.000999772)
(-1.85526e-07 5.21093e-08 -0.000999843)
(-1.18945e-07 5.13006e-08 -0.000999894)
(-4.08698e-08 5.07912e-08 -0.000999921)
(-3.24931e-07 4.68106e-07 -0.000999979)
(-2.92385e-07 4.56023e-07 -0.00100008)
(-2.31525e-07 4.45694e-07 -0.00100016)
(-1.48406e-07 4.38188e-07 -0.00100023)
(-5.09937e-08 4.33356e-07 -0.00100026)
(-3.37182e-07 4.23149e-07 -0.000999836)
(-3.03481e-07 4.11926e-07 -0.000999941)
(-2.40345e-07 4.0234e-07 -0.00100003)
(-1.54077e-07 3.95364e-07 -0.0010001)
(-5.29525e-08 3.90906e-07 -0.00100013)
(-3.47918e-07 3.36392e-07 -0.000999713)
(-3.13194e-07 3.27249e-07 -0.000999823)
(-2.48081e-07 3.19464e-07 -0.000999917)
(-1.59052e-07 3.13797e-07 -0.000999985)
(-5.46613e-08 3.10211e-07 -0.00100002)
(-3.55935e-07 2.16298e-07 -0.000999623)
(-3.20405e-07 2.10295e-07 -0.000999737)
(-2.53789e-07 2.05229e-07 -0.000999834)
(-1.62703e-07 2.01547e-07 -0.000999904)
(-5.59111e-08 1.99196e-07 -0.000999941)
(-3.59494e-07 7.44663e-08 -0.000999577)
(-3.2363e-07 7.23714e-08 -0.000999693)
(-2.56325e-07 7.06201e-08 -0.000999791)
(-1.64362e-07 6.93427e-08 -0.000999862)
(-5.65e-08 6.85082e-08 -0.0009999)
(-4.4345e-07 6.37839e-07 -0.000999973)
(-3.98821e-07 6.18917e-07 -0.00100011)
(-3.15621e-07 6.02791e-07 -0.00100022)
(-2.02249e-07 5.91037e-07 -0.00100031)
(-6.94847e-08 5.83663e-07 -0.00100035)
(-4.62695e-07 5.76864e-07 -0.000999778)
(-4.162e-07 5.59269e-07 -0.000999922)
(-3.29483e-07 5.442e-07 -0.00100005)
(-2.11172e-07 5.33223e-07 -0.00100013)
(-7.25639e-08 5.26394e-07 -0.00100018)
(-4.79658e-07 4.58899e-07 -0.00099961)
(-4.31485e-07 4.44483e-07 -0.000999763)
(-3.41659e-07 4.32214e-07 -0.000999892)
(-2.18991e-07 4.2327e-07 -0.000999986)
(-7.52458e-08 4.17707e-07 -0.00100003)
(-4.92295e-07 2.95212e-07 -0.000999488)
(-4.42878e-07 2.85752e-07 -0.000999646)
(-3.50684e-07 2.77728e-07 -0.000999781)
(-2.24832e-07 2.71844e-07 -0.000999878)
(-7.72788e-08 2.68181e-07 -0.000999929)
(-4.98063e-07 1.01643e-07 -0.000999424)
(-4.48095e-07 9.83663e-08 -0.000999586)
(-3.5487e-07 9.55717e-08 -0.000999722)
(-2.27553e-07 9.35012e-08 -0.000999821)
(-7.82137e-08 9.22315e-08 -0.000999874)
(-6.05038e-07 8.68831e-07 -0.000999966)
(-5.43712e-07 8.39292e-07 -0.00100015)
(-4.30022e-07 8.1411e-07 -0.00100031)
(-2.75471e-07 7.95691e-07 -0.00100042)
(-9.46243e-08 7.84421e-07 -0.00100048)
(-6.35241e-07 7.86436e-07 -0.0009997)
(-5.70981e-07 7.58737e-07 -0.000999899)
(-4.51775e-07 7.35015e-07 -0.00100007)
(-2.89461e-07 7.17728e-07 -0.00100019)
(-9.94467e-08 7.07178e-07 -0.00100025)
(-6.62053e-07 6.26244e-07 -0.000999471)
(-5.95133e-07 6.03417e-07 -0.000999683)
(-4.71019e-07 5.83956e-07 -0.000999861)
(-3.01874e-07 5.69723e-07 -0.000999991)
(-1.03734e-07 5.61083e-07 -0.00100006)
(-6.82113e-07 4.03177e-07 -0.000999304)
(-6.13262e-07 3.88147e-07 -0.000999525)
(-4.85453e-07 3.75309e-07 -0.000999712)
(-3.11191e-07 3.65929e-07 -0.000999847)
(-1.06941e-07 3.60293e-07 -0.000999919)
(-6.91541e-07 1.38862e-07 -0.000999216)
(-6.21792e-07 1.33645e-07 -0.000999442)
(-4.92274e-07 1.29151e-07 -0.000999633)
(-3.15548e-07 1.25888e-07 -0.000999771)
(-1.08426e-07 1.23947e-07 -0.000999845)
(-8.25021e-07 1.18297e-06 -0.000999959)
(-7.40576e-07 1.13694e-06 -0.00100021)
(-5.85281e-07 1.09756e-06 -0.00100042)
(-3.74748e-07 1.06866e-06 -0.00100058)
(-1.28695e-07 1.05128e-06 -0.00100066)
(-8.72408e-07 1.07222e-06 -0.000999596)
(-7.83412e-07 1.02847e-06 -0.000999869)
(-6.195e-07 9.91005e-07 -0.0010001)
(-3.96842e-07 9.63617e-07 -0.00100027)
(-1.36336e-07 9.47215e-07 -0.00100035)
(-9.1489e-07 8.55059e-07 -0.000999283)
(-8.21791e-07 8.18725e-07 -0.000999576)
(-6.50122e-07 7.87673e-07 -0.000999824)
(-4.16611e-07 7.64979e-07 -0.001)
(-1.43156e-07 7.51512e-07 -0.0010001)
(-9.46959e-07 5.51139e-07 -0.000999054)
(-8.50786e-07 5.27091e-07 -0.000999362)
(-6.73225e-07 5.06532e-07 -0.000999623)
(-4.31467e-07 4.91557e-07 -0.000999812)
(-1.48258e-07 4.82687e-07 -0.000999912)
(-9.62413e-07 1.89961e-07 -0.000998934)
(-8.64723e-07 1.81572e-07 -0.00099925)
(-6.84322e-07 1.74392e-07 -0.000999518)
(-4.38625e-07 1.69181e-07 -0.000999712)
(-1.50745e-07 1.66071e-07 -0.000999814)
(-1.12371e-06 1.60993e-06 -0.000999952)
(-1.0073e-06 1.53807e-06 -0.00100029)
(-7.95414e-07 1.47626e-06 -0.00100058)
(-5.09052e-07 1.43076e-06 -0.00100079)
(-1.74797e-07 1.40383e-06 -0.00100089)
(-1.19822e-06 1.46197e-06 -0.000999458)
(-1.07486e-06 1.39263e-06 -0.000999833)
(-8.49545e-07 1.33317e-06 -0.00100015)
(-5.44142e-07 1.28955e-06 -0.00100038)
(-1.86947e-07 1.26387e-06 -0.0010005)
(-1.26584e-06 1.16829e-06 -0.000999031)
(-1.1361e-06 1.1102e-06 -0.000999437)
(-8.98471e-07 1.06049e-06 -0.000999781)
(-5.75766e-07 1.02411e-06 -0.00100003)
(-1.97868e-07 1.00282e-06 -0.00100016)
(-1.31738e-06 7.54432e-07 -0.000998715)
(-1.18264e-06 7.15762e-07 -0.000999147)
(-9.35599e-07 6.82711e-07 -0.000999512)
(-5.99751e-07 6.58522e-07 -0.000999777)
(-2.0616e-07 6.44394e-07 -0.000999917)
(-1.34277e-06 2.6034e-07 -0.000998549)
(-1.2055e-06 2.46792e-07 -0.000998994)
(-9.5386e-07 2.35226e-07 -0.00099937)
(-6.11588e-07 2.26741e-07 -0.000999643)
(-2.10259e-07 2.21795e-07 -0.000999788)
(-1.52776e-06 2.1895e-06 -0.000999948)
(-1.36737e-06 2.07694e-06 -0.00100041)
(-1.07889e-06 1.97965e-06 -0.00100079)
(-6.90276e-07 1.90775e-06 -0.00100107)
(-2.37027e-07 1.86571e-06 -0.00100121)
(-1.64528e-06 1.99345e-06 -0.000999277)
(-1.47435e-06 1.8832e-06 -0.00099979)
(-1.16493e-06 1.7884e-06 -0.00100022)
(-7.46242e-07 1.71854e-06 -0.00100054)
(-2.56432e-07 1.67793e-06 -0.0010007)
(-1.75348e-06 1.59791e-06 -0.000998692)
(-1.57241e-06 1.50466e-06 -0.000999257)
(-1.24352e-06 1.42471e-06 -0.000999735)
(-7.97297e-07 1.36589e-06 -0.00100008)
(-2.74146e-07 1.33189e-06 -0.00100027)
(-1.83673e-06 1.03484e-06 -0.000998256)
(-1.64753e-06 9.7232e-07 -0.000998862)
(-1.30366e-06 9.18811e-07 -0.000999374)
(-8.36309e-07 8.79462e-07 -0.000999748)
(-2.87643e-07 8.56847e-07 -0.000999946)
(-1.87854e-06 3.57734e-07 -0.000998026)
(-1.68521e-06 3.35739e-07 -0.000998652)
(-1.3338e-06 3.16932e-07 -0.000999183)
(-8.55859e-07 3.03116e-07 -0.00099957)
(-2.94408e-07 2.95193e-07 -0.000999776)
(-2.07134e-06 2.97425e-06 -0.000999953)
(-1.85089e-06 2.79756e-06 -0.00100057)
(-1.45958e-06 2.64399e-06 -0.00100108)
(-9.339e-07 2.52972e-06 -0.00100145)
(-3.2075e-07 2.46333e-06 -0.00100165)
(-2.25735e-06 2.71807e-06 -0.000999044)
(-2.02082e-06 2.54221e-06 -0.000999743)
(-1.59699e-06 2.3903e-06 -0.00100034)
(-1.02384e-06 2.27757e-06 -0.00100077)
(-3.52081e-07 2.21261e-06 -0.00100099)
(-2.43134e-06 2.18911e-06 -0.000998241)
(-2.17866e-06 2.03864e-06 -0.000999025)
(-1.72418e-06 1.90923e-06 -0.00099969)
(-1.10701e-06 1.81332e-06 -0.00100018)
(-3.81048e-07 1.75837e-06 -0.00100044)
(-2.56648e-06 1.42397e-06 -0.000997635)
(-2.30067e-06 1.3224e-06 -0.000998485)
(-1.82226e-06 1.23526e-06 -0.000999208)
(-1.17104e-06 1.17078e-06 -0.000999739)
(-4.03306e-07 1.13394e-06 -0.00100002)
(-2.63547e-06 4.93553e-07 -0.000997311)
(-2.36286e-06 4.57728e-07 -0.000998196)
(-1.87221e-06 4.27022e-07 -0.000998949)
(-1.20368e-06 4.0433e-07 -0.000999503)