# vtk DataFile Version 4.0
Generated by LIGGGHTS
ASCII
DATASET POLYDATA
POINTS 558 float
0.518694 -4.21969 6.08343 4.05029 -4.01541 6.61938 -3.65082 -3.38597 6.57941 
1.56005 -3.14157 6.56587 3.28485 -1.98368 6.07544 4.21745 -1.00374 6.20925 
-0.701993 0.927345 6.54358 4.19726 0.746026 6.08106 2.99367 1.87399 6.47878 
-4.13001 2.146 6.16906 -2.309 2.44513 6.51237 0.395978 2.61026 6.20375 
1.38855 2.27547 6.66314 -0.596854 3.06914 6.4893 -3.14569 4.01572 6.12375 
0.729734 4.13758 6.36168 -4.39245 -4.31447 7.65568 -2.86983 -4.36089 6.742 
3.03478 -4.49976 7.52086 -2.71486 -3.18942 7.2216 -1.26131 -3.54452 6.77838 
2.61323 -3.5425 6.80612 -0.100007 -2.85847 7.4106 0.836093 -2.30748 7.00446 
-3.81459 -1.32984 7.24983 0.125219 -1.56383 6.69998 1.3991 -1.3347 7.00278 
4.16598 -1.88368 7.18598 -3.87717 -0.318466 6.76422 -2.8515 -0.799255 6.84603 
-0.855993 -0.949301 6.99298 0.759117 -0.326288 6.95471 1.95486 -0.442233 6.87951 
-2.85263 0.237872 7.40759 3.09254 0.403266 7.2736 -4.27519 1.05596 7.0622 
-1.95773 1.36012 7.01087 -0.934762 1.98212 7.52645 0.514418 1.71901 7.46696 
4.13347 1.60038 7.23846 3.68684 2.73017 7.04196 -4.47419 3.23216 7.11465 
1.74452 3.23358 7.51102 2.94782 3.67894 6.94482 4.23345 3.65417 7.12636 
-4.06013 4.41318 7.45939 -0.962804 4.0532 7.21558 -1.42728 -4.47504 8.26997 
1.40285 -4.2589 8.4212 4.14917 -4.41997 8.68354 0.605086 -3.76811 7.76549 
-3.92389 -2.5619 7.86419 -1.84548 -2.19817 7.828 0.0781902 -2.09929 8.61292 
1.26818 -2.0897 8.73264 4.23459 -2.97601 7.82427 2.79938 -1.95575 7.72606 
-1.94206 -0.920279 7.75506 4.00029 -0.0375416 8.06226 -1.86357 0.389249 8.38824 
-0.0347712 0.405222 7.70798 1.76398 0.540026 7.74787 -3.4893 1.95614 7.70316 
2.39064 1.34563 7.90285 3.53921 2.0775 8.70395 -2.78063 3.83223 7.86496 
-1.3863 3.05908 7.88661 0.472306 3.0418 8.07304 1.76649 4.40925 7.83392 
-3.01497 -4.13065 9.1441 0.46025 -4.14651 9.58722 2.13184 -4.1476 9.62139 
-4.09316 -3.64865 9.3095 -2.2072 -3.38691 8.77442 -0.614913 -3.30174 9.62836 
0.864229 -3.20229 9.39209 2.04912 -3.19568 8.79123 3.76628 -3.31576 9.3165 
-4.34298 -2.5901 9.54351 -3.24202 -2.54816 9.34225 -1.08131 -2.35817 9.13604 
2.89036 -2.63637 9.43433 4.31104 -2.10559 9.2372 -4.38409 -1.17765 8.77601 
-3.38313 -1.3672 9.65603 -1.59297 -1.16854 9.55407 -0.209631 -1.18784 9.21011 
2.16409 -1.37035 9.62505 3.228 -1.20132 8.76348 -3.55099 -0.38615 8.85181 
-2.57339 -0.565158 9.39475 -0.455917 -0.2236 9.72701 0.686705 -0.293569 9.22612 
1.69999 -0.0513624 9.49654 2.80176 -0.036423 9.7405 3.87494 -0.472461 9.65494 
-4.45589 0.828845 9.52138 -3.45904 0.503094 9.70994 -1.1372 0.903847 9.72022 
-4.44297 1.86753 8.89481 -2.68747 1.31159 9.00226 0.35725 1.04419 9.59369 
1.38148 1.20338 9.13144 2.3348 1.28732 9.70957 4.03519 1.02386 8.84376 
-3.41856 2.69744 9.40192 -1.40783 2.30095 9.32829 0.654154 2.06521 9.21251 
2.2394 2.53911 9.04547 3.16957 2.9705 9.73632 4.19628 2.74924 9.3403 
-3.40423 3.82202 9.56499 -2.22986 3.07703 8.89723 -1.53567 3.87775 9.18644 
-0.531973 3.94857 9.3415 1.81472 3.93507 9.57655 2.88647 3.99065 9.16593 
4.05386 3.87726 9.26404 -4.37972 4.14117 9.56993 0.779639 4.19225 9.24341 
-4.40534 -4.44547 10.6958 -1.10306 -4.23406 10.2479 -1.62063 -3.15841 10.8012 
2.98124 -3.71561 10.7037 -0.71201 -2.08566 10.6721 -3.86606 -0.560827 10.7781 
-3.71291 1.48262 10.575 -2.19277 1.24584 10.6136 2.97278 1.80676 10.7995 
4.04343 1.74673 10.454 -0.282212 2.39552 9.81188 2.09837 2.41592 10.7733 
-2.33235 3.72421 10.5705 0.108077 3.6926 10.7709 -2.71248 -4.12826 11.1813 
-3.65275 -3.58305 11.3415 -0.189913 -3.86751 11.1468 1.08292 -3.79961 11.2531 
4.13444 -3.71435 10.9825 -4.46703 -2.97179 11.3452 -2.879 -2.78606 11.2631 
0.311035 -2.73112 11.3531 1.3659 -2.82923 11.1183 2.44337 -2.34665 11.3595 
4.14164 -2.21447 11.0146 -4.09201 -1.89406 11.3464 -2.50451 -1.84749 11.0138 
-0.274688 -1.15929 10.9535 1.33953 -1.25795 11.13 3.13643 -1.18467 11.0927 
-2.08673 -0.157003 11.1626 -1.17899 -0.717647 10.9953 2.1624 -0.442815 10.9835 
-4.16463 0.61736 11.1727 -0.423074 0.487533 10.9969 0.581922 0.345406 11.39 
1.79385 0.490052 11.0974 3.09982 0.856622 11.3976 4.46022 0.0576785 11.1166 
-0.660258 1.80028 11.0995 1.21839 1.54541 11.1039 -4.0787 2.92142 11.1126 
-3.20377 2.34284 11.3172 -1.67784 2.88772 10.9297 0.4333 2.30249 11.309 
-4.41229 3.98901 11.3006 1.29856 3.01013 11.351 2.88194 3.90461 11.0283 
4.28804 3.27578 10.8542 -3.06268 4.41706 10.8946 -1.11972 4.22412 11.1099 
1.19471 4.32354 11.2684 4.27642 4.36265 11.1315 -1.62651 -4.33285 11.9904 
2.62946 -4.24514 12.7989 -3.30001 -3.25171 12.8024 0.501731 -3.57654 12.6068 
1.91078 -3.19628 12.384 4.46733 -3.64532 12.6927 -4.46464 -2.16021 12.7908 
-1.4656 -2.12735 12.0482 -0.690634 -2.80793 12.011 0.908524 -2.40029 12.5562 
4.38433 -2.36736 12.5963 -4.04965 -1.06631 12.3471 -2.52748 -1.00118 12.8458 
-0.535139 -1.54067 12.4364 1.83383 -1.54707 12.6192 4.05553 -1.02814 12.6526 
0.044931 -0.728519 12.3372 -3.12872 0.68349 12.3688 -1.49487 0.842463 12.0072 
-1.96062 0.0488463 12.7402 -0.521165 0.150845 12.7198 4.40565 0.826357 12.8581 
-1.71034 1.78066 12.5307 -0.526029 1.14437 12.3844 0.529071 1.38381 12.8713 
2.58886 1.51818 12.4798 -2.58522 2.26172 12.7957 -0.191308 2.43527 12.6246 
1.39294 2.4173 12.7991 3.20144 2.76346 12.7462 4.34336 2.56541 12.7687 
-4.41814 3.41137 12.7548 -3.44119 3.12284 12.6197 -2.36372 3.72735 12.4998 
-0.474659 3.91307 12.5061 1.12095 3.93384 12.8424 -3.55439 4.27696 12.4905 
2.60934 4.15439 12.5952 -4.37031 -4.4062 13.6741 -3.42976 -4.2455 13.0159 
-2.33781 -4.12823 13.252 1.02704 -4.45466 12.9804 -1.83322 -3.18341 12.9247 
-0.545713 -3.85504 12.9222 3.57133 -3.14799 13.0063 -2.34618 -2.1473 12.9391 
-1.02252 -2.69312 13.51 0.0178133 -2.74125 13.8894 2.54534 -2.20802 13.793 
-3.50469 -1.83685 12.9564 -1.40755 -1.72813 13.8364 0.368357 -1.81727 13.4945 
3.01137 -1.43991 12.9677 -4.22803 -0.15766 12.9991 -1.32146 -0.760165 12.9686 
1.08036 -0.645759 12.908 -4.44502 0.758801 13.7334 1.84003 0.0355093 12.9423 
3.21694 0.417552 12.9474 -4.09358 1.52853 12.8891 -1.28861 3.036 12.9014 
3.28209 4.16793 13.7531 4.17896 4.23781 12.9481 -1.80024 -4.46971 14.4664 
-0.775399 -4.15253 14.4567 4.41589 -4.38604 14.0277 -4.2242 -3.15793 14.4635 
-3.18857 -3.60472 14.4307 0.3214 -3.78122 14.2139 1.27539 -3.3641 13.966 
2.48525 -3.57702 14.3702 3.58601 -3.54007 14.4374 -2.88228 -2.46864 14.4929 
-1.82161 -2.97696 14.4604 1.40503 -2.21404 14.4426 4.43031 -2.65651 14.3036 
-4.44824 -1.92366 14.2826 -3.21558 -1.22702 14.4863 -2.21844 -1.03305 14.4312 
-0.372403 -1.55137 14.4852 1.74095 -1.14548 14.1962 2.88346 -1.02821 14.3654 
3.66797 -1.8367 14.0725 -3.54522 -0.195935 14.4786 -0.601509 -0.576258 14.4024 
0.481229 -0.678517 14.303 4.35246 -0.211247 14.4346 -2.31378 0.652999 14.4689 
-0.841943 0.456573 14.364 0.760613 0.950757 14.1966 1.96681 0.0325421 14.5025 
3.0628 0.224778 14.4931 -3.31937 1.1027 14.2195 -2.40884 1.88238 14.253 
-1.24652 1.51684 14.0582 1.64763 1.64862 14.0663 2.78233 1.34625 14.4845 
3.95473 1.86453 14.268 -3.98285 2.22176 14.3603 -0.566183 2.27159 14.463 
0.391698 2.75651 14.4178 -3.6579 3.347 14.0733 -1.86415 3.37671 14.3544 
-0.385313 3.3515 13.9556 1.49947 3.08015 14.4831 2.65935 3.15365 14.1919 
4.25973 3.28708 13.9826 -4.41774 4.04246 14.4851 -2.88926 4.46792 14.2513 
-1.62506 4.45534 14.1768 0.0833131 4.3604 14.3868 1.61631 4.48099 14.1054 
-3.59979 -4.41508 15.2194 -0.85346 -4.1805 15.8524 0.804985 -4.24466 15.3417 
3.06524 -4.32246 15.2547 4.03388 -4.21531 15.8239 -3.48488 -3.25631 15.8493 
-2.17539 -3.71592 15.8388 1.69894 -3.60086 15.7085 3.11526 -3.20989 15.8021 
-4.16905 -2.49172 15.7446 -1.88402 -2.64915 15.8144 -0.775582 -2.76034 14.9779 
0.679281 -2.94409 15.197 2.32293 -2.63878 15.1096 3.19324 -2.19311 15.7193 
4.48247 -2.5268 15.7581 -3.78897 -1.50652 15.6247 -2.88885 -1.03354 15.7966 
-1.24359 -1.8959 15.2622 -0.313578 -1.89941 15.8696 0.66852 -1.62627 15.4735 
2.12786 -1.28646 15.8852 4.38205 -1.17805 15.3224 -4.38262 -0.177783 15.4844 
-1.5851 -0.422284 15.8621 -0.436688 -0.470933 15.8976 0.755108 -0.667197 15.8594 
3.67122 -0.487347 15.5096 -4.40959 0.925727 15.2246 -1.46158 0.722843 15.7005 
0.357497 0.259719 15.8594 2.42508 0.0147207 15.872 4.36993 0.909648 15.8625 
-3.24464 1.22741 15.7553 -2.06966 1.68966 15.5745 0.04762 1.9025 15.64 
1.29846 1.12127 15.8211 3.17868 1.40398 15.8948 -4.32849 2.90663 15.8384 
-2.7768 2.46104 15.4625 -1.15405 2.54523 15.538 1.05612 2.78433 15.6752 
2.31165 2.37456 15.0019 3.7623 2.62725 15.6106 -4.14876 3.90627 15.8501 
-3.00324 3.42397 15.7053 -1.61394 3.75724 15.7297 -0.447028 3.88061 15.5739 
2.3398 3.82474 15.1813 3.8801 3.79753 15.7743 0.930522 4.04386 15.4026 
3.12572 4.45244 15.2155 -1.73938 -4.4346 16.954 -0.256302 -4.17273 16.9519 
2.02427 -4.30468 16.9614 -4.32603 -3.98923 16.232 -4.35477 -3.05111 16.8833 
-2.59005 -3.2489 17.0162 -1.1686 -3.61115 17.0032 0.799384 -3.46943 16.61 
2.39312 -3.01955 16.7762 4.32106 -3.38831 16.5927 -3.18021 -2.24953 16.4058 
-0.472379 -2.86622 16.9326 0.976034 -2.05343 16.7181 -3.85608 -1.61052 16.9444 
3.72085 -1.33456 16.7646 -3.57366 -0.635516 16.939 -2.45996 -0.626045 16.9901 
1.64267 -0.45296 16.6522 2.82579 -0.602224 16.838 -4.33231 0.190842 16.8402 
-2.53071 0.283738 16.3716 -1.1372 0.195211 16.9433 1.58336 0.710768 17.0109 
-0.620382 1.313 16.6765 2.6109 1.12611 17.0127 -3.379 2.1075 16.9096 
-1.95629 2.58724 16.7759 2.53301 3.29267 16.9651 -3.12006 4.31446 16.3691 
-1.98134 4.42807 16.7702 1.51994 4.31202 16.9107 4.34974 4.22652 16.9414 
-4.495 -4.20759 17.5557 -3.34954 -4.17827 17.186 0.808126 -4.37495 17.2672 
-1.99154 -3.73376 18.0524 3.26142 -3.83697 17.0644 4.03874 -3.93092 18.0394 
-3.17777 -2.33575 17.76 -2.09569 -2.36953 17.0512 -1.181 -2.29451 17.6896 
4.173 -2.46078 17.1848 -1.52978 -1.46293 17.0506 0.0303127 -1.65665 17.8956 
1.80939 -1.16273 17.5883 2.71109 -1.77727 17.075 -0.0363289 -0.775526 17.084 
-0.929504 -0.791819 17.974 2.25559 -0.0531143 17.8242 3.74685 -0.133939 17.1124 
4.06559 -0.9972 17.8545 -3.21135 0.670472 17.1731 -1.70675 0.871535 18.0601 
0.56949 0.254972 17.2774 -4.40258 1.97099 17.0882 -2.37532 1.40719 17.1623 
0.48654 1.32164 17.1617 3.72086 1.24635 17.1138 -1.56103 2.61838 17.9358 
-0.881744 2.24874 17.0353 0.370273 2.4239 17.1775 1.53612 2.0476 17.0358 
2.60848 2.19346 18.061 3.17697 2.31605 17.072 4.40482 2.68381 17.1035 
-3.07709 3.14068 17.1843 -1.46544 3.53388 17.1696 -0.198769 3.57494 17.095 
1.18611 3.19338 17.0907 3.34329 3.75671 18.0349 -4.00985 4.19393 17.1183 
-2.71291 4.03322 17.8495 -1.10674 4.32575 17.8257 3.20946 4.48323 17.1115 
-1.92927 -4.30848 19.0388 -0.847939 -4.49702 18.2741 -0.0454525 -4.42141 19.0579 
1.99154 -4.3612 18.183 -3.9558 -3.54341 18.2425 -1.67074 -3.24528 19.0583 
0.0192409 -3.17081 18.0853 0.970178 -3.87161 18.3771 1.90336 -3.11358 18.1917 
3.09179 -3.6573 19.0642 4.41215 -3.07 18.7272 -4.12666 -2.03879 18.2682 
-2.24879 -2.43558 18.8341 1.93642 -2.07062 18.2562 1.12553 -2.45858 19.0399 
3.55195 -2.82196 18.1806 -3.32683 -1.30495 18.199 -2.27364 -1.05553 18.1046 
1.05133 -1.56437 18.2895 3.06602 -1.36554 18.3893 -4.48696 -0.637344 18.6743 
-2.83738 -0.194307 18.3044 0.463615 -0.482183 18.3488 -3.97748 0.123252 18.179 
-0.774475 0.266414 18.3006 0.291477 0.613087 18.3634 2.77464 0.310434 18.7696 
4.27228 0.0201852 18.2864 -3.62636 1.23122 18.1706 -1.32026 1.77153 18.7284 
-0.219569 1.57521 18.1386 0.802075 1.86745 18.4391 1.64557 1.12664 18.2626 
3.59749 1.07976 18.3332 -3.4157 2.21538 18.3453 -2.45281 2.53574 18.5389 
-0.546247 2.56046 18.125 0.846098 2.87239 18.2192 3.48655 2.37437 18.771 
4.38494 2.68797 18.3103 -4.07332 3.05115 18.2394 -1.06128 3.44065 18.3801 
2.32364 3.63781 18.3423 -4.25458 4.35081 18.2747 0.356492 4.11001 18.1628 
1.35206 4.37677 18.3242 4.48732 4.13431 18.3572 -3.59932 -4.28181 19.2922 
1.45483 -4.1048 19.3789 4.35945 -4.46577 19.2936 -4.44009 -3.425 19.383 
-2.4909 -3.67905 19.7565 -0.758581 -3.63492 19.3758 -0.0670664 -3.94366 20.1221 
0.272758 -3.08691 19.3359 2.181 -3.22304 19.3937 -4.27455 -2.02604 19.3932 
-3.14727 -2.94248 19.1245 -2.61674 -2.65693 19.9628 -1.66235 -2.28086 19.6864 
-0.751328 -2.44323 19.1073 2.2896 -2.1539 19.5417 3.37681 -2.07708 19.419 
-2.57476 -1.30907 19.1912 -1.57668 -1.13143 19.3512 -0.444114 -1.76317 20.0436 
0.0248437 -1.21698 19.1048 1.49205 -1.55364 19.797 4.47947 -1.84737 19.346 
-3.74941 -0.72441 19.4044 -2.58934 -0.187219 19.8052 -0.878124 -0.354288 19.4101 
1.10854 -0.588047 19.8826 2.08539 -0.978279 19.1251 4.44282 -0.540252 19.4292 
-3.49011 0.288762 19.4071 -1.73267 0.250036 19.2493 0.410465 0.244253 19.4077 
1.50533 0.697079 19.4151 2.2879 0.57278 20.1411 3.68347 0.135571 19.3531 
-4.06351 1.44496 19.3419 -2.90908 1.16613 19.3065 -1.19801 1.1673 19.6859 
-0.108435 1.30555 19.3549 0.619297 1.56626 20.0472 2.41987 1.28852 19.3512 
3.30325 1.0024 20.0453 4.35418 1.47247 19.4516 -4.3735 2.48142 19.2404 
-3.29056 2.85163 19.3922 -2.49267 2.12341 20.073 -1.56174 2.87887 19.1637 
-1.42727 2.1768 20.0213 -0.261889 2.31827 19.1935 0.999832 2.41151 19.4701 
1.97581 2.32846 19.1338 1.91421 2.95466 20.0239 3.22377 2.13757 19.8042 
-2.69542 3.51285 20.0811 -1.9151 3.844 19.3263 -0.0929432 3.39459 19.2676 
1.68857 3.69528 19.3656 3.8353 3.22161 19.4194 -3.92609 4.00876 19.3437 
-2.86854 4.4577 19.4076 -0.91748 4.39781 19.4417 0.185183 4.37898 19.3656 
1.69374 4.40551 20.137 2.72387 4.24632 19.2495 3.7636 4.29545 19.3456 
-3.82634 -4.20567 20.4674 -1.60455 -4.29359 20.2396 0.909609 -4.13101 20.2736 
2.19936 -4.25647 20.1758 3.73184 -4.1124 20.2562 -3.70119 -3.03948 20.3357 
-1.72459 -3.17389 20.2564 1.62759 -3.07017 20.3957 4.01783 -3.10572 20.4397 
-0.311081 -2.86919 20.1969 3.14703 -2.57269 20.4867 -4.05737 -1.6006 20.2892 
-3.11555 -1.24717 20.2453 -1.49365 -1.27389 20.3581 0.558816 -1.70957 20.1641 
2.71483 -1.6553 20.3144 4.3115 -1.75694 20.4774 -3.89049 -0.525156 20.4844 
-1.64086 -0.232916 20.1773 0.117447 -0.185321 20.4624 1.96934 -0.450561 20.4 
3.25345 -0.326139 20.2651 -2.69742 0.64954 20.3996 -0.570174 0.543316 20.492 
4.48223 0.386095 20.466 -3.81764 1.17381 20.3538 -3.76615 2.22012 20.4282 
-0.489783 2.10048 20.4571 2.24292 2.01673 20.1613 3.84169 2.93127 20.43 
-4.39832 3.34908 20.3538 -1.72947 3.07468 20.4375 -0.697158 3.91249 20.4725 
0.284474 3.37576 20.2621 -1.61334 4.42185 20.409 2.97253 4.35695 20.3028 

VERTICES 558 1116
1 0 
1 1 
1 2 
1 3 
1 4 
1 5 
1 6 
1 7 
1 8 
1 9 
1 10 
1 11 
1 12 
1 13 
1 14 
1 15 
1 16 
1 17 
1 18 
1 19 
1 20 
1 21 
1 22 
1 23 
1 24 
1 25 
1 26 
1 27 
1 28 
1 29 
1 30 
1 31 
1 32 
1 33 
1 34 
1 35 
1 36 
1 37 
1 38 
1 39 
1 40 
1 41 
1 42 
1 43 
1 44 
1 45 
1 46 
1 47 
1 48 
1 49 
1 50 
1 51 
1 52 
1 53 
1 54 
1 55 
1 56 
1 57 
1 58 
1 59 
1 60 
1 61 
1 62 
1 63 
1 64 
1 65 
1 66 
1 67 
1 68 
1 69 
1 70 
1 71 
1 72 
1 73 
1 74 
1 75 
1 76 
1 77 
1 78 
1 79 
1 80 
1 81 
1 82 
1 83 
1 84 
1 85 
1 86 
1 87 
1 88 
1 89 
1 90 
1 91 
1 92 
1 93 
1 94 
1 95 
1 96 
1 97 
1 98 
1 99 
1 100 
1 101 
1 102 
1 103 
1 104 
1 105 
1 106 
1 107 
1 108 
1 109 
1 110 
1 111 
1 112 
1 113 
1 114 
1 115 
1 116 
1 117 
1 118 
1 119 
1 120 
1 121 
1 122 
1 123 
1 124 
1 125 
1 126 
1 127 
1 128 
1 129 
1 130 
1 131 
1 132 
1 133 
1 134 
1 135 
1 136 
1 137 
1 138 
1 139 
1 140 
1 141 
1 142 
1 143 
1 144 
1 145 
1 146 
1 147 
1 148 
1 149 
1 150 
1 151 
1 152 
1 153 
1 154 
1 155 
1 156 
1 157 
1 158 
1 159 
1 160 
1 161 
1 162 
1 163 
1 164 
1 165 
1 166 
1 167 
1 168 
1 169 
1 170 
1 171 
1 172 
1 173 
1 174 
1 175 
1 176 
1 177 
1 178 
1 179 
1 180 
1 181 
1 182 
1 183 
1 184 
1 185 
1 186 
1 187 
1 188 
1 189 
1 190 
1 191 
1 192 
1 193 
1 194 
1 195 
1 196 
1 197 
1 198 
1 199 
1 200 
1 201 
1 202 
1 203 
1 204 
1 205 
1 206 
1 207 
1 208 
1 209 
1 210 
1 211 
1 212 
1 213 
1 214 
1 215 
1 216 
1 217 
1 218 
1 219 
1 220 
1 221 
1 222 
1 223 
1 224 
1 225 
1 226 
1 227 
1 228 
1 229 
1 230 
1 231 
1 232 
1 233 
1 234 
1 235 
1 236 
1 237 
1 238 
1 239 
1 240 
1 241 
1 242 
1 243 
1 244 
1 245 
1 246 
1 247 
1 248 
1 249 
1 250 
1 251 
1 252 
1 253 
1 254 
1 255 
1 256 
1 257 
1 258 
1 259 
1 260 
1 261 
1 262 
1 263 
1 264 
1 265 
1 266 
1 267 
1 268 
1 269 
1 270 
1 271 
1 272 
1 273 
1 274 
1 275 
1 276 
1 277 
1 278 
1 279 
1 280 
1 281 
1 282 
1 283 
1 284 
1 285 
1 286 
1 287 
1 288 
1 289 
1 290 
1 291 
1 292 
1 293 
1 294 
1 295 
1 296 
1 297 
1 298 
1 299 
1 300 
1 301 
1 302 
1 303 
1 304 
1 305 
1 306 
1 307 
1 308 
1 309 
1 310 
1 311 
1 312 
1 313 
1 314 
1 315 
1 316 
1 317 
1 318 
1 319 
1 320 
1 321 
1 322 
1 323 
1 324 
1 325 
1 326 
1 327 
1 328 
1 329 
1 330 
1 331 
1 332 
1 333 
1 334 
1 335 
1 336 
1 337 
1 338 
1 339 
1 340 
1 341 
1 342 
1 343 
1 344 
1 345 
1 346 
1 347 
1 348 
1 349 
1 350 
1 351 
1 352 
1 353 
1 354 
1 355 
1 356 
1 357 
1 358 
1 359 
1 360 
1 361 
1 362 
1 363 
1 364 
1 365 
1 366 
1 367 
1 368 
1 369 
1 370 
1 371 
1 372 
1 373 
1 374 
1 375 
1 376 
1 377 
1 378 
1 379 
1 380 
1 381 
1 382 
1 383 
1 384 
1 385 
1 386 
1 387 
1 388 
1 389 
1 390 
1 391 
1 392 
1 393 
1 394 
1 395 
1 396 
1 397 
1 398 
1 399 
1 400 
1 401 
1 402 
1 403 
1 404 
1 405 
1 406 
1 407 
1 408 
1 409 
1 410 
1 411 
1 412 
1 413 
1 414 
1 415 
1 416 
1 417 
1 418 
1 419 
1 420 
1 421 
1 422 
1 423 
1 424 
1 425 
1 426 
1 427 
1 428 
1 429 
1 430 
1 431 
1 432 
1 433 
1 434 
1 435 
1 436 
1 437 
1 438 
1 439 
1 440 
1 441 
1 442 
1 443 
1 444 
1 445 
1 446 
1 447 
1 448 
1 449 
1 450 
1 451 
1 452 
1 453 
1 454 
1 455 
1 456 
1 457 
1 458 
1 459 
1 460 
1 461 
1 462 
1 463 
1 464 
1 465 
1 466 
1 467 
1 468 
1 469 
1 470 
1 471 
1 472 
1 473 
1 474 
1 475 
1 476 
1 477 
1 478 
1 479 
1 480 
1 481 
1 482 
1 483 
1 484 
1 485 
1 486 
1 487 
1 488 
1 489 
1 490 
1 491 
1 492 
1 493 
1 494 
1 495 
1 496 
1 497 
1 498 
1 499 
1 500 
1 501 
1 502 
1 503 
1 504 
1 505 
1 506 
1 507 
1 508 
1 509 
1 510 
1 511 
1 512 
1 513 
1 514 
1 515 
1 516 
1 517 
1 518 
1 519 
1 520 
1 521 
1 522 
1 523 
1 524 
1 525 
1 526 
1 527 
1 528 
1 529 
1 530 
1 531 
1 532 
1 533 
1 534 
1 535 
1 536 
1 537 
1 538 
1 539 
1 540 
1 541 
1 542 
1 543 
1 544 
1 545 
1 546 
1 547 
1 548 
1 549 
1 550 
1 551 
1 552 
1 553 
1 554 
1 555 
1 556 
1 557 

POINT_DATA 558
FIELD FieldData 7
id 1 558 int
50 29 60 28 14 43 42 46 47 
52 8 13 6 34 57 39 48 17 
31 12 7 51 11 56 27 18 22 
20 54 15 1 26 4 37 2 33 
21 25 55 36 41 9 44 5 38 
58 32 88 115 112 23 49 45 83 
102 24 59 19 114 80 16 35 3 
53 95 10 40 96 30 62 106 89 
120 69 77 100 93 64 103 79 104 
70 109 67 99 61 85 82 78 65 
117 105 98 91 86 66 101 108 73 
68 71 113 119 110 97 94 84 74 
63 92 81 87 118 111 90 116 72 
76 107 75 161 126 129 136 132 139 
153 133 163 128 122 138 152 144 151 
127 148 168 123 166 172 140 157 160 
135 164 155 147 150 159 143 169 158 
167 125 124 171 137 130 146 131 134 
142 121 173 162 154 149 170 165 141 
156 145 214 198 194 199 213 205 212 
174 220 180 223 224 191 204 207 196 
227 190 187 216 188 193 203 226 218 
186 183 200 201 175 211 219 222 185 
206 209 178 202 260 189 284 221 210 
195 197 225 248 249 241 217 283 285 
179 208 184 177 271 181 215 176 182 
242 192 244 281 231 262 280 255 253 
245 233 272 266 228 282 234 274 264 
254 279 269 247 258 257 230 270 250 
277 238 273 256 265 259 232 239 261 
236 243 246 240 252 229 276 275 235 
278 251 263 267 237 268 291 310 320 
316 336 333 321 322 319 288 312 303 
289 318 287 302 335 323 324 330 298 
305 313 295 317 337 329 309 304 308 
301 334 331 326 299 311 294 300 296 
314 315 286 297 293 292 325 328 290 
327 306 307 332 380 377 364 346 389 
350 348 343 339 344 375 371 342 370 
354 368 358 355 383 373 359 361 387 
393 367 353 374 357 376 382 365 386 
431 349 398 404 341 396 400 384 420 
356 360 411 440 391 378 419 407 369 
401 338 414 421 379 372 347 352 403 
366 362 340 430 388 385 390 381 345 
392 413 363 416 397 351 484 426 446 
428 422 455 399 443 405 457 481 417 
448 433 465 432 442 439 402 427 503 
415 408 434 444 437 469 435 429 447 
394 459 412 424 418 461 438 423 486 
395 406 445 409 436 410 441 425 468 
478 477 501 542 500 536 492 482 485 
456 507 544 460 555 488 490 462 556 
472 549 453 458 550 498 537 471 493 
499 474 480 475 554 470 463 449 512 
452 524 450 531 479 489 497 519 496 
543 454 483 473 546 551 520 451 487 
491 495 466 494 502 464 516 467 476 
558 513 557 539 514 518 553 529 505 
533 508 538 548 528 510 515 535 506 
534 527 517 525 522 552 509 541 521 
526 504 511 545 523 530 532 547 540 

type 1 558 int
1 1 1 1 1 1 1 1 1 
1 1 1 1 1 1 1 1 1 
1 1 1 1 1 1 1 1 1 
1 1 1 1 1 1 1 1 1 
1 1 1 1 1 1 1 1 1 
1 1 1 1 1 1 1 1 1 
1 1 1 1 1 1 1 1 1 
1 1 1 1 1 1 1 1 1 
1 1 1 1 1 1 1 1 1 
1 1 1 1 1 1 1 1 1 
1 1 1 1 1 1 1 1 1 
1 1 1 1 1 1 1 1 1 
1 1 1 1 1 1 1 1 1 
1 1 1 1 1 1 1 1 1 
1 1 1 1 1 1 1 1 1 
1 1 1 1 1 1 1 1 1 
1 1 1 1 1 1 1 1 1 
1 1 1 1 1 1 1 1 1 
1 1 1 1 1 1 1 1 1 
1 1 1 1 1 1 1 1 1 
1 1 1 1 1 1 1 1 1 
1 1 1 1 1 1 1 1 1 
1 1 1 1 1 1 1 1 1 
1 1 1 1 1 1 1 1 1 
1 1 1 1 1 1 1 1 1 
1 1 1 1 1 1 1 1 1 
1 1 1 1 1 1 1 1 1 
1 1 1 1 1 1 1 1 1 
1 1 1 1 1 1 1 1 1 
1 1 1 1 1 1 1 1 1 
1 1 1 1 1 1 1 1 1 
1 1 1 1 1 1 1 1 1 
1 1 1 1 1 1 1 1 1 
1 1 1 1 1 1 1 1 1 
1 1 1 1 1 1 1 1 1 
1 1 1 1 1 1 1 1 1 
1 1 1 1 1 1 1 1 1 
1 1 1 1 1 1 1 1 1 
1 1 1 1 1 1 1 1 1 
1 1 1 1 1 1 1 1 1 
1 1 1 1 1 1 1 1 1 
1 1 1 1 1 1 1 1 1 
1 1 1 1 1 1 1 1 1 
1 1 1 1 1 1 1 1 1 
1 1 1 1 1 1 1 1 1 
1 1 1 1 1 1 1 1 1 
1 1 1 1 1 1 1 1 1 
1 1 1 1 1 1 1 1 1 
1 1 1 1 1 1 1 1 1 
1 1 1 1 1 1 1 1 1 
1 1 1 1 1 1 1 1 1 
1 1 1 1 1 1 1 1 1 
1 1 1 1 1 1 1 1 1 
1 1 1 1 1 1 1 1 1 
1 1 1 1 1 1 1 1 1 
1 1 1 1 1 1 1 1 1 
1 1 1 1 1 1 1 1 1 
1 1 1 1 1 1 1 1 1 
1 1 1 1 1 1 1 1 1 
1 1 1 1 1 1 1 1 1 
1 1 1 1 1 1 1 1 1 
1 1 1 1 1 1 1 1 1 

i 3 558 int
0 0 0 0 0 0 0 0 0 
0 0 0 0 0 0 0 0 0 
0 0 0 0 0 0 0 0 0 
0 0 0 0 0 0 0 0 0 
0 0 0 0 0 0 0 0 0 
0 0 0 0 0 0 0 0 0 
0 0 0 0 0 0 0 0 0 
0 0 0 0 0 0 0 0 0 
0 0 0 0 0 0 0 0 0 
0 0 0 0 0 0 0 0 0 
0 0 0 0 0 0 0 0 0 
0 0 0 0 0 0 0 0 0 
0 0 0 0 0 0 0 0 0 
0 0 0 0 0 0 0 0 0 
0 0 0 0 0 0 0 0 0 
0 0 0 0 0 0 0 0 0 
0 0 0 0 0 0 0 0 0 
0 0 0 0 0 0 0 0 0 
0 0 0 0 0 0 0 0 0 
0 0 0 0 0 0 0 0 0 
0 0 0 0 0 0 0 0 0 
0 0 0 0 0 0 0 0 0 
0 0 0 0 0 0 0 0 0 
0 0 0 0 0 0 0 0 0 
0 0 0 0 0 0 0 0 0 
0 0 0 0 0 0 0 0 0 
0 0 0 0 0 0 0 0 0 
0 0 0 0 0 0 0 0 0 
0 0 0 0 0 0 0 0 0 
0 0 0 0 0 0 0 0 0 
0 0 0 0 0 0 0 0 0 
0 0 0 0 0 0 0 0 0 
0 0 0 0 0 0 0 0 0 
0 0 0 0 0 0 0 0 0 
0 0 0 0 0 0 0 0 0 
0 0 0 0 0 0 0 0 0 
0 0 0 0 0 0 0 0 0 
0 0 0 0 0 0 0 0 0 
0 0 0 0 0 0 0 0 0 
0 0 0 0 0 0 0 0 0 
0 0 0 0 0 0 0 0 0 
0 0 0 0 0 0 0 0 0 
0 0 0 0 0 0 0 0 0 
0 0 0 0 0 0 0 0 0 
0 0 0 0 0 0 0 0 0 
0 0 0 0 0 0 0 0 0 
0 0 0 0 0 0 0 0 0 
0 0 0 0 0 0 0 0 0 
0 0 0 0 0 0 0 0 0 
0 0 0 0 0 0 0 0 0 
0 0 0 0 0 0 0 0 0 
0 0 0 0 0 0 0 0 0 
0 0 0 0 0 0 0 0 0 
0 0 0 0 0 0 0 0 0 
0 0 0 0 0 0 0 0 0 
0 0 0 0 0 0 0 0 0 
0 0 0 0 0 0 0 0 0 
0 0 0 0 0 0 0 0 0 
0 0 0 0 0 0 0 0 0 
0 0 0 0 0 0 0 0 0 
0 0 0 0 0 0 0 0 0 
0 0 0 0 0 0 0 0 0 
0 0 0 0 0 0 0 0 0 
0 0 0 0 0 0 0 0 0 
0 0 0 0 0 0 0 0 0 
0 0 0 0 0 0 0 0 0 
0 0 0 0 0 0 0 0 0 
0 0 0 0 0 0 0 0 0 
0 0 0 0 0 0 0 0 0 
0 0 0 0 0 0 0 0 0 
0 0 0 0 0 0 0 0 0 
0 0 0 0 0 0 0 0 0 
0 0 0 0 0 0 0 0 0 
0 0 0 0 0 0 0 0 0 
0 0 0 0 0 0 0 0 0 
0 0 0 0 0 0 0 0 0 
0 0 0 0 0 0 0 0 0 
0 0 0 0 0 0 0 0 0 
0 0 0 0 0 0 0 0 0 
0 0 0 0 0 0 0 0 0 
0 0 0 0 0 0 0 0 0 
0 0 0 0 0 0 0 0 0 
0 0 0 0 0 0 0 0 0 
0 0 0 0 0 0 0 0 0 
0 0 0 0 0 0 0 0 0 
0 0 0 0 0 0 0 0 0 
0 0 0 0 0 0 0 0 0 
0 0 0 0 0 0 0 0 0 
0 0 0 0 0 0 0 0 0 
0 0 0 0 0 0 0 0 0 
0 0 0 0 0 0 0 0 0 
0 0 0 0 0 0 0 0 0 
0 0 0 0 0 0 0 0 0 
0 0 0 0 0 0 0 0 0 
0 0 0 0 0 0 0 0 0 
0 0 0 0 0 0 0 0 0 
0 0 0 0 0 0 0 0 0 
0 0 0 0 0 0 0 0 0 
0 0 0 0 0 0 0 0 0 
0 0 0 0 0 0 0 0 0 
0 0 0 0 0 0 0 0 0 
0 0 0 0 0 0 0 0 0 
0 0 0 0 0 0 0 0 0 
0 0 0 0 0 0 0 0 0 
0 0 0 0 0 0 0 0 0 
0 0 0 0 0 0 0 0 0 
0 0 0 0 0 0 0 0 0 
0 0 0 0 0 0 0 0 0 
0 0 0 0 0 0 0 0 0 
0 0 0 0 0 0 0 0 0 
0 0 0 0 0 0 0 0 0 
0 0 0 0 0 0 0 0 0 
0 0 0 0 0 0 0 0 0 
0 0 0 0 0 0 0 0 0 
0 0 0 0 0 0 0 0 0 
0 0 0 0 0 0 0 0 0 
0 0 0 0 0 0 0 0 0 
0 0 0 0 0 0 0 0 0 
0 0 0 0 0 0 0 0 0 
0 0 0 0 0 0 0 0 0 
0 0 0 0 0 0 0 0 0 
0 0 0 0 0 0 0 0 0 
0 0 0 0 0 0 0 0 0 
0 0 0 0 0 0 0 0 0 
0 0 0 0 0 0 0 0 0 
0 0 0 0 0 0 0 0 0 
0 0 0 0 0 0 0 0 0 
0 0 0 0 0 0 0 0 0 
0 0 0 0 0 0 0 0 0 
0 0 0 0 0 0 0 0 0 
0 0 0 0 0 0 0 0 0 
0 0 0 0 0 0 0 0 0 
0 0 0 0 0 0 0 0 0 
0 0 0 0 0 0 0 0 0 
0 0 0 0 0 0 0 0 0 
0 0 0 0 0 0 0 0 0 
0 0 0 0 0 0 0 0 0 
0 0 0 0 0 0 0 0 0 
0 0 0 0 0 0 0 0 0 
0 0 0 0 0 0 0 0 0 
0 0 0 0 0 0 0 0 0 
0 0 0 0 0 0 0 0 0 
0 0 0 0 0 0 0 0 0 
0 0 0 0 0 0 0 0 0 
0 0 0 0 0 0 0 0 0 
0 0 0 0 0 0 0 0 0 
0 0 0 0 0 0 0 0 0 
0 0 0 0 0 0 0 0 0 
0 0 0 0 0 0 0 0 0 
0 0 0 0 0 0 0 0 0 
0 0 0 0 0 0 0 0 0 
0 0 0 0 0 0 0 0 0 
0 0 0 0 0 0 0 0 0 
0 0 0 0 0 0 0 0 0 
0 0 0 0 0 0 0 0 0 
0 0 0 0 0 0 0 0 0 
0 0 0 0 0 0 0 0 0 
0 0 0 0 0 0 0 0 0 
0 0 0 0 0 0 0 0 0 
0 0 0 0 0 0 0 0 0 
0 0 0 0 0 0 0 0 0 
0 0 0 0 0 0 0 0 0 
0 0 0 0 0 0 0 0 0 
0 0 0 0 0 0 0 0 0 
0 0 0 0 0 0 0 0 0 
0 0 0 0 0 0 0 0 0 
0 0 0 0 0 0 0 0 0 
0 0 0 0 0 0 0 0 0 
0 0 0 0 0 0 0 0 0 
0 0 0 0 0 0 0 0 0 
0 0 0 0 0 0 0 0 0 
0 0 0 0 0 0 0 0 0 
0 0 0 0 0 0 0 0 0 
0 0 0 0 0 0 0 0 0 
0 0 0 0 0 0 0 0 0 
0 0 0 0 0 0 0 0 0 
0 0 0 0 0 0 0 0 0 
0 0 0 0 0 0 0 0 0 
0 0 0 0 0 0 0 0 0 
0 0 0 0 0 0 0 0 0 
0 0 0 0 0 0 0 0 0 
0 0 0 0 0 0 0 0 0 
0 0 0 0 0 0 0 0 0 
0 0 0 0 0 0 0 0 0 
0 0 0 0 0 0 0 0 0 
0 0 0 0 0 0 0 0 0 

v 3 558 double
0 0 -0.0193143 0 0 -0.0190402 0 0 -0.0190608 
0 0 -0.0190677 0 0 -0.0193184 0 0 -0.0192503 
0 0 -0.0190792 0 0 -0.0193155 0 0 -0.0191125 
0 0 -0.0192708 0 0 -0.0190952 0 0 -0.0192531 
0 0 -0.0190176 0 0 -0.0191071 0 0 -0.0192938 
0 0 -0.0191725 0 0 -0.0184986 0 0 -0.0189769 
0 0 -0.0185699 0 0 -0.0187273 0 0 -0.0189581 
0 0 -0.0189437 0 0 -0.018628 0 0 -0.0188407 
0 0 -0.0187125 0 0 -0.0189986 0 0 -0.0188416 
0 0 -0.018746 0 0 -0.0189654 0 0 -0.018923 
0 0 -0.0188467 0 0 -0.0188666 0 0 -0.0189057 
0 0 -0.0186296 0 0 -0.0187 0 0 -0.0188106 
0 0 -0.0188374 0 0 -0.0185669 0 0 -0.0185983 
0 0 -0.0187185 0 0 -0.0188212 0 0 -0.0187832 
0 0 -0.0185751 0 0 -0.0188717 0 0 -0.0187772 
0 0 -0.0186023 0 0 -0.0187305 0 0 -0.0181698 
0 0 -0.018088 0 0 -0.0179452 0 0 -0.0184402 
0 0 -0.0183876 0 0 -0.0184069 0 0 -0.0179837 
0 0 -0.0179183 0 0 -0.0184089 0 0 -0.0184612 
0 0 -0.0184458 0 0 -0.0182817 0 0 -0.0181059 
0 0 -0.0184708 0 0 -0.0184496 0 0 -0.0184733 
0 0 -0.018367 0 0 -0.017934 0 0 -0.0183872 
0 0 -0.0183756 0 0 -0.0182759 0 0 -0.0184038 
0 0 -0.0176916 0 0 -0.0174442 0 0 -0.0174249 
0 0 -0.0175997 0 0 -0.0178954 0 0 -0.017421 
0 0 -0.0175536 0 0 -0.0178862 0 0 -0.0175957 
0 0 -0.0174687 0 0 -0.0175814 0 0 -0.0176961 
0 0 -0.0175299 0 0 -0.0176399 0 0 -0.0178945 
0 0 -0.0174054 0 0 -0.0174628 0 0 -0.017655 
0 0 -0.0174229 0 0 -0.0179014 0 0 -0.017853 
0 0 -0.0175521 0 0 -0.0173654 0 0 -0.0176461 
0 0 -0.0174951 0 0 -0.0173577 0 0 -0.017406 
0 0 -0.0174812 0 0 -0.017375 0 0 -0.0173692 
0 0 -0.0178293 0 0 -0.0177701 0 0 -0.0174405 
0 0 -0.0176986 0 0 -0.0173752 0 0 -0.0178574 
0 0 -0.0175481 0 0 -0.0175892 0 0 -0.0176536 
0 0 -0.0177462 0 0 -0.0173601 0 0 -0.0175825 
0 0 -0.0174566 0 0 -0.0178279 0 0 -0.0176681 
0 0 -0.0175818 0 0 -0.0174502 0 0 -0.0176795 
0 0 -0.017625 0 0 -0.0174539 0 0 -0.0176364 
0 0 -0.0168092 0 0 -0.0170685 0 0 -0.0167476 
0 0 -0.0168046 0 0 -0.016823 0 0 -0.0167611 
0 0 -0.0168795 0 0 -0.016857 0 0 -0.0167485 
0 0 -0.0169497 0 0 -0.0173173 0 0 -0.0167638 
0 0 -0.0168822 0 0 -0.0167653 0 0 -0.0165234 
0 0 -0.0164281 0 0 -0.0165439 0 0 -0.0164807 
0 0 -0.016641 0 0 -0.0164258 0 0 -0.0164747 
0 0 -0.0164211 0 0 -0.0165608 0 0 -0.0164173 
0 0 -0.0166221 0 0 -0.0164251 0 0 -0.0166226 
0 0 -0.0166581 0 0 -0.0165538 0 0 -0.0165759 
0 0 -0.0165345 0 0 -0.0166335 0 0 -0.0166404 
0 0 -0.0165285 0 0 -0.0166325 0 0 -0.016399 
0 0 -0.0165731 0 0 -0.0163945 0 0 -0.0165618 
0 0 -0.0165719 0 0 -0.0165693 0 0 -0.0165641 
0 0 -0.0164426 0 0 -0.0166721 0 0 -0.0164474 
0 0 -0.0164524 0 0 -0.0164224 0 0 -0.016614 
0 0 -0.0167165 0 0 -0.0166927 0 0 -0.0165658 
0 0 -0.0164716 0 0 -0.0165529 0 0 -0.0160358 
0 0 -0.0155334 0 0 -0.0155311 0 0 -0.0156542 
0 0 -0.0157932 0 0 -0.0156003 0 0 -0.0155385 
0 0 -0.0160004 0 0 -0.0160232 0 0 -0.0156859 
0 0 -0.0156608 0 0 -0.0158161 0 0 -0.0155038 
0 0 -0.0157607 0 0 -0.0156464 0 0 -0.0156255 
0 0 -0.0158223 0 0 -0.0158027 0 0 -0.0160255 
0 0 -0.0155704 0 0 -0.0155832 0 0 -0.0154959 
0 0 -0.0157018 0 0 -0.015793 0 0 -0.0154876 
0 0 -0.0157336 0 0 -0.0155353 0 0 -0.0156431 
0 0 -0.0155332 0 0 -0.0155666 0 0 -0.0155524 
0 0 -0.0155612 0 0 -0.0156461 0 0 -0.0157211 
0 0 -0.0157172 0 0 -0.0155059 0 0 -0.0157269 
0 0 -0.0156615 0 0 -0.0149705 0 0 -0.0153957 
0 0 -0.0152445 0 0 -0.0154183 0 0 -0.0154537 
0 0 -0.0154553 0 0 -0.0154018 0 0 -0.0154446 
0 0 -0.0150776 0 0 -0.0148286 0 0 -0.0148923 
0 0 -0.0154336 0 0 -0.0148637 0 0 -0.0150877 
0 0 -0.0154264 0 0 -0.0154064 0 0 -0.0154259 
0 0 -0.0154643 0 0 -0.0149315 0 0 -0.0154425 
0 0 -0.0154393 0 0 -0.0154763 0 0 -0.0154685 
0 0 -0.0149186 0 0 -0.0154389 0 0 -0.0144419 
0 0 -0.0144485 0 0 -0.0147369 0 0 -0.0144439 
0 0 -0.0144661 0 0 -0.0146124 0 0 -0.0147779 
0 0 -0.0145072 0 0 -0.0144616 0 0 -0.0144239 
0 0 -0.014446 0 0 -0.0144581 0 0 -0.0145521 
0 0 -0.0145662 0 0 -0.0144284 0 0 -0.0144659 
0 0 -0.0144292 0 0 -0.0146243 0 0 -0.0145104 
0 0 -0.0147071 0 0 -0.0144336 0 0 -0.0144853 
0 0 -0.0145525 0 0 -0.0144635 0 0 -0.0144403 
0 0 -0.0145113 0 0 -0.014624 0 0 -0.0144174 
0 0 -0.0144238 0 0 -0.0146087 0 0 -0.0145862 
0 0 -0.0147166 0 0 -0.0147112 0 0 -0.0144297 
0 0 -0.014576 0 0 -0.0145138 0 0 -0.0144442 
0 0 -0.0144749 0 0 -0.0147065 0 0 -0.0145178 
0 0 -0.0147848 0 0 -0.0144305 0 0 -0.0146272 
0 0 -0.0147669 0 0 -0.0144293 0 0 -0.0145873 
0 0 -0.0146373 0 0 -0.0144959 0 0 -0.0146851 
0 0 -0.013921 0 0 -0.0134676 0 0 -0.0138346 
0 0 -0.0138962 0 0 -0.0134884 0 0 -0.0134698 
0 0 -0.0134775 0 0 -0.0135721 0 0 -0.0135042 
0 0 -0.0135459 0 0 -0.0134953 0 0 -0.0140902 
0 0 -0.0139368 0 0 -0.0139982 0 0 -0.0135642 
0 0 -0.0135361 0 0 -0.0136325 0 0 -0.0135081 
0 0 -0.0138909 0 0 -0.013455 0 0 -0.0137408 
0 0 -0.0134437 0 0 -0.0138482 0 0 -0.013733 
0 0 -0.0134605 0 0 -0.0134346 0 0 -0.0134625 
0 0 -0.013715 0 0 -0.0139174 0 0 -0.0135778 
0 0 -0.0134625 0 0 -0.0134533 0 0 -0.0134602 
0 0 -0.0135381 0 0 -0.0136685 0 0 -0.0136214 