/*--------------------------------*- C++ -*----------------------------------*\
| =========                 |                                                 |
| \\      /  F ield         | OpenFOAM: The Open Source CFD Toolbox           |
|  \\    /   O peration     | Version:  5.x                                   |
|   \\  /    A nd           | Web:      www.OpenFOAM.org                      |
|    \\/     M anipulation  |                                                 |
\*---------------------------------------------------------------------------*/
FoamFile
{
    version     2.0;
    format      ascii;
    class       surfaceScalarField;
    location    "80000";
    object      phi;
}
// * * * * * * * * * * * * * * * * * * * * * * * * * * * * * * * * * * * * * //

dimensions      [0 3 -1 0 0 0 0];

internalField   nonuniform List<scalar> 
5825
(
-8.67587e-05
0.00024573
-1000
-0.00010268
0.000212503
-1000
-8.35526e-05
0.000211783
-1000
-4.52047e-05
0.000225674
-1000
0.000236776
-1000
-9.11573e-05
0.000186919
-1000
-8.27195e-05
0.00018183
-1000
-6.56708e-05
0.000189123
-1000
-3.29814e-05
0.000194197
-1000
0.000197138
-1000
-9.88992e-05
0.000131887
-999.999
-8.51047e-05
0.000133061
-1000
-5.60019e-05
0.000136636
-1000
-2.89948e-05
0.000139178
-1000
0.000139159
-1000
-0.000100222
6.22361e-05
-999.999
-8.03795e-05
6.58849e-05
-999.999
-5.10741e-05
6.6592e-05
-1000
-2.84917e-05
7.00446e-05
-1000
6.88643e-05
-1000
-0.000100406
-999.999
-7.73355e-05
-999.999
-5.20614e-05
-999.999
-2.69137e-05
-999.999
-1000
-0.000211259
0.000638929
-1000
-0.000261431
0.000577207
-1000
-0.00020835
0.000567264
-1000
-0.000105125
0.00060149
-1000
0.000623987
-1000
-0.000233194
0.000479976
-1000
-0.000216134
0.000476779
-1000
-0.000166982
0.000493321
-1000
-8.28102e-05
0.000507962
-1000
0.000510522
-1000
-0.000254059
0.000336097
-999.999
-0.000213265
0.000341946
-1000
-0.000145769
0.000351562
-1000
-7.5546e-05
0.000361587
-1000
0.000357074
-1000
-0.000255558
0.000156466
-999.999
-0.000201826
0.000166943
-999.999
-0.000136991
0.000173313
-999.999
-7.18424e-05
0.000178927
-1000
0.000175712
-1000
-0.000254101
-999.999
-0.000192709
-999.999
-0.000131859
-999.999
-7.24855e-05
-999.999
-999.999
-0.00040504
0.000911784
-1000
-0.000385658
0.000936328
-1000
-0.000306169
0.000972782
-1000
-0.000154335
0.00100822
-1000
0.00102466
-1000
-0.000416631
0.0007696
-1000
-0.000360039
0.000786404
-1000
-0.000259861
0.000822966
-1000
-0.000134824
0.000845716
-1000
0.000844865
-1000
-0.000401301
0.000541182
-999.999
-0.000334323
0.000562749
-1000
-0.000234758
0.000583619
-1000
-0.000125103
0.000598156
-1000
0.000593827
-1000
-0.000384027
0.000255416
-999.999
-0.00030823
0.000282252
-999.999
-0.000217929
0.000293673
-999.999
-0.000120159
0.000299821
-999.999
0.000295851
-1000
-0.000381243
-999.999
-0.000296364
-999.999
-0.000213143
-999.999
-0.000121547
-999.999
-999.999
-0.000672684
0.00132032
-1000
-0.000558783
0.00136878
-1000
-0.00041219
0.0014432
-1000
-0.000213208
0.00147747
-1000
0.00148459
-1000
-0.000586631
0.0011199
-1000
-0.000503597
0.00116078
-1000
-0.000362451
0.00121563
-1000
-0.000192432
0.00124287
-1000
0.00124492
-1000
-0.000535241
0.000797983
-999.999
-0.000457227
0.000838192
-999.999
-0.000333596
0.000868078
-999.999
-0.000181831
0.000886466
-1000
0.000889236
-1000
-0.00050177
0.000399897
-999.999
-0.000421773
0.000438211
-999.999
-0.000312514
0.000450564
-999.999
-0.000174615
0.00045687
-999.999
0.000459553
-999.999
-0.000491825
-999.998
-0.000408621
-999.999
-0.000305429
-999.999
-0.000171121
-999.999
-999.999
-0.000898514
0.00192399
-1000
-0.000759003
0.00199216
-1000
-0.000540027
0.00207685
-1000
-0.000283994
0.00211023
-1000
0.00211219
-1000
-0.000775521
0.00161232
-999.999
-0.000671309
0.00169168
-1000
-0.000491485
0.00174997
-1000
-0.000263294
0.00177962
-1000
0.00178852
-1000
-0.000705349
0.00117501
-999.999
-0.000617763
0.00122986
-999.999
-0.000462536
0.00126401
-999.999
-0.000250383
0.00128619
-999.999
0.00129678
-999.999
-0.000656833
0.000623711
-999.998
-0.000578782
0.000661144
-999.998
-0.000438431
0.000673832
-999.999
-0.000237665
0.00068173
-999.999
0.000689465
-999.999
-0.000634212
-999.998
-0.00056466
-999.998
-0.00042779
-999.998
-0.000228538
-999.998
-999.998
-0.00113882
0.00282457
-1000
-0.000991619
0.00289121
-1000
-0.000708609
0.00296255
-1000
-0.00037456
0.00299284
-1000
0.00299803
-1000
-0.00103816
0.00237792
-999.999
-0.00090805
0.00246049
-999.999
-0.000669853
0.00250704
-1000
-0.000356518
0.00253677
-1000
0.00255013
-1000
-0.000972473
0.00173977
-999.998
-0.000858483
0.00179489
-999.998
-0.000641588
0.00182711
-999.999
-0.000337409
0.00185102
-999.999
0.00186447
-999.999
-0.000923087
0.000943594
-999.997
-0.000823779
0.000971211
-999.997
-0.000616857
0.000982662
-999.998
-0.00031969
0.000992989
-999.998
0.00100263
-999.998
-0.000896688
-999.996
-0.000809666
-999.997
-0.000603921
-999.997
-0.000307094
-999.998
-999.998
-0.00150245
0.00406969
-1000
-0.00129014
0.00413396
-1000
-0.000939362
0.00418753
-1000
-0.000498626
0.00421388
-1000
0.0042233
-1000
-0.00143015
0.00348268
-999.998
-0.00124751
0.00353377
-999.999
-0.000913141
0.00356284
-999.999
-0.000475995
0.0035891
-1000
0.00360193
-1000
-0.0013939
0.00253579
-999.997
-0.00121071
0.00257821
-999.997
-0.000886127
0.00260467
-999.998
-0.0004542
0.00262717
-999.998
0.00263859
-999.998
-0.0013556
0.00136349
-999.996
-0.00118337
0.00138272
-999.996
-0.000863354
0.0013946
-999.997
-0.00043661
0.00140725
-999.997
0.00141577
-999.997
-0.00133189
-999.995
-0.001168
-999.996
-0.000847646
-999.996
-0.0004227
-999.996
-999.997
-0.00205542
0.00577332
-1000
-0.00172052
0.00582042
-1000
-0.00124801
0.00585644
-1000
-0.000654164
0.00588029
-1000
0.00588863
-1000
-0.00199361
0.00495048
-999.997
-0.00170573
0.00497733
-999.998
-0.00122929
0.00499745
-999.999
-0.000631708
0.00502066
-999.999
0.00502798
-999.999
-0.00197842
0.00359863
-999.995
-0.00168049
0.00362809
-999.996
-0.00120457
0.00365127
-999.997
-0.000612446
0.00367192
-999.997
0.00367821
-999.997
-0.0019504
0.00190512
-999.994
-0.00165632
0.00192234
-999.995
-0.00118288
0.0019384
-999.995
-0.000596882
0.00195345
-999.996
0.00195875
-999.996
-0.00192993
-999.993
-0.00163551
-999.994
-0.00116407
-999.995
-0.000584348
-999.995
-999.995
-0.00278704
0.00804437
-999.999
-0.00231941
0.00808314
-1000
-0.00165718
0.00811128
-1000
-0.000857604
0.00813527
-1000
0.00813482
-1000
-0.00272761
0.00686635
-999.996
-0.00229388
0.00689749
-999.997
-0.00163356
0.00692388
-999.998
-0.00083922
0.00694797
-999.999
0.00694743
-999.999
-0.00270937
0.00499232
-999.994
-0.00226775
0.00502439
-999.995
-0.00160978
0.00505108
-999.996
-0.000824356
0.00507177
-999.996
0.00507142
-999.996
-0.0026748
0.00261966
-999.992
-0.00223817
0.00264315
-999.993
-0.00158753
0.0026659
-999.994
-0.000812881
0.00268114
-999.994
0.00267938
-999.994
-0.00264557
-999.991
-0.00220981
-999.992
-0.00156849
-999.993
-0.000804915
-999.993
-999.993
-0.00371157
0.0110584
-999.999
-0.0030992
0.0111095
-1000
-0.00219893
0.0111513
-1000
-0.00114014
0.0111787
-1000
0.0111673
-1000
-0.00364306
0.00940314
-999.995
-0.00304647
0.00947275
-999.996
-0.00216655
0.00951387
-999.997
-0.00112372
0.00954174
-999.998
0.0095327
-999.999
-0.00360202
0.00685063
-999.992
-0.00300749
0.00689847
-999.993
-0.00214119
0.0069319
-999.994
-0.00111283
0.00695274
-999.995
0.0069429
-999.995
-0.00355274
0.00359198
-999.989
-0.00296936
0.00362536
-999.99
-0.00211935
0.00364941
-999.991
-0.00110668
0.00365885
-999.992
0.00364743
-999.992
-0.00351094
-999.988
-0.00293829
-999.989
-0.00210506
-999.99
-0.00110611
-999.991
-999.991
-0.00490349
0.0151104
-999.999
-0.00411419
0.0152112
-1000
-0.00293973
0.0152636
-1000
-0.00154096
0.0152953
-1000
0.0152767
-1000
-0.00482458
0.0128714
-999.993
-0.00405131
0.0129605
-999.995
-0.00290204
0.0130113
-999.996
-0.00152139
0.0130418
-999.997
0.0130223
-999.998
-0.00476317
0.00937132
-999.988
-0.00399861
0.00943325
-999.99
-0.00287359
0.00947029
-999.991
-0.00151218
0.00948846
-999.992
0.00946699
-999.993
-0.00470632
0.00492658
-999.985
-0.0039573
0.00496458
-999.986
-0.00285467
0.00498146
-999.988
-0.00151176
0.00498136
-999.989
0.00496193
-999.99
-0.00465808
-999.983
-0.00393058
-999.984
-0.00284768
-999.986
-0.00151563
-999.987
-999.988
-0.00649598
0.0206987
-999.998
-0.00548917
0.0207957
-1000
-0.00397
0.0208428
-1000
-0.00209857
0.0208765
-1000
0.0208512
-1000
-0.00644701
0.0176244
-999.99
-0.00544162
0.0177012
-999.993
-0.0039327
0.0177513
-999.995
-0.00207503
0.0177799
-999.996
0.017749
-999.997
-0.00638217
0.0128165
-999.984
-0.00538836
0.0128756
-999.986
-0.00390358
0.01291
-999.988
-0.00206641
0.0129234
-999.99
0.012892
-999.99
-0.00632601
0.00675139
-999.979
-0.00535134
0.00678506
-999.981
-0.00388889
0.00679122
-999.983
-0.00206771
0.00678414
-999.985
0.00676319
-999.986
-0.00627846
-999.976
-0.00533197
-999.979
-0.00388642
-999.981
-0.00206811
-999.982
-999.983
-0.00872094
0.0283311
-999.997
-0.00741101
0.0283941
-1000
-0.0053955
0.0284261
-1000
-0.00286111
0.0284585
-1000.01
0.0284203
-1000.01
-0.0087058
0.0241008
-999.986
-0.00737985
0.0241571
-999.99
-0.00536215
0.0241961
-999.992
-0.00283529
0.0242204
-999.994
0.0241784
-999.996
-0.00865484
0.0175233
-999.977
-0.00733713
0.0175693
-999.981
-0.00533565
0.0175923
-999.983
-0.00282204
0.0176008
-999.985
0.0175628
-999.987
-0.00860973
0.00924628
-999.971
-0.0073121
0.00926602
-999.974
-0.0053246
0.00926075
-999.977
-0.00281875
0.00925187
-999.979
0.00923377
-999.98
-0.00857107
-999.967
-0.00730036
-999.971
-0.0053203
-999.973
-0.00280863
-999.975
-999.976
-0.011845
0.0386648
-999.996
-0.0100817
0.0387229
-1000
-0.00735027
0.0387469
-1000
-0.00389432
0.0387775
-1000.01
0.0387222
-1000.01
-0.0118316
0.0329111
-999.981
-0.010055
0.032954
-999.986
-0.00731742
0.0329764
-999.989
-0.00386112
0.0329961
-999.992
0.0329407
-999.994
-0.0117979
0.0239564
-999.969
-0.0100292
0.0239739
-999.973
-0.00729403
0.0239765
-999.977
-0.00384054
0.0239805
-999.98
0.0239339
-999.981
-0.0117819
0.0126527
-999.96
-0.010024
0.0126437
-999.964
-0.00728541
0.0126283
-999.968
-0.00383057
0.0126216
-999.971
0.0126012
-999.973
-0.0117653
-999.955
-0.0100165
-999.96
-0.00727448
-999.963
-0.00381372
-999.966
-999.968
-0.016139
0.0527093
-999.994
-0.0137379
0.0527697
-1000
-0.0100045
0.0527896
-1000
-0.00527716
0.0528201
-1000.01
0.0527392
-1000.01
-0.0161212
0.0449034
-999.974
-0.0137137
0.0449218
-999.98
-0.00996822
0.0449251
-999.985
-0.00523778
0.0449389
-999.989
0.0448569
-999.991
-0.016114
0.0327059
-999.957
-0.0137075
0.0326788
-999.963
-0.00994848
0.0326605
-999.969
-0.00521624
0.0326601
-999.972
0.0325927
-999.974
-0.0161433
0.0172557
-999.945
-0.0137215
0.0172188
-999.951
-0.0099423
0.0172034
-999.957
-0.00520733
0.017198
-999.96
0.0171613
-999.962
-0.0161461
-999.939
-0.0137065
-999.945
-0.00992456
-999.95
-0.00519436
-999.954
-999.956
-0.0219383
0.0718454
-999.991
-0.0186723
0.0718681
-999.999
-0.01357
0.0718668
-1000.01
-0.0071234
0.0718828
-1000.01
0.0717433
-1000.01
-0.0219566
0.061203
-999.964
-0.0186736
0.0611684
-999.973
-0.0135459
0.0611476
-999.98
-0.00709826
0.0611462
-999.984
0.0610135
-999.987
-0.0219985
0.044536
-999.942
-0.018691
0.0444735
-999.95
-0.0135395
0.0444452
-999.957
-0.00709079
0.0444359
-999.962
0.0443296
-999.965
-0.0220618
0.0234451
-999.925
-0.0187141
0.0234141
-999.934
-0.0135408
0.0234088
-999.941
-0.00709409
0.0233958
-999.946
0.0233322
-999.948
-0.0220471
-999.917
-0.0186797
-999.925
-0.0135231
-999.932
-0.0070905
-999.937
-999.94
-0.0297477
0.0978768
-999.988
-0.0252987
0.0978147
-999.999
-0.0183579
0.0977563
-1000.01
-0.00962487
0.0977223
-1000.01
0.0974844
-1000.02
-0.0298453
0.0833188
-999.951
-0.0253616
0.0832163
-999.962
-0.0183822
0.0831598
-999.972
-0.00963883
0.0831237
-999.979
0.0829178
-999.982
-0.0299481
0.0605489
-999.921
-0.0254152
0.0604768
-999.932
-0.0184084
0.0604404
-999.941
-0.00965401
0.060408
-999.948
0.0602479
-999.952
-0.0300173
0.0318405
-999.898
-0.0254472
0.0318388
-999.909
-0.0184312
0.0318314
-999.919
-0.00967455
0.0317988
-999.926
0.0317068
-999.929
-0.0299567
-999.886
-0.025402
-999.897
-0.0184224
-999.907
-0.00967496
-999.914
-999.917
-0.0403335
0.133196
-999.983
-0.0342561
0.133044
-999.998
-0.0248537
0.132906
-1000.01
-0.0130596
0.1328
-1000.02
0.132452
-1000.02
-0.040513
0.11334
-999.934
-0.0343987
0.113175
-999.949
-0.0249452
0.113061
-999.961
-0.0131038
0.11297
-999.971
0.112672
-999.976
-0.0406767
0.0823389
-999.892
-0.0345114
0.0822505
-999.907
-0.0250237
0.0821771
-999.92
-0.0131412
0.0821001
-999.929
0.0818731
-999.934
-0.04076
0.043326
-999.861
-0.0345816
0.0433156
-999.877
-0.0250886
0.043273
-999.889
-0.0131793
0.0432139
-999.899
0.0430932
-999.904
-0.0406858
-999.845
-0.0345537
-999.86
-0.025091
-999.873
-0.0131751
-999.882
-999.887
-0.0547174
0.181143
-999.977
-0.0464173
0.180899
-999.997
-0.0336865
0.180676
-1000.01
-0.0177298
0.180501
-1000.03
0.180031
-1000.03
-0.0549772
0.154175
-999.91
-0.0466438
0.153924
-999.93
-0.0338415
0.153714
-999.947
-0.0177852
0.153541
-999.96
0.153119
-999.966
-0.0552281
0.112065
-999.853
-0.046856
0.111893
-999.873
-0.0339971
0.111728
-999.89
-0.0178552
0.11158
-999.903
0.111262
-999.91
-0.0553942
0.059022
-999.811
-0.0470195
0.0589287
-999.832
-0.0341289
0.0588197
-999.849
-0.0179164
0.0587298
-999.862
0.0585703
-999.869
-0.0553736
-999.789
-0.047033
-999.809
-0.0341415
-999.827
-0.0179062
-999.84
-999.847
-0.074115
0.246414
-999.969
-0.0628403
0.245983
-999.995
-0.0455987
0.245615
-1000.02
-0.0239858
0.245335
-1000.03
0.244671
-1000.04
-0.0745583
0.209791
-999.877
-0.0632143
0.209351
-999.905
-0.0458536
0.208966
-999.928
-0.024086
0.208661
-999.945
0.208051
-999.954
-0.0749992
0.152572
-999.8
-0.0636041
0.15221
-999.827
-0.0461357
0.151884
-999.851
-0.0242168
0.151629
-999.868
0.151177
-999.877
-0.075355
0.0803817
-999.743
-0.0639289
0.0801484
-999.771
-0.04637
0.0799473
-999.795
-0.0243176
0.0798112
-999.812
0.0795821
-999.821
-0.0754363
-999.713
-0.0640016
-999.741
-0.0464041
-999.765
-0.0243179
-999.782
-999.791
-0.100214
0.335295
-999.957
-0.0849608
0.334481
-999.994
-0.0616042
0.333838
-1000.02
-0.0323717
0.333354
-1000.05
0.332378
-1000.06
-0.101045
0.285485
-999.833
-0.0856162
0.284686
-999.87
-0.0620555
0.284009
-999.902
-0.0325811
0.283491
-999.924
0.282607
-999.936
-0.101849
0.207677
-999.728
-0.0863036
0.207002
-999.765
-0.0625459
0.206429
-999.797
-0.0328111
0.206005
-999.82
0.205348
-999.833
-0.10252
0.109414
-999.651
-0.0868775
0.108995
-999.689
-0.0629432
0.108661
-999.721
-0.0329888
0.108436
-999.744
0.108084
-999.757
-0.102738
-999.609
-0.0870434
-999.648
-0.0630364
-999.68
-0.0330314
-999.703
-999.716
-0.135626
0.455993
-999.942
-0.114841
0.454672
-999.991
-0.0831459
0.453621
-1000.03
-0.0436565
0.452816
-1000.06
0.451398
-1000.08
-0.136971
0.388368
-999.774
-0.11591
0.387026
-999.824
-0.0839097
0.385895
-999.866
-0.0440282
0.385037
-999.896
0.383748
-999.913
-0.138334
0.282615
-999.63
-0.117063
0.281468
-999.681
-0.0847342
0.280508
-999.724
-0.0444247
0.279803
-999.755
0.278826
-999.772
-0.139487
0.148921
-999.525
-0.118028
0.148235
-999.577
-0.0854085
0.147681
-999.621
-0.0447511
0.147284
-999.652
0.146748
-999.67
-0.139915
-999.468
-0.118365
-999.521
-0.0856339
-999.565
-0.0448679
-999.597
-999.614
-0.183656
0.619781
-999.922
-0.155093
0.61783
-999.988
-0.112064
0.616179
-1000.04
-0.0587807
0.614877
-1000.08
0.612822
-1000.1
-0.185648
0.528244
-999.693
-0.156777
0.526052
-999.761
-0.113314
0.524178
-999.817
-0.0594077
0.522755
-999.858
0.520848
-999.88
-0.187891
0.384636
-999.498
-0.158695
0.382723
-999.567
-0.114702
0.381112
-999.625
-0.0601029
0.379911
-999.667
0.378439
-999.69
-0.18983
0.202782
-999.355
-0.160326
0.201647
-999.426
-0.115871
0.2007
-999.485
-0.0606904
0.200001
-999.528
0.199194
-999.551
-0.190636
-999.277
-0.160995
-999.349
-0.116349
-999.409
-0.0609311
-999.452
-999.476
-0.248043
0.842415
-999.896
-0.208876
0.839312
-999.984
-0.150651
0.836606
-1000.06
-0.0789409
0.83448
-1000.11
0.831464
-1000.14
-0.251223
0.718638
-999.586
-0.211641
0.714943
-999.676
-0.152712
0.711764
-999.752
-0.0800067
0.709357
-999.806
0.706488
-999.835
-0.255025
0.523767
-999.32
-0.214905
0.520497
-999.413
-0.155095
0.517719
-999.491
-0.0812297
0.515638
-999.547
0.513393
-999.578
-0.258362
0.276364
-999.124
-0.217738
0.27441
-999.22
-0.157149
0.272751
-999.301
-0.0822711
0.271529
-999.359
0.270277
-999.39
-0.259904
-999.018
-0.219048
-999.115
-0.158092
-999.197
-0.0827594
-999.256
-999.289
-0.333659
1.14506
-999.863
-0.28024
1.13979
-999.979
-0.201799
1.13521
-1000.08
-0.105652
1.13171
-1000.14
1.12723
-1000.18
-0.339082
0.97798
-999.442
-0.284916
0.971578
-999.562
-0.205229
0.966058
-999.662
-0.107467
0.961898
-999.734
0.957483
-999.773
-0.345708
0.713819
-999.079
-0.290612
0.70809
-999.205
-0.209398
0.703196
-999.309
-0.109646
0.699556
-999.385
0.696038
-999.426
-0.351589
0.377082
-998.812
-0.295625
0.373639
-998.942
-0.213031
0.370712
-999.051
-0.111522
0.36856
-999.129
0.366561
-999.173
-0.354536
-998.665
-0.298136
-998.798
-0.214843
-998.91
-0.112493
-998.99
-999.035
-0.446863
1.55598
-999.822
-0.37416
1.54706
-999.974
-0.26894
1.53922
-1000.1
-0.1407
1.53337
-1000.19
1.52655
-1000.24
-0.45607
1.33143
-999.251
-0.382164
1.32019
-999.409
-0.274703
1.31039
-999.541
-0.143859
1.30306
-999.634
1.296
-999.686
-0.467779
0.973884
-998.756
-0.392326
0.963764
-998.924
-0.282149
0.955063
-999.064
-0.14788
0.948647
-999.164
0.942972
-999.221
-0.478224
0.515289
-998.389
-0.401263
0.509237
-998.564
-0.2886
0.504052
-998.713
-0.151305
0.50023
-998.818
0.496979
-998.878
-0.48373
-998.186
-0.405983
-998.367
-0.292035
-998.52
-0.153176
-998.629
-998.691
-0.594617
2.11316
-999.774
-0.496228
2.09834
-999.967
-0.355957
2.08456
-1000.13
-0.186237
2.07489
-1000.24
2.06409
-1000.31
-0.609995
1.81339
-999.003
-0.510195
1.79359
-999.204
-0.365507
1.77575
-999.377
-0.19187
1.76255
-999.495
1.75071
-999.565
-0.630811
1.33065
-998.328
-0.528785
1.31294
-998.545
-0.379117
1.29736
-998.735
-0.199639
1.28606
-998.867
1.27667
-998.947
-0.649185
0.705781
-997.82
-0.54478
0.695289
-998.051
-0.39052
0.685977
-998.255
-0.205881
0.679168
-998.396
0.673716
-998.481
-0.659186
-997.538
-0.553638
-997.777
-0.396952
-997.991
-0.209476
-998.137
-998.227
-0.782982
2.86614
-999.729
-0.652707
2.84331
-999.959
-0.467021
2.81814
-1000.16
-0.245099
2.80351
-1000.31
2.78563
-1000.39
-0.806912
2.47057
-998.696
-0.677634
2.43637
-998.926
-0.48126
2.40261
-999.157
-0.255197
2.37833
-999.296
2.35692
-999.391
-0.843575
1.82198
-997.774
-0.713029
1.79191
-998.031
-0.506942
1.76355
-998.302
-0.271186
1.74413
-998.469
1.72817
-998.589
-0.874989
0.970107
-997.071
-0.7419
0.952445
-997.345
-0.52643
0.935184
-997.642
-0.282443
0.923167
-997.819
0.913589
-997.949
-0.892659
-996.674
-0.758822
-996.958
-0.538322
-997.276
-0.289508
-997.463
-997.603
-1.01168
3.87569
-999.721
-0.851821
3.85135
-999.952
-0.605746
3.80038
-1000.23
-0.322224
3.78586
-1000.4
3.75383
-1000.52
-1.04081
3.36545
-998.363
-0.898508
3.31047
-998.528
-0.618809
3.24116
-998.878
-0.339787
3.19486
-998.984
3.15109
-999.128
-1.10457
2.5013
-997.112
-0.970882
2.45508
-997.309
-0.67013
2.40112
-997.763
-0.375892
2.37078
-997.939
2.34267
-998.156
-1.15523
1.3395
-996.134
-1.02371
1.31263
-996.334
-0.699985
1.27855
-996.844
-0.395459
1.25805
-997.011
1.2399
-997.241
-1.18538
-995.572
-1.05725
-995.774
-0.721887
-996.333
-0.410059
-996.516
-996.773
-1.2621
5.20214
-999.859
-1.11236
5.23351
-999.951
-0.774439
5.10398
-1000.4
-0.431174
5.13137
-1000.6
5.06367
-1000.83
-1.27574
4.57661
-998.154
-1.20027
4.5046
-997.874
-0.750813
4.34287
-998.566
-0.455449
4.24502
-998.393
4.14364
-998.663
-1.39323
3.4403
-996.458
-1.36129
3.39119
-996.227
-0.867434
3.27826
-997.192
-0.54713
3.24566
-997.26
3.19284
-997.753
-1.47054
1.8579
-995.1
-1.45545
1.82961
-994.787
-0.900147
1.75444
-995.875
-0.576029
1.72222
-995.811
1.68333
-996.308
-1.52255
-994.293
-1.52416
-993.943
-0.942348
-995.16
-0.608425
-995.128
-995.698
-1.50293
6.86524
-1000.43
-1.47934
7.20217
-1000.03
-0.989879
6.80224
-1000.93
-0.611962
7.05187
-1001.16
6.866
-1001.66
-1.45337
6.20394
-998.439
-1.57828
6.13353
-996.68
-0.814123
5.73016
-998.257
-0.597968
5.53313
-997.09
5.30914
-997.704
-1.7125
4.73426
-996.042
-1.96999
4.75493
-994.591
-1.13848
4.49516
-996.788
-0.862128
4.51823
-996.521
4.40349
-997.709
-1.82969
2.59136
-994.151
-2.10349
2.59912
-992.357
-1.1244
2.41717
-994.776
-0.873755
2.36773
-993.911
2.27549
-995.053
-1.92759
-992.94
-2.24748
-991.023
-1.21849
-993.771
-0.953466
-993.025
-994.376
-1.72715
8.79243
-1002.03
-2.00985
10.1234
-1000.48
-1.35199
8.94994
-1002.3
-0.952456
9.83501
-1002.59
9.28928
-1003.68
-1.451
8.43925
-1000.06
-1.85095
8.31765
-994.474
-0.685696
7.42068
-997.893
-0.690435
7.13068
-994.381
6.64612
-995.752
-2.12184
6.53139
-996.152
-2.90243
6.80804
-992.301
-1.64727
6.21644
-996.839
-1.47798
6.42454
-995.984
6.13891
-998.68
-2.269
3.6623
-993.561
-2.95379
3.7918
-988.656
-1.38494
3.34624
-993.474
-1.33864
3.29001
-990.822
3.10715
-993.36
-2.46693
-991.579
-3.2841
-986.414
-1.63854
-992.071
-1.55915
-989.814
-992.827
-1.91934
10.6488
-1005.62
-2.77533
14.4166
-1001.75
-2.06428
11.4435
-1005.08
-1.61089
13.7172
-1005.62
12.3415
-1007.82
-0.932332
11.7798
-1005.23
-1.50277
11.3391
-990.826
-0.209486
9.55661
-997.3
-0.564038
9.1729
-989.482
8.08845
-992.063
-2.74478
9.02768
-996.963
-4.37459
9.94232
-989.274
-2.68674
8.70198
-997.672
-2.7441
9.24927
-996.003
8.57812
-1001.91
-2.79699
5.32475
-993.924
-3.87733
5.737
-983.37
-1.6453
4.69519
-991.699
-2.09292
4.80192
-985.927
4.44663
-991.321
-3.22347
-990.159
-4.72164
-979.179
-2.33193
-989.765
-2.67146
-984.673
-991.052
-2.01316
11.0998
-1012.38
-3.83807
20.3689
-1004.51
-3.47674
13.9625
-1009.83
-2.89153
18.9027
-1011.41
15.9463
-1015.67
1.19791
17.4998
-1020.55
0.806259
15.7161
-985.782
1.84308
12.3533
-996.727
0.189968
11.8303
-980.756
9.32222
-985.249
-3.88571
12.6705
-998.084
-6.7927
14.6285
-985.279
-4.82758
12.3521
-999.636
-5.46932
13.4988
-997.029
12.0269
-1010.09
-3.4012
8.13972
-996.488
-4.42575
9.17163
-976.889
-1.87744
6.83287
-988.728
-3.52776
7.51985
-978.298
6.81274
-989.635
-4.36313
-988.142
-6.64459
-967.726
-3.49078
-986.086
-4.83344
-975.81
-989.072
-2.09693
7.84856
-1024.27
-5.33231
28.0466
-1010.11
-6.38219
15.6937
-1016.95
-5.4543
25.7755
-1022.23
19.886
-1029.98
9.28861
28.8345
-1064.81
5.94133
21.924
-976.312
6.96738
16.476
-998.536
1.5049
15.1232
-964.642
9.29353
-973.151
-6.37014
19.2469
-997.799
-11.0602
21.4187
-980.084
-9.34997
18.0395
-1002.91
-11.5983
20.1357
-999.793
17.0044
-1029.4
-4.29923
13.1758
-1002.78
-3.13865
15.9224
-972.553
-2.05715
10.351
-982.121
-6.79357
12.7415
-966.167
11.4629
-990.886
-6.35803
-983.586
-9.05864
-949.103
-5.40827
-979.385
-9.2275
-959.249
-986.837
-2.74117
-0.850481
-1048.12
-6.72609
38.0539
-1023.83
-12.1216
14.7202
-1025.51
-10.0964
35.2762
-1043.27
23.4867
-1055.18
27.5169
51.2287
-1172.53
19.2919
29.5455
-959.579
17.7365
23.3432
-1005.6
4.98324
19.4293
-936.041
5.70019
-950.381
-12.1899
32.4665
-992.096
-18.3258
30.1093
-974.512
-18.7703
28.4372
-1007.56
-25.6361
31.5335
-1005.03
24.863
-1074.19
-6.36656
21.9996
-1013.63
3.08705
30.6632
-982.56
-2.18282
16.2388
-964.652
-15.3273
24.2061
-945.694
22.0713
-1003.42
-10.1482
-971.71
-11.5218
-917.065
-8.1066
-966.56
-18.2949
-924.854
-983.06
13.6334
-62.9202
-1129.58
14.8805
50.0949
-1068.34
-21.4101
-5.24551
-1007.02
-15.0461
47.3183
-1082.98
24.721
-1081.71
94.6799
125.606
-1538.68
62.2277
41.4865
-918.517
45.151
51.6669
-1045.44
12.7045
31.6806
-887.956
-7.04977
-905.905
-12.6513
74.9869
-976.936
-17.3728
38.3877
-966.691
-33.3912
47.3414
-987.214
-58.2259
54.1255
-1002.64
35.7085
-1175.18
-5.6048
44.3323
-1037.88
27.3461
70.8556
-1047.98
0.371176
32.7216
-923.057
-44.4749
57.9641
-904.686
65.4436
-1077.63
-6.42109
-938.643
0.0333656
-852.664
-6.88391
-926.921
-33.801
-839.972
-951.417
-47.6191
-70.7098
-1143.04
-57.49
62.3328
-1096.16
-59.4423
23.0596
-1071.71
-53.7522
54.7987
-1144.3
24.0512
-1199.27
139.723
187.627
-2048.08
109.731
20.6187
-846.811
61.4316
42.8254
-1016.9
26.5505
10.3099
-808.586
-63.3976
-791.906
-81.8846
109.342
-863.999
-78.7727
29.0052
-978.189
-92.0057
68.9631
-1000.12
-124.031
45.2569
-1005.56
17.6991
-1380.31
-39.0463
51.1415
-983.462
36.6405
65.3047
-1159.96
-15.9353
20.9858
-822.503
-66.3927
39.6708
-848.642
27.9577
-1154.28
-60.0265
-830.029
-45.6287
-801.756
-60.1622
-891.401
-99.0156
-761.447
-1022.48
75.2578
-618.175
-1644.4
242.586
96.205
-1617.71
-67.4703
-205.665
-755.389
-21.9363
132.109
-1428.98
34.7845
-1190.97
654.38
812.432
-4776.8
426.574
23.2121
-546.012
233.096
225.757
-1254.85
105.917
109.344
-658.641
-240.29
-410.914
-68.1154
463.659
-650.277
17.1214
16.0494
-1056.26
-157.719
198.185
-797.706
-340.549
228.01
-941.397
103.29
-2064.43
-90.4281
182.677
-955.397
286.545
434.372
-1955.26
21.7932
95.949
-455.516
-355.658
373.812
-616.993
543.305
-1949.96
-49.4891
-568.189
79.6925
-496.567
137.453
-853.213
-32.5452
-217.637
-511.716
-358.444
570.166
-1065.83
-615.191
166.019
-1097.89
-139.109
270.127
-1558.33
-258.885
-0.764664
-1228.45
87.2328
-1803.03
-226.437
-426.956
-3039.19
-190.202
-117.351
-298.876
8.95867
34.0732
-1217.95
2.73271
-130.16
-523.02
15.7751
-336.724
-274.81
-280.709
-447.679
-338.091
-10.8755
-1099.46
-158.146
74.6337
-1018.21
-211.851
-101.367
-916.484
-180.503
-2080.01
-6.76363
-28.9022
-948.273
-76.3194
-144.119
-1752.46
-51.1545
4.67497
-410.722
104.417
-194.295
-679.636
-666.279
-1359.76
24.2302
-395.557
-215.936
-400.519
-499.861
-564.613
-640.321
-271.472
-1818.31
-0.902448
-2.07148
-1117.8
106.653
8.05374
-1375.63
25.2654
-160.566
-1355.06
119.073
21.3381
-1357.24
90.2554
-1674.19
55.9606
33.2093
-3527.66
-7.16635
-69.4799
-158.216
24.2433
87.9517
-1497.88
9.5617
2.77458
-489.775
-79.6135
-157.293
-10.6152
-10.2908
-390.913
16.6552
-92.225
-1103.98
-15.1608
45.9431
-944.386
-85.2194
4.01001
-847.661
-68.7606
-2176.08
-31.74
-12.2725
-953.854
67.3167
94.3403
-2038.08
-14.4084
-17.2765
-265.777
-50.1701
18.2022
-658.066
237.688
-1716.38
-0.871891
-334.931
-16.9679
-290.083
34.8798
-633.737
102.812
-321.201
-1477.81
903.643
-124.665
-2281.91
824.964
14.7687
-1444.68
-142.857
-41.0844
-122.734
163.719
152.156
-1813.11
-109.422
-1455.47
-227.859
495.95
-4626.44
4.01434
5.48713
-380.807
-25.0364
73.8293
-1583.74
-69.2637
-20.0038
-273.387
16.8155
-352.794
270.64
217.917
-435.13
227.734
132.579
-1188.17
-123.672
-45.5218
-473.629
-142.797
-83.3558
-765.184
-430.393
-1871.67
121.097
-124.187
-538.255
-58.8194
25.4505
-1751.04
-50.8173
54.6894
-373.99
-212.417
-24.3321
-555.49
-167.226
-2191.97
62.6395
-528.962
-56.2024
-145.79
-121.359
-513.891
-0.561231
-466.331
-1645.6
-47.8559
1254.59
-1617.11
-8.91713
-50.2597
-1162.24
2.19067
-29.7752
-2.18632
406.332
28.3245
-2261.8
-320.314
-738.753
-36.0041
-324.703
-2795.67
27.4706
-122.749
-371.793
-48.5769
-155.727
-1381.74
-72.0882
-99.4236
-122.128
-89.608
-655.588
-62.9853
-15.4317
-438.62
-54.1965
29.0893
-1348.79
-20.5372
-36.4552
-626.56
196.869
-60.9138
-1021.1
-199.744
-1564.66
-35.0997
-76.5516
-269.895
-152.627
-94.0664
-1510.35
-16.7862
8.55701
-554.843
185.696
-36.2054
-782.681
-801.299
-1404.71
29.6467
-843.977
17.179
-227.389
-109.383
-378.772
-193.759
-418.161
-2640.66
-258.539
-807.831
-40.0621
-169.141
-3.79755
-1162.31
141.051
-6.47165
-284.101
87.7328
-57.776
-2071.19
-40.0735
-168.647
53.5921
-854.342
-2573.88
-58.0972
-157.332
-106.569
-191.225
-559.276
-695.811
71.9585
-112.255
-330.832
-169.995
-453.708
410.187
24.134
-2176.75
205.264
-262.474
-1038.73
-9.16421
-451.978
-519.429
395.962
-58.502
-1479.98
-333.632
-1005.06
294.754
-54.0063
-556.653
6.88685
-198.78
-1286.18
177.706
-18.3886
-1159.25
172.724
17.5511
-853.752
-356.32
-1209.3
117.761
-1876.03
11.2477
-319.655
47.6263
-433.539
-108.791
-244.193
-3105.77
29.9578
91.0134
-637.822
97.7024
-58.1746
-1203.11
124.356
-15.3277
-386.31
-431.796
151.947
-931.905
142.469
-540.108
-274.941
-1258.92
-951.717
29.6904
180.211
-649.587
-23.7711
4.82292
-662.5
92.9112
27.6943
-323.261
85.9115
-304.239
670.561
-461.29
-3657.62
110.979
40.5307
-339.466
-5.79854
-166.354
-231.475
169.799
-93.8215
-1534.06
-318.947
-430.407
82.521
-493.567
-600.178
-101.827
-30.8372
-1030.46
-215.09
-30.1811
-1182.16
287.484
47.1122
-1497.26
-895.095
-345.67
58.5205
-3267.8
168.439
-460.411
-51.2338
-244.048
46.313
-294.627
-3954.55
-192.486
149.5
-597.262
-116.525
33.804
-994.59
0.643794
-1.80803
-503.791
-199.595
-6.10553
-9.98401
-58.2906
-560.801
-281.31
-84.4936
-177.377
-45.8448
116.327
-967.575
9.18431
64.208
-783.545
-2.92872
169.929
-487.183
1.54821
-367.006
61.4742
32.6679
-4070.24
-19.8331
46.8809
-188.712
127.461
195.438
-509.999
9.94918
143.77
-1390.39
7.28379
-426.194
279.277
-399.669
-424.807
438.78
-30.0619
-1113.02
185.564
4.00596
-737.513
456.352
0.990074
-1625.27
146.577
-28.6119
252.946
-4152.3
88.2939
-325.821
-2.34642
-149.401
1101.36
-1397.34
-2706.61
-1.59737
-20.7963
-608.371
-47.0955
26.0487
-901.97
-8.87671
-65.7194
-774.193
-16.0368
-74.1236
-10.1075
15.1932
-622.513
221.917
1195.35
-1860.41
33.0746
105.922
-858.606
-217.409
74.2806
-673.061
-369.137
90.2735
-499.852
97.7688
-818.719
-176.953
1403.55
-4582.07
-104.747
56.4497
-211.447
-161.255
196.241
-575.452
-267.32
137.601
-1331.65
-50.7742
-544.97
170.016
1446.27
-422.438
-25.5225
5.60565
-866.642
-95.8723
8.87606
-479.798
-105.534
124.001
-1602.01
1.53645
-186.456
269.62
-2708.35
-28.3416
-22.2543
1.64487
-170.512
6.14362
-1277.84
-2698.93
407.637
2406.16
-3837.22
168.139
-2.06811
-937.084
-79.1761
-60.4862
-523.458
341.122
2.40825
-523.128
-69.5039
-941.849
103.159
2803.8
-2298.27
-99.0101
30.4507
-688.955
-8.30836
-98.2799
-725.969
81.6741
-137.155
-450.271
-176.041
-630.507
21.0468
-151.119
-1386.43
-3.43723
-76.8787
-79.6335
204.479
39.7905
-921.438
29.9609
-112.019
-1182.27
49.4527
-740.504
30.0588
557.014
-1153.52
63.1931
-74.4175
-902.237
-221.838
-4.84903
-150.127
105.987
428.97
-2470.82
747.319
-778.334
-54.0201
-1698.18
0.950984
-151.643
12.2601
-186.67
-773.258
-63.3531
-2724.87
-643.697
1340.27
-4400.94