/*--------------------------------*- C++ -*----------------------------------*\
| =========                 |                                                 |
| \\      /  F ield         | OpenFOAM: The Open Source CFD Toolbox           |
|  \\    /   O peration     | Version:  5.x                                   |
|   \\  /    A nd           | Web:      www.OpenFOAM.org                      |
|    \\/     M anipulation  |                                                 |
\*---------------------------------------------------------------------------*/
FoamFile
{
    version     2.0;
    format      ascii;
    class       volVectorField;
    location    "40000";
    object      stored_U;
}
// * * * * * * * * * * * * * * * * * * * * * * * * * * * * * * * * * * * * * //

dimensions      [0 1 -1 0 0 0 0];

internalField   nonuniform List<vector> 
2250
(
(-4.53574e-11 1.65971e-10 -0.000999999)
(-1.24935e-10 1.93437e-10 -0.000999999)
(-5.84099e-11 2.07557e-10 -0.001)
(-1.17246e-11 2.1176e-10 -0.001)
(-2.94397e-12 2.09221e-10 -0.001)
(-4.37111e-11 1.27652e-10 -0.000999999)
(-5.10826e-11 1.89336e-10 -0.000999999)
(-2.98588e-11 2.2615e-10 -0.000999999)
(-1.193e-11 2.30733e-10 -0.000999999)
(-5.3316e-12 2.25649e-10 -0.000999999)
(-3.6079e-11 1.49659e-10 -0.000999999)
(-2.642e-11 1.68365e-10 -0.000999999)
(-1.69912e-11 1.82774e-10 -0.000999999)
(-1.17311e-11 1.84221e-10 -0.000999999)
(-7.52237e-12 1.77537e-10 -0.000999999)
(-2.76068e-11 1.00325e-10 -0.000999998)
(-1.7957e-11 1.06192e-10 -0.000999998)
(-1.39896e-11 1.08258e-10 -0.000999998)
(-1.67946e-11 1.04066e-10 -0.000999999)
(-1.1631e-11 9.57161e-11 -0.000999999)
(-2.79289e-11 3.33503e-11 -0.000999998)
(-1.8404e-11 3.46662e-11 -0.000999998)
(-1.90646e-11 3.28017e-11 -0.000999998)
(-2.40181e-11 2.95675e-11 -0.000999998)
(-1.56293e-11 2.5492e-11 -0.000999998)
(-8.4958e-11 5.26748e-10 -0.000999999)
(-2.66314e-10 5.75053e-10 -0.000999999)
(-1.36039e-10 5.95984e-10 -0.000999999)
(-5.01603e-11 6.00856e-10 -0.001)
(-2.0381e-11 5.98614e-10 -0.001)
(-9.07878e-11 4.24177e-10 -0.000999999)
(-1.20653e-10 5.44724e-10 -0.000999999)
(-8.35466e-11 6.11434e-10 -0.000999999)
(-4.68898e-11 6.18213e-10 -0.000999999)
(-2.11372e-11 6.08409e-10 -0.000999999)
(-8.85929e-11 4.19943e-10 -0.000999999)
(-7.90843e-11 4.52434e-10 -0.000999999)
(-6.25325e-11 4.77088e-10 -0.000999999)
(-5.19456e-11 4.75271e-10 -0.000999999)
(-2.89449e-11 4.54837e-10 -0.000999999)
(-7.60958e-11 2.60538e-10 -0.000999998)
(-6.34968e-11 2.73619e-10 -0.000999998)
(-6.06776e-11 2.74155e-10 -0.000999999)
(-6.82432e-11 2.60833e-10 -0.000999999)
(-4.06505e-11 2.38629e-10 -0.000999999)
(-7.86864e-11 8.27513e-11 -0.000999998)
(-6.51749e-11 8.66207e-11 -0.000999998)
(-7.51582e-11 8.07943e-11 -0.000999998)
(-8.6835e-11 7.20779e-11 -0.000999999)
(-5.05476e-11 6.19787e-11 -0.000999999)
(-1.33982e-10 9.60983e-10 -0.000999999)
(-2.71122e-10 9.8078e-10 -0.000999999)
(-1.8586e-10 1.00791e-09 -0.000999999)
(-1.06668e-10 1.01801e-09 -0.001)
(-3.93549e-11 1.01777e-09 -0.001)
(-1.61791e-10 8.49386e-10 -0.000999999)
(-1.79315e-10 9.20402e-10 -0.000999999)
(-1.43591e-10 9.62663e-10 -0.000999999)
(-9.36573e-11 9.73623e-10 -0.000999999)
(-3.74188e-11 9.59062e-10 -0.000999999)
(-1.67347e-10 6.93184e-10 -0.000999999)
(-1.57815e-10 7.22055e-10 -0.000999999)
(-1.32587e-10 7.36278e-10 -0.000999999)
(-1.08394e-10 7.27645e-10 -0.000999999)
(-5.20653e-11 6.95854e-10 -0.000999999)
(-1.51442e-10 4.06855e-10 -0.000999998)
(-1.36195e-10 4.37679e-10 -0.000999998)
(-1.37942e-10 4.31257e-10 -0.000999998)
(-1.32702e-10 4.10148e-10 -0.000999999)
(-6.77925e-11 3.8479e-10 -0.000999999)
(-1.47484e-10 1.30514e-10 -0.000999998)
(-1.33018e-10 1.4285e-10 -0.000999998)
(-1.59807e-10 1.33318e-10 -0.000999998)
(-1.53819e-10 1.20819e-10 -0.000999998)
(-7.64642e-11 1.11814e-10 -0.000999998)
(-2.05632e-10 1.48179e-09 -0.000999999)
(-3.03691e-10 1.44594e-09 -0.000999999)
(-2.12754e-10 1.47525e-09 -0.000999999)
(-1.36746e-10 1.4812e-09 -0.000999999)
(-4.31122e-11 1.47065e-09 -0.001)
(-2.89261e-10 1.29808e-09 -0.000999999)
(-2.52458e-10 1.34142e-09 -0.000999999)
(-2.05192e-10 1.33623e-09 -0.000999999)
(-1.36099e-10 1.33417e-09 -0.000999999)
(-5.04539e-11 1.30455e-09 -0.000999999)
(-2.95266e-10 1.03407e-09 -0.000999998)
(-2.65479e-10 1.04424e-09 -0.000999998)
(-2.1992e-10 1.03402e-09 -0.000999999)
(-1.65903e-10 1.00746e-09 -0.000999999)
(-7.01891e-11 9.72036e-10 -0.000999999)
(-2.85449e-10 6.37599e-10 -0.000999998)
(-2.52466e-10 6.62863e-10 -0.000999998)
(-2.41882e-10 6.41412e-10 -0.000999998)
(-1.96122e-10 6.11119e-10 -0.000999998)
(-8.38659e-11 5.97096e-10 -0.000999998)
(-2.88035e-10 2.22902e-10 -0.000999998)
(-2.61067e-10 2.2968e-10 -0.000999998)
(-2.7114e-10 2.13789e-10 -0.000999998)
(-2.08642e-10 2.00071e-10 -0.000999998)
(-8.28272e-11 2.0059e-10 -0.000999998)
(-3.45239e-10 2.17288e-09 -0.000999999)
(-3.79619e-10 2.09245e-09 -0.000999999)
(-2.45407e-10 2.09353e-09 -0.001)
(-1.51701e-10 2.076e-09 -0.001)
(-4.56541e-11 2.04643e-09 -0.001)
(-4.65664e-10 1.89825e-09 -0.000999999)
(-3.74426e-10 1.90897e-09 -0.000999999)
(-2.82135e-10 1.85786e-09 -0.000999999)
(-1.85706e-10 1.81961e-09 -0.000999999)
(-6.83721e-11 1.77276e-09 -0.000999999)
(-4.92595e-10 1.54771e-09 -0.000999998)
(-4.20074e-10 1.5238e-09 -0.000999998)
(-3.34629e-10 1.47415e-09 -0.000999998)
(-2.33369e-10 1.42129e-09 -0.000999998)
(-8.90376e-11 1.39127e-09 -0.000999998)
(-5.07865e-10 1.02148e-09 -0.000999997)
(-4.47924e-10 9.96667e-10 -0.000999998)
(-3.84509e-10 9.49276e-10 -0.000999998)
(-2.65762e-10 9.13635e-10 -0.000999998)
(-9.55583e-11 9.18314e-10 -0.000999998)
(-5.36607e-10 3.71682e-10 -0.000999997)
(-4.91284e-10 3.50767e-10 -0.000999997)
(-4.1685e-10 3.27533e-10 -0.000999998)
(-2.62024e-10 3.17817e-10 -0.000999998)
(-8.23876e-11 3.30184e-10 -0.000999998)
(-6.0699e-10 3.10755e-09 -0.000999999)
(-5.46338e-10 2.99357e-09 -0.000999999)
(-3.54746e-10 2.9639e-09 -0.001)
(-2.14921e-10 2.92483e-09 -0.001)
(-7.04702e-11 2.88517e-09 -0.001)
(-7.25197e-10 2.75267e-09 -0.000999998)
(-5.90881e-10 2.72537e-09 -0.000999998)
(-4.26837e-10 2.64545e-09 -0.000999999)
(-2.75275e-10 2.57743e-09 -0.000999999)
(-9.99043e-11 2.52633e-09 -0.000999999)
(-7.79328e-10 2.25115e-09 -0.000999997)
(-6.53554e-10 2.19159e-09 -0.000999998)
(-5.02586e-10 2.11569e-09 -0.000999998)
(-3.2911e-10 2.05223e-09 -0.000999998)
(-1.16639e-10 2.03235e-09 -0.000999998)
(-8.18455e-10 1.50389e-09 -0.000999997)
(-7.26277e-10 1.42818e-09 -0.000999997)
(-5.66025e-10 1.37058e-09 -0.000999997)
(-3.5453e-10 1.34334e-09 -0.000999997)
(-1.15756e-10 1.35397e-09 -0.000999997)
(-8.59688e-10 5.34922e-10 -0.000999996)
(-7.85316e-10 4.94912e-10 -0.000999997)
(-5.86224e-10 4.74562e-10 -0.000999997)
(-3.424e-10 4.73693e-10 -0.000999997)
(-1.03241e-10 4.8511e-10 -0.000999997)
(-1.06682e-09 4.26439e-09 -0.000999999)
(-9.24542e-10 4.17839e-09 -0.000999999)
(-6.229e-10 4.1492e-09 -0.001)
(-3.68966e-10 4.10818e-09 -0.001)
(-1.24737e-10 4.07161e-09 -0.001)
(-1.10092e-09 3.79435e-09 -0.000999998)
(-9.52561e-10 3.79403e-09 -0.000999998)
(-6.82822e-10 3.74012e-09 -0.000999998)
(-4.29113e-10 3.67409e-09 -0.000999999)
(-1.50599e-10 3.62898e-09 -0.000999999)
(-1.15512e-09 3.06362e-09 -0.000999996)
(-9.78778e-10 3.03055e-09 -0.000999997)
(-7.42633e-10 2.97257e-09 -0.000999997)
(-4.72989e-10 2.92354e-09 -0.000999997)
(-1.62837e-10 2.90471e-09 -0.000999998)
(-1.1839e-09 2.01662e-09 -0.000999996)
(-1.0435e-09 1.95421e-09 -0.000999996)
(-7.89588e-10 1.91404e-09 -0.000999996)
(-4.91226e-10 1.89672e-09 -0.000999997)
(-1.63844e-10 1.8877e-09 -0.000999997)
(-1.20809e-09 6.97177e-10 -0.000999995)
(-1.07921e-09 6.69874e-10 -0.000999996)
(-7.98438e-10 6.59489e-10 -0.000999996)
(-4.9468e-10 6.59494e-10 -0.000999996)
(-1.67979e-10 6.53832e-10 -0.000999996)
(-1.62168e-09 5.7663e-09 -0.000999999)
(-1.49267e-09 5.73552e-09 -0.000999999)
(-1.03394e-09 5.7092e-09 -0.001)
(-6.25126e-10 5.67265e-09 -0.001)
(-2.12579e-10 5.64163e-09 -0.001)
(-1.59766e-09 5.06136e-09 -0.000999997)
(-1.42348e-09 5.1553e-09 -0.000999997)
(-1.05552e-09 5.14662e-09 -0.000999998)
(-6.65077e-10 5.10453e-09 -0.000999998)
(-2.30134e-10 5.06614e-09 -0.000999999)
(-1.61892e-09 4.07373e-09 -0.000999995)
(-1.4074e-09 4.09274e-09 -0.000999996)
(-1.08441e-09 4.06919e-09 -0.000999997)
(-6.9569e-10 4.03762e-09 -0.000999997)
(-2.41315e-10 4.007e-09 -0.000999997)
(-1.62591e-09 2.63902e-09 -0.000999994)
(-1.42787e-09 2.62642e-09 -0.000999995)
(-1.11031e-09 2.6034e-09 -0.000999995)
(-7.19412e-10 2.5808e-09 -0.000999996)
(-2.53161e-10 2.54678e-09 -0.000999996)
(-1.63145e-09 9.06965e-10 -0.000999994)
(-1.44016e-09 9.00888e-10 -0.000999994)
(-1.12762e-09 8.91966e-10 -0.000999995)
(-7.45919e-10 8.81384e-10 -0.000999995)
(-2.70038e-10 8.62409e-10 -0.000999996)
(-2.13618e-09 7.89677e-09 -0.000999999)
(-2.12558e-09 7.81136e-09 -0.000999999)
(-1.54098e-09 7.76849e-09 -0.001)
(-9.72999e-10 7.7282e-09 -0.001)
(-3.34812e-10 7.69715e-09 -0.001)
(-2.21404e-09 6.83666e-09 -0.000999996)
(-2.00048e-09 6.97192e-09 -0.000999997)
(-1.547e-09 6.96398e-09 -0.000999998)
(-9.91965e-10 6.93588e-09 -0.000999998)
(-3.42781e-10 6.90088e-09 -0.000999998)
(-2.22824e-09 5.50448e-09 -0.000999994)
(-1.99825e-09 5.52307e-09 -0.000999995)
(-1.57662e-09 5.49629e-09 -0.000999996)
(-1.02268e-09 5.46319e-09 -0.000999996)
(-3.56823e-10 5.42204e-09 -0.000999996)
(-2.24823e-09 3.53784e-09 -0.000999993)
(-2.00848e-09 3.5357e-09 -0.000999994)
(-1.60641e-09 3.5053e-09 -0.000999994)
(-1.05559e-09 3.4726e-09 -0.000999995)
(-3.73689e-10 3.43868e-09 -0.000999995)
(-2.26033e-09 1.22082e-09 -0.000999992)
(-2.02681e-09 1.21528e-09 -0.000999993)
(-1.63628e-09 1.19873e-09 -0.000999993)
(-1.08052e-09 1.18227e-09 -0.000999994)
(-3.83566e-10 1.16952e-09 -0.000999994)
(-2.84023e-09 1.07719e-08 -0.000999999)
(-2.79943e-09 1.05903e-08 -0.000999999)
(-2.13253e-09 1.05281e-08 -0.001)
(-1.38467e-09 1.04697e-08 -0.001)
(-4.78724e-10 1.04226e-08 -0.001)
(-3.04824e-09 9.44363e-09 -0.000999995)
(-2.75222e-09 9.48571e-09 -0.000999996)
(-2.18596e-09 9.40893e-09 -0.000999997)
(-1.41967e-09 9.35897e-09 -0.000999998)
(-4.91831e-10 9.31403e-09 -0.000999998)
(-3.09873e-09 7.55424e-09 -0.000999992)
(-2.83413e-09 7.49609e-09 -0.000999993)
(-2.25871e-09 7.42093e-09 -0.000999994)
(-1.46145e-09 7.37452e-09 -0.000999995)
(-5.0612e-10 7.34e-09 -0.000999995)
(-3.16072e-09 4.83083e-09 -0.00099999)
(-2.88527e-09 4.78911e-09 -0.000999991)
(-2.30688e-09 4.74206e-09 -0.000999992)
(-1.48615e-09 4.71618e-09 -0.000999993)
(-5.12433e-10 4.70466e-09 -0.000999993)
(-3.19354e-09 1.66557e-09 -0.000999989)
(-2.91723e-09 1.64541e-09 -0.00099999)
(-2.32682e-09 1.62828e-09 -0.000999991)
(-1.48682e-09 1.62104e-09 -0.000999992)
(-5.07852e-10 1.62168e-09 -0.000999992)
(-3.98055e-09 1.45765e-08 -0.000999998)
(-3.70529e-09 1.43577e-08 -0.000999999)
(-2.91001e-09 1.42491e-08 -0.001)
(-1.91722e-09 1.41642e-08 -0.001)
(-6.72034e-10 1.40996e-08 -0.001)
(-4.22829e-09 1.30177e-08 -0.000999994)
(-3.81861e-09 1.29073e-08 -0.000999995)
(-3.04898e-09 1.27424e-08 -0.000999996)
(-1.9926e-09 1.26554e-08 -0.000999997)
(-6.9483e-10 1.26067e-08 -0.000999998)
(-4.33589e-09 1.03303e-08 -0.00099999)
(-3.98052e-09 1.01927e-08 -0.000999991)
(-3.16112e-09 1.0076e-08 -0.000999992)
(-2.02823e-09 1.00318e-08 -0.000999993)
(-6.96779e-10 1.00177e-08 -0.000999994)
(-4.42999e-09 6.59076e-09 -0.000999987)
(-4.07253e-09 6.51395e-09 -0.000999989)
(-3.20897e-09 6.47138e-09 -0.00099999)
(-2.03106e-09 6.46454e-09 -0.000999991)
(-6.89843e-10 6.4626e-09 -0.000999991)
(-4.46333e-09 2.25971e-09 -0.000999986)
(-4.09199e-09 2.23711e-09 -0.000999987)
(-3.20395e-09 2.23275e-09 -0.000999988)
(-2.02052e-09 2.23604e-09 -0.000999989)
(-6.85252e-10 2.23521e-09 -0.00099999)
(-5.63887e-09 1.97196e-08 -0.000999997)
(-5.12806e-09 1.94756e-08 -0.000999999)
(-4.08593e-09 1.93195e-08 -0.001)
(-2.71324e-09 1.92342e-08 -0.001)
(-9.63692e-10 1.91834e-08 -0.001)
(-5.88464e-09 1.77065e-08 -0.000999991)
(-5.33708e-09 1.75101e-08 -0.000999993)
(-4.25221e-09 1.73257e-08 -0.000999995)
(-2.76967e-09 1.725e-08 -0.000999996)
(-9.65544e-10 1.72248e-08 -0.000999997)
(-6.02564e-09 1.40086e-08 -0.000999986)
(-5.5088e-09 1.38597e-08 -0.000999988)
(-4.34501e-09 1.37622e-08 -0.00099999)
(-2.78026e-09 1.37389e-08 -0.000999991)
(-9.56066e-10 1.37251e-08 -0.000999992)
(-6.10907e-09 8.93319e-09 -0.000999983)
(-5.58293e-09 8.87912e-09 -0.000999985)
(-4.3718e-09 8.85893e-09 -0.000999986)
(-2.77951e-09 8.85406e-09 -0.000999988)
(-9.53067e-10 8.82889e-09 -0.000999988)
(-6.11759e-09 3.05528e-09 -0.000999981)
(-5.57238e-09 3.05107e-09 -0.000999983)
(-4.36121e-09 3.05562e-09 -0.000999984)
(-2.78772e-09 3.0535e-09 -0.000999986)
(-9.62657e-10 3.03649e-09 -0.000999986)
(-7.95714e-09 2.66794e-08 -0.000999997)
(-7.28087e-09 2.64438e-08 -0.000999999)
(-5.80421e-09 2.63e-08 -0.001)
(-3.80639e-09 2.62465e-08 -0.001)
(-1.33574e-09 2.62016e-08 -0.001)
(-8.17903e-09 2.39243e-08 -0.000999989)
(-7.43789e-09 2.37842e-08 -0.000999991)
(-5.89558e-09 2.3676e-08 -0.000999994)
(-3.8092e-09 2.36449e-08 -0.000999995)
(-1.31946e-09 2.36108e-08 -0.000999996)
(-8.28884e-09 1.89429e-08 -0.000999982)
(-7.52921e-09 1.88724e-08 -0.000999985)
(-5.94209e-09 1.88236e-08 -0.000999987)
(-3.82492e-09 1.88001e-08 -0.000999988)
(-1.32459e-09 1.8744e-08 -0.000999989)
(-8.33547e-09 1.21151e-08 -0.000999977)
(-7.55647e-09 1.21071e-08 -0.00099998)
(-5.96623e-09 1.20881e-08 -0.000999982)
(-3.85147e-09 1.20581e-08 -0.000999983)
(-1.3395e-09 1.19973e-08 -0.000999984)
(-8.32833e-09 4.15271e-09 -0.000999974)
(-7.54197e-09 4.15976e-09 -0.000999977)
(-5.97908e-09 4.15357e-09 -0.000999979)
(-3.88487e-09 4.13592e-09 -0.000999981)
(-1.35996e-09 4.10532e-09 -0.000999982)
(-1.11872e-08 3.61036e-08 -0.000999996)
(-1.02239e-08 3.59474e-08 -0.000999999)
(-8.094e-09 3.58492e-08 -0.001)
(-5.21079e-09 3.57939e-08 -0.001)
(-1.79761e-09 3.56968e-08 -0.00100001)
(-1.132e-08 3.24143e-08 -0.000999985)
(-1.02642e-08 3.23887e-08 -0.000999988)
(-8.13111e-09 3.23461e-08 -0.000999992)
(-5.24294e-09 3.23003e-08 -0.000999994)
(-1.81352e-09 3.21944e-08 -0.000999995)
(-1.13761e-08 2.5707e-08 -0.000999976)
(-1.0292e-08 2.56992e-08 -0.000999979)
(-8.18046e-09 2.56555e-08 -0.000999982)
(-5.29876e-09 2.55985e-08 -0.000999985)
(-1.84154e-09 2.54953e-08 -0.000999986)
(-1.14121e-08 1.64868e-08 -0.000999969)
(-1.03147e-08 1.64772e-08 -0.000999972)
(-8.22959e-09 1.6432e-08 -0.000999976)
(-5.35228e-09 1.63774e-08 -0.000999978)
(-1.86749e-09 1.63006e-08 -0.000999979)
(-1.14199e-08 5.6658e-09 -0.000999965)
(-1.03274e-08 5.65774e-09 -0.000999969)
(-8.26369e-09 5.63462e-09 -0.000999972)
(-5.38801e-09 5.60859e-09 -0.000999974)
(-1.8837e-09 5.57854e-09 -0.000999976)
(-1.55386e-08 4.89832e-08 -0.000999994)
(-1.40958e-08 4.88821e-08 -0.000999999)
(-1.11552e-08 4.87763e-08 -0.001)
(-7.17163e-09 4.86801e-08 -0.00100001)
(-2.47352e-09 4.85309e-08 -0.00100001)
(-1.56124e-08 4.41019e-08 -0.00099998)
(-1.41347e-08 4.40821e-08 -0.000999984)
(-1.12393e-08 4.40054e-08 -0.000999989)
(-7.2577e-09 4.39113e-08 -0.000999992)
(-2.51041e-09 4.37619e-08 -0.000999994)
(-1.56767e-08 3.49766e-08 -0.000999967)
(-1.41921e-08 3.49432e-08 -0.000999972)
(-1.13233e-08 3.48671e-08 -0.000999976)
(-7.32849e-09 3.47892e-08 -0.000999979)
(-2.53872e-09 3.46705e-08 -0.000999981)
(-1.57429e-08 2.24444e-08 -0.000999958)
(-1.4243e-08 2.24024e-08 -0.000999963)
(-1.13902e-08 2.23397e-08 -0.000999967)
(-7.38512e-09 2.22817e-08 -0.00099997)
(-2.56229e-09 2.22109e-08 -0.000999972)
(-1.57698e-08 7.72152e-09 -0.000999953)
(-1.427e-08 7.69732e-09 -0.000999958)
(-1.14213e-08 7.66909e-09 -0.000999962)
(-7.39976e-09 7.64547e-09 -0.000999965)
(-2.56234e-09 7.62653e-09 -0.000999967)
(-2.13934e-08 6.65953e-08 -0.000999993)
(-1.93269e-08 6.6456e-08 -0.000999999)
(-1.53749e-08 6.63114e-08 -0.001)
(-9.91801e-09 6.62049e-08 -0.00100001)
(-3.42356e-09 6.60335e-08 -0.00100001)
(-2.15067e-08 6.00704e-08 -0.000999972)
(-1.94729e-08 5.99431e-08 -0.000999979)
(-1.55048e-08 5.98062e-08 -0.000999985)
(-9.98559e-09 5.971e-08 -0.000999989)
(-3.43968e-09 5.95534e-08 -0.000999991)
(-2.16311e-08 4.76282e-08 -0.000999955)
(-1.9591e-08 4.75296e-08 -0.000999962)
(-1.56043e-08 4.74287e-08 -0.000999968)
(-1.00528e-08 4.73458e-08 -0.000999972)
(-3.46565e-09 4.72108e-08 -0.000999974)
(-2.17378e-08 3.05875e-08 -0.000999942)
(-1.96708e-08 3.05142e-08 -0.000999949)
(-1.56844e-08 3.04399e-08 -0.000999955)
(-1.01092e-08 3.03802e-08 -0.000999959)
(-3.48366e-09 3.03098e-08 -0.000999962)
(-2.1772e-08 1.05352e-08 -0.000999936)
(-1.97017e-08 1.05008e-08 -0.000999943)
(-1.57071e-08 1.04692e-08 -0.000999948)
(-1.01045e-08 1.04496e-08 -0.000999953)
(-3.47171e-09 1.04357e-08 -0.000999955)
(-2.92695e-08 9.06774e-08 -0.00099999)
(-2.6469e-08 9.04178e-08 -0.000999999)
(-2.1061e-08 9.02311e-08 -0.00100001)
(-1.35209e-08 9.0111e-08 -0.00100001)
(-4.63832e-09 8.98632e-08 -0.00100002)
(-2.95137e-08 8.18011e-08 -0.000999962)
(-2.66896e-08 8.15806e-08 -0.000999971)
(-2.12066e-08 8.14119e-08 -0.000999979)
(-1.36087e-08 8.12933e-08 -0.000999985)
(-4.67473e-09 8.10579e-08 -0.000999988)
(-2.97214e-08 6.49263e-08 -0.000999939)
(-2.68581e-08 6.47555e-08 -0.000999948)
(-2.13435e-08 6.46109e-08 -0.000999956)
(-1.37143e-08 6.44867e-08 -0.000999961)
(-4.71771e-09 6.43007e-08 -0.000999965)
(-2.98863e-08 4.17627e-08 -0.000999921)
(-2.70027e-08 4.16231e-08 -0.000999931)
(-2.14698e-08 4.15058e-08 -0.000999939)
(-1.37902e-08 4.14223e-08 -0.000999944)
(-4.73646e-09 4.13237e-08 -0.000999948)
(-2.99403e-08 1.4397e-08 -0.000999912)
(-2.70647e-08 1.43341e-08 -0.000999922)
(-2.15018e-08 1.42871e-08 -0.00099993)
(-1.37893e-08 1.42632e-08 -0.000999935)
(-4.72849e-09 1.4236e-08 -0.000999939)
(-3.9885e-08 1.23553e-07 -0.000999986)
(-3.6095e-08 1.23128e-07 -0.000999999)
(-2.86377e-08 1.22841e-07 -0.00100001)
(-1.83164e-08 1.22622e-07 -0.00100002)
(-6.27283e-09 1.22233e-07 -0.00100002)
(-4.03137e-08 1.11418e-07 -0.000999949)
(-3.63932e-08 1.11103e-07 -0.000999961)
(-2.88688e-08 1.10855e-07 -0.000999972)
(-1.85196e-08 1.10627e-07 -0.000999979)
(-6.36796e-09 1.10257e-07 -0.000999983)
(-4.06479e-08 8.85207e-08 -0.000999916)
(-3.66573e-08 8.82379e-08 -0.000999929)
(-2.91076e-08 8.79931e-08 -0.00099994)
(-1.86956e-08 8.77886e-08 -0.000999947)
(-6.4293e-09 8.75275e-08 -0.000999952)
(-4.09164e-08 5.69638e-08 -0.000999893)
(-3.69176e-08 5.67211e-08 -0.000999906)
(-2.93104e-08 5.65311e-08 -0.000999916)
(-1.88099e-08 5.64045e-08 -0.000999924)
(-6.45967e-09 5.62537e-08 -0.000999929)
(-4.10135e-08 1.9627e-08 -0.000999881)
(-3.70215e-08 1.95276e-08 -0.000999893)
(-2.93665e-08 1.94581e-08 -0.000999904)
(-1.88272e-08 1.94188e-08 -0.000999912)
(-6.46048e-09 1.937e-08 -0.000999916)
(-5.44225e-08 1.6819e-07 -0.000999982)
(-4.90928e-08 1.67625e-07 -0.000999998)
(-3.89013e-08 1.67177e-07 -0.00100001)
(-2.49316e-08 1.66804e-07 -0.00100002)
(-8.57079e-09 1.66271e-07 -0.00100003)
(-5.50135e-08 1.51776e-07 -0.00099993)
(-4.95608e-08 1.51285e-07 -0.000999947)
(-3.93107e-08 1.50852e-07 -0.000999961)
(-2.52437e-08 1.50477e-07 -0.000999972)
(-8.68852e-09 1.49993e-07 -0.000999977)
(-5.55146e-08 1.20592e-07 -0.000999886)
(-5.00168e-08 1.20129e-07 -0.000999903)
(-3.97005e-08 1.19732e-07 -0.000999918)
(-2.54919e-08 1.19435e-07 -0.000999928)
(-8.76429e-09 1.19079e-07 -0.000999934)
(-5.59213e-08 7.75354e-08 -0.000999854)
(-5.04161e-08 7.71824e-08 -0.000999872)
(-3.99948e-08 7.69088e-08 -0.000999886)
(-2.56581e-08 7.67292e-08 -0.000999897)
(-8.81346e-09 7.65128e-08 -0.000999903)
(-5.60765e-08 2.66873e-08 -0.000999838)
(-5.05504e-08 2.65589e-08 -0.000999855)
(-4.00755e-08 2.64649e-08 -0.00099987)
(-2.56895e-08 2.64067e-08 -0.00099988)
(-8.8177e-09 2.63373e-08 -0.000999886)
(-7.41689e-08 2.28949e-07 -0.000999975)
(-6.67662e-08 2.28108e-07 -0.000999998)
(-5.28895e-08 2.27407e-07 -0.00100002)
(-3.398e-08 2.26852e-07 -0.00100003)
(-1.17099e-08 2.26147e-07 -0.00100004)
(-7.50577e-08 2.067e-07 -0.000999905)
(-6.75224e-08 2.05914e-07 -0.000999928)
(-5.35509e-08 2.05188e-07 -0.000999947)
(-3.43919e-08 2.04645e-07 -0.000999962)
(-1.18339e-08 2.04022e-07 -0.000999969)
(-7.58398e-08 1.6418e-07 -0.000999845)
(-6.8278e-08 1.63453e-07 -0.000999869)
(-5.4146e-08 1.62845e-07 -0.000999889)
(-3.47388e-08 1.62422e-07 -0.000999903)
(-1.19373e-08 1.61928e-07 -0.000999911)
(-7.64434e-08 1.05477e-07 -0.000999802)
(-6.88519e-08 1.04985e-07 -0.000999826)
(-5.45686e-08 1.046e-07 -0.000999846)
(-3.49827e-08 1.04341e-07 -0.00099986)
(-1.20129e-08 1.0402e-07 -0.000999868)
(-7.6672e-08 3.62895e-08 -0.000999779)
(-6.90293e-08 3.61209e-08 -0.000999803)
(-5.46846e-08 3.59928e-08 -0.000999823)
(-3.50489e-08 3.59082e-08 -0.000999838)
(-1.20362e-08 3.57961e-08 -0.000999846)
(-1.00662e-07 3.11947e-07 -0.000999966)
(-9.08317e-08 3.10436e-07 -0.000999997)
(-7.19148e-08 3.09275e-07 -0.00100002)
(-4.62044e-08 3.08445e-07 -0.00100004)
(-1.59176e-08 3.07465e-07 -0.00100005)
(-1.02248e-07 2.81388e-07 -0.000999871)
(-9.2044e-08 2.80135e-07 -0.000999902)
(-7.2921e-08 2.79006e-07 -0.000999929)
(-4.67915e-08 2.78212e-07 -0.000999948)
(-1.60897e-08 2.77335e-07 -0.000999958)
(-1.03573e-07 2.23481e-07 -0.00099979)
(-9.32131e-08 2.22382e-07 -0.000999822)
(-7.38212e-08 2.21458e-07 -0.000999849)
(-4.73203e-08 2.20814e-07 -0.000999868)
(-1.62555e-08 2.20083e-07 -0.000999879)
(-1.04536e-07 1.43576e-07 -0.000999731)
(-9.40589e-08 1.42862e-07 -0.000999763)
(-7.44696e-08 1.42274e-07 -0.00099979)
(-4.77221e-08 1.41849e-07 -0.00099981)
(-1.63917e-08 1.41341e-07 -0.000999821)
(-1.04885e-07 4.94111e-08 -0.0009997)
(-9.4345e-08 4.91648e-08 -0.000999732)
(-7.46918e-08 4.89639e-08 -0.00099976)
(-4.78859e-08 4.88122e-08 -0.00099978)
(-1.64601e-08 4.86231e-08 -0.000999791)
(-1.36694e-07 4.24851e-07 -0.000999955)
(-1.23488e-07 4.22453e-07 -0.000999996)
(-9.76684e-08 4.20607e-07 -0.00100003)
(-6.26466e-08 4.19322e-07 -0.00100006)
(-2.15486e-08 4.17903e-07 -0.00100007)
(-1.39218e-07 3.83098e-07 -0.000999825)
(-1.25383e-07 3.81124e-07 -0.000999867)
(-9.92049e-08 3.79386e-07 -0.000999903)
(-6.35934e-08 3.78134e-07 -0.000999929)
(-2.18569e-08 3.76791e-07 -0.000999943)
(-1.41393e-07 3.04368e-07 -0.000999714)
(-1.272e-07 3.02648e-07 -0.000999758)
(-1.00635e-07 3.01176e-07 -0.000999795)
(-6.44847e-08 3.00105e-07 -0.000999821)
(-2.21564e-08 2.98969e-07 -0.000999836)
(-1.42994e-07 1.95642e-07 -0.000999634)
(-1.28564e-07 1.94494e-07 -0.000999678)
(-1.01722e-07 1.93505e-07 -0.000999715)
(-6.51936e-08 1.92758e-07 -0.000999743)
(-2.2406e-08 1.91979e-07 -0.000999758)
(-1.43604e-07 6.7357e-08 -0.000999591)
(-1.29107e-07 6.69518e-08 -0.000999636)
(-1.02178e-07 6.65972e-08 -0.000999674)
(-6.55108e-08 6.63205e-08 -0.000999701)
(-2.25222e-08 6.60402e-08 -0.000999716)
(-1.85864e-07 5.78292e-07 -0.00099994)
(-1.67482e-07 5.74809e-07 -0.000999996)
(-1.32334e-07 5.71948e-07 -0.00100004)
(-8.47807e-08 5.69897e-07 -0.00100008)
(-2.91387e-08 5.67798e-07 -0.0010001)
(-1.89597e-07 5.21931e-07 -0.000999763)
(-1.70512e-07 5.18721e-07 -0.00099982)
(-1.34822e-07 5.159e-07 -0.000999869)
(-8.63891e-08 5.13807e-07 -0.000999904)
(-2.96909e-08 5.11725e-07 -0.000999923)
(-1.93067e-07 4.1489e-07 -0.000999612)
(-1.73512e-07 4.12003e-07 -0.000999671)
(-1.37217e-07 4.09528e-07 -0.000999721)
(-8.79246e-08 4.07699e-07 -0.000999757)
(-3.02173e-08 4.0596e-07 -0.000999777)
(-1.9574e-07 2.66796e-07 -0.000999501)
(-1.75859e-07 2.64824e-07 -0.000999562)
(-1.39089e-07 2.63123e-07 -0.000999614)
(-8.91311e-08 2.61855e-07 -0.000999651)
(-3.06303e-08 2.60688e-07 -0.000999671)
(-1.96876e-07 9.18671e-08 -0.000999443)
(-1.76874e-07 9.11717e-08 -0.000999505)
(-1.39925e-07 9.05591e-08 -0.000999557)
(-8.96796e-08 9.01002e-08 -0.000999595)
(-3.08217e-08 8.96855e-08 -0.000999615)
(-2.52254e-07 7.87305e-07 -0.000999919)
(-2.26646e-07 7.8198e-07 -0.000999994)
(-1.79022e-07 7.7747e-07 -0.00100006)
(-1.14707e-07 7.74173e-07 -0.0010001)
(-3.94371e-08 7.71038e-07 -0.00100013)
(-2.58082e-07 7.11285e-07 -0.000999678)
(-2.31677e-07 7.05907e-07 -0.000999756)
(-1.83121e-07 7.01212e-07 -0.000999822)
(-1.17325e-07 6.97753e-07 -0.00099987)
(-4.03248e-08 6.94628e-07 -0.000999896)
(-2.63723e-07 5.65704e-07 -0.000999472)
(-2.36717e-07 5.60811e-07 -0.000999553)
(-1.87134e-07 5.56643e-07 -0.000999621)
(-1.19884e-07 5.53584e-07 -0.000999671)
(-4.11921e-08 5.50939e-07 -0.000999698)
(-2.68179e-07 3.6394e-07 -0.000999322)
(-2.40718e-07 3.60585e-07 -0.000999405)
(-1.90299e-07 3.57712e-07 -0.000999475)
(-1.21901e-07 3.55594e-07 -0.000999526)
(-4.18781e-08 3.53784e-07 -0.000999555)
(-2.70248e-07 1.25339e-07 -0.000999242)
(-2.42527e-07 1.24164e-07 -0.000999327)
(-1.91774e-07 1.23138e-07 -0.000999398)
(-1.22887e-07 1.22372e-07 -0.00099945)
(-4.22346e-08 1.21712e-07 -0.000999479)
(-3.41702e-07 1.0717e-06 -0.000999891)
(-3.06353e-07 1.06334e-06 -0.000999993)
(-2.41864e-07 1.05623e-06 -0.00100008)
(-1.54973e-07 1.05098e-06 -0.00100014)
(-5.32812e-08 1.04625e-06 -0.00100017)
(-3.51028e-07 9.69073e-07 -0.000999563)
(-3.14633e-07 9.60162e-07 -0.000999669)
(-2.48519e-07 9.52426e-07 -0.000999758)
(-1.59171e-07 9.4679e-07 -0.000999823)
(-5.4696e-08 9.42065e-07 -0.000999858)
(-3.60314e-07 7.71372e-07 -0.000999283)
(-3.22997e-07 7.63218e-07 -0.000999393)
(-2.55178e-07 7.56256e-07 -0.000999486)
(-1.63416e-07 7.51148e-07 -0.000999554)
(-5.61371e-08 7.47019e-07 -0.000999591)
(-3.67774e-07 4.96727e-07 -0.000999077)
(-3.29721e-07 4.91046e-07 -0.000999192)
(-2.60521e-07 4.86184e-07 -0.000999288)
(-1.66868e-07 4.82579e-07 -0.000999358)
(-5.73327e-08 4.7972e-07 -0.000999397)
(-3.71453e-07 1.71188e-07 -0.000998968)
(-3.32979e-07 1.69162e-07 -0.000999085)
(-2.63174e-07 1.67407e-07 -0.000999184)
(-1.68622e-07 1.66087e-07 -0.000999255)
(-5.79484e-08 1.65058e-07 -0.000999295)
(-4.61885e-07 1.4582e-06 -0.000999855)
(-4.13219e-07 1.44504e-06 -0.000999991)
(-3.25903e-07 1.4338e-06 -0.0010001)
(-2.0866e-07 1.4254e-06 -0.00100019)
(-7.16996e-08 1.41818e-06 -0.00100023)
(-4.76859e-07 1.32011e-06 -0.000999409)
(-4.26716e-07 1.30542e-06 -0.000999552)
(-3.36722e-07 1.29271e-06 -0.000999672)
(-2.15587e-07 1.28338e-06 -0.000999759)
(-7.40776e-08 1.27597e-06 -0.000999806)
(-4.92273e-07 1.05225e-06 -0.000999026)
(-4.40619e-07 1.03861e-06 -0.000999177)
(-3.47862e-07 1.0269e-06 -0.000999304)
(-2.22783e-07 1.01823e-06 -0.000999396)
(-7.65584e-08 1.01165e-06 -0.000999447)
(-5.04909e-07 6.78628e-07 -0.000998744)
(-4.52026e-07 6.68903e-07 -0.000998902)
(-3.57006e-07 6.60584e-07 -0.000999035)
(-2.28731e-07 6.5441e-07 -0.000999131)
(-7.8617e-08 6.49894e-07 -0.000999185)
(-5.11401e-07 2.34124e-07 -0.000998595)
(-4.57914e-07 2.30576e-07 -0.000998756)
(-3.61725e-07 2.27542e-07 -0.000998893)
(-2.31764e-07 2.25297e-07 -0.000998992)
(-7.96445e-08 2.23708e-07 -0.000999047)
(-6.2218e-07 1.98304e-06 -0.000999809)
(-5.55257e-07 1.96216e-06 -0.000999988)
(-4.37428e-07 1.94412e-06 -0.00100014)
(-2.799e-07 1.93047e-06 -0.00100025)
(-9.61705e-08 1.91931e-06 -0.0010003)
(-6.465e-07 1.79828e-06 -0.000999203)
(-5.77353e-07 1.77386e-06 -0.000999394)
(-4.5525e-07 1.75275e-06 -0.000999555)
(-2.91563e-07 1.73701e-06 -0.000999671)
(-1.00245e-07 1.72513e-06 -0.000999735)
(-6.7239e-07 1.43646e-06 -0.000998679)
(-6.00785e-07 1.41334e-06 -0.000998885)
(-4.74175e-07 1.39342e-06 -0.000999058)
(-3.03948e-07 1.37857e-06 -0.000999183)
(-1.04556e-07 1.36796e-06 -0.000999253)
(-6.93986e-07 9.28319e-07 -0.000998292)
(-6.20345e-07 9.1166e-07 -0.000998509)
(-4.89893e-07 8.97387e-07 -0.000998693)
(-3.14151e-07 8.86835e-07 -0.000998826)
(-1.08068e-07 8.79527e-07 -0.000998901)
(-7.05377e-07 3.2065e-07 -0.000998086)
(-6.30722e-07 3.14558e-07 -0.00099831)
(-4.98163e-07 3.09361e-07 -0.000998499)
(-3.19483e-07 3.05554e-07 -0.000998636)
(-1.09908e-07 3.0295e-07 -0.000998714)
(-8.33989e-07 2.69431e-06 -0.00099975)
(-7.4212e-07 2.66085e-06 -0.000999984)
(-5.84173e-07 2.63147e-06 -0.00100018)
(-3.74013e-07 2.60906e-06 -0.00100032)
(-1.28625e-07 2.5915e-06 -0.0010004)
(-8.74004e-07 2.44941e-06 -0.000998929)
(-7.78587e-07 2.40841e-06 -0.000999183)
(-6.13866e-07 2.37282e-06 -0.000999397)
(-3.93724e-07 2.34595e-06 -0.000999553)
(-1.35585e-07 2.32662e-06 -0.000999639)
(-9.18053e-07 1.96308e-06 -0.000998213)
(-8.18702e-07 1.92347e-06 -0.000998492)
(-6.46488e-07 1.88924e-06 -0.000998727)
(-4.15331e-07 1.8636e-06 -0.000998899)
(-1.4318e-07 1.84601e-06 -0.000998996)
(-9.55124e-07 1.27252e-06 -0.000997678)
(-8.52352e-07 1.24398e-06 -0.000997978)
(-6.7357e-07 1.21946e-06 -0.000998231)
(-4.33032e-07 1.20124e-06 -0.000998417)
(-1.49344e-07 1.18901e-06 -0.000998522)
(-9.75073e-07 4.40334e-07 -0.000997391)
(-8.70454e-07 4.2995e-07 -0.000997702)
(-6.88126e-07 4.21048e-07 -0.000997965)
(-4.42615e-07 4.14438e-07 -0.000998159)
(-1.52725e-07 4.10016e-07 -0.000998269)
(-1.10986e-06 3.65514e-06 -0.000999682)
(-9.84139e-07 3.60074e-06 -0.000999979)
(-7.75046e-07 3.55236e-06 -0.00100023)
(-4.97501e-07 3.51529e-06 -0.00100041)
(-1.71479e-07 3.48682e-06 -0.00100052)
(-1.17666e-06 3.33583e-06 -0.000998571)
(-1.04487e-06 3.26617e-06 -0.000998903)
(-8.24624e-07 3.20543e-06 -0.000999184)
(-5.3077e-07 3.15914e-06 -0.000999391)
(-1.83423e-07 3.12669e-06 -0.000999508)
(-1.25259e-06 2.68742e-06 -0.000997589)
(-1.11454e-06 2.61892e-06 -0.000997965)
(-8.81881e-07 2.55958e-06 -0.000998285)
(-5.69576e-07 2.51452e-06 -0.000998524)
(-1.97389e-07 2.48427e-06 -0.000998663)
(-1.31651e-06 1.75067e-06 -0.000996845)
(-1.17261e-06 1.70149e-06 -0.000997257)
(-9.28797e-07 1.65918e-06 -0.000997607)
(-6.0069e-07 1.62734e-06 -0.00099787)
(-2.08397e-07 1.6065e-06 -0.000998023)
(-1.35135e-06 6.07658e-07 -0.00099644)
(-1.20433e-06 5.898e-07 -0.000996872)
(-9.54583e-07 5.74419e-07 -0.00099724)
(-6.17938e-07 5.62792e-07 -0.000997516)
(-2.14536e-07 5.55229e-07 -0.000997678)
(-1.46204e-06 4.94443e-06 -0.000999611)
(-1.29028e-06 4.8557e-06 -0.000999976)
(-1.01969e-06 4.77537e-06 -0.00100029)
(-6.59183e-07 4.71409e-06 -0.00100053)
(-2.2853e-07 4.6661e-06 -0.00100067)
(-1.57434e-06 4.54201e-06 -0.000998118)
(-1.3909e-06 4.4225e-06 -0.000998536)
(-1.1012e-06 4.31787e-06 -0.000998897)
(-7.14238e-07 4.23715e-06 -0.000999167)
(-2.48872e-07 4.18039e-06 -0.000999329)
(-1.7073e-06 3.6898e-06 -0.000996764)
(-1.51442e-06 3.56971e-06 -0.000997266)
(-1.20478e-06 3.46571e-06 -0.000997701)
(-7.87553e-07 3.38474e-06 -0.000998037)
(-2.76306e-07 3.33053e-06 -0.000998248)