/*--------------------------------*- C++ -*----------------------------------*\
| =========                 |                                                 |
| \\      /  F ield         | OpenFOAM: The Open Source CFD Toolbox           |
|  \\    /   O peration     | Version:  5.x                                   |
|   \\  /    A nd           | Web:      www.OpenFOAM.org                      |
|    \\/     M anipulation  |                                                 |
\*---------------------------------------------------------------------------*/
FoamFile
{
    version     2.0;
    format      ascii;
    class       volVectorField;
    location    "400";
    object      U;
}
// * * * * * * * * * * * * * * * * * * * * * * * * * * * * * * * * * * * * * //

dimensions      [0 1 -1 0 0 0 0];

internalField   nonuniform List<vector> 
90
(
(0.043058 0.000482335 -4.8373)
(0.0456134 0.000732993 -4.84227)
(0.0504072 -0.00125348 -4.86436)
(0.0546848 -0.00340962 -4.87179)
(0.062646 -0.0076862 -4.88929)
(0.0705677 -0.0116763 -4.90969)
(0.0791152 -0.0153402 -4.93099)
(0.0873979 -0.0188923 -4.95635)
(0.0950816 -0.0222418 -4.98385)
(0.102635 -0.0251998 -5.01438)
(0.110617 -0.0276611 -5.04745)
(0.119026 -0.0295807 -5.0835)
(0.128136 -0.0308852 -5.1224)
(0.13781 -0.0315613 -5.16434)
(0.147967 -0.0315262 -5.2094)
(0.158513 -0.030731 -5.25754)
(0.169346 -0.0291066 -5.30892)
(0.180356 -0.0265666 -5.36343)
(0.191419 -0.0230442 -5.42115)
(0.202381 -0.0184667 -5.48195)
(0.213055 -0.0127838 -5.54579)
(0.223256 -0.00596175 -5.61249)
(0.232847 0.00202079 -5.68193)
(0.241702 0.0111511 -5.75388)
(0.249575 0.0213686 -5.82807)
(0.256388 0.0325815 -5.90422)
(0.262088 0.0446482 -5.98202)
(0.266654 0.0573866 -6.06118)
(0.27021 0.0705722 -6.1414)
(0.27291 0.0839378 -6.22241)
(0.275042 0.0971836 -6.30399)
(0.27695 0.109982 -6.38596)
(0.279061 0.121991 -6.46823)
(0.281832 0.132868 -6.55077)
(0.285723 0.142283 -6.63363)
(0.291144 0.149934 -6.71695)
(0.298403 0.155557 -6.80092)
(0.307657 0.158942 -6.88578)
(0.318869 0.159933 -6.97182)
(0.331785 0.158439 -7.05931)
(0.345923 0.154436 -7.14853)
(0.360596 0.147958 -7.23966)
(0.374954 0.139098 -7.33286)
(0.388045 0.127997 -7.42818)
(0.398894 0.114834 -7.52555)
(0.406571 0.0998129 -7.62483)
(0.41026 0.083147 -7.72578)
(0.409308 0.0650427 -7.82809)
(0.403256 0.0456818 -7.93138)
(0.391849 0.0252088 -8.03527)
(0.375032 0.00372758 -8.13937)
(0.35294 -0.018691 -8.2433)
(0.325886 -0.0419901 -8.34671)
(0.294337 -0.0660968 -8.4493)
(0.25887 -0.090884 -8.55083)
(0.220142 -0.11614 -8.65109)
(0.178883 -0.141555 -8.74989)
(0.135875 -0.166729 -8.84709)
(0.0918941 -0.19121 -8.94257)
(0.0476672 -0.214547 -9.03623)
(0.00381151 -0.236345 -9.12795)
(-0.0391883 -0.256306 -9.21762)
(-0.0809851 -0.274246 -9.30512)
(-0.121356 -0.290096 -9.39028)
(-0.160178 -0.303887 -9.47293)
(-0.1974 -0.315725 -9.55292)
(-0.23301 -0.325768 -9.63009)
(-0.267 -0.334207 -9.7043)
(-0.299344 -0.341255 -9.77542)
(-0.329984 -0.347129 -9.84338)
(-0.358818 -0.352036 -9.90815)
(-0.385714 -0.35616 -9.96971)
(-0.410512 -0.359666 -10.0282)
(-0.433018 -0.362708 -10.0838)
(-0.453005 -0.365452 -10.1369)
(-0.470316 -0.368078 -10.1871)
(-0.485466 -0.370841 -10.2359)
(-0.499142 -0.373716 -10.2838)
(-0.511862 -0.376554 -10.3307)
(-0.523991 -0.379271 -10.377)
(-0.535775 -0.381824 -10.4227)
(-0.547403 -0.384166 -10.4678)
(-0.559 -0.386265 -10.5122)
(-0.57065 -0.388067 -10.556)
(-0.582406 -0.389568 -10.5993)
(-0.594307 -0.390773 -10.6413)
(-0.606489 -0.391358 -10.6805)
(-0.619352 -0.390797 -10.7181)
(-0.632892 -0.389437 -10.7642)
(-0.639706 -0.389676 -10.7976)
)
;

boundaryField
{
    inlet
    {
        type            zeroGradient;
    }
    outlet
    {
        type            zeroGradient;
    }
    repeat_boundary
    {
        type            slip;
    }
    procBoundary2to0
    {
        type            processor;
        value           nonuniform List<vector> 
90
(
(0.0322817 -0.0568426 -4.66823)
(0.0341329 -0.0604984 -4.65857)
(0.0365326 -0.0677544 -4.65673)
(0.0383936 -0.0766186 -4.65221)
(0.0401872 -0.0871601 -4.64619)
(0.041697 -0.0981268 -4.63941)
(0.0429357 -0.109553 -4.6309)
(0.0438466 -0.121667 -4.62167)
(0.044458 -0.133898 -4.61083)
(0.0449468 -0.146264 -4.59891)
(0.0453214 -0.158725 -4.58575)
(0.045625 -0.171199 -4.57147)
(0.045911 -0.183713 -4.55615)
(0.0461859 -0.196282 -4.53986)
(0.0464514 -0.208917 -4.52268)
(0.0466756 -0.221656 -4.50469)
(0.0468209 -0.234512 -4.48596)
(0.0468553 -0.247483 -4.46655)
(0.0467401 -0.260564 -4.44652)
(0.0464482 -0.273726 -4.42592)
(0.0459571 -0.286927 -4.40481)
(0.0452661 -0.300103 -4.38323)
(0.0444047 -0.313168 -4.36127)
(0.0434215 -0.326018 -4.33898)
(0.0423884 -0.338532 -4.31647)
(0.0414174 -0.350565 -4.29384)
(0.0406369 -0.361975 -4.27124)
(0.0401943 -0.372609 -4.24883)
(0.0402535 -0.382315 -4.22677)
(0.0409792 -0.39094 -4.20529)
(0.0425323 -0.398334 -4.18458)
(0.0450542 -0.404359 -4.16488)
(0.0486584 -0.40889 -4.14642)
(0.0534194 -0.411818 -4.12942)
(0.0593656 -0.413059 -4.11412)
(0.0664751 -0.412552 -4.1007)
(0.0746751 -0.410265 -4.08937)
(0.0838451 -0.406194 -4.08027)
(0.0938229 -0.40037 -4.07353)
(0.104414 -0.392852 -4.06923)
(0.1154 -0.383733 -4.06745)
(0.126554 -0.373134 -4.06819)
(0.137645 -0.361207 -4.07145)
(0.148453 -0.348131 -4.07717)
(0.158771 -0.334107 -4.08529)
(0.168409 -0.319361 -4.0957)
(0.177199 -0.304136 -4.10827)
(0.184993 -0.288687 -4.12285)
(0.191658 -0.273279 -4.13924)
(0.197077 -0.25818 -4.15724)
(0.201138 -0.243658 -4.1766)
(0.203734 -0.229968 -4.19704)
(0.204777 -0.217348 -4.21821)
(0.204222 -0.206018 -4.23973)
(0.2021 -0.196167 -4.26123)
(0.198505 -0.187928 -4.28232)
(0.193526 -0.181351 -4.30263)
(0.187218 -0.176404 -4.3218)
(0.17964 -0.172972 -4.33948)
(0.170871 -0.170869 -4.35536)
(0.161036 -0.169863 -4.36917)
(0.150296 -0.169692 -4.3807)
(0.138836 -0.17009 -4.38981)
(0.126855 -0.170812 -4.3964)
(0.114558 -0.171643 -4.40042)
(0.102147 -0.172407 -4.40185)
(0.0898162 -0.172964 -4.40071)
(0.0777476 -0.173214 -4.39705)
(0.0661101 -0.173095 -4.39091)
(0.0550556 -0.172579 -4.38237)
(0.0447172 -0.171671 -4.37151)
(0.0352063 -0.170403 -4.35841)
(0.0266116 -0.168833 -4.34316)
(0.0189935 -0.167053 -4.32584)
(0.0123832 -0.165186 -4.30654)
(0.0067849 -0.163369 -4.28529)
(0.00216989 -0.161495 -4.26214)
(-0.00149714 -0.159189 -4.23711)
(-0.00422615 -0.156121 -4.21022)
(-0.00600335 -0.152076 -4.18158)
(-0.00679925 -0.14687 -4.15134)
(-0.00657052 -0.140331 -4.11967)
(-0.00526246 -0.132284 -4.08677)
(-0.00282062 -0.122541 -4.05265)
(0.000784873 -0.11094 -4.01747)
(0.00542407 -0.0976948 -3.98237)
(0.0114681 -0.0815506 -3.94951)
(0.0192712 -0.0612855 -3.91939)
(0.0286259 -0.0365805 -3.87978)
(0.0338118 -0.0225473 -3.83475)
)
;
    }
    procBoundary2to3
    {
        type            processor;
        value           nonuniform List<vector> 
90
(
(0.0135511 -0.0275384 -4.88972)
(0.0150564 -0.0283973 -4.89484)
(0.0162085 -0.0301488 -4.8986)
(0.017074 -0.0352765 -4.89301)
(0.0237515 -0.0407584 -4.9016)
(0.0302219 -0.0458644 -4.90504)
(0.036129 -0.0504435 -4.91482)
(0.0387312 -0.0536883 -4.9151)
(0.040488 -0.0588342 -4.91463)
(0.0461388 -0.0663005 -4.92772)
(0.0495297 -0.0728714 -4.92518)
(0.0569304 -0.0804972 -4.93575)
(0.0643759 -0.0871855 -4.94222)
(0.0725443 -0.0935059 -4.94971)
(0.0813423 -0.0993659 -4.95731)
(0.0907227 -0.104793 -4.96479)
(0.100697 -0.109753 -4.97211)
(0.111176 -0.114159 -4.97898)
(0.12205 -0.117921 -4.98532)
(0.133151 -0.120972 -4.99089)
(0.144341 -0.123317 -4.99567)
(0.155543 -0.124987 -4.99943)
(0.166681 -0.125964 -5.00206)
(0.177451 -0.126196 -5.00379)
(0.187604 -0.12591 -5.00402)
(0.197345 -0.125219 -5.00349)
(0.206444 -0.124212 -5.00154)
(0.215016 -0.123093 -4.99878)
(0.223062 -0.121948 -4.99487)
(0.230659 -0.120929 -4.99011)
(0.237902 -0.120109 -4.98439)
(0.244896 -0.119552 -4.97778)
(0.251759 -0.119266 -4.97018)
(0.258604 -0.119219 -4.96151)
(0.265541 -0.119329 -4.95158)
(0.272665 -0.119475 -4.94013)
(0.280056 -0.119502 -4.92685)
(0.287775 -0.119233 -4.91138)
(0.295862 -0.118482 -4.89329)
(0.304333 -0.117062 -4.87216)
(0.313181 -0.114797 -4.84756)
(0.322377 -0.111531 -4.81909)
(0.331867 -0.107131 -4.78644)
(0.341582 -0.101489 -4.74934)
(0.351445 -0.0945311 -4.70764)
(0.361375 -0.086219 -4.66128)
(0.371302 -0.0765577 -4.61031)
(0.381165 -0.0656006 -4.55488)
(0.390916 -0.0534573 -4.49522)
(0.40051 -0.040294 -4.43168)
(0.409898 -0.026337 -4.36467)
(0.419015 -0.0118584 -4.29464)
(0.427776 0.00283501 -4.22223)
(0.43606 0.017366 -4.14805)
(0.443689 0.0312637 -4.07269)
(0.450435 0.044023 -3.99623)
(0.456261 0.0553005 -3.92027)
(0.461112 0.0649782 -3.84528)
(0.464969 0.0731011 -3.772)
(0.467802 0.0798172 -3.70101)
(0.469564 0.0852999 -3.63279)
(0.470218 0.0897328 -3.56777)
(0.469735 0.0932987 -3.50625)
(0.468111 0.0961618 -3.44859)
(0.465388 0.098487 -3.39501)
(0.461642 0.100428 -3.34572)
(0.456981 0.10213 -3.30092)
(0.451544 0.103738 -3.26073)
(0.445507 0.105401 -3.22528)
(0.439081 0.107284 -3.19461)
(0.432522 0.10957 -3.1688)
(0.426111 0.11246 -3.1478)
(0.420204 0.116188 -3.1313)
(0.415221 0.121032 -3.11879)
(0.411663 0.127329 -3.11006)
(0.410049 0.13542 -3.10658)
(0.411094 0.145798 -3.1045)
(0.414269 0.158294 -3.10375)
(0.419009 0.172683 -3.10399)
(0.425014 0.18887 -3.10465)
(0.432084 0.206813 -3.10539)
(0.440099 0.226537 -3.10595)
(0.448979 0.248089 -3.10606)
(0.458668 0.271584 -3.10552)
(0.469142 0.297163 -3.10397)
(0.480208 0.324411 -3.10156)
(0.491737 0.354546 -3.09898)
(0.502572 0.387074 -3.0966)
(0.512627 0.423043 -3.09054)
(0.521459 0.448022 -3.07469)
)
;
    }
}


// ************************************************************************* //
