FoamFile
{version 2.0; format ascii;class Cloud<passiveParticle>; location 0;object  positions;}
349
(
( 0.00382595 0.000326949 0.00049774 ) 0 
( 0.00215889 0.000308191 0.000499247 ) 0 
( 0.00245741 0.0028758 0.000498362 ) 0 
( 0.00168102 0.00224739 0.000498281 ) 0 
( 0.00043606 0.00464246 0.000499115 ) 0 
( 0.000693226 0.00240396 0.000498629 ) 0 
( 0.00192478 0.00127898 0.000498774 ) 0 
( 0.00141204 0.00443229 0.000497974 ) 0 
( 0.00478711 0.00172753 0.000499691 ) 0 
( 0.00271068 0.00190724 0.000497354 ) 0 
( 0.000456175 0.00337404 0.000497046 ) 0 
( 0.00317892 0.00356746 0.000499299 ) 0 
( 0.000210924 0.000736093 0.00049867 ) 0 
( 0.00144346 0.00321831 0.000499087 ) 0 
( 0.00348752 0.00253663 0.000497324 ) 0 
( 0.0048921 0.00493059 0.00049753 ) 0 
( 0.00447503 0.00268673 0.000497492 ) 0 
( 0.000937839 0.0014353 0.000498183 ) 0 
( 0.00117056 0.000457471 0.000498079 ) 0 
( 0.00386387 0.00133629 0.000499675 ) 0 
( 0.002122 0.00184106 0.00130023 ) 0 
( 0.00473994 0.000728629 0.000498904 ) 0 
( 0.00417461 0.0036385 0.000498112 ) 0 
( 0.00294737 0.00454027 0.00049969 ) 0 
( 0.00383693 0.00308202 0.0012571 ) 0 
( 0.00222044 0.003847 0.000498473 ) 0 
( 0.00394519 0.00461088 0.000498756 ) 0 
( 0.00184121 0.00279961 0.00131432 ) 0 
( 0.00293805 0.000934777 0.000498262 ) 0 
( 0.0041083 0.00081776 0.00131902 ) 0 
( 0.00463006 0.00435531 0.00127198 ) 0 
( 0.00480557 0.00333275 0.00120895 ) 0 
( 0.00323391 0.00151733 0.00125481 ) 0 
( 0.000780242 0.00294948 0.00134064 ) 0 
( 0.00321039 0.000380739 0.00128247 ) 0 
( 0.00134553 0.00101571 0.00130722 ) 0 
( 0.0040656 0.00206395 0.00116035 ) 0 
( 0.00261712 0.00342936 0.00131393 ) 0 
( 0.00102128 0.00492351 0.0012742 ) 0 
( 0.00113895 0.00201775 0.00130478 ) 0 
( 0.000393327 0.00135522 0.00133123 ) 0 
( 0.00233598 0.000864634 0.00131052 ) 0 
( 0.00332377 0.00347788 0.00201764 ) 0 
( 0.000828784 0.00394355 0.00122786 ) 0 
( 0.00470622 0.000636999 0.00209864 ) 0 
( 0.00317854 0.000952393 0.00210109 ) 0 
( 0.000384557 0.00210772 0.00198822 ) 0 
( 0.00283332 1.80625e-06 0.00212543 ) 0 
( 0.00178479 0.00418742 0.00139084 ) 0 
( 0.00289695 0.0024712 0.00129876 ) 0 
( 0.00133013 0.00247511 0.0021712 ) 0 
( 0.00367305 0.00406693 0.00129019 ) 0 
( 0.00448723 0.00269523 0.00190947 ) 0 
( 0.00489159 0.00142445 0.001448 ) 0 
( 0.00275463 0.00440273 0.0014944 ) 0 
( 0.00370591 0.00497329 0.00193036 ) 0 
( 0.00172542 0.000212349 0.0017622 ) 0 
( 0.0039851 0.0015347 0.00200146 ) 0 
( 0.00140667 0.00344406 0.00194017 ) 0 
( 0.00409671 0.00282732 0.00282024 ) 0 
( 0.00165768 0.00150734 0.00211803 ) 0 
( 0.00244424 0.00283653 0.00211028 ) 0 
( 0.00352314 0.0024949 0.00207479 ) 0 
( 0.000487043 0.000497628 0.00183174 ) 0 
( 0.000441612 0.00349635 0.00218708 ) 0 
( 0.00275467 0.00185662 0.00207225 ) 0 
( 0.00429736 0.0037073 0.00198184 ) 0 
( 0.000895466 0.0043854 0.00212112 ) 0 
( 0.00381624 0.000183859 0.00205227 ) 0 
( 0.000564872 0.00269731 0.00277512 ) 0 
( 0.00122166 0.00068554 0.00248165 ) 0 
( 0.00309838 0.00436204 0.00243274 ) 0 
( 0.0017772 0.00310571 0.00280351 ) 0 
( 0.0037977 0.0037799 0.0028425 ) 0 
( 0.002248 0.000757939 0.00241558 ) 0 
( 0.00229929 0.00382285 0.002174 ) 0 
( 0.00372291 0.00190102 0.00289122 ) 0 
( 0.00472458 0.00194854 0.00253155 ) 0 
( 0.00183433 0.00470264 0.00224497 ) 0 
( 0.000930045 0.00176648 0.00275032 ) 0 
( 0.00208223 0.00215672 0.00274703 ) 0 
( 0.00297894 0.00256601 0.00290981 ) 0 
( 0.00240624 5.24068e-05 0.00328882 ) 0 
( 0.00283304 0.00355216 0.00297303 ) 0 
( 0.00180348 0.00407846 0.00302302 ) 0 
( 0.00478148 0.00394873 0.00282198 ) 0 
( 0.000951194 0.00459319 0.00310385 ) 0 
( 0.0032701 0.00040149 0.00293004 ) 0 
( 0.000586267 0.000947878 0.00320496 ) 0 
( 0.00173572 0.00128584 0.00309237 ) 0 
( 0.00280449 0.00138982 0.00295296 ) 0 
( 2.81562e-05 0.00401025 0.00293522 ) 0 
( 0.00437788 0.00484743 0.0026581 ) 0 
( 0.00244799 0.00484036 0.00302137 ) 0 
( 0.0040872 0.000962952 0.00281288 ) 0 
( 0.00454899 8.31889e-05 0.00291851 ) 0 
( 0.000935619 0.00358489 0.00305011 ) 0 
( 0.00436682 0.00155193 0.00356977 ) 0 
( 0.000206749 0.00339035 0.00370418 ) 0 
( 0.00460871 0.00347186 0.00368241 ) 0 
( 0.00421548 0.00437755 0.00352481 ) 0 
( 0.00135143 0.00241268 0.00338271 ) 0 
( 0.00334132 0.00219618 0.00376526 ) 0 
( 0.003754 0.00383591 0.00427099 ) 0 
( 0.00240285 0.000939432 0.0037493 ) 0 
( 0.0034814 0.0010912 0.00362304 ) 0 
( 0.00352758 0.00315785 0.00357312 ) 0 
( 0.00322282 0.00435374 0.0034237 ) 0 
( 0.00432332 0.00057303 0.00376268 ) 0 
( 0.000605295 0.00181672 0.00369946 ) 0 
( 0.00159491 0.00333694 0.00375897 ) 0 
( 0.000774004 0.00269679 0.00414629 ) 0 
( 0.00308072 0.000250027 0.00399877 ) 0 
( 0.00238124 0.00193661 0.00367411 ) 0 
( 9.00722e-05 0.00145344 0.00454353 ) 0 
( 0.00101464 0.0041197 0.00398157 ) 0 
( 0.0025052 0.00292733 0.00371107 ) 0 
( 0.00151892 0.00157519 0.00402353 ) 0 
( 0.00295354 0.00149974 0.00436645 ) 0 
( 0.000818849 0.000880035 0.00417344 ) 0 
( 0.00140759 0.00039897 0.0034203 ) 0 
( 0.00428308 0.00253009 0.0037543 ) 0 
( 0.000126966 0.00453297 0.00377959 ) 0 
( 0.000641927 0.0049664 0.00451655 ) 0 
( 0.00174581 0.00476059 0.0037502 ) 0 
( 0.00225014 0.00333096 0.00459291 ) 0 
( 0.00399614 0.00186476 0.00444261 ) 0 
( 0.00438461 0.00313912 0.00460974 ) 0 
( 0.00299046 0.0044686 0.00439684 ) 0 
( 0.00109972 0.00426388 0.00505744 ) 0 
( 0.00041822 0.00366394 0.00464103 ) 0 
( 0.00179489 0.00250255 0.00427184 ) 0 
( 0.00340935 0.00293577 0.00453818 ) 0 
( 0.00173211 0.000516676 0.00435764 ) 0 
( 0.00199025 0.00431947 0.00461144 ) 0 
( 0.000943212 0.00192692 0.00476117 ) 0 
( 0.00240816 0.00391707 0.00380025 ) 0 
( 0.00123666 0.00101184 0.00507013 ) 0 
( 0.0046807 0.00140344 0.00500521 ) 0 
( 0.00128774 0.00321043 0.00483249 ) 0 
( 0.000144758 0.0044897 0.00524134 ) 0 
( 0.00466813 0.000440617 0.0047441 ) 0 
( 0.00289012 0.00065376 0.00489194 ) 0 
( 0.00393543 0.00246095 0.00524105 ) 0 
( 0.00174397 0.00498365 0.00531626 ) 0 
( 0.00016939 0.000432508 0.00478873 ) 0 
( 0.0035742 0.00439078 0.00521382 ) 0 
( 0.00379747 0.000891893 0.00454969 ) 0 
( 0.00187694 0.00376101 0.00543134 ) 0 
( 0.00499459 0.00482355 0.00468763 ) 0 
( 0.00403316 0.00478344 0.00441851 ) 0 
( 0.00263949 0.00235114 0.00478318 ) 0 
( 0.00108355 7.06302e-06 0.00529114 ) 0 
( 0.00207794 0.00150466 0.00484836 ) 0 
( 0.0039471 0.000455844 0.00543559 ) 0 
( 0.000943272 0.00362686 0.00580914 ) 0 
( 1.08572e-05 0.00341509 0.00551822 ) 0 
( 0.00344624 0.00158937 0.00523071 ) 0 
( 0.00213062 0.000773994 0.00552822 ) 0 
( 0.00176928 0.00241859 0.00526628 ) 0 
( 0.00491967 0.00484373 0.0056831 ) 0 
( 0.00312806 0.000863638 0.00583983 ) 0 
( 0.00257317 0.00183628 0.00565034 ) 0 
( 0.00300742 0.00356812 0.00519799 ) 0 
( 0.00259435 0.00445581 0.00539466 ) 0 
( 0.0045154 0.00406673 0.00512939 ) 0 
( 0.00126117 0.000676765 0.00601088 ) 0 
( 0.00216477 0.00298501 0.00598839 ) 0 
( 0.00161533 0.00158582 0.00579378 ) 0 
( 0.000143063 0.00203028 0.00535637 ) 0 
( 0.000353468 0.0010698 0.00553527 ) 0 
( 0.00491495 0.00230793 0.00535449 ) 0 
( 0.000244523 0.00422215 0.00620119 ) 0 
( 0.0041748 0.00133005 0.00586323 ) 0 
( 0.00391749 0.00340215 0.00557481 ) 0 
( 0.00307416 0.00269997 0.00568754 ) 0 
( 0.000292464 0.000136265 0.00588734 ) 0 
( 0.00087387 0.00264535 0.00564382 ) 0 
( 0.000869116 0.00489181 0.0057996 ) 0 
( 0.00161484 0.00360524 0.00654735 ) 0 
( 0.00193772 0.00446147 0.00614612 ) 0 
( 0.0029611 0.00317295 0.00656102 ) 0 
( 0.00232584 0.00122224 0.00639875 ) 0 
( 0.00436231 0.00265945 0.00612227 ) 0 
( 0.00318551 0.00401585 0.0060722 ) 0 
( 0.00259823 0.000262592 0.00643732 ) 0 
( 0.000544536 0.00340326 0.00669771 ) 0 
( 0.00415288 0.00430294 0.00602853 ) 0 
( 0.00342292 0.00498402 0.00600401 ) 0 
( 0.00493329 0.000734313 0.00612328 ) 0 
( 0.00199587 0.00215642 0.00651852 ) 0 
( 0.000442251 0.000886043 0.00654357 ) 0 
( 0.000701893 0.0017801 0.00614489 ) 0 
( 0.00109301 0.00444871 0.00667795 ) 0 
( 0.00356017 5.72581e-05 0.00626545 ) 0 
( 0.00341953 0.00190217 0.00618022 ) 0 
( 7.91309e-05 0.00261935 0.00624969 ) 0 
( 0.00369444 0.00257613 0.00688256 ) 0 
( 0.00248213 0.00400184 0.00684678 ) 0 
( 0.000267457 0.00424038 0.00720003 ) 0 
( 0.00224433 0.000764933 0.00728309 ) 0 
( 0.00434993 0.00184476 0.00670122 ) 0 
( 0.00138328 0.00135265 0.00673697 ) 0 
( 0.0015637 0.000191864 0.00682987 ) 0 
( 0.00318709 0.00109417 0.00688898 ) 0 
( 0.00497234 0.00317777 0.00672038 ) 0 
( 0.00411237 0.000772518 0.00669186 ) 0 
( 0.00390559 0.00350011 0.0065688 ) 0 
( 0.0028634 0.00203356 0.00700003 ) 0 
( 0.00214101 0.0029574 0.00709547 ) 0 
( 0.00109182 0.00257064 0.00661538 ) 0 
( 0.00362989 0.00441716 0.00687125 ) 0 
( 0.00448158 0.00499457 0.00734052 ) 0 
( 0.0003598 0.00117185 0.00749795 ) 0 
( 0.00186632 0.00489516 0.00713483 ) 0 
( 0.00201023 0.00172623 0.00741951 ) 0 
( 0.00354189 0.000177094 0.00725692 ) 0 
( 0.00370996 0.00176364 0.007463 ) 0 
( 0.00283629 0.00478833 0.00735098 ) 0 
( 0.00333528 0.00360972 0.00738212 ) 0 
( 0.000340034 0.0020557 0.00703322 ) 0 
( 0.00286004 0.00136035 0.00779626 ) 0 
( 0.00105978 0.00185696 0.0076976 ) 0 
( 0.000313676 0.00247606 0.00793935 ) 0 
( 0.000271459 0.00347116 0.00783738 ) 0 
( 0.00179577 0.00255043 0.00794085 ) 0 
( 0.00241963 0.00362561 0.0077825 ) 0 
( 0.0012866 0.000805796 0.00756672 ) 0 
( 0.00286427 0.000374965 0.00796325 ) 0 
( 0.00459995 0.00405322 0.00702638 ) 0 
( 0.00155286 0.00400493 0.00746089 ) 0 
( 0.00290899 0.00274742 0.0076984 ) 0 
( 0.0011198 0.00310481 0.00745839 ) 0 
( 0.00487095 0.00116247 0.00721216 ) 0 
( 0.00398537 0.00425248 0.007789 ) 0 
( 0.000978892 0.00483942 0.00759053 ) 0 
( 0.00214863 0.00466416 0.00806533 ) 0 
( 0.00196365 0.00118017 0.00825475 ) 0 
( 0.00407183 0.000873852 0.00773842 ) 0 
( 0.00247555 0.00201744 0.00844321 ) 0 
( 0.000295972 0.00484531 0.00832917 ) 0 
( 0.000885561 7.75901e-05 0.00812147 ) 0 
( 0.000942119 0.00408736 0.00824708 ) 0 
( 0.0048284 0.00134373 0.00819365 ) 0 
( 0.00427562 0.00317118 0.00743737 ) 0 
( 0.00491471 0.00393427 0.00796751 ) 0 
( 0.0040357 0.0034875 0.00842809 ) 0 
( 0.00188859 0.000198731 0.00808246 ) 0 
( 0.00458348 0.00218197 0.00770789 ) 0 
( 0.00357568 0.00162208 0.00844296 ) 0 
( 0.00219106 0.00291314 0.00878319 ) 0 
( 0.00117189 0.00313714 0.0084557 ) 0 
( 0.000209883 0.00037316 0.00880772 ) 0 
( 0.000349945 0.00355048 0.00884616 ) 0 
( 0.00409782 0.000822113 0.00873572 ) 0 
( 0.00305218 0.00333022 0.00849768 ) 0 
( 0.00185692 0.00385507 0.00857529 ) 0 
( 0.00461856 0.00217497 0.00870662 ) 0 
( 0.00377643 0.00256117 0.0081572 ) 0 
( 0.00283833 0.00101218 0.00873223 ) 0 
( 0.00306566 0.00427655 0.00817719 ) 0 
( 0.000341741 0.00193597 0.00878014 ) 0 
( 0.00495032 0.00309713 0.00851191 ) 0 
( 0.00140697 0.0019426 0.0086323 ) 0 
( 0.000834343 0.00116335 0.0083815 ) 0 
( 0.00435928 0.00439218 0.00870514 ) 0 
( 0.00208818 0.00147818 0.00920078 ) 0 
( 0.00348077 0.00407684 0.00906343 ) 0 
( 0.0049045 0.000991546 0.00930004 ) 0 
( 0.00225924 0.00463215 0.00905794 ) 0 
( 0.00172583 0.00236755 0.00947849 ) 0 
( 0.00152392 0.00336064 0.00937747 ) 0 
( 0.00105989 0.00423313 0.00922892 ) 0 
( 0.00147431 0.000609258 0.00891284 ) 0 
( 0.00405254 0.00162925 0.00932321 ) 0 
( 0.00133447 0.00494281 0.00858157 ) 0 
( 0.000991867 0.00137636 0.00934468 ) 0 
( 0.00468386 0.0036548 0.00929698 ) 0 
( 0.000799721 0.0026815 0.00926331 ) 0 
( 0.000118199 0.00444693 0.00948565 ) 0 
( 0.00323166 0.00239313 0.00897749 ) 0 
( 0.000340863 0.00197877 0.00980552 ) 0 
( 0.0015199 0.000737019 0.009903 ) 0 
( 0.00324264 0.00310383 0.00968004 ) 0 
( 0.0031409 0.00134953 0.00962282 ) 0 
( 0.00245516 0.000623767 0.00956894 ) 0 
( 0.00453142 0.00455789 0.00969693 ) 0 
( 0.000549563 0.000565933 0.00972775 ) 0 
( 0.00184329 0.00418283 0.00984815 ) 0 
( 0.00406894 0.000744724 0.00978841 ) 0 
( 0.00408618 0.00285922 0.00920354 ) 0 
( 0.00255129 0.00370278 0.00927818 ) 0 
( 0.00337274 0.00031687 0.00921391 ) 0 
( 0.00320654 0.000466092 0.0102088 ) 0 
( 0.00461091 0.00284698 0.0100538 ) 0 
( 0.00391582 0.0038025 0.00991978 ) 0 
( 0.00224517 0.00309085 0.0100144 ) 0 
( 0.00374613 0.00230075 0.00999705 ) 0 
( 0.000784156 0.00487302 0.0100966 ) 0 
( 0.00266682 0.00221523 0.0097819 ) 0 
( 0.00304045 0.00474202 0.00967139 ) 0 
( 0.00226682 0.00139116 0.0101808 ) 0 
( 0.000636156 0.00353343 0.00980322 ) 0 
( 0.00497597 0.000652077 0.0102369 ) 0 
( 0.00119007 0.00280275 0.0102011 ) 0 
( 0.00134512 0.00177734 0.010189 ) 0 
( 0.000673409 0.00219251 0.0108012 ) 0 
( 0.00291157 0.00389724 0.0101899 ) 0 
( 0.00445076 0.00155193 0.0102369 ) 0 
( 0.00038702 0.00314367 0.0106894 ) 0 
( 0.00241691 0.00467766 0.0105714 ) 0 
( 0.00299274 0.00273427 0.0105743 ) 0 
( 0.000995849 0.000196702 0.0105608 ) 0 
( 0.0011137 0.00392154 0.0105907 ) 0 
( 0.00371052 0.00459612 0.0104916 ) 0 
( 0.00482602 0.00382345 0.0103316 ) 0 
( 0.000541 0.00124855 0.0104579 ) 0 
( 0.00226243 0.00045754 0.0105371 ) 0 
( 0.00209658 0.00229257 0.0105994 ) 0 
( 0.00175967 0.000232178 0.0113713 ) 0 
( 0.00208643 0.00375102 0.0107477 ) 0 
( 0.00229674 0.00295753 0.0113183 ) 0 
( 0.00316112 0.00171148 0.0105542 ) 0 
( 0.000209782 0.00434837 0.0107242 ) 0 
( 0.00306039 0.00357258 0.0111234 ) 0 
( 0.00407232 0.00080692 0.0107861 ) 0 
( 0.00163912 0.00453219 0.0111825 ) 0 
( 0.000661541 0.000769914 0.011327 ) 0 
( 0.00417362 0.00224713 0.0108993 ) 0 
( 0.00496985 0.00465386 0.0108691 ) 0 
( 0.00149771 0.00104616 0.0108534 ) 0 
( 0.00149322 0.00193484 0.0113117 ) 0 
( 0.00480062 0.00301199 0.0110465 ) 0 
( 0.0038778 0.00318116 0.0107015 ) 0 
( 0.00070032 0.00258912 0.0117185 ) 0 
( 0.00423628 0.00401789 0.011115 ) 0 
( 0.00239164 0.00152206 0.011164 ) 0 
( 0.000694139 8.27656e-05 0.0120523 ) 0 
( 0.00330168 0.00224371 0.0113887 ) 0 
( 0.000191739 0.00370776 0.0114915 ) 0 
( 0.00313351 0.000853072 0.0111273 ) 0 
( 0.00176048 0.00112151 0.011828 ) 0 
( 0.00350521 0.00309138 0.0118783 ) 0 
( 0.00132529 0.00311432 0.0111412 ) 0 
( 0.00472485 0.000463469 0.0115121 ) 0 
( 0.00351304 0.00139646 0.0118755 ) 0 
( 0.00442161 0.00269345 0.0119149 ) 0 
( 0.00256879 0.00435492 0.0115052 ) 0 
( 0.00444537 0.00171576 0.0117076 ) 0 
)
