FoamFile
{version 2.0; format ascii;class vectorField; location 0;object  v;}
349
(
( -3.21716e-06 -5.91074e-06 -1.93004e-05 )  
( -1.51401e-06 8.43626e-07 -9.33912e-06 )  
( 2.32563e-06 1.54609e-06 -1.77478e-05 )  
( 3.7125e-07 -1.43742e-06 -1.70043e-05 )  
( 2.93643e-06 -3.03519e-06 -1.1207e-05 )  
( -4.17456e-07 -8.31075e-07 -1.5214e-05 )  
( 1.29469e-06 1.11747e-06 -1.39937e-05 )  
( 4.08856e-08 -4.073e-06 -1.70011e-05 )  
( 5.37801e-05 -1.35538e-05 1.65138e-08 )  
( -3.99247e-09 2.77264e-06 -1.84783e-05 )  
( -3.19302e-06 -1.29097e-06 -1.75571e-05 )  
( 1.25407e-06 1.36755e-06 -1.43177e-05 )  
( -5.26812e-06 -9.79327e-07 -1.54119e-05 )  
( 2.83099e-07 -2.36345e-06 -1.32329e-05 )  
( 1.28792e-06 1.20396e-06 -1.99951e-05 )  
( -1.58593e-07 2.72875e-06 -1.65664e-05 )  
( -6.67868e-07 5.75437e-06 -1.86563e-05 )  
( -2.97066e-06 8.8049e-07 -1.73483e-05 )  
( -7.85909e-06 -3.74081e-06 -1.58709e-05 )  
( -4.39225e-06 -1.07353e-05 -1.12638e-05 )  
( 4.98971e-06 6.84873e-06 -3.38834e-05 )  
( -7.25334e-06 -1.10857e-05 -3.69388e-06 )  
( 3.03512e-07 2.21953e-07 -1.54306e-05 )  
( 8.01804e-07 6.02584e-07 -3.65189e-06 )  
( -2.85815e-07 3.12981e-06 -3.89867e-05 )  
( 1.46029e-06 -5.37067e-07 -1.49697e-05 )  
( 2.87416e-07 4.77361e-06 -1.21929e-05 )  
( 5.49002e-06 4.72868e-07 -3.30827e-05 )  
( 1.80577e-08 2.32744e-08 -1.32872e-05 )  
( -5.31154e-07 -1.15645e-05 -4.07225e-05 )  
( -2.56715e-06 -5.47027e-06 -2.10089e-05 )  
( 5.95096e-06 -1.66579e-07 -3.5527e-05 )  
( 1.04226e-05 3.87036e-06 -2.05764e-05 )  
( 7.11901e-06 -2.54112e-06 -3.46358e-05 )  
( -2.4252e-06 -6.26293e-06 -3.55047e-05 )  
( 1.18545e-06 2.2748e-06 -3.49805e-05 )  
( 9.2832e-06 -3.97978e-06 -3.96555e-05 )  
( 2.5784e-06 -6.23296e-07 -3.17199e-05 )  
( 9.45637e-06 -3.31884e-06 -2.55038e-05 )  
( 1.76204e-06 -1.95686e-06 -3.19156e-05 )  
( -6.33461e-07 2.59618e-06 -3.52418e-05 )  
( 1.02746e-05 7.4086e-06 -2.30787e-05 )  
( 5.79971e-06 -2.41272e-07 -4.38501e-05 )  
( 5.91214e-06 -1.15159e-05 -2.34587e-05 )  
( 3.65699e-07 -2.9776e-06 -6.09068e-05 )  
( -2.59057e-06 1.15589e-06 -5.44025e-05 )  
( 1.24949e-05 2.72533e-06 -4.98345e-05 )  
( -3.59236e-06 5.79614e-07 -5.55009e-05 )  
( 4.60418e-06 3.02388e-07 -4.07394e-05 )  
( 3.62934e-06 5.10581e-06 -3.60872e-05 )  
( 1.01899e-05 2.08346e-06 -5.4764e-05 )  
( -1.40829e-06 7.15935e-07 -3.15672e-05 )  
( -9.15351e-07 -1.09303e-06 -4.71456e-05 )  
( -1.20511e-05 -2.12565e-06 -4.10285e-05 )  
( 1.3854e-06 5.89816e-06 -3.52321e-05 )  
( 7.32121e-06 2.51369e-06 -4.82208e-05 )  
( -3.26592e-06 9.87998e-07 -5.362e-05 )  
( 1.95122e-06 -9.02619e-06 -6.33268e-05 )  
( 1.04382e-05 -8.44444e-07 -5.11243e-05 )  
( 2.39393e-06 6.56572e-06 -6.82706e-05 )  
( 1.30368e-05 3.45442e-06 -5.61971e-05 )  
( 7.97989e-06 4.03446e-06 -5.03718e-05 )  
( 1.42511e-06 7.17587e-06 -5.55911e-05 )  
( -5.1203e-07 3.73939e-06 -5.11221e-05 )  
( 1.10435e-05 -4.58957e-06 -5.98619e-05 )  
( 6.0246e-06 5.18477e-06 -5.60861e-05 )  
( 4.89131e-06 -4.16422e-06 -5.34148e-05 )  
( 1.36475e-05 5.01935e-06 -4.37989e-05 )  
( -3.25752e-06 -1.01186e-05 -4.76517e-05 )  
( 1.42901e-05 5.53426e-07 -5.36805e-05 )  
( 7.13426e-06 5.4001e-06 -6.88404e-05 )  
( 8.62709e-06 -1.9242e-06 -6.66863e-05 )  
( 6.0535e-06 1.33979e-06 -6.63759e-05 )  
( 9.39461e-06 2.11494e-06 -6.77927e-05 )  
( 5.94337e-06 1.1421e-06 -6.71158e-05 )  
( 5.21004e-06 1.03796e-06 -5.33897e-05 )  
( -1.47101e-06 7.38498e-07 -8.31957e-05 )  
( 1.51001e-06 -1.54201e-05 -5.01666e-05 )  
( 1.21384e-05 2.15163e-08 -5.82477e-05 )  
( 8.02876e-06 2.89956e-06 -7.16116e-05 )  
( 6.40532e-06 2.76237e-06 -6.2815e-05 )  
( 8.88521e-06 3.27013e-06 -6.75694e-05 )  
( -3.31162e-06 -2.48846e-07 -8.57065e-05 )  
( 1.09872e-05 2.82147e-06 -7.1334e-05 )  
( 1.1388e-05 1.6295e-06 -7.54033e-05 )  
( 4.95333e-06 -1.26254e-06 -6.92481e-05 )  
( 1.84866e-05 1.04551e-05 -8.34071e-05 )  
( -8.51461e-07 -2.15717e-06 -6.97513e-05 )  
( 9.51253e-07 3.30493e-06 -9.25484e-05 )  
( 7.65247e-06 1.59095e-06 -7.68399e-05 )  
( 6.36508e-06 1.74284e-06 -8.25082e-05 )  
( 4.80168e-06 1.68837e-05 -8.98511e-05 )  
( 8.92816e-06 -5.14212e-06 -6.59855e-05 )  
( 1.06273e-05 -3.66545e-06 -7.28318e-05 )  
( -5.32174e-06 -7.49614e-08 -7.12822e-05 )  
( -3.90401e-06 8.05477e-07 -7.48757e-05 )  
( 9.96521e-06 1.01156e-05 -7.9664e-05 )  
( 1.61722e-07 1.08866e-06 -9.38692e-05 )  
( 4.93473e-06 1.10127e-05 -9.98017e-05 )  
( 4.75099e-06 -2.26384e-06 -8.2822e-05 )  
( 9.1453e-06 5.94864e-07 -7.94243e-05 )  
( 1.92049e-06 5.1481e-07 -7.99149e-05 )  
( 5.94014e-06 2.07157e-06 -9.23517e-05 )  
( 7.36992e-06 1.98032e-06 -9.30053e-05 )  
( 8.41686e-06 6.7241e-07 -9.36456e-05 )  
( 2.95008e-06 2.33694e-06 -9.46672e-05 )  
( 5.84853e-06 1.57624e-06 -8.4954e-05 )  
( 1.02971e-05 -2.57588e-07 -7.69291e-05 )  
( -2.37446e-06 1.61436e-06 -9.61551e-05 )  
( 2.02292e-05 3.01264e-05 -0.000105781 )  
( 6.23035e-06 4.43665e-06 -8.57974e-05 )  
( -3.672e-06 4.94573e-06 -0.000101326 )  
( 1.99697e-06 1.13665e-06 -0.00010129 )  
( 6.44619e-06 -9.81402e-07 -8.47346e-05 )  
( 3.47271e-06 -4.33277e-06 -0.000115927 )  
( 4.80194e-06 3.34672e-06 -9.86694e-05 )  
( 5.38858e-06 1.40808e-06 -7.89374e-05 )  
( 2.77674e-06 2.84428e-06 -9.82205e-05 )  
( 5.28049e-06 -1.08318e-06 -0.000102757 )  
( -3.74784e-08 5.06305e-07 -0.000107768 )  
( 6.91697e-06 7.41089e-06 -8.32832e-05 )  
( 2.79465e-06 9.84661e-07 -8.92701e-05 )  
( -6.1601e-07 1.25863e-05 -9.98985e-05 )  
( 2.51871e-06 -2.34061e-06 -0.000111103 )  
( 1.10331e-05 2.7493e-06 -8.58629e-05 )  
( 2.16874e-06 -5.77992e-06 -9.8903e-05 )  
( 2.58701e-06 -1.04119e-07 -0.000104274 )  
( 4.27084e-06 -7.7047e-07 -0.000102037 )  
( 1.21181e-05 4.45605e-06 -9.12211e-05 )  
( 7.24365e-06 4.00125e-06 -0.000118132 )  
( 4.59391e-06 4.03819e-06 -0.000114912 )  
( 5.98863e-06 1.32182e-06 -0.00010132 )  
( 1.57483e-06 -5.76288e-06 -0.000107854 )  
( 7.9975e-06 -1.13918e-07 -0.000103509 )  
( 9.41855e-06 3.697e-06 -0.00010543 )  
( -7.55285e-06 2.408e-07 -0.000111598 )  
( 8.67012e-06 6.06565e-07 -8.43736e-05 )  
( 3.10753e-06 -1.52468e-06 -0.000121065 )  
( -4.9219e-07 9.95166e-07 -0.000115528 )  
( -1.90209e-06 4.50563e-06 -0.000103959 )  
( 8.34775e-06 -1.56995e-06 -0.000122201 )  
( -2.94129e-06 3.47291e-06 -0.000114326 )  
( 3.35175e-06 2.91643e-06 -0.00011128 )  
( 3.38444e-06 2.49096e-06 -0.000117434 )  
( 1.22495e-05 1.27325e-06 -0.000120891 )  
( -6.22194e-06 1.92542e-06 -0.000123371 )  
( 8.3362e-06 5.28823e-07 -0.000125908 )  
( 1.9683e-06 4.69023e-06 -0.000105687 )  
( 4.97612e-06 -8.24125e-07 -0.000122776 )  
( 1.28089e-05 -9.23218e-07 -0.000106045 )  
( 1.27676e-05 1.84956e-06 -0.000105899 )  
( 6.49948e-06 -4.80546e-06 -0.000109901 )  
( 3.16646e-06 7.26369e-06 -0.000124831 )  
( 4.94738e-07 -2.92174e-06 -0.000112689 )  
( -9.6726e-07 3.78823e-06 -0.00011991 )  
( 3.92616e-06 -2.75138e-06 -0.000135919 )  
( 6.78214e-06 -8.30158e-07 -0.000129874 )  
( 2.98424e-06 -3.65147e-07 -0.000112146 )  
( 2.24534e-07 1.82561e-06 -0.000125203 )  
( 4.88621e-06 -1.54023e-06 -0.000122203 )  
( 9.38821e-06 1.08437e-07 -0.00012453 )  
( -6.45886e-07 -2.162e-06 -0.000121374 )  
( 3.07005e-06 -1.15581e-06 -0.000131158 )  
( 5.11195e-06 -1.37245e-07 -0.000118634 )  
( 1.05944e-05 1.68132e-06 -0.000121383 )  
( 9.75016e-06 1.81165e-06 -0.000118272 )  
( 2.37129e-06 2.01691e-06 -0.000131585 )  
( 1.51812e-06 -3.05929e-06 -0.000134308 )  
( 6.92223e-07 9.08295e-07 -0.00013199 )  
( 3.7333e-06 -5.12906e-07 -0.000133584 )  
( 4.41946e-06 1.33882e-06 -0.000133718 )  
( 6.76936e-07 7.48314e-07 -0.000116476 )  
( 6.25392e-06 -2.38715e-06 -0.000136229 )  
( 4.18685e-06 3.34196e-06 -0.000124116 )  
( 6.83598e-06 3.46854e-06 -0.00013222 )  
( 2.07113e-06 1.70308e-07 -0.000129918 )  
( 2.39956e-06 1.86855e-06 -0.000134789 )  
( 1.33416e-06 -1.50826e-06 -0.00013758 )  
( 6.248e-06 6.50517e-07 -0.000128488 )  
( 6.29707e-06 -2.90768e-06 -0.000141948 )  
( 7.81192e-06 2.30298e-07 -0.000132727 )  
( 3.9152e-06 4.02568e-07 -0.000142389 )  
( -1.92419e-06 2.72345e-06 -0.000135314 )  
( 9.50881e-06 7.88928e-06 -0.000135509 )  
( 1.22925e-05 2.6664e-06 -0.000133405 )  
( -1.43124e-06 1.75669e-07 -0.000136303 )  
( 3.61079e-06 -4.24468e-06 -0.000141281 )  
( 5.94908e-06 6.0456e-07 -0.000130301 )  
( 1.07376e-05 3.71388e-07 -0.000126227 )  
( -4.56378e-07 -6.91871e-07 -0.000135264 )  
( 1.51989e-07 2.0664e-07 -0.000137955 )  
( 1.51138e-06 -6.85174e-07 -0.000144214 )  
( 3.03826e-06 -4.43456e-08 -0.000140864 )  
( 5.392e-06 -3.50207e-06 -0.000143583 )  
( -2.35764e-06 -1.09363e-06 -0.000137225 )  
( 2.09158e-06 1.87068e-06 -0.000137779 )  
( -1.62358e-06 -2.84456e-06 -0.000141283 )  
( 1.9173e-06 4.30616e-06 -0.000144593 )  
( 7.90524e-06 -1.14202e-06 -0.00014266 )  
( 6.09392e-06 -2.66537e-06 -0.00014307 )  
( 1.20922e-06 7.70239e-07 -0.000144769 )  
( 5.16005e-06 7.29566e-06 -0.000138007 )  
( 1.17701e-06 1.31043e-06 -0.000138406 )  
( 1.67335e-06 9.14407e-07 -0.000137905 )  
( 1.75719e-06 2.09892e-06 -0.000151735 )  
( 6.7525e-06 2.4828e-06 -0.000140853 )  
( -7.74125e-07 1.44532e-06 -0.000149086 )  
( 2.88744e-06 1.81845e-06 -0.000141898 )  
( 7.0403e-07 1.96488e-06 -0.000146124 )  
( 1.67099e-06 -1.42935e-06 -0.000143602 )  
( -1.19655e-07 -1.6642e-06 -0.000141029 )  
( 8.36666e-06 5.14844e-07 -0.000134395 )  
( 1.1912e-05 -7.06029e-07 -0.000135769 )  
( 1.04474e-06 -2.43905e-06 -0.000149431 )  
( 5.6499e-06 -2.9008e-06 -0.000142971 )  
( 2.11825e-06 9.8496e-07 -0.000145643 )  
( -1.34369e-06 1.63745e-06 -0.000146625 )  
( 1.82795e-07 4.51039e-06 -0.00015071 )  
( 5.91035e-06 -1.27726e-06 -0.000140628 )  
( 5.26634e-07 -9.37309e-06 -0.000150034 )  
( -2.82216e-07 -3.29102e-06 -0.000148338 )  
( 1.91869e-06 1.28182e-06 -0.00015202 )  
( 6.77219e-07 -1.64928e-06 -0.000149595 )  
( -3.39275e-07 -3.97059e-06 -0.000152167 )  
( 4.11473e-06 -3.70401e-06 -0.000146684 )  
( 3.5554e-06 -3.25846e-07 -0.000147718 )  
( 5.65577e-06 -3.86768e-07 -0.000147335 )  
( 6.57732e-07 -5.22654e-07 -0.000143881 )  
( 2.92571e-07 -1.13241e-06 -0.000153418 )  
( 1.27558e-06 2.88865e-07 -0.000140241 )  
( 4.31859e-06 -3.71744e-06 -0.000147806 )  
( 3.95749e-06 2.40675e-06 -0.000149139 )  
( 3.32301e-06 -2.99038e-06 -0.00014546 )  
( -3.63123e-06 4.17566e-06 -0.000146253 )  
( 7.22049e-06 4.7096e-06 -0.000140308 )  
( 5.64434e-06 -2.84747e-06 -0.000147376 )  
( 3.74789e-06 -2.44962e-06 -0.000145978 )  
( -5.46402e-07 2.74549e-06 -0.00015225 )  
( -5.72242e-06 4.52703e-06 -0.000154206 )  
( 1.46254e-06 4.74779e-07 -0.000150394 )  
( 6.86284e-06 -1.75977e-06 -0.000147478 )  
( -3.07841e-06 -3.4339e-06 -0.000149833 )  
( 5.60057e-06 -3.21171e-06 -0.000149419 )  
( 8.1038e-07 1.61945e-07 -0.000148737 )  
( 2.18011e-06 3.7851e-06 -0.000146367 )  
( 8.21078e-06 4.73203e-06 -0.000148904 )  
( 4.91667e-06 5.21548e-06 -0.000145865 )  
( 1.09698e-06 1.37267e-06 -0.000148521 )  
( 2.47959e-06 2.51449e-06 -0.000149419 )  
( -6.72399e-08 2.25788e-06 -0.000153294 )  
( 5.55847e-06 1.24116e-07 -0.000148885 )  
( 5.13102e-06 -2.34112e-06 -0.000148331 )  
( -1.22016e-06 -8.19762e-06 -0.000155817 )  
( 5.32725e-06 -7.53874e-06 -0.000148279 )  
( -1.54182e-06 7.01066e-07 -0.000160675 )  
( 5.57253e-06 2.09226e-06 -0.000148618 )  
( 4.80147e-06 -1.4409e-06 -0.000149786 )  
( -4.77146e-07 3.27144e-06 -0.000153604 )  
( 2.88194e-06 5.99231e-06 -0.000151239 )  
( -5.32545e-06 1.28843e-06 -0.00015622 )  
( 5.26777e-06 1.44125e-06 -0.000144441 )  
( 2.16801e-06 -2.68284e-06 -0.000152979 )  
( 2.91993e-06 3.8471e-06 -0.000147936 )  
( 9.98894e-06 -6.09925e-06 -0.000151711 )  
( -6.15041e-08 8.52481e-08 -0.0001496 )  
( 7.30428e-06 1.11649e-07 -0.000139556 )  
( 7.11273e-06 -9.79752e-07 -0.000150843 )  
( 1.0771e-05 -1.38284e-05 -0.000154781 )  
( -3.86867e-06 4.05208e-06 -0.000161742 )  
( -1.47587e-06 1.2914e-06 -0.000146975 )  
( 3.32419e-06 -5.87867e-06 -0.000150134 )  
( 5.42525e-06 -7.02594e-07 -0.000149917 )  
( 3.36653e-06 -3.28306e-06 -0.000156278 )  
( 5.17482e-06 5.14931e-06 -0.000151085 )  
( -8.81549e-06 1.70275e-06 -0.000155861 )  
( 6.15441e-06 -1.28422e-06 -0.000152969 )  
( -8.5939e-07 -9.61678e-07 -0.000150428 )  
( 2.04668e-06 -3.81613e-06 -0.000140175 )  
( 5.91233e-06 -6.98657e-06 -0.000148722 )  
( 8.20373e-06 -1.16394e-06 -0.000156669 )  
( -3.73331e-07 1.10115e-06 -0.000150927 )  
( 3.05136e-06 -8.34262e-06 -0.000144824 )  
( -7.10482e-06 -9.81027e-11 -0.000149657 )  
( 1.53393e-06 2.06153e-06 -0.000146061 )  
( -8.81385e-06 -2.22683e-06 -0.000158391 )  
( -2.83912e-06 3.26837e-06 -0.000152334 )  
( -4.65771e-07 -3.33251e-06 -0.000135133 )  
( 3.26004e-07 -7.20284e-06 -0.00015566 )  
( -4.81508e-07 -6.77938e-07 -0.000152096 )  
( 1.57385e-06 -7.44398e-07 -0.000164733 )  
( -1.36614e-06 -2.51443e-06 -0.000151683 )  
( 1.80482e-06 1.39052e-06 -0.000145116 )  
( 2.65211e-06 -5.4503e-06 -0.000159887 )  
( 7.29635e-06 -6.2902e-06 -0.000163137 )  
( -1.04532e-05 -3.43614e-06 -0.000151762 )  
( -5.93971e-06 -1.96983e-06 -0.000147036 )  
( 5.11106e-06 9.8435e-06 -0.000149318 )  
( -1.61227e-05 -6.04925e-06 -0.000151329 )  
( 3.58985e-07 1.45674e-05 -0.000159083 )  
( -8.5302e-07 2.74074e-06 -0.000149416 )  
( 1.88414e-06 2.50174e-06 -0.000153019 )  
( -3.14373e-07 3.0809e-06 -0.000149999 )  
( 7.39047e-06 -5.34945e-07 -0.000149541 )  
( 1.43189e-06 5.55092e-06 -0.00016499 )  
( 5.75176e-06 -3.58652e-06 -0.000153752 )  
( -7.38877e-07 -5.48908e-06 -0.000145428 )  
( 7.5467e-06 -1.16798e-06 -0.000138613 )  
( 1.90293e-05 8.75691e-06 -0.000144391 )  
( -2.03201e-05 -3.84599e-06 -0.000149181 )  
( 8.72137e-06 1.59924e-06 -0.000144135 )  
( 6.66074e-06 7.91318e-06 -0.00015802 )  
( -1.27386e-05 8.06054e-06 -0.000143112 )  
( -2.64605e-05 1.41313e-05 -0.000158565 )  
( 1.21569e-05 9.76485e-06 -0.000156471 )  
( -2.05108e-05 -5.23905e-06 -0.000156428 )  
( -7.60324e-06 -1.86576e-06 -0.000128352 )  
( 2.49101e-06 -1.62648e-05 -0.000153766 )  
( 6.27489e-06 3.90562e-06 -0.000152454 )  
( -1.87675e-06 3.18281e-06 -0.000147435 )  
( 8.22235e-06 7.41956e-07 -0.000143872 )  
( -1.29774e-06 1.11714e-05 -0.000145706 )  
( -3.69105e-06 1.16891e-05 -0.000148082 )  
( -5.66158e-06 -4.7981e-06 -0.000158151 )  
( 2.12636e-05 -1.86814e-06 -0.000161257 )  
( -1.05682e-06 1.42122e-05 -0.000137748 )  
( 5.28134e-06 -2.16453e-05 -0.000164722 )  
( 4.42821e-06 2.05259e-05 -0.000159401 )  
( -1.48924e-05 -3.37988e-05 -0.000167036 )  
( -2.77082e-05 -8.2344e-06 -0.000141962 )  
( 2.12258e-05 -3.29632e-06 -0.0001402 )  
( -8.25946e-07 2.23415e-06 -0.000139368 )  
( 1.4111e-05 1.60849e-06 -0.000139916 )  
( -2.62116e-05 -4.13483e-06 -0.000159439 )  
( -1.57669e-05 -4.72578e-06 -0.000144515 )  
( -9.85355e-07 6.279e-05 -0.000148365 )  
( -4.10845e-05 8.03521e-07 -0.000141347 )  
( 7.70084e-06 -4.71216e-06 -0.00015445 )  
( 2.04803e-05 -6.68661e-07 -0.00014773 )  
( -5.04562e-05 -9.63939e-06 -0.000145613 )  
( 9.8349e-06 2.78151e-06 -0.00015306 )  
( -1.33137e-08 -1.0157e-05 -0.000166169 )  
( 3.86297e-05 2.93873e-06 -0.000136398 )  
( -3.98366e-05 -2.09098e-05 -0.000129068 )  
( 4.43473e-06 1.3704e-05 -0.000164058 )  
( 6.76548e-05 6.39622e-06 -0.000148157 )  
( 5.44981e-05 -1.9789e-05 -0.000197594 )  
( -2.61946e-05 8.9145e-07 -0.000153069 )  
( 1.14235e-05 3.62416e-05 -0.000152555 )  
( 3.00319e-05 1.36225e-05 -0.000195434 )  
)
