FoamFile
{version 2.0; format ascii;class vectorField; location 0;object  v;}
353
(
( 1.67897e-07 3.11965e-06 -4.12741e-07 )  
( 3.80407e-06 6.07515e-06 -1.66413e-07 )  
( 2.46179e-06 1.8355e-06 6.34502e-07 )  
( 1.55387e-08 4.33087e-06 -7.24368e-07 )  
( 1.23246e-06 2.52187e-06 1.34068e-06 )  
( 3.97275e-06 5.99853e-06 -1.0355e-06 )  
( 3.98219e-07 2.92487e-06 1.40755e-07 )  
( 1.80126e-06 2.80276e-06 8.82767e-07 )  
( 4.85748e-06 7.08053e-06 1.23105e-08 )  
( 2.87624e-06 1.97902e-06 -3.87089e-07 )  
( 1.12734e-07 2.68138e-06 1.37859e-07 )  
( 2.86933e-06 2.60505e-06 1.03651e-06 )  
( 4.86575e-06 1.06456e-05 -1.50374e-06 )  
( 1.44947e-06 2.7686e-06 -5.84225e-07 )  
( -3.30366e-05 -1.0775e-05 3.79758e-13 )  
( -5.62916e-06 5.01964e-06 -3.73576e-07 )  
( 4.60137e-06 2.04856e-06 -1.55248e-06 )  
( 6.98283e-05 -6.8954e-05 -1.39834e-06 )  
( 3.15983e-06 2.11898e-06 8.6458e-09 )  
( 1.84608e-06 4.37044e-06 1.98314e-06 )  
( 3.7661e-06 3.59891e-06 7.47097e-07 )  
( 1.9583e-06 3.63777e-06 -1.55462e-06 )  
( 5.09244e-06 5.69637e-06 -1.56442e-06 )  
( 2.97141e-06 1.89883e-06 2.3079e-07 )  
( 8.91806e-07 2.60305e-06 -1.08154e-06 )  
( 2.55157e-06 3.51207e-06 1.53514e-06 )  
( -1.35202e-07 4.32987e-06 6.84299e-07 )  
( 5.10531e-06 9.34552e-06 1.54272e-06 )  
( 3.80733e-06 7.11329e-06 1.94223e-06 )  
( 4.91014e-06 6.33529e-06 7.24343e-07 )  
( 4.55232e-06 9.01091e-06 1.59848e-06 )  
( 9.32962e-06 -6.34539e-06 4.34402e-06 )  
( 3.11757e-06 6.9979e-06 -1.29184e-06 )  
( 4.81198e-06 9.25713e-07 1.35466e-06 )  
( 4.41729e-06 3.12048e-06 1.96426e-07 )  
( 4.6329e-06 4.71134e-06 1.37837e-06 )  
( 2.02917e-06 1.12349e-05 2.90831e-06 )  
( 4.18018e-06 9.89328e-06 2.10035e-07 )  
( 6.02703e-06 6.68978e-06 -3.09598e-07 )  
( 6.9659e-06 1.33686e-05 9.73758e-07 )  
( 5.98338e-06 8.95179e-06 -1.16593e-06 )  
( 6.82107e-06 9.72699e-06 2.0539e-06 )  
( 4.43655e-06 9.31558e-06 7.55715e-07 )  
( 1.0147e-05 7.39792e-06 -9.02435e-07 )  
( 5.67467e-06 6.59567e-06 1.01457e-06 )  
( 5.47778e-06 7.30558e-06 -1.31047e-06 )  
( 2.88888e-06 1.15069e-05 8.40364e-07 )  
( 3.96339e-06 1.04667e-05 -4.86563e-07 )  
( 5.88055e-06 5.21225e-06 1.1271e-06 )  
( 4.09468e-06 7.91694e-06 -2.25054e-06 )  
( 4.39837e-06 3.68829e-06 -2.47157e-06 )  
( 5.8855e-06 8.90052e-06 -1.70291e-06 )  
( 8.28111e-06 1.08029e-05 2.14411e-06 )  
( 5.22453e-06 8.68638e-06 4.58608e-07 )  
( 8.46141e-06 1.10572e-05 1.02233e-06 )  
( 6.8453e-06 9.95899e-06 -4.99559e-07 )  
( 3.83562e-06 8.41711e-06 -2.23602e-06 )  
( 3.11366e-06 9.61599e-06 -2.18365e-06 )  
( 5.96727e-06 9.75769e-06 -1.4391e-06 )  
( 5.91535e-06 1.00084e-05 2.68552e-06 )  
( -0.000288308 -0.000903607 -0.000173556 )  
( -1.37047e-06 7.3358e-06 3.84222e-06 )  
( 1.74721e-06 8.39566e-06 1.37328e-06 )  
( 5.6085e-06 4.85826e-06 1.89735e-06 )  
( 5.0416e-06 1.85518e-05 -2.8994e-06 )  
( 5.59525e-06 9.33845e-06 2.54155e-07 )  
( 8.48992e-06 7.46796e-06 2.79277e-07 )  
( 1.16278e-05 1.75422e-05 4.59004e-06 )  
( 1.70008e-06 3.11815e-06 -7.88122e-08 )  
( 5.83041e-06 8.28342e-06 -3.35717e-06 )  
( 5.18531e-06 1.19643e-05 -3.17643e-06 )  
( 4.45945e-06 6.78373e-06 1.62372e-06 )  
( 8.36326e-06 1.23053e-05 3.24603e-07 )  
( -1.30158e-07 4.33927e-06 3.75563e-06 )  
( 5.77798e-06 1.0848e-05 -1.84419e-06 )  
( 6.99784e-06 1.05093e-05 -1.63152e-06 )  
( 6.78963e-06 9.9461e-06 1.1751e-07 )  
( 7.4445e-06 1.12369e-05 9.50848e-06 )  
( 6.25451e-06 8.62647e-06 -2.21732e-06 )  
( -1.7371e-07 2.31073e-05 -5.74558e-06 )  
( 4.81121e-06 1.15088e-05 9.22081e-07 )  
( 9.9297e-07 8.21606e-06 1.66434e-06 )  
( 6.89077e-06 1.40058e-05 -1.88871e-06 )  
( 1.26985e-05 3.09087e-06 2.8683e-06 )  
( 7.61908e-06 7.87158e-06 -2.80608e-06 )  
( 5.26651e-06 4.93925e-06 -5.94863e-06 )  
( 6.64152e-06 -1.87986e-06 -3.35575e-06 )  
( 0.000535476 6.50211e-05 -0.00319011 )  
( 3.82685e-06 1.01537e-05 -2.69976e-07 )  
( 5.25417e-06 7.1455e-06 4.00644e-06 )  
( 5.99149e-06 1.17414e-05 2.52697e-06 )  
( 1.13705e-05 9.55475e-06 -3.34842e-06 )  
( 7.39417e-06 1.34978e-05 3.10238e-07 )  
( 1.34262e-05 1.46151e-05 1.91178e-06 )  
( 9.12833e-06 1.07991e-05 1.81285e-06 )  
( 3.51787e-06 1.41661e-05 -1.46566e-06 )  
( 5.05913e-06 7.8451e-06 -1.56171e-06 )  
( 1.15642e-05 7.95891e-06 6.89692e-06 )  
( 6.38898e-06 7.31916e-06 2.02041e-07 )  
( 7.06657e-06 6.81943e-06 -7.8765e-07 )  
( 7.88269e-06 9.34823e-06 -1.80809e-06 )  
( 1.45361e-05 1.38033e-05 7.9259e-07 )  
( 4.50964e-05 -1.33086e-05 2.20163e-05 )  
( 8.17428e-06 1.05052e-05 8.62455e-06 )  
( 1.24117e-05 8.51003e-06 5.34075e-06 )  
( 7.81962e-06 8.878e-06 4.06333e-06 )  
( 1.41262e-05 9.5899e-06 2.49618e-06 )  
( 7.06588e-06 2.21672e-06 -4.92028e-06 )  
( 1.61145e-05 8.72846e-06 -2.31528e-06 )  
( 3.88624e-06 2.79443e-06 -6.31918e-07 )  
( 1.4767e-05 6.47933e-06 -1.49741e-06 )  
( 8.88749e-06 1.89596e-06 2.31653e-06 )  
( 1.1979e-05 1.68326e-06 3.13203e-06 )  
( 7.93743e-06 4.3092e-06 -1.08587e-06 )  
( 1.01995e-05 3.15103e-06 -4.78818e-07 )  
( 7.51732e-06 1.30901e-05 8.62343e-06 )  
( 3.89304e-05 6.80965e-06 2.15476e-05 )  
( 1.1245e-05 1.29119e-05 -1.65321e-06 )  
( 5.46352e-06 -3.87086e-06 2.68623e-06 )  
( 3.52714e-06 4.39861e-06 -2.15518e-06 )  
( 1.93898e-05 8.82353e-06 6.19024e-06 )  
( 9.13256e-06 8.16028e-06 -2.6714e-06 )  
( 1.50574e-05 1.05017e-05 2.59901e-06 )  
( 5.4107e-06 9.94415e-06 -6.18862e-06 )  
( 8.34488e-06 1.19037e-05 1.44853e-06 )  
( 9.80944e-06 6.96947e-06 7.59985e-06 )  
( 8.70348e-06 4.32331e-06 -7.70379e-06 )  
( 1.69172e-05 7.52206e-06 -1.23641e-06 )  
( 1.12813e-05 1.18328e-05 -2.49014e-06 )  
( 1.54237e-05 6.52266e-06 2.86383e-06 )  
( 6.82728e-06 7.45748e-06 -8.55259e-06 )  
( 1.77183e-05 8.22134e-06 7.93862e-06 )  
( 8.78427e-06 1.00641e-05 6.73844e-06 )  
( 1.52224e-05 1.15707e-05 6.02231e-06 )  
( 9.19166e-06 1.92231e-06 -3.79907e-06 )  
( 7.80994e-06 7.84453e-08 4.23849e-07 )  
( 2.78183e-06 2.54195e-06 -1.7804e-06 )  
( 1.10598e-05 5.92864e-06 4.07817e-06 )  
( 6.90116e-06 6.14257e-06 4.47086e-06 )  
( 9.36635e-06 -1.9767e-06 1.20683e-06 )  
( 8.06163e-06 5.49132e-06 2.09009e-06 )  
( -8.31223e-07 5.07192e-06 -6.22453e-06 )  
( 1.59891e-05 1.32071e-05 3.40408e-06 )  
( 1.83418e-05 1.20286e-05 2.35907e-06 )  
( 1.17122e-05 2.14363e-06 -2.22232e-06 )  
( 1.13535e-05 2.98e-06 -3.8244e-07 )  
( 2.26545e-05 1.16857e-06 7.00435e-06 )  
( 1.50607e-05 4.62e-06 -9.42715e-07 )  
( 3.16435e-06 1.81445e-06 -5.72847e-07 )  
( 1.53e-05 1.31086e-05 -3.58109e-08 )  
( 9.27944e-06 3.3966e-06 2.6569e-06 )  
( 7.94412e-06 7.4987e-06 4.49601e-07 )  
( 1.27991e-05 7.99478e-06 1.67066e-06 )  
( 1.85352e-05 1.36693e-05 4.9159e-06 )  
( 9.24366e-06 2.3718e-06 5.7417e-06 )  
( 2.24512e-05 1.627e-05 1.52012e-05 )  
( 1.93526e-05 6.31685e-06 1.11506e-05 )  
( 3.46941e-05 4.61392e-06 1.48046e-06 )  
( 1.46453e-05 1.18211e-05 2.95657e-06 )  
( 3.98111e-05 7.90537e-06 5.01982e-06 )  
( 1.99204e-05 1.23036e-05 5.24039e-06 )  
( 1.47861e-05 7.70155e-06 1.85637e-06 )  
( 2.72722e-05 9.8945e-06 6.41416e-06 )  
( 1.64956e-05 1.66191e-06 5.5172e-07 )  
( 1.38191e-05 5.12693e-06 -6.46757e-06 )  
( 7.65087e-06 1.49399e-06 9.41918e-06 )  
( 1.2853e-05 7.06371e-06 -1.14611e-06 )  
( 8.62029e-06 4.52067e-06 -1.11723e-06 )  
( -1.13325e-05 4.9679e-06 -9.12995e-06 )  
( 1.54888e-05 6.84073e-07 1.21087e-05 )  
( 1.11698e-05 -2.44696e-06 5.95739e-06 )  
( 3.57925e-05 -8.05073e-06 1.50304e-05 )  
( 1.85307e-05 4.51598e-06 -2.36773e-07 )  
( 6.90487e-06 1.94532e-06 3.80199e-07 )  
( 2.61103e-05 2.39365e-06 -1.31313e-06 )  
( 2.39525e-06 1.65562e-05 1.0578e-05 )  
( 1.70999e-05 1.09187e-05 9.26169e-06 )  
( 2.02375e-05 1.31684e-05 7.05363e-06 )  
( 9.5117e-06 -9.92097e-07 6.16877e-06 )  
( 6.58951e-06 -2.35261e-06 -7.26489e-07 )  
( 8.766e-06 1.45237e-05 1.41184e-06 )  
( 1.9183e-05 4.23607e-06 -1.15509e-05 )  
( 5.89442e-06 8.06354e-06 2.08393e-05 )  
( -7.29603e-06 3.98257e-06 1.50263e-05 )  
( 1.5166e-05 2.00799e-05 9.64967e-06 )  
( 7.67565e-06 9.27712e-06 1.94077e-06 )  
( 4.21699e-05 1.02528e-05 1.24011e-05 )  
( 2.06467e-05 -1.75005e-06 -2.03031e-05 )  
( 1.56434e-05 6.6759e-06 3.49448e-08 )  
( 2.0823e-05 -1.44402e-05 2.52899e-06 )  
( 1.94486e-05 3.35652e-06 4.32034e-06 )  
( 5.05651e-06 5.21763e-06 1.01729e-05 )  
( 8.16583e-06 2.0964e-06 -5.44415e-06 )  
( 1.06625e-05 1.75054e-05 -1.60816e-06 )  
( 6.19753e-06 2.19963e-05 -4.7241e-06 )  
( 2.57423e-05 5.00209e-06 -9.2764e-06 )  
( 1.889e-06 3.50563e-05 -9.15982e-06 )  
( 1.10824e-05 1.06142e-05 3.74493e-06 )  
( 1.69362e-06 -1.43183e-06 1.09379e-05 )  
( 1.60194e-05 2.23814e-06 -1.19362e-06 )  
( 1.35218e-05 2.6065e-05 1.7767e-05 )  
( 2.26552e-05 -8.39134e-06 1.34081e-05 )  
( 9.71995e-06 -9.08221e-06 -9.17151e-06 )  
( 1.59197e-05 9.40513e-06 6.81796e-06 )  
( 1.58998e-05 2.07296e-06 -4.17519e-06 )  
( 1.61563e-05 6.3509e-06 -1.41677e-06 )  
( 1.32274e-05 7.65608e-06 1.03432e-05 )  
( 2.42298e-05 1.3234e-06 2.87933e-06 )  
( 1.40016e-05 -2.88506e-06 -1.93855e-05 )  
( 9.31185e-06 5.82611e-06 -1.4559e-06 )  
( 1.49458e-05 3.43026e-05 7.92354e-07 )  
( 1.30788e-05 7.94935e-06 5.15234e-06 )  
( 3.44572e-05 2.30077e-05 4.09117e-05 )  
( 2.01047e-05 3.00692e-05 1.86318e-05 )  
( -5.15586e-06 2.70802e-05 -1.06227e-05 )  
( 2.38826e-05 -1.00993e-05 5.50749e-06 )  
( 1.08846e-06 9.20992e-06 -6.53441e-06 )  
( 1.76878e-05 1.63105e-06 1.78797e-05 )  
( 2.88235e-05 9.94632e-06 -5.76019e-06 )  
( 2.74067e-05 -1.80648e-06 -3.11236e-06 )  
( -8.13688e-06 3.29434e-06 7.9011e-06 )  
( 1.47689e-05 -1.34476e-06 1.21107e-05 )  
( 1.3808e-05 -3.59609e-06 -1.55e-05 )  
( 2.32205e-05 -1.82339e-05 -1.36437e-05 )  
( 3.05418e-05 5.66727e-06 5.22807e-06 )  
( 1.92073e-05 5.28127e-05 3.72085e-05 )  
( 5.21479e-06 -7.21235e-06 1.3001e-05 )  
( 1.69697e-05 7.73801e-06 -4.12538e-06 )  
( -4.3107e-07 5.17041e-05 1.6322e-06 )  
( 5.78085e-06 2.48458e-05 2.66642e-05 )  
( -0.000215899 4.54157e-05 4.4111e-05 )  
( 1.0393e-05 -2.30233e-05 -6.63218e-06 )  
( 1.86594e-05 -3.7143e-06 -1.55399e-05 )  
( -0.000166622 -7.17042e-05 -5.03676e-06 )  
( 1.72245e-05 -1.54708e-05 3.54104e-06 )  
( 2.09042e-05 4.91685e-06 9.58552e-06 )  
( 3.00882e-05 1.43088e-05 -1.46304e-06 )  
( 2.58423e-05 1.31619e-05 -5.0768e-07 )  
( 9.75585e-06 -2.22228e-05 -1.08935e-05 )  
( 1.21151e-05 1.21052e-05 1.39529e-05 )  
( 5.08552e-06 3.95999e-05 5.56354e-06 )  
( 8.04852e-06 8.91255e-06 2.51818e-05 )  
( 2.37186e-05 1.93884e-06 1.26181e-05 )  
( 2.55742e-07 4.68893e-06 2.5342e-06 )  
( 3.33116e-05 8.48038e-06 -1.42807e-05 )  
( 3.97287e-05 1.9106e-05 -3.12781e-06 )  
( 4.59641e-05 2.25325e-06 7.55709e-06 )  
( 2.15237e-05 -6.74042e-06 3.78669e-06 )  
( 3.51091e-05 6.38063e-06 4.69262e-06 )  
( -0.000308291 -0.000217659 -5.1902e-05 )  
( -6.43542e-06 -5.07659e-06 1.55592e-05 )  
( 1.55749e-05 2.53693e-05 1.64543e-06 )  
( -1.37891e-05 -3.05329e-05 -1.37501e-05 )  
( 6.02438e-05 -2.97673e-05 4.27969e-06 )  
( 5.39811e-06 -1.78353e-06 -1.94807e-05 )  
( 3.36536e-05 -8.4174e-06 -1.37285e-05 )  
( 3.51281e-05 2.47182e-06 -1.66693e-05 )  
( 4.52662e-05 2.05698e-05 5.96758e-06 )  
( 0.000109331 2.46577e-05 -4.27236e-05 )  
( -6.01853e-06 6.55958e-06 2.73099e-06 )  
( 7.21922e-06 1.45049e-05 1.00453e-05 )  
( 1.13822e-05 7.96551e-06 -2.37969e-05 )  
( 1.0139e-05 -2.24077e-06 8.63815e-06 )  
( 5.51763e-05 2.54609e-05 1.25329e-05 )  
( 4.46045e-05 -1.06876e-05 7.72347e-06 )  
( 6.70752e-05 -1.75137e-05 4.00341e-05 )  
( 4.2657e-05 1.28182e-05 -1.57651e-05 )  
( 7.95367e-06 1.69782e-05 4.31832e-06 )  
( 6.09134e-05 7.69079e-05 -8.72484e-06 )  
( 8.10056e-05 -4.37116e-05 2.19594e-05 )  
( 4.57633e-06 1.8222e-05 -8.16622e-06 )  
( 2.82122e-05 -1.68989e-05 2.22953e-05 )  
( 5.18218e-05 5.57043e-05 1.98559e-05 )  
( 0.000223336 0.000184637 -0.000190515 )  
( -7.37187e-06 -3.10663e-05 -1.45345e-07 )  
( 7.97446e-05 5.79056e-05 -2.24891e-05 )  
( 0.0011151 0.000768874 -0.000798282 )  
( 0.000117611 2.2745e-05 -3.33764e-05 )  
( 1.56832e-06 -1.47374e-06 -2.79315e-06 )  
( 3.11132e-05 -3.00098e-07 -2.65446e-05 )  
( -7.84313e-06 1.16728e-05 -1.61364e-05 )  
( 5.58026e-05 7.6283e-06 2.32238e-05 )  
( 0.000217514 2.14801e-05 -4.63428e-05 )  
( 8.80114e-05 4.28439e-05 -2.71644e-05 )  
( 7.57772e-05 -0.000352835 -0.000284198 )  
( 8.70151e-05 1.38061e-05 -4.66279e-05 )  
( 0.000103218 5.68138e-05 -7.5113e-05 )  
( 5.18635e-05 -6.84375e-06 9.87022e-06 )  
( -2.30862e-05 1.98762e-05 -3.4067e-05 )  
( -0.000517762 -0.000311855 -9.64231e-05 )  
( 4.85072e-05 5.53808e-06 1.52947e-05 )  
( 1.24365e-05 -1.1325e-05 -1.54261e-05 )  
( 6.51302e-05 -1.82875e-05 -4.3837e-05 )  
( -9.25028e-05 -0.000125535 6.89841e-06 )  
( 6.76164e-05 3.93955e-05 -3.66792e-05 )  
( 2.1697e-06 -3.80738e-05 1.51875e-05 )  
( 6.74867e-05 -2.21954e-06 2.85777e-05 )  
( 8.71419e-05 1.45295e-05 -2.42719e-06 )  
( 7.00206e-05 8.03575e-06 1.97563e-05 )  
( -0.00135164 0.000144664 -0.000349462 )  
( 0.000266336 0.000240201 -0.000265211 )  
( 1.34155e-05 -0.000146845 0.000117486 )  
( 6.3953e-05 -1.5459e-05 1.66786e-06 )  
( 7.15205e-05 7.23443e-05 -2.33987e-05 )  
( 4.18532e-05 -0.000228583 -0.000272064 )  
( 0.000125999 -5.65041e-06 4.50654e-06 )  
( 2.25719e-05 -4.36865e-05 4.17955e-05 )  
( 3.57812e-08 -0.000404699 -0.000201007 )  
( -5.31325e-05 -6.26249e-05 5.06966e-05 )  
( -9.39352e-05 -8.18758e-05 -3.66497e-05 )  
( -0.0001778 3.05313e-05 4.3887e-05 )  
( 0.000585864 -3.1646e-05 -0.000511404 )  
( -9.18679e-05 0.000161541 -0.000132936 )  
( 0.00018155 0.000101477 -0.000123469 )  
( 5.79536e-05 0.000884193 -0.000322847 )  
( -0.000628032 0.00116585 -0.000598709 )  
( 1.52566e-06 -1.54407e-05 0.000108277 )  
( 7.191e-05 3.48054e-05 -0.000105934 )  
( -3.7758e-05 0.000396346 -0.000153635 )  
( 0.000200083 7.18788e-05 -0.000175536 )  
( 3.36475e-05 1.52533e-06 5.83182e-05 )  
( -0.00118928 -0.00119252 -0.00222854 )  
( 6.30595e-05 0.000251473 -9.87035e-05 )  
( 7.3397e-05 -1.29471e-05 3.6067e-05 )  
( 8.94709e-06 0.000339268 -6.63359e-05 )  
( 0.00111179 -0.000398522 -0.000480712 )  
( 0.000120604 0.000437756 -0.000452877 )  
( 0.000136793 0.000190801 -0.000117064 )  
( 0.000529885 -8.40637e-05 -0.000126673 )  
( 0.000235866 7.78271e-05 -0.000102903 )  
( -5.805e-05 0.000173158 -0.000158554 )  
( -0.00103558 -0.000746947 -0.0010051 )  
( -2.81981e-06 -8.03156e-06 -3.60524e-05 )  
( -7.45855e-05 0.000585971 -0.000301442 )  
( 0.000294105 0.000659736 0.000188354 )  
( -0.000517625 -0.000689768 -0.0005526 )  
( 0.000630023 0.000293515 4.1379e-05 )  
( -5.56527e-06 0.000148246 -6.87706e-05 )  
( -3.1816e-05 -0.000141105 0.000129607 )  
( 5.45992e-05 0.000139296 -0.000260041 )  
( 1.32764e-05 -7.36789e-06 -5.26136e-05 )  
( 4.17537e-05 0.000730163 -0.00158448 )  
( 0.000966426 3.13117e-05 2.03439e-05 )  
( 4.02181e-05 0.00116551 -0.000813474 )  
( 6.77396e-05 0.000121136 -0.000101814 )  
( 0.000206966 -0.000337018 -0.000297362 )  
( 0.000456515 0.000188494 -0.000234 )  
( 0.000185945 0.00158702 -0.00146802 )  
( 0.000338768 -2.90485e-05 -0.000280928 )  
( -0.00106174 0.000785212 -0.00113894 )  
( 0.0010308 -0.000200291 -0.00151914 )  
( -0.000158117 -0.000900589 -0.000198787 )  
( -0.000454707 1.42268e-06 -0.000178185 )  
)
