/*--------------------------------*- C++ -*----------------------------------*\
  =========                 |
  \\      /  F ield         | OpenFOAM: The Open Source CFD Toolbox
   \\    /   O peration     | Website:  https://openfoam.org
    \\  /    A nd           | Version:  9
     \\/     M anipulation  |
\*---------------------------------------------------------------------------*/
FoamFile
{
    format      ascii;
    class       volVectorField;
    location    "0.06";
    object      U;
}
// * * * * * * * * * * * * * * * * * * * * * * * * * * * * * * * * * * * * * //

dimensions      [0 1 -1 0 0 0 0];

internalField   nonuniform List<vector> 
9000
(
(-3.17512e-11 -2.60183e-11 -0.000999997)
(-9.05523e-11 -2.66482e-11 -0.000999997)
(-1.38194e-10 -2.50771e-11 -0.000999998)
(-1.80375e-10 -2.25544e-11 -0.000999998)
(-1.91794e-10 -1.31282e-11 -0.000999998)
(-1.7588e-10 -1.81488e-11 -0.000999999)
(-1.61007e-10 -2.2533e-11 -0.000999999)
(-1.30994e-10 -2.44097e-11 -0.000999999)
(-8.2276e-11 -2.37544e-11 -0.000999999)
(-2.72374e-11 -2.20654e-11 -0.000999999)
(-3.2393e-11 -7.12416e-11 -0.000999997)
(-8.97541e-11 -6.87811e-11 -0.000999998)
(-1.34387e-10 -6.5761e-11 -0.000999998)
(-1.68777e-10 -6.13056e-11 -0.000999998)
(-1.87773e-10 -4.43828e-11 -0.000999998)
(-1.8567e-10 -5.261e-11 -0.000999999)
(-1.67631e-10 -6.52074e-11 -0.000999999)
(-1.32494e-10 -6.87909e-11 -0.000999999)
(-8.01223e-11 -6.61382e-11 -0.000999999)
(-2.5628e-11 -6.32789e-11 -0.001)
(-2.9203e-11 -1.02e-10 -0.000999998)
(-8.51129e-11 -9.68758e-11 -0.000999998)
(-1.31017e-10 -9.71608e-11 -0.000999998)
(-1.59383e-10 -9.81459e-11 -0.000999998)
(-1.83511e-10 -9.39114e-11 -0.000999998)
(-1.97089e-10 -9.83431e-11 -0.000999999)
(-1.77545e-10 -1.13768e-10 -0.000999999)
(-1.32214e-10 -1.13633e-10 -0.000999999)
(-7.70633e-11 -1.07336e-10 -0.001)
(-2.45504e-11 -1.04366e-10 -0.001)
(-2.70694e-11 -1.18477e-10 -0.000999998)
(-8.47026e-11 -1.16966e-10 -0.000999998)
(-1.35659e-10 -1.2212e-10 -0.000999998)
(-1.65546e-10 -1.32321e-10 -0.000999998)
(-1.88054e-10 -1.63101e-10 -0.000999999)
(-2.05584e-10 -1.53225e-10 -0.000999999)
(-1.82946e-10 -1.66021e-10 -0.000999999)
(-1.26087e-10 -1.60238e-10 -0.001)
(-7.10803e-11 -1.48236e-10 -0.001)
(-2.28663e-11 -1.43572e-10 -0.001)
(-2.75021e-11 -1.47273e-10 -0.000999998)
(-8.85438e-11 -1.49962e-10 -0.000999998)
(-1.46352e-10 -1.55816e-10 -0.000999998)
(-2.00332e-10 -1.62828e-10 -0.000999999)
(-2.04475e-10 -1.77299e-10 -0.000999999)
(-2.00235e-10 -1.87645e-10 -0.000999999)
(-1.84681e-10 -1.87121e-10 -0.001)
(-1.14453e-10 -1.83713e-10 -0.001)
(-6.06991e-11 -1.78564e-10 -0.001)
(-2.01725e-11 -1.75921e-10 -0.001)
(-2.94953e-11 -1.80639e-10 -0.000999998)
(-9.2961e-11 -1.84025e-10 -0.000999998)
(-1.48423e-10 -1.83439e-10 -0.000999999)
(-1.86905e-10 -1.8329e-10 -0.000999999)
(-2.12875e-10 -1.75477e-10 -0.000999999)
(-2.1571e-10 -1.90968e-10 -0.001)
(-1.7909e-10 -1.76331e-10 -0.001)
(-1.17581e-10 -1.74817e-10 -0.001)
(-6.36562e-11 -1.8509e-10 -0.001)
(-2.05989e-11 -1.91142e-10 -0.001)
(-3.04999e-11 -1.71124e-10 -0.000999999)
(-9.09418e-11 -1.70871e-10 -0.000999999)
(-1.45582e-10 -1.65578e-10 -0.000999999)
(-1.92169e-10 -1.6439e-10 -0.000999999)
(-2.11817e-10 -1.68259e-10 -0.001)
(-2.0111e-10 -1.61774e-10 -0.001)
(-1.68773e-10 -1.49274e-10 -0.001)
(-1.23226e-10 -1.49824e-10 -0.001)
(-7.74273e-11 -1.61704e-10 -0.001)
(-2.66354e-11 -1.69706e-10 -0.001)
(-2.886e-11 -1.2616e-10 -0.000999999)
(-8.70207e-11 -1.23423e-10 -0.000999999)
(-1.41922e-10 -1.20032e-10 -0.000999999)
(-1.89559e-10 -1.17588e-10 -0.001)
(-2.10227e-10 -1.13441e-10 -0.001)
(-1.965e-10 -1.13957e-10 -0.001)
(-1.67118e-10 -1.10301e-10 -0.001)
(-1.30012e-10 -1.14493e-10 -0.001)
(-8.39465e-11 -1.20716e-10 -0.001)
(-2.89907e-11 -1.24969e-10 -0.001)
(-2.74684e-11 -7.43074e-11 -0.000999999)
(-8.45054e-11 -7.22136e-11 -0.000999999)
(-1.39718e-10 -7.08267e-11 -0.000999999)
(-1.85553e-10 -6.94491e-11 -0.001)
(-2.08121e-10 -6.49805e-11 -0.001)
(-1.97923e-10 -6.538e-11 -0.001)
(-1.69281e-10 -6.68754e-11 -0.001)
(-1.33641e-10 -6.9481e-11 -0.001)
(-8.81879e-11 -7.36386e-11 -0.001)
(-3.11526e-11 -7.85675e-11 -0.001)
(-2.65467e-11 -2.4194e-11 -0.000999999)
(-8.31933e-11 -2.33754e-11 -0.000999999)
(-1.38855e-10 -2.31028e-11 -0.000999999)
(-1.83324e-10 -2.2797e-11 -0.001)
(-2.05719e-10 -2.12453e-11 -0.001)
(-1.97933e-10 -2.0816e-11 -0.001)
(-1.70804e-10 -2.1695e-11 -0.001)
(-1.36466e-10 -2.27349e-11 -0.001)
(-9.30037e-11 -2.48143e-11 -0.001)
(-3.40203e-11 -2.76865e-11 -0.001)
(-8.47613e-11 -6.91267e-11 -0.000999997)
(-2.43793e-10 -6.78193e-11 -0.000999997)
(-3.72649e-10 -6.49026e-11 -0.000999997)
(-4.72571e-10 -5.95183e-11 -0.000999998)
(-5.19233e-10 -4.29676e-11 -0.000999998)
(-5.09895e-10 -5.19149e-11 -0.000999998)
(-4.68321e-10 -6.68799e-11 -0.000999999)
(-3.74342e-10 -6.94663e-11 -0.000999999)
(-2.31412e-10 -6.55004e-11 -0.000999999)
(-7.57835e-11 -6.16622e-11 -0.000999999)
(-8.3485e-11 -1.93554e-10 -0.000999997)
(-2.39904e-10 -1.87827e-10 -0.000999997)
(-3.65041e-10 -1.85366e-10 -0.000999998)
(-4.51525e-10 -1.82514e-10 -0.000999998)
(-5.12626e-10 -1.66041e-10 -0.000999998)
(-5.34832e-10 -1.78615e-10 -0.000999999)
(-4.8683e-10 -2.06718e-10 -0.000999999)
(-3.73679e-10 -2.05054e-10 -0.000999999)
(-2.24113e-10 -1.93196e-10 -0.000999999)
(-7.21761e-11 -1.88075e-10 -0.001)
(-7.88355e-11 -2.8865e-10 -0.000999997)
(-2.35708e-10 -2.85514e-10 -0.000999997)
(-3.68062e-10 -2.9534e-10 -0.000999998)
(-4.54208e-10 -3.14004e-10 -0.000999998)
(-5.16381e-10 -3.42733e-10 -0.000999998)
(-5.51584e-10 -3.40398e-10 -0.000999999)
(-4.95696e-10 -3.56458e-10 -0.000999999)
(-3.61574e-10 -3.39594e-10 -0.000999999)
(-2.15237e-10 -3.21607e-10 -0.001)
(-7.11539e-11 -3.20089e-10 -0.001)
(-7.98463e-11 -3.56251e-10 -0.000999998)
(-2.46065e-10 -3.67548e-10 -0.000999998)
(-3.93535e-10 -3.87303e-10 -0.000999998)
(-4.9896e-10 -4.30309e-10 -0.000999998)
(-5.39006e-10 -5.49037e-10 -0.000999999)
(-5.48571e-10 -4.791e-10 -0.000999999)
(-4.86064e-10 -4.8365e-10 -0.000999999)
(-3.38894e-10 -4.59789e-10 -0.001)
(-2.0526e-10 -4.38695e-10 -0.001)
(-7.12705e-11 -4.3759e-10 -0.001)
(-8.95638e-11 -4.33098e-10 -0.000999998)
(-2.66153e-10 -4.46076e-10 -0.000999998)
(-4.30791e-10 -4.58902e-10 -0.000999998)
(-6.15977e-10 -4.76688e-10 -0.000999999)
(-5.65196e-10 -4.98723e-10 -0.000999999)
(-4.86004e-10 -5.61103e-10 -0.001)
(-4.76265e-10 -5.20831e-10 -0.001)
(-3.16651e-10 -5.11496e-10 -0.001)
(-1.93869e-10 -5.08876e-10 -0.001)
(-7.08687e-11 -5.08591e-10 -0.001)
(-9.20799e-11 -4.98818e-10 -0.000999998)
(-2.7109e-10 -4.98244e-10 -0.000999998)
(-4.24186e-10 -4.92535e-10 -0.000999999)
(-5.38853e-10 -4.81408e-10 -0.000999999)
(-6.23428e-10 -4.18414e-10 -0.000999999)
(-5.70748e-10 -5.02561e-10 -0.001)
(-4.36442e-10 -4.78702e-10 -0.001)
(-3.26943e-10 -4.89383e-10 -0.001)
(-2.03312e-10 -5.15439e-10 -0.001)
(-7.18838e-11 -5.2436e-10 -0.001)
(-8.79846e-11 -4.59895e-10 -0.000999999)
(-2.58835e-10 -4.49958e-10 -0.000999999)
(-4.13915e-10 -4.34831e-10 -0.000999999)
(-5.4202e-10 -4.27142e-10 -0.000999999)
(-5.86299e-10 -4.26632e-10 -0.001)
(-5.46314e-10 -3.8257e-10 -0.001)
(-4.63161e-10 -4.04122e-10 -0.001)
(-3.53414e-10 -4.22908e-10 -0.001)
(-2.29983e-10 -4.50487e-10 -0.001)
(-8.08663e-11 -4.65354e-10 -0.001)
(-8.1178e-11 -3.35499e-10 -0.000999999)
(-2.45036e-10 -3.24614e-10 -0.000999999)
(-4.01318e-10 -3.14807e-10 -0.000999999)
(-5.30666e-10 -3.06684e-10 -0.001)
(-5.78802e-10 -2.93925e-10 -0.001)
(-5.48172e-10 -2.9659e-10 -0.001)
(-4.76826e-10 -3.04169e-10 -0.001)
(-3.7337e-10 -3.19966e-10 -0.001)
(-2.46773e-10 -3.37328e-10 -0.001)
(-8.76921e-11 -3.51466e-10 -0.001)
(-7.64047e-11 -1.98001e-10 -0.000999999)
(-2.37404e-10 -1.92329e-10 -0.000999999)
(-3.95913e-10 -1.90231e-10 -0.000999999)
(-5.21089e-10 -1.87876e-10 -0.001)
(-5.76178e-10 -1.75789e-10 -0.001)
(-5.56488e-10 -1.78404e-10 -0.001)
(-4.86525e-10 -1.86451e-10 -0.001)
(-3.86576e-10 -1.98785e-10 -0.001)
(-2.62166e-10 -2.14386e-10 -0.001)
(-9.5616e-11 -2.29465e-10 -0.001)
(-7.49827e-11 -6.4643e-11 -0.000999999)
(-2.36391e-10 -6.34576e-11 -0.000999999)
(-3.96052e-10 -6.41898e-11 -0.001)
(-5.15199e-10 -6.43618e-11 -0.001)
(-5.68199e-10 -5.92921e-11 -0.001)
(-5.57635e-10 -5.74871e-11 -0.001)
(-4.96147e-10 -6.15699e-11 -0.001)
(-4.00511e-10 -6.81007e-11 -0.001)
(-2.77352e-10 -7.62379e-11 -0.001)
(-1.02921e-10 -8.35911e-11 -0.001)
(-1.39003e-10 -1.16469e-10 -0.000999997)
(-4.09313e-10 -1.1498e-10 -0.000999997)
(-6.30996e-10 -1.14995e-10 -0.000999997)
(-7.75304e-10 -1.15228e-10 -0.000999997)
(-8.79734e-10 -1.18541e-10 -0.000999998)
(-9.33037e-10 -1.23142e-10 -0.000999998)
(-8.59144e-10 -1.33952e-10 -0.000999999)
(-6.65153e-10 -1.27256e-10 -0.000999999)
(-4.09432e-10 -1.18296e-10 -0.000999999)
(-1.35461e-10 -1.15828e-10 -0.000999999)
(-1.37553e-10 -3.42948e-10 -0.000999997)
(-4.08372e-10 -3.42789e-10 -0.000999997)
(-6.32442e-10 -3.5219e-10 -0.000999997)
(-7.80447e-10 -3.71442e-10 -0.000999998)
(-8.89437e-10 -4.06458e-10 -0.000999998)
(-9.50263e-10 -4.10581e-10 -0.000999998)
(-8.64896e-10 -4.12166e-10 -0.000999999)
(-6.50708e-10 -3.86697e-10 -0.000999999)
(-3.98943e-10 -3.65882e-10 -0.000999999)
(-1.33456e-10 -3.64949e-10 -0.001)
(-1.38468e-10 -5.40598e-10 -0.000999997)
(-4.18668e-10 -5.52363e-10 -0.000999997)
(-6.6087e-10 -5.80148e-10 -0.000999997)
(-8.31199e-10 -6.30483e-10 -0.000999998)
(-9.20701e-10 -7.1257e-10 -0.000999998)
(-9.40579e-10 -6.94202e-10 -0.000999999)
(-8.36918e-10 -6.67495e-10 -0.000999999)
(-6.20177e-10 -6.31946e-10 -0.000999999)
(-3.8917e-10 -6.1438e-10 -0.001)
(-1.35467e-10 -6.21213e-10 -0.001)
(-1.4834e-10 -6.96183e-10 -0.000999997)
(-4.46926e-10 -7.21963e-10 -0.000999998)
(-7.10567e-10 -7.553e-10 -0.000999998)
(-9.12952e-10 -8.21596e-10 -0.000999998)
(-9.53244e-10 -9.55977e-10 -0.000999999)
(-9.05277e-10 -8.77751e-10 -0.000999999)
(-8.0272e-10 -8.39786e-10 -0.001)
(-5.97711e-10 -8.22023e-10 -0.001)
(-3.89502e-10 -8.18538e-10 -0.001)
(-1.41502e-10 -8.26646e-10 -0.001)
(-1.62939e-10 -8.07569e-10 -0.000999998)
(-4.76445e-10 -8.23791e-10 -0.000999998)
(-7.60424e-10 -8.35717e-10 -0.000999998)
(-1.03187e-09 -8.47207e-10 -0.000999999)
(-9.76842e-10 -8.63124e-10 -0.000999999)
(-8.2438e-10 -9.50354e-10 -0.001)
(-7.81192e-10 -9.06211e-10 -0.001)
(-5.98982e-10 -8.99762e-10 -0.001)
(-3.95382e-10 -9.10995e-10 -0.001)
(-1.45106e-10 -9.12758e-10 -0.001)
(-1.63034e-10 -8.49434e-10 -0.000999998)
(-4.73491e-10 -8.41409e-10 -0.000999998)
(-7.33902e-10 -8.25731e-10 -0.000999999)
(-9.40345e-10 -7.96794e-10 -0.000999999)
(-1.0564e-09 -7.13345e-10 -0.000999999)
(-9.48077e-10 -8.3018e-10 -0.001)
(-7.52086e-10 -8.45724e-10 -0.001)
(-6.02547e-10 -8.67858e-10 -0.001)
(-4.04281e-10 -8.93533e-10 -0.001)
(-1.45005e-10 -8.96947e-10 -0.001)
(-1.53213e-10 -7.58755e-10 -0.000999999)
(-4.50997e-10 -7.40097e-10 -0.000999999)
(-7.15729e-10 -7.18342e-10 -0.000999999)
(-9.19473e-10 -7.09045e-10 -0.000999999)
(-1.01051e-09 -6.92952e-10 -0.001)
(-9.5674e-10 -6.5036e-10 -0.001)
(-8.18601e-10 -7.08433e-10 -0.001)
(-6.46897e-10 -7.53365e-10 -0.001)
(-4.26243e-10 -7.83444e-10 -0.001)
(-1.50175e-10 -7.98312e-10 -0.001)
(-1.42827e-10 -5.60747e-10 -0.000999999)
(-4.31504e-10 -5.45284e-10 -0.000999999)
(-7.02778e-10 -5.34509e-10 -0.000999999)
(-9.14956e-10 -5.30254e-10 -0.001)
(-9.97744e-10 -5.2302e-10 -0.001)
(-9.63812e-10 -5.1491e-10 -0.001)
(-8.5508e-10 -5.41232e-10 -0.001)
(-6.77632e-10 -5.69936e-10 -0.001)
(-4.50865e-10 -5.97444e-10 -0.001)
(-1.61368e-10 -6.2021e-10 -0.001)
(-1.36652e-10 -3.39038e-10 -0.000999999)
(-4.23582e-10 -3.35061e-10 -0.000999999)
(-7.00576e-10 -3.36929e-10 -0.001)
(-9.0791e-10 -3.37196e-10 -0.001)
(-9.95096e-10 -3.1986e-10 -0.001)
(-9.74915e-10 -3.19332e-10 -0.001)
(-8.73542e-10 -3.36642e-10 -0.001)
(-7.03107e-10 -3.61923e-10 -0.001)
(-4.77666e-10 -3.88848e-10 -0.001)
(-1.73978e-10 -4.0691e-10 -0.001)
(-1.37968e-10 -1.1305e-10 -0.000999999)
(-4.27881e-10 -1.14801e-10 -0.000999999)
(-7.03449e-10 -1.18362e-10 -0.001)
(-8.96033e-10 -1.19055e-10 -0.001)
(-9.77896e-10 -1.08296e-10 -0.001)
(-9.78665e-10 -1.03809e-10 -0.001)
(-8.95893e-10 -1.13902e-10 -0.001)
(-7.2847e-10 -1.27782e-10 -0.001)
(-4.95679e-10 -1.40524e-10 -0.001)
(-1.7977e-10 -1.4638e-10 -0.001)
(-2.06823e-10 -1.80692e-10 -0.000999996)
(-6.16392e-10 -1.82876e-10 -0.000999996)
(-9.56815e-10 -1.90794e-10 -0.000999997)
(-1.16726e-09 -2.04398e-10 -0.000999997)
(-1.33044e-09 -2.3753e-10 -0.000999997)
(-1.44047e-09 -2.37003e-10 -0.000999998)
(-1.32292e-09 -2.22947e-10 -0.000999999)
(-1.01165e-09 -2.03181e-10 -0.000999999)
(-6.36555e-10 -1.93464e-10 -0.000999999)
(-2.17622e-10 -1.96261e-10 -0.001)
(-2.09067e-10 -5.45545e-10 -0.000999996)
(-6.27381e-10 -5.57188e-10 -0.000999996)
(-9.80244e-10 -5.84851e-10 -0.000999997)
(-1.21652e-09 -6.33321e-10 -0.000999997)
(-1.36579e-09 -7.19892e-10 -0.000999998)
(-1.42857e-09 -7.19429e-10 -0.000999998)
(-1.29146e-09 -6.65479e-10 -0.000999999)
(-9.83962e-10 -6.197e-10 -0.000999999)
(-6.31135e-10 -6.02291e-10 -0.001)
(-2.21176e-10 -6.09882e-10 -0.001)
(-2.17806e-10 -8.76793e-10 -0.000999997)
(-6.55872e-10 -9.02101e-10 -0.000999997)
(-1.03484e-09 -9.43893e-10 -0.000999997)
(-1.30477e-09 -1.0115e-09 -0.000999998)
(-1.41933e-09 -1.10819e-09 -0.000999998)
(-1.38885e-09 -1.09024e-09 -0.000999999)
(-1.22569e-09 -1.02882e-09 -0.000999999)
(-9.50432e-10 -9.97205e-10 -0.001)
(-6.29122e-10 -9.94539e-10 -0.001)
(-2.26746e-10 -1.00548e-09 -0.001)
(-2.32673e-10 -1.12396e-09 -0.000999997)
(-6.92789e-10 -1.15437e-09 -0.000999997)
(-1.08964e-09 -1.189e-09 -0.000999998)
(-1.38093e-09 -1.24493e-09 -0.000999998)
(-1.4447e-09 -1.3112e-09 -0.000999999)
(-1.34934e-09 -1.2706e-09 -0.000999999)
(-1.19855e-09 -1.25139e-09 -0.001)
(-9.49868e-10 -1.26591e-09 -0.001)
(-6.41466e-10 -1.28434e-09 -0.001)
(-2.34007e-10 -1.28987e-09 -0.001)
(-2.45959e-10 -1.26179e-09 -0.000999997)
(-7.18621e-10 -1.27471e-09 -0.000999998)
(-1.12525e-09 -1.28121e-09 -0.000999998)
(-1.42693e-09 -1.27711e-09 -0.000999998)
(-1.44493e-09 -1.26756e-09 -0.000999999)
(-1.32905e-09 -1.33721e-09 -0.001)
(-1.22104e-09 -1.35499e-09 -0.001)
(-9.8354e-10 -1.3752e-09 -0.001)
(-6.55855e-10 -1.39541e-09 -0.001)
(-2.34922e-10 -1.39111e-09 -0.001)
(-2.43144e-10 -1.27329e-09 -0.000999998)
(-7.09672e-10 -1.26117e-09 -0.000999998)
(-1.0919e-09 -1.23862e-09 -0.000999999)
(-1.36729e-09 -1.20777e-09 -0.000999999)
(-1.50472e-09 -1.17027e-09 -0.000999999)
(-1.43675e-09 -1.26669e-09 -0.001)
(-1.23653e-09 -1.31126e-09 -0.001)
(-9.9045e-10 -1.33716e-09 -0.001)
(-6.60159e-10 -1.35256e-09 -0.001)
(-2.32362e-10 -1.34994e-09 -0.001)
(-2.31417e-10 -1.12132e-09 -0.000999998)
(-6.81445e-10 -1.10112e-09 -0.000999999)
(-1.07172e-09 -1.0776e-09 -0.000999999)
(-1.35862e-09 -1.07742e-09 -0.000999999)
(-1.50385e-09 -1.08035e-09 -0.001)
(-1.47001e-09 -1.07578e-09 -0.001)
(-1.29154e-09 -1.12276e-09 -0.001)
(-1.02494e-09 -1.16796e-09 -0.001)
(-6.7126e-10 -1.19214e-09 -0.001)
(-2.34786e-10 -1.20475e-09 -0.001)
(-2.20797e-10 -8.42758e-10 -0.000999999)
(-6.63743e-10 -8.29783e-10 -0.000999999)
(-1.06807e-09 -8.24948e-10 -0.000999999)
(-1.37005e-09 -8.3031e-10 -0.001)
(-1.50312e-09 -8.29835e-10 -0.001)
(-1.47909e-09 -8.23545e-10 -0.001)
(-1.3287e-09 -8.51063e-10 -0.001)
(-1.05994e-09 -8.87902e-10 -0.001)
(-6.99322e-10 -9.22081e-10 -0.001)
(-2.47185e-10 -9.44248e-10 -0.001)
(-2.16861e-10 -5.23926e-10 -0.000999999)
(-6.61945e-10 -5.27325e-10 -0.000999999)
(-1.07206e-09 -5.34681e-10 -0.001)
(-1.36338e-09 -5.34198e-10 -0.001)
(-1.49696e-09 -5.08189e-10 -0.001)
(-1.49111e-09 -5.0505e-10 -0.001)
(-1.35579e-09 -5.3262e-10 -0.001)
(-1.09596e-09 -5.67732e-10 -0.001)
(-7.29365e-10 -5.97279e-10 -0.001)
(-2.58606e-10 -6.07264e-10 -0.001)
(-2.22795e-10 -1.78835e-10 -0.000999999)
(-6.72167e-10 -1.85547e-10 -0.000999999)
(-1.0727e-09 -1.90691e-10 -0.001)
(-1.34076e-09 -1.88308e-10 -0.001)
(-1.47097e-09 -1.70808e-10 -0.001)
(-1.50062e-09 -1.65269e-10 -0.001)
(-1.38877e-09 -1.8306e-10 -0.001)
(-1.12251e-09 -2.00644e-10 -0.001)
(-7.38584e-10 -2.11568e-10 -0.001)
(-2.57762e-10 -2.1082e-10 -0.001)
(-3.06275e-10 -2.75145e-10 -0.000999995)
(-9.04588e-10 -2.81759e-10 -0.000999995)
(-1.40158e-09 -2.96752e-10 -0.000999996)
(-1.72244e-09 -3.18639e-10 -0.000999996)
(-1.93708e-09 -3.60815e-10 -0.000999997)
(-2.04608e-09 -3.5675e-10 -0.000999998)
(-1.8702e-09 -3.21958e-10 -0.000999998)
(-1.45391e-09 -3.00782e-10 -0.000999999)
(-9.45035e-10 -2.98965e-10 -0.001)
(-3.32922e-10 -3.08353e-10 -0.001)
(-3.12948e-10 -8.20552e-10 -0.000999995)
(-9.2749e-10 -8.40864e-10 -0.000999996)
(-1.44126e-09 -8.78964e-10 -0.000999996)
(-1.79007e-09 -9.37007e-10 -0.000999997)
(-1.97901e-09 -1.02729e-09 -0.000999997)
(-2.01091e-09 -1.02775e-09 -0.000999998)
(-1.81749e-09 -9.4904e-10 -0.000999999)
(-1.43355e-09 -9.12027e-10 -0.000999999)
(-9.54924e-10 -9.11088e-10 -0.001)
(-3.43475e-10 -9.24243e-10 -0.001)
(-3.2552e-10 -1.3036e-09 -0.000999996)
(-9.63164e-10 -1.33263e-09 -0.000999996)
(-1.50047e-09 -1.3732e-09 -0.000999996)
(-1.87427e-09 -1.43053e-09 -0.000999997)
(-2.03169e-09 -1.50073e-09 -0.000999998)
(-1.97178e-09 -1.49906e-09 -0.000999998)
(-1.75802e-09 -1.45738e-09 -0.000999999)
(-1.41883e-09 -1.45183e-09 -0.001)
(-9.60874e-10 -1.4606e-09 -0.001)
(-3.48428e-10 -1.46238e-09 -0.001)
(-3.39415e-10 -1.64646e-09 -0.000999996)
(-9.94546e-10 -1.67625e-09 -0.000999997)
(-1.53917e-09 -1.69826e-09 -0.000999997)
(-1.91774e-09 -1.72523e-09 -0.000999998)
(-2.04772e-09 -1.74556e-09 -0.000999998)
(-1.96776e-09 -1.72707e-09 -0.000999999)
(-1.7705e-09 -1.7825e-09 -0.001)
(-1.43706e-09 -1.82033e-09 -0.001)
(-9.68451e-10 -1.83434e-09 -0.001)
(-3.4804e-10 -1.8219e-09 -0.001)
(-3.52002e-10 -1.81979e-09 -0.000999997)
(-1.01161e-09 -1.82959e-09 -0.000999997)
(-1.5493e-09 -1.82835e-09 -0.000999998)
(-1.92156e-09 -1.81613e-09 -0.000999998)
(-2.03353e-09 -1.79506e-09 -0.000999999)
(-2.0087e-09 -1.86354e-09 -0.001)
(-1.85123e-09 -1.93161e-09 -0.001)
(-1.47082e-09 -1.96287e-09 -0.001)
(-9.66096e-10 -1.97448e-09 -0.001)
(-3.39487e-10 -1.96046e-09 -0.001)
(-3.45731e-10 -1.8224e-09 -0.000999998)
(-9.99483e-10 -1.80538e-09 -0.000999998)
(-1.52549e-09 -1.78542e-09 -0.000999998)
(-1.88442e-09 -1.77632e-09 -0.000999999)
(-2.09516e-09 -1.78954e-09 -0.001)
(-2.10436e-09 -1.87431e-09 -0.001)
(-1.86981e-09 -1.89668e-09 -0.001)
(-1.48008e-09 -1.91617e-09 -0.001)
(-9.69906e-10 -1.92533e-09 -0.001)
(-3.37717e-10 -1.92073e-09 -0.001)
(-3.31673e-10 -1.60826e-09 -0.000999998)
(-9.71144e-10 -1.58873e-09 -0.000999998)
(-1.52004e-09 -1.57386e-09 -0.000999999)
(-1.92558e-09 -1.59159e-09 -0.000999999)
(-2.13148e-09 -1.63144e-09 -0.001)
(-2.11589e-09 -1.63347e-09 -0.001)
(-1.89315e-09 -1.653e-09 -0.001)
(-1.49967e-09 -1.68937e-09 -0.001)
(-9.7441e-10 -1.71025e-09 -0.001)
(-3.38453e-10 -1.71737e-09 -0.001)
(-3.23293e-10 -1.22538e-09 -0.000999999)
(-9.6204e-10 -1.21983e-09 -0.000999999)
(-1.52819e-09 -1.22498e-09 -0.000999999)
(-1.94198e-09 -1.23324e-09 -0.001)
(-2.137e-09 -1.22263e-09 -0.001)
(-2.1259e-09 -1.2255e-09 -0.001)
(-1.9257e-09 -1.25324e-09 -0.001)
(-1.53749e-09 -1.29563e-09 -0.001)
(-1.00127e-09 -1.33077e-09 -0.001)
(-3.48038e-10 -1.34446e-09 -0.001)
(-3.23896e-10 -7.77881e-10 -0.000999999)
(-9.68347e-10 -7.89367e-10 -0.000999999)
(-1.53318e-09 -7.98562e-10 -0.001)
(-1.92307e-09 -7.90165e-10 -0.001)
(-2.12355e-09 -7.52111e-10 -0.001)
(-2.14631e-09 -7.54884e-10 -0.001)
(-1.96311e-09 -7.9292e-10 -0.001)
(-1.5772e-09 -8.2948e-10 -0.001)
(-1.02578e-09 -8.52252e-10 -0.001)
(-3.54591e-10 -8.53364e-10 -0.001)
(-3.32756e-10 -2.69735e-10 -0.000999999)
(-9.79338e-10 -2.79678e-10 -0.001)
(-1.52583e-09 -2.83064e-10 -0.001)
(-1.89166e-09 -2.75311e-10 -0.001)
(-2.09751e-09 -2.55412e-10 -0.001)
(-2.16253e-09 -2.53349e-10 -0.001)
(-1.99642e-09 -2.75579e-10 -0.001)
(-1.59378e-09 -2.90277e-10 -0.001)
(-1.02482e-09 -2.951e-10 -0.001)
(-3.50059e-10 -2.90683e-10 -0.001)
(-4.49815e-10 -4.07949e-10 -0.000999994)
(-1.30136e-09 -4.14493e-10 -0.000999994)
(-1.99605e-09 -4.27978e-10 -0.000999995)
(-2.46455e-09 -4.43032e-10 -0.000999995)
(-2.74727e-09 -4.66005e-10 -0.000999996)
(-2.83259e-09 -4.62294e-10 -0.000999997)
(-2.5914e-09 -4.3749e-10 -0.000999998)
(-2.06868e-09 -4.31378e-10 -0.000999999)
(-1.37036e-09 -4.40111e-10 -0.001)
(-4.87512e-10 -4.5012e-10 -0.001)
(-4.56436e-10 -1.18554e-09 -0.000999994)
(-1.32315e-09 -1.20326e-09 -0.000999994)
(-2.02841e-09 -1.23289e-09 -0.000999995)
(-2.50731e-09 -1.27249e-09 -0.000999996)
(-2.77168e-09 -1.3285e-09 -0.000999997)
(-2.80915e-09 -1.33206e-09 -0.000999998)
(-2.5651e-09 -1.29291e-09 -0.000999999)
(-2.07512e-09 -1.28728e-09 -0.000999999)
(-1.39245e-09 -1.29858e-09 -0.001)
(-4.992e-10 -1.30411e-09 -0.001)
(-4.66077e-10 -1.84976e-09 -0.000999995)
(-1.34894e-09 -1.87153e-09 -0.000999995)
(-2.0691e-09 -1.89463e-09 -0.000999995)
(-2.56499e-09 -1.93168e-09 -0.000999996)
(-2.81222e-09 -1.99483e-09 -0.000999997)
(-2.80244e-09 -1.9932e-09 -0.000999998)
(-2.55147e-09 -2.01038e-09 -0.000999999)
(-2.07835e-09 -2.02256e-09 -0.001)
(-1.39231e-09 -2.02072e-09 -0.001)
(-4.96371e-10 -2.00082e-09 -0.001)
(-4.74673e-10 -2.33022e-09 -0.000999995)
(-1.36447e-09 -2.34977e-09 -0.000999996)
(-2.08856e-09 -2.35176e-09 -0.000999996)
(-2.60777e-09 -2.37777e-09 -0.000999997)
(-2.83348e-09 -2.44087e-09 -0.000999998)
(-2.82513e-09 -2.42719e-09 -0.000999999)
(-2.59467e-09 -2.49247e-09 -0.001)
(-2.08575e-09 -2.5138e-09 -0.001)
(-1.37476e-09 -2.49598e-09 -0.001)
(-4.83138e-10 -2.46128e-09 -0.001)
(-4.81158e-10 -2.55742e-09 -0.000999996)
(-1.36587e-09 -2.56162e-09 -0.000999996)
(-2.09685e-09 -2.55259e-09 -0.000999997)
(-2.65413e-09 -2.54665e-09 -0.000999998)
(-2.86161e-09 -2.57416e-09 -0.000999999)
(-2.85418e-09 -2.68849e-09 -0.001)
(-2.63821e-09 -2.71142e-09 -0.001)
(-2.08209e-09 -2.7052e-09 -0.001)
(-1.34468e-09 -2.69285e-09 -0.001)
(-4.66378e-10 -2.67279e-09 -0.001)
(-4.74103e-10 -2.53425e-09 -0.000999997)
(-1.35458e-09 -2.51765e-09 -0.000999997)
(-2.07327e-09 -2.51601e-09 -0.000999998)
(-2.62941e-09 -2.52579e-09 -0.000999999)
(-2.97533e-09 -2.53682e-09 -0.001)
(-2.96219e-09 -2.64248e-09 -0.001)
(-2.61156e-09 -2.63722e-09 -0.001)
(-2.06747e-09 -2.64137e-09 -0.001)
(-1.3476e-09 -2.65102e-09 -0.001)
(-4.68092e-10 -2.65004e-09 -0.001)
(-4.60052e-10 -2.24554e-09 -0.000999998)
(-1.3428e-09 -2.23184e-09 -0.000999998)
(-2.10458e-09 -2.24206e-09 -0.000999999)
(-2.67486e-09 -2.2793e-09 -0.001)
(-2.97852e-09 -2.29146e-09 -0.001)
(-2.95455e-09 -2.26475e-09 -0.001)
(-2.63701e-09 -2.29312e-09 -0.001)
(-2.09613e-09 -2.34063e-09 -0.001)
(-1.35853e-09 -2.36858e-09 -0.001)
(-4.70335e-10 -2.37384e-09 -0.001)
(-4.56451e-10 -1.73817e-09 -0.000999999)
(-1.34691e-09 -1.7429e-09 -0.000999999)
(-2.12048e-09 -1.75744e-09 -0.000999999)
(-2.67873e-09 -1.7597e-09 -0.001)
(-2.9607e-09 -1.73377e-09 -0.001)
(-2.96395e-09 -1.72481e-09 -0.001)
(-2.68745e-09 -1.77172e-09 -0.001)
(-2.14315e-09 -1.82212e-09 -0.001)
(-1.38549e-09 -1.85623e-09 -0.001)
(-4.77817e-10 -1.86398e-09 -0.001)
(-4.61629e-10 -1.11698e-09 -0.000999999)
(-1.35869e-09 -1.13305e-09 -0.000999999)
(-2.12104e-09 -1.13977e-09 -0.001)
(-2.65095e-09 -1.12462e-09 -0.001)
(-2.94337e-09 -1.09211e-09 -0.001)
(-2.99226e-09 -1.09918e-09 -0.001)
(-2.73409e-09 -1.14078e-09 -0.001)
(-2.18062e-09 -1.17271e-09 -0.001)
(-1.40392e-09 -1.18832e-09 -0.00100001)
(-4.81521e-10 -1.18912e-09 -0.00100001)
(-4.69613e-10 -3.89392e-10 -0.000999999)
(-1.36494e-09 -3.9892e-10 -0.001)
(-2.10775e-09 -3.98907e-10 -0.001)
(-2.62585e-09 -3.89695e-10 -0.001)
(-2.92949e-09 -3.78792e-10 -0.001)
(-3.00671e-09 -3.81325e-10 -0.001)
(-2.75556e-09 -3.98899e-10 -0.001)
(-2.18651e-09 -4.07974e-10 -0.001)
(-1.40148e-09 -4.08865e-10 -0.00100001)
(-4.79892e-10 -4.07379e-10 -0.00100001)
(-6.39381e-10 -5.80456e-10 -0.000999992)
(-1.82402e-09 -5.81696e-10 -0.000999992)
(-2.77695e-09 -5.85138e-10 -0.000999993)
(-3.43464e-09 -5.85417e-10 -0.000999994)
(-3.83491e-09 -5.87068e-10 -0.000999995)
(-3.93812e-09 -5.90139e-10 -0.000999997)
(-3.61906e-09 -5.95387e-10 -0.000999998)
(-2.92213e-09 -6.05739e-10 -0.000999999)
(-1.92738e-09 -6.15777e-10 -0.001)
(-6.7864e-10 -6.16292e-10 -0.001)
(-6.40727e-10 -1.66182e-09 -0.000999992)
(-1.831e-09 -1.66724e-09 -0.000999993)
(-2.78576e-09 -1.67535e-09 -0.000999993)
(-3.44287e-09 -1.68918e-09 -0.000999994)
(-3.84663e-09 -1.71882e-09 -0.000999996)
(-3.95364e-09 -1.73512e-09 -0.000999997)
(-3.64133e-09 -1.75391e-09 -0.000999998)
(-2.94799e-09 -1.76923e-09 -0.000999999)
(-1.94271e-09 -1.77313e-09 -0.001)
(-6.8154e-10 -1.75907e-09 -0.001)
(-6.42892e-10 -2.56906e-09 -0.000999993)
(-1.83784e-09 -2.5765e-09 -0.000999993)
(-2.80409e-09 -2.57859e-09 -0.000999994)
(-3.48469e-09 -2.60723e-09 -0.000999995)
(-3.88809e-09 -2.69529e-09 -0.000999996)
(-3.98064e-09 -2.69985e-09 -0.000999998)
(-3.66011e-09 -2.7406e-09 -0.000999999)
(-2.94716e-09 -2.73996e-09 -0.001)
(-1.92437e-09 -2.713e-09 -0.001)
(-6.69174e-10 -2.67485e-09 -0.001)
(-6.43412e-10 -3.24763e-09 -0.000999994)
(-1.8357e-09 -3.2436e-09 -0.000999994)
(-2.81649e-09 -3.23063e-09 -0.000999995)
(-3.55987e-09 -3.28344e-09 -0.000999996)
(-3.93954e-09 -3.45439e-09 -0.000999997)
(-3.99909e-09 -3.39355e-09 -0.000999999)
(-3.68172e-09 -3.41121e-09 -0.001)
(-2.92093e-09 -3.39035e-09 -0.001)
(-1.88306e-09 -3.34487e-09 -0.001)
(-6.48552e-10 -3.30121e-09 -0.001)
(-6.32911e-10 -3.55654e-09 -0.000999995)
(-1.81461e-09 -3.55075e-09 -0.000999995)
(-2.84367e-09 -3.54402e-09 -0.000999996)
(-3.70846e-09 -3.56595e-09 -0.000999997)
(-3.99841e-09 -3.62534e-09 -0.000999998)
(-3.93739e-09 -3.79231e-09 -0.001)
(-3.65686e-09 -3.72413e-09 -0.001)
(-2.88113e-09 -3.67588e-09 -0.001)
(-1.84179e-09 -3.64455e-09 -0.001)
(-6.31824e-10 -3.62518e-09 -0.001)
(-6.31187e-10 -3.47864e-09 -0.000999996)
(-1.81647e-09 -3.47847e-09 -0.000999997)
(-2.83143e-09 -3.50512e-09 -0.000999997)
(-3.64101e-09 -3.52127e-09 -0.000999998)
(-4.16591e-09 -3.45793e-09 -0.001)
(-4.0982e-09 -3.62507e-09 -0.001)
(-3.56521e-09 -3.60144e-09 -0.001)
(-2.84169e-09 -3.59649e-09 -0.001)
(-1.83949e-09 -3.60837e-09 -0.001)
(-6.35985e-10 -3.61567e-09 -0.001)
(-6.26492e-10 -3.08778e-09 -0.000999997)
(-1.83453e-09 -3.09172e-09 -0.000999998)
(-2.88629e-09 -3.12788e-09 -0.000999998)
(-3.66139e-09 -3.16182e-09 -0.000999999)
(-4.10192e-09 -3.13736e-09 -0.001)
(-4.0809e-09 -3.0588e-09 -0.001)
(-3.62835e-09 -3.13033e-09 -0.001)
(-2.8884e-09 -3.19158e-09 -0.001)
(-1.86806e-09 -3.23185e-09 -0.00100001)
(-6.45864e-10 -3.24476e-09 -0.00100001)
(-6.29606e-10 -2.42709e-09 -0.000999998)
(-1.85073e-09 -2.44229e-09 -0.000999999)
(-2.90125e-09 -2.46132e-09 -0.000999999)
(-3.65054e-09 -2.45719e-09 -0.001)
(-4.06297e-09 -2.43833e-09 -0.001)
(-4.09108e-09 -2.40985e-09 -0.001)
(-3.69799e-09 -2.47029e-09 -0.001)
(-2.94351e-09 -2.52376e-09 -0.00100001)
(-1.89905e-09 -2.55808e-09 -0.00100001)
(-6.54954e-10 -2.56656e-09 -0.00100001)
(-6.37236e-10 -1.56642e-09 -0.000999999)
(-1.86398e-09 -1.58246e-09 -0.000999999)
(-2.90069e-09 -1.58664e-09 -0.001)
(-3.63807e-09 -1.57662e-09 -0.001)
(-4.05424e-09 -1.57487e-09 -0.001)
(-4.11251e-09 -1.57565e-09 -0.001)
(-3.74194e-09 -1.60746e-09 -0.00100001)
(-2.97618e-09 -1.63443e-09 -0.00100001)
(-1.91571e-09 -1.64841e-09 -0.00100001)
(-6.59032e-10 -1.65284e-09 -0.00100001)
(-6.41548e-10 -5.45055e-10 -0.000999999)
(-1.86432e-09 -5.51525e-10 -0.001)
(-2.88955e-09 -5.49913e-10 -0.001)
(-3.63166e-09 -5.45903e-10 -0.001)
(-4.05409e-09 -5.50243e-10 -0.001)
(-4.11549e-09 -5.53264e-10 -0.001)
(-3.74929e-09 -5.61099e-10 -0.00100001)
(-2.97877e-09 -5.67821e-10 -0.00100001)
(-1.91693e-09 -5.69225e-10 -0.00100001)
(-6.61146e-10 -5.71513e-10 -0.00100001)
(-8.80297e-10 -7.9788e-10 -0.000999989)
(-2.51202e-09 -7.94406e-10 -0.000999989)
(-3.83651e-09 -7.88959e-10 -0.000999991)
(-4.77701e-09 -7.82729e-10 -0.000999992)
(-5.3449e-09 -7.81796e-10 -0.000999994)
(-5.47844e-09 -7.93124e-10 -0.000999996)
(-5.03113e-09 -8.13687e-10 -0.000999997)
(-4.04019e-09 -8.25573e-10 -0.000999999)
(-2.62259e-09 -8.257e-10 -0.001)
(-9.07683e-10 -8.14659e-10 -0.001)
(-8.7697e-10 -2.28628e-09 -0.000999989)
(-2.50617e-09 -2.28165e-09 -0.00099999)
(-3.83177e-09 -2.27401e-09 -0.000999991)
(-4.77856e-09 -2.27735e-09 -0.000999992)
(-5.36504e-09 -2.30224e-09 -0.000999994)
(-5.5204e-09 -2.33471e-09 -0.000999996)
(-5.07291e-09 -2.37026e-09 -0.000999998)
(-4.05974e-09 -2.38052e-09 -0.000999999)
(-2.61801e-09 -2.36644e-09 -0.001)
(-8.99769e-10 -2.33897e-09 -0.001)
(-8.73127e-10 -3.53459e-09 -0.00099999)
(-2.50015e-09 -3.53091e-09 -0.000999991)
(-3.83934e-09 -3.5236e-09 -0.000999992)
(-4.81438e-09 -3.55046e-09 -0.000999993)
(-5.41246e-09 -3.63535e-09 -0.000999995)
(-5.55694e-09 -3.67309e-09 -0.000999997)
(-5.08662e-09 -3.68626e-09 -0.000999999)
(-4.04434e-09 -3.66559e-09 -0.001)
(-2.5906e-09 -3.62784e-09 -0.001)
(-8.86324e-10 -3.59192e-09 -0.001)
(-8.66866e-10 -4.46697e-09 -0.000999992)
(-2.4886e-09 -4.44447e-09 -0.000999992)
(-3.85132e-09 -4.43207e-09 -0.000999993)
(-4.89073e-09 -4.48676e-09 -0.000999995)
(-5.48814e-09 -4.65212e-09 -0.000999996)
(-5.5718e-09 -4.63218e-09 -0.000999998)
(-5.06586e-09 -4.59711e-09 -0.001)
(-4.002e-09 -4.5581e-09 -0.001)
(-2.55166e-09 -4.51478e-09 -0.001)
(-8.70762e-10 -4.48165e-09 -0.001)
(-8.42624e-10 -4.89766e-09 -0.000999993)
(-2.45679e-09 -4.88674e-09 -0.000999994)
(-3.88122e-09 -4.89379e-09 -0.000999995)
(-5.03442e-09 -4.94396e-09 -0.000999996)
(-5.55776e-09 -5.00764e-09 -0.000999998)
(-5.50207e-09 -5.07495e-09 -0.001)
(-5.01257e-09 -5.02728e-09 -0.001)
(-3.96244e-09 -4.98647e-09 -0.001)
(-2.52304e-09 -4.96065e-09 -0.001)
(-8.61728e-10 -4.94684e-09 -0.001)
(-8.47174e-10 -4.78393e-09 -0.000999995)
(-2.47545e-09 -4.80531e-09 -0.000999995)
(-3.90808e-09 -4.84661e-09 -0.000999996)
(-5.00469e-09 -4.87244e-09 -0.000999998)
(-5.61915e-09 -4.80094e-09 -0.001)
(-5.59133e-09 -4.89466e-09 -0.001)
(-4.97747e-09 -4.89729e-09 -0.001)
(-3.93583e-09 -4.89685e-09 -0.001)
(-2.52178e-09 -4.9126e-09 -0.00100001)
(-8.66263e-10 -4.92518e-09 -0.00100001)
(-8.55272e-10 -4.25803e-09 -0.000999996)
(-2.5103e-09 -4.2804e-09 -0.000999997)
(-3.94788e-09 -4.31941e-09 -0.000999998)
(-4.98861e-09 -4.33052e-09 -0.000999999)
(-5.5801e-09 -4.29643e-09 -0.001)
(-5.59843e-09 -4.27036e-09 -0.001)
(-5.01478e-09 -4.31545e-09 -0.001)
(-3.97821e-09 -4.36242e-09 -0.00100001)
(-2.56104e-09 -4.40481e-09 -0.00100001)
(-8.83474e-10 -4.42431e-09 -0.00100001)