/*--------------------------------*- C++ -*----------------------------------*\
| =========                 |                                                 |
| \\      /  F ield         | OpenFOAM: The Open Source CFD Toolbox           |
|  \\    /   O peration     | Version:  5.x                                   |
|   \\  /    A nd           | Web:      www.OpenFOAM.org                      |
|    \\/     M anipulation  |                                                 |
\*---------------------------------------------------------------------------*/
FoamFile
{
    version     2.0;
    format      ascii;
    class       surfaceScalarField;
    location    "0.05";
    object      phi;
}
// * * * * * * * * * * * * * * * * * * * * * * * * * * * * * * * * * * * * * //

dimensions      [0 3 -1 0 0 0 0];

internalField   nonuniform List<scalar> 
5825
(
-1.42416e-16
-7.87419e-17
-1e-09
-1.14306e-16
-7.2483e-17
-1e-09
-7.55818e-17
-6.49844e-17
-1e-09
-3.53672e-17
-5.79497e-17
-1e-09
-5.62715e-17
-1e-09
-1.36566e-16
-1.32126e-16
-1e-09
-1.07142e-16
-1.28577e-16
-1e-09
-6.89815e-17
-1.25443e-16
-1e-09
-3.38717e-17
-1.22163e-16
-1e-09
-1.20709e-16
-1e-09
-1.33322e-16
-1.72666e-16
-1e-09
-1.03523e-16
-1.75411e-16
-1e-09
-6.56871e-17
-1.78e-16
-1e-09
-3.26688e-17
-1.73492e-16
-1e-09
-1.67304e-16
-1e-09
-1.35595e-16
-2.25235e-16
-1e-09
-1.04921e-16
-2.29091e-16
-1e-09
-6.11016e-17
-2.30654e-16
-1e-09
-2.68342e-17
-2.09596e-16
-1e-09
-1.92092e-16
-1e-09
-1.4164e-16
-1e-09
-1.08178e-16
-1e-09
-4.10036e-17
-1e-09
-1.02425e-17
-1e-09
-1e-09
-4.16275e-16
-2.13846e-16
-9.99999e-10
-3.35751e-16
-2.00778e-16
-1e-09
-2.30284e-16
-1.84416e-16
-1e-09
-1.17748e-16
-1.73515e-16
-1e-09
-1.7732e-16
-1e-09
-4.04867e-16
-3.68197e-16
-9.99999e-10
-3.20825e-16
-3.61691e-16
-1e-09
-2.2053e-16
-3.5199e-16
-1e-09
-1.21899e-16
-3.45308e-16
-1e-09
-3.41648e-16
-1e-09
-4.0043e-16
-4.58912e-16
-1e-09
-3.09668e-16
-4.77692e-16
-1e-09
-2.13805e-16
-4.83531e-16
-1e-09
-1.19036e-16
-4.72282e-16
-1e-09
-4.60326e-16
-1e-09
-4.27257e-16
-5.25339e-16
-1e-09
-3.10979e-16
-5.80475e-16
-1e-09
-2.02116e-16
-5.8542e-16
-1e-09
-1.08325e-16
-5.47113e-16
-1e-09
-5.26603e-16
-1e-09
-4.92714e-16
-1e-09
-3.14569e-16
-1e-09
-1.63682e-16
-1e-09
-8.85587e-17
-1e-09
-1e-09
-7.76854e-16
-3.53786e-16
-9.99999e-10
-6.33091e-16
-3.35533e-16
-9.99999e-10
-4.52471e-16
-3.18969e-16
-1e-09
-2.4614e-16
-3.14162e-16
-1e-09
-3.19987e-16
-1e-09
-7.61353e-16
-6.09959e-16
-9.99999e-10
-6.19286e-16
-5.99934e-16
-1e-09
-4.49443e-16
-5.85444e-16
-1e-09
-2.52637e-16
-5.76661e-16
-1e-09
-5.67814e-16
-1e-09
-7.53848e-16
-7.29111e-16
-9.99999e-10
-6.02902e-16
-7.71866e-16
-1e-09
-4.40715e-16
-7.79906e-16
-1e-09
-2.45296e-16
-7.68858e-16
-1e-09
-7.60768e-16
-1e-09
-8.20447e-16
-7.08527e-16
-1e-09
-6.07231e-16
-8.49122e-16
-1e-09
-4.29958e-16
-8.88647e-16
-1e-09
-2.40092e-16
-8.88334e-16
-1e-09
-8.9672e-16
-1e-09
-9.74061e-16
-1e-09
-6.24333e-16
-1e-09
-4.21497e-16
-1e-09
-2.46912e-16
-1e-09
-1e-09
-1.23108e-15
-5.0552e-16
-9.99999e-10
-1.02751e-15
-4.75316e-16
-9.99999e-10
-7.51822e-16
-4.64182e-16
-1e-09
-4.07743e-16
-4.6429e-16
-1e-09
-4.585e-16
-1e-09
-1.2055e-15
-8.69035e-16
-9.99999e-10
-1.01995e-15
-8.4369e-16
-9.99999e-10
-7.54466e-16
-8.29094e-16
-1e-09
-4.02996e-16
-8.19744e-16
-1e-09
-8.07845e-16
-1e-09
-1.18121e-15
-1.06715e-15
-9.99999e-10
-1.00328e-15
-1.09699e-15
-1e-09
-7.45256e-16
-1.09859e-15
-1e-09
-3.93619e-16
-1.09496e-15
-1e-09
-1.09605e-15
-1e-09
-1.22501e-15
-1.07646e-15
-9.99999e-10
-1.00147e-15
-1.16397e-15
-1e-09
-7.42445e-16
-1.22374e-15
-1e-09
-3.99037e-16
-1.27521e-15
-1e-09
-1.30874e-15
-1e-09
-1.31366e-15
-1e-09
-1.02235e-15
-1e-09
-7.81429e-16
-1e-09
-4.32506e-16
-1e-09
-1e-09
-1.79654e-15
-6.47541e-16
-9.99998e-10
-1.52662e-15
-6.17603e-16
-9.99999e-10
-1.11816e-15
-6.14714e-16
-9.99999e-10
-5.87101e-16
-6.13703e-16
-1e-09
-5.96435e-16
-1e-09
-1.77266e-15
-1.15155e-15
-9.99998e-10
-1.52774e-15
-1.12024e-15
-9.99999e-10
-1.12017e-15
-1.11696e-15
-1e-09
-5.71684e-16
-1.11426e-15
-1e-09
-1.11011e-15
-1e-09
-1.74512e-15
-1.54209e-15
-9.99998e-10
-1.52256e-15
-1.51791e-15
-9.99999e-10
-1.11768e-15
-1.51426e-15
-1e-09
-5.70925e-16
-1.52347e-15
-1e-09
-1.53249e-15
-1e-09
-1.72319e-15
-1.75218e-15
-9.99999e-10
-1.51602e-15
-1.70212e-15
-1e-09
-1.12825e-15
-1.72953e-15
-1e-09
-5.84871e-16
-1.79062e-15
-1e-09
-1.82219e-15
-1e-09
-1.6548e-15
-1e-09
-1.51222e-15
-1e-09
-1.17788e-15
-1e-09
-6.15547e-16
-1e-09
-1e-09
-2.53856e-15
-7.92788e-16
-9.99997e-10
-2.16511e-15
-7.94232e-16
-9.99998e-10
-1.56805e-15
-7.98446e-16
-9.99999e-10
-8.07081e-16
-7.95909e-16
-1e-09
-7.85936e-16
-1e-09
-2.54654e-15
-1.49609e-15
-9.99997e-10
-2.17413e-15
-1.49978e-15
-9.99998e-10
-1.5694e-15
-1.51726e-15
-9.99999e-10
-8.00494e-16
-1.52829e-15
-1e-09
-1.53643e-15
-1e-09
-2.55169e-15
-2.13741e-15
-9.99998e-10
-2.18988e-15
-2.10031e-15
-9.99999e-10
-1.5808e-15
-2.10839e-15
-1e-09
-8.12694e-16
-2.1267e-15
-1e-09
-2.13067e-15
-1e-09
-2.50834e-15
-2.61127e-15
-9.99999e-10
-2.19562e-15
-2.52089e-15
-1e-09
-1.60084e-15
-2.5059e-15
-1e-09
-8.22139e-16
-2.51998e-15
-1e-09
-2.51496e-15
-1e-09
-2.38615e-15
-1e-09
-2.15331e-15
-1e-09
-1.60719e-15
-1e-09
-8.19066e-16
-1e-09
-1e-09
-3.56076e-15
-1.03327e-15
-9.99996e-10
-3.01919e-15
-1.06859e-15
-9.99998e-10
-2.16899e-15
-1.07499e-15
-9.99999e-10
-1.12515e-15
-1.07691e-15
-1e-09
-1.08624e-15
-1e-09
-3.6026e-15
-2.016e-15
-9.99997e-10
-3.03254e-15
-2.06636e-15
-9.99998e-10
-2.17644e-15
-2.09772e-15
-9.99999e-10
-1.13932e-15
-2.11474e-15
-1e-09
-2.11954e-15
-1e-09
-3.6503e-15
-2.89629e-15
-9.99997e-10
-3.06342e-15
-2.90839e-15
-9.99999e-10
-2.19403e-15
-2.93073e-15
-1e-09
-1.14926e-15
-2.93942e-15
-1e-09
-2.92269e-15
-1e-09
-3.64747e-15
-3.57753e-15
-9.99998e-10
-3.08488e-15
-3.54785e-15
-1e-09
-2.20396e-15
-3.52241e-15
-1e-09
-1.13965e-15
-3.48289e-15
-1e-09
-3.44154e-15
-1e-09
-3.57811e-15
-1e-09
-3.0363e-15
-1e-09
-2.15884e-15
-1e-09
-1.10334e-15
-1e-09
-1e-09
-4.9633e-15
-1.45408e-15
-9.99995e-10
-4.19619e-15
-1.48666e-15
-9.99997e-10
-3.019e-15
-1.49413e-15
-9.99998e-10
-1.58811e-15
-1.50004e-15
-1e-09
-1.51038e-15
-1e-09
-5.00492e-15
-2.81113e-15
-9.99995e-10
-4.2139e-15
-2.86279e-15
-9.99997e-10
-3.03251e-15
-2.88764e-15
-9.99999e-10
-1.60517e-15
-2.88899e-15
-1e-09
-2.87103e-15
-1e-09
-5.05248e-15
-3.94591e-15
-9.99997e-10
-4.23936e-15
-3.98697e-15
-9.99998e-10
-3.03455e-15
-4.00088e-15
-1e-09
-1.5945e-15
-3.98452e-15
-1e-09
-3.95052e-15
-1e-09
-5.07983e-15
-4.72904e-15
-9.99998e-10
-4.2524e-15
-4.77321e-15
-1e-09
-3.01861e-15
-4.75143e-15
-1e-09
-1.57046e-15
-4.70188e-15
-1e-09
-4.6593e-15
-1e-09
-5.07499e-15
-1e-09
-4.21932e-15
-1e-09
-2.9656e-15
-1e-09
-1.53689e-15
-1e-09
-1e-09
-6.87253e-15
-2.04637e-15
-9.99993e-10
-5.82609e-15
-2.06088e-15
-9.99996e-10
-4.20486e-15
-2.06851e-15
-9.99998e-10
-2.21023e-15
-2.06232e-15
-1e-09
-2.04601e-15
-1e-09
-6.90181e-15
-3.90344e-15
-9.99994e-10
-5.8479e-15
-3.91382e-15
-9.99997e-10
-4.2094e-15
-3.91135e-15
-9.99999e-10
-2.20375e-15
-3.88518e-15
-1e-09
-3.85128e-15
-1e-09
-6.90987e-15
-5.41972e-15
-9.99995e-10
-5.84608e-15
-5.40868e-15
-9.99998e-10
-4.18422e-15
-5.38613e-15
-1e-09
-2.17979e-15
-5.35424e-15
-1e-09
-5.32721e-15
-1e-09
-6.88522e-15
-6.3764e-15
-9.99997e-10
-5.82281e-15
-6.39066e-15
-1e-09
-4.15272e-15
-6.3482e-15
-1e-09
-2.16596e-15
-6.31676e-15
-1e-09
-6.29544e-15
-1e-09
-6.83462e-15
-1e-09
-5.76895e-15
-1e-09
-4.12024e-15
-1e-09
-2.15882e-15
-1.00001e-09
-1.00001e-09
-9.47952e-15
-2.80497e-15
-9.99991e-10
-8.04493e-15
-2.81707e-15
-9.99994e-10
-5.79549e-15
-2.80713e-15
-9.99997e-10
-3.01653e-15
-2.77463e-15
-9.99999e-10
-2.73672e-15
-1e-09
-9.51369e-15
-5.3382e-15
-9.99992e-10
-8.05439e-15
-5.30305e-15
-9.99995e-10
-5.77789e-15
-5.26559e-15
-9.99998e-10
-2.99215e-15
-5.22908e-15
-1e-09
-5.20781e-15
-1e-09
-9.47806e-15
-7.4098e-15
-9.99994e-10
-8.01686e-15
-7.31495e-15
-9.99997e-10
-5.74263e-15
-7.2622e-15
-1e-09
-2.98414e-15
-7.24234e-15
-1e-09
-7.23677e-15
-1e-09
-9.37447e-15
-8.75673e-15
-9.99996e-10
-7.96345e-15
-8.67215e-15
-1e-09
-5.72343e-15
-8.59254e-15
-1e-09
-2.99602e-15
-8.57113e-15
-1.00001e-09
-8.55447e-15
-1.00001e-09
-9.21681e-15
-1e-09
-7.87194e-15
-1e-09
-5.70092e-15
-1.00001e-09
-2.99981e-15
-1.00001e-09
-1.00001e-09
-1.29892e-14
-3.82973e-15
-9.99988e-10
-1.09973e-14
-3.82e-15
-9.99992e-10
-7.90508e-15
-3.77229e-15
-9.99996e-10
-4.1051e-15
-3.73003e-15
-9.99999e-10
-3.70777e-15
-1e-09
-1.30106e-14
-7.26316e-15
-9.99989e-10
-1.09762e-14
-7.19037e-15
-9.99994e-10
-7.88286e-15
-7.13667e-15
-9.99998e-10
-4.10147e-15
-7.12146e-15
-1e-09
-7.12375e-15
-1e-09
-1.2939e-14
-1.00387e-14
-9.99992e-10
-1.09221e-14
-9.91662e-15
-9.99996e-10
-7.86879e-15
-9.87274e-15
-1e-09
-4.12164e-15
-9.87655e-15
-1e-09
-9.87358e-15
-1.00001e-09
-1.2816e-14
-1.18724e-14
-9.99995e-10
-1.08784e-14
-1.17735e-14
-1e-09
-7.8736e-15
-1.17021e-14
-1e-09
-4.14252e-15
-1.16778e-14
-1.00001e-09
-1.16408e-14
-1.00001e-09
-1.26421e-14
-9.99999e-10
-1.0788e-14
-1e-09
-7.84628e-15
-1.00001e-09
-4.13302e-15
-1.00001e-09
-1.00001e-09
-1.7653e-14
-5.23515e-15
-9.99983e-10
-1.49369e-14
-5.16763e-15
-9.9999e-10
-1.07783e-14
-5.10225e-15
-9.99995e-10
-5.64486e-15
-5.08832e-15
-9.99999e-10
-5.09981e-15
-1e-09
-1.76268e-14
-9.88187e-15
-9.99985e-10
-1.49077e-14
-9.78937e-15
-9.99992e-10
-1.07908e-14
-9.75094e-15
-9.99997e-10
-5.68235e-15
-9.76107e-15
-1e-09
-9.75771e-15
-1e-09
-1.75341e-14
-1.35793e-14
-9.99989e-10
-1.48695e-14
-1.34953e-14
-9.99995e-10
-1.08017e-14
-1.34707e-14
-1e-09
-5.70334e-15
-1.34714e-14
-1e-09
-1.34375e-14
-1.00001e-09
-1.74456e-14
-1.60133e-14
-9.99994e-10
-1.48467e-14
-1.59465e-14
-1e-09
-1.08036e-14
-1.58856e-14
-1.00001e-09
-5.70223e-15
-1.58486e-14
-1.00001e-09
-1.57906e-14
-1.00001e-09
-1.73045e-14
-1e-09
-1.47724e-14
-1.00001e-09
-1.07632e-14
-1.00001e-09
-5.68136e-15
-1.00002e-09
-1.00002e-09
-2.39599e-14
-7.10529e-15
-9.99977e-10
-2.03395e-14
-7.01401e-15
-9.99986e-10
-1.47808e-14
-6.97867e-15
-9.99994e-10
-7.80433e-15
-6.99776e-15
-9.99999e-10
-7.0072e-15
-1e-09
-2.39237e-14
-1.34457e-14
-9.9998e-10
-2.03523e-14
-1.33681e-14
-9.99989e-10
-1.48351e-14
-1.33423e-14
-9.99996e-10
-7.84925e-15
-1.33355e-14
-1e-09
-1.32876e-14
-1.00001e-09
-2.38435e-14
-1.84629e-14
-9.99985e-10
-2.03277e-14
-1.84051e-14
-9.99994e-10
-1.48295e-14
-1.8353e-14
-1e-09
-7.83411e-15
-1.83104e-14
-1.00001e-09
-1.82366e-14
-1.00001e-09
-2.37719e-14
-2.17294e-14
-9.99992e-10
-2.0279e-14
-2.16517e-14
-1e-09
-1.47886e-14
-2.15447e-14
-1.00001e-09
-7.80472e-15
-2.1486e-14
-1.00001e-09
-2.14201e-14
-1.00002e-09
-2.3615e-14
-1e-09
-2.01688e-14
-1.00001e-09
-1.47291e-14
-1.00002e-09
-7.7897e-15
-1.00002e-09
-1.00002e-09
-3.26936e-14
-9.62904e-15
-9.99969e-10
-2.78462e-14
-9.5754e-15
-9.99981e-10
-2.03046e-14
-9.56955e-15
-9.99992e-10
-1.07234e-14
-9.57156e-15
-1e-09
-9.53056e-15
-1e-09
-3.27151e-14
-1.83221e-14
-9.99973e-10
-2.79046e-14
-1.82558e-14
-9.99985e-10
-2.03542e-14
-1.81933e-14
-9.99995e-10
-1.07296e-14
-1.81267e-14
-1e-09
-1.80331e-14
-1.00001e-09
-3.26481e-14
-2.51796e-14
-9.99979e-10
-2.7844e-14
-2.50859e-14
-9.99992e-10
-2.02903e-14
-2.49659e-14
-1e-09
-1.06799e-14
-2.48735e-14
-1.00001e-09
-2.47747e-14
-1.00001e-09
-3.2542e-14
-2.96011e-14
-9.99989e-10
-2.7727e-14
-2.94433e-14
-1e-09
-2.02006e-14
-2.92947e-14
-1.00001e-09
-1.06407e-14
-2.92194e-14
-1.00002e-09
-2.91294e-14
-1.00002e-09
-3.23187e-14
-1e-09
-2.7581e-14
-1.00001e-09
-2.0127e-14
-1.00002e-09
-1.06205e-14
-1.00003e-09
-1.00003e-09
-4.47605e-14
-1.31257e-14
-9.99958e-10
-3.81488e-14
-1.30847e-14
-9.99975e-10
-2.77812e-14
-1.30462e-14
-9.99989e-10
-1.46158e-14
-1.2989e-14
-1e-09
-1.29047e-14
-1.00001e-09
-4.48221e-14
-2.4998e-14
-9.99963e-10
-3.81978e-14
-2.48763e-14
-9.9998e-10
-2.77885e-14
-2.47412e-14
-9.99994e-10
-1.45947e-14
-2.46242e-14
-1e-09
-2.45128e-14
-1.00001e-09
-4.47023e-14
-3.43478e-14
-9.99972e-10
-3.80658e-14
-3.41595e-14
-9.99989e-10
-2.76759e-14
-3.39816e-14
-1e-09
-1.45427e-14
-3.38559e-14
-1.00001e-09
-3.37247e-14
-1.00002e-09
-4.45108e-14
-4.02908e-14
-9.99985e-10
-3.78902e-14
-4.00713e-14
-1e-09
-2.75537e-14
-3.99057e-14
-1.00002e-09
-1.4492e-14
-3.97889e-14
-1.00003e-09
-3.96261e-14
-1.00003e-09
-4.42621e-14
-1e-09
-3.77245e-14
-1.00002e-09
-2.74397e-14
-1.00003e-09
-1.44239e-14
-1.00004e-09
-1.00005e-09
-6.12097e-14
-1.79257e-14
-9.99944e-10
-5.21172e-14
-1.78219e-14
-9.99966e-10
-3.78791e-14
-1.77113e-14
-9.99986e-10
-1.98982e-14
-1.76175e-14
-1e-09
-1.75361e-14
-1.00001e-09
-6.12446e-14
-3.40822e-14
-9.9995e-10
-5.21264e-14
-3.38565e-14
-9.99973e-10
-3.78725e-14
-3.36622e-14
-9.99992e-10
-1.99023e-14
-3.35244e-14
-1.00001e-09
-3.33907e-14
-1.00001e-09
-6.10203e-14
-4.68556e-14
-9.99963e-10
-5.19378e-14
-4.65404e-14
-9.99986e-10
-3.77409e-14
-4.63031e-14
-1e-09
-1.98494e-14
-4.61271e-14
-1.00002e-09
-4.59218e-14
-1.00003e-09
-6.06998e-14
-5.50148e-14
-9.9998e-10
-5.17027e-14
-5.46604e-14
-1e-09
-3.75688e-14
-5.43761e-14
-1.00002e-09
-1.97537e-14
-5.41544e-14
-1.00004e-09
-5.38987e-14
-1.00004e-09
-6.03223e-14
-1e-09
-5.14196e-14
-1.00002e-09
-3.73514e-14
-1.00004e-09
-1.96273e-14
-1.00006e-09
-1.00006e-09
-8.35665e-14
-2.44326e-14
-9.99923e-10
-7.11028e-14
-2.42436e-14
-9.99955e-10
-5.16662e-14
-2.4083e-14
-9.99981e-10
-2.71728e-14
-2.39859e-14
-1e-09
-2.39028e-14
-1.00001e-09
-8.35655e-14
-4.6436e-14
-9.99933e-10
-7.1105e-14
-4.61076e-14
-9.99964e-10
-5.16877e-14
-4.58541e-14
-9.9999e-10
-2.72066e-14
-4.56694e-14
-1.00001e-09
-4.54583e-14
-1.00002e-09
-8.32376e-14
-6.39161e-14
-9.9995e-10
-7.08599e-14
-6.34332e-14
-9.99981e-10
-5.15109e-14
-6.30743e-14
-1.00001e-09
-2.71059e-14
-6.2797e-14
-1.00003e-09
-6.24853e-14
-1.00004e-09
-8.27445e-14
-7.52527e-14
-9.99973e-10
-7.05032e-14
-7.4573e-14
-1e-09
-5.12378e-14
-7.40653e-14
-1.00003e-09
-2.69439e-14
-7.37181e-14
-1.00005e-09
-7.33726e-14
-1.00006e-09
-8.20422e-14
-1e-09
-7.00011e-14
-1.00003e-09
-5.0898e-14
-1.00006e-09
-2.67753e-14
-1.00008e-09
-1.00009e-09
-1.14091e-13
-3.3289e-14
-9.99896e-10
-9.70796e-14
-3.30216e-14
-9.99939e-10
-7.0579e-14
-3.28156e-14
-9.99975e-10
-3.71438e-14
-3.26758e-14
-1e-09
-3.25206e-14
-1.00002e-09
-1.1408e-13
-6.32792e-14
-9.99909e-10
-9.7094e-14
-6.28076e-14
-9.99951e-10
-7.06008e-14
-6.24188e-14
-9.99987e-10
-3.7149e-14
-6.21077e-14
-1.00001e-09
-6.17755e-14
-1.00003e-09
-1.13611e-13
-8.70928e-14
-9.99932e-10
-9.6715e-14
-8.63772e-14
-9.99974e-10
-7.02996e-14
-8.58114e-14
-1.00001e-09
-3.69675e-14
-8.53842e-14
-1.00004e-09
-8.49528e-14
-1.00005e-09
-1.12884e-13
-1.02536e-13
-9.99964e-10
-9.6151e-14
-1.01522e-13
-1.00001e-09
-6.98782e-14
-1.00798e-13
-1.00004e-09
-3.67404e-14
-1.00305e-13
-1.00007e-09
-9.98051e-14
-1.00008e-09
-1.11855e-13
-1e-09
-9.54371e-14
-1.00004e-09
-6.93964e-14
-1.00008e-09
-3.64823e-14
-1.0001e-09
-1.00012e-09
-1.55855e-13
-4.53816e-14
-9.99859e-10
-1.32645e-13
-4.49884e-14
-9.99917e-10
-9.64311e-14
-4.4661e-14
-9.99967e-10
-5.07115e-14
-4.43943e-14
-1e-09
-4.41263e-14
-1.00002e-09
-1.55812e-13
-8.623e-14
-9.99876e-10
-1.32616e-13
-8.54832e-14
-9.99934e-10
-9.63846e-14
-8.48361e-14
-9.99983e-10
-5.06627e-14
-8.43341e-14
-1.00002e-09
-8.38789e-14
-1.00004e-09
-1.55072e-13
-1.18582e-13
-9.99908e-10
-1.3198e-13
-1.17511e-13
-9.99965e-10
-9.58956e-14
-1.16634e-13
-1.00001e-09
-5.0413e-14
-1.15994e-13
-1.00005e-09
-1.15393e-13
-1.00007e-09
-1.53991e-13
-1.39375e-13
-9.99951e-10
-1.31104e-13
-1.38058e-13
-1.00001e-09
-9.52641e-14
-1.37018e-13
-1.00006e-09
-5.00916e-14
-1.36248e-13
-1.00009e-09
-1.35496e-13
-1.00011e-09
-1.52663e-13
-1e-09
-1.30075e-13
-1.00006e-09
-9.45095e-14
-1.00011e-09
-4.96691e-14
-1.00014e-09
-1.00016e-09
-2.12961e-13
-6.18514e-14
-9.99808e-10
-1.81242e-13
-6.12231e-14
-9.99888e-10
-1.31711e-13
-6.06658e-14
-9.99955e-10
-6.92279e-14
-6.02314e-14
-1e-09
-5.98729e-14
-1.00003e-09
-2.12811e-13
-1.17484e-13
-9.99831e-10
-1.81092e-13
-1.16275e-13
-9.9991e-10
-1.31577e-13
-1.15247e-13
-9.99978e-10
-6.91668e-14
-1.14506e-13
-1.00003e-09
-1.13887e-13
-1.00005e-09
-2.11613e-13
-1.61496e-13
-9.99875e-10
-1.80077e-13
-1.59837e-13
-9.99953e-10
-1.30854e-13
-1.58475e-13
-1.00002e-09
-6.88286e-14
-1.57497e-13
-1.00007e-09
-1.56615e-13
-1.0001e-09
-2.09943e-13
-1.89724e-13
-9.99934e-10
-1.78717e-13
-1.87714e-13
-1.00001e-09
-1.29889e-13
-1.86061e-13
-1.00008e-09
-6.83279e-14
-1.84857e-13
-1.00013e-09
-1.83814e-13
-1.00015e-09
-2.07927e-13
-1e-09
-1.77076e-13
-1.00008e-09
-1.28704e-13
-1.00015e-09
-6.77326e-14
-1.00019e-09
-1.00022e-09
-2.91052e-13
-8.42852e-14
-9.99739e-10
-2.47685e-13
-8.32763e-14
-9.99848e-10
-1.79996e-13
-8.24058e-14
-9.99941e-10
-9.46419e-14
-8.17873e-14
-1.00001e-09
-8.13124e-14
-1.00004e-09
-2.90692e-13
-1.60064e-13
-9.9977e-10
-2.47369e-13
-1.5817e-13
-9.99879e-10
-1.79785e-13
-1.56613e-13
-9.99971e-10
-9.45711e-14
-1.5551e-13
-1.00004e-09
-1.54586e-13
-1.00007e-09
-2.88816e-13
-2.19954e-13
-9.99829e-10
-2.45832e-13
-2.17385e-13
-9.99937e-10
-1.78708e-13
-2.15283e-13
-1.00003e-09
-9.403e-14
-2.13763e-13
-1.0001e-09
-2.12463e-13
-1.00013e-09
-2.86239e-13
-2.58359e-13
-9.9991e-10
-2.43733e-13
-2.55147e-13
-1.00002e-09
-1.77206e-13
-2.5257e-13
-1.00011e-09
-9.32489e-14
-2.50778e-13
-1.00017e-09
-2.4932e-13
-1.00021e-09
-2.83019e-13
-1.00001e-09
-2.41167e-13
-1.00011e-09
-1.75437e-13
-1.0002e-09
-9.23994e-14
-1.00026e-09
-1.0003e-09
-3.97932e-13
-1.14877e-13
-9.99644e-10
-3.38712e-13
-1.13328e-13
-9.99793e-10
-2.46245e-13
-1.1204e-13
-9.99921e-10
-1.29538e-13
-1.11129e-13
-1.00001e-09
-1.10406e-13
-1.00006e-09
-3.97265e-13
-2.18059e-13
-9.99687e-10
-3.38179e-13
-2.15214e-13
-9.99836e-10
-2.45889e-13
-2.12864e-13
-9.99963e-10
-1.29368e-13
-2.11147e-13
-1.00006e-09
-2.09744e-13
-1.0001e-09
-3.94448e-13
-2.99479e-13
-9.99768e-10
-3.35857e-13
-2.95623e-13
-9.99915e-10
-2.44209e-13
-2.92399e-13
-1.00004e-09
-1.28489e-13
-2.90045e-13
-1.00013e-09
-2.88134e-13
-1.00018e-09
-3.90593e-13
-3.51523e-13
-9.99879e-10
-3.32637e-13
-3.46754e-13
-1.00002e-09
-2.4188e-13
-3.42857e-13
-1.00015e-09
-1.27286e-13
-3.40119e-13
-1.00024e-09
-3.37899e-13
-1.00029e-09
-3.85811e-13
-1.00001e-09
-3.28745e-13
-1.00015e-09
-2.3917e-13
-1.00027e-09
-1.25895e-13
-1.00036e-09
-1.00041e-09
-5.44344e-13
-1.56605e-13
-9.99515e-10
-4.63587e-13
-1.54321e-13
-9.9972e-10
-3.37184e-13
-1.52385e-13
-9.99895e-10
-1.77412e-13
-1.50953e-13
-1.00002e-09
-1.49841e-13
-1.00009e-09
-5.43263e-13
-2.97152e-13
-9.99574e-10
-4.62676e-13
-2.92929e-13
-9.99778e-10
-3.36509e-13
-2.89316e-13
-9.99952e-10
-1.77056e-13
-2.8664e-13
-1.00008e-09
-2.84564e-13
-1.00015e-09
-5.39081e-13
-4.07903e-13
-9.99684e-10
-4.59101e-13
-4.02103e-13
-9.99886e-10
-3.33886e-13
-3.97144e-13
-1.00006e-09
-1.75696e-13
-3.93507e-13
-1.00018e-09
-3.90652e-13
-1.00025e-09
-5.33287e-13
-4.78314e-13
-9.99836e-10
-4.54147e-13
-4.71242e-13
-1.00003e-09
-3.30288e-13
-4.65318e-13
-1.0002e-09
-1.73808e-13
-4.61033e-13
-1.00033e-09
-4.57652e-13
-1.00039e-09
-5.26207e-13
-1.00001e-09
-4.48225e-13
-1.00021e-09
-3.26043e-13
-1.00037e-09
-1.71559e-13
-1.00049e-09
-1.00056e-09
-7.45131e-13
-2.13673e-13
-9.99338e-10
-6.35019e-13
-2.10267e-13
-9.9962e-10
-4.62116e-13
-2.07267e-13
-9.9986e-10
-2.43234e-13
-2.05032e-13
-1.00004e-09
-2.03383e-13
-1.00013e-09
-7.43363e-13
-4.05347e-13
-9.99419e-10
-6.33415e-13
-3.98923e-13
-9.99699e-10
-4.60913e-13
-3.93343e-13
-9.99938e-10
-2.42616e-13
-3.89223e-13
-1.00011e-09
-3.86117e-13
-1.00021e-09
-7.36994e-13
-5.5606e-13
-9.99571e-10
-6.27886e-13
-5.47166e-13
-9.99847e-10
-4.56866e-13
-5.39541e-13
-1.00008e-09
-2.40492e-13
-5.33902e-13
-1.00026e-09
-5.29623e-13
-1.00035e-09
-7.28108e-13
-6.51087e-13
-9.99777e-10
-6.20273e-13
-6.40431e-13
-1.00005e-09
-4.51285e-13
-6.31397e-13
-1.00028e-09
-2.37537e-13
-6.24766e-13
-1.00045e-09
-6.19767e-13
-1.00054e-09
-7.17447e-13
-1.00002e-09
-6.11243e-13
-1.00028e-09
-4.44716e-13
-1.00051e-09
-2.34088e-13
-1.00068e-09
-1.00076e-09
-1.02076e-12
-2.91961e-13
-9.99096e-10
-8.70629e-13
-2.86715e-13
-9.99483e-10
-6.34144e-13
-2.82067e-13
-9.99814e-10
-3.34048e-13
-2.78619e-13
-1.00006e-09
-2.7612e-13
-1.00019e-09
-1.01774e-12
-5.53557e-13
-9.99208e-10
-8.67881e-13
-5.43695e-13
-9.99592e-10
-6.32105e-13
-5.35118e-13
-9.99921e-10
-3.32959e-13
-5.28701e-13
-1.00016e-09
-5.23976e-13
-1.00029e-09
-1.00795e-12
-7.58554e-13
-9.99415e-10
-8.59377e-13
-7.44967e-13
-9.99794e-10
-6.25794e-13
-7.33254e-13
-1.00012e-09
-3.29585e-13
-7.24482e-13
-1.00036e-09
-7.18066e-13
-1.00048e-09
-9.94366e-13
-8.8664e-13
-9.99698e-10
-8.47686e-13
-8.70609e-13
-1.00007e-09
-6.17109e-13
-8.56799e-13
-1.00039e-09
-3.24991e-13
-8.46564e-13
-1.00062e-09
-8.39112e-13
-1.00074e-09
-9.78337e-13
-1.00003e-09
-8.3389e-13
-1.00039e-09
-6.06968e-13
-1.0007e-09
-3.19668e-13
-1.00093e-09
-1.00105e-09
-1.39938e-12
-3.99503e-13
-9.98764e-10
-1.19507e-12
-3.91422e-13
-9.99296e-10
-8.71754e-13
-3.84253e-13
-9.99754e-10
-4.59744e-13
-3.78809e-13
-1.00009e-09
-3.74899e-13
-1.00027e-09
-1.3943e-12
-7.56804e-13
-9.98918e-10
-1.19048e-12
-7.41815e-13
-9.99445e-10
-8.68233e-13
-7.28559e-13
-9.99899e-10
-4.57775e-13
-7.18406e-13
-1.00023e-09
-7.11137e-13
-1.00041e-09
-1.37939e-12
-1.03561e-12
-9.99203e-10
-1.17733e-12
-1.01504e-12
-9.99723e-10
-8.58236e-13
-9.96983e-13
-1.00017e-09
-4.5238e-13
-9.83292e-13
-1.0005e-09
-9.73552e-13
-1.00067e-09
-1.35881e-12
-1.20828e-12
-9.99592e-10
-1.15932e-12
-1.18394e-12
-1.0001e-09
-8.4468e-13
-1.16279e-12
-1.00054e-09
-4.45165e-13
-1.14694e-12
-1.00086e-09
-1.1357e-12
-1.00103e-09
-1.33449e-12
-1.00004e-09
-1.13822e-12
-1.00054e-09
-8.2899e-13
-1.00096e-09
-4.36855e-13
-1.00127e-09
-1.00144e-09
-1.91984e-12
-5.47553e-13
-9.98306e-10
-1.64293e-12
-5.35254e-13
-9.99037e-10
-1.20116e-12
-5.24029e-13
-9.99671e-10
-6.3452e-13
-5.15162e-13
-1.00014e-09
-5.08931e-13
-1.0004e-09
-1.91159e-12
-1.0364e-12
-9.98518e-10
-1.63522e-12
-1.01365e-12
-9.99243e-10
-1.19493e-12
-9.92897e-13
-9.99871e-10
-6.30974e-13
-9.76625e-13
-1.00034e-09
-9.65226e-13
-1.00059e-09
-1.88892e-12
-1.41573e-12
-9.98914e-10
-1.61461e-12
-1.38458e-12
-9.99626e-10
-1.1789e-12
-1.35663e-12
-1.00024e-09
-6.22193e-13
-1.33507e-12
-1.00069e-09
-1.31999e-12
-1.00094e-09
-1.85774e-12
-1.64788e-12
-9.99449e-10
-1.58674e-12
-1.61097e-12
-1.00014e-09
-1.15758e-12
-1.57863e-12
-1.00074e-09
-6.10634e-13
-1.55404e-12
-1.00118e-09
-1.53689e-12
-1.00142e-09
-1.82086e-12
-1.00006e-09
-1.55454e-12
-1.00074e-09
-1.13328e-12
-1.00132e-09
-5.97577e-13
-1.00175e-09
-1.00198e-09
-2.63597e-12
-7.52167e-13
-9.9767e-10
-2.26294e-12
-7.3338e-13
-9.98677e-10
-1.66029e-12
-7.1535e-13
-9.99559e-10
-8.79403e-13
-7.00566e-13
-1.00022e-09
-6.90352e-13
-1.00059e-09
-2.62261e-12
-1.42277e-12
-9.97965e-10
-2.24966e-12
-1.38806e-12
-9.98961e-10
-1.64912e-12
-1.35517e-12
-9.99831e-10
-8.72931e-13
-1.32853e-12
-1.00048e-09
-1.30998e-12
-1.00084e-09
-2.58794e-12
-1.93901e-12
-9.98516e-10
-2.21695e-12
-1.89194e-12
-9.99493e-10
-1.62287e-12
-1.84842e-12
-1.00034e-09
-8.58098e-13
-1.81386e-12
-1.00097e-09
-1.78983e-12
-1.00132e-09
-2.54079e-12
-2.25011e-12
-9.99256e-10
-2.17357e-12
-2.19482e-12
-1.00021e-09
-1.58876e-12
-2.14532e-12
-1.00103e-09
-8.3908e-13
-2.10673e-12
-1.00164e-09
-2.0802e-12
-1.00197e-09
-2.48566e-12
-1.0001e-09
-2.12439e-12
-1.00103e-09
-1.55077e-12
-1.00183e-09
-8.18308e-13
-1.00241e-09
-1.00273e-09
-3.62206e-12
-1.03617e-12
-9.96779e-10
-3.12438e-12
-1.007e-12
-9.98167e-10
-2.30566e-12
-9.77249e-13
-9.994e-10
-1.22652e-12
-9.51807e-13
-1.00035e-09
-9.34199e-13
-1.00088e-09
-3.60007e-12
-1.96008e-12
-9.9719e-10
-3.10099e-12
-1.90703e-12
-9.9856e-10
-2.28521e-12
-1.85398e-12
-9.9977e-10
-1.21423e-12
-1.80872e-12
-1.0007e-09
-1.77695e-12
-1.00121e-09
-3.54691e-12
-2.66266e-12
-9.97967e-10
-3.04817e-12
-2.5918e-12
-9.99307e-10
-2.24059e-12
-2.52322e-12
-1.00048e-09
-1.18786e-12
-2.46625e-12
-1.00137e-09
-2.42671e-12
-1.00186e-09
-3.47585e-12
-3.07935e-12
-9.98997e-10
-2.97985e-12
-2.99731e-12
-1.0003e-09
-2.18454e-12
-2.92151e-12
-1.00143e-09
-1.15563e-12
-2.86013e-12
-1.00228e-09
-2.8181e-12
-1.00273e-09
-3.39446e-12
-1.00018e-09
-2.90484e-12
-1.00144e-09
-2.12445e-12
-1.00253e-09
-1.12188e-12
-1.00334e-09
-1.00377e-09
-4.98109e-12
-1.43168e-12
-9.95514e-10
-4.32728e-12
-1.38519e-12
-9.97436e-10
-3.22469e-12
-1.3342e-12
-9.99169e-10
-1.72695e-12
-1.28844e-12
-1.00056e-09
-1.25637e-12
-1.00135e-09
-4.94389e-12
-2.71534e-12
-9.96083e-10
-4.28471e-12
-2.63371e-12
-9.97971e-10
-3.18595e-12
-2.54604e-12
-9.99657e-10
-1.7028e-12
-2.46534e-12
-1.001e-09
-2.4072e-12
-1.00177e-09
-4.86198e-12
-3.66918e-12
-9.97205e-10
-4.1972e-12
-3.56223e-12
-9.99043e-10
-3.10626e-12
-3.45198e-12
-1.00066e-09
-1.65282e-12
-3.35478e-12
-1.00193e-09
-3.28655e-12
-1.00263e-09
-4.75454e-12
-4.2311e-12
-9.98641e-10
-4.08724e-12
-4.11055e-12
-1.00042e-09
-3.01104e-12
-3.99576e-12
-1.00196e-09
-1.59593e-12
-3.89618e-12
-1.00315e-09
-3.82672e-12
-1.00379e-09
-4.63674e-12
-1.00032e-09
-3.9745e-12
-1.00205e-09
-2.91449e-12
-1.00354e-09
-1.53864e-12
-1.00466e-09
-1.00524e-09
-6.85949e-12
-1.98137e-12
-9.93667e-10
-6.01745e-12
-1.90328e-12
-9.96374e-10
-4.55975e-12
-1.81028e-12
-9.98816e-10
-2.46629e-12
-1.7244e-12
-1.00093e-09
-1.66369e-12
-1.00215e-09
-6.79323e-12
-3.7982e-12
-9.94429e-10
-5.9355e-12
-3.66952e-12
-9.97062e-10
-4.48423e-12
-3.52107e-12
-9.99397e-10
-2.41837e-12
-3.36904e-12
-1.00143e-09
-3.25298e-12
-1.00259e-09
-6.66522e-12
-5.07648e-12
-9.96141e-10
-5.787e-12
-4.91149e-12
-9.98679e-10
-4.33321e-12
-4.72785e-12
-1.00091e-09
-2.31503e-12
-4.55462e-12
-1.00277e-09
-4.43089e-12
-1.00377e-09
-6.49902e-12
-5.85753e-12
-9.98119e-10
-5.60292e-12
-5.68236e-12
-1.00054e-09
-4.16445e-12
-5.51401e-12
-1.00261e-09
-2.21082e-12
-5.34704e-12
-1.00431e-09
-5.22427e-12
-1.00521e-09
-6.33611e-12
-1.00062e-09
-5.44064e-12
-1.00298e-09
-4.00538e-12
-1.00502e-09
-2.1053e-12
-1.00659e-09
-1.00734e-09
-9.48187e-12
-2.72627e-12
-9.90836e-10
-8.40539e-12
-2.58162e-12
-9.94869e-10
-6.55868e-12
-2.39819e-12
-9.98264e-10
-3.59527e-12
-2.23466e-12
-1.00166e-09
-2.11888e-12
-1.00363e-09
-9.35186e-12
-5.41388e-12
-9.91716e-10
-8.23193e-12
-5.19556e-12
-9.95568e-10
-6.41031e-12
-4.94382e-12
-9.98673e-10
-3.50431e-12
-4.64045e-12
-1.00193e-09
-4.38463e-12
-1.00383e-09
-9.14519e-12
-7.03425e-12
-9.94677e-10
-7.98319e-12
-6.76085e-12
-9.98275e-10
-6.10361e-12
-6.43078e-12
-1.0013e-09
-3.26461e-12
-6.10763e-12
-1.00414e-09
-5.87924e-12
-1.00554e-09
-8.86992e-12
-8.23325e-12
-9.97202e-10
-7.64965e-12
-7.97262e-12
-1.00055e-09
-5.79043e-12
-7.74789e-12
-1.00315e-09
-3.07478e-12
-7.45364e-12
-1.00568e-09
-7.21416e-12
-1.00695e-09
-8.66655e-12
-1.00128e-09
-7.44761e-12
-1.00456e-09
-5.51976e-12
-1.0073e-09
-2.84569e-12
-1.00961e-09
-1.01035e-09
-1.32482e-11
-3.68424e-12
-9.86096e-10
-1.17587e-11
-3.39807e-12
-9.9296e-10
-9.68299e-12
-3.03646e-12
-9.97303e-10
-5.38589e-12
-2.72867e-12
-1.00323e-09
-2.49666e-12
-1.00652e-09
-1.29588e-11
-8.01932e-12
-9.86507e-10
-1.13287e-11
-7.56606e-12
-9.9303e-10
-9.40345e-12
-7.1606e-12
-9.96474e-10
-5.24994e-12
-6.52096e-12
-1.00229e-09
-5.90728e-12
-1.00567e-09
-1.26037e-11
-9.65948e-12
-9.9282e-10
-1.09929e-11
-9.16564e-12
-9.98286e-10
-8.72991e-12
-8.56116e-12
-1.00217e-09
-4.59829e-12
-7.94648e-12
-1.00684e-09
-7.50028e-12
-1.00854e-09
-1.20779e-11
-1.19383e-11
-9.94983e-10
-1.0271e-11
-1.14748e-11
-1.00005e-09
-8.12365e-12
-1.12694e-11
-1.00259e-09
-4.31337e-12
-1.07111e-11
-1.00673e-09
-1.01842e-11
-1.00858e-09
-1.1899e-11
-1.00283e-09
-1.01828e-11
-1.00765e-09
-7.64801e-12
-1.01116e-09
-3.66575e-12
-1.01498e-09
-1.0146e-09
-1.88672e-11
-4.97192e-12
-9.77399e-10
-1.63491e-11
-4.36672e-12
-9.91111e-10
-1.48464e-11
-3.66911e-12
-9.95137e-10
-8.33909e-12
-3.10349e-12
-1.00663e-09
-2.58978e-12
-1.01227e-09
-1.81932e-11
-1.26319e-11
-9.75481e-10
-1.52645e-11
-1.13471e-11
-9.88978e-10
-1.43896e-11
-1.07493e-11
-9.90268e-10
-8.30399e-12
-9.30604e-12
-1.00217e-09
-7.77609e-12
-1.00879e-09
-1.75613e-11
-1.32441e-11
-9.90853e-10
-1.50037e-11
-1.23297e-11
-9.99861e-10
-1.277e-11
-1.13424e-11
-1.00381e-09
-6.29305e-12
-1.01765e-11
-1.01245e-09
-9.08296e-12
-1.01353e-09
-1.64203e-11
-1.83733e-11
-9.88742e-10
-1.32411e-11
-1.70764e-11
-9.98482e-10
-1.15817e-11
-1.73027e-11
-9.98294e-10
-6.18108e-12
-1.61125e-11
-1.00619e-09
-1.48585e-11
-1.00898e-09
-1.66124e-11
-1.00643e-09
-1.37916e-11
-1.01488e-09
-1.06937e-11
-1.01813e-09
-4.18577e-12
-1.02593e-09
-1.02024e-09
-2.72168e-11
-7.02119e-12
-9.60562e-10
-2.3015e-11
-5.50145e-12
-9.89812e-10
-2.38501e-11
-4.16827e-12
-9.90133e-10
-1.33732e-11
-3.15413e-12
-1.01395e-09
-1.99163e-12
-1.02365e-09
-2.54945e-11
-2.10297e-11
-9.5289e-10
-2.06245e-11
-1.71455e-11
-9.82204e-10
-2.32761e-11
-1.64201e-11
-9.75365e-10
-1.41952e-11
-1.30155e-11
-1.00139e-09
-9.01446e-12
-1.01596e-09
-2.46191e-11
-1.86551e-11
-9.89672e-10
-2.03895e-11
-1.69867e-11
-1.00425e-09
-1.91664e-11
-1.53889e-11
-1.00606e-09
-8.36236e-12
-1.31842e-11
-1.02309e-09
-1.01266e-11
-1.02078e-09
-2.18885e-11
-3.06967e-11
-9.73081e-10
-1.65141e-11
-2.6098e-11
-9.94745e-10
-1.68453e-11
-2.82903e-11
-9.85061e-10
-9.31755e-12
-2.52865e-11
-1.00162e-09
-2.24974e-11
-1.00593e-09
-2.44093e-11
-1.01392e-09
-1.85269e-11
-1.03245e-09
-1.49468e-11
-1.03053e-09
-3.15704e-12
-1.04939e-09
-1.02651e-09
-3.94458e-11
-1.1122e-11
-9.26557e-10
-3.4163e-11
-6.55815e-12
-9.88536e-10
-4.0057e-11
-4.0467e-12
-9.80193e-10
-2.24732e-11
-2.20131e-12
-1.02933e-09
7.2348e-14
-1.0462e-09
-3.46359e-11
-3.67421e-11
-9.09697e-10
-2.87954e-11
-2.59869e-11
-9.68616e-10
-4.00299e-11
-2.53852e-11
-9.42793e-10
-2.71321e-11
-1.72348e-11
-9.99254e-10
-6.52648e-12
-1.0365e-09
-3.39227e-11
-2.7091e-11
-9.93068e-10
-2.78469e-11
-2.48679e-11
-1.01145e-09
-2.90275e-11
-2.1848e-11
-1.00842e-09
-1.05179e-11
-1.7717e-11
-1.04111e-09
-8.8414e-12
-1.02898e-09
-2.70694e-11
-5.58123e-11
-9.37581e-10
-2.01184e-11
-4.15064e-11
-9.85057e-10
-2.47784e-11
-4.96982e-11
-9.5255e-10
-1.53468e-11
-4.14802e-11
-9.87284e-10
-3.61108e-11
-9.94007e-10
-3.91413e-11
-1.02704e-09
-2.51234e-11
-1.07474e-09
-1.97904e-11
-1.0544e-09
3.4425e-12
-1.10061e-09
-1.02883e-09
-5.81607e-11
-2.08689e-11
-8.5302e-10
-5.43594e-11
-5.82441e-12
-9.86513e-10
-7.01381e-11
-1.04777e-12
-9.63367e-10
-3.86677e-11
5.30698e-12
-1.06611e-09
9.21628e-12
-1.09408e-09
-4.46037e-11
-6.7768e-11
-8.30981e-10
-4.06565e-11