/*--------------------------------*- C++ -*----------------------------------*\
| =========                 |                                                 |
| \\      /  F ield         | OpenFOAM: The Open Source CFD Toolbox           |
|  \\    /   O peration     | Version:  5.x                                   |
|   \\  /    A nd           | Web:      www.OpenFOAM.org                      |
|    \\/     M anipulation  |                                                 |
\*---------------------------------------------------------------------------*/
FoamFile
{
    version     2.0;
    format      ascii;
    class       volVectorField;
    location    "0.04";
    object      U;
}
// * * * * * * * * * * * * * * * * * * * * * * * * * * * * * * * * * * * * * //

dimensions      [0 1 -1 0 0 0 0];

internalField   nonuniform List<vector> 
2250
(
(-1.69977e-10 -3.89196e-11 -0.000999999)
(-1.51554e-10 -3.39273e-11 -0.001)
(-1.15482e-10 -2.90868e-11 -0.001)
(-6.85651e-11 -2.51647e-11 -0.001)
(-2.20158e-11 -2.34294e-11 -0.001)
(-1.65695e-10 -1.05115e-10 -0.000999999)
(-1.42033e-10 -8.96444e-11 -0.001)
(-1.06947e-10 -7.73738e-11 -0.001)
(-6.30675e-11 -6.96049e-11 -0.001)
(-2.03515e-11 -6.70418e-11 -0.001)
(-1.54412e-10 -1.45251e-10 -0.001)
(-1.24149e-10 -1.23422e-10 -0.001)
(-9.5696e-11 -1.0929e-10 -0.001)
(-5.85068e-11 -1.03729e-10 -0.001)
(-1.96187e-11 -1.03853e-10 -0.001)
(-1.40927e-10 -1.65316e-10 -0.001)
(-1.06087e-10 -1.47307e-10 -0.001)
(-8.7269e-11 -1.35923e-10 -0.001)
(-5.78421e-11 -1.34755e-10 -0.001)
(-2.06713e-11 -1.37651e-10 -0.001)
(-1.33746e-10 -1.46158e-10 -0.001)
(-9.48892e-11 -1.52711e-10 -0.001)
(-8.31584e-11 -1.52234e-10 -0.001)
(-6.05194e-11 -1.54676e-10 -0.001)
(-2.277e-11 -1.57019e-10 -0.001)
(-4.91482e-10 -1.05655e-10 -0.000999999)
(-4.34971e-10 -9.11957e-11 -0.000999999)
(-3.32079e-10 -7.88093e-11 -0.001)
(-2.00063e-10 -7.084e-11 -0.001)
(-6.54788e-11 -6.85348e-11 -0.001)
(-4.78693e-10 -2.8309e-10 -0.000999999)
(-4.08973e-10 -2.43006e-10 -0.001)
(-3.12353e-10 -2.13955e-10 -0.001)
(-1.9026e-10 -1.99063e-10 -0.001)
(-6.34059e-11 -1.96128e-10 -0.001)
(-4.50128e-10 -3.93319e-10 -0.000999999)
(-3.66742e-10 -3.43397e-10 -0.001)
(-2.88824e-10 -3.13834e-10 -0.001)
(-1.83003e-10 -3.04456e-10 -0.001)
(-6.30335e-11 -3.05185e-10 -0.001)
(-4.16558e-10 -4.8727e-10 -0.001)
(-3.29511e-10 -4.27888e-10 -0.001)
(-2.73453e-10 -4.06313e-10 -0.001)
(-1.82213e-10 -4.02744e-10 -0.001)
(-6.47025e-11 -4.04557e-10 -0.001)
(-4.14787e-10 -4.21999e-10 -0.001)
(-2.85652e-10 -4.54376e-10 -0.001)
(-2.63699e-10 -4.5255e-10 -0.001)
(-1.82023e-10 -4.56466e-10 -0.001)
(-6.56125e-11 -4.58104e-10 -0.001)
(-8.65733e-10 -1.60538e-10 -0.000999999)
(-7.64119e-10 -1.43317e-10 -0.000999999)
(-5.87027e-10 -1.29971e-10 -0.001)
(-3.63143e-10 -1.24115e-10 -0.001)
(-1.22068e-10 -1.23794e-10 -0.001)
(-8.50632e-10 -4.36116e-10 -0.000999999)
(-7.3504e-10 -3.91661e-10 -0.000999999)
(-5.68949e-10 -3.62046e-10 -0.001)
(-3.57897e-10 -3.51651e-10 -0.001)
(-1.22237e-10 -3.51602e-10 -0.001)
(-8.16419e-10 -6.20146e-10 -0.000999999)
(-6.91597e-10 -5.72024e-10 -0.001)
(-5.48211e-10 -5.48202e-10 -0.001)
(-3.5409e-10 -5.42926e-10 -0.001)
(-1.22924e-10 -5.42724e-10 -0.001)
(-7.72931e-10 -8.35798e-10 -0.000999999)
(-6.63145e-10 -7.35449e-10 -0.001)
(-5.39922e-10 -7.16281e-10 -0.001)
(-3.53509e-10 -7.08895e-10 -0.001)
(-1.23076e-10 -7.03722e-10 -0.001)
(-7.95294e-10 -7.48784e-10 -0.001)
(-5.72081e-10 -8.13788e-10 -0.001)
(-5.21703e-10 -8.0099e-10 -0.001)
(-3.42956e-10 -7.98143e-10 -0.001)
(-1.1915e-10 -7.93712e-10 -0.001)
(-1.32006e-09 -2.11935e-10 -0.000999999)
(-1.17098e-09 -1.98682e-10 -0.000999999)
(-9.07464e-10 -1.91163e-10 -0.000999999)
(-5.7518e-10 -1.90842e-10 -0.001)
(-1.969e-10 -1.91553e-10 -0.001)
(-1.30932e-09 -5.88664e-10 -0.000999999)
(-1.15248e-09 -5.56329e-10 -0.000999999)
(-9.01374e-10 -5.39819e-10 -0.001)
(-5.77034e-10 -5.38683e-10 -0.001)
(-1.98342e-10 -5.39064e-10 -0.001)
(-1.28227e-09 -8.67185e-10 -0.000999999)
(-1.12446e-09 -8.39207e-10 -0.000999999)
(-8.91639e-10 -8.29026e-10 -0.001)
(-5.76591e-10 -8.27517e-10 -0.001)
(-1.98666e-10 -8.24682e-10 -0.001)
(-1.245e-09 -1.14944e-09 -0.000999999)
(-1.1144e-09 -1.08115e-09 -0.001)
(-8.89796e-10 -1.06937e-09 -0.001)
(-5.74379e-10 -1.05831e-09 -0.001)
(-1.9712e-10 -1.04965e-09 -0.001)
(-1.26719e-09 -1.17048e-09 -0.001)
(-1.04443e-09 -1.22166e-09 -0.001)
(-8.68894e-10 -1.20307e-09 -0.001)
(-5.59066e-10 -1.19217e-09 -0.001)
(-1.92148e-10 -1.18372e-09 -0.001)
(-1.87959e-09 -2.788e-10 -0.000999998)
(-1.67629e-09 -2.70973e-10 -0.000999999)
(-1.31274e-09 -2.7105e-10 -0.000999999)
(-8.43174e-10 -2.74847e-10 -0.001)
(-2.90206e-10 -2.73482e-10 -0.001)
(-1.87367e-09 -7.85339e-10 -0.000999998)
(-1.67175e-09 -7.69551e-10 -0.000999999)
(-1.31917e-09 -7.69317e-10 -0.000999999)
(-8.47759e-10 -7.74401e-10 -0.001)
(-2.89904e-10 -7.71794e-10 -0.001)
(-1.85856e-09 -1.19233e-09 -0.000999999)
(-1.66358e-09 -1.18624e-09 -0.000999999)
(-1.32024e-09 -1.18709e-09 -0.001)
(-8.48845e-10 -1.18631e-09 -0.001)
(-2.8966e-10 -1.18338e-09 -0.001)
(-1.83567e-09 -1.553e-09 -0.000999999)
(-1.66669e-09 -1.5257e-09 -0.001)
(-1.31943e-09 -1.5163e-09 -0.001)
(-8.46482e-10 -1.50493e-09 -0.001)
(-2.89312e-10 -1.50085e-09 -0.001)
(-1.84027e-09 -1.70287e-09 -0.001)
(-1.6268e-09 -1.72984e-09 -0.001)
(-1.29956e-09 -1.70601e-09 -0.001)
(-8.36467e-10 -1.69313e-09 -0.001)
(-2.88546e-10 -1.68735e-09 -0.001)
(-2.58187e-09 -3.73915e-10 -0.000999998)
(-2.30536e-09 -3.70945e-10 -0.000999998)
(-1.82478e-09 -3.76418e-10 -0.000999999)
(-1.17639e-09 -3.81289e-10 -0.001)
(-4.04041e-10 -3.77395e-10 -0.001)
(-2.58054e-09 -1.06489e-09 -0.000999998)
(-2.31223e-09 -1.06564e-09 -0.000999999)
(-1.83863e-09 -1.07751e-09 -0.000999999)
(-1.18028e-09 -1.08485e-09 -0.001)
(-4.01581e-10 -1.08062e-09 -0.001)
(-2.57747e-09 -1.65691e-09 -0.000999998)
(-2.32239e-09 -1.66729e-09 -0.000999999)
(-1.84754e-09 -1.67452e-09 -0.001)
(-1.18389e-09 -1.67492e-09 -0.001)
(-4.0267e-10 -1.67577e-09 -0.001)
(-2.5585e-09 -2.18617e-09 -0.000999999)
(-2.32994e-09 -2.15281e-09 -0.001)
(-1.84641e-09 -2.13956e-09 -0.001)
(-1.18496e-09 -2.13201e-09 -0.001)
(-4.05729e-10 -2.13446e-09 -0.001)
(-2.5309e-09 -2.43922e-09 -0.001)
(-2.27592e-09 -2.42954e-09 -0.001)
(-1.82688e-09 -2.39371e-09 -0.001)
(-1.1831e-09 -2.38279e-09 -0.001)
(-4.09294e-10 -2.38119e-09 -0.001)
(-3.50445e-09 -5.06691e-10 -0.000999997)
(-3.1273e-09 -5.0919e-10 -0.000999998)
(-2.49411e-09 -5.17824e-10 -0.000999999)
(-1.60734e-09 -5.22952e-10 -0.000999999)
(-5.50934e-10 -5.19762e-10 -0.001)
(-3.51219e-09 -1.4642e-09 -0.000999997)
(-3.14433e-09 -1.48012e-09 -0.000999998)
(-2.51264e-09 -1.50023e-09 -0.000999999)
(-1.61336e-09 -1.51065e-09 -0.001)
(-5.49779e-10 -1.50968e-09 -0.001)
(-3.52416e-09 -2.32176e-09 -0.000999998)
(-3.16939e-09 -2.33805e-09 -0.000999999)
(-2.52961e-09 -2.35014e-09 -0.001)
(-1.62293e-09 -2.3564e-09 -0.001)
(-5.53942e-10 -2.36095e-09 -0.001)
(-3.51324e-09 -3.06139e-09 -0.000999999)
(-3.17287e-09 -3.02335e-09 -0.001)
(-2.53134e-09 -3.00621e-09 -0.001)
(-1.62903e-09 -3.00674e-09 -0.001)
(-5.58941e-10 -3.0102e-09 -0.001)
(-3.45402e-09 -3.41443e-09 -0.001)
(-3.11415e-09 -3.38094e-09 -0.001)
(-2.51319e-09 -3.34333e-09 -0.001)
(-1.63296e-09 -3.3346e-09 -0.001)
(-5.63246e-10 -3.33304e-09 -0.001)
(-4.76964e-09 -6.92988e-10 -0.000999996)
(-4.26259e-09 -7.01796e-10 -0.000999997)
(-3.4077e-09 -7.13077e-10 -0.000999998)
(-2.19596e-09 -7.2014e-10 -0.000999999)
(-7.5391e-10 -7.20916e-10 -0.001)
(-4.78998e-09 -2.02681e-09 -0.000999996)
(-4.29072e-09 -2.05579e-09 -0.000999997)
(-3.43252e-09 -2.08375e-09 -0.000999999)
(-2.20932e-09 -2.10038e-09 -0.001)
(-7.57441e-10 -2.10428e-09 -0.001)
(-4.81829e-09 -3.23494e-09 -0.000999997)
(-4.32777e-09 -3.25263e-09 -0.000999998)
(-3.459e-09 -3.27334e-09 -0.001)
(-2.22488e-09 -3.2881e-09 -0.001)
(-7.6328e-10 -3.29107e-09 -0.001)
(-4.83514e-09 -4.22927e-09 -0.000999998)
(-4.32939e-09 -4.18465e-09 -0.001)
(-3.46841e-09 -4.17214e-09 -0.001)
(-2.23375e-09 -4.17971e-09 -0.001)
(-7.66816e-10 -4.17757e-09 -0.001)
(-4.82051e-09 -4.62314e-09 -0.001)
(-4.27065e-09 -4.64025e-09 -0.001)
(-3.45432e-09 -4.61801e-09 -0.001)
(-2.23866e-09 -4.61324e-09 -0.001)
(-7.69226e-10 -4.60905e-09 -0.001)
(-6.53096e-09 -9.58532e-10 -0.000999994)
(-5.8573e-09 -9.72596e-10 -0.000999996)
(-4.67743e-09 -9.86225e-10 -0.000999998)
(-3.01577e-09 -9.95702e-10 -0.000999999)
(-1.03849e-09 -9.99065e-10 -0.001)
(-6.56155e-09 -2.81426e-09 -0.000999995)
(-5.89604e-09 -2.85162e-09 -0.000999997)
(-4.70943e-09 -2.88541e-09 -0.000999998)
(-3.03621e-09 -2.9061e-09 -0.001)
(-1.04566e-09 -2.90919e-09 -0.001)
(-6.59851e-09 -4.46354e-09 -0.000999996)
(-5.93979e-09 -4.48786e-09 -0.000999998)
(-4.74113e-09 -4.51782e-09 -0.001)
(-3.05109e-09 -4.53619e-09 -0.001)
(-1.04912e-09 -4.53096e-09 -0.001)
(-6.64094e-09 -5.76409e-09 -0.000999997)
(-5.95068e-09 -5.72633e-09 -0.001)
(-4.75831e-09 -5.72025e-09 -0.001)
(-3.05854e-09 -5.73009e-09 -0.001)
(-1.04922e-09 -5.71989e-09 -0.001)
(-6.71198e-09 -6.24301e-09 -0.000999999)
(-5.89594e-09 -6.32122e-09 -0.001)
(-4.74524e-09 -6.31686e-09 -0.001)
(-3.0621e-09 -6.31741e-09 -0.001)
(-1.04994e-09 -6.31045e-09 -0.00100001)
(-8.96874e-09 -1.33552e-09 -0.000999992)
(-8.0734e-09 -1.35044e-09 -0.000999995)
(-6.43204e-09 -1.36383e-09 -0.000999997)
(-4.14503e-09 -1.37203e-09 -0.000999999)
(-1.42892e-09 -1.37252e-09 -0.001)
(-9.0042e-09 -3.91121e-09 -0.000999993)
(-8.11696e-09 -3.94435e-09 -0.000999996)
(-6.46586e-09 -3.97536e-09 -0.000999998)
(-4.16417e-09 -3.99033e-09 -0.001)
(-1.43464e-09 -3.98375e-09 -0.001)
(-9.03647e-09 -6.14023e-09 -0.000999994)
(-8.1532e-09 -6.16119e-09 -0.000999997)
(-6.49073e-09 -6.19148e-09 -0.001)
(-4.16926e-09 -6.20398e-09 -0.001)
(-1.43268e-09 -6.1869e-09 -0.001)
(-9.08554e-09 -7.82572e-09 -0.000999997)
(-8.1687e-09 -7.79924e-09 -0.001)
(-6.50941e-09 -7.79813e-09 -0.001)
(-4.17211e-09 -7.8057e-09 -0.001)
(-1.42956e-09 -7.78724e-09 -0.001)
(-9.21313e-09 -8.49157e-09 -0.000999999)
(-8.12563e-09 -8.60657e-09 -0.001)
(-6.49767e-09 -8.61324e-09 -0.001)
(-4.17381e-09 -8.61682e-09 -0.00100001)
(-1.42919e-09 -8.60489e-09 -0.00100001)
(-1.23051e-08 -1.85857e-09 -0.000999989)
(-1.1105e-08 -1.86773e-09 -0.000999993)
(-8.82371e-09 -1.8751e-09 -0.000999996)
(-5.67483e-09 -1.87623e-09 -0.000999999)
(-1.95383e-09 -1.86965e-09 -0.001)
(-1.23386e-08 -5.41774e-09 -0.00099999)
(-1.11424e-08 -5.43001e-09 -0.000999994)
(-8.84895e-09 -5.44443e-09 -0.000999998)
(-5.68364e-09 -5.44292e-09 -0.001)
(-1.95439e-09 -5.42199e-09 -0.001)
(-1.23527e-08 -8.43431e-09 -0.000999993)
(-1.11532e-08 -8.4352e-09 -0.000999997)
(-8.85405e-09 -8.45235e-09 -0.001)
(-5.67401e-09 -8.45046e-09 -0.001)
(-1.94701e-09 -8.42069e-09 -0.001)
(-1.23899e-08 -1.06732e-08 -0.000999996)
(-1.11612e-08 -1.06376e-08 -0.001)
(-8.86526e-09 -1.06331e-08 -0.001)
(-5.66904e-09 -1.06287e-08 -0.00100001)
(-1.941e-09 -1.05982e-08 -0.00100001)
(-1.25715e-08 -1.15865e-08 -0.000999999)
(-1.11131e-08 -1.17387e-08 -0.001)
(-8.84577e-09 -1.17507e-08 -0.00100001)
(-5.66011e-09 -1.17515e-08 -0.00100001)
(-1.93688e-09 -1.17298e-08 -0.00100001)
(-1.68329e-08 -2.56753e-09 -0.000999986)
(-1.52042e-08 -2.56439e-09 -0.000999991)
(-1.20551e-08 -2.55943e-09 -0.000999995)
(-7.73626e-09 -2.55044e-09 -0.000999998)
(-2.65906e-09 -2.53685e-09 -0.001)
(-1.68557e-08 -7.45278e-09 -0.000999987)
(-1.52246e-08 -7.43488e-09 -0.000999992)
(-1.20639e-08 -7.42029e-09 -0.000999997)
(-7.73306e-09 -7.3975e-09 -0.001)
(-2.65519e-09 -7.36308e-09 -0.001)
(-1.68378e-08 -1.15519e-08 -0.00099999)
(-1.52011e-08 -1.15275e-08 -0.000999996)
(-1.20415e-08 -1.15171e-08 -0.001)
(-7.70852e-09 -1.14945e-08 -0.001)
(-2.6439e-09 -1.14514e-08 -0.001)
(-1.68439e-08 -1.45568e-08 -0.000999995)
(-1.51908e-08 -1.45311e-08 -0.001)
(-1.20324e-08 -1.45057e-08 -0.001)
(-7.69065e-09 -1.44776e-08 -0.00100001)
(-2.63444e-09 -1.44297e-08 -0.00100001)
(-1.70054e-08 -1.59417e-08 -0.001)
(-1.51501e-08 -1.6034e-08 -0.001)
(-1.1989e-08 -1.60372e-08 -0.00100001)
(-7.66115e-09 -1.6025e-08 -0.00100001)
(-2.62381e-09 -1.59889e-08 -0.00100001)
(-2.2966e-08 -3.51585e-09 -0.000999981)
(-2.07328e-08 -3.49671e-09 -0.000999988)
(-1.64259e-08 -3.47719e-09 -0.000999994)
(-1.05309e-08 -3.45947e-09 -0.000999998)
(-3.6171e-09 -3.44113e-09 -0.001)
(-2.29747e-08 -1.01833e-08 -0.000999983)
(-2.07328e-08 -1.01346e-08 -0.00099999)
(-1.64195e-08 -1.00864e-08 -0.000999996)
(-1.05211e-08 -1.00437e-08 -0.001)
(-3.61196e-09 -9.99867e-09 -0.001)
(-2.29164e-08 -1.57679e-08 -0.000999987)
(-2.06759e-08 -1.57239e-08 -0.000999994)
(-1.63673e-08 -1.56747e-08 -0.001)
(-1.04832e-08 -1.5627e-08 -0.001)
(-3.59822e-09 -1.55697e-08 -0.00100001)
(-2.28626e-08 -1.98327e-08 -0.000999993)
(-2.06408e-08 -1.98134e-08 -0.001)
(-1.63245e-08 -1.97565e-08 -0.00100001)
(-1.04478e-08 -1.9701e-08 -0.00100001)
(-3.58508e-09 -1.96342e-08 -0.00100001)
(-2.28953e-08 -2.19653e-08 -0.001)
(-2.05997e-08 -2.19114e-08 -0.00100001)
(-1.62561e-08 -2.18702e-08 -0.00100001)
(-1.04e-08 -2.1832e-08 -0.00100002)
(-3.5694e-09 -2.17751e-08 -0.00100002)
(-3.13066e-08 -4.78606e-09 -0.000999974)
(-2.82376e-08 -4.752e-09 -0.000999984)
(-2.23791e-08 -4.71971e-09 -0.000999992)
(-1.43502e-08 -4.69568e-09 -0.000999998)
(-4.93005e-09 -4.67395e-09 -0.001)
(-3.13059e-08 -1.38655e-08 -0.000999977)
(-2.82238e-08 -1.37873e-08 -0.000999987)
(-2.23646e-08 -1.37057e-08 -0.000999995)
(-1.43401e-08 -1.36448e-08 -0.001)
(-4.92625e-09 -1.35896e-08 -0.001)
(-3.12041e-08 -2.14998e-08 -0.000999983)
(-2.81321e-08 -2.14236e-08 -0.000999992)
(-2.22805e-08 -2.13249e-08 -0.001)
(-1.42886e-08 -2.12468e-08 -0.00100001)
(-4.9104e-09 -2.1172e-08 -0.00100001)
(-3.1069e-08 -2.70169e-08 -0.000999991)
(-2.80506e-08 -2.69744e-08 -0.001)
(-2.21904e-08 -2.68714e-08 -0.00100001)
(-1.42303e-08 -2.67845e-08 -0.00100001)
(-4.89271e-09 -2.66963e-08 -0.00100002)
(-3.09111e-08 -3.01202e-08 -0.001)
(-2.79867e-08 -2.9906e-08 -0.00100001)
(-2.20922e-08 -2.97931e-08 -0.00100002)
(-1.41666e-08 -2.97152e-08 -0.00100002)
(-4.87373e-09 -2.96258e-08 -0.00100003)
(-4.27027e-08 -6.50833e-09 -0.000999965)
(-3.85018e-08 -6.4611e-09 -0.000999978)
(-3.05305e-08 -6.41616e-09 -0.000999989)
(-1.95884e-08 -6.38496e-09 -0.000999997)
(-6.733e-09 -6.35842e-09 -0.001)
(-4.26951e-08 -1.88817e-08 -0.000999969)
(-3.84811e-08 -1.8766e-08 -0.000999982)
(-3.05113e-08 -1.86447e-08 -0.000999993)
(-1.95793e-08 -1.85604e-08 -0.001)
(-6.73087e-09 -1.84892e-08 -0.00100001)
(-4.25347e-08 -2.93406e-08 -0.000999977)
(-3.83388e-08 -2.91961e-08 -0.00099999)
(-3.03846e-08 -2.9026e-08 -0.001)
(-1.9507e-08 -2.89055e-08 -0.00100001)
(-6.7102e-09 -2.88031e-08 -0.00100001)
(-4.22942e-08 -3.68975e-08 -0.000999987)
(-3.81689e-08 -3.67457e-08 -0.001)
(-3.02244e-08 -3.65602e-08 -0.00100001)
(-1.94149e-08 -3.64235e-08 -0.00100002)
(-6.68455e-09 -3.63029e-08 -0.00100002)
(-4.19498e-08 -4.11339e-08 -0.001)
(-3.80015e-08 -4.07695e-08 -0.00100001)
(-3.00646e-08 -4.05632e-08 -0.00100002)
(-1.9322e-08 -4.04286e-08 -0.00100003)
(-6.65987e-09 -4.02911e-08 -0.00100004)
(-5.83042e-08 -8.86531e-09 -0.000999952)
(-5.25724e-08 -8.79983e-09 -0.00099997)
(-4.17039e-08 -8.73724e-09 -0.000999985)
(-2.67694e-08 -8.69359e-09 -0.000999996)
(-9.20475e-09 -8.65744e-09 -0.001)
(-5.82798e-08 -2.57459e-08 -0.000999958)
(-5.25418e-08 -2.55692e-08 -0.000999976)
(-4.16753e-08 -2.53919e-08 -0.000999991)
(-2.67559e-08 -2.52701e-08 -0.001)
(-9.20191e-09 -2.51701e-08 -0.00100001)
(-5.80247e-08 -4.00564e-08 -0.000999968)
(-5.23192e-08 -3.97986e-08 -0.000999986)
(-4.14862e-08 -3.95302e-08 -0.001)
(-2.66487e-08 -3.93489e-08 -0.00100001)
(-9.17071e-09 -3.92027e-08 -0.00100002)
(-5.76446e-08 -5.03935e-08 -0.000999983)
(-5.20188e-08 -5.00828e-08 -0.001)
(-4.12305e-08 -4.97785e-08 -0.00100002)
(-2.65083e-08 -4.95707e-08 -0.00100003)
(-9.1323e-09 -4.94003e-08 -0.00100003)
(-5.70854e-08 -5.61282e-08 -0.001)
(-5.17043e-08 -5.55627e-08 -0.00100002)
(-4.0977e-08 -5.52264e-08 -0.00100003)
(-2.63693e-08 -5.50081e-08 -0.00100004)
(-9.09628e-09 -5.48025e-08 -0.00100005)
(-7.96571e-08 -1.20911e-08 -0.000999935)
(-7.18434e-08 -1.19948e-08 -0.000999959)
(-5.70039e-08 -1.19051e-08 -0.00099998)
(-3.65987e-08 -1.18404e-08 -0.000999996)
(-1.25868e-08 -1.17876e-08 -0.001)
(-7.95997e-08 -3.51258e-08 -0.000999942)
(-7.17901e-08 -3.48504e-08 -0.000999967)
(-5.69554e-08 -3.45922e-08 -0.000999988)
(-3.65716e-08 -3.4412e-08 -0.001)
(-1.25794e-08 -3.42661e-08 -0.00100001)
(-7.92052e-08 -5.46552e-08 -0.000999957)
(-7.14472e-08 -5.42387e-08 -0.000999981)
(-5.66764e-08 -5.38436e-08 -0.001)
(-3.64105e-08 -5.35769e-08 -0.00100002)
(-1.2531e-08 -5.33635e-08 -0.00100003)
(-7.86463e-08 -6.87286e-08 -0.000999977)
(-7.09828e-08 -6.82497e-08 -0.001)
(-5.63002e-08 -6.7801e-08 -0.00100002)
(-3.62005e-08 -6.74961e-08 -0.00100004)
(-1.24706e-08 -6.72414e-08 -0.00100004)
(-7.78602e-08 -7.64926e-08 -0.001)
(-7.05198e-08 -7.57099e-08 -0.00100002)
(-5.5927e-08 -7.51905e-08 -0.00100004)
(-3.59856e-08 -7.48444e-08 -0.00100006)
(-1.24073e-08 -7.45372e-08 -0.00100007)
(-1.08866e-07 -1.64963e-08 -0.000999911)
(-9.82124e-08 -1.63491e-08 -0.000999945)
(-7.79333e-08 -1.62164e-08 -0.000999974)
(-5.00404e-08 -1.6119e-08 -0.000999994)
(-1.72109e-08 -1.60413e-08 -0.00100001)
(-1.08751e-07 -4.79246e-08 -0.000999922)
(-9.81133e-08 -4.74939e-08 -0.000999955)
(-7.78475e-08 -4.71132e-08 -0.000999984)
(-4.99887e-08 -4.68435e-08 -0.001)
(-1.71953e-08 -4.66284e-08 -0.00100002)
(-1.08156e-07 -7.45551e-08 -0.000999941)
(-9.75883e-08 -7.39036e-08 -0.000999975)
(-7.74343e-08 -7.33251e-08 -0.001)
(-4.97438e-08 -7.29261e-08 -0.00100002)
(-1.71188e-08 -7.26018e-08 -0.00100003)
(-1.07346e-07 -9.37419e-08 -0.000999969)
(-9.68892e-08 -9.30103e-08 -0.001)
(-7.68791e-08 -9.23403e-08 -0.00100003)
(-4.94143e-08 -9.18693e-08 -0.00100005)
(-1.7014e-08 -9.1462e-08 -0.00100006)
(-1.06275e-07 -1.04183e-07 -0.001)
(-9.61869e-08 -1.0313e-07 -0.00100003)
(-7.6299e-08 -1.02336e-07 -0.00100006)
(-4.90494e-08 -1.01783e-07 -0.00100008)
(-1.68903e-08 -1.01313e-07 -0.00100009)
(-1.48815e-07 -2.25068e-08 -0.000999879)
(-1.3428e-07 -2.22751e-08 -0.000999925)
(-1.06558e-07 -2.20734e-08 -0.000999965)
(-6.84261e-08 -2.19268e-08 -0.000999993)
(-2.35368e-08 -2.18128e-08 -0.00100001)
(-1.48601e-07 -6.53786e-08 -0.000999893)
(-1.34093e-07 -6.47033e-08 -0.000999939)
(-1.06407e-07 -6.41289e-08 -0.000999978)
(-6.83337e-08 -6.37201e-08 -0.00100001)
(-2.35074e-08 -6.33964e-08 -0.00100002)
(-1.47701e-07 -1.01698e-07 -0.00099992)
(-1.33286e-07 -1.00674e-07 -0.000999966)
(-1.05781e-07 -9.98e-08 -0.001)
(-6.79502e-08 -9.91804e-08 -0.00100003)
(-2.3381e-08 -9.86767e-08 -0.00100005)
(-1.46483e-07 -1.27929e-07 -0.000999957)
(-1.32204e-07 -1.26726e-07 -0.001)
(-1.04925e-07 -1.2567e-07 -0.00100004)
(-6.74135e-08 -1.24902e-07 -0.00100007)
(-2.3199e-08 -1.24254e-07 -0.00100008)
(-1.44936e-07 -1.4193e-07 -0.001)
(-1.31028e-07 -1.40402e-07 -0.00100005)
(-1.03966e-07 -1.39178e-07 -0.00100008)
(-6.6785e-08 -1.38295e-07 -0.00100011)
(-2.29772e-08 -1.37574e-07 -0.00100013)
(-2.03483e-07 -3.06948e-08 -0.000999835)
(-1.83633e-07 -3.03319e-08 -0.000999899)
(-1.45743e-07 -3.00243e-08 -0.000999952)
(-9.36029e-08 -2.9803e-08 -0.000999992)
(-3.22015e-08 -2.96326e-08 -0.00100001)
(-2.03107e-07 -8.9149e-08 -0.000999855)
(-1.83297e-07 -8.81058e-08 -0.000999918)
(-1.45482e-07 -8.72303e-08 -0.000999971)
(-9.34402e-08 -8.66019e-08 -0.00100001)
(-3.21465e-08 -8.61115e-08 -0.00100003)
(-2.0174e-07 -1.38661e-07 -0.000999892)
(-1.82062e-07 -1.37075e-07 -0.000999954)
(-1.4452e-07 -1.35729e-07 -0.00100001)
(-9.28338e-08 -1.34755e-07 -0.00100005)
(-3.19401e-08 -1.3399e-07 -0.00100007)
(-1.99871e-07 -1.7447e-07 -0.000999942)
(-1.80376e-07 -1.72531e-07 -0.001)
(-1.43178e-07 -1.70854e-07 -0.00100006)
(-9.19778e-08 -1.69616e-07 -0.00100009)
(-3.16474e-08 -1.68638e-07 -0.00100011)
(-1.97553e-07 -1.93305e-07 -0.001)
(-1.78446e-07 -1.90998e-07 -0.00100006)
(-1.41615e-07 -1.89112e-07 -0.00100011)
(-9.09588e-08 -1.87732e-07 -0.00100015)
(-3.12949e-08 -1.86648e-07 -0.00100017)
(-2.78385e-07 -4.18412e-08 -0.000999776)
(-2.51253e-07 -4.1288e-08 -0.000999862)
(-1.99463e-07 -4.08201e-08 -0.000999936)
(-1.28129e-07 -4.04811e-08 -0.00099999)
(-4.4085e-08 -4.02265e-08 -0.00100002)
(-2.77756e-07 -1.2151e-07 -0.000999802)
(-2.50688e-07 -1.19929e-07 -0.000999889)
(-1.9902e-07 -1.18589e-07 -0.000999962)
(-1.27847e-07 -1.17618e-07 -0.00100002)
(-4.39878e-08 -1.16887e-07 -0.00100004)
(-2.7568e-07 -1.88969e-07 -0.000999852)
(-2.48806e-07 -1.86547e-07 -0.000999938)
(-1.97535e-07 -1.8447e-07 -0.00100001)
(-1.26903e-07 -1.8296e-07 -0.00100006)
(-4.3666e-08 -1.81826e-07 -0.00100009)
(-2.72807e-07 -2.37738e-07 -0.000999921)
(-2.46204e-07 -2.34709e-07 -0.00100001)
(-1.95457e-07 -2.32092e-07 -0.00100008)
(-1.2558e-07 -2.3017e-07 -0.00100013)
(-4.32164e-08 -2.28737e-07 -0.00100016)
(-2.69285e-07 -2.63178e-07 -0.001)
(-2.43161e-07 -2.59658e-07 -0.00100008)
(-1.93011e-07 -2.56763e-07 -0.00100015)
(-1.24013e-07 -2.54646e-07 -0.00100021)
(-4.26866e-08 -2.53045e-07 -0.00100023)
(-3.81144e-07 -5.70453e-08 -0.000999695)
(-3.44052e-07 -5.6206e-08 -0.000999813)
(-2.7321e-07 -5.54897e-08 -0.000999915)
(-1.75541e-07 -5.49669e-08 -0.000999989)
(-6.04071e-08 -5.45914e-08 -0.00100003)
(-3.80114e-07 -1.6564e-07 -0.000999731)
(-3.43117e-07 -1.63237e-07 -0.000999849)
(-2.72468e-07 -1.61181e-07 -0.00099995)
(-1.75068e-07 -1.59686e-07 -0.00100002)
(-6.02462e-08 -1.58602e-07 -0.00100006)
(-3.76941e-07 -2.57516e-07 -0.000999799)
(-3.40238e-07 -2.5381e-07 -0.000999916)
(-2.70181e-07 -2.50625e-07 -0.00100002)
(-1.73612e-07 -2.48312e-07 -0.00100009)
(-5.97496e-08 -2.4663e-07 -0.00100013)
(-3.72529e-07 -3.23824e-07 -0.000999893)
(-3.36247e-07 -3.19141e-07 -0.00100001)
(-2.67001e-07 -3.15131e-07 -0.00100011)
(-1.71589e-07 -3.1221e-07 -0.00100018)
(-5.90605e-08 -3.10102e-07 -0.00100022)
(-3.67178e-07 -3.58186e-07 -0.001)
(-3.31545e-07 -3.52846e-07 -0.00100012)
(-2.63269e-07 -3.4841e-07 -0.00100021)
(-1.69217e-07 -3.45178e-07 -0.00100028)
(-5.82607e-08 -3.42824e-07 -0.00100032)
(-5.22238e-07 -7.78327e-08 -0.000999584)
(-4.71543e-07 -7.65439e-08 -0.000999747)
(-3.7457e-07 -7.54405e-08 -0.000999886)
(-2.40743e-07 -7.46356e-08 -0.000999988)
(-8.28627e-08 -7.40764e-08 -0.00100004)
(-5.2055e-07 -2.25924e-07 -0.000999633)
(-4.69996e-07 -2.22235e-07 -0.000999796)
(-3.73338e-07 -2.19078e-07 -0.000999934)
(-2.39958e-07 -2.16775e-07 -0.00100004)
(-8.25963e-08 -2.15154e-07 -0.00100009)
(-5.15673e-07 -3.51026e-07 -0.000999726)
(-4.65576e-07 -3.45339e-07 -0.000999887)
(-3.69821e-07 -3.40473e-07 -0.00100002)
(-2.37706e-07 -3.36923e-07 -0.00100012)
(-8.18243e-08 -3.34408e-07 -0.00100018)
(-5.08917e-07 -4.41082e-07 -0.000999854)
(-4.59472e-07 -4.33908e-07 -0.00100001)
(-3.64965e-07 -4.27793e-07 -0.00100015)
(-2.34596e-07 -4.23337e-07 -0.00100024)
(-8.07585e-08 -4.20186e-07 -0.0010003)
(-5.00856e-07 -4.87389e-07 -0.001)
(-4.52289e-07 -4.79352e-07 -0.00100016)
(-3.59276e-07 -4.72558e-07 -0.00100029)
(-2.30965e-07 -4.67592e-07 -0.00100038)
(-7.95189e-08 -4.641e-07 -0.00100044)
(-7.16073e-07 -1.06282e-07 -0.000999432)
(-6.46842e-07 -1.04299e-07 -0.000999657)
(-5.14068e-07 -1.02599e-07 -0.000999849)
(-3.3056e-07 -1.01353e-07 -0.000999989)
(-1.13813e-07 -1.00507e-07 -0.00100006)
(-7.13321e-07 -3.08369e-07 -0.0009995)
(-6.44311e-07 -3.02702e-07 -0.000999723)
(-5.12044e-07 -2.97846e-07 -0.000999914)
(-3.29258e-07 -2.94276e-07 -0.00100005)
(-1.13366e-07 -2.91828e-07 -0.00100013)
(-7.05825e-07 -4.78761e-07 -0.000999628)
(-6.37518e-07 -4.70041e-07 -0.000999848)
(-5.06612e-07 -4.62576e-07 -0.00100004)
(-3.25754e-07 -4.57085e-07 -0.00100017)
(-1.12161e-07 -4.53289e-07 -0.00100025)
(-6.95473e-07 -6.01059e-07 -0.000999802)
(-6.28166e-07 -5.90065e-07 -0.00100002)
(-4.99147e-07 -5.80677e-07 -0.0010002)
(-3.20931e-07 -5.73801e-07 -0.00100034)
(-1.10496e-07 -5.69036e-07 -0.00100041)
(-6.83254e-07 -6.63368e-07 -0.00100001)
(-6.17138e-07 -6.51142e-07 -0.00100022)
(-4.90384e-07 -6.40681e-07 -0.0010004)
(-3.15293e-07 -6.32995e-07 -0.00100053)
(-1.08549e-07 -6.27757e-07 -0.0010006)
(-9.82546e-07 -1.45256e-07 -0.000999226)
(-8.88143e-07 -1.42223e-07 -0.000999535)
(-7.06389e-07 -1.39601e-07 -0.000999799)
(-4.54557e-07 -1.37654e-07 -0.000999993)
(-1.56572e-07 -1.36361e-07 -0.0010001)
(-9.78119e-07 -4.2128e-07 -0.000999318)
(-8.84056e-07 -4.12597e-07 -0.000999625)
(-7.03074e-07 -4.05094e-07 -0.000999888)
(-4.52395e-07 -3.99521e-07 -0.00100008)
(-1.55825e-07 -3.95784e-07 -0.00100018)
(-9.66634e-07 -6.5353e-07 -0.000999493)
(-8.73591e-07 -6.40146e-07 -0.000999796)
(-6.94635e-07 -6.28618e-07 -0.00100005)
(-4.46903e-07 -6.20061e-07 -0.00100024)
(-1.53926e-07 -6.14281e-07 -0.00100034)
(-9.50774e-07 -8.19562e-07 -0.000999732)
(-8.59197e-07 -8.02656e-07 -0.00100003)
(-6.83069e-07 -7.88159e-07 -0.00100028)
(-4.39371e-07 -7.77463e-07 -0.00100046)
(-1.51313e-07 -7.70225e-07 -0.00100056)
(-9.32076e-07 -9.03156e-07 -0.00100001)
(-8.4219e-07 -8.84366e-07 -0.0010003)
(-6.69491e-07 -8.68226e-07 -0.00100054)
(-4.30581e-07 -8.56329e-07 -0.00100072)
(-1.48265e-07 -8.48411e-07 -0.00100082)
(-1.34914e-06 -1.98768e-07 -0.000998942)
(-1.22075e-06 -1.94139e-07 -0.000999368)
(-9.72107e-07 -1.90067e-07 -0.000999734)
(-6.26247e-07 -1.86998e-07 -0.001)
(-2.15857e-07 -1.84988e-07 -0.00100015)
(-1.34211e-06 -5.76231e-07 -0.00099907)
(-1.21418e-06 -5.62939e-07 -0.000999492)
(-9.66674e-07 -5.51285e-07 -0.000999855)
(-6.22639e-07 -5.42511e-07 -0.00100012)
(-2.14594e-07 -5.36721e-07 -0.00100026)
(-1.32457e-06 -8.93029e-07 -0.00099931)
(-1.19803e-06 -8.7251e-07 -0.000999725)
(-9.53483e-07 -8.54629e-07 -0.00100008)
(-6.13948e-07 -8.41206e-07 -0.00100034)
(-2.11562e-07 -8.32323e-07 -0.00100048)
(-1.30037e-06 -1.11817e-06 -0.000999638)
(-1.17585e-06 -1.09228e-06 -0.00100004)
(-9.3548e-07 -1.06988e-06 -0.00100039)
(-6.02131e-07 -1.05318e-06 -0.00100064)
(-2.0745e-07 -1.04215e-06 -0.00100078)
(-1.27178e-06 -1.22977e-06 -0.00100002)
(-1.14974e-06 -1.2009e-06 -0.00100041)
(-9.1445e-07 -1.17605e-06 -0.00100075)
(-5.88425e-07 -1.15768e-06 -0.00100099)
(-2.02695e-07 -1.14566e-06 -0.00100112)
(-1.85369e-06 -2.72475e-07 -0.000998553)
(-1.67987e-06 -2.65384e-07 -0.00099914)
(-1.34028e-06 -2.59005e-07 -0.000999647)
(-8.64982e-07 -2.54093e-07 -0.00100002)
(-2.98468e-07 -2.50892e-07 -0.00100022)
(-1.84261e-06 -7.89474e-07 -0.000998729)
(-1.6693e-06 -7.69119e-07 -0.000999311)
(-1.33131e-06 -7.50901e-07 -0.000999812)
(-8.58877e-07 -7.36903e-07 -0.00100018)
(-2.96292e-07 -7.27759e-07 -0.00100038)
(-1.81596e-06 -1.22195e-06 -0.000999061)
(-1.64433e-06 -1.19059e-06 -0.000999631)
(-1.31052e-06 -1.16278e-06 -0.00100012)
(-8.44942e-07 -1.14154e-06 -0.00100048)
(-2.9138e-07 -1.1277e-06 -0.00100067)
(-1.77924e-06 -1.5269e-06 -0.000999511)
(-1.61023e-06 -1.48745e-06 -0.00100007)
(-1.28241e-06 -1.45288e-06 -0.00100054)
(-8.26265e-07 -1.42673e-06 -0.00100089)
(-2.84844e-07 -1.40978e-06 -0.00100108)
(-1.73577e-06 -1.67488e-06 -0.00100003)
(-1.57031e-06 -1.63072e-06 -0.00100057)
(-1.24988e-06 -1.59249e-06 -0.00100103)
(-8.04857e-07 -1.56409e-06 -0.00100136)
(-2.77392e-07 -1.54578e-06 -0.00100154)
(-2.54804e-06 -3.74381e-07 -0.000998016)
(-2.31467e-06 -3.63479e-07 -0.000998826)
(-1.85245e-06 -3.53346e-07 -0.00099953)
(-1.19905e-06 -3.45289e-07 -0.00100005)
(-4.14467e-07 -3.40046e-07 -0.00100034)
(-2.53074e-06 -1.08408e-06 -0.00099826)
(-2.29758e-06 -1.05289e-06 -0.000999061)
(-1.83742e-06 -1.02411e-06 -0.000999757)
(-1.18849e-06 -1.00131e-06 -0.00100027)
(-4.10633e-07 -9.86476e-07 -0.00100055)
(-2.49048e-06 -1.67524e-06 -0.000998719)
(-2.25883e-06 -1.62749e-06 -0.000999503)
(-1.80423e-06 -1.58398e-06 -0.00100018)
(-1.16568e-06 -1.5499e-06 -0.00100068)
(-4.02469e-07 -1.52781e-06 -0.00100095)
(-2.43521e-06 -2.08791e-06 -0.000999341)
(-2.20646e-06 -2.02813e-06 -0.0010001)
(-1.76005e-06 -1.97471e-06 -0.00100076)
(-1.13573e-06 -1.93351e-06 -0.00100124)
(-3.91851e-07 -1.90699e-06 -0.00100149)
(-2.36976e-06 -2.28216e-06 -0.00100005)
(-2.14564e-06 -2.21504e-06 -0.00100079)
(-1.70972e-06 -2.15635e-06 -0.00100142)
(-1.1021e-06 -2.11221e-06 -0.00100188)
(-3.80038e-07 -2.08414e-06 -0.00100212)
(-3.50273e-06 -5.15904e-07 -0.00099727)
(-3.19423e-06 -4.99042e-07 -0.000998388)
(-2.56917e-06 -4.82577e-07 -0.000999371)
(-1.67106e-06 -4.68938e-07 -0.00100012)
(-5.79284e-07 -4.60018e-07 -0.00100053)
(-3.4759e-06 -1.49328e-06 -0.000997609)
(-3.16626e-06 -1.44541e-06 -0.000998713)
(-2.54336e-06 -1.39909e-06 -0.000999681)
(-1.65225e-06 -1.36086e-06 -0.00100041)
(-5.72307e-07 -1.33577e-06 -0.00100081)
(-3.41565e-06 -2.30312e-06 -0.000998251)
(-3.10566e-06 -2.2306e-06 -0.000999328)
(-2.48919e-06 -2.16178e-06 -0.00100027)
(-1.6136e-06 -2.10583e-06 -0.00100097)
(-5.58143e-07 -2.06927e-06 -0.00100135)
(-3.33346e-06 -2.86123e-06 -0.000999113)
(-3.02511e-06 -2.77135e-06 -0.00100016)
(-2.41887e-06 -2.68855e-06 -0.00100106)
(-1.56444e-06 -2.62271e-06 -0.00100172)
(-5.40357e-07 -2.58018e-06 -0.00100208)
(-3.2367e-06 -3.1124e-06 -0.0010001)
(-2.93299e-06 -3.01119e-06 -0.0010011)
(-2.34073e-06 -2.92142e-06 -0.00100196)
(-1.51096e-06 -2.85239e-06 -0.0010026)
(-5.21273e-07 -2.8089e-06 -0.00100293)
(-4.81195e-06 -7.13403e-07 -0.000996223)
(-4.41624e-06 -6.86935e-07 -0.000997767)
(-3.58093e-06 -6.59274e-07 -0.000999149)
(-2.34801e-06 -6.35267e-07 -0.00100023)
(-8.1772e-07 -6.19306e-07 -0.00100083)
(-4.77061e-06 -2.06601e-06 -0.000996697)
(-4.36935e-06 -1.99201e-06 -0.000998218)
(-3.53507e-06 -1.91545e-06 -0.00099957)
(-2.31316e-06 -1.84863e-06 -0.00100062)
(-8.04449e-07 -1.80374e-06 -0.0010012)
(-4.68182e-06 -3.17921e-06 -0.000997606)
(-4.27332e-06 -3.06919e-06 -0.000999084)
(-3.44377e-06 -2.9583e-06 -0.00100038)
(-2.2444e-06 -2.86313e-06 -0.00100138)
(-7.78358e-07 -2.7995e-06 -0.00100192)
(-4.56171e-06 -3.9345e-06 -0.000998809)
(-4.1487e-06 -3.80071e-06 -0.00100023)
(-3.3294e-06 -3.6718e-06 -0.00100147)
(-2.16094e-06 -3.56428e-06 -0.0010024)
(-7.47314e-07 -3.4934e-06 -0.0010029)
(-4.42311e-06 -4.25253e-06 -0.00100018)
(-4.01064e-06 -4.10088e-06 -0.00100156)
(-3.20756e-06 -3.96429e-06 -0.00100274)
(-2.07396e-06 -3.85527e-06 -0.00100361)
(-7.15416e-07 -3.78699e-06 -0.00100407)
(-6.59697e-06 -9.89842e-07 -0.000994726)
(-6.12085e-06 -9.46946e-07 -0.000996869)
(-5.02775e-06 -8.98172e-07 -0.000998826)
(-3.34117e-06 -8.54131e-07 -0.00100042)