/*--------------------------------*- C++ -*----------------------------------*\
  =========                 |
  \\      /  F ield         | OpenFOAM: The Open Source CFD Toolbox
   \\    /   O peration     | Website:  https://openfoam.org
    \\  /    A nd           | Version:  9
     \\/     M anipulation  |
\*---------------------------------------------------------------------------*/
FoamFile
{
    format      ascii;
    class       volScalarField;
    location    "6000";
    object      p;
}
// * * * * * * * * * * * * * * * * * * * * * * * * * * * * * * * * * * * * * //

dimensions      [0 2 -2 0 0 0 0];

internalField   nonuniform List<scalar> 
720
(
-23.1102
-27.6793
-25.088
-25.362
-50.3664
-63.7478
-59.0473
-47.4959
-52.9801
-69.273
-65.1077
-51.7265
-51.0498
-67.0525
-67.1415
-57.8124
-53.5079
-62.3897
-69.5619
-62.641
-58.2663
-59.3441
-69.8602
-63.2838
-61.7989
-64.3491
-69.053
-66.742
-64.7866
-70.4462
-67.7237
-74.374
-65.0643
-72.8096
-68.5067
-78.5611
-64.2923
-73.2474
-77.9194
-80.2246
-67.1274
-77.6745
-83.8851
-87.4437
-73.448
-83.6486
-84.8577
-92.7664
-76.7015
-89.4857
-83.477
-93.7805
-76.3833
-94.5434
-81.2601
-92.5669
-78.0779
-100.036
-80.5636
-91.1424
-80.6722
-105.27
-80.9904
-90.9595
-80.6568
-104.833
-79.91
-91.3467
-81.5886
-103.647
-79.1681
-90.6165
-87.8884
-101.164
-82.4112
-95.905
-90.4054
-98.5982
-93.523
-101.315
-89.8781
-98.4424
-106.707
-105.7
-91.4195
-95.9936
-112.636
-110.546
-94.1327
-94.1729
-112.562
-110.916
-95.7687
-96.9137
-110.41
-110.062
-97.2341
-101.577
-114.792
-110.244
-98.7806
-101.64
-119.4
-109.563
-104.746
-103.357
-120.198
-114.953
-112.805
-115.184
-117.874
-121.022
-120.814
-122.094
-115.37
-122.249
-128.587
-122.553
-119.168
-120.438
-132.597
-120.937
-140.415
-120.158
-135.015
-123.96
-152.13
-120.175
-137.371
-128.632
-155.476
-124.804
-139.933
-133.214
-154.367
-140.513
-146.428
-137.699
-149.688
-148.096
-150.685
-140.643
-154.242
-148.735
-154.73
-143.979
-180.614
-148.492
-157.812
-144.685
-194.363
-153.507
-159.715
-148.451
-195.265
-156.641
-165.581
-159.17
-188.878
-159.841
-171.942
-163.885
-185.861
-162.008
-178.369
-166.171
-183.993
-159.88
-184.223
-168.713
-182.242
-153.681
-186.819
-169.908
-180.863
-158.528
-187.365
-172.172
-185.77
-169.405
-188.209
-175.689
-192.111
-171.276
-189.19
-176.725
-193.529
-170.846
-189.813
-176.932
-191.695
-184.868
-190.879
-180.65
-192.309
-203.281
-191.939
-183.806
-198.025
-211.247
-199.059
-184.334
-204.44
-209.351
-206.358
-183.873
-207.337
-208.658
-208.44
-186.415
-210.762
-211.708
-207.461
-192.108
-216.554
-210.239
-210.315
-196.999
-219.098
-212.208
-214.708
-201.877
-221.073
-215.591
-224.177
-207.328
-225.599
-213.989
-232.726
-212.583
-232.053
-208.827
-241.29
-217.394
-238.305
-209.187
-247.91
-219.883
-242.558
-221.621
-248.043
-219.703
-244.902
-235.393
-245.062
-219.701
-248.035
-241.379
-240.367
-221.486
-254.32
-240.292
-239.716
-223.218
-258.937
-235.903
-241.509
-223.883
-264.647
-236.219
-239.069
-222.779
-269.458
-244.796
-235.812
-220.983
-272.506
-255.315
-232.267
-218.92
-279.613
-260.952
-228.66
-216.359
-286.765
-264.476
-224.758
-213.761
-294.424
-266.905
-220.542
-210.879
-300.201
-266.643
-222.876
-210.841
-303.681
-269.769
-242.784
-211.657
-312.838
-272.996
-253.919
-212.682
-321.103
-273.847
-257.524
-215.295
-330.841
-274.337
-261.393
-215.97
-341.588
-273.981
-268.738
-218.792
-346.83
-274.126
-285.935
-220.875
-351.586
-278.081
-304.601
-220.165
-366.926
-285.927
-320.13
-220.213
-379.25
-293.201
-331.92
-220.702
-385.961
-302.425
-344.695
-221.077
-399.641
-315.14
-359.987
-219.591
-425.103
-326.925
-374.877
-214.692
-455.148
-340.721
-392.202
-210.471
-474.557
-354.364
-411.747
-207.273
-484.815
-365.538
-433.552
-197.94
-502.306
-376.825
-456.524
-184.622
-540.855
-389.596
-480.779
-173.006
-576.29
-400.038
-506.659
-158.071
-614.993
-409.461
-528.615
-139.926
-668.617
-421.709
-552.047
-119.102
-725.372
-436.604
-572.182
-95.1288
-757.87
-450.54
-589.274
-65.5746
-778.967
-462.85
-618.476
-32.911
-804.604
-475.915
-653.579
3.49885
-839.09
-492.98
-687.443
45.6527
-900.234
-519.27
-741.453
92.0374
-985.518
-548.211
-808.881
142.712
-1071.51
-580.922
-883.326
197.6
-1178.6
-621.009
-982.712
256.174
-1296.98
-671.2
-1100.58
315.586
-1419.18
-728.622
-1261.64
377.907
-1557.22
-804.955
-1429.75
432.671
-1709.18
-900.289
-1617.61
481.854
-1879.3
-1039.29
-1930.57
485.62
-2067.63
-1269.76
-2744.73
436.623
-2275.7
-1772.66
-3848.88
306.103
-2540.79
-2625.2
-4964.32
112.358
-2850.06
-3824.47
-5866.52
-160.375
-3173.55
-4983.88
-6547.45
-494.757
-3493.28
-6046.72
-7007.3
-898.185
-3792.61
-7017.08
-7288.74
-1348.95
-4074.29
-7833.11
-7402.27
-1811.9
-4331.28
-8471.61
-7374.14
-2286.67
-4549.25
-8913.28
-7252.15
-2783.11
-4758.5
-9160.03
-7081.27
-3301.97
-4911.4
-9206.47
-6916.21
-3846.13
-5044.05
-9115.84
-6784.41
-4427.42
-5214.69
-8901.57
-6709.63
-5021.06
-5362.36
-8647.97
-6691.32
-5540.19
-5505.91
-8383.41
-6727.05
-6007.24
-5658.24
-8155.58
-6802.23
-6271.87
-5825.08
-7965.8
-6907.31
-6331.56
-5991.45
-7817.42
-7023.24
-6439.76
-6159.44
-7700.81
-7144.92
-6773.7
-6316.75
-7590.25
-7268.62
-7436.32
-6458.45
-7512.49
-7388.53
-8070.14
-6588.05
-7473.8
-7499.93
-8721.16
-6696.17
-7441.09
-7596.26
-9349.65
-6784.02
-7414.84
-7677.49
-9936.41
-6851.71
-7392.45
-7738.45
-10469.7
-6898.91
-7374.32
-7778.96
-10936.9
-6921.49
-7346.88
-7797.33
-11329.3
-6935.9
-7335.7
-7793.18
-11639.6
-6913.52
-7319.59
-7765.92
-11869.1
-6890.51
-7310.06
-7717.83
-12008.4
-6883.18
-7302.35
-7645.44
-12054.2
-6882.94
-7281.72
-7562.13
-11974.9
-6842.45
-7274.44
-7474.6
-11769
-6791
-7241.62
-7384.49
-11420.7
-6740.91
-7223.48
-7294.08
-10929.9
-6698.71
-7181.08
-7194.42
-10297.3
-6657.76
-7130.02
-7112.56
-9535.4
-6620.7
-7077.2
-7040.8
-8709.26
-6573.74
-7021.6
-6960.18
-7863.09
-6527.47
-6976.72
-6870.62
-7065.74
-6475.9
-6924.58
-6766.13
-6400.32
-6410.29
-6873.02
-6674
-5902.94
-6352.96
-6811.67
-6591.37
-5550.18
-6276
-6762.12
-6521.9
-5350.44
-6218.14
-6738.83
-6471.15
-5259.73
-6182.55
-6719.09
-6428.71
-5259.41
-6161.96
-6696.39
-6402.07
-5311.21
-6184.9
-6666.66
-6387.26
-5396.68
-6211.47
-6627.95
-6390.34
-5497.07
-6209.12
-6571.54
-6395.2
-5630.1
-6146.76
-6460.92
-6403.61
-5647.15
-5976
-6277.19
-6420.42
-5603.41
-5667.3
-5985.75
-6372.44
-5328.8
-5269.33
-5593.27
-6158.89
-4817.95
-4873.73
-5091.71
-5760.19
-4113.83
-4510.39
-4491.92
-5222.25
-3280.31
-4166.25
-3825.01
-4587.89
-2448.77
-3832.24
-3172.82
-3897.91
-1700.14
-3522.81
-2596.76
-3197.62
-1117
-3253.25
-2138.32
-2549.67
-674.195
-3028.77
-1794.71
-2007.21
-344.526
-2834.76
-1544.65
-1597.12
-141.471
-2670.05
-1357.2
-1314.93
-42.9091
-2533.3
-1232.68
-1148.24
-2.25483
-2427.08
-1175.7
-1073.71
1.17897
-2345.8
-1167.14
-1066.42
-26.1426
-2289.07
-1188.36
-1099.9
-62.7734
-2248.97
-1219.44
-1155.72
-107.289
-2227.46
-1256.05
-1213.16
-143.288
-2214.34
-1291.08
-1267.85
-167.201
-2215.91
-1319.94
-1307.46
-185.258
-2221.47
-1339.46
-1330.83
-184.597
-2235.4
-1351.96
-1347.64
-190.07
-2244.61
-1357.49
)
;

boundaryField
{
    inlet
    {
        type            zeroGradient;
    }
    outlet
    {
        type            fixedValue;
        value           uniform 0;
    }
    repeat_boundary
    {
        type            zeroGradient;
    }
}


// ************************************************************************* //
