/*--------------------------------*- C++ -*----------------------------------*\
  =========                 |
  \\      /  F ield         | OpenFOAM: The Open Source CFD Toolbox
   \\    /   O peration     | Website:  https://openfoam.org
    \\  /    A nd           | Version:  9
     \\/     M anipulation  |
\*---------------------------------------------------------------------------*/
FoamFile
{
    format      ascii;
    class       volVectorField;
    location    "6000";
    object      stored_U;
}
// * * * * * * * * * * * * * * * * * * * * * * * * * * * * * * * * * * * * * //

dimensions      [0 1 -1 0 0 0 0];

internalField   nonuniform List<vector> 
720
(
(-0.135491 -0.0795001 42.9736)
(-0.138789 0.134955 41.2499)
(0.0759521 -0.0796867 42.0155)
(0.0763343 0.133586 42.588)
(-0.121925 -0.0591618 43.4283)
(-0.144911 0.146357 41.4393)
(0.0881958 -0.0867118 42.1969)
(0.0625179 0.126606 43.0822)
(-0.106015 -0.0333998 43.474)
(-0.12459 0.139134 41.5053)
(0.0724135 -0.0581385 42.3087)
(0.0442323 0.118269 43.044)
(-0.119388 -0.0356708 43.1897)
(-0.106259 0.112807 41.4215)
(0.0351442 -0.028737 42.2416)
(0.0180782 0.106076 42.9594)
(-0.170073 -0.0661264 43.2663)
(-0.0730706 0.0651896 41.4542)
(-0.0476317 0.0400329 42.1361)
(-0.00717095 0.0981738 42.9234)
(-0.205048 -0.120578 43.3525)
(-0.087675 0.0863399 41.0817)
(-0.0554249 0.0366002 42.2679)
(-0.00158667 0.0941436 42.9954)
(-0.160568 -0.0748905 43.3543)
(-0.133482 0.138694 41.3209)
(-0.0566794 0.0395764 42.0466)
(0.021015 0.141632 42.9002)
(-0.0937815 0.00815178 43.373)
(-0.144038 0.184263 41.3771)
(-0.0433344 0.0277613 42.2062)
(0.0940795 0.258314 42.8234)
(-0.125695 -0.0455015 43.3719)
(-0.0853271 -0.0102877 41.3455)
(-0.0225274 0.0168799 42.1911)
(0.275166 0.440641 43.0642)
(-0.128751 -0.0124786 43.3195)
(-0.0476101 -0.0851697 40.983)
(-0.0392719 0.00529477 42.1632)
(0.228163 0.359822 43.0888)
(-0.122086 -0.0324273 43.3877)
(-0.0793809 0.119225 41.2497)
(-0.0575602 -0.00552942 42.1307)
(-0.0256577 0.0531856 43.0268)
(-0.121293 -0.0495494 43.4095)
(-0.0793861 0.164479 41.2324)
(0.0303367 -0.0288599 42.2446)
(-0.0549653 0.00571 43.1442)
(-0.103524 -0.0632441 43.4944)
(-0.0130748 0.0412641 41.1806)
(-0.15844 0.209549 41.969)
(-0.047508 0.165686 42.8511)
(-0.150229 0.0583371 43.2085)
(0.0250617 -0.0875065 41.1458)
(-0.115064 0.202643 42.2754)
(-0.00143234 0.219889 43.1166)
(-0.192944 0.0333816 43.4229)
(-0.0644007 0.121322 41.1296)
(-0.200229 0.318093 42.109)
(0.029078 0.274994 43.0987)
(-0.205211 0.0532039 43.5422)
(-0.0831401 0.163404 41.2397)
(-0.156195 0.278967 42.2407)
(0.0664922 0.242714 43.0596)
(-0.134801 0.0273258 43.2088)
(-0.0789147 0.102822 40.7663)
(-0.182958 0.260184 42.2231)
(0.0587192 0.151369 43.2036)
(-0.126679 -0.0684756 43.4113)
(-0.0997644 0.0632167 41.3158)
(-0.18557 0.260679 42.3146)
(0.0743711 0.272147 42.9213)
(-0.136895 -0.060867 43.4615)
(-0.0104809 -0.0260198 40.7328)
(-0.158718 0.132278 42.2232)
(0.107641 0.253525 43.1696)
(-0.13239 -0.0312872 43.4951)
(0.0245748 -0.0142606 41.243)
(-0.134186 0.0820245 42.1951)
(0.108024 0.228257 43.2263)
(-0.08417 -0.129349 43.2202)
(0.168317 -0.0593092 40.7751)
(-0.102265 0.00702618 42.2196)
(0.172988 0.326774 43.0558)
(-0.0191151 -0.263263 43.3987)
(0.23461 -0.0972639 41.0871)
(-0.074836 -0.145118 42.2117)
(0.381297 0.298128 43.0361)
(0.00421463 -0.264368 43.444)
(0.274203 -0.129208 40.9986)
(-0.0787992 -0.145833 42.2888)
(0.347246 0.162677 43.3101)
(0.0409976 -0.0904135 43.4168)
(0.306972 -0.102875 41.0388)
(0.00600725 -0.13548 42.0643)
(0.564796 0.102127 43.0749)
(0.080186 0.0510353 43.4026)
(0.34569 0.0163479 41.158)
(0.0440931 -0.0880229 42.1598)
(0.560389 0.206217 43.2993)
(0.115299 -0.0945135 43.3561)
(0.341071 -0.148505 40.8206)
(0.0479044 -0.0453763 42.1469)
(0.709085 0.165801 43.2102)
(0.178195 -0.409144 43.3167)
(0.419672 -0.180342 41.1665)
(0.066597 -0.0359196 42.2345)
(0.632918 0.185815 43.3167)
(0.18569 -0.703029 43.2945)
(0.469229 -0.218735 41.1615)
(0.17991 -0.328553 41.6265)
(0.592778 0.218065 43.389)
(0.270754 -0.998134 43.2995)
(0.522833 -0.18606 41.15)
(0.223219 -0.399413 42.0589)
(0.77678 0.018806 43.24)
(0.229647 -1.30458 43.3599)
(0.48317 -0.145368 41.353)
(0.201152 -0.414358 41.7668)
(0.745024 0.00546822 43.4647)
(0.208872 -1.41586 43.4584)
(0.279495 -0.385843 41.005)
(0.0780282 -0.210097 41.627)
(0.782898 -0.0172557 43.4484)
(0.247483 -1.31925 43.51)
(0.281912 -0.445133 41.3842)
(0.00505121 -0.113614 41.5446)
(0.735933 0.0541714 43.4989)
(0.248714 -1.15039 43.5159)
(0.285751 -0.510144 41.3958)
(0.0370378 -0.264161 41.4818)
(0.674535 -0.11915 43.3736)
(0.212966 -1.25281 43.5086)
(0.288642 -0.446701 41.4213)
(0.0231242 -0.249119 41.3009)
(0.711092 -0.256647 43.4405)
(0.192864 -1.38932 43.628)
(0.250769 -0.342 41.488)
(0.0490778 -0.381753 41.3533)
(0.725796 -0.300668 43.5337)
(0.17692 -1.4306 43.7293)
(0.185538 -0.491631 41.5034)
(-0.342344 0.00744282 40.9582)
(0.742213 -0.246866 43.5508)
(0.144047 -1.48234 43.7103)
(0.157167 -0.517704 41.6911)
(-0.771903 0.391516 41.0289)
(0.62693 -0.215217 43.3874)
(0.121602 -1.51435 43.7509)
(0.123797 -0.62537 41.5067)
(-1.06917 0.540188 40.7156)
(0.456351 -0.379514 43.3896)
(0.131736 -1.47233 43.7765)
(0.163349 -0.641303 41.648)
(-1.11012 0.713717 41.1399)
(-0.0289738 -0.541042 43.0168)
(0.156444 -1.39889 43.8125)
(0.185884 -0.62402 41.833)
(-1.12335 0.699434 41.1239)
(-0.0777422 -0.484803 43.2715)
(0.169985 -1.30456 43.8163)
(0.12943 -0.649203 41.9636)
(-1.1032 0.542929 41.1659)
(-0.116191 -0.516698 43.3193)
(0.136995 -1.24227 43.8391)
(-0.0160548 -0.759505 41.8836)
(-1.16507 0.67367 40.8759)
(-0.521969 -0.561369 42.6836)
(0.135418 -1.16779 43.8522)
(0.0432166 -0.773806 41.7481)
(-1.12664 0.795692 41.3176)
(-0.630389 -0.41044 42.8708)
(0.224676 -0.915984 43.8197)
(0.141605 -0.556861 42.1563)
(-1.12844 0.858745 41.0644)
(-0.797733 -0.30648 42.5096)
(0.218213 -0.923953 43.9879)
(0.0838661 -0.592524 42.1693)
(-1.06265 0.697753 41.3861)
(-0.876402 -0.191253 42.4131)
(0.0735004 -0.800027 43.7023)
(-0.100921 -0.805758 42.153)
(-1.00168 0.607049 41.4874)
(-0.803608 -0.0921933 42.4545)
(-0.0198545 -0.919185 43.9318)
(-0.117988 -0.755794 42.2876)
(-1.0157 0.595448 41.3117)
(-0.766712 -0.117271 42.3064)
(0.0219267 -0.794038 43.9506)
(0.108569 -0.631915 41.9469)
(-0.995536 0.579519 41.665)
(-0.76759 -0.250036 42.1448)
(0.00102839 -0.806299 43.8535)
(0.158609 -0.573706 42.3421)
(-0.989381 0.681132 41.5271)
(-0.775124 -0.180934 41.9825)
(-0.0412001 -0.872578 43.9478)
(0.222753 -0.555491 42.3762)
(-0.95376 0.336012 41.7018)
(-0.796306 -0.0824805 41.9955)
(0.134712 -0.561675 43.8957)
(0.269627 -0.673223 42.2864)
(-0.941335 0.300641 41.7577)
(-0.779966 -0.00463873 41.5003)
(0.216471 -0.424971 44.0042)
(0.225619 -0.699704 42.4201)
(-0.954586 0.397222 41.8443)
(-0.779219 0.0761012 41.6863)
(0.0577665 0.138956 43.622)
(0.368915 -0.567283 42.4444)
(-0.956836 0.298049 41.9575)
(-0.781389 0.112244 41.7217)
(0.0480246 0.217777 43.9323)
(0.451853 -0.549078 42.5074)
(-0.856107 0.209353 42.019)
(-0.580273 0.051776 41.1896)
(-0.0803948 0.388608 43.8391)
(0.522217 -0.528119 42.5523)
(-0.842347 0.294172 42.1843)
(-0.566935 0.0628734 41.3813)
(0.0740244 0.672194 43.3435)
(0.514486 -0.462393 42.5805)
(-0.799562 0.221878 42.217)
(-0.562535 0.191544 41.4192)
(-0.0731954 0.607421 43.6854)
(0.459486 -0.403094 42.6208)
(-0.768715 0.257294 42.3826)
(-0.104039 0.179145 40.9255)
(-0.186655 0.547209 43.6985)
(0.399728 -0.3427 42.6408)
(-0.749409 0.289706 42.4525)
(-0.0542313 0.219661 41.1945)
(0.0445896 0.681735 43.5002)
(0.346212 -0.281805 42.6383)
(-0.745518 0.290308 42.5181)
(-0.0698013 0.328129 41.1362)
(0.137721 0.771384 43.5386)
(0.310199 -0.223172 42.7423)
(-0.70171 0.408277 42.6522)
(-0.0373293 0.349095 41.0932)
(-0.141605 0.551267 43.1098)
(0.405838 -0.447359 42.4931)
(-0.661353 0.344868 42.6338)
(0.0104049 0.367854 41.0299)
(-0.213148 0.55213 43.3498)
(0.329633 -0.403348 42.7039)
(-0.693183 0.347554 42.8183)
(-0.0112855 0.437082 40.9952)
(-0.259666 0.549655 43.313)
(0.269815 -0.374343 42.7029)
(-0.716271 0.345125 42.8921)
(-0.0101816 0.475351 41.0971)
(-0.24372 0.609775 43.2926)
(0.283856 -0.305094 42.6883)
(-0.694259 0.405204 43.0127)
(0.365299 0.517895 40.6959)
(-0.193104 0.616351 43.0605)
(0.346188 -0.259563 42.5708)
(-0.548985 0.462224 42.9762)
(0.346893 0.586329 41.0115)
(-0.243783 0.618055 43.2215)
(0.301351 -0.270464 42.6634)
(-0.46998 0.53804 42.9457)
(0.312646 0.62021 41.0267)
(-0.365586 0.49323 42.8098)
(0.257673 -0.221151 42.551)
(-0.582315 0.670927 43.2563)
(0.292135 0.698845 41.007)
(-0.45733 0.580839 43.2128)
(0.20571 -0.163834 42.6423)
(-0.655559 0.749406 43.3088)
(0.26716 0.767664 40.9633)
(-0.515748 0.416024 42.6786)
(0.0900064 -0.00386572 42.3648)
(-0.665864 0.739753 43.3396)
(0.214325 0.770335 41.0027)
(-0.682352 0.445483 43.0918)
(-0.00120785 0.0702367 42.4773)
(-0.65585 0.707277 43.4972)
(0.189468 0.798869 41.1204)
(-0.69101 0.304341 42.7502)
(-0.113618 0.190462 42.1518)
(-0.690927 0.755652 43.5844)
(0.374984 0.764221 40.8206)
(-0.820516 0.383898 42.9028)
(-0.26105 0.288262 42.2336)
(-0.650752 0.692581 43.3847)
(0.278569 0.824955 41.1434)
(-0.931247 0.416851 42.9639)
(-0.387991 0.392303 42.1967)
(-0.75082 0.764323 43.7776)
(0.231166 0.878046 41.2366)
(-0.972782 0.520134 42.9812)
(-0.491836 0.510852 41.8149)
(-0.799594 0.809163 43.9538)
(0.250891 0.890082 41.1156)
(-0.995738 0.481488 42.8826)
(-0.550471 0.575329 41.7788)
(-0.918417 0.789787 43.886)
(0.266744 0.8565 41.1427)
(-1.09843 0.271376 42.845)
(-0.614121 0.615422 41.5767)
(-1.07122 0.80482 43.8085)
(0.210138 0.925691 41.2423)
(-1.31548 0.316233 42.9874)
(-0.790349 0.740952 41.2975)
(-1.23454 0.885087 44.347)
(0.171005 0.937057 41.0983)
(-1.51111 0.298898 43.0052)
(-0.991109 0.883361 41.226)
(-1.26286 0.758512 44.0219)
(-0.0343107 1.14097 41.4138)
(-1.67796 0.322568 43.109)
(-1.11711 0.929003 40.8638)
(-1.43582 0.916741 44.5651)
(-0.142994 1.32179 41.4686)
(-1.86984 0.43946 43.3307)
(-1.36372 1.15262 40.5983)
(-1.55143 0.997358 44.8113)
(-0.205816 1.43271 41.2949)
(-2.03006 0.472006 43.2509)
(-1.50292 1.18675 40.2047)
(-1.4938 0.943648 44.4228)
(-0.333852 1.59539 41.3789)
(-2.28684 0.451857 43.431)
(-1.71752 1.34158 39.8747)
(-1.69827 1.09691 45.1619)
(-0.503672 1.63882 41.5445)
(-2.39617 0.519858 43.4735)
(-1.92452 1.57988 39.5498)
(-1.81056 1.13494 45.2009)
(-0.625166 1.79451 41.5081)
(-2.5937 0.623778 43.8015)
(-2.10534 1.70523 39.1154)
(-1.99848 1.26233 45.4534)
(-0.637637 2.12801 41.4934)
(-2.74468 0.645631 43.8815)
(-2.20009 1.66508 38.4263)
(-2.0585 1.32864 45.8997)
(-0.657384 2.44348 41.6462)
(-2.90693 0.680786 44.0248)
(-2.63385 2.07447 38.0684)
(-1.92187 1.25862 45.5777)
(-0.880124 2.48947 41.6455)
(-3.14384 0.739431 44.2275)
(-2.82986 2.17958 37.6491)
(-2.05406 1.37244 46.3443)
(-1.09019 2.75128 41.8726)
(-3.44566 0.837797 44.4849)
(-2.65052 2.11168 36.7864)
(-2.1318 1.43507 46.7302)
(-1.25004 2.86081 41.9514)
(-3.75079 0.931884 44.6414)
(-2.91801 2.45408 36.1857)
(-2.20107 1.49305 46.7391)
(-1.44909 2.91522 41.8314)
(-4.14132 1.1527 45.0333)
(-2.86561 2.5962 35.6011)
(-2.27165 1.6765 46.9437)
(-1.82497 3.42771 42.1878)
(-4.35806 1.27697 45.0167)
(-3.09855 2.83339 34.738)
(-2.32002 1.8704 47.4953)
(-2.07559 3.77951 42.3116)
(-5.23081 1.60711 45.5772)
(-3.33746 3.0801 33.9501)
(-2.66278 2.06261 48.2148)
(-2.23924 4.03598 42.3609)
(-5.72859 1.77777 45.91)
(-3.97558 3.75876 33.0234)
(-2.99773 2.2597 48.7948)
(-2.36076 4.17913 42.2728)
(-5.6812 1.81857 45.8342)
(-4.32512 4.03404 31.9321)
(-3.06272 2.50582 48.6399)
(-2.99727 4.94892 42.8062)
(-6.79542 2.2754 46.6024)
(-4.76534 4.3597 30.8206)
(-3.52924 2.85391 50.1301)
(-3.07094 5.08363 42.8416)
(-7.35115 2.50531 47.0334)
(-5.42016 4.65958 29.5915)
(-3.42021 2.79798 50.0037)
(-2.85135 5.36683 42.8927)
(-7.25842 2.45136 47.1911)
(-6.18694 5.1353 28.273)
(-3.64563 2.87766 51.1366)
(-2.75948 5.68331 43.2311)
(-7.80038 2.27845 47.895)
(-7.19644 5.8068 26.7344)
(-3.85972 2.93049 51.4539)
(-2.93822 6.1132 43.5311)
(-8.07371 2.28211 48.1354)
(-8.13718 6.38166 25.1797)
(-4.47655 3.28205 52.4876)
(-3.33638 6.54761 43.8463)
(-9.69491 2.90319 49.3506)
(-9.35021 7.17029 23.2319)
(-5.09618 3.60678 53.0481)
(-3.8686 7.27636 44.1224)
(-11.1974 3.42601 50.3835)
(-10.6432 8.00946 21.2421)
(-5.9057 4.20883 54.1551)
(-4.7188 8.25215 44.5486)
(-11.665 3.77784 50.8355)
(-12.5043 9.36946 18.6508)
(-6.61908 4.66379 55.2097)
(-5.62846 9.51426 45.0898)
(-12.672 4.38029 51.6659)
(-14.8342 11.0822 16.245)
(-7.4379 5.27424 56.2041)
(-6.8818 11.0467 45.5473)
(-14.8142 4.96643 54.3258)
(-18.5782 13.9767 12.6074)
(-8.2117 5.62571 57.8219)
(-7.50726 11.8069 45.9322)
(-15.3802 6.06946 53.6514)
(-30.0213 22.3994 7.73506)
(-8.97988 6.21116 59.1176)
(-10.453 15.2404 47.4127)
(-21.0275 7.75432 60.4414)
(-45.8637 33.3486 5.09386)
(-9.32456 6.24983 61.2659)
(-12.7617 17.9508 50.2389)
(-25.7933 12.2061 62.2247)
(-78.0468 87.32 -8.61337)
(-10.1764 7.00121 63.0245)
(-14.7445 19.5643 51.703)
(-31.7232 18.5712 66.0047)
(-73.0999 98.185 -21.7634)
(-10.4052 6.92235 65.6083)
(-20.7451 27.7201 56.6352)
(-36.7183 24.6085 71.8488)
(-55.6977 85.6542 -34.2587)
(-11.4454 7.96128 68.4544)
(-24.985 35.3927 61.1401)
(-40.0876 27.6184 75.4908)
(-36.7354 71.7485 -45.1322)
(-11.1572 7.46477 72.1194)
(-27.1096 41.8456 67.7285)
(-42.4365 28.6827 77.7894)
(-15.8049 55.4256 -54.7178)
(-11.2426 8.09949 75.3097)
(-27.1753 47.3786 70.6389)
(-44.4931 29.1386 79.3722)
(3.4215 36.858 -63.1016)
(-10.4822 7.4133 79.1458)
(-25.798 51.9555 74.8322)
(-47.2701 29.5108 79.3079)
(20.6971 17.8409 -69.7534)
(-9.63294 7.41525 81.6428)
(-22.6917 55.1707 77.2722)
(-50.2394 29.7862 79.7018)
(35.4909 -1.32022 -74.7509)
(-8.02821 6.45912 85.2687)
(-19.7699 57.6979 80.536)
(-53.5728 29.9189 78.5068)
(47.3577 -19.9484 -78.4025)
(-6.45755 5.81724 87.2448)
(-15.2418 59.6643 81.6972)
(-57.1837 30.2766 77.9558)
(55.9121 -36.8236 -80.8705)
(-4.33453 4.82549 89.8622)
(-12.4413 61.4132 83.66)
(-61.3987 30.8293 76.2291)
(61.5297 -51.7452 -82.6619)
(-2.27538 4.21874 91.9815)
(-7.81519 63.4168 84.2199)
(-66.0505 31.9079 75.2374)
(63.7892 -63.2286 -83.3749)
(-2.92735 6.21122 93.319)
(-5.8235 65.4102 85.1283)
(-70.9243 32.6974 73.3424)
(64.0282 -71.3024 -84.4388)
(-5.10551 9.09959 95.6438)
(-2.45532 67.7219 85.2002)
(-75.479 33.3477 72.2101)
(62.8455 -75.7806 -84.5346)
(-9.52986 13.3488 97.7357)
(-0.277 70.5504 84.8278)
(-79.408 32.9366 70.4266)
(61.4171 -77.7147 -86.5651)
(-14.4053 17.2004 100.604)
(2.09931 72.4746 84.8973)
(-82.3476 31.9863 69.3214)
(60.1376 -78.3786 -86.4837)
(-19.8302 20.6838 103.444)
(5.42513 75.0883 83.5851)
(-84.327 30.061 67.7517)
(59.4586 -78.3858 -88.8638)
(-24.3905 23.4502 106.71)
(8.30237 76.0215 83.8203)
(-85.3422 27.7325 66.7786)
(58.6587 -77.6419 -88.1311)
(-28.1412 24.7503 110.063)
(12.1725 77.0139 82.2537)
(-85.2891 25.0901 65.4906)
(58.5062 -77.4927 -92.6423)
(-31.2034 25.582 113.098)
(16.1127 77.4839 82.6764)
(-84.4242 22.1479 64.6093)
(57.2014 -75.5016 -92.2508)
(-32.7317 24.7593 116.377)
(19.5879 77.8098 81.5023)
(-82.6389 19.5461 63.6477)
(56.1958 -72.8915 -94.5427)
(-34.0115 24.31 118.785)
(21.6527 77.5092 81.2959)
(-80.3222 16.5624 62.9268)
(54.6763 -70.2688 -95.6069)
(-33.8142 22.6633 121.664)
(22.9775 76.267 80.7998)
(-77.2892 14.4268 62.2398)
(53.2983 -66.8885 -97.3081)
(-33.5948 21.2823 123.614)
(23.6865 73.7439 81.2822)
(-74.0639 11.5923 61.7014)
(51.5884 -63.7315 -98.2819)
(-32.8242 19.4356 125.974)
(24.0791 69.2728 80.3324)
(-70.447 9.93869 61.1808)
(49.9198 -60.2776 -99.485)
(-32.1076 17.8283 127.378)
(23.7307 65.1635 80.6159)
(-66.6624 7.36243 60.7877)
(48.1688 -57.1664 -100.197)
(-30.8366 15.868 129.429)
(23.0351 59.887 79.7148)
(-62.8712 5.94835 60.4017)
(46.4169 -54.0537 -100.744)
(-29.9812 14.4665 130.271)
(22.1318 55.1241 79.9661)
(-58.7558 3.71094 60.071)
(44.5444 -51.2601 -101.13)
(-28.8551 13.0875 132.004)
(21.0492 49.3194 78.3818)
(-54.8883 2.4188 59.7812)
(42.7169 -48.5482 -100.923)
(-27.9417 11.9557 132.892)
(19.8466 44.3674 78.8902)
(-50.6803 0.669397 59.4386)
(40.7871 -46.1875 -100.947)
(-27.2264 11.2169 133.654)
(18.7521 37.7121 76.4185)
(-46.6012 -0.36617 59.1321)
(38.9246 -43.9495 -99.9539)
(-27.0674 10.892 134.767)
(17.9553 32.0282 76.8455)
(-42.5912 -1.42495 58.8194)
(37.0269 -42.0396 -99.4566)
(-28.1881 11.1523 135.57)
(17.2538 24.7945 73.8982)
(-38.2227 -2.10038 58.1082)
(35.3036 -40.3322 -97.4779)
(-30.2461 12.0078 136.772)
(17.2752 17.325 73.1788)
(-33.9726 -2.90828 57.6427)
(33.7997 -39.1025 -96.3821)
(-32.7157 12.9507 137.58)
(17.6832 9.06306 70.3032)
(-29.3319 -3.34921 56.5508)
(32.5031 -38.1251 -93.2752)
(-35.6715 14.4672 139.137)
(18.2954 0.679232 67.4938)
(-25.1788 -3.84675 55.7953)
(31.5137 -37.5404 -91.1548)
(-38.6516 15.7572 140.237)
(19.332 -9.16711 65.0937)
(-21.892 -4.00145 54.4428)
(30.7392 -37.0161 -86.8852)
(-41.4137 17.2534 142.138)
(20.0774 -19.5337 60.1323)
(-19.4749 -4.71709 52.9732)
(30.4011 -37.2298 -83.5841)
(-44.099 18.1181 143.505)
(22.8003 -29.5567 56.9331)
(-19.4497 -3.51037 52.1221)
(30.0929 -37.2142 -78.5596)
(-46.278 19.1718 145.588)
(23.7565 -36.3134 51.1826)
(-18.9729 -4.21573 49.9604)
(30.6196 -37.6452 -74.5688)
(-48.3587 20.2503 147)
(26.8728 -40.4779 47.0456)
(-19.4121 -2.99861 49.2047)
(30.8178 -38.6798 -69.4922)
(-50.0209 23.1005 149.291)
(29.6746 -40.5153 41.5766)
(-22.0455 -2.03449 47.4443)
(32.0113 -39.4692 -66.0333)
(-51.1171 26.96 150.936)
(35.335 -34.446 37.0162)
(-23.4482 -0.831245 45.4225)
(32.1797 -41.5105 -61.6587)
(-51.6856 32.4821 153.083)
(40.7847 -22.8362 33.365)
(-24.9151 1.5578 43.9545)
(33.4112 -42.8451 -59.0947)
(-51.5215 39.3791 155.315)
(45.8019 -9.20454 29.3407)
(-25.3806 3.37185 40.5962)
(33.3511 -45.2492 -56.2614)
(-50.3584 46.3402 157.279)
(48.4591 5.74212 27.8622)
(-27.894 3.46472 38.3826)
(34.0122 -46.5992 -55.3348)
(-48.4954 53.8135 160.335)
(49.5846 18.8611 26.3362)
(-30.7284 3.359 34.9557)
(33.4027 -47.5336 -54.1952)
(-45.2568 60.4249 162.783)
(48.544 29.5862 25.3825)
(-32.4659 1.32565 31.9368)
(33.2621 -47.3933 -53.7883)
(-40.0381 65.4975 165.925)
(45.3054 38.6372 25.5935)
(-33.9928 -3.97739 28.4348)
(32.5726 -46.7546 -52.7687)
(-32.5029 67.7204 168.875)
(41.046 45.0054 24.9776)
(-35.7522 -10.3871 26.0177)
(33.1372 -47.7421 -53.8378)
(-22.4501 66.1053 171.242)
(37.1942 50.1365 27.0936)
(-33.2231 -17.2431 23.436)
(34.467 -49.5072 -56.271)
(-10.1053 60.0124 172.765)
(34.6861 48.7816 27.1511)
(-25.1826 -23.4095 20.127)
(34.1292 -48.7999 -54.0142)
(3.60097 49.2321 173.107)
(34.1398 39.8543 30.0903)
(-11.7059 -26.5623 19.5614)
(34.6521 -49.4423 -53.5926)
(17.4759 33.9564 171.445)
(37.4956 26.1728 30.0992)
(4.65796 -29.463 20.1609)
(35.2343 -50.8336 -49.0107)
(30.4428 15.7153 167.79)
(42.8147 11.3002 33.3575)
(19.8841 -35.7154 19.5177)
(35.7401 -52.1988 -46.0532)
(41.6894 -3.82226 162.154)
(47.9224 -4.62565 34.2812)
(31.9337 -44.5608 19.4285)
(36.5225 -54.2241 -38.3226)
(50.6007 -22.9117 154.525)
(51.9095 -19.8077 36.9042)
(40.7156 -54.7581 20.2186)
(36.9754 -54.2714 -31.1748)
(56.9801 -40.3738 145)
(53.6582 -33.9122 37.2834)
(46.6536 -63.6904 22.0695)
(36.8687 -57.1046 -23.0113)
(60.7694 -54.9211 133.92)
(53.0302 -44.5779 38.4281)
(50.2107 -70.6411 24.5728)
(37.335 -57.089 -14.1918)
(62.2346 -66.1864 121.723)
(50.4385 -52.151 38.5135)
(51.4585 -74.3258 27.7777)
(36.3114 -57.8111 -6.22721)
(61.6851 -73.6388 109.147)
(46.1262 -55.5904 38.7694)
(50.9071 -75.4678 30.868)
(34.5279 -56.4155 2.86784)
(59.5015 -77.7433 96.468)
(40.1312 -55.5408 38.2403)
(48.946 -73.5685 34.8371)
(32.3654 -52.9028 12.1932)
(56.0184 -78.2955 84.3273)
(32.8104 -51.9014 38.0424)
(46.0549 -69.7498 38.0316)
(30.5865 -47.7623 21.1726)
(51.5388 -76.2823 72.8058)
(25.8363 -46.4025 36.8934)
(42.4301 -63.949 41.8716)
(28.814 -41.6494 29.0515)
(46.4512 -71.5727 62.5198)
(19.5912 -39.4093 36.1515)
(38.5535 -57.2146 44.4717)
(26.9059 -35.064 36.222)
(40.828 -65.435 53.1364)
(14.5398 -31.6551 35.3656)
(34.3837 -49.7272 47.605)
(25.138 -28.2908 41.7526)
(35.1322 -57.7287 45.314)
(10.2371 -23.5258 35.0826)
(30.5244 -42.2642 49.2518)
(23.284 -22.0272 46.7512)
(29.105 -49.5312 38.3635)
(7.12954 -15.5784 34.753)
(26.6079 -34.9524 51.3916)
(21.4746 -16.0486 50.6966)
(23.3939 -41.0839 33.1649)
(4.21177 -7.6716 35.0927)
(23.3085 -28.3854 52)
(19.9152 -11.2137 53.2971)
(17.5859 -32.6295 28.437)
(2.17037 -0.549927 34.9137)
(20.0734 -22.4512 53.2104)
(17.9401 -6.86275 55.9326)
(12.1386 -24.9674 25.8943)
(0.263389 5.30193 35.9673)
(17.4692 -17.3881 52.7769)
(16.3391 -3.78032 56.7554)
(7.58685 -18.5093 22.6649)
(-0.721137 9.82928 36.0177)
(14.8399 -13.5733 53.5667)
(14.5537 -1.09728 58.2523)
(2.25063 -11.6086 22.529)
(-1.45983 13.6773 37.1394)
(12.7933 -9.621 52.137)
(13.403 0.962214 58.1107)
(-1.04218 -7.28793 20.2784)
(-2.16765 15.8169 37.1986)
(10.4339 -8.33088 52.34)
(11.4814 2.38594 58.4182)
(-4.96325 -2.44775 21.7482)
(-3.44287 17.667 38.5046)
)
;

boundaryField
{
    inlet
    {
        type            calculated;
        value           nonuniform List<vector> 4((10.4339 -8.33088 52.34) (-4.96325 -2.44775 21.7482) (11.4814 2.38594 58.4182) (-3.44287 17.667 38.5046));
    }
    outlet
    {
        type            calculated;
        value           nonuniform List<vector> 4((-0.135491 -0.0795001 42.9736) (0.0759521 -0.0796867 42.0155) (-0.138789 0.134955 41.2499) (0.0763343 0.133586 42.588));
    }
    repeat_boundary
    {
        type            calculated;
        value           nonuniform List<vector> 
1440
(
(-0.135491 0 42.9736)
(-0.121925 0 43.4283)
(-0.106015 0 43.474)
(-0.119388 0 43.1897)
(-0.170073 0 43.2663)
(-0.205048 0 43.3525)
(-0.160568 0 43.3543)
(-0.0937815 0 43.373)
(-0.125695 0 43.3719)
(-0.128751 0 43.3195)
(-0.122086 0 43.3877)
(-0.121293 0 43.4095)
(-0.103524 0 43.4944)
(-0.150229 0 43.2085)
(-0.192944 0 43.4229)
(-0.205211 0 43.5422)
(-0.134801 0 43.2088)
(-0.126679 0 43.4113)
(-0.136895 0 43.4615)
(-0.13239 0 43.4951)
(-0.08417 0 43.2202)
(-0.0191151 0 43.3987)
(0.00421463 0 43.444)
(0.0409976 0 43.4168)
(0.080186 0 43.4026)
(0.115299 0 43.3561)
(0.178195 0 43.3167)
(0.18569 0 43.2945)
(0.270754 0 43.2995)
(0.229647 0 43.3599)
(0.208872 0 43.4584)
(0.247483 0 43.51)
(0.248714 0 43.5159)
(0.212966 0 43.5086)
(0.192864 0 43.628)
(0.17692 0 43.7293)
(0.144047 0 43.7103)
(0.121602 0 43.7509)
(0.131736 0 43.7765)
(0.156444 0 43.8125)
(0.169985 0 43.8163)
(0.136995 0 43.8391)
(0.135418 0 43.8522)
(0.224676 0 43.8197)
(0.218213 0 43.9879)
(0.0735004 0 43.7023)
(-0.0198545 0 43.9318)
(0.0219267 0 43.9506)
(0.00102839 0 43.8535)
(-0.0412001 0 43.9478)
(0.134712 0 43.8957)
(0.216471 0 44.0042)
(0.0577665 0 43.622)
(0.0480246 0 43.9323)
(-0.0803948 0 43.8391)
(0.0740244 0 43.3435)
(-0.0731954 0 43.6854)
(-0.186655 0 43.6985)
(0.0445896 0 43.5002)
(0.137721 0 43.5386)
(-0.141605 0 43.1098)
(-0.213148 0 43.3498)
(-0.259666 0 43.313)
(-0.24372 0 43.2926)
(-0.193104 0 43.0605)
(-0.243783 0 43.2215)
(-0.365586 0 42.8098)
(-0.45733 0 43.2128)
(-0.515748 0 42.6786)
(-0.682352 0 43.0918)
(-0.69101 0 42.7502)
(-0.820516 0 42.9028)
(-0.931247 0 42.9639)
(-0.972782 0 42.9812)
(-0.995738 0 42.8826)
(-1.09843 0 42.845)
(-1.31548 0 42.9874)
(-1.51111 0 43.0052)
(-1.67796 0 43.109)
(-1.86984 0 43.3307)
(-2.03006 0 43.2509)
(-2.28684 0 43.431)
(-2.39617 0 43.4735)
(-2.5937 0 43.8015)
(-2.74468 0 43.8815)
(-2.90693 0 44.0248)
(-3.14384 0 44.2275)
(-3.44566 0 44.4849)
(-3.75079 0 44.6414)
(-4.14132 0 45.0333)
(-4.35806 0 45.0167)
(-5.23081 0 45.5772)
(-5.72859 0 45.91)
(-5.6812 0 45.8342)
(-6.79542 0 46.6024)
(-7.35115 0 47.0334)
(-7.25842 0 47.1911)
(-7.80038 0 47.895)
(-8.07371 0 48.1354)
(-9.69491 0 49.3506)
(-11.1974 0 50.3835)
(-11.665 0 50.8355)
(-12.672 0 51.6659)
(-14.8142 0 54.3258)
(-15.3802 0 53.6514)
(-21.0275 0 60.4414)
(-25.7933 0 62.2247)
(-31.7232 0 66.0047)
(-36.7183 0 71.8488)
(-40.0876 0 75.4908)
(-42.4365 0 77.7894)
(-44.4931 0 79.3722)
(-47.2701 0 79.3079)
(-50.2394 0 79.7018)
(-53.5728 0 78.5068)
(-57.1837 0 77.9558)
(-61.3987 0 76.2291)
(-66.0505 0 75.2374)
(-70.9243 0 73.3424)
(-75.479 0 72.2101)
(-79.408 0 70.4266)
(-82.3476 0 69.3214)
(-84.327 0 67.7517)
(-85.3422 0 66.7786)
(-85.2891 0 65.4906)
(-84.4242 0 64.6093)
(-82.6389 0 63.6477)
(-80.3222 0 62.9268)
(-77.2892 0 62.2398)
(-74.0639 0 61.7014)
(-70.447 0 61.1808)
(-66.6624 0 60.7877)
(-62.8712 0 60.4017)
(-58.7558 0 60.071)
(-54.8883 0 59.7812)
(-50.6803 0 59.4386)
(-46.6012 0 59.1321)
(-42.5912 0 58.8194)
(-38.2227 0 58.1082)
(-33.9726 0 57.6427)
(-29.3319 0 56.5508)
(-25.1788 0 55.7953)
(-21.892 0 54.4428)
(-19.4749 0 52.9732)
(-19.4497 0 52.1221)
(-18.9729 0 49.9604)
(-19.4121 0 49.2047)
(-22.0455 0 47.4443)
(-23.4482 0 45.4225)
(-24.9151 0 43.9545)
(-25.3806 0 40.5962)
(-27.894 0 38.3826)
(-30.7284 0 34.9557)
(-32.4659 0 31.9368)
(-33.9928 0 28.4348)
(-35.7522 0 26.0177)
(-33.2231 0 23.436)
(-25.1826 0 20.127)
(-11.7059 0 19.5614)
(4.65796 0 20.1609)
(19.8841 0 19.5177)
(31.9337 0 19.4285)
(40.7156 0 20.2186)
(46.6536 0 22.0695)
(50.2107 0 24.5728)
(51.4585 0 27.7777)
(50.9071 0 30.868)
(48.946 0 34.8371)
(46.0549 0 38.0316)
(42.4301 0 41.8716)
(38.5535 0 44.4717)
(34.3837 0 47.605)
(30.5244 0 49.2518)
(26.6079 0 51.3916)
(23.3085 0 52)
(20.0734 0 53.2104)
(17.4692 0 52.7769)
(14.8399 0 53.5667)
(12.7933 0 52.137)
(10.4339 0 52.34)
(-0.138789 0 41.2499)
(-0.144911 0 41.4393)
(-0.12459 0 41.5053)
(-0.106259 0 41.4215)
(-0.0730706 0 41.4542)
(-0.087675 0 41.0817)
(-0.133482 0 41.3209)
(-0.144038 0 41.3771)
(-0.0853271 0 41.3455)
(-0.0476101 0 40.983)
(-0.0793809 0 41.2497)
(-0.0793861 0 41.2324)
(-0.0130748 0 41.1806)
(0.0250617 0 41.1458)
(-0.0644007 0 41.1296)
(-0.0831401 0 41.2397)
(-0.0789147 0 40.7663)
(-0.0997644 0 41.3158)
(-0.0104809 0 40.7328)
(0.0245748 0 41.243)
(0.168317 0 40.7751)
(0.23461 0 41.0871)
(0.274203 0 40.9986)
(0.306972 0 41.0388)
(0.34569 0 41.158)
(0.341071 0 40.8206)
(0.419672 0 41.1665)
(0.469229 0 41.1615)
(0.522833 0 41.15)
(0.48317 0 41.353)
(0.279495 0 41.005)
(0.281912 0 41.3842)
(0.285751 0 41.3958)
(0.288642 0 41.4213)
(0.250769 0 41.488)
(0.185538 0 41.5034)
(0.157167 0 41.6911)
(0.123797 0 41.5067)
(0.163349 0 41.648)
(0.185884 0 41.833)
(0.12943 0 41.9636)
(-0.0160548 0 41.8836)
(0.0432166 0 41.7481)
(0.141605 0 42.1563)
(0.0838661 0 42.1693)
(-0.100921 0 42.153)
(-0.117988 0 42.2876)
(0.108569 0 41.9469)
(0.158609 0 42.3421)
(0.222753 0 42.3762)
(0.269627 0 42.2864)
(0.225619 0 42.4201)
(0.368915 0 42.4444)
(0.451853 0 42.5074)
(0.522217 0 42.5523)
(0.514486 0 42.5805)
(0.459486 0 42.6208)
(0.399728 0 42.6408)
(0.346212 0 42.6383)
(0.310199 0 42.7423)
(0.405838 0 42.4931)
(0.329633 0 42.7039)
(0.269815 0 42.7029)
(0.283856 0 42.6883)
(0.346188 0 42.5708)
(0.301351 0 42.6634)
(0.257673 0 42.551)
(0.20571 0 42.6423)
(0.0900064 0 42.3648)
(-0.00120785 0 42.4773)
(-0.113618 0 42.1518)
(-0.26105 0 42.2336)
(-0.387991 0 42.1967)
(-0.491836 0 41.8149)
(-0.550471 0 41.7788)
(-0.614121 0 41.5767)
(-0.790349 0 41.2975)
(-0.991109 0 41.226)
(-1.11711 0 40.8638)
(-1.36372 0 40.5983)
(-1.50292 0 40.2047)
(-1.71752 0 39.8747)
(-1.92452 0 39.5498)
(-2.10534 0 39.1154)
(-2.20009 0 38.4263)
(-2.63385 0 38.0684)
(-2.82986 0 37.6491)
(-2.65052 0 36.7864)
(-2.91801 0 36.1857)
(-2.86561 0 35.6011)
(-3.09855 0 34.738)
(-3.33746 0 33.9501)
(-3.97558 0 33.0234)
(-4.32512 0 31.9321)
(-4.76534 0 30.8206)
(-5.42016 0 29.5915)
(-6.18694 0 28.273)
(-7.19644 0 26.7344)
(-8.13718 0 25.1797)
(-9.35021 0 23.2319)
(-10.6432 0 21.2421)
(-12.5043 0 18.6508)
(-14.8342 0 16.245)
(-18.5782 0 12.6074)
(-30.0213 0 7.73506)
(-45.8637 0 5.09386)
(-78.0468 0 -8.61337)
(-73.0999 0 -21.7634)
(-55.6977 0 -34.2587)
(-36.7354 0 -45.1322)
(-15.8049 0 -54.7178)
(3.4215 0 -63.1016)
(20.6971 0 -69.7534)
(35.4909 0 -74.7509)
(47.3577 0 -78.4025)
(55.9121 0 -80.8705)
(61.5297 0 -82.6619)
(63.7892 0 -83.3749)
(64.0282 0 -84.4388)
(62.8455 0 -84.5346)
(61.4171 0 -86.5651)
(60.1376 0 -86.4837)
(59.4586 0 -88.8638)
(58.6587 0 -88.1311)
(58.5062 0 -92.6423)
(57.2014 0 -92.2508)
(56.1958 0 -94.5427)
(54.6763 0 -95.6069)
(53.2983 0 -97.3081)
(51.5884 0 -98.2819)
(49.9198 0 -99.485)
(48.1688 0 -100.197)
(46.4169 0 -100.744)
(44.5444 0 -101.13)
(42.7169 0 -100.923)
(40.7871 0 -100.947)
(38.9246 0 -99.9539)
(37.0269 0 -99.4566)
(35.3036 0 -97.4779)
(33.7997 0 -96.3821)
(32.5031 0 -93.2752)
(31.5137 0 -91.1548)
(30.7392 0 -86.8852)
(30.4011 0 -83.5841)
(30.0929 0 -78.5596)
(30.6196 0 -74.5688)
(30.8178 0 -69.4922)
(32.0113 0 -66.0333)
(32.1797 0 -61.6587)
(33.4112 0 -59.0947)
(33.3511 0 -56.2614)
(34.0122 0 -55.3348)
(33.4027 0 -54.1952)
(33.2621 0 -53.7883)
(32.5726 0 -52.7687)
(33.1372 0 -53.8378)
(34.467 0 -56.271)
(34.1292 0 -54.0142)
(34.6521 0 -53.5926)
(35.2343 0 -49.0107)
(35.7401 0 -46.0532)
(36.5225 0 -38.3226)
(36.9754 0 -31.1748)
(36.8687 0 -23.0113)
(37.335 0 -14.1918)
(36.3114 0 -6.22721)
(34.5279 0 2.86784)
(32.3654 0 12.1932)
(30.5865 0 21.1726)
(28.814 0 29.0515)
(26.9059 0 36.222)
(25.138 0 41.7526)
(23.284 0 46.7512)
(21.4746 0 50.6966)
(19.9152 0 53.2971)
(17.9401 0 55.9326)
(16.3391 0 56.7554)
(14.5537 0 58.2523)
(13.403 0 58.1107)
(11.4814 0 58.4182)
(0 0.134955 41.2499)
(0 0.133586 42.588)
(0 0.146357 41.4393)
(0 0.126606 43.0822)
(0 0.139134 41.5053)
(0 0.118269 43.044)
(0 0.112807 41.4215)
(0 0.106076 42.9594)
(0 0.0651896 41.4542)
(0 0.0981738 42.9234)
(0 0.0863399 41.0817)
(0 0.0941436 42.9954)
(0 0.138694 41.3209)
(0 0.141632 42.9002)
(0 0.184263 41.3771)
(0 0.258314 42.8234)
(0 -0.0102877 41.3455)
(0 0.440641 43.0642)
(0 -0.0851697 40.983)
(0 0.359822 43.0888)
(0 0.119225 41.2497)
(0 0.0531856 43.0268)
(0 0.164479 41.2324)
(0 0.00571 43.1442)
(0 0.0412641 41.1806)
(0 0.165686 42.8511)
(0 -0.0875065 41.1458)
(0 0.219889 43.1166)
(0 0.121322 41.1296)
(0 0.274994 43.0987)
(0 0.163404 41.2397)
(0 0.242714 43.0596)
(0 0.102822 40.7663)
(0 0.151369 43.2036)
(0 0.0632167 41.3158)
(0 0.272147 42.9213)
(0 -0.0260198 40.7328)
(0 0.253525 43.1696)
(0 -0.0142606 41.243)
(0 0.228257 43.2263)
(0 -0.0593092 40.7751)
(0 0.326774 43.0558)
(0 -0.0972639 41.0871)
(0 0.298128 43.0361)
(0 -0.129208 40.9986)
(0 0.162677 43.3101)
(0 -0.102875 41.0388)
(0 0.102127 43.0749)
(0 0.0163479 41.158)
(0 0.206217 43.2993)
(0 -0.148505 40.8206)
(0 0.165801 43.2102)
(0 -0.180342 41.1665)