FoamFile
{version 2.0; format ascii;class vectorField; location 0;object  v;}
344
(
( 3.22752e-06 -2.38377e-07 6.49764e-07 )  
( 2.32106e-06 7.46582e-07 -2.41902e-10 )  
( 4.49592e-06 8.41362e-07 -4.53475e-08 )  
( 4.11247e-06 1.48588e-06 2.13816e-07 )  
( 1.12223e-06 6.00814e-07 -1.03497e-07 )  
( 3.53344e-06 -1.22966e-07 -1.4959e-06 )  
( 2.55471e-06 9.93973e-07 -5.64066e-07 )  
( 4.3145e-06 1.80528e-06 -4.25768e-07 )  
( 1.51255e-06 8.82469e-06 -9.18906e-07 )  
( 2.18816e-06 8.53773e-07 -3.35074e-07 )  
( 2.2468e-06 1.71588e-06 3.92209e-07 )  
( 3.27565e-06 1.15031e-06 1.93612e-07 )  
( 2.99017e-06 1.70694e-06 -2.36655e-07 )  
( 3.14766e-06 -9.71111e-08 7.05012e-07 )  
( 4.54957e-06 2.96043e-06 -4.39307e-07 )  
( 2.89386e-06 -4.51521e-07 7.74497e-07 )  
( 3.20371e-06 8.02706e-07 1.08917e-08 )  
( 7.52542e-06 1.34886e-06 -1.34068e-07 )  
( 6.07721e-07 7.45488e-07 2.01784e-12 )  
( 5.12545e-06 1.35749e-06 1.07103e-06 )  
( 7.63913e-07 7.34807e-08 -6.78377e-07 )  
( 3.01577e-06 -5.93766e-07 6.80052e-07 )  
( 7.50059e-06 3.38592e-06 -5.69956e-07 )  
( 2.66619e-06 -2.96687e-08 9.70164e-08 )  
( 3.12681e-06 -4.09577e-07 3.86397e-07 )  
( 7.85552e-06 2.37921e-06 -4.25569e-08 )  
( 5.11831e-06 1.40845e-06 8.58322e-07 )  
( 5.1551e-06 1.00631e-06 3.2349e-07 )  
( 7.415e-06 2.95148e-06 1.81519e-06 )  
( 8.37983e-06 1.12577e-06 -1.0883e-07 )  
( 6.80856e-06 3.39126e-06 -1.18759e-06 )  
( 2.40936e-06 1.31358e-06 3.8078e-08 )  
( 3.02853e-06 1.15445e-06 1.06423e-06 )  
( 9.03839e-06 4.18238e-06 1.66121e-06 )  
( 6.09646e-06 3.38063e-06 8.17765e-07 )  
( 4.49067e-06 2.53027e-06 2.07128e-07 )  
( 6.44516e-06 1.73679e-06 2.81307e-08 )  
( 6.90394e-06 3.5025e-06 -8.21184e-07 )  
( 7.82556e-06 1.99953e-06 1.64701e-06 )  
( 6.58176e-06 -9.59567e-07 1.32327e-08 )  
( 7.33222e-06 1.20289e-06 8.3523e-07 )  
( 7.75638e-06 1.94295e-06 2.04786e-06 )  
( 7.25896e-06 2.27886e-06 5.10121e-07 )  
( 8.20859e-06 3.62467e-06 -7.23115e-07 )  
( 9.84201e-06 2.55085e-06 -2.09352e-07 )  
( 9.64344e-06 1.25153e-06 5.51287e-07 )  
( 1.0136e-05 1.85737e-06 -7.04238e-08 )  
( 7.88517e-06 3.2198e-06 5.70596e-07 )  
( 6.70787e-06 2.72726e-06 -2.1517e-06 )  
( 7.11403e-06 2.69366e-06 1.37153e-06 )  
( 8.41004e-06 3.31293e-06 -3.15438e-07 )  
( 1.03581e-05 1.97181e-06 4.54291e-06 )  
( 6.30172e-06 1.73703e-06 2.31264e-07 )  
( 7.99139e-06 2.29723e-06 1.57305e-06 )  
( 8.02428e-06 3.45307e-06 -7.78507e-07 )  
( 7.93662e-06 2.66022e-06 4.73123e-07 )  
( 9.33831e-06 8.80892e-07 -1.63113e-07 )  
( 9.68034e-06 2.02383e-06 2.29397e-06 )  
( 1.47067e-05 3.08671e-06 4.50693e-07 )  
( 8.67344e-06 3.5966e-06 -5.37692e-07 )  
( 8.01832e-06 3.8307e-06 -2.15546e-06 )  
( 1.04179e-05 4.22283e-06 1.079e-06 )  
( 8.50755e-06 2.36536e-06 2.02076e-06 )  
( 8.04848e-06 2.98352e-06 3.57101e-07 )  
( 9.01893e-06 1.77737e-06 2.00312e-06 )  
( 8.49541e-06 1.02492e-06 2.05252e-06 )  
( 1.20925e-05 2.65533e-06 6.2652e-07 )  
( 8.14199e-06 4.32855e-06 5.86334e-07 )  
( 1.14031e-05 2.74207e-06 -3.53943e-07 )  
( 7.31423e-06 1.58467e-06 -1.00319e-06 )  
( 1.43174e-05 2.73346e-06 6.92512e-07 )  
( 1.26361e-05 4.42817e-06 9.86547e-07 )  
( 1.07238e-05 3.02906e-06 4.15885e-06 )  
( 1.29735e-05 5.70786e-06 -4.17531e-07 )  
( 1.49997e-05 4.12885e-06 2.39225e-06 )  
( 1.21028e-05 4.97134e-06 7.8797e-07 )  
( 1.4164e-05 4.81168e-06 2.06463e-06 )  
( 7.44376e-06 1.89238e-06 -1.56908e-06 )  
( 1.02489e-05 4.60112e-06 7.02701e-07 )  
( 1.13115e-05 3.15027e-06 1.17028e-06 )  
( 1.10529e-05 2.07623e-06 2.93329e-06 )  
( 1.08705e-05 4.2458e-06 -6.37599e-07 )  
( 1.01013e-05 1.87418e-06 2.15325e-06 )  
( 1.60616e-05 4.44336e-06 1.66289e-06 )  
( 1.50547e-05 5.72359e-06 3.3055e-06 )  
( 1.27846e-05 4.44007e-06 -1.75348e-06 )  
( 1.25311e-05 4.37601e-06 2.01596e-06 )  
( 1.44441e-05 5.69796e-06 -2.48655e-07 )  
( 1.33979e-05 4.36665e-06 3.99499e-06 )  
( 6.56293e-06 3.20314e-06 1.05086e-06 )  
( 1.52958e-05 6.27324e-06 -9.91203e-07 )  
( 1.40669e-05 6.29358e-06 -5.23261e-06 )  
( 1.31063e-05 5.16753e-06 6.33842e-07 )  
( 1.43782e-05 3.05953e-06 1.48396e-06 )  
( 1.5765e-05 6.41403e-06 -2.56204e-07 )  
( 1.19052e-05 4.98807e-06 3.18336e-06 )  
( 9.22131e-06 3.53769e-06 -7.22676e-07 )  
( 1.58103e-05 5.17138e-06 8.93645e-07 )  
( 1.58997e-05 4.26788e-06 3.00513e-06 )  
( 1.59201e-05 5.83969e-06 -2.47176e-06 )  
( 1.52842e-05 5.1378e-06 9.9755e-07 )  
( 1.8384e-05 5.74232e-06 -2.05536e-06 )  
( 1.5292e-05 3.32782e-06 4.1318e-06 )  
( 1.4794e-05 6.42274e-06 1.06163e-06 )  
( 1.80316e-05 6.24072e-06 3.41517e-07 )  
( 1.49275e-05 4.85646e-06 1.7008e-06 )  
( 1.62886e-05 3.91653e-06 1.20466e-06 )  
( 1.76341e-05 6.2139e-06 7.79287e-07 )  
( 2.02066e-05 9.04259e-06 3.92226e-06 )  
( 1.83963e-05 6.48325e-06 -1.55936e-06 )  
( 1.70291e-05 5.86512e-06 1.2763e-07 )  
( 1.68549e-05 6.87774e-06 1.63598e-06 )  
( 1.47675e-05 5.31665e-06 1.78388e-06 )  
( 1.43726e-05 3.98869e-06 -2.06113e-06 )  
( 1.64185e-05 3.99033e-06 2.21207e-06 )  
( 1.82669e-05 6.67289e-06 7.72646e-06 )  
( 2.07104e-05 3.69152e-06 -3.92069e-07 )  
( 1.58017e-05 6.73757e-06 5.25828e-07 )  
( 1.77563e-05 6.96837e-06 1.20868e-06 )  
( 1.99825e-05 8.36401e-06 2.55589e-06 )  
( 1.51035e-05 6.58034e-06 9.49376e-08 )  
( 1.85236e-05 7.146e-06 1.45505e-06 )  
( 2.16169e-05 1.25404e-06 8.58214e-06 )  
( 1.87973e-05 6.37992e-06 -2.81179e-06 )  
( 1.9496e-05 6.62574e-06 3.81273e-06 )  
( 1.8422e-05 6.81399e-06 2.85065e-07 )  
( 1.64937e-05 5.53182e-06 1.86906e-06 )  
( 1.80838e-05 6.76883e-06 -4.48007e-07 )  
( 2.33938e-05 7.77416e-06 2.77834e-06 )  
( 1.84701e-05 5.60519e-06 4.32144e-08 )  
( 2.16357e-05 8.01911e-06 -1.0842e-06 )  
( 2.21924e-05 8.33341e-06 -4.87845e-07 )  
( 2.44859e-05 6.07641e-06 1.25927e-06 )  
( 2.05097e-05 7.43418e-06 7.94135e-07 )  
( 1.93498e-05 7.02947e-06 1.95842e-06 )  
( 2.01887e-05 7.55495e-06 2.99495e-06 )  
( 2.18094e-05 1.01821e-05 9.77519e-07 )  
( 1.80324e-05 6.55876e-06 7.5124e-07 )  
( 2.34888e-05 7.3622e-06 2.46481e-06 )  
( 1.83656e-05 6.76441e-06 1.0176e-06 )  
( 1.96238e-05 6.90755e-06 4.15354e-06 )  
( 2.2584e-05 6.29057e-06 8.57674e-07 )  
( 1.92035e-05 7.86598e-06 3.46326e-06 )  
( 2.01047e-05 7.01882e-06 1.66814e-06 )  
( 2.22937e-05 9.08778e-06 4.29017e-06 )  
( 2.85453e-05 6.81495e-06 1.93164e-06 )  
( 2.66878e-05 5.49634e-06 8.63328e-08 )  
( 2.23829e-05 8.07829e-06 2.13687e-06 )  
( 2.55314e-05 8.09548e-06 4.36864e-06 )  
( 2.37318e-05 6.95164e-06 -1.63198e-06 )  
( 2.5226e-05 6.51072e-06 2.08064e-06 )  
( 2.64104e-05 4.82766e-06 1.74358e-06 )  
( 1.7862e-05 8.03338e-06 1.64807e-06 )  
( 2.24527e-05 8.13321e-06 3.92086e-06 )  
( 2.33446e-05 7.87757e-06 -5.96745e-07 )  
( 2.44915e-05 7.31781e-06 3.12681e-06 )  
( 2.97614e-05 9.86699e-06 3.92839e-06 )  
( 2.40353e-05 5.30186e-06 -1.78578e-07 )  
( 2.3254e-05 8.3819e-06 1.1027e-06 )  
( 2.47926e-05 8.07877e-06 4.02415e-06 )  
( 2.28265e-05 6.90449e-06 2.41591e-06 )  
( 2.53318e-05 6.89358e-06 -1.91645e-06 )  
( 2.11949e-05 7.56802e-06 1.10952e-06 )  
( 2.73109e-05 9.61469e-06 -3.9933e-07 )  
( 2.3363e-05 5.80364e-06 6.16471e-07 )  
( 2.90466e-05 9.01209e-06 2.47528e-06 )  
( 2.3621e-05 1.2723e-05 1.14519e-06 )  
( 2.96741e-05 8.84426e-06 6.55872e-06 )  
( 2.65468e-05 7.02157e-06 1.47745e-06 )  
( 2.52893e-05 8.78663e-06 8.32876e-07 )  
( 2.47783e-05 1.03832e-05 1.05627e-06 )  
( 3.01572e-05 1.12465e-05 5.53669e-07 )  
( 2.70784e-05 9.43378e-06 3.15876e-06 )  
( 2.40379e-05 8.76707e-06 -2.95839e-08 )  
( 3.10989e-05 9.14827e-06 9.20812e-07 )  
( 2.63033e-05 9.5367e-06 3.22579e-06 )  
( 2.99393e-05 9.3295e-06 1.7743e-06 )  
( 2.71803e-05 9.71642e-06 2.32162e-06 )  
( 2.74079e-05 7.81296e-06 3.06087e-06 )  
( 2.93021e-05 7.52268e-06 -1.44479e-06 )  
( 3.30334e-05 1.0272e-05 3.50325e-06 )  
( 2.96876e-05 1.05805e-05 3.35372e-06 )  
( 2.6969e-05 1.21184e-05 6.6504e-07 )  
( 2.64711e-05 9.83545e-06 5.69366e-06 )  
( 2.96061e-05 9.90891e-06 2.81793e-08 )  
( 2.76133e-05 9.8986e-06 -5.54199e-07 )  
( 3.42983e-05 6.57093e-06 8.1927e-06 )  
( 2.97331e-05 1.07233e-05 5.04931e-07 )  
( 3.03866e-05 8.3448e-06 3.2688e-06 )  
( 2.62117e-05 6.67357e-06 8.49096e-07 )  
( 3.01523e-05 1.00609e-05 2.0661e-06 )  
( 2.61869e-05 1.04152e-05 3.05942e-06 )  
( 3.05679e-05 9.57839e-06 6.96863e-07 )  
( 3.00362e-05 1.02601e-05 -1.40495e-06 )  
( 3.01949e-05 1.02943e-05 1.42693e-06 )  
( 2.87254e-05 1.16083e-05 2.0875e-06 )  
( 2.79746e-05 1.24059e-05 2.14347e-06 )  
( 3.09959e-05 9.89028e-06 2.1795e-06 )  
( 2.86584e-05 1.22445e-05 2.01554e-06 )  
( 3.3431e-05 1.10081e-05 -1.86849e-07 )  
( 3.77688e-05 1.47452e-05 -3.73954e-06 )  
( 3.01294e-05 4.05498e-06 1.75346e-07 )  
( 3.00944e-05 1.08578e-05 2.98761e-06 )  
( 3.28907e-05 1.35072e-05 2.79839e-06 )  
( 3.14714e-05 9.89307e-06 1.17602e-06 )  
( 2.87047e-05 1.16328e-05 4.97146e-06 )  
( 3.10743e-05 6.64545e-06 2.40689e-06 )  
( 3.05883e-05 8.84774e-06 1.91852e-06 )  
( 3.19408e-05 9.2077e-06 4.19823e-06 )  
( 3.45e-05 9.65497e-06 3.46217e-06 )  
( 3.35238e-05 1.03763e-05 2.93608e-06 )  
( 3.03566e-05 1.05661e-05 1.34579e-06 )  
( 3.2592e-05 1.07021e-05 8.3414e-07 )  
( 3.19849e-05 1.06832e-05 1.68224e-06 )  
( 3.43846e-05 1.31681e-05 2.41518e-06 )  
( 3.47388e-05 1.15607e-05 1.66593e-06 )  
( 3.55855e-05 1.1138e-05 -2.48826e-06 )  
( 3.71466e-05 1.43337e-05 3.08553e-06 )  
( 3.10363e-05 6.02379e-06 -1.49211e-06 )  
( 3.47277e-05 1.1069e-05 -3.30664e-07 )  
( 3.28314e-05 1.14286e-05 1.88791e-06 )  
( 3.47941e-05 1.00444e-05 5.73486e-06 )  
( 3.54618e-05 1.29738e-05 5.85016e-07 )  
( 3.98091e-05 1.36225e-05 -1.49648e-06 )  
( 3.41462e-05 1.03105e-05 3.06574e-06 )  
( 3.33704e-05 1.10087e-05 5.5177e-06 )  
( 3.34179e-05 5.63052e-06 -1.59591e-07 )  
( 3.53445e-05 1.27584e-05 3.89401e-06 )  
( 3.2409e-05 1.05117e-05 -1.56696e-06 )  
( 3.71355e-05 1.09128e-05 -4.05365e-06 )  
( 3.77708e-05 1.24045e-05 3.54102e-07 )  
( 4.21821e-05 1.66801e-05 -5.04204e-07 )  
( 4.14195e-05 1.06648e-05 5.44926e-06 )  
( 4.13319e-05 9.14007e-06 -5.42313e-07 )  
( 3.67071e-05 1.17936e-05 8.82393e-06 )  
( 3.80091e-05 1.17841e-05 -2.93357e-06 )  
( 3.65173e-05 1.18306e-05 1.77561e-06 )  
( 3.50325e-05 2.04489e-06 2.56687e-06 )  
( 3.8113e-05 9.50923e-06 -1.24597e-07 )  
( 3.41889e-05 1.30972e-05 -4.3969e-07 )  
( 3.79813e-05 1.18501e-05 -6.40598e-06 )  
( 3.4405e-05 8.17001e-06 2.63426e-06 )  
( 3.25051e-05 1.13233e-05 9.43398e-07 )  
( 3.99437e-05 8.66744e-06 -5.43293e-06 )  
( 4.25595e-05 1.05817e-05 -4.18456e-06 )  
( 3.71464e-05 1.06095e-05 3.93944e-06 )  
( 4.02364e-05 1.22671e-05 -1.34561e-06 )  
( 3.69556e-05 1.17941e-05 -1.15381e-06 )  
( 3.38183e-05 1.19123e-05 6.63873e-08 )  
( 3.9933e-05 8.11381e-06 -4.23105e-06 )  
( 3.48356e-05 1.32698e-05 2.75579e-06 )  
( 3.91562e-05 5.8054e-06 3.85446e-06 )  
( 3.86174e-05 5.78088e-06 -9.38904e-07 )  
( 4.04788e-05 1.2987e-05 1.49951e-06 )  
( 3.90257e-05 8.88799e-06 7.76156e-07 )  
( 4.21095e-05 8.25588e-06 1.3003e-06 )  
( 3.71848e-05 1.30776e-05 -3.21395e-07 )  
( 4.16153e-05 3.15727e-06 5.1501e-06 )  
( 3.44553e-05 8.75302e-06 -2.56137e-07 )  
( 4.04064e-05 1.11182e-05 5.7019e-06 )  
( 3.68773e-05 7.61791e-06 3.34619e-06 )  
( 3.95881e-05 1.49819e-05 -1.74449e-06 )  
( 3.66432e-05 1.37494e-05 2.11338e-06 )  
( 4.00274e-05 1.24101e-05 -2.28095e-06 )  
( 2.68357e-05 1.17697e-05 1.43225e-06 )  
( 4.07828e-05 1.10761e-05 8.02109e-06 )  
( 4.16661e-05 1.02837e-05 2.64914e-07 )  
( 3.82094e-05 1.02678e-05 6.73292e-07 )  
( 4.07522e-05 9.9982e-06 -1.03007e-06 )  
( 4.57553e-05 1.05889e-05 -1.32305e-05 )  
( 4.01136e-05 1.26924e-05 6.37862e-08 )  
( 4.04251e-05 1.0062e-05 7.39112e-06 )  
( 3.62181e-05 1.09893e-05 2.71558e-06 )  
( 4.2201e-05 1.54558e-05 -5.00825e-07 )  
( 4.02216e-05 1.13223e-05 4.65208e-06 )  
( 4.38903e-05 1.14785e-05 -8.7625e-07 )  
( 3.86063e-05 8.75828e-06 -9.30909e-06 )  
( 4.48456e-05 1.2703e-05 1.88351e-06 )  
( 3.65148e-05 1.39379e-05 -9.38719e-07 )  
( 4.23521e-05 1.52753e-05 1.87649e-06 )  
( 3.85544e-05 1.09984e-05 3.20153e-06 )  
( 3.80261e-05 1.11109e-05 5.93313e-06 )  
( 4.31651e-05 1.50082e-05 -1.92734e-06 )  
( -0.000429517 0.000904352 -0.000225152 )  
( 4.31334e-05 1.32328e-05 -9.43408e-06 )  
( 3.50676e-05 1.49503e-05 -4.3327e-06 )  
( 4.17463e-05 1.2054e-05 1.67611e-06 )  
( 3.72675e-05 1.38178e-05 3.80368e-06 )  
( 4.19088e-05 1.39052e-05 2.85663e-06 )  
( 4.41335e-05 9.99118e-06 3.40866e-06 )  
( 4.11368e-05 1.03808e-05 7.63512e-06 )  
( 4.07862e-05 1.31676e-05 1.11749e-06 )  
( 4.61713e-05 1.1544e-05 6.51629e-06 )  
( 4.22607e-05 1.64303e-05 8.35783e-07 )  
( 4.42582e-05 9.98956e-06 5.34817e-06 )  
( 4.07027e-05 1.36838e-05 6.24839e-06 )  
( 3.80465e-05 1.63749e-05 -1.8838e-06 )  
( 3.77191e-05 1.55265e-05 4.94899e-06 )  
( 3.9361e-05 1.45171e-05 -4.14607e-06 )  
( 4.6425e-05 2.45909e-05 5.65539e-06 )  
( 4.4338e-05 1.92062e-05 -3.52084e-06 )  
( 3.66434e-05 1.47334e-05 7.06594e-08 )  
( 4.18841e-05 1.53492e-05 -3.4064e-07 )  
( 4.14218e-05 1.64753e-05 1.6699e-06 )  
( 4.47028e-05 1.53217e-05 -9.81694e-06 )  
( 3.92372e-05 1.51902e-05 -3.23456e-06 )  
( 4.57058e-05 7.43836e-06 6.56287e-06 )  
( 4.41558e-05 1.68527e-05 8.30576e-07 )  
( 4.07564e-05 1.68955e-05 -7.38721e-07 )  
( 4.05908e-05 1.60464e-05 1.37837e-06 )  
( 4.61635e-05 1.77617e-05 9.89768e-06 )  
( 4.25622e-05 1.76725e-05 -7.85317e-06 )  
( 4.33916e-05 1.73736e-05 -1.70048e-06 )  
( 3.49345e-05 2.73022e-05 -1.16793e-06 )  
( 0.000678147 -0.00092737 -0.00078518 )  
( 3.424e-05 1.50045e-05 1.56382e-06 )  
( 5.02712e-05 1.8015e-05 -3.90879e-06 )  
( 3.37167e-05 2.00795e-05 -6.4801e-06 )  
( 4.14554e-05 1.70044e-05 2.36471e-06 )  
( 3.48635e-05 1.4291e-05 9.20979e-07 )  
( 4.50397e-05 1.31758e-05 6.76657e-06 )  
( 0.000101742 -0.00020499 -5.34461e-06 )  
( 4.77916e-05 1.48657e-05 2.05994e-06 )  
( 3.62578e-05 1.58553e-05 4.90921e-06 )  
( 2.8838e-05 2.381e-05 -3.3822e-06 )  
( 4.66331e-05 1.26562e-05 6.66979e-06 )  
( 4.4788e-05 2.31101e-05 -7.93377e-06 )  
( 3.40886e-05 1.07742e-05 1.65374e-06 )  
( 2.28024e-05 1.46064e-05 -4.22301e-06 )  
( 4.45212e-05 1.19515e-05 3.67137e-06 )  
( -9.71616e-05 0.000386628 -6.06033e-05 )  
( 2.9265e-05 2.9551e-05 -2.54953e-05 )  
( 5.07104e-05 1.24005e-05 9.72784e-06 )  
( 0.00029341 0.000327025 8.84869e-05 )  
( 4.68482e-05 1.18835e-05 6.17112e-06 )  
( 3.85036e-05 1.26605e-05 -6.93398e-07 )  
( 3.4386e-05 3.10144e-06 -5.22427e-06 )  
( 3.82873e-05 2.19373e-05 1.79671e-06 )  
( -3.93968e-05 0.000244697 -2.18346e-05 )  
( 3.86491e-05 2.14485e-05 2.66046e-06 )  
( 4.19953e-05 2.61706e-05 6.46754e-06 )  
( -0.000710031 0.000732877 -0.000396006 )  
( 5.14584e-05 1.70733e-05 -5.08125e-06 )  
( 0.00032867 0.000209315 -0.000306072 )  
)
