/*--------------------------------*- C++ -*----------------------------------*\
| =========                 |                                                 |
| \\      /  F ield         | OpenFOAM: The Open Source CFD Toolbox           |
|  \\    /   O peration     | Version:  5.x                                   |
|   \\  /    A nd           | Web:      www.OpenFOAM.org                      |
|    \\/     M anipulation  |                                                 |
\*---------------------------------------------------------------------------*/
FoamFile
{
    version     2.0;
    format      ascii;
    class       volVectorField;
    location    "8000";
    object      stored_U;
}
// * * * * * * * * * * * * * * * * * * * * * * * * * * * * * * * * * * * * * //

dimensions      [0 1 -1 0 0 0 0];

internalField   nonuniform List<vector> 
180
(
(0.0432803 -0.0841137 109.014)
(0.0258211 -0.0829564 110.289)
(0.00536171 -0.0710612 109.395)
(0.049881 -0.07357 110.114)
(0.00603562 -0.0627694 109.192)
(0.111054 -0.0323998 109.843)
(0.136948 0.0163754 109.785)
(0.179795 -0.00148456 109.696)
(0.260593 -0.103396 109.932)
(0.218264 0.0256049 109.396)
(0.420636 -0.0246124 109.816)
(1.38839 -1.01181 109.569)
(1.35317 -1.05312 110.302)
(1.12369 -0.906935 110.354)
(1.2483 -1.01577 110.28)
(1.72204 -1.41679 110.548)
(2.11083 -1.58333 110.751)
(2.33339 -1.52235 111.133)
(2.43434 -1.38712 111.405)
(2.51542 -1.22276 111.731)
(2.61135 -1.05747 112.049)
(2.66169 -0.904168 112.365)
(2.62723 -0.795324 112.675)
(2.5559 -0.693956 113.009)
(2.43345 -0.613609 113.32)
(2.29885 -0.539391 113.612)
(2.2289 -0.480062 113.879)
(2.1641 -0.464418 114.16)
(2.06988 -0.335172 114.49)
(2.05198 -0.0985948 114.784)
(2.06671 0.0791937 115.032)
(2.07267 0.225952 115.204)
(2.07768 0.498563 115.492)
(2.13271 0.813047 115.604)
(2.10179 1.00187 115.898)
(1.76673 1.51178 115.83)
(1.75202 1.44617 116.109)
(1.81632 1.19436 116.248)
(1.31821 1.02941 115.734)
(0.561247 1.34461 115.872)
(0.300254 1.48495 116.117)
(-0.247955 1.50491 115.658)
(-0.2529 0.731993 114.426)
(-0.498579 0.851827 115.704)
(-0.304209 0.630112 115.438)
(0.305748 0.132737 115.081)
(0.233269 0.243261 115.188)
(-0.485238 0.605079 113.593)
(-0.453088 0.500864 114.574)
(-0.454593 0.469428 114.233)
(-0.770785 0.711303 114.359)
(-0.797126 0.553457 112.433)
(-0.536184 0.290387 114.085)
(-0.424614 0.054952 112.269)
(-0.475915 -0.0103245 113.462)
(-0.600425 -0.0724728 112.35)
(-0.515559 -0.142996 112.429)
(-0.777328 0.0424596 112.614)
(-0.717152 -0.114555 111.674)
(-0.781726 -0.125539 112.293)
(-0.396563 -0.311295 111.049)
(-0.409302 -0.38116 111.548)
(-0.401975 -0.400136 111.497)
(0.173644 -0.708329 110.704)
(0.231251 -0.887282 111.137)
(0.168606 -1.0403 111.169)
(0.274428 -1.20052 111.006)
(1.01026 -1.30716 110.233)
(0.965707 -1.76889 111.196)
(0.966466 -1.89422 111.153)
(1.27479 -1.65205 111.148)
(2.05603 -1.45899 110.45)
(2.01266 -2.02299 111.466)
(2.13131 -2.18081 111.532)
(2.31737 -2.08482 111.497)
(2.45429 -1.98812 111.98)
(3.14581 -2.3211 111.357)
(3.16064 -2.55827 112.511)
(3.30885 -2.56849 111.907)
(3.61809 -2.70284 112.71)
(4.11682 -1.83975 112.128)
(4.27857 -1.95055 112.778)
(4.6151 -1.34725 112.646)
(4.94232 -0.769295 112.558)
(4.96872 -0.805477 113.179)
(5.23746 -0.646077 112.784)
(5.34475 -0.544966 113.094)
(5.22641 -0.491793 113.186)
(4.84267 -0.380425 113.313)
(4.85587 -0.390082 113.601)
(5.14366 -0.426034 113.723)
(4.59068 -0.0852971 113.431)
(4.64397 -0.0487198 114.181)
(4.25044 0.221416 113.806)
(4.25292 0.229729 114.23)
(3.85812 0.375846 113.721)
(3.77466 0.466616 114.485)
(2.95296 0.0813195 113.723)
(3.0853 0.0878052 114.586)
(2.59984 -1.45596 114.162)
(2.76762 -1.44415 114.472)
(2.82442 -1.5399 115.035)
(1.92288 -2.1568 114.762)
(2.00602 -4.29551 114.746)
(2.34069 -6.17873 116.063)
(3.48995 -8.41861 116.242)
(4.84846 -10.6468 117.844)
(5.79839 -12.1238 118.885)
(7.28767 -13.8928 120.507)
(8.92631 -15.7047 121.798)
(10.452 -17.4093 123.498)
(11.3658 -18.5487 124.443)
(12.4219 -19.5632 125.926)
(13.247 -20.1804 126.327)
(14.034 -20.8191 127.367)
(14.1668 -21 127.891)
(14.6223 -21.4309 128.085)
(16.3972 -22.8943 127.839)
(17.7499 -24.3958 127.936)
(19.0172 -25.5692 127.734)
(20.8704 -26.9129 127.28)
(22.917 -28.6772 126.964)
(23.389 -29.5221 127.138)
(23.6115 -29.8377 126.795)
(24.4205 -30.3561 126.078)
(24.6777 -30.6621 125.666)
(25.39 -31.7146 124.858)
(27.1554 -33.2714 123.709)
(27.7366 -33.9254 124.09)
(28.7291 -34.7212 122.793)
(28.8851 -34.8012 122.69)
(28.8296 -34.7527 122.357)
(29.5815 -35.5445 120.858)
(31.439 -36.6067 119.809)
(31.6516 -36.6542 119.972)
(32.2787 -37.2803 117.267)
(31.7088 -36.8772 117.417)
(32.0897 -37.1635 114.861)
(32.8673 -37.9888 113.227)
(33.2928 -38.5363 111.343)
(33.3775 -38.8977 109.485)
(33.0003 -38.6629 108.996)
(33.3333 -39.0353 106.297)
(32.9658 -39.0381 104.839)
(32.8652 -39.3266 102.695)
(32.3539 -38.8193 100.727)
(32.1265 -38.2527 99.4476)
(31.9375 -37.7686 97.3973)
(31.6449 -37.3945 96.9909)
(30.9957 -37.0411 94.8984)
(30.2651 -35.8792 94.3765)
(28.4489 -34.3405 93.1485)
(26.2828 -32.2709 92.4981)
(24.4011 -29.8924 92.0305)
(22.7071 -27.8574 91.1297)
(21.4803 -26.3755 91.2875)
(20.2523 -24.8589 90.7452)
(18.9401 -23.2801 91.0497)
(18.5006 -22.477 91.6675)
(18.7584 -22.4582 91.9346)
(19.2109 -22.7461 93.6266)
(18.9971 -22.265 94.2121)
(19.3329 -21.5442 95.9097)
(19.8742 -21.0718 97.3699)
(20.2942 -20.4794 98.8544)
(20.5609 -20.2077 100.284)
(20.8513 -20.5684 101.612)
(21.0385 -21.1153 102.449)
(21.7665 -21.026 103.196)
(21.6302 -21.1173 104.017)
(21.1499 -21.0338 104.245)
(18.8056 -19.0679 103.199)
(18.5437 -19.4489 103.335)
(18.3298 -19.3956 103.31)
(16.462 -17.7407 101.35)
(15.7936 -17.8237 101.588)
(16.7182 -17.7768 100.213)
(15.7194 -18.2482 100.255)
(14.8194 -18.0207 99.8164)
(14.1731 -17.5211 98.9498)
)
;

boundaryField
{
    inlet
    {
        type            calculated;
        value           uniform (14.1731 -17.5211 98.9498);
    }
    outlet
    {
        type            calculated;
        value           uniform (0.0432803 -0.0841137 109.014);
    }
    repeat_boundary
    {
        type            calculated;
        value           nonuniform List<vector> 
360
(
(0.0432803 0 109.014)
(0.0258211 0 110.289)
(0.00536171 0 109.395)
(0.049881 0 110.114)
(0.00603562 0 109.192)
(0.111054 0 109.843)
(0.136948 0 109.785)
(0.179795 0 109.696)
(0.260593 0 109.932)
(0.218264 0 109.396)
(0.420636 0 109.816)
(1.38839 0 109.569)
(1.35317 0 110.302)
(1.12369 0 110.354)
(1.2483 0 110.28)
(1.72204 0 110.548)
(2.11083 0 110.751)
(2.33339 0 111.133)
(2.43434 0 111.405)
(2.51542 0 111.731)
(2.61135 0 112.049)
(2.66169 0 112.365)
(2.62723 0 112.675)
(2.5559 0 113.009)
(2.43345 0 113.32)
(2.29885 0 113.612)
(2.2289 0 113.879)
(2.1641 0 114.16)
(2.06988 0 114.49)
(2.05198 0 114.784)
(2.06671 0 115.032)
(2.07267 0 115.204)
(2.07768 0 115.492)
(2.13271 0 115.604)
(2.10179 0 115.898)
(1.76673 0 115.83)
(1.75202 0 116.109)
(1.81632 0 116.248)
(1.31821 0 115.734)
(0.561247 0 115.872)
(0.300254 0 116.117)
(-0.247955 0 115.658)
(-0.2529 0 114.426)
(-0.498579 0 115.704)
(-0.304209 0 115.438)
(0.305748 0 115.081)
(0.233269 0 115.188)
(-0.485238 0 113.593)
(-0.453088 0 114.574)
(-0.454593 0 114.233)
(-0.770785 0 114.359)
(-0.797126 0 112.433)
(-0.536184 0 114.085)
(-0.424614 0 112.269)
(-0.475915 0 113.462)
(-0.600425 0 112.35)
(-0.515559 0 112.429)
(-0.777328 0 112.614)
(-0.717152 0 111.674)
(-0.781726 0 112.293)
(-0.396563 0 111.049)
(-0.409302 0 111.548)
(-0.401975 0 111.497)
(0.173644 0 110.704)
(0.231251 0 111.137)
(0.168606 0 111.169)
(0.274428 0 111.006)
(1.01026 0 110.233)
(0.965707 0 111.196)
(0.966466 0 111.153)
(1.27479 0 111.148)
(2.05603 0 110.45)
(2.01266 0 111.466)
(2.13131 0 111.532)
(2.31737 0 111.497)
(2.45429 0 111.98)
(3.14581 0 111.357)
(3.16064 0 112.511)
(3.30885 0 111.907)
(3.61809 0 112.71)
(4.11682 0 112.128)
(4.27857 0 112.778)
(4.6151 0 112.646)
(4.94232 0 112.558)
(4.96872 0 113.179)
(5.23746 0 112.784)
(5.34475 0 113.094)
(5.22641 0 113.186)
(4.84267 0 113.313)
(4.85587 0 113.601)
(5.14366 0 113.723)
(4.59068 0 113.431)
(4.64397 0 114.181)
(4.25044 0 113.806)
(4.25292 0 114.23)
(3.85812 0 113.721)
(3.77466 0 114.485)
(2.95296 0 113.723)
(3.0853 0 114.586)
(2.59984 0 114.162)
(2.76762 0 114.472)
(2.82442 0 115.035)
(1.92288 0 114.762)
(2.00602 0 114.746)
(2.34069 0 116.063)
(3.48995 0 116.242)
(4.84846 0 117.844)
(5.79839 0 118.885)
(7.28767 0 120.507)
(8.92631 0 121.798)
(10.452 0 123.498)
(11.3658 0 124.443)
(12.4219 0 125.926)
(13.247 0 126.327)
(14.034 0 127.367)
(14.1668 0 127.891)
(14.6223 0 128.085)
(16.3972 0 127.839)
(17.7499 0 127.936)
(19.0172 0 127.734)
(20.8704 0 127.28)
(22.917 0 126.964)
(23.389 0 127.138)
(23.6115 0 126.795)
(24.4205 0 126.078)
(24.6777 0 125.666)
(25.39 0 124.858)
(27.1554 0 123.709)
(27.7366 0 124.09)
(28.7291 0 122.793)
(28.8851 0 122.69)
(28.8296 0 122.357)
(29.5815 0 120.858)
(31.439 0 119.809)
(31.6516 0 119.972)
(32.2787 0 117.267)
(31.7088 0 117.417)
(32.0897 0 114.861)
(32.8673 0 113.227)
(33.2928 0 111.343)
(33.3775 0 109.485)
(33.0003 0 108.996)
(33.3333 0 106.297)
(32.9658 0 104.839)
(32.8652 0 102.695)
(32.3539 0 100.727)
(32.1265 0 99.4476)
(31.9375 0 97.3973)
(31.6449 0 96.9909)
(30.9957 0 94.8984)
(30.2651 0 94.3765)
(28.4489 0 93.1485)
(26.2828 0 92.4981)
(24.4011 0 92.0305)
(22.7071 0 91.1297)
(21.4803 0 91.2875)
(20.2523 0 90.7452)
(18.9401 0 91.0497)
(18.5006 0 91.6675)
(18.7584 0 91.9346)
(19.2109 0 93.6266)
(18.9971 0 94.2121)
(19.3329 0 95.9097)
(19.8742 0 97.3699)
(20.2942 0 98.8544)
(20.5609 0 100.284)
(20.8513 0 101.612)
(21.0385 0 102.449)
(21.7665 0 103.196)
(21.6302 0 104.017)
(21.1499 0 104.245)
(18.8056 0 103.199)
(18.5437 0 103.335)
(18.3298 0 103.31)
(16.462 0 101.35)
(15.7936 0 101.588)
(16.7182 0 100.213)
(15.7194 0 100.255)
(14.8194 0 99.8164)
(14.1731 0 98.9498)
(0 -0.0841137 109.014)
(0 -0.0829564 110.289)
(0 -0.0710612 109.395)
(0 -0.07357 110.114)
(0 -0.0627694 109.192)
(0 -0.0323998 109.843)
(0 0.0163754 109.785)
(0 -0.00148456 109.696)
(0 -0.103396 109.932)
(0 0.0256049 109.396)
(0 -0.0246124 109.816)
(0 -1.01181 109.569)
(0 -1.05312 110.302)
(0 -0.906935 110.354)
(0 -1.01577 110.28)
(0 -1.41679 110.548)
(0 -1.58333 110.751)
(0 -1.52235 111.133)
(0 -1.38712 111.405)
(0 -1.22276 111.731)
(0 -1.05747 112.049)
(0 -0.904168 112.365)
(0 -0.795324 112.675)
(0 -0.693956 113.009)
(0 -0.613609 113.32)
(0 -0.539391 113.612)
(0 -0.480062 113.879)
(0 -0.464418 114.16)
(0 -0.335172 114.49)
(0 -0.0985948 114.784)
(0 0.0791937 115.032)
(0 0.225952 115.204)
(0 0.498563 115.492)
(0 0.813047 115.604)
(0 1.00187 115.898)
(0 1.51178 115.83)
(0 1.44617 116.109)
(0 1.19436 116.248)
(0 1.02941 115.734)
(0 1.34461 115.872)
(0 1.48495 116.117)
(0 1.50491 115.658)
(0 0.731993 114.426)
(0 0.851827 115.704)
(0 0.630112 115.438)
(0 0.132737 115.081)
(0 0.243261 115.188)
(0 0.605079 113.593)
(0 0.500864 114.574)
(0 0.469428 114.233)
(0 0.711303 114.359)
(0 0.553457 112.433)
(0 0.290387 114.085)
(0 0.054952 112.269)
(0 -0.0103245 113.462)
(0 -0.0724728 112.35)
(0 -0.142996 112.429)
(0 0.0424596 112.614)
(0 -0.114555 111.674)
(0 -0.125539 112.293)
(0 -0.311295 111.049)
(0 -0.38116 111.548)
(0 -0.400136 111.497)
(0 -0.708329 110.704)
(0 -0.887282 111.137)
(0 -1.0403 111.169)
(0 -1.20052 111.006)
(0 -1.30716 110.233)
(0 -1.76889 111.196)
(0 -1.89422 111.153)
(0 -1.65205 111.148)
(0 -1.45899 110.45)
(0 -2.02299 111.466)
(0 -2.18081 111.532)
(0 -2.08482 111.497)
(0 -1.98812 111.98)
(0 -2.3211 111.357)
(0 -2.55827 112.511)
(0 -2.56849 111.907)
(0 -2.70284 112.71)
(0 -1.83975 112.128)
(0 -1.95055 112.778)
(0 -1.34725 112.646)
(0 -0.769295 112.558)
(0 -0.805477 113.179)
(0 -0.646077 112.784)
(0 -0.544966 113.094)
(0 -0.491793 113.186)
(0 -0.380425 113.313)
(0 -0.390082 113.601)
(0 -0.426034 113.723)
(0 -0.0852971 113.431)
(0 -0.0487198 114.181)
(0 0.221416 113.806)
(0 0.229729 114.23)
(0 0.375846 113.721)
(0 0.466616 114.485)
(0 0.0813195 113.723)
(0 0.0878052 114.586)
(0 -1.45596 114.162)
(0 -1.44415 114.472)
(0 -1.5399 115.035)
(0 -2.1568 114.762)
(0 -4.29551 114.746)
(0 -6.17873 116.063)
(0 -8.41861 116.242)
(0 -10.6468 117.844)
(0 -12.1238 118.885)
(0 -13.8928 120.507)
(0 -15.7047 121.798)
(0 -17.4093 123.498)
(0 -18.5487 124.443)
(0 -19.5632 125.926)
(0 -20.1804 126.327)
(0 -20.8191 127.367)
(0 -21 127.891)
(0 -21.4309 128.085)
(0 -22.8943 127.839)
(0 -24.3958 127.936)
(0 -25.5692 127.734)
(0 -26.9129 127.28)
(0 -28.6772 126.964)
(0 -29.5221 127.138)
(0 -29.8377 126.795)
(0 -30.3561 126.078)
(0 -30.6621 125.666)
(0 -31.7146 124.858)
(0 -33.2714 123.709)
(0 -33.9254 124.09)
(0 -34.7212 122.793)
(0 -34.8012 122.69)
(0 -34.7527 122.357)
(0 -35.5445 120.858)
(0 -36.6067 119.809)
(0 -36.6542 119.972)
(0 -37.2803 117.267)
(0 -36.8772 117.417)
(0 -37.1635 114.861)
(0 -37.9888 113.227)
(0 -38.5363 111.343)
(0 -38.8977 109.485)
(0 -38.6629 108.996)
(0 -39.0353 106.297)
(0 -39.0381 104.839)
(0 -39.3266 102.695)
(0 -38.8193 100.727)
(0 -38.2527 99.4476)
(0 -37.7686 97.3973)
(0 -37.3945 96.9909)
(0 -37.0411 94.8984)
(0 -35.8792 94.3765)
(0 -34.3405 93.1485)
(0 -32.2709 92.4981)
(0 -29.8924 92.0305)
(0 -27.8574 91.1297)
(0 -26.3755 91.2875)
(0 -24.8589 90.7452)
(0 -23.2801 91.0497)
(0 -22.477 91.6675)
(0 -22.4582 91.9346)
(0 -22.7461 93.6266)
(0 -22.265 94.2121)
(0 -21.5442 95.9097)
(0 -21.0718 97.3699)
(0 -20.4794 98.8544)
(0 -20.2077 100.284)
(0 -20.5684 101.612)
(0 -21.1153 102.449)
(0 -21.026 103.196)
(0 -21.1173 104.017)
(0 -21.0338 104.245)
(0 -19.0679 103.199)
(0 -19.4489 103.335)
(0 -19.3956 103.31)
(0 -17.7407 101.35)
(0 -17.8237 101.588)
(0 -17.7768 100.213)
(0 -18.2482 100.255)
(0 -18.0207 99.8164)
(0 -17.5211 98.9498)
)
;
    }
    procBoundary1to0
    {
        type            processor;
        value           nonuniform List<vector> 
180
(
(0.0419117 -0.0697796 106.295)
(0.0240127 -0.0516019 107.404)
(0.0331125 -0.0450584 107.277)
(0.0539022 -0.0650312 106.959)
(0.0738683 -0.0824243 107.163)
(0.0836205 -0.123374 106.537)
(0.085807 -0.0796248 107.147)
(0.00992956 -0.187288 106.993)
(0.0811768 -0.307894 106.861)
(0.360148 -0.366957 106.925)
(0.580597 -0.400123 106.78)
(0.706212 -0.38932 106.982)
(1.1957 -0.176041 106.352)
(1.12895 -0.249356 106.942)
(0.852351 -0.318308 106.894)
(0.751189 -0.125401 106.289)
(1.12749 0.15011 106.257)
(1.43819 0.223103 106.125)
(1.48158 0.185585 106.379)
(1.41086 0.0973108 104.956)
(1.59301 0.230043 105.874)
(1.42364 0.313063 104.984)
(1.47842 0.177365 105.275)
(1.66725 0.386348 103.893)
(1.71982 0.472762 104.606)
(1.69955 0.408339 104.748)
(1.88902 0.248144 103.091)
(1.95222 0.213151 104.448)
(2.04508 0.547535 102.47)
(2.00648 0.395242 103.968)
(1.57496 0.156026 101.915)
(1.54308 0.0335306 102.792)
(1.57762 -0.0466699 102.825)
(1.67588 0.117521 102.137)
(0.900323 -0.38339 101.814)
(-0.162529 -0.694017 101.376)
(-0.531259 -1.08199 101.847)
(-1.18972 -1.39875 101.193)
(-1.42283 -1.72191 101.904)
(-1.58756 -1.88345 101.763)
(-1.50764 -1.88475 101.758)
(-1.38424 -1.74204 102.118)
(-1.65705 -1.6338 101.953)
(-2.09474 -1.81114 102.237)
(-2.07847 -1.79439 102.653)
(-2.44994 -2.42628 102.323)
(-2.49332 -2.47457 103.227)
(-2.95758 -2.64191 102.94)
(-2.98169 -2.65478 103.717)
(-2.93846 -2.93675 103.712)
(-3.12131 -3.23214 104.334)
(-3.30508 -3.1202 104.559)
(-3.0693 -2.88225 104.773)
(-2.81449 -3.04992 105.633)
(-2.6042 -2.71955 105.529)
(-3.33265 -3.06788 105.952)
(-3.19387 -3.22001 106.604)
(-3.28027 -3.35094 106.563)
(-3.41933 -3.28728 107.202)
(-3.50992 -3.39513 107.852)
(-3.31267 -3.45006 107.755)
(-3.233 -3.2192 108.678)
(-2.41385 -2.87666 108.676)
(-1.77837 -2.69253 109.196)
(-2.70787 -3.42377 109.296)
(-2.77874 -3.46487 110.003)
(-2.78244 -3.4932 109.917)
(-2.69039 -3.5982 110.586)
(-2.69071 -3.7408 110.83)
(-2.6362 -3.85191 111.08)
(-2.50371 -3.98546 111.57)
(-2.32994 -3.96493 111.77)
(-2.17312 -3.77647 112.069)
(-1.94014 -3.45804 112.276)
(-1.79656 -3.35432 112.455)
(-1.73858 -3.39531 112.674)
(-0.865356 -3.19228 112.521)
(-0.768392 -3.08039 112.852)
(-0.648268 -2.95008 112.794)
(-0.452297 -2.73419 112.745)
(-0.315357 -2.5269 112.678)
(-0.393913 -2.59349 112.866)
(0.767647 -2.2156 111.589)
(0.680147 -2.16209 112.39)
(0.692604 -2.06622 111.951)
(0.901192 -2.1612 111.354)
(1.0694 -2.16238 111.601)
(1.42292 -0.988873 109.477)
(1.37908 -0.808829 110.532)
(1.30525 -0.689765 109.892)
(1.55372 -0.569082 109.181)
(1.84406 -0.406489 109.438)
(1.02059 -0.354222 107.01)
(0.99639 -0.0739285 108.901)
(0.833388 0.0718933 106.921)
(0.889663 0.194857 107.016)
(0.848325 0.201714 106.918)
(0.83667 0.181718 106.115)
(0.952948 0.127176 106.258)
(0.972898 0.437234 105.278)
(0.957282 0.672055 105.589)
(0.484507 0.590086 104.589)
(0.104312 0.516134 103.745)
(0.250058 0.765018 105.201)
(0.208784 0.294774 103.033)
(0.533094 0.444147 104.298)
(0.691846 0.324284 103.126)
(0.110701 -0.181385 102.629)
(-1.22203 0.121818 102.603)
(-2.96667 0.170743 102.209)
(-5.33362 0.83222 101.92)
(-7.74344 1.19356 101.656)
(-10.2416 2.1522 101.569)
(-12.3687 2.57034 101.308)
(-14.7278 3.40823 101.352)
(-16.8072 3.60292 101.202)
(-19.1586 4.25424 101.207)
(-21.0751 4.06971 101.371)
(-22.8379 4.695 101.292)
(-25.9679 4.25967 100.953)
(-25.6131 3.62255 102.286)
(-27.1859 4.13436 101.447)
(-28.5049 4.12477 101.511)
(-30.0817 2.69202 101.318)
(-30.4642 1.8193 101.875)
(-30.0874 1.82954 101.769)
(-29.22 2.17352 101.826)
(-28.8257 2.33593 101.61)
(-29.1681 1.97823 101.263)
(-29.1743 1.88526 101.084)
(-29.0456 1.86498 100.682)
(-28.9811 1.92127 100.548)
(-31.6309 3.19242 99.7539)
(-34.6802 4.88131 99.3993)
(-37.5288 6.46475 98.8958)
(-40.847 7.22542 98.6009)
(-43.9428 7.83096 98.1392)
(-46.5275 7.73816 97.8136)
(-48.4052 7.44008 97.5118)
(-49.6353 6.63492 97.1264)
(-50.4646 5.72422 97.0181)
(-51.0849 4.66578 96.3405)
(-51.3009 3.65371 96.8528)
(-51.2472 2.57928 95.74)
(-50.2031 1.6689 96.5042)
(-50.0863 0.991368 95.6284)
(-49.2261 0.146761 96.7366)
(-49.2366 -0.328233 95.8756)
(-46.4344 -0.677534 95.7457)
(-44.8458 -0.9856 95.8041)
(-44.2181 -1.72996 96.5562)
(-43.8179 -1.93913 96.6688)
(-42.5017 -2.14422 95.7674)
(-41.5377 -2.70274 97.2362)
(-40.9989 -2.99266 97.592)
(-39.6787 -3.3279 97.431)
(-38.0265 -3.44204 98.1715)
(-36.8398 -3.82157 99.2162)
(-35.5291 -3.73046 98.9106)
(-35.2165 -4.04576 100.457)
(-32.5406 -3.76438 99.4666)
(-32.1196 -4.27188 101.316)
(-29.2533 -4.26828 99.7021)
(-29.031 -4.64387 101.166)
(-27.2931 -4.73063 100.562)
(-25.7137 -5.04684 99.8498)
(-24.4539 -5.99767 99.7706)
(-22.8645 -6.83259 97.4402)
(-22.7182 -7.7075 99.3726)
(-22.8663 -7.54071 95.5865)
(-23.0788 -8.28186 96.4286)
(-22.4422 -8.23889 93.6856)
(-22.1293 -9.23879 94.6298)
(-21.7995 -8.90243 90.8761)
(-22.392 -10.6948 91.8624)
(-22.5952 -11.3679 92.0719)
(-23.5407 -11.3351 88.9443)
(-23.3461 -11.7349 89.0535)
(-22.749 -13.0143 89.6598)
(-23.6302 -14.1117 89.0883)
)
;
    }
    procBoundary1to3
    {
        type            processor;
        value           nonuniform List<vector> 
180
(
(0.0297373 -0.0889453 106.81)
(-0.0050273 -0.087763 108.025)
(0.00822725 -0.0715226 107.325)
(0.0276957 -0.0779098 107.696)
(0.00571119 -0.0907116 107.297)
(0.224413 -0.0431818 106.892)
(0.271499 0.171172 107.757)
(0.319741 0.285328 107.76)
(0.378557 0.0365839 107.218)
(0.522752 -0.042595 107.592)
(0.428071 -0.666347 107.156)
(0.514026 -0.666616 107.896)
(0.581503 -0.458168 107.699)
(0.570655 -0.188477 107.458)
(0.382244 -0.377459 107.64)
(0.230642 -0.887768 107.682)
(0.222963 -0.700209 106.758)
(0.194687 -0.820977 107.868)
(0.185902 -1.0981 106.6)
(0.20113 -1.08478 107.426)
(0.327508 -1.25759 106.842)
(0.305958 -1.38644 107.207)
(0.534271 -1.53088 106.315)
(0.596697 -1.5097 107.095)
(0.60377 -1.19888 106.46)
(0.704974 -1.21377 106.771)
(0.743921 -1.36235 106.956)
(0.666628 -1.43743 106.241)
(0.615848 -1.53834 107.111)
(0.579825 -1.07111 105.891)
(0.728202 -1.0027 106.873)
(0.772861 -1.04175 106.723)
(0.639374 -1.23744 106.424)
(0.453712 -1.42809 106.871)
(0.337492 -1.25717 106.615)
(0.422453 -0.554194 106.196)
(0.381157 -0.456207 106.983)
(0.439597 -0.454902 106.849)
(0.560671 -0.56882 106.656)
(0.556852 -0.369802 107.146)
(0.470827 0.0961723 106.703)
(0.497941 0.22836 107.38)
(0.549501 0.48314 106.799)
(0.590948 0.427664 107.6)
(0.90091 1.53653 107.092)
(0.92477 1.18188 107.747)
(1.08346 1.46549 107.421)
(1.05307 1.32675 107.814)
(1.00169 1.12592 108.032)
(1.01457 1.36378 108.012)
(0.843722 1.32845 108.1)
(1.01561 0.990435 108.197)
(1.39562 0.638523 108.736)
(1.34491 0.577026 108.541)
(0.655515 0.883437 108.764)
(0.595224 0.916877 108.476)
(0.894643 0.601376 108.906)
(0.918836 0.622858 108.876)
(0.730688 0.605749 108.841)
(0.511856 0.647363 109.025)
(0.735264 0.630993 108.739)
(0.672276 0.540948 109.124)
(0.687402 0.529366 108.941)
(0.753885 0.560471 109.068)
(1.01296 0.23277 108.617)
(0.760453 -0.0586185 109.21)
(0.716633 -0.276588 108.43)
(0.850514 -0.235157 108.666)
(0.964069 -0.167007 108.822)
(1.08069 -0.271078 107.835)
(1.12812 -0.352689 108.5)
(0.987216 -0.784726 107.698)
(0.732427 -1.01932 108.145)
(0.992907 -0.811772 107.571)
(2.52942 -0.563877 107.158)
(4.52248 0.360199 107.533)
(6.1709 1.01016 107.465)
(7.84771 2.1241 107.954)
(9.00342 2.6217 108.226)
(9.9124 3.43944 108.951)
(10.4189 4.06058 109.477)
(10.8198 4.44902 110.307)
(10.7894 4.51219 110.912)
(10.3693 4.57528 111.834)
(10.1765 4.63888 112.468)
(9.96757 4.65073 113.068)
(9.22666 4.60545 113.751)
(8.39312 4.38992 114.353)
(7.36335 4.19617 114.792)
(7.14583 4.1988 115.581)
(6.89981 4.1861 115.583)
(6.31492 3.96943 116.168)
(6.05127 4.00952 116.806)
(6.01551 4.0761 116.851)
(5.53234 3.66585 117.208)
(4.99226 3.57844 117.585)
(4.07815 3.21146 117.704)
(2.57585 1.81312 117.706)
(2.50945 1.95621 118.282)
(2.56708 2.37428 117.553)
(2.58664 2.30718 118.236)
(2.21831 1.89092 117.629)
(0.956645 -0.160448 117.451)
(-0.264943 -2.28492 116.871)
(-1.18098 -4.5165 116.529)
(-1.75505 -6.96423 114.666)
(-1.9555 -8.24492 114.287)
(-1.92677 -9.08121 112.293)
(-2.27482 -8.60765 110.979)
(-2.73804 -7.02706 108.959)
(-3.508 -4.13546 107.95)
(-4.48779 -0.888463 105.824)
(-5.40026 2.88295 104.954)
(-6.23127 6.18853 102.987)
(-6.73512 9.9186 102.36)
(-7.02851 12.9448 100.707)
(-7.08688 16.4164 100.266)
(-6.9205 18.9951 98.962)
(-6.68833 22.0797 98.5864)
(-6.25288 24.6259 97.6395)
(-5.80741 27.29 97.2415)
(-5.21603 29.6013 96.6127)
(-4.80986 31.9531 96.1422)
(-4.06747 34.1289 95.8258)
(-3.74686 36.3458 95.4063)
(-2.88297 38.4052 95.45)
(-2.52347 40.5036 95.0908)
(-1.51595 42.4098 95.4157)
(-1.02191 44.2835 95.1369)
(0.140996 46.1061 95.5645)
(0.953114 47.8953 95.5843)
(2.13679 49.3596 96.0751)
(3.29666 50.7846 96.458)
(4.64365 51.6891 97.007)
(6.02185 52.7653 97.525)
(7.49035 53.5022 98.0874)
(9.02869 54.3795 98.6384)
(10.6769 55.0131 99.3012)
(12.3581 55.4515 99.8081)
(14.0951 55.7366 100.411)
(15.8238 55.7824 100.792)
(17.4654 56.043 101.399)
(19.0016 55.9751 101.701)
(20.3978 55.4944 102.329)
(21.5867 54.7223 102.619)
(22.5896 53.6071 103.13)
(23.254 51.9089 103.431)
(23.7257 49.7043 103.84)
(23.8861 46.94 104.026)
(23.9067 43.7361 104.214)
(23.7064 39.8383 104.16)
(23.4627 35.2185 104.103)
(23.153 29.8621 103.756)
(22.8845 24.0281 103.38)
(22.6395 18.0826 102.701)
(22.551 12.0334 101.883)
(22.5396 5.7967 100.815)
(22.9213 -0.084088 99.36)
(23.2564 -5.77946 98.0609)
(24.0163 -10.3337 95.7799)
(24.9964 -14.4423 94.3705)
(26.2118 -16.8625 91.3019)
(28.5001 -18.0943 90.0306)
(30.1309 -17.4742 86.6435)
(33.1141 -14.9504 85.7618)
(34.4762 -10.9549 82.7771)
(36.6403 -5.44671 82.2611)
(37.109 0.765012 80.1022)
(37.882 7.83057 79.9216)
(36.3137 14.1832 78.7491)
(35.447 19.4518 79.0889)
(32.2347 23.3659 78.5803)
(30.575 25.9745 79.4095)
(27.6312 26.7373 79.5745)
(26.4543 26.6282 80.462)
(24.6964 25.1693 81.1514)
(22.9603 22.3297 81.8088)
(22.202 19.4784 82.3983)
(22.3213 18.6249 82.8352)
(22.2288 19.0179 83.5537)
)
;
    }
}


// ************************************************************************* //
