/*--------------------------------*- C++ -*----------------------------------*\
| =========                 |                                                 |
| \\      /  F ield         | OpenFOAM: The Open Source CFD Toolbox           |
|  \\    /   O peration     | Version:  5.x                                   |
|   \\  /    A nd           | Web:      www.OpenFOAM.org                      |
|    \\/     M anipulation  |                                                 |
\*---------------------------------------------------------------------------*/
FoamFile
{
    version     2.0;
    format      ascii;
    class       volVectorField;
    location    "300";
    object      stored_U;
}
// * * * * * * * * * * * * * * * * * * * * * * * * * * * * * * * * * * * * * //

dimensions      [0 1 -1 0 0 0 0];

internalField   nonuniform List<vector> 
90
(
(1.49901e-09 -1.56377e-09 -0.000999977)
(3.29271e-09 -3.55112e-09 -0.000999977)
(5.28026e-09 -5.74514e-09 -0.000999976)
(7.35103e-09 -8.05475e-09 -0.000999975)
(9.52773e-09 -1.05213e-08 -0.000999973)
(1.18447e-08 -1.32016e-08 -0.00099997)
(1.4341e-08 -1.61621e-08 -0.000999966)
(1.70592e-08 -1.94786e-08 -0.000999961)
(2.004e-08 -2.32347e-08 -0.000999955)
(2.3315e-08 -2.75174e-08 -0.000999946)
(2.68972e-08 -3.24125e-08 -0.000999936)
(3.07711e-08 -3.79974e-08 -0.000999924)
(3.48797e-08 -4.43302e-08 -0.000999909)
(3.9101e-08 -5.14315e-08 -0.000999892)
(4.32161e-08 -5.92576e-08 -0.000999872)
(4.68649e-08 -6.76627e-08 -0.000999849)
(4.94854e-08 -7.63457e-08 -0.000999824)
(5.02328e-08 -8.47739e-08 -0.000999798)
(4.78676e-08 -9.20714e-08 -0.00099977)
(4.06114e-08 -9.68512e-08 -0.000999742)
(2.60644e-08 -9.71164e-08 -0.000999716)
(7.55389e-10 -8.99885e-08 -0.000999695)
(-4.03257e-08 -7.12919e-08 -0.000999685)
(-1.04732e-07 -3.48297e-08 -0.000999694)
(-2.02683e-07 2.79784e-08 -0.000999732)
(-3.48353e-07 1.29338e-07 -0.000999818)
(-5.61505e-07 2.86753e-07 -0.000999975)
(-8.6932e-07 5.24578e-07 -0.00100024)
(-1.30913e-06 8.76634e-07 -0.00100065)
(-1.93208e-06 1.3897e-06 -0.00100128)
(-2.8081e-06 2.12834e-06 -0.00100222)
(-4.03271e-06 3.18143e-06 -0.0010036)
(-5.73683e-06 4.67155e-06 -0.00100561)
(-8.10093e-06 6.76692e-06 -0.00100835)
(-1.13604e-05 9.68823e-06 -0.00101083)
(-1.58132e-05 1.37702e-05 -0.00101253)
(-2.1599e-05 1.93587e-05 -0.00104369)
(-2.80261e-05 2.5836e-05 -0.00122755)
(-4.54693e-05 3.73814e-05 -0.000356229)
(4.26917e-05 -1.8628e-05 -0.0025655)
(-4.57266e-06 2.09181e-06 -0.00120759)
(-6.63063e-05 2.14555e-05 -0.00296959)
(-2.4879e-05 2.16585e-05 -0.0019246)
(-8.59894e-05 3.08892e-05 -0.00318019)
(-8.59203e-05 -3.33152e-05 -0.00226052)
(-9.13607e-05 -9.1681e-06 -0.00323884)
(-6.52513e-05 5.26794e-05 -0.0019791)
(-3.08243e-05 0.000137236 -0.00329961)
(4.8552e-06 4.01617e-05 -0.00235039)
(-7.16967e-05 -1.17944e-05 -0.00272188)
(-6.30479e-05 -2.78203e-05 -0.00267358)
(-6.21732e-06 -2.62156e-05 -0.00167873)
(3.32222e-06 3.64558e-05 -0.00245417)
(9.80603e-05 -4.7183e-05 -0.00110639)
(7.8429e-05 -5.53094e-05 -0.00107702)
(5.77643e-05 -4.28705e-05 -0.00108114)
(4.39731e-05 -3.21966e-05 -0.00106595)
(3.3668e-05 -2.41883e-05 -0.0010504)
(2.58193e-05 -1.81821e-05 -0.00103847)
(1.98289e-05 -1.36699e-05 -0.00102947)
(1.52525e-05 -1.02803e-05 -0.00102262)
(1.17516e-05 -7.7342e-06 -0.00101739)
(9.06944e-06 -5.8216e-06 -0.00101339)
(7.01126e-06 -4.38497e-06 -0.00101032)
(5.42933e-06 -3.30453e-06 -0.00100797)
(4.2114e-06 -2.49121e-06 -0.00100616)
(3.27208e-06 -1.87949e-06 -0.00100477)
(2.54639e-06 -1.41907e-06 -0.0010037)
(1.98477e-06 -1.07229e-06 -0.00100287)
(1.54942e-06 -8.1093e-07 -0.00100223)
(1.2114e-06 -6.13811e-07 -0.00100174)
(9.48517e-07 -4.65038e-07 -0.00100135)
(7.43753e-07 -3.52665e-07 -0.00100106)
(5.84011e-07 -2.67715e-07 -0.00100083)
(4.59206e-07 -2.0344e-07 -0.00100065)
(3.61561e-07 -1.54764e-07 -0.00100051)
(2.8507e-07 -1.17869e-07 -0.0010004)
(2.25093e-07 -8.98822e-08 -0.00100031)
(1.78034e-07 -6.864e-08 -0.00100025)
(1.41096e-07 -5.25128e-08 -0.00100019)
(1.12117e-07 -4.02714e-08 -0.00100015)
(8.94074e-08 -3.09889e-08 -0.00100012)
(7.16451e-08 -2.39665e-08 -0.00100009)
(5.78023e-08 -1.86777e-08 -0.00100007)
(4.70859e-08 -1.47259e-08 -0.00100006)
(3.8885e-08 -1.1817e-08 -0.00100004)
(3.27328e-08 -9.73343e-09 -0.00100003)
(2.82548e-08 -8.32488e-09 -0.00100002)
(2.50884e-08 -7.45024e-09 -0.00100001)
(2.34374e-08 -6.87365e-09 -0.00100001)
)
;

boundaryField
{
    inlet
    {
        type            calculated;
        value           uniform (2.34374e-08 -6.87365e-09 -0.00100001);
    }
    outlet
    {
        type            calculated;
        value           uniform (1.49901e-09 -1.56377e-09 -0.000999977);
    }
    repeat_boundary
    {
        type            calculated;
        value           nonuniform List<vector> 
180
(
(1.49901e-09 0 -0.000999977)
(3.29271e-09 0 -0.000999977)
(5.28026e-09 0 -0.000999976)
(7.35103e-09 0 -0.000999975)
(9.52773e-09 0 -0.000999973)
(1.18447e-08 0 -0.00099997)
(1.4341e-08 0 -0.000999966)
(1.70592e-08 0 -0.000999961)
(2.004e-08 0 -0.000999955)
(2.3315e-08 0 -0.000999946)
(2.68972e-08 0 -0.000999936)
(3.07711e-08 0 -0.000999924)
(3.48797e-08 0 -0.000999909)
(3.9101e-08 0 -0.000999892)
(4.32161e-08 0 -0.000999872)
(4.68649e-08 0 -0.000999849)
(4.94854e-08 0 -0.000999824)
(5.02328e-08 0 -0.000999798)
(4.78676e-08 0 -0.00099977)
(4.06114e-08 0 -0.000999742)
(2.60644e-08 0 -0.000999716)
(7.55389e-10 0 -0.000999695)
(-4.03257e-08 0 -0.000999685)
(-1.04732e-07 0 -0.000999694)
(-2.02683e-07 0 -0.000999732)
(-3.48353e-07 0 -0.000999818)
(-5.61505e-07 0 -0.000999975)
(-8.6932e-07 0 -0.00100024)
(-1.30913e-06 0 -0.00100065)
(-1.93208e-06 0 -0.00100128)
(-2.8081e-06 0 -0.00100222)
(-4.03271e-06 0 -0.0010036)
(-5.73683e-06 0 -0.00100561)
(-8.10093e-06 0 -0.00100835)
(-1.13604e-05 0 -0.00101083)
(-1.58132e-05 0 -0.00101253)
(-2.1599e-05 0 -0.00104369)
(-2.80261e-05 0 -0.00122755)
(-4.54693e-05 0 -0.000356229)
(4.26917e-05 0 -0.0025655)
(-4.57266e-06 0 -0.00120759)
(-6.63063e-05 0 -0.00296959)
(-2.4879e-05 0 -0.0019246)
(-8.59894e-05 0 -0.00318019)
(-8.59203e-05 0 -0.00226052)
(-9.13607e-05 0 -0.00323884)
(-6.52513e-05 0 -0.0019791)
(-3.08243e-05 0 -0.00329961)
(4.8552e-06 0 -0.00235039)
(-7.16967e-05 0 -0.00272188)
(-6.30479e-05 0 -0.00267358)
(-6.21732e-06 0 -0.00167873)
(3.32222e-06 0 -0.00245417)
(9.80603e-05 0 -0.00110639)
(7.8429e-05 0 -0.00107702)
(5.77643e-05 0 -0.00108114)
(4.39731e-05 0 -0.00106595)
(3.3668e-05 0 -0.0010504)
(2.58193e-05 0 -0.00103847)
(1.98289e-05 0 -0.00102947)
(1.52525e-05 0 -0.00102262)
(1.17516e-05 0 -0.00101739)
(9.06944e-06 0 -0.00101339)
(7.01126e-06 0 -0.00101032)
(5.42933e-06 0 -0.00100797)
(4.2114e-06 0 -0.00100616)
(3.27208e-06 0 -0.00100477)
(2.54639e-06 0 -0.0010037)
(1.98477e-06 0 -0.00100287)
(1.54942e-06 0 -0.00100223)
(1.2114e-06 0 -0.00100174)
(9.48517e-07 0 -0.00100135)
(7.43753e-07 0 -0.00100106)
(5.84011e-07 0 -0.00100083)
(4.59206e-07 0 -0.00100065)
(3.61561e-07 0 -0.00100051)
(2.8507e-07 0 -0.0010004)
(2.25093e-07 0 -0.00100031)
(1.78034e-07 0 -0.00100025)
(1.41096e-07 0 -0.00100019)
(1.12117e-07 0 -0.00100015)
(8.94074e-08 0 -0.00100012)
(7.16451e-08 0 -0.00100009)
(5.78023e-08 0 -0.00100007)
(4.70859e-08 0 -0.00100006)
(3.8885e-08 0 -0.00100004)
(3.27328e-08 0 -0.00100003)
(2.82548e-08 0 -0.00100002)
(2.50884e-08 0 -0.00100001)
(2.34374e-08 0 -0.00100001)
(0 -1.56377e-09 -0.000999977)
(0 -3.55112e-09 -0.000999977)
(0 -5.74514e-09 -0.000999976)
(0 -8.05475e-09 -0.000999975)
(0 -1.05213e-08 -0.000999973)
(0 -1.32016e-08 -0.00099997)
(0 -1.61621e-08 -0.000999966)
(0 -1.94786e-08 -0.000999961)
(0 -2.32347e-08 -0.000999955)
(0 -2.75174e-08 -0.000999946)
(0 -3.24125e-08 -0.000999936)
(0 -3.79974e-08 -0.000999924)
(0 -4.43302e-08 -0.000999909)
(0 -5.14315e-08 -0.000999892)
(0 -5.92576e-08 -0.000999872)
(0 -6.76627e-08 -0.000999849)
(0 -7.63457e-08 -0.000999824)
(0 -8.47739e-08 -0.000999798)
(0 -9.20714e-08 -0.00099977)
(0 -9.68512e-08 -0.000999742)
(0 -9.71164e-08 -0.000999716)
(0 -8.99885e-08 -0.000999695)
(0 -7.12919e-08 -0.000999685)
(0 -3.48297e-08 -0.000999694)
(0 2.79784e-08 -0.000999732)
(0 1.29338e-07 -0.000999818)
(0 2.86753e-07 -0.000999975)
(0 5.24578e-07 -0.00100024)
(0 8.76634e-07 -0.00100065)
(0 1.3897e-06 -0.00100128)
(0 2.12834e-06 -0.00100222)
(0 3.18143e-06 -0.0010036)
(0 4.67155e-06 -0.00100561)
(0 6.76692e-06 -0.00100835)
(0 9.68823e-06 -0.00101083)
(0 1.37702e-05 -0.00101253)
(0 1.93587e-05 -0.00104369)
(0 2.5836e-05 -0.00122755)
(0 3.73814e-05 -0.000356229)
(0 -1.8628e-05 -0.0025655)
(0 2.09181e-06 -0.00120759)
(0 2.14555e-05 -0.00296959)
(0 2.16585e-05 -0.0019246)
(0 3.08892e-05 -0.00318019)
(0 -3.33152e-05 -0.00226052)
(0 -9.1681e-06 -0.00323884)
(0 5.26794e-05 -0.0019791)
(0 0.000137236 -0.00329961)
(0 4.01617e-05 -0.00235039)
(0 -1.17944e-05 -0.00272188)
(0 -2.78203e-05 -0.00267358)
(0 -2.62156e-05 -0.00167873)
(0 3.64558e-05 -0.00245417)
(0 -4.7183e-05 -0.00110639)
(0 -5.53094e-05 -0.00107702)
(0 -4.28705e-05 -0.00108114)
(0 -3.21966e-05 -0.00106595)
(0 -2.41883e-05 -0.0010504)
(0 -1.81821e-05 -0.00103847)
(0 -1.36699e-05 -0.00102947)
(0 -1.02803e-05 -0.00102262)
(0 -7.7342e-06 -0.00101739)
(0 -5.8216e-06 -0.00101339)
(0 -4.38497e-06 -0.00101032)
(0 -3.30453e-06 -0.00100797)
(0 -2.49121e-06 -0.00100616)
(0 -1.87949e-06 -0.00100477)
(0 -1.41907e-06 -0.0010037)
(0 -1.07229e-06 -0.00100287)
(0 -8.1093e-07 -0.00100223)
(0 -6.13811e-07 -0.00100174)
(0 -4.65038e-07 -0.00100135)
(0 -3.52665e-07 -0.00100106)
(0 -2.67715e-07 -0.00100083)
(0 -2.0344e-07 -0.00100065)
(0 -1.54764e-07 -0.00100051)
(0 -1.17869e-07 -0.0010004)
(0 -8.98822e-08 -0.00100031)
(0 -6.864e-08 -0.00100025)
(0 -5.25128e-08 -0.00100019)
(0 -4.02714e-08 -0.00100015)
(0 -3.09889e-08 -0.00100012)
(0 -2.39665e-08 -0.00100009)
(0 -1.86777e-08 -0.00100007)
(0 -1.47259e-08 -0.00100006)
(0 -1.1817e-08 -0.00100004)
(0 -9.73343e-09 -0.00100003)
(0 -8.32488e-09 -0.00100002)
(0 -7.45024e-09 -0.00100001)
(0 -6.87365e-09 -0.00100001)
)
;
    }
    procBoundary1to0
    {
        type            processor;
        value           nonuniform List<vector> 
90
(
(1.49902e-09 -1.47111e-09 -0.000999997)
(3.29273e-09 -3.29565e-09 -0.000999997)
(5.28028e-09 -5.48444e-09 -0.000999996)
(7.35114e-09 -8.05693e-09 -0.000999996)
(9.52799e-09 -1.11723e-08 -0.000999995)
(1.18446e-08 -1.50198e-08 -0.000999994)
(1.43408e-08 -1.98239e-08 -0.000999993)
(1.70592e-08 -2.5861e-08 -0.00099999)
(2.004e-08 -3.34592e-08 -0.000999986)
(2.33151e-08 -4.3036e-08 -0.000999981)
(2.68973e-08 -5.5118e-08 -0.000999974)
(3.07712e-08 -7.03753e-08 -0.000999965)
(3.48798e-08 -8.96657e-08 -0.000999952)
(3.91013e-08 -1.14092e-07 -0.000999935)
(4.32166e-08 -1.45079e-07 -0.000999912)
(4.68655e-08 -1.84469e-07 -0.000999882)
(4.94865e-08 -2.34649e-07 -0.000999843)
(5.02346e-08 -2.9871e-07 -0.000999791)
(4.78706e-08 -3.80662e-07 -0.000999724)
(4.06167e-08 -4.8569e-07 -0.000999635)
(2.60738e-08 -6.20465e-07 -0.000999518)
(7.72409e-10 -7.93728e-07 -0.000999364)
(-4.02945e-08 -1.01695e-06 -0.000999157)
(-1.04675e-07 -1.30537e-06 -0.00099888)
(-2.02577e-07 -1.67885e-06 -0.00099851)
(-3.48158e-07 -2.16336e-06 -0.000998017)
(-5.61147e-07 -2.79299e-06 -0.000997357)
(-8.68658e-07 -3.61252e-06 -0.000996478)
(-1.3079e-06 -4.68087e-06 -0.000995304)
(-1.9298e-06 -6.07564e-06 -0.000993737)
(-2.80387e-06 -7.89912e-06 -0.000991647)
(-4.02484e-06 -1.02863e-05 -0.00098886)
(-5.7226e-06 -1.34172e-05 -0.000985157)
(-8.08323e-06 -1.75468e-05 -0.000980137)
(-1.1448e-05 -2.31655e-05 -0.000972202)
(-1.55005e-05 -2.96554e-05 -0.000963018)
(-2.13921e-05 -3.87894e-05 -0.000973413)
(-2.79205e-05 -4.82403e-05 -0.00105638)
(-4.65995e-05 -7.16604e-05 -0.000430737)
(4.41651e-05 5.48783e-05 -0.00194758)
(-7.47312e-06 -8.37732e-06 -0.00168669)
(-3.86056e-05 -6.33449e-05 -0.00155134)
(-3.08706e-05 -5.2079e-05 -0.00239652)
(-6.88275e-05 -5.10995e-05 -0.00215961)
(-9.11358e-05 -6.59383e-05 -0.00241806)
(-5.75677e-05 -1.95339e-05 -0.00182825)
(-7.04507e-05 4.22861e-05 -0.00258628)
(-2.77304e-05 7.87576e-05 -0.00176654)
(7.75931e-06 0.000101748 -0.00232098)
(-6.09467e-05 -2.55778e-06 -0.002316)
(-4.41405e-05 -4.20911e-06 -0.00160945)
(-2.02795e-05 4.7686e-05 -0.00165513)
(2.91559e-05 2.25263e-05 -0.00181753)
(3.97918e-05 3.14129e-06 -0.000992878)
(7.27466e-05 3.53409e-05 -0.00087977)
(5.79027e-05 3.09471e-05 -0.000918009)
(4.42023e-05 2.2863e-05 -0.000944365)
(3.3803e-05 1.66722e-05 -0.000958454)
(2.58962e-05 1.21437e-05 -0.000968437)
(1.98728e-05 8.83313e-06 -0.00097604)
(1.52776e-05 6.41486e-06 -0.000981803)
(1.1766e-05 4.65096e-06 -0.000986158)
(9.07773e-06 3.36649e-06 -0.000989451)
(7.01606e-06 2.43287e-06 -0.000991945)
(5.43212e-06 1.75427e-06 -0.000993837)
(4.21303e-06 1.26128e-06 -0.000995274)
(3.27303e-06 9.04382e-07 -0.000996368)
(2.54694e-06 6.46352e-07 -0.000997203)
(1.9851e-06 4.60088e-07 -0.000997841)
(1.54962e-06 3.25908e-07 -0.000998331)
(1.21151e-06 2.29486e-07 -0.000998707)
(9.48586e-07 1.604e-07 -0.000998996)
(7.43795e-07 1.11069e-07 -0.000999219)
(5.84036e-07 7.59843e-08 -0.000999392)
(4.59221e-07 5.11496e-08 -0.000999526)
(3.6157e-07 3.36718e-08 -0.000999629)
(2.85076e-07 2.14637e-08 -0.00099971)
(2.25096e-07 1.30256e-08 -0.000999773)
(1.78036e-07 7.28099e-09 -0.000999822)
(1.41097e-07 3.4359e-09 -0.000999861)
(1.12118e-07 9.46113e-10 -0.000999891)
(8.94079e-08 -6.01917e-10 -0.000999915)
(7.16455e-08 -1.51743e-09 -0.000999934)
(5.78026e-08 -2.02694e-09 -0.000999949)
(4.70858e-08 -2.28725e-09 -0.00099996)
(3.8885e-08 -2.40771e-09 -0.00099997)
(3.27328e-08 -2.46619e-09 -0.000999978)
(2.82542e-08 -2.52687e-09 -0.000999984)
(2.5089e-08 -2.62944e-09 -0.00099999)
(2.34375e-08 -2.52563e-09 -0.000999995)
)
;
    }
    procBoundary1to3
    {
        type            processor;
        value           nonuniform List<vector> 
90
(
(1.40636e-09 -1.56378e-09 -0.000999998)
(3.03724e-09 -3.55113e-09 -0.000999999)
(5.01951e-09 -5.74514e-09 -0.000999999)
(7.35298e-09 -8.05475e-09 -0.000999999)
(1.01781e-08 -1.05213e-08 -0.000999999)
(1.36629e-08 -1.32016e-08 -0.000999998)
(1.80036e-08 -1.61622e-08 -0.000999998)
(2.34416e-08 -1.94787e-08 -0.000999997)
(3.02645e-08 -2.32347e-08 -0.000999995)
(3.88337e-08 -2.75174e-08 -0.000999993)
(4.96027e-08 -3.24126e-08 -0.000999989)
(6.31491e-08 -3.79975e-08 -0.000999984)
(8.02151e-08 -4.43304e-08 -0.000999977)
(1.01762e-07 -5.14318e-08 -0.000999967)
(1.29038e-07 -5.9258e-08 -0.000999954)
(1.63671e-07 -6.76633e-08 -0.000999936)
(2.07788e-07 -7.63467e-08 -0.000999912)
(2.64169e-07 -8.47756e-08 -0.000999878)
(3.36459e-07 -9.20742e-08 -0.000999832)
(4.2945e-07 -9.68561e-08 -0.000999769)
(5.49413e-07 -9.71251e-08 -0.000999683)
(7.04496e-07 -9.00042e-08 -0.000999566)
(9.05329e-07 -7.13206e-08 -0.000999409)
(1.16581e-06 -3.48823e-08 -0.000999196)
(1.50415e-06 2.78814e-08 -0.000998907)
(1.94436e-06 1.29159e-07 -0.000998517)
(2.51826e-06 2.86421e-07 -0.000997986)
(3.26782e-06 5.2396e-07 -0.000997266)
(4.24845e-06 8.75482e-07 -0.000996292)
(5.5334e-06 1.38756e-06 -0.000994974)
(7.2196e-06 2.12434e-06 -0.000993191)
(9.43552e-06 3.17401e-06 -0.000990787)
(1.23535e-05 4.65848e-06 -0.00098757)
(1.6222e-05 6.75449e-06 -0.000983164)
(2.15291e-05 9.7909e-06 -0.000975688)
(2.75819e-05 1.34471e-05 -0.00096597)
(3.6581e-05 1.91729e-05 -0.000976099)
(4.60341e-05 2.57186e-05 -0.001099)
(6.31552e-05 3.81044e-05 -0.00035737)
(-2.86503e-05 -1.83021e-05 -0.00210665)
(4.35317e-06 3.23689e-06 -0.0015729)
(3.82284e-05 1.19016e-05 -0.00165349)
(5.91563e-05 3.43252e-05 -0.00283527)
(-3.76008e-06 1.15983e-05 -0.00162649)
(-6.58313e-05 -3.72358e-05 -0.00268937)
(-6.02479e-05 -8.94769e-06 -0.00205776)
(-5.93261e-05 8.58126e-05 -0.00250454)
(-5.30808e-05 7.37121e-05 -0.0020231)
(-4.83462e-05 3.57598e-05 -0.00265017)
(-6.01387e-05 -1.78081e-05 -0.00167686)
(-8.7137e-05 -4.01832e-05 -0.00269127)
(-2.85276e-05 -2.6155e-05 -0.00118367)
(-9.07898e-06 9.41321e-05 -0.00197832)
(3.97371e-06 -7.37374e-06 -0.0010555)
(-2.54943e-05 -5.11896e-05 -0.00093732)
(-1.69725e-05 -4.30018e-05 -0.000950902)
(-1.10949e-05 -3.23803e-05 -0.00097051)
(-7.1683e-06 -2.42899e-05 -0.000979431)
(-4.49075e-06 -1.8238e-05 -0.0009853)
(-2.66464e-06 -1.37009e-05 -0.000989571)
(-1.43704e-06 -1.02976e-05 -0.000992674)
(-6.30161e-07 -7.74376e-06 -0.00099491)
(-1.1657e-07 -5.82686e-06 -0.000996511)
(1.94569e-07 -4.38803e-06 -0.000997644)
(3.71252e-07 -3.30619e-06 -0.000998435)
(4.59347e-07 -2.49213e-06 -0.000998989)
(4.88473e-07 -1.87999e-06 -0.000999376)
(4.81117e-07 -1.41935e-06 -0.000999639)
(4.52489e-07 -1.07244e-06 -0.000999814)
(4.12642e-07 -8.11015e-07 -0.000999928)
(3.68134e-07 -6.13859e-07 -0.001)
(3.231e-07 -4.65064e-07 -0.00100004)
(2.80031e-07 -3.5268e-07 -0.00100007)
(2.40319e-07 -2.67723e-07 -0.00100008)
(2.04621e-07 -2.03445e-07 -0.00100008)
(1.73127e-07 -1.54767e-07 -0.00100008)
(1.45739e-07 -1.17871e-07 -0.00100007)
(1.22186e-07 -8.9883e-08 -0.00100007)
(1.02114e-07 -6.86405e-08 -0.00100006)
(8.51474e-08 -5.25131e-08 -0.00100005)
(7.09e-08 -4.02716e-08 -0.00100004)
(5.90206e-08 -3.0989e-08 -0.00100004)
(4.91963e-08 -2.39665e-08 -0.00100003)
(4.11519e-08 -1.86775e-08 -0.00100003)
(3.46467e-08 -1.47262e-08 -0.00100002)
(2.94756e-08 -1.18171e-08 -0.00100002)
(2.54656e-08 -9.7331e-09 -0.00100001)
(2.24537e-08 -8.32367e-09 -0.00100001)
(2.02707e-08 -7.45156e-09 -0.00100001)
(1.90894e-08 -6.87386e-09 -0.001)
)
;
    }
}


// ************************************************************************* //
