/*--------------------------------*- C++ -*----------------------------------*\
  =========                 |
  \\      /  F ield         | OpenFOAM: The Open Source CFD Toolbox
   \\    /   O peration     | Website:  https://openfoam.org
    \\  /    A nd           | Version:  9
     \\/     M anipulation  |
\*---------------------------------------------------------------------------*/
FoamFile
{
    format      ascii;
    class       volScalarField;
    location    "700";
    object      p;
}
// * * * * * * * * * * * * * * * * * * * * * * * * * * * * * * * * * * * * * //

dimensions      [0 2 -2 0 0 0 0];

internalField   nonuniform List<scalar> 
360
(
-0.0084574
0.0199522
-0.0583554
0.0181853
0.00240544
0.0232328
-0.0703043
0.0311347
0.035766
0.0256182
-0.0478595
0.0392645
0.0206871
0.0216945
-0.0301598
0.0443521
-0.0247475
0.016241
-0.0178821
0.0482384
-0.071375
0.00863909
-0.0130049
0.0501849
-0.108851
0.00092469
-0.0117515
0.0506901
-0.127776
-0.00590157
-0.0130376
0.0496043
-0.146063
-0.0129835
-0.0156483
0.047155
-0.147934
-0.0187156
-0.0185255
0.0433382
-0.123689
-0.0240389
-0.0204443
0.0382166
-0.107445
-0.0295737
-0.0224289
0.0316909
-0.0944962
-0.0357066
-0.0248339
0.0236583
-0.0861924
-0.0428123
-0.0281926
0.0139588
-0.0816677
-0.0511504
-0.0327969
0.0024426
-0.0806124
-0.0609286
-0.0389415
-0.0110381
-0.0826121
-0.0722857
-0.0467953
-0.0266121
-0.0874343
-0.085324
-0.0564926
-0.044402
-0.0948834
-0.100087
-0.0681144
-0.0645295
-0.104819
-0.11656
-0.0817199
-0.087127
-0.117145
-0.134787
-0.0973378
-0.11224
-0.131802
-0.155055
-0.114975
-0.139628
-0.148754
-0.17767
-0.134624
-0.16899
-0.167966
-0.202657
-0.156283
-0.200281
-0.189406
-0.229944
-0.179945
-0.233534
-0.213043
-0.259469
-0.205601
-0.268745
-0.238848
-0.291169
-0.233237
-0.305885
-0.266786
-0.324976
-0.262835
-0.344912
-0.296822
-0.360822
-0.294372
-0.385768
-0.328915
-0.398636
-0.32782
-0.42839
-0.363019
-0.438345
-0.363147
-0.472707
-0.399085
-0.479873
-0.400318
-0.518646
-0.437056
-0.523144
-0.439293
-0.566131
-0.476874
-0.568086
-0.480032
-0.615087
-0.518476
-0.614624
-0.522489
-0.665443
-0.561797
-0.662688
-0.56662
-0.717126
-0.606772
-0.712212
-0.612386
-0.770059
-0.653336
-0.763133
-0.659752
-0.82417
-0.701424
-0.815394
-0.708676
-0.879398
-0.750974
-0.868945
-0.759108
-0.935697
-0.801928
-0.923742
-0.811006
-0.993025
-0.854235
-0.979747
-0.864327
-1.05135
-0.907847
-1.03693
-0.919031
-1.11065
-0.962723
-1.09527
-0.975081
-1.17092
-1.01883
-1.15475
-1.03244
-1.23214
-1.07614
-1.21535
-1.09109
-1.29432
-1.13463
-1.27708
-1.15099
-1.35746
-1.1943
-1.33992
-1.21212
-1.4216
-1.25512
-1.40389
-1.27446
-1.48674
-1.31709
-1.46899
-1.338
-1.5529
-1.38022
-1.53523
-1.40273
-1.62013
-1.44451
-1.60262
-1.46863
-1.68843
-1.50996
-1.67117
-1.53569
-1.75784
-1.57659
-1.7409
-1.60392
-1.82838
-1.64441
-1.81183
-1.67332
-1.90007
-1.71343
-1.88396
-1.74388
-1.97293
-1.78366
-1.95731
-1.81561
-2.04698
-1.85511
-2.0319
-1.88853
-2.12222
-1.92781
-2.10775
-1.96263
-2.19867
-2.00176
-2.18486
-2.03794
-2.27633
-2.07699
-2.26325
-2.11447
-2.35519
-2.15351
-2.34295
-2.19223
-2.43524
-2.23133
-2.42396
-2.27124
-2.51649
-2.31049
-2.5063
-2.35153
-2.59891
-2.39099
-2.58999
-2.43313
-2.68248
-2.47286
-2.67505
-2.51606
-2.76719
-2.55613
-2.76151
-2.60032
-2.85299
-2.64082
-2.84938
-2.68599
-2.93983
-2.72697
-2.9387
-2.77326
-3.02756
-2.81459
-3.02949
-2.86225
-3.1161
-2.90374
-3.12182
-2.9526
-3.20578
-2.99443
-3.21575
-3.04375
-3.29734
-3.08671
-3.31135
-3.13559
-3.39105
-3.18062
-3.40865
-3.22834
-3.48678
-3.27622
-3.50769
-3.32211
-3.58444
-3.37356
-3.60851
-3.41695
-3.68396
-3.47269
-3.71113
-3.51284
-3.78528
-3.57369
-3.81557
-3.6097
-3.88837
-3.6766
-3.92183
-3.70743
-3.9932
-3.78149
-4.02995
-3.80585
-4.09974
-3.88847
-4.13996
-3.90464
-4.208
-3.99768
-4.25191
-4.00326
-4.31803
-4.10913
-4.36565
-4.10143
-4.42984
-4.22245
-4.48081
-4.19965
-4.54324
-4.33732
-4.59746
-4.29775
-4.65788
-4.45601
-4.7178
-4.38828
-4.77467
-4.58379
-4.84536
-4.45854
-4.89703
-4.71785
-4.97618
-4.52847
-5.02725
-4.82592
-5.08374
-4.68766
-5.15088
-4.84642
-5.11211
-4.95857
-5.21186
)
;

boundaryField
{
    inlet
    {
        type            zeroGradient;
    }
    outlet
    {
        type            fixedValue;
        value           uniform 0;
    }
    repeat_boundary
    {
        type            zeroGradient;
    }
}


// ************************************************************************* //
