/*--------------------------------*- C++ -*----------------------------------*\
  =========                 |
  \\      /  F ield         | OpenFOAM: The Open Source CFD Toolbox
   \\    /   O peration     | Website:  https://openfoam.org
    \\  /    A nd           | Version:  9
     \\/     M anipulation  |
\*---------------------------------------------------------------------------*/
FoamFile
{
    format      ascii;
    class       surfaceScalarField;
    location    "700";
    object      phi;
}
// * * * * * * * * * * * * * * * * * * * * * * * * * * * * * * * * * * * * * //

dimensions      [0 3 -1 0 0 0 0];

internalField   nonuniform List<scalar> 
716
(
0.325068
-0.312472
-128.84
-0.284654
-109.123
0.56154
-161.288
-133.558
0.337898
-0.326175
-128.852
-0.293325
-108.492
0.588778
-162.203
-133.262
0.355241
-0.334521
-128.873
-0.282946
-107.854
0.611339
-163.149
-132.934
0.363629
-0.343168
-128.893
-0.278248
-107.212
0.634767
-164.127
-132.577
0.369418
-0.358934
-128.904
-0.269146
-106.573
0.655477
-165.142
-132.191
0.377213
-0.372243
-128.909
-0.259475
-105.937
0.674909
-166.189
-131.775
0.386202
-0.384348
-128.91
-0.247568
-105.303
0.692938
-167.266
-131.33
0.409447
-0.388231
-128.932
-0.233986
-104.659
0.709944
-168.364
-130.854
0.421626
-0.390575
-128.963
-0.218778
-104.019
0.725892
-169.481
-130.347
0.447867
-0.389607
-129.021
-0.202124
-103.369
0.740704
-170.611
-129.808
0.467556
-0.38479
-129.104
-0.184362
-102.717
0.754269
-171.75
-129.239
0.485962
-0.382654
-129.207
-0.165744
-102.065
0.766299
-172.899
-128.638
0.501894
-0.381703
-129.327
-0.146462
-101.417
0.776588
-174.057
-128.008
0.515844
-0.382135
-129.461
-0.126709
-100.774
0.78494
-175.224
-127.35
0.528088
-0.383594
-129.605
-0.106647
-100.14
0.791239
-176.399
-126.665
0.538813
-0.385967
-129.758
-0.0864426
-99.5144
0.795368
-177.581
-125.956
0.54821
-0.389123
-129.917
-0.0662571
-98.9
0.797262
-178.767
-125.225
0.556415
-0.392972
-130.081
-0.0462521
-98.2973
0.796876
-179.957
-124.475
0.563545
-0.397444
-130.247
-0.0265875
-97.7072
0.794198
-181.148
-123.707
0.569704
-0.402477
-130.414
-0.00742692
-97.13
0.789235
-182.34
-122.925
0.575007
-0.408016
-130.581
0.0110478
-96.5661
0.782001
-183.53
-122.132
0.579597
-0.414003
-130.747
0.0284772
-96.0149
0.772504
-184.717
-121.331
0.583562
-0.420373
-130.91
0.0447364
-95.4761
0.760812
-185.898
-120.526
0.586904
-0.427048
-131.07
0.0598089
-94.949
0.747081
-187.072
-119.719
0.5896
-0.43394
-131.225
0.0737782
-94.4332
0.731508
-188.237
-118.913
0.591644
-0.440961
-131.376
0.0867254
-93.9283
0.714293
-189.393
-118.112
0.593042
-0.44802
-131.521
0.0987182
-93.434
0.695634
-190.536
-117.318
0.593818
-0.455034
-131.66
0.109811
-92.95
0.675726
-191.667
-116.532
0.594005
-0.461925
-131.792
0.120048
-92.476
0.654753
-192.784
-115.758
0.593651
-0.468627
-131.917
0.129461
-92.0118
0.632896
-193.885
-114.995
0.592809
-0.475088
-132.035
0.138078
-91.5571
0.610324
-194.971
-114.247
0.591544
-0.481266
-132.145
0.145921
-91.1115
0.5872
-196.039
-113.514
0.589922
-0.487141
-132.248
0.153009
-90.6745
0.563677
-197.09
-112.797
0.588012
-0.492702
-132.343
0.159363
-90.2459
0.539901
-198.123
-112.098
0.585885
-0.497958
-132.431
0.165002
-89.825
0.516012
-199.137
-111.417
0.583609
-0.502931
-132.512
0.169949
-89.4113
0.49214
-200.132
-110.755
0.581249
-0.507653
-132.585
0.174227
-89.0043
0.468408
-201.108
-110.112
0.578867
-0.512169
-132.652
0.177863
-88.6033
0.44493
-202.065
-109.489
0.576518
-0.516533
-132.712
0.180894
-88.2077
0.42182
-203.003
-108.887
0.57425
-0.520807
-132.765
0.183361
-87.8168
0.399185
-203.923
-108.304
0.572105
-0.525053
-132.812
0.18531
-87.43
0.377119
-204.825
-107.742
0.570118
-0.529335
-132.853
0.18679
-87.0467
0.355707
-205.71
-107.199
0.568315
-0.533712
-132.888
0.187854
-86.6662
0.335019
-206.579
-106.676
0.566716
-0.538238
-132.916
0.188556
-86.2881
0.315108
-207.432
-106.173
0.565333
-0.54296
-132.939
0.188951
-85.9117
0.296016
-208.271
-105.688
0.564174
-0.547919
-132.955
0.189094
-85.5366
0.277767
-209.097
-105.221
0.563242
-0.553142
-132.965
0.189039
-85.1624
0.26037
-209.911
-104.771
0.562535
-0.558653
-132.969
0.188835
-84.7887
0.243819
-210.713
-104.339
0.562048
-0.564461
-132.967
0.188529
-84.4152
0.228095
-211.506
-103.922
0.561774
-0.570571
-132.958
0.188162
-84.0416
0.213167
-212.289
-103.521
0.561706
-0.576978
-132.942
0.187772
-83.6676
0.198996
-213.065
-103.134
0.561833
-0.583671
-132.921
0.187389
-83.2932
0.185534
-213.835
-102.761
0.562146
-0.590636
-132.892
0.187038
-82.9181
0.172728
-214.598
-102.401
0.562635
-0.597854
-132.857
0.186738
-82.5422
0.160522
-215.356
-102.054
0.563291
-0.605302
-132.815
0.186504
-82.1654
0.14886
-216.11
-101.719
0.564105
-0.61296
-132.766
0.186345
-81.7876
0.137686
-216.861
-101.395
0.565067
-0.620807
-132.71
0.186267
-81.4088
0.126946
-217.609
-101.081
0.566169
-0.62882
-132.648
0.186273
-81.0289
0.116588
-218.354
-100.779
0.567404
-0.636982
-132.578
0.186364
-80.6479
0.106566
-219.098
-100.486
0.568762
-0.645277
-132.502
0.186537
-80.2657
0.0968366
-219.84
-100.202
0.570236
-0.653688
-132.418
0.186792
-79.8822
0.0873593
-220.581
-99.9281
0.571818
-0.662205
-132.328
0.187128
-79.4975
0.0780995
-221.321
-99.6628
0.5735
-0.670817
-132.23
0.187543
-79.1116
0.0690262
-222.061
-99.4063
0.575277
-0.679515
-132.126
0.188039
-78.7243
0.0601128
-222.801
-99.1581
0.57714
-0.688293
-132.015
0.188622
-78.3358
0.0513381
-223.54
-98.9181
0.579083
-0.697148
-131.897
0.189301
-77.946
0.042685
-224.28
-98.6862
0.5811
-0.706077
-131.772
0.190089
-77.555
0.034137
-225.02
-98.4619
0.583186
-0.715074
-131.64
0.190999
-77.1629
0.0256627
-225.761
-98.2453
0.585334
-0.724128
-131.501
0.192049
-76.7696
0.0174057
-226.503
-98.0358
0.587543
-0.733251
-131.356
0.193288
-76.3753
0.00929185
-227.245
-97.8332
0.589811
-0.742485
-131.203
0.194842
-75.9803
0.00144353
-227.989
-97.6369
0.592136
-0.751866
-131.043
0.196852
-75.5851
-0.00602831
-228.735
-97.4461
0.59451
-0.761362
-130.876
0.199333
-75.1899
-0.0131464
-229.483
-97.2599
0.596922
-0.770913
-130.702
0.20219
-74.7951
-0.0200518
-230.234
-97.0778
0.599359
-0.780472
-130.521
0.205367
-74.4012
-0.0267531
-230.988
-96.8992
0.601808
-0.790003
-130.333
0.208824
-74.0082
-0.0334371
-231.744
-96.7238
0.60426
-0.799468
-130.138
0.212535
-73.6164
-0.0401552
-232.504
-96.5514
0.606709
-0.808826
-129.936
0.216484
-73.2262
-0.0469601
-233.266
-96.3819
0.609154
-0.818024
-129.727
0.220663
-72.8377
-0.0539096
-234.03
-96.2151
0.611602
-0.827002
-129.511
0.225067
-72.4512
-0.0610685
-234.796
-96.0511
0.614061
-0.835692
-129.29
0.229696
-72.0668
-0.0685057
-235.563
-95.89
0.61654
-0.844001
-129.062
0.234567
-71.6849
-0.0763096
-236.33
-95.7317
0.619062
-0.85175
-128.83
0.239703
-71.3055
-0.08466
-237.098
-95.5767
0.621683
-0.858675
-128.593
0.245098
-70.9289
-0.0938499
-237.862
-95.4254
0.624542
-0.864616
-128.353
0.250642
-70.555
-0.104077
-238.623
-95.2788
0.627901
-0.870244
-128.11
0.255947
-70.1831
-0.114553
-239.379
-95.1374
0.63101
-0.875799
-127.865
0.261584
-69.8136
-0.125282
-240.129
-95.0011
0.634172
-0.876307
-127.623
0.268889
-69.4484
-0.140964
-240.864
-94.8732
0.627018
-0.860282
-127.39
0.275164
-69.0965
-0.184511
-241.54
-94.7826
0.621703
-0.849117
0.276786
-0.213454
)
;

boundaryField
{
    inlet
    {
        type            calculated;
        value           nonuniform List<scalar> 4(-127.163 -242.176 -68.7516 -94.7192);
    }
    outlet
    {
        type            calculated;
        value           nonuniform List<scalar> 4(128.828 160.414 109.733 133.835);
    }
    repeat_boundary
    {
        type            calculated;
        value           uniform 0;
    }
}


// ************************************************************************* //
