/*--------------------------------*- C++ -*----------------------------------*\
| =========                 |                                                 |
| \\      /  F ield         | OpenFOAM: The Open Source CFD Toolbox           |
|  \\    /   O peration     | Version:  5.x                                   |
|   \\  /    A nd           | Web:      www.OpenFOAM.org                      |
|    \\/     M anipulation  |                                                 |
\*---------------------------------------------------------------------------*/
FoamFile
{
    version     2.0;
    format      ascii;
    class       volVectorField;
    location    "700";
    object      U;
}
// * * * * * * * * * * * * * * * * * * * * * * * * * * * * * * * * * * * * * //

dimensions      [0 1 -1 0 0 0 0];

internalField   nonuniform List<vector> 
90
(
(1.70007e-09 -4.30699e-09 -0.000999987)
(2.51052e-09 -8.1166e-09 -0.000999986)
(3.60089e-09 -1.27579e-08 -0.000999985)
(4.8061e-09 -1.80277e-08 -0.000999983)
(6.11044e-09 -2.41352e-08 -0.00099998)
(7.51073e-09 -3.13812e-08 -0.000999976)
(8.98921e-09 -4.01389e-08 -0.00099997)
(1.05035e-08 -5.08721e-08 -0.000999963)
(1.1977e-08 -6.41573e-08 -0.000999953)
(1.32892e-08 -8.07197e-08 -0.000999941)
(1.42587e-08 -1.01473e-07 -0.000999924)
(1.46201e-08 -1.27575e-07 -0.000999902)
(1.39897e-08 -1.60497e-07 -0.000999874)
(1.1821e-08 -2.02115e-07 -0.000999837)
(7.34614e-09 -2.54824e-07 -0.00099979)
(-4.99606e-10 -3.21689e-07 -0.000999728)
(-1.31953e-08 -4.06641e-07 -0.000999648)
(-3.29194e-08 -5.14797e-07 -0.000999543)
(-6.26577e-08 -6.52746e-07 -0.000999406)
(-1.06511e-07 -8.28995e-07 -0.000999227)
(-1.70098e-07 -1.05455e-06 -0.000998993)
(-2.61113e-07 -1.34365e-06 -0.000998687)
(-3.89998e-07 -1.7148e-06 -0.000998286)
(-5.70754e-07 -2.19203e-06 -0.000997761)
(-8.22632e-07 -2.80657e-06 -0.000997073)
(-1.1716e-06 -3.59911e-06 -0.00099617)
(-1.65275e-06 -4.62266e-06 -0.000994983)
(-2.31332e-06 -5.9464e-06 -0.000993423)
(-3.21686e-06 -7.66064e-06 -0.00099137)
(-4.44871e-06 -9.88342e-06 -0.000988662)
(-6.12353e-06 -1.27695e-05 -0.000985091)
(-8.39673e-06 -1.65249e-05 -0.000980443)
(-1.14884e-05 -2.14405e-05 -0.000974527)
(-1.57376e-05 -2.79568e-05 -0.000966372)
(-2.1584e-05 -3.6569e-05 -0.000951655)
(-2.7973e-05 -4.5572e-05 -0.000930813)
(-3.39401e-05 -5.37268e-05 -0.000928649)
(-3.48708e-05 -5.39077e-05 -0.0010548)
(-3.51336e-05 -4.96393e-05 -0.000368535)
(8.9443e-05 0.000118064 -0.00194222)
(-4.74904e-06 -6.43666e-06 -0.00167621)
(-3.13071e-05 -5.79719e-05 -0.00153917)
(-2.18168e-05 -4.537e-05 -0.00238344)
(-5.68387e-05 -4.18919e-05 -0.00214434)
(-7.54404e-05 -5.47855e-05 -0.00240977)
(-2.90254e-05 -1.7379e-06 -0.00181376)
(-4.48788e-05 5.8445e-05 -0.00259265)
(1.02187e-05 9.91053e-05 -0.00174758)
(3.71567e-05 0.000121907 -0.00234965)
(-2.42954e-05 2.12259e-05 -0.00229672)
(9.97468e-06 2.74525e-05 -0.00167783)
(2.0885e-05 4.49377e-05 -0.00165093)
(-1.27134e-05 5.77579e-05 -0.00183159)
(1.22498e-05 1.97384e-05 -0.00101473)
(5.88564e-05 3.12675e-05 -0.000887536)
(6.06104e-05 2.80439e-05 -0.000920919)
(4.87541e-05 2.12887e-05 -0.000946771)
(3.81635e-05 1.56836e-05 -0.000959494)
(2.98479e-05 1.15088e-05 -0.000968413)
(2.33787e-05 8.41222e-06 -0.000975427)
(1.83438e-05 6.12625e-06 -0.000980911)
(1.44183e-05 4.44435e-06 -0.000985157)
(1.1352e-05 3.20669e-06 -0.000988443)
(8.95253e-06 2.29817e-06 -0.000990989)
(7.07152e-06 1.63384e-06 -0.000992964)
(5.59442e-06 1.15037e-06 -0.000994498)
(4.43254e-06 8.00453e-07 -0.000995691)
(3.51708e-06 5.48804e-07 -0.00099662)
(2.79464e-06 3.6912e-07 -0.000997345)
(2.22363e-06 2.41901e-07 -0.000997911)
(1.77167e-06 1.52745e-07 -0.000998354)
(1.41344e-06 9.1063e-08 -0.000998702)
(1.12916e-06 4.91003e-08 -0.000998975)
(9.03282e-07 2.12099e-08 -0.00099919)
(7.23645e-07 3.3177e-09 -0.00099936)
(5.80617e-07 -7.61104e-09 -0.000999493)
(4.66554e-07 -1.38805e-08 -0.000999597)
(3.7547e-07 -1.70622e-08 -0.000999679)
(3.02652e-07 -1.82426e-08 -0.000999743)
(2.44372e-07 -1.81965e-08 -0.000999794)
(1.97685e-07 -1.74622e-08 -0.000999834)
(1.60271e-07 -1.64003e-08 -0.000999866)
(1.30304e-07 -1.52431e-08 -0.000999891)
(1.06352e-07 -1.41316e-08 -0.000999912)
(8.72975e-08 -1.3143e-08 -0.000999929)
(7.22638e-08 -1.23115e-08 -0.000999943)
(6.05425e-08 -1.16454e-08 -0.000999955)
(5.15146e-08 -1.1122e-08 -0.000999966)
(4.47742e-08 -1.06659e-08 -0.000999978)
(4.18249e-08 -1.03764e-08 -0.000999986)
)
;

boundaryField
{
    inlet
    {
        type            zeroGradient;
    }
    outlet
    {
        type            zeroGradient;
    }
    repeat_boundary
    {
        type            slip;
    }
    procBoundary0to1
    {
        type            processor;
        value           nonuniform List<vector> 
90
(
(1.70005e-09 -2.93227e-09 -0.000999976)
(2.51049e-09 -5.15596e-09 -0.000999975)
(3.60084e-09 -7.89918e-09 -0.000999973)
(4.80598e-09 -1.09564e-08 -0.00099997)
(6.11034e-09 -1.43888e-08 -0.000999966)
(7.51077e-09 -1.82903e-08 -0.000999961)
(8.98927e-09 -2.27578e-08 -0.000999955)
(1.05034e-08 -2.78861e-08 -0.000999947)
(1.19769e-08 -3.37648e-08 -0.000999938)
(1.3289e-08 -4.04738e-08 -0.000999928)
(1.42584e-08 -4.80754e-08 -0.000999916)
(1.46196e-08 -5.66003e-08 -0.000999902)
(1.39889e-08 -6.60273e-08 -0.000999887)
(1.18196e-08 -7.6253e-08 -0.000999869)
(7.3437e-09 -8.70505e-08 -0.00099985)
(-5.03937e-10 -9.80124e-08 -0.00099983)
(-1.3203e-08 -1.08464e-07 -0.00099981)
(-3.29335e-08 -1.17275e-07 -0.000999791)
(-6.26834e-08 -1.22747e-07 -0.000999777)
(-1.06558e-07 -1.22359e-07 -0.00099977)
(-1.70184e-07 -1.12438e-07 -0.000999776)
(-2.61272e-07 -8.76764e-08 -0.000999803)
(-3.9029e-07 -4.06102e-08 -0.00099986)
(-5.71286e-07 3.88962e-08 -0.000999963)
(-8.2359e-07 1.65584e-07 -0.00100013)
(-1.17333e-06 3.59813e-07 -0.0010004)
(-1.65585e-06 6.498e-07 -0.00100081)
(-2.31891e-06 1.07439e-06 -0.00100142)
(-3.22694e-06 1.68689e-06 -0.0010023)
(-4.4668e-06 2.56034e-06 -0.00100357)
(-6.15558e-06 3.79459e-06 -0.00100535)
(-8.45157e-06 5.52674e-06 -0.00100791)
(-1.15783e-05 7.95159e-06 -0.00101182)
(-1.59054e-05 1.13866e-05 -0.00101731)
(-2.20772e-05 1.63905e-05 -0.00101992)
(-2.81777e-05 2.14693e-05 -0.00101264)
(-3.45393e-05 2.78882e-05 -0.00104196)
(-3.45471e-05 3.00663e-05 -0.00127723)
(-3.31942e-05 2.61202e-05 -0.000360289)
(7.95071e-05 -4.78614e-05 -0.00258807)
(-1.78458e-06 3.27311e-06 -0.00120539)
(-6.26087e-05 2.47177e-05 -0.0029808)
(-1.57083e-05 2.90836e-05 -0.00192553)
(-7.76947e-05 3.76824e-05 -0.00319086)
(-6.7698e-05 -2.12072e-05 -0.00226309)
(-7.34164e-05 2.78682e-06 -0.0032521)
(-3.27737e-05 7.39727e-05 -0.00197398)
(-1.15249e-05 0.000151726 -0.00331919)
(3.66095e-05 6.17044e-05 -0.00232963)
(-2.99375e-05 -4.44202e-07 -0.0027562)
(-1.39841e-05 -7.72181e-06 -0.00265476)
(1.72148e-05 2.62606e-05 -0.00168502)
(-4.60976e-06 1.13497e-05 -0.00247658)
(7.34312e-05 -4.58501e-05 -0.00108836)
(7.85196e-05 -5.79586e-05 -0.00107546)
(6.20976e-05 -4.81674e-05 -0.0010876)
(4.80127e-05 -3.70041e-05 -0.00107215)
(3.76018e-05 -2.83866e-05 -0.00105588)
(2.95096e-05 -2.1777e-05 -0.0010434)
(2.31787e-05 -1.6703e-05 -0.00103392)
(1.82256e-05 -1.28169e-05 -0.00102658)
(1.43482e-05 -9.84286e-06 -0.00102085)
(1.13103e-05 -7.5629e-06 -0.00101638)
(8.92764e-06 -5.81413e-06 -0.00101289)
(7.05661e-06 -4.47258e-06 -0.00101015)
(5.58546e-06 -3.44326e-06 -0.00100801)
(4.42713e-06 -2.65331e-06 -0.00100633)
(3.51381e-06 -2.0468e-06 -0.00100501)
(2.79265e-06 -1.58083e-06 -0.00100397)
(2.22242e-06 -1.22255e-06 -0.00100315)
(1.77093e-06 -9.46821e-07 -0.0010025)
(1.41299e-06 -7.34417e-07 -0.00100199)
(1.12888e-06 -5.70628e-07 -0.00100159)
(9.03109e-07 -4.4419e-07 -0.00100127)
(7.23538e-07 -3.4647e-07 -0.00100101)
(5.8055e-07 -2.70846e-07 -0.00100081)
(4.66513e-07 -2.12233e-07 -0.00100065)
(3.75444e-07 -1.6672e-07 -0.00100052)
(3.02636e-07 -1.313e-07 -0.00100041)
(2.44362e-07 -1.03665e-07 -0.00100033)
(1.97679e-07 -8.20454e-08 -0.00100026)
(1.60267e-07 -6.50885e-08 -0.00100021)
(1.30301e-07 -5.17661e-08 -0.00100017)
(1.06351e-07 -4.12994e-08 -0.00100013)
(8.72967e-08 -3.31026e-08 -0.0010001)
(7.22635e-08 -2.67367e-08 -0.00100008)
(6.05432e-08 -2.18647e-08 -0.00100006)
(5.15182e-08 -1.81968e-08 -0.00100004)
(4.47698e-08 -1.54871e-08 -0.00100003)
(4.1824e-08 -1.42671e-08 -0.00100002)
)
;
    }
    procBoundary0to2
    {
        type            processor;
        value           nonuniform List<vector> 
90
(
(3.07508e-09 -4.30727e-09 -0.00100003)
(5.47112e-09 -8.11661e-09 -0.00100003)
(8.45898e-09 -1.27574e-08 -0.00100004)
(1.18768e-08 -1.80273e-08 -0.00100004)
(1.58563e-08 -2.41349e-08 -0.00100005)
(2.06019e-08 -3.13815e-08 -0.00100006)
(2.63713e-08 -4.014e-08 -0.00100007)
(3.34901e-08 -5.08729e-08 -0.00100009)
(4.23701e-08 -6.41581e-08 -0.00100011)
(5.35357e-08 -8.07209e-08 -0.00100013)
(6.76577e-08 -1.01475e-07 -0.00100016)
(8.55968e-08 -1.27578e-07 -0.0010002)
(1.08462e-07 -1.60502e-07 -0.00100026)
(1.37687e-07 -2.02123e-07 -0.00100032)
(1.75127e-07 -2.54837e-07 -0.0010004)
(2.23189e-07 -3.21711e-07 -0.00100051)
(2.85002e-07 -4.06676e-07 -0.00100064)
(3.64635e-07 -5.14854e-07 -0.0010008)
(4.67394e-07 -6.52841e-07 -0.00100102)
(6.00211e-07 -8.29152e-07 -0.00100129)
(7.7215e-07 -1.05481e-06 -0.00100163)
(9.9509e-07 -1.34409e-06 -0.00100207)
(1.28457e-06 -1.71554e-06 -0.00100264)
(1.66079e-06 -2.19328e-06 -0.00100336)
(2.15054e-06 -2.8087e-06 -0.00100429)
(2.78899e-06 -3.60273e-06 -0.00100549)
(3.62245e-06 -4.62886e-06 -0.00100703)
(4.71197e-06 -5.95704e-06 -0.00100903)
(6.13807e-06 -7.67894e-06 -0.0010116)
(8.00714e-06 -9.91487e-06 -0.00101494)
(1.04599e-05 -1.28228e-05 -0.00101925)
(1.36829e-05 -1.66104e-05 -0.00102491)
(1.79275e-05 -2.15568e-05 -0.00103266)
(2.35524e-05 -2.80661e-05 -0.00104278)
(3.11491e-05 -3.68028e-05 -0.00105075)
(3.95966e-05 -4.63686e-05 -0.00104733)
(4.75222e-05 -5.41819e-05 -0.00108806)
(4.77857e-05 -5.22631e-05 -0.00134728)
(3.77791e-05 -4.45835e-05 -0.000367684)
(-7.31579e-05 0.000104455 -0.00277086)
(5.35148e-06 -2.22632e-06 -0.0013123)
(6.86257e-05 -0.000102757 -0.00294301)
(6.04889e-05 -4.73202e-05 -0.00232634)
(1.87529e-05 -6.37833e-05 -0.00316353)
(-4.04563e-05 -5.02365e-05 -0.00217435)
(-6.42133e-05 -2.56599e-05 -0.00321003)
(-2.69145e-05 6.39234e-05 -0.00225053)
(-4.84206e-05 0.00017969 -0.00334946)
(1.4313e-06 8.37111e-05 -0.00180235)
(-5.85066e-05 2.01622e-05 -0.00331586)
(-2.18876e-05 2.6102e-05 -0.00205321)
(-8.49656e-06 4.3942e-05 -0.00205158)
(-2.87228e-06 0.000126397 -0.00204642)
(2.92973e-05 8.55641e-05 -0.00144794)
(-1.91387e-05 4.65489e-05 -0.00091935)
(-1.67233e-05 3.10773e-05 -0.00102049)
(-1.02896e-05 2.12919e-05 -0.00101756)
(-6.27777e-06 1.55269e-05 -0.00101018)
(-3.65152e-06 1.14123e-05 -0.00100566)
(-1.86543e-06 8.36018e-06 -0.00100303)
(-6.77712e-07 6.09876e-06 -0.00100129)
(8.34998e-08 4.42984e-06 -0.00100017)
(5.53501e-07 3.19898e-06 -0.000999491)
(8.22647e-07 2.29406e-06 -0.000999092)
(9.54418e-07 1.63165e-06 -0.000998881)
(9.94306e-07 1.14919e-06 -0.000998797)
(9.74834e-07 7.99826e-07 -0.000998796)
(9.19089e-07 5.48468e-07 -0.000998848)
(8.43237e-07 3.68941e-07 -0.000998932)
(7.58302e-07 2.41806e-07 -0.000999031)
(6.71571e-07 1.52695e-07 -0.000999136)
(5.87642e-07 9.10362e-08 -0.00099924)
(5.09232e-07 4.90861e-08 -0.000999339)
(4.37764e-07 2.12023e-08 -0.00099943)
(3.73786e-07 3.31366e-09 -0.000999511)
(3.17339e-07 -7.61321e-09 -0.000999584)
(2.68176e-07 -1.38816e-08 -0.000999648)
(2.25797e-07 -1.70628e-08 -0.000999703)
(1.89585e-07 -1.8243e-08 -0.000999751)
(1.58898e-07 -1.81968e-08 -0.000999791)
(1.33099e-07 -1.74623e-08 -0.000999826)
(1.11581e-07 -1.64005e-08 -0.000999855)
(9.37794e-08 -1.52434e-08 -0.00099988)
(7.91837e-08 -1.41317e-08 -0.000999901)
(6.73377e-08 -1.31427e-08 -0.00099992)
(5.78387e-08 -1.23114e-08 -0.000999936)
(5.03243e-08 -1.16454e-08 -0.000999949)
(4.44439e-08 -1.11223e-08 -0.000999962)
(3.99482e-08 -1.06658e-08 -0.000999975)
(3.79332e-08 -1.03765e-08 -0.000999985)
)
;
    }
}


// ************************************************************************* //
