/*--------------------------------*- C++ -*----------------------------------*\
| =========                 |                                                 |
| \\      /  F ield         | OpenFOAM: The Open Source CFD Toolbox           |
|  \\    /   O peration     | Version:  5.x                                   |
|   \\  /    A nd           | Web:      www.OpenFOAM.org                      |
|    \\/     M anipulation  |                                                 |
\*---------------------------------------------------------------------------*/
FoamFile
{
    version     2.0;
    format      ascii;
    class       volVectorField;
    location    "700";
    object      Us;
}
// * * * * * * * * * * * * * * * * * * * * * * * * * * * * * * * * * * * * * //

dimensions      [0 1 -1 0 0 0 0];

internalField   nonuniform List<vector> 
90
(
(0 0 0)
(0 0 0)
(0 0 0)
(0 0 0)
(0 0 0)
(0 0 0)
(0 0 0)
(0 0 0)
(0 0 0)
(0 0 0)
(0 0 0)
(0 0 0)
(0 0 0)
(0 0 0)
(0 0 0)
(0 0 0)
(0 0 0)
(0 0 0)
(0 0 0)
(0 0 0)
(0 0 0)
(0 0 0)
(0 0 0)
(0 0 0)
(0 0 0)
(0 0 0)
(0 0 0)
(0 0 0)
(0 0 0)
(0 0 0)
(0 0 0)
(0 0 0)
(0 0 0)
(0 0 0)
(0 0 0)
(0 0 0)
(0 0 0)
(0 0 0)
(0 0 0)
(0 0 0)
(4.58288e-06 3.53766e-06 -2.85334e-08)
(8.70556e-06 7.53034e-06 -2.68316e-07)
(1.38241e-05 1.17168e-05 -1.66067e-07)
(1.75551e-05 1.52905e-05 -8.03754e-08)
(2.16199e-05 1.86465e-05 5.06566e-07)
(2.68787e-05 2.26722e-05 6.94492e-07)
(3.11614e-05 2.67691e-05 8.23426e-07)
(3.54951e-05 3.04569e-05 6.19749e-07)
(4.02277e-05 3.41711e-05 6.50785e-07)
(4.48766e-05 3.80984e-05 5.60485e-07)
(4.859e-05 4.11563e-05 7.79236e-07)
(4.9337e-05 4.54453e-05 5.69773e-07)
(3.85618e-05 9.71753e-05 -2.33529e-05)
(-6.56887e-05 0.000627967 -0.000286553)
(0 0 0)
(0 0 0)
(0 0 0)
(0 0 0)
(0 0 0)
(0 0 0)
(0 0 0)
(0 0 0)
(0 0 0)
(0 0 0)
(0 0 0)
(0 0 0)
(0 0 0)
(0 0 0)
(0 0 0)
(0 0 0)
(0 0 0)
(0 0 0)
(0 0 0)
(0 0 0)
(0 0 0)
(0 0 0)
(0 0 0)
(0 0 0)
(0 0 0)
(0 0 0)
(0 0 0)
(0 0 0)
(0 0 0)
(0 0 0)
(0 0 0)
(0 0 0)
(0 0 0)
(0 0 0)
(0 0 0)
(0 0 0)
)
;

boundaryField
{
    inlet
    {
        type            fixedValue;
        value           uniform (0 0 0);
    }
    outlet
    {
        type            fixedValue;
        value           uniform (0 0 0);
    }
    repeat_boundary
    {
        type            fixedValue;
        value           uniform (0 0 0);
    }
    procBoundary0to1
    {
        type            processor;
        value           nonuniform List<vector> 
90
(
(0 0 0)
(0 0 0)
(0 0 0)
(0 0 0)
(0 0 0)
(0 0 0)
(0 0 0)
(0 0 0)
(0 0 0)
(0 0 0)
(0 0 0)
(0 0 0)
(0 0 0)
(0 0 0)
(0 0 0)
(0 0 0)
(0 0 0)
(0 0 0)
(0 0 0)
(0 0 0)
(0 0 0)
(0 0 0)
(0 0 0)
(0 0 0)
(0 0 0)
(0 0 0)
(0 0 0)
(0 0 0)
(0 0 0)
(0 0 0)
(0 0 0)
(0 0 0)
(0 0 0)
(0 0 0)
(0 0 0)
(0 0 0)
(0 0 0)
(0 0 0)
(0 0 0)
(0 0 0)
(3.76966e-06 3.56954e-06 6.90954e-08)
(8.34866e-06 7.63165e-06 2.81439e-07)
(1.17575e-05 1.09125e-05 5.10307e-07)
(1.6725e-05 1.52119e-05 -1.78431e-07)
(2.18678e-05 1.90048e-05 -3.59369e-07)
(2.63962e-05 2.33181e-05 -2.18081e-07)
(3.22972e-05 2.77318e-05 9.98447e-07)
(3.69851e-05 3.14932e-05 4.29947e-07)
(4.08973e-05 3.50386e-05 -2.59617e-07)
(4.36442e-05 3.78498e-05 -2.31434e-07)
(4.64396e-05 4.10124e-05 4.00073e-07)
(4.78804e-05 4.38499e-05 1.44175e-06)
(4.9078e-05 4.53865e-05 8.4467e-07)
(0 0 0)
(0 0 0)
(0 0 0)
(0 0 0)
(0 0 0)
(0 0 0)
(0 0 0)
(0 0 0)
(0 0 0)
(0 0 0)
(0 0 0)
(0 0 0)
(0 0 0)
(0 0 0)
(0 0 0)
(0 0 0)
(0 0 0)
(0 0 0)
(0 0 0)
(0 0 0)
(0 0 0)
(0 0 0)
(0 0 0)
(0 0 0)
(0 0 0)
(0 0 0)
(0 0 0)
(0 0 0)
(0 0 0)
(0 0 0)
(0 0 0)
(0 0 0)
(0 0 0)
(0 0 0)
(0 0 0)
(0 0 0)
(0 0 0)
)
;
    }
    procBoundary0to2
    {
        type            processor;
        value           nonuniform List<vector> 
90
(
(0 0 0)
(0 0 0)
(0 0 0)
(0 0 0)
(0 0 0)
(0 0 0)
(0 0 0)
(0 0 0)
(0 0 0)
(0 0 0)
(0 0 0)
(0 0 0)
(0 0 0)
(0 0 0)
(0 0 0)
(0 0 0)
(0 0 0)
(0 0 0)
(0 0 0)
(0 0 0)
(0 0 0)
(0 0 0)
(0 0 0)
(0 0 0)
(0 0 0)
(0 0 0)
(0 0 0)
(0 0 0)
(0 0 0)
(0 0 0)
(0 0 0)
(0 0 0)
(0 0 0)
(0 0 0)
(0 0 0)
(0 0 0)
(0 0 0)
(0 0 0)
(0 0 0)
(0 0 0)
(5.68994e-06 3.77237e-06 2.33241e-07)
(9.29641e-06 7.73034e-06 7.83483e-07)
(1.37155e-05 1.12432e-05 7.60964e-07)
(1.81576e-05 1.47488e-05 1.01534e-06)
(2.35644e-05 1.89861e-05 1.09324e-07)
(2.71214e-05 2.26846e-05 1.22926e-06)
(3.22782e-05 2.61207e-05 1.42639e-06)
(3.6725e-05 3.085e-05 1.56337e-06)
(4.1084e-05 3.43813e-05 1.43828e-06)
(4.41669e-05 3.8318e-05 1.39548e-06)
(4.69991e-05 4.22935e-05 1.7551e-06)
(4.23407e-05 4.08848e-05 -1.4886e-06)
(3.10489e-05 0.000166788 -6.72843e-05)
(0.00020781 0.000719404 -0.000260949)
(0 0 0)
(0 0 0)
(0 0 0)
(0 0 0)
(0 0 0)
(0 0 0)
(0 0 0)
(0 0 0)
(0 0 0)
(0 0 0)
(0 0 0)
(0 0 0)
(0 0 0)
(0 0 0)
(0 0 0)
(0 0 0)
(0 0 0)
(0 0 0)
(0 0 0)
(0 0 0)
(0 0 0)
(0 0 0)
(0 0 0)
(0 0 0)
(0 0 0)
(0 0 0)
(0 0 0)
(0 0 0)
(0 0 0)
(0 0 0)
(0 0 0)
(0 0 0)
(0 0 0)
(0 0 0)
(0 0 0)
(0 0 0)
)
;
    }
}


// ************************************************************************* //
