/*--------------------------------*- C++ -*----------------------------------*\
| =========                 |                                                 |
| \\      /  F ield         | OpenFOAM: The Open Source CFD Toolbox           |
|  \\    /   O peration     | Version:  5.x                                   |
|   \\  /    A nd           | Web:      www.OpenFOAM.org                      |
|    \\/     M anipulation  |                                                 |
\*---------------------------------------------------------------------------*/
FoamFile
{
    version     2.0;
    format      ascii;
    class       volVectorField;
    location    "4000";
    object      stored_U;
}
// * * * * * * * * * * * * * * * * * * * * * * * * * * * * * * * * * * * * * //

dimensions      [0 1 -1 0 0 0 0];

internalField   nonuniform List<vector> 
180
(
(-0.00906183 0.00389294 10.6961)
(-0.128401 0.0897666 12.5314)
(-0.0932153 0.0686384 11.9464)
(-0.0501955 0.0639466 11.4223)
(0.0301368 -0.0718981 11.5617)
(-0.0296168 0.0764095 10.9258)
(0.0233023 0.061152 11.9294)
(-0.0293396 0.00161819 11.8176)
(-0.101045 -0.213937 11.5245)
(-0.216962 -0.210364 11.8578)
(-0.234776 0.0680333 10.9085)
(-0.191824 0.0991559 11.7153)
(-0.245621 0.182322 11.6873)
(-0.324093 0.147223 11.652)
(-0.281922 0.0685735 11.2178)
(-0.249313 0.2246 10.888)
(-0.177292 0.184269 11.3871)
(-0.109418 0.0280575 11.6069)
(-0.0486342 -0.104675 11.7814)
(-0.164591 0.152301 10.4955)
(-0.231995 0.12285 11.5286)
(-0.409731 0.195171 12.0484)
(-0.39672 0.213476 10.2351)
(-0.270974 0.277649 11.1324)
(-0.42508 0.579327 11.3082)
(-0.533551 0.640412 10.8527)
(-0.673519 0.598013 11.1164)
(-0.409386 0.237231 9.77612)
(-0.489934 0.278736 11.0092)
(-0.193448 0.0220817 10.2076)
(-0.585548 0.265663 10.3356)
(-0.378396 0.197331 10.1521)
(-0.402681 0.238796 9.93535)
(-0.319813 0.126728 9.8666)
(-0.197981 0.0744519 9.75426)
(-0.313324 0.206004 9.53499)
(-0.173451 0.104402 9.67774)
(0.105477 0.0445694 8.93249)
(-0.121785 0.41012 9.58076)
(-0.291648 0.396111 9.62637)
(0.43054 -0.476629 9.7067)
(0.693775 -0.766864 8.99402)
(0.532193 -0.396526 9.55321)
(0.132317 -0.220689 8.98413)
(-0.177101 -0.0879008 9.98587)
(0.200873 -0.189024 9.72587)
(0.776071 -0.473728 9.69782)
(0.939284 -0.682088 9.88589)
(0.486525 -0.605834 9.63895)
(0.395817 -0.604372 9.77419)
(0.466304 -0.562218 10.1603)
(0.635647 -0.491046 10.2238)
(0.714672 -0.425151 10.3685)
(0.644517 -0.375122 10.5415)
(0.585232 -0.320797 10.6611)
(0.567434 -0.270871 10.7717)
(0.503575 -0.226977 10.8813)
(0.418477 -0.186923 10.9728)
(0.336799 -0.148792 11.0399)
(0.257029 -0.11337 11.0912)
(0.180739 -0.0807085 11.1274)
(0.110901 -0.051404 11.1491)
(0.0441306 -0.0257241 11.1582)
(-0.0157447 -0.00322435 11.1553)
(-0.0737906 0.016903 11.1425)
(-0.128698 0.0345933 11.1192)
(-0.198431 0.0516468 11.0904)
(-0.235037 0.0702129 11.0402)
(-0.256766 0.0913515 11.0111)
(-0.22755 0.11114 10.9525)
(-0.147898 0.164054 10.9104)
(-0.0985699 0.249545 10.9039)
(0.207499 0.0193234 11.0231)
(0.0365384 0.0731226 10.2985)
(-0.0168153 0.0425575 11.4476)
(0.53339 -0.134791 11.3696)
(1.53853 -0.734513 11.2188)
(1.85836 -1.03509 11.3872)
(1.47201 -0.773591 11.8086)
(1.54201 -0.725179 11.9425)
(1.59601 -0.676325 12.253)
(1.61924 -0.54223 12.3899)
(1.66721 -0.445999 12.8025)
(1.51186 -0.181898 12.6046)
(1.47504 -0.0468151 12.9415)
(1.47585 0.147607 13.1022)
(1.42294 0.338344 13.6052)
(1.56669 0.448936 11.9434)
(1.95601 0.529622 13.4684)
(2.03521 0.670377 13.4159)
(2.29725 1.3224 13.4003)
(2.61054 1.92769 12.8803)
(2.88178 1.77057 14.012)
(3.23428 1.99579 13.2763)
(4.01377 2.65506 13.916)
(3.9469 3.53171 13.5829)
(6.03725 4.09796 16.1905)
(6.89841 4.84292 17.2958)
(6.42236 6.03113 17.1647)
(6.26117 7.0032 17.8417)
(3.21602 10.6494 16.5158)
(5.31586 11.1142 18.4839)
(6.16749 11.1677 18.8714)
(4.00243 13.6341 15.5574)
(6.00334 16.5123 16.2353)
(0.649807 20.0133 13.8955)
(0.280445 21.0816 11.6551)
(-12.0728 27.5636 10.8103)
(-31.0207 15.5603 3.4037)
(-35.1541 13.615 -1.08747)
(-43.7538 14.5552 -5.38774)
(-53.201 17.4154 -11.0193)
(-65.8214 21.438 -18.3783)
(-80.139 26.8135 -25.9289)
(-91.9155 31.7593 -35.9883)
(-99.0465 34.8554 -47.6917)
(-102.239 35.8357 -59.806)
(-105.833 38.1467 -74.1504)
(-110.751 43.0243 -85.9009)
(-118.02 47.4341 -102.33)
(-124.969 56.5468 -116.511)
(-132.488 65.998 -137.645)
(-136.83 76.6268 -153.361)
(-139.33 92.058 -175.37)
(-137.664 104.964 -196.459)
(-120.449 110.639 -215.985)
(-98.3766 119.104 -240.806)
(-66.6134 122.804 -256.743)
(-21.824 111.297 -277.772)
(26.9296 99.3866 -291.913)
(74.6903 63.5916 -302.406)
(114.987 22.3244 -315.468)
(123.079 -47.6383 -308.39)
(109.023 -72.9813 -298.808)
(103.207 -69.8706 -305.921)
(94.2613 -116.809 -279.156)
(96.3384 -119.517 -264.356)
(90.6858 -135.177 -256.003)
(67.7481 -133.521 -229.288)
(67.3713 -131.189 -212.335)
(66.1588 -132.677 -207.251)
(57.0909 -125.334 -178.996)
(52.3803 -117.81 -169.139)
(48.0569 -106.848 -141.976)
(43.5179 -87.3727 -129.439)
(42.1095 -69.7116 -111.163)
(41.1185 -56.197 -99.5252)
(39.4573 -52.8528 -87.582)
(38.2464 -44.9818 -76.8511)
(34.7876 -37.584 -68.1891)
(31.7741 -29.7858 -59.436)
(30.4303 -26.3795 -52.7274)
(26.9223 -24.4782 -47.0577)
(26.531 -19.0607 -39.4134)
(22.7162 -19.1389 -37.2028)
(22.5049 -14.9082 -29.3005)
(20.0632 -14.1741 -27.7358)
(19.2195 -11.6745 -21.5208)
(17.7948 -10.3807 -19.3872)
(16.8225 -8.87738 -14.9092)
(15.7949 -7.71231 -12.5468)
(14.9742 -6.64955 -9.22445)
(14.2039 -5.72608 -6.92721)
(13.574 -4.92086 -4.369)
(13.0315 -4.19755 -2.30775)
(12.6118 -3.54623 -0.273285)
(12.3199 -2.92253 1.4544)
(12.1988 -2.28686 3.08999)
(12.2039 -1.55341 4.76442)
(11.9676 -0.821723 6.46757)
(10.3749 -0.77054 6.76289)
(8.84374 -0.89115 7.08958)
(7.72664 -0.943161 7.68789)
(6.90669 -0.830618 8.47729)
(6.31813 -0.755171 8.69881)
(4.95854 -0.0937506 9.92181)
(4.68749 0.0411468 8.76543)
(2.23744 0.335983 10.8063)
(0.413682 0.744207 10.4544)
(-1.34233 1.46062 9.88454)
)
;

boundaryField
{
    inlet
    {
        type            calculated;
        value           uniform (-1.34233 1.46062 9.88454);
    }
    outlet
    {
        type            calculated;
        value           uniform (-0.00906183 0.00389294 10.6961);
    }
    repeat_boundary
    {
        type            calculated;
        value           nonuniform List<vector> 
360
(
(-0.00906183 0 10.6961)
(-0.128401 0 12.5314)
(-0.0932153 0 11.9464)
(-0.0501955 0 11.4223)
(0.0301368 0 11.5617)
(-0.0296168 0 10.9258)
(0.0233023 0 11.9294)
(-0.0293396 0 11.8176)
(-0.101045 0 11.5245)
(-0.216962 0 11.8578)
(-0.234776 0 10.9085)
(-0.191824 0 11.7153)
(-0.245621 0 11.6873)
(-0.324093 0 11.652)
(-0.281922 0 11.2178)
(-0.249313 0 10.888)
(-0.177292 0 11.3871)
(-0.109418 0 11.6069)
(-0.0486342 0 11.7814)
(-0.164591 0 10.4955)
(-0.231995 0 11.5286)
(-0.409731 0 12.0484)
(-0.39672 0 10.2351)
(-0.270974 0 11.1324)
(-0.42508 0 11.3082)
(-0.533551 0 10.8527)
(-0.673519 0 11.1164)
(-0.409386 0 9.77612)
(-0.489934 0 11.0092)
(-0.193448 0 10.2076)
(-0.585548 0 10.3356)
(-0.378396 0 10.1521)
(-0.402681 0 9.93535)
(-0.319813 0 9.8666)
(-0.197981 0 9.75426)
(-0.313324 0 9.53499)
(-0.173451 0 9.67774)
(0.105477 0 8.93249)
(-0.121785 0 9.58076)
(-0.291648 0 9.62637)
(0.43054 0 9.7067)
(0.693775 0 8.99402)
(0.532193 0 9.55321)
(0.132317 0 8.98413)
(-0.177101 0 9.98587)
(0.200873 0 9.72587)
(0.776071 0 9.69782)
(0.939284 0 9.88589)
(0.486525 0 9.63895)
(0.395817 0 9.77419)
(0.466304 0 10.1603)
(0.635647 0 10.2238)
(0.714672 0 10.3685)
(0.644517 0 10.5415)
(0.585232 0 10.6611)
(0.567434 0 10.7717)
(0.503575 0 10.8813)
(0.418477 0 10.9728)
(0.336799 0 11.0399)
(0.257029 0 11.0912)
(0.180739 0 11.1274)
(0.110901 0 11.1491)
(0.0441306 0 11.1582)
(-0.0157447 0 11.1553)
(-0.0737906 0 11.1425)
(-0.128698 0 11.1192)
(-0.198431 0 11.0904)
(-0.235037 0 11.0402)
(-0.256766 0 11.0111)
(-0.22755 0 10.9525)
(-0.147898 0 10.9104)
(-0.0985699 0 10.9039)
(0.207499 0 11.0231)
(0.0365384 0 10.2985)
(-0.0168153 0 11.4476)
(0.53339 0 11.3696)
(1.53853 0 11.2188)
(1.85836 0 11.3872)
(1.47201 0 11.8086)
(1.54201 0 11.9425)
(1.59601 0 12.253)
(1.61924 0 12.3899)
(1.66721 0 12.8025)
(1.51186 0 12.6046)
(1.47504 0 12.9415)
(1.47585 0 13.1022)
(1.42294 0 13.6052)
(1.56669 0 11.9434)
(1.95601 0 13.4684)
(2.03521 0 13.4159)
(2.29725 0 13.4003)
(2.61054 0 12.8803)
(2.88178 0 14.012)
(3.23428 0 13.2763)
(4.01377 0 13.916)
(3.9469 0 13.5829)
(6.03725 0 16.1905)
(6.89841 0 17.2958)
(6.42236 0 17.1647)
(6.26117 0 17.8417)
(3.21602 0 16.5158)
(5.31586 0 18.4839)
(6.16749 0 18.8714)
(4.00243 0 15.5574)
(6.00334 0 16.2353)
(0.649807 0 13.8955)
(0.280445 0 11.6551)
(-12.0728 0 10.8103)
(-31.0207 0 3.4037)
(-35.1541 0 -1.08747)
(-43.7538 0 -5.38774)
(-53.201 0 -11.0193)
(-65.8214 0 -18.3783)
(-80.139 0 -25.9289)
(-91.9155 0 -35.9883)
(-99.0465 0 -47.6917)
(-102.239 0 -59.806)
(-105.833 0 -74.1504)
(-110.751 0 -85.9009)
(-118.02 0 -102.33)
(-124.969 0 -116.511)
(-132.488 0 -137.645)
(-136.83 0 -153.361)
(-139.33 0 -175.37)
(-137.664 0 -196.459)
(-120.449 0 -215.985)
(-98.3766 0 -240.806)
(-66.6134 0 -256.743)
(-21.824 0 -277.772)
(26.9296 0 -291.913)
(74.6903 0 -302.406)
(114.987 0 -315.468)
(123.079 0 -308.39)
(109.023 0 -298.808)
(103.207 0 -305.921)
(94.2613 0 -279.156)
(96.3384 0 -264.356)
(90.6858 0 -256.003)
(67.7481 0 -229.288)
(67.3713 0 -212.335)
(66.1588 0 -207.251)
(57.0909 0 -178.996)
(52.3803 0 -169.139)
(48.0569 0 -141.976)
(43.5179 0 -129.439)
(42.1095 0 -111.163)
(41.1185 0 -99.5252)
(39.4573 0 -87.582)
(38.2464 0 -76.8511)
(34.7876 0 -68.1891)
(31.7741 0 -59.436)
(30.4303 0 -52.7274)
(26.9223 0 -47.0577)
(26.531 0 -39.4134)
(22.7162 0 -37.2028)
(22.5049 0 -29.3005)
(20.0632 0 -27.7358)
(19.2195 0 -21.5208)
(17.7948 0 -19.3872)
(16.8225 0 -14.9092)
(15.7949 0 -12.5468)
(14.9742 0 -9.22445)
(14.2039 0 -6.92721)
(13.574 0 -4.369)
(13.0315 0 -2.30775)
(12.6118 0 -0.273285)
(12.3199 0 1.4544)
(12.1988 0 3.08999)
(12.2039 0 4.76442)
(11.9676 0 6.46757)
(10.3749 0 6.76289)
(8.84374 0 7.08958)
(7.72664 0 7.68789)
(6.90669 0 8.47729)
(6.31813 0 8.69881)
(4.95854 0 9.92181)
(4.68749 0 8.76543)
(2.23744 0 10.8063)
(0.413682 0 10.4544)
(-1.34233 0 9.88454)
(0 0.00389294 10.6961)
(0 0.0897666 12.5314)
(0 0.0686384 11.9464)
(0 0.0639466 11.4223)
(0 -0.0718981 11.5617)
(0 0.0764095 10.9258)
(0 0.061152 11.9294)
(0 0.00161819 11.8176)
(0 -0.213937 11.5245)
(0 -0.210364 11.8578)
(0 0.0680333 10.9085)
(0 0.0991559 11.7153)
(0 0.182322 11.6873)
(0 0.147223 11.652)
(0 0.0685735 11.2178)
(0 0.2246 10.888)
(0 0.184269 11.3871)
(0 0.0280575 11.6069)
(0 -0.104675 11.7814)
(0 0.152301 10.4955)
(0 0.12285 11.5286)
(0 0.195171 12.0484)
(0 0.213476 10.2351)
(0 0.277649 11.1324)
(0 0.579327 11.3082)
(0 0.640412 10.8527)
(0 0.598013 11.1164)
(0 0.237231 9.77612)
(0 0.278736 11.0092)
(0 0.0220817 10.2076)
(0 0.265663 10.3356)
(0 0.197331 10.1521)
(0 0.238796 9.93535)
(0 0.126728 9.8666)
(0 0.0744519 9.75426)
(0 0.206004 9.53499)
(0 0.104402 9.67774)
(0 0.0445694 8.93249)
(0 0.41012 9.58076)
(0 0.396111 9.62637)
(0 -0.476629 9.7067)
(0 -0.766864 8.99402)
(0 -0.396526 9.55321)
(0 -0.220689 8.98413)
(0 -0.0879008 9.98587)
(0 -0.189024 9.72587)
(0 -0.473728 9.69782)
(0 -0.682088 9.88589)
(0 -0.605834 9.63895)
(0 -0.604372 9.77419)
(0 -0.562218 10.1603)
(0 -0.491046 10.2238)
(0 -0.425151 10.3685)
(0 -0.375122 10.5415)
(0 -0.320797 10.6611)
(0 -0.270871 10.7717)
(0 -0.226977 10.8813)
(0 -0.186923 10.9728)
(0 -0.148792 11.0399)
(0 -0.11337 11.0912)
(0 -0.0807085 11.1274)
(0 -0.051404 11.1491)
(0 -0.0257241 11.1582)
(0 -0.00322435 11.1553)
(0 0.016903 11.1425)
(0 0.0345933 11.1192)
(0 0.0516468 11.0904)
(0 0.0702129 11.0402)
(0 0.0913515 11.0111)
(0 0.11114 10.9525)
(0 0.164054 10.9104)
(0 0.249545 10.9039)
(0 0.0193234 11.0231)
(0 0.0731226 10.2985)
(0 0.0425575 11.4476)
(0 -0.134791 11.3696)
(0 -0.734513 11.2188)
(0 -1.03509 11.3872)
(0 -0.773591 11.8086)
(0 -0.725179 11.9425)
(0 -0.676325 12.253)
(0 -0.54223 12.3899)
(0 -0.445999 12.8025)
(0 -0.181898 12.6046)
(0 -0.0468151 12.9415)
(0 0.147607 13.1022)
(0 0.338344 13.6052)
(0 0.448936 11.9434)
(0 0.529622 13.4684)
(0 0.670377 13.4159)
(0 1.3224 13.4003)
(0 1.92769 12.8803)
(0 1.77057 14.012)
(0 1.99579 13.2763)
(0 2.65506 13.916)
(0 3.53171 13.5829)
(0 4.09796 16.1905)
(0 4.84292 17.2958)
(0 6.03113 17.1647)
(0 7.0032 17.8417)
(0 10.6494 16.5158)
(0 11.1142 18.4839)
(0 11.1677 18.8714)
(0 13.6341 15.5574)
(0 16.5123 16.2353)
(0 20.0133 13.8955)
(0 21.0816 11.6551)
(0 27.5636 10.8103)
(0 15.5603 3.4037)
(0 13.615 -1.08747)
(0 14.5552 -5.38774)
(0 17.4154 -11.0193)
(0 21.438 -18.3783)
(0 26.8135 -25.9289)
(0 31.7593 -35.9883)
(0 34.8554 -47.6917)
(0 35.8357 -59.806)
(0 38.1467 -74.1504)
(0 43.0243 -85.9009)
(0 47.4341 -102.33)
(0 56.5468 -116.511)
(0 65.998 -137.645)
(0 76.6268 -153.361)
(0 92.058 -175.37)
(0 104.964 -196.459)
(0 110.639 -215.985)
(0 119.104 -240.806)
(0 122.804 -256.743)
(0 111.297 -277.772)
(0 99.3866 -291.913)
(0 63.5916 -302.406)
(0 22.3244 -315.468)
(0 -47.6383 -308.39)
(0 -72.9813 -298.808)
(0 -69.8706 -305.921)
(0 -116.809 -279.156)
(0 -119.517 -264.356)
(0 -135.177 -256.003)
(0 -133.521 -229.288)
(0 -131.189 -212.335)
(0 -132.677 -207.251)
(0 -125.334 -178.996)
(0 -117.81 -169.139)
(0 -106.848 -141.976)
(0 -87.3727 -129.439)
(0 -69.7116 -111.163)
(0 -56.197 -99.5252)
(0 -52.8528 -87.582)
(0 -44.9818 -76.8511)
(0 -37.584 -68.1891)
(0 -29.7858 -59.436)
(0 -26.3795 -52.7274)
(0 -24.4782 -47.0577)
(0 -19.0607 -39.4134)
(0 -19.1389 -37.2028)
(0 -14.9082 -29.3005)
(0 -14.1741 -27.7358)
(0 -11.6745 -21.5208)
(0 -10.3807 -19.3872)
(0 -8.87738 -14.9092)
(0 -7.71231 -12.5468)
(0 -6.64955 -9.22445)
(0 -5.72608 -6.92721)
(0 -4.92086 -4.369)
(0 -4.19755 -2.30775)
(0 -3.54623 -0.273285)
(0 -2.92253 1.4544)
(0 -2.28686 3.08999)
(0 -1.55341 4.76442)
(0 -0.821723 6.46757)
(0 -0.77054 6.76289)
(0 -0.89115 7.08958)
(0 -0.943161 7.68789)
(0 -0.830618 8.47729)
(0 -0.755171 8.69881)
(0 -0.0937506 9.92181)
(0 0.0411468 8.76543)
(0 0.335983 10.8063)
(0 0.744207 10.4544)
(0 1.46062 9.88454)
)
;
    }
    procBoundary1to0
    {
        type            processor;
        value           nonuniform List<vector> 
180
(
(-0.0117715 -0.00670417 11.3704)
(-0.142166 -0.12529 13.822)
(-0.250679 -0.219099 13.4541)
(-0.281011 -0.228281 13.097)
(-0.236806 -0.154762 12.8605)
(-0.0828075 0.0324329 13.5292)
(-0.109672 -0.0284588 11.7497)
(-0.12019 0.00951137 13.2944)
(-0.171536 -0.00986947 13.3373)
(-0.242719 -0.0141361 12.8599)
(-0.277163 0.000911657 13.0897)
(-0.282881 -0.0221057 12.9069)
(-0.345151 -0.0423587 13.1279)
(-0.374221 -0.0345444 13.0244)
(-0.33009 0.0347354 13.4447)
(-0.285157 0.00833591 12.495)
(-0.220379 0.155869 13.211)
(-0.176903 0.273773 13.2787)
(-0.119563 0.467501 13.5362)
(-0.194209 0.303351 12.3232)
(-0.299503 0.0401559 12.7616)
(-0.478048 -0.314678 12.9074)
(-0.519289 -0.204457 13.2936)
(-0.441538 0.241964 13.651)
(-0.377028 0.175947 12.0898)
(-0.481503 0.0799586 14.1505)
(-0.243224 -0.0655177 12.1893)
(-0.489269 -0.0779128 13.3578)
(-0.528544 0.0614537 14.3009)
(-0.556377 0.0703614 12.0861)
(-1.0676 -0.0657678 13.7232)
(-0.611249 -0.147886 14.0137)
(-1.28131 -0.542188 13.6887)
(-2.11897 -0.912688 13.8305)
(-1.32912 -0.639381 14.2237)
(-1.22256 -0.625925 14.1525)
(-1.07415 -0.581047 14.3972)
(-0.870664 -0.436103 14.3958)
(-0.624222 -0.0651753 14.3124)
(-0.38453 0.339405 14.5469)
(-0.189089 0.428985 14.5959)
(-0.175796 -0.0889001 12.7117)
(-0.280733 -0.270415 15.0742)
(-0.221204 -0.299545 14.2146)
(0.33843 0.211617 12.8571)
(-0.0634757 -0.204258 14.3465)
(-0.357531 -0.423229 14.3499)
(0.282335 0.543941 13.9858)
(0.650041 1.05117 13.801)
(0.495698 0.678694 13.2958)
(0.612552 0.656053 13.5585)
(0.795398 0.674491 13.6873)
(0.881233 0.486794 12.8464)
(0.696921 0.191786 12.0193)
(0.629831 0.0238693 13.5645)
(0.606875 0.00584032 12.6972)
(0.616397 0.0145687 12.407)
(0.442336 -0.0151051 12.4951)
(0.31501 0.0170352 12.4591)
(0.246586 0.0961794 12.4016)
(0.172118 0.176196 12.3312)
(0.103587 0.275551 12.2811)
(0.0394295 0.353521 12.1782)
(-0.0215912 0.382643 12.169)
(-0.0763119 0.378996 12.0027)
(-0.124102 0.128785 12.1824)
(-0.183463 0.0706103 11.3738)
(-0.289265 0.161885 12.6449)
(-0.261276 0.328069 11.7477)
(-0.219768 -0.0107011 12.1554)
(-0.0764022 -0.260069 12.2344)
(0.117815 -0.439179 12.4168)
(0.0839599 -0.612683 11.8953)
(0.162538 -0.481453 11.5209)
(-0.16784 -0.3741 12.1816)
(-0.0218684 -0.474343 12.5232)
(1.00256 -0.802866 12.1538)
(1.63589 -1.01425 12.0464)
(1.45728 -0.928585 11.7946)
(1.46445 -0.865036 12.2788)
(1.24031 -0.39593 10.888)
(1.2322 -0.331505 11.9927)
(0.735551 -0.0624034 11.3077)
(1.12723 -0.18711 11.4496)
(1.37023 -0.126023 11.1646)
(1.32411 -0.0879467 11.5525)
(1.34469 -0.212192 10.4105)
(1.25336 -0.137281 11.1839)
(1.46732 0.118285 10.3767)
(1.65536 0.317832 10.6824)
(2.17843 0.668436 9.91493)
(2.96049 1.124 9.44003)
(4.14277 1.07295 9.63219)
(8.099 3.80565 7.70375)
(10.4056 4.09909 8.06232)
(10.9035 4.49581 6.82528)
(15.0109 7.21548 5.32901)
(13.7115 11.4336 2.69756)
(7.98229 12.262 0.020043)
(5.4779 13.0168 -1.40317)
(2.25171 12.5902 -3.02004)
(-0.645055 12.9408 -4.23874)
(-4.64812 13.972 -6.22465)
(-6.86149 16.6713 -6.43094)
(-10.413 16.2632 -9.40611)
(-14.3129 17.0468 -9.16485)
(-17.0189 17.0675 -10.2368)
(-19.9908 17.944 -10.8853)
(-23.5818 18.795 -10.7601)
(-26.6165 20.1975 -9.83598)
(-31.7341 20.7991 -8.66841)
(-36.68 21.9717 -6.21269)
(-44.7177 24.042 -3.39623)
(-57.8191 28.2336 0.961954)
(-69.826 32.8756 3.64188)
(-78.5477 35.6943 8.5169)
(-85.5997 37.6019 14.0367)
(-82.214 34.1134 18.4816)
(-72.9875 27.126 26.5935)
(-88.3255 33.0237 36.1445)
(-94.6795 35.9804 42.7238)
(-101.208 40.0647 49.1193)
(-106.472 42.9989 58.6009)
(-101.118 37.4588 65.4456)
(-106.271 36.9136 72.8838)
(-107.426 40.7597 81.8905)
(-107.622 37.9181 87.5089)
(-105.11 41.425 94.8729)
(-107.409 42.7246 96.1834)
(-106.234 47.2801 98.6733)
(-114.683 66.4212 93.6595)
(-95.2103 57.0385 88.964)
(-81.4596 53.7824 81.2077)
(-79.3901 67.3776 72.5671)
(-82.7103 105.915 55.6307)
(-45.7001 122.116 43.7574)
(31.6744 71.9461 24.9563)
(139.747 -97.0818 -0.166056)
(113.476 -96.0785 -28.5842)
(104.889 -99.0906 -32.0566)
(104.945 -108.845 -37.7936)
(99.9452 -111.883 -36.0403)
(86.2067 -152.178 -34.3119)
(77.6367 -135.637 -30.82)
(72.0397 -136.205 -15.7566)
(66.5682 -125.912 -13.9042)
(66.0045 -121.49 1.15418)
(62.2079 -108.279 -0.121509)
(55.4853 -92.324 8.24121)
(51.519 -76.5285 11.7532)
(49.2062 -64.2036 16.787)
(46.7835 -54.1482 19.4118)
(43.5419 -46.393 21.8736)
(41.2193 -40.1813 23.3863)
(38.7771 -35.1523 24.3877)
(36.7222 -30.9976 24.9593)
(34.805 -27.3103 25.3705)
(33.1973 -24.316 25.4322)
(31.4252 -21.977 25.3057)
(29.5865 -20.0345 25.1313)
(27.6766 -18.3088 24.8262)
(25.7687 -16.7177 24.4363)
(23.8882 -15.2263 23.9842)
(22.064 -13.8276 23.4948)
(20.306 -12.5216 22.9692)
(18.625 -11.3081 22.4089)
(17.026 -10.1879 21.8207)
(15.5139 -9.15772 21.2009)
(14.0904 -8.21597 20.5559)
(12.7517 -7.35525 19.8931)
(11.4972 -6.57308 19.2751)
(10.33 -5.864 18.7898)
(9.2705 -5.22961 18.3739)
(8.28178 -4.64404 18.1449)
(7.46684 -4.14591 17.675)
(6.45358 -3.54479 17.8335)
(5.84982 -3.02968 16.7436)
(5.32329 -2.60009 17.3779)
(4.31934 -2.47626 17.9538)
(3.11401 -2.18292 17.9483)
)
;
    }
    procBoundary1to3
    {
        type            processor;
        value           nonuniform List<vector> 
180
(
(9.08494e-05 0.00509984 11.1471)
(0.0805037 0.0970699 13.3639)
(0.134802 0.165766 13.0092)
(0.113024 0.16463 12.6791)
(0.0131886 0.0936255 12.4404)
(-0.182639 -0.070572 12.9607)
(0.00821683 0.0873802 11.5338)
(-0.0929648 0.0345617 12.7223)
(-0.11839 0.0402895 12.7519)
(-0.312007 -0.086987 12.7774)
(-0.195591 -0.0209058 11.3991)
(-0.0331243 0.140769 12.5329)
(0.0174295 0.227075 12.6532)
(-0.171819 0.18197 12.2211)
(-0.411774 0.0420455 12.7314)
(-0.00168002 0.244079 11.4592)
(-0.194645 0.128188 12.4663)
(-0.330522 0.0459556 12.4967)
(-0.640766 -0.0412478 12.3963)
(-0.375588 0.152554 11.7687)
(0.0204279 0.329923 11.9126)
(0.260407 0.48731 11.9401)
(0.270428 0.598521 12.1086)
(0.259187 0.626799 11.8117)
(0.510074 0.638489 12.2298)
(0.482533 0.667161 12.5111)
(0.0179481 0.671726 12.3414)
(-0.295273 0.694861 12.8623)
(-0.317068 0.340075 11.4701)
(-0.281739 0.409469 13.162)
(-0.287804 0.0228378 11.8808)
(-0.131965 0.358912 12.5048)
(-0.264314 0.494345 12.7011)
(-0.0335971 0.539657 12.7616)
(0.393895 1.18883 12.0358)
(0.0993958 0.650416 13.4432)
(0.236974 0.628528 11.7687)
(0.043039 0.535688 13.0503)
(-0.119488 0.707241 12.9118)
(-0.155384 0.32082 12.2956)
(-0.0900469 0.162297 12.8321)
(0.0490275 0.346831 12.761)
(0.0797358 0.00295433 12.1943)
(0.108595 -0.0649999 12.563)
(-0.0252202 -0.190695 12.0618)
(-0.0457292 -0.18263 12.4704)
(-0.179369 -0.200466 12.5665)
(-0.649009 -0.406579 12.2405)
(-1.02286 -0.609587 12.3981)
(-0.825482 -0.624989 11.6213)
(-0.524511 -0.657358 11.5389)
(-0.170063 -0.594308 11.6383)
(0.0721761 -0.465949 11.5608)
(0.175387 -0.384209 11.4875)
(0.255287 -0.323132 11.4693)
(0.278169 -0.272251 11.4706)
(0.30724 -0.22749 11.4986)
(0.251453 -0.186893 11.5254)
(0.148067 -0.149073 11.5392)
(0.0292078 -0.114113 11.5341)
(-0.0960404 -0.0820115 11.5109)
(-0.238274 -0.0532364 11.4652)
(-0.361168 -0.0280027 11.4039)
(-0.427119 -0.00609656 11.3386)
(-0.428917 0.0134618 11.2602)
(-0.355526 0.029989 11.1904)
(-0.303638 0.045936 11.1226)
(-0.268487 0.0620806 11.0991)
(-0.334403 0.0866208 11.017)
(-0.217677 0.0817521 11.1288)
(0.0230227 0.0929842 10.6467)
(-0.233939 0.220234 10.9586)
(-0.0989334 0.11261 11.3294)
(0.740564 -0.214282 11.1462)
(1.41598 -0.502752 11.3427)
(0.92228 -0.215742 10.4739)
(0.910284 -0.280072 11.8912)
(0.465249 0.0619435 10.6577)
(0.943433 -0.36973 11.272)
(1.25592 -0.698018 11.3548)
(1.36033 -0.615839 11.581)
(1.74401 -0.838672 11.0343)
(1.40153 -0.524311 12.0776)
(0.982384 0.110741 11.0773)
(0.925911 1.06142 11.7101)
(0.948204 1.76509 11.4347)
(1.1111 1.67115 12.4725)
(1.43367 1.63725 12.6794)
(1.95226 2.19723 12.8545)
(2.39788 2.71388 13.3962)
(2.34364 2.61369 13.5546)
(2.46016 2.47392 14.3528)
(2.28327 1.99848 14.4372)
(2.79377 2.25881 15.654)
(3.24289 2.48056 16.5419)
(2.79576 1.78824 16.5903)
(2.46316 1.26405 16.7628)
(3.81408 1.61205 19.0801)
(4.4449 1.85717 19.8072)
(5.08611 2.42117 20.8607)
(5.4445 2.98828 22.2938)
(3.873 3.31545 22.4289)
(4.88803 4.03836 25.8581)
(2.59478 5.35055 26.3642)
(3.31745 8.46126 28.3062)
(2.52659 10.8843 29.4831)
(3.51554 12.5492 33.6762)
(4.01456 13.68 36.373)
(1.9123 15.405 37.7465)
(1.01157 17.6036 43.009)
(-3.10035 18.6857 41.7859)
(-11.3836 21.6895 46.1703)
(-21.2897 23.3013 44.8131)
(-29.5505 25.3564 48.455)
(-33.3165 28.5315 46.916)
(-36.9001 32.3906 51.546)
(-42.3998 36.0785 49.2015)
(-58.413 50.4354 48.506)
(-65.0946 54.7445 52.0753)
(-68.7639 56.0017 52.9578)
(-76.1449 67.1023 49.8988)
(-85.722 73.6827 51.6439)
(-93.1504 77.1676 51.9028)
(-100.088 80.8195 52.5754)
(-107.822 85.1089 50.5336)
(-119.024 91.1282 48.4088)
(-112.562 93.5973 52.4455)
(-105.45 96.9646 47.8381)
(-85.449 92.8945 54.1163)
(-74.2218 101.014 46.6597)
(-49.9351 99.2414 45.7814)
(-19.706 86.4174 50.907)
(11.1907 67.5198 45.4048)
(26.8614 29.8788 52.2344)
(43.4846 9.49462 40.0309)
(29.5595 -52.5215 22.0014)
(19.8902 -71.6441 8.72939)
(26.419 -46.714 -0.376502)
(-15.1411 -6.20658 -55.1376)
(-10.7224 69.8129 -5.42686)
(68.6014 22.4806 8.84845)
(103.89 -78.2882 -20.1109)
(97.2715 -142.516 -17.957)
(79.8367 -153.075 -28.1127)
(54.5475 -144.926 -31.7443)
(49.5313 -114.724 -33.3692)
(49.1226 -88.9947 -32.4123)
(51.1088 -75.0686 -31.0762)
(48.8701 -61.6306 -33.1973)
(47.479 -49.5644 -30.492)
(43.3603 -39.4079 -30.7963)
(41.324 -34.369 -28.4372)
(38.6963 -29.4982 -27.4796)
(36.8435 -25.4703 -25.3495)
(34.7936 -22.7244 -23.7799)
(32.8459 -20.0126 -21.9491)
(30.8777 -17.7549 -20.1225)
(28.9496 -15.7137 -18.416)
(27.0769 -13.8154 -16.6259)
(25.265 -12.1816 -14.9771)
(23.5247 -10.6352 -13.3182)
(21.8572 -9.30162 -11.7579)
(20.2676 -8.06347 -10.2389)
(18.7554 -6.97396 -8.79629)
(17.3177 -5.97047 -7.40912)
(15.947 -5.05703 -6.084)
(14.63 -4.18836 -4.80279)
(13.3422 -3.3228 -3.54882)
(12.0853 -2.40941 -2.27278)
(10.8011 -1.41259 -0.923211)
(9.36174 -0.242511 0.438434)
(8.10979 0.572823 1.47855)
(7.69228 0.236551 2.22682)
(7.17233 0.0218933 2.92878)
(5.53416 0.41 4.14644)
(5.11343 0.268432 4.22306)
(2.69537 0.71958 4.85292)
(0.855437 1.12384 5.10754)
(0.371628 1.1826 5.06986)
(-1.80038 1.92602 5.44091)
)
;
    }
}


// ************************************************************************* //
