/*--------------------------------*- C++ -*----------------------------------*\
| =========                 |                                                 |
| \\      /  F ield         | OpenFOAM: The Open Source CFD Toolbox           |
|  \\    /   O peration     | Version:  5.x                                   |
|   \\  /    A nd           | Web:      www.OpenFOAM.org                      |
|    \\/     M anipulation  |                                                 |
\*---------------------------------------------------------------------------*/
FoamFile
{
    version     2.0;
    format      ascii;
    class       surfaceScalarField;
    location    "5000";
    object      phi;
}
// * * * * * * * * * * * * * * * * * * * * * * * * * * * * * * * * * * * * * //

dimensions      [0 3 -1 0 0 0 0];

internalField   nonuniform List<scalar> 
179
(
-250.022
-250.022
-250.023
-250.023
-250.024
-250.025
-250.027
-250.028
-250.03
-250.033
-250.035
-250.038
-250.041
-250.045
-250.049
-250.054
-250.059
-250.064
-250.07
-250.077
-250.085
-250.093
-250.102
-250.111
-250.122
-250.134
-250.147
-250.161
-250.176
-250.193
-250.211
-250.231
-250.253
-250.276
-250.301
-250.329
-250.358
-250.391
-250.425
-250.463
-250.503
-250.546
-250.592
-250.641
-250.694
-250.75
-250.809
-250.871
-250.937
-251.006
-251.077
-251.151
-251.227
-251.304
-251.382
-251.459
-251.534
-251.607
-251.674
-251.733
-251.782
-251.818
-251.836
-251.831
-251.799
-251.73
-251.612
-251.433
-251.177
-250.829
-250.367
-249.767
-249.001
-248.033
-246.825
-245.332
-243.52
-241.377
-238.97
-236.541
-235.193
-235.2
-248.365
-250.081
-255.235
-260.609
-266.995
-273.172
-272.561
-257.921
-251.268
-233.281
-230.205
-216.857
-209.2
-206.121
-184.332
-182.528
-179.149
-181.887
-189.026
-192.386
-196.34
-199.138
-202.399
-206.942
-211.926
-216.737
-221.104
-224.955
-228.313
-231.228
-233.754
-235.942
-237.837
-239.479
-240.9
-242.13
-243.196
-244.119
-244.919
-245.612
-246.214
-246.738
-247.192
-247.583
-247.92
-248.211
-248.461
-248.677
-248.863
-249.024
-249.162
-249.281
-249.383
-249.47
-249.544
-249.608
-249.663
-249.71
-249.75
-249.785
-249.815
-249.84
-249.863
-249.882
-249.898
-249.913
-249.925
-249.935
-249.944
-249.952
-249.959
-249.965
-249.97
-249.974
-249.978
-249.981
-249.983
-249.986
-249.988
-249.99
-249.991
-249.992
-249.993
-249.994
-249.995
-249.996
-249.997
-249.997
-249.998
-249.998
-249.998
-249.998
-249.999
-249.999
-249.999
-249.999
-249.999
)
;

boundaryField
{
    inlet
    {
        type            calculated;
        value           uniform -249.999;
    }
    outlet
    {
        type            calculated;
        value           uniform 250.021;
    }
    repeat_boundary
    {
        type            calculated;
        value           uniform 0;
    }
    procBoundary1to0
    {
        type            processor;
        value           nonuniform List<scalar> 
180
(
-2.84708e-06
-8.35508e-06
-1.59841e-05
-2.41594e-05
-3.24698e-05
-4.10217e-05
-4.95034e-05
-5.64023e-05
-6.42541e-05
-7.32426e-05
-8.35622e-05
-9.54333e-05
-0.00010911
-0.000124896
-0.000143177
-0.000164424
-0.000189192
-0.000218141
-0.000252041
-0.0002918
-0.000338466
-0.000393261
-0.000457599
-0.000533007
-0.000621296
-0.000724643
-0.000845575
-0.000987019
-0.00115237
-0.00134556
-0.00157116
-0.00183447
-0.00214164
-0.00249979
-0.00291718
-0.00340337
-0.00396945
-0.00462824
-0.0053946
-0.00628574
-0.00732158
-0.00852518
-0.0099232
-0.0115465
-0.0134308
-0.0156174
-0.018154
-0.0210957
-0.0245064
-0.0284596
-0.0330405
-0.0383472
-0.0444933
-0.0516097
-0.0598474
-0.0693809
-0.0804112
-0.0931704
-0.107926
-0.124986
-0.144707
-0.167499
-0.193833
-0.224257
-0.259399
-0.299987
-0.346871
-0.401056
-0.463712
-0.536196
-0.620088
-0.71722
-0.829623
-0.959209
-1.10634
-1.26545
-1.414
-1.50172
-1.42548
-1.02703
0.0189728
-0.0217391
6.42627
0.93203
3.95861
2.46873
6.29093
9.70253
0.115116
-7.92809
-1.68484
-12.7613
-1.67868
-5.47751
-0.854547
-1.09638
-6.04321
-1.60054
-0.303626
1.93691
2.12938
1.85281
3.3071
1.1179
0.699231
1.39183
1.68806
1.6199
1.43241
1.23307
1.05091
0.891534
0.75438
0.637122
0.53713
0.451995
0.37963
0.318247
0.266318
0.22255
0.185856
0.155353
0.130364
0.110464
0.0905126
0.0723739
0.0572821
0.0447683
0.0344332
0.0259368
0.01899
0.0133474
0.0088013
0.00516855
0.000900658
-0.00203409
-0.00409583
-0.00554363
-0.00655249
-0.0072434
-0.00755366
-0.00756584
-0.00751863
-0.00738902
-0.00714023
-0.00685645
-0.00654957
-0.00622756
-0.00589681
-0.00556282
-0.00523037
-0.00490333
-0.00458476
-0.00427698
-0.00398167
-0.00369996
-0.00343265
-0.00318011
-0.0029425
-0.00271981
-0.00251183
-0.00231822
-0.00213854
-0.00197229
-0.00181891
-0.00167783
-0.00154848
-0.00143029
-0.00132272
-0.00122524
-0.00113736
-0.00105862
-0.000988607
-0.000926927
-0.000873224
-0.000827167
-0.000788447
-0.000757416
-0.000732871
-0.000732282
)
;
    }
    procBoundary1to3
    {
        type            processor;
        value           nonuniform List<scalar> 
180
(
0.000299121
0.000399483
0.000567018
0.000768818
0.000989104
0.00122247
0.00146842
0.00172842
0.00200465
0.00229959
0.00261591
0.00295647
0.00332428
0.00372259
0.00415485
0.00462478
0.00513636
0.00569387
0.0063019
0.0069654
0.00768967
0.00848043
0.0093438
0.0102864
0.0113152
0.012438
0.0136628
0.0149985
0.0164542
0.0180398
0.019766
0.021644
0.0236857
0.0259035
0.0283105
0.0309205
0.0337479
0.0368074
0.0401141
0.0436835
0.047531
0.0516725
0.0561237
0.0608998
0.0660153
0.0714842
0.0773184
0.0835279
0.0901197
0.0970974
0.104461
0.112203
0.120313
0.128772
0.137549
0.146606
0.155889
0.165334
0.174864
0.184393
0.19383
0.203051
0.211855
0.220022
0.226822
0.231318
0.228855
0.221506
0.208322
0.187837
0.158292
0.117569
0.0630797
-0.00853267
-0.102268
-0.226805
-0.397999
-0.641823
-0.981123
-1.40192
-1.3672
0.0287201
6.7386
0.783753
1.19542
2.90563
0.0944689
-3.52545
-0.7258
-6.71223
-4.96793
-5.22604
-1.39638
-7.87127
-6.80228
-1.98276
-15.7459
-0.203228
-3.07549
0.801748
5.00965
1.50707
0.646928
1.67979
2.56159
3.15189
3.29513
3.19193
2.93393
2.61845
2.30692
2.02304
1.77168
1.55113
1.3581
1.18926
1.04157
0.912366
0.799326
0.700412
0.613848
0.538086
0.47178
0.413758
0.363011
0.318626
0.27979
0.245798
0.216035
0.189968
0.16713
0.147115
0.129571
0.114189
0.100701
0.088858
0.07845
0.0692958
0.0612387
0.0541427
0.0478892
0.0423752
0.0375115
0.0332196
0.0294305
0.0260842
0.0231277
0.0205147
0.0182044
0.0161612
0.0143533
0.0127533
0.0113366
0.0100819
0.00897026
0.00798514
0.00711188
0.00633761
0.005651
0.00504205
0.00450194
0.00402293
0.00359815
0.00322156
0.00288783
0.00259225
0.00233066
0.0020994
0.00189522
0.00171526
0.00155701
0.00141826
0.00129706
0.00119171
0.00110075
0.0010229
0.000957125
0.00090217
0.000860326
0.000838793
)
;
    }
}


// ************************************************************************* //
