/*--------------------------------*- C++ -*----------------------------------*\
| =========                 |                                                 |
| \\      /  F ield         | OpenFOAM: The Open Source CFD Toolbox           |
|  \\    /   O peration     | Version:  5.x                                   |
|   \\  /    A nd           | Web:      www.OpenFOAM.org                      |
|    \\/     M anipulation  |                                                 |
\*---------------------------------------------------------------------------*/
FoamFile
{
    version     2.0;
    format      ascii;
    class       volVectorField;
    location    "5000";
    object      stored_U;
}
// * * * * * * * * * * * * * * * * * * * * * * * * * * * * * * * * * * * * * //

dimensions      [0 1 -1 0 0 0 0];

internalField   nonuniform List<vector> 
180
(
(2.92352e-11 1.17416e-08 -0.00100009)
(1.04518e-10 1.60224e-08 -0.0010001)
(2.70423e-10 2.28842e-08 -0.0010001)
(4.65359e-10 3.10948e-08 -0.0010001)
(6.74167e-10 4.00378e-08 -0.0010001)
(9.04613e-10 4.95085e-08 -0.00100011)
(1.16949e-09 5.94951e-08 -0.00100011)
(1.47955e-09 7.00626e-08 -0.00100012)
(1.8448e-09 8.1304e-08 -0.00100013)
(2.2755e-09 9.3325e-08 -0.00100014)
(2.78284e-09 1.0624e-07 -0.00100015)
(3.37931e-09 1.20172e-07 -0.00100016)
(4.07901e-09 1.35255e-07 -0.00100017)
(4.89802e-09 1.5163e-07 -0.00100019)
(5.85472e-09 1.69453e-07 -0.0010002)
(6.97028e-09 1.88892e-07 -0.00100022)
(8.26919e-09 2.1013e-07 -0.00100024)
(9.77983e-09 2.33364e-07 -0.00100026)
(1.15352e-08 2.5881e-07 -0.00100029)
(1.35739e-08 2.86703e-07 -0.00100031)
(1.59406e-08 3.17298e-07 -0.00100034)
(1.86877e-08 3.50874e-07 -0.00100038)
(2.1876e-08 3.87732e-07 -0.00100041)
(2.55767e-08 4.28204e-07 -0.00100045)
(2.98724e-08 4.72648e-07 -0.0010005)
(3.48592e-08 5.21455e-07 -0.00100054)
(4.06488e-08 5.7505e-07 -0.0010006)
(4.73706e-08 6.33897e-07 -0.00100065)
(5.51749e-08 6.98498e-07 -0.00100072)
(6.42361e-08 7.69401e-07 -0.00100079)
(7.47559e-08 8.47199e-07 -0.00100086)
(8.69681e-08 9.32536e-07 -0.00100095)
(1.01143e-07 1.02611e-06 -0.00100104)
(1.17594e-07 1.12868e-06 -0.00100114)
(1.36684e-07 1.24106e-06 -0.00100125)
(1.58831e-07 1.36414e-06 -0.00100137)
(1.8452e-07 1.49888e-06 -0.00100149)
(2.14311e-07 1.64629e-06 -0.00100164)
(2.48853e-07 1.8075e-06 -0.00100179)
(2.88894e-07 1.98368e-06 -0.00100196)
(3.35301e-07 2.17611e-06 -0.00100214)
(3.89076e-07 2.38616e-06 -0.00100234)
(4.51377e-07 2.61527e-06 -0.00100255)
(5.23543e-07 2.865e-06 -0.00100278)
(6.07122e-07 3.13699e-06 -0.00100304)
(7.03901e-07 3.43297e-06 -0.00100331)
(8.15947e-07 3.75477e-06 -0.0010036)
(9.45646e-07 4.10432e-06 -0.00100392)
(1.09575e-06 4.48363e-06 -0.00100426)
(1.26945e-06 4.89479e-06 -0.00100462)
(1.47041e-06 5.33996e-06 -0.00100501)
(1.70287e-06 5.82137e-06 -0.00100543)
(1.97173e-06 6.34128e-06 -0.00100588)
(2.28261e-06 6.90198e-06 -0.00100635)
(2.64204e-06 7.50577e-06 -0.00100686)
(3.0575e-06 8.15488e-06 -0.00100739)
(3.53765e-06 8.8515e-06 -0.00100795)
(4.09245e-06 9.5977e-06 -0.00100855)
(4.73337e-06 1.03953e-05 -0.00100917)
(5.47362e-06 1.12461e-05 -0.00100982)
(6.32841e-06 1.21513e-05 -0.00101049)
(7.31518e-06 1.31121e-05 -0.00101119)
(8.45403e-06 1.41288e-05 -0.0010119)
(9.76797e-06 1.52016e-05 -0.00101264)
(1.12834e-05 1.633e-05 -0.00101338)
(1.30307e-05 1.75125e-05 -0.00101413)
(1.5045e-05 1.87461e-05 -0.00101485)
(1.7368e-05 2.00237e-05 -0.00101552)
(2.00483e-05 2.13351e-05 -0.0010161)
(2.31419e-05 2.26665e-05 -0.00101657)
(2.67139e-05 2.4e-05 -0.00101688)
(3.08384e-05 2.53116e-05 -0.00101697)
(3.55977e-05 2.65681e-05 -0.00101673)
(4.10678e-05 2.77174e-05 -0.00101599)
(4.72639e-05 2.8657e-05 -0.00101506)
(5.398e-05 2.91604e-05 -0.00101561)
(6.0294e-05 2.87615e-05 -0.00101803)
(6.42672e-05 2.66914e-05 -0.00100477)
(6.14583e-05 2.20893e-05 -0.000937783)
(4.56938e-05 1.54608e-05 -0.00078753)
(3.15365e-06 -1.84203e-06 -0.0032266)
(1.11401e-06 2.16807e-06 8.23281e-05)
(-0.000224226 0.000325742 -0.00394914)
(-0.000104359 0.000127525 -0.00270137)
(-5.56728e-05 -3.13818e-05 -0.00114735)
(-0.000285279 4.51839e-05 -0.00515297)
(-7.67949e-05 -1.93332e-05 -0.000507063)
(-0.000875301 -0.000410283 -0.00515865)
(-1.87448e-05 -1.07853e-05 -1.76749e-06)
(0.000616696 -0.000860153 -0.00470988)
(2.90398e-05 -7.19515e-05 -0.0001599)
(0.000410722 -0.000472085 -0.00422416)
(0.00010068 -0.000289196 -0.00148986)
(0.000261586 -0.000673619 -0.00479337)
(-3.62256e-06 -8.22375e-05 -0.000636578)
(1.93818e-05 -0.000356153 -0.00292822)
(0.000295015 -0.000636811 -0.00216432)
(-4.20879e-06 3.55671e-05 -0.000111258)
(3.35834e-05 -0.000192679 -0.00355077)
(-2.87023e-05 -6.2787e-06 -0.000646016)
(-0.000156012 5.35132e-05 -0.00246687)
(-8.45197e-05 0.000105764 -0.0012333)
(-0.000144496 4.24627e-05 -0.00123696)
(-8.69914e-05 5.95727e-05 -0.00102685)
(-3.24052e-05 9.09375e-05 -0.000937109)
(-5.24588e-05 0.000123847 -0.000873283)
(-5.96405e-05 0.000134457 -0.000845054)
(-5.59366e-05 0.000129 -0.000858939)
(-4.88132e-05 0.00011682 -0.000880767)
(-4.16178e-05 0.000103257 -0.000898296)
(-3.51909e-05 9.04631e-05 -0.00091228)
(-2.96361e-05 7.90418e-05 -0.000924223)
(-2.48921e-05 6.90274e-05 -0.00093461)
(-2.08613e-05 6.02916e-05 -0.000943596)
(-1.74437e-05 5.26794e-05 -0.000951344)
(-1.45493e-05 4.60462e-05 -0.000958023)
(-1.21006e-05 4.02643e-05 -0.000963783)
(-1.00316e-05 3.52226e-05 -0.000968751)
(-8.28563e-06 3.08246e-05 -0.000973037)
(-6.81461e-06 2.69866e-05 -0.000976735)
(-5.5773e-06 2.3636e-05 -0.000979925)
(-4.53853e-06 2.07099e-05 -0.000982678)
(-3.66826e-06 1.81535e-05 -0.000985054)
(-2.94089e-06 1.59191e-05 -0.000987104)
(-2.33456e-06 1.39656e-05 -0.000988873)
(-1.83065e-06 1.22568e-05 -0.0009904)
(-1.4133e-06 1.07617e-05 -0.000991718)
(-1.06898e-06 9.45297e-06 -0.000992856)
(-7.86197e-07 8.30693e-06 -0.000993837)
(-5.55143e-07 7.30297e-06 -0.000994685)
(-3.67503e-07 6.42313e-06 -0.000995416)
(-2.16216e-07 5.65176e-06 -0.000996046)
(-9.53011e-08 4.97522e-06 -0.000996591)
(2.98472e-10 4.38161e-06 -0.000997061)
(7.48483e-08 3.86058e-06 -0.000997467)
(1.3191e-07 3.4031e-06 -0.000997818)
(1.74533e-07 3.00126e-06 -0.000998121)
(2.05349e-07 2.64814e-06 -0.000998381)
(2.2661e-07 2.33767e-06 -0.000998605)
(2.40228e-07 2.06453e-06 -0.000998797)
(2.47864e-07 1.82405e-06 -0.000998962)
(2.50757e-07 1.61223e-06 -0.000999104)
(2.49835e-07 1.42564e-06 -0.000999228)
(2.45974e-07 1.26121e-06 -0.000999336)
(2.39876e-07 1.11624e-06 -0.000999428)
(2.32077e-07 9.88384e-07 -0.000999508)
(2.23015e-07 8.75585e-07 -0.000999577)
(2.13064e-07 7.76029e-07 -0.000999637)
(2.0254e-07 6.88127e-07 -0.000999688)
(1.917e-07 6.1048e-07 -0.000999732)
(1.80752e-07 5.41865e-07 -0.00099977)
(1.69862e-07 4.81206e-07 -0.000999803)
(1.59159e-07 4.27558e-07 -0.000999831)
(1.48744e-07 3.80093e-07 -0.000999855)
(1.38691e-07 3.38082e-07 -0.000999876)
(1.29056e-07 3.00886e-07 -0.000999894)
(1.19877e-07 2.6794e-07 -0.00099991)
(1.11179e-07 2.3875e-07 -0.000999923)
(1.02976e-07 2.12881e-07 -0.000999934)
(9.52729e-08 1.89949e-07 -0.000999944)
(8.8069e-08 1.69616e-07 -0.000999953)
(8.13572e-08 1.51587e-07 -0.00099996)
(7.51268e-08 1.35598e-07 -0.000999966)
(6.9364e-08 1.21421e-07 -0.000999972)
(6.40526e-08 1.08853e-07 -0.000999976)
(5.91754e-08 9.77149e-08 -0.00099998)
(5.47136e-08 8.78514e-08 -0.000999983)
(5.06485e-08 7.9125e-08 -0.000999986)
(4.6961e-08 7.14155e-08 -0.000999989)
(4.36323e-08 6.46174e-08 -0.000999991)
(4.06441e-08 5.8639e-08 -0.000999992)
(3.7979e-08 5.34001e-08 -0.000999994)
(3.56205e-08 4.88312e-08 -0.000999995)
(3.35529e-08 4.48723e-08 -0.000999996)
(3.17615e-08 4.14722e-08 -0.000999996)
(3.02326e-08 3.85866e-08 -0.000999997)
(2.89535e-08 3.61773e-08 -0.000999997)
(2.79342e-08 3.42029e-08 -0.000999997)
(2.71301e-08 3.27537e-08 -0.000999998)
(2.68101e-08 3.18071e-08 -0.000999998)
)
;

boundaryField
{
    inlet
    {
        type            calculated;
        value           uniform (2.68101e-08 3.18071e-08 -0.000999998);
    }
    outlet
    {
        type            calculated;
        value           uniform (2.92352e-11 1.17416e-08 -0.00100009);
    }
    repeat_boundary
    {
        type            calculated;
        value           nonuniform List<vector> 
360
(
(2.92352e-11 0 -0.00100009)
(1.04518e-10 0 -0.0010001)
(2.70423e-10 0 -0.0010001)
(4.65359e-10 0 -0.0010001)
(6.74167e-10 0 -0.0010001)
(9.04613e-10 0 -0.00100011)
(1.16949e-09 0 -0.00100011)
(1.47955e-09 0 -0.00100012)
(1.8448e-09 0 -0.00100013)
(2.2755e-09 0 -0.00100014)
(2.78284e-09 0 -0.00100015)
(3.37931e-09 0 -0.00100016)
(4.07901e-09 0 -0.00100017)
(4.89802e-09 0 -0.00100019)
(5.85472e-09 0 -0.0010002)
(6.97028e-09 0 -0.00100022)
(8.26919e-09 0 -0.00100024)
(9.77983e-09 0 -0.00100026)
(1.15352e-08 0 -0.00100029)
(1.35739e-08 0 -0.00100031)
(1.59406e-08 0 -0.00100034)
(1.86877e-08 0 -0.00100038)
(2.1876e-08 0 -0.00100041)
(2.55767e-08 0 -0.00100045)
(2.98724e-08 0 -0.0010005)
(3.48592e-08 0 -0.00100054)
(4.06488e-08 0 -0.0010006)
(4.73706e-08 0 -0.00100065)
(5.51749e-08 0 -0.00100072)
(6.42361e-08 0 -0.00100079)
(7.47559e-08 0 -0.00100086)
(8.69681e-08 0 -0.00100095)
(1.01143e-07 0 -0.00100104)
(1.17594e-07 0 -0.00100114)
(1.36684e-07 0 -0.00100125)
(1.58831e-07 0 -0.00100137)
(1.8452e-07 0 -0.00100149)
(2.14311e-07 0 -0.00100164)
(2.48853e-07 0 -0.00100179)
(2.88894e-07 0 -0.00100196)
(3.35301e-07 0 -0.00100214)
(3.89076e-07 0 -0.00100234)
(4.51377e-07 0 -0.00100255)
(5.23543e-07 0 -0.00100278)
(6.07122e-07 0 -0.00100304)
(7.03901e-07 0 -0.00100331)
(8.15947e-07 0 -0.0010036)
(9.45646e-07 0 -0.00100392)
(1.09575e-06 0 -0.00100426)
(1.26945e-06 0 -0.00100462)
(1.47041e-06 0 -0.00100501)
(1.70287e-06 0 -0.00100543)
(1.97173e-06 0 -0.00100588)
(2.28261e-06 0 -0.00100635)
(2.64204e-06 0 -0.00100686)
(3.0575e-06 0 -0.00100739)
(3.53765e-06 0 -0.00100795)
(4.09245e-06 0 -0.00100855)
(4.73337e-06 0 -0.00100917)
(5.47362e-06 0 -0.00100982)
(6.32841e-06 0 -0.00101049)
(7.31518e-06 0 -0.00101119)
(8.45403e-06 0 -0.0010119)
(9.76797e-06 0 -0.00101264)
(1.12834e-05 0 -0.00101338)
(1.30307e-05 0 -0.00101413)
(1.5045e-05 0 -0.00101485)
(1.7368e-05 0 -0.00101552)
(2.00483e-05 0 -0.0010161)
(2.31419e-05 0 -0.00101657)
(2.67139e-05 0 -0.00101688)
(3.08384e-05 0 -0.00101697)
(3.55977e-05 0 -0.00101673)
(4.10678e-05 0 -0.00101599)
(4.72639e-05 0 -0.00101506)
(5.398e-05 0 -0.00101561)
(6.0294e-05 0 -0.00101803)
(6.42672e-05 0 -0.00100477)
(6.14583e-05 0 -0.000937783)
(4.56938e-05 0 -0.00078753)
(3.15365e-06 0 -0.0032266)
(1.11401e-06 0 8.23281e-05)
(-0.000224226 0 -0.00394914)
(-0.000104359 0 -0.00270137)
(-5.56728e-05 0 -0.00114735)
(-0.000285279 0 -0.00515297)
(-7.67949e-05 0 -0.000507063)
(-0.000875301 0 -0.00515865)
(-1.87448e-05 0 -1.76749e-06)
(0.000616696 0 -0.00470988)
(2.90398e-05 0 -0.0001599)
(0.000410722 0 -0.00422416)
(0.00010068 0 -0.00148986)
(0.000261586 0 -0.00479337)
(-3.62256e-06 0 -0.000636578)
(1.93818e-05 0 -0.00292822)
(0.000295015 0 -0.00216432)
(-4.20879e-06 0 -0.000111258)
(3.35834e-05 0 -0.00355077)
(-2.87023e-05 0 -0.000646016)
(-0.000156012 0 -0.00246687)
(-8.45197e-05 0 -0.0012333)
(-0.000144496 0 -0.00123696)
(-8.69914e-05 0 -0.00102685)
(-3.24052e-05 0 -0.000937109)
(-5.24588e-05 0 -0.000873283)
(-5.96405e-05 0 -0.000845054)
(-5.59366e-05 0 -0.000858939)
(-4.88132e-05 0 -0.000880767)
(-4.16178e-05 0 -0.000898296)
(-3.51909e-05 0 -0.00091228)
(-2.96361e-05 0 -0.000924223)
(-2.48921e-05 0 -0.00093461)
(-2.08613e-05 0 -0.000943596)
(-1.74437e-05 0 -0.000951344)
(-1.45493e-05 0 -0.000958023)
(-1.21006e-05 0 -0.000963783)
(-1.00316e-05 0 -0.000968751)
(-8.28563e-06 0 -0.000973037)
(-6.81461e-06 0 -0.000976735)
(-5.5773e-06 0 -0.000979925)
(-4.53853e-06 0 -0.000982678)
(-3.66826e-06 0 -0.000985054)
(-2.94089e-06 0 -0.000987104)
(-2.33456e-06 0 -0.000988873)
(-1.83065e-06 0 -0.0009904)
(-1.4133e-06 0 -0.000991718)
(-1.06898e-06 0 -0.000992856)
(-7.86197e-07 0 -0.000993837)
(-5.55143e-07 0 -0.000994685)
(-3.67503e-07 0 -0.000995416)
(-2.16216e-07 0 -0.000996046)
(-9.53011e-08 0 -0.000996591)
(2.98472e-10 0 -0.000997061)
(7.48483e-08 0 -0.000997467)
(1.3191e-07 0 -0.000997818)
(1.74533e-07 0 -0.000998121)
(2.05349e-07 0 -0.000998381)
(2.2661e-07 0 -0.000998605)
(2.40228e-07 0 -0.000998797)
(2.47864e-07 0 -0.000998962)
(2.50757e-07 0 -0.000999104)
(2.49835e-07 0 -0.000999228)
(2.45974e-07 0 -0.000999336)
(2.39876e-07 0 -0.000999428)
(2.32077e-07 0 -0.000999508)
(2.23015e-07 0 -0.000999577)
(2.13064e-07 0 -0.000999637)
(2.0254e-07 0 -0.000999688)
(1.917e-07 0 -0.000999732)
(1.80752e-07 0 -0.00099977)
(1.69862e-07 0 -0.000999803)
(1.59159e-07 0 -0.000999831)
(1.48744e-07 0 -0.000999855)
(1.38691e-07 0 -0.000999876)
(1.29056e-07 0 -0.000999894)
(1.19877e-07 0 -0.00099991)
(1.11179e-07 0 -0.000999923)
(1.02976e-07 0 -0.000999934)
(9.52729e-08 0 -0.000999944)
(8.8069e-08 0 -0.000999953)
(8.13572e-08 0 -0.00099996)
(7.51268e-08 0 -0.000999966)
(6.9364e-08 0 -0.000999972)
(6.40526e-08 0 -0.000999976)
(5.91754e-08 0 -0.00099998)
(5.47136e-08 0 -0.000999983)
(5.06485e-08 0 -0.000999986)
(4.6961e-08 0 -0.000999989)
(4.36323e-08 0 -0.000999991)
(4.06441e-08 0 -0.000999992)
(3.7979e-08 0 -0.000999994)
(3.56205e-08 0 -0.000999995)
(3.35529e-08 0 -0.000999996)
(3.17615e-08 0 -0.000999996)
(3.02326e-08 0 -0.000999997)
(2.89535e-08 0 -0.000999997)
(2.79342e-08 0 -0.000999997)
(2.71301e-08 0 -0.000999998)
(2.68101e-08 0 -0.000999998)
(0 1.17416e-08 -0.00100009)
(0 1.60224e-08 -0.0010001)
(0 2.28842e-08 -0.0010001)
(0 3.10948e-08 -0.0010001)
(0 4.00378e-08 -0.0010001)
(0 4.95085e-08 -0.00100011)
(0 5.94951e-08 -0.00100011)
(0 7.00626e-08 -0.00100012)
(0 8.1304e-08 -0.00100013)
(0 9.3325e-08 -0.00100014)
(0 1.0624e-07 -0.00100015)
(0 1.20172e-07 -0.00100016)
(0 1.35255e-07 -0.00100017)
(0 1.5163e-07 -0.00100019)
(0 1.69453e-07 -0.0010002)
(0 1.88892e-07 -0.00100022)
(0 2.1013e-07 -0.00100024)
(0 2.33364e-07 -0.00100026)
(0 2.5881e-07 -0.00100029)
(0 2.86703e-07 -0.00100031)
(0 3.17298e-07 -0.00100034)
(0 3.50874e-07 -0.00100038)
(0 3.87732e-07 -0.00100041)
(0 4.28204e-07 -0.00100045)
(0 4.72648e-07 -0.0010005)
(0 5.21455e-07 -0.00100054)
(0 5.7505e-07 -0.0010006)
(0 6.33897e-07 -0.00100065)
(0 6.98498e-07 -0.00100072)
(0 7.69401e-07 -0.00100079)
(0 8.47199e-07 -0.00100086)
(0 9.32536e-07 -0.00100095)
(0 1.02611e-06 -0.00100104)
(0 1.12868e-06 -0.00100114)
(0 1.24106e-06 -0.00100125)
(0 1.36414e-06 -0.00100137)
(0 1.49888e-06 -0.00100149)
(0 1.64629e-06 -0.00100164)
(0 1.8075e-06 -0.00100179)
(0 1.98368e-06 -0.00100196)
(0 2.17611e-06 -0.00100214)
(0 2.38616e-06 -0.00100234)
(0 2.61527e-06 -0.00100255)
(0 2.865e-06 -0.00100278)
(0 3.13699e-06 -0.00100304)
(0 3.43297e-06 -0.00100331)
(0 3.75477e-06 -0.0010036)
(0 4.10432e-06 -0.00100392)
(0 4.48363e-06 -0.00100426)
(0 4.89479e-06 -0.00100462)
(0 5.33996e-06 -0.00100501)
(0 5.82137e-06 -0.00100543)
(0 6.34128e-06 -0.00100588)
(0 6.90198e-06 -0.00100635)
(0 7.50577e-06 -0.00100686)
(0 8.15488e-06 -0.00100739)
(0 8.8515e-06 -0.00100795)
(0 9.5977e-06 -0.00100855)
(0 1.03953e-05 -0.00100917)
(0 1.12461e-05 -0.00100982)
(0 1.21513e-05 -0.00101049)
(0 1.31121e-05 -0.00101119)
(0 1.41288e-05 -0.0010119)
(0 1.52016e-05 -0.00101264)
(0 1.633e-05 -0.00101338)
(0 1.75125e-05 -0.00101413)
(0 1.87461e-05 -0.00101485)
(0 2.00237e-05 -0.00101552)
(0 2.13351e-05 -0.0010161)
(0 2.26665e-05 -0.00101657)
(0 2.4e-05 -0.00101688)
(0 2.53116e-05 -0.00101697)
(0 2.65681e-05 -0.00101673)
(0 2.77174e-05 -0.00101599)
(0 2.8657e-05 -0.00101506)
(0 2.91604e-05 -0.00101561)
(0 2.87615e-05 -0.00101803)
(0 2.66914e-05 -0.00100477)
(0 2.20893e-05 -0.000937783)
(0 1.54608e-05 -0.00078753)
(0 -1.84203e-06 -0.0032266)
(0 2.16807e-06 8.23281e-05)
(0 0.000325742 -0.00394914)
(0 0.000127525 -0.00270137)
(0 -3.13818e-05 -0.00114735)
(0 4.51839e-05 -0.00515297)
(0 -1.93332e-05 -0.000507063)
(0 -0.000410283 -0.00515865)
(0 -1.07853e-05 -1.76749e-06)
(0 -0.000860153 -0.00470988)
(0 -7.19515e-05 -0.0001599)
(0 -0.000472085 -0.00422416)
(0 -0.000289196 -0.00148986)
(0 -0.000673619 -0.00479337)
(0 -8.22375e-05 -0.000636578)
(0 -0.000356153 -0.00292822)
(0 -0.000636811 -0.00216432)
(0 3.55671e-05 -0.000111258)
(0 -0.000192679 -0.00355077)
(0 -6.2787e-06 -0.000646016)
(0 5.35132e-05 -0.00246687)
(0 0.000105764 -0.0012333)
(0 4.24627e-05 -0.00123696)
(0 5.95727e-05 -0.00102685)
(0 9.09375e-05 -0.000937109)
(0 0.000123847 -0.000873283)
(0 0.000134457 -0.000845054)
(0 0.000129 -0.000858939)
(0 0.00011682 -0.000880767)
(0 0.000103257 -0.000898296)
(0 9.04631e-05 -0.00091228)
(0 7.90418e-05 -0.000924223)
(0 6.90274e-05 -0.00093461)
(0 6.02916e-05 -0.000943596)
(0 5.26794e-05 -0.000951344)
(0 4.60462e-05 -0.000958023)
(0 4.02643e-05 -0.000963783)
(0 3.52226e-05 -0.000968751)
(0 3.08246e-05 -0.000973037)
(0 2.69866e-05 -0.000976735)
(0 2.3636e-05 -0.000979925)
(0 2.07099e-05 -0.000982678)
(0 1.81535e-05 -0.000985054)
(0 1.59191e-05 -0.000987104)
(0 1.39656e-05 -0.000988873)
(0 1.22568e-05 -0.0009904)
(0 1.07617e-05 -0.000991718)
(0 9.45297e-06 -0.000992856)
(0 8.30693e-06 -0.000993837)
(0 7.30297e-06 -0.000994685)
(0 6.42313e-06 -0.000995416)
(0 5.65176e-06 -0.000996046)
(0 4.97522e-06 -0.000996591)
(0 4.38161e-06 -0.000997061)
(0 3.86058e-06 -0.000997467)
(0 3.4031e-06 -0.000997818)
(0 3.00126e-06 -0.000998121)
(0 2.64814e-06 -0.000998381)
(0 2.33767e-06 -0.000998605)
(0 2.06453e-06 -0.000998797)
(0 1.82405e-06 -0.000998962)
(0 1.61223e-06 -0.000999104)
(0 1.42564e-06 -0.000999228)
(0 1.26121e-06 -0.000999336)
(0 1.11624e-06 -0.000999428)
(0 9.88384e-07 -0.000999508)
(0 8.75585e-07 -0.000999577)
(0 7.76029e-07 -0.000999637)
(0 6.88127e-07 -0.000999688)
(0 6.1048e-07 -0.000999732)
(0 5.41865e-07 -0.00099977)
(0 4.81206e-07 -0.000999803)
(0 4.27558e-07 -0.000999831)
(0 3.80093e-07 -0.000999855)
(0 3.38082e-07 -0.000999876)
(0 3.00886e-07 -0.000999894)
(0 2.6794e-07 -0.00099991)
(0 2.3875e-07 -0.000999923)
(0 2.12881e-07 -0.000999934)
(0 1.89949e-07 -0.000999944)
(0 1.69616e-07 -0.000999953)
(0 1.51587e-07 -0.00099996)
(0 1.35598e-07 -0.000999966)
(0 1.21421e-07 -0.000999972)
(0 1.08853e-07 -0.000999976)
(0 9.77149e-08 -0.00099998)
(0 8.78514e-08 -0.000999983)
(0 7.9125e-08 -0.000999986)
(0 7.14155e-08 -0.000999989)
(0 6.46174e-08 -0.000999991)
(0 5.8639e-08 -0.000999992)
(0 5.34001e-08 -0.000999994)
(0 4.88312e-08 -0.000999995)
(0 4.48723e-08 -0.000999996)
(0 4.14722e-08 -0.000999996)
(0 3.85866e-08 -0.000999997)
(0 3.61773e-08 -0.000999997)
(0 3.42029e-08 -0.000999997)
(0 3.27537e-08 -0.000999998)
(0 3.18071e-08 -0.000999998)
)
;
    }
    procBoundary1to0
    {
        type            processor;
        value           nonuniform List<vector> 
180
(
(2.92355e-11 1.24431e-08 -0.0010001)
(1.04518e-10 1.69446e-08 -0.0010001)
(2.70424e-10 2.42421e-08 -0.0010001)
(4.65359e-10 3.30143e-08 -0.0010001)
(6.74167e-10 4.26069e-08 -0.00100011)
(9.04613e-10 5.28106e-08 -0.00100011)
(1.16949e-09 6.36276e-08 -0.00100012)
(1.47955e-09 7.51417e-08 -0.00100013)
(1.8448e-09 8.74679e-08 -0.00100014)
(2.2755e-09 1.00737e-07 -0.00100015)
(2.78284e-09 1.1509e-07 -0.00100016)
(3.37931e-09 1.30682e-07 -0.00100017)
(4.07902e-09 1.47679e-07 -0.00100019)
(4.89803e-09 1.66266e-07 -0.0010002)
(5.85473e-09 1.86641e-07 -0.00100022)
(6.97029e-09 2.09024e-07 -0.00100024)
(8.26919e-09 2.33657e-07 -0.00100027)
(9.77984e-09 2.60806e-07 -0.00100029)
(1.15353e-08 2.90765e-07 -0.00100032)
(1.35739e-08 3.23862e-07 -0.00100036)
(1.59406e-08 3.60456e-07 -0.00100039)
(1.86877e-08 4.0095e-07 -0.00100044)
(2.18761e-08 4.45787e-07 -0.00100048)
(2.55768e-08 4.95463e-07 -0.00100053)
(2.98725e-08 5.50528e-07 -0.00100059)
(3.48593e-08 6.11593e-07 -0.00100065)
(4.06488e-08 6.79341e-07 -0.00100072)
(4.73707e-08 7.54531e-07 -0.0010008)
(5.51751e-08 8.38008e-07 -0.00100089)
(6.42363e-08 9.30715e-07 -0.00100099)
(7.47561e-08 1.0337e-06 -0.00100109)
(8.69684e-08 1.14814e-06 -0.00100121)
(1.01144e-07 1.27535e-06 -0.00100135)
(1.17595e-07 1.41677e-06 -0.0010015)
(1.36685e-07 1.57405e-06 -0.00100166)
(1.58832e-07 1.749e-06 -0.00100185)
(1.84521e-07 1.94367e-06 -0.00100206)
(2.14312e-07 2.16033e-06 -0.00100229)
(2.48855e-07 2.40153e-06 -0.00100255)
(2.88896e-07 2.67013e-06 -0.00100283)
(3.35304e-07 2.9693e-06 -0.00100316)
(3.89081e-07 3.30264e-06 -0.00100352)
(4.51383e-07 3.67416e-06 -0.00100392)
(5.23552e-07 4.08835e-06 -0.00100437)
(6.07133e-07 4.55026e-06 -0.00100487)
(7.03916e-07 5.06555e-06 -0.00100543)
(8.15967e-07 5.64058e-06 -0.00100606)
(9.45672e-07 6.28251e-06 -0.00100676)
(1.09579e-06 6.99938e-06 -0.00100755)
(1.2695e-06 7.80022e-06 -0.00100843)
(1.47047e-06 8.69521e-06 -0.00100942)
(1.70296e-06 9.69581e-06 -0.00101053)
(1.97184e-06 1.08149e-05 -0.00101178)
(2.28276e-06 1.20671e-05 -0.00101317)
(2.64224e-06 1.34688e-05 -0.00101474)
(3.05778e-06 1.50386e-05 -0.00101651)
(3.53802e-06 1.67972e-05 -0.00101849)
(4.09295e-06 1.87685e-05 -0.00102072)
(4.73404e-06 2.09791e-05 -0.00102324)
(5.47452e-06 2.34593e-05 -0.00102607)
(6.3296e-06 2.62433e-05 -0.00102926)
(7.31679e-06 2.93699e-05 -0.00103285)
(8.45618e-06 3.2883e-05 -0.00103691)
(9.77086e-06 3.68324e-05 -0.00104148)
(1.12873e-05 4.12748e-05 -0.00104665)
(1.30359e-05 4.62743e-05 -0.0010525)
(1.5052e-05 5.1904e-05 -0.0010591)
(1.73774e-05 5.82466e-05 -0.00106657)
(2.00608e-05 6.53966e-05 -0.00107503)
(2.31587e-05 7.34614e-05 -0.00108461)
(2.67364e-05 8.25628e-05 -0.00109548)
(3.08694e-05 9.28369e-05 -0.00110781)
(3.56424e-05 0.000104426 -0.00112174)
(4.11392e-05 0.000117434 -0.00113739)
(4.73949e-05 0.000131777 -0.00115535)
(5.42425e-05 0.000146745 -0.00117793)
(6.09204e-05 0.000159987 -0.00120735)
(6.52205e-05 0.000165681 -0.00122495)
(6.29022e-05 0.000153371 -0.00118116)
(4.71434e-05 0.000110765 -0.000969734)
(4.2564e-06 2.52748e-05 -0.00375939)
(-7.05355e-06 8.30494e-06 1.74254e-05)
(-0.000384272 0.000127315 -0.00441056)
(-5.85786e-05 7.48579e-06 -0.000521669)
(-0.000448546 -0.00023061 -0.00457249)
(-8.6659e-05 -3.68366e-05 -0.000334226)
(-0.000690713 -0.000464488 -0.00487058)
(-0.000328622 -0.000242334 -0.00450108)
(-1.26485e-05 -4.17222e-05 -0.00108)
(0.000188185 0.000313326 -0.00499754)
(0.00018679 -5.26602e-06 -0.0014105)
(0.000642903 -0.00050361 -0.00436482)
(3.18516e-05 -7.54808e-05 -4.69248e-05)
(0.000419108 -0.000259128 -0.00510868)
(4.05076e-05 -0.000236764 -0.00268118)
(1.12793e-05 -0.000121039 -0.002356)
(0.00019882 -0.000115564 -0.00358448)
(0.000155544 -0.000127478 -0.00252515)
(4.23275e-05 -2.71133e-05 -0.00232379)
(-0.000183577 -7.01768e-05 -0.00373344)
(-7.75168e-05 -0.000119972 -0.00170277)
(-8.34797e-05 -0.000117052 -0.00333546)
(-0.000109964 -0.000148841 -0.00265467)
(-1.46756e-05 -4.47703e-05 -0.00106883)
(8.96875e-06 -7.94985e-06 -0.00179012)
(-3.19062e-05 -4.76566e-05 -0.00101801)
(-5.15122e-05 -6.46595e-05 -0.00103658)
(-5.33294e-05 -6.52887e-05 -0.00105921)
(-4.80282e-05 -5.93432e-05 -0.00105627)
(-4.13349e-05 -5.18211e-05 -0.00104552)
(-3.50447e-05 -4.45144e-05 -0.00103664)
(-2.95392e-05 -3.79632e-05 -0.00102993)
(-2.48224e-05 -3.22675e-05 -0.00102447)
(-2.08104e-05 -2.73754e-05 -0.00101986)
(-1.74064e-05 -2.3192e-05 -0.001016)
(-1.4522e-05 -1.96204e-05 -0.00101278)
(-1.20807e-05 -1.65738e-05 -0.0010101)
(-1.0017e-05 -1.39773e-05 -0.00100788)
(-8.27505e-06 -1.17661e-05 -0.00100605)
(-6.80692e-06 -9.8847e-06 -0.00100454)
(-5.57172e-06 -8.28553e-06 -0.0010033)
(-4.53448e-06 -6.92769e-06 -0.00100229)
(-3.66533e-06 -5.77609e-06 -0.00100148)
(-2.93877e-06 -4.80067e-06 -0.00100082)
(-2.33304e-06 -3.97563e-06 -0.0010003)
(-1.82956e-06 -3.27887e-06 -0.000999886)
(-1.41252e-06 -2.69145e-06 -0.000999566)
(-1.06842e-06 -2.19716e-06 -0.000999322)
(-7.85799e-07 -1.7821e-06 -0.00099914)
(-5.54861e-07 -1.43438e-06 -0.00099901)
(-3.67304e-07 -1.14384e-06 -0.000998921)
(-2.16076e-07 -9.01764e-07 -0.000998866)
(-9.52029e-08 -7.00751e-07 -0.000998838)
(3.66957e-10 -5.34465e-07 -0.000998831)
(7.48959e-08 -3.97513e-07 -0.00099884)
(1.31943e-07 -2.85321e-07 -0.000998862)
(1.74556e-07 -1.93972e-07 -0.000998894)
(2.05364e-07 -1.20098e-07 -0.000998934)
(2.26621e-07 -6.08209e-08 -0.00099898)
(2.40235e-07 -1.36973e-08 -0.000999031)
(2.47869e-07 2.34098e-08 -0.000999084)
(2.5076e-07 5.22557e-08 -0.000999138)
(2.49837e-07 7.42799e-08 -0.000999192)
(2.45975e-07 9.07662e-08 -0.000999245)
(2.39877e-07 1.02715e-07 -0.000999296)
(2.32078e-07 1.10929e-07 -0.000999345)
(2.23015e-07 1.16068e-07 -0.000999391)
(2.13065e-07 1.18705e-07 -0.000999435)
(2.0254e-07 1.19334e-07 -0.000999476)
(1.917e-07 1.1837e-07 -0.000999516)
(1.80752e-07 1.16164e-07 -0.000999553)
(1.69862e-07 1.13006e-07 -0.000999587)
(1.59159e-07 1.0914e-07 -0.00099962)
(1.48744e-07 1.04764e-07 -0.00099965)
(1.38691e-07 1.00043e-07 -0.000999679)
(1.29056e-07 9.51126e-08 -0.000999705)
(1.19877e-07 9.00811e-08 -0.00099973)
(1.11179e-07 8.50368e-08 -0.000999753)
(1.02976e-07 8.00499e-08 -0.000999774)
(9.5273e-08 7.51759e-08 -0.000999794)
(8.8069e-08 7.04576e-08 -0.000999813)
(8.13573e-08 6.59279e-08 -0.00099983)
(7.51268e-08 6.1611e-08 -0.000999845)
(6.9364e-08 5.75241e-08 -0.00099986)
(6.40527e-08 5.36786e-08 -0.000999873)
(5.91754e-08 5.00811e-08 -0.000999886)
(5.47136e-08 4.67345e-08 -0.000999897)
(5.06485e-08 4.36384e-08 -0.000999908)
(4.6961e-08 4.07902e-08 -0.000999918)
(4.36323e-08 3.81853e-08 -0.000999927)
(4.06441e-08 3.58179e-08 -0.000999935)
(3.79791e-08 3.36811e-08 -0.000999943)
(3.56205e-08 3.17674e-08 -0.00099995)
(3.35529e-08 3.00688e-08 -0.000999957)
(3.17615e-08 2.8577e-08 -0.000999963)
(3.02326e-08 2.72828e-08 -0.000999969)
(2.89535e-08 2.61769e-08 -0.000999974)
(2.79342e-08 2.52732e-08 -0.000999979)
(2.71301e-08 2.45391e-08 -0.000999985)
(2.68101e-08 2.42676e-08 -0.000999989)
)
;
    }
    procBoundary1to3
    {
        type            processor;
        value           nonuniform List<vector> 
180
(
(-6.72246e-10 1.17416e-08 -0.000999923)
(-8.17765e-10 1.60223e-08 -0.000999921)
(-1.08741e-09 2.28842e-08 -0.00099992)
(-1.45409e-09 3.10947e-08 -0.000999917)
(-1.8949e-09 4.00377e-08 -0.000999914)
(-2.39752e-09 4.95084e-08 -0.00099991)
(-2.96305e-09 5.9495e-08 -0.000999905)
(-3.59955e-09 7.00624e-08 -0.000999898)
(-4.31909e-09 8.13038e-08 -0.000999891)
(-5.1361e-09 9.33248e-08 -0.000999883)
(-6.06692e-09 1.0624e-07 -0.000999874)
(-7.12991e-09 1.20172e-07 -0.000999863)
(-8.34575e-09 1.35254e-07 -0.000999851)
(-9.73787e-09 1.51629e-07 -0.000999837)
(-1.13329e-08 1.69453e-07 -0.000999822)
(-1.31611e-08 1.88892e-07 -0.000999805)
(-1.52574e-08 2.10129e-07 -0.000999787)
(-1.76617e-08 2.33363e-07 -0.000999766)
(-2.04198e-08 2.58809e-07 -0.000999743)
(-2.35846e-08 2.86702e-07 -0.000999717)
(-2.72172e-08 3.17297e-07 -0.000999689)
(-3.13879e-08 3.50872e-07 -0.000999658)
(-3.61781e-08 3.8773e-07 -0.000999624)
(-4.16814e-08 4.28201e-07 -0.000999586)
(-4.80064e-08 4.72645e-07 -0.000999544)
(-5.52782e-08 5.21451e-07 -0.000999499)
(-6.36411e-08 5.75046e-07 -0.000999449)
(-7.32618e-08 6.33892e-07 -0.000999395)
(-8.43325e-08 6.98492e-07 -0.000999335)
(-9.70747e-08 7.69393e-07 -0.000999269)
(-1.11744e-07 8.47189e-07 -0.000999198)
(-1.28634e-07 9.32524e-07 -0.00099912)
(-1.48086e-07 1.0261e-06 -0.000999035)
(-1.70488e-07 1.12866e-06 -0.000998942)
(-1.96292e-07 1.24104e-06 -0.000998841)
(-2.26017e-07 1.36412e-06 -0.000998732)
(-2.6026e-07 1.49885e-06 -0.000998612)
(-2.99709e-07 1.64625e-06 -0.000998483)
(-3.45157e-07 1.80745e-06 -0.000998342)
(-3.97518e-07 1.98362e-06 -0.00099819)
(-4.57845e-07 2.17604e-06 -0.000998026)
(-5.27352e-07 2.38608e-06 -0.000997848)
(-6.07435e-07 2.61518e-06 -0.000997656)
(-6.99706e-07 2.86489e-06 -0.000997449)
(-8.06021e-07 3.13685e-06 -0.000997227)
(-9.28518e-07 3.4328e-06 -0.000996988)
(-1.06966e-06 3.75457e-06 -0.000996733)
(-1.23229e-06 4.10408e-06 -0.000996459)
(-1.41967e-06 4.48334e-06 -0.000996167)
(-1.63556e-06 4.89444e-06 -0.000995857)
(-1.8843e-06 5.33954e-06 -0.000995527)
(-2.17089e-06 5.82087e-06 -0.000995178)
(-2.50106e-06 6.34068e-06 -0.000994811)
(-2.88143e-06 6.90127e-06 -0.000994425)
(-3.31962e-06 7.50491e-06 -0.000994022)
(-3.82437e-06 8.15386e-06 -0.000993603)
(-4.40578e-06 8.85029e-06 -0.000993169)
(-5.07544e-06 9.59625e-06 -0.000992724)
(-5.84668e-06 1.03936e-05 -0.000992271)
(-6.73483e-06 1.12441e-05 -0.000991813)
(-7.75751e-06 1.21489e-05 -0.000991356)
(-8.93497e-06 1.31091e-05 -0.000990906)
(-1.02904e-05 1.41253e-05 -0.00099047)
(-1.18505e-05 1.51974e-05 -0.000990055)
(-1.36458e-05 1.6325e-05 -0.000989672)
(-1.57113e-05 1.75064e-05 -0.000989338)
(-1.80877e-05 1.87387e-05 -0.000989084)
(-2.08231e-05 2.00147e-05 -0.000988951)
(-2.3973e-05 2.13241e-05 -0.000988978)
(-2.76019e-05 2.26531e-05 -0.000989211)
(-3.17843e-05 2.39834e-05 -0.000989708)
(-3.66048e-05 2.52911e-05 -0.000990527)
(-4.21537e-05 2.65439e-05 -0.000991695)
(-4.85062e-05 2.76925e-05 -0.000993264)
(-5.56488e-05 2.86437e-05 -0.000995829)
(-6.32719e-05 2.91921e-05 -0.00100124)
(-7.01249e-05 2.8912e-05 -0.00100887)
(-7.37068e-05 2.70447e-05 -0.000999793)
(-6.84812e-05 2.26327e-05 -0.000937015)
(-4.84847e-05 1.5856e-05 -0.000909946)
(-1.81829e-05 -3.28981e-06 -0.00283528)
(3.84306e-05 -2.75257e-06 -5.21471e-05)
(5.10485e-05 0.000510699 -0.00373784)
(2.93259e-05 1.71854e-05 -0.000186626)
(-0.000101953 -6.41027e-05 -0.00397902)
(-2.55364e-06 4.4541e-05 -0.00416557)
(2.62255e-05 1.4935e-05 -0.00046122)
(-0.000346104 -0.000224367 -0.00385045)
(-0.000419397 -0.000166098 -0.00390855)
(-3.2525e-05 -7.46223e-05 -0.000256607)
(-0.000256967 -0.000690858 -0.00311853)
(0.000194746 -0.000335949 -0.00404885)
(-6.67924e-07 -6.55798e-05 -0.000427199)
(-0.0002489 -0.000758164 -0.00486793)
(-0.000180585 -0.000872986 -0.00365594)
(-1.86349e-05 -4.51575e-05 -0.000194309)
(-0.00026633 -0.00103281 -0.00541669)
(1.50179e-05 -3.71004e-05 -0.000155655)
(-0.000400884 -0.000457288 -0.00524506)
(-0.000111024 -6.08064e-05 -0.00144213)
(0.00027142 0.000289815 -0.00372594)
(3.16707e-05 4.31161e-05 -0.00034484)
(9.21137e-05 7.59697e-05 -0.00290243)
(0.000124933 0.000147718 -0.00153211)
(0.000150211 0.000150981 -0.00149834)
(0.000164323 0.000132699 -0.00136843)
(0.000160845 0.000127993 -0.00128101)
(0.00014706 0.000123751 -0.00124001)
(0.00013036 0.000114399 -0.00121285)
(0.000114311 0.000102291 -0.00118737)
(9.99457e-05 9.00444e-05 -0.00116386)
(8.73459e-05 7.88149e-05 -0.00114321)