/*--------------------------------*- C++ -*----------------------------------*\
| =========                 |                                                 |
| \\      /  F ield         | OpenFOAM: The Open Source CFD Toolbox           |
|  \\    /   O peration     | Version:  5.x                                   |
|   \\  /    A nd           | Web:      www.OpenFOAM.org                      |
|    \\/     M anipulation  |                                                 |
\*---------------------------------------------------------------------------*/
FoamFile
{
    version     2.0;
    format      ascii;
    class       volVectorField;
    location    "5000";
    object      U;
}
// * * * * * * * * * * * * * * * * * * * * * * * * * * * * * * * * * * * * * //

dimensions      [0 1 -1 0 0 0 0];

internalField   nonuniform List<vector> 
180
(
(7.6943e-11 1.17643e-08 -0.00100009)
(2.2769e-10 1.57442e-08 -0.00100009)
(4.64091e-10 2.23081e-08 -0.00100009)
(7.25931e-10 3.02375e-08 -0.00100009)
(9.9762e-10 3.89068e-08 -0.00100009)
(1.28498e-09 4.81011e-08 -0.0010001)
(1.59867e-09 5.78021e-08 -0.0010001)
(1.94815e-09 6.80694e-08 -0.00100011)
(2.34139e-09 7.89918e-08 -0.00100012)
(2.78683e-09 9.06702e-08 -0.00100013)
(3.29408e-09 1.03214e-07 -0.00100014)
(3.87425e-09 1.16739e-07 -0.00100015)
(4.54032e-09 1.31371e-07 -0.00100016)
(5.3074e-09 1.47244e-07 -0.00100017)
(6.19308e-09 1.64503e-07 -0.00100019)
(7.21787e-09 1.83302e-07 -0.0010002)
(8.40564e-09 2.03811e-07 -0.00100022)
(9.78421e-09 2.26211e-07 -0.00100025)
(1.13859e-08 2.50699e-07 -0.00100027)
(1.32484e-08 2.77488e-07 -0.00100029)
(1.54155e-08 3.0681e-07 -0.00100032)
(1.7938e-08 3.38916e-07 -0.00100035)
(2.08751e-08 3.74075e-07 -0.00100039)
(2.42953e-08 4.12583e-07 -0.00100043)
(2.82782e-08 4.54756e-07 -0.00100047)
(3.29162e-08 5.0094e-07 -0.00100051)
(3.8316e-08 5.51506e-07 -0.00100056)
(4.46017e-08 6.06856e-07 -0.00100061)
(5.19166e-08 6.67422e-07 -0.00100067)
(6.04271e-08 7.33673e-07 -0.00100074)
(7.03255e-08 8.06108e-07 -0.00100081)
(8.18351e-08 8.85268e-07 -0.00100088)
(9.52139e-08 9.71728e-07 -0.00100097)
(1.10761e-07 1.06611e-06 -0.00100105)
(1.28823e-07 1.16906e-06 -0.00100115)
(1.498e-07 1.2813e-06 -0.00100126)
(1.74157e-07 1.40355e-06 -0.00100137)
(2.0243e-07 1.53661e-06 -0.0010015)
(2.3524e-07 1.6813e-06 -0.00100163)
(2.73308e-07 1.83849e-06 -0.00100177)
(3.17464e-07 2.00908e-06 -0.00100193)
(3.6867e-07 2.19401e-06 -0.00100209)
(4.2804e-07 2.39425e-06 -0.00100227)
(4.96859e-07 2.61077e-06 -0.00100246)
(5.76614e-07 2.84458e-06 -0.00100267)
(6.69024e-07 3.09667e-06 -0.00100288)
(7.76075e-07 3.36801e-06 -0.00100311)
(9.00058e-07 3.65956e-06 -0.00100335)
(1.04362e-06 3.9722e-06 -0.00100361)
(1.20983e-06 4.30673e-06 -0.00100388)
(1.4022e-06 4.66382e-06 -0.00100416)
(1.62481e-06 5.044e-06 -0.00100445)
(1.88235e-06 5.44757e-06 -0.00100475)
(2.18026e-06 5.87456e-06 -0.00100506)
(2.52478e-06 6.32465e-06 -0.00100537)
(2.92312e-06 6.79711e-06 -0.00100568)
(3.38359e-06 7.29068e-06 -0.00100598)
(3.91577e-06 7.80344e-06 -0.00100628)
(4.53069e-06 8.33272e-06 -0.00100656)
(5.24105e-06 8.87489e-06 -0.00100681)
(6.0615e-06 9.42522e-06 -0.00100703)
(7.00885e-06 9.97764e-06 -0.0010072)
(8.10246e-06 1.05245e-05 -0.00100731)
(9.36461e-06 1.10564e-05 -0.00100734)
(1.08209e-05 1.15616e-05 -0.00100727)
(1.25006e-05 1.20258e-05 -0.00100707)
(1.44382e-05 1.2431e-05 -0.00100671)
(1.66736e-05 1.27537e-05 -0.00100612)
(1.92537e-05 1.29647e-05 -0.00100526)
(2.22323e-05 1.30285e-05 -0.00100406)
(2.56719e-05 1.29022e-05 -0.00100246)
(2.96436e-05 1.25332e-05 -0.00100036)
(3.4225e-05 1.18556e-05 -0.000997589)
(3.94854e-05 1.07785e-05 -0.000993954)
(4.54276e-05 9.15424e-06 -0.000989701)
(5.18226e-05 6.69931e-06 -0.000986444)
(5.77037e-05 2.89857e-06 -0.000984536)
(6.11093e-05 -3.08454e-06 -0.000966685)
(5.75968e-05 -1.20533e-05 -0.000892976)
(4.1194e-05 -2.33236e-05 -0.000670926)
(1.44593e-06 -4.1061e-05 -0.00286707)
(7.11099e-06 1.19349e-05 -0.000162848)
(-0.000205341 0.000246079 -0.00340218)
(-8.45853e-05 0.000109302 -0.00238941)
(-4.91327e-05 1.61604e-05 -0.000986634)
(-0.000326212 0.000175453 -0.00412855)
(-6.2732e-05 4.05389e-06 -0.000366041)
(-0.000889384 -0.000319227 -0.0039407)
(-3.05219e-05 -3.34161e-05 -0.000405067)
(0.000658433 -0.000777173 -0.00392867)
(-1.40054e-06 -3.61287e-05 -0.000359699)
(0.000501037 -0.000389741 -0.00373898)
(0.000162414 -0.00018293 -0.00134608)
(0.000294131 -0.000575726 -0.00453446)
(3.5712e-05 -2.71205e-05 -0.000591064)
(9.20081e-05 -0.000278657 -0.00285666)
(0.000349409 -0.000558105 -0.00226166)
(2.0523e-05 -4.35596e-05 -9.52087e-05)
(4.01718e-05 -0.000113557 -0.00414583)
(8.65837e-06 1.24053e-05 -0.000715815)
(-0.000172671 0.000168184 -0.00251733)
(-8.88164e-05 0.00014419 -0.00122537)
(-0.000156635 2.84751e-05 -0.00123042)
(-9.72877e-05 3.75942e-05 -0.00102316)
(-4.23436e-05 7.46748e-05 -0.000928312)
(-6.29623e-05 0.000112295 -0.000866602)
(-6.93147e-05 0.000125384 -0.000838651)
(-6.46519e-05 0.000121755 -0.000852714)
(-5.65922e-05 0.00011099 -0.000874826)
(-4.85013e-05 9.85113e-05 -0.000892728)
(-4.12444e-05 8.65653e-05 -0.000907118)
(-3.49362e-05 7.58242e-05 -0.00091948)
(-2.95163e-05 6.63634e-05 -0.000930282)
(-2.48829e-05 5.80813e-05 -0.000939672)
(-2.09301e-05 5.0842e-05 -0.000947805)
(-1.75618e-05 4.45156e-05 -0.000954845)
(-1.46946e-05 3.89862e-05 -0.000960941)
(-1.22568e-05 3.41523e-05 -0.00096622)
(-1.01867e-05 2.99255e-05 -0.000970791)
(-8.43156e-06 2.62286e-05 -0.00097475)
(-6.94583e-06 2.29946e-05 -0.000978179)
(-5.69071e-06 2.01648e-05 -0.000981151)
(-4.63301e-06 1.76884e-05 -0.00098373)
(-3.74459e-06 1.55211e-05 -0.000985972)
(-3.00171e-06 1.36246e-05 -0.000987919)
(-2.38279e-06 1.19647e-05 -0.0009896)
(-1.86876e-06 1.05115e-05 -0.00099105)
(-1.44339e-06 9.23868e-06 -0.000992299)
(-1.09284e-06 8.12354e-06 -0.000993376)
(-8.0535e-07 7.1462e-06 -0.000994304)
(-5.70909e-07 6.28934e-06 -0.000995105)
(-3.81027e-07 5.53787e-06 -0.000995795)
(-2.28513e-07 4.87862e-06 -0.000996389)
(-1.07295e-07 4.30011e-06 -0.000996902)
(-1.22375e-08 3.79232e-06 -0.000997342)
(6.15078e-08 3.34624e-06 -0.000997718)
(1.17823e-07 2.95409e-06 -0.000998038)
(1.5979e-07 2.60915e-06 -0.000998313)
(1.9011e-07 2.30554e-06 -0.000998549)
(2.11024e-07 2.03817e-06 -0.000998751)
(2.24398e-07 1.80257e-06 -0.000998924)
(2.31812e-07 1.59486e-06 -0.000999074)
(2.34521e-07 1.41168e-06 -0.000999203)
(2.33568e-07 1.25007e-06 -0.000999314)
(2.29801e-07 1.10742e-06 -0.000999409)
(2.23889e-07 9.81466e-07 -0.000999491)
(2.16373e-07 8.70217e-07 -0.000999563)
(2.07696e-07 7.71918e-07 -0.000999624)
(1.98226e-07 6.85028e-07 -0.000999676)
(1.8826e-07 6.08195e-07 -0.000999722)
(1.78036e-07 5.40228e-07 -0.000999761)
(1.67747e-07 4.80081e-07 -0.000999794)
(1.57541e-07 4.26836e-07 -0.000999823)
(1.47537e-07 3.79683e-07 -0.000999848)
(1.37824e-07 3.3791e-07 -0.000999869)
(1.28469e-07 3.00892e-07 -0.000999888)
(1.19519e-07 2.68077e-07 -0.000999904)
(1.11007e-07 2.38981e-07 -0.000999917)
(1.02953e-07 2.13176e-07 -0.000999929)
(9.53674e-08 1.90287e-07 -0.000999939)
(8.82534e-08 1.69981e-07 -0.000999948)
(8.16071e-08 1.51968e-07 -0.000999955)
(7.54205e-08 1.35989e-07 -0.000999961)
(6.9682e-08 1.21819e-07 -0.000999967)
(6.43776e-08 1.09257e-07 -0.000999972)
(5.94917e-08 9.8127e-08 -0.000999976)
(5.50077e-08 8.82746e-08 -0.000999979)
(5.09085e-08 7.9563e-08 -0.000999982)
(4.71769e-08 7.18718e-08 -0.000999985)
(4.37962e-08 6.50955e-08 -0.000999987)
(4.07503e-08 5.91413e-08 -0.000999989)
(3.80237e-08 5.3928e-08 -0.000999991)
(3.5602e-08 4.93848e-08 -0.000999992)
(3.34717e-08 4.54501e-08 -0.000999993)
(3.162e-08 4.20712e-08 -0.000999994)
(3.00349e-08 3.92023e-08 -0.000999995)
(2.87057e-08 3.68038e-08 -0.000999996)
(2.76479e-08 3.483e-08 -0.000999997)
(2.68229e-08 3.337e-08 -0.000999997)
(2.64905e-08 3.24193e-08 -0.000999997)
)
;

boundaryField
{
    inlet
    {
        type            zeroGradient;
    }
    outlet
    {
        type            zeroGradient;
    }
    repeat_boundary
    {
        type            slip;
    }
    procBoundary1to0
    {
        type            processor;
        value           nonuniform List<vector> 
180
(
(7.69433e-11 1.26032e-08 -0.00100009)
(2.2769e-10 1.70254e-08 -0.00100009)
(4.64091e-10 2.42425e-08 -0.00100009)
(7.25931e-10 3.29437e-08 -0.0010001)
(9.9762e-10 4.2466e-08 -0.0010001)
(1.28498e-09 5.25876e-08 -0.0010001)
(1.59867e-09 6.33005e-08 -0.00100011)
(1.94815e-09 7.46815e-08 -0.00100012)
(2.34139e-09 8.68393e-08 -0.00100013)
(2.78683e-09 9.98979e-08 -0.00100014)
(3.29408e-09 1.13993e-07 -0.00100015)
(3.87426e-09 1.29271e-07 -0.00100016)
(4.54033e-09 1.45893e-07 -0.00100017)
(5.3074e-09 1.64033e-07 -0.00100019)
(6.19308e-09 1.8388e-07 -0.00100021)
(7.21787e-09 2.05646e-07 -0.00100023)
(8.40565e-09 2.29558e-07 -0.00100025)
(9.78422e-09 2.5587e-07 -0.00100028)
(1.13859e-08 2.84862e-07 -0.0010003)
(1.32484e-08 3.1684e-07 -0.00100033)
(1.54155e-08 3.52146e-07 -0.00100037)
(1.7938e-08 3.91156e-07 -0.00100041)
(2.08751e-08 4.34288e-07 -0.00100045)
(2.42953e-08 4.82002e-07 -0.0010005)
(2.82783e-08 5.34813e-07 -0.00100055)
(3.29162e-08 5.93287e-07 -0.00100061)
(3.83161e-08 6.58057e-07 -0.00100068)
(4.46018e-08 7.29821e-07 -0.00100075)
(5.19167e-08 8.09359e-07 -0.00100083)
(6.04272e-08 8.97534e-07 -0.00100092)
(7.03258e-08 9.95308e-07 -0.00100102)
(8.18354e-08 1.10375e-06 -0.00100113)
(9.52143e-08 1.22405e-06 -0.00100126)
(1.10762e-07 1.35752e-06 -0.0010014)
(1.28823e-07 1.50565e-06 -0.00100155)
(1.49801e-07 1.67007e-06 -0.00100172)
(1.74158e-07 1.85261e-06 -0.00100191)
(2.02431e-07 2.05532e-06 -0.00100212)
(2.35242e-07 2.28045e-06 -0.00100235)
(2.7331e-07 2.53055e-06 -0.00100261)
(3.17467e-07 2.80844e-06 -0.0010029)
(3.68675e-07 3.11729e-06 -0.00100322)
(4.28046e-07 3.46061e-06 -0.00100357)
(4.96867e-07 3.84235e-06 -0.00100397)
(5.76625e-07 4.26691e-06 -0.00100442)
(6.69039e-07 4.73922e-06 -0.00100491)
(7.76095e-07 5.26478e-06 -0.00100546)
(9.00085e-07 5.84976e-06 -0.00100608)
(1.04366e-06 6.50108e-06 -0.00100676)
(1.20987e-06 7.22646e-06 -0.00100753)
(1.40226e-06 8.03458e-06 -0.00100839)
(1.62489e-06 8.93516e-06 -0.00100934)
(1.88247e-06 9.93912e-06 -0.00101041)
(2.18042e-06 1.10587e-05 -0.0010116)
(2.52499e-06 1.23077e-05 -0.00101294)
(2.92341e-06 1.37016e-05 -0.00101443)
(3.38398e-06 1.52577e-05 -0.0010161)
(3.91628e-06 1.69956e-05 -0.00101798)
(4.53138e-06 1.89373e-05 -0.00102007)
(5.24197e-06 2.11078e-05 -0.00102243)
(6.06273e-06 2.35349e-05 -0.00102507)
(7.0105e-06 2.62501e-05 -0.00102803)
(8.10468e-06 2.92891e-05 -0.00103136)
(9.36758e-06 3.26921e-05 -0.00103509)
(1.08248e-05 3.65044e-05 -0.00103929)
(1.2506e-05 4.07774e-05 -0.00104402)
(1.44453e-05 4.55692e-05 -0.00104933)
(1.66832e-05 5.09455e-05 -0.00105532)
(1.92665e-05 5.69808e-05 -0.00106207)
(2.22496e-05 6.37594e-05 -0.00106967)
(2.56952e-05 7.13764e-05 -0.00107825)
(2.96756e-05 7.99368e-05 -0.00108795)
(3.42713e-05 8.95447e-05 -0.00109883)
(3.95595e-05 0.000100257 -0.00111097)
(4.55632e-05 0.000111921 -0.00112485)
(5.20905e-05 0.000123727 -0.00114274)
(5.83395e-05 0.000133189 -0.0011667)
(6.20624e-05 0.000134388 -0.00117806)
(5.90092e-05 0.000116878 -0.0011256)
(4.2583e-05 6.85574e-05 -0.000857801)
(2.17518e-06 -2.27509e-05 -0.00342366)
(5.88261e-06 -8.51665e-06 -0.000183463)
(-0.000368256 4.80316e-05 -0.00396154)
(-2.24219e-05 -2.12911e-05 -0.00038432)
(-0.000437048 -0.000190102 -0.00355206)
(2.51101e-06 -1.50711e-05 -0.000315474)
(-0.000733517 -0.000334981 -0.0037474)
(-0.000324132 -0.00016142 -0.00413635)
(-1.04842e-05 4.91781e-05 -0.000996407)
(0.00020829 0.000409281 -0.00468476)
(0.000196339 0.000123941 -0.00126316)
(0.000743463 -0.000337631 -0.00386054)
(3.65689e-05 1.92289e-06 -0.000271399)
(0.000456703 -0.000206471 -0.00465348)
(8.42158e-05 -0.000174857 -0.00261677)
(4.83363e-05 -8.28475e-05 -0.00239996)
(0.000243631 -5.97581e-05 -0.00362712)
(0.00018869 -7.57241e-05 -0.00258391)
(1.2304e-05 1.639e-05 -0.00239173)
(-0.000225745 -4.96515e-05 -0.00382426)
(-0.000100167 -8.86538e-05 -0.00175713)
(-9.69965e-05 -0.000102771 -0.00340604)
(-0.000124452 -0.000139853 -0.00270994)
(-1.79669e-05 -2.96168e-05 -0.00110049)
(-1.56973e-06 -5.25725e-06 -0.00181184)
(-4.2083e-05 -4.48644e-05 -0.0010371)
(-6.09528e-05 -6.25922e-05 -0.00105397)
(-6.19042e-05 -6.39284e-05 -0.00107477)
(-5.5752e-05 -5.84842e-05 -0.00107014)
(-4.82003e-05 -5.12967e-05 -0.00105784)
(-4.10919e-05 -4.42126e-05 -0.00104755)
(-3.48365e-05 -3.78106e-05 -0.00103957)
(-2.94449e-05 -3.22152e-05 -0.00103297)
(-2.48307e-05 -2.73895e-05 -0.00102735)
(-2.08919e-05 -2.32482e-05 -0.00102258)
(-1.75339e-05 -1.97009e-05 -0.00101855)
(-1.46742e-05 -1.66658e-05 -0.00101515)
(-1.22419e-05 -1.40714e-05 -0.00101229)
(-1.01759e-05 -1.18558e-05 -0.0010099)
(-8.42369e-06 -9.96575e-06 -0.00100789)
(-6.94012e-06 -8.35526e-06 -0.00100621)
(-5.68657e-06 -6.98476e-06 -0.00100481)
(-4.63002e-06 -5.82024e-06 -0.00100364)
(-3.74243e-06 -4.8326e-06 -0.00100267)
(-3.00016e-06 -3.99698e-06 -0.00100186)
(-2.38167e-06 -3.2914e-06 -0.00100121)
(-1.86796e-06 -2.69668e-06 -0.00100068)
(-1.44282e-06 -2.19638e-06 -0.00100026)
(-1.09244e-06 -1.77643e-06 -0.000999923)
(-8.05062e-07 -1.42479e-06 -0.000999664)
(-5.70706e-07 -1.13116e-06 -0.000999466)
(-3.80884e-07 -8.86739e-07 -0.000999317)
(-2.28414e-07 -6.84023e-07 -0.000999209)
(-1.07225e-07 -5.16629e-07 -0.000999134)
(-1.21892e-08 -3.79131e-07 -0.000999088)
(6.15412e-08 -2.6668e-07 -0.000999066)
(1.17845e-07 -1.75312e-07 -0.00099906)
(1.59805e-07 -1.01855e-07 -0.000999068)
(1.9012e-07 -4.33382e-08 -0.000999088)
(2.11032e-07 2.75035e-09 -0.000999115)
(2.24403e-07 3.85253e-08 -0.00099915)
(2.31815e-07 6.59083e-08 -0.000999189)
(2.34523e-07 8.64715e-08 -0.000999231)
(2.3357e-07 1.0151e-07 -0.000999275)
(2.29802e-07 1.12075e-07 -0.000999319)
(2.2389e-07 1.19011e-07 -0.000999362)
(2.16373e-07 1.23009e-07 -0.000999404)
(2.07697e-07 1.24644e-07 -0.000999445)
(1.98227e-07 1.24402e-07 -0.000999484)
(1.8826e-07 1.22687e-07 -0.000999521)
(1.78037e-07 1.19836e-07 -0.000999556)
(1.67747e-07 1.16128e-07 -0.00099959)
(1.57541e-07 1.11793e-07 -0.000999621)
(1.47538e-07 1.07021e-07 -0.00099965)
(1.37824e-07 1.01965e-07 -0.000999678)
(1.28469e-07 9.67512e-08 -0.000999704)
(1.19519e-07 9.14815e-08 -0.000999728)
(1.11007e-07 8.62364e-08 -0.000999751)
(1.02953e-07 8.10795e-08 -0.000999771)
(9.53675e-08 7.60606e-08 -0.000999791)
(8.82534e-08 7.12174e-08 -0.000999809)
(8.16071e-08 6.65782e-08 -0.000999826)
(7.54205e-08 6.21633e-08 -0.000999841)
(6.9682e-08 5.79866e-08 -0.000999856)
(6.43776e-08 5.40566e-08 -0.000999869)
(5.94918e-08 5.03781e-08 -0.000999881)
(5.50077e-08 4.69522e-08 -0.000999893)
(5.09085e-08 4.37778e-08 -0.000999903)
(4.71769e-08 4.08516e-08 -0.000999913)
(4.37962e-08 3.81693e-08 -0.000999922)
(4.07503e-08 3.57253e-08 -0.000999931)
(3.80237e-08 3.35135e-08 -0.000999939)
(3.5602e-08 3.15275e-08 -0.000999946)
(3.34717e-08 2.97604e-08 -0.000999953)
(3.162e-08 2.82051e-08 -0.00099996)
(3.0035e-08 2.68535e-08 -0.000999966)
(2.87057e-08 2.56977e-08 -0.000999972)
(2.76479e-08 2.47575e-08 -0.000999978)
(2.6823e-08 2.4006e-08 -0.000999983)
(2.64905e-08 2.3724e-08 -0.000999988)
)
;
    }
    procBoundary1to3
    {
        type            processor;
        value           nonuniform List<vector> 
180
(
(-7.61992e-10 1.17642e-08 -0.000999919)
(-1.05352e-09 1.57442e-08 -0.000999918)
(-1.47023e-09 2.2308e-08 -0.000999916)
(-1.98025e-09 3.02374e-08 -0.000999913)
(-2.56163e-09 3.89067e-08 -0.00099991)
(-3.20156e-09 4.8101e-08 -0.000999906)
(-3.8998e-09 5.78019e-08 -0.0009999)
(-4.664e-09 6.80692e-08 -0.000999894)
(-5.50611e-09 7.89916e-08 -0.000999887)
(-6.44081e-09 9.067e-08 -0.000999879)
(-7.48499e-09 1.03214e-07 -0.00099987)
(-8.65793e-09 1.16739e-07 -0.000999859)
(-9.98157e-09 1.31371e-07 -0.000999847)
(-1.1481e-08 1.47244e-07 -0.000999834)
(-1.31848e-08 1.64502e-07 -0.00099982)
(-1.51258e-08 1.83301e-07 -0.000999804)
(-1.73416e-08 2.0381e-07 -0.000999786)
(-1.98756e-08 2.2621e-07 -0.000999766)
(-2.27771e-08 2.50698e-07 -0.000999745)
(-2.61034e-08 2.77487e-07 -0.000999721)
(-2.992e-08 3.06809e-07 -0.000999695)
(-3.43023e-08 3.38914e-07 -0.000999667)
(-3.93369e-08 3.74073e-07 -0.000999635)
(-4.51237e-08 4.1258e-07 -0.000999601)
(-5.17772e-08 4.54753e-07 -0.000999564)
(-5.94297e-08 5.00936e-07 -0.000999523)
(-6.82329e-08 5.51502e-07 -0.000999478)
(-7.83618e-08 6.0685e-07 -0.000999429)
(-9.00174e-08 6.67416e-07 -0.000999376)
(-1.03431e-07 7.33664e-07 -0.000999318)
(-1.1887e-07 8.06098e-07 -0.000999256)
(-1.36641e-07 8.85255e-07 -0.000999188)
(-1.57096e-07 9.71713e-07 -0.000999114)
(-1.80644e-07 1.06609e-06 -0.000999034)
(-2.07752e-07 1.16904e-06 -0.000998948)
(-2.3896e-07 1.28127e-06 -0.000998856)
(-2.74889e-07 1.40352e-06 -0.000998756)
(-3.16255e-07 1.53657e-06 -0.000998649)
(-3.63881e-07 1.68125e-06 -0.000998534)
(-4.18715e-07 1.83843e-06 -0.000998411)
(-4.81851e-07 2.00901e-06 -0.00099828)
(-5.54545e-07 2.19393e-06 -0.000998141)
(-6.38246e-07 2.39415e-06 -0.000997994)
(-7.34621e-07 2.61065e-06 -0.000997838)
(-8.45591e-07 2.84443e-06 -0.000997675)
(-9.73364e-07 3.09649e-06 -0.000997503)
(-1.12048e-06 3.3678e-06 -0.000997325)
(-1.28988e-06 3.65931e-06 -0.00099714)
(-1.48492e-06 3.9719e-06 -0.00099695)
(-1.70947e-06 4.30637e-06 -0.000996757)
(-1.96801e-06 4.6634e-06 -0.000996562)
(-2.26565e-06 5.04349e-06 -0.000996368)
(-2.60831e-06 5.44696e-06 -0.000996178)
(-3.00276e-06 5.87383e-06 -0.000995997)
(-3.45682e-06 6.32378e-06 -0.000995828)
(-3.97946e-06 6.79607e-06 -0.000995678)
(-4.58102e-06 7.28944e-06 -0.000995554)
(-5.27335e-06 7.80197e-06 -0.000995465)
(-6.07011e-06 8.33097e-06 -0.00099542)
(-6.98698e-06 8.8728e-06 -0.000995433)
(-8.04197e-06 9.42273e-06 -0.000995518)
(-9.25578e-06 9.97466e-06 -0.000995691)
(-1.06522e-05 1.0521e-05 -0.000995973)
(-1.22585e-05 1.10521e-05 -0.000996388)
(-1.41059e-05 1.15565e-05 -0.000996963)
(-1.62306e-05 1.20196e-05 -0.000997736)
(-1.86742e-05 1.24235e-05 -0.000998757)
(-2.14855e-05 1.27446e-05 -0.00100009)
(-2.47211e-05 1.29535e-05 -0.0010018)
(-2.84463e-05 1.30147e-05 -0.00100396)
(-3.27362e-05 1.28852e-05 -0.00100668)
(-3.76758e-05 1.25123e-05 -0.00101004)
(-4.33553e-05 1.18309e-05 -0.00101412)
(-4.98465e-05 1.07534e-05 -0.00101902)
(-5.71265e-05 9.14131e-06 -0.00102541)
(-6.48653e-05 6.73261e-06 -0.00103521)
(-7.17801e-05 3.05013e-06 -0.00104779)
(-7.53523e-05 -2.73554e-06 -0.00104424)
(-7.00444e-05 -1.15301e-05 -0.000987526)
(-4.95649e-05 -2.30511e-05 -0.000953027)
(-1.42306e-05 -4.45183e-05 -0.00274157)
(2.72951e-05 2.9821e-06 -0.000150544)
(5.70532e-05 0.000421995 -0.00267793)
(3.96983e-05 1.40541e-06 -0.000157528)
(-1.89183e-06 8.69747e-05 -0.00234536)
(-1.54318e-05 0.000176606 -0.00366614)
(2.06901e-05 7.37043e-06 -0.000405025)
(-0.000333316 -0.000133363 -0.00337359)
(-0.000404107 -0.00010756 -0.00322858)
(6.39442e-07 -4.53421e-06 -0.000262935)
(-0.00025598 -0.00058636 -0.0025622)
(0.000182163 -0.0002673 -0.00378432)
(-3.7398e-05 -3.61156e-05 -0.000404833)
(-0.000214156 -0.000691264 -0.00467036)
(-0.000136681 -0.000798963 -0.00352027)
(-2.07108e-05 -3.88971e-05 -0.000165784)
(-0.000215932 -0.00095717 -0.00546952)
(-2.67501e-05 -3.37685e-05 -9.52438e-05)
(-0.000363306 -0.000344326 -0.00546623)
(-7.06238e-05 3.20361e-05 -0.00152023)
(0.000351691 0.000400914 -0.00437596)
(6.46288e-05 -3.63816e-05 -0.000470219)
(5.06714e-05 3.86691e-05 -0.003591)
(8.16793e-05 0.000119097 -0.00157689)
(0.000117887 0.000133985 -0.00143587)
(0.000139392 0.000122419 -0.00131989)
(0.000140364 0.000119572 -0.00124174)
(0.00012997 0.000116589 -0.00120703)
(0.000116011 0.000108517 -0.00118501)
(0.000102204 9.75025e-05 -0.00116385)
(8.97064e-05 8.61249e-05 -0.00114395)
(7.8677e-05 7.55864e-05 -0.00112635)
(6.90044e-05 6.62076e-05 -0.00111099)
(6.05331e-05 5.79687e-05 -0.00109755)
(5.31153e-05 5.07578e-05 -0.00108577)
(4.66193e-05 4.4452e-05 -0.00107543)
(4.09297e-05 3.8938e-05 -0.00106635)
(3.59453e-05 3.41158e-05 -0.00105839)
(3.15777e-05 2.98978e-05 -0.0010514)
(2.77497e-05 2.62076e-05 -0.00104526)
(2.43938e-05 2.29786e-05 -0.00103987)
(2.14509e-05 2.01527e-05 -0.00103514)
(1.88694e-05 1.76792e-05 -0.00103098)
(1.66043e-05 1.55141e-05 -0.00102732)
(1.46161e-05 1.36193e-05 -0.0010241)
(1.28704e-05 1.19607e-05 -0.00102127)
(1.13371e-05 1.05084e-05 -0.00101879)
(9.9899e-06 9.23632e-06 -0.00101659)
(8.80575e-06 8.12174e-06 -0.00101466)
(7.76457e-06 7.14482e-06 -0.00101296)
(6.84876e-06 6.28829e-06 -0.00101147)
(6.04293e-06 5.53707e-06 -0.00101014)
(5.33363e-06 4.87801e-06 -0.00100898)
(4.70905e-06 4.29964e-06 -0.00100795)
(4.15891e-06 3.79196e-06 -0.00100704)
(3.67419e-06 3.34597e-06 -0.00100624)
(3.24704e-06 2.95388e-06 -0.00100553)
(2.87065e-06 2.60899e-06 -0.00100491)
(2.53888e-06 2.30542e-06 -0.00100435)
(2.24636e-06 2.03807e-06 -0.00100386)
(1.98837e-06 1.80249e-06 -0.00100343)
(1.76071e-06 1.5948e-06 -0.00100305)
(1.55969e-06 1.41164e-06 -0.00100271)
(1.38209e-06 1.25003e-06 -0.00100241)
(1.22512e-06 1.10739e-06 -0.00100214)
(1.08633e-06 9.81447e-07 -0.0010019)
(9.63567e-07 8.70202e-07 -0.00100169)
(8.54959e-07 7.71906e-07 -0.00100151)
(7.58844e-07 6.85019e-07 -0.00100134)
(6.73761e-07 6.08188e-07 -0.00100119)
(5.98423e-07 5.40222e-07 -0.00100106)
(5.31696e-07 4.80077e-07 -0.00100095)
(4.72581e-07 4.26833e-07 -0.00100084)
(4.20197e-07 3.7968e-07 -0.00100075)
(3.73768e-07 3.37908e-07 -0.00100067)
(3.32608e-07 3.0089e-07 -0.0010006)
(2.96113e-07 2.68076e-07 -0.00100053)
(2.6375e-07 2.3898e-07 -0.00100047)
(2.35049e-07 2.13175e-07 -0.00100042)
(2.09593e-07 1.90286e-07 -0.00100038)
(1.87017e-07 1.69981e-07 -0.00100034)
(1.66996e-07 1.51967e-07 -0.0010003)
(1.49246e-07 1.35989e-07 -0.00100027)
(1.33514e-07 1.21818e-07 -0.00100024)
(1.19577e-07 1.09256e-07 -0.00100021)
(1.07241e-07 9.81269e-08 -0.00100019)
(9.63301e-08 8.82745e-08 -0.00100017)
(8.66936e-08 7.95629e-08 -0.00100015)
(7.8197e-08 7.18717e-08 -0.00100013)
(7.07223e-08 6.50954e-08 -0.00100012)
(6.41662e-08 5.91412e-08 -0.0010001)
(5.84381e-08 5.3928e-08 -0.00100009)
(5.34592e-08 4.93848e-08 -0.00100008)
(4.91614e-08 4.54501e-08 -0.00100007)
(4.54861e-08 4.20712e-08 -0.00100006)
(4.23838e-08 3.92023e-08 -0.00100005)
(3.98117e-08 3.68037e-08 -0.00100004)
(3.77203e-08 3.48299e-08 -0.00100003)
(3.6187e-08 3.337e-08 -0.00100002)
(3.51858e-08 3.24193e-08 -0.00100002)
)
;
    }
}


// ************************************************************************* //
