FoamFile
{version 2.0; format ascii;class vectorField; location 0;object  v;}
345
(
( 7.72283e-07 4.46763e-06 -3.49682e-05 )  
( 2.15941e-06 -3.26807e-06 -3.301e-05 )  
( 2.13822e-06 -3.6654e-06 -3.07466e-05 )  
( 4.3151e-06 -5.75864e-06 -2.61243e-05 )  
( 1.95105e-06 -2.6231e-06 -3.78718e-05 )  
( 5.69873e-06 -8.89822e-06 -3.37699e-05 )  
( 8.60139e-07 -2.93781e-06 -3.00567e-05 )  
( 9.63292e-06 5.92424e-06 -3.77129e-05 )  
( 9.61012e-07 -1.15386e-05 -3.52194e-05 )  
( 4.31073e-06 5.34742e-06 -3.91915e-05 )  
( 5.74802e-06 -1.2524e-06 -3.53042e-05 )  
( 4.75842e-06 2.69258e-06 -2.63716e-05 )  
( 3.00466e-06 -6.75506e-06 -2.92555e-05 )  
( 3.26278e-06 -3.60831e-06 -2.862e-05 )  
( 8.69947e-07 -4.27028e-06 -3.56561e-05 )  
( 5.92414e-06 -9.60122e-06 -2.93277e-05 )  
( 1.03345e-06 -7.89733e-06 -1.41942e-05 )  
( 1.68555e-06 -2.38765e-06 -7.14126e-05 )  
( -2.7559e-06 6.8388e-06 -5.90214e-05 )  
( 3.70082e-07 -4.12579e-06 -3.24002e-05 )  
( 5.65797e-06 -1.41637e-06 -7.20719e-05 )  
( 4.37224e-06 3.51634e-07 -3.45057e-05 )  
( -3.98419e-07 -8.78403e-07 -2.53009e-05 )  
( 4.68575e-06 -3.34706e-06 -2.45607e-05 )  
( 8.58376e-06 -4.73829e-06 -5.83023e-05 )  
( 1.69708e-06 -1.91423e-06 -3.27138e-05 )  
( 6.04029e-06 -3.20899e-06 -3.72828e-05 )  
( 5.09273e-06 -6.0086e-06 -3.33995e-05 )  
( 5.50926e-06 1.67719e-05 -2.59768e-05 )  
( 6.00501e-06 -1.40772e-05 -2.92011e-05 )  
( 3.6155e-06 -3.4853e-06 -7.35633e-05 )  
( 1.56032e-05 -2.51643e-06 -7.29815e-05 )  
( 5.07936e-06 1.13129e-06 -6.08099e-05 )  
( 3.05644e-06 1.2193e-05 -6.12103e-05 )  
( 1.43236e-05 -7.87822e-06 -7.14449e-05 )  
( -6.5144e-07 7.55536e-06 -2.35302e-05 )  
( 4.38609e-06 -8.11587e-06 -6.24919e-05 )  
( 4.23028e-06 -8.49872e-07 -6.5734e-05 )  
( 1.22835e-05 -3.70376e-06 -7.31388e-05 )  
( 5.28514e-06 -6.66062e-06 -6.64535e-05 )  
( 1.07857e-07 -1.4804e-05 -6.6493e-05 )  
( 5.82814e-06 -8.71673e-06 -6.38466e-05 )  
( 1.38276e-05 8.44231e-06 -6.78965e-05 )  
( 2.65067e-06 -6.46057e-07 -8.42768e-05 )  
( -1.71379e-06 8.96967e-07 -5.83138e-05 )  
( 1.34789e-05 -8.5784e-06 -7.61764e-05 )  
( 1.34625e-05 -4.02004e-06 -9.16278e-05 )  
( 5.17231e-06 1.12739e-06 -6.44732e-05 )  
( 3.8522e-06 -5.60218e-06 -5.61797e-05 )  
( 9.82469e-07 7.7126e-07 -0.000104094 )  
( 3.7164e-06 -1.64325e-05 -5.76525e-05 )  
( 1.15026e-05 -2.27018e-05 -5.96507e-05 )  
( 1.73513e-05 -8.18199e-06 -8.61864e-05 )  
( 5.83956e-06 -1.37402e-06 -6.31464e-05 )  
( 2.9145e-05 1.93122e-06 -0.000143478 )  
( 4.45187e-06 -4.55736e-06 -9.29524e-05 )  
( 5.69396e-06 -1.0086e-05 -0.000114241 )  
( 3.64851e-06 -1.13722e-06 -9.00621e-05 )  
( 9.52623e-06 -1.55069e-05 -9.87988e-05 )  
( 9.53456e-06 -1.0538e-05 -0.000111944 )  
( 3.84906e-08 1.20384e-05 -0.000104632 )  
( 4.01746e-06 -1.62439e-05 -8.62381e-05 )  
( 2.59682e-06 -3.39136e-06 -9.67554e-05 )  
( 9.62491e-07 -3.87347e-06 -0.000100117 )  
( 5.83859e-06 1.63208e-06 -9.55688e-05 )  
( -4.52039e-07 7.27709e-06 -0.000113462 )  
( 1.22601e-05 3.16171e-06 -9.57635e-05 )  
( 4.17498e-06 2.84932e-06 -7.53885e-05 )  
( 1.61527e-05 -2.14295e-05 -8.77806e-05 )  
( 7.86836e-06 -3.96413e-06 -0.000140283 )  
( -2.98784e-06 2.03503e-05 -0.000107049 )  
( 1.35575e-05 -5.4563e-06 -0.00011288 )  
( 5.75379e-06 1.06087e-05 -8.85836e-05 )  
( 1.6932e-05 -5.01342e-06 -0.000139621 )  
( 8.96234e-06 -1.22462e-05 -0.00012057 )  
( 9.4573e-06 1.15145e-06 -0.000130546 )  
( 3.7769e-06 -1.37285e-07 -0.000136349 )  
( 3.40055e-06 -9.68056e-06 -9.67351e-05 )  
( 9.29863e-06 4.7008e-06 -0.00012124 )  
( 4.05587e-06 -4.5423e-06 -0.000145827 )  
( 1.42928e-07 -4.25115e-06 -0.000141146 )  
( 1.54869e-06 5.10756e-06 -0.000125752 )  
( 1.44838e-05 -1.65024e-06 -0.000115423 )  
( -2.19701e-06 8.81e-06 -0.000151302 )  
( -4.03471e-08 -1.25941e-06 -0.000117324 )  
( 5.32417e-06 -6.97741e-06 -9.62906e-05 )  
( 1.969e-05 3.10176e-06 -0.000100308 )  
( 6.57048e-06 -6.7514e-06 -0.000152467 )  
( 5.08725e-07 8.36257e-06 -0.000141673 )  
( 1.15616e-06 -1.84733e-06 -0.000127673 )  
( 2.88138e-06 5.69762e-06 -0.000162282 )  
( -1.52984e-06 -6.7931e-07 -0.000147421 )  
( 1.06796e-05 -8.20072e-07 -0.000129396 )  
( -9.94309e-06 -4.77571e-06 -0.000136242 )  
( 2.14842e-06 -4.57549e-07 -0.000172781 )  
( 9.59323e-06 -1.90863e-05 -0.000108343 )  
( 1.2112e-06 -3.30817e-06 -0.00015936 )  
( 2.62721e-05 -2.36649e-06 -0.000137974 )  
( 6.98053e-07 -4.441e-06 -0.000168491 )  
( 1.3128e-06 -3.46435e-06 -0.000167571 )  
( 7.07906e-06 4.45661e-07 -0.000169717 )  
( 2.47175e-06 -1.62354e-06 -0.000167982 )  
( 1.80588e-06 -1.31386e-05 -0.000180209 )  
( -9.65289e-06 1.06672e-06 -0.000172205 )  
( 1.46559e-05 -4.24868e-06 -0.000177934 )  
( 3.64467e-06 -1.55348e-06 -0.000188695 )  
( 9.65066e-06 -3.01646e-06 -0.000174286 )  
( 1.26761e-06 3.85823e-06 -0.000153918 )  
( -7.65271e-06 -3.79541e-07 -0.000210038 )  
( -1.12062e-06 2.22646e-06 -0.000130898 )  
( 2.49896e-05 -9.17529e-06 -0.000158479 )  
( 1.63593e-05 -1.08317e-05 -0.000192305 )  
( 1.53725e-05 -6.89648e-06 -0.000188364 )  
( 1.15205e-06 -2.33407e-06 -0.000145656 )  
( 4.79557e-06 5.61773e-06 -0.000189949 )  
( 6.29328e-07 -1.53394e-05 -0.000232303 )  
( 7.84804e-06 1.74951e-06 -0.000179268 )  
( 1.40199e-05 -2.76578e-06 -0.000209454 )  
( 9.88502e-06 3.12265e-06 -0.000179161 )  
( 9.59069e-06 2.06062e-06 -0.000197309 )  
( 9.16269e-06 3.07506e-06 -0.000208185 )  
( 1.59589e-05 -5.91414e-06 -0.000171316 )  
( 1.2141e-05 -1.15626e-06 -0.00019255 )  
( 7.21865e-06 -1.34178e-06 -0.000191319 )  
( 4.23053e-06 -1.6977e-05 -0.000192441 )  
( 2.99211e-06 7.24188e-07 -0.000196315 )  
( 6.49034e-06 1.70134e-05 -0.000168626 )  
( 6.4595e-06 -7.16855e-07 -0.000212361 )  
( 6.25146e-06 2.23175e-06 -0.000196019 )  
( 7.9374e-06 -4.56157e-06 -0.000212771 )  
( 1.05818e-05 3.75437e-06 -0.000221253 )  
( 1.12775e-05 -9.46211e-06 -0.000228982 )  
( 2.06704e-05 -1.02413e-05 -0.000205728 )  
( 1.13394e-05 -1.40385e-07 -0.000203666 )  
( 1.50966e-05 -9.63313e-06 -0.000222429 )  
( 2.20962e-05 -6.15965e-06 -0.000219637 )  
( 1.10648e-05 -2.0594e-05 -0.000203087 )  
( 4.90333e-07 -5.52685e-06 -0.00019432 )  
( -1.64164e-05 6.22479e-06 -0.000199762 )  
( -3.1809e-06 -2.16802e-05 -0.000253389 )  
( -2.76485e-06 5.72306e-06 -0.000198193 )  
( 1.32606e-05 -2.55158e-05 -0.000245051 )  
( 1.37026e-05 -1.03428e-06 -0.000234494 )  
( -4.4757e-06 -4.99005e-06 -0.000219714 )  
( 9.624e-06 -4.22065e-07 -0.000226193 )  
( 1.65477e-05 -5.64131e-06 -0.000228595 )  
( 6.94902e-06 1.00505e-06 -0.00024324 )  
( 1.64938e-05 -8.17665e-07 -0.000227128 )  
( -1.13757e-05 1.19566e-05 -0.000246533 )  
( 1.18668e-05 -1.73336e-05 -0.000276312 )  
( 1.82923e-05 3.77873e-06 -0.000238476 )  
( 1.44023e-05 -2.53993e-06 -0.000223749 )  
( 2.04771e-05 -6.50945e-06 -0.000251394 )  
( -5.20182e-07 -1.71469e-05 -0.000258425 )  
( 9.85451e-06 -1.46533e-05 -0.000269301 )  
( -4.19658e-06 -9.78624e-06 -0.000224078 )  
( 6.12202e-06 -9.08631e-06 -0.000251384 )  
( 1.8903e-05 -4.81678e-06 -0.000250729 )  
( 1.38518e-05 -1.61699e-06 -0.000251503 )  
( -7.55992e-06 -1.02215e-05 -0.000227696 )  
( 6.08947e-06 -6.4426e-06 -0.000234821 )  
( 1.12863e-05 -5.27666e-06 -0.00024637 )  
( 2.18737e-05 -2.02086e-06 -0.000265416 )  
( 6.65742e-06 -4.39332e-06 -0.000243932 )  
( 1.14565e-05 -4.23712e-06 -0.000255237 )  
( 1.19311e-05 -2.14553e-06 -0.00026098 )  
( -3.07143e-06 -1.22734e-05 -0.000252792 )  
( 5.66721e-06 -1.99389e-06 -0.000282764 )  
( 2.81829e-06 -5.48224e-06 -0.000253182 )  
( 7.44741e-06 7.59284e-07 -0.000228246 )  
( -7.70737e-06 3.01821e-06 -0.000280643 )  
( 1.14869e-05 -4.66874e-06 -0.000270048 )  
( 8.64667e-07 -1.69292e-05 -0.000282497 )  
( 2.89738e-06 -1.68583e-05 -0.000254575 )  
( 6.06632e-06 -1.03582e-05 -0.00027674 )  
( 1.44961e-05 -6.13607e-06 -0.000274577 )  
( 9.65729e-06 -1.13852e-05 -0.000267598 )  
( 2.21228e-06 -9.33434e-06 -0.00026478 )  
( 1.27191e-05 -1.4502e-05 -0.00028118 )  
( 2.23523e-06 9.23703e-06 -0.000270282 )  
( 1.20002e-05 -8.49889e-06 -0.000283206 )  
( 7.27984e-06 -1.28063e-05 -0.0002656 )  
( -5.63516e-06 -7.12168e-06 -0.000268091 )  
( 9.72677e-06 -1.72795e-05 -0.000271039 )  
( 1.01528e-05 -5.98909e-06 -0.00027644 )  
( 8.17379e-06 -7.88889e-06 -0.000300927 )  
( 1.0128e-05 -1.36064e-05 -0.000280674 )  
( 1.09318e-05 -7.75641e-06 -0.000292388 )  
( 1.14282e-05 -9.41731e-06 -0.000291559 )  
( 4.69608e-07 -1.32107e-05 -0.000287344 )  
( 8.70596e-06 -4.69563e-06 -0.000284533 )  
( 4.32386e-06 -1.48335e-06 -0.000300023 )  
( 1.03541e-05 -1.76422e-05 -0.000296553 )  
( 1.59174e-05 -2.60629e-06 -0.000289864 )  
( 1.46597e-05 -1.19561e-05 -0.000288056 )  
( 1.13255e-05 -8.07437e-06 -0.000284047 )  
( 7.23369e-07 -9.04574e-06 -0.000283234 )  
( 2.98389e-05 -2.80386e-05 -0.000291422 )  
( 5.17305e-06 -7.98453e-06 -0.000297409 )  
( 8.49202e-06 -2.65313e-05 -0.000285495 )  
( 2.3227e-06 -6.96263e-06 -0.000313428 )  
( 1.32496e-05 -2.36508e-06 -0.000300501 )  
( 5.58502e-06 -3.96395e-06 -0.000304157 )  
( 1.67799e-05 -5.4693e-08 -0.000297365 )  
( 1.13067e-05 -1.51451e-05 -0.000297365 )  
( -5.99736e-06 -1.41597e-06 -0.00032121 )  
( 1.67926e-05 -4.97639e-06 -0.000313649 )  
( -1.46567e-06 -2.06395e-06 -0.000291341 )  
( 1.23498e-05 -9.03792e-06 -0.000307472 )  
( 6.17397e-07 -5.49774e-06 -0.000324261 )  
( 8.89808e-07 -1.55998e-06 -0.000311326 )  
( 2.29563e-05 -9.74345e-06 -0.000300703 )  
( 3.29019e-06 -9.77614e-06 -0.00032612 )  
( 8.87266e-06 -5.48169e-06 -0.000296802 )  
( -4.68741e-06 -6.54891e-06 -0.000315348 )  
( 6.89564e-06 -1.18248e-05 -0.000325659 )  
( -1.66883e-07 9.16284e-07 -0.000316869 )  
( 9.26298e-06 -8.36809e-06 -0.000303034 )  
( 3.09914e-06 -1.13355e-05 -0.000323747 )  
( 2.9599e-06 -1.17138e-05 -0.000319873 )  
( 4.87527e-06 -5.22967e-06 -0.000320625 )  
( -8.15873e-06 -2.70272e-06 -0.000334594 )  
( -2.32885e-06 -1.69201e-05 -0.00034408 )  
( 3.54725e-06 -9.40179e-06 -0.000346074 )  
( 3.42009e-06 -1.2048e-05 -0.000333424 )  
( -3.10673e-06 -1.29778e-05 -0.000336912 )  
( 9.39897e-06 -1.04947e-05 -0.000334806 )  
( 1.75197e-05 -1.0274e-05 -0.000322045 )  
( -2.04486e-07 -2.7363e-06 -0.000327811 )  
( 6.56366e-06 -9.61119e-06 -0.000337699 )  
( 2.46423e-05 -1.63196e-05 -0.000307764 )  
( -1.33347e-06 -9.89566e-06 -0.000337061 )  
( 1.56268e-05 -3.84285e-06 -0.000338753 )  
( -6.49118e-06 -7.02802e-06 -0.00035393 )  
( 5.92107e-06 -8.9032e-06 -0.000349962 )  
( -7.95396e-06 -1.65949e-05 -0.000365492 )  
( -3.79307e-06 -1.14295e-05 -0.000348792 )  
( -3.0684e-06 -6.92707e-06 -0.000340079 )  
( 1.84875e-05 -1.40027e-05 -0.000325016 )  
( 1.05674e-05 -4.95339e-06 -0.000338416 )  
( 1.46802e-06 -8.14136e-06 -0.000340714 )  
( 9.74734e-06 -1.14119e-06 -0.000333759 )  
( -1.06706e-06 -1.03671e-05 -0.000335363 )  
( -5.59411e-07 -8.94056e-06 -0.000341399 )  
( 1.23626e-05 -7.03566e-06 -0.000335858 )  
( 1.81472e-06 -8.65512e-06 -0.000356256 )  
( 1.11037e-05 -3.57154e-06 -0.000383942 )  
( 7.28214e-06 -4.3978e-06 -0.000352649 )  
( 2.22666e-05 -1.83031e-05 -0.000319965 )  
( 1.54677e-06 1.98834e-06 -0.000368251 )  
( 6.19401e-06 -1.21683e-06 -0.00034977 )  
( -3.44463e-06 -7.5592e-06 -0.000357025 )  
( 1.26763e-05 -1.01293e-05 -0.000324929 )  
( 1.05981e-05 -3.7186e-06 -0.000349268 )  
( -2.70174e-06 2.30971e-06 -0.000354302 )  
( 1.25132e-05 -3.08106e-06 -0.00036969 )  
( 1.55893e-05 -1.13495e-05 -0.00032187 )  
( 6.98729e-06 -8.11017e-06 -0.000347918 )  
( 2.40869e-06 -3.98106e-06 -0.000356925 )  
( 1.1727e-06 -2.87606e-06 -0.000362998 )  
( 5.12542e-06 -1.67363e-05 -0.000324541 )  
( 8.45359e-07 -6.66411e-06 -0.000379086 )  
( -1.94131e-07 4.48688e-07 -0.000370313 )  
( -4.18145e-06 -1.52705e-06 -0.000383122 )  
( -1.71733e-07 1.53429e-06 -0.000359405 )  
( 3.45893e-06 -3.01168e-06 -0.000372796 )  
( 3.72925e-06 -3.46877e-06 -0.000361816 )  
( 1.12813e-06 1.63149e-05 -0.000387887 )  
( -1.24133e-06 -7.81826e-06 -0.000357832 )  
( 1.88765e-06 -3.55078e-06 -0.000369372 )  
( -5.92498e-06 -5.04014e-06 -0.000377985 )  
( -1.75438e-06 -9.43167e-06 -0.000369253 )  
( 4.73558e-06 -1.16888e-05 -0.000371484 )  
( 4.73586e-06 -7.98838e-06 -0.000347766 )  
( 4.23697e-06 1.32433e-06 -0.000369672 )  
( 9.28203e-06 -5.33255e-06 -0.000362931 )  
( 1.68105e-06 -2.57994e-06 -0.000360339 )  
( 3.34611e-06 -4.73316e-06 -0.000377566 )  
( -1.27451e-06 -5.08177e-06 -0.000373455 )  
( -9.94064e-08 -3.63333e-06 -0.000395365 )  
( -1.89168e-07 -7.3982e-06 -0.000388764 )  
( 8.87071e-07 -3.88083e-06 -0.00038367 )  
( 9.46984e-06 1.05542e-05 -0.000388278 )  
( -2.09884e-06 3.20326e-06 -0.00038147 )  
( 8.6002e-06 3.12302e-06 -0.000375427 )  
( 3.37951e-06 5.71806e-06 -0.000379858 )  
( 9.55607e-06 -7.7892e-06 -0.000352377 )  
( -4.65741e-06 5.71484e-06 -0.000391949 )  
( 4.30066e-06 -5.87091e-06 -0.000368381 )  
( -1.09291e-07 -4.39744e-06 -0.000384886 )  
( -3.64328e-06 5.81397e-06 -0.000382356 )  
( -5.28455e-06 -2.07291e-06 -0.000371691 )  
( -3.39782e-06 -1.01606e-06 -0.000398923 )  
( -7.68757e-06 1.2434e-05 -0.000406775 )  
( 4.63347e-06 -5.42257e-06 -0.00037459 )  
( 4.83652e-06 -4.45072e-06 -0.000397573 )  
( -2.95932e-06 7.48419e-06 -0.000389989 )  
( -9.23108e-08 1.06326e-06 -0.00037925 )  
( 8.39083e-07 2.26026e-06 -0.0003785 )  
( -2.62497e-06 -1.69285e-06 -0.000372454 )  
( -1.60925e-06 3.3032e-06 -0.000390662 )  
( 7.9337e-06 -1.53607e-06 -0.000381259 )  
( 1.69111e-05 2.15528e-05 -0.000387156 )  
( 7.37127e-06 3.42794e-06 -0.00037756 )  
( -1.3279e-05 3.15222e-06 -0.00038531 )  
( -5.54469e-06 1.22732e-05 -0.000394066 )  
( -4.3166e-06 1.04431e-05 -0.000393529 )  
( -1.95305e-06 -2.78162e-06 -0.000392338 )  
( -7.49991e-06 -1.22134e-05 -0.000373393 )  
( -1.08155e-05 -1.96858e-05 -0.000373429 )  
( -1.46542e-06 -4.21467e-06 -0.000385502 )  
( 1.51289e-05 -1.18994e-06 -0.000383296 )  
( -6.36777e-06 1.17318e-05 -0.000398546 )  
( -1.03359e-05 7.09374e-06 -0.000398458 )  
( -5.03418e-06 9.62239e-06 -0.000400944 )  
( -1.61044e-06 4.24463e-06 -0.000386122 )  
( 1.46182e-06 2.87958e-06 -0.000405066 )  
( 2.16138e-05 2.53763e-07 -0.000388302 )  
( -7.63329e-06 1.62378e-06 -0.000377548 )  
( -5.70753e-08 1.36045e-06 -0.000401618 )  
( 3.07742e-06 5.30484e-06 -0.000412737 )  
( 1.3163e-06 -3.56843e-06 -0.000416729 )  
( -1.68469e-06 1.43845e-05 -0.000410137 )  
( 1.19282e-05 -1.45935e-05 -0.000378885 )  
( -2.36153e-05 1.66313e-05 -0.000391351 )  
( 2.40027e-05 -1.03666e-06 -0.000396142 )  
( -8.72719e-06 1.72727e-05 -0.000400231 )  
( -5.71966e-06 1.76174e-06 -0.000385708 )  
( 2.11974e-07 8.41367e-06 -0.000407942 )  
( -1.45168e-05 2.84997e-06 -0.000371905 )  
( -7.26329e-06 1.43787e-05 -0.000382133 )  
( 3.02008e-06 2.72568e-05 -0.000406606 )  
( 4.22969e-06 -4.79102e-06 -0.00039996 )  
( -1.55894e-05 -9.94545e-06 -0.000418703 )  
( -1.67671e-05 2.28631e-06 -0.000390836 )  
( -9.87292e-05 -4.78062e-05 -0.000422426 )  
( -1.41711e-05 1.18077e-05 -0.000401985 )  
( 1.79542e-05 -1.26529e-06 -0.000383805 )  
( -6.33052e-06 -1.06405e-05 -0.000374549 )  
( -3.15927e-06 2.33086e-05 -0.000420957 )  
( -6.16821e-06 2.68716e-05 -0.000393773 )  
( 1.9867e-05 3.12619e-05 -0.000407608 )  
( -1.43576e-05 2.08164e-05 -0.000399321 )  
( -3.93231e-05 4.14579e-05 -0.000389017 )  
( -1.38206e-05 1.13324e-05 -0.000421077 )  
)
