FoamFile
{version 2.0; format ascii;class Cloud<passiveParticle>; location 0;object  positions;}
41
(
( 0.000196946 -0.000390598 9.99341e-05 ) 0 
( 4.4884e-05 -4.16305e-05 9.99097e-05 ) 0 
( 0.000177039 -0.000191664 9.9867e-05 ) 0 
( 0.000408396 -0.000255464 9.98024e-05 ) 0 
( 4.80385e-05 -0.000417051 0.000233502 ) 0 
( 0.000384704 -0.00038722 0.000248241 ) 0 
( 0.000324132 -5.61915e-05 9.97929e-05 ) 0 
( 6.34176e-05 -0.000192952 0.000267973 ) 0 
( 0.000299014 -0.000200802 0.000257891 ) 0 
( 0.000185638 -3.6776e-05 0.000242468 ) 0 
( 0.000474181 -0.000110147 0.000220245 ) 0 
( 0.00020833 -0.000359754 0.000338319 ) 0 
( 5.05352e-05 -3.46837e-05 0.000389702 ) 0 
( 0.000407072 -0.000257852 0.000416016 ) 0 
( 0.000294203 -6.82562e-05 0.000407402 ) 0 
( 0.000284491 -0.000372574 0.000524507 ) 0 
( 0.000150933 -0.00020229 0.000447404 ) 0 
( 0.000108899 -0.000457919 0.000481242 ) 0 
( 0.000266716 -0.000192697 0.000610075 ) 0 
( 0.000141039 -4.29922e-05 0.000567815 ) 0 
( 0.000494006 -0.000332621 0.00057978 ) 0 
( 0.000434471 -0.000105623 0.000544927 ) 0 
( 4.60246e-05 -0.000300144 0.000586729 ) 0 
( 0.00016551 -0.000436647 0.000671839 ) 0 
( 0.000426813 -0.000215951 0.000727604 ) 0 
( 0.000284323 -1.7554e-05 0.000704944 ) 0 
( 0.000364193 -0.000425566 0.000700164 ) 0 
( 0.000243153 -0.000289832 0.000783223 ) 0 
( 0.000450622 -3.73229e-05 0.000814182 ) 0 
( 5.3413e-05 -0.000227544 0.000792997 ) 0 
( 0.000200667 -0.000110561 0.000860891 ) 0 
( 0.000220569 -0.000462089 0.000882144 ) 0 
( 0.000396693 -0.000288909 0.000911328 ) 0 
( 0.000357243 -8.86701e-05 0.000983338 ) 0 
( 8.13457e-05 -0.000339316 0.000956369 ) 0 
( 0.000361522 -0.000463387 0.00102399 ) 0 
( 4.15103e-05 -0.000144476 0.000977044 ) 0 
( 0.000241191 -0.000244597 0.0010302 ) 0 
( 0.000463637 -9.42787e-06 0.00113299 ) 0 
( 9.77761e-05 -0.000446535 0.00112435 ) 0 
( 0.000366588 -0.000322047 0.00116534 ) 0 
)
