FoamFile
{version 2.0; format ascii;class vectorField; location 0;object  v;}
41
(
( 0.000140583 1.58661e-05 4.91722e-05 )  
( -1.97705e-06 -2.00943e-05 4.6074e-05 )  
( 3.18895e-05 8.60152e-06 5.88968e-05 )  
( 4.54537e-05 -4.184e-05 0.000105788 )  
( 4.32686e-05 1.58081e-05 0.000200814 )  
( -5.24136e-06 1.9262e-06 0.000200756 )  
( 1.11328e-05 2.13994e-05 6.38236e-05 )  
( 0.000113028 6.72017e-05 0.000245565 )  
( 6.94181e-05 -7.07999e-06 0.000178935 )  
( 6.7938e-05 2.98102e-05 0.000201812 )  
( 2.59396e-05 4.54377e-06 0.000175716 )  
( 2.12999e-05 1.51227e-05 0.000231102 )  
( -4.67966e-06 -7.79913e-05 0.00028623 )  
( -5.99186e-05 7.95332e-07 0.000397767 )  
( 8.93661e-05 -1.31992e-05 0.000277681 )  
( -6.20302e-05 3.03308e-05 0.000446321 )  
( 4.49727e-06 -2.77992e-05 0.00043014 )  
( 2.16972e-05 -2.37344e-05 0.000339594 )  
( 1.30632e-05 -4.569e-05 0.000572756 )  
( -2.36373e-05 6.17888e-06 0.000489417 )  
( -5.81497e-05 -4.84873e-05 0.000601575 )  
( 2.01507e-05 -8.16416e-05 0.000459337 )  
( 5.93628e-05 -7.55919e-05 0.0003284 )  
( -3.98748e-05 9.70391e-06 0.000505895 )  
( -3.71443e-07 9.88986e-06 0.000694691 )  
( -4.86142e-06 1.24779e-05 0.000507169 )  
( -1.37661e-05 1.52651e-05 0.000670171 )  
( -1.98372e-05 -1.59496e-05 0.000672066 )  
( -8.74241e-05 6.91509e-05 0.000600422 )  
( -5.83319e-05 -8.09684e-05 0.000542886 )  
( -2.89869e-05 2.0301e-06 0.000615301 )  
( -4.98293e-05 -2.97848e-05 0.000663024 )  
( -6.85126e-05 2.18067e-06 0.000852756 )  
( -3.95235e-05 -1.9158e-05 0.000601261 )  
( -4.58038e-05 5.44524e-05 0.000645451 )  
( 0.000101569 1.68877e-05 0.000651099 )  
( -3.76569e-05 6.08437e-06 0.000536842 )  
( 1.02626e-05 -1.63405e-05 0.00050828 )  
( -2.94593e-05 -5.9909e-05 0.00065887 )  
( -4.30377e-05 -6.22759e-05 0.000550402 )  
( 1.74537e-05 0.000164771 0.000506967 )  
)
