FoamFile
{version 2.0; format ascii;class vectorField; location 0;object  v;}
349
(
( -0.0888668 -0.0199361 0.167688 )  
( 0.0174935 -0.0275229 0.192487 )  
( -0.0951172 -0.0595426 0.244219 )  
( -0.00822658 -0.0232598 0.2903 )  
( -0.0436529 -0.123039 0.183382 )  
( -0.0258242 -0.0480034 0.258052 )  
( -0.00904351 -0.129472 0.145128 )  
( 0.0021553 -0.0430158 0.230889 )  
( -0.0901447 0.0932984 0.160171 )  
( 0.00295725 -0.0521331 0.132884 )  
( 0.0232817 -0.0558933 0.123543 )  
( -0.225358 0.0457472 0.381825 )  
( -0.0838162 0.0208393 0.140753 )  
( -0.0152724 0.0193952 0.225311 )  
( -0.0465696 -0.032604 0.164597 )  
( -0.0199236 0.0512041 0.212289 )  
( -0.000538706 -0.106842 0.309316 )  
( -0.0561725 -0.00111858 0.109273 )  
( -0.0146632 0.060265 0.22471 )  
( 0.0655496 -0.138717 0.391112 )  
( 0.0127227 -0.122106 0.239461 )  
( -0.111333 -0.0181294 0.523394 )  
( -0.0405341 -0.0196531 0.299975 )  
( -0.0226659 -0.0202954 0.162811 )  
( -0.0184794 -0.101312 0.249252 )  
( -0.028337 -0.0602156 0.245482 )  
( 0.0306193 -0.106287 0.139732 )  
( -0.0835874 -0.0348922 0.505678 )  
( 0.00531743 -0.00744329 0.233018 )  
( -0.0621035 -0.0880563 0.516316 )  
( -0.0840083 -0.044716 0.430194 )  
( 0.0365741 -0.0182836 0.471523 )  
( 0.00921088 -0.000493902 0.51438 )  
( 0.076636 -0.072339 0.744028 )  
( -0.0411903 -0.0701074 0.37118 )  
( -0.18627 0.0149208 0.45903 )  
( -0.00964649 0.0826315 0.57018 )  
( -0.120239 -0.0169351 0.516211 )  
( -0.215923 0.0200606 0.820818 )  
( -0.0581257 -0.0516711 0.458421 )  
( 0.0165332 -0.0314028 0.444623 )  
( 0.00691308 0.0733345 0.548528 )  
( -0.0554551 -0.0630356 0.549925 )  
( -0.0808055 0.0349952 0.689092 )  
( -0.0410222 -0.117003 0.627369 )  
( -0.134317 0.0961771 0.657792 )  
( -0.0809061 -0.0866057 0.443871 )  
( 0.0178344 -0.134152 0.493061 )  
( 0.0662132 0.0161338 0.826386 )  
( -0.0345774 -0.0995196 0.742402 )  
( -0.0155257 0.0181703 0.415543 )  
( -0.176945 -0.168509 0.963602 )  
( -0.0359667 0.0998919 0.762298 )  
( -0.0813048 0.124976 0.878118 )  
( 0.0665079 -0.0241054 0.745124 )  
( -0.0662817 -0.138098 0.744837 )  
( -0.0138275 -0.0278142 0.498876 )  
( -0.267735 -0.00469891 0.747658 )  
( -0.0322772 -0.0977102 0.644422 )  
( -0.0659388 -0.0113532 0.787084 )  
( 0.0246382 -0.00301528 0.635833 )  
( 0.0349717 -0.0752479 0.418476 )  
( -0.0653665 -0.054127 0.622979 )  
( 0.225161 -0.190514 0.780352 )  
( -0.127341 0.00574048 1.14106 )  
( -0.034442 0.199246 1.12026 )  
( -0.0574135 0.0453638 0.866371 )  
( 0.00255727 -0.0842948 0.499457 )  
( -8.50062e-05 -0.0633703 0.902422 )  
( 0.0985001 -0.0930454 0.753827 )  
( -0.113837 0.0160759 1.02965 )  
( -0.0514956 0.0365395 1.01729 )  
( 0.133551 0.103353 1.13251 )  
( 0.0373189 -0.0698641 0.838696 )  
( -0.0286842 0.0590722 0.703132 )  
( -0.0390269 -0.0184599 1.04296 )  
( 0.196159 -0.068856 1.14507 )  
( 0.0356781 -0.01628 1.15692 )  
( 0.0234046 -0.032716 1.26028 )  
( -0.0023283 0.0553669 0.83529 )  
( 0.00602712 -0.176541 1.1184 )  
( 0.138216 -0.104252 1.12435 )  
( -0.00862596 -0.0845342 1.11407 )  
( 0.0819217 -0.0762737 1.12031 )  
( -0.0255232 0.0784765 1.31568 )  
( 0.0391297 -0.0236528 0.953782 )  
( -0.0632984 0.0112314 1.12237 )  
( -0.00951821 -0.0159241 1.13807 )  
( 0.0311574 -0.112486 1.19526 )  
( 0.0202524 -0.178218 1.19814 )  
( 0.102509 0.00555719 1.19968 )  
( 0.15692 -0.0728484 1.06402 )  
( -0.113654 -0.126342 1.23042 )  
( -0.0857577 0.0473698 1.16371 )  
( -0.0170123 -0.0460536 1.1363 )  
( 0.00577106 0.0583433 1.23268 )  
( 0.0470927 -0.124557 1.0823 )  
( -0.026663 -0.180929 1.12993 )  
( 0.00509096 -0.113503 1.41834 )  
( -0.00261693 0.0435128 1.40881 )  
( 0.0673684 0.0434325 1.11825 )  
( 0.120471 0.0203827 1.09992 )  
( -0.0524802 -0.00582404 1.17008 )  
( -0.0134663 -0.0551678 1.3599 )  
( 0.145932 0.0637805 1.48287 )  
( 0.0341291 0.0573887 1.49793 )  
( -0.0280736 -0.0843211 1.48096 )  
( -0.0560746 -0.0383606 1.68312 )  
( 0.147557 -0.00441439 1.60521 )  
( 0.0608685 -0.0641767 1.40048 )  
( -0.0403295 -0.107647 1.50689 )  
( -0.100271 0.0155613 1.36512 )  
( -0.0281757 -0.00266141 1.48 )  
( 0.090869 0.0591098 1.4337 )  
( -0.00875165 -0.158819 1.99224 )  
( -0.0210726 -0.0454091 1.62636 )  
( 0.0590544 0.0838065 1.42713 )  
( 0.00884672 -0.100896 1.69573 )  
( 0.28487 -0.0737294 1.82361 )  
( -0.0529794 -0.129003 1.63994 )  
( 0.0132118 -0.0466033 1.33978 )  
( 0.200815 -0.04593 1.84522 )  
( -0.111744 -0.0275623 1.89275 )  
( 0.0302935 -0.042323 1.87267 )  
( 0.0423263 -0.103318 1.84866 )  
( 0.0342501 -0.0526411 1.85992 )  
( -0.190833 0.0262819 2.01725 )  
( -0.218225 0.105063 1.91209 )  
( 0.0275958 0.108837 1.9321 )  
( 0.00465101 -0.220648 1.99432 )  
( 0.0654948 -0.0388234 1.84552 )  
( 0.122731 -0.125875 2.19123 )  
( 0.026702 -0.186805 2.20285 )  
( 0.000204466 0.05847 2.07219 )  
( 0.0411938 -0.00504894 1.55347 )  
( 0.0926854 -0.110565 2.40154 )  
( -0.167944 0.0958406 2.19832 )  
( 0.0185161 -0.144773 1.9142 )  
( 0.0216068 -0.156791 2.43723 )  
( 0.0570198 0.0139989 1.76937 )  
( -0.182999 -0.105098 1.67069 )  
( -0.171847 0.097326 2.02432 )  
( -0.128886 0.203708 2.19535 )  
( 0.0306309 -0.0796029 2.41673 )  
( -0.134823 0.0420418 2.05486 )  
( 0.0588047 -0.117418 2.41082 )  
( 0.0537454 -0.0947633 2.52009 )  
( 0.0194783 -0.239724 2.54844 )  
( -0.0399862 -0.0323353 2.29674 )  
( -0.112472 -0.120794 2.09856 )  
( -0.0334775 0.0476227 2.17644 )  
( -0.0590748 -0.142487 1.9789 )  
( 0.0307317 -0.0112177 2.58082 )  
( 0.0811741 0.00871423 2.68043 )  
( 0.00915184 -0.118518 2.62075 )  
( -0.199363 0.0453961 2.21218 )  
( -0.0243127 0.0251389 2.85648 )  
( -0.0215176 -0.073017 2.4659 )  
( 0.0130504 -0.00510157 2.50654 )  
( 0.0294702 -0.0338873 3.04948 )  
( 0.136121 -0.118292 3.09766 )  
( -0.00363242 -0.0858677 2.7308 )  
( -0.0303638 -0.0139669 2.86185 )  
( -0.0782223 -0.134242 2.24127 )  
( 0.0407664 -0.11471 2.76275 )  
( 0.0786663 0.042666 2.66562 )  
( 0.097352 -0.192033 2.52798 )  
( 0.0340212 -0.0850268 2.60547 )  
( 0.0977859 -0.0544891 2.51736 )  
( -0.159247 -0.345033 2.7703 )  
( 0.0182186 -0.203847 3.03961 )  
( -0.0588327 -0.0616414 2.89165 )  
( 0.0586754 -0.225998 2.87996 )  
( 0.0308036 -0.0866831 2.98255 )  
( 0.0566202 -0.031389 3.17079 )  
( 0.0355744 -0.026347 3.31312 )  
( 0.0987782 0.0525834 3.4179 )  
( 0.0318261 -0.0131354 3.22976 )  
( -0.0224653 -0.0107659 3.26821 )  
( -0.120191 -0.0830655 3.36409 )  
( 0.120868 -0.0406029 3.31105 )  
( -0.00492361 0.0226053 3.40495 )  
( 0.00815532 -0.0415411 2.75139 )  
( 0.056158 -0.0852625 3.16629 )  
( 0.0354809 -0.0115266 3.27126 )  
( 0.170505 -0.199684 2.87244 )  
( 0.0323741 -0.135948 3.21352 )  
( -0.108135 -0.100829 3.4693 )  
( 0.0596624 0.0570748 3.32159 )  
( 0.037585 0.00688827 3.47355 )  
( 0.0724291 -0.17066 3.23003 )  
( 0.0643725 0.123101 3.39231 )  
( 0.108922 -0.0756636 3.40583 )  
( 0.15275 -0.0969996 3.2406 )  
( -0.00972226 -0.157633 3.20862 )  
( -0.0734603 -0.0692781 3.20766 )  
( 0.0277949 -0.0752988 3.42292 )  
( -0.0477142 -0.0411249 3.50856 )  
( -0.0183901 -0.0468504 2.89138 )  
( 0.00445398 -0.0467171 3.61326 )  
( -0.0126962 -0.21168 3.55857 )  
( 0.00295004 0.120289 3.47705 )  
( -0.0743794 0.0271437 3.58959 )  
( 0.121241 -0.10252 3.10668 )  
( -0.0680668 -0.0831744 3.43926 )  
( -0.0674441 -0.182113 3.48166 )  
( -0.0824674 -0.0676845 3.63298 )  
( 0.00138492 -0.131225 3.62719 )  
( 0.0401504 -0.103077 3.52134 )  
( 0.0754999 -0.0562912 3.50273 )  
( 0.0373317 -0.165675 3.32973 )  
( 0.0989006 -0.0625844 3.74189 )  
( 0.0289756 -0.0177817 3.51503 )  
( 0.0176495 -0.104829 3.50466 )  
( -0.0296205 -0.182551 3.54548 )  
( 0.056851 -0.0592379 3.34566 )  
( -0.0274548 -0.121267 3.35058 )  
( -0.0482304 -0.183142 3.66298 )  
( 0.109675 -0.0716707 3.52279 )  
( -0.0135577 0.117013 3.55804 )  
( -0.0768377 -0.0475396 3.56498 )  
( -0.0975365 -0.186289 3.69296 )  
( -0.00174177 -0.0716609 3.53098 )  
( -0.0237883 0.0803738 3.57026 )  
( -0.0430451 0.0490286 3.65906 )  
( -0.0675988 -0.0150504 3.7062 )  
( -0.0128411 -0.141126 3.64427 )  
( 0.0291745 -0.0681194 3.64847 )  
( -0.0332018 -0.0493621 3.47677 )  
( 0.0672982 -0.0414219 3.40413 )  
( -0.0512475 -0.0879093 3.53297 )  
( 0.0116447 -0.0902846 3.53994 )  
( -0.0132099 -0.192121 3.43191 )  
( -0.0317228 0.0170871 3.56835 )  
( 0.0332131 0.0518799 3.62293 )  
( -0.0026116 -0.153141 3.64146 )  
( 0.0131077 -0.0770248 3.67982 )  
( 0.0610852 0.0335384 3.70883 )  
( 0.0336958 -0.0434717 3.58004 )  
( 0.163402 0.0303728 3.69957 )  
( 0.0221596 -0.0300293 3.45569 )  
( 0.0458956 -0.103145 3.54108 )  
( -0.00356634 -0.0197158 3.6729 )  
( 0.0546553 0.0442877 3.53237 )  
( 0.0693655 -0.023673 3.70599 )  
( 0.0370525 0.0801598 3.53098 )  
( 0.00623528 -0.110311 3.57056 )  
( 0.0638835 0.118611 3.59482 )  
( -0.0386187 -0.0784445 3.51314 )  
( -0.0532808 -0.0777688 3.61148 )  
( 0.0353212 -0.056332 3.61606 )  
( 0.029858 -0.00652048 3.72219 )  
( -0.0157364 0.00156838 3.61842 )  
( 0.100996 -0.100614 3.63443 )  
( 0.107561 0.00530376 3.6081 )  
( 0.0503382 0.0562604 3.55342 )  
( -0.0281767 0.0320015 3.58476 )  
( 0.0236845 0.164181 3.60186 )  
( 0.00049368 -0.0973344 3.58849 )  
( -0.0886368 -0.177004 3.82763 )  
( 0.0237716 0.0374029 3.53941 )  
( 0.0126882 -0.0371401 3.54765 )  
( 0.20978 -0.119771 3.57206 )  
( 0.083835 -0.121842 3.59064 )  
( -0.070405 0.0429709 3.3036 )  
( 0.0695159 0.1557 3.5218 )  
( 0.00108013 -0.109481 3.6355 )  
( -0.041911 -0.0320348 3.66099 )  
( -0.0340601 -0.0967396 3.61281 )  
( -0.165846 0.0820646 3.66295 )  
( 0.0659808 0.111696 3.59671 )  
( 0.0745453 0.0124759 3.8846 )  
( 0.0398505 0.17197 3.6511 )  
( -0.0296759 0.272447 3.07272 )  
( 0.171618 0.108489 3.68617 )  
( 0.173488 -0.116512 3.50697 )  
( 0.00409245 0.0541357 3.60776 )  
( -0.248599 -0.099368 3.43515 )  
( 0.0030825 0.146799 3.70816 )  
( -0.0123109 0.00478579 3.63771 )  
( 0.0368111 -0.2004 3.66244 )  
( 0.0118791 -0.0531122 3.57375 )  
( 0.0817745 0.0982606 3.76301 )  
( 0.0310803 0.118975 3.58494 )  
( 0.0120573 0.0298138 3.61211 )  
( 0.063365 0.0886853 3.72015 )  
( 0.0016234 -0.223571 3.86396 )  
( -0.127597 0.0118343 3.57066 )  
( 0.107132 0.114824 3.76106 )  
( -0.0176422 -0.0705811 3.66687 )  
( -0.110077 0.0579565 3.74214 )  
( -0.0810862 -0.0219212 3.5997 )  
( -0.0471746 0.0573607 3.31254 )  
( -0.187015 -0.17053 3.3835 )  
( -0.0276852 0.0290738 3.85588 )  
( 0.153982 -0.105633 3.64379 )  
( -0.100346 0.14201 3.76111 )  
( 0.10081 0.0915116 3.08191 )  
( -0.0964815 0.131622 3.66974 )  
( -0.023357 0.0258138 3.63721 )  
( 0.0122681 0.0940683 3.72811 )  
( -0.143125 0.0437844 3.68776 )  
( -0.0868952 0.0626115 3.72866 )  
( 0.0602544 0.0543566 3.79473 )  
( -0.0839005 0.139071 3.88343 )  
( -0.0524858 -0.110063 3.58986 )  
( -0.0314071 0.143087 3.79056 )  
( 0.0398822 0.0911538 3.6802 )  
( -0.0178284 -0.322351 3.87596 )  
( -0.0391715 -0.169129 3.72454 )  
( -0.0755814 0.17585 3.68059 )  
( -0.20095 0.119993 3.46859 )  
( -0.136487 -0.189863 3.53428 )  
( -0.056817 0.213109 3.74348 )  
( -0.0661771 -0.0204099 3.70472 )  
( -0.283447 -0.119415 3.83959 )  
( 0.01671 0.566372 0.968774 )  
( 0.120092 0.123606 3.53937 )  
( 0.0770624 0.062798 3.93645 )  
( -0.078144 -0.198591 3.07617 )  
( -0.137025 0.00412148 3.16983 )  
( -0.329426 -0.248069 3.44976 )  
( 0.0708663 0.2135 3.24703 )  
( -0.143756 0.0793662 3.86402 )  
( -0.308762 0.190375 2.8978 )  
( -0.117475 0.0853477 3.65019 )  
( 0.253512 -0.243605 2.90819 )  
( -0.276525 -0.327431 3.88103 )  
( -0.219402 0.158862 3.75002 )  
( -0.401972 -0.0265608 3.41047 )  
( -0.0270242 0.231772 3.79354 )  
( 0.0267105 0.0884347 3.33533 )  
( -0.0142047 -0.00556341 0.0414754 )  
( 0.0329151 0.0340987 4.0785 )  
( 0.0160372 0.00666176 -0.0203602 )  
( 0.035982 -1.03687 2.47004 )  
( -0.0101162 0.000799306 0.0986125 )  
( -0.107841 0.00331431 3.56233 )  
( 0.128219 0.0501177 0.903903 )  
( 0.193182 0.23929 3.82763 )  
( -0.232883 0.370386 4.0269 )  
( 0.195027 -0.000359191 3.66246 )  
( -0.00472596 -0.0240236 0.0841541 )  
( -1.00612 -0.39153 3.12283 )  
( 0.0191093 -0.0330638 0.0836999 )  
( 0.0107138 -0.00587039 0.0620513 )  
( 0.0019637 0.0271652 0.0678607 )  
( 0.000351568 -0.0419111 0.107859 )  
( -0.19156 -0.0999069 3.80839 )  
)
