/*--------------------------------*- C++ -*----------------------------------*\
| =========                 |                                                 |
| \\      /  F ield         | OpenFOAM: The Open Source CFD Toolbox           |
|  \\    /   O peration     | Version:  5.x                                   |
|   \\  /    A nd           | Web:      www.OpenFOAM.org                      |
|    \\/     M anipulation  |                                                 |
\*---------------------------------------------------------------------------*/
FoamFile
{
    version     2.0;
    format      ascii;
    class       volScalarField;
    location    "700";
    object      p;
}
// * * * * * * * * * * * * * * * * * * * * * * * * * * * * * * * * * * * * * //

dimensions      [0 2 -2 0 0 0 0];

internalField   nonuniform List<scalar> 
90
(
-3.02595e-11
-8.63251e-11
-1.35941e-10
-1.75838e-10
-2.01479e-10
-2.08161e-10
-1.91102e-10
-1.45599e-10
-6.72447e-11
4.78102e-11
2.02555e-10
3.98903e-10
6.37651e-10
9.18683e-10
1.24149e-09
1.60604e-09
2.01397e-09
2.47037e-09
2.98486e-09
3.57295e-09
4.25737e-09
5.06909e-09
6.04815e-09
7.24394e-09
8.71166e-09
1.05145e-08
1.27249e-08
1.54258e-08
1.87172e-08
2.27206e-08
2.75111e-08
3.28696e-08
3.86885e-08
4.94934e-08
8.15252e-08
1.2888e-07
-5.34774e-08
-6.98051e-07
4.51592e-06
-1.3172e-05
1.48672e-05
0.000699003
0.0014088
0.002124
0.00293429
0.00377218
0.00454012
0.00526136
0.00610245
0.00697256
0.0077283
0.00841949
0.00858532
0.0085906
0.00858881
0.00858896
0.00858902
0.00858904
0.00858906
0.00858907
0.00858908
0.00858909
0.00858909
0.00858909
0.00858909
0.00858909
0.00858909
0.00858909
0.00858909
0.00858909
0.00858909
0.00858909
0.00858909
0.00858909
0.00858909
0.00858909
0.00858909
0.00858909
0.00858909
0.00858909
0.00858909
0.00858909
0.00858909
0.00858909
0.00858909
0.00858909
0.00858909
0.00858909
0.00858909
0.00858909
)
;

boundaryField
{
    inlet
    {
        type            zeroGradient;
    }
    outlet
    {
        type            fixedValue;
        value           uniform 0;
    }
    repeat_boundary
    {
        type            zeroGradient;
    }
    procBoundary2to0
    {
        type            processor;
        value           nonuniform List<scalar> 
90
(
-1.20567e-10
-3.56353e-10
-5.74653e-10
-7.65484e-10
-9.21392e-10
-1.03804e-09
-1.11476e-09
-1.15497e-09
-1.1664e-09
-1.16147e-09
-1.15784e-09
-1.17909e-09
-1.25574e-09
-1.42673e-09
-1.74163e-09
-2.26307e-09
-3.07704e-09
-4.26969e-09
-5.95897e-09
-8.29533e-09
-1.14711e-08
-1.57345e-08
-2.14082e-08
-2.89168e-08
-3.8818e-08
-5.18535e-08
-6.90129e-08
-9.16166e-08
-1.21422e-07
-1.60769e-07
-2.12817e-07
-2.81916e-07
-3.73382e-07
-4.91226e-07
-6.38119e-07
-8.44428e-07
-1.25441e-06
-2.00054e-06
5.83752e-07
-1.07742e-05
2.90879e-06
0.000441201
0.00123852
0.00194357
0.00268695
0.00366198
0.00468389
0.00562887
0.00637929
0.0069571
0.00771554
0.00846183
0.00858114
0.0085837
0.00858465
0.0085857
0.00858655
0.00858718
0.00858765
0.00858801
0.00858828
0.00858848
0.00858863
0.00858874
0.00858883
0.00858889
0.00858894
0.00858898
0.008589
0.00858902
0.00858904
0.00858905
0.00858906
0.00858907
0.00858907
0.00858908
0.00858908
0.00858908
0.00858909
0.00858909
0.00858909
0.00858909
0.00858909
0.00858909
0.00858909
0.00858909
0.00858908
0.00858908
0.00858908
0.00858908
)
;
    }
    procBoundary2to3
    {
        type            processor;
        value           nonuniform List<scalar> 
90
(
-9.22793e-11
-2.68947e-10
-4.2242e-10
-5.38418e-10
-6.0456e-10
-6.10609e-10
-5.48593e-10
-4.12638e-10
-1.98574e-10
9.66718e-11
4.75892e-10
9.42591e-10
1.50216e-09
2.16336e-09
2.94014e-09
3.8542e-09
4.93825e-09
6.24017e-09
7.8294e-09
9.80461e-09
1.23028e-08
1.55095e-08
1.96861e-08
2.52807e-08
3.27041e-08
4.25509e-08
5.56423e-08
7.30568e-08
9.62197e-08
1.2702e-07
1.67905e-07
2.21917e-07
2.93393e-07
3.91614e-07
5.34803e-07
7.24847e-07
8.10216e-07
5.58169e-07
4.80509e-06
-7.30286e-06
1.19035e-05
0.000552292
0.00125269
0.00211073
0.00315741
0.00398492
0.00470849
0.0054369
0.00624174
0.00718927
0.00791875
0.00848466
0.00859604
0.00859536
0.00859354
0.00859237
0.00859157
0.00859095
0.00859049
0.00859014
0.00858987
0.00858967
0.00858953
0.00858942
0.00858934
0.00858928
0.00858923
0.00858919
0.00858917
0.00858915
0.00858913
0.00858912
0.00858911
0.00858911
0.0085891
0.0085891
0.0085891
0.0085891
0.00858909
0.00858909
0.00858909
0.00858909
0.00858909
0.00858909
0.00858909
0.00858909
0.00858909
0.00858908
0.00858908
0.00858908
)
;
    }
}


// ************************************************************************* //
