/*--------------------------------*- C++ -*----------------------------------*\
  =========                 |
  \\      /  F ield         | OpenFOAM: The Open Source CFD Toolbox
   \\    /   O peration     | Website:  https://openfoam.org
    \\  /    A nd           | Version:  9
     \\/     M anipulation  |
\*---------------------------------------------------------------------------*/
FoamFile
{
    format      ascii;
    class       volVectorField;
    location    "50000";
    object      U;
}
// * * * * * * * * * * * * * * * * * * * * * * * * * * * * * * * * * * * * * //

dimensions      [0 1 -1 0 0 0 0];

internalField   nonuniform List<vector> 
9000
(
(3.87753e-12 4.39936e-11 -0.001)
(-6.49038e-12 4.17423e-11 -0.001)
(-3.39276e-11 4.05404e-11 -0.001)
(-3.48748e-11 3.99295e-11 -0.001)
(-5.51298e-11 4.01936e-11 -0.001)
(-7.72752e-11 3.75488e-11 -0.001)
(-6.60997e-11 3.97926e-11 -0.001)
(-5.36997e-11 3.80199e-11 -0.001)
(-3.18803e-11 3.90096e-11 -0.001)
(-1.07899e-11 3.77291e-11 -0.001)
(1.55901e-12 1.0563e-10 -0.000999999)
(-1.00376e-11 1.02032e-10 -0.000999999)
(-3.57847e-11 1.00061e-10 -0.001)
(-3.53892e-11 1.00532e-10 -0.001)
(-5.78082e-11 1.05961e-10 -0.001)
(-7.79505e-11 9.62593e-11 -0.001)
(-6.58282e-11 1.0336e-10 -0.001)
(-5.45802e-11 9.7673e-11 -0.001)
(-3.21531e-11 9.70243e-11 -0.001)
(-1.20319e-11 9.38058e-11 -0.001)
(1.38645e-13 1.4538e-10 -0.000999999)
(-1.22599e-11 1.42935e-10 -0.000999999)
(-3.54913e-11 1.44613e-10 -0.000999999)
(-2.91279e-11 1.44781e-10 -0.000999999)
(-5.96323e-11 1.69724e-10 -0.000999999)
(-8.01289e-11 1.32137e-10 -0.001)
(-6.48569e-11 1.47984e-10 -0.001)
(-6.01295e-11 1.37397e-10 -0.001)
(-3.56013e-11 1.35163e-10 -0.001)
(-1.38261e-11 1.32125e-10 -0.001)
(-1.12403e-12 1.88725e-10 -0.000999999)
(-1.10907e-11 1.87324e-10 -0.000999999)
(-3.39553e-11 1.95526e-10 -0.000999999)
(-1.02901e-11 2.04286e-10 -0.000999999)
(-7.05179e-11 2.85312e-10 -0.000999999)
(-9.97007e-11 1.01006e-10 -0.000999999)
(-6.05278e-11 1.64124e-10 -0.000999999)
(-6.7394e-11 1.68119e-10 -0.001)
(-3.71489e-11 1.70107e-10 -0.001)
(-1.47951e-11 1.69161e-10 -0.001)
(-1.68587e-12 1.93033e-10 -0.000999999)
(-5.89702e-12 1.93717e-10 -0.000999999)
(-1.85465e-11 1.86997e-10 -0.000999999)
(6.0651e-11 1.69551e-10 -0.000999999)
(-1.62966e-10 5.63664e-11 -0.000999998)
(-2.01314e-10 3.00999e-10 -0.000999999)
(2.21868e-12 1.62906e-10 -0.000999999)
(-5.41301e-11 1.68427e-10 -0.000999999)
(-3.42091e-11 1.70564e-10 -0.000999999)
(-1.4442e-11 1.73024e-10 -0.000999999)
(-8.41455e-13 1.76348e-10 -0.000999998)
(-1.75638e-11 1.78888e-10 -0.000999998)
(-5.81435e-11 1.62784e-10 -0.000999998)
(-1.41023e-10 1.48047e-10 -0.000999998)
(6.08451e-11 2.03287e-11 -0.000999999)
(6.76235e-12 2.18055e-10 -0.000999998)
(-1.93062e-10 1.32791e-10 -0.000999999)
(-5.9675e-11 1.3832e-10 -0.000999999)
(-3.21586e-11 1.40079e-10 -0.000999999)
(-1.19449e-11 1.4109e-10 -0.000999999)
(5.26966e-13 1.67031e-10 -0.000999998)
(-1.98099e-11 1.65157e-10 -0.000999998)
(-4.94035e-11 1.55071e-10 -0.000999998)
(-8.19126e-11 1.56854e-10 -0.000999998)
(-9.30243e-11 2.08795e-10 -0.000999998)
(-8.8752e-11 -2.02253e-12 -0.000999998)
(-7.73662e-11 1.10283e-10 -0.000999999)
(-4.67844e-11 1.18828e-10 -0.000999999)
(-3.10929e-11 1.20516e-10 -0.000999999)
(-1.30681e-11 1.19327e-10 -0.000999999)
(-3.06235e-12 1.32921e-10 -0.000999998)
(-2.98546e-11 1.25815e-10 -0.000999998)
(-6.6459e-11 1.15838e-10 -0.000999998)
(-8.73027e-11 9.82161e-11 -0.000999998)
(-9.79998e-11 1.01704e-10 -0.000999998)
(-9.16228e-11 9.00269e-11 -0.000999998)
(-7.21919e-11 1.04016e-10 -0.000999998)
(-4.94161e-11 1.02371e-10 -0.000999998)
(-3.13804e-11 1.00937e-10 -0.000999999)
(-1.28559e-11 1.00843e-10 -0.000999999)
(-6.82563e-12 8.17788e-11 -0.000999997)
(-3.71573e-11 7.51115e-11 -0.000999997)
(-7.70075e-11 7.00967e-11 -0.000999998)
(-9.60391e-11 6.0245e-11 -0.000999998)
(-1.01204e-10 6.14527e-11 -0.000999998)
(-8.64227e-11 5.83533e-11 -0.000999998)
(-6.50088e-11 6.83718e-11 -0.000999998)
(-4.98458e-11 6.75388e-11 -0.000999998)
(-3.24004e-11 6.54872e-11 -0.000999998)
(-1.29465e-11 6.47681e-11 -0.000999998)
(-9.84739e-12 2.76754e-11 -0.000999997)
(-4.1615e-11 2.46871e-11 -0.000999997)
(-8.11872e-11 2.32027e-11 -0.000999997)
(-9.57112e-11 2.03805e-11 -0.000999998)
(-9.97245e-11 2.32611e-11 -0.000999998)
(-8.4559e-11 2.17187e-11 -0.000999998)
(-6.28336e-11 2.50167e-11 -0.000999998)
(-5.2189e-11 2.37076e-11 -0.000999998)
(-3.39607e-11 2.26061e-11 -0.000999998)
(-1.3426e-11 2.2084e-11 -0.000999998)
(6.32911e-12 1.21254e-10 -0.001)
(-2.39011e-11 1.13802e-10 -0.001)
(-9.05258e-11 1.10773e-10 -0.001)
(-8.91332e-11 1.09804e-10 -0.001)
(-1.41476e-10 1.07285e-10 -0.001)
(-2.12785e-10 1.08145e-10 -0.001)
(-1.88238e-10 1.09224e-10 -0.001)
(-1.47306e-10 1.06202e-10 -0.001)
(-9.19474e-11 1.06161e-10 -0.001)
(-3.2652e-11 1.00385e-10 -0.001)
(-1.31855e-12 2.95901e-10 -0.001)
(-3.46435e-11 2.85487e-10 -0.001)
(-9.46637e-11 2.80794e-10 -0.001)
(-9.30584e-11 2.79137e-10 -0.001)
(-1.43806e-10 2.84125e-10 -0.001)
(-2.11408e-10 2.75333e-10 -0.001)
(-1.90582e-10 2.81931e-10 -0.001)
(-1.5059e-10 2.6929e-10 -0.001)
(-9.76611e-11 2.6602e-10 -0.001)
(-3.8258e-11 2.55581e-10 -0.001)
(-4.48688e-12 4.13941e-10 -0.000999999)
(-3.95467e-11 4.08302e-10 -0.000999999)
(-9.70641e-11 4.09454e-10 -0.001)
(-8.61709e-11 4.03349e-10 -0.001)
(-1.4579e-10 4.46053e-10 -0.001)
(-2.15383e-10 3.7709e-10 -0.001)
(-1.94643e-10 3.98522e-10 -0.001)
(-1.63445e-10 3.77368e-10 -0.001)
(-1.05277e-10 3.73517e-10 -0.001)
(-4.26111e-11 3.66172e-10 -0.001)
(-7.63781e-12 5.44799e-10 -0.000999999)
(-3.99185e-11 5.40811e-10 -0.000999999)
(-9.96621e-11 5.49215e-10 -0.000999999)
(-5.64845e-11 5.50741e-10 -0.000999999)
(-1.70039e-10 7.29446e-10 -0.000999999)
(-2.58959e-10 3.13985e-10 -0.000999999)
(-1.90373e-10 4.29766e-10 -0.001)
(-1.75581e-10 4.52489e-10 -0.001)
(-1.08124e-10 4.67409e-10 -0.001)
(-4.48596e-11 4.68984e-10 -0.001)
(-9.58846e-12 5.65378e-10 -0.000999999)
(-3.62851e-11 5.71055e-10 -0.000999999)
(-8.71765e-11 5.56196e-10 -0.000999999)
(9.40622e-11 5.21763e-10 -0.000999999)
(-3.82562e-10 2.41689e-10 -0.000999999)
(-5.15233e-10 7.5192e-10 -0.000999999)
(-5.61691e-11 4.95292e-10 -0.000999999)
(-1.25768e-10 4.88621e-10 -0.000999999)
(-8.78285e-11 4.87113e-10 -0.001)
(-4.01243e-11 4.93491e-10 -0.001)
(-3.10259e-12 5.05191e-10 -0.000999998)
(-5.02923e-11 5.09439e-10 -0.000999998)
(-1.48996e-10 4.72804e-10 -0.000999998)
(-3.70915e-10 4.40628e-10 -0.000999998)
(5.98999e-11 1.1468e-10 -0.000999999)
(-5.35998e-12 6.09714e-10 -0.000999999)
(-4.53416e-10 4.34039e-10 -0.000999999)
(-1.83693e-10 4.20873e-10 -0.000999999)
(-1.02224e-10 4.12628e-10 -0.000999999)
(-3.74306e-11 4.1316e-10 -0.000999999)
(-6.21297e-12 4.6507e-10 -0.000999998)
(-6.96139e-11 4.52259e-10 -0.000999998)
(-1.56041e-10 4.23001e-10 -0.000999998)
(-2.6428e-10 4.1302e-10 -0.000999998)
(-2.13473e-10 5.40911e-10 -0.000999998)
(-1.95553e-10 1.02239e-10 -0.000999998)
(-2.44957e-10 3.1147e-10 -0.000999999)
(-1.47165e-10 3.39453e-10 -0.000999999)
(-9.46893e-11 3.47213e-10 -0.000999999)
(-3.87047e-11 3.45191e-10 -0.000999999)
(-1.67357e-11 3.71415e-10 -0.000999998)
(-9.32066e-11 3.51686e-10 -0.000999998)
(-1.88268e-10 3.30789e-10 -0.000999998)
(-2.53031e-10 2.98924e-10 -0.000999998)
(-2.50873e-10 3.37953e-10 -0.000999998)
(-2.34886e-10 2.49857e-10 -0.000999998)
(-2.16228e-10 2.96896e-10 -0.000999998)
(-1.47923e-10 2.98253e-10 -0.000999999)
(-9.58035e-11 2.94266e-10 -0.000999999)
(-3.8802e-11 2.93434e-10 -0.000999999)
(-2.66065e-11 2.25866e-10 -0.000999997)
(-1.10935e-10 2.0793e-10 -0.000999997)
(-2.08815e-10 1.98347e-10 -0.000999998)
(-2.57099e-10 1.82238e-10 -0.000999998)
(-2.62504e-10 2.04817e-10 -0.000999998)
(-2.36551e-10 1.77033e-10 -0.000999998)
(-1.96543e-10 2.01544e-10 -0.000999998)
(-1.49751e-10 1.97967e-10 -0.000999998)
(-9.8936e-11 1.91814e-10 -0.000999998)
(-3.89898e-11 1.90162e-10 -0.000999998)
(-3.49603e-11 7.43952e-11 -0.000999997)
(-1.20913e-10 6.61086e-11 -0.000999997)
(-2.13599e-10 6.43758e-11 -0.000999997)
(-2.45984e-10 6.09771e-11 -0.000999998)
(-2.55518e-10 7.48085e-11 -0.000999998)
(-2.37559e-10 6.74088e-11 -0.000999998)
(-1.94761e-10 7.33082e-11 -0.000999998)
(-1.57344e-10 6.86852e-11 -0.000999998)
(-1.0302e-10 6.54967e-11 -0.000999998)
(-4.00033e-11 6.42802e-11 -0.000999998)
(-6.9757e-12 1.96261e-10 -0.001)
(-7.08078e-11 1.8637e-10 -0.001)
(-1.63533e-10 1.82179e-10 -0.001)
(-1.61484e-10 1.78368e-10 -0.001)
(-2.39085e-10 1.68165e-10 -0.001)
(-3.64692e-10 1.80013e-10 -0.001)
(-3.34145e-10 1.75168e-10 -0.001)
(-2.50435e-10 1.71428e-10 -0.001)
(-1.65989e-10 1.69948e-10 -0.001)
(-6.20934e-11 1.60881e-10 -0.001)
(-1.72183e-11 5.01753e-10 -0.001)
(-8.55785e-11 4.878e-10 -0.001)
(-1.72055e-10 4.811e-10 -0.001)
(-1.76142e-10 4.69076e-10 -0.001)
(-2.38272e-10 4.49762e-10 -0.001)
(-3.58455e-10 4.73802e-10 -0.001)
(-3.43309e-10 4.58267e-10 -0.001)
(-2.561e-10 4.4656e-10 -0.001)
(-1.76519e-10 4.42039e-10 -0.001)
(-7.09478e-11 4.2862e-10 -0.001)
(-2.17316e-11 7.25944e-10 -0.001)
(-9.2617e-11 7.18524e-10 -0.001)
(-1.82712e-10 7.13407e-10 -0.001)
(-1.93349e-10 6.83634e-10 -0.001)
(-2.35063e-10 6.71998e-10 -0.001)
(-3.569e-10 6.7281e-10 -0.001)
(-3.61955e-10 6.60938e-10 -0.001)
(-2.67101e-10 6.38528e-10 -0.001)
(-1.83336e-10 6.37091e-10 -0.001)
(-7.46871e-11 6.3245e-10 -0.001)
(-2.58763e-11 9.57988e-10 -0.000999999)
(-9.95189e-11 9.4823e-10 -0.000999999)
(-2.07034e-10 9.31527e-10 -0.001)
(-2.1764e-10 8.85968e-10 -0.001)
(-2.4916e-10 9.52184e-10 -0.001)
(-3.69475e-10 7.37768e-10 -0.001)
(-3.77597e-10 7.80803e-10 -0.001)
(-2.79917e-10 7.786e-10 -0.001)
(-1.81314e-10 7.96921e-10 -0.001)
(-7.43013e-11 8.04394e-10 -0.001)
(-3.32788e-11 1.0147e-09 -0.000999999)
(-1.20996e-10 1.0247e-09 -0.000999999)
(-2.45112e-10 1.00863e-09 -0.000999999)
(-1.72731e-10 9.94406e-10 -0.000999999)
(-3.83174e-10 7.73741e-10 -0.001)
(-5.27967e-10 9.61424e-10 -0.000999999)
(-3.21042e-10 8.6913e-10 -0.001)
(-2.50917e-10 8.7016e-10 -0.001)
(-1.5592e-10 8.68971e-10 -0.001)
(-6.56716e-11 8.78202e-10 -0.001)
(-1.78753e-11 9.08936e-10 -0.000999998)
(-1.07689e-10 9.09938e-10 -0.000999998)
(-2.37476e-10 8.7858e-10 -0.000999999)
(-4.52516e-10 8.62985e-10 -0.000999999)
(-2.81783e-10 6.33838e-10 -0.000999999)
(-2.73971e-10 8.77357e-10 -0.000999999)
(-4.69142e-10 8.07557e-10 -0.000999999)
(-2.80072e-10 8.05976e-10 -0.000999999)
(-1.7148e-10 7.92111e-10 -0.000999999)
(-6.33069e-11 7.8977e-10 -0.001)
(-3.39385e-11 8.11348e-10 -0.000999998)
(-1.53153e-10 7.8298e-10 -0.000999998)
(-2.92181e-10 7.41457e-10 -0.000999998)
(-4.17316e-10 6.96979e-10 -0.000999998)
(-3.68611e-10 7.80345e-10 -0.000999998)
(-3.54571e-10 5.79953e-10 -0.000999999)
(-3.9262e-10 6.64061e-10 -0.000999999)
(-2.66298e-10 6.74335e-10 -0.000999999)
(-1.70598e-10 6.74519e-10 -0.000999999)
(-6.65043e-11 6.67833e-10 -0.000999999)
(-4.7646e-11 6.44005e-10 -0.000999998)
(-1.79089e-10 6.20009e-10 -0.000999998)
(-3.23507e-10 6.03001e-10 -0.000999998)
(-4.13552e-10 5.77438e-10 -0.000999998)
(-3.988e-10 6.17053e-10 -0.000999998)
(-3.90289e-10 5.37156e-10 -0.000999998)
(-3.74731e-10 5.69925e-10 -0.000999998)
(-2.69546e-10 5.67963e-10 -0.000999999)
(-1.76718e-10 5.59265e-10 -0.000999999)
(-6.87853e-11 5.54754e-10 -0.000999999)
(-5.90602e-11 3.90253e-10 -0.000999997)
(-1.95338e-10 3.72333e-10 -0.000999997)
(-3.34756e-10 3.67348e-10 -0.000999997)
(-4.0323e-10 3.64741e-10 -0.000999998)
(-4.08872e-10 4.00678e-10 -0.000999998)
(-4.01667e-10 3.65326e-10 -0.000999998)
(-3.61777e-10 3.82311e-10 -0.000999998)
(-2.76881e-10 3.72095e-10 -0.000999998)
(-1.82704e-10 3.63004e-10 -0.000999998)
(-6.99377e-11 3.60192e-10 -0.000999998)
(-6.61132e-11 1.26159e-10 -0.000999997)
(-2.02377e-10 1.19222e-10 -0.000999997)
(-3.30511e-10 1.19035e-10 -0.000999997)
(-3.79429e-10 1.22868e-10 -0.000999997)
(-3.97427e-10 1.41956e-10 -0.000999998)
(-4.07761e-10 1.33542e-10 -0.000999998)
(-3.67104e-10 1.35025e-10 -0.000999998)
(-2.88293e-10 1.27404e-10 -0.000999998)
(-1.87566e-10 1.2319e-10 -0.000999998)
(-7.07492e-11 1.22043e-10 -0.000999998)
(-3.36198e-11 2.77804e-10 -0.001)
(-1.44947e-10 2.67654e-10 -0.001)
(-2.6562e-10 2.63266e-10 -0.001)
(-2.73402e-10 2.56962e-10 -0.001)
(-3.75426e-10 2.35378e-10 -0.001)
(-5.33211e-10 2.49959e-10 -0.001)
(-4.90347e-10 2.45565e-10 -0.001)
(-3.67629e-10 2.42212e-10 -0.001)
(-2.49257e-10 2.40993e-10 -0.001)
(-9.48264e-11 2.31553e-10 -0.001)
(-4.43591e-11 7.4369e-10 -0.001)
(-1.60445e-10 7.29682e-10 -0.001)
(-2.76998e-10 7.19416e-10 -0.001)
(-3.02147e-10 6.95595e-10 -0.001)
(-3.83407e-10 6.4788e-10 -0.001)
(-5.23965e-10 6.78322e-10 -0.001)
(-4.99004e-10 6.58672e-10 -0.001)
(-3.72965e-10 6.51476e-10 -0.001)
(-2.59965e-10 6.49793e-10 -0.001)
(-1.03999e-10 6.38843e-10 -0.001)
(-4.89358e-11 1.11179e-09 -0.001)
(-1.70948e-10 1.10392e-09 -0.001)
(-3.00364e-10 1.08693e-09 -0.001)
(-3.45624e-10 1.02821e-09 -0.001)
(-3.93541e-10 9.46071e-10 -0.001)
(-5.23399e-10 1.02757e-09 -0.001)
(-5.18097e-10 9.74777e-10 -0.001)
(-3.77233e-10 9.58761e-10 -0.001)
(-2.61099e-10 9.63867e-10 -0.001)
(-1.04667e-10 9.65621e-10 -0.001)
(-5.4199e-11 1.45848e-09 -0.001)
(-1.87476e-10 1.44117e-09 -0.001)
(-3.52828e-10 1.39979e-09 -0.001)
(-4.43005e-10 1.28863e-09 -0.001)
(-3.84064e-10 1.18712e-09 -0.001)
(-4.95391e-10 1.31861e-09 -0.001)
(-5.6787e-10 1.24145e-09 -0.001)
(-3.83837e-10 1.2059e-09 -0.001)
(-2.51213e-10 1.21694e-09 -0.001)
(-1.00398e-10 1.22653e-09 -0.001)
(-6.88227e-11 1.56174e-09 -0.000999999)
(-2.3247e-10 1.56271e-09 -0.000999999)
(-4.53002e-10 1.53268e-09 -0.000999999)
(-5.58218e-10 1.52469e-09 -0.001)
(-3.63565e-10 1.4611e-09 -0.001)
(-4.69312e-10 1.23537e-09 -0.001)
(-6.30812e-10 1.31857e-09 -0.001)
(-4.0166e-10 1.35141e-09 -0.001)
(-2.38114e-10 1.35433e-09 -0.001)
(-9.2833e-11 1.36643e-09 -0.001)
(-5.62214e-11 1.41825e-09 -0.000999998)
(-2.19587e-10 1.41509e-09 -0.000999999)
(-3.90858e-10 1.38889e-09 -0.000999999)
(-5.14597e-10 1.41359e-09 -0.000999999)
(-6.73594e-10 1.40125e-09 -0.000999999)
(-6.37935e-10 1.1816e-09 -0.001)
(-4.51752e-10 1.28141e-09 -0.001)
(-3.47977e-10 1.31426e-09 -0.001)
(-2.33567e-10 1.30399e-09 -0.001)
(-8.57944e-11 1.30166e-09 -0.001)
(-7.47116e-11 1.24875e-09 -0.000999998)
(-2.64591e-10 1.22212e-09 -0.000999998)
(-4.54576e-10 1.1893e-09 -0.000999998)
(-5.45713e-10 1.14567e-09 -0.000999998)
(-5.95698e-10 1.14534e-09 -0.000999998)
(-5.89204e-10 1.24613e-09 -0.000999999)
(-4.98088e-10 1.19955e-09 -0.000999999)
(-3.78907e-10 1.16164e-09 -0.000999999)
(-2.4823e-10 1.14287e-09 -0.000999999)
(-9.27743e-11 1.12806e-09 -0.000999999)
(-8.50516e-11 9.87602e-10 -0.000999997)
(-2.81425e-10 9.73918e-10 -0.000999998)
(-4.67452e-10 9.69081e-10 -0.000999998)
(-5.58598e-10 9.68589e-10 -0.000999998)
(-5.73174e-10 9.74146e-10 -0.000999998)
(-5.83695e-10 9.95383e-10 -0.000999998)
(-5.36181e-10 9.69134e-10 -0.000999998)
(-4.04537e-10 9.44463e-10 -0.000999999)
(-2.64986e-10 9.25315e-10 -0.000999999)
(-9.84802e-11 9.1515e-10 -0.000999999)
(-9.01928e-11 6.07884e-10 -0.000999997)
(-2.85026e-10 6.00542e-10 -0.000999997)
(-4.59978e-10 6.04987e-10 -0.000999997)
(-5.40609e-10 6.21613e-10 -0.000999997)
(-5.68854e-10 6.48483e-10 -0.000999998)
(-5.94188e-10 6.38787e-10 -0.000999998)
(-5.48954e-10 6.29171e-10 -0.000999998)
(-4.22607e-10 6.1015e-10 -0.000999998)
(-2.75682e-10 5.97655e-10 -0.000999998)
(-1.01102e-10 5.93953e-10 -0.000999998)
(-9.33017e-11 2.00276e-10 -0.000999997)
(-2.84956e-10 1.9736e-10 -0.000999997)
(-4.45587e-10 2.00232e-10 -0.000999997)
(-5.14092e-10 2.10927e-10 -0.000999997)
(-5.54909e-10 2.25706e-10 -0.000999997)
(-6.01701e-10 2.23792e-10 -0.000999998)
(-5.63609e-10 2.16944e-10 -0.000999998)
(-4.35202e-10 2.08031e-10 -0.000999998)
(-2.79483e-10 2.03655e-10 -0.000999998)
(-1.00808e-10 2.03399e-10 -0.000999998)
(-7.25279e-11 3.77363e-10 -0.001)
(-2.50332e-10 3.67689e-10 -0.001)
(-4.13253e-10 3.62765e-10 -0.001)
(-4.59556e-10 3.51829e-10 -0.001)
(-5.71952e-10 3.29128e-10 -0.001)
(-7.20069e-10 3.34375e-10 -0.001)
(-6.61525e-10 3.35537e-10 -0.001)
(-4.9991e-10 3.35256e-10 -0.001)
(-3.38443e-10 3.34615e-10 -0.001)
(-1.27538e-10 3.26788e-10 -0.001)
(-8.30165e-11 1.04745e-09 -0.001)
(-2.66201e-10 1.03333e-09 -0.001)
(-4.29965e-10 1.01731e-09 -0.001)
(-4.94184e-10 9.81743e-10 -0.001)
(-5.90569e-10 9.28499e-10 -0.001)
(-7.15054e-10 9.27346e-10 -0.001)
(-6.62026e-10 9.26289e-10 -0.001)
(-5.01947e-10 9.26584e-10 -0.001)
(-3.47016e-10 9.29296e-10 -0.001)
(-1.35012e-10 9.23038e-10 -0.001)
(-8.85917e-11 1.60299e-09 -0.001)
(-2.82953e-10 1.59299e-09 -0.001)
(-4.65723e-10 1.56172e-09 -0.001)
(-5.49269e-10 1.48862e-09 -0.001)
(-6.27478e-10 1.39233e-09 -0.001)
(-7.2371e-10 1.43076e-09 -0.001)
(-6.6367e-10 1.40633e-09 -0.001)
(-4.97975e-10 1.4012e-09 -0.001)
(-3.40929e-10 1.41165e-09 -0.001)
(-1.32333e-10 1.41938e-09 -0.001)
(-9.59498e-11 2.08046e-09 -0.001)
(-3.10618e-10 2.05645e-09 -0.001)
(-5.34485e-10 2.00209e-09 -0.001)
(-6.6361e-10 1.87379e-09 -0.001)
(-6.48509e-10 1.70786e-09 -0.001)
(-7.01137e-10 1.92073e-09 -0.001)
(-6.91662e-10 1.83221e-09 -0.001)
(-4.96575e-10 1.79213e-09 -0.001)
(-3.26108e-10 1.79714e-09 -0.001)
(-1.24667e-10 1.80637e-09 -0.001)
(-1.16277e-10 2.25358e-09 -0.000999999)
(-3.6526e-10 2.23983e-09 -0.000999999)
(-6.48458e-10 2.18901e-09 -0.001)
(-8.43535e-10 2.1499e-09 -0.001)
(-5.80569e-10 2.15502e-09 -0.001)
(-5.99393e-10 1.89791e-09 -0.001)
(-7.92261e-10 1.96212e-09 -0.001)
(-5.32871e-10 2.00171e-09 -0.001)
(-3.23109e-10 2.00875e-09 -0.001)
(-1.19702e-10 2.01989e-09 -0.001)
(-1.13936e-10 2.09203e-09 -0.000999999)
(-3.79574e-10 2.08642e-09 -0.000999999)
(-6.24609e-10 2.06453e-09 -0.000999999)
(-6.97734e-10 2.09929e-09 -0.000999999)
(-9.00781e-10 2.19068e-09 -0.000999999)
(-8.94058e-10 1.84869e-09 -0.001)
(-5.87668e-10 1.95537e-09 -0.001)
(-4.49748e-10 1.99386e-09 -0.001)
(-3.03895e-10 1.98679e-09 -0.001)
(-1.09688e-10 1.98505e-09 -0.001)
(-1.25848e-10 1.83785e-09 -0.000999998)
(-3.96857e-10 1.8257e-09 -0.000999998)
(-6.35764e-10 1.82522e-09 -0.000999998)
(-7.17568e-10 1.82759e-09 -0.000999998)
(-8.31238e-10 1.79653e-09 -0.000999999)
(-8.34462e-10 1.94008e-09 -0.000999999)
(-6.47093e-10 1.87781e-09 -0.000999999)
(-5.01358e-10 1.81248e-09 -0.000999999)
(-3.28088e-10 1.77725e-09 -0.000999999)
(-1.17758e-10 1.75671e-09 -0.000999999)
(-1.2931e-10 1.4612e-09 -0.000999997)
(-3.95675e-10 1.46042e-09 -0.000999997)
(-6.22889e-10 1.47258e-09 -0.000999997)
(-7.2647e-10 1.49418e-09 -0.000999998)
(-7.88111e-10 1.48153e-09 -0.000999998)
(-8.12674e-10 1.5531e-09 -0.000999998)
(-7.15326e-10 1.49839e-09 -0.000999998)
(-5.50139e-10 1.45132e-09 -0.000999998)
(-3.5628e-10 1.42059e-09 -0.000999999)
(-1.26904e-10 1.40482e-09 -0.000999999)
(-1.29285e-10 9.18775e-10 -0.000999997)
(-3.88248e-10 9.19773e-10 -0.000999997)
(-6.02065e-10 9.34371e-10 -0.000999997)
(-7.08529e-10 9.5857e-10 -0.000999997)
(-7.72219e-10 9.70128e-10 -0.000999997)
(-8.17524e-10 9.8569e-10 -0.000999998)
(-7.48801e-10 9.57431e-10 -0.000999998)
(-5.78995e-10 9.31564e-10 -0.000999998)
(-3.71728e-10 9.16076e-10 -0.000999998)
(-1.30724e-10 9.12608e-10 -0.000999998)
(-1.29719e-10 3.09684e-10 -0.000999996)
(-3.81089e-10 3.09569e-10 -0.000999996)
(-5.83041e-10 3.16712e-10 -0.000999997)
(-6.89324e-10 3.27496e-10 -0.000999997)
(-7.59488e-10 3.34525e-10 -0.000999997)
(-8.23736e-10 3.38747e-10 -0.000999997)
(-7.67934e-10 3.26794e-10 -0.000999998)
(-5.90341e-10 3.18271e-10 -0.000999998)
(-3.72742e-10 3.14474e-10 -0.000999998)
(-1.28365e-10 3.15989e-10 -0.000999998)
(-1.25289e-10 5.0822e-10 -0.001)
(-3.90594e-10 4.99023e-10 -0.001)
(-6.19073e-10 4.92e-10 -0.001)
(-7.35558e-10 4.77643e-10 -0.001)
(-8.45227e-10 4.55782e-10 -0.001)
(-9.48404e-10 4.55502e-10 -0.001)
(-8.67075e-10 4.62182e-10 -0.001)
(-6.61634e-10 4.6552e-10 -0.001)
(-4.43463e-10 4.66615e-10 -0.001)
(-1.63755e-10 4.60751e-10 -0.001)
(-1.35636e-10 1.44421e-09 -0.001)
(-4.08548e-10 1.42982e-09 -0.001)
(-6.41611e-10 1.40563e-09 -0.001)
(-7.73156e-10 1.36281e-09 -0.001)
(-8.68909e-10 1.3136e-09 -0.001)
(-9.43824e-10 1.29085e-09 -0.001)
(-8.58853e-10 1.30789e-09 -0.001)
(-6.58525e-10 1.31684e-09 -0.001)
(-4.48229e-10 1.32339e-09 -0.001)
(-1.69076e-10 1.32062e-09 -0.001)
(-1.4251e-10 2.23707e-09 -0.001)
(-4.32691e-10 2.22378e-09 -0.001)
(-6.87347e-10 2.18039e-09 -0.001)
(-8.28968e-10 2.10843e-09 -0.001)
(-9.18761e-10 2.03998e-09 -0.001)
(-9.56006e-10 1.99048e-09 -0.001)
(-8.42912e-10 2.01396e-09 -0.001)
(-6.47417e-10 2.02578e-09 -0.001)
(-4.37992e-10 2.04107e-09 -0.001)
(-1.64359e-10 2.05229e-09 -0.001)
(-1.53112e-10 2.87202e-09 -0.001)
(-4.69654e-10 2.84317e-09 -0.001)
(-7.57198e-10 2.78323e-09 -0.001)
(-9.13651e-10 2.68385e-09 -0.001)
(-9.86957e-10 2.59679e-09 -0.001)
(-9.69943e-10 2.58508e-09 -0.001)
(-8.23645e-10 2.59899e-09 -0.001)
(-6.31314e-10 2.59166e-09 -0.001)
(-4.17689e-10 2.60172e-09 -0.001)
(-1.54001e-10 2.61327e-09 -0.001)
(-1.76528e-10 3.14819e-09 -0.001)
(-5.26968e-10 3.1267e-09 -0.001)
(-8.46874e-10 3.07205e-09 -0.001)
(-1.01542e-09 3.01613e-09 -0.001)
(-1.0175e-09 2.92524e-09 -0.001)
(-9.53676e-10 2.95272e-09 -0.001)
(-8.36334e-10 2.89703e-09 -0.001)
(-6.44478e-10 2.9045e-09 -0.001)
(-4.11282e-10 2.90734e-09 -0.001)
(-1.47944e-10 2.91523e-09 -0.001)
(-1.8045e-10 3.00145e-09 -0.000999998)
(-5.51936e-10 2.99965e-09 -0.000999999)
(-8.68021e-10 2.9887e-09 -0.000999999)
(-1.06057e-09 3.00399e-09 -0.000999999)
(-1.04995e-09 3.01025e-09 -0.001)
(-9.98079e-10 2.96406e-09 -0.001)
(-8.72113e-10 2.92293e-09 -0.001)
(-6.20778e-10 2.91774e-09 -0.001)
(-4.01227e-10 2.9033e-09 -0.001)
(-1.40635e-10 2.89717e-09 -0.001)
(-1.83933e-10 2.65513e-09 -0.000999997)
(-5.45553e-10 2.66015e-09 -0.000999998)
(-8.42819e-10 2.68537e-09 -0.000999998)
(-9.93726e-10 2.71906e-09 -0.000999998)
(-1.05745e-09 2.77768e-09 -0.000999998)
(-1.04126e-09 2.7147e-09 -0.000999999)
(-8.82647e-10 2.71223e-09 -0.000999999)
(-6.63883e-10 2.65479e-09 -0.000999999)
(-4.26243e-10 2.61609e-09 -0.000999999)
(-1.48676e-10 2.59352e-09 -0.000999999)
(-1.80228e-10 2.12265e-09 -0.000999997)
(-5.26733e-10 2.13306e-09 -0.000999997)
(-8.09306e-10 2.1581e-09 -0.000999997)
(-9.68312e-10 2.18918e-09 -0.000999997)
(-1.05447e-09 2.20066e-09 -0.000999997)
(-1.06341e-09 2.20519e-09 -0.000999998)
(-9.32015e-10 2.16854e-09 -0.000999998)
(-7.16747e-10 2.11755e-09 -0.000999998)
(-4.57482e-10 2.08268e-09 -0.000999998)
(-1.58316e-10 2.06531e-09 -0.000999998)
(-1.77397e-10 1.35496e-09 -0.000999996)
(-5.14136e-10 1.36237e-09 -0.000999996)
(-7.8679e-10 1.37852e-09 -0.000999996)
(-9.51092e-10 1.39866e-09 -0.000999996)
(-1.04128e-09 1.40308e-09 -0.000999997)
(-1.07327e-09 1.41543e-09 -0.000999997)
(-9.702e-10 1.38715e-09 -0.000999997)
(-7.49512e-10 1.36104e-09 -0.000999998)
(-4.74362e-10 1.34525e-09 -0.000999998)
(-1.62052e-10 1.34212e-09 -0.000999998)
(-1.74942e-10 4.63432e-10 -0.000999995)
(-5.04776e-10 4.66406e-10 -0.000999996)
(-7.71642e-10 4.72715e-10 -0.000999996)
(-9.41911e-10 4.80142e-10 -0.000999996)
(-1.03571e-09 4.8013e-10 -0.000999996)
(-1.07728e-09 4.8383e-10 -0.000999997)
(-9.84502e-10 4.74203e-10 -0.000999997)
(-7.57087e-10 4.67793e-10 -0.000999997)
(-4.72875e-10 4.65234e-10 -0.000999997)
(-1.58665e-10 4.67475e-10 -0.000999997)
(-1.90568e-10 6.86905e-10 -0.001)
(-5.70106e-10 6.78628e-10 -0.001)
(-8.92018e-10 6.68871e-10 -0.001)
(-1.10046e-09 6.5227e-10 -0.001)
(-1.21554e-09 6.32616e-10 -0.001)
(-1.25863e-09 6.3407e-10 -0.001)
(-1.14187e-09 6.4089e-10 -0.00100001)
(-8.85184e-10 6.47557e-10 -0.00100001)
(-5.86341e-10 6.50776e-10 -0.00100001)
(-2.11868e-10 6.46319e-10 -0.00100001)
(-2.00439e-10 1.97517e-09 -0.001)
(-5.90517e-10 1.95975e-09 -0.001)
(-9.20047e-10 1.92918e-09 -0.001)
(-1.13874e-09 1.88336e-09 -0.001)
(-1.23595e-09 1.83564e-09 -0.001)
(-1.25274e-09 1.82651e-09 -0.001)
(-1.13061e-09 1.84484e-09 -0.001)
(-8.76924e-10 1.86164e-09 -0.00100001)
(-5.87437e-10 1.87262e-09 -0.00100001)
(-2.15523e-10 1.87227e-09 -0.00100001)
(-2.09972e-10 3.07111e-09 -0.001)
(-6.21004e-10 3.05179e-09 -0.001)
(-9.70233e-10 3.0021e-09 -0.001)
(-1.19608e-09 2.93674e-09 -0.001)
(-1.27469e-09 2.88828e-09 -0.001)
(-1.25192e-09 2.8255e-09 -0.001)
(-1.10908e-09 2.86095e-09 -0.001)
(-8.59033e-10 2.89056e-09 -0.001)
(-5.73218e-10 2.91279e-09 -0.001)
(-2.09133e-10 2.92658e-09 -0.001)
(-2.25489e-10 3.90644e-09 -0.001)
(-6.65569e-10 3.87122e-09 -0.001)
(-1.03542e-09 3.81001e-09 -0.001)
(-1.25268e-09 3.73997e-09 -0.001)
(-1.34733e-09 3.69607e-09 -0.001)
(-1.28025e-09 3.6229e-09 -0.001)
(-1.06568e-09 3.65756e-09 -0.001)
(-8.24954e-10 3.68121e-09 -0.001)
(-5.45777e-10 3.70468e-09 -0.001)
(-1.9632e-10 3.71991e-09 -0.001)
(-2.5224e-10 4.3235e-09 -0.001)
(-7.24897e-10 4.30372e-09 -0.001)
(-1.10178e-09 4.2671e-09 -0.001)
(-1.31003e-09 4.21342e-09 -0.001)
(-1.39181e-09 4.11263e-09 -0.001)
(-1.29043e-09 4.20258e-09 -0.001)
(-1.05071e-09 4.15155e-09 -0.001)
(-8.11621e-10 4.13517e-09 -0.001)
(-5.27238e-10 4.13554e-09 -0.001)
(-1.86966e-10 4.13957e-09 -0.001)
(-2.53188e-10 4.23701e-09 -0.000999998)
(-7.30343e-10 4.24681e-09 -0.000999998)
(-1.12603e-09 4.25075e-09 -0.000999999)
(-1.40693e-09 4.25147e-09 -0.000999999)
(-1.35819e-09 4.20965e-09 -0.000999999)
(-1.24134e-09 4.29369e-09 -0.001)
(-1.1331e-09 4.21093e-09 -0.001)
(-8.40651e-10 4.16639e-09 -0.001)
(-5.33247e-10 4.13987e-09 -0.001)
(-1.84494e-10 4.12697e-09 -0.001)
(-2.50344e-10 3.7899e-09 -0.000999997)
(-7.1936e-10 3.80925e-09 -0.000999997)
(-1.09739e-09 3.83644e-09 -0.000999997)
(-1.35122e-09 3.88037e-09 -0.000999997)
(-1.34949e-09 3.93979e-09 -0.000999998)
(-1.28904e-09 3.84307e-09 -0.000999998)
(-1.17807e-09 3.81995e-09 -0.000999999)
(-8.82371e-10 3.77146e-09 -0.000999999)
(-5.58642e-10 3.73433e-09 -0.000999999)
(-1.92133e-10 3.71224e-09 -0.000999999)
(-2.40853e-10 3.03217e-09 -0.000999995)
(-6.91055e-10 3.05227e-09 -0.000999996)
(-1.05517e-09 3.07835e-09 -0.000999996)
(-1.30352e-09 3.10881e-09 -0.000999996)
(-1.39547e-09 3.13732e-09 -0.000999997)
(-1.36142e-09 3.06095e-09 -0.000999997)
(-1.20471e-09 3.04466e-09 -0.000999997)
(-9.25982e-10 3.00255e-09 -0.000999998)
(-5.85256e-10 2.97091e-09 -0.000999998)
(-1.9961e-10 2.95469e-09 -0.000999998)
(-2.35849e-10 1.95043e-09 -0.000999995)
(-6.7898e-10 1.96154e-09 -0.000999995)
(-1.04097e-09 1.97239e-09 -0.000999995)
(-1.29215e-09 1.98287e-09 -0.000999995)
(-1.3973e-09 1.98664e-09 -0.000999996)
(-1.38158e-09 1.97635e-09 -0.000999996)
(-1.23634e-09 1.95857e-09 -0.000999996)
(-9.5579e-10 1.93624e-09 -0.000999997)
(-6.007e-10 1.92149e-09 -0.000999997)
(-2.02799e-10 1.91685e-09 -0.000999997)
(-2.32909e-10 6.7113e-10 -0.000999994)
(-6.71539e-10 6.74873e-10 -0.000999994)
(-1.03202e-09 6.78584e-10 -0.000999994)
(-1.28684e-09 6.81974e-10 -0.000999995)
(-1.39939e-09 6.81558e-10 -0.000999995)
(-1.38683e-09 6.77475e-10 -0.000999996)
(-1.24235e-09 6.73846e-10 -0.000999996)
(-9.6099e-10 6.69122e-10 -0.000999996)
(-5.99784e-10 6.66743e-10 -0.000999996)
(-2.00377e-10 6.67583e-10 -0.000999997)
(-2.70036e-10 9.34114e-10 -0.001)
(-7.9748e-10 9.2534e-10 -0.001)
(-1.24431e-09 9.14358e-10 -0.00100001)
(-1.55664e-09 8.98144e-10 -0.00100001)
(-1.70517e-09 8.82134e-10 -0.00100001)
(-1.70569e-09 8.85349e-10 -0.00100001)
(-1.53988e-09 8.90778e-10 -0.00100001)
(-1.21174e-09 8.99344e-10 -0.00100001)
(-7.94645e-10 9.0448e-10 -0.00100001)
(-2.82436e-10 9.02407e-10 -0.00100001)
(-2.80997e-10 2.69552e-09 -0.001)
(-8.20495e-10 2.67739e-09 -0.001)
(-1.27387e-09 2.64617e-09 -0.001)
(-1.5917e-09 2.603e-09 -0.001)
(-1.72107e-09 2.55812e-09 -0.00100001)
(-1.70026e-09 2.56846e-09 -0.00100001)
(-1.52877e-09 2.58519e-09 -0.00100001)
(-1.20021e-09 2.60885e-09 -0.00100001)
(-7.91318e-10 2.62632e-09 -0.00100001)
(-2.83358e-10 2.63054e-09 -0.00100001)
(-2.93626e-10 4.18857e-09 -0.001)
(-8.53549e-10 4.16455e-09 -0.001)
(-1.32128e-09 4.11742e-09 -0.001)
(-1.64765e-09 4.05843e-09 -0.001)
(-1.74298e-09 4.00554e-09 -0.001)
(-1.68201e-09 3.99899e-09 -0.001)
(-1.50255e-09 4.02809e-09 -0.00100001)
(-1.17281e-09 4.06991e-09 -0.00100001)
(-7.69389e-10 4.10265e-09 -0.00100001)
(-2.73856e-10 4.11927e-09 -0.00100001)
(-3.12775e-10 5.29584e-09 -0.001)
(-8.99856e-10 5.26258e-09 -0.001)
(-1.38045e-09 5.20867e-09 -0.001)
(-1.70375e-09 5.15038e-09 -0.001)
(-1.78071e-09 5.0796e-09 -0.001)
(-1.67804e-09 5.13043e-09 -0.001)
(-1.45802e-09 5.13625e-09 -0.001)
(-1.12547e-09 5.17003e-09 -0.001)
(-7.34024e-10 5.20627e-09 -0.001)
(-2.59111e-10 5.22253e-09 -0.001)
(-3.36527e-10 5.90165e-09 -0.000999999)
(-9.50915e-10 5.88968e-09 -0.001)
(-1.43388e-09 5.87143e-09 -0.001)
(-1.77674e-09 5.84468e-09 -0.001)
(-1.76309e-09 5.8227e-09 -0.001)
(-1.62537e-09 5.75842e-09 -0.001)
(-1.46279e-09 5.78728e-09 -0.001)
(-1.10238e-09 5.79273e-09 -0.001)
(-7.06619e-10 5.80029e-09 -0.001)
(-2.47762e-10 5.80173e-09 -0.001)
(-3.35576e-10 5.90831e-09 -0.000999998)
(-9.41465e-10 5.92911e-09 -0.000999998)
(-1.42589e-09 5.94256e-09 -0.000999998)
(-1.75249e-09 5.94881e-09 -0.000999998)
(-1.86693e-09 5.95989e-09 -0.000999999)
(-1.71332e-09 5.8928e-09 -0.001)
(-1.42369e-09 5.87769e-09 -0.001)
(-1.11202e-09 5.83736e-09 -0.001)
(-7.13632e-10 5.8076e-09 -0.001)
(-2.46705e-10 5.78944e-09 -0.001)
(-3.26773e-10 5.33806e-09 -0.000999996)
(-9.28105e-10 5.36708e-09 -0.000999996)
(-1.41463e-09 5.38275e-09 -0.000999996)
(-1.75945e-09 5.40227e-09 -0.000999996)
(-1.8191e-09 5.39794e-09 -0.000999997)
(-1.70752e-09 5.41904e-09 -0.000999998)
(-1.51821e-09 5.34093e-09 -0.000999998)
(-1.17203e-09 5.27981e-09 -0.000999998)
(-7.43294e-10 5.24146e-09 -0.000999999)
(-2.55084e-10 5.21779e-09 -0.000999999)
(-3.16552e-10 4.26303e-09 -0.000999994)
(-9.07087e-10 4.28594e-09 -0.000999994)
(-1.39108e-09 4.30061e-09 -0.000999994)
(-1.7373e-09 4.31604e-09 -0.000999995)
(-1.8502e-09 4.32209e-09 -0.000999995)
(-1.77033e-09 4.26798e-09 -0.000999996)
(-1.5629e-09 4.23361e-09 -0.000999996)
(-1.2111e-09 4.19559e-09 -0.000999997)
(-7.6552e-10 4.16734e-09 -0.000999997)
(-2.60627e-10 4.151e-09 -0.000999997)
(-3.11753e-10 2.74683e-09 -0.000999993)
(-8.98656e-10 2.75846e-09 -0.000999993)
(-1.3847e-09 2.76332e-09 -0.000999993)
(-1.73781e-09 2.7672e-09 -0.000999994)
(-1.86698e-09 2.76537e-09 -0.000999994)
(-1.79581e-09 2.74264e-09 -0.000999995)
(-1.59042e-09 2.72864e-09 -0.000999995)
(-1.23784e-09 2.70748e-09 -0.000999996)
(-7.79795e-10 2.69219e-09 -0.000999996)
(-2.63722e-10 2.68455e-09 -0.000999996)