/*--------------------------------*- C++ -*----------------------------------*\
  =========                 |
  \\      /  F ield         | OpenFOAM: The Open Source CFD Toolbox
   \\    /   O peration     | Website:  https://openfoam.org
    \\  /    A nd           | Version:  9
     \\/     M anipulation  |
\*---------------------------------------------------------------------------*/
FoamFile
{
    format      ascii;
    class       volVectorField;
    location    "0.007";
    object      U;
}
// * * * * * * * * * * * * * * * * * * * * * * * * * * * * * * * * * * * * * //

dimensions      [0 1 -1 0 0 0 0];

internalField   nonuniform List<vector> 
720
(
(5.76182e-10 -9.51573e-09 -0.000999925)
(5.7618e-10 -9.53421e-09 -0.000999926)
(5.57699e-10 -9.51576e-09 -0.00100005)
(5.57698e-10 -9.53424e-09 -0.00100005)
(3.44966e-10 -1.22216e-08 -0.000999924)
(3.44963e-10 -1.22167e-08 -0.000999925)
(3.49839e-10 -1.22216e-08 -0.00100005)
(3.49839e-10 -1.22168e-08 -0.00100005)
(1.2199e-10 -1.67059e-08 -0.000999923)
(1.21985e-10 -1.67051e-08 -0.000999923)
(1.22778e-10 -1.6706e-08 -0.00100005)
(1.22777e-10 -1.67052e-08 -0.00100005)
(-4.48049e-11 -2.2262e-08 -0.00099992)
(-4.48096e-11 -2.22789e-08 -0.000999921)
(-6.16514e-11 -2.22621e-08 -0.00100005)
(-6.16527e-11 -2.22789e-08 -0.00100005)
(-1.64856e-10 -2.84671e-08 -0.000999918)
(-1.6486e-10 -2.85071e-08 -0.000999918)
(-2.04772e-10 -2.84672e-08 -0.00100005)
(-2.04774e-10 -2.85071e-08 -0.00100005)
(-2.59271e-10 -3.51322e-08 -0.000999914)
(-2.59274e-10 -3.5204e-08 -0.000999915)
(-3.31087e-10 -3.51323e-08 -0.00100006)
(-3.31089e-10 -3.52041e-08 -0.00100006)
(-3.46286e-10 -4.22133e-08 -0.00099991)
(-3.46288e-10 -4.23284e-08 -0.000999911)
(-4.61414e-10 -4.22133e-08 -0.00100006)
(-4.61416e-10 -4.23285e-08 -0.00100006)
(-4.37308e-10 -4.97391e-08 -0.000999906)
(-4.3731e-10 -4.99106e-08 -0.000999907)
(-6.08819e-10 -4.97392e-08 -0.00100007)
(-6.08822e-10 -4.99107e-08 -0.00100007)
(-5.38598e-10 -5.77707e-08 -0.0009999)
(-5.386e-10 -5.80137e-08 -0.000999902)
(-7.81635e-10 -5.77708e-08 -0.00100007)
(-7.81638e-10 -5.80139e-08 -0.00100007)
(-6.53952e-10 -6.63843e-08 -0.000999894)
(-6.53955e-10 -6.67166e-08 -0.000999896)
(-9.86221e-10 -6.63844e-08 -0.00100008)
(-9.86224e-10 -6.67167e-08 -0.00100008)
(-7.86318e-10 -7.56648e-08 -0.000999887)
(-7.86322e-10 -7.61071e-08 -0.000999889)
(-1.22858e-09 -7.5665e-08 -0.00100008)
(-1.22858e-09 -7.61072e-08 -0.00100009)
(-9.38556e-10 -8.57048e-08 -0.000999878)
(-9.38561e-10 -8.62813e-08 -0.000999881)
(-1.51506e-09 -8.5705e-08 -0.00100009)
(-1.51506e-09 -8.62815e-08 -0.0010001)
(-1.11377e-09 -9.66046e-08 -0.000999869)
(-1.11378e-09 -9.73435e-08 -0.000999872)
(-1.85268e-09 -9.66048e-08 -0.0010001)
(-1.85269e-09 -9.73437e-08 -0.00100011)
(-1.31549e-09 -1.08473e-07 -0.000999858)
(-1.3155e-09 -1.09407e-07 -0.000999862)
(-2.24929e-09 -1.08474e-07 -0.00100011)
(-2.24929e-09 -1.09407e-07 -0.00100012)
(-1.54772e-09 -1.2143e-07 -0.000999846)
(-1.54773e-09 -1.22596e-07 -0.00099985)
(-2.71367e-09 -1.2143e-07 -0.00100012)
(-2.71368e-09 -1.22596e-07 -0.00100013)
(-1.81509e-09 -1.35603e-07 -0.000999832)
(-1.8151e-09 -1.37044e-07 -0.000999837)
(-3.25571e-09 -1.35604e-07 -0.00100014)
(-3.25572e-09 -1.37044e-07 -0.00100015)
(-2.12285e-09 -1.51136e-07 -0.000999817)
(-2.12286e-09 -1.529e-07 -0.000999822)
(-3.88657e-09 -1.51137e-07 -0.00100015)
(-3.88659e-09 -1.52901e-07 -0.00100016)
(-2.477e-09 -1.68185e-07 -0.0009998)
(-2.47701e-09 -1.70326e-07 -0.000999806)
(-4.61889e-09 -1.68185e-07 -0.00100017)
(-4.61891e-09 -1.70327e-07 -0.00100018)
(-2.88432e-09 -1.86918e-07 -0.000999781)
(-2.88434e-09 -1.89501e-07 -0.000999788)
(-5.46703e-09 -1.86919e-07 -0.00100018)
(-5.46705e-09 -1.89502e-07 -0.0010002)
(-3.35248e-09 -2.07525e-07 -0.000999759)
(-3.3525e-09 -2.1062e-07 -0.000999768)
(-6.44739e-09 -2.07526e-07 -0.0010002)
(-6.44741e-09 -2.10621e-07 -0.00100022)
(-3.89008e-09 -2.30212e-07 -0.000999736)
(-3.89011e-09 -2.339e-07 -0.000999746)
(-7.57868e-09 -2.30213e-07 -0.00100023)
(-7.57871e-09 -2.33901e-07 -0.00100025)
(-4.50681e-09 -2.55204e-07 -0.000999709)
(-4.50685e-09 -2.5958e-07 -0.000999721)
(-8.88232e-09 -2.55206e-07 -0.00100025)
(-8.88236e-09 -2.59581e-07 -0.00100028)
(-5.21351e-09 -2.82753e-07 -0.00099968)
(-5.21355e-09 -2.87922e-07 -0.000999693)
(-1.03828e-08 -2.82755e-07 -0.00100028)
(-1.03828e-08 -2.87924e-07 -0.00100031)
(-6.02228e-09 -3.13133e-07 -0.000999648)
(-6.02233e-09 -3.19219e-07 -0.000999663)
(-1.21082e-08 -3.13135e-07 -0.0010003)
(-1.21082e-08 -3.19221e-07 -0.00100034)
(-6.94663e-09 -3.46647e-07 -0.000999612)
(-6.94669e-09 -3.53791e-07 -0.00099963)
(-1.40904e-08 -3.4665e-07 -0.00100034)
(-1.40905e-08 -3.53793e-07 -0.00100038)
(-8.00158e-09 -3.8363e-07 -0.000999573)
(-8.00165e-09 -3.91994e-07 -0.000999593)
(-1.63663e-08 -3.83633e-07 -0.00100037)
(-1.63664e-08 -3.91997e-07 -0.00100042)
(-9.20383e-09 -4.24449e-07 -0.000999529)
(-9.20392e-09 -4.34223e-07 -0.000999552)
(-1.89777e-08 -4.24452e-07 -0.00100041)
(-1.89778e-08 -4.34226e-07 -0.00100046)
(-1.05719e-08 -4.69511e-07 -0.00099948)
(-1.0572e-08 -4.80912e-07 -0.000999506)
(-2.19726e-08 -4.69515e-07 -0.00100045)
(-2.19727e-08 -4.80916e-07 -0.00100052)
(-1.21263e-08 -5.19264e-07 -0.000999426)
(-1.21264e-08 -5.32543e-07 -0.000999456)
(-2.54057e-08 -5.19269e-07 -0.0010005)
(-2.54058e-08 -5.32549e-07 -0.00100057)
(-1.38898e-08 -5.74202e-07 -0.000999367)
(-1.38899e-08 -5.89652e-07 -0.000999401)
(-2.93396e-08 -5.74209e-07 -0.00100056)
(-2.93397e-08 -5.89658e-07 -0.00100064)
(-1.58875e-08 -6.34871e-07 -0.000999301)
(-1.58877e-08 -6.52829e-07 -0.000999339)
(-3.38457e-08 -6.34878e-07 -0.00100061)
(-3.38459e-08 -6.52837e-07 -0.00100071)
(-1.81475e-08 -7.01871e-07 -0.000999228)
(-1.81478e-08 -7.22729e-07 -0.000999271)
(-3.90057e-08 -7.01881e-07 -0.00100068)
(-3.9006e-08 -7.22739e-07 -0.00100078)
(-2.07006e-08 -7.75867e-07 -0.000999147)
(-2.07009e-08 -8.00079e-07 -0.000999196)
(-4.49128e-08 -7.75879e-07 -0.00100075)
(-4.49131e-08 -8.00091e-07 -0.00100087)
(-2.35811e-08 -8.57591e-07 -0.000999058)
(-2.35815e-08 -8.85683e-07 -0.000999113)
(-5.16734e-08 -8.57605e-07 -0.00100083)
(-5.16738e-08 -8.85698e-07 -0.00100097)
(-2.68272e-08 -9.47852e-07 -0.000998959)
(-2.68276e-08 -9.80433e-07 -0.000999021)
(-5.94092e-08 -9.47869e-07 -0.00100091)
(-5.94097e-08 -9.80452e-07 -0.00100107)
(-3.04808e-08 -1.04754e-06 -0.000998849)
(-3.04814e-08 -1.08532e-06 -0.000998919)
(-6.82589e-08 -1.04756e-06 -0.00100101)
(-6.82596e-08 -1.08534e-06 -0.00100119)
(-3.45889e-08 -1.15764e-06 -0.000998727)
(-3.45896e-08 -1.20143e-06 -0.000998807)
(-7.83813e-08 -1.15767e-06 -0.00100111)
(-7.83821e-08 -1.20146e-06 -0.00100132)
(-3.92033e-08 -1.27924e-06 -0.000998593)
(-3.92042e-08 -1.33e-06 -0.000998682)
(-8.99576e-08 -1.27928e-06 -0.00100123)
(-8.99586e-08 -1.33003e-06 -0.00100147)
(-4.43815e-08 -1.41354e-06 -0.000998444)
(-4.43826e-08 -1.47236e-06 -0.000998544)
(-1.03195e-07 -1.41358e-06 -0.00100135)
(-1.03196e-07 -1.4724e-06 -0.00100163)
(-5.01868e-08 -1.56186e-06 -0.00099828)
(-5.01881e-08 -1.63e-06 -0.000998392)
(-1.1833e-07 -1.56191e-06 -0.00100149)
(-1.18331e-07 -1.63006e-06 -0.00100181)
(-5.66885e-08 -1.72566e-06 -0.000998097)
(-5.66902e-08 -1.8046e-06 -0.000998223)
(-1.35633e-07 -1.72572e-06 -0.00100164)
(-1.35635e-07 -1.80467e-06 -0.00100201)
(-6.39644e-08 -1.90655e-06 -0.000997896)
(-6.39664e-08 -1.998e-06 -0.000998036)
(-1.55414e-07 -1.90662e-06 -0.00100181)
(-1.55416e-07 -1.99807e-06 -0.00100223)
(-7.20987e-08 -2.10631e-06 -0.000997672)
(-7.21012e-08 -2.21223e-06 -0.000997829)
(-1.78025e-07 -2.10639e-06 -0.001002)
(-1.78028e-07 -2.21232e-06 -0.00100247)
(-8.11852e-08 -2.32689e-06 -0.000997425)
(-8.11883e-08 -2.44957e-06 -0.0009976)
(-2.0387e-07 -2.32699e-06 -0.0010022)
(-2.03874e-07 -2.44968e-06 -0.00100274)
(-9.13261e-08 -2.57046e-06 -0.000997152)
(-9.13299e-08 -2.71254e-06 -0.000997347)
(-2.33412e-07 -2.57059e-06 -0.00100243)
(-2.33417e-07 -2.71268e-06 -0.00100305)
(-1.02632e-07 -2.83939e-06 -0.000996849)
(-1.02637e-07 -3.00393e-06 -0.000997067)
(-2.67179e-07 -2.83955e-06 -0.00100267)
(-2.67184e-07 -3.00411e-06 -0.00100338)
(-1.15222e-07 -3.13633e-06 -0.000996515)
(-1.15227e-07 -3.32687e-06 -0.000996757)
(-3.05773e-07 -3.13653e-06 -0.00100295)
(-3.0578e-07 -3.32709e-06 -0.00100376)
(-1.29222e-07 -3.46416e-06 -0.000996144)
(-1.2923e-07 -3.68481e-06 -0.000996413)
(-3.49888e-07 -3.4644e-06 -0.00100325)
(-3.49896e-07 -3.68508e-06 -0.00100417)
(-1.4477e-07 -3.82607e-06 -0.000995734)
(-1.44779e-07 -4.0816e-06 -0.000996033)
(-4.00315e-07 -3.82637e-06 -0.00100357)
(-4.00325e-07 -4.08193e-06 -0.00100464)
(-1.62012e-07 -4.22559e-06 -0.000995281)
(-1.62023e-07 -4.52152e-06 -0.000995611)
(-4.57961e-07 -4.22594e-06 -0.00100394)
(-4.57975e-07 -4.52192e-06 -0.00100515)
(-1.81103e-07 -4.66657e-06 -0.00099478)
(-1.81117e-07 -5.00931e-06 -0.000995145)
(-5.2387e-07 -4.66701e-06 -0.00100433)
(-5.23887e-07 -5.00981e-06 -0.00100572)
(-2.02207e-07 -5.15329e-06 -0.000994225)
(-2.02224e-07 -5.55029e-06 -0.000994627)
(-5.99236e-07 -5.15383e-06 -0.00100477)
(-5.99257e-07 -5.5509e-06 -0.00100636)
(-2.25489e-07 -5.69044e-06 -0.000993611)
(-2.25511e-07 -6.15035e-06 -0.000994054)
(-6.85434e-07 -5.6911e-06 -0.00100525)
(-6.8546e-07 -6.1511e-06 -0.00100707)
(-2.5112e-07 -6.28319e-06 -0.000992933)
(-2.51146e-07 -6.81606e-06 -0.000993419)
(-7.84045e-07 -6.28399e-06 -0.00100577)
(-7.84077e-07 -6.81698e-06 -0.00100786)
(-2.79264e-07 -6.93719e-06 -0.000992182)
(-2.79298e-07 -7.55475e-06 -0.000992714)
(-8.96888e-07 -6.93817e-06 -0.00100635)
(-8.96929e-07 -7.55588e-06 -0.00100874)
(-3.10082e-07 -7.65869e-06 -0.000991352)
(-3.10123e-07 -8.37459e-06 -0.000991932)
(-1.02607e-06 -7.65988e-06 -0.00100698)
(-1.02612e-06 -8.37598e-06 -0.00100972)
(-3.43714e-07 -8.45452e-06 -0.000990435)
(-3.43766e-07 -9.28471e-06 -0.000991064)
(-1.174e-06 -8.45598e-06 -0.00100768)
(-1.17407e-06 -9.28642e-06 -0.00101081)
(-3.80279e-07 -9.33218e-06 -0.000989421)
(-3.80343e-07 -1.02953e-05 -0.000990101)
(-1.34351e-06 -9.33397e-06 -0.00100844)
(-1.34359e-06 -1.02974e-05 -0.00101203)
(-4.19853e-07 -1.02999e-05 -0.000988301)
(-4.19934e-07 -1.14177e-05 -0.000989032)
(-1.53784e-06 -1.03021e-05 -0.00100927)
(-1.53794e-06 -1.14203e-05 -0.00101339)
(-4.62455e-07 -1.13666e-05 -0.000987064)
(-4.62557e-07 -1.26648e-05 -0.000987843)
(-1.76077e-06 -1.13693e-05 -0.00101017)
(-1.7609e-06 -1.26679e-05 -0.00101491)
(-5.08023e-07 -1.25423e-05 -0.000985698)
(-5.08151e-07 -1.40507e-05 -0.000986522)
(-2.0167e-06 -1.25455e-05 -0.00101116)
(-2.01686e-06 -1.40546e-05 -0.00101661)
(-5.5638e-07 -1.38375e-05 -0.00098419)
(-5.56541e-07 -1.55915e-05 -0.000985053)
(-2.31077e-06 -1.38414e-05 -0.00101225)
(-2.31097e-06 -1.55963e-05 -0.00101851)
(-6.07193e-07 -1.52639e-05 -0.000982526)
(-6.07396e-07 -1.73052e-05 -0.000983417)
(-2.64896e-06 -1.52687e-05 -0.00101342)
(-2.64921e-06 -1.73112e-05 -0.00102064)
(-6.59915e-07 -1.68342e-05 -0.000980692)
(-6.60172e-07 -1.9212e-05 -0.000981594)
(-3.03825e-06 -1.68401e-05 -0.0010147)
(-3.03857e-06 -1.92194e-05 -0.00102302)
(-7.13725e-07 -1.85622e-05 -0.000978671)
(-7.1405e-07 -2.13347e-05 -0.000979563)
(-3.48686e-06 -1.85694e-05 -0.00101609)
(-3.48726e-06 -2.13437e-05 -0.00102568)
(-7.67425e-07 -2.04627e-05 -0.000976445)
(-7.67838e-07 -2.36988e-05 -0.000977295)
(-4.00438e-06 -2.04715e-05 -0.00101759)
(-4.00489e-06 -2.37099e-05 -0.00102867)
(-8.19315e-07 -2.25517e-05 -0.000973997)
(-8.19845e-07 -2.63333e-05 -0.000974762)
(-4.60209e-06 -2.25624e-05 -0.00101922)
(-4.60274e-06 -2.63471e-05 -0.00103203)
(-8.67048e-07 -2.48461e-05 -0.000971307)
(-8.67749e-07 -2.92711e-05 -0.000971928)
(-5.29355e-06 -2.48593e-05 -0.00102096)
(-5.29437e-06 -2.92881e-05 -0.00103581)
(-9.07507e-07 -2.7364e-05 -0.000968354)
(-9.08521e-07 -3.25493e-05 -0.000968754)
(-6.09493e-06 -2.738e-05 -0.00102284)
(-6.09599e-06 -3.25705e-05 -0.00104006)
(-9.36635e-07 -3.01239e-05 -0.00096512)
(-9.38424e-07 -3.62095e-05 -0.000965196)
(-7.02528e-06 -3.01438e-05 -0.00102484)
(-7.02666e-06 -3.62361e-05 -0.00104485)
(-9.49366e-07 -3.31441e-05 -0.000961586)
(-9.53544e-07 -4.02967e-05 -0.000961205)
(-8.10772e-06 -3.31694e-05 -0.00102699)
(-8.10958e-06 -4.03316e-05 -0.00105026)
(-9.40086e-07 -3.64379e-05 -0.000957728)
(-9.52109e-07 -4.48559e-05 -0.000956718)
(-9.37224e-06 -3.64718e-05 -0.00102926)
(-9.37474e-06 -4.49063e-05 -0.00105636)
(-9.04546e-07 -3.99996e-05 -0.000953468)
(-9.41521e-07 -4.99166e-05 -0.000951616)
(-1.08613e-05 -4.00495e-05 -0.00103161)
(-1.08643e-05 -5.0002e-05 -0.0010632)
(-8.44523e-07 -4.37667e-05 -0.000948701)
(-9.54966e-07 -5.54488e-05 -0.000945727)
(-1.26403e-05 -4.38488e-05 -0.00103386)
(-1.26421e-05 -5.56236e-05 -0.00107077)
(-7.74992e-07 -4.75271e-05 -0.000943747)
(-1.08062e-06 -6.12604e-05 -0.00093921)
(-1.48109e-05 -4.76744e-05 -0.00103624)
(-1.48035e-05 -6.16643e-05 -0.00107953)
(-7.32005e-07 -5.07399e-05 -0.000940305)
(-1.492e-06 -6.67756e-05 -0.000933544)
(-1.75022e-05 -5.1021e-05 -0.00104051)
(-1.74581e-05 -6.7754e-05 -0.00109161)
(-8.03638e-07 -5.23606e-05 -0.000939536)
(-2.46137e-06 -7.07413e-05 -0.000930456)
(-2.07225e-05 -5.28294e-05 -0.00104866)
(-2.05544e-05 -7.28992e-05 -0.0011086)
(-1.26618e-06 -5.08523e-05 -0.000927255)
(-4.40533e-06 -7.08567e-05 -0.000918283)
(-2.40752e-05 -5.16612e-05 -0.00104745)
(-2.35411e-05 -7.52922e-05 -0.0011153)
(-2.81245e-06 -4.44631e-05 -0.000866479)
(-7.81841e-06 -6.34539e-05 -0.000863235)
(-2.61646e-05 -4.5696e-05 -0.000994518)
(-2.45584e-05 -7.11201e-05 -0.0010741)
(-5.60158e-06 -3.16779e-05 -0.000583145)
(-1.22826e-05 -4.58746e-05 -0.000623886)
(-2.57078e-05 -3.3244e-05 -0.000624877)
(-2.15587e-05 -5.62417e-05 -0.000797716)
(-2.79703e-06 9.93902e-07 -0.00286176)
(-1.06007e-05 -1.33914e-05 -0.00239973)
(-2.90252e-05 5.37543e-07 -0.00322332)
(-1.93489e-05 -2.50002e-05 -0.00332048)
(4.50643e-06 6.21907e-06 -3.54471e-05)
(1.63077e-05 8.7279e-06 -3.52789e-05)
(-6.49442e-06 -1.01716e-07 -4.16409e-05)
(2.23347e-06 -2.90683e-06 -3.12443e-05)
(0.00019381 3.03047e-05 -0.00338872)
(0.000202007 -0.000284239 -0.00240818)
(-0.000134728 3.50433e-05 -0.00384158)
(-0.000103034 -0.000276757 -0.00408342)
(-4.81759e-06 1.05754e-05 -4.75676e-05)
(7.69826e-05 -9.02374e-05 -0.00323656)
(-1.00666e-05 4.61856e-06 -0.000296145)
(5.50694e-06 -5.41795e-06 -6.3665e-05)
(-0.000473285 -0.000275827 -0.00260353)
(-1.15663e-05 4.29468e-05 -0.000596411)
(9.05014e-05 -0.000151398 -0.00367335)
(0.000152406 0.000313246 -0.00446567)
(-0.000516005 -0.000287192 -0.00253604)
(-0.000557488 0.000326335 -0.00420359)
(6.45744e-05 -0.000224998 -0.00413181)
(2.84526e-06 -3.27584e-06 -0.00011441)
(-2.97563e-05 -1.97783e-05 -0.000525088)
(-3.46942e-06 3.96298e-05 -0.000197677)
(2.60245e-05 -1.26671e-05 -0.000395751)
(0.000404344 0.000398891 -0.00471266)
(-0.000117325 -0.000159905 -0.00478192)
(-0.000306485 0.000326904 -0.0031203)
(0.000425421 -0.000398337 -0.00452436)
(2.23877e-06 -1.03456e-05 -0.000212936)
(1.46908e-05 8.73493e-06 -0.000228976)
(7.99549e-05 -6.88505e-05 -0.00159657)
(-8.38857e-06 3.91098e-05 -0.00107229)
(-3.76381e-05 -0.00011571 -0.00493884)
(0.000292624 0.000291949 -0.00424507)
(0.000335841 -0.000122867 -0.00376291)
(-0.000275777 0.00077025 -0.00281588)
(-5.03091e-05 -5.47062e-05 -0.00119779)
(0.000190393 0.000417819 -0.00169626)
(5.50616e-05 2.86577e-05 -0.00138593)
(-0.0003646 0.000983477 -0.00312663)
(-0.000302742 8.76324e-05 -0.00563092)
(6.52752e-05 0.000907069 -0.00331092)
(1.97325e-05 9.56405e-05 -0.00418143)
(-0.000109133 0.000170435 -0.000665577)
(-3.13974e-05 1.93837e-05 -0.000161396)
(-2.15587e-05 6.92026e-05 -0.000277765)
(-3.99977e-05 9.42623e-05 -0.000972182)
(-0.000994379 0.0014354 -0.00263302)
(-0.00137093 0.000945937 -0.00480358)
(-0.000171904 0.0014045 -0.00321975)
(-0.000145258 0.000606763 -0.00408105)
(-0.000286856 0.00046617 -0.00254047)
(-6.99448e-05 5.60628e-05 -0.000358801)
(-0.000193853 0.0003967 -0.0029269)
(-1.27616e-05 9.70005e-07 -0.000159212)
(-2.77069e-05 1.35976e-05 -0.000181757)
(-0.000304288 0.000415032 -0.00474414)
(-8.15142e-05 -6.24547e-05 -0.00101854)
(-0.000251412 0.000521383 -0.00435529)
(0.000122453 -2.0641e-05 -0.00497793)
(7.32348e-05 0.000129845 -0.00117378)
(-0.000462914 -0.00106212 -0.00378194)
(-0.000157793 0.000256344 -0.00187438)
(8.60455e-06 -1.4867e-05 -0.000301502)
(0.000655338 0.000365454 -0.00345371)
(-7.52662e-05 -0.000163925 -0.000651752)
(-0.000212643 0.000292237 -0.00217222)
(0.000724388 -0.000626796 -0.00263337)
(0.000569999 0.000317029 -0.00255306)
(-0.000161371 -0.000394953 -0.003811)
(-0.000198914 0.000355193 -0.00373843)
(0.000617145 -0.000489274 -0.0018336)
(0.000366688 0.000205792 -0.00540993)
(-0.000102674 -0.000165034 -0.00165727)
(-8.27284e-05 -5.83552e-05 -0.0018564)
(-1.72831e-05 -0.000295712 -0.0014112)
(-7.53384e-06 -2.10487e-05 -0.000817139)
(-0.000230499 -0.00015817 -0.00292539)
(-0.000247128 -7.69601e-05 -0.00294258)
(-0.000278304 -0.00036548 -0.00234185)
(-0.000265554 -0.000129855 -0.00338081)
(-0.000124747 -5.70856e-05 -0.00236461)
(-0.000395621 -9.42351e-05 -0.00256521)
(-0.000171185 -0.000111445 -0.0017844)
(-0.000270223 -9.52759e-05 -0.00123965)
(-1.17171e-05 2.54681e-05 -0.00153083)
(-9.88647e-05 -6.67278e-05 -0.00181176)
(-7.48089e-05 2.05327e-05 -0.00179448)
(-0.000343219 -0.000139171 -0.00171974)
(9.89734e-06 3.35444e-05 -0.00175603)
(3.78534e-06 -4.36511e-05 -0.00173652)
(-2.31095e-05 2.9819e-05 -0.00152248)
(-0.000136573 -7.48613e-05 -0.00121695)
(1.49235e-05 -2.70792e-06 -0.000785065)
(3.1912e-05 -2.72296e-05 -0.00139338)
(1.83442e-05 7.48794e-07 -0.00116767)
(-1.92058e-05 -5.32484e-05 -0.00125364)
(6.28844e-05 -4.95248e-06 -0.000949629)
(7.49685e-05 -1.45873e-05 -0.00125003)
(6.84004e-05 8.66389e-07 -0.00100107)
(5.09517e-05 -3.23229e-05 -0.00111314)
(9.13563e-05 2.27483e-06 -0.000865284)
(9.86599e-05 -1.23945e-05 -0.00114754)
(8.59946e-05 5.61127e-06 -0.000876858)
(7.82676e-05 -2.31536e-05 -0.00108397)
(0.000102113 5.1787e-06 -0.000868272)
(0.000105785 -1.31978e-05 -0.00112668)
(8.90313e-05 6.93228e-06 -0.000888431)
(8.54904e-05 -1.89445e-05 -0.00108331)
(0.000101605 5.33601e-06 -0.000885345)
(0.000103104 -1.35208e-05 -0.0011207)
(8.53013e-05 6.15704e-06 -0.000908203)
(8.37613e-05 -1.61794e-05 -0.00107994)
(9.55757e-05 4.59728e-06 -0.000898923)
(9.60304e-05 -1.29285e-05 -0.00111114)
(7.90863e-05 4.93232e-06 -0.000918489)
(7.84407e-05 -1.4024e-05 -0.00107333)
(8.75903e-05 3.755e-06 -0.000909265)
(8.7641e-05 -1.18357e-05 -0.00110006)
(7.23456e-05 3.87395e-06 -0.000925144)
(7.20741e-05 -1.22471e-05 -0.00106659)
(7.93891e-05 3.02135e-06 -0.000918304)
(7.93181e-05 -1.05952e-05 -0.00108982)
(6.5855e-05 3.05772e-06 -0.000931371)
(6.57294e-05 -1.07417e-05 -0.00106059)
(7.1656e-05 2.4172e-06 -0.000926546)
(7.15643e-05 -9.38639e-06 -0.00108077)
(5.98508e-05 2.42606e-06 -0.000937405)
(5.97805e-05 -9.43986e-06 -0.00105519)
(6.45889e-05 1.92333e-06 -0.000933995)
(6.45057e-05 -8.27984e-06 -0.0010727)
(5.4364e-05 1.92421e-06 -0.000943002)
(5.43163e-05 -8.30246e-06 -0.00105027)
(5.82006e-05 1.51872e-06 -0.000940674)
(5.81313e-05 -7.29341e-06 -0.00106545)
(4.93657e-05 1.51772e-06 -0.000948111)
(4.93292e-05 -7.30557e-06 -0.00104577)
(5.24452e-05 1.18666e-06 -0.000946659)
(5.2389e-05 -6.42317e-06 -0.00105893)
(4.48162e-05 1.18543e-06 -0.000952772)
(4.47868e-05 -6.43118e-06 -0.00104165)
(4.72646e-05 9.14373e-07 -0.000952028)
(4.72194e-05 -5.65805e-06 -0.00105306)
(4.06769e-05 9.13301e-07 -0.000957028)
(4.06529e-05 -5.66391e-06 -0.00103789)
(4.26018e-05 6.91861e-07 -0.000956848)
(4.25654e-05 -4.98587e-06 -0.00104778)
(3.69121e-05 6.90989e-07 -0.000960915)
(3.68923e-05 -4.99034e-06 -0.00103446)
(3.84045e-05 5.11005e-07 -0.000961175)
(3.83752e-05 -4.39528e-06 -0.00104304)
(3.34888e-05 5.10308e-07 -0.000964462)
(3.34725e-05 -4.39872e-06 -0.00103133)
(3.46256e-05 3.64968e-07 -0.000965059)
(3.4602e-05 -3.87621e-06 -0.00103877)
(3.03771e-05 3.64412e-07 -0.000967699)
(3.03636e-05 -3.87887e-06 -0.00102847)
(3.12225e-05 2.47575e-07 -0.000968545)
(3.12035e-05 -3.41981e-06 -0.00103493)
(2.75494e-05 2.4713e-07 -0.000970652)
(2.75383e-05 -3.42188e-06 -0.00102587)
(2.81573e-05 1.53757e-07 -0.000971676)
(2.8142e-05 -3.01838e-06 -0.00103148)
(2.49807e-05 1.53401e-07 -0.000973345)
(2.49716e-05 -3.01999e-06 -0.00102351)
(2.53958e-05 7.93613e-08 -0.00097449)
(2.53835e-05 -2.66515e-06 -0.00102837)
(2.26478e-05 7.90747e-08 -0.000975798)
(2.26404e-05 -2.66641e-06 -0.00102135)
(2.29076e-05 2.09471e-08 -0.000977019)
(2.28977e-05 -2.35422e-06 -0.00102557)
(2.05297e-05 2.07161e-08 -0.000978032)
(2.05236e-05 -2.3552e-06 -0.00101939)
(2.06652e-05 -2.43422e-08 -0.000979293)
(2.06572e-05 -2.08042e-06 -0.00102304)
(1.8607e-05 -2.45287e-08 -0.000980064)
(1.8602e-05 -2.08118e-06 -0.0010176)
(1.86441e-05 -5.88756e-08 -0.000981339)
(1.86376e-05 -1.83922e-06 -0.00102077)
(1.68621e-05 -5.90264e-08 -0.000981913)
(1.68579e-05 -1.83982e-06 -0.00101598)
(1.68221e-05 -8.46163e-08 -0.00098318)
(1.68169e-05 -1.62666e-06 -0.00101873)
(1.52788e-05 -8.47385e-08 -0.000983593)
(1.52754e-05 -1.62713e-06 -0.0010145)
(1.51795e-05 -1.03216e-07 -0.000984837)
(1.51753e-05 -1.43928e-06 -0.00101689)
(1.38424e-05 -1.03315e-07 -0.000985121)
(1.38396e-05 -1.43964e-06 -0.00101316)
(1.36983e-05 -1.16069e-07 -0.000986328)
(1.36949e-05 -1.27402e-06 -0.00101523)
(1.25396e-05 -1.16149e-07 -0.000986509)
(1.25373e-05 -1.2743e-06 -0.00101194)
(1.23626e-05 -1.24323e-07 -0.000987671)
(1.23598e-05 -1.12821e-06 -0.00101373)
(1.13581e-05 -1.24389e-07 -0.000987769)
(1.13562e-05 -1.12843e-06 -0.00101083)
(1.11579e-05 -1.28921e-07 -0.000988881)
(1.11556e-05 -9.99524e-07 -0.00101238)
(1.02868e-05 -1.28975e-07 -0.000988914)
(1.02852e-05 -9.99701e-07 -0.00100982)
(1.00712e-05 -1.30644e-07 -0.00098997)
(1.00694e-05 -8.85912e-07 -0.00101117)
(9.31557e-06 -1.30688e-07 -0.000989953)
(9.3143e-06 -8.8605e-07 -0.00100891)
(9.09095e-06 -1.30132e-07 -0.000990952)
(9.08951e-06 -7.85573e-07 -0.00101007)
(8.43522e-06 -1.30168e-07 -0.000990897)
(8.43419e-06 -7.85682e-07 -0.00100807)
(8.20659e-06 -1.2791e-07 -0.000991836)
(8.20542e-06 -6.96926e-07 -0.00100909)
(7.63735e-06 -1.27939e-07 -0.000991753)
(7.6365e-06 -6.97012e-07 -0.00100732)
(7.40867e-06 -1.24408e-07 -0.000992634)
(7.40772e-06 -6.18579e-07 -0.0010082)
(6.91432e-06 -1.24432e-07 -0.000992529)
(6.91363e-06 -6.18647e-07 -0.00100663)
(6.68868e-06 -1.19973e-07 -0.000993352)
(6.68791e-06 -5.49308e-07 -0.0010074)
(6.25921e-06 -1.19993e-07 -0.000993233)
(6.25864e-06 -5.49361e-07 -0.00100601)
(6.03895e-06 -1.14885e-07 -0.000994001)
(6.03833e-06 -4.88035e-07 -0.00100667)
(5.66569e-06 -1.14901e-07 -0.000993872)
(5.66523e-06 -4.88077e-07 -0.00100545)
(5.45259e-06 -1.09369e-07 -0.000994585)
(5.45209e-06 -4.33814e-07 -0.00100602)
(5.12806e-06 -1.09382e-07 -0.000994451)
(5.12768e-06 -4.33848e-07 -0.00100494)
(4.92338e-06 -1.03605e-07 -0.000995112)
(4.92297e-06 -3.85814e-07 -0.00100543)
(4.64111e-06 -1.03616e-07 -0.000994976)
(4.64079e-06 -3.85841e-07 -0.00100447)
(4.44572e-06 -9.77342e-08 -0.000995588)
(4.44539e-06 -3.43303e-07 -0.0010049)
(4.2001e-06 -9.77428e-08 -0.000995452)
(4.19984e-06 -3.43324e-07 -0.00100405)
(4.01455e-06 -9.18667e-08 -0.000996017)
(4.01429e-06 -3.05637e-07 -0.00100442)
(3.80074e-06 -9.18737e-08 -0.000995883)
(3.80054e-06 -3.05654e-07 -0.00100367)
(3.62534e-06 -8.60871e-08 -0.000996404)
(3.62513e-06 -2.7225e-07 -0.00100399)
(3.43915e-06 -8.60929e-08 -0.000996274)
(3.43898e-06 -2.72263e-07 -0.00100332)
(3.27399e-06 -8.04595e-08 -0.000996753)
(3.27381e-06 -2.42642e-07 -0.0010036)
(3.11178e-06 -8.04642e-08 -0.000996628)
(3.11164e-06 -2.42653e-07 -0.00100301)
(2.95679e-06 -7.50306e-08 -0.000997069)
(2.95665e-06 -2.16375e-07 -0.00100325)
(2.81542e-06 -7.50344e-08 -0.000996949)
(2.81531e-06 -2.16383e-07 -0.00100273)
(2.67041e-06 -6.98332e-08 -0.000997353)
(2.6703e-06 -1.9306e-07 -0.00100294)
(2.54717e-06 -6.98364e-08 -0.000997239)
(2.54708e-06 -1.93067e-07 -0.00100247)
(2.41186e-06 -6.4889e-08 -0.00099761)
(2.41177e-06 -1.72357e-07 -0.00100265)
(2.30438e-06 -6.48916e-08 -0.000997502)
(2.30431e-06 -1.72362e-07 -0.00100223)
(2.17842e-06 -6.02103e-08 -0.000997842)
(2.17835e-06 -1.53963e-07 -0.00100239)
(2.08466e-06 -6.02124e-08 -0.00099774)
(2.0846e-06 -1.53968e-07 -0.00100202)
(1.96765e-06 -5.58024e-08 -0.000998051)
(1.96759e-06 -1.37614e-07 -0.00100216)
(1.88583e-06 -5.58041e-08 -0.000997956)
(1.88578e-06 -1.37618e-07 -0.00100183)
(1.77734e-06 -5.16651e-08 -0.00099824)
(1.77729e-06 -1.23075e-07 -0.00100195)
(1.70593e-06 -5.16664e-08 -0.000998151)
(1.70589e-06 -1.23077e-07 -0.00100166)
(1.60552e-06 -4.77939e-08 -0.000998411)
(1.60548e-06 -1.10138e-07 -0.00100176)
(1.54317e-06 -4.7795e-08 -0.000998328)
(1.54313e-06 -1.1014e-07 -0.0010015)
(1.45037e-06 -4.41806e-08 -0.000998565)
(1.45034e-06 -9.86206e-08 -0.00100159)
(1.39593e-06 -4.41816e-08 -0.000998487)
(1.3959e-06 -9.86223e-08 -0.00100136)
(1.3103e-06 -4.08139e-08 -0.000998704)
(1.31028e-06 -8.83619e-08 -0.00100143)
(1.26275e-06 -4.08146e-08 -0.000998632)
(1.26273e-06 -8.83632e-08 -0.00100123)
(1.18384e-06 -3.76806e-08 -0.00099883)
(1.18382e-06 -7.9219e-08 -0.00100129)
(1.1423e-06 -3.76812e-08 -0.000998763)
(1.14228e-06 -7.92201e-08 -0.00100111)
(1.06967e-06 -3.47675e-08 -0.000998943)
(1.06966e-06 -7.10659e-08 -0.00100117)
(1.03337e-06 -3.4768e-08 -0.000998881)
(1.03336e-06 -7.10668e-08 -0.001001)
(9.66616e-07 -3.2061e-08 -0.000999046)
(9.66602e-07 -6.37913e-08 -0.00100105)
(9.34884e-07 -3.20614e-08 -0.000998989)
(9.34872e-07 -6.3792e-08 -0.00100091)
(8.73594e-07 -2.95479e-08 -0.000999139)
(8.73583e-07 -5.72966e-08 -0.00100095)
(8.45845e-07 -2.95483e-08 -0.000999086)
(8.45835e-07 -5.72971e-08 -0.00100082)
(7.89643e-07 -2.72155e-08 -0.000999223)
(7.89633e-07 -5.14946e-08 -0.00100086)
(7.65363e-07 -2.72158e-08 -0.000999173)
(7.65355e-07 -5.14951e-08 -0.00100074)
(7.13888e-07 -2.50517e-08 -0.000999299)
(7.13881e-07 -4.63083e-08 -0.00100077)
(6.92631e-07 -2.50519e-08 -0.000999253)
(6.92624e-07 -4.63087e-08 -0.00100067)
(6.45544e-07 -2.30449e-08 -0.000999367)
(6.45538e-07 -4.16693e-08 -0.0010007)
(6.26919e-07 -2.30451e-08 -0.000999325)
(6.26914e-07 -4.16696e-08 -0.0010006)
(5.839e-07 -2.11842e-08 -0.00099943)
(5.83895e-07 -3.75171e-08 -0.00100063)
(5.67566e-07 -2.11843e-08 -0.00099939)
(5.67562e-07 -3.75173e-08 -0.00100055)
(5.28316e-07 -1.94591e-08 -0.000999486)
(5.28312e-07 -3.3798e-08 -0.00100057)
(5.13976e-07 -1.94593e-08 -0.000999449)
(5.13973e-07 -3.37982e-08 -0.00100049)
(4.78214e-07 -1.78601e-08 -0.000999537)
(4.78211e-07 -3.04644e-08 -0.00100051)
(4.65609e-07 -1.78602e-08 -0.000999503)
(4.65606e-07 -3.04645e-08 -0.00100044)
(4.33074e-07 -1.6378e-08 -0.000999583)
(4.33071e-07 -2.74739e-08 -0.00100046)
(4.21978e-07 -1.63781e-08 -0.000999552)
(4.21975e-07 -2.7474e-08 -0.0010004)
(3.92426e-07 -1.50042e-08 -0.000999625)
(3.92424e-07 -2.4789e-08 -0.00100041)
(3.82641e-07 -1.50042e-08 -0.000999596)
(3.8264e-07 -2.47891e-08 -0.00100036)
(3.55849e-07 -1.37306e-08 -0.000999663)
(3.55848e-07 -2.23763e-08 -0.00100037)
(3.47204e-07 -1.37306e-08 -0.000999636)
(3.47202e-07 -2.23763e-08 -0.00100032)
(3.22962e-07 -1.25498e-08 -0.000999697)
(3.22961e-07 -2.02058e-08 -0.00100034)
(3.15306e-07 -1.25498e-08 -0.000999673)
(3.15305e-07 -2.02058e-08 -0.00100029)
(2.93423e-07 -1.14547e-08 -0.000999728)
(2.93422e-07 -1.8251e-08 -0.0010003)
(2.86627e-07 -1.14548e-08 -0.000999706)
(2.86626e-07 -1.8251e-08 -0.00100026)
(2.66924e-07 -1.04388e-08 -0.000999757)
(2.66923e-07 -1.64881e-08 -0.00100027)
(2.60875e-07 -1.04389e-08 -0.000999736)
(2.60874e-07 -1.64881e-08 -0.00100023)
(2.4319e-07 -9.49594e-09 -0.000999783)
(2.43189e-07 -1.48957e-08 -0.00100024)
(2.3779e-07 -9.49596e-09 -0.000999763)
(2.37789e-07 -1.48958e-08 -0.00100021)
(2.21972e-07 -8.62027e-09 -0.000999806)
(2.21971e-07 -1.3455e-08 -0.00100022)
(2.17137e-07 -8.62028e-09 -0.000999788)
(2.17137e-07 -1.3455e-08 -0.00100019)
(2.0305e-07 -7.80633e-09 -0.000999828)
(2.03049e-07 -1.21487e-08 -0.00100019)
(1.98707e-07 -7.80634e-09 -0.000999811)
(1.98707e-07 -1.21487e-08 -0.00100017)
(1.86225e-07 -7.04888e-09 -0.000999848)
(1.86225e-07 -1.09616e-08 -0.00100017)
(1.82312e-07 -7.04889e-09 -0.000999832)
(1.82312e-07 -1.09616e-08 -0.00100015)
(1.71323e-07 -6.34277e-09 -0.000999866)
(1.71323e-07 -9.88041e-09 -0.00100015)
(1.67785e-07 -6.34278e-09 -0.000999851)
(1.67785e-07 -9.88042e-09 -0.00100013)
(1.58188e-07 -5.68273e-09 -0.000999883)
(1.58188e-07 -8.89421e-09 -0.00100013)
(1.54977e-07 -5.68273e-09 -0.000999869)
(1.54976e-07 -8.89421e-09 -0.00100011)
(1.46688e-07 -5.0633e-09 -0.000999898)
(1.46687e-07 -7.99612e-09 -0.00100012)
(1.43755e-07 -5.0633e-09 -0.000999886)
(1.43755e-07 -7.99612e-09 -0.0010001)
(1.36713e-07 -4.47984e-09 -0.000999912)
(1.36712e-07 -7.18647e-09 -0.0010001)
(1.34006e-07 -4.47984e-09 -0.000999901)
(1.34006e-07 -7.18647e-09 -0.00100009)
(1.28193e-07 -3.93234e-09 -0.000999926)
(1.28193e-07 -6.47802e-09 -0.00100009)
(1.25647e-07 -3.93234e-09 -0.000999915)
(1.25647e-07 -6.47802e-09 -0.00100007)
(1.21144e-07 -3.44261e-09 -0.000999939)
(1.21144e-07 -5.89278e-09 -0.00100007)
(1.18694e-07 -3.44262e-09 -0.000999928)
(1.18694e-07 -5.89278e-09 -0.00100006)
(1.15773e-07 -3.09459e-09 -0.000999951)
(1.15773e-07 -5.43189e-09 -0.00100006)
(1.13435e-07 -3.09459e-09 -0.000999942)
(1.13435e-07 -5.43189e-09 -0.00100005)
(1.12762e-07 -2.95661e-09 -0.000999962)
(1.12762e-07 -5.14593e-09 -0.00100005)
(1.10573e-07 -2.95661e-09 -0.000999953)
(1.10573e-07 -5.14593e-09 -0.00100004)
)
;

boundaryField
{
    inlet
    {
        type            zeroGradient;
    }
    outlet
    {
        type            zeroGradient;
    }
    repeat_boundary
    {
        type            slip;
    }
}


// ************************************************************************* //
