/*--------------------------------*- C++ -*----------------------------------*\
| =========                 |                                                 |
| \\      /  F ield         | OpenFOAM: The Open Source CFD Toolbox           |
|  \\    /   O peration     | Version:  5.x                                   |
|   \\  /    A nd           | Web:      www.OpenFOAM.org                      |
|    \\/     M anipulation  |                                                 |
\*---------------------------------------------------------------------------*/
FoamFile
{
    version     2.0;
    format      ascii;
    class       surfaceScalarField;
    location    "800";
    object      phi;
}
// * * * * * * * * * * * * * * * * * * * * * * * * * * * * * * * * * * * * * //

dimensions      [0 3 -1 0 0 0 0];

internalField   nonuniform List<scalar> 
89
(
-0.0250009
-0.025001
-0.0250011
-0.0250012
-0.0250014
-0.0250017
-0.0250021
-0.0250025
-0.0250031
-0.0250039
-0.0250049
-0.0250061
-0.0250077
-0.0250097
-0.0250122
-0.0250153
-0.0250193
-0.0250244
-0.0250309
-0.0250391
-0.0250497
-0.0250632
-0.0250805
-0.0251027
-0.0251312
-0.025168
-0.0252154
-0.0252767
-0.025356
-0.0254587
-0.0255921
-0.0257654
-0.0259911
-0.0262863
-0.0266742
-0.0271572
-0.0277098
-0.0282317
-0.0287044
-0.0275191
-0.0275525
-0.0280691
-0.0284907
-0.0287448
-0.0287562
-0.0286096
-0.0282488
-0.0275762
-0.0271429
-0.0269183
-0.0266584
-0.026473
-0.0260049
-0.0259062
-0.0256054
-0.0253902
-0.0252461
-0.0251467
-0.0250784
-0.0250323
-0.0250016
-0.0249834
-0.0249729
-0.0249674
-0.0249655
-0.0249657
-0.0249674
-0.0249698
-0.0249726
-0.0249755
-0.0249784
-0.0249812
-0.0249837
-0.024986
-0.0249881
-0.0249899
-0.0249915
-0.0249929
-0.0249941
-0.0249951
-0.024996
-0.0249967
-0.0249973
-0.0249978
-0.0249982
-0.0249986
-0.0249989
-0.0249992
-0.0249995
)
;

boundaryField
{
    inlet
    {
        type            calculated;
        value           uniform -0.0249997;
    }
    outlet
    {
        type            calculated;
        value           uniform 0.0250009;
    }
    repeat_boundary
    {
        type            calculated;
        value           uniform 0;
    }
    procBoundary2to0
    {
        type            processor;
        value           nonuniform List<scalar> 
90
(
2.61785e-08
4.83885e-08
7.56248e-08
1.06712e-07
1.42867e-07
1.85828e-07
2.37763e-07
3.01367e-07
3.80012e-07
4.77941e-07
6.00503e-07
7.54471e-07
9.48437e-07
1.19332e-06
1.50297e-06
1.89515e-06
2.39314e-06
3.02666e-06
3.83404e-06
4.86477e-06
6.18285e-06
7.8712e-06
1.00373e-05
1.28208e-05
1.6403e-05
2.10199e-05
2.6979e-05
3.46816e-05
4.46523e-05
5.75781e-05
7.43593e-05
9.61811e-05
0.000124669
0.000162301
0.000212322
0.000263164
0.000298459
0.000272866
0.000258214
-0.00070364
1.99206e-05
0.000311654
0.00019015
0.000223558
0.000216002
7.51829e-05
-0.000197473
-0.000497398
-0.000356029
-4.08475e-05
-5.63736e-05
-0.000129185
-0.000361584
-0.000211567
-0.000187582
-0.000128882
-8.97182e-05
-6.5269e-05
-4.76631e-05
-3.46016e-05
-2.49542e-05
-1.7887e-05
-1.27145e-05
-8.94458e-06
-6.21211e-06
-4.24468e-06
-2.83959e-06
-1.84639e-06
-1.15348e-06
-6.78324e-07
-3.60644e-07
-1.59994e-07
-1.25294e-08
9.10675e-08
1.65345e-07
1.7407e-07
1.82907e-07
1.79138e-07
1.68148e-07
1.53943e-07
1.38873e-07
1.24325e-07
1.11055e-07
9.93823e-08
8.92896e-08
8.07702e-08
7.42285e-08
6.94967e-08
6.58788e-08
6.39484e-08
)
;
    }
    procBoundary2to3
    {
        type            processor;
        value           nonuniform List<scalar> 
90
(
1.739e-08
3.01635e-08
4.62554e-08
6.4781e-08
8.65271e-08
1.12702e-07
1.44782e-07
1.84564e-07
2.34343e-07
2.96986e-07
3.7628e-07
4.77091e-07
6.05676e-07
7.70114e-07
9.80873e-07
1.25154e-06
1.59978e-06
2.04863e-06
2.62817e-06
3.3777e-06
4.34871e-06
5.60855e-06
7.24478e-06
9.37053e-06
1.21382e-05
1.57464e-05
2.04558e-05
2.66092e-05
3.46582e-05
4.51982e-05
5.9016e-05
7.71596e-05
0.000101075
0.000132916
0.000175513
0.000219922
0.000254103
0.000249032
0.000214497
-0.000481644
1.34407e-05
0.000204996
0.00023149
3.0452e-05
-0.000204585
-0.000221765
-0.000163307
-0.00017506
-7.73301e-05
-0.000183783
-0.000203449
-5.62096e-05
-0.000106511
0.0001129
-0.000113262
-8.62776e-05
-5.44662e-05
-3.41119e-05
-2.06344e-05
-1.15449e-05
-5.72021e-06
-2.67055e-07
2.15314e-06
3.53786e-06
4.26142e-06
4.5262e-06
4.49894e-06
4.29705e-06
3.99602e-06
3.64357e-06
3.27072e-06
2.89811e-06
2.53896e-06
2.20147e-06
1.89297e-06
1.61757e-06
1.37495e-06
1.16388e-06
9.82219e-07
8.27281e-07
6.9622e-07
5.86202e-07
4.94524e-07
4.18686e-07
3.56422e-07
3.05699e-07
2.64606e-07
2.31216e-07
2.04524e-07
1.92407e-07
)
;
    }
}


// ************************************************************************* //
