/*--------------------------------*- C++ -*----------------------------------*\
  =========                 |
  \\      /  F ield         | OpenFOAM: The Open Source CFD Toolbox
   \\    /   O peration     | Website:  https://openfoam.org
    \\  /    A nd           | Version:  9
     \\/     M anipulation  |
\*---------------------------------------------------------------------------*/
FoamFile
{
    format      ascii;
    class       surfaceScalarField;
    location    "10000";
    object      phi;
}
// * * * * * * * * * * * * * * * * * * * * * * * * * * * * * * * * * * * * * //

dimensions      [0 3 -1 0 0 0 0];

internalField   nonuniform List<scalar> 
1436
(
-1306.67
-1923.88
2.97313e+07
-997.838
2.97213e+07
-331.109
3.01875e+07
2.95972e+07
-2780.26
-2239.78
2.97364e+07
-167.421
2.97187e+07
-1297.04
3.01865e+07
2.95957e+07
-4253.64
-1658.2
2.97423e+07
232.853
2.97142e+07
-1066.52
3.01859e+07
2.95949e+07
-5142.91
-1139.4
2.97486e+07
2587.73
2.97065e+07
-1003.02
3.01858e+07
2.95965e+07
-6598.96
-1036.15
2.97562e+07
5830.4
2.96941e+07
20.4812
3.01847e+07
2.96023e+07
-6212.98
-1160.64
2.97636e+07
6718.11
2.96812e+07
-408.241
3.0184e+07
2.96086e+07
-8675.21
-41.6079
2.97723e+07
5316.08
2.96672e+07
-3840.55
3.01878e+07
2.96101e+07
-7108.78
171.102
2.97792e+07
3191.51
2.96569e+07
-2917.65
3.01909e+07
2.96104e+07
-3468.28
-431.285
2.97831e+07
1991.56
2.96514e+07
-3570.72
3.0194e+07
2.96088e+07
-2095.68
-2535.42
2.97878e+07
-459.578
2.96498e+07
-2681.75
3.01941e+07
2.96057e+07
865.744
-2982.14
2.97899e+07
-3504.91
2.96541e+07
-2040.8
3.01932e+07
2.96001e+07
1289.05
-2861.8
2.97914e+07
-6824.47
2.96623e+07
-3248.62
3.01936e+07
2.959e+07
2227.55
-2568.86
2.97918e+07
-7846.7
2.96723e+07
-2303.51
3.01933e+07
2.95799e+07
4707.25
-2900.91
2.979e+07
-8908.03
2.96859e+07
-1501.61
3.01919e+07
2.95695e+07
9125.96
-3641.93
2.97845e+07
-10454.4
2.97055e+07
-521.797
3.01888e+07
2.95585e+07
9988.04
-6814.65
2.97813e+07
-11665.4
2.97272e+07
1146.86
3.01808e+07
2.9548e+07
9645.69
-6486.92
2.97782e+07
-11955.6
2.97488e+07
474.992
3.01739e+07
2.95365e+07
11419.1
-4602.47
2.97713e+07
-11565.5
2.97718e+07
1515.14
3.01678e+07
2.95265e+07
12574.5
-3272.82
2.9762e+07
-9442.04
2.97938e+07
-684.964
3.01652e+07
2.95163e+07
9967.46
-2157.07
2.97542e+07
-5924.74
2.98097e+07
-2541.47
3.01656e+07
2.95079e+07
10746.5
-2500.87
2.9746e+07
-11029.6
2.98314e+07
-5381.34
3.01684e+07
2.94914e+07
10778.5
2395.75
2.97328e+07
-12363.6
2.98546e+07
-11284.7
3.01821e+07
2.94678e+07
10333.6
1667.45
2.97208e+07
-13467.4
2.98784e+07
-8433.71
3.01922e+07
2.94459e+07
11702
2403.29
2.97067e+07
-17966.2
2.99081e+07
-12068.2
3.02067e+07
2.94159e+07
10597.5
459.64
2.96956e+07
-19046
2.99377e+07
-9190.84
3.02163e+07
2.93876e+07
11340.2
-1016.78
2.96853e+07
-16802.2
2.99658e+07
-6205.6
3.02215e+07
2.93646e+07
10958.1
-1253.13
2.96756e+07
-11220.2
2.9988e+07
-1601.02
3.02219e+07
2.93518e+07
11381.4
-3181.32
2.96674e+07
-10901.1
3.00103e+07
1603.44
3.02171e+07
2.93425e+07
8618.66
-3212.46
2.9662e+07
-5034.47
3.0024e+07
3401.04
3.02105e+07
2.93409e+07
7153.1
-3361.28
2.96582e+07
-3590.03
3.00347e+07
2423.88
3.02047e+07
2.93397e+07
6398.03
-4126.15
2.96559e+07
-4104.3
3.00452e+07
1869.18
3.01987e+07
2.93375e+07
4243.64
-6351.58
2.96581e+07
-2664.18
3.00521e+07
2103.02
3.01902e+07
2.93369e+07
6052.69
-5702.57
2.96577e+07
-904.246
3.00591e+07
2281.11
3.01823e+07
2.93383e+07
4432.43
-5236.76
2.96585e+07
4134.98
3.00594e+07
2310.71
3.01747e+07
2.93447e+07
1561.11
-3655.78
2.96606e+07
8365.49
3.00526e+07
5294.56
3.01658e+07
2.93584e+07
-4318.73
-2043.08
2.9667e+07
13847.5
3.00344e+07
6070.9
3.01577e+07
2.93783e+07
-3674.44
-1900.32
2.96725e+07
17122.8
3.00136e+07
7375.18
3.01484e+07
2.94028e+07
-1555.39
-5402.37
2.96795e+07
19097.8
2.99929e+07
11446.4
3.01315e+07
2.94333e+07
-5205.34
-8593.57
2.96933e+07
22024.1
2.99657e+07
16118.3
3.01068e+07
2.94715e+07
-5271.65
-3975.66
2.97025e+07
23479.4
2.9937e+07
13037
3.00898e+07
2.9508e+07
-10830.6
1365.5
2.9712e+07
25892.5
2.99002e+07
13259.7
3.00779e+07
2.95472e+07
-6199.41
5513.75
2.97127e+07
26720.2
2.98673e+07
10995.5
3.00724e+07
2.95849e+07
-10026
6899.83
2.97158e+07
31217.2
2.98261e+07
10124.9
3.00692e+07
2.96262e+07
-12620.8
6306.01
2.97221e+07
33147.9
2.97803e+07
10345.9
3.00652e+07
2.96697e+07
-12052
9812.58
2.97244e+07
32544
2.97357e+07
8256.19
3.00667e+07
2.97105e+07
-16254
9031.82
2.97316e+07
34697.8
2.96848e+07
8076.15
3.00677e+07
2.97533e+07
-16663.2
4550.29
2.97437e+07
33711.3
2.96344e+07
10562.7
3.00617e+07
2.97976e+07
-15579.9
311.489
2.9759e+07
34076
2.95847e+07
14323.6
3.00477e+07
2.9846e+07
-15864.4
-288.993
2.97751e+07
35993.7
2.95329e+07
17116.1
3.00302e+07
2.98991e+07
-13936
-416.011
2.97895e+07
34608.3
2.94843e+07
20387.4
3.00094e+07
2.99541e+07
-14992.7
-1874.02
2.98064e+07
35506.1
2.94338e+07
21714.5
2.99859e+07
3.00113e+07
-15840.1
-6187.25
2.98284e+07
33044.7
2.93849e+07
21771.8
2.99579e+07
3.00661e+07
-14716.2
-11191.4
2.98543e+07
30910
2.93393e+07
27231.6
2.99195e+07
3.01242e+07
-12278.3
-14852.3
2.98814e+07
23910.9
2.93031e+07
26101.2
2.98785e+07
3.01743e+07
-11145.2
-20319.3
2.99129e+07
20846.3
2.92711e+07
23138.3
2.98351e+07
3.02182e+07
-12073.6
-23623
2.99486e+07
18808.1
2.92403e+07
23796.8
2.97876e+07
3.02608e+07
-8242.58
-26105.8
2.99829e+07
8305.71
2.92237e+07
21000.2
2.97405e+07
3.02902e+07
-2954.65
-27378.8
3.00133e+07
3607.88
2.92171e+07
20337.3
2.96928e+07
3.03141e+07
-1351.24
-30117.7
3.00447e+07
-258.851
2.92161e+07
15091.3
2.96476e+07
3.03289e+07
1788.86
-31790.6
3.00747e+07
-3862.48
2.92217e+07
16301.6
2.95995e+07
3.03414e+07
5278.34
-31251.2
3.01007e+07
-6900.64
2.92339e+07
17496
2.95508e+07
3.0352e+07
8570.23
-30020.4
3.01222e+07
-11286.2
2.92537e+07
13974.9
2.95068e+07
3.03547e+07
14996.8
-28450.5
3.01356e+07
-14326.6
2.92831e+07
13016.8
2.94653e+07
3.03533e+07
20502.2
-30705.8
3.01458e+07
-17713
2.93213e+07
15553.9
2.9419e+07
3.03512e+07
28252.2
-28854.8
3.01464e+07
-23747.6
2.93733e+07
14752.6
2.93754e+07
3.03422e+07
36722.6
-25707.7
3.01354e+07
-23314.5
2.94333e+07
17184.9
2.93325e+07
3.03361e+07
39163.5
-28749.2
3.0125e+07
-24969.2
2.94974e+07
15563.5
2.92882e+07
3.03267e+07
43418.1
-24657.8
3.01062e+07
-25710.8
2.95666e+07
14673.7
2.92489e+07
3.03156e+07
48531.7
-21664
3.00794e+07
-25988.8
2.96411e+07
13114.5
2.92141e+07
3.03027e+07
49414.4
-20485.7
3.00504e+07
-25955.1
2.97165e+07
12529.1
2.91811e+07
3.02893e+07
47562
-19165.4
3.0022e+07
-24885.6
2.97889e+07
17284.7
2.91447e+07
3.02817e+07
48570.2
-10285.1
2.99837e+07
-23321.1
2.98608e+07
11010.6
2.91234e+07
3.02694e+07
52408.6
-1058.89
2.99324e+07
-23703.7
2.99369e+07
8166.39
2.91141e+07
3.02539e+07
49622.2
2718.9
2.98801e+07
-25260
3.00118e+07
5258.65
2.91116e+07
3.02339e+07
48764.2
3621.66
2.98277e+07
-27048.5
3.00876e+07
-463.073
2.91157e+07
3.02064e+07
48800.7
4941.94
2.97739e+07
-27599.7
3.0164e+07
-1729.47
2.91224e+07
3.0177e+07
48596.8
5279.76
2.97201e+07
-28189.9
3.02408e+07
-4562.37
2.91322e+07
3.01443e+07
42977.5
9832.73
2.96672e+07
-32842.4
3.03166e+07
-7221.32
2.91493e+07
3.01042e+07
41952
13563.9
2.96117e+07
-37031.4
3.03956e+07
-11966
2.91748e+07
3.00552e+07
42980.6
18797.2
2.95499e+07
-35810.4
3.04744e+07
-16210
2.92098e+07
3.00032e+07
42345.8
22601.3
2.9485e+07
-38783.9
3.05555e+07
-19208.5
2.92516e+07
2.99452e+07
42176.8
24393.1
2.94184e+07
-39158
3.06369e+07
-24046.2
2.93e+07
2.9882e+07
36876.7
27588.2
2.9354e+07
-38334.4
3.07121e+07
-27532.9
2.93552e+07
2.98161e+07
30597.7
28911.9
2.92945e+07
-38389.5
3.07811e+07
-30852
2.94149e+07
2.97469e+07
21539.7
32306.1
2.92406e+07
-37557.9
3.08402e+07
-35946
2.94832e+07
2.96734e+07
20512.2
33523.2
2.91866e+07
-38044.4
3.08987e+07
-42336.3
2.9559e+07
2.9593e+07
11524
39302.3
2.91357e+07
-32474
3.09427e+07
-47620.7
2.9646e+07
2.95129e+07
-1239.56
41154.7
2.90958e+07
-30496.7
3.0972e+07
-52816.2
2.97399e+07
2.94296e+07
-4789.72
41203.9
2.90594e+07
-31029.3
3.09982e+07
-54085.6
2.98352e+07
2.93445e+07
-10515
36325.4
2.90336e+07
-30125.2
3.10178e+07
-55895.5
2.99274e+07
2.92585e+07
-18228.5
28857.4
2.9023e+07
-25315.3
3.10249e+07
-52641
3.00089e+07
2.91805e+07
-21480.7
19777.8
2.90247e+07
-20995.2
3.10244e+07
-52708.8
3.00814e+07
2.91068e+07
-23136.1
9773.95
2.9038e+07
-19224.6
3.10205e+07
-45532.9
3.01367e+07
2.9042e+07
-29450.2
-1080.51
2.90686e+07
-14971.7
3.1006e+07
-40801
3.01765e+07
2.89863e+07
-33712.2
-10225.7
2.91125e+07
-9843.17
3.09822e+07
-31768.6
3.0198e+07
2.89447e+07
-34881
-18670.6
2.91661e+07
-1595.58
3.09489e+07
-19116.7
3.01984e+07
2.89239e+07
-38638.6
-25142.5
2.92298e+07
6857.4
3.09034e+07
-11377.6
3.01847e+07
2.89194e+07
-43432.1
-31446.1
2.93047e+07
9823.28
3.08501e+07
-9164.29
3.01624e+07
2.89201e+07
-44450.7
-36112.8
2.93853e+07
10114.5
3.07956e+07
-7706.54
3.0134e+07
2.89225e+07
-45318.6
-40786.4
2.94714e+07
12048.7
3.07382e+07
-7991.68
3.01012e+07
2.89265e+07
-45665.4
-43940.9
2.9561e+07
11984.1
3.06805e+07
-9067.41
3.00663e+07
2.89295e+07
-47207.2
-47686.7
2.96559e+07
10017.6
3.06233e+07
-12071.7
3.00307e+07
2.89274e+07
-46083.8
-49956.1
2.97519e+07
-2909.83
3.05801e+07
-13961.8
2.99947e+07
2.89105e+07
-46457.1
-53085.8
2.98515e+07
-6856.54
3.05405e+07
-15092.7
2.99567e+07
2.88886e+07
-46860.1
-55129.8
2.99535e+07
-2481.99
3.04962e+07
-7126.34
2.99087e+07
2.8879e+07
-44010.9
-58033.4
3.00555e+07
-717.155
3.04529e+07
4638.08
2.9846e+07
2.88829e+07
-36392
-58347.1
3.01503e+07
-3986.96
3.04205e+07
18136.1
2.97696e+07
2.88971e+07
-28095.2
-60644.7
3.0239e+07
-7877.49
3.04002e+07
31497.4
2.96774e+07
2.89207e+07
-17947.6
-61278.4
3.03182e+07
-11485.8
3.03938e+07
42082.9
2.95741e+07
2.89513e+07
-20859.2
-63796.8
3.04029e+07
-12207.6
3.03851e+07
50262.6
2.946e+07
2.89893e+07
-9608.15
-61894.5
3.04744e+07
-13195.8
3.03887e+07
57807.5
2.93403e+07
2.90339e+07
-12726.2
-62207.1
3.05493e+07
-10923
3.03869e+07
65067.8
2.9213e+07
2.90881e+07
-5683.36
-62157.2
3.06171e+07
-9211.08
3.03904e+07
71938
2.90789e+07
2.91508e+07
-7537.12
-63019.9
3.06877e+07
-7899.76
3.03908e+07
78398.5
2.89375e+07
2.92213e+07
6890.24
-61014.3
3.07418e+07
-8504.08
3.04062e+07
84542.2
2.87919e+07
2.92973e+07
19925.2
-60061.2
3.0782e+07
-10034.6
3.04362e+07
90447.1
2.86414e+07
2.93778e+07
25582.1
-59042.7
3.08154e+07
-10644.4
3.04724e+07
94718.2
2.84877e+07
2.94618e+07
33080.3
-54675
3.0837e+07
-10081.9
3.05155e+07
96399.2
2.83366e+07
2.95481e+07
41228.9
-52039.2
3.08478e+07
-9151.22
3.05659e+07
93924.9
2.81906e+07
2.96329e+07
37207
-47137.3
3.08578e+07
-9293.95
3.06124e+07
88873
2.80546e+07
2.97125e+07
46088.8
-44829
3.08565e+07
-12341.8
3.06709e+07
77016.9
2.79328e+07
2.97772e+07
46292.4
-39755.5
3.085e+07
-21315.6
3.07385e+07
65476.8
2.78276e+07
2.98213e+07
49108.9
-39239.8
3.08401e+07
-33715.4
3.08213e+07
52650.2
2.77357e+07
2.98403e+07
58292
-42783.2
3.08246e+07
-56913.9
3.09365e+07
41951.4
2.76509e+07
2.98253e+07
58370.1
-44696.3
3.08109e+07
-76609.1
3.10715e+07
23134.9
2.75831e+07
2.97718e+07
65022.2
-50606.7
3.07965e+07
-98711.4
3.12352e+07
2311.82
2.75302e+07
2.96754e+07
63187.9
-57455.7
3.07908e+07
-108160
3.14066e+07
-15753.8
2.74885e+07
2.95515e+07
59208.9
-67539
3.07991e+07
-124123
3.15899e+07
-33199.4
2.74541e+07
2.93942e+07
45186.3
-79440.8
3.08334e+07
-129445
3.17645e+07
-50565.3
2.74253e+07
2.92142e+07
48125
-84524.9
3.08698e+07
-137226
3.19499e+07
-65630.4
2.74064e+07
2.90113e+07
42829.2
-89211.2
3.09161e+07
-134558
3.21273e+07
-79963.8
2.73971e+07
2.87968e+07
46454.6
-91572.5
3.09613e+07
-128908
3.23026e+07
-94594
2.74001e+07
2.85733e+07
52653.1
-91253.4
3.09999e+07
-120261
3.24755e+07
-107855
2.74167e+07
2.83452e+07
55258.8
-85081.9
3.10297e+07
-105368
3.26362e+07
-119897
2.74516e+07
2.81199e+07
64240.8
-81059.8
3.10465e+07
-90599.2
3.2791e+07
-128482
2.7499e+07
2.79008e+07
70635.5
-72895.3
3.10488e+07
-68051.1
3.29297e+07
-135962
2.7562e+07
2.76968e+07
81487
-65943.8
3.10332e+07
-48516
3.30597e+07
-138457
2.76346e+07
2.75099e+07
86716.2
-52758
3.09993e+07
-28702.3
3.31751e+07
-141460
2.77233e+07
2.73397e+07
94096.1
-41613.2
3.09468e+07
-9114.76
3.32783e+07
-138256
2.78199e+07
2.71923e+07
97269.3
-28502.5
3.0878e+07
9708.03
3.33659e+07
-137678
2.79291e+07
2.70644e+07
101804
-17008.9
3.07932e+07
26916.2
3.34408e+07
-129922
2.8042e+07
2.69613e+07
105291
241.567
3.06877e+07
40361.9
3.35057e+07
-127164
2.81694e+07
2.68745e+07
109018
13295.4
3.05654e+07
53404.8
3.35613e+07
-116377
2.82991e+07
2.68116e+07
109768
32067.1
3.04235e+07
61461
3.36096e+07
-112308
2.84434e+07
2.67607e+07
108380
45727.3
3.02694e+07
72463.5
3.36455e+07
-100061
2.85892e+07
2.67331e+07
101113
63440.6
3.01049e+07
76937
3.36697e+07
-95105.7
2.87478e+07
2.6715e+07
92187
76093.5
2.99366e+07
88725
3.36732e+07
-83213.9
2.89071e+07
2.67205e+07
77849.7
90873.1
2.97679e+07
92179
3.36588e+07
-77512.3
2.90755e+07
2.67351e+07
63767.4
101878
2.96022e+07
105201
3.36174e+07
-67996.7
2.92453e+07
2.67723e+07
46774.1
113394
2.9442e+07
109906
3.35543e+07
-62273.7
2.9421e+07
2.682e+07
33327.3
123347
2.92854e+07
122531
3.34651e+07
-55633.1
2.96e+07
2.68869e+07
18581.1
132995
2.91338e+07
126756
3.33569e+07
-53104.5
2.97861e+07
2.69605e+07
7037.74
143168
2.89836e+07
140668
3.32233e+07
-47973.5
2.99772e+07
2.70532e+07
-7242.56
152747
2.88381e+07
142983
3.3073e+07
-49461.1
3.01794e+07
2.71467e+07
-20392.6
163058
2.86954e+07
156659
3.2896e+07
-46973.2
3.03895e+07
2.72564e+07
-36993.5
173023
2.85594e+07
161199
3.26978e+07
-47446
3.06099e+07
2.73702e+07
-52803.8
181779
2.84304e+07
164488
3.24805e+07
-52772.6
3.08445e+07
2.74819e+07
-70483.5
190623
2.83103e+07
166079
3.22439e+07
-57423.9
3.10925e+07
2.75906e+07
-86105.3
196026
2.82004e+07
166006
3.19918e+07
-62037.3
3.13506e+07
2.76945e+07
-101191
201307
2.81002e+07
164510
3.17261e+07
-67753.7
3.16197e+07
2.77913e+07
-113241
203190
2.80103e+07
165535
3.14474e+07
-70515.6
3.18934e+07
2.78863e+07
-123168
202971
2.79305e+07
165070
3.11591e+07
-71295.5
3.21676e+07
2.79801e+07
-130121
200705
2.78599e+07
166997
3.0862e+07
-67288.5
3.24356e+07
2.80798e+07
-134863
195992
2.77988e+07
164153
3.0563e+07
-64106.8
3.26957e+07
2.81798e+07
-137283
187003
2.77491e+07
163313
3.02624e+07
-57254.8
3.294e+07
2.82859e+07
-138173
177932
2.77093e+07
155883
2.99683e+07
-44971.8
3.31629e+07
2.83968e+07
-137806
168065
2.7679e+07
149927
2.96806e+07
-36969.8
3.33679e+07
2.85098e+07
-136769
156601
2.76592e+07
138582
2.94053e+07
-28213.2
3.35527e+07
2.86201e+07
-135350
146098
2.76485e+07
126889
2.9143e+07
-18499
3.37173e+07
2.87285e+07
-133389
133630
2.76482e+07
111283
2.88983e+07
-5914.74
3.38569e+07
2.88339e+07
-131875
122294
2.76578e+07
93515.5
2.8673e+07
4442.48
3.39747e+07
2.89318e+07
-131147
117599
2.76713e+07
72696
2.84691e+07
13487.6
3.40788e+07
2.9018e+07
-132174
111990
2.76915e+07
49220.2
2.82877e+07
20187.3
3.41707e+07
2.90874e+07
-130029
108066
2.77135e+07
18635.8
2.81391e+07
29628.4
3.42491e+07
2.91357e+07
-125647
107993
2.77311e+07
-3087.7
2.80165e+07
40890.7
3.43162e+07
2.91735e+07
-119545
106476
2.77442e+07
-54016
2.7951e+07
52249.6
3.43704e+07
2.91717e+07
-111072
101210
2.77541e+07
-72297
2.79122e+07
67242.8
3.44044e+07
2.91667e+07
-100505
91470
2.77631e+07
-68547.3
2.78802e+07
80568.1
3.44153e+07
2.91787e+07
-70443.5
87630.1
2.77459e+07
-87142
2.78969e+07
99743
3.44032e+07
2.91913e+07
-43447.7
68442
-105631
118291
)
;

boundaryField
{
    inlet
    {
        type            calculated;
        value           nonuniform List<scalar> 4(2.77209e+07 3.43533e+07 2.79591e+07 2.9204e+07);
    }
    outlet
    {
        type            calculated;
        value           nonuniform List<scalar> 4(-2.97281e+07 -3.0189e+07 -2.97217e+07 -2.95985e+07);
    }
    repeat_boundary
    {
        type            calculated;
        value           uniform 0;
    }
}


// ************************************************************************* //
