/*--------------------------------*- C++ -*----------------------------------*\
  =========                 |
  \\      /  F ield         | OpenFOAM: The Open Source CFD Toolbox
   \\    /   O peration     | Website:  https://openfoam.org
    \\  /    A nd           | Version:  9
     \\/     M anipulation  |
\*---------------------------------------------------------------------------*/
FoamFile
{
    format      ascii;
    class       volVectorField;
    location    "10000";
    object      U;
}
// * * * * * * * * * * * * * * * * * * * * * * * * * * * * * * * * * * * * * //

dimensions      [0 1 -1 0 0 0 0];

internalField   nonuniform List<vector> 
720
(
(-0.049705 -0.0846609 118.755)
(-0.0470795 -0.0430758 118.611)
(-0.00962244 -0.0839024 120.358)
(-0.00484717 -0.0472027 118.057)
(-0.0504287 -0.0818745 118.824)
(-0.0938389 -0.0239079 119.188)
(-0.0315265 -0.0892454 121.192)
(-0.0271423 -0.0279433 118.709)
(-0.136511 -0.0703352 119.272)
(-0.0799493 -0.00536058 118.752)
(-0.0130469 -0.0743869 120.565)
(-0.0284559 -0.000439134 118.487)
(-0.139621 -0.0684216 118.907)
(-0.154184 0.0739704 118.898)
(-0.0286491 -0.0579692 120.83)
(0.00226944 0.0235433 118.086)
(-0.21789 -0.0633307 119.191)
(-0.196628 0.139648 118.842)
(-0.0206843 -0.0436901 120.978)
(0.0389677 0.16301 118.524)
(-0.133116 -0.070326 118.738)
(-0.251478 0.178353 118.843)
(-0.0249204 -0.0397925 120.345)
(0.0260963 0.239025 118.497)
(-0.258816 -0.0371157 119.133)
(-0.231849 0.105646 118.647)
(-0.107169 -0.0211501 120.896)
(-0.0798479 0.236266 118.588)
(-0.311527 -0.0195905 119.383)
(-0.149226 0.0498416 118.582)
(-0.101464 0.00451208 120.786)
(-0.0769432 0.146689 118.15)
(-0.196426 -0.0373134 118.751)
(-0.0190526 -0.0737078 118.601)
(-0.154544 0.00497927 120.783)
(-0.0772963 0.178816 118.5)
(-0.220354 -0.103437 119.277)
(0.134566 -0.205211 118.636)
(-0.145797 -0.0411903 120.831)
(-0.044243 0.178709 118.531)
(-0.172302 -0.129455 119.202)
(0.253457 -0.383054 118.441)
(-0.0767884 -0.0662396 120.692)
(-0.052414 0.166729 118.374)
(-0.183163 -0.115468 119.167)
(0.268885 -0.49921 118.813)
(-0.103273 -0.0802985 120.812)
(-0.110565 0.0895794 118.59)
(-0.168724 -0.0936118 119.201)
(0.325327 -0.522086 118.665)
(-0.112695 -0.0840409 120.77)
(-0.0543951 -0.0527627 117.965)
(-0.0897855 -0.120582 119.304)
(0.420091 -0.479541 118.721)
(-0.0942982 -0.0839327 120.771)
(-0.0312784 -0.127376 118.604)
(0.136107 -0.118586 118.784)
(0.559103 -0.585884 118.612)
(-0.0685266 -0.116415 120.76)
(0.00978113 -0.178192 118.157)
(0.160853 -0.236288 119.246)
(0.575211 -0.684034 119.051)
(-0.023635 -0.159077 120.96)
(0.0377096 -0.167175 118.253)
(0.177396 -0.277698 119.208)
(0.560953 -0.616298 118.878)
(0.00620338 -0.188218 120.383)
(-0.0584002 -0.343402 117.869)
(0.243671 -0.193642 119.29)
(0.585364 -0.529513 119.064)
(0.0420421 -0.196264 120.93)
(-0.0367843 -0.412896 118.267)
(0.471269 -0.0980029 118.727)
(0.477945 -0.41199 119.136)
(-0.0603076 -0.210424 120.255)
(0.0115881 -0.327637 118.2)
(0.532316 -0.126806 119.057)
(0.177838 -0.15868 119.09)
(-0.135981 -0.161256 121.107)
(0.0317543 -0.247297 118.028)
(0.551245 -0.0854601 119.118)
(0.213599 -0.365713 119.394)
(-0.210558 -0.184363 120.292)
(-0.123356 -0.370967 118.071)
(0.610206 0.0495405 119.147)
(0.182726 -0.27298 119.425)
(-0.32203 -0.031875 120.827)
(-0.356788 -0.615676 117.989)
(0.705311 0.0285187 118.561)
(0.0700303 -0.140113 119.311)
(-0.342836 0.026265 120.865)
(-0.226911 -0.863042 117.555)
(0.720522 -0.0127049 119.101)
(0.103627 -0.241213 119.708)
(-0.467643 0.107915 120.66)
(-0.337246 -1.00014 117.982)
(0.748222 -0.133561 118.628)
(0.0667654 -0.358949 119.649)
(-0.454807 0.135999 121.038)
(-0.206975 -1.10076 117.576)
(0.813092 -0.0263152 118.985)
(0.0174238 -0.303138 119.723)
(-0.442002 -0.0823284 120.71)
(-0.0321226 -0.978609 117.424)
(0.778469 0.00072661 118.464)
(0.038615 -0.322958 119.975)
(-0.430617 -0.106436 120.967)
(0.251189 -0.582115 117.165)
(0.794045 -0.070519 118.736)
(0.0665814 -0.296031 120.091)
(-0.395958 -0.15288 120.944)
(0.394183 -0.625029 117.554)
(0.815989 -0.0517644 118.89)
(-0.166175 0.147054 119.92)
(-0.236332 -0.193682 120.736)
(0.440213 -0.55998 117.515)
(0.675073 -0.0251132 118.34)
(-0.159099 0.116474 120.165)
(-0.22434 -0.229694 120.84)
(0.370221 -0.389661 117.28)
(0.677133 0.0036737 118.708)
(-0.195912 0.0680442 120.276)
(-0.218751 -0.27468 120.842)
(0.311302 -0.38663 117.366)
(0.650043 -0.161426 118.694)
(-0.335283 0.296944 120.062)
(-0.216285 -0.294966 120.795)
(0.325536 -0.491498 117.405)
(0.709308 -0.0989495 118.64)
(-0.285233 0.315216 120.401)
(-0.215486 -0.302943 120.734)
(0.331731 -0.35626 117.337)
(0.756433 0.00512656 118.715)
(-0.466512 0.419972 120.013)
(-0.186797 -0.365128 120.98)
(0.265493 -0.0720687 117.317)
(0.476488 -0.062393 118.579)
(-0.453095 0.449565 120.443)
(0.0721397 -0.208344 120.146)
(0.260417 0.231226 117.387)
(0.153097 0.13336 118.392)
(-0.538677 0.561759 120.14)
(0.0924728 -0.222231 120.778)
(0.241409 0.54221 117.489)
(0.161077 0.215669 118.829)
(-0.586248 0.666515 120.009)
(0.137059 -0.256166 120.74)
(0.317505 0.730698 117.551)
(0.268873 0.105287 118.903)
(-0.555856 0.687225 120.1)
(0.395336 -0.436968 120.63)
(0.319309 0.903457 117.666)
(0.0847991 -0.0111579 118.619)
(-0.692891 0.834164 119.624)
(0.591778 -0.565664 120.65)
(0.43695 1.03078 117.803)
(-0.103449 0.0249831 118.823)
(-0.614942 0.850934 120.151)
(0.373838 -0.209351 120.219)
(0.444191 1.16971 117.957)
(-0.45812 0.280814 118.562)
(-0.557069 0.870211 119.43)
(0.416135 -0.0622173 120.298)
(0.450932 1.27855 118.117)
(-0.432178 0.379263 119.169)
(-0.339878 0.739161 119.617)
(0.375694 0.0754247 120.194)
(0.399965 1.47372 118.248)
(-0.544361 0.340161 118.824)
(-0.358716 0.7942 119.71)
(0.392216 0.131966 120.416)
(0.393489 1.70382 118.429)
(-0.75747 0.266579 118.804)
(-0.322765 0.805582 118.875)
(0.487914 0.083686 119.85)
(0.391883 1.8315 118.588)
(-0.988957 0.286756 118.888)
(-0.077412 0.746382 118.91)
(0.391129 0.2874 120.492)
(0.367981 1.86837 118.76)
(-1.18115 0.303371 118.954)
(-0.176628 0.886652 119.21)
(0.357742 0.331409 120.41)
(0.320995 1.88398 118.929)
(-1.45111 0.175088 118.733)
(0.114067 0.732416 118.352)
(0.463781 0.180848 120.261)
(0.356439 1.94093 119.083)
(-1.39963 0.0870249 119.137)
(0.161329 0.707925 118.457)
(0.64538 -0.00430636 120.314)
(0.416643 1.94983 119.332)
(-1.39142 0.0246355 119.144)
(0.135706 0.784786 118.57)
(0.712915 -0.00387431 119.999)
(0.547769 2.0141 119.389)
(-1.44871 0.0203228 119.192)
(0.331454 0.627351 117.647)
(0.772883 -0.0143437 120.168)
(0.669899 2.02458 119.822)
(-1.56258 -0.045641 119.149)
(0.344942 0.694066 118.119)
(0.855781 -0.0460323 120.25)
(0.726926 2.00959 119.885)
(-1.67393 -0.271092 119.228)
(0.419758 0.592671 117.589)
(0.865519 -0.168155 119.348)
(0.717853 1.94152 120.055)
(-1.72849 -0.487902 119.324)
(0.5592 0.407222 117.426)
(1.03191 -0.270611 120.223)
(0.860268 1.96162 120.469)
(-1.76613 -0.7021 119.495)
(0.759419 -0.021668 116.922)
(1.05828 -0.389177 119.457)
(0.913933 1.93625 120.727)
(-1.7216 -0.813273 119.575)
(0.814279 -0.0693432 117.328)
(1.06785 -0.737105 119.051)
(0.71445 1.73906 120.65)
(-1.70326 -0.971988 119.769)
(0.783101 -0.0273653 117.284)
(1.18694 -0.837055 119.452)
(0.608526 1.46458 121.067)
(-1.46696 -1.04658 119.837)
(0.886932 -0.277126 116.876)
(1.28768 -0.925084 119.403)
(0.221907 0.817393 120.836)
(-1.18133 -1.04007 119.921)
(1.03943 -0.583648 116.506)
(1.13252 -1.00189 118.715)
(0.251005 0.70098 121.536)
(-0.978649 -1.07559 120.093)
(1.04544 -0.537036 117.209)
(1.1057 -1.17236 118.715)
(-0.0432854 0.330624 121.066)
(-0.998972 -1.10786 120.318)
(1.24675 -0.7675 116.82)
(1.24438 -1.39003 117.98)
(-0.0639944 0.274057 121.343)
(-1.07427 -1.08255 120.379)
(1.55554 -1.00129 116.857)
(1.37388 -1.43237 118.888)
(-0.0669098 0.312669 121.478)
(-1.13443 -1.01589 120.449)
(1.82444 -1.28979 116.97)
(1.25268 -1.41512 117.721)
(-0.157789 0.31908 121.452)
(-1.08836 -0.99747 120.503)
(2.24478 -1.52527 117.035)
(1.19968 -1.34333 118.054)
(-0.175771 0.367737 121.398)
(-1.01365 -1.04866 120.708)
(2.57001 -1.70287 117.225)
(1.28768 -1.42756 117.966)
(-0.0736055 0.319509 121.606)
(-0.584929 -0.93621 120.511)
(2.76883 -1.79939 117.402)
(1.26161 -1.34429 117.425)
(-0.159815 -0.0747996 120.997)
(-0.0400258 -0.672492 120.259)
(2.92714 -1.7143 117.586)
(1.16961 -1.24161 117.635)
(-0.018532 -0.100005 121.739)
(-0.064721 -0.807998 120.689)
(3.12887 -1.61331 117.865)
(1.21581 -1.27053 117.253)
(-0.102711 -0.349566 120.962)
(0.0403186 -0.781117 120.742)
(3.33868 -1.55813 118.11)
(0.94248 -1.0884 116.589)
(0.0116997 -0.424729 121.391)
(0.436811 -0.533409 120.272)
(3.34325 -1.51777 118.424)
(0.887426 -1.09639 117.32)
(-0.0142706 -0.47866 121.507)
(0.555306 -0.492497 119.953)
(3.31276 -1.37043 118.721)
(0.840048 -1.01685 116.812)
(0.0728212 -0.627781 120.837)
(0.474631 -0.509488 120.472)
(3.24377 -1.16634 119.007)
(0.954829 -0.86046 116.579)
(0.286212 -0.696959 121.198)
(0.645619 -0.309353 120.111)
(3.17341 -1.01609 119.294)
(0.76116 -0.450716 116.437)
(0.0922685 -0.725152 121.224)
(1.14052 0.223626 119.281)
(3.03661 -0.906363 119.6)
(0.59451 -0.209266 116.498)
(0.117795 -0.819629 121.03)
(1.12613 0.277161 119.835)
(2.84697 -0.846528 119.893)
(0.413508 0.0871709 116.298)
(0.14067 -0.960963 121)
(1.11083 0.275527 119.616)
(2.75347 -0.834335 120.201)
(0.238157 0.102326 116.704)
(-0.0752349 -1.07768 120.85)
(1.20266 0.116261 119.451)
(2.59687 -0.695723 120.51)
(0.17371 0.294826 116.329)
(-0.171283 -1.2206 121.035)
(1.29154 0.27997 118.716)
(2.49477 -0.703008 120.812)
(0.139216 0.179943 116.661)
(-0.317892 -1.31329 120.154)
(1.04165 0.526417 118.466)
(2.32714 -0.627844 121.02)
(0.0230709 0.364204 116.509)
(-0.445502 -1.5733 120.583)
(1.00727 0.535474 118.732)
(2.27756 -0.807699 121.533)
(-0.197762 0.674384 116.575)
(-0.586573 -1.69767 120.709)
(1.0595 0.549821 118.689)
(2.30429 -0.931047 121.747)
(-0.558639 0.977922 116.778)
(-0.550834 -1.67106 119.995)
(0.819276 0.585324 117.86)
(2.48028 -1.21078 122.034)
(-0.929646 1.19409 116.924)
(-0.429092 -1.64606 119.771)
(0.684899 0.643895 117.898)
(2.59955 -1.40851 122.345)
(-1.32777 1.27764 117.101)
(-0.473714 -1.55008 119.684)
(0.360146 0.794999 117.421)
(2.55532 -1.35462 122.757)
(-1.61945 1.40577 117.287)
(-0.501937 -1.60228 119.398)
(-0.0927656 0.866596 117.357)
(2.56751 -1.35433 122.966)
(-1.83589 1.47559 117.54)
(-0.584811 -1.66865 119.131)
(-0.678904 1.01656 116.671)
(2.49385 -1.29427 123.246)
(-2.20362 1.63852 117.806)
(-0.654061 -1.71497 118.853)
(-0.659849 1.01776 117.062)
(2.45397 -1.23526 123.635)
(-2.62118 1.73424 118.028)
(-0.769244 -1.86683 118.543)
(-0.681098 1.03966 116.964)
(1.63181 -0.642768 123.641)
(-2.99376 2.08062 118.455)
(-0.840982 -2.02356 118.197)
(-1.19506 1.24704 116.362)
(1.01658 -0.234509 123.389)
(-3.22861 1.97211 118.712)
(-1.04048 -2.23922 117.951)
(-1.71368 1.289 116.198)
(1.20251 -0.299748 124.185)
(-3.36423 1.93648 119.204)
(-1.03137 -2.25776 117.351)
(-1.99013 1.04646 116.181)
(1.13368 -0.223497 124.199)
(-3.44818 1.81849 119.498)
(-1.10792 -2.29862 117.478)
(-2.31185 0.560925 116.092)
(0.92311 0.0211699 124.063)
(-3.43552 1.72781 119.916)
(-0.839695 -2.19011 116.568)
(-2.44994 0.0356763 116.1)
(0.875845 0.116042 124.143)
(-3.49117 1.54083 120.154)
(-0.793147 -2.0569 116.884)
(-2.60695 -0.498305 116.105)
(0.964167 0.0258589 124.216)
(-3.39554 1.28334 120.487)
(-0.270038 -1.76349 116.107)
(-2.62928 -1.01622 116.212)
(0.469202 0.0539516 123.84)
(-3.39957 0.94059 120.629)
(0.107029 -1.49087 116.149)
(-2.63303 -1.46824 116.346)
(0.201913 0.107778 123.949)
(-3.37839 0.665055 120.771)
(0.817224 -1.15056 115.875)
(-2.64686 -1.83937 116.553)
(0.110048 0.137895 124.074)
(-3.49071 0.365422 120.809)
(1.91191 -0.550579 115.586)
(-2.6818 -2.17319 116.775)
(-0.165006 0.367095 123.745)
(-3.54502 0.18766 120.783)
(2.54867 -0.118574 115.675)
(-2.70311 -2.44846 117.064)
(-0.541405 0.314239 123.393)
(-3.70494 -0.0349945 120.685)
(2.8662 0.170359 115.747)
(-2.68073 -2.7205 117.375)
(-0.693991 0.253809 123.216)
(-3.82866 -0.127962 120.621)
(3.09019 0.291871 115.545)
(-2.65625 -2.9362 117.7)
(-0.831741 0.315081 123.073)
(-4.01963 -0.277029 120.428)
(3.23423 0.394587 115.669)
(-2.59629 -3.14257 118.073)
(-0.939705 0.304186 122.917)
(-4.12175 -0.308101 120.39)
(3.29385 0.492092 115.821)
(-2.5351 -3.3013 118.418)
(-1.14607 0.244431 122.742)
(-4.24133 -0.437736 120.172)
(3.24558 0.505722 115.764)
(-2.48179 -3.47243 118.818)
(-1.15293 -0.601031 121.796)
(-4.25161 -0.43354 120.071)
(3.171 0.442381 115.693)
(-2.35879 -3.57728 119.217)
(-1.27012 -0.718443 122.489)
(-4.2453 -0.573443 119.902)
(3.14155 0.379505 115.721)
(-2.31222 -3.75107 119.598)
(-1.30397 -0.78885 122.489)
(-4.08941 -0.559643 119.728)
(3.64592 0.686846 115.448)
(-2.25217 -3.83237 120.037)
(-1.09659 -1.24524 121.807)
(-3.97738 -0.706295 119.535)
(4.49136 1.21806 115.405)
(-2.15977 -3.84286 120.363)
(-0.569825 -1.89586 121.578)
(-3.71105 -0.712405 119.226)
(5.29145 1.63324 115.608)
(-2.15881 -3.89774 120.866)
(0.0431167 -2.36937 121.581)
(-3.51104 -0.836119 118.935)
(6.15153 1.84269 115.564)
(-1.90266 -3.95713 120.871)
(0.579381 -2.73463 121.363)
(-3.15361 -0.821114 118.484)
(6.63852 1.96454 115.791)
(-2.00783 -4.05369 121.776)
(0.515268 -2.8122 121.975)
(-2.84745 -0.907453 118.111)
(6.99241 1.98078 115.885)
(-1.77463 -4.04221 121.601)
(1.08189 -3.06489 121.281)
(-2.42114 -0.858022 117.567)
(7.17102 2.06608 116.018)
(-1.73839 -4.05913 122.208)
(0.958258 -3.07759 121.802)
(-2.11966 -0.86034 117.16)
(7.449 2.23299 116.239)
(-1.48829 -4.09426 121.986)
(1.1975 -3.18955 121.437)
(-1.7627 -0.82131 116.537)
(7.64152 2.42684 116.456)
(-1.60678 -4.13598 122.915)
(1.31095 -3.17456 121.644)
(-1.49789 -0.841396 116.102)
(7.89522 2.49716 116.77)
(-1.3197 -4.07408 122.901)
(2.00209 -3.35767 121.498)
(-1.17157 -0.795249 115.39)
(8.06138 2.63909 116.985)
(-1.02387 -4.093 122.65)
(2.79192 -3.6047 121.634)
(-0.898158 -0.674625 114.955)
(8.26232 2.78521 117.392)
(-1.11626 -4.1389 123.643)
(3.36661 -3.79462 121.785)
(-0.59933 -0.55985 114.167)
(8.31041 2.94865 117.637)
(-0.908409 -4.13453 123.288)
(3.63941 -3.90524 122.081)
(-0.410771 -0.257456 113.746)
(8.26157 3.10786 118.054)
(-0.259528 -4.12029 122.908)
(3.69708 -3.93675 121.912)
(-0.354533 -0.0289236 112.922)
(8.01555 3.21724 118.325)
(-0.34109 -4.12385 123.898)
(3.60415 -3.9114 122.66)
(-0.379486 0.348851 112.615)
(7.64391 3.15436 118.737)
(0.0334261 -4.20041 123.165)
(3.75655 -3.93981 122.454)
(-0.745892 0.576477 111.713)
(7.07135 2.91804 118.962)
(-0.120815 -4.08809 123.511)
(3.98011 -4.16649 122.803)
(-0.964201 0.780693 111.542)
(6.38558 2.42779 119.257)
(-0.129028 -4.0564 123.656)
(4.09194 -4.41331 123.054)
(-1.22804 0.822498 111.168)
(5.55067 1.69387 119.329)
(0.204407 -4.30055 122.914)
(4.4614 -5.43247 123.546)
(-1.29848 0.853622 111.052)
(4.6642 0.859124 119.399)
(0.217118 -4.29348 123.628)
(4.41565 -6.13797 123.974)
(-1.87277 0.738977 110.312)
(3.66769 -0.0134172 119.208)
(0.393783 -4.43698 123.134)
(4.75716 -7.19855 124.539)
(-2.51894 0.371106 110.154)
(2.6317 -0.722914 118.944)
(0.396081 -4.7381 123.095)
(4.63203 -7.34598 125.392)
(-2.85655 0.143113 110.014)
(1.53321 -1.34423 118.472)
(-0.0470475 -5.11775 123.209)
(4.80816 -8.39754 125.863)
(-3.21322 -0.246298 109.896)
(0.500302 -1.57168 117.926)
(-0.938581 -5.55296 122.806)
(4.64537 -8.84548 126.835)
(-3.54404 -0.707542 109.721)
(-0.551744 -1.5593 117.242)
(-0.99937 -5.5549 123.909)
(4.97644 -10.0038 127.303)
(-3.79548 -1.08167 109.685)
(-1.50502 -1.02656 116.457)
(-1.54301 -5.62601 123.312)
(5.01632 -10.6045 128.262)
(-3.97717 -1.46704 109.582)
(-2.47201 -0.217561 115.65)
(-1.6584 -5.69012 123.845)
(5.41945 -11.5014 128.799)
(-4.3136 -1.61137 109.581)
(-3.30919 1.12263 114.711)
(-1.65284 -5.66361 124.163)
(5.84576 -12.3495 129.582)
(-4.605 -1.67176 109.622)
(-4.08707 2.6596 113.889)
(-1.99069 -5.37676 123.685)
(6.37998 -13.1967 130.257)
(-4.94993 -1.47246 109.743)
(-4.71206 4.69043 112.859)
(-1.94869 -5.30616 124.255)
(6.99405 -14.0997 130.807)
(-5.1499 -1.2907 109.856)
(-5.20694 6.77193 112.115)
(-1.82537 -5.16906 124.318)
(7.36073 -14.6889 131.528)
(-5.38396 -0.79709 110.122)
(-5.5788 9.15838 111.075)
(-1.76933 -5.08933 124.404)
(8.09867 -15.5102 131.918)
(-5.42071 -0.399734 110.383)
(-5.74998 11.5369 110.521)
(-2.08125 -4.69709 123.791)
(8.83498 -16.4346 132.56)
(-5.56214 0.270203 110.691)
(-5.86023 14.0396 109.532)
(-2.22585 -4.26432 124.041)
(9.51825 -17.2259 132.843)
(-5.51501 0.684936 111.11)
(-5.66077 16.3951 109.21)
(-2.42721 -3.92196 123.602)
(10.0202 -17.9698 133.359)
(-5.63121 1.44424 111.441)
(-5.50797 18.6422 108.298)
(-2.71312 -3.47733 123.382)
(10.6756 -18.6816 133.587)
(-5.58082 1.93188 111.995)
(-4.94322 20.7285 108.247)
(-3.16444 -2.87372 122.917)
(11.4317 -19.5053 133.936)
(-5.70086 2.73944 112.337)
(-4.60886 22.6245 107.418)
(-3.92866 -2.27698 122.592)
(12.5145 -20.3544 134.113)
(-5.69578 3.21239 113.014)
(-3.75404 24.5168 107.605)
(-5.02 -1.53974 121.944)
(13.6818 -21.3321 134.367)
(-5.84148 3.9989 113.384)
(-3.28862 26.1375 106.866)
(-6.5461 -0.865075 121.435)
(15.113 -22.3193 134.513)
(-5.93091 4.4373 114.155)
(-2.22281 28.0039 107.235)
(-8.44466 -0.135579 120.734)
(16.444 -23.3611 134.653)
(-6.1465 5.14304 114.57)
(-1.61637 29.401 106.624)
(-10.5786 0.49637 120.093)
(17.8774 -24.3135 134.7)
(-6.38135 5.53982 115.398)
(-0.434325 31.2936 107.089)
(-12.877 1.0909 119.411)
(19.0411 -25.2241 134.69)
(-6.73117 6.1429 115.872)
(0.367148 32.4777 106.692)
(-15.1988 1.58437 118.725)
(20.2485 -26.0114 134.574)
(-7.17104 6.54363 116.718)
(1.56289 34.3017 107.16)
(-17.4166 1.96218 118.099)
(21.1191 -26.7181 134.375)
(-7.7415 7.10085 117.258)
(2.58749 35.381 107.052)
(-19.3887 2.26583 117.436)
(22.027 -27.2965 134.052)
(-8.42725 7.60575 118.098)
(3.79889 36.9633 107.47)
(-21.1348 2.43181 116.847)
(22.6054 -27.7944 133.68)
(-9.26443 8.22441 118.714)
(4.83548 37.7957 107.667)
(-22.6852 2.56709 116.223)
(23.2423 -28.1912 133.167)
(-10.2333 8.9139 119.563)
(6.20926 39.2996 107.98)
(-24.1895 2.5785 115.643)
(23.614 -28.5282 132.633)
(-11.3411 9.68018 120.268)
(7.19412 39.8183 108.465)
(-25.7084 2.5562 115.064)
(24.0869 -28.8233 131.941)
(-12.599 10.5362 121.156)
(8.64795 41.2059 108.717)
(-27.3536 2.44775 114.497)
(24.4089 -29.136 131.236)
(-13.9497 11.4508 121.968)
(9.95446 41.8784 109.297)
(-29.0485 2.24771 113.978)
(24.8404 -29.4297 130.343)
(-15.4272 12.3582 122.909)
(11.005 42.4389 109.722)
(-30.8298 1.98992 113.465)
(25.2058 -29.8029 129.504)
(-16.8763 13.3294 123.85)
(12.0755 42.9389 110.092)
(-32.5218 1.60786 113.019)
(25.6429 -30.1374 128.445)
(-18.4264 14.1478 124.881)
(13.2523 43.2714 110.643)
(-34.1558 1.2041 112.582)
(26.0622 -30.5786 127.497)
(-19.8052 14.9786 125.938)
(14.168 43.5982 110.923)
(-35.5514 0.686205 112.226)
(26.481 -30.8863 126.308)
(-21.1532 15.6486 126.993)
(15.2889 43.9943 111.373)
(-36.7866 0.188015 111.851)
(26.9067 -31.3163 125.279)
(-22.3964 16.1344 128.18)
(16.4637 44.4001 111.771)
(-37.7029 -0.424098 111.603)
(27.2455 -31.5486 123.988)
(-23.3221 16.5674 129.141)
(17.6999 44.7978 112.01)
(-38.4354 -0.960789 111.268)
(27.5745 -31.8975 122.916)
(-24.397 16.7325 130.326)
(19.022 44.9392 112.684)
(-38.8407 -1.67065 111.129)
(27.7561 -31.9734 121.583)
(-25.058 16.7344 131.272)
(20.2122 44.9676 112.7)
(-39.0545 -2.24354 110.859)
(27.8645 -32.1432 120.526)
(-25.296 16.5927 132.242)
(21.4195 44.572 113.62)
(-39.0141 -2.90375 110.814)
(27.8127 -31.9282 119.214)
(-25.5442 16.4749 133.04)
(22.2844 43.9139 113.521)
(-38.7617 -3.53267 110.624)
(27.597 -31.7922 118.243)
(-25.6892 16.2031 133.891)
(23.1296 42.9129 114.623)
(-38.3627 -4.05198 110.638)
(27.2585 -31.1414 116.991)
(-25.5448 15.9074 134.566)
(23.7232 41.3694 114.284)
(-37.7464 -4.66458 110.551)
(26.7385 -30.5558 116.162)
(-25.121 15.5468 135.162)
(24.2769 39.5857 115.533)
(-37.0725 -5.16513 110.653)
(26.116 -29.4397 115.036)
(-24.6033 15.1663 135.689)
(24.5587 37.1108 115.171)
(-36.3655 -5.39017 110.574)
(25.3895 -28.2685 114.324)
(-24.1516 15.0473 136.104)
(24.7965 34.3451 116.229)
(-35.6854 -5.8647 110.808)
(24.5393 -26.9563 113.477)
(-23.8643 15.1051 136.539)
(25.0149 31.2407 115.993)
(-34.978 -5.80314 110.74)
(23.8982 -25.2115 112.797)
(-23.2165 14.7613 136.824)
(25.0843 27.1434 116.588)
(-33.9699 -5.74621 110.939)
(23.1268 -23.8089 112.32)
(-22.7646 14.7411 137.157)
(25.4968 24.1239 116.654)
(-33.1485 -5.53802 110.91)
(22.6417 -22.1047 111.821)
(-22.1851 14.4425 137.408)
(25.8073 18.4615 116.592)
(-32.249 -5.62861 110.998)
(22.3214 -20.8754 111.81)
(-21.5967 14.1263 137.54)
(26.3798 15.9134 116.704)
(-31.1094 -5.93964 111.081)
(21.8259 -18.876 110.789)
(-20.9142 13.6842 137.688)
(26.7652 14.4038 116.745)
(-30.6275 -6.18556 110.894)
(23.0469 -19.7055 112.001)
(-20.2791 13.6375 137.589)
(27.6688 14.3739 116.635)
(-29.1648 -6.77391 111.056)
(23.7504 -20.3158 111.941)
(-19.7019 13.1226 137.555)
(28.0152 13.4806 116.9)
)
;

boundaryField
{
    inlet
    {
        type            zeroGradient;
    }
    outlet
    {
        type            zeroGradient;
    }
    repeat_boundary
    {
        type            slip;
    }
}


// ************************************************************************* //
