FoamFile
{version 2.0; format ascii;class vectorField; location 0;object  v;}
356
(
( -4.70641e-07 -4.71899e-06 -1.66529e-05 )  
( -8.58488e-07 -1.74518e-06 -1.24655e-05 )  
( 6.93993e-06 9.18784e-06 -1.67725e-05 )  
( -8.05065e-07 -2.24198e-06 -1.9154e-05 )  
( 5.03447e-07 -6.52283e-07 -2.02011e-05 )  
( -6.41197e-07 5.62971e-06 -1.6212e-05 )  
( -1.49933e-06 1.80948e-06 -1.61359e-05 )  
( -1.10293e-06 7.76708e-07 -2.16397e-05 )  
( -1.04145e-06 -3.74233e-06 -2.07039e-05 )  
( -1.11026e-06 -8.54415e-07 -1.01874e-05 )  
( 1.06701e-05 -4.27309e-06 -1.65504e-05 )  
( 1.70684e-06 -2.77472e-06 -1.93532e-05 )  
( -1.35363e-06 2.63417e-06 -8.2947e-06 )  
( -8.38624e-07 1.4162e-06 -4.01252e-05 )  
( -8.61824e-08 -3.14162e-06 -1.79915e-05 )  
( -4.39578e-06 -5.96598e-06 -3.70842e-05 )  
( 2.67047e-06 -1.29179e-07 -1.611e-05 )  
( 4.606e-07 9.66897e-08 -1.93587e-05 )  
( -2.11212e-06 -4.71651e-06 -1.66051e-05 )  
( -2.66559e-06 -2.1846e-06 -1.59075e-05 )  
( -2.49222e-06 2.70759e-07 -1.46937e-05 )  
( -2.56734e-07 7.99101e-07 -2.06476e-05 )  
( -4.24944e-06 8.63642e-07 -1.89884e-05 )  
( -4.52988e-06 -2.08624e-08 -3.16664e-05 )  
( 3.46834e-06 -4.97561e-06 -1.37856e-05 )  
( -1.30174e-07 -3.31699e-06 -2.10073e-05 )  
( 3.79028e-06 4.18972e-06 -1.77292e-05 )  
( -5.65078e-06 -4.63863e-06 -2.37297e-05 )  
( -1.6261e-06 -8.31142e-07 -3.68033e-05 )  
( -4.53218e-06 1.552e-06 -3.53397e-05 )  
( -3.66914e-06 -4.73619e-06 -3.09316e-05 )  
( -9.67751e-06 -1.57204e-06 -4.15575e-05 )  
( 7.01271e-07 -1.17112e-07 -1.68377e-05 )  
( 8.91314e-07 -1.33861e-06 -3.43751e-05 )  
( -6.62003e-06 6.4336e-06 -3.37828e-05 )  
( 4.45168e-06 -1.86375e-06 -3.79046e-05 )  
( -2.85363e-06 5.42876e-06 -3.51183e-05 )  
( -1.51441e-06 -5.54153e-06 -1.80551e-05 )  
( 2.21632e-06 3.85268e-06 -4.14226e-05 )  
( -2.97278e-06 -2.96084e-06 -3.73641e-05 )  
( -8.54195e-06 4.12293e-06 -3.10892e-05 )  
( -3.91405e-06 1.39883e-05 -4.10104e-05 )  
( -6.06071e-06 2.26576e-06 -5.47717e-05 )  
( -4.18991e-07 2.23978e-07 -2.98859e-05 )  
( -2.92346e-06 1.49193e-06 -3.63239e-05 )  
( -6.91077e-06 -7.52332e-07 -4.77826e-05 )  
( -2.64522e-06 5.60846e-06 -4.10463e-05 )  
( -1.96332e-07 -2.98271e-06 -3.37302e-05 )  
( -8.25756e-06 4.26601e-07 -4.03911e-05 )  
( 2.46845e-07 3.94162e-06 -6.46905e-05 )  
( 1.90855e-06 7.79596e-06 -4.48005e-05 )  
( -8.36857e-06 -8.8972e-07 -5.87928e-05 )  
( -1.65294e-06 4.25012e-06 -3.44208e-05 )  
( -8.491e-06 7.42053e-07 -6.19914e-05 )  
( -3.39985e-06 -3.43406e-06 -5.65038e-05 )  
( -3.16897e-06 2.68284e-06 -4.00355e-05 )  
( -1.6773e-06 5.64887e-06 -4.08498e-05 )  
( -6.26349e-06 3.74447e-06 -5.79523e-05 )  
( 1.43422e-06 -3.59811e-06 -5.52945e-05 )  
( -1.99006e-06 -2.63206e-06 -4.6379e-05 )  
( -2.57037e-06 7.68227e-06 -6.26499e-05 )  
( -5.00947e-06 -3.82575e-06 -5.11073e-05 )  
( -3.96626e-06 6.78205e-06 -3.78025e-05 )  
( -8.06104e-06 -4.54138e-06 -6.50931e-05 )  
( -1.30735e-06 1.65352e-07 -4.75608e-05 )  
( 3.02901e-07 -5.58653e-06 -5.2488e-05 )  
( 1.62908e-05 -5.67213e-06 -6.3814e-05 )  
( -1.20371e-05 -4.47468e-07 -6.09364e-05 )  
( -8.83413e-06 5.0693e-06 -6.93088e-05 )  
( -4.77204e-06 -1.43435e-06 -5.34582e-05 )  
( -1.55828e-06 4.66229e-06 -7.79802e-05 )  
( -6.53966e-06 4.11043e-07 -5.76643e-05 )  
( -1.23474e-05 1.46569e-06 -7.86454e-05 )  
( -5.25201e-06 -9.00186e-08 -8.29469e-05 )  
( -4.65744e-06 5.16769e-07 -7.59973e-05 )  
( -8.18028e-06 9.12407e-07 -8.10429e-05 )  
( -1.53875e-05 1.35551e-07 -7.58691e-05 )  
( -1.32933e-06 5.92598e-06 -7.68966e-05 )  
( -3.68228e-06 -8.68765e-06 -8.19772e-05 )  
( -1.45469e-05 8.64678e-06 -6.82523e-05 )  
( 6.61662e-07 1.18587e-06 -6.17155e-05 )  
( -6.11847e-06 8.41673e-06 -6.70404e-05 )  
( -1.74199e-05 -6.32685e-07 -8.47003e-05 )  
( -1.06718e-05 1.61077e-06 -7.74638e-05 )  
( 6.85172e-07 5.47761e-06 -8.23904e-05 )  
( -1.35049e-05 7.19711e-06 -7.0128e-05 )  
( 1.03886e-06 6.01663e-06 -7.77881e-05 )  
( 1.53117e-05 -1.3176e-05 -7.11312e-05 )  
( -1.32096e-06 1.08721e-06 -8.96236e-05 )  
( -9.68885e-06 -6.03919e-06 -6.37225e-05 )  
( 4.70782e-06 -1.22565e-05 -7.81555e-05 )  
( -2.7879e-06 2.81007e-06 -0.00011074 )  
( 1.70606e-06 2.96115e-06 -7.06812e-05 )  
( -1.23642e-05 -1.30691e-07 -8.94646e-05 )  
( 1.83073e-06 3.18819e-06 -7.83958e-05 )  
( -6.94405e-06 2.9301e-06 -9.35468e-05 )  
( 2.37514e-06 1.04935e-06 -6.95071e-05 )  
( -8.81743e-06 6.88641e-06 -8.68713e-05 )  
( 2.11719e-06 4.07023e-06 -9.7667e-05 )  
( 8.3655e-06 8.08608e-06 -0.000100236 )  
( -1.15693e-05 2.9203e-06 -8.4979e-05 )  
( -3.04258e-06 1.23065e-05 -8.0371e-05 )  
( 8.46285e-06 -4.63298e-06 -0.000100449 )  
( -6.4345e-06 3.30645e-06 -9.54648e-05 )  
( -8.23661e-06 -1.48836e-06 -9.97482e-05 )  
( 2.05495e-06 9.47549e-06 -9.80877e-05 )  
( -1.03827e-05 4.34817e-06 -9.4608e-05 )  
( -1.07432e-05 3.13962e-06 -9.48717e-05 )  
( -9.14493e-06 7.129e-07 -9.89356e-05 )  
( -8.33926e-06 1.94337e-06 -0.000101101 )  
( -1.70887e-07 1.86896e-06 -0.000104429 )  
( 6.1088e-06 1.99763e-06 -9.97282e-05 )  
( -7.93453e-06 1.48423e-06 -9.6419e-05 )  
( 1.2439e-05 -7.11706e-06 -9.06991e-05 )  
( 3.95358e-06 2.88095e-06 -7.28049e-05 )  
( -8.51212e-06 2.90229e-06 -0.00010978 )  
( -9.24802e-06 -2.57896e-06 -0.000108 )  
( 5.63787e-06 4.72317e-06 -8.58013e-05 )  
( -7.75265e-06 -5.01683e-06 -0.000117489 )  
( -1.04962e-05 -5.96069e-07 -0.000110368 )  
( -1.94546e-06 2.56419e-06 -0.000115115 )  
( -6.63689e-06 1.54515e-05 -0.000107216 )  
( -1.02016e-05 1.27988e-07 -0.00011868 )  
( -9.13089e-06 1.54929e-05 -9.09429e-05 )  
( 1.28208e-05 -1.01932e-05 -0.000110336 )  
( -6.76688e-06 -1.929e-06 -0.000105119 )  
( -5.66065e-06 4.18354e-06 -0.000111734 )  
( -9.73684e-06 3.46114e-06 -0.000100951 )  
( -4.03858e-06 -9.27935e-07 -0.000122373 )  
( -7.55081e-06 1.45367e-06 -0.000111364 )  
( -3.90009e-06 3.16395e-06 -0.000119577 )  
( 5.65678e-06 3.02592e-07 -0.000117366 )  
( 8.67629e-06 1.83266e-06 -0.000118461 )  
( 7.91107e-06 -7.63859e-06 -0.00010091 )  
( -2.38179e-06 8.98316e-06 -0.000106172 )  
( 5.56506e-06 -4.00588e-06 -0.000127719 )  
( 5.51831e-06 -1.61777e-06 -9.14167e-05 )  
( 9.65291e-06 -5.37959e-06 -0.000113337 )  
( -9.22081e-06 8.52019e-07 -0.000114062 )  
( -3.79941e-06 3.84799e-06 -0.000115796 )  
( -9.39746e-06 -1.13523e-06 -0.000106817 )  
( 1.27563e-05 -1.01834e-05 -0.000115175 )  
( 8.32847e-06 -6.39371e-06 -0.000114658 )  
( -3.55945e-06 -3.51936e-06 -0.000124188 )  
( 1.57049e-06 -6.06608e-06 -0.000144198 )  
( 7.22592e-06 -7.7608e-06 -0.000128067 )  
( 2.20799e-06 -5.38029e-06 -0.000125645 )  
( -2.33988e-06 -2.03174e-06 -0.000126304 )  
( -2.2923e-06 -5.16083e-06 -0.000131948 )  
( 1.03434e-05 -4.60161e-06 -0.000125564 )  
( -1.52028e-06 -3.22899e-06 -0.000126365 )  
( -2.2317e-06 -3.89896e-06 -0.000119429 )  
( -7.48215e-06 -1.09527e-06 -0.000118243 )  
( 1.11734e-05 -1.02429e-05 -0.00013247 )  
( -1.60932e-06 -1.98199e-06 -0.000131296 )  
( -6.09064e-06 1.61667e-06 -0.000127101 )  
( -8.14058e-07 -1.40608e-06 -0.000131392 )  
( 5.54018e-06 -6.74673e-06 -0.000131329 )  
( 5.94871e-06 -4.11615e-06 -0.000125779 )  
( -9.02311e-06 -4.59587e-06 -0.000119181 )  
( -3.65235e-06 -4.36943e-06 -0.000137747 )  
( -1.81896e-06 -5.12552e-06 -0.000134239 )  
( 9.84652e-06 -6.68711e-06 -0.000136828 )  
( 2.8999e-06 -2.30492e-06 -0.000127616 )  
( 8.7858e-06 -7.51848e-06 -0.000128248 )  
( 6.54787e-06 -3.29775e-06 -0.00013785 )  
( 5.10655e-06 -8.48925e-06 -0.000127494 )  
( 4.63269e-06 -6.12047e-06 -0.000137752 )  
( 8.81359e-06 -3.82132e-06 -0.000138151 )  
( -5.67647e-06 -3.78783e-06 -0.000135038 )  
( 1.25588e-06 -3.91233e-06 -0.000136737 )  
( -7.83641e-06 1.71503e-06 -0.000126381 )  
( -1.97523e-06 -6.64317e-06 -0.000129924 )  
( -4.00048e-06 -6.82265e-06 -0.0001432 )  
( -7.36689e-06 -1.23505e-06 -0.000139573 )  
( 1.01053e-05 -8.54157e-06 -0.000141749 )  
( -3.20201e-06 -3.44426e-06 -0.000140048 )  
( -1.39196e-06 -4.24086e-06 -0.000137106 )  
( -2.02082e-06 9.32827e-07 -0.000146012 )  
( 1.1049e-05 -5.76148e-06 -0.000137373 )  
( 9.70358e-06 -5.18445e-06 -0.000136606 )  
( 4.22488e-06 -6.10122e-06 -0.000133889 )  
( 4.16957e-06 -5.12573e-06 -0.000140219 )  
( -7.47129e-07 -2.61655e-06 -0.000145017 )  
( -9.52041e-07 -6.56829e-06 -0.000149009 )  
( -2.85797e-06 -4.70264e-06 -0.000148894 )  
( -1.96486e-06 -3.18228e-06 -0.000147619 )  
( 6.45012e-06 -4.35481e-06 -0.000144349 )  
( -1.5941e-06 -6.73173e-06 -0.000152231 )  
( 4.06287e-06 -4.66066e-06 -0.000147339 )  
( 4.54275e-07 -1.02891e-05 -0.000153224 )  
( 4.72975e-06 -5.04079e-06 -0.000147917 )  
( 7.5548e-06 -1.24848e-05 -0.000143188 )  
( 1.84562e-07 -2.50142e-06 -0.000143428 )  
( 8.69878e-06 -1.89252e-06 -0.000143484 )  
( 8.15281e-06 -8.07483e-06 -0.000142036 )  
( 2.60101e-06 -3.91761e-06 -0.000147778 )  
( 8.21035e-06 -2.37616e-06 -0.000145055 )  
( 5.65337e-06 -5.0758e-06 -0.000145198 )  
( -4.78609e-06 -7.5801e-06 -0.000143094 )  
( -8.12966e-06 -4.38665e-06 -0.000140465 )  
( 5.00744e-06 -5.65609e-06 -0.000147839 )  
( 7.38599e-06 -3.98414e-06 -0.000147203 )  
( -2.21528e-06 -5.46457e-06 -0.000157291 )  
( -3.33031e-06 -6.62736e-06 -0.000151998 )  
( -1.01325e-06 -4.65675e-06 -0.000150444 )  
( -6.25723e-07 -4.52089e-06 -0.000150864 )  
( -1.56147e-06 -7.09369e-06 -0.0001595 )  
( 6.22728e-06 -3.28518e-06 -0.000150413 )  
( -8.58005e-07 -4.55102e-06 -0.000148679 )  
( -1.47237e-06 -5.10675e-06 -0.000157318 )  
( 2.39679e-06 -6.25622e-06 -0.000155805 )  
( 5.81956e-08 -2.75578e-06 -0.000157288 )  
( -6.04833e-06 -4.86108e-06 -0.000151565 )  
( 4.66724e-06 -5.41466e-06 -0.000151877 )  
( 1.18437e-05 -4.98471e-06 -0.000147732 )  
( 2.74543e-06 -1.1992e-05 -0.00014673 )  
( -6.03901e-06 -4.25578e-06 -0.000152575 )  
( 4.91292e-06 -4.35765e-06 -0.000146012 )  
( 6.9191e-06 -6.05361e-06 -0.000148393 )  
( 5.05851e-06 -4.99043e-06 -0.000153301 )  
( -5.37902e-06 -1.02102e-05 -0.000168478 )  
( 5.93915e-06 -4.12902e-06 -0.000151554 )  
( 5.05733e-06 -4.00167e-06 -0.000152469 )  
( -4.31795e-06 -8.10116e-06 -0.000158479 )  
( 5.07384e-06 -3.15038e-06 -0.000147476 )  
( -1.45688e-06 -7.57843e-06 -0.000162906 )  
( 1.44101e-06 -7.14207e-06 -0.000154341 )  
( -6.51567e-06 -3.27338e-07 -0.000164279 )  
( 9.11038e-07 1.00545e-06 -0.000155159 )  
( 5.06065e-06 -5.13792e-06 -0.000155555 )  
( -3.26028e-07 -1.34161e-06 -0.000158235 )  
( 1.05552e-05 -7.06254e-06 -0.000149429 )  
( -8.89942e-06 -4.63365e-06 -0.000161404 )  
( 3.0558e-06 -4.68923e-06 -0.000155413 )  
( 4.56417e-06 -3.86977e-06 -0.000157501 )  
( -1.29871e-05 -6.49153e-06 -0.000165736 )  
( -5.40982e-06 4.01175e-07 -0.000159531 )  
( 6.59398e-06 -7.84133e-06 -0.000152797 )  
( -2.50214e-06 2.00874e-06 -0.000164662 )  
( 7.0705e-06 -4.03537e-06 -0.000149872 )  
( -5.2368e-06 -7.91902e-07 -0.000156622 )  
( 4.15988e-06 -3.26913e-06 -0.000155389 )  
( -6.64444e-06 -4.64599e-06 -0.000163756 )  
( 3.26752e-06 -1.87289e-06 -0.0001563 )  
( 4.50003e-07 -4.94142e-06 -0.000160066 )  
( -3.37855e-06 -4.90106e-06 -0.000172824 )  
( -8.35966e-06 -5.21852e-06 -0.000166791 )  
( 1.78526e-06 -1.9841e-06 -0.000160144 )  
( 1.42148e-06 -1.07354e-05 -0.00015102 )  
( 4.65292e-06 -5.64198e-06 -0.000153264 )  
( -1.43043e-06 -4.34962e-06 -0.000166522 )  
( -1.40736e-06 5.53581e-06 -0.000157639 )  
( 2.64516e-06 -5.7233e-06 -0.000152964 )  
( -2.69325e-06 -2.44726e-06 -0.000156969 )  
( 8.97971e-07 -1.18023e-05 -0.000151866 )  
( 1.34345e-06 -9.40806e-06 -0.000151428 )  
( 3.72802e-06 -2.32659e-06 -0.000164103 )  
( 7.26645e-06 -1.97254e-07 -0.000149271 )  
( 8.54219e-07 -3.06891e-06 -0.000150991 )  
( -5.58034e-06 -7.50009e-06 -0.0001538 )  
( -5.25268e-06 2.74889e-06 -0.000163824 )  
( 5.43053e-06 1.97205e-07 -0.000161401 )  
( -1.68851e-05 1.18105e-06 -0.000162796 )  
( -7.97927e-06 -2.9935e-06 -0.000170792 )  
( -1.36191e-05 -7.63147e-06 -0.000162811 )  
( -1.11036e-06 -6.38857e-08 -0.000160159 )  
( 1.3516e-06 -1.21132e-06 -0.000167045 )  
( 1.26334e-06 -7.28257e-06 -0.000178199 )  
( -1.38772e-05 -1.54011e-06 -0.000170888 )  
( -3.09917e-06 -5.0287e-06 -0.000171915 )  
( 7.38416e-06 2.32306e-07 -0.000150322 )  
( -6.25323e-06 1.34209e-05 -0.000161064 )  
( -3.69533e-06 6.18644e-07 -0.000157834 )  
( -1.45576e-05 -2.0671e-06 -0.000158635 )  
( -7.51744e-06 -9.60142e-06 -0.000154643 )  
( -2.2311e-06 7.73399e-06 -0.000155611 )  
( 2.79113e-08 -4.03685e-07 -0.00014706 )  
( -2.50842e-06 1.15452e-06 -0.000179812 )  
( -7.27806e-06 -1.09759e-07 -0.000161976 )  
( -5.6724e-06 -8.22538e-06 -0.000169925 )  
( -9.83509e-06 -9.92513e-06 -0.000165859 )  
( -4.79435e-06 -5.12473e-06 -0.000182454 )  
( 1.76427e-06 6.41577e-06 -0.000164752 )  
( 1.10983e-05 1.52742e-05 -0.000173208 )  
( 8.59526e-07 -1.5189e-06 -0.000149109 )  
( -6.689e-06 2.58178e-06 -0.000170855 )  
( -4.58837e-06 -4.21916e-06 -0.000146597 )  
( 7.51303e-06 1.54425e-06 -0.000159236 )  
( -8.28672e-06 3.18003e-07 -0.000147975 )  
( -1.38858e-05 -1.10185e-05 -0.00017014 )  
( -2.24722e-06 -1.56823e-07 -0.000146947 )  
( -1.33655e-05 3.74311e-07 -0.0001665 )  
( 1.87489e-06 2.74393e-07 -0.000156187 )  
( -8.63974e-06 -1.87067e-06 -0.000179757 )  
( -1.61349e-06 -7.65228e-06 -0.000161679 )  
( 1.71453e-06 -1.41251e-06 -0.00015473 )  
( -1.72146e-05 1.20938e-05 -0.000170201 )  
( -1.25422e-05 -9.67581e-06 -0.000175597 )  
( 2.74535e-06 -6.82204e-06 -0.000151571 )  
( -1.12935e-05 -1.22936e-06 -0.0001568 )  
( 1.82671e-05 4.93429e-06 -0.000156678 )  
( -1.10871e-05 6.45066e-06 -0.000164937 )  
( -1.41604e-05 5.86676e-06 -0.000163332 )  
( -6.28598e-06 1.14278e-06 -0.000160764 )  
( 8.97629e-06 1.23306e-05 -0.00017237 )  
( 5.94737e-06 1.49805e-05 -0.000138612 )  
( -8.1285e-06 -5.14418e-06 -0.000173219 )  
( 2.74216e-06 9.06312e-07 -0.000145903 )  
( 1.0574e-06 -3.19742e-06 -0.000154375 )  
( -8.16052e-06 -1.03602e-05 -0.000176848 )  
( -1.27217e-05 6.52861e-06 -0.0001486 )  
( 6.9912e-06 6.36493e-06 -0.000163102 )  
( -9.55251e-06 -7.21882e-06 -0.000174516 )  
( -2.3168e-05 1.22977e-05 -0.000170924 )  
( -7.4967e-06 7.4704e-06 -0.000180859 )  
( -1.94021e-05 -1.77477e-06 -0.000163437 )  
( -9.10518e-06 -9.604e-06 -0.00017362 )  
( -1.18877e-05 1.03787e-06 -0.000170338 )  
( 1.26369e-05 -2.08431e-06 -0.000170527 )  
( -1.72366e-06 5.19163e-06 -0.000159057 )  
( -2.72344e-05 1.65518e-05 -0.000144169 )  
( -3.54847e-07 1.62295e-06 -0.000186814 )  
( 2.11682e-05 3.7431e-06 -0.000160187 )  
( 1.02056e-06 1.76236e-05 -0.000144834 )  
( 2.10835e-05 3.78878e-06 -0.000166218 )  
( -3.06061e-06 3.12695e-06 -0.00016965 )  
( 1.4664e-05 8.45166e-06 -0.000158162 )  
( -5.29204e-06 8.09773e-06 -0.000141805 )  
( -1.87437e-05 -1.05328e-05 -0.000171539 )  
( 9.57328e-07 4.67868e-07 -0.000150174 )  
( -3.50936e-05 6.12155e-06 -0.000170934 )  
( 1.72257e-06 5.96338e-06 -0.000183173 )  
( -4.50991e-05 -1.90254e-05 -0.000145023 )  
( -1.9981e-05 -7.79637e-06 -0.000174801 )  
( -7.62629e-06 -1.6966e-05 -0.00022182 )  
( -8.29726e-06 -2.08118e-06 -0.000176819 )  
( 3.05472e-06 2.73781e-05 -0.000146723 )  
( -7.71623e-06 1.59357e-05 -0.000158702 )  
( -9.78565e-07 8.61242e-06 -0.000150029 )  
( -1.00045e-05 5.76274e-06 -0.000180548 )  
( -1.83327e-06 7.82195e-06 -0.000157387 )  
( -4.32339e-06 1.58472e-05 -0.000144846 )  
( -3.31679e-05 2.01906e-05 -0.000176823 )  
( -2.68911e-07 2.54744e-05 -0.000149538 )  
( -2.96237e-05 -1.5461e-05 -0.000169802 )  
( -2.40125e-06 2.74719e-06 -0.000183618 )  
( -1.17617e-07 3.90215e-06 -0.000177909 )  
( -1.12288e-05 -6.46061e-05 -0.000215799 )  
( -3.4345e-05 -1.36455e-06 -0.000145385 )  
( -7.97097e-06 2.5239e-05 -0.000166118 )  
( 6.63926e-05 1.26222e-05 -0.000192084 )  
( 3.05117e-06 1.43264e-05 -0.000152128 )  
( -2.01338e-05 1.91282e-05 -0.000188144 )  
( -8.52485e-06 1.89272e-05 -0.000167673 )  
( 9.4698e-06 4.16923e-06 -0.00016789 )  
)
