/*--------------------------------*- C++ -*----------------------------------*\
| =========                 |                                                 |
| \\      /  F ield         | OpenFOAM: The Open Source CFD Toolbox           |
|  \\    /   O peration     | Version:  5.x                                   |
|   \\  /    A nd           | Web:      www.OpenFOAM.org                      |
|    \\/     M anipulation  |                                                 |
\*---------------------------------------------------------------------------*/
FoamFile
{
    version     2.0;
    format      ascii;
    class       volScalarField;
    location    "100000";
    object      p;
}
// * * * * * * * * * * * * * * * * * * * * * * * * * * * * * * * * * * * * * //

dimensions      [0 2 -2 0 0 0 0];

internalField   nonuniform List<scalar> 
2250
(
3.27176e-10
3.45993e-10
3.71778e-10
3.90682e-10
3.95851e-10
3.2788e-10
3.4378e-10
3.63422e-10
3.7323e-10
3.68393e-10
3.19888e-10
3.06234e-10
2.9902e-10
2.87655e-10
2.70546e-10
3.15675e-10
2.52099e-10
2.00994e-10
1.61609e-10
1.32351e-10
3.16974e-10
1.9715e-10
8.791e-11
2.61232e-12
-4.61397e-11
9.5535e-10
1.03653e-09
1.11492e-09
1.1607e-09
1.16292e-09
9.51903e-10
1.02036e-09
1.07443e-09
1.09137e-09
1.06425e-09
9.20176e-10
9.1026e-10
8.87165e-10
8.4752e-10
7.95526e-10
8.87661e-10
7.57674e-10
6.16388e-10
5.04489e-10
4.35662e-10
8.82607e-10
6.0354e-10
3.1292e-10
9.58475e-11
2.52698e-12
1.57059e-09
1.72461e-09
1.84102e-09
1.88973e-09
1.86985e-09
1.56234e-09
1.68809e-09
1.75721e-09
1.76005e-09
1.70115e-09
1.49642e-09
1.51611e-09
1.47351e-09
1.40258e-09
1.32462e-09
1.39588e-09
1.27837e-09
1.08611e-09
9.31274e-10
8.56432e-10
1.30776e-09
1.02086e-09
6.64711e-10
4.1405e-10
3.5224e-10
2.24368e-09
2.41099e-09
2.50986e-09
2.52596e-09
2.47545e-09
2.23583e-09
2.35631e-09
2.39249e-09
2.35836e-09
2.27349e-09
2.13537e-09
2.14691e-09
2.07111e-09
1.97545e-09
1.89117e-09
1.96623e-09
1.86421e-09
1.66132e-09
1.50917e-09
1.45475e-09
1.75396e-09
1.5295e-09
1.23174e-09
1.05489e-09
1.05599e-09
2.98265e-09
3.07601e-09
3.09969e-09
3.0575e-09
2.97863e-09
2.96311e-09
3.00162e-09
2.96587e-09
2.88551e-09
2.79004e-09
2.82389e-09
2.78129e-09
2.67027e-09
2.56375e-09
2.48966e-09
2.60234e-09
2.50405e-09
2.32783e-09
2.21333e-09
2.18342e-09
2.27775e-09
2.15389e-09
1.99799e-09
1.93902e-09
1.97354e-09
3.65927e-09
3.63855e-09
3.58063e-09
3.4877e-09
3.39791e-09
3.61047e-09
3.54765e-09
3.45162e-09
3.34261e-09
3.25705e-09
3.43558e-09
3.34316e-09
3.22471e-09
3.12653e-09
3.06916e-09
3.17811e-09
3.10922e-09
2.99301e-09
2.92253e-09
2.89689e-09
2.76875e-09
2.80556e-09
2.8038e-09
2.81611e-09
2.82082e-09
4.12579e-09
4.0454e-09
3.95754e-09
3.85521e-09
3.78172e-09
4.04805e-09
3.9523e-09
3.85156e-09
3.75225e-09
3.69505e-09
3.85722e-09
3.77868e-09
3.69655e-09
3.62691e-09
3.58801e-09
3.58715e-09
3.59005e-09
3.55033e-09
3.5114e-09
3.47667e-09
3.15495e-09
3.34622e-09
3.44067e-09
3.45286e-09
3.40881e-09
4.34521e-09
4.32376e-09
4.28678e-09
4.23565e-09
4.20898e-09
4.2608e-09
4.24168e-09
4.2074e-09
4.16833e-09
4.1581e-09
4.0727e-09
4.09084e-09
4.09506e-09
4.08732e-09
4.08315e-09
3.81221e-09
3.92225e-09
3.97561e-09
3.98513e-09
3.97103e-09
3.4238e-09
3.71145e-09
3.85371e-09
3.87146e-09
3.84095e-09
4.38092e-09
4.53597e-09
4.64737e-09
4.72343e-09
4.77947e-09
4.30688e-09
4.46244e-09
4.58369e-09
4.67602e-09
4.74474e-09
4.1267e-09
4.32851e-09
4.49652e-09
4.61861e-09
4.69277e-09
3.90164e-09
4.18458e-09
4.39275e-09
4.52668e-09
4.60041e-09
3.61826e-09
4.02171e-09
4.26011e-09
4.38464e-09
4.46224e-09
4.27713e-09
4.72919e-09
5.11993e-09
5.42252e-09
5.60881e-09
4.20818e-09
4.66072e-09
5.06879e-09
5.39292e-09
5.59239e-09
4.07461e-09
4.58643e-09
5.0394e-09
5.39063e-09
5.60129e-09
3.97e-09
4.54423e-09
5.01952e-09
5.3811e-09
5.60147e-09
3.9111e-09
4.52419e-09
4.98903e-09
5.34007e-09
5.57332e-09
4.04454e-09
4.98645e-09
5.82008e-09
6.46326e-09
6.83548e-09
3.99126e-09
4.94632e-09
5.80277e-09
6.46855e-09
6.85651e-09
4.00398e-09
5.00313e-09
5.88344e-09
6.56303e-09
6.95742e-09
4.13153e-09
5.13911e-09
6.01266e-09
6.68643e-09
7.07509e-09
4.38774e-09
5.32981e-09
6.17415e-09
6.82392e-09
7.19397e-09
3.81997e-09
5.49943e-09
6.93226e-09
8.01757e-09
8.62681e-09
3.83501e-09
5.52221e-09
6.97201e-09
8.07037e-09
8.69277e-09
4.04996e-09
5.71616e-09
7.16022e-09
8.25058e-09
8.86009e-09
4.37516e-09
5.98671e-09
7.40275e-09
8.45874e-09
9.02617e-09
4.78685e-09
6.31212e-09
7.69867e-09
8.69097e-09
9.18508e-09
3.89216e-09
6.49689e-09
8.66462e-09
1.02833e-08
1.11776e-08
4.00767e-09
6.57999e-09
8.75172e-09
1.03713e-08
1.12714e-08
4.33666e-09
6.82688e-09
8.97996e-09
1.05763e-08
1.14434e-08
4.67541e-09
7.10766e-09
9.23257e-09
1.07709e-08
1.15687e-08
5.0028e-09
7.43774e-09
9.5174e-09
1.09407e-08
1.16401e-08
4.41206e-09
8.09117e-09
1.11794e-08
1.34709e-08
1.47227e-08
4.5785e-09
8.19439e-09
1.12825e-08
1.35732e-08
1.48244e-08
4.88957e-09
8.42544e-09
1.14984e-08
1.37618e-08
1.49723e-08
5.17271e-09
8.6775e-09
1.1715e-08
1.39094e-08
1.50556e-08
5.50771e-09
9.00336e-09
1.19298e-08
1.39781e-08
1.5055e-08
5.19851e-09
1.02824e-08
1.46287e-08
1.78411e-08
1.95738e-08
5.34623e-09
1.03899e-08
1.47426e-08
1.79588e-08
1.96853e-08
5.63552e-09
1.06381e-08
1.49703e-08
1.81569e-08
1.98508e-08
6.01146e-09
1.09495e-08
1.52116e-08
1.83333e-08
1.99969e-08
6.61439e-09
1.13676e-08
1.54497e-08
1.84392e-08
2.0091e-08
6.02438e-09
1.31532e-08
1.92748e-08
2.37674e-08
2.61565e-08
6.18042e-09
1.33099e-08
1.94337e-08
2.39238e-08
2.63035e-08
6.57063e-09
1.36657e-08
1.97467e-08
2.42061e-08
2.65712e-08
7.20044e-09
1.41483e-08
2.01254e-08
2.45414e-08
2.69141e-08
8.09624e-09
1.47467e-08
2.05419e-08
2.48828e-08
2.72986e-08
6.98797e-09
1.69882e-08
2.55388e-08
3.17663e-08
3.50483e-08
7.26017e-09
1.72536e-08
2.57802e-08
3.19904e-08
3.52664e-08
7.8574e-09
1.7783e-08
2.62487e-08
3.24336e-08
3.57079e-08
8.7827e-09
1.851e-08
2.68658e-08
3.30331e-08
3.63303e-08
9.91796e-09
1.93661e-08
2.75796e-08
3.37433e-08
3.71162e-08
8.33599e-09
2.21646e-08
3.39679e-08
4.254e-08
4.70508e-08
8.77424e-09
2.25555e-08
3.4311e-08
4.28572e-08
4.73665e-08
9.60686e-09
2.32914e-08
3.49837e-08
4.35071e-08
4.80127e-08
1.08259e-08
2.43048e-08
3.58984e-08
4.44153e-08
4.89279e-08
1.2293e-08
2.55055e-08
3.6975e-08
4.55367e-08
5.01125e-08
1.00411e-08
2.90655e-08
4.52984e-08
5.70948e-08
6.33116e-08
1.06261e-08
2.9576e-08
4.57525e-08
5.75167e-08
6.37303e-08
1.17358e-08
3.0556e-08
4.66577e-08
5.83841e-08
6.458e-08
1.33016e-08
3.18943e-08
4.78958e-08
5.9597e-08
6.5763e-08
1.52077e-08
3.35086e-08
4.93717e-08
6.11077e-08
6.72633e-08
1.19579e-08
3.82566e-08
6.06402e-08
7.69065e-08
8.54844e-08
1.2728e-08
3.89082e-08
6.12082e-08
7.74239e-08
8.599e-08
1.42273e-08
4.01886e-08
6.23591e-08
7.84937e-08
8.7015e-08
1.62765e-08
4.19236e-08
6.39401e-08
7.99779e-08
8.84193e-08
1.87292e-08
4.40164e-08
6.58363e-08
8.17951e-08
9.0109e-08
1.43147e-08
5.07139e-08
8.16251e-08
1.04076e-07
1.1591e-07
1.5368e-08
5.15504e-08
8.23065e-08
1.04667e-07
1.16465e-07
1.7352e-08
5.31854e-08
8.37077e-08
1.05904e-07
1.17609e-07
2.00466e-08
5.5421e-08
8.5653e-08
1.07613e-07
1.19167e-07
2.32596e-08
5.81073e-08
8.79853e-08
1.09636e-07
1.20954e-07
1.76331e-08
6.78363e-08
1.10502e-07
1.41504e-07
1.57829e-07
1.90164e-08
6.8891e-08
1.11305e-07
1.42144e-07
1.58391e-07
2.15348e-08
7.09415e-08
1.12966e-07
1.43511e-07
1.5959e-07
2.50476e-08
7.3807e-08
1.15305e-07
1.45418e-07
1.61245e-07
2.93607e-08
7.72984e-08
1.18125e-07
1.47641e-07
1.6314e-07
2.22418e-08
9.14239e-08
1.50339e-07
1.93177e-07
2.15727e-07
2.39791e-08
9.27404e-08
1.51281e-07
1.93847e-07
2.16267e-07
2.72336e-08
9.53342e-08
1.53235e-07
1.95314e-07
2.17452e-07
3.19047e-08
9.90262e-08
1.56021e-07
1.97403e-07
2.19157e-07
3.77635e-08
1.03604e-07
1.59419e-07
1.99894e-07
2.2118e-07
2.83452e-08
1.23945e-07
2.05404e-07
2.64664e-07
2.95854e-07
3.0613e-08
1.25612e-07
2.06498e-07
2.65327e-07
2.96308e-07
3.50686e-08
1.28943e-07
2.08774e-07
2.66796e-07
2.97341e-07
4.14641e-08
1.33706e-07
2.12041e-07
2.68965e-07
2.98926e-07
4.9359e-08
1.39615e-07
2.16073e-07
2.71659e-07
3.0092e-07
3.65916e-08
1.6896e-07
2.81672e-07
3.63766e-07
4.0691e-07
3.97254e-08
1.7107e-07
2.82876e-07
3.64271e-07
4.07079e-07
4.58992e-08
1.75287e-07
2.85377e-07
3.65456e-07
4.0761e-07
5.46597e-08
1.81318e-07
2.89036e-07
3.67367e-07
4.08594e-07
6.52268e-08
1.88746e-07
2.9363e-07
3.69912e-07
4.10064e-07
4.8044e-08
2.31504e-07
3.87401e-07
5.01417e-07
5.61028e-07
5.23524e-08
2.34052e-07
3.88532e-07
5.01379e-07
5.60485e-07
6.0702e-08
2.39138e-07
3.90919e-07
5.01633e-07
5.59733e-07
7.25219e-08
2.46523e-07
3.9463e-07
5.02501e-07
5.59169e-07
8.66832e-08
2.55651e-07
3.99468e-07
5.04102e-07
5.59122e-07
6.35073e-08
3.18841e-07
5.33899e-07
6.93275e-07
7.75314e-07
6.92712e-08
3.2156e-07
5.34575e-07
6.91908e-07
7.73246e-07
8.04052e-08
3.27158e-07
5.36219e-07
6.89868e-07
7.69769e-07
9.62678e-08
3.35745e-07
5.39294e-07
6.8813e-07
7.65996e-07
1.15253e-07
3.46624e-07
5.43675e-07
6.87208e-07
7.62588e-07
8.26773e-08
4.42265e-07
7.364e-07
9.62481e-07
1.07415e-06
9.05198e-08
4.44377e-07
7.36033e-07
9.58219e-07
1.06908e-06
1.05612e-07
4.49278e-07
7.35941e-07
9.51093e-07
1.06031e-06
1.27312e-07
4.58165e-07
7.37412e-07
9.43782e-07
1.0505e-06
1.53074e-07
4.7021e-07
7.40127e-07
9.37194e-07
1.04044e-06
1.03283e-07
6.19205e-07
1.01606e-06
1.34321e-06
1.4928e-06
1.14479e-07
6.19305e-07
1.01347e-06
1.33316e-06
1.48207e-06
1.35586e-07
6.20693e-07
1.00961e-06
1.31549e-06
1.46306e-06
1.66871e-07
6.27452e-07
1.00832e-06
1.29719e-06
1.44256e-06
2.03228e-07
6.38098e-07
1.00756e-06
1.27853e-06
1.41992e-06
1.22746e-07
8.7334e-07
1.40449e-06
1.88526e-06
2.08308e-06
1.39132e-07
8.69361e-07
1.3972e-06
1.86434e-06
2.06188e-06
1.6818e-07
8.62004e-07
1.38444e-06
1.82545e-06
2.02277e-06
2.15418e-07
8.63226e-07
1.37869e-06
1.78754e-06
1.98461e-06
2.68801e-07
8.65324e-07
1.37058e-06
1.74319e-06
1.93686e-06
1.37256e-07
1.23665e-06
1.94818e-06
2.66235e-06
2.92261e-06
1.62869e-07
1.22564e-06
1.93156e-06
2.62177e-06
2.88266e-06
1.99948e-07
1.19853e-06
1.8974e-06
2.53912e-06
2.80205e-06
2.74785e-07
1.19251e-06
1.8876e-06
2.47133e-06
2.73901e-06
3.51489e-07
1.16945e-06
1.86022e-06
2.37176e-06
2.63823e-06
1.36259e-07
1.75397e-06
2.71361e-06
3.78133e-06
4.13518e-06
1.82408e-07
1.73316e-06
2.68022e-06
3.70661e-06
4.06376e-06
2.21704e-07
1.66215e-06
2.59571e-06
3.53329e-06
3.89529e-06
3.47601e-07
1.6557e-06
2.58941e-06
3.42843e-06
3.79476e-06
4.51839e-07
1.5717e-06
2.51645e-06
3.21739e-06
3.58867e-06
9.77927e-08
2.49e-06
3.79741e-06
5.3846e-06
5.93474e-06
1.86135e-07
2.4596e-06
3.73624e-06
5.25541e-06
5.80951e-06
2.1667e-07
2.29773e-06
3.54649e-06
4.90369e-06
5.46453e-06
4.25872e-07
2.30729e-06
3.54934e-06
4.76237e-06
5.27024e-06
5.73633e-07
2.10008e-06
3.39806e-06
4.3494e-06
4.88098e-06
-2.12761e-08
3.55127e-06
5.38261e-06
7.76742e-06
8.61238e-06
1.40407e-07
3.49794e-06
5.25741e-06
7.54316e-06
8.35558e-06
1.55378e-07
3.12592e-06
4.90552e-06
6.85641e-06
7.67571e-06
4.86037e-07
3.21051e-06
4.84988e-06
6.61907e-06
7.31051e-06
7.32844e-07
2.79061e-06
4.57503e-06
5.87142e-06
6.64049e-06
-3.46908e-07
5.05191e-06
7.73698e-06
1.14292e-05
1.26569e-05
-7.00194e-08
4.90859e-06
7.43e-06
1.09386e-05
1.20612e-05
-3.55984e-08
4.1117e-06
6.85818e-06
9.59963e-06
1.07721e-05
6.23715e-07
4.22994e-06
6.63572e-06
9.15108e-06
1.00913e-05
9.42213e-07
3.64521e-06
6.15279e-06
7.86755e-06
8.981e-06
-1.81611e-06
5.75251e-06
9.72997e-06
1.50827e-05
1.68459e-05
-1.34354e-06
5.72465e-06
9.58413e-06
1.46001e-05
1.61424e-05
-6.39461e-07
4.88777e-06
9.26067e-06
1.29117e-05
1.45695e-05
3.714e-07
5.45106e-06
8.9545e-06
1.23975e-05
1.3689e-05
1.02937e-06
4.73306e-06
8.15417e-06
1.02829e-05
1.17141e-05
9.02385e-07
1.41702e-05
1.97822e-05
2.96337e-05
3.21502e-05
1.90207e-06
1.30924e-05
1.84521e-05
2.73951e-05
2.93476e-05
2.34411e-06
9.81882e-06
1.56013e-05
2.15585e-05
2.4354e-05
2.46018e-06
1.01469e-05
1.44355e-05
1.96183e-05
2.11909e-05
4.16683e-06
7.54426e-06
1.36088e-05
1.59692e-05
1.90946e-05
-1.03988e-05
5.54244e-06
1.75522e-05
3.01014e-05
3.54255e-05
-8.99027e-06
5.22252e-06
1.60174e-05
2.73653e-05
3.12166e-05
-6.06112e-06
4.943e-06
1.55709e-05
2.22913e-05
2.56474e-05
-3.18576e-06
5.42745e-06
1.32907e-05
1.90268e-05
2.14801e-05
-2.55967e-06
6.54572e-06
1.03952e-05
1.43339e-05
1.68688e-05
-4.71347e-06
3.90113e-05
4.84029e-05
7.94181e-05
8.52258e-05
4.34702e-06
3.30817e-05
4.35704e-05
6.92498e-05
7.05403e-05
1.26553e-05
2.08215e-05
3.10654e-05
4.1797e-05
5.05085e-05
2.80363e-06
2.45685e-05
2.75459e-05
3.84933e-05
3.97152e-05
1.15163e-05
1.06451e-05
2.98675e-05
2.82375e-05
4.17688e-05
-6.6722e-05
1.87727e-05
3.46266e-05
5.63527e-05
9.66185e-05
-4.09155e-05
-2.22617e-07
3.81199e-05
4.34196e-05
7.27376e-05
-1.4321e-05
1.10808e-05
4.03127e-05
4.4212e-05
4.5426e-05
2.52633e-06
4.87577e-06
2.27355e-05
2.44806e-05
2.81983e-05
-1.88989e-05
1.55073e-05
1.17733e-05
1.98016e-05
2.20768e-05
-0.000190587
0.000164536
4.79746e-05
0.000179873
0.000242183
-1.16875e-06
3.43172e-05
0.000120412
0.000143277
0.000135719
0.00011114
3.47787e-05
4.43172e-05
6.09429e-05
6.96764e-05
2.48967e-05
6.33989e-05
2.95105e-05
2.00436e-05
2.61293e-05
1.39182e-05
-2.89107e-05
7.12376e-05
8.83174e-06
0.000117801
0.000545387
0.000738816
0.000992914
0.000792889
0.00087417
0.000689639
0.000717446
0.000740385
0.000696947
0.00073946
0.000506497
0.000647928
0.000602652
0.000691878
0.000704227
0.000959194
0.000526352
0.00051376
0.000558332
0.000413233
0.000447537
0.000487859
0.000923068
0.000627861
0.000573419
0.00143041
0.00172896
0.00132534
0.00167742
0.00217625
0.00167586
0.00108516
0.00132131
0.000774039
0.000939673
0.000914099
0.0013942
0.00145773
0.00139649
0.00270724
0.00135553
0.00118835
0.0012382
0.00147967
0.00083461
0.0018404
0.00146093
0.00166122
0.00120632
0.00115049
0.00236879
0.0027599
0.00235447
0.00241194
0.00236603
0.0024638
0.00223307
0.00225952
0.00238589
0.00246642
0.00291935
0.0021427
0.00195727
0.00228799
0.002486
0.0015214
0.00213855
0.00193869
0.00216687
0.00262807
0.00195585
0.0017817
0.00181734
0.00203857
0.00253944
0.00318456
0.00293362
0.00330807
0.00281731
0.00293037
0.00267698
0.00299123
0.00296655
0.00295478
0.00294974
0.00311145
0.00288519
0.00294326
0.00288068
0.00306927
0.00277242
0.00262532
0.00309741
0.00274868
0.003133
0.00225766
0.00256118
0.00224934
0.00345784
0.00349457
0.00362711
0.00354017
0.00360629
0.00356266
0.00387716
0.00286795
0.00348432
0.00369383
0.0036988
0.00369899
0.00343373
0.00347969
0.00345667
0.00353445
0.00352184
0.0034361
0.00321963
0.00364702
0.00320382
0.0036878
0.0033223
0.00423507
0.00358757
0.00362401
0.00373655
0.00429248
0.00444559
0.00447995
0.0038427
0.00386457
0.00451226
0.00434269
0.00419622
0.00403074
0.00407053
0.00369272
0.00390437
0.00439585
0.00437308
0.00372761
0.00388242
0.00406748
0.00402335
0.00426187
0.00406739
0.00333164
0.00395763
0.00392781
0.00371853
0.00412275
0.00466985
0.00486232
0.00504467
0.00538339
0.00480945
0.00451988
0.00479806
0.00497545
0.00429891
0.00460052
0.00432899
0.00473379
0.00488949
0.00478937
0.0050205
0.00435654
0.00457079
0.00480225
0.00469211
0.00480489
0.00467295
0.00439987
0.00472866
0.00460124
0.00472263
0.00582562
0.00529971
0.00540643
0.00563918
0.00548302
0.00492948
0.00533599
0.00538403
0.00556113
0.00551194
0.0051791
0.0054162
0.00530775
0.00637465
0.00544026
0.0051668
0.00593324
0.005447
0.00516017
0.00519725
0.00524635
0.00531241
0.0052692
0.00568431
0.00486515
0.00692661
0.00608891
0.0065145
0.00599872
0.00566507
0.00643533
0.00635063
0.00585035
0.00612005
0.00598062
0.00597581
0.00612868
0.00635348
0.00647517
0.00649804
0.00609035
0.00619573
0.00625049
0.00612778
0.00544365
0.00633512
0.00599957
0.00638165
0.0066204
0.00631322
0.00704354
0.0068577
0.0068569
0.00690669
0.00732992
0.00719003
0.00706636
0.00704945
0.00687801
0.00697872
0.00728126
0.00704619
0.00722953
0.00707418
0.00726872
0.00718213
0.00686409
0.00712829
0.00711403
0.00707912
0.0068388
0.00704677
0.00700409
0.00696777
0.00703432
0.00737375
0.00742998
0.00724484
0.00741193
0.00740098
0.00745028
0.00739991
0.00741294
0.00740242
0.00740419
0.00738856
0.00742991
0.00740066
0.00743116
0.00736031
0.00740731
0.00744305
0.00738722
0.00741422
0.00738665
0.00736259
0.00740183
0.0073383
0.00735608
0.00738637
0.00741596
0.00741182
0.00742024
0.00740347
0.00740102
0.0074126
0.00741249
0.00740386
0.00740981
0.00739981
0.00741328
0.00741065
0.00740476
0.00738185
0.00739753
0.00739821
0.00739332
0.00740297
0.00739825
0.00739963
0.0074106
0.00740863
0.00741071
0.00739965
0.00739478
0.00739317
0.00740953
0.00738125
0.00740211
0.00739866
0.00740469
0.00740673
0.00740223
0.0074074
0.00740339
0.00739217
0.00740534
0.007396
0.00740323
0.00739569
0.00740061
0.00740718
0.00739794
0.00740446
0.00739892
0.00739339
0.00740112
0.00739108
0.00739297
0.00739672
0.00739921
0.00740418
0.00740052
0.00740117
0.00739938
0.00739961
0.00740274
0.00740008
0.00740225
0.00740025
0.00739724
0.00740118
0.00739805
0.00739738
0.00739727
0.00739586
0.00739798
0.00739735
0.0073991
0.00739839
0.00739614
0.00739761
0.0073957
0.00739594
0.00739631
0.00739604
0.00740047
0.0073951
0.00739927
0.0073979
0.00739725
0.00739997
0.0073975
0.00740002
0.00739861
0.00739536
0.0073988
0.00739621
0.00739764
0.00739679
0.00739508
0.00739789
0.00739617
0.00739807
0.0073972
0.00739395
0.00739629
0.0073946
0.00739555
0.0073957
0.00739596
0.0073985
0.00739635
0.00739798
0.00739714
0.00739615
0.00739818
0.00739668
0.00739824
0.00739744
0.00739523
0.00739733
0.00739585
0.00739687
0.00739637
0.00739479
0.00739668
0.00739563
0.00739697
0.00739644
0.00739422
0.00739569
0.00739488
0.00739558
0.0073955
0.00739548
0.00739706
0.00739584
0.00739692
0.00739645
0.00739551
0.00739689
0.00739599
0.007397
0.00739655
0.00739501
0.00739634
0.00739551
0.00739623
0.00739593
0.00739462
0.00739587
0.00739528
0.00739613
0.00739585
0.00739421
0.00739522
0.00739481
0.00739533
0.00739525
0.00739518
0.00739612
0.00739552
0.00739615
0.0073959
0.00739513
0.00739599
0.00739553
0.00739613
0.00739591
0.00739484
0.00739565
0.00739524
0.0073957
0.00739555
0.00739453
0.00739531
0.00739502
0.00739554
0.0073954
0.00739422
0.00739488
0.0073947
0.00739507
0.00739502
0.00739495
0.00739548
0.00739522
0.00739557
0.00739546
0.00739489
0.00739538
0.00739519
0.00739553
0.00739544
0.0073947
0.00739517
0.00739501
0.00739529
0.00739522
0.00739447
0.00739492
0.00739483
0.00739512
0.00739507
0.00739423
0.00739463
0.00739459
0.00739483
0.00739482
0.00739477
0.00739504
0.00739498
0.00739516
0.00739513
0.00739471
0.00739497
0.00739494
0.00739511
0.00739509
0.00739458
0.00739483
0.00739482
0.00739497
0.00739496
0.00739441
0.00739466
0.00739467
0.00739482
0.00739482
0.00739423
0.00739446
0.0073945
0.00739463
0.00739465
0.00739461
0.00739475
0.00739477
0.00739486
0.00739487
0.00739457
0.0073947
0.00739474
0.00739482
0.00739483
0.00739448
0.00739461
0.00739465
0.00739473
0.00739475
0.00739435
0.00739449
0.00739454
0.00739462
0.00739464
0.00739421
0.00739434
0.00739441
0.00739449
0.00739451
0.00739448
0.00739456
0.0073946
0.00739465
0.00739467
0.00739445
0.00739453
0.00739457
0.00739462
0.00739464
0.00739438
0.00739446
0.00739451
0.00739456
0.00739458
0.00739429
0.00739437
0.00739443
0.00739448
0.0073945
0.00739419
0.00739427
0.00739433
0.00739438
0.00739441
0.00739438
0.00739443
0.00739447
0.0073945
0.00739452
0.00739435
0.00739441
0.00739445
0.00739448
0.0073945
0.00739431
0.00739436
0.0073944
0.00739444
0.00739445
0.00739424
0.0073943
0.00739434
0.00739438
0.00739439
0.00739417
0.00739423
0.00739427
0.00739431
0.00739433
0.0073943
0.00739434
0.00739437
0.0073944
0.00739441
0.00739428
0.00739432
0.00739436
0.00739438
0.00739439
0.00739425
0.00739429
0.00739432
0.00739435
0.00739436
0.0073942
0.00739424
0.00739428
0.0073943
0.00739432
0.00739415
0.00739419
0.00739423
0.00739425
0.00739427
0.00739425
0.00739428
0.0073943
0.00739432
0.00739433
0.00739423
0.00739426
0.00739429
0.0073943
0.00739431
0.00739421
0.00739424
0.00739426
0.00739428
0.00739429
0.00739417
0.00739421
0.00739423
0.00739425
0.00739426
0.00739413
0.00739417
0.00739419
0.00739421
0.00739422
0.00739421
0.00739423
0.00739425
0.00739426
0.00739427
0.0073942
0.00739422
0.00739424
0.00739425
0.00739426
0.00739418
0.0073942
0.00739422
0.00739423
0.00739424
0.00739415
0.00739418
0.0073942
0.00739421
0.00739422
0.00739413
0.00739415
0.00739417
0.00739418
0.00739419
0.00739418
0.00739419
0.00739421
0.00739422
0.00739422
0.00739417
0.00739419
0.0073942
0.00739421
0.00739421
0.00739416
0.00739417
0.00739419
0.0073942
0.0073942
0.00739414
0.00739416
0.00739417
0.00739418
0.00739418
0.00739412
0.00739413
0.00739415
0.00739416
0.00739416
0.00739416
0.00739417
0.00739418
0.00739418
0.00739419
0.00739415
0.00739416
0.00739417
0.00739418
0.00739418
0.00739414
0.00739415
0.00739416
0.00739417
0.00739417
0.00739413
0.00739414
0.00739415
0.00739416
0.00739416
0.00739411
0.00739412
0.00739413
0.00739414
0.00739415
0.00739414
0.00739415
0.00739416
0.00739416
0.00739416
0.00739414
0.00739415
0.00739415
0.00739416
0.00739416
0.00739413
0.00739414
0.00739415
0.00739415
0.00739415
0.00739412
0.00739413
0.00739414
0.00739414
0.00739414
0.00739411
0.00739412
0.00739412
0.00739413
0.00739413
0.00739413
0.00739413
0.00739414
0.00739414
0.00739415
0.00739413
0.00739413
0.00739414
0.00739414
0.00739414
0.00739412
0.00739413
0.00739413
0.00739414
0.00739414
0.00739411
0.00739412
0.00739413
0.00739413
0.00739413
0.00739411
0.00739411
0.00739412
0.00739412
0.00739412
0.00739412
0.00739412
0.00739413
0.00739413
0.00739413
0.00739412
0.00739412
0.00739413
0.00739413
0.00739413
0.00739411
0.00739412
0.00739412
0.00739413
0.00739413
0.00739411
0.00739411
0.00739412
0.00739412
0.00739412
0.0073941
0.00739411
0.00739411
0.00739412
0.00739412
0.00739411
0.00739412
0.00739412
0.00739412
0.00739412
0.00739411
0.00739412
0.00739412
0.00739412
0.00739412
0.00739411
0.00739411
0.00739412
0.00739412
0.00739412
0.00739411
0.00739411
0.00739411
0.00739411
0.00739412
0.0073941
0.00739411
0.00739411
0.00739411
0.00739411
0.00739411
0.00739411
0.00739411
0.00739412
0.00739412
0.00739411
0.00739411
0.00739411
0.00739411
0.00739412
0.00739411
0.00739411
0.00739411
0.00739411
0.00739411
0.0073941
0.00739411
0.00739411
0.00739411
0.00739411
0.0073941
0.0073941
0.00739411
0.00739411
0.00739411
0.00739411
0.00739411
0.00739411
0.00739411
0.00739411
0.00739411
0.00739411
0.00739411
0.00739411
0.00739411
0.0073941
0.00739411
0.00739411
0.00739411
0.00739411
0.0073941
0.0073941
0.00739411
0.00739411
0.00739411
0.0073941
0.0073941
0.0073941
0.0073941
0.00739411
0.0073941
0.00739411
0.00739411
0.00739411
0.00739411
0.0073941
0.0073941
0.00739411
0.00739411
0.00739411
0.0073941
0.0073941
0.0073941
0.00739411
0.00739411
0.0073941
0.0073941
0.0073941
0.0073941
0.0073941
0.0073941
0.0073941
0.0073941
0.0073941
0.0073941
0.0073941
0.0073941
0.0073941
0.0073941
0.0073941
0.0073941
0.0073941
0.0073941
0.0073941
0.0073941
0.0073941
0.0073941
0.0073941
0.0073941
0.0073941
0.0073941
0.0073941
0.0073941
0.0073941
0.0073941
0.0073941
0.0073941
0.0073941
0.0073941
0.0073941
0.0073941
0.0073941
0.0073941
0.0073941
0.0073941
0.0073941
0.0073941
0.0073941
0.0073941
0.0073941
0.0073941
0.0073941
0.0073941
0.0073941
0.0073941
0.0073941
0.0073941
0.0073941
0.0073941
0.0073941
0.0073941
0.0073941
0.0073941
0.0073941
0.0073941
0.0073941
0.0073941
0.0073941
0.0073941
0.0073941
0.0073941
0.0073941
0.0073941
0.0073941
0.0073941
0.0073941
0.0073941
0.0073941
0.0073941
0.0073941
0.0073941
0.0073941
0.0073941
0.0073941
0.0073941
0.0073941
0.0073941
0.0073941
0.0073941
0.0073941
0.0073941
0.0073941
0.0073941
0.0073941
0.0073941
0.0073941
0.0073941
0.0073941
0.0073941
0.0073941
0.0073941
0.0073941
0.0073941
0.0073941
0.0073941
0.0073941
0.0073941
0.0073941
0.0073941
0.0073941
0.0073941
0.0073941
0.0073941
0.0073941
0.0073941
0.0073941
0.0073941
0.0073941
0.0073941
0.0073941
0.0073941
0.0073941
0.0073941
0.0073941
0.0073941
0.0073941
0.0073941
0.0073941
0.0073941
0.0073941
0.0073941
0.0073941
0.0073941
0.0073941
0.0073941
0.0073941
0.0073941
0.0073941
0.0073941
0.0073941
0.0073941
0.0073941
0.0073941
0.0073941
0.0073941
0.0073941
0.0073941
0.0073941
0.0073941
0.0073941
0.0073941
0.0073941
0.0073941
0.0073941
0.0073941
0.0073941
0.0073941
0.0073941
0.0073941
0.0073941
0.0073941
0.0073941
0.0073941
0.0073941
0.0073941
0.0073941
0.0073941
0.0073941
0.0073941
0.0073941
0.0073941
0.0073941
0.0073941
0.0073941
0.0073941
0.0073941
0.0073941
0.0073941
0.0073941
0.0073941
0.0073941
0.0073941
0.0073941
0.0073941
0.0073941
0.0073941
0.0073941
0.0073941
0.0073941
0.0073941
0.0073941
0.0073941
0.0073941
0.0073941
0.0073941
0.0073941
0.0073941
0.0073941
0.0073941
0.0073941
0.0073941
0.0073941
0.0073941
0.0073941
0.0073941
0.0073941
0.0073941
0.0073941
0.0073941
0.0073941
0.0073941
0.0073941
0.0073941
0.0073941
0.0073941
0.0073941
0.0073941
0.0073941
0.0073941
0.0073941
0.0073941
0.0073941
0.0073941
0.0073941
0.0073941
0.0073941
0.0073941
0.0073941
0.0073941
0.0073941
0.0073941
0.0073941
0.0073941
0.0073941
0.0073941
0.0073941
0.0073941
0.0073941
0.0073941
0.0073941
0.0073941
0.0073941
0.0073941
0.0073941
0.0073941
0.0073941
0.0073941
0.0073941
0.0073941
0.0073941
0.0073941
0.0073941
0.0073941
0.0073941
0.0073941
0.0073941
0.0073941
0.0073941
0.0073941
0.0073941
0.0073941
0.0073941
0.0073941
0.0073941
0.0073941
0.0073941
0.0073941
0.0073941
0.0073941
0.0073941
0.0073941
0.0073941
0.0073941
0.0073941
0.0073941
0.0073941
0.0073941
0.0073941
0.0073941
0.0073941
0.0073941
0.0073941
0.0073941
0.0073941
0.0073941
0.0073941
0.0073941
0.0073941
0.0073941
0.0073941
0.0073941
0.0073941
0.0073941
0.0073941
0.0073941
0.0073941
0.0073941
0.0073941
0.0073941
0.0073941
0.0073941
0.0073941
0.0073941
0.0073941
0.0073941
0.0073941
0.0073941
0.0073941
0.0073941
0.0073941
0.0073941
0.0073941
0.0073941
0.0073941
0.0073941
0.0073941
0.0073941
0.0073941
0.0073941
0.0073941
0.0073941
0.0073941
0.0073941
0.0073941
0.0073941
0.0073941
0.0073941
0.0073941
0.0073941
0.0073941
0.0073941
0.0073941
0.0073941
0.0073941
0.0073941
0.0073941
0.0073941
0.0073941
0.0073941
0.0073941
0.0073941
0.0073941
0.0073941
0.0073941
0.0073941
0.0073941
0.0073941
0.0073941
0.0073941
0.0073941
0.0073941
0.0073941
0.0073941
0.0073941
0.0073941
0.0073941
0.0073941
0.0073941
0.0073941
0.0073941
0.0073941
0.0073941
0.0073941
0.0073941
0.0073941
)
;

boundaryField
{
    inlet
    {
        type            zeroGradient;
    }
    outlet
    {
        type            fixedValue;
        value           uniform 0;
    }
    repeat_boundary
    {
        type            zeroGradient;
    }
    procBoundary1to0
    {
        type            processor;
        value           nonuniform List<scalar> 
450
(
3.22412e-10
3.24145e-10
3.18515e-10
2.86968e-10
2.26721e-10
9.34697e-10
9.38715e-10
9.27681e-10
8.62673e-10
7.29002e-10
1.52616e-09
1.53497e-09
1.53069e-09
1.48999e-09
1.40884e-09
2.16773e-09
2.18737e-09
2.17575e-09
2.14874e-09
2.16807e-09
2.89135e-09
2.90235e-09
2.84866e-09
2.79142e-09
2.84701e-09
3.56198e-09
3.53809e-09
3.42524e-09
3.31159e-09
3.33561e-09
3.99819e-09
3.93516e-09
3.77648e-09
3.60612e-09
3.57216e-09
4.13006e-09
4.04977e-09
3.8629e-09
3.63305e-09
3.51216e-09
3.99627e-09
3.91604e-09
3.71494e-09
3.449e-09
3.25119e-09
3.60647e-09
3.52576e-09
3.36982e-09
3.19176e-09
3.08708e-09
2.93046e-09
2.87844e-09
2.88376e-09
2.9449e-09
3.10122e-09
2.07958e-09
2.13205e-09
2.35131e-09
2.62753e-09
2.90523e-09
1.31185e-09
1.49967e-09
1.82933e-09
2.14172e-09
2.29572e-09
6.97079e-10
9.4088e-10
1.24349e-09
1.53264e-09
1.65832e-09
-7.65222e-11
1.26855e-10
4.13132e-10
8.20671e-10
1.19872e-09
-1.39898e-09
-1.21361e-09
-8.00848e-10
-1.37794e-10
5.70263e-10
-3.39651e-09
-3.10956e-09
-2.45433e-09
-1.51148e-09
-5.09481e-10
-6.13787e-09
-5.6755e-09
-4.74671e-09
-3.50907e-09
-2.18255e-09
-1.00432e-08
-9.40474e-09
-8.1665e-09
-6.5342e-09
-4.78041e-09
-1.57746e-08
-1.4921e-08
-1.32589e-08
-1.10567e-08
-8.64225e-09
-2.39106e-08
-2.27262e-08
-2.04679e-08
-1.7474e-08
-1.4063e-08
-3.51316e-08
-3.35054e-08
-3.04464e-08
-2.632e-08
-2.14913e-08
-5.06583e-08
-4.84866e-08
-4.43085e-08
-3.8476e-08
-3.15806e-08
-7.22791e-08
-6.9307e-08
-6.34679e-08
-5.51852e-08
-4.53721e-08
-1.02212e-07
-9.80022e-08
-8.9763e-08
-7.81584e-08
-6.43747e-08
-1.4348e-07
-1.37559e-07
-1.26041e-07
-1.09916e-07
-9.06447e-08
-2.00406e-07
-1.92279e-07
-1.76453e-07
-1.54141e-07
-1.27305e-07
-2.78293e-07
-2.67493e-07
-2.46265e-07
-2.15614e-07
-1.78636e-07
-3.82938e-07
-3.69055e-07
-3.41571e-07
-2.99951e-07
-2.50064e-07
-5.23843e-07
-5.06045e-07
-4.71538e-07
-4.14113e-07
-3.49697e-07
-7.18663e-07
-6.95551e-07
-6.54979e-07
-5.68477e-07
-4.9162e-07
-9.95722e-07
-9.65512e-07
-9.25306e-07
-7.7748e-07
-6.99265e-07
-1.40035e-06
-1.36301e-06
-1.33457e-06
-1.06593e-06
-1.00559e-06
-2.00335e-06
-1.97978e-06
-1.9752e-06
-1.48892e-06
-1.45863e-06
-2.99718e-06
-3.04923e-06
-3.05785e-06
-2.24808e-06
-2.15034e-06
-5.67942e-06
-5.50616e-06
-5.21903e-06
-3.65554e-06
-3.26238e-06
-3.78935e-06
-5.10976e-06
-4.74986e-06
-2.04582e-06
-2.80855e-06
-2.12422e-05
-2.0371e-05
-1.76434e-05
-1.31915e-05
-9.35879e-06
-8.69045e-06
-2.02027e-05
-1.27576e-05
2.27594e-06
-5.03086e-06
-0.000108679
-6.84717e-05
-4.89707e-05
-4.38392e-05
-1.74194e-05
-3.94783e-05
-0.000147414
-6.6265e-05
3.11234e-05
-6.36646e-05
0.000384219
0.000601616
0.000670052
0.000370537
0.000469665
0.000819722
0.00109259
0.00123032
0.000738127
0.00155566
0.00195838
0.00179376
0.00169416
0.00204812
0.00181424
0.00324353
0.00361069
0.00264918
0.00262872
0.00245851
0.00357534
0.00356267
0.00342345
0.00337324
0.00396598
0.00381654
0.00401735
0.00377272
0.00444771
0.00413322
0.00457805
0.00462905
0.00440945
0.00444016
0.00456866
0.00535752
0.00521997
0.00546599
0.00510618
0.00569867
0.0060001
0.00576024
0.00600908
0.0062576
0.00661282
0.00691073
0.00719065
0.00693081
0.0070612
0.00695901
0.00742081
0.00743148
0.0074275
0.00740267
0.00735424
0.00741009
0.00740505
0.00740893
0.00741063
0.00739888
0.00740905
0.00740813
0.00740564
0.00740141
0.00739251
0.00740167
0.0074003
0.00739951
0.00739816
0.00739598
0.00739979
0.00739902
0.00739811
0.00739673
0.00739481
0.00739778
0.00739733
0.00739673
0.00739579
0.00739479
0.00739652
0.00739625
0.00739583
0.00739519
0.00739457
0.0073957
0.00739552