# vtk DataFile Version 4.0
Generated by LIGGGHTS
ASCII
DATASET POLYDATA
POINTS 1065 float
-0.00437881 -0.00438537 0.000498732 -0.00342172 -0.00467324 0.00049838 -0.00244286 -0.0049466 0.000498954 
-0.0016194 -0.00420568 0.000498202 -0.000496131 -0.00499151 0.000498567 -0.000640911 -0.00400197 0.000499159 
0.000287992 -0.00436977 0.000498496 0.00139319 -0.0045686 0.000498264 0.00240385 -0.00462036 0.000497551 
0.00371707 -0.0044173 0.00049741 0.00466423 -0.00409654 0.000499231 -0.00460555 -0.00341207 0.000497827 
-0.0036416 -0.0036981 0.000498042 -0.00268212 -0.00397671 0.000498694 -0.00197358 -0.0032716 0.000499145 
-0.000995839 -0.00306783 0.000498484 3.04107e-05 -0.00324465 0.000499012 0.000954367 -0.00362503 0.000499456 
0.00194785 -0.00373138 0.000498221 0.00294615 -0.00378042 0.000498381 0.00443325 -0.00312452 0.000498887 
-0.00485006 -0.00242923 0.000498205 -0.00389153 -0.00271245 0.000498418 -0.00293298 -0.00299369 0.000499274 
-0.00273155 -0.00200825 0.000499407 -0.00177426 -0.00229229 0.000498173 -0.000343632 -0.00231236 0.00049879 
0.000654657 -0.00230584 0.000498258 0.00150502 -0.00280552 0.00065585 0.00248763 -0.00289064 0.000498507 
0.00348371 -0.00280865 0.000498959 0.00418352 -0.00209475 0.000498784 -0.00464955 -0.00145037 0.000498893 
-0.00369138 -0.00173225 0.000499876 -0.00200207 -0.0013098 0.00049728 -0.00296322 -0.00103319 0.000498792 
-0.00104597 -0.00160127 0.000499145 2.03582e-05 -0.00138265 0.000498949 0.00101789 -0.00132784 0.000498369 
0.00185198 -0.00187723 0.000498392 0.00284856 -0.00195929 0.000499306 0.0024218 -0.00105584 0.000497969 
0.00341802 -0.00113826 0.000498308 0.00441606 -0.00109734 0.00049914 -0.00392614 -0.000760447 0.000497623 
-0.00319432 -6.13205e-05 0.000498281 -0.00223424 -0.000338334 0.000498344 -0.00125576 -0.000623605 0.000499474 
0.000360121 -0.000442761 0.000498839 0.00153604 -0.000473113 0.000498308 0.00299904 -0.000231702 0.000497674 
0.00494749 -0.000250892 0.000498468 -0.00416527 0.000208625 0.00049842 -0.00344895 0.000904827 0.000498412 
-0.00247381 0.00063257 0.000498861 -0.00149959 0.000346846 0.000499532 -0.000527159 6.1066e-05 0.000499478 
0.000211011 0.00073588 0.000498907 0.00117076 0.000457368 0.000498459 0.00215892 0.000308155 0.000499421 
0.00293789 0.000934888 0.000498525 0.00382578 0.000327257 0.000497998 0.00473985 0.000729127 0.000499062 
-0.00439896 0.00112769 0.00081027 -0.00271317 0.00171372 0.000498265 -0.00172194 0.00134371 0.000498857 
-0.000760345 0.00103323 0.000498082 -2.3569e-05 0.00170758 0.00049747 0.000937858 0.00143521 0.000498559 
0.00192478 0.00127899 0.000499041 0.00271077 0.00190733 0.000497696 0.00386339 0.00133772 0.000499681 
0.00478967 0.00172824 0.000499699 -0.00424234 0.00206331 0.000499166 -0.00350524 0.00273798 0.000499617 
-0.00251697 0.002886 0.00049682 -0.00151951 0.00284636 0.000498771 -0.000975666 0.00200888 0.000498991 
0.000693243 0.002404 0.000499068 0.00168102 0.00224755 0.000498656 0.00245744 0.00287595 0.000498686 
0.00348761 0.00253682 0.000497624 0.0044752 0.00268663 0.000497794 -0.00457689 0.00300434 0.000497847 
-0.00487901 0.00395796 0.000497331 -0.00384135 0.0036799 0.000499303 -0.00230736 0.00389659 0.00049814 
-0.00130873 0.00382181 0.00049904 -0.000536115 0.00302025 0.000498418 -0.000325149 0.00399639 0.000498074 
0.000456273 0.00337418 0.000497548 0.00144347 0.00321857 0.000499396 0.00222054 0.00384722 0.000498849 
0.00317904 0.00356752 0.000499605 0.00417481 0.00363854 0.000498392 -0.00414418 0.00463573 0.000499593 
-0.00315816 0.00438283 0.000690644 -0.0014753 0.00480565 0.00049801 0.000435955 0.00464259 0.000499414 
0.00141217 0.00443263 0.000498437 0.00294771 0.00454052 0.000499698 0.00394534 0.00461074 0.000499047 
0.00489237 0.0049306 0.000497994 -0.0045502 -0.00493489 0.00131538 -0.00381542 -0.0042492 0.00131231 
-0.00288358 -0.0046322 0.00133876 -0.00203865 -0.0048382 0.00183202 -0.00121664 -0.00465279 0.00129465 
4.49651e-05 -0.00486952 0.00132917 0.0019837 -0.00483135 0.00137756 0.00308809 -0.00469674 0.00122025 
0.00346032 -0.0040593 0.0018926 0.00433473 -0.00468914 0.00123343 -0.00477285 -0.00396173 0.00131416 
-0.00403991 -0.00327528 0.00130979 -0.00308381 -0.00356851 0.00131742 -0.00212659 -0.0039797 0.00132863 
-0.00145643 -0.00323949 0.00136695 -0.000551665 -0.00393437 0.00149199 0.000442616 -0.00395334 0.00139234 
0.00143744 -0.00399643 0.00131446 0.00188428 -0.00315072 0.00160228 0.00243762 -0.0039421 0.00134257 
0.00299526 -0.00300855 0.00134971 0.00375101 -0.00359249 0.00105838 0.00441183 -0.00365648 0.00180374 
-0.00499614 -0.0029877 0.00131306 -0.00424492 -0.00214484 0.00124004 -0.00328158 -0.00240908 0.00123145 
-0.00232949 -0.00271176 0.00124581 -0.00106043 -0.00233888 0.00119414 -0.000312216 -0.00296911 0.00139583 
0.000673444 -0.00299454 0.00122268 0.0012327 -0.00203607 0.00126559 0.00229694 -0.00229723 0.00128767 
0.00405574 -0.00267399 0.00130682 -0.00385228 -0.00123542 0.00137094 -0.00286918 -0.0014897 0.00138158 
-0.00192242 -0.00180658 0.00135812 -0.00102606 -0.00138036 0.0014733 0.000153319 -0.00198917 0.00130322 
0.000532189 -0.00106489 0.00132973 0.00171503 -0.00116469 0.00119545 0.00266644 -0.00137741 0.00141102 
0.00353708 -0.00182629 0.00121168 0.00477852 -0.0019396 0.00128603 0.00422775 -0.00112934 0.00147947 
-0.00483692 -0.000845456 0.0012714 -0.00375684 -0.000204742 0.00131081 -0.00279042 -0.000483205 0.00131571 
-0.0018084 -0.000776218 0.00131829 -0.00110891 -6.40002e-05 0.00132778 -0.000376498 -0.000708573 0.00111911 
0.000956187 -0.000164152 0.0012503 0.00232281 -0.000370695 0.00121724 0.0033917 -0.000599737 0.00133911 
0.0042841 -0.000161435 0.0012396 -0.00478421 0.000317444 0.00127601 -0.00394237 0.00075957 0.00161919 
-0.00302961 0.000487446 0.00131631 -0.00206786 0.0002157 0.00131189 -0.00132977 0.000908941 0.00130852 
-0.000357016 0.000618338 0.00131181 0.000487019 0.000497103 0.00183279 0.00172551 0.000212219 0.00176358 
0.00233561 0.000864486 0.00131089 0.00321018 0.000380844 0.00128309 0.00410817 0.000818277 0.00131934 
-0.00416778 0.00177082 0.00153839 -0.00324916 0.00146179 0.00130183 -0.00228861 0.00118973 0.00130715 
-0.00161875 0.00169878 0.00184559 -0.000582693 0.00159229 0.00131831 0.00039335 0.00135501 0.00133211 
0.00134529 0.00101561 0.001308 0.00212202 0.00184109 0.00130086 0.0032336 0.0015172 0.00125529 
0.00489164 0.00142459 0.00144851 -0.00489172 0.00236776 0.00119958 -0.00292314 0.00240515 0.00127083 
-0.00198849 0.00214544 0.00103274 -0.00110806 0.00247457 0.0013735 -6.54949e-05 0.00244731 0.00116604 
0.000780098 0.00294965 0.00134168 0.00113904 0.00201777 0.00130553 0.00184105 0.00279978 0.00131513 
0.00289714 0.00247144 0.00129935 0.00406509 0.00206411 0.00116097 0.00448755 0.00269523 0.00191068 
-0.00399122 0.00307828 0.00130417 -0.00306338 0.00347223 0.0010914 -0.00358685 0.00378769 0.00188029 
-0.00204188 0.00331322 0.00126276 -0.00106665 0.00347285 0.00140325 -7.17311e-05 0.00350983 0.00133284 
0.000829389 0.0039437 0.0012286 0.00261723 0.00342959 0.00131463 0.00383714 0.00308187 0.00125811 
0.0048056 0.0033327 0.00120974 -0.00437963 0.00408143 0.001351 -0.00363037 0.00472433 0.00150217 
-0.0027501 0.00426533 0.00161377 -0.00180799 0.00428415 0.00128215 -0.000820086 0.00443159 0.00124708 
-7.89558e-05 0.0043255 0.00190876 0.00102055 0.00492387 0.00127462 0.00178486 0.00418778 0.00139211 
0.00275491 0.0044027 0.0014956 0.00367338 0.00406692 0.00129113 0.0046304 0.0043553 0.00127244 
-0.00415262 -0.0046102 0.00217924 -0.00491886 -0.00404284 0.00291695 -0.00347409 -0.00435641 0.00287069 
-0.00278968 -0.00407515 0.00216224 -0.00243679 -0.00456878 0.00295444 -0.00147308 -0.00469466 0.00272547 
-0.000606002 -0.00475499 0.00207751 0.000540535 -0.0040802 0.00287507 0.000250647 -0.00497544 0.0025409 
0.000989673 -0.00448445 0.00207907 0.00192218 -0.00413668 0.00217541 0.00268296 -0.00478227 0.00212887 
0.00258644 -0.00417502 0.00291998 0.00338449 -0.00477178 0.00284301 0.00412744 -0.00413684 0.00263306 
0.00486021 -0.00451173 0.00206337 -0.00468094 -0.00343747 0.0021594 -0.00371957 -0.00371108 0.00214838 
-0.00218511 -0.00328935 0.00204772 -0.00139844 -0.0039923 0.00201997 -0.00186259 -0.00375525 0.00287119 
-0.000690062 -0.0039997 0.00272482 -0.000887523 -0.00315142 0.00219229 3.02981e-05 -0.00354462 0.00220454 
0.000758228 -0.00300375 0.00289759 0.00101777 -0.00348544 0.0020624 0.00182731 -0.0032363 0.00259678 
0.00270469 -0.00347419 0.00218374 0.00363863 -0.00310061 0.00210764 0.00447314 -0.00313794 0.00265501 
-0.00407367 -0.00264839 0.00208598 -0.00436014 -0.00213312 0.0028918 -0.00311279 -0.00292026 0.00207716 
-0.00253046 -0.0021089 0.0020905 -0.00249276 -0.00277951 0.0028487 -0.00160418 -0.0024774 0.00202457 
-0.00108243 -0.00232569 0.00286212 -0.00058093 -0.00208031 0.0020311 -0.000231075 -0.00286288 0.00288753 
0.000304285 -0.00259222 0.00208553 0.00130005 -0.0025293 0.00213032 0.00263948 -0.00267283 0.00277746 
0.00302397 -0.00222556 0.00197057 0.0036402 -0.00255717 0.00294478 0.00400577 -0.0021093 0.00212976 
0.00495281 -0.00242967 0.00213897 -0.00448294 -0.00160997 0.00204901 -0.00390295 -0.0012513 0.00277851 
-0.00349193 -0.00183686 0.00208054 -0.00277599 -0.00140722 0.00275766 -0.00163864 -0.00148758 0.00226038 
-0.00020541 -0.00115437 0.00199775 -0.000791464 -0.00137488 0.00277655 6.13189e-05 -0.00191381 0.00277754 
0.000748231 -0.00169781 0.00207112 0.000654558 -0.00111676 0.00287773 0.00188527 -0.00173061 0.00200077 
0.00164706 -0.00119574 0.00281064 0.00265117 -0.00156283 0.00262017 0.00342727 -0.00129779 0.00205162 
0.00460929 -0.00135169 0.00237582 -0.00425918 -0.000635556 0.00205848 -0.00475014 -0.000712922 0.00292356 
-0.00328579 -0.000854095 0.0021003 -0.00229767 -0.00074018 0.00218754 -0.00275452 -0.000179205 0.0028764 
-0.00110401 -0.000650447 0.00215046 -0.0010144 -2.55879e-05 0.00292521 -0.000264108 -0.000151857 0.00194091 
-0.000187746 -0.000583262 0.00283803 0.000677823 -0.000175122 0.00254534 0.00123375 -0.000788949 0.00198594 
[...]
POINT_DATA 1065
FIELD FieldData 7
id 1 1065 int
17 57 74 16 56 133 69 113 31 
48 91 108 72 7 89 18 107 70 
28 51 102 36 80 12 45 95 19 
104 97 22 14 29 88 60 78 15 
148 61 1 26 65 103 68 10 27 
94 110 105 62 96 82 46 43 101 
37 90 59 42 55 4 114 2 77 
93 54 21 40 25 53 23 35 58 
33 92 109 8 20 112 13 6 5 
47 52 9 38 67 32 3 34 50 
39 44 85 41 79 63 71 24 11 
30 81 87 49 144 164 146 176 149 
222 118 168 278 125 137 124 99 194 
218 190 116 162 197 153 155 206 173 
179 73 115 121 157 161 139 195 136 
231 170 64 128 181 76 202 214 86 
123 98 159 156 117 138 236 209 169 
187 75 147 160 171 211 127 165 120 
212 257 225 177 142 129 119 151 126 
175 207 174 145 66 140 208 84 152 
134 130 131 141 172 100 200 158 205 
196 122 277 106 154 143 183 166 83 
135 215 221 249 111 150 217 167 192 
216 203 132 220 343 371 229 452 331 
319 342 301 260 337 291 293 377 285 
334 248 242 219 188 307 340 320 289 
329 273 330 292 270 327 224 350 163 
193 276 199 345 254 394 275 245 305 
227 443 267 253 204 299 239 325 336 
233 283 240 258 338 256 310 316 266 
304 281 357 259 314 303 268 323 271 
308 288 263 302 210 344 296 243 261 
213 284 272 252 235 381 295 191 317 
282 186 361 185 393 389 287 230 198 
348 251 250 234 322 353 332 244 264 
367 226 321 324 379 265 392 237 246 
294 438 279 184 189 286 201 333 247 
335 255 241 228 313 383 232 387 280 
312 262 238 311 318 178 315 269 355 
180 349 326 290 182 306 369 274 328 
223 297 373 352 396 540 423 408 500 
385 431 446 449 418 436 437 356 366 
386 384 354 439 390 450 370 486 445 
488 300 397 422 347 309 429 380 432 
485 415 374 508 416 413 419 447 378 
417 441 467 407 364 475 375 498 298 
368 428 391 557 405 409 388 398 400 
359 451 382 339 425 455 362 489 341 
424 440 459 460 411 484 442 365 469 
426 399 509 358 463 404 435 454 410 
473 414 490 402 497 444 506 468 420 
372 480 401 395 448 346 562 430 403 
456 427 433 363 412 493 499 360 351 
507 376 434 406 491 578 560 563 524 
528 466 558 552 597 548 532 529 613 
541 479 503 601 561 482 546 536 623 
530 610 481 477 577 566 494 461 537 
471 616 554 587 571 556 496 522 620 
590 567 457 535 513 622 555 551 518 
585 574 487 476 511 495 547 591 504 
550 531 492 565 483 592 533 581 465 
596 579 502 542 464 519 543 462 470 
545 474 621 478 512 538 458 606 505 
619 580 453 526 615 527 553 609 549 
517 559 525 523 569 510 421 514 520 
544 539 521 501 472 534 515 604 600 
608 643 711 572 653 713 664 614 652 
637 658 598 700 672 651 583 712 632 
694 724 647 660 642 573 650 638 607 
709 575 716 731 646 669 692 714 726 
707 629 668 635 667 576 626 633 640 
654 673 603 688 679 703 594 618 663 
687 593 634 730 678 718 617 612 657 
697 645 729 691 715 683 648 624 662 
676 602 630 719 674 661 695 564 686 
665 644 704 568 586 584 666 611 725 
689 727 655 685 588 708 698 699 684 
693 582 706 627 639 631 599 670 705 
625 675 656 649 605 636 570 732 589 
516 671 762 595 659 677 710 641 899 
797 767 776 720 799 744 813 842 696 
806 840 780 773 747 765 752 836 792 
804 778 789 741 701 851 733 763 728 
828 786 761 817 764 772 883 793 740 
795 816 760 742 820 846 682 750 805 
737 860 751 838 680 790 835 736 894 
815 823 768 827 771 690 802 807 896 
628 781 811 723 787 779 829 753 784 
770 844 812 821 759 893 774 722 814 
766 782 826 739 850 832 785 822 721 
839 681 800 843 819 757 756 788 856 
777 791 746 748 878 845 809 717 743 
755 754 734 738 847 837 825 775 745 
794 769 702 783 735 803 749 865 758 
946 869 824 872 895 923 834 945 990 
975 880 928 863 913 864 831 903 935 
862 890 932 877 942 852 953 997 994 
841 931 955 919 917 888 912 1011 898 
833 884 902 801 881 848 874 861 885 
830 914 909 949 873 866 858 952 933 
849 921 915 908 853 943 1009 904 796 
854 951 925 926 818 930 886 976 944 
929 867 808 918 882 870 875 905 901 
887 948 979 900 876 941 950 879 897 
910 922 855 938 989 937 940 916 859 
857 911 939 936 924 892 889 947 920 
798 927 956 810 871 891 934 954 868 
964 906 982 962 981 972 998 973 958 
961 965 1004 999 996 966 971 907 957 
992 1003 986 1002 1010 978 983 959 967 
1008 977 1006 970 993 987 1001 963 960 
985 1000 988 974 1007 991 980 984 969 
1005 968 995 1014 1028 1049 1056 1047 1015 
1022 1019 1061 1041 1048 1026 1033 1037 1021 
1013 1020 1032 1044 1023 1042 1027 1058 1017 
1034 1025 1055 1012 1053 1040 1030 1035 1059 
1043 1063 1038 1052 1016 1057 1050 1060 1051 
1062 1024 1039 1046 1018 1031 1029 1036 1065 
1045 1054 1064 
type 1 1065 int
1 1 1 1 1 1 1 1 1 
1 1 1 1 1 1 1 1 1 
1 1 1 1 1 1 1 1 1 
1 1 1 1 1 1 1 1 1 
1 1 1 1 1 1 1 1 1 
1 1 1 1 1 1 1 1 1 
1 1 1 1 1 1 1 1 1 
1 1 1 1 1 1 1 1 1 
1 1 1 1 1 1 1 1 1 
1 1 1 1 1 1 1 1 1 
1 1 1 1 1 1 1 1 1 
1 1 1 1 1 1 1 1 1 
1 1 1 1 1 1 1 1 1 
1 1 1 1 1 1 1 1 1 
1 1 1 1 1 1 1 1 1 
1 1 1 1 1 1 1 1 1 
1 1 1 1 1 1 1 1 1 
1 1 1 1 1 1 1 1 1 
1 1 1 1 1 1 1 1 1 
1 1 1 1 1 1 1 1 1 
1 1 1 1 1 1 1 1 1 
1 1 1 1 1 1 1 1 1 
1 1 1 1 1 1 1 1 1 
1 1 1 1 1 1 1 1 1 
1 1 1 1 1 1 1 1 1 
1 1 1 1 1 1 1 1 1 
1 1 1 1 1 1 1 1 1 
1 1 1 1 1 1 1 1 1 
1 1 1 1 1 1 1 1 1 
1 1 1 1 1 1 1 1 1 
1 1 1 1 1 1 1 1 1 
1 1 1 1 1 1 1 1 1 
1 1 1 1 1 1 1 1 1 
1 1 1 1 1 1 1 1 1 
1 1 1 1 1 1 1 1 1 
1 1 1 1 1 1 1 1 1 
1 1 1 1 1 1 1 1 1 
1 1 1 1 1 1 1 1 1 
1 1 1 1 1 1 1 1 1 
1 1 1 1 1 1 1 1 1 
1 1 1 1 1 1 1 1 1 
1 1 1 1 1 1 1 1 1 
1 1 1 1 1 1 1 1 1 
1 1 1 1 1 1 1 1 1 
1 1 1 1 1 1 1 1 1 
1 1 1 1 1 1 1 1 1 
1 1 1 1 1 1 1 1 1 
1 1 1 1 1 1 1 1 1 
1 1 1 1 1 1 1 1 1 
1 1 1 1 1 1 1 1 1 
1 1 1 1 1 1 1 1 1 
1 1 1 1 1 1 1 1 1 
1 1 1 1 1 1 1 1 1 
1 1 1 1 1 1 1 1 1 
1 1 1 1 1 1 1 1 1 
1 1 1 1 1 1 1 1 1 
1 1 1 1 1 1 1 1 1 
1 1 1 1 1 1 1 1 1 
1 1 1 1 1 1 1 1 1 
1 1 1 1 1 1 1 1 1 
1 1 1 1 1 1 1 1 1 
1 1 1 1 1 1 1 1 1 
1 1 1 1 1 1 1 1 1 
1 1 1 1 1 1 1 1 1 
1 1 1 1 1 1 1 1 1 
1 1 1 1 1 1 1 1 1 
1 1 1 1 1 1 1 1 1 
1 1 1 1 1 1 1 1 1 
1 1 1 1 1 1 1 1 1 
1 1 1 1 1 1 1 1 1 
1 1 1 1 1 1 1 1 1 
1 1 1 1 1 1 1 1 1 
1 1 1 1 1 1 1 1 1 
1 1 1 1 1 1 1 1 1 
1 1 1 1 1 1 1 1 1 
1 1 1 1 1 1 1 1 1 
1 1 1 1 1 1 1 1 1 
1 1 1 1 1 1 1 1 1 
1 1 1 1 1 1 1 1 1 
1 1 1 1 1 1 1 1 1 
1 1 1 1 1 1 1 1 1 
1 1 1 1 1 1 1 1 1 
1 1 1 1 1 1 1 1 1 
1 1 1 1 1 1 1 1 1 
1 1 1 1 1 1 1 1 1 
1 1 1 1 1 1 1 1 1 
1 1 1 1 1 1 1 1 1 
1 1 1 1 1 1 1 1 1 
1 1 1 1 1 1 1 1 1 
1 1 1 1 1 1 1 1 1 
1 1 1 1 1 1 1 1 1 
1 1 1 1 1 1 1 1 1 
1 1 1 1 1 1 1 1 1 
1 1 1 1 1 1 1 1 1 
1 1 1 1 1 1 1 1 1 
1 1 1 1 1 1 1 1 1 
1 1 1 1 1 1 1 1 1 
1 1 1 1 1 1 1 1 1 
1 1 1 1 1 1 1 1 1 
1 1 1 1 1 1 1 1 1 
1 1 1 1 1 1 1 1 1 
1 1 1 1 1 1 1 1 1 
1 1 1 1 1 1 1 1 1 
1 1 1 1 1 1 1 1 1 
1 1 1 1 1 1 1 1 1 
1 1 1 1 1 1 1 1 1 
1 1 1 1 1 1 1 1 1 
1 1 1 1 1 1 1 1 1 
1 1 1 1 1 1 1 1 1 
1 1 1 1 1 1 1 1 1 
1 1 1 1 1 1 1 1 1 
1 1 1 1 1 1 1 1 1 
1 1 1 1 1 1 1 1 1 
1 1 1 1 1 1 1 1 1 
1 1 1 1 1 1 1 1 1 
1 1 1 1 1 1 1 1 1 
1 1 1 1 1 1 1 1 1 
1 1 1 1 1 1 1 1 1 
1 1 1 
i 3 1065 int
0 0 0 0 1 0 0 0 0 
0 0 0 0 0 0 0 0 0 
0 0 0 0 0 0 0 0 0 
-1 0 0 0 0 0 1 0 0 
0 1 0 0 0 0 0 0 0 
0 0 0 0 0 0 0 1 0 
0 0 0 0 0 0 -1 0 0 
1 1 0 1 1 0 0 0 0 
0 0 0 0 0 0 0 0 0 
0 0 0 0 0 0 0 0 0 
0 0 0 0 0 0 0 0 0 
0 0 0 0 0 0 0 0 0 
0 0 0 0 0 0 0 0 0 
0 0 0 0 0 0 0 0 0 
0 0 0 0 0 0 0 0 0 
0 0 0 0 0 0 0 0 0 
0 0 0 0 0 0 0 0 0 
0 0 0 1 0 0 0 0 0 
0 0 0 0 0 0 0 0 0 
0 0 0 0 0 0 0 0 0 
0 0 0 0 0 0 0 0 0 
0 0 0 0 0 0 0 0 0 
0 0 0 0 0 0 0 0 0 
0 0 0 0 0 0 0 0 0 
-1 0 0 0 0 0 1 -1 0 
0 0 0 1 -1 0 0 0 0 
0 0 0 0 0 0 0 0 0 
0 0 0 -1 0 0 0 0 0 
1 0 0 1 0 0 0 0 0 
0 -1 0 0 0 0 0 -1 0 
0 0 0 0 0 0 0 0 0 
0 0 0 0 0 0 1 -1 0 
0 0 0 0 -1 0 0 -1 0 
0 0 0 0 0 0 -1 -1 0 
-1 -1 0 0 1 0 1 0 0 
0 0 0 0 0 0 0 0 0 
0 1 0 0 1 0 -1 0 0 
0 0 0 0 0 0 1 0 0 
0 0 0 0 1 0 0 0 0 
0 0 0 0 0 0 0 1 0 
0 0 0 0 0 0 0 0 0 
0 0 0 0 0 0 0 0 0 
1 0 0 0 -1 0 0 0 0 
0 0 0 0 0 0 0 0 0 
0 1 0 0 0 0 0 0 0 
0 0 0 0 0 0 0 0 0 
0 0 0 0 0 0 0 1 0 
0 0 0 0 1 0 0 0 0 
0 0 0 -1 0 0 0 0 0 
0 0 0 0 0 0 0 0 0 
0 0 0 0 0 0 0 0 0 
0 0 0 0 0 0 0 0 0 
0 0 0 0 0 0 1 0 0 
0 0 0 0 0 0 0 0 0 
0 0 0 0 0 0 0 0 0 
0 0 0 0 0 0 0 0 0 
0 0 0 0 0 0 0 0 0 
0 0 0 0 0 0 0 0 0 
0 0 0 0 -1 0 -1 0 0 
-1 0 0 1 -1 0 0 0 0 
0 0 0 0 0 0 0 0 0 
0 0 0 0 0 0 0 -1 0 
0 0 0 0 0 0 0 0 0 
0 0 0 0 0 0 0 0 0 
-1 0 0 0 0 0 0 0 0 
0 0 0 0 0 0 0 0 0 
0 0 0 1 0 0 0 0 0 
0 0 0 0 0 0 0 0 0 
0 0 0 0 0 0 0 0 0 
0 0 0 0 -1 0 0 0 0 
0 0 0 0 0 0 0 0 0 
0 0 0 1 1 0 0 0 0 
0 0 0 0 0 0 0 0 0 
0 1 0 0 0 0 0 1 0 
0 0 0 0 1 0 -1 0 0 
0 1 0 1 0 0 0 0 0 
0 1 0 0 1 0 0 0 0 
0 0 0 0 0 0 0 0 0 
0 0 0 0 0 0 0 0 0 
0 0 0 0 0 0 0 0 0 
0 0 0 0 0 0 0 0 0 
0 0 0 0 0 0 0 0 0 
0 0 0 0 0 0 0 0 0 
0 0 0 0 0 0 0 0 0 
0 0 0 0 0 0 0 0 0 
-1 0 0 1 0 0 0 0 0 
0 0 0 0 0 0 0 0 0 
0 0 0 0 0 0 0 0 0 
0 0 0 0 0 0 0 0 0 
0 0 0 0 0 0 0 0 0 
-1 0 0 0 0 0 0 0 0 
0 0 0 0 0 0 0 0 0 
0 0 0 0 0 0 0 0 0 
0 0 0 0 0 0 0 0 0 
0 0 0 0 0 0 0 0 0 
0 0 0 0 0 0 0 0 0 
0 0 0 1 0 0 0 0 0 
0 0 0 0 0 0 0 0 0 
0 0 0 0 0 0 0 0 0 
0 0 0 0 0 0 0 0 0 
-1 0 0 -1 0 0 -1 0 0 
0 0 0 0 0 0 0 0 0 
0 0 0 0 0 0 0 0 0 
0 0 0 0 0 0 0 0 0 
0 0 0 0 0 0 0 0 0 
0 0 0 0 0 0 0 0 0 
0 0 0 0 0 0 1 0 0 
1 0 0 0 0 0 0 0 0 
0 0 0 0 0 0 0 0 0 
0 0 0 0 0 0 0 0 0 
0 0 0 0 0 0 0 0 0 
0 0 0 0 0 0 0 0 0 
1 0 0 0 0 0 0 0 0 
0 0 0 0 0 0 0 0 0 
0 0 0 0 -1 0 0 0 0 
0 0 0 0 0 0 0 0 0 
-1 -1 0 0 0 0 -1 0 0 
1 0 0 0 0 0 0 0 0 
0 0 0 0 0 0 0 0 0 
0 0 0 0 -1 0 0 0 0 
-1 0 0 0 0 0 -1 0 0 
1 1 0 0 0 0 0 0 0 
0 0 0 0 1 0 0 0 0 
0 0 0 0 0 0 0 1 0 
0 0 0 0 0 0 1 0 0 
0 0 0 1 0 0 0 0 0 
1 0 0 0 0 0 0 0 0 
0 0 0 0 0 0 0 0 0 
0 0 0 -1 1 0 -1 0 0 
0 0 0 0 1 0 0 0 0 
0 0 0 0 0 0 0 0 0 
0 0 0 0 0 0 0 0 0 
0 0 0 0 0 0 0 0 0 
0 0 0 0 0 0 0 0 0 
0 0 0 0 0 0 0 0 0 
0 0 0 0 0 0 0 0 0 
0 0 0 0 0 0 0 0 0 
-1 0 0 0 0 0 0 0 0 
0 0 0 0 0 0 0 0 0 
0 0 0 0 0 0 0 0 0 
0 0 0 -1 0 0 0 0 0 
0 0 0 0 0 0 0 0 0 
0 0 0 0 0 0 0 0 0 
0 0 0 0 0 0 0 0 0 
0 0 0 0 0 0 0 0 0 
0 0 0 0 0 0 0 0 0 
0 0 0 0 0 0 0 0 0 
0 0 0 0 0 0 0 0 0 
0 0 0 0 0 0 0 0 0 
0 0 0 0 0 0 0 0 0 
0 0 0 0 0 0 0 0 0 
0 0 0 1 0 0 0 0 0 
1 0 0 0 0 0 0 0 0 
0 0 0 0 0 0 0 0 0 
0 0 0 0 0 0 0 0 0 
0 0 0 0 0 0 0 0 0 
0 -1 0 0 0 0 0 0 0 
0 0 0 0 -1 0 0 -1 0 
0 0 0 0 0 0 0 0 0 
0 0 0 0 -1 0 0 0 0 
0 0 0 0 0 0 1 0 0 
0 0 0 0 0 0 0 0 0 
0 0 0 0 0 0 0 0 0 
0 0 0 0 0 0 0 0 0 
0 0 0 0 0 0 0 0 0 
0 0 0 0 0 0 0 0 0 
0 0 0 0 0 0 0 0 0 
0 0 0 0 0 0 0 0 0 
0 0 0 -1 0 0 0 0 0 
0 0 0 0 0 0 0 0 0 
0 0 0 0 0 0 0 0 0 
0 0 0 0 0 0 0 0 0 
0 0 0 0 0 0 0 0 0 
0 0 0 0 0 0 0 0 0 
0 0 0 0 0 0 0 0 0 
0 0 0 0 0 0 0 0 0 
0 0 0 0 0 0 0 0 0 
0 0 0 0 0 0 0 0 0 
0 0 0 0 0 0 0 0 0 
0 0 0 0 0 0 0 0 0 
0 0 0 0 0 0 0 0 0 
0 0 0 0 0 0 0 0 0 
0 0 0 0 0 0 0 0 0 
0 0 0 0 0 0 1 0 0 
0 0 0 0 0 0 0 0 0 
0 0 0 0 0 0 0 0 0 
0 0 0 0 0 0 0 0 0 
0 0 0 0 0 0 1 0 0 
0 0 0 0 0 0 0 0 0 
0 0 0 0 0 0 0 0 0 
0 0 0 0 0 0 0 0 0 
1 -1 0 0 0 0 0 0 0 
0 0 0 0 0 0 0 0 0 
0 0 0 0 0 0 0 0 0 
0 0 0 0 0 0 0 -1 0 
0 0 0 0 0 0 0 0 0 
0 -1 0 0 0 0 0 0 0 
0 0 0 0 0 0 0 0 0 
0 1 0 0 0 0 0 0 0 
0 0 0 0 0 0 0 0 0 
0 0 0 0 0 0 0 0 0 
0 1 0 0 0 0 0 0 0 
0 0 0 0 0 0 0 0 0 
0 0 0 0 1 0 0 0 0 
0 0 0 0 0 0 0 0 0 
0 1 0 0 0 0 0 0 0 
0 0 0 0 0 0 0 0 0 
0 0 0 0 0 0 0 0 0 
0 0 0 0 0 0 0 0 0 
0 0 0 -1 0 0 0 0 0 
0 0 0 0 0 0 0 0 0 
0 0 0 0 0 0 0 0 0 
0 0 0 0 0 0 0 0 0 
-1 0 0 0 0 0 0 0 0 
0 0 0 0 0 0 0 0 0 
0 0 0 0 0 0 0 0 0 
0 0 0 0 0 0 0 0 0 
0 0 0 0 0 0 -1 0 0 
0 0 0 0 0 0 0 0 0 
0 0 0 0 0 0 0 0 0 
0 0 0 0 0 0 0 0 0 
0 0 0 0 0 0 0 0 0 
0 0 0 0 0 0 0 0 0 
0 0 0 0 0 0 0 0 0 
0 0 0 0 0 0 0 0 0 
0 0 0 0 0 0 0 0 0 
0 0 0 0 0 0 0 0 0 
0 0 0 0 0 0 0 0 0 
0 0 0 0 0 0 0 0 0 
0 0 0 0 0 0 0 0 0 
0 0 0 1 0 0 0 0 0 
1 0 0 0 0 0 0 0 0 
0 0 0 0 0 0 0 0 0 
0 0 0 0 0 0 -1 0 0 
0 0 0 0 0 0 0 0 0 
0 0 0 0 -1 0 0 0 0 
0 0 0 0 0 0 0 -1 0 
0 -1 0 0 0 0 0 -1 0 
0 0 0 0 -1 0 0 -1 0 
1 0 0 0 0 0 0 0 0 
0 0 0 0 1 0 0 0 0 
0 0 0 0 0 0 0 0 0 
0 0 0 0 0 0 0 0 0 
0 1 0 0 0 0 0 0 0 
0 0 0 0 0 0 0 0 0 
0 0 0 0 0 0 0 0 0 
0 0 0 0 0 0 0 0 0 
0 0 0 0 0 0 0 0 0 
0 0 0 0 0 0 0 0 0 
0 0 0 0 0 0 0 0 0 
0 0 0 0 0 0 0 0 0 
0 0 0 0 0 0 0 0 0 
0 0 0 0 0 0 0 0 0 
0 0 0 0 0 0 0 0 0 
0 0 0 0 0 0 0 0 0 
0 0 0 0 0 0 0 0 0 
0 0 0 0 0 0 0 0 0 
0 0 0 0 0 0 0 0 0 
0 0 0 0 0 0 0 0 0 
0 0 0 0 0 0 0 0 0 
0 0 0 0 0 0 0 0 0 
0 0 0 0 0 0 0 0 0 
0 0 0 0 0 0 0 0 0 
0 0 0 0 0 0 0 0 0 
0 0 0 0 0 0 0 0 0 
1 0 0 0 0 0 0 0 0 
0 0 0 0 0 0 0 0 0 
0 0 0 0 0 0 0 0 0 
0 0 0 0 0 0 0 0 0 
0 0 0 0 0 0 0 0 0 
0 0 0 0 0 0 0 0 0 
0 0 0 0 0 0 0 0 0 
0 0 0 0 0 0 0 0 0 
0 0 0 0 0 0 0 0 0 
0 0 0 0 0 0 0 0 0 
0 0 0 0 0 0 0 0 0 
0 0 0 0 0 0 0 0 0 
0 0 0 0 0 0 0 0 0 
0 0 0 0 0 0 0 0 0 
0 0 0 0 0 0 0 0 0 
0 -1 0 0 0 0 0 0 0 
0 0 0 0 0 0 0 0 0 
1 0 0 0 0 0 0 0 0 
0 0 0 0 0 0 0 0 0 
0 0 0 0 0 0 0 0 0 
0 0 0 0 0 0 0 0 0 
0 0 0 0 0 0 0 0 0 
0 1 0 0 0 0 0 0 0 
0 0 0 0 0 0 0 0 0 
0 0 0 0 0 0 0 0 0 
1 0 0 0 0 0 0 0 0 
0 0 0 0 0 0 0 0 0 
0 0 0 0 0 0 0 0 0 
0 0 0 0 0 0 0 0 0 
0 0 0 0 0 0 0 0 0 
0 0 0 0 0 0 0 0 0 
0 0 0 0 0 0 0 0 0 
0 0 0 1 0 0 0 0 0 
0 0 0 0 0 0 0 0 0 
0 0 0 0 0 0 0 0 0 
0 0 0 0 0 0 0 0 0 
0 0 0 0 0 0 0 0 0 
0 0 0 0 0 0 0 0 0 
0 0 0 0 0 0 0 0 0 
0 0 0 0 0 0 0 0 0 
0 0 0 0 0 0 -1 0 0 
0 0 0 0 0 0 0 0 0 
0 0 0 0 0 0 0 0 0 
0 0 0 0 0 0 0 0 0 
0 0 0 0 0 0 0 0 0 
0 0 0 0 0 0 0 0 0 
0 0 0 0 0 0 0 0 0 
0 0 0 0 0 0 0 0 0 
0 0 0 0 0 0 1 0 0 
0 0 0 0 0 0 0 0 0 
0 0 0 0 0 0 0 0 0 
0 0 0 0 -1 0 0 0 0 
0 -1 0 0 0 0 0 -1 0 
0 0 0 0 -1 0 0 0 0 
0 0 0 0 0 0 0 0 0 
0 0 0 0 0 0 0 0 0 
0 0 0 0 1 0 0 1 0 
0 0 0 0 0 0 0 0 0 
0 0 0 1 0 0 0 0 0 
0 0 0 0 0 0 0 0 0 
0 0 0 0 0 0 0 0 0 
0 0 0 0 0 0 0 0 0 
0 0 0 0 0 0 0 0 0 
0 0 0 0 0 0 0 0 0 
0 0 0 0 0 0 0 0 0 
0 0 0 0 0 0 0 0 0 
0 0 0 0 0 0 0 0 0 
0 0 0 0 0 0 0 0 0 
0 0 0 0 0 0 0 0 0 
0 0 0 0 0 0 0 0 0 
0 0 0 0 0 0 0 0 0 
-1 0 0 0 0 0 0 0 0 
0 0 0 0 0 0 0 0 0 
0 0 0 0 0 0 0 0 0 
0 0 0 0 0 0 0 0 0 
0 0 0 0 0 0 0 0 0 
0 0 0 0 0 0 0 0 0 
0 0 0 0 0 0 0 0 0 
0 0 0 0 0 0 0 0 0 
0 0 0 0 0 0 0 0 0 
0 0 0 0 0 0 0 0 0 
0 0 0 0 0 0 0 0 0 
0 0 0 0 0 0 0 0 0 
0 0 0 0 0 0 0 0 0 
0 0 0 0 0 0 0 0 0 
0 0 0 0 0 0 0 0 0 
0 0 0 0 0 0 0 0 0 
0 0 0 0 0 0 0 0 0 
0 0 0 0 0 0 0 0 0 
0 0 0 0 0 0 0 0 0 

v 3 1065 double
3.53282e-05 6.26533e-05 -2.22308e-05 -6.85936e-05 4.26696e-05 -2.06696e-07 -0.00012476 0.000118362 5.06114e-05 
-0.000183323 -2.18446e-05 1.49293e-05 5.00866e-06 4.56336e-05 9.73256e-05 -4.51669e-05 -8.90542e-05 6.22785e-05 
4.11608e-05 -0.000159379 4.3018e-06 3.08884e-05 -8.0361e-05 2.81738e-05 0.000149063 -0.000175422 7.34747e-05 
8.62918e-05 -2.26964e-05 6.61651e-05 6.177e-05 2.18486e-05 1.78294e-05 9.41762e-05 7.62258e-05 8.85355e-06 
1.16588e-05 5.90819e-05 -4.86102e-05 -0.000105255 0.000128475 -1.29698e-05 2.50437e-05 -0.000119373 3.5249e-05 
-4.98176e-05 -0.000152322 -1.35237e-05 6.7063e-06 -0.000513866 3.34357e-05 8.22611e-05 -0.000269442 8.29535e-05 
5.07486e-05 -0.000155682 0.000131637 6.90672e-05 -9.03557e-05 3.25966e-05 0.000126134 1.20672e-05 -2.77589e-05 
0.000143577 0.000104123 5.88374e-06 0.000107629 3.98469e-05 -4.56767e-05 1.9398e-05 7.99417e-05 -3.54878e-05 
-3.59949e-06 -0.000251127 1.52213e-05 -3.03019e-05 -0.000142399 6.41435e-05 -7.42297e-06 -0.000172113 -1.20202e-05 
7.21049e-05 -0.000520632 -9.65518e-05 0.00014072 -0.000271449 -4.19935e-05 0.000127868 -0.000169625 1.04227e-05 
0.000104494 -5.48125e-05 -2.61057e-05 0.000122816 3.307e-05 5.62518e-06 9.77377e-05 8.08192e-05 4.71244e-05 
0.000113285 3.46183e-05 7.72385e-05 -7.05965e-05 -7.35653e-05 9.33272e-05 -0.000263416 -6.10088e-05 0.000258389 
4.44212e-05 -0.000118983 0.000125661 1.77242e-05 -0.000125186 1.65947e-05 1.71424e-05 -3.9565e-05 1.06836e-05 
1.58469e-05 -0.000249592 -1.67457e-06 0.000125402 -0.000115111 2.68088e-05 2.00038e-05 -0.000163649 0.000160866 
6.01757e-05 -3.40925e-05 5.28104e-05 8.94542e-05 3.05288e-05 4.44988e-05 0.000289437 3.5249e-06 8.05525e-05 
0.00017693 7.06221e-05 0.000153974 0.000122134 7.31418e-05 5.09827e-05 -0.000113751 -2.98015e-06 9.69042e-05 
-0.000214076 -0.000144152 0.000134446 -2.89296e-05 -0.000140019 0.000135909 -1.42101e-05 -1.55565e-05 0.000113272 
2.95003e-05 5.37159e-05 2.09929e-05 7.21242e-05 1.87179e-05 7.76351e-05 -3.78722e-05 0.000119542 4.17923e-05 
2.08192e-05 2.8934e-05 0.000115753 0.000217567 -3.32062e-05 7.30984e-05 -0.000178681 -4.94139e-05 8.68649e-05 
-5.1095e-05 -7.8778e-05 5.1485e-05 -0.000106891 -0.000116041 0.000114141 -5.74926e-05 -3.03457e-05 0.000144613 
-3.65438e-05 4.47887e-05 0.000127445 3.62411e-05 4.9794e-05 0.000116563 8.95845e-05 0.00022723 -5.58915e-05 
0.000102958 8.72469e-06 0.00023742 -4.20974e-05 0.00013809 0.00015366 -1.57994e-06 3.35589e-05 0.000147418 
3.37721e-05 6.0125e-05 0.000137257 4.33471e-05 4.27553e-05 9.07261e-05 5.22597e-06 -3.3371e-05 0.000100859 
5.02727e-05 3.37438e-05 0.000100951 5.75234e-05 0.000117292 0.000129165 2.91965e-05 -0.000110003 8.19507e-05 
0.000283612 -1.00744e-05 1.05388e-10 0.000220743 0.000196561 0.000195689 -0.000139264 0.000243099 -0.000246516 
-0.000230802 -5.36654e-07 0.000129239 -4.16574e-05 5.40676e-05 0.000124849 1.65411e-05 7.17059e-05 0.000116832 
1.53185e-05 -8.34844e-06 0.00010052 1.84194e-05 4.67421e-05 0.000133345 1.90258e-05 0.000110635 0.000139507 
1.61333e-05 0.000148275 0.000108663 -8.28928e-05 0.000102225 -3.1333e-05 -0.000218905 7.29802e-05 -1.02416e-05 
-1.74243e-05 -7.93367e-05 -8.36201e-05 -0.000220184 0.000181957 -1.57291e-05 -0.000174224 8.03458e-05 0.000128799 
-0.000146489 -5.92578e-05 5.07556e-05 -3.20402e-05 4.24834e-05 9.35425e-05 -0.00012686 0.000114181 0.000114365 
-3.84033e-05 8.173e-05 0.000121801 -3.77749e-05 8.76677e-05 0.000119248 -3.44569e-05 0.000105779 5.1699e-05 
-5.50319e-05 0.000159558 -1.14656e-06 -0.00010203 9.46776e-05 -7.32409e-05 0.000137356 -0.000176399 1.18783e-05 
-0.000204849 7.05509e-05 -0.00013307 -0.000196946 -2.5842e-05 0.000130784 2.43342e-06 -3.58646e-05 -2.56954e-05 
-6.57596e-05 -6.6042e-06 2.69236e-05 0.000137248 8.75857e-05 -1.97157e-05 4.7288e-05 -2.25522e-05 -1.24798e-07 
5.67343e-05 7.77846e-06 -3.77071e-05 -8.78028e-05 -2.87185e-05 -9.16966e-05 2.27679e-05 0.00022259 -1.4216e-05 
-0.000333952 -0.000101809 0.000156717 -0.000309327 5.80847e-05 0.0001568 -0.000406188 5.70934e-06 0.000143989 
-7.76231e-05 -7.69319e-05 0.00024358 0.000157654 -0.000279544 0.000204017 8.02355e-05 -8.46667e-05 0.000166131 
0.000333888 2.10584e-05 4.56068e-05 5.75881e-05 -0.000178428 4.84154e-05 0.000166982 1.20227e-05 -2.28803e-05 
0.000145265 0.000124253 -4.10151e-05 -1.41589e-05 0.000332257 -0.000134563 -0.000330308 7.31065e-05 8.52011e-05 
-0.000113305 -0.000161376 3.51548e-05 -0.000172219 -0.000333875 0.000183354 7.08269e-05 -0.000643696 0.000212921 
0.000193261 -0.00052698 0.000192408 4.22578e-05 -0.000558436 0.000173643 0.000275926 -0.000415276 8.26205e-05 
0.000210857 -0.000246944 -0.00012217 0.000209269 -2.89676e-05 -5.2985e-05 0.000311744 3.07646e-05 -7.01315e-05 
0.000230583 0.000155486 -3.7187e-05 0.000344262 8.06314e-05 0.000118846 6.08097e-05 -0.000242654 -8.05867e-05 
-7.98212e-05 -0.000101904 0.000138211 6.28836e-06 -0.000280624 -1.40986e-05 1.08912e-05 -0.000536225 -0.000129598 
0.000214106 -0.000161325 -0.000162361 0.000191714 -0.000708155 2.15256e-05 9.38293e-05 -0.000470362 -2.56307e-05 
0.000253857 3.62449e-05 -9.46189e-05 0.000622704 5.32268e-05 0.00030961 -7.61665e-05 1.64004e-05 0.000576718 
-0.000196586 -8.53218e-05 0.000126265 -0.000138464 -0.000394453 0.000265452 0.000206039 -0.000455607 -0.000141183 
-2.7774e-05 -0.000385601 -6.65518e-06 -5.88756e-06 -0.000422819 0.000157076 9.56132e-05 -0.000318795 9.54767e-05 
0.000190454 -4.18711e-05 -2.69827e-05 0.000274724 0.000160843 5.26184e-05 0.000172481 7.38718e-05 9.81454e-05 
0.000218512 0.000118814 7.9642e-05 0.000375585 6.00863e-05 0.000200508 0.000419173 0.000122379 0.000375268 
-0.000187528 -4.13485e-05 0.000241009 -3.47132e-05 -0.000132207 0.000287447 -0.000165658 -0.000308961 0.000176389 
-0.000153405 -0.000205379 0.000262318 1.16381e-05 -0.000202857 0.000280934 0.000108989 -1.37293e-05 0.000106194 
0.000103329 4.64676e-05 3.50776e-05 1.78681e-05 9.69591e-05 4.83232e-05 -4.41752e-05 -1.34776e-05 0.00041269 
7.43e-05 5.4149e-05 0.000220516 7.6506e-05 -2.74569e-05 0.00016407 4.01014e-05 4.55222e-06 0.000199743 
-3.67581e-05 -5.15304e-05 0.000140083 -0.000166345 -0.000108055 0.00024891 -0.000162174 -0.000185965 0.000280019 
2.60616e-05 5.89864e-05 0.000157995 1.93386e-05 1.66029e-05 0.000126376 0.000168948 5.05999e-05 0.000183483 
-0.000123667 3.82511e-06 6.40723e-05 -0.000109586 -7.47654e-06 0.0002681 -4.76193e-05 -5.16003e-05 0.000272544 
-0.000120753 -5.79919e-05 0.000236364 0.000304495 0.000186542 0.000148264 -1.41958e-05 -4.52807e-05 0.000189152 