# vtk DataFile Version 4.0
Generated by LIGGGHTS
ASCII
DATASET POLYDATA
POINTS 338 float
-0.00442263 -0.00441734 0.000498849 -0.00343138 -0.00463589 0.000501635 -0.00148661 -0.00411153 0.000503765 
-0.000517925 -0.00481655 0.000512464 0.000256973 -0.0041747 0.000499437 0.00121312 -0.00451537 0.000499316 
0.00246448 -0.00463774 0.000499673 0.00349687 -0.00455483 0.00049844 0.00440426 -0.00413781 0.00049873 
-0.00468134 -0.00344981 0.000499651 -0.00370772 -0.00367531 0.000499643 -0.00267819 -0.00397869 0.000499771 
-0.0019937 -0.00325005 0.000499639 -0.000982605 -0.00305805 0.000499875 7.87854e-06 -0.00320658 0.000498843 
0.000971065 -0.0034728 0.000498935 0.00191533 -0.00380289 0.000499517 0.00291573 -0.0037409 0.000497072 
0.00436878 -0.00313859 0.000499143 -0.0048878 -0.00247047 0.000499433 -0.00391362 -0.00269403 0.000499502 
-0.00296051 -0.00299471 0.000498831 -0.00264252 -0.00204725 0.000502745 -0.00167354 -0.00230215 0.000499296 
-0.000289767 -0.00224881 0.000499716 0.000694615 -0.00245329 0.000497522 0.00236346 -0.00289851 0.000498216 
0.00282181 -0.00200888 0.000499764 0.00340683 -0.00286757 0.000499436 0.00414962 -0.00215847 0.000499586 
-0.00462553 -0.00150099 0.000498189 -0.00361457 -0.00173721 0.000499953 -0.00197977 -0.00127413 0.000502781 
-0.000996972 -0.00154858 0.000599329 -9.21627e-06 -0.00127981 0.000499542 0.000990784 -0.00131812 0.000498944 
0.00177268 -0.00194266 0.000499438 0.00242054 -0.00109045 0.000499149 0.00342526 -0.001212 0.000499914 
0.00442473 -0.00118783 0.000499792 -0.00405947 -0.000675868 0.000499707 -0.00497492 -0.000272095 0.000499781 
-0.00316818 -1.25631e-05 0.000498952 -0.00295195 -0.000988606 0.000499495 -0.00221051 -0.00029876 0.000499629 
-0.00125366 -0.000587063 0.000499818 0.000455587 -0.000365645 0.000499699 0.00160233 -0.000511303 0.000499268 
0.00298073 -0.000262353 0.000496199 -0.00415649 0.00031975 0.000499479 -0.00249126 0.000722865 0.00049903 
-0.00151578 0.000445428 0.000500895 -0.000564778 0.000136647 0.000499188 0.000210447 0.000766857 0.000499722 
0.00114629 0.000401703 0.000499355 0.00214259 0.000328862 0.000513413 0.00298504 0.000865505 0.000512652 
0.00384852 0.000230864 0.000499675 0.00473762 0.000685845 0.00050278 -0.00344271 0.00102914 0.000499462 
-0.00274047 0.00191229 0.000498992 -0.00162931 0.00158867 0.000499238 -0.000742472 0.00112689 0.000499829 
0.0001025 0.00177074 0.000499243 0.00102775 0.00139398 0.00050047 0.00202448 0.00132458 0.000507731 
0.00285265 0.00193758 0.000499699 0.00384593 0.00137249 0.000500929 0.00479923 0.00168317 0.00050364 
-0.00421651 0.00199665 0.000499652 -0.00449208 0.00298856 0.000499433 -0.00352683 0.00272135 0.000499471 
-0.0025455 0.00291703 0.000499696 -0.00150507 0.00289278 0.000498961 -0.000814348 0.00216735 0.000499119 
0.000703154 0.00268409 0.000500346 0.00177382 0.00229525 0.000499519 0.00251076 0.00309884 0.000500035 
0.00346033 0.00278675 0.000499188 0.00444478 0.00261748 0.000499368 -0.00482408 0.00393128 0.000499447 
-0.00369816 0.00371417 0.000499308 -0.00246002 0.00391418 0.000499489 -0.00144062 0.00389006 0.000499568 
-0.000497431 0.00315573 0.000498635 0.000610063 0.00377171 0.000499625 0.00154214 0.00339441 0.000499697 
0.00324104 0.00378334 0.000499247 0.00423433 0.00359398 0.000499698 -0.00410675 0.00462721 0.000499617 
-0.00246343 -0.00497549 0.000499326 -0.00147312 0.00488883 0.000498827 -0.000313083 0.0041548 0.000499145 
0.000419131 0.00483634 0.000499855 0.00134116 0.00445159 0.000499231 0.0022882 0.00412644 0.000499336 
0.00391097 0.0045382 0.000498057 0.00484318 0.00489727 0.00049894 -0.00496015 -0.00407195 0.00126696 
-0.00389366 -0.00423415 0.00132739 -0.00293743 -0.00455716 0.00137384 -0.00209229 -0.00402539 0.00130862 
-0.00121903 -0.00461526 0.00132798 -0.00011276 -0.00460933 0.0014093 0.000884945 -0.0046693 0.00143061 
0.00297398 -0.00442907 0.00133811 0.00419488 -0.00481444 0.00120471 0.0042593 -0.0039095 0.00187001 
-0.00412304 -0.0032457 0.00130606 -0.00301111 -0.00352791 0.00134236 -0.00147097 -0.00324306 0.00135348 
-0.000604505 -0.00388978 0.000918993 -0.000437467 -0.0031505 0.00157257 0.00138364 -0.00380708 0.00134705 
0.00241198 -0.003604 0.00134666 0.00371465 -0.00361836 0.0010837 0.00489159 -0.0030728 0.00134809 
-0.00423417 -0.0020737 0.00121659 -0.00327665 -0.00235916 0.00121072 -0.00232246 -0.00265579 0.00123308 
-0.000983632 -0.00236121 0.00126073 0.000556915 -0.00304625 0.00131706 0.00189405 -0.00296623 0.00191288 
0.00150458 -0.00278963 0.000995879 0.00211016 -0.00211237 0.00142485 0.00289967 -0.00272113 0.00134835 
0.00474153 -0.00208072 0.00134176 -0.00370441 -0.00113072 0.00131691 -0.00277348 -0.00150433 0.00133684 
-0.00181363 -0.00178538 0.00134599 -0.00105984 -0.0011334 0.00153054 -0.000196756 -0.00174468 0.00136452 
0.00101752 -0.00193432 0.00128521 0.00171299 -0.00122292 0.00119232 0.00270841 -0.00131296 0.00148739 
0.003505 -0.00191526 0.00122399 0.00420982 -0.00124526 0.00147796 -0.00486944 -0.000908468 0.00126378 
-0.00379532 -0.000124089 0.00131906 -0.00284738 -0.000449169 0.00134026 -0.00112182 -0.000105504 0.00149877 
-0.000308257 -0.000580633 0.00114848 0.000542626 -0.00105877 0.00135761 0.0010609 -0.000208975 0.00128523 
0.00230631 -0.000392975 0.00121703 0.00342988 -0.000640121 0.00132065 0.00434322 -0.000239456 0.0012305 
-0.00477202 0.000262373 0.00132009 -0.00305864 0.00055251 0.00131511 -0.00387899 0.00095814 0.0017275 
-0.00209394 0.00029194 0.00130862 -0.00129439 0.000925509 0.00135053 -0.000349591 0.000601067 0.00135765 
0.00134556 0.000903111 0.00134215 0.0023527 0.000855585 0.00139972 0.00323114 0.000339735 0.00132788 
0.004115 0.000804117 0.00128435 -0.00448594 0.00114784 0.000954139 -0.00405879 0.00193787 0.00158752 
-0.00318208 0.00154409 0.00131597 -0.0022131 0.00130692 0.00125981 -0.00161757 0.0017574 0.00192341 
-0.000540673 0.00162429 0.00134958 0.000406451 0.00126091 0.00134586 0.00224361 0.0019124 0.00129429 
0.00320496 0.00140593 0.00138395 0.00478661 0.00149474 0.00155132 -0.00486707 0.0023524 0.00117277 
-0.00307104 0.00253609 0.00136983 -0.0020303 0.00228556 0.0010933 -0.00109957 0.00245544 0.00141211 
-3.48699e-05 0.00257499 0.00116725 0.0010974 0.00198486 0.00133066 0.0019423 0.00288822 0.001295 
0.00295152 0.00265661 0.00144213 0.00385222 0.00213379 0.00114947 0.00431508 0.00275089 0.00178628 
-0.00392142 0.00308288 0.00134369 -0.0030231 0.0035245 0.00122764 -0.00202022 0.0033744 0.00122444 
-0.00102577 0.00344716 0.00129492 1.593e-05 0.00365024 0.00130524 0.000994429 0.00320877 0.00132427 
0.00171413 0.00400077 0.00130818 0.00265979 0.00366766 0.00130855 0.00365707 0.00335269 0.00129915 
0.00494402 0.00333079 0.001267 -0.00457474 0.0049914 0.00130527 -0.00416904 0.00405119 0.00131429 
-0.00318494 0.00446749 0.000909049 -0.00366853 0.00484165 0.00169948 -0.0020315 0.00446851 0.00121317 
-0.000905667 0.00443843 0.00125195 -0.000117045 0.00453261 0.00192607 0.000736032 0.00434646 0.00132397 
0.00182062 -0.00499408 0.00117871 0.0024752 0.00453397 0.00176773 0.00301735 0.00465413 0.000935517 
0.0037126 0.00431631 0.00156764 0.00466917 0.00429565 0.00127994 -0.00452071 -0.0044271 0.00211619 
-0.00343733 -0.00421491 0.00226275 -0.00222866 -0.00452244 0.00216585 -0.000977681 -0.00468215 0.00265304 
0.00174165 -0.00458301 0.00208682 0.00353756 -0.00481916 0.00206499 -0.00420874 -0.00350402 0.00233926 
-0.00202749 -0.00354271 0.00254787 -0.00126371 -0.00393193 0.00205345 0.000432126 -0.00388747 0.00186 
-0.00453369 -0.00259717 0.00201306 -0.00352361 -0.0028329 0.00205677 -0.00394282 -0.00206908 0.00262246 
-0.00272049 -0.00223726 0.00205385 -0.00170931 -0.00253507 0.0020193 0.000229405 -0.00267203 0.00217246 
0.00474191 -0.00308706 0.00263385 -0.00465692 -0.00158391 0.00197844 -0.00330029 -0.00143338 0.00218368 
-0.00169399 -0.00141752 0.00234867 -0.00424713 -0.000673077 0.00202194 -0.00375229 0.00012448 0.00236585 
-0.00193216 -0.000662264 0.00168351 -0.000946553 -0.000799301 0.00267844 0.00113908 -0.00125846 0.00213299 
0.00203444 -0.000821616 0.00207491 0.00295768 -0.00023325 0.00210503 0.00476271 -0.00050964 0.00210201 
-0.00454061 0.000749987 0.00244706 -0.000634638 0.00107309 0.00242707 0.00179203 0.000163325 0.00187126 
0.00286261 0.000932385 0.00232477 0.00448375 0.000774345 0.00221943 -0.0025866 0.00198055 0.00204593 
-0.00276276 0.00100204 0.0021568 0.00152366 0.00134144 0.00222687 0.0025656 0.00190989 0.00224051 
0.00469075 0.00209025 0.0024363 -0.00240706 0.00302875 0.00208156 0.000233603 0.00202955 0.00196031 
0.00117002 0.00263849 0.00212869 -0.00453365 0.00354519 0.00209562 -0.000427948 0.00301952 0.00197197 
0.000623264 0.0035997 0.00216844 0.00319244 0.00367429 0.00215621 -0.00321676 -0.00489742 0.00302363 
-0.00298568 0.00399707 0.00210782 -0.00155216 0.00475013 0.00204464 0.000354097 0.00390635 0.00308613 
0.0048598 0.00478824 0.00212855 0.00402878 -0.000384778 0.00276822 0.00392796 0.00317729 0.0026203 
-0.00160471 0.00394302 0.0027101 0.00462696 0.0038905 0.00251505 -0.000472908 0.00264669 0.00311296 
0.00349862 0.00226126 0.00245523 -0.00116521 0.00250508 0.00240726 0.00126392 -0.00224681 0.00220006 
0.00373905 0.00059625 0.00286617 -0.000438408 0.00454628 0.0031751 0.00138252 -0.00369594 0.00239152 
-0.00107048 -0.00235162 0.00281104 0.000998803 -0.00112212 0.00311176 -0.000929086 -0.00362184 0.00304963 
-0.00235116 -0.0029429 0.00326974 -0.000130298 -0.00253439 0.00307483 -0.00385976 0.0016648 0.00334252 
-0.00145833 0.000385758 0.00363278 0.00204854 0.00349657 0.0042559 0.00419712 -0.002907 0.0048014 
0.000260365 0.00164165 0.00463714 0.00154162 0.00416056 0.0204287 -0.000271974 0.00413421 0.0203502 
0.000711992 0.00350879 0.0204003 0.00414865 0.00238036 0.020294 0.00310508 0.00240886 0.0204184 
-0.00159368 0.00221267 0.0204237 -0.00196466 0.00352371 0.0204244 -0.00300583 0.00232183 0.0202815 
-0.00426909 0.00270186 0.0203169 0.00320422 0.00141946 0.0202849 0.000246892 0.00176978 0.0204806 
0.00125933 0.00185767 0.0202895 0.00409886 4.81377e-05 0.020391 -0.0020009 0.00050835 0.0204673 
-0.00339055 0.00130462 0.0203796 -0.00232525 -0.00443523 0.00621948 0.00404934 -0.00418437 0.00545508 
0.00296076 -0.00277856 0.00622468 0.0042419 -0.00162546 0.00620384 -0.00413898 -0.000360743 0.00527279 
-0.00168403 -0.00099007 0.00590564 0.00237522 0.0013498 0.00546573 -0.00286224 0.00343943 0.00605258 
-0.000140706 -0.000703542 0.00686191 0.000448056 0.00044654 0.00685174 -0.00189245 0.00310029 0.00721499 
-0.000721625 -0.00446012 0.0200191 0.000872182 -0.00433866 0.0201745 0.000465351 -0.0033689 0.0201656 
-0.00291278 -0.00215107 0.0201727 0.00358867 -0.00236443 0.0202276 -0.00399901 -0.00141431 0.0202384 
-0.000414062 -0.00160254 0.0200045 0.00165533 -0.00172914 0.0200179 0.00221312 -0.000696858 0.0179207 
0.00335419 -0.000758665 0.0201561 -0.00445547 0.000302696 0.0201913 -0.000391624 0.000992002 0.0201606 
0.00147123 0.000863664 0.020241 0.00275824 0.000159909 0.0201498 0.00437747 0.00107505 0.017959 
-0.000367575 0.00294382 0.0201936 0.00205767 0.00254777 0.0199146 -0.00441244 0.00374907 0.0197786 
0.00362647 0.00325432 0.0202359 -0.00345843 0.00447824 0.0198808 -0.00213746 0.00449328 0.0201169 
0.00259899 0.00421544 0.0202176 0.00383925 0.00434076 0.0201149 -0.00180024 -0.0044697 0.0204784 
0.00198178 -0.00434573 0.0202981 0.00301958 -0.0044712 0.0204738 -0.00375234 -0.00393853 0.0202678 
-0.00193942 -0.00333156 0.0204052 0.00163894 -0.00325698 0.0203965 0.00377651 -0.00378042 0.0204871 
-0.0042669 -0.00273655 0.0204718 -0.000704396 -0.00293406 0.0203138 0.000715864 -0.00213733 0.0203605 
0.00254378 -0.00233296 0.0203892 0.00449369 -0.00288199 0.0204807 -0.00272003 -0.00116816 0.0204215 
-0.001925 -0.00190816 0.02032 -0.00324313 -6.63716e-05 0.0204382 -0.00119062 -0.000388937 0.0202523 
2.74892e-05 -0.00013773 0.0203577 0.000994108 -0.000516659 0.0203453 
VERTICES 338 676
1 0 
1 1 
1 2 
1 3 
1 4 
1 5 
1 6 
1 7 
1 8 
1 9 
1 10 
1 11 
1 12 
1 13 
1 14 
1 15 
1 16 
1 17 
1 18 
1 19 
1 20 
1 21 
1 22 
1 23 
1 24 
1 25 
1 26 
1 27 
1 28 
1 29 
1 30 
1 31 
1 32 
1 33 
1 34 
1 35 
1 36 
1 37 
1 38 
1 39 
1 40 
1 41 
1 42 
1 43 
1 44 
1 45 
1 46 
1 47 
1 48 
1 49 
1 50 
1 51 
1 52 
1 53 
1 54 
1 55 
1 56 
1 57 
1 58 
1 59 
1 60 
1 61 
1 62 
1 63 
1 64 
1 65 
1 66 
1 67 
1 68 
1 69 
1 70 
1 71 
1 72 
1 73 
1 74 
1 75 
1 76 
1 77 
1 78 
1 79 
1 80 
1 81 
1 82 
1 83 
1 84 
1 85 
1 86 
1 87 
1 88 
1 89 
1 90 
1 91 
1 92 
1 93 
1 94 
1 95 
1 96 
1 97 
1 98 
1 99 
1 100 
1 101 
1 102 
1 103 
1 104 
1 105 
1 106 
1 107 
1 108 
1 109 
1 110 
1 111 
1 112 
1 113 
1 114 
1 115 
1 116 
1 117 
1 118 
1 119 
1 120 
1 121 
1 122 
1 123 
1 124 
1 125 
1 126 
1 127 
1 128 
1 129 
1 130 
1 131 
1 132 
1 133 
1 134 
1 135 
1 136 
1 137 
1 138 
1 139 
1 140 
1 141 
1 142 
1 143 
1 144 
1 145 
1 146 
1 147 
1 148 
1 149 
1 150 
1 151 
1 152 
1 153 
1 154 
1 155 
1 156 
1 157 
1 158 
1 159 
1 160 
1 161 
1 162 
1 163 
1 164 
1 165 
1 166 
1 167 
1 168 
1 169 
1 170 
1 171 
1 172 
1 173 
1 174 
1 175 
1 176 
1 177 
1 178 
1 179 
1 180 
1 181 
1 182 
1 183 
1 184 
1 185 
1 186 
1 187 
1 188 
1 189 
1 190 
1 191 
1 192 
1 193 
1 194 
1 195 
1 196 
1 197 
1 198 
1 199 
1 200 
1 201 
1 202 
1 203 
1 204 
1 205 
1 206 
1 207 
1 208 
1 209 
1 210 
1 211 
1 212 
1 213 
1 214 
1 215 
1 216 
1 217 
1 218 
1 219 
1 220 
1 221 
1 222 
1 223 
1 224 
1 225 
1 226 
1 227 
1 228 
1 229 
1 230 
1 231 
1 232 
1 233 
1 234 
1 235 
1 236 
1 237 
1 238 
1 239 
1 240 
1 241 
1 242 
1 243 
1 244 
1 245 
1 246 
1 247 
1 248 
1 249 
1 250 
1 251 
1 252 
1 253 
1 254 
1 255 
1 256 
1 257 
1 258 
1 259 
1 260 
1 261 
1 262 
1 263 
1 264 
1 265 
1 266 
1 267 
1 268 
1 269 
1 270 
1 271 
1 272 
1 273 
1 274 
1 275 
1 276 
1 277 
1 278 
1 279 
1 280 
1 281 
1 282 
1 283 
1 284 
1 285 
1 286 
1 287 
1 288 
1 289 
1 290 
1 291 
1 292 
1 293 
1 294 
1 295 
1 296 
1 297 
1 298 
1 299 
1 300 
1 301 
1 302 
1 303 
1 304 
1 305 
1 306 
1 307 
1 308 
1 309 
1 310 
1 311 
1 312 
1 313 
1 314 
1 315 
1 316 
1 317 
1 318 
1 319 
1 320 
1 321 
1 322 
1 323 
1 324 
1 325 
1 326 
1 327 
1 328 
1 329 
1 330 
1 331 
1 332 
1 333 
1 334 
1 335 
1 336 
1 337 

POINT_DATA 338
FIELD FieldData 7
id 1 338 int
17 57 16 56 69 113 31 48 91 
108 72 7 89 18 107 70 28 51 
102 36 80 12 45 95 19 104 22 
65 14 29 88 60 78 148 61 1 
26 103 68 10 27 46 94 15 110 
105 62 96 82 43 37 90 59 42 
55 4 114 2 77 101 54 21 40 
25 53 23 35 58 33 92 9 109 
8 20 112 13 6 5 47 52 38 
67 32 3 34 39 44 41 79 63 
74 24 50 11 30 85 87 49 137 
164 146 194 149 222 167 168 125 173 
124 99 218 133 161 162 153 206 179 
73 115 121 157 139 197 97 136 155 
98 170 64 128 181 76 195 214 86 
123 159 156 117 138 209 169 202 187 
75 147 160 171 127 211 165 120 212 
145 177 142 129 93 119 151 126 175 
207 174 66 140 208 84 152 134 130 
131 172 100 200 158 205 196 122 106 
154 143 141 192 166 83 135 144 215 
71 221 111 150 217 183 118 216 81 
203 132 220 229 176 188 278 223 242 
219 190 116 224 163 239 193 199 258 
248 204 259 268 281 213 236 271 256 
210 191 243 261 234 225 186 185 198 
272 244 264 265 246 189 201 228 184 
238 178 249 277 182 262 180 266 241 
280 269 251 226 279 227 282 260 245 
254 263 275 276 240 230 235 247 231 
255 328 312 311 297 335 290 306 294 
287 321 333 332 284 313 303 273 274 
267 270 253 252 250 237 233 257 232 
320 319 289 299 330 304 314 310 317 
296 323 308 288 316 324 286 295 322 
291 300 326 318 334 331 337 293 285 
307 309 305 315 301 329 292 327 325 
336 298 283 338 302 
type 1 338 int
1 1 1 1 1 1 1 1 1 
1 1 1 1 1 1 1 1 1 
1 1 1 1 1 1 1 1 1 
1 1 1 1 1 1 1 1 1 
1 1 1 1 1 1 1 1 1 
1 1 1 1 1 1 1 1 1 
1 1 1 1 1 1 1 1 1 
1 1 1 1 1 1 1 1 1 
1 1 1 1 1 1 1 1 1 
1 1 1 1 1 1 1 1 1 
1 1 1 1 1 1 1 1 1 
1 1 1 1 1 1 1 1 1 
1 1 1 1 1 1 1 1 1 
1 1 1 1 1 1 1 1 1 
1 1 1 1 1 1 1 1 1 
1 1 1 1 1 1 1 1 1 
1 1 1 1 1 1 1 1 1 
1 1 1 1 1 1 1 1 1 
1 1 1 1 1 1 1 1 1 
1 1 1 1 1 1 1 1 1 
1 1 1 1 1 1 1 1 1 
1 1 1 1 1 1 1 1 1 
1 1 1 1 1 1 1 1 1 
1 1 1 1 1 1 1 1 1 
1 1 1 1 1 1 1 1 1 
1 1 1 1 1 1 1 1 1 
1 1 1 1 1 1 1 1 1 
1 1 1 1 1 1 1 1 1 
1 1 1 1 1 1 1 1 1 
1 1 1 1 1 1 1 1 1 
1 1 1 1 1 1 1 1 1 
1 1 1 1 1 1 1 1 1 
1 1 1 1 1 1 1 1 1 
1 1 1 1 1 1 1 1 1 
1 1 1 1 1 1 1 1 1 
1 1 1 1 1 1 1 1 1 
1 1 1 1 1 1 1 1 1 
1 1 1 1 1 
i 3 338 int
0 0 0 0 1 0 0 0 0 
0 0 0 0 0 0 0 0 0 
0 0 0 -1 0 0 0 0 0 
1 0 0 0 1 0 0 0 0 
0 0 0 0 0 0 0 0 0 
0 1 0 0 0 0 0 0 0 
-1 0 0 1 1 0 1 1 0 
0 0 0 0 0 0 0 0 0 
0 0 0 0 0 0 0 0 0 
0 0 0 0 0 0 0 0 0 
0 0 0 0 0 0 0 0 0 
0 0 0 0 0 0 0 0 0 
0 0 0 0 0 0 0 0 0 
0 0 0 0 0 0 1 0 0 
0 0 0 0 0 0 0 0 0 
0 0 0 0 0 0 0 0 0 
0 0 0 1 0 0 0 0 0 
0 0 0 0 0 0 0 0 0 
0 0 0 0 0 0 0 0 0 
0 0 0 0 0 0 0 0 0 
0 0 0 0 0 0 0 0 0 
0 0 0 0 0 0 0 0 0 
0 0 0 0 0 0 -1 0 0 
0 0 0 0 0 0 1 -1 0 
0 0 0 1 -1 0 0 0 0 
0 0 0 0 0 0 0 0 0 
0 0 0 -1 0 0 1 0 0 
1 0 0 0 0 0 0 -1 0 
0 0 0 0 0 0 0 0 0 
0 0 0 0 0 0 1 -1 0 
0 0 0 0 -1 0 0 -1 0 
0 -1 0 0 0 0 0 0 0 
-1 -1 0 -1 -1 0 1 0 0 
1 0 0 0 0 0 0 0 0 
0 0 0 0 1 0 0 1 0 
-1 0 0 0 0 0 0 0 0 
0 0 0 0 1 0 0 0 0 
0 0 0 0 0 0 0 0 0 
0 0 0 0 0 0 0 0 0 
0 -1 0 0 0 0 0 0 0 
0 0 0 0 1 0 0 0 0 
0 0 0 0 0 0 0 0 0 
-1 0 0 0 0 0 0 0 0 
0 0 0 0 0 0 0 1 0 
0 0 0 0 1 0 0 0 0 
0 0 0 0 0 0 0 0 0 
0 0 0 0 0 0 0 0 0 
0 0 0 0 0 0 0 0 0 
0 0 0 0 0 0 0 0 0 
0 0 0 0 0 0 1 0 0 
0 0 0 0 0 0 0 0 0 
0 0 0 0 0 0 0 0 0 
0 0 0 0 0 0 0 0 0 
0 0 0 0 0 0 0 0 0 
0 0 0 0 0 0 0 -1 0 
-1 0 0 -1 0 0 1 -1 0 
0 0 0 0 0 0 0 0 0 
0 0 0 0 0 0 0 -1 0 
0 0 0 0 0 0 0 0 0 
0 0 0 0 0 0 -1 0 0 
0 0 0 0 0 0 0 0 0 
0 0 0 0 0 0 0 0 0 
0 0 0 0 0 0 1 0 0 
0 0 0 0 0 0 0 0 0 
0 0 0 0 0 0 0 0 0 
0 1 0 0 0 0 0 0 0 
0 -1 0 0 0 0 0 0 0 
0 0 0 0 0 0 0 1 0 
0 0 0 -1 1 0 0 0 0 
0 1 0 0 0 0 0 1 0 
0 0 0 0 0 0 0 0 0 
0 0 0 0 0 0 0 0 0 
0 0 0 1 0 0 0 0 0 
0 0 0 0 0 0 0 0 0 
0 0 0 0 0 0 0 0 0 
0 0 0 0 0 0 0 0 0 
0 0 0 0 0 0 0 0 0 
0 0 0 -1 0 0 0 0 0 
0 0 0 0 0 0 0 0 0 
0 0 0 0 0 0 0 0 0 
0 0 0 1 0 0 0 0 0 
0 0 0 0 0 0 0 1 0 
0 0 0 0 0 0 0 -1 0 
0 0 0 0 0 0 0 0 0 
0 0 0 0 0 0 0 0 0 
0 0 0 0 0 0 0 0 0 
0 0 0 0 0 0 0 0 0 
0 0 0 0 0 0 0 0 0 
0 0 0 0 0 0 0 0 0 
0 0 0 0 0 0 0 0 0 
0 0 0 0 0 0 0 0 0 
0 0 0 0 0 0 0 0 0 
0 0 0 0 0 0 0 0 0 
0 0 0 0 0 0 0 0 0 
0 0 0 0 0 0 0 0 0 
0 0 0 0 0 0 0 0 0 
0 0 0 0 0 0 0 0 0 
0 0 0 0 0 0 0 0 0 
0 0 0 0 0 0 0 0 0 
0 0 0 0 0 0 0 0 0 
0 0 0 0 0 0 0 0 0 
0 0 0 0 0 0 0 0 0 
0 0 0 0 0 0 0 0 0 
0 0 0 0 0 0 0 0 0 
0 0 0 0 0 0 0 0 0 
0 0 0 0 0 0 0 0 0 
0 0 0 0 0 0 0 0 0 
0 0 0 0 0 0 0 0 0 
0 0 0 0 0 0 0 0 0 
0 0 0 0 0 0 0 0 0 
0 0 0 0 0 0 0 0 0 
0 0 0 0 0 0 0 0 0 
0 0 0 0 0 0 
v 3 338 double
0.00200272 -0.003494 0.00342875 0.00204285 0.00236778 0.00328902 -0.00533027 -0.00257821 -0.00121108 
-0.0033872 -0.00145888 0.00685982 -0.0060697 -0.00506528 -9.35583e-05 0.00238741 -0.00123253 -0.000260487 
-0.00620256 -0.00221322 0.00972297 0.00488242 -0.0108019 0.005394 0.00339367 -0.00144335 0.00106888 
-0.000978076 0.00249741 -0.000448895 -0.000984577 0.00166073 0.000172276 0.00184556 0.00546572 0.00101377 
0.00444751 0.00231621 -0.00273156 -0.00261649 0.00934943 -0.000798169 4.38927e-06 -0.00932782 0.00250364 
0.00235711 -0.0101219 0.000122937 0.00520491 0.00197938 0.00544915 0.0099207 -0.0101928 0.0181388 
-0.00102938 -0.000692983 0.000219631 0.000484261 -8.89795e-05 0.000897185 0.000771806 -0.0017501 0.000675394 
0.0026696 -0.000190579 0.00547964 -0.00773773 0.00290446 0.000491044 -0.0135827 0.00746083 0.00282369 
0.000502766 -0.000951477 -5.64737e-05 -0.0246904 -0.0040083 0.0198502 0.00187077 0.00299294 0.00545143 
0.0011228 0.00214906 8.03627e-05 0.000185645 -0.000304653 0.000587698 0.00542012 -0.00143799 0.00014306 
0.00280552 -0.00448273 0.0014721 -0.0176888 0.00634304 -0.00169693 -0.0147571 0.0107953 0.00192785 
0.000578186 0.00300765 -0.0167328 0.000663374 0.00283412 -0.000831666 0.0034153 -0.00342904 0.014656 
-0.000670646 -0.00374468 0.000617272 0.00755124 0.0113254 -0.000283821 0.000273834 0.00486221 -0.000763235 
0.00148923 0.000465103 0.000302128 0.00170694 -0.000319973 -0.0046847 0.00180422 -0.00229429 -0.000504925 
-0.00406229 -0.00167364 0.00256593 -0.0112803 -0.00173833 0.000561493 -0.0047425 -0.00100323 0.000766898 
-0.00328206 0.00174389 0.00024139 0.000901345 0.000732745 1.47414e-11 -0.00258901 -0.00138186 -0.000439182 
0.00141605 0.0179847 0.00739274 -0.000180592 0.000743859 0.000389832 -0.00356058 0.00155567 0.00127138 
0.00456061 -2.05884e-05 -0.0053508 -0.00297034 0.00526381 -0.000540236 -0.000111688 0.00324153 -0.0013174 
-0.00161109 0.00552936 -0.00228107 -0.00127245 -0.000300109 -0.00426746 -0.00481586 0.00768039 -0.00723641 
0.00805096 -0.0010217 -0.0033348 0.00507426 0.000630205 0.00438732 -0.00590274 0.00182303 0.00151277 
-0.0101945 0.00118933 -0.000303265 -0.00342697 -0.000725641 -0.000693033 0.000550215 0.00512543 -0.00141469 
-0.00313085 -0.0111423 0.000271284 0.000257752 0.00291545 -0.00279778 0.00111238 -0.00363111 -0.00584131 
-0.00336681 -0.000636515 1.77368e-11 0.00195206 -0.000837775 0.00149928 0.00258299 -0.000807175 0.000532778 
-0.000342328 0.000131185 0.000571653 -2.13904e-07 0.00017889 0.00226948 0.00101929 0.000102338 0.000296602 
0.00188864 0.0011678 -0.00100583 -0.00304226 -0.00115136 -0.00169359 0.000314891 -0.00582254 -0.00371905 
0.0113158 -0.0258763 -0.00520912 0.0125069 -0.00529377 -0.000830964 -0.00428763 0.000504477 -0.000935267 
-0.00307065 0.000120227 0.000148786 -0.000429137 -0.00484644 -0.00274529 -0.00150781 6.98285e-05 -0.000361542 
-0.00103898 -0.00405734 0.000384241 -2.01551e-05 0.00460584 -0.000804162 0.00516308 -0.00129715 1.1494e-05 
0.00693022 0.00482891 0.00039342 -0.00186743 -0.0111415 -0.000772604 0.00935866 0.00359312 -1.28963e-06 
0.000302706 -0.00196672 -0.00241705 -0.00155097 -0.015532 0.00262121 0.00165193 -0.000491981 0.00154977 
-0.00300302 -0.00273825 0.000156233 -0.0024902 -0.00311396 0.00100372 0.00354776 -0.00431068 0.000900972 
-0.0074001 -0.005845 0.00258608 -0.00304051 -0.00268431 0.0202838 0.000915208 -0.00367704 0.00179445 
0.00831873 -0.0132368 -0.00133185 0.00466812 -0.00205095 0.000472153 0.000302827 -0.00385058 0.00475862 
-0.0118748 -0.0125199 0.00494905 -0.0106384 0.0111349 -0.000884487 -0.00620553 -0.000537163 0.00643025 
0.011235 -0.0126237 -0.00305728 -0.0013147 0.0114008 0.000597475 -0.00165372 -0.00743743 -0.00267316 
0.00686396 -0.0454005 0.0225024 0.0213025 -0.0140949 -0.00679275 -0.000308667 0.0108769 0.0033249 
-0.000828372 -0.00440981 -0.00299294 -0.0178949 0.0134252 0.0191895 -0.00390005 -0.00148081 -0.00117502 
-0.00532608 0.00666621 -0.00435178 -0.0163581 -0.0108184 0.0135341 0.00111074 -0.00634756 -0.00434757 
0.00482049 -0.0324756 0.0391929 0.00496231 -0.00455467 0.000871896 -0.00344131 -0.00554902 0.00145777 
-0.00711137 -0.00886112 0.0028528 -0.00464753 -0.00399679 -0.00297239 -0.00578686 -0.0077568 0.000466053 
-0.00669309 0.00864063 0.0188112 0.0342107 -0.0347323 -0.0601161 0.0204773 -0.00697732 0.0388392 
-0.00400127 -0.008051 0.00486304 0.000392817 -0.00588064 0.000508365 0.00071112 -0.00491546 0.00175448 
-0.00547384 -0.000721675 0.000106324 -0.0313396 -0.00440458 0.00838519 -0.0210634 -0.00267772 0.00235422 
-0.0222095 0.00513336 -0.00552347 0.000272121 -0.00857987 -0.000602535 0.00846052 9.77966e-05 -0.00087966 
0.000785851 0.00957959 0.0377069 0.00899735 -0.00202974 0.000504695 0.0137344 -0.0123415 -0.0155196 
0.00417549 0.00271974 -0.00215038 0.00320543 0.00615905 -0.00414607 0.012587 0.00763813 -0.00256392 
0.00442321 0.00902488 0.00296763 0.00910737 2.70802e-05 0.00702547 0.0154617 0.00280317 0.00932848 
-0.0175019 0.00721496 -0.0158325 -0.012083 0.00903672 -0.0564284 -0.0150278 0.00653763 -0.0133532 
0.0139701 0.0300054 0.0360927 0.0020832 0.0062043 -0.000340137 0.00488703 0.00998347 0.00270749 
-0.00314515 -0.000454941 -0.000401366 0.0043283 -0.00140726 0.00470994 -0.00326802 -0.0114812 0.00423114 
-0.00112247 -0.00693377 -0.00302901 0.00380569 0.0127835 -0.00449153 0.00341416 0.00447906 -0.00343489 
-0.00863626 -0.00369338 0.00247409 -0.00177476 0.000370045 0.0212197 -0.00614936 0.003745 -0.00834325 
-0.00946178 -0.00348279 0.0165892 -0.000532782 -0.000257731 0.00108151 -0.00866352 -0.00125707 0.00964992 
-0.00718556 -0.000913102 0.004588 -0.0041198 0.00638521 0.00124166 -0.0166405 0.0226366 0.00368761 
-0.00566842 0.0111457 -0.00466188 -0.00355336 0.00862074 -0.00465206 0.00773724 -0.00603125 0.000223678 
-0.0348101 0.0254869 0.0198871 -0.00559944 -0.00350847 0.000116484 -0.00649618 -0.000601441 0.00345975 
-0.0108555 0.00266686 0.00564345 -0.00434164 -0.000182254 -0.00136323 0.00054405 0.00590964 -0.00929094 
0.00347148 0.00120979 -0.00221098 0.0137942 -0.0122472 -0.015383 0.0155609 -0.0153397 0.00811794 
0.00655019 -0.0108258 -0.0192483 -0.00159875 -0.00316345 0.00358724 0.00453611 -0.00594493 0.00569927 
-0.00177678 -0.00270065 0.00133739 -0.00158542 0.0044806 -0.000986198 0.00487134 -0.004567 0.0051778 
0.00547432 0.001803 0.000651592 0.0121485 -0.00215067 -0.0103607 0.0192475 0.00128582 0.00479193 
-0.00545569 -0.0155649 0.00645069 0.0174149 -0.0203478 0.0012323 0.00275412 0.00871552 -0.00365811 
-0.00164506 -0.00377957 -0.00199083 0.00164319 0.00592785 0.00162494 0.00704553 -0.000606423 0.0040585 
-0.00445413 -0.000733282 0.000276499 -0.00105804 -0.00551888 0.00672113 -0.0192834 0.0182224 0.00338164 
0.0107888 0.00164955 0.00423136 0.0120651 0.0152143 0.0064691 0.0145931 -0.00131017 -0.0217625 
0.0297955 -0.0271844 0.0623825 0.0552936 -0.0329385 0.0472662 0.00128343 -0.00536904 0.00562261 
0.00449952 -0.00324873 0.00332095 0.00044376 -0.000444715 -0.00160085 0.00202788 0.00576309 0.00139192 
0.0227827 0.0138482 -0.0278979 0.00583285 0.0232334 0.023585 0.033711 -0.0312699 -0.0279077 
0.0309326 0.056479 0.0443908 0.0201017 -0.0285486 0.0327943 0.00275951 0.00397057 0.0118746 
0.0271055 -0.0618899 -0.20122 0.0947751 -0.0786446 -0.0863442 -0.0284086 -0.0237958 0.00287531 
-0.00539156 -0.00664137 0.0023005 -0.00344615 0.0088314 0.00478074 0.000294896 -0.0112828 0.000958135 
-0.00931941 0.017031 -0.00485643 -0.00985856 -0.00393026 0.00296739 0.0847204 -0.010139 -0.237088 
0.031569 -0.0897923 0.0149843 -0.00660917 -0.00438189 -0.00109957 -0.0107462 0.0127435 0.00682954 
-0.00336585 0.0648194 0.0318581 0.022099 -0.0166889 -0.00437894 0.0212106 -0.0121896 -0.00677756 
0.0130888 0.00158366 0.00802578 0.0359177 0.0645295 0.00910735 -0.000764022 0.0319 -0.0716197 
0.011306 0.0346503 0.0455034 -0.0216898 -1.07403e-05 -0.0126998 0.0116011 -0.00852357 0.00743645 
0.00611 -0.00986235 0.0169286 0.173395 0.0897377 -0.00205408 -0.00982271 -0.0166979 0.00480258 
0.00854243 -0.00449874 0.0503778 0.00398767 0.00269948 0.0274122 -0.0168032 -0.00409525 0.00672756 
0.0155697 -0.0118827 0.0038054 -0.00333919 -0.0411144 0.022989 -0.0287443 -0.0172718 0.012988 
-0.0349384 -0.0425573 -0.00661863 0.0413377 -0.0179968 0.0212494 0.00849423 0.00606207 -0.00237229 
0.0307414 -0.000779548 -0.0158739 0.022375 -0.0377262 -0.0108822 0.0122589 0.00608925 -0.00272499 
0.0562571 0.021484 0.0156247 0.0194878 -0.0158368 0.000832352 0.0520466 0.042766 0.013667 
-0.0402478 0.0156884 -0.00423659 -0.0213104 -0.00348948 0.0132745 0.0320528 -0.0117603 0.0273886 
0.0236829 -0.013596 -2.70679e-05 -0.0342964 -0.0536504 -0.0301296 0.0519009 -0.0450809 -0.0681683 
-0.0874535 -0.113173 -0.0753896 0.00828836 -0.0314195 -0.0423059 -0.0894287 -0.0130795 0.0873812 
0.0130593 -0.0351847 -0.0762548 -0.0142261 0.0345545 -0.00731373 0.0792874 0.0420857 0.0571124 
0.0232504 -0.0131532 0.0545465 0.0352386 0.0666281 -0.129777 -0.0682284 0.192381 -0.354488 
-0.01878 -0.0420079 -0.130571 -0.0332445 0.0171458 -0.0548872 0 0 -0.576773 
-0.0948125 0.153 -0.307084 0.101449 0.00242448 -0.167288 0 0 -0.57177 
0 0 -0.566767 0 0 -0.555877 0 0 -0.546166 
0 0 -0.549109 -0 -0 -0.01 -0 -0 -0.01 
-0 -0 -0.01 -0 -0 -0.01 -0 -0 -0.01 
-0 -0 -0.01 -0 -0 -0.01 -0 -0 -0.01 
-0 -0 -0.01 -0 -0 -0.01 -0 -0 -0.01 
-0 -0 -0.01 -0 -0 -0.01 -0 -0 -0.01 
-0 -0 -0.01 0 0 -0.520071 0 0 -0.534295 
0 0 -0.519973 0 0 -0.520365 0 0 -0.537631 
0 0 -0.525957 0 0 -0.534099 0 0 -0.52321 
0 0 -0.507808 0 0 -0.508005 0 0 -0.500941 
-0 -0 -0.01 -0 -0 -0.01 -0 -0 -0.01 
-0 -0 -0.01 -0 -0 -0.01 -0 -0 -0.01 
-0 -0 -0.01 -0 -0 -0.01 0 0 -0.202227 
-0 -0 -0.01 -0 -0 -0.01 -0 -0 -0.01 
-0 -0 -0.01 -0 -0 -0.01 0 0 -0.200363 
-0 -0 -0.01 0 0 -0.0421277 0 0 -0.0666528 
-0 -0 -0.01 0 0 -0.0493872 -0 -0 -0.01 
-0 -0 -0.01 -0 -0 -0.01 -0 -0 -0.01 
-0 -0 -0.01 -0 -0 -0.01 -0 -0 -0.01 
-0 -0 -0.01 -0 -0 -0.01 -0 -0 -0.01 
-0 -0 -0.01 -0 -0 -0.01 -0 -0 -0.01 
-0 -0 -0.01 -0 -0 -0.01 -0 -0 -0.01 
-0 -0 -0.01 -0 -0 -0.01 -0 -0 -0.01 
-0 -0 -0.01 -0 -0 -0.01 
f 3 338 double
-4.31424e-05 2.10929e-05 3.9536e-05 1.00147e-05 -1.15887e-05 -1.36284e-05 1.21921e-05 -3.72271e-06 -7.33391e-06 
-2.35371e-05 2.21306e-05 -1.3254e-05 1.40613e-06 -1.33983e-05 7.72515e-07 -1.79753e-06 -6.92891e-06 4.0038e-06 
1.63865e-05 6.94372e-06 -0.000105427 -7.02337e-05 9.41512e-05 5.4512e-05 -1.29683e-05 1.57525e-05 3.98428e-05 
4.53104e-06 5.58725e-06 1.068e-05 9.63402e-06 2.18428e-06 3.21471e-06 -3.85152e-06 -6.5604e-06 -4.18088e-06 
-3.73134e-06 -1.45063e-05 5.33799e-06 3.57943e-06 -7.2333e-08 -5.68095e-06 6.40874e-05 -0.000117299 -0.000252917 
1.46561e-05 3.16357e-07 1.06518e-05 -4.02401e-05 2.98017e-05 -6.36941e-06 -3.28534e-05 -1.37419e-05 -2.6274e-06 
5.55097e-06 5.97141e-07 2.63629e-06 3.57239e-08 1.09212e-06 1.83785e-06 -1.44655e-06 9.76263e-07 -1.56839e-05 
3.03329e-06 -1.12137e-06 3.45368e-06 7.40649e-06 2.60393e-05 7.53542e-07 1.02096e-07 -1.44577e-06 1.2533e-05 
-7.29875e-08 -3.62494e-07 -7.86746e-07 1.56353e-05 2.52672e-05 -1.67426e-05 9.77075e-06 5.43567e-06 5.44612e-05 
-4.16412e-06 -2.63883e-06 -3.63924e-06 -2.61956e-06 -7.21053e-06 1.68602e-06 2.95868e-07 -1.982e-07 -5.35272e-07 
6.58013e-06 -5.22229e-06 -8.70086e-07 -4.07153e-06 -4.44779e-06 -1.27754e-05 3.09847e-05 -9.70457e-06 -2.96955e-05 
0 0 -1.28413e-05 -2.4492e-06 -1.16135e-06 -4.53313e-06 -2.24195e-05 -3.12496e-05 -5.69137e-05 
-1.60513e-06 6.03129e-07 1.33969e-06 2.09733e-07 -8.32687e-06 2.72256e-05 4.04625e-06 5.15271e-07 -8.31872e-06 
-1.15514e-07 1.38995e-06 -7.49278e-06 -2.03058e-05 1.5038e-06 2.78816e-05 1.69535e-05 -4.159e-06 -3.63831e-05 
-2.41756e-05 -2.23235e-05 -9.1693e-06 -6.62116e-06 1.08146e-06 3.12132e-06 -3.99336e-06 -1.55343e-05 8.02725e-06 