# vtk DataFile Version 4.0
Generated by LIGGGHTS
ASCII
DATASET POLYDATA
POINTS 846 float
-0.00437892 -0.00438566 0.000499189 -0.00342171 -0.00467313 0.000498658 -0.00244246 -0.00494665 0.000499326 
-0.00161918 -0.0042054 0.00049866 -0.000495568 -0.00499148 0.00049908 -0.000640705 -0.00400241 0.00049943 
0.000288541 -0.00436956 0.000498874 0.0013919 -0.00456846 0.000498752 0.00240367 -0.00462179 0.000498392 
0.0037172 -0.00441752 0.000498027 0.00466415 -0.00409683 0.000499503 -0.00460542 -0.00341189 0.000498451 
-0.00364174 -0.00369791 0.000498593 -0.00268212 -0.0039767 0.000499095 -0.0019736 -0.00327164 0.000499239 
-0.000995584 -0.00306829 0.000498513 2.9854e-05 -0.00324576 0.000499284 0.000954587 -0.00362467 0.000499796 
0.00194787 -0.00373232 0.000499039 0.00294619 -0.00378051 0.000498752 0.00443335 -0.00312438 0.000499352 
-0.00484985 -0.00242881 0.000498528 -0.00389141 -0.0027124 0.00049905 -0.00293289 -0.0029937 0.00049951 
-0.00273165 -0.00200836 0.000499578 -0.00177417 -0.00229235 0.000498307 -0.000343692 -0.00231261 0.000498896 
0.000654778 -0.00230553 0.000498435 0.00150501 -0.00280537 0.000656697 0.00248768 -0.00289134 0.000499083 
0.00348374 -0.00280894 0.000499269 0.00418353 -0.00209507 0.000499199 -0.00464939 -0.00145001 0.000499038 
-0.00369148 -0.00173264 0.000499946 -0.00200289 -0.00131033 0.000497595 -0.00296346 -0.00103429 0.00049873 
-0.0010465 -0.00160176 0.000499065 1.98033e-05 -0.00138222 0.000498978 0.00101771 -0.00132765 0.000498697 
0.001852 -0.0018769 0.000498868 0.00284849 -0.0019596 0.000499635 0.00242173 -0.00105567 0.000498338 
0.00341792 -0.0011384 0.000498693 0.00441601 -0.00109699 0.000499327 -0.00392516 -0.000760588 0.000498086 
-0.00319451 -6.21403e-05 0.000498963 -0.00223394 -0.000338363 0.000498431 -0.00125641 -0.000623622 0.000499618 
0.00035971 -0.000442449 0.000499154 0.00153581 -0.000473027 0.000498622 0.00299899 -0.000231797 0.000498246 
0.00494737 -0.0002505 0.000498824 -0.00416559 0.000208537 0.000498729 -0.00344886 0.000904294 0.000498869 
-0.00247476 0.000631678 0.000499341 -0.00150114 0.000346134 0.000499688 -0.000527765 6.09821e-05 0.000499667 
0.00021058 0.000735287 0.000499306 0.00117074 0.000458493 0.000499115 0.00215887 0.000308165 0.000499489 
0.00293894 0.000935368 0.000498721 0.00382496 0.000328855 0.000498376 0.004739 0.000731194 0.000499062 
-0.00439917 0.00112781 0.000810547 -0.00271425 0.00171436 0.000498711 -0.00172147 0.00134393 0.000498924 
-0.000760295 0.00103315 0.00049813 -2.30431e-05 0.0017072 0.000497704 0.000938622 0.00143541 0.000498837 
0.00192547 0.00127911 0.000499341 0.00271159 0.00190779 0.000498132 0.00386284 0.00133439 0.000499572 
0.00478216 0.0017306 0.000499699 -0.00424144 0.00206344 0.000499338 -0.00350559 0.00273891 0.000499542 
-0.0025176 0.00288609 0.000497248 -0.00151988 0.00284602 0.000499036 -0.000975286 0.0020089 0.00049934 
0.000693113 0.00240423 0.000499715 0.00168048 0.00224788 0.000498912 0.00245745 0.00287629 0.000499392 
0.00348837 0.00253736 0.000498106 0.00447635 0.00268589 0.000498299 -0.00457639 0.00300442 0.000498241 
-0.00487795 0.00395727 0.000497792 -0.00384154 0.00368069 0.000499824 -0.00230748 0.00389629 0.000498516 
-0.00130896 0.00382166 0.000499452 -0.000536138 0.00302006 0.000498767 -0.000325404 0.00399655 0.0004985 
0.000456818 0.00337493 0.000497986 0.00144432 0.00321936 0.000499607 0.00222145 0.00384817 0.000499138 
0.00317974 0.00356703 0.000500056 0.00417558 0.00363802 0.000498914 -0.00414325 0.00463515 0.000499734 
-0.00315799 0.00438311 0.000691481 -0.00147466 0.00480598 0.00049847 0.000435896 0.00464253 0.000499727 
0.0014123 0.00443281 0.000498705 0.00294772 0.00453947 0.000499817 0.00394502 0.00461002 0.00049966 
0.00489226 0.00492983 0.000498272 -0.00455097 -0.00493535 0.00131612 -0.00381542 -0.00425019 0.00131326 
-0.00288348 -0.00463273 0.00133947 -0.00203929 -0.0048399 0.00183311 -0.00121719 -0.00465285 0.00129634 
4.50977e-05 -0.00486844 0.00133043 0.00198389 -0.0048305 0.00137997 0.00308869 -0.00469627 0.00122161 
0.00345976 -0.00405769 0.00189397 0.00433528 -0.00468922 0.00123436 -0.00477306 -0.00396214 0.00131502 
-0.00403993 -0.00327585 0.00131105 -0.00308394 -0.00356864 0.00131822 -0.00212659 -0.00398068 0.0013295 
-0.00145663 -0.00324028 0.00136678 -0.000552015 -0.00393431 0.00149289 0.000442291 -0.00395293 0.00139333 
0.0014369 -0.00399667 0.00131589 0.00188419 -0.00315062 0.00160312 0.00243861 -0.00394138 0.0013438 
0.00299545 -0.00300843 0.00135112 0.00375129 -0.00359241 0.00105925 0.00441243 -0.00365439 0.00180505 
-0.00499603 -0.00298752 0.00131385 -0.00424471 -0.00214546 0.00124144 -0.00328121 -0.00240967 0.00123234 
-0.00232932 -0.00271302 0.0012468 -0.00106056 -0.00233939 0.00119444 -0.000312459 -0.00296939 0.00139642 
0.000672464 -0.00299446 0.00122275 0.00123221 -0.0020359 0.0012666 0.00229707 -0.00229707 0.00128801 
0.00405585 -0.00267402 0.00130758 -0.00385161 -0.0012359 0.00137206 -0.00287006 -0.00149104 0.00138194 
-0.00192304 -0.0018074 0.00135871 -0.00102644 -0.0013811 0.00147309 0.000152888 -0.00198874 0.00130292 
0.000531412 -0.00106457 0.00132973 0.00171494 -0.00116449 0.00119636 0.00266697 -0.00137708 0.00141151 
0.00353731 -0.0018261 0.00121269 0.00477873 -0.0019393 0.00128655 0.00422829 -0.00112847 0.00148005 
-0.0048365 -0.000845316 0.00127175 -0.00375706 -0.00020374 0.00131225 -0.00278879 -0.000484092 0.00131669 
-0.00180817 -0.000777429 0.0013191 -0.00110955 -6.39271e-05 0.00132842 -0.000377182 -0.0007085 0.00111992 
0.000956029 -0.000163954 0.00125077 0.00232133 -0.000370053 0.00121758 0.00339189 -0.000599396 0.00133989 
0.0042836 -0.000160554 0.00123927 -0.00478491 0.000319194 0.00127565 -0.0039423 0.000762002 0.00162026 
-0.00302992 0.000486055 0.00131797 -0.00206843 0.00021466 0.00131227 -0.00132928 0.000909351 0.00130874 
-0.000357652 0.000617756 0.00131263 0.00048666 0.000496193 0.00183421 0.00172433 0.000212148 0.00176616 
0.00233495 0.000864416 0.00131148 0.00320968 0.000381227 0.00128368 0.00410847 0.000819325 0.00132042 
-0.0041677 0.00176865 0.0015408 -0.00324888 0.00146071 0.00130319 -0.00228803 0.0011894 0.00130723 
-0.00161879 0.00169908 0.00184659 -0.000582269 0.0015921 0.00131862 0.000393702 0.00135375 0.0013324 
0.00134488 0.00101612 0.00130964 0.00212247 0.00184176 0.00130105 0.00323354 0.00151753 0.00125612 
0.00489296 0.0014241 0.00145104 -0.00488985 0.00236655 0.00119973 -0.00292413 0.00240462 0.0012713 
-0.00198887 0.00214531 0.00103362 -0.00110814 0.00247389 0.0013742 -6.39294e-05 0.00244716 0.00116638 
0.000782594 0.0029493 0.001341 0.00113925 0.00201677 0.00130611 0.00184258 0.00280072 0.00131531 
0.00289805 0.0024726 0.00130028 0.00406531 0.00206397 0.00116215 0.00448801 0.00269333 0.00190974 
-0.00399006 0.00308104 0.00130407 -0.00306386 0.00347253 0.00109283 -0.00358607 0.00378803 0.00188367 
-0.00204265 0.00331286 0.00126383 -0.0010669 0.00347224 0.00140368 -7.16364e-05 0.00351095 0.00133378 
0.000831089 0.00394336 0.00122925 0.00261814 0.00343075 0.00131558 0.0038365 0.00308277 0.0012597 
0.00480669 0.00333307 0.00121133 -0.00437906 0.00408093 0.00135264 -0.00363075 0.00472487 0.00150296 
-0.00275018 0.00426608 0.00161321 -0.00180753 0.00428375 0.00128264 -0.000820041 0.00443205 0.00124806 
-8.15032e-05 0.00432533 0.00191298 0.00102088 0.00492317 0.00127578 0.00178615 0.00418911 0.00139265 
0.00275603 0.00440352 0.00149716 0.00367574 0.0040686 0.0012954 0.00463344 0.00435497 0.00127407 
-0.00415427 -0.00461115 0.00218133 -0.00492057 -0.00404403 0.00292153 -0.0034721 -0.00435627 0.00287325 
-0.0027883 -0.00407721 0.00216447 -0.00147677 -0.00469477 0.0027267 -0.000606069 -0.00475316 0.00207964 
0.000544407 -0.00407732 0.00287473 0.000251551 -0.00497321 0.00254254 0.000990772 -0.00448374 0.00207861 
0.00192275 -0.00413668 0.00217712 0.00156059 -0.00464607 0.00295657 0.00268201 -0.00478426 0.00212972 
0.00258866 -0.00417603 0.00292062 0.00338749 -0.00477257 0.00284718 0.00412618 -0.00413307 0.00263484 
0.00485854 -0.00450987 0.00206588 -0.00467938 -0.00343949 0.00216149 -0.00371818 -0.00371275 0.00214943 
-0.00218402 -0.00329059 0.00204944 -0.0014008 -0.00399162 0.00202153 -0.00186077 -0.00376928 0.00287928 
-0.000692403 -0.00399719 0.00272752 -0.000887912 -0.00315185 0.00219464 2.96954e-05 -0.00354437 0.0022058 
0.000762674 -0.00300209 0.00290083 0.00101718 -0.00348494 0.00206399 0.00182544 -0.00323616 0.00259883 
0.00270327 -0.00347384 0.0021857 0.00363881 -0.00309902 0.00210986 0.00447371 -0.0031363 0.00265728 
-0.00407358 -0.00264896 0.00208805 -0.00435258 -0.00213546 0.00289819 -0.00311189 -0.00292045 0.00207863 
-0.00252982 -0.00210788 0.00209434 -0.00249296 -0.00278597 0.00285413 -0.00160453 -0.00247756 0.00202608 
-0.00108718 -0.00232863 0.00286754 -0.000584954 -0.00208063 0.00203397 -0.000229192 -0.00286228 0.00288875 
0.00030215 -0.00259069 0.00208669 0.00129805 -0.00252862 0.0021326 0.0026432 -0.00267292 0.00278061 
0.00302296 -0.00222507 0.00197154 0.00364286 -0.00255425 0.00294743 0.00400647 -0.00210819 0.00212975 
0.00495294 -0.00242896 0.00213996 -0.00447911 -0.00161174 0.00205262 -0.00389868 -0.00125261 0.00278217 
-0.00349171 -0.00183774 0.00208202 -0.00277736 -0.00140806 0.00276278 -0.00163431 -0.0014914 0.00226047 
-0.000206478 -0.00115427 0.00199823 -0.00078826 -0.00137993 0.00277928 5.83593e-05 -0.00191181 0.00277931 
0.000747482 -0.00169661 0.00207155 0.000655258 -0.00111735 0.00287988 0.00188515 -0.00173123 0.00200195 
0.00164818 -0.0011962 0.00281308 0.00265124 -0.00156226 0.00262121 0.0034278 -0.00129711 0.00205292 
0.00461196 -0.00135144 0.00237542 -0.00425914 -0.000636637 0.00205958 -0.00475157 -0.000704566 0.00292547 
-0.00328499 -0.000853685 0.00210153 -0.002296 -0.000745772 0.00218991 -0.00274459 -0.000168737 0.00287106 
-0.00110421 -0.000651688 0.00215041 -0.00101395 -2.70642e-05 0.00292477 -0.000264406 -0.000152515 0.00194266 
-0.000188458 -0.000584556 0.00284047 0.000675734 -0.000174904 0.00254923 0.00123214 -0.000785354 0.0019849 
[...]
POINT_DATA 846
FIELD FieldData 7
id 1 846 int
17 57 74 16 56 133 69 113 31 
48 91 108 72 7 89 18 107 70 
28 51 102 36 80 12 45 95 19 
104 97 22 14 29 88 60 78 15 
148 61 1 26 65 103 68 10 27 
94 110 105 62 96 82 46 43 101 
37 90 59 42 55 4 114 2 77 
93 54 21 40 25 53 23 35 58 
33 92 109 8 20 112 13 6 5 
47 52 9 38 67 32 3 34 50 
39 44 85 41 79 63 71 24 11 
30 81 87 49 144 164 146 176 149 
222 118 168 278 125 137 124 99 194 
218 190 116 162 197 153 155 206 173 
179 73 115 121 157 161 139 195 136 
231 170 64 128 181 76 202 214 86 
123 98 159 156 117 138 236 209 169 
187 75 147 160 171 211 127 165 120 
212 257 225 177 142 129 119 151 126 
175 207 174 145 66 140 208 84 152 
134 130 131 141 172 100 200 158 205 
196 122 277 106 154 143 183 166 83 
135 215 221 249 111 150 217 167 192 
216 203 132 220 343 371 229 331 319 
342 301 260 337 385 291 293 377 285 
334 248 242 219 188 307 340 320 289 
329 273 330 292 270 327 224 350 163 
193 276 199 345 254 394 275 245 305 
227 443 267 253 204 299 239 325 336 
233 283 240 258 338 256 310 316 266 
304 281 357 259 314 303 268 323 271 
308 288 263 302 210 344 191 296 243 
261 213 284 272 252 235 381 295 317 
282 186 361 185 393 389 287 230 198 
348 251 250 234 322 353 332 244 264 
367 226 321 324 379 265 392 237 246 
294 438 279 184 189 286 201 333 247 
335 255 241 228 313 383 232 387 280 
312 262 238 311 318 178 315 269 355 
180 349 326 290 182 306 369 274 328 
223 297 373 352 396 452 540 423 408 
500 431 446 449 418 436 437 356 366 
386 384 354 439 390 450 370 486 445 
488 300 397 422 347 309 429 380 432 
485 415 374 508 416 413 419 447 378 
417 441 467 407 364 475 375 498 298 
368 428 391 405 409 388 398 400 359 
451 382 339 425 455 362 489 341 424 
440 459 460 411 484 442 365 469 426 
399 509 358 463 404 435 454 410 473 
414 490 402 497 444 506 468 420 372 
480 401 395 448 346 562 430 403 456 
427 433 363 412 493 499 360 351 507 
376 434 406 491 578 560 563 524 528 
466 558 552 597 548 532 529 613 541 
479 503 601 561 482 546 536 623 530 
610 481 477 577 566 494 461 537 471 
616 554 587 571 556 496 522 620 590 
567 457 535 513 622 555 551 518 585 
557 487 476 511 495 547 591 504 550 
531 492 574 565 483 592 533 581 465 
596 579 502 542 464 519 543 462 470 
545 474 621 478 512 538 458 606 505 
611 619 580 453 526 615 553 609 549 
517 559 525 523 569 510 527 421 514 
520 600 544 539 521 501 472 534 515 
604 608 643 711 572 653 713 664 614 
589 652 637 658 598 672 651 583 712 
632 694 724 647 660 642 573 650 638 
607 709 575 716 646 669 692 714 707 
629 668 667 635 576 626 633 640 654 
673 603 688 679 703 594 663 687 593 
634 730 678 718 617 612 657 697 645 
729 691 618 648 624 662 676 602 630 
674 661 695 564 686 665 644 704 568 
586 584 666 725 689 727 655 685 588 
708 698 699 684 693 582 706 627 639 
631 599 670 705 625 675 656 649 605 
636 570 732 516 671 595 659 677 710 
773 641 767 776 720 696 780 700 765 
778 789 701 733 763 728 786 764 761 
731 741 726 760 742 682 750 737 751 
680 736 787 771 690 628 723 715 683 
768 753 784 770 759 719 722 766 739 
785 721 681 757 788 777 743 717 755 
754 734 746 775 745 702 735 749 762 
758 772 740 779 756 738 747 782 783 
744 748 781 774 769 752 838 811 836 
813 816 797 804 805 793 795 790 817 
815 812 829 826 844 814 822 809 825 
803 806 824 834 842 840 833 828 841 
799 792 830 846 796 801 820 802 839 
835 823 832 807 845 819 827 791 800 
808 798 821 843 810 818 837 794 831 

type 1 846 int
1 1 1 1 1 1 1 1 1 
1 1 1 1 1 1 1 1 1 
1 1 1 1 1 1 1 1 1 
1 1 1 1 1 1 1 1 1 
1 1 1 1 1 1 1 1 1 
1 1 1 1 1 1 1 1 1 
1 1 1 1 1 1 1 1 1 
1 1 1 1 1 1 1 1 1 
1 1 1 1 1 1 1 1 1 
1 1 1 1 1 1 1 1 1 
1 1 1 1 1 1 1 1 1 
1 1 1 1 1 1 1 1 1 
1 1 1 1 1 1 1 1 1 
1 1 1 1 1 1 1 1 1 
1 1 1 1 1 1 1 1 1 
1 1 1 1 1 1 1 1 1 
1 1 1 1 1 1 1 1 1 
1 1 1 1 1 1 1 1 1 
1 1 1 1 1 1 1 1 1 
1 1 1 1 1 1 1 1 1 
1 1 1 1 1 1 1 1 1 
1 1 1 1 1 1 1 1 1 
1 1 1 1 1 1 1 1 1 
1 1 1 1 1 1 1 1 1 
1 1 1 1 1 1 1 1 1 
1 1 1 1 1 1 1 1 1 
1 1 1 1 1 1 1 1 1 
1 1 1 1 1 1 1 1 1 
1 1 1 1 1 1 1 1 1 
1 1 1 1 1 1 1 1 1 
1 1 1 1 1 1 1 1 1 
1 1 1 1 1 1 1 1 1 
1 1 1 1 1 1 1 1 1 
1 1 1 1 1 1 1 1 1 
1 1 1 1 1 1 1 1 1 
1 1 1 1 1 1 1 1 1 
1 1 1 1 1 1 1 1 1 
1 1 1 1 1 1 1 1 1 
1 1 1 1 1 1 1 1 1 
1 1 1 1 1 1 1 1 1 
1 1 1 1 1 1 1 1 1 
1 1 1 1 1 1 1 1 1 
1 1 1 1 1 1 1 1 1 
1 1 1 1 1 1 1 1 1 
1 1 1 1 1 1 1 1 1 
1 1 1 1 1 1 1 1 1 
1 1 1 1 1 1 1 1 1 
1 1 1 1 1 1 1 1 1 
1 1 1 1 1 1 1 1 1 
1 1 1 1 1 1 1 1 1 
1 1 1 1 1 1 1 1 1 
1 1 1 1 1 1 1 1 1 
1 1 1 1 1 1 1 1 1 
1 1 1 1 1 1 1 1 1 
1 1 1 1 1 1 1 1 1 
1 1 1 1 1 1 1 1 1 
1 1 1 1 1 1 1 1 1 
1 1 1 1 1 1 1 1 1 
1 1 1 1 1 1 1 1 1 
1 1 1 1 1 1 1 1 1 
1 1 1 1 1 1 1 1 1 
1 1 1 1 1 1 1 1 1 
1 1 1 1 1 1 1 1 1 
1 1 1 1 1 1 1 1 1 
1 1 1 1 1 1 1 1 1 
1 1 1 1 1 1 1 1 1 
1 1 1 1 1 1 1 1 1 
1 1 1 1 1 1 1 1 1 
1 1 1 1 1 1 1 1 1 
1 1 1 1 1 1 1 1 1 
1 1 1 1 1 1 1 1 1 
1 1 1 1 1 1 1 1 1 
1 1 1 1 1 1 1 1 1 
1 1 1 1 1 1 1 1 1 
1 1 1 1 1 1 1 1 1 
1 1 1 1 1 1 1 1 1 
1 1 1 1 1 1 1 1 1 
1 1 1 1 1 1 1 1 1 
1 1 1 1 1 1 1 1 1 
1 1 1 1 1 1 1 1 1 
1 1 1 1 1 1 1 1 1 
1 1 1 1 1 1 1 1 1 
1 1 1 1 1 1 1 1 1 
1 1 1 1 1 1 1 1 1 
1 1 1 1 1 1 1 1 1 
1 1 1 1 1 1 1 1 1 
1 1 1 1 1 1 1 1 1 
1 1 1 1 1 1 1 1 1 
1 1 1 1 1 1 1 1 1 
1 1 1 1 1 1 1 1 1 
1 1 1 1 1 1 1 1 1 
1 1 1 1 1 1 1 1 1 
1 1 1 1 1 1 1 1 1 
1 1 1 1 1 1 1 1 1 

i 3 846 int
0 0 0 0 1 0 0 0 0 
0 0 0 0 0 0 0 0 0 
0 0 0 0 0 0 0 0 0 
-1 0 0 0 0 0 1 0 0 
0 1 0 0 0 0 0 0 0 
0 0 0 0 0 0 0 1 0 
0 0 0 0 0 0 -1 0 0 
1 1 0 1 1 0 0 0 0 
0 0 0 0 0 0 0 0 0 
0 0 0 0 0 0 0 0 0 
0 0 0 0 0 0 0 0 0 
0 0 0 0 0 0 0 0 0 
0 0 0 0 0 0 0 0 0 
0 0 0 0 0 0 0 0 0 
0 0 0 0 0 0 0 0 0 
0 0 0 0 0 0 0 0 0 
0 0 0 0 0 0 0 0 0 
0 0 0 1 0 0 0 0 0 
0 0 0 0 0 0 0 0 0 
0 0 0 0 0 0 0 0 0 
0 0 0 0 0 0 0 0 0 
0 0 0 0 0 0 0 0 0 
0 0 0 0 0 0 0 0 0 
0 0 0 0 0 0 0 0 0 
-1 0 0 0 0 0 1 -1 0 
0 0 0 1 -1 0 0 0 0 
0 0 0 0 0 0 0 0 0 
0 0 0 -1 0 0 0 0 0 
1 0 0 1 0 0 0 0 0 
0 -1 0 0 0 0 0 -1 0 
0 0 0 0 0 0 0 0 0 
0 0 0 0 0 0 1 -1 0 
0 0 0 0 -1 0 0 -1 0 
0 0 0 0 0 0 -1 -1 0 
-1 -1 0 0 1 0 1 0 0 
0 0 0 0 0 0 0 0 0 
0 1 0 0 1 0 -1 0 0 
0 0 0 0 0 0 1 0 0 
0 0 0 0 1 0 0 0 0 
0 0 0 0 0 0 0 1 0 
0 0 0 0 0 0 0 0 0 
0 0 0 0 0 0 0 0 0 
1 0 0 0 -1 0 0 0 0 
0 0 0 0 0 0 0 0 0 
0 1 0 0 0 0 0 0 0 
0 0 0 0 0 0 0 0 0 
0 0 0 0 0 0 0 1 0 
0 0 0 0 1 0 0 0 0 
0 0 0 -1 0 0 0 0 0 
0 0 0 0 0 0 0 0 0 
0 0 0 0 0 0 0 0 0 
0 0 0 0 0 0 0 0 0 
0 0 0 0 0 0 1 0 0 
0 0 0 0 0 0 0 0 0 
0 0 0 0 0 0 0 0 0 
0 0 0 0 0 0 0 0 0 
0 0 0 0 0 0 0 0 0 
0 0 0 0 0 0 0 0 0 
0 0 0 0 -1 0 -1 0 0 
-1 0 0 1 -1 0 0 0 0 
0 0 0 0 0 0 0 0 0 
0 0 0 0 0 0 0 -1 0 
0 0 0 0 0 0 0 0 0 
0 0 0 0 0 0 0 0 0 
-1 0 0 0 0 0 0 0 0 
0 0 0 0 0 0 0 0 0 
0 0 0 1 0 0 0 0 0 
0 0 0 0 0 0 0 0 0 
0 0 0 0 0 0 0 0 0 
0 0 0 0 -1 0 0 0 0 
0 0 0 0 0 0 0 0 0 
0 0 0 0 0 0 0 0 0 
0 0 0 0 0 0 0 1 0 
0 0 0 0 0 0 0 1 0 
0 0 0 0 1 0 -1 0 0 
0 1 0 1 0 0 0 0 0 
0 1 0 0 1 0 0 0 0 
0 0 0 0 0 0 0 0 0 
0 0 0 0 0 0 0 0 0 
0 0 0 0 0 0 0 0 0 
0 0 0 0 0 0 0 0 0 
0 0 0 0 0 0 0 0 0 
0 0 0 0 0 0 0 0 0 
0 0 0 0 0 0 0 0 0 
0 0 0 0 0 0 0 0 0 
-1 0 0 1 0 0 0 0 0 
0 0 0 0 0 0 0 0 0 
0 0 0 0 0 0 0 0 0 
0 0 0 0 0 0 0 0 0 
0 0 0 0 0 0 0 0 0 
-1 0 0 0 0 0 0 0 0 
0 0 0 0 0 0 0 0 0 
0 0 0 0 0 0 0 0 0 
0 0 0 0 0 0 0 0 0 
0 0 0 0 0 0 0 0 0 
0 0 0 0 0 0 0 0 0 
0 0 0 0 0 0 1 0 0 
0 0 0 0 0 0 0 0 0 
0 0 0 0 0 0 0 0 0 
0 0 0 0 0 0 0 0 0 
-1 0 0 -1 0 0 -1 0 0 
0 0 0 0 0 0 0 0 0 
0 0 0 0 0 0 0 0 0 
0 0 0 0 0 0 0 0 0 
0 0 0 0 0 0 0 0 0 
0 0 0 0 0 0 0 0 0 
0 0 0 0 0 0 1 0 0 
1 0 0 0 0 0 0 0 0 
0 0 0 0 0 0 0 0 0 
0 0 0 0 0 0 0 0 0 
0 0 0 0 0 0 0 0 0 
0 0 0 0 0 0 0 0 0 
1 0 0 0 0 0 0 0 0 
0 0 0 0 0 0 0 0 0 
0 0 0 0 -1 0 0 0 0 
0 0 0 0 0 0 0 0 0 
-1 -1 0 0 0 0 -1 0 0 
1 0 0 0 0 0 0 0 0 
0 0 0 0 0 0 0 0 0 
0 0 0 0 -1 0 0 0 0 
-1 0 0 0 0 0 -1 0 0 
1 1 0 0 0 0 1 1 0 
0 0 0 0 0 0 0 1 0 
0 0 0 0 0 0 0 1 0 
0 0 0 0 0 0 1 0 0 
0 0 0 1 0 0 0 0 0 
1 0 0 0 0 0 0 0 0 
0 0 0 0 0 0 0 0 0 
0 0 0 -1 1 0 -1 0 0 
0 0 0 0 1 0 0 0 0 
0 0 0 0 0 0 0 0 0 
0 0 0 0 0 0 0 0 0 
0 0 0 0 0 0 0 0 0 
0 0 0 0 0 0 0 0 0 
0 0 0 0 0 0 0 0 0 
0 0 0 0 0 0 0 0 0 
0 0 0 0 0 0 0 0 0 
-1 0 0 0 0 0 0 0 0 
0 0 0 0 0 0 0 0 0 
0 0 0 0 0 0 0 0 0 
-1 0 0 0 0 0 0 0 0 
0 0 0 0 0 0 0 0 0 
0 0 0 0 0 0 0 0 0 
0 0 0 0 0 0 0 0 0 
0 0 0 0 0 0 0 0 0 
0 0 0 0 0 0 0 0 0 
0 0 0 0 0 0 0 0 0 
0 0 0 0 0 0 0 0 0 
0 0 0 0 0 0 0 0 0 
0 0 0 0 0 0 0 0 0 
0 0 0 0 0 0 0 0 0 
1 0 0 0 0 0 1 0 0 
0 0 0 0 0 0 0 0 0 
0 0 0 0 0 0 0 0 0 
0 0 0 0 0 0 0 0 0 
0 0 0 0 0 0 0 -1 0 
0 0 0 0 0 0 0 0 0 
0 -1 0 0 -1 0 0 0 0 
0 0 0 0 0 0 0 0 0 
0 -1 0 0 0 0 0 0 0 
0 0 0 1 0 0 0 0 0 
0 0 0 0 0 0 0 0 0 
0 0 0 0 0 0 0 0 0 
0 0 0 0 0 0 0 0 0 
0 0 0 0 0 0 0 0 0 
0 0 0 0 0 0 0 0 0 
0 0 0 0 0 0 0 0 0 
0 0 0 0 0 0 0 0 0 
-1 0 0 0 0 0 0 0 0 
0 0 0 0 0 0 0 0 0 
0 0 0 0 0 0 0 0 0 
0 0 0 0 0 0 0 0 0 
0 0 0 0 0 0 0 0 0 
0 0 0 0 0 0 0 0 0 
0 0 0 0 0 0 0 0 0 
0 0 0 0 0 0 0 0 0 
0 0 0 0 0 0 0 0 0 
0 0 0 0 0 0 0 0 0 
0 0 0 0 0 0 0 0 0 
0 0 0 0 0 0 0 0 0 
0 0 0 0 0 0 0 0 0 
0 0 0 0 0 0 0 0 0 
0 0 0 0 0 0 0 0 0 
0 0 0 0 0 0 1 0 0 
0 0 0 0 0 0 0 0 0 
0 0 0 0 0 0 0 0 0 
0 0 0 0 0 0 0 0 0 
0 0 0 0 0 0 1 0 0 
0 0 0 0 0 0 0 0 0 
0 0 0 0 0 0 0 0 0 
0 0 0 0 0 0 0 0 0 
1 -1 0 0 0 0 0 0 0 
0 0 0 0 0 0 0 0 0 
0 0 0 0 0 0 0 0 0 
0 0 0 0 0 0 0 0 0 
0 -1 0 1 0 0 0 0 0 
0 0 0 0 0 0 0 -1 0 
0 0 0 0 0 0 0 0 0 
0 0 0 0 1 0 0 0 0 
0 0 0 0 0 0 0 0 0 
0 0 0 0 0 0 0 0 0 
0 0 0 0 0 0 0 1 0 
0 0 0 0 0 0 0 0 0 
0 0 0 0 0 0 0 1 0 
0 0 0 0 0 0 0 0 0 
0 0 0 0 1 0 0 0 0 
0 0 0 0 0 0 0 0 0 
0 0 0 0 0 0 0 0 0 
0 0 0 0 0 0 0 0 0 
0 0 0 -1 0 0 0 0 0 
0 0 0 0 0 0 0 0 0 
0 0 0 0 0 0 0 0 0 
0 0 0 0 0 0 -1 0 0 
0 0 0 0 0 0 0 0 0 
0 0 0 0 0 0 0 0 0 
0 0 0 0 0 0 0 0 0 
0 0 0 0 0 0 0 0 0 
-1 0 0 0 0 0 0 0 0 
0 0 0 0 0 0 0 0 0 
0 0 0 0 0 0 0 0 0 
0 0 0 0 0 0 0 0 0 
0 0 0 0 0 0 0 0 0 
0 0 0 0 0 0 0 0 0 
0 0 0 0 0 0 0 0 0 
0 0 0 0 0 0 0 0 0 
0 0 0 0 0 0 0 0 0 
0 0 0 0 0 0 0 0 0 
0 0 0 0 0 0 0 0 0 
0 0 0 0 0 0 1 0 0 
0 0 0 1 0 0 0 0 0 
0 0 0 0 0 0 0 0 0 
0 0 0 0 0 0 0 0 0 
-1 0 0 0 0 0 0 0 0 
0 0 0 0 0 0 0 -1 0 
0 0 0 0 0 0 0 0 0 
0 -1 0 0 0 0 0 0 0 
0 -1 0 0 -1 0 1 0 0 
0 0 0 0 0 0 0 1 0 
0 0 0 0 0 0 0 0 0 
0 0 0 0 0 0 0 0 0 
0 0 0 0 0 0 0 0 0 
0 0 0 0 0 0 0 0 0 
0 0 0 0 0 0 0 0 0 
0 0 0 0 0 0 0 0 0 
0 0 0 0 0 0 0 0 0 
0 0 0 0 0 0 0 0 0 
0 0 0 0 0 0 0 0 0 
0 0 0 0 0 0 0 0 0 
0 0 0 0 0 0 0 0 0 
0 0 0 0 0 0 0 0 0 
0 0 0 0 0 0 0 0 0 
0 0 0 0 0 0 0 0 0 
0 0 0 0 0 0 0 0 0 
0 0 0 0 0 0 0 0 0 
0 0 0 0 0 0 0 0 0 
0 0 0 0 0 0 0 0 0 
0 0 0 0 0 0 0 0 0 
0 0 0 0 0 0 0 -1 0 
0 0 0 0 0 0 0 0 0 
0 0 0 0 0 0 0 0 0 
0 0 0 0 0 0 0 -1 0 
0 0 0 0 0 0 0 0 0 
0 0 0 0 0 0 0 0 0 
0 0 0 0 0 0 0 0 0 
0 0 0 0 0 0 0 0 0 
0 0 0 0 0 0 0 0 0 
0 0 0 0 0 0 0 0 0 
0 0 0 0 0 0 0 0 0 
0 0 0 0 0 0 0 0 0 
0 0 0 0 0 0 0 0 0 
0 0 0 0 0 0 0 0 0 
0 0 0 0 0 0 0 0 0 
0 0 0 0 0 0 0 0 0 
0 0 0 0 0 0 0 0 0 
0 0 0 0 0 0 0 0 0 
0 0 0 0 0 0 0 0 0 
0 0 0 0 0 0 0 0 0 
0 0 0 0 0 0 0 0 0 
0 0 0 0 0 0 0 0 0 
0 0 0 0 0 0 0 0 0 
0 0 0 0 0 0 0 0 0 
0 0 0 0 0 0 0 0 0 

v 3 846 double
-0.000195926 0.000386596 0.000241183 -0.000175208 0.000142639 0.00022622 -5.38507e-05 -9.2755e-05 0.0001718 
-5.70008e-05 -1.52161e-06 0.000131525 -7.7865e-05 -0.00027767 4.59746e-05 -0.000129754 -0.000229922 0.000427384 
0.000110992 3.71794e-05 0.000442802 -0.000161331 -0.000166492 0.000371034 -0.000255173 -2.10388e-05 0.00027038 
-6.85605e-05 0.000214313 0.000192019 3.90457e-05 0.000110369 0.000204814 0.000111002 0.000396723 0.000188145 
0.000202324 2.56573e-05 0.00024467 0.000114328 5.99949e-05 0.0001595 0.000151237 -7.97686e-05 -0.000131614 
-0.000254094 8.43518e-06 2.74901e-05 0.000419708 -0.000109024 0.000627539 0.000222277 0.000658663 1.62981e-05 
-0.00018401 -0.000210326 0.000164769 9.00576e-05 -0.000366939 0.00018095 0.000363082 0.000373015 0.000396128 
0.000529154 0.00046741 0.000142764 0.00038778 -5.14676e-05 0.000101964 0.000239207 -0.000213177 1.19201e-05 
2.58079e-05 -0.000903637 0.000513941 0.000171222 -0.000533613 0.000402155 0.00014897 -0.000449677 0.00030631 
0.000246678 6.77085e-05 0.000154679 0.000553207 0.00038678 6.93648e-05 0.000337667 -0.000340424 0.000289209 
9.06577e-05 0.000162792 0.000261127 0.000119567 -0.00038374 0.000345941 0.000206898 0.000590479 -0.000174586 
0.000179326 -6.40129e-05 0.00016274 -0.000408432 -0.000550843 6.90364e-05 -6.20205e-05 2.71196e-05 0.000111607 
0.000366701 0.000166432 0.000409732 0.000272332 -0.000550673 0.000356285 9.50901e-05 -0.000202268 0.000250965 
8.60851e-05 7.08558e-07 0.000138107 0.000186651 -2.14959e-05 0.000307431 -6.8035e-05 0.000158965 0.000234194 
-1.91166e-06 0.000192784 0.000236878 -0.000298063 -8.2847e-05 7.13944e-05 0.000841385 0.000315503 0.00035807 
-0.000402142 -2.63819e-05 8.52334e-05 -0.00254272 0.000175632 -0.00281844 -0.000618609 -0.000798688 0.000139129 
-3.95436e-05 -0.000266591 0.000255335 -6.17694e-06 4.66469e-05 0.000342495 -3.18892e-05 0.000245051 0.000315941 
-0.000336668 0.000264476 7.25516e-05 -0.000273101 0.000410596 0.000242522 -9.45059e-05 0.000278173 -2.72071e-06 
-0.000634532 0.000125035 -0.000617703 -0.00182339 0.000465749 -0.00091665 1.25277e-06 -0.000497911 0.000271085 
8.30985e-05 0.000258085 0.000447813 0.000134313 0.000253992 0.000311959 2.91075e-05 0.000134009 0.00016956 
-0.00011026 0.000438506 0.000498384 -0.000155959 0.000570217 0.00019773 -0.000288832 0.000686447 7.3032e-05 
-0.000304723 0.000947304 -0.000121514 0.0003931 3.33225e-05 6.39121e-06 9.77e-05 0.000399471 -7.38388e-05 
-7.12912e-05 7.28299e-06 9.38925e-05 -3.10794e-05 -5.63017e-05 0.000119363 -3.12698e-05 0.000158025 0.000458399 
-1.43692e-05 0.000115719 0.000209581 0.000171958 0.00055111 0.000394244 0.000729522 0.000734147 -5.79315e-05 
-0.000243185 -0.000336089 1.17931e-06 -0.000239902 0.00030327 -0.000245787 0.000101362 0.000159167 0.000105838 
0.000436756 6.48512e-05 -1.65966e-05 0.000222119 0.000182263 -2.57102e-05 0.000182709 7.5968e-05 0.000109293 
-3.44811e-05 7.80775e-06 0.000226256 -0.000308571 7.18778e-05 0.000309456 -0.000379173 0.000438615 0.000264297 
-0.000254972 0.000889899 0.000445288 -0.000240325 0.000197617 0.000162803 -0.000177178 0.000106056 0.000242985 
-0.000273094 0.000457939 0.000214218 2.0296e-05 -0.000144961 -2.45191e-05 -7.87994e-06 0.000322161 -9.07014e-05 
0.000413503 -0.000100468 1.50406e-05 0.000264775 -8.79331e-05 1.35671e-05 0.000410625 -0.000232847 0.000232858 
0.000615357 7.72675e-05 8.09679e-05 4.71097e-05 -4.68633e-05 -0.000306908 -0.000221559 -0.000387654 -8.46228e-05 
-0.000204555 0.000326614 0.000245674 -9.97677e-05 0.000302096 5.24296e-05 -0.000736019 0.000657435 8.9843e-05 
-0.000300636 0.00013186 -0.000162498 1.64821e-06 -4.00813e-05 -5.15923e-05 0.000386873 5.85917e-05 0.000281954 
6.89831e-05 -0.000476599 0.000111443 0.000232259 0.00046538 0.000146539 -0.000180973 0.000147942 -0.000149221 
-0.000282927 0.00019356 0.000208773 -0.000663793 0.00064729 0.00105149 -0.000443772 0.000965271 0.00050452 
-0.000272201 0.000166069 0.00013995 -0.000789771 -0.000370151 8.83562e-05 -0.000209017 -0.00108967 0.00039759 
-7.44902e-05 -0.000910516 9.72008e-05 -0.00064527 -0.00030698 0.000457066 -0.000258715 0.000804837 0.000305723 
0.000364969 0.000302309 0.000267739 0.000139791 0.000131418 0.000297385 -0.000224596 0.0010989 0.000732934 
0.000478627 0.00110482 0.000321684 0.000214069 0.0011047 -0.000659357 0.000297679 -0.000302772 0.000380977 
0.000808104 -0.000916667 0.000421385 -0.000248808 -0.000871542 0.001348 -0.000171439 -0.000346788 0.00125407 
-0.000159346 -0.000317913 0.000833282 -0.000373682 -0.00012231 0.000562332 9.75834e-05 -0.000788181 0.000229031 
0.000237234 -4.36688e-05 0.000575742 0.000373351 0.000495451 0.000525827 -1.24436e-05 0.000461992 0.00113277 
0.000748287 0.00100863 0.00042701 0.000683553 0.000322353 0.000446761 0.000524953 -0.00164836 0.00144687 
0.00070431 -0.000934729 0.000674077 0.000376227 -0.000575722 0.000669588 0.000227304 -0.000729224 0.00145403 
0.0011677 0.000232917 0.00011564 0.000118695 -0.000262984 0.000497191 -0.00012072 -0.000153532 8.33923e-05 
0.000246663 0.000513872 0.000679935 0.00128201 0.000761372 0.000721676 0.000334941 0.000345698 0.000557321 
-0.000139732 -0.00015525 0.000393066 7.45935e-05 -0.0003633 0.00130265 0.00022798 -0.00103051 0.000722725 
0.000394493 -0.000644888 0.000463058 0.000125549 5.39135e-05 0.000667244 -5.85642e-05 9.14736e-06 0.000421188 
8.95292e-05 0.000245725 0.000503665 0.000418661 0.000170712 0.000151297 -0.000468967 -2.33382e-05 0.000229307 
-0.000433813 0.000169501 -3.72498e-05 -0.000592713 0.000353836 0.000286792 -0.00191679 -9.29219e-05 -0.000941839 
-0.000271828 -0.000921785 -0.000607197 -0.00033937 -0.000673644 -0.00186157 0.000651795 -0.000603368 0.00129826 
-9.11752e-05 -0.000155942 0.000450294 -0.000245262 0.000115962 0.000670665 -0.000232234 0.000275864 0.000416395 
-0.000409918 0.000498359 0.000162877 -0.000190066 0.000221212 0.000174945 -0.000545296 0.000485287 0.000277028 
-0.000414261 0.000135874 7.7946e-05 -0.000216169 -0.000180453 -0.0130048 -0.000197222 -0.00107898 -0.00149407 
-0.000106795 -0.00114027 0.000376208 -0.000922333 -0.000658738 0.000499768 -0.000538929 5.8256e-05 0.00109077 
-0.000789962 0.000495411 0.00051754 -0.00045164 0.000342102 0.000493967 0.000269259 0.00123254 0.00046644 
5.23587e-05 0.000950008 0.000304636 1.18724e-05 0.000591137 -0.000212541 -2.82256e-05 -0.000164375 -0.00102925 
1.34142e-05 -0.000823272 -0.00136118 -0.000394779 -0.00076598 9.47748e-05 -0.000743624 -0.000286201 0.000484172 
-0.000608333 3.06625e-05 0.00091163 -0.000521305 2.97081e-05 0.00068178 -0.000846587 0.000748888 0.00136447 
0.000942876 0.000984986 0.00103702 -0.000265739 0.00125578 0.00069729 0.000216535 0.000389285 -0.000457818 
0.000595462 -0.000191096 -0.000330014 -0.000567339 -0.000367015 0.000562008 0.000494727 -0.000184248 -0.00013781 
-0.000109373 0.00035783 0.000748137 -0.000293162 -8.69259e-05 0.000888078 -0.000996681 0.000421804 0.000159942 
-0.000637047 0.000756452 0.000745773 -0.000387522 0.0012201 0.001037 -0.000394678 0.00171123 0.000561579 
0.000518048 6.85353e-05 0.000161378 0.000389854 0.000356785 0.000225062 -0.000230556 0.000390394 0.000618343 
0.000254974 0.000687188 -0.00044565 0.000455201 -0.000173969 0.000117497 0.000461859 -0.000304885 0.000600611 
0.000492001 -0.000308653 -9.79463e-05 -0.000794283 0.000484615 0.000307703 -0.000614861 0.00119766 0.00079459 
-0.000447739 0.0008616 0.000446846 -0.000612871 0.000787907 0.000729345 -0.000339154 0.000369769 0.00039401 
3.18162e-05 0.000522586 -0.000385068 6.3503e-05 0.00021006 -0.000272568 -0.000104261 -0.000528574 -0.000126755 
0.00025425 -0.000454547 -0.000415492 -0.000372343 -0.00035832 0.000272464 -0.000840381 0.000436583 0.000977401 
-0.000666986 0.000932136 0.000577395 -0.000742838 0.00110353 0.00016326 -0.000489819 0.000291217 0.000274036 
-9.53797e-05 0.000862977 0.000908695 -0.00108581 0.00131202 0.0010313 0.000291961 0.00027345 0.00016444 
-0.000433214 0.000252198 0.000390824 -0.000238632 -0.000329618 0.00095716 -6.94756e-05 -0.00110416 2.61451e-06 
0.000514872 -0.00266329 0.00331556 5.21212e-05 -0.00202253 -0.000176005 0.0004853 -0.0010971 0.00133303 
-2.11586e-05 9.95935e-06 0.000768822 0.000336481 -0.00049673 0.00147237 -0.000221427 0.0005545 0.00088352 
-0.000544192 8.63444e-05 0.0016258 -0.000417098 0.00103452 0.000393248 -0.000523944 0.00138771 0.000517098 
-0.00010535 0.000365531 0.000959507 0.000115953 0.00135496 0.00110739 -0.000372145 0.000870284 0.00112063 
0.000555203 -0.000205364 0.000477669 0.000633667 -0.000709012 0.000468308 6.22597e-05 0.000304101 -0.000498146 
-0.000923478 -0.00189777 0.000653783 0.000690029 -0.00079572 0.000700172 0.000551693 -0.0010864 0.0024287 
5.2208e-05 -0.000718815 0.00185215 -0.000251613 -0.000874831 0.00192952 0.000744331 -0.000680289 0.000901937 
4.66793e-05 -0.000761172 0.000425074 0.000296712 8.49212e-06 0.00104122 0.000464202 0.001389 0.00152362 
0.000634047 0.00109971 0.000777492 0.0021798 0.000982924 0.00198361 0.000803453 0.001077 -0.000789242 
0.0017471 0.000527417 0.00234904 -0.00171035 -0.00133578 -0.000355414 0.00127525 -0.000408504 0.000359736 
0.00262246 -0.00128385 8.18821e-05 0.00116173 -0.00057894 -0.000101183 -0.000359689 -0.0004609 0.00247131 
0.000158994 -0.000642533 0.0019602 0.000370184 -0.000489492 0.000998931 0.000163016 0.000173557 -0.000792554 