# vtk DataFile Version 4.0
Generated by LIGGGHTS
ASCII
DATASET POLYDATA
POINTS 114 float
-0.00241722 0.00469385 0.000499702 -0.00113029 0.0044067 0.000499702 0.000518694 -0.00421969 0.000499699 
0.00143962 0.00469091 0.00088168 0.00461978 -0.00372651 0.000527211 -0.00126131 -0.00354452 0.000499305 
0.00145477 -0.00304013 0.000499704 0.00246711 -0.00309145 0.000501597 0.00421102 -0.00263289 0.000499699 
0.00283658 -0.00216173 0.00049956 -7.99198e-05 -0.00177886 0.000500035 -0.00387717 -0.000318466 0.000500294 
-0.0028515 -0.000799255 0.000516387 0.00195486 -0.000442233 0.00058788 0.00447341 -0.00059853 0.000499699 
-0.000737817 0.000960916 0.000603741 0.000835819 -1.82973e-05 0.000594232 0.00420511 0.000376675 0.000499699 
-0.000934761 0.00198212 0.00189447 0.00299367 0.00187399 0.000499699 -0.00428034 0.00219054 0.000753972 
-0.00230369 0.00244848 0.000497661 0.000373487 0.00285299 0.000500014 0.00138855 0.00227547 0.000499699 
-0.000604643 0.003077 0.000499699 0.00174452 0.00323358 0.00195081 -0.00314402 0.00398215 0.000499696 
0.000702634 0.00411482 0.00050601 -0.000100007 -0.00285847 0.00215372 0.000782049 -0.00229728 0.000611169 
0.00184373 -0.0020613 0.000523577 -0.000855993 -0.000949301 0.000599637 0.000775468 -0.00104508 0.000536737 
-0.00285263 0.000237872 0.00215498 -0.00427519 0.00105596 0.000659476 -0.00195773 0.00136012 0.000568928 
0.00368684 0.00273017 0.000493587 0.00294782 0.00367894 0.000632474 -0.00271486 -0.00318942 0.00176332 
-0.00381459 -0.00132984 0.00188477 0.00309254 0.000403266 0.00197027 -0.00447419 0.00323216 0.00110004 
0.00423345 0.00365417 0.00118916 -0.000962804 0.0040532 0.00173422 -0.00439245 -0.00431447 0.00115341 
-6.73158e-05 0.000218093 0.00118481 -0.0028005 0.00173096 0.000983393 -0.00194206 -0.000920279 0.00117806 
0.00176398 0.000540026 0.000940284 0.000605086 -0.00376811 0.00152282 -0.00184548 -0.00219817 0.00350789 
0.00423459 -0.00297601 0.00339386 0.00176649 0.00440925 0.00368947 -0.00392389 -0.0025619 0.00460958 
-0.00278063 0.00383223 0.00463159 -0.00437972 0.00414117 0.0204017 0.000732973 0.00379037 0.0203259 
0.00244802 0.00278463 0.0204359 -0.00340423 0.00382202 0.0203989 0.00368687 0.00232263 0.020294 
-0.00140783 0.00230095 0.0202638 -0.00249923 0.00272255 0.0203781 -0.00352424 0.00283272 0.0202677 
0.00391979 0.00111667 0.020375 0.00188217 0.00131883 0.0203858 -0.0013863 0.00305908 0.00527279 
0.00239064 0.00134563 0.00574218 0.00400029 -3.75416e-05 0.0099732 8.67761e-05 0.00352731 0.00936526 
-0.00361996 0.00440119 0.010097 -0.00129794 8.68185e-05 0.0150186 -0.00350051 -0.00409439 0.0169286 
0.00307243 -0.00323905 0.0162349 -0.00289544 -0.0023265 0.0166806 -0.00325927 0.00105391 0.0176236 
0.00156834 0.00220775 0.0173526 -0.00233374 -0.00441798 0.020021 0.00291181 -0.00428023 0.0202374 
-0.0022072 -0.00338691 0.019837 0.00425931 -0.00364652 0.0202331 0.00202142 -0.00240022 0.0200414 
0.00431104 -0.00210559 0.0202121 -0.00438409 -0.00117765 0.0198421 -0.000223476 -0.00189227 0.0198624 
0.00270757 -0.00163567 0.0194357 -0.00384867 -0.000279851 0.019624 -0.00234926 -0.000396938 0.0201904 
-4.28328e-06 -0.000774929 0.0200911 0.00100561 -0.000850428 0.0196021 -0.00444297 0.00186753 0.0200191 
-0.000213727 0.00249555 0.0201397 -0.00115179 0.0037821 0.0202311 -0.00215007 0.00418496 0.020198 
0.00244485 0.00409818 0.0202202 0.00398769 0.00402511 0.0199472 -0.000902814 -0.00432686 0.0202866 
0.00046025 -0.00414651 0.0204117 -0.0032911 -0.00303397 0.0203437 -0.00122544 -0.0033464 0.0204919 
0.00177123 -0.00390488 0.0202719 -0.00434298 -0.0025901 0.0203866 0.000104647 -0.0027585 0.0203504 
0.000920337 -0.00200346 0.0203589 0.0029285 -0.00253701 0.0204792 -0.00338313 -0.0013672 0.0204511 
-0.00107349 -0.00095069 0.0204685 0.00169999 -5.13624e-05 0.0203598 0.00387494 -0.000472461 0.0204505 
-0.00445589 0.000828845 0.020374 -0.00197167 0.000965977 0.0203081 -0.000806322 0.000787906 0.0202471 
0.000801974 0.000612554 0.0204709 0.00280853 0.000836376 0.0203156 0.000623638 0.00181931 0.0203915 

VERTICES 114 228
1 0 
1 1 
1 2 
1 3 
1 4 
1 5 
1 6 
1 7 
1 8 
1 9 
1 10 
1 11 
1 12 
1 13 
1 14 
1 15 
1 16 
1 17 
1 18 
1 19 
1 20 
1 21 
1 22 
1 23 
1 24 
1 25 
1 26 
1 27 
1 28 
1 29 
1 30 
1 31 
1 32 
1 33 
1 34 
1 35 
1 36 
1 37 
1 38 
1 39 
1 40 
1 41 
1 42 
1 43 
1 44 
1 45 
1 46 
1 47 
1 48 
1 49 
1 50 
1 51 
1 52 
1 53 
1 54 
1 55 
1 56 
1 57 
1 58 
1 59 
1 60 
1 61 
1 62 
1 63 
1 64 
1 65 
1 66 
1 67 
1 68 
1 69 
1 70 
1 71 
1 72 
1 73 
1 74 
1 75 
1 76 
1 77 
1 78 
1 79 
1 80 
1 81 
1 82 
1 83 
1 84 
1 85 
1 86 
1 87 
1 88 
1 89 
1 90 
1 91 
1 92 
1 93 
1 94 
1 95 
1 96 
1 97 
1 98 
1 99 
1 100 
1 101 
1 102 
1 103 
1 104 
1 105 
1 106 
1 107 
1 108 
1 109 
1 110 
1 111 
1 112 
1 113 

POINT_DATA 114
FIELD FieldData 7
id 1 114 int
20 17 50 31 36 7 28 51 29 
14 18 54 15 4 43 42 55 46 
25 47 52 8 13 6 34 44 57 
39 11 56 22 1 26 37 33 21 
41 5 12 27 2 9 38 32 48 
16 3 19 35 23 45 24 30 49 
10 106 70 83 94 81 93 76 99 
77 114 40 53 113 67 72 110 73 
63 60 92 79 95 100 89 91 66 
108 87 59 84 78 62 105 65 88 
58 75 111 80 85 74 104 107 69 
82 102 97 103 109 98 64 96 86 
101 61 90 71 68 112 
type 1 114 int
1 1 1 1 1 1 1 1 1 
1 1 1 1 1 1 1 1 1 
1 1 1 1 1 1 1 1 1 
1 1 1 1 1 1 1 1 1 
1 1 1 1 1 1 1 1 1 
1 1 1 1 1 1 1 1 1 
1 1 1 1 1 1 1 1 1 
1 1 1 1 1 1 1 1 1 
1 1 1 1 1 1 1 1 1 
1 1 1 1 1 1 1 1 1 
1 1 1 1 1 1 1 1 1 
1 1 1 1 1 1 1 1 1 
1 1 1 1 1 1 
i 3 114 int
1 -1 0 0 -1 0 0 0 0 
0 -1 0 0 1 0 0 0 0 
0 0 0 0 0 0 0 0 0 
0 0 0 0 0 0 0 0 0 
0 0 0 0 0 0 0 0 0 
0 0 0 0 0 0 0 0 0 
0 0 0 0 0 0 0 0 0 
0 0 0 0 0 0 0 0 0 
0 0 0 0 0 0 0 0 0 
0 0 0 0 0 0 0 0 0 
0 0 0 0 0 0 0 0 0 
0 0 0 0 0 0 0 0 0 
0 0 0 0 0 0 0 0 0 
0 0 0 0 0 0 0 0 0 
0 0 0 0 0 0 0 0 0 
0 0 0 0 0 0 0 0 0 
0 0 0 0 0 0 0 0 0 
0 0 0 0 0 0 0 0 0 
0 0 0 0 0 0 0 0 0 
0 0 0 0 0 0 0 0 0 
0 0 0 0 0 0 0 0 0 
0 0 0 0 0 0 0 0 0 
0 0 0 0 0 0 0 0 0 
0 0 0 0 0 0 0 0 0 
0 0 0 0 0 0 0 0 0 
0 0 0 0 0 0 0 0 0 
0 0 0 0 0 0 0 0 0 
0 0 0 0 0 0 0 0 0 
0 0 0 0 0 0 0 0 0 
0 0 0 0 0 0 0 0 0 
0 0 0 0 0 0 0 0 0 
0 0 0 0 0 0 0 0 0 
0 0 0 0 0 0 0 0 0 
0 0 0 0 0 0 0 0 0 
0 0 0 0 0 0 0 0 0 
0 0 0 0 0 0 0 0 0 
0 0 0 0 0 0 0 0 0 
0 0 0 0 0 0 0 0 0 

v 3 114 double
0.0718691 -0.0658605 2.2691e-05 0.0874667 -0.06178 -2.3343e-05 0 0 4.42358e-15 
-0.0403414 -0.019745 0.0636005 0.0432446 0.0878597 -0.0477091 0 0 0.00518859 
0.000284424 0.000725783 1.01641e-05 0.00230745 0.00444011 -0.000962012 0.0100457 0.0886536 2.56073e-08 
0.0326873 0.000242651 0.00014003 -0.0375299 -0.0241187 5.04749e-05 0 0 0.00024225 
0 0 -0.0488528 0 0 -0.0314482 0.0100291 0.00273796 1.76211e-15 
-0.0150924 0.0142557 0.0438089 0.031367 -0.0303823 0.0416834 -0.00178069 0.000927284 -5.47342e-14 
0 0 0.0721502 0 0 4.42385e-15 -0.0540751 0.0160237 0.0852674 
0.0156669 0.00965835 0.0341813 0.000846695 0.0131479 -0.00228912 0 0 -1.45997e-08 
-0.00240482 0.00242465 -2.69315e-08 0 0 0.0639931 0.00122117 -0.014268 1.11048e-06 
-0.0351378 -0.0294643 0.0147864 0 0 0.0110417 -0.0132198 0.000464709 -0.0443911 
0.00580982 -0.0567386 0.0421958 0 0 0.0275804 0.0118206 -0.0506417 0.00733137 
0 0 0.00944935 0 0 -0.17155 0 0 0.0367754 
0 0 0.0660454 0 0 0.00136514 0 0 -0.0882279 
0 0 -0.0734383 0 0 -0.0609735 0 0 -0.144176 
0 0 -0.138043 0 0 -0.0913808 0 0 0.140558 
-0.0183181 -0.0831117 0.0924015 0.183786 -0.147884 0.0370071 0 0 -0.607772 
0 0 -0.611598 0 0 -0.602181 0 0 -0.568925 
0 0 -0.570887 0 0 -0.565786 0 0 -0.549599 
0 0 -0.549207 -0 -0 -0.01 -0 -0 -0.01 
-0 -0 -0.01 -0 -0 -0.01 -0 -0 -0.01 
-0 -0 -0.01 -0 -0 -0.01 -0 -0 -0.01 
-0 -0 -0.01 -0 -0 -0.01 0 0 -0.537631 
0 0 -0.528998 0 0 -0.443651 0 0 -0.456895 
0 0 -0.440904 0 0 -0.312786 0 0 -0.245685 
0 0 -0.271976 0 0 -0.255397 0 0 -0.216157 
0 0 -0.228125 -0 -0 -0.01 -0 -0 -0.01 
0 0 -0.0574314 -0 -0 -0.01 -0 -0 -0.01 
-0 -0 -0.01 0 0 -0.0565485 0 0 -0.0529188 
0 0 -0.105697 0 0 -0.0864689 -0 -0 -0.01 
-0 -0 -0.01 0 0 -0.0889214 -0 -0 -0.01 
-0 -0 -0.01 -0 -0 -0.01 -0 -0 -0.01 
-0 -0 -0.01 0 0 -0.0336911 -0 -0 -0.01 
-0 -0 -0.01 -0 -0 -0.01 -0 -0 -0.01 
-0 -0 -0.01 -0 -0 -0.01 -0 -0 -0.01 
-0 -0 -0.01 -0 -0 -0.01 -0 -0 -0.01 
-0 -0 -0.01 -0 -0 -0.01 -0 -0 -0.01 
-0 -0 -0.01 -0 -0 -0.01 -0 -0 -0.01 
-0 -0 -0.01 -0 -0 -0.01 -0 -0 -0.01 

f 3 114 double
3.87901e-10 1.11455e-09 -3.26362e-07 -1.11678e-09 7.8881e-10 -1.01587e-07 0 0 0 
0 0 -1.28413e-05 0 0 -1.28413e-05 0 0 -6.20464e-06 
1.26509e-11 -1.59513e-12 -3.85962e-07 0 0 -1.28413e-05 1.3726e-13 1.21132e-12 -2.70131e-10 
-8.1961e-07 4.98058e-06 5.78309e-06 0 0 -1.28413e-05 0 0 -1.28413e-05 
0 0 -1.28413e-05 0 0 -1.28413e-05 -7.21683e-20 -1.61736e-20 9.43053e-17 
0 0 -1.28413e-05 0 0 -1.28413e-05 4.37039e-20 -2.69544e-20 3.55567e-17 
0 0 -1.28413e-05 0 0 0 0 0 -1.28413e-05 
2.09065e-05 2.38755e-05 -6.14738e-05 0 0 -1.28413e-05 0 0 2.63832e-10 
2.55406e-14 -2.58083e-14 3.86737e-09 0 0 -1.28413e-05 -1.82434e-09 -8.9443e-09 1.9982e-07 
0 0 -1.28413e-05 0 0 -1.28413e-05 0 0 -1.28413e-05 
-9.90836e-06 -2.75421e-06 -9.55251e-06 0 0 -1.28413e-05 0 0 -1.28413e-05 
0 0 -1.28413e-05 0 0 -1.28413e-05 0 0 -1.28413e-05 
0 0 0.000420728 0 0 -1.28413e-05 0 0 -1.28413e-05 
0 0 -1.28413e-05 0 0 -1.28413e-05 0 0 -1.28413e-05 
0 0 -1.28413e-05 0 0 -1.28413e-05 0 0 -1.28413e-05 
0 0 -1.28413e-05 5.03575e-05 7.02276e-05 -2.97763e-05 0 0 -1.28413e-05 
0 0 -1.28413e-05 0 0 -1.28413e-05 0 0 -1.28413e-05 
0 0 -1.28413e-05 0 0 -1.28413e-05 0 0 -1.28413e-05 
0 0 -1.28413e-05 0 0 0 0 0 0 
0 0 0 0 0 0 0 0 0 
0 0 0 0 0 0 0 0 0 
0 0 0 0 0 0 0 0 -1.28413e-05 
0 0 -1.28413e-05 0 0 -1.28413e-05 0 0 -1.28413e-05 
0 0 -1.28413e-05 0 0 -1.28413e-05 0 0 -1.28413e-05 
0 0 -1.28413e-05 0 0 -1.28413e-05 0 0 -1.28413e-05 
0 0 -1.28413e-05 0 0 0 0 0 0 
0 0 -1.28413e-05 0 0 0 0 0 0 
0 0 0 0 0 -1.28413e-05 0 0 -1.28413e-05 
0 0 -1.28413e-05 0 0 -1.28413e-05 0 0 0 
0 0 0 0 0 -1.28413e-05 0 0 0 
0 0 0 0 0 0 0 0 0 
0 0 0 0 0 -1.28413e-05 0 0 0 
0 0 0 0 0 0 0 0 0 
0 0 0 0 0 0 0 0 0 
0 0 0 0 0 0 0 0 0 
0 0 0 0 0 0 0 0 0 
0 0 0 0 0 0 0 0 0 
0 0 0 0 0 0 0 0 0 

radius 1 114 double
0.0005 0.0005 0.0005 0.0005 0.0005 0.0005 0.0005 0.0005 0.0005 
0.0005 0.0005 0.0005 0.0005 0.0005 0.0005 0.0005 0.0005 0.0005 
0.0005 0.0005 0.0005 0.0005 0.0005 0.0005 0.0005 0.0005 0.0005 
0.0005 0.0005 0.0005 0.0005 0.0005 0.0005 0.0005 0.0005 0.0005 
0.0005 0.0005 0.0005 0.0005 0.0005 0.0005 0.0005 0.0005 0.0005 
0.0005 0.0005 0.0005 0.0005 0.0005 0.0005 0.0005 0.0005 0.0005 
0.0005 0.0005 0.0005 0.0005 0.0005 0.0005 0.0005 0.0005 0.0005 
0.0005 0.0005 0.0005 0.0005 0.0005 0.0005 0.0005 0.0005 0.0005 
0.0005 0.0005 0.0005 0.0005 0.0005 0.0005 0.0005 0.0005 0.0005 
0.0005 0.0005 0.0005 0.0005 0.0005 0.0005 0.0005 0.0005 0.0005 
0.0005 0.0005 0.0005 0.0005 0.0005 0.0005 0.0005 0.0005 0.0005 
0.0005 0.0005 0.0005 0.0005 0.0005 0.0005 0.0005 0.0005 0.0005 
0.0005 0.0005 0.0005 0.0005 0.0005 0.0005 
omega 3 114 double
131.76 143.781 -34.1971 123.597 174.985 33.0904 0 0 0 
54.0966 -85.4402 31.5197 -178.023 82.7175 96.298 0 0 0 
-1.45199 0.569013 16.0299 -6.04808 11.532 15.3938 -177.361 20.0975 -34.1318 
-15.7354 -8.89297 24.238 48.2277 -75.0778 33.8185 0 0 0 
0 0 0 0 0 0 -5.47757 20.0643 26.2592 
-31.7472 -33.9218 7.66528 107.431 45.8053 -64.1772 -1.85513 -3.56245 -2.16868 
0 0 0 0 0 0 -36.7648 -124.07 -7.8101e-14 
-33.2822 41.5461 26.5802 -26.3273 1.66804 11.993 0 0 0 
-4.85077 -4.81108 11.993 0 0 0 28.5484 2.44234 -64.7624 
58.4176 -69.6065 -9.61905 0 0 0 -78.2882 54.8353 23.2697 
130.228 81.4048 92.8152 0 0 0 -35.3191 34.4 26.8905 
0 0 0 0 0 0 0 0 0 
0 0 0 0 0 0 0 0 0 
0 0 0 0 0 0 0 0 0 
0 0 0 0 0 0 0 0 0 
200.908 -129.464 -65.8978 536.758 635.858 26.5802 0 0 0 
0 0 0 0 0 0 0 0 0 
0 0 0 0 0 0 0 0 0 
0 0 0 0 0 0 0 0 0 
0 0 0 0 0 0 0 0 0 
0 0 0 0 0 0 0 0 0 
0 0 0 0 0 0 0 0 0 
0 0 0 0 0 0 0 0 0 
0 0 0 0 0 0 0 0 0 
0 0 0 0 0 0 0 0 0 
0 0 0 0 0 0 0 0 0 
0 0 0 0 0 0 0 0 0 
0 0 0 0 0 0 0 0 0 
0 0 0 0 0 0 0 0 0 
0 0 0 0 0 0 0 0 0 
0 0 0 0 0 0 0 0 0 
0 0 0 0 0 0 0 0 0 
0 0 0 0 0 0 0 0 0 
0 0 0 0 0 0 0 0 0 
0 0 0 0 0 0 0 0 0 
0 0 0 0 0 0 0 0 0 
0 0 0 0 0 0 0 0 0 
0 0 0 0 0 0 0 0 0 

