# vtk DataFile Version 4.0
Generated by LIGGGHTS
ASCII
DATASET POLYDATA
POINTS 225 float
-0.00418839 -0.00449634 0.000499697 -0.00265285 -0.00421894 0.000500434 -0.00165349 -0.00418168 0.000499652 
-0.000521337 -0.00453665 0.000516252 0.000408379 -0.00417189 0.00049925 0.00133917 -0.00449944 0.000654486 
0.00248908 -0.00474488 0.000499702 0.00362454 -0.0045953 0.000509423 0.00482982 -0.00421605 0.000504887 
-0.00464959 -0.00330936 0.000504555 -0.00353149 -0.00373806 0.000499646 -0.00122108 -0.00326852 0.000509444 
-0.000214249 -0.0033797 0.000501105 0.00113798 -0.00348968 0.000499683 0.0020939 -0.00382554 0.000499688 
0.00309001 -0.00369921 0.000536289 -0.00480475 -0.00226272 0.00049961 -0.00316836 -0.00280244 0.000499579 
-0.00219197 -0.00301906 0.0004997 -0.00152825 -0.00227129 0.000499642 -0.000534652 -0.0024161 0.000500767 
0.000579461 -0.0023392 0.000499499 0.0025115 -0.00282715 0.000506905 0.00369247 -0.00280026 0.000502467 
-0.00479953 -0.00126296 0.000499597 -0.00347454 -0.00167959 0.000499713 -0.00253161 -0.0020196 0.0004997 
-0.0017283 -0.00129193 0.000499735 -0.000318215 -0.00139124 0.000499707 0.000880231 -0.00124515 0.000499933 
0.00189092 -0.00200272 0.000498979 0.00250375 -0.00121143 0.000499723 0.00319776 -0.0019318 0.000499528 
0.00423644 -0.00195979 0.000499697 -0.00392728 -0.000775593 0.000499502 -0.00292794 -0.000793224 0.000499687 
-0.00203647 -0.000341215 0.000500094 -0.0010543 -0.000529652 0.000499699 0.000211954 -6.50957e-05 0.000514762 
0.00150519 -0.000399914 0.000542115 0.0030907 -4.53005e-05 0.000499733 0.00347376 -0.00096909 0.000499594 
0.00462163 -0.00025219 0.000499698 -0.0044539 0.000211448 0.000554542 -0.00343831 9.62781e-05 0.000499605 
-0.00267229 0.00073862 0.000499715 -0.00165485 0.00057549 0.000614411 -0.000677655 0.000397012 0.000499686 
0.00110391 0.000514907 0.000502493 0.00223113 0.00047579 0.000499695 0.00310004 0.00097948 0.000499683 
0.00391296 0.000276019 0.00101123 0.00472386 0.00077681 0.000642114 -0.00477527 0.00164086 0.000512126 
-0.00367127 0.00107049 0.000513404 -0.00272406 0.00173876 0.000499547 -0.00169232 0.00156784 0.000499574 
-0.000707212 0.00139715 0.000499648 0.000180216 0.000875671 0.000978762 0.00108538 0.0015321 0.000499699 
0.00223227 0.00147685 0.000499702 0.00313981 0.00200194 0.000499561 0.00398774 0.00144021 0.000499717 
-0.00371721 0.00208253 0.000512449 -0.00277481 0.0027833 0.000499612 -0.00143843 0.00291327 0.000499549 
0.000703151 0.00281565 0.000559372 4.12148e-05 0.0020658 0.000499671 0.00185074 0.00240445 0.000503193 
0.00279584 0.00294568 0.000497536 0.00402276 0.00247575 0.000492053 -0.00498553 0.00263063 0.000497779 
-0.00403351 0.00308057 0.000505334 0.00499985 0.00374773 0.000555783 -0.00324919 0.00370614 0.0004997 
-0.00224882 0.00375077 0.000499708 -0.00126397 0.00389041 0.000616344 -0.000308755 0.00324621 0.000499699 
0.000585197 0.00383544 0.000499711 0.00150748 0.00344678 0.000501934 0.00334031 0.00381339 0.000499773 
-0.00409186 0.00426997 0.000499538 -0.0049306 0.0048137 0.000499743 -0.00334886 0.00496169 0.000649447 
-0.00208779 0.00486851 0.000502156 -0.000356837 0.0042997 0.000520568 0.000509416 0.00483299 0.000499664 
0.00145774 0.00451526 0.000499699 0.00242634 0.00423935 0.000499626 0.0041649 0.00438673 0.000499737 
-0.00187386 -0.00477999 0.0018082 0.000378555 -0.00468492 0.00151462 0.00296393 0.00478504 0.00209292 
0.00279517 -0.00431371 0.0015701 -0.00299354 -0.00327606 0.0013699 -0.000965723 -0.00353614 0.00147459 
1.83837e-05 -0.00291043 0.00136475 0.00312655 -0.00319322 0.00143969 0.0044234 -0.00338099 0.000898794 
-0.00403538 -0.00268082 0.000982236 -0.00270428 -0.0023029 0.0014916 -0.000733331 -0.00182495 0.00129997 
0.00143132 -0.00267841 0.00107453 0.00160835 -0.00219179 0.00194345 0.0039347 -0.00243217 0.0014075 
0.00493488 -0.0024941 0.00143775 -0.00421714 -0.0017165 0.00117379 -0.0024347 -0.00127725 0.0012223 
0.000609625 -0.00192721 0.00141486 0.00169852 -0.00122809 0.00110034 0.0043424 -0.00108545 0.000980311 
0.00234865 -0.000354061 0.00109562 0.00341438 -0.000883627 0.00149388 -0.00446879 0.0013282 0.00156605 
0.00328 0.00036542 0.00291105 -0.003627 0.00201023 0.0018559 0.00163843 0.000902549 0.00125547 
0.00298245 0.000799913 0.00155291 0.0038082 0.00205858 0.00137961 -0.00441442 0.00226927 0.00122904 
-0.00343895 0.00277958 0.0012519 -0.00205598 0.00233313 0.00103018 -0.00268237 0.00152352 0.00147327 
-0.00082046 0.00227701 0.00096073 0.000967416 0.0032464 0.00144068 0.00193809 0.00295981 0.0013322 
0.00289667 0.00253409 0.0013997 -0.00289372 0.00359988 0.00144201 -0.00193006 0.00331695 0.00162864 
0.00205456 0.00435976 0.00143069 0.00269333 0.00361073 0.00123656 0.0041421 0.00351523 0.00102528 
-0.00263231 0.00460198 0.0015123 -0.00122504 0.00493094 0.00103398 -0.000535467 0.00439789 0.00155491 
0.00310257 0.00471375 0.00109317 0.00502286 0.00472724 0.00157101 0.000738149 -0.00200943 0.00248264 
0.00163542 -0.00139175 0.00283396 -0.00241558 -0.000689322 0.00215979 -0.00353864 -0.000427016 0.0016673 
-0.000722877 0.000838886 0.00237446 0.000484526 0.00228682 0.0017118 0.00449915 0.00280351 0.00220244 
0.00352966 0.00390777 0.0017169 0.000615837 -0.00318616 0.00214274 0.00214869 0.00318885 0.00239891 
-0.00358718 -0.00370376 0.00400928 -0.00402473 0.00045548 0.00222903 -0.00465834 0.00369789 0.00166884 
-0.00136155 0.0043733 0.00235558 -0.00105432 -0.00254802 0.00192388 0.00445899 -0.00334607 0.0019196 
0.000552446 0.00426695 0.00147553 -0.00281757 0.00377308 0.00244759 0.000745443 -1.53824e-05 0.00138483 
0.00204128 0.0043461 0.00246131 0.00431379 0.00166508 0.00214602 -0.00397399 0.00219301 0.002832 
0.00225395 0.0013754 0.00286223 0.00408752 -0.00183608 0.00290508 -0.00179043 -0.00119346 0.00299188 
-0.00275071 -0.0041006 0.00438302 -0.00446703 -0.00297179 0.0045986 -0.00445648 -0.00113402 0.00474123 
-0.00306518 0.000916609 0.0048505 -0.00216552 0.000320514 0.00481226 -0.00159149 0.0038969 0.0204699 
0.000321323 0.00398797 0.0204683 -0.00261624 0.00386097 0.0204301 -0.00444798 0.00393249 0.0203631 
0.00344431 0.00239401 0.0203634 -0.0014815 0.00273957 0.0204996 0.000488311 0.00210047 0.0204179 
-0.000468886 0.00245636 0.0204474 0.00114957 0.00296942 0.0202593 0.00419004 0.00108634 0.0203023 
-0.00426329 0.00208649 0.020388 -0.00202188 0.00183086 0.0204601 -0.00322688 0.00184849 0.0203448 
-0.00322368 -0.00274282 0.00526744 0.00271883 0.000698936 0.020336 0.000541022 0.000363847 0.020248 
-0.00226144 0.000758896 0.0204464 0.0035594 -0.000878239 0.00587937 -0.000331266 0.00324133 0.00559368 
-0.00161351 0.00267002 0.00689742 0.00239076 -0.000351179 0.0088708 -0.00400562 0.00444449 0.0124815 
-0.000402178 0.00433779 0.012296 0.00161567 -0.00116572 0.0163456 -0.0038872 -0.00385382 0.0202188 
0.00304239 -0.00356687 0.0200718 0.00438257 -0.00397493 0.0201538 -0.0011898 -0.00289125 0.0202226 
0.00183792 -0.00235978 0.0201965 -0.00367389 -0.00150924 0.0201484 -0.00131871 -0.000274876 0.0197086 
-0.00371915 0.000248322 0.0202296 -0.000450857 0.000840542 0.019996 0.00156587 0.000332375 0.0202156 
0.00171439 0.00131108 0.0200547 -0.00243457 0.00265988 0.020067 0.00226169 0.00267147 0.0202161 
0.00438829 0.00282362 0.0196248 -0.00333509 0.00311767 0.0202267 0.00170273 0.00379095 0.0197807 
0.0038733 0.00399044 0.0200729 0.00284294 0.00412085 0.0201447 0.00222141 -0.0043475 0.0203668 
-0.00205626 -0.0037296 0.0204648 -0.000647538 -0.00370393 0.0204564 0.00108292 -0.00379961 0.0203938 
-0.00445654 -0.00243235 0.0204052 -0.00248852 -0.00270749 0.0203508 0.000256154 -0.00262701 0.0203064 
0.00391478 -0.00229897 0.0203505 -0.00103787 -0.00183758 0.0203821 0.000183898 -0.00110274 0.0202519 
0.00282288 -0.00108592 0.0204778 -0.00424417 -0.000645626 0.0204077 -0.00247334 -0.000762598 0.0203345 
-0.000349201 -0.000175187 0.0203869 0.00108036 -0.000645759 0.0204298 0.0040639 -0.000528376 0.0202978 

VERTICES 225 450
1 0 
1 1 
1 2 
1 3 
1 4 
1 5 
1 6 
1 7 
1 8 
1 9 
1 10 
1 11 
1 12 
1 13 
1 14 
1 15 
1 16 
1 17 
1 18 
1 19 
1 20 
1 21 
1 22 
1 23 
1 24 
1 25 
1 26 
1 27 
1 28 
1 29 
1 30 
1 31 
1 32 
1 33 
1 34 
1 35 
1 36 
1 37 
1 38 
1 39 
1 40 
1 41 
1 42 
1 43 
1 44 
1 45 
1 46 
1 47 
1 48 
1 49 
1 50 
1 51 
1 52 
1 53 
1 54 
1 55 
1 56 
1 57 
1 58 
1 59 
1 60 
1 61 
1 62 
1 63 
1 64 
1 65 
1 66 
1 67 
1 68 
1 69 
1 70 
1 71 
1 72 
1 73 
1 74 
1 75 
1 76 
1 77 
1 78 
1 79 
1 80 
1 81 
1 82 
1 83 
1 84 
1 85 
1 86 
1 87 
1 88 
1 89 
1 90 
1 91 
1 92 
1 93 
1 94 
1 95 
1 96 
1 97 
1 98 
1 99 
1 100 
1 101 
1 102 
1 103 
1 104 
1 105 
1 106 
1 107 
1 108 
1 109 
1 110 
1 111 
1 112 
1 113 
1 114 
1 115 
1 116 
1 117 
1 118 
1 119 
1 120 
1 121 
1 122 
1 123 
1 124 
1 125 
1 126 
1 127 
1 128 
1 129 
1 130 
1 131 
1 132 
1 133 
1 134 
1 135 
1 136 
1 137 
1 138 
1 139 
1 140 
1 141 
1 142 
1 143 
1 144 
1 145 
1 146 
1 147 
1 148 
1 149 
1 150 
1 151 
1 152 
1 153 
1 154 
1 155 
1 156 
1 157 
1 158 
1 159 
1 160 
1 161 
1 162 
1 163 
1 164 
1 165 
1 166 
1 167 
1 168 
1 169 
1 170 
1 171 
1 172 
1 173 
1 174 
1 175 
1 176 
1 177 
1 178 
1 179 
1 180 
1 181 
1 182 
1 183 
1 184 
1 185 
1 186 
1 187 
1 188 
1 189 
1 190 
1 191 
1 192 
1 193 
1 194 
1 195 
1 196 
1 197 
1 198 
1 199 
1 200 
1 201 
1 202 
1 203 
1 204 
1 205 
1 206 
1 207 
1 208 
1 209 
1 210 
1 211 
1 212 
1 213 
1 214 
1 215 
1 216 
1 217 
1 218 
1 219 
1 220 
1 221 
1 222 
1 223 
1 224 

POINT_DATA 225
FIELD FieldData 7
id 1 225 int
17 7 16 56 69 113 31 48 91 
108 72 18 107 70 28 51 36 12 
89 95 19 104 22 14 88 60 45 
78 61 1 26 103 65 29 27 15 
110 105 62 96 82 68 46 43 94 
37 90 59 55 4 114 2 77 33 
101 54 21 40 42 53 23 35 58 
92 8 20 13 25 6 5 47 52 
9 38 67 32 3 34 39 44 41 
63 49 57 74 50 11 30 85 87 
149 162 125 168 99 133 161 155 102 
80 115 157 97 86 123 98 73 64 
76 136 10 75 147 93 158 151 66 
142 140 84 109 134 126 112 141 100 
83 71 106 118 166 79 111 24 150 
81 164 148 145 165 117 120 131 135 
132 153 143 124 171 144 139 121 137 
167 138 130 116 129 119 152 160 128 
146 170 156 127 169 188 201 221 223 
178 219 200 184 189 211 208 198 175 
163 191 217 213 159 122 154 172 214 
183 210 185 179 206 194 197 193 218 
207 182 177 174 222 205 215 196 192 
180 216 203 199 190 202 220 176 195 
173 181 187 204 224 209 212 225 186 

type 1 225 int
1 1 1 1 1 1 1 1 1 
1 1 1 1 1 1 1 1 1 
1 1 1 1 1 1 1 1 1 
1 1 1 1 1 1 1 1 1 
1 1 1 1 1 1 1 1 1 
1 1 1 1 1 1 1 1 1 
1 1 1 1 1 1 1 1 1 
1 1 1 1 1 1 1 1 1 
1 1 1 1 1 1 1 1 1 
1 1 1 1 1 1 1 1 1 
1 1 1 1 1 1 1 1 1 
1 1 1 1 1 1 1 1 1 
1 1 1 1 1 1 1 1 1 
1 1 1 1 1 1 1 1 1 
1 1 1 1 1 1 1 1 1 
1 1 1 1 1 1 1 1 1 
1 1 1 1 1 1 1 1 1 
1 1 1 1 1 1 1 1 1 
1 1 1 1 1 1 1 1 1 
1 1 1 1 1 1 1 1 1 
1 1 1 1 1 1 1 1 1 
1 1 1 1 1 1 1 1 1 
1 1 1 1 1 1 1 1 1 
1 1 1 1 1 1 1 1 1 
1 1 1 1 1 1 1 1 1 

i 3 225 int
0 0 0 0 0 0 0 0 0 
0 0 0 0 0 0 0 0 0 
0 0 0 -1 0 0 0 0 0 
1 0 0 0 1 0 0 0 0 
0 0 0 0 1 0 0 0 0 
0 0 0 1 1 0 0 0 0 
0 0 0 0 0 0 0 0 0 
0 0 0 0 0 0 0 0 0 
0 0 0 0 0 0 0 0 0 
0 0 0 0 0 0 0 0 0 
0 0 0 0 0 0 0 0 0 
0 0 0 0 0 0 0 0 0 
0 0 0 0 0 0 0 0 0 
0 0 0 0 0 0 0 0 0 
0 0 0 1 0 0 0 0 0 
0 0 0 0 0 0 0 0 0 
0 0 0 0 0 0 0 0 0 
0 0 0 0 0 0 0 0 0 
0 0 0 0 0 0 0 0 0 
0 0 0 0 0 0 0 0 0 
0 0 0 0 0 0 0 0 0 
0 0 0 0 0 0 1 -1 0 
0 0 0 0 0 0 0 0 0 
0 0 0 0 0 0 0 0 0 
0 0 0 0 0 0 1 0 0 
0 0 0 0 -1 0 0 0 0 
0 0 0 0 0 0 0 0 0 
1 -1 0 0 -1 0 0 0 0 
0 -1 0 0 -1 0 0 -1 0 
0 0 0 0 0 0 -1 -1 0 
0 0 0 0 0 0 0 -1 0 
-1 0 0 0 1 0 0 0 0 
0 0 0 0 0 0 -1 0 0 
1 1 0 0 0 0 0 0 0 
0 0 0 0 0 0 0 0 0 
-1 0 0 0 -1 0 0 0 0 
0 1 0 0 0 0 0 0 0 
0 0 0 0 0 0 0 0 0 
0 0 0 0 0 0 0 -1 0 
0 0 0 -1 0 0 1 -1 0 
1 -1 0 0 0 0 0 0 0 
0 0 0 0 0 0 0 -1 0 
0 0 0 0 0 0 -1 0 0 
0 0 0 0 0 0 0 0 0 
0 0 0 0 -1 0 0 0 0 
0 0 0 0 -1 0 0 0 0 
0 0 0 0 0 0 0 0 0 
0 0 0 0 0 0 0 0 0 
0 0 0 0 0 0 0 0 0 
0 0 0 0 0 0 0 0 0 
0 0 0 0 0 0 0 0 0 
0 0 0 0 0 0 0 0 0 
0 0 0 0 0 0 0 0 0 
0 0 0 0 0 0 0 0 0 
0 0 0 0 0 0 0 0 0 
0 0 0 0 0 0 0 0 0 
0 0 0 0 0 0 0 0 0 
0 0 0 0 0 0 0 0 0 
0 0 0 0 0 0 0 0 0 
0 0 0 0 0 0 0 0 0 
0 0 0 0 0 0 0 0 0 
0 0 0 0 0 0 0 0 0 
0 0 0 0 0 0 0 0 0 
0 0 0 0 0 0 0 0 0 
0 0 0 0 0 0 0 0 0 
0 0 0 0 0 0 0 0 0 
0 0 0 0 0 0 0 0 0 
0 0 0 0 0 0 0 0 0 
0 0 0 0 0 0 0 0 0 
0 0 0 0 0 0 0 0 0 
0 0 0 0 0 0 0 0 0 
0 0 0 0 0 0 0 0 0 
0 0 0 0 0 0 0 0 0 
0 0 0 0 0 0 0 0 0 
0 0 0 0 0 0 0 0 0 

v 3 225 double
-0.0213077 0.0263548 -2.38741e-05 -0.0117785 0.00517225 -0.00491563 -0.00969498 -0.00861153 0.00187396 
0.000694526 -0.0129379 -0.0368944 0.00282506 -0.00348207 -0.00159804 0.0059299 0.00191184 -0.0166859 
-0.00305124 -0.00306089 -1.33365e-05 -0.0392268 -0.00633623 -0.0296988 -0.00529443 -0.0111023 0.00235691 
0.0122164 -0.00034057 0.000455208 -0.00505573 0.0163436 5.00405e-05 -0.00220743 -0.0123125 -0.00298085 
0.00502693 0.015606 -0.0050497 -0.0127934 0.0180866 -0.000473018 -0.0233891 -0.0103783 0.000122966 
-0.027585 -0.0103043 0.000581646 0.00112455 0.002842 0.000462845 0.00201025 0.00470082 -0.00156717 
0.0024467 -0.00433345 0.000338188 0.00230244 -0.003331 -0.000756955 -0.00840922 0.0145209 -0.00516637 
0.0136953 0.0323168 0.0113308 -0.0117949 0.00128332 -0.00531182 -0.00692744 0.00362827 0.00187491 
-0.000542895 0.00116864 -0.000348597 -0.000423608 0.00447224 0.000128717 -0.00491137 -0.0125357 -5.23442e-06 
0.00414118 -0.00236103 -1.39697e-05 -0.0125823 0.0169036 -0.000588801 0.00376327 0.0102122 0.000207823 
0.0170216 -0.0126507 0.00453496 -0.00420744 0.00666547 -0.000495283 -0.0116121 0.00254999 0.00157433 
-0.00015864 0.00383948 6.62945e-05 0.00118025 -8.74513e-05 0.000264753 0.00103121 -0.0027494 -0.000408099 
0.000871075 -0.00307186 -0.00224053 -0.00198537 -0.00298123 2.6896e-08 -0.00434882 -0.00845391 0.035123 
0.00503466 -0.00158972 0.0378341 0.0171778 0.0103247 -5.30554e-05 -0.00193668 0.00139924 -0.000113214 
-0.00379753 0.00500859 -1.20382e-05 0.0132985 0.00827426 -0.00820154 -0.00127259 0.00192982 0.000331463 
-0.00260725 0.00386984 -9.3929e-05 0.00343533 -0.00380501 -0.00672587 0.00417941 -0.00663794 5.62217e-05 
0.00283323 0.00065884 0.00542022 0.0100973 -0.000523422 0.000261846 -0.00486207 -0.00133456 9.79729e-05 
-0.00726954 -0.0205012 0.00693192 -0.00702667 -0.012766 -0.0051128 -0.0182164 -0.00523755 -0.0191193 
-0.00497236 -0.0122043 -0.0234359 -0.0146508 0.00596601 -0.00759775 -0.000257655 -0.00327019 0.000200588 
-0.00011271 -0.00821079 0.00078701 0.0010381 -0.00295196 0.0227762 -0.000758247 0.00325746 4.62483e-11 
-0.00353253 -0.00372212 -2.73053e-05 -0.00304168 0.00376477 0.00107728 -0.00239583 -0.00234669 -0.000385553 
-0.021858 -0.00656662 0.0176198 0.0145633 0.0103373 0.000133919 0.00666554 -0.00515884 -0.000781731 
0.00547889 -0.00635295 0.0135134 0.00413402 -0.00410286 0.000156231 -0.0015418 -0.000848565 -0.00760958 
-0.0397008 0.0274659 -0.0130139 -0.0406934 0.0349065 0.00140916 -0.0149801 0.00865479 -0.0237447 
0.0173133 -0.0224325 -0.0141033 0.0535589 0.0250149 -0.0136015 -0.0055751 0.00147445 0.000412948 
-0.00339194 -0.00237808 -0.000635259 -0.00509987 -0.00201512 -0.00112111 -0.00684176 -0.0015969 2.29397e-08 
-0.0112668 -0.00334832 -0.000302939 -0.00776631 0.000605005 -0.00219432 -0.00602136 0.00121628 0.000166921 
0.00488239 -0.0011342 0.000237143 -0.00277087 -0.00920007 -0.00126104 -0.0272245 0.0306175 0.030952 
-0.0274472 0.0208395 -0.00537459 -0.0128774 0.0254766 0.00426872 0.0025656 -0.00119788 0.000253648 
-0.0111224 -0.00263109 7.00447e-07 -0.00527492 0.00428306 0.000138874 -0.000809755 -0.00748173 -4.24897e-05 
0.0146145 0.0429181 0.0454364 0.079583 -0.0246711 -0.0154429 0.102189 0.0472046 -0.0551414 
-0.0691315 0.0113862 -0.00155345 -0.0320505 -0.00107665 0.00158074 -0.0240808 -0.0615124 0.0122332 
-0.0208671 -0.0129345 0.0285943 -0.0497278 0.0560831 -0.0122191 0.00350638 -0.00158181 0.00806421 
0.00448758 0.00853172 -0.000237287 -0.062472 0.0268967 -0.00630896 -0.0384234 0.0295141 -0.00747296 
0.033005 -0.0186737 0.0105443 0.0254241 -0.013968 0.0140673 -0.00140384 0.0434498 -0.00578789 
-0.000797951 0.0283277 0.00296225 0.00108402 0.00736986 0.00371431 0.000874389 0.0012156 -0.000568995 
-0.0148449 0.031058 -0.0242783 0.00403062 -0.0291586 0.0313694 -0.00134175 0.000580883 0.000544601 
0.0366216 -0.00663248 0.0167756 0.0107065 0.00880706 0.000185975 -0.0141823 0.0673587 0.0575807 
0.0766738 -0.113092 -0.0696027 0.0883816 -0.0753797 -0.121944 -0.012615 -0.00289183 0.0204714 
0.0240798 -0.0856816 0.00101256 -0.0621222 -0.0287979 -0.138241 -0.069353 0.0032918 0.0229164 
0.0528491 0.0185166 -0.089099 0.0037886 -0.00179361 0.000662293 0.00193206 -0.0868895 -0.0626736 
0.00398004 -0.00697269 0.00066788 0.0353428 0.0249867 -0.0088965 -0.00569028 -0.00844432 0.00132305 
-0.0962602 0.00598158 -0.00081025 -0.00350081 0.00348627 -0.0275148 -0.0104728 -0.0338839 0.0271932 
0.0225704 0.0231069 -0.00344448 -0.00765093 0.00344446 0.00574553 0.0184908 -0.0382489 -0.0552084 
0.0500012 0.00606866 0.0394251 -0.00935441 0.0413325 -0.0162365 -0.0474398 0.017299 0.0355463 
0.0731653 0.0275717 -0.0708034 0.109249 -0.0421697 0.0362864 -0.0288502 0.0142017 -0.0255174 
-0.0672532 0.0446278 -0.0100264 -0.0153223 -0.00478272 0.0132966 -0.0875586 -0.0528745 -0.112648 
0.0214054 0.0139354 -0.0207334 -0.0235947 0.0278582 0.00552805 0.0417865 0.00690369 -0.0466839 
0.0329614 -0.00283943 -0.0475955 0.10676 0.0718544 0.000549495 -0.0883119 0.0302367 0.0342177 
-0.0771973 0.0388192 -0.193356 0.0179563 -0.0265418 0.0100831 -0.0371419 0.108858 0.134092 
0.0201335 0.0930113 -0.00869574 -0.181086 0.0280255 -0.0524378 0.161876 -0.00856199 0.0388229 
0.0507657 0.12179 -0.149939 0.0208894 -0.160895 0.034803 -0.147314 0.101862 0.191758 
-0.0993449 -0.0583543 -0.301248 0.0781849 -0.0809279 -0.319914 -0.0432498 0.0483837 -0.205254 
-0.151682 0.129314 -0.381724 0 0 -0.579225 0 0 -0.577754 
0.0831294 -0.0422964 -0.445193 0 0 -0.549795 0 0 -0.547245 
0 0 -0.545283 0 0 -0.545969 -0 -0 -0.01 
-0 -0 -0.01 -0 -0 -0.01 -0 -0 -0.01 
-0 -0 -0.01 -0 -0 -0.01 -0 -0 -0.01 
-0 -0 -0.01 -0 -0 -0.01 -0 -0 -0.01 
-0 -0 -0.01 -0 -0 -0.01 -0 -0 -0.01 
0 0 -0.537729 -0 -0 -0.01 -0 -0 -0.01 
-0 -0 -0.01 0 0 -0.526447 0 0 -0.531745 
0 0 -0.507122 0 0 -0.467391 0 0 -0.384202 
0 0 -0.388911 0 0 -0.267954 -0 -0 -0.01 
-0 -0 -0.01 -0 -0 -0.01 -0 -0 -0.01 
-0 -0 -0.01 -0 -0 -0.01 0 0 -0.0762665 
-0 -0 -0.01 0 0 -0.0133845 -0 -0 -0.01 
-0 -0 -0.01 -0 -0 -0.01 -0 -0 -0.01 
0 0 -0.0863708 -0 -0 -0.01 0 0 -0.0663585 
-0 -0 -0.01 -0 -0 -0.01 -0 -0 -0.01 
-0 -0 -0.01 -0 -0 -0.01 -0 -0 -0.01 
-0 -0 -0.01 -0 -0 -0.01 -0 -0 -0.01 
-0 -0 -0.01 -0 -0 -0.01 -0 -0 -0.01 
-0 -0 -0.01 -0 -0 -0.01 -0 -0 -0.01 
-0 -0 -0.01 -0 -0 -0.01 -0 -0 -0.01 

f 3 225 double
-5.0911e-07 5.58942e-07 2.4674e-07 0 0 -1.28413e-05 4.94489e-07 2.00733e-06 -8.70659e-06 
-4.26486e-05 -1.12981e-05 -1.82553e-05 -1.59998e-05 -2.51355e-05 1.28528e-05 6.8625e-05 -6.38262e-06 3.03595e-05 
2.68667e-09 1.59561e-08 -1.10707e-07 0 0 -1.28413e-05 -1.30201e-05 2.86939e-05 1.73617e-06 
0 0 -1.28413e-05 -1.4841e-06 8.2099e-07 3.28607e-06 0 0 -1.28413e-05 
0 0 -1.28413e-05 3.27921e-05 2.8592e-05 3.24626e-06 6.27923e-06 1.17352e-06 -6.53636e-08 
0 0 -1.28413e-05 -3.59559e-06 -1.10025e-05 8.70167e-06 -9.59916e-06 3.20517e-06 6.53488e-06 
8.87701e-07 -1.51245e-06 -2.59315e-06 -7.5531e-07 -6.92821e-07 2.36141e-06 0 0 -1.28413e-05 
8.26353e-08 1.8676e-07 -6.38455e-05 0 0 -1.28413e-05 7.18938e-06 -1.36943e-05 -5.07382e-06 
-1.17694e-05 -5.46117e-06 1.12741e-06 -1.04371e-10 3.02701e-10 -1.71115e-06 1.48397e-11 3.60863e-11 -4.61184e-08 
6.95376e-06 -3.76242e-06 2.42603e-06 1.11973e-09 -1.05342e-08 3.06882e-06 9.22699e-10 2.17431e-09 -1.25404e-05 
-1.62507e-07 -3.19901e-06 9.19732e-06 5.82522e-06 -2.10866e-06 8.4955e-07 -5.5046e-06 6.65666e-06 -6.13568e-06 
5.04556e-09 7.53672e-09 -3.17134e-07 -3.29569e-06 -4.24842e-06 6.58127e-06 -7.7289e-07 5.04801e-07 -5.41954e-06 
5.98059e-06 2.77078e-06 -9.43925e-06 -2.44906e-14 -3.67752e-14 -2.21325e-09 0 0 -1.28413e-05 
-3.4539e-06 6.54528e-06 -1.68665e-05 2.61569e-06 -4.81128e-06 -1.88858e-06 -1.79206e-06 -6.02118e-07 -2.44406e-06 
2.58427e-11 -2.94139e-11 1.00389e-07 0 0 -1.28413e-05 -8.03961e-07 -5.00975e-07 2.21962e-06 
3.60523e-06 3.23237e-06 -1.65722e-06 2.83203e-07 8.16396e-06 -7.65619e-06 -2.84083e-07 1.50221e-07 2.5778e-07 
3.4539e-06 -6.54528e-06 -8.81599e-06 1.32445e-09 2.55008e-10 -1.36068e-06 -3.76381e-07 -1.53206e-07 4.05828e-07 
0 0 -1.28413e-05 0 0 -1.28413e-05 0 0 -1.28413e-05 
0 0 -1.28413e-05 -0.00025512 0.000110779 -0.000265378 2.109e-06 4.70143e-06 -2.73523e-06 
1.21091e-06 -2.98406e-06 -2.76744e-06 0 0 -1.28413e-05 -1.85387e-17 7.96396e-17 -7.05997e-13 
4.66182e-11 -1.1105e-12 -6.69381e-08 4.62947e-07 6.51594e-08 2.71368e-06 5.64114e-06 -4.14896e-06 1.16394e-06 
0 0 -1.28413e-05 -5.51119e-08 9.31084e-09 5.22075e-06 -3.53805e-06 7.6997e-06 2.39672e-06 
0 0 -1.28413e-05 4.63918e-06 5.65452e-07 1.74669e-07 0 0 -1.28413e-05 
-2.9289e-05 -3.6184e-05 0.000171459 0.000134034 0.000141511 0.00180053 -1.34859e-05 1.87997e-05 7.96585e-05 
0 0 -1.28413e-05 0 0 -1.28413e-05 -1.36296e-06 -2.38463e-07 -2.58372e-06 
1.02964e-07 -4.55035e-07 3.27598e-06 1.13455e-05 1.89521e-05 -1.55294e-06 -8.7284e-14 -2.03724e-14 2.52278e-10 
4.56823e-08 2.75301e-08 1.00506e-06 0 0 -1.28413e-05 -1.95704e-07 7.41619e-08 -5.47592e-06 
-4.24779e-06 3.92373e-07 7.00993e-06 6.35456e-06 -1.41392e-05 -7.06409e-06 0 0 -1.28413e-05 
0 0 -1.28413e-05 -6.89648e-06 -1.65416e-06 -1.25422e-05 7.44633e-08 -2.02911e-08 7.07921e-07 
-4.00712e-12 -9.4778e-13 -2.03616e-08 3.41684e-08 5.62201e-07 4.16326e-06 1.68303e-10 3.45518e-11 -2.16177e-06 
0 0 -1.28413e-05 0 0 -1.28413e-05 0 0 -1.28413e-05 
0 0 -1.28413e-05 0 0 -1.28413e-05 0 0 -1.28413e-05 
0 0 -1.28413e-05 0 0 -1.28413e-05 0 0 -1.28413e-05 
7.79322e-07 -3.17972e-06 2.04496e-07 0 0 -1.28413e-05 0 0 -1.28413e-05 
-5.57738e-06 -5.96841e-06 5.50055e-06 0 0 -1.28413e-05 0 0 -1.28413e-05 
0 0 -1.28413e-05 -8.35117e-07 -5.80411e-07 -8.87778e-06 4.77191e-06 -4.76398e-07 -4.36881e-06 
0 0 -1.28413e-05 -7.89583e-07 1.51117e-06 -9.61007e-06 -8.35516e-06 -2.20207e-06 -3.86761e-06 
0 0 -1.28413e-05 -3.92241e-06 2.05553e-06 -5.68047e-06 0 0 -1.28413e-05 
0 0 -1.28413e-05 1.71058e-06 -0.000163048 -6.00677e-06 0 0 -1.28413e-05 
0 0 -1.28413e-05 8.1122e-05 0.000426737 -0.000246713 0.000198521 -0.000139028 0.000388494 
-1.71058e-06 0.000163048 -1.96757e-05 -6.87934e-06 3.02386e-06 -4.93451e-06 0.000197836 -0.000107835 0.000306906 
7.67367e-07 -4.81491e-06 -1.0849e-05 0 0 -1.28413e-05 0 0 -1.28413e-05 
8.59774e-06 -4.8372e-05 0.000222537 0 0 -1.28413e-05 0 0 -1.28413e-05 
0 0 -1.28413e-05 -1.68446e-05 3.92822e-05 5.95118e-06 0 0 -1.28413e-05 
0 0 -1.28413e-05 0 0 -1.28413e-05 0 0 -1.28413e-05 
0 0 -1.28413e-05 0 0 -1.28413e-05 0 0 -1.28413e-05 
0 0 -1.28413e-05 0 0 -1.28413e-05 0 0 -1.28413e-05 
0 0 -1.28413e-05 0 0 -1.28413e-05 0 0 -1.28413e-05 
0 0 -1.28413e-05 0 0 -1.28413e-05 0 0 -1.28413e-05 
0.000219415 -0.000106627 0.000161814 0 0 -1.28413e-05 0 0 -1.28413e-05 
0 0 -1.28413e-05 0 0 -1.28413e-05 0 0 -1.28413e-05 
0 0 -1.28413e-05 0 0 -1.28413e-05 0 0 -1.28413e-05 
0 0 -1.28413e-05 -8.1122e-05 -0.000426737 0.000221031 0 0 -1.28413e-05 
0 0 -1.28413e-05 0 0 -1.28413e-05 0 0 -1.28413e-05 
-0.000219415 0.000106627 -0.000187496 0 0 -1.28413e-05 0 0 -1.28413e-05 
0 0 -1.28413e-05 0 0 -1.28413e-05 0 0 0 
0 0 0 0 0 0 0 0 0 
0 0 0 0 0 0 0 0 0 
0 0 0 0 0 0 0 0 0 
0 0 0 0 0 0 0 0 0 
0 0 -1.28413e-05 0 0 0 0 0 0 
0 0 0 0 0 -1.28413e-05 0 0 -1.28413e-05 
0 0 -1.28413e-05 0 0 -1.28413e-05 0 0 -1.28413e-05 
0 0 -1.28413e-05 0 0 -1.28413e-05 0 0 0 
0 0 0 0 0 0 0 0 0 
0 0 0 0 0 0 0 0 -1.28413e-05 
0 0 0 0 0 -1.28413e-05 0 0 0 
0 0 0 0 0 0 0 0 0 
0 0 -1.28413e-05 0 0 0 0 0 -1.28413e-05 
0 0 0 0 0 0 0 0 0 
0 0 0 0 0 0 0 0 0 
0 0 0 0 0 0 0 0 0 
0 0 0 0 0 0 0 0 0 
0 0 0 0 0 0 0 0 0 
0 0 0 0 0 0 0 0 0 

radius 1 225 double
0.0005 0.0005 0.0005 0.0005 0.0005 0.0005 0.0005 0.0005 0.0005 
0.0005 0.0005 0.0005 0.0005 0.0005 0.0005 0.0005 0.0005 0.0005 
0.0005 0.0005 0.0005 0.0005 0.0005 0.0005 0.0005 0.0005 0.0005 
0.0005 0.0005 0.0005 0.0005 0.0005 0.0005 0.0005 0.0005 0.0005 
0.0005 0.0005 0.0005 0.0005 0.0005 0.0005 0.0005 0.0005 0.0005 
0.0005 0.0005 0.0005 0.0005 0.0005 0.0005 0.0005 0.0005 0.0005 
0.0005 0.0005 0.0005 0.0005 0.0005 0.0005 0.0005 0.0005 0.0005 
0.0005 0.0005 0.0005 0.0005 0.0005 0.0005 0.0005 0.0005 0.0005 
0.0005 0.0005 0.0005 0.0005 0.0005 0.0005 0.0005 0.0005 0.0005 
0.0005 0.0005 0.0005 0.0005 0.0005 0.0005 0.0005 0.0005 0.0005 
0.0005 0.0005 0.0005 0.0005 0.0005 0.0005 0.0005 0.0005 0.0005 
0.0005 0.0005 0.0005 0.0005 0.0005 0.0005 0.0005 0.0005 0.0005 
0.0005 0.0005 0.0005 0.0005 0.0005 0.0005 0.0005 0.0005 0.0005 
0.0005 0.0005 0.0005 0.0005 0.0005 0.0005 0.0005 0.0005 0.0005 
0.0005 0.0005 0.0005 0.0005 0.0005 0.0005 0.0005 0.0005 0.0005 
0.0005 0.0005 0.0005 0.0005 0.0005 0.0005 0.0005 0.0005 0.0005 
0.0005 0.0005 0.0005 0.0005 0.0005 0.0005 0.0005 0.0005 0.0005 
0.0005 0.0005 0.0005 0.0005 0.0005 0.0005 0.0005 0.0005 0.0005 
0.0005 0.0005 0.0005 0.0005 0.0005 0.0005 0.0005 0.0005 0.0005 
0.0005 0.0005 0.0005 0.0005 0.0005 0.0005 0.0005 0.0005 0.0005 
0.0005 0.0005 0.0005 0.0005 0.0005 0.0005 0.0005 0.0005 0.0005 
0.0005 0.0005 0.0005 0.0005 0.0005 0.0005 0.0005 0.0005 0.0005 
0.0005 0.0005 0.0005 0.0005 0.0005 0.0005 0.0005 0.0005 0.0005 
0.0005 0.0005 0.0005 0.0005 0.0005 0.0005 0.0005 0.0005 0.0005 
0.0005 0.0005 0.0005 0.0005 0.0005 0.0005 0.0005 0.0005 0.0005 

omega 3 225 double
-52.7944 -42.6911 6.24122 -16.531 10.3031 -13.2338 3.8165 -16.0987 -17.375 
114.861 -46.8712 -33.3611 5.5417 14.3493 45.8378 27.9562 -3.66435 -36.9981 
6.13369 -6.0985 -8.89935 13.732 -78.1728 -85.3874 18.8433 -8.96523 -34.8878 
-0.654738 34.7628 26.4576 -33.5082 -11.5751 -7.70874 24.7305 -4.90055 -43.3299 
-24.6592 14.3512 -71.6814 -27.5576 -40.3357 12.6766 17.7794 -30.8281 -32.7745 
-29.7893 -82.234 63.0051 -5.70416 2.20236 10.0843 -9.36646 1.91784 -27.5398 
9.11226 5.14424 9.42209 -0.988771 2.89072 -3.31068 -29.2585 -16.8725 35.3463 
-65.0948 27.24 86.4072 -2.45114 -23.5581 -10.76 -5.30659 -12.2976 28.5286 
-1.34821 -1.14591 -6.2831 -8.947 -0.847483 18.6385 25.0789 -9.82568 -53.7034 
1.51605 6.66819 -0.562152 -33.817 -25.1706 -31.2936 -20.4248 7.52672 -37.7252 
29.1339 34.2591 45.8487 -12.453 -4.59047 5.27956 -0.247764 -21.6102 -20.6726 
-7.68352 -0.316499 -29.4684 2.88064 -0.269078 2.33241 6.00502 1.81183 -7.99049 
-8.86063 1.23584 7.43944 5.96426 -3.97193 -1.81864 17.0587 -12.3084 -28.4382 
23.0766 88.3817 -30.3964 -18.7173 35.4311 -22.0625 -3.03513 -3.9515 -16.9235 
-10.0202 -7.59735 -4.16711 12.9471 7.84111 43.2442 -3.90541 -2.41252 4.4116 
-7.71079 -5.55872 -0.866743 6.40172 16.1529 -11.1255 13.3072 8.54114 18.3471 
-3.38377 1.186 12.7035 1.04713 20.2007 2.55666 2.67986 -9.79249 25.5828 
9.9817 66.9068 -9.91304 -13.7806 0.146818 15.0334 -22.8621 -37.8775 -30.1088 
-30.1645 -12.1093 -70.0134 -12.3882 -43.8204 -9.64925 6.61068 -0.870996 16.8939 
16.686 0.310673 -10.095 137.38 -126.277 -3.64771 -6.51688 -1.51695 -69.8516 
7.44648 -7.06716 5.94259 -6.88861 -8.05524 -16.4382 10.11 2.59191 -36.1179 
14.2781 -39.4088 74.3529 -20.6805 29.1584 5.71292 9.9439 13.8136 -7.7295 
47.7817 -21.5507 -33.1499 8.19747 8.24476 19.9399 23.5938 3.49812 -16.4809 
-49.7586 -69.3892 -10.1898 -123.506 -32.2953 -76.0003 -14.5488 -22.9219 -14.3813 
54.0822 55.3072 -8.65766 -11.4456 -71.6215 52.3236 -2.90286 -11.4214 43.1527 
4.92569 -6.74835 -51.1684 -6.20949 15.3007 31.1823 3.19475 -13.6876 -0.0806909 
6.68683 -22.5467 -8.72962 -7.39514 -16.6066 -0.75224 -2.455 -12.0953 5.95191 
-1.02557 5.19745 -24.1984 2.28668 -8.75716 44.2662 -70.0267 -71.1772 -5.36354 
-41.7037 -54.4366 70.6645 -40.1217 -48.7586 31.5704 2.39039 5.16669 -3.72944 
5.26377 -22.2515 -7.44918 -10.5466 -10.4362 -30.1026 14.9673 -1.61975 -40.7705 
130.918 162.095 118.095 13.5793 213.717 -220.941 94.0994 -153.364 -86.3641 
69.3584 -224.61 81.85 -50.9313 -39.5626 19.5251 54.0311 -35.5214 -25.6307 
68.4158 -119.394 23.0439 -82.2277 261.666 9.51838 5.11843 -38.2914 -21.1129 
18.7526 2.77902 13.4698 -14.266 -83.6906 38.6445 6.973 -31.0269 18.9918 
-5.80311 28.5399 -52.2897 58.7531 -83.8925 56.4859 -47.2122 46.3172 17.1984 
-53.7646 -20.2383 -2.1605 -17.8835 0.721204 1.078 -16.3974 -2.62567 14.0185 
119.522 -41.1568 -1.66674 35.6318 -64.7936 -37.5397 -4.63743 3.85478 11.0164 
5.93458 13.2863 44.7516 -10.3573 23.9017 -18.3449 -251.767 89.2862 32.946 
-306.369 -435.226 -38.1597 61.8544 132.885 -48.0015 8.62798 -46.0094 28.2403 
276.521 65.5021 110.55 152.656 158.674 -29.2891 -45.1588 -96.843 -77.6679 
138.244 -52.9491 108.678 6.28835 -23.5731 -44.2281 215.658 94.6292 -36.9677 
-16.8957 -9.48771 -3.66824 -325.029 -86.1325 -158.857 -29.1706 -17.9619 22.4363 
64.698 -72.0052 -38.2444 -4.75071 39.5589 8.05995 37.4308 -166.655 -87.6667 
40.7005 127.34 -30.445 7.52918 21.2526 -13.8884 31.1921 -47.4795 72.375 
172.97 191.33 -50.6127 -118.464 62.9745 -127.181 40.3947 15.141 65.2035 
-113.729 207.415 -10.6345 27.3745 289.763 77.1463 -261.306 -17.5662 35.2863 
-131.137 247.901 -17.6891 -48.326 -256.022 66.4276 162.965 -63.1069 105.846 
-105.733 26.1615 55.1928 -459.603 166.353 56.2099 153.239 429.61 83.3267 
-165.089 127.964 15.2523 -84.5691 250.016 243.194 -171.765 -303.915 -117.373 
132.569 274.058 -23.1721 397.035 63.587 -156.625 -235.794 -27.4081 -68.2068 
-326.11 538.321 -68.2501 -11.6581 -419.808 -3.79722 20.1922 361.004 -47.3377 
-163.764 351.9 167.979 46.6465 -349.566 -86.6856 -315.656 -390.131 -3.55766 
116.433 -393.848 -27.2961 117.734 204.64 30.999 104.21 -63.1323 19.2232 
-247.617 -230.856 -36.8459 0 0 0 0 0 0 
123.691 274.091 11.931 0 0 0 0 0 0 
0 0 0 0 0 0 0 0 0 
0 0 0 0 0 0 0 0 0 
0 0 0 0 0 0 0 0 0 
0 0 0 0 0 0 0 0 0 
0 0 0 0 0 0 0 0 0 
0 0 0 0 0 0 0 0 0 
0 0 0 0 0 0 0 0 0 
0 0 0 0 0 0 0 0 0 
0 0 0 0 0 0 0 0 0 
0 0 0 0 0 0 0 0 0 
0 0 0 0 0 0 0 0 0 
0 0 0 0 0 0 0 0 0 
0 0 0 0 0 0 0 0 0 
0 0 0 0 0 0 0 0 0 
0 0 0 0 0 0 0 0 0 
0 0 0 0 0 0 0 0 0 
0 0 0 0 0 0 0 0 0 
0 0 0 0 0 0 0 0 0 
0 0 0 0 0 0 0 0 0 
0 0 0 0 0 0 0 0 0 

