# vtk DataFile Version 4.0
Generated by LIGGGHTS
ASCII
DATASET POLYDATA
POINTS 171 float
-0.00498885 -0.004726 0.000499698 -0.00390235 -0.00469174 0.000499699 -0.00273128 -0.00420926 0.00053159 
1.67664e-05 -0.00448102 0.000499712 0.00218939 -0.00460044 0.000947365 0.00343493 0.00498171 0.000499699 
0.00426594 -0.00404356 0.000548587 -0.00371729 -0.00313733 0.000648737 -0.000601398 -0.00317143 0.000812781 
0.00110449 -0.00373954 0.000533135 0.00276358 -0.00379466 0.000800273 -0.00476908 -0.00219589 0.000508671 
-0.00265847 -0.00261118 0.000499699 -0.00157481 -0.00237059 0.000499642 -0.000173763 -0.00207844 0.000619041 
0.00102371 -0.00266735 0.000499549 0.00242377 -0.00274992 0.000499699 0.00342952 -0.00311068 0.000500506 
-0.00414909 -0.0014116 0.000499737 -0.00240446 -0.00163667 0.000499699 -0.00150169 -0.00110695 0.000500571 
0.000317976 -0.00119852 0.000503257 0.00307224 -0.00198142 0.000499699 0.0039581 -0.00148679 0.000499749 
-0.00406582 -0.000413777 0.000500514 -0.0031388 -0.000804817 0.000498544 -0.00189414 -0.000185495 0.000499663 
0.00479562 -0.000935375 0.000506982 -0.00280012 0.00056663 0.000500862 -0.000940783 0.000161264 0.000551454 
0.000228873 0.000147611 0.000497954 0.000960457 0.000828285 0.000495063 0.00191891 0.000408341 0.000532974 
0.00296398 0.00105669 0.000681703 -0.00496243 6.83354e-05 0.000537351 0.00390644 0.000368291 0.000494306 
-0.00344093 0.00133548 0.000503527 -0.0022017 0.00153595 0.00105969 -0.000840803 0.00170785 0.000499699 
0.000173038 0.00145949 0.000499435 0.00113499 0.00185122 0.000554321 0.00205385 0.00145827 0.00055529 
0.00385197 0.00178832 0.000519971 0.0047961 0.00146047 0.000500248 0.00498438 0.00244538 0.000509334 
-0.0036699 0.00224515 0.000859587 -0.00270941 0.00249034 0.000630594 -0.00157158 0.00310361 0.000736552 
0.000710226 0.00279205 0.000499666 0.00195289 0.00245362 0.000555259 0.00289433 0.00207522 0.000505668 
-0.00434139 0.00318266 0.000500012 -0.00339101 0.00349823 0.000499777 -0.000593878 0.00297316 0.000499703 
0.000877039 0.00377687 0.000500059 0.0018328 0.00347728 0.000499698 0.00305034 0.00310035 0.000526992 
0.0041694 0.00327286 0.000499412 -0.00407318 0.00422904 0.000499649 -0.00313083 0.0046105 0.000506433 
-0.00168642 0.00406955 0.000499651 -0.000906657 0.00469477 0.000499783 -0.000207703 0.00388974 0.000609479 
0.000701042 0.00476037 0.000501417 0.00176257 0.00461236 0.000500364 0.00292941 0.0041187 0.000499699 
0.00494584 0.00391414 0.00049972 0.00432795 0.00460415 0.000889975 -0.00207906 0.00497662 0.00067211 
0.00112164 -0.0045598 0.00110521 0.00231396 0.00390406 0.00215908 -0.0011617 -0.00433385 0.000567512 
0.00218712 -0.00106881 0.000504982 0.0044167 -0.00303258 0.000842108 -0.00441563 -0.00016277 0.00143119 
-0.000199045 -8.22858e-05 0.00184518 -0.000585882 -0.00107373 0.000911548 0.00455459 3.6997e-05 0.00141921 
0.00362636 0.00194532 0.00154366 -0.00326931 0.00109631 0.00181151 -6.47945e-05 0.00228806 0.00100549 
0.000843456 0.00130922 0.00135707 0.00367298 0.00307281 0.00139171 -0.00332566 0.00440171 0.00146479 
0.00495637 0.00303255 0.00132172 -0.00213207 0.00421668 0.00138476 -0.000247065 0.0048291 0.0012451 
0.00157332 0.00410512 0.00134208 0.00424365 0.00487535 0.00201816 -0.00129969 -0.000481879 0.00226668 
0.00323139 -0.00035896 0.000606713 -0.000783613 -0.00186919 0.0015192 0.00261135 0.00205409 0.00151788 
0.000393415 -0.00442233 0.00179009 -0.00242721 -0.00303647 0.00207173 0.000512551 -0.00288061 0.00169483 
0.000942052 -0.00189163 0.00119206 0.00100474 -0.00046058 0.000660205 -0.00435632 0.00092572 0.000542372 
0.00398325 0.000941631 0.00130477 -0.00234534 0.00294466 0.00167338 -0.00446095 -0.00251358 0.00141623 
0.00181728 0.00125316 0.00159983 0.00057764 0.00180434 0.0022386 -0.00341204 0.00379214 0.00291231 
-0.00437972 0.00414117 0.0018466 0.00046298 -0.00402949 0.00273837 0.00244802 0.00278463 0.00382499 
-0.00338313 -0.0013672 0.00467551 0.00387494 -0.000472461 0.00464254 0.0022287 0.00446689 0.0204024 
-0.00289235 0.00434286 0.0203728 0.000566637 0.00376623 0.0203732 -0.000331266 0.00324133 0.0204682 
-0.00431283 0.0030633 0.020354 -0.00149723 0.00375674 0.0203415 0.00300746 0.00287411 0.0203327 
-0.00161351 0.00267002 0.0204932 0.00225498 0.00210895 0.020271 -0.00391249 0.00212256 0.020409 
0.00425636 0.00171997 0.0204033 0.00253039 0.00114038 0.0204126 0.0029285 -0.00253701 0.00617783 
-0.00107349 -0.00095069 0.00560962 0.000801974 0.000612554 0.00573688 -0.00122544 -0.0033464 0.00683141 
-0.00321638 -0.00435913 0.0104163 0.00189559 -0.00149471 0.011231 0.000891312 -0.0010075 0.013058 
0.00153942 0.00445169 0.0141823 -0.00382044 -0.000275415 0.0150623 -0.00440534 -0.00444547 0.0200589 
-0.00162733 -0.00403002 0.0202126 -0.00377297 -0.0035938 0.0200635 -0.00216281 -0.0031162 0.0201671 
0.000844604 -0.00328023 0.0199891 0.00298124 -0.00371561 0.0200636 0.00202959 -0.00317426 0.0201784 
-0.00233448 -0.00214095 0.019754 -0.00120351 -0.00219516 0.0193193 -0.000274688 -0.00115929 0.020213 
-0.00262619 -0.000700658 0.0201324 0.00284631 -0.000291656 0.0177726 -0.00116294 0.000641303 0.0202221 
4.91192e-05 3.71876e-05 0.0199649 -0.000789962 0.00213347 0.020146 0.00122076 0.00272467 0.020217 
0.00385472 0.00342628 0.0202302 -0.00028265 0.00443174 0.0187503 0.00342131 0.0044559 0.0202446 
-0.00276169 -0.00409494 0.0204456 0.00140285 -0.0042589 0.0202484 0.00406258 -0.00446579 0.0203021 
-0.000166618 -0.00382408 0.0203365 0.00386248 -0.0033568 0.0203758 -0.00446703 -0.00297179 0.0204497 
-0.00322368 -0.00274282 0.020462 -0.00014343 -0.00248186 0.0203666 -0.00445648 -0.00113402 0.0204523 
-0.00179043 -0.00119346 0.0204212 0.000756556 -0.00176251 0.020319 0.00256538 -0.00198551 0.0202744 
0.00408752 -0.00183608 0.0204197 0.000959764 -0.000140055 0.02038 0.0035594 -0.000878239 0.0204736 
-0.00416463 0.00061736 0.020345 -0.00306518 0.000916609 0.0204543 -0.00216552 0.000320514 0.0204536 
0.0037585 0.000437218 0.0202941 -0.00287597 0.00195369 0.0202651 0.000386995 0.00148626 0.0203085 

VERTICES 171 342
1 0 
1 1 
1 2 
1 3 
1 4 
1 5 
1 6 
1 7 
1 8 
1 9 
1 10 
1 11 
1 12 
1 13 
1 14 
1 15 
1 16 
1 17 
1 18 
1 19 
1 20 
1 21 
1 22 
1 23 
1 24 
1 25 
1 26 
1 27 
1 28 
1 29 
1 30 
1 31 
1 32 
1 33 
1 34 
1 35 
1 36 
1 37 
1 38 
1 39 
1 40 
1 41 
1 42 
1 43 
1 44 
1 45 
1 46 
1 47 
1 48 
1 49 
1 50 
1 51 
1 52 
1 53 
1 54 
1 55 
1 56 
1 57 
1 58 
1 59 
1 60 
1 61 
1 62 
1 63 
1 64 
1 65 
1 66 
1 67 
1 68 
1 69 
1 70 
1 71 
1 72 
1 73 
1 74 
1 75 
1 76 
1 77 
1 78 
1 79 
1 80 
1 81 
1 82 
1 83 
1 84 
1 85 
1 86 
1 87 
1 88 
1 89 
1 90 
1 91 
1 92 
1 93 
1 94 
1 95 
1 96 
1 97 
1 98 
1 99 
1 100 
1 101 
1 102 
1 103 
1 104 
1 105 
1 106 
1 107 
1 108 
1 109 
1 110 
1 111 
1 112 
1 113 
1 114 
1 115 
1 116 
1 117 
1 118 
1 119 
1 120 
1 121 
1 122 
1 123 
1 124 
1 125 
1 126 
1 127 
1 128 
1 129 
1 130 
1 131 
1 132 
1 133 
1 134 
1 135 
1 136 
1 137 
1 138 
1 139 
1 140 
1 141 
1 142 
1 143 
1 144 
1 145 
1 146 
1 147 
1 148 
1 149 
1 150 
1 151 
1 152 
1 153 
1 154 
1 155 
1 156 
1 157 
1 158 
1 159 
1 160 
1 161 
1 162 
1 163 
1 164 
1 165 
1 166 
1 167 
1 168 
1 169 
1 170 

POINT_DATA 171
FIELD FieldData 7
id 1 171 int
49 17 7 56 31 48 91 72 18 
28 51 36 12 89 19 26 22 14 
60 45 78 1 65 29 27 15 110 
88 37 90 59 55 4 2 43 46 
54 21 40 42 53 23 47 33 52 
92 8 20 13 6 35 9 67 34 
39 44 5 41 63 57 32 3 50 
11 30 85 38 87 74 113 100 16 
82 108 73 62 105 10 79 93 25 
75 81 99 84 111 24 66 80 61 
68 95 58 70 107 97 103 96 101 
77 76 102 114 112 94 106 104 83 
98 86 116 138 167 122 144 139 143 
154 142 119 129 152 109 64 71 69 
133 136 147 166 134 168 149 124 115 
162 161 155 140 157 165 151 123 120 
118 117 141 135 150 132 146 125 164 
153 137 170 163 121 156 128 148 145 
160 130 159 171 127 169 158 126 131 

type 1 171 int
1 1 1 1 1 1 1 1 1 
1 1 1 1 1 1 1 1 1 
1 1 1 1 1 1 1 1 1 
1 1 1 1 1 1 1 1 1 
1 1 1 1 1 1 1 1 1 
1 1 1 1 1 1 1 1 1 
1 1 1 1 1 1 1 1 1 
1 1 1 1 1 1 1 1 1 
1 1 1 1 1 1 1 1 1 
1 1 1 1 1 1 1 1 1 
1 1 1 1 1 1 1 1 1 
1 1 1 1 1 1 1 1 1 
1 1 1 1 1 1 1 1 1 
1 1 1 1 1 1 1 1 1 
1 1 1 1 1 1 1 1 1 
1 1 1 1 1 1 1 1 1 
1 1 1 1 1 1 1 1 1 
1 1 1 1 1 1 1 1 1 
1 1 1 1 1 1 1 1 1 

i 3 171 int
0 0 0 0 0 0 0 0 0 
0 0 0 0 0 0 -1 -1 0 
0 0 0 0 1 0 0 0 0 
0 0 0 0 0 0 1 1 0 
0 0 0 0 0 0 0 0 0 
0 0 0 0 0 0 0 0 0 
0 0 0 0 0 0 0 0 0 
0 0 0 0 0 0 0 0 0 
0 0 0 0 0 0 0 0 0 
-1 0 0 0 0 0 0 0 0 
0 0 0 0 0 0 0 0 0 
0 0 0 1 0 0 0 0 0 
0 0 0 0 0 0 0 0 0 
0 0 0 0 0 0 0 0 0 
0 0 0 -1 0 0 -1 0 0 
0 0 0 0 0 0 1 -1 0 
0 0 0 0 0 0 0 0 0 
0 0 0 1 0 0 0 0 0 
0 0 0 0 0 0 0 0 0 
0 0 0 1 -1 0 0 0 0 
0 0 0 0 -1 0 0 -1 0 
0 -1 0 0 0 0 0 0 0 
0 0 0 -1 -1 0 0 -1 0 
0 0 0 0 -1 0 0 0 0 
0 0 0 0 0 0 0 -1 0 
0 0 0 0 0 0 0 0 0 
0 0 0 0 0 0 0 0 0 
0 0 0 0 0 0 0 0 0 
0 -1 0 0 0 0 0 -1 0 
0 -1 0 0 0 0 0 0 0 
0 0 0 0 0 0 0 0 0 
0 1 0 0 0 0 0 0 0 
0 0 0 0 0 0 0 0 0 
0 0 0 0 0 0 0 0 0 
0 0 0 0 0 0 0 0 0 
0 0 0 0 0 0 0 0 0 
0 0 0 0 0 0 0 0 0 
0 0 0 0 0 0 0 0 0 
0 0 0 0 0 0 0 0 0 
0 0 0 0 0 0 0 0 0 
0 0 0 0 0 0 0 0 0 
0 0 0 0 0 0 0 0 0 
0 0 0 0 0 0 0 0 0 
0 0 0 0 0 0 0 0 0 
0 0 0 0 0 0 0 0 0 
0 0 0 0 0 0 0 0 0 
0 0 0 0 0 0 0 0 0 
0 0 0 0 0 0 0 0 0 
0 0 0 0 0 0 0 0 0 
0 0 0 0 0 0 0 0 0 
0 0 0 0 0 0 0 0 0 
0 0 0 0 0 0 0 0 0 
0 0 0 0 0 0 0 0 0 
0 0 0 0 0 0 0 0 0 
0 0 0 0 0 0 0 0 0 
0 0 0 0 0 0 0 0 0 
0 0 0 0 0 0 0 0 0 

v 3 171 double
-0.00797211 -0.00634305 2.47121e-06 -0.00631954 0.000599326 -6.65922e-10 -0.053893 -0.00153488 -0.00781954 
-0.00367725 -0.00295481 -8.45307e-05 0.013973 0.00676263 0.0153238 0.0183989 -0.0179752 -9.43741e-07 
-0.0150669 -0.0284777 -0.082653 0.100593 -0.110847 -0.209757 -0.0299063 -0.0134845 0.063672 
0.0325266 -0.00630435 -0.00375628 0.0127718 0.0100247 0.00902033 -0.0555562 0.0303268 0.0727592 
-0.00641485 0.0122798 -2.53436e-15 -0.0179323 0.0115422 -0.000171357 0.0108583 0.0121186 0.013573 
0.0385378 0.0306194 0.00258936 -0.000524895 -0.000324752 -6.02277e-09 0.00972609 0.0147406 0.00195616 
-0.00438702 -0.00788378 0.000511901 -0.015219 0.0157382 -4.85185e-15 -0.0264198 0.0102524 -0.00303324 
-0.0684399 -0.08129 -0.102523 -0.00274802 0.00299032 4.97722e-09 -0.0250589 0.00998592 0.000757239 
0.0455656 -0.0138702 -0.00458231 0.0123345 0.001079 -0.00321316 -0.041498 0.00390666 0.000187675 
0.0209052 -0.0413193 0.00331724 0.0199466 -0.00588684 0.00232424 -0.0104294 -0.0482529 -0.00247278 
-0.0190167 0.015084 0.0165449 0.0235229 -0.0504032 -0.031815 0.0167103 -0.0340149 0.0190917 
0.0279328 -0.0152053 0.00169253 0.0255545 -0.0194254 0.0370289 0.0362512 -0.0327761 0.0569591 
0.0584532 0.0413888 0.0217084 -0.0090519 0.0278493 0.026465 0.0310729 -0.0080147 4.83262e-08 
0.00400746 -0.0136599 0.000180746 0.00708631 -0.0289319 0.0187342 0.0153704 0.00140537 0.0782864 
0.00544953 0.0206735 0.00356132 0.0049002 0.00495425 0.00203277 -0.00546093 0.0095349 0.00982866 
-0.04294 -0.00821687 0.00627785 -0.000789496 0.00406068 0.0840246 -0.00566045 -0.00653371 -0.0148339 
0.014141 -0.00622606 -0.000813102 -0.000783976 0.00735252 0.0214104 -0.00420182 -0.000173422 -0.00226195 
0.00157354 0.00684565 0.00233274 0.00533546 0.00210841 -0.00117714 -0.002796 -0.014261 -9.12478e-05 
-0.00340484 -0.0101597 0.00198899 -0.00446287 -0.00548977 2.86644e-06 -0.00390644 0.0166309 -0.0248761 
-0.0238798 0.0287746 -0.00855651 0.0133616 0.0138566 -0.000108205 0.0247144 0.0173363 -0.00678647 
-0.0335843 -0.007842 -0.000142562 -0.0235706 -0.0263065 0.000813861 -0.0169781 -0.0107796 0.0104608 
0.0367212 0.00224581 0.0190244 0.0115663 0.00708373 0.00286315 0.0189367 -0.0160161 3.84542e-07 
0.00886406 -0.00545581 -0.000149006 -0.0304134 -0.0175688 -0.0333508 -0.0727691 -0.0104466 -0.0371762 
0.113231 0.0128192 -0.0110371 -0.0386729 -0.116966 -0.0201126 -0.0390843 -0.0289409 -0.00274468 
0.095247 0.205334 -0.207399 0.0251711 -0.014247 -0.0560961 -0.0437781 0.0217848 -0.0266092 
0.0837609 0.0151318 -0.0507516 -0.0377317 0.0610393 -0.0271246 -0.0342842 -0.0623106 0.00121984 
0.0944486 0.00261676 0.0259089 -0.134025 -0.099172 -0.0260849 0.00686621 -0.0089767 -0.00521577 
0.00616843 -0.140954 0.0422308 -0.0153539 0.0832001 0.0298072 0.0178405 0.13167 -0.356718 
0.0617676 -0.0158754 0.0459438 -0.0289029 -0.0245361 -0.00368437 -0.0188559 0.0413676 -0.0151135 
0.0210082 -0.0435714 -0.017606 0.0738682 0.057806 -0.00179399 0.0784741 -0.169098 0.0620662 
0.0840038 -0.143838 -0.184336 0.01063 -0.0225261 -0.118929 0.0292924 -0.0473649 0.0827733 
-0.091688 0.0502069 -0.182862 0.172114 -0.000542403 0.112037 0.0843127 -0.039115 0.117348 
0.0562217 0.00316382 0.0537186 -0.00836591 -0.0337634 -0.131703 0.0379777 0.0100833 -0.187891 
-0.0135592 0.104838 0.0142855 0.0965667 0.138013 0.165399 -0.0457364 0.00530349 0.149983 
-0.0756012 -0.0749535 0.200692 -0.0534249 -0.00479088 -0.104602 -0.00262927 -0.0105384 -0.201475 
0 0 -0.596883 0.00338038 0.138128 -0.223275 0 0 -0.563431 
0 0 -0.548422 0 0 -0.54901 -0 -0 -0.01 
-0 -0 -0.01 -0 -0 -0.01 -0 -0 -0.01 
-0 -0 -0.01 -0 -0 -0.01 -0 -0 -0.01 
-0 -0 -0.01 -0 -0 -0.01 -0 -0 -0.01 
-0 -0 -0.01 -0 -0 -0.01 0 0 -0.520856 
0 0 -0.531451 0 0 -0.529096 0 0 -0.508397 
0 0 -0.433743 0 0 -0.414908 0 0 -0.369193 
0 0 -0.337997 0 0 -0.311412 -0 -0 -0.01 
-0 -0 -0.01 -0 -0 -0.01 -0 -0 -0.01 
0 0 -0.0177008 -0 -0 -0.01 -0 -0 -0.01 
0 0 -0.0701843 0 0 -0.115997 -0 -0 -0.01 
-0 -0 -0.01 0 0 -0.20929 -0 -0 -0.01 
0 0 -0.0280994 -0 -0 -0.01 -0 -0 -0.01 
-0 -0 -0.01 0 0 -0.156905 -0 -0 -0.01 
-0 -0 -0.01 -0 -0 -0.01 -0 -0 -0.01 
-0 -0 -0.01 -0 -0 -0.01 -0 -0 -0.01 
-0 -0 -0.01 -0 -0 -0.01 -0 -0 -0.01 
-0 -0 -0.01 -0 -0 -0.01 -0 -0 -0.01 
-0 -0 -0.01 -0 -0 -0.01 -0 -0 -0.01 
-0 -0 -0.01 -0 -0 -0.01 -0 -0 -0.01 
-0 -0 -0.01 -0 -0 -0.01 -0 -0 -0.01 

f 3 171 double
-1.10777e-11 -8.81379e-12 3.87539e-08 2.20687e-15 -2.0929e-16 1.28652e-11 0 0 -1.28413e-05 
1.68711e-10 1.35427e-10 -3.26686e-07 0 0 -1.28413e-05 -9.20925e-12 8.9742e-12 1.36818e-08 
0 0 -1.28413e-05 0 0 -1.28413e-05 0 0 -1.28413e-05 
0 0 -1.28413e-05 0 0 -1.28413e-05 2.01405e-06 1.65889e-06 -1.40198e-05 
-3.81037e-20 6.45298e-20 1.69407e-21 1.6285e-09 -1.04804e-09 4.99855e-06 0 0 -1.28413e-05 
5.94464e-07 -3.80793e-06 -6.64014e-06 1.76454e-15 1.09172e-15 -7.79831e-11 0 0 -1.28413e-05 
-1.7249e-06 -3.02252e-06 -4.22603e-06 6.23821e-20 8.08833e-20 -1.01644e-20 0 0 -1.28413e-05 
-7.33393e-05 -4.04876e-05 2.21918e-06 -7.66503e-15 8.34086e-15 7.51105e-11 1.99169e-06 1.73988e-06 -7.55203e-06 
0 0 -1.28413e-05 -3.2863e-08 -2.89825e-09 0.0001573 3.81503e-06 -5.89167e-06 1.19671e-06 
0 0 -1.28413e-05 0 0 -1.28413e-05 0 0 -1.28413e-05 
-2.06188e-06 -0.000115436 1.18473e-05 -2.30053e-06 0.000201424 0.00064305 0 0 -1.28413e-05 
0 0 -1.28413e-05 0 0 -1.28413e-05 -8.56008e-06 -1.28593e-05 0.000129355 
0 0 -1.28413e-05 0 0 -1.28413e-05 8.1721e-13 -2.10784e-13 -1.87196e-11 
2.31244e-07 -9.0885e-07 7.38127e-06 -4.36421e-05 2.00812e-05 1.10765e-05 4.36421e-05 -2.00812e-05 -3.6759e-05 
-1.03229e-06 -1.40037e-06 -1.40543e-05 -4.76274e-06 2.20638e-06 -1.34248e-05 -1.58713e-05 -3.00469e-05 -2.64946e-05 
0 0 -1.28413e-05 0 0 -1.28413e-05 0 0 -1.28413e-05 
-7.10242e-06 -9.57426e-05 -8.14687e-06 0 0 -1.28413e-05 5.79502e-06 -8.06013e-07 -1.10447e-05 
1.58713e-05 3.00469e-05 8.12047e-07 -1.02519e-05 3.3368e-06 2.20861e-06 4.65132e-08 8.69688e-08 2.46437e-07 
-2.74955e-06 8.40325e-05 1.80813e-07 -7.13301e-12 -8.77633e-12 3.32287e-08 0 0 -1.28413e-05 
3.93054e-05 6.80674e-05 8.48793e-05 1.05413e-05 -5.39981e-06 3.78837e-06 -4.69439e-05 8.85002e-05 -0.000548566 
-9.61049e-06 -1.92443e-05 -1.08885e-05 2.34887e-05 3.06124e-05 5.30989e-06 0 0 -1.28413e-05 
9.15853e-06 2.15683e-05 -1.07926e-05 0 0 -1.28413e-05 5.85245e-12 -1.20823e-12 -7.18853e-09 
-1.30764e-09 -1.64112e-09 -4.81353e-07 0 0 -1.28413e-05 0 0 -1.28413e-05 
0 0 -1.28413e-05 0 0 -1.28413e-05 0 0 -1.28413e-05 
0 0 -1.28413e-05 0 0 -1.28413e-05 0 0 -1.28413e-05 
0 0 -1.28413e-05 7.33393e-05 4.04876e-05 -2.79017e-05 0 0 -1.28413e-05 
0 0 -1.28413e-05 0 0 -1.28413e-05 -2.064e-06 7.2988e-06 -1.17032e-06 
-2.0281e-06 0.000158419 0.000632112 0 0 -1.28413e-05 4.69439e-05 -8.85002e-05 0.000522884 
0 0 -1.28413e-05 0 0 -1.28413e-05 0 0 -1.28413e-05 
0 0 -1.28413e-05 0 0 -1.28413e-05 0 0 -1.28413e-05 
1.69579e-05 1.69176e-05 -4.11637e-06 0 0 -1.28413e-05 0 0 -1.28413e-05 
0 0 -1.28413e-05 0 0 -1.28413e-05 0 0 -1.28413e-05 
0 0 -1.28413e-05 -1.68229e-05 1.25606e-05 -6.34809e-06 0 0 -1.28413e-05 
1.07927e-05 7.5976e-05 0.000187453 0 0 -1.28413e-05 0 0 -1.28413e-05 
0 0 -1.28413e-05 0 0 -1.28413e-05 0 0 -1.28413e-05 
0 0 -1.28413e-05 0 0 -1.28413e-05 0 0 -1.28413e-05 
0 0 -1.28413e-05 0 0 -1.28413e-05 0 0 0 
0 0 0 0 0 0 0 0 0 
0 0 0 0 0 0 0 0 0 
0 0 0 0 0 0 0 0 0 
0 0 0 0 0 0 0 0 -1.28413e-05 
0 0 -1.28413e-05 0 0 -1.28413e-05 0 0 -1.28413e-05 
0 0 -1.28413e-05 0 0 -1.28413e-05 0 0 -1.28413e-05 
0 0 -1.28413e-05 0 0 -1.28413e-05 0 0 0 
0 0 0 0 0 0 0 0 0 
0 0 -1.28413e-05 0 0 0 0 0 0 
0 0 -1.28413e-05 0 0 -1.28413e-05 0 0 0 
0 0 0 0 0 -1.28413e-05 0 0 0 
0 0 -1.28413e-05 0 0 0 0 0 0 
0 0 0 0 0 -1.28413e-05 0 0 0 
0 0 0 0 0 0 0 0 0 
0 0 0 0 0 0 0 0 0 
0 0 0 0 0 0 0 0 0 
0 0 0 0 0 0 0 0 0 
0 0 0 0 0 0 0 0 0 
0 0 0 0 0 0 0 0 0 
0 0 0 0 0 0 0 0 0 

radius 1 171 double
0.0005 0.0005 0.0005 0.0005 0.0005 0.0005 0.0005 0.0005 0.0005 
0.0005 0.0005 0.0005 0.0005 0.0005 0.0005 0.0005 0.0005 0.0005 
0.0005 0.0005 0.0005 0.0005 0.0005 0.0005 0.0005 0.0005 0.0005 
0.0005 0.0005 0.0005 0.0005 0.0005 0.0005 0.0005 0.0005 0.0005 
0.0005 0.0005 0.0005 0.0005 0.0005 0.0005 0.0005 0.0005 0.0005 
0.0005 0.0005 0.0005 0.0005 0.0005 0.0005 0.0005 0.0005 0.0005 
0.0005 0.0005 0.0005 0.0005 0.0005 0.0005 0.0005 0.0005 0.0005 
0.0005 0.0005 0.0005 0.0005 0.0005 0.0005 0.0005 0.0005 0.0005 
0.0005 0.0005 0.0005 0.0005 0.0005 0.0005 0.0005 0.0005 0.0005 
0.0005 0.0005 0.0005 0.0005 0.0005 0.0005 0.0005 0.0005 0.0005 
0.0005 0.0005 0.0005 0.0005 0.0005 0.0005 0.0005 0.0005 0.0005 
0.0005 0.0005 0.0005 0.0005 0.0005 0.0005 0.0005 0.0005 0.0005 
0.0005 0.0005 0.0005 0.0005 0.0005 0.0005 0.0005 0.0005 0.0005 
0.0005 0.0005 0.0005 0.0005 0.0005 0.0005 0.0005 0.0005 0.0005 
0.0005 0.0005 0.0005 0.0005 0.0005 0.0005 0.0005 0.0005 0.0005 
0.0005 0.0005 0.0005 0.0005 0.0005 0.0005 0.0005 0.0005 0.0005 
0.0005 0.0005 0.0005 0.0005 0.0005 0.0005 0.0005 0.0005 0.0005 
0.0005 0.0005 0.0005 0.0005 0.0005 0.0005 0.0005 0.0005 0.0005 
0.0005 0.0005 0.0005 0.0005 0.0005 0.0005 0.0005 0.0005 0.0005 

omega 3 171 double
12.6899 -15.949 71.2293 -1.19901 -12.6429 8.48585 1.91062 -109.166 8.38557 
5.91128 -7.35657 -2.50594 56.6678 10.7512 38.3192 35.9613 36.8089 10.9127 
-198.015 114.151 -173.737 -207.44 -303.931 -0.928561 30.2781 -68.7978 -42.7934 
-78.2449 47.6577 24.0379 -117.564 -75.1265 -19.5983 -68.6208 -114.64 28.4945 
-24.567 -12.8336 5.7066 -23.0933 -35.8787 -93.5519 -26.3811 20.6838 -53.6645 
-59.2412 77.3927 -51.0645 0.649699 -1.05011 7.74434 -9.58056 0.0504258 75.5914 
15.9916 -8.91175 -69.2271 -31.4859 -30.4472 -3.75477 -18.5788 -38.6 59.7183 
-379.151 120.103 -98.2825 -5.98244 -5.4977 2.19373 -41.7319 -25.227 -7.26138 
-9.54564 -11.5641 -46.7095 -2.17112 24.8209 62.7655 2.00498 -76.6649 -9.78711 
79.7941 25.7963 -128.728 12.3972 15.5754 -62.0315 111.531 -3.15961 -74.2017 
-18.5621 2.09394 -81.7068 97.7487 45.353 24.1592 69.0744 32.6642 3.78747 
-8.88685 72.1217 -31.596 42.3218 48.7709 86.0991 66.1942 77.3776 208.131 
1.85284 38.4151 -68.0794 -86.7637 -34.4772 -6.06081 16.0342 62.1646 -94.3533 
27.8238 8.16295 -38.8286 160.771 -5.06954 57.0313 -42.9041 114.167 -9.09905 
-89.347 -32.5602 -28.4834 21.6573 59.5199 0.0125516 3.31025 2.95169 3.23879 
46.4701 -37.8678 33.6783 31.9703 -121.861 -41.5514 -12.3003 51.3094 -5.00906 
1.9862 28.4123 29.5184 24.0418 26.5836 -7.75104 21.5287 41.1322 72.8309 
-13.0719 5.73114 -16.7344 -6.812 2.00896 -8.33392 28.505 -5.58004 -4.63052 
8.42559 -2.33916 -0.594835 10.9829 -8.92845 16.5709 -8.53346 10.8162 41.051 
-63.5699 -44.3189 -101.27 -24.2427 32.6667 -24.5274 -33.4631 46.6903 4.63983 
11.2083 -64.5352 60.8989 53.2232 -46.7646 -1.55934 51.5865 -24.558 39.2465 
15.71 77.5701 -86.6152 -13.9594 22.9086 -18.6226 32.0419 37.8849 -20.6915 
10.915 17.7328 18.8017 55.6894 -98.4491 5.17255 39.8284 -61.6421 -14.9336 
-102.483 -16.4819 -41.9326 305.167 -97.1398 -18.6966 41.6403 -88.0548 44.3923 
-610.353 -373.449 250.319 304.806 48.8208 120.625 -70.4068 -111.293 -4.06116 
44.5832 271.416 -48.2085 -24.2313 85.8265 -39.2502 -52.3895 -198.499 108.91 
79.2922 -118.235 23.0199 350.372 -388.509 35.9308 -30.5955 -2.53588 33.0268 
138.421 -18.1733 72.6807 -108.463 -97.1758 40.7285 -79.4385 1.2531 1.3886 
15.8854 78.4175 -160.6 -40.6858 89.4248 -22.7706 -254.845 50.3663 -18.0173 
85.4878 -104.644 199.729 -446.261 219.183 129.467 489.516 221.162 -1.34116 
256.253 -226.942 14.7394 203.417 233.274 -177.789 79.9661 218.111 100.006 
-175.842 -294.845 -21.0159 18.235 511.145 -3.61939 -201.022 420.047 2.37248 
207.98 110.264 131.071 62.1996 -81.1828 12.0929 -287.554 328.165 42.7342 
-352.058 -146.397 -123.88 -290.588 302.449 -16.885 79.3523 92.2791 -29.8096 
187.525 -271.579 -7.29342 -381.849 -158.797 -89.9205 292.753 -35.2934 0.964519 
0 0 0 94.2965 7.16318 -3.42997 0 0 0 
0 0 0 0 0 0 0 0 0 
0 0 0 0 0 0 0 0 0 
0 0 0 0 0 0 0 0 0 
0 0 0 0 0 0 0 0 0 
0 0 0 0 0 0 0 0 0 
0 0 0 0 0 0 0 0 0 
0 0 0 0 0 0 0 0 0 
0 0 0 0 0 0 0 0 0 
0 0 0 0 0 0 0 0 0 
0 0 0 0 0 0 0 0 0 
0 0 0 0 0 0 0 0 0 
0 0 0 0 0 0 0 0 0 
0 0 0 0 0 0 0 0 0 
0 0 0 0 0 0 0 0 0 
0 0 0 0 0 0 0 0 0 
0 0 0 0 0 0 0 0 0 
0 0 0 0 0 0 0 0 0 
0 0 0 0 0 0 0 0 0 
0 0 0 0 0 0 0 0 0 
0 0 0 0 0 0 0 0 0 
0 0 0 0 0 0 0 0 0 

