# vtk DataFile Version 4.0
Generated by LIGGGHTS
ASCII
DATASET POLYDATA
POINTS 282 float
-0.00433855 -0.00443566 0.000499149 -0.00336628 -0.00466688 0.000500566 -0.00255869 -0.00406363 0.000499581 
-0.00141912 -0.00410929 0.000499644 -0.000508212 -0.0047703 0.00049975 0.000331033 -0.0041941 0.000513206 
0.00128178 -0.0045565 0.00049985 0.00258191 -0.00465263 0.000500021 0.00359882 -0.00455255 0.000499594 
0.00455465 -0.00424428 0.00049968 -0.00462529 -0.00345472 0.000499654 -0.00365607 -0.00370354 0.000499657 
-0.00196173 -0.00326206 0.000499188 -0.000941791 -0.00308609 0.000497749 8.35602e-05 -0.00321253 0.000500025 
0.00105941 -0.00344455 0.000500111 0.00198863 -0.00384883 0.00050024 0.00299961 -0.00374152 0.000499417 
0.00437117 -0.00325957 0.000499852 -0.00488793 -0.00248978 0.000507732 -0.00391094 -0.00271373 0.000499823 
-0.00292173 -0.00297694 0.000499518 -0.00160471 -0.00232622 0.000556177 -0.000267043 -0.00227367 0.000499511 
0.000724882 -0.00239869 0.000499036 0.00240239 -0.00293921 0.000500132 0.00280158 -0.00202301 0.000499476 
0.00345267 -0.00285116 0.000499577 0.00413508 -0.00212166 0.000498994 -0.00475376 -0.00149591 0.000499063 
-0.00353889 -0.00175011 0.000499684 -0.00256732 -0.00200653 0.000499709 -0.00177996 -0.00134315 0.00049922 
-0.000164226 -0.00120466 0.000538789 0.000834274 -0.00140563 0.00049924 0.00169163 -0.00192395 0.000498095 
0.00231919 -0.00109054 0.000497663 0.00333059 -0.00117534 0.000499153 0.00431811 -0.00115101 0.000649581 
-0.00420219 -0.000657435 0.000499713 -0.00341319 7.91018e-05 0.000499707 -0.00295029 -0.000845475 0.000499692 
-0.00206116 -0.000338111 0.000498073 -0.0010922 -0.000610919 0.000552844 0.00036765 -0.000355637 0.000504105 
0.00151078 -0.000494081 0.000499412 0.00293201 -9.83854e-05 0.000499697 0.00484983 -0.000316892 0.000499801 
-0.0043911 0.000334349 0.000499212 -0.0026739 0.000834455 0.000499499 -0.00149696 0.000574137 0.000499696 
-0.000490363 0.000223108 0.000497614 0.000234707 0.000906935 0.000534561 0.00110572 0.000419515 0.000498489 
0.0021379 0.000514701 0.000499753 0.00392373 6.64663e-05 0.000499017 0.00468328 0.000736742 0.000497622 
0.00492838 0.00171229 0.000498111 -0.00368238 0.00104223 0.000501603 -0.00262114 0.00183248 0.000521009 
-0.00163924 0.00161559 0.000499644 -0.000720943 0.00120629 0.00049961 0.000161674 0.00191851 0.000499697 
0.0010666 0.00149372 0.000499469 0.00206609 0.00151261 0.000518108 0.00305307 0.000924394 0.000499573 
0.00394794 0.00141567 0.000499554 -0.00407345 0.00203452 0.0004997 -0.00252754 0.00290431 0.000499304 
-0.0015264 0.00289237 0.000499737 -0.000799263 0.00220361 0.000500794 0.000637632 0.00280725 0.000499589 
0.0016448 0.00245704 0.000499632 0.00293722 0.00200304 0.000499748 0.00249126 0.00299681 0.000499925 
0.00348475 0.00287717 0.000497733 0.00443874 0.00258243 0.000498498 -0.00421865 0.00303566 0.000499384 
-0.00479598 0.00386537 0.000502536 -0.00348268 0.00371207 0.000500225 -0.00249259 0.00390825 0.000499576 
-0.00143998 0.00388929 0.000499582 -0.000497844 0.00322455 0.000499337 0.000462542 0.00379144 0.000499527 
0.00161545 0.00348503 0.000499755 0.00324523 0.0038493 0.000497598 0.00424705 0.00356362 0.000499981 
-0.00406689 0.00455115 0.000499657 -0.00244691 0.00494074 0.000499655 -0.00144854 0.00489039 0.000499889 
-0.000434179 0.00423276 0.000499623 0.000401663 0.00480752 0.000502233 0.00133277 0.00444488 0.000499283 
0.0023481 0.00435126 0.000499699 0.00401195 0.00453509 0.000499691 0.00496324 0.00484253 0.000499156 
-0.00484046 -0.00405856 0.00127659 -0.00389709 -0.00418941 0.00166045 -0.00278995 -0.00459828 0.00132082 
-0.00119236 -0.00461591 0.00133117 -0.000294111 -0.00476427 0.00174652 0.00091541 -0.00496879 0.00133392 
0.000386536 -0.00405648 0.00153372 0.00190226 -0.00499378 0.00115122 0.0031645 -0.00425843 0.00135062 
0.00420668 -0.00482633 0.00124432 -0.00406078 -0.00326146 0.00132387 -0.00301358 -0.00360907 0.00126845 
-0.00205062 -0.0039256 0.00139937 -0.000509987 -0.00387794 0.000952766 0.000525469 -0.00301292 0.00137479 
0.00138391 -0.00396224 0.00129831 0.00247331 -0.00353313 0.00132297 0.00409429 -0.00384201 0.00138895 
-0.00424656 -0.00204454 0.0011625 -0.00331086 -0.00243779 0.00125134 -0.00222754 -0.00268003 0.00126655 
-0.00101538 -0.00257661 0.00135229 -0.00029426 -0.00294518 0.00208432 0.00147804 -0.00273165 0.00106332 
0.00216469 -0.00208246 0.00170173 0.00290213 -0.00263076 0.00130857 0.00490324 -0.00306659 0.00132429 
-0.00392205 -0.00111602 0.00134315 -0.00295288 -0.00144156 0.00131995 -0.00186376 -0.0017593 0.00140386 
-0.000965049 -0.00140268 0.00115077 -3.03334e-05 -0.00191732 0.0014029 0.000650887 -0.00087915 0.0013292 
0.00161849 -0.00121437 0.00119738 0.00259261 -0.00115423 0.00149782 0.00339098 -0.00176703 0.00142369 
0.004721 -0.00196145 0.00129259 0.00419697 -0.00114904 0.0016393 -0.00489578 -0.000889568 0.00128079 
-0.0041079 -0.000108571 0.00163905 -0.00313094 -0.000515544 0.00167125 -0.000265371 -0.000482053 0.00128012 
0.0022078 -0.00028671 0.00118463 0.00342923 -0.000593573 0.00130565 0.00434653 -0.000199067 0.0013631 
-0.00489333 0.000450193 0.00135567 -0.00337242 0.000538776 0.00145871 -0.00227691 0.000295064 0.00124182 
-0.000905483 0.00104539 0.00146889 0.00095484 0.000471934 0.0015075 0.00336119 0.00040372 0.00129518 
0.00421459 0.000920199 0.00136934 -0.00442121 0.00130372 0.00113564 -0.00313653 0.00149805 0.00131767 
-0.00212158 0.00128323 0.00132573 0.000368428 0.00128241 0.00145343 0.00223593 0.00156356 0.0015632 
0.00325565 0.00152744 0.00132756 0.00432857 0.00195706 0.00127412 -0.00476844 0.00245454 0.00109875 
-0.00339636 0.00266774 0.00093243 -0.0039425 0.00208577 0.00153442 -0.002724 0.00266782 0.0017023 
-0.0019721 0.00227636 0.00117204 -0.00101785 0.00230533 0.00147166 -8.49158e-05 0.00260984 0.00117859 
0.00101165 0.00226 0.00124791 0.00223654 0.00260487 0.00138504 -0.00396821 0.00384784 0.00150031 
-0.00300993 0.0035721 0.0013826 -0.00203082 0.00335922 0.00123802 -0.00103776 0.00329611 0.00133748 
-8.47764e-05 0.00359886 0.001329 0.0009871 0.00336116 0.00126796 0.00269566 0.0038289 0.00133671 
0.00364837 0.00343395 0.00130995 0.00468564 0.00333921 0.00136883 -0.00438806 -0.00499482 0.00133022 
-0.0031664 0.00449656 0.00103282 -0.00200352 0.00440299 0.00121748 -0.00101411 0.00429539 0.0013111 
0.000274355 0.00441192 0.00178791 0.00171883 0.00403866 0.00132649 0.00315663 0.00470519 0.00100546 
0.00487673 0.00433082 0.00136899 0.00212906 -0.00424845 0.00193061 0.00156456 -0.00312974 0.00197421 
0.00450817 -0.00151724 0.00251982 -0.00237518 -0.00174626 0.00226217 -0.00291396 -0.00294617 0.00201551 
-0.00151335 -0.00324724 0.00189964 0.000912678 -0.00145742 0.00261236 0.00185706 -0.00119115 0.00219293 
0.00390178 0.0004498 0.00221104 -0.00134881 0.00150984 0.00289776 0.00194418 0.000605911 0.00155311 
-0.000557697 0.00284606 0.00248233 0.00366624 0.00204904 0.00225237 0.0046654 0.00102515 0.00267648 
-0.00141441 0.00340962 0.00227158 0.00017928 0.00208986 0.00202963 -0.00452822 0.00301818 0.00189439 
0.00480578 -0.00460484 0.00203195 -0.00173893 -0.000581863 0.00140795 0.00280831 0.000733028 0.00206049 
-0.00207098 -0.00374723 0.00256548 0.00413472 -0.00306359 0.00206883 -0.00227577 0.00183669 0.00218758 
0.00289718 0.00450847 0.00223233 0.00342037 0.0030949 0.00222166 -0.00467694 0.00460663 0.00235118 
-0.0010104 -0.00153277 0.00218303 -0.000132316 0.000126215 0.00209692 -0.00456653 0.0021103 0.00234041 
0.000805265 -0.00364901 0.00236527 -0.00445654 -0.00243235 0.00204936 -0.00424239 -0.000765673 0.00244078 
0.000505693 0.00212088 0.00299323 0.00108036 -0.000645759 0.00348511 -0.00261624 0.00386097 0.00349654 
-0.00226144 0.000758896 0.00441114 -0.000468886 0.00245636 0.00446644 0.00449343 0.00436932 0.0203357 
-0.000777114 0.0044412 0.0204003 -0.00272619 0.00444179 0.0202534 -0.00286224 0.00343943 0.0204769 
0.00332566 0.00371171 0.0202799 0.00204854 0.00349657 0.0204436 -0.00189245 0.00310029 0.0204996 
0.00320378 0.00219052 0.0203393 0.000412418 0.00275343 0.0203501 -0.00110251 0.00220706 0.0203604 
0.00237522 0.0013498 0.0204657 0.000260365 0.00164165 0.0204505 -0.00205626 -0.0037296 0.00541761 
-0.000647538 -0.00370393 0.00496479 -0.00385976 0.0016648 0.0204274 -0.00202188 0.00183086 0.00516508 
0.00336978 0.000740027 0.0203936 0.00282288 -0.00108592 0.00609964 -0.00159149 0.0038969 0.00568394 
0.000321323 0.00398797 0.00560424 -0.0014815 0.00273957 0.00721499 0.0026293 0.00173475 0.00972765 
-0.00346266 -0.00263077 0.0112102 0.00199397 -0.0033819 0.0137871 0.000386739 -0.00424706 0.0201266 
-0.0040942 -0.00334921 0.0200865 0.00311546 -0.00390956 0.0200632 -0.00414925 -0.00166809 0.0201915 
-0.00290676 -0.00178865 0.0200931 0.00252621 -0.00174574 0.02022 -0.00308737 -0.000767986 0.0201369 
0.00177945 -2.22049e-05 0.0201367 0.00347736 -0.000346949 0.0201421 -0.0042881 0.000771147 0.0200926 
0.00445347 9.15905e-05 0.020144 -0.00276093 0.00139164 0.020118 -0.00065993 0.0012675 0.0199512 
0.00116578 0.00114982 0.0201092 0.00449443 0.00172653 0.020055 -0.00407188 0.00278663 0.0202267 
0.00146962 0.00212093 0.020068 -0.00363599 0.00396152 0.020008 -0.000511304 0.0033201 0.020127 
0.00435783 0.0031681 0.0198426 0.00101745 0.00402965 0.0201906 -0.00342748 -0.00428656 0.0202693 
-0.00232525 -0.00443523 0.0204801 0.00404934 -0.00418437 0.0204656 -0.000929086 -0.00362184 0.0204223 
0.00141908 -0.00379959 0.0204088 -0.00234392 -0.00295677 0.0204255 -0.00134259 -0.00216066 0.020403 
-0.000144835 -0.00253124 0.0204222 0.000980004 -0.00238482 0.0203968 0.00296076 -0.00277856 0.0204801 
0.00419712 -0.002907 0.0204535 0.00100232 -0.00109495 0.020402 0.0042419 -0.00162546 0.0204797 
-0.00413898 -0.000360743 0.0204621 -0.00168403 -0.00099007 0.020474 -0.000140706 -0.000703542 0.0204926 
-0.00251438 0.000142401 0.0203081 -0.00145833 0.000385758 0.0204324 0.000448056 0.00044654 0.0204923 

VERTICES 282 564
1 0 
1 1 
1 2 
1 3 
1 4 
1 5 
1 6 
1 7 
1 8 
1 9 
1 10 
1 11 
1 12 
1 13 
1 14 
1 15 
1 16 
1 17 
1 18 
1 19 
1 20 
1 21 
1 22 
1 23 
1 24 
1 25 
1 26 
1 27 
1 28 
1 29 
1 30 
1 31 
1 32 
1 33 
1 34 
1 35 
1 36 
1 37 
1 38 
1 39 
1 40 
1 41 
1 42 
1 43 
1 44 
1 45 
1 46 
1 47 
1 48 
1 49 
1 50 
1 51 
1 52 
1 53 
1 54 
1 55 
1 56 
1 57 
1 58 
1 59 
1 60 
1 61 
1 62 
1 63 
1 64 
1 65 
1 66 
1 67 
1 68 
1 69 
1 70 
1 71 
1 72 
1 73 
1 74 
1 75 
1 76 
1 77 
1 78 
1 79 
1 80 
1 81 
1 82 
1 83 
1 84 
1 85 
1 86 
1 87 
1 88 
1 89 
1 90 
1 91 
1 92 
1 93 
1 94 
1 95 
1 96 
1 97 
1 98 
1 99 
1 100 
1 101 
1 102 
1 103 
1 104 
1 105 
1 106 
1 107 
1 108 
1 109 
1 110 
1 111 
1 112 
1 113 
1 114 
1 115 
1 116 
1 117 
1 118 
1 119 
1 120 
1 121 
1 122 
1 123 
1 124 
1 125 
1 126 
1 127 
1 128 
1 129 
1 130 
1 131 
1 132 
1 133 
1 134 
1 135 
1 136 
1 137 
1 138 
1 139 
1 140 
1 141 
1 142 
1 143 
1 144 
1 145 
1 146 
1 147 
1 148 
1 149 
1 150 
1 151 
1 152 
1 153 
1 154 
1 155 
1 156 
1 157 
1 158 
1 159 
1 160 
1 161 
1 162 
1 163 
1 164 
1 165 
1 166 
1 167 
1 168 
1 169 
1 170 
1 171 
1 172 
1 173 
1 174 
1 175 
1 176 
1 177 
1 178 
1 179 
1 180 
1 181 
1 182 
1 183 
1 184 
1 185 
1 186 
1 187 
1 188 
1 189 
1 190 
1 191 
1 192 
1 193 
1 194 
1 195 
1 196 
1 197 
1 198 
1 199 
1 200 
1 201 
1 202 
1 203 
1 204 
1 205 
1 206 
1 207 
1 208 
1 209 
1 210 
1 211 
1 212 
1 213 
1 214 
1 215 
1 216 
1 217 
1 218 
1 219 
1 220 
1 221 
1 222 
1 223 
1 224 
1 225 
1 226 
1 227 
1 228 
1 229 
1 230 
1 231 
1 232 
1 233 
1 234 
1 235 
1 236 
1 237 
1 238 
1 239 
1 240 
1 241 
1 242 
1 243 
1 244 
1 245 
1 246 
1 247 
1 248 
1 249 
1 250 
1 251 
1 252 
1 253 
1 254 
1 255 
1 256 
1 257 
1 258 
1 259 
1 260 
1 261 
1 262 
1 263 
1 264 
1 265 
1 266 
1 267 
1 268 
1 269 
1 270 
1 271 
1 272 
1 273 
1 274 
1 275 
1 276 
1 277 
1 278 
1 279 
1 280 
1 281 

POINT_DATA 282
FIELD FieldData 7
id 1 282 int
17 57 7 16 56 69 113 31 48 
91 108 72 89 18 107 70 28 51 
102 36 80 12 95 19 104 22 65 
14 29 88 60 45 78 61 1 26 
103 68 10 27 94 15 110 105 62 
96 82 46 43 37 90 59 42 55 
4 2 77 33 101 54 21 40 25 
53 23 114 58 92 8 20 112 13 
6 35 5 47 52 9 38 67 32 
3 34 39 44 41 79 63 74 24 
50 11 30 85 87 49 137 164 146 
149 222 167 116 118 168 125 124 99 
194 133 139 162 153 206 73 115 121 
157 161 97 136 155 179 170 64 128 
148 76 187 214 86 123 98 159 156 
117 138 169 75 147 160 171 127 165 
120 145 142 129 93 151 126 174 66 
140 158 84 109 119 152 134 130 131 
172 100 215 122 106 154 143 141 166 
83 135 144 71 111 150 183 192 81 
132 216 197 185 193 163 218 195 210 
186 207 177 217 205 211 182 189 196 
180 209 191 176 173 175 203 178 223 
181 212 208 202 220 224 200 225 221 
213 184 269 260 277 237 241 247 232 
226 251 279 250 255 199 190 230 198 
282 204 188 201 219 264 281 278 262 
242 258 239 259 248 268 256 243 261 
266 272 236 271 265 249 244 246 280 
228 238 229 273 274 275 245 276 254 
240 227 267 231 263 270 253 252 233 
234 235 257 
type 1 282 int
1 1 1 1 1 1 1 1 1 
1 1 1 1 1 1 1 1 1 
1 1 1 1 1 1 1 1 1 
1 1 1 1 1 1 1 1 1 
1 1 1 1 1 1 1 1 1 
1 1 1 1 1 1 1 1 1 
1 1 1 1 1 1 1 1 1 
1 1 1 1 1 1 1 1 1 
1 1 1 1 1 1 1 1 1 
1 1 1 1 1 1 1 1 1 
1 1 1 1 1 1 1 1 1 
1 1 1 1 1 1 1 1 1 
1 1 1 1 1 1 1 1 1 
1 1 1 1 1 1 1 1 1 
1 1 1 1 1 1 1 1 1 
1 1 1 1 1 1 1 1 1 
1 1 1 1 1 1 1 1 1 
1 1 1 1 1 1 1 1 1 
1 1 1 1 1 1 1 1 1 
1 1 1 1 1 1 1 1 1 
1 1 1 1 1 1 1 1 1 
1 1 1 1 1 1 1 1 1 
1 1 1 1 1 1 1 1 1 
1 1 1 1 1 1 1 1 1 
1 1 1 1 1 1 1 1 1 
1 1 1 1 1 1 1 1 1 
1 1 1 1 1 1 1 1 1 
1 1 1 1 1 1 1 1 1 
1 1 1 1 1 1 1 1 1 
1 1 1 1 1 1 1 1 1 
1 1 1 1 1 1 1 1 1 
1 1 1 
i 3 282 int
0 0 0 0 1 0 0 0 0 
0 0 0 0 0 0 0 0 0 
0 0 0 0 0 0 -1 0 0 
0 0 0 1 0 0 0 1 0 
0 0 0 0 0 0 0 0 0 
0 1 0 0 0 0 0 0 0 
-1 0 0 1 1 0 1 1 0 
0 0 0 0 0 0 0 0 0 
0 0 0 0 0 0 0 0 0 
0 0 0 0 0 0 0 0 0 
0 0 0 0 0 0 0 0 0 
0 0 0 0 0 0 0 0 0 
0 0 0 0 0 0 0 0 0 
0 0 0 0 0 0 0 0 0 
0 0 0 0 0 0 0 0 0 
0 0 0 0 0 0 0 0 0 
1 0 0 0 0 0 0 0 0 
0 0 0 0 0 0 0 0 0 
0 0 0 0 0 0 0 0 0 
-1 0 0 0 0 0 0 0 0 
0 0 0 0 0 0 0 0 0 
0 0 0 0 0 0 0 0 0 
0 0 0 0 0 0 0 0 0 
1 -1 0 0 0 0 0 0 0 
0 0 0 0 0 0 0 0 0 
0 0 0 -1 0 0 0 0 0 
1 0 0 1 0 0 0 0 0 
0 -1 0 0 0 0 0 0 0 
0 0 0 0 0 0 0 0 0 
1 -1 0 0 -1 0 0 -1 0 
0 -1 0 0 -1 0 0 0 0 
0 0 0 -1 -1 0 -1 -1 0 
1 0 0 1 0 0 0 0 0 
0 0 0 0 1 0 0 1 0 
0 1 0 0 1 0 -1 0 0 
0 0 0 0 0 0 0 1 0 
0 0 0 0 0 0 0 1 0 
0 0 0 0 0 0 0 0 0 
0 -1 0 0 0 0 0 0 0 
0 0 0 0 0 0 0 0 0 
0 0 0 0 0 0 0 0 0 
0 0 0 0 0 0 0 0 0 
0 0 0 0 1 0 0 0 0 
0 1 0 0 0 0 0 0 0 
-1 0 0 0 0 0 0 0 0 
0 0 0 0 0 0 0 0 0 
0 0 0 0 0 0 0 0 0 
0 0 0 0 0 0 0 0 0 
0 0 0 0 0 0 0 0 0 
0 0 0 0 0 0 0 0 0 
0 0 0 0 0 0 0 -1 0 
-1 0 0 0 0 0 1 -1 0 
1 -1 0 0 0 0 0 0 0 
0 0 0 0 0 0 0 0 0 
0 0 0 0 -1 0 1 0 0 
0 0 0 -1 0 0 0 0 0 
0 0 0 0 0 0 0 0 0 
0 0 0 0 0 0 0 1 0 
0 0 0 0 0 0 0 0 0 
0 0 0 0 0 0 0 0 0 
0 0 0 0 1 0 0 0 0 
-1 0 0 0 0 0 0 0 0 
0 0 0 0 0 0 0 0 0 
0 0 0 0 0 0 0 0 0 
0 0 0 0 0 0 0 0 0 
0 0 0 0 0 0 0 0 0 
0 1 0 0 0 0 0 0 0 
0 0 0 0 0 0 0 0 0 
0 -1 0 0 0 0 0 0 0 
0 0 0 0 0 0 0 0 0 
0 0 0 0 0 0 0 0 0 
0 0 0 0 0 0 0 0 0 
0 0 0 0 0 0 0 0 0 
0 0 0 0 0 0 0 0 0 
0 0 0 0 0 0 0 0 0 
0 0 0 0 0 0 0 0 0 
0 0 0 0 0 0 0 0 0 
0 0 0 0 0 0 0 0 0 
0 0 0 0 0 0 0 0 0 
0 0 0 0 0 0 0 0 0 
0 0 0 0 0 0 0 0 0 
0 0 0 0 0 0 0 0 0 
0 0 0 0 0 0 0 0 0 
0 0 0 0 0 0 0 0 0 
0 0 0 0 0 0 0 0 0 
0 0 0 0 0 0 0 0 0 
0 0 0 0 0 0 0 0 0 
0 0 0 0 0 0 0 0 0 
0 0 0 0 0 0 0 0 0 
0 0 0 0 0 0 0 0 0 
0 0 0 0 0 0 0 0 0 
0 0 0 0 0 0 0 0 0 
0 0 0 0 0 0 0 0 0 
0 0 0 0 0 0 0 0 0 

v 3 282 double
-0.000180693 0.00403953 0.00215942 -0.00158434 -0.00524584 0.00218755 -0.00893689 -0.00342783 -0.000880243 
0.00232138 0.00667836 -0.000405872 -0.00206296 0.000370367 -0.000111103 -0.00950841 -0.0195996 0.0209004 
-0.0067206 0.000780735 0.00135203 -0.00110549 0.00821868 0.00190352 0.00293314 -0.00180585 0.00113416 
0.00185478 0.00387398 3.99559e-05 0.00102849 0.00498273 -7.73977e-05 0.000727093 -0.00238662 -0.000874558 
-0.00960031 -0.00481432 0.00169888 -0.016797 -0.0245736 -0.00735108 -0.0136432 -0.00409863 0.0141612 
-0.000987527 0.00524944 -0.00106172 -0.00813887 0.00253672 -0.00225598 0.00115375 0.00132801 0.00533956 
0.00606167 -0.000837015 0.00206396 -0.00288831 0.00461538 -0.0104895 0.0023842 0.00154542 -0.000383408 
-0.0122107 -0.0104394 0.000279716 0.0011348 -0.00223622 0.00561324 -0.0035655 0.00292132 1.04767e-05 
-0.00996862 -0.00737134 -0.000835407 -0.00466624 -0.000218784 -0.00178969 -0.00253139 0.000523949 0.000554668 
4.11392e-06 0.00528271 0.00206222 -0.000537613 0.00297698 0.00193378 0.00359327 0.00634004 -0.000480996 
-0.0111554 0.00189621 -3.50935e-05 -0.0152741 -0.0355644 7.8011e-05 -0.0166475 -0.0066901 0.00126008 
0.00538659 -0.00104568 0.0227622 0.00374244 -0.00278007 0.00918892 0.0155366 -0.0181605 0.00601824 
0.0269686 -0.00173432 -0.00545764 -0.000255433 -0.000238684 -0.00198929 -0.000801478 0.00101189 -0.0365481 
0.000510458 0.00884886 -1.33713e-05 0.00901373 0.00513279 -0.00020172 -0.00792662 -0.00258444 -5.20564e-05 
-0.00735346 0.00330821 -0.0270928 -0.00519454 0.0104241 0.0178679 0.0159295 -0.00127324 0.006062 
0.00419782 -0.0322535 -0.000787091 -0.00411926 -0.00505066 7.59067e-06 -0.00289631 0.00267886 -0.000379946 
-0.00217986 0.00468989 0.0089991 0.010341 -0.000736848 0.000741798 -0.00341837 -0.0019075 -1.37338e-05 
-0.0284079 -0.0335204 -0.00429138 -0.000884684 -0.0232284 -0.0919655 0.0168174 -0.0157335 0.00945882 
-0.00229122 -0.00142561 -0.000802673 -0.0181759 0.00541266 -0.00693495 -0.0308683 0.0141021 0.0105915 
0.012683 0.00180773 0.0104009 -0.000920496 0.00304864 -0.00330093 -0.00395883 0.0018519 0.00332872 
0.00316035 0.0054183 -0.000270747 0.00258809 -0.00670384 -0.000327052 0.00251495 -0.0136681 0.000958036 
0.00821486 -0.00556395 0.00078541 0.00922522 0.0015232 -0.00515066 0.00180207 -0.00429028 -0.00182707 
-0.00179027 -0.00507418 0.00161333 -0.00465843 -0.000242386 -1.76227e-05 0.00105575 0.0248225 -0.00108095 
0.00321658 0.000546527 0.00011777 0.00181192 -0.00546239 -0.00532412 0.00149165 0.000211915 -0.000199958 
0.00381695 0.00763773 1.3781e-05 0.0112813 -0.00244148 -0.000520136 -0.00155859 0.00155399 -0.0040687 
0.000821522 0.0196032 -0.00574979 -0.00335706 0.00068422 0.00351726 -0.0090066 0.000759889 0.00213913 
-0.0189318 0.00862728 0.00339189 -0.00299338 -0.00442757 -0.000152202 -0.00459558 -0.00454364 -3.75409e-05 
0.00806312 0.000194965 -0.000392541 0.00902552 -0.000220293 -0.000277753 0.00288957 0.000175667 -0.000114715 
-0.010619 -0.00369601 0.000693615 -0.00636814 0.025137 -0.00575452 0.00623275 0.00615875 -0.00299815 
-0.00352328 -0.00601614 0.000926597 -0.00103967 -0.00436555 0.000132406 -0.000619068 0.00366346 0.00189798 
0.00166845 -0.00159494 0.000268744 -0.00829473 -0.0175141 0.00243942 -0.00145773 0.000509034 -0.00127055 
0.00207732 -0.00280718 1.51091e-08 0.00217618 0.00557612 -0.000519952 0.00206727 0.00336023 0.00236935 
-0.00950598 0.0271543 -0.0155938 0.0191865 -0.00165933 -0.00261784 -0.0154278 -0.00201201 -0.00437337 
-0.0178709 0.0115523 0.00733732 -0.0393248 -0.0264156 0.0473088 -0.00452397 -0.00708526 -0.000543424 
-0.0361532 0.000732012 0.091015 -0.00159342 -0.0012816 -0.000720143 -0.00329961 -0.00755462 0.00144441 
0.0254055 0.0142151 -0.0147582 0.0202214 0.00372575 0.00745203 -0.00496149 -0.00764423 0.00375592 
0.0130516 -0.0217239 -0.0510907 -0.0212236 -0.000814923 0.0128842 -0.0226819 0.0371857 0.0262964 
-0.0199222 -0.0113855 0.00886446 0.00605621 0.00961862 0.0157858 -0.00230898 0.0128598 -0.00814811 
0.000351586 0.00482436 -0.0571393 0.00602358 0.0160555 -0.00652462 -0.0209203 -0.0198886 0.0110913 
0.0423846 -0.0409762 0.0136447 0.0476113 -0.0505849 0.0523853 0.00799795 0.0109312 -0.0134591 
-0.0321318 0.0136141 -0.0319592 -0.0110737 0.02005 -0.00379865 0.0295012 -0.0324407 -0.00198106 
0.00268497 0.00751047 -0.0016127 0.00453619 -0.0208632 0.00239512 -0.0162486 -0.0176209 -0.0040668 
-0.0128189 -0.0105351 0.00310933 -0.0215559 0.0126524 0.0012543 0.0292254 0.0662459 -0.0198848 
0.0433774 -0.018198 0.0237159 -0.0040452 0.0255579 -0.00524744 0.00170135 0.019876 0.00551863 
0.0155341 -0.0107439 -0.00128428 -0.0303629 -0.0161286 -0.03066 -0.00278376 0.00460699 0.000589802 
-0.00429223 -0.0315207 -0.196948 -0.00893543 -0.00956153 -0.003804 0.0658316 0.00234075 0.0711947 
0.000137059 0.0260739 -0.00955269 -0.0224597 -0.00364237 0.00522384 -0.00915965 -0.00670861 -0.00902533 
-0.0250166 0.0178521 0.00296015 0.0405055 0.0265091 -0.0435594 0.00182964 -0.00790805 -0.000172047 
-0.015441 0.0136114 -0.000757021 -0.011591 -0.0152728 -0.00510147 -0.000181297 -0.00226369 -0.00523358 
0.00384346 -0.0133115 0.00599281 0.0118276 0.00228231 0.0185853 0.019415 -0.0236282 0.00131675 
0.0338063 -0.00852318 0.011072 -0.0408862 -0.0210135 -0.0920424 -0.0238008 0.0210607 0.00438786 
-0.0178713 -0.00348331 -0.00705827 -0.0144688 -6.01938e-05 -0.00653231 -0.00470753 -0.0079116 0.0027191 
0.00271321 0.0211406 -0.00504835 0.0159714 0.00880681 -0.00684157 -0.00414921 -0.00703092 0.00374619 
-0.00129226 -0.000754508 0.00318741 0.00215134 0.000331366 -0.00453492 -0.00536003 -0.0151707 0.00329774 
-0.000429362 -0.0124406 -0.00882788 0.00114073 0.0178421 0.0062453 0.00732879 0.0118037 0.0471475 
0.00192961 -0.0076072 -0.00558504 0.0145172 0.0129662 -0.00168519 0.01186 0.000963218 0.000517347 
0.00999507 -0.0105718 0.00398429 -0.00605763 -0.00259157 0.00815343 -0.0125936 -0.0194508 0.00605506 
0.0355766 0.0372942 -0.00907278 0.0170104 0.0157047 -0.036249 0.0104552 0.0130045 -0.00504393 
-0.00266042 -0.00286632 0.000528101 -0.00171483 -0.00425153 -0.00209756 -0.00117047 0.00156919 -0.00217054 
0.00364777 -0.00745465 0.00887438 -0.00934171 -0.000578818 0.000921261 0.00389957 0.0190825 0.00710966 
0.00806114 0.00979747 -0.00365796 0.0764898 -0.11227 -0.0806157 0.0202621 0.0200302 0.000948031 
-0.048221 0.0850979 0.0137421 0.022423 -0.00389275 0.0204564 -0.024838 -0.000225927 0.000954782 
0.0209286 -0.0582914 -0.0254589 0.00590995 0.0798446 0.00848407 -0.00227449 0.0313219 0.0144926 
-0.00604837 0.0253716 0.0396672 0.206169 0.0448509 -0.020839 -0.0229741 0.0189495 -0.0108353 
-0.0248095 0.128199 -0.00566499 0.0358766 0.0498935 -0.0142116 0.0508059 -0.0110969 -0.016483 
-0.0439421 0.0500748 -0.0398002 -0.113333 0.105227 -0.186487 -0.0289439 -0.00957779 0.0380791 
-0.0328551 0.0538786 -0.0297151 0.0916315 0.0338509 -0.0643019 -0.0168015 -0.0258549 -0.00805232 
0.056277 -0.147593 -0.0604547 0.0134298 -0.129668 0.0115514 0.117155 0.0101547 -0.0296919 
0.110624 -0.193603 -0.226867 -0.0120121 0.0545229 -0.00146922 -0.0230857 0.0927002 0.108572 
-0.007295 0.108463 0.0501335 0.111102 0.153675 -0.0380077 -0.121396 0.0164401 -0.076676 
-0.0322021 0.11102 0.074486 -0.00118297 -0.00151437 -0.533515 0.00557958 -0.162609 -0.270641 
0.0395464 0.0508438 -0.165622 0 0 -0.569317 0 0 -0.569121 
0 0 -0.553131 0 0 -0.55215 -0 -0 -0.01 
-0 -0 -0.01 -0 -0 -0.01 -0 -0 -0.01 
-0 -0 -0.01 -0 -0 -0.01 -0 -0 -0.01 
-0 -0 -0.01 -0 -0 -0.01 -0 -0 -0.01 
-0 -0 -0.01 -0 -0 -0.01 0 0 -0.534982 
0 0 -0.543223 -0 -0 -0.01 0 0 -0.539593 
-0 -0 -0.01 0 0 -0.522327 0 0 -0.530077 
0 0 -0.531549 0 0 -0.500941 0 0 -0.449047 
0 0 -0.415398 0 0 -0.349279 -0 -0 -0.01 
-0 -0 -0.01 -0 -0 -0.01 -0 -0 -0.01 
-0 -0 -0.01 -0 -0 -0.01 -0 -0 -0.01 
-0 -0 -0.01 -0 -0 -0.01 -0 -0 -0.01 
-0 -0 -0.01 -0 -0 -0.01 0 0 -0.0325139 
-0 -0 -0.01 -0 -0 -0.01 -0 -0 -0.01 
-0 -0 -0.01 -0 -0 -0.01 -0 -0 -0.01 
0 0 -0.0564504 -0 -0 -0.01 -0 -0 -0.01 
-0 -0 -0.01 -0 -0 -0.01 -0 -0 -0.01 
-0 -0 -0.01 -0 -0 -0.01 -0 -0 -0.01 
-0 -0 -0.01 -0 -0 -0.01 -0 -0 -0.01 
-0 -0 -0.01 -0 -0 -0.01 -0 -0 -0.01 
-0 -0 -0.01 -0 -0 -0.01 -0 -0 -0.01 
-0 -0 -0.01 -0 -0 -0.01 -0 -0 -0.01 

f 3 282 double
1.20174e-05 -1.3132e-05 2.37639e-06 1.10156e-05 2.38126e-06 -1.18138e-06 -3.73776e-06 -1.75682e-05 1.70371e-06 
-6.83211e-06 3.08614e-06 -3.99302e-08 1.51084e-05 1.16581e-05 5.98621e-07 0 0 -1.28413e-05 
-1.63456e-06 -1.67002e-07 -1.47311e-05 -6.87802e-06 1.66602e-07 -9.53322e-06 -2.40762e-05 5.30238e-06 -1.5577e-05 
9.25425e-10 -3.34224e-09 9.9915e-07 1.4743e-08 -2.16033e-08 3.53677e-06 -8.52285e-08 -3.33849e-08 8.35879e-06 
7.73409e-06 5.07816e-06 1.436e-05 6.09808e-05 8.51008e-05 0.00013713 0 0 -1.28413e-05 
0 0 -1.28413e-05 -3.51696e-05 1.13529e-05 -3.64619e-05 -1.91145e-05 -3.65254e-05 -1.96801e-05 
-1.09369e-06 -4.97486e-07 -1.91104e-05 0 0 -1.28413e-05 4.2068e-05 9.06724e-05 -0.000191856 
2.33994e-07 1.76007e-06 1.24219e-06 0 0 -1.28413e-05 -1.21868e-05 1.19118e-05 -2.89869e-06 
-5.22223e-06 2.17656e-05 -2.64172e-05 -2.2806e-05 8.25481e-06 -1.49305e-05 -1.20385e-05 -1.17154e-05 -3.73871e-07 
-2.80004e-05 -2.34439e-05 1.49722e-05 8.73081e-06 -4.31205e-06 -1.86001e-05 7.15413e-05 0.000116431 -0.00013282 
-1.71986e-06 1.94967e-07 1.19165e-06 2.97276e-06 5.05496e-06 -1.11268e-06 -4.35174e-06 -1.16602e-05 -7.60157e-06 
0 0 -1.28413e-05 -2.25099e-05 2.67641e-05 -1.90387e-05 2.97445e-05 -8.13405e-06 0.000129211 
-4.23897e-05 9.77343e-06 0.000227009 -3.58397e-06 2.10981e-06 6.02863e-06 0.000124993 4.96952e-05 -0.000138849 
2.90509e-08 3.15349e-08 -8.34982e-07 5.12934e-08 -1.54755e-07 7.00141e-07 2.19309e-10 3.94612e-11 7.79103e-07 
-1.00344e-05 6.54175e-05 -0.000117411 0 0 -1.28413e-05 0 0 -1.28413e-05 
-3.25031e-05 4.18151e-05 5.55668e-06 -1.72664e-11 -2.11059e-11 4.38873e-08 -6.42043e-07 -5.09666e-07 -3.97943e-06 
-8.70639e-06 4.51714e-06 -1.84553e-05 6.53889e-07 1.23319e-05 4.55645e-06 2.5134e-09 2.79123e-09 2.54663e-07 
4.49241e-05 7.03272e-05 0.000281346 4.7524e-05 6.71072e-05 5.0922e-05 5.52516e-06 -1.95439e-05 3.43501e-05 
-2.654e-08 -5.63889e-08 1.28414e-06 -0.000118037 9.19192e-05 3.68486e-05 2.86814e-05 1.28627e-06 5.92951e-05 
-2.82542e-06 -1.98833e-05 3.53853e-05 0 0 -1.28413e-05 1.22514e-07 4.21622e-06 -1.06206e-05 
5.37108e-07 -4.55097e-07 -1.4067e-06 7.5561e-08 6.34608e-07 -8.84032e-07 -2.66787e-06 4.34261e-06 -1.56224e-06 
-6.02703e-06 6.29651e-06 1.00677e-05 -2.78197e-06 -1.33771e-06 -1.09469e-05 -7.21886e-06 -4.73844e-06 -1.59269e-05 
-1.80517e-09 -4.35229e-09 -3.33293e-07 4.06314e-11 -3.86767e-12 4.77126e-08 4.66736e-06 -2.18431e-06 2.17395e-06 
-5.53914e-08 3.71954e-08 -3.12809e-06 0 0 -1.28413e-05 2.95112e-06 3.62059e-08 1.77461e-07 
1.05896e-06 -1.94909e-06 1.42481e-07 -2.31232e-06 -1.79696e-06 -1.90902e-06 2.31329e-05 -6.33455e-06 5.99586e-06 
5.94866e-05 0.000129353 0.000282091 -2.04269e-05 1.02746e-05 7.45938e-05 -6.72962e-06 8.2813e-06 -1.07158e-05 
0 0 -1.28413e-05 -4.49691e-07 1.32069e-06 -1.01208e-05 -1.28724e-06 -6.06307e-07 -5.47561e-07 
-1.42765e-06 -9.30308e-06 1.09955e-05 -4.56912e-06 2.24735e-06 2.17733e-06 -1.30338e-06 5.52187e-06 3.79543e-06 
5.619e-08 2.53921e-07 -7.51689e-06 0.000112988 -0.000117283 0.000173202 -0.000173428 -4.71119e-05 -0.000153304 
1.10089e-05 3.47417e-06 -2.11266e-05 6.34164e-06 7.2356e-06 -7.71685e-06 -1.65914e-06 -1.26698e-05 -2.08823e-05 
-2.27367e-06 1.32324e-05 -4.84593e-06 -3.48101e-05 1.37574e-05 -1.08033e-05 -2.28655e-05 5.1362e-06 1.33014e-05 
1.68339e-14 -2.27484e-14 -1.195e-10 -1.39214e-05 4.11208e-06 -6.02378e-07 8.95157e-06 3.88569e-06 2.46524e-05 
-3.52388e-05 0.000355301 -0.000269052 1.70168e-05 3.99828e-05 3.05313e-05 0 0 -1.28413e-05 
6.0803e-06 -3.9103e-06 -6.63756e-06 0 0 -1.28413e-05 7.80588e-07 9.60767e-07 -1.35565e-05 
0 0 -1.28413e-05 0 0 -1.28413e-05 -4.19271e-06 1.83187e-06 -9.89817e-06 
2.83414e-05 -8.16291e-06 -6.75368e-07 0 0 -1.28413e-05 -7.23362e-07 -5.02745e-06 -2.76327e-06 
-2.51946e-05 -1.87163e-05 -5.6511e-05 0 0 -1.28413e-05 0 0 -1.28413e-05 
0 0 -1.28413e-05 -1.21243e-06 -4.04664e-05 -2.30037e-05 0 0 -1.28413e-05 
0.000185558 0.000266368 -0.00555358 1.4089e-06 -1.42865e-06 -1.01458e-05 -3.63252e-06 1.50332e-05 7.40703e-06 
-4.75674e-06 4.11085e-05 9.92298e-05 0 0 -1.28413e-05 2.49447e-05 -4.98855e-06 -1.72901e-05 
-6.29536e-06 1.08927e-05 -1.84395e-06 1.92115e-05 2.67663e-05 5.66657e-06 0 0 -1.28413e-05 
0 0 -1.28413e-05 0 0 -1.28413e-05 1.40669e-05 8.59072e-06 6.10637e-06 
4.66037e-06 5.25224e-06 -1.40706e-05 -3.32948e-06 3.97635e-06 2.32789e-06 0.000122349 -0.000243175 0.000182766 
-3.00649e-05 -6.40077e-06 9.75233e-05 1.75014e-05 -1.68544e-05 4.99406e-06 1.06303e-05 6.97658e-06 -1.11301e-05 
3.32011e-06 4.53216e-06 -7.39072e-06 -4.12734e-05 3.07693e-05 0.000203978 -3.60406e-07 8.66364e-06 5.53978e-06 
-2.0957e-05 -0.000135903 -3.00026e-05 0 0 -1.28413e-05 -0.000115681 0.000235304 -0.000225321 
3.84325e-06 9.81445e-06 -1.28153e-05 8.26438e-06 4.04746e-06 4.05766e-06 0.000105124 -6.93511e-05 7.24811e-05 
1.07904e-05 -2.13844e-05 8.4249e-05 -0.000451512 -0.000292174 9.51968e-05 1.3082e-06 -5.43859e-06 -9.85283e-06 
-8.70508e-07 -9.96479e-07 -3.83646e-06 -5.91706e-05 2.01899e-05 -1.43337e-05 8.25526e-06 4.28997e-07 2.36603e-05 
0 0 -1.28413e-05 5.56045e-05 -5.37135e-05 5.57236e-05 0.000472469 0.000428077 -0.000103718 
0 0 -1.28413e-05 0 0 -1.28413e-05 0 0 -1.28413e-05 
0 0 -1.28413e-05 0 0 -1.28413e-05 -8.34316e-07 -7.13058e-07 -1.06737e-05 
-1.87001e-05 -1.57505e-05 2.85479e-05 1.69101e-06 -4.10757e-06 5.26394e-07 -1.62772e-06 1.47636e-06 -1.17088e-05 
-1.33582e-07 1.4889e-06 -7.22715e-06 0 0 -1.28413e-05 -3.52003e-07 -3.63951e-06 -1.50235e-05 
1.27868e-06 -6.64335e-06 -1.38938e-06 0 0 -1.28413e-05 0 0 -1.28413e-05 
0 0 -1.28413e-05 6.38924e-06 3.11537e-06 -1.03089e-05 -3.79398e-05 3.8058e-05 -2.37367e-05 
4.00769e-05 -3.65857e-05 2.71431e-05 -6.23567e-05 -3.59943e-05 -1.76019e-05 4.09879e-05 7.07402e-06 2.58994e-06 
2.81028e-06 -1.83686e-05 0.000206667 0.000155405 2.14499e-05 0.000129668 4.86767e-05 1.48992e-05 -3.18773e-05 
-1.82077e-06 1.09802e-07 -9.17344e-06 -8.81483e-06 3.87975e-06 -1.39712e-07 -7.64738e-06 2.56722e-06 3.67937e-06 
0 0 -1.28413e-05 6.00615e-05 1.15881e-05 5.29639e-06 2.07488e-05 -5.06043e-06 2.14139e-06 
-7.69484e-05 -5.38606e-05 -1.95363e-05 9.62483e-07 7.89542e-06 -1.52166e-05 -1.37772e-05 -7.74448e-05 0.000104375 
0 0 -1.28413e-05 -1.32369e-05 -7.23747e-07 1.69362e-05 -1.4089e-06 1.42865e-06 -1.55368e-05 
-1.10759e-05 -1.26076e-05 0.000108783 0 0 -1.28413e-05 0 0 -1.28413e-05 
0 0 -1.28413e-05 0 0 -1.28413e-05 5.91706e-05 -2.01899e-05 -1.13488e-05 
0 0 -1.28413e-05 0 0 -1.28413e-05 0 0 -1.28413e-05 
0 0 -1.28413e-05 0 0 -1.28413e-05 1.84955e-05 -1.55688e-05 -2.3211e-07 