/*--------------------------------*- C++ -*----------------------------------*\
| =========                 |                                                 |
| \\      /  F ield         | OpenFOAM: The Open Source CFD Toolbox           |
|  \\    /   O peration     | Version:  5.x                                   |
|   \\  /    A nd           | Web:      www.OpenFOAM.org                      |
|    \\/     M anipulation  |                                                 |
\*---------------------------------------------------------------------------*/
FoamFile
{
    version     2.0;
    format      ascii;
    class       volScalarField;
    location    "1000";
    object      p;
}
// * * * * * * * * * * * * * * * * * * * * * * * * * * * * * * * * * * * * * //

dimensions      [0 2 -2 0 0 0 0];

internalField   nonuniform List<scalar> 
90
(
-0.00409101
-0.0222117
-0.0353802
-0.0509349
-0.0655772
-0.0808818
-0.0961371
-0.111651
-0.127347
-0.143311
-0.159519
-0.175932
-0.19253
-0.209324
-0.226384
-0.243787
-0.261589
-0.279822
-0.298517
-0.317699
-0.337355
-0.357457
-0.377994
-0.398956
-0.420339
-0.442153
-0.464452
-0.487325
-0.51086
-0.53512
-0.560133
-0.585919
-0.612502
-0.639869
-0.667997
-0.696871
-0.726473
-0.756801
-0.787856
-0.81963
-0.852088
-0.885217
-0.919025
-0.953501
-0.988632
-1.02445
-1.06102
-1.09845
-1.13679
-1.17606
-1.21626
-1.2574
-1.29944
-1.34236
-1.38615
-1.43078
-1.47622
-1.52246
-1.56946
-1.61722
-1.66572
-1.71494
-1.76485
-1.8154
-1.86651
-1.91813
-1.97027
-2.02293
-2.07614
-2.12994
-2.18436
-2.23945
-2.29523
-2.35174
-2.40898
-2.46697
-2.52572
-2.58522
-2.64547
-2.70646
-2.76819
-2.83062
-2.89357
-2.9568
-3.02048
-3.08627
-3.15708
-3.23243
-3.29696
-3.31372
)
;

boundaryField
{
    inlet
    {
        type            zeroGradient;
    }
    outlet
    {
        type            fixedValue;
        value           uniform 0;
    }
    repeat_boundary
    {
        type            zeroGradient;
    }
    procBoundary3to1
    {
        type            processor;
        value           nonuniform List<scalar> 
90
(
-0.010475
-0.0354124
-0.0475497
-0.0624589
-0.0765705
-0.0911251
-0.105424
-0.119566
-0.134037
-0.149099
-0.164563
-0.180294
-0.195931
-0.211355
-0.227119
-0.243628
-0.260731
-0.2783
-0.296521
-0.315565
-0.335023
-0.354654
-0.374636
-0.394986
-0.415648
-0.436364
-0.457335
-0.479115
-0.501916
-0.525698
-0.550286
-0.575704
-0.602092
-0.629197
-0.65694
-0.685381
-0.714454
-0.744254
-0.774802
-0.806056
-0.837618
-0.869775
-0.902956
-0.936827
-0.970943
-1.00542
-1.04083
-1.07742
-1.11528
-1.15427
-1.19416
-1.23512
-1.27695
-1.31958
-1.36315
-1.40749
-1.45256
-1.49851
-1.54507
-1.59233
-1.6405
-1.68928
-1.7388
-1.78883
-1.8387
-1.88868
-1.93897
-1.98969
-2.04098
-2.09293
-2.14564
-2.19914
-2.2535
-2.30873
-2.36488
-2.42195
-2.47998
-2.53898
-2.59896
-2.65996
-2.72201
-2.78518
-2.84938
-2.91436
-2.98011
-3.04842
-3.12215
-3.19777
-3.25415
-3.25511
)
;
    }
    procBoundary3to2
    {
        type            processor;
        value           nonuniform List<scalar> 
90
(
-0.0152278
-0.0192492
-0.033078
-0.040752
-0.0532929
-0.0643484
-0.0771497
-0.0892083
-0.102311
-0.116243
-0.131116
-0.146386
-0.161722
-0.17655
-0.19136
-0.206878
-0.223312
-0.240371
-0.258091
-0.27688
-0.296212
-0.31567
-0.335359
-0.355158
-0.374994
-0.394695
-0.414404
-0.43478
-0.456254
-0.479106
-0.502992
-0.527725
-0.55373
-0.580481
-0.607691
-0.63543
-0.663607
-0.692417
-0.721921
-0.752366
-0.783062
-0.8138
-0.845415
-0.877887
-0.910565
-0.943231
-0.976638
-1.01138
-1.0479
-1.08574
-1.12441
-1.16443
-1.20536
-1.24693
-1.28973
-1.3333
-1.37747
-1.42281
-1.46882
-1.5155
-1.56344
-1.61199
-1.66111
-1.71078
-1.75987
-1.80834
-1.85665
-1.90503
-1.95375
-2.00296
-2.05277
-2.10325
-2.1544
-2.20624
-2.25874
-2.31185
-2.36552
-2.41966
-2.4742
-2.52898
-2.58378
-2.6383
-2.69255
-2.74701
-2.80124
-2.84945
-2.88285
-2.91566
-3.01034
-3.18708
)
;
    }
}


// ************************************************************************* //
