FoamFile
{version 2.0; format ascii;class Cloud<passiveParticle>; location 0;object  positions;}
353
(
( 3.01991 0.883542 0.499627 ) 0 
( 2.56364 3.50511 0.499959 ) 0 
( 1.21805 2.22335 0.499976 ) 0 
( 0.287226 2.58882 0.499976 ) 0 
( 0.15505 0.348601 0.499475 ) 0 
( 1.15432 0.37789 0.499731 ) 0 
( 4.6265 2.1578 0.499828 ) 0 
( 4.70901 3.97873 0.499829 ) 0 
( 0.843851 4.34877 0.499575 ) 0 
( 4.05692 2.98221 0.499977 ) 0 
( 1.56241 3.40942 0.499648 ) 0 
( 4.50612 0.736723 0.499678 ) 0 
( 3.11675 2.35722 0.499523 ) 0 
( 2.33594 1.61405 0.499648 ) 0 
( 0.479989 1.30556 0.499783 ) 0 
( 2.1458 2.59658 0.499975 ) 0 
( 2.44623 4.49827 0.499906 ) 0 
( 0.0745002 1.8921 1.20055 ) 0 
( 1.04476 4.31603 1.47821 ) 0 
( 3.66353 3.90913 0.499976 ) 0 
( 3.27034 3.11684 1.13086 ) 0 
( 3.84096 2.27726 1.18398 ) 0 
( 0.707166 3.49974 1.00959 ) 0 
( 3.81858 1.54874 0.499733 ) 0 
( 2.10789 0.553999 0.742844 ) 0 
( 4.20084 4.85143 0.499486 ) 0 
( 0.0178949 0.901072 1.32106 ) 0 
( 3.69752 0.148521 0.499733 ) 0 
( 1.93923 3.91924 1.27267 ) 0 
( 1.4357 1.29217 0.792465 ) 0 
( 0.660997 0.135607 1.33497 ) 0 
( 4.5261 1.45036 1.1994 ) 0 
( 1.21393 1.92947 1.53007 ) 0 
( 3.71889 0.856161 1.2138 ) 0 
( 2.21379 2.09929 1.36498 ) 0 
( 4.72837 4.94093 1.34368 ) 0 
( 0.193512 4.6796 1.85578 ) 0 
( 2.94022 4.05337 1.24663 ) 0 
( 1.55165 2.84826 1.32698 ) 0 
( 1.95358 4.9069 1.42674 ) 0 
( 3.07481 1.62004 1.17336 ) 0 
( 4.274 3.55372 1.29334 ) 0 
( 1.43548 0.648657 1.70436 ) 0 
( 0.559705 2.6846 1.56931 ) 0 
( 3.06277 2.39948 1.79938 ) 0 
( 2.30429 1.12604 1.57534 ) 0 
( 3.84924 4.45718 1.34819 ) 0 
( 4.33259 0.478561 1.90664 ) 0 
( 1.83972 2.39612 2.24316 ) 0 
( 2.55841 4.32646 2.12944 ) 0 
( 1.07107 3.44531 1.96896 ) 0 
( 4.74398 2.67307 1.34853 ) 0 
( 2.87544 0.335591 1.34486 ) 0 
( 0.590928 1.32277 2.02366 ) 0 
( 2.42052 3.16043 1.71081 ) 0 
( 4.14093 1.69795 2.08805 ) 0 
( 0.398395 3.95082 2.509 ) 0 
( 0.863231 0.492007 2.50906 ) 0 
( 1.58885 1.4291 2.31023 ) 0 
( 0.879437 2.1942 2.43439 ) 0 
( 3.52622 3.62453 1.95317 ) 0 
( 4.81953 4.36333 2.15432 ) 0 
( 3.20204 0.359113 2.28913 ) 0 
( 3.19949 1.34576 2.12653 ) 0 
( 1.58094 4.23467 2.31797 ) 0 
( 2.32512 0.78418 2.5147 ) 0 
( 1.80208 3.31366 2.63822 ) 0 
( 0.10819 2.83038 2.44931 ) 0 
( 4.36606 3.08087 2.1792 ) 0 
( 1.29009 2.67302 3.21025 ) 0 
( 3.69581 2.45144 2.57132 ) 0 
( 0.937754 1.39891 3.06851 ) 0 
( 2.71015 2.41587 2.73482 ) 0 
( 3.3358 1.66111 3.06665 ) 0 
( 0.109057 0.736094 3.11845 ) 0 
( 4.12701 3.89718 2.70433 ) 0 
( 1.08667 4.20949 3.18664 ) 0 
( 0.050334 1.73743 2.75594 ) 0 
( 0.540713 4.9306 2.76073 ) 0 
( 2.79846 3.40643 2.60308 ) 0 
( 3.91381 0.934076 2.69188 ) 0 
( 3.51614 4.56788 2.2842 ) 0 
( 3.02805 0.283762 3.27051 ) 0 
( 1.93334 1.91365 3.11404 ) 0 
( 0.191804 1.53153 3.72365 ) 0 
( 3.65311 4.56775 3.27448 ) 0 
( 4.67737 1.29661 3.22571 ) 0 
( 2.54015 3.04041 3.49691 ) 0 
( 0.320129 2.48448 3.36295 ) 0 
( 2.70908 4.96456 3.27768 ) 0 
( 2.24592 4.10735 3.05376 ) 0 
( 2.54692 1.15581 3.416 ) 0 
( 4.82597 2.24182 2.93564 ) 0 
( 4.25067 3.02379 3.17484 ) 0 
( 4.71566 4.43703 3.30567 ) 0 
( 1.58949 0.648563 3.17832 ) 0 
( 3.42657 2.57813 3.52554 ) 0 
( 1.66522 3.51164 3.60849 ) 0 
( 4.22057 2.73147 4.13041 ) 0 
( 1.76481 4.98772 2.94962 ) 0 
( 2.69913 3.91401 3.95651 ) 0 
( 0.110151 4.4015 3.49163 ) 0 
( 1.68833 1.33905 3.89459 ) 0 
( 3.4322 3.58995 3.35433 ) 0 
( 0.823993 0.192144 3.63158 ) 0 
( 0.672576 3.39268 3.58767 ) 0 
( 3.67816 0.935468 3.66326 ) 0 
( 4.492 3.66629 3.90204 ) 0 
( 2.61667 2.07466 3.82597 ) 0 
( 4.54478 0.232444 3.02234 ) 0 
( 1.62638 4.43147 3.99857 ) 0 
( 2.55115 1.26556 4.40981 ) 0 
( 0.158956 2.19236 4.47316 ) 0 
( 1.00702 2.06805 3.95831 ) 0 
( 0.694165 4.75149 4.22388 ) 0 
( 3.18537 4.76919 4.13459 ) 0 
( 3.06361 0.420189 4.26009 ) 0 
( 1.82328 2.63564 4.06434 ) 0 
( 1.58351 0.409455 4.24724 ) 0 
( 4.16989 4.58499 4.13016 ) 0 
( 4.17807 1.74615 3.96686 ) 0 
( 0.708807 0.129171 4.64227 ) 0 
( 0.940064 2.94221 4.43915 ) 0 
( 3.42957 2.21412 4.45661 ) 0 
( 0.220697 3.87791 4.33605 ) 0 
( 1.98857 3.54289 4.55389 ) 0 
( 3.34847 3.22694 4.28208 ) 0 
( 1.82432 1.87379 4.72828 ) 0 
( 4.83063 0.390763 3.96722 ) 0 
( 4.29849 3.37454 4.8919 ) 0 
( 0.832728 1.07357 4.33874 ) 0 
( 3.53431 1.23126 4.6074 ) 0 
( 0.076133 3.08146 4.92286 ) 0 
( 3.53323 4.07998 4.76967 ) 0 
( 2.57735 2.66582 4.72026 ) 0 
( 2.88883 1.79682 5.18673 ) 0 
( 2.3179 0.437106 4.92546 ) 0 
( 4.91253 2.08425 4.55494 ) 0 
( 4.97168 3.60476 5.59441 ) 0 
( 0.311917 2.38747 5.60273 ) 0 
( 2.47811 0.20562 5.88465 ) 0 
( 1.49877 0.988976 5.0792 ) 0 
( 3.08912 0.844089 5.41454 ) 0 
( 3.49252 2.87307 5.20591 ) 0 
( 1.66082 2.78187 5.11316 ) 0 
( 1.12702 4.00878 4.75473 ) 0 
( 3.28087 4.67206 5.53488 ) 0 
( 0.877619 1.7867 5.03814 ) 0 
( 0.500582 0.884963 5.26277 ) 0 
( 3.92451 0.293661 4.75248 ) 0 
( 2.56513 4.26185 4.94179 ) 0 
( 0.29785 4.20553 5.27759 ) 0 
( 4.77181 4.25468 4.86143 ) 0 
( 4.52079 1.09419 4.69629 ) 0 
( 1.1924 0.614561 5.95422 ) 0 
( 4.10847 1.90045 5.1203 ) 0 
( 2.63737 3.31277 5.4803 ) 0 
( 2.03436 1.59619 5.66561 ) 0 
( 0.401792 1.49657 6.04746 ) 0 
( 0.138216 4.63701 6.16533 ) 0 
( 4.37683 2.73005 5.65235 ) 0 
( 3.3363 0.710846 6.37401 ) 0 
( 3.65245 0.0586798 5.68529 ) 0 
( 4.19266 4.97023 6.0447 ) 0 
( 0.668079 3.36055 5.67855 ) 0 
( 1.71706 3.70322 5.50273 ) 0 
( 4.10158 4.97234 5.04918 ) 0 
( 2.94683 2.46354 5.93664 ) 0 
( 4.10598 0.945042 5.5936 ) 0 
( 1.03744 4.22541 6.0178 ) 0 
( 1.98228 2.69834 6.05593 ) 0 
( 2.3803 0.802005 6.68111 ) 0 
( 4.09272 4.08126 5.59807 ) 0 
( 4.69237 1.8222 5.92824 ) 0 
( 1.86145 4.67875 5.67865 ) 0 
( 3.58378 3.36318 6.07246 ) 0 
( 1.56219 1.35295 6.51799 ) 0 
( 1.20388 2.08274 5.93603 ) 0 
( 3.48232 1.62074 5.98612 ) 0 
( 1.77624 3.65504 6.49971 ) 0 
( 4.72048 4.18495 6.36922 ) 0 
( 3.01201 0.201393 7.17067 ) 0 
( 2.61349 4.13437 6.04969 ) 0 
( 3.67813 4.25424 6.51604 ) 0 
( 0.332964 3.78332 6.64793 ) 0 
( 3.81557 2.45162 6.4317 ) 0 
( 0.919827 2.02116 6.89271 ) 0 
( 4.45079 3.23701 6.55405 ) 0 
( 0.266277 0.528834 6.3707 ) 0 
( 4.59101 0.684334 6.42819 ) 0 
( 2.42069 1.87056 6.54589 ) 0 
( 1.40155 0.450754 6.91818 ) 0 
( 2.6889 3.24635 6.50264 ) 0 
( 3.09643 1.36993 7.08658 ) 0 
( 4.13305 1.5173 6.73823 ) 0 
( 4.82468 2.23366 6.82997 ) 0 
( 1.08064 2.91674 6.47376 ) 0 
( 4.81539 1.04918 7.39566 ) 0 
( 0.946356 4.50238 6.97417 ) 0 
( 4.29365 3.94611 7.24128 ) 0 
( 3.38324 3.01872 7.18488 ) 0 
( 0.535765 0.22252 7.36338 ) 0 
( 3.9289 0.641987 7.17639 ) 0 
( 0.380765 1.19083 7.11127 ) 0 
( 2.00185 1.60402 7.41376 ) 0 
( 0.590002 2.85089 7.34253 ) 0 
( 4.32805 2.86885 7.4754 ) 0 
( 2.85228 4.06821 7.04805 ) 0 
( 1.80795 2.50264 7.02072 ) 0 
( 3.69315 2.09832 7.42274 ) 0 
( 0.0720465 0.894264 8.03735 ) 0 
( 1.78299 0.867003 8.05282 ) 0 
( 1.23313 3.61648 7.33839 ) 0 
( 4.53875 0.125268 7.97898 ) 0 
( 3.75118 3.52047 7.96759 ) 0 
( 2.71359 2.30697 7.39644 ) 0 
( 4.59479 1.94995 7.82877 ) 0 
( 1.94454 4.48708 7.03138 ) 0 
( 3.62755 1.23497 7.92295 ) 0 
( 0.292087 3.7556 7.64658 ) 0 
( 0.921863 4.59156 7.96975 ) 0 
( 4.12783 4.93137 7.20064 ) 0 
( 4.20327 4.39748 8.12889 ) 0 
( 1.06432 1.53533 7.75468 ) 0 
( 2.76161 0.664578 8.02056 ) 0 
( 2.70888 1.65413 8.1537 ) 0 
( 1.68341 3.46086 8.21746 ) 0 
( 4.51387 1.05383 8.34902 ) 0 
( 3.44227 2.29862 8.36962 ) 0 
( 0.103209 2.92566 8.21267 ) 0 
( 4.68321 2.76314 8.40397 ) 0 
( 3.24796 4.76535 7.64581 ) 0 
( 2.8702 3.05369 8.0426 ) 0 
( 2.34562 4.1874 7.90171 ) 0 
( 1.67791 4.3753 8.62185 ) 0 
( 1.22935 0.0345734 8.06176 ) 0 
( 2.1981 3.35576 7.36672 ) 0 
( 4.89146 3.65172 7.98675 ) 0 
( 1.29946 3.35754 9.13488 ) 0 
( 3.3961 4.14199 8.66571 ) 0 
( 3.96939 0.0472046 8.79711 ) 0 
( 3.0504 2.9788 9.02323 ) 0 
( 0.825413 0.718437 8.67075 ) 0 
( 3.64643 1.23507 8.92263 ) 0 
( 4.37349 1.91603 8.83547 ) 0 
( 2.45087 3.74489 8.7921 ) 0 
( 1.66714 1.74038 8.52571 ) 0 
( 4.67223 3.79668 8.95141 ) 0 
( 1.36064 2.56489 7.91274 ) 0 
( 0.207117 1.4898 8.82909 ) 0 
( 0.751183 2.3123 8.66403 ) 0 
( 2.13434 0.0376324 8.48712 ) 0 
( 0.26087 4.97535 8.9877 ) 0 
( 2.12405 2.62931 8.55542 ) 0 
( 2.65273 4.80932 8.62182 ) 0 
( 1.06652 1.46474 9.33962 ) 0 
( 0.332669 3.10438 9.16938 ) 0 
( 4.04362 3.03792 9.12163 ) 0 
( 0.631671 3.85814 8.58422 ) 0 
( 4.39259 0.745681 9.37391 ) 0 
( 4.14788 4.63414 9.10436 ) 0 
( 2.22485 4.45876 9.4548 ) 0 
( 2.65486 1.21377 9.0498 ) 0 
( 1.74785 0.792897 9.04931 ) 0 
( 1.51908 2.35567 9.30309 ) 0 
( 3.00585 0.287377 8.91369 ) 0 
( 2.18226 3.07498 9.5098 ) 0 
( 2.26141 0.0991663 9.55405 ) 0 
( 3.23325 4.86791 9.43379 ) 0 
( 3.46557 2.99608 9.93642 ) 0 
( 1.17705 0.386366 9.76257 ) 0 
( 0.173599 4.08925 9.44274 ) 0 
( 3.07875 3.83986 9.56453 ) 0 
( 0.44128 2.19866 9.60787 ) 0 
( 1.0392 2.90456 9.9875 ) 0 
( 1.76169 3.80303 10.051 ) 0 
( 0.296893 0.817078 9.56332 ) 0 
( 3.82937 1.38793 9.8937 ) 0 
( 3.56412 2.18801 9.35582 ) 0 
( 3.30206 0.383326 9.8639 ) 0 
( 1.98572 1.46111 9.75412 ) 0 
( 2.56293 2.16577 9.34154 ) 0 
( 4.89773 4.44585 9.7384 ) 0 
( 1.07906 4.51236 9.41079 ) 0 
( 2.02826 2.35953 10.1911 ) 0 
( 1.84754 0.712764 10.4287 ) 0 
( 4.52172 2.38325 9.707 ) 0 
( 2.61008 4.2373 10.3534 ) 0 
( 0.79574 3.99817 10.2202 ) 0 
( 4.18634 0.567326 10.3398 ) 0 
( 0.304214 0.155569 10.3131 ) 0 
( 3.89818 4.23346 9.98584 ) 0 
( 1.14852 1.88703 10.2423 ) 0 
( 3.08221 2.00519 10.2126 ) 0 
( 4.39299 3.36466 9.99968 ) 0 
( 2.59847 0.0557422 10.4945 ) 0 
( 2.76709 2.86255 10.6393 ) 0 
( 4.13976 1.54782 10.8307 ) 0 
( 0.863244 0.967737 10.5131 ) 0 
( 0.701626 4.60893 11.0238 ) 0 
( 4.98923 1.78937 10.3616 ) 0 
( 2.33184 1.54771 10.6897 ) 0 
( 3.36988 3.66929 10.6695 ) 0 
( 2.14452 3.58165 10.9478 ) 0 
( 4.05633 2.51288 10.5825 ) 0 
( 0.116291 1.6122 10.3497 ) 0 
( 3.19815 1.05731 10.5952 ) 0 
( 1.50242 2.81604 10.9087 ) 0 
( 4.7675 4.03469 10.6406 ) 0 
( 0.595063 3.22799 10.8255 ) 0 
( 1.65966 4.98017 10.094 ) 0 
( 1.76272 0.216861 11.2928 ) 0 
( 0.564423 2.34725 11.3158 ) 0 
( 0.197925 1.13995 11.2395 ) 0 
( 1.24107 1.6199 11.2014 ) 0 
( 3.6897 0.907405 11.453 ) 0 
( 2.79194 4.39138 11.3245 ) 0 
( 2.68285 0.60714 11.3244 ) 0 
( 3.49892 2.89396 11.32 ) 0 
( 0.766408 0.265181 11.2181 ) 0 
( 4.78885 2.17542 11.2621 ) 0 
( 1.5112 4.18612 11.4309 ) 0 
( 3.91909 4.44903 10.9699 ) 0 
( 3.14416 1.85264 11.1989 ) 0 
( 2.26972 2.32278 11.3184 ) 0 
( 4.64707 0.14542 11.1206 ) 0 
( 3.51052 0.0918497 10.9029 ) 0 
( 0.255114 0.341363 12.0741 ) 0 
( 4.94774 3.33297 11.3298 ) 0 
( 1.41678 2.37123 11.8381 ) 0 
( 0.42026 4.86377 11.9489 ) 0 
( 2.95935 2.4449 12.0322 ) 0 
( 1.10393 3.3082 11.6826 ) 0 
( 1.24969 0.864304 11.8564 ) 0 
( 3.7261 3.79142 11.6981 ) 0 
( 2.09815 1.35347 11.6423 ) 0 
( 2.13171 4.7321 11.9938 ) 0 
( 3.01224 1.34043 12.0476 ) 0 
( 3.96237 1.92987 11.7686 ) 0 
( 3.25452 0.054364 11.9307 ) 0 
( 4.49995 1.11892 11.9996 ) 0 
( 1.1099 2.93022 12.6084 ) 0 
( 4.12704 4.80217 12.3614 ) 0 
( 1.6868 0.342887 12.5892 ) 0 
( 4.85133 2.02147 12.2484 ) 0 
( 2.77991 3.46815 11.7116 ) 0 
( 3.74889 2.36917 12.6412 ) 0 
( 0.790871 0.86817 12.7449 ) 0 
( 4.64746 4.16958 11.7879 ) 0 
( 4.73744 0.15728 12.5681 ) 0 
( 0.488516 2.22526 12.9503 ) 0 
( 0.762102 1.68483 12.1546 ) 0 
( 4.28636 2.89184 11.9364 ) 0 
)
