/*--------------------------------*- C++ -*----------------------------------*\
| =========                 |                                                 |
| \\      /  F ield         | OpenFOAM: The Open Source CFD Toolbox           |
|  \\    /   O peration     | Version:  5.x                                   |
|   \\  /    A nd           | Web:      www.OpenFOAM.org                      |
|    \\/     M anipulation  |                                                 |
\*---------------------------------------------------------------------------*/
FoamFile
{
    version     2.0;
    format      ascii;
    class       surfaceScalarField;
    location    "40000";
    object      phi;
}
// * * * * * * * * * * * * * * * * * * * * * * * * * * * * * * * * * * * * * //

dimensions      [0 3 -1 0 0 0 0];

internalField   nonuniform List<scalar> 
5825
(
-1.68807e-06
0.000162445
-999.998
-5.44469e-05
0.000167462
-999.998
-7.72649e-05
0.000164924
-999.999
-9.20461e-05
0.000170308
-999.999
0.000199403
-999.999
-9.86699e-06
0.000149888
-999.998
-5.12643e-05
0.00015314
-999.998
-7.24516e-05
0.000151698
-999.998
-8.07416e-05
0.000157448
-999.998
0.000167277
-999.998
-7.85935e-06
0.000112118
-999.998
-4.82342e-05
0.000115983
-999.998
-6.65857e-05
0.000115389
-999.998
-6.97764e-05
0.000119419
-999.998
0.000136404
-999.998
-8.92978e-06
6.10075e-05
-999.998
-4.73166e-05
5.81724e-05
-999.998
-6.41411e-05
5.83896e-05
-999.998
-6.21329e-05
6.05903e-05
-999.998
7.20691e-05
-999.998
-8.61069e-06
-999.997
-4.59964e-05
-999.998
-6.03686e-05
-999.998
-5.68042e-05
-999.998
-999.998
-3.78268e-05
0.000466658
-999.998
-0.00015685
0.000467552
-999.999
-0.000206836
0.000469109
-999.999
-0.000189044
0.000478324
-999.999
0.000513007
-999.999
-4.53416e-05
0.00042778
-999.998
-0.000144541
0.000435291
-999.998
-0.000194507
0.00043495
-999.998
-0.000195707
0.000436795
-999.998
0.000460934
-999.998
-4.91055e-05
0.000324674
-999.998
-0.000140424
0.000326905
-999.998
-0.000185014
0.000325604
-999.998
-0.000191592
0.000329401
-999.998
0.00035631
-999.998
-4.18273e-05
0.000168053
-999.998
-0.000136683
0.000157911
-999.998
-0.000184424
0.000156681
-999.998
-0.000189095
0.000157001
-999.998
0.000168022
-999.998
-5.08968e-05
-999.997
-0.000134836
-999.997
-0.00017821
-999.998
-0.000197111
-999.998
-999.998
-0.000109397
0.000839047
-999.999
-0.000255725
0.00083988
-999.999
-0.00032428
0.000853285
-999.999
-0.000249722
0.000843669
-999.999
0.000826193
-999.999
-0.000123948
0.000757678
-999.998
-0.000242312
0.000763659
-999.998
-0.000298174
0.000765784
-999.998
-0.000306482
0.000753957
-999.998
0.000739452
-999.998
-0.000110016
0.000570082
-999.998
-0.000230564
0.000571554
-999.998
-0.000298562
0.000566128
-999.998
-0.000329387
0.000559863
-999.998
0.000549997
-999.998
-0.000108883
0.000290202
-999.997
-0.000231515
0.000277595
-999.997
-0.000307556
0.000274488
-999.997
-0.000349475
0.000271854
-999.998
0.000260701
-999.998
-0.00012162
-999.997
-0.000231454
-999.997
-0.000307223
-999.997
-0.000361397
-999.997
-999.998
-0.000201415
0.0013523
-999.999
-0.000350636
0.00135883
-999.999
-0.00041381
0.00137311
-999.999
-0.000354616
0.00134965
-999.999
0.0012656
-999.999
-0.000194166
0.0011806
-999.998
-0.000318361
0.00119188
-999.998
-0.000390565
0.0011883
-999.998
-0.000416296
0.00116405
-999.998
0.00113521
-999.998
-0.000185181
0.000881995
-999.997
-0.000316766
0.000881655
-999.997
-0.000413062
0.000870384
-999.997
-0.000469102
0.000849839
-999.998
0.000811914
-999.998
-0.000185245
0.000455266
-999.997
-0.000326558
0.000446722
-999.997
-0.000435989
0.000441678
-999.997
-0.000511491
0.000431358
-999.997
0.000408057
-999.997
-0.000192106
-999.997
-0.000329683
-999.997
-0.000444795
-999.997
-0.000534077
-999.997
-999.997
-0.00026673
0.00205909
-999.998
-0.000416888
0.00207208
-999.998
-0.000525137
0.00207515
-999.998
-0.000506343
0.00203755
-999.999
0.00196052
-999.999
-0.000257093
0.00175099
-999.997
-0.00040181
0.00175951
-999.997
-0.000514858
0.00174544
-999.997
-0.000565262
0.0017052
-999.998
0.00167614
-999.998
-0.000250858
0.0012923
-999.997
-0.000415907
0.00128988
-999.997
-0.000552824
0.00126952
-999.997
-0.000641935
0.0012328
-999.997
0.00118777
-999.997
-0.000254277
0.000678209
-999.996
-0.000436518
0.000677935
-999.996
-0.00059059
0.000665854
-999.996
-0.000703675
0.000643078
-999.996
0.000606104
-999.997
-0.000254149
-999.996
-0.000447225
-999.996
-0.000610444
-999.996
-0.000741087
-999.996
-999.997
-0.000310337
0.00297039
-999.998
-0.000514105
0.00298075
-999.998
-0.000697718
0.00296662
-999.998
-0.000762
0.00291983
-999.998
0.0028231
-999.999
-0.000314824
0.00249608
-999.996
-0.000538675
0.0024977
-999.997
-0.000721343
0.00246398
-999.997
-0.000836094
0.00240096
-999.997
0.00236063
-999.998
-0.000314211
0.00182271
-999.995
-0.000566341
0.00181588
-999.996
-0.000774496
0.00178269
-999.996
-0.000929074
0.0017302
-999.996
0.00166938
-999.997
-0.000324513
0.000961871
-999.995
-0.000602049
0.000961085
-999.995
-0.000827961
0.000940382
-999.995
-0.000991629
0.000906102
-999.996
0.000856362
-999.996
-0.000325102
-999.994
-0.000623833
-999.995
-0.000860645
-999.995
-0.00103927
-999.995
-999.996
-0.000379234
0.00409318
-999.997
-0.000723513
0.00409813
-999.997
-0.00100166
0.00407664
-999.997
-0.00123156
0.00403178
-999.998
0.00397051
-999.998
-0.000396914
0.00345322
-999.995
-0.000781921
0.00344763
-999.995
-0.00107802
0.00339706
-999.996
-0.00128876
0.00331721
-999.996
0.0032649
-999.997
-0.000405117
0.00249942
-999.994
-0.000819319
0.00248592
-999.994
-0.00113677
0.00244341
-999.995
-0.0013638
0.00238371
-999.995
0.00232152
-999.996
-0.000426667
0.00131177
-999.993
-0.000866843
0.00130439
-999.993
-0.0012001
0.00127732
-999.994
-0.00142528
0.00124103
-999.994
0.00119251
-999.995
-0.000436723
-999.993
-0.0008931
-999.993
-0.00123378
-999.993
-0.00146748
-999.994
-999.994
-0.000526948
0.00553847
-999.996
-0.00110574
0.00554027
-999.996
-0.00152802
0.00549709
-999.997
-0.00190977
0.00546669
-999.998
0.00547127
-999.998
-0.000542569
0.00469084
-999.994
-0.00115626
0.00468201
-999.994
-0.00160246
0.00463309
-999.995
-0.00192508
0.00457717
-999.996
0.00452351
-999.996
-0.00056274
0.00337871
-999.992
-0.00120031
0.0033607
-999.993
-0.00165766
0.00331986
-999.993
-0.00195772
0.00327297
-999.994
0.00322547
-999.995
-0.000590294
0.00175535
-999.991
-0.00124189
0.001738
-999.991
-0.00170995
0.00171819
-999.992
-0.00200264
0.00169659
-999.993
0.00166714
-999.993
-0.000610281
-999.991
-0.00125949
-999.991
-0.00172773
-999.991
-0.0020167
-999.992
-999.993
-0.000779012
0.00744745
-999.995
-0.00164518
0.00745551
-999.996
-0.00226203
0.00743273
-999.996
-0.00265319
0.00739495
-999.997
0.00736948
-999.998
-0.00078808
0.00633194
-999.992
-0.0016643
0.00632732
-999.993
-0.00227836
0.0062965
-999.993
-0.00267498
0.00625786
-999.994
0.00624752
-999.995
-0.000808025
0.00455931
-999.99
-0.00169686
0.0045463
-999.991
-0.00232036
0.00452398
-999.991
-0.00269792
0.0045002
-999.992
0.00449061
-999.993
-0.000831391
0.00235646
-999.989
-0.00171842
0.00233695
-999.989
-0.00234415
0.0023334
-999.989
-0.00270794
0.00233613
-999.99
0.00235126
-999.991
-0.000855184
-999.988
-0.0017181
-999.988
-0.0023361
-999.989
-0.00268428
-999.989
-999.99
-0.00113894
0.0100603
-999.994
-0.00230039
0.0100817
-999.994
-0.00313525
0.0100786
-999.995
-0.00358323
0.010047
-999.996
0.00996883
-999.998
-0.00113746
0.00857116
-999.99
-0.00229331
0.00858052
-999.991
-0.00311966
0.00857317
-999.992
-0.00361826
0.00856028
-999.993
0.00859995
-999.994
-0.00114822
0.0061911
-999.987
-0.00230517
0.00619344
-999.988
-0.00313649
0.00619511
-999.988
-0.00362323
0.00620445
-999.989
0.00625325
-999.991
-0.00115949
0.00320701
-999.985
-0.00230255
0.00319403
-999.985
-0.00312338
0.00320807
-999.986
-0.00358218
0.00323806
-999.987
0.00329554
-999.988
-0.00117783
-999.984
-0.00228325
-999.984
-0.00308605
-999.985
-0.00351751
-999.986
-999.987
-0.00158864
0.0137051
-999.992
-0.00306566
0.0137389
-999.993
-0.00420185
0.0137399
-999.994
-0.00486936
0.0137359
-999.995
0.0137278
-999.997
-0.00158576
0.0116745
-999.987
-0.00306036
0.0117
-999.988
-0.00417517
0.0117108
-999.989
-0.00484038
0.0117329
-999.99
0.0118288
-999.992
-0.00158623
0.00846128
-999.983
-0.00305339
0.00848166
-999.983
-0.00415435
0.00850213
-999.984
-0.00479958
0.00854458
-999.986
0.00864567
-999.987
-0.00158486
0.00440835
-999.98
-0.00303264
0.0044081
-999.98
-0.00410797
0.00443407
-999.981
-0.00470974
0.00448368
-999.982
0.00456549
-999.984
-0.00159213
-999.978
-0.00300032
-999.978
-0.00404877
-999.979
-0.00462131
-999.981
-999.982
-0.002126
0.0187574
-999.989
-0.00400542
0.0187896
-999.99
-0.00551424
0.0187732
-999.991
-0.00643801
0.0187703
-999.993
0.0188012
-999.995
-0.00213791
0.0159543
-999.982
-0.00402315
0.0159904
-999.983
-0.00550711
0.0160061
-999.984
-0.00640159
0.0160491
-999.986
0.0161336
-999.988
-0.00213815
0.0115857
-999.976
-0.00400959
0.0116195
-999.977
-0.00546537
0.0116447
-999.978
-0.00633571
0.0116996
-999.98
0.0118001
-999.982
-0.00213107
0.00606995
-999.972
-0.0039848
0.00608468
-999.973
-0.00540855
0.0061116
-999.974
-0.00623976
0.0061615
-999.976
0.00622713
-999.978
-0.00212606
-999.97
-0.00394954
-999.971
-0.00534625
-999.972
-0.00616238
-999.974
-999.976
-0.00280522
0.0256437
-999.985
-0.00526004
0.0256672
-999.986
-0.00722132
0.0256268
-999.988
-0.00833795
0.0255774
-999.99
0.025479
-999.993
-0.00284182
0.0217909
-999.976
-0.00530272
0.0218337
-999.977
-0.00726773
0.0218416
-999.978
-0.00844128
0.021869
-999.981
0.0218784
-999.984
-0.00285014
0.0158382
-999.968
-0.00529755
0.0158791
-999.969
-0.00724183
0.0158943
-999.97
-0.00843539
0.0159335
-999.973
0.0159811
-999.976
-0.00284634
0.00832944
-999.962
-0.00528294
0.00835721
-999.963
-0.00720112
0.00837541
-999.965
-0.00838662
0.00840653
-999.967
0.00842659
-999.97
-0.00283185
-999.959
-0.00525343
-999.96
-0.00715335
-999.961
-0.00834765
-999.964
-999.967
-0.00374441
0.0349625
-999.979
-0.0070414
0.0349963
-999.981
-0.00963668
0.034946
-999.983
-0.0110638
0.034841
-999.987
0.034609
-999.991
-0.00379126
0.0297177
-999.966
-0.00709143
0.0297723
-999.968
-0.00973332
0.0297697
-999.97
-0.0113087
0.0297705
-999.974
0.0297046
-999.978
-0.00380731
0.0216083
-999.955
-0.00709796
0.0216545
-999.957
-0.00973339
0.021657
-999.959
-0.0113845
0.0216721
-999.963
0.0216561
-999.967
-0.00381163
0.0113849
-999.947
-0.00709586
0.011424
-999.949
-0.00971528
0.0114316
-999.951
-0.0114007
0.0114377
-999.955
0.0114126
-999.959
-0.00379042
-999.943
-0.00707265
-999.945
-0.00968615
-999.947
-0.0113998
-999.951
-999.955
-0.00507104
0.0476242
-999.972
-0.00957234
0.047698
-999.973
-0.013122
0.0476566
-999.977
-0.0151651
0.0475478
-999.982
0.0473355
-999.988
-0.00510811
0.0405086
-999.954
-0.00961368
0.040586
-999.956
-0.0132205
0.0405813
-999.959
-0.0153951
0.0405757
-999.964
0.0404825
-999.97
-0.00512639
0.0294571
-999.939
-0.00962199
0.0295158
-999.941
-0.0132246
0.029513
-999.944
-0.0155049
0.0295105
-999.949
0.0294505
-999.955
-0.00513564
0.0155284
-999.928
-0.00962537
0.0155795
-999.93
-0.0132233
0.0155767
-999.933
-0.015569
0.0155597
-999.938
0.0155062
-999.944
-0.00510837
-999.922
-0.00960656
-999.924
-0.0132083
-999.928
-0.0155877
-999.933
-999.939
-0.00689812
0.0649079
-999.961
-0.0130634
0.0650317
-999.964
-0.0179636
0.0649961
-999.969
-0.0209372
0.064916
-999.975
0.0647936
-999.983
-0.00692673
0.0552364
-999.937
-0.0131042
0.0553463
-999.94
-0.0180405
0.0553409
-999.945
-0.0210677
0.0553314
-999.951
0.0552261
-999.959
-0.00694525
0.0401641
-999.917
-0.0131124
0.0402456
-999.919
-0.0180475
0.0402338
-999.924
-0.0211843
0.0402083
-999.931
0.0401149
-999.939
-0.00695565
0.0211697
-999.902
-0.0131257
0.0212279
-999.904
-0.0180702
0.0212084
-999.909
-0.0212806
0.0211696
-999.916
0.0210977
-999.924
-0.00692915
-999.894
-0.0131156
-999.897
-0.0180654
-999.901
-0.0213039
-999.908
-999.916
-0.00937202
0.0885023
-999.947
-0.017801
0.0886664
-999.951
-0.0245061
0.0886103
-999.957
-0.0286836
0.0885189
-999.966
0.0884078
-999.977
-0.00941521
0.0753382
-999.915
-0.0178684
0.0754849
-999.918
-0.0246046
0.0754576
-999.925
-0.0288016
0.0754077
-999.934
0.0752566
-999.945
-0.00944204
0.0547793
-999.887
-0.0178993
0.054883
-999.89
-0.0246533
0.0548413
-999.897
-0.0289549
0.054773
-999.906
0.0546361
-999.917
-0.00946343
0.0288571
-999.866
-0.0179438
0.0289126
-999.87
-0.02472
0.0288704
-999.877
-0.0290898
0.0288085
-999.886
0.0287176
-999.897
-0.00945142
-999.856
-0.0179457
-999.859
-0.0247231
-999.866
-0.0291117
-999.875
-999.886
-0.0127398
0.120655
-999.928
-0.02424
0.120858
-999.933
-0.0333418
0.120753
-999.942
-0.0390849
0.120578
-999.954
0.120365
-999.969
-0.0128176
0.102745
-999.884
-0.0243597
0.102926
-999.889
-0.0335281
0.102843
-999.898
-0.0393047
0.102707
-999.91
0.102466
-999.925
-0.0128724
0.0747132
-999.846
-0.0244493
0.0748314
-999.85
-0.0336649
0.0747401
-999.86
-0.0395419
0.074609
-999.872
0.0744124
-999.887
-0.0129253
0.0393344
-999.818
-0.0245445
0.0393888
-999.823
-0.0337947
0.0393234
-999.832
-0.0397332
0.0392317
-999.845
0.0391209
-999.859
-0.0129309
-999.803
-0.0245549
-999.808
-0.0338068
-999.817
-0.0397503
-999.83
-999.845
-0.017355
0.164458
-999.903
-0.0330084
0.164717
-999.909
-0.0453364
0.164533
-999.921
-0.0531624
0.164217
-999.938
0.163838
-999.958
-0.0174771
0.140103
-999.842
-0.0332096
0.140317
-999.848
-0.0456624
0.140146
-999.861
-0.0535466
0.139883
-999.878
0.139508
-999.897
-0.0175848
0.101903
-999.79
-0.0333907
0.10204
-999.797
-0.0459276
0.101884
-999.809
-0.0539188
0.101663
-999.826
0.101384
-999.846
-0.0176819
0.0536409
-999.752
-0.0335519
0.0537083
-999.759
-0.0461469
0.0536093
-999.771
-0.0541919
0.0534693
-999.789
0.0533267
-999.809
-0.0176965
-999.732
-0.0335762
-999.739
-0.0461797
-999.751
-0.0542098
-999.769
-999.789
-0.023662
0.224196
-999.868
-0.0449277
0.224526
-999.877
-0.0616327
0.224209
-999.894
-0.0722166
0.223688
-999.916
0.223049
-999.943
-0.0238497
0.191078
-999.785
-0.045266
0.191333
-999.794
-0.0621648
0.191031
-999.811
-0.072862
0.190574
-999.834
0.189975
-999.861
-0.0240341
0.139044
-999.714
-0.045583
0.139211
-999.723
-0.062626
0.138952
-999.74
-0.0734583
0.138585
-999.763
0.13816
-999.791
-0.0241864
0.0732158
-999.662
-0.0458495
0.0732975
-999.671
-0.0629919
0.0731348
-999.688
-0.0738763
0.0729145
-999.712
0.0726874
-999.74
-0.0242163
-999.635
-0.0459115
-999.644
-0.0630698
-999.661
-0.0739364
-999.685
-999.713
-0.0322476
0.305745
-999.821
-0.0611348
0.306147
-999.833
-0.0838174
0.305604
-999.856
-0.0980979
0.304765
-999.887
0.303697
-999.923
-0.0325508
0.260737
-999.707
-0.0617038
0.26104
-999.72
-0.0846691
0.26052
-999.743
-0.0991761
0.259753
-999.774
0.258795
-999.811
-0.0328494
0.189856
-999.61
-0.0622455
0.190046
-999.623
-0.0854437
0.189607
-999.646
-0.100135
0.189001
-999.678
0.188305
-999.715
-0.0330949
0.10002
-999.539
-0.062696
0.100101
-999.552
-0.0860511
0.0998368
-999.575
-0.100827
0.0994856
-999.608
0.0990829
-999.646
-0.0331675
-999.502
-0.0628254
-999.514
-0.0862125
-999.538
-0.101004
-999.571
-999.609
-0.0439355
0.417135
-999.757
-0.0832293
0.417595
-999.774
-0.114105
0.416699
-999.805
-0.133476
0.415388
-999.847
0.413757
-999.896
-0.0444355
0.356053
-999.602
-0.0841612
0.356378
-999.619
-0.115428
0.355494
-999.65
-0.13512
0.354251
-999.693
0.352744
-999.743
-0.0449297
0.259468
-999.469
-0.0850775
0.259649
-999.486
-0.116689
0.258914
-999.518
-0.136639
0.257918
-999.562
0.25675
-999.613
-0.0453438
0.136765
-999.371
-0.0858312
0.136832
-999.388
-0.117691
0.136411
-999.421
-0.137809
0.135837
-999.466
0.135158
-999.518
-0.0454876
-999.319
-0.0860739
-999.337
-0.118011
-999.37
-0.138186
-999.415
-999.467
-0.0598621
0.569381
-999.671
-0.113368
0.569864
-999.693
-0.155385
0.568417
-999.736
-0.181627
0.566394
-999.793
0.563946
-999.86
-0.0606872
0.48665
-999.458
-0.114866
0.48693
-999.481
-0.157428
0.485444
-999.525
-0.184099
0.483422
-999.583
0.481007
-999.652
-0.0615281
0.355022
-999.275
-0.116404
0.355137
-999.299
-0.159482
0.353905
-999.343
-0.186542
0.352237
-999.403
0.350285
-999.473
-0.0622291
0.187269
-999.141
-0.117668
0.187299
-999.165
-0.161166
0.186593
-999.21
-0.18851
0.185637
-999.272
0.184532
-999.343
-0.0624919
-999.07
-0.118136
-999.094
-0.161782
-999.139
-0.189212
-999.201
-999.274
-0.0815857
0.777678
-999.555
-0.154441
0.778099
-999.586
-0.211472
0.775742
-999.643
-0.246826
0.772522
-999.721
0.768662
-999.812
-0.0829484
0.665938
-999.264
-0.156873
0.666031
-999.295
-0.214728
0.663517
-999.354
-0.250735
0.660143
-999.435
0.656179
-999.528
-0.0843913
0.486577
-999.012
-0.159471
0.486498
-999.044
-0.218162
0.484384
-999.105
-0.254762
0.481548
-999.188
0.478274
-999.284
-0.0855916
0.256945
-998.826
-0.161642
0.256852
-998.859
-0.221038
0.25563
-998.922
-0.258077
0.254
-999.007
0.252146
-999.105
-0.0860902
-998.726
-0.162547
-998.76
-0.222215
-998.824
-0.2594
-998.91
-999.01
-0.111271
1.06304
-999.4
-0.210433
1.06321
-999.442
-0.287633
1.0593
-999.52
-0.335167
1.05403
-999.626
1.04789
-999.748
-0.113534
0.912731
-999
-0.21446
0.912355
-999.044
-0.292982
0.908048
-999.125
-0.341403
0.902315
-999.235
0.895697
-999.361
-0.116019
0.668415
-998.651
-0.218904
0.667858
-998.697
-0.298829
0.66417
-998.781
-0.348154
0.659277
-998.896
0.653699
-999.027
-0.118119
0.353522
-998.393
-0.222692
0.35313
-998.44
-0.303807
0.350979
-998.528
-0.353827
0.348116
-998.646
0.34489
-998.781
-0.119076
-998.254
-0.224426
-998.302
-0.306075
-998.391
-0.356359
-998.512
-998.65
-0.151904
1.45464
-999.193
-0.286801
1.45416
-999.251
-0.390937
1.44757
-999.358
-0.45444
1.43876
-999.501
1.42879
-999.665
-0.155713
1.25368
-998.643
-0.293581
1.25225
-998.704
-0.399894
1.24475
-998.816
-0.464592
1.23483
-998.966
1.22355
-999.137
-0.160046
0.921084
-998.159
-0.301315
0.919464
-998.223
-0.410036
0.912923
-998.341
-0.476141
0.904308
-998.499
0.894632
-998.679
-0.163795
0.488242
-997.796
-0.308035
0.487189
-997.863
-0.418826
0.483331
-997.987
-0.486024
0.478248
-998.153
0.472567
-998.34
-0.165632
-997.6
-0.311352
-997.669
-0.423145
-997.796
-0.490822
-997.966
-998.158
-0.207543
1.99316
-998.922
-0.390893
1.99113
-999.001
-0.530714
1.97979
-999.147
-0.614544
1.96481
-999.341
1.94808
-999.56
-0.214113
1.72708
-998.163
-0.402544
1.72333
-998.248
-0.545974
1.70999
-998.403
-0.631646
1.6925
-998.608
1.67298
-998.839
-0.221853
1.27474
-997.484
-0.416289
1.27085
-997.576
-0.563894
1.25901
-997.743
-0.651709
1.24358
-997.962
1.22657
-998.21
-0.228699
0.677808
-996.97
-0.428449
0.675345
-997.068
-0.57967
0.668344
-997.245
-0.669159
0.659247
-997.479
0.649233
-997.74
-0.23226
-996.69
-0.434768
-996.791
-0.587807
-996.975
-0.678091
-997.217
-997.486
-0.283743
2.7357
-998.571
-0.532585
2.73023
-998.681
-0.719169
2.71025
-998.88
-0.828417
2.68437
-999.139
2.65599
-999.429
-0.295406
2.38898
-997.521
-0.553079
2.38025
-997.64
-0.745594
2.356
-997.856
-0.857553
2.32465
-998.136
2.29059
-998.448
-0.309634
1.77481
-996.561
-0.578036
1.76607
-996.693
-0.777751
1.74429
-996.931
-0.892713
1.71627
-997.239
1.68619
-997.578
-0.322463
0.947763
-995.821
-0.600421
0.942339
-995.967
-0.806454
0.929492
-996.225
-0.923712
0.912936
-996.559
0.895297
-996.922
-0.329426
-995.413
-0.612448
-995.566
-0.821835
-995.836
-0.940105
-996.186
-996.563
-0.388072
3.76328
-998.134
-0.725296
3.75034
-998.283
-0.971395
3.71444
-998.556
-1.11147
3.66874
-998.897
3.62049
-999.275
-0.409358
3.32348
-996.672
-0.762048
3.30403
-996.841
-1.01809
3.25922
-997.145
-1.1613
3.20196
-997.527
3.14227
-997.941
-0.436326
2.49182
-995.293
-0.808186
2.47269
-995.49
-1.07683
2.43208
-995.836
-1.22328
2.38018
-996.271
2.32723
-996.733
-0.461093
1.33844
-994.207
-0.850012
1.32671
-994.432
-1.12998
1.30289
-994.816
-1.27816
1.27215
-995.303
1.24134
-995.805
-0.474912
-993.599
-0.872921
-993.841
-1.15928
-994.247
-1.30771
-994.765
-995.291
-0.53032
5.19201
-997.618
-0.987649
5.16298
-997.819
-1.30409
5.09768
-998.198
-1.4805
5.01442
-998.632
4.93286
-999.114
-0.570299
4.66093
-995.571
-1.05442
4.61805
-995.813
-1.38893
4.53443
-996.248
-1.56562
4.42691
-996.763
4.32306
-997.301
-0.623181
3.53945
-993.548
-1.14075
3.49728
-993.852
-1.4989
3.42104
-994.364
-1.67456
3.32183
-994.991
3.23051
-995.606
-0.672785
1.91568
-991.91
-1.21979
1.89
-992.278
-1.60002
1.84612
-992.861
-1.77005
1.78722
-993.598
1.735
-994.274
-0.700906
-990.983
-1.26294
-991.39
-1.65676
-992.008
-1.82146
-992.813
-993.519
-0.721026
7.19115
-997.094
-1.34759
7.12708
-997.344
-1.72924
7.00863
-997.903
-1.95093
6.84967
-998.397
6.71672
-998.989
-0.798445
6.61198
-994.193
-1.46915
6.51596
-994.531
-1.8901
6.36097
-995.179
-2.09289
6.14996
-995.86
5.97538
-996.518
-0.906405
5.10881
-991.139
-1.63104
5.01259
-991.625
-2.10352
4.87142
-992.403
-2.27951
4.67046
-993.335
4.52269
-994.093
-1.01056
2.79093
-988.582
-1.78025
2.73201
-989.228
-2.30494
2.65532
-990.121
-2.4364
2.53457
-991.331
2.45402
-992.132
-1.06999
-987.122
-1.85746
-987.871
-2.4195
-988.79
-2.51794
-990.181
-990.982
-0.959833
10.0167
-996.828
-1.85675
9.87387
-997.037
-2.22393
9.66911
-998.022
-2.52665
9.33793
-998.343
9.14741
-999.001
-1.11612
9.53568
-992.596
-2.07328
9.3112
-993.011
-2.5569
9.03711
-994.064
-2.74379
8.59053
-994.926
8.32857
-995.563
-1.34923
7.53691
-987.791
-2.37121
7.30265
-988.594
-2.99509
7.05982
-989.802
-3.03955
6.60584
-991.306
6.41671
-991.961
-1.58134
4.15948
-983.624
-2.64126
4.01206
-984.878
-3.42723
3.90389
-986.179
-3.26218
3.62102
-988.511
3.53656
-988.956
-1.71319
-981.25
-2.7541
-982.818
-3.67448
-983.966
-3.36836
-986.866
-987.099
-1.2029
14.1014
-997.71
-2.63508
13.7634
-997.408
-2.6418
13.4803
-999.752
-3.16118
12.6653
-998.899
12.5242
-999.354
-1.51457
14.0848
-991.065
-2.99735
13.5191
-991.284
-3.41724
13.1103
-993.274
-3.42549
12.0466
-994.299
11.7975
-994.221
-2.06164
11.4495
-983.094
-3.51285
10.8222
-984.446
-4.38423
10.5151
-986.335
-3.85195
9.30815
-989.1
9.30924
-988.56
-2.61567
6.37563
-975.934
-3.93874
5.95275
-978.686
-5.3795
5.95133
-980.174
-4.11281
5.1569
-985.627
5.25607
-983.736
-2.92425
-971.95
-4.05501
-975.734
-5.93258
-976.137
-4.22218
-983.419
-980.522
-1.42617
20.2594
-1001.87
-3.92291
19.4141
-999.681
-2.65968
19.318
-1006.16
-3.57025
16.9743
-1001.29
17.5328
-1000.26
-1.9288
21.5315
-990.409
-4.50538
19.9596
-989.253
-4.50224
19.6982
-993.657
-3.98946
16.869
-994.706
17.1868
-991.826
-3.22394
18.0748
-976.413
-5.28373
16.2103
-978.637
-6.64289
16.3788
-981.656
-4.59077
12.7192
-987.002
13.9643
-982.472
-4.62515
10.1048
-963.339
-6.00785
8.76122
-969.854
-8.94964
9.60431
-970.458
-4.86209
7.16661
-984.162
8.16242
-974.54
-5.32992
-956.516
-6.13802
-966.165
-10.1185
-962.552
-4.94399
-981.427
-968.716
-1.69103
29.4733
-1012.94
-6.16461
27.6096
-1005.88
-1.57989
28.3976
-1023.3
-2.67881
22.0923
-1008.26
25.6028
-1001.06
-2.21556
34.4437
-993.164
-7.06325
29.8823
-986.678
-5.97546
31.0927
-997.44
-4.67946
23.5411
-997.451
25.954
-987.259
-5.08327
29.9625
-966.849
-8.12238
24.2682
-969.983
-9.9977
27.0653
-975.753
-5.24647
15.9544
-984.167
21.7125
-971.212
-8.63228
16.5918
-941.336
-9.98809
12.408
-956.637
-15.4059
16.5206
-954.495
-5.3394
9.43392
-987.708
13.2637
-958.264
-10.1177
-929.806
-9.89624
-953.978
-17.7235
-938.204
-5.29852
-984.418
-947.62
-2.00132
42.089
-1036.82
-10.5982
38.9904
-1018.16
3.34309
41.7667
-1064.35
0.595983
26.9819
-1022.51
38.8131
-998.601
-1.48041
58.7148
-1008.31
-11.4283
45.6865
-983.426
-7.27193
51.8741
-1011.7
-6.11882
33.4069
-1005.03
40.6626
-977.634
-7.58473
53.006
-953.555
-13.2142
36.2189
-954.886
-13.8408
47.649
-970.901
-5.48777
17.1214
-976.234
34.8151
-949.797
-16.8926
28.0517
-899.489
-18.6019
16.4658
-935.175
-27.4373
30.3665
-928.377
-5.01553
10.7185
-1003.73
22.2797
-929.48
-19.9546
-881.799
-16.9362
-940.53
-31.7773
-892.997
-4.77827
-1000.7
-911.358
-1.71865
54.9312
-1082.2
-20.1012
53.3029
-1035.42
19.5152
59.8719
-1158.67
15.4931
28.39
-1050.53
60.5559
-976.133
7.00492
108.847
-1069.23
-16.9404
73.6222
-979.8
-5.59314
91.3441
-1054.52
-11.5282
48.3144
-1019.02
64.8253
-950.019
-9.36472
101.257
-936.6
-23.2551
52.9312
-920.305
-16.1372
88.0129
-974.688
-4.6337
11.7676
-951.19
55.8223
-907.233
-34.3823
48.3134
-812.163
-37.3672
18.9994
-898.258
-50.2404
58.2276
-885.718
-1.27916
3.67792
-1044.6
36.2544
-875.841
-40.0842
-793.402
-30.5436
-931.072
-60.2599
-805.053
1.85608
-1059.14
-852.451
-30.6263
67.0071
-1113.8
-57.9818
68.9486
-1067.38
60.8524
83.5797
-1383.82
23.4233
29.3673
-1043.26
81.5312
-914.126
-8.86973
138.1
-1131.45
-58.4356
82.7243
-944.01
-10.4454
146.515
-1165.45
-28.5765
56.022
-1027.54
94.371
-958.622
-33.2643
116.338
-881.573
-47.2291
49.062
-872.678
-8.97065
143.718
-1010.15
-21.9031
-8.01066
-874.225
83.0925
-880.378
-52.0046
54.1406
-697.961
-70.8106
-1.11146
-829.279
-84.6911
84.8466
-812.967
-3.07004
14.481
-1148.71
49.9947
-809.068
-59.8698
-679.391
-30.8344
-961.218
-63.6153
-687.425
-11.0594
-1097.21
-793.6
40.2867
19.6593
-1368.05
-102.552
134.525
-1042.06
200.191
102.579
-2020.83
210.184
-25.9122
-1314.18
232.757
-587.563
193.627
568.26
-1873.68
7.21481
305.722
-928.795
103.642
392.48
-1551.78
-61.369
165.764
-1054.21
165.633
-524.957
23.443
584.769
-921.524
-84.5742
138.431
-597.369
46.4208
426.128
-1174.79
104.643
-127.791
-638.892
193.641
-638.13
-214.222
265.548
-164.518
-196.946
9.76482
-717.888
-160.331
333.751
-757.204
128.013
-175.717
-1389.13
218.183
-508.081
-236.163
-177.68
-164.499
-1023.12
-273.763
-244.41
242.476
-1789.17
-350.553
-280.736
94.9033
-1080.52
-205.538
52.4763
-1220.57
262.218
111.838
-2767.91
81.5688
56.016
-1019.46
75.5436
-290.632
-184.148
28.2428
-1622.87
-272.819
32.5747
-820.223
-171.373
279.735
-1821.12
-99.3294
-77.8355
-992.398
121.581
-1039.18
-223.095
-82.6552
-587.531
-103.633
-66.8277
-617.429
-31.1151
249.88
-1217.46
-156.79
-145.864
-445.188
41.9661
-730.091
-15.2855
-103.144
-128.745
-179.156
-201.421
-419.425
-302.333
27.9293
-412.076
3.12526
224.838
-2065.29
-363.075
-244.572
-64.3912
-216.432
107.29
-1396.22
-94.806
-14.3837
-398.432
-1260.71
-1323.38
-8.6418
-29.9903
-1060.31
-215.05
11.5644
-1016.01
-44.8957
-18.7078
-3078.98
-6.79563
22.3084
-1115.81
31.1952
-131.89
68.9241
17.9049
-1739.69
-52.6299
3.1465
-690.251
32.7831
147.488
-2072.73
-283.516
16.6896
-670.48
2.01365
-841.339
4.53416
4.58548
-578.746
-20.7319
-6.06281
-582.953
-22.1936
46.5582
-1115.06
-7.92221
-103.009
-339.761
-8.34118
-712.885
-1.20503
2.84894
-125.803
0.316888
-8.49813
-418.511
20.3294
-0.111737
-385.418
58.094
-122.453
-2083.61
125.504
-257.384
-0.861827
-212.721
10.7801
-1416.36
-0.168212
-3.5473
211.147
-1594.47
-1095.59
531.597
259.394
-2012.54
181.599
-172.869
-452.389
-618.861
113.7
-2027.75
-491.504
-137.472
-1265.07
36.2711
-963.918
33.2896
149.747
-1663.33
556.76
41.2206
-1427.81
160.062
-255.389
-1306.94
21.4237
-54.397
-614.917
-41.2336
-10.787
174.058
67.454
-670.511
69.0375
-63.2518
-373.461
-63.8915
-278.358
-959.166
-13.4242
-166.879
-277.747
-26.4419
-703.005
-52.6333
-0.301151
-5.41456
39.8106
356.675
-930.882
33.9723
-6.39974
-651.538
48.5709
35.1695
-2300.26
5.67777
-416.04
207.769
-420.792
51.4235
-903.338
49.3084
-7.83203
134.139
-1644.13
-961.687
209.99
37.0458
-2398.93
20.5049
1.73142
-266.508
-26.1719
5.9683
-2030.05
-93.4715
-41.4863
-1150.14
-15.5305
-1294.95
335.936
-116.278
-1845.95
497.882
-35.3064
-1552.72
-114.33
-103.701
-585.059
-34.5655
20.4602
-756.628
-87.2147
-196.169
65.7038
2.53388
-855.026
185.952
-14.598
-514.417
42.5495
-269.532
-649.933
-100.371
-97.231
-17.1348
-67.9981
-1077.66
-43.1922
49.7237
-9.41217
80.7003
231.984
-1301.36
-234.92
-2.38177
-603.068
-13.1497
163.855
-2783.11
-353.516
-310.053
137.687
-508.755
-2.54899
-531.119
-0.701748
-12.0611
-497.44
-983.54
-1589.76
-895.311
152.636
-1114.92
12.0672
62.6592
-1366.26
211.09
247.642
-2717.08
-175.081
186.357
-735.484
131.008
-2376.09
69.9432
-343.64
-1419.61
-87.4878
-55.7757
-1276.85
-14.7773
95.2756
-505.403
34.7079
-72.066
-547.69
84.7852
-345.072
-27.6677
-20.7502
-1150.25
144.133
13.341
-755.334
-86.9101
-54.1095
-269.505
-166.112
392.213
-402.211
48.799
-781.074
81.562
11.8419
-123.566
114.983
-195.726
-1125.71
9.61677
-68.2835
-483.528
-16.3652
7.09537
-2372.01
-188.352
-18.5351
-89.6117
-407.301
-6.08254
-810.374
42.6828
-129.11
-287.122
-646.64
-1202.81
-187.962
-1.49291
-1026
-146.233
-189.453
-1553.27
-381.914
158.283
-2001.94
-513.838
43.9905
-649.183
-651.983
-2720.02
-35.9432
-22.4928
-1362.67
-205.226
-452.772
-844.251
67.6114
20.9611
-640.919
-61.1719
24.1673
-399.083
1.42586
-1001.13
-104.226
-126.224
-942.291
72.1593
57.2918
-1441.78
-17.4132
-2.54097
-156.431
-13.6958
415.099
-796.86
0.0344281
-763.427
83.0913
14.855
-347.737
-19.8403
-141.08
-824.407
312.833
-50.3605
-768.381
19.9714
137.908
-1801.96
103.767
-104.727
-154.19
-238.256
-428.238
-677.406
104.879
-712.587
-199.973
-203.881
-449.761
-196.12
-55.7941
-886.556
112.925
33.7805
-1937.03
-55.2786
-358.146
-1009.84
571.361
-36.9604
-1447.65
-486.473
-951.551
90.932
-339.42
-1169.98
-114.917
-437.108
-167.514
20.0342
-86.8092
-1047.21
110.826
-7.33855
-519.497
-366.572
-1193.97
-171.31
-198.517
-911.885
27.416
-248.859
-1828.76
55.3694
-168.908
-102.285
-99.08
-147.366
-502.383
-230.668
-732.963
-66.0781
31.6154
-511.791
-21.8711
114.256
-1231.73
56.7076
-144.043
-871.824
-17.1287
4.20729
-1879.7
33.5129
-403.515
-7.3226
-199.318
-122.573
-447.899
106.406
-1085.61
36.3745
-129.642
-153.307
512.853
169.286
-1768.95
460.78
211.508
-1788.68
-78.5901
-211.55
-417.577
-226.433
70.212
-989.608
248.335
-1389.31
-284.734
-222.792
-493.164
10.6295
-68.6668
-182.702
29.8056
-239.196
-1038.74
38.3792
-77.8718
-379.987
98.4623
-637.699
-370.682
-196.893
-567.102
-53.0963
379.104
-2594.11
3.34118
15.9397
-413.859
13.2118
-18.1594
-571.966
-92.2774
-22.4915
-230.226
-179.284
-299.174
-321.271
90.5825
-852.164
-115.653
-21.7102
-1039.79
-270.302
-79.9976
-1663.21
127.309
-1122.3
14.3473
-392.949
-79.9137
-263.056
0.190979
-1187.42
44.7737
-254.222
-251.771
1039.1
-430.995
-3439.02
-15.6486
-38.4745
-463.229
-23.4855
-113.756
-81.6493
-133.605
1.21161
-999.972
93.0046
-1283.26
60.9474
0.923919
-986.03
77.5499
289.794
-527.574
-27.8383
-483.092
-564.012
-1.2669
23.7079
-429.055
0.0593475
-596.793