/*--------------------------------*- C++ -*----------------------------------*\
| =========                 |                                                 |
| \\      /  F ield         | OpenFOAM: The Open Source CFD Toolbox           |
|  \\    /   O peration     | Version:  5.x                                   |
|   \\  /    A nd           | Web:      www.OpenFOAM.org                      |
|    \\/     M anipulation  |                                                 |
\*---------------------------------------------------------------------------*/
FoamFile
{
    version     2.0;
    format      ascii;
    class       volScalarField;
    location    "5000";
    object      p;
}
// * * * * * * * * * * * * * * * * * * * * * * * * * * * * * * * * * * * * * //

dimensions      [0 2 -2 0 0 0 0];

internalField   nonuniform List<scalar> 
180
(
-52.5204
-95.8717
-95.4153
-82.6853
-73.8601
-81.3602
-91.5129
-91.7638
-83.5787
-76.4797
-76.1374
-94.9612
-105.761
-109.815
-112.321
-114.517
-120.558
-128.977
-133.676
-132.864
-133.177
-138.306
-142.811
-145.407
-144.592
-139.664
-135.35
-131.948
-127.776
-123.829
-119.602
-119.987
-123.531
-121.911
-118.349
-121.793
-120.05
-110.616
-109.921
-118.403
-127.833
-130.938
-132.524
-146.048
-153.435
-154.975
-158.103
-157.862
-151.9
-154.006
-171.698
-179.975
-179
-173.196
-170.042
-167.964
-165.951
-163.251
-160.056
-156.587
-160.529
-178.104
-196.315
-203.297
-202.38
-203.648
-208.818
-209.444
-209.149
-212.157
-211.487
-207.364
-205.735
-203.141
-207.543
-221.272
-227.034
-221.04
-217.211
-215.025
-220.382
-229.901
-238.917
-247.448
-253.597
-271.272
-284.111
-291.664
-316.298
-331.615
-331.31
-320.533
-318.724
-335.576
-360.589
-384.413
-406.07
-426.238
-447.658
-470.029
-492.203
-515.907
-540.06
-565.85
-597.332
-632.764
-675.852
-732.057
-818.232
-955.359
-1202.27
-1795.28
-2805.37
-3993.13
-5283.53
-6779.88
-8489.29
-10162
-11836.6
-13443.5
-14913.8
-16212.4
-17122.4
-17630
-17650.2
-17431.6
-17189.7
-16889.8
-16665.6
-16510.7
-16371.1
-16258.9
-16145.7
-16053.9
-15981.6
-15915.6
-15872.8
-15775.5
-15693.9
-15623.6
-15594.9
-15612.8
-15670.1
-15735.8
-15774.2
-15807.6
-15712
-15535.9
-15118
-14359
-13262.7
-12004
-10732.4
-9552.54
-8531.89
-7641.61
-6919.85
-6360.1
-5935.6
-5618.16
-5381.69
-5206.34
-5073.92
-4974.77
-4896.68
-4831.57
-4775.07
-4729.65
-4700.27
-4685.63
-4682.31
-4687.19
-4696.07
-4710.05
-4724.66
-4744.58
-4766.29
-4787.81
-4800.48
-4802.57
)
;

boundaryField
{
    inlet
    {
        type            zeroGradient;
    }
    outlet
    {
        type            fixedValue;
        value           uniform 0;
    }
    repeat_boundary
    {
        type            zeroGradient;
    }
    procBoundary3to1
    {
        type            processor;
        value           nonuniform List<scalar> 
180
(
-51.0483
-92.9675
-101.906
-102.328
-98.7408
-93.904
-103.861
-115.649
-120.785
-121.569
-118.398
-113.97
-110.277
-105.795
-101.211
-110.572
-122.571
-123.813
-114.361
-107.579
-114.703
-124.601
-131.42
-155.68
-170.138
-169.003
-158.212
-153.771
-153.62
-150.758
-145.03
-140.084
-135.371
-130.406
-125.735
-120.443
-114.942
-109.482
-103.963
-98.3257
-104.316
-114.376
-114.371
-102.103
-103.19
-110.025
-108.055
-106.188
-124.976
-135.389
-138.512
-140.527
-142.483
-148.906
-155.565
-165.191
-179.033
-186.235
-188.266
-198.575
-206.424
-206.236
-199.068
-194.809
-195.005
-192.533
-186.479
-180.364
-186.249
-201.556
-206.683
-198.738
-191.924
-186.496
-186.259
-191.402
-189.448
-179.413
-172.82
-177.131
-182.911
-185.33
-194.054
-213.273
-234.02
-252.462
-271.208
-282.104
-282.185
-274.387
-269.859
-275.264
-278.684
-275.752
-268.504
-258.67
-247.748
-236.263
-220.967
-203.743
-184.215
-162.313
-137.681
-109.874
-79.074
-48.607
-14.8179
5.74131
23.3405
31.7988
-2.68371
-112.31
-294.428
-650.173
-1328.8
-2422.78
-3822.16
-5351.46
-6891.54
-8418.76
-9953.56
-11518.5
-13108.7
-14703.1
-16267.8
-17698
-18874.8
-19709.6
-20361.4
-21146.6
-21893.7
-22420.6
-22783
-22996.7
-23008.4
-22814.1
-22219.9
-20976.6
-19408.6
-18144.3
-17401.5
-16899.4
-16464.7
-16001.6
-15576.7
-15240.1
-14998.5
-14647.6
-14027.1
-13204.2
-12149.5
-10868.5
-9516.55
-8156.15
-6931.75
-5916.44
-5122.51
-4529.46
-4123.94
-3923.59
-3793.2
-3717.92
-3676.86
-3666.3
-3680.99
-3716.21
-3764.85
-3827.51
-3909.73
-4004.22
-4104.87
-4197.28
-4241.53
-4271
-4323.52
-4393.09
-4435.78
-4439.85
-4456.42
-4476.31
)
;
    }
    procBoundary3to2
    {
        type            processor;
        value           nonuniform List<scalar> 
180
(
-45.824
-102.471
-109.14
-104.165
-105.25
-113.001
-113.676
-119.213
-127.73
-128.537
-122.863
-117.808
-114.687
-111.966
-108.476
-104.869
-113.62
-124.907
-126.094
-116.649
-114.287
-116.373
-123.6
-133.165
-140.501
-145.892
-148.899
-149.645
-146.691
-141.672
-142.36
-146.793
-146.556
-140.307
-138.172
-136.423
-132.808
-136.469
-141.793
-142.476
-136.21
-139.142
-145.214
-146.072
-146.751
-158.869
-165.631
-164.206
-159.77
-156.688
-153.694
-150.52
-147.237
-143.91
-149.214
-156.162
-155.423
-155.975
-177.156
-187.726
-186.648
-180.012
-174.96
-178.605
-185.051
-184.528
-185.16
-191.17
-197.504
-204.142
-208.843
-213.316
-215.228
-217.909
-234.836
-257.621
-268.198
-269.142
-262.191
-257.995
-269.691
-282.729
-285.142
-296.154
-315.033
-327.983
-356.503
-377.45
-377.388
-370.58
-389.324
-442.139
-504.703
-539.71
-547.214
-539.803
-536.862
-556.335
-630.095
-672.751
-704.157
-733.368
-756.391
-833.166
-889.84
-931.19
-973.939
-1024.7
-1139.39
-1304.52
-1483.21
-1638.13
-1839.23
-2215.58
-2732.27
-3376.47
-4143.09
-5035.55
-6006.07
-7015.3
-7928.67
-8746.91
-9475.35
-10163.3
-10733.8
-11225.4
-11665.4
-12143.5
-12653.5
-13164.5
-13471.5
-13683
-13841.1
-14044.3
-14221.9
-14470
-14822.8
-15069.1
-15188.8
-15393.6
-15717.7
-15827.9
-15826.2
-15861.5
-15869.4
-15751.1
-15454.9
-15114.7
-14550.8
-13686.1
-12612.9
-11632.1
-10668.4
-9749.02
-8970.91
-8337.74
-7806.42
-7337.83
-6928.61
-6582.54
-6294.26
-6057.92
-5865.48
-5711.25
-5589.22
-5494.7
-5424.08
-5368.34
-5320.24
-5279.24
-5245.82
-5218.89
-5197.51
-5179.93
-5166.09
-5154.44
-5145.14
-5137.99
-5133.37
-5130.78
)
;
    }
}


// ************************************************************************* //
