/*--------------------------------*- C++ -*----------------------------------*\
| =========                 |                                                 |
| \\      /  F ield         | OpenFOAM: The Open Source CFD Toolbox           |
|  \\    /   O peration     | Version:  5.x                                   |
|   \\  /    A nd           | Web:      www.OpenFOAM.org                      |
|    \\/     M anipulation  |                                                 |
\*---------------------------------------------------------------------------*/
FoamFile
{
    version     2.0;
    format      ascii;
    class       surfaceScalarField;
    location    "0.01";
    object      phi;
}
// * * * * * * * * * * * * * * * * * * * * * * * * * * * * * * * * * * * * * //

dimensions      [0 3 -1 0 0 0 0];

internalField   nonuniform List<scalar> 
5825
(
-1.04904e-16
-2.8972e-17
-1e-09
-1.00642e-16
-3.24657e-17
-1e-09
-9.34312e-17
-5.70282e-17
-1e-09
-1.89578e-17
-3.65892e-17
-1e-09
-2.42925e-17
-1e-09
-1.08872e-16
-2.70744e-17
-1e-09
-1.25474e-16
-4.84738e-17
-1e-09
-7.33072e-17
-4.66965e-17
-1e-09
-6.81755e-18
-4.34548e-17
-1e-09
-4.96693e-17
-1e-09
-1.31956e-16
-8.20988e-17
-1e-09
-1.23423e-16
-5.80472e-17
-1e-09
-7.01387e-17
-6.13405e-17
-1e-09
-1.31692e-17
-6.81198e-17
-1e-09
-8.17509e-17
-1e-09
-1.16641e-16
-1.27018e-16
-1e-09
-1.25723e-16
-1.02487e-16
-1e-09
-7.70291e-17
-9.58516e-17
-1e-09
-2.70553e-17
-1.11257e-16
-1e-09
-1.34949e-16
-1e-09
-9.57739e-17
-1e-09
-1.14665e-16
-1e-09
-9.15958e-17
-1e-09
-5.06159e-17
-1e-09
-1e-09
-3.59296e-16
-7.10495e-17
-1e-09
-3.29175e-16
-9.60631e-17
-1e-09
-2.3493e-16
-1.16161e-16
-1e-09
-6.385e-17
-8.24269e-17
-1e-09
-7.01686e-17
-1e-09
-3.85349e-16
-1.27688e-16
-1e-09
-3.51131e-16
-1.50296e-16
-1e-09
-2.02651e-16
-1.44904e-16
-1e-09
-5.20363e-17
-1.42076e-16
-1e-09
-1.55521e-16
-1e-09
-4.1113e-16
-2.71098e-16
-1e-09
-3.45865e-16
-2.13529e-16
-1e-09
-2.00106e-16
-2.09369e-16
-1e-09
-6.60857e-17
-2.25769e-16
-1e-09
-2.54483e-16
-1e-09
-3.67958e-16
-3.49585e-16
-1e-09
-3.42704e-16
-3.04507e-16
-1e-09
-2.17332e-16
-2.9208e-16
-1e-09
-9.57714e-17
-3.23402e-16
-1e-09
-3.57016e-16
-1e-09
-3.42623e-16
-1e-09
-3.02694e-16
-1e-09
-2.40225e-16
-1e-09
-1.27573e-16
-1e-09
-1e-09
-6.77596e-16
-1.52954e-16
-1e-09
-5.82395e-16
-1.76947e-16
-1e-09
-3.68388e-16
-1.6904e-16
-1e-09
-1.33718e-16
-1.39871e-16
-1e-09
-1.42541e-16
-1e-09
-7.03189e-16
-2.99485e-16
-1e-09
-5.78884e-16
-2.98271e-16
-1e-09
-3.42111e-16
-2.79237e-16
-1e-09
-1.36913e-16
-2.83038e-16
-1e-09
-3.08437e-16
-1e-09
-6.99344e-16
-5.02669e-16
-1e-09
-5.60461e-16
-4.34988e-16
-1e-09
-3.46277e-16
-4.15641e-16
-1e-09
-1.63554e-16
-4.38366e-16
-1e-09
-4.6933e-16
-1e-09
-6.3671e-16
-6.26362e-16
-1e-09
-5.44053e-16
-5.45556e-16
-1e-09
-3.70325e-16
-5.20586e-16
-1e-09
-1.96178e-16
-5.51312e-16
-1e-09
-5.67417e-16
-1e-09
-5.39309e-16
-1e-09
-4.91309e-16
-1e-09
-3.87543e-16
-1e-09
-2.08847e-16
-1e-09
-1e-09
-1.0068e-15
-2.77764e-16
-1e-09
-8.39971e-16
-2.78247e-16
-1e-09
-5.46204e-16
-2.53277e-16
-1e-09
-2.54222e-16
-2.4585e-16
-1e-09
-2.70617e-16
-1e-09
-1.00867e-15
-5.49111e-16
-1e-09
-8.20688e-16
-5.14211e-16
-1e-09
-5.42414e-16
-4.90813e-16
-1e-09
-2.79955e-16
-5.05822e-16
-1e-09
-5.29673e-16
-1e-09
-9.69601e-16
-8.16126e-16
-1e-09
-7.97089e-16
-7.42403e-16
-1e-09
-5.57402e-16
-7.17033e-16
-1e-09
-3.05492e-16
-7.31211e-16
-1e-09
-7.43541e-16
-1e-09
-8.89699e-16
-1.01763e-15
-1e-09
-7.71105e-16
-8.88099e-16
-1e-09
-5.71896e-16
-8.55359e-16
-1e-09
-3.19446e-16
-8.6597e-16
-1e-09
-8.6316e-16
-1e-09
-7.74932e-16
-1e-09
-7.32306e-16
-1e-09
-5.78639e-16
-1e-09
-3.16539e-16
-1e-09
-1e-09
-1.34628e-15
-4.21936e-16
-9.99999e-10
-1.14639e-15
-4.1339e-16
-1e-09
-8.12842e-16
-4.01311e-16
-1e-09
-4.36446e-16
-4.23187e-16
-1e-09
-4.46904e-16
-1e-09
-1.34321e-15
-8.55834e-16
-1e-09
-1.13982e-15
-8.10114e-16
-1e-09
-8.37904e-16
-7.95265e-16
-1e-09
-4.61652e-16
-8.04019e-16
-1e-09
-7.98317e-16
-1e-09
-1.30355e-15
-1.2063e-15
-1e-09
-1.12372e-15
-1.13833e-15
-1e-09
-8.46302e-16
-1.11078e-15
-1e-09
-4.57822e-16
-1.09085e-15
-1e-09
-1.06879e-15
-1e-09
-1.25006e-15
-1.43499e-15
-1e-09
-1.09403e-15
-1.34277e-15
-1e-09
-8.26549e-16
-1.30082e-15
-1e-09
-4.37132e-16
-1.26578e-15
-1e-09
-1.23654e-15
-1e-09
-1.16299e-15
-1e-09
-1.04838e-15
-1e-09
-7.92002e-16
-1e-09
-4.09258e-16
-1e-09
-1e-09
-1.79069e-15
-6.088e-16
-9.99999e-10
-1.56795e-15
-6.10786e-16
-1e-09
-1.17449e-15
-6.16887e-16
-1e-09
-6.424e-16
-6.38181e-16
-1e-09
-6.25263e-16
-1e-09
-1.80099e-15
-1.22432e-15
-9.99999e-10
-1.57846e-15
-1.18791e-15
-1e-09
-1.19822e-15
-1.16452e-15
-1e-09
-6.31804e-16
-1.13704e-15
-1e-09
-1.09589e-15
-1e-09
-1.77347e-15
-1.66505e-15
-1e-09
-1.55336e-15
-1.61529e-15
-1e-09
-1.17043e-15
-1.5662e-15
-1e-09
-5.92612e-16
-1.50039e-15
-1e-09
-1.45564e-15
-1e-09
-1.74106e-15
-1.88788e-15
-1e-09
-1.50099e-15
-1.86338e-15
-1e-09
-1.10458e-15
-1.80827e-15
-1e-09
-5.50138e-16
-1.73095e-15
-1e-09
-1.69574e-15
-1e-09
-1.71285e-15
-1e-09
-1.42004e-15
-1e-09
-1.02384e-15
-1e-09
-5.17315e-16
-1e-09
-1e-09
-2.41011e-15
-8.65276e-16
-9.99998e-10
-2.11789e-15
-8.59776e-16
-9.99999e-10
-1.59122e-15
-8.57803e-16
-1e-09
-8.37285e-16
-8.46477e-16
-1e-09
-8.01364e-16
-1e-09
-2.4113e-15
-1.67904e-15
-9.99999e-10
-2.12052e-15
-1.63162e-15
-1e-09
-1.58301e-15
-1.57606e-15
-1e-09
-7.96018e-16
-1.5136e-15
-1e-09
-1.46418e-15
-1e-09
-2.36826e-15
-2.25661e-15
-9.99999e-10
-2.06443e-15
-2.18517e-15
-1e-09
-1.52054e-15
-2.09872e-15
-1e-09
-7.4945e-16
-2.01194e-15
-1e-09
-1.97634e-15
-1e-09
-2.3014e-15
-2.51057e-15
-1e-09
-1.97696e-15
-2.47998e-15
-1e-09
-1.43419e-15
-2.40664e-15
-1e-09
-7.18447e-16
-2.33906e-15
-1e-09
-2.33597e-15
-1e-09
-2.22468e-15
-1e-09
-1.86975e-15
-1e-09
-1.35799e-15
-1e-09
-7.18311e-16
-1e-09
-1e-09
-3.22609e-15
-1.16278e-15
-9.99997e-10
-2.80577e-15
-1.13541e-15
-9.99999e-10
-2.07235e-15
-1.11281e-15
-1e-09
-1.06465e-15
-1.07778e-15
-1e-09
-1.04005e-15
-1e-09
-3.20416e-15
-2.2266e-15
-9.99998e-10
-2.78969e-15
-2.14738e-15
-9.99999e-10
-2.04199e-15
-2.06935e-15
-1e-09
-1.03186e-15
-2.00474e-15
-1e-09
-1.97114e-15
-1e-09
-3.12159e-15
-3.02364e-15
-9.99998e-10
-2.712e-15
-2.88524e-15
-1e-09
-1.97734e-15
-2.77802e-15
-1e-09
-1.00287e-15
-2.70607e-15
-1e-09
-2.69204e-15
-1e-09
-2.97994e-15
-3.43082e-15
-9.99999e-10
-2.60524e-15
-3.30027e-15
-1e-09
-1.9061e-15
-3.2014e-15
-1e-09
-9.95375e-16
-3.16599e-15
-1e-09
-3.1821e-15
-1e-09
-2.83245e-15
-1e-09
-2.49429e-15
-1e-09
-1.86467e-15
-1e-09
-1.0163e-15
-1e-09
-1e-09
-4.32629e-15
-1.49397e-15
-9.99996e-10
-3.72075e-15
-1.46585e-15
-9.99998e-10
-2.71526e-15
-1.43882e-15
-9.99999e-10
-1.40994e-15
-1.40985e-15
-1e-09
-1.40022e-15
-1e-09
-4.30665e-15
-2.87985e-15
-9.99997e-10
-3.70229e-15
-2.78602e-15
-9.99998e-10
-2.69283e-15
-2.71612e-15
-1e-09
-1.40696e-15
-2.67225e-15
-1e-09
-2.65029e-15
-1e-09
-4.21037e-15
-3.94908e-15
-9.99998e-10
-3.63184e-15
-3.7708e-15
-9.99999e-10
-2.64882e-15
-3.67009e-15
-1e-09
-1.39076e-15
-3.62321e-15
-1e-09
-3.61359e-15
-1e-09
-4.02593e-15
-4.57253e-15
-9.99999e-10
-3.53068e-15
-4.39117e-15
-1e-09
-2.60229e-15
-4.25556e-15
-1e-09
-1.38885e-15
-4.22363e-15
-1e-09
-4.22056e-15
-1e-09
-3.82456e-15
-1e-09
-3.39388e-15
-1e-09
-2.57204e-15
-1e-09
-1.39521e-15
-1e-09
-1e-09
-5.85449e-15
-1.92661e-15
-9.99995e-10
-5.00063e-15
-1.9175e-15
-9.99997e-10
-3.63661e-15
-1.89965e-15
-9.99999e-10
-1.92385e-15
-1.88874e-15
-1e-09
-1.89227e-15
-1e-09
-5.85981e-15
-3.70601e-15
-9.99995e-10
-4.99356e-15
-3.62923e-15
-9.99997e-10
-3.63398e-15
-3.58196e-15
-9.99999e-10
-1.93521e-15
-3.55623e-15
-1e-09
-3.52653e-15
-1e-09
-5.78465e-15
-5.09812e-15
-9.99996e-10
-4.94415e-15
-4.93692e-15
-9.99999e-10
-3.60808e-15
-4.85658e-15
-1e-09
-1.91299e-15
-4.82673e-15
-1e-09
-4.80223e-15
-1e-09
-5.62477e-15
-5.99977e-15
-9.99998e-10
-4.86154e-15
-5.81344e-15
-1e-09
-3.57803e-15
-5.66188e-15
-1e-09
-1.89837e-15
-5.62845e-15
-1e-09
-5.60116e-15
-1e-09
-5.42154e-15
-1e-09
-4.70645e-15
-1e-09
-3.54606e-15
-1e-09
-1.88491e-15
-1.00001e-09
-1.00001e-09
-7.94947e-15
-2.53347e-15
-9.99993e-10
-6.77818e-15
-2.54174e-15
-9.99995e-10
-4.92782e-15
-2.52932e-15
-9.99998e-10
-2.62343e-15
-2.52795e-15
-1e-09
-2.51769e-15
-1e-09
-7.97629e-15
-4.82895e-15
-9.99993e-10
-6.78022e-15
-4.78296e-15
-9.99996e-10
-4.93706e-15
-4.75399e-15
-9.99999e-10
-2.62352e-15
-4.73165e-15
-1e-09
-4.68067e-15
-1e-09
-7.93392e-15
-6.66601e-15
-9.99995e-10
-6.74989e-15
-6.55553e-15
-9.99998e-10
-4.91454e-15
-6.49905e-15
-1e-09
-2.58272e-15
-6.47109e-15
-1e-09
-6.42415e-15
-1e-09
-7.83202e-15
-7.90235e-15
-9.99997e-10
-6.6919e-15
-7.76342e-15
-1e-09
-4.88622e-15
-7.65844e-15
-1e-09
-2.54964e-15
-7.61927e-15
-1e-09
-7.55923e-15
-1.00001e-09
-7.66544e-15
-1e-09
-6.56952e-15
-1e-09
-4.84345e-15
-1.00001e-09
-2.50635e-15
-1.00001e-09
-1.00001e-09
-1.0814e-14
-3.36967e-15
-9.9999e-10
-9.21547e-15
-3.3856e-15
-9.99994e-10
-6.69613e-15
-3.37137e-15
-9.99997e-10
-3.54912e-15
-3.36515e-15
-9.99999e-10
-3.32974e-15
-1e-09
-1.08511e-14
-6.40637e-15
-9.99991e-10
-9.22155e-15
-6.39221e-15
-9.99995e-10
-6.70411e-15
-6.37177e-15
-9.99998e-10
-3.52842e-15
-6.33536e-15
-1e-09
-6.26815e-15
-1e-09
-1.08341e-14
-8.8707e-15
-9.99993e-10
-9.2019e-15
-8.83945e-15
-9.99997e-10
-6.66741e-15
-8.79959e-15
-1e-09
-3.47523e-15
-8.75414e-15
-1e-09
-8.6896e-15
-1e-09
-1.08029e-14
-1.05306e-14
-9.99996e-10
-9.16326e-15
-1.0496e-14
-1e-09
-6.62159e-15
-1.04473e-14
-1e-09
-3.43023e-15
-1.03724e-14
-1.00001e-09
-1.02691e-14
-1.00001e-09
-1.07577e-14
-1e-09
-9.10462e-15
-1e-09
-6.54243e-15
-1.00001e-09
-3.3485e-15
-1.00001e-09
-1.00001e-09
-1.47581e-14
-4.53655e-15
-9.99986e-10
-1.2553e-14
-4.54413e-15
-9.99991e-10
-9.11247e-15
-4.5255e-15
-9.99996e-10
-4.79982e-15
-4.50261e-15
-9.99999e-10
-4.45649e-15
-1e-09
-1.47938e-14
-8.64793e-15
-9.99987e-10
-1.2562e-14
-8.65122e-15
-9.99993e-10
-9.10908e-15
-8.62422e-15
-9.99997e-10
-4.7742e-15
-8.56616e-15
-1e-09
-8.50377e-15
-1e-09
-1.47855e-14
-1.19722e-14
-9.99991e-10
-1.25365e-14
-1.20192e-14
-9.99996e-10
-9.05077e-15
-1.19725e-14
-1e-09
-4.73077e-15
-1.19064e-14
-1e-09
-1.18376e-14
-1.00001e-09
-1.48003e-14
-1.41027e-14
-9.99995e-10
-1.24912e-14
-1.42184e-14
-1e-09
-8.98474e-15
-1.41864e-14
-1e-09
-4.68831e-15
-1.40912e-14
-1.00001e-09
-1.39828e-14
-1.00001e-09
-1.48796e-14
-1e-09
-1.24674e-14
-1.00001e-09
-8.89202e-15
-1.00001e-09
-4.61042e-15
-1.00001e-09
-1.00001e-09
-2.01586e-14
-6.19186e-15
-9.9998e-10
-1.71266e-14
-6.1714e-15
-9.99988e-10
-1.24268e-14
-6.14169e-15
-9.99994e-10
-6.52759e-15
-6.09999e-15
-9.99999e-10
-6.0627e-15
-1e-09
-2.01794e-14
-1.18365e-14
-9.99983e-10
-1.71337e-14
-1.18046e-14
-9.9999e-10
-1.24116e-14
-1.17492e-14
-9.99996e-10
-6.51741e-15
-1.16776e-14
-1e-09
-1.16255e-14
-1e-09
-2.01396e-14
-1.63728e-14
-9.99987e-10
-1.7079e-14
-1.63895e-14
-9.99995e-10
-1.23402e-14
-1.63091e-14
-1e-09
-6.49068e-15
-1.62338e-14
-1.00001e-09
-1.6156e-14
-1.00001e-09
-2.01282e-14
-1.92087e-14
-9.99993e-10
-1.69988e-14
-1.92891e-14
-1e-09
-1.2265e-14
-1.92388e-14
-1.00001e-09
-6.44755e-15
-1.91617e-14
-1.00001e-09
-1.90608e-14
-1.00001e-09
-2.01667e-14
-1e-09
-1.69621e-14
-1.00001e-09
-1.21945e-14
-1.00001e-09
-6.38985e-15
-1.00002e-09
-1.00002e-09
-2.75403e-14
-8.50629e-15
-9.99973e-10
-2.34024e-14
-8.4492e-15
-9.99984e-10
-1.69774e-14
-8.38757e-15
-9.99992e-10
-8.91379e-15
-8.328e-15
-9.99999e-10
-8.29036e-15
-1e-09
-2.75421e-14
-1.62773e-14
-9.99977e-10
-2.33906e-14
-1.61473e-14
-9.99987e-10
-1.69537e-14
-1.6038e-14
-9.99995e-10
-8.91237e-15
-1.59504e-14
-1e-09
-1.58847e-14
-1e-09
-2.74102e-14
-2.24724e-14
-9.99983e-10
-2.32817e-14
-2.23467e-14
-9.99993e-10
-1.68668e-14
-2.22065e-14
-1e-09
-8.88101e-15
-2.21036e-14
-1.00001e-09
-2.19923e-14
-1.00001e-09
-2.72771e-14
-2.63859e-14
-9.99991e-10
-2.31414e-14
-2.62704e-14
-1e-09
-1.67635e-14
-2.61465e-14
-1.00001e-09
-8.8163e-15
-2.60277e-14
-1.00002e-09
-2.58804e-14
-1.00002e-09
-2.71365e-14
-1e-09
-2.30239e-14
-1.00001e-09
-1.66495e-14
-1.00002e-09
-8.72732e-15
-1.00002e-09
-1.00003e-09
-3.76863e-14
-1.16917e-14
-9.99964e-10
-3.20122e-14
-1.15707e-14
-9.99978e-10
-2.32136e-14
-1.14457e-14
-9.9999e-10
-1.21805e-14
-1.13604e-14
-9.99998e-10
-1.13028e-14
-1e-09
-3.76457e-14
-2.23037e-14
-9.99968e-10
-3.19554e-14
-2.20455e-14
-9.99982e-10
-2.31778e-14
-2.18599e-14
-9.99994e-10
-1.21727e-14
-2.17345e-14
-1e-09
-2.16427e-14
-1.00001e-09
-3.73863e-14
-3.06576e-14
-9.99976e-10
-3.17712e-14
-3.04006e-14
-9.9999e-10
-2.30534e-14
-3.01797e-14
-1e-09
-1.21283e-14
-3.00161e-14
-1.00001e-09
-2.98595e-14
-1.00001e-09
-3.71246e-14
-3.60064e-14
-9.99987e-10
-3.15501e-14
-3.57383e-14
-1e-09
-2.28891e-14
-3.54933e-14
-1.00001e-09
-1.20367e-14
-3.52645e-14
-1.00002e-09
-3.50623e-14
-1.00003e-09
-3.6846e-14
-1e-09
-3.13094e-14
-1.00001e-09
-2.26624e-14
-1.00003e-09
-1.1912e-14
-1.00003e-09
-1.00004e-09
-5.1603e-14
-1.60202e-14
-9.99951e-10
-4.38014e-14
-1.57812e-14
-9.9997e-10
-3.17642e-14
-1.55803e-14
-9.99986e-10
-1.66655e-14
-1.54643e-14
-9.99998e-10
-1.53971e-14
-1e-09
-5.14738e-14
-3.0422e-14
-9.99956e-10
-4.3695e-14
-3.00364e-14
-9.99976e-10
-3.1717e-14
-2.97545e-14
-9.99992e-10
-1.66683e-14
-2.95743e-14
-1e-09
-2.94511e-14
-1.00001e-09
-5.10856e-14
-4.16995e-14
-9.99968e-10
-4.34152e-14
-4.13334e-14
-9.99986e-10
-3.15382e-14
-4.09994e-14
-1e-09
-1.66104e-14
-4.0753e-14
-1.00001e-09
-4.05263e-14
-1.00002e-09
-5.07112e-14
-4.89496e-14
-9.99983e-10
-4.30801e-14
-4.85586e-14
-1e-09
-3.12916e-14
-4.81714e-14
-1.00002e-09
-1.64731e-14
-4.78387e-14
-1.00003e-09
-4.75864e-14
-1.00004e-09
-5.03125e-14
-1e-09
-4.26993e-14
-1.00002e-09
-3.09615e-14
-1.00003e-09
-1.63252e-14
-1.00005e-09
-1.00005e-09
-7.06246e-14
-2.18286e-14
-9.99933e-10
-5.99743e-14
-2.14731e-14
-9.99959e-10
-4.3533e-14
-2.12109e-14
-9.99981e-10
-2.28704e-14
-2.10628e-14
-9.99998e-10
-2.09842e-14
-1.00001e-09
-7.04215e-14
-4.1436e-14
-9.99941e-10
-5.98423e-14
-4.09132e-14
-9.99967e-10
-4.34798e-14
-4.04976e-14
-9.99989e-10
-2.28878e-14
-4.02265e-14
-1.00001e-09
-4.00117e-14
-1.00001e-09
-6.98994e-14
-5.68677e-14
-9.99956e-10
-5.94279e-14
-5.62815e-14
-9.99982e-10
-4.32104e-14
-5.57521e-14
-1e-09
-2.27613e-14
-5.53591e-14
-1.00002e-09
-5.50051e-14
-1.00003e-09
-6.93101e-14
-6.68079e-14
-9.99977e-10
-5.88969e-14
-6.61206e-14
-1e-09
-4.28181e-14
-6.5501e-14
-1.00002e-09
-2.25277e-14
-6.50129e-14
-1.00004e-09
-6.4623e-14
-1.00005e-09
-6.861e-14
-1e-09
-5.82791e-14
-1.00003e-09
-4.23326e-14
-1.00005e-09
-2.2279e-14
-1.00006e-09
-1.00007e-09
-9.67326e-14
-2.96784e-14
-9.99908e-10
-8.2237e-14
-2.92366e-14
-9.99944e-10
-5.97506e-14
-2.88963e-14
-9.99975e-10
-3.14246e-14
-2.86769e-14
-9.99998e-10
-2.85189e-14
-1.00001e-09
-9.65009e-14
-5.6462e-14
-9.99919e-10
-8.20746e-14
-5.57259e-14
-9.99955e-10
-5.96605e-14
-5.50906e-14
-9.99986e-10
-3.13961e-14
-5.46339e-14
-1.00001e-09
-5.42628e-14
-1.00002e-09
-9.57693e-14
-7.76559e-14
-9.9994e-10
-8.144e-14
-7.66704e-14
-9.99975e-10
-5.92056e-14
-7.58044e-14
-1.00001e-09
-3.11437e-14
-7.5163e-14
-1.00003e-09
-7.46446e-14
-1.00004e-09
-9.47897e-14
-9.12861e-14
-9.99968e-10
-8.05736e-14
-9.0117e-14
-1e-09
-5.85663e-14
-8.90849e-14
-1.00003e-09
-3.07878e-14
-8.83164e-14
-1.00005e-09
-8.7704e-14
-1.00007e-09
-9.35988e-14
-1e-09
-7.95321e-14
-1.00004e-09
-5.77966e-14
-1.00007e-09
-3.0366e-14
-1.00009e-09
-1.0001e-09
-1.3269e-13
-4.04253e-14
-9.99875e-10
-1.12882e-13
-3.98284e-14
-9.99925e-10
-8.20416e-14
-3.93215e-14
-9.99967e-10
-4.31304e-14
-3.89444e-14
-9.99998e-10
-3.86542e-14
-1.00001e-09
-1.32378e-13
-7.69598e-14
-9.99889e-10
-1.12618e-13
-7.58499e-14
-9.99939e-10
-8.18408e-14
-7.48541e-14
-9.99981e-10
-4.3016e-14
-7.41125e-14
-1.00001e-09
-7.3576e-14
-1.00003e-09
-1.31271e-13
-1.05959e-13
-9.99918e-10
-1.11624e-13
-1.0437e-13
-9.99967e-10
-8.11014e-14
-1.02986e-13
-1.00001e-09
-4.26402e-14
-1.01996e-13
-1.00004e-09
-1.01244e-13
-1.00005e-09
-1.29685e-13
-1.24543e-13
-9.99956e-10
-1.10242e-13
-1.22668e-13
-1e-09
-8.01145e-14
-1.21021e-13
-1.00005e-09
-4.21099e-14
-1.19831e-13
-1.00007e-09
-1.18939e-13
-1.00009e-09
-1.27809e-13
-1e-09
-1.08585e-13
-1.00005e-09
-7.89199e-14
-1.00009e-09
-4.1476e-14
-1.00012e-09
-1.00013e-09
-1.82184e-13
-5.51437e-14
-9.99829e-10
-1.55013e-13
-5.42346e-14
-9.99898e-10
-1.12641e-13
-5.34221e-14
-9.99956e-10
-5.9174e-14
-5.28098e-14
-9.99998e-10
-5.23897e-14
-1.00002e-09
-1.81665e-13
-1.04938e-13
-9.99849e-10
-1.54535e-13
-1.03196e-13
-9.99917e-10
-1.12271e-13
-1.0165e-13
-9.99975e-10
-5.89944e-14
-1.00528e-13
-1.00002e-09
-9.9742e-14
-1.00004e-09
-1.79919e-13
-1.44523e-13
-9.99888e-10
-1.52993e-13
-1.41997e-13
-9.99955e-10
-1.11152e-13
-1.39847e-13
-1.00001e-09
-5.8427e-14
-1.38308e-13
-1.00005e-09
-1.37169e-13
-1.00008e-09
-1.77383e-13
-1.6976e-13
-9.99941e-10
-1.50845e-13
-1.66813e-13
-1.00001e-09
-1.09615e-13
-1.64261e-13
-1.00006e-09
-5.75884e-14
-1.62402e-13
-1.0001e-09
-1.61097e-13
-1.00012e-09
-1.74431e-13
-1e-09
-1.48295e-13
-1.00007e-09
-1.07755e-13
-1.00012e-09
-5.66347e-14
-1.00016e-09
-1.00018e-09
-2.50305e-13
-7.52699e-14
-9.99767e-10
-2.12959e-13
-7.38186e-14
-9.99861e-10
-1.5472e-13
-7.25348e-14
-9.99942e-10
-8.12758e-14
-7.16096e-14
-1e-09
-7.09866e-14
-1.00003e-09
-2.49389e-13
-1.43156e-13
-9.99794e-10
-2.12133e-13
-1.40394e-13
-9.99888e-10
-1.54128e-13
-1.38021e-13
-9.99968e-10
-8.09821e-14
-1.36293e-13
-1.00003e-09
-1.35072e-13
-1.00006e-09
-2.46625e-13
-1.97082e-13
-9.99847e-10
-2.09765e-13
-1.93127e-13
-9.99939e-10
-1.52404e-13
-1.89807e-13
-1.00002e-09
-8.00595e-14
-1.87382e-13
-1.00007e-09
-1.8569e-13
-1.0001e-09
-2.42658e-13
-2.31292e-13
-9.99919e-10
-2.06444e-13
-2.2674e-13
-1.00001e-09
-1.49982e-13
-2.22818e-13
-1.00009e-09
-7.87753e-14
-2.19949e-13
-1.00014e-09
-2.18029e-13
-1.00017e-09
-2.38077e-13
-1e-09
-2.0253e-13
-1.00009e-09
-1.47116e-13
-1.00017e-09
-7.73338e-14
-1.00022e-09
-1.00025e-09
-3.44139e-13
-1.02736e-13
-9.99682e-10
-2.92801e-13
-1.00441e-13
-9.99812e-10
-2.1274e-13
-9.84738e-14
-9.99923e-10
-1.11765e-13
-9.70497e-14
-1e-09
-9.60773e-14
-1.00005e-09
-3.42581e-13
-1.95319e-13
-9.99719e-10
-2.91461e-13
-1.91004e-13
-9.99849e-10
-2.11773e-13
-1.87326e-13
-9.99959e-10
-1.11243e-13
-1.8461e-13
-1.00004e-09
-1.82772e-13
-1.00008e-09
-3.38273e-13
-2.68721e-13
-9.99791e-10
-2.87786e-13
-2.62619e-13
-9.99918e-10
-2.09062e-13
-2.5748e-13
-1.00003e-09
-1.09809e-13
-2.53738e-13
-1.0001e-09
-2.51239e-13
-1.00015e-09
-3.32171e-13
-3.15208e-13
-9.99889e-10
-2.82643e-13
-3.08134e-13
-1.00001e-09
-2.05323e-13
-3.02119e-13
-1.00012e-09
-1.07862e-13
-2.97767e-13
-1.00019e-09
-2.94919e-13
-1.00023e-09
-3.25078e-13
-1e-09
-2.76631e-13
-1.00012e-09
-2.00978e-13
-1.00023e-09
-1.05665e-13
-1.0003e-09
-1.00034e-09
-4.73659e-13
-1.40197e-13
-9.99566e-10
-4.03065e-13
-1.36668e-13
-9.99746e-10
-2.92891e-13
-1.33645e-13
-9.999e-10
-1.53886e-13
-1.31405e-13
-1.00001e-09
-1.29943e-13
-1.00007e-09
-4.71145e-13
-2.66581e-13
-9.99617e-10
-4.00902e-13
-2.59863e-13
-9.99796e-10
-2.91278e-13
-2.54105e-13
-9.99948e-10
-1.53038e-13
-2.49881e-13
-1.00006e-09
-2.47113e-13
-1.00012e-09
-4.64439e-13
-3.66493e-13
-9.99715e-10
-3.95146e-13
-3.57074e-13
-9.9989e-10
-2.87062e-13
-3.49123e-13
-1.00004e-09
-1.50817e-13
-3.43354e-13
-1.00015e-09
-3.39603e-13
-1.0002e-09
-4.55031e-13
-4.29679e-13
-9.99849e-10
-3.87191e-13
-4.18714e-13
-1.00002e-09
-2.81298e-13
-4.0942e-13
-1.00016e-09
-1.47814e-13
-4.02742e-13
-1.00027e-09
-3.98444e-13
-1.00032e-09
-4.4405e-13
-1.00001e-09
-3.77888e-13
-1.00017e-09
-2.74626e-13
-1.00031e-09
-1.44397e-13
-1.00041e-09
-1.00046e-09
-6.52776e-13
-1.91469e-13
-9.99408e-10
-5.55596e-13
-1.86007e-13
-9.99657e-10
-4.03836e-13
-1.81294e-13
-9.9987e-10
-2.12258e-13
-1.77801e-13
-1.00003e-09
-1.75588e-13
-1.00011e-09
-6.48705e-13
-3.64034e-13
-9.99478e-10
-5.52064e-13
-3.53539e-13
-9.99725e-10
-4.01206e-13
-3.44549e-13
-9.99935e-10
-2.10882e-13
-3.3797e-13
-1.00009e-09
-3.33745e-13
-1.00017e-09
-6.3822e-13
-4.99941e-13
-9.99612e-10
-5.43078e-13
-4.85438e-13
-9.99853e-10
-3.94637e-13
-4.73122e-13
-1.00006e-09
-2.07399e-13
-4.64165e-13
-1.00021e-09
-4.58474e-13
-1.00029e-09
-6.23725e-13
-5.85671e-13
-9.99795e-10
-5.30761e-13
-5.68822e-13
-1.00003e-09
-3.85687e-13
-5.5445e-13
-1.00023e-09
-2.02724e-13
-5.44082e-13
-1.00037e-09
-5.37509e-13
-1.00045e-09
-6.06863e-13
-1.00001e-09
-5.16371e-13
-1.00023e-09
-3.75324e-13
-1.00042e-09
-1.97343e-13
-1.00056e-09
-1.00063e-09
-9.00743e-13
-2.61742e-13
-9.99192e-10
-7.66985e-13
-2.5323e-13
-9.99538e-10
-5.57803e-13
-2.45856e-13
-9.99834e-10
-2.93346e-13
-2.40402e-13
-1.00005e-09
-2.36971e-13
-1.00016e-09
-8.94138e-13
-4.97379e-13
-9.99288e-10
-7.61239e-13
-4.81051e-13
-9.9963e-10
-5.53538e-13
-4.67036e-13
-9.99922e-10
-2.91062e-13
-4.56726e-13
-1.00013e-09
-4.50251e-13
-1.00025e-09
-8.7781e-13
-6.82273e-13
-9.99472e-10
-7.4723e-13
-6.59938e-13
-9.99805e-10
-5.43241e-13
-6.40843e-13
-1.00009e-09
-2.85595e-13
-6.26868e-13
-1.0003e-09
-6.18104e-13
-1.0004e-09
-8.55465e-13
-7.9836e-13
-9.99723e-10
-7.28136e-13
-7.72456e-13
-1.00004e-09
-5.29274e-13
-7.50297e-13
-1.00032e-09
-2.7821e-13
-7.34102e-13
-1.00052e-09
-7.23896e-13
-1.00062e-09
-8.29554e-13
-1.00001e-09
-7.05964e-13
-1.00032e-09
-5.13089e-13
-1.00058e-09
-2.69618e-13
-1.00077e-09
-1.00087e-09
-1.24473e-12
-3.58297e-13
-9.98896e-10
-1.06068e-12
-3.44971e-13
-9.99377e-10
-7.7209e-13
-3.33375e-13
-9.99789e-10
-4.06292e-13
-3.24736e-13
-1.00009e-09
-3.19365e-13
-1.00025e-09
-1.23403e-12
-6.80231e-13
-9.99028e-10
-1.05133e-12
-6.5483e-13
-9.99503e-10
-7.65094e-13
-6.32905e-13
-9.99908e-10
-4.02499e-13
-6.1665e-13
-1.0002e-09
-6.06627e-13
-1.00036e-09
-1.20861e-12
-9.31865e-13
-9.99281e-10
-1.02941e-12
-8.97342e-13
-9.99741e-10
-7.48856e-13
-8.67615e-13
-1.00013e-09
-3.93843e-13
-8.45624e-13
-1.00042e-09
-8.32043e-13
-1.00057e-09
-1.17405e-12
-1.0887e-12
-9.99626e-10
-9.99671e-13
-1.04871e-12
-1.00007e-09
-7.26876e-13
-1.01433e-12
-1.00044e-09
-3.8213e-13
-9.88939e-13
-1.00072e-09
-9.73137e-13
-1.00086e-09
-1.13404e-12
-1.00002e-09
-9.65293e-13
-1.00044e-09
-7.0152e-13
-1.0008e-09
-3.68519e-13
-1.00106e-09
-1.00119e-09
-1.72272e-12
-4.91397e-13
-9.98491e-10
-1.46976e-12
-4.70406e-13
-9.9916e-10
-1.0714e-12
-4.52028e-13
-9.99735e-10
-5.6438e-13
-4.38163e-13
-1.00016e-09
-4.29706e-13
-1.00038e-09
-1.70534e-12
-9.31583e-13
-9.98674e-10
-1.45447e-12
-8.92064e-13
-9.99332e-10
-1.05981e-12
-8.57561e-13
-9.99897e-10
-5.5809e-13
-8.31676e-13
-1.00031e-09
-8.15969e-13
-1.00053e-09
-1.66577e-12
-1.27413e-12
-9.99023e-10
-1.41996e-12
-1.22067e-12
-9.99659e-10
-1.03395e-12
-1.17407e-12
-1.0002e-09
-5.44238e-13
-1.13929e-12
-1.0006e-09
-1.11809e-12
-1.00081e-09
-1.61223e-12
-1.48558e-12
-9.99496e-10
-1.37334e-12
-1.42358e-12
-1.0001e-09
-9.99202e-13
-1.36997e-12
-1.00062e-09
-5.25573e-13
-1.33016e-12
-1.001e-09
-1.30593e-12
-1.0012e-09
-1.55019e-12
-1.00004e-09
-1.31976e-12
-1.00061e-09
-9.59455e-13
-1.0011e-09
-5.04309e-13
-1.00146e-09
-1.00164e-09
-2.38748e-12
-6.75239e-13
-9.97932e-10
-2.04132e-12
-6.42343e-13
-9.98864e-10
-1.49181e-12
-6.12993e-13
-9.99672e-10
-7.87469e-13
-5.90448e-13
-1.00027e-09
-5.7689e-13
-1.0006e-09
-2.35952e-12
-1.27831e-12
-9.98187e-10
-2.01623e-12
-1.21682e-12
-9.99101e-10
-1.47244e-12
-1.16207e-12
-9.99892e-10
-7.76891e-13
-1.12034e-12
-1.00048e-09
-1.09512e-12
-1.00079e-09
-2.29791e-12
-1.74474e-12
-9.98671e-10
-1.96146e-12
-1.66186e-12
-9.9955e-10
-1.43076e-12
-1.58852e-12
-1.00031e-09
-7.54209e-13
-1.53299e-12
-1.00087e-09
-1.49944e-12
-1.00116e-09
-2.21488e-12
-2.02859e-12
-9.99325e-10
-1.88809e-12
-1.93283e-12
-1.00016e-09
-1.37531e-12
-1.84918e-12
-1.00087e-09
-7.24129e-13
-1.78633e-12
-1.0014e-09
-1.74858e-12
-1.00167e-09
-2.11904e-12
-1.00007e-09
-1.80447e-12
-1.00086e-09
-1.31258e-12
-1.00152e-09
-6.90423e-13
-1.00201e-09
-1.00226e-09
-3.31297e-12
-9.30559e-13
-9.97157e-10
-2.84349e-12
-8.7909e-13
-9.98454e-10
-2.08752e-12
-8.31644e-13
-9.99596e-10
-1.10606e-12
-7.94224e-13
-1.00046e-09
-7.71605e-13
-1.00093e-09
-3.26823e-12
-1.75914e-12
-9.97514e-10
-2.80193e-12
-1.66333e-12
-9.98783e-10
-2.05454e-12
-1.57559e-12
-9.99895e-10
-1.08759e-12
-1.50684e-12
-1.00073e-09
-1.46513e-12
-1.00119e-09
-3.17214e-12
-2.39446e-12
-9.9819e-10
-2.71414e-12
-2.2662e-12
-9.99405e-10
-1.98593e-12
-2.15007e-12
-1.00046e-09
-1.04938e-12
-2.05987e-12
-1.00125e-09
-2.00543e-12
-1.00167e-09
-3.04356e-12
-2.77319e-12
-9.99099e-10
-2.59797e-12
-2.62621e-12
-1.00024e-09
-1.89593e-12
-2.49509e-12
-1.00123e-09
-9.99728e-13
-2.39472e-12
-1.00196e-09
-2.33468e-12
-1.00234e-09
-2.8964e-12
-1.00013e-09
-2.46692e-12
-1.0012e-09
-1.79584e-12
-1.00211e-09
-9.45227e-13
-1.00277e-09
-1.00312e-09
-4.6019e-12
-1.28806e-12
-9.9607e-10
-3.97637e-12
-1.20721e-12
-9.97872e-10
-2.9427e-12
-1.12908e-12
-9.99501e-10
-1.5691e-12
-1.0648e-12
-1.00077e-09
-1.02526e-12
-1.00147e-09
-4.53013e-12
-2.4308e-12
-9.96575e-10
-3.90638e-12
-2.28155e-12
-9.98332e-10
-2.88475e-12
-2.13872e-12
-9.99907e-10
-1.53547e-12
-2.02186e-12
-1.00113e-09
-1.95005e-12
-1.0018e-09
-4.38019e-12
-3.29729e-12
-9.97531e-10
-3.76341e-12
-3.09954e-12
-9.99204e-10
-2.76824e-12
-2.91348e-12
-1.00068e-09
-1.46861e-12
-2.76355e-12
-1.00181e-09
-2.67214e-12
-1.00242e-09
-4.18176e-12
-3.79948e-12
-9.98806e-10
-3.57734e-12
-3.57477e-12
-1.00037e-09
-2.61886e-12
-3.36811e-12
-1.00173e-09
-1.38395e-12
-3.20554e-12
-1.00275e-09
-3.10765e-12
-1.00329e-09
-3.95668e-12
-1.00024e-09
-3.37093e-12
-1.00169e-09
-2.45697e-12
-1.00293e-09
-1.29381e-12
-1.00384e-09
-1.00431e-09
-6.39423e-12
-1.79383e-12
-9.94517e-10
-5.59038e-12
-1.66614e-12
-9.9701e-10
-4.19483e-12
-1.53374e-12
-9.99362e-10
-2.26072e-12
-1.41834e-12
-1.00128e-09
-1.34554e-12
-1.00239e-09
-6.27855e-12
-3.37939e-12
-9.95242e-10
-5.46924e-12
-3.14711e-12
-9.97661e-10
-4.08874e-12
-2.90896e-12
-9.99913e-10
-2.19666e-12
-2.70224e-12
-1.00173e-09
-2.57161e-12
-1.00277e-09
-6.04464e-12
-4.56351e-12
-9.96616e-10
-5.23077e-12
-4.26066e-12
-9.98904e-10
-3.883e-12
-3.95816e-12
-1.00098e-09
-2.07347e-12
-3.70124e-12
-1.00262e-09
-3.54034e-12
-1.00352e-09
-5.74032e-12
-5.22602e-12
-9.98428e-10
-4.92845e-12
-4.88586e-12
-1.00056e-09
-3.6276e-12
-4.55796e-12
-1.00243e-09
-1.92262e-12
-4.28859e-12
-1.00387e-09
-4.12297e-12
-1.00463e-09
-5.39956e-12
-1.00046e-09
-4.60132e-12
-1.00243e-09
-3.35995e-12
-1.0041e-09
-1.76816e-12
-1.00534e-09
-1.00597e-09
-8.87605e-12
-2.51959e-12
-9.92225e-10
-7.91934e-12
-2.31552e-12
-9.95651e-10
-6.08397e-12
-2.08197e-12
-9.99116e-10
-3.33668e-12
-1.86476e-12
-1.00217e-09
-1.72256e-12
-1.004e-09
-8.68727e-12
-4.74177e-12
-9.93286e-10
-7.70146e-12
-4.38078e-12
-9.96581e-10
-5.88137e-12
-3.97074e-12
-9.99844e-10
-3.20869e-12
-3.58587e-12
-1.00268e-09
-3.3306e-12
-1.00437e-09
-8.3226e-12
-6.36219e-12
-9.95323e-10
-7.2906e-12
-5.90428e-12
-9.98412e-10
-5.49921e-12
-5.40283e-12
-1.00134e-09
-2.96607e-12
-4.94569e-12
-1.00379e-09
-4.64449e-12
-1.00518e-09
-7.86163e-12
-7.2414e-12
-9.97932e-10
-6.79007e-12
-6.73579e-12
-1.0008e-09
-5.04644e-12
-6.21018e-12
-1.00337e-09
-2.68155e-12
-5.7501e-12
-1.00543e-09
-5.45417e-12
-1.0065e-09
-7.35583e-12
-1.00091e-09
-6.26683e-12
-1.00356e-09
-4.59059e-12
-1.0058e-09
-2.4023e-12
-1.0075e-09
-1.00828e-09
-1.22892e-11
-3.58092e-12
-9.88638e-10
-1.13435e-11
-3.24555e-12
-9.93351e-10
-9.06112e-12
-2.8109e-12
-9.98587e-10
-5.10634e-12
-2.38324e-12
-1.00374e-09
-2.08964e-12
-1.00702e-09
-1.19719e-11
-6.75558e-12
-9.90221e-10
-1.09314e-11
-6.19336e-12
-9.94674e-10
-8.65933e-12
-5.45661e-12
-9.9947e-10
-4.84024e-12
-4.69488e-12
-1.00419e-09
-4.15033e-12
-1.00715e-09
-1.1402e-11
-8.95594e-12
-9.9344e-10
-1.0192e-11
-8.27722e-12
-9.97538e-10
-7.9047e-12
-7.42459e-12
-1.00166e-09
-4.32275e-12
-6.5798e-12
-1.00549e-09
-5.97369e-12
-1.00768e-09
-1.07172e-11
-1.01846e-11
-9.97191e-10
-9.34305e-12
-9.45472e-12
-1.001e-09
-7.07272e-12
-8.60248e-12
-1.00446e-09
-3.75036e-12
-7.78831e-12
-1.00754e-09
-7.20998e-12
-1.00902e-09
-9.99303e-12
-1.0019e-09
-8.49883e-12
-1.00545e-09
-6.26852e-12
-1.00839e-09
-3.19535e-12
-1.0108e-09
-1.01146e-09
-1.6979e-11
-5.17006e-12
-9.82364e-10
-1.65105e-11
-4.57672e-12
-9.89243e-10
-1.40319e-11
-3.70416e-12
-9.97362e-10
-8.22092e-12
-2.84628e-12
-1.0067e-09
-2.23286e-12
-1.01301e-09
-1.64054e-11
-9.9078e-12
-9.84717e-10
-1.56765e-11
-9.00476e-12
-9.90975e-10
-1.3223e-11
-7.61602e-12
-9.98012e-10
-7.66507e-12
-5.99942e-12
-1.0066e-09
-4.71066e-12
-1.01234e-09
-1.54888e-11
-1.27119e-11
-9.90609e-10
-1.42747e-11
-1.17375e-11
-9.9602e-10
-1.16207e-11
-1.02386e-11
-1.00169e-09
-6.45128e-12
-8.64818e-12
-1.00801e-09
-7.33853e-12
-1.0115e-09
-1.45025e-11
-1.47848e-11
-9.95529e-10
-1.27898e-11
-1.3766e-11
-1.00068e-09
-1.00657e-11
-1.2377e-11
-1.00505e-09
-5.22766e-12
-1.08941e-11
-1.01013e-09
-9.58273e-12
-1.012e-09
-1.35322e-11
-1.00419e-09
-1.14344e-11
-1.00902e-09
-8.60316e-12
-1.01269e-09
-3.91576e-12
-1.01668e-09
-1.01555e-09
-2.3719e-11
-7.55681e-12
-9.69629e-10
-2.45367e-11
-6.36034e-12
-9.82065e-10
-2.29045e-11
-4.49872e-12
-9.94495e-10
-1.40944e-11
-2.87444e-12
-1.01264e-09
-1.65939e-12
-1.02544e-09
-2.25335e-11
-1.54738e-11
-9.72477e-10
-2.26686e-11
-1.37959e-11
-9.83404e-10
-2.13599e-11
-1.11058e-11
-9.92713e-10
-1.30521e-11
-7.42199e-12
-1.01036e-09
-4.12955e-12
-1.02292e-09
-2.08551e-11
-1.77653e-11
-9.86716e-10
-1.991e-11
-1.64962e-11
-9.94264e-10
-1.7619e-11
-1.37278e-11
-1.00136e-09
-9.83536e-12
-1.0878e-11
-1.01234e-09
-7.91839e-12
-1.01755e-09
-1.95479e-11
-2.29763e-11
-9.89248e-10
-1.71641e-11
-2.14502e-11
-9.98109e-10
-1.4831e-11
-1.92221e-11
-1.00189e-09
-7.14009e-12
-1.65733e-11
-1.01213e-09
-1.29077e-11
-1.01415e-09
-1.83595e-11
-1.00962e-09
-1.51292e-11
-1.01714e-09
-1.21831e-11
-1.02089e-09
-3.60946e-12
-1.03052e-09
-1.01947e-09
-3.4756e-11
-1.10198e-11
-9.41259e-10
-3.69708e-11
-8.53629e-12
-9.71314e-10
-3.97594e-11
-4.65083e-12
-9.87055e-10
-2.58079e-11
-1.82474e-12
-1.02477e-09
8.65034e-13
-1.05212e-09
-3.18692e-11
-2.72623e-11
-9.40848e-10
-3.21566e-11
-2.29277e-11
-9.68725e-10
-3.75314e-11
-1.78733e-11
-9.74116e-10
-2.46165e-11
-9.19957e-12
-1.0159e-09
-3.28699e-13
-1.04634e-09
-2.80457e-11
-2.34006e-11
-9.84647e-10
-2.70751e-11
-2.24757e-11
-9.95687e-10
-2.75936e-11
-1.71506e-11
-1.00156e-09
-1.4914e-11
-1.29605e-11
-1.02126e-09
-5.33206e-12
-1.02746e-09
-2.71037e-11
-4.07874e-11
-9.63234e-10
-2.13458e-11
-3.69389e-11