FoamFile
{version 2.0; format ascii;class Cloud<passiveParticle>; location 0;object  positions;}
348
(
( 4122.43 4330.69 499.583 ) 0 
( 1694.74 2198.73 499.569 ) 0 
( 5.14149 1963.33 498.401 ) 0 
( 2488.78 1591.31 498.721 ) 0 
( 1042.42 4454.79 497.722 ) 0 
( 3476.9 1743.34 498.407 ) 0 
( 1555.75 3188.83 498.201 ) 0 
( 440.166 1063.56 499.101 ) 0 
( 4584.61 3423.27 497.331 ) 0 
( 3123.61 4368.9 499.395 ) 0 
( 3132.25 805.805 498.649 ) 0 
( 4034.74 2573.11 498.399 ) 0 
( 57.2659 4620.36 498.169 ) 0 
( 1497.2 1183.4 497.668 ) 0 
( 511.91 67 499.087 ) 0 
( 689.256 2691.11 498.118 ) 0 
( 1460.33 3888.92 1204.98 ) 0 
( 1624.97 192.134 497.633 ) 0 
( 3586.03 3482.59 498.019 ) 0 
( 3075.39 3245.62 1321.84 ) 0 
( 259.791 3066.75 1317.82 ) 0 
( 4134.61 764.782 498.593 ) 0 
( 2580.5 3529.44 498.978 ) 0 
( 2953.81 2602.74 498.359 ) 0 
( 438.338 3658.5 498.857 ) 0 
( 4512.08 1690.8 497.456 ) 0 
( 4147.13 4922.93 1309.66 ) 0 
( 889.089 1827.83 960.81 ) 0 
( 2267.28 760.749 1008.43 ) 0 
( 4000.83 1421.6 1311.55 ) 0 
( 2481.77 2207.96 1284.7 ) 0 
( 2085.34 3123.03 1341.42 ) 0 
( 4627.44 443.146 1312.05 ) 0 
( 3004.22 1357.47 1321.86 ) 0 
( 4998.69 1370.69 1308.62 ) 0 
( 3622 497.357 1312.55 ) 0 
( 628.509 4883.15 1299.25 ) 0 
( 2042.31 4371.12 498.465 ) 0 
( 3521.23 1226.19 2165.89 ) 0 
( 1028.46 619.623 1174.29 ) 0 
( 2581.74 4123.41 1302.48 ) 0 
( 3146.19 4967.51 1299.79 ) 0 
( 187.144 4542.58 2127.59 ) 0 
( 441.656 2173.92 1785.07 ) 0 
( 1758.71 1529.09 1396.78 ) 0 
( 3476.35 2331.43 1304.64 ) 0 
( 1184.68 2693.15 1364.79 ) 0 
( 1808.04 4811.7 1362.93 ) 0 
( 2523.52 4796.47 2060.53 ) 0 
( 2646.36 2774.95 2089.74 ) 0 
( 3613.3 4083.18 1383.72 ) 0 
( 4531.19 2268.7 1310.73 ) 0 
( 4606.5 4000.22 1313.59 ) 0 
( 734.453 3746.4 1874.57 ) 0 
( 4600.52 4606.97 2139.63 ) 0 
( 3991.18 2195.4 2147.61 ) 0 
( 4513.62 1346.44 2181.05 ) 0 
( 4070.62 3155.32 1308.48 ) 0 
( 1956.71 3973.31 2067.93 ) 0 
( 3583.55 3108.11 2176.49 ) 0 
( 1052.94 1448.57 2098.72 ) 0 
( 2982.52 3906.51 2191.53 ) 0 
( 2440.74 1536.12 2127.84 ) 0 
( 1778.57 2281.45 2054.23 ) 0 
( 4122.19 427.523 2172.58 ) 0 
( 455.899 654.614 1990.43 ) 0 
( 3942.29 1631.63 2975.39 ) 0 
( 4930.24 999.064 3019.59 ) 0 
( 1831.26 726.983 1988.36 ) 0 
( 3578.91 4710.07 2160.54 ) 0 
( 3120.64 2077.66 2622.74 ) 0 
( 2259.78 3.18889 2570.26 ) 0 
( 1184 3844.99 2761.93 ) 0 
( 192.816 3729.34 2712.81 ) 0 
( 2757.18 399.881 1801.21 ) 0 
( 1881.69 4713.3 2820.35 ) 0 
( 1183.82 4606 2114.36 ) 0 
( 1595.55 1752.34 2881.51 ) 0 
( 1853.44 3124.95 2585.23 ) 0 
( 926.564 2870.55 2313.17 ) 0 
( 4579.62 3418.66 2126.43 ) 0 
( 3905.65 3916.09 2668.44 ) 0 
( 1234.13 2705.4 3249.37 ) 0 
( 2217.83 3843.12 3175.37 ) 0 
( 2960.01 4576.1 2932.7 ) 0 
( 3527.92 2978.26 3720.43 ) 0 
( 485.206 122.612 3243.63 ) 0 
( 4002.68 647.423 3136.95 ) 0 
( 3094.9 525.679 2736.52 ) 0 
( 650.369 1053.21 2922.91 ) 0 
( 641.692 2042.65 2792.22 ) 0 
( 2948.39 3204.99 2938.98 ) 0 
( 4125.61 2776.72 2946.22 ) 0 
( 2190.54 946.204 2895.2 ) 0 
( 1358.44 359.383 2806.9 ) 0 
( 578.135 4545.89 3137.26 ) 0 
( 88.3266 2814.91 3101.49 ) 0 
( 4781.5 21.1703 3155.75 ) 0 
( 4836.08 2075.57 2991.87 ) 0 
( 4504.43 1592.94 3800.39 ) 0 
( 3040.59 1349.27 3299.56 ) 0 
( 2335.89 2437.86 3125.89 ) 0 
( 3587.82 1988.28 3838.7 ) 0 
( 681.02 3482.62 3547.13 ) 0 
( 2565.59 3203.95 3860.44 ) 0 
( 458.742 1195.08 3892.42 ) 0 
( 2054.18 107.821 3541.71 ) 0 
( 3509.04 4929.48 3775.97 ) 0 
( 4365.82 3579.04 3488.08 ) 0 
( 2972.33 452.164 3729.97 ) 0 
( 1433.76 1024.74 3546.67 ) 0 
( 1419.58 4455.7 3666.98 ) 0 
( 3443.41 3958.61 3551.46 ) 0 
( 4430.76 4558.23 3669.17 ) 0 
( 1824.72 2536.51 4037.48 ) 0 
( 1615.01 3503.32 3894.53 ) 0 
( 2109.48 808.798 4250.72 ) 0 
( 2945.13 1346.77 4341.16 ) 0 
( 2196.99 1659.55 3735.7 ) 0 
( 532.562 4401.54 4124.66 ) 0 
( 2609.85 4455.7 3860.15 ) 0 
( 487.159 2187.18 3768.69 ) 0 
( 1237.51 1721 4233.92 ) 0 
( 1100.27 213.264 4024.33 ) 0 
( 4433.38 2586.24 3876.33 ) 0 
( 4756.07 636.961 3941.83 ) 0 
( 4060.62 3945.21 4366.8 ) 0 
( 1788.68 3192.98 4826.48 ) 0 
( 3810.17 929.431 4073.19 ) 0 
( 3555.41 2971.34 4719.18 ) 0 
( 3074.9 3811.63 4466.95 ) 0 
( 258.177 499.996 4582.22 ) 0 
( 934.081 2894.86 4315.08 ) 0 
( 450.482 1440.23 4860.07 ) 0 
( 2767.23 2328.43 4295.46 ) 0 
( 388.862 3621.11 4732.43 ) 0 
( 1900.21 4809.52 4466.92 ) 0 
( 2104.64 1719.86 4729.38 ) 0 
( 4758.13 1106.68 4823.64 ) 0 
( 1290.93 4044.99 4667.33 ) 0 
( 4109.1 1853.35 4680.84 ) 0 
( 3206.81 1937.6 5102.8 ) 0 
( 3616.27 1027.32 5046.66 ) 0 
( 2934.78 371.334 4723.29 ) 0 
( 696.886 434.794 5477.59 ) 0 
( 3267.98 4755.97 4731.76 ) 0 
( 4519.34 2747.48 4858.32 ) 0 
( 2663.91 2835.99 5149.86 ) 0 
( 4061.4 4368.54 5279.81 ) 0 
( 4206.36 280.392 4720.33 ) 0 
( 1359.97 2313.75 5027.4 ) 0 
( 1257.23 860.68 4768.02 ) 0 
( 2267.72 4051.75 5004.1 ) 0 
( 242.396 3678.32 5948.38 ) 0 
( 3557.38 121.605 5462.35 ) 0 
( 1944.47 430.895 5350.21 ) 0 
( 362.076 4435.79 5308.3 ) 0 
( 3851.13 2540.01 5570.96 ) 0 
( 1117.79 3514.17 5494.18 ) 0 
( 4985.58 1968.48 5275.49 ) 0 
( 2677.46 84.7965 5932.28 ) 0 
( 2659.17 1128.2 5312.78 ) 0 
( 3353.32 938.925 6006.96 ) 0 
( 500.735 2770.81 5244.34 ) 0 
( 4767.72 3680.2 5117.66 ) 0 
( 28.3244 1964.89 5596.4 ) 0 
( 4150.28 1591.57 5672.52 ) 0 
( 1799.18 2833.24 5757.59 ) 0 
( 3170.59 3896.85 5456.06 ) 0 
( 1543.86 4582.48 5469.29 ) 0 
( 4847.68 2923.71 5785.98 ) 0 
( 4401.91 625.659 5636.62 ) 0 
( 1809.37 170.581 6418.98 ) 0 
( 1599.96 2010.01 6287.65 ) 0 
( 2006.94 1123.82 6068.98 ) 0 
( 1175.16 1481.62 5546.72 ) 0 
( 4031.49 3501.1 5772.36 ) 0 
( 2441.97 4995.34 5283.4 ) 0 
( 3121.79 3066.01 6007.51 ) 0 
( 2371.66 2022.2 5651.91 ) 0 
( 4513.4 4831.61 6054.61 ) 0 
( 2318.46 3669.71 5925.58 ) 0 
( 1078.27 841.993 6306.7 ) 0 
( 886.323 2808.46 6165.01 ) 0 
( 3314.01 4841.41 5744.22 ) 0 
( 1061.03 4164.05 6249.63 ) 0 
( 4677.15 1319.26 6480.7 ) 0 
( 2691.76 612.435 6779.64 ) 0 
( 4899.18 3893.8 6084.94 ) 0 
( 4324.3 2249.83 6401.17 ) 0 
( 640.365 1738.98 6353.54 ) 0 
( 3321.74 4107.15 6421 ) 0 
( 149.511 770.845 6668.98 ) 0 
( 241.607 3351.25 6892.7 ) 0 
( 4807.14 328.09 6500.01 ) 0 
( 2233.76 4629.96 6188.63 ) 0 
( 3526.89 63.9969 6458.43 ) 0 
( 3521.46 2661.44 6828.09 ) 0 
( 858.21 124.195 6964.58 ) 0 
( 1604.13 3387.99 6564.42 ) 0 
( 2833.76 4834.34 6958.86 ) 0 
( 4035.02 743.922 6984.78 ) 0 
( 2681.88 3459.54 6832.4 ) 0 
( 1040.14 2809.88 7152.13 ) 0 
( 4250.01 4196.68 6779.94 ) 0 
( 4380.99 2285.28 7398.05 ) 0 
( 3259.99 1933.84 6100.62 ) 0 
( 2412.8 2558.39 6495.08 ) 0 
( 1818.06 1017.59 7044.44 ) 0 
( 3202.04 20.4431 7401.48 ) 0 
( 4369.74 3211.29 6665.63 ) 0 
( 1324.38 4929.46 6833.48 ) 0 
( 3709.43 1688.59 6958.25 ) 0 
( 3595.75 3576.74 7221.64 ) 0 
( 2377.98 1490.14 7727.4 ) 0 
( 2569.6 1603.28 6742.79 ) 0 
( 1998.74 2988.67 7389.48 ) 0 
( 856.384 1241 7195.65 ) 0 
( 3641.78 4564.65 7480.21 ) 0 
( 256.518 4436.39 7537.2 ) 0 
( 1676.77 2047.94 7283.56 ) 0 
( 3231.69 1012.79 7518.82 ) 0 
( 1962.72 4188.83 7042.1 ) 0 
( 1024.76 3885.89 7208.87 ) 0 
( 3952.58 417.821 7925.73 ) 0 
( 393.186 3510.75 7886.48 ) 0 
( 768.349 2062.69 7756.55 ) 0 
( 1883.23 3806.1 7960.67 ) 0 
( 4935.66 545.066 8046.14 ) 0 
( 2429.35 496.36 7816.84 ) 0 
( 1189.93 4667.31 7809.84 ) 0 
( 1427.88 1356.51 8008.17 ) 0 
( 1439.69 397.032 7729.96 ) 0 
( 4432.28 3250.96 7661.62 ) 0 
( 2778.07 4079.19 7610.26 ) 0 
( 3593.25 2731.83 7821.94 ) 0 
( 2767.46 2351.88 7405.19 ) 0 
( 2133.64 4959.47 7659.92 ) 0 
( 4096.53 1401.82 7833.36 ) 0 
( 2128.16 2382.18 8172.85 ) 0 
( 2072.88 931.933 8641.8 ) 0 
( 3242.39 1834.98 8114.45 ) 0 
( 1299.02 2981.77 8101.82 ) 0 
( 3567.45 3855.35 8180.29 ) 0 
( 4364.54 4457.95 8161.95 ) 0 
( 110.312 4259.46 8509.62 ) 0 
( 1436.06 164.938 8707.59 ) 0 
( 2728.61 3180.61 8044.84 ) 0 
( 505.918 676.877 7950.28 ) 0 
( 4840.45 1430.3 8498.49 ) 0 
( 510.448 1488.95 8532.86 ) 0 
( 1069.47 3850.57 8538.04 ) 0 
( 3792.39 4404.67 8984.16 ) 0 
( 429.54 2664.88 8478.4 ) 0 
( 2056.81 3262.54 8780.35 ) 0 
( 4051.25 895.523 8798.16 ) 0 
( 3192.62 2620.71 8730.79 ) 0 
( 2441.54 4461.38 8469.98 ) 0 
( 4242.68 2223.26 8386.09 ) 0 
( 3062.7 930.301 8500.57 ) 0 
( 2561.01 1779.97 8842.44 ) 0 
( 3292.01 4965.64 8325.03 ) 0 
( 1197.12 1048.19 9109.16 ) 0 
( 4963.2 2233.65 9079.08 ) 0 
( 1272.19 2129.4 8622.92 ) 0 
( 4316.97 3386.43 8644.76 ) 0 
( 232.634 3443.54 9072.79 ) 0 
( 3467.96 214.727 9239.55 ) 0 
( 3976.42 3607.17 9558.16 ) 0 
( 3629.23 1770.77 9032.93 ) 0 
( 2470.01 193.352 9185.26 ) 0 
( 2915.17 4877.94 9246.19 ) 0 
( 1945.59 2418.43 9302.76 ) 0 
( 4969.44 3187.91 9374.18 ) 0 
( 1518.93 4714.7 8759.04 ) 0 
( 168.45 1347.97 9461.82 ) 0 
( 4833.35 4209.38 9009.29 ) 0 
( 1137.86 3019.24 9087.49 ) 0 
( 723.436 4346.67 9332.57 ) 0 
( 2990.91 3575.9 8946.63 ) 0 
( 4037.35 2653.51 9264.69 ) 0 
( 2195.74 4068.67 9355.31 ) 0 
( 547.497 442.173 9645.15 ) 0 
( 2292.1 1170.09 9586.94 ) 0 
( 1475.94 1699.74 9813.64 ) 0 
( 1534.92 4696.43 9799.01 ) 0 
( 4744.39 1194.3 9464.41 ) 0 
( 1340.19 2746.46 10027.3 ) 0 
( 3284 1092.35 9680.91 ) 0 
( 4830.09 103.595 9417.01 ) 0 
( 2954.58 2253.38 9629.34 ) 0 
( 694.303 2196.58 9438.62 ) 0 
( 4334.83 4527.92 9814.57 ) 0 
( 2520.42 387.348 10164.5 ) 0 
( 4572.84 2690.97 10145.4 ) 0 
( 2501.54 3145.49 9704.41 ) 0 
( 3126.76 4074.39 9802.17 ) 0 
( 3539.69 4796.12 10357 ) 0 
( 4116.11 1835.46 9902.78 ) 0 
( 375.09 2997.49 9955.44 ) 0 
( 804.886 103.067 10549.2 ) 0 
( 1359.64 3712.65 9771.51 ) 0 
( 1528.8 643.539 9960.68 ) 0 
( 4106.14 578.214 9924.18 ) 0 
( 4731.21 3681.29 10209.8 ) 0 
( 2179.11 2252.14 10260.3 ) 0 
( 442.18 4936.87 10100.1 ) 0 
( 2470.94 4787.21 10136.7 ) 0 
( 1884.76 3028.66 10816.7 ) 0 
( 634.482 1606.31 10344 ) 0 
( 1738.72 1295.24 10688.8 ) 0 
( 3596.02 2577.6 10323.5 ) 0 
( 2959.39 3295.62 10601.4 ) 0 
( 557.971 3904.51 10336.2 ) 0 
( 2175.34 3852.79 10331.2 ) 0 
( 3791.93 3841.58 10512.2 ) 0 
( 4671.36 1217.16 10460.8 ) 0 
( 2703.95 1425.36 10461.2 ) 0 
( 3680.09 1249.56 10585.1 ) 0 
( 2866.64 2373.29 10975.8 ) 0 
( 3422.71 35.4151 10411.3 ) 0 
( 367.644 2457 10796 ) 0 
( 2899.12 4249.39 10895.1 ) 0 
( 515.897 914.722 11056 ) 0 
( 4259.32 2062.4 10865.6 ) 0 
( 344.488 4578.17 11043.1 ) 0 
( 4136 3051.18 11018.6 ) 0 
( 1329.32 2191.23 10858.3 ) 0 
( 1375.59 4108.51 10873.3 ) 0 
( 4683.2 4519.52 10751.8 ) 0 
( 4190.05 10.7325 11051.7 ) 0 
( 2515.31 3416.07 11488.9 ) 0 
( 3840.73 4583.74 11286.3 ) 0 
( 2444.44 902.495 11277.5 ) 0 
( 1434.92 501.741 11215.4 ) 0 
( 3386.47 569.06 11255.9 ) 0 
( 3498.45 1747.59 11432.6 ) 0 
( 3051 1098.81 12047.7 ) 0 
( 3482.91 3666.27 11459.5 ) 0 
( 938.425 3231.08 11067.9 ) 0 
( 661.203 1802.39 11492.3 ) 0 
( 233.501 2887.83 11688.3 ) 0 
( 2899.91 111.622 12000.1 ) 0 
( 2107.64 1885.54 11406.4 ) 0 
( 4736.65 2483.24 11636.7 ) 0 
( 2114.31 4331.75 11508.7 ) 0 
( 4273.79 1031.2 11359.1 ) 0 
( 4774.88 9.71378 11862.6 ) 0 
)
