/*--------------------------------*- C++ -*----------------------------------*\
| =========                 |                                                 |
| \\      /  F ield         | OpenFOAM: The Open Source CFD Toolbox           |
|  \\    /   O peration     | Version:  5.x                                   |
|   \\  /    A nd           | Web:      www.OpenFOAM.org                      |
|    \\/     M anipulation  |                                                 |
\*---------------------------------------------------------------------------*/
FoamFile
{
    version     2.0;
    format      ascii;
    class       surfaceScalarField;
    location    "200";
    object      phi;
}
// * * * * * * * * * * * * * * * * * * * * * * * * * * * * * * * * * * * * * //

dimensions      [0 3 -1 0 0 0 0];

internalField   nonuniform List<scalar> 
89
(
-0.0249995
-0.0249995
-0.0249995
-0.0249994
-0.0249994
-0.0249993
-0.0249992
-0.024999
-0.0249988
-0.0249985
-0.0249982
-0.0249978
-0.0249974
-0.0249968
-0.0249962
-0.0249955
-0.0249947
-0.0249939
-0.024993
-0.0249921
-0.0249912
-0.0249904
-0.0249898
-0.0249895
-0.0249896
-0.0249907
-0.0249934
-0.0249985
-0.0250073
-0.0250212
-0.0250426
-0.0250748
-0.025122
-0.0251905
-0.0252888
-0.0254275
-0.0256214
-0.0258933
-0.026371
-0.0261468
-0.0261897
-0.0264529
-0.0266567
-0.0270315
-0.0272126
-0.0274152
-0.0278794
-0.0283619
-0.0284027
-0.028511
-0.0283024
-0.0282063
-0.0281463
-0.0275907
-0.0269629
-0.0264843
-0.0261237
-0.0258514
-0.0256456
-0.02549
-0.0253722
-0.025283
-0.0252154
-0.0251641
-0.0251252
-0.0250955
-0.025073
-0.0250558
-0.0250428
-0.0250328
-0.0250252
-0.0250193
-0.0250149
-0.0250114
-0.0250088
-0.0250068
-0.0250053
-0.0250041
-0.0250033
-0.0250026
-0.0250021
-0.0250018
-0.0250015
-0.0250012
-0.025001
-0.0250008
-0.0250006
-0.0250004
-0.0250002
)
;

boundaryField
{
    inlet
    {
        type            calculated;
        value           uniform -0.025;
    }
    outlet
    {
        type            calculated;
        value           uniform 0.0249995;
    }
    repeat_boundary
    {
        type            calculated;
        value           uniform 0;
    }
    procBoundary1to0
    {
        type            processor;
        value           nonuniform List<scalar> 
90
(
-8.16771e-09
-2.06134e-08
-3.34802e-08
-4.62668e-08
-5.90461e-08
-7.19523e-08
-8.5264e-08
-9.93952e-08
-1.14876e-07
-1.32364e-07
-1.52552e-07
-1.76068e-07
-2.03339e-07
-2.34398e-07
-2.68608e-07
-3.04244e-07
-3.38062e-07
-3.6614e-07
-3.82761e-07
-3.82548e-07
-3.6025e-07
-3.07964e-07
-2.10259e-07
-5.72925e-08
2.58749e-07
7.72588e-07
1.72096e-06
3.09921e-06
5.1024e-06
7.98809e-06
1.2107e-05
1.79383e-05
2.61382e-05
3.76095e-05
5.35862e-05
7.52968e-05
0.000104212
0.000145744
0.000269873
-0.000167359
2.54625e-05
0.000186539
8.19579e-05
0.000274866
0.000286253
0.000209095
0.00016752
2.77395e-05
-0.000138726
0.000123825
-3.63407e-05
-6.05852e-05
-0.000171709
-0.000368083
-0.000332505
-0.000249066
-0.000189035
-0.000144065
-0.000109942
-8.40204e-05
-6.43115e-05
-4.93078e-05
-3.78696e-05
-2.91361e-05
-2.24568e-05
-1.73395e-05
-1.3412e-05
-1.03925e-05
-8.06704e-06
-6.27296e-06
-4.88649e-06
-3.81341e-06
-2.98171e-06
-2.3363e-06
-1.83497e-06
-1.44514e-06
-1.14168e-06
-9.05063e-07
-7.20114e-07
-5.75024e-07
-4.60642e-07
-3.69927e-07
-2.97536e-07
-2.39486e-07
-1.92885e-07
-1.55695e-07
-1.26584e-07
-1.04602e-07
-8.85916e-08
-7.9859e-08
)
;
    }
    procBoundary1to3
    {
        type            processor;
        value           nonuniform List<scalar> 
90
(
-7.84223e-09
-2.00439e-08
-3.26027e-08
-4.50698e-08
-5.75679e-08
-7.03587e-08
-8.37097e-08
-9.80208e-08
-1.13934e-07
-1.32239e-07
-1.53817e-07
-1.7956e-07
-2.10273e-07
-2.46528e-07
-2.88474e-07
-3.35553e-07
-3.8607e-07
-4.36434e-07
-4.79536e-07
-5.03669e-07
-5.09381e-07
-4.95244e-07
-4.46716e-07
-3.43842e-07
-1.71558e-07
2.3459e-07
9.40452e-07
2.00262e-06
3.59089e-06
5.92843e-06
9.32175e-06
1.41927e-05
2.11218e-05
3.09119e-05
4.47029e-05
6.34904e-05
8.97629e-05
0.000126253
0.000207949
-5.65191e-05
1.74016e-05
7.67294e-05
0.000121872
9.99732e-05
-0.000105068
-6.49476e-06
0.000296794
0.000454882
0.000179542
-1.55002e-05
-0.000172185
-3.54707e-05
0.000111816
-0.000187656
-0.000295456
-0.000229723
-0.0001717
-0.000128308
-9.58719e-05
-7.15969e-05
-5.34377e-05
-3.98585e-05
-2.97064e-05
-2.21193e-05
-1.64518e-05
-1.22314e-05
-9.08981e-06
-6.74957e-06
-5.00658e-06
-3.70856e-06
-2.7424e-06
-2.02409e-06
-1.49064e-06
-1.09533e-06
-8.03263e-07
-5.88145e-07
-4.30299e-07
-3.14875e-07
-2.30424e-07
-1.68562e-07
-1.23185e-07
-8.88217e-08
-6.27619e-08
-4.21645e-08
-2.58082e-08
-1.4346e-08
-5.29037e-09
1.40202e-09
5.53225e-09
7.86918e-09
)
;
    }
}


// ************************************************************************* //
