/*--------------------------------*- C++ -*----------------------------------*\
| =========                 |                                                 |
| \\      /  F ield         | OpenFOAM: The Open Source CFD Toolbox           |
|  \\    /   O peration     | Version:  5.x                                   |
|   \\  /    A nd           | Web:      www.OpenFOAM.org                      |
|    \\/     M anipulation  |                                                 |
\*---------------------------------------------------------------------------*/
FoamFile
{
    version     2.0;
    format      ascii;
    class       volScalarField;
    location    "700";
    object      p;
}
// * * * * * * * * * * * * * * * * * * * * * * * * * * * * * * * * * * * * * //

dimensions      [0 2 -2 0 0 0 0];

internalField   nonuniform List<scalar> 
90
(
0.0181853
0.0311347
0.0392645
0.0443521
0.0482384
0.0501849
0.0506901
0.0496043
0.047155
0.0433382
0.0382166
0.0316909
0.0236583
0.0139588
0.0024426
-0.0110381
-0.0266121
-0.044402
-0.0645295
-0.087127
-0.11224
-0.139628
-0.16899
-0.200281
-0.233534
-0.268745
-0.305885
-0.344912
-0.385768
-0.42839
-0.472707
-0.518646
-0.566131
-0.615087
-0.665443
-0.717126
-0.770059
-0.82417
-0.879398
-0.935697
-0.993025
-1.05135
-1.11065
-1.17092
-1.23214
-1.29432
-1.35746
-1.4216
-1.48674
-1.5529
-1.62013
-1.68843
-1.75784
-1.82838
-1.90007
-1.97293
-2.04698
-2.12222
-2.19867
-2.27633
-2.35519
-2.43524
-2.51649
-2.59891
-2.68248
-2.76719
-2.85299
-2.93983
-3.02756
-3.1161
-3.20578
-3.29734
-3.39105
-3.48678
-3.58444
-3.68396
-3.78528
-3.88837
-3.9932
-4.09974
-4.208
-4.31803
-4.42984
-4.54324
-4.65788
-4.77467
-4.89703
-5.02725
-5.15088
-5.21186
)
;

boundaryField
{
    inlet
    {
        type            zeroGradient;
    }
    outlet
    {
        type            fixedValue;
        value           uniform 0;
    }
    repeat_boundary
    {
        type            zeroGradient;
    }
    procBoundary3to1
    {
        type            processor;
        value           nonuniform List<scalar> 
90
(
0.0199522
0.0232328
0.0256182
0.0216945
0.016241
0.00863909
0.00092469
-0.00590157
-0.0129835
-0.0187156
-0.0240389
-0.0295737
-0.0357066
-0.0428123
-0.0511504
-0.0609286
-0.0722857
-0.085324
-0.100087
-0.11656
-0.134787
-0.155055
-0.17767
-0.202657
-0.229944
-0.259469
-0.291169
-0.324976
-0.360822
-0.398636
-0.438345
-0.479873
-0.523144
-0.568086
-0.614624
-0.662688
-0.712212
-0.763133
-0.815394
-0.868945
-0.923742
-0.979747
-1.03693
-1.09527
-1.15475
-1.21535
-1.27708
-1.33992
-1.40389
-1.46899
-1.53523
-1.60262
-1.67117
-1.7409
-1.81183
-1.88396
-1.95731
-2.0319
-2.10775
-2.18486
-2.26325
-2.34295
-2.42396
-2.5063
-2.58999
-2.67505
-2.76151
-2.84938
-2.9387
-3.02949
-3.12182
-3.21575
-3.31135
-3.40865
-3.50769
-3.60851
-3.71113
-3.81557
-3.92183
-4.02995
-4.13996
-4.25191
-4.36565
-4.48081
-4.59746
-4.7178
-4.84536
-4.97618
-5.08374
-5.11211
)
;
    }
    procBoundary3to2
    {
        type            processor;
        value           nonuniform List<scalar> 
90
(
-0.0583554
-0.0703043
-0.0478595
-0.0301598
-0.0178821
-0.0130049
-0.0117515
-0.0130376
-0.0156483
-0.0185255
-0.0204443
-0.0224289
-0.0248339
-0.0281926
-0.0327969
-0.0389415
-0.0467953
-0.0564926
-0.0681144
-0.0817199
-0.0973378
-0.114975
-0.134624
-0.156283
-0.179945
-0.205601
-0.233237
-0.262835
-0.294372
-0.32782
-0.363147
-0.400318
-0.439293
-0.480032
-0.522489
-0.56662
-0.612386
-0.659752
-0.708676
-0.759108
-0.811006
-0.864327
-0.919031
-0.975081
-1.03244
-1.09109
-1.15099
-1.21212
-1.27446
-1.338
-1.40273
-1.46863
-1.53569
-1.60392
-1.67332
-1.74388
-1.81561
-1.88853
-1.96263
-2.03794
-2.11447
-2.19223
-2.27124
-2.35153
-2.43313
-2.51606
-2.60032
-2.68599
-2.77326
-2.86225
-2.9526
-3.04375
-3.13559
-3.22834
-3.32211
-3.41695
-3.51284
-3.6097
-3.70743
-3.80585
-3.90464
-4.00326
-4.10143
-4.19965
-4.29775
-4.38828
-4.45854
-4.52847
-4.68766
-4.95857
)
;
    }
}


// ************************************************************************* //
