/*--------------------------------*- C++ -*----------------------------------*\
| =========                 |                                                 |
| \\      /  F ield         | OpenFOAM: The Open Source CFD Toolbox           |
|  \\    /   O peration     | Version:  5.x                                   |
|   \\  /    A nd           | Web:      www.OpenFOAM.org                      |
|    \\/     M anipulation  |                                                 |
\*---------------------------------------------------------------------------*/
FoamFile
{
    version     2.0;
    format      ascii;
    class       volVectorField;
    location    "0.08";
    object      stored_U;
}
// * * * * * * * * * * * * * * * * * * * * * * * * * * * * * * * * * * * * * //

dimensions      [0 1 -1 0 0 0 0];

internalField   nonuniform List<vector> 
2250
(
(-2.26776e-10 -3.71439e-11 -0.000999999)
(-2.1896e-10 -3.84055e-11 -0.000999999)
(-1.75876e-10 -3.70501e-11 -0.001)
(-1.12036e-10 -3.47886e-11 -0.001)
(-3.80915e-11 -3.2439e-11 -0.001)
(-2.29515e-10 -1.14234e-10 -0.000999999)
(-2.19371e-10 -1.09965e-10 -0.001)
(-1.7262e-10 -1.0082e-10 -0.001)
(-1.07685e-10 -9.14218e-11 -0.001)
(-3.58646e-11 -8.45154e-11 -0.001)
(-2.23971e-10 -1.8685e-10 -0.000999999)
(-2.06047e-10 -1.70053e-10 -0.001)
(-1.5772e-10 -1.49012e-10 -0.001)
(-9.61397e-11 -1.3016e-10 -0.001)
(-3.14392e-11 -1.18717e-10 -0.001)
(-2.09399e-10 -2.53599e-10 -0.001)
(-1.81568e-10 -2.1808e-10 -0.001)
(-1.32764e-10 -1.8667e-10 -0.001)
(-7.76573e-11 -1.57857e-10 -0.001)
(-2.46784e-11 -1.41405e-10 -0.001)
(-1.97183e-10 -2.18281e-10 -0.001)
(-1.39232e-10 -2.04462e-10 -0.001)
(-9.75291e-11 -1.84035e-10 -0.001)
(-5.11703e-11 -1.6657e-10 -0.001)
(-1.52787e-11 -1.56781e-10 -0.001)
(-6.21438e-10 -1.03017e-10 -0.000999999)
(-5.97117e-10 -1.03804e-10 -0.000999999)
(-4.7734e-10 -9.88077e-11 -0.001)
(-3.03263e-10 -9.20084e-11 -0.001)
(-1.02491e-10 -8.50958e-11 -0.001)
(-6.25018e-10 -3.09379e-10 -0.000999999)
(-5.94102e-10 -2.94204e-10 -0.000999999)
(-4.66399e-10 -2.68217e-10 -0.001)
(-2.90183e-10 -2.43121e-10 -0.001)
(-9.58964e-11 -2.25709e-10 -0.001)
(-6.06304e-10 -4.9209e-10 -0.000999999)
(-5.57158e-10 -4.47982e-10 -0.001)
(-4.27194e-10 -3.94249e-10 -0.001)
(-2.61753e-10 -3.48526e-10 -0.001)
(-8.57162e-11 -3.23937e-10 -0.001)
(-5.61162e-10 -6.52831e-10 -0.001)
(-4.96318e-10 -5.63051e-10 -0.001)
(-3.67036e-10 -4.89382e-10 -0.001)
(-2.20527e-10 -4.26462e-10 -0.001)
(-7.194e-11 -3.96382e-10 -0.001)
(-5.25054e-10 -5.83316e-10 -0.001)
(-3.93602e-10 -5.36902e-10 -0.001)
(-2.90651e-10 -4.87616e-10 -0.001)
(-1.69483e-10 -4.52244e-10 -0.001)
(-5.63761e-11 -4.36903e-10 -0.001)
(-1.07787e-09 -1.70578e-10 -0.000999999)
(-1.02126e-09 -1.69229e-10 -0.000999999)
(-8.12041e-10 -1.61501e-10 -0.001)
(-5.15258e-10 -1.52187e-10 -0.001)
(-1.73558e-10 -1.43078e-10 -0.001)
(-1.07921e-09 -5.02887e-10 -0.000999999)
(-1.01406e-09 -4.79572e-10 -0.000999999)
(-7.96394e-10 -4.44214e-10 -0.001)
(-4.97937e-10 -4.12752e-10 -0.001)
(-1.6501e-10 -3.92675e-10 -0.001)
(-1.04997e-09 -7.76115e-10 -0.000999999)
(-9.64528e-10 -7.24763e-10 -0.001)
(-7.46763e-10 -6.59523e-10 -0.001)
(-4.65413e-10 -6.08307e-10 -0.001)
(-1.54547e-10 -5.84881e-10 -0.001)
(-9.86135e-10 -9.50142e-10 -0.000999999)
(-8.97579e-10 -8.87503e-10 -0.001)
(-6.801e-10 -8.14827e-10 -0.001)
(-4.24487e-10 -7.56512e-10 -0.001)
(-1.42702e-10 -7.34555e-10 -0.001)
(-8.86514e-10 -1.00626e-09 -0.001)
(-8.29217e-10 -8.96058e-10 -0.001)
(-6.15856e-10 -8.38663e-10 -0.001)
(-3.86543e-10 -8.08114e-10 -0.001)
(-1.33955e-10 -8.00163e-10 -0.001)
(-1.62397e-09 -2.40327e-10 -0.000999998)
(-1.51717e-09 -2.37594e-10 -0.000999999)
(-1.20225e-09 -2.30104e-10 -0.001)
(-7.65073e-10 -2.21672e-10 -0.001)
(-2.58651e-10 -2.13141e-10 -0.001)
(-1.62331e-09 -7.00984e-10 -0.000999999)
(-1.50959e-09 -6.75874e-10 -0.000999999)
(-1.18839e-09 -6.43029e-10 -0.001)
(-7.49788e-10 -6.16219e-10 -0.001)
(-2.50949e-10 -5.99586e-10 -0.001)
(-1.59084e-09 -1.06579e-09 -0.000999999)
(-1.46201e-09 -1.02478e-09 -0.000999999)
(-1.14488e-09 -9.70031e-10 -0.001)
(-7.24182e-10 -9.31262e-10 -0.001)
(-2.43591e-10 -9.15604e-10 -0.001)
(-1.52382e-09 -1.25703e-09 -0.000999999)
(-1.41401e-09 -1.24163e-09 -0.001)
(-1.09512e-09 -1.20058e-09 -0.001)
(-6.97229e-10 -1.16879e-09 -0.001)
(-2.36989e-10 -1.15835e-09 -0.001)
(-1.37289e-09 -1.464e-09 -0.001)
(-1.4056e-09 -1.32352e-09 -0.001)
(-1.07224e-09 -1.27508e-09 -0.001)
(-6.84469e-10 -1.25706e-09 -0.001)
(-2.3554e-10 -1.25495e-09 -0.001)
(-2.30796e-09 -3.24304e-10 -0.000999998)
(-2.13085e-09 -3.20179e-10 -0.000999999)
(-1.68513e-09 -3.14141e-10 -0.000999999)
(-1.07555e-09 -3.0792e-10 -0.001)
(-3.65454e-10 -3.00469e-10 -0.001)
(-2.30655e-09 -9.39273e-10 -0.000999998)
(-2.12437e-09 -9.14737e-10 -0.000999999)
(-1.67586e-09 -8.90173e-10 -0.001)
(-1.06431e-09 -8.71421e-10 -0.001)
(-3.59171e-10 -8.58126e-10 -0.001)
(-2.27908e-09 -1.43016e-09 -0.000999999)
(-2.08571e-09 -1.39857e-09 -0.000999999)
(-1.6451e-09 -1.36148e-09 -0.001)
(-1.04719e-09 -1.33683e-09 -0.001)
(-3.54422e-10 -1.32585e-09 -0.001)
(-2.22645e-09 -1.68149e-09 -0.000999999)
(-2.05597e-09 -1.70736e-09 -0.001)
(-1.6145e-09 -1.69338e-09 -0.001)
(-1.03143e-09 -1.68089e-09 -0.001)
(-3.50718e-10 -1.67348e-09 -0.001)
(-2.03915e-09 -2.01054e-09 -0.001)
(-2.09756e-09 -1.87141e-09 -0.001)
(-1.61883e-09 -1.83642e-09 -0.001)
(-1.03072e-09 -1.8262e-09 -0.001)
(-3.50252e-10 -1.82285e-09 -0.001)
(-3.18959e-09 -4.33784e-10 -0.000999997)
(-2.91563e-09 -4.28687e-10 -0.000999998)
(-2.30611e-09 -4.23195e-10 -0.000999999)
(-1.47438e-09 -4.17988e-10 -0.001)
(-5.02802e-10 -4.10609e-10 -0.001)
(-3.18874e-09 -1.25121e-09 -0.000999998)
(-2.91016e-09 -1.23083e-09 -0.000999999)
(-2.29958e-09 -1.21284e-09 -0.001)
(-1.46514e-09 -1.19816e-09 -0.001)
(-4.97007e-10 -1.18507e-09 -0.001)
(-3.17099e-09 -1.91977e-09 -0.000999998)
(-2.88266e-09 -1.89743e-09 -0.000999999)
(-2.27789e-09 -1.87299e-09 -0.001)
(-1.45165e-09 -1.85323e-09 -0.001)
(-4.92829e-10 -1.84135e-09 -0.001)
(-3.13848e-09 -2.35244e-09 -0.000999999)
(-2.86369e-09 -2.35427e-09 -0.001)
(-2.2558e-09 -2.34509e-09 -0.001)
(-1.43733e-09 -2.33103e-09 -0.001)
(-4.88676e-10 -2.31833e-09 -0.001)
(-3.01295e-09 -2.68436e-09 -0.001)
(-2.87545e-09 -2.60835e-09 -0.001)
(-2.25497e-09 -2.57415e-09 -0.001)
(-1.42957e-09 -2.56211e-09 -0.001)
(-4.84543e-10 -2.55364e-09 -0.001)
(-4.35724e-09 -5.79015e-10 -0.000999997)
(-3.95177e-09 -5.74936e-10 -0.000999998)
(-3.13108e-09 -5.68747e-10 -0.000999999)
(-2.00309e-09 -5.62674e-10 -0.001)
(-6.84559e-10 -5.54933e-10 -0.001)
(-4.35992e-09 -1.67253e-09 -0.000999997)
(-3.94859e-09 -1.66203e-09 -0.000999998)
(-3.12452e-09 -1.64577e-09 -0.000999999)
(-1.9939e-09 -1.6299e-09 -0.001)
(-6.79019e-10 -1.61572e-09 -0.001)
(-4.35231e-09 -2.58851e-09 -0.000999998)
(-3.93253e-09 -2.58139e-09 -0.000999999)
(-3.10514e-09 -2.55906e-09 -0.001)
(-1.98e-09 -2.53591e-09 -0.001)
(-6.74652e-10 -2.52136e-09 -0.001)
(-4.33191e-09 -3.26816e-09 -0.000999999)
(-3.91955e-09 -3.25073e-09 -0.001)
(-3.07976e-09 -3.22427e-09 -0.001)
(-1.96147e-09 -3.19676e-09 -0.001)
(-6.69289e-10 -3.1781e-09 -0.001)
(-4.26505e-09 -3.65413e-09 -0.001)
(-3.88861e-09 -3.60046e-09 -0.001)
(-3.0516e-09 -3.56253e-09 -0.001)
(-1.94019e-09 -3.54399e-09 -0.001)
(-6.61962e-10 -3.53116e-09 -0.001)
(-5.94397e-09 -7.76162e-10 -0.000999996)
(-5.36537e-09 -7.74599e-10 -0.000999997)
(-4.25604e-09 -7.67145e-10 -0.000999999)
(-2.72376e-09 -7.59575e-10 -0.001)
(-9.32615e-10 -7.52947e-10 -0.001)
(-5.95275e-09 -2.25661e-09 -0.000999996)
(-5.366e-09 -2.2546e-09 -0.000999998)
(-4.2487e-09 -2.23649e-09 -0.000999999)
(-2.71576e-09 -2.21828e-09 -0.001)
(-9.2893e-10 -2.20539e-09 -0.001)
(-5.95092e-09 -3.52166e-09 -0.000999997)
(-5.35546e-09 -3.52088e-09 -0.000999999)
(-4.22805e-09 -3.49364e-09 -0.001)
(-2.70203e-09 -3.46775e-09 -0.001)
(-9.25477e-10 -3.45308e-09 -0.001)
(-5.93465e-09 -4.4791e-09 -0.000999998)
(-5.33861e-09 -4.4552e-09 -0.001)
(-4.19651e-09 -4.41571e-09 -0.001)
(-2.68232e-09 -4.38284e-09 -0.001)
(-9.20772e-10 -4.36406e-09 -0.001)
(-5.86529e-09 -5.01124e-09 -0.001)
(-5.29213e-09 -4.94457e-09 -0.001)
(-4.15628e-09 -4.89875e-09 -0.001)
(-2.65903e-09 -4.87601e-09 -0.001)
(-9.14804e-10 -4.86083e-09 -0.001)
(-8.12704e-09 -1.05038e-09 -0.000999994)
(-7.32312e-09 -1.04954e-09 -0.000999997)
(-5.80574e-09 -1.04062e-09 -0.000999999)
(-3.71811e-09 -1.03277e-09 -0.001)
(-1.27604e-09 -1.0296e-09 -0.001)
(-8.13974e-09 -3.06949e-09 -0.000999995)
(-7.32646e-09 -3.06569e-09 -0.000999997)
(-5.79944e-09 -3.04508e-09 -0.000999999)
(-3.71556e-09 -3.02861e-09 -0.001)
(-1.27688e-09 -3.02101e-09 -0.001)
(-8.13587e-09 -4.80332e-09 -0.000999996)
(-7.31262e-09 -4.79473e-09 -0.000999998)
(-5.78003e-09 -4.76601e-09 -0.001)
(-3.70682e-09 -4.74615e-09 -0.001)
(-1.27626e-09 -4.73477e-09 -0.001)
(-8.1174e-09 -6.08834e-09 -0.000999998)
(-7.29001e-09 -6.06567e-09 -0.001)
(-5.75212e-09 -6.02731e-09 -0.001)
(-3.69402e-09 -6.00521e-09 -0.001)
(-1.27435e-09 -5.99029e-09 -0.001)
(-8.04879e-09 -6.80777e-09 -0.001)
(-7.25164e-09 -6.74197e-09 -0.001)
(-5.72036e-09 -6.69768e-09 -0.001)
(-3.68157e-09 -6.6778e-09 -0.00100001)
(-1.27237e-09 -6.65976e-09 -0.00100001)
(-1.11237e-08 -1.43188e-09 -0.000999992)
(-1.00217e-08 -1.42742e-09 -0.000999996)
(-7.937e-09 -1.4171e-09 -0.000999998)
(-5.0898e-09 -1.41127e-09 -0.001)
(-1.75113e-09 -1.41288e-09 -0.001)
(-1.11342e-08 -4.18273e-09 -0.000999993)
(-1.00248e-08 -4.16749e-09 -0.000999996)
(-7.93515e-09 -4.14647e-09 -0.000999999)
(-5.09722e-09 -4.13732e-09 -0.001)
(-1.75825e-09 -4.13642e-09 -0.001)
(-1.11207e-08 -6.53025e-09 -0.000999995)
(-1.00044e-08 -6.50931e-09 -0.000999998)
(-7.92237e-09 -6.48687e-09 -0.001)
(-5.09724e-09 -6.48005e-09 -0.001)
(-1.7609e-09 -6.47052e-09 -0.001)
(-1.11017e-08 -8.2393e-09 -0.000999997)
(-9.9826e-09 -8.22191e-09 -0.001)
(-7.90763e-09 -8.19735e-09 -0.001)
(-5.09409e-09 -8.19115e-09 -0.00100001)
(-1.76078e-09 -8.17465e-09 -0.00100001)
(-1.10613e-08 -9.17927e-09 -0.001)
(-9.96257e-09 -9.1422e-09 -0.001)
(-7.89268e-09 -9.10812e-09 -0.00100001)
(-5.09054e-09 -9.09294e-09 -0.00100001)
(-1.75937e-09 -9.06736e-09 -0.00100001)
(-1.52104e-08 -1.95348e-09 -0.000999989)
(-1.37071e-08 -1.94268e-09 -0.000999994)
(-1.08556e-08 -1.9319e-09 -0.000999998)
(-6.97309e-09 -1.92981e-09 -0.001)
(-2.40362e-09 -1.9345e-09 -0.001)
(-1.52157e-08 -5.68619e-09 -0.000999991)
(-1.37099e-08 -5.65904e-09 -0.000999995)
(-1.08622e-08 -5.64008e-09 -0.000999999)
(-6.99163e-09 -5.63929e-09 -0.001)
(-2.41587e-09 -5.63984e-09 -0.001)
(-1.51896e-08 -8.84555e-09 -0.000999993)
(-1.36869e-08 -8.82201e-09 -0.000999998)
(-1.0857e-08 -8.80747e-09 -0.001)
(-6.99677e-09 -8.80869e-09 -0.001)
(-2.41876e-09 -8.79276e-09 -0.00100001)
(-1.5165e-08 -1.11432e-08 -0.000999996)
(-1.36734e-08 -1.113e-08 -0.001)
(-1.08513e-08 -1.11147e-08 -0.001)
(-6.9949e-09 -1.11116e-08 -0.00100001)
(-2.41633e-09 -1.10836e-08 -0.00100001)
(-1.51551e-08 -1.24009e-08 -0.001)
(-1.36585e-08 -1.23791e-08 -0.001)
(-1.08401e-08 -1.23453e-08 -0.00100001)
(-6.98732e-09 -1.23257e-08 -0.00100001)
(-2.41106e-09 -1.22876e-08 -0.00100001)
(-2.07676e-08 -2.65807e-09 -0.000999986)
(-1.87223e-08 -2.64244e-09 -0.000999992)
(-1.48438e-08 -2.63235e-09 -0.000999998)
(-9.54665e-09 -2.63281e-09 -0.001)
(-3.29291e-09 -2.63517e-09 -0.001)
(-2.0773e-08 -7.7162e-09 -0.000999988)
(-1.87296e-08 -7.68345e-09 -0.000999994)
(-1.48607e-08 -7.66447e-09 -0.001)
(-9.57121e-09 -7.66429e-09 -0.001)
(-3.30561e-09 -7.65581e-09 -0.00100001)
(-2.07348e-08 -1.19875e-08 -0.000999991)
(-1.87057e-08 -1.19655e-08 -0.000999997)
(-1.48535e-08 -1.19453e-08 -0.001)
(-9.57059e-09 -1.19377e-08 -0.00100001)
(-3.30434e-09 -1.19065e-08 -0.00100001)
(-2.06978e-08 -1.50918e-08 -0.000999995)
(-1.86897e-08 -1.50852e-08 -0.001)
(-1.48361e-08 -1.50561e-08 -0.00100001)
(-9.55678e-09 -1.50367e-08 -0.00100001)
(-3.29667e-09 -1.49924e-08 -0.00100001)
(-2.06604e-08 -1.6842e-08 -0.001)
(-1.86702e-08 -1.67782e-08 -0.00100001)
(-1.48071e-08 -1.67258e-08 -0.00100001)
(-9.53617e-09 -1.66877e-08 -0.00100002)
(-3.28744e-09 -1.66349e-08 -0.00100002)
(-2.83312e-08 -3.61165e-09 -0.000999981)
(-2.5554e-08 -3.59375e-09 -0.00099999)
(-2.02847e-08 -3.58283e-09 -0.000999997)
(-1.30494e-08 -3.58074e-09 -0.001)
(-4.49881e-09 -3.57485e-09 -0.00100001)
(-2.83441e-08 -1.04792e-08 -0.000999983)
(-2.55701e-08 -1.04412e-08 -0.000999992)
(-2.03078e-08 -1.0412e-08 -0.001)
(-1.3071e-08 -1.03987e-08 -0.00100001)
(-4.50698e-09 -1.03725e-08 -0.00100001)
(-2.82904e-08 -1.62904e-08 -0.000999988)
(-2.55347e-08 -1.62559e-08 -0.000999996)
(-2.02815e-08 -1.62079e-08 -0.001)
(-1.30542e-08 -1.61738e-08 -0.00100001)
(-4.49968e-09 -1.61233e-08 -0.00100001)
(-2.82273e-08 -2.05189e-08 -0.000999994)
(-2.54906e-08 -2.04886e-08 -0.001)
(-2.02301e-08 -2.04206e-08 -0.00100001)
(-1.30193e-08 -2.03696e-08 -0.00100002)
(-4.48653e-09 -2.03068e-08 -0.00100002)
(-2.81178e-08 -2.29108e-08 -0.001)
(-2.54367e-08 -2.27764e-08 -0.00100001)
(-2.01652e-08 -2.26869e-08 -0.00100002)
(-1.29801e-08 -2.26197e-08 -0.00100002)
(-4.474e-09 -2.2548e-08 -0.00100002)
(-3.86371e-08 -4.91081e-09 -0.000999975)
(-3.48657e-08 -4.88869e-09 -0.000999986)
(-2.76913e-08 -4.87127e-09 -0.000999997)
(-1.7807e-08 -4.86039e-09 -0.001)
(-6.13328e-09 -4.84401e-09 -0.00100001)
(-3.86569e-08 -1.42568e-08 -0.000999978)
(-3.48872e-08 -1.42009e-08 -0.00099999)
(-2.77122e-08 -1.41461e-08 -0.001)
(-1.78199e-08 -1.41074e-08 -0.00100001)
(-6.13599e-09 -1.40603e-08 -0.00100001)
(-3.85734e-08 -2.21855e-08 -0.000999984)
(-3.482e-08 -2.21084e-08 -0.000999995)
(-2.76513e-08 -2.20133e-08 -0.00100001)
(-1.77815e-08 -2.19417e-08 -0.00100001)
(-6.12293e-09 -2.18683e-08 -0.00100002)
(-3.8462e-08 -2.79573e-08 -0.000999992)
(-3.4719e-08 -2.78632e-08 -0.001)
(-2.75515e-08 -2.77388e-08 -0.00100001)
(-1.77198e-08 -2.76444e-08 -0.00100002)
(-6.10343e-09 -2.75545e-08 -0.00100002)
(-3.82662e-08 -3.11553e-08 -0.001)
(-3.46018e-08 -3.09428e-08 -0.00100001)
(-2.74361e-08 -3.08029e-08 -0.00100002)
(-1.76513e-08 -3.06964e-08 -0.00100003)
(-6.08366e-09 -3.05943e-08 -0.00100003)
(-5.26825e-08 -6.68431e-09 -0.000999966)
(-4.75506e-08 -6.65102e-09 -0.000999982)
(-3.7764e-08 -6.61985e-09 -0.000999996)
(-2.42738e-08 -6.59609e-09 -0.00100001)
(-8.35561e-09 -6.57005e-09 -0.00100001)
(-5.26995e-08 -1.94164e-08 -0.00099997)
(-4.75692e-08 -1.93212e-08 -0.000999986)
(-3.77759e-08 -1.92252e-08 -0.001)
(-2.42785e-08 -1.91534e-08 -0.00100001)
(-8.35551e-09 -1.90829e-08 -0.00100002)
(-5.25627e-08 -3.02253e-08 -0.000999978)
(-4.7448e-08 -3.00764e-08 -0.000999994)
(-3.7669e-08 -2.99182e-08 -0.00100001)
(-2.42134e-08 -2.98002e-08 -0.00100002)
(-8.33505e-09 -2.96944e-08 -0.00100002)
(-5.23738e-08 -3.80837e-08 -0.000999989)
(-4.72676e-08 -3.78952e-08 -0.001)
(-3.75077e-08 -3.76983e-08 -0.00100002)
(-2.41159e-08 -3.75462e-08 -0.00100003)
(-8.30541e-09 -3.74139e-08 -0.00100003)
(-5.20911e-08 -4.23348e-08 -0.001)
(-4.70629e-08 -4.20374e-08 -0.00100002)
(-3.7325e-08 -4.18275e-08 -0.00100003)
(-2.40029e-08 -4.16671e-08 -0.00100004)
(-8.27189e-09 -4.15171e-08 -0.00100005)
(-7.18267e-08 -9.10451e-09 -0.000999953)
(-6.4833e-08 -9.04974e-09 -0.000999975)
(-5.14769e-08 -8.99789e-09 -0.000999994)
(-3.30825e-08 -8.95829e-09 -0.00100001)
(-1.13865e-08 -8.92162e-09 -0.00100002)
(-7.18274e-08 -2.64513e-08 -0.000999959)
(-6.48392e-08 -2.62896e-08 -0.000999981)
(-5.14761e-08 -2.61362e-08 -0.001)
(-3.30803e-08 -2.60218e-08 -0.00100001)
(-1.13851e-08 -2.59196e-08 -0.00100002)
(-7.1606e-08 -4.11657e-08 -0.00099997)
(-6.46381e-08 -4.09132e-08 -0.000999992)
(-5.13079e-08 -4.06689e-08 -0.00100001)
(-3.29774e-08 -4.04884e-08 -0.00100002)
(-1.13523e-08 -4.03341e-08 -0.00100003)
(-7.13046e-08 -5.18304e-08 -0.000999985)
(-6.43498e-08 -5.15236e-08 -0.00100001)
(-5.10622e-08 -5.12236e-08 -0.00100003)
(-3.28289e-08 -5.0995e-08 -0.00100004)
(-1.13068e-08 -5.08022e-08 -0.00100005)
(-7.08982e-08 -5.75283e-08 -0.001)
(-6.40319e-08 -5.7102e-08 -0.00100002)
(-5.07861e-08 -5.67855e-08 -0.00100004)
(-3.26568e-08 -5.65477e-08 -0.00100006)
(-1.12541e-08 -5.63306e-08 -0.00100006)
(-9.79328e-08 -1.24067e-08 -0.000999936)
(-8.83983e-08 -1.23154e-08 -0.000999967)
(-7.01761e-08 -1.22341e-08 -0.000999992)
(-4.50995e-08 -1.21727e-08 -0.00100001)
(-1.5524e-08 -1.21199e-08 -0.00100002)
(-9.79025e-08 -3.60363e-08 -0.000999944)
(-8.83787e-08 -3.57694e-08 -0.000999974)
(-7.01562e-08 -3.5534e-08 -0.001)
(-4.50861e-08 -3.53592e-08 -0.00100002)
(-1.55193e-08 -3.52104e-08 -0.00100003)
(-9.75538e-08 -5.60498e-08 -0.000999959)
(-8.80592e-08 -5.56422e-08 -0.000999989)
(-6.98998e-08 -5.52749e-08 -0.00100001)
(-4.49277e-08 -5.50057e-08 -0.00100003)
(-1.54682e-08 -5.47804e-08 -0.00100004)
(-9.70825e-08 -7.0525e-08 -0.00099998)
(-8.76139e-08 -7.00356e-08 -0.00100001)
(-6.95348e-08 -6.95865e-08 -0.00100003)
(-4.47057e-08 -6.92524e-08 -0.00100005)
(-1.53981e-08 -6.89726e-08 -0.00100006)
(-9.64785e-08 -7.81858e-08 -0.001)
(-8.71214e-08 -7.75629e-08 -0.00100003)
(-6.9126e-08 -7.7082e-08 -0.00100006)
(-4.44515e-08 -7.67288e-08 -0.00100008)
(-1.53174e-08 -7.64187e-08 -0.00100009)
(-1.33551e-07 -1.69045e-08 -0.000999914)
(-1.20552e-07 -1.67569e-08 -0.000999955)
(-9.56996e-08 -1.66317e-08 -0.00099999)
(-6.15038e-08 -1.65375e-08 -0.00100002)
(-2.11723e-08 -1.64603e-08 -0.00100003)
(-1.33473e-07 -4.90746e-08 -0.000999924)
(-1.20487e-07 -4.86528e-08 -0.000999965)
(-9.56467e-08 -4.82966e-08 -0.001)
(-6.14692e-08 -4.80331e-08 -0.00100003)
(-2.11606e-08 -4.78161e-08 -0.00100004)
(-1.32938e-07 -7.62795e-08 -0.000999945)
(-1.19996e-07 -7.56445e-08 -0.000999985)
(-9.52616e-08 -7.51009e-08 -0.00100002)
(-6.12299e-08 -7.4703e-08 -0.00100005)
(-2.10821e-08 -7.43732e-08 -0.00100006)
(-1.32212e-07 -9.59424e-08 -0.000999972)
(-1.19322e-07 -9.51758e-08 -0.00100001)
(-9.47257e-08 -9.45114e-08 -0.00100005)
(-6.08974e-08 -9.40191e-08 -0.00100007)
(-2.0973e-08 -9.36069e-08 -0.00100009)
(-1.31321e-07 -1.0625e-07 -0.001)
(-1.18566e-07 -1.05348e-07 -0.00100004)
(-9.41176e-08 -1.0462e-07 -0.00100008)
(-6.05133e-08 -1.04087e-07 -0.0010001)
(-2.08462e-08 -1.03637e-07 -0.00100012)
(-1.8217e-07 -2.30169e-08 -0.000999883)
(-1.64444e-07 -2.27886e-08 -0.000999939)
(-1.30553e-07 -2.25967e-08 -0.000999986)
(-8.39076e-08 -2.24537e-08 -0.00100002)
(-2.88865e-08 -2.23415e-08 -0.00100004)
(-1.82018e-07 -6.67838e-08 -0.000999897)
(-1.64305e-07 -6.61444e-08 -0.000999953)
(-1.30444e-07 -6.56088e-08 -0.001)
(-8.38381e-08 -6.52132e-08 -0.00100004)
(-2.88633e-08 -6.48956e-08 -0.00100005)
(-1.81212e-07 -1.03752e-07 -0.000999925)
(-1.63569e-07 -1.02796e-07 -0.00099998)
(-1.29869e-07 -1.01992e-07 -0.00100003)
(-8.34757e-08 -1.01398e-07 -0.00100006)
(-2.87419e-08 -1.00914e-07 -0.00100008)
(-1.80111e-07 -1.30465e-07 -0.000999962)
(-1.62563e-07 -1.29303e-07 -0.00100002)
(-1.29075e-07 -1.28311e-07 -0.00100006)
(-8.29735e-08 -1.2757e-07 -0.0010001)
(-2.85736e-08 -1.26961e-07 -0.00100012)
(-1.78805e-07 -1.44371e-07 -0.00100001)
(-1.61417e-07 -1.43057e-07 -0.00100006)
(-1.28154e-07 -1.41954e-07 -0.00100011)
(-8.23819e-08 -1.41139e-07 -0.00100014)
(-2.83735e-08 -1.40471e-07 -0.00100016)
(-2.48565e-07 -3.132e-08 -0.00099984)
(-2.24389e-07 -3.09756e-08 -0.000999917)
(-1.78173e-07 -3.06851e-08 -0.000999982)
(-1.14528e-07 -3.04704e-08 -0.00100003)
(-3.94321e-08 -3.03078e-08 -0.00100006)
(-2.48294e-07 -9.08454e-08 -0.00099986)
(-2.24134e-07 -8.98907e-08 -0.000999937)
(-1.77973e-07 -8.9086e-08 -0.001)
(-1.14403e-07 -8.84901e-08 -0.00100005)
(-3.93907e-08 -8.80262e-08 -0.00100007)
(-2.4708e-07 -1.41092e-07 -0.000999897)
(-2.23036e-07 -1.39661e-07 -0.000999973)
(-1.77107e-07 -1.38453e-07 -0.00100004)
(-1.13851e-07 -1.37557e-07 -0.00100009)
(-3.92042e-08 -1.36848e-07 -0.00100011)
(-2.45417e-07 -1.77381e-07 -0.000999948)
(-2.21521e-07 -1.75621e-07 -0.00100002)
(-1.75907e-07 -1.74114e-07 -0.00100009)
(-1.13089e-07 -1.72988e-07 -0.00100013)
(-3.89475e-08 -1.72096e-07 -0.00100016)
(-2.43455e-07 -1.96173e-07 -0.00100001)
(-2.19771e-07 -1.94204e-07 -0.00100008)
(-1.74497e-07 -1.92529e-07 -0.00100015)
(-1.12183e-07 -1.91283e-07 -0.00100019)
(-3.8641e-08 -1.90291e-07 -0.00100022)
(-3.3928e-07 -4.26151e-08 -0.000999783)
(-3.0632e-07 -4.20997e-08 -0.000999887)
(-2.43289e-07 -4.16637e-08 -0.000999977)
(-1.56419e-07 -4.13411e-08 -0.00100004)
(-5.38638e-08 -4.11059e-08 -0.00100008)
(-3.3881e-07 -1.2359e-07 -0.00099981)
(-3.05884e-07 -1.22157e-07 -0.000999914)
(-2.42945e-07 -1.20942e-07 -0.001)
(-1.56204e-07 -1.20042e-07 -0.00100007)
(-5.37936e-08 -1.19365e-07 -0.0010001)
(-3.36973e-07 -1.91908e-07 -0.000999861)
(-3.04223e-07 -1.89743e-07 -0.000999964)
(-2.41627e-07 -1.87904e-07 -0.00100005)
(-1.55364e-07 -1.86545e-07 -0.00100012)
(-5.35093e-08 -1.85505e-07 -0.00100015)
(-3.34445e-07 -2.41191e-07 -0.00099993)
(-3.01915e-07 -2.38494e-07 -0.00100003)
(-2.39799e-07 -2.36189e-07 -0.00100012)
(-1.54202e-07 -2.34482e-07 -0.00100018)
(-5.31167e-08 -2.33178e-07 -0.00100022)
(-3.31445e-07 -2.66571e-07 -0.00100001)
(-2.99222e-07 -2.63564e-07 -0.00100011)
(-2.37648e-07 -2.61011e-07 -0.0010002)
(-1.52832e-07 -2.59121e-07 -0.00100026)
(-5.26555e-08 -2.57665e-07 -0.0010003)
(-4.63288e-07 -5.8014e-08 -0.000999704)
(-4.18399e-07 -5.724e-08 -0.000999847)
(-3.32421e-07 -5.65826e-08 -0.00099997)
(-2.13795e-07 -5.60966e-08 -0.00100006)
(-7.36375e-08 -5.57511e-08 -0.00100011)
(-4.62488e-07 -1.68225e-07 -0.000999741)
(-4.17665e-07 -1.66052e-07 -0.000999884)
(-3.31838e-07 -1.64207e-07 -0.00100001)
(-2.13428e-07 -1.62844e-07 -0.00100009)
(-7.35168e-08 -1.61845e-07 -0.00100014)
(-4.59694e-07 -2.6112e-07 -0.00099981)
(-4.15129e-07 -2.57823e-07 -0.000999952)
(-3.29826e-07 -2.55018e-07 -0.00100007)
(-2.12143e-07 -2.5295e-07 -0.00100016)
(-7.30797e-08 -2.51412e-07 -0.00100021)
(-4.55828e-07 -3.27996e-07 -0.000999905)
(-4.11611e-07 -3.23867e-07 -0.00100004)
(-3.27037e-07 -3.20355e-07 -0.00100016)
(-2.10367e-07 -3.17764e-07 -0.00100025)
(-7.2477e-08 -3.15841e-07 -0.0010003)
(-4.51244e-07 -3.62239e-07 -0.00100002)
(-4.07491e-07 -3.57642e-07 -0.00100015)
(-3.23768e-07 -3.53742e-07 -0.00100027)
(-2.08285e-07 -3.50868e-07 -0.00100036)
(-7.1773e-08 -3.48731e-07 -0.0010004)
(-6.32886e-07 -7.90435e-08 -0.000999597)
(-5.71832e-07 -7.78738e-08 -0.000999793)
(-4.54557e-07 -7.68757e-08 -0.000999961)
(-2.92482e-07 -7.61357e-08 -0.00100008)
(-1.00769e-07 -7.56159e-08 -0.00100015)
(-6.31551e-07 -2.29141e-07 -0.000999648)
(-5.70608e-07 -2.25843e-07 -0.000999843)
(-4.53578e-07 -2.23029e-07 -0.00100001)
(-2.91854e-07 -2.20943e-07 -0.00100013)
(-1.00556e-07 -2.1945e-07 -0.0010002)
(-6.27302e-07 -3.5547e-07 -0.000999742)
(-5.66731e-07 -3.50458e-07 -0.000999936)
(-4.50489e-07 -3.46176e-07 -0.0010001)
(-2.89871e-07 -3.43004e-07 -0.00100022)
(-9.98792e-08 -3.4071e-07 -0.00100029)
(-6.21396e-07 -4.46171e-07 -0.000999871)
(-5.61378e-07 -4.39882e-07 -0.00100006)
(-4.4622e-07 -4.34517e-07 -0.00100023)
(-2.87135e-07 -4.3055e-07 -0.00100034)
(-9.89459e-08 -4.27675e-07 -0.00100041)
(-6.14412e-07 -4.92305e-07 -0.00100002)
(-5.55082e-07 -4.85281e-07 -0.00100021)
(-4.41218e-07 -4.79305e-07 -0.00100037)
(-2.83928e-07 -4.74895e-07 -0.00100049)
(-9.78507e-08 -4.71715e-07 -0.00100055)
(-8.64948e-07 -1.07794e-07 -0.000999451)
(-7.82041e-07 -1.06031e-07 -0.000999719)
(-6.22139e-07 -1.04505e-07 -0.000999949)
(-4.00584e-07 -1.0336e-07 -0.00100012)
(-1.38068e-07 -1.02569e-07 -0.00100021)
(-8.62773e-07 -3.12387e-07 -0.00099952)
(-7.80027e-07 -3.07399e-07 -0.000999788)
(-6.20493e-07 -3.03086e-07 -0.00100002)
(-3.99505e-07 -2.99854e-07 -0.00100018)
(-1.37695e-07 -2.97594e-07 -0.00100027)
(-8.56328e-07 -4.84275e-07 -0.000999649)
(-7.7411e-07 -4.76669e-07 -0.000999914)
(-6.15721e-07 -4.70102e-07 -0.00100014)
(-3.96411e-07 -4.65192e-07 -0.00100031)
(-1.36634e-07 -4.61725e-07 -0.0010004)
(-8.4734e-07 -6.07262e-07 -0.000999825)
(-7.65942e-07 -5.97675e-07 -0.00100009)
(-6.09147e-07 -5.89434e-07 -0.00100031)
(-3.92153e-07 -5.83297e-07 -0.00100047)
(-1.3517e-07 -5.78964e-07 -0.00100056)
(-8.36704e-07 -6.69216e-07 -0.00100003)
(-7.56288e-07 -6.58466e-07 -0.00100029)
(-6.01426e-07 -6.49282e-07 -0.00100051)
(-3.87174e-07 -6.42487e-07 -0.00100067)
(-1.33464e-07 -6.37716e-07 -0.00100075)
(-1.18264e-06 -1.47176e-07 -0.00099925)
(-1.07034e-06 -1.44519e-07 -0.000999619)
(-8.52464e-07 -1.42164e-07 -0.000999935)
(-5.49452e-07 -1.40366e-07 -0.00100017)
(-1.89493e-07 -1.39144e-07 -0.00100029)
(-1.17916e-06 -4.26378e-07 -0.000999346)
(-1.06705e-06 -4.18839e-07 -0.000999712)
(-8.49697e-07 -4.12186e-07 -0.00100003)
(-5.47595e-07 -4.07119e-07 -0.00100026)
(-1.88842e-07 -4.03629e-07 -0.00100038)
(-1.16941e-06 -6.60439e-07 -0.000999523)
(-1.058e-06 -6.48902e-07 -0.000999885)
(-8.42268e-07 -6.38785e-07 -0.0010002)
(-5.42697e-07 -6.31113e-07 -0.00100042)
(-1.87139e-07 -6.258e-07 -0.00100055)
(-1.1558e-06 -8.2708e-07 -0.000999764)
(-1.04551e-06 -8.12499e-07 -0.00100012)
(-8.32087e-07 -7.99832e-07 -0.00100043)
(-5.36023e-07 -7.90297e-07 -0.00100065)
(-1.8483e-07 -7.83731e-07 -0.00100077)
(-1.13963e-06 -9.09913e-07 -0.00100004)
(-1.03076e-06 -8.93467e-07 -0.00100039)
(-8.20178e-07 -8.79377e-07 -0.00100069)
(-5.28291e-07 -8.68909e-07 -0.00100091)
(-1.82175e-07 -8.61736e-07 -0.00100103)
(-1.61766e-06 -2.01254e-07 -0.000998976)
(-1.46618e-06 -1.97221e-07 -0.000999481)
(-1.16973e-06 -1.9355e-07 -0.000999916)
(-7.55156e-07 -1.90679e-07 -0.00100024)
(-2.60683e-07 -1.88735e-07 -0.00100041)
(-1.61214e-06 -5.82895e-07 -0.000999107)
(-1.4608e-06 -5.71465e-07 -0.000999609)
(-1.16505e-06 -5.6112e-07 -0.00100004)
(-7.51918e-07 -5.53044e-07 -0.00100036)
(-2.59521e-07 -5.47533e-07 -0.00100053)
(-1.59748e-06 -9.01932e-07 -0.00099935)
(-1.44691e-06 -8.84445e-07 -0.000999846)
(-1.15337e-06 -8.68792e-07 -0.00100027)
(-7.44033e-07 -8.56677e-07 -0.00100059)
(-2.56739e-07 -8.48413e-07 -0.00100076)
(-1.57703e-06 -1.12751e-06 -0.00099968)
(-1.42782e-06 -1.10544e-06 -0.00100017)
(-1.13753e-06 -1.08601e-06 -0.00100059)
(-7.33492e-07 -1.07116e-06 -0.00100089)
(-2.53061e-07 -1.06111e-06 -0.00100106)
(-1.55265e-06 -1.23752e-06 -0.00100006)
(-1.40541e-06 -1.21251e-06 -0.00100054)
(-1.11924e-06 -1.191e-06 -0.00100095)
(-7.2148e-07 -1.17486e-06 -0.00100125)
(-2.48908e-07 -1.16404e-06 -0.00100141)
(-2.21324e-06 -2.75669e-07 -0.000998597)
(-2.01039e-06 -2.69496e-07 -0.00099929)
(-1.60808e-06 -2.63683e-07 -0.000999891)
(-1.04081e-06 -2.58971e-07 -0.00100034)
(-3.59818e-07 -2.55783e-07 -0.00100058)
(-2.20458e-06 -7.98549e-07 -0.000998778)
(-2.00152e-06 -7.81142e-07 -0.000999466)
(-1.60006e-06 -7.64865e-07 -0.00100006)
(-1.03504e-06 -7.51698e-07 -0.0010005)
(-3.57701e-07 -7.42742e-07 -0.00100075)
(-2.18269e-06 -1.23403e-06 -0.000999115)
(-1.98008e-06 -1.20754e-06 -0.000999794)
(-1.58141e-06 -1.18317e-06 -0.00100038)
(-1.02206e-06 -1.16373e-06 -0.00100081)
(-3.53034e-07 -1.15055e-06 -0.00100105)
(-2.15226e-06 -1.53919e-06 -0.000999569)
(-1.95088e-06 -1.50596e-06 -0.00100023)
(-1.55659e-06 -1.47618e-06 -0.00100081)
(-1.00514e-06 -1.45288e-06 -0.00100123)
(-3.4704e-07 -1.43724e-06 -0.00100146)
(-2.11609e-06 -1.68393e-06 -0.00100009)
(-1.91708e-06 -1.64618e-06 -0.00100074)
(-1.52854e-06 -1.61354e-06 -0.0010013)
(-9.86363e-07 -1.5886e-06 -0.00100171)
(-3.40479e-07 -1.57218e-06 -0.00100193)
(-3.02805e-06 -3.78137e-07 -0.000998072)
(-2.75978e-06 -3.68545e-07 -0.000999025)
(-2.2164e-06 -3.59103e-07 -0.000999856)
(-1.44049e-06 -3.51114e-07 -0.00100048)
(-4.99109e-07 -3.45702e-07 -0.00100083)
(-3.01451e-06 -1.0971e-06 -0.00099832)
(-2.74492e-06 -1.0704e-06 -0.000999265)
(-2.20232e-06 -1.04435e-06 -0.00100009)
(-1.42997e-06 -1.02219e-06 -0.00100071)
(-4.95168e-07 -1.00699e-06 -0.00100105)
(-2.98228e-06 -1.69281e-06 -0.000998792)
(-2.71156e-06 -1.6526e-06 -0.000999722)
(-2.17193e-06 -1.61428e-06 -0.00100053)
(-1.40776e-06 -1.58223e-06 -0.00100113)
(-4.86944e-07 -1.56038e-06 -0.00100146)
(-2.93743e-06 -2.10546e-06 -0.000999417)
(-2.66669e-06 -2.05571e-06 -0.00100033)
(-2.13241e-06 -2.01014e-06 -0.00100111)
(-1.37988e-06 -1.97292e-06 -0.0010017)
(-4.76881e-07 -1.94795e-06 -0.00100201)
(-2.88507e-06 -2.29394e-06 -0.00100014)
(-2.61626e-06 -2.23715e-06 -0.00100103)
(-2.08942e-06 -2.18813e-06 -0.0010018)
(-1.35011e-06 -2.1493e-06 -0.00100236)
(-4.66303e-07 -2.12425e-06 -0.00100266)
(-4.14089e-06 -5.1854e-07 -0.000997338)
(-3.79402e-06 -5.03161e-07 -0.000998652)
(-3.06592e-06 -4.87256e-07 -0.000999804)
(-2.00635e-06 -4.73217e-07 -0.0010007)
(-6.97465e-07 -4.6365e-07 -0.0010012)
(-4.11957e-06 -1.51345e-06 -0.000997673)
(-3.76828e-06 -1.47181e-06 -0.000998972)
(-3.0404e-06 -1.42927e-06 -0.00100011)
(-1.98663e-06 -1.39036e-06 -0.00100098)
(-6.89926e-07 -1.36297e-06 -0.00100147)
(-4.07343e-06 -2.33097e-06 -0.000998349)
(-3.7159e-06 -2.2692e-06 -0.000999624)
(-2.98944e-06 -2.20802e-06 -0.00100073)
(-1.94645e-06 -2.15296e-06 -0.00100158)
(-6.74389e-07 -2.11486e-06 -0.00100204)
(-4.00785e-06 -2.88908e-06 -0.000999209)
(-3.64575e-06 -2.81465e-06 -0.00100045)
(-2.9248e-06 -2.74512e-06 -0.00100152)
(-1.89887e-06 -2.68398e-06 -0.00100233)
(-6.56938e-07 -2.64262e-06 -0.00100277)
(-3.93551e-06 -3.13226e-06 -0.00100023)
(-3.57197e-06 -3.04631e-06 -0.00100144)
(-2.85918e-06 -2.97436e-06 -0.00100249)
(-1.85035e-06 -2.91281e-06 -0.00100327)
(-6.3919e-07 -2.87458e-06 -0.00100368)
(-5.65573e-06 -7.06407e-07 -0.000996297)
(-5.22641e-06 -6.80106e-07 -0.00099813)
(-4.26288e-06 -6.5173e-07 -0.000999726)
(-2.82216e-06 -6.26173e-07 -0.00100103)
(-9.85261e-07 -6.08951e-07 -0.00100177)
(-5.62071e-06 -2.10167e-06 -0.000996723)
(-5.17897e-06 -2.03424e-06 -0.000998523)
(-4.21467e-06 -1.96358e-06 -0.00100008)
(-2.78458e-06 -1.8916e-06 -0.00100136)
(-9.70847e-07 -1.83862e-06 -0.00100207)
(-5.55924e-06 -3.22828e-06 -0.000997747)
(-5.09632e-06 -3.12975e-06 -0.000999506)
(-4.1268e-06 -3.03033e-06 -0.00100103)
(-2.70614e-06 -2.93039e-06 -0.00100224)
(-9.38545e-07 -2.85973e-06 -0.00100289)
(-5.4623e-06 -3.98339e-06 -0.000998904)
(-4.98157e-06 -3.8703e-06 -0.00100059)
(-4.01618e-06 -3.76551e-06 -0.00100205)
(-2.62184e-06 -3.66073e-06 -0.00100319)
(-9.07755e-07 -3.58863e-06 -0.0010038)
(-5.3734e-06 -4.29876e-06 -0.00100039)
(-4.87848e-06 -4.16387e-06 -0.00100204)
(-3.91778e-06 -4.06516e-06 -0.00100348)
(-2.53844e-06 -3.96359e-06 -0.00100456)
(-8.75401e-07 -3.90649e-06 -0.00100512)
(-7.70619e-06 -9.35215e-07 -0.000994786)
(-7.22303e-06 -8.85034e-07 -0.000997426)
(-5.96925e-06 -8.29118e-07 -0.0009996)