/*--------------------------------*- C++ -*----------------------------------*\
| =========                 |                                                 |
| \\      /  F ield         | OpenFOAM: The Open Source CFD Toolbox           |
|  \\    /   O peration     | Version:  5.x                                   |
|   \\  /    A nd           | Web:      www.OpenFOAM.org                      |
|    \\/     M anipulation  |                                                 |
\*---------------------------------------------------------------------------*/
FoamFile
{
    version     2.0;
    format      ascii;
    class       volScalarField;
    location    "7000";
    object      p;
}
// * * * * * * * * * * * * * * * * * * * * * * * * * * * * * * * * * * * * * //

dimensions      [0 2 -2 0 0 0 0];

internalField   nonuniform List<scalar> 
180
(
-662.182
-1222.13
-1406.02
-1697.78
-2129.86
-2372.5
-2409.48
-2329.83
-2269.58
-2389.43
-2538.39
-2563.13
-2514.29
-2483.58
-2541.28
-2676.75
-2745.67
-2734.1
-2705.41
-2742.88
-2998.14
-3243.7
-3334.47
-3296.7
-3254.54
-3246.08
-3246.45
-3235.66
-3224.79
-3218.28
-3292.92
-3397.22
-3419.65
-3375.67
-3517.85
-3707.01
-3940.67
-4163.17
-4333.05
-4475.55
-4502.39
-4441.76
-4389.25
-4367.55
-4562.4
-4765.96
-4801.74
-4912.07
-5099.21
-5136.48
-5052.81
-5053.99
-5041.93
-5128.22
-5291.68
-5331.04
-5459.81
-5696.24
-5798.15
-5743.58
-5730.36
-5819.44
-5923.03
-6068.4
-6463.65
-6746.56
-6808.17
-6771.17
-7043.52
-7335.59
-7425.67
-7368.99
-7352.98
-7378.2
-7382.66
-7380.08
-7544.77
-7757.84
-7787.47
-8020.99
-8313.93
-8538.99
-9196.38
-9980.95
-10731
-11448.8
-12156.1
-12853.6
-13545.2
-14230.9
-14914.4
-15594.8
-16279.7
-16963
-17659
-18326.4
-19013.7
-19405.9
-19502.6
-19439.3
-19408.1
-19431.1
-19595.9
-20125.7
-20801.5
-21396.5
-21867.8
-22263.1
-22587.1
-22855.6
-23063.3
-23228.3
-23345.8
-23472.7
-23608.5
-23744.5
-23925.1
-24160.2
-24446.1
-24760
-25088.3
-25426.8
-25762.3
-26081.6
-26387.6
-26704.9
-27034.1
-27377.1
-27758.3
-28147.4
-28567.1
-28992.9
-29429.6
-29895.3
-30394.5
-30932.2
-31477.9
-32033.8
-32585.2
-33139.1
-33679.7
-34219.9
-34766.8
-35315.4
-35864.1
-36405.9
-36940.5
-37461
-37961.9
-38437.8
-38886.2
-39308.6
-39699.3
-40054.6
-40372.7
-40655.9
-40908.2
-41145.2
-41369.1
-41589.7
-41816.4
-42053.3
-42311.1
-42571.8
-42789.8
-42907.5
-43027.9
-43242.9
-43445.7
-43616.2
-43753.9
-43876.7
-44008.7
-44210.4
-44479.2
-44808.9
-45054.4
-45175
-45235.7
-45281.8
)
;

boundaryField
{
    inlet
    {
        type            zeroGradient;
    }
    outlet
    {
        type            fixedValue;
        value           uniform 0;
    }
    repeat_boundary
    {
        type            zeroGradient;
    }
    procBoundary3to1
    {
        type            processor;
        value           nonuniform List<scalar> 
180
(
-640.653
-1174.59
-1324.48
-1634.07
-2047.52
-2487.34
-2694.71
-2709.68
-2617.47
-2542.04
-2685.94
-2852.84
-2880.82
-2823.31
-2772.98
-2755.88
-2745.62
-2721.21
-2699.27
-2882.53
-3088.08
-3135.93
-3051.44
-3007.17
-2994.08
-3194.34
-3417.94
-3464.55
-3383.61
-3362.01
-3350.71
-3524.88
-3739.47
-3797.61
-3856.52
-4007.75
-4061.32
-4033.56
-4026.14
-4255.99
-4489.6
-4549
-4482.4
-4447.63
-4550.96
-4685.52
-4717.45
-4691.51
-4674.22
-4667.32
-4919.88
-5190.64
-5259.37
-5167.22
-5158.16
-5167.64
-5156.37
-5422.04
-5702.44
-5778.45
-5696.92
-5945.71
-6239.1
-6321.72
-6269.25
-6249.29
-6271.97
-6276.63
-6574
-6946.27
-7080.99
-6996.76
-7184.2
-7453.27
-7512.18
-7403.64
-7535.01
-8291.21
-8700.81
-8729.57
-8829.12
-9309.91
-9812.62
-10488.9
-11212.7
-11913
-12594.4
-13269.4
-13936.1
-14596
-15248.5
-15894.4
-16532.7
-17163.6
-17786
-18397.9
-19001.7
-19585.8
-20177.5
-20726.4
-21318.4
-21735.9
-22076.6
-22242.5
-22279.5
-22449.8
-22753.4
-23006
-23213.1
-23303.4
-23317.7
-23319.2
-23324.5
-23348.6
-23418.9
-23495.8
-23499
-23520.1
-23648
-23927.1
-24295
-24741.9
-25278.2
-25775.5
-26021.1
-26358.9
-26673.2
-26773.3
-27093.3
-27593.7
-28125.6
-28513.2
-28681
-29155.6
-29630.8
-29555
-29674.5
-30341.4
-31673.2
-32912.9
-34175.3
-35349.2
-36399.5
-37320.2
-38117.5
-38796
-39362.4
-39832.2
-40213.9
-40517.1
-40757.5
-40951.8
-41123.9
-41290.7
-41470.7
-41665.3
-41851.6
-41853.3
-41757.9
-41756
-41857.9
-41952.1
-42002.8
-42163.3
-42373.9
-42432.8
-42500.3
-42632.4
-42722.1
-42818.8
-42979.3
-43036.7
-42987.8
-42850.5
-42695.2
-42551.7
-42399.6
-42297.9
-42310.8
-42317.6
)
;
    }
    procBoundary3to2
    {
        type            processor;
        value           nonuniform List<scalar> 
180
(
-825.479
-1526.92
-1835.65
-1987.03
-2003.97
-1962.34
-1925.42
-1902.28
-2119.36
-2337.8
-2382.92
-2299.94
-2237.45
-2214.74
-2421.05
-2662.13
-2725.2
-2642.33
-2723.98
-2876.53
-2904.06
-2843.29
-2978.87
-3156.75
-3191.53
-3121.18
-3068.26
-3049.68
-3034.91
-3005.98
-2973.75
-3126.54
-3305.99
-3341.59
-3242.11
-3335.23
-3734.64
-4162.3
-4397.54
-4442.96
-4531.27
-4666.3
-4698.08
-4787.03
-4915.27
-4946.72
-4905.25
-4875.22
-4868.25
-4862.73
-4845.96
-4831.27
-4818.83
-4804.89
-4791.17
-4965.24
-5165.1
-5217.48
-5173.33
-5220.02
-5233.27
-5177.54
-5267.13
-5384.84
-5394.43
-5321.77
-5402.1
-5804.36
-6223.4
-6613.42
-6981.44
-7334.34
-7674.69
-8004.39
-8329.29
-8652.25
-8976.31
-9305.82
-9646.63
-10003.2
-10373.1
-10773.4
-11194.9
-11634.7
-12088.4
-12554.5
-13030.8
-13516
-14008.8
-14507.4
-15011.4
-15518.3
-16024.7
-16523.3
-16974.4
-17345.3
-17637.3
-17878.6
-18122.2
-18409.1
-18749.6
-19116.3
-19468.2
-19803.2
-20136.7
-20471
-20795.5
-21114.4
-21424.7
-21728.7
-22028.6
-22319
-22606.9
-22890.8
-23178.2
-23469
-23770.7
-24081.7
-24402.8
-24734.5
-25071.1
-25416.9
-25761.8
-26115.4
-26467.2
-26830.9
-27199.2
-27586.3
-27984.7
-28403
-28836
-29282.6
-29743.2
-30212.6
-30694.7
-31183.4
-31679
-32177.7
-32677.1
-33176
-33673.5
-34166.4
-34654.1
-35133.2
-35601.1
-36057.4
-36498.2
-36925.1
-37333.5
-37724
-38109
-38496.3
-38884
-39268.1
-39650.1
-40029.5
-40411
-40794.9
-41189.9
-41597.1
-42029
-42483.9
-42970.3
-43477.2
-44013.1
-44556.1
-45126.3
-45688.3
-46279.9
-46882.6
-47588
-48323.7
-49172.3
-49960.3
-50861.1
-51342.6
-51169.3
-50656.2
-50983.6
-51312.3
)
;
    }
}


// ************************************************************************* //
