/*--------------------------------*- C++ -*----------------------------------*\
| =========                 |                                                 |
| \\      /  F ield         | OpenFOAM: The Open Source CFD Toolbox           |
|  \\    /   O peration     | Version:  5.x                                   |
|   \\  /    A nd           | Web:      www.OpenFOAM.org                      |
|    \\/     M anipulation  |                                                 |
\*---------------------------------------------------------------------------*/
FoamFile
{
    version     2.0;
    format      ascii;
    class       volVectorField;
    location    "7000";
    object      stored_U;
}
// * * * * * * * * * * * * * * * * * * * * * * * * * * * * * * * * * * * * * //

dimensions      [0 1 -1 0 0 0 0];

internalField   nonuniform List<vector> 
180
(
(0.139988 0.126956 54.7376)
(0.428232 0.159828 59.8998)
(0.612055 0.19565 59.2124)
(0.469295 0.230446 58.2772)
(0.17034 0.272694 57.9206)
(-0.118614 0.306019 57.9653)
(-0.102062 0.347275 59.9135)
(0.0451009 0.163767 54.5385)
(0.368034 0.963754 59.5276)
(0.491923 1.19663 59.2782)
(0.561541 1.26099 58.6762)
(0.539465 1.09325 59.0386)
(0.45134 0.810786 58.6094)
(0.556864 0.767371 59.3704)
(0.68468 0.609744 59.2141)
(0.635359 0.387503 59.312)
(0.290773 0.302197 60.3085)
(0.122452 0.188358 57.5172)
(-0.0425356 0.259215 59.7095)
(0.04424 0.25605 59.652)
(0.199229 0.124572 59.2974)
(0.187796 0.0107439 59.2271)
(0.105627 0.0709973 59.1011)
(0.0779888 0.115812 59.2476)
(-0.0155623 0.101901 59.126)
(-0.366767 0.0038724 61.0107)
(-0.459277 -0.406087 55.4463)
(-0.972479 -0.895233 61.0462)
(-0.828144 -0.978494 56.6412)
(-0.712466 -0.611009 59.0355)
(-0.640484 -0.424713 58.7502)
(-0.780589 -0.637686 57.6654)
(-1.12365 -0.800636 58.1962)
(-1.53518 -1.39775 57.0628)
(-1.64483 -1.54155 57.2811)
(-1.78466 -1.74249 57.9934)
(-1.26856 -1.23981 55.0786)
(-0.412986 -0.508006 54.3049)
(0.371368 -0.364236 57.1455)
(0.16463 -0.674507 58.0578)
(-0.354751 -0.774751 52.845)
(-0.585594 -0.826364 56.3885)
(-0.556906 -0.579648 55.969)
(-0.981138 -0.791071 56.2478)
(-0.839902 -0.86795 54.6617)
(-0.443941 -0.611993 51.4602)
(-0.0953973 -0.243067 57.6985)
(-0.0597679 -0.0508171 55.1149)
(-0.0887264 -0.201391 51.3316)
(0.172706 0.396758 57.3635)
(0.212099 0.48362 54.1678)
(0.756674 1.14913 55.713)
(0.532345 0.691669 54.6401)
(0.365361 0.440847 55.2893)
(0.383605 0.738325 57.1721)
(-0.139322 0.321972 51.9972)
(0.245811 0.705345 56.4187)
(0.378853 0.57153 56.4323)
(0.459183 0.348846 57.3045)
(0.228387 0.437723 52.2546)
(1.04321 -0.0276005 56.935)
(1.19187 -0.215468 56.605)
(1.13318 -0.676307 56.7385)
(0.998985 -0.717838 56.204)
(1.07084 0.00560034 55.6975)
(1.304 0.789578 53.6557)
(2.65222 1.59968 59.7786)
(2.10095 1.49901 54.9381)
(2.58855 1.55609 58.0102)
(2.76936 1.97945 60.3563)
(1.66835 1.59632 54.5845)
(1.76179 2.02494 60.0188)
(1.25222 2.30548 59.427)
(1.15604 2.70417 61.0244)
(0.40793 2.24707 55.5276)
(-0.770332 2.5703 60.6533)
(-1.40398 2.40521 60.4902)
(-2.19296 1.92426 61.3349)
(-2.28529 1.07458 56.6859)
(-2.74253 0.376856 58.9029)
(-2.73811 0.243857 59.1359)
(-2.62132 0.391957 57.4387)
(-2.44679 0.63155 57.3846)
(-2.2219 0.993201 57.2387)
(-2.11982 1.3327 57.0339)
(-2.07398 1.68849 56.7935)
(-2.02309 1.94266 56.6326)
(-2.02025 2.25437 56.5179)
(-2.00434 2.47179 56.4245)
(-2.07255 2.81941 56.3776)
(-2.13997 3.09742 56.3393)
(-2.29186 3.52195 56.3708)
(-2.47562 3.9205 56.3833)
(-2.694 4.41516 56.5106)
(-3.00863 4.96026 56.5605)
(-3.31732 5.57763 56.8559)
(-3.72865 6.27662 56.8234)
(-4.08074 7.01577 57.6051)
(-4.70836 8.02042 56.5194)
(-5.03855 8.90837 59.3004)
(-5.77713 10.2103 57.9076)
(-6.2071 10.8575 60.9464)
(-7.43988 12.8012 59.945)
(-12.4079 16.6967 61.3784)
(-13.5627 22.3376 63.1194)
(-13.9762 25.7598 66.6767)
(-13.3097 28.8599 68.0246)
(-12.7961 31.2506 68.9789)
(-11.353 33.3076 69.1966)
(-10.999 35.6054 69.2805)
(-10.2265 37.8953 69.6211)
(-9.70691 40.4405 69.6004)
(-9.07886 42.4836 70.2308)
(-8.22388 44.7227 69.8721)
(-7.80545 46.6749 70.5133)
(-7.03573 48.8742 69.822)
(-6.53069 50.9375 70.3119)
(-5.9352 53.2298 69.8677)
(-5.3614 55.4008 70.6588)
(-4.50095 57.1846 70.415)
(-3.60511 59.4784 71.5278)
(-2.38894 60.9448 71.5487)
(-1.08077 62.8601 72.9246)
(0.317812 63.9104 73.2618)
(1.9389 65.0996 74.6461)
(3.45359 65.6779 75.0262)
(5.17249 66.3468 76.3379)
(6.82261 66.4008 76.6931)
(8.63432 66.9787 77.9721)
(10.655 67.1121 78.421)
(12.7284 67.5525 79.3532)
(15.1621 67.477 80.0877)
(17.1599 67.2334 80.6846)
(19.6351 66.2453 81.7421)
(21.1692 65.018 81.9374)
(23.1577 62.9109 82.9701)
(23.9224 60.3532 82.9854)
(25.0346 56.9963 83.6146)
(25.0148 53.319 83.6208)
(25.1655 48.6802 83.7627)
(24.6921 43.3848 83.4757)
(24.2144 37.4079 83.074)
(23.4994 31.1624 82.417)
(22.7864 24.6788 81.5428)
(22.1373 18.1227 80.3132)
(21.5709 11.6495 78.9914)
(21.2369 5.10881 77.128)
(21.0423 -1.28342 75.3739)
(21.1474 -7.67856 72.9172)
(21.4668 -13.7669 70.6352)
(22.0786 -19.3565 67.5895)
(23.0237 -23.9626 64.7573)
(24.4006 -27.0678 61.4188)
(26.387 -28.2244 58.3085)
(29.0122 -26.6968 54.9706)
(32.3235 -22.4352 52.1814)
(35.7234 -15.7469 49.4246)
(38.9109 -6.61798 47.2822)
(41.4005 3.88056 45.7412)
(42.4902 14.8716 44.8026)
(41.8797 24.311 44.2481)
(39.6465 31.4672 43.9721)
(36.2623 36.4484 44.4545)
(32.9094 39.4873 43.4406)
(29.1449 40.4741 47.7501)
(27.0124 40.1771 46.4781)
(25.7249 35.8545 47.5148)
(26.3324 28.2057 49.5853)
(28.7127 18.2773 50.4227)
(31.03 6.98237 52.5486)
(33.9343 -4.33569 53.1063)
(34.8817 -15.7959 55.2111)
(35.3513 -24.4628 55.0131)
(33.2668 -32.9596 56.306)
(30.6189 -36.0713 56.3761)
(24.6455 -39.113 57.7039)
(21.8693 -37.2491 55.3948)
(9.92082 -36.2468 56.7384)
(9.37897 -28.8707 52.3508)
(-7.87764 -22.5931 54.2766)
)
;

boundaryField
{
    inlet
    {
        type            calculated;
        value           uniform (-7.87764 -22.5931 54.2766);
    }
    outlet
    {
        type            calculated;
        value           uniform (0.139988 0.126956 54.7376);
    }
    repeat_boundary
    {
        type            calculated;
        value           nonuniform List<vector> 
360
(
(0 0.126956 54.7376)
(0 0.159828 59.8998)
(0 0.19565 59.2124)
(0 0.230446 58.2772)
(0 0.272694 57.9206)
(0 0.306019 57.9653)
(0 0.347275 59.9135)
(0 0.163767 54.5385)
(0 0.963754 59.5276)
(0 1.19663 59.2782)
(0 1.26099 58.6762)
(0 1.09325 59.0386)
(0 0.810786 58.6094)
(0 0.767371 59.3704)
(0 0.609744 59.2141)
(0 0.387503 59.312)
(0 0.302197 60.3085)
(0 0.188358 57.5172)
(0 0.259215 59.7095)
(0 0.25605 59.652)
(0 0.124572 59.2974)
(0 0.0107439 59.2271)
(0 0.0709973 59.1011)
(0 0.115812 59.2476)
(0 0.101901 59.126)
(0 0.0038724 61.0107)
(0 -0.406087 55.4463)
(0 -0.895233 61.0462)
(0 -0.978494 56.6412)
(0 -0.611009 59.0355)
(0 -0.424713 58.7502)
(0 -0.637686 57.6654)
(0 -0.800636 58.1962)
(0 -1.39775 57.0628)
(0 -1.54155 57.2811)
(0 -1.74249 57.9934)
(0 -1.23981 55.0786)
(0 -0.508006 54.3049)
(0 -0.364236 57.1455)
(0 -0.674507 58.0578)
(0 -0.774751 52.845)
(0 -0.826364 56.3885)
(0 -0.579648 55.969)
(0 -0.791071 56.2478)
(0 -0.86795 54.6617)
(0 -0.611993 51.4602)
(0 -0.243067 57.6985)
(0 -0.0508171 55.1149)
(0 -0.201391 51.3316)
(0 0.396758 57.3635)
(0 0.48362 54.1678)
(0 1.14913 55.713)
(0 0.691669 54.6401)
(0 0.440847 55.2893)
(0 0.738325 57.1721)
(0 0.321972 51.9972)
(0 0.705345 56.4187)
(0 0.57153 56.4323)
(0 0.348846 57.3045)
(0 0.437723 52.2546)
(0 -0.0276005 56.935)
(0 -0.215468 56.605)
(0 -0.676307 56.7385)
(0 -0.717838 56.204)
(0 0.00560034 55.6975)
(0 0.789578 53.6557)
(0 1.59968 59.7786)
(0 1.49901 54.9381)
(0 1.55609 58.0102)
(0 1.97945 60.3563)
(0 1.59632 54.5845)
(0 2.02494 60.0188)
(0 2.30548 59.427)
(0 2.70417 61.0244)
(0 2.24707 55.5276)
(0 2.5703 60.6533)
(0 2.40521 60.4902)
(0 1.92426 61.3349)
(0 1.07458 56.6859)
(0 0.376856 58.9029)
(0 0.243857 59.1359)
(0 0.391957 57.4387)
(0 0.63155 57.3846)
(0 0.993201 57.2387)
(0 1.3327 57.0339)
(0 1.68849 56.7935)
(0 1.94266 56.6326)
(0 2.25437 56.5179)
(0 2.47179 56.4245)
(0 2.81941 56.3776)
(0 3.09742 56.3393)
(0 3.52195 56.3708)
(0 3.9205 56.3833)
(0 4.41516 56.5106)
(0 4.96026 56.5605)
(0 5.57763 56.8559)
(0 6.27662 56.8234)
(0 7.01577 57.6051)
(0 8.02042 56.5194)
(0 8.90837 59.3004)
(0 10.2103 57.9076)
(0 10.8575 60.9464)
(0 12.8012 59.945)
(0 16.6967 61.3784)
(0 22.3376 63.1194)
(0 25.7598 66.6767)
(0 28.8599 68.0246)
(0 31.2506 68.9789)
(0 33.3076 69.1966)
(0 35.6054 69.2805)
(0 37.8953 69.6211)
(0 40.4405 69.6004)
(0 42.4836 70.2308)
(0 44.7227 69.8721)
(0 46.6749 70.5133)
(0 48.8742 69.822)
(0 50.9375 70.3119)
(0 53.2298 69.8677)
(0 55.4008 70.6588)
(0 57.1846 70.415)
(0 59.4784 71.5278)
(0 60.9448 71.5487)
(0 62.8601 72.9246)
(0 63.9104 73.2618)
(0 65.0996 74.6461)
(0 65.6779 75.0262)
(0 66.3468 76.3379)
(0 66.4008 76.6931)
(0 66.9787 77.9721)
(0 67.1121 78.421)
(0 67.5525 79.3532)
(0 67.477 80.0877)
(0 67.2334 80.6846)
(0 66.2453 81.7421)
(0 65.018 81.9374)
(0 62.9109 82.9701)
(0 60.3532 82.9854)
(0 56.9963 83.6146)
(0 53.319 83.6208)
(0 48.6802 83.7627)
(0 43.3848 83.4757)
(0 37.4079 83.074)
(0 31.1624 82.417)
(0 24.6788 81.5428)
(0 18.1227 80.3132)
(0 11.6495 78.9914)
(0 5.10881 77.128)
(0 -1.28342 75.3739)
(0 -7.67856 72.9172)
(0 -13.7669 70.6352)
(0 -19.3565 67.5895)
(0 -23.9626 64.7573)
(0 -27.0678 61.4188)
(0 -28.2244 58.3085)
(0 -26.6968 54.9706)
(0 -22.4352 52.1814)
(0 -15.7469 49.4246)
(0 -6.61798 47.2822)
(0 3.88056 45.7412)
(0 14.8716 44.8026)
(0 24.311 44.2481)
(0 31.4672 43.9721)
(0 36.4484 44.4545)
(0 39.4873 43.4406)
(0 40.4741 47.7501)
(0 40.1771 46.4781)
(0 35.8545 47.5148)
(0 28.2057 49.5853)
(0 18.2773 50.4227)
(0 6.98237 52.5486)
(0 -4.33569 53.1063)
(0 -15.7959 55.2111)
(0 -24.4628 55.0131)
(0 -32.9596 56.306)
(0 -36.0713 56.3761)
(0 -39.113 57.7039)
(0 -37.2491 55.3948)
(0 -36.2468 56.7384)
(0 -28.8707 52.3508)
(0 -22.5931 54.2766)
(0.139988 0 54.7376)
(0.428232 0 59.8998)
(0.612055 0 59.2124)
(0.469295 0 58.2772)
(0.17034 0 57.9206)
(-0.118614 0 57.9653)
(-0.102062 0 59.9135)
(0.0451009 0 54.5385)
(0.368034 0 59.5276)
(0.491923 0 59.2782)
(0.561541 0 58.6762)
(0.539465 0 59.0386)
(0.45134 0 58.6094)
(0.556864 0 59.3704)
(0.68468 0 59.2141)
(0.635359 0 59.312)
(0.290773 0 60.3085)
(0.122452 0 57.5172)
(-0.0425356 0 59.7095)
(0.04424 0 59.652)
(0.199229 0 59.2974)
(0.187796 0 59.2271)
(0.105627 0 59.1011)
(0.0779888 0 59.2476)
(-0.0155623 0 59.126)
(-0.366767 0 61.0107)
(-0.459277 0 55.4463)
(-0.972479 0 61.0462)
(-0.828144 0 56.6412)
(-0.712466 0 59.0355)
(-0.640484 0 58.7502)
(-0.780589 0 57.6654)
(-1.12365 0 58.1962)
(-1.53518 0 57.0628)
(-1.64483 0 57.2811)
(-1.78466 0 57.9934)
(-1.26856 0 55.0786)
(-0.412986 0 54.3049)
(0.371368 0 57.1455)
(0.16463 0 58.0578)
(-0.354751 0 52.845)
(-0.585594 0 56.3885)
(-0.556906 0 55.969)
(-0.981138 0 56.2478)
(-0.839902 0 54.6617)
(-0.443941 0 51.4602)
(-0.0953973 0 57.6985)
(-0.0597679 0 55.1149)
(-0.0887264 0 51.3316)
(0.172706 0 57.3635)
(0.212099 0 54.1678)
(0.756674 0 55.713)
(0.532345 0 54.6401)
(0.365361 0 55.2893)
(0.383605 0 57.1721)
(-0.139322 0 51.9972)
(0.245811 0 56.4187)
(0.378853 0 56.4323)
(0.459183 0 57.3045)
(0.228387 0 52.2546)
(1.04321 0 56.935)
(1.19187 0 56.605)
(1.13318 0 56.7385)
(0.998985 0 56.204)
(1.07084 0 55.6975)
(1.304 0 53.6557)
(2.65222 0 59.7786)
(2.10095 0 54.9381)
(2.58855 0 58.0102)
(2.76936 0 60.3563)
(1.66835 0 54.5845)
(1.76179 0 60.0188)
(1.25222 0 59.427)
(1.15604 0 61.0244)
(0.40793 0 55.5276)
(-0.770332 0 60.6533)
(-1.40398 0 60.4902)
(-2.19296 0 61.3349)
(-2.28529 0 56.6859)
(-2.74253 0 58.9029)
(-2.73811 0 59.1359)
(-2.62132 0 57.4387)
(-2.44679 0 57.3846)
(-2.2219 0 57.2387)
(-2.11982 0 57.0339)
(-2.07398 0 56.7935)
(-2.02309 0 56.6326)
(-2.02025 0 56.5179)
(-2.00434 0 56.4245)
(-2.07255 0 56.3776)
(-2.13997 0 56.3393)
(-2.29186 0 56.3708)
(-2.47562 0 56.3833)
(-2.694 0 56.5106)
(-3.00863 0 56.5605)
(-3.31732 0 56.8559)
(-3.72865 0 56.8234)
(-4.08074 0 57.6051)
(-4.70836 0 56.5194)
(-5.03855 0 59.3004)
(-5.77713 0 57.9076)
(-6.2071 0 60.9464)
(-7.43988 0 59.945)
(-12.4079 0 61.3784)
(-13.5627 0 63.1194)
(-13.9762 0 66.6767)
(-13.3097 0 68.0246)
(-12.7961 0 68.9789)
(-11.353 0 69.1966)
(-10.999 0 69.2805)
(-10.2265 0 69.6211)
(-9.70691 0 69.6004)
(-9.07886 0 70.2308)
(-8.22388 0 69.8721)
(-7.80545 0 70.5133)
(-7.03573 0 69.822)
(-6.53069 0 70.3119)
(-5.9352 0 69.8677)
(-5.3614 0 70.6588)
(-4.50095 0 70.415)
(-3.60511 0 71.5278)
(-2.38894 0 71.5487)
(-1.08077 0 72.9246)
(0.317812 0 73.2618)
(1.9389 0 74.6461)
(3.45359 0 75.0262)
(5.17249 0 76.3379)
(6.82261 0 76.6931)
(8.63432 0 77.9721)
(10.655 0 78.421)
(12.7284 0 79.3532)
(15.1621 0 80.0877)
(17.1599 0 80.6846)
(19.6351 0 81.7421)
(21.1692 0 81.9374)
(23.1577 0 82.9701)
(23.9224 0 82.9854)
(25.0346 0 83.6146)
(25.0148 0 83.6208)
(25.1655 0 83.7627)
(24.6921 0 83.4757)
(24.2144 0 83.074)
(23.4994 0 82.417)
(22.7864 0 81.5428)
(22.1373 0 80.3132)
(21.5709 0 78.9914)
(21.2369 0 77.128)
(21.0423 0 75.3739)
(21.1474 0 72.9172)
(21.4668 0 70.6352)
(22.0786 0 67.5895)
(23.0237 0 64.7573)
(24.4006 0 61.4188)
(26.387 0 58.3085)
(29.0122 0 54.9706)
(32.3235 0 52.1814)
(35.7234 0 49.4246)
(38.9109 0 47.2822)
(41.4005 0 45.7412)
(42.4902 0 44.8026)
(41.8797 0 44.2481)
(39.6465 0 43.9721)
(36.2623 0 44.4545)
(32.9094 0 43.4406)
(29.1449 0 47.7501)
(27.0124 0 46.4781)
(25.7249 0 47.5148)
(26.3324 0 49.5853)
(28.7127 0 50.4227)
(31.03 0 52.5486)
(33.9343 0 53.1063)
(34.8817 0 55.2111)
(35.3513 0 55.0131)
(33.2668 0 56.306)
(30.6189 0 56.3761)
(24.6455 0 57.7039)
(21.8693 0 55.3948)
(9.92082 0 56.7384)
(9.37897 0 52.3508)
(-7.87764 0 54.2766)
)
;
    }
    procBoundary3to1
    {
        type            processor;
        value           nonuniform List<vector> 
180
(
(-0.0677976 0.128179 53.9194)
(0.192847 0.161507 58.9315)
(0.345316 0.198313 58.2095)
(0.161074 0.233193 57.1795)
(-0.192582 0.274144 56.7223)
(-0.55935 0.306575 56.6819)
(-0.674873 0.348439 56.7182)
(-0.616475 0.578604 56.5175)
(-0.632014 0.946329 57.947)
(-0.285639 0.676888 52.8557)
(-0.688779 0.887761 56.971)
(-0.993141 0.772506 58.0454)
(-0.604501 0.52264 52.2922)
(-0.669478 0.569309 58.2244)
(-0.15671 0.239061 52.3686)
(-0.0486769 -0.0990911 56.1173)
(-0.236022 -0.0843272 55.8636)
(-0.251904 -0.106461 56.0275)
(0.0036231 0.0427932 52.9262)
(0.0467829 0.0157854 55.5346)
(-0.0203899 -0.0451838 55.6987)
(-0.209283 -0.166593 55.0262)
(-0.352488 -0.227565 55.0794)
(-0.301406 -0.0827622 54.7262)
(-0.415067 -0.093967 56.0655)
(-0.402334 -0.103473 54.4116)
(-0.141357 -0.510454 51.8194)
(0.784793 -1.25842 57.1161)
(0.997623 -1.16402 55.273)
(0.325921 -0.397187 56.7598)
(-0.0578424 -0.292226 52.4451)
(0.525074 -1.00057 56.2808)
(0.76301 -1.38419 56.4173)
(0.928522 -1.33905 55.6742)
(0.562523 -0.906795 56.3577)
(-0.0266726 -1.53197 56.8034)
(-0.11818 -1.19946 54.8071)
(-0.310346 -1.27664 58.0577)
(-0.0407842 -0.71879 54.6704)
(-0.134142 -1.07693 57.088)
(-0.182641 -1.2158 57.445)
(-0.0689282 -1.05732 55.7187)
(-0.123183 -1.19074 57.0695)
(0.0588099 -0.976834 56.8072)
(-0.0190754 -1.08845 57.0891)
(-0.265708 -0.834318 58.4752)
(-0.14794 -0.631832 53.759)
(-0.14206 -0.323851 58.5317)
(-0.186113 -0.240476 56.7949)
(-0.358896 0.449753 58.0692)
(-0.24799 0.510005 56.1121)
(0.0236771 0.0228701 53.4105)
(0.618585 -0.401974 58.1264)
(0.594446 -0.357079 57.502)
(0.133991 0.572229 57.9882)
(-0.065821 0.58308 53.166)
(-0.0390287 0.597671 58.4064)
(0.106326 0.337703 56.6658)
(0.105149 0.334882 52.7271)
(1.5387 0.0449823 59.7975)
(1.23115 0.260707 54.2085)
(2.27691 -0.363546 57.5028)
(2.58814 -0.5255 58.6307)
(2.46582 -0.339734 55.9062)
(3.29948 -0.683724 60.4293)
(2.1389 0.255735 54.956)
(3.35515 0.544352 60.7859)
(2.67087 0.911023 57.9859)
(3.05828 0.984106 59.0609)
(2.95315 0.890494 59.2172)
(1.93332 1.91129 60.2261)
(0.911795 1.12391 55.0279)
(-0.10594 1.82651 59.3469)
(-0.792339 2.03292 60.4474)
(-0.863249 1.51139 55.0419)
(-1.4261 1.44351 58.1038)
(-1.463 0.874744 56.0672)
(-1.46393 0.346934 55.9797)
(-1.48327 -0.0637514 55.5961)
(-1.46379 -0.231405 56.0198)
(-1.60129 -0.0864352 55.4561)
(-1.6001 -0.0502582 55.2979)
(-1.77573 0.224495 55.1735)
(-1.85191 0.419218 54.9492)
(-2.0419 0.736158 54.7033)
(-2.23018 0.987358 54.3651)
(-2.46656 1.30513 54.049)
(-2.75779 1.6186 53.5985)
(-3.0438 1.93592 53.1917)
(-3.44499 2.33658 52.6145)
(-3.84079 2.70457 52.0946)
(-4.34523 3.18457 51.3584)
(-4.90432 3.65903 50.6922)
(-5.51079 4.24851 49.7395)
(-6.28303 4.89198 48.896)
(-7.02052 5.65671 47.6404)
(-8.17193 6.57969 46.5411)
(-9.20867 7.74274 44.9251)
(-11.067 9.0948 43.2901)
(-12.5042 10.8362 41.3067)
(-16.1796 13.1903 37.851)
(-18.0041 15.481 37.4935)
(-27.1399 20.6422 30.7074)
(-37.833 29.7976 32.9815)
(-27.1202 38.4205 25.5278)
(1.7655 18.843 10.5846)
(12.2705 4.24081 10.0392)
(20.8126 -9.47056 7.23971)
(25.4804 -18.7914 3.70994)
(24.6449 -23.6604 3.25749)
(19.5115 -20.8225 8.41003)
(21.852 -23.7558 5.64575)
(30.1225 -33.1687 -8.56707)
(30.179 -33.8144 -1.15302)
(33.9406 -37.9724 -5.16352)
(37.1732 -41.265 -5.50054)
(36.8254 -40.6889 -9.21158)
(34.9471 -38.3066 -4.15064)
(35.4423 -38.9941 -9.19908)
(35.945 -39.6496 -10.8665)
(36.0336 -39.9245 -13.2673)
(36.9495 -41.0328 -15.1097)
(38.8709 -43.0907 -15.7405)
(40.8741 -45.1128 -16.2182)
(43.1292 -47.2903 -24.1626)
(42.9137 -47.1819 -24.5172)
(43.2707 -47.5848 -28.3984)
(40.934 -45.3602 -25.9395)
(40.7149 -45.2375 -28.5004)
(41.5152 -46.0538 -30.1276)
(39.898 -44.4716 -31.9155)
(41.1855 -45.6054 -43.7924)
(40.0625 -44.812 -33.5759)
(41.2465 -45.8748 -37.3806)
(42.6232 -46.9648 -50.4351)
(40.8617 -45.6154 -43.8433)
(41.2124 -45.9278 -48.2486)
(40.1061 -45.1303 -48.2973)
(39.0096 -43.9868 -49.9837)
(37.6556 -42.836 -50.1129)
(36.19 -41.3547 -50.4693)
(34.6495 -39.9909 -50.0842)
(33.0207 -38.4525 -49.3369)
(31.3571 -36.9413 -48.2477)
(29.6164 -35.2851 -46.4744)
(27.9474 -33.6961 -44.7432)
(26.2785 -32.036 -42.0995)
(24.8706 -30.6139 -39.939)
(23.5441 -29.1594 -36.5759)
(22.6307 -28.1294 -33.82)
(21.5983 -26.9926 -29.9029)
(20.8914 -26.2905 -26.9575)
(20.2073 -25.7504 -23.1082)
(20.278 -25.8673 -20.2213)
(19.9598 -26.5636 -16.9985)
(19.9838 -26.8514 -14.8536)
(19.618 -27.0156 -12.4947)
(19.6129 -27.847 -9.22841)
(20.1636 -30.2538 -11.4407)
(20.7056 -31.1433 -9.15268)
(20.48 -31.3711 -11.3294)
(18.9477 -29.9887 -12.8653)
(17.2918 -28.4843 -8.43716)
(18.7945 -29.7023 -11.894)
(20.9684 -31.4916 -18.21)
(20.6257 -30.9961 -19.092)
(19.4041 -29.7113 -15.0186)
(21.6829 -31.4069 -19.584)
(23.3603 -32.6208 -20.1639)
(22.5816 -32.2924 -16.4537)
(22.7987 -32.1934 -15.0638)
(21.8338 -32.4555 -9.70883)
(21.2641 -31.5812 -6.56969)
(18.1149 -31.6114 -0.995514)
(17.4843 -28.8003 3.28264)
(12.8307 -29.698 6.4557)
(15.3532 -29.502 12.3613)
(10.5423 -26.3373 14.9747)
(10.0903 -22.7557 20.5771)
(1.69761 -15.2485 22.3084)
)
;
    }
    procBoundary3to2
    {
        type            processor;
        value           nonuniform List<vector> 
180
(
(0.139175 -0.0801311 52.5668)
(0.425753 -0.0784856 57.1638)
(0.375315 -0.0765048 55.2705)
(0.437717 -0.10053 52.1208)
(-0.188574 -0.169805 55.6932)
(-0.544996 -0.185116 55.3235)
(-0.217063 -0.19384 55.8478)
(0.147261 -0.137411 52.1931)
(0.395195 -0.0240421 55.0901)
(0.519343 0.0352191 56.3107)
(0.461874 0.104737 52.1271)
(0.435546 -0.454062 55.0748)
(0.363067 -0.817052 54.5289)
(0.535608 -0.87531 54.7646)
(0.522631 -0.477463 53.5853)
(0.203887 -0.273448 53.5207)
(0.229585 -0.18728 51.5991)
(-0.313239 0.235997 54.902)
(-0.42792 0.424131 54.5087)
(-0.322346 0.141166 53.8429)
(-0.00204395 -0.376181 54.8226)
(0.064626 -0.194762 51.4491)
(-0.261358 -0.144706 54.4601)
(-0.321889 -0.0336866 55.1805)
(-0.171652 -0.202216 52.7946)
(-0.386186 -0.246252 53.7022)
(-0.627937 -0.0492363 51.9881)
(-1.27924 0.738115 55.1839)
(-1.22916 1.02762 54.8504)
(-0.956086 0.836466 55.3543)
(-0.56199 0.200984 53.1268)
(-0.624504 0.118827 54.332)
(-1.14575 0.442902 55.5605)
(-1.45274 0.870151 55.281)
(-1.43247 0.87555 55.6145)
(-1.55612 0.181724 55.4005)
(-1.62845 -0.380577 55.7798)
(-1.42396 -0.706341 55.7805)
(-1.11276 -0.944835 55.7002)
(-0.877434 -1.21526 56.6841)
(-0.505691 -0.896903 54.8732)
(-0.234556 -0.515741 52.4733)
(-0.504268 0.185335 57.034)
(-0.93069 0.477623 56.5289)
(-1.53329 0.0596304 55.6921)
(-1.14496 -0.523437 57.3303)
(-0.523374 -0.364792 52.2067)
(-0.292949 -0.271567 58.9542)
(-0.538919 -0.236727 52.7516)
(0.0386719 0.0205537 58.3903)
(-0.29408 0.108479 52.9649)
(0.191521 0.471225 58.271)
(-0.282941 0.389769 52.6978)
(-0.124946 0.52733 58.0128)
(-0.383045 0.495715 53.3529)
(-0.284981 0.598639 56.2016)
(0.0259855 0.555904 56.233)
(0.0135946 0.450908 55.475)
(0.142895 0.42948 55.5528)
(0.465385 0.383497 56.5422)
(0.446696 0.55114 52.7776)
(0.981804 1.02284 56.0181)
(1.12541 1.26588 55.8253)
(1.23327 1.19547 55.2282)
(1.60559 0.955364 56.1012)
(1.70977 0.973604 53.9246)
(1.42677 0.676939 54.2217)
(0.980784 0.515239 54.384)
(0.560759 0.430069 54.1657)
(0.190311 0.431391 53.8788)
(-0.1373 0.467381 53.7391)
(-0.474523 0.513191 53.642)
(-0.718483 0.586946 53.6455)
(-1.02707 0.632195 53.6843)
(-1.24714 0.704293 53.756)
(-1.41075 0.745853 53.9474)
(-1.70269 0.802169 54.1819)
(-2.1148 0.848256 54.5218)
(-2.53897 0.899195 54.8946)
(-2.62222 0.942729 55.3221)
(-2.66032 1.02979 55.771)
(-2.64105 1.08748 56.176)
(-2.63722 1.22624 56.6258)
(-2.54475 1.29342 56.9887)
(-2.56414 1.45647 57.4128)
(-2.51217 1.5169 57.735)
(-2.63078 1.71483 58.1646)
(-2.62328 1.76574 58.4709)
(-2.80147 1.97125 58.9121)
(-2.84571 1.98367 59.2415)
(-3.07774 2.20537 59.6771)
(-3.1193 2.14832 60.0871)
(-3.38912 2.4101 60.4877)
(-3.44584 2.31045 61.0316)
(-3.77271 2.67301 61.3861)
(-3.79798 2.51579 62.0898)
(-4.22653 3.02089 62.4397)
(-4.22854 2.81085 63.2779)
(-4.80102 3.44356 63.6975)
(-4.88401 3.2247 64.6535)
(-5.57964 3.85638 65.2259)
(-5.8632 3.62688 66.3372)
(-6.49591 4.11429 67.07)
(-6.89965 4.00808 68.5846)
(-7.27899 4.04048 69.7973)
(-7.52256 3.8921 71.7821)
(-7.17652 3.42808 73.2817)
(-7.24741 3.44376 74.954)
(-6.75913 2.94315 76.4893)
(-6.8815 3.17565 77.8438)
(-6.47424 2.93741 79.4177)
(-6.49999 3.11689 80.7042)
(-6.29568 3.24219 82.1895)
(-6.18614 3.25092 83.5698)
(-6.17529 3.71316 84.8661)
(-6.11557 3.78446 86.4329)
(-6.18331 4.40902 87.6008)
(-6.06925 4.5331 89.3744)
(-6.25122 5.21423 90.4791)
(-6.02448 5.24779 92.4275)
(-5.96003 5.55905 93.5197)
(-5.44327 5.26538 95.4369)
(-5.37619 5.31011 96.5031)
(-5.1647 5.19756 98.2018)
(-5.80183 5.83891 99.3204)
(-6.92284 6.93813 100.821)
(-8.96076 8.79316 102.217)
(-11.5912 11.0662 103.71)
(-14.6578 13.5614 105.597)
(-17.9661 15.9835 107.219)
(-21.1079 18.1533 109.53)
(-24.0977 19.7718 111.272)
(-26.5417 21.0005 113.655)
(-28.6408 21.4576 115.452)
(-30.0649 21.678 117.57)
(-31.1101 21.1332 119.334)
(-31.4781 20.5081 121.053)
(-31.6049 19.4017 122.642)
(-31.2067 18.2388 124.013)
(-30.692 16.9299 125.358)
(-29.889 15.6041 126.439)
(-29.0792 14.4433 127.552)
(-28.2255 13.2688 128.355)
(-27.5982 12.454 129.264)
(-27.1905 11.7104 129.869)
(-27.2049 11.3539 130.621)
(-27.5923 11.1724 131.175)
(-28.4019 11.2823 131.84)
(-29.5722 11.524 132.477)
(-31.0256 11.8933 133.164)
(-32.6599 12.3303 133.925)
(-34.4268 12.9742 134.742)
(-36.243 13.8182 135.659)
(-38.0528 15.2315 136.625)
(-39.8019 17.2373 137.679)
(-41.4331 20.1113 138.826)
(-42.8304 23.5973 140.034)
(-43.8162 27.8034 141.413)
(-44.2315 32.2444 142.828)
(-43.8068 36.8833 144.525)
(-42.4089 41.0934 146.192)
(-39.7343 44.7263 148.274)
(-35.6648 47.1114 150.087)
(-29.9814 48.0677 152.298)
(-22.7248 46.9594 153.669)
(-14.1245 43.6168 155.288)
(-4.54099 37.5355 155.329)
(5.28993 28.973 155.591)
(14.906 18.1214 153.301)
(23.5242 6.20161 151.678)
(30.9512 -6.22327 146.649)
(36.675 -18.02 143.456)
(40.6811 -28.7566 135.39)
(42.605 -37.2042 131.964)
(43.5181 -44.5382 120.443)
(40.8601 -46.538 119.889)
(39.4209 -49.4545 106.502)
(32.9115 -45.1084 107.663)
(28.7813 -42.6741 98.4522)
(20.859 -35.008 99.0656)
)
;
    }
}


// ************************************************************************* //
