FoamFile
{version 2.0; format ascii;class vectorField; location 0;object  v;}
353
(
( 1.11493e-06 1.17417e-05 -2.86212e-07 )  
( 5.84196e-06 1.11358e-05 2.37006e-06 )  
( -3.90861e-07 -1.62505e-06 1.41077e-07 )  
( -3.95345e-07 -4.33825e-06 2.74463e-10 )  
( 3.1339e-07 9.23228e-06 -1.06546e-06 )  
( 1.0112e-06 8.20508e-06 -1.09202e-06 )  
( -7.42007e-07 1.00244e-05 8.02033e-07 )  
( -1.39248e-06 8.32571e-06 1.21985e-06 )  
( -2.13015e-06 1.01767e-05 -7.23019e-07 )  
( 1.89888e-06 7.2281e-06 2.30335e-06 )  
( 5.7153e-07 1.2091e-05 8.32144e-07 )  
( -1.34095e-06 1.05419e-05 -9.47524e-07 )  
( 1.22423e-06 1.39003e-05 -7.79763e-07 )  
( 1.53852e-06 1.21297e-05 2.46734e-07 )  
( -3.68072e-07 1.12452e-05 -2.83683e-07 )  
( -3.51059e-06 -4.19795e-06 7.45003e-09 )  
( 1.51052e-06 8.67559e-06 -1.47303e-08 )  
( 3.08153e-06 1.93376e-05 -1.48965e-06 )  
( -1.15138e-06 2.07082e-05 -2.26653e-06 )  
( 9.43669e-06 2.5864e-06 2.61977e-12 )  
( 2.8381e-06 1.96504e-05 -3.38066e-06 )  
( 9.21264e-07 1.88418e-05 -2.12415e-06 )  
( -5.4679e-07 1.7687e-05 1.3184e-06 )  
( -4.50749e-07 1.46254e-05 -6.02111e-07 )  
( 1.28974e-06 1.19697e-05 1.33832e-06 )  
( 1.59374e-06 9.01219e-06 -4.01328e-07 )  
( 2.05388e-06 1.85793e-05 -2.48558e-06 )  
( 9.41408e-07 6.30327e-06 1.90543e-06 )  
( -1.22165e-07 2.03159e-05 -1.99311e-06 )  
( -1.52237e-07 1.22951e-05 3.62051e-06 )  
( 6.64917e-08 1.77828e-05 1.88557e-07 )  
( -4.09216e-07 1.89022e-05 -1.19414e-06 )  
( 3.40085e-07 1.94139e-05 2.03425e-07 )  
( -9.65722e-07 1.99266e-05 1.60632e-06 )  
( 1.54901e-06 2.15938e-05 -2.57616e-06 )  
( 1.73889e-06 2.11051e-05 -1.37988e-06 )  
( -1.64948e-06 2.1166e-05 -1.7442e-06 )  
( 5.24863e-06 1.9276e-05 1.3638e-06 )  
( 4.40245e-07 2.02029e-05 3.93902e-06 )  
( 4.79778e-07 1.94497e-05 1.09947e-06 )  
( 1.30882e-06 1.80047e-05 5.46426e-08 )  
( -1.29285e-06 1.7719e-05 1.05903e-06 )  
( 9.41989e-07 1.88877e-05 2.09967e-06 )  
( 2.17183e-06 1.97007e-05 1.16861e-06 )  
( 1.9706e-06 2.17224e-05 -1.18347e-06 )  
( -5.37304e-08 1.99943e-05 -7.54987e-07 )  
( 3.50084e-06 1.94405e-05 2.43387e-06 )  
( 2.25181e-06 2.45945e-05 2.19453e-07 )  
( 1.0379e-06 2.65619e-05 -2.44115e-06 )  
( 1.53419e-06 2.45089e-05 -1.27807e-06 )  
( 2.80287e-07 2.39226e-05 1.10565e-06 )  
( -1.15858e-06 1.86286e-05 -1.00138e-07 )  
( 4.28499e-06 1.30725e-05 -2.99015e-06 )  
( 1.54664e-07 2.01438e-05 -3.40659e-06 )  
( 1.24734e-06 2.11807e-05 -1.74338e-06 )  
( 9.19343e-07 2.50127e-05 -3.80271e-07 )  
( 4.86395e-07 2.61336e-05 -8.8095e-07 )  
( 1.30483e-07 2.8678e-05 2.60372e-06 )  
( 1.70589e-06 2.30346e-05 -9.3693e-08 )  
( 1.49956e-06 2.53182e-05 5.37965e-07 )  
( 3.13732e-06 2.03079e-05 1.08888e-06 )  
( -2.1884e-07 2.90628e-05 1.95353e-06 )  
( 5.50114e-06 2.03073e-05 -2.12086e-06 )  
( -2.342e-06 1.6605e-05 -2.62657e-06 )  
( 5.75365e-07 2.62078e-05 -2.43273e-06 )  
( 1.99297e-06 2.29709e-05 4.1386e-07 )  
( 1.87665e-06 2.79571e-05 -2.16112e-06 )  
( -1.21514e-06 2.28763e-05 -1.41704e-06 )  
( 3.14318e-06 2.4601e-05 3.44724e-07 )  
( 1.68348e-06 2.97958e-05 -2.7262e-06 )  
( 1.71648e-06 2.92463e-05 1.06212e-06 )  
( 4.66757e-06 3.11608e-05 2.8513e-06 )  
( 7.87073e-07 3.14577e-05 -1.44937e-06 )  
( 3.53015e-06 2.89547e-05 -4.82763e-06 )  
( 9.63088e-07 3.25863e-05 1.90766e-06 )  
( 1.90105e-06 2.72416e-05 9.65161e-07 )  
( 1.91339e-06 2.94978e-05 -4.12854e-06 )  
( 2.38602e-06 2.56896e-05 1.47964e-06 )  
( -3.49058e-06 2.49346e-05 -3.76844e-06 )  
( 3.06615e-06 2.58258e-05 -1.11762e-06 )  
( 1.22471e-06 2.78412e-05 -3.93971e-07 )  
( 2.10739e-06 2.39464e-05 -5.20176e-07 )  
( 3.20214e-06 3.4537e-05 -2.0674e-06 )  
( 2.18439e-06 3.03515e-05 -3.49095e-06 )  
( 3.70738e-06 3.57892e-05 1.42743e-06 )  
( -8.08235e-07 2.97683e-05 6.8212e-07 )  
( 2.17605e-06 3.12296e-05 -1.27005e-06 )  
( 4.86402e-06 3.52061e-05 1.16443e-06 )  
( 6.84579e-07 3.1596e-05 -5.33729e-07 )  
( 1.30395e-06 3.14413e-05 -1.05882e-06 )  
( 3.55429e-06 2.77102e-05 -1.48812e-06 )  
( 4.76135e-06 2.95487e-05 -1.35251e-07 )  
( 5.35792e-06 2.93676e-05 -1.08182e-06 )  
( 5.73317e-06 2.98128e-05 1.59911e-06 )  
( 1.63855e-06 3.29396e-05 1.20354e-06 )  
( 1.83287e-06 2.93738e-05 1.5503e-06 )  
( -1.32196e-07 4.28595e-05 1.03064e-06 )  
( 1.30443e-06 3.3358e-05 -1.40408e-06 )  
( 3.56246e-06 3.94288e-05 4.11979e-06 )  
( -8.02153e-07 2.47365e-05 -2.18409e-06 )  
( 2.05148e-06 4.08184e-05 -1.41475e-06 )  
( 2.79923e-06 3.01744e-05 -1.81325e-06 )  
( 5.9825e-06 3.76273e-05 -7.21551e-08 )  
( 1.1626e-06 3.77649e-05 -1.84381e-07 )  
( 7.34476e-08 3.40893e-05 4.16076e-06 )  
( 2.39282e-06 3.23361e-05 -3.14844e-06 )  
( 4.03209e-06 3.72479e-05 -1.19598e-06 )  
( 8.3055e-06 3.53099e-05 1.76258e-06 )  
( -3.18912e-06 4.41962e-05 1.76675e-07 )  
( 5.64666e-06 3.4721e-05 -1.01864e-06 )  
( 3.91136e-06 3.43696e-05 -4.71866e-07 )  
( 4.00635e-06 4.44419e-05 -4.80146e-07 )  
( 4.42509e-06 4.03897e-05 -1.51084e-06 )  
( 4.1968e-06 3.71211e-05 -1.98855e-06 )  
( 3.54137e-06 3.46222e-05 -2.83728e-06 )  
( -3.82372e-07 4.25021e-05 1.44954e-06 )  
( 2.22622e-06 4.41595e-05 -2.25664e-06 )  
( 4.6245e-06 3.68935e-05 3.63034e-06 )  
( 4.6159e-06 4.0967e-05 2.1236e-06 )  
( 1.46926e-06 3.7669e-05 1.15147e-06 )  
( 3.33581e-06 3.96257e-05 -5.55747e-07 )  
( 4.34245e-06 4.27016e-05 -7.66517e-07 )  
( 3.50639e-06 3.87836e-05 -1.90663e-06 )  
( 1.51245e-07 4.7971e-05 3.63896e-06 )  
( 4.23281e-06 3.66638e-05 -2.16345e-06 )  
( 1.76376e-07 4.79583e-05 -3.19095e-06 )  
( 3.59788e-06 4.66526e-05 8.47455e-07 )  
( 6.84534e-06 4.97799e-05 -3.84209e-06 )  
( -1.26946e-07 3.76083e-05 8.15234e-07 )  
( 4.38496e-06 4.71541e-05 -8.24155e-07 )  
( 6.18966e-06 4.23775e-05 1.48005e-06 )  
( 4.42975e-06 4.66145e-05 -3.14294e-06 )  
( 3.37164e-06 4.18943e-05 -2.10245e-06 )  
( 1.61894e-06 4.7889e-05 4.02354e-06 )  
( 1.33539e-06 4.8801e-05 6.58576e-06 )  
( 4.37302e-06 4.27478e-05 8.84758e-07 )  
( 4.35823e-06 4.86309e-05 -1.30404e-06 )  
( 4.57761e-06 4.34582e-05 -1.23544e-06 )  
( 3.35879e-06 4.93342e-05 -4.72136e-07 )  
( 3.3667e-06 4.78684e-05 -2.23691e-06 )  
( 1.04957e-05 5.63946e-05 -1.5589e-06 )  
( 6.26913e-06 5.02766e-05 1.46618e-06 )  
( 6.43651e-06 4.46592e-05 -2.72366e-06 )  
( 3.55323e-06 5.25082e-05 1.38044e-06 )  
( 5.59688e-06 5.0634e-05 -5.83344e-07 )  
( 1.61363e-06 4.71162e-05 -3.66013e-06 )  
( 4.75083e-06 5.50065e-05 2.81199e-06 )  
( 8.0981e-06 4.85221e-05 -3.02864e-07 )  
( 7.91683e-06 4.82573e-05 -3.52541e-07 )  
( 1.43928e-06 4.65419e-05 -1.24578e-07 )  
( 3.21279e-07 4.88749e-05 -1.86659e-06 )  
( 2.68859e-06 4.8617e-05 -3.88354e-06 )  
( 3.78886e-06 4.75388e-05 -5.73092e-07 )  
( 2.34762e-06 4.58855e-05 -1.40442e-06 )  
( 1.86801e-06 5.59845e-05 6.52538e-08 )  
( 2.59845e-06 4.36018e-05 -1.61516e-07 )  
( 3.52071e-06 5.91586e-05 -2.98694e-06 )  
( 3.12179e-06 5.3888e-05 7.84014e-07 )  
( 8.38957e-06 5.21114e-05 -2.17735e-06 )  
( 1.88391e-06 5.64566e-05 -4.37866e-06 )  
( 2.52411e-06 5.04247e-05 -5.63844e-07 )  
( 4.98068e-06 5.98816e-05 -1.88246e-06 )  
( 3.96626e-06 5.37297e-05 2.79567e-06 )  
( 6.98496e-06 5.6968e-05 -1.62182e-06 )  
( 7.54662e-07 5.31355e-05 -2.64596e-06 )  
( 1.90577e-06 5.54962e-05 -2.28696e-06 )  
( 5.0867e-06 4.99483e-05 -1.39584e-06 )  
( 3.28744e-06 5.84581e-05 9.83526e-07 )  
( 3.10095e-06 5.36732e-05 -1.97582e-06 )  
( 1.5409e-07 5.64376e-05 -2.60737e-06 )  
( 3.31281e-06 5.86283e-05 7.11205e-07 )  
( 4.24935e-06 6.11265e-05 -4.06552e-06 )  
( 6.73975e-06 5.56001e-05 -6.29439e-08 )  
( 3.63263e-06 5.28471e-05 6.81666e-07 )  
( 4.55482e-06 5.2078e-05 3.43037e-06 )  
( 5.3873e-06 5.82178e-05 -2.08929e-07 )  
( 2.33723e-06 5.93336e-05 -4.18544e-07 )  
( 4.38587e-06 5.81356e-05 6.71403e-07 )  
( 2.44772e-06 5.73866e-05 -6.0811e-06 )  
( 3.69956e-06 6.06313e-05 -2.14535e-06 )  
( 5.45407e-06 6.07118e-05 -1.1817e-07 )  
( 6.85642e-06 6.91527e-05 7.52139e-07 )  
( 6.76789e-06 5.66083e-05 2.10622e-06 )  
( 5.31837e-06 5.97523e-05 -2.1159e-06 )  
( 1.35716e-05 5.78388e-05 -2.53249e-06 )  
( 3.25023e-06 5.23626e-05 1.41733e-06 )  
( 4.7596e-06 6.39313e-05 2.12641e-07 )  
( 6.45853e-06 6.11758e-05 -1.1691e-06 )  
( 8.62971e-06 6.02219e-05 -2.77308e-06 )  
( 3.70832e-06 6.15131e-05 -2.02929e-08 )  
( 2.70562e-06 6.21664e-05 -1.87152e-07 )  
( 3.31654e-06 6.35008e-05 9.56331e-07 )  
( 4.54811e-06 5.97183e-05 4.74807e-07 )  
( 4.74922e-06 6.46565e-05 -2.14154e-06 )  
( 3.4586e-06 6.35913e-05 -5.2895e-06 )  
( 1.229e-06 5.94211e-05 -1.7513e-06 )  
( 2.56872e-06 6.34272e-05 5.09499e-07 )  
( 7.66491e-06 6.73563e-05 1.05804e-06 )  
( 5.1143e-06 6.13643e-05 -6.01552e-07 )  
( 5.63833e-06 6.56328e-05 5.89324e-07 )  
( 4.2668e-06 6.5272e-05 1.428e-06 )  
( 6.97536e-06 6.25057e-05 5.14753e-06 )  
( 7.7884e-06 6.63763e-05 -9.98333e-07 )  
( 1.31294e-05 6.16277e-05 -1.83984e-06 )  
( 6.52776e-06 7.39664e-05 3.65674e-06 )  
( 4.37228e-06 6.56025e-05 9.22646e-07 )  
( 6.0116e-06 6.78036e-05 -6.28904e-07 )  
( 5.0072e-06 6.50321e-05 -4.32002e-06 )  
( 2.85438e-06 6.97103e-05 2.18981e-06 )  
( 7.71525e-06 6.53545e-05 -3.05847e-06 )  
( 6.97544e-06 7.11966e-05 3.83963e-06 )  
( 5.86854e-06 7.39034e-05 5.02884e-08 )  
( 6.25211e-06 6.61211e-05 8.39391e-07 )  
( 5.8034e-06 6.9113e-05 -6.20781e-07 )  
( 6.48396e-06 6.88726e-05 7.46722e-08 )  
( 2.63049e-06 6.85456e-05 3.23362e-07 )  
( 7.65372e-06 6.73878e-05 -1.07199e-06 )  
( 3.79359e-06 6.09815e-05 -3.6866e-06 )  
( 7.53647e-06 6.82612e-05 -2.33828e-06 )  
( 6.95682e-06 6.7709e-05 -1.01367e-06 )  
( 7.10189e-06 6.85632e-05 5.49405e-07 )  
( 4.95541e-06 6.43805e-05 8.68349e-07 )  
( 4.44721e-06 7.04354e-05 2.35771e-07 )  
( 7.36771e-06 6.85274e-05 2.08606e-06 )  
( 5.70388e-06 7.16709e-05 3.75382e-07 )  
( 3.85203e-06 7.30734e-05 4.48862e-09 )  
( 8.14933e-06 7.37829e-05 -3.81797e-07 )  
( 6.67987e-06 7.26962e-05 -1.06129e-06 )  
( 8.14725e-06 7.19239e-05 -4.97253e-06 )  
( 5.73931e-06 6.69793e-05 2.06183e-06 )  
( 6.56332e-06 7.34222e-05 -1.74921e-06 )  
( 3.5515e-06 6.42624e-05 -2.30964e-06 )  
( 4.7681e-06 7.112e-05 -1.27185e-07 )  
( 9.2383e-06 7.10527e-05 -2.72179e-06 )  
( 1.02543e-05 7.5196e-05 -4.2374e-06 )  
( 1.59677e-06 7.50564e-05 -6.03174e-06 )  
( 4.43855e-06 6.88114e-05 -8.41364e-07 )  
( 8.12822e-06 6.96844e-05 -2.85472e-07 )  
( 6.79551e-06 7.45247e-05 -1.84226e-06 )  
( 7.83771e-06 7.41147e-05 -1.17299e-06 )  
( 6.94428e-06 7.80693e-05 -8.38112e-07 )  
( 6.70632e-06 7.97476e-05 5.37045e-07 )  
( 7.34344e-06 7.73702e-05 2.99688e-06 )  
( 4.11625e-06 7.81554e-05 -1.69394e-06 )  
( 4.52256e-06 7.55375e-05 3.05068e-07 )  
( 7.37899e-06 7.65513e-05 -7.97906e-07 )  
( 5.24204e-06 7.21412e-05 4.81127e-06 )  
( 9.46893e-06 7.75208e-05 -1.15174e-06 )  
( 5.82428e-06 7.32676e-05 4.57611e-06 )  
( 4.44105e-06 7.49537e-05 3.17253e-06 )  
( 5.8827e-06 7.42835e-05 5.42103e-06 )  
( -2.22475e-07 6.72692e-05 -4.29789e-06 )  
( 9.69248e-06 7.38335e-05 -3.66558e-06 )  
( 4.75881e-06 7.38986e-05 2.19192e-06 )  
( 9.98774e-06 7.54553e-05 -2.95539e-06 )  
( 5.80566e-06 7.71472e-05 2.43965e-06 )  
( 8.10916e-06 7.40315e-05 -1.44361e-07 )  
( 7.19313e-06 7.95755e-05 -1.45616e-06 )  
( 4.89473e-06 7.26063e-05 -6.65888e-07 )  
( 4.4459e-06 8.07423e-05 -1.486e-06 )  
( 7.93694e-06 7.74479e-05 -2.37732e-06 )  
( 7.81167e-06 7.722e-05 -3.23018e-06 )  
( 6.01948e-06 7.84152e-05 -2.29964e-06 )  
( 6.65559e-06 7.95434e-05 -4.06493e-08 )  
( 6.40449e-06 7.65836e-05 4.56225e-06 )  
( 7.63365e-06 7.82825e-05 8.45161e-07 )  
( 6.25057e-06 7.99533e-05 6.67598e-07 )  
( 8.62675e-06 8.7194e-05 2.47694e-06 )  
( 9.6684e-06 8.04916e-05 -1.59336e-06 )  
( 5.60086e-06 8.24459e-05 -2.67638e-06 )  
( 6.1069e-06 8.14065e-05 -9.19888e-07 )  
( 7.00589e-06 7.34188e-05 -7.59013e-06 )  
( 6.47403e-06 8.00127e-05 -1.83403e-06 )  
( 3.38666e-06 8.08842e-05 6.08385e-06 )  
( 3.65983e-06 8.19145e-05 -1.04264e-06 )  
( 5.30696e-06 8.3791e-05 -7.51095e-07 )  
( 4.93004e-06 7.27411e-05 -3.25004e-06 )  
( 7.16447e-06 8.30168e-05 -2.41662e-06 )  
( 4.55896e-06 7.99937e-05 -3.03195e-06 )  
( 9.87809e-06 8.75999e-05 -1.50733e-06 )  
( 3.76393e-06 8.38863e-05 -1.00461e-06 )  
( 9.6088e-06 7.94191e-05 3.78041e-06 )  
( 1.04265e-05 8.50097e-05 -3.42096e-06 )  
( 8.42095e-06 7.32891e-05 -7.95084e-06 )  
( 3.10886e-06 8.51712e-05 1.79947e-06 )  
( -1.15549e-06 8.86795e-05 5.56872e-06 )  
( 4.5996e-06 8.02743e-05 -1.86186e-06 )  
( 7.01401e-06 8.57186e-05 -4.9794e-06 )  
( 4.03213e-06 8.75746e-05 -4.22976e-06 )  
( 6.35013e-06 8.6214e-05 3.1702e-07 )  
( 9.71973e-06 7.73083e-05 -1.97803e-06 )  
( 7.35405e-06 8.49043e-05 -1.69605e-06 )  
( 7.97938e-06 7.91863e-05 2.40356e-06 )  
( 4.973e-06 8.35316e-05 -4.34588e-06 )  
( 7.80574e-06 8.60285e-05 -1.82694e-06 )  
( 1.08202e-06 9.0322e-05 2.16431e-06 )  
( 5.62472e-06 8.57734e-05 -8.93452e-07 )  
( 6.24416e-06 8.62115e-05 -2.15959e-06 )  
( 8.41739e-06 8.11835e-05 8.67415e-07 )  
( 1.15587e-05 8.55434e-05 -2.39108e-06 )  
( 4.00133e-06 8.71934e-05 2.8281e-06 )  
( 6.23e-06 8.67413e-05 1.65969e-06 )  
( 8.96665e-06 8.85466e-05 -3.63471e-06 )  
( 7.10141e-06 8.83118e-05 -2.12185e-06 )  
( 7.41657e-06 8.60918e-05 -1.4533e-06 )  
( 1.92446e-07 7.21481e-05 -2.34795e-06 )  
( 6.10699e-06 8.63965e-05 -1.39037e-06 )  
( 9.46462e-07 9.02058e-05 1.11558e-06 )  
( 7.52027e-06 9.04303e-05 -3.86001e-06 )  
( 2.05078e-06 0.000103107 1.11978e-05 )  
( 9.14436e-06 8.10974e-05 -3.49637e-06 )  
( 5.57299e-06 8.39776e-05 2.43061e-06 )  
( 6.59332e-06 8.79793e-05 -1.31829e-05 )  
( 1.33971e-05 0.000100904 1.862e-06 )  
( -1.34781e-05 7.12766e-05 4.97642e-06 )  
( 8.40119e-06 9.0037e-05 -1.41072e-06 )  
( 9.18294e-06 9.33827e-05 -4.36463e-06 )  
( 1.43311e-06 9.13302e-05 -4.50909e-07 )  
( 7.96998e-06 9.19947e-05 -4.95156e-06 )  
( 7.62946e-06 8.28431e-05 -2.78882e-06 )  
( 6.33535e-06 9.52408e-05 2.44321e-06 )  
( 1.18589e-05 9.13979e-05 -2.94888e-06 )  
( 1.08611e-05 9.11423e-05 -8.33055e-06 )  
( 1.02293e-05 8.8521e-05 -6.42112e-06 )  
( 1.22073e-05 8.63163e-05 1.96602e-06 )  
( 8.13742e-06 8.9396e-05 -5.39503e-07 )  
( 2.10393e-06 9.15262e-05 -2.66471e-07 )  
( 4.77962e-06 0.000101728 -8.02609e-06 )  
( 5.90828e-06 9.6185e-05 -3.32467e-06 )  
( 3.38607e-06 8.67731e-05 -1.46854e-05 )  
( 1.11239e-05 9.7954e-05 -6.47651e-06 )  
( 1.64505e-05 8.68972e-05 -3.8717e-06 )  
( 8.66321e-06 9.75609e-05 5.19932e-06 )  
( 3.99497e-07 7.1277e-05 8.88397e-06 )  
( 9.34692e-06 9.25292e-05 -1.00725e-05 )  
( -1.8686e-06 8.93917e-05 1.46917e-06 )  
( 9.90871e-06 8.91775e-05 -1.19716e-06 )  
( 5.22907e-06 9.52656e-05 -6.61783e-06 )  
( 8.01505e-06 7.30143e-05 -3.53664e-06 )  
( 1.25423e-05 9.45594e-05 -1.22992e-05 )  
( 8.30946e-06 8.14276e-05 -1.322e-06 )  
( -3.31981e-05 5.22779e-05 -1.08263e-05 )  
( 6.57425e-06 9.67285e-05 -2.28574e-07 )  
( -0.000298707 5.82799e-05 0.000215538 )  
( 1.34537e-05 8.11609e-05 -1.00532e-06 )  
( 9.8538e-06 9.28245e-05 -4.92129e-06 )  
( 1.92357e-05 9.07894e-05 -9.63992e-06 )  
( 5.15519e-06 8.78493e-05 1.30586e-05 )  
( 1.21872e-05 9.89999e-05 6.54113e-07 )  
( 1.66853e-06 8.09514e-05 -6.62722e-06 )  
( -6.24637e-06 1.5191e-05 -1.30496e-05 )  
( -3.29122e-05 5.50204e-05 -3.66258e-05 )  
( 3.69978e-05 1.90367e-06 -4.98743e-05 )  
)
