/*--------------------------------*- C++ -*----------------------------------*\
| =========                 |                                                 |
| \\      /  F ield         | OpenFOAM: The Open Source CFD Toolbox           |
|  \\    /   O peration     | Version:  5.x                                   |
|   \\  /    A nd           | Web:      www.OpenFOAM.org                      |
|    \\/     M anipulation  |                                                 |
\*---------------------------------------------------------------------------*/
FoamFile
{
    version     2.0;
    format      ascii;
    class       volVectorField;
    location    "0.1";
    object      U;
}
// * * * * * * * * * * * * * * * * * * * * * * * * * * * * * * * * * * * * * //

dimensions      [0 1 -1 0 0 0 0];

internalField   nonuniform List<vector> 
2250
(
(-2.54886e-10 -3.598e-11 -0.001)
(-2.20566e-10 -2.95338e-11 -0.001)
(-1.68879e-10 -2.62042e-11 -0.001)
(-1.06335e-10 -2.50049e-11 -0.001)
(-3.61845e-11 -2.40492e-11 -0.001)
(-2.45583e-10 -1.00723e-10 -0.001)
(-2.11269e-10 -8.29311e-11 -0.001)
(-1.64688e-10 -7.31305e-11 -0.001)
(-1.044e-10 -7.14304e-11 -0.001)
(-3.53296e-11 -7.12033e-11 -0.001)
(-2.30691e-10 -1.47719e-10 -0.001)
(-1.9348e-10 -1.27255e-10 -0.001)
(-1.57759e-10 -1.11245e-10 -0.001)
(-1.0478e-10 -1.08896e-10 -0.001)
(-3.61752e-11 -1.10954e-10 -0.001)
(-2.21274e-10 -1.5008e-10 -0.001)
(-1.74844e-10 -1.49285e-10 -0.001)
(-1.46381e-10 -1.4213e-10 -0.001)
(-1.04368e-10 -1.40622e-10 -0.001)
(-3.76004e-11 -1.43173e-10 -0.001)
(-1.95787e-10 -1.62285e-10 -0.001)
(-1.85636e-10 -1.60451e-10 -0.001)
(-1.49139e-10 -1.73641e-10 -0.001)
(-1.06121e-10 -1.76303e-10 -0.001)
(-3.89744e-11 -1.75899e-10 -0.001)
(-6.78932e-10 -8.48224e-11 -0.001)
(-5.88127e-10 -6.82717e-11 -0.001)
(-4.48852e-10 -6.1125e-11 -0.001)
(-2.82127e-10 -5.8752e-11 -0.001)
(-9.58471e-11 -5.78684e-11 -0.001)
(-6.54236e-10 -2.4497e-10 -0.001)
(-5.6549e-10 -2.03776e-10 -0.001)
(-4.40125e-10 -1.85574e-10 -0.001)
(-2.79416e-10 -1.84097e-10 -0.001)
(-9.52042e-11 -1.87821e-10 -0.001)
(-6.24541e-10 -3.64877e-10 -0.001)
(-5.29876e-10 -3.28267e-10 -0.001)
(-4.30059e-10 -3.01639e-10 -0.001)
(-2.85243e-10 -3.00256e-10 -0.001)
(-1.00054e-10 -3.09269e-10 -0.001)
(-6.10245e-10 -3.75939e-10 -0.001)
(-5.02329e-10 -3.89849e-10 -0.001)
(-4.12236e-10 -3.85288e-10 -0.001)
(-2.87669e-10 -3.84467e-10 -0.001)
(-1.04725e-10 -3.90592e-10 -0.001)
(-5.52446e-10 -4.24079e-10 -0.001)
(-5.39131e-10 -4.40968e-10 -0.001)
(-4.24739e-10 -4.6515e-10 -0.001)
(-2.91283e-10 -4.71224e-10 -0.001)
(-1.06857e-10 -4.67649e-10 -0.001)
(-1.17388e-09 -1.30466e-10 -0.001)
(-1.02868e-09 -1.12885e-10 -0.001)
(-7.84197e-10 -1.07403e-10 -0.001)
(-4.96809e-10 -1.07382e-10 -0.001)
(-1.70516e-10 -1.12293e-10 -0.001)
(-1.14461e-09 -3.95191e-10 -0.001)
(-1.00739e-09 -3.53815e-10 -0.001)
(-7.80003e-10 -3.4503e-10 -0.001)
(-5.02713e-10 -3.52326e-10 -0.001)
(-1.75897e-10 -3.66967e-10 -0.001)
(-1.12127e-09 -6.25029e-10 -0.001)
(-9.80426e-10 -5.92195e-10 -0.001)
(-7.84179e-10 -5.80331e-10 -0.001)
(-5.20326e-10 -5.91296e-10 -0.001)
(-1.86063e-10 -6.08314e-10 -0.001)
(-1.13012e-09 -7.26132e-10 -0.001)
(-9.62841e-10 -7.47499e-10 -0.001)
(-7.79315e-10 -7.43614e-10 -0.001)
(-5.31943e-10 -7.47949e-10 -0.001)
(-1.93976e-10 -7.56285e-10 -0.001)
(-1.07997e-09 -8.0386e-10 -0.001)
(-9.97915e-10 -8.29698e-10 -0.001)
(-7.84746e-10 -8.57023e-10 -0.001)
(-5.34464e-10 -8.62461e-10 -0.001)
(-1.95751e-10 -8.52708e-10 -0.001)
(-1.75888e-09 -1.93066e-10 -0.000999999)
(-1.56116e-09 -1.82951e-10 -0.001)
(-1.19718e-09 -1.83283e-10 -0.001)
(-7.67745e-10 -1.88343e-10 -0.001)
(-2.67382e-10 -2.01141e-10 -0.001)
(-1.73617e-09 -5.90767e-10 -0.001)
(-1.55398e-09 -5.7109e-10 -0.001)
(-1.20457e-09 -5.82268e-10 -0.001)
(-7.87262e-10 -6.02551e-10 -0.001)
(-2.80963e-10 -6.27245e-10 -0.001)
(-1.72849e-09 -9.62655e-10 -0.001)
(-1.55548e-09 -9.51072e-10 -0.001)
(-1.23088e-09 -9.68516e-10 -0.001)
(-8.15282e-10 -9.97941e-10 -0.001)
(-2.9358e-10 -1.01727e-09 -0.001)
(-1.75466e-09 -1.21978e-09 -0.001)
(-1.56007e-09 -1.23902e-09 -0.001)
(-1.25177e-09 -1.24459e-09 -0.001)
(-8.38091e-10 -1.26197e-09 -0.001)
(-3.0208e-10 -1.26728e-09 -0.001)
(-1.72767e-09 -1.3262e-09 -0.001)
(-1.58033e-09 -1.33949e-09 -0.001)
(-1.25408e-09 -1.37671e-09 -0.001)
(-8.40677e-10 -1.38285e-09 -0.001)
(-3.01398e-10 -1.36804e-09 -0.001)
(-2.47903e-09 -2.91137e-10 -0.000999999)
(-2.21789e-09 -2.90905e-10 -0.001)
(-1.72351e-09 -2.97097e-10 -0.001)
(-1.11318e-09 -3.06625e-10 -0.001)
(-3.90071e-10 -3.22143e-10 -0.001)
(-2.471e-09 -8.66678e-10 -0.001)
(-2.22756e-09 -8.75582e-10 -0.001)
(-1.74223e-09 -9.05017e-10 -0.001)
(-1.14076e-09 -9.35148e-10 -0.001)
(-4.06794e-10 -9.60193e-10 -0.001)
(-2.48038e-09 -1.39482e-09 -0.001)
(-2.26026e-09 -1.4121e-09 -0.001)
(-1.7864e-09 -1.46025e-09 -0.001)
(-1.17224e-09 -1.50446e-09 -0.001)
(-4.17463e-10 -1.5183e-09 -0.001)
(-2.5237e-09 -1.74609e-09 -0.001)
(-2.29335e-09 -1.83687e-09 -0.001)
(-1.83506e-09 -1.87131e-09 -0.001)
(-1.20195e-09 -1.90363e-09 -0.001)
(-4.2343e-10 -1.90068e-09 -0.001)
(-2.49303e-09 -1.9795e-09 -0.001)
(-2.38547e-09 -1.97441e-09 -0.001)
(-1.85344e-09 -2.02932e-09 -0.001)
(-1.20546e-09 -2.0396e-09 -0.001)
(-4.18104e-10 -2.02277e-09 -0.001)
(-3.41071e-09 -4.28431e-10 -0.000999999)
(-3.06054e-09 -4.36222e-10 -0.001)
(-2.40833e-09 -4.44132e-10 -0.001)
(-1.55525e-09 -4.54178e-10 -0.001)
(-5.42584e-10 -4.6447e-10 -0.001)
(-3.41942e-09 -1.24086e-09 -0.000999999)
(-3.08147e-09 -1.27138e-09 -0.001)
(-2.43057e-09 -1.3055e-09 -0.001)
(-1.57916e-09 -1.33584e-09 -0.001)
(-5.54581e-10 -1.35075e-09 -0.001)
(-3.44142e-09 -1.93712e-09 -0.001)
(-3.13078e-09 -1.98741e-09 -0.001)
(-2.47744e-09 -2.05057e-09 -0.001)
(-1.60596e-09 -2.09611e-09 -0.001)
(-5.60857e-10 -2.10124e-09 -0.001)
(-3.49861e-09 -2.42874e-09 -0.001)
(-3.19534e-09 -2.54582e-09 -0.001)
(-2.53986e-09 -2.6113e-09 -0.001)
(-1.63418e-09 -2.64567e-09 -0.001)
(-5.63631e-10 -2.6342e-09 -0.001)
(-3.55693e-09 -2.7089e-09 -0.001)
(-3.31348e-09 -2.77174e-09 -0.001)
(-2.5777e-09 -2.83116e-09 -0.001)
(-1.6341e-09 -2.84344e-09 -0.001)
(-5.54266e-10 -2.82749e-09 -0.001)
(-4.66415e-09 -6.0717e-10 -0.000999998)
(-4.18845e-09 -6.16489e-10 -0.001)
(-3.31594e-09 -6.20612e-10 -0.001)
(-2.13335e-09 -6.26109e-10 -0.001)
(-7.37894e-10 -6.27389e-10 -0.001)
(-4.68108e-09 -1.73889e-09 -0.000999999)
(-4.20924e-09 -1.77314e-09 -0.001)
(-3.3315e-09 -1.79477e-09 -0.001)
(-2.14503e-09 -1.81385e-09 -0.001)
(-7.41529e-10 -1.81537e-09 -0.001)
(-4.70387e-09 -2.66187e-09 -0.000999999)
(-4.25221e-09 -2.73594e-09 -0.001)
(-3.36319e-09 -2.78286e-09 -0.001)
(-2.16144e-09 -2.81217e-09 -0.001)
(-7.44028e-10 -2.81037e-09 -0.001)
(-4.75894e-09 -3.33806e-09 -0.001)
(-4.3308e-09 -3.47006e-09 -0.001)
(-3.40866e-09 -3.52299e-09 -0.001)
(-2.1784e-09 -3.5376e-09 -0.001)
(-7.44979e-10 -3.52099e-09 -0.001)
(-4.86322e-09 -3.72521e-09 -0.001)
(-4.43713e-09 -3.78601e-09 -0.001)
(-3.43128e-09 -3.8439e-09 -0.001)
(-2.16641e-09 -3.85492e-09 -0.00100001)
(-7.33867e-10 -3.84029e-09 -0.00100001)
(-6.37432e-09 -8.36372e-10 -0.000999997)
(-5.72926e-09 -8.4046e-10 -0.000999999)
(-4.54114e-09 -8.38014e-10 -0.001)
(-2.91275e-09 -8.36518e-10 -0.001)
(-1.00166e-09 -8.31663e-10 -0.001)
(-6.38828e-09 -2.40153e-09 -0.000999998)
(-5.74095e-09 -2.42247e-09 -0.001)
(-4.5452e-09 -2.42275e-09 -0.001)
(-2.9129e-09 -2.42452e-09 -0.001)
(-9.99917e-10 -2.41686e-09 -0.001)
(-6.40242e-09 -3.67877e-09 -0.000999999)
(-5.76128e-09 -3.74725e-09 -0.001)
(-4.55203e-09 -3.75428e-09 -0.001)
(-2.91686e-09 -3.75673e-09 -0.001)
(-1.00014e-09 -3.74964e-09 -0.001)
(-6.44365e-09 -4.57474e-09 -0.001)
(-5.81729e-09 -4.71204e-09 -0.001)
(-4.5559e-09 -4.72885e-09 -0.001)
(-2.91603e-09 -4.7152e-09 -0.001)
(-9.99791e-10 -4.69633e-09 -0.00100001)
(-6.43041e-09 -5.21719e-09 -0.001)
(-5.91547e-09 -5.16073e-09 -0.001)
(-4.55595e-09 -5.19335e-09 -0.00100001)
(-2.8936e-09 -5.19736e-09 -0.00100001)
(-9.89839e-10 -5.18053e-09 -0.00100001)
(-8.71305e-09 -1.13663e-09 -0.000999995)
(-7.84343e-09 -1.13367e-09 -0.000999998)
(-6.21459e-09 -1.12663e-09 -0.001)
(-3.9824e-09 -1.11981e-09 -0.001)
(-1.36763e-09 -1.11455e-09 -0.001)
(-8.72176e-09 -3.29125e-09 -0.000999996)
(-7.84702e-09 -3.29103e-09 -0.000999999)
(-6.21156e-09 -3.27385e-09 -0.001)
(-3.97914e-09 -3.26029e-09 -0.001)
(-1.36657e-09 -3.2496e-09 -0.001)
(-8.72441e-09 -5.07903e-09 -0.000999998)
(-7.84069e-09 -5.11923e-09 -0.001)
(-6.19587e-09 -5.09026e-09 -0.001)
(-3.97168e-09 -5.06859e-09 -0.001)
(-1.36518e-09 -5.05525e-09 -0.00100001)
(-8.73754e-09 -6.2874e-09 -0.001)
(-7.85939e-09 -6.40364e-09 -0.001)
(-6.16257e-09 -6.38865e-09 -0.001)
(-3.95457e-09 -6.35742e-09 -0.00100001)
(-1.36257e-09 -6.33705e-09 -0.00100001)
(-8.58291e-09 -7.22338e-09 -0.001)
(-7.94201e-09 -7.05729e-09 -0.001)
(-6.15067e-09 -7.04708e-09 -0.00100001)
(-3.93252e-09 -7.03867e-09 -0.00100001)
(-1.35632e-09 -7.0158e-09 -0.00100001)
(-1.19075e-08 -1.54473e-09 -0.000999993)
(-1.07382e-08 -1.53686e-09 -0.000999997)
(-8.50398e-09 -1.52879e-09 -0.001)
(-5.45186e-09 -1.51991e-09 -0.001)
(-1.8742e-09 -1.51676e-09 -0.001)
(-1.19157e-08 -4.50183e-09 -0.000999994)
(-1.07408e-08 -4.47777e-09 -0.000999998)
(-8.50184e-09 -4.4517e-09 -0.001)
(-5.45192e-09 -4.42919e-09 -0.001)
(-1.87678e-09 -4.41718e-09 -0.001)
(-1.19045e-08 -6.98665e-09 -0.000999996)
(-1.07081e-08 -6.97743e-09 -0.001)
(-8.47183e-09 -6.93049e-09 -0.001)
(-5.43579e-09 -6.89566e-09 -0.00100001)
(-1.87338e-09 -6.87295e-09 -0.00100001)
(-1.18932e-08 -8.65479e-09 -0.000999999)
(-1.06862e-08 -8.71974e-09 -0.001)
(-8.42233e-09 -8.68694e-09 -0.00100001)
(-5.40853e-09 -8.65172e-09 -0.00100001)
(-1.86673e-09 -8.62524e-09 -0.00100001)
(-1.16939e-08 -9.80977e-09 -0.001)
(-1.07403e-08 -9.64802e-09 -0.00100001)
(-8.4052e-09 -9.59735e-09 -0.00100001)
(-5.39092e-09 -9.57325e-09 -0.00100001)
(-1.86243e-09 -9.54189e-09 -0.00100001)
(-1.62527e-08 -2.10841e-09 -0.000999991)
(-1.4677e-08 -2.09742e-09 -0.000999996)
(-1.16189e-08 -2.08848e-09 -0.001)
(-7.45419e-09 -2.07885e-09 -0.001)
(-2.5654e-09 -2.07497e-09 -0.001)
(-1.62625e-08 -6.15118e-09 -0.000999992)
(-1.46823e-08 -6.10362e-09 -0.000999997)
(-1.16206e-08 -6.0706e-09 -0.001)
(-7.45722e-09 -6.04291e-09 -0.001)
(-2.56935e-09 -6.02467e-09 -0.00100001)
(-1.62301e-08 -9.55908e-09 -0.000999994)
(-1.46237e-08 -9.49425e-09 -0.000999999)
(-1.15806e-08 -9.43839e-09 -0.001)
(-7.43347e-09 -9.39665e-09 -0.00100001)
(-2.56242e-09 -9.36037e-09 -0.00100001)
(-1.61943e-08 -1.19236e-08 -0.000999998)
(-1.45637e-08 -1.1892e-08 -0.001)
(-1.1526e-08 -1.18366e-08 -0.00100001)
(-7.39844e-09 -1.17958e-08 -0.00100001)
(-2.55028e-09 -1.17546e-08 -0.00100001)
(-1.60724e-08 -1.32343e-08 -0.001)
(-1.45369e-08 -1.3157e-08 -0.00100001)
(-1.14863e-08 -1.30752e-08 -0.00100001)
(-7.37432e-09 -1.30313e-08 -0.00100001)
(-2.54235e-09 -1.29886e-08 -0.00100002)
(-2.2134e-08 -2.88187e-09 -0.000999987)
(-1.99975e-08 -2.86452e-09 -0.000999994)
(-1.5831e-08 -2.85062e-09 -0.000999999)
(-1.01611e-08 -2.83858e-09 -0.001)
(-3.49796e-09 -2.82882e-09 -0.00100001)
(-2.21421e-08 -8.38375e-09 -0.000999989)
(-2.00004e-08 -8.31189e-09 -0.000999995)
(-1.58326e-08 -8.26514e-09 -0.001)
(-1.01618e-08 -8.22975e-09 -0.00100001)
(-3.49888e-09 -8.19816e-09 -0.00100001)
(-2.20822e-08 -1.30178e-08 -0.000999992)
(-1.99159e-08 -1.29028e-08 -0.000999999)
(-1.57794e-08 -1.28286e-08 -0.001)
(-1.01284e-08 -1.27755e-08 -0.00100001)
(-3.48719e-09 -1.27235e-08 -0.00100001)
(-2.2018e-08 -1.63154e-08 -0.000999997)
(-1.98141e-08 -1.61985e-08 -0.001)
(-1.57095e-08 -1.61052e-08 -0.00100001)
(-1.00828e-08 -1.60466e-08 -0.00100001)
(-3.4702e-09 -1.59869e-08 -0.00100002)
(-2.19498e-08 -1.79391e-08 -0.001)
(-1.97059e-08 -1.78947e-08 -0.00100001)
(-1.56301e-08 -1.7792e-08 -0.00100001)
(-1.00412e-08 -1.77242e-08 -0.00100002)
(-3.45625e-09 -1.76673e-08 -0.00100002)
(-3.00772e-08 -3.92822e-09 -0.000999982)
(-2.71592e-08 -3.8971e-09 -0.000999991)
(-2.1512e-08 -3.87362e-09 -0.000999999)
(-1.38099e-08 -3.85631e-09 -0.001)
(-4.75261e-09 -3.83834e-09 -0.00100001)
(-3.00793e-08 -1.13855e-08 -0.000999984)
(-2.71507e-08 -1.12868e-08 -0.000999993)
(-2.15084e-08 -1.12195e-08 -0.001)
(-1.3805e-08 -1.11712e-08 -0.00100001)
(-4.74913e-09 -1.11236e-08 -0.00100001)
(-2.99945e-08 -1.7662e-08 -0.000999989)
(-2.70432e-08 -1.75088e-08 -0.000999998)
(-2.14377e-08 -1.74064e-08 -0.00100001)
(-1.37605e-08 -1.73352e-08 -0.00100001)
(-4.73329e-09 -1.7268e-08 -0.00100001)
(-2.99013e-08 -2.22138e-08 -0.000999995)
(-2.6899e-08 -2.20232e-08 -0.001)
(-2.13404e-08 -2.1882e-08 -0.00100001)
(-1.37021e-08 -2.17959e-08 -0.00100002)
(-4.71366e-09 -2.17181e-08 -0.00100002)
(-2.98282e-08 -2.43685e-08 -0.001)
(-2.67118e-08 -2.43048e-08 -0.00100001)
(-2.12139e-08 -2.41857e-08 -0.00100002)
(-1.36389e-08 -2.40954e-08 -0.00100002)
(-4.6946e-09 -2.40203e-08 -0.00100003)
(-4.08294e-08 -5.32813e-09 -0.000999975)
(-3.68264e-08 -5.28127e-09 -0.000999987)
(-2.91945e-08 -5.24752e-09 -0.000999997)
(-1.87446e-08 -5.22348e-09 -0.00100001)
(-6.44866e-09 -5.19882e-09 -0.00100001)
(-4.08266e-08 -1.54106e-08 -0.000999978)
(-3.68081e-08 -1.52912e-08 -0.00099999)
(-2.91868e-08 -1.52043e-08 -0.001)
(-1.8737e-08 -1.5141e-08 -0.00100001)
(-6.44359e-09 -1.50796e-08 -0.00100001)
(-4.07207e-08 -2.39108e-08 -0.000999984)
(-3.66877e-08 -2.37336e-08 -0.000999997)
(-2.91001e-08 -2.36061e-08 -0.00100001)
(-1.86829e-08 -2.3516e-08 -0.00100001)
(-6.42557e-09 -2.34337e-08 -0.00100002)
(-4.0594e-08 -3.01635e-08 -0.000999993)
(-3.65087e-08 -2.99062e-08 -0.00100001)
(-2.8977e-08 -2.97202e-08 -0.00100002)
(-1.86129e-08 -2.96036e-08 -0.00100002)
(-6.40434e-09 -2.95015e-08 -0.00100003)
(-4.04921e-08 -3.31123e-08 -0.001)
(-3.62448e-08 -3.30059e-08 -0.00100002)
(-2.88023e-08 -3.28623e-08 -0.00100003)
(-1.8522e-08 -3.27483e-08 -0.00100003)
(-6.3768e-09 -3.26433e-08 -0.00100004)
(-5.54654e-08 -7.20463e-09 -0.000999965)
(-4.9976e-08 -7.14811e-09 -0.000999982)
(-3.96512e-08 -7.10558e-09 -0.000999996)
(-2.54646e-08 -7.0748e-09 -0.00100001)
(-8.76005e-09 -7.04511e-09 -0.00100001)
(-5.54651e-08 -2.08387e-08 -0.000999969)
(-4.99612e-08 -2.07084e-08 -0.000999986)
(-3.96457e-08 -2.06042e-08 -0.001)
(-2.54598e-08 -2.05267e-08 -0.00100001)
(-8.75691e-09 -2.04525e-08 -0.00100002)
(-5.53289e-08 -3.23628e-08 -0.000999978)
(-4.98328e-08 -3.21692e-08 -0.000999994)
(-3.9545e-08 -3.20207e-08 -0.00100001)
(-2.53985e-08 -3.19133e-08 -0.00100002)
(-8.73784e-09 -3.18105e-08 -0.00100002)
(-5.51486e-08 -4.08907e-08 -0.000999989)
(-4.96262e-08 -4.05762e-08 -0.00100001)
(-3.94002e-08 -4.03524e-08 -0.00100002)
(-2.53156e-08 -4.02014e-08 -0.00100003)
(-8.71298e-09 -4.0061e-08 -0.00100004)
(-5.50092e-08 -4.50003e-08 -0.001)
(-4.92951e-08 -4.48312e-08 -0.00100002)
(-3.91767e-08 -4.46371e-08 -0.00100003)
(-2.51859e-08 -4.44826e-08 -0.00100004)
(-8.67026e-09 -4.43254e-08 -0.00100005)
(-7.54816e-08 -9.7481e-09 -0.000999951)
(-6.79853e-08 -9.68285e-09 -0.000999974)
(-5.39652e-08 -9.62956e-09 -0.000999994)
(-3.46691e-08 -9.59123e-09 -0.00100001)
(-1.19296e-08 -9.55537e-09 -0.00100002)
(-7.5485e-08 -2.82261e-08 -0.000999957)
(-6.79806e-08 -2.80733e-08 -0.00099998)
(-5.39654e-08 -2.79426e-08 -0.001)
(-3.46705e-08 -2.78473e-08 -0.00100001)
(-1.19299e-08 -2.77543e-08 -0.00100002)
(-7.52915e-08 -4.38659e-08 -0.000999969)
(-6.78253e-08 -4.36375e-08 -0.000999992)
(-5.38414e-08 -4.34506e-08 -0.00100001)
(-3.45971e-08 -4.33151e-08 -0.00100003)
(-1.19076e-08 -4.31778e-08 -0.00100003)
(-7.50313e-08 -5.53931e-08 -0.000999984)
(-6.75752e-08 -5.50378e-08 -0.00100001)
(-5.36573e-08 -5.47626e-08 -0.00100003)
(-3.44877e-08 -5.45587e-08 -0.00100004)
(-1.18729e-08 -5.43628e-08 -0.00100005)
(-7.48123e-08 -6.11544e-08 -0.001)
(-6.71957e-08 -6.08796e-08 -0.00100003)
(-5.33711e-08 -6.06018e-08 -0.00100005)
(-3.43048e-08 -6.03765e-08 -0.00100006)
(-1.1811e-08 -6.01435e-08 -0.00100007)
(-1.02884e-07 -1.32195e-08 -0.000999932)
(-9.26977e-08 -1.31345e-08 -0.000999964)
(-7.35929e-08 -1.30629e-08 -0.000999991)
(-4.72974e-08 -1.30123e-08 -0.00100001)
(-1.62821e-08 -1.29658e-08 -0.00100002)
(-1.02877e-07 -3.83235e-08 -0.000999941)
(-9.26956e-08 -3.81088e-08 -0.000999972)
(-7.35951e-08 -3.79253e-08 -0.000999999)
(-4.7303e-08 -3.77943e-08 -0.00100002)
(-1.62848e-08 -3.76659e-08 -0.00100003)
(-1.0258e-07 -5.95742e-08 -0.000999956)
(-9.24672e-08 -5.9257e-08 -0.000999988)
(-7.34171e-08 -5.89854e-08 -0.00100001)
(-4.71962e-08 -5.87867e-08 -0.00100003)
(-1.62504e-08 -5.85864e-08 -0.00100004)
(-1.02189e-07 -7.51138e-08 -0.000999978)
(-9.21201e-08 -7.46871e-08 -0.00100001)
(-7.31443e-08 -7.43114e-08 -0.00100004)
(-4.70269e-08 -7.40147e-08 -0.00100006)
(-1.61943e-08 -7.37385e-08 -0.00100007)
(-1.018e-07 -8.31193e-08 -0.001)
(-9.16659e-08 -8.26578e-08 -0.00100003)
(-7.27568e-08 -8.22432e-08 -0.00100006)
(-4.67702e-08 -8.19078e-08 -0.00100008)
(-1.611e-08 -8.15797e-08 -0.00100009)
(-1.40341e-07 -1.79672e-08 -0.000999907)
(-1.26539e-07 -1.78401e-08 -0.000999951)
(-1.00461e-07 -1.77352e-08 -0.000999988)
(-6.45881e-08 -1.76605e-08 -0.00100001)
(-2.22435e-08 -1.75944e-08 -0.00100003)
(-1.40294e-07 -5.21286e-08 -0.000999919)
(-1.26516e-07 -5.17863e-08 -0.000999962)
(-1.0045e-07 -5.15039e-08 -0.000999999)
(-6.45867e-08 -5.12985e-08 -0.00100003)
(-2.22443e-08 -5.11048e-08 -0.00100004)
(-1.39823e-07 -8.10361e-08 -0.00099994)
(-1.26141e-07 -8.05294e-08 -0.000999983)
(-1.00161e-07 -8.00966e-08 -0.00100002)
(-6.44046e-08 -7.97743e-08 -0.00100005)
(-2.21819e-08 -7.94671e-08 -0.00100006)
(-1.39194e-07 -1.02048e-07 -0.00099997)
(-1.25595e-07 -1.01421e-07 -0.00100001)
(-9.97215e-08 -1.00849e-07 -0.00100005)
(-6.41252e-08 -1.00402e-07 -0.00100008)
(-2.20874e-08 -1.00002e-07 -0.00100009)
(-1.38479e-07 -1.13037e-07 -0.001)
(-1.24943e-07 -1.12253e-07 -0.00100005)
(-9.91586e-08 -1.11597e-07 -0.00100008)
(-6.37585e-08 -1.11086e-07 -0.00100011)
(-2.19677e-08 -1.10628e-07 -0.00100012)
(-1.91438e-07 -2.44615e-08 -0.000999874)
(-1.72736e-07 -2.42548e-08 -0.000999933)
(-1.37147e-07 -2.40905e-08 -0.000999983)
(-8.81965e-08 -2.3971e-08 -0.00100002)
(-3.03819e-08 -2.38708e-08 -0.00100004)
(-1.91311e-07 -7.0977e-08 -0.00099989)
(-1.72648e-07 -7.04099e-08 -0.000999949)
(-1.37092e-07 -6.99534e-08 -0.000999999)
(-8.81662e-08 -6.96148e-08 -0.00100004)
(-3.03728e-08 -6.93169e-08 -0.00100006)
(-1.90563e-07 -1.1031e-07 -0.000999919)
(-1.72021e-07 -1.09462e-07 -0.000999978)
(-1.36607e-07 -1.08754e-07 -0.00100003)
(-8.78534e-08 -1.08226e-07 -0.00100006)
(-3.02642e-08 -1.07756e-07 -0.00100008)
(-1.8954e-07 -1.38821e-07 -0.000999959)
(-1.71116e-07 -1.37769e-07 -0.00100002)
(-1.35891e-07 -1.3685e-07 -0.00100007)
(-8.73974e-08 -1.36163e-07 -0.0010001)
(-3.01083e-08 -1.35569e-07 -0.00100012)
(-1.88316e-07 -1.53703e-07 -0.00100001)
(-1.70051e-07 -1.5244e-07 -0.00100006)
(-1.35024e-07 -1.51393e-07 -0.00100011)
(-8.68467e-08 -1.50597e-07 -0.00100015)
(-2.99232e-08 -1.49935e-07 -0.00100017)
(-2.61079e-07 -3.33211e-08 -0.000999829)
(-2.35696e-07 -3.29901e-08 -0.000999909)
(-1.87185e-07 -3.27264e-08 -0.000999978)
(-1.20399e-07 -3.25332e-08 -0.00100003)
(-4.14809e-08 -3.23806e-08 -0.00100005)
(-2.60824e-07 -9.6648e-08 -0.000999851)
(-2.35484e-07 -9.57379e-08 -0.000999931)
(-1.87037e-07 -9.49969e-08 -0.000999999)
(-1.2031e-07 -9.4447e-08 -0.00100005)
(-4.14523e-08 -9.39964e-08 -0.00100008)
(-2.59659e-07 -1.50137e-07 -0.00099989)
(-2.34462e-07 -1.48764e-07 -0.00099997)
(-1.8624e-07 -1.47619e-07 -0.00100004)
(-1.19798e-07 -1.46771e-07 -0.00100009)
(-4.12763e-08 -1.46063e-07 -0.00100011)
(-2.58034e-07 -1.88848e-07 -0.000999945)
(-2.33e-07 -1.8712e-07 -0.00100002)
(-1.85094e-07 -1.85646e-07 -0.00100009)
(-1.19067e-07 -1.84573e-07 -0.00100014)
(-4.10248e-08 -1.83682e-07 -0.00100017)
(-2.56098e-07 -2.0887e-07 -0.00100001)
(-2.31263e-07 -2.06919e-07 -0.00100009)
(-1.83723e-07 -2.05284e-07 -0.00100015)
(-1.18208e-07 -2.04049e-07 -0.0010002)
(-4.07329e-08 -2.0307e-07 -0.00100023)
(-3.56059e-07 -4.53788e-08 -0.000999768)
(-3.21556e-07 -4.48746e-08 -0.000999877)
(-2.55486e-07 -4.44581e-08 -0.000999971)
(-1.64374e-07 -4.41518e-08 -0.00100004)
(-5.6639e-08 -4.39199e-08 -0.00100008)
(-3.55608e-07 -1.31574e-07 -0.000999797)
(-3.21154e-07 -1.30171e-07 -0.000999906)
(-2.55181e-07 -1.28994e-07 -0.001)
(-1.64185e-07 -1.28123e-07 -0.00100007)
(-5.6576e-08 -1.27445e-07 -0.0010001)
(-3.53818e-07 -2.0428e-07 -0.000999851)
(-3.19541e-07 -2.02143e-07 -0.000999959)
(-2.53906e-07 -2.00339e-07 -0.00100005)
(-1.63368e-07 -1.98999e-07 -0.00100012)
(-5.6297e-08 -1.97939e-07 -0.00100016)
(-3.5129e-07 -2.56805e-07 -0.000999925)
(-3.17258e-07 -2.54086e-07 -0.00100003)
(-2.52104e-07 -2.51782e-07 -0.00100012)
(-1.62214e-07 -2.50098e-07 -0.00100019)
(-5.59015e-08 -2.48775e-07 -0.00100023)
(-3.48305e-07 -2.83759e-07 -0.00100001)
(-3.14522e-07 -2.80764e-07 -0.00100012)
(-2.4996e-07 -2.78231e-07 -0.00100021)
(-1.60874e-07 -2.76342e-07 -0.00100027)
(-5.54496e-08 -2.74896e-07 -0.00100031)
(-4.85765e-07 -6.17989e-08 -0.000999684)
(-4.38864e-07 -6.10467e-08 -0.000999834)
(-3.48872e-07 -6.04026e-08 -0.000999962)
(-2.24538e-07 -5.99237e-08 -0.00100005)
(-7.73831e-08 -5.95686e-08 -0.00100011)
(-4.84996e-07 -1.79141e-07 -0.000999724)
(-4.38167e-07 -1.77009e-07 -0.000999873)
(-3.48314e-07 -1.75183e-07 -0.001)
(-2.24177e-07 -1.7382e-07 -0.00100009)
(-7.7258e-08 -1.72797e-07 -0.00100014)
(-4.82262e-07 -2.77978e-07 -0.000999797)
(-4.35669e-07 -2.74698e-07 -0.000999945)
(-3.46316e-07 -2.71904e-07 -0.00100007)
(-2.22892e-07 -2.69817e-07 -0.00100016)
(-7.68198e-08 -2.6824e-07 -0.00100021)
(-4.7838e-07 -3.49208e-07 -0.000999898)
(-4.32155e-07 -3.45007e-07 -0.00100004)
(-3.43524e-07 -3.41464e-07 -0.00100017)
(-2.21102e-07 -3.38861e-07 -0.00100026)
(-7.62105e-08 -3.36905e-07 -0.00100031)
(-4.73802e-07 -3.85512e-07 -0.00100002)
(-4.2793e-07 -3.80917e-07 -0.00100016)
(-3.40227e-07 -3.77011e-07 -0.00100028)
(-2.19037e-07 -3.74136e-07 -0.00100037)
(-7.55166e-08 -3.72004e-07 -0.00100042)
(-6.63046e-07 -8.42106e-08 -0.000999569)
(-5.99367e-07 -8.30772e-08 -0.000999774)
(-4.76754e-07 -8.20885e-08 -0.000999949)
(-3.0699e-07 -8.13435e-08 -0.00100008)
(-1.05824e-07 -8.08018e-08 -0.00100015)
(-6.61762e-07 -2.44033e-07 -0.000999623)
(-5.98187e-07 -2.40798e-07 -0.000999828)
(-4.75782e-07 -2.37993e-07 -0.001)
(-3.06344e-07 -2.35882e-07 -0.00100013)
(-1.05596e-07 -2.34342e-07 -0.0010002)
(-6.57599e-07 -3.78425e-07 -0.000999724)
(-5.94356e-07 -3.73431e-07 -0.000999926)
(-4.72692e-07 -3.69146e-07 -0.0010001)
(-3.04347e-07 -3.65937e-07 -0.00100023)
(-1.04914e-07 -3.63596e-07 -0.00100029)
(-6.51708e-07 -4.7495e-07 -0.000999861)
(-5.88993e-07 -4.68561e-07 -0.00100006)
(-4.68413e-07 -4.63164e-07 -0.00100023)
(-3.01603e-07 -4.59185e-07 -0.00100036)
(-1.03983e-07 -4.56292e-07 -0.00100042)
(-6.44751e-07 -5.23783e-07 -0.00100002)
(-5.82577e-07 -5.16789e-07 -0.00100022)
(-4.63394e-07 -5.10824e-07 -0.00100039)
(-2.9844e-07 -5.06443e-07 -0.00100051)
(-1.02918e-07 -5.03283e-07 -0.00100058)
(-9.05427e-07 -1.14858e-07 -0.000999412)
(-8.19131e-07 -1.13133e-07 -0.000999693)
(-6.52105e-07 -1.11615e-07 -0.000999933)
(-4.20201e-07 -1.10458e-07 -0.00100011)
(-1.44908e-07 -1.09635e-07 -0.00100021)
(-9.03335e-07 -3.32709e-07 -0.000999487)
(-8.17158e-07 -3.27813e-07 -0.000999766)
(-6.50455e-07 -3.2352e-07 -0.00100001)
(-4.19089e-07 -3.20262e-07 -0.00100018)
(-1.44512e-07 -3.1794e-07 -0.00100028)
(-8.97041e-07 -5.15516e-07 -0.000999624)
(-8.11332e-07 -5.07992e-07 -0.000999901)
(-6.45708e-07 -5.01462e-07 -0.00100014)
(-4.15996e-07 -4.96542e-07 -0.00100031)
(-1.43451e-07 -4.93046e-07 -0.00100041)
(-8.88198e-07 -6.46218e-07 -0.000999811)
(-8.03218e-07 -6.36658e-07 -0.00100008)
(-6.39176e-07 -6.28482e-07 -0.00100032)
(-4.11787e-07 -6.22401e-07 -0.00100049)
(-1.42021e-07 -6.18095e-07 -0.00100058)
(-8.77706e-07 -7.11755e-07 -0.00100003)
(-7.93605e-07 -7.01154e-07 -0.0010003)
(-6.31557e-07 -6.92108e-07 -0.00100053)
(-4.06937e-07 -6.85436e-07 -0.0010007)
(-1.40381e-07 -6.80723e-07 -0.00100079)
(-1.23684e-06 -1.56824e-07 -0.000999197)
(-1.12025e-06 -1.5421e-07 -0.000999582)
(-8.92945e-07 -1.51872e-07 -0.000999912)
(-5.76061e-07 -1.50062e-07 -0.00100015)
(-1.98792e-07 -1.48794e-07 -0.00100029)
(-1.23351e-06 -4.54145e-07 -0.0009993)
(-1.11701e-06 -4.46773e-07 -0.000999682)
(-8.90175e-07 -4.40201e-07 -0.00100001)
(-5.74157e-07 -4.35128e-07 -0.00100025)
(-1.98107e-07 -4.31575e-07 -0.00100038)
(-1.22408e-06 -7.03037e-07 -0.000999488)
(-1.10818e-06 -6.91765e-07 -0.000999867)
(-8.82855e-07 -6.81822e-07 -0.00100019)
(-5.69312e-07 -6.74219e-07 -0.00100043)
(-1.9643e-07 -6.68915e-07 -0.00100056)
(-1.21088e-06 -8.79953e-07 -0.000999745)
(-1.09595e-06 -8.65715e-07 -0.00100012)
(-8.72862e-07 -8.53352e-07 -0.00100044)
(-5.62789e-07 -8.44006e-07 -0.00100067)
(-1.94196e-07 -8.37515e-07 -0.0010008)
(-1.19512e-06 -9.67542e-07 -0.00100004)
(-1.08159e-06 -9.5148e-07 -0.00100041)
(-8.61293e-07 -9.3777e-07 -0.00100072)
(-5.55308e-07 -9.27586e-07 -0.00100095)
(-1.91649e-07 -9.20521e-07 -0.00100108)
(-1.69003e-06 -2.14384e-07 -0.000998903)
(-1.53329e-06 -2.10433e-07 -0.000999429)
(-1.22452e-06 -2.06803e-07 -0.000999883)
(-7.91452e-07 -2.03907e-07 -0.00100022)
(-2.73418e-07 -2.01904e-07 -0.0010004)
(-1.68478e-06 -6.20957e-07 -0.000999043)
(-1.528e-06 -6.0986e-07 -0.000999567)
(-1.21984e-06 -5.99716e-07 -0.00100002)
(-7.88143e-07 -5.91654e-07 -0.00100035)
(-2.72214e-07 -5.86062e-07 -0.00100053)
(-1.67077e-06 -9.60303e-07 -0.000999303)
(-1.51457e-06 -9.43396e-07 -0.000999821)
(-1.20841e-06 -9.28171e-07 -0.00100027)
(-7.80366e-07 -9.16223e-07 -0.00100059)
(-2.69474e-07 -9.0796e-07 -0.00100077)
(-1.65116e-06 -1.19974e-06 -0.000999655)
(-1.49608e-06 -1.17846e-06 -0.00100016)
(-1.19299e-06 -1.15973e-06 -0.0010006)
(-7.70071e-07 -1.14524e-06 -0.00100092)
(-2.65894e-07 -1.1353e-06 -0.0010011)
(-1.6277e-06 -1.31596e-06 -0.00100006)
(-1.47457e-06 -1.2917e-06 -0.00100056)
(-1.17539e-06 -1.27097e-06 -0.00100099)
(-7.58478e-07 -1.25533e-06 -0.00100131)
(-2.61907e-07 -1.24469e-06 -0.00100148)
(-2.30956e-06 -2.93391e-07 -0.000998496)
(-2.10062e-06 -2.87361e-07 -0.000999218)
(-1.68255e-06 -2.81608e-07 -0.000999844)
(-1.09077e-06 -2.76831e-07 -0.00100031)
(-3.77446e-07 -2.7355e-07 -0.00100057)
(-2.30134e-06 -8.51e-07 -0.000998689)
(-2.0919e-06 -8.34196e-07 -0.000999406)
(-1.67448e-06 -8.18303e-07 -0.00100003)
(-1.08486e-06 -8.05088e-07 -0.00100049)
(-3.7526e-07 -7.95913e-07 -0.00100075)
(-2.28074e-06 -1.31451e-06 -0.00099905)
(-2.0713e-06 -1.28904e-06 -0.000999759)
(-1.65624e-06 -1.26548e-06 -0.00100037)
(-1.07191e-06 -1.24621e-06 -0.00100082)
(-3.70569e-07 -1.23289e-06 -0.00100107)
(-2.25184e-06 -1.63846e-06 -0.000999533)
(-2.04316e-06 -1.60662e-06 -0.00100023)
(-1.63209e-06 -1.57818e-06 -0.00100083)
(-1.05526e-06 -1.55539e-06 -0.00100127)
(-3.64675e-07 -1.53986e-06 -0.00100151)
(-2.21759e-06 -1.79125e-06 -0.00100009)
(-2.01104e-06 -1.75476e-06 -0.00100078)
(-1.60529e-06 -1.72372e-06 -0.00100136)
(-1.03712e-06 -1.69952e-06 -0.00100179)
(-3.58362e-07 -1.68347e-06 -0.00100203)
(-3.15571e-06 -4.0139e-07 -0.000997933)
(-2.88123e-06 -3.91925e-07 -0.000998925)
(-2.31819e-06 -3.82525e-07 -0.00099979)
(-1.51025e-06 -3.74333e-07 -0.00100045)
(-5.23842e-07 -3.68715e-07 -0.00100082)
(-3.14279e-06 -1.16998e-06 -0.000998193)
(-2.86643e-06 -1.14418e-06 -0.000999177)
(-2.30385e-06 -1.11883e-06 -0.00100003)
(-1.49932e-06 -1.09624e-06 -0.00100068)
(-5.1973e-07 -1.08037e-06 -0.00100104)
(-3.11319e-06 -1.80451e-06 -0.000998705)
(-2.83459e-06 -1.7658e-06 -0.000999675)
(-2.27399e-06 -1.72892e-06 -0.00100052)
(-1.47663e-06 -1.69664e-06 -0.00100115)
(-5.11204e-07 -1.67423e-06 -0.0010015)
(-3.07091e-06 -2.24254e-06 -0.000999366)
(-2.79123e-06 -2.19495e-06 -0.00100032)
(-2.23528e-06 -2.15197e-06 -0.00100114)
(-1.44885e-06 -2.11518e-06 -0.00100175)
(-5.01224e-07 -2.09025e-06 -0.00100208)
(-3.02263e-06 -2.442e-06 -0.00100015)
(-2.74405e-06 -2.38689e-06 -0.00100108)
(-2.1946e-06 -2.34141e-06 -0.00100188)
(-1.41989e-06 -2.3035e-06 -0.00100247)
(-4.90974e-07 -2.27942e-06 -0.0010028)
(-4.3092e-06 -5.46127e-07 -0.000997145)
(-3.95798e-06 -5.30407e-07 -0.000998518)
(-3.20617e-06 -5.1431e-07 -0.000999713)
(-2.10583e-06 -4.99627e-07 -0.00100066)
(-7.32651e-07 -4.8972e-07 -0.00100119)
(-4.28829e-06 -1.61646e-06 -0.000997479)
(-3.93147e-06 -1.57568e-06 -0.000998835)
(-3.17961e-06 -1.53465e-06 -0.00100001)
(-2.08508e-06 -1.49395e-06 -0.00100094)
(-7.24816e-07 -1.46464e-06 -0.00100146)
(-4.24796e-06 -2.48772e-06 -0.000998238)
(-3.88212e-06 -2.4272e-06 -0.00099957)
(-3.12937e-06 -2.36874e-06 -0.00100073)
(-2.04255e-06 -2.31172e-06 -0.00100162)
(-7.07989e-07 -2.27203e-06 -0.00100211)
(-4.18585e-06 -3.07925e-06 -0.000999128)
(-3.81302e-06 -3.00733e-06 -0.00100042)
(-3.06495e-06 -2.94325e-06 -0.00100154)
(-1.99445e-06 -2.8814e-06 -0.00100239)
(-6.90811e-07 -2.8399e-06 -0.00100286)
(-4.12278e-06 -3.34048e-06 -0.00100024)
(-3.74617e-06 -3.25513e-06 -0.00100151)
(-3.00398e-06 -3.1922e-06 -0.00100262)
(-1.94629e-06 -3.13082e-06 -0.00100343)
(-6.73239e-07 -3.09559e-06 -0.00100387)
(-5.87668e-06 -7.26123e-07 -0.000996032)
(-5.44926e-06 -6.97246e-07 -0.000997965)
(-4.45795e-06 -6.67487e-07 -0.000999602)
(-2.96861e-06 -6.40242e-07 -0.001001)
(-1.03565e-06 -6.23526e-07 -0.00100178)
(-5.83921e-06 -2.25352e-06 -0.000996394)
(-5.39733e-06 -2.18512e-06 -0.000998286)
(-4.40622e-06 -2.11907e-06 -0.000999881)
(-2.92973e-06 -2.04124e-06 -0.00100124)
(-1.02179e-06 -1.98281e-06 -0.00100201)
(-5.79301e-06 -3.45293e-06 -0.000997633)
(-5.32253e-06 -3.35093e-06 -0.00099948)
(-4.32042e-06 -3.25776e-06 -0.00100106)
(-2.84181e-06 -3.14977e-06 -0.00100234)
(-9.84137e-07 -3.0754e-06 -0.00100302)
(-5.69606e-06 -4.24729e-06 -0.000998749)
(-5.20287e-06 -4.13372e-06 -0.0010005)
(-4.20619e-06 -4.04155e-06 -0.00100201)
(-2.75633e-06 -3.93085e-06 -0.00100321)
(-9.5599e-07 -3.8585e-06 -0.00100387)
(-5.63121e-06 -4.60549e-06 -0.00100044)
(-5.11685e-06 -4.46224e-06 -0.00100217)
(-4.1183e-06 -4.39049e-06 -0.00100369)
(-2.66906e-06 -4.28349e-06 -0.00100482)
(-9.21727e-07 -4.23688e-06 -0.00100541)
(-7.9948e-06 -8.96868e-07 -0.000994409)
(-7.52849e-06 -8.38678e-07 -0.000997261)
(-6.24118e-06 -7.79038e-07 -0.000999419)
(-4.25714e-06 -7.28687e-07 -0.00100161)
(-1.48352e-06 -7.06706e-07 -0.00100277)
(-7.91645e-06 -3.20524e-06 -0.000994588)
(-7.41842e-06 -3.07605e-06 -0.000997359)
(-6.13728e-06 -2.97787e-06 -0.000999419)