# vtk DataFile Version 4.0
Generated by LIGGGHTS
ASCII
DATASET POLYDATA
POINTS 1130 float
-4.99797 -4.22742 0.500291 -2.89339 -4.06921 0.548283 -1.83906 -4.14301 0.499997 
-0.844391 -4.60619 0.499981 0.10615 -4.91667 0.499975 1.27334 -4.06987 0.500378 
1.64185 -4.99945 0.500051 2.42947 -4.49365 0.851952 3.29536 -4.84963 0.500115 
4.02479 -3.99937 0.499954 -4.39846 -3.42833 0.649546 -3.43043 -3.22704 0.499998 
-2.29974 -3.25363 0.500084 -0.982448 -3.61581 0.501197 0.276437 -3.83207 0.49999 
1.32376 -3.07119 0.500026 2.8497 -3.65719 0.499996 3.64881 -3.05593 0.499994 
4.63742 -3.20902 0.500062 -4.09987 -2.48177 0.499992 -2.89704 -2.38117 0.5002 
-1.4644 -2.79084 0.796782 -0.904777 -2.01491 0.500249 -0.332024 -2.85567 0.500187 
0.622374 -2.35767 0.499994 2.28956 -2.61739 0.49992 3.18511 -2.16944 0.499716 
-4.80578 -1.77351 0.504239 -3.42362 -1.56745 0.747199 -1.97835 -1.98597 0.500022 
-0.639643 -1.04945 0.500181 0.305325 -1.40927 0.500116 1.29029 -1.6009 0.500002 
2.98713 -1.10071 0.50083 2.28873 -1.69889 0.895084 4.19109 -1.89161 0.500214 
-4.06534 -0.833512 0.500088 -2.96845 -0.692455 0.499997 -1.96983 -0.947616 0.500013 
-0.72624 -0.0683003 0.673231 0.984662 -0.648738 0.500075 2.02719 -0.818376 0.499936 
2.77442 -0.123569 0.499938 3.96974 -0.915106 0.499938 4.94741 -0.822219 0.689793 
-4.63418 0.0699905 0.500094 -3.64392 0.0626625 0.639083 -2.68072 0.292598 0.499916 
-1.70771 0.017417 0.500889 0.178049 0.321886 0.499995 1.17799 0.33255 0.500004 
2.09832 0.529957 0.840024 2.97737 0.865231 0.500033 3.75693 0.0621955 0.499947 
4.50443 0.727641 0.501117 -4.26262 1.1892 0.499997 -3.41612 1.89279 0.499907 
-2.44414 1.26423 0.499994 -1.46929 1.50393 0.499997 -0.521395 1.13485 0.499972 
0.461984 1.31614 0.499975 1.4061 1.25134 0.823 2.29009 1.59209 0.500021 
3.81285 1.52846 0.500053 -4.39249 2.24702 0.500475 -3.65483 2.93537 0.499989 
-2.44171 2.26433 0.499999 -1.46497 2.43486 0.865854 -0.584664 2.13285 0.49997 
0.302192 2.59537 0.501205 1.22547 2.21091 0.499997 2.15512 2.58388 0.499915 
3.12085 2.32403 0.500419 4.55841 2.19495 0.500011 -4.23236 3.78084 0.499996 
-4.95458 3.08281 0.509674 -3.23807 3.836 0.623122 -1.30193 3.36214 0.507121 
-0.302535 3.39602 0.500118 1.57182 3.39613 0.500012 2.60705 3.4759 0.499981 
4.0165 3.03577 0.499983 -4.71929 4.81108 0.499976 -3.72544 4.70045 0.499998 
-2.75383 4.93955 0.50009 -2.26525 4.03245 0.500717 -1.67842 4.84214 0.50004 
-0.864282 4.26129 0.500061 0.881689 4.35081 0.499999 2.50853 4.48943 0.499997 
3.65463 4.09224 0.499987 4.27628 4.95451 0.500274 4.65428 4.02845 0.500588 
-4.34926 -4.58878 1.20911 -3.34364 -4.75729 1.24869 -2.17867 -4.72777 1.25164 
-1.27167 -4.31908 1.35729 -0.250779 -4.21343 1.25933 0.764555 -4.7203 1.22651 
1.59476 -4.20454 1.43784 3.3511 -4.15252 1.22288 3.98132 -4.62276 1.84067 
-4.57701 -3.61911 1.69873 -3.70574 -3.82464 1.25314 -2.75677 -3.96309 1.53653 
-1.88643 -3.48345 1.38251 -0.89426 -3.39788 1.47313 0.802063 -3.48676 1.27788 
1.59445 -3.02568 1.87646 2.51951 -3.99487 1.75536 2.07426 -3.40404 1.07845 
3.80136 -3.36129 1.64577 4.54785 -3.95982 1.35131 -4.8642 -2.75433 1.23821 
-3.87214 -2.84209 1.42062 -2.85973 -2.99886 1.2889 -1.78889 -2.20976 1.72808 
-0.776065 -2.40653 1.41195 0.186346 -2.68464 1.33842 0.780867 -2.12381 1.91508 
1.41325 -2.33364 1.16932 2.25825 -2.29794 1.70385 2.9581 -2.85469 1.22317 
3.91372 -2.43126 1.29544 -4.25652 -1.42045 1.28687 -3.49708 -1.93741 1.68513 
-2.59081 -1.82172 1.27356 -2.60982 -1.02007 1.87103 -1.42777 -1.47129 1.15729 
-0.0559722 -1.71337 1.38165 0.79417 -1.18821 1.34413 1.7643 -1.20164 1.58616 
3.1119 -1.84706 1.44317 4.01086 -1.41628 1.36423 4.89922 -1.4235 1.82318 
-4.4746 -0.375372 1.38124 -3.15958 -0.185016 1.74481 -2.33416 -0.33254 1.19924 
-1.37041 -0.210039 1.43616 -0.665578 -0.917161 1.49206 0.112526 -0.553381 0.979985 
1.583 -0.260996 1.20132 2.5322 -0.610882 1.33879 3.75908 -0.322183 1.83827 
4.47508 -0.073914 1.1823 -4.84505 0.674139 1.26853 -3.90678 0.443015 1.52576 
-3.31688 0.98501 0.907609 -2.20551 0.69022 1.28462 -1.23205 0.704662 1.05653 
-0.55058 0.245585 1.78293 0.0296102 0.902532 1.30146 0.690827 0.156648 1.38173 
1.52273 0.576013 1.74509 2.85094 0.328304 1.46728 3.6952 0.790612 1.1925 
4.38291 0.642604 1.90332 -4.5891 1.90077 1.41882 -3.6 1.76537 1.47443 
-2.07812 1.76326 1.28549 -2.78813 1.29803 1.82398 -1.55565 1.15854 1.88684 
-0.87693 1.60961 1.30599 0.076524 1.8979 1.21711 1.22528 1.98354 1.47956 
2.33144 1.16067 1.68116 3.08331 1.5905 1.18123 4.54493 1.46155 1.17996 
-4.28417 2.87348 1.27469 -3.05766 2.58284 1.22045 -1.58539 2.37439 1.90495 
-0.427445 2.76051 1.26233 0.541062 2.70579 1.58025 1.61033 2.89956 1.3672 
2.21999 2.10637 1.37604 3.07521 2.34669 1.8356 3.84701 2.23873 1.20353 
4.7467 2.64673 1.37208 -4.86954 3.49766 1.79298 -3.50556 3.45566 1.50844 
-2.18045 3.13093 0.925117 -2.54326 3.51735 1.773 -1.27795 3.23664 1.50122 
-0.000835872 3.53918 1.72219 0.709951 3.49993 0.996489 1.99883 3.89648 1.2532 
2.48118 3.18572 1.76695 3.2695 3.06192 1.16427 4.26188 3.57765 1.30397 
-4.48346 4.29287 1.32218 -3.59312 4.41976 1.75949 -2.67977 4.41121 1.34586 
-1.56889 4.14979 1.21363 -1.5302 4.87479 1.90147 -0.710532 4.82543 1.31182 
-0.87214 4.05263 1.92558 0.00955995 4.21362 0.983964 0.180756 4.71517 1.8321 
1.1033 4.37185 1.47874 1.977 4.8707 1.47779 2.9701 4.97799 1.53717 
2.99085 4.02199 1.2446 3.86229 4.48968 1.39576 4.77229 4.96089 1.36879 
-4.82022 -4.49985 2.10578 -4.27885 -4.79017 2.89483 -3.80107 -4.40983 2.07792 
-2.76203 -4.8222 2.0595 -2.67232 -4.13386 2.77927 -1.95229 -4.23581 2.09252 
-0.543246 -4.64493 2.14339 0.409634 -4.34412 2.08234 1.27039 -4.85098 2.12836 
2.92091 -4.59995 2.44304 4.42367 -4.78063 2.72347 -4.11219 -3.71171 2.77455 
-3.38705 -3.46175 2.12992 -2.38755 -3.34374 2.23651 -1.07884 -3.82874 2.36012 
-0.0825245 -3.92242 2.84381 -0.0170445 -3.44935 1.95044 1.25305 -3.85871 2.31272 
2.66161 -3.09227 2.1617 2.17159 -3.98737 2.69488 3.65161 -3.91755 2.46828 
4.61615 -3.70067 2.31471 -4.71035 -2.97421 2.45125 -4.43986 -2.16667 1.92715 
-3.7284 -2.59206 2.48651 -2.70618 -2.40564 2.07914 -2.01437 -2.58826 2.77776 
-1.20752 -2.84065 2.2421 -1.18206 -2.05713 2.93764 -0.149236 -2.50463 2.26306 
0.747899 -2.99599 2.40794 0.740562 -2.12959 2.91465 1.64035 -2.16152 2.47912 
2.05321 -2.96244 2.94483 3.43063 -2.45299 2.17207 4.587 -2.39418 2.03503 
4.0813 -2.96594 2.73213 -4.72167 -1.65891 2.75794 -3.39007 -1.14609 2.48368 
-2.16657 -1.62621 2.53416 -1.58785 -0.990652 2.02212 -0.742681 -1.69575 2.11479 
0.517031 -1.29194 2.40357 1.60166 -1.15275 2.57156 2.68762 -1.87275 2.50745 
3.09768 -1.04523 2.04028 3.44324 -1.31631 2.93895 4.3424 -1.07208 2.57576 
-4.32396 -0.922546 2.20468 -3.145 -0.212357 2.74453 -2.24014 -0.646833 2.72778 
-0.406956 -0.0560058 2.72549 -0.882067 -0.936471 2.75036 0.0994366 -0.488559 1.97911 
0.545491 -0.357539 2.88232 1.10288 -0.455451 2.0567 2.19185 -0.0546978 2.13839 
2.81753 -0.47926 2.81564 3.81639 -0.279535 2.88426 4.8446 -0.223952 2.09926 
-4.23753 0.0671914 2.41816 -4.93006 1.02523 2.52204 -3.62472 0.864048 2.38778 
-2.07406 0.0954397 2.07828 -2.66589 0.696302 2.61669 -1.09829 0.659152 2.62283 
0.849615 0.576716 2.48457 2.37879 0.856252 2.63251 3.21167 0.353459 2.40045 
3.9687 0.885157 2.78063 -4.2214 1.70381 2.3285 -3.25365 1.77562 2.57005 
-2.26115 1.65117 2.5969 -1.26748 1.75589 2.63525 -0.400701 1.20312 2.15613 
0.585368 1.39376 1.97216 0.147272 1.69055 2.83747 1.54889 1.43801 2.25313 
3.16094 1.33564 2.21238 4.11778 1.59188 2.07512 -4.644 2.59533 2.16532 
-3.59087 2.57132 2.06628 -2.58792 2.45209 2.09358 -0.564332 2.18684 2.06983 
0.0850588 2.83938 2.46015 0.885831 2.24267 2.40816 1.8688 2.38523 2.26982 
2.74594 2.29297 2.78048 3.73043 2.35742 2.59099 -4.0434 3.41651 2.35052 
-3.16034 3.86939 2.47698 -2.39866 3.21273 2.7145 -0.886785 3.08117 2.42967 
1.04745 3.48426 1.95139 1.73841 3.28755 2.68075 2.71802 3.49347 2.6885 
3.45201 3.58177 2.01499 4.29446 3.06245 2.16107 4.11357 3.88427 2.70127 
-4.4226 4.22473 2.80093 -3.3726 4.80511 2.7588 -2.28851 4.3298 2.29725 
-1.39046 4.34005 2.73671 -0.430125 4.6108 2.80162 0.525506 4.95989 2.79127 
0.332286 4.01084 2.53846 1.55467 4.22655 2.38941 2.50656 4.2686 2.08445 
3.50846 4.59961 2.32485 4.81138 4.3694 2.17425 -4.96545 -4.10336 3.13339 
-4.83311 -4.82273 3.81787 -3.50129 -4.31899 3.31118 -1.87355 -4.44584 3.29375 
-0.883006 -4.43378 3.15663 0.256551 -4.64165 3.66841 1.49233 -4.92634 3.10079 
1.83082 -4.40952 3.88732 2.50381 -4.87367 3.31134 3.47766 -4.49598 3.26764 
-4.88434 -3.27984 3.69477 -3.71895 -3.34191 3.61866 -2.84479 -3.21577 3.1362 
-2.68589 -3.9928 3.78993 -1.68625 -3.4844 3.0766 -0.38905 -3.69664 3.77279 
-0.616888 -3.09339 3.00841 0.84649 -3.92055 3.2248 2.56292 -3.79282 3.59433 
3.1618 -3.23855 3.01511 4.12927 -3.74162 3.36158 -4.34012 -2.55131 3.27833 
-3.40244 -2.25968 3.94586 -2.97164 -2.22887 3.02996 -2.16548 -2.00847 3.5791 
-1.33833 -2.74209 3.64925 -0.203102 -2.46406 3.66992 1.12987 -2.95669 3.33126 
2.06843 -2.4858 3.88542 3.42894 -2.28774 3.17577 3.0099 -2.82408 3.9127 
4.36604 -2.02068 2.94953 4.29311 -2.71149 3.67565 -3.80872 -1.70743 3.19767 
-2.79312 -1.27628 3.27611 -1.65455 -1.18425 3.33503 -0.193269 -1.77324 2.94672 
0.930671 -1.19626 3.31169 0.14983 -1.51494 3.84983 1.70153 -1.00824 3.93222 
2.06574 -1.69682 3.27056 2.88039 -1.78456 3.84389 4.25753 -1.01446 3.57045 
-4.82641 -0.545922 2.98693 -4.62599 -0.953153 3.87793 -3.86977 -0.695517 3.23661 
-2.4626 -0.0433022 3.49361 -1.43076 -0.16947 3.08406 -0.115647 -0.359612 3.63262 
-0.839248 -1.00215 3.88464 1.88273 -0.395068 3.16044 3.18808 -0.523291 3.80175 
-4.3531 0.235329 3.39718 -3.36061 0.569043 3.33293 -1.88324 0.732295 3.23801 
-0.801234 0.371895 3.64137 0.118337 0.676008 3.1593 0.946398 0.0511318 3.70263 
1.70405 0.576525 3.31547 2.92849 0.345334 3.37043 3.82404 0.875306 3.77009 
4.64244 0.169288 3.46043 -4.13869 1.18859 3.1819 -2.69781 1.3293 3.43703 
-1.76934 1.69998 3.49847 -0.657582 1.29507 3.27985 0.342416 1.39652 3.8237 
1.04603 1.35004 3.11371 1.88941 1.92327 3.16285 2.54028 1.2498 3.5462 
[...]
POINT_DATA 1130
FIELD FieldData 7
id 1 1130 int
48 62 69 126 50 115 30 89 31 
29 120 60 12 7 23 28 51 64 
24 49 79 129 104 11 56 59 14 
20 99 45 1 18 22 78 82 109 
27 15 19 105 26 4 86 43 67 
54 65 37 80 16 35 110 2 114 
46 33 3 71 21 42 55 119 53 
97 52 94 8 84 25 13 6 63 
47 36 9 81 87 40 34 44 5 
41 58 57 17 10 88 32 39 72 
76 112 38 161 165 151 214 77 106 
168 136 231 166 127 284 210 220 100 
157 213 93 197 123 103 194 172 174 
132 83 180 102 160 70 135 164 217 
155 191 61 85 150 207 159 66 196 
139 258 117 169 147 98 91 158 309 
130 101 167 108 143 73 125 113 124 
171 215 137 193 68 153 133 190 187 
146 74 131 186 163 128 134 142 203 
122 173 154 138 175 95 211 162 222 
118 185 121 144 96 116 235 92 170 
107 178 152 111 267 141 206 90 148 
75 156 198 149 192 145 260 291 189 
263 321 244 195 199 221 316 336 333 
280 266 281 255 140 253 245 322 233 
205 262 212 272 225 312 248 324 249 
289 298 228 318 247 223 282 234 274 
283 184 204 285 279 241 179 354 313 
224 359 264 188 257 227 230 177 181 
269 369 270 208 271 265 216 250 277 
238 273 256 331 176 326 259 232 226 
218 311 239 261 236 219 243 183 200 
276 240 201 297 293 252 325 314 182 
209 275 327 242 278 306 292 376 229 
328 290 320 237 268 202 332 251 346 
431 349 380 310 377 398 428 364 341 
389 422 350 404 348 371 303 343 339 
319 344 288 400 375 384 420 330 342 
433 287 432 302 356 335 323 360 254 
329 378 440 305 391 401 295 503 368 
358 317 337 419 355 383 373 338 308 
361 301 421 387 334 424 435 304 372 
299 393 347 294 340 367 300 352 379 
353 418 374 403 315 366 246 362 286 
357 388 385 296 406 390 381 345 445 
392 409 413 425 363 382 416 397 410 
307 365 351 386 468 484 426 446 478 
396 477 501 456 455 500 399 443 405 
457 482 481 417 448 460 411 465 555 
488 370 442 490 462 472 402 427 453 
434 415 458 439 444 408 471 493 414 
474 437 475 407 469 470 463 429 449 
447 394 452 412 450 479 489 461 497 
438 454 459 473 430 486 395 466 496 
451 487 423 491 495 436 494 502 464 
441 467 476 539 542 536 492 507 544 
533 485 556 510 549 550 534 498 537 
499 480 554 512 524 531 519 543 483 
546 504 551 520 516 558 513 557 514 
518 553 529 505 508 538 548 528 515 
535 506 527 517 525 522 552 509 541 
521 526 599 511 545 523 530 532 575 
547 540 615 616 611 569 572 608 570 
563 581 568 593 564 614 573 596 567 
591 609 600 574 577 617 598 562 584 
578 565 602 576 589 571 586 588 582 
587 579 595 610 607 594 580 647 561 
560 605 612 601 613 559 566 583 597 
585 603 639 604 606 590 592 659 642 
643 669 631 661 672 626 648 668 636 
633 654 634 670 665 658 675 618 651 
676 630 646 624 664 653 660 627 635 
621 640 674 671 619 662 629 673 656 
644 666 622 628 620 650 623 652 667 
638 645 727 632 655 649 625 716 679 
641 721 714 663 657 704 637 723 692 
728 686 680 709 718 722 699 696 703 
720 697 724 702 717 719 700 682 713 
698 690 683 706 712 677 729 685 711 
710 687 694 726 707 695 708 725 689 
678 684 705 715 693 786 688 691 681 
701 745 774 733 750 735 738 732 780 
767 752 769 740 775 742 766 739 736 
737 781 759 773 762 787 761 754 771 
784 756 779 778 748 765 753 757 760 
731 730 747 749 804 741 822 825 764 
777 744 802 770 755 772 746 743 768 
734 782 809 783 785 845 758 763 751 
776 817 837 807 800 831 833 899 828 
835 798 844 832 791 808 818 834 846 
823 821 810 836 788 820 815 829 794 
842 806 811 795 805 843 789 827 792 
841 812 813 839 793 803 801 814 819 
799 816 830 840 796 790 797 824 826 
838 886 862 879 854 880 851 876 881 
865 884 897 874 875 869 849 860 870 
853 848 856 891 878 892 864 866 863 
872 896 857 858 889 867 873 890 885 
882 888 847 855 877 871 852 861 895 
893 859 887 850 894 883 898 868 938 
929 950 903 957 943 940 947 914 939 
932 905 924 913 942 930 907 917 954 
906 910 918 911 919 916 953 958 904 
920 935 986 926 951 990 937 941 915 
997 989 925 934 909 959 948 998 952 
901 955 949 900 921 967 928 946 976 
923 956 922 912 908 1003 931 927 973 
944 1002 983 964 933 936 945 902 1005 
987 1012 1041 969 1010 1014 972 995 1000 
968 971 978 975 1067 961 960 982 984 
1006 1034 981 1065 1025 1028 1009 1038 966 
988 1007 974 1011 993 1016 979 1053 1068 
1004 992 977 991 999 985 965 1008 1013 
970 1048 963 980 1001 962 994 1037 1015 
996 1024 1029 1119 1039 1054 1020 1045 1027 
1058 1043 1030 1073 1032 1021 1071 1026 1076 
1023 1066 1022 1052 1018 1070 1063 1061 1035 
1095 1056 1050 1059 1093 1049 1069 1055 1017 
1047 1040 1116 1019 1057 1087 1051 1033 1064 
1079 1036 1031 1060 1042 1046 1062 1044 1098 
1104 1099 1074 1127 1121 1108 1077 1125 1122 
1103 1126 1080 1107 1090 1081 1089 1072 1092 
1084 1097 1088 1118 1101 1086 1128 1100 1112 
1110 1117 1085 1120 1113 1082 1096 1123 1111 
1078 1115 1106 1124 1083 1075 1102 1091 1109 
1094 1114 1105 1130 1129 
type 1 1130 int
1 1 1 1 1 1 1 1 1 
1 1 1 1 1 1 1 1 1 
1 1 1 1 1 1 1 1 1 
1 1 1 1 1 1 1 1 1 
1 1 1 1 1 1 1 1 1 
1 1 1 1 1 1 1 1 1 
1 1 1 1 1 1 1 1 1 
1 1 1 1 1 1 1 1 1 
1 1 1 1 1 1 1 1 1 
1 1 1 1 1 1 1 1 1 
1 1 1 1 1 1 1 1 1 
1 1 1 1 1 1 1 1 1 
1 1 1 1 1 1 1 1 1 
1 1 1 1 1 1 1 1 1 
1 1 1 1 1 1 1 1 1 
1 1 1 1 1 1 1 1 1 
1 1 1 1 1 1 1 1 1 
1 1 1 1 1 1 1 1 1 
1 1 1 1 1 1 1 1 1 
1 1 1 1 1 1 1 1 1 
1 1 1 1 1 1 1 1 1 
1 1 1 1 1 1 1 1 1 
1 1 1 1 1 1 1 1 1 
1 1 1 1 1 1 1 1 1 
1 1 1 1 1 1 1 1 1 
1 1 1 1 1 1 1 1 1 
1 1 1 1 1 1 1 1 1 
1 1 1 1 1 1 1 1 1 
1 1 1 1 1 1 1 1 1 
1 1 1 1 1 1 1 1 1 
1 1 1 1 1 1 1 1 1 
1 1 1 1 1 1 1 1 1 
1 1 1 1 1 1 1 1 1 
1 1 1 1 1 1 1 1 1 
1 1 1 1 1 1 1 1 1 
1 1 1 1 1 1 1 1 1 
1 1 1 1 1 1 1 1 1 
1 1 1 1 1 1 1 1 1 
1 1 1 1 1 1 1 1 1 
1 1 1 1 1 1 1 1 1 
1 1 1 1 1 1 1 1 1 
1 1 1 1 1 1 1 1 1 
1 1 1 1 1 1 1 1 1 
1 1 1 1 1 1 1 1 1 
1 1 1 1 1 1 1 1 1 
1 1 1 1 1 1 1 1 1 
1 1 1 1 1 1 1 1 1 
1 1 1 1 1 1 1 1 1 
1 1 1 1 1 1 1 1 1 
1 1 1 1 1 1 1 1 1 
1 1 1 1 1 1 1 1 1 
1 1 1 1 1 1 1 1 1 
1 1 1 1 1 1 1 1 1 
1 1 1 1 1 1 1 1 1 
1 1 1 1 1 1 1 1 1 
1 1 1 1 1 1 1 1 1 
1 1 1 1 1 1 1 1 1 
1 1 1 1 1 1 1 1 1 
1 1 1 1 1 1 1 1 1 
1 1 1 1 1 1 1 1 1 
1 1 1 1 1 1 1 1 1 
1 1 1 1 1 1 1 1 1 
1 1 1 1 1 1 1 1 1 
1 1 1 1 1 1 1 1 1 
1 1 1 1 1 1 1 1 1 
1 1 1 1 1 1 1 1 1 
1 1 1 1 1 1 1 1 1 
1 1 1 1 1 1 1 1 1 
1 1 1 1 1 1 1 1 1 
1 1 1 1 1 1 1 1 1 
1 1 1 1 1 1 1 1 1 
1 1 1 1 1 1 1 1 1 
1 1 1 1 1 1 1 1 1 
1 1 1 1 1 1 1 1 1 
1 1 1 1 1 1 1 1 1 
1 1 1 1 1 1 1 1 1 
1 1 1 1 1 1 1 1 1 
1 1 1 1 1 1 1 1 1 
1 1 1 1 1 1 1 1 1 
1 1 1 1 1 1 1 1 1 
1 1 1 1 1 1 1 1 1 
1 1 1 1 1 1 1 1 1 
1 1 1 1 1 1 1 1 1 
1 1 1 1 1 1 1 1 1 
1 1 1 1 1 1 1 1 1 
1 1 1 1 1 1 1 1 1 
1 1 1 1 1 1 1 1 1 
1 1 1 1 1 1 1 1 1 
1 1 1 1 1 1 1 1 1 
1 1 1 1 1 1 1 1 1 
1 1 1 1 1 1 1 1 1 
1 1 1 1 1 1 1 1 1 
1 1 1 1 1 1 1 1 1 
1 1 1 1 1 1 1 1 1 
1 1 1 1 1 1 1 1 1 
1 1 1 1 1 1 1 1 1 
1 1 1 1 1 1 1 1 1 
1 1 1 1 1 1 1 1 1 
1 1 1 1 1 1 1 1 1 
1 1 1 1 1 1 1 1 1 
1 1 1 1 1 1 1 1 1 
1 1 1 1 1 1 1 1 1 
1 1 1 1 1 1 1 1 1 
1 1 1 1 1 1 1 1 1 
1 1 1 1 1 1 1 1 1 
1 1 1 1 1 1 1 1 1 
1 1 1 1 1 1 1 1 1 
1 1 1 1 1 1 1 1 1 
1 1 1 1 1 1 1 1 1 
1 1 1 1 1 1 1 1 1 
1 1 1 1 1 1 1 1 1 
1 1 1 1 1 1 1 1 1 
1 1 1 1 1 1 1 1 1 
1 1 1 1 1 1 1 1 1 
1 1 1 1 1 1 1 1 1 
1 1 1 1 1 1 1 1 1 
1 1 1 1 1 1 1 1 1 
1 1 1 1 1 1 1 1 1 
1 1 1 1 1 1 1 1 1 
1 1 1 1 1 1 1 1 1 
1 1 1 1 1 1 1 1 1 
1 1 1 1 1 1 1 1 1 
1 1 1 1 1 1 1 1 1 
1 1 1 1 1 1 1 1 1 
1 1 1 1 1 1 1 1 1 
1 1 1 1 1 
i 3 1130 int
0 0 0 0 0 0 0 0 0 
0 0 0 0 0 0 0 0 0 
0 1 0 0 0 0 0 0 0 
0 0 0 0 0 0 0 0 0 
0 0 0 0 0 0 0 0 0 
0 0 0 0 0 0 0 0 0 
0 0 0 0 0 0 0 0 0 
0 0 0 0 0 0 0 0 0 
0 0 0 0 0 0 0 0 0 
1 0 0 0 0 0 0 0 0 
0 0 0 0 0 0 0 0 0 
0 0 0 0 0 0 0 0 0 
0 0 0 0 0 0 0 0 0 
0 0 0 0 0 0 0 0 0 
0 0 0 0 0 0 -1 0 0 
0 0 0 0 0 0 0 0 0 
0 0 0 0 0 0 0 0 0 
0 0 0 0 0 0 0 0 0 
0 0 0 0 0 0 0 0 0 
0 0 0 0 0 0 0 0 0 
0 0 0 0 0 0 0 0 0 
0 0 0 0 0 0 0 0 0 
0 0 0 0 0 0 0 0 0 
0 0 0 0 0 0 0 0 0 
0 0 0 0 0 0 0 0 0 
1 0 0 0 0 0 0 0 0 
0 0 0 0 0 0 0 0 0 
0 0 0 0 0 0 0 0 0 
0 -1 0 0 0 0 0 -1 0 
0 0 0 0 0 0 0 0 0 
0 0 0 0 -1 0 0 0 0 
0 0 0 0 1 0 0 0 0 
0 0 0 0 0 0 0 0 0 
0 0 0 0 0 0 0 0 0 
0 0 0 0 0 0 0 0 0 
0 0 0 0 0 0 0 0 0 
0 0 0 0 0 0 0 0 0 
0 0 0 0 0 0 0 0 0 
0 0 0 0 0 0 0 0 0 
0 0 0 0 0 0 0 0 0 
0 0 0 0 0 0 0 0 0 
0 0 0 0 0 0 0 0 0 
0 0 0 0 0 0 0 0 0 
0 0 0 0 0 0 0 0 0 
0 0 0 0 0 0 0 0 0 
0 0 0 0 0 0 0 0 0 
0 0 0 0 0 0 0 0 0 
0 0 0 0 0 0 0 0 0 
0 0 0 0 0 0 0 0 0 
0 0 0 0 0 0 0 0 0 
0 0 0 0 0 0 0 0 0 
0 0 0 0 0 0 0 0 0 
0 0 0 0 0 0 0 0 0 
0 0 0 0 0 0 0 0 0 
0 0 0 0 0 0 0 0 0 
0 0 0 0 0 0 0 0 0 
0 0 0 0 0 0 0 0 0 
0 0 0 0 0 0 0 0 0 
0 0 0 0 0 0 0 0 0 
0 0 0 0 0 0 0 0 0 
0 0 0 0 0 0 0 0 0 
0 0 0 0 0 0 0 0 0 
0 0 0 0 0 0 0 0 0 
0 0 0 0 0 0 0 0 0 
0 0 0 0 0 0 0 0 0 
0 0 0 0 0 0 0 -1 0 
0 0 0 0 0 0 0 -1 0 
0 0 0 0 0 0 0 0 0 
0 0 0 0 0 0 0 0 0 
0 1 0 0 0 0 0 0 0 
0 0 0 0 0 0 0 0 0 
0 0 0 0 0 0 0 0 0 
0 0 0 0 0 0 0 0 0 
0 0 0 0 0 0 0 0 0 
0 0 0 0 0 0 0 0 0 
0 0 0 0 0 0 0 0 0 
0 0 0 0 0 0 0 0 0 
0 0 0 0 0 0 0 0 0 
0 0 0 0 0 0 0 0 0 
0 0 0 0 0 0 0 0 0 
0 0 0 0 0 0 0 0 0 
0 0 0 0 0 0 0 0 0 
0 0 0 0 0 0 0 0 0 
0 0 0 0 0 0 0 0 0 
0 0 0 0 0 0 0 0 0 
0 0 0 0 0 0 0 0 0 
0 0 0 0 0 0 0 0 0 
0 0 0 0 0 0 0 0 0 
0 0 0 0 0 0 0 0 0 
0 0 0 0 0 0 0 0 0 
0 0 0 0 0 0 0 0 0 
0 0 0 0 0 0 0 0 0 
0 0 0 0 0 0 0 0 0 
0 0 0 0 0 0 0 0 0 
0 0 0 0 0 0 0 0 0 
0 0 0 0 0 0 0 0 0 
0 0 0 0 0 0 0 0 0 
0 0 0 0 0 0 0 0 0 
0 0 0 0 0 0 0 0 0 
0 0 0 0 0 0 0 0 0 
0 0 0 0 0 0 0 0 0 
0 0 0 0 0 0 0 0 0 
0 0 0 0 0 0 0 -1 0 
0 0 0 0 0 0 0 0 0 
0 0 0 -1 0 0 0 0 0 
0 0 0 0 0 0 0 0 0 
0 0 0 0 0 0 0 0 0 
0 0 0 0 0 0 0 0 0 
0 0 0 0 0 0 0 0 0 
0 0 0 0 0 0 0 0 0 
0 0 0 0 0 0 0 0 0 
0 0 0 0 0 0 0 0 0 
0 0 0 0 0 0 0 0 0 
0 0 0 0 0 0 0 0 0 
0 0 0 0 0 0 0 0 0 
0 0 0 0 0 0 0 0 0 
0 0 0 0 0 0 0 0 0 
0 0 0 0 0 0 0 0 0 
0 0 0 0 0 0 0 0 0 
0 0 0 0 0 0 0 0 0 
0 0 0 0 0 0 0 0 0 
0 0 0 0 0 0 0 0 0 
0 0 0 0 0 0 0 0 0 
0 0 0 0 0 0 0 0 0 
0 0 0 0 0 0 0 0 0 
0 0 0 0 0 0 0 0 0 
0 0 0 0 0 0 0 0 0 
0 0 0 0 0 0 0 0 0 
0 0 0 0 0 0 0 0 0 
0 0 0 0 0 0 0 0 0 
0 0 0 0 0 0 0 0 0 
0 0 0 0 0 0 0 0 0 
0 0 0 0 0 0 0 0 0 
0 0 0 0 0 0 0 0 0 
0 0 0 0 0 0 0 0 0 
0 0 0 0 0 0 0 0 0 
0 0 0 0 0 0 0 0 0 
0 0 0 0 0 0 0 0 0 
0 0 0 0 0 0 0 0 0 
0 0 0 0 0 0 0 0 0 
0 0 0 0 0 0 0 0 0 
0 0 0 0 0 0 0 0 0 
0 0 0 0 0 0 0 0 0 
0 0 0 0 0 0 0 0 0 
0 0 0 0 0 0 0 0 0 
0 0 0 0 0 0 0 0 0 
0 0 0 0 0 0 0 0 0 
0 0 0 0 0 0 0 0 0 
0 0 0 0 0 0 0 0 0 
0 0 0 0 0 0 0 0 0 
0 0 0 0 0 0 0 0 0 
0 0 0 0 0 0 0 0 0 
0 0 0 0 0 0 0 0 0 
0 0 0 0 0 0 0 0 0 
0 0 0 0 0 0 0 0 0 
0 0 0 0 0 0 0 0 0 
0 0 0 0 0 0 0 0 0 
0 0 0 0 0 0 0 0 0 
0 0 0 0 0 0 0 0 0 
0 0 0 0 0 0 0 0 0 
0 0 0 0 0 0 0 0 0 
0 0 0 0 0 0 0 0 0 
0 0 0 0 0 0 0 0 0 
0 0 0 0 0 0 0 0 0 
0 0 0 0 0 0 0 0 0 
0 0 0 0 0 0 0 0 0 
0 0 0 0 0 0 0 0 0 
0 0 0 0 0 0 0 0 0 
0 0 0 0 0 0 0 0 0 
0 0 0 0 0 0 0 0 0 
0 0 0 0 0 0 0 0 0 
0 0 0 0 0 0 0 0 0 
0 0 0 0 0 0 0 0 0 
0 0 0 0 0 0 0 0 0 
0 0 0 0 0 0 0 0 0 
0 0 0 0 0 0 0 0 0 
0 0 0 0 0 0 0 0 0 
0 0 0 0 0 0 0 0 0 
0 0 0 0 0 0 0 0 0 
0 0 0 0 0 0 0 0 0 
0 0 0 0 0 0 0 0 0 
0 0 0 0 0 0 0 0 0 
0 0 0 0 0 0 0 0 0 
0 0 0 0 0 0 0 0 0 
0 0 0 0 0 0 0 0 0 
0 0 0 0 0 0 0 0 0 
0 0 0 0 0 0 0 0 0 
0 0 0 0 0 0 0 0 0 
0 0 0 0 0 0 0 0 0 
0 0 0 0 0 0 0 0 0 
0 0 0 0 0 0 0 0 0 
0 0 0 0 0 0 0 0 0 
0 0 0 0 0 0 0 0 0 
0 0 0 0 0 0 0 0 0 
0 0 0 0 0 0 0 0 0 
0 0 0 0 0 0 0 0 0 
0 0 0 0 0 0 0 0 0 
0 0 0 0 0 0 0 0 0 
0 0 0 0 0 0 0 0 0 
0 0 0 0 0 0 0 0 0 
0 0 0 0 0 0 0 0 0 
0 0 0 0 0 0 0 0 0 
0 0 0 0 0 0 0 0 0 
0 0 0 0 0 0 0 0 0 
0 0 0 0 0 0 0 0 0 
0 0 0 0 0 0 0 0 0 
0 0 0 0 0 0 0 0 0 
0 0 0 0 0 0 0 0 0 
0 0 0 0 0 0 0 0 0 
0 0 0 0 0 0 0 0 0 
0 0 0 0 0 0 0 0 0 
0 0 0 0 0 0 0 0 0 
0 0 0 0 0 0 0 0 0 
0 0 0 0 0 0 0 0 0 
0 0 0 0 0 0 0 0 0 
0 0 0 0 0 0 0 0 0 
0 0 0 0 0 0 0 0 0 
0 0 0 0 0 0 0 0 0 
0 0 0 0 0 0 0 0 0 
0 0 0 0 0 0 0 0 0 
0 0 0 0 0 0 0 0 0 
0 0 0 0 0 0 0 0 0 
0 0 0 0 0 0 0 0 0 
0 0 0 0 0 0 0 0 0 
0 0 0 0 0 0 0 0 0 
0 0 0 0 0 0 0 0 0 
0 0 0 0 0 0 0 0 0 
0 0 0 0 0 0 0 0 0 
0 0 0 0 0 0 0 0 0 
0 0 0 0 0 0 0 0 0 
0 0 0 0 0 0 0 0 0 
0 0 0 0 0 0 0 0 0 
0 0 0 0 0 0 0 0 0 
0 0 0 0 0 0 0 0 0 
0 0 0 0 0 0 0 0 0 
0 0 0 0 0 0 0 0 0 
0 0 0 0 0 0 0 0 0 
0 0 0 0 0 0 0 0 0 
0 0 0 0 0 0 0 0 0 
0 0 0 0 0 0 0 0 0 
0 0 0 0 0 0 0 0 0 
0 0 0 0 0 0 0 0 0 
0 0 0 0 0 0 0 0 0 
0 0 0 0 0 0 0 0 0 
0 0 0 0 0 0 0 0 0 
0 0 0 0 0 0 0 0 0 
0 0 0 0 0 0 0 0 0 
0 0 0 0 0 0 0 0 0 
0 0 0 0 0 0 0 0 0 
0 0 0 0 0 0 0 0 0 
0 0 0 0 0 0 0 0 0 
0 0 0 0 0 0 0 0 0 
0 0 0 0 0 0 0 0 0 
0 0 0 0 0 0 0 0 0 
0 0 0 0 0 0 0 0 0 
0 0 0 0 0 0 0 0 0 
0 0 0 0 0 0 0 0 0 
0 0 0 0 0 0 0 0 0 
0 0 0 0 0 0 0 0 0 
0 0 0 0 0 0 0 0 0 
0 0 0 0 0 0 0 0 0 
0 0 0 0 0 0 0 0 0 
0 0 0 0 0 0 0 0 0 
0 0 0 0 0 0 0 0 0 
0 0 0 0 0 0 0 0 0 
0 0 0 0 0 0 0 0 0 
0 0 0 0 0 0 0 0 0 
0 0 0 0 0 0 0 0 0 
0 0 0 0 0 0 0 0 0 
0 0 0 0 0 0 0 0 0 
0 0 0 0 0 0 0 0 0 
0 0 0 0 0 0 0 0 0 
0 0 0 0 0 0 0 0 0 
0 0 0 0 0 0 0 0 0 
0 0 0 0 0 0 0 0 0 
0 0 0 0 0 0 0 0 0 
0 0 0 0 0 0 0 0 0 
0 0 0 0 0 0 0 0 0 
0 0 0 0 0 0 0 0 0 
0 0 0 0 0 0 0 0 0 
0 0 0 0 0 0 0 0 0 
0 0 0 0 0 0 0 0 0 
0 0 0 0 0 0 0 0 0 
0 0 0 0 0 0 0 0 0 
0 0 0 0 0 0 0 0 0 
0 0 0 0 0 0 0 0 0 
0 0 0 0 0 0 0 0 0 
0 0 0 0 0 0 0 0 0 
0 0 0 0 0 0 0 0 0 
0 0 0 0 0 0 0 0 0 
0 0 0 0 0 0 0 0 0 
0 0 0 0 0 0 0 0 0 
0 0 0 0 0 0 0 0 0 
0 0 0 0 0 0 0 0 0 
0 0 0 0 0 0 0 0 0 
0 0 0 0 0 0 0 0 0 
0 0 0 0 0 0 0 0 0 
0 0 0 0 0 0 0 0 0 
0 0 0 0 0 0 0 0 0 
0 0 0 0 0 0 0 0 0 
0 0 0 0 0 0 0 0 0 
0 0 0 0 0 0 0 0 0 
0 0 0 0 0 0 0 0 0 
0 0 0 0 0 0 0 0 0 
0 0 0 0 0 0 0 0 0 
0 0 0 0 0 0 0 0 0 
0 0 0 0 0 0 0 0 0 
0 0 0 0 0 0 0 0 0 
0 0 0 0 0 0 0 0 0 
0 0 0 0 0 0 0 0 0 
0 0 0 0 0 0 0 0 0 
0 0 0 0 0 0 0 0 0 
0 0 0 0 0 0 0 0 0 
0 0 0 0 0 0 0 0 0 
0 0 0 0 0 0 0 0 0 
0 0 0 0 0 0 0 0 0 
0 0 0 0 0 0 0 0 0 
0 0 0 0 0 0 0 0 0 
0 0 0 0 0 0 0 0 0 
0 0 0 0 0 0 0 0 0 
0 0 0 0 0 0 0 0 0 
0 0 0 0 0 0 0 0 0 
0 0 0 0 0 0 0 0 0 
0 0 0 0 0 0 0 0 0 
0 0 0 0 0 0 0 0 0 
0 0 0 0 0 0 0 0 0 
0 0 0 0 0 0 0 0 0 
0 0 0 0 0 0 0 0 0 
0 0 0 0 0 0 0 0 0 
0 0 0 0 0 0 0 0 0 
0 0 0 0 0 0 0 0 0 
0 0 0 0 0 0 0 0 0 
0 0 0 0 0 0 0 0 0 
0 0 0 0 0 0 0 0 0 
0 0 0 0 0 0 0 0 0 
0 0 0 0 0 0 0 0 0 
0 0 0 0 0 0 0 0 0 
0 0 0 0 0 0 0 0 0 
0 0 0 0 0 0 0 0 0 
0 0 0 0 0 0 0 0 0 
0 0 0 0 0 0 0 0 0 
0 0 0 0 0 0 0 0 0 
0 0 0 0 0 0 0 0 0 
0 0 0 0 0 0 0 0 0 
0 0 0 0 0 0 0 0 0 
0 0 0 0 0 0 0 0 0 
0 0 0 0 0 0 0 0 0 
0 0 0 0 0 0 0 0 0 
0 0 0 0 0 0 0 0 0 
0 0 0 0 0 0 0 0 0 
0 0 0 0 0 0 0 0 0 
0 0 0 0 0 0 0 0 0 
0 0 0 0 0 0 0 0 0 
0 0 0 0 0 0 0 0 0 
0 0 0 0 0 0 0 0 0 
0 0 0 0 0 0 0 0 0 
0 0 0 0 0 0 0 0 0 
0 0 0 0 0 0 0 0 0 
0 0 0 0 0 0 0 0 0 
0 0 0 0 0 0 0 0 0 
0 0 0 0 0 0 0 0 0 
0 0 0 0 0 0 0 0 0 
0 0 0 0 0 0 0 0 0 
0 0 0 0 0 0 0 0 0 
0 0 0 0 0 0 0 0 0 
0 0 0 0 0 0 0 0 0 
0 0 0 0 0 0 0 0 0 
0 0 0 0 0 0 0 0 0 
0 0 0 0 0 0 0 0 0 
0 0 0 0 0 0 0 0 0 
0 0 0 0 0 0 0 0 0 
0 0 0 0 0 0 0 0 0 
0 0 0 0 0 0 0 0 0 
0 0 0 0 0 0 0 0 0 
0 0 0 0 0 0 0 0 0 
0 0 0 0 0 0 0 0 0 
0 0 0 0 0 0 
v 3 1130 double
-0.000144942 -0.000138435 -5.16969e-05 0.000246156 4.22563e-06 -0.000573788 -0.00046043 0.000203214 -1.10965e-15 
7.57549e-05 -0.000178023 -4.44038e-05 6.07009e-06 -0.00036913 -3.11486e-05 -0.000249437 -0.000200298 -9.87284e-05 
1.57501e-06 1.03213e-06 -2.93125e-05 -0.000107318 0.000244455 4.67766e-05 -8.41474e-05 0.0002089 3.37723e-05 
-0.000169508 -6.13624e-05 2.54951e-05 0.000222474 4.87203e-06 -5.96994e-05 0.000216473 1.60269e-06 -4.11919e-06 
-1.73325e-05 -5.80444e-05 -2.14868e-05 -0.00022837 -0.000165859 -0.000232452 -0.000393788 0.000722838 9.17025e-06 
-0.000227609 -0.000169912 8.39308e-05 -0.000170197 0.000260539 -1.14554e-06 8.30539e-05 -6.75459e-05 -5.58847e-06 
0.000146848 -0.000258951 9.94815e-05 0.000424069 0.000434936 -1.72958e-05 9.66777e-05 8.71874e-05 1.77129e-05 
-6.00921e-05 -0.000132526 0.000181892 -9.77486e-05 5.85437e-05 5.36933e-05 -0.000300908 -0.000179976 7.49106e-05 
-0.000294199 -0.000312257 4.08226e-05 7.44651e-05 -0.000454716 -4.12708e-06 -9.1595e-05 -0.00157855 -0.00118423 
-0.000147222 -0.000151687 -0.000139956 0.000687481 0.000435448 -6.58366e-06 0.000164768 -6.69034e-05 -1.60698e-05 
0.000270663 0.000116341 1.18999e-05 -0.000278737 -0.000267091 9.19422e-05 -0.000438969 -0.000438354 1.52336e-05 
5.77847e-05 -5.89509e-05 0.000174731 -0.000176616 -0.000402446 3.60493e-05 0.000263813 0.000235541 1.72552e-05 
-0.000126934 0.000708516 3.61483e-05 0.000196672 0.000200967 1.51902e-15 -0.00010464 -0.00010465 -1.26372e-05 
-0.000236722 7.22606e-05 -6.13496e-05 -0.00013245 -0.000312051 8.42183e-05 5.99362e-05 -0.000313431 -8.40095e-06 
-0.000389309 -0.000265957 1.3817e-05 -7.35576e-05 0.000611978 0.00012205 0.000268593 9.65551e-06 -0.000434259 
1.72379e-05 0.00034208 2.52977e-05 0.000113398 0.000646971 -4.40704e-05 0.000411379 -0.0003205 -0.000366059 
-0.000275198 -7.49781e-05 3.51113e-05 -0.000105788 -0.000175532 6.62543e-06 -9.02026e-05 -0.000271493 4.48017e-06 
-0.000348089 -0.000215742 0.00013454 -0.000218895 0.000219633 -7.93146e-06 -0.000549517 0.000742824 0.000165185 
0.000258072 0.000135396 5.79677e-05 0.00119192 -9.59604e-05 -3.58599e-16 -0.00021096 0.000407135 -0.000189183 
-0.000266816 6.04201e-05 4.74316e-05 0.000103995 0.000283958 1.68433e-08 1.41187e-05 1.98777e-05 -2.76445e-05 
-3.90007e-05 0.000210561 -0.000100286 -0.000135669 2.33764e-05 6.51782e-05 -0.000426917 0.000264169 -0.000143958 
-0.000157029 0.000170166 6.52147e-05 0.000373122 -0.000502613 -4.29685e-05 0.000325777 -0.000403641 3.55652e-05 
-0.000185464 9.97149e-05 -9.42508e-05 -5.59781e-05 -0.000143998 9.57744e-05 -7.33632e-05 8.93466e-05 -4.87193e-06 
1.1652e-05 9.04039e-05 6.02669e-05 -5.88993e-05 -0.000135979 -2.95965e-07 0.000185484 5.81114e-05 -0.000104439 
0.000201719 0.000187271 5.4201e-05 0.000243607 -0.000182238 3.65111e-05 0.000377241 0.000112079 2.33812e-06 
0.000520066 -0.000141895 6.27873e-05 4.31706e-05 -0.000238369 -8.85854e-05 4.97324e-05 -0.000356325 0.000386066 
2.53258e-05 -1.62117e-05 6.05061e-05 0.000207965 0.00012899 3.66512e-05 -0.00010447 0.00026195 -1.18051e-05 
0.000274737 4.88184e-06 7.62547e-06 -0.000288343 -0.000290837 -7.16814e-06 -0.0002898 -0.000376443 2.30076e-06 
-0.000227477 -0.000269088 -8.19744e-05 4.82078e-05 -0.000130376 4.33432e-05 0.000115017 -0.000214891 -1.83879e-05 
9.2325e-05 -0.00035741 3.98798e-05 1.83675e-05 3.84742e-05 3.82008e-06 0.00022977 -5.0259e-05 1.24648e-08 
-0.000243533 -0.000243689 -3.13848e-05 -0.000210134 -0.000966668 7.63603e-05 -8.70364e-05 -0.000939139 -0.000137945 
-5.54934e-05 3.02164e-06 -0.000377865 -0.000391383 -0.000342769 -0.000121613 2.35982e-06 -0.000299042 4.09489e-05 
8.67172e-05 -0.000246691 8.53674e-06 -0.00054109 0.000761817 -6.30706e-05 -0.000213138 -0.00103833 0.000305538 
-0.000567951 -0.000339092 1.82314e-05 -0.000407698 -0.000149165 -0.000208637 -0.000637704 -0.000206254 -0.000168319 
-0.000189109 -0.000320992 -0.000650363 2.28005e-05 -7.51867e-05 -0.000213361 -0.000123201 -0.000275618 -9.48556e-06 
5.72084e-05 -0.000256645 7.91337e-05 0.000157384 -0.00015568 -0.000150994 0.000190924 0.000823441 -0.000445741 
-2.55229e-05 -0.000633712 -0.000872651 -0.000451909 -0.000271718 -0.000213376 -0.000588319 -0.000494522 -0.00031353 
0.000291832 -1.06373e-06 -0.000398957 -0.000406007 -0.00082944 0.000216362 0.000585803 -0.000429936 -6.96989e-05 
-1.5826e-05 0.000315257 0.000262199 0.000123755 -0.000301137 0.000129522 -0.000527601 -0.000622959 -0.000425835 
-0.000118068 -4.83419e-05 0.00016203 -2.90379e-07 -0.000514388 0.000159696 -0.000463249 0.00041323 -0.000158271 
-0.000391378 -0.000314759 0.000129501 6.60008e-05 -0.000462441 -0.00028808 -0.000203058 -0.000437047 0.00025522 
0.0006055 0.000222497 0.000197003 -0.000103755 0.000394261 -0.000126047 0.000425936 -5.58148e-05 -0.0005152 
-4.60478e-05 0.000596149 -0.000363036 0.000230986 7.04703e-05 0.000385906 -0.000148246 6.0181e-05 0.00016936 
-0.000220208 2.10299e-06 4.83695e-05 -0.000270097 -2.26341e-05 -8.29005e-05 -0.000239168 0.000170878 -0.000396241 
0.000583228 -0.00190203 -0.000532784 -0.000395929 0.000497805 0.000229297 -0.000132946 -0.000380655 -0.000103107 
0.000380612 -0.000187611 -0.000176085 -0.000183155 -0.000212996 1.22787e-05 3.50553e-05 -0.000111514 8.78579e-05 
6.71887e-05 -2.82911e-05 5.16163e-05 -2.29025e-05 -0.000159454 0.000110483 -0.000271835 -7.71593e-05 -0.0001587 
6.54983e-05 -6.37484e-05 -0.000227292 -0.000105479 0.000146786 0.000346095 -0.00231073 0.00113894 -0.00270174 
0.00123811 0.00189741 -0.00104663 0.000103767 0.000499978 -9.01595e-05 6.16188e-05 0.000398611 -6.21445e-05 
-0.000522009 1.1057e-05 -0.000406428 -7.85676e-05 -0.000369156 -0.000232261 9.11218e-05 2.35781e-05 8.18501e-05 