FoamFile
{version 2.0; format ascii;class Cloud<passiveParticle>; location 0;object  positions;}
350
(
( -0.00130857 0.00382182 0.00049875 ) 0 
( -0.00251698 0.00288583 0.000496278 ) 0 
( -0.00457708 0.00300421 0.000497391 ) 0 
( -0.00151956 0.00284642 0.000498507 ) 0 
( -0.00172215 0.00134374 0.000498358 ) 0 
( -0.0014754 0.0048056 0.000497611 ) 0 
( -2.35284e-05 0.00170767 0.000496935 ) 0 
( -0.00230747 0.00389639 0.000497682 ) 0 
( -0.00053601 0.00302018 0.000498045 ) 0 
( -0.00247385 0.000632492 0.000498362 ) 0 
( -0.00487931 0.00395799 0.000496799 ) 0 
( -0.000760363 0.00103341 0.000497682 ) 0 
( -0.00416517 0.000208441 0.000498035 ) 0 
( -0.000325085 0.00399633 0.000497711 ) 0 
( -0.0027133 0.00171366 0.000497834 ) 0 
( -0.000527119 6.13346e-05 0.000499108 ) 0 
( -0.00414392 0.00463526 0.000499653 ) 0 
( -0.00384143 0.00367969 0.000499081 ) 0 
( -0.00315818 0.00438269 0.000690196 ) 0 
( -0.0048921 0.00236749 0.00119868 ) 0 
( -0.00149828 0.000346595 0.0004992 ) 0 
( -0.00424265 0.00206308 0.000498772 ) 0 
( -0.00439904 0.00112735 0.000809589 ) 0 
( -0.00344901 0.000904681 0.000498024 ) 0 
( -0.00204202 0.00331308 0.00126164 ) 0 
( -0.00350523 0.00273764 0.000499494 ) 0 
( -0.00180834 0.00428369 0.00128097 ) 0 
( -0.000975732 0.00200878 0.000498706 ) 0 
( -0.00416799 0.00177051 0.00153709 ) 0 
( -0.00132983 0.000909069 0.00130763 ) 0 
( -0.0030634 0.00347183 0.00109042 ) 0 
( -0.00228871 0.00118948 0.00130628 ) 0 
( -0.00302963 0.000487146 0.00131537 ) 0 
( -0.00110807 0.00247419 0.00137297 ) 0 
( -6.565e-05 0.00244708 0.0011652 ) 0 
( -0.00198873 0.00214561 0.00103207 ) 0 
( -7.17411e-05 0.00350921 0.00133192 ) 0 
( -0.000820443 0.00443163 0.0012459 ) 0 
( -0.00324919 0.00146157 0.00130086 ) 0 
( -0.00292345 0.00240492 0.00126963 ) 0 
( -0.0010667 0.00347223 0.0014024 ) 0 
( -0.00206776 0.00021568 0.00131089 ) 0 
( -0.00478393 0.000317182 0.00127576 ) 0 
( -0.00161901 0.00169873 0.0018442 ) 0 
( -0.00483435 0.0045373 0.00211274 ) 0 
( -0.00131016 0.00453684 0.0021083 ) 0 
( -0.000307438 0.00285117 0.0020446 ) 0 
( -0.00399188 0.00307833 0.00130343 ) 0 
( -0.0026426 0.00178606 0.00202456 ) 0 
( -0.000582357 0.00159258 0.00131793 ) 0 
( -0.00394215 0.000759701 0.00161829 ) 0 
( -0.00035714 0.000618661 0.00131114 ) 0 
( -0.00339435 0.000135834 0.00217539 ) 0 
( -0.00437966 0.00408149 0.00134966 ) 0 
( -7.89641e-05 0.00432472 0.00190744 ) 0 
( -0.00363065 0.00472437 0.00150115 ) 0 
( -0.00473064 0.00349549 0.00207736 ) 0 
( -0.00354511 0.00142203 0.00225298 ) 0 
( -0.0026993 0.00335079 0.00201317 ) 0 
( -0.000743179 0.00197365 0.00223589 ) 0 
( -0.000896742 0.000595293 0.0021505 ) 0 
( -0.00356829 0.00239698 0.00203032 ) 0 
( -0.0020553 0.00259047 0.0019486 ) 0 
( -0.00275042 0.004265 0.00161253 ) 0 
( -6.66925e-05 0.00123915 0.00220868 ) 0 
( -0.00167941 0.00103573 0.00258802 ) 0 
( -0.00175744 9.80951e-05 0.00225167 ) 0 
( -0.00439636 0.00029982 0.00238032 ) 0 
( -0.00455561 0.00251214 0.00212723 ) 0 
( -0.00253522 0.000718464 0.00215288 ) 0 
( -0.00358719 0.00378765 0.00187853 ) 0 
( -0.00122298 0.00283514 0.00244316 ) 0 
( -0.0017426 0.00363819 0.00215567 ) 0 
( -0.00367571 0.000710838 0.00294114 ) 0 
( -0.00456194 0.00128293 0.00231305 ) 0 
( -0.00222443 0.00444375 0.00249952 ) 0 
( -0.0027875 0.00256788 0.00262822 ) 0 
( -0.000709737 0.00468213 0.00289273 ) 0 
( -0.000747012 0.00370595 0.00232024 ) 0 
( -0.00393092 0.00315416 0.00256974 ) 0 
( -0.000755917 0.00120357 0.00293022 ) 0 
( -0.00304558 0.0049658 0.00227367 ) 0 
( -0.00194285 0.000301008 0.00321086 ) 0 
( -0.0025627 0.00135838 0.00292364 ) 0 
( -0.00389318 0.00448969 0.00251957 ) 0 
( -3.86833e-05 0.00191735 0.00294191 ) 0 
( -0.00317808 0.00201211 0.00336046 ) 0 
( -0.00497371 0.000929719 0.00315037 ) 0 
( -0.00147172 0.00404947 0.0030242 ) 0 
( -0.000431517 0.00305089 0.00301443 ) 0 
( -0.00403293 0.0020596 0.00284722 ) 0 
( -0.000128476 0.000410077 0.00276138 ) 0 
( -0.0028537 0.000594322 0.00349806 ) 0 
( -0.00307017 0.00395878 0.00271382 ) 0 
( -0.00229309 0.00337477 0.00294534 ) 0 
( -0.00492383 0.00299667 0.00291933 ) 0 
( -0.00467431 6.27982e-05 0.00354544 ) 0 
( -0.00429131 0.00385662 0.00317995 ) 0 
( -0.00229168 0.00253982 0.00349479 ) 0 
( -0.00154696 0.00143965 0.00349252 ) 0 
( -0.00185095 0.00483201 0.0035178 ) 0 
( -0.00143057 0.0031159 0.00337983 ) 0 
( -0.00109378 0.000578417 0.00371473 ) 0 
( -0.00377673 0.00491972 0.00348985 ) 0 
( -0.00282375 0.00463256 0.00340667 ) 0 
( -0.000960212 0.00221949 0.00318382 ) 0 
( -0.0018453 0.00204063 0.00275427 ) 0 
( -0.00324107 0.00316318 0.00329192 ) 0 
( -0.00373162 0.000242112 0.00382066 ) 0 
( -0.00015575 0.00246024 0.00377239 ) 0 
( -0.000114978 0.000700327 0.00386921 ) 0 
( -0.00482187 0.00445464 0.00377748 ) 0 
( -0.00305919 0.00264432 0.00412463 ) 0 
( -0.00415603 0.00134967 0.00353903 ) 0 
( -0.00243578 0.00162768 0.00390632 ) 0 
( -0.00160505 0.001403 0.00448847 ) 0 
( -0.00395391 0.00223829 0.00394678 ) 0 
( -0.00333497 0.00123425 0.00409444 ) 0 
( -0.00221301 0.00393244 0.00376851 ) 0 
( -0.00069081 0.00381652 0.00360053 ) 0 
( -0.000623534 0.00155983 0.00385364 ) 0 
( -0.00209371 0.000598014 0.00415264 ) 0 
( -0.000917586 0.00475284 0.00386614 ) 0 
( -0.00445387 0.0030877 0.00379476 ) 0 
( -0.00492729 0.00112094 0.00413073 ) 0 
( -0.00148802 0.0022822 0.00402946 ) 0 
( -0.00350172 0.00399885 0.00377461 ) 0 
( -0.00483996 0.00214177 0.00342856 ) 0 
( -0.00201156 0.00309682 0.00427531 ) 0 
( -0.00337841 0.00195989 0.00477802 ) 0 
( -0.00405636 0.0046004 0.00440292 ) 0 
( -0.00044209 0.00415365 0.00450687 ) 0 
( -0.000852362 0.00303395 0.00420049 ) 0 
( -0.00300782 0.000379456 0.00449471 ) 0 
( -0.00494237 0.00243901 0.00437599 ) 0 
( -0.00207613 0.00462913 0.00447052 ) 0 
( -0.00434262 0.00170961 0.00469918 ) 0 
( -0.0025309 0.00121113 0.00480917 ) 0 
( -0.00306682 0.00473513 0.00436882 ) 0 
( -0.00287415 0.00357856 0.00442932 ) 0 
( -0.00412539 0.000741451 0.00459034 ) 0 
( -0.00482314 0.00372963 0.00446259 ) 0 
( -0.00138239 0.0038716 0.0043183 ) 0 
( -0.000761052 0.000882821 0.00460692 ) 0 
( -3.90075e-05 0.0027784 0.00472034 ) 0 
( -0.00194503 0.00364093 0.00511092 ) 0 
( -0.00323432 0.00290352 0.00507242 ) 0 
( -0.00420292 0.00264672 0.00501615 ) 0 
( -0.00342515 0.00106265 0.0052271 ) 0 
( -0.00120807 0.00456557 0.00501347 ) 0 
( -0.00233582 0.0022455 0.00468522 ) 0 
( -0.00386655 0.00344844 0.00452366 ) 0 
( -0.00146893 0.00269029 0.00500796 ) 0 
( -0.00371056 2.87042e-05 0.00515403 ) 0 
( -0.00466534 0.000142266 0.0054254 ) 0 
( -0.000745704 0.00207144 0.00470328 ) 0 
( -0.00444421 0.00420369 0.00525478 ) 0 
( -0.000897438 0.00350358 0.00511074 ) 0 
( -0.00393106 0.000411301 0.00604851 ) 0 
( -0.00387467 0.00194181 0.00564489 ) 0 
( -0.000657365 0.00421638 0.00576957 ) 0 
( -0.00141458 4.00497e-05 0.00587561 ) 0 
( -0.00165281 0.00425251 0.00585153 ) 0 
( -0.00249975 0.0044354 0.00535385 ) 0 
( -0.00222028 0.00026382 0.00509603 ) 0 
( -0.000627479 0.00140363 0.00544968 ) 0 
( -0.00233906 0.00281278 0.0055073 ) 0 
( -0.00176751 0.00181477 0.00538359 ) 0 
( -0.00345913 0.00416475 0.00508938 ) 0 
( -0.00438831 0.0010991 0.00548691 ) 0 
( -0.00337853 0.00271959 0.00604311 ) 0 
( -0.00392056 0.00342021 0.00558276 ) 0 
( -0.000572495 0.000393642 0.00545756 ) 0 
( -0.00291662 0.00360184 0.00571196 ) 0 
( -0.00259295 0.000911975 0.00576007 ) 0 
( -0.00489163 0.00328733 0.00535497 ) 0 
( -0.00146553 0.0031963 0.00587085 ) 0 
( -0.00224681 0.00345211 0.00643818 ) 0 
( -0.0027489 0.00190068 0.00555033 ) 0 
( -0.00443683 0.0026812 0.00601308 ) 0 
( -0.00112182 0.0020021 0.00612147 ) 0 
( -0.0010556 0.000949223 0.00622987 ) 0 
( -0.000623917 0.00264341 0.00553904 ) 0 
( -0.00145908 0.000867733 0.00532017 ) 0 
( -0.00133413 0.00378321 0.00667386 ) 0 
( -0.00304123 0.00471667 0.00614548 ) 0 
( -0.00491447 0.00395139 0.00609953 ) 0 
( -0.000410446 0.00349965 0.00641941 ) 0 
( -0.00107494 0.00281098 0.00670631 ) 0 
( -0.00195867 0.00248742 0.00637128 ) 0 
( -0.00341803 0.00125392 0.00620842 ) 0 
( -0.000250332 0.00158634 0.00637552 ) 0 
( -0.000543365 0.00459856 0.00668602 ) 0 
( -0.00195823 0.0014871 0.00630724 ) 0 
( -0.00403058 0.00459081 0.00607838 ) 0 
( -0.00304961 0.000367985 0.00651518 ) 0 
( -0.000555602 0.000104072 0.00641385 ) 0 
( -0.00231315 0.0043989 0.00675203 ) 0 
( -0.00128016 0.000260439 0.00708357 ) 0 
( -0.00135754 0.00468707 0.0072574 ) 0 
( -0.00382969 0.00205592 0.00663964 ) 0 
( -0.00210339 0.00196548 0.00720981 ) 0 
( -0.0035223 0.00382665 0.00647324 ) 0 
( -0.00204564 0.000508459 0.00649177 ) 0 
( -0.00428926 0.00110083 0.00667469 ) 0 
( -0.00121545 0.00155303 0.00700892 ) 0 
( -0.00283628 0.00204106 0.00653476 ) 0 
( -0.00484696 0.00171739 0.00612196 ) 0 
( -0.00482966 0.0047808 0.00664785 ) 0 
( -0.00475522 0.00224856 0.00696236 ) 0 
( -0.00299573 0.00300192 0.00692149 ) 0 
( -0.00399046 0.00302242 0.00683653 ) 0 
( -0.00353352 0.000847 0.00727661 ) 0 
( -0.000479982 0.000876692 0.00704338 ) 0 
( -0.000605828 0.00378075 0.00735867 ) 0 
( -0.00158031 0.00379244 0.00764213 ) 0 
( -0.00324567 0.00181057 0.00741621 ) 0 
( -0.00195878 0.00295307 0.00725521 ) 0 
( -0.00439396 0.00392961 0.00695235 ) 0 
( -0.000195853 0.00288536 0.00717656 ) 0 
( -0.000437166 0.00177595 0.00759521 ) 0 
( -0.0044597 0.00471032 0.00757289 ) 0 
( -0.00263939 0.00116063 0.00696036 ) 0 
( -0.00491038 0.000206666 0.00695607 ) 0 
( -0.00272704 0.00261934 0.00780389 ) 0 
( -0.0017035 7.96727e-05 0.00797079 ) 0 
( -0.00441848 0.00065701 0.00770041 ) 0 
( -0.00255888 0.00372833 0.00745112 ) 0 
( -0.00183837 0.000963528 0.00752243 ) 0 
( -0.00218535 0.00453925 0.00791537 ) 0 
( -4.21668e-05 0.000324137 0.00784117 ) 0 
( -0.000450023 0.00475178 0.00766991 ) 0 
( -0.00422002 0.00162042 0.00752462 ) 0 
( -0.00459802 0.00313337 0.00762115 ) 0 
( -0.00355625 0.00367022 0.00745923 ) 0 
( -0.00104677 0.00294914 0.00769529 ) 0 
( -0.00249649 0.000215419 0.00733389 ) 0 
( -0.00327707 0.00456237 0.00710409 ) 0 
( -0.00136413 0.00201936 0.00787927 ) 0 
( -0.000948628 0.000737921 0.00791545 ) 0 
( -0.000163679 0.00117851 0.00834852 ) 0 
( -0.0012401 0.00451876 0.00823796 ) 0 
( -0.00411949 0.00401724 0.00820687 ) 0 
( -0.00122339 0.00352229 0.00853501 ) 0 
( -0.000625632 0.00204103 0.00855128 ) 0 
( -0.00371807 0.00113898 0.00824131 ) 0 
( -0.00372196 0.00264227 0.00771999 ) 0 
( -0.00229379 0.0018003 0.00817626 ) 0 
( -0.000376458 0.00300158 0.0084342 ) 0 
( -0.00382082 0.00489809 0.00857122 ) 0 
( -0.00106719 0.000210384 0.00875585 ) 0 
( -0.00312961 0.00337829 0.00831459 ) 0 
( -0.00315307 0.00434798 0.00807217 ) 0 
( -0.00185714 0.00280071 0.00825978 ) 0 
( -0.00278578 0.000967643 0.00792801 ) 0 
( -0.00454317 0.00230415 0.00817678 ) 0 
( -0.000944247 0.0011792 0.00897222 ) 0 
( -0.00329622 0.00203296 0.00838857 ) 0 
( -0.00181615 0.000992884 0.00852115 ) 0 
( -0.00442085 0.00155017 0.00882001 ) 0 
( -0.00405197 0.00308496 0.00856201 ) 0 
( -0.00168764 0.00429695 0.00910349 ) 0 
( -0.00396486 0.000218927 0.00854125 ) 0 
( -0.00249015 0.00025625 0.00856187 ) 0 
( -0.00157422 0.00194573 0.00885314 ) 0 
( -0.0027168 0.00123875 0.00888662 ) 0 
( -0.00220244 0.00371301 0.00847652 ) 0 
( -0.00497423 0.000411979 0.00849385 ) 0 
( -0.000378801 0.00402597 0.00835353 ) 0 
( -0.00324155 0.000441602 0.00919412 ) 0 
( -0.00466539 0.00448009 0.0089048 ) 0 
( -0.0035939 0.00136401 0.00934958 ) 0 
( -0.00282367 0.00334548 0.00928135 ) 0 
( -0.00386577 0.00230757 0.00916234 ) 0 
( -0.00104081 0.00274217 0.00913302 ) 0 
( -0.00463094 0.00290592 0.00939742 ) 0 
( -0.00362837 0.00389715 0.00906759 ) 0 
( -0.00255132 0.00246512 0.00889482 ) 0 
( -0.00186568 0.000382644 0.00933131 ) 0 
( -0.00275269 0.0043725 0.00898754 ) 0 
( -0.00054582 0.00486705 0.00886709 ) 0 
( -0.00069978 0.00390682 0.00929305 ) 0 
( -0.00258057 0.000889018 0.00981261 ) 0 
( -0.00278799 0.00186766 0.00965961 ) 0 
( -0.000622828 0.00193318 0.00954435 ) 0 
( -0.00182564 0.00333086 0.00931988 ) 0 
( -0.00370712 0.00313155 0.00970497 ) 0 
( -0.00385909 0.00473744 0.00955687 ) 0 
( -0.00492873 0.0019682 0.00957262 ) 0 
( -0.0017004 0.00132358 0.00962426 ) 0 
( -0.00044083 0.000695084 0.00968702 ) 0 
( -0.000133078 0.00295911 0.00949044 ) 0 
( -0.00420023 0.000572742 0.00944529 ) 0 
( -0.00441321 0.00383901 0.00968299 ) 0 
( -0.0039032 0.00226363 0.0101604 ) 0 
( -0.00349401 0.000658857 0.010147 ) 0 
( -0.00221556 0.00160232 0.0104342 ) 0 
( -0.00128686 0.00194304 0.0102911 ) 0 
( -0.00430668 0.00135474 0.0100585 ) 0 
( -0.0028632 0.00276457 0.010094 ) 0 
( -0.00136272 0.00384777 0.010039 ) 0 
( -0.00307112 0.00496111 0.0101296 ) 0 
( -0.00102314 0.00291116 0.0101176 ) 0 
( -0.00192518 0.00239997 0.00967148 ) 0 
( -0.00232692 0.00403269 0.0098251 ) 0 
( -0.00104249 0.00474077 0.00972494 ) 0 
( -0.00332399 0.00400134 0.0100139 ) 0 
( -0.00202928 0.000213636 0.0103027 ) 0 
( -0.000281889 0.00367605 0.0101707 ) 0 
( -0.00266108 0.00374872 0.0107227 ) 0 
( -0.00447581 0.00310897 0.0103632 ) 0 
( -0.00422173 0.000646437 0.0108322 ) 0 
( -0.00326117 0.00156919 0.0104875 ) 0 
( -0.00178839 0.00468045 0.0103908 ) 0 
( -0.000256043 0.00239184 0.0104921 ) 0 
( -0.00138441 0.000200808 0.0111435 ) 0 
( -0.000108347 0.000512134 0.010644 ) 0 
( -0.00269576 0.00080641 0.0108018 ) 0 
( -0.000441619 0.0014161 0.0103796 ) 0 
( -0.00196927 0.00312196 0.0103616 ) 0 
( -0.000784 0.00440758 0.0106313 ) 0 
( -0.00413011 0.00431889 0.0105128 ) 0 
( -0.00128387 0.00087906 0.0104163 ) 0 
( -0.00239967 0.00294144 0.0112507 ) 0 
( -0.00322001 0.00244319 0.0109708 ) 0 
( -0.000224278 0.0028028 0.0114027 ) 0 
( -0.002509 0.000182341 0.0115599 ) 0 
( -0.00141634 0.00261342 0.011021 ) 0 
( -0.00482365 0.00218383 0.010543 ) 0 
( -0.00173198 0.00390301 0.0110569 ) 0 
( -0.00357477 0.00334464 0.0107246 ) 0 
( -0.000853817 0.00343697 0.0109544 ) 0 
( -0.000740793 0.000990192 0.0112523 ) 0 
( -0.00269054 0.00166656 0.0113114 ) 0 
( -0.00259906 0.00471363 0.0109754 ) 0 
( -0.00408556 0.00171951 0.011032 ) 0 
( -0.00193322 0.00224305 0.0117927 ) 0 
( -0.00498253 0.00127928 0.011013 ) 0 
( -0.000431782 0.00484193 0.0114598 ) 0 
( -0.000943132 0.00206592 0.0117107 ) 0 
( -0.00445664 0.00366453 0.0111943 ) 0 
( -0.00148095 0.00465543 0.0116653 ) 0 
( -0.000106394 0.00176304 0.0112551 ) 0 
( -0.000770574 0.00396467 0.0117993 ) 0 
( -0.00347714 0.00101184 0.0113905 ) 0 
( -0.00160024 0.00149869 0.0112147 ) 0 
( -0.00415755 0.00269911 0.0112176 ) 0 
( -0.00350449 0.0019719 0.0118053 ) 0 
( -0.000588017 0.00013307 0.0117439 ) 0 
( -0.00176185 0.000766715 0.0118761 ) 0 
)
