FoamFile
{version 2.0; format ascii;class vectorField; location 0;object  v;}
42
(
( 5.56484e-05 -3.6143e-05 9.13539e-05 )  
( 3.4503e-05 1.71673e-06 9.00938e-05 )  
( -4.81656e-06 -1.29824e-05 6.0715e-05 )  
( 3.23336e-05 -1.13122e-05 9.60571e-05 )  
( 9.36058e-06 -2.32133e-05 5.39705e-05 )  
( -1.25943e-05 -3.08347e-05 0.000201176 )  
( 5.9155e-05 3.80541e-05 0.000151036 )  
( 1.65322e-05 1.14891e-05 6.88089e-05 )  
( 5.56008e-06 -2.99382e-05 0.000198663 )  
( 3.49531e-05 -7.75768e-06 0.000174522 )  
( 2.67807e-05 -6.9632e-06 0.000169942 )  
( 6.59347e-07 -4.5603e-05 0.000110382 )  
( 1.36634e-05 -2.38151e-05 0.000224168 )  
( 5.51927e-05 -5.24122e-05 0.000262535 )  
( 5.89101e-05 3.27577e-05 0.000290091 )  
( 2.5774e-05 8.03715e-06 0.000191676 )  
( 5.04594e-05 -2.43623e-05 0.000191156 )  
( -0.000163876 -2.80811e-05 0.000317142 )  
( 4.74888e-05 -6.09597e-06 0.000256907 )  
( -3.86073e-05 -0.000119264 0.000301935 )  
( -2.12506e-05 6.56393e-05 0.000375126 )  
( -1.26828e-05 3.74791e-05 0.00032409 )  
( -6.2121e-06 3.67905e-05 0.000260808 )  
( -3.0769e-05 6.06825e-05 0.000286434 )  
( -7.02416e-06 5.09991e-05 0.00029108 )  
( -7.62014e-05 1.34811e-05 0.000369679 )  
( -2.38242e-05 3.1297e-05 0.000356525 )  
( -9.79342e-06 4.15083e-05 0.000238544 )  
( -7.32836e-05 6.11418e-06 0.000307126 )  
( -7.67787e-05 1.2223e-05 0.000389666 )  
( -3.9916e-05 0.000102293 0.000424911 )  
( -5.72193e-05 -4.29236e-05 0.000355918 )  
( 1.40599e-06 2.04178e-05 0.000279487 )  
( 1.0504e-05 -6.80564e-06 0.000204518 )  
( 4.05731e-05 7.18359e-05 0.000195675 )  
( 2.35908e-05 4.32336e-05 0.00038552 )  
( -5.19034e-06 5.67625e-05 0.000291111 )  
( -6.10849e-05 4.2015e-05 0.000334404 )  
( -2.66472e-05 -2.0424e-05 0.000287525 )  
( 7.93785e-05 2.47858e-05 0.000106819 )  
( 8.14631e-05 -3.075e-05 0.000297929 )  
( 7.34739e-05 9.45979e-05 0.00019286 )  
)
