/*--------------------------------*- C++ -*----------------------------------*\
| =========                 |                                                 |
| \\      /  F ield         | OpenFOAM: The Open Source CFD Toolbox           |
|  \\    /   O peration     | Version:  5.x                                   |
|   \\  /    A nd           | Web:      www.OpenFOAM.org                      |
|    \\/     M anipulation  |                                                 |
\*---------------------------------------------------------------------------*/
FoamFile
{
    version     2.0;
    format      ascii;
    class       surfaceScalarField;
    location    "0.08";
    object      phi;
}
// * * * * * * * * * * * * * * * * * * * * * * * * * * * * * * * * * * * * * //

dimensions      [0 3 -1 0 0 0 0];

internalField   nonuniform List<scalar> 
5825
(
-2.05185e-16
-5.2893e-17
-1e-09
-1.82461e-16
-6.00481e-17
-1e-09
-1.36025e-16
-6.01878e-17
-1e-09
-6.68849e-17
-6.13127e-17
-1e-09
-5.91907e-17
-1e-09
-2.12819e-16
-8.79094e-17
-1e-09
-1.83423e-16
-8.0065e-17
-1e-09
-1.37805e-16
-8.72773e-17
-1e-09
-6.50154e-17
-9.16791e-17
-1e-09
-8.8848e-17
-1e-09
-2.05299e-16
-1.21448e-16
-1e-09
-1.90178e-16
-1.1187e-16
-1e-09
-1.42126e-16
-1.18026e-16
-1e-09
-6.2356e-17
-1.15093e-16
-1e-09
-1.20211e-16
-1e-09
-1.96182e-16
-1.55971e-16
-1e-09
-1.95346e-16
-1.39233e-16
-1e-09
-1.39066e-16
-1.3206e-16
-1e-09
-6.76078e-17
-1.40166e-16
-1e-09
-1.53851e-16
-1e-09
-1.82309e-16
-1e-09
-1.87295e-16
-1e-09
-1.47216e-16
-1e-09
-8.21299e-17
-1e-09
-1e-09
-5.67368e-16
-1.42084e-16
-9.99999e-10
-5.00404e-16
-1.56354e-16
-1e-09
-3.58952e-16
-1.52649e-16
-1e-09
-1.71765e-16
-1.49181e-16
-1e-09
-1.43575e-16
-1e-09
-5.83006e-16
-2.383e-16
-1e-09
-4.99055e-16
-2.26622e-16
-1e-09
-3.56494e-16
-2.35866e-16
-1e-09
-1.6621e-16
-2.40242e-16
-1e-09
-2.42133e-16
-1e-09
-5.72448e-16
-3.30589e-16
-1e-09
-5.0684e-16
-3.06489e-16
-1e-09
-3.60533e-16
-3.09796e-16
-1e-09
-1.68589e-16
-3.18868e-16
-1e-09
-3.36071e-16
-1e-09
-5.50854e-16
-4.29558e-16
-1e-09
-5.07151e-16
-3.99454e-16
-1e-09
-3.69051e-16
-3.87212e-16
-1e-09
-1.86168e-16
-4.03601e-16
-1e-09
-4.09611e-16
-1e-09
-5.26783e-16
-1e-09
-4.8744e-16
-1e-09
-3.82304e-16
-1e-09
-1.92529e-16
-1e-09
-1e-09
-1.01145e-15
-2.51423e-16
-9.99999e-10
-8.72992e-16
-2.61765e-16
-1e-09
-6.12356e-16
-2.4527e-16
-1e-09
-3.02563e-16
-2.40934e-16
-1e-09
-2.37249e-16
-1e-09
-1.02418e-15
-4.17088e-16
-9.99999e-10
-8.59524e-16
-4.15597e-16
-1e-09
-6.09164e-16
-4.2111e-16
-1e-09
-2.99117e-16
-4.26702e-16
-1e-09
-4.34684e-16
-1e-09
-1.02194e-15
-5.67944e-16
-9.99999e-10
-8.62552e-16
-5.65888e-16
-1e-09
-6.14386e-16
-5.70615e-16
-1e-09
-3.07973e-16
-5.90013e-16
-1e-09
-5.99187e-16
-1e-09
-1.01952e-15
-7.2982e-16
-1e-09
-8.64344e-16
-7.26368e-16
-1e-09
-6.33861e-16
-7.2642e-16
-1e-09
-3.18874e-16
-7.22998e-16
-1e-09
-7.09277e-16
-1e-09
-1.01164e-15
-1e-09
-8.54656e-16
-1e-09
-6.25657e-16
-1e-09
-3.03371e-16
-1e-09
-1e-09
-1.54564e-15
-3.78971e-16
-9.99999e-10
-1.31615e-15
-3.77451e-16
-9.99999e-10
-9.33683e-16
-3.59843e-16
-1e-09
-4.87206e-16
-3.64495e-16
-1e-09
-3.64063e-16
-1e-09
-1.54907e-15
-6.34778e-16
-9.99999e-10
-1.30172e-15
-6.49284e-16
-1e-09
-9.40421e-16
-6.56161e-16
-1e-09
-4.8738e-16
-6.65012e-16
-1e-09
-6.70248e-16
-1e-09
-1.56147e-15
-8.21291e-16
-9.99999e-10
-1.30566e-15
-8.82679e-16
-1e-09
-9.49125e-16
-9.0147e-16
-1e-09
-4.94508e-16
-9.17729e-16
-1e-09
-9.09037e-16
-1e-09
-1.60897e-15
-9.72448e-16
-9.99999e-10
-1.32127e-15
-1.06189e-15
-1e-09
-9.66173e-16
-1.1027e-15
-1e-09
-4.89115e-16
-1.09327e-15
-1e-09
-1.0736e-15
-1e-09
-1.68509e-15
-1e-09
-1.35451e-15
-1e-09
-9.51548e-16
-1e-09
-4.68663e-16
-1e-09
-1e-09
-2.21198e-15
-5.1799e-16
-9.99998e-10
-1.89085e-15
-5.17605e-16
-9.99999e-10
-1.37233e-15
-5.18188e-16
-1e-09
-7.2945e-16
-5.28258e-16
-1e-09
-5.24531e-16
-1e-09
-2.21874e-15
-9.07507e-16
-9.99998e-10
-1.89533e-15
-9.37927e-16
-9.99999e-10
-1.38548e-15
-9.48887e-16
-1e-09
-7.27539e-16
-9.56895e-16
-1e-09
-9.53946e-16
-1e-09
-2.24961e-15
-1.15798e-15
-9.99999e-10
-1.90373e-15
-1.27068e-15
-1e-09
-1.39375e-15
-1.30089e-15
-1e-09
-7.27415e-16
-1.30935e-15
-1e-09
-1.29659e-15
-1e-09
-2.34314e-15
-1.2674e-15
-9.99999e-10
-1.93009e-15
-1.43703e-15
-1e-09
-1.40352e-15
-1.52761e-15
-1e-09
-7.18995e-16
-1.54616e-15
-1e-09
-1.54849e-15
-1e-09
-2.50651e-15
-1e-09
-2.01675e-15
-1e-09
-1.41595e-15
-1e-09
-7.22176e-16
-1e-09
-1e-09
-3.0895e-15
-6.92348e-16
-9.99998e-10
-2.6577e-15
-7.08524e-16
-9.99999e-10
-1.94628e-15
-7.27542e-16
-1e-09
-1.02553e-15
-7.31204e-16
-1e-09
-7.19064e-16
-1e-09
-3.1136e-15
-1.27553e-15
-9.99998e-10
-2.68259e-15
-1.30683e-15
-9.99999e-10
-1.95512e-15
-1.31821e-15
-1e-09
-1.01673e-15
-1.32386e-15
-1e-09
-1.31646e-15
-1e-09
-3.14685e-15
-1.68413e-15
-9.99998e-10
-2.69206e-15
-1.78187e-15
-1e-09
-1.96165e-15
-1.81135e-15
-1e-09
-1.0134e-15
-1.81869e-15
-1e-09
-1.82009e-15
-1e-09
-3.23938e-15
-1.80097e-15
-9.99999e-10
-2.71807e-15
-1.99545e-15
-1e-09
-1.97049e-15
-2.10821e-15
-1e-09
-1.02036e-15
-2.16294e-15
-1e-09
-2.19344e-15
-1e-09
-3.42537e-15
-1e-09
-2.82258e-15
-1e-09
-2.01912e-15
-1e-09
-1.05308e-15
-1e-09
-1e-09
-4.26686e-15
-9.46196e-16
-9.99997e-10
-3.66821e-15
-9.75163e-16
-9.99998e-10
-2.67262e-15
-9.92586e-16
-1e-09
-1.3916e-15
-9.86258e-16
-1e-09
-9.70723e-16
-1e-09
-4.30513e-15
-1.79758e-15
-9.99997e-10
-3.69477e-15
-1.81041e-15
-9.99999e-10
-2.67383e-15
-1.81532e-15
-1e-09
-1.38158e-15
-1.82139e-15
-1e-09
-1.81658e-15
-1e-09
-4.31792e-15
-2.47258e-15
-9.99998e-10
-3.69967e-15
-2.50273e-15
-9.99999e-10
-2.68123e-15
-2.51461e-15
-1e-09
-1.38202e-15
-2.52536e-15
-1e-09
-2.54093e-15
-1e-09
-4.34105e-15
-2.78781e-15
-9.99999e-10
-3.71103e-15
-2.881e-15
-1e-09
-2.69333e-15
-2.96166e-15
-1e-09
-1.40426e-15
-3.01665e-15
-1e-09
-3.0475e-15
-1e-09
-4.40457e-15
-1e-09
-3.76926e-15
-1e-09
-2.74239e-15
-1e-09
-1.43921e-15
-1e-09
-1e-09
-5.84517e-15
-1.32032e-15
-9.99996e-10
-4.99342e-15
-1.34424e-15
-9.99998e-10
-3.61135e-15
-1.34231e-15
-1e-09
-1.87819e-15
-1.33498e-15
-1e-09
-1.32351e-15
-1e-09
-5.88087e-15
-2.52276e-15
-9.99996e-10
-5.00444e-15
-2.51209e-15
-9.99998e-10
-3.61366e-15
-2.51165e-15
-1e-09
-1.87374e-15
-2.51905e-15
-1e-09
-2.51646e-15
-1e-09
-5.86904e-15
-3.53868e-15
-9.99997e-10
-5.00539e-15
-3.50089e-15
-9.99999e-10
-3.62243e-15
-3.49115e-15
-1e-09
-1.878e-15
-3.50025e-15
-1e-09
-3.51231e-15
-1e-09
-5.82252e-15
-4.1861e-15
-9.99999e-10
-4.99588e-15
-4.14833e-15
-1e-09
-3.63239e-15
-4.1477e-15
-1e-09
-1.89918e-15
-4.16189e-15
-1e-09
-4.16391e-15
-1e-09
-5.74577e-15
-1e-09
-4.98047e-15
-1e-09
-3.64128e-15
-1e-09
-1.90832e-15
-1.00001e-09
-1.00001e-09
-7.95258e-15
-1.84824e-15
-9.99994e-10
-6.75564e-15
-1.84942e-15
-9.99997e-10
-4.8767e-15
-1.83066e-15
-9.99999e-10
-2.55145e-15
-1.83122e-15
-1e-09
-1.82161e-15
-1e-09
-7.97051e-15
-3.50046e-15
-9.99995e-10
-6.7536e-15
-3.47842e-15
-9.99998e-10
-4.88955e-15
-3.4785e-15
-1e-09
-2.55198e-15
-3.482e-15
-1e-09
-3.47586e-15
-1e-09
-7.94776e-15
-4.89515e-15
-9.99996e-10
-6.75524e-15
-4.84034e-15
-9.99999e-10
-4.89449e-15
-4.81728e-15
-1e-09
-2.5552e-15
-4.81663e-15
-1e-09
-4.81118e-15
-1e-09
-7.88417e-15
-5.8519e-15
-9.99998e-10
-6.73324e-15
-5.77561e-15
-1e-09
-4.8948e-15
-5.71939e-15
-1e-09
-2.5619e-15
-5.68813e-15
-1.00001e-09
-5.65754e-15
-1.00001e-09
-7.7501e-15
-1e-09
-6.66443e-15
-1e-09
-4.85977e-15
-1.00001e-09
-2.54329e-15
-1.00001e-09
-1.00001e-09
-1.07772e-14
-2.56029e-15
-9.99992e-10
-9.14501e-15
-2.53336e-15
-9.99996e-10
-6.62375e-15
-2.51545e-15
-9.99999e-10
-3.48119e-15
-2.52147e-15
-1e-09
-2.50828e-15
-1e-09
-1.07741e-14
-4.81455e-15
-9.99993e-10
-9.14902e-15
-4.78953e-15
-9.99997e-10
-6.64625e-15
-4.79051e-15
-1e-09
-3.48203e-15
-4.78405e-15
-1e-09
-4.77162e-15
-1e-09
-1.07492e-14
-6.67614e-15
-9.99995e-10
-9.15117e-15
-6.63133e-15
-9.99999e-10
-6.64149e-15
-6.60047e-15
-1e-09
-3.48197e-15
-6.58591e-15
-1e-09
-6.56163e-15
-1.00001e-09
-1.0698e-14
-7.93585e-15
-9.99997e-10
-9.12185e-15
-7.87587e-15
-1e-09
-6.62832e-15
-7.80115e-15
-1e-09
-3.47364e-15
-7.74553e-15
-1.00001e-09
-7.69558e-15
-1.00001e-09
-1.05747e-14
-1e-09
-9.037e-15
-1e-09
-6.57048e-15
-1.00001e-09
-3.44137e-15
-1.00001e-09
-1.00001e-09
-1.46189e-14
-3.49398e-15
-9.99989e-10
-1.24352e-14
-3.45422e-15
-9.99995e-10
-9.04354e-15
-3.45261e-15
-9.99999e-10
-4.75506e-15
-3.45495e-15
-1e-09
-3.437e-15
-1e-09
-1.46122e-14
-6.59093e-15
-9.9999e-10
-1.24629e-14
-6.55913e-15
-9.99996e-10
-9.06792e-15
-6.55175e-15
-1e-09
-4.75607e-15
-6.53271e-15
-1e-09
-6.51199e-15
-1.00001e-09
-1.45813e-14
-9.1163e-15
-9.99993e-10
-1.24564e-14
-9.04976e-15
-9.99998e-10
-9.05079e-15
-9.00097e-15
-1e-09
-4.75163e-15
-8.96948e-15
-1.00001e-09
-8.931e-15
-1.00001e-09
-1.45141e-14
-1.07815e-14
-9.99996e-10
-1.24101e-14
-1.07032e-14
-1e-09
-9.02116e-15
-1.06033e-14
-1.00001e-09
-4.73474e-15
-1.05325e-14
-1.00001e-09
-1.04766e-14
-1.00001e-09
-1.43723e-14
-1e-09
-1.22969e-14
-1.00001e-09
-8.94769e-15
-1.00001e-09
-4.70339e-15
-1.00001e-09
-1.00002e-09
-1.99333e-14
-4.73187e-15
-9.99985e-10
-1.6989e-14
-4.70371e-15
-9.99993e-10
-1.23724e-14
-4.71386e-15
-9.99999e-10
-6.49718e-15
-4.70325e-15
-1e-09
-4.67884e-15
-1.00001e-09
-1.99497e-14
-8.99795e-15
-9.99987e-10
-1.70382e-14
-8.95079e-15
-9.99994e-10
-1.2391e-14
-8.91784e-15
-1e-09
-6.49846e-15
-8.88288e-15
-1.00001e-09
-8.84922e-15
-1.00001e-09
-1.9903e-14
-1.2449e-14
-9.9999e-10
-1.70068e-14
-1.2322e-14
-9.99998e-10
-1.23581e-14
-1.2238e-14
-1e-09
-6.48644e-15
-1.21891e-14
-1.00001e-09
-1.21441e-14
-1.00001e-09
-1.97721e-14
-1.47491e-14
-9.99995e-10
-1.69266e-14
-1.45641e-14
-1e-09
-1.23113e-14
-1.4407e-14
-1.00001e-09
-6.47065e-15
-1.43202e-14
-1.00001e-09
-1.42678e-14
-1.00002e-09
-1.95243e-14
-1e-09
-1.6762e-14
-1.00001e-09
-1.22226e-14
-1.00001e-09
-6.45203e-15
-1.00002e-09
-1.00002e-09
-2.72831e-14
-6.42731e-15
-9.9998e-10
-2.32398e-14
-6.4081e-15
-9.9999e-10
-1.69063e-14
-6.40419e-15
-9.99999e-10
-8.87129e-15
-6.37252e-15
-1.00001e-09
-6.33646e-15
-1.00001e-09
-2.73243e-14
-1.22527e-14
-9.99982e-10
-2.3288e-14
-1.21812e-14
-9.99993e-10
-1.69135e-14
-1.21085e-14
-1e-09
-8.86973e-15
-1.20544e-14
-1.00001e-09
-1.20071e-14
-1.00001e-09
-2.72526e-14
-1.6909e-14
-9.99987e-10
-2.32181e-14
-1.67319e-14
-9.99997e-10
-1.68621e-14
-1.66169e-14
-1.00001e-09
-8.85159e-15
-1.65594e-14
-1.00001e-09
-1.65114e-14
-1.00002e-09
-2.70666e-14
-2.00121e-14
-9.99993e-10
-2.31082e-14
-1.97667e-14
-1e-09
-1.68072e-14
-1.95782e-14
-1.00001e-09
-8.84324e-15
-1.94834e-14
-1.00002e-09
-1.94248e-14
-1.00002e-09
-2.67541e-14
-1e-09
-2.29183e-14
-1.00001e-09
-1.67126e-14
-1.00002e-09
-8.83121e-15
-1.00003e-09
-1.00003e-09
-3.72982e-14
-8.76261e-15
-9.99973e-10
-3.172e-14
-8.71606e-15
-9.99987e-10
-2.30443e-14
-8.67387e-15
-9.99999e-10
-1.20974e-14
-8.61964e-15
-1.00001e-09
-8.5738e-15
-1.00001e-09
-3.73338e-14
-1.66432e-14
-9.99977e-10
-3.17482e-14
-1.65402e-14
-9.9999e-10
-2.30425e-14
-1.64288e-14
-1e-09
-1.20981e-14
-1.63585e-14
-1.00001e-09
-1.62992e-14
-1.00002e-09
-3.72321e-14
-2.28682e-14
-9.99983e-10
-3.16411e-14
-2.2691e-14
-9.99997e-10
-2.29768e-14
-2.25659e-14
-1.00001e-09
-1.20786e-14
-2.25032e-14
-1.00002e-09
-2.24335e-14
-1.00002e-09
-3.70476e-14
-2.69476e-14
-9.99991e-10
-3.15206e-14
-2.67469e-14
-1e-09
-2.29177e-14
-2.6583e-14
-1.00002e-09
-1.20629e-14
-2.64785e-14
-1.00003e-09
-2.63788e-14
-1.00003e-09
-3.67935e-14
-1e-09
-3.13574e-14
-1.00001e-09
-2.28153e-14
-1.00003e-09
-1.20269e-14
-1.00003e-09
-1.00004e-09
-5.08179e-14
-1.19229e-14
-9.99964e-10
-4.31909e-14
-1.18241e-14
-9.99983e-10
-3.13718e-14
-1.17438e-14
-9.99999e-10
-1.64908e-14
-1.16758e-14
-1.00001e-09
-1.16274e-14
-1.00002e-09
-5.08308e-14
-2.25801e-14
-9.99969e-10
-4.32072e-14
-2.24405e-14
-9.99987e-10
-3.13751e-14
-2.22987e-14
-1e-09
-1.65056e-14
-2.22108e-14
-1.00002e-09
-2.21253e-14
-1.00002e-09
-5.06941e-14
-3.0965e-14
-9.99977e-10
-4.30716e-14
-3.07966e-14
-9.99996e-10
-3.12941e-14
-3.06532e-14
-1.00001e-09
-1.64745e-14
-3.05579e-14
-1.00002e-09
-3.04288e-14
-1.00003e-09
-5.05235e-14
-3.63388e-14
-9.99988e-10
-4.29316e-14
-3.61964e-14
-1.00001e-09
-3.12039e-14
-3.60388e-14
-1.00002e-09
-1.64187e-14
-3.58959e-14
-1.00003e-09
-3.57284e-14
-1.00004e-09
-5.03616e-14
-1e-09
-4.27722e-14
-1.00002e-09
-3.10645e-14
-1.00004e-09
-1.63371e-14
-1.00005e-09
-1.00005e-09
-6.91443e-14
-1.61746e-14
-9.99952e-10
-5.87939e-14
-1.60351e-14
-9.99977e-10
-4.27291e-14
-1.59273e-14
-9.99999e-10
-2.2485e-14
-1.58475e-14
-1.00002e-09
-1.57855e-14
-1.00002e-09
-6.91557e-14
-3.06585e-14
-9.99958e-10
-5.8818e-14
-3.04628e-14
-9.99983e-10
-4.27459e-14
-3.02753e-14
-1.00001e-09
-2.25089e-14
-3.01443e-14
-1.00002e-09
-3.00023e-14
-1.00003e-09
-6.89623e-14
-4.20705e-14
-9.99969e-10
-5.86399e-14
-4.18463e-14
-9.99995e-10
-4.26245e-14
-4.16239e-14
-1.00002e-09
-2.24413e-14
-4.1446e-14
-1.00003e-09
-4.12347e-14
-1.00004e-09
-6.87315e-14
-4.93099e-14
-9.99985e-10
-5.84206e-14
-4.90965e-14
-1.00001e-09
-4.24528e-14
-4.88445e-14
-1.00003e-09
-2.23294e-14
-4.86279e-14
-1.00005e-09
-4.8392e-14
-1.00006e-09
-6.85051e-14
-1e-09
-5.81702e-14
-1.00003e-09
-4.22428e-14
-1.00005e-09
-2.22101e-14
-1.00007e-09
-1.00007e-09
-9.41655e-14
-2.19564e-14
-9.99934e-10
-8.01151e-14
-2.17772e-14
-9.9997e-10
-5.82435e-14
-2.16258e-14
-1e-09
-3.06508e-14
-2.15109e-14
-1.00002e-09
-2.14064e-14
-1.00003e-09
-9.41909e-14
-4.16853e-14
-9.99943e-10
-8.0142e-14
-4.13773e-14
-9.99978e-10
-5.82595e-14
-4.10929e-14
-1.00001e-09
-3.06636e-14
-4.08775e-14
-1.00003e-09
-4.06602e-14
-1.00004e-09
-9.38857e-14
-5.72581e-14
-9.99958e-10
-7.98702e-14
-5.68706e-14
-9.99993e-10
-5.80569e-14
-5.64932e-14
-1.00002e-09
-3.05478e-14
-5.6193e-14
-1.00004e-09
-5.58994e-14
-1.00006e-09
-9.34861e-14
-6.71457e-14
-9.9998e-10
-7.94957e-14
-6.67054e-14
-1.00001e-09
-5.77644e-14
-6.62703e-14
-1.00004e-09
-3.03892e-14
-6.59454e-14
-1.00007e-09
-6.5627e-14
-1.00008e-09
-9.30275e-14
-1e-09
-7.90682e-14
-1.00004e-09
-5.74521e-14
-1.00007e-09
-3.02305e-14
-1.00009e-09
-1.0001e-09
-1.28384e-13
-2.98583e-14
-9.99911e-10
-1.09249e-13
-2.95897e-14
-9.99959e-10
-7.94163e-14
-2.93503e-14
-1e-09
-4.17748e-14
-2.91683e-14
-1.00003e-09
-2.90084e-14
-1.00005e-09
-1.28394e-13
-5.66953e-14
-9.99923e-10
-1.0925e-13
-5.61961e-14
-9.99971e-10
-7.9412e-14
-5.57531e-14
-1.00001e-09
-4.17746e-14
-5.54215e-14
-1.00004e-09
-5.51238e-14
-1.00006e-09
-1.27903e-13
-7.78914e-14
-9.99944e-10
-1.08823e-13
-7.72448e-14
-9.99991e-10
-7.90977e-14
-7.66536e-14
-1.00003e-09
-4.1615e-14
-7.62019e-14
-1.00006e-09
-7.58076e-14
-1.00008e-09
-1.27245e-13
-9.13923e-14
-9.99973e-10
-1.08234e-13
-9.06263e-14
-1.00002e-09
-7.86567e-14
-8.9951e-14
-1.00006e-09
-4.14047e-14
-8.94573e-14
-1.00009e-09
-8.89987e-14
-1.00011e-09
-1.26462e-13
-1.00001e-09
-1.07569e-13
-1.00005e-09
-7.81811e-14
-1.00009e-09
-4.11637e-14
-1.00012e-09
-1.00014e-09
-1.75121e-13
-4.06069e-14
-9.9988e-10
-1.49024e-13
-4.01831e-14
-9.99945e-10
-1.08321e-13
-3.9816e-14
-1e-09
-5.69765e-14
-3.95479e-14
-1.00004e-09
-3.9335e-14
-1.00006e-09
-1.75078e-13
-7.706e-14
-9.99895e-10
-1.48983e-13
-7.62979e-14
-9.99961e-10
-1.08294e-13
-7.56394e-14
-1.00002e-09
-5.69801e-14
-7.51601e-14
-1.00006e-09
-7.47527e-14
-1.00008e-09
-1.74331e-13
-1.0585e-13
-9.99924e-10
-1.48343e-13
-1.04852e-13
-9.99989e-10
-1.07838e-13
-1.03977e-13
-1.00004e-09
-5.67609e-14
-1.0332e-13
-1.00008e-09
-1.02759e-13
-1.00011e-09
-1.73325e-13
-1.24178e-13
-9.99963e-10
-1.47471e-13
-1.23003e-13
-1.00003e-09
-1.07197e-13
-1.21994e-13
-1.00008e-09
-5.64515e-14
-1.21239e-13
-1.00012e-09
-1.20566e-13
-1.00014e-09
-1.72136e-13
-1.00001e-09
-1.46471e-13
-1.00007e-09
-1.06465e-13
-1.00013e-09
-5.60742e-14
-1.00017e-09
-1.00019e-09
-2.38947e-13
-5.52072e-14
-9.99836e-10
-2.03358e-13
-5.45726e-14
-9.99926e-10
-1.47836e-13
-5.40372e-14
-1e-09
-7.77925e-14
-5.36558e-14
-1.00006e-09
-5.3362e-14
-1.00009e-09
-2.38828e-13
-1.04706e-13
-9.99858e-10
-2.03263e-13
-1.03587e-13
-9.99947e-10
-1.47781e-13
-1.02627e-13
-1.00002e-09
-7.77927e-14
-1.0193e-13
-1.00008e-09
-1.01338e-13
-1.00011e-09
-2.37732e-13
-1.43776e-13
-9.99897e-10
-2.02329e-13
-1.42277e-13
-9.99985e-10
-1.47116e-13
-1.40987e-13
-1.00006e-09
-7.74586e-14
-1.40022e-13
-1.00012e-09
-1.392e-13
-1.00015e-09
-2.36227e-13
-1.68556e-13
-9.9995e-10
-2.01042e-13
-1.66809e-13
-1.00004e-09
-1.46174e-13
-1.65303e-13
-1.00011e-09
-7.69801e-14
-1.64184e-13
-1.00017e-09
-1.63222e-13
-1.0002e-09
-2.3447e-13
-1.00001e-09
-1.99547e-13
-1.0001e-09
-1.45084e-13
-1.00017e-09
-7.64213e-14
-1.00023e-09
-1.00026e-09
-3.26144e-13
-7.51045e-14
-9.99778e-10
-2.77639e-13
-7.41657e-14
-9.999e-10
-2.01892e-13
-7.33772e-14
-1e-09
-1.0628e-13
-7.28124e-14
-1.00008e-09
-7.23642e-14
-1.00012e-09
-3.25906e-13
-1.42333e-13
-9.99807e-10
-2.77447e-13
-1.40669e-13
-9.99929e-10
-2.0177e-13
-1.39247e-13
-1.00003e-09
-1.06233e-13
-1.38201e-13
-1.00011e-09
-1.37325e-13
-1.00015e-09
-3.24277e-13
-1.95333e-13
-9.9986e-10
-2.76059e-13
-1.93073e-13
-9.99981e-10
-2.00769e-13
-1.91143e-13
-1.00008e-09
-1.05709e-13
-1.89704e-13
-1.00016e-09
-1.88505e-13
-1.0002e-09
-3.22014e-13
-2.28815e-13
-9.99932e-10
-2.74134e-13
-2.26191e-13
-1.00005e-09
-1.99362e-13
-2.23941e-13
-1.00015e-09
-1.0498e-13
-2.2229e-13
-1.00023e-09
-2.20901e-13
-1.00027e-09
-3.19379e-13
-1.00002e-09
-2.71896e-13
-1.00014e-09
-1.9775e-13
-1.00024e-09
-1.04142e-13
-1.00031e-09
-1.00035e-09
-4.45297e-13
-1.02243e-13
-9.99698e-10
-3.79231e-13
-1.00841e-13
-9.99866e-10
-2.75866e-13
-9.96566e-14
-1.00001e-09
-1.45256e-13
-9.87918e-14
-1.00011e-09
-9.81029e-14
-1.00017e-09
-4.44846e-13
-1.9363e-13
-9.99738e-10
-3.78856e-13
-1.91111e-13
-9.99905e-10
-2.75603e-13
-1.88963e-13
-1.00005e-09
-1.45116e-13
-1.87368e-13
-1.00015e-09
-1.86077e-13
-1.00021e-09
-4.4238e-13
-2.65554e-13
-9.9981e-10
-3.76754e-13
-2.6212e-13
-9.99976e-10
-2.7407e-13
-2.59188e-13
-1.00012e-09
-1.44308e-13
-2.57001e-13
-1.00022e-09
-2.55237e-13
-1.00028e-09
-4.38952e-13
-3.10853e-13
-9.99909e-10
-3.73829e-13
-3.06845e-13
-1.00007e-09
-2.71929e-13
-3.03417e-13
-1.00021e-09
-1.43188e-13
-3.00882e-13
-1.00031e-09
-2.98809e-13
-1.00037e-09
-4.34934e-13
-1.00002e-09
-3.70409e-13
-1.00019e-09
-2.69445e-13
-1.00032e-09
-1.41868e-13
-1.00042e-09
-1.00048e-09
-6.08227e-13
-1.39252e-13
-9.99589e-10
-5.18273e-13
-1.37177e-13
-9.99818e-10
-3.77188e-13
-1.3539e-13
-1.00001e-09
-1.98658e-13
-1.34058e-13
-1.00016e-09
-1.33028e-13
-1.00023e-09
-6.07439e-13
-2.63655e-13
-9.99643e-10
-5.17585e-13
-2.59834e-13
-9.99872e-10
-3.76675e-13
-2.56552e-13
-1.00007e-09
-1.98376e-13
-2.54096e-13
-1.00021e-09
-2.52177e-13
-1.00029e-09
-6.03692e-13
-3.61323e-13
-9.99742e-10
-5.14368e-13
-3.56089e-13
-9.99968e-10
-3.74307e-13
-3.51583e-13
-1.00016e-09
-1.97121e-13
-3.48206e-13
-1.0003e-09
-3.45584e-13
-1.00038e-09
-5.9847e-13
-4.22614e-13
-9.99877e-10
-5.09874e-13
-4.16437e-13
-1.0001e-09
-3.70996e-13
-4.11114e-13
-1.00029e-09
-1.95382e-13
-4.07142e-13
-1.00043e-09
-4.0406e-13
-1.00051e-09
-5.92289e-13
-1.00003e-09
-5.04557e-13
-1.00025e-09
-3.67095e-13
-1.00044e-09
-1.93332e-13
-1.00058e-09
-1.00065e-09
-8.3121e-13
-1.89872e-13
-9.9944e-10
-7.08749e-13
-1.8679e-13
-9.99754e-10
-5.1615e-13
-1.84072e-13
-1.00002e-09
-2.7197e-13
-1.82011e-13
-1.00022e-09
-1.80463e-13
-1.00033e-09
-8.2987e-13
-3.59414e-13
-9.99515e-10
-7.0752e-13
-3.53621e-13
-9.99827e-10
-5.15201e-13
-3.48582e-13
-1.00009e-09
-2.71442e-13
-3.44774e-13
-1.00029e-09
-3.41889e-13
-1.0004e-09
-8.24174e-13
-4.92073e-13
-9.9965e-10
-7.02572e-13
-4.8409e-13
-9.99959e-10
-5.11519e-13
-4.77158e-13
-1.00022e-09
-2.69474e-13
-4.71948e-13
-1.00042e-09
-4.68065e-13
-1.00052e-09
-8.16206e-13
-5.74787e-13
-9.99835e-10
-6.95663e-13
-5.65285e-13
-1.00014e-09
-5.06406e-13
-5.57083e-13
-1.0004e-09
-2.6681e-13
-5.50986e-13
-1.00059e-09
-5.46474e-13
-1.00069e-09
-8.06708e-13
-1.00005e-09
-6.87474e-13
-1.00035e-09
-5.00413e-13
-1.0006e-09
-2.63719e-13
-1.00079e-09
-1.00089e-09
-1.13648e-12
-2.59372e-13
-9.99236e-10
-9.69924e-13
-2.54707e-13
-9.99665e-10
-7.07044e-13
-2.50511e-13
-1.00003e-09
-3.7284e-13
-2.47287e-13
-1.00031e-09
-2.44915e-13
-1.00045e-09
-1.13417e-12
-4.90643e-13
-9.99339e-10
-9.67745e-13
-4.81863e-13
-9.99766e-10
-7.05327e-13
-4.74117e-13
-1.00013e-09
-3.71866e-13
-4.68196e-13
-1.0004e-09
-4.63847e-13
-1.00055e-09
-1.12552e-12
-6.70797e-13
-9.99525e-10
-9.60128e-13
-6.58675e-13
-9.99948e-10
-6.99588e-13
-6.48081e-13
-1.00031e-09
-3.68792e-13
-6.40094e-13
-1.00058e-09
-6.34304e-13
-1.00072e-09
-1.11341e-12
-7.82028e-13
-9.99778e-10
-9.49575e-13
-7.67577e-13
-1.00019e-09
-6.91748e-13
-7.55141e-13
-1.00055e-09
-3.64697e-13
-7.45905e-13
-1.00081e-09
-7.39226e-13
-1.00095e-09
-1.09897e-12
-1.00007e-09
-9.37172e-13
-1.00048e-09
-6.82675e-13
-1.00083e-09
-3.59987e-13
-1.00108e-09
-1.00122e-09
-1.55448e-12
-3.55001e-13
-9.98955e-10
-1.32848e-12
-3.47881e-13
-9.99543e-10
-9.69956e-13
-3.41348e-13
-1.00005e-09
-5.12122e-13
-3.36231e-13
-1.00043e-09
-3.32539e-13
-1.00063e-09
-1.55052e-12
-6.70991e-13
-9.99097e-10
-1.32467e-12
-6.57739e-13
-9.99681e-10
-9.66886e-13
-6.45824e-13
-1.00019e-09
-5.1036e-13
-6.36535e-13
-1.00056e-09
-6.29846e-13
-1.00076e-09
-1.53742e-12
-9.15563e-13
-9.99355e-10
-1.31294e-12
-8.97333e-13
-9.99932e-10
-9.57865e-13
-8.81206e-13
-1.00043e-09
-5.05464e-13
-8.68856e-13
-1.00079e-09
-8.59997e-13
-1.00099e-09
-1.5192e-12
-1.06473e-12
-9.99702e-10
-1.29688e-12
-1.04304e-12
-1.00027e-09
-9.45749e-13
-1.02427e-12
-1.00076e-09
-4.98985e-13
-1.01013e-12
-1.00112e-09
-1.00005e-12
-1.00131e-09
-1.49758e-12
-1.0001e-09
-1.27819e-12
-1.00066e-09
-9.31892e-13
-1.00114e-09
-4.91649e-13
-1.00149e-09
-1.00168e-09
-2.1271e-12
-4.86844e-13
-9.98565e-10
-1.82169e-12
-4.76e-13
-9.99372e-10
-1.33355e-12
-4.65751e-13
-1.00007e-09
-7.055e-13
-4.57433e-13
-1.0006e-09
-4.51502e-13
-1.00089e-09
-2.12048e-12
-9.19987e-13
-9.98761e-10
-1.81508e-12
-9.00094e-13
-9.99562e-10
-1.32801e-12
-8.81638e-13
-1.00026e-09
-7.02252e-13
-8.66694e-13
-1.00077e-09
-8.55976e-13
-1.00106e-09
-2.10079e-12
-1.25186e-12
-9.99121e-10
-1.79688e-12
-1.22464e-12
-9.99911e-10
-1.31348e-12
-1.19996e-12
-1.00059e-09
-6.94094e-13
-1.18042e-12
-1.0011e-09
-1.16651e-12
-1.00138e-09
-2.07358e-12
-1.45159e-12
-9.99601e-10
-1.7723e-12
-1.41928e-12
-1.00038e-09
-1.29434e-12
-1.39092e-12
-1.00105e-09
-6.83569e-13
-1.36896e-12
-1.00154e-09
-1.35349e-12
-1.00181e-09
-2.04147e-12
-1.00015e-09
-1.74417e-12
-1.00091e-09
-1.2729e-12
-1.00157e-09
-6.71987e-13
-1.00205e-09
-1.00231e-09
-2.91215e-12
-6.68984e-13
-9.98021e-10
-2.5018e-12
-6.52399e-13
-9.9913e-10
-1.83939e-12
-6.35986e-13
-1.0001e-09
-9.76098e-13
-6.2195e-13
-1.00084e-09
-6.11959e-13
-1.00125e-09
-2.90117e-12
-1.26643e-12
-9.98291e-10
-2.49022e-12
-1.23657e-12
-9.99389e-10
-1.82915e-12
-1.20758e-12
-1.00035e-09
-9.69895e-13
-1.18261e-12
-1.00107e-09
-1.16457e-12
-1.00148e-09
-2.8716e-12
-1.71587e-12
-9.98801e-10
-2.46155e-12
-1.67515e-12
-9.99883e-10
-1.80483e-12
-1.63693e-12
-1.00082e-09
-9.55595e-13
-1.60515e-12
-1.00153e-09
-1.58264e-12
-1.00192e-09
-2.83089e-12
-1.98375e-12
-9.99465e-10
-2.42342e-12
-1.93587e-12
-1.00052e-09
-1.77379e-12
-1.89332e-12
-1.00144e-09
-9.38041e-13
-1.8587e-12
-1.00212e-09
-1.83453e-12
-1.00249e-09
-2.78376e-12
-1.00023e-09
-2.38138e-12
-1.00127e-09
-1.74027e-12
-1.00217e-09
-9.19467e-13
-1.00283e-09
-1.00319e-09
-3.98966e-12
-9.20127e-13
-9.97252e-10
-3.44219e-12
-8.93966e-13
-9.98784e-10
-2.54953e-12
-8.66628e-13
-1.00013e-09
-1.35914e-12
-8.41874e-13
-1.00119e-09
-8.24252e-13
-1.00179e-09
-3.97086e-12
-1.75507e-12
-9.97613e-10
-3.42112e-12
-1.70978e-12
-9.99123e-10
-2.53005e-12
-1.66363e-12
-1.00044e-09
-1.34706e-12
-1.61993e-12
-1.00148e-09
-1.58753e-12
-1.00206e-09
-3.92638e-12
-2.35834e-12
-9.98364e-10
-3.37534e-12
-2.29646e-12
-9.99847e-10
-2.48741e-12
-2.2363e-12
-1.00114e-09
-1.32027e-12
-2.18263e-12
-1.00213e-09
-2.14488e-12
-1.00268e-09
-3.86453e-12
-2.7225e-12
-9.99275e-10
-3.31492e-12
-2.65209e-12
-1.00072e-09
-2.43527e-12
-2.58976e-12
-1.00196e-09
-1.2901e-12
-2.53401e-12
-1.00291e-09
-2.49513e-12
-1.00343e-09
-3.7971e-12
-1.00037e-09
-3.25378e-12
-1.00179e-09
-2.38213e-12
-1.00301e-09
-1.25935e-12
-1.00393e-09
-1.00442e-09
-5.4725e-12
-1.25939e-12
-9.96145e-10
-4.74535e-12
-1.21524e-12
-9.98295e-10
-3.56105e-12
-1.16734e-12
-1.00014e-09
-1.91056e-12
-1.12207e-12
-1.00172e-09
-1.09036e-12
-1.00261e-09
-5.43781e-12
-2.46261e-12
-9.96577e-10
-4.70461e-12
-2.39165e-12
-9.98679e-10
-3.52317e-12
-2.31835e-12
-1.00047e-09
-1.88735e-12
-2.23733e-12
-1.002e-09
-2.17401e-12
-1.00286e-09
-5.37081e-12
-3.24578e-12
-9.97779e-10
-4.63221e-12
-3.14662e-12
-9.99831e-10
-3.4438e-12
-3.04863e-12
-1.00159e-09
-1.83207e-12
-2.95298e-12
-1.00303e-09
-2.88815e-12
-1.0038e-09
-5.27209e-12
-3.76736e-12
-9.98981e-10
-4.53229e-12
-3.6633e-12
-1.00094e-09
-3.35174e-12
-3.57777e-12
-1.00262e-09
-1.77949e-12
-3.48428e-12
-1.00395e-09
-3.41829e-12
-1.00468e-09
-5.18058e-12
-1.00064e-09
-4.45e-12
-1.00257e-09
-3.26538e-12
-1.00425e-09
-1.72433e-12
-1.00552e-09
-1.00617e-09
-7.52877e-12
-1.69662e-12
-9.94493e-10
-6.54852e-12
-1.61722e-12
-9.97658e-10
-5.03535e-12
-1.53341e-12
-1.00012e-09
-2.72197e-12
-1.44896e-12
-1.00258e-09
-1.39039e-12
-1.00394e-09
-7.45676e-12
-3.53983e-12
-9.94818e-10
-6.46133e-12
-3.41665e-12
-9.97875e-10
-4.96177e-12
-3.30478e-12
-1.0002e-09
-2.68265e-12
-3.14371e-12
-1.00258e-09
-3.00794e-12
-1.00393e-09
-7.35718e-12
-4.44446e-12
-9.97071e-10
-6.35979e-12
-4.26859e-12
-9.99976e-10
-4.80286e-12
-4.10679e-12
-1.00235e-09
-2.55112e-12
-3.92672e-12
-1.0045e-09
-3.81536e-12
-1.00554e-09
-7.17797e-12
-5.30231e-12
-9.98403e-10
-6.17778e-12
-5.1387e-12
-1.00107e-09
-4.62968e-12
-5.04279e-12
-1.00323e-09
-2.46649e-12
-4.87328e-12
-1.00517e-09
-4.75269e-12
-1.00621e-09
-7.07075e-12
-1.0012e-09
-6.09413e-12
-1.00385e-09
-4.48314e-12
-1.00616e-09
-2.34808e-12
-1.00795e-09
-1.0087e-09
-1.04287e-11
-2.25525e-12
-9.91817e-10
-9.00053e-12
-2.10286e-12
-9.96984e-10
-7.25961e-12
-1.96663e-12
-9.99896e-10
-3.94642e-12
-1.80485e-12
-1.00409e-09
-1.68659e-12
-1.0062e-09
-1.02688e-11
-5.29742e-12
-9.91424e-10
-8.79436e-12
-5.01662e-12
-9.96436e-10
-7.12421e-12
-4.86071e-12
-9.98974e-10
-3.90728e-12
-4.5098e-12
-1.00309e-09
-4.19871e-12
-1.00532e-09
-1.01202e-11
-6.04397e-12
-9.96374e-10
-8.71344e-12
-5.70726e-12
-1.00069e-09
-6.77526e-12
-5.48045e-12
-1.00367e-09
-3.53385e-12
-5.12361e-12
-1.00712e-09
-4.91058e-12
-1.00836e-09
-9.72913e-12
-7.71394e-12
-9.96985e-10
-8.33245e-12
-7.38873e-12
-1.00079e-09
-6.43204e-12
-7.36047e-12
-1.00325e-09
-3.45799e-12
-7.01008e-12
-1.00626e-09
-6.77856e-12
-1.0078e-09
-9.67198e-12
-1.00248e-09
-8.36241e-12
-1.00625e-09
-6.16547e-12
-1.00934e-09
-3.10918e-12
-1.01205e-09
-1.01239e-09
-1.45872e-11
-3.02164e-12
-9.871e-10
-1.23063e-11
-2.68465e-12
-9.9658e-10
-1.07751e-11
-2.48292e-12
-9.98945e-10
-5.83665e-12
-2.16205e-12
-1.00686e-09
-1.90647e-12
-1.01013e-09
-1.4244e-11
-8.29972e-12
-9.84563e-10
-1.18571e-11
-7.45685e-12
-9.94051e-10
-1.05562e-11
-7.32794e-12
-9.9543e-10
-5.91852e-12
-6.4953e-12
-1.0034e-09
-5.74276e-12
-1.00741e-09
-1.40107e-11
-8.35096e-12
-9.95868e-10
-1.18354e-11
-7.63085e-12
-1.00269e-09
-9.71521e-12
-7.42221e-12
-1.00569e-09
-4.80037e-12
-6.65576e-12
-1.01188e-09
-6.17323e-12
-1.01273e-09
-1.3106e-11
-1.18226e-11
-9.934e-10
-1.10041e-11
-1.08658e-11
-9.99653e-10
-9.02969e-12
-1.12449e-11
-1.0014e-09
-4.96774e-12
-1.03953e-11
-1.00658e-09
-9.9553e-12
-1.00899e-09
-1.33789e-11
-1.00531e-09
-1.14649e-11
-1.01129e-09
-8.49685e-12
-1.01483e-09
-3.81449e-12
-1.01963e-09
-1.01757e-09
-2.04416e-11
-4.16462e-12
-9.78481e-10
-1.69994e-11
-3.32968e-12
-9.96692e-10
-1.65391e-11
-3.08096e-12
-9.96324e-10
-8.91166e-12
-2.42014e-12
-1.01207e-09
-1.86213e-12
-1.01718e-09
-1.96701e-11
-1.35222e-11
-9.71178e-10
-1.61382e-11
-1.10557e-11
-9.89857e-10
-1.62475e-11
-1.12336e-11
-9.87168e-10
-9.51218e-12
-9.22521e-12
-1.00333e-09
-7.33545e-12
-1.01144e-09
-1.94352e-11
-1.19451e-11
-9.95949e-10
-1.60089e-11
-1.03349e-11
-1.00684e-09
-1.41705e-11
-1.03782e-11
-1.00839e-09
-6.41324e-12
-8.6805e-12
-1.02018e-09
-7.41259e-12
-1.01907e-09
-1.7351e-11
-1.93447e-11
-9.85186e-10
-1.43263e-11
-1.61365e-11
-9.96876e-10
-1.28454e-11
-1.81236e-11
-9.95135e-10
-7.44942e-12
-1.58384e-11
-1.00482e-09
-1.5081e-11
-1.00877e-09
-1.9135e-11
-1.01084e-09
-1.54225e-11
-1.02246e-09
-1.16625e-11
-1.02398e-09
-3.87689e-12
-1.03439e-09
-1.02415e-09
-2.84362e-11
-6.07e-12
-9.62346e-10
-2.412e-11
-3.92091e-12
-9.97088e-10
-2.62648e-11
-3.66931e-12
-9.9051e-10
-1.45381e-11
-2.34159e-12
-1.02146e-09
-1.1881e-12
-1.03053e-09
-2.66055e-11
-2.27661e-11
-9.46175e-10
-2.24461e-11
-1.63729e-11
-9.81564e-10
-2.61109e-11
-1.735e-11
-9.69823e-10
-1.67977e-11
-1.2637e-11
-1.00235e-09
-7.85168e-12
-1.02158e-09
-2.67889e-11
-1.77638e-11
-9.982e-10
-2.18055e-11
-1.46567e-11
-1.01354e-09
-2.09192e-11
-1.50054e-11
-1.01162e-09
-8.36596e-12
-1.15893e-11
-1.03378e-09
-7.85153e-12
-1.02743e-09
-2.17777e-11
-3.37484e-11
-9.678e-10
-1.84001e-11
-2.44397e-11
-9.90471e-10
-1.84635e-11
-3.08373e-11
-9.7924e-10
-1.19512e-11
-2.494e-11
-9.97982e-10
-2.36523e-11
-1.00492e-09
-2.88413e-11
-1.02026e-09
-2.07944e-11
-1.04711e-09
-1.57285e-11
-1.03962e-09
-1.70965e-12
-1.06425e-09
-1.03064e-09
-3.87756e-11
-1.01723e-11
-9.31247e-10
-3.54463e-11
-4.44211e-12
-9.95975e-10
-4.22709e-11
-4.25455e-12
-9.79431e-10
-2.48213e-11
-1.89382e-12
-1.03701e-09
7.31624e-13
-1.05608e-09
-3.50598e-11
-3.9493e-11
-9.0118e-10
-3.24125e-11
-2.40946e-11
-9.64559e-10
-4.44771e-11
-2.65875e-11
-9.35425e-10
-3.27443e-11
-1.61323e-11
-9.99841e-10
-3.87321e-12
-1.04972e-09
-3.58484e-11
-2.69289e-11
-1.00677e-09
-2.92206e-11
-2.27947e-11
-1.02147e-09
-3.05505e-11
-2.25028e-11
-1.01437e-09
-9.97594e-12
-1.66279e-11
-1.05386e-09
-5.49035e-12
-1.03579e-09
-2.47803e-11
-6.21253e-11
-9.31119e-10
-2.30059e-11
-3.85833e-11
-9.76457e-10
-2.69942e-11
-5.30079e-11
-9.44747e-10
-2.03671e-11
-4.04283e-11
-9.80809e-10
-3.74123e-11
-9.93366e-10
-4.63623e-11
-1.03499e-09
-2.75231e-11
-1.10142e-09
-2.04137e-11
-1.06667e-09
8.40483e-12
-1.12782e-09
-1.03152e-09
-6.36814e-11
-2.30223e-11
-8.46385e-10
-6.47389e-11
1.62324e-12
-9.96541e-10
-8.23886e-11
2.9997e-12
-9.64781e-10
-4.72129e-11
1.52015e-11
-1.08739e-09
1.45192e-11
-1.11781e-09
-5.22655e-11
-8.36232e-11