/*--------------------------------*- C++ -*----------------------------------*\
| =========                 |                                                 |
| \\      /  F ield         | OpenFOAM: The Open Source CFD Toolbox           |
|  \\    /   O peration     | Version:  5.x                                   |
|   \\  /    A nd           | Web:      www.OpenFOAM.org                      |
|    \\/     M anipulation  |                                                 |
\*---------------------------------------------------------------------------*/
FoamFile
{
    version     2.0;
    format      ascii;
    class       volVectorField;
    location    "4000";
    object      stored_U;
}
// * * * * * * * * * * * * * * * * * * * * * * * * * * * * * * * * * * * * * //

dimensions      [0 1 -1 0 0 0 0];

internalField   nonuniform List<vector> 
180
(
(-0.0117715 -0.00670417 11.3704)
(-0.142166 -0.12529 13.822)
(-0.250679 -0.219099 13.4541)
(-0.281011 -0.228281 13.097)
(-0.236806 -0.154762 12.8605)
(-0.0828075 0.0324329 13.5292)
(-0.109672 -0.0284588 11.7497)
(-0.12019 0.00951137 13.2944)
(-0.171536 -0.00986947 13.3373)
(-0.242719 -0.0141361 12.8599)
(-0.277163 0.000911657 13.0897)
(-0.282881 -0.0221057 12.9069)
(-0.345151 -0.0423587 13.1279)
(-0.374221 -0.0345444 13.0244)
(-0.33009 0.0347354 13.4447)
(-0.285157 0.00833591 12.495)
(-0.220379 0.155869 13.211)
(-0.176903 0.273773 13.2787)
(-0.119563 0.467501 13.5362)
(-0.194209 0.303351 12.3232)
(-0.299503 0.0401559 12.7616)
(-0.478048 -0.314678 12.9074)
(-0.519289 -0.204457 13.2936)
(-0.441538 0.241964 13.651)
(-0.377028 0.175947 12.0898)
(-0.481503 0.0799586 14.1505)
(-0.243224 -0.0655177 12.1893)
(-0.489269 -0.0779128 13.3578)
(-0.528544 0.0614537 14.3009)
(-0.556377 0.0703614 12.0861)
(-1.0676 -0.0657678 13.7232)
(-0.611249 -0.147886 14.0137)
(-1.28131 -0.542188 13.6887)
(-2.11897 -0.912688 13.8305)
(-1.32912 -0.639381 14.2237)
(-1.22256 -0.625925 14.1525)
(-1.07415 -0.581047 14.3972)
(-0.870664 -0.436103 14.3958)
(-0.624222 -0.0651753 14.3124)
(-0.38453 0.339405 14.5469)
(-0.189089 0.428985 14.5959)
(-0.175796 -0.0889001 12.7117)
(-0.280733 -0.270415 15.0742)
(-0.221204 -0.299545 14.2146)
(0.33843 0.211617 12.8571)
(-0.0634757 -0.204258 14.3465)
(-0.357531 -0.423229 14.3499)
(0.282335 0.543941 13.9858)
(0.650041 1.05117 13.801)
(0.495698 0.678694 13.2958)
(0.612552 0.656053 13.5585)
(0.795398 0.674491 13.6873)
(0.881233 0.486794 12.8464)
(0.696921 0.191786 12.0193)
(0.629831 0.0238693 13.5645)
(0.606875 0.00584032 12.6972)
(0.616397 0.0145687 12.407)
(0.442336 -0.0151051 12.4951)
(0.31501 0.0170352 12.4591)
(0.246586 0.0961794 12.4016)
(0.172118 0.176196 12.3312)
(0.103587 0.275551 12.2811)
(0.0394295 0.353521 12.1782)
(-0.0215912 0.382643 12.169)
(-0.0763119 0.378996 12.0027)
(-0.124102 0.128785 12.1824)
(-0.183463 0.0706103 11.3738)
(-0.289265 0.161885 12.6449)
(-0.261276 0.328069 11.7477)
(-0.219768 -0.0107011 12.1554)
(-0.0764022 -0.260069 12.2344)
(0.117815 -0.439179 12.4168)
(0.0839599 -0.612683 11.8953)
(0.162538 -0.481453 11.5209)
(-0.16784 -0.3741 12.1816)
(-0.0218684 -0.474343 12.5232)
(1.00256 -0.802866 12.1538)
(1.63589 -1.01425 12.0464)
(1.45728 -0.928585 11.7946)
(1.46445 -0.865036 12.2788)
(1.24031 -0.39593 10.888)
(1.2322 -0.331505 11.9927)
(0.735551 -0.0624034 11.3077)
(1.12723 -0.18711 11.4496)
(1.37023 -0.126023 11.1646)
(1.32411 -0.0879467 11.5525)
(1.34469 -0.212192 10.4105)
(1.25336 -0.137281 11.1839)
(1.46732 0.118285 10.3767)
(1.65536 0.317832 10.6824)
(2.17843 0.668436 9.91493)
(2.96049 1.124 9.44003)
(4.14277 1.07295 9.63219)
(8.099 3.80565 7.70375)
(10.4056 4.09909 8.06232)
(10.9035 4.49581 6.82528)
(15.0109 7.21548 5.32901)
(13.7115 11.4336 2.69756)
(7.98229 12.262 0.020043)
(5.4779 13.0168 -1.40317)
(2.25171 12.5902 -3.02004)
(-0.645055 12.9408 -4.23874)
(-4.64812 13.972 -6.22465)
(-6.86149 16.6713 -6.43094)
(-10.413 16.2632 -9.40611)
(-14.3129 17.0468 -9.16485)
(-17.0189 17.0675 -10.2368)
(-19.9908 17.944 -10.8853)
(-23.5818 18.795 -10.7601)
(-26.6165 20.1975 -9.83598)
(-31.7341 20.7991 -8.66841)
(-36.68 21.9717 -6.21269)
(-44.7177 24.042 -3.39623)
(-57.8191 28.2336 0.961954)
(-69.826 32.8756 3.64188)
(-78.5477 35.6943 8.5169)
(-85.5997 37.6019 14.0367)
(-82.214 34.1134 18.4816)
(-72.9875 27.126 26.5935)
(-88.3255 33.0237 36.1445)
(-94.6795 35.9804 42.7238)
(-101.208 40.0647 49.1193)
(-106.472 42.9989 58.6009)
(-101.118 37.4588 65.4456)
(-106.271 36.9136 72.8838)
(-107.426 40.7597 81.8905)
(-107.622 37.9181 87.5089)
(-105.11 41.425 94.8729)
(-107.409 42.7246 96.1834)
(-106.234 47.2801 98.6733)
(-114.683 66.4212 93.6595)
(-95.2103 57.0385 88.964)
(-81.4596 53.7824 81.2077)
(-79.3901 67.3776 72.5671)
(-82.7103 105.915 55.6307)
(-45.7001 122.116 43.7574)
(31.6744 71.9461 24.9563)
(139.747 -97.0818 -0.166056)
(113.476 -96.0785 -28.5842)
(104.889 -99.0906 -32.0566)
(104.945 -108.845 -37.7936)
(99.9452 -111.883 -36.0403)
(86.2067 -152.178 -34.3119)
(77.6367 -135.637 -30.82)
(72.0397 -136.205 -15.7566)
(66.5682 -125.912 -13.9042)
(66.0045 -121.49 1.15418)
(62.2079 -108.279 -0.121509)
(55.4853 -92.324 8.24121)
(51.519 -76.5285 11.7532)
(49.2062 -64.2036 16.787)
(46.7835 -54.1482 19.4118)
(43.5419 -46.393 21.8736)
(41.2193 -40.1813 23.3863)
(38.7771 -35.1523 24.3877)
(36.7222 -30.9976 24.9593)
(34.805 -27.3103 25.3705)
(33.1973 -24.316 25.4322)
(31.4252 -21.977 25.3057)
(29.5865 -20.0345 25.1313)
(27.6766 -18.3088 24.8262)
(25.7687 -16.7177 24.4363)
(23.8882 -15.2263 23.9842)
(22.064 -13.8276 23.4948)
(20.306 -12.5216 22.9692)
(18.625 -11.3081 22.4089)
(17.026 -10.1879 21.8207)
(15.5139 -9.15772 21.2009)
(14.0904 -8.21597 20.5559)
(12.7517 -7.35525 19.8931)
(11.4972 -6.57308 19.2751)
(10.33 -5.864 18.7898)
(9.2705 -5.22961 18.3739)
(8.28178 -4.64404 18.1449)
(7.46684 -4.14591 17.675)
(6.45358 -3.54479 17.8335)
(5.84982 -3.02968 16.7436)
(5.32329 -2.60009 17.3779)
(4.31934 -2.47626 17.9538)
(3.11401 -2.18292 17.9483)
)
;

boundaryField
{
    inlet
    {
        type            calculated;
        value           uniform (3.11401 -2.18292 17.9483);
    }
    outlet
    {
        type            calculated;
        value           uniform (-0.0117715 -0.00670417 11.3704);
    }
    repeat_boundary
    {
        type            calculated;
        value           nonuniform List<vector> 
360
(
(-0.0117715 0 11.3704)
(-0.142166 0 13.822)
(-0.250679 0 13.4541)
(-0.281011 0 13.097)
(-0.236806 0 12.8605)
(-0.0828075 0 13.5292)
(-0.109672 0 11.7497)
(-0.12019 0 13.2944)
(-0.171536 0 13.3373)
(-0.242719 0 12.8599)
(-0.277163 0 13.0897)
(-0.282881 0 12.9069)
(-0.345151 0 13.1279)
(-0.374221 0 13.0244)
(-0.33009 0 13.4447)
(-0.285157 0 12.495)
(-0.220379 0 13.211)
(-0.176903 0 13.2787)
(-0.119563 0 13.5362)
(-0.194209 0 12.3232)
(-0.299503 0 12.7616)
(-0.478048 0 12.9074)
(-0.519289 0 13.2936)
(-0.441538 0 13.651)
(-0.377028 0 12.0898)
(-0.481503 0 14.1505)
(-0.243224 0 12.1893)
(-0.489269 0 13.3578)
(-0.528544 0 14.3009)
(-0.556377 0 12.0861)
(-1.0676 0 13.7232)
(-0.611249 0 14.0137)
(-1.28131 0 13.6887)
(-2.11897 0 13.8305)
(-1.32912 0 14.2237)
(-1.22256 0 14.1525)
(-1.07415 0 14.3972)
(-0.870664 0 14.3958)
(-0.624222 0 14.3124)
(-0.38453 0 14.5469)
(-0.189089 0 14.5959)
(-0.175796 0 12.7117)
(-0.280733 0 15.0742)
(-0.221204 0 14.2146)
(0.33843 0 12.8571)
(-0.0634757 0 14.3465)
(-0.357531 0 14.3499)
(0.282335 0 13.9858)
(0.650041 0 13.801)
(0.495698 0 13.2958)
(0.612552 0 13.5585)
(0.795398 0 13.6873)
(0.881233 0 12.8464)
(0.696921 0 12.0193)
(0.629831 0 13.5645)
(0.606875 0 12.6972)
(0.616397 0 12.407)
(0.442336 0 12.4951)
(0.31501 0 12.4591)
(0.246586 0 12.4016)
(0.172118 0 12.3312)
(0.103587 0 12.2811)
(0.0394295 0 12.1782)
(-0.0215912 0 12.169)
(-0.0763119 0 12.0027)
(-0.124102 0 12.1824)
(-0.183463 0 11.3738)
(-0.289265 0 12.6449)
(-0.261276 0 11.7477)
(-0.219768 0 12.1554)
(-0.0764022 0 12.2344)
(0.117815 0 12.4168)
(0.0839599 0 11.8953)
(0.162538 0 11.5209)
(-0.16784 0 12.1816)
(-0.0218684 0 12.5232)
(1.00256 0 12.1538)
(1.63589 0 12.0464)
(1.45728 0 11.7946)
(1.46445 0 12.2788)
(1.24031 0 10.888)
(1.2322 0 11.9927)
(0.735551 0 11.3077)
(1.12723 0 11.4496)
(1.37023 0 11.1646)
(1.32411 0 11.5525)
(1.34469 0 10.4105)
(1.25336 0 11.1839)
(1.46732 0 10.3767)
(1.65536 0 10.6824)
(2.17843 0 9.91493)
(2.96049 0 9.44003)
(4.14277 0 9.63219)
(8.099 0 7.70375)
(10.4056 0 8.06232)
(10.9035 0 6.82528)
(15.0109 0 5.32901)
(13.7115 0 2.69756)
(7.98229 0 0.020043)
(5.4779 0 -1.40317)
(2.25171 0 -3.02004)
(-0.645055 0 -4.23874)
(-4.64812 0 -6.22465)
(-6.86149 0 -6.43094)
(-10.413 0 -9.40611)
(-14.3129 0 -9.16485)
(-17.0189 0 -10.2368)
(-19.9908 0 -10.8853)
(-23.5818 0 -10.7601)
(-26.6165 0 -9.83598)
(-31.7341 0 -8.66841)
(-36.68 0 -6.21269)
(-44.7177 0 -3.39623)
(-57.8191 0 0.961954)
(-69.826 0 3.64188)
(-78.5477 0 8.5169)
(-85.5997 0 14.0367)
(-82.214 0 18.4816)
(-72.9875 0 26.5935)
(-88.3255 0 36.1445)
(-94.6795 0 42.7238)
(-101.208 0 49.1193)
(-106.472 0 58.6009)
(-101.118 0 65.4456)
(-106.271 0 72.8838)
(-107.426 0 81.8905)
(-107.622 0 87.5089)
(-105.11 0 94.8729)
(-107.409 0 96.1834)
(-106.234 0 98.6733)
(-114.683 0 93.6595)
(-95.2103 0 88.964)
(-81.4596 0 81.2077)
(-79.3901 0 72.5671)
(-82.7103 0 55.6307)
(-45.7001 0 43.7574)
(31.6744 0 24.9563)
(139.747 0 -0.166056)
(113.476 0 -28.5842)
(104.889 0 -32.0566)
(104.945 0 -37.7936)
(99.9452 0 -36.0403)
(86.2067 0 -34.3119)
(77.6367 0 -30.82)
(72.0397 0 -15.7566)
(66.5682 0 -13.9042)
(66.0045 0 1.15418)
(62.2079 0 -0.121509)
(55.4853 0 8.24121)
(51.519 0 11.7532)
(49.2062 0 16.787)
(46.7835 0 19.4118)
(43.5419 0 21.8736)
(41.2193 0 23.3863)
(38.7771 0 24.3877)
(36.7222 0 24.9593)
(34.805 0 25.3705)
(33.1973 0 25.4322)
(31.4252 0 25.3057)
(29.5865 0 25.1313)
(27.6766 0 24.8262)
(25.7687 0 24.4363)
(23.8882 0 23.9842)
(22.064 0 23.4948)
(20.306 0 22.9692)
(18.625 0 22.4089)
(17.026 0 21.8207)
(15.5139 0 21.2009)
(14.0904 0 20.5559)
(12.7517 0 19.8931)
(11.4972 0 19.2751)
(10.33 0 18.7898)
(9.2705 0 18.3739)
(8.28178 0 18.1449)
(7.46684 0 17.675)
(6.45358 0 17.8335)
(5.84982 0 16.7436)
(5.32329 0 17.3779)
(4.31934 0 17.9538)
(3.11401 0 17.9483)
(0 -0.00670417 11.3704)
(0 -0.12529 13.822)
(0 -0.219099 13.4541)
(0 -0.228281 13.097)
(0 -0.154762 12.8605)
(0 0.0324329 13.5292)
(0 -0.0284588 11.7497)
(0 0.00951137 13.2944)
(0 -0.00986947 13.3373)
(0 -0.0141361 12.8599)
(0 0.000911657 13.0897)
(0 -0.0221057 12.9069)
(0 -0.0423587 13.1279)
(0 -0.0345444 13.0244)
(0 0.0347354 13.4447)
(0 0.00833591 12.495)
(0 0.155869 13.211)
(0 0.273773 13.2787)
(0 0.467501 13.5362)
(0 0.303351 12.3232)
(0 0.0401559 12.7616)
(0 -0.314678 12.9074)
(0 -0.204457 13.2936)
(0 0.241964 13.651)
(0 0.175947 12.0898)
(0 0.0799586 14.1505)
(0 -0.0655177 12.1893)
(0 -0.0779128 13.3578)
(0 0.0614537 14.3009)
(0 0.0703614 12.0861)
(0 -0.0657678 13.7232)
(0 -0.147886 14.0137)
(0 -0.542188 13.6887)
(0 -0.912688 13.8305)
(0 -0.639381 14.2237)
(0 -0.625925 14.1525)
(0 -0.581047 14.3972)
(0 -0.436103 14.3958)
(0 -0.0651753 14.3124)
(0 0.339405 14.5469)
(0 0.428985 14.5959)
(0 -0.0889001 12.7117)
(0 -0.270415 15.0742)
(0 -0.299545 14.2146)
(0 0.211617 12.8571)
(0 -0.204258 14.3465)
(0 -0.423229 14.3499)
(0 0.543941 13.9858)
(0 1.05117 13.801)
(0 0.678694 13.2958)
(0 0.656053 13.5585)
(0 0.674491 13.6873)
(0 0.486794 12.8464)
(0 0.191786 12.0193)
(0 0.0238693 13.5645)
(0 0.00584032 12.6972)
(0 0.0145687 12.407)
(0 -0.0151051 12.4951)
(0 0.0170352 12.4591)
(0 0.0961794 12.4016)
(0 0.176196 12.3312)
(0 0.275551 12.2811)
(0 0.353521 12.1782)
(0 0.382643 12.169)
(0 0.378996 12.0027)
(0 0.128785 12.1824)
(0 0.0706103 11.3738)
(0 0.161885 12.6449)
(0 0.328069 11.7477)
(0 -0.0107011 12.1554)
(0 -0.260069 12.2344)
(0 -0.439179 12.4168)
(0 -0.612683 11.8953)
(0 -0.481453 11.5209)
(0 -0.3741 12.1816)
(0 -0.474343 12.5232)
(0 -0.802866 12.1538)
(0 -1.01425 12.0464)
(0 -0.928585 11.7946)
(0 -0.865036 12.2788)
(0 -0.39593 10.888)
(0 -0.331505 11.9927)
(0 -0.0624034 11.3077)
(0 -0.18711 11.4496)
(0 -0.126023 11.1646)
(0 -0.0879467 11.5525)
(0 -0.212192 10.4105)
(0 -0.137281 11.1839)
(0 0.118285 10.3767)
(0 0.317832 10.6824)
(0 0.668436 9.91493)
(0 1.124 9.44003)
(0 1.07295 9.63219)
(0 3.80565 7.70375)
(0 4.09909 8.06232)
(0 4.49581 6.82528)
(0 7.21548 5.32901)
(0 11.4336 2.69756)
(0 12.262 0.020043)
(0 13.0168 -1.40317)
(0 12.5902 -3.02004)
(0 12.9408 -4.23874)
(0 13.972 -6.22465)
(0 16.6713 -6.43094)
(0 16.2632 -9.40611)
(0 17.0468 -9.16485)
(0 17.0675 -10.2368)
(0 17.944 -10.8853)
(0 18.795 -10.7601)
(0 20.1975 -9.83598)
(0 20.7991 -8.66841)
(0 21.9717 -6.21269)
(0 24.042 -3.39623)
(0 28.2336 0.961954)
(0 32.8756 3.64188)
(0 35.6943 8.5169)
(0 37.6019 14.0367)
(0 34.1134 18.4816)
(0 27.126 26.5935)
(0 33.0237 36.1445)
(0 35.9804 42.7238)
(0 40.0647 49.1193)
(0 42.9989 58.6009)
(0 37.4588 65.4456)
(0 36.9136 72.8838)
(0 40.7597 81.8905)
(0 37.9181 87.5089)
(0 41.425 94.8729)
(0 42.7246 96.1834)
(0 47.2801 98.6733)
(0 66.4212 93.6595)
(0 57.0385 88.964)
(0 53.7824 81.2077)
(0 67.3776 72.5671)
(0 105.915 55.6307)
(0 122.116 43.7574)
(0 71.9461 24.9563)
(0 -97.0818 -0.166056)
(0 -96.0785 -28.5842)
(0 -99.0906 -32.0566)
(0 -108.845 -37.7936)
(0 -111.883 -36.0403)
(0 -152.178 -34.3119)
(0 -135.637 -30.82)
(0 -136.205 -15.7566)
(0 -125.912 -13.9042)
(0 -121.49 1.15418)
(0 -108.279 -0.121509)
(0 -92.324 8.24121)
(0 -76.5285 11.7532)
(0 -64.2036 16.787)
(0 -54.1482 19.4118)
(0 -46.393 21.8736)
(0 -40.1813 23.3863)
(0 -35.1523 24.3877)
(0 -30.9976 24.9593)
(0 -27.3103 25.3705)
(0 -24.316 25.4322)
(0 -21.977 25.3057)
(0 -20.0345 25.1313)
(0 -18.3088 24.8262)
(0 -16.7177 24.4363)
(0 -15.2263 23.9842)
(0 -13.8276 23.4948)
(0 -12.5216 22.9692)
(0 -11.3081 22.4089)
(0 -10.1879 21.8207)
(0 -9.15772 21.2009)
(0 -8.21597 20.5559)
(0 -7.35525 19.8931)
(0 -6.57308 19.2751)
(0 -5.864 18.7898)
(0 -5.22961 18.3739)
(0 -4.64404 18.1449)
(0 -4.14591 17.675)
(0 -3.54479 17.8335)
(0 -3.02968 16.7436)
(0 -2.60009 17.3779)
(0 -2.47626 17.9538)
(0 -2.18292 17.9483)
)
;
    }
    procBoundary0to1
    {
        type            processor;
        value           nonuniform List<vector> 
180
(
(-0.00906183 0.00389294 10.6961)
(-0.128401 0.0897666 12.5314)
(-0.0932153 0.0686384 11.9464)
(-0.0501955 0.0639466 11.4223)
(0.0301368 -0.0718981 11.5617)
(-0.0296168 0.0764095 10.9258)
(0.0233023 0.061152 11.9294)
(-0.0293396 0.00161819 11.8176)
(-0.101045 -0.213937 11.5245)
(-0.216962 -0.210364 11.8578)
(-0.234776 0.0680333 10.9085)
(-0.191824 0.0991559 11.7153)
(-0.245621 0.182322 11.6873)
(-0.324093 0.147223 11.652)
(-0.281922 0.0685735 11.2178)
(-0.249313 0.2246 10.888)
(-0.177292 0.184269 11.3871)
(-0.109418 0.0280575 11.6069)
(-0.0486342 -0.104675 11.7814)
(-0.164591 0.152301 10.4955)
(-0.231995 0.12285 11.5286)
(-0.409731 0.195171 12.0484)
(-0.39672 0.213476 10.2351)
(-0.270974 0.277649 11.1324)
(-0.42508 0.579327 11.3082)
(-0.533551 0.640412 10.8527)
(-0.673519 0.598013 11.1164)
(-0.409386 0.237231 9.77612)
(-0.489934 0.278736 11.0092)
(-0.193448 0.0220817 10.2076)
(-0.585548 0.265663 10.3356)
(-0.378396 0.197331 10.1521)
(-0.402681 0.238796 9.93535)
(-0.319813 0.126728 9.8666)
(-0.197981 0.0744519 9.75426)
(-0.313324 0.206004 9.53499)
(-0.173451 0.104402 9.67774)
(0.105477 0.0445694 8.93249)
(-0.121785 0.41012 9.58076)
(-0.291648 0.396111 9.62637)
(0.43054 -0.476629 9.7067)
(0.693775 -0.766864 8.99402)
(0.532193 -0.396526 9.55321)
(0.132317 -0.220689 8.98413)
(-0.177101 -0.0879008 9.98587)
(0.200873 -0.189024 9.72587)
(0.776071 -0.473728 9.69782)
(0.939284 -0.682088 9.88589)
(0.486525 -0.605834 9.63895)
(0.395817 -0.604372 9.77419)
(0.466304 -0.562218 10.1603)
(0.635647 -0.491046 10.2238)
(0.714672 -0.425151 10.3685)
(0.644517 -0.375122 10.5415)
(0.585232 -0.320797 10.6611)
(0.567434 -0.270871 10.7717)
(0.503575 -0.226977 10.8813)
(0.418477 -0.186923 10.9728)
(0.336799 -0.148792 11.0399)
(0.257029 -0.11337 11.0912)
(0.180739 -0.0807085 11.1274)
(0.110901 -0.051404 11.1491)
(0.0441306 -0.0257241 11.1582)
(-0.0157447 -0.00322435 11.1553)
(-0.0737906 0.016903 11.1425)
(-0.128698 0.0345933 11.1192)
(-0.198431 0.0516468 11.0904)
(-0.235037 0.0702129 11.0402)
(-0.256766 0.0913515 11.0111)
(-0.22755 0.11114 10.9525)
(-0.147898 0.164054 10.9104)
(-0.0985699 0.249545 10.9039)
(0.207499 0.0193234 11.0231)
(0.0365384 0.0731226 10.2985)
(-0.0168153 0.0425575 11.4476)
(0.53339 -0.134791 11.3696)
(1.53853 -0.734513 11.2188)
(1.85836 -1.03509 11.3872)
(1.47201 -0.773591 11.8086)
(1.54201 -0.725179 11.9425)
(1.59601 -0.676325 12.253)
(1.61924 -0.54223 12.3899)
(1.66721 -0.445999 12.8025)
(1.51186 -0.181898 12.6046)
(1.47504 -0.0468151 12.9415)
(1.47585 0.147607 13.1022)
(1.42294 0.338344 13.6052)
(1.56669 0.448936 11.9434)
(1.95601 0.529622 13.4684)
(2.03521 0.670377 13.4159)
(2.29725 1.3224 13.4003)
(2.61054 1.92769 12.8803)
(2.88178 1.77057 14.012)
(3.23428 1.99579 13.2763)
(4.01377 2.65506 13.916)
(3.9469 3.53171 13.5829)
(6.03725 4.09796 16.1905)
(6.89841 4.84292 17.2958)
(6.42236 6.03113 17.1647)
(6.26117 7.0032 17.8417)
(3.21602 10.6494 16.5158)
(5.31586 11.1142 18.4839)
(6.16749 11.1677 18.8714)
(4.00243 13.6341 15.5574)
(6.00334 16.5123 16.2353)
(0.649807 20.0133 13.8955)
(0.280445 21.0816 11.6551)
(-12.0728 27.5636 10.8103)
(-31.0207 15.5603 3.4037)
(-35.1541 13.615 -1.08747)
(-43.7538 14.5552 -5.38774)
(-53.201 17.4154 -11.0193)
(-65.8214 21.438 -18.3783)
(-80.139 26.8135 -25.9289)
(-91.9155 31.7593 -35.9883)
(-99.0465 34.8554 -47.6917)
(-102.239 35.8357 -59.806)
(-105.833 38.1467 -74.1504)
(-110.751 43.0243 -85.9009)
(-118.02 47.4341 -102.33)
(-124.969 56.5468 -116.511)
(-132.488 65.998 -137.645)
(-136.83 76.6268 -153.361)
(-139.33 92.058 -175.37)
(-137.664 104.964 -196.459)
(-120.449 110.639 -215.985)
(-98.3766 119.104 -240.806)
(-66.6134 122.804 -256.743)
(-21.824 111.297 -277.772)
(26.9296 99.3866 -291.913)
(74.6903 63.5916 -302.406)
(114.987 22.3244 -315.468)
(123.079 -47.6383 -308.39)
(109.023 -72.9813 -298.808)
(103.207 -69.8706 -305.921)
(94.2613 -116.809 -279.156)
(96.3384 -119.517 -264.356)
(90.6858 -135.177 -256.003)
(67.7481 -133.521 -229.288)
(67.3713 -131.189 -212.335)
(66.1588 -132.677 -207.251)
(57.0909 -125.334 -178.996)
(52.3803 -117.81 -169.139)
(48.0569 -106.848 -141.976)
(43.5179 -87.3727 -129.439)
(42.1095 -69.7116 -111.163)
(41.1185 -56.197 -99.5252)
(39.4573 -52.8528 -87.582)
(38.2464 -44.9818 -76.8511)
(34.7876 -37.584 -68.1891)
(31.7741 -29.7858 -59.436)
(30.4303 -26.3795 -52.7274)
(26.9223 -24.4782 -47.0577)
(26.531 -19.0607 -39.4134)
(22.7162 -19.1389 -37.2028)
(22.5049 -14.9082 -29.3005)
(20.0632 -14.1741 -27.7358)
(19.2195 -11.6745 -21.5208)
(17.7948 -10.3807 -19.3872)
(16.8225 -8.87738 -14.9092)
(15.7949 -7.71231 -12.5468)
(14.9742 -6.64955 -9.22445)
(14.2039 -5.72608 -6.92721)
(13.574 -4.92086 -4.369)
(13.0315 -4.19755 -2.30775)
(12.6118 -3.54623 -0.273285)
(12.3199 -2.92253 1.4544)
(12.1988 -2.28686 3.08999)
(12.2039 -1.55341 4.76442)
(11.9676 -0.821723 6.46757)
(10.3749 -0.77054 6.76289)
(8.84374 -0.89115 7.08958)
(7.72664 -0.943161 7.68789)
(6.90669 -0.830618 8.47729)
(6.31813 -0.755171 8.69881)
(4.95854 -0.0937506 9.92181)
(4.68749 0.0411468 8.76543)
(2.23744 0.335983 10.8063)
(0.413682 0.744207 10.4544)
(-1.34233 1.46062 9.88454)
)
;
    }
    procBoundary0to2
    {
        type            processor;
        value           nonuniform List<vector> 
180
(
(-0.0010053 -0.0041185 10.8094)
(0.0735571 -0.111952 12.7044)
(0.0471234 -0.0712326 12.1109)
(0.0386282 -0.0255432 11.5668)
(-0.127401 0.0859654 11.741)
(0.0561003 -0.00488221 11.0865)
(-0.00521909 0.0842437 12.1587)
(-0.138408 0.104986 12.0671)
(-0.433016 0.122571 11.8126)
(-0.442265 0.023801 12.2356)
(-0.0607837 -0.102551 11.1924)
(-0.0739872 -0.0171362 12.1831)
(-0.029139 -0.0320624 12.1687)
(-0.201934 0.0301286 12.2277)
(-0.314101 0.101205 11.9306)
(0.0366298 -0.0411931 11.1148)
(-0.0618046 0.0387624 12.5848)
(-0.332427 0.221624 12.5118)
(-0.812324 0.644243 12.2472)
(-0.849861 0.700365 12.8433)
(-0.299061 0.223967 11.8929)
(-0.285116 0.130428 13.4638)
(0.032327 -0.10712 11.4308)
(0.0106653 0.0374814 12.8602)
(0.0479803 0.0733898 12.9489)
(-0.191721 0.287138 12.357)
(-0.600298 0.532784 12.7544)
(-0.137181 -0.0538652 12.968)
(-0.265506 0.0497976 11.7346)
(-0.267037 -0.0419466 12.7819)
(-0.18683 -0.265058 12.9542)
(-0.0731407 -0.603224 12.7582)
(-0.147131 -0.725767 12.1694)
(-0.167142 -0.609806 13.1218)
(-0.0838421 -0.385642 12.1274)
(-0.109427 -0.113122 12.0184)
(-0.274016 0.297563 12.5852)
(0.0576819 0.191151 11.5292)
(-0.0588247 0.421676 12.6947)
(-0.340987 0.523902 12.8344)
(-0.568185 0.596883 12.5713)
(-0.528864 0.579382 13.3738)
(-0.274445 0.363912 11.3334)
(-0.267068 0.44551 13.9146)
(-0.0842175 0.0579566 11.907)
(-0.419602 0.515373 13.0991)
(-0.587618 0.735734 13.1313)
(-0.675947 0.648004 13.0498)
(-1.0951 1.24745 13.1244)
(-0.961459 0.877658 13.5518)
(-0.909125 0.833161 13.4814)
(-0.79599 0.841764 14.5553)
(-0.40237 0.448188 12.3233)
(-0.194361 0.489275 15.1589)
(-0.0476364 0.14506 12.803)
(0.342671 0.341462 14.8905)
(0.384112 0.166426 13.6814)
(0.326063 0.0447538 13.5036)
(0.150939 0.0674376 13.7823)
(0.0350319 0.0561148 13.6956)
(-0.162108 0.264434 14.0176)
(-0.236564 0.265018 13.0653)
(-0.35427 0.320343 14.3278)
(-0.559548 0.579427 14.6093)
(-0.906852 0.989058 14.4125)
(-1.03216 1.03313 14.5462)
(-0.788406 0.596594 14.4201)
(-0.618425 0.309699 15.3235)
(-0.712662 0.288549 13.6161)
(-0.747066 0.305134 15.6065)
(-0.868919 0.390057 13.7757)
(-0.475433 0.179731 15.1116)
(-0.219914 -0.0817834 15.0438)
(0.141749 -0.221601 14.7392)
(0.772363 -0.666718 14.6673)
(0.405065 -0.542573 14.7249)
(0.507064 -0.275306 13.2821)
(0.554311 -0.269651 14.5857)
(0.488147 -0.0882933 13.9075)
(1.00182 -0.432158 14.1965)
(1.08055 -0.42789 12.8234)
(0.976814 -0.275732 13.657)
(1.13195 -0.283566 13.3366)
(1.40355 -0.292397 13.6504)
(1.43194 -0.135279 12.0658)
(1.37882 0.0299173 12.8279)
(1.52794 0.0168835 13.3555)
(1.85015 0.193462 11.6503)
(2.29512 0.365048 12.2045)
(2.43779 0.364549 12.4759)
(2.87139 0.796697 11.8813)
(3.36427 1.37383 11.7778)
(3.03099 1.26342 10.9259)
(4.33824 1.49931 11.1792)
(5.24097 1.54597 11.8478)
(4.86813 2.18194 10.264)
(7.11096 3.20811 10.928)
(8.36404 3.68233 11.8374)
(6.77173 3.63889 10.3308)
(8.1715 5.4603 11.5275)
(8.23536 6.00708 11.9737)
(8.13403 6.64053 11.7904)
(8.23497 7.32773 12.1233)
(8.37208 7.99359 12.982)
(7.02789 8.10054 13.1264)
(6.76668 8.59292 13.3927)
(6.33073 11.3961 15.4426)
(5.41905 11.2159 15.4021)
(0.991851 9.6822 15.958)
(0.913104 13.3596 18.6152)
(-0.32568 14.8185 20.0223)
(-2.57251 14.4587 21.5578)
(-7.7548 14.1959 24.9626)
(-12.3969 13.1345 29.4674)
(-18.0365 13.884 32.7064)
(-19.5384 13.3584 39.6414)
(-25.2304 16.1613 43.4501)
(-27.5603 19.9537 50.9398)
(-35.2152 21.9565 56.7345)
(-40.7559 25.4926 66.1735)
(-44.3077 30.4197 73.6755)
(-57.0393 30.6939 81.8979)
(-68.2426 42.1116 94.9471)
(-76.1433 45.2461 105.844)
(-87.0532 51.1259 119.619)
(-96.983 50.0588 132.911)
(-101.198 53.4423 148.028)
(-101.62 54.9073 163.157)
(-102.389 61.8608 176.564)
(-102.907 64.7264 191.682)
(-107.765 79.0005 203.982)
(-102.827 76.328 220.745)
(-98.8774 82.6369 225.568)
(-97.8552 117.398 247.418)
(-94.6761 117.831 251.828)
(-96.0846 138.711 262.906)
(-59.8038 178.332 290.698)
(-37.483 190.94 300.077)
(-21.0528 200.838 303.389)
(31.6726 169.641 315.257)
(98.5434 63.0338 314.477)
(131.718 -32.6892 297.081)
(141.322 -111.048 276.22)
(133.521 -155.163 250.34)
(118.521 -175.779 226.501)
(101.187 -178.348 203.487)
(85.1932 -168.483 183.137)
(71.7117 -151.989 164.378)
(61.1693 -133.294 147.889)
(53.3863 -115.093 133.393)
(47.8083 -98.82 120.803)
(43.7855 -84.8717 109.834)
(40.6178 -73.1225 100.103)
(37.8277 -63.2884 91.3614)
(35.2092 -55.0324 83.4772)
(32.679 -48.0492 76.3453)
(30.2227 -42.0881 69.8903)
(27.8524 -36.9525 64.0487)
(25.5887 -32.4938 58.74)
(23.4474 -28.5979 53.8975)
(21.4366 -25.1787 49.4826)
(19.5614 -22.1684 45.459)
(17.8181 -19.5143 41.7991)
(16.2035 -17.1726 38.4714)
(14.7133 -15.107 35.4501)
(13.3407 -13.2842 32.7104)
(12.0789 -11.678 30.2318)
(10.9183 -10.2597 27.9928)
(9.85289 -9.01506 25.9778)
(8.86737 -7.9087 24.1717)
(7.95928 -6.94806 22.5678)
(7.10657 -6.0711 21.1884)
(6.32645 -5.35323 19.9466)
(5.56758 -4.645 18.9188)
(4.89753 -4.15448 17.8951)
(4.04682 -3.58821 17.3487)
(3.61484 -3.15626 15.9478)
(2.82085 -3.1299 16.7605)
(2.314 -2.50677 15.7558)
(0.979779 -2.34711 15.7901)
)
;
    }
}


// ************************************************************************* //
