/*--------------------------------*- C++ -*----------------------------------*\
| =========                 |                                                 |
| \\      /  F ield         | OpenFOAM: The Open Source CFD Toolbox           |
|  \\    /   O peration     | Version:  5.x                                   |
|   \\  /    A nd           | Web:      www.OpenFOAM.org                      |
|    \\/     M anipulation  |                                                 |
\*---------------------------------------------------------------------------*/
FoamFile
{
    version     2.0;
    format      ascii;
    class       volScalarField;
    location    "4000";
    object      p;
}
// * * * * * * * * * * * * * * * * * * * * * * * * * * * * * * * * * * * * * //

dimensions      [0 2 -2 0 0 0 0];

internalField   nonuniform List<scalar> 
180
(
-1.5507e-09
-4.5597e-09
-7.49883e-09
-1.0488e-08
-1.35092e-08
-1.65889e-08
-1.97347e-08
-2.29522e-08
-2.62437e-08
-2.96087e-08
-3.30439e-08
-3.65428e-08
-4.00968e-08
-4.3695e-08
-4.73253e-08
-5.09746e-08
-5.46301e-08
-5.82795e-08
-6.19124e-08
-6.55205e-08
-6.90987e-08
-7.26452e-08
-7.61621e-08
-7.96555e-08
-8.31355e-08
-8.66154e-08
-9.01117e-08
-9.36428e-08
-9.72281e-08
-1.00887e-07
-1.04635e-07
-1.08488e-07
-1.12452e-07
-1.16528e-07
-1.20708e-07
-1.24971e-07
-1.29284e-07
-1.33597e-07
-1.37845e-07
-1.41941e-07
-1.45779e-07
-1.49228e-07
-1.5213e-07
-1.54299e-07
-1.55517e-07
-1.55531e-07
-1.54046e-07
-1.50722e-07
-1.45167e-07
-1.36931e-07
-1.25498e-07
-1.10272e-07
-9.05728e-08
-6.56173e-08
-3.45081e-08
3.78435e-09
5.04405e-08
1.06812e-07
1.74447e-07
2.5511e-07
3.50817e-07
4.63859e-07
5.96835e-07
7.52683e-07
9.34716e-07
1.14665e-06
1.39263e-06
1.67729e-06
2.00573e-06
2.38354e-06
2.81691e-06
3.31297e-06
3.88011e-06
4.52434e-06
5.23681e-06
6.00023e-06
6.92426e-06
8.49228e-06
1.05737e-05
4.39392e-06
-6.23769e-05
0.000553096
0.00113145
0.001467
0.00294929
0.004678
0.00688811
0.00777577
0.0082506
0.00934189
0.0126826
0.0149411
0.0171524
0.0175268
0.0189735
0.0199252
0.0203805
0.0214797
0.0217199
0.0225098
0.0242612
0.0247302
0.0248874
0.0248878
0.0248892
0.0248923
0.0248924
0.0248924
0.0248925
0.0248925
0.0248924
0.0248922
0.0248919
0.0248916
0.0248913
0.0248911
0.0248908
0.0248905
0.0248902
0.02489
0.0248897
0.0248895
0.0248893
0.0248891
0.0248889
0.0248888
0.0248886
0.0248885
0.0248884
0.0248883
0.0248882
0.0248881
0.0248881
0.024888
0.0248879
0.0248879
0.0248878
0.0248878
0.0248878
0.0248877
0.0248877
0.0248877
0.0248877
0.0248876
0.0248876
0.0248876
0.0248876
0.0248876
0.0248876
0.0248876
0.0248876
0.0248875
0.0248875
0.0248875
0.0248875
0.0248875
0.0248875
0.0248875
0.0248875
0.0248875
0.0248875
0.0248875
0.0248875
0.0248875
0.0248875
0.0248875
0.0248875
0.0248875
0.0248875
0.0248875
0.0248875
0.0248875
0.0248875
0.0248875
0.0248875
0.0248875
0.0248875
0.0248875
0.0248875
0.0248875
)
;

boundaryField
{
    inlet
    {
        type            zeroGradient;
    }
    outlet
    {
        type            fixedValue;
        value           uniform 0;
    }
    repeat_boundary
    {
        type            zeroGradient;
    }
    procBoundary2to0
    {
        type            processor;
        value           nonuniform List<scalar> 
180
(
-1.01358e-09
-3.0465e-09
-5.10496e-09
-7.15701e-09
-9.19592e-09
-1.12195e-08
-1.32257e-08
-1.52129e-08
-1.7179e-08
-1.91214e-08
-2.10365e-08
-2.29194e-08
-2.47639e-08
-2.6562e-08
-2.8304e-08
-2.99784e-08
-3.15716e-08
-3.30684e-08
-3.44524e-08
-3.57054e-08
-3.6809e-08
-3.77438e-08
-3.84905e-08
-3.90302e-08
-3.93446e-08
-3.94163e-08
-3.92291e-08
-3.87675e-08
-3.80167e-08
-3.6962e-08
-3.55881e-08
-3.38777e-08
-3.18106e-08
-2.93617e-08
-2.64998e-08
-2.3185e-08
-1.93672e-08
-1.49837e-08
-9.95697e-09
-4.19257e-09
2.42325e-09
1.00255e-08
1.87727e-08
2.88488e-08
4.04648e-08
5.38612e-08
6.93095e-08
8.71142e-08
1.07615e-07
1.3119e-07
1.58257e-07
1.89277e-07
2.24762e-07
2.65276e-07
3.11447e-07
3.6397e-07
4.23621e-07
4.91273e-07
5.67909e-07
6.54644e-07
7.52753e-07
8.63699e-07
9.89169e-07
1.13111e-06
1.29179e-06
1.47385e-06
1.68035e-06
1.91486e-06
2.18157e-06
2.48528e-06
2.83167e-06
3.22799e-06
3.68396e-06
4.20712e-06
4.78195e-06
5.3667e-06
6.09753e-06
7.90028e-06
1.14986e-05
5.69144e-06
-0.000119728
0.000767158
0.00127886
0.00144297
0.00194184
0.0028921
0.00456368
0.00519289
0.00947107
0.0120522
0.0132838
0.0135392
0.0142457
0.0162221
0.0168461
0.0184671
0.0196022
0.0204215
0.0214647
0.022119
0.0231256
0.0243793
0.0246357
0.0248694
0.0249658
0.0249319
0.0249213
0.0249163
0.0249121
0.0249082
0.0249048
0.024902
0.0248997
0.0248977
0.0248961
0.0248947
0.0248935
0.0248925
0.0248917
0.024891
0.0248904
0.0248899
0.0248895
0.0248892
0.0248889
0.0248886
0.0248884
0.0248883
0.0248881
0.024888
0.0248879
0.0248878
0.0248878
0.0248877
0.0248877
0.0248876
0.0248876
0.0248876
0.0248875
0.0248875
0.0248875
0.0248875
0.0248875
0.0248875
0.0248875
0.0248875
0.0248875
0.0248875
0.0248875
0.0248875
0.0248875
0.0248875
0.0248875
0.0248875
0.0248875
0.0248875
0.0248875
0.0248875
0.0248875
0.0248875
0.0248875
0.0248875
0.0248875
0.0248875
0.0248875
0.0248875
0.0248875
0.0248875
0.0248875
0.0248875
0.0248875
0.0248875
0.0248875
0.0248875
0.0248875
0.0248875
0.0248875
0.0248875
0.0248875
0.0248875
)
;
    }
    procBoundary2to3
    {
        type            processor;
        value           nonuniform List<scalar> 
180
(
-1.4123e-09
-4.29196e-09
-7.21954e-09
-1.0155e-08
-1.31024e-08
-1.60706e-08
-1.9067e-08
-2.20993e-08
-2.51754e-08
-2.83034e-08
-3.1491e-08
-3.47458e-08
-3.8075e-08
-4.1485e-08
-4.4982e-08
-4.85716e-08
-5.22591e-08
-5.60499e-08
-5.99499e-08
-6.39657e-08
-6.81054e-08
-7.23794e-08
-7.68007e-08
-8.13858e-08
-8.61555e-08
-9.11351e-08
-9.63553e-08
-1.01852e-07
-1.07667e-07
-1.13847e-07
-1.20445e-07
-1.27517e-07
-1.35124e-07
-1.43329e-07
-1.52199e-07
-1.61797e-07
-1.7219e-07
-1.83439e-07
-1.95602e-07
-2.08731e-07
-2.22872e-07
-2.38061e-07
-2.54323e-07
-2.71675e-07
-2.90116e-07
-3.09632e-07
-3.30192e-07
-3.51741e-07
-3.742e-07
-3.9746e-07
-4.21375e-07
-4.45755e-07
-4.70354e-07
-4.9486e-07
-5.18872e-07
-5.41883e-07
-5.63251e-07
-5.82161e-07
-5.97586e-07
-6.08229e-07
-6.12466e-07
-6.08259e-07
-5.9307e-07
-5.6375e-07
-5.16404e-07
-4.46247e-07
-3.47422e-07
-2.12803e-07
-3.37548e-08
2.00148e-07
5.01585e-07
8.86383e-07
1.374e-06
1.98155e-06
2.70927e-06
3.56423e-06
4.77759e-06
7.12685e-06
1.04127e-05
2.38723e-06
-6.64983e-05
0.000735925
0.00110628
0.00143864
0.00422742
0.00501371
0.00818688
0.0105538
0.0109645
0.0128382
0.0137673
0.0137602
0.0158782
0.0193145
0.0194274
0.020438
0.0209229
0.0212158
0.0222487
0.0226476
0.0229555
0.0239227
0.0249283
0.0248684
0.0248739
0.0248766
0.0248762
0.0248766
0.0248775
0.0248784
0.0248793
0.0248801
0.0248808
0.0248815
0.0248822
0.0248827
0.0248833
0.0248837
0.0248841
0.0248845
0.0248849
0.0248852
0.0248854
0.0248857
0.0248859
0.0248861
0.0248862
0.0248864
0.0248865
0.0248866
0.0248867
0.0248868
0.0248869
0.024887
0.024887
0.0248871
0.0248871
0.0248872
0.0248872
0.0248872
0.0248873
0.0248873
0.0248873
0.0248873
0.0248874
0.0248874
0.0248874
0.0248874
0.0248874
0.0248874
0.0248874
0.0248874
0.0248874
0.0248874
0.0248875
0.0248875
0.0248875
0.0248875
0.0248875
0.0248875
0.0248875
0.0248875
0.0248875
0.0248875
0.0248875
0.0248875
0.0248875
0.0248875
0.0248875
0.0248875
0.0248875
0.0248875
0.0248875
0.0248875
0.0248875
0.0248875
0.0248875
0.0248875
0.0248875
0.0248875
)
;
    }
}


// ************************************************************************* //
