/*--------------------------------*- C++ -*----------------------------------*\
| =========                 |                                                 |
| \\      /  F ield         | OpenFOAM: The Open Source CFD Toolbox           |
|  \\    /   O peration     | Version:  5.x                                   |
|   \\  /    A nd           | Web:      www.OpenFOAM.org                      |
|    \\/     M anipulation  |                                                 |
\*---------------------------------------------------------------------------*/
FoamFile
{
    version     2.0;
    format      ascii;
    class       surfaceScalarField;
    location    "4000";
    object      phi;
}
// * * * * * * * * * * * * * * * * * * * * * * * * * * * * * * * * * * * * * //

dimensions      [0 3 -1 0 0 0 0];

internalField   nonuniform List<scalar> 
179
(
-249.976
-249.975
-249.975
-249.974
-249.973
-249.971
-249.97
-249.967
-249.965
-249.962
-249.959
-249.956
-249.952
-249.947
-249.942
-249.936
-249.93
-249.923
-249.915
-249.906
-249.896
-249.885
-249.872
-249.858
-249.843
-249.826
-249.806
-249.785
-249.761
-249.734
-249.704
-249.671
-249.634
-249.593
-249.547
-249.496
-249.439
-249.375
-249.303
-249.224
-249.135
-249.035
-248.924
-248.8
-248.661
-248.506
-248.332
-248.137
-247.919
-247.676
-247.402
-247.096
-246.753
-246.368
-245.936
-245.451
-244.907
-244.296
-243.609
-242.837
-241.969
-240.992
-239.893
-238.656
-237.262
-235.692
-233.921
-231.924
-229.67
-227.125
-224.251
-221.002
-217.329
-213.174
-208.481
-203.202
-197.355
-191.136
-185.176
-180.801
-180.506
-180.507
-177.537
-177.417
-178.59
-178.892
-183.841
-182.145
-171.979
-168.947
-165.247
-171.227
-172.882
-172.405
-171.653
-173.818
-173.689
-175.343
-171.542
-173.089
-180.241
-183.807
-189.196
-194.631
-198.974
-204.624
-210.251
-215.365
-219.87
-223.804
-227.231
-230.212
-232.806
-235.061
-237.022
-238.727
-240.209
-241.497
-242.616
-243.589
-244.434
-245.168
-245.805
-246.359
-246.84
-247.258
-247.621
-247.935
-248.209
-248.446
-248.652
-248.831
-248.986
-249.12
-249.237
-249.338
-249.426
-249.502
-249.568
-249.625
-249.674
-249.717
-249.754
-249.786
-249.814
-249.838
-249.86
-249.878
-249.894
-249.909
-249.921
-249.931
-249.941
-249.949
-249.956
-249.962
-249.967
-249.972
-249.976
-249.979
-249.982
-249.984
-249.987
-249.989
-249.99
-249.992
-249.993
-249.994
-249.995
-249.996
-249.996
-249.997
-249.997
-249.998
-249.998
-249.999
-249.999
-249.999
-249.999
)
;

boundaryField
{
    inlet
    {
        type            calculated;
        value           uniform -250;
    }
    outlet
    {
        type            calculated;
        value           uniform 249.976;
    }
    repeat_boundary
    {
        type            calculated;
        value           uniform 0;
    }
    procBoundary2to0
    {
        type            processor;
        value           nonuniform List<scalar> 
180
(
-0.000283043
-0.000420984
-0.00062783
-0.000866353
-0.00112218
-0.00139218
-0.00167753
-0.00198083
-0.00230525
-0.00265426
-0.00303164
-0.00344147
-0.00388822
-0.00437675
-0.0049124
-0.00550107
-0.00614921
-0.00686398
-0.00765328
-0.00852589
-0.00949151
-0.0105609
-0.0117461
-0.0130604
-0.0145187
-0.0161374
-0.0179349
-0.0199318
-0.0221509
-0.0246176
-0.0273605
-0.0304112
-0.0338052
-0.037582
-0.0417859
-0.0464661
-0.0516779
-0.057483
-0.0639502
-0.0711569
-0.0791892
-0.088144
-0.0981295
-0.109267
-0.121692
-0.135558
-0.151036
-0.168317
-0.187617
-0.209178
-0.233272
-0.260204
-0.290318
-0.324001
-0.361689
-0.403874
-0.451108
-0.504014
-0.563296
-0.629747
-0.704263
-0.787859
-0.88168
-0.98702
-1.10534
-1.23831
-1.38779
-1.55593
-1.74513
-1.95813
-2.19805
-2.46841
-2.77306
-3.11574
-3.49766
-3.90972
-4.31016
-4.57503
-4.42193
-3.37618
-0.252074
-0.0566964
-3.27821
-0.251152
3.34359
-0.0470531
5.69874
3.21393
-1.94408
-2.90079
-0.748112
4.39318
1.03465
3.35602
1.31681
3.06399
1.27264
1.98672
0.385336
1.08328
1.8572
2.02522
4.99254
3.32707
1.53825
2.1078
2.17245
1.9829
1.73636
1.50134
1.29168
1.10821
0.949168
0.811908
0.693555
0.591664
0.504061
0.428805
0.364213
0.308826
0.261377
0.220771
0.18606
0.156421
0.131146
0.10962
0.0913141
0.0757701
0.0625935
0.051443
0.0420265
0.0340916
0.0274203
0.0218242
0.0171414
0.0132395
0.0100299
0.00733189
0.00504117
0.00311016
0.00151016
0.00031646
-0.000444356
-0.00104393
-0.00129448
-0.00152062
-0.00171619
-0.00185858
-0.00196137
-0.00202954
-0.00206742
-0.00207935
-0.0020694
-0.00204136
-0.00199861
-0.00194416
-0.00188069
-0.00181047
-0.00173537
-0.00165696
-0.0015767
-0.00149574
-0.00141521
-0.00133605
-0.00125889
-0.00118436
-0.00111308
-0.00104555
-0.000982108
-0.000923011
-0.00086843
-0.000818476
-0.000773211
-0.000732654
-0.000696787
-0.000665536
-0.000638727
-0.000616431
-0.000597767
-0.000590744
)
;
    }
    procBoundary2to3
    {
        type            processor;
        value           nonuniform List<scalar> 
180
(
-1.81823e-05
-2.46117e-05
-3.3346e-05
-4.45162e-05
-5.72835e-05
-7.12679e-05
-8.64331e-05
-0.000102939
-0.000121028
-0.000140987
-0.000163144
-0.000187869
-0.00021558
-0.000246758
-0.000281958
-0.000321818
-0.000367077
-0.000418589
-0.000477334
-0.00054445
-0.000621248
-0.000709239
-0.000810163
-0.000926042
-0.00105921
-0.00121235
-0.00138853
-0.00159129
-0.00182471
-0.00209352
-0.00240316
-0.0027599
-0.00317096
-0.00364463
-0.00419048
-0.00481951
-0.00554436
-0.00637959
-0.00734194
-0.00845065
-0.00972783
-0.011199
-0.0128936
-0.0148453
-0.0170932
-0.0196822
-0.0226638
-0.0260978
-0.0300527
-0.0346077
-0.0398537
-0.0458959
-0.052855
-0.0608705
-0.0701027
-0.0807366
-0.0929852
-0.107094
-0.123347
-0.142073
-0.163647
-0.188507
-0.217152
-0.250167
-0.28823
-0.332125
-0.382755
-0.441169
-0.508586
-0.586419
-0.67631
-0.780153
-0.900079
-1.03817
-1.19545
-1.36841
-1.53688
-1.64409
-1.53728
-0.999823
-0.0426543
0.0574137
0.308118
0.131483
-2.1711
0.349697
-0.749637
-4.91023
-8.22242
-0.130604
-2.95186
1.58739
0.61981
-3.83338
-2.06858
-0.899531
-1.40083
-0.332987
-4.18737
0.463678
5.29554
1.54119
0.395795
2.10831
2.80392
3.54133
3.45424
3.12994
2.76841
2.43244
2.1346
1.87316
1.64399
1.44313
1.26708
1.11276
0.977464
0.858829
0.754785
0.663521
0.583451
0.513187
0.451515
0.397371
0.349827
0.308066
0.271375
0.239132
0.210788
0.185865
0.163944
0.144658
0.127684
0.112743
0.0995849
0.087995
0.0777831
0.0687826
0.060847
0.0538472
0.0476692
0.0422124
0.0373891
0.0331241
0.0293511
0.026014
0.0230622
0.0204508
0.0181402
0.0160956
0.014286
0.0126842
0.0112662
0.0100107
0.00889878
0.00791398
0.00704162
0.00626876
0.00558398
0.00497721
0.00443957
0.00396323
0.00354127
0.00316762
0.00283691
0.00254443
0.00228603
0.00205805
0.00185728
0.00168092
0.00152651
0.00139188
0.00127517
0.00117478
0.00108932
0.00101764
0.000958801
0.000911713
0.00087718
0.000872223
)
;
    }
}


// ************************************************************************* //
