/*--------------------------------*- C++ -*----------------------------------*\
| =========                 |                                                 |
| \\      /  F ield         | OpenFOAM: The Open Source CFD Toolbox           |
|  \\    /   O peration     | Version:  5.x                                   |
|   \\  /    A nd           | Web:      www.OpenFOAM.org                      |
|    \\/     M anipulation  |                                                 |
\*---------------------------------------------------------------------------*/
FoamFile
{
    version     2.0;
    format      ascii;
    class       surfaceScalarField;
    location    "0.001";
    object      phi;
}
// * * * * * * * * * * * * * * * * * * * * * * * * * * * * * * * * * * * * * //

dimensions      [0 3 -1 0 0 0 0];

internalField   nonuniform List<scalar> 
179
(
-2.50002e-10
-2.50002e-10
-2.50002e-10
-2.50002e-10
-2.50002e-10
-2.50001e-10
-2.50001e-10
-2.50001e-10
-2.50001e-10
-2.5e-10
-2.5e-10
-2.49999e-10
-2.49999e-10
-2.49998e-10
-2.49998e-10
-2.49997e-10
-2.49997e-10
-2.49996e-10
-2.49995e-10
-2.49994e-10
-2.49993e-10
-2.49992e-10
-2.49991e-10
-2.49989e-10
-2.49988e-10
-2.49986e-10
-2.49984e-10
-2.49982e-10
-2.49979e-10
-2.49976e-10
-2.49973e-10
-2.49969e-10
-2.49964e-10
-2.49959e-10
-2.49953e-10
-2.49947e-10
-2.49939e-10
-2.49931e-10
-2.49921e-10
-2.49909e-10
-2.49897e-10
-2.49882e-10
-2.49865e-10
-2.49846e-10
-2.49825e-10
-2.498e-10
-2.49772e-10
-2.49741e-10
-2.49705e-10
-2.49664e-10
-2.49618e-10
-2.49565e-10
-2.49505e-10
-2.49438e-10
-2.49361e-10
-2.49274e-10
-2.49175e-10
-2.49063e-10
-2.48936e-10
-2.48792e-10
-2.48629e-10
-2.48444e-10
-2.48235e-10
-2.47997e-10
-2.47728e-10
-2.47424e-10
-2.47078e-10
-2.46687e-10
-2.46244e-10
-2.45742e-10
-2.45173e-10
-2.44529e-10
-2.43799e-10
-2.42973e-10
-2.42036e-10
-2.40975e-10
-2.39775e-10
-2.3841e-10
-2.36847e-10
-2.35074e-10
-2.34669e-10
-2.34736e-10
-2.38027e-10
-2.38563e-10
-2.31759e-10
-2.18536e-10
-2.15974e-10
-2.07874e-10
-2.09071e-10
-2.20998e-10
-2.36648e-10
-2.47929e-10
-2.60268e-10
-2.76199e-10
-2.80814e-10
-2.79078e-10
-2.66767e-10
-2.57937e-10
-2.49483e-10
-2.4448e-10
-2.38539e-10
-2.34579e-10
-2.35647e-10
-2.39002e-10
-2.41061e-10
-2.42679e-10
-2.44048e-10
-2.45199e-10
-2.46157e-10
-2.46952e-10
-2.47609e-10
-2.4815e-10
-2.48594e-10
-2.48957e-10
-2.49251e-10
-2.49489e-10
-2.4968e-10
-2.49831e-10
-2.4995e-10
-2.50042e-10
-2.50112e-10
-2.50165e-10
-2.50203e-10
-2.50229e-10
-2.50245e-10
-2.50254e-10
-2.50257e-10
-2.50256e-10
-2.50251e-10
-2.50243e-10
-2.50234e-10
-2.50223e-10
-2.50211e-10
-2.50199e-10
-2.50187e-10
-2.50175e-10
-2.50163e-10
-2.50151e-10
-2.5014e-10
-2.50129e-10
-2.50119e-10
-2.5011e-10
-2.50101e-10
-2.50093e-10
-2.50085e-10
-2.50077e-10
-2.50071e-10
-2.50064e-10
-2.50059e-10
-2.50053e-10
-2.50048e-10
-2.50044e-10
-2.5004e-10
-2.50036e-10
-2.50032e-10
-2.50029e-10
-2.50026e-10
-2.50024e-10
-2.50021e-10
-2.50019e-10
-2.50017e-10
-2.50015e-10
-2.50014e-10
-2.50012e-10
-2.50011e-10
-2.5001e-10
-2.50009e-10
-2.50008e-10
-2.50007e-10
-2.50006e-10
-2.50005e-10
-2.50004e-10
-2.50004e-10
-2.50003e-10
-2.50003e-10
-2.50002e-10
-2.50002e-10
-2.50001e-10
-2.50001e-10
)
;

boundaryField
{
    inlet
    {
        type            calculated;
        value           uniform -2.5e-10;
    }
    outlet
    {
        type            calculated;
        value           uniform 2.50002e-10;
    }
    repeat_boundary
    {
        type            calculated;
        value           uniform 0;
    }
    procBoundary0to1
    {
        type            processor;
        value           nonuniform List<scalar> 
180
(
2.95954e-17
6.8132e-17
1.11159e-16
1.55046e-16
2.00008e-16
2.46666e-16
2.95633e-16
3.47536e-16
4.03029e-16
4.62805e-16
5.27612e-16
5.98259e-16
6.75634e-16
7.60705e-16
8.54535e-16
9.5829e-16
1.07325e-15
1.2008e-15
1.3425e-15
1.50002e-15
1.67521e-15
1.8701e-15
2.08694e-15
2.32818e-15
2.59655e-15
2.89507e-15
3.22706e-15
3.59623e-15
4.00666e-15
4.46291e-15
4.97004e-15
5.53364e-15
6.15995e-15
6.85586e-15
7.62904e-15
8.48794e-15
9.44194e-15
1.05014e-14
1.16778e-14
1.29837e-14
1.44331e-14
1.60412e-14
1.7825e-14
1.98032e-14
2.1996e-14
2.44262e-14
2.71184e-14
3.00998e-14
3.34006e-14
3.70535e-14
4.10947e-14
4.55641e-14
5.05053e-14
5.59661e-14
6.19992e-14
6.86618e-14
7.6017e-14
8.41333e-14
9.30857e-14
1.02956e-13
1.13832e-13
1.2581e-13
1.38994e-13
1.53496e-13
1.69437e-13
1.86946e-13
2.0616e-13
2.27225e-13
2.50298e-13
2.75538e-13
3.03116e-13
3.33203e-13
3.65973e-13
4.01597e-13
4.4022e-13
4.81999e-13
5.27272e-13
5.74751e-13
5.99843e-13
4.91743e-13
2.03411e-14
3.39949e-14
4.69215e-12
3.23373e-13
-4.08532e-12
-9.23092e-12
-1.65949e-12
-4.59679e-12
4.13637e-13
3.52459e-12
3.00957e-12
1.03037e-12
-3.43077e-13
-1.2796e-12
-7.19892e-13
-2.24408e-12
-5.57158e-12
-2.74715e-12
-2.48385e-12
-1.63186e-12
-3.36069e-12
-4.02936e-12
-5.68572e-13
9.78478e-13
1.32582e-12
2.24936e-12
2.11658e-12
1.87464e-12
1.64763e-12
1.44661e-12
1.27019e-12
1.11556e-12
9.79988e-13
8.61101e-13
7.56821e-13
6.65332e-13
5.85046e-13
5.14574e-13
4.52766e-13
3.98515e-13
3.50833e-13
3.08902e-13
2.72025e-13
2.39593e-13
2.11069e-13
1.85982e-13
1.63915e-13
1.44502e-13
1.27419e-13
1.12384e-13
9.91475e-14
8.74911e-14
7.72234e-14
6.81763e-14
6.02023e-14
5.31719e-14
4.69718e-14
4.15028e-14
3.66774e-14
3.24191e-14
2.86605e-14
2.53423e-14
2.24123e-14
1.98247e-14
1.7539e-14
1.55195e-14
1.37351e-14
1.21582e-14
1.07645e-14
9.53263e-15
8.44362e-15
7.48084e-15
6.62959e-15
5.87688e-15
5.21126e-15
4.6226e-15
4.10197e-15
3.64146e-15
3.23407e-15
2.87364e-15
2.5547e-15
2.27243e-15
2.02259e-15
1.80143e-15
1.60566e-15
1.4324e-15
1.27915e-15
1.14373e-15
1.02425e-15
9.19104e-16
8.26905e-16
7.4649e-16
6.76883e-16
6.17268e-16
5.6698e-16
5.25474e-16
4.92295e-16
4.67243e-16
4.50651e-16
4.64193e-16
)
;
    }
    procBoundary0to2
    {
        type            processor;
        value           nonuniform List<scalar> 
180
(
-3.49617e-17
-8.70894e-17
-1.45088e-16
-2.04883e-16
-2.67285e-16
-3.33283e-16
-4.03923e-16
-4.80263e-16
-5.634e-16
-6.54485e-16
-7.54748e-16
-8.65521e-16
-9.88258e-16
-1.12457e-15
-1.27624e-15
-1.44527e-15
-1.63389e-15
-1.84463e-15
-2.0803e-15
-2.34411e-15
-2.63962e-15
-2.97089e-15
-3.34244e-15
-3.75939e-15
-4.22746e-15
-4.7531e-15
-5.34351e-15
-6.00681e-15
-6.75206e-15
-7.58942e-15
-8.5303e-15
-9.58745e-15
-1.07752e-14
-1.21095e-14
-1.36085e-14
-1.52922e-14
-1.71832e-14
-1.93069e-14
-2.16917e-14
-2.43696e-14
-2.73764e-14
-3.07522e-14
-3.45422e-14
-3.87971e-14
-4.35735e-14
-4.89353e-14
-5.49539e-14
-6.17093e-14
-6.92914e-14
-7.78008e-14
-8.73503e-14
-9.80662e-14
-1.1009e-13
-1.2358e-13
-1.38715e-13
-1.55692e-13
-1.74734e-13
-1.96091e-13
-2.20042e-13
-2.469e-13
-2.77014e-13
-3.10776e-13
-3.48627e-13
-3.91057e-13
-4.38617e-13
-4.91923e-13
-5.51666e-13
-6.1862e-13
-6.93648e-13
-7.77721e-13
-8.71923e-13
-9.7747e-13
-1.09572e-12
-1.2282e-12
-1.37663e-12
-1.54276e-12
-1.72857e-12
-1.93838e-12
-2.16339e-12
-2.26499e-12
-4.24664e-13
3.27075e-14
-1.40154e-12
2.12249e-13
-2.7182e-12
-3.99235e-12
-9.02163e-13
-3.50403e-12
7.8423e-13
8.40225e-12
1.264e-11
1.02503e-11
1.26822e-11
1.7211e-11
5.33439e-12
5.08437e-13
-6.73937e-12
-6.08279e-12
-5.96984e-12
-3.37155e-12
-2.57994e-12
6.96992e-14
1.63708e-12
2.37684e-12
7.32181e-13
-6.3049e-13
-7.47907e-13
-7.2335e-13
-6.88846e-13
-6.51688e-13
-6.13187e-13
-5.74434e-13
-5.36104e-13
-4.98665e-13
-4.62462e-13
-4.27744e-13
-3.9468e-13
-3.63379e-13
-3.33897e-13
-3.0625e-13
-2.80426e-13
-2.56387e-13
-2.34079e-13
-2.13434e-13
-1.94376e-13
-1.76821e-13
-1.60684e-13
-1.45878e-13
-1.32317e-13
-1.19916e-13
-1.08592e-13
-9.82642e-14
-8.88577e-14
-8.02996e-14
-7.25215e-14
-6.54593e-14
-5.90528e-14
-5.32461e-14
-4.79873e-14
-4.32283e-14
-3.89245e-14
-3.50348e-14
-3.15216e-14
-2.83501e-14
-2.54888e-14
-2.29087e-14
-2.05831e-14
-1.8488e-14
-1.66014e-14
-1.49033e-14
-1.33755e-14
-1.20015e-14
-1.07663e-14
-9.65638e-15
-8.65942e-15
-7.76435e-15
-6.96114e-15
-6.24075e-15
-5.59503e-15
-5.01663e-15
-4.49894e-15
-4.03602e-15
-3.6225e-15
-3.25357e-15
-2.92493e-15
-2.63267e-15
-2.37333e-15
-2.14376e-15
-1.9412e-15
-1.76312e-15
-1.60733e-15
-1.47185e-15
-1.35495e-15
-1.25516e-15
-1.17116e-15
-1.1019e-15
-1.04649e-15
-1.00402e-15
-9.7208e-16
-9.76463e-16
)
;
    }
}


// ************************************************************************* //
