/*--------------------------------*- C++ -*----------------------------------*\
| =========                 |                                                 |
| \\      /  F ield         | OpenFOAM: The Open Source CFD Toolbox           |
|  \\    /   O peration     | Version:  5.x                                   |
|   \\  /    A nd           | Web:      www.OpenFOAM.org                      |
|    \\/     M anipulation  |                                                 |
\*---------------------------------------------------------------------------*/
FoamFile
{
    version     2.0;
    format      ascii;
    class       volVectorField;
    location    "0.001";
    object      stored_U;
}
// * * * * * * * * * * * * * * * * * * * * * * * * * * * * * * * * * * * * * //

dimensions      [0 1 -1 0 0 0 0];

internalField   nonuniform List<vector> 
180
(
(6.93554e-10 -6.38113e-10 -0.001)
(1.60831e-09 -1.55193e-09 -0.001)
(2.66798e-09 -2.60163e-09 -0.001)
(3.77886e-09 -3.71326e-09 -0.001)
(4.93892e-09 -4.90315e-09 -0.001)
(6.16233e-09 -6.19277e-09 -0.001)
(7.46378e-09 -7.60693e-09 -0.001)
(8.85957e-09 -9.17161e-09 -0.001)
(1.03675e-08 -1.09144e-08 -0.000999999)
(1.20074e-08 -1.28651e-08 -0.000999998)
(1.38009e-08 -1.50555e-08 -0.000999997)
(1.57723e-08 -1.75205e-08 -0.000999996)
(1.79486e-08 -2.02982e-08 -0.000999995)
(2.03597e-08 -2.34304e-08 -0.000999993)
(2.30393e-08 -2.69633e-08 -0.000999992)
(2.60246e-08 -3.09481e-08 -0.00099999)
(2.93574e-08 -3.54418e-08 -0.000999989)
(3.30841e-08 -4.05077e-08 -0.000999987)
(3.72565e-08 -4.62167e-08 -0.000999985)
(4.19324e-08 -5.26481e-08 -0.000999983)
(4.7176e-08 -5.9891e-08 -0.000999981)
(5.30586e-08 -6.80456e-08 -0.000999978)
(5.96597e-08 -7.72244e-08 -0.000999975)
(6.70675e-08 -8.75543e-08 -0.000999972)
(7.53798e-08 -9.91786e-08 -0.000999968)
(8.47051e-08 -1.12259e-07 -0.000999964)
(9.51638e-08 -1.26977e-07 -0.000999959)
(1.06889e-07 -1.4354e-07 -0.000999953)
(1.2003e-07 -1.6218e-07 -0.000999947)
(1.3475e-07 -1.8316e-07 -0.000999939)
(1.51231e-07 -2.06777e-07 -0.000999931)
(1.69676e-07 -2.33365e-07 -0.000999921)
(1.90308e-07 -2.63302e-07 -0.000999909)
(2.13379e-07 -2.97016e-07 -0.000999896)
(2.39164e-07 -3.34985e-07 -0.00099988)
(2.67972e-07 -3.77752e-07 -0.000999863)
(3.00147e-07 -4.25925e-07 -0.000999842)
(3.36072e-07 -4.80192e-07 -0.000999819)
(3.76174e-07 -5.41324e-07 -0.000999793)
(4.20926e-07 -6.1019e-07 -0.000999763)
(4.70861e-07 -6.87768e-07 -0.000999728)
(5.26569e-07 -7.75155e-07 -0.000999689)
(5.88709e-07 -8.73587e-07 -0.000999644)
(6.58018e-07 -9.84454e-07 -0.000999593)
(7.35315e-07 -1.10932e-06 -0.000999534)
(8.21515e-07 -1.24993e-06 -0.000999468)
(9.17638e-07 -1.40826e-06 -0.000999393)
(1.02482e-06 -1.58654e-06 -0.000999308)
(1.14433e-06 -1.78726e-06 -0.00099921)
(1.27757e-06 -2.01322e-06 -0.0009991)
(1.42613e-06 -2.26757e-06 -0.000998974)
(1.59174e-06 -2.55385e-06 -0.000998831)
(1.77636e-06 -2.87605e-06 -0.000998669)
(1.98217e-06 -3.23864e-06 -0.000998484)
(2.21159e-06 -3.64665e-06 -0.000998275)
(2.46733e-06 -4.10571e-06 -0.000998037)
(2.7524e-06 -4.62216e-06 -0.000997767)
(3.07018e-06 -5.20311e-06 -0.00099746)
(3.42443e-06 -5.85652e-06 -0.000997113)
(3.81936e-06 -6.59134e-06 -0.000996719)
(4.2597e-06 -7.41757e-06 -0.000996272)
(4.75073e-06 -8.34643e-06 -0.000995767)
(5.29839e-06 -9.39045e-06 -0.000995195)
(5.90934e-06 -1.05637e-05 -0.000994549)
(6.59108e-06 -1.18818e-05 -0.000993819)
(7.35207e-06 -1.33622e-05 -0.000992995)
(8.20184e-06 -1.50246e-05 -0.000992066)
(9.15115e-06 -1.68907e-05 -0.00099102)
(1.02122e-05 -1.89847e-05 -0.000989845)
(1.13989e-05 -2.13335e-05 -0.000988524)
(1.27268e-05 -2.39672e-05 -0.000987043)
(1.4214e-05 -2.69189e-05 -0.000985385)
(1.58809e-05 -3.02254e-05 -0.000983527)
(1.77507e-05 -3.39274e-05 -0.000981446)
(1.98501e-05 -3.80694e-05 -0.000979217)
(2.22109e-05 -4.26992e-05 -0.00097729)
(2.4877e-05 -4.78724e-05 -0.000975164)
(2.78734e-05 -5.36408e-05 -0.000960784)
(3.07981e-05 -5.95294e-05 -0.000899878)
(3.14488e-05 -6.01856e-05 -0.000744586)
(1.892e-05 -1.70508e-05 -0.00279419)
(2.99902e-06 7.33273e-07 -3.6005e-05)
(0.000191432 -5.62689e-05 -0.00354316)
(-7.826e-06 -7.82158e-06 -0.000227261)
(-0.000446725 -0.0001868 -0.00291907)
(-0.000537649 -0.00026222 -0.00249907)
(-0.000130374 -5.41081e-05 -0.00115782)
(-0.00017394 -0.000109539 -0.0046048)
(-3.5205e-05 6.21065e-05 -0.000884231)
(0.000257463 0.000343652 -0.00404093)
(0.000274465 0.00060787 -0.00221321)
(6.90253e-05 0.000831772 -0.00284309)
(-9.45739e-06 0.000335152 -0.000941309)
(-8.12446e-05 0.0012275 -0.0030402)
(-0.000118164 0.000493519 -0.00281161)
(-2.2326e-05 0.000113341 -0.00153819)
(-0.000308538 -0.000750656 -0.00350382)
(-6.82496e-05 -0.000164408 -0.00165338)
(-0.000103056 -0.000231718 -0.00310806)
(-0.000108829 -0.000105251 -0.00236032)
(-0.000214304 -1.82321e-05 -0.00288909)
(-0.000163151 0.000101466 -0.002765)
(-4.5719e-05 0.000167489 -0.00179853)
(5.73024e-06 9.03462e-05 -0.00183046)
(1.73554e-05 2.51504e-06 -0.00104819)
(6.2779e-05 -3.59612e-05 -0.00104845)
(5.82218e-05 -3.68654e-05 -0.000983751)
(5.1041e-05 -3.42221e-05 -0.000987615)
(4.44967e-05 -3.15856e-05 -0.000993329)
(3.87727e-05 -2.90743e-05 -0.00099602)
(3.3798e-05 -2.66918e-05 -0.000997792)
(2.9477e-05 -2.44491e-05 -0.000999204)
(2.57216e-05 -2.23501e-05 -0.0010003)
(2.24559e-05 -2.03943e-05 -0.00100114)
(1.96146e-05 -1.85792e-05 -0.00100175)
(1.7141e-05 -1.69002e-05 -0.00100219)
(1.49865e-05 -1.53518e-05 -0.00100248)
(1.3109e-05 -1.39278e-05 -0.00100267)
(1.14718e-05 -1.26213e-05 -0.00100277)
(1.00437e-05 -1.14251e-05 -0.0010028)
(8.79729e-06 -1.03321e-05 -0.00100278)
(7.70903e-06 -9.33498e-06 -0.00100273)
(6.7584e-06 -8.4269e-06 -0.00100264)
(5.9276e-06 -7.60108e-06 -0.00100253)
(5.20117e-06 -6.85109e-06 -0.00100241)
(4.56568e-06 -6.17083e-06 -0.00100228)
(4.00946e-06 -5.55451e-06 -0.00100214)
(3.52239e-06 -4.99672e-06 -0.001002)
(3.09566e-06 -4.49241e-06 -0.00100187)
(2.72161e-06 -4.03686e-06 -0.00100173)
(2.39358e-06 -3.62571e-06 -0.0010016)
(2.10577e-06 -3.25492e-06 -0.00100148)
(1.85315e-06 -2.92077e-06 -0.00100136)
(1.6313e-06 -2.61986e-06 -0.00100125)
(1.43641e-06 -2.34903e-06 -0.00100114)
(1.26514e-06 -2.10544e-06 -0.00100105)
(1.11456e-06 -1.88645e-06 -0.00100096)
(9.82122e-07 -1.68967e-06 -0.00100087)
(8.65612e-07 -1.51293e-06 -0.00100079)
(7.63079e-07 -1.35424e-06 -0.00100072)
(6.7282e-07 -1.21183e-06 -0.00100065)
(5.93344e-07 -1.08406e-06 -0.00100059)
(5.23345e-07 -9.69474e-07 -0.00100054)
(4.61678e-07 -8.66745e-07 -0.00100049)
(4.0734e-07 -7.74675e-07 -0.00100044)
(3.59447e-07 -6.92186e-07 -0.0010004)
(3.17227e-07 -6.18303e-07 -0.00100036)
(2.8e-07 -5.5215e-07 -0.00100033)
(2.47167e-07 -4.92937e-07 -0.00100029)
(2.18205e-07 -4.39952e-07 -0.00100027)
(1.92651e-07 -3.92557e-07 -0.00100024)
(1.70101e-07 -3.50175e-07 -0.00100022)
(1.50196e-07 -3.12291e-07 -0.00100019)
(1.32624e-07 -2.78438e-07 -0.00100017)
(1.17109e-07 -2.482e-07 -0.00100016)
(1.03409e-07 -2.21202e-07 -0.00100014)
(9.13105e-08 -1.97106e-07 -0.00100013)
(8.06267e-08 -1.7561e-07 -0.00100011)
(7.1193e-08 -1.56444e-07 -0.0010001)
(6.28646e-08 -1.39365e-07 -0.00100009)
(5.55144e-08 -1.24154e-07 -0.00100008)
(4.90304e-08 -1.10618e-07 -0.00100007)
(4.33141e-08 -9.85807e-08 -0.00100007)
(3.82789e-08 -8.78878e-08 -0.00100006)
(3.38484e-08 -7.84001e-08 -0.00100005)
(2.99553e-08 -6.9994e-08 -0.00100005)
(2.65404e-08 -6.25594e-08 -0.00100004)
(2.35513e-08 -5.59988e-08 -0.00100004)
(2.09422e-08 -5.0226e-08 -0.00100003)
(1.86724e-08 -4.51647e-08 -0.00100003)
(1.67065e-08 -4.07483e-08 -0.00100003)
(1.50133e-08 -3.69181e-08 -0.00100002)
(1.35657e-08 -3.36235e-08 -0.00100002)
(1.23402e-08 -3.08206e-08 -0.00100002)
(1.13168e-08 -2.84722e-08 -0.00100001)
(1.04786e-08 -2.6547e-08 -0.00100001)
(9.8106e-09 -2.50197e-08 -0.00100001)
(9.30375e-09 -2.38661e-08 -0.00100001)
(8.99424e-09 -2.30207e-08 -0.001)
(9.02053e-09 -2.23085e-08 -0.001)
)
;

boundaryField
{
    inlet
    {
        type            calculated;
        value           uniform (9.02053e-09 -2.23085e-08 -0.001);
    }
    outlet
    {
        type            calculated;
        value           uniform (6.93554e-10 -6.38113e-10 -0.001);
    }
    repeat_boundary
    {
        type            calculated;
        value           nonuniform List<vector> 
360
(
(6.93554e-10 0 -0.001)
(1.60831e-09 0 -0.001)
(2.66798e-09 0 -0.001)
(3.77886e-09 0 -0.001)
(4.93892e-09 0 -0.001)
(6.16233e-09 0 -0.001)
(7.46378e-09 0 -0.001)
(8.85957e-09 0 -0.001)
(1.03675e-08 0 -0.000999999)
(1.20074e-08 0 -0.000999998)
(1.38009e-08 0 -0.000999997)
(1.57723e-08 0 -0.000999996)
(1.79486e-08 0 -0.000999995)
(2.03597e-08 0 -0.000999993)
(2.30393e-08 0 -0.000999992)
(2.60246e-08 0 -0.00099999)
(2.93574e-08 0 -0.000999989)
(3.30841e-08 0 -0.000999987)
(3.72565e-08 0 -0.000999985)
(4.19324e-08 0 -0.000999983)
(4.7176e-08 0 -0.000999981)
(5.30586e-08 0 -0.000999978)
(5.96597e-08 0 -0.000999975)
(6.70675e-08 0 -0.000999972)
(7.53798e-08 0 -0.000999968)
(8.47051e-08 0 -0.000999964)
(9.51638e-08 0 -0.000999959)
(1.06889e-07 0 -0.000999953)
(1.2003e-07 0 -0.000999947)
(1.3475e-07 0 -0.000999939)
(1.51231e-07 0 -0.000999931)
(1.69676e-07 0 -0.000999921)
(1.90308e-07 0 -0.000999909)
(2.13379e-07 0 -0.000999896)
(2.39164e-07 0 -0.00099988)
(2.67972e-07 0 -0.000999863)
(3.00147e-07 0 -0.000999842)
(3.36072e-07 0 -0.000999819)
(3.76174e-07 0 -0.000999793)
(4.20926e-07 0 -0.000999763)
(4.70861e-07 0 -0.000999728)
(5.26569e-07 0 -0.000999689)
(5.88709e-07 0 -0.000999644)
(6.58018e-07 0 -0.000999593)
(7.35315e-07 0 -0.000999534)
(8.21515e-07 0 -0.000999468)
(9.17638e-07 0 -0.000999393)
(1.02482e-06 0 -0.000999308)
(1.14433e-06 0 -0.00099921)
(1.27757e-06 0 -0.0009991)
(1.42613e-06 0 -0.000998974)
(1.59174e-06 0 -0.000998831)
(1.77636e-06 0 -0.000998669)
(1.98217e-06 0 -0.000998484)
(2.21159e-06 0 -0.000998275)
(2.46733e-06 0 -0.000998037)
(2.7524e-06 0 -0.000997767)
(3.07018e-06 0 -0.00099746)
(3.42443e-06 0 -0.000997113)
(3.81936e-06 0 -0.000996719)
(4.2597e-06 0 -0.000996272)
(4.75073e-06 0 -0.000995767)
(5.29839e-06 0 -0.000995195)
(5.90934e-06 0 -0.000994549)
(6.59108e-06 0 -0.000993819)
(7.35207e-06 0 -0.000992995)
(8.20184e-06 0 -0.000992066)
(9.15115e-06 0 -0.00099102)
(1.02122e-05 0 -0.000989845)
(1.13989e-05 0 -0.000988524)
(1.27268e-05 0 -0.000987043)
(1.4214e-05 0 -0.000985385)
(1.58809e-05 0 -0.000983527)
(1.77507e-05 0 -0.000981446)
(1.98501e-05 0 -0.000979217)
(2.22109e-05 0 -0.00097729)
(2.4877e-05 0 -0.000975164)
(2.78734e-05 0 -0.000960784)
(3.07981e-05 0 -0.000899878)
(3.14488e-05 0 -0.000744586)
(1.892e-05 0 -0.00279419)
(2.99902e-06 0 -3.6005e-05)
(0.000191432 0 -0.00354316)
(-7.826e-06 0 -0.000227261)
(-0.000446725 0 -0.00291907)
(-0.000537649 0 -0.00249907)
(-0.000130374 0 -0.00115782)
(-0.00017394 0 -0.0046048)
(-3.5205e-05 0 -0.000884231)
(0.000257463 0 -0.00404093)
(0.000274465 0 -0.00221321)
(6.90253e-05 0 -0.00284309)
(-9.45739e-06 0 -0.000941309)
(-8.12446e-05 0 -0.0030402)
(-0.000118164 0 -0.00281161)
(-2.2326e-05 0 -0.00153819)
(-0.000308538 0 -0.00350382)
(-6.82496e-05 0 -0.00165338)
(-0.000103056 0 -0.00310806)
(-0.000108829 0 -0.00236032)
(-0.000214304 0 -0.00288909)
(-0.000163151 0 -0.002765)
(-4.5719e-05 0 -0.00179853)
(5.73024e-06 0 -0.00183046)
(1.73554e-05 0 -0.00104819)
(6.2779e-05 0 -0.00104845)
(5.82218e-05 0 -0.000983751)
(5.1041e-05 0 -0.000987615)
(4.44967e-05 0 -0.000993329)
(3.87727e-05 0 -0.00099602)
(3.3798e-05 0 -0.000997792)
(2.9477e-05 0 -0.000999204)
(2.57216e-05 0 -0.0010003)
(2.24559e-05 0 -0.00100114)
(1.96146e-05 0 -0.00100175)
(1.7141e-05 0 -0.00100219)
(1.49865e-05 0 -0.00100248)
(1.3109e-05 0 -0.00100267)
(1.14718e-05 0 -0.00100277)
(1.00437e-05 0 -0.0010028)
(8.79729e-06 0 -0.00100278)
(7.70903e-06 0 -0.00100273)
(6.7584e-06 0 -0.00100264)
(5.9276e-06 0 -0.00100253)
(5.20117e-06 0 -0.00100241)
(4.56568e-06 0 -0.00100228)
(4.00946e-06 0 -0.00100214)
(3.52239e-06 0 -0.001002)
(3.09566e-06 0 -0.00100187)
(2.72161e-06 0 -0.00100173)
(2.39358e-06 0 -0.0010016)
(2.10577e-06 0 -0.00100148)
(1.85315e-06 0 -0.00100136)
(1.6313e-06 0 -0.00100125)
(1.43641e-06 0 -0.00100114)
(1.26514e-06 0 -0.00100105)
(1.11456e-06 0 -0.00100096)
(9.82122e-07 0 -0.00100087)
(8.65612e-07 0 -0.00100079)
(7.63079e-07 0 -0.00100072)
(6.7282e-07 0 -0.00100065)
(5.93344e-07 0 -0.00100059)
(5.23345e-07 0 -0.00100054)
(4.61678e-07 0 -0.00100049)
(4.0734e-07 0 -0.00100044)
(3.59447e-07 0 -0.0010004)
(3.17227e-07 0 -0.00100036)
(2.8e-07 0 -0.00100033)
(2.47167e-07 0 -0.00100029)
(2.18205e-07 0 -0.00100027)
(1.92651e-07 0 -0.00100024)
(1.70101e-07 0 -0.00100022)
(1.50196e-07 0 -0.00100019)
(1.32624e-07 0 -0.00100017)
(1.17109e-07 0 -0.00100016)
(1.03409e-07 0 -0.00100014)
(9.13105e-08 0 -0.00100013)
(8.06267e-08 0 -0.00100011)
(7.1193e-08 0 -0.0010001)
(6.28646e-08 0 -0.00100009)
(5.55144e-08 0 -0.00100008)
(4.90304e-08 0 -0.00100007)
(4.33141e-08 0 -0.00100007)
(3.82789e-08 0 -0.00100006)
(3.38484e-08 0 -0.00100005)
(2.99553e-08 0 -0.00100005)
(2.65404e-08 0 -0.00100004)
(2.35513e-08 0 -0.00100004)
(2.09422e-08 0 -0.00100003)
(1.86724e-08 0 -0.00100003)
(1.67065e-08 0 -0.00100003)
(1.50133e-08 0 -0.00100002)
(1.35657e-08 0 -0.00100002)
(1.23402e-08 0 -0.00100002)
(1.13168e-08 0 -0.00100001)
(1.04786e-08 0 -0.00100001)
(9.8106e-09 0 -0.00100001)
(9.30375e-09 0 -0.00100001)
(8.99424e-09 0 -0.001)
(9.02053e-09 0 -0.001)
(0 -6.38113e-10 -0.001)
(0 -1.55193e-09 -0.001)
(0 -2.60163e-09 -0.001)
(0 -3.71326e-09 -0.001)
(0 -4.90315e-09 -0.001)
(0 -6.19277e-09 -0.001)
(0 -7.60693e-09 -0.001)
(0 -9.17161e-09 -0.001)
(0 -1.09144e-08 -0.000999999)
(0 -1.28651e-08 -0.000999998)
(0 -1.50555e-08 -0.000999997)
(0 -1.75205e-08 -0.000999996)
(0 -2.02982e-08 -0.000999995)
(0 -2.34304e-08 -0.000999993)
(0 -2.69633e-08 -0.000999992)
(0 -3.09481e-08 -0.00099999)
(0 -3.54418e-08 -0.000999989)
(0 -4.05077e-08 -0.000999987)
(0 -4.62167e-08 -0.000999985)
(0 -5.26481e-08 -0.000999983)
(0 -5.9891e-08 -0.000999981)
(0 -6.80456e-08 -0.000999978)
(0 -7.72244e-08 -0.000999975)
(0 -8.75543e-08 -0.000999972)
(0 -9.91786e-08 -0.000999968)
(0 -1.12259e-07 -0.000999964)
(0 -1.26977e-07 -0.000999959)
(0 -1.4354e-07 -0.000999953)
(0 -1.6218e-07 -0.000999947)
(0 -1.8316e-07 -0.000999939)
(0 -2.06777e-07 -0.000999931)
(0 -2.33365e-07 -0.000999921)
(0 -2.63302e-07 -0.000999909)
(0 -2.97016e-07 -0.000999896)
(0 -3.34985e-07 -0.00099988)
(0 -3.77752e-07 -0.000999863)
(0 -4.25925e-07 -0.000999842)
(0 -4.80192e-07 -0.000999819)
(0 -5.41324e-07 -0.000999793)
(0 -6.1019e-07 -0.000999763)
(0 -6.87768e-07 -0.000999728)
(0 -7.75155e-07 -0.000999689)
(0 -8.73587e-07 -0.000999644)
(0 -9.84454e-07 -0.000999593)
(0 -1.10932e-06 -0.000999534)
(0 -1.24993e-06 -0.000999468)
(0 -1.40826e-06 -0.000999393)
(0 -1.58654e-06 -0.000999308)
(0 -1.78726e-06 -0.00099921)
(0 -2.01322e-06 -0.0009991)
(0 -2.26757e-06 -0.000998974)
(0 -2.55385e-06 -0.000998831)
(0 -2.87605e-06 -0.000998669)
(0 -3.23864e-06 -0.000998484)
(0 -3.64665e-06 -0.000998275)
(0 -4.10571e-06 -0.000998037)
(0 -4.62216e-06 -0.000997767)
(0 -5.20311e-06 -0.00099746)
(0 -5.85652e-06 -0.000997113)
(0 -6.59134e-06 -0.000996719)
(0 -7.41757e-06 -0.000996272)
(0 -8.34643e-06 -0.000995767)
(0 -9.39045e-06 -0.000995195)
(0 -1.05637e-05 -0.000994549)
(0 -1.18818e-05 -0.000993819)
(0 -1.33622e-05 -0.000992995)
(0 -1.50246e-05 -0.000992066)
(0 -1.68907e-05 -0.00099102)
(0 -1.89847e-05 -0.000989845)
(0 -2.13335e-05 -0.000988524)
(0 -2.39672e-05 -0.000987043)
(0 -2.69189e-05 -0.000985385)
(0 -3.02254e-05 -0.000983527)
(0 -3.39274e-05 -0.000981446)
(0 -3.80694e-05 -0.000979217)
(0 -4.26992e-05 -0.00097729)
(0 -4.78724e-05 -0.000975164)
(0 -5.36408e-05 -0.000960784)
(0 -5.95294e-05 -0.000899878)
(0 -6.01856e-05 -0.000744586)
(0 -1.70508e-05 -0.00279419)
(0 7.33273e-07 -3.6005e-05)
(0 -5.62689e-05 -0.00354316)
(0 -7.82158e-06 -0.000227261)
(0 -0.0001868 -0.00291907)
(0 -0.00026222 -0.00249907)
(0 -5.41081e-05 -0.00115782)
(0 -0.000109539 -0.0046048)
(0 6.21065e-05 -0.000884231)
(0 0.000343652 -0.00404093)
(0 0.00060787 -0.00221321)
(0 0.000831772 -0.00284309)
(0 0.000335152 -0.000941309)
(0 0.0012275 -0.0030402)
(0 0.000493519 -0.00281161)
(0 0.000113341 -0.00153819)
(0 -0.000750656 -0.00350382)
(0 -0.000164408 -0.00165338)
(0 -0.000231718 -0.00310806)
(0 -0.000105251 -0.00236032)
(0 -1.82321e-05 -0.00288909)
(0 0.000101466 -0.002765)
(0 0.000167489 -0.00179853)
(0 9.03462e-05 -0.00183046)
(0 2.51504e-06 -0.00104819)
(0 -3.59612e-05 -0.00104845)
(0 -3.68654e-05 -0.000983751)
(0 -3.42221e-05 -0.000987615)
(0 -3.15856e-05 -0.000993329)
(0 -2.90743e-05 -0.00099602)
(0 -2.66918e-05 -0.000997792)
(0 -2.44491e-05 -0.000999204)
(0 -2.23501e-05 -0.0010003)
(0 -2.03943e-05 -0.00100114)
(0 -1.85792e-05 -0.00100175)
(0 -1.69002e-05 -0.00100219)
(0 -1.53518e-05 -0.00100248)
(0 -1.39278e-05 -0.00100267)
(0 -1.26213e-05 -0.00100277)
(0 -1.14251e-05 -0.0010028)
(0 -1.03321e-05 -0.00100278)
(0 -9.33498e-06 -0.00100273)
(0 -8.4269e-06 -0.00100264)
(0 -7.60108e-06 -0.00100253)
(0 -6.85109e-06 -0.00100241)
(0 -6.17083e-06 -0.00100228)
(0 -5.55451e-06 -0.00100214)
(0 -4.99672e-06 -0.001002)
(0 -4.49241e-06 -0.00100187)
(0 -4.03686e-06 -0.00100173)
(0 -3.62571e-06 -0.0010016)
(0 -3.25492e-06 -0.00100148)
(0 -2.92077e-06 -0.00100136)
(0 -2.61986e-06 -0.00100125)
(0 -2.34903e-06 -0.00100114)
(0 -2.10544e-06 -0.00100105)
(0 -1.88645e-06 -0.00100096)
(0 -1.68967e-06 -0.00100087)
(0 -1.51293e-06 -0.00100079)
(0 -1.35424e-06 -0.00100072)
(0 -1.21183e-06 -0.00100065)
(0 -1.08406e-06 -0.00100059)
(0 -9.69474e-07 -0.00100054)
(0 -8.66745e-07 -0.00100049)
(0 -7.74675e-07 -0.00100044)
(0 -6.92186e-07 -0.0010004)
(0 -6.18303e-07 -0.00100036)
(0 -5.5215e-07 -0.00100033)
(0 -4.92937e-07 -0.00100029)
(0 -4.39952e-07 -0.00100027)
(0 -3.92557e-07 -0.00100024)
(0 -3.50175e-07 -0.00100022)
(0 -3.12291e-07 -0.00100019)
(0 -2.78438e-07 -0.00100017)
(0 -2.482e-07 -0.00100016)
(0 -2.21202e-07 -0.00100014)
(0 -1.97106e-07 -0.00100013)
(0 -1.7561e-07 -0.00100011)
(0 -1.56444e-07 -0.0010001)
(0 -1.39365e-07 -0.00100009)
(0 -1.24154e-07 -0.00100008)
(0 -1.10618e-07 -0.00100007)
(0 -9.85807e-08 -0.00100007)
(0 -8.78878e-08 -0.00100006)
(0 -7.84001e-08 -0.00100005)
(0 -6.9994e-08 -0.00100005)
(0 -6.25594e-08 -0.00100004)
(0 -5.59988e-08 -0.00100004)
(0 -5.0226e-08 -0.00100003)
(0 -4.51647e-08 -0.00100003)
(0 -4.07483e-08 -0.00100003)
(0 -3.69181e-08 -0.00100002)
(0 -3.36235e-08 -0.00100002)
(0 -3.08206e-08 -0.00100002)
(0 -2.84722e-08 -0.00100001)
(0 -2.6547e-08 -0.00100001)
(0 -2.50197e-08 -0.00100001)
(0 -2.38661e-08 -0.00100001)
(0 -2.30207e-08 -0.001)
(0 -2.23085e-08 -0.001)
)
;
    }
    procBoundary0to1
    {
        type            processor;
        value           nonuniform List<vector> 
180
(
(6.93574e-10 -7.62384e-10 -0.000999982)
(1.60831e-09 -1.85584e-09 -0.000999982)
(2.66794e-09 -3.09249e-09 -0.000999981)
(3.77886e-09 -4.38697e-09 -0.00099998)
(4.93893e-09 -5.74341e-09 -0.000999978)
(6.16233e-09 -7.18059e-09 -0.000999976)
(7.46378e-09 -8.7179e-09 -0.000999974)
(8.85957e-09 -1.03767e-08 -0.000999971)
(1.03675e-08 -1.21806e-08 -0.000999968)
(1.20074e-08 -1.41554e-08 -0.000999964)
(1.38009e-08 -1.63301e-08 -0.000999959)
(1.57723e-08 -1.87369e-08 -0.000999954)
(1.79486e-08 -2.14118e-08 -0.000999949)
(2.03597e-08 -2.43949e-08 -0.000999942)
(2.30393e-08 -2.77315e-08 -0.000999935)
(2.60246e-08 -3.14721e-08 -0.000999927)
(2.93574e-08 -3.56733e-08 -0.000999918)
(3.30841e-08 -4.03989e-08 -0.000999908)
(3.72565e-08 -4.572e-08 -0.000999896)
(4.19324e-08 -5.17167e-08 -0.000999883)
(4.7176e-08 -5.84784e-08 -0.000999869)
(5.30586e-08 -6.61055e-08 -0.000999853)
(5.96597e-08 -7.47104e-08 -0.000999835)
(6.70675e-08 -8.44186e-08 -0.000999814)
(7.53798e-08 -9.53711e-08 -0.000999791)
(8.4705e-08 -1.07725e-07 -0.000999766)
(9.51638e-08 -1.21657e-07 -0.000999737)
(1.06889e-07 -1.37364e-07 -0.000999704)
(1.2003e-07 -1.55067e-07 -0.000999668)
(1.3475e-07 -1.75012e-07 -0.000999627)
(1.51231e-07 -1.97477e-07 -0.000999581)
(1.69676e-07 -2.2277e-07 -0.000999529)
(1.90308e-07 -2.5124e-07 -0.000999471)
(2.13379e-07 -2.83275e-07 -0.000999406)
(2.39163e-07 -3.19312e-07 -0.000999333)
(2.67972e-07 -3.59842e-07 -0.000999251)
(3.00147e-07 -4.05415e-07 -0.00099916)
(3.36072e-07 -4.56649e-07 -0.000999057)
(3.76173e-07 -5.1424e-07 -0.000998942)
(4.20926e-07 -5.78968e-07 -0.000998813)
(4.70861e-07 -6.51713e-07 -0.000998669)
(5.26568e-07 -7.33461e-07 -0.000998507)
(5.88708e-07 -8.25323e-07 -0.000998326)
(6.58017e-07 -9.28549e-07 -0.000998123)
(7.35314e-07 -1.04454e-06 -0.000997895)
(8.21514e-07 -1.17488e-06 -0.00099764)
(9.17636e-07 -1.32135e-06 -0.000997355)
(1.02482e-06 -1.48593e-06 -0.000997035)
(1.14433e-06 -1.67088e-06 -0.000996676)
(1.27757e-06 -1.87872e-06 -0.000996274)
(1.42612e-06 -2.11229e-06 -0.000995824)
(1.59173e-06 -2.37477e-06 -0.00099532)
(1.77636e-06 -2.66975e-06 -0.000994754)
(1.98216e-06 -3.00127e-06 -0.000994121)
(2.21158e-06 -3.37387e-06 -0.00099341)
(2.46732e-06 -3.79264e-06 -0.000992615)
(2.75239e-06 -4.26334e-06 -0.000991722)
(3.07016e-06 -4.79244e-06 -0.000990722)
(3.4244e-06 -5.38722e-06 -0.000989601)
(3.81933e-06 -6.05589e-06 -0.000988344)
(4.25966e-06 -6.80772e-06 -0.000986934)
(4.75069e-06 -7.65316e-06 -0.000985353)
(5.29833e-06 -8.60399e-06 -0.000983579)
(5.90927e-06 -9.67353e-06 -0.000981588)
(6.591e-06 -1.08768e-05 -0.000979354)
(7.35197e-06 -1.2231e-05 -0.000976846)
(8.20171e-06 -1.37551e-05 -0.000974029)
(9.15099e-06 -1.54712e-05 -0.000970866)
(1.0212e-05 -1.74039e-05 -0.000967311)
(1.13986e-05 -1.95813e-05 -0.000963316)
(1.27265e-05 -2.20352e-05 -0.000958823)
(1.42136e-05 -2.4802e-05 -0.000953769)
(1.58804e-05 -2.79229e-05 -0.000948077)
(1.77501e-05 -3.14448e-05 -0.000941662)
(1.98493e-05 -3.54212e-05 -0.00093451)
(2.22093e-05 -3.99139e-05 -0.000926871)
(2.48668e-05 -4.49947e-05 -0.000918002)
(2.77663e-05 -5.06707e-05 -0.000897617)
(2.97856e-05 -5.60479e-05 -0.000838022)
(2.47187e-05 -5.45744e-05 -0.000728786)
(-1.54773e-06 -9.74488e-06 -0.00242371)
(-3.66013e-05 5.13553e-05 -7.01465e-05)
(0.000176997 -0.000223146 -0.00279136)
(1.56209e-05 -1.57291e-05 -0.00261776)
(-0.000123169 0.000106099 -0.00134834)
(-0.00050482 0.000291905 -0.0038506)
(-0.00016961 0.00013285 -0.00078127)
(-0.000364218 0.000220268 -0.00283519)
(3.06979e-05 -5.23083e-05 -0.00210582)
(0.000224126 -1.64241e-05 -0.00296452)
(6.88244e-05 0.000103715 -0.00248189)
(-1.41731e-05 0.000184391 -0.00330998)
(-5.81463e-05 0.000279817 -0.0017144)
(-9.31773e-05 0.000561446 -0.00332282)
(1.84001e-05 0.000130911 -0.000179402)
(-0.000181021 0.000512234 -0.0035493)
(-0.000142252 0.000349914 -0.00215427)
(-0.000171059 0.000371573 -0.00232175)
(-0.000142004 0.000363778 -0.00348272)
(-6.7662e-05 0.000107977 -0.00241267)
(-0.000181005 0.000138197 -0.00274279)
(-0.000269971 -1.39136e-05 -0.00268454)
(-7.9977e-05 5.32954e-06 -0.00194462)
(4.34089e-05 -5.86041e-05 -0.00174029)
(4.88098e-05 -7.82363e-05 -0.00140756)
(6.20465e-05 -9.07536e-05 -0.00124275)
(5.8024e-05 -8.50408e-05 -0.00115233)
(5.1016e-05 -7.57059e-05 -0.00112976)
(4.44907e-05 -6.68093e-05 -0.00111665)
(3.87694e-05 -5.88976e-05 -0.00110323)
(3.37956e-05 -5.1943e-05 -0.00109092)
(2.94752e-05 -4.58325e-05 -0.00108012)
(2.57203e-05 -4.04596e-05 -0.00107064)
(2.2455e-05 -3.57323e-05 -0.00106232)
(1.96138e-05 -3.15708e-05 -0.001055)
(1.71405e-05 -2.79052e-05 -0.00104855)
(1.49861e-05 -2.46749e-05 -0.00104288)
(1.31086e-05 -2.18266e-05 -0.00103788)
(1.14716e-05 -1.9314e-05 -0.00103348)
(1.00435e-05 -1.70964e-05 -0.0010296)
(8.79716e-06 -1.51384e-05 -0.00102617)
(7.70893e-06 -1.34088e-05 -0.00102315)
(6.75832e-06 -1.18804e-05 -0.00102049)
(5.92754e-06 -1.05291e-05 -0.00101813)
(5.20112e-06 -9.3341e-06 -0.00101605)
(4.56564e-06 -8.27678e-06 -0.00101422)
(4.00944e-06 -7.34096e-06 -0.00101259)
(3.52238e-06 -6.51239e-06 -0.00101116)
(3.09565e-06 -5.77852e-06 -0.00100989)
(2.7216e-06 -5.12832e-06 -0.00100877)
(2.39357e-06 -4.55208e-06 -0.00100777)
(2.10577e-06 -4.04122e-06 -0.00100689)
(1.85314e-06 -3.58821e-06 -0.00100611)
(1.6313e-06 -3.18638e-06 -0.00100542)
(1.43641e-06 -2.82988e-06 -0.00100481)
(1.26513e-06 -2.51351e-06 -0.00100427)
(1.11455e-06 -2.23271e-06 -0.00100379)
(9.82121e-07 -1.98342e-06 -0.00100336)
(8.65611e-07 -1.7621e-06 -0.00100299)
(7.63078e-07 -1.56557e-06 -0.00100265)
(6.72819e-07 -1.39103e-06 -0.00100236)
(5.93343e-07 -1.23601e-06 -0.00100209)
(5.23345e-07 -1.09832e-06 -0.00100186)
(4.61678e-07 -9.75991e-07 -0.00100165)
(4.07339e-07 -8.67313e-07 -0.00100147)
(3.59447e-07 -7.70751e-07 -0.0010013)
(3.17227e-07 -6.84949e-07 -0.00100116)
(2.8e-07 -6.08702e-07 -0.00100103)
(2.47167e-07 -5.40941e-07 -0.00100091)
(2.18205e-07 -4.80718e-07 -0.00100081)
(1.92651e-07 -4.27192e-07 -0.00100072)
(1.701e-07 -3.79615e-07 -0.00100064)
(1.50196e-07 -3.37327e-07 -0.00100057)
(1.32624e-07 -2.99738e-07 -0.00100051)
(1.17109e-07 -2.66326e-07 -0.00100045)
(1.03409e-07 -2.3663e-07 -0.0010004)
(9.13105e-08 -2.10238e-07 -0.00100035)
(8.06267e-08 -1.86787e-07 -0.00100032)
(7.1193e-08 -1.65952e-07 -0.00100028)
(6.28646e-08 -1.47448e-07 -0.00100025)
(5.55144e-08 -1.31021e-07 -0.00100022)
(4.90304e-08 -1.16445e-07 -0.0010002)
(4.33141e-08 -1.0352e-07 -0.00100017)
(3.82789e-08 -9.20697e-08 -0.00100015)
(3.38484e-08 -8.19366e-08 -0.00100014)
(2.99553e-08 -7.29819e-08 -0.00100012)
(2.65404e-08 -6.50824e-08 -0.00100011)
(2.35513e-08 -5.81292e-08 -0.00100009)
(2.09422e-08 -5.2026e-08 -0.00100008)
(1.86724e-08 -4.66881e-08 -0.00100007)
(1.67065e-08 -4.20408e-08 -0.00100006)
(1.50133e-08 -3.80187e-08 -0.00100005)
(1.35657e-08 -3.45649e-08 -0.00100005)
(1.23402e-08 -3.16302e-08 -0.00100004)
(1.13168e-08 -2.91724e-08 -0.00100003)
(1.04786e-08 -2.71559e-08 -0.00100003)
(9.8106e-09 -2.55505e-08 -0.00100002)
(9.30375e-09 -2.4334e-08 -0.00100001)
(8.99424e-09 -2.35304e-08 -0.00100001)
(9.02053e-09 -2.32613e-08 -0.001)
)
;
    }
    procBoundary0to2
    {
        type            processor;
        value           nonuniform List<vector> 
180
(
(5.69299e-10 -6.38113e-10 -0.00100002)
(1.30439e-09 -1.55193e-09 -0.00100002)
(2.17709e-09 -2.60163e-09 -0.00100002)
(3.10516e-09 -3.71326e-09 -0.00100003)
(4.09868e-09 -4.90316e-09 -0.00100003)
(5.17452e-09 -6.19277e-09 -0.00100003)
(6.35281e-09 -7.60693e-09 -0.00100003)
(7.65445e-09 -9.17161e-09 -0.00100003)
(9.10142e-09 -1.09144e-08 -0.00100004)
(1.0717e-08 -1.28651e-08 -0.00100004)
(1.25262e-08 -1.50555e-08 -0.00100004)
(1.45559e-08 -1.75205e-08 -0.00100005)
(1.6835e-08 -2.02982e-08 -0.00100005)
(1.93952e-08 -2.34304e-08 -0.00100006)
(2.22711e-08 -2.69633e-08 -0.00100007)
(2.55007e-08 -3.09481e-08 -0.00100008)
(2.91258e-08 -3.54418e-08 -0.00100008)
(3.31929e-08 -4.05077e-08 -0.00100009)
(3.77531e-08 -4.62167e-08 -0.00100011)
(4.28638e-08 -5.26481e-08 -0.00100012)
(4.85886e-08 -5.98911e-08 -0.00100013)
(5.49987e-08 -6.80456e-08 -0.00100015)
(6.21738e-08 -7.72244e-08 -0.00100017)
(7.02032e-08 -8.75544e-08 -0.00100019)
(7.91873e-08 -9.91787e-08 -0.00100022)
(8.92386e-08 -1.12259e-07 -0.00100024)
(1.00484e-07 -1.26977e-07 -0.00100027)
(1.13065e-07 -1.4354e-07 -0.00100031)
(1.27143e-07 -1.6218e-07 -0.00100034)
(1.42898e-07 -1.8316e-07 -0.00100039)
(1.60531e-07 -2.06777e-07 -0.00100043)
(1.80271e-07 -2.33365e-07 -0.00100049)
(2.02371e-07 -2.63302e-07 -0.00100055)
(2.27119e-07 -2.97016e-07 -0.00100061)
(2.54836e-07 -3.34985e-07 -0.00100069)
(2.85882e-07 -3.77752e-07 -0.00100077)
(3.20658e-07 -4.25925e-07 -0.00100087)
(3.59615e-07 -4.80192e-07 -0.00100098)
(4.03258e-07 -5.41324e-07 -0.00100109)
(4.52148e-07 -6.10191e-07 -0.00100123)
(5.06916e-07 -6.87768e-07 -0.00100138)
(5.68263e-07 -7.75156e-07 -0.00100155)
(6.36973e-07 -8.73588e-07 -0.00100174)
(7.13923e-07 -9.84455e-07 -0.00100195)
(8.00088e-07 -1.10932e-06 -0.00100219)
(8.96559e-07 -1.24993e-06 -0.00100246)
(1.00455e-06 -1.40827e-06 -0.00100276)
(1.12543e-06 -1.58655e-06 -0.0010031)
(1.26071e-06 -1.78726e-06 -0.00100348)
(1.41207e-06 -2.01322e-06 -0.00100391)
(1.58141e-06 -2.26757e-06 -0.00100439)
(1.77082e-06 -2.55386e-06 -0.00100493)
(1.98266e-06 -2.87606e-06 -0.00100553)
(2.21954e-06 -3.23866e-06 -0.0010062)
(2.48438e-06 -3.64667e-06 -0.00100696)
(2.7804e-06 -4.10573e-06 -0.00100781)
(3.11123e-06 -4.62219e-06 -0.00100876)
(3.48086e-06 -5.20315e-06 -0.00100983)
(3.89375e-06 -5.85657e-06 -0.00101102)
(4.35483e-06 -6.5914e-06 -0.00101236)
(4.86957e-06 -7.41765e-06 -0.00101386)
(5.44403e-06 -8.34653e-06 -0.00101553)
(6.08488e-06 -9.39058e-06 -0.00101741)
(6.79952e-06 -1.05638e-05 -0.00101951)
(7.59606e-06 -1.1882e-05 -0.00102186)
(8.48343e-06 -1.33625e-05 -0.00102449)
(9.47144e-06 -1.5025e-05 -0.00102742)
(1.05708e-05 -1.68911e-05 -0.0010307)
(1.17932e-05 -1.89852e-05 -0.00103437)
(1.31514e-05 -2.13343e-05 -0.00103846)
(1.46592e-05 -2.39682e-05 -0.00104302)
(1.63314e-05 -2.69201e-05 -0.00104811)
(1.8184e-05 -3.0227e-05 -0.00105377)
(2.02342e-05 -3.39295e-05 -0.00106007)
(2.25005e-05 -3.80733e-05 -0.00106715)
(2.50059e-05 -4.2714e-05 -0.00107561)
(2.7737e-05 -4.78711e-05 -0.00108532)
(3.07348e-05 -5.3709e-05 -0.00108433)
(3.32793e-05 -6.01186e-05 -0.00102698)
(3.00301e-05 -6.35081e-05 -0.000808195)
(-6.36548e-06 -2.35314e-05 -0.0033559)
(-3.09827e-06 1.43888e-05 -6.67422e-05)
(-6.95852e-06 -6.50636e-05 -0.00402982)
(-1.8756e-05 1.08798e-05 -0.000973374)
(2.13288e-05 -0.000100436 -0.00362465)
(4.69257e-06 -0.000199518 -0.00391669)
(1.9325e-05 -8.65803e-05 -0.00152606)
(0.000134437 -0.000295908 -0.00413794)
(-0.000106853 7.68421e-05 -0.00173063)
(-0.000266138 0.000718107 -0.00280572)
(-0.000272484 0.000807795 -0.00294707)
(-0.000239583 0.000325696 -0.00128942)
(-0.000697173 0.00106982 -0.00259524)
(-0.000330656 0.000554736 -0.00288139)
(-5.70196e-05 0.000155256 -0.000295607)
(6.81038e-05 7.108e-05 -0.00475928)
(4.98125e-05 1.47082e-05 -0.00110838)
(0.000633321 -0.000438364 -0.00254713)
(0.000657843 -0.000392878 -0.00202051)
(2.26535e-05 -0.000218613 -0.00164714)
(-0.000181751 -0.00017362 -0.00222667)
(-7.19379e-05 2.95081e-05 -0.00198714)
(5.88493e-06 0.00015666 -0.0018486)
(1.3986e-05 0.000129859 -0.00156426)
(1.96472e-05 3.26436e-05 -0.00121404)
(1.24879e-05 -3.34423e-05 -0.00101818)
(1.01574e-05 -3.6688e-05 -0.00092228)
(9.54446e-06 -3.42139e-05 -0.000931458)
(9.26646e-06 -3.15868e-05 -0.000941499)