FoamFile
{version 2.0; format ascii;class Cloud<passiveParticle>; location 0;object  positions;}
349
(
( 0.00382595 0.000326949 0.000497739 ) 0 
( 0.00215888 0.000308191 0.000499246 ) 0 
( 0.00245741 0.0028758 0.000498361 ) 0 
( 0.00168102 0.00224739 0.00049828 ) 0 
( 0.00043606 0.00464246 0.000499114 ) 0 
( 0.000693225 0.00240396 0.000498628 ) 0 
( 0.00192478 0.00127898 0.000498773 ) 0 
( 0.00141204 0.00443229 0.000497973 ) 0 
( 0.00478763 0.00172752 0.000499691 ) 0 
( 0.00271068 0.00190724 0.000497353 ) 0 
( 0.000456174 0.00337404 0.000497045 ) 0 
( 0.00317892 0.00356746 0.000499298 ) 0 
( 0.000210924 0.000736093 0.000498668 ) 0 
( 0.00144346 0.00321831 0.000499085 ) 0 
( 0.00348752 0.00253663 0.000497322 ) 0 
( 0.0048921 0.00493059 0.000497529 ) 0 
( 0.00447503 0.00268673 0.00049749 ) 0 
( 0.000937839 0.0014353 0.000498182 ) 0 
( 0.00117056 0.00045747 0.000498078 ) 0 
( 0.00386387 0.00133629 0.000499674 ) 0 
( 0.002122 0.00184106 0.00130023 ) 0 
( 0.00473994 0.000728629 0.000498904 ) 0 
( 0.00417461 0.0036385 0.000498111 ) 0 
( 0.00294737 0.00454027 0.00049969 ) 0 
( 0.00383693 0.00308202 0.0012571 ) 0 
( 0.00222044 0.003847 0.000498472 ) 0 
( 0.00394519 0.00461088 0.000498755 ) 0 
( 0.00184121 0.00279961 0.00131431 ) 0 
( 0.00293805 0.000934778 0.000498261 ) 0 
( 0.0041083 0.000817759 0.00131902 ) 0 
( 0.00463006 0.00435531 0.00127198 ) 0 
( 0.00480557 0.00333275 0.00120894 ) 0 
( 0.00323391 0.00151733 0.00125481 ) 0 
( 0.000780242 0.00294948 0.00134064 ) 0 
( 0.00321039 0.000380739 0.00128247 ) 0 
( 0.00134553 0.00101571 0.00130722 ) 0 
( 0.0040656 0.00206395 0.00116035 ) 0 
( 0.00261712 0.00342936 0.00131393 ) 0 
( 0.00102128 0.00492351 0.0012742 ) 0 
( 0.00113895 0.00201775 0.00130478 ) 0 
( 0.000393326 0.00135522 0.00133122 ) 0 
( 0.00233598 0.000864635 0.00131052 ) 0 
( 0.00332376 0.00347788 0.00201764 ) 0 
( 0.000828783 0.00394355 0.00122786 ) 0 
( 0.00470622 0.000636998 0.00209864 ) 0 
( 0.00317854 0.000952394 0.00210108 ) 0 
( 0.000384555 0.00210772 0.00198822 ) 0 
( 0.00283332 1.80701e-06 0.00212543 ) 0 
( 0.00178479 0.00418742 0.00139083 ) 0 
( 0.00289695 0.0024712 0.00129876 ) 0 
( 0.00133013 0.00247511 0.0021712 ) 0 
( 0.00367305 0.00406693 0.00129019 ) 0 
( 0.00448723 0.00269523 0.00190947 ) 0 
( 0.00489159 0.00142445 0.00144799 ) 0 
( 0.00275463 0.00440273 0.0014944 ) 0 
( 0.00370591 0.00497329 0.00193036 ) 0 
( 0.00172542 0.00021235 0.00176219 ) 0 
( 0.0039851 0.0015347 0.00200146 ) 0 
( 0.00140667 0.00344406 0.00194017 ) 0 
( 0.00409671 0.00282732 0.00282023 ) 0 
( 0.00165768 0.00150735 0.00211803 ) 0 
( 0.00244423 0.00283653 0.00211027 ) 0 
( 0.00352314 0.0024949 0.00207479 ) 0 
( 0.000487042 0.000497628 0.00183174 ) 0 
( 0.000441612 0.00349635 0.00218708 ) 0 
( 0.00275467 0.00185663 0.00207224 ) 0 
( 0.00429736 0.0037073 0.00198184 ) 0 
( 0.000895465 0.0043854 0.00212112 ) 0 
( 0.00381624 0.000183858 0.00205227 ) 0 
( 0.000564873 0.00269731 0.00277512 ) 0 
( 0.00122165 0.00068554 0.00248165 ) 0 
( 0.00309838 0.00436204 0.00243274 ) 0 
( 0.0017772 0.00310571 0.0028035 ) 0 
( 0.0037977 0.0037799 0.00284249 ) 0 
( 0.002248 0.00075794 0.00241557 ) 0 
( 0.00229929 0.00382285 0.00217399 ) 0 
( 0.00372291 0.00190102 0.00289121 ) 0 
( 0.00472458 0.00194854 0.00253154 ) 0 
( 0.00183433 0.00470265 0.00224497 ) 0 
( 0.000930044 0.00176648 0.00275032 ) 0 
( 0.00208223 0.00215672 0.00274703 ) 0 
( 0.00297894 0.00256601 0.0029098 ) 0 
( 0.00240624 5.24079e-05 0.00328881 ) 0 
( 0.00283304 0.00355216 0.00297303 ) 0 
( 0.00180347 0.00407846 0.00302301 ) 0 
( 0.00478147 0.00394873 0.00282197 ) 0 
( 0.000951193 0.00459319 0.00310384 ) 0 
( 0.00327009 0.00040149 0.00293004 ) 0 
( 0.000586266 0.000947878 0.00320495 ) 0 
( 0.00173572 0.00128584 0.00309236 ) 0 
( 0.00280449 0.00138982 0.00295295 ) 0 
( 2.81554e-05 0.00401026 0.00293521 ) 0 
( 0.00437788 0.00484743 0.0026581 ) 0 
( 0.00244798 0.00484036 0.00302137 ) 0 
( 0.0040872 0.000962953 0.00281288 ) 0 
( 0.00454898 8.31897e-05 0.0029185 ) 0 
( 0.000935618 0.00358489 0.0030501 ) 0 
( 0.00436682 0.00155193 0.00356976 ) 0 
( 0.000206748 0.00339035 0.00370417 ) 0 
( 0.00460871 0.00347186 0.0036824 ) 0 
( 0.00421548 0.00437755 0.0035248 ) 0 
( 0.00135143 0.00241268 0.0033827 ) 0 
( 0.00334132 0.00219618 0.00376526 ) 0 
( 0.003754 0.00383591 0.00427098 ) 0 
( 0.00240285 0.000939433 0.00374929 ) 0 
( 0.0034814 0.00109121 0.00362303 ) 0 
( 0.00352758 0.00315785 0.00357311 ) 0 
( 0.00322282 0.00435374 0.00342369 ) 0 
( 0.00432332 0.000573031 0.00376267 ) 0 
( 0.000605291 0.00181672 0.00369945 ) 0 
( 0.00159491 0.00333694 0.00375896 ) 0 
( 0.000774003 0.00269679 0.00414628 ) 0 
( 0.00308072 0.000250028 0.00399876 ) 0 
( 0.00238124 0.00193661 0.0036741 ) 0 
( 9.0071e-05 0.00145344 0.00454352 ) 0 
( 0.00101464 0.0041197 0.00398157 ) 0 
( 0.0025052 0.00292733 0.00371107 ) 0 
( 0.00151892 0.00157519 0.00402353 ) 0 
( 0.00295354 0.00149974 0.00436644 ) 0 
( 0.000818848 0.000880036 0.00417343 ) 0 
( 0.00140759 0.000398971 0.00342029 ) 0 
( 0.00428307 0.00253009 0.0037543 ) 0 
( 0.000126965 0.00453297 0.00377958 ) 0 
( 0.000641925 0.0049664 0.00451654 ) 0 
( 0.00174581 0.00476059 0.00375019 ) 0 
( 0.00225014 0.00333096 0.00459291 ) 0 
( 0.00399614 0.00186477 0.0044426 ) 0 
( 0.00438461 0.00313912 0.00460973 ) 0 
( 0.00299046 0.0044686 0.00439683 ) 0 
( 0.00109972 0.00426388 0.00505743 ) 0 
( 0.000418219 0.00366394 0.00464102 ) 0 
( 0.00179489 0.00250255 0.00427183 ) 0 
( 0.00340935 0.00293577 0.00453817 ) 0 
( 0.00173211 0.000516676 0.00435763 ) 0 
( 0.00199024 0.00431947 0.00461143 ) 0 
( 0.000943209 0.00192692 0.00476116 ) 0 
( 0.00240816 0.00391707 0.00380025 ) 0 
( 0.00123666 0.00101184 0.00507012 ) 0 
( 0.0046807 0.00140344 0.0050052 ) 0 
( 0.00128774 0.00321043 0.00483248 ) 0 
( 0.000144758 0.0044897 0.00524133 ) 0 
( 0.00466813 0.000440619 0.00474409 ) 0 
( 0.00289012 0.000653762 0.00489193 ) 0 
( 0.00393543 0.00246095 0.00524104 ) 0 
( 0.00174397 0.00498366 0.00531625 ) 0 
( 0.000169389 0.00043251 0.00478872 ) 0 
( 0.0035742 0.00439078 0.00521381 ) 0 
( 0.00379747 0.000891895 0.00454968 ) 0 
( 0.00187694 0.00376101 0.00543133 ) 0 
( 0.00499459 0.00482355 0.00468762 ) 0 
( 0.00403316 0.00478345 0.0044185 ) 0 
( 0.00263949 0.00235114 0.00478317 ) 0 
( 0.00108355 7.06592e-06 0.00529113 ) 0 
( 0.00207794 0.00150466 0.00484835 ) 0 
( 0.0039471 0.000455846 0.00543558 ) 0 
( 0.000943272 0.00362686 0.00580912 ) 0 
( 1.08574e-05 0.00341509 0.0055182 ) 0 
( 0.00344624 0.00158937 0.0052307 ) 0 
( 0.00213062 0.000773996 0.00552821 ) 0 
( 0.00176928 0.00241859 0.00526627 ) 0 
( 0.00491967 0.00484373 0.00568308 ) 0 
( 0.00312806 0.00086364 0.00583982 ) 0 
( 0.00257317 0.00183628 0.00565033 ) 0 
( 0.00300742 0.00356812 0.00519798 ) 0 
( 0.00259435 0.00445582 0.00539465 ) 0 
( 0.0045154 0.00406673 0.00512938 ) 0 
( 0.00126117 0.000676768 0.00601087 ) 0 
( 0.00216477 0.00298501 0.00598837 ) 0 
( 0.00161533 0.00158582 0.00579377 ) 0 
( 0.000143064 0.00203028 0.00535636 ) 0 
( 0.000353469 0.0010698 0.00553525 ) 0 
( 0.00491495 0.00230793 0.00535448 ) 0 
( 0.000244523 0.00422216 0.00620117 ) 0 
( 0.0041748 0.00133005 0.00586322 ) 0 
( 0.00391749 0.00340215 0.0055748 ) 0 
( 0.00307416 0.00269997 0.00568753 ) 0 
( 0.000292466 0.000136268 0.00588733 ) 0 
( 0.00087387 0.00264536 0.0056438 ) 0 
( 0.000869117 0.00489181 0.00579959 ) 0 
( 0.00161484 0.00360524 0.00654733 ) 0 
( 0.00193772 0.00446148 0.00614611 ) 0 
( 0.0029611 0.00317295 0.00656101 ) 0 
( 0.00232584 0.00122225 0.00639873 ) 0 
( 0.00436231 0.00265945 0.00612226 ) 0 
( 0.00318551 0.00401585 0.00607219 ) 0 
( 0.00259823 0.000262594 0.00643731 ) 0 
( 0.000544536 0.00340327 0.00669769 ) 0 
( 0.00415288 0.00430294 0.00602852 ) 0 
( 0.00342292 0.00498402 0.00600399 ) 0 
( 0.00493329 0.000734315 0.00612327 ) 0 
( 0.00199587 0.00215642 0.00651851 ) 0 
( 0.000442252 0.000886046 0.00654355 ) 0 
( 0.000701893 0.0017801 0.00614488 ) 0 
( 0.00109301 0.00444872 0.00667794 ) 0 
( 0.00356017 5.72598e-05 0.00626543 ) 0 
( 0.00341953 0.00190217 0.0061802 ) 0 
( 7.91312e-05 0.00261935 0.00624968 ) 0 
( 0.00369444 0.00257613 0.00688254 ) 0 
( 0.00248213 0.00400184 0.00684677 ) 0 
( 0.000267458 0.00424039 0.00720001 ) 0 
( 0.00224433 0.000764936 0.00728307 ) 0 
( 0.00434993 0.00184476 0.00670121 ) 0 
( 0.00138328 0.00135265 0.00673696 ) 0 
( 0.0015637 0.000191867 0.00682986 ) 0 
( 0.00318709 0.00109417 0.00688897 ) 0 
( 0.00497234 0.00317777 0.00672036 ) 0 
( 0.00411237 0.000772519 0.00669185 ) 0 
( 0.00390559 0.00350011 0.00656879 ) 0 
( 0.0028634 0.00203357 0.00700002 ) 0 
( 0.00214101 0.0029574 0.00709545 ) 0 
( 0.00109182 0.00257064 0.00661537 ) 0 
( 0.00362989 0.00441716 0.00687123 ) 0 
( 0.00448158 0.00499457 0.0073405 ) 0 
( 0.000359801 0.00117186 0.00749794 ) 0 
( 0.00186632 0.00489517 0.00713482 ) 0 
( 0.00201023 0.00172623 0.0074195 ) 0 
( 0.00354189 0.000177095 0.00725691 ) 0 
( 0.00370996 0.00176364 0.00746298 ) 0 
( 0.00283629 0.00478834 0.00735096 ) 0 
( 0.00333528 0.00360972 0.0073821 ) 0 
( 0.000340035 0.0020557 0.0070332 ) 0 
( 0.00286004 0.00136035 0.00779624 ) 0 
( 0.00105978 0.00185696 0.00769758 ) 0 
( 0.000313678 0.00247606 0.00793933 ) 0 
( 0.000271461 0.00347116 0.00783736 ) 0 
( 0.00179577 0.00255043 0.00794083 ) 0 
( 0.00241964 0.00362561 0.00778249 ) 0 
( 0.0012866 0.000805799 0.00756671 ) 0 
( 0.00286427 0.000374969 0.00796323 ) 0 
( 0.00459995 0.00405323 0.00702637 ) 0 
( 0.00155286 0.00400493 0.00746087 ) 0 
( 0.00290899 0.00274743 0.00769838 ) 0 
( 0.0011198 0.00310482 0.00745837 ) 0 
( 0.00487096 0.00116248 0.00721215 ) 0 
( 0.00398537 0.00425248 0.00778898 ) 0 
( 0.000978894 0.00483943 0.00759052 ) 0 
( 0.00214864 0.00466416 0.00806531 ) 0 
( 0.00196366 0.00118018 0.00825473 ) 0 
( 0.00407183 0.000873854 0.0077384 ) 0 
( 0.00247555 0.00201745 0.00844319 ) 0 
( 0.000295974 0.00484531 0.00832915 ) 0 
( 0.000885562 7.75941e-05 0.00812145 ) 0 
( 0.000942121 0.00408737 0.00824706 ) 0 
( 0.00482841 0.00134374 0.00819363 ) 0 
( 0.00427562 0.00317118 0.00743735 ) 0 
( 0.00491471 0.00393427 0.00796749 ) 0 
( 0.0040357 0.0034875 0.00842807 ) 0 
( 0.00188859 0.000198735 0.00808244 ) 0 
( 0.00458349 0.00218197 0.00770787 ) 0 
( 0.00357568 0.00162209 0.00844294 ) 0 
( 0.00219106 0.00291314 0.00878318 ) 0 
( 0.0011719 0.00313715 0.00845568 ) 0 
( 0.000209888 0.000373166 0.0088077 ) 0 
( 0.000349946 0.00355049 0.00884614 ) 0 
( 0.00409782 0.000822116 0.0087357 ) 0 
( 0.00305218 0.00333022 0.00849766 ) 0 
( 0.00185692 0.00385507 0.00857527 ) 0 
( 0.00461857 0.00217497 0.00870661 ) 0 
( 0.00377643 0.00256117 0.00815718 ) 0 
( 0.00283833 0.00101218 0.00873221 ) 0 
( 0.00306566 0.00427655 0.00817718 ) 0 
( 0.000341742 0.00193597 0.00878012 ) 0 
( 0.00495032 0.00309714 0.0085119 ) 0 
( 0.00140698 0.00194261 0.00863228 ) 0 
( 0.000834345 0.00116335 0.00838149 ) 0 
( 0.00435929 0.00439218 0.00870512 ) 0 
( 0.00208818 0.00147819 0.00920076 ) 0 
( 0.00348078 0.00407684 0.00906341 ) 0 
( 0.0049045 0.00099155 0.00930002 ) 0 
( 0.00225924 0.00463215 0.00905792 ) 0 
( 0.00172584 0.00236756 0.00947847 ) 0 
( 0.00152392 0.00336064 0.00937746 ) 0 
( 0.00105989 0.00423313 0.00922891 ) 0 
( 0.00147431 0.000609262 0.00891283 ) 0 
( 0.00405255 0.00162925 0.00932319 ) 0 
( 0.00133447 0.00494281 0.00858155 ) 0 
( 0.000991872 0.00137637 0.00934465 ) 0 
( 0.00468386 0.00365481 0.00929696 ) 0 
( 0.000799722 0.00268151 0.0092633 ) 0 
( 0.000118202 0.00444694 0.00948563 ) 0 
( 0.00323166 0.00239313 0.00897747 ) 0 
( 0.000340866 0.00197877 0.0098055 ) 0 
( 0.0015199 0.000737024 0.00990298 ) 0 
( 0.00324264 0.00310383 0.00968002 ) 0 
( 0.0031409 0.00134954 0.0096228 ) 0 
( 0.00245517 0.000623771 0.00956892 ) 0 
( 0.00453143 0.00455789 0.00969691 ) 0 
( 0.000549569 0.00056594 0.00972773 ) 0 
( 0.0018433 0.00418283 0.00984813 ) 0 
( 0.00406895 0.000744727 0.00978839 ) 0 
( 0.00408618 0.00285922 0.00920352 ) 0 
( 0.00255129 0.00370278 0.00927816 ) 0 
( 0.00337274 0.000316876 0.00921389 ) 0 
( 0.00320655 0.000466097 0.0102087 ) 0 
( 0.00461092 0.00284698 0.0100538 ) 0 
( 0.00391583 0.0038025 0.00991976 ) 0 
( 0.00224517 0.00309085 0.0100144 ) 0 
( 0.00374613 0.00230075 0.00999703 ) 0 
( 0.00078416 0.00487302 0.0100966 ) 0 
( 0.00266682 0.00221524 0.00978188 ) 0 
( 0.00304045 0.00474202 0.00967137 ) 0 
( 0.00226682 0.00139116 0.0101808 ) 0 
( 0.000636158 0.00353343 0.0098032 ) 0 
( 0.00497598 0.000652078 0.0102368 ) 0 
( 0.00119007 0.00280275 0.0102011 ) 0 
( 0.00134513 0.00177734 0.010189 ) 0 
( 0.000673413 0.00219252 0.0108012 ) 0 
( 0.00291157 0.00389724 0.0101899 ) 0 
( 0.00445077 0.00155193 0.0102369 ) 0 
( 0.000387023 0.00314368 0.0106894 ) 0 
( 0.00241692 0.00467767 0.0105714 ) 0 
( 0.00299275 0.00273428 0.0105743 ) 0 
( 0.000995854 0.000196708 0.0105608 ) 0 
( 0.0011137 0.00392154 0.0105907 ) 0 
( 0.00371053 0.00459612 0.0104916 ) 0 
( 0.00482602 0.00382345 0.0103315 ) 0 
( 0.000541004 0.00124855 0.0104579 ) 0 
( 0.00226243 0.000457546 0.010537 ) 0 
( 0.00209658 0.00229258 0.0105994 ) 0 
( 0.00175967 0.000232182 0.0113713 ) 0 
( 0.00208644 0.00375102 0.0107477 ) 0 
( 0.00229674 0.00295753 0.0113183 ) 0 
( 0.00316112 0.00171149 0.0105542 ) 0 
( 0.000209784 0.00434837 0.0107241 ) 0 
( 0.0030604 0.00357258 0.0111234 ) 0 
( 0.00407232 0.000806925 0.0107861 ) 0 
( 0.00163913 0.00453219 0.0111824 ) 0 
( 0.000661545 0.000769918 0.011327 ) 0 
( 0.00417363 0.00224713 0.0108993 ) 0 
( 0.00496985 0.00465386 0.0108691 ) 0 
( 0.00149771 0.00104616 0.0108533 ) 0 
( 0.00149323 0.00193485 0.0113117 ) 0 
( 0.00480062 0.00301199 0.0110465 ) 0 
( 0.00387781 0.00318116 0.0107015 ) 0 
( 0.000700324 0.00258913 0.0117185 ) 0 
( 0.00423628 0.00401789 0.011115 ) 0 
( 0.00239164 0.00152207 0.0111639 ) 0 
( 0.000694146 8.27708e-05 0.0120523 ) 0 
( 0.00330169 0.00224371 0.0113887 ) 0 
( 0.000191743 0.00370776 0.0114914 ) 0 
( 0.00313351 0.000853077 0.0111273 ) 0 
( 0.00176049 0.00112152 0.011828 ) 0 
( 0.00350521 0.00309139 0.0118782 ) 0 
( 0.00132529 0.00311433 0.0111412 ) 0 
( 0.00472486 0.000463462 0.0115121 ) 0 
( 0.00351303 0.00139646 0.0118755 ) 0 
( 0.00442161 0.00269344 0.0119148 ) 0 
( 0.00256879 0.00435492 0.0115052 ) 0 
( 0.00444537 0.00171576 0.0117076 ) 0 
)
