/*--------------------------------*- C++ -*----------------------------------*\
| =========                 |                                                 |
| \\      /  F ield         | OpenFOAM: The Open Source CFD Toolbox           |
|  \\    /   O peration     | Version:  5.x                                   |
|   \\  /    A nd           | Web:      www.OpenFOAM.org                      |
|    \\/     M anipulation  |                                                 |
\*---------------------------------------------------------------------------*/
FoamFile
{
    version     2.0;
    format      ascii;
    class       volScalarField;
    location    "400";
    object      p;
}
// * * * * * * * * * * * * * * * * * * * * * * * * * * * * * * * * * * * * * //

dimensions      [0 2 -2 0 0 0 0];

internalField   nonuniform List<scalar> 
90
(
0.0251171
0.0727479
0.136181
0.199875
0.268114
0.336873
0.404272
0.470023
0.536604
0.60382
0.672246
0.742326
0.813074
0.883999
0.954507
1.02407
1.09216
1.15831
1.22205
1.28295
1.34064
1.39477
1.445
1.49102
1.53268
1.56979
1.6022
1.62984
1.65261
1.67046
1.68332
1.69112
1.69376
1.6911
1.68298
1.66916
1.64939
1.62334
1.59068
1.55105
1.50408
1.44943
1.38677
1.31581
1.23631
1.14812
1.05109
0.945205
0.830455
0.706837
0.574265
0.432778
0.283254
0.12708
-0.0356322
-0.207533
-0.390467
-0.583462
-0.785435
-0.995377
-1.21225
-1.435
-1.66257
-1.8939
-2.12795
-2.36372
-2.60026
-2.83669
-3.07222
-3.30616
-3.53798
-3.76723
-3.99361
-4.21698
-4.43751
-4.6557
-4.87205
-5.08676
-5.29983
-5.51115
-5.72055
-5.92789
-6.13301
-6.33559
-6.53532
-6.73296
-6.93234
-7.13696
-7.32962
-7.43086
)
;

boundaryField
{
    inlet
    {
        type            zeroGradient;
    }
    outlet
    {
        type            fixedValue;
        value           uniform 0;
    }
    repeat_boundary
    {
        type            zeroGradient;
    }
    procBoundary1to0
    {
        type            processor;
        value           nonuniform List<scalar> 
90
(
0.0136941
0.0530625
0.117005
0.181595
0.247635
0.314458
0.382056
0.450358
0.51868
0.587311
0.65592
0.724401
0.79249
0.859901
0.926312
0.991402
1.05482
1.11619
1.17517
1.23136
1.28441
1.33395
1.3796
1.42106
1.45807
1.4904
1.5178
1.54007
1.55705
1.56863
1.57473
1.57531
1.57037
1.55992
1.54399
1.52262
1.49585
1.46374
1.42629
1.38356
1.33554
1.28224
1.22368
1.15984
1.09072
1.01633
0.936667
0.851739
0.761556
0.666116
0.565385
0.459308
0.347826
0.230791
0.107813
-0.0217453
-0.158549
-0.303223
-0.456334
-0.61831
-0.789366
-0.969509
-1.15854
-1.35603
-1.56138
-1.77382
-1.99248
-2.21646
-2.4448
-2.67658
-2.91094
-3.14708
-3.3843
-3.62204
-3.85974
-4.09693
-4.33354
-4.57008
-4.80707
-5.04481
-5.28358
-5.52359
-5.76468
-6.00593
-6.24721
-6.49378
-6.75529
-7.02194
-7.22545
-7.24598
)
;
    }
    procBoundary1to3
    {
        type            processor;
        value           nonuniform List<scalar> 
90
(
-0.00173122
-9.1872e-05
0.0178053
0.0932396
0.209024
0.303173
0.339551
0.361851
0.412802
0.473063
0.545414
0.643167
0.734858
0.824533
0.911282
0.99542
1.07723
1.15681
1.23418
1.30926
1.38175
1.45142
1.51834
1.58169
1.64133
1.69695
1.74807
1.79463
1.8362
1.87276
1.90408
1.93014
1.95085
1.96614
1.97592
1.97999
1.97808
1.96974
1.95437
1.93118
1.89922
1.85735
1.80437
1.73899
1.66
1.56627
1.4569
1.33124
1.18893
1.02991
0.854516
0.663492
0.457643
0.237759
0.00572422
-0.233885
-0.477101
-0.722716
-0.969859
-1.21788
-1.46608
-1.7137
-1.95983
-2.20365
-2.44449
-2.68163
-2.91431
-3.14171
-3.36301
-3.57738
-3.78419
-3.98279
-4.17195
-4.3502
-4.51919
-4.68792
-4.86227
-5.04041
-5.22042
-5.4009
-5.58067
-5.75877
-5.93428
-6.10624
-6.27381
-6.43756
-6.60019
-6.76066
-6.89855
-6.95523
)
;
    }
}


// ************************************************************************* //
