/*--------------------------------*- C++ -*----------------------------------*\
| =========                 |                                                 |
| \\      /  F ield         | OpenFOAM: The Open Source CFD Toolbox           |
|  \\    /   O peration     | Version:  5.x                                   |
|   \\  /    A nd           | Web:      www.OpenFOAM.org                      |
|    \\/     M anipulation  |                                                 |
\*---------------------------------------------------------------------------*/
FoamFile
{
    version     2.0;
    format      ascii;
    class       surfaceScalarField;
    location    "400";
    object      phi;
}
// * * * * * * * * * * * * * * * * * * * * * * * * * * * * * * * * * * * * * //

dimensions      [0 3 -1 0 0 0 0];

internalField   nonuniform List<scalar> 
89
(
-115.41
-115.152
-114.868
-114.539
-114.161
-113.735
-113.268
-112.764
-112.209
-111.597
-110.925
-110.19
-109.393
-108.538
-107.624
-106.653
-105.629
-104.554
-103.431
-102.265
-101.061
-99.8221
-98.5544
-97.2628
-95.9515
-94.6239
-93.283
-91.9305
-90.5676
-89.194
-87.8088
-86.4105
-84.9969
-83.5656
-82.1145
-80.6416
-79.1459
-77.627
-76.0859
-74.5246
-72.9464
-71.3561
-69.7594
-68.1629
-66.5742
-65.001
-63.4514
-61.9333
-60.4538
-59.0193
-57.6346
-56.3034
-55.0285
-53.8122
-52.6546
-51.5502
-50.493
-49.4769
-48.4969
-47.5491
-46.6309
-45.7403
-44.8759
-44.0366
-43.2215
-42.4295
-41.6598
-40.9112
-40.1822
-39.4715
-38.7779
-38.1003
-37.4382
-36.792
-36.164
-35.5605
-34.9903
-34.461
-33.9784
-33.5473
-33.171
-32.8517
-32.5908
-32.3883
-32.2438
-32.1557
-32.1239
-32.1409
-32.2173
)
;

boundaryField
{
    inlet
    {
        type            calculated;
        value           uniform -32.3334;
    }
    outlet
    {
        type            calculated;
        value           uniform 115.659;
    }
    repeat_boundary
    {
        type            calculated;
        value           uniform 0;
    }
    procBoundary1to0
    {
        type            processor;
        value           nonuniform List<scalar> 
90
(
-0.0434026
-0.0450887
-0.0530761
-0.0603025
-0.0677553
-0.0754637
-0.0834378
-0.0913329
-0.098986
-0.107258
-0.115923
-0.12507
-0.134841
-0.145197
-0.156016
-0.167034
-0.177952
-0.188479
-0.198309
-0.207171
-0.214848
-0.221274
-0.2265
-0.230646
-0.233998
-0.237034
-0.240251
-0.244278
-0.249788
-0.257475
-0.268024
-0.282055
-0.300098
-0.322551
-0.349664
-0.381517
-0.41802
-0.45892
-0.503816
-0.552185
-0.603412
-0.656825
-0.711729
-0.767432
-0.823272
-0.878631
-0.932941
-0.985684
-1.03639
-1.08457
-1.12973
-1.17136
-1.20878
-1.24154
-1.26978
-1.294
-1.31377
-1.32829
-1.33687
-1.33905
-1.33463
-1.32366
-1.30639
-1.28323
-1.25472
-1.22149
-1.1842
-1.14357
-1.10029
-1.05507
-1.00857
-0.961415
-0.914169
-0.867329
-0.821309
-0.776427
-0.732708
-0.689896
-0.647796
-0.606398
-0.565842
-0.526431
-0.488687
-0.453315
-0.420792
-0.390301
-0.362826
-0.34306
-0.33683
-0.333981
)
;
    }
    procBoundary1to3
    {
        type            processor;
        value           nonuniform List<scalar> 
90
(
-0.205841
-0.212854
-0.231195
-0.26795
-0.310607
-0.350558
-0.383527
-0.41231
-0.456651
-0.504629
-0.555655
-0.610503
-0.661451
-0.710726
-0.757954
-0.80319
-0.846267
-0.886794
-0.924406
-0.958765
-0.989732
-1.01726
-1.04114
-1.06096
-1.07738
-1.09057
-1.10064
-1.10814
-1.11318
-1.11613
-1.11712
-1.11628
-1.11353
-1.10871
-1.10146
-1.09132
-1.07771
-1.05995
-1.03733
-1.00914
-0.974712
-0.933484
-0.885014
-0.829035
-0.765483
-0.694529
-0.616614
-0.532458
-0.443085
-0.349989
-0.254958
-0.159828
-0.0661267
0.0251916
0.112211
0.189637
0.256597
0.312193
0.35682
0.391282
0.416419
0.433064
0.441994
0.443924
0.43957
0.429572
0.4145
0.394898
0.371323
0.344408
0.314941
0.283822
0.252074
0.221077
0.193381
0.172934
0.162475
0.160552
0.165268
0.175271
0.189493
0.207176
0.227731
0.250843
0.276281
0.302236
0.331065
0.360051
0.413239
0.450038
)
;
    }
}


// ************************************************************************* //
