/*--------------------------------*- C++ -*----------------------------------*\
| =========                 |                                                 |
| \\      /  F ield         | OpenFOAM: The Open Source CFD Toolbox           |
|  \\    /   O peration     | Version:  5.x                                   |
|   \\  /    A nd           | Web:      www.OpenFOAM.org                      |
|    \\/     M anipulation  |                                                 |
\*---------------------------------------------------------------------------*/
FoamFile
{
    version     2.0;
    format      ascii;
    class       volVectorField;
    location    "400";
    object      stored_U;
}
// * * * * * * * * * * * * * * * * * * * * * * * * * * * * * * * * * * * * * //

dimensions      [0 1 -1 0 0 0 0];

internalField   nonuniform List<vector> 
90
(
(-0.0161416 -0.0504294 -4.61314)
(-0.0169939 -0.0534067 -4.59987)
(-0.0173838 -0.059816 -4.59172)
(-0.0169794 -0.0671937 -4.58064)
(-0.0162935 -0.0752655 -4.56867)
(-0.0151354 -0.084357 -4.55492)
(-0.013654 -0.0945622 -4.53971)
(-0.0120176 -0.105439 -4.5228)
(-0.010213 -0.117472 -4.50415)
(-0.00809933 -0.13091 -4.48337)
(-0.00557187 -0.144465 -4.46007)
(-0.00266667 -0.157749 -4.4342)
(0.000677719 -0.170924 -4.40588)
(0.00443318 -0.184021 -4.37508)
(0.00856918 -0.197062 -4.34188)
(0.0130149 -0.209998 -4.30626)
(0.017677 -0.222783 -4.26826)
(0.022456 -0.235296 -4.22793)
(0.0272526 -0.247433 -4.18535)
(0.0319541 -0.259067 -4.14064)
(0.036442 -0.270108 -4.09396)
(0.0406486 -0.280535 -4.04548)
(0.0445434 -0.290237 -3.9954)
(0.0480736 -0.298981 -3.94393)
(0.0512263 -0.306833 -3.89128)
(0.0540728 -0.313754 -3.83772)
(0.0566555 -0.319669 -3.78336)
(0.0590734 -0.324606 -3.72842)
(0.0614308 -0.328518 -3.67298)
(0.0638498 -0.331416 -3.61713)
(0.0664586 -0.33328 -3.5609)
(0.0693845 -0.334107 -3.50426)
(0.072749 -0.333875 -3.44717)
(0.0766615 -0.332557 -3.38955)
(0.0812154 -0.33011 -3.33128)
(0.086485 -0.326476 -3.27226)
(0.0925231 -0.32158 -3.21237)
(0.0993602 -0.315335 -3.15154)
(0.107004 -0.307643 -3.0897)
(0.115441 -0.298404 -3.02686)
(0.124637 -0.287524 -2.96306)
(0.13454 -0.274929 -2.89838)
(0.145085 -0.260573 -2.83299)
(0.156196 -0.244451 -2.76709)
(0.167793 -0.226612 -2.70093)
(0.179794 -0.207166 -2.63481)
(0.192116 -0.186287 -2.56905)
(0.20468 -0.164222 -2.50398)
(0.217411 -0.141283 -2.43993)
(0.230192 -0.117961 -2.37724)
(0.242904 -0.0947621 -2.3162)
(0.255435 -0.072178 -2.25711)
(0.267653 -0.0507301 -2.20005)
(0.279646 -0.0300133 -2.14523)
(0.291363 -0.0103503 -2.0927)
(0.302743 0.00766594 -2.04255)
(0.313767 0.0234056 -1.99535)
(0.324226 0.0363997 -1.95064)
(0.333771 0.0465294 -1.9076)
(0.342123 0.0539269 -1.86626)
(0.349064 0.0587854 -1.82646)
(0.354446 0.0612846 -1.788)
(0.35817 0.0616052 -1.75078)
(0.360188 0.059909 -1.71471)
(0.360493 0.0563468 -1.67975)
(0.359115 0.0510538 -1.64584)
(0.356112 0.0441436 -1.61296)
(0.351564 0.0357129 -1.58108)
(0.345566 0.0258507 -1.55016)
(0.338229 0.0146528 -1.52017)
(0.32967 0.00223736 -1.49106)
(0.320012 -0.011241 -1.46279)
(0.30938 -0.0255828 -1.43534)
(0.297904 -0.0404994 -1.40869)
(0.28571 -0.0555297 -1.38284)
(0.272907 -0.0700136 -1.35792)
(0.259565 -0.0833636 -1.33418)
(0.245696 -0.0955168 -1.31197)
(0.231277 -0.106852 -1.29162)
(0.21632 -0.117799 -1.27342)
(0.200893 -0.128739 -1.25756)
(0.185129 -0.14001 -1.2442)
(0.169224 -0.151896 -1.23343)
(0.153422 -0.164638 -1.22523)
(0.137951 -0.178472 -1.21943)
(0.122975 -0.193688 -1.21587)
(0.109016 -0.2105 -1.21564)
(0.0968203 -0.229488 -1.22138)
(0.0873194 -0.249172 -1.23081)
(0.0791475 -0.265315 -1.21721)
)
;

boundaryField
{
    inlet
    {
        type            calculated;
        value           uniform (0.0791475 -0.265315 -1.21721);
    }
    outlet
    {
        type            calculated;
        value           uniform (-0.0161416 -0.0504294 -4.61314);
    }
    repeat_boundary
    {
        type            calculated;
        value           nonuniform List<vector> 
180
(
(-0.0161416 0 -4.61314)
(-0.0169939 0 -4.59987)
(-0.0173838 0 -4.59172)
(-0.0169794 0 -4.58064)
(-0.0162935 0 -4.56867)
(-0.0151354 0 -4.55492)
(-0.013654 0 -4.53971)
(-0.0120176 0 -4.5228)
(-0.010213 0 -4.50415)
(-0.00809933 0 -4.48337)
(-0.00557187 0 -4.46007)
(-0.00266667 0 -4.4342)
(0.000677719 0 -4.40588)
(0.00443318 0 -4.37508)
(0.00856918 0 -4.34188)
(0.0130149 0 -4.30626)
(0.017677 0 -4.26826)
(0.022456 0 -4.22793)
(0.0272526 0 -4.18535)
(0.0319541 0 -4.14064)
(0.036442 0 -4.09396)
(0.0406486 0 -4.04548)
(0.0445434 0 -3.9954)
(0.0480736 0 -3.94393)
(0.0512263 0 -3.89128)
(0.0540728 0 -3.83772)
(0.0566555 0 -3.78336)
(0.0590734 0 -3.72842)
(0.0614308 0 -3.67298)
(0.0638498 0 -3.61713)
(0.0664586 0 -3.5609)
(0.0693845 0 -3.50426)
(0.072749 0 -3.44717)
(0.0766615 0 -3.38955)
(0.0812154 0 -3.33128)
(0.086485 0 -3.27226)
(0.0925231 0 -3.21237)
(0.0993602 0 -3.15154)
(0.107004 0 -3.0897)
(0.115441 0 -3.02686)
(0.124637 0 -2.96306)
(0.13454 0 -2.89838)
(0.145085 0 -2.83299)
(0.156196 0 -2.76709)
(0.167793 0 -2.70093)
(0.179794 0 -2.63481)
(0.192116 0 -2.56905)
(0.20468 0 -2.50398)
(0.217411 0 -2.43993)
(0.230192 0 -2.37724)
(0.242904 0 -2.3162)
(0.255435 0 -2.25711)
(0.267653 0 -2.20005)
(0.279646 0 -2.14523)
(0.291363 0 -2.0927)
(0.302743 0 -2.04255)
(0.313767 0 -1.99535)
(0.324226 0 -1.95064)
(0.333771 0 -1.9076)
(0.342123 0 -1.86626)
(0.349064 0 -1.82646)
(0.354446 0 -1.788)
(0.35817 0 -1.75078)
(0.360188 0 -1.71471)
(0.360493 0 -1.67975)
(0.359115 0 -1.64584)
(0.356112 0 -1.61296)
(0.351564 0 -1.58108)
(0.345566 0 -1.55016)
(0.338229 0 -1.52017)
(0.32967 0 -1.49106)
(0.320012 0 -1.46279)
(0.30938 0 -1.43534)
(0.297904 0 -1.40869)
(0.28571 0 -1.38284)
(0.272907 0 -1.35792)
(0.259565 0 -1.33418)
(0.245696 0 -1.31197)
(0.231277 0 -1.29162)
(0.21632 0 -1.27342)
(0.200893 0 -1.25756)
(0.185129 0 -1.2442)
(0.169224 0 -1.23343)
(0.153422 0 -1.22523)
(0.137951 0 -1.21943)
(0.122975 0 -1.21587)
(0.109016 0 -1.21564)
(0.0968203 0 -1.22138)
(0.0873194 0 -1.23081)
(0.0791475 0 -1.21721)
(0 -0.0504294 -4.61314)
(0 -0.0534067 -4.59987)
(0 -0.059816 -4.59172)
(0 -0.0671937 -4.58064)
(0 -0.0752655 -4.56867)
(0 -0.084357 -4.55492)
(0 -0.0945622 -4.53971)
(0 -0.105439 -4.5228)
(0 -0.117472 -4.50415)
(0 -0.13091 -4.48337)
(0 -0.144465 -4.46007)
(0 -0.157749 -4.4342)
(0 -0.170924 -4.40588)
(0 -0.184021 -4.37508)
(0 -0.197062 -4.34188)
(0 -0.209998 -4.30626)
(0 -0.222783 -4.26826)
(0 -0.235296 -4.22793)
(0 -0.247433 -4.18535)
(0 -0.259067 -4.14064)
(0 -0.270108 -4.09396)
(0 -0.280535 -4.04548)
(0 -0.290237 -3.9954)
(0 -0.298981 -3.94393)
(0 -0.306833 -3.89128)
(0 -0.313754 -3.83772)
(0 -0.319669 -3.78336)
(0 -0.324606 -3.72842)
(0 -0.328518 -3.67298)
(0 -0.331416 -3.61713)
(0 -0.33328 -3.5609)
(0 -0.334107 -3.50426)
(0 -0.333875 -3.44717)
(0 -0.332557 -3.38955)
(0 -0.33011 -3.33128)
(0 -0.326476 -3.27226)
(0 -0.32158 -3.21237)
(0 -0.315335 -3.15154)
(0 -0.307643 -3.0897)
(0 -0.298404 -3.02686)
(0 -0.287524 -2.96306)
(0 -0.274929 -2.89838)
(0 -0.260573 -2.83299)
(0 -0.244451 -2.76709)
(0 -0.226612 -2.70093)
(0 -0.207166 -2.63481)
(0 -0.186287 -2.56905)
(0 -0.164222 -2.50398)
(0 -0.141283 -2.43993)
(0 -0.117961 -2.37724)
(0 -0.0947621 -2.3162)
(0 -0.072178 -2.25711)
(0 -0.0507301 -2.20005)
(0 -0.0300133 -2.14523)
(0 -0.0103503 -2.0927)
(0 0.00766594 -2.04255)
(0 0.0234056 -1.99535)
(0 0.0363997 -1.95064)
(0 0.0465294 -1.9076)
(0 0.0539269 -1.86626)
(0 0.0587854 -1.82646)
(0 0.0612846 -1.788)
(0 0.0616052 -1.75078)
(0 0.059909 -1.71471)
(0 0.0563468 -1.67975)
(0 0.0510538 -1.64584)
(0 0.0441436 -1.61296)
(0 0.0357129 -1.58108)
(0 0.0258507 -1.55016)
(0 0.0146528 -1.52017)
(0 0.00223736 -1.49106)
(0 -0.011241 -1.46279)
(0 -0.0255828 -1.43534)
(0 -0.0404994 -1.40869)
(0 -0.0555297 -1.38284)
(0 -0.0700136 -1.35792)
(0 -0.0833636 -1.33418)
(0 -0.0955168 -1.31197)
(0 -0.106852 -1.29162)
(0 -0.117799 -1.27342)
(0 -0.128739 -1.25756)
(0 -0.14001 -1.2442)
(0 -0.151896 -1.23343)
(0 -0.164638 -1.22523)
(0 -0.178472 -1.21943)
(0 -0.193688 -1.21587)
(0 -0.2105 -1.21564)
(0 -0.229488 -1.22138)
(0 -0.249172 -1.23081)
(0 -0.265315 -1.21721)
)
;
    }
    procBoundary1to0
    {
        type            processor;
        value           nonuniform List<vector> 
90
(
(0.0315896 -0.0521858 -4.64692)
(0.0327886 -0.0546485 -4.64415)
(0.0357103 -0.0592971 -4.63592)
(0.0379051 -0.0664111 -4.6348)
(0.0401553 -0.0756702 -4.62999)
(0.0421469 -0.0861839 -4.62485)
(0.0438348 -0.0971451 -4.61728)
(0.045052 -0.109401 -4.60969)
(0.0457216 -0.122024 -4.60012)
(0.0461704 -0.134831 -4.58923)
(0.0464567 -0.147824 -4.57701)
(0.0466096 -0.160837 -4.56343)
(0.046725 -0.173882 -4.54863)
(0.04683 -0.186976 -4.53269)
(0.0469595 -0.200115 -4.51571)
(0.0471014 -0.213353 -4.49777)
(0.0472098 -0.226735 -4.47898)
(0.0472578 -0.240268 -4.45939)
(0.047195 -0.253976 -4.43909)
(0.0469838 -0.267851 -4.41812)
(0.0465772 -0.281881 -4.39655)
(0.045936 -0.296028 -4.37442)
(0.0450574 -0.310226 -4.35179)
(0.0439627 -0.324387 -4.32872)
(0.0426793 -0.338415 -4.30528)
(0.0412862 -0.352164 -4.28154)
(0.039894 -0.365487 -4.25763)
(0.0386338 -0.378221 -4.23368)
(0.0376702 -0.390195 -4.20984)
(0.0371808 -0.401236 -4.18631)
(0.037356 -0.411166 -4.16328)
(0.0383815 -0.419812 -4.14098)
(0.0404275 -0.42701 -4.11966)
(0.0436347 -0.43261 -4.09956)
(0.0481022 -0.436482 -4.08093)
(0.0538781 -0.438519 -4.06401)
(0.0609538 -0.438644 -4.04902)
(0.0692622 -0.436809 -4.03618)
(0.0786809 -0.433002 -4.02566)
(0.0890387 -0.427246 -4.01759)
(0.100126 -0.419602 -4.0121)
(0.111707 -0.410163 -4.00924)
(0.123531 -0.399059 -4.00904)
(0.135347 -0.38645 -4.0115)
(0.146913 -0.37253 -4.01659)
(0.158003 -0.357518 -4.02422)
(0.168412 -0.341659 -4.03429)
(0.177955 -0.325218 -4.04668)
(0.186473 -0.308475 -4.06123)
(0.193819 -0.291722 -4.07776)
(0.19985 -0.275257 -4.09605)
(0.204434 -0.259375 -4.11585)
(0.207449 -0.24435 -4.13683)
(0.208789 -0.230452 -4.15866)
(0.208392 -0.21794 -4.18094)
(0.206262 -0.207033 -4.20324)
(0.202471 -0.197886 -4.22514)
(0.197129 -0.190574 -4.24621)
(0.190338 -0.185073 -4.26606)
(0.182173 -0.181261 -4.28431)
(0.172732 -0.178937 -4.30062)
(0.162163 -0.177836 -4.31469)
(0.150644 -0.177663 -4.32631)
(0.138385 -0.178113 -4.33532)
(0.125608 -0.178907 -4.34161)
(0.112537 -0.179798 -4.34513)
(0.0993927 -0.180581 -4.34586)
(0.0863854 -0.181094 -4.34383)
(0.073712 -0.181217 -4.33907)
(0.0615532 -0.180873 -4.33164)
(0.0500714 -0.180025 -4.32163)
(0.0394086 -0.178672 -4.30911)
(0.0296851 -0.176844 -4.29418)
(0.0209973 -0.174609 -4.27693)
(0.0134109 -0.172071 -4.25747)
(0.00696182 -0.16937 -4.23586)
(0.00165555 -0.166603 -4.21216)
(-0.00253367 -0.163562 -4.18644)
(-0.00562789 -0.159834 -4.15872)
(-0.00762119 -0.155099 -4.12907)
(-0.00848431 -0.149129 -4.09766)
(-0.00817018 -0.141707 -4.06469)
(-0.00661862 -0.132632 -4.03037)
(-0.00376769 -0.121695 -3.99476)
(0.000418625 -0.108716 -3.95803)
(0.00577809 -0.0939455 -3.92142)
(0.0127456 -0.0760296 -3.88713)
(0.0216979 -0.0537329 -3.85583)
(0.0324019 -0.0266995 -3.81514)
(0.0384574 -0.011082 -3.76919)
)
;
    }
    procBoundary1to3
    {
        type            processor;
        value           nonuniform List<vector> 
90
(
(0.00369119 -0.0226006 -4.84606)
(0.0045571 -0.023557 -4.84996)
(0.00546318 -0.0262091 -4.84438)
(0.00958487 -0.0316608 -4.85757)
(0.0151178 -0.0352682 -4.86283)
(0.0191651 -0.0374759 -4.86599)
(0.0239605 -0.0421433 -4.86323)
(0.0291198 -0.0466932 -4.87748)
(0.0309362 -0.0509026 -4.87996)
(0.031524 -0.0589682 -4.87629)
(0.0388062 -0.0671205 -4.88862)
(0.0452744 -0.0746677 -4.89427)
(0.0528062 -0.0818049 -4.90247)
(0.060768 -0.0885065 -4.91021)
(0.0694053 -0.0948388 -4.91865)
(0.0786045 -0.100819 -4.92687)
(0.0884821 -0.106485 -4.93516)
(0.0990337 -0.111762 -4.94311)
(0.11023 -0.116517 -4.95067)
(0.121896 -0.120572 -4.95752)
(0.13379 -0.123856 -4.96376)
(0.145807 -0.126451 -4.96902)
(0.158153 -0.128394 -4.97288)
(0.170528 -0.129336 -4.97641)
(0.182117 -0.129499 -4.97771)
(0.193436 -0.129096 -4.97863)
(0.204035 -0.128104 -4.9777)
(0.214018 -0.126813 -4.97598)
(0.223337 -0.125304 -4.97292)
(0.232027 -0.123785 -4.96895)
(0.240165 -0.12238 -4.96398)
(0.247839 -0.121221 -4.95815)
(0.25517 -0.120383 -4.95145)
(0.262284 -0.119899 -4.94389)
(0.269308 -0.119747 -4.93536)
(0.276365 -0.11985 -4.9257)
(0.283562 -0.120083 -4.91467)
(0.29099 -0.120281 -4.90194)
(0.29872 -0.120253 -4.88713)
(0.306801 -0.119794 -4.86978)
(0.31526 -0.118699 -4.84942)
(0.324095 -0.116778 -4.82559)
(0.333278 -0.113862 -4.79784)
(0.342757 -0.109805 -4.76581)
(0.352459 -0.10449 -4.72919)
(0.362301 -0.0978307 -4.68782)
(0.3722 -0.0897748 -4.64161)
(0.382081 -0.0803122 -4.59063)
(0.391885 -0.0694832 -4.53501)
(0.401571 -0.0573789 -4.47501)
(0.411106 -0.0441505 -4.41103)
(0.420453 -0.0300088 -4.3435)
(0.429563 -0.0152152 -4.2729)
(0.438365 -7.88049e-05 -4.19979)
(0.44676 0.0150219 -4.12477)
(0.454588 0.0296333 -4.04849)
(0.461623 0.0432444 -3.97125)
(0.467716 0.0554178 -3.894)
(0.472809 0.0659249 -3.81777)
(0.476873 0.0747801 -3.74332)
(0.479851 0.0821163 -3.67115)
(0.481694 0.08811 -3.60189)
(0.482356 0.0929719 -3.53597)
(0.481801 0.0969075 -3.47371)
(0.480029 0.100115 -3.41551)
(0.477088 0.102794 -3.36159)
(0.473064 0.105128 -3.31217)
(0.468079 0.107295 -3.26744)
(0.462292 0.109465 -3.22754)
(0.455898 0.111813 -3.19257)
(0.449138 0.11453 -3.16259)
(0.442297 0.117819 -3.13765)
(0.435702 0.121904 -3.11764)
(0.429759 0.127044 -3.10216)
(0.424948 0.13355 -3.09073)
(0.42183 0.141783 -3.08359)
(0.421025 0.152144 -3.08117)
(0.423028 0.16502 -3.07967)
(0.427138 0.180142 -3.0795)
(0.43286 0.197325 -3.08001)
(0.439918 0.21649 -3.0807)
(0.44813 0.237636 -3.08124)
(0.457383 0.260796 -3.08128)
(0.467618 0.286088 -3.08059)
(0.478808 0.313664 -3.07877)
(0.490734 0.343074 -3.07599)
(0.503331 0.375658 -3.07289)
(0.515422 0.410859 -3.06965)
(0.527018 0.449903 -3.06198)
(0.537053 0.477222 -3.04469)
)
;
    }
}


// ************************************************************************* //
