FoamFile
{version 2.0; format ascii;class Cloud<passiveParticle>; location 0;object  positions;}
356
(
( -1685.58 4046.76 499.024 ) 0 
( -3954.88 2494.45 498.552 ) 0 
( -3881.8 4223.55 498.765 ) 0 
( -4880.01 4266.96 498.814 ) 0 
( -2189.98 4909.84 499.529 ) 0 
( -3490.64 1609.39 498.734 ) 0 
( -2876.62 820.922 496.628 ) 0 
( -976.901 2179.89 499.024 ) 0 
( -2363.36 3286.96 497.765 ) 0 
( -4866.48 725.654 498.915 ) 0 
( -291.053 2917.66 498.312 ) 0 
( -551.886 141.938 498.779 ) 0 
( -4953.37 2535.61 497.701 ) 0 
( -1006.24 4782.12 497.212 ) 0 
( -3419.56 3338.38 498.33 ) 0 
( -1958.63 2373.93 496.974 ) 0 
( -4417.84 3380.08 498.55 ) 0 
( -605.821 3866.48 498.799 ) 0 
( -2518.78 1656.69 906.923 ) 0 
( -1110.1 4200.2 1300.96 ) 0 
( -4489.28 1650.39 497.771 ) 0 
( -1283.69 3131.38 499.659 ) 0 
( -1862.53 2959.58 1296.73 ) 0 
( -1509.25 438.502 496.884 ) 0 
( -3866.67 683.991 499.096 ) 0 
( -1636.42 1428.96 497.927 ) 0 
( -2850.09 4159.49 498.149 ) 0 
( -2956.46 2453.62 497.24 ) 0 
( -2794.4 4750.51 1300.46 ) 0 
( -437.911 4943.09 1303.74 ) 0 
( -3089.4 295.057 1316.37 ) 0 
( -4006.72 1282.76 1290.42 ) 0 
( -4469.49 2224.39 1314.64 ) 0 
( -562.562 1140.98 498.817 ) 0 
( -3857.36 4797.32 1315.57 ) 0 
( -715.172 3283.73 1324.78 ) 0 
( -2904.05 3042.9 1300.83 ) 0 
( -1181.52 983.288 1266.52 ) 0 
( -12.0706 1401.95 1323.42 ) 0 
( -437.046 2308.83 1329.47 ) 0 
( -1678.15 1951.97 1357.68 ) 0 
( -4204.07 305.34 1360.04 ) 0 
( -4960.05 2531.82 2128.05 ) 0 
( -3471.12 2183.09 1315.81 ) 0 
( -4369.12 4531.92 2131.08 ) 0 
( -2280.29 3893.09 1288.1 ) 0 
( -30.3813 4030.43 1298.26 ) 0 
( -1524.63 3599.35 1981.25 ) 0 
( -4931.07 3110.79 1312.9 ) 0 
( -2566.53 2208.29 1737.57 ) 0 
( -1034.59 4803.08 2093 ) 0 
( -4855.69 4848.35 1310.7 ) 0 
( -3068.99 1243.94 1628.85 ) 0 
( -2153.98 768.876 1183.2 ) 0 
( -3930.64 3070.29 1313.92 ) 0 
( -342.577 464.457 1420.73 ) 0 
( -1798.41 1153.19 2032.69 ) 0 
( -4395.13 3955.09 1315.47 ) 0 
( -3381.21 3920 1309.47 ) 0 
( -4463.62 1622.17 2112.29 ) 0 
( -2783.55 510.834 2242.78 ) 0 
( -1056 490.784 2126.01 ) 0 
( -939.384 1657.87 1960.97 ) 0 
( -2372.93 3100.1 2142.9 ) 0 
( -4785.32 640.176 2100.19 ) 0 
( -3410.14 2929.76 2154.18 ) 0 
( -2060.09 4598.18 1961.7 ) 0 
( -1897.81 175.761 2563.67 ) 0 
( -26.5384 1470 2319.02 ) 0 
( -248.522 2970.63 2172.99 ) 0 
( -3507.35 1876.53 2266.49 ) 0 
( -3800.32 802.028 2146.68 ) 0 
( -2625.45 1464.54 2495.02 ) 0 
( -1841.02 2077.2 2410.58 ) 0 
( -4420.9 3372.74 2129.9 ) 0 
( -1159.83 2633.62 1938.08 ) 0 
( -586.756 3909.97 2117.45 ) 0 
( -1533.49 4205.24 2772.55 ) 0 
( -599.796 2196.49 2728.63 ) 0 
( -4140.07 2518.41 2698.3 ) 0 
( -2965.82 4884.47 2274.96 ) 0 
( -2490.07 740.504 3169.23 ) 0 
( -238.858 542.056 2697.18 ) 0 
( -3413.2 1134.41 3010.52 ) 0 
( -2981.19 3887.24 2223.86 ) 0 
( -1600.97 2982.92 2763.36 ) 0 
( -1510.36 403.323 3455.28 ) 0 
( -3721.64 4869.63 2988.48 ) 0 
( -3838.92 3912.08 2734.27 ) 0 
( -4921.69 3998.07 2768.93 ) 0 
( -1413.5 2167.12 3307.8 ) 0 
( -2784.97 2417.99 2741.48 ) 0 
( -1183.85 1200.09 2819.01 ) 0 
( -4285.7 1612.67 3095.23 ) 0 
( -1170.15 4167.13 3702.61 ) 0 
( -468.188 4568.86 2879.18 ) 0 
( -2417.96 4578.59 3052.18 ) 0 
( -2386.77 3580.83 3017.09 ) 0 
( -3366.02 137.785 2963.36 ) 0 
( -198.111 3951.53 3613.92 ) 0 
( -2308.5 1734.29 3402.26 ) 0 
( -3375.99 3121.8 3133.47 ) 0 
( -713.726 3394.76 2963.59 ) 0 
( -3504.75 2163.52 3382.58 ) 0 
( -3162.88 448.228 3888.86 ) 0 
( -510.239 2221.15 3727.4 ) 0 
( -1303.43 3090.35 3709.72 ) 0 
( -2218.93 2724.84 3505.39 ) 0 
( -4623.66 4720.86 3390.06 ) 0 
( -306.548 1356.78 3270.87 ) 0 
( -503.767 211.494 3600.12 ) 0 
( -1384.54 1318.12 3832.93 ) 0 
( -4203.35 662.805 3397.2 ) 0 
( -4916.02 3040.69 3049.38 ) 0 
( -2912.3 3237.56 4010.7 ) 0 
( -2837.67 2175.4 4124.76 ) 0 
( -1653.82 137.061 4406.84 ) 0 
( -1637.34 1067.18 4771.24 ) 0 
( -4206.58 2795.6 3706.82 ) 0 
( -2390.9 1039.97 4116.54 ) 0 
( -2273.42 4000.59 3915.79 ) 0 
( -1843.95 2121.16 4208.07 ) 0 
( -83.243 3062.41 4053.61 ) 0 
( -3853.44 4515.8 3990.68 ) 0 
( -4551.52 1356.68 4024.11 ) 0 
( -501.121 1018.25 4190.6 ) 0 
( -4025.18 581.752 4376.03 ) 0 
( -2741.55 4881.6 3977.39 ) 0 
( -3551.54 1363.43 3975.59 ) 0 
( -3158.27 4042.18 3453.8 ) 0 
( -4368.43 3771.5 3568.92 ) 0 
( -673.76 3762.77 4470.28 ) 0 
( -3612.98 2725.71 4506.26 ) 0 
( -315.375 4715.99 4549.16 ) 0 
( -984.435 1804.88 4607.98 ) 0 
( -4816.05 4313.18 4281.76 ) 0 
( -3412.15 1812.27 4856.19 ) 0 
( -1762.81 4820.66 4172.39 ) 0 
( -3093.88 4097.02 4486.9 ) 0 
( -2424.81 1670.13 4890.39 ) 0 
( -1628.6 3969.13 4677.26 ) 0 
( -89.8544 2248.25 4632.51 ) 0 
( -2011.1 3084.31 4414.29 ) 0 
( -4993.41 3332.68 4211.93 ) 0 
( -3162.32 847.232 4803.93 ) 0 
( -920.977 2801.13 4584.71 ) 0 
( -1093.9 393.89 5269.21 ) 0 
( -1364.55 4839.87 5088.57 ) 0 
( -4807.56 173.985 4844.3 ) 0 
( -1298.6 1527.94 5590.92 ) 0 
( -2464.75 3636.11 5112 ) 0 
( -4515.74 2990.3 5017.94 ) 0 
( -4751.37 2275 4362.08 ) 0 
( -2732.79 2683.22 4977.23 ) 0 
( -2391.44 269.502 5067.32 ) 0 
( -4875.59 4595.81 5299.96 ) 0 
( -2368.77 4614.81 4939.13 ) 0 
( -3928.13 4544.52 4985.76 ) 0 
( -3989.17 3652.62 4485.87 ) 0 
( -459.032 1173.58 5176.95 ) 0 
( -4286.3 1348.41 4986.4 ) 0 
( -2180.07 1059.07 5642.77 ) 0 
( -2960.5 2094.18 5751.49 ) 0 
( -3414.5 3359.32 5252.65 ) 0 
( -367.378 3260.93 5276.97 ) 0 
( -3643.48 1364.76 5751.01 ) 0 
( -627.8 4221.64 5358.04 ) 0 
( -3881.29 2399.7 5511.13 ) 0 
( -246.715 434.583 5815.01 ) 0 
( -3970.89 411.71 5357.63 ) 0 
( -1795.46 2393.58 5167.83 ) 0 
( -4563.44 1926.39 6166.17 ) 0 
( -4261.45 3793.9 5553.95 ) 0 
( -2016.07 2032.48 6072.64 ) 0 
( -1286.24 719.688 6193.84 ) 0 
( -4672.19 953.339 5818 ) 0 
( -641.89 163.03 6716.14 ) 0 
( -3118.56 4278.94 5507.93 ) 0 
( -1782.18 4128.27 5651.6 ) 0 
( -165.294 2785.18 6132 ) 0 
( -2288.41 2961.54 5826.76 ) 0 
( -500.997 1335.73 6162.14 ) 0 
( -4220.63 204.375 6301.49 ) 0 
( -3063.69 550.852 5752.14 ) 0 
( -1362.92 3275.65 5344.51 ) 0 
( -856.052 2420.24 5506.31 ) 0 
( -754.796 3602.98 6131.44 ) 0 
( -4211.06 3037.2 6204.8 ) 0 
( -4852.94 2607.68 6838.2 ) 0 
( -3660.38 2230.03 6468.59 ) 0 
( -4103.85 1159.65 6613.81 ) 0 
( -200.206 2042.91 6800.25 ) 0 
( -3118.59 3368.43 6207.07 ) 0 
( -2855.19 1312.26 6365.24 ) 0 
( -1227.43 4910.71 6075.31 ) 0 
( -2389.86 431.216 6478.53 ) 0 
( -3921.6 4626.41 5989.94 ) 0 
( -235.346 4922.86 5952.05 ) 0 
( -4691.95 4628.95 6625.97 ) 0 
( -1173.32 1931.02 6600.71 ) 0 
( -1388.45 2838.15 6241.1 ) 0 
( -2449.67 4274.91 7246.54 ) 0 
( -700.384 3021.5 6941.35 ) 0 
( -4229.87 1934.2 7232.84 ) 0 
( -1423.43 4123.91 6659.74 ) 0 
( -2205.69 3501.81 6662.71 ) 0 
( -185.675 4225.99 6666.45 ) 0 
( -2720.12 2530.9 6618.06 ) 0 
( -1921.85 1279.96 6722.04 ) 0 
( -2199.93 4681.2 6369.74 ) 0 
( -3121.9 4322.21 6506.81 ) 0 
( -2424.41 769.731 7417.61 ) 0 
( -4012.11 3898.64 6668.49 ) 0 
( -3371.2 692.198 7107.62 ) 0 
( -3603.6 3058.79 7024.27 ) 0 
( -1594.21 163.52 7020.14 ) 0 
( -530.39 3820.43 7516.67 ) 0 
( -3806.16 4800.63 7056.59 ) 0 
( -4907.46 3755.88 7088.13 ) 0 
( -3263.04 1680.78 7201.32 ) 0 
( -864.363 4876.44 7005.35 ) 0 
( -1503.65 3429.84 7373.78 ) 0 
( -1496.97 1704.12 7520.27 ) 0 
( -1834.63 2534.11 7080.14 ) 0 
( -4996.28 1324.14 7424.22 ) 0 
( -3986.77 1124.24 7765.13 ) 0 
( -4512.37 475.338 7216.72 ) 0 
( -887.29 1073.12 7044.88 ) 0 
( -2694.45 3102.27 7437.91 ) 0 
( -984.303 2527.19 7760.79 ) 0 
( -3974.69 108.12 7974.53 ) 0 
( -4421.78 3060.03 7616.75 ) 0 
( -3374.15 3947.2 7435.71 ) 0 
( -2989.41 253.388 8059.27 ) 0 
( -12.0274 2656.01 7565.98 ) 0 
( -3631.78 2152.72 8001.61 ) 0 
( -4017.42 4996.13 8080.4 ) 0 
( -4808.62 4596.74 7618.12 ) 0 
( -2190.79 3723.61 8037.72 ) 0 
( -2439.77 1999.75 7668.66 ) 0 
( -3080.71 4844.12 7770.56 ) 0 
( -72.879 1379.23 7536.72 ) 0 
( -902.492 295.552 7728.8 ) 0 
( -4872.82 3762.89 8165.17 ) 0 
( -1530.59 4434.08 7603.99 ) 0 
( -299.921 2013.27 8275.48 ) 0 
( -2395.19 4555.22 8552.97 ) 0 
( -1220.31 3760.18 8273.36 ) 0 
( -4404.85 2893.46 8602.32 ) 0 
( -1439.85 4916.62 8474.51 ) 0 
( -2992.05 1270.16 8070.59 ) 0 
( -2813.96 2550.15 8413.78 ) 0 
( -607.787 4713.02 7959.38 ) 0 
( -779.708 4341.41 8956.61 ) 0 
( -4816.42 2219.45 7989.97 ) 0 
( -3913.37 4021.62 8273.79 ) 0 
( -876.955 1210.8 8129.23 ) 0 
( -3510.29 3144.61 8015.49 ) 0 
( -429.519 3152.24 8325.95 ) 0 
( -1910.24 2764.92 8048.65 ) 0 
( -1860.11 173.897 7987.86 ) 0 
( -3610.56 754.052 8660.92 ) 0 
( -398.735 2542.89 9117.57 ) 0 
( -3007.54 3768.17 8612.58 ) 0 
( -3270.23 4997.98 8743.66 ) 0 
( -2006.15 1200.43 8216.3 ) 0 
( -1154.69 443.398 8706.03 ) 0 
( -1273.39 2911.91 8804.3 ) 0 
( -3493.13 2986.11 9002.38 ) 0 
( -2382.59 91.0565 8835.93 ) 0 
( -1415.41 1978.69 8477.04 ) 0 
( -4183.09 1597.22 8622.63 ) 0 
( -2225.64 3202.33 8889.45 ) 0 
( -180.599 789.725 8710.09 ) 0 
( -331.924 51.4563 9375.03 ) 0 
( -2635.53 1047.51 8977.28 ) 0 
( -3148.39 322.648 9434.89 ) 0 
( -4187.27 3684.06 9173.64 ) 0 
( -3263.49 1827.84 8937.11 ) 0 
( -4063.07 1271.1 9559.47 ) 0 
( -704.235 3453.14 9421.52 ) 0 
( -4078.77 2260.8 9362.35 ) 0 
( -1648.29 1191.6 9148.76 ) 0 
( -721.417 1554.7 9057.34 ) 0 
( -4189.55 4669.14 9008.27 ) 0 
( -2260.24 1972.5 9010.93 ) 0 
( -4579.27 722.409 8900.95 ) 0 
( -1724.78 4043.82 9087.84 ) 0 
( -1393.22 2171.68 9465 ) 0 
( -2739.9 3713.88 9575.83 ) 0 
( -1649.8 4972.55 9449.94 ) 0 
( -2169.1 542.736 9703.01 ) 0 
( -3559.64 3285.82 9953.45 ) 0 
( -2730.45 2661.56 9561.33 ) 0 
( -3115.49 1423.67 9838.33 ) 0 
( -2675.77 4707.69 9500.55 ) 0 
( -178.07 4237.13 9747.89 ) 0 
( -4774.96 1899.67 9983.97 ) 0 
( -905.738 804.62 9693.98 ) 0 
( -135.191 2138.5 9992.74 ) 0 
( -4667.2 4417.73 9849.51 ) 0 
( -3460.69 2309.97 10146.2 ) 0 
( -3637.72 668.162 10234.7 ) 0 
( -3559.76 4276.31 9677.39 ) 0 
( -981.209 1654.42 10214.1 ) 0 
( -4439.14 2834.21 10097.4 ) 0 
( -4002.06 1555.29 10516 ) 0 
( -1292.64 90.0138 10275.8 ) 0 
( -300.455 30.9115 10377 ) 0 
( -922.277 2735.66 10142.1 ) 0 
( -1165.62 4220.74 9896.52 ) 0 
( -1651.06 3261.51 9704.95 ) 0 
( -4623.51 622.467 10073.6 ) 0 
( -2133.9 1590.6 9925.88 ) 0 
( -175.849 1021.66 10341.4 ) 0 
( -2124.28 4221.53 10177.9 ) 0 
( -1338.5 3543.69 10611.4 ) 0 
( -2268 3833.7 11087.9 ) 0 
( -2666.39 1998.36 10667.1 ) 0 
( -1504.31 1912.13 11025.4 ) 0 
( -358.827 3514.64 10414.4 ) 0 
( -2081.76 126.146 10887.8 ) 0 
( -2689.97 826.36 10516.3 ) 0 
( -1878.07 2484.85 10291.6 ) 0 
( -2589.4 3177.69 10405.5 ) 0 
( -558.278 4560.02 10614.1 ) 0 
( -3937.42 4737.26 10479.7 ) 0 
( -4273.73 3747.97 10478.6 ) 0 
( -1652.39 980.177 10553.8 ) 0 
( -3052.74 4060.43 10511.1 ) 0 
( -3429.36 3241.62 10943.5 ) 0 
( -3256.58 1352.33 11150.2 ) 0 
( -2499.26 2750.72 11304.7 ) 0 
( -2826.93 515.947 11489.7 ) 0 
( -825.921 622.654 10987.7 ) 0 
( -2265.24 1315.27 11277.5 ) 0 
( -4796.38 1805.38 11068.9 ) 0 
( -540.376 2777.4 11064.8 ) 0 
( -1428.23 4370.78 11165.6 ) 0 
( -4051.79 2459.58 10939.2 ) 0 
( -343.516 1777.49 10973.8 ) 0 
( -1506.2 2865.34 11326 ) 0 
( -4867.64 3103.16 10959.3 ) 0 
( -4938.86 503.215 11041.4 ) 0 
( -3318.11 2250.47 11585.1 ) 0 
( -857.414 2128.58 11756.3 ) 0 
( -4000.97 707.489 11320.9 ) 0 
( -1655.2 3693.82 11865.4 ) 0 
( -253.754 1070.1 11674.6 ) 0 
( -3190.62 4761.88 11209.8 ) 0 
( -2863.29 1496.01 12058 ) 0 
( -2014.59 2082.09 11868.1 ) 0 
( -4169.91 3466.11 11576.4 ) 0 
( -3095.76 3868.08 11647.6 ) 0 
( -584.861 3858.11 11325.6 ) 0 
( -4461.23 4363.02 11244.4 ) 0 
)
