FoamFile
{version 2.0; format ascii;class vectorField; location 0;object  v;}
356
(
( 1.2778e-05 6.30558e-07 -3.07601e-05 )  
( -7.99187e-06 7.90795e-07 -3.74561e-05 )  
( -3.65877e-06 -1.91349e-06 -3.20661e-05 )  
( -1.94189e-06 -3.29805e-06 -2.86744e-05 )  
( 8.29931e-06 -5.92275e-06 -1.64053e-05 )  
( -9.81064e-06 1.12944e-06 -3.30583e-05 )  
( -1.02159e-05 6.45806e-07 -4.67143e-05 )  
( -1.67992e-05 -6.78894e-06 -2.41257e-05 )  
( -1.12917e-05 -8.72807e-06 -4.00934e-05 )  
( 4.08979e-06 -1.7333e-06 -2.5405e-05 )  
( 8.015e-06 4.43788e-06 -3.22473e-05 )  
( -2.4942e-05 2.34289e-06 -3.00114e-05 )  
( -3.90335e-06 1.41616e-06 -4.24476e-05 )  
( 7.08981e-06 9.52443e-06 -3.46284e-05 )  
( -9.32737e-06 -8.64382e-09 -3.9159e-05 )  
( -1.96588e-05 -6.95952e-06 -3.63424e-05 )  
( -6.12833e-06 -1.65177e-06 -3.63469e-05 )  
( 3.63268e-06 5.87508e-06 -2.97481e-05 )  
( -2.52885e-05 -4.9189e-06 -6.04323e-05 )  
( -3.57465e-06 8.25857e-06 -7.03525e-05 )  
( -7.4979e-06 2.81061e-06 -3.7863e-05 )  
( -4.76692e-06 -4.78989e-06 -2.2853e-05 )  
( -2.64252e-05 -1.93716e-06 -7.49391e-05 )  
( -1.89879e-05 4.20723e-06 -4.95203e-05 )  
( 2.1636e-06 -4.19212e-06 -3.27282e-05 )  
( -1.31321e-05 -1.26636e-06 -3.58971e-05 )  
( -9.55672e-06 -1.67749e-06 -3.56061e-05 )  
( -1.14177e-05 -2.06569e-06 -3.41451e-05 )  
( -3.08948e-05 -7.07819e-06 -7.07106e-05 )  
( -1.78202e-05 1.71603e-06 -6.30104e-05 )  
( -3.17904e-06 6.53719e-07 -8.96309e-05 )  
( -1.71904e-05 2.17666e-06 -6.76013e-05 )  
( -1.21791e-05 6.33749e-06 -6.74419e-05 )  
( -1.22686e-05 -9.5242e-07 -2.64783e-05 )  
( -4.2525e-06 2.32319e-06 -6.06608e-05 )  
( 1.47566e-05 2.30799e-05 -7.06245e-05 )  
( -1.48119e-05 7.5362e-06 -6.84143e-05 )  
( -2.82202e-05 -2.97563e-07 -6.49909e-05 )  
( -2.1934e-05 4.4794e-06 -8.55688e-05 )  
( -2.82614e-06 3.63476e-05 -8.34895e-05 )  
( -3.32714e-05 -1.34249e-05 -7.25458e-05 )  
( -1.31606e-05 3.96591e-06 -6.88572e-05 )  
( -3.7086e-06 9.36126e-06 -9.64633e-05 )  
( -1.44534e-05 4.31272e-06 -6.4116e-05 )  
( -2.77809e-05 9.39151e-06 -8.94317e-05 )  
( -3.55511e-05 -1.34688e-05 -3.93498e-05 )  
( -1.71751e-07 1.39012e-05 -7.19368e-05 )  
( -1.21118e-05 3.25534e-07 -0.00012536 )  
( -5.86719e-06 -4.41188e-06 -6.3871e-05 )  
( -2.55057e-05 8.91745e-06 -9.00631e-05 )  
( -2.22042e-05 -8.54561e-08 -9.18737e-05 )  
( -7.14198e-06 -3.84024e-06 -5.40783e-05 )  
( -2.28191e-05 -2.21173e-07 -9.97968e-05 )  
( -1.70753e-05 -2.12399e-06 -7.39832e-05 )  
( -1.09013e-05 -5.73237e-07 -6.45503e-05 )  
( -1.45299e-05 9.78721e-06 -8.53878e-05 )  
( -3.2557e-05 6.24939e-06 -0.000103389 )  
( -2.50282e-06 5.95776e-07 -5.41145e-05 )  
( -5.82277e-07 6.5819e-06 -6.50685e-05 )  
( -2.72488e-05 1.11671e-05 -9.34446e-05 )  
( -1.56828e-05 4.25425e-06 -0.000131184 )  
( -2.48147e-05 1.22242e-05 -0.000118157 )  
( -3.18526e-05 1.52235e-06 -0.000107122 )  
( -1.37623e-05 1.12522e-05 -0.000115964 )  
( -2.63671e-05 5.7887e-06 -0.000116201 )  
( -1.56259e-05 5.70697e-06 -0.000110784 )  
( -3.05109e-05 8.89688e-06 -7.40115e-05 )  
( -7.65585e-06 1.40573e-06 -0.0001389 )  
( -3.27469e-05 9.90006e-06 -0.00014552 )  
( -6.23274e-06 2.36031e-05 -0.000100267 )  
( -2.06514e-05 -1.39351e-06 -0.000104903 )  
( -2.20384e-05 -1.16361e-05 -0.000115576 )  
( -2.12655e-05 7.69711e-06 -0.000134654 )  
( -2.0651e-05 1.81424e-05 -0.000146968 )  
( -9.98329e-06 8.33945e-06 -9.96447e-05 )  
( -8.94681e-06 2.49757e-05 -0.000124117 )  
( -8.33437e-06 5.40871e-06 -0.000121043 )  
( 2.01727e-06 1.35708e-05 -0.000178161 )  
( -1.56262e-05 1.9399e-05 -0.000162126 )  
( -1.22902e-05 6.77534e-07 -0.000135033 )  
( -1.96312e-05 2.1654e-06 -0.000118428 )  
( -1.14191e-05 5.70752e-06 -0.00015935 )  
( -2.35677e-05 3.25325e-05 -0.000168041 )  
( -2.23047e-05 2.19151e-06 -0.000166485 )  
( -1.04933e-05 9.22091e-07 -0.000107067 )  
( -1.62576e-05 9.08605e-06 -0.00015738 )  
( -6.4218e-06 1.32637e-05 -0.000188675 )  
( -2.77497e-06 -4.93524e-06 -0.000158059 )  
( -8.10493e-06 6.02712e-06 -0.000154969 )  
( -2.38409e-05 3.50599e-06 -0.000139746 )  
( -1.15646e-05 1.03005e-05 -0.000185542 )  
( -1.60457e-05 6.20552e-06 -0.000146366 )  
( -1.59937e-05 4.47453e-05 -0.000139339 )  
( -1.99886e-05 1.14352e-06 -0.000160052 )  
( 1.60717e-05 2.35672e-05 -0.000215466 )  
( -1.6741e-06 3.09268e-06 -0.000158458 )  
( -7.61056e-06 1.78816e-06 -0.00016743 )  
( -1.59553e-05 3.16644e-07 -0.000162655 )  
( -1.61743e-05 7.56374e-07 -0.000165625 )  
( 2.60834e-06 5.65869e-06 -0.00019848 )  
( -7.72048e-06 3.43021e-06 -0.00018067 )  
( -1.36311e-05 4.16711e-07 -0.000154728 )  
( -9.11443e-06 8.15397e-07 -0.000167808 )  
( -1.21463e-05 -4.77299e-06 -0.000177847 )  
( -8.33074e-06 2.46148e-06 -0.000207685 )  
( -1.96745e-05 1.57203e-05 -0.000197784 )  
( -5.84725e-06 -9.89127e-06 -0.00019833 )  
( -1.19964e-05 1.79622e-06 -0.000178576 )  
( -1.9309e-06 -2.41131e-06 -0.000179499 )  
( -1.37223e-05 2.09417e-05 -0.000181928 )  
( -7.35175e-06 1.90047e-05 -0.000201693 )  
( -2.07399e-05 8.4226e-06 -0.000212457 )  
( -1.92421e-05 -4.51819e-06 -0.000200165 )  
( -7.49681e-06 6.30783e-06 -0.00016478 )  
( -9.32813e-06 3.84031e-06 -0.000199953 )  
( -2.87044e-06 -3.05903e-06 -0.000206036 )  
( -2.19099e-05 9.43558e-07 -0.000229952 )  
( -1.77065e-05 -1.31396e-06 -0.000227242 )  
( -8.0737e-06 3.59518e-06 -0.000185881 )  
( -1.57775e-05 -5.84262e-08 -0.000189622 )  
( -5.05749e-06 4.71173e-06 -0.000209453 )  
( -1.17925e-05 1.45096e-06 -0.000213595 )  
( -1.18633e-05 8.67149e-06 -0.000210184 )  
( -8.75776e-06 7.30291e-06 -0.000212763 )  
( -1.82876e-05 4.47784e-06 -0.000223895 )  
( -2.18031e-05 1.04809e-05 -0.000220532 )  
( -7.92953e-06 1.44166e-05 -0.000231327 )  
( -1.23088e-07 2.62206e-06 -0.000207494 )  
( -6.02517e-07 -1.30561e-06 -0.000222504 )  
( -1.06025e-05 1.33424e-06 -0.000178198 )  
( 4.68783e-07 5.20247e-06 -0.000185072 )  
( -6.29373e-07 -3.19898e-06 -0.000231591 )  
( -4.73967e-06 -2.59565e-06 -0.00021868 )  
( -1.79009e-05 5.33577e-06 -0.000228459 )  
( -1.35291e-05 -2.08426e-06 -0.000233811 )  
( 9.3328e-07 1.81851e-06 -0.000199227 )  
( -1.41431e-05 -3.95821e-06 -0.000232771 )  
( 5.66284e-06 6.31098e-07 -0.000234431 )  
( -2.18159e-06 5.7061e-06 -0.000226322 )  
( -1.5614e-05 5.16153e-06 -0.000208805 )  
( 6.45417e-06 -1.2601e-06 -0.000246437 )  
( -1.17933e-05 3.22036e-06 -0.000239195 )  
( -4.523e-06 8.35054e-07 -0.000218732 )  
( 5.95321e-06 -3.46784e-06 -0.000218859 )  
( -1.86185e-05 3.29776e-06 -0.000236177 )  
( -7.24303e-06 -7.40796e-06 -0.000236589 )  
( -1.14474e-05 -4.03304e-06 -0.000266609 )  
( 6.72736e-06 -4.50762e-06 -0.000257496 )  
( -1.96119e-06 5.89216e-06 -0.000241786 )  
( 9.25557e-06 -3.37972e-06 -0.00026792 )  
( 9.85216e-07 7.21305e-06 -0.000254101 )  
( -4.63828e-06 -9.20263e-06 -0.000237812 )  
( -1.59247e-05 7.63382e-07 -0.000223035 )  
( -1.45524e-06 9.98358e-06 -0.000243205 )  
( -1.79783e-05 -8.94695e-07 -0.000252403 )  
( -2.32754e-05 1.89743e-06 -0.000273258 )  
( 4.63637e-06 3.87149e-07 -0.000262245 )  
( -5.54143e-06 1.17477e-05 -0.000253397 )  
( -2.33904e-06 -9.95645e-06 -0.000213917 )  
( -8.34942e-06 -2.32257e-06 -0.000260978 )  
( -1.3436e-05 -3.77252e-06 -0.000265274 )  
( 2.34125e-05 -1.73383e-05 -0.000248933 )  
( 1.54021e-06 -2.22487e-06 -0.000282965 )  
( 4.21047e-06 7.86578e-06 -0.00025593 )  
( -4.91887e-06 -4.85188e-06 -0.000260062 )  
( -1.93005e-06 -2.51912e-06 -0.000289382 )  
( 1.27084e-06 -6.70995e-06 -0.000261672 )  
( -8.80535e-06 -8.56258e-07 -0.000261459 )  
( -1.05714e-05 -4.30684e-07 -0.000276022 )  
( -1.66979e-05 -1.34865e-06 -0.000266701 )  
( -4.23337e-06 6.50291e-06 -0.000252923 )  
( -1.01439e-05 9.55231e-06 -0.000283251 )  
( 2.1197e-06 2.49777e-06 -0.000272971 )  
( 3.70883e-06 2.52647e-06 -0.000281567 )  
( 4.74698e-06 -2.42486e-06 -0.000286682 )  
( -8.72059e-06 7.47444e-06 -0.00028555 )  
( 8.4225e-06 4.98817e-06 -0.000302428 )  
( -2.37013e-06 6.06963e-06 -0.000275967 )  
( -2.10443e-06 1.06322e-06 -0.000267595 )  
( -4.23325e-06 -5.53347e-06 -0.000282092 )  
( -1.54148e-06 1.6235e-06 -0.000266955 )  
( 3.13443e-06 -1.56341e-07 -0.000290486 )  
( -8.42851e-06 -3.60796e-06 -0.000293132 )  
( -1.01136e-05 -5.26563e-06 -0.00027182 )  
( -4.37561e-07 -1.85341e-06 -0.000259305 )  
( -1.51511e-06 -2.68996e-07 -0.000266648 )  
( -2.9499e-06 -5.79339e-06 -0.000280873 )  
( -3.41716e-06 9.70438e-06 -0.000285208 )  
( -9.9792e-06 8.93035e-06 -0.000306728 )  
( 3.38936e-06 9.17017e-06 -0.000288878 )  
( -2.73792e-06 1.40109e-05 -0.000300665 )  
( 1.52979e-06 -5.18635e-06 -0.000297676 )  
( -5.50021e-06 9.19274e-06 -0.000281137 )  
( 9.9238e-06 -2.56766e-06 -0.000297563 )  
( 7.586e-06 -6.49025e-06 -0.000286662 )  
( 4.66943e-06 2.2265e-06 -0.000303804 )  
( -1.25599e-06 3.81761e-06 -0.000280859 )  
( 3.88012e-06 -7.90007e-06 -0.000275688 )  
( -4.90138e-06 4.06854e-07 -0.000300781 )  
( 4.14515e-06 -4.78297e-06 -0.000290448 )  
( -1.1167e-06 -4.83542e-06 -0.000278107 )  
( 3.35683e-06 -8.22548e-06 -0.000302859 )  
( -6.605e-07 -9.69623e-06 -0.000294196 )  
( -8.25947e-06 9.94661e-06 -0.00031068 )  
( -1.36262e-06 -7.8853e-07 -0.000298176 )  
( 1.12369e-05 -3.72496e-06 -0.000288172 )  
( -7.56243e-06 -7.96402e-06 -0.000284587 )  
( 2.32358e-06 -3.21649e-06 -0.000281747 )  
( 6.15386e-06 -5.46556e-07 -0.000303913 )  
( -7.60781e-06 -1.91033e-06 -0.000294598 )  
( -4.62465e-06 -5.62718e-06 -0.000287782 )  
( 5.88149e-07 -1.66001e-06 -0.000319803 )  
( -7.76697e-06 3.22084e-06 -0.000292651 )  
( -9.30706e-06 8.91197e-06 -0.000321187 )  
( 2.12927e-06 7.52069e-06 -0.000298513 )  
( 7.32905e-06 6.36166e-06 -0.000306978 )  
( -4.73885e-05 2.20717e-05 -0.000361997 )  
( -6.17268e-06 4.40303e-07 -0.000293378 )  
( -4.70849e-06 8.16511e-06 -0.000306272 )  
( -5.57273e-06 2.90314e-06 -0.000310013 )  
( -2.00428e-06 -1.13914e-06 -0.000296092 )  
( -1.13395e-06 -3.81472e-06 -0.000300117 )  
( 2.3752e-06 -2.15011e-06 -0.000305826 )  
( 2.76028e-06 -2.70352e-06 -0.000294122 )  
( -1.01186e-05 7.86852e-06 -0.000321233 )  
( -7.20786e-06 1.93188e-05 -0.000317061 )  
( 3.41364e-07 7.01811e-06 -0.000309646 )  
( 4.73664e-06 1.63776e-06 -0.000301065 )  
( -8.52187e-07 8.40412e-06 -0.000296214 )  
( 1.43949e-06 -4.67214e-06 -0.000301412 )  
( -1.03876e-05 1.80809e-05 -0.000310009 )  
( 2.65286e-06 6.91057e-06 -0.000315827 )  
( 6.61507e-06 -4.86145e-06 -0.0003117 )  
( -3.74351e-06 -5.48068e-06 -0.000332402 )  
( 2.64328e-06 -8.53325e-06 -0.000306111 )  
( -2.68373e-06 9.69467e-06 -0.000310305 )  
( -1.67113e-06 -6.26847e-06 -0.000315854 )  
( -7.19886e-06 -2.51745e-06 -0.000306559 )  
( 1.49996e-06 -7.68217e-06 -0.000299992 )  
( -5.02834e-07 -1.42208e-06 -0.000310408 )  
( -6.60789e-06 -1.29113e-05 -0.000323968 )  
( 5.61071e-06 -1.37473e-06 -0.000304249 )  
( 1.14958e-05 9.02022e-06 -0.000316004 )  
( 8.9088e-06 2.42967e-06 -0.000305831 )  
( 3.93975e-07 -3.87634e-06 -0.000299436 )  
( 9.61149e-06 8.97456e-07 -0.000307383 )  
( 6.83234e-06 -1.475e-05 -0.000308431 )  
( 4.10003e-06 -1.01257e-05 -0.000307802 )  
( -1.36511e-06 5.16063e-06 -0.000323325 )  
( 6.28256e-06 -1.54464e-05 -0.000307225 )  
( 6.01965e-07 -1.05352e-06 -0.000325899 )  
( 1.12171e-06 -1.11768e-06 -0.000307874 )  
( -2.5208e-05 6.84477e-06 -0.000375009 )  
( 1.09701e-05 -1.67016e-05 -0.000302334 )  
( -6.27125e-06 1.83588e-05 -0.000324074 )  
( 6.42264e-06 7.44211e-07 -0.000318116 )  
( 1.0608e-05 4.6925e-06 -0.000312146 )  
( 7.55722e-06 4.90064e-06 -0.000312487 )  
( 3.36823e-06 -7.50556e-06 -0.000312337 )  
( 3.30472e-06 -5.84551e-06 -0.000300988 )  
( 6.29024e-06 -1.84186e-06 -0.000325041 )  
( -9.98662e-06 -1.51069e-06 -0.000345997 )  
( 2.14322e-05 3.89241e-06 -0.000305923 )  
( 1.33785e-06 -3.74953e-06 -0.000305918 )  
( 1.54586e-06 -2.7587e-05 -0.000316245 )  
( 3.53606e-07 -2.61477e-06 -0.000317556 )  
( 4.16961e-06 -7.57191e-07 -0.000332813 )  
( 7.59625e-06 -7.95663e-06 -0.000305527 )  
( -5.46632e-06 5.08414e-07 -0.000308161 )  
( -7.49394e-06 2.82679e-06 -0.000332745 )  
( 3.85707e-06 -3.39152e-06 -0.000303615 )  
( -1.3175e-05 1.7461e-05 -0.000321071 )  
( 8.71254e-06 -1.37179e-05 -0.000297141 )  
( 1.7121e-05 7.71941e-06 -0.000313988 )  
( 3.83966e-05 1.85366e-05 -0.000326766 )  
( -5.29186e-06 3.03374e-06 -0.000333725 )  
( -7.2885e-06 9.45596e-06 -0.000340446 )  
( 5.08779e-06 -3.94219e-06 -0.000317044 )  
( -2.6061e-05 2.93631e-05 -0.000292122 )  
( -4.35368e-05 3.13793e-05 -0.000310917 )  
( 1.31075e-05 -2.19677e-05 -0.0002937 )  
( -1.4335e-05 1.26738e-05 -0.00030832 )  
( -3.29036e-06 -4.52573e-06 -0.000314267 )  
( 7.44873e-06 -9.79218e-07 -0.000304523 )  
( 1.34302e-05 -1.35577e-05 -0.000310241 )  
( -6.19446e-06 -5.54905e-06 -0.000306445 )  
( -1.18782e-05 1.12722e-05 -0.000348855 )  
( 9.85129e-06 -1.74812e-05 -0.000300738 )  
( 4.97557e-06 -1.43862e-06 -0.000301556 )  
( 7.16905e-06 -1.79925e-05 -0.000290829 )  
( 3.9747e-06 -1.89563e-05 -0.000304653 )  
( -1.50151e-05 -4.92829e-06 -0.000344691 )  
( -4.72172e-06 3.49987e-07 -0.000292255 )  
( -3.49464e-06 -1.08098e-05 -0.000294047 )  
( -6.45935e-05 3.98816e-05 -0.000290152 )  
( 1.20794e-05 -1.85725e-05 -0.000303718 )  
( 4.89526e-06 -1.41099e-05 -0.00028693 )  
( -2.29123e-05 1.75289e-05 -0.000308437 )  
( 2.59986e-05 1.22189e-05 -0.000324631 )  
( 2.14856e-05 -2.55429e-06 -0.000297689 )  
( 1.42881e-05 -1.00899e-05 -0.000293537 )  
( -2.69975e-05 2.15675e-05 -0.000288516 )  
( -1.84261e-05 2.61454e-05 -0.00034394 )  
( 1.44909e-05 -1.85916e-05 -0.000304293 )  
( 2.86649e-05 9.19435e-08 -0.000317099 )  
( -2.01672e-05 1.05155e-05 -0.000290955 )  
( -2.95879e-05 1.77291e-05 -0.000311093 )  
( 2.64026e-05 1.47536e-05 -0.000350036 )  
( 2.40768e-05 3.62458e-06 -0.000330407 )  
( 7.73527e-06 -2.04996e-05 -0.000283213 )  
( 8.72429e-06 -1.54328e-05 -0.000294422 )  
( 8.1904e-06 -1.60428e-05 -0.000291348 )  
( -3.87313e-05 1.11829e-06 -0.000334089 )  
( -3.69231e-05 -1.43659e-05 -0.000302745 )  
( 2.80287e-05 -4.81335e-07 -0.000306159 )  
( 1.08498e-05 -1.80245e-05 -0.000287446 )  
( -1.67849e-05 2.28206e-06 -0.000288338 )  
( 2.45878e-05 -4.31151e-05 -0.000281599 )  
( -1.78267e-05 1.60418e-05 -0.00027134 )  
( 6.3378e-06 -1.15563e-05 -0.00034476 )  
( -2.41408e-06 -2.07175e-05 -0.000269247 )  
( -1.40966e-05 -3.42173e-06 -0.000415016 )  
( -3.41402e-05 -1.03264e-05 -0.000367503 )  
( -6.60718e-06 -2.18824e-05 -0.000299703 )  
( 3.82361e-06 -2.55371e-05 -0.00028424 )  
( 6.01223e-06 -1.95765e-06 -0.000287932 )  
( 2.47612e-05 -4.12706e-05 -0.000293966 )  
( -6.48997e-06 -1.49401e-05 -0.000280751 )  
( -2.58978e-06 -2.51748e-06 -0.000323341 )  
( 1.18773e-05 -1.83476e-05 -0.000284924 )  
( -3.496e-06 -9.1374e-06 -0.000292827 )  
( -4.62713e-05 -1.5925e-05 -0.000307749 )  
( -1.07678e-05 -3.06932e-05 -0.000257445 )  
( -1.90944e-05 1.95275e-05 -0.000347814 )  
( -3.78395e-06 7.44887e-06 -0.000332901 )  
( 6.14177e-06 -1.57264e-05 -0.000404906 )  
( -1.9565e-05 8.25825e-06 -0.000290452 )  
( 2.54941e-05 -8.61501e-06 -0.000253473 )  
( 4.7242e-06 -1.24209e-05 -0.000284301 )  
( -2.32871e-05 8.16776e-06 -0.000281467 )  
( 6.1941e-06 -8.83491e-06 -0.000295739 )  
( -1.95635e-05 -2.07514e-05 -0.000324942 )  
( -1.17026e-05 -4.79876e-07 -0.000269855 )  
( -4.10266e-06 -5.0474e-05 -0.000331775 )  
( -3.47834e-05 -7.72717e-06 -0.000288995 )  
( -4.60325e-05 -5.62397e-05 -0.000304244 )  
( -1.25984e-05 -4.27853e-05 -0.000341699 )  
( 4.47614e-05 -2.97061e-05 -0.000272891 )  
( 2.03676e-05 -5.60831e-05 -0.000318449 )  
( 4.7842e-05 -1.13195e-05 -0.000269985 )  
( 0.000179805 0.000122982 -0.000365252 )  
( 6.36072e-06 -0.000117247 -0.000323129 )  
( 3.2878e-06 -2.01815e-05 -0.000285761 )  
( 2.47615e-05 -3.7205e-05 -0.000275341 )  
( -2.15569e-05 -1.68352e-05 -0.000273645 )  
( 1.87725e-05 -2.89891e-06 -0.000275176 )  
)
