/*--------------------------------*- C++ -*----------------------------------*\
| =========                 |                                                 |
| \\      /  F ield         | OpenFOAM: The Open Source CFD Toolbox           |
|  \\    /   O peration     | Version:  5.x                                   |
|   \\  /    A nd           | Web:      www.OpenFOAM.org                      |
|    \\/     M anipulation  |                                                 |
\*---------------------------------------------------------------------------*/
FoamFile
{
    version     2.0;
    format      ascii;
    class       volVectorField;
    location    "0.03";
    object      stored_U;
}
// * * * * * * * * * * * * * * * * * * * * * * * * * * * * * * * * * * * * * //

dimensions      [0 1 -1 0 0 0 0];

internalField   nonuniform List<vector> 
2250
(
(-1.99988e-11 -2.24846e-11 -0.000999998)
(-6.04492e-11 -2.24971e-11 -0.000999998)
(-9.66421e-11 -2.24025e-11 -0.000999998)
(-1.25626e-10 -2.21436e-11 -0.000999998)
(-1.41587e-10 -2.02324e-11 -0.000999999)
(-2.00078e-11 -6.62642e-11 -0.000999998)
(-6.04704e-11 -6.5516e-11 -0.000999998)
(-9.65068e-11 -6.51629e-11 -0.000999998)
(-1.23703e-10 -6.44412e-11 -0.000999998)
(-1.38607e-10 -6.01229e-11 -0.000999999)
(-1.91405e-11 -1.03074e-10 -0.000999998)
(-5.93413e-11 -1.02003e-10 -0.000999998)
(-9.57764e-11 -1.02642e-10 -0.000999998)
(-1.20836e-10 -1.04263e-10 -0.000999999)
(-1.29647e-10 -1.05865e-10 -0.000999999)
(-1.87268e-11 -1.2565e-10 -0.000999998)
(-5.98311e-11 -1.26046e-10 -0.000999998)
(-9.87681e-11 -1.28698e-10 -0.000999999)
(-1.26934e-10 -1.38667e-10 -0.000999999)
(-1.0608e-10 -1.71474e-10 -0.000999999)
(-1.93191e-11 -1.49083e-10 -0.000999999)
(-6.21666e-11 -1.48819e-10 -0.000999999)
(-1.08389e-10 -1.44595e-10 -0.000999999)
(-1.63574e-10 -1.2616e-10 -0.000999999)
(-4.00607e-11 -6.25255e-11 -0.001)
(-5.75328e-11 -6.59713e-11 -0.000999998)
(-1.75619e-10 -6.6556e-11 -0.000999998)
(-2.80351e-10 -6.60254e-11 -0.000999998)
(-3.57708e-10 -6.48299e-11 -0.000999998)
(-4.09584e-10 -5.95574e-11 -0.000999999)
(-5.81032e-11 -1.97842e-10 -0.000999998)
(-1.75931e-10 -1.97291e-10 -0.000999998)
(-2.79174e-10 -1.96192e-10 -0.000999998)
(-3.51898e-10 -1.93336e-10 -0.000999998)
(-4.04054e-10 -1.81957e-10 -0.000999999)
(-5.66804e-11 -3.1176e-10 -0.000999998)
(-1.73933e-10 -3.11592e-10 -0.000999998)
(-2.76941e-10 -3.13232e-10 -0.000999998)
(-3.44154e-10 -3.15442e-10 -0.000999999)
(-3.89079e-10 -3.20398e-10 -0.000999999)
(-5.73596e-11 -3.85502e-10 -0.000999998)
(-1.76822e-10 -3.90932e-10 -0.000999998)
(-2.83025e-10 -3.97135e-10 -0.000999999)
(-3.5908e-10 -4.19723e-10 -0.000999999)
(-3.46992e-10 -5.16904e-10 -0.000999999)
(-6.14544e-11 -4.49422e-10 -0.000999999)
(-1.84886e-10 -4.54575e-10 -0.000999999)
(-3.05718e-10 -4.52766e-10 -0.000999999)
(-4.63962e-10 -4.24619e-10 -0.000999999)
(-2.00633e-10 -2.86323e-10 -0.000999999)
(-1.01034e-10 -1.17282e-10 -0.000999997)
(-3.08965e-10 -1.19529e-10 -0.000999998)
(-4.9119e-10 -1.18585e-10 -0.000999998)
(-6.16388e-10 -1.16707e-10 -0.000999998)
(-7.10493e-10 -1.11531e-10 -0.000999998)
(-1.03243e-10 -3.56435e-10 -0.000999998)
(-3.10639e-10 -3.59098e-10 -0.000999998)
(-4.89294e-10 -3.58316e-10 -0.000999998)
(-6.10544e-10 -3.54175e-10 -0.000999998)
(-7.10205e-10 -3.39919e-10 -0.000999998)
(-1.03179e-10 -5.68508e-10 -0.000999998)
(-3.10727e-10 -5.72584e-10 -0.000999998)
(-4.87205e-10 -5.74931e-10 -0.000999998)
(-5.99233e-10 -5.73945e-10 -0.000999998)
(-7.08573e-10 -5.65996e-10 -0.000999999)
(-1.06271e-10 -7.14929e-10 -0.000999998)
(-3.15995e-10 -7.26065e-10 -0.000999998)
(-4.90657e-10 -7.30016e-10 -0.000999998)
(-6.01647e-10 -7.38114e-10 -0.000999999)
(-7.0204e-10 -7.68937e-10 -0.000999999)
(-1.12934e-10 -8.08838e-10 -0.000999999)
(-3.24413e-10 -8.2426e-10 -0.000999999)
(-4.99216e-10 -8.40587e-10 -0.000999999)
(-6.38151e-10 -8.52812e-10 -0.000999999)
(-6.78167e-10 -8.45193e-10 -0.000999999)
(-1.55997e-10 -1.82553e-10 -0.000999997)
(-4.74578e-10 -1.87552e-10 -0.000999997)
(-7.5151e-10 -1.87276e-10 -0.000999997)
(-9.42183e-10 -1.87651e-10 -0.000999998)
(-1.07939e-09 -1.87444e-10 -0.000999998)
(-1.60952e-10 -5.5639e-10 -0.000999997)
(-4.7991e-10 -5.64917e-10 -0.000999997)
(-7.53074e-10 -5.671e-10 -0.000999997)
(-9.44327e-10 -5.68795e-10 -0.000999998)
(-1.0823e-09 -5.61569e-10 -0.000999998)
(-1.63734e-10 -8.89822e-10 -0.000999997)
(-4.8516e-10 -9.0066e-10 -0.000999997)
(-7.56879e-10 -9.07679e-10 -0.000999998)
(-9.38644e-10 -9.1197e-10 -0.000999998)
(-1.08502e-09 -8.96212e-10 -0.000999999)
(-1.70048e-10 -1.1281e-09 -0.000999998)
(-4.96014e-10 -1.14321e-09 -0.000999998)
(-7.64374e-10 -1.14861e-09 -0.000999998)
(-9.32912e-10 -1.1462e-09 -0.000999999)
(-1.10784e-09 -1.08071e-09 -0.000999999)
(-1.76496e-10 -1.24384e-09 -0.000999998)
(-5.03327e-10 -1.26038e-09 -0.000999998)
(-7.59777e-10 -1.28164e-09 -0.000999999)
(-8.70694e-10 -1.32522e-09 -0.000999999)
(-1.24451e-09 -1.47869e-09 -0.000999999)
(-2.31001e-10 -2.68286e-10 -0.000999996)
(-6.93347e-10 -2.75526e-10 -0.000999996)
(-1.09366e-09 -2.75968e-10 -0.000999997)
(-1.37728e-09 -2.79002e-10 -0.000999997)
(-1.56723e-09 -2.84589e-10 -0.000999998)
(-2.38165e-10 -8.08546e-10 -0.000999996)
(-7.01902e-10 -8.21372e-10 -0.000999996)
(-1.09932e-09 -8.26067e-10 -0.000999997)
(-1.38879e-09 -8.35257e-10 -0.000999997)
(-1.56928e-09 -8.42444e-10 -0.000999998)
(-2.42636e-10 -1.28403e-09 -0.000999997)
(-7.10633e-10 -1.29816e-09 -0.000999997)
(-1.10974e-09 -1.31063e-09 -0.000999997)
(-1.39653e-09 -1.32825e-09 -0.000999998)
(-1.56319e-09 -1.33016e-09 -0.000999998)
(-2.49707e-10 -1.62607e-09 -0.000999997)
(-7.25922e-10 -1.64183e-09 -0.000999997)
(-1.12942e-09 -1.65695e-09 -0.000999998)
(-1.40834e-09 -1.67001e-09 -0.000999998)
(-1.5699e-09 -1.59822e-09 -0.000999999)
(-2.55011e-10 -1.78211e-09 -0.000999998)
(-7.3814e-10 -1.7934e-09 -0.000999998)
(-1.13787e-09 -1.80524e-09 -0.000999998)
(-1.33778e-09 -1.83071e-09 -0.000999999)
(-1.70992e-09 -1.98434e-09 -0.000999999)
(-3.36168e-10 -3.82269e-10 -0.000999995)
(-9.90985e-10 -3.88213e-10 -0.000999995)
(-1.55418e-09 -3.88543e-10 -0.000999995)
(-1.96171e-09 -3.91837e-10 -0.000999996)
(-2.22015e-09 -3.99201e-10 -0.000999997)
(-3.42016e-10 -1.13055e-09 -0.000999995)
(-9.98476e-10 -1.14195e-09 -0.000999995)
(-1.56088e-09 -1.14705e-09 -0.000999996)
(-1.97634e-09 -1.15892e-09 -0.000999996)
(-2.2208e-09 -1.17757e-09 -0.000999997)
(-3.45953e-10 -1.77481e-09 -0.000999996)
(-1.0072e-09 -1.78768e-09 -0.000999996)
(-1.57425e-09 -1.8031e-09 -0.000999996)
(-1.99623e-09 -1.83208e-09 -0.000999997)
(-2.20662e-09 -1.87249e-09 -0.000999998)
(-3.5134e-10 -2.23945e-09 -0.000999996)
(-1.02321e-09 -2.25428e-09 -0.000999996)
(-1.60528e-09 -2.28055e-09 -0.000999997)
(-2.04585e-09 -2.33126e-09 -0.000999998)
(-2.17348e-09 -2.35045e-09 -0.000999998)
(-3.56263e-10 -2.4705e-09 -0.000999997)
(-1.04375e-09 -2.47993e-09 -0.000999997)
(-1.6511e-09 -2.48299e-09 -0.000999998)
(-2.06617e-09 -2.46552e-09 -0.000999998)
(-2.19585e-09 -2.50011e-09 -0.000999999)
(-4.78693e-10 -5.31547e-10 -0.000999993)
(-1.3944e-09 -5.33897e-10 -0.000999993)
(-2.17607e-09 -5.33343e-10 -0.000999994)
(-2.74365e-09 -5.34964e-10 -0.000999995)
(-3.08949e-09 -5.41104e-10 -0.000999996)
(-4.80933e-10 -1.55078e-09 -0.000999993)
(-1.39786e-09 -1.55738e-09 -0.000999994)
(-2.18136e-09 -1.56151e-09 -0.000999994)
(-2.75682e-09 -1.5715e-09 -0.000999995)
(-3.09303e-09 -1.59291e-09 -0.000999996)
(-4.83179e-10 -2.41504e-09 -0.000999994)
(-1.40481e-09 -2.42584e-09 -0.000999994)
(-2.19447e-09 -2.4417e-09 -0.000999995)
(-2.78053e-09 -2.47319e-09 -0.000999996)
(-3.08353e-09 -2.53765e-09 -0.000999997)
(-4.8699e-10 -3.04144e-09 -0.000999995)
(-1.41976e-09 -3.05612e-09 -0.000999995)
(-2.2287e-09 -3.08689e-09 -0.000999996)
(-2.85287e-09 -3.16325e-09 -0.000999997)
(-3.03619e-09 -3.30355e-09 -0.000999998)
(-4.91933e-10 -3.38044e-09 -0.000999996)
(-1.44426e-09 -3.39476e-09 -0.000999996)
(-2.30153e-09 -3.4015e-09 -0.000999997)
(-2.9972e-09 -3.36818e-09 -0.000999998)
(-2.92485e-09 -3.27266e-09 -0.000999999)
(-6.68447e-10 -7.27935e-10 -0.000999991)
(-1.93863e-09 -7.27424e-10 -0.000999991)
(-3.01733e-09 -7.26284e-10 -0.000999992)
(-3.80005e-09 -7.26866e-10 -0.000999993)
(-4.25692e-09 -7.32356e-10 -0.000999994)
(-6.67813e-10 -2.1126e-09 -0.000999991)
(-1.93929e-09 -2.11563e-09 -0.000999992)
(-3.02259e-09 -2.11938e-09 -0.000999992)
(-3.81353e-09 -2.12729e-09 -0.000999994)
(-4.26677e-09 -2.14583e-09 -0.000999995)
(-6.6866e-10 -3.28224e-09 -0.000999992)
(-1.94504e-09 -3.29275e-09 -0.000999992)
(-3.03486e-09 -3.30812e-09 -0.000999993)
(-3.83403e-09 -3.33232e-09 -0.000999994)
(-4.2699e-09 -3.3865e-09 -0.000999996)
(-6.7195e-10 -4.13337e-09 -0.000999993)
(-1.95876e-09 -4.15042e-09 -0.000999994)
(-3.06215e-09 -4.17853e-09 -0.000999994)
(-3.89208e-09 -4.24074e-09 -0.000999996)
(-4.24706e-09 -4.41748e-09 -0.000999997)
(-6.77795e-10 -4.60512e-09 -0.000999995)
(-1.98213e-09 -4.62667e-09 -0.000999995)
(-3.125e-09 -4.64419e-09 -0.000999996)
(-4.07297e-09 -4.63551e-09 -0.000999997)
(-4.11034e-09 -4.51208e-09 -0.000999998)
(-9.22838e-10 -9.91116e-10 -0.000999987)
(-2.67623e-09 -9.90046e-10 -0.000999988)
(-4.16299e-09 -9.89182e-10 -0.000999989)
(-5.24408e-09 -9.90372e-10 -0.000999991)
(-5.84702e-09 -9.95635e-10 -0.000999993)
(-9.21628e-10 -2.876e-09 -0.000999988)
(-2.67753e-09 -2.87872e-09 -0.000999989)
(-4.17131e-09 -2.88259e-09 -0.00099999)
(-5.26064e-09 -2.88973e-09 -0.000999991)
(-5.85973e-09 -2.9013e-09 -0.000999993)
(-9.21766e-10 -4.47209e-09 -0.000999989)
(-2.68241e-09 -4.48401e-09 -0.00099999)
(-4.18206e-09 -4.49704e-09 -0.000999991)
(-5.27309e-09 -4.51061e-09 -0.000999993)
(-5.86603e-09 -4.53124e-09 -0.000999994)
(-9.24933e-10 -5.63472e-09 -0.000999991)
(-2.69379e-09 -5.65588e-09 -0.000999991)
(-4.1979e-09 -5.6753e-09 -0.000999993)
(-5.29508e-09 -5.70164e-09 -0.000999994)
(-5.86363e-09 -5.79277e-09 -0.000999996)
(-9.32133e-10 -6.26587e-09 -0.000999993)
(-2.71199e-09 -6.29031e-09 -0.000999993)
(-4.22758e-09 -6.30825e-09 -0.000999994)
(-5.39056e-09 -6.31922e-09 -0.000999996)
(-5.79985e-09 -6.26852e-09 -0.000999998)
(-1.26778e-09 -1.3485e-09 -0.000999983)
(-3.68214e-09 -1.34903e-09 -0.000999984)
(-5.73075e-09 -1.34822e-09 -0.000999985)
(-7.22148e-09 -1.34945e-09 -0.000999987)
(-8.026e-09 -1.35208e-09 -0.00099999)
(-1.26814e-09 -3.91924e-09 -0.000999984)
(-3.68631e-09 -3.92431e-09 -0.000999985)
(-5.74208e-09 -3.92543e-09 -0.000999986)
(-7.23911e-09 -3.92822e-09 -0.000999988)
(-8.03541e-09 -3.92845e-09 -0.000999991)
(-1.26773e-09 -6.10271e-09 -0.000999985)
(-3.68784e-09 -6.11598e-09 -0.000999986)
(-5.74568e-09 -6.1199e-09 -0.000999988)
(-7.23856e-09 -6.11844e-09 -0.00099999)
(-8.0291e-09 -6.10628e-09 -0.000999992)
(-1.26972e-09 -7.69288e-09 -0.000999988)
(-3.6917e-09 -7.71506e-09 -0.000999988)
(-5.74455e-09 -7.71692e-09 -0.00099999)
(-7.22581e-09 -7.70638e-09 -0.000999992)
(-8.01395e-09 -7.70474e-09 -0.000999995)
(-1.27517e-09 -8.52886e-09 -0.00099999)
(-3.69685e-09 -8.54921e-09 -0.000999991)
(-5.73667e-09 -8.54892e-09 -0.000999993)
(-7.22638e-09 -8.54185e-09 -0.000999995)
(-7.97999e-09 -8.52044e-09 -0.000999997)
(-1.73946e-09 -1.83732e-09 -0.000999977)
(-5.05809e-09 -1.84004e-09 -0.000999978)
(-7.87623e-09 -1.83759e-09 -0.00099998)
(-9.92077e-09 -1.8355e-09 -0.000999983)
(-1.1008e-08 -1.83209e-09 -0.000999986)
(-1.74198e-09 -5.34611e-09 -0.000999978)
(-5.06445e-09 -5.35394e-09 -0.000999979)
(-7.88658e-09 -5.3461e-09 -0.000999981)
(-9.93409e-09 -5.33537e-09 -0.000999984)
(-1.10142e-08 -5.31775e-09 -0.000999988)
(-1.74039e-09 -8.32969e-09 -0.00099998)
(-5.05749e-09 -8.34171e-09 -0.000999981)
(-7.87275e-09 -8.32531e-09 -0.000999983)
(-9.91167e-09 -8.29825e-09 -0.000999986)
(-1.0993e-08 -8.25731e-09 -0.00099999)
(-1.73813e-09 -1.05018e-08 -0.000999983)
(-5.04402e-09 -1.05145e-08 -0.000999984)
(-7.84312e-09 -1.0484e-08 -0.000999986)
(-9.86653e-09 -1.04356e-08 -0.000999989)
(-1.09538e-08 -1.0361e-08 -0.000999993)
(-1.73304e-09 -1.16189e-08 -0.000999987)
(-5.01917e-09 -1.16308e-08 -0.000999988)
(-7.79336e-09 -1.16053e-08 -0.00099999)
(-9.78864e-09 -1.15626e-08 -0.000999993)
(-1.09146e-08 -1.15316e-08 -0.000999996)
(-2.38607e-09 -2.50747e-09 -0.000999968)
(-6.94026e-09 -2.51183e-09 -0.00099997)
(-1.0808e-08 -2.50564e-09 -0.000999973)
(-1.36066e-08 -2.4972e-09 -0.000999977)
(-1.50817e-08 -2.48615e-09 -0.000999982)
(-2.39018e-09 -7.29683e-09 -0.00099997)
(-6.94676e-09 -7.30578e-09 -0.000999971)
(-1.08138e-08 -7.28373e-09 -0.000999974)
(-1.3613e-08 -7.25189e-09 -0.000999978)
(-1.50899e-08 -7.21026e-09 -0.000999983)
(-2.3857e-09 -1.13662e-08 -0.000999973)
(-6.92643e-09 -1.13731e-08 -0.000999975)
(-1.07748e-08 -1.13288e-08 -0.000999977)
(-1.35596e-08 -1.12637e-08 -0.000999981)
(-1.50625e-08 -1.118e-08 -0.000999986)
(-2.37547e-09 -1.43252e-08 -0.000999977)
(-6.88751e-09 -1.43196e-08 -0.000999979)
(-1.07044e-08 -1.42458e-08 -0.000999982)
(-1.34648e-08 -1.41399e-08 -0.000999985)
(-1.50335e-08 -1.40107e-08 -0.00099999)
(-2.35275e-09 -1.58353e-08 -0.000999982)
(-6.81907e-09 -1.58388e-08 -0.000999983)
(-1.05945e-08 -1.57949e-08 -0.000999986)
(-1.33246e-08 -1.57497e-08 -0.00099999)
(-1.50256e-08 -1.57371e-08 -0.000999995)
(-3.27158e-09 -3.42557e-09 -0.000999957)
(-9.51194e-09 -3.43029e-09 -0.000999959)
(-1.48099e-08 -3.4193e-09 -0.000999963)
(-1.8648e-08 -3.40417e-09 -0.000999968)
(-2.06481e-08 -3.386e-09 -0.000999975)
(-3.27599e-09 -9.96148e-09 -0.000999959)
(-9.51711e-09 -9.96894e-09 -0.000999961)
(-1.48118e-08 -9.93153e-09 -0.000999965)
(-1.86502e-08 -9.8789e-09 -0.000999971)
(-2.06574e-08 -9.81327e-09 -0.000999977)
(-3.26639e-09 -1.5506e-08 -0.000999963)
(-9.48109e-09 -1.55066e-08 -0.000999965)
(-1.47482e-08 -1.54372e-08 -0.000999969)
(-1.85661e-08 -1.53359e-08 -0.000999975)
(-2.06161e-08 -1.5199e-08 -0.000999981)
(-3.24713e-09 -1.95314e-08 -0.000999969)
(-9.41848e-09 -1.95119e-08 -0.000999971)
(-1.46411e-08 -1.94037e-08 -0.000999975)
(-1.84128e-08 -1.92388e-08 -0.00099998)
(-2.0604e-08 -1.90071e-08 -0.000999987)
(-3.20966e-09 -2.159e-08 -0.000999976)
(-9.31533e-09 -2.1585e-08 -0.000999978)
(-1.44743e-08 -2.15214e-08 -0.000999981)
(-1.81695e-08 -2.14884e-08 -0.000999987)
(-2.07024e-08 -2.15723e-08 -0.000999993)
(-4.48146e-09 -4.68101e-09 -0.000999941)
(-1.3021e-08 -4.68434e-09 -0.000999944)
(-2.02675e-08 -4.66761e-09 -0.00099995)
(-2.55345e-08 -4.64516e-09 -0.000999957)
(-2.82587e-08 -4.61799e-09 -0.000999966)
(-4.4844e-09 -1.35995e-08 -0.000999944)
(-1.30233e-08 -1.36026e-08 -0.000999947)
(-2.02666e-08 -1.35491e-08 -0.000999952)
(-2.55333e-08 -1.34773e-08 -0.00099996)
(-2.82595e-08 -1.339e-08 -0.000999969)
(-4.46733e-09 -2.11562e-08 -0.00099995)
(-1.29694e-08 -2.11516e-08 -0.000999953)
(-2.0181e-08 -2.10627e-08 -0.000999958)
(-2.54249e-08 -2.09376e-08 -0.000999965)
(-2.81737e-08 -2.07644e-08 -0.000999974)
(-4.43974e-09 -2.66373e-08 -0.000999958)
(-1.28891e-08 -2.66176e-08 -0.00099996)
(-2.00525e-08 -2.6496e-08 -0.000999966)
(-2.52361e-08 -2.6303e-08 -0.000999973)
(-2.81125e-08 -2.59904e-08 -0.000999982)
(-4.39708e-09 -2.94621e-08 -0.000999967)
(-1.27763e-08 -2.94487e-08 -0.000999969)
(-1.98653e-08 -2.93471e-08 -0.000999975)
(-2.49193e-08 -2.9272e-08 -0.000999982)
(-2.82197e-08 -2.93651e-08 -0.000999991)
(-6.13153e-09 -6.39567e-09 -0.00099992)
(-1.78057e-08 -6.39524e-09 -0.000999924)
(-2.77081e-08 -6.36988e-09 -0.000999931)
(-3.49193e-08 -6.33507e-09 -0.000999941)
(-3.86576e-08 -6.29101e-09 -0.000999953)
(-6.13058e-09 -1.8569e-08 -0.000999924)
(-1.78013e-08 -1.85644e-08 -0.000999928)
(-2.77002e-08 -1.84885e-08 -0.000999935)
(-3.49064e-08 -1.83867e-08 -0.000999945)
(-3.86426e-08 -1.82637e-08 -0.000999957)
(-6.10356e-09 -2.88807e-08 -0.000999932)
(-1.77237e-08 -2.88702e-08 -0.000999935)
(-2.75834e-08 -2.87539e-08 -0.000999943)
(-3.47621e-08 -2.85965e-08 -0.000999953)
(-3.8488e-08 -2.83921e-08 -0.000999965)
(-6.06564e-09 -3.63608e-08 -0.000999942)
(-1.76192e-08 -3.63462e-08 -0.000999946)
(-2.74264e-08 -3.62062e-08 -0.000999953)
(-3.45461e-08 -3.59944e-08 -0.000999963)
(-3.83058e-08 -3.56325e-08 -0.000999975)
(-6.02016e-09 -4.02468e-08 -0.000999955)
(-1.74986e-08 -4.02299e-08 -0.000999958)
(-2.72301e-08 -4.00746e-08 -0.000999966)
(-3.41885e-08 -3.98923e-08 -0.000999976)
(-3.82549e-08 -3.98381e-08 -0.000999987)
(-8.3808e-09 -8.73757e-09 -0.000999891)
(-2.43333e-08 -8.73132e-09 -0.000999896)
(-3.78633e-08 -8.69221e-09 -0.000999906)
(-4.77137e-08 -8.63695e-09 -0.00099992)
(-5.28579e-08 -8.56719e-09 -0.000999936)
(-8.37384e-09 -2.53651e-08 -0.000999896)
(-2.4317e-08 -2.53499e-08 -0.000999901)
(-3.784e-08 -2.52384e-08 -0.000999911)
(-4.76786e-08 -2.50839e-08 -0.000999925)
(-5.28222e-08 -2.48963e-08 -0.000999942)
(-8.33381e-09 -3.94557e-08 -0.000999907)
(-2.42045e-08 -3.94355e-08 -0.000999912)
(-3.76694e-08 -3.92677e-08 -0.000999922)
(-4.74639e-08 -3.9037e-08 -0.000999936)
(-5.25805e-08 -3.87528e-08 -0.000999952)
(-8.27943e-09 -4.96834e-08 -0.000999921)
(-2.40537e-08 -4.96639e-08 -0.000999926)
(-3.74415e-08 -4.94641e-08 -0.000999936)
(-4.71658e-08 -4.91723e-08 -0.00099995)
(-5.22565e-08 -4.87359e-08 -0.000999966)
(-8.22042e-09 -5.50177e-08 -0.000999938)
(-2.38889e-08 -5.49952e-08 -0.000999943)
(-3.71757e-08 -5.47659e-08 -0.000999953)
(-4.67357e-08 -5.44533e-08 -0.000999967)
(-5.19725e-08 -5.41792e-08 -0.000999983)
(-1.1451e-08 -1.19402e-08 -0.000999851)
(-3.32532e-08 -1.1927e-08 -0.000999858)
(-5.17496e-08 -1.18672e-08 -0.000999872)
(-6.52016e-08 -1.1783e-08 -0.000999891)
(-7.22716e-08 -1.16818e-08 -0.000999913)
(-1.14369e-08 -3.46705e-08 -0.000999858)
(-3.32198e-08 -3.46412e-08 -0.000999865)
(-5.17024e-08 -3.4474e-08 -0.000999879)
(-6.51389e-08 -3.42395e-08 -0.000999898)
(-7.22017e-08 -3.396e-08 -0.00099992)
(-1.13784e-08 -5.39426e-08 -0.000999873)
(-3.30539e-08 -5.39048e-08 -0.00099988)
(-5.14464e-08 -5.36514e-08 -0.000999893)
(-6.48135e-08 -5.32968e-08 -0.000999912)
(-7.18291e-08 -5.28712e-08 -0.000999934)
(-1.12978e-08 -6.79347e-08 -0.000999892)
(-3.28257e-08 -6.78928e-08 -0.000999899)
(-5.10944e-08 -6.75807e-08 -0.000999913)
(-6.43615e-08 -6.7131e-08 -0.000999932)
(-7.13171e-08 -6.65375e-08 -0.000999954)
(-1.12083e-08 -7.52383e-08 -0.000999916)
(-3.25684e-08 -7.51894e-08 -0.000999923)
(-5.06817e-08 -7.48335e-08 -0.000999936)
(-6.37703e-08 -7.43369e-08 -0.000999955)
(-7.07716e-08 -7.3808e-08 -0.000999976)
(-1.56518e-08 -1.63279e-08 -0.000999796)
(-4.54661e-08 -1.63066e-08 -0.000999806)
(-7.077e-08 -1.62158e-08 -0.000999825)
(-8.91608e-08 -1.60892e-08 -0.000999851)
(-9.88618e-08 -1.59431e-08 -0.000999882)
(-1.56292e-08 -4.74245e-08 -0.000999806)
(-4.54079e-08 -4.73733e-08 -0.000999816)
(-7.06848e-08 -4.7118e-08 -0.000999835)
(-8.90556e-08 -4.67603e-08 -0.000999861)
(-9.87356e-08 -4.63449e-08 -0.000999892)
(-1.55415e-08 -7.37951e-08 -0.000999826)
(-4.51557e-08 -7.37224e-08 -0.000999836)
(-7.02915e-08 -7.33308e-08 -0.000999854)
(-8.85597e-08 -7.27832e-08 -0.00099988)
(-9.81605e-08 -7.21436e-08 -0.000999911)
(-1.54183e-08 -9.29301e-08 -0.000999853)
(-4.4803e-08 -9.28399e-08 -0.000999863)
(-6.97456e-08 -9.23495e-08 -0.000999881)
(-8.78723e-08 -9.16604e-08 -0.000999907)
(-9.73608e-08 -9.0825e-08 -0.000999937)
(-1.52763e-08 -1.02925e-07 -0.000999885)
(-4.43955e-08 -1.02819e-07 -0.000999895)
(-6.91082e-08 -1.02258e-07 -0.000999913)
(-8.70352e-08 -1.01472e-07 -0.000999938)
(-9.64393e-08 -1.00565e-07 -0.000999968)
(-2.14119e-08 -2.2349e-08 -0.000999721)
(-6.22115e-08 -2.23153e-08 -0.000999735)
(-9.68481e-08 -2.21766e-08 -0.000999761)
(-1.22022e-07 -2.19825e-08 -0.000999797)
(-1.35313e-07 -2.17579e-08 -0.000999839)
(-2.13764e-08 -6.49208e-08 -0.000999735)
(-6.21126e-08 -6.48305e-08 -0.000999749)
(-9.66957e-08 -6.44336e-08 -0.000999775)
(-1.21832e-07 -6.38771e-08 -0.00099981)
(-1.35094e-07 -6.32303e-08 -0.000999852)
(-2.12408e-08 -1.01015e-07 -0.000999763)
(-6.17189e-08 -1.00876e-07 -0.000999776)
(-9.60784e-08 -1.0026e-07 -0.000999801)
(-1.21054e-07 -9.94009e-08 -0.000999837)
(-1.34219e-07 -9.83982e-08 -0.000999878)
(-2.10485e-08 -1.27181e-07 -0.0009998)
(-6.11656e-08 -1.27e-07 -0.000999813)
(-9.52206e-08 -1.26222e-07 -0.000999838)
(-1.19976e-07 -1.25143e-07 -0.000999873)
(-1.33011e-07 -1.23869e-07 -0.000999914)
(-2.08208e-08 -1.4085e-07 -0.000999844)
(-6.05148e-08 -1.4065e-07 -0.000999857)
(-9.42164e-08 -1.39785e-07 -0.000999882)
(-1.187e-07 -1.38588e-07 -0.000999916)
(-1.31599e-07 -1.37183e-07 -0.000999957)
(-2.9317e-08 -3.06195e-08 -0.000999619)
(-8.51838e-08 -3.05637e-08 -0.000999637)
(-1.32614e-07 -3.03487e-08 -0.000999673)
(-1.67101e-07 -3.00476e-08 -0.000999722)
(-1.85297e-07 -2.9695e-08 -0.00099978)
(-2.92586e-08 -8.89396e-08 -0.000999638)
(-8.50132e-08 -8.87788e-08 -0.000999657)
(-1.32344e-07 -8.81589e-08 -0.000999692)
(-1.66759e-07 -8.72928e-08 -0.000999741)
(-1.84914e-07 -8.62767e-08 -0.000999799)
(-2.90459e-08 -1.38363e-07 -0.000999676)
(-8.43955e-08 -1.38108e-07 -0.000999694)
(-1.31379e-07 -1.37145e-07 -0.000999729)
(-1.65539e-07 -1.35806e-07 -0.000999777)
(-1.83569e-07 -1.34226e-07 -0.000999834)
(-2.87464e-08 -1.74162e-07 -0.000999727)
(-8.35331e-08 -1.73833e-07 -0.000999745)
(-1.30042e-07 -1.72614e-07 -0.00099978)
(-1.63847e-07 -1.70925e-07 -0.000999827)
(-1.81737e-07 -1.68909e-07 -0.000999884)
(-2.83903e-08 -1.92834e-07 -0.000999787)
(-8.25125e-08 -1.92473e-07 -0.000999805)
(-1.28464e-07 -1.91138e-07 -0.000999839)
(-1.61834e-07 -1.89315e-07 -0.000999886)
(-1.79635e-07 -1.87215e-07 -0.000999941)
(-4.01671e-08 -4.19873e-08 -0.000999479)
(-1.16703e-07 -4.18904e-08 -0.000999504)
(-1.81677e-07 -4.15555e-08 -0.000999553)
(-2.28938e-07 -4.10902e-08 -0.000999621)
(-2.53872e-07 -4.05444e-08 -0.0009997)
(-4.00666e-08 -1.21937e-07 -0.000999506)
(-1.16408e-07 -1.21655e-07 -0.000999531)
(-1.81213e-07 -1.20691e-07 -0.000999579)
(-2.28353e-07 -1.19356e-07 -0.000999647)
(-2.53216e-07 -1.17788e-07 -0.000999725)
(-3.97337e-08 -1.89649e-07 -0.000999557)
(-1.15446e-07 -1.89206e-07 -0.000999582)
(-1.79721e-07 -1.87716e-07 -0.00099963)
(-2.26473e-07 -1.85658e-07 -0.000999696)
(-2.5113e-07 -1.8323e-07 -0.000999774)
(-3.92717e-08 -2.3866e-07 -0.000999627)
(-1.14116e-07 -2.381e-07 -0.000999652)
(-1.77664e-07 -2.36223e-07 -0.000999699)
(-2.23876e-07 -2.33626e-07 -0.000999765)
(-2.48287e-07 -2.30535e-07 -0.000999841)
(-3.87281e-08 -2.64165e-07 -0.00099971)
(-1.12551e-07 -2.63534e-07 -0.000999734)
(-1.75237e-07 -2.61457e-07 -0.000999781)
(-2.20786e-07 -2.58618e-07 -0.000999845)
(-2.45018e-07 -2.55352e-07 -0.00099992)
(-5.50624e-08 -5.76271e-08 -0.000999287)
(-1.59969e-07 -5.74602e-08 -0.000999322)
(-2.49023e-07 -5.69414e-08 -0.000999389)
(-3.13815e-07 -5.62269e-08 -0.000999482)
(-3.48016e-07 -5.5389e-08 -0.000999591)
(-5.48904e-08 -1.67324e-07 -0.000999324)
(-1.5947e-07 -1.66841e-07 -0.000999358)
(-2.48248e-07 -1.65351e-07 -0.000999425)
(-3.12844e-07 -1.63301e-07 -0.000999517)
(-3.46932e-07 -1.60895e-07 -0.000999625)
(-5.43737e-08 -2.60164e-07 -0.000999394)
(-1.57982e-07 -2.59417e-07 -0.000999428)
(-2.45951e-07 -2.57119e-07 -0.000999494)
(-3.09956e-07 -2.53956e-07 -0.000999585)
(-3.43717e-07 -2.50236e-07 -0.000999692)
(-5.36628e-08 -3.27292e-07 -0.000999491)
(-1.55935e-07 -3.26356e-07 -0.000999525)
(-2.42788e-07 -3.23465e-07 -0.00099959)
(-3.05974e-07 -3.19475e-07 -0.000999679)
(-3.39313e-07 -3.14756e-07 -0.000999784)
(-5.28301e-08 -3.62138e-07 -0.000999605)
(-1.53531e-07 -3.61074e-07 -0.000999638)
(-2.39056e-07 -3.57853e-07 -0.000999701)
(-3.01247e-07 -3.53433e-07 -0.000999789)
(-3.34196e-07 -3.48321e-07 -0.000999891)
(-7.55285e-08 -7.91786e-08 -0.000999024)
(-2.19417e-07 -7.89001e-08 -0.000999071)
(-3.41555e-07 -7.81026e-08 -0.000999164)
(-4.30434e-07 -7.70082e-08 -0.000999291)
(-4.77364e-07 -7.57256e-08 -0.000999441)
(-7.52427e-08 -2.29852e-07 -0.000999074)
(-2.18594e-07 -2.2905e-07 -0.000999121)
(-3.40288e-07 -2.26757e-07 -0.000999213)
(-4.28849e-07 -2.23607e-07 -0.00099934)
(-4.75599e-07 -2.19915e-07 -0.000999488)
(-7.44448e-08 -3.57263e-07 -0.000999171)
(-2.16301e-07 -3.56024e-07 -0.000999218)
(-3.36751e-07 -3.52479e-07 -0.000999309)
(-4.24409e-07 -3.47607e-07 -0.000999433)
(-4.70656e-07 -3.41882e-07 -0.00099958)
(-7.33471e-08 -4.49241e-07 -0.000999305)
(-2.1314e-07 -4.47685e-07 -0.000999351)
(-3.31871e-07 -4.43218e-07 -0.00099944)
(-4.18272e-07 -4.37061e-07 -0.000999562)
(-4.63853e-07 -4.29784e-07 -0.000999706)
(-7.20586e-08 -4.96814e-07 -0.000999461)
(-2.09423e-07 -4.95056e-07 -0.000999506)
(-3.26108e-07 -4.90063e-07 -0.000999593)
(-4.10975e-07 -4.83206e-07 -0.000999712)
(-4.55914e-07 -4.75262e-07 -0.000999852)
(-1.03686e-07 -1.08938e-07 -0.000998662)
(-3.01194e-07 -1.08483e-07 -0.000998727)
(-4.68818e-07 -1.07258e-07 -0.000998855)
(-5.9081e-07 -1.05579e-07 -0.00099903)
(-6.55243e-07 -1.03617e-07 -0.000999236)
(-1.03221e-07 -3.16161e-07 -0.000998731)
(-2.99859e-07 -3.14849e-07 -0.000998796)
(-4.66767e-07 -3.11314e-07 -0.000998923)
(-5.8825e-07 -3.06471e-07 -0.000999097)
(-6.52391e-07 -3.00809e-07 -0.000999301)
(-1.01988e-07 -4.91193e-07 -0.000998866)
(-2.96317e-07 -4.89156e-07 -0.00099893)
(-4.61312e-07 -4.83675e-07 -0.000999054)
(-5.81421e-07 -4.76167e-07 -0.000999225)
(-6.44783e-07 -4.67371e-07 -0.000999427)
(-1.00286e-07 -6.1728e-07 -0.00099905)
(-2.91425e-07 -6.14708e-07 -0.000999113)
(-4.53777e-07 -6.07793e-07 -0.000999235)
(-5.71972e-07 -5.98305e-07 -0.000999402)
(-6.3427e-07 -5.87133e-07 -0.000999599)
(-9.82825e-08 -6.82148e-07 -0.000999266)
(-2.85662e-07 -6.79274e-07 -0.000999327)
(-4.44883e-07 -6.71534e-07 -0.000999445)
(-5.60761e-07 -6.60896e-07 -0.000999608)
(-6.21922e-07 -6.48513e-07 -0.000999799)
(-1.42486e-07 -1.50131e-07 -0.000998164)
(-4.13838e-07 -1.49392e-07 -0.000998254)
(-6.44031e-07 -1.47503e-07 -0.00099843)
(-8.11539e-07 -1.44922e-07 -0.000998671)
(-9.00068e-07 -1.41914e-07 -0.000998955)
(-1.41733e-07 -4.35561e-07 -0.00099826)
(-4.1168e-07 -4.33425e-07 -0.00099835)
(-6.40726e-07 -4.27963e-07 -0.000998524)
(-8.07426e-07 -4.20509e-07 -0.000998763)
(-8.95501e-07 -4.11815e-07 -0.000999045)
(-1.39822e-07 -6.76281e-07 -0.000998447)
(-4.06197e-07 -6.72955e-07 -0.000998535)
(-6.32305e-07 -6.64471e-07 -0.000998706)
(-7.96914e-07 -6.52892e-07 -0.000998941)
(-8.83827e-07 -6.39375e-07 -0.000999217)
(-1.37179e-07 -8.49207e-07 -0.000998702)
(-3.98615e-07 -8.44994e-07 -0.000998788)
(-6.20662e-07 -8.3427e-07 -0.000998954)
(-7.82366e-07 -8.19634e-07 -0.000999183)
(-8.67681e-07 -8.02516e-07 -0.000999453)
(-1.34059e-07 -9.3755e-07 -0.000998999)
(-3.89661e-07 -9.3287e-07 -0.000999083)
(-6.06909e-07 -9.20899e-07 -0.000999244)
(-7.65161e-07 -9.04494e-07 -0.000999466)
(-8.48616e-07 -8.8534e-07 -0.000999728)
(-1.96055e-07 -2.07305e-07 -0.000997479)
(-5.69258e-07 -2.06106e-07 -0.000997603)
(-8.85561e-07 -2.03183e-07 -0.000997846)
(-1.11559e-06 -1.99219e-07 -0.000998178)
(-1.23725e-06 -1.94612e-07 -0.000998569)
(-1.94835e-07 -6.01174e-07 -0.000997613)
(-5.65775e-07 -5.97705e-07 -0.000997736)
(-8.80263e-07 -5.89252e-07 -0.000997976)
(-1.10903e-06 -5.77789e-07 -0.000998306)
(-1.23e-06 -5.64458e-07 -0.000998693)
(-1.91861e-07 -9.32675e-07 -0.000997871)
(-5.57272e-07 -9.27274e-07 -0.000997993)
(-8.67272e-07 -9.14134e-07 -0.000998228)
(-1.09288e-06 -8.96305e-07 -0.000998551)
(-1.21214e-06 -8.75565e-07 -0.000998931)
(-1.87752e-07 -1.16993e-06 -0.000998225)
(-5.45514e-07 -1.16308e-06 -0.000998343)
(-8.49293e-07 -1.14645e-06 -0.000998571)
(-1.07051e-06 -1.12388e-06 -0.000998885)
(-1.18747e-06 -1.09762e-06 -0.000999254)
(-1.82897e-07 -1.29005e-06 -0.000998637)
(-5.31607e-07 -1.28243e-06 -0.000998751)
(-8.2802e-07 -1.2639e-06 -0.000998971)
(-1.04405e-06 -1.23868e-06 -0.000999274)
(-1.15832e-06 -1.20934e-06 -0.000999631)
(-2.70228e-07 -2.86929e-07 -0.000996533)
(-7.84198e-07 -2.84975e-07 -0.000996706)
(-1.21903e-06 -2.80439e-07 -0.000997042)
(-1.53477e-06 -2.74359e-07 -0.000997501)
(-1.70185e-06 -2.67333e-07 -0.000998039)
(-2.68242e-07 -8.31634e-07 -0.00099672)
(-7.78578e-07 -8.25983e-07 -0.000996891)
(-1.21058e-06 -8.12869e-07 -0.000997223)
(-1.52441e-06 -7.95273e-07 -0.000997678)
(-1.69044e-06 -7.7494e-07 -0.000998211)
(-2.63582e-07 -1.28889e-06 -0.000997081)
(-7.65339e-07 -1.2801e-06 -0.000997248)
(-1.19054e-06 -1.25972e-06 -0.000997572)
(-1.49969e-06 -1.23234e-06 -0.000998017)
(-1.6632e-06 -1.20071e-06 -0.000998539)
(-2.57156e-07 -1.61447e-06 -0.000997573)
(-7.47048e-07 -1.60337e-06 -0.000997735)
(-1.16281e-06 -1.57757e-06 -0.000998048)
(-1.46547e-06 -1.54287e-06 -0.000998479)
(-1.62562e-06 -1.50278e-06 -0.000998985)
(-2.49579e-07 -1.77739e-06 -0.000998143)
(-7.25439e-07 -1.76499e-06 -0.0009983)
(-1.12997e-06 -1.73619e-06 -0.0009986)
(-1.42489e-06 -1.69737e-06 -0.000999014)
(-1.58122e-06 -1.65254e-06 -0.000999501)
(-3.73402e-07 -3.98272e-07 -0.000995226)
(-1.08249e-06 -3.95053e-07 -0.000995467)
(-1.68039e-06 -3.87986e-07 -0.000995933)
(-2.11314e-06 -3.78664e-07 -0.000996569)
(-2.34207e-06 -3.68025e-07 -0.00099731)
(-3.70136e-07 -1.15363e-06 -0.000995488)
(-1.07339e-06 -1.14433e-06 -0.000995726)
(-1.66696e-06 -1.12387e-06 -0.000996187)
(-2.09693e-06 -1.09689e-06 -0.000996815)
(-2.3243e-06 -1.06611e-06 -0.000997549)
(-3.62737e-07 -1.78558e-06 -0.000995993)
(-1.0526e-06 -1.77116e-06 -0.000996226)
(-1.63599e-06 -1.73936e-06 -0.000996673)
(-2.05926e-06 -1.69739e-06 -0.000997286)
(-2.28305e-06 -1.64951e-06 -0.000998003)
(-3.52557e-07 -2.23243e-06 -0.00099668)
(-1.02393e-06 -2.21428e-06 -0.000996903)
(-1.59318e-06 -2.17411e-06 -0.000997334)
(-2.00717e-06 -2.12088e-06 -0.000997925)
(-2.22616e-06 -2.06013e-06 -0.000998619)
(-3.4062e-07 -2.45242e-06 -0.000997473)
(-9.90161e-07 -2.43223e-06 -0.000997687)
(-1.54249e-06 -2.38732e-06 -0.000998097)
(-1.94529e-06 -2.32752e-06 -0.000998663)
(-2.15882e-06 -2.25915e-06 -0.000999329)
(-5.1802e-07 -5.54735e-07 -0.000993412)
(-1.49872e-06 -5.49322e-07 -0.000993754)
(-2.32052e-06 -5.38222e-07 -0.000994405)
(-2.91169e-06 -5.23936e-07 -0.000995285)
(-3.22349e-06 -5.07991e-07 -0.000996306)
(-5.12537e-07 -1.60579e-06 -0.000993782)
(-1.48381e-06 -1.59015e-06 -0.000994118)
(-2.29917e-06 -1.55796e-06 -0.000994759)
(-2.88657e-06 -1.5166e-06 -0.000995629)
(-3.19627e-06 -1.47047e-06 -0.000996639)
(-5.00508e-07 -2.48139e-06 -0.000994494)
(-1.45068e-06 -2.45721e-06 -0.000994819)
(-2.25112e-06 -2.40713e-06 -0.00099544)
(-2.82951e-06 -2.34279e-06 -0.000996286)
(-3.13447e-06 -2.27106e-06 -0.000997271)