/*--------------------------------*- C++ -*----------------------------------*\
| =========                 |                                                 |
| \\      /  F ield         | OpenFOAM: The Open Source CFD Toolbox           |
|  \\    /   O peration     | Version:  5.x                                   |
|   \\  /    A nd           | Web:      www.OpenFOAM.org                      |
|    \\/     M anipulation  |                                                 |
\*---------------------------------------------------------------------------*/
FoamFile
{
    version     2.0;
    format      ascii;
    class       volScalarField;
    location    "300";
    object      p;
}
// * * * * * * * * * * * * * * * * * * * * * * * * * * * * * * * * * * * * * //

dimensions      [0 2 -2 0 0 0 0];

internalField   nonuniform List<scalar> 
90
(
4.13322e-10
1.2062e-09
1.9017e-09
2.44673e-09
2.79891e-09
2.93269e-09
2.84181e-09
2.54009e-09
2.06036e-09
1.4517e-09
7.75178e-10
9.83502e-11
-5.1096e-10
-9.91037e-10
-1.2921e-09
-1.38097e-09
-1.24397e-09
-8.87807e-10
-3.38288e-10
3.63092e-10
1.16434e-09
2.00978e-09
2.84554e-09
3.62428e-09
4.30336e-09
4.84118e-09
5.19106e-09
5.29116e-09
5.05045e-09
4.33004e-09
2.91224e-09
4.53602e-10
-3.36157e-09
-7.54663e-09
-9.67793e-09
-3.59454e-08
-2.6949e-07
-1.00572e-06
4.46937e-06
-1.39154e-05
1.47648e-05
0.00069751
0.00140647
0.00212082
0.00293031
0.00376816
0.00453536
0.00525759
0.0060989
0.00697171
0.00772912
0.00840213
0.00856645
0.0085746
0.00857279
0.00857302
0.00857324
0.00857338
0.00857349
0.00857356
0.00857362
0.00857366
0.00857369
0.00857371
0.00857372
0.00857373
0.00857373
0.00857373
0.00857374
0.00857374
0.00857374
0.00857374
0.00857374
0.00857374
0.00857374
0.00857374
0.00857373
0.00857373
0.00857373
0.00857373
0.00857373
0.00857373
0.00857373
0.00857373
0.00857373
0.00857373
0.00857373
0.00857373
0.00857373
0.00857373
)
;

boundaryField
{
    inlet
    {
        type            zeroGradient;
    }
    outlet
    {
        type            fixedValue;
        value           uniform 0;
    }
    repeat_boundary
    {
        type            zeroGradient;
    }
    procBoundary2to0
    {
        type            processor;
        value           nonuniform List<scalar> 
90
(
3.90304e-10
1.12818e-09
1.74468e-09
2.17284e-09
2.36073e-09
2.27829e-09
1.91986e-09
1.30434e-09
4.72818e-10
-5.16365e-10
-1.59513e-09
-2.69335e-09
-3.74771e-09
-4.71117e-09
-5.5617e-09
-6.30961e-09
-7.00306e-09
-7.7318e-09
-8.63082e-09
-9.88723e-09
-1.17505e-08
-1.44986e-08
-1.84784e-08
-2.40174e-08
-3.15764e-08
-4.17463e-08
-5.52958e-08
-7.32368e-08
-9.691e-08
-1.28094e-07
-1.69146e-07
-2.23192e-07
-2.94235e-07
-3.86606e-07
-5.05357e-07
-6.856e-07
-1.02425e-06
-1.48566e-06
1.2545e-06
-1.00627e-05
4.05495e-06
0.000443759
0.00124336
0.00195022
0.0026956
0.00367216
0.00469599
0.00563936
0.0063909
0.00696634
0.00772262
0.00845966
0.00857022
0.00857093
0.00857145
0.008572
0.00857245
0.00857279
0.00857303
0.00857322
0.00857335
0.00857345
0.00857352
0.00857358
0.00857362
0.00857365
0.00857367
0.00857369
0.0085737
0.00857371
0.00857371
0.00857372
0.00857372
0.00857372
0.00857373
0.00857373
0.00857373
0.00857373
0.00857373
0.00857373
0.00857373
0.00857373
0.00857373
0.00857373
0.00857373
0.00857373
0.00857373
0.00857373
0.00857373
0.00857373
)
;
    }
    procBoundary2to3
    {
        type            processor;
        value           nonuniform List<scalar> 
90
(
4.17173e-10
1.21063e-09
1.88813e-09
2.38669e-09
2.65883e-09
2.67959e-09
2.4493e-09
1.99426e-09
1.36499e-09
6.32186e-10
-1.19424e-10
-7.98613e-10
-1.31573e-09
-1.59036e-09
-1.55753e-09
-1.17146e-09
-4.06012e-10
7.48817e-10
2.29406e-09
4.23079e-09
6.57372e-09
9.36502e-09
1.26864e-08
1.66748e-08
2.15629e-08
2.76475e-08
3.53413e-08
4.51998e-08
5.79509e-08
7.45468e-08
9.62352e-08
1.24648e-07
1.62069e-07
2.12801e-07
2.84017e-07
3.55789e-07
3.18546e-07
7.14507e-08
4.19628e-06
-8.43401e-06
1.06569e-05
0.000549256
0.00124786
0.00210401
0.00314916
0.00397552
0.00469903
0.00542644
0.00623316
0.0071791
0.0079138
0.00847597
0.00858007
0.00857818
0.00857684
0.008576
0.00857544
0.00857502
0.0085747
0.00857446
0.00857427
0.00857414
0.00857403
0.00857395
0.0085739
0.00857386
0.00857382
0.0085738
0.00857378
0.00857377
0.00857376
0.00857375
0.00857375
0.00857374
0.00857374
0.00857374
0.00857374
0.00857373
0.00857373
0.00857373
0.00857373
0.00857373
0.00857373
0.00857373
0.00857373
0.00857373
0.00857373
0.00857373
0.00857373
0.00857373
)
;
    }
}


// ************************************************************************* //
