/*--------------------------------*- C++ -*----------------------------------*\
| =========                 |                                                 |
| \\      /  F ield         | OpenFOAM: The Open Source CFD Toolbox           |
|  \\    /   O peration     | Version:  5.x                                   |
|   \\  /    A nd           | Web:      www.OpenFOAM.org                      |
|    \\/     M anipulation  |                                                 |
\*---------------------------------------------------------------------------*/
FoamFile
{
    version     2.0;
    format      ascii;
    class       surfaceScalarField;
    location    "3000";
    object      phi;
}
// * * * * * * * * * * * * * * * * * * * * * * * * * * * * * * * * * * * * * //

dimensions      [0 3 -1 0 0 0 0];

internalField   nonuniform List<scalar> 
179
(
-250.022
-250.022
-250.022
-250.023
-250.024
-250.025
-250.027
-250.028
-250.03
-250.033
-250.035
-250.039
-250.042
-250.046
-250.051
-250.056
-250.061
-250.068
-250.075
-250.083
-250.092
-250.102
-250.114
-250.127
-250.141
-250.157
-250.174
-250.194
-250.216
-250.241
-250.269
-250.299
-250.333
-250.371
-250.414
-250.461
-250.514
-250.572
-250.638
-250.711
-250.793
-250.884
-250.986
-251.1
-251.228
-251.37
-251.53
-251.709
-251.909
-252.133
-252.384
-252.666
-252.982
-253.336
-253.734
-254.181
-254.683
-255.247
-255.881
-256.594
-257.397
-258.3
-259.318
-260.466
-261.759
-263.219
-264.867
-266.727
-268.83
-271.207
-273.896
-276.939
-280.384
-284.285
-288.703
-293.699
-299.313
-305.464
-311.7
-316.696
-316.999
-317.027
-316.905
-316.66
-310.977
-308.763
-298.422
-286.319
-288.599
-299.854
-302.751
-310.233
-310.096
-313.269
-313.327
-312.351
-318.546
-318.946
-319.282
-316.126
-311.238
-305.848
-295.998
-290.676
-286.944
-282.02
-277.172
-272.907
-269.262
-266.165
-263.537
-261.309
-259.421
-257.822
-256.473
-255.337
-254.382
-253.581
-252.911
-252.35
-251.882
-251.493
-251.17
-250.903
-250.683
-250.502
-250.355
-250.235
-250.138
-250.062
-250.002
-249.957
-249.922
-249.896
-249.877
-249.864
-249.856
-249.852
-249.851
-249.852
-249.854
-249.858
-249.863
-249.869
-249.875
-249.882
-249.888
-249.895
-249.902
-249.909
-249.915
-249.921
-249.927
-249.933
-249.938
-249.943
-249.947
-249.952
-249.956
-249.96
-249.963
-249.967
-249.97
-249.972
-249.975
-249.977
-249.98
-249.982
-249.984
-249.985
-249.987
-249.989
-249.99
-249.992
-249.993
-249.994
-249.996
-249.997
-249.998
)
;

boundaryField
{
    inlet
    {
        type            calculated;
        value           uniform -249.999;
    }
    outlet
    {
        type            calculated;
        value           uniform 250.021;
    }
    repeat_boundary
    {
        type            calculated;
        value           uniform 0;
    }
    procBoundary0to1
    {
        type            processor;
        value           nonuniform List<scalar> 
180
(
-3.7688e-06
6.02217e-07
4.81945e-06
8.25719e-06
1.21535e-05
1.70212e-05
2.32982e-05
3.13169e-05
4.13741e-05
5.37363e-05
6.86815e-05
8.6498e-05
0.000107489
0.000131983
0.000160359
0.000193023
0.000230442
0.000273167
0.000321843
0.000377235
0.00044025
0.000511963
0.000593651
0.00068682
0.000793249
0.000915032
0.00105474
0.00121513
0.00139954
0.00161184
0.00185647
0.0021386
0.00246418
0.00284004
0.00327409
0.00377541
0.00435458
0.00502387
0.00579698
0.00669007
0.00772197
0.00891415
0.0102916
0.0118835
0.0137233
0.0158501
0.0183093
0.0211533
0.0244428
0.0282482
0.0326514
0.0377467
0.0436433
0.0504681
0.0583675
0.0675109
0.078094
0.0903428
0.104518
0.120921
0.139899
0.161852
0.187241
0.216598
0.250533
0.289749
0.335053
0.387373
0.447772
0.517468
0.597849
0.69047
0.797036
0.919578
1.06023
1.22009
1.39477
1.55717
1.60687
1.24375
-0.227267
-0.0249854
-4.97825
-0.737381
-3.80243
-2.13384
-5.58398
-9.33951
-0.176703
8.5034
2.08237
12.0559
1.571
6.11357
1.21179
1.61382
7.12261
1.73347
-0.135139
-2.76356
-2.69353
-2.48361
-3.84816
-1.52546
-1.25415
-2.14257
-2.22792
-1.96963
-1.67803
-1.42365
-1.20729
-1.02294
-0.865919
-0.732323
-0.618767
-0.522305
-0.440399
-0.370889
-0.311935
-0.26197
-0.219659
-0.18387
-0.153632
-0.128116
-0.106616
-0.0885299
-0.0733431
-0.0606205
-0.0498561
-0.0404934
-0.0326912
-0.0262035
-0.0208219
-0.0163723
-0.0127194
-0.00974189
-0.00733539
-0.00541108
-0.00388647
-0.00280158
-0.00171309
-0.000807989
1.30732e-05
0.00066658
0.0011364
0.00147717
0.00171617
0.00187746
0.00197605
0.00202528
0.00203588
0.00201652
0.00197426
0.00191484
0.00184314
0.00176272
0.00167655
0.00158709
0.00149628
0.0014057
0.00131651
0.00122964
0.00114578
0.00106546
0.000989059
0.00091685
0.00084902
0.000785692
0.000726948
0.000672828
0.000623359
0.000578552
0.000538416
0.000502955
0.00047217
0.000446041
0.000424522
0.00040747
0.000394242
0.000385209
)
;
    }
    procBoundary0to2
    {
        type            processor;
        value           nonuniform List<scalar> 
180
(
0.000221969
0.000357094
0.000551275
0.000768708
0.000999628
0.00124315
0.00150136
0.00177708
0.00207341
0.00239369
0.00274147
0.00312059
0.00353519
0.0039898
0.00448934
0.00503925
0.00564549
0.00631465
0.00705405
0.00787177
0.00877684
0.00977926
0.0108902
0.0121221
0.0134889
0.0150059
0.0166906
0.018562
0.0206419
0.022954
0.0255251
0.0283852
0.0315675
0.0351091
0.0390517
0.0434415
0.0483304
0.0537762
0.0598437
0.0666052
0.0741417
0.0825439
0.0919135
0.102364
0.114024
0.127037
0.141563
0.157782
0.175899
0.196141
0.218764
0.244057
0.272344
0.303994
0.339426
0.379113
0.423589
0.473452
0.529382
0.592145
0.66261
0.741768
0.830738
0.930793
1.04337
1.17012
1.31289
1.47382
1.6553
1.8601
2.09134
2.3526
2.64791
2.9817
3.35791
3.77642
4.2185
4.59433
4.62862
3.75138
0.530114
0.0526392
4.85617
0.492341
-1.88012
-0.0797464
-4.75708
-2.76325
2.45609
2.75238
0.814838
-4.57419
-1.70789
-2.94045
-1.15338
-2.59015
-0.927766
-1.33326
0.471339
-0.392647
-2.19465
-2.90601
-6.00196
-3.79611
-2.4785
-2.78099
-2.61989
-2.29587
-1.96708
-1.67349
-1.42082
-1.20531
-1.02211
-0.866722
-0.730752
-0.613487
-0.514107
-0.429957
-0.35877
-0.298612
-0.247832
-0.205023
-0.168982
-0.138683
-0.11325
-0.0919349
-0.0740955
-0.0591798
-0.0467067
-0.0359894
-0.0269276
-0.019467
-0.0136162
-0.0100669
-0.00635972
-0.00317769
-0.000755755
0.00110609
0.00249229
0.00351125
0.00420193
0.00469924
0.00502789
0.0052162
0.00529084
0.00527578
0.00519095
0.00505372
0.00487804
0.00467517
0.00445411
0.00422206
0.00398474
0.00374662
0.00351119
0.00328108
0.00305828
0.00284424
0.00263996
0.00244611
0.00226308
0.00209104
0.00193
0.00177985
0.00164037
0.00151132
0.00139239
0.00128326
0.0011836
0.00109309
0.00101144
0.000938371
0.000873619
0.000816961
0.00076819
0.000727103
0.000693474
0.000666925
0.000646533
0.000636893
)
;
    }
}


// ************************************************************************* //
