/*--------------------------------*- C++ -*----------------------------------*\
| =========                 |                                                 |
| \\      /  F ield         | OpenFOAM: The Open Source CFD Toolbox           |
|  \\    /   O peration     | Version:  5.x                                   |
|   \\  /    A nd           | Web:      www.OpenFOAM.org                      |
|    \\/     M anipulation  |                                                 |
\*---------------------------------------------------------------------------*/
FoamFile
{
    version     2.0;
    format      ascii;
    class       volVectorField;
    location    "0.09";
    object      U;
}
// * * * * * * * * * * * * * * * * * * * * * * * * * * * * * * * * * * * * * //

dimensions      [0 1 -1 0 0 0 0];

internalField   nonuniform List<vector> 
2250
(
(-2.05467e-10 -2.55054e-11 -0.001)
(-1.62805e-10 -1.34057e-11 -0.001)
(-1.18981e-10 -2.68044e-11 -0.001)
(-8.43234e-11 -1.76039e-11 -0.001)
(-2.96133e-11 -2.47874e-11 -0.001)
(-1.95511e-10 -5.04798e-11 -0.001)
(-1.64491e-10 -4.72629e-11 -0.001)
(-1.23433e-10 -5.64584e-11 -0.001)
(-8.25007e-11 -7.152e-11 -0.001)
(-3.6888e-11 -7.34904e-11 -0.001)
(-2.01799e-10 -5.06376e-11 -0.001)
(-1.69169e-10 -7.90848e-11 -0.001)
(-1.43511e-10 -1.00506e-10 -0.001)
(-1.01691e-10 -1.16918e-10 -0.001)
(-3.17836e-11 -1.20925e-10 -0.001)
(-2.08622e-10 -4.96565e-11 -0.001)
(-2.14401e-10 -1.09343e-10 -0.001)
(-1.61311e-10 -1.50959e-10 -0.001)
(-1.03199e-10 -1.61485e-10 -0.001)
(-4.11273e-11 -1.72197e-10 -0.001)
(-2.06509e-10 -1.74462e-10 -0.001)
(-2.70581e-10 -1.74164e-10 -0.001)
(-1.9569e-10 -1.84091e-10 -0.001)
(-1.23292e-10 -2.07097e-10 -0.001)
(-4.27963e-11 -2.05574e-10 -0.001)
(-5.70639e-10 -5.49828e-11 -0.001)
(-4.56274e-10 -4.14133e-11 -0.001)
(-3.54492e-10 -5.72073e-11 -0.001)
(-2.30801e-10 -5.9665e-11 -0.001)
(-8.1261e-11 -6.63235e-11 -0.001)
(-5.58406e-10 -1.16172e-10 -0.001)
(-4.59364e-10 -1.37119e-10 -0.001)
(-3.73415e-10 -1.59247e-10 -0.001)
(-2.4043e-10 -1.86144e-10 -0.001)
(-8.81561e-11 -2.0439e-10 -0.001)
(-5.83766e-10 -1.56372e-10 -0.001)
(-5.00229e-10 -2.34408e-10 -0.001)
(-4.04211e-10 -2.77983e-10 -0.001)
(-2.76761e-10 -3.15539e-10 -0.001)
(-9.99758e-11 -3.34004e-10 -0.001)
(-6.00332e-10 -1.8112e-10 -0.001)
(-5.81042e-10 -3.19087e-10 -0.001)
(-4.54654e-10 -4.08461e-10 -0.001)
(-2.9714e-10 -4.45274e-10 -0.001)
(-1.07188e-10 -4.57253e-10 -0.001)
(-5.55823e-10 -4.89675e-10 -0.001)
(-7.27469e-10 -5.03183e-10 -0.001)
(-5.30452e-10 -5.23444e-10 -0.001)
(-3.26446e-10 -5.48221e-10 -0.001)
(-1.12781e-10 -5.46279e-10 -0.001)
(-1.0428e-09 -9.43681e-11 -0.000999999)
(-8.82469e-10 -1.03404e-10 -0.001)
(-7.09932e-10 -1.17988e-10 -0.001)
(-4.63761e-10 -1.20281e-10 -0.001)
(-1.59571e-10 -1.31414e-10 -0.001)
(-1.05333e-09 -2.58791e-10 -0.000999999)
(-9.07678e-10 -2.95768e-10 -0.001)
(-7.2806e-10 -3.30135e-10 -0.001)
(-4.78233e-10 -3.56274e-10 -0.001)
(-1.71208e-10 -3.69944e-10 -0.001)
(-1.08423e-09 -4.46376e-10 -0.001)
(-9.55429e-10 -4.97525e-10 -0.001)
(-7.71778e-10 -5.43078e-10 -0.001)
(-5.0512e-10 -5.7503e-10 -0.001)
(-1.74157e-10 -5.74816e-10 -0.001)
(-1.11633e-09 -5.84159e-10 -0.001)
(-1.00451e-09 -6.88388e-10 -0.001)
(-8.05751e-10 -7.56693e-10 -0.001)
(-5.11169e-10 -7.77247e-10 -0.001)
(-1.72061e-10 -7.87831e-10 -0.001)
(-1.05752e-09 -8.64752e-10 -0.001)
(-1.12797e-09 -9.09781e-10 -0.001)
(-8.60738e-10 -9.24618e-10 -0.001)
(-5.3782e-10 -9.34202e-10 -0.001)
(-1.86199e-10 -9.39086e-10 -0.001)
(-1.659e-09 -1.7057e-10 -0.000999999)
(-1.47396e-09 -1.79224e-10 -0.001)
(-1.17615e-09 -1.97771e-10 -0.001)
(-7.58178e-10 -1.99597e-10 -0.001)
(-2.57927e-10 -2.04007e-10 -0.001)
(-1.67844e-09 -5.02441e-10 -0.000999999)
(-1.50373e-09 -5.25846e-10 -0.001)
(-1.19859e-09 -5.54886e-10 -0.001)
(-7.66084e-10 -5.64084e-10 -0.001)
(-2.6313e-10 -5.6672e-10 -0.001)
(-1.69756e-09 -8.59937e-10 -0.001)
(-1.52909e-09 -8.69265e-10 -0.001)
(-1.21662e-09 -8.80898e-10 -0.001)
(-7.72474e-10 -8.90469e-10 -0.001)
(-2.62018e-10 -8.82896e-10 -0.001)
(-1.72693e-09 -1.16808e-09 -0.001)
(-1.5249e-09 -1.18592e-09 -0.001)
(-1.22008e-09 -1.18639e-09 -0.001)
(-7.6991e-10 -1.18637e-09 -0.001)
(-2.5718e-10 -1.19255e-09 -0.001)
(-1.70754e-09 -1.33201e-09 -0.001)
(-1.54744e-09 -1.39094e-09 -0.001)
(-1.21729e-09 -1.39772e-09 -0.001)
(-7.81226e-10 -1.3928e-09 -0.001)
(-2.70607e-10 -1.39805e-09 -0.001)
(-2.42162e-09 -2.77579e-10 -0.000999999)
(-2.19417e-09 -2.92056e-10 -0.000999999)
(-1.74485e-09 -3.01345e-10 -0.001)
(-1.11028e-09 -2.97303e-10 -0.001)
(-3.74719e-10 -2.94756e-10 -0.001)
(-2.44156e-09 -8.24131e-10 -0.000999999)
(-2.22175e-09 -8.35518e-10 -0.001)
(-1.75321e-09 -8.42407e-10 -0.001)
(-1.10615e-09 -8.39209e-10 -0.001)
(-3.73321e-10 -8.38624e-10 -0.001)
(-2.44833e-09 -1.36441e-09 -0.000999999)
(-2.2165e-09 -1.33107e-09 -0.001)
(-1.75194e-09 -1.3231e-09 -0.001)
(-1.11018e-09 -1.32163e-09 -0.001)
(-3.76322e-10 -1.32209e-09 -0.001)
(-2.45268e-09 -1.80577e-09 -0.001)
(-2.18078e-09 -1.78863e-09 -0.001)
(-1.7442e-09 -1.74599e-09 -0.001)
(-1.10789e-09 -1.74003e-09 -0.001)
(-3.76251e-10 -1.7483e-09 -0.001)
(-2.42765e-09 -1.97275e-09 -0.001)
(-2.1567e-09 -1.99956e-09 -0.001)
(-1.7036e-09 -1.99086e-09 -0.001)
(-1.11603e-09 -1.9851e-09 -0.001)
(-3.87877e-10 -1.99335e-09 -0.001)
(-3.38138e-09 -4.17949e-10 -0.000999998)
(-3.06146e-09 -4.26841e-10 -0.000999999)
(-2.42261e-09 -4.26985e-10 -0.001)
(-1.53757e-09 -4.27607e-10 -0.001)
(-5.22074e-10 -4.2547e-10 -0.001)
(-3.39199e-09 -1.23313e-09 -0.000999998)
(-3.07587e-09 -1.22846e-09 -0.000999999)
(-2.42774e-09 -1.22418e-09 -0.001)
(-1.5395e-09 -1.23053e-09 -0.001)
(-5.21553e-10 -1.22971e-09 -0.001)
(-3.38575e-09 -1.99027e-09 -0.000999999)
(-3.05819e-09 -1.93774e-09 -0.001)
(-2.42937e-09 -1.93188e-09 -0.001)
(-1.5483e-09 -1.92926e-09 -0.001)
(-5.24413e-10 -1.93933e-09 -0.001)
(-3.36807e-09 -2.62868e-09 -0.001)
(-3.01784e-09 -2.55624e-09 -0.001)
(-2.41977e-09 -2.50591e-09 -0.001)
(-1.55096e-09 -2.49898e-09 -0.001)
(-5.35241e-10 -2.50585e-09 -0.001)
(-3.3933e-09 -2.7634e-09 -0.001)
(-2.93555e-09 -2.80949e-09 -0.001)
(-2.37248e-09 -2.78478e-09 -0.001)
(-1.55323e-09 -2.78212e-09 -0.001)
(-5.35898e-10 -2.78196e-09 -0.001)
(-4.63286e-09 -5.98562e-10 -0.000999997)
(-4.16978e-09 -5.99409e-10 -0.000999998)
(-3.30609e-09 -6.08787e-10 -0.001)
(-2.11156e-09 -6.05708e-10 -0.001)
(-7.19841e-10 -6.0504e-10 -0.001)
(-4.63449e-09 -1.76601e-09 -0.000999997)
(-4.18745e-09 -1.75974e-09 -0.000999999)
(-3.31839e-09 -1.75628e-09 -0.001)
(-2.11267e-09 -1.76437e-09 -0.001)
(-7.21489e-10 -1.75713e-09 -0.001)
(-4.62623e-09 -2.81408e-09 -0.000999998)
(-4.16796e-09 -2.7668e-09 -0.001)
(-3.31725e-09 -2.75104e-09 -0.001)
(-2.11978e-09 -2.74655e-09 -0.001)
(-7.17125e-10 -2.75335e-09 -0.001)
(-4.59646e-09 -3.68385e-09 -0.000999999)
(-4.12491e-09 -3.57328e-09 -0.001)
(-3.29896e-09 -3.51634e-09 -0.001)
(-2.12069e-09 -3.49283e-09 -0.001)
(-7.3342e-10 -3.48915e-09 -0.001)
(-4.65392e-09 -3.82781e-09 -0.001)
(-4.00043e-09 -3.87021e-09 -0.001)
(-3.2373e-09 -3.84176e-09 -0.001)
(-2.09949e-09 -3.8318e-09 -0.001)
(-7.19846e-10 -3.81494e-09 -0.001)
(-6.33214e-09 -8.52951e-10 -0.000999996)
(-5.69801e-09 -8.45095e-10 -0.000999998)
(-4.51866e-09 -8.5226e-10 -0.000999999)
(-2.89094e-09 -8.40227e-10 -0.001)
(-9.87521e-10 -8.37198e-10 -0.001)
(-6.32795e-09 -2.48989e-09 -0.000999996)
(-5.70748e-09 -2.47557e-09 -0.000999998)
(-4.52189e-09 -2.45892e-09 -0.001)
(-2.88244e-09 -2.45376e-09 -0.001)
(-9.87646e-10 -2.43504e-09 -0.001)
(-6.31516e-09 -3.91134e-09 -0.000999997)
(-5.67785e-09 -3.85787e-09 -0.000999999)
(-4.50569e-09 -3.8175e-09 -0.001)
(-2.87713e-09 -3.80553e-09 -0.001)
(-9.75029e-10 -3.79776e-09 -0.001)
(-6.28172e-09 -4.99106e-09 -0.000999999)
(-5.61437e-09 -4.88545e-09 -0.001)
(-4.47063e-09 -4.82553e-09 -0.001)
(-2.87052e-09 -4.7818e-09 -0.001)
(-9.86961e-10 -4.76697e-09 -0.001)
(-6.29865e-09 -5.26607e-09 -0.001)
(-5.5124e-09 -5.27626e-09 -0.001)
(-4.40271e-09 -5.24593e-09 -0.001)
(-2.82797e-09 -5.21893e-09 -0.00100001)
(-9.68977e-10 -5.18825e-09 -0.00100001)
(-8.65134e-09 -1.18969e-09 -0.000999994)
(-7.78724e-09 -1.16443e-09 -0.000999997)
(-6.16466e-09 -1.15912e-09 -0.000999999)
(-3.94664e-09 -1.14501e-09 -0.001)
(-1.35207e-09 -1.13485e-09 -0.001)
(-8.63366e-09 -3.43084e-09 -0.000999995)
(-7.77038e-09 -3.38846e-09 -0.000999997)
(-6.15619e-09 -3.35825e-09 -0.001)
(-3.93131e-09 -3.335e-09 -0.001)
(-1.3462e-09 -3.30763e-09 -0.001)
(-8.61315e-09 -5.31563e-09 -0.000999996)
(-7.72935e-09 -5.25479e-09 -0.000999999)
(-6.12321e-09 -5.19821e-09 -0.001)
(-3.90971e-09 -5.17502e-09 -0.001)
(-1.33316e-09 -5.15224e-09 -0.001)
(-8.58772e-09 -6.67288e-09 -0.000999998)
(-7.65396e-09 -6.59838e-09 -0.001)
(-6.07789e-09 -6.53493e-09 -0.001)
(-3.89591e-09 -6.48151e-09 -0.001)
(-1.33304e-09 -6.45199e-09 -0.00100001)
(-8.58482e-09 -7.15262e-09 -0.001)
(-7.59145e-09 -7.1556e-09 -0.001)
(-6.00726e-09 -7.12493e-09 -0.001)
(-3.83945e-09 -7.07828e-09 -0.00100001)
(-1.31551e-09 -7.0357e-09 -0.00100001)
(-1.17919e-08 -1.59935e-09 -0.000999992)
(-1.06121e-08 -1.56562e-09 -0.000999995)
(-8.40333e-09 -1.5546e-09 -0.000999998)
(-5.38971e-09 -1.54454e-09 -0.001)
(-1.85141e-09 -1.52714e-09 -0.001)
(-1.17656e-08 -4.60996e-09 -0.000999993)
(-1.05859e-08 -4.55331e-09 -0.000999996)
(-8.39714e-09 -4.52261e-09 -0.000999999)
(-5.37443e-09 -4.48469e-09 -0.001)
(-1.83982e-09 -4.45635e-09 -0.001)
(-1.17485e-08 -7.11882e-09 -0.000999995)
(-1.05447e-08 -7.06814e-09 -0.000999998)
(-8.35105e-09 -7.00604e-09 -0.001)
(-5.34201e-09 -6.96983e-09 -0.001)
(-1.83446e-09 -6.93772e-09 -0.001)
(-1.17397e-08 -8.92839e-09 -0.000999997)
(-1.04745e-08 -8.87458e-09 -0.001)
(-8.30084e-09 -8.79599e-09 -0.001)
(-5.32032e-09 -8.74218e-09 -0.00100001)
(-1.82063e-09 -8.69139e-09 -0.00100001)
(-1.17552e-08 -9.6661e-09 -0.001)
(-1.04124e-08 -9.66029e-09 -0.001)
(-8.21989e-09 -9.62987e-09 -0.00100001)
(-5.25439e-09 -9.57466e-09 -0.00100001)
(-1.79956e-09 -9.52426e-09 -0.00100001)
(-1.60638e-08 -2.11697e-09 -0.000999989)
(-1.44718e-08 -2.0947e-09 -0.000999994)
(-1.14689e-08 -2.08219e-09 -0.000999998)
(-7.3643e-09 -2.07685e-09 -0.001)
(-2.53399e-09 -2.05747e-09 -0.001)
(-1.60462e-08 -6.13961e-09 -0.00099999)
(-1.44623e-08 -6.09568e-09 -0.000999995)
(-1.14714e-08 -6.06382e-09 -0.000999999)
(-7.35619e-09 -6.01879e-09 -0.001)
(-2.52251e-09 -5.9938e-09 -0.001)
(-1.6029e-08 -9.50348e-09 -0.000999993)
(-1.44231e-08 -9.47167e-09 -0.000999998)
(-1.14143e-08 -9.4043e-09 -0.001)
(-7.31946e-09 -9.3552e-09 -0.001)
(-2.52437e-09 -9.31823e-09 -0.00100001)
(-1.60049e-08 -1.19534e-08 -0.000999996)
(-1.4365e-08 -1.19024e-08 -0.001)
(-1.13577e-08 -1.18108e-08 -0.001)
(-7.28921e-09 -1.17626e-08 -0.00100001)
(-2.50285e-09 -1.16915e-08 -0.00100001)
(-1.60112e-08 -1.31064e-08 -0.001)
(-1.42807e-08 -1.30195e-08 -0.001)
(-1.12762e-08 -1.29797e-08 -0.00100001)
(-7.22292e-09 -1.293e-08 -0.00100001)
(-2.47458e-09 -1.28774e-08 -0.00100001)
(-2.18878e-08 -2.82752e-09 -0.000999985)
(-1.97451e-08 -2.8165e-09 -0.000999992)
(-1.5648e-08 -2.79917e-09 -0.000999998)
(-1.00509e-08 -2.7951e-09 -0.001)
(-3.46176e-09 -2.77712e-09 -0.001)
(-2.18869e-08 -8.2186e-09 -0.000999987)
(-1.97511e-08 -8.18292e-09 -0.000999994)
(-1.56542e-08 -8.13723e-09 -0.000999999)
(-1.00515e-08 -8.09024e-09 -0.001)
(-3.45451e-09 -8.06412e-09 -0.00100001)
(-2.18458e-08 -1.27327e-08 -0.00099999)
(-1.97006e-08 -1.27028e-08 -0.000999997)
(-1.55856e-08 -1.26235e-08 -0.001)
(-1.00119e-08 -1.2563e-08 -0.00100001)
(-3.45641e-09 -1.25194e-08 -0.00100001)
(-2.17678e-08 -1.59739e-08 -0.000999995)
(-1.96445e-08 -1.59451e-08 -0.001)
(-1.55182e-08 -1.58593e-08 -0.00100001)
(-9.97304e-09 -1.58152e-08 -0.00100001)
(-3.43411e-09 -1.57332e-08 -0.00100001)
(-2.1641e-08 -1.78268e-08 -0.001)
(-1.95861e-08 -1.75818e-08 -0.00100001)
(-1.5458e-08 -1.75104e-08 -0.00100001)
(-9.91656e-09 -1.74579e-08 -0.00100002)
(-3.40304e-09 -1.74016e-08 -0.00100002)
(-2.97949e-08 -3.82037e-09 -0.00099998)
(-2.68883e-08 -3.8022e-09 -0.000999989)
(-2.13086e-08 -3.77437e-09 -0.000999997)
(-1.36882e-08 -3.76564e-09 -0.001)
(-4.71545e-09 -3.74722e-09 -0.00100001)
(-2.98091e-08 -1.10728e-08 -0.000999983)
(-2.68889e-08 -1.10161e-08 -0.000999992)
(-2.13095e-08 -1.09481e-08 -0.000999999)
(-1.36916e-08 -1.08984e-08 -0.001)
(-4.71156e-09 -1.08635e-08 -0.00100001)
(-2.97294e-08 -1.71426e-08 -0.000999987)
(-2.68136e-08 -1.70823e-08 -0.000999996)
(-2.12321e-08 -1.69886e-08 -0.001)
(-1.36498e-08 -1.69209e-08 -0.00100001)
(-4.70857e-09 -1.68682e-08 -0.00100001)
(-2.95972e-08 -2.14645e-08 -0.000999993)
(-2.67382e-08 -2.14306e-08 -0.001)
(-2.11532e-08 -2.13528e-08 -0.00100001)
(-1.36059e-08 -2.13057e-08 -0.00100002)
(-4.69015e-09 -2.12295e-08 -0.00100002)
(-2.92972e-08 -2.41445e-08 -0.001)
(-2.67021e-08 -2.37979e-08 -0.00100001)
(-2.11104e-08 -2.36782e-08 -0.00100002)
(-1.3568e-08 -2.36073e-08 -0.00100002)
(-4.67088e-09 -2.35435e-08 -0.00100003)
(-4.05181e-08 -5.17456e-09 -0.000999973)
(-3.65455e-08 -5.13652e-09 -0.000999986)
(-2.89765e-08 -5.09491e-09 -0.000999996)
(-1.86164e-08 -5.07907e-09 -0.001)
(-6.41141e-09 -5.05844e-09 -0.00100001)
(-4.0541e-08 -1.49554e-08 -0.000999976)
(-3.65289e-08 -1.48615e-08 -0.000999989)
(-2.89697e-08 -1.47767e-08 -0.000999999)
(-1.86213e-08 -1.47252e-08 -0.00100001)
(-6.41041e-09 -1.46807e-08 -0.00100001)
(-4.0424e-08 -2.31551e-08 -0.000999982)
(-3.64346e-08 -2.30547e-08 -0.000999995)
(-2.88959e-08 -2.29615e-08 -0.00100001)
(-1.85828e-08 -2.28962e-08 -0.00100001)
(-6.40486e-09 -2.28371e-08 -0.00100002)
(-4.02648e-08 -2.90333e-08 -0.000999991)
(-3.63399e-08 -2.89696e-08 -0.001)
(-2.88181e-08 -2.88991e-08 -0.00100001)
(-1.85439e-08 -2.88498e-08 -0.00100002)
(-6.39364e-09 -2.87831e-08 -0.00100003)
(-3.99019e-08 -3.25879e-08 -0.001)
(-3.63007e-08 -3.22583e-08 -0.00100001)
(-2.87803e-08 -3.21039e-08 -0.00100002)
(-1.85232e-08 -3.20164e-08 -0.00100003)
(-6.39055e-09 -3.19343e-08 -0.00100003)
(-5.51191e-08 -6.99458e-09 -0.000999964)
(-4.968e-08 -6.94078e-09 -0.00099998)
(-3.94248e-08 -6.89116e-09 -0.000999995)
(-2.53375e-08 -6.87088e-09 -0.00100001)
(-8.72457e-09 -6.85007e-09 -0.00100001)
(-5.51412e-08 -2.02269e-08 -0.000999968)
(-4.9662e-08 -2.01088e-08 -0.000999985)
(-3.94235e-08 -2.00218e-08 -0.000999999)
(-2.53525e-08 -1.99701e-08 -0.00100001)
(-8.7304e-09 -1.99176e-08 -0.00100002)
(-5.4992e-08 -3.13621e-08 -0.000999976)
(-4.95666e-08 -3.12532e-08 -0.000999993)
(-3.93615e-08 -3.11737e-08 -0.00100001)
(-2.53183e-08 -3.11093e-08 -0.00100002)
(-8.72367e-09 -3.1034e-08 -0.00100002)
(-5.48127e-08 -3.94206e-08 -0.000999988)
(-4.94799e-08 -3.93587e-08 -0.001)
(-3.92889e-08 -3.92946e-08 -0.00100002)
(-2.52769e-08 -3.92279e-08 -0.00100003)
(-8.71285e-09 -3.91316e-08 -0.00100003)
(-5.44958e-08 -4.40862e-08 -0.001)
(-4.94411e-08 -4.38142e-08 -0.00100002)
(-3.92365e-08 -4.36257e-08 -0.00100003)
(-2.52324e-08 -4.35062e-08 -0.00100004)
(-8.69898e-09 -4.33699e-08 -0.00100005)
(-7.50925e-08 -9.46309e-09 -0.00099995)
(-6.76803e-08 -9.40596e-09 -0.000999973)
(-5.37459e-08 -9.35529e-09 -0.000999993)
(-3.45532e-08 -9.32893e-09 -0.00100001)
(-1.18986e-08 -9.30781e-09 -0.00100002)
(-7.51089e-08 -2.74546e-08 -0.000999956)
(-6.76883e-08 -2.73196e-08 -0.00099998)
(-5.3762e-08 -2.72195e-08 -0.000999999)
(-3.4582e-08 -2.7152e-08 -0.00100001)
(-1.19138e-08 -2.70794e-08 -0.00100002)
(-7.49131e-08 -4.26785e-08 -0.000999968)
(-6.75696e-08 -4.25377e-08 -0.000999991)
(-5.36808e-08 -4.24216e-08 -0.00100001)
(-3.45288e-08 -4.23189e-08 -0.00100002)
(-1.18964e-08 -4.21931e-08 -0.00100003)
(-7.46713e-08 -5.3739e-08 -0.000999983)
(-6.74401e-08 -5.36204e-08 -0.00100001)
(-5.3556e-08 -5.34836e-08 -0.00100003)
(-3.44411e-08 -5.33397e-08 -0.00100004)
(-1.1867e-08 -5.31615e-08 -0.00100005)
(-7.43371e-08 -5.98864e-08 -0.001)
(-6.73149e-08 -5.95763e-08 -0.00100002)
(-5.3408e-08 -5.92984e-08 -0.00100004)
(-3.4312e-08 -5.90912e-08 -0.00100006)
(-1.18161e-08 -5.88641e-08 -0.00100007)
(-1.02441e-07 -1.28681e-08 -0.000999933)
(-9.23993e-08 -1.27989e-08 -0.000999964)
(-7.33782e-08 -1.27342e-08 -0.000999991)
(-4.71779e-08 -1.26896e-08 -0.00100001)
(-1.62479e-08 -1.26582e-08 -0.00100002)
(-1.02437e-07 -3.74228e-08 -0.000999941)
(-9.24226e-08 -3.72173e-08 -0.000999973)
(-7.33953e-08 -3.70441e-08 -0.001)
(-4.72057e-08 -3.69202e-08 -0.00100002)
(-1.6266e-08 -3.68011e-08 -0.00100003)
(-1.0213e-07 -5.82802e-08 -0.000999957)
(-9.21896e-08 -5.79697e-08 -0.000999988)
(-7.32203e-08 -5.77016e-08 -0.00100001)
(-4.70925e-08 -5.74969e-08 -0.00100003)
(-1.62249e-08 -5.72839e-08 -0.00100004)
(-1.01725e-07 -7.34371e-08 -0.000999978)
(-9.18558e-08 -7.30431e-08 -0.00100001)
(-7.29399e-08 -7.26887e-08 -0.00100004)
(-4.69078e-08 -7.23983e-08 -0.00100005)
(-1.61613e-08 -7.21135e-08 -0.00100007)
(-1.01221e-07 -8.14464e-08 -0.001)
(-9.1442e-08 -8.09406e-08 -0.00100003)
(-7.25862e-08 -8.04955e-08 -0.00100006)
(-4.6661e-08 -8.01494e-08 -0.00100008)
(-1.6074e-08 -7.98203e-08 -0.00100009)
(-1.39779e-07 -1.75643e-08 -0.000999909)
(-1.26183e-07 -1.74429e-08 -0.000999952)
(-1.0018e-07 -1.73319e-08 -0.000999989)
(-6.44047e-08 -1.72528e-08 -0.00100002)
(-2.21819e-08 -1.71935e-08 -0.00100003)
(-1.39722e-07 -5.10596e-08 -0.000999921)
(-1.26164e-07 -5.06896e-08 -0.000999964)
(-1.00162e-07 -5.03673e-08 -0.001)
(-6.44074e-08 -5.014e-08 -0.00100003)
(-2.21901e-08 -4.99452e-08 -0.00100004)
(-1.392e-07 -7.94912e-08 -0.000999942)
(-1.2572e-07 -7.88831e-08 -0.000999984)
(-9.98196e-08 -7.83677e-08 -0.00100002)
(-6.41973e-08 -7.80034e-08 -0.00100005)
(-2.21184e-08 -7.76741e-08 -0.00100006)
(-1.38498e-07 -1.00113e-07 -0.00099997)
(-1.25057e-07 -9.93117e-08 -0.00100001)
(-9.93056e-08 -9.86476e-08 -0.00100005)
(-6.38773e-08 -9.81577e-08 -0.00100008)
(-2.20086e-08 -9.77295e-08 -0.00100009)
(-1.37667e-07 -1.10759e-07 -0.001)
(-1.24256e-07 -1.09875e-07 -0.00100005)
(-9.86802e-08 -1.09165e-07 -0.00100008)
(-6.34753e-08 -1.08628e-07 -0.00100011)
(-2.18728e-08 -1.0816e-07 -0.00100012)
(-1.90634e-07 -2.39613e-08 -0.000999877)
(-1.72152e-07 -2.37452e-08 -0.000999936)
(-1.36675e-07 -2.35561e-08 -0.000999986)
(-8.78681e-08 -2.34269e-08 -0.00100002)
(-3.02635e-08 -2.33218e-08 -0.00100004)
(-1.90494e-07 -6.95476e-08 -0.000999893)
(-1.72035e-07 -6.89284e-08 -0.000999951)
(-1.36589e-07 -6.83986e-08 -0.001)
(-8.78253e-08 -6.80235e-08 -0.00100004)
(-3.02501e-08 -6.77191e-08 -0.00100006)
(-1.89663e-07 -1.0812e-07 -0.000999921)
(-1.71314e-07 -1.07153e-07 -0.000999979)
(-1.36026e-07 -1.06336e-07 -0.00100003)
(-8.74807e-08 -1.05751e-07 -0.00100006)
(-3.01382e-08 -1.05261e-07 -0.00100008)
(-1.88538e-07 -1.3602e-07 -0.00099996)
(-1.70273e-07 -1.34803e-07 -0.00100002)
(-1.3522e-07 -1.3378e-07 -0.00100007)
(-8.69734e-08 -1.3302e-07 -0.0010001)
(-2.9962e-08 -1.32385e-07 -0.00100012)
(-1.87179e-07 -1.50564e-07 -0.00100001)
(-1.69076e-07 -1.49144e-07 -0.00100006)
(-1.34264e-07 -1.4802e-07 -0.00100011)
(-8.63523e-08 -1.4719e-07 -0.00100015)
(-2.97519e-08 -1.46503e-07 -0.00100017)
(-2.59945e-07 -3.2626e-08 -0.000999834)
(-2.34734e-07 -3.22806e-08 -0.000999914)
(-1.86412e-07 -3.19863e-08 -0.000999982)
(-1.19863e-07 -3.17855e-08 -0.00100003)
(-4.12843e-08 -3.16199e-08 -0.00100006)
(-2.59685e-07 -9.46076e-08 -0.000999855)
(-2.34485e-07 -9.36427e-08 -0.000999934)
(-1.86231e-07 -9.28416e-08 -0.001)
(-1.19756e-07 -9.22591e-08 -0.00100005)
(-4.12434e-08 -9.17976e-08 -0.00100008)
(-2.5845e-07 -1.46926e-07 -0.000999893)
(-2.33389e-07 -1.45481e-07 -0.000999972)
(-1.85375e-07 -1.44271e-07 -0.00100004)
(-1.19216e-07 -1.4337e-07 -0.00100009)
(-4.10669e-08 -1.42649e-07 -0.00100012)
(-2.56771e-07 -1.84699e-07 -0.000999946)
(-2.31859e-07 -1.82933e-07 -0.00100002)
(-1.84165e-07 -1.81418e-07 -0.00100009)
(-1.18439e-07 -1.8027e-07 -0.00100014)
(-4.07981e-08 -1.79364e-07 -0.00100017)
(-2.54703e-07 -2.04463e-07 -0.00100001)
(-2.30111e-07 -2.02417e-07 -0.00100009)
(-1.8274e-07 -2.00704e-07 -0.00100015)
(-1.17527e-07 -1.9944e-07 -0.0010002)
(-4.05011e-08 -1.98442e-07 -0.00100023)
(-3.54579e-07 -4.43849e-08 -0.000999774)
(-3.20181e-07 -4.38715e-08 -0.000999883)
(-2.54358e-07 -4.34366e-08 -0.000999976)
(-1.6359e-07 -4.31271e-08 -0.00100004)
(-5.63496e-08 -4.28836e-08 -0.00100008)
(-3.54128e-07 -1.28686e-07 -0.000999802)
(-3.19761e-07 -1.27241e-07 -0.000999911)
(-2.54039e-07 -1.2605e-07 -0.001)
(-1.63389e-07 -1.25161e-07 -0.00100007)
(-5.62758e-08 -1.24473e-07 -0.00100011)
(-3.52308e-07 -1.99779e-07 -0.000999855)
(-3.18116e-07 -1.97613e-07 -0.000999963)
(-2.52748e-07 -1.95804e-07 -0.00100006)
(-1.62554e-07 -1.94435e-07 -0.00100012)
(-5.59956e-08 -1.93376e-07 -0.00100016)
(-3.49819e-07 -2.51077e-07 -0.000999927)
(-3.15827e-07 -2.48415e-07 -0.00100003)
(-2.50921e-07 -2.46112e-07 -0.00100013)
(-1.61379e-07 -2.44378e-07 -0.00100019)
(-5.55946e-08 -2.4308e-07 -0.00100023)
(-3.46839e-07 -2.77582e-07 -0.00100001)
(-3.13153e-07 -2.74681e-07 -0.00100012)
(-2.48749e-07 -2.72115e-07 -0.00100021)
(-1.60023e-07 -2.70215e-07 -0.00100027)
(-5.51652e-08 -2.68766e-07 -0.00100031)
(-4.83943e-07 -6.04128e-08 -0.000999692)
(-4.37087e-07 -5.9662e-08 -0.000999841)
(-3.47354e-07 -5.90184e-08 -0.000999969)
(-2.23464e-07 -5.85414e-08 -0.00100006)
(-7.69841e-08 -5.81848e-08 -0.00100011)
(-4.83181e-07 -1.75169e-07 -0.000999731)
(-4.36407e-07 -1.73026e-07 -0.00099988)
(-3.46809e-07 -1.71225e-07 -0.00100001)
(-2.23108e-07 -1.69863e-07 -0.0010001)
(-7.68587e-08 -1.68841e-07 -0.00100015)
(-4.80441e-07 -2.71894e-07 -0.000999803)
(-4.33915e-07 -2.6862e-07 -0.000999951)
(-3.44828e-07 -2.6585e-07 -0.00100008)
(-2.21816e-07 -2.63762e-07 -0.00100017)
(-7.64177e-08 -2.62199e-07 -0.00100022)
(-4.76635e-07 -3.41639e-07 -0.000999901)
(-4.30418e-07 -3.37509e-07 -0.00100005)
(-3.42033e-07 -3.33949e-07 -0.00100017)
(-2.20028e-07 -3.31317e-07 -0.00100026)
(-7.58141e-08 -3.29414e-07 -0.00100031)
(-4.72191e-07 -3.77193e-07 -0.00100002)
(-4.26228e-07 -3.72777e-07 -0.00100016)
(-3.38687e-07 -3.68868e-07 -0.00100028)
(-2.17967e-07 -3.65989e-07 -0.00100037)
(-7.5155e-08 -3.63862e-07 -0.00100042)
(-6.60843e-07 -8.23362e-08 -0.00099958)
(-5.97137e-07 -8.12077e-08 -0.000999785)
(-4.74762e-07 -8.02339e-08 -0.000999959)
(-3.05547e-07 -7.94951e-08 -0.00100009)
(-1.05285e-07 -7.89594e-08 -0.00100016)
(-6.59581e-07 -2.387e-07 -0.000999633)
(-5.96e-07 -2.35476e-07 -0.000999837)
(-4.73827e-07 -2.32705e-07 -0.00100001)
(-3.04921e-07 -2.30607e-07 -0.00100014)
(-1.05064e-07 -2.29079e-07 -0.00100021)
(-6.5541e-07 -3.7033e-07 -0.000999732)
(-5.92185e-07 -3.65351e-07 -0.000999934)
(-4.70755e-07 -3.61078e-07 -0.00100011)
(-3.02925e-07 -3.57885e-07 -0.00100023)
(-1.04381e-07 -3.55574e-07 -0.0010003)
(-6.49532e-07 -4.65002e-07 -0.000999866)
(-5.86822e-07 -4.58607e-07 -0.00100007)
(-4.66472e-07 -4.53157e-07 -0.00100024)
(-3.00202e-07 -4.49181e-07 -0.00100036)
(-1.03467e-07 -4.46346e-07 -0.00100043)
(-6.42662e-07 -5.12823e-07 -0.00100002)
(-5.80346e-07 -5.05886e-07 -0.00100022)
(-4.61398e-07 -4.99906e-07 -0.00100039)
(-2.97055e-07 -4.95521e-07 -0.00100051)
(-1.02427e-07 -4.92366e-07 -0.00100058)
(-9.02755e-07 -1.12349e-07 -0.000999428)
(-8.16302e-07 -1.10635e-07 -0.000999707)
(-6.49457e-07 -1.09132e-07 -0.000999947)
(-4.18231e-07 -1.07979e-07 -0.00100012)
(-1.44164e-07 -1.07171e-07 -0.00100022)
(-9.00701e-07 -3.25607e-07 -0.0009995)
(-8.14387e-07 -3.20713e-07 -0.000999779)
(-6.47851e-07 -3.16431e-07 -0.00100002)
(-4.17148e-07 -3.13191e-07 -0.00100019)
(-1.43786e-07 -3.10905e-07 -0.00100029)
(-8.94369e-07 -5.04742e-07 -0.000999635)
(-8.08536e-07 -4.97184e-07 -0.000999911)
(-6.43099e-07 -4.90638e-07 -0.00100015)
(-4.14074e-07 -4.85757e-07 -0.00100032)
(-1.42736e-07 -4.82306e-07 -0.00100041)
(-8.85413e-07 -6.32904e-07 -0.000999819)
(-8.00385e-07 -6.23258e-07 -0.00100009)
(-6.36576e-07 -6.15041e-07 -0.00100032)
(-4.09897e-07 -6.08998e-07 -0.00100049)
(-1.41318e-07 -6.04705e-07 -0.00100059)
(-8.74902e-07 -6.9714e-07 -0.00100003)
(-7.9068e-07 -6.86469e-07 -0.0010003)
(-6.28934e-07 -6.77383e-07 -0.00100053)
(-4.05031e-07 -6.70655e-07 -0.0010007)
(-1.39655e-07 -6.65918e-07 -0.00100079)
(-1.23363e-06 -1.53496e-07 -0.000999219)
(-1.11658e-06 -1.50877e-07 -0.000999602)
(-8.89297e-07 -1.4854e-07 -0.000999931)
(-5.73267e-07 -1.46737e-07 -0.00100017)
(-1.97731e-07 -1.45514e-07 -0.0010003)
(-1.23031e-06 -4.44669e-07 -0.000999319)
(-1.11337e-06 -4.37225e-07 -0.000999701)
(-8.86569e-07 -4.30626e-07 -0.00100003)
(-5.71433e-07 -4.25599e-07 -0.00100027)
(-1.97095e-07 -4.22119e-07 -0.0010004)
(-1.22074e-06 -6.88553e-07 -0.000999504)
(-1.10443e-06 -6.77142e-07 -0.000999881)
(-8.79242e-07 -6.67173e-07 -0.0010002)
(-5.66628e-07 -6.59632e-07 -0.00100044)
(-1.9543e-07 -6.5435e-07 -0.00100057)
(-1.20732e-06 -8.61899e-07 -0.000999755)
(-1.09213e-06 -8.47527e-07 -0.00100013)
(-8.69266e-07 -8.35107e-07 -0.00100045)
(-5.60101e-07 -8.25782e-07 -0.00100068)
(-1.93174e-07 -8.19245e-07 -0.0010008)
(-1.19146e-06 -9.47781e-07 -0.00100005)
(-1.07765e-06 -9.31619e-07 -0.00100041)
(-8.57627e-07 -9.17789e-07 -0.00100072)
(-5.52549e-07 -9.07428e-07 -0.00100095)
(-1.90567e-07 -9.00301e-07 -0.00100108)
(-1.6862e-06 -2.09977e-07 -0.000998933)
(-1.52832e-06 -2.05976e-07 -0.000999458)
(-1.21929e-06 -2.02348e-07 -0.00099991)
(-7.87322e-07 -1.99493e-07 -0.00100024)
(-2.71842e-07 -1.97564e-07 -0.00100043)
(-1.6809e-06 -6.08118e-07 -0.000999071)
(-1.52304e-06 -5.96862e-07 -0.000999593)
(-1.2147e-06 -5.86696e-07 -0.00100004)
(-7.84153e-07 -5.78733e-07 -0.00100037)
(-2.70716e-07 -5.73233e-07 -0.00100055)
(-1.66662e-06 -9.40544e-07 -0.000999325)
(-1.50946e-06 -9.23411e-07 -0.000999841)
(-1.20327e-06 -9.08131e-07 -0.00100028)
(-7.76415e-07 -8.96237e-07 -0.00100061)
(-2.67972e-07 -8.87976e-07 -0.00100079)
(-1.64668e-06 -1.17519e-06 -0.000999669)
(-1.49082e-06 -1.15362e-06 -0.00100018)
(-1.18781e-06 -1.13467e-06 -0.00100061)
(-7.66065e-07 -1.12014e-06 -0.00100093)
(-2.64349e-07 -1.11013e-06 -0.00100111)
(-1.62294e-06 -1.28908e-06 -0.00100007)
(-1.46895e-06 -1.26462e-06 -0.00100057)
(-1.16997e-06 -1.24358e-06 -0.00100099)
(-7.54345e-07 -1.22768e-06 -0.00100131)
(-2.6029e-07 -1.21695e-06 -0.00100147)
(-2.30509e-06 -2.87538e-07 -0.000998539)
(-2.09368e-06 -2.81477e-07 -0.000999259)
(-1.67476e-06 -2.75771e-07 -0.000999882)
(-1.08432e-06 -2.7109e-07 -0.00100035)
(-3.7495e-07 -2.67891e-07 -0.0010006)
(-2.29683e-06 -8.33267e-07 -0.000998728)
(-2.08507e-06 -8.16324e-07 -0.000999443)
(-1.66691e-06 -8.00448e-07 -0.00100006)
(-1.07863e-06 -7.8742e-07 -0.00100052)
(-3.72852e-07 -7.78408e-07 -0.00100077)
(-2.27579e-06 -1.2872e-06 -0.000999081)
(-2.0643e-06 -1.26145e-06 -0.000999787)
(-1.6487e-06 -1.23776e-06 -0.0010004)
(-1.06579e-06 -1.2186e-06 -0.00100085)
(-3.68203e-07 -1.20539e-06 -0.00100109)
(-2.24635e-06 -1.60476e-06 -0.000999554)
(-2.03588e-06 -1.57235e-06 -0.00100025)
(-1.62444e-06 -1.54342e-06 -0.00100084)
(-1.04914e-06 -1.52057e-06 -0.00100128)
(-3.62301e-07 -1.50502e-06 -0.00100152)
(-2.21133e-06 -1.75442e-06 -0.0010001)
(-2.00298e-06 -1.71748e-06 -0.00100078)
(-1.59716e-06 -1.68574e-06 -0.00100136)
(-1.03081e-06 -1.6613e-06 -0.00100179)
(-3.55891e-07 -1.64509e-06 -0.00100202)
(-3.15082e-06 -3.93987e-07 -0.000997993)
(-2.87133e-06 -3.84621e-07 -0.000998982)
(-2.30607e-06 -3.75355e-07 -0.000999842)
(-1.4995e-06 -3.67371e-07 -0.00100049)
(-5.19643e-07 -3.61896e-07 -0.00100086)
(-3.13801e-06 -1.14519e-06 -0.00099825)
(-2.85691e-06 -1.11938e-06 -0.000999231)
(-2.29219e-06 -1.09407e-06 -0.00100008)
(-1.48898e-06 -1.07199e-06 -0.00100073)
(-5.15681e-07 -1.05659e-06 -0.00100108)
(-3.10752e-06 -1.76641e-06 -0.000998746)
(-2.82482e-06 -1.72743e-06 -0.000999713)
(-2.26249e-06 -1.69031e-06 -0.00100055)
(-1.46684e-06 -1.65856e-06 -0.00100118)
(-5.07421e-07 -1.63663e-06 -0.00100152)
(-3.06438e-06 -2.19578e-06 -0.000999397)
(-2.78116e-06 -2.14739e-06 -0.00100034)
(-2.22384e-06 -2.10348e-06 -0.00100116)
(-1.43936e-06 -2.06691e-06 -0.00100177)
(-4.97525e-07 -2.04213e-06 -0.0010021)
(-3.01429e-06 -2.39079e-06 -0.00100016)
(-2.73255e-06 -2.33511e-06 -0.00100108)
(-2.18235e-06 -2.288e-06 -0.00100188)
(-1.41028e-06 -2.24999e-06 -0.00100247)
(-4.87204e-07 -2.22552e-06 -0.00100279)
(-4.30438e-06 -5.38508e-07 -0.000997229)
(-3.94312e-06 -5.23318e-07 -0.000998594)
(-3.18629e-06 -5.07616e-07 -0.000999783)
(-2.08685e-06 -4.93498e-07 -0.00100071)
(-7.25402e-07 -4.83872e-07 -0.00100123)
(-4.28406e-06 -1.58101e-06 -0.000997569)
(-3.91777e-06 -1.5407e-06 -0.000998918)
(-3.16088e-06 -1.49967e-06 -0.00100009)
(-2.06704e-06 -1.46058e-06 -0.001001)
(-7.17859e-07 -1.43259e-06 -0.00100151)
(-4.24163e-06 -2.43381e-06 -0.000998291)
(-3.8679e-06 -2.37368e-06 -0.000999618)
(-3.11121e-06 -2.31482e-06 -0.00100077)
(-2.02642e-06 -2.25975e-06 -0.00100165)
(-7.01948e-07 -2.22129e-06 -0.00100213)
(-4.17867e-06 -3.01407e-06 -0.000999178)
(-3.79925e-06 -2.94161e-06 -0.00100047)
(-3.04767e-06 -2.87562e-06 -0.00100158)
(-1.97931e-06 -2.81509e-06 -0.00100242)
(-6.84856e-07 -2.77402e-06 -0.00100288)
(-4.11139e-06 -3.26711e-06 -0.00100025)
(-3.72949e-06 -3.18198e-06 -0.00100152)
(-2.98515e-06 -3.11481e-06 -0.00100261)
(-1.93164e-06 -3.05413e-06 -0.00100342)
(-6.67408e-07 -3.01759e-06 -0.00100386)
(-5.87241e-06 -7.26041e-07 -0.00099615)
(-5.42527e-06 -6.99148e-07 -0.00099806)
(-4.42397e-06 -6.70647e-07 -0.000999694)
(-2.93346e-06 -6.44826e-07 -0.00100106)
(-1.02321e-06 -6.28025e-07 -0.00100182)
(-5.83762e-06 -2.19968e-06 -0.000996553)
(-5.37702e-06 -2.13351e-06 -0.000998427)
(-4.37527e-06 -2.06673e-06 -0.00100002)
(-2.89607e-06 -1.99349e-06 -0.00100135)
(-1.00929e-06 -1.93851e-06 -0.0010021)
(-5.78536e-06 -3.37461e-06 -0.000997689)
(-5.30035e-06 -3.27661e-06 -0.000999521)
(-4.29051e-06 -3.18232e-06 -0.0010011)
(-2.81456e-06 -3.08045e-06 -0.00100235)
(-9.74903e-07 -3.00865e-06 -0.00100302)
(-5.69038e-06 -4.15679e-06 -0.000998846)
(-5.18536e-06 -4.04529e-06 -0.0010006)
(-4.18011e-06 -3.94854e-06 -0.0010021)
(-2.7309e-06 -3.84288e-06 -0.00100328)
(-9.45647e-07 -3.77127e-06 -0.00100393)
(-5.61434e-06 -4.49291e-06 -0.00100044)
(-5.09215e-06 -4.3551e-06 -0.00100216)
(-4.08875e-06 -4.27019e-06 -0.00100367)
(-2.64713e-06 -4.16769e-06 -0.00100479)
(-9.1285e-07 -4.11601e-06 -0.00100537)
(-7.99193e-06 -9.31502e-07 -0.000994585)
(-7.4876e-06 -8.78308e-07 -0.000997364)
(-6.18264e-06 -8.21212e-07 -0.000999548)
(-4.18856e-06 -7.73771e-07 -0.00100164)
(-1.46285e-06 -7.48669e-07 -0.00100278)
(-7.92188e-06 -3.10956e-06 -0.000994896)