/*--------------------------------*- C++ -*----------------------------------*\
| =========                 |                                                 |
| \\      /  F ield         | OpenFOAM: The Open Source CFD Toolbox           |
|  \\    /   O peration     | Version:  5.x                                   |
|   \\  /    A nd           | Web:      www.OpenFOAM.org                      |
|    \\/     M anipulation  |                                                 |
\*---------------------------------------------------------------------------*/
FoamFile
{
    version     2.0;
    format      ascii;
    class       volScalarField;
    location    "5000";
    object      p;
}
// * * * * * * * * * * * * * * * * * * * * * * * * * * * * * * * * * * * * * //

dimensions      [0 2 -2 0 0 0 0];

internalField   nonuniform List<scalar> 
180
(
-1.79685e-09
-5.35683e-09
-8.93982e-09
-1.26379e-08
-1.64942e-08
-2.05498e-08
-2.48518e-08
-2.94395e-08
-3.43548e-08
-3.96355e-08
-4.53165e-08
-5.14316e-08
-5.80141e-08
-6.50991e-08
-7.27245e-08
-8.09329e-08
-8.97733e-08
-9.93033e-08
-1.09591e-07
-1.20718e-07
-1.3278e-07
-1.45895e-07
-1.60199e-07
-1.75858e-07
-1.93066e-07
-2.12055e-07
-2.33095e-07
-2.56504e-07
-2.82655e-07
-3.11981e-07
-3.44984e-07
-3.82248e-07
-4.24444e-07
-4.72348e-07
-5.26853e-07
-5.88984e-07
-6.59916e-07
-7.41e-07
-8.33784e-07
-9.40042e-07
-1.06181e-06
-1.20141e-06
-1.36154e-06
-1.54525e-06
-1.75608e-06
-1.99807e-06
-2.2759e-06
-2.59491e-06
-2.96127e-06
-3.38207e-06
-3.86549e-06
-4.42093e-06
-5.05923e-06
-5.79288e-06
-6.63625e-06
-7.60595e-06
-8.72106e-06
-1.00036e-05
-1.14791e-05
-1.31766e-05
-1.51301e-05
-1.73785e-05
-1.99666e-05
-2.29465e-05
-2.63778e-05
-3.03297e-05
-3.48818e-05
-4.01261e-05
-4.61686e-05
-5.31321e-05
-6.11583e-05
-7.04104e-05
-8.10758e-05
-9.33752e-05
-0.00010759
-0.000124072
-0.000143026
-0.000163911
-0.000186126
-0.000218544
-0.000399716
0.000119723
0.000285559
0.000243597
0.000446262
0.000128202
8.03606e-05
0.000449503
0.00383023
0.0057596
0.00670906
0.00683223
0.00701355
0.00823124
0.00880817
0.010395
0.0115126
0.0123724
0.0134828
0.0142135
0.0153088
0.0166521
0.0169673
0.0172498
0.0173657
0.0173504
0.0173562
0.0173653
0.0173731
0.0173797
0.0173855
0.0173906
0.0173952
0.0173992
0.0174027
0.0174058
0.0174085
0.0174109
0.0174129
0.0174147
0.0174163
0.0174177
0.0174188
0.0174198
0.0174207
0.0174214
0.017422
0.0174225
0.0174229
0.0174233
0.0174236
0.0174238
0.0174241
0.0174242
0.0174244
0.0174245
0.0174246
0.0174246
0.0174247
0.0174247
0.0174248
0.0174248
0.0174248
0.0174248
0.0174249
0.0174249
0.0174249
0.0174249
0.0174249
0.0174249
0.0174249
0.0174249
0.0174249
0.0174249
0.0174249
0.0174249
0.0174249
0.0174249
0.0174249
0.0174249
0.0174249
0.0174249
0.0174249
0.0174249
0.0174249
0.0174249
0.0174249
0.0174249
0.0174249
0.0174249
0.0174249
0.0174249
0.0174249
0.0174249
0.0174249
0.0174249
0.0174249
0.0174249
0.0174249
0.0174249
)
;

boundaryField
{
    inlet
    {
        type            zeroGradient;
    }
    outlet
    {
        type            fixedValue;
        value           uniform 0;
    }
    repeat_boundary
    {
        type            zeroGradient;
    }
    procBoundary0to1
    {
        type            processor;
        value           nonuniform List<scalar> 
180
(
-2.18248e-09
-6.5103e-09
-1.08379e-08
-1.52417e-08
-1.97557e-08
-2.44038e-08
-2.9218e-08
-3.42249e-08
-3.9445e-08
-4.48975e-08
-5.06008e-08
-5.65741e-08
-6.28389e-08
-6.94196e-08
-7.63459e-08
-8.36533e-08
-9.13845e-08
-9.95913e-08
-1.08335e-07
-1.1769e-07
-1.27743e-07
-1.38596e-07
-1.5037e-07
-1.63207e-07
-1.77272e-07
-1.92758e-07
-2.09891e-07
-2.28932e-07
-2.50186e-07
-2.74007e-07
-3.00805e-07
-3.31054e-07
-3.65305e-07
-4.04191e-07
-4.48444e-07
-4.98908e-07
-5.56553e-07
-6.22497e-07
-6.9802e-07
-7.84596e-07
-8.83913e-07
-9.9791e-07
-1.12881e-06
-1.27916e-06
-1.45189e-06
-1.65036e-06
-1.87842e-06
-2.14051e-06
-2.44172e-06
-2.7879e-06
-3.1858e-06
-3.64317e-06
-4.16895e-06
-4.77342e-06
-5.46845e-06
-6.2677e-06
-7.18695e-06
-8.2444e-06
-9.46106e-06
-1.08612e-05
-1.24731e-05
-1.43292e-05
-1.64675e-05
-1.89322e-05
-2.17748e-05
-2.50555e-05
-2.88435e-05
-3.3216e-05
-3.82612e-05
-4.40805e-05
-5.079e-05
-5.85223e-05
-6.7428e-05
-7.76844e-05
-8.95164e-05
-0.000103187
-0.000118807
-0.000135886
-0.00015405
-0.000182353
-0.000354854
0.000209873
0.000685707
0.000502377
0.00161725
0.00305332
0.00382659
0.00341238
0.00381078
0.00391554
0.00376092
0.00417023
0.00448629
0.00561685
0.00789181
0.00954894
0.00969318
0.0104759
0.0135115
0.0155806
0.0169342
0.017301
0.0174242
0.0174551
0.0174657
0.0174639
0.017459
0.0174552
0.0174521
0.0174492
0.0174465
0.017444
0.0174417
0.0174397
0.0174378
0.0174361
0.0174346
0.0174333
0.0174321
0.017431
0.0174301
0.0174292
0.0174285
0.0174279
0.0174274
0.017427
0.0174266
0.0174263
0.017426
0.0174258
0.0174256
0.0174255
0.0174254
0.0174253
0.0174252
0.0174252
0.0174251
0.0174251
0.0174251
0.017425
0.017425
0.017425
0.017425
0.017425
0.017425
0.017425
0.0174249
0.0174249
0.0174249
0.0174249
0.0174249
0.0174249
0.0174249
0.0174249
0.0174249
0.0174249
0.0174249
0.0174249
0.0174249
0.0174249
0.0174249
0.0174249
0.0174249
0.0174249
0.0174249
0.0174249
0.0174249
0.0174249
0.0174249
0.0174249
0.0174249
0.0174249
0.0174249
0.0174249
0.0174249
0.0174249
0.0174249
0.0174249
0.0174249
0.0174249
)
;
    }
    procBoundary0to2
    {
        type            processor;
        value           nonuniform List<scalar> 
180
(
-1.68026e-09
-5.04412e-09
-8.38307e-09
-1.17212e-08
-1.50638e-08
-1.8406e-08
-2.17461e-08
-2.50737e-08
-2.83729e-08
-3.16213e-08
-3.47893e-08
-3.7841e-08
-4.07342e-08
-4.34203e-08
-4.58443e-08
-4.79443e-08
-4.96512e-08
-5.08875e-08
-5.15664e-08
-5.15904e-08
-5.08497e-08
-4.92204e-08
-4.65621e-08
-4.27157e-08
-3.75007e-08
-3.07118e-08
-2.21151e-08
-1.14443e-08
1.60453e-09
1.73785e-08
3.62743e-08
5.87464e-08
8.53152e-08
1.16578e-07
1.53222e-07
1.96038e-07
2.45935e-07
3.03963e-07
3.71334e-07
4.49447e-07
5.39921e-07
6.44626e-07
7.65724e-07
9.05716e-07
1.06749e-06
1.2544e-06
1.47029e-06
1.71963e-06
2.00756e-06
2.34004e-06
2.72393e-06
3.16714e-06
3.67881e-06
4.2695e-06
4.95137e-06
5.73849e-06
6.64706e-06
7.69584e-06
8.90646e-06
1.03039e-05
1.19172e-05
1.37796e-05
1.59299e-05
1.84127e-05
2.12798e-05
2.4591e-05
2.84155e-05
3.28336e-05
3.7938e-05
4.38363e-05
5.06532e-05
5.8534e-05
6.7648e-05
7.81882e-05
9.0363e-05
0.000104406
0.000120721
0.000140202
0.00016385
0.000188009
0.000137167
0.000639835
0.000969433
0.000535057
0.000511611
9.09057e-05
0.000165116
0.00112175
0.00157855
0.00207235
0.00390627
0.00599866
0.00825736
0.00867857
0.00978131
0.0105783
0.0111397
0.0124118
0.0128259
0.0140927
0.0164417
0.0170661
0.0172573
0.0172845
0.0173072
0.0173281
0.0173429
0.0173555
0.0173662
0.0173753
0.017383
0.0173895
0.017395
0.0173996
0.0174035
0.0174068
0.0174096
0.0174119
0.0174139
0.0174156
0.0174171
0.0174183
0.0174193
0.0174202
0.0174209
0.0174216
0.0174221
0.0174225
0.0174229
0.0174232
0.0174235
0.0174237
0.0174239
0.017424
0.0174242
0.0174243
0.0174244
0.0174245
0.0174245
0.0174246
0.0174246
0.0174247
0.0174247
0.0174247
0.0174248
0.0174248
0.0174248
0.0174248
0.0174248
0.0174249
0.0174249
0.0174249
0.0174249
0.0174249
0.0174249
0.0174249
0.0174249
0.0174249
0.0174249
0.0174249
0.0174249
0.0174249
0.0174249
0.0174249
0.0174249
0.0174249
0.0174249
0.0174249
0.0174249
0.0174249
0.0174249
0.0174249
0.0174249
0.0174249
0.0174249
0.0174249
0.0174249
0.0174249
0.0174249
0.0174249
)
;
    }
}


// ************************************************************************* //
