/*--------------------------------*- C++ -*----------------------------------*\
| =========                 |                                                 |
| \\      /  F ield         | OpenFOAM: The Open Source CFD Toolbox           |
|  \\    /   O peration     | Version:  5.x                                   |
|   \\  /    A nd           | Web:      www.OpenFOAM.org                      |
|    \\/     M anipulation  |                                                 |
\*---------------------------------------------------------------------------*/
FoamFile
{
    version     2.0;
    format      ascii;
    class       surfaceScalarField;
    location    "5000";
    object      phi;
}
// * * * * * * * * * * * * * * * * * * * * * * * * * * * * * * * * * * * * * //

dimensions      [0 3 -1 0 0 0 0];

internalField   nonuniform List<scalar> 
179
(
-250.023
-250.023
-250.024
-250.025
-250.026
-250.027
-250.029
-250.03
-250.033
-250.035
-250.038
-250.041
-250.045
-250.049
-250.054
-250.06
-250.066
-250.072
-250.08
-250.088
-250.097
-250.108
-250.119
-250.132
-250.146
-250.161
-250.179
-250.198
-250.22
-250.243
-250.27
-250.299
-250.332
-250.368
-250.408
-250.453
-250.503
-250.558
-250.62
-250.688
-250.764
-250.849
-250.944
-251.049
-251.166
-251.297
-251.443
-251.606
-251.787
-251.99
-252.216
-252.469
-252.752
-253.068
-253.422
-253.818
-254.261
-254.758
-255.315
-255.939
-256.64
-257.426
-258.31
-259.303
-260.419
-261.675
-263.088
-264.681
-266.475
-268.499
-270.783
-273.362
-276.276
-279.567
-283.273
-287.408
-291.898
-296.483
-300.538
-302.822
-301.733
-301.716
-295.283
-293.973
-288.142
-285.667
-276.236
-264.546
-266.957
-277.596
-281.465
-292.151
-292.507
-294.935
-294.602
-293.739
-299.464
-300.05
-301.034
-298.708
-294.968
-291.536
-283.842
-279.926
-278.207
-275.172
-271.692
-268.412
-265.521
-263.027
-260.895
-259.082
-257.544
-256.242
-255.141
-254.213
-253.431
-252.775
-252.224
-251.763
-251.379
-251.058
-250.79
-250.567
-250.384
-250.236
-250.117
-250.023
-249.949
-249.891
-249.848
-249.816
-249.793
-249.778
-249.769
-249.766
-249.766
-249.77
-249.775
-249.783
-249.792
-249.803
-249.813
-249.824
-249.835
-249.846
-249.856
-249.866
-249.876
-249.885
-249.893
-249.901
-249.909
-249.916
-249.923
-249.929
-249.935
-249.94
-249.945
-249.95
-249.954
-249.958
-249.962
-249.966
-249.969
-249.972
-249.975
-249.977
-249.979
-249.982
-249.984
-249.986
-249.987
-249.989
-249.991
-249.992
-249.994
-249.995
-249.996
)
;

boundaryField
{
    inlet
    {
        type            calculated;
        value           uniform -249.998;
    }
    outlet
    {
        type            calculated;
        value           uniform 250.022;
    }
    repeat_boundary
    {
        type            calculated;
        value           uniform 0;
    }
    procBoundary0to1
    {
        type            processor;
        value           nonuniform List<scalar> 
180
(
2.84708e-06
8.35508e-06
1.59841e-05
2.41594e-05
3.24698e-05
4.10217e-05
4.95034e-05
5.64023e-05
6.42541e-05
7.32426e-05
8.35622e-05
9.54333e-05
0.00010911
0.000124896
0.000143177
0.000164424
0.000189192
0.000218141
0.000252041
0.0002918
0.000338466
0.000393261
0.000457599
0.000533007
0.000621296
0.000724643
0.000845575
0.000987019
0.00115237
0.00134556
0.00157116
0.00183447
0.00214164
0.00249979
0.00291718
0.00340337
0.00396945
0.00462824
0.0053946
0.00628574
0.00732158
0.00852518
0.0099232
0.0115465
0.0134308
0.0156174
0.018154
0.0210957
0.0245064
0.0284596
0.0330405
0.0383472
0.0444933
0.0516097
0.0598474
0.0693809
0.0804112
0.0931704
0.107926
0.124986
0.144707
0.167499
0.193833
0.224257
0.259399
0.299987
0.346871
0.401056
0.463712
0.536196
0.620088
0.71722
0.829623
0.959209
1.10634
1.26545
1.414
1.50172
1.42548
1.02703
-0.0189728
0.0217391
-6.42627
-0.93203
-3.95861
-2.46873
-6.29093
-9.70253
-0.115116
7.92809
1.68484
12.7613
1.67868
5.47751
0.854547
1.09638
6.04321
1.60054
0.303626
-1.93691
-2.12938
-1.85281
-3.3071
-1.1179
-0.699231
-1.39183
-1.68806
-1.6199
-1.43241
-1.23307
-1.05091
-0.891534
-0.75438
-0.637122
-0.53713
-0.451995
-0.37963
-0.318247
-0.266318
-0.22255
-0.185856
-0.155353
-0.130364
-0.110464
-0.0905126
-0.0723739
-0.0572821
-0.0447683
-0.0344332
-0.0259368
-0.01899
-0.0133474
-0.0088013
-0.00516855
-0.000900658
0.00203409
0.00409583
0.00554363
0.00655249
0.0072434
0.00755366
0.00756584
0.00751863
0.00738902
0.00714023
0.00685645
0.00654957
0.00622756
0.00589681
0.00556282
0.00523037
0.00490333
0.00458476
0.00427698
0.00398167
0.00369996
0.00343265
0.00318011
0.0029425
0.00271981
0.00251183
0.00231822
0.00213854
0.00197229
0.00181891
0.00167783
0.00154848
0.00143029
0.00132272
0.00122524
0.00113736
0.00105862
0.000988607
0.000926927
0.000873224
0.000827167
0.000788447
0.000757416
0.000732871
0.000732282
)
;
    }
    procBoundary0to2
    {
        type            processor;
        value           nonuniform List<scalar> 
180
(
0.000322148
0.000436625
0.000623882
0.000848458
0.00109367
0.00135391
0.00162899
0.00192079
0.00223201
0.00256571
0.00292525
0.00331424
0.00373665
0.00419675
0.00469923
0.00524922
0.00585236
0.00651483
0.00724344
0.0080457
0.00892988
0.00990512
0.0109815
0.0121702
0.0134836
0.0149352
0.0165402
0.0183154
0.0202791
0.0224522
0.0248573
0.0275198
0.0304679
0.0337326
0.0373485
0.0413542
0.0457924
0.0507106
0.0561617
0.0622051
0.0689063
0.0763386
0.0845836
0.0937324
0.103887
0.11516
0.127678
0.141584
0.157036
0.174212
0.19331
0.214555
0.238196
0.264515
0.293826
0.326486
0.362891
0.403492
0.448794
0.499366
0.555851
0.618974
0.689554
0.768516
0.856905
0.955908
1.06687
1.1913
1.33094
1.48775
1.66394
1.86194
2.08416
2.33166
2.60013
2.86878
3.07638
3.08344
2.62977
1.25737
-1.0703
-0.0390913
-0.00669992
-0.37789
-1.87184
-0.00697803
-3.13953
-1.98733
2.52565
2.71141
2.18403
-2.07588
-1.32271
-3.04868
-1.18813
-1.95922
-0.318242
-1.01475
0.68062
-0.389113
-1.61024
-1.57939
-4.38659
-2.79874
-1.0191
-1.64375
-1.79171
-1.65953
-1.45898
-1.26077
-1.08057
-0.921596
-0.783707
-0.665131
-0.563494
-0.476506
-0.402131
-0.338602
-0.284393
-0.238189
-0.198858
-0.16543
-0.137071
-0.113073
-0.0928382
-0.0758209
-0.0615401
-0.0495852
-0.0396067
-0.0313072
-0.0244344
-0.0187759
-0.0141553
-0.0104313
-0.00750355
-0.00532666
-0.00395791
-0.00212958
-0.000683017
0.000446246
0.0017171
0.00265233
0.00327809
0.00362547
0.00380288
0.00383136
0.00380559
0.00373392
0.00362968
0.00350206
0.00335848
0.00320472
0.0030452
0.0028834
0.002722
0.00256305
0.00240808
0.00225822
0.00211427
0.00197677
0.00184611
0.00172245
0.00160588
0.00149639
0.00139388
0.00129825
0.00120934
0.00112702
0.00105107
0.000981306
0.000917559
0.000859659
0.000807414
0.000760622
0.000719141
0.000682812
0.000651441
0.000625493
0.000604311
0.000599422
)
;
    }
}


// ************************************************************************* //
