FoamFile
{version 2.0; format ascii;class vectorField; location 0;object  v;}
348
(
( 6.36265e-07 -6.03271e-06 8.48653e-07 )  
( -6.05218e-08 -4.17676e-06 1.06858e-06 )  
( 1.04306e-06 -1.17705e-06 1.34058e-06 )  
( 2.97904e-06 -5.99387e-06 1.35943e-06 )  
( 2.15365e-06 -3.41559e-06 -8.83574e-07 )  
( 3.48632e-06 -3.07901e-06 -1.66489e-06 )  
( 3.81608e-07 -5.8529e-06 1.56556e-06 )  
( 2.27884e-07 -3.67763e-06 1.4959e-06 )  
( 3.18305e-06 -3.00172e-06 -1.0933e-07 )  
( 9.77759e-07 -3.53859e-06 -3.42694e-07 )  
( 4.32044e-06 -2.75472e-06 2.1518e-07 )  
( 3.60145e-06 -3.61335e-06 -1.33879e-06 )  
( 2.75658e-06 -1.7058e-06 1.80865e-07 )  
( 1.75264e-06 -4.50176e-06 1.49456e-06 )  
( 1.01966e-06 -3.1613e-06 2.26422e-06 )  
( 6.69444e-07 -3.00092e-06 6.90958e-07 )  
( 1.02482e-06 -7.48367e-06 -5.65e-07 )  
( 2.94432e-06 -2.66586e-06 9.60419e-07 )  
( 2.31613e-06 -3.72118e-06 -5.82353e-07 )  
( 4.01383e-06 -8.50307e-06 -1.65846e-06 )  
( 2.44704e-06 -4.08659e-06 4.40458e-07 )  
( 3.47543e-06 -3.13788e-06 2.07599e-07 )  
( -4.5731e-07 -3.03141e-06 8.07113e-08 )  
( 1.40252e-06 -4.74682e-06 -3.17639e-07 )  
( 2.35366e-06 -2.05131e-06 -1.30097e-07 )  
( 4.42273e-06 -3.31668e-06 -6.11759e-08 )  
( 5.81452e-06 -4.82322e-06 -4.79065e-06 )  
( 2.43087e-06 -7.22593e-06 2.62868e-06 )  
( 5.75201e-06 -8.06115e-06 3.88666e-07 )  
( 7.96241e-06 -6.22909e-06 -7.91342e-07 )  
( 2.98921e-06 -9.22646e-06 6.81021e-07 )  
( 2.06585e-06 -9.50683e-06 2.8655e-07 )  
( 6.62212e-06 -5.72612e-06 -8.02787e-07 )  
( 7.41741e-06 -8.44069e-06 -1.86801e-07 )  
( 7.35483e-06 -5.14908e-06 -1.62583e-06 )  
( 7.57034e-06 -5.44023e-06 -7.4958e-07 )  
( 5.72327e-06 -5.39654e-06 -7.72383e-07 )  
( 1.63118e-06 -2.33665e-06 -9.63499e-07 )  
( 6.91835e-06 -7.34996e-06 -3.87727e-06 )  
( 5.77819e-06 -5.02912e-06 4.02245e-06 )  
( 1.42801e-07 -6.61072e-06 -4.24563e-07 )  
( 3.49504e-06 -5.72555e-06 -3.35923e-06 )  
( 3.55375e-06 -3.13063e-06 -3.30911e-06 )  
( 5.53673e-06 -1.72914e-05 7.13871e-06 )  
( 7.51598e-06 -1.2935e-05 4.58858e-06 )  
( 5.42369e-06 -7.91528e-06 -2.97163e-06 )  
( 1.69278e-07 -9.83567e-06 2.54814e-06 )  
( 4.03374e-06 -5.54707e-06 -2.28866e-06 )  
( 5.7445e-06 -9.13067e-06 -4.73858e-06 )  
( 4.35863e-06 -9.71878e-06 -4.75408e-06 )  
( 6.7952e-06 -8.44172e-06 -2.61213e-06 )  
( 6.974e-06 -5.72489e-06 -1.51666e-06 )  
( 5.80704e-06 -6.59314e-06 9.41928e-07 )  
( 2.66702e-06 -5.95425e-06 9.99399e-08 )  
( 6.5175e-06 -6.3757e-06 -8.90213e-06 )  
( 6.27285e-06 -6.99876e-06 -5.51877e-06 )  
( 8.79958e-06 -6.0753e-06 -3.12439e-06 )  
( 5.37912e-06 -7.05438e-06 -2.63207e-06 )  
( 1.26679e-06 -9.50155e-06 -3.17437e-06 )  
( 4.72496e-06 -8.55646e-06 -8.52013e-06 )  
( 1.24847e-05 -1.18553e-05 5.98446e-06 )  
( 6.66162e-06 -8.87916e-06 -5.22083e-06 )  
( 1.3438e-05 -7.91082e-06 4.4086e-06 )  
( 5.17272e-06 -1.21831e-05 4.47711e-06 )  
( 1.01653e-05 -6.42137e-06 -4.20694e-06 )  
( 9.70932e-06 -8.34948e-06 4.30577e-06 )  
( 6.35039e-06 -4.53798e-06 -1.16397e-05 )  
( 9.97322e-06 -4.63495e-06 -6.12971e-06 )  
( 1.61052e-05 -1.01761e-05 5.1713e-06 )  
( 7.99395e-06 -4.81098e-06 -8.26216e-06 )  
( 4.92713e-06 -8.80961e-06 -7.02013e-06 )  
( 8.73746e-06 -5.66646e-06 2.96311e-06 )  
( 2.26293e-06 -8.60539e-06 -3.42759e-06 )  
( 1.74054e-06 -5.10152e-06 -6.19313e-06 )  
( 1.19593e-05 -6.42219e-06 3.7041e-06 )  
( 5.54112e-06 -5.91343e-06 -1.07191e-05 )  
( 4.31376e-06 -6.002e-06 -3.30172e-06 )  
( -2.46599e-06 -4.04522e-06 8.68121e-06 )  
( 3.31936e-06 -9.34932e-06 -4.53947e-06 )  
( 2.56209e-06 -9.39772e-06 1.26943e-06 )  
( 4.02697e-06 -7.25509e-06 -4.32429e-06 )  
( 7.27769e-06 -5.51138e-06 -1.11968e-05 )  
( -5.27169e-06 -1.09793e-05 1.1333e-06 )  
( 4.0712e-06 -6.67404e-06 -1.72861e-05 )  
( 1.16417e-05 -6.09715e-06 -1.02071e-05 )  
( 3.55453e-06 -3.66361e-06 -2.19526e-05 )  
( 8.9208e-06 -4.35816e-06 -4.83851e-06 )  
( 1.02592e-05 -3.81904e-06 -1.2856e-05 )  
( 1.02933e-05 -7.72519e-06 1.39119e-06 )  
( 6.6413e-06 -7.57534e-06 2.04294e-06 )  
( 2.32911e-06 -7.46882e-06 2.80322e-06 )  
( 3.69167e-06 -8.68253e-06 -1.45425e-05 )  
( 4.71455e-06 -5.5796e-06 -1.33909e-05 )  
( -5.94051e-06 5.06427e-07 8.12391e-06 )  
( 1.01893e-05 -5.57433e-06 6.02078e-07 )  
( 3.34382e-06 -2.89352e-06 -1.34505e-05 )  
( 3.60198e-07 -4.85276e-06 -4.80785e-06 )  
( 4.97072e-06 -4.87267e-06 -8.58014e-06 )  
( 6.07653e-06 -3.69006e-06 -1.11055e-05 )  
( 2.36184e-06 -3.19473e-06 -1.81869e-05 )  
( 1.0084e-05 -5.09579e-06 -5.20822e-06 )  
( 6.29161e-06 -6.55227e-06 -4.0735e-06 )  
( 4.59924e-06 -2.64897e-06 -1.8689e-05 )  
( 3.65777e-06 -4.04312e-06 -1.45435e-05 )  
( 2.40469e-06 -5.11455e-06 -2.22126e-05 )  
( 1.36254e-06 -4.74951e-06 -8.10034e-06 )  
( 5.15161e-06 -5.70776e-06 -2.92294e-06 )  
( 7.80304e-06 -9.89349e-06 -1.46679e-05 )  
( 6.24812e-06 -5.49443e-06 -1.70512e-05 )  
( 1.90818e-06 -1.6652e-06 -6.64903e-06 )  
( 1.95512e-06 -6.3499e-06 -1.88727e-06 )  
( 3.07745e-06 -4.67439e-06 -2.08799e-05 )  
( 8.45333e-06 -6.64237e-06 -1.7899e-05 )  
( 1.292e-05 -7.17705e-06 -1.70224e-05 )  
( 1.25553e-06 -4.16532e-06 -8.47532e-06 )  
( 1.74805e-06 -3.32479e-06 -2.59761e-05 )  
( 1.33052e-06 -4.31525e-06 -1.05565e-05 )  
( -1.25385e-06 -7.58501e-06 -2.53985e-05 )  
( 5.71434e-06 -5.95129e-06 -6.45504e-06 )  
( 4.15136e-06 5.26446e-07 -2.07865e-05 )  
( 6.41313e-06 -8.33982e-06 -1.98666e-05 )  
( -6.29839e-07 -7.57351e-06 -2.80294e-06 )  
( -7.26185e-07 -1.03389e-05 -9.64767e-06 )  
( 5.68926e-06 -3.9844e-06 -1.12908e-05 )  
( 5.7594e-06 -1.47086e-06 -2.25666e-05 )  
( -9.47315e-07 -3.62561e-06 -1.74822e-05 )  
( 5.57254e-06 -1.90817e-05 -1.88482e-05 )  
( -2.79861e-06 8.1938e-07 -4.34807e-05 )  
( -7.75178e-07 -4.6267e-06 -2.55987e-05 )  
( 1.68273e-06 2.08029e-06 -4.15611e-05 )  
( 2.71829e-06 -1.00643e-05 -3.26348e-05 )  
( 1.55424e-06 1.12774e-06 -1.52528e-05 )  
( 3.09547e-06 -4.05319e-07 -6.3341e-06 )  
( -1.26894e-06 4.18527e-06 -2.43994e-05 )  
( 4.85126e-07 -5.57385e-06 -3.08295e-05 )  
( 1.64149e-06 1.28249e-06 -3.22215e-05 )  
( 2.84756e-06 -6.64196e-06 -3.19164e-05 )  
( 1.91564e-06 -6.39623e-07 -2.18565e-05 )  
( -2.72866e-06 1.31571e-08 -3.12851e-05 )  
( 5.38086e-07 -2.6058e-06 -3.47772e-05 )  
( -7.62058e-07 2.00796e-06 -2.62269e-05 )  
( -5.91728e-06 5.78928e-06 -4.26818e-05 )  
( -5.18984e-06 -1.27809e-06 -3.6091e-05 )  
( -7.62047e-06 -1.29162e-06 -1.9631e-05 )  
( -1.66393e-06 2.19102e-05 -3.38543e-05 )  
( 1.71399e-05 -1.64457e-05 -2.16311e-05 )  
( 3.50667e-06 -1.55297e-06 -3.30741e-05 )  
( -2.28636e-06 7.4178e-06 -4.87352e-05 )  
( 8.11851e-06 7.44904e-06 -4.32505e-05 )  
( -4.49765e-06 1.29823e-06 -2.69127e-05 )  
( -1.59156e-06 4.73975e-06 -3.61305e-05 )  
( 1.83458e-07 5.62411e-06 -1.7995e-05 )  
( 2.32782e-06 -3.83239e-07 -4.49502e-05 )  
( -1.74722e-06 5.09848e-06 -4.96807e-05 )  
( -3.18896e-06 3.97286e-06 -3.90074e-05 )  
( 1.72425e-06 7.47222e-06 -2.72564e-05 )  
( 1.95986e-07 7.31886e-07 -4.1268e-05 )  
( -8.79127e-06 7.17092e-06 -5.92991e-05 )  
( -1.45251e-06 3.64054e-06 -4.83176e-05 )  
( -8.5251e-06 -4.09496e-06 -3.99959e-05 )  
( 8.15641e-07 1.42593e-05 -4.97371e-05 )  
( 9.0905e-07 9.13167e-06 -2.81594e-05 )  
( 1.00204e-05 5.96557e-07 -4.15752e-05 )  
( 1.61563e-06 2.80023e-06 -4.18538e-05 )  
( 1.13297e-05 -1.84102e-06 -2.92332e-05 )  
( -6.93731e-07 6.37187e-06 -4.08539e-05 )  
( -1.05199e-05 -1.21818e-06 -5.41047e-05 )  
( -2.05498e-06 9.64157e-06 -5.62488e-05 )  
( -4.34907e-06 5.84474e-06 -5.58765e-05 )  
( 4.11774e-06 -2.99352e-06 -4.72523e-05 )  
( 3.3153e-06 4.73381e-05 -3.39662e-05 )  
( -4.49599e-06 6.01005e-06 -4.50815e-05 )  
( -4.37699e-06 1.37167e-05 -6.51855e-05 )  
( -1.66999e-05 2.02446e-05 -5.63858e-05 )  
( -1.14412e-06 2.66828e-05 -4.0909e-05 )  
( -1.34073e-06 2.01903e-05 -2.619e-05 )  
( -5.99564e-06 1.00663e-05 -6.32486e-05 )  
( 8.18067e-07 -7.65478e-07 -5.19364e-05 )  
( -2.0152e-06 3.92375e-06 -6.97221e-05 )  
( -7.01207e-06 1.16447e-05 -4.54261e-05 )  
( 6.96405e-07 -1.13387e-05 -7.28445e-05 )  
( 2.07316e-06 8.94463e-06 -6.59029e-05 )  
( -4.45848e-06 6.47033e-06 -5.43011e-05 )  
( -2.24218e-06 1.45146e-05 -6.20736e-05 )  
( 2.27651e-07 6.81837e-06 -7.24856e-05 )  
( 5.06635e-08 4.12509e-06 -6.28823e-05 )  
( 2.95482e-06 1.14857e-05 -8.2302e-05 )  
( -4.54517e-06 2.62295e-05 -7.89292e-05 )  
( 2.19848e-05 -1.06733e-05 -5.14415e-05 )  
( 1.00204e-05 9.66038e-06 -9.46409e-05 )  
( -8.9123e-06 1.44901e-05 -4.5204e-05 )  
( 6.6059e-06 1.21441e-05 -8.27021e-05 )  
( -5.16614e-07 -4.535e-06 -5.78109e-05 )  
( -3.29261e-07 1.18747e-05 -6.86105e-05 )  
( 9.64558e-06 -3.46476e-07 -7.37061e-05 )  
( 3.70455e-06 6.28972e-06 -7.39416e-05 )  
( 3.55066e-06 1.10274e-05 -6.87561e-05 )  
( 1.20771e-05 4.43654e-06 -9.67583e-05 )  
( -1.01072e-05 -5.454e-06 -9.4965e-05 )  
( 8.35115e-06 9.13618e-06 -7.98427e-05 )  
( 5.52115e-06 -2.68596e-06 -0.000106051 )  
( -7.91684e-06 1.7113e-05 -9.25249e-05 )  
( 4.99314e-06 1.45476e-05 -8.89956e-05 )  
( 9.02515e-06 1.82539e-05 -8.9993e-05 )  
( 6.97978e-06 -1.19393e-05 -8.92395e-05 )  
( 2.5415e-05 1.75414e-05 -0.000117845 )  
( -1.25759e-05 2.40762e-05 -5.42948e-05 )  
( 1.3811e-06 1.68832e-05 -7.37351e-05 )  
( -1.20965e-05 1.84081e-05 -6.83546e-05 )  
( -4.77995e-06 1.72894e-05 -0.000105098 )  
( 9.95481e-06 -6.8061e-06 -9.64075e-05 )  
( 6.53273e-07 9.6872e-06 -9.19365e-05 )  
( 5.54718e-06 8.86904e-06 -9.14478e-05 )  
( 2.20047e-06 2.63209e-07 -0.0001145 )  
( -1.82906e-05 -1.2087e-06 -0.000140056 )  
( -7.6494e-06 2.34399e-05 -4.96466e-05 )  
( 1.63388e-05 9.1018e-06 -9.75702e-05 )  
( -1.0929e-05 1.39542e-05 -8.60582e-05 )  
( 4.17915e-06 -2.04058e-07 -0.000126152 )  
( 1.44004e-05 1.92099e-07 -9.40227e-05 )  
( 5.20794e-06 1.5654e-05 -7.58594e-05 )  
( 2.15763e-06 7.37992e-06 -9.84041e-05 )  
( 8.90245e-06 1.08184e-05 -8.60771e-05 )  
( 1.04084e-05 3.18118e-06 -8.38762e-05 )  
( 2.44695e-06 -1.52799e-06 -0.000122393 )  
( 4.04224e-06 6.11744e-06 -0.000117281 )  
( -1.41004e-05 1.56072e-05 -0.000124316 )  
( 2.01263e-05 1.55138e-06 -0.000116936 )  
( 1.37552e-07 3.87689e-06 -0.000131188 )  
( -1.44412e-05 2.18607e-06 -0.000137971 )  
( 1.57857e-05 1.16649e-05 -0.000112266 )  
( -2.41212e-05 -4.17336e-06 -0.000141271 )  
( -1.40398e-05 -6.1741e-06 -0.000124322 )  
( 5.33144e-06 -9.25169e-06 -0.000126109 )  
( 1.09611e-05 9.63759e-06 -0.000114668 )  
( 6.34575e-06 6.10275e-06 -0.000124971 )  
( 5.54493e-06 -4.24938e-06 -0.000115916 )  
( 1.21898e-05 3.39774e-07 -0.00012527 )  
( 2.83405e-06 -4.64752e-06 -0.000114921 )  
( -7.46108e-09 -1.28248e-05 -0.000133323 )  
( -1.86742e-05 -8.97843e-06 -0.000167018 )  
( -8.05093e-06 -1.43468e-05 -0.000149225 )  
( 6.6906e-06 1.38229e-06 -0.000120666 )  
( 6.68657e-06 2.47708e-06 -0.000134827 )  
( 1.21878e-06 8.75973e-06 -0.000142362 )  
( -3.93497e-06 1.11444e-05 -0.000123737 )  
( -1.48928e-05 -4.88362e-06 -0.000157417 )  
( 1.09433e-05 6.62442e-06 -0.000122652 )  
( -1.49138e-05 -1.67054e-06 -0.000123785 )  
( -1.69983e-07 -8.96376e-06 -0.000145663 )  
( -1.48048e-05 9.95256e-07 -0.000159203 )  
( 8.36192e-06 -3.95769e-06 -0.000153621 )  
( 2.40612e-05 1.18014e-06 -0.000164336 )  
( -9.11097e-06 1.29121e-05 -0.000135212 )  
( 6.86645e-06 -2.23467e-05 -0.000147866 )  
( -1.33142e-05 -1.1017e-05 -0.00015135 )  
( 2.01708e-06 -2.24001e-05 -0.000159423 )  
( 1.09668e-05 7.08263e-06 -0.000137578 )  
( 9.89473e-07 -1.54336e-05 -0.000140256 )  
( -2.92403e-05 -1.06679e-05 -0.000120511 )  
( -1.73289e-05 -2.40036e-05 -0.000166847 )  
( 2.93935e-06 6.97953e-06 -0.000144163 )  
( -2.00753e-05 -3.44367e-06 -0.000190409 )  
( 2.25202e-06 -7.18799e-06 -0.000170546 )  
( -1.73487e-05 -7.00484e-06 -0.000156088 )  
( 4.15857e-06 -1.15057e-06 -0.000155783 )  
( -2.1796e-05 2.24766e-06 -0.000143023 )  
( -1.97821e-05 -1.05436e-05 -0.000168879 )  
( 1.20605e-05 -1.19001e-05 -0.000193665 )  
( -1.95833e-05 -1.78522e-05 -0.000177174 )  
( -2.36034e-05 -1.06243e-05 -0.000182221 )  
( -4.85317e-06 -3.40965e-07 -0.000178436 )  
( -2.08056e-05 -2.37319e-05 -0.000181254 )  
( 6.89634e-06 -2.16018e-05 -0.000182977 )  
( -2.43922e-06 -1.37595e-06 -0.000172599 )  
( -6.08062e-06 -8.67767e-06 -0.000194847 )  
( 3.11022e-07 -6.81864e-06 -0.000164719 )  
( -1.08994e-05 2.55908e-06 -0.000157635 )  
( -3.56816e-06 1.71895e-05 -0.000200964 )  
( 1.41203e-05 -3.69258e-05 -0.000144633 )  
( -1.00197e-05 -1.83823e-05 -0.000157335 )  
( -1.74934e-05 -1.66745e-07 -0.000174545 )  
( -1.12554e-05 -4.41552e-06 -0.000195388 )  
( -2.35079e-05 -1.9041e-05 -0.000177201 )  
( -2.05963e-05 -1.61323e-05 -0.000197875 )  
( -1.39086e-05 -3.46631e-06 -0.00019941 )  
( 4.81687e-06 -5.47726e-06 -0.000179091 )  
( -1.71586e-05 -1.78554e-05 -0.000187184 )  
( -1.07311e-05 -1.3142e-05 -0.000191443 )  
( -9.33848e-07 -1.40033e-06 -0.000181891 )  
( -2.13631e-05 -2.9427e-05 -0.000189915 )  
( -1.37077e-05 -5.69103e-06 -0.000188448 )  
( 1.39131e-05 1.97476e-05 -0.000198739 )  
( -2.5372e-05 -2.16514e-05 -0.0002126 )  
( -2.49838e-06 -3.12793e-05 -0.00022731 )  
( -3.05394e-05 -2.21404e-05 -0.00018389 )  
( 2.50671e-05 -8.98815e-06 -0.000185009 )  
( 1.50831e-07 2.917e-06 -0.00023881 )  
( -6.3954e-06 -2.26591e-05 -0.000213613 )  
( -1.14366e-05 -3.12282e-05 -0.000187677 )  
( -1.21265e-05 -1.65126e-05 -0.000226403 )  
( -1.45133e-05 -3.56903e-06 -0.000192028 )  
( -3.24142e-05 -1.59668e-05 -0.00020349 )  
( -4.80374e-06 -7.36731e-06 -0.000203347 )  
( 4.4718e-06 8.29917e-06 -0.000211444 )  
( -1.50879e-05 -1.5752e-05 -0.000199703 )  
( -1.81879e-05 5.05033e-06 -0.000197737 )  
( -1.10349e-05 -8.67606e-07 -0.000210039 )  
( -7.72073e-06 -4.46499e-06 -0.000216688 )  
( -1.26202e-05 -2.96716e-05 -0.000216489 )  
( -2.46241e-05 -2.55341e-05 -0.000219669 )  
( -6.16272e-06 -2.12419e-05 -0.000236723 )  
( -6.39064e-06 -1.04471e-05 -0.000269007 )  
( -4.95619e-06 1.91225e-05 -0.000244178 )  
( -1.82587e-05 -3.97817e-06 -0.000226101 )  
( -1.36666e-05 -5.48228e-07 -0.000245855 )  
( -3.54711e-06 -1.16152e-05 -0.000208704 )  
( 9.15208e-06 9.58766e-06 -0.000208305 )  
( 3.68995e-06 1.85543e-06 -0.000227445 )  
( -2.73505e-06 -6.1624e-06 -0.000230123 )  
( -1.92299e-05 -8.73057e-06 -0.000230621 )  
( -8.55359e-06 -3.10174e-05 -0.000219238 )  
( -1.78058e-06 -1.68399e-05 -0.000274016 )  
( -1.89009e-05 -3.12123e-05 -0.000234788 )  
( 1.22686e-05 -1.41512e-05 -0.000230448 )  
( 1.0612e-06 1.37332e-05 -0.000261557 )  
( 4.56697e-06 -3.81345e-07 -0.000281226 )  
( -1.3883e-05 -2.98749e-05 -0.000209325 )  
( -1.06872e-05 5.08517e-06 -0.000226097 )  
( 1.12036e-06 1.66067e-05 -0.000255102 )  
( -1.63275e-05 1.23413e-05 -0.000237927 )  
( 2.18734e-05 -6.67349e-06 -0.000266282 )  
( -8.17664e-06 -2.48017e-05 -0.000256347 )  
( -2.93907e-05 -3.30004e-05 -0.000242536 )  
( -2.7528e-05 -2.29013e-05 -0.000223652 )  
( -1.72936e-05 5.5496e-06 -0.000239513 )  
( -1.37151e-05 -4.01007e-05 -0.00024753 )  
( -1.99577e-05 -4.1499e-05 -0.000257077 )  
( 6.94336e-06 -1.83238e-05 -0.000282155 )  
( -2.55653e-05 -8.78499e-07 -0.000236014 )  
( -3.09898e-05 -4.57374e-05 -0.000231481 )  
( -1.60962e-05 -4.29187e-05 -0.000243881 )  
( -4.33752e-05 -2.8001e-05 -0.000264954 )  
( 4.09032e-06 -2.56601e-05 -0.000233811 )  
( 3.54495e-05 -6.39427e-06 -0.000251612 )  
( 2.16768e-05 -6.80165e-06 -0.000247982 )  
( -3.93048e-07 -9.7587e-06 -0.000222061 )  
( -1.82027e-05 8.68434e-07 -0.000241955 )  
)
