FoamFile
{version 2.0; format ascii;class vectorField; location 0;object  v;}
350
(
( 3.84325e-06 2.2505e-06 -8.24442e-06 )  
( 3.63416e-06 2.91803e-06 -1.29374e-05 )  
( 2.16419e-06 -2.66841e-07 -1.27072e-05 )  
( 6.28585e-07 1.78558e-06 -8.06248e-06 )  
( -3.3896e-06 -1.0694e-06 -1.54594e-05 )  
( 1.0666e-06 1.76671e-06 -1.28275e-05 )  
( -8.05822e-08 2.69027e-06 -1.29155e-05 )  
( 2.62828e-06 2.70139e-06 -1.40736e-05 )  
( 2.8492e-06 3.89334e-07 -9.43213e-06 )  
( -2.63473e-06 1.56914e-07 -1.41355e-05 )  
( 5.93211e-07 -2.18427e-07 -1.43508e-05 )  
( -2.31138e-06 1.63195e-06 -1.22478e-05 )  
( -2.1332e-06 -1.28896e-06 -1.26833e-05 )  
( 1.50247e-06 6.80181e-07 -1.11082e-05 )  
( -2.72975e-06 1.92675e-07 -1.37753e-05 )  
( -2.70491e-06 1.36134e-06 -1.26175e-05 )  
( 2.60842e-06 -3.04615e-06 -6.20182e-06 )  
( 5.27957e-06 8.0152e-07 -1.30516e-05 )  
( 6.23178e-06 2.58098e-06 -1.83189e-05 )  
( -2.05406e-06 -3.00262e-06 -2.79603e-05 )  
( -1.52458e-06 6.73134e-07 -8.93386e-06 )  
( -5.97992e-06 -7.00514e-06 -1.24873e-05 )  
( -6.03746e-06 -4.34321e-06 -2.03816e-05 )  
( -1.48687e-06 -5.72252e-07 -1.21043e-05 )  
( 4.45439e-06 8.52007e-06 -2.99042e-05 )  
( 2.24214e-07 -1.3758e-05 -1.97605e-06 )  
( 1.80576e-06 4.3941e-06 -2.75698e-05 )  
( -1.33311e-06 -3.36058e-07 -7.5171e-06 )  
( -1.07464e-06 -1.03189e-06 -3.51254e-05 )  
( -3.42627e-06 1.71232e-06 -2.39509e-05 )  
( 6.4787e-06 4.05278e-06 -2.62483e-05 )  
( -4.72381e-06 7.36229e-07 -2.69798e-05 )  
( -4.57759e-06 1.52083e-06 -2.43704e-05 )  
( -6.98851e-06 4.42063e-06 -1.52452e-05 )  
( 2.96066e-06 3.35386e-07 -2.38535e-05 )  
( -3.44573e-06 2.20824e-06 -1.93733e-05 )  
( 3.7139e-06 -3.91052e-06 -2.45824e-05 )  
( 2.58793e-06 -6.87058e-08 -2.19428e-05 )  
( -1.30939e-06 1.04951e-06 -2.8828e-05 )  
( -7.10436e-07 8.78232e-08 -2.68905e-05 )  
( 3.9649e-06 2.70271e-06 -2.04454e-05 )  
( -5.73753e-06 3.87401e-06 -2.32221e-05 )  
( -3.35595e-06 -2.11785e-05 -9.49324e-06 )  
( -2.78294e-06 1.85482e-06 -3.89885e-05 )  
( 8.77734e-06 -4.62351e-06 -3.93305e-05 )  
( -2.1737e-06 6.05824e-06 -3.86324e-05 )  
( 1.20439e-06 -2.79475e-06 -3.924e-05 )  
( -5.59939e-06 5.83433e-06 -1.5519e-05 )  
( 7.79257e-07 7.45818e-06 -4.4216e-05 )  
( -4.71128e-06 -2.45684e-06 -1.27388e-05 )  
( 2.27783e-07 4.17532e-06 -3.59583e-05 )  
( -4.68893e-06 2.70845e-06 -2.13621e-05 )  
( -8.8118e-06 8.35198e-07 -3.85772e-05 )  
( 4.83824e-06 -5.01814e-07 -3.32872e-05 )  
( 8.57831e-06 -2.81002e-06 -2.83336e-05 )  
( 9.98606e-07 1.84603e-06 -3.14096e-05 )  
( 5.09367e-06 -6.26755e-07 -3.93642e-05 )  
( -1.52838e-06 4.64726e-06 -4.11133e-05 )  
( 2.21197e-06 4.71756e-06 -3.75217e-05 )  
( -5.58827e-06 1.06583e-06 -4.41748e-05 )  
( -8.1505e-06 1.99109e-06 -3.73619e-05 )  
( -4.12542e-06 9.45263e-07 -4.56346e-05 )  
( 2.11112e-06 6.89697e-06 -4.40027e-05 )  
( 3.28144e-06 5.26042e-06 -2.92893e-05 )  
( -6.15154e-06 7.77584e-07 -4.12164e-05 )  
( -4.5496e-06 4.74445e-06 -4.56119e-05 )  
( -5.92377e-06 5.88846e-06 -4.22147e-05 )  
( -4.74327e-06 2.7789e-06 -4.32535e-05 )  
( -2.84462e-07 -2.40753e-06 -4.02001e-05 )  
( -4.99382e-06 1.79922e-06 -2.67241e-05 )  
( 4.04711e-06 3.98609e-06 -4.02934e-05 )  
( -1.46022e-06 7.04892e-06 -4.86408e-05 )  
( 4.82591e-07 4.81795e-06 -4.38879e-05 )  
( -7.80383e-06 2.70279e-07 -5.03823e-05 )  
( -2.49075e-06 4.19961e-08 -4.48187e-05 )  
( -1.73945e-06 5.74064e-07 -4.54813e-05 )  
( -1.14493e-06 2.33738e-06 -5.30238e-05 )  
( 2.792e-07 4.67167e-06 -5.54722e-05 )  
( 2.5809e-05 -1.55351e-05 -1.78858e-05 )  
( 2.83311e-06 2.14438e-06 -4.97245e-05 )  
( -7.98175e-06 4.75419e-06 -5.41478e-05 )  
( -8.50776e-07 4.4785e-06 -3.95776e-05 )  
( -9.23009e-06 1.39447e-06 -5.44311e-05 )  
( -4.25038e-06 2.34401e-06 -5.47895e-05 )  
( -4.08101e-07 -1.25432e-06 -4.81575e-05 )  
( 1.30956e-05 2.70296e-05 -6.50312e-05 )  
( -1.98239e-06 -2.87096e-06 -6.00898e-05 )  
( -5.34461e-06 8.49514e-07 -5.6983e-05 )  
( 1.74658e-06 4.61258e-06 -5.20149e-05 )  
( -2.39803e-06 1.29756e-05 -6.00717e-05 )  
( -5.06582e-07 1.67264e-06 -4.9079e-05 )  
( -3.89401e-06 -2.00177e-06 -5.1016e-05 )  
( -1.05366e-05 -3.95486e-08 -6.08411e-05 )  
( 8.84222e-07 2.3174e-06 -4.8742e-05 )  
( -2.16811e-06 1.33017e-06 -5.65412e-05 )  
( 3.60116e-06 -6.48399e-07 -5.01434e-05 )  
( -8.08569e-06 3.49665e-07 -5.88125e-05 )  
( 3.78491e-06 -2.36523e-06 -5.34621e-05 )  
( 8.40728e-07 -1.76738e-06 -6.06168e-05 )  
( -2.51469e-06 4.57444e-06 -6.06122e-05 )  
( 6.06241e-06 1.03259e-06 -5.96507e-05 )  
( -4.48796e-06 5.0072e-06 -5.35086e-05 )  
( -6.27075e-06 8.87993e-07 -6.29867e-05 )  
( 8.61875e-06 -6.83568e-06 -5.57043e-05 )  
( 7.75568e-06 9.85289e-07 -6.17155e-05 )  
( 6.7935e-06 1.22725e-05 -5.73612e-05 )  
( -2.16179e-06 1.83499e-06 -5.45232e-05 )  
( 4.13404e-06 1.06019e-06 -5.71631e-05 )  
( -9.42112e-06 -3.1232e-06 -5.91091e-05 )  
( 4.02292e-05 5.08835e-05 -8.06861e-05 )  
( -5.25457e-06 -1.76273e-06 -7.21293e-05 )  
( 7.00823e-06 -5.56965e-06 -5.84375e-05 )  
( 2.34917e-06 -4.26224e-06 -6.48298e-05 )  
( -4.98448e-06 -6.50066e-07 -5.90464e-05 )  
( -2.68381e-06 -1.03312e-06 -6.84754e-05 )  
( -2.75958e-06 -3.64789e-06 -6.92389e-05 )  
( 1.11203e-06 -2.25304e-06 -6.34722e-05 )  
( -3.58182e-06 -1.21957e-06 -6.54819e-05 )  
( 4.09528e-06 -1.61809e-06 -6.62764e-05 )  
( 5.92484e-06 8.16636e-06 -6.73212e-05 )  
( 5.36916e-06 2.34726e-06 -6.85921e-05 )  
( -1.40337e-05 1.53488e-06 -6.33451e-05 )  
( 7.15973e-06 -1.72079e-06 -6.20746e-05 )  
( 3.69588e-06 -4.2014e-06 -5.99293e-05 )  
( -3.63792e-06 -1.09563e-07 -6.41822e-05 )  
( 4.2071e-06 -3.06624e-06 -6.55842e-05 )  
( 6.17039e-06 1.29574e-06 -5.94771e-05 )  
( -9.13702e-08 -2.05484e-06 -5.82133e-05 )  
( 3.67362e-06 -3.27835e-06 -7.09577e-05 )  
( 5.40623e-09 -4.67954e-06 -6.89506e-05 )  
( 1.15859e-05 -1.2262e-05 -6.58809e-05 )  
( 5.26485e-06 -4.63437e-06 -6.93559e-05 )  
( 7.28634e-06 2.38297e-06 -6.96541e-05 )  
( -2.39371e-06 -4.83766e-06 -7.05135e-05 )  
( 1.16094e-06 -5.34794e-06 -6.40807e-05 )  
( 1.04206e-05 -7.2425e-06 -6.69678e-05 )  
( 2.83452e-07 -5.65195e-06 -7.13426e-05 )  
( -5.44545e-06 8.48766e-06 -6.99185e-05 )  
( 9.57228e-06 -6.08854e-06 -6.73662e-05 )  
( 8.30551e-06 -4.36666e-06 -6.65975e-05 )  
( -4.76413e-06 -2.9248e-06 -6.88591e-05 )  
( 8.83322e-06 -5.57063e-06 -6.4262e-05 )  
( 4.72623e-06 -3.58211e-06 -7.3564e-05 )  
( -6.01577e-06 -6.71199e-06 -7.5604e-05 )  
( 1.74558e-06 -1.76561e-06 -7.19543e-05 )  
( 9.93954e-06 -9.44589e-06 -7.40042e-05 )  
( 6.50214e-06 -7.11323e-06 -7.03816e-05 )  
( 5.75943e-06 -8.17955e-06 -7.18934e-05 )  
( -4.89773e-06 -6.17862e-07 -7.34515e-05 )  
( 8.43609e-06 -1.00358e-05 -7.28887e-05 )  
( 3.39197e-06 -5.90724e-06 -7.31491e-05 )  
( 8.62635e-06 -5.15111e-06 -6.73893e-05 )  
( 5.18683e-06 -9.52808e-06 -8.0897e-05 )  
( -1.05335e-05 -6.05609e-06 -6.87885e-05 )  
( -9.46916e-06 -3.95102e-06 -7.18213e-05 )  
( 4.42053e-06 -2.04179e-06 -7.63806e-05 )  
( 1.006e-05 -8.47018e-06 -6.97012e-05 )  
( 8.48937e-06 -1.40565e-05 -8.0103e-05 )  
( -8.71274e-06 -9.78556e-06 -7.10103e-05 )  
( -1.896e-06 -1.02683e-05 -7.37549e-05 )  
( 8.16101e-06 -1.64743e-05 -7.56696e-05 )  
( -3.75344e-06 -1.45231e-05 -7.24648e-05 )  
( 1.17838e-05 -1.33991e-05 -7.25902e-05 )  
( 1.21487e-05 -1.14958e-05 -6.79156e-05 )  
( -4.04237e-06 -9.0072e-06 -7.19559e-05 )  
( 2.70427e-06 -1.42137e-05 -7.99489e-05 )  
( 9.26598e-06 -1.1505e-05 -7.35627e-05 )  
( 5.55127e-07 -8.87037e-06 -7.46548e-05 )  
( 1.08404e-05 -9.91547e-06 -6.84663e-05 )  
( -4.63311e-06 -7.28953e-06 -7.49197e-05 )  
( 7.79349e-06 -1.2399e-05 -7.36097e-05 )  
( 8.64525e-06 -9.08439e-06 -7.10209e-05 )  
( -5.0571e-06 -9.20865e-06 -7.74697e-05 )  
( 1.35064e-05 -1.25896e-05 -7.09621e-05 )  
( -8.21339e-06 -8.06397e-06 -7.61918e-05 )  
( 8.13673e-06 -5.62404e-06 -7.00768e-05 )  
( 1.18978e-05 -1.97803e-05 -7.73722e-05 )  
( 1.43684e-05 -1.67022e-05 -7.40203e-05 )  
( 2.81271e-06 -9.60075e-06 -7.45496e-05 )  
( 5.73713e-06 -6.99774e-06 -7.29472e-05 )  
( 3.02998e-06 -1.14616e-05 -7.9131e-05 )  
( 4.98766e-06 -1.27302e-05 -7.69281e-05 )  
( 5.06878e-06 -1.52518e-05 -8.72807e-05 )  
( -2.32904e-06 -1.11674e-05 -7.20093e-05 )  
( 1.28854e-05 -1.3066e-05 -6.95008e-05 )  
( 1.12749e-05 -1.48432e-05 -6.76763e-05 )  
( 4.37777e-06 -7.25113e-06 -7.30723e-05 )  
( 7.47894e-06 -1.61761e-05 -7.47441e-05 )  
( 9.09568e-06 -1.53024e-05 -7.20797e-05 )  
( 7.6107e-06 -1.32569e-05 -7.14886e-05 )  
( -6.5315e-06 -1.31175e-05 -7.45544e-05 )  
( 5.54289e-06 9.2335e-07 -7.44743e-05 )  
( 8.41791e-06 -1.78337e-05 -7.1038e-05 )  
( -3.35481e-06 -1.34024e-05 -7.54423e-05 )  
( 1.02202e-05 -1.39567e-05 -6.9666e-05 )  
( -8.02246e-06 -8.80347e-06 -7.5614e-05 )  
( -4.55478e-06 -1.62369e-05 -7.72591e-05 )  
( 1.69438e-05 -2.00985e-05 -7.26414e-05 )  
( -6.70533e-06 -1.95769e-05 -7.62818e-05 )  
( 1.2393e-05 -1.66244e-05 -5.66407e-05 )  
( 2.05571e-06 -9.59369e-06 -7.56195e-05 )  
( 6.60687e-06 -1.5687e-05 -7.13165e-05 )  
( 1.30622e-05 -1.28057e-05 -6.87825e-05 )  
( -7.31035e-06 -1.59104e-05 -7.77306e-05 )  
( -4.28063e-06 -4.89439e-06 -7.20692e-05 )  
( 7.7427e-06 -1.59693e-05 -7.49121e-05 )  
( 4.05323e-06 -1.35793e-05 -7.37482e-05 )  
( -1.42551e-06 -4.29716e-06 -7.21168e-05 )  
( 6.91542e-06 -1.21346e-05 -6.98303e-05 )  
( 1.67419e-06 -1.5402e-06 -7.09065e-05 )  
( 1.29738e-05 -1.47163e-05 -7.15752e-05 )  
( 9.34637e-06 -9.91808e-06 -7.2298e-05 )  
( -8.51847e-06 -7.81731e-06 -6.90495e-05 )  
( 4.57895e-06 -1.75324e-05 -7.53803e-05 )  
( 8.88947e-06 -1.28559e-05 -6.91532e-05 )  
( 1.52062e-05 -1.69624e-05 -5.85138e-05 )  
( 1.77638e-06 -6.66881e-06 -6.92167e-05 )  
( 1.27848e-05 -1.56928e-05 -6.98938e-05 )  
( 8.64453e-06 -1.20231e-05 -7.26664e-05 )  
( 6.62123e-06 -1.46737e-05 -7.09542e-05 )  
( 4.01753e-06 -1.73135e-05 -6.81086e-05 )  
( 1.38629e-05 -1.27994e-05 -7.32302e-05 )  
( -3.98929e-06 -1.25619e-05 -7.2436e-05 )  
( -6.57039e-06 -1.19791e-05 -8.38643e-05 )  
( 1.09848e-05 -1.3133e-05 -6.77269e-05 )  
( -1.671e-05 -2.16695e-05 -7.77789e-05 )  
( -1.71316e-05 -4.18396e-06 -7.45166e-05 )  
( 1.66346e-05 -1.57028e-05 -7.15737e-05 )  
( 1.71773e-07 -1.58318e-05 -7.60148e-05 )  
( 1.316e-05 -1.55101e-05 -4.30739e-05 )  
( -2.3179e-06 -1.43704e-05 -7.11665e-05 )  
( 1.37993e-05 -1.19425e-05 -5.82753e-05 )  
( -2.34652e-06 -4.00148e-06 -6.67354e-05 )  
( 2.88906e-07 -5.95123e-06 -7.21021e-05 )  
( 1.77608e-05 -1.29471e-05 -6.62102e-05 )  
( 9.64343e-06 -1.64221e-05 -6.51815e-05 )  
( -1.22244e-05 -1.31902e-05 -7.50989e-05 )  
( 1.63971e-05 -1.68435e-05 -6.57407e-05 )  
( 6.82351e-06 -1.80526e-05 -6.73933e-05 )  
( 5.66789e-07 -1.39677e-05 -7.64875e-05 )  
( 4.33974e-06 -1.7762e-05 -6.39432e-05 )  
( 1.58518e-05 -1.73267e-05 -4.61812e-05 )  
( 1.30251e-05 -1.3741e-05 -6.74278e-05 )  
( 1.52807e-05 -1.8805e-05 -4.85615e-05 )  
( 6.10137e-06 -1.81975e-05 -5.8471e-05 )  
( -2.98717e-06 -6.91477e-07 -6.15881e-05 )  
( 6.23143e-06 -7.9005e-06 -6.91712e-05 )  
( 6.37453e-06 -1.65199e-05 -6.91712e-05 )  
( 1.20256e-05 -2.01644e-05 -5.67315e-05 )  
( -5.17863e-06 -1.26659e-05 -6.17314e-05 )  
( -4.9249e-06 -1.389e-05 -8.14742e-05 )  
( 9.62197e-06 -1.76954e-05 -6.29762e-05 )  
( 1.41229e-05 -1.38255e-05 -5.80528e-05 )  
( 1.1921e-05 -2.03745e-05 -6.08458e-05 )  
( -6.15881e-06 -1.2229e-05 -6.99162e-05 )  
( -1.33055e-06 -5.6818e-07 -6.32222e-05 )  
( 1.82256e-06 -2.21903e-05 -5.75383e-05 )  
( -1.53597e-06 -2.91185e-07 -6.61232e-05 )  
( -2.27785e-06 -1.74678e-05 -6.9803e-05 )  
( -6.239e-06 1.77491e-06 -5.77365e-05 )  
( 5.77557e-07 -4.60346e-06 -7.11831e-05 )  
( 1.76739e-05 -1.8964e-05 -3.88913e-05 )  
( -1.39708e-05 1.9907e-06 -5.13365e-05 )  
( -1.36809e-05 -1.55706e-05 -7.38664e-05 )  
( 6.2613e-06 -1.94481e-05 -6.08118e-05 )  
( 1.19324e-07 5.51869e-07 -6.6754e-05 )  
( 1.33044e-05 -2.01523e-05 -4.67491e-05 )  
( -1.36011e-05 -1.60412e-06 -7.17096e-05 )  
( 1.43383e-05 -1.6016e-05 -5.37628e-05 )  
( -5.15465e-06 6.24568e-07 -6.02637e-05 )  
( 1.91135e-05 -7.44603e-05 -4.34001e-05 )  
( 3.25066e-06 3.02615e-06 -5.97384e-05 )  
( 5.37051e-06 -5.37664e-06 -5.57481e-05 )  
( 2.70337e-06 6.11551e-06 -5.40174e-05 )  
( 1.00098e-05 -2.21295e-05 -4.2046e-05 )  
( -1.37345e-06 9.4772e-06 -6.14875e-05 )  
( -1.07421e-06 -2.72179e-06 -4.35201e-05 )  
( 9.13225e-07 -2.03984e-06 -6.10274e-05 )  
( -1.06447e-05 -2.32124e-05 -7.96112e-05 )  
( 1.71329e-07 -2.23776e-05 -3.79892e-05 )  
( 1.74722e-05 -1.21664e-05 -4.96631e-05 )  
( 1.41944e-05 -1.00101e-05 -3.68045e-05 )  
( 3.15183e-06 -6.70445e-06 -6.65103e-05 )  
( 4.96463e-06 4.97506e-06 -5.86765e-05 )  
( 9.16648e-06 -2.76943e-05 -5.20619e-05 )  
( 1.38602e-05 -1.63035e-05 -4.67527e-05 )  
( -6.34502e-06 1.58832e-05 -4.14604e-05 )  
( 5.20159e-06 9.1011e-06 -5.73501e-05 )  
( -3.22442e-05 2.09218e-05 -5.51978e-05 )  
( 6.91583e-06 -2.93751e-05 -6.21576e-05 )  
( 3.37256e-06 -2.62295e-05 -5.68935e-05 )  
( 1.67091e-05 -1.96816e-05 -3.74657e-05 )  
( -9.32779e-06 1.79632e-05 -4.19447e-05 )  
( -1.07099e-05 2.11779e-05 -5.21702e-05 )  
( -0.000137622 6.28681e-05 -3.41924e-05 )  
( 5.75172e-06 1.55022e-05 -3.51861e-05 )  
( 6.87313e-06 -1.36346e-05 -6.8367e-05 )  
( 1.43644e-05 -2.69017e-05 -5.69009e-05 )  
( -7.22037e-05 3.31075e-05 -4.32696e-05 )  
( 7.42331e-06 1.3846e-05 -5.31998e-05 )  
( 2.65139e-05 -1.34041e-05 -2.68989e-05 )  
( -1.19508e-05 1.78985e-05 -3.24909e-05 )  
( 1.08142e-05 -2.32705e-05 -2.57693e-05 )  
( 1.21295e-05 -1.23741e-05 -5.41891e-05 )  
( 6.40377e-06 -7.34323e-05 -4.0001e-05 )  
( 2.50653e-05 -6.6762e-06 -3.63088e-05 )  
( -1.82313e-05 2.29792e-05 -2.09399e-05 )  
( 2.11853e-06 -2.42975e-05 -7.28125e-05 )  
( 2.31694e-05 3.85868e-06 -3.1588e-05 )  
( -1.79058e-05 1.71613e-05 -1.14261e-05 )  
( -9.5973e-06 5.24591e-06 -6.06407e-05 )  
( -3.41338e-06 3.17242e-05 -4.05159e-05 )  
( 2.2539e-05 3.17829e-05 -5.78097e-05 )  
( 5.80165e-05 2.53348e-06 -4.03043e-05 )  
( 5.9451e-06 -1.65789e-05 -3.55458e-05 )  
( -1.46201e-05 -3.77775e-05 -4.08342e-05 )  
( 9.0936e-06 -4.19457e-05 -2.83878e-05 )  
( 3.53035e-06 -6.30673e-06 -7.71508e-05 )  
( 7.30723e-07 -2.85907e-05 -3.52954e-05 )  
( 1.03369e-05 -9.45065e-06 -4.6831e-05 )  
( 3.75798e-05 6.20708e-06 -2.61608e-05 )  
( -3.49437e-05 2.97424e-05 -4.61698e-05 )  
( -6.61194e-06 -2.96661e-05 -4.42907e-05 )  
( 4.25971e-07 2.70055e-05 -2.48169e-05 )  
( 1.2844e-05 3.21383e-05 -4.24501e-05 )  
( -3.92426e-06 9.53571e-07 -3.37104e-05 )  
( -8.73347e-06 1.88652e-05 -6.03939e-05 )  
( 4.38278e-05 -1.815e-05 -4.17607e-05 )  
( -1.74835e-05 -8.01368e-06 -4.6992e-05 )  
( -2.01377e-06 9.42279e-06 -2.28491e-05 )  
( -3.57207e-05 4.00457e-05 -1.58345e-05 )  
( 1.37655e-05 9.76408e-06 -2.63358e-05 )  
( 1.88612e-05 -2.9791e-05 -4.44388e-05 )  
( -2.09426e-05 -1.77323e-05 -8.09566e-05 )  
( 4.09158e-05 1.71997e-05 -6.97018e-05 )  
( 1.80552e-05 1.25482e-05 -9.44823e-05 )  
( -6.09745e-05 -6.33513e-05 -0.000110539 )  
( 6.67623e-05 -1.83876e-05 -7.42574e-05 )  
( -9.10896e-06 3.41687e-05 1.54396e-05 )  
( 1.2137e-05 -5.80364e-05 -3.038e-05 )  
( -8.99959e-05 5.88591e-05 -5.90457e-05 )  
( 4.26902e-06 2.67196e-05 -4.47672e-05 )  
( 2.65773e-05 -5.50929e-05 -2.17212e-05 )  
( -3.85146e-05 1.37832e-05 -2.1352e-06 )  
( 3.31581e-05 7.17613e-05 -7.60853e-05 )  
( 2.33294e-05 -2.81294e-05 -8.85798e-05 )  
( -6.15622e-05 -1.71007e-06 -6.7935e-05 )  
( -6.69256e-06 -2.52411e-05 -7.75231e-05 )  
( -3.57136e-05 -5.71607e-05 -3.60414e-05 )  
( 1.04886e-05 -3.75421e-06 -6.5351e-05 )  
)
