FoamFile
{version 2.0; format ascii;class Cloud<passiveParticle>; location 0;object  positions;}
41
(
( -67.7818 -326.828 99.8409 ) 0 
( -236.789 -433.409 99.8011 ) 0 
( -138.478 -139.875 99.842 ) 0 
( -485.712 -332.776 99.7957 ) 0 
( -342.48 -138.19 99.866 ) 0 
( -436.557 -45.7611 284.464 ) 0 
( -241.56 -268.623 212.768 ) 0 
( -414.955 -404.829 272.209 ) 0 
( -106.345 -224.829 353.338 ) 0 
( -239.739 -61.5528 253.274 ) 0 
( -135.519 -423.546 281.6 ) 0 
( -452.354 -229.705 361.119 ) 0 
( -304.024 -117.383 434.107 ) 0 
( -67.7156 -174.218 542.832 ) 0 
( -29.0312 -385.087 446.749 ) 0 
( -135.132 -11.4701 448.15 ) 0 
( -489.07 -413.86 457.599 ) 0 
( -281.217 -327.974 399.393 ) 0 
( -391.11 -255.293 549.698 ) 0 
( -178.825 -338.528 570.739 ) 0 
( -244.726 -129.979 624.602 ) 0 
( -146.5 -279.161 758.867 ) 0 
( -27.8227 -452.509 635.459 ) 0 
( -57.4745 -101.911 733.701 ) 0 
( -336.913 -396.103 680.815 ) 0 
( -462.899 -280.088 784.398 ) 0 
( -439.791 -111.407 679.656 ) 0 
( -299.717 -163.14 813.923 ) 0 
( -450.135 -42.6733 867.156 ) 0 
( -175.839 -476.746 767.63 ) 0 
( -174.733 -234.477 955.945 ) 0 
( -305.213 -362.726 875.385 ) 0 
( -378.773 -216.091 989.758 ) 0 
( -121.786 -42.464 973.346 ) 0 
( -254.681 -498.827 1012.89 ) 0 
( -71.7299 -421.831 929.239 ) 0 
( -364.643 -34.4476 1072.21 ) 0 
( -142.611 -362.149 1106.47 ) 0 
( -72.3751 -38.3643 1167.1 ) 0 
( -245.933 -182.452 1135.43 ) 0 
( -395.526 -384.247 1096.69 ) 0 
)
