/*--------------------------------*- C++ -*----------------------------------*\
| =========                 |                                                 |
| \\      /  F ield         | OpenFOAM: The Open Source CFD Toolbox           |
|  \\    /   O peration     | Version:  5.x                                   |
|   \\  /    A nd           | Web:      www.OpenFOAM.org                      |
|    \\/     M anipulation  |                                                 |
\*---------------------------------------------------------------------------*/
FoamFile
{
    version     2.0;
    format      ascii;
    class       volScalarField;
    location    "3000";
    object      p;
}
// * * * * * * * * * * * * * * * * * * * * * * * * * * * * * * * * * * * * * //

dimensions      [0 2 -2 0 0 0 0];

internalField   nonuniform List<scalar> 
180
(
2.24269e-05
6.75346e-05
0.000112379
0.000155762
0.000197008
0.000235563
0.000270923
0.000302664
0.00033046
0.000354077
0.000373391
0.000388377
0.00039912
0.000405801
0.000408686
0.000408129
0.000404546
0.000398425
0.000390308
0.000380763
0.00037037
0.000359711
0.000349346
0.000339809
0.000331593
0.000325139
0.000320838
0.000319021
0.000319967
0.000323909
0.000331043
0.000341544
0.000355582
0.000373349
0.000395079
0.000421075
0.000451743
0.000487613
0.000529376
0.000577909
0.000634304
0.000699896
0.000776289
0.000865386
0.000969412
0.00109094
0.00123294
0.0013988
0.00159237
0.00181803
0.00208078
0.00238628
0.00274101
0.00315238
0.00362889
0.00418033
0.00481807
0.00555537
0.00640769
0.0073931
0.00853273
0.00985136
0.011378
0.0131467
0.0151973
0.0175767
0.0203397
0.0235508
0.0272852
0.0316313
0.036693
0.0425923
0.0494726
0.0575023
0.0668799
0.0778392
0.0906578
0.105651
0.123055
0.14605
0.196771
0.445695
1.27211
2.18211
3.43947
5.47857
8.62821
12.5017
16.9358
21.6389
27.2008
34.6206
43.6037
55.6318
70.2494
86.5336
107.883
132.235
153.354
181.759
215.097
239.566
262.801
289.712
306.853
312.165
312.809
312.859
312.89
312.919
312.944
312.965
312.983
313
313.014
313.026
313.036
313.045
313.053
313.06
313.066
313.071
313.076
313.08
313.083
313.086
313.089
313.091
313.093
313.094
313.096
313.097
313.098
313.099
313.1
313.101
313.101
313.102
313.102
313.103
313.103
313.103
313.104
313.104
313.104
313.104
313.104
313.104
313.105
313.105
313.105
313.105
313.105
313.105
313.105
313.105
313.105
313.105
313.105
313.105
313.105
313.105
313.105
313.105
313.106
313.106
313.106
313.106
313.106
313.106
313.106
313.106
313.106
313.106
313.106
313.106
313.106
313.106
313.106
313.106
)
;

boundaryField
{
    inlet
    {
        type            zeroGradient;
    }
    outlet
    {
        type            fixedValue;
        value           uniform 0;
    }
    repeat_boundary
    {
        type            zeroGradient;
    }
    procBoundary0to1
    {
        type            processor;
        value           nonuniform List<scalar> 
180
(
1.40155e-05
4.19612e-05
6.96627e-05
9.67152e-05
0.00012271
0.000147445
0.000170695
0.000192286
0.000212092
0.000230045
0.000246128
0.000260383
0.000272898
0.000283814
0.000293319
0.000301633
0.000309019
0.000315738
0.00032205
0.000328218
0.000334491
0.000341103
0.000348264
0.000356151
0.000364912
0.000374662
0.000385491
0.000397472
0.000410667
0.000425148
0.00044101
0.000458391
0.000477494
0.000498612
0.000522149
0.000548646
0.000578806
0.000613513
0.000653858
0.000701153
0.00075695
0.000823056
0.000901548
0.000994783
0.00110541
0.00123639
0.00139101
0.0015729
0.00178605
0.0020349
0.00232441
0.00266012
0.00304824
0.00349575
0.00401059
0.00460176
0.00527957
0.00605581
0.00694402
0.00795977
0.00912089
0.0104477
0.0119636
0.0136955
0.0156741
0.0179342
0.0205155
0.0234629
0.026827
0.0306648
0.0350407
0.0400265
0.0457028
0.0521594
0.0594964
0.067825
0.0772676
0.0879431
0.0998655
0.117083
0.161229
0.419662
1.40563
2.72716
4.34348
6.03907
8.65976
12.6488
16.2873
20.376
26.0896
33.7723
42.6575
53.5241
66.8986
83.059
103.317
125.786
151.456
178.954
205.436
231.363
261.312
294.295
308.52
312.469
312.974
312.995
313.007
313.02
313.031
313.041
313.049
313.056
313.063
313.068
313.073
313.077
313.081
313.084
313.087
313.089
313.091
313.093
313.095
313.096
313.098
313.099
313.099
313.1
313.101
313.102
313.102
313.102
313.103
313.103
313.103
313.104
313.104
313.104
313.104
313.104
313.105
313.105
313.105
313.105
313.105
313.105
313.105
313.105
313.105
313.105
313.105
313.105
313.105
313.105
313.105
313.105
313.105
313.105
313.105
313.105
313.106
313.106
313.106
313.106
313.106
313.106
313.106
313.106
313.106
313.106
313.106
313.106
313.106
313.106
313.106
313.106
313.106
313.106
)
;
    }
    procBoundary0to2
    {
        type            processor;
        value           nonuniform List<scalar> 
180
(
1.36591e-05
4.08834e-05
6.78382e-05
9.41031e-05
0.000119252
0.000143064
0.000165295
0.000185746
0.000204269
0.000220765
0.000235188
0.000247542
0.000257878
0.000266288
0.000272901
0.000277868
0.000281356
0.00028354
0.000284586
0.000284646
0.000283837
0.000282236
0.000279871
0.000276708
0.000272652
0.000267538
0.00026113
0.000253122
0.000243145
0.000230763
0.000215488
0.000196782
0.000174067
0.00014673
0.000114126
7.55849e-05
3.04046e-05
-2.21546e-05
-8.28833e-05
-0.000152645
-0.000232404
-0.000323266
-0.000426524
-0.000543714
-0.00067669
-0.000827694
-0.000999449
-0.00119526
-0.0014191
-0.00167579
-0.00197104
-0.00231167
-0.00270573
-0.00316268
-0.00369359
-0.00431134
-0.00503093
-0.00586983
-0.00684829
-0.00798976
-0.00932143
-0.0108748
-0.0126864
-0.0147987
-0.017261
-0.0201308
-0.0234751
-0.027372
-0.031913
-0.0372046
-0.0433719
-0.0505609
-0.0589432
-0.0687191
-0.0801245
-0.0934361
-0.108965
-0.127083
-0.148431
-0.171948
-0.181656
-0.0949998
0.189477
0.71482
1.70662
3.18007
5.63082
8.84877
12.5257
18.0089
25.7404
35.0569
44.5203
54.8199
67.7764
83.7814
104.091
128.988
155.422
185.544
211.84
235.846
263.069
291.473
308.179
312.791
313.276
313.255
313.232
313.214
313.199
313.186
313.175
313.166
313.157
313.15
313.144
313.139
313.134
313.13
313.127
313.124
313.122
313.119
313.118
313.116
313.114
313.113
313.112
313.111
313.11
313.11
313.109
313.109
313.108
313.108
313.107
313.107
313.107
313.107
313.107
313.106
313.106
313.106
313.106
313.106
313.106
313.106
313.106
313.106
313.106
313.106
313.106
313.106
313.106
313.106
313.106
313.106
313.106
313.106
313.106
313.106
313.106
313.106
313.106
313.106
313.106
313.106
313.106
313.106
313.106
313.106
313.106
313.106
313.106
313.106
313.106
313.106
313.106
313.106
)
;
    }
}


// ************************************************************************* //
