/*--------------------------------*- C++ -*----------------------------------*\
| =========                 |                                                 |
| \\      /  F ield         | OpenFOAM: The Open Source CFD Toolbox           |
|  \\    /   O peration     | Version:  5.x                                   |
|   \\  /    A nd           | Web:      www.OpenFOAM.org                      |
|    \\/     M anipulation  |                                                 |
\*---------------------------------------------------------------------------*/
FoamFile
{
    version     2.0;
    format      ascii;
    class       volVectorField;
    location    "900";
    object      stored_U;
}
// * * * * * * * * * * * * * * * * * * * * * * * * * * * * * * * * * * * * * //

dimensions      [0 1 -1 0 0 0 0];

internalField   nonuniform List<vector> 
90
(
(3.76563e-09 -3.75562e-09 -0.00100001)
(6.32898e-09 -6.22363e-09 -0.00100001)
(9.58671e-09 -9.33143e-09 -0.00100001)
(1.33409e-08 -1.28128e-08 -0.00100001)
(1.77292e-08 -1.67205e-08 -0.00100001)
(2.29801e-08 -2.11506e-08 -0.00100001)
(2.93875e-08 -2.61998e-08 -0.00100001)
(3.73249e-08 -3.19578e-08 -0.00100001)
(4.72664e-08 -3.85021e-08 -0.00100001)
(5.98176e-08 -4.58915e-08 -0.001)
(7.57529e-08 -5.41549e-08 -0.000999999)
(9.60655e-08 -6.32748e-08 -0.000999993)
(1.22033e-07 -7.31632e-08 -0.000999984)
(1.55304e-07 -8.36289e-08 -0.00099997)
(1.98009e-07 -9.43333e-08 -0.000999951)
(2.5291e-07 -1.04642e-07 -0.000999924)
(3.23596e-07 -1.1357e-07 -0.000999886)
(4.14745e-07 -1.19617e-07 -0.000999833)
(5.32458e-07 -1.20557e-07 -0.000999758)
(6.84717e-07 -1.13128e-07 -0.000999655)
(8.81967e-07 -9.26269e-08 -0.000999512)
(1.13787e-06 -5.24089e-08 -0.000999315)
(1.47023e-06 1.66875e-08 -0.000999045)
(1.9025e-06 1.2773e-07 -0.000998676)
(2.46531e-06 2.98512e-07 -0.000998174)
(3.19892e-06 5.53795e-07 -0.000997489)
(4.15625e-06 9.27678e-07 -0.00099656)
(5.40676e-06 1.46671e-06 -0.000995302)
(7.04169e-06 2.23422e-06 -0.000993601)
(9.1812e-06 3.31629e-06 -0.000991298)
(1.19844e-05 4.83008e-06 -0.000988181)
(1.56655e-05 6.93626e-06 -0.000984078)
(2.05222e-05 9.8611e-06 -0.000978968)
(2.69602e-05 1.39311e-05 -0.000972019)
(3.5344e-05 1.952e-05 -0.000957707)
(4.41345e-05 2.5803e-05 -0.000930154)
(4.96689e-05 3.05797e-05 -0.000922646)
(4.88678e-05 3.23476e-05 -0.00110444)
(3.56463e-05 2.59537e-05 -0.000299343)
(-8.37547e-05 -5.29718e-05 -0.00210391)
(3.2334e-06 9.85446e-07 -0.00158025)
(3.87454e-05 5.63318e-06 -0.00162162)
(6.22028e-05 3.54715e-05 -0.0028891)
(-6.23571e-07 -3.20462e-06 -0.00152061)
(-6.42508e-05 -5.49629e-05 -0.0027736)
(-5.10308e-05 -2.10338e-05 -0.00200094)
(-5.15185e-05 7.47838e-05 -0.00253079)
(-4.3543e-05 5.39955e-05 -0.00199955)
(-3.97179e-05 1.68603e-05 -0.00268395)
(-4.70929e-05 -4.72206e-05 -0.00162963)
(-7.80434e-05 -5.75955e-05 -0.00276642)
(-2.92848e-05 -3.68885e-05 -0.00112751)
(-6.15909e-05 -4.90921e-05 -0.0020064)
(9.46594e-06 -4.14123e-05 -0.00108754)
(-1.98004e-05 -4.74302e-05 -0.000944377)
(-1.34261e-05 -4.17658e-05 -0.000953515)
(-8.17609e-06 -3.32463e-05 -0.000975205)
(-4.77234e-06 -2.56514e-05 -0.000983072)
(-2.56745e-06 -1.97425e-05 -0.000987707)
(-1.08938e-06 -1.52008e-05 -0.000991175)
(-1.2337e-07 -1.17185e-05 -0.000993782)
(4.81152e-07 -9.04634e-06 -0.000995674)
(8.37367e-07 -6.99168e-06 -0.000997033)
(1.02305e-06 -5.40996e-06 -0.000998012)
(1.09444e-06 -4.19085e-06 -0.000998709)
(1.09146e-06 -3.25019e-06 -0.0009992)
(1.0422e-06 -2.52363e-06 -0.000999542)
(9.66119e-07 -1.96191e-06 -0.000999776)
(8.76509e-07 -1.52723e-06 -0.000999933)
(7.82289e-07 -1.19055e-06 -0.00100003)
(6.89263e-07 -9.29529e-07 -0.00100009)
(6.01025e-07 -7.26937e-07 -0.00100013)
(5.19594e-07 -5.69504e-07 -0.00100014)
(4.4588e-07 -4.46999e-07 -0.00100015)
(3.80282e-07 -3.51544e-07 -0.00100014)
(3.2273e-07 -2.77065e-07 -0.00100013)
(2.72764e-07 -2.18864e-07 -0.00100012)
(2.29732e-07 -1.73308e-07 -0.00100011)
(1.92949e-07 -1.37588e-07 -0.0010001)
(1.61727e-07 -1.09528e-07 -0.00100009)
(1.35401e-07 -8.745e-08 -0.00100008)
(1.13347e-07 -7.00556e-08 -0.00100007)
(9.49938e-08 -5.63437e-08 -0.00100006)
(7.98282e-08 -4.55437e-08 -0.00100005)
(6.73984e-08 -3.70631e-08 -0.00100004)
(5.73053e-08 -3.04452e-08 -0.00100004)
(4.91782e-08 -2.53239e-08 -0.00100003)
(4.26671e-08 -2.13806e-08 -0.00100002)
(3.77291e-08 -1.84561e-08 -0.00100002)
(3.57059e-08 -1.71883e-08 -0.00100001)
)
;

boundaryField
{
    inlet
    {
        type            calculated;
        value           uniform (3.57059e-08 -1.71883e-08 -0.00100001);
    }
    outlet
    {
        type            calculated;
        value           uniform (3.76563e-09 -3.75562e-09 -0.00100001);
    }
    repeat_boundary
    {
        type            calculated;
        value           nonuniform List<vector> 
180
(
(0 -3.75562e-09 -0.00100001)
(0 -6.22363e-09 -0.00100001)
(0 -9.33143e-09 -0.00100001)
(0 -1.28128e-08 -0.00100001)
(0 -1.67205e-08 -0.00100001)
(0 -2.11506e-08 -0.00100001)
(0 -2.61998e-08 -0.00100001)
(0 -3.19578e-08 -0.00100001)
(0 -3.85021e-08 -0.00100001)
(0 -4.58915e-08 -0.001)
(0 -5.41549e-08 -0.000999999)
(0 -6.32748e-08 -0.000999993)
(0 -7.31632e-08 -0.000999984)
(0 -8.36289e-08 -0.00099997)
(0 -9.43333e-08 -0.000999951)
(0 -1.04642e-07 -0.000999924)
(0 -1.1357e-07 -0.000999886)
(0 -1.19617e-07 -0.000999833)
(0 -1.20557e-07 -0.000999758)
(0 -1.13128e-07 -0.000999655)
(0 -9.26269e-08 -0.000999512)
(0 -5.24089e-08 -0.000999315)
(0 1.66875e-08 -0.000999045)
(0 1.2773e-07 -0.000998676)
(0 2.98512e-07 -0.000998174)
(0 5.53795e-07 -0.000997489)
(0 9.27678e-07 -0.00099656)
(0 1.46671e-06 -0.000995302)
(0 2.23422e-06 -0.000993601)
(0 3.31629e-06 -0.000991298)
(0 4.83008e-06 -0.000988181)
(0 6.93626e-06 -0.000984078)
(0 9.8611e-06 -0.000978968)
(0 1.39311e-05 -0.000972019)
(0 1.952e-05 -0.000957707)
(0 2.5803e-05 -0.000930154)
(0 3.05797e-05 -0.000922646)
(0 3.23476e-05 -0.00110444)
(0 2.59537e-05 -0.000299343)
(0 -5.29718e-05 -0.00210391)
(0 9.85446e-07 -0.00158025)
(0 5.63318e-06 -0.00162162)
(0 3.54715e-05 -0.0028891)
(0 -3.20462e-06 -0.00152061)
(0 -5.49629e-05 -0.0027736)
(0 -2.10338e-05 -0.00200094)
(0 7.47838e-05 -0.00253079)
(0 5.39955e-05 -0.00199955)
(0 1.68603e-05 -0.00268395)
(0 -4.72206e-05 -0.00162963)
(0 -5.75955e-05 -0.00276642)
(0 -3.68885e-05 -0.00112751)
(0 -4.90921e-05 -0.0020064)
(0 -4.14123e-05 -0.00108754)
(0 -4.74302e-05 -0.000944377)
(0 -4.17658e-05 -0.000953515)
(0 -3.32463e-05 -0.000975205)
(0 -2.56514e-05 -0.000983072)
(0 -1.97425e-05 -0.000987707)
(0 -1.52008e-05 -0.000991175)
(0 -1.17185e-05 -0.000993782)
(0 -9.04634e-06 -0.000995674)
(0 -6.99168e-06 -0.000997033)
(0 -5.40996e-06 -0.000998012)
(0 -4.19085e-06 -0.000998709)
(0 -3.25019e-06 -0.0009992)
(0 -2.52363e-06 -0.000999542)
(0 -1.96191e-06 -0.000999776)
(0 -1.52723e-06 -0.000999933)
(0 -1.19055e-06 -0.00100003)
(0 -9.29529e-07 -0.00100009)
(0 -7.26937e-07 -0.00100013)
(0 -5.69504e-07 -0.00100014)
(0 -4.46999e-07 -0.00100015)
(0 -3.51544e-07 -0.00100014)
(0 -2.77065e-07 -0.00100013)
(0 -2.18864e-07 -0.00100012)
(0 -1.73308e-07 -0.00100011)
(0 -1.37588e-07 -0.0010001)
(0 -1.09528e-07 -0.00100009)
(0 -8.745e-08 -0.00100008)
(0 -7.00556e-08 -0.00100007)
(0 -5.63437e-08 -0.00100006)
(0 -4.55437e-08 -0.00100005)
(0 -3.70631e-08 -0.00100004)
(0 -3.04452e-08 -0.00100004)
(0 -2.53239e-08 -0.00100003)
(0 -2.13806e-08 -0.00100002)
(0 -1.84561e-08 -0.00100002)
(0 -1.71883e-08 -0.00100001)
(3.76563e-09 0 -0.00100001)
(6.32898e-09 0 -0.00100001)
(9.58671e-09 0 -0.00100001)
(1.33409e-08 0 -0.00100001)
(1.77292e-08 0 -0.00100001)
(2.29801e-08 0 -0.00100001)
(2.93875e-08 0 -0.00100001)
(3.73249e-08 0 -0.00100001)
(4.72664e-08 0 -0.00100001)
(5.98176e-08 0 -0.001)
(7.57529e-08 0 -0.000999999)
(9.60655e-08 0 -0.000999993)
(1.22033e-07 0 -0.000999984)
(1.55304e-07 0 -0.00099997)
(1.98009e-07 0 -0.000999951)
(2.5291e-07 0 -0.000999924)
(3.23596e-07 0 -0.000999886)
(4.14745e-07 0 -0.000999833)
(5.32458e-07 0 -0.000999758)
(6.84717e-07 0 -0.000999655)
(8.81967e-07 0 -0.000999512)
(1.13787e-06 0 -0.000999315)
(1.47023e-06 0 -0.000999045)
(1.9025e-06 0 -0.000998676)
(2.46531e-06 0 -0.000998174)
(3.19892e-06 0 -0.000997489)
(4.15625e-06 0 -0.00099656)
(5.40676e-06 0 -0.000995302)
(7.04169e-06 0 -0.000993601)
(9.1812e-06 0 -0.000991298)
(1.19844e-05 0 -0.000988181)
(1.56655e-05 0 -0.000984078)
(2.05222e-05 0 -0.000978968)
(2.69602e-05 0 -0.000972019)
(3.5344e-05 0 -0.000957707)
(4.41345e-05 0 -0.000930154)
(4.96689e-05 0 -0.000922646)
(4.88678e-05 0 -0.00110444)
(3.56463e-05 0 -0.000299343)
(-8.37547e-05 0 -0.00210391)
(3.2334e-06 0 -0.00158025)
(3.87454e-05 0 -0.00162162)
(6.22028e-05 0 -0.0028891)
(-6.23571e-07 0 -0.00152061)
(-6.42508e-05 0 -0.0027736)
(-5.10308e-05 0 -0.00200094)
(-5.15185e-05 0 -0.00253079)
(-4.3543e-05 0 -0.00199955)
(-3.97179e-05 0 -0.00268395)
(-4.70929e-05 0 -0.00162963)
(-7.80434e-05 0 -0.00276642)
(-2.92848e-05 0 -0.00112751)
(-6.15909e-05 0 -0.0020064)
(9.46594e-06 0 -0.00108754)
(-1.98004e-05 0 -0.000944377)
(-1.34261e-05 0 -0.000953515)
(-8.17609e-06 0 -0.000975205)
(-4.77234e-06 0 -0.000983072)
(-2.56745e-06 0 -0.000987707)
(-1.08938e-06 0 -0.000991175)
(-1.2337e-07 0 -0.000993782)
(4.81152e-07 0 -0.000995674)
(8.37367e-07 0 -0.000997033)
(1.02305e-06 0 -0.000998012)
(1.09444e-06 0 -0.000998709)
(1.09146e-06 0 -0.0009992)
(1.0422e-06 0 -0.000999542)
(9.66119e-07 0 -0.000999776)
(8.76509e-07 0 -0.000999933)
(7.82289e-07 0 -0.00100003)
(6.89263e-07 0 -0.00100009)
(6.01025e-07 0 -0.00100013)
(5.19594e-07 0 -0.00100014)
(4.4588e-07 0 -0.00100015)
(3.80282e-07 0 -0.00100014)
(3.2273e-07 0 -0.00100013)
(2.72764e-07 0 -0.00100012)
(2.29732e-07 0 -0.00100011)
(1.92949e-07 0 -0.0010001)
(1.61727e-07 0 -0.00100009)
(1.35401e-07 0 -0.00100008)
(1.13347e-07 0 -0.00100007)
(9.49938e-08 0 -0.00100006)
(7.98282e-08 0 -0.00100005)
(6.73984e-08 0 -0.00100004)
(5.73053e-08 0 -0.00100004)
(4.91782e-08 0 -0.00100003)
(4.26671e-08 0 -0.00100002)
(3.77291e-08 0 -0.00100002)
(3.57059e-08 0 -0.00100001)
)
;
    }
    procBoundary3to1
    {
        type            processor;
        value           nonuniform List<vector> 
90
(
(1.86699e-09 -3.75559e-09 -0.000999979)
(2.54483e-09 -6.22359e-09 -0.000999977)
(3.50062e-09 -9.3314e-09 -0.000999974)
(4.56297e-09 -1.28127e-08 -0.000999971)
(5.69767e-09 -1.67204e-08 -0.000999966)
(6.88269e-09 -2.11505e-08 -0.00099996)
(8.07546e-09 -2.61996e-08 -0.000999953)
(9.20041e-09 -3.19575e-08 -0.000999944)
(1.01372e-08 -3.85018e-08 -0.000999934)
(1.07061e-08 -4.5891e-08 -0.000999922)
(1.06483e-08 -5.41541e-08 -0.000999909)
(9.59889e-09 -6.32736e-08 -0.000999894)
(7.05041e-09 -7.31613e-08 -0.000999878)
(2.31011e-09 -8.36258e-08 -0.00099986)
(-5.55474e-09 -9.43285e-08 -0.000999842)
(-1.79612e-08 -1.04634e-07 -0.000999823)
(-3.68413e-08 -1.13556e-07 -0.000999807)
(-6.48437e-08 -1.19595e-07 -0.000999794)
(-1.05598e-07 -1.20519e-07 -0.000999789)
(-1.64072e-07 -1.13063e-07 -0.000999795)
(-2.47045e-07 -9.25109e-08 -0.00099982)
(-3.63714e-07 -5.22022e-08 -0.000999873)
(-5.26461e-07 1.7059e-08 -0.000999968)
(-7.52165e-07 1.28402e-07 -0.00100012)
(-1.06347e-06 2.99734e-07 -0.00100036)
(-1.49102e-06 5.56024e-07 -0.00100073)
(-2.07614e-06 9.3175e-07 -0.00100127)
(-2.87445e-06 1.47415e-06 -0.00100205)
(-3.96075e-06 2.24778e-06 -0.00100317)
(-5.43575e-06 3.34081e-06 -0.00100474)
(-7.43512e-06 4.87377e-06 -0.00100693)
(-1.01434e-05 7.01335e-06 -0.00101008)
(-1.38291e-05 1.00033e-05 -0.00101496)
(-1.89249e-05 1.42294e-05 -0.00102179)
(-2.59235e-05 2.01491e-05 -0.00102503)
(-3.19064e-05 2.55085e-05 -0.00101755)
(-3.67244e-05 3.13679e-05 -0.00105102)
(-3.28168e-05 3.13579e-05 -0.00128603)
(-2.41213e-05 2.27981e-05 -0.00036874)
(8.99516e-05 -5.15027e-05 -0.00259664)
(-3.63545e-06 9.44486e-08 -0.00119158)
(-6.68646e-05 1.84037e-05 -0.00305144)
(-2.51558e-05 1.58648e-05 -0.00180937)
(-8.88836e-05 2.33751e-05 -0.00332501)
(-7.41753e-05 -4.94788e-05 -0.00215444)
(-8.79852e-05 -1.81559e-05 -0.00331448)
(-5.58372e-05 3.3878e-05 -0.00195651)
(-2.51631e-05 0.00012914 -0.00332854)
(1.22019e-05 2.16222e-05 -0.00232752)
(-5.54544e-05 -4.23948e-05 -0.00275321)
(-4.27279e-05 -5.63268e-05 -0.0026486)
(-1.43198e-05 -2.62166e-05 -0.00168038)
(-3.56168e-06 1.14832e-05 -0.0024696)
(7.28684e-05 -3.73467e-05 -0.00107494)
(7.66693e-05 -4.88122e-05 -0.00106775)
(6.26599e-05 -4.19942e-05 -0.00108207)
(4.82669e-05 -3.24616e-05 -0.00106803)
(3.78031e-05 -2.51104e-05 -0.00105265)
(2.96859e-05 -1.94201e-05 -0.001041)
(2.33312e-05 -1.50134e-05 -0.00103218)
(1.83557e-05 -1.16101e-05 -0.00102532)
(1.44584e-05 -8.98379e-06 -0.00101995)
(1.14031e-05 -6.95561e-06 -0.00101574)
(9.00524e-06 -5.38917e-06 -0.00101243)
(7.12114e-06 -4.17888e-06 -0.00100984)
(5.6389e-06 -3.2433e-06 -0.00100779)
(4.4713e-06 -2.51966e-06 -0.00100618)
(3.55033e-06 -1.95962e-06 -0.00100491)
(2.82294e-06 -1.52591e-06 -0.00100391)
(2.24766e-06 -1.18979e-06 -0.00100311)
(1.79209e-06 -9.29085e-07 -0.00100248)
(1.43084e-06 -7.26679e-07 -0.00100198)
(1.14409e-06 -5.69353e-07 -0.00100159)
(9.16281e-07 -4.46911e-07 -0.00100127)
(7.35021e-07 -3.51493e-07 -0.00100102)
(5.9052e-07 -2.77034e-07 -0.00100082)
(4.7516e-07 -2.18846e-07 -0.00100066)
(3.82974e-07 -1.73298e-07 -0.00100053)
(3.09226e-07 -1.37581e-07 -0.00100043)
(2.50165e-07 -1.09524e-07 -0.00100034)
(2.02826e-07 -8.74478e-08 -0.00100028)
(1.6487e-07 -7.00543e-08 -0.00100023)
(1.3445e-07 -5.6343e-08 -0.00100018)
(1.10106e-07 -4.55433e-08 -0.00100015)
(9.06906e-08 -3.70629e-08 -0.00100012)
(7.52884e-08 -3.04458e-08 -0.0010001)
(6.31447e-08 -2.53266e-08 -0.00100008)
(5.36222e-08 -2.13905e-08 -0.00100006)
(4.64678e-08 -1.84442e-08 -0.00100004)
(4.35559e-08 -1.71858e-08 -0.00100003)
)
;
    }
    procBoundary3to2
    {
        type            processor;
        value           nonuniform List<vector> 
90
(
(3.76587e-09 -5.65447e-09 -0.00100004)
(6.32895e-09 -1.00078e-08 -0.00100004)
(9.58636e-09 -1.54172e-08 -0.00100005)
(1.33407e-08 -2.15905e-08 -0.00100005)
(1.77292e-08 -2.8752e-08 -0.00100006)
(2.29804e-08 -3.72483e-08 -0.00100007)
(2.93881e-08 -4.75125e-08 -0.00100008)
(3.73255e-08 -6.00829e-08 -0.0010001)
(4.72672e-08 -7.56323e-08 -0.00100012)
(5.98188e-08 -9.50045e-08 -0.00100015)
(7.57549e-08 -1.19262e-07 -0.00100019)
(9.60688e-08 -1.49745e-07 -0.00100023)
(1.22038e-07 -1.88152e-07 -0.00100029)
(1.55312e-07 -2.36632e-07 -0.00100036)
(1.98023e-07 -2.97912e-07 -0.00100046)
(2.52933e-07 -3.75538e-07 -0.00100057)
(3.23635e-07 -4.74047e-07 -0.00100072)
(4.14809e-07 -5.99269e-07 -0.00100091)
(5.32566e-07 -7.58715e-07 -0.00100116)
(6.84897e-07 -9.62079e-07 -0.00100146)
(8.82272e-07 -1.22189e-06 -0.00100186)
(1.13838e-06 -1.5544e-06 -0.00100236)
(1.4711e-06 -1.98064e-06 -0.001003)
(1.904e-06 -2.52797e-06 -0.00100383)
(2.46791e-06 -3.23194e-06 -0.00100489)
(3.20344e-06 -4.13888e-06 -0.00100625)
(4.16413e-06 -5.3092e-06 -0.001008)
(5.42052e-06 -6.82185e-06 -0.00101027)
(7.06568e-06 -8.78021e-06 -0.00101319)
(9.22263e-06 -1.13199e-05 -0.00101696)
(1.20541e-05 -1.46189e-05 -0.00102183)
(1.57762e-05 -1.89108e-05 -0.00102824)
(2.06886e-05 -2.45182e-05 -0.00103714)
(2.72521e-05 -3.19465e-05 -0.00104887)
(3.60569e-05 -4.1831e-05 -0.00105789)
(4.37678e-05 -5.01975e-05 -0.00105453)
(4.98799e-05 -5.52016e-05 -0.00109997)
(4.5704e-05 -4.70619e-05 -0.00135527)
(2.85663e-05 -2.94673e-05 -0.000377116)
(-8.13861e-05 0.000119606 -0.00276908)
(1.95837e-06 -6.60152e-06 -0.00130801)
(6.41262e-05 -0.000110223 -0.00293964)
(5.3093e-05 -5.92015e-05 -0.00231767)
(8.09823e-06 -7.50211e-05 -0.00316393)
(-5.70169e-05 -7.34895e-05 -0.00216177)
(-7.37022e-05 -4.37441e-05 -0.00320976)
(-4.62358e-05 3.58202e-05 -0.00224403)
(-6.39526e-05 0.000155354 -0.00334897)
(-3.21298e-05 3.15028e-05 -0.00180175)
(-8.27939e-05 -1.80603e-05 -0.00331907)
(-5.83458e-05 -3.32633e-05 -0.00204837)
(-6.84966e-05 -2.72246e-05 -0.00208096)
(-2.20316e-05 3.66585e-05 -0.00202821)
(4.22972e-05 8.11712e-05 -0.00149917)
(-1.20517e-05 5.68926e-05 -0.000903164)
(-1.29253e-05 3.60659e-05 -0.00102588)
(-7.94183e-06 2.38966e-05 -0.00102032)
(-4.62094e-06 1.73647e-05 -0.00101152)
(-2.48203e-06 1.27852e-05 -0.00100657)
(-1.04441e-06 9.38755e-06 -0.00100374)
(-1.00162e-07 6.86244e-06 -0.00100187)
(4.93062e-07 4.9924e-06 -0.00100063)
(8.43488e-07 3.61086e-06 -0.000999828)
(1.02622e-06 2.59418e-06 -0.000999335)
(1.09609e-06 1.84893e-06 -0.000999058)
(1.09235e-06 1.30503e-06 -0.000998926)
(1.0427e-06 9.10094e-07 -0.000998891)
(9.66407e-07 6.25066e-07 -0.000998917)
(8.76688e-07 4.20845e-07 -0.00099898)
(7.82407e-07 2.75799e-07 -0.000999064)
(6.89344e-07 1.73879e-07 -0.000999157)
(6.01083e-07 1.03231e-07 -0.000999251)
(5.19636e-07 5.5198e-08 -0.000999342)
(4.45911e-07 2.3527e-08 -0.000999427)
(3.80304e-07 3.26975e-09 -0.000999506)
(3.22746e-07 -9.22945e-09 -0.000999578)
(2.72775e-07 -1.64404e-08 -0.000999642)
(2.29741e-07 -2.00498e-08 -0.000999698)
(1.92955e-07 -2.13005e-08 -0.000999748)
(1.61731e-07 -2.10842e-08 -0.000999791)
(1.35404e-07 -2.00215e-08 -0.000999828)
(1.13349e-07 -1.85307e-08 -0.000999859)
(9.49951e-08 -1.68868e-08 -0.000999886)
(7.98291e-08 -1.52649e-08 -0.000999909)
(6.73995e-08 -1.37709e-08 -0.000999928)
(5.73071e-08 -1.24638e-08 -0.000999943)
(4.91834e-08 -1.13648e-08 -0.000999956)
(4.26851e-08 -1.04533e-08 -0.000999966)
(3.7708e-08 -9.68467e-09 -0.000999977)
(3.57014e-08 -9.33159e-09 -0.000999983)
)
;
    }
}


// ************************************************************************* //
