/*--------------------------------*- C++ -*----------------------------------*\
  =========                 |
  \\      /  F ield         | OpenFOAM: The Open Source CFD Toolbox
   \\    /   O peration     | Website:  https://openfoam.org
    \\  /    A nd           | Version:  9
     \\/     M anipulation  |
\*---------------------------------------------------------------------------*/
FoamFile
{
    format      ascii;
    class       surfaceScalarField;
    location    "4000";
    object      phi;
}
// * * * * * * * * * * * * * * * * * * * * * * * * * * * * * * * * * * * * * //

dimensions      [0 3 -1 0 0 0 0];

internalField   nonuniform List<scalar> 
1436
(
2.56377e-06
0.000283043
-250.021
0.000261725
-250.019
-1.81823e-05
-249.976
-249.978
1.16573e-05
0.000420984
-250.021
0.0003838
-250.02
-2.46117e-05
-249.975
-249.977
2.21184e-05
0.00062783
-250.022
0.000570745
-250.02
-3.3346e-05
-249.975
-249.977
3.26282e-05
0.000866353
-250.023
0.000786814
-250.021
-4.45162e-05
-249.974
-249.976
4.32578e-05
0.00112218
-250.024
0.00101864
-250.022
-5.72835e-05
-249.973
-249.975
5.44007e-05
0.00139218
-250.025
0.00126305
-250.023
-7.12679e-05
-249.971
-249.974
6.63724e-05
0.00167753
-250.027
0.0015209
-250.025
-8.64331e-05
-249.97
-249.972
7.94205e-05
0.00198083
-250.029
0.00179439
-250.027
-0.000102939
-249.967
-249.971
9.37724e-05
0.00230525
-250.031
0.00208618
-250.029
-0.000121028
-249.965
-249.969
0.00010967
0.00265426
-250.034
0.00239916
-250.031
-0.000140987
-249.962
-249.966
0.000127389
0.00303164
-250.037
0.00273645
-250.034
-0.000163144
-249.959
-249.964
0.000147244
0.00344147
-250.041
0.0031014
-250.037
-0.000187869
-249.956
-249.961
0.000169604
0.00388822
-250.045
0.00349759
-250.04
-0.00021558
-249.952
-249.958
0.000194903
0.00437675
-250.049
0.00392893
-250.044
-0.000246758
-249.947
-249.954
0.000223661
0.0049124
-250.054
0.00439962
-250.048
-0.000281958
-249.942
-249.95
0.000256515
0.00550107
-250.06
0.00491425
-250.053
-0.000321818
-249.936
-249.945
0.000294302
0.00614921
-250.066
0.00547781
-250.058
-0.000367077
-249.93
-249.94
0.000337914
0.00686398
-250.074
0.00609571
-250.064
-0.000418589
-249.923
-249.934
0.000388321
0.00765328
-250.082
0.0067739
-250.071
-0.000477334
-249.915
-249.928
0.000446646
0.00852589
-250.091
0.00751883
-250.078
-0.00054445
-249.906
-249.921
0.000514194
0.00949151
-250.1
0.00833758
-250.086
-0.000621248
-249.896
-249.913
0.000592489
0.0105609
-250.112
0.00923786
-250.095
-0.000709239
-249.885
-249.904
0.000683305
0.0117461
-250.124
0.0102281
-250.104
-0.000810163
-249.872
-249.895
0.000788711
0.0130604
-250.138
0.0113176
-250.115
-0.000926042
-249.858
-249.884
0.000911111
0.0145187
-250.153
0.0125163
-250.126
-0.00105921
-249.843
-249.873
0.0010533
0.0161374
-250.17
0.0138353
-250.139
-0.00121235
-249.826
-249.86
0.00121851
0.0179349
-250.189
0.0152867
-250.153
-0.00138853
-249.806
-249.846
0.00141049
0.0199318
-250.211
0.0168835
-250.169
-0.00159129
-249.785
-249.831
0.00163356
0.0221509
-250.234
0.0186401
-250.186
-0.00182471
-249.761
-249.814
0.00189261
0.0246176
-250.261
0.0205723
-250.205
-0.00209352
-249.734
-249.796
0.00219344
0.0273605
-250.29
0.022697
-250.225
-0.00240316
-249.704
-249.775
0.00254271
0.0304112
-250.323
0.0250329
-250.248
-0.0027599
-249.671
-249.753
0.00294817
0.0338052
-250.36
0.0276002
-250.272
-0.00317096
-249.634
-249.728
0.00341877
0.037582
-250.401
0.0304212
-250.299
-0.00364463
-249.593
-249.702
0.00396483
0.0417859
-250.447
0.0335197
-250.329
-0.00419048
-249.547
-249.672
0.00459833
0.0464661
-250.498
0.0369218
-250.361
-0.00481951
-249.496
-249.64
0.00533304
0.0516779
-250.555
0.040656
-250.397
-0.00554436
-249.439
-249.605
0.00618491
0.057483
-250.618
0.0447529
-250.435
-0.00637959
-249.375
-249.567
0.00717235
0.0639502
-250.69
0.0492457
-250.477
-0.00734194
-249.303
-249.525
0.00831664
0.0711569
-250.769
0.0541703
-250.523
-0.00845065
-249.224
-249.479
0.00964243
0.0791892
-250.858
0.0595656
-250.573
-0.00972783
-249.135
-249.429
0.0111781
0.088144
-250.957
0.0654732
-250.627
-0.011199
-249.035
-249.375
0.0129565
0.0981295
-251.068
0.0719379
-250.686
-0.0128936
-248.924
-249.316
0.0150156
0.109267
-251.192
0.0790075
-250.75
-0.0148453
-248.8
-249.251
0.0173993
0.121692
-251.331
0.0867343
-250.819
-0.0170932
-248.661
-249.182
0.0201583
0.135558
-251.487
0.0951764
-250.894
-0.0196822
-248.506
-249.106
0.0233513
0.151036
-251.661
0.104394
-250.975
-0.0226638
-248.332
-249.024
0.0270458
0.168317
-251.857
0.114453
-251.062
-0.0260978
-248.137
-248.936
0.0313204
0.187617
-252.076
0.12542
-251.156
-0.0300527
-247.919
-248.841
0.0362653
0.209178
-252.321
0.137369
-251.257
-0.0346077
-247.676
-248.738
0.0419852
0.233272
-252.596
0.150375
-251.365
-0.0398537
-247.402
-248.627
0.0486008
0.260204
-252.905
0.164521
-251.481
-0.0458959
-247.096
-248.509
0.0562516
0.290318
-253.252
0.179889
-251.605
-0.052855
-246.753
-248.382
0.0650991
0.324001
-253.641
0.196569
-251.736
-0.0608705
-246.368
-248.246
0.0753294
0.361689
-254.078
0.214651
-251.875
-0.0701027
-245.936
-248.101
0.087158
0.403874
-254.569
0.234227
-252.022
-0.0807366
-245.451
-247.948
0.100833
0.451108
-255.121
0.255392
-252.177
-0.0929852
-244.907
-247.785
0.116643
0.504014
-255.741
0.278238
-252.338
-0.107094
-244.296
-247.614
0.134919
0.563296
-256.439
0.302857
-252.506
-0.123347
-243.609
-247.435
0.156046
0.629747
-257.225
0.329333
-252.679
-0.142073
-242.837
-247.247
0.180466
0.704263
-258.11
0.357742
-252.856
-0.163647
-241.969
-247.053
0.208693
0.787859
-259.106
0.388147
-253.036
-0.188507
-240.992
-246.854
0.241322
0.88168
-260.229
0.420592
-253.215
-0.217152
-239.893
-246.65
0.279037
0.98702
-261.495
0.455094
-253.39
-0.250167
-238.656
-246.445
0.322635
1.10534
-262.923
0.49164
-253.559
-0.28823
-237.262
-246.242
0.373036
1.23831
-264.535
0.530169
-253.716
-0.332125
-235.692
-246.044
0.431306
1.38779
-266.354
0.570567
-253.855
-0.382755
-233.921
-245.856
0.49868
1.55593
-268.409
0.61265
-253.969
-0.441169
-231.924
-245.684
0.576593
1.74513
-270.73
0.656157
-254.049
-0.508586
-229.67
-245.537
0.666707
1.95813
-273.355
0.700736
-254.083
-0.586419
-227.125
-245.423
0.770953
2.19805
-276.325
0.745955
-254.057
-0.67631
-224.251
-245.353
0.891566
2.46841
-279.685
0.791328
-253.957
-0.780153
-221.002
-245.342
1.03113
2.77306
-283.489
0.834778
-253.76
-0.900079
-217.329
-245.408
1.19246
3.11574
-287.797
0.875263
-253.443
-1.03817
-213.174
-245.571
1.37796
3.49766
-292.673
0.911095
-252.976
-1.19545
-208.481
-245.855
1.58694
3.90972
-298.17
0.937502
-252.326
-1.36841
-203.202
-246.286
1.80665
4.31016
-304.286
0.944361
-251.463
-1.53688
-197.355
-246.879
1.99673
4.57503
-310.86
0.912278
-250.379
-1.64409
-191.136
-247.611
2.05462
4.42193
-317.336
0.804838
-249.129
-1.53728
-185.176
-248.344
1.79204
3.37618
-322.504
0.582443
-247.919
-0.999823
-180.801
-248.761
0.277935
0.252074
-323.034
-0.12774
-247.513
-0.0426543
-180.506
-248.932
0.00657556
0.0566964
-323.098
0.0722751
-247.579
0.0574137
-180.507
-248.802
-6.06887
3.27821
-320.307
8.79287
-262.44
0.308118
-177.537
-239.701
-1.06491
0.251152
-319.493
1.27602
-264.781
0.131483
-177.417
-238.294
-4.24562
-3.34359
-311.904
-0.785449
-268.242
-2.1711
-178.59
-241.25
-2.51608
0.0470531
-309.434
0.633279
-271.391
0.349697
-178.892
-240.267
-5.99405
-5.69874
-297.742
0.104034
-277.489
-0.749637
-183.841
-240.913
-10.1784
-3.21393
-284.349
-5.80874
-281.859
-4.91023
-182.145
-251.632
-0.389184
1.94408
-285.905
-0.996923
-281.251
-8.22242
-171.979
-260.851
7.83476
2.90079
-296.64
-7.78178
-265.635
-0.130604
-168.947
-268.763
1.46609
0.748112
-298.854
-6.41891
-257.75
-2.95186
-165.247
-278.134
10.4863
-4.39318
-304.948
-6.32887
-240.934
1.58739
-171.227
-282.876
1.68425
-1.03465
-305.597
-2.14912
-237.101
0.61981
-172.882
-284.405
5.27283
-3.35602
-307.513
-8.36897
-223.459
-3.83338
-172.405
-296.607
0.456521
-1.31681
-306.653
-7.54522
-215.457
-2.06858
-171.653
-306.221
0.43043
-3.06399
-304.019
-2.35907
-212.668
-0.899531
-173.818
-309.48
5.59881
-1.27264
-308.345
-16.0135
-191.056
-1.40083
-173.689
-326.894
1.5457
-1.98672
-307.904
-0.0400749
-189.47
-0.332987
-175.343
-327.268
0.486927
-0.385336
-308.006
-3.32255
-185.661
-4.18737
-171.542
-334.777
-1.79935
-1.08328
-305.123
0.409604
-187.87
0.463678
-173.089
-333.904
-2.09365
-1.8572
-301.172
5.83446
-195.798
5.29554
-180.241
-322.775
-2.07429
-2.02522
-297.074
1.83769
-199.709
1.54119
-183.807
-319.395
-3.27527
-4.99254
-288.806
0.374368
-203.359
0.395795
-189.196
-318.625
-1.19661
-3.32707
-284.282
1.46264
-206.019
2.10831
-194.631
-315.053
-0.470995
-1.53825
-282.274
1.9537
-208.444
2.80392
-198.974
-310.297
-1.50218
-2.1078
-278.664
2.33643
-212.283
3.54133
-204.624
-304.418
-1.79374
-2.17245
-274.698
2.62277
-216.7
3.45424
-210.251
-298.342
-1.67424
-1.9829
-271.041
2.59365
-220.969
3.12994
-215.365
-292.618
-1.45782
-1.73636
-267.847
2.37794
-224.805
2.76841
-219.87
-287.472
-1.24859
-1.50134
-265.097
2.11321
-228.167
2.43244
-223.804
-282.926
-1.06447
-1.29168
-262.741
1.85836
-231.09
2.1346
-227.231
-278.934
-0.905273
-1.10821
-260.727
1.62956
-233.625
1.87316
-230.212
-275.431
-0.768495
-0.949168
-259.01
1.42818
-235.822
1.64399
-232.806
-272.359
-0.651343
-0.811908
-257.547
1.25182
-237.726
1.44313
-235.061
-269.664
-0.551146
-0.693555
-256.302
1.09752
-239.375
1.26708
-237.022
-267.3
-0.465538
-0.591664
-255.245
0.962508
-240.803
1.11276
-238.727
-265.225
-0.392471
-0.504061
-254.349
0.844349
-242.04
0.977464
-240.209
-263.403
-0.330178
-0.428805
-253.59
0.740918
-243.112
0.858829
-241.497
-261.804
-0.277136
-0.364213
-252.949
0.650361
-244.04
0.754785
-242.616
-260.399
-0.232032
-0.308826
-252.408
0.571058
-244.843
0.663521
-243.589
-259.164
-0.193732
-0.261377
-251.953
0.501595
-245.538
0.583451
-244.434
-258.079
-0.161259
-0.220771
-251.571
0.440735
-246.141
0.513187
-245.168
-257.125
-0.133772
-0.18606
-251.251
0.387399
-246.662
0.451515
-245.805
-256.286
-0.110547
-0.156421
-250.984
0.340645
-247.113
0.397371
-246.359
-255.548
-0.0909595
-0.131146
-250.762
0.299647
-247.504
0.349827
-246.84
-254.899
-0.0744685
-0.10962
-250.578
0.263688
-247.842
0.308066
-247.258
-254.327
-0.0606034
-0.0913141
-250.426
0.232137
-248.135
0.271375
-247.621
-253.823
-0.0488041
-0.0757701
-250.301
0.204445
-248.388
0.239132
-247.935
-253.38
-0.0388625
-0.0625935
-250.199
0.180131
-248.607
0.210788
-248.209
-252.989
-0.0305899
-0.051443
-250.117
0.158774
-248.796
0.185865
-248.446
-252.644
-0.023739
-0.0420265
-250.051
0.140008
-248.96
0.163944
-248.652
-252.34
-0.018105
-0.0340916
-249.999
0.123513
-249.101
0.144658
-248.831
-252.072
-0.0135254
-0.0274203
-249.958
0.109009
-249.224
0.127684
-248.986
-251.835
-0.00975916
-0.0218242
-249.926
0.0962526
-249.33
0.112743
-249.12
-251.626
-0.00651545
-0.0171414
-249.903
0.0850286
-249.421
0.0995849
-249.237
-251.441
-0.00384507
-0.0132395
-249.885
0.0751488
-249.5
0.087995
-249.338
-251.278
-0.00162568
-0.0100299
-249.874
0.0664477
-249.568
0.0777831
-249.426
-251.134
0.000203578
-0.00733189
-249.866
0.0587802
-249.627
0.0687826
-249.502
-251.006
0.00172043
-0.00504117
-249.863
0.0520185
-249.677
0.060847
-249.568
-250.893
0.00250568
-0.00311016
-249.862
0.0460501
-249.721
0.0538472
-249.625
-250.793
0.00288082
-0.00151016
-249.863
0.0407802
-249.759
0.0476692
-249.674
-250.704
0.00313668
-0.00031646
-249.866
0.0361274
-249.792
0.0422124
-249.717
-250.626
0.00349318
0.000444356
-249.87
0.0320203
-249.82
0.0373891
-249.754
-250.556
0.00378017
0.00104393
-249.874
0.028394
-249.845
0.0331241
-249.786
-250.494
0.00397267
0.00129448
-249.88
0.025191
-249.866
0.0293511
-249.814
-250.44
0.00407827
0.00152062
-249.885
0.0223608
-249.884
0.026014
-249.838
-250.391
0.00411002
0.00171619
-249.891
0.0198587
-249.9
0.0230622
-249.86
-250.348
0.00407987
0.00185858
-249.896
0.0176457
-249.914
0.0204508
-249.878
-250.31
0.00400223
0.00196137
-249.902
0.0156875
-249.925
0.0181402
-249.894
-250.276
0.00388888
0.00202954
-249.908
0.0139539
-249.935
0.0160956
-249.909
-250.246
0.00374926
0.00206742
-249.914
0.0124185
-249.944
0.014286
-249.921
-250.219
0.00359102
0.00207935
-249.919
0.0110579
-249.952
0.0126842
-249.931
-250.195
0.00342036
0.0020694
-249.925
0.0098517
-249.958
0.0112662
-249.941
-250.174
0.00324228
0.00204136
-249.93
0.00878194
-249.964
0.0100107
-249.949
-250.155
0.00306082
0.00199861
-249.935
0.00783276
-249.969
0.00889878
-249.956
-250.138
0.00287919
0.00194416
-249.94
0.00699026
-249.973
0.00791398
-249.962
-250.123
0.00269993
0.00188069
-249.944
0.00624217
-249.977
0.00704162
-249.967
-250.11
0.002525
0.00181047
-249.949
0.00557773
-249.98
0.00626876
-249.972
-250.098
0.00235593
0.00173537
-249.953
0.00498743
-249.982
0.00558398
-249.976
-250.088
0.00219382
0.00165696
-249.957
0.00446291
-249.985
0.00497721
-249.979
-250.078
0.00203947
0.0015767
-249.96
0.00399679
-249.987
0.00443957
-249.982
-250.07
0.00189342
0.00149574
-249.964
0.00358259
-249.989
0.00396323
-249.984
-250.062
0.001756
0.00141521
-249.967
0.00321456
-249.99
0.00354127
-249.987
-250.055
0.00162737
0.00133605
-249.97
0.00288766
-249.991
0.00316762
-249.989
-250.049
0.00150756
0.00125889
-249.973
0.00259743
-249.993
0.00283691
-249.99
-250.044
0.00139649
0.00118436
-249.975
0.00233993
-249.994
0.00254443
-249.992
-250.039
0.001294
0.00111308
-249.977
0.0021117
-249.994
0.00228603
-249.993
-250.035
0.0011999
0.00104555
-249.98
0.00190966
-249.995
0.00205805
-249.994
-250.031
0.00111394
0.000982108
-249.982
0.00173112
-249.996
0.00185728
-249.995
-250.027
0.00103587
0.000923011
-249.984
0.00157371
-249.996
0.00168092
-249.996
-250.024
0.000965397
0.00086843
-249.986
0.00143532
-249.997
0.00152651
-249.996
-250.021
0.000902269
0.000818476
-249.987
0.00131414
-249.997
0.00139188
-249.997
-250.018
0.000846222
0.000773211
-249.989
0.00120856
-249.998
0.00127517
-249.997
-250.016
0.000797006
0.000732654
-249.99
0.0011172
-249.998
0.00117478
-249.998
-250.013
0.00075438
0.000696787
-249.992
0.00103886
-249.998
0.00108932
-249.998
-250.011
0.000718101
0.000665536
-249.993
0.000972536
-249.999
0.00101764
-249.999
-250.009
0.000687896
0.000638727
-249.995
0.000917343
-249.999
0.000958801
-249.999
-250.007
0.000663809
0.000616431
-249.996
0.000872218
-249.999
0.000911713
-249.999
-250.006
0.000644582
0.000597767
-249.997
0.000838243
-249.999
0.00087718
-249.999
-250.004
0.000640477
0.000590744
0.000831251
0.000872223
)
;

boundaryField
{
    inlet
    {
        type            calculated;
        value           nonuniform List<scalar> 4(-249.998 -250 -249.999 -250.002);
    }
    outlet
    {
        type            calculated;
        value           nonuniform List<scalar> 4(250.021 249.976 250.019 249.978);
    }
    repeat_boundary
    {
        type            calculated;
        value           uniform 0;
    }
}


// ************************************************************************* //
