/*--------------------------------*- C++ -*----------------------------------*\
  =========                 |
  \\      /  F ield         | OpenFOAM: The Open Source CFD Toolbox
   \\    /   O peration     | Website:  https://openfoam.org
    \\  /    A nd           | Version:  9
     \\/     M anipulation  |
\*---------------------------------------------------------------------------*/
FoamFile
{
    format      ascii;
    class       volVectorField;
    location    "4000";
    object      stored_U;
}
// * * * * * * * * * * * * * * * * * * * * * * * * * * * * * * * * * * * * * //

dimensions      [0 1 -1 0 0 0 0];

internalField   nonuniform List<vector> 
720
(
(3.98032e-11 1.05483e-08 -0.00100009)
(3.98029e-11 9.87042e-09 -0.00100008)
(-6.38053e-10 1.05482e-08 -0.000999909)
(-6.38053e-10 9.87039e-09 -0.000999918)
(3.11337e-10 1.55433e-08 -0.00100009)
(3.11337e-10 1.44083e-08 -0.00100008)
(-8.23698e-10 1.55433e-08 -0.000999908)
(-8.23698e-10 1.44082e-08 -0.000999917)
(6.55532e-10 2.31388e-08 -0.00100009)
(6.55532e-10 2.13659e-08 -0.00100008)
(-1.1173e-09 2.31387e-08 -0.000999906)
(-1.1173e-09 2.13659e-08 -0.000999915)
(9.96633e-10 3.1935e-08 -0.00100009)
(9.96633e-10 2.94413e-08 -0.00100009)
(-1.49708e-09 3.19349e-08 -0.000999903)
(-1.49708e-09 2.94412e-08 -0.000999912)
(1.33487e-09 4.13779e-08 -0.0010001)
(1.33486e-09 3.81104e-08 -0.00100009)
(-1.93265e-09 4.13778e-08 -0.000999899)
(-1.93265e-09 3.81103e-08 -0.000999909)
(1.68446e-09 5.13456e-08 -0.0010001)
(1.68446e-09 4.72538e-08 -0.0010001)
(-2.40726e-09 5.13455e-08 -0.000999894)
(-2.40727e-09 4.72538e-08 -0.000999904)
(2.05728e-09 6.1882e-08 -0.00100011)
(2.05728e-09 5.69051e-08 -0.0010001)
(-2.91955e-09 6.18819e-08 -0.000999888)
(-2.91955e-09 5.69051e-08 -0.000999899)
(2.46279e-09 7.30858e-08 -0.00100012)
(2.46279e-09 6.71472e-08 -0.00100011)
(-3.47585e-09 7.30857e-08 -0.000999881)
(-3.47585e-09 6.71471e-08 -0.000999893)
(2.91028e-09 8.50761e-08 -0.00100012)
(2.91028e-09 7.80798e-08 -0.00100012)
(-4.086e-09 8.5076e-08 -0.000999872)
(-4.086e-09 7.80797e-08 -0.000999885)
(3.41006e-09 9.79837e-08 -0.00100013)
(3.41006e-09 8.98116e-08 -0.00100012)
(-4.76203e-09 9.79836e-08 -0.000999862)
(-4.76203e-09 8.98115e-08 -0.000999877)
(3.97403e-09 1.11951e-07 -0.00100015)
(3.97403e-09 1.02459e-07 -0.00100013)
(-5.51795e-09 1.11951e-07 -0.000999851)
(-5.51795e-09 1.02459e-07 -0.000999867)
(4.61592e-09 1.27133e-07 -0.00100016)
(4.61591e-09 1.16147e-07 -0.00100015)
(-6.36991e-09 1.27132e-07 -0.000999838)
(-6.36992e-09 1.16147e-07 -0.000999856)
(5.3515e-09 1.43697e-07 -0.00100017)
(5.35149e-09 1.31009e-07 -0.00100016)
(-7.33642e-09 1.43697e-07 -0.000999823)
(-7.33642e-09 1.31009e-07 -0.000999844)
(6.19884e-09 1.61829e-07 -0.00100019)
(6.19884e-09 1.47192e-07 -0.00100017)
(-8.43858e-09 1.61829e-07 -0.000999806)
(-8.43858e-09 1.47192e-07 -0.00099983)
(7.17862e-09 1.81731e-07 -0.00100021)
(7.17861e-09 1.64852e-07 -0.00100019)
(-9.70045e-09 1.81731e-07 -0.000999786)
(-9.70046e-09 1.64852e-07 -0.000999814)
(8.31439e-09 2.03625e-07 -0.00100023)
(8.31438e-09 1.84161e-07 -0.00100021)
(-1.11494e-08 2.03624e-07 -0.000999765)
(-1.11494e-08 1.84161e-07 -0.000999797)
(9.63306e-09 2.27756e-07 -0.00100026)
(9.63306e-09 2.05306e-07 -0.00100023)
(-1.28166e-08 2.27755e-07 -0.000999741)
(-1.28166e-08 2.05306e-07 -0.000999777)
(1.11655e-08 2.54394e-07 -0.00100028)
(1.11654e-08 2.28491e-07 -0.00100025)
(-1.47374e-08 2.54393e-07 -0.000999714)
(-1.47374e-08 2.2849e-07 -0.000999756)
(1.29469e-08 2.83838e-07 -0.00100031)
(1.29469e-08 2.53939e-07 -0.00100027)
(-1.69522e-08 2.83837e-07 -0.000999683)
(-1.69522e-08 2.53938e-07 -0.000999732)
(1.50178e-08 3.16418e-07 -0.00100035)
(1.50178e-08 2.81893e-07 -0.0010003)
(-1.95069e-08 3.16417e-07 -0.000999649)
(-1.9507e-08 2.81893e-07 -0.000999705)
(1.7425e-08 3.52502e-07 -0.00100038)
(1.74249e-08 3.12622e-07 -0.00100033)
(-2.24544e-08 3.525e-07 -0.000999611)
(-2.24544e-08 3.12621e-07 -0.000999676)
(2.02219e-08 3.92494e-07 -0.00100042)
(2.02219e-08 3.46417e-07 -0.00100036)
(-2.58547e-08 3.92492e-07 -0.000999569)
(-2.58548e-08 3.46416e-07 -0.000999644)
(2.34706e-08 4.36847e-07 -0.00100047)
(2.34706e-08 3.83599e-07 -0.0010004)
(-2.97771e-08 4.36845e-07 -0.000999522)
(-2.97772e-08 3.83598e-07 -0.000999608)
(2.72426e-08 4.86062e-07 -0.00100052)
(2.72426e-08 4.24518e-07 -0.00100044)
(-3.4301e-08 4.8606e-07 -0.000999469)
(-3.43011e-08 4.24517e-07 -0.000999569)
(3.16208e-08 5.40698e-07 -0.00100058)
(3.16207e-08 4.69559e-07 -0.00100049)
(-3.95179e-08 5.40695e-07 -0.000999411)
(-3.9518e-08 4.69557e-07 -0.000999525)
(3.6701e-08 6.01376e-07 -0.00100064)
(3.6701e-08 5.19141e-07 -0.00100053)
(-4.55332e-08 6.01372e-07 -0.000999345)
(-4.55333e-08 5.19138e-07 -0.000999477)
(4.25948e-08 6.68788e-07 -0.00100072)
(4.25947e-08 5.73723e-07 -0.00100059)
(-5.24686e-08 6.68783e-07 -0.000999272)
(-5.24688e-08 5.7372e-07 -0.000999425)
(4.94312e-08 7.43706e-07 -0.0010008)
(4.94311e-08 6.33809e-07 -0.00100065)
(-6.04646e-08 7.437e-07 -0.000999191)
(-6.04647e-08 6.33805e-07 -0.000999367)
(5.73601e-08 8.26991e-07 -0.00100089)
(5.736e-08 6.99946e-07 -0.00100071)
(-6.96832e-08 8.26984e-07 -0.000999101)
(-6.96834e-08 6.99942e-07 -0.000999303)
(6.65555e-08 9.19604e-07 -0.00100099)
(6.65554e-08 7.72735e-07 -0.00100079)
(-8.03116e-08 9.19595e-07 -0.000999)
(-8.03119e-08 7.72729e-07 -0.000999233)
(7.72189e-08 1.02262e-06 -0.0010011)
(7.72188e-08 8.52829e-07 -0.00100086)
(-9.25658e-08 1.02261e-06 -0.000998888)
(-9.25662e-08 8.52822e-07 -0.000999157)
(8.95843e-08 1.13723e-06 -0.00100122)
(8.95841e-08 9.40943e-07 -0.00100095)
(-1.06695e-07 1.13721e-06 -0.000998763)
(-1.06696e-07 9.40934e-07 -0.000999073)
(1.03922e-07 1.26477e-06 -0.00100136)
(1.03922e-07 1.03785e-06 -0.00100105)
(-1.22987e-07 1.26475e-06 -0.000998623)
(-1.22988e-07 1.03784e-06 -0.000998981)
(1.20547e-07 1.40674e-06 -0.00100151)
(1.20546e-07 1.14441e-06 -0.00100115)
(-1.41774e-07 1.40672e-06 -0.000998467)
(-1.41775e-07 1.1444e-06 -0.00099888)
(1.3982e-07 1.5648e-06 -0.00100168)
(1.3982e-07 1.26154e-06 -0.00100127)
(-1.63439e-07 1.56478e-06 -0.000998294)
(-1.6344e-07 1.26152e-06 -0.000998769)
(1.62163e-07 1.74083e-06 -0.00100188)
(1.62163e-07 1.39024e-06 -0.00100139)
(-1.88421e-07 1.7408e-06 -0.0009981)
(-1.88423e-07 1.39022e-06 -0.000998648)
(1.88062e-07 1.93691e-06 -0.00100209)
(1.88061e-07 1.53161e-06 -0.00100153)
(-2.17231e-07 1.93687e-06 -0.000997883)
(-2.17233e-07 1.53158e-06 -0.000998515)
(2.18078e-07 2.15537e-06 -0.00100233)
(2.18077e-07 1.68682e-06 -0.00100168)
(-2.50454e-07 2.15532e-06 -0.000997642)
(-2.50457e-07 1.6868e-06 -0.00099837)
(2.52861e-07 2.39883e-06 -0.0010026)
(2.5286e-07 1.85718e-06 -0.00100184)
(-2.88765e-07 2.39876e-06 -0.000997372)
(-2.88769e-07 1.85714e-06 -0.000998211)
(2.93162e-07 2.6702e-06 -0.0010029)
(2.93161e-07 2.04406e-06 -0.00100202)
(-3.32942e-07 2.67011e-06 -0.00099707)
(-3.32947e-07 2.04402e-06 -0.000998038)
(3.3985e-07 2.97275e-06 -0.00100323)
(3.39848e-07 2.24899e-06 -0.00100221)
(-3.83882e-07 2.97265e-06 -0.000996733)
(-3.83889e-07 2.24894e-06 -0.000997849)
(3.93928e-07 3.31016e-06 -0.0010036)
(3.93925e-07 2.47357e-06 -0.00100242)
(-4.42617e-07 3.31004e-06 -0.000996356)
(-4.42626e-07 2.47351e-06 -0.000997644)
(4.56555e-07 3.68653e-06 -0.00100402)
(4.56552e-07 2.71958e-06 -0.00100265)
(-5.10336e-07 3.68637e-06 -0.000995935)
(-5.10348e-07 2.71951e-06 -0.000997419)
(5.29074e-07 4.10645e-06 -0.00100449)
(5.29068e-07 2.98889e-06 -0.00100291)
(-5.88412e-07 4.10625e-06 -0.000995464)
(-5.88427e-07 2.9888e-06 -0.000997175)
(6.13032e-07 4.57509e-06 -0.00100501)
(6.13025e-07 3.28354e-06 -0.00100318)
(-6.78423e-07 4.57484e-06 -0.000994938)
(-6.78443e-07 3.28343e-06 -0.00099691)
(7.10223e-07 5.09823e-06 -0.00100559)
(7.10214e-07 3.60569e-06 -0.00100347)
(-7.82191e-07 5.09792e-06 -0.000994348)
(-7.82219e-07 3.60556e-06 -0.000996622)
(8.22717e-07 5.68237e-06 -0.00100624)
(8.22705e-07 3.95767e-06 -0.00100379)
(-9.01815e-07 5.68197e-06 -0.000993689)
(-9.01852e-07 3.95752e-06 -0.000996309)
(9.52907e-07 6.33479e-06 -0.00100698)
(9.5289e-07 4.34196e-06 -0.00100414)
(-1.03971e-06 6.33429e-06 -0.00099295)
(-1.03976e-06 4.34177e-06 -0.000995971)
(1.10356e-06 7.06367e-06 -0.0010078)
(1.10353e-06 4.76118e-06 -0.00100451)
(-1.19867e-06 7.06305e-06 -0.000992123)
(-1.19873e-06 4.76095e-06 -0.000995606)
(1.27786e-06 7.87822e-06 -0.00100872)
(1.27783e-06 5.21812e-06 -0.00100491)
(-1.38189e-06 7.87744e-06 -0.000991197)
(-1.38198e-06 5.21785e-06 -0.000995211)
(1.4795e-06 8.78877e-06 -0.00100975)
(1.47946e-06 5.71573e-06 -0.00100535)
(-1.59308e-06 8.78778e-06 -0.000990159)
(-1.59319e-06 5.71541e-06 -0.000994786)
(1.71275e-06 9.80694e-06 -0.0010109)
(1.7127e-06 6.25711e-06 -0.00100581)
(-1.83649e-06 9.8057e-06 -0.000988996)
(-1.83664e-06 6.25672e-06 -0.000994328)
(1.98253e-06 1.09458e-05 -0.0010122)
(1.98246e-06 6.84548e-06 -0.00100631)
(-2.11703e-06 1.09442e-05 -0.000987692)
(-2.11723e-06 6.84502e-06 -0.000993837)
(2.29452e-06 1.22201e-05 -0.00101366)
(2.29442e-06 7.48421e-06 -0.00100685)
(-2.44035e-06 1.22181e-05 -0.000986229)
(-2.44062e-06 7.48366e-06 -0.000993311)
(2.65527e-06 1.36463e-05 -0.00101529)
(2.65514e-06 8.17678e-06 -0.00100742)
(-2.81295e-06 1.36438e-05 -0.000984587)
(-2.81332e-06 8.17612e-06 -0.000992749)
(3.07238e-06 1.52431e-05 -0.00101713)
(3.0722e-06 8.92674e-06 -0.00100802)
(-3.24234e-06 1.52399e-05 -0.000982745)
(-3.24282e-06 8.92595e-06 -0.000992151)
(3.55457e-06 1.70315e-05 -0.00101919)
(3.55433e-06 9.73771e-06 -0.00100866)
(-3.73713e-06 1.70275e-05 -0.000980676)
(-3.73777e-06 9.73676e-06 -0.000991514)
(4.11196e-06 1.90352e-05 -0.00102151)
(4.11163e-06 1.06133e-05 -0.00100934)
(-4.30726e-06 1.90302e-05 -0.000978352)
(-4.30812e-06 1.06122e-05 -0.000990841)
(4.75618e-06 2.12809e-05 -0.00102412)
(4.75574e-06 1.15571e-05 -0.00101005)
(-4.96416e-06 2.12745e-05 -0.00097574)
(-4.96532e-06 1.15558e-05 -0.000990131)
(5.50069e-06 2.37987e-05 -0.00102706)
(5.50009e-06 1.25726e-05 -0.0010108)
(-5.72101e-06 2.37906e-05 -0.000972804)
(-5.72255e-06 1.2571e-05 -0.000989385)
(6.361e-06 2.66226e-05 -0.00103036)
(6.36019e-06 1.36629e-05 -0.00101157)
(-6.59296e-06 2.66124e-05 -0.000969503)
(-6.59501e-06 1.3661e-05 -0.000988606)
(7.35502e-06 2.9791e-05 -0.00103409)
(7.35393e-06 1.48312e-05 -0.00101238)
(-7.59745e-06 2.9778e-05 -0.000965789)
(-7.6002e-06 1.48289e-05 -0.000987798)
(8.50342e-06 3.33472e-05 -0.00103828)
(8.50196e-06 1.60798e-05 -0.0010132)
(-8.75457e-06 3.33308e-05 -0.00096161)
(-8.75825e-06 1.6077e-05 -0.000986964)
(9.83005e-06 3.73402e-05 -0.001043)
(9.82809e-06 1.74106e-05 -0.00101403)
(-1.00875e-05 3.73194e-05 -0.000956904)
(-1.00924e-05 1.74073e-05 -0.000986113)
(1.13625e-05 4.18255e-05 -0.00104833)
(1.13598e-05 1.88246e-05 -0.00101486)
(-1.16228e-05 4.1799e-05 -0.000951605)
(-1.16293e-05 1.88207e-05 -0.000985252)
(1.31325e-05 4.68657e-05 -0.00105435)
(1.31289e-05 2.0322e-05 -0.00101568)
(-1.33912e-05 4.68319e-05 -0.000945633)
(-1.34e-05 2.03173e-05 -0.000984393)
(1.51768e-05 5.25318e-05 -0.00106113)
(1.5172e-05 2.19011e-05 -0.00101647)
(-1.5428e-05 5.24887e-05 -0.000938902)
(-1.54398e-05 2.18955e-05 -0.000983552)
(1.75379e-05 5.89041e-05 -0.00106879)
(1.75314e-05 2.3559e-05 -0.0010172)
(-1.77741e-05 5.88491e-05 -0.00093131)
(-1.77898e-05 2.35521e-05 -0.000982747)
(2.02647e-05 6.60737e-05 -0.00107744)
(2.0256e-05 2.529e-05 -0.00101786)
(-2.04763e-05 6.60035e-05 -0.000922745)
(-2.04972e-05 2.52817e-05 -0.000982003)
(2.3414e-05 7.41439e-05 -0.00108722)
(2.34023e-05 2.70861e-05 -0.0010184)
(-2.35888e-05 7.40541e-05 -0.000913078)
(-2.36168e-05 2.70759e-05 -0.00098135)
(2.70512e-05 8.32315e-05 -0.00109828)
(2.70355e-05 2.89355e-05 -0.0010188)
(-2.71741e-05 8.31166e-05 -0.000902164)
(-2.72115e-05 2.8923e-05 -0.000980825)
(3.12519e-05 9.34689e-05 -0.00111079)
(3.12306e-05 3.08227e-05 -0.00101899)
(-3.13033e-05 9.33213e-05 -0.000889833)
(-3.13533e-05 3.08073e-05 -0.000980465)
(3.61031e-05 0.000105002 -0.0011249)
(3.60733e-05 3.27259e-05 -0.00101887)
(-3.60562e-05 0.000104811 -0.000875861)
(-3.61231e-05 3.27072e-05 -0.000980283)
(4.1701e-05 0.000117974 -0.00114074)
(4.1655e-05 3.46118e-05 -0.00101828)
(-4.1512e-05 0.000117721 -0.000859981)
(-4.16018e-05 3.45909e-05 -0.000980314)
(4.81315e-05 0.000132448 -0.00115885)
(4.80468e-05 3.64158e-05 -0.00101749)
(-4.77136e-05 0.000132094 -0.000842193)
(-4.78343e-05 3.64008e-05 -0.000981076)
(5.53854e-05 0.000148123 -0.00118143)
(5.52037e-05 3.79875e-05 -0.00101804)
(-5.45357e-05 0.000147585 -0.000823435)
(-5.46875e-05 3.80076e-05 -0.00098426)
(6.30618e-05 0.000163452 -0.0012108)
(6.25491e-05 3.89541e-05 -0.0010204)
(-6.12558e-05 0.00016258 -0.00080402)
(-6.12188e-05 3.90769e-05 -0.000989314)
(6.93776e-05 0.000173236 -0.00122972)
(6.84731e-05 3.85865e-05 -0.00100705)
(-6.54332e-05 0.000172119 -0.000772327)
(-6.51707e-05 3.89538e-05 -0.000977989)
(7.01266e-05 0.000166261 -0.00119326)
(6.83656e-05 3.55584e-05 -0.000941222)
(-6.11464e-05 0.000164419 -0.000705474)
(-6.04567e-05 3.62532e-05 -0.000913798)
(5.67862e-05 0.000124217 -0.000990154)
(5.47443e-05 2.85449e-05 -0.000836118)
(-3.94587e-05 0.000121652 -0.000626661)
(-3.87358e-05 2.93682e-05 -0.0008729)
(8.15592e-06 1.66863e-05 -0.00373282)
(7.93445e-06 2.95932e-06 -0.00309796)
(-3.6561e-06 1.41504e-05 -0.00202808)
(-3.33505e-06 4.49536e-06 -0.00275808)
(-7.68414e-06 1.03425e-05 5.43704e-06)
(-5.61683e-06 -1.01306e-06 2.69921e-05)
(-9.14736e-06 7.45952e-06 4.14685e-05)
(-3.52242e-06 -5.70612e-07 -2.48806e-05)
(-0.000334206 0.000186235 -0.00435269)
(-0.000185579 0.000302913 -0.00373687)
(5.04093e-06 0.00012399 -0.00301937)
(1.5289e-05 0.000492494 -0.00361667)
(-3.73805e-05 6.62513e-06 -0.000458017)
(-7.82476e-05 0.000118049 -0.00278708)
(-9.20253e-06 9.58615e-06 -0.000124297)
(-9.91887e-06 3.13311e-06 -8.89809e-05)
(-0.000446893 -0.000257137 -0.00488258)
(-4.33267e-05 -1.97384e-05 -0.000977793)
(-0.000154941 -0.00010224 -0.00430982)
(-0.000124827 -7.80839e-05 -0.0039071)
(-4.0478e-05 -1.42928e-05 -0.000150961)
(-0.000273496 5.07995e-05 -0.00532345)
(-1.14984e-05 -3.9213e-06 -0.000147333)
(-2.79804e-05 2.63047e-05 -0.00413241)
(-0.000700481 -0.000475564 -0.00523107)
(-4.29915e-05 -1.05541e-05 -0.000379294)
(-0.0001414 -0.000256892 -0.0036126)
(-2.30681e-05 -1.09475e-05 -0.000363887)
(-0.000312084 -0.000213549 -0.00439841)
(-0.000915334 -0.000375479 -0.0051073)
(-0.000230974 -0.000187517 -0.00126116)
(-0.000351844 -0.000214471 -0.00378189)
(-6.2748e-06 3.62201e-05 -0.00124036)
(1.13988e-05 -4.32197e-06 -4.66079e-05)
(-0.000446722 0.000209169 -0.00286625)
(-0.000407843 -0.000159528 -0.00380283)
(0.000227553 0.000344231 -0.0050187)
(0.000712126 -0.000907708 -0.00452372)
(-2.11596e-05 4.26563e-05 -6.71916e-05)
(-4.35581e-05 -2.83683e-05 -0.000248442)
(0.000213571 2.91848e-05 -0.00153999)
(3.56152e-05 -5.94056e-05 -8.95689e-05)
(-8.17525e-05 4.52328e-05 -0.00539525)
(-0.000223421 -0.000706326 -0.00308878)
(0.000681256 -0.00046375 -0.00444481)
(0.000467084 -0.000461465 -0.00424701)
(3.01908e-05 -1.30433e-05 -0.000885727)
(0.000219953 -0.000305543 -0.00384382)
(-5.74256e-06 -1.28209e-05 -7.99035e-05)
(0.000154093 -0.000263343 -0.00148094)
(0.000116628 -0.000249897 -0.00236223)
(3.55688e-05 -3.24302e-05 -0.000510021)
(0.000483625 -0.000178097 -0.00528097)
(0.000319758 -0.000607736 -0.00455596)
(-0.000223053 -0.000151639 -0.00297636)
(-0.000203022 -0.000713064 -0.00468906)
(0.000123679 -0.00019584 -0.00297743)
(3.5298e-06 -4.19385e-05 -0.000713753)
(-5.50273e-05 -3.02578e-05 4.08476e-05)
(-0.000120853 -0.000835647 -0.0034838)
(6.89729e-05 -9.60646e-05 -0.00241371)
(0.000109366 -0.00029898 -0.00285084)
(-6.60951e-05 -0.000222512 -0.00337329)
(-7.90045e-06 -6.34283e-05 -0.000204033)
(0.000301975 -8.59336e-05 -0.00382627)
(0.000399978 -0.000576461 -0.00252023)
(-2.4161e-05 -7.27705e-05 -0.000839965)
(-9.99166e-05 -0.00092574 -0.00555455)
(0.000233571 -8.63492e-05 -0.00273298)
(-1.60613e-05 -6.39283e-06 -6.63535e-05)
(-2.97572e-05 -0.000112071 -0.00182755)
(1.09866e-05 -4.05628e-05 -4.57742e-05)
(-2.38935e-06 -2.38101e-06 -0.00252089)
(-1.69379e-05 -0.000109522 -0.00456669)
(-0.000244042 4.07994e-06 -0.0027368)
(-0.000338898 -0.000296701 -0.00562352)
(-0.000249826 -7.09023e-05 -0.00399964)
(-5.08454e-05 -3.80747e-06 -0.000843278)
(-2.65155e-05 -2.98218e-05 4.57844e-06)
(-5.91004e-05 4.93906e-05 -0.00140541)
(-0.000133134 -0.000144681 -0.00184287)
(-0.000203494 0.000192503 -0.00247481)
(0.000142613 -0.000173677 -0.00309102)
(0.000461802 0.00049615 -0.00494937)
(-0.000116658 -0.00014779 -0.00353252)
(-0.000143077 0.000175752 -0.00131131)
(9.23241e-05 -0.000125862 -0.00101913)
(1.17835e-05 4.14545e-05 -0.000345591)
(-0.000133254 -0.000174652 -0.00281781)
(-0.000178082 -9.91677e-06 -0.00124889)
(3.74125e-05 -0.000264668 -0.00120034)
(2.07075e-05 9.02598e-05 -0.00406373)
(-1.97318e-05 -5.8289e-05 -0.0011496)
(-0.000112755 1.61318e-05 -0.00103466)
(0.000124213 -0.000256162 -0.000891749)
(6.63241e-05 0.00013065 -0.00142784)
(-1.4828e-05 -3.07551e-05 -0.00185823)
(-5.9173e-05 6.63521e-05 -0.000943993)
(0.000126872 -0.000120698 -0.000780738)
(0.000113847 9.32314e-05 -0.00138711)
(-5.76375e-05 -6.4199e-05 -0.00107527)
(-7.51687e-05 0.000104309 -0.000878115)
(0.000140561 -0.00010295 -0.000831031)
(0.000134275 9.01821e-05 -0.00127852)
(-7.27908e-05 -7.6371e-05 -0.00108053)
(-7.80427e-05 0.000115043 -0.000849084)
(0.00013319 -9.10475e-05 -0.000831197)
(0.000131187 0.00010291 -0.00120606)
(-6.94341e-05 -7.37118e-05 -0.00109613)
(-7.06921e-05 0.000109478 -0.000862797)
(0.000119534 -7.86201e-05 -0.000849529)
(0.000118835 0.000104461 -0.00117538)
(-6.07077e-05 -6.56666e-05 -0.0010883)
(-6.10413e-05 9.84309e-05 -0.000884021)
(0.000105264 -6.71771e-05 -0.000870271)
(0.00010491 9.67667e-05 -0.00115674)
(-5.19404e-05 -5.68735e-05 -0.00107379)
(-5.20862e-05 8.67657e-05 -0.000900851)
(9.2206e-05 -5.7336e-05 -0.000887998)
(9.19695e-05 8.62022e-05 -0.00113871)
(-4.42095e-05 -4.87537e-05 -0.00106153)
(-4.4305e-05 7.6031e-05 -0.000914277)
(8.06915e-05 -4.89213e-05 -0.000902863)
(8.05175e-05 7.57844e-05 -0.00112176)
(-3.75511e-05 -4.16175e-05 -0.00105173)
(-3.76205e-05 6.65337e-05 -0.000925785)
(7.06222e-05 -4.17006e-05 -0.000915692)
(7.04914e-05 6.63868e-05 -0.00110681)
(-3.18465e-05 -3.54509e-05 -0.00104353)
(-3.18976e-05 5.82196e-05 -0.000935814)
(6.18264e-05 -3.55036e-05 -0.000926858)
(6.1728e-05 5.81163e-05 -0.0010938)
(-2.69696e-05 -3.01547e-05 -0.00103653)
(-2.7007e-05 5.09584e-05 -0.00094451)
(5.41426e-05 -3.01916e-05 -0.000936559)
(5.40684e-05 5.08818e-05 -0.00108243)
(-2.28049e-05 -2.56161e-05 -0.00103056)
(-2.28323e-05 4.46185e-05 -0.000952026)
(4.74284e-05 -2.56428e-05 -0.000944977)
(4.73725e-05 4.45609e-05 -0.00107246)
(-1.92513e-05 -2.17308e-05 -0.0010255)
(-1.92713e-05 3.90817e-05 -0.000958522)
(4.15602e-05 -2.17503e-05 -0.000952279)
(4.1518e-05 3.90382e-05 -0.00106373)
(-1.62218e-05 -1.84076e-05 -0.0010212)
(-1.62364e-05 3.42448e-05 -0.000964137)
(3.64297e-05 -1.84217e-05 -0.000958613)
(3.63979e-05 3.42119e-05 -0.00105606)
(-1.36416e-05 -1.55675e-05 -0.00101757)
(-1.36522e-05 3.00178e-05 -0.000968993)
(3.1943e-05 -1.55777e-05 -0.000964108)
(3.1919e-05 2.99929e-05 -0.00104934)
(-1.14462e-05 -1.31423e-05 -0.0010145)
(-1.14539e-05 2.63225e-05 -0.000973191)
(2.80181e-05 -1.31498e-05 -0.000968876)
(2.8e-05 2.63036e-05 -0.00104345)
(-9.58029e-06 -1.10735e-05 -0.00101191)
(-9.5859e-06 2.30908e-05 -0.00097682)
(2.45837e-05 -1.10789e-05 -0.000973011)
(2.457e-05 2.30766e-05 -0.00103827)
(-7.99641e-06 -9.31054e-06 -0.00100972)
(-8.00048e-06 2.02637e-05 -0.000979959)
(2.15775e-05 -9.31445e-06 -0.000976598)
(2.15672e-05 2.02529e-05 -0.00103373)
(-6.65368e-06 -7.80979e-06 -0.00100789)
(-6.65662e-06 1.77896e-05 -0.000982673)
(1.89454e-05 -7.81262e-06 -0.00097971)
(1.89377e-05 1.77814e-05 -0.00102973)
(-5.51702e-06 -6.53381e-06 -0.00100635)
(-5.51915e-06 1.56236e-05 -0.00098502)
(1.66402e-05 -6.53585e-06 -0.000982408)
(1.66343e-05 1.56175e-05 -0.00102623)
(-4.55635e-06 -5.45035e-06 -0.00100506)
(-4.55789e-06 1.37268e-05 -0.000987049)
(1.46206e-05 -5.45182e-06 -0.000984749)
(1.46161e-05 1.37221e-05 -0.00102314)
(-3.74587e-06 -4.53168e-06 -0.00100399)
(-3.74698e-06 1.2065e-05 -0.000988805)
(1.28507e-05 -4.53274e-06 -0.000986779)
(1.28473e-05 1.20614e-05 -0.00102043)
(-3.06346e-06 -3.75397e-06 -0.0010031)
(-3.06425e-06 1.06087e-05 -0.000990324)
(1.12991e-05 -3.75473e-06 -0.000988539)
(1.12965e-05 1.06059e-05 -0.00101804)
(-2.49018e-06 -3.09673e-06 -0.00100236)
(-2.49076e-06 9.33193e-06 -0.000991637)
(9.93839e-06 -3.09728e-06 -0.000990066)
(9.93646e-06 9.32987e-06 -0.00101594)
(-2.00982e-06 -2.54238e-06 -0.00100175)
(-2.01023e-06 8.21229e-06 -0.000992774)
(8.74478e-06 -2.54277e-06 -0.000991389)
(8.74332e-06 8.21073e-06 -0.00101408)
(-1.60839e-06 -2.07577e-06 -0.00100125)
(-1.60868e-06 7.23005e-06 -0.000993756)
(7.69738e-06 -2.07605e-06 -0.000992537)
(7.69627e-06 7.22886e-06 -0.00101245)
(-1.27386e-06 -1.68386e-06 -0.00100084)
(-1.27407e-06 6.368e-06 -0.000994604)
(6.77796e-06 -1.68406e-06 -0.000993532)
(6.77712e-06 6.3671e-06 -0.00101102)
(-9.95977e-07 -1.35549e-06 -0.00100051)
(-9.96123e-07 5.61112e-06 -0.000995337)
(5.9706e-06 -1.35563e-06 -0.000994394)
(5.96997e-06 5.61043e-06 -0.00100975)
(-7.65987e-07 -1.0811e-06 -0.00100024)
(-7.6609e-07 4.94632e-06 -0.000995971)
(5.2614e-06 -1.08119e-06 -0.000995141)
(5.26092e-06 4.9458e-06 -0.00100863)
(-5.76457e-07 -8.52506e-07 -0.00100003)
(-5.7653e-07 4.36218e-06 -0.000996519)
(4.63821e-06 -8.52575e-07 -0.000995789)
(4.63784e-06 4.36178e-06 -0.00100764)
(-4.2111e-07 -6.62763e-07 -0.000999866)
(-4.21161e-07 3.84874e-06 -0.000996993)
(4.09038e-06 -6.62812e-07 -0.000996351)
(4.0901e-06 3.84844e-06 -0.00100677)
(-2.94591e-07 -5.05907e-07 -0.000999738)
(-2.94626e-07 3.39732e-06 -0.000997404)
(3.60862e-06 -5.05941e-07 -0.000996837)
(3.60841e-06 3.39709e-06 -0.001006)
(-1.92238e-07 -3.76794e-07 -0.000999641)
(-1.92263e-07 3.00026e-06 -0.000997758)
(3.18481e-06 -3.76818e-07 -0.000997258)
(3.18465e-06 3.00009e-06 -0.00100532)
(-1.1004e-07 -2.71012e-07 -0.000999571)
(-1.10057e-07 2.65086e-06 -0.000998063)
(2.81182e-06 -2.71029e-07 -0.000997623)
(2.8117e-06 2.65072e-06 -0.00100472)
(-4.45648e-08 -1.84804e-07 -0.000999523)
(-4.45768e-08 2.34321e-06 -0.000998325)
(2.48344e-06 -1.84816e-07 -0.000997939)
(2.48335e-06 2.34311e-06 -0.00100419)
(7.16716e-09 -1.14921e-07 -0.000999493)
(7.15878e-09 2.07214e-06 -0.000998551)
(2.19423e-06 -1.1493e-07 -0.000998213)
(2.19416e-06 2.07206e-06 -0.00100372)
(4.75524e-08 -5.86127e-08 -0.000999477)
(4.75465e-08 1.8332e-06 -0.000998746)
(1.93936e-06 -5.86186e-08 -0.000998449)
(1.93931e-06 1.83314e-06 -0.0010033)
(7.84901e-08 -1.3565e-08 -0.000999472)
(7.8486e-08 1.62256e-06 -0.000998916)
(1.71461e-06 -1.35691e-08 -0.000998652)
(1.71457e-06 1.62251e-06 -0.00100293)
(1.0163e-07 2.2114e-08 -0.000999474)
(1.01627e-07 1.4368e-06 -0.000999063)
(1.51632e-06 2.2111e-08 -0.000998829)
(1.51628e-06 1.43677e-06 -0.0010026)
(1.18363e-07 4.99571e-08 -0.000999482)
(1.18361e-07 1.27292e-06 -0.00099919)
(1.34133e-06 4.9955e-08 -0.000998983)
(1.3413e-06 1.2729e-06 -0.00100231)
(1.29854e-07 7.12467e-08 -0.000999495)
(1.29852e-07 1.12828e-06 -0.0009993)
(1.18688e-06 7.12451e-08 -0.000999117)
(1.18686e-06 1.12826e-06 -0.00100206)
(1.3711e-07 8.71274e-08 -0.000999512)
(1.37109e-07 1.00054e-06 -0.000999394)
(1.05052e-06 8.71263e-08 -0.000999234)
(1.05051e-06 1.00053e-06 -0.00100183)
(1.40975e-07 9.85724e-08 -0.000999531)
(1.40974e-07 8.87692e-07 -0.000999475)
(9.30093e-07 9.85716e-08 -0.000999335)
(9.30083e-07 8.87679e-07 -0.00100163)
(1.42136e-07 1.06368e-07 -0.000999552)
(1.42135e-07 7.87941e-07 -0.000999546)
(8.23707e-07 1.06368e-07 -0.000999423)
(8.23699e-07 7.87931e-07 -0.00100145)
(1.4116e-07 1.11174e-07 -0.000999573)
(1.4116e-07 6.99728e-07 -0.000999606)
(7.29714e-07 1.11174e-07 -0.0009995)
(7.29708e-07 6.99721e-07 -0.00100129)
(1.38526e-07 1.13555e-07 -0.000999596)
(1.38526e-07 6.21683e-07 -0.000999659)
(6.46653e-07 1.13555e-07 -0.000999566)
(6.46648e-07 6.21677e-07 -0.00100115)
(1.3463e-07 1.13995e-07 -0.000999618)
(1.3463e-07 5.52602e-07 -0.000999704)
(5.73237e-07 1.13995e-07 -0.000999624)
(5.73234e-07 5.52598e-07 -0.00100102)
(1.29802e-07 1.129e-07 -0.000999641)
(1.29802e-07 4.91429e-07 -0.000999743)
(5.08331e-07 1.12899e-07 -0.000999674)
(5.08328e-07 4.91425e-07 -0.00100091)
(1.24312e-07 1.1061e-07 -0.000999663)
(1.24311e-07 4.37234e-07 -0.000999777)
(4.50935e-07 1.1061e-07 -0.000999718)
(4.50933e-07 4.37232e-07 -0.00100081)
(1.18378e-07 1.07411e-07 -0.000999685)
(1.18378e-07 3.89203e-07 -0.000999806)
(4.0017e-07 1.07411e-07 -0.000999756)
(4.00169e-07 3.89201e-07 -0.00100072)
(1.1218e-07 1.03539e-07 -0.000999706)
(1.1218e-07 3.4662e-07 -0.000999831)
(3.5526e-07 1.03539e-07 -0.000999789)
(3.55259e-07 3.46618e-07 -0.00100064)
(1.0586e-07 9.91903e-08 -0.000999726)
(1.0586e-07 3.08853e-07 -0.000999853)
(3.15522e-07 9.91902e-08 -0.000999817)
(3.15521e-07 3.08851e-07 -0.00100057)
(9.95322e-08 9.45241e-08 -0.000999746)
(9.95322e-08 2.75348e-07 -0.000999871)
(2.80356e-07 9.4524e-08 -0.000999841)
(2.80355e-07 2.75347e-07 -0.00100051)
(9.32851e-08 8.96716e-08 -0.000999764)
(9.32851e-08 2.45617e-07 -0.000999888)
(2.49231e-07 8.96715e-08 -0.000999863)
(2.4923e-07 2.45617e-07 -0.00100046)
(8.71876e-08 8.47382e-08 -0.000999782)
(8.71875e-08 2.19231e-07 -0.000999902)
(2.21681e-07 8.47381e-08 -0.000999881)
(2.2168e-07 2.19231e-07 -0.00100041)
(8.12915e-08 7.98086e-08 -0.000999799)
(8.12914e-08 1.95812e-07 -0.000999914)
(1.97294e-07 7.98086e-08 -0.000999897)
(1.97294e-07 1.95811e-07 -0.00100036)
(7.56351e-08 7.49498e-08 -0.000999814)
(7.56351e-08 1.75024e-07 -0.000999925)
(1.75709e-07 7.49497e-08 -0.000999911)
(1.75709e-07 1.75024e-07 -0.00100032)
(7.02455e-08 7.02137e-08 -0.000999829)
(7.02455e-08 1.56575e-07 -0.000999934)
(1.56606e-07 7.02137e-08 -0.000999923)
(1.56606e-07 1.56574e-07 -0.00100029)
(6.5141e-08 6.56405e-08 -0.000999843)
(6.5141e-08 1.40203e-07 -0.000999943)
(1.39704e-07 6.56405e-08 -0.000999933)
(1.39704e-07 1.40203e-07 -0.00100025)
(6.03325e-08 6.12601e-08 -0.000999856)
(6.03325e-08 1.25681e-07 -0.00099995)
(1.24754e-07 6.126e-08 -0.000999942)
(1.24754e-07 1.25681e-07 -0.00100023)
(5.58256e-08 5.70942e-08 -0.000999869)
(5.58256e-08 1.12806e-07 -0.000999956)
(1.11538e-07 5.70942e-08 -0.00099995)
(1.11537e-07 1.12806e-07 -0.0010002)
(5.16214e-08 5.31581e-08 -0.00099988)
(5.16213e-08 1.01399e-07 -0.000999962)
(9.98618e-08 5.31581e-08 -0.000999957)
(9.98617e-08 1.01398e-07 -0.00100018)
(4.77178e-08 4.94618e-08 -0.000999891)
(4.77178e-08 9.13006e-08 -0.000999966)
(8.95566e-08 4.94618e-08 -0.000999963)
(8.95565e-08 9.13005e-08 -0.00100016)
(4.41105e-08 4.60112e-08 -0.000999901)
(4.41105e-08 8.23726e-08 -0.000999971)
(8.0472e-08 4.60111e-08 -0.000999968)
(8.04719e-08 8.23726e-08 -0.00100014)
(4.07934e-08 4.28087e-08 -0.000999911)
(4.07934e-08 7.44913e-08 -0.000999974)
(7.2476e-08 4.28087e-08 -0.000999973)
(7.24759e-08 7.44912e-08 -0.00100012)
(3.77592e-08 3.98546e-08 -0.00099992)
(3.77592e-08 6.75478e-08 -0.000999978)
(6.54523e-08 3.98547e-08 -0.000999977)
(6.54523e-08 6.75477e-08 -0.00100011)
(3.50004e-08 3.71475e-08 -0.000999928)
(3.50003e-08 6.14461e-08 -0.000999981)
(5.92989e-08 3.71475e-08 -0.00099998)
(5.92989e-08 6.14461e-08 -0.0010001)
(3.25088e-08 3.46846e-08 -0.000999936)
(3.25088e-08 5.6102e-08 -0.000999983)
(5.39262e-08 3.46846e-08 -0.000999983)
(5.39262e-08 5.6102e-08 -0.00100008)
(3.02765e-08 3.24622e-08 -0.000999943)
(3.02765e-08 5.14414e-08 -0.000999986)
(4.92558e-08 3.24622e-08 -0.000999986)
(4.92557e-08 5.14414e-08 -0.00100007)
(2.82958e-08 3.04762e-08 -0.00099995)
(2.82958e-08 4.73999e-08 -0.000999988)
(4.52195e-08 3.04762e-08 -0.000999988)
(4.52195e-08 4.73999e-08 -0.00100006)
(2.65593e-08 2.8722e-08 -0.000999957)
(2.65593e-08 4.39214e-08 -0.000999989)
(4.17587e-08 2.8722e-08 -0.00099999)
(4.17586e-08 4.39214e-08 -0.00100005)
(2.50594e-08 2.71946e-08 -0.000999963)
(2.50594e-08 4.09583e-08 -0.000999991)
(3.88232e-08 2.71946e-08 -0.000999992)
(3.88232e-08 4.09583e-08 -0.00100005)
(2.37886e-08 2.58875e-08 -0.000999969)
(2.37886e-08 3.84702e-08 -0.000999992)
(3.63713e-08 2.58875e-08 -0.000999993)
(3.63713e-08 3.84701e-08 -0.00100004)
(2.27372e-08 2.47912e-08 -0.000999975)
(2.27372e-08 3.64234e-08 -0.000999994)
(3.43693e-08 2.47912e-08 -0.000999995)
(3.43693e-08 3.64233e-08 -0.00100003)
(2.19123e-08 2.39116e-08 -0.000999981)
(2.19123e-08 3.4775e-08 -0.000999995)
(3.27757e-08 2.39116e-08 -0.000999996)
(3.27757e-08 3.4775e-08 -0.00100002)
(2.12673e-08 2.32076e-08 -0.000999987)
(2.12673e-08 3.35753e-08 -0.000999996)
(3.16349e-08 2.32076e-08 -0.000999997)
(3.16349e-08 3.35752e-08 -0.00100002)
(2.08042e-08 2.27179e-08 -0.000999992)
(2.08041e-08 3.29803e-08 -0.000999997)
(3.10665e-08 2.27179e-08 -0.000999999)
(3.10665e-08 3.29803e-08 -0.00100001)
)
;

boundaryField
{
    inlet
    {
        type            calculated;
        value           nonuniform List<vector> 4((2.08042e-08 2.27179e-08 -0.000999992) (3.10665e-08 2.27179e-08 -0.000999999) (2.08041e-08 3.29803e-08 -0.000999997) (3.10665e-08 3.29803e-08 -0.00100001));
    }
    outlet
    {
        type            calculated;
        value           nonuniform List<vector> 4((3.98032e-11 1.05483e-08 -0.00100009) (-6.38053e-10 1.05482e-08 -0.000999909) (3.98029e-11 9.87042e-09 -0.00100008) (-6.38053e-10 9.87039e-09 -0.000999918));
    }
    repeat_boundary
    {
        type            calculated;
        value           nonuniform List<vector> 
1440
(
(3.98032e-11 0 -0.00100009)
(3.11337e-10 0 -0.00100009)
(6.55532e-10 0 -0.00100009)
(9.96633e-10 0 -0.00100009)
(1.33487e-09 0 -0.0010001)
(1.68446e-09 0 -0.0010001)
(2.05728e-09 0 -0.00100011)
(2.46279e-09 0 -0.00100012)
(2.91028e-09 0 -0.00100012)
(3.41006e-09 0 -0.00100013)
(3.97403e-09 0 -0.00100015)
(4.61592e-09 0 -0.00100016)
(5.3515e-09 0 -0.00100017)
(6.19884e-09 0 -0.00100019)
(7.17862e-09 0 -0.00100021)
(8.31439e-09 0 -0.00100023)
(9.63306e-09 0 -0.00100026)
(1.11655e-08 0 -0.00100028)
(1.29469e-08 0 -0.00100031)
(1.50178e-08 0 -0.00100035)
(1.7425e-08 0 -0.00100038)
(2.02219e-08 0 -0.00100042)
(2.34706e-08 0 -0.00100047)
(2.72426e-08 0 -0.00100052)
(3.16208e-08 0 -0.00100058)
(3.6701e-08 0 -0.00100064)