# vtk DataFile Version 4.0
Generated by LIGGGHTS
ASCII
DATASET POLYDATA
POINTS 285 float
-259.831 -468.686 49.9918 -84.0436 -337.719 52.3237 353.656 -357.335 49.9886 
-423.417 -269.203 49.992 93.109 -247.87 49.9617 24.7707 -174.851 49.9818 
395.42 -265.762 49.9937 467.82 -190.529 49.9935 -468.303 -50.1753 51.1131 
-369.579 -70.9942 49.9963 -425.931 -156.699 50.8998 -258.08 -41.6688 49.9943 
-75.0158 -132.067 54.2127 186.201 -74.0093 49.9933 324.912 -75.7042 49.9923 
429.428 -83.1771 49.9935 -240.587 148.159 50.0184 -327.765 95.8524 49.9935 
-145.948 77.7978 49.9935 165.229 116.698 49.9996 125.884 6.26136 50.0198 
487.45 109.434 49.993 -460.446 244.843 49.9936 -223.242 314.083 49.9944 
-126.493 204.852 49.9935 45.8658 296.705 49.9935 281.728 195.494 49.9925 
238.885 288.693 63.2669 430.068 284.279 49.9921 -487.791 341.52 49.9935 
-9.06367 475.381 49.9943 165.728 443.061 49.9935 68.6599 401.995 49.9935 
258.351 487.825 50.4984 414.549 395.218 50.5206 -408.563 -495.292 49.9748 
-487.64 -429.472 49.9935 -401.337 -377.205 49.9935 -439.737 -464.796 143.643 
-499.506 -376.008 133.761 -369.874 -391.831 147.736 -332.309 -492.601 114.594 
-265.154 -385.745 108.465 -169.642 -423.144 50.056 -170.688 -350.864 143.067 
-49.1469 -404.411 132.767 13.576 -427.22 50.8024 134.203 -352.677 49.9244 
86.7197 -497.731 71.578 35.1335 -465.061 176.278 90.4453 -393.082 134.052 
270.222 -412.556 50.0514 176.405 -453.296 51.946 311.251 -453.523 132.48 
202.834 -454.052 157.562 324.003 -357.307 161.321 412.577 -450.851 49.996 
453.529 -347.379 49.9935 -459.912 -216.679 127.661 -342.956 -227.273 92.196 
-392.997 -291.367 150.523 -252.602 -235.105 50.0667 -311.976 -317.222 49.9956 
-177.748 -301.684 49.9932 -228.043 -265.396 142.188 -46.4493 -245.015 52.5044 
-76.748 -295.355 143.375 -133.924 -211.47 87.8128 -28.9134 -186.978 137.55 
-119.013 -171.83 188.916 20.6908 -327.374 50.084 63.2007 -292.497 134.878 
151.921 -234.104 136.718 192.575 -264.739 49.992 251.478 -167.223 50.6529 
243.213 -332.414 103.642 295.135 -263.177 52.7332 319.07 -192.11 183.792 
462.469 -280.316 125.187 355.188 -172.25 53.9276 -368.715 -132.365 133.189 
-490.724 -121.167 122.262 -402.971 -27.6452 135.111 -302.375 -145.053 50.0772 
-230.762 -165.105 118.399 -286.388 -60.3271 144.174 -174.756 -115.853 50.4849 
-123.584 -24.5106 50.5045 -43.8615 -62.2221 119.275 -137.959 -50.3967 150.835 
27.0052 -74.5964 49.9178 124.547 -152.962 51.3721 86.326 -99.1827 127.316 
152.908 -25.1796 141.04 45.83 -25.6277 184.248 198.587 -145.065 134.016 
251.435 -51.6404 124.002 344.969 -95.9391 147.571 470.482 -31.0079 155.875 
-417.162 151.549 49.9935 -398.679 24.6878 49.9926 -474.706 41.2483 112.804 
-241.137 52.4214 79.3342 -341.702 128.272 152.09 -41.9637 35.8104 50.0007 
-52.6411 127.462 88.601 -170.337 44.2315 150.194 -16.5852 112.45 180.986 
-68.5072 27.4869 170.592 55.2904 96.7528 50.6206 75.0557 131.611 142.898 
177.291 71.7991 138.542 245.995 15.7603 50.1354 324.295 67.0589 164.525 
373.584 105.612 65.7974 450.99 15.1418 50.033 362.562 5.0651 95.8624 
450.877 119.296 145.515 -375.166 297.152 55.9969 -462.07 188.93 133.326 
-494.254 276.511 174.498 -327.125 199.215 50.3124 -327.718 276.491 159.312 
-239.512 231.96 104.683 -156.826 276.666 147.692 -27.3564 219.427 50.0122 
-98.9764 300.701 68.3494 -92.2307 192.724 155.599 -25.386 277.476 153.638 
69.9536 196.254 49.9929 134.377 270.368 132.467 167.423 218.767 51.274 
213.798 170.748 147.759 239.474 278.398 177.388 363.338 227.458 98.1325 
335.054 315.53 54.0906 -375.359 397.114 49.9891 -444.813 436.552 113.513 
-282.008 432.938 50.5225 -182.751 421.048 50.343 -262.325 367.095 125.241 
-191.953 498.409 115.632 -68.3372 394.86 50.7271 -111.638 491.354 50.0953 
-161.741 382.577 140.211 145.299 334.691 50.3233 252.398 388.455 60.8041 
171.386 379.294 150.014 318.455 346.025 150.948 252.999 458.344 153.549 
481.071 474.361 50.0406 354.303 471.649 74.6281 448.313 347.002 132.216 
428.293 447.532 141.439 -202.155 -430.646 205.456 479.343 -361.112 233.948 
370.209 -364.859 250.267 -270.499 -221.169 222.396 -140.273 -321.937 240.535 
28.2559 -251.617 230.886 173.553 -342.056 175.005 -291.838 -46.838 245.568 
-27.5546 -97.9007 212.198 50.9179 -148.826 262.669 468.836 -161.636 207.24 
-242.721 112.811 163.417 234.807 112.072 230.217 -428.427 226.947 231.432 
-12.6503 203.311 230.719 125.821 186.405 215.255 324.692 205.975 196.024 
-149.641 472.696 205.169 -141.643 334.48 230.497 407.546 16.8912 250.748 
3.49705 422.281 354.647 -396.96 -185.672 462.917 126.71 -218.966 375.907 
307.103 -52.4865 419.263 166.467 29.8469 455.577 -86.4891 269.459 381.666 
84.5211 282.331 385.602 445.115 401.056 2046.37 -59.0803 389.569 2030.66 
-315.527 362.654 2048.4 -437.972 414.117 2046.43 418.28 256.064 2032.33 
314.398 264.922 2022.35 -142.728 -447.504 536.849 449.928 -216.864 588.432 
-308.531 -20.6631 651.572 298.351 232.615 661.713 -144.527 -260.153 802.204 
131.813 -114.313 715.533 -64.7384 90.5205 681.073 371.931 365.414 762.622 
-446.909 113.873 890.236 224.901 144.796 916.735 403.519 102.386 888.138 
-200.082 217.619 952.633 -289.657 -448.821 1085.98 74.8498 -407.807 1083 
-388.109 -286.062 1054.3 -48.1933 -302.151 1023.78 152.788 -272.272 1020.97 
360.124 -50.52 1130.65 -252.482 126.541 1126.68 47.4851 251.004 1137.38 
-340.423 382.202 1013.26 -212.651 372.896 1130.52 267.647 -388.995 1245.46 
263.285 -195.933 1226.61 -367.678 -80.7066 1245.23 -20.9631 -118.784 1166.88 
-296.232 20.3748 1304.36 -105.855 288.349 1308.62 360.922 176.217 1295.09 
220.659 335.356 1311.33 -401.73 -432.348 1380.78 -1.15801 -376.934 1448.35 
-78.9489 -201.962 1373.82 326.761 -267.204 1444.74 -195.042 -97.5051 1432.25 
65.1769 -21.0278 1366.24 124.811 -144.061 1419.06 -111.662 143.254 1356.01 
197.307 59.8344 1375.06 -372.461 206.531 1441.88 -53.1973 394.857 1397.26 
-268.498 -363.742 1558.67 -325.184 -267.638 1506.73 280.176 -3.6423 1533.11 
-445.589 82.8845 1493.5 -166.335 40.1468 1594.76 295.68 247.132 1474.52 
-319.952 437.719 1563.32 177.53 -396.676 1752.72 -376.827 -125.495 1711.22 
-301.433 -38.1978 1709.11 233.063 -87.3552 1782.83 240.501 177.222 1773.25 
-424.29 363.184 1731.67 244.598 416.476 1658.01 -414.987 -392.908 1940.37 
-283.454 -423.476 1866.49 -447.949 -277.541 1964.11 -210.977 -172.643 1875.86 
-329.11 -303.397 1900.78 -20.8684 -198.567 1828.96 -119.73 -242.957 1971.3 
213.8 -239.546 1948.39 448.024 -285.581 1833.51 337.792 -161.956 1980.77 
-433.586 65.7338 1935.61 -196.718 47.5437 1953.67 -251.483 156.576 1980.23 
-106.436 145.744 1856.96 301.03 70.8473 1902.33 -376.55 212.795 1888.25 
-216.921 250.342 1864.07 -323.11 329.664 1817.2 60.2119 269.325 1875.32 
269.317 281.322 1859.61 447.475 177.115 1911.15 -258.166 432.632 1895.38 
-153.567 387.775 1886.72 -64.9202 346.065 1821.85 78.174 381.058 1837.08 
448.042 336.087 1814.6 46.025 -414.651 2022.18 179.515 -442.189 1997.13 
-285.711 -176.875 2017.63 -182.61 -321.495 2049.01 -10.209 -321.365 2004.88 
92.0338 -200.346 2026.93 431.104 -210.559 2011 -433.164 -154.527 2017.69 
-45.5917 -22.36 2015.85 -160.251 -52.5975 2024.93 335.638 -50.9974 2025.74 
-345.904 50.3094 2014.56 -16.3926 164.156 2034.73 191.441 49.6009 1983.58 
-420.688 294.435 2049.78 -290.468 256.222 2037.74 107.577 184.129 2006.12 

VERTICES 285 570
1 0 
1 1 
1 2 
1 3 
1 4 
1 5 
1 6 
1 7 
1 8 
1 9 
1 10 
1 11 
1 12 
1 13 
1 14 
1 15 
1 16 
1 17 
1 18 
1 19 
1 20 
1 21 
1 22 
1 23 
1 24 
1 25 
1 26 
1 27 
1 28 
1 29 
1 30 
1 31 
1 32 
1 33 
1 34 
1 35 
1 36 
1 37 
1 38 
1 39 
1 40 
1 41 
1 42 
1 43 
1 44 
1 45 
1 46 
1 47 
1 48 
1 49 
1 50 
1 51 
1 52 
1 53 
1 54 
1 55 
1 56 
1 57 
1 58 
1 59 
1 60 
1 61 
1 62 
1 63 
1 64 
1 65 
1 66 
1 67 
1 68 
1 69 
1 70 
1 71 
1 72 
1 73 
1 74 
1 75 
1 76 
1 77 
1 78 
1 79 
1 80 
1 81 
1 82 
1 83 
1 84 
1 85 
1 86 
1 87 
1 88 
1 89 
1 90 
1 91 
1 92 
1 93 
1 94 
1 95 
1 96 
1 97 
1 98 
1 99 
1 100 
1 101 
1 102 
1 103 
1 104 
1 105 
1 106 
1 107 
1 108 
1 109 
1 110 
1 111 
1 112 
1 113 
1 114 
1 115 
1 116 
1 117 
1 118 
1 119 
1 120 
1 121 
1 122 
1 123 
1 124 
1 125 
1 126 
1 127 
1 128 
1 129 
1 130 
1 131 
1 132 
1 133 
1 134 
1 135 
1 136 
1 137 
1 138 
1 139 
1 140 
1 141 
1 142 
1 143 
1 144 
1 145 
1 146 
1 147 
1 148 
1 149 
1 150 
1 151 
1 152 
1 153 
1 154 
1 155 
1 156 
1 157 
1 158 
1 159 
1 160 
1 161 
1 162 
1 163 
1 164 
1 165 
1 166 
1 167 
1 168 
1 169 
1 170 
1 171 
1 172 
1 173 
1 174 
1 175 
1 176 
1 177 
1 178 
1 179 
1 180 
1 181 
1 182 
1 183 
1 184 
1 185 
1 186 
1 187 
1 188 
1 189 
1 190 
1 191 
1 192 
1 193 
1 194 
1 195 
1 196 
1 197 
1 198 
1 199 
1 200 
1 201 
1 202 
1 203 
1 204 
1 205 
1 206 
1 207 
1 208 
1 209 
1 210 
1 211 
1 212 
1 213 
1 214 
1 215 
1 216 
1 217 
1 218 
1 219 
1 220 
1 221 
1 222 
1 223 
1 224 
1 225 
1 226 
1 227 
1 228 
1 229 
1 230 
1 231 
1 232 
1 233 
1 234 
1 235 
1 236 
1 237 
1 238 
1 239 
1 240 
1 241 
1 242 
1 243 
1 244 
1 245 
1 246 
1 247 
1 248 
1 249 
1 250 
1 251 
1 252 
1 253 
1 254 
1 255 
1 256 
1 257 
1 258 
1 259 
1 260 
1 261 
1 262 
1 263 
1 264 
1 265 
1 266 
1 267 
1 268 
1 269 
1 270 
1 271 
1 272 
1 273 
1 274 
1 275 
1 276 
1 277 
1 278 
1 279 
1 280 
1 281 
1 282 
1 283 
1 284 

POINT_DATA 285
FIELD FieldData 7
id 1 285 int
9 74 79 29 14 99 102 80 27 
34 72 18 28 24 43 39 8 91 
1 32 21 44 3 45 23 100 48 
2 16 38 7 54 51 114 55 12 
20 92 77 154 106 125 155 35 67 
96 53 25 73 144 118 37 19 88 
171 164 101 26 159 119 140 31 22 
52 161 36 141 82 112 78 84 167 
124 60 4 61 97 163 90 41 133 
108 170 15 103 68 17 110 142 146 
85 111 169 151 123 132 89 47 158 
58 81 75 69 109 11 104 152 117 
165 93 107 113 46 134 5 33 105 
156 56 160 143 87 65 86 137 30 
129 136 121 57 145 95 139 149 76 
59 10 94 42 70 63 147 71 66 
62 13 6 64 153 148 50 40 49 
83 127 157 199 120 116 126 122 98 
166 193 150 138 130 162 115 135 131 
128 168 223 220 183 208 178 196 176 
202 274 284 232 264 237 275 185 227 
221 212 211 224 172 175 217 194 206 
197 173 192 201 205 186 226 177 210 
184 213 207 174 179 180 215 190 225 
188 195 228 203 218 209 200 216 187 
191 204 198 189 214 181 219 229 182 
222 246 251 240 245 248 281 257 249 
254 279 276 267 283 277 262 255 238 
244 282 258 253 242 278 247 256 243 
261 260 270 280 230 285 269 239 252 
234 273 233 236 268 259 235 241 272 
265 271 231 250 266 263 
type 1 285 int
1 1 1 1 1 1 1 1 1 
1 1 1 1 1 1 1 1 1 
1 1 1 1 1 1 1 1 1 
1 1 1 1 1 1 1 1 1 
1 1 1 1 1 1 1 1 1 
1 1 1 1 1 1 1 1 1 
1 1 1 1 1 1 1 1 1 
1 1 1 1 1 1 1 1 1 
1 1 1 1 1 1 1 1 1 
1 1 1 1 1 1 1 1 1 
1 1 1 1 1 1 1 1 1 
1 1 1 1 1 1 1 1 1 
1 1 1 1 1 1 1 1 1 
1 1 1 1 1 1 1 1 1 
1 1 1 1 1 1 1 1 1 
1 1 1 1 1 1 1 1 1 
1 1 1 1 1 1 1 1 1 
1 1 1 1 1 1 1 1 1 
1 1 1 1 1 1 1 1 1 
1 1 1 1 1 1 1 1 1 
1 1 1 1 1 1 1 1 1 
1 1 1 1 1 1 1 1 1 
1 1 1 1 1 1 1 1 1 
1 1 1 1 1 1 1 1 1 
1 1 1 1 1 1 1 1 1 
1 1 1 1 1 1 1 1 1 
1 1 1 1 1 1 1 1 1 
1 1 1 1 1 1 1 1 1 
1 1 1 1 1 1 1 1 1 
1 1 1 1 1 1 1 1 1 
1 1 1 1 1 1 1 1 1 
1 1 1 1 1 1 
i 3 285 int
0 1 0 0 0 0 0 0 0 
1 0 0 0 0 0 0 0 0 
0 0 0 -1 0 0 1 0 0 
0 0 0 0 0 0 0 0 0 
0 0 0 0 0 0 0 0 0 
-1 0 0 0 0 0 0 0 0 
0 0 0 0 0 0 0 0 0 
-1 0 0 0 0 0 0 0 0 
0 0 0 0 0 0 0 0 0 
0 0 0 -1 0 0 1 0 0 
0 -1 0 0 0 0 0 0 0 
0 0 0 0 -1 0 0 0 0 
0 0 0 0 0 0 0 0 0 
0 0 0 0 1 0 0 1 0 
0 0 0 0 0 0 0 1 0 
0 1 0 0 0 0 0 1 0 
0 1 0 0 1 0 0 0 0 
0 0 0 0 0 0 0 0 0 
0 0 0 0 0 0 0 1 0 
-1 0 0 0 0 0 0 0 0 
0 0 0 0 0 0 1 0 0 
0 0 0 0 0 0 0 0 0 
0 0 0 0 0 0 0 0 0 
0 0 0 0 0 0 0 0 0 
0 0 0 0 0 0 0 0 0 
0 0 0 0 0 0 0 0 0 
0 0 0 0 0 0 0 0 0 
1 0 0 0 0 0 0 0 0 
0 0 0 0 0 0 0 0 0 
0 0 0 0 0 0 0 0 0 
0 0 0 0 0 0 0 0 0 
0 0 0 0 0 0 0 0 0 
0 0 0 0 0 0 0 0 0 
0 0 0 0 0 0 1 0 0 
0 0 0 0 0 0 0 0 0 
0 0 0 0 0 0 0 0 0 
0 0 0 0 0 0 0 0 0 
0 0 0 0 0 0 0 0 0 
0 0 0 -1 0 0 0 0 0 
0 0 0 0 0 0 0 0 0 
1 0 0 0 0 0 0 0 0 
0 0 0 0 0 0 0 0 0 
0 0 0 0 0 0 0 0 0 
0 0 0 0 0 0 0 0 0 
0 0 0 0 0 0 0 0 0 
0 0 0 0 0 0 0 0 0 
0 0 0 0 0 0 0 0 0 
0 0 0 0 0 0 0 -1 0 
0 0 0 0 0 0 0 0 0 
0 0 0 0 0 0 0 0 0 
-1 0 0 0 -1 0 0 0 0 
0 0 0 0 0 0 0 0 0 
0 0 0 0 0 0 0 0 0 
0 0 0 0 0 0 0 0 0 
0 0 0 0 0 0 0 0 0 
0 0 0 0 0 0 0 0 0 
0 0 0 0 0 0 0 0 0 
0 -1 0 0 0 0 0 0 0 
0 0 0 0 0 0 0 0 0 
0 0 0 0 0 0 0 0 0 
0 0 0 0 0 0 0 0 0 
0 0 0 0 0 0 0 0 0 
0 0 0 0 0 0 0 0 0 
0 0 0 0 0 0 0 0 0 
0 0 0 0 0 0 0 0 0 
0 0 0 0 0 0 0 0 0 
0 0 0 0 0 0 0 0 0 
0 0 0 0 0 0 0 0 0 
0 0 0 0 0 0 0 0 0 
0 0 0 0 0 0 0 0 0 
0 0 0 0 0 0 0 0 0 
0 0 0 0 0 0 0 0 0 
0 0 0 0 0 0 0 0 0 
0 0 0 0 0 0 0 0 0 
0 0 0 0 0 0 0 0 0 
0 0 0 0 0 0 0 0 0 
0 0 0 0 0 0 0 0 0 
0 0 0 0 0 0 0 0 0 
0 0 0 0 0 0 0 0 0 
0 0 0 0 0 0 0 0 0 
0 0 0 0 0 0 0 0 0 
0 0 0 0 0 0 0 0 0 
0 0 0 0 0 0 0 0 0 
0 0 0 0 0 0 0 0 0 
0 0 0 0 0 0 0 0 0 
0 0 0 0 0 0 0 0 0 
0 0 0 0 0 0 0 0 0 
0 0 0 0 0 0 0 0 0 
0 0 0 0 0 0 0 0 0 
0 0 0 0 0 0 0 0 0 
0 0 0 0 0 0 0 0 0 
0 0 0 0 0 0 0 0 0 
0 0 0 0 0 0 0 0 0 
0 0 0 0 0 0 0 0 0 
0 0 0 0 0 0 0 0 0 

v 3 285 double
-0.000616075 0.00154246 -1.42967e-05 0.00278705 -0.00539928 0.00111428 0.00107061 0.00158844 0.000328343 
-0.00456522 -0.00292213 -0.000416077 -0.00585771 0.00271293 0.00426994 -0.00719311 0.00357296 0.000950641 
-0.00475918 -0.00413692 6.62958e-05 0.000741571 -0.00220218 -2.1664e-09 -0.000377524 0.0063053 -0.000624519 
0.00132936 0.00151716 -0.000599505 0.00646244 0.00246174 0.000305701 0.00343663 -0.00504922 -1.0559e-05 
-0.0113892 -0.00963918 0.00342235 -0.00423235 0.00115865 -1.71702e-05 -0.000808803 0.00126316 9.81478e-05 
-0.00452453 -0.00332675 -4.90833e-08 -0.00387817 0.00180413 -0.000251236 -0.00289983 0.010297 3.4286e-07 
-0.00623431 0.00635035 1.53288e-12 0.00621316 -0.000660095 8.87172e-05 -0.00982548 -0.0005409 -0.00250352 
0.000550529 -0.00534796 -8.15088e-05 -0.000688605 -0.00429241 2.30969e-07 0.00718034 0.00289705 0.000112937 
0.0172172 -0.00840963 8.80353e-10 0.00370694 0.00718617 1.50709e-14 8.97659e-05 0.000493448 -2.66424e-06 
-0.00398044 3.23619e-05 0.016251 0.00470758 -0.00176416 9.14897e-07 0.00493289 -0.00195723 -2.38308e-09 
-0.00760479 -0.000564026 -6.06078e-05 0.0018039 -0.00237484 8.86626e-12 -0.00338171 0.00160769 -7.55554e-11 
-0.00308548 0.00101078 -0.00220998 -0.00316572 0.00298721 0.00157127 0.00312771 -0.00482809 0.000207422 
0.0042305 -0.000918 -4.06263e-05 -0.00293415 0.0121523 1.37336e-07 0.00739399 0.00385552 -0.00615455 
-0.00802878 -0.00525396 0.000434906 0.0127451 0.00265203 -0.0199138 0.000393505 0.00595765 0.00264912 
0.00324702 0.00204325 -0.00192976 -0.0035541 0.00515824 -0.0103034 0.0122715 0.00702113 -0.0200539 
-0.0149692 -0.00723114 0.000439148 -0.0105663 5.04692e-05 -0.00393142 -0.00441899 -0.00192528 0.000802785 
-0.00358394 -0.00114756 -0.0187571 0.00674156 0.00383048 0.00626813 0.0114344 0.000299945 0.00266075 
0.00413313 -0.00886047 0.00051299 -0.00173583 0.00339231 -0.0026664 0.00796552 -0.00308898 -0.00724064 
0.00497216 0.00669197 -0.00150883 0.022329 0.0146756 -0.0354034 0.00541951 -0.00082983 -0.000232055 
-0.00481652 -0.00416797 1.08892e-07 -0.00554751 0.0011557 -0.0163009 -0.00379273 0.000307014 -0.00567894 
-0.0114069 -0.00683496 -0.0193119 -0.00233642 -0.00487532 -0.00258823 -0.00221186 0.00171609 -0.000320357 
-0.00180717 -0.00759705 4.10139e-06 0.000186712 -0.000859518 -0.000588682 -0.00308841 -0.00193567 -0.00551193 
0.00119758 0.00356026 -0.00457603 -0.00223799 -0.0195918 -0.00303092 -0.00159423 -0.00756884 0.000150797 
-0.00933682 0.0142889 -0.00703387 -0.00996999 4.97238e-05 6.27237e-05 0.0139604 -0.0079488 -0.0028364 
0.00335829 0.020009 -0.00135247 -0.00764419 0.00875157 -0.000192873 0.00686788 0.0154263 -0.00173064 
-0.00776967 -0.00278821 -0.0138264 0.00352596 0.00197685 -0.00194305 0.0098193 0.0259334 0.023401 
-0.00190135 -0.00371529 -0.00220902 -0.0120363 -0.00410228 -0.00366796 0.00306049 -0.00958925 -0.00882652 
-0.00390757 0.00761422 0.00270103 -0.000435125 -0.00260713 -0.00362457 0.00239945 0.0024727 -0.00134798 
-0.0189882 0.00697269 -0.00645253 -0.00147592 0.00249627 0.000146113 -0.0131926 -0.00125476 0.00129804 
-0.00944453 0.00523307 0.00232986 -0.0116744 0.00689108 -0.00244273 0.00189169 0.00746635 0.0293844 
-0.00831141 0.00423517 0.000215703 -0.00460533 0.00020996 -0.0145063 -0.00446282 -0.00228305 -0.00960353 
-0.00747971 0.00263233 -0.00128557 -0.0320387 -0.0103419 -0.00793809 -0.010615 0.0296537 -0.0124686 
-0.000233393 0.00973616 0.00611586 0.00733691 0.0217515 0.00465739 0.00789837 -0.0043876 0.0103208 
-0.00519376 -0.00650285 1.06675e-07 0.00348614 0.00251642 -2.76417e-05 0.00116698 -0.00445337 -0.00118543 
-0.0134574 -0.000742389 -0.00427295 -0.0421643 -0.0200978 -0.0289001 -0.00144222 -0.00637527 0.00029256 
0.00523087 0.000240369 -0.0112708 -0.00275796 0.000502174 -0.00784256 0.0249821 0.0246627 -0.00448581 
0.00598608 0.0161177 -0.00828091 0.00515906 0.0024643 0.000532453 0.0121962 -0.00677334 -0.00388335 
0.00590016 -0.00642109 -0.00231455 -0.00550779 0.00748447 0.00162667 0.0178657 -0.0146917 0.0100532 
0.0226578 -0.00382525 0.00268553 0.00812181 -0.00923475 0.00115418 0.0074929 -0.00413377 0.00752799 
0.0109574 0.0158712 -0.00511338 -0.00297974 -3.55935e-05 -0.000856467 -0.0163178 -0.0113542 -0.00618649 
-0.00273257 -0.00294682 -0.00124522 -0.000246705 -0.00608972 0.00118365 -0.00191097 -0.00667663 0.0115277 
0.00144306 0.00318403 -0.00127515 0.00782218 0.00170498 -0.0344334 -0.00399606 0.00946999 -0.000276708 
0.00670121 -0.00245196 -0.0405258 0.0155693 0.0117677 -0.0231353 -0.00607733 -0.0270011 0.00615098 
-0.00520802 0.00162909 1.36961e-05 -0.0196479 -0.00145834 0.00746314 -0.00656686 0.00416804 0.00231529 
0.00369937 0.00249075 0.00295667 -0.0367306 0.0187652 0.0300291 0.00760395 -0.0100412 -0.00575445 
-0.000193014 -0.0140242 -0.00545671 -0.00237788 -0.00075739 0.000553909 -0.00243716 -0.00347474 -0.000958825 
-0.00334221 0.00157169 -0.00901358 -0.00188878 0.00139347 -0.00257228 -0.00207093 -0.000111747 -0.00233295 
0.00134257 0.00786258 0.00108045 0.00504935 0.0100109 -0.0163848 -0.00573682 0.00642627 0.00136005 
0.00352594 -0.00780806 -0.00715267 -0.0131262 -0.00216376 0.00344369 0.00215702 0.00113411 0.00508125 
-0.0279669 -0.00866534 0.00511725 0.00494389 -0.0101242 -0.00243034 -0.000397613 -0.0147263 -0.0368211 
0.00382379 -0.00170834 3.71532e-06 -0.00503722 0.00480967 -0.0046875 -0.00304969 0.00320102 0.00586332 
-0.00679564 -0.00760194 0.000736301 0.0431358 -0.0206768 -0.00651603 0.0467313 -0.00870012 -0.0225169 
0.0208326 -0.00512546 -0.0447083 0.0161418 -0.0309459 0.00398567 -0.00837946 0.00727607 0.00324164 
0.0225055 -0.0279589 0.00831874 -0.021285 -0.0514081 -0.0272783 -0.0164924 0.0133658 -0.00412947 
-0.00853431 -0.0150384 -0.0211537 0.0463918 -0.0478333 -0.0882239 0.0258705 -0.0245462 0.0143692 
-0.0298735 -0.00803092 -0.0468049 -0.012785 -0.0152965 -0.00206549 -0.0136333 -0.00170823 0.0145231 
-0.00041915 0.0428349 -0.0654096 0.0027183 -0.00512688 0.00627352 0.0190643 0.0096607 -0.00310346 
-0.00698198 -0.00741387 -0.00233385 0.0246986 -0.0211344 -0.00486671 0 0 -0.186333 
0 0 -0.180781 0 0 -0.174807 0 0 -0.179623 
0 0 -0.17724 0 0 -0.175219 0 0 -0.179309 
0 0 -0.179094 -0 -0 -0.02 -0 -0 -0.02 
-0 -0 -0.02 -0 -0 -0.02 -0 -0 -0.02 
-0 -0 -0.02 0 0 -0.170608 0 0 -0.167616 
0 0 -0.163878 0 0 -0.16327 0 0 -0.154598 
0 0 -0.160003 0 0 -0.162103 0 0 -0.15709 
0 0 -0.148908 0 0 -0.147152 0 0 -0.149046 
0 0 -0.144739 0 0 -0.1354 0 0 -0.135616 
0 0 -0.137676 0 0 -0.139834 0 0 -0.14003 
0 0 -0.132123 0 0 -0.132418 0 0 -0.131623 
0 0 -0.14057 0 0 -0.132133 0 0 -0.123304 
0 0 -0.124795 0 0 -0.123324 0 0 -0.129406 
0 0 -0.118527 0 0 -0.118174 0 0 -0.119292 
0 0 -0.117948 0 0 -0.112023 0 0 -0.105941 
0 0 -0.112631 0 0 -0.106274 0 0 -0.107422 
0 0 -0.113288 0 0 -0.108619 0 0 -0.114171 
0 0 -0.112523 0 0 -0.106539 0 0 -0.110571 
0 0 -0.0951789 0 0 -0.100388 0 0 -0.0977786 
0 0 -0.101673 0 0 -0.0913825 0 0 -0.103488 
0 0 -0.0946982 0 0 -0.0724688 0 0 -0.0778839 
0 0 -0.0781488 0 0 -0.0682701 0 0 -0.0696337 
0 0 -0.0752646 0 0 -0.0843193 0 0 -0.0396249 
0 0 -0.0549481 0 0 -0.0332288 0 0 -0.053251 
0 0 -0.0484441 0 0 -0.0612854 0 0 -0.0310313 
0 0 -0.0375844 0 0 -0.0605496 0 0 -0.0278823 
0 0 -0.0407825 0 0 -0.0361816 0 0 -0.0280687 
0 0 -0.0566256 0 0 -0.0481302 0 0 -0.0509162 
0 0 -0.0553798 0 0 -0.0631395 0 0 -0.0533491 
0 0 -0.0561646 0 0 -0.0462957 0 0 -0.0495232 
0 0 -0.0512105 0 0 -0.0624135 0 0 -0.0599708 
0 0 -0.0635417 -0 -0 -0.02 0 0 -0.0213587 
-0 -0 -0.02 -0 -0 -0.02 -0 -0 -0.02 
-0 -0 -0.02 -0 -0 -0.02 -0 -0 -0.02 
-0 -0 -0.02 -0 -0 -0.02 -0 -0 -0.02 
-0 -0 -0.02 -0 -0 -0.02 0 0 -0.0268719 
-0 -0 -0.02 -0 -0 -0.02 -0 -0 -0.02 

f 3 285 double
6.42749 6.26047 -0.503374 0 0 -12.8413 -5.8485 -4.28593 1.66034 
0.809437 0.425135 22.8472 -30.2632 -70.9497 -146.229 2.40968 -4.5129 -2.60938 
-0.00260601 -0.000314387 -3.24797 -8.75984e-09 2.60134e-08 -4.21852e-05 0 0 -12.8413 
5.06134 -12.5045 14.1386 0 0 -12.8413 -0.243316 -1.16107 -1.77678 
0 0 -12.8413 -0.00833515 -0.0029943 1.47638 0.0366198 0.08656 -0.444617 
-0.342552 -1.48137 -0.0127408 0 0 -12.8413 0.762834 0.698525 -0.0329458 
-5.18321e-11 5.29567e-11 -3.81295e-08 -0.0315669 0.155741 -14.5489 0 0 -12.8413 
0.000105831 0.00186229 5.01013 -8.23587e-07 -5.12424e-06 -0.174532 -1.3863 0.87951 -7.68767 
8.29307e-08 -4.0507e-08 4.77911e-05 3.17114e-13 6.90278e-13 -2.65572e-09 -0.295822 -0.199154 0.034535 
0 0 -12.8413 0.0586844 0.696789 -0.0283014 -6.35275e-08 2.51843e-08 0.000178468 
241.56 427.688 -284.112 8.96528e-11 -1.18045e-10 2.69467e-06 1.41009e-09 -6.70319e-10 -1.07658e-05 
0 0 -12.8413 0 0 -12.8413 -11.7084 -8.91596 34.6084 
-0.000922772 0.000330418 1.75351 -2.17163e-06 8.9942e-06 -0.013298 0 0 -12.8413 
0 0 -12.8413 0 0 -12.8413 12.6059 13.4829 6.36699 
0 0 -12.8413 0 0 -12.8413 0 0 -12.8413 
0 0 -12.8413 -0.172856 -0.655484 -12.5099 76.8802 36.7159 450.116 
0 0 -12.8413 0 0 -12.8413 0 0 -12.8413 
0 0 -12.8413 0 0 -12.8413 0 0 -12.8413 
0 0 -12.8413 0 0 -12.8413 -0.133217 -0.19502 1.877 
-2.86068e-06 -2.47547e-06 0.00235769 0 0 -12.8413 0 0 -12.8413 
0 0 -12.8413 0 0 -12.8413 0.00432145 -0.00492999 6.15805 
-0.00122018 0.000764529 0.86685 0 0 -12.8413 0 0 -12.8413 
0 0 -12.8413 0 0 -12.8413 0 0 -12.8413 
0 0 -12.8413 0 0 -12.8413 0 0 -12.8413 
0 0 -12.8413 8.70651 -9.58189 13.0521 0 0 -12.8413 
0 0 -12.8413 0 0 -12.8413 0 0 -12.8413 
0 0 -12.8413 0 0 -12.8413 0 0 -12.8413 
0 0 -12.8413 0 0 -12.8413 0 0 -12.8413 
0 0 -12.8413 0 0 -12.8413 0 0 -12.8413 
0 0 -12.8413 113.166 -40.797 129.636 -279.669 56.324 91.8536 
96.9059 -5.78601 311.151 17.7882 82.9665 29.8162 0 0 -12.8413 
0 0 -12.8413 0 0 -12.8413 0 0 -12.8413 
0 0 -12.8413 0 0 -12.8413 0 0 -12.8413 
-3.06537e-06 -3.83801e-06 0.0166705 0.510257 0.30488 0.0481017 -1.79612 0.00608662 -9.07422 
0 0 -12.8413 0 0 -12.8413 0 0 -12.8413 
0 0 -12.8413 0 0 -12.8413 0 0 -12.8413 
0 0 -12.8413 0 0 -12.8413 0 0 -12.8413 
0 0 -12.8413 0 0 -12.8413 0 0 -12.8413 
0 0 -12.8413 0 0 -12.8413 0 0 -12.8413 
0 0 -12.8413 0 0 -12.8413 0 0 -12.8413 
0 0 -12.8413 0 0 -12.8413 0 0 -12.8413 
-0.0764222 -1.02835 -11.1036 0 0 -12.8413 0 0 -12.8413 
0 0 -12.8413 0 0 -12.8413 0 0 -12.8413 
7.05 0.994865 1.39843 0 0 -12.8413 0 0 -12.8413 
0 0 -12.8413 0 0 -12.8413 0.133987 -1.38963 -5.26231 
0 0 -12.8413 -20.3215 0.421892 -17.2007 -15.5683 -15.907 11.8959 
-29.8801 12.637 -7.44624 47.633 -9.14746 -16.0077 1.82654 -1.28923 -13.9513 
8.03071 -4.92191 -10.3316 -241.648 -428.263 266.856 0 0 -12.8413 
3.49838 -3.61675 -8.75973 0 0 -12.8413 0 0 -12.8413 
0 0 -12.8413 0 0 -12.8413 0 0 -12.8413 
0 0 -12.8413 0 0 -12.8413 0 0 -12.8413 
0 0 -12.8413 0 0 -12.8413 0 0 -12.8413 
0 0 -12.8413 0 0 -12.8413 0 0 -12.8413 
0 0 -12.8413 0 0 -12.8413 0 0 -12.8413 
0 0 -12.8413 0 0 -12.8413 0 0 -12.8413 
0 0 -12.8413 0 0 -12.8413 0 0 -12.8413 
0 0 -12.8413 0 0 -12.8413 0 0 -12.8413 
0 0 -12.8413 0 0 -12.8413 0 0 -12.8413 
0 0 -12.8413 0 0 -12.8413 0 0 -12.8413 
0 0 -12.8413 0 0 -12.8413 0 0 -12.8413 
0 0 -12.8413 0 0 0 0 0 0 
0 0 0 0 0 0 0 0 0 
0 0 0 0 0 -12.8413 0 0 -12.8413 
0 0 -12.8413 0 0 -12.8413 0 0 -12.8413 
0 0 -12.8413 0 0 -12.8413 0 0 -12.8413 
0 0 -12.8413 0 0 -12.8413 0 0 -12.8413 
0 0 -12.8413 0 0 -12.8413 0 0 -12.8413 
0 0 -12.8413 0 0 -12.8413 0 0 -12.8413 
0 0 -12.8413 0 0 -12.8413 0 0 -12.8413 
0 0 -12.8413 0 0 -12.8413 0 0 -12.8413 
0 0 -12.8413 0 0 -12.8413 0 0 -12.8413 
0 0 -12.8413 0 0 -12.8413 0 0 -12.8413 
0 0 -12.8413 0 0 -12.8413 0 0 -12.8413 
0 0 -12.8413 0 0 -12.8413 0 0 -12.8413 
0 0 -12.8413 0 0 -12.8413 0 0 -12.8413 
0 0 -12.8413 0 0 -12.8413 0 0 -12.8413 
0 0 -12.8413 0 0 -12.8413 0 0 -12.8413 
0 0 -12.8413 0 0 -12.8413 0 0 -12.8413 
0 0 -12.8413 0 0 -12.8413 0 0 -12.8413 
0 0 -12.8413 0 0 -12.8413 0 0 -12.8413 
0 0 -12.8413 0 0 -12.8413 0 0 -12.8413 
0 0 -12.8413 0 0 -12.8413 0 0 -12.8413 
0 0 -12.8413 0 0 -12.8413 0 0 -12.8413 
0 0 -12.8413 0 0 -12.8413 0 0 -12.8413 
0 0 -12.8413 0 0 -12.8413 0 0 -12.8413 
0 0 -12.8413 0 0 -12.8413 0 0 -12.8413 
0 0 -12.8413 0 0 -12.8413 0 0 -12.8413 
0 0 -12.8413 0 0 -12.8413 0 0 -12.8413 
0 0 -12.8413 0 0 -12.8413 0 0 -12.8413 
0 0 -12.8413 0 0 0 0 0 -12.8413 
0 0 0 0 0 0 0 0 0 
0 0 0 0 0 0 0 0 0 
0 0 0 0 0 0 0 0 0 
0 0 0 0 0 0 0 0 -12.8413 
0 0 0 0 0 0 0 0 0 

radius 1 285 double
50 50 50 50 50 50 50 50 50 
50 50 50 50 50 50 50 50 50 
50 50 50 50 50 50 50 50 50 
50 50 50 50 50 50 50 50 50 
50 50 50 50 50 50 50 50 50 
50 50 50 50 50 50 50 50 50 
50 50 50 50 50 50 50 50 50 
50 50 50 50 50 50 50 50 50 
50 50 50 50 50 50 50 50 50 
50 50 50 50 50 50 50 50 50 
50 50 50 50 50 50 50 50 50 
50 50 50 50 50 50 50 50 50 
50 50 50 50 50 50 50 50 50 
50 50 50 50 50 50 50 50 50 
50 50 50 50 50 50 50 50 50 
50 50 50 50 50 50 50 50 50 
50 50 50 50 50 50 50 50 50 
50 50 50 50 50 50 50 50 50 
50 50 50 50 50 50 50 50 50 
50 50 50 50 50 50 50 50 50 
50 50 50 50 50 50 50 50 50 
50 50 50 50 50 50 50 50 50 
50 50 50 50 50 50 50 50 50 
50 50 50 50 50 50 50 50 50 
50 50 50 50 50 50 50 50 50 
50 50 50 50 50 50 50 50 50 
50 50 50 50 50 50 50 50 50 
50 50 50 50 50 50 50 50 50 
50 50 50 50 50 50 50 50 50 
50 50 50 50 50 50 50 50 50 
50 50 50 50 50 50 50 50 50 
50 50 50 50 50 50 
omega 3 285 double
-3.08944e-05 -1.22423e-05 9.12333e-05 -0.000105423 -3.72581e-05 6.57242e-06 5.12195e-05 -9.18343e-05 -0.000165363 
5.84844e-05 -9.13833e-05 6.09122e-06 -5.98282e-05 -0.000118197 0.000124325 -3.74479e-06 -0.000107725 2.52706e-06 
8.27431e-05 -9.519e-05 0.000160118 4.40465e-05 1.48324e-05 0.000115605 -0.000132138 5.91521e-05 0.000187231 
1.12238e-05 4.34129e-05 -0.000111406 -4.33718e-05 0.000138482 0.000125886 0.000102102 6.8503e-05 0.000593881 
7.02169e-07 -0.000271577 -0.000304765 -2.31735e-05 -8.46562e-05 5.18405e-05 -2.54832e-05 -1.60833e-05 0.000189345 
6.7422e-05 -9.07006e-05 -3.10944e-05 -3.49024e-05 -7.75596e-05 -0.00018492 -0.00020617 -5.77643e-05 0.000100727 
-0.000127015 -0.000124694 0.000161251 1.33971e-05 0.000124314 5.45704e-05 -2.15324e-06 -0.000168059 7.16195e-05 
0.000106967 1.10112e-05 -1.20685e-05 8.58537e-05 -1.3773e-05 0.000108304 -5.74541e-05 0.000143766 6.19072e-05 
0.000168204 0.000344366 0.000321991 -0.000143733 7.41436e-05 2.59193e-05 -9.87639e-06 1.81785e-06 -2.15021e-05 
-0.000121439 -0.000252283 -0.000230392 3.52922e-05 9.41553e-05 1.6872e-05 3.91472e-05 9.86641e-05 -3.17735e-05 
1.99985e-05 -0.000157339 4.63326e-05 4.74999e-05 3.60803e-05 5.60784e-05 -3.21558e-05 -6.76385e-05 -0.000194413 
-3.28984e-05 -5.39608e-05 -7.62659e-06 -5.94777e-05 -6.27806e-05 5.12917e-05 9.39177e-05 6.4761e-05 -0.000243824 
1.83612e-05 8.46155e-05 0.000256968 -0.000243062 -5.86868e-05 -6.04792e-05 0.000331736 -5.25495e-05 -3.44055e-05 
2.59988e-05 3.84274e-05 0.000378591 -0.000244977 0.000570993 2.93035e-06 -0.000524798 -0.000108686 0.000279281 
-0.000124885 0.000150746 -9.02094e-05 0.000562916 0.000257804 9.19929e-05 -0.00010431 0.000263634 0.000158143 
0.000369009 2.25042e-05 -0.00021485 -8.71663e-05 -0.000202732 1.43929e-05 1.5795e-05 -4.08342e-05 5.13628e-05 
4.94392e-05 -0.00027165 -4.8757e-05 -0.000873775 0.00119062 -0.000287679 -5.04659e-05 0.000512726 -5.0881e-05 
-4.40015e-05 0.000127324 0.000374136 2.72654e-05 0.000122214 -0.000119142 -0.000176043 0.000204397 -0.000210318 
0.000645516 -0.000123065 -0.000122045 -0.000344848 0.000994448 0.000337232 1.65799e-05 0.000108404 1.464e-05 
8.33649e-05 -9.63367e-05 -0.00015724 0.000195141 0.000222042 0.000217157 0.000102476 -8.53811e-05 -4.63264e-05 
6.01423e-05 -4.76742e-06 4.56759e-05 8.38259e-05 -7.63004e-05 -0.000180148 -3.43222e-05 -4.42379e-05 8.29011e-05 
0.000151951 -3.61467e-05 0.000101592 -0.000200901 0.000324675 -6.0495e-05 -8.27165e-05 -8.10391e-05 0.000134237 
0.000601299 -0.000404298 0.000113407 0.00040708 -1.54445e-05 5.89151e-05 0.000923351 0.000792787 -3.17632e-05 
-0.000264064 -0.000139734 0.000229484 -1.05426e-06 -0.000199121 -1.56153e-05 0.000262836 0.000611869 2.49659e-05 
0.000773667 0.000563311 0.000195373 -0.0001289 -0.000110966 4.10068e-05 -3.68284e-05 0.000169145 -7.21401e-06 
0.000132109 -0.000261569 1.7777e-05 7.19252e-05 -6.16532e-05 -0.000124008 -0.000890031 0.000429232 0.000245432 
-0.000214471 7.70952e-05 -7.66952e-05 9.80061e-05 -0.000167199 0.000102077 -0.000269123 0.000647797 8.24442e-05 
0.00024469 -0.000319641 -0.000270995 9.13788e-05 -0.000148539 -7.41141e-05 -7.6904e-05 4.01077e-05 0.000139369 
-0.000455963 -0.000288898 0.000263268 -0.000366692 -0.000254662 -0.000211468 2.75222e-05 -0.000264041 0.000128186 
-0.000104071 -0.000188895 -0.000275716 -0.000431764 0.000132831 0.000387422 -0.000726729 0.000704847 7.26861e-07 
-8.13111e-05 -0.000145704 4.49527e-05 0.000211847 -7.41224e-06 -4.64937e-05 -0.000212588 0.000133177 0.000257489 
0.000124389 1.63246e-05 -7.47452e-05 0.000601175 -0.000475133 0.000430283 -0.000487162 -0.000699984 -0.00016082 
7.62708e-05 6.47644e-05 0.000216268 -0.000147826 -2.54224e-07 0.000205657 -0.000223677 0.000265924 6.22595e-06 
0.000130066 -0.000103882 9.21307e-05 -5.04029e-05 6.92419e-05 6.38881e-05 -1.44133e-05 -7.34896e-05 0.000176628 
7.22795e-05 0.000357232 -0.00010698 0.000211762 0.000652282 3.9471e-05 -7.31367e-05 -5.4102e-05 -0.000275226 
0.000397587 0.000318981 0.000115489 -0.000146974 -0.000530258 0.000364043 -0.000705608 -0.000231552 -0.000274649 
0.000624252 1.86397e-05 1.38966e-05 -4.93809e-05 0.00010318 -0.000502057 0.000372627 -7.02113e-06 0.000463973 