# vtk DataFile Version 4.0
Generated by LIGGGHTS
ASCII
DATASET POLYDATA
POINTS 1368 float
-379.426 -380.878 49.9792 -460.662 -439.195 49.9605 -256.79 -470.421 49.9832 
-90.5778 -363.732 49.9681 -165.229 -430.224 49.9428 90.9305 -486.882 49.9247 
125.614 -361.667 49.9468 25.3688 -411.403 49.9743 182.699 -444.616 49.9935 
221.875 -334.666 49.948 284.172 -412.832 49.9783 440.597 -454.973 49.9317 
377.611 -377.358 49.9389 476.334 -361.587 49.9808 -442.457 -303.247 49.99 
-374.089 -230.284 49.9423 -311.062 -307.864 49.9527 -275.458 -213.999 49.9421 
-175.586 -209.717 49.9559 -174.645 -309.683 49.9587 -87.0906 -261.401 49.9621 
-3.02662 -315.546 49.9524 1.83156 -215.695 49.9544 85.9001 -269.917 49.9747 
270.239 -195.725 49.9326 182.148 -242.948 49.9601 313.36 -286.569 49.964 
370.172 -193.829 49.9498 476.622 -206.596 49.9848 413.315 -283.982 49.9595 
-441.441 -149.282 49.9604 -479.844 -53.635 49.9739 -379.795 -45.1253 49.9359 
-339.34 -136.555 49.9733 -191.294 -10.4702 49.9679 -186.081 -110.305 49.9757 
-280.409 -55.7935 49.927 -82.1733 -161.522 49.9254 -98.1093 -62.8033 49.976 
94.4253 -163.962 49.9835 140.324 -75.1127 49.9401 6.77033 -115.829 49.9506 
308.637 -3.59224 49.9562 240.321 -76.5809 49.989 430.359 -9.5392 49.9795 
439.185 -112.46 49.9935 337.714 -99.2583 49.9939 -449.948 149.334 49.9763 
-361.619 102.494 49.9635 -437.094 36.8111 49.9514 -265.95 143.493 49.9704 
-277.445 44.1611 49.9752 -24.1419 4.45621 49.9664 -150.579 109.081 49.9126 
-29.4038 104.292 49.9779 75.7773 1.24147 49.9527 70.5434 101.423 49.9662 
267.315 87.4355 49.9329 198.572 14.8265 49.9497 170.087 110.646 49.9412 
474.192 84.1892 49.9689 373.362 72.6239 49.9855 413.542 164.186 49.9709 
-364.931 202.398 49.9487 -425.25 282.132 49.9614 -181.701 204.059 49.935 
-273.678 243.19 49.9773 -205.851 316.66 49.9773 -113.854 277.5 49.9757 
-12.282 247.816 49.9612 80.6463 210.817 49.9901 64.413 313.977 49.9935 
244.85 291.053 49.9503 187.704 209.039 49.9795 285.557 185.766 49.9935 
489.678 229.035 49.9437 342.195 268.368 49.956 432.579 311.112 49.9909 
-387.12 393.748 49.9549 -482.591 364.039 49.9517 -486.095 464.104 49.979 
-386.447 493.779 49.956 -303.781 338.517 49.9817 -197.798 446.153 49.915 
-297.61 438.31 49.997 -2.43126 476.727 49.9721 -25.9053 379.512 49.9467 
-102.431 476.04 49.9486 -125.841 376.747 49.9734 75.016 413.42 49.9935 
157.683 350.303 49.9807 259.633 490.273 49.9446 249.06 390.896 49.9291 
168.232 449.735 49.9486 359.332 482.613 49.9891 429.16 411.045 49.9713 
-413.381 -460.141 135.493 -454.885 -370 123.39 -380.953 -383.262 190.552 
-321.548 -424.259 118.997 -243.744 -375.713 79.2374 -222.338 -423.43 164.439 
-288.085 -348.199 174.616 -136.183 -380.579 137.321 -56.9881 -446.765 94.283 
-142.679 -480.284 133.435 -50.3332 -474.911 189.956 16.2976 -375.553 142.869 
117.533 -426.854 125.263 30.8939 -476.268 131.664 182.583 -479.934 179.473 
210.681 -391.128 131.654 274.296 -467.833 139.486 301.834 -350.403 126.052 
370.387 -447.583 120.727 466.048 -428.007 142.73 400.143 -352.842 144.159 
-376.795 -307.632 125.279 -448.088 -226.718 116.987 -451.008 -300.347 195.651 
-193.573 -321.497 194.021 -324.6 -223.112 136.498 -242.492 -280.189 117.214 
-145.739 -259.381 131.378 -60.8662 -312.989 131.467 -57.2821 -212.775 132.087 
105.79 -329.074 142.36 121.177 -219.466 128.725 28.1624 -267.04 131.59 
31.6772 -167.137 132.061 197.913 -290.751 136.488 286.142 -243.784 136.111 
206.321 -199.889 177.33 479.154 -294.874 124.373 399.986 -234.936 136.075 
485.913 -220.797 191.795 -392.908 -145.386 137.26 -430.103 -45.0837 136.268 
-215.974 -166.387 195.798 -329.21 -68.3286 136.266 -260.469 -136.581 111.4 
-232.189 -44.0746 136.649 -313.643 -145.236 198.178 -142.763 -153.624 128.992 
-133.054 -55.1705 143.33 -51.557 -111.757 131.022 24.2148 -47.2343 120.558 
112.98 -109.509 139.694 98.8744 -20.4498 182.839 184.054 -39.5735 132.519 
189.205 -152.076 91.0008 284.772 -143.844 134.085 283.801 -43.9947 137.956 
221.075 -103.6 199.762 494.782 -145.275 126.835 384.503 -136.257 130.368 
446.64 -58.131 135.823 369.378 -65.0969 198.908 -352.121 26.4056 114.057 
-422.999 95.1155 129.916 -499.911 25.8842 126.931 -311.671 118.018 135.167 
-206.134 61.3342 117.905 -278.876 35.6839 181.463 -213.687 159.75 133.627 
-49.6875 1.79153 168.532 -110.548 28.7863 93.9688 -110.776 116.883 141.226 
-23.2405 111.81 189.182 23.6812 52.6977 123.598 132.771 47.4651 117.809 
76.6565 110.436 185.682 24.9353 160.779 116.259 132.078 166.63 123.496 
175.474 97.3547 193.159 239.017 45.3397 136.139 229.464 143.989 123.146 
323.044 100.878 131.778 499.99 96.0896 198.098 370.027 5.65574 128.303 
422.411 90.4808 135.265 488.188 165.251 126.882 -492.82 295.649 122.371 
-350.821 280.625 116.675 -416.665 194.749 135.108 -198.654 259.241 131.505 
-293.584 212.536 162.318 -273.926 309.909 173.46 -86.12 183.835 71.203 
-49.0626 310.586 118.559 -46.5164 218.065 156.403 -134.602 326.885 167.696 
-139.978 200.62 187.383 135.235 271.701 107.539 38.9887 265.781 133.858 
226.786 243.091 135.716 316.208 199.582 146.058 312.064 299.301 140.202 
398.728 168.278 193.407 405.748 235.405 119.689 471.645 236.69 194.825 
406.44 331.827 146.054 -486.535 495.937 187.579 -428.277 351.705 174.194 
-427.823 441.228 127.928 -339.533 377.992 136.452 -335.003 477.835 134.15 
-235.151 481.764 135.476 -242.239 383.994 114.314 -151.659 420.212 136.212 
-52.3251 437.196 127.194 -49.6579 368.671 199.929 114.602 463.185 133.203 
26.2078 374.37 135.086 125.274 364.352 143.764 16.2421 450.964 198.579 
222.341 342.906 133.427 225.653 443.604 131.572 293.845 384.232 189.731 
341.802 376.795 84.4612 486.367 391.64 140.852 438.598 477.757 123.83 
342.891 459.767 146.376 -412.556 -447.622 261.26 -418.474 -349.049 276.673 
-495.653 -385.386 224.606 -331.104 -395.744 289.987 -321.704 -460.874 212.019 
-236.125 -393.91 258.924 -191.215 -461.387 317.413 -231.111 -497.486 233.172 
-94.403 -436.519 316.385 -4.50159 -414.465 278.733 -64.8304 -377.599 207.659 
-141.935 -362.169 269.466 -141.161 -453.954 229.813 68.3518 -430.293 212.19 
57.3925 -485.994 311.13 154.525 -379.641 213.539 92.2044 -374.382 291.579 
169.573 -456.432 275.767 251.998 -426.559 227.737 296.909 -469.741 305.885 
294.113 -366.789 295.918 198.153 -338.804 293.668 224.077 -417.288 349.893 
491.205 -468.637 278.382 406.51 -469.927 211.23 373.938 -378.999 237 
494.622 -379.284 323.912 390.669 -367.978 334.931 396.656 -464.769 310.602 
-355.266 -292.359 223.294 -416.978 -207.695 211.655 -460.247 -258.735 286.07 
-367.158 -282.826 331.134 -337.823 -207.224 272.728 -409.26 -192.709 341.158 
-279.653 -309.888 291.11 -264.443 -252.514 210.718 -178.624 -234.514 258.699 
-189.177 -300.847 332.768 -252.661 -218.316 323.883 -76.5058 -228.771 295.447 
-14.1621 -240.504 218.153 -103.233 -285.853 217.844 -95.6801 -172.441 215.133 
-38.6386 -320.757 285.645 45.1826 -320.88 221.445 141.962 -274.102 217.655 
129.946 -269.49 316.805 76.5663 -198.492 215.684 89.1066 -171.094 310.97 
31.9467 -252.961 305.985 253.534 -328.08 210.694 180.165 -193.239 276.079 
266.1 -236.759 249.338 226.911 -254.759 339.534 330.648 -184.916 305.375 
346.944 -289.836 200.67 352.986 -282.194 300.129 341.01 -189.609 202.884 
416.574 -214.247 263.489 443.34 -306.27 221.362 450.76 -289.546 319.648 
-366.406 -8.02931 206.809 -459.206 -108.544 207.774 -374.299 -93.3227 258.333 
-490.928 -163.612 284.905 -432.842 -95.6056 339.329 -406.732 -0.58372 298.14 
-279.726 -54.8078 223.916 -244.785 -127.341 283.181 -314.776 -35.6831 315.557 
-210.462 -33.3499 292.761 -328.199 -132.175 338.078 -152.556 -153.861 311.676 
-72.6222 -94.9853 323.307 -12.84 -155.665 270.967 -158.201 -93.3775 232.245 
-59.3778 -79.8391 225.401 -14.6185 -13.1429 306.028 -105.546 -1.14544 266.22 
36.6341 -98.9742 205.162 129.484 -115.94 238.039 77.4095 -40.7197 278.328 
25.489 -97.1807 342.412 169.997 -6.92329 325.561 206.606 -95.8481 298.352 
299.818 -100.68 261.271 271.016 -21.0261 314.35 192.419 -12.1579 228.282 
479.855 -62.5867 272.377 442.961 -132.681 211.388 371.438 -2.84638 277.088 
393.708 -108.065 294.815 -465.792 0.89067 217.512 -480.942 66.1089 291.718 
-405.551 81.602 227.423 -481.398 161.647 321.146 -382.905 114.239 319.154 
-179.864 11.9583 200.735 -319.736 53.6358 270.901 -259.58 134.754 218.85 
-217.215 65.106 276.721 -129.72 90.9804 235.862 -41.8227 80.046 282.147 
-134.039 79.8382 335.134 26.0994 32.9514 225.842 29.7898 165.251 254.936 
119.05 48.1834 259.457 50.6373 90.9682 318.495 126.216 146.854 273.833 
269.609 125.094 212.756 289.502 10.7713 221.391 214.574 70.7676 281.203 
311.167 71.1456 306.908 239.645 165.88 299.155 436.279 15.0688 203.13 
362.056 79.5508 221.276 437.6 120.651 272.224 432.934 46.2224 338.788 
375.684 134.558 349.456 -353.742 167.098 227.971 -395.718 262.542 205.494 
-452.952 179.452 226.987 -471.208 267.435 270.847 -398.903 321.211 314.146 
-395.769 212.607 306.786 -267.912 176.77 309.186 -222.529 240.9 226.826 
-314.884 252.169 263.344 -215.603 319.871 287.747 -173.18 170.543 277.907 
-302.456 315.305 339.83 -175.224 246.712 342.595 -69.8657 172.989 253.071 
-88.6976 270.892 236.637 -90.692 299.11 332.538 -20.4151 229.222 319.446 
-102.006 178.819 347.638 97.2705 219.653 200.737 10.4095 259.944 229.455 
93.5083 271.485 286.125 69.6342 192.462 342.489 165.701 292.574 200.454 
192.625 193.296 215.326 275.129 249.27 222.987 192.13 254.779 294.156 
322.083 299.672 295.427 333.315 181.45 267.857 373.394 263.386 211.028 
443.234 219.01 289.004 419.167 312.271 315.805 -491.739 356.537 325.56 
-389.624 465.755 216.983 -367.928 415.298 300.485 -468.082 410.341 244.687 
-450.429 465.668 326.052 -346.405 345.22 232.532 -304.685 495.913 300.547 
-296.503 429.585 212.776 -209.396 380.708 208.663 -177.344 441.163 290.985 
-268.76 402.746 305.008 -10.8968 338.713 287.156 -106.42 448.291 220.844 
-127.513 359.499 261.914 -35.3504 490.187 282.4 -70.1942 408.198 327.724 
140.69 359.512 290.116 50.8462 417.314 286.055 106.912 479.504 231.474 
65.8911 342.707 221.226 136.132 453.621 323.495 178.459 411.921 213.815 
[...]
POINT_DATA 1368
FIELD FieldData 7
id 1 1368 int
92 20 9 74 35 73 25 53 19 
61 37 101 79 26 29 119 22 31 
82 52 36 84 99 14 4 60 97 
41 80 102 72 27 34 15 110 17 
18 28 142 111 24 85 105 89 33 
39 43 58 91 81 8 69 11 1 
104 21 93 134 46 32 44 5 76 
87 56 23 86 45 129 30 57 100 
2 95 48 3 59 16 10 38 50 
12 63 70 42 7 71 66 62 51 
13 114 6 54 40 55 77 154 249 
106 155 173 157 67 96 127 230 228 
118 185 192 122 171 164 88 175 207 
140 159 279 120 183 161 116 141 112 
167 124 193 169 208 227 216 90 150 
214 133 170 211 68 103 221 240 78 
146 166 123 224 200 151 132 181 245 
272 108 47 158 163 98 109 75 138 
152 215 197 210 165 172 271 117 196 
248 115 107 191 178 113 130 217 223 
156 160 143 65 204 137 219 190 136 
121 176 168 187 145 202 139 194 182 
225 131 162 269 281 256 94 184 125 
147 213 128 220 198 144 64 149 285 
212 148 257 153 49 83 188 393 296 
199 379 195 273 381 270 376 334 254 
290 284 239 300 126 365 345 252 320 
308 317 400 303 246 286 347 439 357 
267 251 352 432 326 426 335 276 307 
389 445 323 189 277 292 306 233 205 
339 186 331 373 218 236 262 364 351 
201 396 174 238 255 318 244 259 293 
366 424 362 302 234 380 359 367 363 
370 324 241 342 392 304 283 301 329 
374 340 297 309 385 319 268 179 287 
388 341 265 258 298 402 229 282 177 
235 253 315 350 180 294 397 346 395 
226 242 289 338 368 209 206 260 356 
358 266 278 330 328 390 401 386 247 
295 384 310 353 399 332 321 403 414 
448 135 263 360 460 325 312 275 313 
291 231 250 237 427 354 264 311 314 
428 232 421 222 280 316 337 377 327 
305 387 349 383 322 203 243 344 261 
336 333 355 382 299 274 288 372 343 
423 453 469 549 534 572 440 411 456 
458 418 567 369 501 484 559 615 624 
430 431 509 472 600 514 450 481 557 
574 556 564 508 544 623 480 498 530 
592 520 553 512 405 478 523 604 570 
443 416 447 536 524 517 542 513 409 
474 516 455 429 420 601 596 595 371 
491 489 582 410 505 482 616 649 538 
408 394 464 528 496 470 522 551 519 
415 378 488 510 548 483 554 404 504 
532 562 476 413 471 537 575 477 507 
452 436 412 444 497 611 451 487 468 
555 525 361 419 462 540 526 493 454 
398 527 597 425 494 490 591 593 434 
459 467 588 547 461 495 475 546 566 
437 535 485 417 406 492 463 521 457 
438 473 603 531 348 511 422 502 499 
466 581 626 550 449 407 500 533 552 
563 433 435 391 518 479 503 442 561 
465 486 375 565 558 568 578 506 541 
441 446 620 731 678 800 690 843 630 
781 699 663 779 515 708 707 599 606 
632 661 713 719 758 621 725 629 721 
715 717 631 722 730 784 792 645 740 
757 709 701 751 666 761 753 780 653 
585 672 718 669 660 685 712 742 579 
573 668 641 696 755 676 694 738 684 
560 605 654 714 726 646 674 644 716 
797 580 642 590 609 681 687 602 583 
634 706 733 643 622 636 665 760 651 
543 594 732 802 798 529 656 776 723 
586 625 652 689 627 569 617 686 795 
613 589 614 693 741 637 670 667 729 
577 704 739 763 683 648 735 664 610 
737 724 700 639 677 598 612 618 655 
695 691 711 571 539 705 675 671 608 
692 778 635 545 576 633 749 744 754 
688 587 659 638 697 787 658 607 647 
698 727 734 679 673 682 762 619 584 
657 640 747 703 628 662 702 785 720 
680 650 736 810 878 884 995 811 839 
864 951 844 883 808 902 972 801 822 
891 901 895 821 898 879 769 914 885 
882 816 928 869 828 903 865 954 932 
766 947 812 889 924 799 887 851 855 
948 933 911 746 765 845 896 871 953 
806 764 767 858 880 961 841 786 892 
944 809 752 904 921 837 750 817 827 
867 950 906 773 756 850 952 789 710 
759 832 925 917 849 833 872 873 846 
852 870 877 775 854 909 946 815 929 
886 748 728 796 847 860 777 824 805 
866 743 835 829 945 868 814 770 842 
893 966 876 831 818 772 958 788 807 
820 825 942 894 794 783 859 923 853 
836 774 848 863 968 782 819 888 957 
941 908 791 823 856 927 939 830 881 
922 890 771 813 862 912 943 965 745 
804 838 793 875 899 803 897 861 834 
900 959 913 826 905 840 768 907 960 
1012 938 874 790 857 978 1026 973 1125 
916 1069 1133 1039 990 1134 993 1109 1014 
979 1021 1037 1049 1001 1135 1131 984 937 
971 1030 982 1081 1112 1073 1044 956 1065 
1032 1020 1083 1099 1103 967 988 1071 1060 
934 963 1019 1058 1130 1000 1176 1034 1082 
1091 1115 1018 1007 1048 1101 1092 962 1075 
1079 1129 1080 935 918 999 1057 1077 1027 
1100 1005 992 1043 1197 980 915 977 983 
955 1062 1053 1182 1003 1024 1035 1033 1078 
1136 1009 936 974 1036 1072 1093 1008 930 
1006 1040 1106 1117 1002 949 986 1052 1116 
1070 920 969 987 1029 1051 1017 1128 1038 
1054 931 1031 1055 1059 998 1046 981 1098 
970 985 1074 1028 1013 989 1067 1056 997 
1104 1068 994 1061 1011 1042 1025 1111 1186 
964 1010 1022 1114 1047 926 1004 1094 975 
919 976 996 1076 991 1045 1066 1138 910 
1016 1023 1063 1113 1110 1064 1015 940 1146 
1132 1241 1124 1126 1177 1209 1174 1208 1121 
1137 1191 1206 1213 1172 1148 1297 1210 1084 
1219 1244 1153 1253 1196 1221 1306 1189 1167 
1248 1205 1151 1119 1139 1118 1160 1237 1120 
1140 1245 1211 1231 1143 1254 1195 1235 1158 
1145 1204 1127 1220 1152 1168 1095 1183 1162 
1161 1203 1252 1233 1107 1243 1171 1249 1230 
1097 1163 1154 1228 1088 1194 1242 1293 1250 
1251 1224 1178 1123 1190 1223 1222 1141 1212 
1240 1214 1229 1232 1096 1200 1234 1175 1165 
1086 1187 1207 1144 1201 1217 1122 1180 1291 
1181 1173 1041 1192 1226 1170 1087 1156 1102 
1179 1150 1142 1218 1090 1108 1188 1294 1310 
1105 1159 1225 1227 1155 1198 1281 1193 1185 
1157 1050 1184 1216 1247 1089 1169 1164 1202 
1278 1302 1199 1166 1149 1215 1246 1085 1147 
1239 1236 1266 1308 1272 1262 1238 1301 1267 
1298 1263 1275 1270 1300 1309 1287 1283 1258 
1255 1274 1280 1295 1307 1268 1269 1290 1299 
1256 1265 1279 1257 1284 1289 1273 1261 1303 
1259 1311 1304 1282 1286 1285 1288 1296 1264 
1276 1330 1260 1360 1277 1271 1305 1361 1292 
1366 1365 1368 1362 1335 1332 1331 1347 1315 
1321 1326 1356 1338 1314 1336 1329 1325 1354 
1367 1320 1339 1348 1337 1359 1364 1353 1316 
1327 1319 1312 1333 1340 1357 1363 1317 1344 
1350 1358 1341 1342 1351 1343 1352 1324 1322 
1355 1345 1349 1323 1328 1318 1313 1334 1346 

type 1 1368 int
1 1 1 1 1 1 1 1 1 
1 1 1 1 1 1 1 1 1 
1 1 1 1 1 1 1 1 1 
1 1 1 1 1 1 1 1 1 
1 1 1 1 1 1 1 1 1 
1 1 1 1 1 1 1 1 1 
1 1 1 1 1 1 1 1 1 
1 1 1 1 1 1 1 1 1 
1 1 1 1 1 1 1 1 1 
1 1 1 1 1 1 1 1 1 
1 1 1 1 1 1 1 1 1 
1 1 1 1 1 1 1 1 1 
1 1 1 1 1 1 1 1 1 
1 1 1 1 1 1 1 1 1 
1 1 1 1 1 1 1 1 1 
1 1 1 1 1 1 1 1 1 
1 1 1 1 1 1 1 1 1 
1 1 1 1 1 1 1 1 1 
1 1 1 1 1 1 1 1 1 
1 1 1 1 1 1 1 1 1 
1 1 1 1 1 1 1 1 1 
1 1 1 1 1 1 1 1 1 
1 1 1 1 1 1 1 1 1 
1 1 1 1 1 1 1 1 1 
1 1 1 1 1 1 1 1 1 
1 1 1 1 1 1 1 1 1 
1 1 1 1 1 1 1 1 1 
1 1 1 1 1 1 1 1 1 
1 1 1 1 1 1 1 1 1 
1 1 1 1 1 1 1 1 1 
1 1 1 1 1 1 1 1 1 
1 1 1 1 1 1 1 1 1 
1 1 1 1 1 1 1 1 1 
1 1 1 1 1 1 1 1 1 
1 1 1 1 1 1 1 1 1 
1 1 1 1 1 1 1 1 1 
1 1 1 1 1 1 1 1 1 
1 1 1 1 1 1 1 1 1 
1 1 1 1 1 1 1 1 1 
1 1 1 1 1 1 1 1 1 
1 1 1 1 1 1 1 1 1 
1 1 1 1 1 1 1 1 1 
1 1 1 1 1 1 1 1 1 
1 1 1 1 1 1 1 1 1 
1 1 1 1 1 1 1 1 1 
1 1 1 1 1 1 1 1 1 
1 1 1 1 1 1 1 1 1 
1 1 1 1 1 1 1 1 1 
1 1 1 1 1 1 1 1 1 
1 1 1 1 1 1 1 1 1 
1 1 1 1 1 1 1 1 1 
1 1 1 1 1 1 1 1 1 
1 1 1 1 1 1 1 1 1 
1 1 1 1 1 1 1 1 1 
1 1 1 1 1 1 1 1 1 
1 1 1 1 1 1 1 1 1 
1 1 1 1 1 1 1 1 1 
1 1 1 1 1 1 1 1 1 
1 1 1 1 1 1 1 1 1 
1 1 1 1 1 1 1 1 1 
1 1 1 1 1 1 1 1 1 
1 1 1 1 1 1 1 1 1 
1 1 1 1 1 1 1 1 1 
1 1 1 1 1 1 1 1 1 
1 1 1 1 1 1 1 1 1 
1 1 1 1 1 1 1 1 1 
1 1 1 1 1 1 1 1 1 
1 1 1 1 1 1 1 1 1 
1 1 1 1 1 1 1 1 1 
1 1 1 1 1 1 1 1 1 
1 1 1 1 1 1 1 1 1 
1 1 1 1 1 1 1 1 1 
1 1 1 1 1 1 1 1 1 
1 1 1 1 1 1 1 1 1 
1 1 1 1 1 1 1 1 1 
1 1 1 1 1 1 1 1 1 
1 1 1 1 1 1 1 1 1 
1 1 1 1 1 1 1 1 1 
1 1 1 1 1 1 1 1 1 
1 1 1 1 1 1 1 1 1 
1 1 1 1 1 1 1 1 1 
1 1 1 1 1 1 1 1 1 
1 1 1 1 1 1 1 1 1 
1 1 1 1 1 1 1 1 1 
1 1 1 1 1 1 1 1 1 
1 1 1 1 1 1 1 1 1 
1 1 1 1 1 1 1 1 1 
1 1 1 1 1 1 1 1 1 
1 1 1 1 1 1 1 1 1 
1 1 1 1 1 1 1 1 1 
1 1 1 1 1 1 1 1 1 
1 1 1 1 1 1 1 1 1 
1 1 1 1 1 1 1 1 1 
1 1 1 1 1 1 1 1 1 
1 1 1 1 1 1 1 1 1 
1 1 1 1 1 1 1 1 1 
1 1 1 1 1 1 1 1 1 
1 1 1 1 1 1 1 1 1 
1 1 1 1 1 1 1 1 1 
1 1 1 1 1 1 1 1 1 
1 1 1 1 1 1 1 1 1 
1 1 1 1 1 1 1 1 1 
1 1 1 1 1 1 1 1 1 
1 1 1 1 1 1 1 1 1 
1 1 1 1 1 1 1 1 1 
1 1 1 1 1 1 1 1 1 
1 1 1 1 1 1 1 1 1 
1 1 1 1 1 1 1 1 1 
1 1 1 1 1 1 1 1 1 
1 1 1 1 1 1 1 1 1 
1 1 1 1 1 1 1 1 1 
1 1 1 1 1 1 1 1 1 
1 1 1 1 1 1 1 1 1 
1 1 1 1 1 1 1 1 1 
1 1 1 1 1 1 1 1 1 
1 1 1 1 1 1 1 1 1 
1 1 1 1 1 1 1 1 1 
1 1 1 1 1 1 1 1 1 
1 1 1 1 1 1 1 1 1 
1 1 1 1 1 1 1 1 1 
1 1 1 1 1 1 1 1 1 
1 1 1 1 1 1 1 1 1 
1 1 1 1 1 1 1 1 1 
1 1 1 1 1 1 1 1 1 
1 1 1 1 1 1 1 1 1 
1 1 1 1 1 1 1 1 1 
1 1 1 1 1 1 1 1 1 
1 1 1 1 1 1 1 1 1 
1 1 1 1 1 1 1 1 1 
1 1 1 1 1 1 1 1 1 
1 1 1 1 1 1 1 1 1 
1 1 1 1 1 1 1 1 1 
1 1 1 1 1 1 1 1 1 
1 1 1 1 1 1 1 1 1 
1 1 1 1 1 1 1 1 1 
1 1 1 1 1 1 1 1 1 
1 1 1 1 1 1 1 1 1 
1 1 1 1 1 1 1 1 1 
1 1 1 1 1 1 1 1 1 
1 1 1 1 1 1 1 1 1 
1 1 1 1 1 1 1 1 1 
1 1 1 1 1 1 1 1 1 
1 1 1 1 1 1 1 1 1 
1 1 1 1 1 1 1 1 1 
1 1 1 1 1 1 1 1 1 
1 1 1 1 1 1 1 1 1 
1 1 1 1 1 1 1 1 1 
1 1 1 1 1 1 1 1 1 
1 1 1 1 1 1 1 1 1 
1 1 1 1 1 1 1 1 1 
1 1 1 1 1 1 1 1 1 
1 1 1 1 1 1 1 1 1 

i 3 1368 int
0 0 0 0 0 0 0 1 0 
0 0 0 0 0 0 0 1 0 
0 1 0 0 0 0 0 0 0 
0 0 0 0 0 0 0 1 0 
0 0 0 -1 0 0 1 0 0 
0 0 0 1 0 0 0 0 0 
0 0 0 0 0 0 0 0 0 
0 0 0 0 0 0 0 0 0 
0 0 0 0 0 0 0 0 0 
0 0 0 -1 0 0 0 0 0 
0 0 0 1 0 0 0 0 0 
0 0 0 0 0 0 0 0 0 
0 0 0 0 0 0 0 0 0 
0 0 0 0 0 0 0 0 0 
0 0 0 0 0 0 -1 0 0 
-1 0 0 0 0 0 0 0 0 
0 0 0 0 0 0 0 0 0 
0 0 0 0 0 0 0 0 0 
0 0 0 0 0 0 0 0 0 
0 0 0 0 0 0 0 0 0 
-1 0 0 0 0 0 0 0 0 
0 0 0 0 0 0 0 0 0 
0 0 0 0 0 0 0 0 0 
0 0 0 0 0 0 0 0 0 
0 0 0 0 0 0 0 0 0 
-1 0 0 0 0 0 -1 0 0 
0 0 0 1 0 0 0 0 0 
0 -1 0 0 0 0 0 0 0 
0 0 0 0 -1 0 0 0 0 
0 -1 0 0 0 0 0 0 0 
0 0 0 0 0 0 0 0 0 
0 0 0 0 -1 0 0 -1 0 
0 0 0 0 0 0 0 0 0 
0 1 0 0 0 0 0 0 0 
1 0 0 0 1 0 0 1 0 
0 0 0 0 1 0 0 0 0 
0 0 0 0 0 0 0 0 0 
0 0 0 0 0 0 0 0 0 
0 0 0 0 1 0 0 0 0 
0 0 0 0 0 0 0 0 0 
0 0 0 0 0 0 0 0 0 
0 0 0 0 0 0 0 0 0 
0 0 0 0 0 0 0 0 0 
0 0 0 0 0 0 0 0 0 
0 0 0 0 0 0 0 0 0 
-1 0 0 0 0 0 0 0 0 
0 0 0 0 0 0 0 0 0 
0 0 0 0 0 0 0 0 0 
0 0 0 0 0 0 0 0 0 
0 0 0 0 0 0 0 0 0 
0 0 0 0 0 0 0 0 0 
0 0 0 0 0 0 0 0 0 
0 0 0 0 0 0 0 0 0 
0 0 0 1 0 0 0 0 0 
0 0 0 0 0 0 0 0 0 
0 0 0 0 0 0 0 0 0 
0 0 0 0 0 0 0 0 0 
0 0 0 0 0 0 0 0 0 
0 0 0 0 0 0 0 0 0 
0 0 0 -1 0 0 0 0 0 
0 0 0 -1 0 0 1 0 0 
0 0 0 0 0 0 0 0 0 
0 0 0 0 0 0 0 0 0 
0 0 0 0 0 0 0 0 0 
0 0 0 0 0 0 0 0 0 
0 0 0 0 0 0 0 0 0 
0 0 0 0 0 0 -1 0 0 
0 0 0 0 0 0 0 0 0 
0 0 0 0 0 0 0 0 0 
0 0 0 0 0 0 0 -1 0 
0 0 0 0 0 0 0 0 0 
0 0 0 0 0 0 0 0 0 
0 0 0 0 0 0 0 0 0 
0 0 0 0 0 0 0 0 0 
0 0 0 0 0 0 0 0 0 
1 0 0 0 0 0 0 0 0 
0 0 0 0 0 0 0 1 0 
0 0 0 0 0 0 0 0 0 
0 0 0 0 1 0 0 0 0 
0 1 0 0 0 0 0 0 0 
0 0 0 0 0 0 0 0 0 
0 0 0 0 0 0 0 0 0 
-1 0 0 0 0 0 0 0 0 
0 0 0 0 0 0 0 0 0 
0 0 0 0 0 0 0 0 0 
0 0 0 0 0 0 1 0 0 
0 0 0 0 0 0 0 0 0 
0 0 0 0 0 0 0 0 0 
0 0 0 0 0 0 0 0 0 
0 0 0 0 0 0 0 0 0 
0 0 0 0 0 0 0 0 0 
0 0 0 0 0 0 0 0 0 
0 0 0 0 0 0 0 0 0 
-1 0 0 0 0 0 0 0 0 
0 0 0 0 0 0 -1 0 0 
0 0 0 0 0 0 0 0 0 
0 0 0 0 0 0 0 0 0 
0 0 0 0 0 0 0 0 0 
0 0 0 0 0 0 0 0 0 
0 0 0 0 0 0 0 0 0 
0 0 0 0 0 0 0 0 0 
0 0 0 0 0 0 0 0 0 
0 0 0 0 0 0 0 0 0 
0 0 0 0 0 0 0 0 0 
0 0 0 -1 0 0 0 0 0 
0 0 0 0 0 0 0 0 0 
0 0 0 0 0 0 0 0 0 
0 0 0 0 0 0 0 0 0 
0 0 0 0 0 0 0 0 0 
0 0 0 0 0 0 0 0 0 
0 0 0 0 0 0 0 0 0 
0 0 0 0 0 0 0 0 0 
0 0 0 0 0 0 -1 0 0 
0 0 0 0 0 0 0 0 0 
0 0 0 0 0 0 0 0 0 
0 0 0 0 0 0 0 0 0 
0 0 0 0 0 0 0 0 0 
0 0 0 0 0 0 0 0 0 
0 0 0 0 0 0 0 0 0 
0 0 0 0 0 0 0 0 0 
0 0 0 0 0 0 0 0 0 
0 0 0 0 0 0 0 0 0 
0 0 0 0 0 0 0 0 0 
0 0 0 0 0 0 -1 0 0 
0 0 0 0 0 0 0 0 0 
0 0 0 0 0 0 0 0 0 
1 -1 0 0 0 0 0 -1 0 
0 0 0 0 0 0 0 0 0 
0 0 0 0 0 0 0 0 0 
0 0 0 0 0 0 0 0 0 
0 0 0 0 0 0 0 -1 0 
0 0 0 0 0 0 0 0 0 
0 0 0 0 0 0 0 0 0 
0 0 0 -1 0 0 0 0 0 
0 0 0 0 0 0 -1 0 0 
0 0 0 0 1 0 0 0 0 
1 0 0 1 0 0 0 0 0 
0 0 0 0 0 0 0 0 0 
0 0 0 0 0 0 0 0 0 
0 0 0 0 0 0 0 0 0 
0 1 0 0 0 0 0 1 0 
0 0 0 0 0 0 0 0 0 
0 0 0 0 0 0 0 0 0 
0 0 0 0 0 0 0 0 0 
0 1 0 -1 1 0 -1 0 0 
0 0 0 0 0 0 0 0 0 
1 0 0 1 0 0 0 0 0 
1 0 0 0 0 0 0 0 0 
0 0 0 0 0 0 0 0 0 
0 0 0 0 0 0 0 0 0 
0 0 0 0 0 0 0 0 0 
0 0 0 0 0 0 0 0 0 
0 0 0 0 0 0 0 1 0 
0 0 0 0 0 0 0 0 0 
0 0 0 0 1 0 -1 0 0 
0 0 0 0 0 0 0 0 0 
0 0 0 0 0 0 0 0 0 
0 0 0 0 0 0 0 0 0 
0 0 0 0 0 0 0 0 0 
0 0 0 0 0 0 0 0 0 
0 0 0 0 0 0 0 0 0 
0 0 0 0 0 0 0 0 0 
0 0 0 0 0 0 0 0 0 
0 0 0 0 0 0 0 0 0 
0 0 0 0 0 0 0 0 0 
-1 0 0 0 0 0 0 0 0 
1 0 0 0 0 0 0 0 0 
0 0 0 0 0 0 0 0 0 
0 0 0 0 0 0 0 0 0 
0 0 0 0 0 0 0 0 0 
0 0 0 0 0 0 0 0 0 
0 0 0 0 0 0 0 0 0 
0 0 0 0 0 0 0 0 0 
0 0 0 0 0 0 0 0 0 
0 0 0 0 0 0 0 0 0 
0 0 0 0 0 0 0 0 0 
0 0 0 -1 0 0 0 0 0 
0 0 0 0 0 0 0 0 0 
0 0 0 0 0 0 0 0 0 
0 0 0 0 0 0 0 0 0 
0 0 0 0 0 0 0 0 0 
0 0 0 0 0 0 0 0 0 
0 0 0 0 0 0 0 0 0 
0 0 0 0 0 0 0 0 0 
0 0 0 0 0 0 0 0 0 
-1 0 0 0 0 0 0 0 0 
0 0 0 0 0 0 0 0 0 
0 -1 0 0 0 0 0 0 0 
0 0 0 0 0 0 0 0 0 
0 0 0 0 0 0 0 0 0 
0 0 0 0 0 0 0 0 0 
0 0 0 0 0 0 0 0 0 
0 0 0 0 0 0 0 0 0 
0 0 0 0 0 0 0 -1 0 
0 0 0 0 0 0 0 0 0 
0 0 0 0 0 0 0 0 0 
0 0 0 0 1 0 0 0 0 
0 0 0 0 0 0 0 0 0 
0 0 0 0 0 0 0 0 0 
0 1 0 0 0 0 0 0 0 
0 0 0 0 0 0 0 0 0 
0 0 0 0 0 0 0 0 0 
0 0 0 0 0 0 0 1 0 
0 0 0 0 0 0 0 0 0 
0 1 0 0 1 0 0 0 0 
0 0 0 0 0 0 0 0 0 
0 0 0 0 0 0 0 0 0 
0 0 0 0 0 0 0 0 0 
0 0 0 0 0 0 0 0 0 
0 0 0 0 0 0 0 0 0 
0 0 0 0 0 0 0 0 0 
0 0 0 0 0 0 0 0 0 
0 0 0 0 0 0 0 0 0 
0 0 0 0 0 0 0 0 0 
0 0 0 0 0 0 0 0 0 
0 0 0 0 0 0 0 0 0 
0 0 0 0 0 0 0 0 0 
0 0 0 1 0 0 0 0 0 
0 0 0 0 0 0 0 0 0 
0 0 0 0 0 0 0 0 0 
0 0 0 0 0 0 0 0 0 
0 0 0 0 0 0 0 0 0 
0 0 0 0 0 0 0 0 0 
0 0 0 0 0 0 0 0 0 
0 0 0 0 0 0 0 0 0 
0 0 0 0 0 0 0 0 0 
-1 0 0 0 0 0 0 0 0 
0 0 0 0 0 0 0 0 0 
0 0 0 0 0 0 0 0 0 
0 0 0 0 0 0 0 0 0 
0 0 0 0 0 0 0 0 0 
0 0 0 0 0 0 0 0 0 
0 0 0 0 0 0 0 0 0 
0 0 0 0 0 0 0 0 0 
0 0 0 0 0 0 0 0 0 
0 0 0 0 0 0 0 0 0 
0 0 0 0 0 0 0 0 0 
0 0 0 0 0 0 0 0 0 
0 0 0 0 0 0 0 0 0 
0 0 0 0 0 0 0 0 0 
0 0 0 0 0 0 0 0 0 
0 0 0 0 0 0 0 0 0 
0 0 0 0 0 0 0 0 0 
0 0 0 0 0 0 0 0 0 
0 0 0 0 0 0 0 0 0 
0 0 0 0 0 0 0 -1 0 
0 0 0 0 -1 0 0 0 0 
0 0 0 0 0 0 1 0 0 
0 0 0 0 -1 0 0 0 0 
0 0 0 0 0 0 0 0 0 
0 0 0 0 0 0 0 0 0 
0 0 0 0 0 0 0 -1 0 
0 0 0 0 0 0 0 0 0 
0 0 0 0 0 0 0 0 0 
0 0 0 0 0 0 0 0 0 
0 -1 0 0 0 0 0 0 0 
1 0 0 0 0 0 0 1 0 
0 0 0 0 0 0 0 0 0 
0 0 0 0 0 0 0 0 0 
0 0 0 0 0 0 0 1 0 
0 0 0 0 0 0 0 0 0 
0 1 0 0 0 0 0 0 0 
0 0 0 0 0 0 0 0 0 
0 0 0 0 0 0 -1 0 0 
0 0 0 0 1 0 0 0 0 
0 0 0 0 0 0 0 0 0 
0 0 0 1 0 0 0 0 0 
0 0 0 1 0 0 0 0 0 
0 0 0 0 0 0 0 0 0 
0 0 0 0 0 0 0 0 0 
0 0 0 0 0 0 0 0 0 
0 0 0 0 0 0 0 0 0 
0 0 0 0 0 0 0 0 0 
0 0 0 0 0 0 0 0 0 
0 0 0 0 0 0 0 0 0 
0 0 0 0 0 0 0 0 0 
0 0 0 0 0 0 1 0 0 
0 0 0 0 0 0 0 0 0 
0 0 0 0 0 0 0 0 0 
0 0 0 0 0 0 0 0 0 
0 0 0 0 0 0 0 0 0 
0 0 0 0 0 0 0 0 0 
0 0 0 0 0 0 0 0 0 
0 0 0 0 0 0 0 0 0 
0 0 0 0 0 0 0 0 0 
0 0 0 0 0 0 0 0 0 
1 0 0 0 0 0 0 0 0 
0 0 0 0 0 0 0 0 0 
0 0 0 0 0 0 0 0 0 
0 0 0 0 0 0 0 0 0 
0 0 0 0 0 0 0 0 0 
0 0 0 0 0 0 0 0 0 
0 0 0 0 0 0 0 0 0 
0 0 0 0 0 0 0 0 0 
0 0 0 0 0 0 0 0 0 
0 0 0 0 0 0 0 0 0 
0 0 0 0 0 0 0 0 0 
0 0 0 0 0 0 0 0 0 
0 0 0 0 0 0 0 0 0 
0 0 0 0 0 0 0 0 0 
0 0 0 0 0 0 0 0 0 
0 0 0 0 0 0 0 0 0 
0 0 0 0 0 0 0 0 0 
0 0 0 0 0 0 0 0 0 
0 0 0 0 0 0 0 0 0 
0 0 0 0 0 0 0 0 0 
0 0 0 0 0 0 0 0 0 
1 0 0 0 0 0 0 0 0 
0 0 0 0 0 0 0 -1 0 
0 0 0 0 0 0 0 0 0 
0 0 0 0 -1 0 0 0 0 
0 0 0 0 0 0 0 -1 0 
0 0 0 0 0 0 0 -1 0 
0 0 0 0 0 0 0 -1 0 
0 -1 0 0 0 0 0 0 0 
0 0 0 0 -1 0 0 0 0 
0 0 0 0 0 0 0 0 0 
0 0 0 0 0 0 0 0 0 
0 0 0 0 0 0 0 0 0 
0 1 0 0 0 0 0 0 0 
0 0 0 0 0 0 0 0 0 
0 0 0 0 0 0 0 0 0 
0 0 0 0 0 0 0 0 0 
0 0 0 0 0 0 0 0 0 
0 0 0 0 0 0 0 0 0 
0 0 0 0 0 0 1 0 0 
0 0 0 0 0 0 0 0 0 
0 0 0 0 0 0 0 0 0 
0 0 0 0 0 0 0 0 0 
0 0 0 0 0 0 0 0 0 
0 0 0 0 0 0 0 0 0 
0 0 0 0 0 0 0 0 0 
0 0 0 0 0 0 0 0 0 
0 0 0 1 0 0 0 0 0 
0 0 0 0 0 0 0 0 0 
1 0 0 0 0 0 0 0 0 
0 0 0 0 0 0 0 0 0 
0 0 0 0 0 0 0 0 0 
0 0 0 0 0 0 0 0 0 
0 0 0 0 0 0 0 0 0 
0 0 0 0 0 0 0 0 0 
0 0 0 0 0 0 0 0 0 
0 0 0 0 0 0 0 0 0 
0 0 0 0 0 0 0 0 0 
1 0 0 0 0 0 0 0 0 
0 0 0 0 0 0 0 0 0 
0 0 0 0 0 0 0 0 0 
0 0 0 0 0 0 0 0 0 
0 0 0 0 0 0 0 0 0 
0 0 0 0 0 0 0 0 0 
0 0 0 0 0 0 0 0 0 
0 0 0 0 0 0 0 0 0 
0 0 0 0 0 0 0 0 0 
0 0 0 0 0 0 0 0 0 
0 0 0 0 0 0 1 0 0 
0 0 0 0 0 0 0 0 0 
0 0 0 0 0 0 0 0 0 
0 0 0 0 0 0 0 0 0 
0 0 0 0 0 0 0 0 0 
0 0 0 0 0 0 0 0 0 
0 0 0 0 0 0 0 0 0 
0 0 0 0 0 0 0 0 0 
0 0 0 0 0 0 0 0 0 
0 0 0 0 0 0 0 0 0 
0 0 0 0 -1 0 0 0 0 
0 0 0 0 0 0 0 0 0 
0 0 0 0 0 0 0 0 0 
0 0 0 0 0 0 0 0 0 
0 -1 0 0 -1 0 0 -1 0 
0 0 0 0 0 0 0 0 0 
0 0 0 0 0 0 0 0 0 
-1 0 0 0 0 0 0 0 0 
1 0 0 0 0 0 1 0 0 
0 0 0 0 1 0 0 0 0 
0 0 0 0 0 0 0 1 0 
0 0 0 0 0 0 0 0 0 
0 0 0 0 0 0 0 0 0 
0 0 0 0 0 0 0 0 0 
0 0 0 0 0 0 0 0 0 
0 0 0 0 0 0 0 0 0 
0 0 0 0 0 0 0 0 0 
0 0 0 0 0 0 0 0 0 
0 0 0 0 0 0 0 0 0 
0 0 0 0 0 0 0 0 0 
0 0 0 0 0 0 0 0 0 
0 0 0 0 0 0 0 0 0 
0 0 0 0 0 0 0 0 0 
0 0 0 0 0 0 0 0 0 
0 0 0 0 0 0 0 0 0 
0 0 0 0 0 0 0 0 0 
0 0 0 0 0 0 0 0 0 
0 0 0 0 0 0 0 0 0 
0 0 0 0 0 0 0 0 0 
0 0 0 0 0 0 0 0 0 
-1 0 0 0 0 0 -1 0 0 
0 0 0 0 0 0 0 0 0 
0 0 0 0 0 0 0 0 0 
0 0 0 0 0 0 0 0 0 
0 0 0 0 0 0 0 0 0 
0 0 0 0 0 0 0 0 0 
0 0 0 0 0 0 0 0 0 
0 0 0 -1 0 0 0 0 0 
0 0 0 0 0 0 0 0 0 
0 0 0 0 0 0 0 0 0 
0 0 0 0 0 0 0 0 0 
0 0 0 0 0 0 0 0 0 
0 0 0 0 0 0 0 0 0 
0 0 0 0 0 0 0 0 0 
0 0 0 0 0 0 0 0 0 
-1 0 0 -1 0 0 -1 0 0 
0 0 0 0 0 0 0 0 0 
0 -1 0 0 0 0 0 0 0 
0 0 0 0 0 0 0 0 0 
0 0 0 0 -1 0 0 0 0 
0 -1 0 0 0 0 0 0 0 
0 0 0 0 0 0 0 0 0 
0 0 0 0 0 0 0 0 0 
0 0 0 0 0 0 0 0 0 
0 0 0 0 0 0 0 0 0 
0 0 0 0 0 0 0 0 0 
0 0 0 0 0 0 0 0 0 
0 0 0 0 0 0 0 0 0 
0 0 0 0 0 0 0 0 0 
0 0 0 0 0 0 0 0 0 
0 0 0 0 0 0 0 0 0 
0 0 0 0 0 0 0 0 0 
0 0 0 0 0 0 0 0 0 
0 0 0 0 0 0 0 0 0 
0 0 0 0 0 0 0 0 0 
0 0 0 0 0 0 0 0 0 
0 0 0 0 0 0 0 0 0 
0 0 0 0 0 0 0 0 0 
0 0 0 0 0 0 0 0 0 
0 0 0 0 0 0 0 0 0 
0 0 0 0 0 0 0 0 0 
0 0 0 0 0 0 0 0 0 
0 0 0 0 0 0 0 0 0 
0 0 0 0 0 0 0 0 0 
0 0 0 0 0 0 0 0 0 
0 0 0 0 0 0 0 0 0 
0 0 0 0 0 0 0 0 0 
0 0 0 0 0 0 0 0 0 
0 0 0 0 0 0 0 0 0 
0 0 0 0 0 0 0 0 0 
0 0 0 0 0 0 0 0 0 
0 0 0 0 0 0 0 0 0 
0 0 0 0 0 0 0 0 0 
0 0 0 0 0 0 0 0 0 
0 0 0 0 0 0 0 0 0 
0 0 0 0 0 0 0 0 0 
0 0 0 0 0 0 0 0 0 
0 0 0 0 0 0 0 0 0 
0 0 0 0 0 0 0 0 0 
0 0 0 0 0 0 0 0 0 
0 0 0 0 0 0 0 0 0 
0 0 0 0 0 0 0 0 0 

v 3 1368 double
2.72305e-05 0.000123908 1.68591e-05 -2.71e-05 4.78336e-05 3.58342e-05 -3.947e-06 -2.38775e-05 6.90016e-05 
-1.44251e-05 2.74298e-05 2.34994e-05 -1.71435e-05 -1.96163e-06 5.61123e-05 -2.66642e-05 3.29011e-05 7.01581e-05 
2.41454e-05 4.70387e-05 7.43677e-05 -2.84143e-05 1.5654e-05 1.67777e-05 3.17744e-06 -5.42056e-05 3.16069e-15 
2.5472e-05 5.10116e-05 5.44848e-05 2.69077e-05 2.68941e-05 6.86954e-05 -2.62944e-06 4.66814e-05 4.7424e-05 
8.41784e-06 4.19414e-05 6.57129e-05 1.55361e-05 3.46121e-05 2.57561e-05 -4.08778e-05 9.87785e-05 4.84023e-05 
-4.82004e-05 6.14592e-05 -2.38966e-05 -4.96906e-05 2.44219e-05 6.15732e-05 -3.45875e-05 3.01425e-05 -7.36586e-06 
-4.56352e-05 1.14224e-05 1.95481e-05 -2.9282e-05 -1.76874e-06 2.84408e-06 -2.78773e-05 7.39794e-06 2.50906e-05 
3.4673e-06 1.0976e-05 2.72573e-05 1.03272e-06 1.10985e-05 3.06505e-05 2.66247e-06 4.5429e-05 2.54437e-05 
4.40113e-05 4.34989e-05 6.65487e-05 1.32437e-05 4.63125e-05 2.73213e-05 5.84162e-05 2.24497e-05 7.70311e-05 
5.66562e-05 5.85643e-05 3.17528e-05 -8.33136e-05 0.000245281 -6.34902e-05 3.31383e-05 3.82356e-05 4.08871e-05 
2.79026e-05 1.53908e-05 -4.48808e-05 -8.37549e-05 -0.0001045 2.08871e-05 -7.95927e-05 -2.00893e-05 -1.13692e-05 
-3.88388e-05 1.55804e-05 -2.20296e-05 -5.69388e-05 6.29622e-05 3.41357e-06 -4.07801e-05 3.25421e-05 1.89698e-05 
-8.7629e-05 3.9521e-05 2.76636e-05 -3.25252e-05 2.36412e-05 1.24683e-05 -3.02262e-05 3.37161e-05 1.08914e-05 
3.19878e-05 5.7778e-05 -1.78658e-06 -2.81564e-05 4.53229e-05 5.60985e-05 -3.26046e-05 2.98359e-05 3.26388e-05 
3.0145e-05 3.24816e-05 1.07197e-05 6.04925e-07 5.31454e-05 4.84693e-05 7.5806e-05 4.07027e-05 2.9598e-06 
2.18641e-05 8.50705e-05 5.71682e-16 6.07608e-05 6.47315e-05 -4.90035e-06 3.59224e-05 6.59472e-05 4.08751e-05 
-1.096e-05 1.22079e-05 6.25142e-06 1.59995e-05 6.53444e-05 1.391e-05 -3.6195e-05 6.40259e-05 9.4881e-06 
-3.16158e-05 2.43474e-05 7.9511e-08 -4.31124e-05 5.94593e-05 -5.62658e-06 -2.86019e-05 5.86115e-05 1.24033e-05 
-6.90755e-05 5.3801e-05 -2.78386e-05 -3.19928e-05 5.6497e-05 1.80699e-05 -5.25021e-05 7.87509e-05 -3.92534e-06 
-7.33836e-07 5.45114e-05 1.5196e-05 -1.72243e-05 4.93618e-05 2.87208e-05 -1.80047e-05 5.72749e-05 2.4941e-05 
1.344e-05 0.000131809 -4.31211e-06 -1.95952e-05 9.37775e-05 4.51734e-05 2.00901e-05 0.000201706 -1.53279e-05 