# vtk DataFile Version 4.0
Generated by LIGGGHTS
ASCII
DATASET POLYDATA
POINTS 684 float
-375.802 -384 49.9829 -460.016 -438.26 49.9884 -257.683 -470.053 49.9936 
-90.7066 -364.105 49.9089 -165.893 -430.023 49.9737 91.5024 -486.415 49.958 
123.205 -362.679 49.9855 25.1521 -411.636 49.9696 185.106 -442.198 49.9935 
220.809 -336.078 49.9609 284.597 -413.049 49.9921 441.311 -454.452 49.9391 
377.9 -377.157 49.9682 476.569 -360.91 49.999 -439.349 -306.812 49.9872 
-374.445 -230.762 49.9893 -310.893 -307.951 49.9848 -275.687 -214.354 49.9662 
-174.895 -310.147 49.9783 -174.16 -210.181 49.9844 -87.5104 -261.211 49.9761 
-3.20858 -315.762 49.9452 1.67219 -215.812 49.9414 85.6605 -270.015 49.9917 
313.017 -287.472 50.0036 269.5 -195.357 49.9487 182.135 -243.904 49.9694 
369.471 -193.715 49.9783 413.146 -283.623 49.9856 477.613 -207.153 49.9745 
-438.66 -152.481 49.9504 -481.638 -52.4989 49.9808 -381.743 -46.5236 49.9557 
-192.351 -11.1165 49.9531 -185.512 -110.859 49.9684 -282.069 -55.2297 49.9527 
-82.156 -161.349 49.9469 -97.9335 -62.578 49.9148 93.4426 -163.57 49.9862 
6.30368 -114.538 49.9726 307.967 -3.50897 49.9855 239.584 -76.4337 49.9954 
427.158 -10.09 49.9773 439.096 -113.745 49.9723 336.958 -99.1806 50.052 
-449.446 146.963 49.9742 -360.229 101.845 49.9305 -437.15 37.3805 49.9932 
-262.817 143.638 49.9774 -25.3148 6.13399 49.9685 -149.623 109.069 49.9759 
-29.7821 106.09 49.9902 74.5218 1.35166 49.9759 70.093 101.232 49.9878 
266.85 87.5907 49.96 197.623 14.8092 49.9652 169.607 110.782 49.9511 
473.599 82.8403 49.96 371.964 73.2719 49.9775 413.576 164.144 49.9678 
-365.648 201.678 49.961 -425.279 282.027 49.9775 -206.709 316.393 49.9822 
-182.64 203.515 49.9454 -274.541 242.928 50.0268 -114.766 277.139 49.9717 
-12.6256 247.582 49.9935 81.3693 210.394 49.959 63.6743 315.437 49.9845 
245.283 290.798 49.9863 284.888 185.943 49.9898 187.558 209.14 49.9786 
491.045 227.33 49.9776 433.442 309.272 49.9933 342.544 267.633 49.9893 
-387.418 393.868 49.9737 -482.763 363.806 49.9672 -489.01 466.012 49.9935 
-386.596 493.857 49.9923 -304.238 338.408 49.9655 -198.113 446.569 49.9664 
-297.796 438.193 49.9545 -2.46832 478.738 49.9825 -26.931 381.781 49.9934 
-126.776 376.438 49.9729 -102.403 475.468 49.9823 74.452 414.844 49.9931 
157.431 350.185 49.9852 259.813 490.102 49.9761 249.107 390.71 49.9461 
168.358 449.646 49.9724 359.776 482.396 49.9928 -413.306 -460.205 135.63 
-454.625 -369.465 126.409 -380.526 -384.536 192.189 -320.169 -425.341 122.02 
-243.955 -375.598 80.6401 -222.359 -423.94 165.445 -289.485 -346.62 175.458 
-137.064 -380.087 137.121 -57.1341 -447.168 94.2631 -143.296 -479.9 133.611 
-50.9244 -477.259 189.392 15.926 -376.097 142.961 116.99 -427.043 126.239 
32.2109 -479.455 133.921 182.775 -479.735 179.947 210.149 -391.302 132.582 
274.469 -467.526 139.34 301.391 -350.845 126.546 370.872 -447.556 120.604 
466.75 -428.937 143.17 399.551 -354.914 145.123 -375.076 -308.816 126.668 
-448.444 -227.768 117.285 -454.025 -298.482 198.428 -194.512 -322.242 195.037 
-325.02 -222.776 136.548 -242.361 -280.194 117.455 -216.772 -168.729 195.193 
-145.554 -259.777 131.965 -61.4414 -313.902 131.138 -57.2522 -212.824 132.038 
104.383 -329.227 142.343 120.123 -219.009 128.806 26.9937 -266.937 131.936 
31.6373 -167.058 131.973 196.928 -291.914 136.425 284.809 -244.219 135.813 
205.281 -198.365 176.985 478.018 -295.022 125.179 398.693 -235.116 136.212 
485.409 -218.561 192.09 345.598 -290.932 200.004 -339.422 -137.119 49.9914 
-393.27 -147.247 138.841 -431.727 -47.4816 136.527 -330.081 -69.856 136.38 
-260.262 -136.767 111.083 -233.508 -43.8441 136.591 -314.074 -146.157 199.868 
-143.033 -155.657 129 -134.57 -56.6825 142.686 -51.7329 -111.875 131.319 
139.624 -74.5133 49.9767 23.2468 -46.5051 121.26 112.956 -109.44 139.784 
99.7212 -20.4742 183.453 184.5 -39.9803 132.556 188.138 -152.382 89.7561 
284.241 -144.192 134.51 284.241 -44.3319 138.088 496.55 -144.688 125.697 
383.97 -136.128 130.418 446.83 -58.497 135.218 368.329 -63.8405 197.704 
-352.006 24.9515 113.205 -421.298 94.8446 130.823 -499.474 25.4814 127.29 
-276.179 44.5604 49.9821 -309.982 117.667 134.886 -204.418 60.7931 118.34 
-278.374 34.3379 180.177 -211.908 159.138 134.602 -50.3568 1.54534 168.925 
-111.973 27.9985 94.7061 -112.727 115.707 142.653 -24.0701 113.522 188.784 
22.6333 53.4445 123.894 131.69 47.6878 117.631 76.4144 112.286 184.26 
23.4327 161.259 114.924 174.978 96.7086 193.232 238.388 44.4619 136.293 
230.623 143.43 124.56 321.857 99.7436 132.556 368.51 8.60049 128.775 
421.639 93.047 134.745 490.798 164.914 128.087 -493.343 294.794 122.113 
-350.44 279.403 116.138 -414.056 194.362 137.115 -199.275 258.972 131.412 
-292.222 212.275 161.845 -274.317 310.047 173.264 -87.4877 184.069 74.2247 
-49.7588 311.599 117.663 -45.1928 220.077 157.677 -135.321 327.041 167.069 
-138.528 201.033 187.973 133.636 167.696 123.796 135.179 271.679 107.768 
39.0174 268.949 135.002 226.718 242.683 135.64 314.248 197.416 152.485 
310.344 297.389 139.861 398.374 167.34 197.469 402.645 232.673 121.886 
470.692 236.349 195.056 406.043 329.58 146.11 -486.948 495.254 189.05 
-428.998 351.912 174.248 -429.917 441.584 126.868 -339.923 376.775 136.268 
-335.461 476.635 134.174 -235.597 481.514 135.803 -242.708 384.18 114.091 
-152.178 420.56 135.998 -51.6664 439.502 128.258 -50.6312 368.541 200.275 
114.771 463.413 133.224 24.9524 375.666 135.245 123.921 364.398 143.395 
220.815 342.408 132.745 225.699 443.616 131.664 293.241 383.848 187.749 
428.389 409.651 49.965 341.377 375.159 85.0466 485.128 390.642 140.756 
438.559 477.288 122.894 342.866 459.866 145.934 -407.024 -449.048 266.292 
-419.363 -350.364 277.817 -497.449 -384.458 225.213 -332.573 -392.919 303.43 
-321.605 -462.858 214.696 -242.594 -400.268 260.437 -193.37 -464.42 319.252 
-96.3778 -440.161 319.027 -6.83064 -418.529 280.183 -64.8867 -379.737 206.313 
-142.025 -365.653 268.306 -140.685 -458.49 231.229 66.1233 -427.586 212.425 
58.8599 -486.181 313.601 153.532 -379.09 214.055 93.5974 -369.704 293.537 
170.746 -457.36 276.894 253.666 -428.55 229.029 301.042 -464.585 309.367 
292.217 -364.39 295.632 194.434 -342.562 297.648 495.78 -467.771 280.45 
405.637 -467.802 212.188 375.63 -376.945 241.268 495.679 -374.896 324.487 
395.553 -367.539 338.813 401.002 -463.803 312.082 -357.665 -292.253 224.368 
-418.119 -206.714 215.233 -457.539 -258.873 290.922 -364.242 -286.29 331.262 
-338.032 -207.674 274.973 -275.504 -311.466 292.491 -266.172 -254.167 211.084 
-179.453 -237.055 257.885 -184.572 -302.619 333.172 -251.77 -218.238 324.325 
-77.0109 -232.107 296.489 -15.3147 -240.515 218.418 -103.362 -288.203 218.07 
-94.7583 -174.749 216.571 -35.2253 -322.702 282.931 43.7906 -321.106 221.708 
141.518 -273.558 217.629 127.572 -270.915 317.514 76.6086 -197.032 216.121 
89.685 -170.969 313.54 29.3916 -250.486 307.57 251.638 -330.275 210.802 
177.44 -196.507 273.04 264.566 -238.038 247.104 225.627 -256.274 337.368 
328.134 -185.537 303.679 351.967 -283.295 299.511 340.304 -189.051 204.007 
417.38 -208.37 264.603 442.674 -304.527 219.942 450.168 -286.085 318.274 
452.636 -169.732 349.801 -366.399 -8.34245 206.318 -456.624 -112.737 208.067 
-373.541 -92.7944 259.996 -463.52 -159.198 296.348 -465.548 -0.0661476 217.807 
-418.315 -87.3243 349.242 -280.03 -55.3176 224.347 -243.197 -127.823 282.495 
-312.801 -34.4111 316.602 -207.582 -33.5738 289.66 -325.692 -131.23 338.93 
-148.562 -157.71 310.28 -71.9557 -94.9006 323.85 -11.1612 -155.85 271.567 
-157.055 -97.1227 231.236 -58.6523 -80.205 225.872 -13.0417 -13.1256 303.465 
-106.469 -3.17873 268.03 37.4184 -98.7369 205.37 130.376 -115.573 238.049 
80.3915 -40.5361 281.086 26.0465 -97.057 343.347 169.865 -6.64992 326.039 
222.209 -102.513 200.868 206.733 -95.7117 299.455 300.001 -95.8709 263.311 
269.827 -21.0627 322.403 190.555 -11.208 228.123 479.211 -61.4525 275.019 
444.726 -128.963 209.746 370.642 -5.865 279.142 393.987 -110.914 293.981 
-404.839 0.100515 298.198 -481.712 64.0416 292.83 -406.79 80.3746 228.672 
-475.321 159.138 323.045 -381.614 123.779 315.265 -355.361 165.969 224.04 
-179.949 10.1905 201.515 -318.527 54.728 269.829 -259.905 136.663 219.362 
-219.222 64.7972 275.713 -130.118 89.0725 237.409 -40.8726 80.324 281.542 
-135.262 77.6739 336.614 26.6903 34.714 223.662 30.0017 161.211 258.093 
118.357 49.6888 260.871 49.8141 87.7422 322.899 127.905 148.309 274.335 
269.228 122.562 214.454 288.644 7.59537 223.428 214.202 71.1579 281.579 
310.684 69.0465 307.732 497.881 94.6928 199.412 436.27 13.2887 203.991 
360.958 76.637 221.634 435.073 116.696 275.488 432.317 41.875 341.745 
-393.113 264.048 205.669 -454.558 178.179 227.087 -469.384 268.34 270.177 
-401.874 324.117 318.411 -395.657 222.67 319.967 -274.539 169.24 312.763 
-221.786 240.331 226.952 -314.123 247.465 264.676 -217.931 320.524 286.537 
-173.833 169.178 278.159 -304.068 315.561 337.212 -174.146 247.822 339.905 
-69.1687 173.848 254.655 -85.9192 272.011 234.747 -88.418 298.55 331.304 
-18.3281 227.799 321.772 -101.878 179.298 348.982 100.954 217.438 204.078 
12.6752 255.892 230.934 92.8889 269.427 289.075 165.964 293.321 200.405 
70.5757 188.686 345.601 196.775 191.531 216.167 271.813 257.148 223.699 
192.281 258.381 290.386 237.23 166.803 304.212 319.523 304.028 298.008 
327.589 185.536 265.706 370.952 262.41 211.923 448.387 214.723 290.09 
419.442 308 311.513 366.937 230.233 346.026 471.82 332.792 221.311 
-495.425 358.89 324.101 -391.752 465.789 216.06 -369.723 417.241 300.682 
-471.887 412.475 243.051 -455.483 459.711 329.642 -340.839 341.753 240.826 
-231.193 499.09 234.145 -305.505 497.42 305.034 -298.526 428.149 213.4 
-209.679 382.389 208.423 -177.083 439.765 293.733 -269.657 404.07 306.025 
-9.12535 340.535 287.22 -108.216 447.443 221.677 -128.691 358.218 261.863 
-35.0719 485.19 280.659 -72.5266 406.24 329.213 138.81 358.248 287.821 
15.6329 449.245 202.324 56.8857 415.621 287.214 105.527 482.405 230.918 
65.6671 340.066 220.895 141.263 457.299 320.96 176.094 413.774 213.193 
[...]
POINT_DATA 684
FIELD FieldData 7
id 1 684 int
92 20 9 74 35 73 25 53 19 
61 37 101 79 26 29 119 22 31 
52 82 36 84 99 14 97 4 60 
41 102 80 72 27 34 110 17 18 
28 142 111 85 105 89 33 39 43 
58 91 81 8 11 1 104 21 93 
134 46 32 44 5 76 87 56 45 
23 86 129 30 57 100 2 48 95 
3 16 59 10 38 50 12 63 70 
42 7 71 62 66 51 13 114 6 
54 40 77 154 249 106 155 173 157 
67 96 127 230 228 118 185 192 122 
171 164 88 175 207 140 159 279 120 
183 161 211 116 141 112 167 124 193 
169 208 227 216 90 150 214 201 15 
133 170 68 103 221 240 78 146 166 
24 123 224 200 151 132 181 245 108 
47 158 163 98 109 75 69 138 152 
215 197 210 165 172 271 117 196 248 
115 191 178 113 130 223 156 160 143 
65 204 137 219 190 136 121 176 168 
187 107 145 202 139 194 182 225 131 
162 269 281 256 94 184 125 147 213 
128 220 198 144 64 149 212 148 257 
55 153 49 83 188 393 296 199 379 
195 273 381 376 334 254 290 284 239 
300 126 365 345 252 320 308 317 303 
246 286 347 439 357 267 251 352 432 
326 335 276 307 389 445 323 189 277 
292 306 233 205 339 186 331 373 218 
236 262 364 351 396 174 238 255 318 
455 244 259 293 366 341 424 302 234 
380 359 367 363 370 324 241 342 392 
304 283 301 329 374 340 272 297 309 
385 319 268 179 287 388 362 265 258 
298 402 266 229 282 177 235 253 315 
350 180 294 397 346 395 226 242 289 
338 217 209 206 260 356 278 330 328 
390 401 386 247 295 384 310 353 399 
332 321 403 414 448 135 263 360 325 
460 312 275 313 368 291 231 250 237 
427 348 299 354 264 311 314 428 232 
270 421 222 280 316 337 377 327 305 
387 349 383 285 322 203 243 344 261 
336 333 355 382 274 288 372 343 423 
453 469 549 440 411 456 458 418 553 
520 369 501 484 559 430 431 509 400 
450 514 556 564 426 480 498 512 405 
478 523 570 443 416 447 536 517 472 
542 524 513 481 409 415 474 516 429 
420 508 371 491 483 562 489 582 410 
507 505 482 538 408 394 464 496 470 
522 378 488 510 548 554 404 504 532 
413 476 471 452 436 412 444 497 451 
487 468 525 555 361 419 462 540 493 
454 398 527 358 425 494 490 477 434 
459 467 495 475 546 566 437 563 485 
417 406 492 535 457 438 473 521 531 
511 422 502 499 466 461 449 407 500 
533 433 435 391 552 463 479 503 442 
561 486 375 465 565 441 446 506 541 
526 547 581 550 534 567 515 615 557 
544 623 530 585 600 595 605 560 551 
602 519 543 537 529 569 611 528 633 
591 545 588 624 610 539 578 673 657 
518 568 558 583 620 617 589 572 609 
594 597 579 596 601 580 571 593 576 
574 604 607 599 573 613 622 625 598 
603 612 587 584 590 606 592 627 575 
586 614 577 619 626 621 616 667 608 
618 631 645 642 656 683 649 681 677 
659 647 679 662 663 630 674 653 660 
669 668 641 644 643 634 676 664 646 
651 638 658 675 650 678 682 628 632 
661 680 629 672 666 654 652 636 665 
684 648 639 637 670 671 655 640 635 

type 1 684 int
1 1 1 1 1 1 1 1 1 
1 1 1 1 1 1 1 1 1 
1 1 1 1 1 1 1 1 1 
1 1 1 1 1 1 1 1 1 
1 1 1 1 1 1 1 1 1 
1 1 1 1 1 1 1 1 1 
1 1 1 1 1 1 1 1 1 
1 1 1 1 1 1 1 1 1 
1 1 1 1 1 1 1 1 1 
1 1 1 1 1 1 1 1 1 
1 1 1 1 1 1 1 1 1 
1 1 1 1 1 1 1 1 1 
1 1 1 1 1 1 1 1 1 
1 1 1 1 1 1 1 1 1 
1 1 1 1 1 1 1 1 1 
1 1 1 1 1 1 1 1 1 
1 1 1 1 1 1 1 1 1 
1 1 1 1 1 1 1 1 1 
1 1 1 1 1 1 1 1 1 
1 1 1 1 1 1 1 1 1 
1 1 1 1 1 1 1 1 1 
1 1 1 1 1 1 1 1 1 
1 1 1 1 1 1 1 1 1 
1 1 1 1 1 1 1 1 1 
1 1 1 1 1 1 1 1 1 
1 1 1 1 1 1 1 1 1 
1 1 1 1 1 1 1 1 1 
1 1 1 1 1 1 1 1 1 
1 1 1 1 1 1 1 1 1 
1 1 1 1 1 1 1 1 1 
1 1 1 1 1 1 1 1 1 
1 1 1 1 1 1 1 1 1 
1 1 1 1 1 1 1 1 1 
1 1 1 1 1 1 1 1 1 
1 1 1 1 1 1 1 1 1 
1 1 1 1 1 1 1 1 1 
1 1 1 1 1 1 1 1 1 
1 1 1 1 1 1 1 1 1 
1 1 1 1 1 1 1 1 1 
1 1 1 1 1 1 1 1 1 
1 1 1 1 1 1 1 1 1 
1 1 1 1 1 1 1 1 1 
1 1 1 1 1 1 1 1 1 
1 1 1 1 1 1 1 1 1 
1 1 1 1 1 1 1 1 1 
1 1 1 1 1 1 1 1 1 
1 1 1 1 1 1 1 1 1 
1 1 1 1 1 1 1 1 1 
1 1 1 1 1 1 1 1 1 
1 1 1 1 1 1 1 1 1 
1 1 1 1 1 1 1 1 1 
1 1 1 1 1 1 1 1 1 
1 1 1 1 1 1 1 1 1 
1 1 1 1 1 1 1 1 1 
1 1 1 1 1 1 1 1 1 
1 1 1 1 1 1 1 1 1 
1 1 1 1 1 1 1 1 1 
1 1 1 1 1 1 1 1 1 
1 1 1 1 1 1 1 1 1 
1 1 1 1 1 1 1 1 1 
1 1 1 1 1 1 1 1 1 
1 1 1 1 1 1 1 1 1 
1 1 1 1 1 1 1 1 1 
1 1 1 1 1 1 1 1 1 
1 1 1 1 1 1 1 1 1 
1 1 1 1 1 1 1 1 1 
1 1 1 1 1 1 1 1 1 
1 1 1 1 1 1 1 1 1 
1 1 1 1 1 1 1 1 1 
1 1 1 1 1 1 1 1 1 
1 1 1 1 1 1 1 1 1 
1 1 1 1 1 1 1 1 1 
1 1 1 1 1 1 1 1 1 
1 1 1 1 1 1 1 1 1 
1 1 1 1 1 1 1 1 1 
1 1 1 1 1 1 1 1 1 

i 3 684 int
0 0 0 0 0 0 0 1 0 
0 0 0 0 0 0 0 1 0 
0 1 0 0 0 0 0 0 0 
0 0 0 0 0 0 0 1 0 
0 0 0 -1 0 0 1 0 0 
0 0 0 1 0 0 0 0 0 
0 0 0 0 0 0 0 0 0 
0 0 0 0 0 0 0 0 0 
0 0 0 0 0 0 0 0 0 
0 0 0 0 0 0 -1 0 0 
0 0 0 1 0 0 0 0 0 
0 0 0 0 0 0 0 0 0 
0 0 0 0 0 0 0 0 0 
0 0 0 0 0 0 0 0 0 
-1 0 0 -1 0 0 0 0 0 
0 0 0 0 0 0 0 0 0 
0 0 0 0 0 0 0 0 0 
0 0 0 0 0 0 0 0 0 
0 0 0 0 0 0 0 0 0 
-1 0 0 0 0 0 0 0 0 
0 0 0 0 0 0 0 0 0 
0 0 0 0 0 0 0 0 0 
0 0 0 0 0 0 0 0 0 
0 0 0 0 0 0 0 0 0 
-1 0 0 -1 0 0 0 0 0 
0 0 0 1 0 0 0 0 0 
0 -1 0 0 0 0 0 0 0 
0 0 0 0 -1 0 0 0 0 
0 0 0 0 -1 0 0 0 0 
0 0 0 0 0 0 0 0 0 
0 0 0 0 -1 0 0 0 0 
0 0 0 0 0 0 0 1 0 
0 0 0 0 0 0 1 0 0 
0 1 0 0 1 0 0 0 0 
0 1 0 0 0 0 0 0 0 
0 0 0 0 0 0 0 0 0 
0 0 0 0 0 0 0 0 0 
0 1 0 0 0 0 0 0 0 
0 0 0 0 0 0 0 0 0 
0 0 0 0 0 0 0 0 0 
0 0 0 0 0 0 0 0 0 
0 0 0 0 0 0 0 0 0 
0 0 0 0 0 0 0 0 0 
0 0 0 0 0 0 0 0 0 
-1 0 0 -1 0 0 0 0 0 
0 0 0 0 0 0 0 0 0 
0 0 0 0 0 0 0 0 0 
0 0 0 0 0 0 0 0 0 
0 0 0 0 0 0 0 0 0 
0 0 0 0 0 0 0 0 0 
0 0 0 0 0 0 0 0 0 
0 0 0 0 0 0 0 0 0 
0 0 0 0 0 0 1 0 0 
0 0 0 0 0 0 0 0 0 
0 0 0 0 0 0 0 0 0 
0 0 0 0 0 0 0 0 0 
0 0 0 0 0 0 0 0 0 
0 0 0 0 0 0 0 0 0 
0 0 0 0 0 0 0 0 0 
0 0 0 -1 0 0 1 0 0 
0 0 0 0 0 0 0 0 0 
0 0 0 0 0 0 0 0 0 
0 0 0 0 0 0 0 0 0 
0 0 0 0 0 0 0 0 0 
0 0 0 0 0 0 0 0 0 
0 0 0 0 0 0 0 0 0 
-1 0 0 0 0 0 0 0 0 
0 0 0 0 0 0 0 0 0 
0 0 0 0 0 0 0 0 0 
0 -1 0 0 0 0 0 0 0 
0 0 0 0 0 0 0 0 0 
0 0 0 0 0 0 0 0 0 
0 -1 0 0 0 0 0 0 0 
0 0 0 0 0 0 0 0 0 
0 0 0 1 0 0 0 0 0 
0 0 0 0 0 0 0 0 0 
0 0 0 0 0 0 0 0 0 
0 0 0 0 1 0 0 0 0 
0 1 0 0 0 0 0 0 0 
0 0 0 0 0 0 0 0 0 
0 0 0 0 0 0 -1 0 0 
0 0 0 0 0 0 0 0 0 
0 0 0 0 0 0 0 0 0 
0 0 0 0 0 0 0 0 0 
0 0 0 0 0 0 0 0 0 
0 0 0 0 0 0 0 0 0 
0 0 0 0 0 0 0 0 0 
0 0 0 0 0 0 0 0 0 
0 0 0 0 0 0 0 0 0 
0 0 0 0 0 0 0 0 0 
0 0 0 0 0 0 0 0 0 
0 0 0 0 0 0 0 0 0 
0 0 0 0 0 0 -1 0 0 
0 0 0 0 0 0 0 0 0 
0 0 0 0 0 0 0 0 0 
0 0 0 0 0 0 0 0 0 
0 0 0 0 0 0 0 0 0 
0 0 0 0 0 0 0 0 0 
0 0 0 0 0 0 0 0 0 
0 0 0 0 0 0 0 0 0 
0 0 0 0 0 0 0 0 0 
0 0 0 0 0 0 0 0 0 
0 0 0 0 0 0 0 0 0 
-1 0 0 0 0 0 0 0 0 
0 0 0 0 0 0 0 0 0 
0 0 0 0 0 0 0 0 0 
0 0 0 0 0 0 0 0 0 
0 0 0 0 0 0 0 0 0 
0 0 0 0 0 0 0 0 0 
0 0 0 0 0 0 0 0 0 
0 0 0 0 0 0 0 0 0 
0 0 0 -1 0 0 -1 0 0 
0 0 0 0 0 0 0 0 0 
0 0 0 0 0 0 0 0 0 
0 0 0 0 0 0 0 0 0 
0 0 0 0 0 0 0 0 0 
0 0 0 0 0 0 0 0 0 
0 0 0 0 0 0 0 0 0 
0 0 0 0 0 0 0 0 0 
0 0 0 0 0 0 0 0 0 
0 0 0 0 0 0 0 0 0 
0 0 0 0 0 0 0 0 0 
0 0 0 -1 0 0 0 0 0 
0 0 0 0 0 0 -1 0 0 
0 0 0 0 0 0 0 0 0 
0 0 0 1 -1 0 0 0 0 
0 0 0 0 -1 0 0 0 0 
0 0 0 0 0 0 0 0 0 
0 0 0 0 0 0 0 0 0 
0 0 0 0 0 0 0 0 0 
0 0 0 0 0 0 0 -1 0 
0 0 0 0 0 0 0 0 0 
0 0 0 0 0 0 0 0 0 
0 0 0 0 0 0 0 0 0 
0 0 0 -1 0 0 0 0 0 
0 1 0 0 0 0 1 0 0 
0 0 0 0 0 0 0 0 0 
0 0 0 0 0 0 0 0 0 
0 0 0 0 0 0 0 0 0 
0 0 0 0 1 0 0 0 0 
0 0 0 0 0 0 0 0 0 
0 0 0 0 0 0 -1 1 0 
-1 0 0 1 0 0 1 0 0 
1 0 0 0 0 0 0 0 0 
0 0 0 0 0 0 0 0 0 
0 0 0 0 0 0 0 0 0 
0 0 0 0 0 0 0 0 0 
0 0 0 0 0 0 0 0 0 
0 0 0 0 1 0 0 0 0 
0 0 0 0 0 0 0 0 0 
0 1 0 0 0 0 0 0 0 
0 0 0 1 0 0 0 0 0 
0 0 0 0 0 0 0 0 0 
0 0 0 0 0 0 0 0 0 
0 0 0 0 0 0 0 0 0 
0 0 0 0 0 0 0 0 0 
0 0 0 0 0 0 0 0 0 
0 0 0 0 0 0 0 0 0 
0 0 0 0 0 0 -1 0 0 
1 0 0 0 0 0 0 0 0 
0 0 0 0 0 0 0 0 0 
0 0 0 0 0 0 0 0 0 
0 0 0 0 0 0 0 0 0 
0 0 0 0 0 0 0 0 0 
0 0 0 0 0 0 0 0 0 
0 0 0 0 0 0 0 0 0 
0 0 0 0 0 0 0 0 0 
0 0 0 0 0 0 0 0 0 
0 0 0 0 0 0 0 0 0 
0 0 0 0 0 0 0 0 0 
0 0 0 0 0 0 0 0 0 
0 0 0 0 0 0 0 0 0 
0 0 0 0 0 0 0 0 0 
0 0 0 0 0 0 0 0 0 
0 0 0 -1 0 0 0 0 0 
0 0 0 0 0 0 0 0 0 
0 0 0 0 0 0 0 0 0 
0 0 0 0 0 0 0 0 0 
0 0 0 0 0 0 0 0 0 
0 0 0 0 0 0 0 0 0 
0 0 0 0 0 0 0 0 0 
0 0 0 0 0 0 0 0 0 
0 0 0 0 0 0 0 0 0 
0 0 0 0 0 0 0 0 0 
0 0 0 1 0 0 0 0 0 
0 0 0 0 0 0 0 0 0 
0 0 0 0 0 0 0 0 0 
0 0 0 0 0 0 0 0 0 
0 0 0 0 0 0 0 0 0 
0 0 0 0 0 0 0 0 0 
0 0 0 0 0 0 0 0 0 
0 0 0 0 0 0 0 0 0 
0 0 0 0 0 0 0 0 0 
0 0 0 0 0 0 0 0 0 
0 0 0 0 0 0 0 0 0 
0 0 0 0 -1 0 0 0 0 
0 0 0 0 0 0 0 0 0 
0 0 0 0 0 0 0 0 0 
0 0 0 0 0 0 0 0 0 
0 0 0 0 0 0 0 0 0 
0 0 0 0 0 0 0 0 0 
0 0 0 0 0 0 0 0 0 
0 0 0 0 0 0 0 0 0 
0 0 0 0 0 0 0 0 0 
0 0 0 0 0 0 0 0 0 
0 0 0 0 0 0 0 0 0 
0 0 0 0 0 0 0 0 0 
0 0 0 0 0 0 0 0 0 
0 0 0 0 0 0 0 0 0 
0 0 0 0 0 0 0 0 0 
0 0 0 0 0 0 0 0 0 
0 0 0 0 0 0 0 0 0 
0 0 0 0 0 0 0 0 0 
0 0 0 0 0 0 0 0 0 
0 0 0 0 0 0 0 0 0 
0 0 0 0 0 0 0 0 0 
0 0 0 0 0 0 0 0 0 
0 0 0 0 0 0 0 0 0 
0 0 0 0 0 0 0 0 0 
0 0 0 0 0 0 0 0 0 
0 0 0 0 0 0 0 0 0 
0 0 0 0 0 0 0 0 0 
0 0 0 0 0 0 0 0 0 
0 0 0 0 0 0 0 0 0 
0 0 0 0 0 0 0 0 0 
0 0 0 0 0 0 0 0 0 
0 0 0 0 0 0 0 0 0 
0 0 0 0 0 0 0 0 0 

v 3 684 double
-0.000444791 0.000235873 -0.000209989 -0.000291793 -0.000107364 5.54727e-05 3.1774e-05 0.000325286 3.09883e-06 
0.000819593 -0.00108485 -0.00264435 -0.000374133 0.000242049 -0.000273615 0.000270584 0.000538579 -1.14113e-05 
-0.00016123 0.000910452 0.000277626 0.00076044 4.98274e-05 -0.000130826 0.000100795 0.000197417 1.08955e-15 
7.96499e-05 -0.000199546 0.000132777 0.000135787 0.00012453 -2.26772e-05 4.16337e-05 0.000434811 0.000807972 
-0.000373271 3.94905e-05 0.000237642 -0.000823333 0.000515964 9.72273e-05 -0.00075899 0.000245566 -8.56324e-05 
-0.000130186 7.72247e-05 -3.37531e-06 -0.000322778 0.000363518 0.000124646 -2.23021e-05 0.000373368 1.62721e-05 
-0.000117937 -0.000290613 0.000163192 -0.000399205 7.73024e-05 0.000122112 -0.000132862 0.000267962 -0.00125165 
0.000526949 -0.000104142 -0.00127161 0.000987056 -7.51255e-05 -0.00423271 0.000194424 0.000749394 -0.000909691 
-4.42558e-05 5.37717e-05 -0.000335521 0.000232502 -0.000245596 0.000112261 0.000119771 -0.000146034 0.000292819 
-0.000402929 2.41184e-06 9.78405e-05 -0.000982814 0.000137315 0.000180864 -0.000385041 -0.000141525 -0.000342213 
-0.00062606 0.000127311 -0.000434789 9.38525e-05 -0.00100081 0.000352695 0.0006328 0.000237611 0.00014536 
0.000425607 0.00067584 -0.000490526 0.000300845 0.000613907 0.00030882 -0.00106251 0.00100494 0.000572787 
-9.19272e-05 -0.000225015 -0.000190828 0.00124272 -0.000147495 0.000107801 -0.000159246 -0.000374098 -7.56159e-05 
-0.000219536 -0.00053783 -0.000734392 -8.59254e-06 1.96954e-06 3.86948e-05 -0.000104204 -0.00010457 0.000151211 
-0.000182988 -0.000852104 -3.93492e-05 -0.00022083 0.000895545 -0.000452121 -4.26307e-05 8.66051e-05 -1.9455e-05 
-0.000125506 -0.000401122 5.48405e-06 0.0004039 0.00023889 1.77865e-05 -4.53511e-05 -0.000516871 4.0301e-05 
-0.000265213 0.000129168 0.000251808 0.000775776 0.00183089 -0.000987875 -0.000186591 0.00112248 -0.000737951 
-0.000163893 -0.000583909 7.99595e-05 0.000352631 -0.000361223 1.89565e-05 -8.74696e-05 -0.000254552 -0.000204625 
-0.000205728 -2.72851e-05 0.000154997 -2.50953e-05 -0.000153136 -0.000165114 -0.000330604 -0.00022042 -4.1308e-05 
0.000138498 0.000122881 -7.41129e-05 0.000917079 -0.000641882 0.000152399 0.000928881 -0.000515452 0.000170202 
-0.000565723 0.000486035 0.000166124 -0.000657887 0.000761656 -0.000705742 0.000284149 0.0006581 -0.00391992 
-0.000523423 0.000418208 -0.000642914 -0.000445184 0.000138939 7.32288e-06 -0.000398997 -0.000125138 -0.000168394 
0.000341663 0.00071899 -3.05423e-15 5.43523e-05 -0.000735545 -0.000186581 0.000163233 6.17675e-05 -0.000129122 
0.000135121 4.20201e-05 0.000106185 -0.00043837 6.12124e-05 8.86969e-06 0.000537993 -0.000448014 -1.58653e-05 
2.05308e-05 0.000105888 -0.000292381 0.000182657 -0.000451875 1.75492e-05 0.000135925 -0.000452755 8.78044e-05 
-4.5725e-05 0.000160301 -9.79279e-05 -0.000184842 -4.434e-05 -0.000165969 0.00019699 -0.000435052 -2.62834e-05 
-0.000353734 5.73351e-05 -0.000253245 -0.000248394 -0.000104345 -0.000108789 -0.00026576 -0.00027967 -0.000362434 
-0.000244464 0.000150603 1.78302e-05 -1.27659e-05 -7.87322e-05 -0.000185228 -4.9779e-05 -0.000203819 -0.00016059 
0.00013627 -0.000845901 -0.000526468 -2.41782e-05 3.06562e-05 -5.78683e-05 -0.00021936 -5.35386e-05 -5.08358e-05 
-0.000205859 -0.000253576 -1.07877e-05 -0.000150031 0.000242874 -6.85074e-05 7.04884e-05 0.000158637 0.000181261 
0.000305381 0.000481788 0.000120944 -0.000165258 -3.39791e-05 -0.000146281 -0.000769906 0.000273081 0.000373907 
-0.000349014 -0.000805163 -0.000404102 -0.000854813 -0.000190067 0.000386668 -0.000632013 0.000249248 -0.000252638 
-0.000487085 -0.000197042 -0.000238409 -0.000424744 -0.000680802 -0.000505813 -0.000329022 0.00040153 -0.000234928 
-0.0007237 0.000409205 -0.000456974 -4.67395e-05 -9.61745e-05 -0.000600737 0.000264588 -0.000498827 -0.00105508 
0.000210598 9.18976e-05 -0.000379265 0.000801123 0.00130277 -0.000776244 6.65116e-05 1.91321e-05 0.000386427 
-0.000357997 0.00035515 -0.000605883 0.000199003 0.000667794 -0.000467469 -0.000317615 5.54635e-05 0.00070137 
-0.000311172 -0.00013524 0.00022749 0.000157123 -0.000334917 -8.16566e-05 0.000509965 0.000238286 0.000865087 
4.43757e-05 0.000249547 0.00178532 0.000409283 0.000749059 -0.00146879 -0.00076203 0.00119448 -1.43723e-06 
-0.000860682 0.000670798 -0.000807228 0.00181159 0.00082904 -0.00113288 -0.000855816 0.000280931 -5.74638e-05 
-0.000123203 0.000927769 -0.000197724 -0.00014308 0.000199116 -0.000456756 -0.000413659 0.000269175 -0.000176047 
-0.00014508 0.000329288 6.52659e-05 -0.000534875 -0.00107858 -0.00202419 0.0011711 0.000949871 -0.00422775 
0.00233493 -0.000849705 -0.00469463 -6.62998e-06 0.00030816 0.000267597 0.00511815 -0.000893223 -0.0101734 
6.88552e-05 -8.83373e-05 -0.000984946 0.0012069 -0.000959033 0.000387131 -0.000356615 0.000277672 -3.03409e-05 
-0.000369855 0.000941254 0.000630307 0.000249123 0.000274668 -0.000369769 -0.00102559 -4.41868e-05 1.09641e-05 
-0.00289458 -0.00029341 -0.00155471 -0.00127224 0.000274651 -0.000338567 -0.000519506 0.000294573 0.000214128 
-0.00174359 0.0012403 -0.000452047 3.26898e-05 -1.86164e-05 -0.000611102 -0.0020795 0.000943352 0.000781278 
-0.000976981 0.00098871 -0.0001306 -0.00190434 0.0015858 -0.00225884 -0.000257576 0.00247201 -0.00195514 
-0.000642712 -0.000178075 -0.000646539 -0.00173816 0.00227147 -0.000662911 0.00013755 0.0012429 -0.00150629 
-6.24829e-05 -0.000449436 -5.53478e-05 0.00101975 1.97852e-06 -0.00096259 0.000350417 -0.000546081 3.14599e-05 
0.00136727 -0.000614587 2.95342e-05 0.000501528 -0.000939727 -0.000582448 0.000136307 -0.000190082 0.000474234 
0.000546276 -0.000142752 0.000457037 0.000277895 0.000161653 0.000258422 -0.00111356 3.67993e-05 -0.000519495 
-0.000618362 -0.000899281 0.000479906 -0.000498826 -0.000187953 -0.00014026 -0.000977295 -0.000460914 -0.000269939 
0.00116687 0.000151847 0.000146463 -0.00015597 -0.00112434 -0.000369553 -0.00016602 -0.000781428 -0.000392098 
-0.000125074 0.000312162 -4.49935e-05 0.00160354 0.00126866 -0.00123641 0.00140989 0.00072332 -0.00101278 
0.000417194 4.55576e-05 -0.000876293 0.000748512 0.000342869 -0.000211992 0.00101438 0.00337189 -0.00214443 
0.000743944 0.00263141 -0.00304702 0.000414283 7.92885e-05 -0.00102599 -0.000114493 -0.00039008 -0.0015653 
-0.000234937 -0.000396257 -0.000832881 -0.000290511 -0.000199512 -0.000143038 -0.000402614 -0.000535992 -0.000907101 
5.99038e-05 -0.000144127 -0.000466737 -0.000675306 -8.99125e-05 -0.000751965 -0.000930015 -0.000102589 1.87094e-05 
-0.000615576 -4.17644e-05 -7.97478e-05 -3.99324e-06 -0.000549811 0.000156659 0.000349359 -0.000495856 0.000334896 
0.000521855 -0.000792276 8.01231e-06 -0.00058554 4.73279e-05 -0.000598992 3.69088e-05 -0.000353173 6.30602e-05 
-0.00223633 0.000788867 -0.000710983 -0.00115637 -0.00047826 3.5822e-05 -0.00242428 0.00413535 -0.00360865 
-0.00128242 0.00146735 -0.000922235 -0.0022871 0.00194316 -0.00114499 -0.000195679 7.8224e-05 -0.000404624 
-0.000734749 -0.000244466 0.000201593 0.000232802 -0.000454977 3.19256e-06 -0.000784196 -0.000151373 -0.000387835 
0.000677172 -0.000368681 0.00040609 -0.000940045 -9.73703e-05 -0.000235595 -3.50878e-05 -0.000565619 -0.00034172 
-3.19602e-05 -0.000944489 -0.000761647 -0.000287628 -0.000120021 4.259e-05 -0.000791685 -0.000589474 0.000584365 
-0.000841445 -0.000391073 -0.00122692 -0.000742178 -0.000787662 -0.000137743 -0.000738628 -0.000388706 0.000221137 
-0.000634018 -0.000484498 2.73224e-05 -0.000678943 0.000199002 0.000238152 -0.00052184 -0.000354522 0.0010787 
0.000770433 -0.000188767 -2.32141e-05 -0.000579914 0.00042112 0.000163595 -6.04679e-05 0.000467447 -0.000583668 
-0.000727735 0.000310148 -0.000265941 -0.000843326 -0.000528137 -0.000459596 -0.000185026 -0.000131261 -0.000585878 
4.96375e-05 -0.000666992 -0.000610975 -0.000834514 0.00060117 0.000759227 -0.00041434 -0.00160047 0.000560817 
-0.000121001 0.000259719 -3.53085e-06 -0.00103912 0.000158299 0.000152398 -0.000853106 -2.07091e-05 -0.00128573 
-0.000538999 -0.000207439 0.00012082 -4.34815e-05 -0.000114812 -0.000169691 -0.000599557 0.000750223 -2.24621e-05 
1.98556e-05 0.000479223 0.000114268 1.26066e-05 0.00111003 7.69913e-05 0.00025978 -0.000432346 0.000369562 
0.000731814 0.000143151 0.0011174 0.000332138 9.35166e-05 -0.000231902 0.000132074 -0.000975389 0.000300354 
0.00208932 -0.000931521 0.000554115 0.00141459 0.00161118 0.00146138 -0.000321021 -0.00147078 0.00159015 
-0.000708095 -0.000797286 -0.00106672 -0.00178992 -0.00111668 -0.000639066 -0.00052936 0.00072182 -0.00020423 
-0.000562911 0.00087792 -0.000117045 -0.00103021 0.000574311 -0.000724774 0.00065913 0.00038338 -0.00198153 
0.00410264 0.000582389 -0.00278082 0.00183734 -0.000298289 -0.000494008 -0.000194931 0.00122121 -0.000269745 
0.000718878 0.00132324 -0.00076581 2.16448e-05 0.00108695 0.00112381 -0.00201562 -0.0034076 -0.000319617 
0.000804099 -0.000963716 0.00102518 0.00092796 -0.000384382 0.000801987 -0.000237197 -0.00102362 0.00126314 
-0.000565695 0.0018622 0.00177698 0.00101283 -0.00241241 0.00228796 -0.000124171 0.00138773 -0.000922092 
-0.00104818 -0.000599442 -0.00130169 -0.00136527 -0.000449951 -0.00189793 0.000603932 0.00230163 0.0014011 
-0.000648416 0.000767697 -0.00191678 2.14057e-05 -0.000445327 -0.000280849 0.000752039 0.00152146 -7.75828e-05 
-0.00234548 0.00305424 -0.000217474 1.72642e-05 -0.000791488 -0.000350127 -0.000409528 -0.00058703 0.000474898 
0.000121352 0.00219526 -0.000616172 -0.00294264 -8.90731e-05 -0.00320001 -2.02808e-05 0.000275027 -0.00267274 
-0.000362182 -0.00146829 -0.00289321 -0.00173046 -0.00470519 -0.00641899 0.00191843 -0.00558105 -0.00404681 
0.00607365 0.0057734 0.000161636 0.00479562 0.00292253 -0.00537886 -0.00206934 0.00151712 -0.000617188 
0.000333662 0.00201521 -0.0033701 0.000174722 0.0011024 -0.000913629 0.00111069 0.000608368 -0.000114768 
-0.000605562 0.000893436 -0.000516754 0.000626494 -0.00213828 0.000462406 -0.000170738 0.000122802 -0.000104888 
0.000887449 -0.000281851 0.000354295 0.00217861 -4.6053e-05 -0.00262783 0.00143831 -0.000550112 -5.08844e-05 
0.000972838 -0.0015682 -7.87495e-05 0.000420622 -0.00136269 0.000878569 -0.000274575 -0.00132353 0.00066332 
-0.000318322 0.000633382 0.00086957 -0.00205609 -0.0011884 -0.000401843 -0.000236563 -0.000588694 0.00136356 
0.000287835 0.00119092 0.000909562 -0.000499278 -0.000549003 -0.000682002 -0.00120688 0.00134191 0.00188049 
-0.00153918 0.00215367 0.00110267 0.00141136 0.0030422 0.00187468 -0.00104248 0.000995046 -0.000639611 
-0.000759958 0.000640282 -0.000112617 -0.00304541 -0.000450785 -0.00199615 0.00128806 1.20763e-06 -0.000370653 
-0.000394655 -0.0029875 0.000786995 0.000487268 -0.0014441 -0.00117921 0.000457635 -0.00214901 0.000872475 
0.000178517 0.00132525 0.00050869 0.000795957 -0.0022404 -0.00193795 -0.000186716 0.00111666 6.34904e-05 
0.00050541 -0.000703731 -0.00176293 0.000709188 -0.00208975 -0.00188817 0.00123651 -0.00242252 -0.00187393 
-0.00139934 0.000650097 0.000240438 0.000420503 0.00124813 -0.00159955 0.00262699 0.00250236 0.000395857 
0.000937979 0.00110526 -0.000498178 0.00138319 -0.00128597 -0.00114827 0.00119615 -0.00208546 -0.000179797 
0.00254924 -7.57947e-05 -0.00180726 0.000254786 -0.00334517 -0.00138707 -0.000171894 -0.00122852 0.00020994 
0.000839866 -0.000203726 0.000296168 0.000575081 -0.00143906 0.000723092 0.000598021 -7.67242e-05 0.00079859 