# vtk DataFile Version 4.0
Generated by LIGGGHTS
ASCII
DATASET POLYDATA
POINTS 513 float
-458.18 -435.866 49.9667 -257.929 -470.376 49.9893 -164.683 -433.568 49.9946 
-91.4656 -363.407 49.9944 124.274 -362.901 49.9587 25.1058 -412.467 49.9723 
91.302 -487.385 49.9857 220.733 -336.65 50.0352 187.06 -442.69 49.9935 
286.062 -412.297 49.9789 477.669 -359.19 50.0001 379.063 -375.635 50.2624 
443.05 -453.07 49.9923 -175.949 -309.92 49.9937 -307.823 -311.606 50.0393 
-173.061 -209.962 49.9946 -3.03438 -316.06 50.0119 -87.736 -262.828 50.0182 
0.313095 -215.158 49.988 85.6077 -269.791 50.0462 270.872 -198.029 49.9688 
182.307 -244.395 49.9872 310.285 -290.251 49.986 414.421 -281.74 49.9945 
372.231 -190.954 49.964 474.549 -201.814 49.9838 -485.617 -51.4973 49.988 
-436.841 -155.337 49.9881 -337.877 -140.499 49.9698 -192.994 -10.5913 49.9657 
-285.32 -55.4668 50.002 -182.938 -110.468 49.9818 -84.677 -162.5 49.9881 
-94.7621 -63.0202 49.9528 86.8683 -163.52 49.9919 136.988 -68.0947 50.0377 
1.34258 -110.383 49.9837 306.599 -2.15651 49.9536 423.543 -9.69452 49.9813 
433.711 -110.557 49.9945 334.499 -98.2838 49.9965 -359.312 100.507 49.9525 
-450.687 146.838 49.9666 -434.527 34.5026 49.953 -265.632 143.465 49.9835 
-276.734 44.1195 49.9661 -28.4572 11.8271 49.9723 -146.815 107.375 49.9952 
-42.2681 110.889 49.99 64.6344 107.07 49.9952 164.504 111.456 49.993 
266.08 89.2384 49.976 195.687 16.49 49.984 370.335 74.9451 49.9762 
413.234 165.257 49.9798 -365.927 200.407 49.989 -424.447 281.475 49.9824 
-183.44 201.451 49.962 -275.436 242.951 50.012 -207.85 316.622 49.9867 
-14.9895 238.753 50.0138 -116.414 276.158 49.9926 47.8564 316.539 49.9937 
81.4433 207.481 49.9638 283.27 187.913 49.9932 241.822 291.603 50.0102 
339.562 270.587 49.9879 491.006 228.085 49.988 431.957 308.798 49.9914 
-492.452 470.152 49.9443 -388.652 393.882 49.9858 -483.476 362.152 49.9795 
-305.607 338.261 49.9791 -299.172 438.53 49.9901 -3.24903 479.851 49.9958 
-27.4818 382.83 49.9809 -127.22 375.751 49.9747 76.0679 412.479 49.9935 
159.025 352.904 49.9872 263.495 490.326 49.9647 171.052 452.171 49.9973 
251.5 391.093 49.9715 363.329 485.039 49.9621 428.207 408.974 49.9788 
-369.039 -390.638 49.9864 -410.906 -459.421 134.856 -451.521 -368.123 131.424 
-315.488 -430.986 124.233 -240.804 -377.958 84.1085 -225.051 -423.598 171.662 
-292.059 -348.499 175.717 -139.895 -386.066 134.503 -58.269 -447.582 92.5684 
-143.519 -486.196 132.348 -51.0395 -480.225 186.814 14.5125 -379.451 143.7 
119.372 -428.17 125.507 33.3203 -478.449 133.187 186.64 -478.689 179.484 
211.236 -389.694 134.253 276.824 -465.1 138.48 308.896 -353.362 127.53 
373.502 -445.93 121.525 471.529 -430.783 143.625 402.198 -359.615 162.994 
-433.678 -312.95 49.9816 -371.582 -234.599 49.9846 -370.712 -309.308 127.94 
-451.964 -234.387 109.435 -450.522 -293.591 198.056 -272.894 -216.532 49.9833 
-193.121 -326.031 194.19 -322.398 -222.199 136.681 -243.167 -281.361 120.031 
-220.155 -173.178 194.801 -145.897 -262.27 132.791 -60.5529 -314.292 131.769 
-58.2209 -214.21 132.258 102.421 -331.074 142.173 114.485 -216.831 129.954 
27.3645 -265.88 131.791 193.815 -290.73 137.876 283.987 -246.732 136.294 
203.818 -196.539 170.128 475.445 -299.857 130.45 401.876 -232.443 136.471 
489.634 -213.978 187.998 -385.643 -52.6914 49.9661 -396.127 -154.801 141.316 
-435.622 -53.3617 136.563 -335.13 -75.883 134.257 -258.469 -135.533 110.49 
-235.545 -40.9123 135.502 -142.991 -161.06 131.88 -137.807 -61.5505 140.15 
-56.4114 -117.245 156.538 5.04703 -44.7358 125.306 28.6367 -164.684 131.524 
110.225 -107.291 138.219 85.9412 -18.5148 177.906 237.445 -74.3244 50.003 
177.702 -33.6243 134.638 182.328 -150.437 84.0412 281.507 -144.947 133.99 
277.01 -45.1278 137.076 219.125 -100.641 198.329 497.428 -137.514 123.199 
380.931 -134.791 132.197 441.727 -55.6143 136.918 -353.363 20.6248 109.774 
-426.576 92.953 130.631 -499.486 91.694 199.301 -498.785 23.9194 125.771 
-312.697 116.99 136.82 -206.075 60.8271 118.68 -278.83 35.2348 183.771 
-209.907 159.095 136.56 -176.559 9.29093 199.09 -64.0965 0.998962 182.079 
-114.165 26.5728 99.2753 -123.944 110.615 152.534 -33.9359 128.786 192.108 
71.409 7.34272 49.9751 7.97517 66.6019 125.279 122.666 55.3264 121.375 
72.2989 115.551 184.148 171.239 104.401 193.694 237.295 46.6131 136.025 
230.507 145.661 124.437 320.989 101.182 132.856 472.442 82.4537 49.9733 
362.926 5.77136 132.137 422.825 85.6561 136.701 396.805 162.102 195.663 
-490.9 294.571 123.531 -348.468 275.167 114.657 -404.378 189.804 141.683 
-195.748 258.014 131.457 -290.923 210.496 164.669 -271.919 308.349 172.198 
-92.7768 187.483 89.7353 -50.8082 311.997 116.601 -43.1099 226.217 167.411 
-132.939 322.861 174.419 -137.072 201.813 191.348 133.488 169.634 126.456 
17.9479 166.516 115.421 132.177 273.809 104.953 39.4222 276.749 142.206 
111.415 235.508 198.358 185.205 209.235 49.9879 222.564 244.558 136.585 
309.507 197.47 157.077 309.409 296.28 141.841 493.643 169.484 130.966 
400.513 233.99 121.457 466.877 240.424 196.221 404.221 328.964 152.508 
-386.188 493.931 49.9626 -479.278 498.082 194.165 -430.486 354.924 177.575 
-432.843 442.556 125.264 -340.56 372.232 137.322 -337.946 472.234 135.76 
-199.592 447.417 49.9874 -238.395 481.956 135.689 -244.036 384.559 113.8 
-103.106 473.825 49.9951 -151.92 414.359 138.821 -54.2825 437.458 129.328 
117.057 465.344 134.242 25.2038 375.525 134.64 124.736 366.025 143.118 
222.006 344.462 133.345 229.447 444.14 131.808 295.336 383.898 188.778 
342.59 373.007 87.0028 483.445 389.778 140.18 438.452 477.328 122.225 
345.479 464.203 156.587 -336.475 -467.55 215.678 -386.147 -381.281 205.951 
-493.993 -478.506 290.215 -394.402 -469.967 298.643 -453.828 -351.216 308.466 
-241.238 -486.861 247.379 -282.828 -397.157 262.609 -108.723 -470.945 318.058 
-13.119 -430.125 275.674 -65.2244 -382.795 204.482 -139.18 -365.4 269.507 
-148.23 -455.703 227.468 -76.1867 -380.588 346.406 68.5089 -425.244 214.517 
6.00251 -331.035 315.353 76.5096 -461.28 307.528 159.372 -367.083 216.686 
102.848 -351.605 298.723 174.931 -451.117 274.944 263.845 -423.568 228.519 
309.351 -479.925 297.899 260.241 -360.863 306.474 496.34 -395.622 233.884 
369.244 -459.831 220.424 375.284 -363.835 259.744 -358.882 -290.466 237.906 
-409.993 -205.276 226.531 -437.751 -213.759 322.231 -361.327 -343.651 345.614 
-279.675 -304.928 302.813 -266.709 -259.456 214.698 -321.299 -208.85 281.818 
-179.093 -238.397 258.682 -181.593 -302.321 339.849 -174.724 -169.678 340.039 
-66.5175 -251.931 306.02 -12.1492 -242.416 220.646 -101.398 -287.715 219.161 
-95.9266 -188.766 232.478 43.4593 -325.544 222.691 132.72 -268.522 214.149 
69.1371 -256.997 291.222 72.4759 -188.793 218.146 169.922 -192.824 267.919 
187.034 -292.018 294.77 255.158 -325.965 208.58 258.632 -233.142 245.574 
330.44 -163.908 303.971 233.375 -216.143 342.347 328.85 -276.455 302.18 
346.905 -286.529 203.033 337.257 -185.326 206.555 416.843 -217.1 258.035 
454.802 -304.66 228.231 463.307 -287.354 326.372 -367.333 -11.323 203.485 
-455.976 -116.345 211.588 -373.938 -92.7346 263.655 -401.631 -4.37637 301.364 
-436.921 -115.013 339.147 -280.386 -56.425 223.606 -316.457 -147.562 202.949 
-248.227 -133.387 282.301 -248.462 -14.5773 308.727 -84.7853 -127.579 327.676 
-5.14984 -158.971 275.724 -152.801 -106.642 228.108 -56.6552 -74.7287 247.058 
-162.661 -65.0379 318.501 -4.17988 -23.9164 315.372 88.209 -157.83 313.692 
31.7061 -97.7588 205.778 127.07 -107.121 236.783 89.8406 -25.2172 280.407 
204.629 -104.424 299.945 296.38 -75.021 273.203 367.265 -64.0644 203.545 
496.441 -64.5121 284.282 444.651 -127.155 208.884 371.493 -6.34866 285.646 
430.538 -134.331 312.438 -465.875 -0.874388 216.893 -469.88 68.0641 291.827 
-384.613 85.5685 221.045 -385.823 125.883 312.506 -304.891 66.8693 280.54 
-259.203 133.137 219.722 -205.104 68.9562 274.075 -253.192 167.021 313.591 
-108.325 7.30164 272.404 -114.303 105.079 251.953 -29.3494 82.9236 299.85 
18.3466 40.3029 222.907 39.1357 161.333 266.634 103 73.3387 269.79 
179.733 -9.57225 326.673 171.982 7.64053 225.53 267.521 120.845 215.051 
272.298 8.63953 222.566 201.298 80.9279 286.889 299.457 78.0924 305.848 
435.628 14.0528 208.381 352.693 68.2598 221.777 432.831 100.108 272.434 
-362.209 290.76 212.471 -357.699 181.665 233.261 -457.326 178.396 225.728 
-453.451 270.181 265.185 -375.556 315.117 309.302 -220.715 242.072 228.513 
-303.706 248.29 284.657 -208.35 307.467 303.157 -57.8111 183.884 276.393 
-157.966 189.428 288.357 -80.3059 276.302 245.548 17.477 255.748 241.592 
156.533 317.086 234.526 129.637 174.081 307.214 195.206 192.699 234.041 
330.971 175.457 269.736 267.741 261.019 225.61 203.603 266.791 307.027 
249.427 180.489 328.223 339.566 267.644 308.668 367.534 256.415 213.171 
464.089 194.977 285.272 -394.316 450.916 217.913 -346.46 428.709 303.577 
-440.541 383.124 275.415 -292.025 345.262 263.181 -291.552 432.96 215.137 
-209.453 376.05 211.059 -182.856 442.598 287.656 -257.601 405.721 343.269 
-47.3215 366.081 203.021 -106.755 444.873 222.636 -129.925 359.694 269.661 
-33.3787 472.324 284.862 -20.7263 337.2 297.916 45.7586 411.915 294.788 
109.36 480.387 232.828 18.9871 449.95 201.859 60.7292 343.939 222.821 
144.48 421.375 307.929 181.103 411.782 213.105 266.61 476.134 218.92 
245.295 349.055 268.052 240.543 448.911 311.658 323.362 371.682 326.974 
415.827 483.791 314.081 482.864 335.28 223.977 447.001 436.11 220.927 
352.216 437.049 252.653 388.74 343.927 256.579 -207.475 -408.744 328.268 
-311.11 -449.803 350.846 166.639 -406.087 364.36 465.889 -400.79 341.142 
-260.505 -247.429 382.623 15.2097 -207.517 360.734 400.442 -225.647 375.259 
-251.042 -97.3665 375.546 -274.069 -6.5851 426.377 59.752 -51.0463 387.46 
225.935 -79.8468 394.533 315.238 -16.461 367.699 435.544 -51.0246 367.824 
-313.06 79.3203 386.04 -52.8205 33.5395 383.611 -140.605 68.7815 350.517 
-126.497 112.957 439.187 22.5948 140.511 363.034 88.3012 57.1264 387.996 
228.323 84.8922 383.073 318.571 126.872 392.644 392.32 181.998 353.662 
-488.23 308.212 351.866 -333.141 261.285 382.017 -168.874 254.417 378.213 
132.92 332.084 375.313 154.579 231.627 387.306 412.324 321.71 351.519 
-175.743 361.923 380.631 -106.786 447.83 377.675 201.446 403.609 395.91 
481.846 413.984 343.233 335.375 476.086 383.822 -230.162 -411.547 425.82 
386.248 -335.68 442.225 9.67113 259.597 387.031 408.745 449.972 2027.33 
153.245 377.119 2043.99 134.94 -148.165 468.524 398.664 323.471 2024.93 
-17.6298 -313.691 524.191 49.117 -47.3852 594.78 -133.691 273.423 636.793 
106.227 213.6 525.742 -212.442 445.813 574.974 251.408 -316.59 744.5 
-306.518 91.6609 769.528 -287.597 195.369 829.874 -315.452 345.593 697.553 
15.066 -406.204 919.369 -188.205 -330.003 929.784 -100.725 -86.8376 847.843 
270.287 -91.7557 985.227 402.035 -27.6117 973.375 38.6995 148.626 980.102 
-409.77 226.697 980.82 279.734 233.209 952.491 -30.2097 354.658 894.245 
418.554 -429.265 1024.05 -20.1111 30.0156 1077.83 -160.392 190.91 1046.72 
192.068 318.426 1127.21 -116.61 12.4666 1303.99 309.58 92.7421 1285.98 
-81.1684 264.962 1303.17 423.621 440.276 1277.55 -356.851 -369.577 1404.64 
-205.217 -446.674 1413.41 279.465 -394.647 1425.14 -233.448 -214.095 1450.99 
-80.2689 -208.507 1415.36 17.8702 -316.069 1376.86 -382.044 -27.5415 1430.52 
-179.043 -119.346 1311.09 425.636 171.997 1454.69 -196.606 413.217 1335.41 
-93.8637 -349.69 1567.37 151.471 -420.773 1486.26 -232.729 -317.868 1542.34 
202.959 -317.426 1576.48 196.072 -8.40695 1568.22 271.125 -101.632 1597.14 
-427.063 141.93 1556.08 -203.691 115.658 1561.79 -80.8425 180.086 1622.62 
395.568 274.089 1517.73 -295.135 355.022 1565.4 57.4168 351.911 1479.07 
72.2207 -378.952 1787.86 -369.771 -230.773 1737.22 89.1312 -100.75 1757.19 
386.551 -9.94249 1693.46 -289.31 77.5737 1797.22 73.935 30.1984 1742.02 
182.801 144.377 1663.72 -162.733 -403.002 1972.51 -171.103 -259.262 1918.93 
44.3902 -236.224 1973.68 361.402 -238.109 1812.05 444.665 -308.666 1976.5 
-393.105 -81.1454 1860.4 -158.9 -141.387 1937.12 315.104 -68.2523 1952.43 
-53.319 46.9039 1920.12 -156.528 119.747 1948.54 94.6366 144.532 1921.19 
279.291 36.0411 1839.89 -431.283 306.33 1855.02 -283.568 175.837 1926.23 
-265.786 285.249 1940 -5.08772 291.306 1968.03 -127.121 261.846 1862.01 
164.453 232.441 1864.67 235.401 320.588 1966.8 349.393 272.361 1862.4 
426.697 198.175 1868.69 -175.859 408.262 1970.04 -289.283 443.46 1915.06 
-28.265 443.174 1815.74 -82.9068 357.768 1841.68 181.472 393.507 1868.24 
-2.27468 -334.038 2048.65 309.279 -350.797 2009.06 -299.545 -326.618 1997.84 
256.538 -198.551 1987.59 354.417 -251.08 2032.51 -207.334 -161.086 2046.07 
-329.642 -159.048 1983.16 -257.339 -56.5158 1988.97 96.5809 -64.5171 2004.89 
-446.554 90.4873 1981.71 -369.031 13.7935 2014.5 -275.325 58.1205 2021.67 
-128.257 20.9888 2037.69 73.7732 43.7038 2043.71 446.325 143.619 2028.21 
396.716 25.9934 2020.63 -368.124 223.483 2036.58 345.799 211.081 2021.54 

VERTICES 513 1026
1 0 
1 1 
1 2 
1 3 
1 4 
1 5 
1 6 
1 7 
1 8 
1 9 
1 10 
1 11 
1 12 
1 13 
1 14 
1 15 
1 16 
1 17 
1 18 
1 19 
1 20 
1 21 
1 22 
1 23 
1 24 
1 25 
1 26 
1 27 
1 28 
1 29 
1 30 
1 31 
1 32 
1 33 
1 34 
1 35 
1 36 
1 37 
1 38 
1 39 
1 40 
1 41 
1 42 
1 43 
1 44 
1 45 
1 46 
1 47 
1 48 
1 49 
1 50 
1 51 
1 52 
1 53 
1 54 
1 55 
1 56 
1 57 
1 58 
1 59 
1 60 
1 61 
1 62 
1 63 
1 64 
1 65 
1 66 
1 67 
1 68 
1 69 
1 70 
1 71 
1 72 
1 73 
1 74 
1 75 
1 76 
1 77 
1 78 
1 79 
1 80 
1 81 
1 82 
1 83 
1 84 
1 85 
1 86 
1 87 
1 88 
1 89 
1 90 
1 91 
1 92 
1 93 
1 94 
1 95 
1 96 
1 97 
1 98 
1 99 
1 100 
1 101 
1 102 
1 103 
1 104 
1 105 
1 106 
1 107 
1 108 
1 109 
1 110 
1 111 
1 112 
1 113 
1 114 
1 115 
1 116 
1 117 
1 118 
1 119 
1 120 
1 121 
1 122 
1 123 
1 124 
1 125 
1 126 
1 127 
1 128 
1 129 
1 130 
1 131 
1 132 
1 133 
1 134 
1 135 
1 136 
1 137 
1 138 
1 139 
1 140 
1 141 
1 142 
1 143 
1 144 
1 145 
1 146 
1 147 
1 148 
1 149 
1 150 
1 151 
1 152 
1 153 
1 154 
1 155 
1 156 
1 157 
1 158 
1 159 
1 160 
1 161 
1 162 
1 163 
1 164 
1 165 
1 166 
1 167 
1 168 
1 169 
1 170 
1 171 
1 172 
1 173 
1 174 
1 175 
1 176 
1 177 
1 178 
1 179 
1 180 
1 181 
1 182 
1 183 
1 184 
1 185 
1 186 
1 187 
1 188 
1 189 
1 190 
1 191 
1 192 
1 193 
1 194 
1 195 
1 196 
1 197 
1 198 
1 199 
1 200 
1 201 
1 202 
1 203 
1 204 
1 205 
1 206 
1 207 
1 208 
1 209 
1 210 
1 211 
1 212 
1 213 
1 214 
1 215 
1 216 
1 217 
1 218 
1 219 
1 220 
1 221 
1 222 
1 223 
1 224 
1 225 
1 226 
1 227 
1 228 
1 229 
1 230 
1 231 
1 232 
1 233 
1 234 
1 235 
1 236 
1 237 
1 238 
1 239 
1 240 
1 241 
1 242 
1 243 
1 244 
1 245 
1 246 
1 247 
1 248 
1 249 
1 250 
1 251 
1 252 
1 253 
1 254 
1 255 
1 256 
1 257 
1 258 
1 259 
1 260 
1 261 
1 262 
1 263 
1 264 
1 265 
1 266 
1 267 
1 268 
1 269 
1 270 
1 271 
1 272 
1 273 
1 274 
1 275 
1 276 
1 277 
1 278 
1 279 
1 280 
1 281 
1 282 
1 283 
1 284 
1 285 
1 286 
1 287 
1 288 
1 289 
1 290 
1 291 
1 292 
1 293 
1 294 
1 295 
1 296 
1 297 
1 298 
1 299 
1 300 
1 301 
1 302 
1 303 
1 304 
1 305 
1 306 
1 307 
1 308 
1 309 
1 310 
1 311 
1 312 
1 313 
1 314 
1 315 
1 316 
1 317 
1 318 
1 319 
1 320 
1 321 
1 322 
1 323 
1 324 
1 325 
1 326 
1 327 
1 328 
1 329 
1 330 
1 331 
1 332 
1 333 
1 334 
1 335 
1 336 
1 337 
1 338 
1 339 
1 340 
1 341 
1 342 
1 343 
1 344 
1 345 
1 346 
1 347 
1 348 
1 349 
1 350 
1 351 
1 352 
1 353 
1 354 
1 355 
1 356 
1 357 
1 358 
1 359 
1 360 
1 361 
1 362 
1 363 
1 364 
1 365 
1 366 
1 367 
1 368 
1 369 
1 370 
1 371 
1 372 
1 373 
1 374 
1 375 
1 376 
1 377 
1 378 
1 379 
1 380 
1 381 
1 382 
1 383 
1 384 
1 385 
1 386 
1 387 
1 388 
1 389 
1 390 
1 391 
1 392 
1 393 
1 394 
1 395 
1 396 
1 397 
1 398 
1 399 
1 400 
1 401 
1 402 
1 403 
1 404 
1 405 
1 406 
1 407 
1 408 
1 409 
1 410 
1 411 
1 412 
1 413 
1 414 
1 415 
1 416 
1 417 
1 418 
1 419 
1 420 
1 421 
1 422 
1 423 
1 424 
1 425 
1 426 
1 427 
1 428 
1 429 
1 430 
1 431 
1 432 
1 433 
1 434 
1 435 
1 436 
1 437 
1 438 
1 439 
1 440 
1 441 
1 442 
1 443 
1 444 
1 445 
1 446 
1 447 
1 448 
1 449 
1 450 
1 451 
1 452 
1 453 
1 454 
1 455 
1 456 
1 457 
1 458 
1 459 
1 460 
1 461 
1 462 
1 463 
1 464 
1 465 
1 466 
1 467 
1 468 
1 469 
1 470 
1 471 
1 472 
1 473 
1 474 
1 475 
1 476 
1 477 
1 478 
1 479 
1 480 
1 481 
1 482 
1 483 
1 484 
1 485 
1 486 
1 487 
1 488 
1 489 
1 490 
1 491 
1 492 
1 493 
1 494 
1 495 
1 496 
1 497 
1 498 
1 499 
1 500 
1 501 
1 502 
1 503 
1 504 
1 505 
1 506 
1 507 
1 508 
1 509 
1 510 
1 511 
1 512 

POINT_DATA 513
FIELD FieldData 7
id 1 513 int
20 9 35 74 25 53 73 61 19 
37 26 79 101 52 22 82 84 36 
99 14 4 60 97 102 41 80 27 
72 15 110 18 17 28 142 111 24 
85 105 33 39 43 91 58 81 8 
69 11 1 104 93 32 134 46 5 
76 87 56 23 86 45 30 129 100 
57 48 2 59 3 16 50 10 38 
63 42 7 71 62 51 13 114 54 
6 40 55 92 77 154 106 155 173 
157 67 96 127 230 228 118 185 192 
122 171 164 88 175 207 29 119 140 
159 279 31 120 183 161 211 116 141 
112 167 124 193 208 227 216 90 150 
214 34 133 170 68 103 221 78 146 
166 123 169 224 200 89 151 132 181 
245 272 108 47 158 98 109 217 75 
138 152 215 197 229 210 165 172 271 
21 117 196 248 191 178 113 130 44 
223 156 225 143 65 204 137 219 190 
136 121 176 168 187 107 115 145 202 
135 95 139 194 182 160 131 162 269 
12 281 256 94 184 125 70 147 213 
66 128 220 144 64 149 212 148 257 
153 49 83 188 195 249 303 393 296 
270 273 376 334 254 290 284 369 239 
306 300 126 365 345 252 320 308 199 
246 286 267 251 352 379 335 276 326 
307 389 363 323 189 277 292 233 205 
339 186 236 317 218 262 351 364 396 
201 174 238 255 318 244 259 293 362 
366 302 240 234 380 370 324 241 342 
359 392 331 283 301 329 297 309 163 
268 179 287 388 341 265 258 298 282 
177 235 386 304 253 315 180 294 397 
340 319 226 242 289 338 209 206 260 
278 266 330 328 390 247 295 384 332 
310 321 263 325 395 312 231 275 313 
368 291 250 237 264 311 314 232 222 
280 316 337 198 327 305 387 377 322 
203 285 243 344 261 336 333 355 382 
357 299 274 288 372 381 421 400 347 
432 373 426 367 436 374 378 385 356 
371 394 350 444 346 361 398 358 348 
354 353 399 383 360 427 391 349 375 
343 420 411 439 414 506 465 415 499 
443 408 403 448 433 429 402 401 453 
430 456 452 455 404 419 422 438 442 
428 437 435 406 451 425 417 446 423 
440 450 445 447 416 424 410 413 407 
405 431 418 513 454 488 434 412 460 
441 449 409 484 458 496 494 489 468 
457 501 478 472 498 480 491 464 483 
487 485 462 510 466 497 495 463 475 
492 486 502 511 461 459 503 500 479 
509 481 469 474 508 482 512 507 470 
477 476 471 505 493 490 504 467 473 

type 1 513 int
1 1 1 1 1 1 1 1 1 
1 1 1 1 1 1 1 1 1 
1 1 1 1 1 1 1 1 1 
1 1 1 1 1 1 1 1 1 
1 1 1 1 1 1 1 1 1 
1 1 1 1 1 1 1 1 1 
1 1 1 1 1 1 1 1 1 
1 1 1 1 1 1 1 1 1 
1 1 1 1 1 1 1 1 1 
1 1 1 1 1 1 1 1 1 
1 1 1 1 1 1 1 1 1 
1 1 1 1 1 1 1 1 1 
1 1 1 1 1 1 1 1 1 
1 1 1 1 1 1 1 1 1 
1 1 1 1 1 1 1 1 1 
1 1 1 1 1 1 1 1 1 
1 1 1 1 1 1 1 1 1 
1 1 1 1 1 1 1 1 1 
1 1 1 1 1 1 1 1 1 
1 1 1 1 1 1 1 1 1 
1 1 1 1 1 1 1 1 1 
1 1 1 1 1 1 1 1 1 
1 1 1 1 1 1 1 1 1 
1 1 1 1 1 1 1 1 1 
1 1 1 1 1 1 1 1 1 
1 1 1 1 1 1 1 1 1 
1 1 1 1 1 1 1 1 1 
1 1 1 1 1 1 1 1 1 
1 1 1 1 1 1 1 1 1 
1 1 1 1 1 1 1 1 1 
1 1 1 1 1 1 1 1 1 
1 1 1 1 1 1 1 1 1 
1 1 1 1 1 1 1 1 1 
1 1 1 1 1 1 1 1 1 
1 1 1 1 1 1 1 1 1 
1 1 1 1 1 1 1 1 1 
1 1 1 1 1 1 1 1 1 
1 1 1 1 1 1 1 1 1 
1 1 1 1 1 1 1 1 1 
1 1 1 1 1 1 1 1 1 
1 1 1 1 1 1 1 1 1 
1 1 1 1 1 1 1 1 1 
1 1 1 1 1 1 1 1 1 
1 1 1 1 1 1 1 1 1 
1 1 1 1 1 1 1 1 1 
1 1 1 1 1 1 1 1 1 
1 1 1 1 1 1 1 1 1 
1 1 1 1 1 1 1 1 1 
1 1 1 1 1 1 1 1 1 
1 1 1 1 1 1 1 1 1 
1 1 1 1 1 1 1 1 1 
1 1 1 1 1 1 1 1 1 
1 1 1 1 1 1 1 1 1 
1 1 1 1 1 1 1 1 1 
1 1 1 1 1 1 1 1 1 
1 1 1 1 1 1 1 1 1 
1 1 1 1 1 1 1 1 1 

i 3 513 int
0 0 0 0 1 0 0 0 0 
0 0 0 0 1 0 0 0 0 
0 1 0 0 0 0 0 0 0 
0 0 0 -1 0 0 0 0 0 
0 1 0 0 0 0 1 0 0 
0 0 0 0 0 0 0 0 0 
0 0 0 0 0 0 0 0 0 
0 0 0 0 0 0 0 0 0 
0 0 0 -1 0 0 1 0 0 
0 0 0 0 0 0 0 0 0 
0 0 0 0 0 0 0 0 0 
0 0 0 0 0 0 0 0 0 
0 0 0 0 0 0 -1 0 0 
-1 0 0 0 0 0 0 0 0 
0 0 0 0 0 0 0 0 0 
0 0 0 0 0 0 0 0 0 
0 0 0 0 0 0 0 0 0 
0 0 0 0 0 0 0 0 0 
0 0 0 0 0 0 0 0 0 
0 0 0 0 0 0 0 0 0 
0 0 0 0 0 0 0 0 0 
0 0 0 0 0 0 0 0 0 
0 0 0 -1 0 0 -1 0 0 
0 0 0 0 0 0 1 0 0 
0 0 0 0 0 0 0 -1 0 
0 0 0 0 0 0 0 0 0 
0 0 0 0 0 0 0 0 0 
0 0 0 0 -1 0 0 -1 0 
0 0 0 0 0 0 0 0 0 
0 1 0 0 0 0 0 0 0 
1 0 0 0 1 0 0 1 0 
0 0 0 0 1 0 0 0 0 
0 0 0 0 0 0 0 0 0 
0 0 0 0 0 0 0 0 0 
0 0 0 0 1 0 0 0 0 
1 0 0 0 0 0 0 0 0 
0 0 0 0 0 0 0 0 0 
0 0 0 0 0 0 0 0 0 
0 0 0 0 0 0 0 0 0 
0 0 0 0 0 0 0 0 0 
0 0 0 0 0 0 0 0 0 
0 0 0 0 0 0 0 0 0 
-1 0 0 0 0 0 0 0 0 
0 0 0 0 0 0 0 0 0 
0 0 0 0 0 0 0 0 0 
0 0 0 0 0 0 0 0 0 
0 0 0 0 0 0 0 0 0 
0 0 0 0 0 0 0 0 0 
0 0 0 0 0 0 0 0 0 
0 0 0 0 0 0 0 0 0 
0 0 0 0 0 0 1 0 0 
0 0 0 0 0 0 0 0 0 
0 0 0 0 0 0 0 0 0 
0 0 0 0 0 0 0 0 0 
0 0 0 0 0 0 0 0 0 
0 0 0 0 0 0 0 0 0 
0 0 0 0 0 0 -1 0 0 
0 0 0 0 0 0 0 0 0 
1 0 0 0 0 0 0 0 0 
0 0 0 0 0 0 0 0 0 
0 0 0 0 0 0 0 0 0 
0 0 0 0 0 0 0 0 0 
0 0 0 0 0 0 0 0 0 
0 0 0 0 0 0 0 0 0 
0 0 0 0 0 0 -1 0 0 
0 0 0 -1 0 0 0 0 0 
0 -1 0 0 0 0 0 0 0 
0 0 0 0 0 0 0 0 0 
0 0 0 0 0 0 0 0 0 
0 -1 0 0 -1 0 0 0 0 
0 0 0 0 0 0 0 0 0 
0 0 0 0 0 0 0 0 0 
0 0 0 0 0 0 0 0 0 
0 0 0 0 0 0 0 0 0 
0 0 0 0 0 0 0 0 0 
0 1 0 0 0 0 0 0 0 
0 0 0 0 0 0 0 0 0 
0 1 0 0 0 0 0 0 0 
0 0 0 0 1 0 0 0 0 
0 0 0 0 0 0 0 0 0 
0 0 0 0 0 0 0 0 0 
0 0 0 0 0 0 0 0 0 
0 0 0 0 0 0 0 0 0 
0 0 0 0 0 0 0 0 0 
0 0 0 0 0 0 0 0 0 
0 0 0 0 0 0 0 0 0 
0 0 0 0 0 0 0 0 0 
0 0 0 0 0 0 0 0 0 
0 0 0 0 0 0 0 0 0 
0 0 0 0 0 0 0 0 0 
-1 0 0 0 0 0 0 0 0 
0 0 0 -1 0 0 0 0 0 
0 0 0 0 0 0 0 0 0 
0 0 0 0 0 0 0 0 0 
0 0 0 0 0 0 0 0 0 
0 0 0 0 0 0 0 0 0 
0 0 0 0 0 0 0 0 0 
0 0 0 0 0 0 0 0 0 
0 0 0 0 0 0 0 0 0 
0 0 0 -1 0 0 0 0 0 
0 0 0 0 0 0 0 0 0 
0 0 0 0 0 0 0 0 0 
0 0 0 0 0 0 0 0 0 
0 0 0 0 0 0 0 0 0 
0 0 0 0 0 0 0 0 0 
0 0 0 0 0 0 0 0 0 
0 0 0 0 0 0 0 0 0 
-1 0 0 0 0 0 0 0 0 
0 0 0 0 0 0 0 0 0 
0 0 0 0 0 0 0 0 0 
0 0 0 0 0 0 0 0 0 
0 0 0 0 0 0 0 0 0 
0 0 0 0 0 0 0 0 0 
0 0 0 0 0 0 0 0 0 
0 0 0 0 0 0 -1 0 0 
0 0 0 0 0 0 0 0 0 
0 0 0 0 0 0 0 0 0 
0 0 0 0 0 0 0 0 0 
0 0 0 0 0 0 0 0 0 
0 0 0 0 0 0 0 0 0 
0 -1 0 0 0 0 0 0 0 
0 0 0 0 0 0 0 0 0 
0 0 0 0 0 0 0 0 0 
0 -1 0 -1 0 0 0 0 0 
0 0 0 0 0 0 0 0 0 
0 0 0 0 0 0 0 0 0 
0 0 0 0 0 0 0 0 0 
0 0 0 0 0 0 0 0 0 
0 0 0 0 0 0 0 0 0 
0 0 0 0 0 0 0 0 0 
0 0 0 0 0 0 0 0 0 
0 0 0 0 0 0 0 0 0 
0 0 0 0 0 0 0 0 0 
0 0 0 0 0 0 0 0 0 
0 0 0 0 0 0 0 0 0 
-1 0 0 0 0 0 0 0 0 
0 0 0 0 0 0 0 0 0 
0 0 0 0 0 0 0 0 0 
0 0 0 0 0 0 0 0 0 
0 0 0 0 0 0 0 0 0 
0 0 0 0 0 0 0 0 0 
0 0 0 0 0 0 0 0 0 
0 0 0 0 0 0 0 0 0 
0 0 0 0 0 0 0 0 0 
0 0 0 0 0 0 0 0 0 
0 0 0 0 0 0 0 0 0 
0 0 0 0 0 0 0 0 0 
0 0 0 0 0 0 0 0 0 
0 0 0 0 0 0 0 0 0 
0 0 0 0 0 0 0 0 0 
0 0 0 0 0 0 0 0 0 
0 0 0 0 0 0 0 0 0 
0 0 0 0 0 0 0 0 0 
0 0 0 0 0 0 0 0 0 
0 0 0 0 0 0 0 0 0 
0 0 0 0 0 0 0 0 0 
0 0 0 0 0 0 0 0 0 
0 0 0 0 0 0 0 0 0 
0 0 0 0 0 0 0 0 0 
0 0 0 0 0 0 0 0 0 
0 0 0 0 0 0 0 0 0 
0 0 0 0 0 0 0 0 0 
0 0 0 0 0 0 0 0 0 
0 0 0 0 0 0 0 0 0 
0 0 0 0 0 0 0 0 0 
0 0 0 0 0 0 0 0 0 
0 0 0 0 0 0 0 0 0 
0 0 0 0 0 0 0 0 0 
0 0 0 0 0 0 0 0 0 
0 0 0 0 0 0 0 0 0 
0 0 0 0 0 0 0 0 0 

v 3 513 double
-0.00106559 2.40174e-05 0.000618721 -0.000867053 2.10242e-05 3.94874e-05 -0.00035457 0.00124848 0.000314808 
0.000360319 -0.000551988 -0.000107371 -0.00231312 0.000221557 -0.000598449 -0.000341353 -0.00188965 -0.00124771 
0.000648084 0.000465149 -0.000545335 -0.00224076 -0.00112906 -6.42922e-05 0.000586176 0.00139324 2.64286e-15 
-0.000821737 -0.000118995 -8.51917e-05 -0.00215179 -0.000966971 -0.00059785 -0.00158331 0.000827677 0.00179763 
-8.43974e-05 -0.00100468 1.79209e-05 0.000766569 0.000142204 0.000380134 -0.00164261 -0.000954642 -0.00116974 
0.000724994 -0.000197697 -0.000447219 -0.00243357 -0.00111118 -8.48955e-05 0.00110028 -0.00028339 -0.000686371 
-0.000283943 0.000148082 -3.25442e-06 -0.00218863 -0.00185235 0.00131724 -0.000837701 -0.000197298 -0.000157162 
-0.0020673 -0.000481536 0.000407901 -0.000981128 5.26305e-05 0.000111525 -0.00127592 -0.000115835 2.61037e-05 
-0.000171224 0.000791115 -0.000595093 -0.00045178 -7.12938e-05 0.000153768 0.000135592 -8.79166e-06 4.76145e-05 
-0.000655598 0.000134467 4.26706e-05 9.68693e-06 -0.000328895 0.000180507 -0.000654274 -0.000282882 0.00117988 
0.000330283 -0.00048108 0.000691244 3.00564e-05 -0.000936023 -3.87518e-06 -0.000652116 -0.00100038 0.000132538 
0.00113703 -0.000685708 0.000988029 -0.000655518 4.71447e-05 -0.000112046 0.000462733 0.000251692 0.000802911 
0.000491631 4.57959e-05 3.50652e-05 0.000385521 -0.00012869 -0.000164706 -0.000541078 -0.00137367 -2.1234e-06 
4.25932e-05 0.000435812 -4.92875e-05 0.000127788 0.000919231 0.000237636 -0.00174789 -0.000851485 0.000992787 
0.00151544 0.00027994 -0.000486153 -0.00183198 -0.000268797 0.000288107 -0.000552029 8.20031e-05 0.000569967 
-0.00111501 -0.000428792 0.000912424 -5.93878e-05 -0.000715114 0.000328415 0.000664415 0.00308514 -0.000100806 
3.98694e-05 -0.000157593 0.000168731 -0.000858501 -0.000372051 0.000134538 -0.000525543 0.000170154 -0.000111397 
-0.000371407 -0.00056112 -8.36497e-05 0.000393767 0.000323859 0.000225265 0.000281672 -0.00102097 7.46568e-05 
0.0018473 -0.00154345 0.000230994 0.000787681 -0.000484593 0.000314725 0.000566664 -0.000189231 -0.000119538 
0.000171287 -0.000174274 -0.000317441 0.000791494 -1.37525e-05 0.000313799 0.000238559 0.000759583 0.000199479 
0.00168142 -0.000344737 -2.27822e-06 9.02335e-05 0.000452636 4.77498e-05 0.0011071 0.000379297 0.000193218 
-0.000597493 0.000270136 -0.00035732 0.000347276 -0.00183572 1.24361e-05 0.000986386 -0.000539704 -9.22825e-05 
0.000787154 -0.00180636 0.000170551 0.00104549 -0.000625717 4.09532e-06 0.000436963 -0.00134808 4.60303e-05 
0.000447133 -0.000975933 -0.000660584 0.000587684 -0.00156449 -0.00154343 0.000151345 -0.000480179 -0.000439276 
0.00111596 -0.000677356 -0.000596838 0.000870196 -0.000642015 0.000591608 -1.8401e-05 -0.000551167 -0.000281525 
0.000990917 -0.000677471 -0.000545018 0.00097671 -0.000622576 -0.000479527 0.000462377 3.32913e-06 -1.65144e-12 
-0.000414232 1.54095e-06 8.11091e-05 -0.000428281 -0.000519522 -6.08548e-05 -0.000505393 0.000415912 -2.85799e-05 
-0.000657233 -0.000682949 -0.000240129 -0.000116574 -0.000361983 3.15141e-05 0.000471637 0.00018597 -0.000382393 
-0.00146074 9.26045e-05 -0.000173269 0.000783483 0.00126419 0.00134391 9.5133e-05 0.000397446 -0.0018441 
-0.00132827 0.00142974 -0.00016701 -0.000167377 -3.44703e-05 -0.000961131 -0.000143751 -0.0003317 -0.00346509 
-0.00178298 0.00134869 0.00156357 8.33429e-05 0.000841457 0.000313587 -0.000423808 -0.000745025 0.000267911 
0.000376142 0.000564063 0.000160751 -0.000212927 -0.000386374 0.0011924 -0.0032686 0.00101344 -0.00525519 
-0.00338263 0.000899054 -0.000547342 -0.00176851 -0.00160709 0.000460994 -0.0020902 -0.00038297 -0.00205533 
-0.00207246 -0.00055585 0.000247771 -1.18863e-05 0.000618555 0.000517183 -0.00228499 -0.00174755 -0.00125968 
-0.000456607 0.000381001 -0.000479178 0.00139846 -0.000733283 0.000675956 -0.00167345 0.000648589 -0.00038201 
-0.00486087 0.00222824 -0.00154108 -0.00099688 -0.000435516 -0.000183914 -0.000311169 0.00196799 0.000392034 
-0.000636826 -0.000487981 0.000431174 -0.00280902 -0.00195471 0.000743002 -0.00127384 0.000270675 -2.45638e-05 
0.0038224 0.0049377 -0.000445926 0.00141315 0.0011156 0.00229144 -0.00159613 -0.00138281 -0.00086072 
0.00148507 0.00150458 -0.00016002 -0.000458667 -0.00114314 -0.000334847 0.00116739 -0.00150645 0.00194468 
-0.00176488 0.000501366 4.72941e-06 -0.000821052 0.00244692 -0.00213767 0.00114594 0.00166647 6.10862e-05 
-0.000170932 0.00304505 -0.00114485 -0.000131507 0.00204942 0.00277805 -0.000543503 0.0016062 0.00157588 
-0.000842561 0.00292872 0.00275406 -0.00095692 -0.000718259 -0.00113844 -0.000734648 -7.61743e-05 -0.00112919 
-0.00111518 -0.00134834 -0.000279799 4.51097e-05 3.44385e-05 0.000154273 -0.000287752 -0.000476568 3.17573e-05 
0.000894016 -0.000219575 -0.000188547 -1.27669e-05 -0.000548092 0.000374092 0.000674594 0.000585955 0.0002853 
0.000833541 0.00137079 0.000578448 -0.000360751 -0.000715451 8.11793e-05 -0.000175498 -0.00035882 0.00147532 
0.00096685 -0.000718559 -0.00170984 0.00240499 4.70347e-05 -0.000183861 -0.00126967 -0.000430918 0.000712612 
-0.00101838 -0.00092694 0.00153409 0.0020939 -0.000835954 0.000207799 -0.000149658 -0.00017555 0.000721875 
-0.00145235 -0.000456598 0.0002614 -0.000731518 -0.00027722 0.00105945 -0.000452014 0.00102853 -0.000589319 
-0.000193168 0.000819345 -0.000761513 -0.000447605 0.000209457 0.000337021 -0.000770757 -0.000332904 -0.000163849 
-0.000156455 0.000279259 -0.00100161 -0.000969446 -0.000335672 0.000717697 -0.00107424 -0.000337294 0.000732871 
-0.00483826 0.000539977 0.00111315 -0.0022476 -0.00205905 0.00227038 -0.00183859 -0.000651363 0.000254922 
-0.00291349 -0.000547613 0.00243541 -0.00063573 0.000779398 0.00141664 -0.00153658 0.00105592 0.00102549 
-0.000714557 0.00115788 -0.000268854 -0.00267516 -0.00128898 0.00249626 0.00159072 -0.00195028 -0.0020064 
-0.00129552 -0.000779617 -0.000585038 -0.00141893 0.000629953 -0.00136918 -0.000666134 -0.00248815 -0.00139182 
-0.000106594 -0.000410038 9.75332e-05 -0.000119913 -0.00165011 0.000838598 -0.000535261 0.00027645 -0.000111662 
0.000198332 -0.00130504 -9.80396e-05 0.000202755 -0.000849012 5.28838e-05 -0.000351485 -0.000606412 0.000224319 
-0.00116873 -0.000682935 -0.000900928 -0.000498914 -0.000314976 -0.000759602 -0.000207638 0.00033941 4.9051e-05 
0.000169888 0.000724295 -0.000318233 -0.000256008 0.00117203 -8.68524e-05 -0.00176503 0.000598646 0.000115422 
-0.000712845 -0.000919985 -0.000829305 0.000514175 0.00133888 -0.000100638 0.00213293 -0.000376541 0.00153869 
0.00147316 -3.58474e-05 -0.000130129 2.66161e-05 0.000377178 -1.51788e-05 0.00121396 0.000298559 0.000214904 
0.00052174 0.000608405 -0.000125127 0.00137872 -0.000116714 0.000278443 0.000276747 0.000147235 0.000932131 
0.000385986 0.000174639 -9.58686e-05 -0.000583628 0.001262 -0.00130329 -0.00126492 -0.00163459 -0.00101967 
0.000116549 0.00031479 0.000324773 -0.000134728 -0.000716412 6.77353e-06 0.000225972 7.8669e-05 0.000421452 
-0.00403586 -0.00420708 0.000777476 -0.000528887 0.000468774 -0.000501311 -0.000435022 -0.000978196 -0.000348585 