FoamFile
{version 2.0; format ascii;class Cloud<passiveParticle>; location 0;object  positions;}
42
(
( -0.000477731 4.20242e-05 9.9858e-05 ) 0 
( -0.00033256 0.000179475 9.98415e-05 ) 0 
( -0.000323903 0.000425881 9.98163e-05 ) 0 
( -0.000494885 0.000322236 9.97846e-05 ) 0 
( -0.000102328 9.36864e-05 9.98744e-05 ) 0 
( -0.000170182 0.000296642 9.98962e-05 ) 0 
( -0.000485719 0.000184611 0.000244345 ) 0 
( -0.0003248 0.000302584 0.000257043 ) 0 
( -0.000218697 0.0001331 0.000257509 ) 0 
( -0.000174134 0.000433474 0.000246028 ) 0 
( -6.89538e-05 0.000265062 0.000269335 ) 0 
( -0.000380742 1.69704e-05 0.000272825 ) 0 
( -7.35931e-07 0.000432147 0.000355306 ) 0 
( -0.000353006 0.000167433 0.00040153 ) 0 
( -8.19124e-05 0.000114595 0.000402116 ) 0 
( -0.000409941 1.76827e-05 0.00052096 ) 0 
( -0.000363355 0.000415945 0.000417035 ) 0 
( -0.00020203 0.000297849 0.000414747 ) 0 
( -0.000148861 2.26437e-05 0.000580339 ) 0 
( -0.000145453 0.000222313 0.000591004 ) 0 
( -0.00040354 0.000280451 0.000558472 ) 0 
( -0.000225847 0.000407181 0.000580318 ) 0 
( -2.14012e-05 0.000289196 0.000732864 ) 0 
( -0.000305827 0.00011872 0.000658478 ) 0 
( -0.000496736 0.000340587 0.000724767 ) 0 
( -0.000156659 0.000461018 0.00075992 ) 0 
( -0.000321095 3.89913e-06 0.000821446 ) 0 
( -0.000351613 0.000478038 0.000718607 ) 0 
( -0.000269669 0.000297039 0.000741265 ) 0 
( -0.000441777 0.000162935 0.000798254 ) 0 
( -0.00011273 0.00011273 0.000755096 ) 0 
( -0.000330832 0.000265774 0.000929061 ) 0 
( -0.000139701 0.000312103 0.000892464 ) 0 
( -0.000190012 0.000124148 0.000939132 ) 0 
( -0.000422929 0.000441155 0.000901668 ) 0 
( -0.000352887 8.46301e-05 0.00104818 ) 0 
( -0.000242741 0.000454953 0.000987186 ) 0 
( -1.39016e-05 0.000207695 0.00108329 ) 0 
( -0.000187111 0.000129447 0.00115062 ) 0 
( -0.000407716 0.000452433 0.00110073 ) 0 
( -0.000169896 0.000326634 0.00112213 ) 0 
( -0.000358537 0.0002625 0.00113935 ) 0 
)
