FoamFile
{version 2.0; format ascii;class vectorField; location 0;object  v;}
42
(
( 1.79922e-05 1.84174e-05 -5.36453e-06 )  
( -1.9072e-05 1.9354e-05 3.04952e-07 )  
( -3.16989e-05 1.87932e-05 1.2646e-05 )  
( -1.82337e-05 -1.50139e-05 -2.0274e-05 )  
( 9.62418e-06 2.17172e-05 1.1736e-05 )  
( -2.22759e-05 2.68285e-05 -7.93752e-06 )  
( -4.60454e-06 -1.98935e-05 -5.79135e-05 )  
( -5.16519e-05 4.53712e-05 1.06165e-05 )  
( -1.71366e-05 6.95406e-05 1.79602e-05 )  
( -3.11126e-05 6.54046e-05 6.20245e-06 )  
( -5.01772e-05 7.68311e-05 2.35124e-06 )  
( 6.80109e-06 4.12282e-05 -1.79535e-06 )  
( 1.03505e-05 5.00622e-05 -5.35791e-06 )  
( -4.39422e-05 3.54939e-05 -2.8303e-05 )  
( -1.05405e-05 6.79973e-05 -1.15005e-05 )  
( -2.39591e-05 7.93946e-05 -4.74451e-05 )  
( -8.35664e-05 5.82204e-05 -2.39883e-05 )  
( -5.77436e-05 7.55829e-05 1.33934e-05 )  
( -5.07588e-05 0.00011927 2.17746e-05 )  
( 8.90059e-05 0.000133394 6.80326e-06 )  
( -0.00010733 5.59361e-05 -4.36325e-05 )  
( -4.80246e-05 5.25161e-05 -1.92116e-06 )  
( 8.89588e-05 0.000229721 -0.000114843 )  
( -3.93252e-05 0.000130675 -0.000113771 )  
( -7.74296e-05 0.000133943 -0.000119664 )  
( 4.86583e-05 0.000194321 -9.4531e-05 )  
( 0.000108743 0.000266035 -0.000105223 )  
( -5.20462e-05 9.28705e-05 -6.04873e-05 )  
( -6.65224e-05 5.55502e-05 -4.99096e-05 )  
( -6.60554e-05 0.00013318 -0.000136365 )  
( 0.000185621 0.000254514 2.00083e-05 )  
( -0.000133619 5.0311e-05 -0.000131012 )  
( 1.45327e-05 -0.000309461 -2.81631e-05 )  
( 2.38487e-05 0.000221643 -2.76894e-05 )  
( -5.38792e-05 0.000118869 -0.000123439 )  
( -0.000114821 4.9354e-05 -0.000286607 )  
( 5.8754e-05 1.67063e-05 -0.000258063 )  
( 6.7176e-05 0.000110474 -0.000249088 )  
( -0.000107127 -1.46486e-05 -0.000564046 )  
( 0.000175447 4.26376e-05 -0.000100266 )  
( 3.15282e-05 6.4204e-06 -0.000278152 )  
( 0.000153979 3.8048e-05 -0.000499814 )  
)
