/*--------------------------------*- C++ -*----------------------------------*\
| =========                 |                                                 |
| \\      /  F ield         | OpenFOAM: The Open Source CFD Toolbox           |
|  \\    /   O peration     | Version:  5.x                                   |
|   \\  /    A nd           | Web:      www.OpenFOAM.org                      |
|    \\/     M anipulation  |                                                 |
\*---------------------------------------------------------------------------*/
FoamFile
{
    version     2.0;
    format      ascii;
    class       volVectorField;
    location    "60000";
    object      stored_U;
}
// * * * * * * * * * * * * * * * * * * * * * * * * * * * * * * * * * * * * * //

dimensions      [0 1 -1 0 0 0 0];

internalField   nonuniform List<vector> 
2250
(
(-5.96431e-11 3.52324e-11 -0.001)
(-4.51362e-11 3.80547e-11 -0.001)
(-3.92305e-11 3.86876e-11 -0.001)
(-2.1689e-11 4.0367e-11 -0.001)
(-7.70242e-12 3.97666e-11 -0.001)
(-6.00702e-11 1.02809e-10 -0.001)
(-4.18253e-11 1.0793e-10 -0.001)
(-3.69716e-11 1.05859e-10 -0.001)
(-2.05552e-11 1.07033e-10 -0.001)
(-8.24928e-12 1.05336e-10 -0.001)
(-6.191e-11 1.63309e-10 -0.001)
(-4.22113e-11 1.69424e-10 -0.001)
(-4.01878e-11 1.59452e-10 -0.001)
(-2.2011e-11 1.58004e-10 -0.001)
(-9.18069e-12 1.5589e-10 -0.001)
(-6.20123e-11 1.57265e-10 -0.001)
(-4.56467e-11 2.0201e-10 -0.001)
(-4.83819e-11 1.982e-10 -0.001)
(-2.37858e-11 1.98677e-10 -0.001)
(-1.00331e-11 1.98469e-10 -0.001)
(-1.23555e-10 2.87658e-10 -0.001)
(-1.31169e-12 2.15158e-10 -0.001)
(-4.35003e-11 2.24164e-10 -0.001)
(-2.13262e-11 2.19398e-10 -0.001)
(-8.99077e-12 2.20929e-10 -0.001)
(-1.63303e-10 1.04985e-10 -0.001)
(-1.27026e-10 1.06565e-10 -0.001)
(-1.10087e-10 1.08074e-10 -0.001)
(-6.63384e-11 1.09831e-10 -0.001)
(-2.45876e-11 1.06026e-10 -0.001)
(-1.66356e-10 2.99019e-10 -0.001)
(-1.24201e-10 3.04714e-10 -0.001)
(-1.06937e-10 2.97706e-10 -0.001)
(-6.8209e-11 2.97532e-10 -0.001)
(-2.81935e-11 2.90496e-10 -0.001)
(-1.70921e-10 4.63638e-10 -0.001)
(-1.28577e-10 4.777e-10 -0.001)
(-1.17412e-10 4.50606e-10 -0.001)
(-7.30321e-11 4.44774e-10 -0.001)
(-3.10456e-11 4.39893e-10 -0.001)
(-1.76368e-10 4.81138e-10 -0.001)
(-1.37301e-10 5.70218e-10 -0.001)
(-1.39843e-10 5.56974e-10 -0.001)
(-7.80275e-11 5.58916e-10 -0.001)
(-3.21702e-11 5.60521e-10 -0.001)
(-3.33829e-10 7.8305e-10 -0.001)
(-5.27691e-11 6.19693e-10 -0.001)
(-1.28672e-10 6.34113e-10 -0.001)
(-6.83363e-11 6.23838e-10 -0.001)
(-2.8324e-11 6.26841e-10 -0.001)
(-3.09964e-10 1.82888e-10 -0.001)
(-2.56985e-10 1.84087e-10 -0.001)
(-2.11058e-10 1.81445e-10 -0.001)
(-1.38663e-10 1.81345e-10 -0.001)
(-5.21464e-11 1.74678e-10 -0.001)
(-3.13665e-10 5.27099e-10 -0.001)
(-2.58818e-10 5.27052e-10 -0.001)
(-2.14134e-10 5.13018e-10 -0.001)
(-1.45312e-10 5.07645e-10 -0.001)
(-5.85501e-11 4.96464e-10 -0.001)
(-3.21132e-10 8.14804e-10 -0.001)
(-2.71469e-10 8.21271e-10 -0.001)
(-2.30804e-10 7.86355e-10 -0.001)
(-1.54418e-10 7.7451e-10 -0.001)
(-6.23329e-11 7.68096e-10 -0.001)
(-3.38013e-10 9.53854e-10 -0.001)
(-2.87277e-10 1.021e-09 -0.001)
(-2.60857e-10 9.89411e-10 -0.001)
(-1.61997e-10 9.8279e-10 -0.001)
(-6.33788e-11 9.82083e-10 -0.001)
(-4.94831e-10 1.27184e-09 -0.001)
(-2.35835e-10 1.0873e-09 -0.001)
(-2.68936e-10 1.10043e-09 -0.001)
(-1.59748e-10 1.09554e-09 -0.001)
(-6.11063e-11 1.09815e-09 -0.001)
(-5.07162e-10 2.72021e-10 -0.001)
(-4.44051e-10 2.72875e-10 -0.001)
(-3.62912e-10 2.66577e-10 -0.001)
(-2.43163e-10 2.63511e-10 -0.001)
(-9.02496e-11 2.55759e-10 -0.001)
(-5.15043e-10 7.83063e-10 -0.001)
(-4.5026e-10 7.8502e-10 -0.001)
(-3.7301e-10 7.66824e-10 -0.001)
(-2.53965e-10 7.56214e-10 -0.001)
(-9.76754e-11 7.43816e-10 -0.001)
(-5.34251e-10 1.21137e-09 -0.001)
(-4.61078e-10 1.21931e-09 -0.001)
(-3.92412e-10 1.1891e-09 -0.001)
(-2.65147e-10 1.17359e-09 -0.001)
(-1.01303e-10 1.16687e-09 -0.001)
(-5.71809e-10 1.49851e-09 -0.001)
(-4.72594e-10 1.53832e-09 -0.001)
(-4.1867e-10 1.51561e-09 -0.001)
(-2.73893e-10 1.50278e-09 -0.001)
(-1.02129e-10 1.49789e-09 -0.001)
(-7.1916e-10 1.89636e-09 -0.001)
(-4.4398e-10 1.67862e-09 -0.001)
(-4.2785e-10 1.66902e-09 -0.001)
(-2.79963e-10 1.66575e-09 -0.001)
(-1.03388e-10 1.66792e-09 -0.001)
(-7.65891e-10 3.832e-10 -0.001)
(-6.99108e-10 3.81177e-10 -0.001)
(-5.66729e-10 3.73051e-10 -0.001)
(-3.79115e-10 3.66844e-10 -0.001)
(-1.37635e-10 3.60557e-10 -0.001)
(-7.78732e-10 1.09864e-09 -0.001)
(-7.10698e-10 1.10329e-09 -0.001)
(-5.82321e-10 1.08315e-09 -0.001)
(-3.9175e-10 1.06978e-09 -0.001)
(-1.4353e-10 1.05984e-09 -0.001)
(-8.03063e-10 1.68705e-09 -0.001)
(-7.16038e-10 1.72079e-09 -0.001)
(-6.0143e-10 1.69599e-09 -0.001)
(-4.0118e-10 1.67916e-09 -0.001)
(-1.45853e-10 1.67129e-09 -0.001)
(-8.55557e-10 2.07467e-09 -0.001)
(-7.01845e-10 2.1538e-09 -0.001)
(-6.23876e-10 2.15738e-09 -0.001)
(-4.13227e-10 2.14917e-09 -0.001)
(-1.48285e-10 2.14034e-09 -0.001)
(-1.06891e-09 2.71343e-09 -0.001)
(-6.33316e-10 2.43955e-09 -0.001)
(-6.05857e-10 2.39697e-09 -0.001)
(-4.13994e-10 2.38345e-09 -0.001)
(-1.50633e-10 2.37829e-09 -0.001)
(-1.10294e-09 5.26858e-10 -0.001)
(-1.02388e-09 5.19892e-10 -0.001)
(-8.21727e-10 5.11111e-10 -0.001)
(-5.43936e-10 5.04495e-10 -0.001)
(-1.92843e-10 5.01171e-10 -0.001)
(-1.11479e-09 1.52145e-09 -0.001)
(-1.04176e-09 1.51448e-09 -0.001)
(-8.38799e-10 1.49439e-09 -0.001)
(-5.54024e-10 1.48092e-09 -0.001)
(-1.95618e-10 1.47323e-09 -0.001)
(-1.12965e-09 2.34587e-09 -0.001)
(-1.05307e-09 2.37159e-09 -0.001)
(-8.5687e-10 2.34894e-09 -0.001)
(-5.63331e-10 2.33124e-09 -0.001)
(-1.98158e-10 2.31959e-09 -0.001)
(-1.17142e-09 2.87e-09 -0.001)
(-1.0388e-09 2.95772e-09 -0.001)
(-8.79019e-10 2.96945e-09 -0.001)
(-5.78849e-10 2.9636e-09 -0.001)
(-2.02917e-10 2.95269e-09 -0.001)
(-1.41379e-09 3.60685e-09 -0.001)
(-9.53623e-10 3.3785e-09 -0.001)
(-8.50737e-10 3.3219e-09 -0.001)
(-5.74385e-10 3.29841e-09 -0.001)
(-2.03619e-10 3.28438e-09 -0.001)
(-1.53461e-09 7.14011e-10 -0.001)
(-1.41871e-09 7.03669e-10 -0.00100001)
(-1.13502e-09 6.95289e-10 -0.00100001)
(-7.41362e-10 6.89665e-10 -0.00100001)
(-2.57916e-10 6.87354e-10 -0.00100001)
(-1.54843e-09 2.08178e-09 -0.001)
(-1.44024e-09 2.05867e-09 -0.001)
(-1.15117e-09 2.03806e-09 -0.00100001)
(-7.49407e-10 2.0245e-09 -0.00100001)
(-2.59457e-10 2.01564e-09 -0.00100001)
(-1.55597e-09 3.23654e-09 -0.001)
(-1.4653e-09 3.22396e-09 -0.001)
(-1.17129e-09 3.19889e-09 -0.001)
(-7.61361e-10 3.1793e-09 -0.001)
(-2.63552e-10 3.16455e-09 -0.001)
(-1.58291e-09 4.04275e-09 -0.001)
(-1.47803e-09 4.05182e-09 -0.001)
(-1.19568e-09 4.03781e-09 -0.001)
(-7.77719e-10 4.02381e-09 -0.001)
(-2.68395e-10 4.00987e-09 -0.001)
(-1.71181e-09 4.62795e-09 -0.001)
(-1.47017e-09 4.53506e-09 -0.001)
(-1.19894e-09 4.49713e-09 -0.001)
(-7.81555e-10 4.4797e-09 -0.001)
(-2.70108e-10 4.46206e-09 -0.001)
(-2.08846e-09 9.63066e-10 -0.00100001)
(-1.91124e-09 9.52676e-10 -0.00100001)
(-1.52979e-09 9.43888e-10 -0.00100001)
(-9.91145e-10 9.37904e-10 -0.00100001)
(-3.42027e-10 9.35292e-10 -0.00100001)
(-2.11139e-09 2.81431e-09 -0.00100001)
(-1.93406e-09 2.78644e-09 -0.00100001)
(-1.54738e-09 2.76218e-09 -0.00100001)
(-9.99833e-10 2.74632e-09 -0.00100001)
(-3.4357e-10 2.7361e-09 -0.00100001)
(-2.13143e-09 4.38207e-09 -0.001)
(-1.96716e-09 4.35115e-09 -0.00100001)
(-1.57268e-09 4.32039e-09 -0.00100001)
(-1.01389e-09 4.29994e-09 -0.00100001)
(-3.47875e-10 4.28458e-09 -0.00100001)
(-2.16536e-09 5.53615e-09 -0.001)
(-1.99594e-09 5.48769e-09 -0.001)
(-1.59836e-09 5.45388e-09 -0.001)
(-1.02749e-09 5.43521e-09 -0.001)
(-3.51101e-10 5.41741e-09 -0.00100001)
(-2.19841e-09 6.12506e-09 -0.001)
(-2.04928e-09 6.06736e-09 -0.001)
(-1.62467e-09 6.04655e-09 -0.001)
(-1.03982e-09 6.03914e-09 -0.001)
(-3.55602e-10 6.0209e-09 -0.001)
(-2.81751e-09 1.30055e-09 -0.00100001)
(-2.56011e-09 1.28912e-09 -0.00100001)
(-2.04975e-09 1.27885e-09 -0.00100001)
(-1.32459e-09 1.27194e-09 -0.00100001)
(-4.55919e-10 1.26977e-09 -0.00100001)
(-2.84901e-09 3.79092e-09 -0.00100001)
(-2.58666e-09 3.76059e-09 -0.00100001)
(-2.07072e-09 3.73221e-09 -0.00100001)
(-1.33375e-09 3.71552e-09 -0.00100001)
(-4.56627e-10 3.70587e-09 -0.00100001)
(-2.88774e-09 5.89021e-09 -0.00100001)
(-2.62386e-09 5.85738e-09 -0.00100001)
(-2.09855e-09 5.82296e-09 -0.00100001)
(-1.34637e-09 5.80564e-09 -0.00100001)
(-4.59633e-10 5.78982e-09 -0.00100001)
(-2.93577e-09 7.37232e-09 -0.001)
(-2.65418e-09 7.3569e-09 -0.00100001)
(-2.12216e-09 7.33522e-09 -0.00100001)
(-1.35581e-09 7.32753e-09 -0.00100001)
(-4.61798e-10 7.30905e-09 -0.00100001)
(-3.04277e-09 8.29814e-09 -0.001)
(-2.66114e-09 8.17009e-09 -0.001)
(-2.12727e-09 8.14446e-09 -0.001)
(-1.35824e-09 8.13597e-09 -0.001)
(-4.64405e-10 8.11454e-09 -0.001)
(-3.80529e-09 1.75741e-09 -0.00100001)
(-3.44391e-09 1.74189e-09 -0.00100001)
(-2.75741e-09 1.73194e-09 -0.00100001)
(-1.78131e-09 1.72636e-09 -0.00100001)
(-6.12874e-10 1.72556e-09 -0.00100001)
(-3.83805e-09 5.1109e-09 -0.00100001)
(-3.47589e-09 5.06888e-09 -0.00100001)
(-2.77799e-09 5.04231e-09 -0.00100001)
(-1.7877e-09 5.02955e-09 -0.00100001)
(-6.11659e-10 5.02099e-09 -0.00100001)
(-3.87965e-09 7.93609e-09 -0.00100001)
(-3.51926e-09 7.88675e-09 -0.00100001)
(-2.80172e-09 7.85553e-09 -0.00100001)
(-1.79641e-09 7.84382e-09 -0.00100001)
(-6.13384e-10 7.82483e-09 -0.00100001)
(-3.9154e-09 9.8767e-09 -0.00100001)
(-3.55681e-09 9.88913e-09 -0.00100001)
(-2.8205e-09 9.87653e-09 -0.00100001)
(-1.80336e-09 9.88148e-09 -0.00100001)
(-6.16181e-10 9.8609e-09 -0.00100001)
(-4.09127e-09 1.11354e-08 -0.001)
(-3.51943e-09 1.10179e-08 -0.001)
(-2.80846e-09 1.09942e-08 -0.001)
(-1.79276e-09 1.09769e-08 -0.00100001)
(-6.15527e-10 1.09476e-08 -0.00100001)
(-5.16767e-09 2.37317e-09 -0.00100002)
(-4.66622e-09 2.35598e-09 -0.00100002)
(-3.73478e-09 2.34944e-09 -0.00100002)
(-2.41169e-09 2.34699e-09 -0.00100002)
(-8.30011e-10 2.34577e-09 -0.00100002)
(-5.19673e-09 6.89388e-09 -0.00100001)
(-4.69869e-09 6.84235e-09 -0.00100002)
(-3.75049e-09 6.82492e-09 -0.00100002)
(-2.41528e-09 6.81822e-09 -0.00100002)
(-8.28465e-10 6.8071e-09 -0.00100002)
(-5.22798e-09 1.07174e-08 -0.00100001)
(-4.74432e-09 1.0642e-08 -0.00100001)
(-3.76558e-09 1.06196e-08 -0.00100001)
(-2.421e-09 1.06111e-08 -0.00100002)
(-8.30175e-10 1.05855e-08 -0.00100002)
(-5.22758e-09 1.34341e-08 -0.00100001)
(-4.79702e-09 1.3382e-08 -0.00100001)
(-3.78079e-09 1.3356e-08 -0.00100001)
(-2.42901e-09 1.33536e-08 -0.00100001)
(-8.34516e-10 1.33229e-08 -0.00100001)
(-5.30508e-09 1.48365e-08 -0.001)
(-4.82241e-09 1.48639e-08 -0.001)
(-3.79273e-09 1.48607e-08 -0.00100001)
(-2.42818e-09 1.48377e-08 -0.00100001)
(-8.36179e-10 1.47975e-08 -0.00100001)
(-7.05549e-09 3.20813e-09 -0.00100002)
(-6.36813e-09 3.19585e-09 -0.00100002)
(-5.08963e-09 3.19284e-09 -0.00100003)
(-3.28522e-09 3.19238e-09 -0.00100003)
(-1.13233e-09 3.18756e-09 -0.00100003)
(-7.08122e-09 9.3086e-09 -0.00100002)
(-6.39523e-09 9.26833e-09 -0.00100002)
(-5.10216e-09 9.26028e-09 -0.00100002)
(-3.29042e-09 9.25627e-09 -0.00100002)
(-1.13339e-09 9.23789e-09 -0.00100003)
(-7.1055e-09 1.44884e-08 -0.00100002)
(-6.4289e-09 1.44085e-08 -0.00100002)
(-5.11074e-09 1.43938e-08 -0.00100002)
(-3.29609e-09 1.43842e-08 -0.00100002)
(-1.13582e-09 1.4351e-08 -0.00100002)
(-7.08973e-09 1.83066e-08 -0.00100001)
(-6.49048e-09 1.81764e-08 -0.00100001)
(-5.12566e-09 1.81251e-08 -0.00100001)
(-3.30566e-09 1.81025e-08 -0.00100002)
(-1.14011e-09 1.80578e-08 -0.00100002)
(-6.99332e-09 1.99721e-08 -0.001)
(-6.61039e-09 2.01164e-08 -0.00100001)
(-5.18299e-09 2.01272e-08 -0.00100001)
(-3.32827e-09 2.01051e-08 -0.00100001)
(-1.14696e-09 2.00558e-08 -0.00100001)
(-9.66285e-09 4.35266e-09 -0.00100003)
(-8.7304e-09 4.34689e-09 -0.00100003)
(-6.9624e-09 4.34437e-09 -0.00100003)
(-4.49291e-09 4.34317e-09 -0.00100004)
(-1.55131e-09 4.3331e-09 -0.00100004)
(-9.68857e-09 1.26161e-08 -0.00100003)
(-8.75479e-09 1.25971e-08 -0.00100003)
(-6.97856e-09 1.25923e-08 -0.00100003)
(-4.5042e-09 1.25861e-08 -0.00100003)
(-1.55632e-09 1.25587e-08 -0.00100003)
(-9.71775e-09 1.96336e-08 -0.00100002)
(-8.77127e-09 1.95743e-08 -0.00100002)
(-6.98587e-09 1.95641e-08 -0.00100003)
(-4.51092e-09 1.95515e-08 -0.00100003)
(-1.55845e-09 1.95117e-08 -0.00100003)
(-9.72044e-09 2.48508e-08 -0.00100001)
(-8.82521e-09 2.4708e-08 -0.00100002)
(-7.0003e-09 2.46525e-08 -0.00100002)
(-4.51912e-09 2.46193e-08 -0.00100002)
(-1.56011e-09 2.45656e-08 -0.00100002)
(-9.57296e-09 2.72104e-08 -0.00100001)
(-8.96956e-09 2.73393e-08 -0.00100001)
(-7.07231e-09 2.73413e-08 -0.00100001)
(-4.55002e-09 2.73218e-08 -0.00100001)
(-1.56656e-09 2.72661e-08 -0.00100001)
(-1.32407e-08 5.92653e-09 -0.00100004)
(-1.19773e-08 5.92059e-09 -0.00100004)
(-9.53123e-09 5.9162e-09 -0.00100005)
(-6.14802e-09 5.91249e-09 -0.00100005)
(-2.12489e-09 5.89771e-09 -0.00100005)
(-1.3272e-08 1.71691e-08 -0.00100004)
(-1.20098e-08 1.71557e-08 -0.00100004)
(-9.55651e-09 1.71495e-08 -0.00100004)
(-6.16668e-09 1.71395e-08 -0.00100005)
(-2.13283e-09 1.71036e-08 -0.00100005)
(-1.33101e-08 2.67058e-08 -0.00100003)
(-1.20203e-08 2.66581e-08 -0.00100003)
(-9.56457e-09 2.66483e-08 -0.00100004)
(-6.17283e-09 2.66339e-08 -0.00100004)
(-2.13329e-09 2.65847e-08 -0.00100004)
(-1.33349e-08 3.37461e-08 -0.00100002)
(-1.20685e-08 3.36254e-08 -0.00100002)
(-9.57923e-09 3.35814e-08 -0.00100003)
(-6.17914e-09 3.35517e-08 -0.00100003)
(-2.13288e-09 3.34878e-08 -0.00100003)
(-1.32468e-08 3.71709e-08 -0.00100001)
(-1.2185e-08 3.72537e-08 -0.00100001)
(-9.63513e-09 3.72328e-08 -0.00100002)
(-6.20129e-09 3.72111e-08 -0.00100002)
(-2.13516e-09 3.71438e-08 -0.00100002)
(-1.81137e-08 8.07613e-09 -0.00100005)
(-1.63922e-08 8.06558e-09 -0.00100006)
(-1.30227e-08 8.06009e-09 -0.00100006)
(-8.39466e-09 8.054e-09 -0.00100007)
(-2.90162e-09 8.03505e-09 -0.00100007)
(-1.81562e-08 2.34063e-08 -0.00100005)
(-1.64389e-08 2.33796e-08 -0.00100005)
(-1.30579e-08 2.33717e-08 -0.00100006)
(-8.42004e-09 2.3359e-08 -0.00100006)
(-2.91127e-09 2.33119e-08 -0.00100006)
(-1.81986e-08 3.64182e-08 -0.00100004)
(-1.64591e-08 3.63456e-08 -0.00100004)
(-1.30668e-08 3.63294e-08 -0.00100005)
(-8.42574e-09 3.63127e-08 -0.00100005)
(-2.91124e-09 3.62456e-08 -0.00100005)
(-1.8223e-08 4.59823e-08 -0.00100003)
(-1.65293e-08 4.58342e-08 -0.00100003)
(-1.30888e-08 4.57777e-08 -0.00100004)
(-8.43401e-09 4.57466e-08 -0.00100004)
(-2.91131e-09 4.56621e-08 -0.00100004)
(-1.81716e-08 5.06738e-08 -0.00100001)
(-1.66636e-08 5.0784e-08 -0.00100002)
(-1.31502e-08 5.07483e-08 -0.00100002)
(-8.45233e-09 5.07194e-08 -0.00100002)
(-2.91095e-09 5.06293e-08 -0.00100003)
(-2.47084e-08 1.09964e-08 -0.00100007)
(-2.23495e-08 1.09858e-08 -0.00100008)
(-1.77389e-08 1.09801e-08 -0.00100009)
(-1.14272e-08 1.09722e-08 -0.00100009)
(-3.94812e-09 1.09472e-08 -0.00100009)
(-2.47689e-08 3.19011e-08 -0.00100007)
(-2.2408e-08 3.18613e-08 -0.00100007)
(-1.77849e-08 3.18494e-08 -0.00100008)
(-1.14606e-08 3.18332e-08 -0.00100009)
(-3.96049e-09 3.17685e-08 -0.00100009)
(-2.48155e-08 4.96652e-08 -0.00100005)
(-2.24456e-08 4.9551e-08 -0.00100006)
(-1.77993e-08 4.95193e-08 -0.00100007)
(-1.1469e-08 4.94971e-08 -0.00100007)
(-3.96177e-09 4.94054e-08 -0.00100007)
(-2.48372e-08 6.27286e-08 -0.00100004)
(-2.25561e-08 6.25031e-08 -0.00100004)
(-1.78361e-08 6.24012e-08 -0.00100005)
(-1.14792e-08 6.23544e-08 -0.00100005)
(-3.9606e-09 6.22396e-08 -0.00100006)
(-2.47425e-08 6.90335e-08 -0.00100001)
(-2.27729e-08 6.91908e-08 -0.00100002)
(-1.79422e-08 6.91555e-08 -0.00100003)
(-1.15091e-08 6.91191e-08 -0.00100003)
(-3.96068e-09 6.89919e-08 -0.00100004)
(-3.36114e-08 1.49665e-08 -0.0010001)
(-3.03761e-08 1.496e-08 -0.00100011)
(-2.41006e-08 1.49524e-08 -0.00100012)
(-1.5516e-08 1.49425e-08 -0.00100013)
(-5.35784e-09 1.4909e-08 -0.00100013)
(-3.37014e-08 4.34491e-08 -0.00100009)
(-3.04476e-08 4.3407e-08 -0.0010001)
(-2.41624e-08 4.3385e-08 -0.00100011)
(-1.55601e-08 4.33632e-08 -0.00100012)
(-5.374e-09 4.32769e-08 -0.00100012)
(-3.37624e-08 6.76474e-08 -0.00100007)
(-3.05007e-08 6.75177e-08 -0.00100008)
(-2.41885e-08 6.74663e-08 -0.00100009)
(-1.55707e-08 6.74373e-08 -0.0010001)
(-5.37441e-09 6.73165e-08 -0.0010001)
(-3.38174e-08 8.54297e-08 -0.00100005)
(-3.06318e-08 8.51662e-08 -0.00100006)
(-2.42391e-08 8.50243e-08 -0.00100007)
(-1.55797e-08 8.49565e-08 -0.00100007)
(-5.36978e-09 8.4797e-08 -0.00100008)
(-3.3701e-08 9.41574e-08 -0.00100002)
(-3.09059e-08 9.42504e-08 -0.00100003)
(-2.43904e-08 9.42034e-08 -0.00100004)
(-1.56321e-08 9.41524e-08 -0.00100005)
(-5.37566e-09 9.39646e-08 -0.00100005)
(-4.56457e-08 2.03736e-08 -0.00100014)
(-4.12126e-08 2.03669e-08 -0.00100015)
(-3.26875e-08 2.03554e-08 -0.00100016)
(-2.10309e-08 2.03446e-08 -0.00100017)
(-7.25759e-09 2.0304e-08 -0.00100018)
(-4.57741e-08 5.91576e-08 -0.00100012)
(-4.13091e-08 5.9116e-08 -0.00100014)
(-3.27702e-08 5.90798e-08 -0.00100015)
(-2.1083e-08 5.90543e-08 -0.00100016)
(-7.27458e-09 5.89432e-08 -0.00100016)
(-4.58586e-08 9.20681e-08 -0.0010001)
(-4.13729e-08 9.19583e-08 -0.00100011)
(-3.28093e-08 9.18889e-08 -0.00100013)
(-2.10946e-08 9.18506e-08 -0.00100013)
(-7.27353e-09 9.16819e-08 -0.00100014)
(-4.59879e-08 1.16168e-07 -0.00100007)
(-4.14925e-08 1.15945e-07 -0.00100008)
(-3.28727e-08 1.15792e-07 -0.00100009)
(-2.11124e-08 1.15701e-07 -0.0010001)
(-7.2726e-09 1.15469e-07 -0.00100011)
(-4.59842e-08 1.28501e-07 -0.00100003)
(-4.17485e-08 1.28393e-07 -0.00100004)
(-3.30427e-08 1.28287e-07 -0.00100005)
(-2.1191e-08 1.28197e-07 -0.00100006)
(-7.28854e-09 1.27919e-07 -0.00100007)
(-6.19408e-08 2.77407e-08 -0.00100019)
(-5.58625e-08 2.77252e-08 -0.00100021)
(-4.42822e-08 2.77101e-08 -0.00100022)
(-2.84681e-08 2.7702e-08 -0.00100023)
(-9.81675e-09 2.7651e-08 -0.00100024)
(-6.21088e-08 8.05458e-08 -0.00100017)
(-5.59996e-08 8.04917e-08 -0.00100019)
(-4.43872e-08 8.04427e-08 -0.0010002)
(-2.85279e-08 8.04132e-08 -0.00100022)
(-9.83536e-09 8.02579e-08 -0.00100022)
(-6.22187e-08 1.25311e-07 -0.00100014)
(-5.60778e-08 1.25215e-07 -0.00100016)
(-4.44423e-08 1.25124e-07 -0.00100017)
(-2.85531e-08 1.2506e-07 -0.00100018)
(-9.84199e-09 1.24809e-07 -0.00100019)
(-6.2435e-08 1.57969e-07 -0.00100009)
(-5.61924e-08 1.57791e-07 -0.00100011)
(-4.45353e-08 1.57629e-07 -0.00100013)
(-2.86008e-08 1.57497e-07 -0.00100014)
(-9.85347e-09 1.57164e-07 -0.00100014)
(-6.26586e-08 1.75215e-07 -0.00100004)
(-5.64185e-08 1.74868e-07 -0.00100006)
(-4.47214e-08 1.74648e-07 -0.00100007)
(-2.87085e-08 1.74482e-07 -0.00100008)
(-9.88046e-09 1.74079e-07 -0.00100009)
(-8.40262e-08 3.77681e-08 -0.00100026)
(-7.56793e-08 3.77421e-08 -0.00100028)
(-5.99446e-08 3.77274e-08 -0.0010003)
(-3.85081e-08 3.77197e-08 -0.00100032)
(-1.3272e-08 3.76437e-08 -0.00100033)
(-8.42346e-08 1.09661e-07 -0.00100023)
(-7.58647e-08 1.09581e-07 -0.00100026)
(-6.0078e-08 1.0952e-07 -0.00100028)
(-3.85924e-08 1.09472e-07 -0.00100029)
(-1.33038e-08 1.09244e-07 -0.0010003)
(-8.43663e-08 1.70597e-07 -0.00100019)
(-7.59733e-08 1.70464e-07 -0.00100021)
(-6.0164e-08 1.70331e-07 -0.00100023)
(-3.86469e-08 1.70218e-07 -0.00100025)
(-1.33224e-08 1.69858e-07 -0.00100026)
(-8.46585e-08 2.1496e-07 -0.00100013)
(-7.61392e-08 2.14734e-07 -0.00100015)
(-6.03145e-08 2.14511e-07 -0.00100017)
(-3.87349e-08 2.14317e-07 -0.00100019)
(-1.33461e-08 2.13849e-07 -0.0010002)
(-8.51132e-08 2.38581e-07 -0.00100005)
(-7.64224e-08 2.38052e-07 -0.00100008)
(-6.05615e-08 2.37675e-07 -0.0010001)
(-3.88872e-08 2.37387e-07 -0.00100012)
(-1.33881e-08 2.36812e-07 -0.00100012)
(-1.13976e-07 5.13994e-08 -0.00100035)
(-1.02505e-07 5.13786e-08 -0.00100038)
(-8.11245e-08 5.1368e-08 -0.00100041)
(-5.20885e-08 5.1353e-08 -0.00100043)
(-1.79509e-08 5.12441e-08 -0.00100044)
(-1.14227e-07 1.49261e-07 -0.00100032)
(-1.02733e-07 1.49164e-07 -0.00100035)
(-8.13011e-08 1.49089e-07 -0.00100038)
(-5.2213e-08 1.49015e-07 -0.0010004)
(-1.79993e-08 1.48705e-07 -0.00100041)
(-1.14374e-07 2.32237e-07 -0.00100026)
(-1.02885e-07 2.32014e-07 -0.00100029)
(-8.14244e-08 2.31817e-07 -0.00100032)
(-5.22872e-08 2.31651e-07 -0.00100034)
(-1.80192e-08 2.31159e-07 -0.00100035)
(-1.1473e-07 2.92614e-07 -0.00100017)
(-1.03164e-07 2.92223e-07 -0.00100021)
(-8.16511e-08 2.91867e-07 -0.00100023)
(-5.24204e-08 2.91582e-07 -0.00100026)
(-1.80582e-08 2.90926e-07 -0.00100027)
(-1.15361e-07 3.24603e-07 -0.00100007)
(-1.03631e-07 3.23915e-07 -0.00100011)
(-8.2038e-08 3.23333e-07 -0.00100014)
(-5.26535e-08 3.22867e-07 -0.00100016)
(-1.81272e-08 3.22058e-07 -0.00100017)
(-1.54617e-07 6.9939e-08 -0.00100047)
(-1.38851e-07 6.99463e-08 -0.00100052)
(-1.09792e-07 6.99475e-08 -0.00100056)
(-7.04598e-08 6.99335e-08 -0.00100059)
(-2.42773e-08 6.97998e-08 -0.0010006)
(-1.54906e-07 2.03115e-07 -0.00100043)
(-1.3911e-07 2.03041e-07 -0.00100048)
(-1.1001e-07 2.02975e-07 -0.00100052)
(-7.06079e-08 2.02901e-07 -0.00100054)
(-2.43283e-08 2.02505e-07 -0.00100056)
(-1.55048e-07 3.16057e-07 -0.00100035)
(-1.39273e-07 3.15753e-07 -0.00100039)
(-1.10137e-07 3.15505e-07 -0.00100043)
(-7.06751e-08 3.153e-07 -0.00100046)
(-2.43428e-08 3.14632e-07 -0.00100048)
(-1.55468e-07 3.98258e-07 -0.00100023)
(-1.39676e-07 3.97633e-07 -0.00100028)
(-1.10446e-07 3.97089e-07 -0.00100032)
(-7.08664e-08 3.96675e-07 -0.00100035)
(-2.44056e-08 3.95747e-07 -0.00100036)
(-1.56291e-07 4.41603e-07 -0.0010001)
(-1.40441e-07 4.4064e-07 -0.00100014)
(-1.11058e-07 4.39751e-07 -0.00100018)
(-7.12342e-08 4.39036e-07 -0.00100021)
(-2.45232e-08 4.37909e-07 -0.00100023)
(-2.09841e-07 9.5185e-08 -0.00100065)
(-1.88127e-07 9.52524e-08 -0.00100071)
(-1.48583e-07 9.52995e-08 -0.00100076)
(-9.52654e-08 9.53206e-08 -0.0010008)
(-3.28034e-08 9.51642e-08 -0.00100082)
(-2.10112e-07 2.76391e-07 -0.00100059)
(-1.88374e-07 2.76439e-07 -0.00100065)
(-1.48793e-07 2.76467e-07 -0.0010007)
(-9.53996e-08 2.76457e-07 -0.00100074)
(-3.28465e-08 2.75961e-07 -0.00100076)
(-2.10143e-07 4.30013e-07 -0.00100047)
(-1.88433e-07 4.29741e-07 -0.00100054)
(-1.48842e-07 4.2951e-07 -0.00100059)
(-9.54233e-08 4.29297e-07 -0.00100063)
(-3.28482e-08 4.28412e-07 -0.00100065)
(-2.10597e-07 5.41847e-07 -0.00100032)
(-1.88897e-07 5.40983e-07 -0.00100038)
(-1.49212e-07 5.40233e-07 -0.00100043)
(-9.56601e-08 5.39659e-07 -0.00100047)
(-3.29264e-08 5.38373e-07 -0.00100049)
(-2.11736e-07 6.00806e-07 -0.00100013)
(-1.90046e-07 5.99323e-07 -0.0010002)
(-1.50117e-07 5.97965e-07 -0.00100025)
(-9.62147e-08 5.96892e-07 -0.00100029)
(-3.3114e-08 5.95313e-07 -0.00100031)
(-2.84978e-07 1.2959e-07 -0.00100088)
(-2.5493e-07 1.29812e-07 -0.00100097)
(-2.01012e-07 1.29987e-07 -0.00100104)
(-1.28706e-07 1.30097e-07 -0.00100109)
(-4.42778e-08 1.29919e-07 -0.00100111)
(-2.85043e-07 3.76172e-07 -0.0010008)
(-2.55023e-07 3.76584e-07 -0.00100088)
(-2.01101e-07 3.76895e-07 -0.00100095)
(-1.28769e-07 3.77066e-07 -0.00100101)
(-4.43003e-08 3.76478e-07 -0.00100103)
(-2.8466e-07 5.85016e-07 -0.00100064)
(-2.54727e-07 5.85029e-07 -0.00100073)
(-2.00905e-07 5.84985e-07 -0.0010008)
(-1.28644e-07 5.84872e-07 -0.00100085)
(-4.42491e-08 5.8376e-07 -0.00100088)
(-2.8498e-07 7.36958e-07 -0.00100043)
(-2.55081e-07 7.35947e-07 -0.00100052)
(-2.01225e-07 7.35037e-07 -0.00100059)
(-1.28851e-07 7.34312e-07 -0.00100064)
(-4.43129e-08 7.32582e-07 -0.00100066)
(-2.86555e-07 8.17226e-07 -0.00100018)
(-2.56648e-07 8.14928e-07 -0.00100027)
(-2.02472e-07 8.12884e-07 -0.00100034)
(-1.2964e-07 8.11288e-07 -0.00100039)
(-4.45861e-08 8.09038e-07 -0.00100042)
(-3.87308e-07 1.76545e-07 -0.0010012)
(-3.45495e-07 1.77142e-07 -0.00100132)
(-2.71824e-07 1.77616e-07 -0.00100141)
(-1.73738e-07 1.77929e-07 -0.00100148)
(-5.96899e-08 1.77761e-07 -0.00100152)
(-3.8675e-07 5.12219e-07 -0.00100109)
(-3.45083e-07 5.1352e-07 -0.0010012)
(-2.7154e-07 5.14522e-07 -0.0010013)
(-1.73581e-07 5.15159e-07 -0.00100137)
(-5.96432e-08 5.14547e-07 -0.0010014)
(-3.85287e-07 7.95997e-07 -0.00100088)
(-3.43893e-07 7.96832e-07 -0.00100099)
(-2.7069e-07 7.97388e-07 -0.00100109)
(-1.73053e-07 7.97653e-07 -0.00100115)
(-5.94572e-08 7.9633e-07 -0.00100119)
(-3.84983e-07 1.00207e-06 -0.00100059)
(-3.43727e-07 1.00118e-06 -0.0010007)
(-2.70674e-07 1.00028e-06 -0.0010008)
(-1.73076e-07 9.99468e-07 -0.00100086)
(-5.94629e-08 9.97184e-07 -0.0010009)
(-3.87044e-07 1.11115e-06 -0.00100025)
(-3.45683e-07 1.1077e-06 -0.00100036)
(-2.72308e-07 1.10466e-06 -0.00100046)
(-1.74158e-07 1.1023e-06 -0.00100053)
(-5.984e-08 1.09905e-06 -0.00100056)
(-5.26884e-07 2.40804e-07 -0.00100163)
(-4.68348e-07 2.42247e-07 -0.00100179)
(-3.67449e-07 2.43383e-07 -0.00100192)
(-2.34281e-07 2.44163e-07 -0.00100202)
(-8.02813e-08 2.44079e-07 -0.00100206)
(-5.24807e-07 6.98093e-07 -0.00100148)
(-4.66647e-07 7.01432e-07 -0.00100164)
(-3.66203e-07 7.04014e-07 -0.00100177)
(-2.33556e-07 7.05751e-07 -0.00100186)
(-8.00656e-08 7.05265e-07 -0.0010019)
(-5.20842e-07 1.08346e-06 -0.00100119)
(-4.63366e-07 1.08631e-06 -0.00100135)
(-3.63806e-07 1.08837e-06 -0.00100147)
(-2.32118e-07 1.08963e-06 -0.00100156)
(-7.96071e-08 1.08816e-06 -0.00100161)
(-5.18775e-07 1.36233e-06 -0.0010008)
(-4.61784e-07 1.36215e-06 -0.00100095)
(-3.62827e-07 1.36165e-06 -0.00100108)
(-2.3163e-07 1.36097e-06 -0.00100116)
(-7.94758e-08 1.35797e-06 -0.00100121)
(-5.21157e-07 1.50981e-06 -0.00100034)
(-4.64051e-07 1.50488e-06 -0.00100049)
(-3.64857e-07 1.50042e-06 -0.00100062)
(-2.33072e-07 1.49693e-06 -0.00100071)
(-8.00058e-08 1.49219e-06 -0.00100075)
(-7.17762e-07 3.29164e-07 -0.00100223)
(-6.35164e-07 3.32469e-07 -0.00100245)
(-4.96662e-07 3.34998e-07 -0.00100263)
(-3.15547e-07 3.36823e-07 -0.00100275)
(-1.0746e-07 3.36946e-07 -0.00100281)
(-7.1223e-07 9.52985e-07 -0.00100202)
(-6.30487e-07 9.60862e-07 -0.00100223)
(-4.93189e-07 9.66806e-07 -0.0010024)
(-3.13531e-07 9.71035e-07 -0.00100253)
(-1.06916e-07 9.7093e-07 -0.00100259)
(-7.02807e-07 1.47579e-06 -0.00100163)
(-6.22592e-07 1.4833e-06 -0.00100183)
(-4.87384e-07 1.48869e-06 -0.001002)
(-3.10148e-07 1.49234e-06 -0.00100212)
(-1.05962e-07 1.49085e-06 -0.00100217)
(-6.96561e-07 1.85177e-06 -0.00100109)
(-6.17655e-07 1.85371e-06 -0.00100129)
(-4.84059e-07 1.85448e-06 -0.00100145)
(-3.08443e-07 1.85461e-06 -0.00100157)
(-1.05589e-07 1.85062e-06 -0.00100163)
(-6.98556e-07 2.04956e-06 -0.00100047)
(-6.19878e-07 2.04282e-06 -0.00100067)
(-4.86311e-07 2.03632e-06 -0.00100083)
(-3.10296e-07 2.03121e-06 -0.00100095)
(-1.06402e-07 2.02413e-06 -0.00100101)
(-9.79763e-07 4.51559e-07 -0.00100305)
(-8.62145e-07 4.58974e-07 -0.00100336)
(-6.71809e-07 4.64255e-07 -0.00100359)
(-4.24602e-07 4.68493e-07 -0.00100377)
(-1.42115e-07 4.68908e-07 -0.00100384)
(-9.66797e-07 1.3046e-06 -0.00100276)
(-8.50941e-07 1.32256e-06 -0.00100305)
(-6.63423e-07 1.33518e-06 -0.00100327)
(-4.19801e-07 1.34523e-06 -0.00100345)
(-1.41095e-07 1.34562e-06 -0.00100352)
(-9.45825e-07 2.01262e-06 -0.00100221)
(-8.33208e-07 2.03072e-06 -0.00100248)
(-6.50304e-07 2.04285e-06 -0.0010027)
(-4.12349e-07 2.05233e-06 -0.00100286)
(-1.39489e-07 2.05056e-06 -0.00100293)
(-9.30421e-07 2.51612e-06 -0.00100148)
(-8.20791e-07 2.52378e-06 -0.00100174)
(-6.41695e-07 2.52756e-06 -0.00100195)
(-4.08058e-07 2.53043e-06 -0.0010021)
(-1.38973e-07 2.52461e-06 -0.00100217)
(-9.30586e-07 2.77844e-06 -0.00100065)
(-8.21759e-07 2.76956e-06 -0.0010009)
(-6.43423e-07 2.75989e-06 -0.0010011)
(-4.1021e-07 2.75255e-06 -0.00100125)
(-1.40426e-07 2.7414e-06 -0.00100133)
(-1.34113e-06 6.22597e-07 -0.00100417)
(-1.17216e-06 6.39667e-07 -0.00100463)
(-9.11265e-07 6.49734e-07 -0.00100491)
(-5.71748e-07 6.60109e-07 -0.0010052)
(-1.8116e-07 6.60192e-07 -0.00100525)
(-1.31274e-06 1.79364e-06 -0.00100376)
(-1.14687e-06 1.83518e-06 -0.00100418)
(-8.92229e-07 1.85929e-06 -0.00100445)
(-5.60969e-07 1.88445e-06 -0.00100472)
(-1.80173e-07 1.88342e-06 -0.00100478)
(-1.26767e-06 2.74984e-06 -0.001003)
(-1.1086e-06 2.79285e-06 -0.00100337)
(-8.63481e-07 2.81642e-06 -0.00100363)
(-5.44999e-07 2.84127e-06 -0.00100386)
(-1.78986e-07 2.83612e-06 -0.00100393)
(-1.23278e-06 3.41658e-06 -0.00100201)
(-1.08041e-06 3.43914e-06 -0.00100234)
(-8.43639e-07 3.44807e-06 -0.00100259)
(-5.35668e-07 3.45976e-06 -0.00100279)
(-1.79885e-07 3.44871e-06 -0.00100288)
(-1.22848e-06 3.75723e-06 -0.00100088)
(-1.0771e-06 3.74733e-06 -0.00100119)
(-8.42536e-07 3.7314e-06 -0.00100145)
(-5.37355e-07 3.72202e-06 -0.00100164)
(-1.83278e-07 3.70228e-06 -0.00100173)
(-1.84273e-06 8.62769e-07 -0.00100567)
(-1.59799e-06 9.05709e-07 -0.00100647)
(-1.2437e-06 9.20851e-07 -0.0010067)
(-7.76378e-07 9.48814e-07 -0.00100727)
(-2.03674e-07 9.4453e-07 -0.0010072)
(-1.78346e-06 2.47926e-06 -0.0010051)
(-1.54204e-06 2.58327e-06 -0.00100579)
(-1.20222e-06 2.61829e-06 -0.00100602)
(-7.52011e-07 2.68848e-06 -0.00100652)
(-2.06506e-07 2.67383e-06 -0.00100648)
(-1.68818e-06 3.76496e-06 -0.00100403)
(-1.46151e-06 3.87315e-06 -0.00100457)
(-1.14028e-06 3.90542e-06 -0.00100482)
(-7.16891e-07 3.97731e-06 -0.0010052)
(-2.1348e-07 3.95131e-06 -0.00100521)
(-1.61187e-06 4.63266e-06 -0.00100269)
(-1.40172e-06 4.69693e-06 -0.00100312)
(-1.09782e-06 4.70724e-06 -0.00100339)
(-6.98222e-07 4.74987e-06 -0.00100369)
(-2.2464e-07 4.71893e-06 -0.00100376)
(-1.59819e-06 5.05595e-06 -0.00100119)
(-1.38692e-06 5.05425e-06 -0.00100156)
(-1.0869e-06 5.02051e-06 -0.00100184)
(-6.95467e-07 5.01443e-06 -0.00100208)
(-2.34873e-07 4.97206e-06 -0.00100219)
(-2.54363e-06 1.19445e-06 -0.00100756)
(-2.19388e-06 1.3161e-06 -0.00100928)
(-1.70684e-06 1.32376e-06 -0.00100905)
(-1.09205e-06 1.40295e-06 -0.00101037)
(-1.32858e-07 1.38022e-06 -0.00100991)
(-2.42665e-06 3.43887e-06 -0.00100679)
(-2.06658e-06 3.73279e-06 -0.0010082)
(-1.6216e-06 3.73735e-06 -0.00100803)
(-1.03411e-06 3.94878e-06 -0.00100917)
(-1.52971e-07 3.87442e-06 -0.00100878)
(-2.22586e-06 5.15397e-06 -0.00100527)
(-1.89821e-06 5.45906e-06 -0.00100624)
(-1.49282e-06 5.44257e-06 -0.00100623)
(-9.48644e-07 5.66873e-06 -0.00100701)
(-1.99059e-07 5.55313e-06 -0.00100679)
(-2.05843e-06 6.25529e-06 -0.00100354)
(-1.77815e-06 6.45452e-06 -0.00100417)
(-1.41159e-06 6.42216e-06 -0.00100433)
(-9.11895e-07 6.57922e-06 -0.00100486)
(-2.56209e-07 6.47409e-06 -0.00100485)
(-2.02817e-06 6.73252e-06 -0.00100154)
(-1.73132e-06 6.78765e-06 -0.00100193)
(-1.36751e-06 6.68463e-06 -0.00100219)
(-8.82859e-07 6.71012e-06 -0.00100247)
(-2.90001e-07 6.5978e-06 -0.00100256)
(-3.5102e-06 1.62802e-06 -0.00100975)