/*--------------------------------*- C++ -*----------------------------------*\
| =========                 |                                                 |
| \\      /  F ield         | OpenFOAM: The Open Source CFD Toolbox           |
|  \\    /   O peration     | Version:  5.x                                   |
|   \\  /    A nd           | Web:      www.OpenFOAM.org                      |
|    \\/     M anipulation  |                                                 |
\*---------------------------------------------------------------------------*/
FoamFile
{
    version     2.0;
    format      ascii;
    class       volVectorField;
    location    "60000";
    object      U;
}
// * * * * * * * * * * * * * * * * * * * * * * * * * * * * * * * * * * * * * //

dimensions      [0 1 -1 0 0 0 0];

internalField   nonuniform List<vector> 
2250
(
(-1.10157e-10 3.19207e-11 -0.001)
(-1.15978e-10 3.0177e-11 -0.001)
(-9.58875e-11 2.85673e-11 -0.001)
(-5.53864e-11 3.04375e-11 -0.001)
(-1.7878e-11 3.24225e-11 -0.001)
(-1.11819e-10 8.92736e-11 -0.001)
(-1.19628e-10 9.03963e-11 -0.001)
(-9.57949e-11 8.95192e-11 -0.001)
(-5.15513e-11 9.37263e-11 -0.001)
(-1.58738e-11 9.68251e-11 -0.001)
(-1.06839e-10 1.5517e-10 -0.001)
(-1.15997e-10 1.48132e-10 -0.001)
(-9.27298e-11 1.42284e-10 -0.001)
(-4.79628e-11 1.48538e-10 -0.001)
(-1.46064e-11 1.53626e-10 -0.001)
(-1.01347e-10 1.88344e-10 -0.000999999)
(-1.32477e-10 1.85105e-10 -0.001)
(-9.53785e-11 1.71144e-10 -0.001)
(-3.98825e-11 1.84424e-10 -0.001)
(-1.04736e-11 1.99714e-10 -0.001)
(-1.40066e-10 2.11058e-10 -0.000999999)
(-1.33232e-10 1.82861e-10 -0.000999999)
(-9.33905e-11 2.0158e-10 -0.001)
(-1.89735e-11 2.09513e-10 -0.001)
(1.05386e-12 2.2158e-10 -0.001)
(-2.92008e-10 9.11687e-11 -0.001)
(-3.00573e-10 8.96602e-11 -0.001)
(-2.4168e-10 8.92136e-11 -0.001)
(-1.38071e-10 9.35015e-11 -0.001)
(-4.37069e-11 9.64811e-11 -0.001)
(-2.94564e-10 2.68176e-10 -0.001)
(-3.03144e-10 2.71869e-10 -0.001)
(-2.38212e-10 2.69197e-10 -0.001)
(-1.3077e-10 2.77984e-10 -0.001)
(-4.05851e-11 2.82666e-10 -0.001)
(-2.89152e-10 4.41379e-10 -0.001)
(-3.00133e-10 4.34906e-10 -0.001)
(-2.35968e-10 4.20683e-10 -0.001)
(-1.24244e-10 4.37258e-10 -0.001)
(-3.85225e-11 4.4984e-10 -0.001)
(-2.78373e-10 5.12464e-10 -0.001)
(-3.23907e-10 5.36283e-10 -0.001)
(-2.35839e-10 5.23235e-10 -0.001)
(-1.00697e-10 5.63154e-10 -0.001)
(-2.71123e-11 5.9526e-10 -0.001)
(-3.42543e-10 5.88032e-10 -0.000999999)
(-2.89389e-10 5.14835e-10 -0.000999999)
(-2.09053e-10 5.78072e-10 -0.001)
(-5.10039e-11 6.10477e-10 -0.001)
(-5.29512e-12 6.34819e-10 -0.001)
(-4.74312e-10 1.77067e-10 -0.001)
(-4.66822e-10 1.73235e-10 -0.001)
(-3.64492e-10 1.68681e-10 -0.001)
(-2.13908e-10 1.71599e-10 -0.001)
(-6.86806e-11 1.72638e-10 -0.001)
(-4.83117e-10 5.08114e-10 -0.001)
(-4.76028e-10 5.02897e-10 -0.001)
(-3.66763e-10 4.948e-10 -0.001)
(-2.09966e-10 5.01202e-10 -0.001)
(-6.7415e-11 5.0369e-10 -0.001)
(-4.88469e-10 7.5061e-10 -0.001)
(-4.80956e-10 7.65091e-10 -0.001)
(-3.66832e-10 7.63777e-10 -0.001)
(-2.04354e-10 7.85849e-10 -0.001)
(-6.52414e-11 7.96604e-10 -0.001)
(-4.84143e-10 8.32469e-10 -0.001)
(-4.62872e-10 9.37385e-10 -0.001)
(-3.45964e-10 9.66111e-10 -0.001)
(-1.75509e-10 1.01797e-09 -0.001)
(-5.50557e-11 1.03582e-09 -0.001)
(-5.29164e-10 1.04167e-09 -0.001)
(-3.47237e-10 9.56518e-10 -0.001)
(-2.86167e-10 1.03263e-09 -0.001)
(-1.32543e-10 1.07489e-09 -0.001)
(-4.53904e-11 1.08686e-09 -0.001)
(-6.86984e-10 2.83321e-10 -0.001)
(-6.52865e-10 2.67673e-10 -0.001)
(-4.9976e-10 2.60234e-10 -0.001)
(-2.9908e-10 2.61915e-10 -0.001)
(-9.80881e-11 2.62405e-10 -0.001)
(-7.0375e-10 7.80665e-10 -0.001)
(-6.7717e-10 7.61846e-10 -0.001)
(-5.06519e-10 7.53964e-10 -0.001)
(-2.96967e-10 7.57804e-10 -0.001)
(-9.72757e-11 7.56349e-10 -0.001)
(-7.06346e-10 1.11192e-09 -0.001)
(-6.8077e-10 1.14696e-09 -0.001)
(-5.04771e-10 1.16147e-09 -0.001)
(-2.95758e-10 1.17542e-09 -0.001)
(-9.82105e-11 1.1703e-09 -0.001)
(-6.84131e-10 1.26593e-09 -0.001)
(-6.27689e-10 1.40644e-09 -0.001)
(-4.78009e-10 1.45902e-09 -0.001)
(-2.85821e-10 1.48899e-09 -0.001)
(-1.00119e-10 1.47574e-09 -0.001)
(-7.20695e-10 1.57941e-09 -0.001)
(-4.87684e-10 1.52369e-09 -0.001)
(-4.22112e-10 1.56911e-09 -0.001)
(-2.76175e-10 1.58365e-09 -0.001)
(-1.0869e-10 1.57267e-09 -0.001)
(-9.53761e-10 3.86033e-10 -0.001)
(-8.8206e-10 3.71396e-10 -0.001)
(-6.58167e-10 3.69666e-10 -0.001)
(-3.95312e-10 3.725e-10 -0.001)
(-1.30425e-10 3.71583e-10 -0.001)
(-9.63144e-10 1.07295e-09 -0.001)
(-9.00249e-10 1.06227e-09 -0.001)
(-6.5848e-10 1.06161e-09 -0.001)
(-3.93523e-10 1.06197e-09 -0.001)
(-1.30916e-10 1.05154e-09 -0.001)
(-9.44601e-10 1.58844e-09 -0.001)
(-8.95206e-10 1.62729e-09 -0.001)
(-6.59841e-10 1.63034e-09 -0.001)
(-4.04189e-10 1.61926e-09 -0.001)
(-1.39135e-10 1.59245e-09 -0.001)
(-8.97112e-10 1.9325e-09 -0.001)
(-8.58435e-10 2.02064e-09 -0.001)
(-6.66437e-10 2.02449e-09 -0.001)
(-4.28357e-10 2.00879e-09 -0.001)
(-1.5474e-10 1.972e-09 -0.001)
(-9.47822e-10 2.26548e-09 -0.001)
(-8.03207e-10 2.21086e-09 -0.001)
(-6.71491e-10 2.21486e-09 -0.001)
(-4.52792e-10 2.18967e-09 -0.001)
(-1.72162e-10 2.16191e-09 -0.001)
(-1.26674e-09 5.06688e-10 -0.001)
(-1.14119e-09 5.05979e-10 -0.001)
(-8.47128e-10 5.11413e-10 -0.001)
(-5.15575e-10 5.13905e-10 -0.001)
(-1.72729e-10 5.06488e-10 -0.001)
(-1.25893e-09 1.44847e-09 -0.001)
(-1.1388e-09 1.45348e-09 -0.001)
(-8.4089e-10 1.45613e-09 -0.001)
(-5.20576e-10 1.44679e-09 -0.001)
(-1.79549e-10 1.4222e-09 -0.001)
(-1.22973e-09 2.23371e-09 -0.001)
(-1.13591e-09 2.24282e-09 -0.001)
(-8.55458e-10 2.22186e-09 -0.001)
(-5.47792e-10 2.1854e-09 -0.001)
(-1.94982e-10 2.14668e-09 -0.001)
(-1.18732e-09 2.83619e-09 -0.001)
(-1.15077e-09 2.81521e-09 -0.001)
(-8.98178e-10 2.75867e-09 -0.001)
(-5.9158e-10 2.70356e-09 -0.001)
(-2.14214e-10 2.66242e-09 -0.001)
(-1.20994e-09 3.11302e-09 -0.001)
(-1.21343e-09 3.06958e-09 -0.001)
(-9.66851e-10 3.04723e-09 -0.001)
(-6.38907e-10 3.0015e-09 -0.001)
(-2.3119e-10 2.97142e-09 -0.001)
(-1.65313e-09 6.80618e-10 -0.001)
(-1.46926e-09 6.89078e-10 -0.001)
(-1.11156e-09 6.96373e-10 -0.00100001)
(-6.96666e-10 6.94383e-10 -0.00100001)
(-2.40389e-10 6.78512e-10 -0.00100001)
(-1.64046e-09 1.96664e-09 -0.001)
(-1.45635e-09 1.9812e-09 -0.001)
(-1.10832e-09 1.98042e-09 -0.001)
(-7.1459e-10 1.96052e-09 -0.00100001)
(-2.55475e-10 1.92702e-09 -0.00100001)
(-1.62103e-09 3.05736e-09 -0.001)
(-1.45847e-09 3.05575e-09 -0.001)
(-1.13429e-09 3.02562e-09 -0.001)
(-7.4773e-10 2.98168e-09 -0.001)
(-2.70762e-10 2.94964e-09 -0.001)
(-1.61771e-09 3.93549e-09 -0.001)
(-1.48823e-09 3.86986e-09 -0.001)
(-1.18222e-09 3.79139e-09 -0.001)
(-7.84978e-10 3.72578e-09 -0.001)
(-2.82109e-10 3.69695e-09 -0.001)
(-1.56966e-09 4.25519e-09 -0.001)
(-1.60252e-09 4.22487e-09 -0.001)
(-1.27801e-09 4.19178e-09 -0.001)
(-8.35038e-10 4.15138e-09 -0.001)
(-2.92805e-10 4.13175e-09 -0.001)
(-2.18387e-09 9.19878e-10 -0.00100001)
(-1.94493e-09 9.34611e-10 -0.00100001)
(-1.50757e-09 9.39681e-10 -0.00100001)
(-9.7255e-10 9.33083e-10 -0.00100001)
(-3.43108e-10 9.16074e-10 -0.00100001)
(-2.17264e-09 2.67149e-09 -0.00100001)
(-1.92877e-09 2.69964e-09 -0.00100001)
(-1.51184e-09 2.69446e-09 -0.00100001)
(-9.96282e-10 2.67237e-09 -0.00100001)
(-3.59092e-10 2.64488e-09 -0.00100001)
(-2.16894e-09 4.15925e-09 -0.001)
(-1.92583e-09 4.18053e-09 -0.00100001)
(-1.53757e-09 4.15486e-09 -0.00100001)
(-1.01895e-09 4.12303e-09 -0.00100001)
(-3.66374e-10 4.10709e-09 -0.00100001)
(-2.20501e-09 5.32954e-09 -0.001)
(-1.93336e-09 5.29694e-09 -0.001)
(-1.56912e-09 5.24289e-09 -0.001)
(-1.03625e-09 5.20011e-09 -0.001)
(-3.67554e-10 5.18732e-09 -0.001)
(-2.19097e-09 5.96393e-09 -0.001)
(-2.01232e-09 5.84293e-09 -0.001)
(-1.6339e-09 5.80012e-09 -0.001)
(-1.06443e-09 5.77551e-09 -0.001)
(-3.69559e-10 5.76824e-09 -0.001)
(-2.93027e-09 1.25361e-09 -0.00100001)
(-2.62543e-09 1.27151e-09 -0.00100001)
(-2.07929e-09 1.27126e-09 -0.00100001)
(-1.35947e-09 1.26404e-09 -0.00100001)
(-4.79859e-10 1.25391e-09 -0.00100001)
(-2.92194e-09 3.65661e-09 -0.00100001)
(-2.61269e-09 3.68847e-09 -0.00100001)
(-2.09059e-09 3.67809e-09 -0.00100001)
(-1.37702e-09 3.6636e-09 -0.00100001)
(-4.88606e-10 3.64938e-09 -0.00100001)
(-2.93244e-09 5.70599e-09 -0.00100001)
(-2.60913e-09 5.73605e-09 -0.00100001)
(-2.10795e-09 5.71669e-09 -0.00100001)
(-1.38382e-09 5.70372e-09 -0.00100001)
(-4.88307e-10 5.69569e-09 -0.00100001)
(-2.97886e-09 7.17395e-09 -0.001)
(-2.60225e-09 7.22166e-09 -0.001)
(-2.12261e-09 7.21565e-09 -0.00100001)
(-1.38714e-09 7.20636e-09 -0.00100001)
(-4.86214e-10 7.19724e-09 -0.00100001)
(-3.10955e-09 8.26714e-09 -0.001)
(-2.56762e-09 8.04502e-09 -0.001)
(-2.12259e-09 8.00649e-09 -0.001)
(-1.38814e-09 7.99434e-09 -0.001)
(-4.83977e-10 7.98814e-09 -0.001)
(-3.9897e-09 1.73144e-09 -0.00100001)
(-3.59582e-09 1.73675e-09 -0.00100001)
(-2.88087e-09 1.73025e-09 -0.00100001)
(-1.87831e-09 1.72634e-09 -0.00100001)
(-6.55379e-10 1.72307e-09 -0.00100002)
(-3.99718e-09 5.02776e-09 -0.00100001)
(-3.60377e-09 5.03598e-09 -0.00100001)
(-2.89657e-09 5.02287e-09 -0.00100001)
(-1.88569e-09 5.01857e-09 -0.00100001)
(-6.56721e-10 5.01106e-09 -0.00100001)
(-4.01645e-09 7.81142e-09 -0.00100001)
(-3.60779e-09 7.83232e-09 -0.00100001)
(-2.90351e-09 7.824e-09 -0.00100001)
(-1.88411e-09 7.82245e-09 -0.00100001)
(-6.54959e-10 7.81005e-09 -0.00100001)
(-4.03729e-09 9.69566e-09 -0.00100001)
(-3.59155e-09 9.82816e-09 -0.00100001)
(-2.906e-09 9.85356e-09 -0.00100001)
(-1.88466e-09 9.86257e-09 -0.00100001)
(-6.54726e-10 9.8512e-09 -0.00100001)
(-4.23821e-09 1.11893e-08 -0.001)
(-3.44987e-09 1.09852e-08 -0.001)
(-2.86818e-09 1.09696e-08 -0.001)
(-1.86723e-09 1.09634e-08 -0.00100001)
(-6.47958e-10 1.0953e-08 -0.00100001)
(-5.49041e-09 2.37739e-09 -0.00100002)
(-4.97409e-09 2.36693e-09 -0.00100002)
(-3.97183e-09 2.36081e-09 -0.00100002)
(-2.5651e-09 2.36055e-09 -0.00100002)
(-8.8614e-10 2.35707e-09 -0.00100002)
(-5.51537e-09 6.8671e-09 -0.00100001)
(-4.99999e-09 6.856e-09 -0.00100002)
(-3.98539e-09 6.85024e-09 -0.00100002)
(-2.56905e-09 6.85043e-09 -0.00100002)
(-8.8695e-10 6.83851e-09 -0.00100002)
(-5.52769e-09 1.06367e-08 -0.00100001)
(-5.0007e-09 1.06617e-08 -0.00100001)
(-3.98454e-09 1.06658e-08 -0.00100001)
(-2.56859e-09 1.06641e-08 -0.00100002)
(-8.87176e-10 1.06459e-08 -0.00100002)
(-5.5092e-09 1.327e-08 -0.00100001)
(-4.97141e-09 1.34039e-08 -0.00100001)
(-3.98237e-09 1.34334e-08 -0.00100001)
(-2.56852e-09 1.34461e-08 -0.00100001)
(-8.85528e-10 1.34387e-08 -0.00100001)
(-5.66492e-09 1.50727e-08 -0.001)
(-4.83728e-09 1.49684e-08 -0.001)
(-3.9411e-09 1.49699e-08 -0.00100001)
(-2.53714e-09 1.49707e-08 -0.00100001)
(-8.69713e-10 1.49571e-08 -0.00100001)
(-7.52819e-09 3.22518e-09 -0.00100002)
(-6.82447e-09 3.22055e-09 -0.00100002)
(-5.40765e-09 3.22151e-09 -0.00100003)
(-3.47628e-09 3.22058e-09 -0.00100003)
(-1.19922e-09 3.21091e-09 -0.00100003)
(-7.5502e-09 9.33425e-09 -0.00100002)
(-6.84083e-09 9.33916e-09 -0.00100002)
(-5.41729e-09 9.34177e-09 -0.00100002)
(-3.48713e-09 9.33583e-09 -0.00100003)
(-1.20524e-09 9.31405e-09 -0.00100003)
(-7.54767e-09 1.45106e-08 -0.00100002)
(-6.8303e-09 1.45432e-08 -0.00100002)
(-5.42066e-09 1.45435e-08 -0.00100002)
(-3.49273e-09 1.45331e-08 -0.00100002)
(-1.20612e-09 1.45092e-08 -0.00100002)
(-7.52211e-09 1.82801e-08 -0.00100001)
(-6.80851e-09 1.83424e-08 -0.00100001)
(-5.42656e-09 1.83547e-08 -0.00100001)
(-3.49356e-09 1.83593e-08 -0.00100002)
(-1.20236e-09 1.83376e-08 -0.00100002)
(-7.60342e-09 2.04708e-08 -0.001)
(-6.75573e-09 2.04237e-08 -0.00100001)
(-5.40207e-09 2.04237e-08 -0.00100001)
(-3.47414e-09 2.04229e-08 -0.00100001)
(-1.19385e-09 2.03887e-08 -0.00100001)
(-1.02181e-08 4.38132e-09 -0.00100003)
(-9.22873e-09 4.39254e-09 -0.00100003)
(-7.3045e-09 4.39503e-09 -0.00100004)
(-4.70696e-09 4.38765e-09 -0.00100004)
(-1.6294e-09 4.37203e-09 -0.00100004)
(-1.02306e-08 1.27339e-08 -0.00100003)
(-9.23204e-09 1.2754e-08 -0.00100003)
(-7.32248e-09 1.27462e-08 -0.00100003)
(-4.73034e-09 1.27253e-08 -0.00100003)
(-1.64006e-09 1.26934e-08 -0.00100004)
(-1.02337e-08 1.98627e-08 -0.00100002)
(-9.23443e-09 1.98742e-08 -0.00100002)
(-7.34632e-09 1.98478e-08 -0.00100003)
(-4.74433e-09 1.98205e-08 -0.00100003)
(-1.64098e-09 1.97813e-08 -0.00100003)
(-1.02433e-08 2.50902e-08 -0.00100001)
(-9.2478e-09 2.50879e-08 -0.00100002)
(-7.37505e-09 2.5072e-08 -0.00100002)
(-4.7589e-09 2.50459e-08 -0.00100002)
(-1.6428e-09 2.49839e-08 -0.00100002)
(-1.03118e-08 2.79304e-08 -0.00100001)
(-9.25262e-09 2.7862e-08 -0.00100001)
(-7.38594e-09 2.78427e-08 -0.00100001)
(-4.78382e-09 2.78168e-08 -0.00100001)
(-1.65671e-09 2.77446e-08 -0.00100001)
(-1.38361e-08 5.99113e-09 -0.00100004)
(-1.24598e-08 6.00041e-09 -0.00100004)
(-9.89544e-09 5.9926e-09 -0.00100005)
(-6.39733e-09 5.978e-09 -0.00100005)
(-2.21875e-09 5.95965e-09 -0.00100005)
(-1.38603e-08 1.74274e-08 -0.00100004)
(-1.24814e-08 1.74217e-08 -0.00100004)
(-9.93576e-09 1.73849e-08 -0.00100004)
(-6.43084e-09 1.73501e-08 -0.00100005)
(-2.23034e-09 1.73086e-08 -0.00100005)
(-1.38964e-08 2.71724e-08 -0.00100003)
(-1.25266e-08 2.71298e-08 -0.00100003)
(-9.98494e-09 2.70666e-08 -0.00100004)
(-6.45264e-09 2.70218e-08 -0.00100004)
(-2.23255e-09 2.69625e-08 -0.00100004)
(-1.39591e-08 3.42692e-08 -0.00100002)
(-1.25884e-08 3.42151e-08 -0.00100002)
(-1.00423e-08 3.41625e-08 -0.00100003)
(-6.4831e-09 3.41079e-08 -0.00100003)
(-2.23986e-09 3.40187e-08 -0.00100003)
(-1.40712e-08 3.80675e-08 -0.00100001)
(-1.26332e-08 3.79488e-08 -0.00100001)
(-1.00889e-08 3.78992e-08 -0.00100002)
(-6.53025e-09 3.78488e-08 -0.00100002)
(-2.25867e-09 3.77506e-08 -0.00100002)
(-1.8815e-08 8.1933e-09 -0.00100005)
(-1.69479e-08 8.1844e-09 -0.00100006)
(-1.3485e-08 8.16418e-09 -0.00100007)
(-8.71859e-09 8.14745e-09 -0.00100007)
(-3.0206e-09 8.1269e-09 -0.00100007)
(-1.88699e-08 2.38002e-08 -0.00100005)
(-1.70088e-08 2.37476e-08 -0.00100006)
(-1.35466e-08 2.36887e-08 -0.00100006)
(-8.7567e-09 2.36518e-08 -0.00100006)
(-3.03194e-09 2.36021e-08 -0.00100007)
(-1.89453e-08 3.70397e-08 -0.00100004)
(-1.70928e-08 3.69456e-08 -0.00100005)
(-1.36052e-08 3.68672e-08 -0.00100005)
(-8.77667e-09 3.68234e-08 -0.00100005)
(-3.03265e-09 3.67527e-08 -0.00100006)
(-1.90475e-08 4.66496e-08 -0.00100003)
(-1.7183e-08 4.65578e-08 -0.00100003)
(-1.36668e-08 4.64925e-08 -0.00100004)
(-8.80052e-09 4.6444e-08 -0.00100004)
(-3.03479e-09 4.63481e-08 -0.00100004)
(-1.91999e-08 5.17702e-08 -0.00100001)
(-1.72499e-08 5.16251e-08 -0.00100002)
(-1.37147e-08 5.15601e-08 -0.00100002)
(-8.83079e-09 5.15088e-08 -0.00100003)
(-3.0426e-09 5.13923e-08 -0.00100003)
(-2.56512e-08 1.11638e-08 -0.00100007)
(-2.31402e-08 1.11385e-08 -0.00100008)
(-1.84043e-08 1.11144e-08 -0.00100009)
(-1.18788e-08 1.11007e-08 -0.00100009)
(-4.10835e-09 1.10772e-08 -0.0010001)
(-2.57391e-08 3.23861e-08 -0.00100007)
(-2.32333e-08 3.2309e-08 -0.00100008)
(-1.84758e-08 3.22541e-08 -0.00100008)
(-1.19173e-08 3.2229e-08 -0.00100009)
(-4.11935e-09 3.21723e-08 -0.00100009)
(-2.58361e-08 5.03405e-08 -0.00100005)
(-2.33182e-08 5.02461e-08 -0.00100006)
(-1.85178e-08 5.01919e-08 -0.00100007)
(-1.19217e-08 5.01693e-08 -0.00100007)
(-4.11361e-09 5.00864e-08 -0.00100008)
(-2.5947e-08 6.33808e-08 -0.00100004)
(-2.33842e-08 6.3322e-08 -0.00100004)
(-1.85498e-08 6.32823e-08 -0.00100005)
(-1.19262e-08 6.32516e-08 -0.00100006)
(-4.1095e-09 6.31338e-08 -0.00100006)
(-2.60818e-08 7.03602e-08 -0.00100002)
(-2.34166e-08 7.02272e-08 -0.00100002)
(-1.85824e-08 7.01547e-08 -0.00100003)
(-1.19469e-08 7.00988e-08 -0.00100003)
(-4.11388e-09 6.9946e-08 -0.00100004)
(-3.4946e-08 1.51739e-08 -0.0010001)
(-3.15487e-08 1.51423e-08 -0.00100011)
(-2.5068e-08 1.51231e-08 -0.00100012)
(-1.61556e-08 1.51149e-08 -0.00100013)
(-5.58076e-09 1.50879e-08 -0.00100013)
(-3.50609e-08 4.40037e-08 -0.00100009)
(-3.16593e-08 4.39374e-08 -0.0010001)
(-2.51416e-08 4.39029e-08 -0.00100011)
(-1.61924e-08 4.38929e-08 -0.00100012)
(-5.59065e-09 4.3821e-08 -0.00100012)
(-3.51563e-08 6.84099e-08 -0.00100007)
(-3.17123e-08 6.8354e-08 -0.00100009)
(-2.51584e-08 6.83274e-08 -0.00100009)
(-1.61845e-08 6.83157e-08 -0.0010001)
(-5.58252e-09 6.81967e-08 -0.0010001)
(-3.52672e-08 8.61952e-08 -0.00100005)
(-3.17449e-08 8.61714e-08 -0.00100006)
(-2.5176e-08 8.61347e-08 -0.00100007)
(-1.61914e-08 8.6092e-08 -0.00100008)
(-5.58315e-09 8.59229e-08 -0.00100008)
(-3.54184e-08 9.57392e-08 -0.00100002)
(-3.17728e-08 9.55671e-08 -0.00100003)
(-2.52299e-08 9.54467e-08 -0.00100004)
(-1.62281e-08 9.53556e-08 -0.00100005)
(-5.59141e-09 9.5145e-08 -0.00100005)
(-4.75384e-08 2.06117e-08 -0.00100014)
(-4.29082e-08 2.05868e-08 -0.00100015)
(-3.4064e-08 2.05743e-08 -0.00100017)
(-2.19291e-08 2.05704e-08 -0.00100017)
(-7.56795e-09 2.05347e-08 -0.00100018)
(-4.76733e-08 5.98151e-08 -0.00100013)
(-4.30273e-08 5.97723e-08 -0.00100014)
(-3.41433e-08 5.97476e-08 -0.00100015)
(-2.19707e-08 5.97379e-08 -0.00100016)
(-7.5802e-09 5.96299e-08 -0.00100017)
(-4.77635e-08 9.30852e-08 -0.0010001)
(-4.30615e-08 9.3032e-08 -0.00100012)
(-3.41611e-08 9.29847e-08 -0.00100013)
(-2.19743e-08 9.29468e-08 -0.00100014)
(-7.58015e-09 9.27605e-08 -0.00100014)
(-4.79076e-08 1.17383e-07 -0.00100007)
(-4.3132e-08 1.17273e-07 -0.00100008)
(-3.42234e-08 1.17168e-07 -0.00100009)
(-2.20153e-08 1.17076e-07 -0.0010001)
(-7.59394e-09 1.1682e-07 -0.00100011)
(-4.81837e-08 1.30324e-07 -0.00100003)
(-4.32768e-08 1.30016e-07 -0.00100004)
(-3.43476e-08 1.29802e-07 -0.00100006)
(-2.20928e-08 1.2965e-07 -0.00100006)
(-7.61745e-09 1.29349e-07 -0.00100007)
(-6.45916e-08 2.80169e-08 -0.00100019)
(-5.82568e-08 2.80033e-08 -0.00100021)
(-4.62107e-08 2.79914e-08 -0.00100023)
(-2.97186e-08 2.79851e-08 -0.00100024)
(-1.02475e-08 2.79333e-08 -0.00100024)
(-6.47537e-08 8.1376e-08 -0.00100017)
(-5.83934e-08 8.13318e-08 -0.00100019)
(-4.63144e-08 8.12884e-08 -0.00100021)
(-2.97792e-08 8.12563e-08 -0.00100022)
(-1.02672e-08 8.10943e-08 -0.00100023)
(-6.48671e-08 1.26709e-07 -0.00100014)
(-5.84612e-08 1.26588e-07 -0.00100016)
(-4.63714e-08 1.26472e-07 -0.00100018)
(-2.98139e-08 1.26379e-07 -0.00100019)
(-1.02789e-08 1.26101e-07 -0.00100019)
(-6.50873e-08 1.59759e-07 -0.00100009)
(-5.86362e-08 1.59501e-07 -0.00100011)
(-4.6516e-08 1.59286e-07 -0.00100013)
(-2.99056e-08 1.5912e-07 -0.00100014)
(-1.03102e-08 1.5874e-07 -0.00100015)
(-6.55048e-08 1.77227e-07 -0.00100004)
(-5.89343e-08 1.7678e-07 -0.00100006)
(-4.67377e-08 1.76459e-07 -0.00100008)
(-3.00477e-08 1.76222e-07 -0.00100009)
(-1.03613e-08 1.75791e-07 -0.00100009)
(-8.76908e-08 3.81237e-08 -0.00100026)
(-7.9008e-08 3.81057e-08 -0.00100029)
(-6.262e-08 3.80847e-08 -0.00100031)
(-4.02306e-08 3.80712e-08 -0.00100032)
(-1.38617e-08 3.80002e-08 -0.00100033)
(-8.79135e-08 1.10754e-07 -0.00100023)
(-7.91981e-08 1.10662e-07 -0.00100026)
(-6.27707e-08 1.10578e-07 -0.00100028)
(-4.03184e-08 1.10514e-07 -0.0010003)
(-1.3889e-08 1.10285e-07 -0.00100031)
(-8.80902e-08 1.72407e-07 -0.00100019)
(-7.9343e-08 1.72178e-07 -0.00100022)
(-6.2884e-08 1.71983e-07 -0.00100024)
(-4.03887e-08 1.71827e-07 -0.00100025)
(-1.39127e-08 1.71431e-07 -0.00100026)
(-8.84216e-08 2.17254e-07 -0.00100013)
(-7.963e-08 2.16865e-07 -0.00100015)
(-6.31123e-08 2.1654e-07 -0.00100018)
(-4.05365e-08 2.16286e-07 -0.00100019)
(-1.39643e-08 2.15757e-07 -0.0010002)
(-8.89626e-08 2.40917e-07 -0.00100005)
(-8.00564e-08 2.40338e-07 -0.00100008)
(-6.34434e-08 2.39881e-07 -0.0010001)
(-4.07463e-08 2.39533e-07 -0.00100012)
(-1.40357e-08 2.38937e-07 -0.00100013)
(-1.19014e-07 5.18949e-08 -0.00100035)
(-1.07092e-07 5.18566e-08 -0.00100039)
(-8.47927e-08 5.18267e-08 -0.00100042)
(-5.44219e-08 5.18093e-08 -0.00100044)
(-1.87404e-08 5.17102e-08 -0.00100045)
(-1.19327e-07 1.50717e-07 -0.00100032)
(-1.07366e-07 1.5056e-07 -0.00100036)
(-8.49979e-08 1.50438e-07 -0.00100039)
(-5.45427e-08 1.50344e-07 -0.00100041)
(-1.87799e-08 1.50023e-07 -0.00100042)
(-1.19578e-07 2.34509e-07 -0.00100026)
(-1.07588e-07 2.34175e-07 -0.00100029)
(-8.51656e-08 2.33902e-07 -0.00100032)
(-5.46523e-08 2.33676e-07 -0.00100035)
(-1.88189e-08 2.33132e-07 -0.00100036)
(-1.20048e-07 2.95435e-07 -0.00100017)
(-1.07983e-07 2.94903e-07 -0.00100021)
(-8.54845e-08 2.94448e-07 -0.00100024)
(-5.48591e-08 2.94082e-07 -0.00100026)
(-1.8887e-08 2.93373e-07 -0.00100027)
(-1.20785e-07 3.27635e-07 -0.00100007)
(-1.08575e-07 3.26816e-07 -0.00100011)
(-8.59586e-08 3.26137e-07 -0.00100014)
(-5.51476e-08 3.25626e-07 -0.00100016)
(-1.89753e-08 3.24803e-07 -0.00100017)
(-1.61526e-07 7.06131e-08 -0.00100048)
(-1.45119e-07 7.05736e-08 -0.00100053)
(-1.14756e-07 7.05516e-08 -0.00100057)
(-7.35983e-08 7.05339e-08 -0.0010006)
(-2.5339e-08 7.03905e-08 -0.00100061)
(-1.61909e-07 2.05026e-07 -0.00100043)
(-1.4546e-07 2.04855e-07 -0.00100048)
(-1.15011e-07 2.04723e-07 -0.00100052)
(-7.37649e-08 2.04606e-07 -0.00100055)
(-2.54009e-08 2.04168e-07 -0.00100057)
(-1.62186e-07 3.18937e-07 -0.00100035)
(-1.45716e-07 3.18535e-07 -0.0010004)
(-1.15219e-07 3.18182e-07 -0.00100044)
(-7.39025e-08 3.1788e-07 -0.00100047)
(-2.5446e-08 3.17164e-07 -0.00100049)
(-1.62795e-07 4.01804e-07 -0.00100024)
(-1.46229e-07 4.01067e-07 -0.00100028)
(-1.15647e-07 4.00419e-07 -0.00100033)
(-7.41641e-08 3.99909e-07 -0.00100036)
(-2.55225e-08 3.98952e-07 -0.00100037)
(-1.63872e-07 4.45689e-07 -0.0010001)
(-1.471e-07 4.44424e-07 -0.00100015)
(-1.16341e-07 4.43381e-07 -0.00100019)
(-7.45812e-08 4.42623e-07 -0.00100022)
(-2.56501e-08 4.41455e-07 -0.00100024)
(-2.19241e-07 9.60559e-08 -0.00100065)
(-1.96606e-07 9.60768e-08 -0.00100072)
(-1.55265e-07 9.60949e-08 -0.00100077)
(-9.95227e-08 9.60888e-08 -0.00100081)
(-3.42636e-08 9.59024e-08 -0.00100083)
(-2.19604e-07 2.7886e-07 -0.00100059)
(-1.96946e-07 2.78806e-07 -0.00100066)
(-1.55543e-07 2.78734e-07 -0.00100071)
(-9.97212e-08 2.78636e-07 -0.00100075)
(-3.43384e-08 2.78084e-07 -0.00100077)
(-2.19778e-07 4.33756e-07 -0.00100048)
(-1.97132e-07 4.33366e-07 -0.00100054)
(-1.55725e-07 4.3297e-07 -0.0010006)
(-9.98282e-08 4.32635e-07 -0.00100064)
(-3.43634e-08 4.31717e-07 -0.00100066)
(-2.20485e-07 5.46472e-07 -0.00100032)
(-1.97751e-07 5.45457e-07 -0.00100039)
(-1.5625e-07 5.44565e-07 -0.00100044)
(-1.00131e-07 5.43868e-07 -0.00100048)
(-3.44461e-08 5.42551e-07 -0.0010005)
(-2.22064e-07 6.06225e-07 -0.00100014)
(-1.99039e-07 6.04261e-07 -0.0010002)
(-1.57263e-07 6.02684e-07 -0.00100026)
(-1.00766e-07 6.01532e-07 -0.0010003)
(-3.46537e-08 5.99849e-07 -0.00100032)
(-2.97652e-07 1.30712e-07 -0.00100089)
(-2.66346e-07 1.30898e-07 -0.00100098)
(-2.10034e-07 1.31024e-07 -0.00100105)
(-1.34512e-07 1.31086e-07 -0.00100111)
(-4.62872e-08 1.3088e-07 -0.00100113)
(-2.9782e-07 3.79397e-07 -0.00100081)
(-2.66545e-07 3.79692e-07 -0.0010009)
(-2.10238e-07 3.79854e-07 -0.00100097)
(-1.34662e-07 3.79912e-07 -0.00100102)
(-4.634e-08 3.79273e-07 -0.00100105)
(-2.97619e-07 5.89981e-07 -0.00100065)
(-2.6643e-07 5.89796e-07 -0.00100074)
(-2.10206e-07 5.89526e-07 -0.00100081)
(-1.34621e-07 5.89267e-07 -0.00100087)
(-4.63091e-08 5.881e-07 -0.00100089)
(-2.98266e-07 7.43087e-07 -0.00100044)
(-2.67028e-07 7.41846e-07 -0.00100053)
(-2.10733e-07 7.40716e-07 -0.0010006)
(-1.34936e-07 7.39787e-07 -0.00100065)
(-4.64004e-08 7.37971e-07 -0.00100068)
(-3.00407e-07 8.24287e-07 -0.00100019)
(-2.688e-07 8.21409e-07 -0.00100028)
(-2.12195e-07 8.19069e-07 -0.00100035)
(-1.35897e-07 8.17291e-07 -0.0010004)
(-4.67244e-08 8.14873e-07 -0.00100043)
(-4.0435e-07 1.78042e-07 -0.00100121)
(-3.60879e-07 1.78586e-07 -0.00100133)
(-2.84027e-07 1.78989e-07 -0.00100143)
(-1.81606e-07 1.79248e-07 -0.00100151)
(-6.24081e-08 1.79057e-07 -0.00100154)
(-4.03953e-07 5.16535e-07 -0.0010011)
(-3.6062e-07 5.17657e-07 -0.00100122)
(-2.83892e-07 5.18464e-07 -0.00100132)
(-1.81538e-07 5.18969e-07 -0.00100139)
(-6.23873e-08 5.18293e-07 -0.00100143)
(-4.02768e-07 8.02647e-07 -0.00100089)
(-3.5968e-07 8.03167e-07 -0.00100101)
(-2.83243e-07 8.03427e-07 -0.0010011)
(-1.81127e-07 8.03489e-07 -0.00100118)
(-6.22392e-08 8.02053e-07 -0.00100121)
(-4.02881e-07 1.01024e-06 -0.0010006)
(-3.59876e-07 1.009e-06 -0.00100071)
(-2.83524e-07 1.00773e-06 -0.00100081)
(-1.81339e-07 1.0066e-06 -0.00100088)
(-6.23116e-08 1.00416e-06 -0.00100092)
(-4.05558e-07 1.12031e-06 -0.00100026)
(-3.62189e-07 1.11626e-06 -0.00100037)
(-2.85552e-07 1.1128e-06 -0.00100047)
(-1.82688e-07 1.1101e-06 -0.00100055)
(-6.27648e-08 1.10665e-06 -0.00100058)
(-5.49829e-07 2.42842e-07 -0.00100165)
(-4.89064e-07 2.44197e-07 -0.00100182)
(-3.83889e-07 2.45242e-07 -0.00100195)
(-2.44849e-07 2.4596e-07 -0.00100205)
(-8.39101e-08 2.45848e-07 -0.0010021)
(-5.47996e-07 7.03952e-07 -0.0010015)
(-4.87581e-07 7.07022e-07 -0.00100166)
(-3.82827e-07 7.09348e-07 -0.0010018)
(-2.4423e-07 7.10908e-07 -0.00100189)
(-8.37269e-08 7.10322e-07 -0.00100194)
(-5.44435e-07 1.09242e-06 -0.00100121)
(-4.84647e-07 1.09482e-06 -0.00100137)
(-3.80709e-07 1.09647e-06 -0.0010015)
(-2.42973e-07 1.09744e-06 -0.00100159)
(-8.33353e-08 1.09579e-06 -0.00100164)
(-5.42931e-07 1.37333e-06 -0.00100081)
(-4.83579e-07 1.37259e-06 -0.00100097)
(-3.80151e-07 1.37151e-06 -0.0010011)
(-2.42761e-07 1.37042e-06 -0.00100119)
(-8.33093e-08 1.3672e-06 -0.00100124)
(-5.46071e-07 1.52197e-06 -0.00100035)
(-4.86465e-07 1.51626e-06 -0.00100051)
(-3.82752e-07 1.51117e-06 -0.00100064)
(-2.44549e-07 1.50717e-06 -0.00100073)
(-8.3947e-08 1.50217e-06 -0.00100078)
(-7.48613e-07 3.3195e-07 -0.00100226)
(-6.62953e-07 3.35144e-07 -0.00100248)
(-5.18703e-07 3.3755e-07 -0.00100267)
(-3.29681e-07 3.39299e-07 -0.0010028)
(-1.12268e-07 3.39375e-07 -0.00100286)
(-7.43421e-07 9.60999e-07 -0.00100204)
(-6.58561e-07 9.68513e-07 -0.00100226)
(-5.15469e-07 9.74086e-07 -0.00100244)
(-3.2781e-07 9.78083e-07 -0.00100257)
(-1.11775e-07 9.77813e-07 -0.00100263)
(-7.34556e-07 1.48798e-06 -0.00100164)
(-6.51167e-07 1.49485e-06 -0.00100186)
(-5.10069e-07 1.49963e-06 -0.00100203)
(-3.24693e-07 1.50289e-06 -0.00100216)
(-1.10933e-07 1.5011e-06 -0.00100222)
(-7.29147e-07 1.86668e-06 -0.00100111)
(-6.46967e-07 1.86779e-06 -0.00100131)
(-5.07343e-07 1.86772e-06 -0.00100148)
(-3.23395e-07 1.86729e-06 -0.0010016)
(-1.10729e-07 1.86292e-06 -0.00100167)
(-7.32304e-07 2.06605e-06 -0.00100048)
(-6.50125e-07 2.05808e-06 -0.00100069)
(-5.10393e-07 2.0506e-06 -0.00100086)
(-3.2575e-07 2.0447e-06 -0.00100098)
(-1.11724e-07 2.03723e-06 -0.00100104)
(-1.02114e-06 4.5542e-07 -0.00100308)
(-8.9934e-07 4.62703e-07 -0.0010034)
(-7.01336e-07 4.67783e-07 -0.00100364)
(-4.43546e-07 4.7196e-07 -0.00100383)
(-1.48404e-07 4.72276e-07 -0.00100391)
(-1.00865e-06 1.31568e-06 -0.00100279)
(-8.88533e-07 1.33316e-06 -0.00100309)
(-6.93264e-07 1.34518e-06 -0.00100332)
(-4.38934e-07 1.35501e-06 -0.00100351)
(-1.47489e-07 1.3551e-06 -0.00100358)
(-9.88457e-07 2.02932e-06 -0.00100224)
(-8.71541e-07 2.04654e-06 -0.00100252)
(-6.80701e-07 2.05773e-06 -0.00100274)
(-4.31842e-07 2.0667e-06 -0.00100291)
(-1.46075e-07 2.06443e-06 -0.00100299)
(-9.74294e-07 2.53643e-06 -0.0010015)
(-8.60212e-07 2.54285e-06 -0.00100177)
(-6.72984e-07 2.54533e-06 -0.00100199)
(-4.28174e-07 2.54741e-06 -0.00100215)
(-1.45848e-07 2.54097e-06 -0.00100223)
(-9.76287e-07 2.80074e-06 -0.00100066)
(-8.62646e-07 2.79005e-06 -0.00100092)
(-6.75904e-07 2.77874e-06 -0.00100114)
(-4.31077e-07 2.77027e-06 -0.0010013)
(-1.47608e-07 2.75848e-06 -0.00100138)
(-1.39665e-06 6.27941e-07 -0.00100422)
(-1.22195e-06 6.4497e-07 -0.00100469)
(-9.50857e-07 6.54629e-07 -0.00100498)
(-5.97324e-07 6.65097e-07 -0.00100529)
(-1.88996e-07 6.6494e-07 -0.00100534)
(-1.36886e-06 1.80891e-06 -0.0010038)
(-1.1972e-06 1.85016e-06 -0.00100424)
(-9.322e-07 1.87313e-06 -0.00100452)
(-5.86729e-07 1.8984e-06 -0.0010048)
(-1.88256e-07 1.89668e-06 -0.00100486)
(-1.3248e-06 2.77261e-06 -0.00100303)
(-1.15991e-06 2.8148e-06 -0.00100342)
(-9.04169e-07 2.83662e-06 -0.00100369)
(-5.71177e-07 2.86116e-06 -0.00100393)
(-1.87501e-07 2.85498e-06 -0.001004)
(-1.29166e-06 3.4442e-06 -0.00100203)
(-1.1333e-06 3.46509e-06 -0.00100238)
(-8.8566e-07 3.47179e-06 -0.00100264)
(-5.62741e-07 3.48262e-06 -0.00100286)
(-1.88972e-07 3.47043e-06 -0.00100295)
(-1.29006e-06 3.78698e-06 -0.0010009)
(-1.13231e-06 3.77456e-06 -0.00100123)
(-8.86306e-07 3.7559e-06 -0.00100149)
(-5.65483e-07 3.74507e-06 -0.0010017)
(-1.92896e-07 3.72415e-06 -0.0010018)
(-1.91728e-06 8.69846e-07 -0.00100572)
(-1.66447e-06 9.13658e-07 -0.00100656)
(-1.2964e-06 9.27572e-07 -0.00100679)
(-8.11754e-07 9.56314e-07 -0.00100738)
(-2.11942e-07 9.51345e-07 -0.00100732)
(-1.85865e-06 2.49989e-06 -0.00100514)
(-1.60897e-06 2.60565e-06 -0.00100587)
(-1.25545e-06 2.63731e-06 -0.0010061)
(-7.87331e-07 2.70938e-06 -0.00100663)
(-2.15459e-07 2.69277e-06 -0.00100659)
(-1.76445e-06 3.79553e-06 -0.00100407)
(-1.5297e-06 3.90465e-06 -0.00100464)
(-1.19455e-06 3.93234e-06 -0.00100489)
(-7.52371e-07 4.00568e-06 -0.0010053)
(-2.23672e-07 3.97692e-06 -0.00100531)
(-1.69055e-06 4.66965e-06 -0.00100272)
(-1.47231e-06 4.73289e-06 -0.00100318)
(-1.15418e-06 4.73843e-06 -0.00100346)
(-7.3479e-07 4.78127e-06 -0.00100378)
(-2.36271e-07 4.74771e-06 -0.00100386)
(-1.68094e-06 5.09506e-06 -0.00100121)
(-1.4609e-06 5.0904e-06 -0.0010016)
(-1.14571e-06 5.05148e-06 -0.0010019)
(-7.33304e-07 5.04395e-06 -0.00100216)
(-2.47621e-07 4.99907e-06 -0.00100227)
(-2.64344e-06 1.20307e-06 -0.00100762)
(-2.2831e-06 1.32894e-06 -0.00100942)
(-1.77475e-06 1.33273e-06 -0.00100916)
(-1.14408e-06 1.41466e-06 -0.00101054)
(-1.37865e-07 1.39018e-06 -0.00101007)
(-2.52728e-06 3.46558e-06 -0.00100684)
(-2.15555e-06 3.76924e-06 -0.00100833)
(-1.69073e-06 3.76301e-06 -0.00100813)
(-1.08517e-06 3.98203e-06 -0.00100932)
(-1.59693e-07 3.90258e-06 -0.00100892)
(-2.3274e-06 5.19309e-06 -0.00100531)
(-1.98859e-06 5.50729e-06 -0.00100634)
(-1.56402e-06 5.47657e-06 -0.00100632)
(-9.98152e-07 5.71074e-06 -0.00100714)
(-2.0903e-07 5.58781e-06 -0.00100692)
(-2.16273e-06 6.30286e-06 -0.00100357)
(-1.87225e-06 6.507e-06 -0.00100425)
(-1.48692e-06 6.46171e-06 -0.00100442)
(-9.62165e-07 6.62446e-06 -0.00100498)
(-2.70074e-07 6.51263e-06 -0.00100498)
(-2.13895e-06 6.78178e-06 -0.00100156)
(-1.82973e-06 6.83655e-06 -0.00100198)
(-1.44595e-06 6.72115e-06 -0.00100226)
(-9.33259e-07 6.74697e-06 -0.00100257)
(-3.06493e-07 6.62843e-06 -0.00100267)
(-3.64188e-06 1.63732e-06 -0.0010098)
(-3.20948e-06 1.99981e-06 -0.00101395)