/*--------------------------------*- C++ -*----------------------------------*\
| =========                 |                                                 |
| \\      /  F ield         | OpenFOAM: The Open Source CFD Toolbox           |
|  \\    /   O peration     | Version:  5.x                                   |
|   \\  /    A nd           | Web:      www.OpenFOAM.org                      |
|    \\/     M anipulation  |                                                 |
\*---------------------------------------------------------------------------*/
FoamFile
{
    version     2.0;
    format      ascii;
    class       surfaceScalarField;
    location    "10000";
    object      phi;
}
// * * * * * * * * * * * * * * * * * * * * * * * * * * * * * * * * * * * * * //

dimensions      [0 3 -1 0 0 0 0];

internalField   nonuniform List<scalar> 
179
(
2.97213e+07
2.97187e+07
2.97142e+07
2.97065e+07
2.96941e+07
2.96812e+07
2.96672e+07
2.96569e+07
2.96514e+07
2.96498e+07
2.96541e+07
2.96623e+07
2.96723e+07
2.96859e+07
2.97055e+07
2.97272e+07
2.97488e+07
2.97718e+07
2.97938e+07
2.98097e+07
2.98314e+07
2.98546e+07
2.98784e+07
2.99081e+07
2.99377e+07
2.99658e+07
2.9988e+07
3.00103e+07
3.0024e+07
3.00347e+07
3.00452e+07
3.00521e+07
3.00591e+07
3.00594e+07
3.00526e+07
3.00344e+07
3.00136e+07
2.99929e+07
2.99657e+07
2.9937e+07
2.99002e+07
2.98673e+07
2.98261e+07
2.97803e+07
2.97357e+07
2.96848e+07
2.96344e+07
2.95847e+07
2.95329e+07
2.94843e+07
2.94338e+07
2.93849e+07
2.93393e+07
2.93031e+07
2.92711e+07
2.92403e+07
2.92237e+07
2.92171e+07
2.92161e+07
2.92217e+07
2.92339e+07
2.92537e+07
2.92831e+07
2.93213e+07
2.93733e+07
2.94333e+07
2.94974e+07
2.95666e+07
2.96411e+07
2.97165e+07
2.97889e+07
2.98608e+07
2.99369e+07
3.00118e+07
3.00876e+07
3.0164e+07
3.02408e+07
3.03166e+07
3.03956e+07
3.04744e+07
3.05555e+07
3.06369e+07
3.07121e+07
3.07811e+07
3.08402e+07
3.08987e+07
3.09427e+07
3.0972e+07
3.09982e+07
3.10178e+07
3.10249e+07
3.10244e+07
3.10205e+07
3.1006e+07
3.09822e+07
3.09489e+07
3.09034e+07
3.08501e+07
3.07956e+07
3.07382e+07
3.06805e+07
3.06233e+07
3.05801e+07
3.05405e+07
3.04962e+07
3.04529e+07
3.04205e+07
3.04002e+07
3.03938e+07
3.03851e+07
3.03887e+07
3.03869e+07
3.03904e+07
3.03908e+07
3.04062e+07
3.04362e+07
3.04724e+07
3.05155e+07
3.05659e+07
3.06124e+07
3.06709e+07
3.07385e+07
3.08213e+07
3.09365e+07
3.10715e+07
3.12352e+07
3.14066e+07
3.15899e+07
3.17645e+07
3.19499e+07
3.21273e+07
3.23026e+07
3.24755e+07
3.26362e+07
3.2791e+07
3.29297e+07
3.30597e+07
3.31751e+07
3.32783e+07
3.33659e+07
3.34408e+07
3.35057e+07
3.35613e+07
3.36096e+07
3.36455e+07
3.36697e+07
3.36732e+07
3.36588e+07
3.36174e+07
3.35543e+07
3.34651e+07
3.33569e+07
3.32233e+07
3.3073e+07
3.2896e+07
3.26978e+07
3.24805e+07
3.22439e+07
3.19918e+07
3.17261e+07
3.14474e+07
3.11591e+07
3.0862e+07
3.0563e+07
3.02624e+07
2.99683e+07
2.96806e+07
2.94053e+07
2.9143e+07
2.88983e+07
2.8673e+07
2.84691e+07
2.82877e+07
2.81391e+07
2.80165e+07
2.7951e+07
2.79122e+07
2.78802e+07
2.78969e+07
)
;

boundaryField
{
    inlet
    {
        type            calculated;
        value           uniform 2.79591e+07;
    }
    outlet
    {
        type            calculated;
        value           uniform -2.97217e+07;
    }
    repeat_boundary
    {
        type            calculated;
        value           uniform 0;
    }
    procBoundary1to0
    {
        type            processor;
        value           nonuniform List<scalar> 
180
(
1306.67
2780.26
4253.64
5142.91
6598.96
6212.98
8675.21
7108.78
3468.28
2095.68
-865.744
-1289.05
-2227.55
-4707.25
-9125.96
-9988.04
-9645.69
-11419.1
-12574.5
-9967.46
-10746.5
-10778.5
-10333.6
-11702
-10597.5
-11340.2
-10958.1
-11381.4
-8618.66
-7153.1
-6398.03
-4243.64
-6052.69
-4432.43
-1561.11
4318.73
3674.44
1555.39
5205.34
5271.65
10830.6
6199.41
10026
12620.8
12052
16254
16663.2
15579.9
15864.4
13936
14992.7
15840.1
14716.2
12278.3
11145.2
12073.6
8242.58
2954.65
1351.24
-1788.86
-5278.34
-8570.23
-14996.8
-20502.2
-28252.2
-36722.6
-39163.5
-43418.1
-48531.7
-49414.4
-47562
-48570.2
-52408.6
-49622.2
-48764.2
-48800.7
-48596.8
-42977.5
-41952
-42980.6
-42345.8
-42176.8
-36876.7
-30597.7
-21539.7
-20512.2
-11524
1239.56
4789.72
10515
18228.5
21480.7
23136.1
29450.2
33712.2
34881
38638.6
43432.1
44450.7
45318.6
45665.4
47207.2
46083.8
46457.1
46860.1
44010.9
36392
28095.2
17947.6
20859.2
9608.15
12726.2
5683.36
7537.12
-6890.24
-19925.2
-25582.1
-33080.3
-41228.9
-37207
-46088.8
-46292.4
-49108.9
-58292
-58370.1
-65022.2
-63187.9
-59208.9
-45186.3
-48125
-42829.2
-46454.6
-52653.1
-55258.8
-64240.8
-70635.5
-81487
-86716.2
-94096.1
-97269.3
-101804
-105291
-109018
-109768
-108380
-101113
-92187
-77849.7
-63767.4
-46774.1
-33327.3
-18581.1
-7037.74
7242.56
20392.6
36993.5
52803.8
70483.5
86105.3
101191
113241
123168
130121
134863
137283
138173
137806
136769
135350
133389
131875
131147
132174
130029
125647
119545
111072
100505
70443.5
43447.7
)
;
    }
    procBoundary1to3
    {
        type            processor;
        value           nonuniform List<scalar> 
180
(
-997.838
-167.421
232.853
2587.73
5830.4
6718.11
5316.08
3191.51
1991.56
-459.578
-3504.91
-6824.47
-7846.7
-8908.03
-10454.4
-11665.4
-11955.6
-11565.5
-9442.04
-5924.74
-11029.6
-12363.6
-13467.4
-17966.2
-19046
-16802.2
-11220.2
-10901.1
-5034.47
-3590.03
-4104.3
-2664.18
-904.246
4134.98
8365.49
13847.5
17122.8
19097.8
22024.1
23479.4
25892.5
26720.2
31217.2
33147.9
32544
34697.8
33711.3
34076
35993.7
34608.3
35506.1
33044.7
30910
23910.9
20846.3
18808.1
8305.71
3607.88
-258.851
-3862.48
-6900.64
-11286.2
-14326.6
-17713
-23747.6
-23314.5
-24969.2
-25710.8
-25988.8
-25955.1
-24885.6
-23321.1
-23703.7
-25260
-27048.5
-27599.7
-28189.9
-32842.4
-37031.4
-35810.4
-38783.9
-39158
-38334.4
-38389.5
-37557.9
-38044.4
-32474
-30496.7
-31029.3
-30125.2
-25315.3
-20995.2
-19224.6
-14971.7
-9843.17
-1595.58
6857.4
9823.28
10114.5
12048.7
11984.1
10017.6
-2909.83
-6856.54
-2481.99
-717.155
-3986.96
-7877.49
-11485.8
-12207.6
-13195.8
-10923
-9211.08
-7899.76
-8504.08
-10034.6
-10644.4
-10081.9
-9151.22
-9293.95
-12341.8
-21315.6
-33715.4
-56913.9
-76609.1
-98711.4
-108160
-124123
-129445
-137226
-134558
-128908
-120261
-105368
-90599.2
-68051.1
-48516
-28702.3
-9114.76
9708.03
26916.2
40361.9
53404.8
61461
72463.5
76937
88725
92179
105201
109906
122531
126756
140668
142983
156659
161199
164488
166079
166006
164510
165535
165070
166997
164153
163313
155883
149927
138582
126889
111283
93515.5
72696
49220.2
18635.8
-3087.7
-54016
-72297
-68547.3
-87142
-105631
)
;
    }
}


// ************************************************************************* //
