/*--------------------------------*- C++ -*----------------------------------*\
| =========                 |                                                 |
| \\      /  F ield         | OpenFOAM: The Open Source CFD Toolbox           |
|  \\    /   O peration     | Version:  5.x                                   |
|   \\  /    A nd           | Web:      www.OpenFOAM.org                      |
|    \\/     M anipulation  |                                                 |
\*---------------------------------------------------------------------------*/
FoamFile
{
    version     2.0;
    format      ascii;
    class       volVectorField;
    location    "10000";
    object      stored_U;
}
// * * * * * * * * * * * * * * * * * * * * * * * * * * * * * * * * * * * * * //

dimensions      [0 1 -1 0 0 0 0];

internalField   nonuniform List<vector> 
180
(
(-0.0432059 -0.048274 117.904)
(-0.0486868 -0.0054608 118.201)
(-0.0552109 0.0406184 118.154)
(-0.0669392 0.0821078 118.138)
(-0.0583526 0.0407315 117.916)
(-0.10834 0.061436 118.107)
(-0.0902425 -0.00981974 117.984)
(0.00795614 -0.0788292 117.928)
(0.154164 -0.212476 117.986)
(0.304119 -0.377873 117.941)
(0.340554 -0.513645 118.102)
(0.328194 -0.540984 118.195)
(0.411751 -0.461605 118.173)
(0.545908 -0.508874 118.203)
(0.646604 -0.658778 118.396)
(0.678933 -0.717022 118.487)
(0.539137 -0.515147 118.535)
(0.470629 -0.473603 118.718)
(0.202583 -0.274519 118.788)
(0.0268247 -0.0824077 118.884)
(-0.0837653 0.169908 118.972)
(-0.113274 0.118 119.065)
(-0.0769342 -0.224661 119.13)
(-0.0120099 -0.436398 119.24)
(-0.0136883 -0.335264 119.407)
(-0.042429 -0.272577 119.484)
(-0.0722057 -0.223703 119.713)
(-0.472584 0.453375 119.342)
(-0.476301 0.450281 119.661)
(-0.488411 0.467372 119.859)
(-0.692705 0.669662 119.278)
(-0.653661 0.579454 119.592)
(-0.603121 0.681758 119.628)
(-0.627101 0.621482 119.474)
(-0.681186 0.579165 119.412)
(-0.666444 0.718817 119.253)
(-0.676089 0.772151 119.169)
(-0.716657 0.837172 119.031)
(-0.771203 0.915555 118.855)
(-0.82312 1.00993 118.778)
(-0.618971 0.982011 118.501)
(-0.38097 0.878269 117.729)
(-0.312224 0.873111 118.49)
(-0.19459 0.804885 117.789)
(0.0559915 0.748639 117.714)
(0.34823 0.63912 116.986)
(0.42101 0.59834 117.461)
(0.466256 0.560213 117.517)
(0.600453 0.358538 116.57)
(0.613494 0.415358 116.761)
(0.515039 0.50695 116.827)
(0.514629 0.366313 116.383)
(0.803846 -0.021704 115.917)
(0.89804 -0.299439 116.106)
(0.90985 -0.314305 116.338)
(1.11351 -0.700094 115.736)
(1.22325 -0.841118 115.954)
(1.19869 -0.812352 116.063)
(1.15585 -0.755616 116.175)
(1.62848 -1.16054 115.995)
(1.94121 -1.377 116.27)
(2.16656 -1.58501 116.386)
(2.57103 -1.71642 116.543)
(2.78413 -1.81504 116.887)
(2.91981 -1.79544 117.102)
(3.11163 -1.6173 117.32)
(3.31277 -1.52259 117.64)
(3.38369 -1.48209 117.924)
(3.26565 -1.37009 118.279)
(3.23414 -1.14733 118.565)
(3.15707 -0.954325 118.846)
(3.04902 -0.833068 119.159)
(2.87333 -0.736115 119.471)
(2.70044 -0.691831 119.779)
(2.59983 -0.629779 120.099)
(2.41 -0.486178 120.369)
(2.27124 -0.470242 120.649)
(2.19968 -0.533464 121.015)
(2.19572 -0.5737 121.243)
(1.7034 -0.283708 121.17)
(1.73602 -0.452773 121.906)
(1.29846 -0.237209 121.572)
(1.55831 -0.39958 122.303)
(1.26159 -0.201972 122.029)
(1.01731 -0.130676 122.386)
(0.485296 0.116275 121.988)
(0.52462 0.044708 122.661)
(0.701788 -0.0602545 122.724)
(0.934805 -0.175609 122.928)
(0.178627 -0.0304436 122.13)
(0.143845 0.0173299 123.158)
(-0.33489 0.0709318 122.278)
(-0.20471 0.0425528 122.756)
(-0.167042 0.0380924 122.672)
(-0.161287 0.0325838 122.475)
(-0.172651 0.102319 122.468)
(-0.365329 0.289697 122.198)
(-0.673421 0.0496502 121.908)
(-0.782828 0.1567 121.788)
(-0.89546 0.235863 121.699)
(-1.05929 0.174346 121.505)
(-1.26876 -0.221891 121.108)
(-1.16427 -1.05591 120.69)
(-0.756705 -1.67875 120.562)
(-0.864141 -1.69003 121.053)
(-0.638775 -1.969 120.465)
(0.0963967 -2.45171 120.219)
(0.711838 -2.76128 120.272)
(1.02121 -2.93811 120.349)
(1.62112 -3.16884 119.955)
(1.6265 -3.31713 120.587)
(1.55228 -3.35903 120.693)
(1.67819 -3.3433 120.498)
(1.98616 -3.33181 120.497)
(2.96933 -3.64033 120.576)
(3.55307 -3.82791 120.749)
(3.869 -3.93989 121.1)
(3.88281 -3.97635 121.33)
(3.74501 -3.93877 121.526)
(3.78127 -3.83935 121.73)
(4.1013 -4.09996 121.854)
(4.22629 -4.43473 122.3)
(4.34158 -5.07063 122.659)
(4.62471 -6.31937 123.278)
(4.57164 -7.04899 123.747)
(4.84478 -7.83556 124.546)
(4.61494 -8.05524 125.25)
(4.89522 -9.39279 126.015)
(4.81009 -9.76408 126.843)
(5.26735 -11.0546 127.387)
(5.30397 -11.4276 128.348)
(5.88767 -12.4593 128.793)
(6.36078 -13.2888 129.641)
(6.98813 -14.1713 130.201)
(7.49968 -14.9466 130.755)
(7.88537 -15.4884 131.392)
(8.77049 -16.4751 131.732)
(9.47279 -17.3778 132.297)
(10.0503 -18.0748 132.488)
(10.5408 -18.7851 132.982)
(11.3365 -19.5438 133.137)
(12.3248 -20.4436 133.456)
(13.6298 -21.3759 133.581)
(14.9855 -22.4279 133.821)
(16.5129 -23.4498 133.916)
(17.8538 -24.4735 134.006)
(19.21 -25.3571 133.977)
(20.2588 -26.1772 133.883)
(21.3165 -26.855 133.669)
(22.0281 -27.4464 133.361)
(22.7831 -27.9134 132.945)
(23.2141 -28.31 132.465)
(23.7457 -28.6245 131.859)
(24.0394 -28.9123 131.221)
(24.4908 -29.1965 130.424)
(24.7939 -29.5106 129.601)
(25.2482 -29.8333 128.614)
(25.6157 -30.228 127.665)
(26.0777 -30.5951 126.522)
(26.4841 -31.0215 125.477)
(26.9003 -31.3204 124.21)
(27.2786 -31.7076 123.089)
(27.5584 -31.8932 121.73)
(27.7972 -32.1553 120.589)
(27.8528 -32.1311 119.208)
(27.8274 -32.1418 118.107)
(27.5924 -31.7546 116.776)
(27.2095 -31.3795 115.77)
(26.6917 -30.4807 114.518)
(25.9982 -29.6374 113.681)
(25.2367 -28.1932 112.523)
(24.3571 -26.8873 111.871)
(23.5041 -25.2451 110.929)
(22.8493 -23.4064 110.324)
(22.1074 -22.0251 109.835)
(21.7462 -20.3502 109.431)
(21.3164 -18.8129 109.057)
(21.5998 -17.9276 109.147)
(21.7175 -16.9091 108.408)
(22.8511 -17.2269 108.899)
)
;

boundaryField
{
    inlet
    {
        type            calculated;
        value           uniform (22.8511 -17.2269 108.899);
    }
    outlet
    {
        type            calculated;
        value           uniform (-0.0432059 -0.048274 117.904);
    }
    repeat_boundary
    {
        type            calculated;
        value           nonuniform List<vector> 
360
(
(-0.0432059 0 117.904)
(-0.0486868 0 118.201)
(-0.0552109 0 118.154)
(-0.0669392 0 118.138)
(-0.0583526 0 117.916)
(-0.10834 0 118.107)
(-0.0902425 0 117.984)
(0.00795614 0 117.928)
(0.154164 0 117.986)
(0.304119 0 117.941)
(0.340554 0 118.102)
(0.328194 0 118.195)
(0.411751 0 118.173)
(0.545908 0 118.203)
(0.646604 0 118.396)
(0.678933 0 118.487)
(0.539137 0 118.535)
(0.470629 0 118.718)
(0.202583 0 118.788)
(0.0268247 0 118.884)
(-0.0837653 0 118.972)
(-0.113274 0 119.065)
(-0.0769342 0 119.13)
(-0.0120099 0 119.24)
(-0.0136883 0 119.407)
(-0.042429 0 119.484)
(-0.0722057 0 119.713)
(-0.472584 0 119.342)
(-0.476301 0 119.661)
(-0.488411 0 119.859)
(-0.692705 0 119.278)
(-0.653661 0 119.592)
(-0.603121 0 119.628)
(-0.627101 0 119.474)
(-0.681186 0 119.412)
(-0.666444 0 119.253)
(-0.676089 0 119.169)
(-0.716657 0 119.031)
(-0.771203 0 118.855)
(-0.82312 0 118.778)
(-0.618971 0 118.501)
(-0.38097 0 117.729)
(-0.312224 0 118.49)
(-0.19459 0 117.789)
(0.0559915 0 117.714)
(0.34823 0 116.986)
(0.42101 0 117.461)
(0.466256 0 117.517)
(0.600453 0 116.57)
(0.613494 0 116.761)
(0.515039 0 116.827)
(0.514629 0 116.383)
(0.803846 0 115.917)
(0.89804 0 116.106)
(0.90985 0 116.338)
(1.11351 0 115.736)
(1.22325 0 115.954)
(1.19869 0 116.063)
(1.15585 0 116.175)
(1.62848 0 115.995)
(1.94121 0 116.27)
(2.16656 0 116.386)
(2.57103 0 116.543)
(2.78413 0 116.887)
(2.91981 0 117.102)
(3.11163 0 117.32)
(3.31277 0 117.64)
(3.38369 0 117.924)
(3.26565 0 118.279)
(3.23414 0 118.565)
(3.15707 0 118.846)
(3.04902 0 119.159)
(2.87333 0 119.471)
(2.70044 0 119.779)
(2.59983 0 120.099)
(2.41 0 120.369)
(2.27124 0 120.649)
(2.19968 0 121.015)
(2.19572 0 121.243)
(1.7034 0 121.17)
(1.73602 0 121.906)
(1.29846 0 121.572)
(1.55831 0 122.303)
(1.26159 0 122.029)
(1.01731 0 122.386)
(0.485296 0 121.988)
(0.52462 0 122.661)
(0.701788 0 122.724)
(0.934805 0 122.928)
(0.178627 0 122.13)
(0.143845 0 123.158)
(-0.33489 0 122.278)
(-0.20471 0 122.756)
(-0.167042 0 122.672)
(-0.161287 0 122.475)
(-0.172651 0 122.468)
(-0.365329 0 122.198)
(-0.673421 0 121.908)
(-0.782828 0 121.788)
(-0.89546 0 121.699)
(-1.05929 0 121.505)
(-1.26876 0 121.108)
(-1.16427 0 120.69)
(-0.756705 0 120.562)
(-0.864141 0 121.053)
(-0.638775 0 120.465)
(0.0963967 0 120.219)
(0.711838 0 120.272)
(1.02121 0 120.349)
(1.62112 0 119.955)
(1.6265 0 120.587)
(1.55228 0 120.693)
(1.67819 0 120.498)
(1.98616 0 120.497)
(2.96933 0 120.576)
(3.55307 0 120.749)
(3.869 0 121.1)
(3.88281 0 121.33)
(3.74501 0 121.526)
(3.78127 0 121.73)
(4.1013 0 121.854)
(4.22629 0 122.3)
(4.34158 0 122.659)
(4.62471 0 123.278)
(4.57164 0 123.747)
(4.84478 0 124.546)
(4.61494 0 125.25)
(4.89522 0 126.015)
(4.81009 0 126.843)
(5.26735 0 127.387)
(5.30397 0 128.348)
(5.88767 0 128.793)
(6.36078 0 129.641)
(6.98813 0 130.201)
(7.49968 0 130.755)
(7.88537 0 131.392)
(8.77049 0 131.732)
(9.47279 0 132.297)
(10.0503 0 132.488)
(10.5408 0 132.982)
(11.3365 0 133.137)
(12.3248 0 133.456)
(13.6298 0 133.581)
(14.9855 0 133.821)
(16.5129 0 133.916)
(17.8538 0 134.006)
(19.21 0 133.977)
(20.2588 0 133.883)
(21.3165 0 133.669)
(22.0281 0 133.361)
(22.7831 0 132.945)
(23.2141 0 132.465)
(23.7457 0 131.859)
(24.0394 0 131.221)
(24.4908 0 130.424)
(24.7939 0 129.601)
(25.2482 0 128.614)
(25.6157 0 127.665)
(26.0777 0 126.522)
(26.4841 0 125.477)
(26.9003 0 124.21)
(27.2786 0 123.089)
(27.5584 0 121.73)
(27.7972 0 120.589)
(27.8528 0 119.208)
(27.8274 0 118.107)
(27.5924 0 116.776)
(27.2095 0 115.77)
(26.6917 0 114.518)
(25.9982 0 113.681)
(25.2367 0 112.523)
(24.3571 0 111.871)
(23.5041 0 110.929)
(22.8493 0 110.324)
(22.1074 0 109.835)
(21.7462 0 109.431)
(21.3164 0 109.057)
(21.5998 0 109.147)
(21.7175 0 108.408)
(22.8511 0 108.899)
(0 -0.048274 117.904)
(0 -0.0054608 118.201)
(0 0.0406184 118.154)
(0 0.0821078 118.138)
(0 0.0407315 117.916)
(0 0.061436 118.107)
(0 -0.00981974 117.984)
(0 -0.0788292 117.928)
(0 -0.212476 117.986)
(0 -0.377873 117.941)
(0 -0.513645 118.102)
(0 -0.540984 118.195)
(0 -0.461605 118.173)
(0 -0.508874 118.203)
(0 -0.658778 118.396)
(0 -0.717022 118.487)
(0 -0.515147 118.535)
(0 -0.473603 118.718)
(0 -0.274519 118.788)
(0 -0.0824077 118.884)
(0 0.169908 118.972)
(0 0.118 119.065)
(0 -0.224661 119.13)
(0 -0.436398 119.24)
(0 -0.335264 119.407)
(0 -0.272577 119.484)
(0 -0.223703 119.713)
(0 0.453375 119.342)
(0 0.450281 119.661)
(0 0.467372 119.859)
(0 0.669662 119.278)
(0 0.579454 119.592)
(0 0.681758 119.628)
(0 0.621482 119.474)
(0 0.579165 119.412)
(0 0.718817 119.253)
(0 0.772151 119.169)
(0 0.837172 119.031)
(0 0.915555 118.855)
(0 1.00993 118.778)
(0 0.982011 118.501)
(0 0.878269 117.729)
(0 0.873111 118.49)
(0 0.804885 117.789)
(0 0.748639 117.714)
(0 0.63912 116.986)
(0 0.59834 117.461)
(0 0.560213 117.517)
(0 0.358538 116.57)
(0 0.415358 116.761)
(0 0.50695 116.827)
(0 0.366313 116.383)
(0 -0.021704 115.917)
(0 -0.299439 116.106)
(0 -0.314305 116.338)
(0 -0.700094 115.736)
(0 -0.841118 115.954)
(0 -0.812352 116.063)
(0 -0.755616 116.175)
(0 -1.16054 115.995)
(0 -1.377 116.27)
(0 -1.58501 116.386)
(0 -1.71642 116.543)
(0 -1.81504 116.887)
(0 -1.79544 117.102)
(0 -1.6173 117.32)
(0 -1.52259 117.64)
(0 -1.48209 117.924)
(0 -1.37009 118.279)
(0 -1.14733 118.565)
(0 -0.954325 118.846)
(0 -0.833068 119.159)
(0 -0.736115 119.471)
(0 -0.691831 119.779)
(0 -0.629779 120.099)
(0 -0.486178 120.369)
(0 -0.470242 120.649)
(0 -0.533464 121.015)
(0 -0.5737 121.243)
(0 -0.283708 121.17)
(0 -0.452773 121.906)
(0 -0.237209 121.572)
(0 -0.39958 122.303)
(0 -0.201972 122.029)
(0 -0.130676 122.386)
(0 0.116275 121.988)
(0 0.044708 122.661)
(0 -0.0602545 122.724)
(0 -0.175609 122.928)
(0 -0.0304436 122.13)
(0 0.0173299 123.158)
(0 0.0709318 122.278)
(0 0.0425528 122.756)
(0 0.0380924 122.672)
(0 0.0325838 122.475)
(0 0.102319 122.468)
(0 0.289697 122.198)
(0 0.0496502 121.908)
(0 0.1567 121.788)
(0 0.235863 121.699)
(0 0.174346 121.505)
(0 -0.221891 121.108)
(0 -1.05591 120.69)
(0 -1.67875 120.562)
(0 -1.69003 121.053)
(0 -1.969 120.465)
(0 -2.45171 120.219)
(0 -2.76128 120.272)
(0 -2.93811 120.349)
(0 -3.16884 119.955)
(0 -3.31713 120.587)
(0 -3.35903 120.693)
(0 -3.3433 120.498)
(0 -3.33181 120.497)
(0 -3.64033 120.576)
(0 -3.82791 120.749)
(0 -3.93989 121.1)
(0 -3.97635 121.33)
(0 -3.93877 121.526)
(0 -3.83935 121.73)
(0 -4.09996 121.854)
(0 -4.43473 122.3)
(0 -5.07063 122.659)
(0 -6.31937 123.278)
(0 -7.04899 123.747)
(0 -7.83556 124.546)
(0 -8.05524 125.25)
(0 -9.39279 126.015)
(0 -9.76408 126.843)
(0 -11.0546 127.387)
(0 -11.4276 128.348)
(0 -12.4593 128.793)
(0 -13.2888 129.641)
(0 -14.1713 130.201)
(0 -14.9466 130.755)
(0 -15.4884 131.392)
(0 -16.4751 131.732)
(0 -17.3778 132.297)
(0 -18.0748 132.488)
(0 -18.7851 132.982)
(0 -19.5438 133.137)
(0 -20.4436 133.456)
(0 -21.3759 133.581)
(0 -22.4279 133.821)
(0 -23.4498 133.916)
(0 -24.4735 134.006)
(0 -25.3571 133.977)
(0 -26.1772 133.883)
(0 -26.855 133.669)
(0 -27.4464 133.361)
(0 -27.9134 132.945)
(0 -28.31 132.465)
(0 -28.6245 131.859)
(0 -28.9123 131.221)
(0 -29.1965 130.424)
(0 -29.5106 129.601)
(0 -29.8333 128.614)
(0 -30.228 127.665)
(0 -30.5951 126.522)
(0 -31.0215 125.477)
(0 -31.3204 124.21)
(0 -31.7076 123.089)
(0 -31.8932 121.73)
(0 -32.1553 120.589)
(0 -32.1311 119.208)
(0 -32.1418 118.107)
(0 -31.7546 116.776)
(0 -31.3795 115.77)
(0 -30.4807 114.518)
(0 -29.6374 113.681)
(0 -28.1932 112.523)
(0 -26.8873 111.871)
(0 -25.2451 110.929)
(0 -23.4064 110.324)
(0 -22.0251 109.835)
(0 -20.3502 109.431)
(0 -18.8129 109.057)
(0 -17.9276 109.147)
(0 -16.9091 108.408)
(0 -17.2269 108.899)
)
;
    }
    procBoundary1to0
    {
        type            processor;
        value           nonuniform List<vector> 
180
(
(-0.0458326 -0.0920293 117.774)
(-0.0513199 -0.0731944 118.113)
(-0.0579709 -0.0541262 118.13)
(-0.0497609 -0.0555614 118.068)
(-0.022313 -0.0825173 117.784)
(-0.0787407 -0.0946231 118.132)
(-0.10156 -0.113639 118.2)
(-0.0329356 -0.0891075 117.914)
(-0.0305699 -0.0929722 118.105)
(0.0118356 -0.139559 118.256)
(0.251778 -0.0709971 117.882)
(0.208663 -0.111201 118.196)
(0.327448 -0.0856616 117.967)
(0.344355 -0.120287 118.042)
(0.354888 -0.148067 118.022)
(0.354486 -0.153161 118.002)
(0.337174 -0.150196 118.026)
(0.656901 -0.0911455 117.667)
(0.654069 -0.156473 117.889)
(0.641911 -0.18695 117.923)
(0.711593 -0.135015 118.04)
(0.829628 -0.0328628 117.453)
(0.753352 -0.126973 117.89)
(0.733285 -0.119637 117.927)
(0.806923 -0.138014 117.818)
(0.791197 -0.136781 117.518)
(0.723373 -0.0890935 117.834)
(0.694741 -0.0817427 117.885)
(0.506406 -0.0668787 117.631)
(0.489573 -0.0919726 117.784)
(0.505126 -0.0680946 117.847)
(0.518584 -0.0647706 117.84)
(0.538192 -0.0221577 117.926)
(0.072938 0.0538715 117.649)
(0.026284 0.188103 117.9)
(-0.00232889 0.263703 117.946)
(-0.00792705 0.308562 117.997)
(-0.34149 0.248289 117.729)
(-0.471 0.28865 118.03)
(-0.553579 0.315923 118.033)
(-0.642349 0.394254 118.111)
(-0.642743 0.449475 118.11)
(-0.876765 0.326188 118.101)
(-1.12397 0.278622 118.118)
(-1.22683 0.213805 118.262)
(-1.37747 0.143746 118.231)
(-1.56093 0.0488438 118.324)
(-1.781 -0.023035 118.225)
(-1.788 -0.0671714 118.59)
(-1.77555 -0.142786 118.511)
(-1.77206 -0.221501 118.587)
(-1.78056 -0.487587 118.688)
(-1.77146 -0.663681 118.771)
(-1.7824 -0.820536 118.992)
(-1.70294 -0.911422 119.025)
(-1.54903 -1.0594 119.208)
(-1.09709 -1.02532 119.286)
(-0.869723 -0.986261 119.431)
(-0.739095 -0.989094 119.484)
(-0.715849 -1.09974 119.724)
(-0.335787 -0.792758 119.412)
(-0.364159 -0.962047 119.993)
(-0.151005 -0.801444 119.601)
(-0.15918 -0.851339 119.91)
(0.0422781 -0.643819 119.632)
(0.285617 -0.445255 119.576)
(0.674702 0.00895468 119.218)
(0.700694 -0.0174312 119.419)
(0.648727 -0.157935 119.292)
(0.566277 -0.333333 119.048)
(0.613357 -0.335418 119.03)
(1.01413 0.274571 118.703)
(1.31295 0.614075 118.289)
(1.26028 0.809432 117.952)
(1.27391 0.782334 118.144)
(1.35999 0.728592 118.075)
(1.13454 0.687277 117.312)
(0.799069 0.749439 117.215)
(0.210284 0.897286 116.537)
(0.20069 0.78166 117.016)
(0.307087 0.731765 116.837)
(0.335992 0.773107 116.544)
(-0.0425144 0.925139 116.048)
(-0.521695 1.01583 116)
(-0.931108 1.13114 115.819)
(-1.50337 1.39876 115.443)
(-1.60241 1.48789 115.775)
(-1.81558 1.51432 115.428)
(-2.1533 1.16765 115.229)
(-2.3699 0.65532 115.195)
(-2.51862 0.0442578 115.247)
(-2.50325 -0.49773 115.31)
(-2.582 -1.02282 115.397)
(-2.52792 -1.49675 115.588)
(-2.53713 -1.87418 115.763)
(-2.5663 -2.18573 116.008)
(-2.58376 -2.47033 116.259)
(-2.57103 -2.71187 116.578)
(-2.55252 -2.95076 116.897)
(-2.54374 -3.13011 117.252)
(-2.48552 -3.30198 117.639)
(-2.43386 -3.43534 117.998)
(-2.36635 -3.57263 118.436)
(-2.23507 -3.6744 118.818)
(-2.17949 -3.83536 119.195)
(-2.06721 -3.83047 119.57)
(-2.0288 -3.83013 119.914)
(-1.97352 -3.91316 120.314)
(-1.7721 -3.96145 120.659)
(-1.4318 -3.9565 120.645)
(-1.46748 -4.05634 121.205)
(-1.48325 -4.09061 121.489)
(-1.2812 -4.08785 121.556)
(-0.896922 -4.0456 121.508)
(-0.793414 -4.07385 122.081)
(-0.836654 -4.12862 122.225)
(-0.958736 -4.18448 122.408)
(-0.287202 -4.1411 121.997)
(0.134627 -4.13447 122.287)
(0.480237 -4.22845 122.092)
(0.376103 -4.25651 122.312)
(0.331619 -4.25706 122.494)
(0.520399 -4.61081 121.624)
(0.557283 -4.56268 122.118)
(0.638766 -4.49771 122.207)
(0.49378 -4.71783 121.96)
(0.182644 -5.10722 121.727)
(-0.701161 -5.52073 121.872)
(-1.37534 -5.74626 122.126)
(-2.06501 -5.67788 121.918)
(-2.08989 -5.71026 122.655)
(-2.09686 -5.67343 122.944)
(-2.4621 -5.18844 122.465)
(-2.30738 -5.07549 123.011)
(-2.21343 -5.04762 123.252)
(-2.46344 -4.67998 122.693)
(-2.49272 -4.37194 123.088)
(-2.56408 -4.17784 122.659)
(-2.66139 -3.96458 122.618)
(-2.81786 -3.57241 122.189)
(-3.18181 -3.04835 121.959)
(-3.85394 -2.34382 121.422)
(-4.92791 -1.66766 121.037)
(-6.39484 -0.883321 120.318)
(-8.3174 -0.202453 119.792)
(-10.5129 0.51538 119.034)
(-12.838 1.08839 118.41)
(-15.2218 1.62163 117.711)
(-17.4953 2.01334 117.055)
(-19.5299 2.30312 116.445)
(-21.2581 2.50723 115.801)
(-22.7851 2.59583 115.235)
(-24.2172 2.66677 114.614)
(-25.7257 2.62283 114.055)
(-27.3387 2.56261 113.483)
(-29.1061 2.39159 112.942)
(-30.9063 2.14012 112.449)
(-32.7312 1.81551 111.97)
(-34.3934 1.37865 111.561)
(-35.9247 0.924327 111.171)
(-37.1616 0.368596 110.847)
(-38.1938 -0.166162 110.528)
(-38.8877 -0.792346 110.307)
(-39.3903 -1.37175 110.03)
(-39.5575 -2.09516 109.933)
(-39.5679 -2.6387 109.716)
(-39.3131 -3.32595 109.725)
(-38.9003 -3.87978 109.571)
(-38.3396 -4.38369 109.654)
(-37.6077 -4.98094 109.637)
(-36.9168 -5.28149 109.75)
(-36.2408 -5.48129 109.761)
(-35.6016 -5.80376 110.051)
(-34.7705 -5.4709 109.99)
(-33.7345 -5.32858 110.238)
(-33.0368 -5.13925 110.135)
(-31.9796 -5.54087 110.47)
(-31.1762 -5.95374 110.539)
(-30.444 -6.30249 110.545)
(-29.8474 -6.38595 110.511)
)
;
    }
    procBoundary1to3
    {
        type            processor;
        value           nonuniform List<vector> 
180
(
(0.00121726 -0.052426 117.197)
(0.0199897 -0.00926677 117.718)
(0.0408033 0.0374002 117.659)
(0.0583162 0.0793182 117.598)
(0.0606517 0.11358 117.525)
(0.0393285 0.127226 117.611)
(0.0300069 0.100913 117.531)
(0.0150602 0.102233 117.604)
(0.0096461 0.0824257 117.722)
(-0.00425862 -0.0882919 117.396)
(0.00875703 -0.113282 117.571)
(7.95923e-05 -0.152877 117.563)
(0.0108864 -0.146587 117.504)
(0.0368024 -0.134866 117.421)
(-0.00187451 -0.223488 117.41)
(-0.0522975 -0.280977 117.346)
(-0.096552 -0.398782 117.255)
(-0.161656 -0.485345 117.194)
(-0.232138 -0.571858 117.384)
(-0.0897977 -0.844699 116.595)
(-0.10999 -0.927073 117.29)
(0.116391 -0.858498 116.643)
(-0.0592212 -1.09965 116.925)
(-0.220732 -1.27791 116.927)
(0.0213064 -1.07012 116.646)
(0.249832 -0.756777 116.395)
(0.450433 -0.377301 116.58)
(0.41095 -0.388647 116.775)
(0.318293 -0.368856 116.628)
(0.284015 -0.271941 116.674)
(0.373691 -0.108868 116.573)
(0.335375 -0.0865935 116.9)
(0.274154 0.0108841 116.833)
(0.153596 0.274574 116.895)
(0.20807 0.557566 116.937)
(0.244728 0.801924 117.084)
(0.288514 0.92572 117.153)
(0.270886 1.07723 117.281)
(0.375137 1.20879 117.418)
(0.322103 1.35556 117.581)
(0.329912 1.4909 117.735)
(0.32105 1.70491 117.889)
(0.371139 1.86389 118.104)
(0.385278 1.91109 118.268)
(0.369497 1.90704 118.461)
(0.366158 1.91005 118.645)
(0.399079 1.95737 118.856)
(0.444136 1.95723 118.975)
(0.618645 2.01038 119.262)
(0.615816 1.89164 119.315)
(0.700023 1.9284 119.654)
(0.686166 1.81486 119.852)
(0.567022 1.54316 119.86)
(0.690541 1.50866 120.276)
(0.51387 1.31785 120.25)
(0.324453 0.928079 120.432)
(-0.0752044 0.368029 120.345)
(-0.275266 0.13691 120.586)
(-0.384478 -0.0868496 120.341)
(-0.376066 -0.227667 120.413)
(-0.226566 -0.177758 120.585)
(-0.150465 -0.212451 120.474)
(-0.12832 -0.265868 120.524)
(-0.203532 -0.468951 120.022)
(-0.241645 -0.462913 120.359)
(-0.299054 -0.485291 120.4)
(-0.293207 -0.624725 120.077)
(-0.281325 -0.75553 119.641)
(-0.162626 -0.755438 120.044)
(-0.0926834 -0.795019 119.962)
(-0.102084 -0.920445 119.805)
(-0.180133 -1.03824 119.906)
(-0.274763 -1.08917 119.178)
(-0.377011 -1.25374 119.794)
(-0.425645 -1.21554 119.24)
(-0.498896 -1.41704 119.437)
(-0.471552 -1.37851 119.114)
(-0.370548 -1.29163 118.739)
(-0.352279 -1.35893 119.041)
(-0.343031 -1.34951 118.726)
(-0.34569 -1.41974 118.504)
(-0.464169 -1.48593 118.313)
(-0.517436 -1.61166 118.145)
(-0.635689 -1.70483 117.893)
(-0.738418 -1.8413 117.655)
(-0.866505 -2.06557 117.351)
(-0.988334 -2.24087 117.053)
(-1.1546 -2.3655 116.692)
(-1.10773 -2.29976 116.336)
(-1.11981 -2.34751 116.014)
(-0.656926 -2.1273 115.569)
(-0.537516 -2.06053 115.484)
(0.377293 -1.51577 114.954)
(0.760464 -1.32531 115.034)
(1.84482 -0.723291 114.712)
(2.75657 -0.176684 114.452)
(2.976 0.0829372 114.769)
(3.09386 0.216823 114.782)
(3.22074 0.261622 114.71)
(3.23561 0.29485 114.698)
(3.26832 0.436495 114.6)
(3.23799 0.526032 114.82)
(4.19754 1.03038 114.353)
(4.13955 1.06628 114.835)
(4.61908 1.26233 114.597)
(5.38608 1.68929 114.551)
(6.19668 1.96829 114.747)
(6.90083 2.0709 114.781)
(7.13604 2.10935 115.154)
(7.34133 2.08715 115.212)
(7.48403 2.22691 115.367)
(7.77016 2.43404 115.621)
(7.95241 2.55341 115.9)
(8.19548 2.5883 116.211)
(8.33664 2.77261 116.472)
(8.48052 2.9451 116.912)
(8.40631 3.1258 117.175)
(8.21123 3.25764 117.611)
(7.80477 3.25452 117.894)
(7.27171 3.00754 118.302)
(6.54562 2.54241 118.489)
(5.71761 1.80148 118.719)
(4.73718 0.896703 118.666)
(3.71121 -0.00600889 118.574)
(2.61306 -0.819078 118.18)
(1.54087 -1.4058 117.758)
(0.444081 -1.79241 117.134)
(-0.569939 -1.70804 116.472)
(-1.58038 -1.31548 115.654)
(-2.49268 -0.384387 114.791)
(-3.40345 0.828291 113.894)
(-4.14747 2.52957 112.934)
(-4.82276 4.41249 112.052)
(-5.31095 6.7141 111.047)
(-5.68157 8.9712 110.283)
(-5.8949 11.503 109.322)
(-5.93876 13.9357 108.777)
(-5.86939 16.4224 107.89)
(-5.54703 18.6565 107.593)
(-5.22744 20.7906 106.796)
(-4.58297 22.7224 106.775)
(-4.11546 24.5407 106.046)
(-3.20361 26.3178 106.268)
(-2.64304 27.9436 105.6)
(-1.51566 29.7241 106.023)
(-0.860226 31.1507 105.444)
(0.408065 32.9698 106.009)
(1.20933 34.1349 105.599)
(2.50301 35.945 106.203)
(3.53064 36.9206 106.068)
(4.73717 38.4157 106.635)
(5.85238 39.2265 106.779)
(7.19197 40.6119 107.226)
(8.2176 41.0818 107.699)
(9.8263 42.5919 107.982)
(10.935 42.8538 108.677)
(11.8707 43.3398 109.002)
(13.0052 43.7301 109.425)
(14.1077 43.9775 109.954)
(14.9962 44.3406 110.182)
(16.2464 44.7877 110.714)
(17.48 45.2061 111.012)
(18.7894 45.483 111.398)
(20.0924 45.4428 111.977)
(21.2221 45.2054 112.139)
(22.2651 44.448 113.036)
(22.9739 43.4853 112.952)
(23.7027 41.9707 114.105)
(24.098 40.0609 113.77)
(24.4877 37.7781 115.054)
(24.617 34.792 114.622)
(24.8216 31.6888 115.783)
(24.9522 27.8964 115.339)
(25.1174 23.8314 116.142)
(25.6581 20.0749 115.879)
(26.0444 14.6756 115.846)
(26.695 14.3241 116.227)
(27.3114 14.2202 116.361)
(28.1029 14.3562 116.462)
(28.5482 14.5833 116.845)
)
;
    }
}


// ************************************************************************* //
