/*--------------------------------*- C++ -*----------------------------------*\
| =========                 |                                                 |
| \\      /  F ield         | OpenFOAM: The Open Source CFD Toolbox           |
|  \\    /   O peration     | Version:  5.x                                   |
|   \\  /    A nd           | Web:      www.OpenFOAM.org                      |
|    \\/     M anipulation  |                                                 |
\*---------------------------------------------------------------------------*/
FoamFile
{
    version     2.0;
    format      ascii;
    class       surfaceScalarField;
    location    "200";
    object      phi;
}
// * * * * * * * * * * * * * * * * * * * * * * * * * * * * * * * * * * * * * //

dimensions      [0 3 -1 0 0 0 0];

internalField   nonuniform List<scalar> 
89
(
-0.025
-0.025
-0.025
-0.025
-0.0249999
-0.0249999
-0.0249998
-0.0249998
-0.0249997
-0.0249996
-0.0249995
-0.0249994
-0.0249992
-0.0249989
-0.0249985
-0.024998
-0.0249974
-0.0249965
-0.0249953
-0.0249936
-0.0249914
-0.0249883
-0.0249842
-0.0249788
-0.0249715
-0.0249616
-0.0249483
-0.0249302
-0.0249059
-0.024873
-0.0248287
-0.0247689
-0.0246883
-0.0245796
-0.024433
-0.0242365
-0.0239727
-0.0236195
-0.0230597
-0.0232185
-0.0231845
-0.0228982
-0.0225453
-0.022402
-0.0226999
-0.0229366
-0.0228081
-0.0225339
-0.0224487
-0.0226518
-0.023109
-0.0230927
-0.0229346
-0.0232992
-0.0237652
-0.0241064
-0.0243546
-0.0245355
-0.0246671
-0.0247627
-0.0248318
-0.0248816
-0.0249174
-0.0249429
-0.0249614
-0.0249744
-0.0249834
-0.0249895
-0.0249937
-0.0249966
-0.0249985
-0.0249997
-0.0250004
-0.0250009
-0.0250011
-0.0250013
-0.0250013
-0.0250013
-0.0250012
-0.0250011
-0.025001
-0.0250009
-0.0250009
-0.0250007
-0.0250006
-0.0250005
-0.0250004
-0.0250003
-0.0250002
)
;

boundaryField
{
    inlet
    {
        type            calculated;
        value           uniform -0.0250001;
    }
    outlet
    {
        type            calculated;
        value           uniform 0.025;
    }
    repeat_boundary
    {
        type            calculated;
        value           uniform 0;
    }
    procBoundary3to1
    {
        type            processor;
        value           nonuniform List<scalar> 
90
(
7.84223e-09
2.00439e-08
3.26027e-08
4.50698e-08
5.75679e-08
7.03587e-08
8.37097e-08
9.80208e-08
1.13934e-07
1.32239e-07
1.53817e-07
1.7956e-07
2.10273e-07
2.46528e-07
2.88474e-07
3.35553e-07
3.8607e-07
4.36434e-07
4.79536e-07
5.03669e-07
5.09381e-07
4.95244e-07
4.46716e-07
3.43842e-07
1.71558e-07
-2.3459e-07
-9.40452e-07
-2.00262e-06
-3.59089e-06
-5.92843e-06
-9.32175e-06
-1.41927e-05
-2.11218e-05
-3.09119e-05
-4.47029e-05
-6.34904e-05
-8.97629e-05
-0.000126253
-0.000207949
5.65191e-05
-1.74016e-05
-7.67294e-05
-0.000121872
-9.99732e-05
0.000105068
6.49476e-06
-0.000296794
-0.000454882
-0.000179542
1.55002e-05
0.000172185
3.54707e-05
-0.000111816
0.000187656
0.000295456
0.000229723
0.0001717
0.000128308
9.58719e-05
7.15969e-05
5.34377e-05
3.98585e-05
2.97064e-05
2.21193e-05
1.64518e-05
1.22314e-05
9.08981e-06
6.74957e-06
5.00658e-06
3.70856e-06
2.7424e-06
2.02409e-06
1.49064e-06
1.09533e-06
8.03263e-07
5.88145e-07
4.30299e-07
3.14875e-07
2.30424e-07
1.68562e-07
1.23185e-07
8.88217e-08
6.27619e-08
4.21645e-08
2.58082e-08
1.4346e-08
5.29037e-09
-1.40202e-09
-5.53225e-09
-7.86918e-09
)
;
    }
    procBoundary3to2
    {
        type            processor;
        value           nonuniform List<scalar> 
90
(
-4.92871e-09
-1.13686e-08
-1.98084e-08
-3.08014e-08
-4.52885e-08
-6.42522e-08
-8.87007e-08
-1.19751e-07
-1.58662e-07
-2.06972e-07
-2.6663e-07
-3.40173e-07
-4.30958e-07
-5.43456e-07
-6.83615e-07
-8.59321e-07
-1.08098e-06
-1.36226e-06
-1.72107e-06
-2.18086e-06
-2.77245e-06
-3.53576e-06
-4.52236e-06
-5.79909e-06
-7.45289e-06
-9.59672e-06
-1.23815e-05
-1.60064e-05
-2.0733e-05
-2.69066e-05
-3.49835e-05
-4.55677e-05
-5.94614e-05
-7.77432e-05
-0.000101947
-0.000132973
-0.000174069
-0.000227072
-0.000351849
0.00010218
-1.66274e-05
-0.000209512
-0.000231064
-4.33425e-05
0.000192885
0.000230175
0.000168217
0.000180659
9.44128e-05
0.00018758
0.000285076
-5.16699e-05
-4.6129e-05
0.00017681
0.000170441
0.000111413
7.65055e-05
5.26071e-05
3.57778e-05
2.39212e-05
1.56191e-05
9.86903e-06
5.95879e-06
3.41621e-06
1.96873e-06
7.50556e-07
-1.3774e-07
-5.63129e-07
-7.84358e-07
-8.48783e-07
-8.509e-07
-8.10255e-07
-7.39242e-07
-6.58587e-07
-5.78288e-07
-5.01189e-07
-4.29958e-07
-3.66029e-07
-3.09992e-07
-2.61891e-07
-2.21419e-07
-1.87977e-07
-1.60595e-07
-1.38594e-07
-1.21577e-07
-1.08882e-07
-9.9718e-08
-9.32234e-08
-8.81849e-08
-8.50754e-08
)
;
    }
}


// ************************************************************************* //
