/*--------------------------------*- C++ -*----------------------------------*\
| =========                 |                                                 |
| \\      /  F ield         | OpenFOAM: The Open Source CFD Toolbox           |
|  \\    /   O peration     | Version:  5.x                                   |
|   \\  /    A nd           | Web:      www.OpenFOAM.org                      |
|    \\/     M anipulation  |                                                 |
\*---------------------------------------------------------------------------*/
FoamFile
{
    version     2.0;
    format      ascii;
    class       surfaceScalarField;
    location    "800";
    object      phi;
}
// * * * * * * * * * * * * * * * * * * * * * * * * * * * * * * * * * * * * * //

dimensions      [0 3 -1 0 0 0 0];

internalField   nonuniform List<scalar> 
89
(
-108.369
-107.901
-107.442
-106.983
-106.53
-106.08
-105.632
-105.191
-104.758
-104.336
-103.926
-103.528
-103.137
-102.749
-102.371
-102
-101.628
-101.256
-100.891
-100.53
-100.166
-99.804
-99.4436
-99.0859
-98.731
-98.3793
-98.0307
-97.6851
-97.3425
-97.0025
-96.665
-96.3297
-95.9963
-95.6646
-95.3343
-95.0052
-94.677
-94.3496
-94.0227
-93.6963
-93.3702
-93.0443
-92.7184
-92.3926
-92.0666
-91.7405
-91.4143
-91.0877
-90.7609
-90.4338
-90.1063
-89.7784
-89.45
-89.1212
-88.7918
-88.462
-88.1315
-87.8004
-87.4687
-87.1362
-86.8031
-86.4691
-86.1344
-85.7989
-85.4625
-85.1252
-84.787
-84.448
-84.108
-83.7672
-83.4255
-83.083
-82.7398
-82.3959
-82.0515
-81.7067
-81.3621
-81.0178
-80.6741
-80.3313
-79.9896
-79.6493
-79.3105
-78.9736
-78.6384
-78.3047
-77.9728
-77.6442
-77.3261
)
;

boundaryField
{
    inlet
    {
        type            calculated;
        value           uniform -77.0132;
    }
    outlet
    {
        type            calculated;
        value           uniform 108.83;
    }
    repeat_boundary
    {
        type            calculated;
        value           uniform 0;
    }
    procBoundary1to0
    {
        type            processor;
        value           nonuniform List<scalar> 
90
(
-0.331185
-0.339133
-0.34271
-0.35195
-0.355273
-0.364585
-0.372132
-0.378052
-0.380242
-0.379837
-0.378346
-0.378236
-0.380649
-0.387698
-0.388489
-0.389952
-0.400897
-0.409236
-0.410417
-0.413881
-0.424157
-0.428806
-0.433372
-0.436428
-0.438726
-0.440327
-0.441421
-0.442173
-0.442689
-0.443064
-0.443371
-0.443665
-0.443992
-0.444385
-0.444868
-0.44546
-0.446173
-0.447015
-0.44799
-0.4491
-0.450345
-0.451722
-0.453229
-0.454861
-0.456615
-0.458485
-0.460467
-0.462554
-0.464742
-0.467025
-0.469399
-0.471856
-0.474393
-0.477003
-0.479681
-0.482422
-0.485219
-0.488069
-0.490966
-0.493905
-0.49688
-0.499889
-0.502925
-0.505986
-0.509067
-0.512166
-0.51528
-0.518407
-0.521544
-0.524693
-0.527852
-0.531023
-0.534207
-0.537407
-0.540628
-0.54388
-0.547167
-0.550494
-0.553861
-0.557273
-0.560734
-0.564242
-0.567809
-0.571469
-0.575314
-0.579503
-0.583718
-0.587647
-0.583074
-0.579852
)
;
    }
    procBoundary1to3
    {
        type            processor;
        value           nonuniform List<scalar> 
90
(
-0.129266
-0.128869
-0.11614
-0.107913
-0.0968248
-0.0862902
-0.0750019
-0.0638644
-0.0527512
-0.0418611
-0.0311427
-0.0206222
-0.0101679
0.000223471
0.0101632
0.0195205
0.0286109
0.0372884
0.0453222
0.0528671
0.0600651
0.0667773
0.0729962
0.0786876
0.0838715
0.0885696
0.0928076
0.0966208
0.100045
0.103117
0.105876
0.108362
0.110613
0.112667
0.11456
0.116325
0.117994
0.119595
0.121154
0.122693
0.124232
0.125788
0.127373
0.128999
0.130674
0.132401
0.134186
0.136028
0.137927
0.139882
0.141889
0.143943
0.146041
0.148176
0.150344
0.152538
0.154753
0.156983
0.159223
0.161469
0.163717
0.165962
0.168204
0.17044
0.17267
0.174897
0.177123
0.179353
0.181596
0.183862
0.186168
0.18853
0.190966
0.1935
0.196192
0.19916
0.202497
0.206187
0.210193
0.214489
0.219061
0.22391
0.229052
0.234486
0.240129
0.245804
0.251831
0.259081
0.264951
0.266933
)
;
    }
}


// ************************************************************************* //
