/*--------------------------------*- C++ -*----------------------------------*\
| =========                 |                                                 |
| \\      /  F ield         | OpenFOAM: The Open Source CFD Toolbox           |
|  \\    /   O peration     | Version:  5.x                                   |
|   \\  /    A nd           | Web:      www.OpenFOAM.org                      |
|    \\/     M anipulation  |                                                 |
\*---------------------------------------------------------------------------*/
FoamFile
{
    version     2.0;
    format      ascii;
    class       volVectorField;
    location    "0.006";
    object      stored_U;
}
// * * * * * * * * * * * * * * * * * * * * * * * * * * * * * * * * * * * * * //

dimensions      [0 1 -1 0 0 0 0];

internalField   nonuniform List<vector> 
180
(
(8.80038e-10 -8.13114e-09 -0.000999984)
(1.06095e-09 -1.06261e-08 -0.000999983)
(1.29278e-09 -1.48467e-08 -0.000999981)
(1.6007e-09 -2.00354e-08 -0.000999979)
(1.96193e-09 -2.57814e-08 -0.000999977)
(2.34881e-09 -3.19324e-08 -0.000999974)
(2.74345e-09 -3.8473e-08 -0.00099997)
(3.13892e-09 -4.54453e-08 -0.000999966)
(3.53415e-09 -5.29141e-08 -0.000999961)
(3.93107e-09 -6.09542e-08 -0.000999955)
(4.33328e-09 -6.96469e-08 -0.000999948)
(4.74577e-09 -7.90793e-08 -0.000999941)
(5.17486e-09 -8.9345e-08 -0.000999932)
(5.62827e-09 -1.00545e-07 -0.000999923)
(6.1152e-09 -1.12788e-07 -0.000999912)
(6.64649e-09 -1.26194e-07 -0.0009999)
(7.23473e-09 -1.40891e-07 -0.000999887)
(7.8944e-09 -1.5702e-07 -0.000999873)
(8.64205e-09 -1.74737e-07 -0.000999857)
(9.49648e-09 -1.9421e-07 -0.000999839)
(1.0479e-08 -2.15625e-07 -0.00099982)
(1.16136e-08 -2.39187e-07 -0.000999798)
(1.29272e-08 -2.65122e-07 -0.000999774)
(1.44503e-08 -2.93675e-07 -0.000999748)
(1.62169e-08 -3.2512e-07 -0.000999719)
(1.82652e-08 -3.59758e-07 -0.000999687)
(2.06384e-08 -3.97919e-07 -0.000999652)
(2.33848e-08 -4.39967e-07 -0.000999613)
(2.6559e-08 -4.86304e-07 -0.00099957)
(3.02223e-08 -5.37371e-07 -0.000999522)
(3.4444e-08 -5.93655e-07 -0.00099947)
(3.93024e-08 -6.55691e-07 -0.000999413)
(4.4886e-08 -7.24068e-07 -0.00099935)
(5.12949e-08 -7.99432e-07 -0.00099928)
(5.86427e-08 -8.82496e-07 -0.000999204)
(6.70586e-08 -9.74042e-07 -0.000999119)
(7.66893e-08 -1.07493e-06 -0.000999027)
(8.77019e-08 -1.1861e-06 -0.000998925)
(1.00287e-07 -1.30859e-06 -0.000998813)
(1.1466e-07 -1.44353e-06 -0.00099869)
(1.31068e-07 -1.59217e-06 -0.000998555)
(1.49792e-07 -1.75588e-06 -0.000998407)
(1.71153e-07 -1.93616e-06 -0.000998244)
(1.95515e-07 -2.13463e-06 -0.000998066)
(2.23295e-07 -2.35311e-06 -0.000997871)
(2.54965e-07 -2.59356e-06 -0.000997656)
(2.91066e-07 -2.85814e-06 -0.000997421)
(3.32206e-07 -3.1492e-06 -0.000997164)
(3.79081e-07 -3.46934e-06 -0.000996882)
(4.32474e-07 -3.82138e-06 -0.000996573)
(4.93272e-07 -4.20844e-06 -0.000996235)
(5.62475e-07 -4.63392e-06 -0.000995865)
(6.4121e-07 -5.10155e-06 -0.000995459)
(7.30745e-07 -5.61543e-06 -0.000995015)
(8.32506e-07 -6.18004e-06 -0.000994529)
(9.4809e-07 -6.80029e-06 -0.000993997)
(1.07928e-06 -7.48158e-06 -0.000993414)
(1.22807e-06 -8.22979e-06 -0.000992775)
(1.39667e-06 -9.05151e-06 -0.000992075)
(1.58751e-06 -9.954e-06 -0.000991307)
(1.8033e-06 -1.09453e-05 -0.000990463)
(2.04698e-06 -1.20343e-05 -0.000989536)
(2.32175e-06 -1.3231e-05 -0.000988516)
(2.63109e-06 -1.45465e-05 -0.000987392)
(2.97871e-06 -1.59931e-05 -0.00098615)
(3.36842e-06 -1.75854e-05 -0.000984774)
(3.80415e-06 -1.93393e-05 -0.000983245)
(4.28981e-06 -2.12732e-05 -0.00098154)
(4.82917e-06 -2.34079e-05 -0.000979633)
(5.4257e-06 -2.57674e-05 -0.000977492)
(6.0822e-06 -2.83786e-05 -0.000975084)
(6.80009e-06 -3.127e-05 -0.00097236)
(7.57749e-06 -3.44654e-05 -0.000969219)
(8.40467e-06 -3.79589e-05 -0.000965519)
(9.2564e-06 -4.16416e-05 -0.000961518)
(1.00851e-05 -4.51291e-05 -0.000958845)
(1.07921e-05 -4.74623e-05 -0.000958543)
(1.11746e-05 -4.698e-05 -0.000945137)
(1.03346e-05 -4.14302e-05 -0.000881029)
(5.8157e-06 -3.02291e-05 -0.000682266)
(1.59178e-07 -7.19076e-06 -0.003139)
(3.95879e-05 7.75264e-06 6.98361e-05)
(0.000188671 3.79583e-05 -0.00385898)
(3.99675e-05 8.41941e-06 -0.000129837)
(-0.000431267 -0.00025376 -0.00298958)
(-0.000541892 -0.000307036 -0.0026131)
(-9.4745e-05 -8.51329e-05 -0.000861102)
(-0.000115612 -0.000157639 -0.00471678)
(-1.17555e-05 -1.4253e-05 -0.000700226)
(0.000283114 0.000243484 -0.00389932)
(0.000333326 0.000543032 -0.00223504)
(0.000124866 0.000879461 -0.00306909)
(1.69189e-05 0.000127501 -0.00046114)
(-0.000183099 0.00129157 -0.00306344)
(-0.000177891 0.000417255 -0.00310098)
(-7.08916e-05 1.19108e-05 -0.00110796)
(-0.000479016 -0.001051 -0.00370231)
(-7.28033e-05 -6.37472e-05 -0.000715911)
(-0.000182366 -0.000393728 -0.00376586)
(-9.6308e-05 -0.000151404 -0.00172032)
(-0.000238871 -0.000183072 -0.00300889)
(-0.000124748 -8.42201e-05 -0.00246661)
(-2.27396e-05 -3.50085e-05 -0.00165715)
(-1.34897e-06 1.4683e-05 -0.00175197)
(-2.53867e-06 -2.6316e-05 -0.000810064)
(5.64651e-05 -5.58267e-06 -0.000974803)
(8.40392e-05 1.31731e-06 -0.000883981)
(9.38618e-05 4.10208e-06 -0.00088449)
(9.26951e-05 4.25624e-06 -0.00089939)
(8.66552e-05 3.66905e-06 -0.000911035)
(7.92079e-05 3.07438e-06 -0.000919673)
(7.18008e-05 2.58897e-06 -0.00092724)
(6.49073e-05 2.19029e-06 -0.00093422)
(5.86284e-05 1.85381e-06 -0.000940587)
(5.29465e-05 1.56574e-06 -0.000946342)
(4.7814e-05 1.31784e-06 -0.000951538)
(4.31797e-05 1.1043e-06 -0.000956234)
(3.89955e-05 9.20571e-07 -0.000960477)
(3.52175e-05 7.6282e-07 -0.000964311)
(3.18062e-05 6.27708e-07 -0.000967774)
(2.87258e-05 5.12298e-07 -0.000970903)
(2.59443e-05 4.14003e-07 -0.000973729)
(2.34324e-05 3.30546e-07 -0.000976282)
(2.11641e-05 2.59922e-07 -0.000978587)
(1.91156e-05 2.0038e-07 -0.000980668)
(1.72657e-05 1.5037e-07 -0.000982548)
(1.55951e-05 1.08552e-07 -0.000984244)
(1.40864e-05 7.37441e-08 -0.000985776)
(1.27239e-05 4.49158e-08 -0.000987159)
(1.14934e-05 2.11666e-08 -0.000988407)
(1.0382e-05 1.70834e-09 -0.000989534)
(9.378e-06 -1.41545e-08 -0.00099055)
(8.47089e-06 -2.70349e-08 -0.000991468)
(7.6513e-06 -3.74079e-08 -0.000992296)
(6.91078e-06 -4.56079e-08 -0.000993045)
(6.24171e-06 -5.19362e-08 -0.000993721)
(5.63722e-06 -5.66652e-08 -0.000994331)
(5.09108e-06 -6.00392e-08 -0.000994883)
(4.59768e-06 -6.22763e-08 -0.000995381)
(4.15193e-06 -6.35702e-08 -0.00099583)
(3.74924e-06 -6.4094e-08 -0.000996236)
(3.38546e-06 -6.39998e-08 -0.000996602)
(3.05687e-06 -6.33506e-08 -0.000996934)
(2.76011e-06 -6.21847e-08 -0.000997233)
(2.49214e-06 -6.05764e-08 -0.000997504)
(2.25017e-06 -5.86092e-08 -0.000997748)
(2.03171e-06 -5.63655e-08 -0.000997968)
(1.83447e-06 -5.39197e-08 -0.000998167)
(1.65641e-06 -5.13374e-08 -0.000998346)
(1.49567e-06 -4.86751e-08 -0.000998508)
(1.35057e-06 -4.59799e-08 -0.000998654)
(1.21961e-06 -4.32907e-08 -0.000998785)
(1.10141e-06 -4.06394e-08 -0.000998904)
(9.94741e-07 -3.80511e-08 -0.000999011)
(8.98484e-07 -3.55458e-08 -0.000999108)
(8.11633e-07 -3.31388e-08 -0.000999195)
(7.33279e-07 -3.08414e-08 -0.000999274)
(6.62602e-07 -2.86615e-08 -0.000999345)
(5.98863e-07 -2.66043e-08 -0.000999409)
(5.41393e-07 -2.46727e-08 -0.000999467)
(4.89591e-07 -2.28673e-08 -0.000999519)
(4.42915e-07 -2.11871e-08 -0.000999567)
(4.00876e-07 -1.96297e-08 -0.000999609)
(3.63036e-07 -1.81911e-08 -0.000999648)
(3.28998e-07 -1.68667e-08 -0.000999684)
(2.98409e-07 -1.56505e-08 -0.000999716)
(2.7095e-07 -1.45363e-08 -0.000999745)
(2.46336e-07 -1.35169e-08 -0.000999771)
(2.24312e-07 -1.25851e-08 -0.000999796)
(2.04649e-07 -1.17334e-08 -0.000999818)
(1.87144e-07 -1.09539e-08 -0.000999838)
(1.71618e-07 -1.0239e-08 -0.000999857)
(1.57909e-07 -9.58107e-09 -0.000999874)
(1.45879e-07 -8.97213e-09 -0.000999891)
(1.35405e-07 -8.40384e-09 -0.000999906)
(1.26386e-07 -7.86745e-09 -0.00099992)
(1.18749e-07 -7.35658e-09 -0.000999933)
(1.12497e-07 -6.86963e-09 -0.000999946)
(1.07787e-07 -6.46919e-09 -0.000999959)
(1.05021e-07 -6.40287e-09 -0.00099997)
)
;

boundaryField
{
    inlet
    {
        type            calculated;
        value           uniform (1.05021e-07 -6.40287e-09 -0.00099997);
    }
    outlet
    {
        type            calculated;
        value           uniform (8.80038e-10 -8.13114e-09 -0.000999984);
    }
    repeat_boundary
    {
        type            calculated;
        value           nonuniform List<vector> 
360
(
(8.80038e-10 0 -0.000999984)
(1.06095e-09 0 -0.000999983)
(1.29278e-09 0 -0.000999981)
(1.6007e-09 0 -0.000999979)
(1.96193e-09 0 -0.000999977)
(2.34881e-09 0 -0.000999974)
(2.74345e-09 0 -0.00099997)
(3.13892e-09 0 -0.000999966)
(3.53415e-09 0 -0.000999961)
(3.93107e-09 0 -0.000999955)
(4.33328e-09 0 -0.000999948)
(4.74577e-09 0 -0.000999941)
(5.17486e-09 0 -0.000999932)
(5.62827e-09 0 -0.000999923)
(6.1152e-09 0 -0.000999912)
(6.64649e-09 0 -0.0009999)
(7.23473e-09 0 -0.000999887)
(7.8944e-09 0 -0.000999873)
(8.64205e-09 0 -0.000999857)
(9.49648e-09 0 -0.000999839)
(1.0479e-08 0 -0.00099982)
(1.16136e-08 0 -0.000999798)
(1.29272e-08 0 -0.000999774)
(1.44503e-08 0 -0.000999748)
(1.62169e-08 0 -0.000999719)
(1.82652e-08 0 -0.000999687)
(2.06384e-08 0 -0.000999652)
(2.33848e-08 0 -0.000999613)
(2.6559e-08 0 -0.00099957)
(3.02223e-08 0 -0.000999522)
(3.4444e-08 0 -0.00099947)
(3.93024e-08 0 -0.000999413)
(4.4886e-08 0 -0.00099935)
(5.12949e-08 0 -0.00099928)
(5.86427e-08 0 -0.000999204)
(6.70586e-08 0 -0.000999119)
(7.66893e-08 0 -0.000999027)
(8.77019e-08 0 -0.000998925)
(1.00287e-07 0 -0.000998813)
(1.1466e-07 0 -0.00099869)
(1.31068e-07 0 -0.000998555)
(1.49792e-07 0 -0.000998407)
(1.71153e-07 0 -0.000998244)
(1.95515e-07 0 -0.000998066)
(2.23295e-07 0 -0.000997871)
(2.54965e-07 0 -0.000997656)
(2.91066e-07 0 -0.000997421)
(3.32206e-07 0 -0.000997164)
(3.79081e-07 0 -0.000996882)
(4.32474e-07 0 -0.000996573)
(4.93272e-07 0 -0.000996235)
(5.62475e-07 0 -0.000995865)
(6.4121e-07 0 -0.000995459)
(7.30745e-07 0 -0.000995015)
(8.32506e-07 0 -0.000994529)
(9.4809e-07 0 -0.000993997)
(1.07928e-06 0 -0.000993414)
(1.22807e-06 0 -0.000992775)
(1.39667e-06 0 -0.000992075)
(1.58751e-06 0 -0.000991307)
(1.8033e-06 0 -0.000990463)
(2.04698e-06 0 -0.000989536)
(2.32175e-06 0 -0.000988516)
(2.63109e-06 0 -0.000987392)
(2.97871e-06 0 -0.00098615)
(3.36842e-06 0 -0.000984774)
(3.80415e-06 0 -0.000983245)
(4.28981e-06 0 -0.00098154)
(4.82917e-06 0 -0.000979633)
(5.4257e-06 0 -0.000977492)
(6.0822e-06 0 -0.000975084)
(6.80009e-06 0 -0.00097236)
(7.57749e-06 0 -0.000969219)
(8.40467e-06 0 -0.000965519)
(9.2564e-06 0 -0.000961518)
(1.00851e-05 0 -0.000958845)
(1.07921e-05 0 -0.000958543)
(1.11746e-05 0 -0.000945137)
(1.03346e-05 0 -0.000881029)
(5.8157e-06 0 -0.000682266)
(1.59178e-07 0 -0.003139)
(3.95879e-05 0 6.98361e-05)
(0.000188671 0 -0.00385898)
(3.99675e-05 0 -0.000129837)
(-0.000431267 0 -0.00298958)
(-0.000541892 0 -0.0026131)
(-9.4745e-05 0 -0.000861102)
(-0.000115612 0 -0.00471678)
(-1.17555e-05 0 -0.000700226)
(0.000283114 0 -0.00389932)
(0.000333326 0 -0.00223504)
(0.000124866 0 -0.00306909)
(1.69189e-05 0 -0.00046114)
(-0.000183099 0 -0.00306344)
(-0.000177891 0 -0.00310098)
(-7.08916e-05 0 -0.00110796)
(-0.000479016 0 -0.00370231)
(-7.28033e-05 0 -0.000715911)
(-0.000182366 0 -0.00376586)
(-9.6308e-05 0 -0.00172032)
(-0.000238871 0 -0.00300889)
(-0.000124748 0 -0.00246661)
(-2.27396e-05 0 -0.00165715)
(-1.34897e-06 0 -0.00175197)
(-2.53867e-06 0 -0.000810064)
(5.64651e-05 0 -0.000974803)
(8.40392e-05 0 -0.000883981)
(9.38618e-05 0 -0.00088449)
(9.26951e-05 0 -0.00089939)
(8.66552e-05 0 -0.000911035)
(7.92079e-05 0 -0.000919673)
(7.18008e-05 0 -0.00092724)
(6.49073e-05 0 -0.00093422)
(5.86284e-05 0 -0.000940587)
(5.29465e-05 0 -0.000946342)
(4.7814e-05 0 -0.000951538)
(4.31797e-05 0 -0.000956234)
(3.89955e-05 0 -0.000960477)
(3.52175e-05 0 -0.000964311)
(3.18062e-05 0 -0.000967774)
(2.87258e-05 0 -0.000970903)
(2.59443e-05 0 -0.000973729)
(2.34324e-05 0 -0.000976282)
(2.11641e-05 0 -0.000978587)
(1.91156e-05 0 -0.000980668)
(1.72657e-05 0 -0.000982548)
(1.55951e-05 0 -0.000984244)
(1.40864e-05 0 -0.000985776)
(1.27239e-05 0 -0.000987159)
(1.14934e-05 0 -0.000988407)
(1.0382e-05 0 -0.000989534)
(9.378e-06 0 -0.00099055)
(8.47089e-06 0 -0.000991468)
(7.6513e-06 0 -0.000992296)
(6.91078e-06 0 -0.000993045)
(6.24171e-06 0 -0.000993721)
(5.63722e-06 0 -0.000994331)
(5.09108e-06 0 -0.000994883)
(4.59768e-06 0 -0.000995381)
(4.15193e-06 0 -0.00099583)
(3.74924e-06 0 -0.000996236)
(3.38546e-06 0 -0.000996602)
(3.05687e-06 0 -0.000996934)
(2.76011e-06 0 -0.000997233)
(2.49214e-06 0 -0.000997504)
(2.25017e-06 0 -0.000997748)
(2.03171e-06 0 -0.000997968)
(1.83447e-06 0 -0.000998167)
(1.65641e-06 0 -0.000998346)
(1.49567e-06 0 -0.000998508)
(1.35057e-06 0 -0.000998654)
(1.21961e-06 0 -0.000998785)
(1.10141e-06 0 -0.000998904)
(9.94741e-07 0 -0.000999011)
(8.98484e-07 0 -0.000999108)
(8.11633e-07 0 -0.000999195)
(7.33279e-07 0 -0.000999274)
(6.62602e-07 0 -0.000999345)
(5.98863e-07 0 -0.000999409)
(5.41393e-07 0 -0.000999467)
(4.89591e-07 0 -0.000999519)
(4.42915e-07 0 -0.000999567)
(4.00876e-07 0 -0.000999609)
(3.63036e-07 0 -0.000999648)
(3.28998e-07 0 -0.000999684)
(2.98409e-07 0 -0.000999716)
(2.7095e-07 0 -0.000999745)
(2.46336e-07 0 -0.000999771)
(2.24312e-07 0 -0.000999796)
(2.04649e-07 0 -0.000999818)
(1.87144e-07 0 -0.000999838)
(1.71618e-07 0 -0.000999857)
(1.57909e-07 0 -0.000999874)
(1.45879e-07 0 -0.000999891)
(1.35405e-07 0 -0.000999906)
(1.26386e-07 0 -0.00099992)
(1.18749e-07 0 -0.000999933)
(1.12497e-07 0 -0.000999946)
(1.07787e-07 0 -0.000999959)
(1.05021e-07 0 -0.00099997)
(0 -8.13114e-09 -0.000999984)
(0 -1.06261e-08 -0.000999983)
(0 -1.48467e-08 -0.000999981)
(0 -2.00354e-08 -0.000999979)
(0 -2.57814e-08 -0.000999977)
(0 -3.19324e-08 -0.000999974)
(0 -3.8473e-08 -0.00099997)
(0 -4.54453e-08 -0.000999966)
(0 -5.29141e-08 -0.000999961)
(0 -6.09542e-08 -0.000999955)
(0 -6.96469e-08 -0.000999948)
(0 -7.90793e-08 -0.000999941)
(0 -8.9345e-08 -0.000999932)
(0 -1.00545e-07 -0.000999923)
(0 -1.12788e-07 -0.000999912)
(0 -1.26194e-07 -0.0009999)
(0 -1.40891e-07 -0.000999887)
(0 -1.5702e-07 -0.000999873)
(0 -1.74737e-07 -0.000999857)
(0 -1.9421e-07 -0.000999839)
(0 -2.15625e-07 -0.00099982)
(0 -2.39187e-07 -0.000999798)
(0 -2.65122e-07 -0.000999774)
(0 -2.93675e-07 -0.000999748)
(0 -3.2512e-07 -0.000999719)
(0 -3.59758e-07 -0.000999687)
(0 -3.97919e-07 -0.000999652)
(0 -4.39967e-07 -0.000999613)
(0 -4.86304e-07 -0.00099957)
(0 -5.37371e-07 -0.000999522)
(0 -5.93655e-07 -0.00099947)
(0 -6.55691e-07 -0.000999413)
(0 -7.24068e-07 -0.00099935)
(0 -7.99432e-07 -0.00099928)
(0 -8.82496e-07 -0.000999204)
(0 -9.74042e-07 -0.000999119)
(0 -1.07493e-06 -0.000999027)
(0 -1.1861e-06 -0.000998925)
(0 -1.30859e-06 -0.000998813)
(0 -1.44353e-06 -0.00099869)
(0 -1.59217e-06 -0.000998555)
(0 -1.75588e-06 -0.000998407)
(0 -1.93616e-06 -0.000998244)
(0 -2.13463e-06 -0.000998066)
(0 -2.35311e-06 -0.000997871)
(0 -2.59356e-06 -0.000997656)
(0 -2.85814e-06 -0.000997421)
(0 -3.1492e-06 -0.000997164)
(0 -3.46934e-06 -0.000996882)
(0 -3.82138e-06 -0.000996573)
(0 -4.20844e-06 -0.000996235)
(0 -4.63392e-06 -0.000995865)
(0 -5.10155e-06 -0.000995459)
(0 -5.61543e-06 -0.000995015)
(0 -6.18004e-06 -0.000994529)
(0 -6.80029e-06 -0.000993997)
(0 -7.48158e-06 -0.000993414)
(0 -8.22979e-06 -0.000992775)
(0 -9.05151e-06 -0.000992075)
(0 -9.954e-06 -0.000991307)
(0 -1.09453e-05 -0.000990463)
(0 -1.20343e-05 -0.000989536)
(0 -1.3231e-05 -0.000988516)
(0 -1.45465e-05 -0.000987392)
(0 -1.59931e-05 -0.00098615)
(0 -1.75854e-05 -0.000984774)
(0 -1.93393e-05 -0.000983245)
(0 -2.12732e-05 -0.00098154)
(0 -2.34079e-05 -0.000979633)
(0 -2.57674e-05 -0.000977492)
(0 -2.83786e-05 -0.000975084)
(0 -3.127e-05 -0.00097236)
(0 -3.44654e-05 -0.000969219)
(0 -3.79589e-05 -0.000965519)
(0 -4.16416e-05 -0.000961518)
(0 -4.51291e-05 -0.000958845)
(0 -4.74623e-05 -0.000958543)
(0 -4.698e-05 -0.000945137)
(0 -4.14302e-05 -0.000881029)
(0 -3.02291e-05 -0.000682266)
(0 -7.19076e-06 -0.003139)
(0 7.75264e-06 6.98361e-05)
(0 3.79583e-05 -0.00385898)
(0 8.41941e-06 -0.000129837)
(0 -0.00025376 -0.00298958)
(0 -0.000307036 -0.0026131)
(0 -8.51329e-05 -0.000861102)
(0 -0.000157639 -0.00471678)
(0 -1.4253e-05 -0.000700226)
(0 0.000243484 -0.00389932)
(0 0.000543032 -0.00223504)
(0 0.000879461 -0.00306909)
(0 0.000127501 -0.00046114)
(0 0.00129157 -0.00306344)
(0 0.000417255 -0.00310098)
(0 1.19108e-05 -0.00110796)
(0 -0.001051 -0.00370231)
(0 -6.37472e-05 -0.000715911)
(0 -0.000393728 -0.00376586)
(0 -0.000151404 -0.00172032)
(0 -0.000183072 -0.00300889)
(0 -8.42201e-05 -0.00246661)
(0 -3.50085e-05 -0.00165715)
(0 1.4683e-05 -0.00175197)
(0 -2.6316e-05 -0.000810064)
(0 -5.58267e-06 -0.000974803)
(0 1.31731e-06 -0.000883981)
(0 4.10208e-06 -0.00088449)
(0 4.25624e-06 -0.00089939)
(0 3.66905e-06 -0.000911035)
(0 3.07438e-06 -0.000919673)
(0 2.58897e-06 -0.00092724)
(0 2.19029e-06 -0.00093422)
(0 1.85381e-06 -0.000940587)
(0 1.56574e-06 -0.000946342)
(0 1.31784e-06 -0.000951538)
(0 1.1043e-06 -0.000956234)
(0 9.20571e-07 -0.000960477)
(0 7.6282e-07 -0.000964311)
(0 6.27708e-07 -0.000967774)
(0 5.12298e-07 -0.000970903)
(0 4.14003e-07 -0.000973729)
(0 3.30546e-07 -0.000976282)
(0 2.59922e-07 -0.000978587)
(0 2.0038e-07 -0.000980668)
(0 1.5037e-07 -0.000982548)
(0 1.08552e-07 -0.000984244)
(0 7.37441e-08 -0.000985776)
(0 4.49158e-08 -0.000987159)
(0 2.11666e-08 -0.000988407)
(0 1.70834e-09 -0.000989534)
(0 -1.41545e-08 -0.00099055)
(0 -2.70349e-08 -0.000991468)
(0 -3.74079e-08 -0.000992296)
(0 -4.56079e-08 -0.000993045)
(0 -5.19362e-08 -0.000993721)
(0 -5.66652e-08 -0.000994331)
(0 -6.00392e-08 -0.000994883)
(0 -6.22763e-08 -0.000995381)
(0 -6.35702e-08 -0.00099583)
(0 -6.4094e-08 -0.000996236)
(0 -6.39998e-08 -0.000996602)
(0 -6.33506e-08 -0.000996934)
(0 -6.21847e-08 -0.000997233)
(0 -6.05764e-08 -0.000997504)
(0 -5.86092e-08 -0.000997748)
(0 -5.63655e-08 -0.000997968)
(0 -5.39197e-08 -0.000998167)
(0 -5.13374e-08 -0.000998346)
(0 -4.86751e-08 -0.000998508)
(0 -4.59799e-08 -0.000998654)
(0 -4.32907e-08 -0.000998785)
(0 -4.06394e-08 -0.000998904)
(0 -3.80511e-08 -0.000999011)
(0 -3.55458e-08 -0.000999108)
(0 -3.31388e-08 -0.000999195)
(0 -3.08414e-08 -0.000999274)
(0 -2.86615e-08 -0.000999345)
(0 -2.66043e-08 -0.000999409)
(0 -2.46727e-08 -0.000999467)
(0 -2.28673e-08 -0.000999519)
(0 -2.11871e-08 -0.000999567)
(0 -1.96297e-08 -0.000999609)
(0 -1.81911e-08 -0.000999648)
(0 -1.68667e-08 -0.000999684)
(0 -1.56505e-08 -0.000999716)
(0 -1.45363e-08 -0.000999745)
(0 -1.35169e-08 -0.000999771)
(0 -1.25851e-08 -0.000999796)
(0 -1.17334e-08 -0.000999818)
(0 -1.09539e-08 -0.000999838)
(0 -1.0239e-08 -0.000999857)
(0 -9.58107e-09 -0.000999874)
(0 -8.97213e-09 -0.000999891)
(0 -8.40384e-09 -0.000999906)
(0 -7.86745e-09 -0.00099992)
(0 -7.35658e-09 -0.000999933)
(0 -6.86963e-09 -0.000999946)
(0 -6.46919e-09 -0.000999959)
(0 -6.40287e-09 -0.00099997)
)
;
    }
    procBoundary0to1
    {
        type            processor;
        value           nonuniform List<vector> 
180
(
(8.80037e-10 -8.36264e-09 -0.000999975)
(1.06095e-09 -1.12834e-08 -0.000999974)
(1.29277e-09 -1.59425e-08 -0.000999973)
(1.6007e-09 -2.15509e-08 -0.000999971)
(1.96193e-09 -2.76929e-08 -0.000999968)
(2.34881e-09 -3.42157e-08 -0.000999965)
(2.74345e-09 -4.11001e-08 -0.000999962)
(3.13891e-09 -4.83855e-08 -0.000999957)
(3.53415e-09 -5.61351e-08 -0.000999952)
(3.93106e-09 -6.44233e-08 -0.000999946)
(4.33327e-09 -7.33324e-08 -0.000999939)
(4.74577e-09 -8.29522e-08 -0.000999932)
(5.17486e-09 -9.33804e-08 -0.000999923)
(5.62826e-09 -1.04724e-07 -0.000999913)
(6.11519e-09 -1.17099e-07 -0.000999901)
(6.64648e-09 -1.30634e-07 -0.000999888)
(7.23472e-09 -1.4547e-07 -0.000999874)
(7.89439e-09 -1.61759e-07 -0.000999858)
(8.64203e-09 -1.79671e-07 -0.00099984)
(9.49646e-09 -1.99392e-07 -0.00099982)
(1.0479e-08 -2.21126e-07 -0.000999797)
(1.16136e-08 -2.45098e-07 -0.000999772)
(1.29272e-08 -2.71555e-07 -0.000999744)
(1.44503e-08 -3.0077e-07 -0.000999713)
(1.62168e-08 -3.33044e-07 -0.000999679)
(1.82651e-08 -3.68706e-07 -0.00099964)
(2.06383e-08 -4.08121e-07 -0.000999598)
(2.33847e-08 -4.51693e-07 -0.00099955)
(2.65588e-08 -4.99863e-07 -0.000999498)
(3.02221e-08 -5.53123e-07 -0.00099944)
(3.44438e-08 -6.12013e-07 -0.000999375)
(3.93022e-08 -6.7713e-07 -0.000999304)
(4.48857e-08 -7.49133e-07 -0.000999225)
(5.12945e-08 -8.28754e-07 -0.000999137)
(5.86423e-08 -9.16798e-07 -0.00099904)
(6.7058e-08 -1.01416e-06 -0.000998932)
(7.66886e-08 -1.12182e-06 -0.000998813)
(8.77011e-08 -1.24087e-06 -0.00099868)
(1.00285e-07 -1.37253e-06 -0.000998534)
(1.14658e-07 -1.51813e-06 -0.000998372)
(1.31066e-07 -1.67915e-06 -0.000998192)
(1.4979e-07 -1.85723e-06 -0.000997993)
(1.71151e-07 -2.05419e-06 -0.000997773)
(1.95512e-07 -2.27203e-06 -0.000997528)
(2.23291e-07 -2.51299e-06 -0.000997258)
(2.54961e-07 -2.77953e-06 -0.000996958)
(2.9106e-07 -3.07439e-06 -0.000996626)
(3.32199e-07 -3.40059e-06 -0.000996259)
(3.79072e-07 -3.76148e-06 -0.000995851)
(4.32463e-07 -4.16077e-06 -0.0009954)
(4.93258e-07 -4.60257e-06 -0.0009949)
(5.62458e-07 -5.09139e-06 -0.000994346)
(6.41189e-07 -5.63228e-06 -0.000993733)
(7.3072e-07 -6.23078e-06 -0.000993054)
(8.32474e-07 -6.89304e-06 -0.000992302)
(9.48051e-07 -7.62589e-06 -0.000991468)
(1.07923e-06 -8.43686e-06 -0.000990546)
(1.22801e-06 -9.33431e-06 -0.000989525)
(1.39659e-06 -1.03274e-05 -0.000988395)
(1.58742e-06 -1.14263e-05 -0.000987145)
(1.80318e-06 -1.2642e-05 -0.000985761)
(2.04683e-06 -1.39869e-05 -0.000984231)
(2.32156e-06 -1.54745e-05 -0.00098254)
(2.63085e-06 -1.71196e-05 -0.000980671)
(2.9784e-06 -1.89385e-05 -0.000978606)
(3.36803e-06 -2.09489e-05 -0.000976328)
(3.80366e-06 -2.31701e-05 -0.000973816)
(4.28917e-06 -2.56233e-05 -0.000971048)
(4.82833e-06 -2.83318e-05 -0.000968001)
(5.42445e-06 -3.13205e-05 -0.000964651)
(6.07986e-06 -3.4616e-05 -0.000960975)
(6.79406e-06 -3.82438e-05 -0.000956945)
(7.55844e-06 -4.22198e-05 -0.000952486)
(8.34185e-06 -4.65205e-05 -0.000947482)
(9.05952e-06 -5.10007e-05 -0.00094215)
(9.52573e-06 -5.52032e-05 -0.000937973)
(9.40469e-06 -5.79825e-05 -0.00093668)
(8.20568e-06 -5.69547e-05 -0.000927087)
(5.14806e-06 -4.77043e-05 -0.00087764)
(-1.2958e-06 -2.47786e-05 -0.000678236)
(-1.88608e-05 8.18891e-06 -0.00265988)
(-5.11821e-05 -3.19531e-05 1.3851e-05)
(0.00018561 -0.000231187 -0.00275088)
(3.65108e-05 -0.000103477 -0.00334143)
(-7.43842e-05 -4.8619e-06 -0.000681712)
(-0.000550962 0.000244335 -0.00432494)
(-0.000156805 1.12629e-05 -0.000458308)
(-0.000230484 0.000211677 -0.00316082)
(3.77953e-05 -0.000137916 -0.00174449)
(0.000374215 -0.000176935 -0.0038253)
(8.35161e-05 -5.8599e-06 -0.00141233)
(6.61158e-05 1.96408e-05 -0.00424162)
(-3.80566e-06 6.91095e-05 -0.000968778)
(-0.00017421 0.000528838 -0.0040236)
(-1.92023e-05 4.45899e-05 -0.000130672)
(-0.000247725 0.000468911 -0.00416098)
(-0.000150183 0.000213584 -0.00184723)
(-0.000218157 0.000265562 -0.00216675)
(-0.000222297 0.000312426 -0.00360183)
(-7.76289e-05 -4.26154e-05 -0.00181428)
(-0.000244215 -4.74943e-05 -0.00288885)
(-0.00039698 -7.13431e-05 -0.00247484)
(-0.000102667 -4.45805e-05 -0.00176853)
(-6.41571e-06 -2.71824e-05 -0.00169527)
(2.15077e-05 -1.35335e-05 -0.00136126)
(6.74971e-05 -3.20256e-06 -0.00122345)
(9.09511e-05 -4.04274e-06 -0.00112686)
(9.70139e-05 -6.67107e-06 -0.00110805)
(9.3773e-05 -7.93512e-06 -0.00110384)
(8.6899e-05 -7.93352e-06 -0.00109601)
(7.91887e-05 -7.34721e-06 -0.00108658)
(7.17222e-05 -6.59651e-06 -0.00107785)
(6.4828e-05 -5.85521e-06 -0.00107016)
(5.85611e-05 -5.17923e-06 -0.00106329)
(5.28918e-05 -4.57968e-06 -0.00105711)
(4.77701e-05 -4.05264e-06 -0.00105153)
(4.31444e-05 -3.59018e-06 -0.0010465)
(3.89672e-05 -3.18419e-06 -0.00104197)
(3.51948e-05 -2.82738e-06 -0.00103789)
(3.1788e-05 -2.51343e-06 -0.00103421)
(2.87112e-05 -2.23686e-06 -0.00103088)
(2.59325e-05 -1.99295e-06 -0.00102789)
(2.3423e-05 -1.77761e-06 -0.00102518)
(2.11565e-05 -1.58732e-06 -0.00102274)
(1.91095e-05 -1.41902e-06 -0.00102054)
(1.72608e-05 -1.27006e-06 -0.00101855)
(1.55911e-05 -1.13817e-06 -0.00101675)
(1.40832e-05 -1.02134e-06 -0.00101513)
(1.27213e-05 -9.17866e-07 -0.00101367)
(1.14914e-05 -8.26111e-07 -0.00101234)
(1.03804e-05 -7.4438e-07 -0.00101115)
(9.37665e-06 -6.7132e-07 -0.00101008)
(8.46981e-06 -6.0583e-07 -0.00100911)
(7.65043e-06 -5.46999e-07 -0.00100823)
(6.91007e-06 -4.9406e-07 -0.00100744)
(6.24114e-06 -4.4636e-07 -0.00100673)
(5.63676e-06 -4.03338e-07 -0.00100608)
(5.09071e-06 -3.64505e-07 -0.0010055)
(4.59738e-06 -3.29433e-07 -0.00100497)
(4.15169e-06 -2.97746e-07 -0.00100449)
(3.74904e-06 -2.69109e-07 -0.00100406)
(3.3853e-06 -2.43223e-07 -0.00100367)
(3.05674e-06 -2.19822e-07 -0.00100332)
(2.76001e-06 -1.98663e-07 -0.001003)
(2.49205e-06 -1.79533e-07 -0.00100271)
(2.2501e-06 -1.62237e-07 -0.00100245)
(2.03165e-06 -1.46601e-07 -0.00100221)
(1.83442e-06 -1.32467e-07 -0.001002)
(1.65637e-06 -1.19693e-07 -0.0010018)
(1.49564e-06 -1.0815e-07 -0.00100163)
(1.35055e-06 -9.77208e-08 -0.00100147)
(1.21959e-06 -8.8299e-08 -0.00100133)
(1.1014e-06 -7.9788e-08 -0.0010012)
(9.94729e-07 -7.20999e-08 -0.00100108)
(8.98474e-07 -6.51548e-08 -0.00100097)
(8.11624e-07 -5.88796e-08 -0.00100088)
(7.33272e-07 -5.32084e-08 -0.00100079)
(6.62597e-07 -4.8081e-08 -0.00100071)
(5.98858e-07 -4.34427e-08 -0.00100064)
(5.4139e-07 -3.92441e-08 -0.00100058)
(4.89588e-07 -3.54407e-08 -0.00100052)
(4.42913e-07 -3.19922e-08 -0.00100047)
(4.00874e-07 -2.88624e-08 -0.00100042)
(3.63034e-07 -2.6019e-08 -0.00100038)
(3.28997e-07 -2.34329e-08 -0.00100034)
(2.98408e-07 -2.10784e-08 -0.00100031)
(2.7095e-07 -1.89325e-08 -0.00100028)
(2.46336e-07 -1.69751e-08 -0.00100025)
(2.24311e-07 -1.51883e-08 -0.00100022)
(2.04648e-07 -1.35562e-08 -0.0010002)
(1.87144e-07 -1.20649e-08 -0.00100017)
(1.71617e-07 -1.07023e-08 -0.00100015)
(1.57909e-07 -9.45763e-09 -0.00100014)
(1.45879e-07 -8.32218e-09 -0.00100012)
(1.35405e-07 -7.29019e-09 -0.0010001)
(1.26386e-07 -6.36186e-09 -0.00100009)
(1.18749e-07 -5.54981e-09 -0.00100008)
(1.12497e-07 -4.89494e-09 -0.00100006)
(1.07787e-07 -4.42452e-09 -0.00100005)
(1.05021e-07 -4.03144e-09 -0.00100004)
)
;
    }
    procBoundary0to2
    {
        type            processor;
        value           nonuniform List<vector> 
180
(
(6.48536e-10 -8.13116e-09 -0.00100009)
(4.03617e-10 -1.06261e-08 -0.00100009)
(1.97019e-10 -1.48468e-08 -0.0010001)
(8.51415e-11 -2.00354e-08 -0.0010001)
(5.04669e-11 -2.57815e-08 -0.0010001)
(6.55221e-11 -3.19325e-08 -0.0010001)
(1.16385e-10 -3.84731e-08 -0.00100011)
(1.98745e-10 -4.54454e-08 -0.00100011)
(3.13205e-10 -5.29142e-08 -0.00100012)
(4.62029e-10 -6.09543e-08 -0.00100013)
(6.47776e-10 -6.9647e-08 -0.00100013)
(8.72851e-10 -7.90794e-08 -0.00100014)
(1.13939e-09 -8.93451e-08 -0.00100015)
(1.4493e-09 -1.00545e-07 -0.00100016)
(1.80428e-09 -1.12789e-07 -0.00100017)
(2.20596e-09 -1.26194e-07 -0.00100019)
(2.65596e-09 -1.40891e-07 -0.0010002)
(3.15601e-09 -1.57021e-07 -0.00100022)
(3.70812e-09 -1.74737e-07 -0.00100024)
(4.31466e-09 -1.9421e-07 -0.00100026)
(4.97856e-09 -2.15626e-07 -0.00100028)
(5.70344e-09 -2.39188e-07 -0.0010003)
(6.49374e-09 -2.65123e-07 -0.00100033)
(7.35493e-09 -2.93676e-07 -0.00100036)
(8.29356e-09 -3.25122e-07 -0.0010004)
(9.31747e-09 -3.5976e-07 -0.00100043)
(1.04358e-08 -3.97922e-07 -0.00100047)
(1.16592e-08 -4.3997e-07 -0.00100052)
(1.29996e-08 -4.86308e-07 -0.00100057)
(1.44704e-08 -5.37376e-07 -0.00100062)
(1.60865e-08 -5.93661e-07 -0.00100068)
(1.7864e-08 -6.55698e-07 -0.00100075)
(1.982e-08 -7.24077e-07 -0.00100082)
(2.19727e-08 -7.99443e-07 -0.0010009)
(2.43409e-08 -8.8251e-07 -0.00100099)
(2.69436e-08 -9.74059e-07 -0.00100109)
(2.97996e-08 -1.07495e-06 -0.0010012)
(3.29271e-08 -1.18612e-06 -0.00100132)
(3.63426e-08 -1.30862e-06 -0.00100145)
(4.00607e-08 -1.44357e-06 -0.0010016)
(4.40929e-08 -1.59222e-06 -0.00100176)
(4.84463e-08 -1.75594e-06 -0.00100194)
(5.31228e-08 -1.93623e-06 -0.00100213)
(5.81168e-08 -2.13472e-06 -0.00100235)
(6.34145e-08 -2.35322e-06 -0.00100258)
(6.89909e-08 -2.59369e-06 -0.00100284)
(7.48082e-08 -2.8583e-06 -0.00100313)
(8.08121e-08 -3.14939e-06 -0.00100344)
(8.69292e-08 -3.46957e-06 -0.00100379)
(9.30688e-08 -3.82167e-06 -0.00100417)
(9.91284e-08 -4.20879e-06 -0.00100459)
(1.04979e-07 -4.63434e-06 -0.00100505)
(1.10459e-07 -5.10208e-06 -0.00100555)
(1.15368e-07 -5.61607e-06 -0.00100611)
(1.19462e-07 -6.18083e-06 -0.00100672)
(1.2244e-07 -6.80125e-06 -0.00100739)
(1.23933e-07 -7.48275e-06 -0.00100813)
(1.23476e-07 -8.23123e-06 -0.00100894)
(1.20667e-07 -9.05327e-06 -0.00100983)
(1.1512e-07 -9.95615e-06 -0.00101081)
(1.06429e-07 -1.09479e-05 -0.00101189)
(9.41876e-08 -1.20375e-05 -0.00101309)
(7.80135e-08 -1.32349e-05 -0.0010144)
(5.75877e-08 -1.45512e-05 -0.00101586)
(3.28602e-08 -1.5999e-05 -0.00101748)
(4.3024e-09 -1.75925e-05 -0.00101927)
(-2.74467e-08 -1.9348e-05 -0.00102127)
(-6.14096e-08 -2.12838e-05 -0.00102349)
(-9.60845e-08 -2.34209e-05 -0.00102598)
(-1.29315e-07 -2.57834e-05 -0.00102876)
(-1.58402e-07 -2.83986e-05 -0.00103189)
(-1.80805e-07 -3.12962e-05 -0.00103542)
(-1.97444e-07 -3.4503e-05 -0.00103934)
(-2.22318e-07 -3.80203e-05 -0.00104359)
(-3.04392e-07 -4.17552e-05 -0.00104844)
(-5.50067e-07 -4.53527e-05 -0.00105577)
(-1.03436e-06 -4.7881e-05 -0.00106764)
(-1.51227e-06 -4.77408e-05 -0.00107014)
(-5.89017e-07 -4.26452e-05 -0.00102221)
(5.2274e-06 -3.1795e-05 -0.000780868)
(1.32396e-05 -5.70978e-06 -0.00346799)
(9.00038e-06 5.08666e-05 7.41836e-05)
(-8.9904e-05 4.81967e-05 -0.00410119)
(7.15002e-06 3.95795e-05 -0.000392014)
(7.79477e-05 -0.000128372 -0.00392228)
(2.24884e-05 -0.000222664 -0.0043254)
(1.00107e-05 -3.81238e-05 -0.000522771)
(0.000312146 -0.000344157 -0.00461476)
(-8.53725e-05 -1.36648e-06 -0.00124216)
(-0.00033653 0.000756769 -0.00290795)
(-0.00040769 0.000961371 -0.00318318)
(-0.000172762 0.000158802 -0.000664144)
(-0.00105613 0.00133182 -0.00289026)
(-0.000322808 0.000392333 -0.00250458)
(-6.1813e-06 -9.77157e-05 -8.45391e-05)
(8.70998e-05 -5.93597e-05 -0.00468532)
(2.60182e-05 -0.000128664 -0.000677306)
(0.000619869 -0.000608001 -0.0024523)
(0.000546006 -0.000492024 -0.00185984)
(-2.51367e-05 -0.000307915 -0.00139017)