/*--------------------------------*- C++ -*----------------------------------*\
  =========                 |
  \\      /  F ield         | OpenFOAM: The Open Source CFD Toolbox
   \\    /   O peration     | Website:  https://openfoam.org
    \\  /    A nd           | Version:  9
     \\/     M anipulation  |
\*---------------------------------------------------------------------------*/
FoamFile
{
    format      ascii;
    class       volVectorField;
    location    "3000";
    object      U;
}
// * * * * * * * * * * * * * * * * * * * * * * * * * * * * * * * * * * * * * //

dimensions      [0 1 -1 0 0 0 0];

internalField   nonuniform List<vector> 
720
(
(8.46777e-07 8.41876e-07 -0.0010871)
(8.46768e-07 -7.87582e-07 -0.00105544)
(-7.82683e-07 8.41869e-07 -0.00105546)
(-7.82688e-07 -7.87589e-07 -0.00108503)
(2.37139e-06 2.36984e-06 -0.00108681)
(2.37137e-06 -2.21549e-06 -0.00105503)
(-2.21394e-06 2.36982e-06 -0.00105504)
(-2.21396e-06 -2.21551e-06 -0.0010847)
(3.9528e-06 3.95151e-06 -0.00108497)
(3.9528e-06 -3.69033e-06 -0.00105399)
(-3.68905e-06 3.95152e-06 -0.00105399)
(-3.68903e-06 -3.69031e-06 -0.00108279)
(5.46921e-06 5.46877e-06 -0.00108146)
(5.46921e-06 -5.09538e-06 -0.001052)
(-5.09495e-06 5.46877e-06 -0.00105197)
(-5.09495e-06 -5.09538e-06 -0.00107917)
(6.89771e-06 6.89942e-06 -0.00107675)
(6.89771e-06 -6.40619e-06 -0.00104936)
(-6.4079e-06 6.89943e-06 -0.0010493)
(-6.40789e-06 -6.40618e-06 -0.00107431)
(8.20853e-06 8.21414e-06 -0.00107102)
(8.20854e-06 -7.59087e-06 -0.00104621)
(-7.59648e-06 8.21415e-06 -0.00104611)
(-7.59647e-06 -7.59086e-06 -0.00106839)
(9.37818e-06 9.38992e-06 -0.0010644)
(9.37818e-06 -8.62373e-06 -0.00104262)
(-8.63547e-06 9.38993e-06 -0.00104247)
(-8.63546e-06 -8.62372e-06 -0.00106153)
(1.03862e-05 1.04069e-05 -0.00105706)
(1.03862e-05 -9.48191e-06 -0.00103868)
(-9.50261e-06 1.04069e-05 -0.00103847)
(-9.5026e-06 -9.4819e-06 -0.0010539)
(1.12157e-05 1.12488e-05 -0.0010492)
(1.12157e-05 -1.01459e-05 -0.00103452)
(-1.0179e-05 1.12488e-05 -0.00103423)
(-1.0179e-05 -1.01459e-05 -0.0010457)
(1.18535e-05 1.19033e-05 -0.00104101)
(1.18535e-05 -1.05996e-05 -0.00103025)
(-1.06496e-05 1.19035e-05 -0.00102987)
(-1.06494e-05 -1.05996e-05 -0.00103711)
(1.22908e-05 1.23625e-05 -0.0010327)
(1.22908e-05 -1.08309e-05 -0.001026)
(-1.0902e-05 1.2362e-05 -0.0010255)
(-1.09025e-05 -1.08309e-05 -0.00102832)
(1.25232e-05 1.26229e-05 -0.00102448)
(1.25232e-05 -1.08315e-05 -0.00102188)
(-1.09292e-05 1.26211e-05 -0.00102124)
(-1.09312e-05 -1.08315e-05 -0.00101955)
(1.2551e-05 1.2686e-05 -0.00101655)
(1.2551e-05 -1.05976e-05 -0.001018)
(-1.0731e-05 1.26842e-05 -0.00101721)
(-1.07326e-05 -1.05976e-05 -0.00101097)
(1.23785e-05 1.25577e-05 -0.00100909)
(1.23785e-05 -1.01289e-05 -0.00101446)
(-1.03075e-05 1.25571e-05 -0.00101347)
(-1.0308e-05 -1.01288e-05 -0.00100277)
(1.20138e-05 1.22481e-05 -0.00100226)
(1.20138e-05 -9.4287e-06 -0.00101135)
(-9.66313e-06 1.22483e-05 -0.00101011)
(-9.66296e-06 -9.42868e-06 -0.000995106)
(1.14694e-05 1.17727e-05 -0.000996213)
(1.14694e-05 -8.50436e-06 -0.00100875)
(-8.80764e-06 1.17727e-05 -0.00100719)
(-8.80765e-06 -8.50434e-06 -0.000988109)
(1.07597e-05 1.11506e-05 -0.000991072)
(1.07597e-05 -7.36452e-06 -0.0010067)
(-7.75542e-06 1.11506e-05 -0.00100473)
(-7.75542e-06 -7.3645e-06 -0.000981888)
(9.90626e-06 1.04068e-05 -0.000986956)
(9.90627e-06 -6.02316e-06 -0.00100519)
(-6.52371e-06 1.04068e-05 -0.00100275)
(-6.52372e-06 -6.02314e-06 -0.000976527)
(8.9355e-06 9.57121e-06 -0.000983937)
(8.93551e-06 -4.49778e-06 -0.00100423)
(-5.13346e-06 9.57121e-06 -0.00100123)
(-5.13347e-06 -4.49776e-06 -0.000972073)
(7.87662e-06 8.67748e-06 -0.000982047)
(7.87663e-06 -2.80758e-06 -0.00100378)
(-3.60842e-06 8.67748e-06 -0.00100013)
(-3.60843e-06 -2.80756e-06 -0.000968536)
(6.76126e-06 7.76279e-06 -0.000981289)
(6.76127e-06 -9.72928e-07 -0.00100382)
(-1.97443e-06 7.76279e-06 -0.000999392)
(-1.97445e-06 -9.72903e-07 -0.000965889)
(5.62312e-06 6.8674e-06 -0.000981636)
(5.62313e-06 9.85353e-07 -0.00100427)
(-2.58889e-07 6.8674e-06 -0.000998924)
(-2.58907e-07 9.85381e-07 -0.000964073)
(4.49744e-06 6.03424e-06 -0.000983033)
(4.49745e-06 3.04656e-06 -0.00100505)
(1.5098e-06 6.03424e-06 -0.000998625)
(1.50977e-06 3.04659e-06 -0.000962995)
(3.42016e-06 5.30846e-06 -0.0009854)
(3.42016e-06 5.19133e-06 -0.00100609)
(3.30308e-06 5.30846e-06 -0.000998376)
(3.30305e-06 5.19137e-06 -0.000962532)
(2.4272e-06 4.73691e-06 -0.000988641)
(2.42721e-06 7.40278e-06 -0.00100729)
(5.09313e-06 4.73691e-06 -0.000998052)
(5.0931e-06 7.40283e-06 -0.000962534)
(1.55383e-06 4.3677e-06 -0.000992643)
(1.55383e-06 9.66742e-06 -0.00100856)
(6.85362e-06 4.3677e-06 -0.000997518)
(6.85357e-06 9.66747e-06 -0.00096283)
(8.33891e-07 4.24977e-06 -0.000997289)
(8.33888e-07 1.19763e-05 -0.00100982)
(8.56052e-06 4.24978e-06 -0.000996643)
(8.56046e-06 1.19764e-05 -0.000963234)
(2.99195e-07 4.43265e-06 -0.00100246)
(2.99183e-07 1.43263e-05 -0.001011)
(1.01929e-05 4.43267e-06 -0.000995304)
(1.01928e-05 1.43264e-05 -0.000963554)
(-2.11447e-08 4.96621e-06 -0.00100806)
(-2.11693e-08 1.6721e-05 -0.00101204)
(1.17338e-05 4.96624e-06 -0.000993386)
(1.17337e-05 1.67211e-05 -0.000963591)
(-1.012e-07 5.90071e-06 -0.00101399)
(-1.01243e-07 1.91722e-05 -0.00101294)
(1.31704e-05 5.90076e-06 -0.000990791)
(1.31703e-05 1.91723e-05 -0.000963154)
(8.13532e-08 7.28698e-06 -0.0010202)
(8.12853e-08 2.17007e-05 -0.00101371)
(1.44952e-05 7.28705e-06 -0.000987442)
(1.44951e-05 2.17008e-05 -0.000962062)
(5.44993e-07 9.17689e-06 -0.00102665)
(5.44891e-07 2.43377e-05 -0.00101438)
(1.57059e-05 9.177e-06 -0.00098328)
(1.57058e-05 2.43378e-05 -0.000960148)
(1.30426e-06 1.16241e-05 -0.00103335)
(1.30412e-06 2.71253e-05 -0.00101506)
(1.68056e-05 1.16242e-05 -0.000978272)
(1.68054e-05 2.71254e-05 -0.00095727)
(2.36988e-06 1.46851e-05 -0.00104036)
(2.36968e-06 3.01181e-05 -0.00101587)
(1.7803e-05 1.46853e-05 -0.000972404)
(1.78028e-05 3.01183e-05 -0.000953302)
(3.74908e-06 1.84206e-05 -0.0010478)
(3.7488e-06 3.33836e-05 -0.00101699)
(1.87123e-05 1.84209e-05 -0.00096568)
(1.8712e-05 3.33839e-05 -0.000948149)
(5.44611e-06 2.28976e-05 -0.00105582)
(5.44574e-06 3.70036e-05 -0.00101862)
(1.95522e-05 2.28981e-05 -0.000958116)
(1.95519e-05 3.70039e-05 -0.000941733)
(7.46303e-06 2.81915e-05 -0.00106463)
(7.46254e-06 4.10744e-05 -0.00102102)
(2.03462e-05 2.8192e-05 -0.000949733)
(2.03458e-05 4.10748e-05 -0.000933999)
(9.8007e-06 3.43886e-05 -0.00107452)
(9.80006e-06 4.57083e-05 -0.00102448)
(2.11207e-05 3.43893e-05 -0.000940548)
(2.11203e-05 4.57088e-05 -0.000924905)
(1.246e-05 4.15898e-05 -0.0010858)
(1.24591e-05 5.10344e-05 -0.0010293)
(2.19049e-05 4.15908e-05 -0.000930558)
(2.19044e-05 5.10351e-05 -0.000914416)
(1.54432e-05 4.99144e-05 -0.00109886)
(1.54421e-05 5.71995e-05 -0.00103581)
(2.27288e-05 4.99157e-05 -0.000919731)
(2.27281e-05 5.72005e-05 -0.000902493)
(1.87556e-05 5.9504e-05 -0.00111411)
(1.87543e-05 6.43696e-05 -0.00104436)
(2.36219e-05 5.95058e-05 -0.000907991)
(2.3621e-05 6.43708e-05 -0.000889085)
(2.24076e-05 7.0528e-05 -0.00113203)
(2.24059e-05 7.27312e-05 -0.00105531)
(2.46116e-05 7.05303e-05 -0.000895197)
(2.46105e-05 7.27329e-05 -0.000874113)
(2.6416e-05 8.3189e-05 -0.00115313)
(2.64138e-05 8.24935e-05 -0.001069)
(2.57217e-05 8.31921e-05 -0.000881132)
(2.57203e-05 8.24959e-05 -0.000857456)
(3.08065e-05 9.77294e-05 -0.00117795)
(3.08038e-05 9.38909e-05 -0.0010858)
(2.69696e-05 9.77335e-05 -0.000865481)
(2.69678e-05 9.38941e-05 -0.000838939)
(3.56157e-05 0.000114438 -0.0012071)
(3.56122e-05 0.000107186 -0.00110605)
(2.83651e-05 0.000114444 -0.000847819)
(2.83628e-05 0.00010719 -0.000818317)
(4.0893e-05 0.00013366 -0.0012412)
(4.08886e-05 0.000122672 -0.00113012)
(2.99077e-05 0.000133667 -0.000827591)
(2.99049e-05 0.000122677 -0.000795259)
(4.67031e-05 0.000155802 -0.00128094)
(4.66974e-05 0.00014068 -0.00115836)
(3.15849e-05 0.000155811 -0.0008041)
(3.15813e-05 0.000140688 -0.000769337)
(5.31278e-05 0.000181347 -0.00132707)
(5.31206e-05 0.000161584 -0.00119116)
(3.33692e-05 0.00018136 -0.000776488)
(3.33648e-05 0.000161594 -0.000740007)
(6.02682e-05 0.000210864 -0.00138041)
(6.02591e-05 0.000185806 -0.00122891)
(3.52165e-05 0.00021088 -0.000743725)
(3.5211e-05 0.000185819 -0.000706615)
(6.8248e-05 0.000245019 -0.00144188)
(6.82364e-05 0.000213825 -0.00127206)
(3.7062e-05 0.000245042 -0.000704592)
(3.7055e-05 0.000213844 -0.000668395)
(7.72169e-05 0.000284597 -0.00151254)
(7.72021e-05 0.000246186 -0.0013211)
(3.88161e-05 0.000284627 -0.00065767)
(3.88075e-05 0.00024621 -0.000624453)
(8.73536e-05 0.000330511 -0.0015936)
(8.73347e-05 0.000283506 -0.00137665)
(4.03614e-05 0.000330551 -0.000601314)
(4.03508e-05 0.000283538 -0.000573753)
(9.88688e-05 0.00038383 -0.00168647)
(9.88446e-05 0.000326492 -0.00143941)
(4.15479e-05 0.000383884 -0.000533639)
(4.15349e-05 0.000326535 -0.00051512)
(0.00011201 0.000445798 -0.00179284)
(0.000111979 0.000375954 -0.00151028)
(4.21868e-05 0.000445871 -0.000452491)
(4.21709e-05 0.00037601 -0.000447243)
(0.000127069 0.000517868 -0.0019147)
(0.000127029 0.000432816 -0.00159031)
(4.20438e-05 0.000517965 -0.000355405)
(4.20245e-05 0.000432891 -0.000368668)
(0.000144386 0.00060173 -0.00205442)
(0.000144335 0.000498141 -0.00168081)
(4.08294e-05 0.00060186 -0.000239581)
(4.0806e-05 0.00049824 -0.000277797)
(0.000164358 0.000699353 -0.00221479)
(0.000164293 0.000573142 -0.00178332)
(3.81888e-05 0.000699527 -0.000101839)
(3.81607e-05 0.000573272 -0.000172881)
(0.000187452 0.000813024 -0.00239916)
(0.000187368 0.00065921 -0.00189968)
(3.36894e-05 0.000813258 6.14721e-05)
(3.3656e-05 0.000659381 -5.20127e-05)
(0.000214215 0.00094541 -0.0026115)
(0.000214107 0.000757936 -0.0020321)
(2.68022e-05 0.000945724 0.000254579)
(2.67628e-05 0.00075816 8.68861e-05)
(0.000245289 0.00109962 -0.0028565)
(0.000245149 0.000871135 -0.00218307)
(1.68798e-05 0.00110004 0.000482384)
(1.68338e-05 0.000871429 0.000246083)
(0.00028144 0.00127928 -0.00313974)
(0.000281261 0.00100088 -0.00235533)
(3.12986e-06 0.00127984 0.000750598)
(3.07701e-06 0.00100126 0.000428059)
(0.000323596 0.00148862 -0.00346777)
(0.000323366 0.0011495 -0.00255223)
(-1.54183e-05 0.00148938 0.00106591)
(-1.54778e-05 0.00115 0.000635524)
(0.000372842 0.00173259 -0.00384829)
(0.000372546 0.00131967 -0.0027776)
(-3.99546e-05 0.00173361 0.00143617)
(-4.00199e-05 0.00132033 0.000871414)
(0.000430491 0.00201698 -0.00429032)
(0.00043011 0.00151441 -0.00303546)
(-7.19423e-05 0.00201836 0.00187065)
(-7.20111e-05 0.00151527 0.00113893)
(0.000498128 0.00234857 -0.00480446)
(0.000497639 0.0017371 -0.00333039)
(-0.000113178 0.00235042 0.00238028)
(-0.000113246 0.00173823 0.00144162)
(0.000577667 0.00273528 -0.0054031)
(0.000577037 0.00199158 -0.0036675)
(-0.000165864 0.00273777 0.00297799)
(-0.000165923 0.00199305 0.00178341)
(0.000671421 0.00318643 -0.0061009)
(0.00067061 0.00228214 -0.00405242)
(-0.000232697 0.00318978 0.00367906)
(-0.000232735 0.00228405 0.00216863)
(0.000782202 0.00371293 -0.00691461)
(0.00078116 0.0026136 -0.00449149)
(-0.000316977 0.00371745 0.00450156)
(-0.000316976 0.00261609 0.00260194)
(0.000913364 0.00432755 -0.00786384)
(0.000912025 0.00299135 -0.00499097)
(-0.000422744 0.00433365 0.00546685)
(-0.000422673 0.00299458 0.00308824)
(0.00106905 0.0050453 -0.0089723)
(0.00106733 0.00342131 -0.00555799)
(-0.00055495 0.00505354 0.00660018)
(-0.000554762 0.00342552 0.00363328)
(0.00125426 0.00588383 -0.0102677)
(0.00125206 0.00391018 -0.00620073)
(-0.000719587 0.00589495 0.00793135)
(-0.000719216 0.00391563 0.00424318)
(0.00147509 0.00686386 -0.0117823)
(0.00147227 0.00446529 -0.00692746)
(-0.000923987 0.00687888 0.00949536)
(-0.000923331 0.00447235 0.00492348)
(0.00173893 0.00800973 -0.0135541)
(0.00173533 0.00509471 -0.00774711)
(-0.0011771 0.00803004 0.0113326)
(-0.00117601 0.00510384 0.00567986)
(0.00205477 0.00934994 -0.0156282)
(0.00205019 0.00580723 -0.00866919)
(-0.00148974 0.00937743 0.0134946)
(-0.00148801 0.00581903 0.00651983)
(0.00243353 0.0109184 -0.0180585)
(0.00242773 0.00661261 -0.00970448)
(-0.00187524 0.0109556 0.0160403)
(-0.00187254 0.00662783 0.0074484)
(0.00288854 0.0127549 -0.0209143)
(0.00288137 0.00752134 -0.0108586)
(-0.00234976 0.0128061 0.0190192)
(-0.00234544 0.00754099 0.00846902)
(0.00343711 0.0149049 -0.0242626)
(0.00342904 0.00854491 -0.0121002)
(-0.00293326 0.0149911 0.0225028)
(-0.00292304 0.00857145 0.00960436)
(0.00410051 0.0174329 -0.0280761)
(0.00409621 0.0097031 -0.0133503)
(-0.0036284 0.0175417 0.0266343)
(-0.0036191 0.00975627 0.0107057)
(0.00493365 0.0205887 -0.0343831)
(0.00495497 0.0111369 -0.0193698)
(-0.00440288 0.0206105 0.0313868)
(-0.00438901 0.0113505 0.00847066)
(0.0060556 0.0272215 -0.0571202)
(0.00610424 0.0142753 -0.0305162)
(-0.00494538 0.0255726 0.0263376)
(-0.00460705 0.0160936 0.00592816)
(-0.00733226 0.0296311 -0.0738061)
(-0.0119126 -0.00814303 -0.0404532)
(0.00324827 -0.00430231 0.103538)
(-0.000842154 -0.0148836 0.0261673)
(-0.0136632 0.0122879 -0.0406192)
(-0.0167863 -0.0264145 0.0481086)
(0.00406097 -0.0255324 0.129213)
(0.00545482 -0.0334653 0.0480801)
(-0.0341739 0.0106253 -0.0744885)
(-0.0341855 -0.0208364 -0.0952019)
(-0.0295393 -0.00118157 0.0653462)
(-0.0190519 -0.0369875 0.0659983)
(-0.0716539 0.0223713 -0.182468)
(-0.0457318 -0.0173421 0.0370779)
(-0.0414092 0.0196226 0.108284)
(-0.0281626 -0.0644669 -0.0127497)
(-0.0790223 0.00153093 -0.0752624)
(-0.0428201 0.0145549 -0.0891929)
(-0.0373612 0.0180191 0.114572)
(-0.0378171 -0.0523697 -0.00649084)
(-0.0593778 -0.000644922 -0.149991)
(-0.0223275 0.00113957 -0.215199)
(-0.0137815 0.0590313 0.0277983)
(-0.0161718 -0.0420089 0.137591)
(-0.0522283 -0.0144046 0.0798277)
(0.0199861 -0.0117268 0.132004)
(0.0138573 0.0384729 0.369615)
(0.0338204 0.00808531 -0.207944)
(-0.031799 0.00782879 -0.246651)
(0.00958188 0.0122104 -0.035387)
(0.00950782 0.0560855 -0.024332)
(0.0741656 0.0313471 -0.0600002)
(0.0071358 0.00118588 0.114259)
(0.0427854 0.0199134 -0.234084)
(0.000798532 0.054572 0.138232)
(0.0357908 0.00185916 0.444451)
(0.0308837 -0.00219605 -0.414381)
(0.0205933 -0.00464429 -0.0963927)
(0.00100427 0.0258904 0.190987)
(-0.00685258 0.0120422 -0.274442)
(0.033698 -0.029589 0.109344)
(-0.0321919 0.00755609 -0.0307223)
(0.00957035 -0.033912 0.306834)
(0.0378912 0.0172187 -0.041944)
(0.019395 -0.0454579 -0.324191)
(0.00611464 -0.0233751 -0.0137456)
(0.0133868 -0.0485667 0.211667)
(0.043297 0.0148074 0.124696)
(0.0357271 -0.0414289 -0.0240667)
(0.0378602 -0.0602738 -0.23249)
(0.0161067 -0.0555731 0.0247941)
(0.0453787 0.00162924 0.149956)
(0.0375815 -0.00172015 -0.161384)
(0.0512132 -0.0449723 0.085033)
(0.000736326 -0.0282549 0.0317596)
(0.0360738 0.0147119 0.111741)
(0.0431017 0.0240275 -0.00257681)
(0.0683227 -0.0111386 -0.235226)
(0.0143526 0.0112663 0.226772)
(0.0494526 0.0357504 -0.373158)
(0.0298605 0.00293779 -0.635538)
(0.0418367 -0.00393742 0.0506743)
(0.0264931 0.00864562 -0.0629519)
(0.0410966 0.0224378 0.502331)
(0.0320491 -0.0153679 0.85192)
(0.0347441 0.00941092 0.0117529)
(0.0241059 0.00627833 0.488008)
(0.0620708 0.060231 -0.450418)
(0.0612595 0.00922775 -0.606589)
(0.0420882 0.0142196 -0.227163)
(0.0402772 -0.00562938 -0.0336098)
(0.0136336 0.030893 0.966549)
(0.0141581 -0.00997976 -0.586947)
(0.016529 0.0202177 0.262184)
(0.001032 -0.0461934 0.201616)
(0.00503133 0.00795107 -0.107975)
(0.0267801 -0.00992194 0.741511)
(0.035673 0.02042 -0.236136)
(0.018384 -0.0319973 0.460519)
(-0.00464679 -0.0210353 0.576574)
(0.0558901 0.0172415 -0.341438)
(0.0694527 0.029773 0.0564571)
(0.0684464 0.015572 -0.217605)
(0.0162422 -0.000883732 -0.473346)
(0.0467213 0.0105137 -0.532359)
(0.0501857 0.0365681 -0.480508)
(0.0382779 0.032161 0.0519162)
(-0.00253869 0.0190256 0.860976)
(0.00268555 -0.0102696 -0.263728)
(-0.0157619 0.00274123 0.640029)
(-0.0447915 0.0297214 0.31047)
(-0.0395558 -0.0162606 0.523284)
(-0.0399005 -0.0359105 0.612312)
(-0.0963462 0.0400885 0.468389)
(-0.0456962 0.0167208 0.638358)
(-0.027864 -0.0369196 0.243171)
(-0.0573218 -0.0512724 0.0180941)
(-0.125476 -0.0125288 0.0558232)
(-0.00877814 0.0601284 0.353503)
(0.0413726 -0.142697 0.556331)
(0.0163898 -0.0375263 -0.446645)
(-0.0910767 -0.0465527 -0.51644)
(0.0378879 0.106159 -0.43976)
(0.0795074 -0.0665369 -0.232465)
(-0.0133364 -0.0236296 -0.473891)
(-0.0120004 -0.0257983 -0.318431)
(-0.0105522 0.0152825 -0.240031)
(-0.00883114 -0.0283716 -0.428237)
(-0.0154061 -0.0315692 -0.0882247)
(-0.0143462 -0.0292706 -0.0346954)
(-0.0112792 -0.0311193 0.0254032)
(-0.0105298 -0.0276973 0.0597229)
(-0.0135098 -0.0299945 -0.059447)
(-0.0134976 -0.0264144 -0.0180932)
(-0.00966546 -0.0300417 0.0300998)
(-0.00964981 -0.0263082 0.0575911)
(-0.0117039 -0.0261662 -0.0525956)
(-0.011728 -0.0231492 -0.0184731)
(-0.00859684 -0.0261085 0.0234601)
(-0.00861698 -0.0231009 0.044038)
(-0.010125 -0.0226505 -0.0458558)
(-0.0101382 -0.0201975 -0.0165063)
(-0.00762287 -0.0226004 0.0198391)
(-0.00764 -0.0201739 0.0384521)
(-0.00876243 -0.019602 -0.0398724)
(-0.00877187 -0.0176237 -0.0145472)
(-0.00674773 -0.0195635 0.0168998)
(-0.00676093 -0.0176061 0.0335569)
(-0.00758699 -0.0169672 -0.0346937)
(-0.00759389 -0.0153747 -0.0128363)
(-0.00596678 -0.016938 0.0143751)
(-0.00597686 -0.0153611 0.0292152)
(-0.00657251 -0.0146898 -0.0302121)
(-0.00657759 -0.0134095 -0.0113378)
(-0.0052712 -0.0146677 0.0122103)
(-0.00527888 -0.0133991 0.0254097)
(-0.00569639 -0.0127208 -0.0263317)
(-0.00570014 -0.0116931 -0.0100238)
(-0.00465262 -0.012704 0.0103547)
(-0.00465847 -0.011685 0.0220778)
(-0.00493931 -0.011018 -0.022971)
(-0.00494209 -0.0101942 -0.00887196)
(-0.00410334 -0.0110053 0.00876338)
(-0.00410779 -0.010188 0.0191614)
(-0.00428466 -0.00954493 -0.0200597)
(-0.00428673 -0.00888575 -0.00786277)
(-0.00361625 -0.00953532 0.00739813)
(-0.00361963 -0.00888098 0.0166095)
(-0.00371825 -0.00827032 -0.0175371)
(-0.00371978 -0.00774394 -0.0069797)
(-0.00318484 -0.00826306 0.00622647)
(-0.00318741 -0.00774027 0.0143775)
(-0.00322789 -0.00716714 -0.015351)
(-0.00322904 -0.00674776 -0.0062076)
(-0.00280319 -0.00716165 0.00522064)
(-0.00280514 -0.00674495 0.0124259)
(-0.00280312 -0.00621206 -0.013455)
(-0.00280398 -0.00587887 -0.00553273)
(-0.00246589 -0.00620792 0.00435691)
(-0.00246737 -0.00587671 0.0107202)
(-0.00243508 -0.00538511 -0.01181)
(-0.00243572 -0.00512118 -0.00494315)
(-0.00216808 -0.00538199 0.00361454)
(-0.0021692 -0.00511952 0.00922986)
(-0.002116 -0.00466897 -0.0103835)
(-0.00211648 -0.0044606 -0.00442856)
(-0.0019053 -0.00466662 0.00297723)
(-0.00190615 -0.00445933 0.00792802)
(-0.00183926 -0.00404856 -0.00914572)
(-0.00183962 -0.00388479 -0.00397924)
(-0.00167373 -0.00404679 0.00243008)
(-0.00167437 -0.00388383 0.00679155)
(-0.0015991 -0.00351103 -0.0080715)
(-0.00159937 -0.00338298 -0.00358705)
(-0.00146972 -0.00350969 0.00195921)
(-0.00147021 -0.00338224 0.00579965)
(-0.00139063 -0.00304522 -0.00713906)
(-0.00139083 -0.00294572 -0.0032454)
(-0.00129012 -0.00304421 0.00155412)
(-0.00129049 -0.00294516 0.00493374)
(-0.0012096 -0.0026415 -0.00632959)
(-0.00120975 -0.00256477 -0.00294788)
(-0.0011321 -0.00264075 0.0012055)
(-0.00113238 -0.00256434 0.00417805)
(-0.00105235 -0.00229156 -0.0056268)
(-0.00105247 -0.00223292 -0.00268892)
(-0.000993132 -0.00229099 0.000905309)
(-0.000993343 -0.00223259 0.00351865)
(-0.000915731 -0.00198818 -0.00501659)
(-0.00091582 -0.00194386 -0.00246369)
(-0.000870973 -0.00198775 0.000646679)
(-0.000871133 -0.00194361 0.00294331)
(-0.000797003 -0.00172515 -0.00448673)
(-0.00079707 -0.00169211 -0.00226789)
(-0.000763631 -0.00172483 0.000423754)
(-0.000763752 -0.00169192 0.00244136)
(-0.000693804 -0.00149707 -0.0040266)
(-0.000693855 -0.00147286 -0.00209775)
(-0.00066934 -0.00149683 0.000231535)
(-0.000669431 -0.00147272 0.00200349)
(-0.000604087 -0.00129929 -0.00362697)
(-0.000604126 -0.00128193 -0.00194995)
(-0.000586537 -0.00129911 6.57526e-05)
(-0.000586606 -0.00128182 0.00162154)
(-0.000526079 -0.00112777 -0.00327985)
(-0.000526109 -0.00111568 -0.00182157)
(-0.00051384 -0.00112764 -7.72409e-05)
(-0.000513892 -0.00111559 0.00128845)
(-0.000458243 -0.000979014 -0.00297828)
(-0.000458265 -0.000970912 -0.00171003)
(-0.000450031 -0.000978913 -0.000200564)
(-0.00045007 -0.000970848 0.000997988)
(-0.000399244 -0.00084999 -0.00271623)
(-0.000399261 -0.000844864 -0.00161313)
(-0.000394035 -0.000849914 -0.000306888)
(-0.000394065 -0.000844816 0.000744737)
(-0.000347924 -0.000738074 -0.0024885)
(-0.000347937 -0.000735121 -0.00152891)
(-0.000344909 -0.000738017 -0.000398537)
(-0.000344931 -0.000735084 0.000523952)
(-0.000303279 -0.000640991 -0.00229058)
(-0.000303289 -0.000639578 -0.00145572)
(-0.000301819 -0.000640948 -0.000477535)
(-0.000301835 -0.00063955 0.000331489)
(-0.000264435 -0.00055677 -0.00211859)
(-0.000264442 -0.000556403 -0.00139214)
(-0.000264032 -0.000556738 -0.000545634)
(-0.000264045 -0.000556382 0.000163703)
(-0.000230631 -0.000483697 -0.00196921)
(-0.000230637 -0.000483999 -0.00133696)
(-0.000230906 -0.000483673 -0.000604382)
(-0.000230915 -0.000483983 1.73838e-05)
(-0.000201209 -0.000420291 -0.00183952)
(-0.000201213 -0.000420975 -0.00128916)
(-0.000201873 -0.000420273 -0.000655156)
(-0.00020188 -0.000420963 -0.000110297)
(-0.000175595 -0.000365264 -0.00172707)
(-0.000175598 -0.000366119 -0.0012479)
(-0.000176434 -0.000365251 -0.00069917)
(-0.000176439 -0.00036611 -0.000221828)
(-0.000153292 -0.000317505 -0.00162969)
(-0.000153294 -0.000318375 -0.00121243)
(-0.00015415 -0.000317495 -0.000737494)
(-0.000154154 -0.000318368 -0.000319395)
(-0.000133869 -0.000276049 -0.00154556)
(-0.000133871 -0.000276822 -0.00118216)
(-0.000134633 -0.000276042 -0.00077106)
(-0.000134637 -0.000276817 -0.000404914)
(-0.000116953 -0.00024006 -0.00147306)
(-0.000116955 -0.000240657 -0.00115656)
(-0.000117543 -0.000240055 -0.000800678)
(-0.000117546 -0.000240653 -0.000480068)
(-0.000102219 -0.000208815 -0.00141081)
(-0.00010222 -0.00020918 -0.00113513)
(-0.000102579 -0.000208811 -0.000827038)
(-0.000102581 -0.000209177 -0.000546327)
(-8.93857e-05 -0.000181687 -0.00135758)
(-8.93866e-05 -0.000181783 -0.00111746)
(-8.94776e-05 -0.000181684 -0.000850719)
(-8.9479e-05 -0.000181781 -0.000604953)
(-7.82076e-05 -0.000158133 -0.00131228)
(-7.82083e-05 -0.000157936 -0.00110314)
(-7.80071e-05 -0.000158131 -0.000872195)
(-7.80082e-05 -0.000157934 -0.000657021)
(-6.84721e-05 -0.000137683 -0.00127394)
(-6.84726e-05 -0.000137177 -0.0010918)
(-6.79642e-05 -0.000137681 -0.000891842)
(-6.7965e-05 -0.000137176 -0.000703436)
(-5.9994e-05 -0.000119927 -0.00124168)
(-5.99943e-05 -0.000119104 -0.00108308)
(-5.917e-05 -0.000119926 -0.000909941)
(-5.91706e-05 -0.000119104 -0.000744952)
(-5.26119e-05 -0.000104512 -0.0012147)
(-5.26122e-05 -0.000103369 -0.0010766)
(-5.14682e-05 -0.000104511 -0.000926688)
(-5.14687e-05 -0.000103369 -0.000782194)
(-4.61851e-05 -9.11289e-05 -0.00119224)
(-4.61852e-05 -8.96678e-05 -0.00107202)
(-4.47231e-05 -9.11282e-05 -0.000942208)
(-4.47234e-05 -8.96674e-05 -0.000815663)
(-4.05903e-05 -7.95108e-05 -0.00117364)
(-4.05903e-05 -7.7737e-05 -0.00106899)
(-3.88158e-05 -7.95102e-05 -0.000956571)
(-3.88161e-05 -7.77366e-05 -0.000845753)
(-3.57195e-05 -6.9424e-05 -0.00115827)
(-3.57197e-05 -6.73481e-05 -0.00106715)
(-3.36431e-05 -6.94236e-05 -0.000969794)
(-3.36433e-05 -6.73478e-05 -0.000872774)
(-3.1478e-05 -6.06652e-05 -0.00114555)
(-3.14781e-05 -5.8303e-05 -0.00106617)
(-2.91153e-05 -6.0665e-05 -0.000981862)
(-2.91155e-05 -5.83028e-05 -0.000896967)
(-2.77821e-05 -5.30573e-05 -0.00113495)
(-2.77822e-05 -5.04303e-05 -0.00106576)
(-2.51549e-05 -5.3057e-05 -0.000992735)
(-2.5155e-05 -5.04302e-05 -0.000918517)
(-2.45583e-05 -4.64452e-05 -0.00112602)
(-2.45583e-05 -4.35818e-05 -0.00106561)
(-2.16947e-05 -4.6445e-05 -0.00100236)
(-2.16948e-05 -4.35817e-05 -0.000937573)
(-2.17414e-05 -4.06937e-05 -0.00111832)
(-2.17414e-05 -3.76294e-05 -0.00106547)
(-1.86769e-05 -4.06935e-05 -0.00101069)
(-1.8677e-05 -3.76293e-05 -0.000954255)
(-1.92739e-05 -3.56844e-05 -0.00111149)
(-1.92739e-05 -3.24625e-05 -0.00106513)
(-1.60518e-05 -3.56844e-05 -0.00101768)
(-1.60518e-05 -3.24624e-05 -0.000968672)
(-1.71052e-05 -3.13142e-05 -0.00110525)
(-1.71052e-05 -2.79855e-05 -0.00106441)
(-1.37763e-05 -3.13142e-05 -0.00102332)
(-1.37764e-05 -2.79855e-05 -0.000980928)
(-1.51905e-05 -2.74929e-05 -0.00109932)
(-1.51905e-05 -2.41159e-05 -0.00106318)
(-1.18134e-05 -2.74929e-05 -0.00102759)
(-1.18134e-05 -2.41159e-05 -0.000991131)
(-1.34909e-05 -2.41422e-05 -0.00109354)
(-1.34909e-05 -2.0782e-05 -0.00106135)
(-1.01307e-05 -2.41421e-05 -0.00103054)
(-1.01307e-05 -2.0782e-05 -0.000999399)
(-1.19722e-05 -2.1194e-05 -0.00108775)
(-1.19722e-05 -1.79215e-05 -0.0010589)
(-8.69975e-06 -2.11939e-05 -0.00103222)
(-8.69977e-06 -1.79215e-05 -0.00100587)
(-1.06053e-05 -1.85897e-05 -0.00108188)
(-1.06053e-05 -1.548e-05 -0.00105581)
(-7.49551e-06 -1.85897e-05 -0.00103272)
(-7.49552e-06 -1.548e-05 -0.00101068)
(-9.36506e-06 -1.6279e-05 -0.00107588)
(-9.36507e-06 -1.34096e-05 -0.00105213)
(-6.49559e-06 -1.6279e-05 -0.00103216)
(-6.4956e-06 -1.34096e-05 -0.001014)
(-8.23058e-06 -1.42189e-05 -0.00106976)
(-8.23059e-06 -1.16679e-05 -0.00104795)
(-5.6796e-06 -1.42189e-05 -0.00103069)
(-5.6796e-06 -1.16679e-05 -0.00101602)
(-7.18518e-06 -1.23733e-05 -0.00106353)
(-7.18518e-06 -1.02163e-05 -0.00104338)
(-5.02814e-06 -1.23733e-05 -0.00102846)
(-5.02816e-06 -1.02163e-05 -0.00101689)
(-6.21566e-06 -1.07124e-05 -0.00105728)
(-6.21565e-06 -9.01971e-06 -0.00103854)
(-4.5229e-06 -1.07124e-05 -0.00102566)
(-4.52293e-06 -9.01971e-06 -0.00101684)
(-5.31206e-06 -9.21211e-06 -0.00105105)
(-5.31202e-06 -8.04645e-06 -0.00103357)
(-4.14633e-06 -9.21212e-06 -0.00102245)
(-4.14639e-06 -8.04642e-06 -0.00101604)
(-4.46738e-06 -7.85314e-06 -0.00104496)
(-4.4674e-06 -7.26727e-06 -0.00102861)
(-3.88147e-06 -7.85316e-06 -0.00101904)
(-3.88152e-06 -7.26731e-06 -0.0010147)
(-3.67728e-06 -6.62078e-06 -0.00103908)
(-3.67728e-06 -6.65533e-06 -0.0010238)
(-3.71179e-06 -6.62085e-06 -0.00101558)
(-3.71183e-06 -6.65534e-06 -0.00101298)
(-2.93971e-06 -5.50428e-06 -0.0010335)
(-2.93971e-06 -6.18558e-06 -0.00101927)
(-3.62099e-06 -5.50431e-06 -0.00101225)
(-3.62102e-06 -6.18558e-06 -0.00101106)
(-2.25469e-06 -4.49637e-06 -0.00102828)
(-2.2547e-06 -5.83478e-06 -0.00101513)
(-3.59309e-06 -4.49639e-06 -0.00100916)
(-3.59311e-06 -5.83478e-06 -0.00100908)
(-1.624e-06 -3.59272e-06 -0.0010235)
(-1.624e-06 -5.58156e-06 -0.00101146)
(-3.61283e-06 -3.59273e-06 -0.00100644)
(-3.61283e-06 -5.58156e-06 -0.00100717)
(-1.05041e-06 -2.79052e-06 -0.0010192)
(-1.05041e-06 -5.40645e-06 -0.00100833)
(-3.66633e-06 -2.79053e-06 -0.00100414)
(-3.66634e-06 -5.40645e-06 -0.00100544)
(-5.36889e-07 -2.08684e-06 -0.0010154)
(-5.3689e-07 -5.29226e-06 -0.00100577)
(-3.7423e-06 -2.08685e-06 -0.00100231)
(-3.74231e-06 -5.29226e-06 -0.00100394)
(-8.73307e-08 -1.48107e-06 -0.00101209)
(-8.733e-08 -5.22341e-06 -0.00100378)
(-3.82966e-06 -1.48107e-06 -0.00100096)
(-3.82966e-06 -5.22341e-06 -0.00100272)
(2.94236e-07 -9.73787e-07 -0.00100924)
(2.94252e-07 -5.18603e-06 -0.00100232)
(-3.91799e-06 -9.73787e-07 -0.00100008)
(-3.91799e-06 -5.18601e-06 -0.00100177)
(6.04073e-07 -5.65951e-07 -0.00100679)
(6.0406e-07 -5.16837e-06 -0.00100134)
(-3.99836e-06 -5.65951e-07 -0.000999638)
(-3.99836e-06 -5.16839e-06 -0.00100109)
(8.39461e-07 -2.58133e-07 -0.00100468)
(8.39409e-07 -5.16151e-06 -0.00100076)
(-4.06397e-06 -2.58134e-07 -0.000999546)
(-4.06397e-06 -5.16157e-06 -0.00100064)
(1.00781e-06 -4.12859e-08 -0.00100278)
(1.00774e-06 -5.16778e-06 -0.00100044)
(-4.11875e-06 -4.12866e-08 -0.000999702)
(-4.11875e-06 -5.16785e-06 -0.00100035)
(1.09274e-06 7.13326e-08 -0.00100103)
(1.09271e-06 -5.15758e-06 -0.00100017)
(-4.13621e-06 7.1332e-08 -0.000999892)
(-4.1362e-06 -5.15761e-06 -0.00100013)
)
;

boundaryField
{
    inlet
    {
        type            zeroGradient;
    }
    outlet
    {
        type            zeroGradient;
    }
    repeat_boundary
    {
        type            slip;
    }
}


// ************************************************************************* //
