/*--------------------------------*- C++ -*----------------------------------*\
| =========                 |                                                 |
| \\      /  F ield         | OpenFOAM: The Open Source CFD Toolbox           |
|  \\    /   O peration     | Version:  5.x                                   |
|   \\  /    A nd           | Web:      www.OpenFOAM.org                      |
|    \\/     M anipulation  |                                                 |
\*---------------------------------------------------------------------------*/
FoamFile
{
    version     2.0;
    format      ascii;
    class       volVectorField;
    location    "300";
    object      stored_U;
}
// * * * * * * * * * * * * * * * * * * * * * * * * * * * * * * * * * * * * * //

dimensions      [0 1 -1 0 0 0 0];

internalField   nonuniform List<vector> 
90
(
(1.49902e-09 -1.47111e-09 -0.000999997)
(3.29273e-09 -3.29565e-09 -0.000999997)
(5.28028e-09 -5.48444e-09 -0.000999996)
(7.35114e-09 -8.05693e-09 -0.000999996)
(9.52799e-09 -1.11723e-08 -0.000999995)
(1.18446e-08 -1.50198e-08 -0.000999994)
(1.43408e-08 -1.98239e-08 -0.000999993)
(1.70592e-08 -2.5861e-08 -0.00099999)
(2.004e-08 -3.34592e-08 -0.000999986)
(2.33151e-08 -4.3036e-08 -0.000999981)
(2.68973e-08 -5.5118e-08 -0.000999974)
(3.07712e-08 -7.03753e-08 -0.000999965)
(3.48798e-08 -8.96657e-08 -0.000999952)
(3.91013e-08 -1.14092e-07 -0.000999935)
(4.32166e-08 -1.45079e-07 -0.000999912)
(4.68655e-08 -1.84469e-07 -0.000999882)
(4.94865e-08 -2.34649e-07 -0.000999843)
(5.02346e-08 -2.9871e-07 -0.000999791)
(4.78706e-08 -3.80662e-07 -0.000999724)
(4.06167e-08 -4.8569e-07 -0.000999635)
(2.60738e-08 -6.20465e-07 -0.000999518)
(7.72409e-10 -7.93728e-07 -0.000999364)
(-4.02945e-08 -1.01695e-06 -0.000999157)
(-1.04675e-07 -1.30537e-06 -0.00099888)
(-2.02577e-07 -1.67885e-06 -0.00099851)
(-3.48158e-07 -2.16336e-06 -0.000998017)
(-5.61147e-07 -2.79299e-06 -0.000997357)
(-8.68658e-07 -3.61252e-06 -0.000996478)
(-1.3079e-06 -4.68087e-06 -0.000995304)
(-1.9298e-06 -6.07564e-06 -0.000993737)
(-2.80387e-06 -7.89912e-06 -0.000991647)
(-4.02484e-06 -1.02863e-05 -0.00098886)
(-5.7226e-06 -1.34172e-05 -0.000985157)
(-8.08323e-06 -1.75468e-05 -0.000980137)
(-1.1448e-05 -2.31655e-05 -0.000972202)
(-1.55005e-05 -2.96554e-05 -0.000963018)
(-2.13921e-05 -3.87894e-05 -0.000973413)
(-2.79205e-05 -4.82403e-05 -0.00105638)
(-4.65995e-05 -7.16604e-05 -0.000430737)
(4.41651e-05 5.48783e-05 -0.00194758)
(-7.47312e-06 -8.37732e-06 -0.00168669)
(-3.86056e-05 -6.33449e-05 -0.00155134)
(-3.08706e-05 -5.2079e-05 -0.00239652)
(-6.88275e-05 -5.10995e-05 -0.00215961)
(-9.11358e-05 -6.59383e-05 -0.00241806)
(-5.75677e-05 -1.95339e-05 -0.00182825)
(-7.04507e-05 4.22861e-05 -0.00258628)
(-2.77304e-05 7.87576e-05 -0.00176654)
(7.75931e-06 0.000101748 -0.00232098)
(-6.09467e-05 -2.55778e-06 -0.002316)
(-4.41405e-05 -4.20911e-06 -0.00160945)
(-2.02795e-05 4.7686e-05 -0.00165513)
(2.91559e-05 2.25263e-05 -0.00181753)
(3.97918e-05 3.14129e-06 -0.000992878)
(7.27466e-05 3.53409e-05 -0.00087977)
(5.79027e-05 3.09471e-05 -0.000918009)
(4.42023e-05 2.2863e-05 -0.000944365)
(3.3803e-05 1.66722e-05 -0.000958454)
(2.58962e-05 1.21437e-05 -0.000968437)
(1.98728e-05 8.83313e-06 -0.00097604)
(1.52776e-05 6.41486e-06 -0.000981803)
(1.1766e-05 4.65096e-06 -0.000986158)
(9.07773e-06 3.36649e-06 -0.000989451)
(7.01606e-06 2.43287e-06 -0.000991945)
(5.43212e-06 1.75427e-06 -0.000993837)
(4.21303e-06 1.26128e-06 -0.000995274)
(3.27303e-06 9.04382e-07 -0.000996368)
(2.54694e-06 6.46352e-07 -0.000997203)
(1.9851e-06 4.60088e-07 -0.000997841)
(1.54962e-06 3.25908e-07 -0.000998331)
(1.21151e-06 2.29486e-07 -0.000998707)
(9.48586e-07 1.604e-07 -0.000998996)
(7.43795e-07 1.11069e-07 -0.000999219)
(5.84036e-07 7.59843e-08 -0.000999392)
(4.59221e-07 5.11496e-08 -0.000999526)
(3.6157e-07 3.36718e-08 -0.000999629)
(2.85076e-07 2.14637e-08 -0.00099971)
(2.25096e-07 1.30256e-08 -0.000999773)
(1.78036e-07 7.28099e-09 -0.000999822)
(1.41097e-07 3.4359e-09 -0.000999861)
(1.12118e-07 9.46113e-10 -0.000999891)
(8.94079e-08 -6.01917e-10 -0.000999915)
(7.16455e-08 -1.51743e-09 -0.000999934)
(5.78026e-08 -2.02694e-09 -0.000999949)
(4.70858e-08 -2.28725e-09 -0.00099996)
(3.8885e-08 -2.40771e-09 -0.00099997)
(3.27328e-08 -2.46619e-09 -0.000999978)
(2.82542e-08 -2.52687e-09 -0.000999984)
(2.5089e-08 -2.62944e-09 -0.00099999)
(2.34375e-08 -2.52563e-09 -0.000999995)
)
;

boundaryField
{
    inlet
    {
        type            calculated;
        value           uniform (2.34375e-08 -2.52563e-09 -0.000999995);
    }
    outlet
    {
        type            calculated;
        value           uniform (1.49902e-09 -1.47111e-09 -0.000999997);
    }
    repeat_boundary
    {
        type            calculated;
        value           nonuniform List<vector> 
180
(
(1.49902e-09 0 -0.000999997)
(3.29273e-09 0 -0.000999997)
(5.28028e-09 0 -0.000999996)
(7.35114e-09 0 -0.000999996)
(9.52799e-09 0 -0.000999995)
(1.18446e-08 0 -0.000999994)
(1.43408e-08 0 -0.000999993)
(1.70592e-08 0 -0.00099999)
(2.004e-08 0 -0.000999986)
(2.33151e-08 0 -0.000999981)
(2.68973e-08 0 -0.000999974)
(3.07712e-08 0 -0.000999965)
(3.48798e-08 0 -0.000999952)
(3.91013e-08 0 -0.000999935)
(4.32166e-08 0 -0.000999912)
(4.68655e-08 0 -0.000999882)
(4.94865e-08 0 -0.000999843)
(5.02346e-08 0 -0.000999791)
(4.78706e-08 0 -0.000999724)
(4.06167e-08 0 -0.000999635)
(2.60738e-08 0 -0.000999518)
(7.72409e-10 0 -0.000999364)
(-4.02945e-08 0 -0.000999157)
(-1.04675e-07 0 -0.00099888)
(-2.02577e-07 0 -0.00099851)
(-3.48158e-07 0 -0.000998017)
(-5.61147e-07 0 -0.000997357)
(-8.68658e-07 0 -0.000996478)
(-1.3079e-06 0 -0.000995304)
(-1.9298e-06 0 -0.000993737)
(-2.80387e-06 0 -0.000991647)
(-4.02484e-06 0 -0.00098886)
(-5.7226e-06 0 -0.000985157)
(-8.08323e-06 0 -0.000980137)
(-1.1448e-05 0 -0.000972202)
(-1.55005e-05 0 -0.000963018)
(-2.13921e-05 0 -0.000973413)
(-2.79205e-05 0 -0.00105638)
(-4.65995e-05 0 -0.000430737)
(4.41651e-05 0 -0.00194758)
(-7.47312e-06 0 -0.00168669)
(-3.86056e-05 0 -0.00155134)
(-3.08706e-05 0 -0.00239652)
(-6.88275e-05 0 -0.00215961)
(-9.11358e-05 0 -0.00241806)
(-5.75677e-05 0 -0.00182825)
(-7.04507e-05 0 -0.00258628)
(-2.77304e-05 0 -0.00176654)
(7.75931e-06 0 -0.00232098)
(-6.09467e-05 0 -0.002316)
(-4.41405e-05 0 -0.00160945)
(-2.02795e-05 0 -0.00165513)
(2.91559e-05 0 -0.00181753)
(3.97918e-05 0 -0.000992878)
(7.27466e-05 0 -0.00087977)
(5.79027e-05 0 -0.000918009)
(4.42023e-05 0 -0.000944365)
(3.3803e-05 0 -0.000958454)
(2.58962e-05 0 -0.000968437)
(1.98728e-05 0 -0.00097604)
(1.52776e-05 0 -0.000981803)
(1.1766e-05 0 -0.000986158)
(9.07773e-06 0 -0.000989451)
(7.01606e-06 0 -0.000991945)
(5.43212e-06 0 -0.000993837)
(4.21303e-06 0 -0.000995274)
(3.27303e-06 0 -0.000996368)
(2.54694e-06 0 -0.000997203)
(1.9851e-06 0 -0.000997841)
(1.54962e-06 0 -0.000998331)
(1.21151e-06 0 -0.000998707)
(9.48586e-07 0 -0.000998996)
(7.43795e-07 0 -0.000999219)
(5.84036e-07 0 -0.000999392)
(4.59221e-07 0 -0.000999526)
(3.6157e-07 0 -0.000999629)
(2.85076e-07 0 -0.00099971)
(2.25096e-07 0 -0.000999773)
(1.78036e-07 0 -0.000999822)
(1.41097e-07 0 -0.000999861)
(1.12118e-07 0 -0.000999891)
(8.94079e-08 0 -0.000999915)
(7.16455e-08 0 -0.000999934)
(5.78026e-08 0 -0.000999949)
(4.70858e-08 0 -0.00099996)
(3.8885e-08 0 -0.00099997)
(3.27328e-08 0 -0.000999978)
(2.82542e-08 0 -0.000999984)
(2.5089e-08 0 -0.00099999)
(2.34375e-08 0 -0.000999995)
(0 -1.47111e-09 -0.000999997)
(0 -3.29565e-09 -0.000999997)
(0 -5.48444e-09 -0.000999996)
(0 -8.05693e-09 -0.000999996)
(0 -1.11723e-08 -0.000999995)
(0 -1.50198e-08 -0.000999994)
(0 -1.98239e-08 -0.000999993)
(0 -2.5861e-08 -0.00099999)
(0 -3.34592e-08 -0.000999986)
(0 -4.3036e-08 -0.000999981)
(0 -5.5118e-08 -0.000999974)
(0 -7.03753e-08 -0.000999965)
(0 -8.96657e-08 -0.000999952)
(0 -1.14092e-07 -0.000999935)
(0 -1.45079e-07 -0.000999912)
(0 -1.84469e-07 -0.000999882)
(0 -2.34649e-07 -0.000999843)
(0 -2.9871e-07 -0.000999791)
(0 -3.80662e-07 -0.000999724)
(0 -4.8569e-07 -0.000999635)
(0 -6.20465e-07 -0.000999518)
(0 -7.93728e-07 -0.000999364)
(0 -1.01695e-06 -0.000999157)
(0 -1.30537e-06 -0.00099888)
(0 -1.67885e-06 -0.00099851)
(0 -2.16336e-06 -0.000998017)
(0 -2.79299e-06 -0.000997357)
(0 -3.61252e-06 -0.000996478)
(0 -4.68087e-06 -0.000995304)
(0 -6.07564e-06 -0.000993737)
(0 -7.89912e-06 -0.000991647)
(0 -1.02863e-05 -0.00098886)
(0 -1.34172e-05 -0.000985157)
(0 -1.75468e-05 -0.000980137)
(0 -2.31655e-05 -0.000972202)
(0 -2.96554e-05 -0.000963018)
(0 -3.87894e-05 -0.000973413)
(0 -4.82403e-05 -0.00105638)
(0 -7.16604e-05 -0.000430737)
(0 5.48783e-05 -0.00194758)
(0 -8.37732e-06 -0.00168669)
(0 -6.33449e-05 -0.00155134)
(0 -5.2079e-05 -0.00239652)
(0 -5.10995e-05 -0.00215961)
(0 -6.59383e-05 -0.00241806)
(0 -1.95339e-05 -0.00182825)
(0 4.22861e-05 -0.00258628)
(0 7.87576e-05 -0.00176654)
(0 0.000101748 -0.00232098)
(0 -2.55778e-06 -0.002316)
(0 -4.20911e-06 -0.00160945)
(0 4.7686e-05 -0.00165513)
(0 2.25263e-05 -0.00181753)
(0 3.14129e-06 -0.000992878)
(0 3.53409e-05 -0.00087977)
(0 3.09471e-05 -0.000918009)
(0 2.2863e-05 -0.000944365)
(0 1.66722e-05 -0.000958454)
(0 1.21437e-05 -0.000968437)
(0 8.83313e-06 -0.00097604)
(0 6.41486e-06 -0.000981803)
(0 4.65096e-06 -0.000986158)
(0 3.36649e-06 -0.000989451)
(0 2.43287e-06 -0.000991945)
(0 1.75427e-06 -0.000993837)
(0 1.26128e-06 -0.000995274)
(0 9.04382e-07 -0.000996368)
(0 6.46352e-07 -0.000997203)
(0 4.60088e-07 -0.000997841)
(0 3.25908e-07 -0.000998331)
(0 2.29486e-07 -0.000998707)
(0 1.604e-07 -0.000998996)
(0 1.11069e-07 -0.000999219)
(0 7.59843e-08 -0.000999392)
(0 5.11496e-08 -0.000999526)
(0 3.36718e-08 -0.000999629)
(0 2.14637e-08 -0.00099971)
(0 1.30256e-08 -0.000999773)
(0 7.28099e-09 -0.000999822)
(0 3.4359e-09 -0.000999861)
(0 9.46113e-10 -0.000999891)
(0 -6.01917e-10 -0.000999915)
(0 -1.51743e-09 -0.000999934)
(0 -2.02694e-09 -0.000999949)
(0 -2.28725e-09 -0.00099996)
(0 -2.40771e-09 -0.00099997)
(0 -2.46619e-09 -0.000999978)
(0 -2.52687e-09 -0.000999984)
(0 -2.62944e-09 -0.00099999)
(0 -2.52563e-09 -0.000999995)
)
;
    }
    procBoundary0to1
    {
        type            processor;
        value           nonuniform List<vector> 
90
(
(1.49901e-09 -1.56377e-09 -0.000999977)
(3.29271e-09 -3.55112e-09 -0.000999977)
(5.28026e-09 -5.74514e-09 -0.000999976)
(7.35103e-09 -8.05475e-09 -0.000999975)
(9.52773e-09 -1.05213e-08 -0.000999973)
(1.18447e-08 -1.32016e-08 -0.00099997)
(1.4341e-08 -1.61621e-08 -0.000999966)
(1.70592e-08 -1.94786e-08 -0.000999961)
(2.004e-08 -2.32347e-08 -0.000999955)
(2.3315e-08 -2.75174e-08 -0.000999946)
(2.68972e-08 -3.24125e-08 -0.000999936)
(3.07711e-08 -3.79974e-08 -0.000999924)
(3.48797e-08 -4.43302e-08 -0.000999909)
(3.9101e-08 -5.14315e-08 -0.000999892)
(4.32161e-08 -5.92576e-08 -0.000999872)
(4.68649e-08 -6.76627e-08 -0.000999849)
(4.94854e-08 -7.63457e-08 -0.000999824)
(5.02328e-08 -8.47739e-08 -0.000999798)
(4.78676e-08 -9.20714e-08 -0.00099977)
(4.06114e-08 -9.68512e-08 -0.000999742)
(2.60644e-08 -9.71164e-08 -0.000999716)
(7.55389e-10 -8.99885e-08 -0.000999695)
(-4.03257e-08 -7.12919e-08 -0.000999685)
(-1.04732e-07 -3.48297e-08 -0.000999694)
(-2.02683e-07 2.79784e-08 -0.000999732)
(-3.48353e-07 1.29338e-07 -0.000999818)
(-5.61505e-07 2.86753e-07 -0.000999975)
(-8.6932e-07 5.24578e-07 -0.00100024)
(-1.30913e-06 8.76634e-07 -0.00100065)
(-1.93208e-06 1.3897e-06 -0.00100128)
(-2.8081e-06 2.12834e-06 -0.00100222)
(-4.03271e-06 3.18143e-06 -0.0010036)
(-5.73683e-06 4.67155e-06 -0.00100561)
(-8.10093e-06 6.76692e-06 -0.00100835)
(-1.13604e-05 9.68823e-06 -0.00101083)
(-1.58132e-05 1.37702e-05 -0.00101253)
(-2.1599e-05 1.93587e-05 -0.00104369)
(-2.80261e-05 2.5836e-05 -0.00122755)
(-4.54693e-05 3.73814e-05 -0.000356229)
(4.26917e-05 -1.8628e-05 -0.0025655)
(-4.57266e-06 2.09181e-06 -0.00120759)
(-6.63063e-05 2.14555e-05 -0.00296959)
(-2.4879e-05 2.16585e-05 -0.0019246)
(-8.59894e-05 3.08892e-05 -0.00318019)
(-8.59203e-05 -3.33152e-05 -0.00226052)
(-9.13607e-05 -9.1681e-06 -0.00323884)
(-6.52513e-05 5.26794e-05 -0.0019791)
(-3.08243e-05 0.000137236 -0.00329961)
(4.8552e-06 4.01617e-05 -0.00235039)
(-7.16967e-05 -1.17944e-05 -0.00272188)
(-6.30479e-05 -2.78203e-05 -0.00267358)
(-6.21732e-06 -2.62156e-05 -0.00167873)
(3.32222e-06 3.64558e-05 -0.00245417)
(9.80603e-05 -4.7183e-05 -0.00110639)
(7.8429e-05 -5.53094e-05 -0.00107702)
(5.77643e-05 -4.28705e-05 -0.00108114)
(4.39731e-05 -3.21966e-05 -0.00106595)
(3.3668e-05 -2.41883e-05 -0.0010504)
(2.58193e-05 -1.81821e-05 -0.00103847)
(1.98289e-05 -1.36699e-05 -0.00102947)
(1.52525e-05 -1.02803e-05 -0.00102262)
(1.17516e-05 -7.7342e-06 -0.00101739)
(9.06944e-06 -5.8216e-06 -0.00101339)
(7.01126e-06 -4.38497e-06 -0.00101032)
(5.42933e-06 -3.30453e-06 -0.00100797)
(4.2114e-06 -2.49121e-06 -0.00100616)
(3.27208e-06 -1.87949e-06 -0.00100477)
(2.54639e-06 -1.41907e-06 -0.0010037)
(1.98477e-06 -1.07229e-06 -0.00100287)
(1.54942e-06 -8.1093e-07 -0.00100223)
(1.2114e-06 -6.13811e-07 -0.00100174)
(9.48517e-07 -4.65038e-07 -0.00100135)
(7.43753e-07 -3.52665e-07 -0.00100106)
(5.84011e-07 -2.67715e-07 -0.00100083)
(4.59206e-07 -2.0344e-07 -0.00100065)
(3.61561e-07 -1.54764e-07 -0.00100051)
(2.8507e-07 -1.17869e-07 -0.0010004)
(2.25093e-07 -8.98822e-08 -0.00100031)
(1.78034e-07 -6.864e-08 -0.00100025)
(1.41096e-07 -5.25128e-08 -0.00100019)
(1.12117e-07 -4.02714e-08 -0.00100015)
(8.94074e-08 -3.09889e-08 -0.00100012)
(7.16451e-08 -2.39665e-08 -0.00100009)
(5.78023e-08 -1.86777e-08 -0.00100007)
(4.70859e-08 -1.47259e-08 -0.00100006)
(3.8885e-08 -1.1817e-08 -0.00100004)
(3.27328e-08 -9.73343e-09 -0.00100003)
(2.82548e-08 -8.32488e-09 -0.00100002)
(2.50884e-08 -7.45024e-09 -0.00100001)
(2.34374e-08 -6.87365e-09 -0.00100001)
)
;
    }
    procBoundary0to2
    {
        type            processor;
        value           nonuniform List<vector> 
90
(
(1.40681e-09 -1.47151e-09 -0.00100002)
(3.03781e-09 -3.29614e-09 -0.00100002)
(5.01844e-09 -5.48346e-09 -0.00100002)
(7.35278e-09 -8.05652e-09 -0.00100002)
(1.01778e-08 -1.11714e-08 -0.00100003)
(1.36623e-08 -1.50193e-08 -0.00100004)
(1.80045e-08 -1.98256e-08 -0.00100005)
(2.34418e-08 -2.58613e-08 -0.00100006)
(3.02647e-08 -3.34593e-08 -0.00100007)
(3.88339e-08 -4.30362e-08 -0.00100009)
(4.9603e-08 -5.51182e-08 -0.00100011)
(6.31495e-08 -7.03757e-08 -0.00100014)
(8.02158e-08 -8.96663e-08 -0.00100017)
(1.01763e-07 -1.14093e-07 -0.00100021)
(1.2904e-07 -1.45081e-07 -0.00100027)
(1.63674e-07 -1.84472e-07 -0.00100033)
(2.07793e-07 -2.34653e-07 -0.00100042)
(2.64177e-07 -2.98718e-07 -0.00100053)
(3.36472e-07 -3.80676e-07 -0.00100067)
(4.29472e-07 -4.85712e-07 -0.00100085)
(5.4945e-07 -6.20502e-07 -0.00100107)
(7.04557e-07 -7.9379e-07 -0.00100137)
(9.05432e-07 -1.01705e-06 -0.00100174)
(1.16599e-06 -1.30555e-06 -0.00100222)
(1.50445e-06 -1.67915e-06 -0.00100285)
(1.94487e-06 -2.16388e-06 -0.00100365)
(2.51914e-06 -2.79389e-06 -0.00100468)
(3.26934e-06 -3.61409e-06 -0.00100602)
(4.2511e-06 -4.68361e-06 -0.00100776)
(5.53805e-06 -6.08045e-06 -0.00101001)
(7.22777e-06 -7.90758e-06 -0.00101295)
(9.44989e-06 -1.03012e-05 -0.00101678)
(1.23775e-05 -1.34429e-05 -0.00102182)
(1.62432e-05 -1.75775e-05 -0.00102827)
(2.13502e-05 -2.30232e-05 -0.0010351)
(2.81161e-05 -3.01611e-05 -0.00104126)
(3.69155e-05 -3.91634e-05 -0.00107981)
(4.60074e-05 -4.824e-05 -0.00129362)
(6.09894e-05 -6.91122e-05 -0.000351143)
(-2.91705e-05 5.24212e-05 -0.00275334)
(2.77668e-06 -5.61649e-06 -0.00131971)
(6.38532e-05 -0.000106318 -0.00294385)
(5.14129e-05 -5.35878e-05 -0.00233361)
(1.01409e-05 -7.03221e-05 -0.00316584)
(-6.02602e-05 -6.30628e-05 -0.00218148)
(-7.9904e-05 -3.66938e-05 -0.00320768)
(-5.40282e-05 4.95755e-05 -0.00226493)
(-6.89468e-05 0.000164508 -0.00333415)
(-4.26222e-05 5.71617e-05 -0.00183313)
(-8.43017e-05 -5.66501e-06 -0.00328195)
(-8.24121e-05 5.90762e-06 -0.00206371)
(-6.04908e-05 1.4701e-05 -0.00204775)
(2.16476e-05 5.10242e-05 -0.00204966)
(-1.76849e-05 4.018e-05 -0.00146167)
(-2.65962e-05 4.0161e-05 -0.000960164)
(-1.72444e-05 3.14149e-05 -0.00101454)
(-1.10441e-05 2.28052e-05 -0.00101815)
(-7.12622e-06 1.66115e-05 -0.00101253)
(-4.46887e-06 1.21102e-05 -0.00100797)
(-2.6534e-06 8.8151e-06 -0.00100495)
(-1.43129e-06 6.40516e-06 -0.00100293)
(-6.27243e-07 4.64573e-06 -0.00100157)
(-1.15126e-07 3.36367e-06 -0.00100067)
(1.95405e-07 2.43134e-06 -0.0010001)
(3.71655e-07 1.75344e-06 -0.000999768)
(4.59554e-07 1.26082e-06 -0.000999579)
(4.88583e-07 9.04124e-07 -0.000999485)
(4.81177e-07 6.46206e-07 -0.000999456)
(4.52522e-07 4.60005e-07 -0.000999468)
(4.12662e-07 3.25861e-07 -0.000999502)
(3.68146e-07 2.29459e-07 -0.000999548)
(3.23107e-07 1.60384e-07 -0.000999599)
(2.80036e-07 1.1106e-07 -0.000999649)
(2.40322e-07 7.5979e-08 -0.000999698)
(2.04623e-07 5.11464e-08 -0.000999742)
(1.73129e-07 3.36699e-08 -0.000999781)
(1.4574e-07 2.14626e-08 -0.000999816)
(1.22187e-07 1.3025e-08 -0.000999846)
(1.02114e-07 7.28059e-09 -0.000999872)
(8.51478e-08 3.43566e-09 -0.000999894)
(7.09002e-08 9.45964e-10 -0.000999912)
(5.90207e-08 -6.02056e-10 -0.000999928)
(4.91961e-08 -1.51773e-09 -0.000999941)
(4.11516e-08 -2.02745e-09 -0.000999953)
(3.46473e-08 -2.28656e-09 -0.000999963)
(2.94758e-08 -2.40761e-09 -0.000999971)
(2.54657e-08 -2.46607e-09 -0.000999978)
(2.24569e-08 -2.52654e-09 -0.000999985)
(2.02674e-08 -2.62989e-09 -0.000999991)
(1.90893e-08 -2.52576e-09 -0.000999996)
)
;
    }
}


// ************************************************************************* //
