# vtk DataFile Version 4.0
Generated by LIGGGHTS
ASCII
DATASET POLYDATA
POINTS 57 float
518.694 -4219.69 7498.96 3284.85 -1983.68 7294.98 4197.26 746.026 7439.4 
-3145.69 4015.72 8512.79 4217.45 -1003.74 10524.3 -4130.01 2146 9601.59 
395.978 2610.26 10398.9 729.734 4137.58 13636.1 2993.67 1873.99 15615.8 
-2309 2445.13 16117 -596.854 3069.14 15775.7 4050.29 -4015.41 17512.1 
1560.05 -3141.57 16852 -701.993 927.345 16554.3 -2869.83 -4360.89 18734.6 
-2714.86 -3189.42 20103.7 -1261.31 -3544.52 19019.6 2613.23 -3542.5 19212.2 
-100.007 -2858.47 20204.9 836.093 -2307.48 19981.1 -3814.59 -1329.84 20118.7 
125.219 -1563.83 18361.6 1399.1 -1334.7 19979.1 4165.98 -1883.68 20084.6 
-3877.17 -318.466 18912.6 -2851.5 -799.255 19453.5 -855.993 -949.301 19966 
759.117 -326.288 19889.6 1954.86 -442.233 19622.3 -2852.63 237.872 20203.2 
3092.54 403.266 20131.4 -4275.19 1055.96 20018.7 -1957.73 1360.12 19987.9 
514.418 1719.01 20235.1 4133.47 1600.38 20112.7 1388.55 2275.47 17994.8 
3686.84 2730.17 20008 -4474.19 3232.16 20046.6 2947.82 3678.94 19863.4 
4233.45 3654.17 20052.9 -962.804 4053.2 20100.4 -4392.45 -4314.47 20336.9 
3034.78 -4499.76 20264.1 605.086 -3768.11 20396.3 -3923.89 -2561.9 20449.9 
-1845.48 -2198.17 20430.3 4234.59 -2976.01 20428.2 -1942.06 -920.279 20390.7 
-34.7712 405.222 20365.2 1763.98 540.026 20386.8 -3489.3 1956.14 20362.6 
-934.762 1982.12 20267.1 2390.64 1345.63 20471 -2780.63 3832.23 20450.3 
-1386.3 3059.08 20462.1 1744.52 3233.58 20258.8 1766.49 4409.25 20433.5 

VERTICES 57 114
1 0 
1 1 
1 2 
1 3 
1 4 
1 5 
1 6 
1 7 
1 8 
1 9 
1 10 
1 11 
1 12 
1 13 
1 14 
1 15 
1 16 
1 17 
1 18 
1 19 
1 20 
1 21 
1 22 
1 23 
1 24 
1 25 
1 26 
1 27 
1 28 
1 29 
1 30 
1 31 
1 32 
1 33 
1 34 
1 35 
1 36 
1 37 
1 38 
1 39 
1 40 
1 41 
1 42 
1 43 
1 44 
1 45 
1 46 
1 47 
1 48 
1 49 
1 50 
1 51 
1 52 
1 53 
1 54 
1 55 
1 56 

POINT_DATA 57
FIELD FieldData 7
id 1 57 int
50 14 46 57 43 52 13 39 47 
8 34 29 28 42 17 12 7 51 
11 56 27 18 22 20 54 15 1 
26 4 37 2 33 21 55 36 6 
41 9 5 38 32 48 31 23 49 
45 24 19 16 35 3 25 53 10 
40 44 30 
type 1 57 int
1 1 1 1 1 1 1 1 1 
1 1 1 1 1 1 1 1 1 
1 1 1 1 1 1 1 1 1 
1 1 1 1 1 1 1 1 1 
1 1 1 1 1 1 1 1 1 
1 1 1 1 1 1 1 1 1 
1 1 1 
i 3 57 int
0 0 0 0 0 0 0 0 0 
0 0 0 0 0 0 0 0 0 
0 0 0 0 0 0 0 0 0 
0 0 0 0 0 0 0 0 0 
0 0 0 0 0 0 0 0 0 
0 0 0 0 0 0 0 0 0 
0 0 0 0 0 0 0 0 0 
0 0 0 0 0 0 0 0 0 
0 0 0 0 0 0 0 0 0 
0 0 0 0 0 0 0 0 0 
0 0 0 0 0 0 0 0 0 
0 0 0 0 0 0 0 0 0 
0 0 0 0 0 0 0 0 0 
0 0 0 0 0 0 0 0 0 
0 0 0 0 0 0 0 0 0 
0 0 0 0 0 0 0 0 0 
0 0 0 0 0 0 0 0 0 
0 0 0 0 0 0 0 0 0 
0 0 0 0 0 0 0 0 0 

v 3 57 double
0 0 -0.49535 0 0 -0.499372 0 0 -0.496527 
0 0 -0.474847 0 0 -0.43129 0 0 -0.451793 
0 0 -0.434135 0 0 -0.353497 0 0 -0.29346 
0 0 -0.276194 0 0 -0.288064 0 0 -0.22116 
0 0 -0.248726 0 0 -0.260204 0 0 -0.157886 
-0 -0 -0.01 0 0 -0.139051 0 0 -0.124728 
-0 -0 -0.01 0 0 -0.0217229 -0 -0 -0.01 
0 0 -0.179566 0 0 -0.0226058 -0 -0 -0.01 
0 0 -0.146408 0 0 -0.104029 0 0 -0.027707 
0 0 -0.0476214 0 0 -0.0866651 -0 -0 -0.01 
-0 -0 -0.01 -0 -0 -0.01 0 0 -0.0183875 
-0 -0 -0.01 -0 -0 -0.01 0 0 -0.198597 
-0 -0 -0.01 -0 -0 -0.01 0 0 -0.0527226 
-0 -0 -0.01 -0 -0 -0.01 -0 -0 -0.01 
-0 -0 -0.01 -0 -0 -0.01 -0 -0 -0.01 
-0 -0 -0.01 -0 -0 -0.01 -0 -0 -0.01 
-0 -0 -0.01 -0 -0 -0.01 -0 -0 -0.01 
-0 -0 -0.01 -0 -0 -0.01 -0 -0 -0.01 
-0 -0 -0.01 -0 -0 -0.01 -0 -0 -0.01 

f 3 57 double
0 0 -12841.3 0 0 -12841.3 0 0 -12841.3 
0 0 -12841.3 0 0 -12841.3 0 0 -12841.3 
0 0 -12841.3 0 0 -12841.3 0 0 -12841.3 
0 0 -12841.3 0 0 -12841.3 0 0 -12841.3 
0 0 -12841.3 0 0 -12841.3 0 0 -12841.3 
0 0 0 0 0 -12841.3 0 0 -12841.3 
0 0 0 0 0 -12841.3 0 0 0 
0 0 -12841.3 0 0 -12841.3 0 0 0 
0 0 -12841.3 0 0 -12841.3 0 0 -12841.3 
0 0 -12841.3 0 0 -12841.3 0 0 0 
0 0 0 0 0 0 0 0 -12841.3 
0 0 0 0 0 0 0 0 -12841.3 
0 0 0 0 0 0 0 0 -12841.3 
0 0 0 0 0 0 0 0 0 
0 0 0 0 0 0 0 0 0 
0 0 0 0 0 0 0 0 0 
0 0 0 0 0 0 0 0 0 
0 0 0 0 0 0 0 0 0 
0 0 0 0 0 0 0 0 0 

radius 1 57 double
500 500 500 500 500 500 500 500 500 
500 500 500 500 500 500 500 500 500 
500 500 500 500 500 500 500 500 500 
500 500 500 500 500 500 500 500 500 
500 500 500 500 500 500 500 500 500 
500 500 500 500 500 500 500 500 500 
500 500 500 
omega 3 57 double
0 0 0 0 0 0 0 0 0 
0 0 0 0 0 0 0 0 0 
0 0 0 0 0 0 0 0 0 
0 0 0 0 0 0 0 0 0 
0 0 0 0 0 0 0 0 0 
0 0 0 0 0 0 0 0 0 
0 0 0 0 0 0 0 0 0 
0 0 0 0 0 0 0 0 0 
0 0 0 0 0 0 0 0 0 
0 0 0 0 0 0 0 0 0 
0 0 0 0 0 0 0 0 0 
0 0 0 0 0 0 0 0 0 
0 0 0 0 0 0 0 0 0 
0 0 0 0 0 0 0 0 0 
0 0 0 0 0 0 0 0 0 
0 0 0 0 0 0 0 0 0 
0 0 0 0 0 0 0 0 0 
0 0 0 0 0 0 0 0 0 
0 0 0 0 0 0 0 0 0 

