# vtk DataFile Version 4.0
Generated by LIGGGHTS
ASCII
DATASET POLYDATA
POINTS 1176 float
-4336.84 -4886.56 498.819 -3769.53 -4063.99 499.009 -3313.41 -4954.66 498.978 
-2653.85 -4203.66 499.674 -1605.31 -4279.45 498.777 -364.862 -4453.36 496.57 
632.706 -4519.56 499.096 1613.77 -4726.13 498.986 2612.39 -4772.1 498.022 
3668.32 -4755.13 496.911 4666.51 -4819.22 498.333 -4775.1 -3981.19 498.58 
-4206.64 -3159.56 498.796 -3210.16 -3235.97 497.796 -2213.19 -3306.45 498.533 
-887.302 -3566.85 498.843 165.68 -3606.39 498.967 1163.95 -3672.94 498.875 
2147.38 -3882.28 499.388 3146.73 -3903.65 498.106 3700.5 -3071.76 498.767 
4226.95 -3921.34 497.528 4777.37 -3087.19 498.67 -4619.28 -2192.68 499.442 
-3624.86 -2286.77 499.073 -2628.07 -2356.92 499.176 -1408.42 -2713.61 497.848 
-404.919 -2665.8 499.699 387.347 -2054.32 497.249 1352.81 -2317.83 498.85 
2175.89 -2883.98 498.691 4386.36 -2099.03 498.134 -4686.87 -1117.58 498.804 
-3389.17 -1194.64 498.222 -2390.18 -1176.57 497.798 -1550.19 -1720.64 499.699 
-506.779 -1608.55 498.34 1105.92 -1349.63 498.191 2181.38 -1759.48 498.562 
3417.47 -1854.63 497.631 -4402.56 -159.078 498.231 -3385.44 -191.724 497.317 
-2394.24 -56.442 499.699 -1529.44 -559.593 497.129 216.393 -887.702 498.073 
1939.46 -789.896 498.983 2919.85 -986.243 499.02 2597.22 -38.0996 498.434 
3598.03 -78.5161 498.023 4069.12 -982.944 498.867 4598.56 -133.922 498.314 
-4866.73 725.825 499.187 -3866.87 684.161 499.365 -2876.7 820.999 497.116 
-1509.34 438.515 497.301 -551.838 142.038 499.026 511.764 66.9892 499.221 
1624.77 192.232 497.884 3132.28 805.838 498.912 4134.56 764.818 498.905 
-4489.29 1650.49 498.123 -3490.66 1609.47 498.993 -2518.75 1656.9 907.509 
-1636.45 1429.03 498.204 -562.593 1141.05 498.984 5.03311 1963.34 498.633 
440.036 1063.58 499.304 1496.76 1183.53 497.915 2488.75 1591.41 498.971 
3477.03 1743.4 498.605 4512 1690.94 497.855 -4953.41 2535.73 498.184 
-3954.89 2494.54 498.922 -2956.43 2453.72 497.586 -1958.52 2374.08 497.341 
-977.061 2180.14 499.188 -291.142 2917.64 498.538 689.204 2691.2 498.425 
1694.59 2198.68 499.634 2953.87 2602.86 498.727 4034.83 2573.09 498.788 
-4417.84 3380.2 498.887 -3419.53 3338.47 498.734 -2363.26 3287.13 498.232 
-1284.17 3131.51 499.677 -606.074 3866.39 499.039 438.229 3658.58 499.107 
1555.8 3188.82 498.545 2580.39 3529.42 499.148 3585.78 3482.42 498.345 
4584.57 3423.38 497.652 -4880.02 4267.08 499.008 -3881.84 4223.67 499.05 
-2190.25 4910.32 499.528 -2850.05 4159.61 498.627 -1686.1 4046.97 499.27 
-1006.65 4782.06 497.372 57.0546 4620.47 498.421 1042.25 4454.88 498.03 
2042.01 4371.04 498.717 3123.41 4368.79 499.566 4122.33 4330.51 499.67 
-4296.45 -4305.35 1312.94 -3289.95 -4380.97 1316.13 -2339.99 -4418.92 1621.67 
-1531.2 -4894.31 1282.38 -852.021 -4146.92 1311.16 143.672 -4228.91 1323.8 
1309.92 -4232.92 1313.29 2350.5 -4350 1364.21 3684.14 -4161.83 1299.77 
4706.99 -4240.78 1312.04 -4741.48 -3405.2 1314.85 -3728.79 -3483.38 1315.66 
-2731.67 -3552.97 1315.35 -1741.49 -3688.57 1292.87 -349.351 -3281.25 1291.4 
726.254 -3542.78 1753.08 1670.02 -3281.83 1266.43 2659.23 -3411.54 1216.8 
3414.94 -3153.42 1815.41 4260.38 -3345.89 1313.7 -4167.42 -2586.2 1315.43 
-3156.66 -2649.42 1303.29 -2073.33 -2679.64 1264.75 -1233.62 -2949.76 1733.81 
-970.339 -2151.69 1195.65 -5.901 -2345.59 1366.25 712.106 -2918.3 973.843 
1909.89 -2248.02 1326.24 1163.99 -2651.62 1853.44 2858.12 -2442.75 1078.42 
3840.25 -2440.97 1260.1 4837.55 -2491.79 1298.49 -4064.5 -1617.17 1099.67 
-4699.77 -1798.51 1848.64 -3421.55 -1146.69 1928.88 -2883.01 -1693.4 1201.94 
-1773.17 -1126.74 1279.95 -1691.12 -1939.54 1852.83 -906.308 -1315.73 1736.78 
885.827 -1845.34 1336.24 18.9978 -1348.05 1361.45 1701 -1267.62 1343.84 
2674.42 -1492.74 1324.87 3664.14 -1362.12 1329.31 4651.54 -1422.96 1184.4 
-4910.63 -529.338 1274.58 -3907.79 -638.453 1220.38 -2898.26 -694.19 1209.5 
-2241.76 -99.4768 1668.63 -1301.95 -64.2266 1333.6 -662.039 -736.357 960.82 
818.075 -985.361 1838.67 206.391 -366.082 1349.47 1140.94 -503.045 1025.88 
1193.63 -37.8755 1907.45 2046.33 -195.36 1317.64 3083.3 -400.115 1291.42 
4082.45 -394.179 1312.48 -4204.09 305.592 1360.73 -3089.7 295.291 1317.38 
-2154.11 769.172 1183.92 -1181.48 983.595 1267.05 -342.673 464.499 1421.37 
1028.05 619.698 1174.83 2267.11 760.902 1008.79 2756.73 400.128 1801.83 
3621.85 497.437 1313.2 4627.07 443.529 1312.68 -4006.74 1283.08 1291.16 
-3068.95 1244.22 1629.88 -1678.2 1952.3 1358.25 -11.7965 1402.03 1324.15 
888.915 1827.95 961.159 1758.32 1529.14 1397.42 3004.08 1357.66 1322.35 
4000.69 1421.86 1312.18 4998.63 1371.01 1309.33 -4469.54 2224.33 1315.39 
-3471.12 2183.21 1316.38 -2566.5 2208.39 1738.57 -1862.39 2959.75 1297.69 
-437.565 2309.49 1330.01 441.331 2174.22 1785.41 1184.57 2693.25 1365.43 
2481.63 2208.11 1285.42 3476.21 2331.17 1305.37 4531.08 2268.95 1311.47 
-4395.29 3955.32 1315.96 -4931.09 3111.1 1313.6 -3930.67 3070.52 1314.61 
-3381.41 3920.12 1310.15 -2904.06 3042.93 1301.59 -2280.52 3893.56 1288.37 
-715.501 3283.59 1325.25 259.517 3066.71 1318.31 734.302 3746.41 1875.34 
1460.23 3888.96 1205.59 2085.3 3123.13 1342.28 3075.3 3245.5 1322.64 
4070.46 3155.62 1309.19 -4855.87 4848.57 1311.11 -3857.57 4797.5 1316.17 
-2794.28 4751.02 1301.26 -1110.35 4200.24 1301.45 -438.306 4943.23 1303.92 
-30.628 4030.41 1298.9 628.297 4883.35 1299.88 1807.97 4811.79 1363.57 
2581.26 4123.38 1302.85 3146.05 4967.02 1300.3 3613.15 4083.16 1384.44 
4606.31 4000.41 1313.76 4147.01 4922.96 1310.53 -4823.17 -4576.82 2127.82 
-4310.84 -4323.38 2949.97 -3825.45 -4628.06 2132.31 -3037.63 -4018.41 2212.48 
-2270.13 -4496.86 2637.81 -1463.93 -4295.57 2084.71 -873.109 -4283.43 2909.1 
-261.492 -4566.39 2171.96 731.885 -4503.46 2082.08 1759.92 -4563.73 2142.28 
2528.52 -4526.4 2845.22 3043.32 -4179.53 2064.19 3551.7 -4608.71 2892.01 
4165.18 -4483.9 2113.53 4630.42 -4793.94 2939.11 -4278.09 -3737.83 2135.47 
-3395.22 -3086.04 2170.17 -2299.01 -3216.5 2149.43 -1595.53 -3592.51 2779.97 
-670.34 -3654.84 2160.95 312.38 -3780.69 2632.41 1306.05 -3765.01 2534.79 
2174.94 -3652.1 2056.68 2927.62 -3382.94 2656.42 3890.64 -3631.01 2552 
4859.02 -3825.06 2703.56 4708.81 -3012.7 2141.77 -4337.69 -2752.22 2285.07 
-3611.8 -2121.89 2018.21 -3560.52 -2482.3 2949.39 -2612 -2272.75 2049.97 
-1632.49 -2614.02 2585.26 -708.77 -2910.35 2826.54 -627.543 -2190.97 2133.89 
834.158 -2913.53 2757.83 33.9791 -2946.64 2160.52 414.419 -2007.02 2207.54 
1787.84 -2537.4 2624.57 2527.44 -2721.17 1978.32 2945.85 -2398.68 2825.99 
3246.13 -2027.01 1948.05 3872.36 -2633.31 2535.21 4930.98 -2223.58 2713.42 
-4185.37 -1656.06 2692.61 -3051.5 -1657.64 2703.98 -2436.63 -1291.19 2006.41 
-1952.69 -1688.42 2784.96 -1046.36 -1269.94 2725.52 -120.945 -1172.18 2334.4 
749.605 -1156.24 2819.8 1375.48 -1732.13 2200.07 2368.11 -1722.54 2315.47 
3232.03 -1209.65 2522.74 4912.62 -1226.23 2670.46 4319.29 -1936.75 1976.41 
4008.94 -1713.81 2899.46 -4373.24 -865.233 2073.72 -4336.21 -27.9188 2692.8 
-3591.73 -169.233 2042.94 -3703.44 -789.616 2816.92 -2736.34 -460.139 2471.43 
-1535.52 -642.294 2120 -1006.96 -203.039 2844.67 -587.128 -375.091 1955.46 
327.467 -276.579 2343.27 1594.34 -785.19 2434.9 2494.44 -781.768 2002.05 
3410.72 -271.883 2225.5 4117.01 -970.654 2126.31 4829.41 -275.892 2204.7 
-4785.23 640.455 2101.37 -3800.38 802.647 2147.88 -2783.78 510.99 2244.08 
-1897.95 176.196 2564.98 -1056.25 490.833 2126.75 -239.676 542.324 2698.84 
455.696 654.079 1991.72 1357.89 359.944 2808.03 1831.03 727.34 1989.18 
2259.75 3.64904 2571.6 2190.55 946.894 2895.92 3094.99 526.072 2737.65 
4121.98 427.942 2173.87 -4463.24 1622.26 2113.37 -3506.98 1877.28 2267.47 
-2625.49 1464.7 2496.51 -1798.2 1153.52 2033.69 -1183.69 1199.75 2820.23 
-939.263 1658.7 1961.55 -26.5975 1470.99 2320.19 649.886 1053.84 2924.31 
1052.3 1448.76 2099.61 1594.72 1752.82 2882.67 2440.61 1536.48 2128.32 
3521.05 1226.5 2166.68 4513.81 1346.78 2182.34 -4140.08 2518.72 2699.99 
-4960.11 2532.15 2129.1 -3410.15 2930.02 2155.46 -2785.04 2418.19 2743.26 
-1160.2 2633.89 1939.26 -1841.18 2077.46 2412.19 -1600.93 2983.48 2765.14 
-600.029 2197.25 2729.94 -248.68 2970.86 2173.7 926.484 2870.9 2314.26 
641.462 2043.42 2793.95 1778.25 2281.59 2055.12 2646.25 2775.01 2091.19 
3120.45 2077.53 2624.33 3991.02 2195.8 2148.9 4125.69 2777.65 2947.73 
-4420.88 3373.03 2130.99 -4921.37 3998.25 2770.68 -3839.16 3912.51 2736.13 
-2981.34 3887.66 2224.99 -2373.11 3100.33 2144.24 -1524.72 3599.8 1982.63 
-586.763 3910.34 2118.72 192.931 3730 2714.38 1853.32 3125.13 2586.8 
1956.62 3973.42 2069.04 1183.98 3845.33 2763.16 2981.81 3906.73 2192.25 
2948.43 3205.99 2940.94 3583.42 3108.87 2177.82 3906.2 3916.43 2670.8 
4579.8 3418.98 2127.57 -4368.69 4531.9 2132.22 -2966.12 4884.97 2276.29 
-2059.91 4598.21 1962.37 -1534.03 4206.49 2774 -1034.5 4803.32 2093.56 
-468.444 4569.36 2880.43 187.09 4542.56 2128.54 1183.81 4606.08 2115.36 
1881.62 4713.48 2821.77 2523.34 4796.4 2061.35 2959.26 4576.04 2933.82 
3578.55 4709.77 2161.69 4600.62 4607.04 2140.88 -4923.77 -4389.69 3735.57 
-3034.24 -4467.67 3280.31 -2153.28 -4233.5 3690.58 -1580.18 -4908.6 3231.69 
-701.767 -4920.93 3705.97 46.688 -4608.77 3122.28 697.336 -4643.46 3880.05 
1137.06 -4640.52 2983.77 1909.9 -4672.46 3615.2 4189.51 -4034.72 3414.99 
-4459.93 -3242.01 3145.71 -3963.68 -3997.59 3829.03 -3567.49 -3656.37 2976.83 
-3138.46 -3065.73 3658.2 -2569.67 -3623.05 3019.98 -1232.46 -3776.98 3691.68 
-266.081 -3697.23 3443.44 893.411 -3736.46 3444.86 2099.41 -3672.07 3133.75 
2660.61 -3090.08 3720.35 3059.67 -3975.5 3487.66 3589.59 -3124.39 3358.6 
4570.08 -3012.57 3208.38 -4397.99 -2271.2 3452.8 -2549.53 -2625.99 2981.67 
-1754.03 -2941.63 3520.14 -1109.51 -2108.61 3268.86 -803.624 -2883.25 3819.97 
106.411 -2770.57 3425.42 792.451 -2051.6 3261.99 1509.29 -2949.73 3491.53 
2207.16 -2234.49 3478.48 3770.86 -2214.55 3731.23 -3626.91 -1505.01 3506.77 
-2571.87 -1821.91 3573.08 -1672.41 -1405.8 3701.46 -164.76 -1900.53 3016.38 
[...]
POINT_DATA 1176
FIELD FieldData 7
id 1 1176 int
72 12 38 94 7 11 80 109 30 
100 48 107 102 124 89 79 97 81 
90 82 51 91 49 36 60 78 18 
16 28 26 31 14 27 98 15 45 
104 96 22 87 54 37 59 19 1 
2 4 108 43 29 84 33 92 21 
88 42 55 66 46 77 73 20 69 
110 131 13 40 53 23 35 105 52 
8 119 61 25 34 58 6 85 47 
63 57 32 75 65 93 39 83 67 
41 10 9 17 113 3 56 50 24 
166 44 5 164 139 185 103 194 95 
125 135 86 150 137 223 193 133 149 
202 161 99 274 147 168 128 163 132 
157 179 148 155 186 145 278 281 101 
156 181 141 134 212 187 225 165 136 
195 170 62 159 123 142 224 70 121 
172 152 115 197 130 140 160 171 126 
209 153 217 177 112 316 158 118 127 
207 169 154 111 191 143 114 151 129 
175 198 76 167 189 200 116 192 214 
219 196 210 221 146 182 144 74 216 
64 117 68 228 206 138 120 71 122 
183 162 201 178 180 208 215 106 248 
427 242 276 232 273 378 262 289 337 
293 258 386 266 406 239 322 229 307 
275 312 309 245 292 320 327 330 350 
299 412 259 240 301 254 329 190 227 
317 267 356 282 304 305 368 285 268 
314 310 233 354 264 296 375 315 256 
376 204 298 211 323 231 252 283 213 
257 370 324 374 270 297 243 265 234 
253 235 308 271 381 288 302 380 365 
263 230 261 269 218 357 236 255 367 
244 321 250 174 226 294 173 246 355 
279 272 331 290 260 333 372 251 205 
295 222 379 277 352 349 326 237 184 
280 311 332 238 306 247 377 241 335 
334 176 300 249 286 199 363 188 319 
318 203 360 291 220 457 396 397 366 
408 328 417 369 418 402 419 456 437 
422 340 477 423 500 338 494 450 475 
436 488 343 444 345 439 441 429 390 
503 474 428 413 447 336 409 476 443 
467 432 508 445 348 459 416 391 405 
385 325 347 424 341 388 415 344 481 
451 382 400 303 339 435 362 426 440 
364 389 504 287 358 313 498 392 438 
433 425 442 469 403 284 414 399 463 
398 411 353 401 387 478 346 410 361 
393 502 452 509 394 373 468 404 395 
384 420 454 351 421 448 434 430 342 
505 371 359 383 446 473 431 449 610 
520 560 528 499 589 548 485 555 546 
562 529 598 541 532 479 566 583 501 
516 507 558 530 482 613 658 547 524 
491 614 483 618 466 565 616 471 554 
579 556 571 577 487 620 493 537 511 
495 513 553 551 574 522 563 535 518 
552 533 407 526 640 573 496 557 461 
521 489 621 455 593 512 612 490 617 
531 464 543 462 492 525 536 484 564 
465 581 568 586 519 460 602 470 559 
545 534 453 538 514 599 550 609 458 
549 544 480 517 539 510 515 506 527 
486 542 608 497 605 540 523 472 569 
561 597 669 641 572 728 713 653 601 
631 664 720 578 642 700 736 643 590 
666 672 575 694 716 587 659 677 710 
650 741 673 714 585 757 707 709 651 
680 647 652 701 726 654 596 781 594 
638 630 668 679 667 663 692 646 731 
718 693 730 688 607 629 592 682 576 
633 724 622 687 698 674 722 603 567 
656 595 635 645 634 655 678 628 619 
580 611 661 695 648 591 588 644 662 
584 649 624 717 675 729 657 615 665 
704 600 637 676 684 625 582 725 627 
626 639 708 670 702 696 660 604 706 
775 570 711 632 782 636 671 699 623 
734 606 773 780 804 747 776 889 783 
831 764 813 862 840 762 878 744 833 
828 836 752 765 834 793 816 733 763 
880 797 761 841 805 792 740 789 860 
690 823 790 811 817 772 750 778 870 
838 691 771 795 846 760 786 835 742 
779 715 768 737 802 751 721 774 697 
854 703 801 766 723 683 829 739 784 
807 770 681 753 759 787 819 719 897 
754 686 850 822 844 738 746 748 812 
689 788 712 755 727 685 826 791 749 
745 843 756 853 809 798 732 769 803 
814 743 837 785 825 824 808 767 810 
876 842 735 890 777 806 758 705 818 
861 899 927 863 910 895 883 932 946 
912 928 884 956 872 923 888 945 877 
994 868 980 830 913 864 920 799 917 
998 935 942 953 921 852 885 869 902 
898 949 796 952 926 919 851 1011 886 
896 820 866 904 925 849 986 858 874 
944 839 894 907 845 918 827 951 1002 
933 915 832 901 914 800 892 893 873 
881 950 857 930 848 887 948 989 929 
943 882 906 1008 922 905 875 815 855 
938 937 821 908 867 1006 916 900 879 
856 903 891 911 1001 847 934 940 859 
947 794 955 982 871 924 939 936 865 
1013 931 1020 958 1042 1099 1104 972 960 
1044 1111 1023 973 1047 1112 961 981 1004 
1066 1032 990 1037 1017 1022 1034 997 1055 
965 999 1015 1027 1118 1058 975 1068 1053 
1061 1041 964 985 1012 966 971 1019 976 
1028 909 1043 983 1040 957 996 1035 1059 
992 979 1010 1048 1009 1030 1063 1000 969 
1049 1052 974 1026 1003 1014 1050 977 1038 
1005 1060 978 1051 1031 959 1029 987 1062 
967 1039 1046 968 954 1036 1018 941 1056 
963 1007 1065 1021 1033 988 1064 1107 995 
962 970 984 993 1094 1045 1054 1024 991 
1105 1078 1101 1113 1102 1108 1079 1072 1082 
1096 1083 1120 1098 1075 1109 1025 1067 1121 
1103 1071 1070 1092 1069 1085 1084 1080 1100 
1057 1074 1081 1090 1106 1016 1089 1116 1086 
1110 1091 1077 1073 1095 1115 1093 1122 1097 
1119 1114 1088 1117 1087 1076 1167 1176 1134 
1165 1143 1137 1157 1141 1160 1135 1140 1154 
1163 1125 1146 1123 1161 1166 1126 1132 1164 
1159 1153 1162 1173 1145 1170 1127 1133 1155 
1129 1168 1128 1144 1169 1172 1171 1158 1152 
1149 1130 1147 1124 1131 1156 1138 1136 1142 
1175 1148 1151 1150 1174 1139 
type 1 1176 int
1 1 1 1 1 1 1 1 1 
1 1 1 1 1 1 1 1 1 
1 1 1 1 1 1 1 1 1 
1 1 1 1 1 1 1 1 1 
1 1 1 1 1 1 1 1 1 
1 1 1 1 1 1 1 1 1 
1 1 1 1 1 1 1 1 1 
1 1 1 1 1 1 1 1 1 
1 1 1 1 1 1 1 1 1 
1 1 1 1 1 1 1 1 1 
1 1 1 1 1 1 1 1 1 
1 1 1 1 1 1 1 1 1 
1 1 1 1 1 1 1 1 1 
1 1 1 1 1 1 1 1 1 
1 1 1 1 1 1 1 1 1 
1 1 1 1 1 1 1 1 1 
1 1 1 1 1 1 1 1 1 
1 1 1 1 1 1 1 1 1 
1 1 1 1 1 1 1 1 1 
1 1 1 1 1 1 1 1 1 
1 1 1 1 1 1 1 1 1 
1 1 1 1 1 1 1 1 1 
1 1 1 1 1 1 1 1 1 
1 1 1 1 1 1 1 1 1 
1 1 1 1 1 1 1 1 1 
1 1 1 1 1 1 1 1 1 
1 1 1 1 1 1 1 1 1 
1 1 1 1 1 1 1 1 1 
1 1 1 1 1 1 1 1 1 
1 1 1 1 1 1 1 1 1 
1 1 1 1 1 1 1 1 1 
1 1 1 1 1 1 1 1 1 
1 1 1 1 1 1 1 1 1 
1 1 1 1 1 1 1 1 1 
1 1 1 1 1 1 1 1 1 
1 1 1 1 1 1 1 1 1 
1 1 1 1 1 1 1 1 1 
1 1 1 1 1 1 1 1 1 
1 1 1 1 1 1 1 1 1 
1 1 1 1 1 1 1 1 1 
1 1 1 1 1 1 1 1 1 
1 1 1 1 1 1 1 1 1 
1 1 1 1 1 1 1 1 1 
1 1 1 1 1 1 1 1 1 
1 1 1 1 1 1 1 1 1 
1 1 1 1 1 1 1 1 1 
1 1 1 1 1 1 1 1 1 
1 1 1 1 1 1 1 1 1 
1 1 1 1 1 1 1 1 1 
1 1 1 1 1 1 1 1 1 
1 1 1 1 1 1 1 1 1 
1 1 1 1 1 1 1 1 1 
1 1 1 1 1 1 1 1 1 
1 1 1 1 1 1 1 1 1 
1 1 1 1 1 1 1 1 1 
1 1 1 1 1 1 1 1 1 
1 1 1 1 1 1 1 1 1 
1 1 1 1 1 1 1 1 1 
1 1 1 1 1 1 1 1 1 
1 1 1 1 1 1 1 1 1 
1 1 1 1 1 1 1 1 1 
1 1 1 1 1 1 1 1 1 
1 1 1 1 1 1 1 1 1 
1 1 1 1 1 1 1 1 1 
1 1 1 1 1 1 1 1 1 
1 1 1 1 1 1 1 1 1 
1 1 1 1 1 1 1 1 1 
1 1 1 1 1 1 1 1 1 
1 1 1 1 1 1 1 1 1 
1 1 1 1 1 1 1 1 1 
1 1 1 1 1 1 1 1 1 
1 1 1 1 1 1 1 1 1 
1 1 1 1 1 1 1 1 1 
1 1 1 1 1 1 1 1 1 
1 1 1 1 1 1 1 1 1 
1 1 1 1 1 1 1 1 1 
1 1 1 1 1 1 1 1 1 
1 1 1 1 1 1 1 1 1 
1 1 1 1 1 1 1 1 1 
1 1 1 1 1 1 1 1 1 
1 1 1 1 1 1 1 1 1 
1 1 1 1 1 1 1 1 1 
1 1 1 1 1 1 1 1 1 
1 1 1 1 1 1 1 1 1 
1 1 1 1 1 1 1 1 1 
1 1 1 1 1 1 1 1 1 
1 1 1 1 1 1 1 1 1 
1 1 1 1 1 1 1 1 1 
1 1 1 1 1 1 1 1 1 
1 1 1 1 1 1 1 1 1 
1 1 1 1 1 1 1 1 1 
1 1 1 1 1 1 1 1 1 
1 1 1 1 1 1 1 1 1 
1 1 1 1 1 1 1 1 1 
1 1 1 1 1 1 1 1 1 
1 1 1 1 1 1 1 1 1 
1 1 1 1 1 1 1 1 1 
1 1 1 1 1 1 1 1 1 
1 1 1 1 1 1 1 1 1 
1 1 1 1 1 1 1 1 1 
1 1 1 1 1 1 1 1 1 
1 1 1 1 1 1 1 1 1 
1 1 1 1 1 1 1 1 1 
1 1 1 1 1 1 1 1 1 
1 1 1 1 1 1 1 1 1 
1 1 1 1 1 1 1 1 1 
1 1 1 1 1 1 1 1 1 
1 1 1 1 1 1 1 1 1 
1 1 1 1 1 1 1 1 1 
1 1 1 1 1 1 1 1 1 
1 1 1 1 1 1 1 1 1 
1 1 1 1 1 1 1 1 1 
1 1 1 1 1 1 1 1 1 
1 1 1 1 1 1 1 1 1 
1 1 1 1 1 1 1 1 1 
1 1 1 1 1 1 1 1 1 
1 1 1 1 1 1 1 1 1 
1 1 1 1 1 1 1 1 1 
1 1 1 1 1 1 1 1 1 
1 1 1 1 1 1 1 1 1 
1 1 1 1 1 1 1 1 1 
1 1 1 1 1 1 1 1 1 
1 1 1 1 1 1 1 1 1 
1 1 1 1 1 1 1 1 1 
1 1 1 1 1 1 1 1 1 
1 1 1 1 1 1 1 1 1 
1 1 1 1 1 1 1 1 1 
1 1 1 1 1 1 1 1 1 
1 1 1 1 1 1 1 1 1 
1 1 1 1 1 1 1 1 1 
1 1 1 1 1 1 
i 3 1176 int
0 1 0 0 0 0 1 1 0 
0 1 0 0 0 0 0 0 0 
0 1 0 0 0 0 0 1 0 
0 0 0 -1 0 0 0 0 0 
0 0 0 0 0 0 0 0 0 
0 0 0 0 0 0 0 1 0 
0 0 0 0 0 0 0 0 0 
0 0 0 -1 0 0 1 1 0 
0 0 0 0 0 0 0 0 0 
0 0 0 0 0 0 0 0 0 
0 0 0 0 0 0 0 0 0 
0 0 0 0 0 0 0 0 0 
0 0 0 0 0 0 0 0 0 
-1 0 0 0 0 0 0 0 0 
0 0 0 0 0 0 0 0 0 
0 0 0 0 0 0 0 0 0 
0 0 0 0 0 0 0 0 0 
0 0 0 0 0 0 0 0 0 
0 0 0 0 0 0 0 0 0 
0 0 0 0 0 0 0 0 0 
0 -1 0 1 -1 0 0 0 0 
0 0 0 0 0 0 0 0 0 
0 0 0 0 0 0 0 0 0 
0 0 0 -1 0 0 0 0 0 
0 0 0 0 0 0 0 0 0 
0 0 0 0 0 0 0 0 0 
0 0 0 0 0 0 0 0 0 
1 -1 0 0 0 0 0 0 0 
0 0 0 0 -1 0 0 0 0 
0 0 0 0 0 0 0 0 0 
0 0 0 1 0 0 0 0 0 
0 -1 0 0 -1 0 0 -1 0 
0 -1 0 0 -1 0 0 -1 0 
0 0 0 0 0 0 0 0 0 
1 0 0 0 1 0 0 0 0 
0 0 0 0 0 0 0 0 0 
0 0 0 0 1 0 0 0 0 
0 1 0 1 0 0 0 1 0 
0 0 0 0 0 0 0 0 0 
0 0 0 0 0 0 -1 1 0 
0 0 0 0 1 0 0 0 0 
0 0 0 0 0 0 0 1 0 
0 0 0 0 0 0 0 0 0 
0 0 0 0 0 0 0 0 0 
0 0 0 -1 0 0 0 0 0 
0 0 0 0 0 0 0 1 0 
0 0 0 0 0 0 0 0 0 
0 0 0 0 0 0 0 0 0 
0 0 0 -1 0 0 -1 0 0 
1 0 0 1 0 0 0 0 0 
0 0 0 0 0 0 0 0 0 
0 0 0 0 0 0 0 0 0 
0 0 0 0 0 0 -1 0 0 
0 0 0 0 0 0 0 0 0 
0 0 0 0 0 0 0 0 0 
0 0 0 -1 0 0 0 0 0 
0 0 0 0 0 0 0 0 0 
0 0 0 0 0 0 0 0 0 
-1 0 0 0 0 0 0 0 0 
0 0 0 -1 0 0 1 0 0 
0 0 0 0 0 0 0 0 0 
0 0 0 0 0 0 0 0 0 
0 0 0 0 0 0 -1 0 0 
0 0 0 0 0 0 0 -1 0 
0 0 0 0 -1 0 0 0 0 
0 0 0 0 -1 0 0 0 0 
0 0 0 0 0 0 0 0 0 
0 0 0 1 -1 0 0 0 0 
0 0 0 0 0 0 0 0 0 
0 0 0 0 -1 0 0 0 0 
0 0 0 0 0 0 -1 0 0 
0 0 0 -1 0 0 1 0 0 
0 1 0 0 0 0 0 0 0 
0 1 0 0 0 0 0 0 0 
0 0 0 0 0 0 0 0 0 
0 0 0 0 0 0 0 0 0 
0 0 0 0 1 0 0 0 0 
0 1 0 0 0 0 0 0 0 
0 0 0 0 1 0 0 0 0 
0 0 0 0 0 0 0 0 0 
0 0 0 0 0 0 0 0 0 
0 0 0 0 0 0 0 0 0 
0 0 0 0 0 0 0 0 0 
0 0 0 0 0 0 0 0 0 
0 0 0 0 0 0 0 0 0 
0 0 0 -1 0 0 0 0 0 
0 0 0 0 0 0 0 0 0 
0 0 0 0 0 0 0 0 0 
0 0 0 0 0 0 0 0 0 
-1 0 0 -1 0 0 0 0 0 
0 0 0 1 0 0 0 0 0 
1 0 0 0 0 0 1 0 0 
0 0 0 0 0 0 0 0 0 
0 0 0 0 0 0 0 0 0 
0 0 0 0 0 0 0 0 0 
1 0 0 1 0 0 0 0 0 
0 0 0 0 0 0 0 0 0 
0 0 0 0 0 0 0 0 0 
0 0 0 0 0 0 0 0 0 
0 0 0 0 0 0 0 0 0 
1 0 0 0 0 0 0 0 0 
0 0 0 0 0 0 0 0 0 
0 0 0 0 0 0 0 0 0 
0 0 0 0 0 0 0 0 0 
1 0 0 0 0 0 0 0 0 
0 0 0 0 0 0 0 -1 0 
0 0 0 0 0 0 0 0 0 
0 0 0 0 0 0 0 0 0 
0 0 0 -1 0 0 -1 0 0 
0 0 0 1 0 0 0 0 0 
0 0 0 0 0 0 0 0 0 
0 0 0 0 0 0 0 0 0 
0 0 0 0 0 0 0 0 0 
0 0 0 0 0 0 0 0 0 
0 0 0 0 -1 0 0 0 0 
0 0 0 0 0 0 0 -1 0 
0 0 0 0 0 0 0 -1 0 
0 0 0 0 -1 0 0 0 0 
0 0 0 -1 -1 0 1 0 0 
0 0 0 0 0 0 0 0 0 
0 1 0 0 1 0 0 0 0 
0 1 0 0 0 0 -1 1 0 
0 0 0 0 0 0 0 0 0 
0 0 0 0 0 0 0 0 0 
0 0 0 0 0 0 0 0 0 
0 0 0 0 0 0 0 0 0 
0 0 0 0 0 0 0 0 0 
0 1 0 0 0 0 0 0 0 
0 0 0 0 0 0 0 0 0 
0 0 0 0 0 0 0 0 0 
0 0 0 0 0 0 0 0 0 
0 0 0 0 0 0 0 0 0 
0 0 0 0 0 0 0 0 0 
-1 0 0 0 0 0 0 0 0 
0 0 0 0 0 0 0 0 0 
0 0 0 0 0 0 0 0 0 
0 0 0 0 0 0 0 0 0 
0 0 0 0 0 0 -1 0 0 
0 0 0 0 0 0 0 0 0 
0 0 0 0 0 0 0 0 0 
0 0 0 0 0 0 0 0 0 
0 0 0 -1 0 0 0 0 0 
-1 0 0 0 0 0 0 0 0 
0 0 0 1 0 0 0 0 0 
0 0 0 0 0 0 0 0 0 
0 0 0 0 0 0 0 0 0 
0 0 0 0 0 0 0 0 0 
0 0 0 0 0 0 0 0 0 
0 0 0 0 0 0 0 0 0 
0 0 0 0 0 0 0 0 0 
-1 0 0 0 0 0 1 0 0 
0 0 0 0 -1 0 0 0 0 
0 0 0 0 0 0 0 0 0 
0 -1 0 0 0 0 0 0 0 
0 0 0 0 0 0 0 0 0 
0 0 0 1 0 0 1 -1 0 
0 0 0 0 -1 0 0 0 0 
0 0 0 0 0 0 0 0 0 
0 -1 0 0 -1 0 0 0 0 
0 0 0 0 0 0 0 0 0 
0 1 0 0 0 0 0 0 0 
0 0 0 0 0 0 0 0 0 
0 1 0 0 0 0 0 0 0 
0 0 0 0 0 0 0 0 0 
0 0 0 0 0 0 0 0 0 
0 0 0 0 1 0 0 0 0 
0 0 0 0 0 0 0 0 0 
0 0 0 1 0 0 0 0 0 
0 0 0 0 0 0 0 0 0 
0 0 0 0 0 0 0 0 0 
0 0 0 0 0 0 0 0 0 
0 0 0 -1 0 0 0 0 0 
0 0 0 0 0 0 0 0 0 
0 0 0 0 0 0 0 0 0 
0 0 0 0 0 0 0 0 0 
-1 0 0 0 0 0 0 0 0 
0 0 0 0 0 0 0 0 0 
0 0 0 0 0 0 0 0 0 
0 0 0 0 0 0 0 0 0 
0 0 0 0 0 0 0 0 0 
0 0 0 0 0 0 0 0 0 
0 0 0 0 0 0 0 0 0 
-1 0 0 1 0 0 0 0 0 
0 0 0 0 0 0 0 0 0 
0 0 0 0 0 0 0 0 0 
0 0 0 0 0 0 0 0 0 
0 0 0 0 0 0 0 0 0 
0 0 0 0 0 0 0 0 0 
0 0 0 0 0 0 0 0 0 
0 0 0 0 0 0 0 0 0 
0 0 0 0 0 0 0 0 0 
0 0 0 0 0 0 0 0 0 
0 0 0 0 0 0 0 0 0 
0 0 0 0 0 0 0 0 0 
0 0 0 0 0 0 1 0 0 
0 0 0 0 0 0 0 0 0 
1 0 0 0 -1 0 0 -1 0 
0 0 0 0 0 0 0 0 0 
0 -1 0 0 -1 0 1 0 0 
0 0 0 0 0 0 0 0 0 
0 0 0 0 0 0 0 0 0 
0 1 0 0 0 0 0 0 0 
0 0 0 -1 0 0 0 0 0 
0 0 0 0 0 0 0 0 0 
0 1 0 0 0 0 0 0 0 
0 0 0 0 0 0 0 0 0 
0 0 0 0 0 0 0 0 0 
-1 0 0 1 0 0 0 0 0 
0 0 0 0 0 0 0 0 0 
0 0 0 0 0 0 0 0 0 
0 0 0 0 0 0 0 0 0 
0 0 0 0 0 0 0 0 0 
1 0 0 0 0 0 0 0 0 
0 0 0 0 0 0 0 0 0 
0 0 0 0 0 0 0 0 0 
0 0 0 0 0 0 0 0 0 
-1 0 0 1 0 0 1 0 0 
0 0 0 0 0 0 0 0 0 
0 0 0 0 0 0 0 0 0 
0 0 0 0 0 0 0 0 0 
0 0 0 1 0 0 0 0 0 
0 0 0 0 0 0 0 0 0 
0 0 0 0 0 0 0 0 0 
0 0 0 0 0 0 0 0 0 
0 0 0 0 0 0 0 0 0 
0 0 0 0 0 0 0 0 0 
0 0 0 0 0 0 0 0 0 
0 0 0 0 0 0 0 0 0 
0 0 0 0 0 0 0 0 0 
0 0 0 0 0 0 0 0 0 
0 0 0 0 0 0 0 0 0 
0 0 0 0 0 0 0 0 0 
-1 0 0 0 0 0 0 0 0 
0 0 0 0 0 0 0 0 0 
0 0 0 0 0 0 0 0 0 
0 0 0 0 0 0 0 -1 0 
0 0 0 1 0 0 0 0 0 
0 0 0 0 0 0 0 -1 0 
0 -1 0 0 0 0 0 0 0 
0 0 0 0 0 0 0 -1 0 
0 0 0 -1 0 0 0 0 0 
1 0 0 0 0 0 0 0 0 
0 0 0 0 0 0 0 0 0 
0 1 0 0 0 0 0 0 0 
0 0 0 0 0 0 0 0 0 
-1 1 0 1 0 0 0 0 0 
0 0 0 0 0 0 0 0 0 
0 0 0 0 0 0 0 0 0 
0 0 0 0 0 0 0 0 0 
0 0 0 0 0 0 0 0 0 
0 0 0 0 0 0 0 0 0 
0 0 0 0 0 0 0 0 0 
0 0 0 0 0 0 -1 0 0 
0 0 0 0 0 0 0 0 0 
0 0 0 0 0 0 0 0 0 
0 0 0 0 0 0 0 0 0 
0 0 0 0 0 0 0 0 0 
0 0 0 0 0 0 0 0 0 
0 0 0 0 0 0 0 0 0 
0 0 0 0 0 0 0 0 0 
0 0 0 0 0 0 0 0 0 
0 0 0 0 0 0 0 0 0 
0 0 0 0 0 0 0 0 0 
0 0 0 0 0 0 0 0 0 
0 0 0 0 0 0 0 0 0 
1 0 0 0 0 0 0 0 0 
0 0 0 0 0 0 0 0 0 
0 0 0 0 0 0 0 0 0 
0 0 0 0 0 0 0 0 0 
1 0 0 0 0 0 0 0 0 
0 0 0 0 0 0 0 0 0 
0 0 0 0 0 0 0 0 0 
0 0 0 0 0 0 0 0 0 
0 0 0 0 0 0 0 0 0 
0 0 0 0 0 0 0 0 0 
0 0 0 0 0 0 0 0 0 
0 0 0 -1 0 0 0 0 0 
1 0 0 0 0 0 0 -1 0 
0 0 0 0 0 0 0 0 0 
0 0 0 0 -1 0 0 0 0 
0 -1 0 0 0 0 0 0 0 
0 0 0 -1 0 0 0 0 0 
1 0 0 0 0 0 0 0 0 
0 0 0 0 1 0 0 0 0 
0 0 0 0 0 0 0 0 0 
1 0 0 0 0 0 0 0 0 
0 1 0 0 0 0 0 0 0 
0 0 0 0 0 0 0 0 0 
-1 0 0 0 0 0 0 0 0 
0 0 0 0 0 0 0 0 0 
0 0 0 0 0 0 0 0 0 
0 0 0 0 0 0 0 0 0 
0 0 0 0 0 0 0 0 0 
1 0 0 0 0 0 0 0 0 
0 0 0 0 0 0 0 0 0 
0 0 0 0 0 0 0 0 0 
0 0 0 0 0 0 0 0 0 
0 0 0 0 0 0 0 0 0 
0 0 0 0 0 0 0 0 0 
0 0 0 0 0 0 0 0 0 
-1 0 0 -1 0 0 0 0 0 
0 0 0 0 0 0 0 0 0 
0 0 0 0 0 0 0 0 0 
0 0 0 0 0 0 0 0 0 
0 0 0 0 0 0 0 0 0 
1 0 0 0 0 0 0 0 0 
0 0 0 0 0 0 0 0 0 
0 0 0 0 0 0 0 0 0 
0 0 0 1 0 0 0 0 0 
0 0 0 0 0 0 0 0 0 
0 0 0 0 0 0 0 0 0 
0 0 0 0 0 0 0 0 0 
0 0 0 0 0 0 0 0 0 
0 0 0 0 0 0 0 0 0 
0 0 0 0 0 0 0 0 0 
0 0 0 0 -1 0 0 0 0 
0 0 0 0 0 0 0 0 0 
0 0 0 0 0 0 0 0 0 
0 0 0 0 0 0 0 -1 0 
0 0 0 0 0 0 0 -1 0 
0 0 0 0 0 0 0 0 0 
0 0 0 0 0 0 0 0 0 
0 0 0 0 0 0 0 0 0 
0 0 0 0 0 0 0 1 0 
0 0 0 0 0 0 0 0 0 
1 0 0 0 0 0 0 0 0 
0 0 0 0 0 0 0 0 0 
0 0 0 0 0 0 0 0 0 
-1 1 0 0 0 0 0 0 0 
0 0 0 0 0 0 0 0 0 
0 0 0 0 0 0 0 0 0 
0 0 0 0 0 0 0 0 0 
0 0 0 0 0 0 1 0 0 
0 0 0 0 0 0 0 0 0 
0 0 0 0 0 0 0 0 0 
0 0 0 0 0 0 0 0 0 
0 0 0 0 0 0 0 0 0 
0 0 0 0 0 0 0 0 0 
0 0 0 0 0 0 0 0 0 
0 0 0 -1 0 0 0 0 0 
0 0 0 0 0 0 0 0 0 
0 0 0 0 0 0 0 0 0 
0 0 0 0 0 0 0 0 0 
0 0 0 0 0 0 0 0 0 
0 0 0 0 0 0 0 0 0 
-1 0 0 0 0 0 0 0 0 
0 0 0 0 0 0 0 0 0 
0 0 0 0 0 0 0 0 0 
0 0 0 0 0 0 0 0 0 
0 0 0 1 0 0 0 0 0 
0 0 0 0 0 0 0 -1 0 
0 0 0 0 0 0 0 0 0 
0 0 0 0 0 0 0 0 0 
0 0 0 0 0 0 0 0 0 
0 -1 0 0 0 0 0 -1 0 
0 0 0 0 0 0 0 0 0 
0 0 0 0 0 0 0 0 0 
0 -1 0 0 1 0 0 0 0 
0 0 0 0 0 0 0 0 0 
0 0 0 0 0 0 0 0 0 
0 0 0 0 0 0 1 0 0 
0 0 0 0 0 0 1 0 0 
0 0 0 0 0 0 0 0 0 
0 0 0 0 0 0 0 0 0 
0 0 0 0 0 0 0 0 0 
0 0 0 0 0 0 0 0 0 
0 0 0 0 0 0 0 0 0 
0 0 0 0 0 0 0 0 0 
0 0 0 0 0 0 0 0 0 
0 0 0 0 0 0 0 0 0 
0 0 0 0 1 0 0 0 0 
0 0 0 0 0 0 0 0 0 
0 0 0 0 0 0 0 0 0 
0 0 0 0 0 0 0 0 0 
0 0 0 0 0 0 0 0 0 
0 0 0 0 0 0 0 0 0 
0 0 0 0 0 0 0 0 0 
0 0 0 0 0 0 0 0 0 
0 0 0 0 0 0 0 0 0 
0 0 0 0 0 0 0 0 0 
0 0 0 0 0 0 0 0 0 
0 0 0 0 0 0 0 0 0 
0 0 0 0 0 0 0 0 0 
0 0 0 0 0 0 0 0 0 
0 0 0 0 0 0 0 0 0 
0 0 0 0 0 0 0 0 0 
0 0 0 0 0 0 0 0 0 
0 0 0 0 0 0 0 0 0 
0 0 0 0 0 0 0 0 0 
0 0 0 0 0 0 0 0 0 
0 0 0 0 0 0 0 0 0 
0 0 0 0 0 0 0 0 0 

v 3 1176 double
-6.78158e-05 4.1551e-05 8.09319e-05 -0.000124427 3.10752e-05 6.13978e-05 -8.5822e-05 3.44188e-05 7.74907e-05 
-0.000119647 6.52168e-05 8.44056e-05 -0.000278087 0.000128808 -3.13262e-05 -7.96485e-05 7.37267e-05 9.74633e-05 
-0.000152076 0.000168441 9.58602e-05 -4.26678e-05 8.53761e-05 8.72968e-05 8.20291e-06 0.000119137 8.6471e-05 
-3.30263e-05 5.10116e-06 0.000141138 -5.93673e-05 6.02718e-05 0.000150756 -8.7329e-05 7.45552e-05 0.000163217 
-2.51601e-05 0.000150005 6.19797e-05 -8.12315e-05 2.0935e-05 3.80478e-05 -9.02092e-05 1.85523e-05 5.12286e-05 
-6.92415e-05 7.00419e-05 7.47217e-05 -1.8154e-05 4.23742e-05 7.12673e-05 -0.00013421 0.000126027 8.68168e-05 
2.01623e-05 4.2376e-05 9.57037e-05 -3.74456e-05 4.63101e-05 0.000127868 -8.61088e-05 1.851e-05 0.000106852 
-8.39827e-05 3.34792e-05 0.000132236 -0.000133177 2.27538e-05 0.000172059 -7.78219e-06 -0.00023519 -1.32573e-06 
-6.06546e-05 -5.37458e-05 -2.067e-05 -0.0001388 -9.52332e-05 0.000135904 -8.05989e-05 -5.55001e-05 2.97105e-05 
0.00027648 9.7102e-05 -1.54442e-15 -6.91115e-06 -2.9789e-05 0.000102074 -4.73349e-05 6.08219e-05 4.12606e-05 
-0.000125782 -7.46208e-06 0.000129297 -4.95673e-05 -9.95418e-06 0.000141517 -0.000613284 2.50108e-05 6.97494e-05 
-0.000487119 -0.000136282 -8.74047e-05 -0.000324539 -0.000205677 0.000112938 -0.000339142 -1.6988e-06 -9.36936e-16 
-0.000123371 -7.42872e-05 4.78183e-05 -6.67515e-06 4.49256e-05 4.32313e-05 -6.25926e-05 3.62193e-05 3.90703e-05 
-0.000129626 0.000110991 6.66157e-05 -0.000168841 2.0899e-05 5.27375e-05 -0.000209166 -0.000104226 5.30841e-05 
2.18493e-05 4.80174e-05 4.6603e-15 -0.000279111 -0.000110082 -7.00229e-06 -5.40225e-05 1.10296e-05 1.22566e-05 
-0.000113368 -1.21833e-05 3.13806e-05 -0.000156279 0.000133707 8.2042e-05 -7.25712e-05 6.6896e-05 9.16002e-05 
-6.29623e-05 -2.26599e-05 8.48013e-05 -8.03974e-05 8.61004e-05 8.57184e-05 -7.63354e-05 -4.26626e-05 2.93217e-05 
-7.26085e-05 -1.8047e-05 3.37434e-05 -0.00012996 8.99709e-06 3.27771e-05 -0.000142226 -4.48975e-05 7.34955e-05 
-0.000199547 -6.19829e-05 3.14506e-05 -0.000198288 -9.48843e-05 -1.56135e-05 -6.2954e-05 4.613e-05 -5.25983e-06 
-1.13888e-06 2.59458e-05 3.2499e-05 -6.06145e-05 4.91214e-05 4.51228e-05 -8.36787e-05 3.04663e-05 3.99106e-05 
-1.62612e-05 -2.00061e-05 9.82743e-05 -4.82e-05 1.36745e-05 5.48873e-05 -0.000127766 -1.10299e-05 0.000111334 
-6.83191e-05 -3.17167e-05 5.58772e-05 -6.82942e-05 -8.6915e-05 4.28654e-05 -7.42776e-05 -1.41775e-05 2.96486e-05 
-4.50183e-05 3.72994e-06 -1.94492e-05 6.1966e-06 5.32795e-05 1.61884e-05 -1.08272e-06 7.67876e-05 7.38705e-06 
7.63949e-06 1.20655e-05 -9.52153e-06 -2.49562e-06 -3.53731e-05 8.88729e-05 -2.04184e-05 -2.62691e-06 0.000136811 
-4.35016e-05 1.94726e-05 9.71128e-05 -4.03832e-05 1.61716e-05 7.53661e-05 -7.99715e-05 1.71296e-05 0.00012266 
-0.000213305 0.000159713 4.55344e-05 -0.0001678 -6.64414e-06 4.37871e-05 -0.000130213 5.87152e-05 4.4629e-05 
-1.89723e-05 3.59461e-05 2.47915e-05 -1.71283e-05 6.1322e-05 8.56016e-05 -3.03799e-05 -3.04579e-05 5.71986e-05 
-4.64884e-05 2.18782e-05 8.98221e-05 -4.47928e-05 2.91402e-05 0.000105023 -8.29972e-05 4.95985e-05 0.00010229 
-0.000456497 -3.21624e-05 3.14081e-07 -0.0002079 -3.53793e-05 4.97913e-05 -0.000154304 3.31654e-05 8.14422e-05 
-9.39681e-05 0.000102829 9.86438e-05 -2.20603e-06 2.20557e-05 5.0302e-05 -0.000185903 -0.000119005 7.73052e-05 
-6.65493e-05 2.73975e-06 9.92473e-05 -7.41711e-05 3.03317e-05 7.61081e-05 -5.37098e-05 3.61306e-05 8.28308e-05 
-3.11457e-05 4.63614e-05 -4.2902e-05 5.43772e-06 4.6845e-05 9.48072e-05 -0.000180022 4.88733e-05 -1.49233e-05 
-0.000225781 8.85945e-05 2.36379e-05 -0.000216426 -3.28268e-06 3.1573e-05 -0.000115586 0.000133112 0.000132216 
-0.000276867 -6.04313e-05 9.52522e-05 -0.00020193 -2.16881e-05 7.94818e-05 -9.23659e-05 -0.000331989 9.27377e-05 
-0.00018093 8.25945e-05 0.000198574 -0.000231187 4.35367e-05 0.000141979 -0.000251568 0.000174911 0.000199621 
-0.000292264 0.000213038 5.81491e-05 -0.00018374 6.49986e-05 8.83207e-05 -0.000168757 0.000152766 0.000280482 
-0.000190241 0.000217608 0.000220252 -0.000118561 0.000126724 0.000203084 -0.000222315 8.48814e-05 0.000218071 
-0.000211858 0.000198177 0.000274229 -0.000337856 -3.88527e-07 0.0003219 -0.000248216 -7.54686e-06 8.92252e-05 
-0.000263577 2.56228e-05 0.000132928 -0.00026634 -1.51025e-05 -1.62858e-05 -8.51614e-05 -4.2931e-05 0.000172517 
2.86883e-05 0.00014618 0.000224492 1.02155e-05 0.000218984 0.000186 -9.87293e-05 0.000114909 0.000288103 
-0.000256326 0.000128568 0.000515171 -0.000208871 4.45928e-05 0.000223574 -0.000297471 -3.13648e-05 0.000375386 
-0.000275289 -0.000145492 0.000117287 -0.000211842 -0.000319685 0.000120433 -0.000164883 -0.00014732 0.000122092 
-0.000181183 -0.000106123 9.13757e-05 -9.38771e-05 -3.4025e-05 0.000198831 -2.49531e-05 8.80828e-05 0.0001048 
-6.08258e-05 0.000347591 0.000214354 1.62215e-05 0.000157378 0.000270946 -0.000135476 0.000147043 0.000248315 