# vtk DataFile Version 4.0
Generated by LIGGGHTS
ASCII
DATASET POLYDATA
POINTS 956 float
-4336.68 -4886.66 498.928 -3769.24 -4064.24 499.178 -3313.29 -4954.87 499.223 
-2653.91 -4203.66 499.737 -1603.07 -4279.58 499.217 -364.13 -4454.04 497.264 
633.114 -4519.97 499.399 1613.82 -4726.18 499.378 2612.71 -4772.68 498.348 
3668.34 -4755.95 497.241 4666.57 -4819.64 498.814 -4775.15 -3981.34 498.666 
-4206.49 -3159.74 499.238 -3209.78 -3236.27 498.211 -2212.8 -3306.83 498.735 
-886.459 -3568.72 499.339 167.021 -3607.49 499.313 1164.58 -3673.72 499.091 
2147.7 -3882.41 499.487 3146.89 -3904.14 498.512 3700.33 -3072.06 498.988 
4226.73 -3921.71 497.891 4777.24 -3087.55 498.961 -4619.16 -2193.36 499.708 
-3624.44 -2287.04 499.524 -2627.4 -2357.7 499.367 -1407.39 -2715.95 498.303 
-408.458 -2669.54 499.696 387.412 -2054.82 497.554 1353.08 -2318.05 498.845 
2175.94 -2884.17 498.845 4386.3 -2099.49 498.28 -4686.49 -1117.9 498.978 
-3388.95 -1195.76 498.683 -2389.76 -1177.13 497.875 -1537.94 -1710.79 499.699 
-507.245 -1609.83 498.639 1106.29 -1350.14 498.664 2181.69 -1759.31 498.632 
3417.54 -1854.63 497.883 -4402.52 -159.228 498.673 -3385.34 -192.38 497.89 
-2392.62 -54.6001 499.699 -1528.56 -560.009 497.396 216.445 -888.511 498.47 
1939.45 -789.973 499.227 2919.99 -986.251 499.15 2597.14 -37.952 498.608 
3598.22 -79.0497 498.401 4070.35 -983.92 499.156 4598.49 -134.464 498.481 
-4866.96 725.583 499.306 -3866.45 683.831 499.652 -2876.27 820.667 497.419 
-1508.53 438.283 497.677 -551.201 141.573 499.246 510.803 66.563 499.589 
1624.42 191.811 498.157 3132.88 805.557 499.072 4134.52 764.564 499.068 
-4489.12 1650.32 498.5 -3490.45 1609.31 499.233 -2518.17 1656.63 908.047 
-1636.03 1428.9 498.418 -562.025 1140.72 499.099 5.3723 1962.98 498.831 
440.4 1063.29 499.214 1495.05 1183.05 498.263 2488.7 1590.28 499.045 
3476.89 1743.32 498.732 4512.16 1691.01 498.163 -4953.43 2535.58 498.654 
-3954.64 2494.47 499.141 -2956.16 2453.62 497.805 -1958.13 2374.06 497.586 
-976.791 2180.32 499.315 -290.99 2917.11 498.736 689.167 2691.43 498.76 
1694.85 2198.31 499.712 2953.52 2602.72 499.007 4035.44 2572.79 499.157 
-4417.68 3380.07 499.147 -3419.25 3338.5 498.901 -2362.96 3287.12 498.505 
-1286.24 3130.96 499.564 -607.598 3865.04 499.575 437.832 3658.5 499.08 
1555.96 3188.52 498.797 2579.45 3529 499.415 3586.25 3481.82 498.612 
4584.62 3423.26 498.148 -4879.85 4267.05 499.205 -3881.61 4223.61 499.162 
-2189.89 4911.01 499.682 -2849.4 4159.67 498.836 -1687.52 4046.66 499.65 
-1006.3 4781.43 497.682 56.4283 4619.79 498.9 1041.95 4454.73 498.296 
2040.93 4370.46 498.935 3123.46 4367.91 499.485 4122.33 4329.63 499.661 
-4296.28 -4305.42 1313.2 -3289.53 -4381.3 1316.65 -2339.01 -4419.2 1623.02 
-1530.07 -4894.95 1283.35 -852.056 -4148.84 1312.5 145.963 -4230.05 1324.34 
1312.64 -4232.37 1314.65 2349.97 -4350.27 1363.93 3684.14 -4162.75 1300.6 
4707.22 -4240.68 1312.72 -4741.96 -3405.72 1315.29 -3728.21 -3483.64 1316.42 
-2731.08 -3553.57 1316.1 -1740.69 -3688.33 1293.12 -348.29 -3283.98 1292.23 
728.911 -3544.22 1754.98 1670.09 -3282.17 1266.83 2659.29 -3411.94 1217.35 
3414.55 -3153.67 1816.78 4260.14 -3346.36 1314.28 -4167.89 -2586.92 1316.85 
-3155.9 -2650.15 1304.16 -2073.27 -2681.07 1265.66 -1234.07 -2950.06 1737.23 
-970.815 -2153.03 1196.48 -6.28766 -2347.84 1366.11 713.438 -2919.4 975.1 
1909.8 -2248.42 1326.09 1165.11 -2652.14 1855.04 2858.19 -2442.99 1078.97 
3840.03 -2441.42 1260.64 4837.27 -2492.05 1298.83 -4064.78 -1617.94 1100.45 
-4700.11 -1799.08 1849.61 -3421.14 -1147.91 1930.24 -2881.58 -1694.46 1202.88 
-1772.49 -1127.82 1280.26 -1690.69 -1940.36 1854.6 -905.63 -1317.19 1737.44 
886.108 -1846.24 1336.95 19.5575 -1349.71 1362.02 1701.21 -1268.22 1343.94 
2674.96 -1492.66 1325.24 3665.08 -1363.09 1329.95 4652.51 -1424.04 1184.87 
-4910.89 -529.722 1274.73 -3907.53 -639.153 1221.35 -2897.88 -695.342 1210.02 
-2241.05 -100.367 1668.63 -1301 -65.0184 1334.37 -661.154 -737.375 961.299 
818.741 -986.055 1839.61 206.065 -367.455 1350.69 1140.74 -503.488 1026.31 
1192.83 -38.6479 1908.46 2046.24 -195.816 1317.72 3083.11 -400.148 1291.88 
4082.61 -395.448 1312.9 -4203.46 305.252 1361.35 -3088.85 294.618 1318.01 
-2153.22 768.808 1184.51 -1180.54 983.671 1267.37 -342.19 464.001 1422.26 
1026.66 618.575 1175.18 2267.4 759.663 1009.09 2757.02 399.18 1802.02 
3622.55 496.91 1313.84 4627.18 442.635 1313.22 -4006.37 1282.9 1292.01 
-3068.14 1243.43 1630.77 -1677.62 1952.35 1358.7 -9.84645 1401.53 1324.94 
888.126 1828.1 961.381 1756.94 1527.94 1398.21 3004.02 1356.77 1322.7 
4000.76 1421.58 1312.48 4998.72 1370.28 1309.68 -4469.28 2224.51 1315.86 
-3470.74 2182.77 1317.04 -2565.77 2208.08 1739.49 -1862.12 2959.46 1298.46 
-438.181 2308.51 1331.18 441.156 2173.61 1786.5 1184.54 2692.85 1365.92 
2480.68 2207.06 1285.42 3475.37 2330.42 1306.01 4531.24 2268.6 1312.41 
-4394.98 3955.09 1316.08 -4930.81 3111.15 1314.22 -3930.18 3070.37 1314.93 
-3380.84 3919.81 1310.72 -2903.52 3042.59 1301.94 -2281.48 3892.64 1289.65 
-716.331 3282.03 1325.32 258.889 3065.35 1319.47 734.513 3745.03 1876.66 
1459.71 3888.39 1205.78 2085.49 3122.79 1342.83 3075.62 3245.45 1323.31 
4070.49 3155.24 1310.16 -4855.87 4848.18 1312.08 -3857.58 4797.26 1316.56 
-2793.71 4751.16 1301.45 -1109.86 4199.21 1301.76 -438.828 4941.3 1305.08 
-30.5208 4028.79 1299.72 627.615 4882.7 1300.55 1807.14 4811.56 1364.13 
2580.85 4123.91 1302.93 3146.62 4964.97 1300.76 3613.66 4083.54 1386.65 
4606.64 4000.42 1314.09 4147.26 4923.97 1311.87 -4824.25 -4576.66 2129.06 
-4312.3 -4321.99 2949.96 -3826.22 -4628.48 2132.98 -3038.12 -4019.29 2213.47 
-2271.19 -4498.51 2638.75 -1462.94 -4297.32 2087.78 -872.205 -4285.14 2910.66 
-262.51 -4567.68 2171.25 733.38 -4504.6 2083.41 1762.18 -4564.38 2143.78 
2526.45 -4525.94 2845.54 3041.9 -4177.88 2064.65 3553.1 -4608.06 2894.53 
4165.5 -4483.12 2115.1 4624.92 -4794.53 2944.22 -4279.58 -3738.44 2136.3 
-3394.25 -3086.69 2171.17 -2303.63 -3219 2154.52 -1598.99 -3594.53 2783.06 
-670.345 -3655.86 2162.34 313.365 -3782.61 2632.38 1307.79 -3766.75 2538.33 
2175.09 -3653.32 2057.34 2925.81 -3381.81 2658.13 3887.64 -3631.77 2554.81 
4856.68 -3824.5 2704.73 4707.03 -3011.53 2143.04 -4338.58 -2752.91 2286.9 
-3611.57 -2123.27 2019.39 -3558.85 -2483.45 2951.17 -2611.41 -2273.82 2051.8 
-1636.47 -2615.26 2588.29 -711.71 -2909.99 2826.08 -626.489 -2191.54 2134.24 
834.718 -2915.67 2759.56 33.6672 -2947 2162.77 416.047 -2007.66 2205.35 
1788.39 -2540.15 2626.97 2526.93 -2721.64 1979 2943.87 -2397.28 2827.19 
3246.17 -2027.41 1949.06 3870.51 -2633.46 2537.5 4930.62 -2222.32 2714.48 
-4184.66 -1655.92 2692.94 -3049.36 -1658.71 2705.98 -2435.8 -1292.09 2007.21 
-1950.76 -1687.66 2786.6 -1044.33 -1269.98 2726.05 -120.074 -1174.18 2335.3 
750.542 -1157.4 2821.47 1376.93 -1733.15 2200.42 2369.13 -1721.68 2317.67 
3231.88 -1209.65 2523.23 4913.74 -1224.49 2673.6 4318.91 -1937.79 1977.29 
4008.79 -1713.87 2900.53 -4370.72 -866.914 2076.01 -4335.12 -28.5168 2693.26 
-3590.35 -170.11 2044.49 -3701.75 -790.308 2819.17 -2734.33 -461.261 2473.23 
-1535.64 -644.017 2120.57 -1009.19 -202.781 2845.74 -586.931 -376.512 1957.73 
327.692 -278.282 2346.1 1594.29 -785.347 2436.31 2493.89 -781.712 2002.19 
3412.21 -271.694 2225.65 4117.67 -971.524 2127.65 4830.09 -276.621 2205.29 
-4785.58 639.813 2101.77 -3800.61 801.753 2147.15 -2782.89 509.796 2244.89 
-1896.68 175.264 2564.39 -1054.7 490.41 2127.09 -239.271 537.603 2701.87 
456.389 648.478 1994.07 1357.07 358.022 2810.03 1831.12 726.026 1990.01 
2259.01 3.65374 2571.76 2191.87 946.553 2897.29 3094.29 526.58 2736.61 
4123.04 428.675 2175.27 -4463.95 1622.65 2113.99 -3505.32 1876.81 2268.21 
-2624.45 1463.5 2497.74 -1796.76 1153.52 2034.4 -1183 1197.43 2821.93 
-937.616 1659.2 1961.17 -25.9852 1469.82 2321.38 648.756 1051.12 2926.7 
1050.08 1445.54 2100.27 1596.94 1750.04 2882.2 2439.79 1535.04 2128.18 
3521.53 1228.16 2167.62 4514.64 1347.93 2183.6 -4138.99 2517.69 2699.94 
-4959.65 2533.09 2129.98 -3409.09 2929.87 2155.96 -2784.49 2417.31 2745.2 
-1160.87 2633.29 1940.56 -1840.7 2076.67 2414.72 -1600.62 2983.61 2766.93 
-599.032 2199.27 2729.47 -248.579 2967.73 2175.06 927.994 2869.02 2315.54 
644.228 2040.41 2795.12 1778.19 2280.94 2055.52 2646.68 2773.52 2091.43 
3119.53 2074.24 2624.21 3990.53 2196.99 2150.02 4130.68 2781.09 2946.71 
-4419.87 3373.84 2131.16 -4921.7 3998.59 2772.22 -3838.98 3913.53 2737.44 
-2981.3 3887.33 2226.18 -2372.95 3099.97 2145.36 -1524.3 3599.37 1983.92 
-585.536 3907.81 2120.88 194.864 3729.27 2717.13 1854.75 3124.43 2588.51 
1956.01 3971.44 2069.11 1185.94 3844.92 2765.72 2981.75 3908.84 2192.79 
2945.46 3205.61 2941.65 3582.93 3110.74 2179.34 3906.45 3916.72 2673.75 
4579.87 3420.01 2128.28 -4368.97 4531.37 2132.62 -2966.97 4884.38 2276.22 
-2059.63 4597.97 1962.82 -1535.97 4211.85 2770.79 -1034.3 4800.74 2095.52 
-468.435 4563.72 2883.25 186.97 4541.34 2129.87 1183.9 4604.48 2116.41 
1881.74 4711.51 2822.59 2523.52 4793.53 2061.55 2958.4 4577.32 2935.26 
3578.73 4710.42 2163.98 4598.09 4607.86 2144.11 -4922.29 -4388.68 3738.4 
-3031.34 -4472.4 3289.35 -2152.81 -4234.12 3701.7 -1581.94 -4906.41 3235.09 
-701.432 -4921.19 3706.51 47.5041 -4612.09 3120.95 693.942 -4652.12 3881.55 
1137.42 -4642.62 2986.44 1910.54 -4671.16 3618.67 4188.4 -4031.86 3419.44 
-4461.64 -3240.4 3149.43 -3968.76 -3989.9 3828.16 -3568.86 -3653.23 2976.11 
-3143.57 -3064.65 3662.44 -2569.08 -3627.06 3026.71 -1243.42 -3790.45 3696.63 
-254.758 -3716.11 3452.05 890.763 -3742.23 3446.96 2099.89 -3672.08 3140.13 
2660.56 -3091.78 3729.09 3058.15 -3976.47 3489.7 3588.37 -3124.72 3362.23 
4568.19 -3010.94 3208.38 -4397.53 -2268.93 3453.54 -2554.07 -2629.58 2983.36 
-1764.15 -2945.16 3523.1 -1113.93 -2112.21 3275.04 -811.373 -2893.69 3819.71 
96.5025 -2781.53 3418.08 784.22 -2053.44 3261.89 1506.91 -2952.04 3497.52 
2205.92 -2237.81 3482.08 3779.63 -2216.22 3733.41 -3626.03 -1508.95 3507.88 
-2574.65 -1825.49 3576.36 -1675.29 -1406.53 3705.18 -172.242 -1910.53 3008.72 
[...]
POINT_DATA 956
FIELD FieldData 7
id 1 956 int
72 12 38 94 7 11 80 109 30 
100 48 107 102 124 89 79 97 81 
90 82 51 91 49 36 60 78 18 
16 28 26 31 14 27 98 15 45 
104 96 22 87 54 37 59 19 1 
2 4 108 43 29 84 33 92 21 
88 42 55 66 46 77 73 20 69 
110 131 13 40 53 23 35 105 52 
8 119 61 25 34 58 6 85 47 
63 57 32 75 65 93 39 83 67 
41 10 9 17 113 3 56 50 24 
166 44 5 164 139 185 103 194 95 
125 135 86 150 137 223 193 133 149 
202 161 99 274 147 168 128 163 132 
157 179 148 155 186 145 278 281 101 
156 181 141 134 212 187 225 165 136 
195 170 62 159 123 142 224 70 121 
172 152 115 197 130 140 160 171 126 
209 153 217 177 112 316 158 118 127 
207 169 154 111 191 143 114 151 129 
175 198 76 167 189 200 116 192 214 
219 196 210 221 146 182 144 74 216 
64 117 68 228 206 138 120 71 122 
183 162 201 178 180 208 215 106 248 
427 242 276 232 273 378 262 289 337 
293 258 386 266 406 239 322 229 307 
275 312 309 245 292 320 327 330 350 
299 412 259 240 301 254 329 190 227 
317 267 356 282 304 305 368 285 268 
314 310 233 354 264 296 375 315 256 
376 204 298 211 323 231 252 283 213 
257 370 324 374 270 297 243 265 234 
253 235 308 271 381 288 302 380 365 
263 230 261 269 218 357 236 255 367 
244 321 250 174 226 294 173 246 355 
279 272 331 290 260 333 372 251 205 
295 222 379 277 352 349 326 237 184 
280 311 332 238 306 247 377 241 335 
334 176 300 249 286 199 363 188 319 
318 203 360 291 220 457 396 397 366 
408 328 417 369 418 402 419 456 437 
422 340 477 423 500 338 494 450 475 
436 488 343 444 345 439 441 429 390 
503 474 428 413 447 336 409 476 443 
467 432 508 445 348 459 416 391 405 
385 325 347 424 341 388 415 344 481 
451 382 400 303 339 435 362 426 440 
364 389 504 287 358 313 392 438 433 
425 442 469 403 284 414 399 463 398 
411 353 401 387 478 346 410 361 393 
502 452 509 394 373 468 404 395 384 
420 454 351 421 448 434 430 342 505 
371 497 359 383 446 473 431 449 610 
520 560 528 499 589 548 485 555 546 
562 529 598 541 532 479 566 583 501 
516 507 558 530 482 613 658 547 524 
491 597 483 618 466 565 616 471 554 
579 556 571 577 487 620 493 537 511 
495 513 553 551 574 522 563 535 518 
552 533 407 526 640 573 496 557 461 
521 489 621 455 593 512 612 490 617 
498 531 464 543 462 492 525 536 484 
564 465 581 568 586 519 460 602 470 
559 545 534 453 538 514 599 550 609 
458 549 544 480 517 539 510 515 506 
527 486 542 608 605 540 523 472 569 
561 623 669 641 572 728 713 653 601 
631 664 720 578 642 700 736 643 590 
666 672 575 694 716 587 659 677 710 
650 741 714 585 757 707 709 651 680 
647 652 701 673 726 654 596 781 638 
630 668 679 667 663 646 692 731 718 
693 730 688 594 607 629 592 682 576 
633 724 622 687 698 674 722 603 567 
656 595 635 645 634 678 628 619 580 
611 661 695 648 591 588 644 662 584 
649 624 717 675 729 657 615 665 704 
600 637 676 684 625 582 725 627 626 
639 708 670 696 660 604 706 775 570 
711 632 782 636 671 699 734 606 773 
780 804 747 776 783 831 764 813 862 
840 762 744 833 828 836 752 765 834 
793 816 733 763 797 761 841 805 740 
789 860 690 790 811 817 772 750 778 
691 838 771 795 846 760 786 835 742 
779 715 801 768 737 751 721 774 697 
703 766 723 683 739 784 655 807 770 
681 753 759 787 819 719 754 686 685 
822 738 746 748 812 689 788 712 755 
727 826 791 749 745 843 756 809 808 
798 732 769 803 814 702 743 837 785 
825 824 767 810 842 735 777 806 758 
705 818 861 883 863 864 889 872 868 
880 830 884 799 792 888 823 852 885 
898 796 870 858 851 820 854 802 886 
839 894 845 827 857 829 832 892 800 
873 897 850 844 887 853 882 815 875 
821 876 856 891 855 847 859 794 871 
878 865 895 899 874 896 849 881 867 
879 893 890 877 869 848 866 919 932 
931 903 923 945 917 912 944 926 918 
948 908 936 910 938 934 940 947 956 
939 927 924 928 942 946 913 920 955 
935 953 902 949 952 921 907 909 904 
933 915 914 951 925 930 943 950 905 
901 929 900 941 922 937 916 906 911 
954 614 
type 1 956 int
1 1 1 1 1 1 1 1 1 
1 1 1 1 1 1 1 1 1 
1 1 1 1 1 1 1 1 1 
1 1 1 1 1 1 1 1 1 
1 1 1 1 1 1 1 1 1 
1 1 1 1 1 1 1 1 1 
1 1 1 1 1 1 1 1 1 
1 1 1 1 1 1 1 1 1 
1 1 1 1 1 1 1 1 1 
1 1 1 1 1 1 1 1 1 
1 1 1 1 1 1 1 1 1 
1 1 1 1 1 1 1 1 1 
1 1 1 1 1 1 1 1 1 
1 1 1 1 1 1 1 1 1 
1 1 1 1 1 1 1 1 1 
1 1 1 1 1 1 1 1 1 
1 1 1 1 1 1 1 1 1 
1 1 1 1 1 1 1 1 1 
1 1 1 1 1 1 1 1 1 
1 1 1 1 1 1 1 1 1 
1 1 1 1 1 1 1 1 1 
1 1 1 1 1 1 1 1 1 
1 1 1 1 1 1 1 1 1 
1 1 1 1 1 1 1 1 1 
1 1 1 1 1 1 1 1 1 
1 1 1 1 1 1 1 1 1 
1 1 1 1 1 1 1 1 1 
1 1 1 1 1 1 1 1 1 
1 1 1 1 1 1 1 1 1 
1 1 1 1 1 1 1 1 1 
1 1 1 1 1 1 1 1 1 
1 1 1 1 1 1 1 1 1 
1 1 1 1 1 1 1 1 1 
1 1 1 1 1 1 1 1 1 
1 1 1 1 1 1 1 1 1 
1 1 1 1 1 1 1 1 1 
1 1 1 1 1 1 1 1 1 
1 1 1 1 1 1 1 1 1 
1 1 1 1 1 1 1 1 1 
1 1 1 1 1 1 1 1 1 
1 1 1 1 1 1 1 1 1 
1 1 1 1 1 1 1 1 1 
1 1 1 1 1 1 1 1 1 
1 1 1 1 1 1 1 1 1 
1 1 1 1 1 1 1 1 1 
1 1 1 1 1 1 1 1 1 
1 1 1 1 1 1 1 1 1 
1 1 1 1 1 1 1 1 1 
1 1 1 1 1 1 1 1 1 
1 1 1 1 1 1 1 1 1 
1 1 1 1 1 1 1 1 1 
1 1 1 1 1 1 1 1 1 
1 1 1 1 1 1 1 1 1 
1 1 1 1 1 1 1 1 1 
1 1 1 1 1 1 1 1 1 
1 1 1 1 1 1 1 1 1 
1 1 1 1 1 1 1 1 1 
1 1 1 1 1 1 1 1 1 
1 1 1 1 1 1 1 1 1 
1 1 1 1 1 1 1 1 1 
1 1 1 1 1 1 1 1 1 
1 1 1 1 1 1 1 1 1 
1 1 1 1 1 1 1 1 1 
1 1 1 1 1 1 1 1 1 
1 1 1 1 1 1 1 1 1 
1 1 1 1 1 1 1 1 1 
1 1 1 1 1 1 1 1 1 
1 1 1 1 1 1 1 1 1 
1 1 1 1 1 1 1 1 1 
1 1 1 1 1 1 1 1 1 
1 1 1 1 1 1 1 1 1 
1 1 1 1 1 1 1 1 1 
1 1 1 1 1 1 1 1 1 
1 1 1 1 1 1 1 1 1 
1 1 1 1 1 1 1 1 1 
1 1 1 1 1 1 1 1 1 
1 1 1 1 1 1 1 1 1 
1 1 1 1 1 1 1 1 1 
1 1 1 1 1 1 1 1 1 
1 1 1 1 1 1 1 1 1 
1 1 1 1 1 1 1 1 1 
1 1 1 1 1 1 1 1 1 
1 1 1 1 1 1 1 1 1 
1 1 1 1 1 1 1 1 1 
1 1 1 1 1 1 1 1 1 
1 1 1 1 1 1 1 1 1 
1 1 1 1 1 1 1 1 1 
1 1 1 1 1 1 1 1 1 
1 1 1 1 1 1 1 1 1 
1 1 1 1 1 1 1 1 1 
1 1 1 1 1 1 1 1 1 
1 1 1 1 1 1 1 1 1 
1 1 1 1 1 1 1 1 1 
1 1 1 1 1 1 1 1 1 
1 1 1 1 1 1 1 1 1 
1 1 1 1 1 1 1 1 1 
1 1 1 1 1 1 1 1 1 
1 1 1 1 1 1 1 1 1 
1 1 1 1 1 1 1 1 1 
1 1 1 1 1 1 1 1 1 
1 1 1 1 1 1 1 1 1 
1 1 1 1 1 1 1 1 1 
1 1 1 1 1 1 1 1 1 
1 1 1 1 1 1 1 1 1 
1 1 1 1 1 1 1 1 1 
1 1 1 1 1 1 1 1 1 
1 1 
i 3 956 int
0 1 0 0 0 0 1 1 0 
0 1 0 0 0 0 0 0 0 
0 1 0 0 0 0 0 1 0 
0 0 0 -1 0 0 0 0 0 
0 0 0 0 0 0 0 0 0 
0 0 0 0 0 0 0 1 0 
0 0 0 0 0 0 0 0 0 
0 0 0 -1 0 0 1 1 0 
0 0 0 0 0 0 0 0 0 
0 0 0 0 0 0 0 0 0 
0 0 0 0 0 0 0 0 0 
0 0 0 0 0 0 0 0 0 
0 0 0 0 0 0 0 0 0 
-1 0 0 0 0 0 0 0 0 
0 0 0 0 0 0 0 0 0 
0 0 0 0 0 0 0 0 0 
0 0 0 0 0 0 0 0 0 
0 0 0 0 0 0 0 0 0 
0 0 0 0 0 0 0 0 0 
0 0 0 0 0 0 0 0 0 
0 -1 0 1 -1 0 0 0 0 
0 0 0 0 0 0 0 0 0 
0 0 0 0 0 0 0 0 0 
0 0 0 -1 0 0 0 0 0 
0 0 0 0 0 0 0 0 0 
0 0 0 0 0 0 0 0 0 
0 0 0 0 0 0 0 0 0 
1 -1 0 0 0 0 0 0 0 
0 0 0 0 -1 0 0 0 0 
0 0 0 0 0 0 0 0 0 
0 0 0 1 0 0 0 0 0 
0 -1 0 0 -1 0 0 -1 0 
0 -1 0 0 -1 0 0 -1 0 
0 0 0 0 0 0 0 0 0 
1 0 0 0 1 0 0 0 0 
0 0 0 0 0 0 0 0 0 
0 0 0 0 1 0 0 0 0 
0 1 0 1 0 0 0 1 0 
0 0 0 0 0 0 0 0 0 
0 0 0 0 0 0 -1 1 0 
0 0 0 0 1 0 0 0 0 
0 0 0 0 0 0 0 1 0 
0 0 0 0 0 0 0 0 0 
0 0 0 0 0 0 0 0 0 
0 0 0 -1 0 0 0 0 0 
0 0 0 0 0 0 0 1 0 
0 0 0 0 0 0 0 0 0 
0 0 0 0 0 0 0 0 0 
0 0 0 -1 0 0 -1 0 0 
1 0 0 1 0 0 0 0 0 
0 0 0 0 0 0 0 0 0 
0 0 0 0 0 0 0 0 0 
0 0 0 0 0 0 -1 0 0 
0 0 0 0 0 0 0 0 0 
0 0 0 0 0 0 0 0 0 
0 0 0 -1 0 0 0 0 0 
0 0 0 0 0 0 0 0 0 
0 0 0 0 0 0 0 0 0 
-1 0 0 0 0 0 0 0 0 
0 0 0 -1 0 0 1 0 0 
0 0 0 0 0 0 0 0 0 
0 0 0 0 0 0 0 0 0 
0 0 0 0 0 0 -1 0 0 
0 0 0 0 0 0 0 -1 0 
0 0 0 0 -1 0 0 0 0 
0 0 0 0 -1 0 0 0 0 
0 0 0 0 0 0 0 0 0 
0 0 0 1 -1 0 0 0 0 
0 0 0 0 0 0 0 0 0 
0 0 0 0 -1 0 0 0 0 
0 0 0 0 0 0 -1 0 0 
0 0 0 -1 0 0 1 0 0 
0 1 0 0 0 0 0 0 0 
0 1 0 0 0 0 0 0 0 
0 0 0 0 0 0 0 0 0 
0 0 0 0 0 0 0 0 0 
0 0 0 0 1 0 0 0 0 
0 1 0 0 0 0 0 0 0 
0 0 0 0 1 0 0 0 0 
0 0 0 0 0 0 0 0 0 
0 0 0 0 0 0 0 0 0 
0 0 0 0 0 0 0 0 0 
0 0 0 0 0 0 0 0 0 
0 0 0 0 0 0 0 0 0 
0 0 0 0 0 0 0 0 0 
0 0 0 -1 0 0 0 0 0 
0 0 0 0 0 0 0 0 0 
0 0 0 0 0 0 0 0 0 
0 0 0 0 0 0 0 0 0 
-1 0 0 -1 0 0 0 0 0 
0 0 0 1 0 0 0 0 0 
1 0 0 0 0 0 1 0 0 
0 0 0 0 0 0 0 0 0 
0 0 0 0 0 0 0 0 0 
0 0 0 0 0 0 0 0 0 
1 0 0 1 0 0 0 0 0 
0 0 0 0 0 0 0 0 0 
0 0 0 0 0 0 0 0 0 
0 0 0 0 0 0 0 0 0 
0 0 0 0 0 0 0 0 0 
1 0 0 0 0 0 0 0 0 
0 0 0 0 0 0 0 0 0 
0 0 0 0 0 0 0 0 0 
0 0 0 0 0 0 0 0 0 
1 0 0 0 0 0 0 0 0 
0 0 0 0 0 0 0 -1 0 
0 0 0 0 0 0 0 0 0 
0 0 0 0 0 0 0 0 0 
0 0 0 -1 0 0 -1 0 0 
0 0 0 1 0 0 0 0 0 
0 0 0 0 0 0 0 0 0 
0 0 0 0 0 0 0 0 0 
0 0 0 0 0 0 0 0 0 
0 0 0 0 0 0 0 0 0 
0 0 0 0 -1 0 0 0 0 
0 0 0 0 0 0 0 -1 0 
0 0 0 0 0 0 0 -1 0 
0 0 0 0 -1 0 0 0 0 
0 0 0 -1 -1 0 1 0 0 
0 0 0 0 0 0 0 0 0 
0 1 0 0 1 0 0 0 0 
0 1 0 0 0 0 -1 1 0 
0 0 0 0 0 0 0 0 0 
0 0 0 0 0 0 0 0 0 
0 0 0 0 0 0 0 0 0 
0 0 0 0 0 0 0 0 0 
0 0 0 0 0 0 0 0 0 
0 1 0 0 0 0 0 0 0 
0 0 0 0 0 0 0 0 0 
0 0 0 0 0 0 0 0 0 
0 0 0 0 0 0 0 0 0 
0 0 0 0 0 0 0 0 0 
0 0 0 0 0 0 0 0 0 
-1 0 0 0 0 0 0 0 0 
0 0 0 0 0 0 0 0 0 
0 0 0 0 0 0 0 0 0 
0 0 0 0 0 0 0 0 0 
0 0 0 0 0 0 -1 0 0 
0 0 0 0 0 0 0 0 0 
0 0 0 0 0 0 0 0 0 
0 0 0 0 0 0 0 0 0 
0 0 0 -1 0 0 0 0 0 
-1 0 0 0 0 0 0 0 0 
1 0 0 0 0 0 0 0 0 
0 0 0 0 0 0 0 0 0 
0 0 0 0 0 0 0 0 0 
0 0 0 0 0 0 0 0 0 
0 0 0 0 0 0 0 0 0 
0 0 0 0 0 0 0 0 0 
0 0 0 0 0 0 -1 0 0 
0 0 0 1 0 0 0 0 0 
0 -1 0 0 0 0 0 0 0 
0 0 0 0 0 0 0 -1 0 
0 0 0 0 0 0 0 0 0 
0 0 0 0 0 0 0 0 0 
1 0 0 1 -1 0 0 0 0 
0 -1 0 1 0 0 0 0 0 
0 0 0 0 0 0 0 0 0 
0 -1 0 0 -1 0 0 0 0 
0 0 0 0 0 0 0 0 0 
0 1 0 0 0 0 0 0 0 
0 0 0 0 0 0 0 0 0 
0 1 0 0 0 0 0 0 0 
0 0 0 0 0 0 0 0 0 
0 0 0 0 0 0 0 0 0 
0 0 0 0 1 0 0 0 0 
0 0 0 0 0 0 0 0 0 
0 0 0 1 0 0 0 0 0 
0 0 0 0 -1 0 0 0 0 
0 0 0 0 0 0 0 0 0 
0 0 0 0 0 0 0 0 0 
0 0 0 -1 0 0 0 0 0 
0 0 0 0 0 0 0 0 0 
0 0 0 0 0 0 0 0 0 
0 0 0 0 0 0 0 0 0 
-1 0 0 0 0 0 0 0 0 
0 0 0 0 0 0 0 0 0 
0 0 0 0 0 0 0 0 0 
0 0 0 0 0 0 0 0 0 
0 0 0 0 0 0 0 0 0 
0 0 0 0 0 0 0 0 0 
0 0 0 0 0 0 0 0 0 
-1 0 0 1 0 0 0 0 0 
0 0 0 0 0 0 0 0 0 
0 0 0 0 0 0 0 0 0 
0 0 0 0 0 0 0 0 0 
0 0 0 0 0 0 0 0 0 
0 0 0 0 0 0 0 0 0 
0 0 0 0 0 0 0 0 0 
0 0 0 0 0 0 0 0 0 
0 0 0 0 0 0 0 0 0 
0 0 0 0 0 0 0 0 0 
0 0 0 0 0 0 0 0 0 
0 0 0 0 0 0 0 0 0 
0 0 0 0 0 0 0 0 0 
1 0 0 0 0 0 0 0 0 
0 0 0 0 -1 0 0 -1 0 
0 0 0 0 0 0 0 0 0 
0 -1 0 0 -1 0 1 0 0 
0 0 0 0 0 0 0 0 0 
0 0 0 0 0 0 0 0 0 
0 1 0 0 0 0 0 0 0 
0 0 0 -1 0 0 0 0 0 
0 0 0 0 0 0 0 0 0 
0 1 0 0 0 0 0 0 0 
0 0 0 0 0 0 0 0 0 
0 0 0 0 0 0 0 0 0 
-1 0 0 1 0 0 0 0 0 
0 0 0 0 0 0 0 0 0 
0 0 0 0 0 0 0 0 0 
0 0 0 0 0 0 0 0 0 
-1 0 0 0 0 0 0 0 0 
1 0 0 0 0 0 0 0 0 
0 0 0 0 0 0 0 0 0 
0 0 0 0 0 0 0 0 0 
0 0 0 0 0 0 -1 0 0 
1 0 0 1 0 0 0 0 0 
0 0 0 0 0 0 0 0 0 
0 0 0 0 0 0 0 0 0 
0 0 0 0 0 0 0 0 0 
0 0 0 1 0 0 0 0 0 
0 0 0 0 0 0 0 0 0 
0 0 0 0 0 0 0 0 0 
0 0 0 0 0 0 0 0 0 
0 0 0 0 0 0 0 0 0 
0 0 0 0 0 0 0 0 0 
0 0 0 0 0 0 0 0 0 
0 0 0 0 0 0 0 0 0 
0 0 0 0 0 0 0 0 0 
0 0 0 0 0 0 0 0 0 
0 0 0 0 0 0 0 0 0 
0 0 0 0 0 0 -1 0 0 
0 0 0 0 0 0 0 0 0 
0 0 0 0 0 0 0 0 0 
0 0 0 0 0 0 0 0 0 
0 -1 0 0 0 0 1 0 0 
0 0 0 0 0 0 0 0 0 
0 -1 0 0 -1 0 0 0 0 
0 0 0 0 0 0 0 0 0 
0 0 0 -1 0 0 0 0 0 
1 0 0 0 0 0 0 0 0 
0 0 0 0 0 0 0 1 0 
0 0 0 0 0 0 0 0 0 
0 0 0 0 0 0 1 0 0 
0 0 0 0 0 0 0 0 0 
0 0 0 0 0 0 0 0 0 
0 0 0 0 0 0 0 0 0 
0 0 0 0 0 0 0 0 0 
0 0 0 0 0 0 0 0 0 
0 0 0 0 0 0 0 0 0 
-1 0 0 0 0 0 0 0 0 
0 0 0 0 0 0 0 0 0 
0 0 0 0 0 0 0 0 0 
0 0 0 0 0 0 0 0 0 
0 0 0 0 0 0 0 0 0 
0 0 0 0 0 0 0 0 0 
0 0 0 0 0 0 0 0 0 
0 0 0 0 0 0 0 0 0 
0 0 0 0 0 0 0 0 0 
0 0 0 0 0 0 0 0 0 
0 0 0 0 0 0 0 0 0 
0 0 0 1 0 0 0 0 0 
0 0 0 0 0 0 0 0 0 
0 0 0 0 0 0 0 0 0 
0 0 0 0 0 0 1 0 0 
0 0 0 0 0 0 0 0 0 
0 0 0 0 0 0 0 0 0 
0 0 0 0 0 0 0 0 0 
0 0 0 0 0 0 0 0 0 
0 0 0 0 0 0 0 0 0 
0 0 0 0 0 0 0 0 0 
0 0 0 0 0 0 0 0 0 
-1 0 0 0 0 0 1 0 0 
0 0 0 0 -1 0 0 0 0 
0 0 0 0 -1 0 0 0 0 
0 0 0 0 0 0 0 0 0 
-1 0 0 0 0 0 1 0 0 
0 0 0 0 0 0 0 0 0 
0 0 0 0 0 0 1 0 0 
0 0 0 0 0 0 0 0 0 
0 0 0 0 0 0 0 0 0 
0 0 0 0 0 0 1 0 0 
0 0 0 0 0 0 0 0 0 
0 0 0 0 0 0 0 0 0 
0 0 0 0 0 0 0 0 0 
-1 0 0 0 0 0 0 0 0 
0 0 0 0 0 0 0 0 0 
0 0 0 0 0 0 0 0 0 
0 0 0 0 0 0 0 0 0 
0 0 0 0 0 0 0 0 0 
0 0 0 0 0 0 0 0 0 
0 0 0 0 0 0 0 0 0 
0 0 0 0 0 0 0 0 0 
0 0 0 0 0 0 0 0 0 
-1 1 0 0 0 0 0 0 0 
0 0 0 0 0 0 0 0 0 
0 0 0 0 0 0 0 0 0 
0 0 0 0 0 0 0 0 0 
0 0 0 0 0 0 0 0 0 
0 0 0 0 0 0 0 0 0 
0 0 0 0 0 0 0 0 0 
0 0 0 0 0 0 0 0 0 
0 0 0 0 0 0 0 0 0 
0 0 0 0 0 0 0 0 0 
0 0 0 0 0 0 0 0 0 
0 0 0 0 0 0 0 0 0 
0 0 0 0 0 0 0 0 0 
0 0 0 0 0 0 0 0 0 
0 0 0 0 0 0 0 0 0 
0 0 0 0 0 0 0 0 0 
0 0 0 0 0 0 0 0 0 
0 0 0 0 0 0 0 0 0 
0 0 0 0 0 0 0 0 0 
0 0 0 0 0 0 0 0 0 
0 0 0 0 0 0 0 0 0 
0 0 0 0 0 0 0 0 0 
0 0 0 0 0 0 0 0 0 
0 0 0 0 0 0 0 0 0 
0 0 0 0 0 0 
v 3 956 double
0.000198482 0.000220437 8.98491e-05 2.13972e-05 0.000401328 0.000167947 0.000233122 0.000327208 8.96242e-05 
-8.63267e-06 0.000108527 0.000128272 0.000247533 0.000266679 -7.37493e-05 -0.000229201 -9.97932e-05 0.000555918 
-9.29824e-05 -9.76695e-06 0.000181225 0.000189065 9.29862e-05 0.000173967 0.000165981 6.35405e-05 0.000121042 
0.00018793 0.000267739 0.000122658 0.000143494 0.000337884 7.83196e-05 0.000182521 8.25987e-05 0.000121258 
0.000206974 0.000157727 0.000160514 9.47812e-05 0.000646694 0.000242226 4.51246e-05 0.000211844 0.000208122 
0.000934735 0.000978017 0.000638798 0.000346529 -0.000156079 0.00059446 0.000160781 -4.91382e-05 0.000571507 
0.000155138 3.3369e-05 0.000173989 0.000220802 0.000209472 8.02901e-05 2.36685e-05 0.000402334 0.000108147 
0.000235687 0.000382457 0.000167172 0.00046651 0.000313154 -0.000172125 0.00065278 0.000235245 0.00016683 
0.000443348 0.000852224 0.000215976 -8.111e-05 0.000523928 0.000346095 -0.000225976 0.000255659 0.000160878 
0.000228057 -0.000340752 6.86076e-05 6.85195e-05 -1.23556e-06 0.000102968 0.000281937 0.000235455 0.000552726 
0.000526315 -9.02067e-05 0.000238092 0.000464708 0.000235526 5.7075e-05 -0.000405812 0.000366283 0.000753172 
-0.000291059 0.000809336 0.000235916 -4.23108e-05 0.00030458 0.000404017 -0.000129072 -0.00037909 2.14263e-11 
-6.29162e-05 0.00011651 0.000228263 6.95702e-05 0.000116732 0.000187784 0.000339684 0.000260318 0.000274407 
0.000554877 0.000393018 0.000357136 -0.000111682 0.00040273 0.000675544 0.000125781 0.000439921 0.000780121 
-0.00021925 -1.13395e-05 -1.46143e-06 0.000173634 0.00014527 0.000311262 0.000363923 0.000138805 0.000301468 
0.00018018 8.77366e-05 0.000150417 0.00110773 -0.000146323 0.00060374 0.000314376 -0.000241528 0.000450999 
0.000467715 0.000497804 0.00094475 -0.000506452 0.00136696 0.000155366 9.40318e-05 0.000229301 0.000744636 
0.000171381 0.000360368 0.000410247 -0.000176369 0.000378483 0.000304882 9.34364e-05 0.000164349 0.000492475 
0.000130283 8.86149e-05 0.000306717 -1.42462e-05 0.000254801 0.000374035 -0.00018665 3.66782e-05 8.70288e-05 
7.49195e-05 0.000133705 0.000101048 0.000444092 6.69442e-05 0.00046833 0.000433384 0.000639205 0.000561975 
0.000266035 5.05204e-05 0.000260191 0.000102787 0.000146775 0.00015828 8.02122e-05 0.000183632 0.000447612 
-0.000171188 5.59822e-05 0.000166544 -0.000227135 0.000333185 5.16416e-05 -0.000410792 7.46485e-06 -7.13299e-05 
-0.000663877 -0.000212602 8.98622e-05 -0.000556103 6.5805e-05 0.000202868 0.000230115 8.40923e-05 0.000395553 
0.000101032 4.55898e-05 0.00012815 0.000100634 -0.000175359 0.000420809 7.96214e-05 -5.45087e-05 0.000248101 
0.000212292 0.00012694 0.000125751 4.89201e-05 0.000152636 0.000209501 8.31115e-05 9.33283e-05 8.24273e-05 
-0.000112239 -8.66046e-05 7.48687e-05 -9.74145e-05 -0.000112586 -8.52369e-05 -0.000135852 -7.85789e-07 4.68932e-05 
-9.96483e-05 -0.000306043 -4.14032e-05 0.000373798 3.21656e-05 0.000320285 0.000140143 7.70927e-06 6.63492e-05 
0.000123363 5.88332e-05 0.000100136 0.000183978 0.000242835 0.000145506 0.000251603 0.000179232 0.000226009 
0.000214618 -0.000130737 0.00010187 -0.000256481 -8.85006e-05 0.000155979 -0.000413767 0.000218043 1.56842e-05 
-6.94278e-05 -2.20009e-05 7.45836e-05 0.00028753 0.000131501 0.000283189 5.50789e-05 -0.00022924 1.4394e-05 
6.6571e-05 5.21112e-05 0.000107703 9.15698e-05 0.000132806 5.64619e-06 0.000105331 0.000194736 0.000131528 
0.000366464 0.0001731 7.4034e-05 0.000199176 0.000255316 0.000178315 0.000700313 0.000275759 0.000108041 
-0.000450079 4.25817e-05 4.1742e-05 -0.000329335 0.000481123 -2.28282e-05 -7.96709e-05 9.59916e-05 0.000227917 
0.000153075 7.49934e-05 0.000267684 0.000262769 5.18967e-05 0.000127995 0.000154319 -0.00017379 -5.69309e-05 
0.000158361 0.000237454 0.000114816 0.000234772 0.000586494 0.000417401 0.000352843 0.000986041 0.000634685 
2.58279e-05 0.000631788 0.000149706 0.000645444 0.00114776 0.00150725 -0.000410754 9.60945e-05 0.00120474 
-0.000255962 -0.000344954 0.000484814 0.00051353 0.000101524 0.000414421 0.000268484 0.000647035 0.000253674 
8.31072e-05 0.000554913 0.000201719 0.000482168 0.000359894 -0.000126805 0.000170816 0.000496186 0.000542523 
3.99399e-05 0.000909683 0.00078197 -7.69967e-05 -8.81077e-05 0.000359273 0.000508177 -1.39437e-05 0.00129567 
-0.000242686 0.000275796 0.000947746 0.000849815 -0.000251383 0.00129008 0.000777621 1.09463e-05 0.000442533 
0.000704691 0.000130318 0.000410709 0.000462251 0.000614976 7.30202e-05 0.000343517 0.000423887 0.000397086 
-0.000212167 0.000974809 0.000650279 -0.000482193 -3.22908e-05 0.000865745 -0.000220501 0.000233744 0.000994423 
-0.000294489 0.000376518 0.000515429 0.000145622 0.00035594 0.000323741 0.000259052 0.000169334 0.000727905 
0.000800221 -0.000118747 0.000584727 0.000422577 0.000148573 0.000752389 0.000569924 1.27998e-05 0.000470864 
0.000614492 0.00045667 0.00060827 0.000661702 9.99911e-05 0.00018011 -7.10183e-05 0.000626095 0.00069496 
0.000920523 -0.000390418 0.00130381 -0.00044689 0.00054446 0.00147306 -0.000732948 0.000686637 0.00092989 
-9.92196e-05 0.000267061 0.000521637 3.56447e-05 0.000549479 0.00116898 9.76852e-07 0.000232242 0.000668876 
0.000377933 4.02604e-05 0.000159372 0.000459596 0.000290776 0.000531426 0.000491154 0.000124148 0.000388553 
0.000590951 -0.00082125 0.000830238 0.000551309 0.00083892 0.00070867 1.98061e-05 0.000136438 0.000292406 
-0.000165925 9.54291e-05 0.00133219 -0.000426634 0.000653374 0.00125107 -0.000299915 0.000552879 0.000949159 
4.61212e-05 0.000471922 0.00121557 7.13772e-05 4.73873e-05 0.000490172 4.62275e-05 0.000292555 0.000510959 
0.000703236 -0.000159652 0.000643187 0.000350666 0.000220128 0.000141286 0.000274275 2.95422e-05 0.000276961 
0.00110583 -0.000695697 0.000134488 -0.000145263 -0.000159778 0.000381516 0.000628332 -0.000447541 0.00123948 
6.10115e-05 0.00128875 0.00174617 0.000325049 0.000796732 0.00111846 -6.48715e-05 0.000412562 0.00114467 
-7.46266e-05 0.000156213 0.000553563 -0.000143955 0.000247897 0.000311683 4.50451e-05 0.000210095 0.000388162 
-0.000442681 -0.00056635 0.000140363 7.30368e-05 -0.00031061 0.000215843 0.000426506 -0.000151064 0.000280474 
0.000439233 0.00028093 0.00108165 6.24217e-05 0.00049577 0.00102681 0.000383764 0.00041122 0.000725944 
0.000272918 0.000303073 0.00112698 -4.16459e-05 0.000362747 0.000494537 0.000279518 0.00079662 0.000748333 
-0.000587406 1.37106e-05 0.000224843 -0.000460127 0.000282324 0.000133902 0.000144528 -0.000309435 0.000895307 
0.000138704 0.000472973 0.00108667 0.000400547 0.000460341 0.000916203 0.000465389 0.000250462 0.000382708 
0.000159592 6.8201e-05 0.000372066 -4.6984e-05 -0.000267434 0.000821332 0.000343389 -0.000481764 0.000264534 
-0.000350918 -0.000406728 0.000274679 -0.000340823 0.000352161 0.000674988 -0.000220763 0.000150283 9.41261e-05 
2.32582e-05 -0.000144371 0.000447439 0.000149442 -0.000413925 0.000504781 9.17848e-05 0.000160512 0.000305365 
8.31706e-05 0.00028012 0.000125536 1.85169e-05 0.000164179 0.000134289 9.54911e-05 0.000138873 0.000134178 
0.000466324 0.000497046 0.000241527 7.40626e-05 0.000130821 0.000351778 0.000964823 0.000870876 -8.82749e-06 
-0.000246112 -5.58207e-05 -0.00017018 -0.00025522 6.78116e-05 -0.000120675 -0.000356209 0.000419501 -7.65908e-05 
-0.000139321 0.000118635 6.03606e-05 -3.7877e-05 -4.30948e-05 0.000214137 0.000123475 -0.000221424 0.000139419 
8.07314e-05 -5.41649e-05 0.000133128 0.000240803 0.000442867 5.83784e-05 0.000396076 0.000339198 9.05152e-05 
0.000477457 0.000642908 0.000418187 -0.000359647 5.17575e-05 -3.22934e-05 -0.000764771 0.000491136 0.000161785 
-0.000551478 0.000713957 -1.21318e-05 -0.000227722 0.000886308 0.000352782 4.95381e-05 0.000320681 0.000328513 
0.000423833 0.00020164 0.00052267 0.000181314 0.000344814 0.00019438 0.000173318 0.000255397 -0.000153208 
0.000242455 0.000488379 8.25333e-05 0.000169287 0.000590679 8.52314e-05 0.000189101 -9.55733e-05 0.000264138 