# vtk DataFile Version 4.0
Generated by LIGGGHTS
ASCII
DATASET POLYDATA
POINTS 114 float
-2419.13 4695.32 499.703 -1122.22 4404.2 499.697 518.694 -4219.69 499.699 
1439.49 4690.87 881.484 4619.77 -3726.52 527.255 -1261.31 -3544.52 499.306 
1454.69 -3040.85 499.703 2465.81 -3088.99 500.804 4211.12 -2632.67 499.699 
2836.91 -2160.03 499.572 -83.4625 -1776.3 499.947 -3877.17 -318.466 500.293 
-2851.5 -799.255 516.354 1954.86 -442.233 587.833 4485.14 -687.003 499.699 
-738.082 961.065 603.721 835.924 -18.3681 594.089 4210.5 331.544 499.699 
-934.762 1982.12 1894.47 2993.67 1873.99 499.699 -4280.34 2190.54 753.972 
-2303.69 2448.48 497.661 373.488 2852.99 500.014 1388.55 2275.47 499.699 
-604.644 3077 499.699 1744.52 3233.58 1950.81 -3142.07 3970.3 499.7 
702.525 4114.73 506.02 -100.007 -2858.47 2153.73 781.597 -2297.41 597.302 
1844.17 -2061.23 523.565 -855.993 -949.301 599.651 775.462 -1045.19 536.694 
-2852.63 237.872 2154.98 -4275.19 1055.96 659.486 -1957.73 1360.12 568.927 
3686.84 2730.17 493.583 2947.82 3678.94 632.275 -2714.86 -3189.42 1763.33 
-3814.59 -1329.84 1884.78 3092.54 403.266 1970.28 -4474.19 3232.16 1100.05 
4233.45 3654.17 1189.17 -962.804 4053.2 1734.22 -4392.45 -4314.47 1153.41 
-66.5463 217.817 1183.67 -2800.5 1730.96 983.393 -1942.06 -920.279 1178.06 
1763.98 540.026 940.285 605.086 -3768.11 1522.82 -1845.48 -2198.17 3507.89 
4234.59 -2976.01 3393.86 1766.49 4409.25 3689.47 -3923.89 -2561.9 4609.58 
-2780.63 3832.23 4631.59 -4379.72 4141.17 20401.7 732.973 3790.37 20325.9 
2448.02 2784.63 20435.9 -3404.23 3822.02 20398.9 3686.87 2322.63 20294 
-1407.83 2300.95 20263.8 -2499.23 2722.55 20378.1 -3524.24 2832.72 20267.7 
3919.79 1116.67 20375 1882.17 1318.83 20385.8 -1386.3 3059.08 5272.79 
2390.64 1345.63 5742.18 4000.29 -37.5416 9973.2 86.7761 3527.31 9365.26 
-3619.96 4401.19 10097 -1297.94 86.8185 15018.6 -3500.51 -4094.39 16928.6 
3072.43 -3239.05 16234.9 -2895.44 -2326.5 16680.6 -3259.27 1053.91 17623.6 
1568.34 2207.75 17352.6 -2333.74 -4417.98 20021 2911.81 -4280.23 20237.4 
-2207.2 -3386.91 19837 4259.31 -3646.52 20233.1 2021.42 -2400.22 20041.4 
4311.04 -2105.59 20212.1 -4384.09 -1177.65 19842.1 -223.476 -1892.27 19862.4 
2707.57 -1635.67 19435.7 -3848.67 -279.851 19624 -2349.26 -396.938 20190.4 
-4.28328 -774.929 20091.1 1005.61 -850.428 19602.1 -4442.97 1867.53 20019.1 
-213.727 2495.55 20139.7 -1151.79 3782.1 20231.1 -2150.07 4184.96 20198 
2444.85 4098.18 20220.2 3987.69 4025.11 19947.2 -902.814 -4326.86 20286.6 
460.25 -4146.51 20411.7 -3291.1 -3033.97 20343.7 -1225.44 -3346.4 20491.9 
1771.23 -3904.88 20271.9 -4342.98 -2590.1 20386.6 104.647 -2758.5 20350.4 
920.338 -2003.46 20358.9 2928.5 -2537.01 20479.2 -3383.13 -1367.2 20451.1 
-1073.49 -950.69 20468.5 1699.99 -51.3624 20359.8 3874.94 -472.461 20450.5 
-4455.89 828.845 20374 -1971.67 965.977 20308.1 -806.322 787.906 20247.1 
801.974 612.554 20470.9 2808.53 836.376 20315.6 623.638 1819.31 20391.5 

VERTICES 114 228
1 0 
1 1 
1 2 
1 3 
1 4 
1 5 
1 6 
1 7 
1 8 
1 9 
1 10 
1 11 
1 12 
1 13 
1 14 
1 15 
1 16 
1 17 
1 18 
1 19 
1 20 
1 21 
1 22 
1 23 
1 24 
1 25 
1 26 
1 27 
1 28 
1 29 
1 30 
1 31 
1 32 
1 33 
1 34 
1 35 
1 36 
1 37 
1 38 
1 39 
1 40 
1 41 
1 42 
1 43 
1 44 
1 45 
1 46 
1 47 
1 48 
1 49 
1 50 
1 51 
1 52 
1 53 
1 54 
1 55 
1 56 
1 57 
1 58 
1 59 
1 60 
1 61 
1 62 
1 63 
1 64 
1 65 
1 66 
1 67 
1 68 
1 69 
1 70 
1 71 
1 72 
1 73 
1 74 
1 75 
1 76 
1 77 
1 78 
1 79 
1 80 
1 81 
1 82 
1 83 
1 84 
1 85 
1 86 
1 87 
1 88 
1 89 
1 90 
1 91 
1 92 
1 93 
1 94 
1 95 
1 96 
1 97 
1 98 
1 99 
1 100 
1 101 
1 102 
1 103 
1 104 
1 105 
1 106 
1 107 
1 108 
1 109 
1 110 
1 111 
1 112 
1 113 

POINT_DATA 114
FIELD FieldData 7
id 1 114 int
20 17 50 31 36 7 28 51 29 
14 18 54 15 4 43 42 55 46 
25 47 52 8 13 6 34 44 57 
39 11 56 22 1 26 37 33 21 
41 5 12 27 2 9 38 32 48 
16 3 19 35 23 45 24 30 49 
10 106 70 83 94 81 93 76 99 
77 114 40 53 113 67 72 110 73 
63 60 92 79 95 100 89 91 66 
108 87 59 84 78 62 105 65 88 
58 75 111 80 85 74 104 107 69 
82 102 97 103 109 98 64 96 86 
101 61 90 71 68 112 
type 1 114 int
1 1 1 1 1 1 1 1 1 
1 1 1 1 1 1 1 1 1 
1 1 1 1 1 1 1 1 1 
1 1 1 1 1 1 1 1 1 
1 1 1 1 1 1 1 1 1 
1 1 1 1 1 1 1 1 1 
1 1 1 1 1 1 1 1 1 
1 1 1 1 1 1 1 1 1 
1 1 1 1 1 1 1 1 1 
1 1 1 1 1 1 1 1 1 
1 1 1 1 1 1 1 1 1 
1 1 1 1 1 1 1 1 1 
1 1 1 1 1 1 
i 3 114 int
1 -1 0 0 -1 0 0 0 0 
0 -1 0 0 1 0 0 0 0 
0 0 0 0 0 0 0 0 0 
0 0 0 0 0 0 0 0 0 
0 0 0 0 0 0 0 0 0 
0 0 0 0 0 0 0 0 0 
0 0 0 0 0 0 0 0 0 
0 0 0 0 0 0 0 0 0 
0 0 0 0 0 0 0 0 0 
0 0 0 0 0 0 0 0 0 
0 0 0 0 0 0 0 0 0 
0 0 0 0 0 0 0 0 0 
0 0 0 0 0 0 0 0 0 
0 0 0 0 0 0 0 0 0 
0 0 0 0 0 0 0 0 0 
0 0 0 0 0 0 0 0 0 
0 0 0 0 0 0 0 0 0 
0 0 0 0 0 0 0 0 0 
0 0 0 0 0 0 0 0 0 
0 0 0 0 0 0 0 0 0 
0 0 0 0 0 0 0 0 0 
0 0 0 0 0 0 0 0 0 
0 0 0 0 0 0 0 0 0 
0 0 0 0 0 0 0 0 0 
0 0 0 0 0 0 0 0 0 
0 0 0 0 0 0 0 0 0 
0 0 0 0 0 0 0 0 0 
0 0 0 0 0 0 0 0 0 
0 0 0 0 0 0 0 0 0 
0 0 0 0 0 0 0 0 0 
0 0 0 0 0 0 0 0 0 
0 0 0 0 0 0 0 0 0 
0 0 0 0 0 0 0 0 0 
0 0 0 0 0 0 0 0 0 
0 0 0 0 0 0 0 0 0 
0 0 0 0 0 0 0 0 0 
0 0 0 0 0 0 0 0 0 
0 0 0 0 0 0 0 0 0 

v 3 114 double
0.0724811 -0.0635581 -3.10479e-05 0.0877753 -0.0618513 2.46187e-06 0 0 2.7892e-16 
-0.040471 -0.0198383 0.0632134 0.043245 0.087862 -0.047705 0 0 0.00518977 
0.000136241 0.000637637 2.20499e-06 0.0019335 0.0046949 -0.00240209 0.010053 0.0886685 3.18049e-08 
0.0321475 0.000108899 -4.48214e-05 -0.0385924 -0.0233219 -0.000976132 0 0 0.000236794 
0 0 -0.0488555 0 0 -0.0314532 0.0110969 -0.00488522 -4.11339e-14 
-0.0152101 0.0143215 0.0437974 0.0313656 -0.0303806 0.0416158 -0.00137071 -0.00264241 -4.62587e-14 
0 0 0.0721505 0 0 -3.28851e-16 -0.0540751 0.0160237 0.0852675 
0.0156668 0.0096583 0.0341809 0.000846686 0.0131468 -0.00229003 0 0 9.18231e-10 
-0.0024048 0.00242628 -2.59174e-08 0 0 0.0639933 0.00192419 -0.0161031 4.93409e-06 
-0.0352016 -0.0295125 0.0147927 0 0 0.011042 -0.0132677 0.000251308 -0.0488923 
0.0061819 -0.0566222 0.0420945 0 0 0.0275875 0.0118112 -0.0506555 0.00730815 
0 0 0.00944964 0 0 -0.17155 0 0 0.0367772 
0 0 0.0660247 0 0 0.00132654 0 0 -0.0882276 
0 0 -0.073438 0 0 -0.0609732 0 0 -0.144176 
0 0 -0.138043 0 0 -0.0913805 0 0 0.140558 
-0.0179466 -0.0832468 0.0918984 0.183787 -0.147884 0.0370067 0 0 -0.607772 
0 0 -0.611598 0 0 -0.602181 0 0 -0.568925 
0 0 -0.570887 0 0 -0.565786 0 0 -0.549599 
0 0 -0.549207 -0 -0 -0.01 -0 -0 -0.01 
-0 -0 -0.01 -0 -0 -0.01 -0 -0 -0.01 
-0 -0 -0.01 -0 -0 -0.01 -0 -0 -0.01 
-0 -0 -0.01 -0 -0 -0.01 0 0 -0.537631 
0 0 -0.528998 0 0 -0.443651 0 0 -0.456895 
0 0 -0.440904 0 0 -0.312786 0 0 -0.245685 
0 0 -0.271976 0 0 -0.255397 0 0 -0.216157 
0 0 -0.228125 -0 -0 -0.01 -0 -0 -0.01 
0 0 -0.0574314 -0 -0 -0.01 -0 -0 -0.01 
-0 -0 -0.01 0 0 -0.0565485 0 0 -0.0529188 
0 0 -0.105697 0 0 -0.0864689 -0 -0 -0.01 
-0 -0 -0.01 0 0 -0.0889214 -0 -0 -0.01 
-0 -0 -0.01 -0 -0 -0.01 -0 -0 -0.01 
-0 -0 -0.01 0 0 -0.0336911 -0 -0 -0.01 
-0 -0 -0.01 -0 -0 -0.01 -0 -0 -0.01 
-0 -0 -0.01 -0 -0 -0.01 -0 -0 -0.01 
-0 -0 -0.01 -0 -0 -0.01 -0 -0 -0.01 
-0 -0 -0.01 -0 -0 -0.01 -0 -0 -0.01 
-0 -0 -0.01 -0 -0 -0.01 -0 -0 -0.01 
-0 -0 -0.01 -0 -0 -0.01 -0 -0 -0.01 

f 3 114 double
-1.13914 0.832467 -105.824 0.127822 -0.0900702 97.8011 0 0 0 
0 0 -12841.3 0 0 -12841.3 0 0 -6342.48 
0.0371005 -0.0254451 -291.417 0 0 -12841.3 0.000171414 0.00151189 -0.258357 
32929.4 11212 2530.26 -30.78 30.0641 -8215.03 0 0 -12841.3 
0 0 -12841.3 0 0 -12841.3 -2.27841e-10 1.08827e-10 4.02046e-07 
0 0 -12841.3 0 0 -12841.3 2.86234e-11 5.6064e-11 1.0986e-07 
0 0 -12841.3 0 0 0 0 0 -12841.3 
20910.9 23880.1 -61464.7 0 0 -12841.3 0 0 0.191071 
2.42249e-05 -2.44971e-05 3.86309 0 0 -12841.3 -0.155185 -0.852979 -112.416 
0 0 -12841.3 0 0 -12841.3 0 0 -12841.3 
-43693.2 -8774.75 -6140.33 0 0 -12841.3 0 0 -12841.3 
0 0 -12841.3 0 0 -12841.3 0 0 -12841.3 
0 0 422164 0 0 -12841.3 0 0 -12841.3 
0 0 -12841.3 0 0 -12841.3 0 0 -12841.3 
0 0 -12841.3 0 0 -12841.3 0 0 -12841.3 
0 0 -12841.3 50354.2 70223 -29767.3 0 0 -12841.3 
0 0 -12841.3 0 0 -12841.3 0 0 -12841.3 
0 0 -12841.3 0 0 -12841.3 0 0 -12841.3 
0 0 -12841.3 0 0 0 0 0 0 
0 0 0 0 0 0 0 0 0 
0 0 0 0 0 0 0 0 0 
0 0 0 0 0 0 0 0 -12841.3 
0 0 -12841.3 0 0 -12841.3 0 0 -12841.3 
0 0 -12841.3 0 0 -12841.3 0 0 -12841.3 
0 0 -12841.3 0 0 -12841.3 0 0 -12841.3 
0 0 -12841.3 0 0 0 0 0 0 
0 0 -12841.3 0 0 0 0 0 0 
0 0 0 0 0 -12841.3 0 0 -12841.3 
0 0 -12841.3 0 0 -12841.3 0 0 0 
0 0 0 0 0 -12841.3 0 0 0 
0 0 0 0 0 0 0 0 0 
0 0 0 0 0 -12841.3 0 0 0 
0 0 0 0 0 0 0 0 0 
0 0 0 0 0 0 0 0 0 
0 0 0 0 0 0 0 0 0 
0 0 0 0 0 0 0 0 0 
0 0 0 0 0 0 0 0 0 
0 0 0 0 0 0 0 0 0 

radius 1 114 double
500 500 500 500 500 500 500 500 500 
500 500 500 500 500 500 500 500 500 
500 500 500 500 500 500 500 500 500 
500 500 500 500 500 500 500 500 500 
500 500 500 500 500 500 500 500 500 
500 500 500 500 500 500 500 500 500 
500 500 500 500 500 500 500 500 500 
500 500 500 500 500 500 500 500 500 
500 500 500 500 500 500 500 500 500 
500 500 500 500 500 500 500 500 500 
500 500 500 500 500 500 500 500 500 
500 500 500 500 500 500 500 500 500 
500 500 500 500 500 500 
omega 3 114 double
0.000127154 0.000145005 -4.126e-05 0.00012374 0.000175604 3.35041e-05 0 0 0 
5.50725e-05 -8.67399e-05 3.1537e-05 -0.000178032 8.2712e-05 9.63214e-05 0 0 0 
-1.27565e-06 2.72568e-07 1.5362e-05 -7.59318e-06 1.0411e-05 1.26305e-05 -0.00017739 2.0112e-05 -3.41113e-05 
-1.65107e-05 -9.24169e-06 2.35763e-05 4.66375e-05 -7.71965e-05 3.36865e-05 0 0 0 
0 0 0 0 0 0 9.77339e-06 2.22005e-05 2.64494e-05 
-3.18422e-05 -3.4117e-05 7.58384e-06 0.000107285 4.55836e-05 -6.41476e-05 5.28641e-06 -2.74225e-06 -2.34843e-06 
0 0 0 0 0 0 -3.67649e-05 -0.00012407 1.71312e-20 
-3.3283e-05 4.15467e-05 2.65801e-05 -2.63267e-05 1.66651e-06 1.2004e-05 0 0 0 
-4.85403e-06 -4.81106e-06 1.2004e-05 0 0 0 3.22154e-05 3.84963e-06 -7.29116e-05 
5.86769e-05 -6.99467e-05 -9.60389e-06 0 0 0 -8.29618e-05 4.68509e-05 2.3194e-05 
0.000130418 8.20034e-05 9.38526e-05 0 0 0 -3.53607e-05 3.43978e-05 2.68775e-05 
0 0 0 0 0 0 0 0 0 
0 0 0 0 0 0 0 0 0 
0 0 0 0 0 0 0 0 0 
0 0 0 0 0 0 0 0 0 
0.00020109 -0.00012869 -6.5966e-05 0.000536757 0.00063586 2.65801e-05 0 0 0 
0 0 0 0 0 0 0 0 0 
0 0 0 0 0 0 0 0 0 
0 0 0 0 0 0 0 0 0 
0 0 0 0 0 0 0 0 0 
0 0 0 0 0 0 0 0 0 
0 0 0 0 0 0 0 0 0 
0 0 0 0 0 0 0 0 0 
0 0 0 0 0 0 0 0 0 
0 0 0 0 0 0 0 0 0 
0 0 0 0 0 0 0 0 0 
0 0 0 0 0 0 0 0 0 
0 0 0 0 0 0 0 0 0 
0 0 0 0 0 0 0 0 0 
0 0 0 0 0 0 0 0 0 
0 0 0 0 0 0 0 0 0 
0 0 0 0 0 0 0 0 0 
0 0 0 0 0 0 0 0 0 
0 0 0 0 0 0 0 0 0 
0 0 0 0 0 0 0 0 0 
0 0 0 0 0 0 0 0 0 
0 0 0 0 0 0 0 0 0 
0 0 0 0 0 0 0 0 0 

