# vtk DataFile Version 4.0
Generated by LIGGGHTS
ASCII
DATASET POLYDATA
POINTS 1400 float
-4336.81 -4886.77 498.669 -3769.51 -4064.14 498.84 -3313.43 -4954.78 498.782 
-2653.75 -4203.82 499.695 -1605.62 -4279.63 498.702 -364.53 -4453.4 496.267 
632.918 -4519.76 498.967 1613.87 -4726.28 498.843 2612.38 -4772.22 497.907 
3668.34 -4755.09 496.64 4666.57 -4819.21 498.064 -4774.98 -3981.26 498.423 
-4206.53 -3159.75 498.656 -3210.11 -3236.23 497.661 -2213.17 -3306.67 498.354 
-888.285 -3567.33 498.743 165.924 -3606.38 498.75 1164.21 -3673.07 498.732 
2147.39 -3882.45 499.294 3146.82 -3903.73 497.972 3700.53 -3071.92 498.646 
4227.07 -3921.42 497.333 4777.38 -3087.36 498.516 -4619.29 -2192.96 499.326 
-3624.92 -2287.16 498.98 -2628.19 -2356.61 499.174 -1408.49 -2713.5 497.677 
-409.1 -2659.27 499.699 387.497 -2054.46 497.015 1352.91 -2317.84 498.795 
2175.93 -2884.13 498.63 4386.37 -2099.34 497.96 -4686.3 -1117.81 498.527 
-3388.88 -1194.83 498.058 -2389.98 -1176.64 497.453 -1536.56 -1709.97 499.704 
-506.645 -1608.72 498.174 1106 -1349.7 498.032 2181.52 -1759.68 498.38 
3417.46 -1854.97 497.487 -4402.36 -159.249 497.958 -3385.27 -191.883 496.882 
-2394.39 -56.051 499.699 -1529.34 -559.599 496.901 216.483 -887.693 497.881 
1939.56 -790.004 498.888 2920.1 -986.308 498.864 2597.29 -38.2592 498.288 
3598.04 -78.47 497.776 4069.19 -983.501 498.711 4598.73 -134.329 498.081 
-4866.53 725.606 499.013 -3866.71 683.954 499.222 -2876.63 820.849 496.791 
-1509.23 438.424 497.059 -551.84 141.861 498.886 511.81 66.9565 499.209 
1624.92 192.079 497.756 3132.27 805.759 498.775 4134.63 764.728 498.721 
-4489.29 1650.33 497.905 -3490.65 1609.34 498.845 -2518.75 1656.6 907.145 
-1636.42 1428.91 498.058 -562.563 1140.95 498.929 5.08042 1963.31 498.505 
440.057 1063.49 499.232 1497.09 1183.33 497.81 2488.8 1591.23 498.828 
3476.94 1743.31 498.496 4512.04 1690.73 497.589 -4953.39 2535.56 497.862 
-3954.88 2494.41 498.683 -2956.46 2453.57 497.372 -1958.61 2373.9 497.108 
-976.915 2179.91 499.098 -291.112 2917.59 498.4 689.222 2691.04 498.24 
1694.67 2198.64 499.631 2953.82 2602.69 498.473 4034.72 2573.05 498.503 
-4417.84 3380.04 498.685 -3419.55 3338.33 498.477 -2363.34 3286.94 497.929 
-1283.89 3131.32 499.706 -605.906 3866.37 498.889 438.309 3658.42 498.962 
1555.73 3188.72 498.355 2580.47 3529.38 499.049 3585.96 3482.5 498.152 
4584.58 3423.23 497.462 -4880.02 4266.93 498.915 -3881.81 4223.51 498.882 
-2190.02 4909.84 499.586 -2850.07 4159.45 498.289 -1685.75 4046.7 499.116 
-1006.3 4782 497.335 57.1945 4620.27 498.306 1042.37 4454.73 497.871 
2042.26 4371.04 498.592 3123.57 4368.82 499.506 4122.41 4330.61 499.653 
-4296.28 -4305.65 1312.63 -3289.83 -4381.34 1315.74 -2339.92 -4419.53 1621.01 
-1531.08 -4894.71 1282.1 -851.85 -4147.42 1310.73 143.849 -4229.06 1323.28 
1309.94 -4233.24 1312.95 2350.61 -4350.34 1364.16 3684.44 -4162.1 1299.44 
4707.17 -4241.02 1311.66 -4741.39 -3405.35 1314.68 -3728.63 -3483.75 1315.46 
-2731.49 -3553.48 1314.89 -1741.43 -3688.88 1292.82 -349.303 -3281.36 1290.78 
726.277 -3542.99 1752.66 1670.27 -3282.02 1266.16 2659.36 -3411.87 1216.66 
3415.23 -3153.79 1814.93 4260.57 -3346.13 1313.41 -4167.21 -2586.47 1315.01 
-3156.6 -2649.91 1303 -2072.79 -2679.35 1264.15 -1233.15 -2950.01 1732.93 
-969.966 -2151.92 1195.17 -5.69561 -2345.75 1365.87 712.324 -2918.45 973.552 
1910.08 -2248.23 1326.06 1164.02 -2651.93 1852.89 2858.22 -2443.16 1078.17 
3840.34 -2441.39 1259.74 4837.6 -2492.09 1298.12 -4064.12 -1617.58 1099.19 
-4699.85 -1798.63 1847.7 -3421.03 -1147.06 1927.88 -2883.54 -1693.62 1202.24 
-1772.87 -1126.98 1279.35 -1690.94 -1939.73 1851.85 -906.098 -1316.08 1736.28 
885.98 -1845.55 1335.88 19.2216 -1348.26 1361.07 1701.21 -1267.95 1343.57 
2674.54 -1493.18 1324.49 3664.12 -1362.6 1328.9 4651.56 -1423.37 1184 
-4910.43 -529.99 1274.03 -3907.41 -638.833 1219.6 -2897.93 -694.416 1208.96 
-2241.58 -99.866 1668 -1301.73 -64.5366 1333.29 -661.892 -736.565 960.5 
818.163 -985.66 1838.27 206.544 -366.23 1349.25 1141.06 -503.242 1025.67 
1193.52 -38.2716 1907.17 2046.45 -195.727 1317.41 3083.45 -400.318 1291.06 
4082.54 -394.44 1312.05 -4204.1 305.218 1360.3 -3089.46 294.899 1316.69 
-2154 768.752 1183.46 -1181.51 983.177 1266.76 -342.617 464.332 1421.05 
1028.34 619.5 1174.54 2267.22 760.664 1008.61 2757.09 399.714 1801.54 
3621.97 497.219 1312.79 4627.4 443.021 1312.27 -4006.72 1282.63 1290.65 
-3068.99 1243.77 1629.21 -1678.12 1951.9 1357.94 -12.0927 1401.88 1323.73 
889.02 1827.69 960.986 1758.64 1528.88 1397.08 3004.19 1357.33 1322.11 
4000.79 1421.46 1311.82 4998.67 1370.55 1308.84 -4469.52 2224.26 1314.9 
-3471.14 2182.97 1316.03 -2566.53 2208.11 1737.91 -1862.54 2959.45 1297.03 
-437.135 2308.61 1329.73 441.575 2173.58 1785.39 1184.6 2692.93 1365.08 
2481.73 2207.82 1284.94 3476.29 2331.28 1304.9 4531.12 2268.57 1310.95 
-4395.18 3954.99 1315.67 -4931.12 3110.68 1313.16 -3930.67 3070.2 1314.17 
-3381.26 3919.87 1309.72 -2904.08 3042.77 1301.09 -2280.26 3893.02 1288.3 
-715.326 3283.47 1325.02 259.693 3066.58 1318.02 734.369 3746.15 1874.92 
1460.25 3888.73 1205.24 2085.28 3122.86 1341.73 3075.32 3245.47 1322.13 
4070.55 3155.2 1308.73 -4855.71 4848.26 1310.89 -3857.39 4797.21 1315.8 
-2794.36 4750.41 1300.74 -1110.22 4199.99 1301.22 -437.933 4942.93 1304 
-30.4661 4030.22 1298.53 628.432 4883.03 1299.51 1808 4811.51 1363.24 
2581.71 4123.24 1302.68 3146.16 4967.33 1300.03 3613.24 4083.05 1383.99 
4606.45 4000.14 1313.72 4147.12 4922.81 1309.94 -4822.74 -4577.35 2127.49 
-4310.06 -4323.86 2948.82 -3824.92 -4628.33 2131.56 -3037.33 -4018.58 2211.58 
-2270.01 -4497.75 2636.6 -1463.87 -4296.07 2083.88 -873.119 -4284.27 2907.81 
-261.4 -4566.58 2171.05 731.828 -4503.79 2081.42 1759.67 -4564.17 2141.74 
2528.74 -4527.08 2844.55 3043.83 -4180.11 2063.7 3552.08 -4609.07 2891.37 
4165.64 -4484.17 2112.86 4631.28 -4794.05 2937.86 -4277.48 -3737.91 2135 
-3395.48 -3086.27 2169.98 -2298.35 -3216.58 2148.22 -1594.93 -3592.56 2778.36 
-670.267 -3655.08 2160.26 312.437 -3780.96 2631.62 1306.02 -3765.38 2534.32 
2174.86 -3652.49 2056.38 2927.93 -3383.54 2655.64 3891.08 -3631.48 2551.21 
4859.5 -3825.55 2702.9 4709.21 -3013.19 2141.24 -4337.34 -2752.19 2284.41 
-3611.56 -2122.04 2017.46 -3560.21 -2482.1 2949.01 -2611.55 -2273.17 2049.18 
-1631.98 -2613.99 2583.89 -708.681 -2910.46 2825.56 -627.16 -2190.33 2133.47 
834.145 -2913.77 2757.1 34.0222 -2946.83 2159.95 414.513 -2007.45 2207.14 
1787.91 -2537.82 2623.94 2527.5 -2721.58 1977.94 2946.22 -2399.17 2825.37 
3246.08 -2027.51 1947.4 3872.73 -2633.81 2534.65 4931.23 -2224 2712.56 
-4185.48 -1656.22 2691.24 -3051.08 -1657.75 2702.77 -2436.19 -1291.58 2005.66 
-1951.93 -1688.39 2784.16 -1045.63 -1270 2725.07 -120.733 -1172.67 2333.99 
749.808 -1156.65 2819.22 1375.45 -1732.55 2199.7 2368.08 -1723.05 2314.9 
3232.01 -1210.24 2522.01 4912.4 -1226.72 2669.04 4319.33 -1937.08 1975.75 
4008.88 -1714.3 2898.79 -4373.45 -865.799 2072.45 -4336.24 -28.7481 2691.29 
-3591.49 -169.783 2041.82 -3703.38 -790.033 2815.56 -2735.72 -460.466 2470.59 
-1535.36 -642.883 2119.49 -1006.88 -203.735 2844 -586.983 -375.517 1955.09 
327.512 -277.111 2342.97 1594.45 -785.716 2434.23 2494.55 -782.289 2001.44 
3410.65 -272.3 2224.83 4116.67 -971.138 2125.56 4829.28 -276.659 2203.67 
-4785.34 639.977 2100.63 -3800.35 801.892 2147.08 -2783.61 510.603 2243.25 
-1897.9 175.52 2564.16 -1056.03 490.545 2126.44 -238.903 541.661 2697.8 
455.85 654.365 1990.89 1358.36 359.107 2807.53 1831.26 726.837 1988.75 
2259.74 2.96421 2570.8 2190.64 946.092 2895.57 3094.84 525.449 2737.05 
4122.15 427.329 2173 -4463.6 1621.93 2112.62 -3507.37 1876.31 2266.85 
-2625.51 1464.26 2495.51 -1798.4 1152.98 2033.06 -1183.93 1199.68 2819.52 
-939.411 1657.7 1961.39 -26.5806 1469.76 2319.58 650.29 1052.92 2923.56 
1052.92 1448.26 2099.21 1595.55 1752.05 2882.03 2440.77 1535.93 2128.12 
3521.17 1226.01 2166.33 4513.6 1346.23 2181.42 -4140.14 2518.13 2698.8 
-4960.13 2531.58 2128.4 -3410.2 2929.53 2154.6 -2785.05 2417.69 2742.02 
-1159.87 2633.29 1938.55 -1841.07 2076.92 2411.13 -1601.02 2982.62 2763.97 
-599.881 2196.18 2729.26 -248.578 2970.4 2173.23 926.451 2870.3 2313.57 
641.6 2042.39 2792.81 1778.52 2281.17 2054.6 2646.31 2774.7 2090.15 
3120.58 2077.35 2623.29 3991.11 2195.17 2148.01 4125.55 2776.41 2946.8 
-4420.96 3372.51 2130.31 -4921.68 3997.8 2769.47 -3839.01 3911.8 2734.88 
-2981.26 3887.03 2224.3 -2372.98 3099.84 2143.36 -1524.7 3599.14 1981.74 
-586.823 3909.74 2117.91 192.745 3729.06 2713.34 1853.35 3124.65 2585.68 
1956.69 3973.07 2068.29 1183.94 3844.72 2762.38 2982.44 3906.27 2191.89 
2948.31 3204.65 2939.58 3583.5 3107.87 2176.95 3905.59 3915.81 2668.96 
4579.59 3418.47 2126.79 -4369.08 4531.71 2131.44 -2965.85 4884.24 2275.42 
-2060.07 4598.04 1962 -1533.6 4204.91 2773.23 -1034.6 4802.87 2093.34 
-468.288 4568.57 2879.78 187.079 4542.33 2127.99 1183.77 4605.74 2114.77 
1881.65 4713 2820.91 2523.5 4796.22 2060.89 2959.89 4575.8 2933.2 
3578.86 4709.84 2160.95 4600.55 4606.77 2140.01 -4922.05 -4390.56 3734.43 
-3034.34 -4468.11 3278.33 -2153.09 -4235.1 3687.17 -1579.55 -4910.01 3229.76 
-701.642 -4920.46 3704.6 46.8435 -4609.45 3120.87 697.277 -4644.98 3878.48 
1137.03 -4641.26 2982.59 1909.49 -4674.37 3613.86 4189.76 -4035.54 3413.74 
-4459.39 -3242.47 3144.4 -3963.51 -3997.08 3827.8 -3567.05 -3656.52 2975.56 
-3137.72 -3066.63 3657.33 -2569.47 -3623.67 3017.89 -1232.33 -3776.69 3690.18 
-267.415 -3696.44 3441.37 893.017 -3736.96 3444.32 2099.79 -3672.69 3132.59 
2660.61 -3090.52 3719.32 3059.79 -3975.96 3486.73 3589.87 -3124.84 3357.84 
4570.56 -3013.01 3207.62 -4397.56 -2269.28 3452.05 -2548.59 -2626.39 2981.12 
-1753.46 -2941.8 3518.07 -1109.45 -2108.63 3267.85 -803.555 -2883.1 3818.83 
106.909 -2770.74 3425.29 793.11 -2051.93 3261.24 1509.38 -2950.92 3490.17 
2207.38 -2235.17 3477.75 3770.82 -2215.04 3730.53 -3626.48 -1505.84 3504.79 
-2571.54 -1822.07 3572.37 -1672.04 -1406.44 3700.88 -164.478 -1900.63 3016.5 
-664.351 -1322.1 3692.62 373.425 -1273.83 3736.1 1632.72 -1494.98 3136.32 
[...]
POINT_DATA 1400
FIELD FieldData 7
id 1 1400 int
72 12 38 94 7 11 80 109 30 
100 48 107 102 124 89 79 97 81 
90 82 51 91 49 36 60 78 18 
16 28 26 31 14 27 98 15 45 
104 96 22 87 54 37 59 19 1 
2 4 108 43 29 84 33 92 21 
88 42 55 66 46 77 73 20 69 
110 131 13 40 53 23 35 105 52 
8 119 61 25 34 58 6 85 47 
63 57 32 75 65 93 39 83 67 
41 10 9 17 113 3 56 50 24 
166 44 5 164 139 185 103 194 95 
125 135 86 150 137 223 193 133 149 
202 161 99 274 147 168 128 163 132 
157 179 148 155 186 145 278 281 101 
156 181 141 134 212 187 225 165 136 
195 170 62 159 123 142 224 70 121 
172 152 115 197 130 140 160 171 126 
209 153 217 177 112 316 158 118 127 
207 169 154 111 191 143 114 151 129 
175 198 76 167 189 200 116 192 214 
219 196 210 221 146 182 144 74 216 
64 117 68 228 206 138 120 71 122 
183 162 201 178 180 208 215 106 248 
427 242 276 232 273 378 262 289 337 
293 258 386 266 406 239 322 229 307 
275 312 309 245 292 320 327 330 350 
299 412 259 240 301 254 329 190 227 
317 267 356 282 304 305 368 285 268 
314 310 233 354 264 296 375 315 256 
376 204 298 211 323 231 252 283 213 
257 370 324 374 270 297 243 265 234 
253 235 308 271 381 288 302 380 365 
263 230 261 269 218 357 236 255 367 
244 321 250 174 226 294 173 246 355 
279 272 331 290 260 333 372 251 205 
295 222 379 277 352 349 326 237 184 
280 311 332 238 306 247 377 241 335 
334 176 300 249 286 199 363 188 319 
318 203 360 291 220 457 396 397 366 
408 328 417 369 418 402 419 456 437 
422 340 477 423 500 338 494 450 475 
436 488 343 444 345 439 441 429 390 
503 474 428 413 447 336 409 476 443 
467 432 508 445 348 459 416 391 405 
385 325 347 424 341 388 415 344 481 
451 382 400 303 339 435 362 426 440 
364 389 504 287 358 313 498 392 438 
433 425 442 469 403 284 414 399 463 
398 411 353 401 387 478 346 410 361 
393 502 452 509 394 373 404 395 384 
420 454 351 421 448 434 430 342 505 
468 371 497 359 383 446 473 431 449 
610 520 560 528 499 589 548 485 555 
546 562 529 598 541 532 479 566 583 
501 516 507 558 530 482 613 658 547 
524 491 614 483 618 466 565 616 471 
554 579 556 571 577 487 620 493 537 
511 495 513 553 551 574 522 563 535 
518 552 533 407 526 640 573 496 557 
461 521 489 621 455 593 512 612 490 
617 531 464 543 462 492 525 536 484 
564 465 581 568 586 519 460 602 470 
559 545 534 453 538 514 599 550 609 
458 549 544 480 517 539 510 515 506 
527 486 542 608 605 540 523 472 569 
561 597 669 641 572 728 713 653 601 
631 664 720 578 642 700 736 643 590 
666 672 575 694 716 587 659 677 710 
650 741 673 714 585 757 707 709 651 
680 647 652 701 726 654 596 781 594 
638 630 668 679 667 663 692 646 731 
718 693 730 688 607 629 592 682 576 
633 724 622 687 698 674 722 603 567 
656 595 635 645 634 655 678 628 619 
580 611 661 695 648 591 588 644 662 
584 649 624 717 675 729 657 615 665 
704 600 637 676 684 625 582 725 627 
626 639 708 670 702 696 660 604 706 
775 570 711 632 782 636 671 699 623 
734 606 773 780 804 747 776 889 783 
831 764 813 862 840 762 878 744 833 
828 836 752 765 834 793 816 877 733 
763 880 797 761 841 805 799 792 740 
789 860 690 823 790 811 817 772 750 
778 870 838 691 771 795 846 760 786 
835 742 779 715 768 737 802 751 721 
774 697 854 703 801 766 723 683 739 
784 807 770 681 753 759 787 819 719 
897 754 829 686 850 822 844 738 746 
748 812 689 788 712 755 727 685 826 
791 749 745 843 756 853 809 798 732 
769 803 814 743 837 785 825 824 808 
767 810 876 842 735 890 777 806 758 
705 818 861 899 927 863 910 895 883 
932 946 912 928 884 956 872 1004 923 
888 945 994 868 980 830 913 864 920 
999 998 935 942 953 921 852 885 869 
902 898 949 796 917 926 919 851 1011 
886 896 820 866 952 904 925 849 986 
858 996 874 944 839 894 907 845 827 
918 1009 951 1002 933 915 832 901 914 
800 892 893 873 943 881 950 857 930 
848 887 948 989 929 882 1008 906 922 
905 875 815 855 938 937 821 908 867 
1006 916 900 941 879 856 903 891 911 
1001 847 934 940 859 947 794 955 982 
871 924 939 936 865 1013 1113 958 1042 
1099 1104 972 960 1044 1023 973 1047 1112 
961 1108 981 1066 1079 1032 1072 1111 990 
1017 1022 1034 997 1055 965 1075 1027 1087 
1118 1058 1037 975 1068 1053 1061 1041 964 
1121 985 1012 1015 966 971 1019 1028 1120 
909 1043 983 1040 957 1067 1085 1035 1059 
992 976 979 1109 1010 1048 1030 1063 1000 
969 1049 1038 1052 1076 974 1070 1106 1026 
1051 1003 1100 1014 1050 977 1081 1005 968 
1036 978 1031 959 1029 1062 987 967 1039 
1046 1060 954 1018 1056 963 1007 1065 1021 
1110 1033 1115 988 1064 931 1105 1020 995 
962 970 1119 984 993 1094 1045 1054 1024 
1107 991 1213 1078 1173 1220 1132 1095 1196 
1165 1159 1139 1134 1101 1216 1102 1162 1167 
1160 1093 1178 1164 1145 1260 1193 1143 1207 
1096 1117 1137 1127 1203 1122 1168 1170 1128 
1082 1201 1169 1192 1185 1206 1155 1228 1176 
1083 1187 1227 1144 1152 1211 1157 1098 1172 
1025 1129 1171 1124 1140 1147 1103 1195 1222 
1071 1135 1069 1154 1130 1217 1084 1074 1158 
1221 1153 1080 1146 1226 1092 1097 1057 1136 
1131 1156 1149 1202 1090 1184 1142 1123 1163 
1016 1166 1205 1089 1150 1161 1116 1073 1138 
1125 1218 1086 1214 1191 1077 1091 1175 1180 
1148 1133 1209 1151 1114 1231 1141 1126 1088 
1198 1174 1210 1245 1256 1297 1251 1317 1277 
1223 1294 1200 1255 1328 1265 1318 1329 1194 
1264 1250 1296 1252 1320 1279 1304 1282 1197 
1275 1238 1240 1234 1268 1270 1230 1326 1261 
1335 1208 1288 1316 1263 1215 1324 1302 1241 
1219 1181 1342 1242 1322 1225 1257 1343 1272 
1246 1394 1314 1258 1341 1344 1179 1254 1259 
1188 1281 1190 1305 1212 1327 1183 1287 1309 
1186 1249 1182 1232 1332 1243 1247 1283 1285 
1278 1321 1177 1244 1266 1204 1312 1298 1336 
1229 1286 1248 1189 1330 1280 1340 1290 1267 
1239 1237 1253 1269 1374 1236 1271 1262 1276 
1224 1333 1284 1274 1235 1273 1331 1325 1338 
1233 1300 1199 1339 1368 1390 1367 1323 1352 
1389 1319 1307 1372 1361 1310 1345 1346 1377 
1396 1358 1364 1397 1295 1299 1337 1384 1383 
1347 1292 1391 1360 1315 1308 1351 1395 1366 
1301 1354 1289 1373 1379 1311 1399 1350 1303 
1357 1356 1362 1291 1380 1306 1363 1376 1388 
1369 1398 1348 1293 1381 1334 1349 1353 1392 
1382 1359 1386 1371 1400 1375 1313 1365 1393 
1355 1387 1370 1385 1378 
type 1 1400 int
1 1 1 1 1 1 1 1 1 
1 1 1 1 1 1 1 1 1 
1 1 1 1 1 1 1 1 1 
1 1 1 1 1 1 1 1 1 
1 1 1 1 1 1 1 1 1 
1 1 1 1 1 1 1 1 1 
1 1 1 1 1 1 1 1 1 
1 1 1 1 1 1 1 1 1 
1 1 1 1 1 1 1 1 1 
1 1 1 1 1 1 1 1 1 
1 1 1 1 1 1 1 1 1 
1 1 1 1 1 1 1 1 1 
1 1 1 1 1 1 1 1 1 
1 1 1 1 1 1 1 1 1 
1 1 1 1 1 1 1 1 1 
1 1 1 1 1 1 1 1 1 
1 1 1 1 1 1 1 1 1 
1 1 1 1 1 1 1 1 1 
1 1 1 1 1 1 1 1 1 
1 1 1 1 1 1 1 1 1 
1 1 1 1 1 1 1 1 1 
1 1 1 1 1 1 1 1 1 
1 1 1 1 1 1 1 1 1 
1 1 1 1 1 1 1 1 1 
1 1 1 1 1 1 1 1 1 
1 1 1 1 1 1 1 1 1 
1 1 1 1 1 1 1 1 1 
1 1 1 1 1 1 1 1 1 
1 1 1 1 1 1 1 1 1 
1 1 1 1 1 1 1 1 1 
1 1 1 1 1 1 1 1 1 
1 1 1 1 1 1 1 1 1 
1 1 1 1 1 1 1 1 1 
1 1 1 1 1 1 1 1 1 
1 1 1 1 1 1 1 1 1 
1 1 1 1 1 1 1 1 1 
1 1 1 1 1 1 1 1 1 
1 1 1 1 1 1 1 1 1 
1 1 1 1 1 1 1 1 1 
1 1 1 1 1 1 1 1 1 
1 1 1 1 1 1 1 1 1 
1 1 1 1 1 1 1 1 1 
1 1 1 1 1 1 1 1 1 
1 1 1 1 1 1 1 1 1 
1 1 1 1 1 1 1 1 1 
1 1 1 1 1 1 1 1 1 
1 1 1 1 1 1 1 1 1 
1 1 1 1 1 1 1 1 1 
1 1 1 1 1 1 1 1 1 
1 1 1 1 1 1 1 1 1 
1 1 1 1 1 1 1 1 1 
1 1 1 1 1 1 1 1 1 
1 1 1 1 1 1 1 1 1 
1 1 1 1 1 1 1 1 1 
1 1 1 1 1 1 1 1 1 
1 1 1 1 1 1 1 1 1 
1 1 1 1 1 1 1 1 1 
1 1 1 1 1 1 1 1 1 
1 1 1 1 1 1 1 1 1 
1 1 1 1 1 1 1 1 1 
1 1 1 1 1 1 1 1 1 
1 1 1 1 1 1 1 1 1 
1 1 1 1 1 1 1 1 1 
1 1 1 1 1 1 1 1 1 
1 1 1 1 1 1 1 1 1 
1 1 1 1 1 1 1 1 1 
1 1 1 1 1 1 1 1 1 
1 1 1 1 1 1 1 1 1 
1 1 1 1 1 1 1 1 1 
1 1 1 1 1 1 1 1 1 
1 1 1 1 1 1 1 1 1 
1 1 1 1 1 1 1 1 1 
1 1 1 1 1 1 1 1 1 
1 1 1 1 1 1 1 1 1 
1 1 1 1 1 1 1 1 1 
1 1 1 1 1 1 1 1 1 
1 1 1 1 1 1 1 1 1 
1 1 1 1 1 1 1 1 1 
1 1 1 1 1 1 1 1 1 
1 1 1 1 1 1 1 1 1 
1 1 1 1 1 1 1 1 1 
1 1 1 1 1 1 1 1 1 
1 1 1 1 1 1 1 1 1 
1 1 1 1 1 1 1 1 1 
1 1 1 1 1 1 1 1 1 
1 1 1 1 1 1 1 1 1 
1 1 1 1 1 1 1 1 1 
1 1 1 1 1 1 1 1 1 
1 1 1 1 1 1 1 1 1 
1 1 1 1 1 1 1 1 1 
1 1 1 1 1 1 1 1 1 
1 1 1 1 1 1 1 1 1 
1 1 1 1 1 1 1 1 1 
1 1 1 1 1 1 1 1 1 
1 1 1 1 1 1 1 1 1 
1 1 1 1 1 1 1 1 1 
1 1 1 1 1 1 1 1 1 
1 1 1 1 1 1 1 1 1 
1 1 1 1 1 1 1 1 1 
1 1 1 1 1 1 1 1 1 
1 1 1 1 1 1 1 1 1 
1 1 1 1 1 1 1 1 1 
1 1 1 1 1 1 1 1 1 
1 1 1 1 1 1 1 1 1 
1 1 1 1 1 1 1 1 1 
1 1 1 1 1 1 1 1 1 
1 1 1 1 1 1 1 1 1 
1 1 1 1 1 1 1 1 1 
1 1 1 1 1 1 1 1 1 
1 1 1 1 1 1 1 1 1 
1 1 1 1 1 1 1 1 1 
1 1 1 1 1 1 1 1 1 
1 1 1 1 1 1 1 1 1 
1 1 1 1 1 1 1 1 1 
1 1 1 1 1 1 1 1 1 
1 1 1 1 1 1 1 1 1 
1 1 1 1 1 1 1 1 1 
1 1 1 1 1 1 1 1 1 
1 1 1 1 1 1 1 1 1 
1 1 1 1 1 1 1 1 1 
1 1 1 1 1 1 1 1 1 
1 1 1 1 1 1 1 1 1 
1 1 1 1 1 1 1 1 1 
1 1 1 1 1 1 1 1 1 
1 1 1 1 1 1 1 1 1 
1 1 1 1 1 1 1 1 1 
1 1 1 1 1 1 1 1 1 
1 1 1 1 1 1 1 1 1 
1 1 1 1 1 1 1 1 1 
1 1 1 1 1 1 1 1 1 
1 1 1 1 1 1 1 1 1 
1 1 1 1 1 1 1 1 1 
1 1 1 1 1 1 1 1 1 
1 1 1 1 1 1 1 1 1 
1 1 1 1 1 1 1 1 1 
1 1 1 1 1 1 1 1 1 
1 1 1 1 1 1 1 1 1 
1 1 1 1 1 1 1 1 1 
1 1 1 1 1 1 1 1 1 
1 1 1 1 1 1 1 1 1 
1 1 1 1 1 1 1 1 1 
1 1 1 1 1 1 1 1 1 
1 1 1 1 1 1 1 1 1 
1 1 1 1 1 1 1 1 1 
1 1 1 1 1 1 1 1 1 
1 1 1 1 1 1 1 1 1 
1 1 1 1 1 1 1 1 1 
1 1 1 1 1 1 1 1 1 
1 1 1 1 1 1 1 1 1 
1 1 1 1 1 1 1 1 1 
1 1 1 1 1 1 1 1 1 
1 1 1 1 1 1 1 1 1 
1 1 1 1 1 1 1 1 1 
1 1 1 1 1 1 1 1 1 
1 1 1 1 1 1 1 1 1 
1 1 1 1 1 
i 3 1400 int
0 1 0 0 0 0 1 1 0 
0 1 0 0 0 0 0 0 0 
0 1 0 0 0 0 0 1 0 
0 0 0 -1 0 0 0 0 0 
0 0 0 0 0 0 0 0 0 
0 0 0 0 0 0 0 1 0 
0 0 0 0 0 0 0 0 0 
0 0 0 -1 0 0 1 1 0 
0 0 0 0 0 0 0 0 0 
0 0 0 0 0 0 0 0 0 
0 0 0 0 0 0 0 0 0 
0 0 0 0 0 0 0 0 0 
0 0 0 0 0 0 0 0 0 
-1 0 0 0 0 0 0 0 0 
0 0 0 0 0 0 0 0 0 
0 0 0 0 0 0 0 0 0 
0 0 0 0 0 0 0 0 0 
0 0 0 0 0 0 0 0 0 
0 0 0 0 0 0 0 0 0 
0 0 0 0 0 0 0 0 0 
0 -1 0 1 -1 0 0 0 0 
0 0 0 0 0 0 0 0 0 
0 0 0 0 0 0 0 0 0 
0 0 0 -1 0 0 0 0 0 
0 0 0 0 0 0 0 0 0 
0 0 0 0 0 0 0 0 0 
0 0 0 0 0 0 0 0 0 
1 -1 0 0 0 0 0 0 0 
0 0 0 0 -1 0 0 0 0 
0 0 0 0 0 0 0 0 0 
0 0 0 1 0 0 0 0 0 
0 -1 0 0 -1 0 0 -1 0 
0 -1 0 0 -1 0 0 -1 0 
0 0 0 0 0 0 0 0 0 
1 0 0 0 1 0 0 0 0 
0 0 0 0 0 0 0 0 0 
0 0 0 0 1 0 0 0 0 
0 1 0 1 0 0 0 1 0 
0 0 0 0 0 0 0 0 0 
0 0 0 0 0 0 -1 1 0 
0 0 0 0 1 0 0 0 0 
0 0 0 0 0 0 0 1 0 
0 0 0 0 0 0 0 0 0 
0 0 0 0 0 0 0 0 0 
0 0 0 -1 0 0 0 0 0 
0 0 0 0 0 0 0 1 0 
0 0 0 0 0 0 0 0 0 
0 0 0 0 0 0 0 0 0 
0 0 0 -1 0 0 -1 0 0 
1 0 0 1 0 0 0 0 0 
0 0 0 0 0 0 0 0 0 
0 0 0 0 0 0 0 0 0 
0 0 0 0 0 0 -1 0 0 
0 0 0 0 0 0 0 0 0 
0 0 0 0 0 0 0 0 0 
0 0 0 -1 0 0 0 0 0 
0 0 0 0 0 0 0 0 0 
0 0 0 0 0 0 0 0 0 
-1 0 0 0 0 0 0 0 0 
0 0 0 -1 0 0 1 0 0 
0 0 0 0 0 0 0 0 0 
0 0 0 0 0 0 0 0 0 
0 0 0 0 0 0 -1 0 0 
0 0 0 0 0 0 0 -1 0 
0 0 0 0 -1 0 0 0 0 
0 0 0 0 -1 0 0 0 0 
0 0 0 0 0 0 0 0 0 
0 0 0 1 -1 0 0 0 0 
0 0 0 0 0 0 0 0 0 
0 0 0 0 -1 0 0 0 0 
0 0 0 0 0 0 -1 0 0 
0 0 0 -1 0 0 1 0 0 
0 1 0 0 0 0 0 0 0 
0 1 0 0 0 0 0 0 0 
0 0 0 0 0 0 0 0 0 
0 0 0 0 0 0 0 0 0 
0 0 0 0 1 0 0 0 0 
0 1 0 0 0 0 0 0 0 
0 0 0 0 1 0 0 0 0 
0 0 0 0 0 0 0 0 0 
0 0 0 0 0 0 0 0 0 
0 0 0 0 0 0 0 0 0 
0 0 0 0 0 0 0 0 0 
0 0 0 0 0 0 0 0 0 
0 0 0 0 0 0 0 0 0 
0 0 0 -1 0 0 0 0 0 
0 0 0 0 0 0 0 0 0 
0 0 0 0 0 0 0 0 0 
0 0 0 0 0 0 0 0 0 
-1 0 0 -1 0 0 0 0 0 
0 0 0 1 0 0 0 0 0 
1 0 0 0 0 0 1 0 0 
0 0 0 0 0 0 0 0 0 
0 0 0 0 0 0 0 0 0 
0 0 0 0 0 0 0 0 0 
1 0 0 1 0 0 0 0 0 
0 0 0 0 0 0 0 0 0 
0 0 0 0 0 0 0 0 0 
0 0 0 0 0 0 0 0 0 
0 0 0 0 0 0 0 0 0 
1 0 0 0 0 0 0 0 0 
0 0 0 0 0 0 0 0 0 
0 0 0 0 0 0 0 0 0 
0 0 0 0 0 0 0 0 0 
1 0 0 0 0 0 0 0 0 
0 0 0 0 0 0 0 -1 0 
0 0 0 0 0 0 0 0 0 
0 0 0 0 0 0 0 0 0 
0 0 0 -1 0 0 -1 0 0 
0 0 0 1 0 0 0 0 0 
0 0 0 0 0 0 0 0 0 
0 0 0 0 0 0 0 0 0 
0 0 0 0 0 0 0 0 0 
0 0 0 0 0 0 0 0 0 
0 0 0 0 -1 0 0 0 0 
0 0 0 0 0 0 0 -1 0 
0 0 0 0 0 0 0 -1 0 
0 0 0 0 -1 0 0 0 0 
0 0 0 -1 -1 0 1 0 0 
0 0 0 0 0 0 0 0 0 
0 1 0 0 1 0 0 0 0 
0 1 0 0 0 0 -1 1 0 
0 0 0 0 0 0 0 0 0 
0 0 0 0 0 0 0 0 0 
0 0 0 0 0 0 0 0 0 
0 0 0 0 0 0 0 0 0 
0 0 0 0 0 0 0 0 0 
0 1 0 0 0 0 0 0 0 
0 0 0 0 0 0 0 0 0 
0 0 0 0 0 0 0 0 0 
0 0 0 0 0 0 0 0 0 
0 0 0 0 0 0 0 0 0 
0 0 0 0 0 0 0 0 0 
-1 0 0 0 0 0 0 0 0 
0 0 0 0 0 0 0 0 0 
0 0 0 0 0 0 0 0 0 
0 0 0 0 0 0 0 0 0 
0 0 0 0 0 0 -1 0 0 
0 0 0 0 0 0 0 0 0 
0 0 0 0 0 0 0 0 0 
0 0 0 0 0 0 0 0 0 
0 0 0 -1 0 0 0 0 0 
-1 0 0 0 0 0 0 0 0 
0 0 0 1 0 0 0 0 0 
0 0 0 0 0 0 0 0 0 
0 0 0 0 0 0 0 0 0 
0 0 0 0 0 0 0 0 0 
0 0 0 0 0 0 0 0 0 
0 0 0 0 0 0 0 0 0 
0 0 0 0 0 0 0 0 0 
-1 0 0 0 0 0 1 0 0 
0 0 0 0 -1 0 0 0 0 
0 0 0 0 0 0 0 -1 0 
0 0 0 0 0 0 0 0 0 
0 0 0 0 0 0 0 0 0 
1 0 0 1 -1 0 0 0 0 
0 0 0 0 -1 0 1 0 0 
0 0 0 0 0 0 0 0 0 
0 0 0 0 -1 0 0 -1 0 
0 0 0 0 0 0 0 0 0 
0 0 0 0 1 0 0 0 0 
0 0 0 0 0 0 0 0 0 
0 0 0 0 1 0 0 0 0 
0 0 0 0 0 0 0 0 0 
0 0 0 0 0 0 0 0 0 
0 0 0 0 0 0 0 1 0 
0 0 0 0 0 0 0 0 0 
0 0 0 0 0 0 1 0 0 
0 0 0 0 0 0 0 0 0 
0 0 0 0 0 0 0 0 0 
0 0 0 0 0 0 0 0 0 
0 0 0 0 0 0 -1 0 0 
0 0 0 0 0 0 0 0 0 
0 0 0 0 0 0 0 0 0 
0 0 0 0 0 0 0 0 0 
0 0 0 -1 0 0 0 0 0 
0 0 0 0 0 0 0 0 0 
0 0 0 0 0 0 0 0 0 
0 0 0 0 0 0 0 0 0 
0 0 0 0 0 0 0 0 0 
0 0 0 0 0 0 0 0 0 
0 0 0 0 0 0 0 0 0 
0 0 0 -1 0 0 1 0 0 
0 0 0 0 0 0 0 0 0 
0 0 0 0 0 0 0 0 0 
0 0 0 0 0 0 0 0 0 
0 0 0 0 0 0 0 0 0 
0 0 0 0 0 0 0 0 0 
0 0 0 0 0 0 0 0 0 
0 0 0 0 0 0 0 0 0 
0 0 0 0 0 0 0 0 0 
0 0 0 0 0 0 0 0 0 
0 0 0 0 0 0 0 0 0 
0 0 0 0 0 0 0 0 0 
0 0 0 0 0 0 0 0 0 
1 0 0 0 0 0 0 0 0 
0 0 0 0 -1 0 0 -1 0 
0 0 0 0 0 0 0 0 0 
0 -1 0 0 -1 0 1 0 0 
0 0 0 0 0 0 0 0 0 
0 0 0 0 0 0 0 0 0 
0 1 0 0 0 0 0 0 0 
0 0 0 -1 0 0 0 0 0 
0 0 0 0 0 0 0 0 0 
0 1 0 0 0 0 0 0 0 
0 0 0 0 0 0 0 0 0 
0 0 0 0 0 0 0 0 0 
-1 0 0 1 0 0 0 0 0 
0 0 0 0 0 0 0 0 0 
0 0 0 0 0 0 0 0 0 
0 0 0 0 0 0 0 0 0 
0 0 0 0 0 0 0 0 0 
1 0 0 0 0 0 0 0 0 
0 0 0 0 0 0 0 0 0 
0 0 0 0 0 0 0 0 0 
0 0 0 0 0 0 0 0 0 
-1 0 0 1 0 0 1 0 0 
0 0 0 0 0 0 0 0 0 
0 0 0 0 0 0 0 0 0 
0 0 0 0 0 0 0 0 0 
0 0 0 1 0 0 0 0 0 
0 0 0 0 0 0 0 0 0 
0 0 0 0 0 0 0 0 0 
0 0 0 0 0 0 0 0 0 
0 0 0 0 0 0 0 0 0 
0 0 0 0 0 0 0 0 0 
0 0 0 0 0 0 0 0 0 
0 0 0 0 0 0 0 0 0 
0 0 0 0 0 0 0 0 0 
0 0 0 0 0 0 0 0 0 
0 0 0 0 0 0 0 0 0 
0 0 0 0 0 0 0 0 0 
-1 0 0 0 0 0 0 0 0 
0 0 0 0 0 0 0 0 0 
0 0 0 0 0 0 0 0 0 
0 0 0 0 0 0 0 -1 0 
0 0 0 1 0 0 0 0 0 
0 0 0 0 0 0 0 -1 0 
0 -1 0 0 0 0 0 0 0 
0 0 0 0 0 0 0 -1 0 
0 0 0 -1 0 0 0 0 0 
1 0 0 0 0 0 0 0 0 
0 0 0 0 0 0 0 0 0 
0 1 0 0 0 0 0 0 0 
0 0 0 0 0 0 0 0 0 
-1 1 0 1 0 0 0 0 0 
0 0 0 0 0 0 0 0 0 
0 0 0 0 0 0 0 0 0 
0 0 0 0 0 0 0 0 0 
0 0 0 0 0 0 0 0 0 
0 0 0 0 0 0 0 0 0 
0 0 0 0 0 0 0 0 0 
0 0 0 0 0 0 0 0 0 
0 0 0 -1 0 0 0 0 0 
0 0 0 0 0 0 0 0 0 
0 0 0 0 0 0 0 0 0 
0 0 0 0 0 0 0 0 0 
0 0 0 0 0 0 0 0 0 
0 0 0 0 0 0 0 0 0 
0 0 0 0 0 0 0 0 0 
0 0 0 0 0 0 0 0 0 
0 0 0 0 0 0 0 0 0 
0 0 0 0 0 0 0 0 0 
0 0 0 0 0 0 0 0 0 
0 0 0 0 0 0 0 0 0 
0 0 0 1 0 0 0 0 0 
0 0 0 0 0 0 0 0 0 
0 0 0 0 0 0 0 0 0 
0 0 0 0 0 0 0 0 0 
0 0 0 0 0 0 1 0 0 
0 0 0 0 0 0 0 0 0 
0 0 0 0 0 0 0 0 0 
0 0 0 0 0 0 0 0 0 
0 0 0 0 0 0 0 0 0 
0 0 0 0 0 0 0 0 0 
0 0 0 0 0 0 0 0 0 
0 0 0 0 0 0 0 0 0 
-1 0 0 0 0 0 1 0 0 
0 0 0 0 -1 0 0 0 0 
0 0 0 0 0 0 0 0 0 
0 -1 0 0 0 0 0 -1 0 
0 0 0 0 0 0 0 0 0 
-1 0 0 0 0 0 1 0 0 
0 0 0 0 0 0 0 0 0 
0 1 0 0 0 0 0 0 0 
0 0 0 0 0 0 1 0 0 
0 0 0 0 0 0 0 1 0 
0 0 0 0 0 0 0 0 0 
0 0 0 0 0 0 -1 0 0 
0 0 0 0 0 0 0 0 0 
0 0 0 0 0 0 0 0 0 
0 0 0 0 0 0 0 0 0 
0 0 0 0 0 0 0 0 0 
0 0 0 1 0 0 0 0 0 
0 0 0 0 0 0 0 0 0 
0 0 0 0 0 0 0 0 0 
0 0 0 0 0 0 0 0 0 
0 0 0 0 0 0 0 0 0 
0 0 0 0 0 0 0 0 0 
0 0 0 0 0 0 0 0 0 
0 0 0 0 0 0 0 0 0 
-1 0 0 -1 0 0 0 0 0 
0 0 0 0 0 0 0 0 0 
0 0 0 0 0 0 0 0 0 
0 0 0 0 0 0 0 0 0 
0 0 0 0 0 0 0 0 0 
0 0 0 1 0 0 0 0 0 
0 0 0 0 0 0 0 0 0 
0 0 0 0 0 0 0 0 0 
0 0 0 0 0 0 0 0 0 
1 0 0 0 0 0 0 0 0 
0 0 0 0 0 0 0 0 0 
0 0 0 0 0 0 0 0 0 
0 0 0 0 0 0 0 0 0 
0 0 0 0 0 0 0 0 0 
0 0 0 0 0 0 0 0 0 
0 0 0 0 0 0 0 0 0 
0 -1 0 0 0 0 0 0 0 
0 0 0 0 0 0 0 0 0 
0 0 0 0 0 0 0 0 0 
0 0 0 0 -1 0 0 0 0 
0 0 0 0 -1 0 0 0 0 
0 0 0 0 0 0 0 0 0 
0 0 0 0 0 0 0 0 0 
0 0 0 0 0 0 0 0 0 
0 1 0 0 0 0 0 0 0 
1 0 0 0 0 0 0 0 0 
0 0 0 0 0 0 0 0 0 
0 0 0 0 0 0 0 0 0 
0 0 0 0 0 0 0 0 0 
0 0 0 0 0 0 0 0 0 
0 0 0 0 0 0 0 0 0 
0 0 0 0 0 0 0 0 0 
0 0 0 0 0 0 -1 1 0 
0 0 0 0 0 0 1 0 0 
0 0 0 0 0 0 0 0 0 
0 0 0 0 0 0 0 0 0 
0 0 0 0 0 0 0 0 0 
0 0 0 0 0 0 1 0 0 
0 0 0 0 0 0 0 0 0 
0 0 0 0 0 0 0 0 0 
0 0 0 0 0 0 0 0 0 
0 0 0 0 0 0 -1 0 0 
1 0 0 0 0 0 0 0 0 
0 0 0 0 0 0 0 0 0 
0 0 0 0 0 0 0 0 0 
0 0 0 0 0 0 0 0 0 
0 0 0 0 0 0 0 0 0 
0 0 0 0 0 0 0 0 0 
0 0 0 0 0 0 0 0 0 
0 0 0 -1 0 0 0 0 0 
0 0 0 0 0 0 0 0 0 
0 0 0 0 0 0 0 0 0 
0 0 0 0 0 0 0 0 0 
0 0 0 -1 0 0 1 0 0 
0 0 0 0 -1 0 0 0 0 
0 0 0 0 0 0 0 0 0 
0 0 0 0 0 0 0 0 0 
0 0 0 0 0 0 0 -1 0 
0 -1 0 0 -1 0 0 0 0 
0 -1 0 0 0 0 0 0 0 
0 -1 0 0 0 0 0 0 0 
0 0 0 0 0 0 0 0 0 
-1 0 0 0 0 0 0 0 0 
0 1 0 0 0 0 0 0 0 
0 0 0 0 1 0 0 0 0 
0 0 0 0 0 0 0 1 0 
-1 0 0 1 0 0 0 0 0 
0 0 0 0 0 0 0 0 0 
0 0 0 0 0 0 0 0 0 
0 0 0 0 0 0 0 0 0 
0 0 0 0 0 0 0 0 0 
0 0 0 0 0 0 0 0 0 
0 0 0 0 0 0 0 0 0 
0 0 0 0 0 0 0 0 0 
0 0 0 0 0 0 0 0 0 
0 0 0 0 0 0 0 0 0 
0 0 0 0 0 0 0 0 0 
0 0 0 0 0 0 0 0 0 
0 0 0 0 0 0 1 0 0 
0 0 0 0 0 0 0 0 0 
0 0 0 0 0 0 0 0 0 
0 0 0 0 0 0 0 0 0 
0 0 0 0 0 0 0 0 0 
0 0 0 0 0 0 0 0 0 
0 0 0 0 0 0 0 0 0 
0 0 0 0 0 0 0 0 0 
-1 0 0 1 -1 0 0 0 0 
0 0 0 0 0 0 0 0 0 
0 0 0 0 0 0 0 0 0 
0 0 0 0 0 0 -1 0 0 
0 0 0 0 0 0 0 0 0 
0 0 0 0 0 0 0 0 0 
0 0 0 0 0 0 0 0 0 
0 0 0 0 0 0 0 0 0 
0 0 0 0 0 0 0 0 0 
0 0 0 0 0 0 0 0 0 
0 0 0 0 0 0 0 0 0 
-1 0 0 0 0 0 0 0 0 
0 0 0 0 -1 0 0 0 0 
0 0 0 0 0 0 0 0 0 
0 -1 0 0 0 0 0 0 0 
0 0 0 0 0 0 0 0 0 
0 0 0 0 0 0 0 0 0 
0 0 0 0 0 0 0 0 0 
0 0 0 0 1 0 0 0 0 
0 0 0 0 0 0 0 0 0 
0 0 0 0 1 0 0 0 0 
0 0 0 0 0 0 0 0 0 
0 0 0 0 0 0 0 0 0 
0 0 0 0 0 0 0 0 0 
0 0 0 0 0 0 0 0 0 
0 0 0 0 0 0 0 0 0 
0 0 0 0 0 0 0 0 0 
0 0 0 0 0 0 0 0 0 
0 0 0 0 0 0 0 0 0 
0 0 0 0 0 0 0 0 0 
-1 0 0 0 0 0 0 0 0 
0 0 0 0 0 0 0 0 0 
0 0 0 0 0 0 0 0 0 
0 0 0 0 0 0 0 0 0 
0 0 0 0 0 0 0 0 0 
0 0 0 0 0 0 0 0 0 
0 0 0 0 0 0 0 0 0 
0 0 0 0 0 0 0 0 0 
0 0 0 0 0 0 0 0 0 
0 0 0 0 0 0 0 0 0 
0 0 0 0 0 0 0 0 0 
0 0 0 0 0 0 0 0 0 
0 0 0 0 0 0 0 0 0 
0 0 0 0 0 0 0 0 0 
0 0 0 0 0 0 0 0 0 
0 0 0 0 0 0 0 0 0 
0 0 0 0 0 0 0 0 0 
0 0 0 0 0 0 0 0 0 
0 0 0 0 0 0 0 0 0 
0 0 0 0 0 0 0 0 0 
0 0 0 0 0 0 0 0 0 
-1 0 0 0 0 0 0 -1 0 
0 0 0 0 -1 0 0 0 0 
0 0 0 0 0 0 0 0 0 
0 0 0 0 0 0 0 0 0 
-1 0 0 0 1 0 0 0 0 
0 0 0 0 0 0 0 0 0 
0 0 0 0 1 0 -1 0 0 
0 0 0 0 0 0 0 0 0 
0 0 0 0 0 0 -1 0 0 
0 0 0 0 0 0 0 0 0 
0 0 0 0 0 0 0 0 0 
0 0 0 0 0 0 -1 0 0 
0 0 0 0 0 0 0 0 0 
0 0 0 -1 0 0 0 0 0 
0 0 0 0 0 0 0 0 0 
0 0 0 0 0 0 0 0 0 
0 0 0 0 0 0 0 0 0 
0 0 0 0 0 0 0 0 0 
0 0 0 0 0 0 0 0 0 
0 0 0 0 0 0 0 0 0 
0 0 0 0 0 0 0 0 0 
0 0 0 0 0 0 0 0 0 
0 0 0 0 0 0 0 0 0 
0 0 0 0 0 0 0 0 0 
0 0 0 0 0 0 0 -1 0 
0 0 0 0 0 0 0 0 0 
0 0 0 0 0 0 0 0 0 
0 0 0 0 0 0 0 0 0 
0 0 0 0 0 0 
v 3 1400 double
6.58444e-05 -1.94358e-05 5.92233e-05 0.000101422 -4.41389e-05 6.2137e-05 8.44983e-05 -3.92842e-05 6.66434e-05 
6.72859e-05 -4.78852e-05 7.20984e-06 5.00231e-05 -2.21491e-05 5.44256e-05 8.60765e-05 -9.34678e-05 8.29694e-05 
1.68681e-05 -1.58517e-05 6.45004e-05 3.56618e-05 -4.6436e-05 9.6543e-05 4.05948e-05 -4.72786e-05 8.87652e-05 
6.21478e-05 -3.7574e-05 8.27124e-05 6.44054e-05 -4.0224e-05 7.35118e-05 7.68342e-05 -5.62922e-05 3.28645e-05 
6.25804e-05 -6.45215e-05 5.95505e-05 8.06149e-05 -4.26874e-05 6.93005e-05 0.000107169 -9.76906e-05 3.6259e-05 
0.00015922 -6.04072e-05 9.75611e-05 0.0001599 -0.000125983 7.09734e-05 6.62571e-05 -7.1839e-05 9.23636e-05 
3.0666e-05 -3.42051e-05 7.27186e-05 4.91574e-05 -3.16755e-05 8.08242e-05 7.29355e-05 -3.70831e-05 7.13407e-05 
5.94071e-05 -3.42944e-05 7.57116e-05 8.09538e-05 -4.08433e-05 5.85088e-05 5.12777e-05 -4.21001e-05 3.41649e-05 
8.62874e-05 -2.75463e-05 7.96832e-05 0.000144103 -6.41249e-05 6.25804e-06 0.000100892 -0.000145231 4.36833e-05 
-1.26313e-05 1.14746e-05 8.87329e-16 6.12396e-05 -9.2755e-05 4.53469e-05 6.84562e-05 -2.04329e-05 5.5946e-05 
6.33316e-05 -4.64546e-05 5.50489e-05 7.14957e-05 -2.5007e-05 4.01228e-05 4.35697e-05 -4.27179e-05 3.11236e-05 
6.06856e-05 -4.99849e-05 3.21649e-05 7.6195e-05 -7.44125e-05 3.31992e-05 -8.63907e-06 -0.000125863 3.48677e-06 
6.50796e-05 -0.000102904 6.98812e-05 4.66963e-05 -6.60674e-05 6.39375e-05 6.48106e-05 -2.55563e-05 2.07419e-05 
9.20938e-05 -8.55141e-05 6.45157e-05 5.92623e-05 -4.37953e-05 2.7771e-05 7.32588e-05 -5.19297e-05 5.91068e-05 
-4.82821e-05 6.5611e-05 2.43661e-15 0.000103059 -5.46115e-05 6.66097e-05 7.3191e-05 -6.1425e-05 7.21103e-05 
5.25429e-05 -2.94922e-05 3.70668e-05 5.23401e-05 -2.92657e-05 2.77336e-05 2.93207e-05 -1.01795e-05 4.14758e-05 
3.96083e-05 -4.69566e-05 3.03417e-05 0.000115396 -7.8039e-05 5.01028e-05 4.70197e-05 -5.18354e-05 3.71199e-05 