/*--------------------------------*- C++ -*----------------------------------*\
| =========                 |                                                 |
| \\      /  F ield         | OpenFOAM: The Open Source CFD Toolbox           |
|  \\    /   O peration     | Version:  5.x                                   |
|   \\  /    A nd           | Web:      www.OpenFOAM.org                      |
|    \\/     M anipulation  |                                                 |
\*---------------------------------------------------------------------------*/
FoamFile
{
    version     2.0;
    format      ascii;
    class       surfaceScalarField;
    location    "50000";
    object      phi;
}
// * * * * * * * * * * * * * * * * * * * * * * * * * * * * * * * * * * * * * //

dimensions      [0 3 -1 0 0 0 0];

internalField   nonuniform List<scalar> 
5825
(
-7.74129e-05
7.51183e-05
-1000
-6.10608e-05
8.10813e-05
-1000
-4.27964e-05
7.84249e-05
-1000
-2.47328e-05
7.68584e-05
-1000
7.17327e-05
-1000
-8.00716e-05
0.000116391
-1000
-6.26169e-05
0.000125231
-1000
-4.47992e-05
0.000115248
-1000
-2.61394e-05
0.000113002
-1000
0.000109601
-1000
-7.62482e-05
0.000138179
-1000
-6.84439e-05
0.000161636
-1000
-4.91173e-05
0.000153301
-1000
-2.82382e-05
0.000150822
-1000
0.000148602
-1000
-6.85822e-05
0.000157571
-999.999
-7.37017e-05
0.000165073
-999.999
-5.31483e-05
0.000181275
-1000
-2.81189e-05
0.000189673
-1000
0.000191262
-1000
-3.66308e-05
-999.999
-4.79949e-05
-999.999
-4.47905e-05
-999.999
-2.35584e-05
-999.999
-999.999
-0.000216919
0.000213759
-1000
-0.000166143
0.000217933
-1000
-0.000120472
0.000208757
-1000
-7.25819e-05
0.000203599
-1000
0.000192685
-1000
-0.000224422
0.000328287
-1000
-0.000170861
0.000335584
-1000
-0.000125125
0.000315655
-1000
-8.11434e-05
0.000309923
-1000
0.000301091
-1000
-0.000242259
0.000399151
-1000
-0.000185839
0.000439136
-1000
-0.00013668
0.000422965
-1000
-8.38259e-05
0.000419648
-1000
0.000413551
-1000
-0.000248309
0.000452186
-1000
-0.000197605
0.000440608
-1000
-0.00014307
0.000482186
-1000
-8.27108e-05
0.000513706
-1000
0.000522236
-1000
-0.000184348
-999.999
-0.000118555
-999.999
-0.000106638
-1000
-6.76602e-05
-1000
-1000
-0.000366737
0.000363172
-1000
-0.000284775
0.000348912
-1000
-0.000209302
0.000338369
-1000
-0.000129443
0.000332645
-1000
0.000315426
-1000
-0.000383959
0.000574917
-1000
-0.000291911
0.000550508
-1000
-0.000215154
0.000528119
-1000
-0.000140804
0.000523464
-1000
0.000518124
-1000
-0.000419804
0.000752049
-1000
-0.000304671
0.000744922
-1000
-0.000221031
0.000718572
-1000
-0.000143039
0.000719017
-1000
0.000715547
-1000
-0.000492242
0.000793064
-1000
-0.000317715
0.000801851
-1000
-0.000221635
0.00082615
-1000
-0.000140621
0.000860413
-1000
0.00087437
-1000
-0.000556728
-999.999
-0.000284487
-1000
-0.00018868
-1000
-0.000125933
-1000
-1000
-0.000538594
0.000503236
-1000
-0.000419143
0.000487329
-1000
-0.000305926
0.000480116
-1000
-0.000186281
0.000476295
-1000
0.000458961
-1000
-0.000556628
0.000838304
-1000
-0.000424073
0.00080333
-1000
-0.000310034
0.000788457
-1000
-0.000199745
0.000792511
-1000
0.000793564
-1000
-0.000599248
0.00117657
-1000
-0.000428106
0.00110406
-1000
-0.000309224
0.00108439
-1000
-0.000199361
0.0010938
-1000
0.00109857
-1000
-0.000676387
0.00146617
-1000
-0.000437843
0.00132663
-1000
-0.000304209
0.00129167
-1000
-0.000191117
0.00130365
-1000
0.00131509
-1000
-0.000828456
-1000
-0.000466118
-1000
-0.000296114
-1000
-0.000180589
-1000
-1000
-0.000724062
0.0006579
-1000
-0.0005694
0.000662444
-1000
-0.000413289
0.000663624
-1000
-0.000246358
0.000663891
-1000
0.000648916
-1000
-0.000725853
0.00115825
-1000
-0.000570481
0.00115582
-1000
-0.000414607
0.00115719
-1000
-0.000261191
0.0011642
-1000
0.00116844
-1000
-0.000741926
0.00163814
-1000
-0.000566371
0.00159614
-1000
-0.00040753
0.0015924
-1000
-0.000255254
0.00160937
-1000
0.00162091
-1000
-0.000795488
0.00215434
-1000
-0.000567084
0.00199122
-1000
-0.000395878
0.00193539
-1000
-0.000240178
0.0019246
-1000
0.00192868
-1000
-0.000931281
-1000
-0.000615237
-1000
-0.000404183
-1000
-0.00023033
-1000
-1000
-0.000937975
0.00089256
-1000
-0.000752051
0.000909141
-1000
-0.000545909
0.000918407
-1000
-0.000317554
0.000921993
-1000
0.000909217
-1000.01
-0.000925059
0.00163904
-1000
-0.000747482
0.00166306
-1000
-0.000543857
0.00167365
-1000
-0.000330248
0.00168403
-1000
0.00169033
-1000
-0.000906555
0.00227786
-1000
-0.000735969
0.00229992
-1000
-0.000533348
0.00231265
-1000
-0.000320223
0.00233286
-1000
0.00234804
-1000
-0.000904969
0.00285045
-1000
-0.00071897
0.00280761
-1000
-0.000513267
0.00278915
-1000
-0.000298988
0.00278908
-1000
0.00279401
-1000
-0.000960784
-1000
-0.000735628
-1000
-0.000513169
-1000
-0.000286403
-1000
-1000
-0.00122223
0.00124555
-1000.01
-0.00100343
0.00126227
-1000.01
-0.000731215
0.00127657
-1000.01
-0.000415351
0.0012836
-1000.01
0.00127358
-1000.01
-0.00120768
0.00234276
-1000.01
-0.000993491
0.00236726
-1000.01
-0.000726287
0.00238847
-1000.01
-0.000422675
0.00240454
-1000.01
0.00241297
-1000.01
-0.00117963
0.00323943
-1000
-0.000974818
0.00327762
-1000
-0.000710604
0.00330843
-1000.01
-0.000407777
0.00333445
-1000.01
0.00335044
-1000.01
-0.00113949
0.00384384
-1000
-0.000937077
0.00389705
-1000
-0.000679875
0.00393932
-1000
-0.000381698
0.00396525
-1000
0.00397882
-1000
-0.00112482
-1000
-0.000929618
-1000
-0.000663475
-1000
-0.000363173
-1000
-1000
-0.00163528
0.00174214
-1000.01
-0.00137202
0.00175599
-1000.01
-0.00100194
0.00177227
-1000.01
-0.000552267
0.00178211
-1000.01
0.00177768
-1000.01
-0.00162607
0.00331117
-1000.01
-0.00135914
0.00333327
-1000.01
-0.000993598
0.00336537
-1000.01
-0.000553187
0.00339122
-1000.01
0.0034033
-1000.01
-0.00160129
0.00459344
-1000.01
-0.0013292
0.00461949
-1000.01
-0.000968553
0.00466353
-1000.01
-0.000534578
0.00470027
-1000.01
0.00471566
-1000.01
-0.00156598
0.00539399
-1000
-0.00127704
0.00545479
-1000
-0.000926622
0.00552046
-1000
-0.000505033
0.00556239
-1000.01
0.00557877
-1000.01
-0.00153722
-1000
-0.00126474
-1000
-0.00089787
-1000
-0.000480373
-1000
-1000
-0.00223809
0.00242016
-1000.01
-0.00190152
0.00243696
-1000.01
-0.0013858
0.00245421
-1000.01
-0.000745829
0.0024694
-1000.01
0.00247264
-1000.01
-0.00222924
0.0046145
-1000.01
-0.00188798
0.00465514
-1000.01
-0.00137449
0.00469742
-1000.01
-0.000739333
0.00473472
-1000.01
0.00474806
-1000.01
-0.00219253
0.00641202
-1000.01
-0.00184379
0.00644903
-1000.01
-0.0013381
0.00650207
-1000.01
-0.000715909
0.0065496
-1000.01
0.00656113
-1000.01
-0.00215472
0.00764332
-1000
-0.00178463
0.00765343
-1000.01
-0.00128875
0.00769199
-1000.01
-0.000686467
0.00773278
-1000.01
0.00773976
-1000.01
-0.00214738
-1000
-0.00175395
-1000
-0.00125188
-1000
-0.000662719
-1000
-1000
-0.00307813
0.00335206
-1000.01
-0.00262304
0.00337646
-1000.01
-0.00190519
0.00339403
-1000.02
-0.00100642
0.00341316
-1000.02
0.00342161
-1000.02
-0.00306553
0.0063973
-1000.01
-0.00261133
0.00646664
-1000.01
-0.00189143
0.00651312
-1000.01
-0.000992397
0.0065545
-1000.02
0.00656244
-1000.02
-0.00300482
0.00885574
-1000.01
-0.00256046
0.0089437
-1000.01
-0.00185037
0.00899821
-1000.01
-0.000970005
0.00904576
-1000.01
0.00904571
-1000.01
-0.00294718
0.0106107
-1000.01
-0.0025003
0.0106014
-1000.01
-0.00180406
0.0106335
-1000.01
-0.000948144
0.0106627
-1000.01
0.0106492
-1000.01
-0.00293025
-1000
-0.00244098
-1000
-0.00177098
-1000
-0.000935098
-1000.01
-1000.01
-0.00419588
0.00464199
-1000.02
-0.00357303
0.00466592
-1000.02
-0.00258847
0.00468063
-1000.02
-0.00135267
0.00469939
-1000.02
0.00470795
-1000.02
-0.00418467
0.00886317
-1000.02
-0.00356687
0.00893667
-1000.02
-0.00257597
0.00897487
-1000.02
-0.0013361
0.0090065
-1000.02
0.00899967
-1000.02
-0.00411741
0.0122251
-1000.01
-0.00352696
0.0123321
-1000.02
-0.00254418
0.0123763
-1000.02
-0.00132221
0.0124052
-1000.02
0.0123836
-1000.02
-0.00402374
0.0144601
-1000.01
-0.00348131
0.0145488
-1000.01
-0.00251643
0.0145858
-1000.01
-0.00131554
0.0145933
-1000.01
0.0145544
-1000.01
-0.0039498
-1000
-0.00342488
-1000
-0.00249976
-1000.01
-0.00131813
-1000.01
-1000.01
-0.00566476
0.00640884
-1000.03
-0.00482138
0.00642152
-1000.03
-0.00348949
0.00642858
-1000.03
-0.00181704
0.00644163
-1000.03
0.00644277
-1000.03
-0.00566649
0.0122353
-1000.02
-0.00482601
0.0122786
-1000.02
-0.00348467
0.0122917
-1000.03
-0.00180473
0.012301
-1000.03
0.0122721
-1000.03
-0.00562503
0.0168348
-1000.02
-0.00481398
0.0169134
-1000.02
-0.00347485
0.0169257
-1000.02
-0.00180525
0.016922
-1000.02
0.0168724
-1000.02
-0.00554056
0.0197342
-1000.01
-0.00480241
0.0198554
-1000.01
-0.00347765
0.0198892
-1000.02
-0.00181677
0.0198766
-1000.02
0.0198141
-1000.02
-0.00542499
-1000
-0.0047644
-1000.01
-0.00348316
-1000.01
-0.0018307
-1000.01
-1000.01
-0.00762717
0.00879858
-1000.03
-0.00649054
0.00879421
-1000.04
-0.00469878
0.00879011
-1000.04
-0.00245121
0.00879273
-1000.04
0.00877908
-1000.04
-0.00765051
0.0167782
-1000.03
-0.00650947
0.0167727
-1000.03
-0.00470709
0.0167515
-1000.04
-0.00245003
0.0167339
-1000.04
0.0166806
-1000.04
-0.00765857
0.0230596
-1000.02
-0.00653193
0.0230772
-1000.03
-0.00472382
0.0230458
-1000.03
-0.00246515
0.0230097
-1000.03
0.0229318
-1000.03
-0.00762888
0.0269513
-1000.02
-0.0065641
0.0270263
-1000.02
-0.0047578
0.02704
-1000.02
-0.00249043
0.0270148
-1000.02
0.0269317
-1000.02
-0.00753285
-1000.01
-0.00655287
-1000.01
-0.00477831
-1000.01
-0.00250967
-1000.01
-1000.01
-0.0102969
0.0120115
-1000.05
-0.00875877
0.0119917
-1000.05
-0.00634719
0.0119762
-1000.05
-0.00332676
0.0119661
-1000.06
0.0119333
-1000.06
-0.0103427
0.0228705
-1000.04
-0.00879345
0.0228178
-1000.05
-0.00637207
0.0227652
-1000.05
-0.0033399
0.0227257
-1000.05
0.0226497
-1000.05
-0.010402
0.0314262
-1000.03
-0.00884656
0.0313787
-1000.04
-0.00641104
0.0313076
-1000.04
-0.00336346
0.0312495
-1000.04
0.0311456
-1000.04
-0.0104485
0.036748
-1000.02
-0.00891837
0.0367513
-1000.03
-0.00646779
0.0367323
-1000.03
-0.00339624
0.0366982
-1000.03
0.0365916
-1000.03
-0.0104182
-1000.01
-0.00893475
-1000.01
-0.00649415
-1000.02
-0.00341597
-1000.02
-1000.02
-0.0139554
0.0163397
-1000.06
-0.0118646
0.0163096
-1000.07
-0.00860929
0.0162844
-1000.07
-0.00453277
0.0162622
-1000.08
0.0162101
-1000.08
-0.0140196
0.0310755
-1000.06
-0.0119176
0.0309886
-1000.06
-0.00865203
0.0309146
-1000.07
-0.00455846
0.0308618
-1000.07
0.0307642
-1000.07
-0.0141132
0.0427123
-1000.05
-0.0119929
0.0426147
-1000.05
-0.0087042
0.0425162
-1000.06
-0.00458446
0.0424458
-1000.06
0.0423138
-1000.06
-0.0142178
0.0500367
-1000.03
-0.0120928
0.0499779
-1000.04
-0.00877372
0.0499191
-1000.04
-0.00461963
0.0498719
-1000.04
0.0497328
-1000.05
-0.014261
-1000.01
-0.0121412
-1000.02
-0.00880928
-1000.02
-0.00463926
-1000.03
-1000.03
-0.0189609
0.0222013
-1000.09
-0.0161163
0.0221646
-1000.09
-0.0117073
0.0221294
-1000.1
-0.0061791
0.0220981
-1000.1
0.0220271
-1000.11
-0.0190434
0.0421947
-1000.08
-0.0161919
0.0420916
-1000.09
-0.011767
0.0420033
-1000.09
-0.00621492
0.0419419
-1000.1
0.0418175
-1000.1
-0.0191497
0.0580153
-1000.06
-0.0162827
0.0578967
-1000.07
-0.0118262
0.0577791
-1000.08
-0.00624181
0.0576965
-1000.08
0.0575286
-1000.08
-0.01927
0.0680646
-1000.04
-0.0164006
0.067984
-1000.05
-0.0119056
0.0678931
-1000.05
-0.00627652
0.067823
-1000.06
0.0676365
-1000.06
-0.0193465
-1000.02
-0.0164832
-1000.02
-0.0119645
-1000.03
-0.00630203
-1000.03
-1000.04
-0.0257796
0.0301744
-1000.12
-0.0219089
0.0301289
-1000.13
-0.0159233
0.0300815
-1000.14
-0.00841018
0.0300433
-1000.14
0.0299499
-1000.14
-0.0258888
0.0573331
-1000.11
-0.0220119
0.0572248
-1000.12
-0.0159999
0.0571204
-1000.12
-0.00845629
0.0570473
-1000.13
0.0568858
-1000.13
-0.0259982
0.0788463
-1000.09
-0.0221182
0.0787321
-1000.1
-0.0160686
0.0785933
-1000.1
-0.0084846
0.0784909
-1000.11
0.0782736
-1000.11
-0.0261066
0.0925694
-1000.06
-0.0222559
0.0924986
-1000.07
-0.0161646
0.0923895
-1000.07
-0.00851952
0.0922865
-1000.08
0.0920308
-1000.08
-0.0261748
-1000.02
-0.0223642
-1000.03
-0.0162588
-1000.04
-0.00855861
-1000.05
-1000.05
-0.035025
0.0410399
-1000.16
-0.029758
0.0409777
-1000.17
-0.0216282
0.0409166
-1000.18
-0.0114223
0.0408701
-1000.19
0.0407478
-1000.2
-0.0351754
0.0779862
-1000.15
-0.0298942
0.077861
-1000.16
-0.0217262
0.0777321
-1000.17
-0.0114782
0.0776415
-1000.18
0.0774299
-1000.18
-0.0353005
0.107264
-1000.12
-0.0300236
0.107142
-1000.13
-0.0218108
0.10697
-1000.14
-0.0115081
0.106838
-1000.15
0.106547
-1000.15
-0.0354148
0.125961
-1000.08
-0.030195
0.125875
-1000.09
-0.0219336
0.125743
-1000.1
-0.0115491
0.125599
-1000.11
0.125246
-1000.11
-0.0354936
-1000.03
-0.0303278
-1000.04
-0.0220683
-1000.06
-0.0116061
-1000.06
-1000.07
-0.0475219
0.0558484
-1000.22
-0.040359
0.0557625
-1000.24
-0.0293246
0.0556864
-1000.25
-0.0154797
0.0556283
-1000.26
0.0554712
-1000.27
-0.0477266
0.106154
-1000.2
-0.0405359
0.105982
-1000.22
-0.0294512
0.10582
-1000.23
-0.0155438
0.105707
-1000.24
0.105425
-1000.25
-0.0478973
0.14604
-1000.16
-0.0406985
0.145847
-1000.18
-0.0295562
0.14562
-1000.19
-0.0155784
0.145448
-1000.2
0.145046
-1000.21
-0.0480802
0.17152
-1000.11
-0.0409242
0.171337
-1000.12
-0.0297158
0.171137
-1000.14
-0.0156375
0.170934
-1000.15
0.170449
-1000.15
-0.0482583
-1000.04
-0.0411262
-1000.06
-0.0299054
-1000.08
-0.0157203
-1000.09
-1000.09
-0.0644026
0.0760191
-1000.3
-0.0546664
0.0759097
-1000.32
-0.0396991
0.0758163
-1000.34
-0.0209396
0.075746
-1000.36
0.0755439
-1000.36
-0.0646707
0.144516
-1000.27
-0.0548944
0.144275
-1000.29
-0.0398613
0.144073
-1000.31
-0.0210145
0.143933
-1000.33
0.143545
-1000.34
-0.0649073
0.198878
-1000.22
-0.0550977
0.198541
-1000.24
-0.0399909
0.19823
-1000.26
-0.0210636
0.197997
-1000.28
0.197438
-1000.28
-0.0652262
0.233678
-1000.14
-0.0554055
0.233284
-1000.17
-0.0402034
0.232925
-1000.19
-0.021154
0.232624
-1000.2
0.231949
-1000.21
-0.0656163
-1000.06
-0.0557701
-1000.08
-0.040488
-1000.1
-0.0212804
-1000.12
-1000.13
-0.0872278
0.103477
-1000.41
-0.0739845
0.103354
-1000.44
-0.0536834
0.103246
-1000.47
-0.0282884
0.103166
-1000.49
0.102898
-1000.5
-0.0875642
0.196705
-1000.37
-0.0742735
0.196408
-1000.4
-0.0538866
0.196161
-1000.43
-0.0283836
0.195983
-1000.45
0.195447
-1000.46
-0.0878549
0.270753
-1000.3
-0.0745202
0.270252
-1000.33
-0.0540487
0.269822
-1000.36
-0.0284553
0.269502
-1000.37
0.268732
-1000.38
-0.0883313
0.318304
-1000.2
-0.0749395
0.317612
-1000.23
-0.0543376
0.317006
-1000.26
-0.0285852
0.316545
-1000.28
0.315596
-1000.29
-0.0890112
-1000.08
-0.0755498
-1000.11
-0.0547742
-1000.14
-0.0287862
-1000.16
-1000.17
-0.118118
0.140855
-1000.56
-0.100068
0.140739
-1000.6
-0.0725272
0.140631
-1000.63
-0.0381826
0.14055
-1000.66
0.14019
-1000.67
-0.11852
0.267712
-1000.5
-0.100417
0.267393
-1000.55
-0.0727733
0.267106
-1000.58
-0.0383059
0.266884
-1000.61
0.266161
-1000.62
-0.118828
0.368466
-1000.4
-0.100697
0.36783
-1000.45
-0.0729687
0.36726
-1000.48
-0.0383937
0.366827
-1000.51
0.365772
-1000.52
-0.119433
0.433265
-1000.27
-0.101244
0.43225
-1000.31
-0.0733562
0.431348
-1000.35
-0.0385728
0.43066
-1000.37
0.429324
-1000.39
-0.120426
-1000.11
-0.102139
-1000.15
-0.0740045
-1000.19
-0.0388853
-1000.22
-1000.23
-0.159935
0.191754
-1000.76
-0.135264
0.191697
-1000.81
-0.0979014
0.191636
-1000.86
-0.0514975
0.191579
-1000.9
0.191108
-1000.92
-0.160372
0.364385
-1000.68
-0.135645
0.364099
-1000.74
-0.0981774
0.363814
-1000.79
-0.0516414
0.363572
-1000.83
0.362621
-1000.84
-0.160628
0.501391
-1000.55
-0.135907
0.500644
-1000.61
-0.098372
0.499935
-1000.66
-0.0517223
0.499368
-1000.69
0.497929
-1000.71
-0.161326
0.589469
-1000.37
-0.136573
0.588074
-1000.42
-0.0988676
0.586815
-1000.47
-0.0519625
0.585821
-1000.51
0.583958
-1000.53
-0.162689
-1000.15
-0.137809
-1000.21
-0.0997981
-1000.26
-0.0524265
-1000.29
-1000.31
-0.216561
0.261104
-1001.03
-0.182742
0.261254
-1001.11
-0.132046
0.261353
-1001.18
-0.0693871
0.261391
-1001.22
0.260805
-1001.25
-0.216906
0.496062
-1000.93
-0.183061
0.495971
-1001.01
-0.132292
0.495824
-1001.08
-0.069517
0.495656
-1001.12
0.494431
-1001.15
-0.216929
0.682349
-1000.75
-0.183149
0.681524
-1000.83
-0.132376
0.680714
-1000.89
-0.0695428
0.680024
-1000.94
0.678087
-1000.96
-0.217664
0.802001
-1000.5
-0.183875
0.800031
-1000.58
-0.132952
0.798263
-1000.64
-0.0698338
0.796849
-1000.69
0.794257
-1000.71
-0.21958
-1000.2
-0.185597
-1000.28
-0.134268
-1000.35
-0.0705107
-1000.4
-1000.42
-0.293293
0.355723
-1001.41
-0.246795
0.356422
-1001.51
-0.177966
0.356938
-1001.6
-0.0933588
0.35725
-1001.66
0.356571
-1001.7
-0.293227
0.675512
-1001.27
-0.246808
0.676072
-1001.38
-0.17801
0.676418
-1001.47
-0.0933941
0.676556
-1001.53
0.675041
-1001.56
-0.292523
0.928694
-1001.02
-0.246327
0.928016
-1001.13
-0.177721
0.927279
-1001.21
-0.0932451
0.926572
-1001.27
0.924027
-1001.31
-0.293031
1.09117
-1000.68
-0.246905
1.08838
-1000.78
-0.178239
1.08588
-1000.87
-0.0935192
1.08388
-1000.93
1.08026
-1000.96
-0.295723
-1000.28
-0.249314
-1000.38
-0.180089
-1000.47
-0.0945085
-1000.53
-1000.57
-0.39745
0.485134
-1001.92
-0.333237
0.487114
-1002.06
-0.239704
0.488627
-1002.18
-0.125359
0.489612
-1002.27
0.488919
-1002.31
-0.396243
0.920405
-1001.73
-0.332361
0.922674
-1001.88
-0.239143
0.924324
-1001.99
-0.125124
0.925305
-1002.08
0.923571
-1002.12
-0.393669
1.264
-1001.39
-0.33043
1.26423
-1001.53
-0.237883
1.26409
-1001.64
-0.124527
1.2637
-1001.73
1.26045
-1001.77
-0.39312
1.4841
-1000.93
-0.330264
1.48041
-1001.06
-0.237947
1.47701
-1001.17
-0.124626
1.47422
-1001.25
1.46917
-1001.3
-0.396631
-1000.39
-0.333496
-1000.52
-0.240485
-1000.63
-0.126052
-1000.71
-1000.76
-0.53932
0.662817
-1002.62
-0.449948
0.667669
-1002.82
-0.322851
0.671408
-1002.98
-0.167777
0.673933
-1003.1
0.673421
-1003.15
-0.535342
1.25548
-1002.37
-0.446905
1.26178
-1002.56
-0.320784
1.26646
-1002.72
-0.166913
1.26951
-1002.83
1.26775
-1002.88
-0.528413
1.7206
-1001.9
-0.441633
1.72356
-1002.08
-0.317218
1.7253
-1002.23
-0.165354
1.72608
-1002.33
1.72201
-1002.39
-0.524835
2.01727
-1001.26
-0.439315
2.013
-1001.44
-0.315891
2.0087
-1001.58
-0.164999
2.00501
-1001.68
1.99796
-1001.74
-0.528793
-1000.53
-0.44328
-1000.7
-0.319165
-1000.85
-0.167024
-1000.95
-1001
-0.733844
0.908292
-1003.59
-0.607526
0.919484
-1003.87
-0.435747
0.927929
-1004.08
-0.22294
0.933955
-1004.24
0.93392
-1004.31
-0.723496
1.71591
-1003.23
-0.599648
1.7313
-1003.5
-0.430127
1.74256
-1003.7
-0.220843
1.75045
-1003.85
1.74888
-1003.92
-0.706829
2.34312
-1002.58
-0.58714
2.35287
-1002.82
-0.421281
2.35917
-1003.01
-0.217549
2.36306
-1003.15
2.35785
-1003.21
-0.695915
2.73978
-1001.72
-0.579718
2.73601
-1001.94
-0.416454
2.7312
-1002.12
-0.216436
2.72684
-1002.25
2.71672
-1002.31
-0.699155
-1000.72
-0.583896
-1000.94
-0.420121
-1001.12
-0.219471
-1001.25
-1001.32
-1.00452
1.25054
-1004.92
-0.818999
1.27591
-1005.33
-0.593086
1.29372
-1005.6
-0.290362
1.30803
-1005.86
1.30835
-1005.91
-0.979739
2.35286
-1004.42
-0.801045
2.38879
-1004.79
-0.579124
2.41322
-1005.04
-0.286388
2.43282
-1005.27
2.43074
-1005.33
-0.941387
3.19308
-1003.5
-0.773854
3.21879
-1003.82
-0.557997
3.23453
-1004.05
-0.28097
3.24652
-1004.24
3.23845
-1004.3
-0.913658
3.71688
-1002.32
-0.755834
3.71667
-1002.59
-0.544751
3.7122
-1002.81
-0.279741
3.70876
-1002.98
3.69304
-1003.05
-0.913095
-1000.98
-0.758992
-1001.24
-0.547134
-1001.45
-0.285126
-1001.61
-1001.69
-1.39565
1.73277
-1006.74
-1.0924
1.79208
-1007.42
-0.827688
1.82624
-1007.69
-0.3595
1.86204
-1008.19
1.85924
-1008.13
-1.33725
3.2428
-1006.02
-1.05528
3.32742
-1006.6
-0.793768
3.37401
-1006.85
-0.353121
3.42533
-1007.27
3.4155
-1007.24
-1.24916
4.35468
-1004.72
-1.00202
4.41867
-1005.16
-0.742439
4.45006
-1005.38
-0.347524
4.48453
-1005.7
4.46471
-1005.7
-1.18252
5.03339
-1003.11
-0.965832
5.04606
-1003.44
-0.708597
5.04246
-1003.66
-0.351837
5.04722
-1003.9
5.01861
-1003.95
-1.16927
-1001.32
-0.966147
-1001.6
-0.702862
-1001.82
-0.364026
-1002.01
-1002.1
-2.0116
2.41433
-1009.1
-1.40832
2.56746
-1010.59
-1.21589
2.6188
-1010.5
-0.407629
2.71654
-1011.71
2.69346
-1011.23
-1.87219
4.49945
-1008.12
-1.33524
4.71508
-1009.29
-1.13588
4.77743
-1009.21
-0.397079
4.92781
-1010.22
4.87376
-1009.81
-1.6639
5.93727
-1006.24
-1.24261
6.10247
-1006.97
-1.00996
6.14162
-1006.98
-0.394264
6.24717
-1007.63
6.17481
-1007.39
-1.50287
6.79581
-1004.09
-1.18691
6.85364
-1004.5
-0.926936
6.84374
-1004.62
-0.420083
6.88914
-1005.04
6.82311
-1005.02
-1.44806
-1001.7
-1.18502
-1001.94
-0.885998
-1002.08
-0.450566
-1002.29
-1002.36
-3.06404
3.35227
-1011.88
-1.7695
3.79687
-1015.69
-1.89394
3.82417
-1014.2
-0.400966
4.09948
-1017.3
4.0025
-1015.63
-2.74619
6.27953
-1010.66
-1.60865
6.8961
-1013.53
-1.71615
6.86645
-1012.14
-0.382769
7.33394
-1014.79
7.11004
-1013.3
-2.26403
8.05306
-1007.86
-1.42467
8.52128
-1009.43
-1.4209
8.46532
-1008.58
-0.387337
8.79891
-1010.13
8.52538
-1009.2
-1.87956
9.12647
-1005.18
-1.35088
9.35829
-1005.87
-1.2481
9.28593
-1005.54
-0.470239
9.50655
-1006.53
9.31787
-1006.28
-1.68428
-1001.95
-1.34277
-1001.98
-1.07216
-1001.81
-0.519904
-1001.96
-1001.94
-4.78295
4.53916
-1014.8
-2.32001
5.84384
-1023.99
-3.06569
5.72013
-1019.18
-0.276596
6.44166
-1026.53
6.14311
-1022.05
-4.10405
8.81416
-1013.76
-1.93722
10.5827
-1020.43
-2.69173
10.0799
-1015.75
-0.242972
11.4467
-1022.25
10.7054
-1018.11
-3.08545
10.7305
-1009.14
-1.52069
12.0595
-1012.47
-2.01059
11.5074
-1009.52
-0.260553
12.4578
-1012.89
11.5958
-1010.35
-2.27103
12.1367
-1006.23
-1.40776
13.0278
-1007.7
-1.77815
12.6104
-1006.27
-0.527156
13.4098
-1008.73
12.8092
-1008.02
-1.71556
-1001.37
-1.24352
-1000.92
-1.14881
-999.911
-0.522066
-999.82
-999.744
-7.457
5.82719
-1017.17
-3.35312
9.29472
-1037.39
-5.12067
8.84574
-1026.26
0.0679001
10.5001
-1042.22
9.78132
-1031.76
-5.9808
12.5635
-1018.19
-2.38374
17.1999
-1031.93
-4.36897
15.2993
-1020.22
0.145455
18.9297
-1035.19
16.7694
-1024.95
-3.89994
13.8865
-1009.39
-1.44231
17.2027
-1014.93
-2.698
15.3605
-1008.33
0.0811592
17.9023
-1014.64
15.7076
-1009.21
-2.24078
15.8534
-1007.43
-1.43795
18.66
-1009.96
-2.78071
16.958
-1006.53
-0.68137
19.1752
-1012.1
17.341
-1010.34
-1.15667
-998.454
-0.585311
-997.076
-0.852946
-994.516
-0.472423
-993.756
-994.388
-11.4521
7.02341
-1017.61
-5.6099
15.3125
-1058.55
-8.80396
14.2636
-1037.33
1.57496
17.8164
-1070.42
16.1967
-1046.39
-8.33101
18.2179
-1025.75
-2.98913
29.6477
-1051.61
-7.43245
24.1293
-1025.64
1.87286
33.0696
-1059.75
27.1761
-1034.06
-4.10267
18.0168
-1008.39
-0.904768
25.3038
-1013.79
-3.27418
20.828
-1002.66
1.36679
26.8776
-1013.09
21.6644
-1002.33
-0.58259
19.8323
-1008.64
-1.47018
26.8594
-1010.63
-4.77967
21.8762
-1004.27
-1.02567
27.1633
-1016.14
22.1939
-1011.89
1.28849
-991.145
0.994522
-986.998
0.226535
-983.138
-0.798386
-980.122
-985.008
-17.4127
6.85381
-1012.19
-11.0463
26.6753
-1091.59
-15.5472
24.6645
-1057.49
6.14898
31.9785
-1124.09
28.3145
-1068.55
-11.2096
26.5106
-1040.82
-3.97189
54.2973
-1086.47
-13.5467
40.2743
-1031.67
7.10974
61.6068
-1110.03
45.9691
-1044.6
-1.92884
25.4906
-1009.42
0.484927
39.8744
-1001.78
-3.6116
29.6915
-987.976
4.40254
43.2097
-1002.71
30.2649
-982.221
4.58844
22.5125
-1004.56
-1.36823
37.3975
-1002.2
-9.03875
25.757
-992.662
-1.65537
37.4292
-1017.75
24.6992
-1007.98
7.97323
-975.07
3.88697
-963.563
1.51156
-961.851
-3.19599
-952.81
-974.072
-43.852
2.27243
-977.763
-39.2824
58.4757
-1154.63
-45.605
64.8974
-1116.06
14.5628
84.6609
-1268.92
77.2572
-1131.25
-22.6377
43.5802
-1075.81
-11.0624
116.51
-1156.08
-34.6212
89.8636
-1033.08
18.6264
147.324
-1225.95
105.477
-1054.2
6.05644
45.3538
-1023.08
7.04278
70.0633
-956.317
-4.84789
49.0467
-935.269
8.84386
80.2965
-949.373
47.9537
-915.853
16.1623
19.939
-971.276
-1.42146
47.6981
-962.248
-18.7535
24.9504
-951.234
-3.25478
48.0587
-1001.01
15.1821
-978.468
25.2411
-921.909
7.45913
-910.118
-0.662786
-918.962
-17.0456
-900.14
-984.209
34.1278
-11.5437
-952.738
-1.68644
30.9471
-1149.77
-4.67405
12.1069
-1125.18
47.2097
30.9424
-1351.75
20.0936
-1104.13
24.7241
6.43364
-1095.76
18.5524
80.7874
-1199.75
-12.4737
-5.93502
-984.014
51.022
69.5855
-1328.08
8.07807
-991.159
9.53399
20.9174
-1054.97
-1.04491
45.1706
-910.122
18.2782
22.7025
-983.23
42.9993
58.4102
-962.919
5.23417
-870.01
26.9264
38.1588
-1001.66
-8.10901
38.8326
-920.875
-30.1654
25.2921
-931.768
4.72322
60.039
-1037.53
-5.5507
-962.96
44.8326
-888.877
44.7225
-900.228
38.8291
-859.098
4.14887
-810.068
-952.116
-224.817
-168.509
-527.065
-303.324
284.104
-1355.36
-270.729
424.958
-1582.74
132.452
484.293
-2239.22
469.248
-1440.93
-130.122
174.601
-1473.37
-54.9517
662.078
-1652.89
-205.339
570.663
-979.332
178.724
937.717
-2165.57
586.371
-929.559
171.04
392.08
-1487.6
160.722
368.597
-606.322
-28.6644
178.046
-401.226
-11.5202
377.257
-419.604
125.659
-420.819
136.484
-74.0175
-372.733
-0.398715
69.6337
-485.028
-87.1919
-61.3182
-605.611
-19.9776
5.76369
-733.248
-174.645
-682.634
159.862
-330.015
-99.0511
-358.27
-127.269
-735.721
-257.575
-580.395
-1424.32
426.216
98.8156
-881.435
256.769
-158.201
-1027.71
196.58
-397.794
-1124.75
42.2788
-359.114
-1725.81
-309.626
-1089.02
309
-220.993
-1040.24
100.54
-323.278
-1279.36
132.934
-683.329
-726.19
36.9818
-681.157
-1747.58
-542.045
-660.158
-210.632
-362.852
-1157.47
-332.307
-328.749
-479.176
152.75
24.4322
-1594.05
304.898
-98.5063
-1154.4
-163.891
-494.075
147.963
327.503
-1462.53
-41.7235
-246.447
-377.644
-85.1229
158.983
-696.762
71.5313
235.995
-1224.4
-15.4876
-759.506
105.524
-687.321
469.768
-1363.26
380.77
-408.959
244.469
-280.137
-945.461
40.2051
-58.7601
-706.3
-1.11743
2.53185
-988.923
-15.8422
-4.34872
-1105.68
-0.416084
-0.818088
-1740.41
-0.520414
-1088.92
0.0441509
-1.77256
-1167.09
3.10505
44.0279
-1323.91
-7.42624
108.984
-828.991
3.53076
213.39
-1972.74
4.98873
-662.136
41.811
187.534
-1485.06
147.31
18.4706
-559.117
3.34972
0.900625
-1342
-107.712
89.4333
-919.383
-49.9346
-546.864
53.7722
13.9077
-1103.34
-0.937706
-104.047
-200.417
4.25073
-58.4565
-642.593
-8.60833
-39.4758
-1082.63
-97.0533
-720.996
-13.8101
-491.217
-107.507
-1168.18
-0.166482
-510.595
-0.10891
-295.828
-1157.75
-160.107
99.1353
-615.912
-192.68
386.801
-1343.15
288.531
492.691
-2079.58
130.198
675.939
-2258.02
321.675
-1280.39
-17.1569
163.509
-1209.94
-14.0126
225.572
-1165.83
150.4
224.036
-724.748
136.86
291.649
-1574.91
243.012
-446.613
18.4109
-182.561
-1086.51
16.346
41.0735
-372.554
-1.75699
-39.5242
-1060.34
17.2961
4.80787
-651.594
80.003
-366.559
-0.278557
-1.10701
-1685.6
-1.50194
-2.55567
-155.564
-7.09506
-143.139
-533.385
109.443
-58.1438
-1136.22
-305.005
-226.545
-0.685858
-15.4535
-102.805
-939.105
98.8645
-1080.41
33.0978
-289.982
-1355.27
-231.48
-106.279
-594.457
135.569
309.92
-2020.12
-270.005
-39.5971
-1634.41
-99.6288
262.887
-2691.29
0.607239
-1380.63
126.281
0.944475
-1887.59
5.80199
-36.6073
-698.822
81.7296
-39.7863
-800.487
4.04847
-432.718
-801.624
-3.39921
-438.558
-39.7246
-999.318
-3.41933
-147.479
-11.4756
-289.932
-397.4
49.5716
-899.776
-436.206
-97.1587
-948.347
1.91792
-808.082
-564.856
-1130.52
-1841.89
-1.13395
6.18222
-736.944
-1.49648
-164.359
-319.092
204.339
117.839
-1557.05
-5.25253
-15.0355
66.0147
-2907.67
0.831721
-1152.29
124.105
-1467.32
-2.2106
-5.3683
-1341.7
-108.001
-606.321
-19.604
129.557
607.149
-2864.83
-190.679
101.848
-1416.02
-159.122
72.3592
-2795.2
-204.097
-1335.66
-372.713
-650.009
-2343.77
-82.2405
53.108
-435.254
-106.147
149.881
-824.613
-81.3136
61.3522
-815.451
119.123
-843.092
104.582
235.538
-1457.92
41.1244
35.3383
-208.704
-118.014
-5.62826
-585.129
-558.759
193.021
-639.27
77.8136
-1325.53
-345.58
118.735
-1327.69
-51.0903
335.195
-1331.29
-313.902
98.1271
-160.036
-295.719
95.143
-1477.36
314.606
-547.547
95.2453
-3173.61
-382.383
-439.212
-403.114
-1353.56
-304.921
-86.9657
-1749.9
-64.913
105.98
-14.2033
-445.834
-71.4952
-2412.41
446.638
411.809
-2720.3
50.6714
0.412056
-2399.65
-26.4783
-1258.51
65.7944
-1167.71
-713.916
-29.8709
-7.41492
-403.668
65.4577
-14.2223
-493.911
-20.6204
22.6953
-751.656
-61.5013
-828.689
-34.7542
-48.0174
-2805.67
-24.2692
263.057
-489.661
48.2155
-31.425
-640.411
-48.3409
-30.3224
-489.696
-59.5463
-1375.83
-11.8841
320.542
-1675.25
-291.864
275.728
-1063.98
109.468
173.088
-765.881
-375.903
-271.974
-750.337
-5.72024
-977.276
-3.4438
-2816.52
15.0865
-151.847
-162.842
-920.44
20.9759
-1263.95
-1981.37
65.1607
1.2217
-19.8037
-28.3376
10.9453
-2329.86
-305.982
-122.752
-2319.91
-1111.45
-120.574
-1473.6
313.952
-2683.91
-83.8878
-274.654
-21.1515
-129.653
59.5772
-406.534
-18.4583
104.723
-832.581
-10.3222
47.923
-928.288
330.131
-855.19
87.1242
-91.4116
-2800.47
78.4737
182.382
-603.815
29.841
-65.4261
-421.629
-30.0973
116.705
-498.541
165.556
-1241.35
386.065
424.883
-2409.82
-71.1181
-120.863
-303.555
264.312
48.3241
-1215.06
-246.505
356.824
-479.638
194.351
-1252.58
-332.998
-2267.33
185.276
-1125.03
271.621
-958.832
281.621
-1668.6
-1627.05
-87.9369
-0.265994
-61.8539
-17.7946
124.724
-2524.72
395.149
188.628
-2921.48
122.157
-587.595
-613.017
-517.252
-2044.5
-3.1947
590.162
-713.568
177.468
126.022
-588.495
223.292
-42.527
-647.25
109.109
-544.109
-857.592
263.182
-1526.51
-264.846
603.712
-2426.97
-151.659
3.30164
-594.281
81.3716
250.849
-948.036
255.002
29.8853
-1246.17
-307.837
-415.329
104.987
299.859
-1914
-18.3278
100.812
-277.751
-67.2767
77.6903
-992.954
274.13
209.558
-1000.72
-182.134
-1104.15
-1013.77
-176.249
-410.76
-1691.24
353.489
-1385.04
-79.1598
-952.117
-1848.94
-193.124
208.204
-99.7861
-1245.24
32.416
-1505.03
-923.493
116.775
-3360
6.19787
118.238
-1660.95
-4.92323
-2033.38
-218.395
377.409
-693.443
-72.8895
69.7582
-771.342
67.1647
110.15
-780.679
-105.59
-295.169
-271.43
-175.482
-1461.55
-152.736
-34.1991
-1856.24
-44.2823
63.0124
-695.989
101.576
189.962
-1173.71
-62.1615
74.671
-1452.27
14.9137
-667.886
-38.5792
-70.369
-1559.24
-31.3723
52.0701
-274.015
159.683
51.7722
-1045.82
37.8718
193.095
-997.329
-148.381
-902.983
26.7175
-159.864
-91.3107
-1255.35
72.0854
-1449.76
-201.902
-402.978
-1478.41
235.743
18.5851
-456.032
-99.3096
-96.1549
-1073.82
-483.843
19.7636
-2995.23
605.226
151.625
-2901.64
44.7377
-1472.89
-70.2044
-159.735