/*--------------------------------*- C++ -*----------------------------------*\
| =========                 |                                                 |
| \\      /  F ield         | OpenFOAM: The Open Source CFD Toolbox           |
|  \\    /   O peration     | Version:  5.x                                   |
|   \\  /    A nd           | Web:      www.OpenFOAM.org                      |
|    \\/     M anipulation  |                                                 |
\*---------------------------------------------------------------------------*/
FoamFile
{
    version     2.0;
    format      ascii;
    class       volVectorField;
    location    "50000";
    object      U;
}
// * * * * * * * * * * * * * * * * * * * * * * * * * * * * * * * * * * * * * //

dimensions      [0 1 -1 0 0 0 0];

internalField   nonuniform List<vector> 
2250
(
(-7.72752e-11 3.75488e-11 -0.001)
(-6.60997e-11 3.97926e-11 -0.001)
(-5.36997e-11 3.80199e-11 -0.001)
(-3.18803e-11 3.90096e-11 -0.001)
(-1.07899e-11 3.77291e-11 -0.001)
(-7.79505e-11 9.62593e-11 -0.001)
(-6.58282e-11 1.0336e-10 -0.001)
(-5.45802e-11 9.7673e-11 -0.001)
(-3.21531e-11 9.70243e-11 -0.001)
(-1.20319e-11 9.38058e-11 -0.001)
(-8.01289e-11 1.32137e-10 -0.001)
(-6.48569e-11 1.47984e-10 -0.001)
(-6.01295e-11 1.37397e-10 -0.001)
(-3.56013e-11 1.35163e-10 -0.001)
(-1.38261e-11 1.32125e-10 -0.001)
(-9.97007e-11 1.01006e-10 -0.000999999)
(-6.05278e-11 1.64124e-10 -0.000999999)
(-6.7394e-11 1.68119e-10 -0.001)
(-3.71489e-11 1.70107e-10 -0.001)
(-1.47951e-11 1.69161e-10 -0.001)
(-2.01314e-10 3.00999e-10 -0.000999999)
(2.21868e-12 1.62906e-10 -0.000999999)
(-5.41301e-11 1.68427e-10 -0.000999999)
(-3.42091e-11 1.70564e-10 -0.000999999)
(-1.4442e-11 1.73024e-10 -0.000999999)
(-2.12785e-10 1.08145e-10 -0.001)
(-1.88238e-10 1.09224e-10 -0.001)
(-1.47306e-10 1.06202e-10 -0.001)
(-9.19474e-11 1.06161e-10 -0.001)
(-3.2652e-11 1.00385e-10 -0.001)
(-2.11408e-10 2.75333e-10 -0.001)
(-1.90582e-10 2.81931e-10 -0.001)
(-1.5059e-10 2.6929e-10 -0.001)
(-9.76611e-11 2.6602e-10 -0.001)
(-3.8258e-11 2.55581e-10 -0.001)
(-2.15383e-10 3.7709e-10 -0.001)
(-1.94643e-10 3.98522e-10 -0.001)
(-1.63445e-10 3.77368e-10 -0.001)
(-1.05277e-10 3.73517e-10 -0.001)
(-4.26111e-11 3.66172e-10 -0.001)
(-2.58959e-10 3.13985e-10 -0.000999999)
(-1.90373e-10 4.29766e-10 -0.001)
(-1.75581e-10 4.52489e-10 -0.001)
(-1.08124e-10 4.67409e-10 -0.001)
(-4.48596e-11 4.68984e-10 -0.001)
(-5.15233e-10 7.5192e-10 -0.000999999)
(-5.61691e-11 4.95292e-10 -0.000999999)
(-1.25768e-10 4.88621e-10 -0.000999999)
(-8.78285e-11 4.87113e-10 -0.001)
(-4.01243e-11 4.93491e-10 -0.001)
(-3.64692e-10 1.80013e-10 -0.001)
(-3.34145e-10 1.75168e-10 -0.001)
(-2.50435e-10 1.71428e-10 -0.001)
(-1.65989e-10 1.69948e-10 -0.001)
(-6.20934e-11 1.60881e-10 -0.001)
(-3.58455e-10 4.73802e-10 -0.001)
(-3.43309e-10 4.58267e-10 -0.001)
(-2.561e-10 4.4656e-10 -0.001)
(-1.76519e-10 4.42039e-10 -0.001)
(-7.09478e-11 4.2862e-10 -0.001)
(-3.569e-10 6.7281e-10 -0.001)
(-3.61955e-10 6.60938e-10 -0.001)
(-2.67101e-10 6.38528e-10 -0.001)
(-1.83336e-10 6.37091e-10 -0.001)
(-7.46871e-11 6.3245e-10 -0.001)
(-3.69475e-10 7.37768e-10 -0.001)
(-3.77597e-10 7.80803e-10 -0.001)
(-2.79917e-10 7.786e-10 -0.001)
(-1.81314e-10 7.96921e-10 -0.001)
(-7.43013e-11 8.04394e-10 -0.001)
(-5.27967e-10 9.61424e-10 -0.000999999)
(-3.21042e-10 8.6913e-10 -0.001)
(-2.50917e-10 8.7016e-10 -0.001)
(-1.5592e-10 8.68971e-10 -0.001)
(-6.56716e-11 8.78202e-10 -0.001)
(-5.33211e-10 2.49959e-10 -0.001)
(-4.90347e-10 2.45565e-10 -0.001)
(-3.67629e-10 2.42212e-10 -0.001)
(-2.49257e-10 2.40993e-10 -0.001)
(-9.48264e-11 2.31553e-10 -0.001)
(-5.23965e-10 6.78322e-10 -0.001)
(-4.99004e-10 6.58672e-10 -0.001)
(-3.72965e-10 6.51476e-10 -0.001)
(-2.59965e-10 6.49793e-10 -0.001)
(-1.03999e-10 6.38843e-10 -0.001)
(-5.23399e-10 1.02757e-09 -0.001)
(-5.18097e-10 9.74777e-10 -0.001)
(-3.77233e-10 9.58761e-10 -0.001)
(-2.61099e-10 9.63867e-10 -0.001)
(-1.04667e-10 9.65621e-10 -0.001)
(-4.95391e-10 1.31861e-09 -0.001)
(-5.6787e-10 1.24145e-09 -0.001)
(-3.83837e-10 1.2059e-09 -0.001)
(-2.51213e-10 1.21694e-09 -0.001)
(-1.00398e-10 1.22653e-09 -0.001)
(-4.69312e-10 1.23537e-09 -0.001)
(-6.30812e-10 1.31857e-09 -0.001)
(-4.0166e-10 1.35141e-09 -0.001)
(-2.38114e-10 1.35433e-09 -0.001)
(-9.2833e-11 1.36643e-09 -0.001)
(-7.20069e-10 3.34375e-10 -0.001)
(-6.61525e-10 3.35537e-10 -0.001)
(-4.9991e-10 3.35256e-10 -0.001)
(-3.38443e-10 3.34615e-10 -0.001)
(-1.27538e-10 3.26788e-10 -0.001)
(-7.15054e-10 9.27346e-10 -0.001)
(-6.62026e-10 9.26289e-10 -0.001)
(-5.01947e-10 9.26584e-10 -0.001)
(-3.47016e-10 9.29296e-10 -0.001)
(-1.35012e-10 9.23038e-10 -0.001)
(-7.2371e-10 1.43076e-09 -0.001)
(-6.6367e-10 1.40633e-09 -0.001)
(-4.97975e-10 1.4012e-09 -0.001)
(-3.40929e-10 1.41165e-09 -0.001)
(-1.32333e-10 1.41938e-09 -0.001)
(-7.01137e-10 1.92073e-09 -0.001)
(-6.91662e-10 1.83221e-09 -0.001)
(-4.96575e-10 1.79213e-09 -0.001)
(-3.26108e-10 1.79714e-09 -0.001)
(-1.24667e-10 1.80637e-09 -0.001)
(-5.99393e-10 1.89791e-09 -0.001)
(-7.92261e-10 1.96212e-09 -0.001)
(-5.32871e-10 2.00171e-09 -0.001)
(-3.23109e-10 2.00875e-09 -0.001)
(-1.19702e-10 2.01989e-09 -0.001)
(-9.48404e-10 4.55502e-10 -0.001)
(-8.67075e-10 4.62182e-10 -0.001)
(-6.61634e-10 4.6552e-10 -0.001)
(-4.43463e-10 4.66615e-10 -0.001)
(-1.63755e-10 4.60751e-10 -0.001)
(-9.43824e-10 1.29085e-09 -0.001)
(-8.58853e-10 1.30789e-09 -0.001)
(-6.58525e-10 1.31684e-09 -0.001)
(-4.48229e-10 1.32339e-09 -0.001)
(-1.69076e-10 1.32062e-09 -0.001)
(-9.56006e-10 1.99048e-09 -0.001)
(-8.42912e-10 2.01396e-09 -0.001)
(-6.47417e-10 2.02578e-09 -0.001)
(-4.37992e-10 2.04107e-09 -0.001)
(-1.64359e-10 2.05229e-09 -0.001)
(-9.69943e-10 2.58508e-09 -0.001)
(-8.23645e-10 2.59899e-09 -0.001)
(-6.31314e-10 2.59166e-09 -0.001)
(-4.17689e-10 2.60172e-09 -0.001)
(-1.54001e-10 2.61327e-09 -0.001)
(-9.53676e-10 2.95272e-09 -0.001)
(-8.36334e-10 2.89703e-09 -0.001)
(-6.44478e-10 2.9045e-09 -0.001)
(-4.11282e-10 2.90734e-09 -0.001)
(-1.47944e-10 2.91523e-09 -0.001)
(-1.25863e-09 6.3407e-10 -0.001)
(-1.14187e-09 6.4089e-10 -0.00100001)
(-8.85184e-10 6.47557e-10 -0.00100001)
(-5.86341e-10 6.50776e-10 -0.00100001)
(-2.11868e-10 6.46319e-10 -0.00100001)
(-1.25274e-09 1.82651e-09 -0.001)
(-1.13061e-09 1.84484e-09 -0.001)
(-8.76924e-10 1.86164e-09 -0.00100001)
(-5.87437e-10 1.87262e-09 -0.00100001)
(-2.15523e-10 1.87227e-09 -0.00100001)
(-1.25192e-09 2.8255e-09 -0.001)
(-1.10908e-09 2.86095e-09 -0.001)
(-8.59033e-10 2.89056e-09 -0.001)
(-5.73218e-10 2.91279e-09 -0.001)
(-2.09133e-10 2.92658e-09 -0.001)
(-1.28025e-09 3.6229e-09 -0.001)
(-1.06568e-09 3.65756e-09 -0.001)
(-8.24954e-10 3.68121e-09 -0.001)
(-5.45777e-10 3.70468e-09 -0.001)
(-1.9632e-10 3.71991e-09 -0.001)
(-1.29043e-09 4.20258e-09 -0.001)
(-1.05071e-09 4.15155e-09 -0.001)
(-8.11621e-10 4.13517e-09 -0.001)
(-5.27238e-10 4.13554e-09 -0.001)
(-1.86966e-10 4.13957e-09 -0.001)
(-1.70569e-09 8.85349e-10 -0.00100001)
(-1.53988e-09 8.90778e-10 -0.00100001)
(-1.21174e-09 8.99344e-10 -0.00100001)
(-7.94645e-10 9.0448e-10 -0.00100001)
(-2.82436e-10 9.02407e-10 -0.00100001)
(-1.70026e-09 2.56846e-09 -0.00100001)
(-1.52877e-09 2.58519e-09 -0.00100001)
(-1.20021e-09 2.60885e-09 -0.00100001)
(-7.91318e-10 2.62632e-09 -0.00100001)
(-2.83358e-10 2.63054e-09 -0.00100001)
(-1.68201e-09 3.99899e-09 -0.001)
(-1.50255e-09 4.02809e-09 -0.00100001)
(-1.17281e-09 4.06991e-09 -0.00100001)
(-7.69389e-10 4.10265e-09 -0.00100001)
(-2.73856e-10 4.11927e-09 -0.00100001)
(-1.67804e-09 5.13043e-09 -0.001)
(-1.45802e-09 5.13625e-09 -0.001)
(-1.12547e-09 5.17003e-09 -0.001)
(-7.34024e-10 5.20627e-09 -0.001)
(-2.59111e-10 5.22253e-09 -0.001)
(-1.62537e-09 5.75842e-09 -0.001)
(-1.46279e-09 5.78728e-09 -0.001)
(-1.10238e-09 5.79273e-09 -0.001)
(-7.06619e-10 5.80029e-09 -0.001)
(-2.47762e-10 5.80173e-09 -0.001)
(-2.34284e-09 1.22902e-09 -0.00100001)
(-2.11643e-09 1.23649e-09 -0.00100001)
(-1.6774e-09 1.24529e-09 -0.00100001)
(-1.0894e-09 1.25246e-09 -0.00100001)
(-3.81289e-10 1.25394e-09 -0.00100001)
(-2.33967e-09 3.57207e-09 -0.00100001)
(-2.10411e-09 3.60006e-09 -0.00100001)
(-1.66447e-09 3.62959e-09 -0.00100001)
(-1.08035e-09 3.65523e-09 -0.00100001)
(-3.78182e-10 3.66433e-09 -0.00100001)
(-2.31185e-09 5.59106e-09 -0.00100001)
(-2.06308e-09 5.62787e-09 -0.00100001)
(-1.62529e-09 5.67597e-09 -0.00100001)
(-1.04967e-09 5.71933e-09 -0.00100001)
(-3.66104e-10 5.7354e-09 -0.00100001)
(-2.2603e-09 7.13329e-09 -0.001)
(-2.01944e-09 7.16132e-09 -0.00100001)
(-1.57277e-09 7.19857e-09 -0.00100001)
(-1.00982e-09 7.24161e-09 -0.00100001)
(-3.51414e-10 7.25266e-09 -0.00100001)
(-2.17807e-09 7.93609e-09 -0.001)
(-1.998e-09 7.97979e-09 -0.001)
(-1.54446e-09 8.02753e-09 -0.001)
(-9.81272e-10 8.04724e-09 -0.001)
(-3.41289e-10 8.04472e-09 -0.001)
(-3.21462e-09 1.70101e-09 -0.00100001)
(-2.91172e-09 1.71208e-09 -0.00100001)
(-2.30945e-09 1.72044e-09 -0.00100001)
(-1.4876e-09 1.72973e-09 -0.00100001)
(-5.14418e-10 1.73456e-09 -0.00100001)
(-3.21421e-09 4.94737e-09 -0.00100001)
(-2.89772e-09 4.99277e-09 -0.00100001)
(-2.29598e-09 5.02475e-09 -0.00100001)
(-1.47285e-09 5.05497e-09 -0.00100001)
(-5.07312e-10 5.06525e-09 -0.00100001)
(-3.18715e-09 7.74696e-09 -0.00100001)
(-2.84007e-09 7.81271e-09 -0.00100001)
(-2.25145e-09 7.86173e-09 -0.00100001)
(-1.44013e-09 7.90612e-09 -0.00100001)
(-4.9566e-10 7.91382e-09 -0.00100001)
(-3.12289e-09 9.81133e-09 -0.00100001)
(-2.78326e-09 9.91037e-09 -0.00100001)
(-2.20223e-09 9.94893e-09 -0.00100001)
(-1.40539e-09 9.98775e-09 -0.00100001)
(-4.84757e-10 9.98478e-09 -0.00100001)
(-3.08767e-09 1.10188e-08 -0.001)
(-2.70246e-09 1.09858e-08 -0.001)
(-2.17333e-09 1.10522e-08 -0.001)
(-1.38463e-09 1.10744e-08 -0.001)
(-4.797e-10 1.10616e-08 -0.00100001)
(-4.37646e-09 2.35319e-09 -0.00100002)
(-3.96479e-09 2.36453e-09 -0.00100002)
(-3.14162e-09 2.37161e-09 -0.00100002)
(-2.01251e-09 2.38124e-09 -0.00100002)
(-6.90599e-10 2.3865e-09 -0.00100002)
(-4.38046e-09 6.85054e-09 -0.00100001)
(-3.95372e-09 6.89737e-09 -0.00100002)
(-3.13053e-09 6.92374e-09 -0.00100002)
(-1.99667e-09 6.94933e-09 -0.00100002)
(-6.82162e-10 6.9531e-09 -0.00100002)
(-4.36437e-09 1.06986e-08 -0.00100001)
(-3.89938e-09 1.07815e-08 -0.00100001)
(-3.09532e-09 1.08206e-08 -0.00100001)
(-1.9735e-09 1.08498e-08 -0.00100001)
(-6.75122e-10 1.08399e-08 -0.00100002)
(-4.32979e-09 1.34913e-08 -0.00100001)
(-3.83215e-09 1.36199e-08 -0.00100001)
(-3.06179e-09 1.36607e-08 -0.00100001)
(-1.95636e-09 1.36804e-08 -0.00100001)
(-6.71744e-10 1.36565e-08 -0.00100001)
(-4.38593e-09 1.52282e-08 -0.001)
(-3.72997e-09 1.51033e-08 -0.001)
(-3.03387e-09 1.5143e-08 -0.00100001)
(-1.95097e-09 1.51513e-08 -0.00100001)
(-6.73267e-10 1.51208e-08 -0.00100001)
(-5.92172e-09 3.24708e-09 -0.00100002)
(-5.34948e-09 3.25327e-09 -0.00100002)
(-4.23738e-09 3.25689e-09 -0.00100003)
(-2.70896e-09 3.26375e-09 -0.00100003)
(-9.27285e-10 3.26522e-09 -0.00100003)
(-5.93496e-09 9.45411e-09 -0.00100002)
(-5.34955e-09 9.48073e-09 -0.00100002)
(-4.23446e-09 9.4907e-09 -0.00100002)
(-2.69928e-09 9.50206e-09 -0.00100002)
(-9.21434e-10 9.49183e-09 -0.00100002)
(-5.93959e-09 1.47335e-08 -0.00100002)
(-5.32338e-09 1.47931e-08 -0.00100002)
(-4.22364e-09 1.48043e-08 -0.00100002)
(-2.69459e-09 1.48062e-08 -0.00100002)
(-9.21483e-10 1.47732e-08 -0.00100002)
(-5.95669e-09 1.85326e-08 -0.00100001)
(-5.27937e-09 1.86313e-08 -0.00100001)
(-4.22066e-09 1.86551e-08 -0.00100001)
(-2.70169e-09 1.86481e-08 -0.00100001)
(-9.26681e-10 1.86007e-08 -0.00100002)
(-6.09368e-09 2.08656e-08 -0.001)
(-5.2008e-09 2.0678e-08 -0.00100001)
(-4.20547e-09 2.0664e-08 -0.00100001)
(-2.71266e-09 2.06481e-08 -0.00100001)
(-9.33882e-10 2.05964e-08 -0.00100001)
(-8.0002e-09 4.45575e-09 -0.00100003)
(-7.20119e-09 4.45421e-09 -0.00100003)
(-5.70523e-09 4.45261e-09 -0.00100003)
(-3.65014e-09 4.45417e-09 -0.00100004)
(-1.25121e-09 4.44866e-09 -0.00100004)
(-8.02735e-09 1.29663e-08 -0.00100003)
(-7.2176e-09 1.29613e-08 -0.00100003)
(-5.71548e-09 1.29486e-08 -0.00100003)
(-3.65225e-09 1.29411e-08 -0.00100003)
(-1.25075e-09 1.29129e-08 -0.00100003)
(-8.06014e-09 2.0185e-08 -0.00100002)
(-7.23302e-09 2.01914e-08 -0.00100002)
(-5.73566e-09 2.0164e-08 -0.00100003)
(-3.66775e-09 2.01367e-08 -0.00100003)
(-1.2576e-09 2.008e-08 -0.00100003)
(-8.12398e-09 2.53548e-08 -0.00100001)
(-7.23945e-09 2.53913e-08 -0.00100002)
(-5.76931e-09 2.53828e-08 -0.00100002)
(-3.69728e-09 2.53522e-08 -0.00100002)
(-1.26973e-09 2.5283e-08 -0.00100002)
(-8.34526e-09 2.84188e-08 -0.00100001)
(-7.20501e-09 2.81847e-08 -0.00100001)
(-5.77292e-09 2.81219e-08 -0.00100001)
(-3.71812e-09 2.80807e-08 -0.00100001)
(-1.27921e-09 2.80082e-08 -0.00100001)
(-1.08241e-08 6.08139e-09 -0.00100004)
(-9.71973e-09 6.07285e-09 -0.00100004)
(-7.70301e-09 6.06575e-09 -0.00100005)
(-4.93866e-09 6.06103e-09 -0.00100005)
(-1.69795e-09 6.04673e-09 -0.00100005)
(-1.08669e-08 1.76833e-08 -0.00100004)
(-9.75333e-09 1.76473e-08 -0.00100004)
(-7.72872e-09 1.76131e-08 -0.00100004)
(-4.9552e-09 1.75884e-08 -0.00100004)
(-1.70413e-09 1.75413e-08 -0.00100005)
(-1.09275e-08 2.75145e-08 -0.00100003)
(-9.809e-09 2.74632e-08 -0.00100003)
(-7.77587e-09 2.7399e-08 -0.00100004)
(-4.98594e-09 2.73492e-08 -0.00100004)
(-1.71534e-09 2.72708e-08 -0.00100004)
(-1.10201e-08 3.4551e-08 -0.00100002)
(-9.86987e-09 3.45256e-08 -0.00100002)
(-7.84152e-09 3.44814e-08 -0.00100003)
(-5.03051e-09 3.44357e-08 -0.00100003)
(-1.73122e-09 3.4346e-08 -0.00100003)
(-1.12868e-08 3.85556e-08 -0.00100001)
(-9.87857e-09 3.83134e-08 -0.00100001)
(-7.86326e-09 3.82238e-08 -0.00100001)
(-5.05408e-09 3.81636e-08 -0.00100002)
(-1.74032e-09 3.80699e-08 -0.00100002)
(-1.46748e-08 8.27327e-09 -0.00100005)
(-1.31695e-08 8.25919e-09 -0.00100006)
(-1.04409e-08 8.24711e-09 -0.00100006)
(-6.70845e-09 8.2363e-09 -0.00100007)
(-2.31278e-09 8.21296e-09 -0.00100007)
(-1.47346e-08 2.40394e-08 -0.00100005)
(-1.32203e-08 2.39799e-08 -0.00100005)
(-1.04828e-08 2.39298e-08 -0.00100006)
(-6.73928e-09 2.38922e-08 -0.00100006)
(-2.32511e-09 2.38269e-08 -0.00100006)
(-1.48169e-08 3.73967e-08 -0.00100004)
(-1.33051e-08 3.73008e-08 -0.00100004)
(-1.05475e-08 3.72111e-08 -0.00100005)
(-6.77805e-09 3.71475e-08 -0.00100005)
(-2.33772e-09 3.70483e-08 -0.00100005)
(-1.49221e-08 4.69937e-08 -0.00100003)
(-1.34073e-08 4.692e-08 -0.00100003)
(-1.06345e-08 4.68432e-08 -0.00100003)
(-6.83014e-09 4.67856e-08 -0.00100004)
(-2.35455e-09 4.66715e-08 -0.00100004)
(-1.51735e-08 5.22535e-08 -0.00100001)
(-1.34556e-08 5.20436e-08 -0.00100002)
(-1.06784e-08 5.19466e-08 -0.00100002)
(-6.8582e-09 5.18753e-08 -0.00100002)
(-2.36376e-09 5.1756e-08 -0.00100002)
(-1.9921e-08 1.12419e-08 -0.00100007)
(-1.78909e-08 1.12237e-08 -0.00100008)
(-1.41886e-08 1.12064e-08 -0.00100009)
(-9.12933e-09 1.11905e-08 -0.00100009)
(-3.15227e-09 1.11587e-08 -0.00100009)
(-2.00007e-08 3.26497e-08 -0.00100007)
(-1.79602e-08 3.2578e-08 -0.00100007)
(-1.42478e-08 3.25156e-08 -0.00100008)
(-9.17264e-09 3.24685e-08 -0.00100008)
(-3.16915e-09 3.23841e-08 -0.00100008)
(-2.01001e-08 5.07869e-08 -0.00100005)
(-1.80607e-08 5.06726e-08 -0.00100006)
(-1.43239e-08 5.05669e-08 -0.00100007)
(-9.21559e-09 5.04931e-08 -0.00100007)
(-3.18188e-09 5.03688e-08 -0.00100007)
(-2.02219e-08 6.38893e-08 -0.00100004)
(-1.81821e-08 6.37915e-08 -0.00100004)
(-1.44251e-08 6.36878e-08 -0.00100005)
(-9.27277e-09 6.36119e-08 -0.00100005)
(-3.19854e-09 6.3463e-08 -0.00100005)
(-2.04397e-08 7.09357e-08 -0.00100001)
(-1.82621e-08 7.07342e-08 -0.00100002)
(-1.44988e-08 7.06279e-08 -0.00100003)
(-9.31566e-09 7.05472e-08 -0.00100003)
(-3.21079e-09 7.03909e-08 -0.00100003)
(-2.70479e-08 1.52786e-08 -0.0010001)
(-2.43222e-08 1.52558e-08 -0.00100011)
(-1.92919e-08 1.52319e-08 -0.00100012)
(-1.2419e-08 1.5212e-08 -0.00100012)
(-4.28948e-09 1.51713e-08 -0.00100012)
(-2.71529e-08 4.43663e-08 -0.00100009)
(-2.4415e-08 4.42882e-08 -0.0010001)
(-1.93712e-08 4.42114e-08 -0.00100011)
(-1.24737e-08 4.4155e-08 -0.00100011)
(-4.30991e-09 4.40466e-08 -0.00100012)
(-2.72718e-08 6.90133e-08 -0.00100007)
(-2.45258e-08 6.88999e-08 -0.00100008)
(-1.94605e-08 6.87769e-08 -0.00100009)
(-1.25223e-08 6.86883e-08 -0.00100009)
(-4.3233e-09 6.85284e-08 -0.0010001)
(-2.74364e-08 8.68791e-08 -0.00100005)
(-2.46541e-08 8.67797e-08 -0.00100006)
(-1.95798e-08 8.66532e-08 -0.00100006)
(-1.25887e-08 8.65488e-08 -0.00100007)
(-4.3405e-09 8.63493e-08 -0.00100007)
(-2.76931e-08 9.65146e-08 -0.00100002)
(-2.47516e-08 9.6232e-08 -0.00100003)
(-1.96849e-08 9.60834e-08 -0.00100004)
(-1.26562e-08 9.5982e-08 -0.00100004)
(-4.35912e-09 9.57676e-08 -0.00100004)
(-3.67064e-08 2.07795e-08 -0.00100014)
(-3.30397e-08 2.07482e-08 -0.00100015)
(-2.62036e-08 2.07171e-08 -0.00100016)
(-1.68656e-08 2.06934e-08 -0.00100017)
(-5.82335e-09 2.06419e-08 -0.00100017)
(-3.68438e-08 6.03447e-08 -0.00100013)
(-3.31651e-08 6.02507e-08 -0.00100014)
(-2.63068e-08 6.01549e-08 -0.00100015)
(-1.69326e-08 6.00862e-08 -0.00100015)
(-5.84713e-09 5.99459e-08 -0.00100016)
(-3.69899e-08 9.38809e-08 -0.0010001)
(-3.3296e-08 9.37553e-08 -0.00100011)
(-2.64163e-08 9.36037e-08 -0.00100012)
(-1.69907e-08 9.34916e-08 -0.00100013)
(-5.86201e-09 9.32795e-08 -0.00100013)
(-3.72242e-08 1.18213e-07 -0.00100007)
(-3.34459e-08 1.18096e-07 -0.00100008)
(-2.65665e-08 1.1794e-07 -0.00100009)
(-1.70747e-08 1.17798e-07 -0.00100009)
(-5.8827e-09 1.17526e-07 -0.0010001)
(-3.76243e-08 1.31429e-07 -0.00100003)
(-3.35689e-08 1.31002e-07 -0.00100004)
(-2.67052e-08 1.30764e-07 -0.00100005)
(-1.71724e-08 1.30615e-07 -0.00100005)
(-5.91079e-09 1.3031e-07 -0.00100006)
(-4.978e-08 2.82767e-08 -0.00100019)
(-4.48195e-08 2.82337e-08 -0.0010002)
(-3.55325e-08 2.81954e-08 -0.00100022)
(-2.28596e-08 2.81672e-08 -0.00100023)
(-7.88905e-09 2.81022e-08 -0.00100023)
(-4.99574e-08 8.21323e-08 -0.00100017)
(-4.49865e-08 8.20034e-08 -0.00100019)
(-3.56648e-08 8.18841e-08 -0.0010002)
(-2.29415e-08 8.17996e-08 -0.00100021)
(-7.91627e-09 8.16155e-08 -0.00100021)
(-5.01395e-08 1.27806e-07 -0.00100014)
(-4.51582e-08 1.27621e-07 -0.00100015)
(-3.58019e-08 1.27425e-07 -0.00100017)
(-2.30137e-08 1.27281e-07 -0.00100017)
(-7.93436e-09 1.26992e-07 -0.00100018)
(-5.04499e-08 1.6096e-07 -0.00100009)
(-4.53725e-08 1.60754e-07 -0.00100011)
(-3.59996e-08 1.60534e-07 -0.00100012)
(-2.31265e-08 1.60341e-07 -0.00100013)
(-7.96434e-09 1.59965e-07 -0.00100013)
(-5.1013e-08 1.78877e-07 -0.00100004)
(-4.55838e-08 1.78336e-07 -0.00100005)
(-3.62024e-08 1.77975e-07 -0.00100006)
(-2.32662e-08 1.77744e-07 -0.00100007)
(-8.00592e-09 1.77306e-07 -0.00100008)
(-6.74728e-08 3.84882e-08 -0.00100026)
(-6.07234e-08 3.84349e-08 -0.00100028)
(-4.81136e-08 3.83894e-08 -0.0010003)
(-3.09339e-08 3.8356e-08 -0.00100031)
(-1.06701e-08 3.82722e-08 -0.00100031)
(-6.77006e-08 1.11807e-07 -0.00100023)
(-6.09388e-08 1.11633e-07 -0.00100025)
(-4.82821e-08 1.11486e-07 -0.00100027)
(-3.10356e-08 1.11382e-07 -0.00100028)
(-1.07023e-08 1.11135e-07 -0.00100029)
(-6.79319e-08 1.74022e-07 -0.00100019)
(-6.11671e-08 1.7373e-07 -0.00100021)
(-4.84542e-08 1.73471e-07 -0.00100023)
(-3.1129e-08 1.73283e-07 -0.00100024)
(-1.07277e-08 1.72883e-07 -0.00100024)
(-6.83215e-08 2.19248e-07 -0.00100012)
(-6.14959e-08 2.18857e-07 -0.00100014)
(-4.87222e-08 2.18512e-07 -0.00100016)
(-3.12855e-08 2.18238e-07 -0.00100017)
(-1.07735e-08 2.17713e-07 -0.00100018)
(-6.89806e-08 2.43326e-07 -0.00100005)
(-6.19028e-08 2.42703e-07 -0.00100007)
(-4.90577e-08 2.42198e-07 -0.00100009)
(-3.14969e-08 2.41842e-07 -0.0010001)
(-1.08372e-08 2.41221e-07 -0.00100011)
(-9.14304e-08 5.239e-08 -0.00100035)
(-8.22086e-08 5.23322e-08 -0.00100038)
(-6.50858e-08 5.22805e-08 -0.0010004)
(-4.18118e-08 5.22427e-08 -0.00100042)
(-1.44142e-08 5.21314e-08 -0.00100043)
(-9.17189e-08 1.52187e-07 -0.00100032)
(-8.24766e-08 1.5198e-07 -0.00100035)
(-6.5297e-08 1.51805e-07 -0.00100037)
(-4.19396e-08 1.51677e-07 -0.00100039)
(-1.44551e-08 1.51341e-07 -0.00100039)
(-9.2014e-08 2.36891e-07 -0.00100026)
(-8.27582e-08 2.36489e-07 -0.00100028)
(-6.55109e-08 2.36149e-07 -0.00100031)
(-4.20621e-08 2.35898e-07 -0.00100032)
(-1.44917e-08 2.35348e-07 -0.00100033)
(-9.25196e-08 2.98562e-07 -0.00100017)
(-8.32271e-08 2.97938e-07 -0.0010002)
(-6.58778e-08 2.97407e-07 -0.00100022)
(-4.22794e-08 2.97008e-07 -0.00100024)
(-1.45578e-08 2.96274e-07 -0.00100025)
(-9.32955e-08 3.31084e-07 -0.00100007)
(-8.39125e-08 3.30245e-07 -0.0010001)
(-6.64185e-08 3.29531e-07 -0.00100012)
(-4.26071e-08 3.28993e-07 -0.00100014)
(-1.46591e-08 3.28116e-07 -0.00100015)
(-1.23894e-07 7.13148e-08 -0.00100048)
(-1.11248e-07 7.12636e-08 -0.00100052)
(-8.79776e-08 7.1214e-08 -0.00100055)
(-5.6463e-08 7.1177e-08 -0.00100057)
(-1.94541e-08 7.10283e-08 -0.00100058)
(-1.24236e-07 2.07136e-07 -0.00100043)
(-1.11565e-07 2.06927e-07 -0.00100047)
(-8.82297e-08 2.06736e-07 -0.0010005)
(-5.66192e-08 2.06588e-07 -0.00100052)
(-1.95064e-08 2.06138e-07 -0.00100054)
(-1.24583e-07 3.2239e-07 -0.00100035)
(-1.11877e-07 3.21914e-07 -0.00100039)
(-8.8482e-08 3.21487e-07 -0.00100042)
(-5.67691e-08 3.21159e-07 -0.00100044)
(-1.95516e-08 3.20411e-07 -0.00100045)
(-1.25262e-07 4.06333e-07 -0.00100023)
(-1.12481e-07 4.05484e-07 -0.00100027)
(-8.89706e-08 4.04736e-07 -0.0010003)
(-5.70645e-08 4.04166e-07 -0.00100032)
(-1.96428e-08 4.03144e-07 -0.00100033)
(-1.26352e-07 4.50672e-07 -0.00100009)
(-1.13473e-07 4.4935e-07 -0.00100013)
(-8.97695e-08 4.48277e-07 -0.00100016)
(-5.75595e-08 4.4746e-07 -0.00100019)
(-1.98013e-08 4.46218e-07 -0.0010002)
(-1.67905e-07 9.70873e-08 -0.00100065)
(-1.50493e-07 9.70709e-08 -0.0010007)
(-1.1883e-07 9.70493e-08 -0.00100074)
(-7.61792e-08 9.70272e-08 -0.00100077)
(-2.62325e-08 9.68357e-08 -0.00100079)
(-1.68252e-07 2.81954e-07 -0.00100059)
(-1.50824e-07 2.81804e-07 -0.00100064)
(-1.19098e-07 2.81647e-07 -0.00100068)
(-7.63513e-08 2.81509e-07 -0.00100071)
(-2.6292e-08 2.80925e-07 -0.00100073)
(-1.68563e-07 4.3874e-07 -0.00100047)
(-1.51111e-07 4.38235e-07 -0.00100052)
(-1.19349e-07 4.37748e-07 -0.00100057)
(-7.65016e-08 4.3735e-07 -0.0010006)
(-2.63343e-08 4.36351e-07 -0.00100061)
(-1.69414e-07 5.52846e-07 -0.00100032)
(-1.51833e-07 5.51759e-07 -0.00100037)
(-1.19964e-07 5.50764e-07 -0.00100041)
(-7.68881e-08 5.49976e-07 -0.00100044)
(-2.64574e-08 5.48561e-07 -0.00100045)
(-1.71058e-07 6.13399e-07 -0.00100013)
(-1.53192e-07 6.11362e-07 -0.00100018)
(-1.21091e-07 6.09707e-07 -0.00100022)
(-7.76099e-08 6.08464e-07 -0.00100025)
(-2.66941e-08 6.06703e-07 -0.00100027)
(-2.2761e-07 1.32207e-07 -0.00100089)
(-2.03524e-07 1.32305e-07 -0.00100096)
(-1.60387e-07 1.32373e-07 -0.00100101)
(-1.0268e-07 1.32406e-07 -0.00100105)
(-3.53329e-08 1.32176e-07 -0.00100107)
(-2.27822e-07 3.83878e-07 -0.0010008)
(-2.03754e-07 3.83958e-07 -0.00100087)
(-1.6059e-07 3.83975e-07 -0.00100093)
(-1.02818e-07 3.83939e-07 -0.00100097)
(-3.53813e-08 3.83215e-07 -0.00100099)
(-2.27867e-07 5.97163e-07 -0.00100065)
(-2.03847e-07 5.96746e-07 -0.00100071)
(-1.6071e-07 5.96302e-07 -0.00100077)
(-1.02892e-07 5.95896e-07 -0.00100081)
(-3.53974e-08 5.9459e-07 -0.00100083)
(-2.28755e-07 7.5224e-07 -0.00100043)
(-2.04638e-07 7.50838e-07 -0.0010005)
(-1.61413e-07 7.49545e-07 -0.00100055)
(-1.03355e-07 7.4849e-07 -0.00100059)
(-3.55491e-08 7.46551e-07 -0.00100061)
(-2.31086e-07 8.3457e-07 -0.00100018)
(-2.06542e-07 8.31611e-07 -0.00100024)
(-1.63002e-07 8.291e-07 -0.0010003)
(-1.04392e-07 8.27218e-07 -0.00100034)
(-3.58963e-08 8.24718e-07 -0.00100036)
(-3.08715e-07 1.80132e-07 -0.00100121)
(-2.75206e-07 1.8053e-07 -0.0010013)
(-2.16344e-07 1.8083e-07 -0.00100138)
(-1.38245e-07 1.81015e-07 -0.00100143)
(-4.75142e-08 1.80769e-07 -0.00100146)
(-3.08448e-07 5.22855e-07 -0.0010011)
(-2.7504e-07 5.23601e-07 -0.00100119)
(-2.16266e-07 5.24128e-07 -0.00100126)
(-1.3822e-07 5.2442e-07 -0.00100132)
(-4.75103e-08 5.23589e-07 -0.00100134)
(-3.07711e-07 8.12934e-07 -0.00100088)
(-2.745e-07 8.12983e-07 -0.00100097)
(-2.15933e-07 8.12876e-07 -0.00100105)
(-1.38033e-07 8.12653e-07 -0.0010011)
(-4.74433e-08 8.11013e-07 -0.00100113)
(-3.08266e-07 1.02358e-06 -0.00100059)
(-2.75129e-07 1.02187e-06 -0.00100068)
(-2.16561e-07 1.02027e-06 -0.00100075)
(-1.38478e-07 1.01893e-06 -0.0010008)
(-4.75938e-08 1.0163e-06 -0.00100083)
(-3.11313e-07 1.13509e-06 -0.00100024)
(-2.77806e-07 1.13085e-06 -0.00100033)
(-2.18798e-07 1.12713e-06 -0.00100041)
(-1.39965e-07 1.1243e-06 -0.00100046)
(-4.81064e-08 1.12072e-06 -0.00100049)
(-4.19156e-07 2.45707e-07 -0.00100165)
(-3.72181e-07 2.46804e-07 -0.00100178)
(-2.91681e-07 2.4765e-07 -0.00100188)
(-1.85892e-07 2.48206e-07 -0.00100195)
(-6.37471e-08 2.48003e-07 -0.00100199)
(-4.17628e-07 7.12722e-07 -0.0010015)
(-3.7095e-07 7.15104e-07 -0.00100162)
(-2.90823e-07 7.16898e-07 -0.00100172)
(-1.85413e-07 7.18032e-07 -0.00100179)
(-6.36046e-08 7.17215e-07 -0.00100183)
(-4.14927e-07 1.10698e-06 -0.0010012)
(-3.68768e-07 1.10848e-06 -0.00100132)
(-2.89302e-07 1.10944e-06 -0.00100142)
(-1.84536e-07 1.10988e-06 -0.00100149)
(-6.33243e-08 1.10795e-06 -0.00100153)
(-4.14285e-07 1.39252e-06 -0.0010008)
(-3.68534e-07 1.39089e-06 -0.00100092)
(-2.89371e-07 1.3892e-06 -0.00100102)
(-1.84702e-07 1.38767e-06 -0.00100109)
(-6.34028e-08 1.38415e-06 -0.00100112)
(-4.18001e-07 1.54324e-06 -0.00100033)
(-3.7209e-07 1.5371e-06 -0.00100045)
(-2.92425e-07 1.53165e-06 -0.00100055)
(-1.86802e-07 1.5274e-06 -0.00100062)
(-6.41536e-08 1.52222e-06 -0.00100066)
(-5.70074e-07 3.35818e-07 -0.00100225)
(-5.03625e-07 3.38473e-07 -0.00100243)
(-3.93198e-07 3.40534e-07 -0.00100256)
(-2.49621e-07 3.41934e-07 -0.00100266)
(-8.51951e-08 3.41903e-07 -0.00100271)
(-5.65579e-07 9.72981e-07 -0.00100204)
(-4.99851e-07 9.79109e-07 -0.00100221)
(-3.90452e-07 9.83783e-07 -0.00100234)
(-2.48055e-07 9.86899e-07 -0.00100244)
(-8.47434e-08 9.86375e-07 -0.00100248)
(-5.58301e-07 1.5083e-06 -0.00100164)
(-4.93841e-07 1.51347e-06 -0.0010018)
(-3.86136e-07 1.51714e-06 -0.00100193)
(-2.45584e-07 1.51936e-06 -0.00100202)
(-8.40095e-08 1.51729e-06 -0.00100206)
(-5.54473e-07 1.8939e-06 -0.00100109)
(-4.91064e-07 1.89351e-06 -0.00100124)
(-3.84493e-07 1.89244e-06 -0.00100137)
(-2.44893e-07 1.89113e-06 -0.00100146)
(-8.38982e-08 1.88647e-06 -0.00100151)
(-5.58594e-07 2.09677e-06 -0.00100045)
(-4.95293e-07 2.08795e-06 -0.00100061)
(-3.88378e-07 2.07995e-06 -0.00100073)
(-2.47751e-07 2.07359e-06 -0.00100083)
(-8.4993e-08 2.06593e-06 -0.00100087)
(-7.77261e-07 4.60488e-07 -0.00100308)
(-6.82402e-07 4.66573e-07 -0.00100332)
(-5.30471e-07 4.71208e-07 -0.00100351)
(-3.34765e-07 4.74523e-07 -0.00100364)
(-1.12895e-07 4.74872e-07 -0.0010037)
(-7.66196e-07 1.33167e-06 -0.00100278)
(-6.72902e-07 1.34616e-06 -0.00100301)
(-5.23446e-07 1.35701e-06 -0.00100319)
(-3.30788e-07 1.36469e-06 -0.00100332)
(-1.11863e-07 1.36487e-06 -0.00100338)
(-7.48858e-07 2.05749e-06 -0.00100223)
(-6.58406e-07 2.07125e-06 -0.00100244)
(-5.1289e-07 2.081e-06 -0.00100261)
(-3.24873e-07 2.08758e-06 -0.00100273)
(-1.10342e-07 2.08547e-06 -0.00100278)
(-7.37476e-07 2.57511e-06 -0.00100148)
(-6.49467e-07 2.57871e-06 -0.00100168)
(-5.07021e-07 2.57995e-06 -0.00100184)
(-3.22178e-07 2.58006e-06 -0.00100196)
(-1.09956e-07 2.57369e-06 -0.00100201)
(-7.41087e-07 2.84554e-06 -0.00100062)
(-6.53569e-07 2.83319e-06 -0.00100082)
(-5.11348e-07 2.8214e-06 -0.00100098)
(-3.25909e-07 2.8119e-06 -0.00100109)
(-1.11667e-07 2.80018e-06 -0.00100115)
(-1.06341e-06 6.34709e-07 -0.00100422)
(-9.26921e-07 6.48455e-07 -0.00100456)
(-7.17822e-07 6.5826e-07 -0.00100481)
(-4.4862e-07 6.6608e-07 -0.00100501)
(-1.46106e-07 6.66863e-07 -0.00100507)
(-1.03839e-06 1.83023e-06 -0.0010038)
(-9.04904e-07 1.86349e-06 -0.00100412)
(-7.01356e-07 1.88675e-06 -0.00100435)
(-4.39494e-07 1.90534e-06 -0.00100454)
(-1.4433e-07 1.90608e-06 -0.00100459)
(-9.99675e-07 2.81218e-06 -0.00100303)
(-8.72136e-07 2.84555e-06 -0.0010033)
(-6.77189e-07 2.86766e-06 -0.00100351)
(-4.26397e-07 2.88494e-06 -0.00100368)
(-1.42018e-07 2.88182e-06 -0.00100374)
(-9.7154e-07 3.50026e-06 -0.00100201)
(-8.49519e-07 3.51429e-06 -0.00100225)
(-6.61825e-07 3.52102e-06 -0.00100245)
(-4.19605e-07 3.52605e-06 -0.0010026)
(-1.41869e-07 3.51608e-06 -0.00100266)
(-9.72334e-07 3.85388e-06 -0.00100085)
(-8.51375e-07 3.83748e-06 -0.00100108)
(-6.65164e-07 3.81963e-06 -0.00100128)
(-4.24172e-07 3.80579e-06 -0.00100142)
(-1.4505e-07 3.78652e-06 -0.0010015)
(-1.46135e-06 8.80991e-07 -0.00100579)
(-1.26434e-06 9.13037e-07 -0.00100633)
(-9.79025e-07 9.32091e-07 -0.0010066)
(-6.02238e-07 9.51493e-07 -0.00100696)
(-1.74756e-07 9.51178e-07 -0.00100696)
(-1.40778e-06 2.5313e-06 -0.00100519)
(-1.21504e-06 2.60915e-06 -0.00100566)
(-9.41942e-07 2.65408e-06 -0.00100591)
(-5.82237e-07 2.70156e-06 -0.00100623)
(-1.73563e-07 2.69789e-06 -0.00100624)
(-1.32429e-06 3.85506e-06 -0.00100409)
(-1.14371e-06 3.93489e-06 -0.00100446)
(-8.88133e-07 3.97794e-06 -0.00100469)
(-5.54184e-07 4.02411e-06 -0.00100494)
(-1.73535e-07 4.01208e-06 -0.00100497)
(-1.26025e-06 4.75479e-06 -0.0010027)
(-1.09229e-06 4.79574e-06 -0.001003)
(-8.52533e-07 4.81201e-06 -0.00100322)
(-5.40076e-07 4.83333e-06 -0.00100342)
(-1.77691e-07 4.81207e-06 -0.00100348)
(-1.25376e-06 5.20042e-06 -0.00100114)
(-1.08649e-06 5.18183e-06 -0.00100141)
(-8.50184e-07 5.15197e-06 -0.00100163)
(-5.44232e-07 5.1337e-06 -0.0010018)
(-1.85122e-07 5.09735e-06 -0.00100189)
(-2.01802e-06 1.23015e-06 -0.00100786)
(-1.73716e-06 1.31249e-06 -0.00100893)
(-1.35602e-06 1.34265e-06 -0.00100903)
(-8.20142e-07 1.39472e-06 -0.00100986)
(-1.51997e-07 1.38529e-06 -0.00100959)
(-1.9092e-06 3.52742e-06 -0.00100703)
(-1.6265e-06 3.72615e-06 -0.00100789)
(-1.27523e-06 3.7923e-06 -0.00100798)
(-7.75829e-07 3.92675e-06 -0.00100869)
(-1.58941e-07 3.89214e-06 -0.00100847)
(-1.73206e-06 5.30269e-06 -0.00100546)
(-1.47477e-06 5.50549e-06 -0.00100603)
(-1.15717e-06 5.56341e-06 -0.00100616)
(-7.13796e-07 5.69928e-06 -0.00100663)
(-1.78957e-07 5.63866e-06 -0.00100652)
(-1.5907e-06 6.44841e-06 -0.00100359)
(-1.36593e-06 6.56493e-06 -0.00100396)
(-1.08115e-06 6.58523e-06 -0.00100412)
(-6.89028e-07 6.66506e-06 -0.00100445)
(-2.07796e-07 6.60129e-06 -0.00100447)
(-1.57026e-06 6.96704e-06 -0.0010015)
(-1.33793e-06 6.96195e-06 -0.00100176)
(-1.05654e-06 6.89727e-06 -0.00100195)
(-6.83877e-07 6.88229e-06 -0.00100215)
(-2.28866e-07 6.79873e-06 -0.00100223)