FoamFile
{version 2.0; format ascii;class Cloud<passiveParticle>; location 0;object  positions;}
344
(
( 1.96268 -0.814734 0.499618 ) 0 
( 3.20549 -2.12563 0.499622 ) 0 
( 0.265656 -1.42505 0.499907 ) 0 
( 1.28078 -1.54655 0.499921 ) 0 
( 0.161217 -3.71767 0.499967 ) 0 
( 4.64675 -3.15766 0.499943 ) 0 
( 0.953519 -0.601665 0.499929 ) 0 
( 1.32037 -3.07967 0.499793 ) 0 
( 4.0773 -3.97969 0.499973 ) 0 
( 1.58992 -4.98566 0.499883 ) 0 
( 3.23558 -4.88781 0.499697 ) 0 
( 3.92408 -0.825223 0.499834 ) 0 
( 0.119907 -4.94617 0.4996 ) 0 
( 2.86046 -3.62224 0.499539 ) 0 
( 0.626853 -2.35941 0.499766 ) 0 
( 2.33551 -2.61835 0.499641 ) 0 
( 3.65686 -3.01792 0.499644 ) 0 
( 3.94448 -1.32508 1.36538 ) 0 
( 4.92396 -0.807759 0.499977 ) 0 
( 2.98348 -2.86031 1.22142 ) 0 
( 2.96903 -1.15411 0.499936 ) 0 
( 2.22386 -1.70111 0.881317 ) 0 
( 0.217616 -2.7289 1.33369 ) 0 
( 2.74095 -0.180603 0.499518 ) 0 
( 2.38391 -4.45179 0.790315 ) 0 
( 1.59357 -0.195214 1.19198 ) 0 
( 2.07565 -3.39355 1.07485 ) 0 
( 0.0524153 -0.547819 0.92995 ) 0 
( 0.820394 -3.52219 1.2511 ) 0 
( 1.40267 -2.31062 1.13328 ) 0 
( 0.764201 -4.75442 1.23946 ) 0 
( 4.25587 -1.76841 0.499755 ) 0 
( 1.18708 -4.07063 0.499834 ) 0 
( 4.58095 -4.03621 1.36336 ) 0 
( 4.49195 -0.0936939 1.05612 ) 0 
( 3.8678 -2.35068 1.21369 ) 0 
( 3.38139 -4.09668 1.20849 ) 0 
( 0.726521 -1.15792 1.34612 ) 0 
( 1.55741 -3.01589 1.84162 ) 0 
( 2.50761 -0.688714 1.32816 ) 0 
( 3.06409 -1.794 1.43202 ) 0 
( 2.24077 -2.30467 1.67836 ) 0 
( 1.55809 -4.17496 1.42242 ) 0 
( 1.14279 -0.514214 2.0256 ) 0 
( 3.17726 -0.985078 2.00849 ) 0 
( 0.7646 -2.08585 1.86944 ) 0 
( 2.14211 -0.0637051 2.01754 ) 0 
( 4.86692 -1.39341 1.74458 ) 0 
( 3.91424 -3.30518 1.50743 ) 0 
( 2.94525 -4.96826 1.45282 ) 0 
( 0.377043 -4.36205 2.07352 ) 0 
( 4.55925 -3.68578 2.29992 ) 0 
( 1.69694 -1.2171 1.57971 ) 0 
( 2.51069 -4.04621 1.69729 ) 0 
( 1.25942 -4.84306 2.10358 ) 0 
( 4.47893 -2.27854 2.00137 ) 0 
( 0.148394 -0.48915 1.92334 ) 0 
( 1.63034 -2.23958 2.46756 ) 0 
( 0.586946 -0.401486 2.86263 ) 0 
( 3.94254 -4.65928 1.81485 ) 0 
( 3.55142 -3.85404 2.26033 ) 0 
( 2.74198 -1.80378 2.3837 ) 0 
( 2.59917 -3.13634 2.10224 ) 0 
( 3.37749 -2.50942 2.07038 ) 0 
( 1.1975 -3.83366 2.29031 ) 0 
( 0.283833 -3.73311 2.84532 ) 0 
( 2.6959 -0.490775 2.73226 ) 0 
( 4.76153 -0.422886 1.96058 ) 0 
( 1.65743 -1.24632 2.57827 ) 0 
( 4.07353 -2.89636 2.67507 ) 0 
( 0.451899 -1.30654 2.41207 ) 0 
( 3.35719 -2.25058 3.03551 ) 0 
( 0.697654 -2.96971 2.3494 ) 0 
( 4.93447 -0.681421 2.91035 ) 0 
( 0.726149 -2.13536 2.89908 ) 0 
( 4.29099 -1.91503 2.91343 ) 0 
( 2.21241 -1.92696 3.22283 ) 0 
( 3.66948 -0.210021 1.61263 ) 0 
( 4.13957 -1.09486 2.36217 ) 0 
( 2.93225 -4.6279 2.39263 ) 0 
( 1.87096 -3.15592 2.78712 ) 0 
( 3.15572 -3.22408 2.92841 ) 0 
( 2.10359 -4.11174 2.6082 ) 0 
( 0.944649 -1.23705 3.27922 ) 0 
( 0.109978 -2.64931 3.49548 ) 0 
( 4.27795 -4.87058 2.73253 ) 0 
( 2.60123 -3.87793 3.44314 ) 0 
( 3.50305 -4.43408 3.1903 ) 0 
( 1.02264 -3.00458 3.2942 ) 0 
( 1.07285 -4.32018 3.15497 ) 0 
( 4.00029 -3.59494 3.40968 ) 0 
( 4.80295 -4.14077 3.16984 ) 0 
( 3.35064 -1.25393 2.95541 ) 0 
( 1.72605 -0.300544 2.89524 ) 0 
( 4.06136 -2.62378 3.63924 ) 0 
( 3.72751 -0.306542 2.81867 ) 0 
( 0.103928 -4.57687 3.51323 ) 0 
( 0.24777 -1.71544 3.82566 ) 0 
( 3.13812 -0.61583 3.69523 ) 0 
( 4.91797 -3.23454 3.57596 ) 0 
( 3.02118 -1.69042 3.79216 ) 0 
( 4.19897 -4.44039 3.90832 ) 0 
( 0.498195 -3.63968 3.86113 ) 0 
( 4.14726 -0.93869 3.4703 ) 0 
( 1.14599 -2.15443 3.80633 ) 0 
( 1.64823 -3.68307 3.67863 ) 0 
( 2.26263 -0.136824 3.75729 ) 0 
( 0.683827 -0.695343 4.07773 ) 0 
( 0.354499 -2.48797 4.45144 ) 0 
( 4.76657 -2.61761 4.34812 ) 0 
( 3.80762 -1.2152 4.36922 ) 0 
( 2.01283 -4.59865 3.84667 ) 0 
( 3.01368 -2.76239 3.82256 ) 0 
( 2.01661 -2.75599 3.74644 ) 0 
( 1.88679 -1.03968 3.54916 ) 0 
( 1.11735 -4.34271 4.21058 ) 0 
( 0.0437994 -4.31313 4.47578 ) 0 
( 4.527 -1.77068 3.87396 ) 0 
( 3.18844 -4.23173 4.17079 ) 0 
( 1.17518 -3.03351 4.28184 ) 0 
( 3.93418 -0.0206286 3.80351 ) 0 
( 2.49922 -1.03666 4.3394 ) 0 
( 1.94799 -3.9498 4.60476 ) 0 
( 4.6859 -3.69195 4.43419 ) 0 
( 2.78329 -3.40249 4.55515 ) 0 
( 3.61174 -2.19435 4.42235 ) 0 
( 4.63675 -0.567782 4.25929 ) 0 
( 3.74975 -3.20607 4.39002 ) 0 
( 3.06125 -2.6343 5.13175 ) 0 
( 0.711785 -1.49128 4.68228 ) 0 
( 3.87426 -4.06902 4.87964 ) 0 
( 3.04836 -1.57969 4.97446 ) 0 
( 1.78324 -4.93802 4.75854 ) 0 
( 2.35485 -0.527017 5.18734 ) 0 
( 3.23591 -0.462759 4.69623 ) 0 
( 1.96197 -2.94241 4.89196 ) 0 
( 4.68774 -1.74818 4.8603 ) 0 
( 1.61598 -0.574991 4.41862 ) 0 
( 2.75599 -4.75736 4.90328 ) 0 
( 1.67697 -1.59585 4.44336 ) 0 
( 2.47043 -2.20416 4.4494 ) 0 
( 0.708992 -3.68469 4.88044 ) 0 
( 4.12896 -0.613809 5.11929 ) 0 
( 1.35853 -1.01573 5.2784 ) 0 
( 1.5426 -3.64342 5.46821 ) 0 
( 3.28203 -4.33364 5.64055 ) 0 
( 0.0907219 -4.69857 5.39716 ) 0 
( 1.18489 -2.31959 4.98236 ) 0 
( 1.91161 -2.82259 5.90412 ) 0 
( 4.48978 -3.07266 5.19422 ) 0 
( 3.57918 -3.38337 5.5446 ) 0 
( 3.21127 -0.836544 5.62337 ) 0 
( 1.4911 -0.0251456 5.24548 ) 0 
( 2.05892 -1.98419 5.33361 ) 0 
( 4.72201 -4.02149 5.40769 ) 0 
( 1.26996 -2.05683 5.94345 ) 0 
( 2.83301 -0.507523 6.48871 ) 0 
( 0.538938 -0.0590956 5.60931 ) 0 
( 2.19642 -4.3799 5.64074 ) 0 
( 2.58267 -3.46399 5.53275 ) 0 
( 0.790428 -2.99769 5.60244 ) 0 
( 3.9352 -2.47831 5.77617 ) 0 
( 3.91984 -1.52936 5.462 ) 0 
( 2.92893 -1.75119 5.95226 ) 0 
( 0.536985 -1.43676 5.66506 ) 0 
( 4.08909 -4.04476 6.18129 ) 0 
( 4.94257 -1.03816 5.51643 ) 0 
( 1.01177 -3.81338 6.29811 ) 0 
( 1.0692 -4.51101 5.31301 ) 0 
( 2.11516 -1.17136 5.91327 ) 0 
( 1.60725 -0.353284 6.18286 ) 0 
( 2.48781 -4.943 6.41387 ) 0 
( 3.55616 -1.19777 6.50012 ) 0 
( 4.6483 -0.0806604 5.78671 ) 0 
( 1.1035 -4.80849 6.26692 ) 0 
( 2.08577 -1.96949 6.51468 ) 0 
( 3.77211 -3.15101 6.49773 ) 0 
( 0.33421 -2.31195 6.18688 ) 0 
( 1.19094 -1.22768 6.49664 ) 0 
( 0.130639 -3.34104 6.31016 ) 0 
( 2.27134 -2.89592 6.84152 ) 0 
( 2.94438 -2.73691 6.11941 ) 0 
( 4.81412 -1.98073 5.82438 ) 0 
( 1.13755 -2.85071 6.53656 ) 0 
( 0.202359 -4.39201 6.3944 ) 0 
( 2.08194 -1.02235 6.90141 ) 0 
( 0.872317 -3.51428 7.242 ) 0 
( 3.76804 -0.190485 6.6465 ) 0 
( 2.00499 -3.7493 6.39268 ) 0 
( 0.676839 -0.371679 6.54887 ) 0 
( 1.58958 -1.7414 7.3915 ) 0 
( 4.49142 -0.861725 6.39096 ) 0 
( 1.8979 -3.63937 7.39588 ) 0 
( 3.57705 -2.18418 6.66192 ) 0 
( 2.8456 -1.64352 7.0768 ) 0 
( 4.5891 -2.58234 6.5905 ) 0 
( 0.433967 -1.1933 7.28403 ) 0 
( 3.43496 -4.67825 6.59442 ) 0 
( 0.719356 -2.13214 7.09194 ) 0 
( 2.84291 -0.731785 7.48713 ) 0 
( 2.72066 -4.47461 7.26603 ) 0 
( 0.788566 -4.53451 7.19166 ) 0 
( 4.6978 -0.113558 7.02124 ) 0 
( 4.07106 -0.850078 7.3339 ) 0 
( 4.79925 -4.54612 6.67523 ) 0 
( 4.54931 -1.66425 6.98451 ) 0 
( 3.0034 -3.78669 6.42983 ) 0 
( 1.76263 -4.53187 6.96598 ) 0 
( 3.61221 -3.91285 7.21298 ) 0 
( 1.4386 -2.72574 7.4818 ) 0 
( 0.49963 -2.78831 7.81988 ) 0 
( 1.2608 -0.632183 7.31745 ) 0 
( 2.08505 -0.0564662 7.44291 ) 0 
( 4.39929 -3.29805 7.26237 ) 0 
( 3.18046 -2.88251 7.25752 ) 0 
( 3.52346 -1.54136 7.80481 ) 0 
( 4.06564 -2.36545 7.51509 ) 0 
( 1.56282 -1.71597 8.39071 ) 0 
( 1.23336 -4.10699 7.97845 ) 0 
( 1.97812 -0.907118 7.95751 ) 0 
( 4.61106 -4.21512 7.59964 ) 0 
( 3.58412 -0.171461 7.90073 ) 0 
( 2.37416 -2.75036 7.83369 ) 0 
( 1.20677 -2.64189 8.51582 ) 0 
( 1.81292 -4.96728 7.86459 ) 0 
( 4.61258 -1.67098 7.98233 ) 0 
( 0.434726 -3.63402 8.35017 ) 0 
( 2.48134 -1.77012 7.99929 ) 0 
( 0.977278 -0.921171 8.23173 ) 0 
( 0.266676 -0.125967 8.27909 ) 0 
( 1.83627 -3.40399 8.36573 ) 0 
( 1.71184 -0.881393 8.92099 ) 0 
( 4.22531 -4.64502 8.41574 ) 0 
( 1.19107 -4.75877 8.73547 ) 0 
( 4.22186 -0.815738 8.32223 ) 0 
( 4.48133 -2.9409 8.21908 ) 0 
( 3.28471 -2.44804 8.15198 ) 0 
( 0.351493 -4.59581 8.08891 ) 0 
( 1.1516 -1.74902 9.30156 ) 0 
( 2.83575 -3.64245 7.8083 ) 0 
( 0.576106 -1.86666 8.48455 ) 0 
( 0.0933777 -4.0594 9.18825 ) 0 
( 1.78284 -2.86823 9.3012 ) 0 
( 0.0811567 -1.95239 9.36505 ) 0 
( 0.45282 -1.07017 9.07624 ) 0 
( 2.2688 -1.98132 9.0472 ) 0 
( 1.72647 -4.02049 9.1452 ) 0 
( 2.32034 -4.27863 8.38221 ) 0 
( 2.64181 -2.87249 8.78933 ) 0 
( 0.256214 -2.76024 8.80241 ) 0 
( 3.77091 -3.64235 8.16248 ) 0 
( 3.15342 -1.64137 8.7283 ) 0 
( 2.82521 -0.685282 8.48575 ) 0 
( 0.967864 -0.217212 8.99342 ) 0 
( 3.2785 -4.41088 8.63578 ) 0 
( 1.15091 -0.850162 9.75744 ) 0 
( 4.90756 -4.63833 9.17993 ) 0 
( 3.35453 -2.06794 9.60994 ) 0 
( 0.944168 -3.39853 9.1776 ) 0 
( 4.16623 -1.62617 8.90525 ) 0 
( 3.59738 -0.828384 9.10473 ) 0 
( 2.19057 -3.9067 10.0235 ) 0 
( 4.60271 -3.78077 8.74784 ) 0 
( 2.70021 -3.79495 9.17056 ) 0 
( 2.84907 -3.0004 9.75915 ) 0 
( 4.68026 -0.82475 9.21074 ) 0 
( 3.88578 -2.58531 8.9392 ) 0 
( 0.777188 -2.57593 9.721 ) 0 
( 3.66494 -3.53213 9.17249 ) 0 
( 0.586723 -1.63351 10.1666 ) 0 
( 2.61149 -1.09931 9.37045 ) 0 
( 4.08092 -0.233409 9.75021 ) 0 
( 1.83557 -2.10107 9.94044 ) 0 
( 2.07324 -0.70623 10.1158 ) 0 
( 4.46059 -2.20653 9.66447 ) 0 
( 0.986416 -4.38955 9.70722 ) 0 
( 0.126624 -0.767377 9.97162 ) 0 
( 0.0764766 -4.74013 9.92836 ) 0 
( 1.31784 -3.42534 10.1046 ) 0 
( 4.58631 -3.53992 9.71816 ) 0 
( 3.96395 -4.44535 9.44871 ) 0 
( 4.07296 -1.30133 9.84637 ) 0 
( 3.2424 -3.99301 9.98696 ) 0 
( 3.18851 -0.59837 10.0154 ) 0 
( 1.45855 -1.35255 10.5677 ) 0 
( 3.82836 -2.9263 9.95106 ) 0 
( 1.2954 -0.237893 10.5347 ) 0 
( 2.14937 -3.0206 10.4849 ) 0 
( 0.365693 -3.84777 10.2744 ) 0 
( 3.86948 -2.05852 10.467 ) 0 
( 2.76442 -2.23687 10.3993 ) 0 
( 3.64192 -4.85352 10.3029 ) 0 
( 4.24244 -0.638892 10.6498 ) 0 
( 2.65364 -4.78087 10.169 ) 0 
( 3.47283 -1.23625 10.8749 ) 0 
( 0.0922123 -1.54398 11.1043 ) 0 
( 3.20308 -3.25388 10.6593 ) 0 
( 1.92437 -2.15705 10.936 ) 0 
( 3.28023 -4.222 10.9886 ) 0 
( 0.152032 -4.34723 11.1139 ) 0 
( 1.74399 -3.82784 10.9147 ) 0 
( 0.656321 -3.00367 10.7247 ) 0 
( 2.48556 -1.34789 10.7624 ) 0 
( 4.06007 -3.79785 10.5283 ) 0 
( 0.928704 -2.08189 11.0003 ) 0 
( 1.85176 -0.778996 11.2863 ) 0 
( 3.30608 -2.37845 11.2286 ) 0 
( 1.0465 -4.51077 10.6979 ) 0 
( 4.6848 -4.47582 10.1411 ) 0 
( 0.456334 -0.633625 10.9079 ) 0 
( 4.62025 -1.28631 11.3115 ) 0 
( 1.02091 -3.89217 11.6024 ) 0 
( 2.52935 -3.84866 11.5333 ) 0 
( 3.8212 -3.48395 11.4472 ) 0 
( 4.91834 -3.70993 11.7076 ) 0 
( 1.46084 -2.95711 11.3167 ) 0 
( 2.56813 -1.83658 11.6309 ) 0 
( 1.37435 -1.54506 11.7166 ) 0 
( 2.82953 -0.549389 11.2563 ) 0 
( 3.4803 -4.95325 11.6407 ) 0 
( 4.85819 -1.9436 10.5624 ) 0 
( 2.1086 -4.96918 10.986 ) 0 
( 4.31671 -2.87807 10.8249 ) 0 
( 2.44992 -2.85656 11.4244 ) 0 
( 4.13662 -4.27508 11.9712 ) 0 
( 4.55562 -2.2511 11.5663 ) 0 
( 0.302579 -3.20088 11.6801 ) 0 
( 2.26531 -0.244845 12.0236 ) 0 
( 1.82819 -2.37467 12.0418 ) 0 
( 4.03751 -0.482085 11.6159 ) 0 
( 0.171559 -4.10721 12.0844 ) 0 
( 0.348834 -2.2098 11.8049 ) 0 
( 3.75421 -2.48685 12.116 ) 0 
( 1.81469 -3.45269 12.1099 ) 0 
( 3.77406 -1.54644 11.7766 ) 0 
( 4.28495 -4.62348 11.0457 ) 0 
( 3.00657 -1.00927 12.1264 ) 0 
( 0.469801 -1.28874 12.1749 ) 0 
( 2.04474 -1.16303 12.3527 ) 0 
( 3.094 -3.23738 12.0878 ) 0 
( 0.99382 -0.552228 11.7472 ) 0 
( 4.43485 -1.83711 12.4686 ) 0 
( 1.31269 -4.84862 11.6007 ) 0 
( 1.77496 -4.41614 12.3748 ) 0 
)
