FoamFile
{version 2.0; format ascii;class vectorField; location 0;object  v;}
344
(
( -2.53974e-06 9.49707e-06 1.23466e-06 )  
( 2.25558e-07 6.21428e-06 -4.43876e-07 )  
( -2.84806e-06 7.97492e-06 1.13752e-06 )  
( -9.47469e-07 4.52527e-06 7.42433e-07 )  
( -3.19629e-06 1.24744e-05 7.89428e-08 )  
( 7.01136e-08 6.01357e-06 -4.69525e-07 )  
( -1.16567e-06 5.21912e-06 1.21381e-06 )  
( -1.31552e-06 5.30913e-06 6.00248e-07 )  
( -2.77447e-07 5.86834e-06 4.88249e-07 )  
( 4.53141e-08 3.95283e-06 -8.50411e-07 )  
( 1.3067e-06 7.68151e-06 -5.26804e-07 )  
( 9.29087e-07 4.13114e-06 -1.21845e-06 )  
( -1.51755e-07 1.15628e-05 -1.18292e-06 )  
( -1.50652e-06 6.21743e-06 5.52359e-07 )  
( 1.5296e-05 1.68744e-05 -1.24234e-06 )  
( -1.00403e-06 8.29197e-06 -3.45818e-07 )  
( -9.14597e-07 4.4005e-06 2.28157e-06 )  
( 3.14376e-06 1.37513e-05 1.04716e-06 )  
( -1.00755e-07 3.34273e-06 -3.65037e-13 )  
( -8.89634e-07 1.55653e-05 3.53924e-06 )  
( -2.27885e-08 4.24042e-06 -6.90443e-08 )  
( 5.41661e-07 9.84112e-06 6.02501e-07 )  
( 1.0659e-05 2.79066e-05 2.66828e-07 )  
( -1.30495e-07 7.23684e-06 -6.50291e-07 )  
( 3.14414e-07 4.15331e-06 1.01008e-06 )  
( -1.26879e-06 1.66391e-05 -1.29325e-06 )  
( 8.41176e-07 1.318e-05 1.78683e-06 )  
( -2.1035e-07 1.30397e-05 7.98822e-07 )  
( 2.40036e-06 1.88314e-05 -6.99478e-06 )  
( 2.503e-06 8.52934e-06 1.2099e-06 )  
( -1.70859e-07 2.0282e-05 -2.72341e-06 )  
( -1.43423e-06 4.41364e-06 -1.50769e-06 )  
( 2.2767e-06 6.64653e-06 1.08378e-07 )  
( 2.21621e-06 1.88227e-05 -3.31064e-06 )  
( 2.76689e-06 1.68125e-05 2.98307e-06 )  
( -1.40936e-06 1.47697e-05 7.88e-07 )  
( -1.35335e-06 1.78981e-05 4.08807e-06 )  
( 7.97774e-07 9.03681e-06 -3.54018e-06 )  
( 2.25617e-06 1.82413e-05 2.29195e-06 )  
( -1.95066e-06 1.36124e-05 1.19015e-07 )  
( 3.74412e-06 1.25713e-05 1.27261e-06 )  
( 2.71233e-06 1.63345e-05 1.81554e-06 )  
( -6.01524e-08 1.81516e-05 1.2887e-06 )  
( 3.90703e-07 1.1686e-05 -1.70129e-06 )  
( 1.6132e-06 1.87989e-05 -3.37081e-06 )  
( 1.06732e-05 2.18566e-05 6.54292e-06 )  
( 1.50911e-06 2.10021e-05 -9.29861e-07 )  
( 1.99228e-06 2.50062e-05 4.18291e-06 )  
( 3.08609e-06 1.87794e-05 -1.34972e-06 )  
( 8.61046e-07 2.0433e-05 5.025e-07 )  
( -1.24412e-06 2.40833e-05 -4.45543e-06 )  
( -2.05064e-06 2.78473e-05 -1.07818e-05 )  
( -6.73408e-07 1.21319e-05 -7.99208e-07 )  
( -7.72233e-07 2.18013e-05 2.50105e-06 )  
( -3.31177e-06 2.24991e-05 -1.65888e-06 )  
( -1.24429e-06 2.46705e-05 1.35612e-06 )  
( -6.71255e-08 2.16137e-05 6.87036e-07 )  
( 6.9122e-06 2.28693e-05 3.66367e-06 )  
( 4.6727e-06 3.05457e-05 2.10968e-06 )  
( 3.36674e-06 2.3705e-05 1.39467e-06 )  
( 2.71592e-06 2.49812e-05 -1.32375e-06 )  
( -6.9069e-07 2.96439e-05 -1.05511e-06 )  
( 3.41858e-06 2.02481e-05 5.24275e-06 )  
( 1.58868e-07 2.58941e-05 1.21973e-06 )  
( -1.46317e-06 2.12584e-05 -9.3424e-08 )  
( -1.63679e-07 2.2601e-05 -1.47101e-07 )  
( 3.39068e-06 2.1773e-05 1.5005e-06 )  
( 4.34251e-06 2.60206e-05 2.7024e-06 )  
( -6.20484e-07 2.57303e-05 -1.08495e-06 )  
( -1.75302e-06 2.29286e-05 -1.25537e-06 )  
( 5.06861e-06 2.74708e-05 8.11471e-08 )  
( -3.0074e-07 3.46307e-05 -1.26374e-07 )  
( 1.54023e-06 2.61152e-05 4.001e-07 )  
( 5.2857e-06 3.46628e-05 1.7322e-06 )  
( 4.17863e-06 2.93602e-05 -9.64575e-07 )  
( -1.51208e-07 3.18388e-05 -6.31547e-07 )  
( 5.24022e-07 3.53973e-05 1.06377e-06 )  
( 1.13528e-06 1.52435e-05 -3.6457e-06 )  
( 3.59339e-06 2.90346e-05 5.26139e-07 )  
( 1.79343e-06 2.58864e-05 -7.32244e-07 )  
( 4.19432e-06 2.2934e-05 4.35382e-06 )  
( -4.23679e-06 3.2539e-05 -7.252e-06 )  
( -1.50131e-06 2.19982e-05 1.09818e-06 )  
( 2.3855e-06 3.03203e-05 1.37731e-06 )  
( 2.26703e-06 3.45888e-05 -2.13148e-06 )  
( 2.05491e-06 2.6553e-05 -6.54682e-07 )  
( -2.28673e-06 3.33593e-05 -2.41696e-06 )  
( -7.69145e-07 3.48526e-05 -3.99482e-08 )  
( 3.97966e-06 3.25334e-05 1.46421e-06 )  
( -5.04593e-06 2.26907e-05 -2.07276e-06 )  
( -7.17726e-07 3.70126e-05 -1.18818e-06 )  
( -2.62298e-06 3.19724e-05 -2.70102e-07 )  
( 3.38354e-06 3.35433e-05 -2.3491e-06 )  
( -5.68664e-06 2.88072e-05 -3.02802e-06 )  
( 1.34367e-06 3.76402e-05 -5.03945e-07 )  
( 7.70406e-06 2.82284e-05 2.42187e-06 )  
( 9.97229e-06 4.91818e-05 -1.06982e-05 )  
( 2.548e-06 3.5632e-05 -1.54945e-06 )  
( -7.32838e-08 3.41876e-05 -1.03356e-06 )  
( 1.73072e-06 3.46599e-05 -3.99998e-06 )  
( 3.16436e-06 4.06425e-05 -1.1883e-06 )  
( -6.96912e-07 3.61768e-05 8.51465e-07 )  
( 3.72771e-06 3.25059e-05 8.18744e-07 )  
( 2.00962e-06 3.84852e-05 -9.06223e-08 )  
( 2.48019e-06 3.75686e-05 -3.90747e-07 )  
( 5.24478e-06 3.66383e-05 5.28269e-06 )  
( 1.18333e-06 3.779e-05 -1.36593e-06 )  
( 2.83372e-06 4.07637e-05 -2.29955e-06 )  
( 1.75587e-06 3.97885e-05 -7.74613e-07 )  
( 5.4445e-06 4.15135e-05 -4.65386e-06 )  
( 3.17834e-06 4.11734e-05 -2.70202e-07 )  
( 9.73201e-07 3.40883e-05 -2.47371e-06 )  
( -9.87285e-07 4.12247e-05 9.03962e-07 )  
( -1.60094e-06 3.89032e-05 4.39192e-06 )  
( 2.32366e-06 3.62857e-05 -8.98535e-07 )  
( 4.22131e-06 3.37733e-05 2.92725e-07 )  
( 1.60464e-05 5.42333e-05 -1.09293e-05 )  
( 2.64783e-06 3.90982e-05 -2.23763e-06 )  
( 1.83207e-06 4.58323e-05 -5.75214e-07 )  
( 5.03955e-06 4.41635e-05 2.20186e-06 )  
( -2.25994e-07 3.75721e-05 1.5232e-06 )  
( 4.73109e-06 4.48432e-05 -3.59703e-06 )  
( 1.66611e-06 3.8114e-05 4.67065e-07 )  
( 2.0448e-06 4.31218e-05 -2.64554e-06 )  
( 8.35993e-07 4.50145e-05 1.19876e-06 )  
( 1.78795e-06 4.16275e-05 -1.00416e-06 )  
( 2.55236e-06 4.51943e-05 -1.65536e-06 )  
( 7.8328e-07 4.48698e-05 1.27662e-06 )  
( 3.44863e-06 4.75799e-05 -3.99631e-07 )  
( 1.15413e-06 4.43585e-05 -1.56042e-06 )  
( 2.56592e-06 4.86311e-05 -5.85389e-07 )  
( 5.20852e-06 4.95257e-05 -5.09719e-06 )  
( 2.60597e-06 3.7808e-05 -1.11758e-06 )  
( -2.70549e-06 4.76164e-05 -4.73402e-06 )  
( 3.27624e-06 4.63113e-05 -2.48726e-06 )  
( 3.09482e-06 4.76384e-05 1.42977e-06 )  
( 8.02916e-06 4.8357e-05 -1.98369e-06 )  
( 3.77474e-06 4.14561e-05 -3.97547e-06 )  
( 2.41188e-06 4.93288e-05 1.03359e-06 )  
( 2.28363e-06 4.55521e-05 -3.46732e-06 )  
( 2.87664e-06 4.576e-05 2.28675e-07 )  
( 5.00047e-06 4.85955e-05 1.07508e-06 )  
( 3.87331e-06 5.31577e-05 2.16374e-07 )  
( 2.74032e-06 4.66181e-05 -2.153e-06 )  
( 3.33068e-06 5.25819e-05 2.03878e-06 )  
( 5.81488e-06 5.38229e-05 -1.09062e-06 )  
( 8.92793e-07 5.10869e-05 -9.86038e-06 )  
( 1.61922e-06 4.7847e-05 5.56937e-07 )  
( 3.68039e-06 5.36987e-05 -2.09692e-06 )  
( 6.28646e-06 4.77245e-05 -3.85383e-06 )  
( 3.79864e-06 5.02616e-05 7.46327e-07 )  
( 4.13301e-06 4.99177e-05 -3.30169e-06 )  
( 3.99657e-06 4.87329e-05 -3.25804e-06 )  
( 3.27451e-06 4.87805e-05 -4.01211e-07 )  
( 3.84009e-06 4.987e-05 -8.38963e-07 )  
( 6.10925e-06 5.5685e-05 4.59479e-07 )  
( 1.10409e-05 6.34776e-05 2.83792e-06 )  
( 5.19032e-06 5.16366e-05 -7.07864e-08 )  
( 2.73842e-06 5.23215e-05 1.92646e-06 )  
( 3.0451e-06 5.07302e-05 8.73941e-07 )  
( 3.64512e-06 4.79148e-05 4.72392e-06 )  
( 5.19421e-06 5.19419e-05 -6.94878e-06 )  
( 5.64577e-06 5.10774e-05 -6.10352e-06 )  
( 1.12912e-05 5.96796e-05 -5.01049e-06 )  
( 8.78329e-06 5.86553e-05 1.73887e-07 )  
( 4.79185e-06 5.68073e-05 -1.28645e-06 )  
( 6.20605e-06 5.69017e-05 -1.67414e-06 )  
( 2.80178e-06 5.61035e-05 -3.26775e-07 )  
( 3.36897e-06 4.70881e-05 -4.31817e-06 )  
( 3.17495e-06 5.15636e-05 -1.368e-06 )  
( 4.28116e-06 5.17639e-05 -4.23618e-06 )  
( 5.03838e-06 5.70586e-05 3.78246e-06 )  
( 6.50533e-06 6.08301e-05 -2.20778e-06 )  
( 3.4507e-07 5.79146e-05 -1.06488e-06 )  
( 4.34182e-06 5.69493e-05 -1.50225e-06 )  
( 5.79147e-06 5.80802e-05 4.95474e-06 )  
( 8.07946e-06 5.85447e-05 -1.57061e-06 )  
( 4.17535e-06 5.25827e-05 -3.31152e-06 )  
( 7.12589e-06 5.83867e-05 5.02749e-07 )  
( 2.14765e-06 5.58482e-05 -1.81278e-06 )  
( 1.51612e-05 6.13895e-05 3.78314e-06 )  
( 1.0685e-05 6.19938e-05 1.93405e-06 )  
( 1.04292e-05 5.81924e-05 -1.10297e-06 )  
( 3.55576e-06 5.65876e-05 -6.55461e-07 )  
( 6.62189e-07 5.79952e-05 -1.22736e-06 )  
( 8.28239e-06 6.47475e-05 3.33739e-07 )  
( 4.0739e-06 5.99796e-05 1.23586e-06 )  
( 9.57179e-06 6.52509e-05 4.00139e-06 )  
( 4.19977e-06 5.63308e-05 -2.11654e-06 )  
( 6.3065e-06 6.04392e-05 -6.56196e-08 )  
( 3.91912e-06 6.45599e-05 -2.65654e-06 )  
( 6.70655e-06 5.88863e-05 -4.11153e-08 )  
( 8.27058e-06 6.32379e-05 -3.7004e-06 )  
( 7.79092e-06 6.0904e-05 -7.87293e-06 )  
( 1.08933e-05 6.64803e-05 -2.64296e-06 )  
( 8.93283e-06 6.03678e-05 -8.19491e-07 )  
( 9.29991e-06 6.47658e-05 -2.40822e-06 )  
( 5.61321e-06 5.92481e-05 -8.41762e-07 )  
( 5.91533e-06 6.15253e-05 -6.29085e-06 )  
( 9.364e-06 6.86617e-05 -4.11721e-06 )  
( 4.2008e-06 6.79696e-05 -1.39849e-06 )  
( 3.67657e-06 6.16879e-05 -4.14598e-06 )  
( 6.98555e-06 6.23117e-05 -3.75545e-07 )  
( 1.11306e-05 7.66535e-05 1.1139e-05 )  
( 6.20342e-06 6.09411e-05 -1.77591e-06 )  
( 7.76454e-06 6.24164e-05 3.67663e-07 )  
( 6.08593e-06 5.82704e-05 -1.85337e-06 )  
( 3.16101e-06 6.20048e-05 7.81683e-07 )  
( 7.96225e-06 5.98698e-05 -2.00873e-06 )  
( 8.6267e-06 6.31287e-05 -5.36805e-06 )  
( 7.22161e-06 6.4571e-05 1.2466e-08 )  
( 7.14477e-06 6.6949e-05 -2.38586e-06 )  
( 8.54817e-06 6.74497e-05 -5.8784e-06 )  
( 7.25272e-06 6.33632e-05 -2.19279e-06 )  
( 1.43588e-05 6.67466e-05 8.69119e-07 )  
( 6.54582e-06 7.68714e-05 1.83812e-06 )  
( 1.00099e-05 6.75094e-05 -7.54257e-06 )  
( 6.20739e-06 7.61964e-05 -1.99887e-06 )  
( 5.82728e-07 7.25544e-05 -6.29023e-06 )  
( 1.13766e-05 7.23972e-05 -5.18414e-06 )  
( 1.02223e-05 6.73267e-05 -1.47832e-06 )  
( 1.05532e-05 7.58384e-05 -9.20517e-07 )  
( 1.01454e-05 7.14168e-05 -6.10711e-06 )  
( 9.97405e-06 7.70712e-05 -1.46086e-06 )  
( 6.32281e-06 6.74102e-05 2.55643e-07 )  
( 5.04266e-06 6.74187e-05 1.5159e-06 )  
( 1.86418e-06 7.10609e-05 -1.12845e-07 )  
( 6.1818e-06 7.12522e-05 -1.71057e-06 )  
( 6.28399e-06 7.41158e-05 -4.10088e-06 )  
( -2.69526e-08 7.45519e-05 3.1454e-06 )  
( 6.57012e-06 7.49764e-05 -5.69989e-06 )  
( 9.719e-06 7.61564e-05 -7.83912e-06 )  
( 6.93377e-06 7.27816e-05 -2.75082e-06 )  
( 1.00536e-05 7.45952e-05 -4.91402e-06 )  
( 1.30342e-05 7.6402e-05 -5.02098e-06 )  
( 5.74746e-06 6.96355e-05 -5.11706e-06 )  
( 7.53554e-06 7.60604e-05 -1.69798e-06 )  
( 7.07467e-06 6.96599e-05 -5.27848e-06 )  
( 6.32061e-06 7.44315e-05 -8.38712e-07 )  
( 8.87978e-06 6.93445e-05 -1.26466e-06 )  
( 7.90253e-06 7.4497e-05 -7.90889e-07 )  
( 1.17601e-05 7.11889e-05 4.83883e-06 )  
( 1.88399e-06 7.36108e-05 1.21443e-07 )  
( 1.26874e-05 7.63109e-05 -7.59069e-06 )  
( 8.27149e-06 7.68801e-05 -8.69789e-07 )  
( 5.7856e-06 7.98157e-05 -1.10236e-06 )  
( 9.64543e-06 7.67175e-05 -4.17817e-06 )  
( 5.21946e-06 7.32432e-05 -3.247e-06 )  
( 2.26065e-06 7.85525e-05 -4.35125e-06 )  
( 8.66176e-06 7.77624e-05 -9.19849e-06 )  
( 1.06779e-05 6.47882e-05 -3.76265e-06 )  
( 5.03176e-06 7.52717e-05 -3.9653e-07 )  
( 3.44093e-06 6.93126e-05 -5.38332e-06 )  
( 1.24653e-05 7.64429e-05 -2.13479e-06 )  
( 7.06034e-06 7.95871e-05 -4.14116e-06 )  
( 8.8351e-06 7.99796e-05 -2.1065e-06 )  
( 8.53695e-06 7.9566e-05 -3.60001e-06 )  
( 2.0097e-05 8.54904e-05 7.15547e-07 )  
( 3.86084e-06 6.80399e-05 -3.57582e-07 )  
( 1.02753e-05 7.96588e-05 -3.86132e-06 )  
( 4.94633e-06 7.72329e-05 -3.7113e-06 )  
( 1.0249e-05 8.64237e-05 -3.3137e-06 )  
( 1.10199e-05 7.2965e-05 -3.19731e-06 )  
( 6.85399e-06 8.05242e-05 -4.52293e-06 )  
( 9.72142e-06 8.45914e-05 -6.86434e-06 )  
( 9.05637e-06 7.8683e-05 -1.9184e-06 )  
( 1.04613e-05 7.96965e-05 -1.9687e-06 )  
( 3.75496e-06 7.30683e-05 -7.33949e-06 )  
( 6.62293e-06 8.15222e-05 -3.44318e-06 )  
( 1.07397e-05 7.50516e-05 -4.21176e-06 )  
( 1.00955e-05 8.12433e-05 3.2258e-07 )  
( 8.54213e-06 8.55685e-05 -1.57941e-06 )  
( 4.70117e-06 7.49897e-05 -2.60854e-06 )  
( 7.23646e-06 8.69156e-05 -4.55152e-06 )  
( 1.4342e-05 8.06559e-05 -5.79964e-06 )  
( 1.11398e-05 7.73983e-05 -8.26021e-06 )  
( 6.34245e-06 7.72747e-05 6.94778e-07 )  
( 1.16534e-05 8.86558e-05 -6.47999e-06 )  
( 7.58155e-06 7.96512e-05 -3.24771e-06 )  
( 1.33714e-05 8.19659e-05 -6.13492e-06 )  
( 7.26126e-06 8.13171e-05 -6.41197e-06 )  
( 6.85893e-06 8.53336e-05 -3.15553e-06 )  
( 1.00526e-05 8.59237e-05 -5.03915e-06 )  
( 7.62101e-06 8.79787e-05 -2.73155e-06 )  
( 8.08333e-06 8.95421e-05 -1.86388e-06 )  
( 1.35562e-05 8.11417e-05 -3.24172e-06 )  
( 7.08455e-06 8.28659e-05 -2.54222e-07 )  
( 6.86796e-06 9.08583e-05 -1.08916e-05 )  
( 1.08268e-05 9.02864e-05 -1.12565e-05 )  
( 2.0398e-05 8.9716e-05 9.61929e-07 )  
( 1.09717e-05 8.74675e-05 -6.63902e-06 )  
( 1.13125e-05 8.75692e-05 -3.60073e-06 )  
( 1.60077e-05 8.76575e-05 -4.82076e-06 )  
( 1.04125e-05 8.67423e-05 -4.11112e-06 )  
( 1.20373e-05 9.17369e-05 -4.57908e-06 )  
( 5.43133e-06 8.48239e-05 1.84281e-06 )  
( 3.83412e-06 8.8609e-05 -5.94179e-06 )  
( 1.28806e-05 8.92252e-05 -5.35482e-06 )  
( 1.08361e-05 9.05675e-05 -6.06048e-06 )  
( 8.98371e-06 0.000101231 -5.55794e-06 )  
( 9.91754e-06 8.59144e-05 -4.02314e-06 )  
( 9.97295e-06 8.92309e-05 -5.82078e-06 )  
( 1.11822e-05 8.82447e-05 -1.01085e-05 )  
( 1.1961e-05 8.84973e-05 -6.6484e-06 )  
( 9.84396e-06 8.96189e-05 -3.00689e-07 )  
( 1.23987e-05 8.77469e-05 -7.60739e-06 )  
( 1.40448e-05 9.20887e-05 -6.36226e-06 )  
( 8.62003e-06 8.6067e-05 -5.59661e-06 )  
( 9.81769e-06 8.62141e-05 -4.8702e-06 )  
( 7.02671e-06 8.46744e-05 6.16652e-06 )  
( 1.20043e-05 8.42882e-05 -1.08725e-05 )  
( 1.33101e-05 9.16033e-05 -2.93961e-06 )  
( 1.26142e-05 9.90357e-05 -9.53115e-06 )  
( 1.04478e-05 9.32521e-05 -7.90954e-06 )  
( 1.14407e-05 8.90855e-05 1.20572e-06 )  
( 1.00811e-05 9.05574e-05 -3.30504e-06 )  
( 1.82495e-05 9.34913e-05 -8.26014e-06 )  
( -6.4368e-06 0.000107889 -5.75158e-07 )  
( 6.1751e-06 8.77473e-05 -6.00581e-06 )  
( 1.36473e-05 9.03015e-05 -8.47461e-06 )  
( 2.01397e-05 8.31825e-05 7.45804e-08 )  
( 1.03369e-05 9.30058e-05 -4.84002e-06 )  
( 1.70241e-05 8.62006e-05 -4.57262e-06 )  
( 9.57204e-06 0.000102 -1.08059e-05 )  
( 5.88928e-06 9.51293e-05 -2.77835e-06 )  
( 1.40087e-05 8.6988e-05 -1.0057e-05 )  
( 1.37833e-05 9.34863e-05 -6.46063e-06 )  
( 2.13995e-05 9.43554e-05 1.57425e-06 )  
( 1.01964e-05 0.000110183 -1.66302e-05 )  
( 2.44955e-06 8.05622e-05 -7.41986e-06 )  
( 1.67381e-05 8.61885e-05 2.87812e-07 )  
( 1.65247e-05 9.2307e-05 6.44722e-06 )  
( 1.59395e-05 8.93428e-05 -5.34757e-06 )  
( 1.80154e-05 9.21947e-05 -5.15298e-06 )  
( 1.18294e-05 8.69244e-05 -9.33317e-06 )  
( 1.02309e-05 8.98105e-05 -5.589e-06 )  
( 8.66774e-06 8.69201e-05 -1.44693e-05 )  
( 2.12417e-05 9.35602e-05 5.11824e-06 )  
( 1.0406e-05 8.82867e-05 -3.51303e-06 )  
( 1.06334e-05 9.71931e-05 -1.08377e-05 )  
( 1.87858e-05 9.07981e-05 4.52288e-07 )  
( 1.86005e-05 0.000100913 -1.71296e-05 )  
( 1.13495e-05 9.04168e-05 -3.13948e-06 )  
( 3.00589e-06 9.15057e-05 -1.23262e-05 )  
)
