/*--------------------------------*- C++ -*----------------------------------*\
| =========                 |                                                 |
| \\      /  F ield         | OpenFOAM: The Open Source CFD Toolbox           |
|  \\    /   O peration     | Version:  5.x                                   |
|   \\  /    A nd           | Web:      www.OpenFOAM.org                      |
|    \\/     M anipulation  |                                                 |
\*---------------------------------------------------------------------------*/
FoamFile
{
    version     2.0;
    format      ascii;
    class       volVectorField;
    location    "0.1";
    object      stored_U;
}
// * * * * * * * * * * * * * * * * * * * * * * * * * * * * * * * * * * * * * //

dimensions      [0 1 -1 0 0 0 0];

internalField   nonuniform List<vector> 
2250
(
(-2.13605e-10 -2.29039e-10 -0.00100001)
(-1.47105e-10 -2.08847e-10 -0.00100001)
(-1.54844e-10 -1.94343e-10 -0.00100001)
(-1.14759e-10 -1.7848e-10 -0.00100001)
(-3.66676e-11 -1.64755e-10 -0.00100001)
(-2.0134e-10 -1.4331e-10 -0.00100001)
(-1.57759e-10 -1.51682e-10 -0.00100001)
(-1.36233e-10 -1.57826e-10 -0.00100001)
(-9.20257e-11 -1.37304e-10 -0.00100001)
(-2.67035e-11 -1.19562e-10 -0.00100001)
(-1.88414e-10 -9.9359e-11 -0.00100001)
(-1.61605e-10 -9.63143e-11 -0.00100001)
(-1.40485e-10 -1.05956e-10 -0.00100001)
(-7.68236e-11 -8.58116e-11 -0.00100001)
(-1.92606e-11 -7.97299e-11 -0.00100001)
(-1.93699e-10 -4.05224e-11 -0.00100001)
(-1.64311e-10 -5.70508e-11 -0.00100001)
(-1.25727e-10 -4.91495e-11 -0.00100001)
(-6.59802e-11 -4.14599e-11 -0.00100001)
(-2.07843e-11 -5.1654e-11 -0.00100001)
(-2.03998e-10 -3.11785e-12 -0.00100001)
(-1.69795e-10 -1.45138e-11 -0.00100001)
(-1.24612e-10 -8.98345e-12 -0.00100001)
(-7.92719e-11 -1.36527e-11 -0.00100001)
(-2.94788e-11 -2.23551e-11 -0.00100001)
(-5.87776e-10 -6.09049e-10 -0.00100001)
(-4.36219e-10 -5.51196e-10 -0.00100001)
(-4.19932e-10 -4.96133e-10 -0.00100001)
(-2.8303e-10 -4.44396e-10 -0.00100001)
(-8.58779e-11 -4.27126e-10 -0.00100001)
(-5.50828e-10 -3.89488e-10 -0.00100001)
(-4.3792e-10 -4.00617e-10 -0.00100001)
(-3.57096e-10 -3.8099e-10 -0.00100001)
(-2.30844e-10 -3.28357e-10 -0.00100001)
(-7.38822e-11 -3.09215e-10 -0.00100001)
(-5.15596e-10 -2.53313e-10 -0.00100001)
(-4.27759e-10 -2.42243e-10 -0.00100001)
(-3.47763e-10 -2.3868e-10 -0.00100001)
(-2.11932e-10 -2.24115e-10 -0.00100001)
(-6.73398e-11 -2.25765e-10 -0.00100001)
(-5.16748e-10 -1.03379e-10 -0.00100001)
(-4.23229e-10 -1.25774e-10 -0.00100001)
(-3.38964e-10 -1.25057e-10 -0.00100001)
(-2.18289e-10 -1.33136e-10 -0.00100001)
(-7.58111e-11 -1.52028e-10 -0.00100001)
(-5.34768e-10 -1.23494e-11 -0.00100001)
(-4.48509e-10 -3.25161e-11 -0.00100001)
(-3.54473e-10 -3.8385e-11 -0.00100001)
(-2.38721e-10 -4.85782e-11 -0.00100001)
(-8.62209e-11 -5.90486e-11 -0.00100001)
(-1.09015e-09 -1.02664e-09 -0.00100001)
(-8.31607e-10 -9.15003e-10 -0.00100001)
(-7.36446e-10 -8.31386e-10 -0.00100001)
(-4.65227e-10 -7.73753e-10 -0.00100001)
(-1.47027e-10 -7.65909e-10 -0.00100001)
(-9.98904e-10 -6.73358e-10 -0.00100001)
(-8.28215e-10 -6.93941e-10 -0.00100001)
(-6.61677e-10 -6.50703e-10 -0.00100001)
(-4.19736e-10 -6.07165e-10 -0.00100001)
(-1.41082e-10 -5.98817e-10 -0.00100001)
(-9.49563e-10 -4.81368e-10 -0.00100001)
(-8.08944e-10 -4.74061e-10 -0.00100001)
(-6.49794e-10 -4.65246e-10 -0.00100001)
(-4.14515e-10 -4.68151e-10 -0.00100001)
(-1.39686e-10 -4.84155e-10 -0.00100001)
(-9.45859e-10 -2.66291e-10 -0.00100001)
(-8.11949e-10 -2.82976e-10 -0.00100001)
(-6.55753e-10 -2.93894e-10 -0.00100001)
(-4.39406e-10 -3.12737e-10 -0.00100001)
(-1.57706e-10 -3.41686e-10 -0.00100001)
(-9.55449e-10 -8.07533e-11 -0.00100001)
(-8.34937e-10 -9.34467e-11 -0.00100001)
(-6.78363e-10 -1.05117e-10 -0.00100001)
(-4.62064e-10 -1.17108e-10 -0.00100001)
(-1.68806e-10 -1.28286e-10 -0.00100001)
(-1.67876e-09 -1.44564e-09 -0.00100001)
(-1.35609e-09 -1.32392e-09 -0.00100001)
(-1.11344e-09 -1.25659e-09 -0.00100001)
(-6.75333e-10 -1.22662e-09 -0.00100001)
(-2.17257e-10 -1.24271e-09 -0.00100001)
(-1.56875e-09 -1.05851e-09 -0.00100001)
(-1.357e-09 -1.08477e-09 -0.00100001)
(-1.066e-09 -1.04486e-09 -0.00100001)
(-6.78813e-10 -1.04535e-09 -0.00100001)
(-2.33359e-10 -1.07276e-09 -0.00100001)
(-1.53383e-09 -8.30061e-10 -0.00100001)
(-1.34243e-09 -8.21042e-10 -0.00100001)
(-1.0742e-09 -8.26675e-10 -0.00100001)
(-7.05244e-10 -8.52974e-10 -0.00100001)
(-2.46416e-10 -8.85477e-10 -0.00100001)
(-1.52317e-09 -5.25072e-10 -0.00100001)
(-1.35342e-09 -5.32314e-10 -0.00100001)
(-1.09792e-09 -5.6003e-10 -0.00100001)
(-7.39127e-10 -5.84226e-10 -0.00100001)
(-2.6722e-10 -6.15507e-10 -0.00100001)
(-1.52588e-09 -1.81714e-10 -0.00100001)
(-1.37485e-09 -1.885e-10 -0.00100001)
(-1.12411e-09 -2.05403e-10 -0.00100001)
(-7.60425e-10 -2.16536e-10 -0.00100001)
(-2.78189e-10 -2.27605e-10 -0.00100001)
(-2.39897e-09 -1.93562e-09 -0.00100001)
(-1.98528e-09 -1.84195e-09 -0.00100001)
(-1.59463e-09 -1.83558e-09 -0.00100001)
(-9.80816e-10 -1.8594e-09 -0.00100001)
(-3.29152e-10 -1.89897e-09 -0.00100001)
(-2.29591e-09 -1.54658e-09 -0.00100001)
(-2.05153e-09 -1.62233e-09 -0.00100001)
(-1.61109e-09 -1.62506e-09 -0.00100001)
(-1.04719e-09 -1.68198e-09 -0.00100001)
(-3.67174e-10 -1.7436e-09 -0.00100001)
(-2.29953e-09 -1.30128e-09 -0.00100001)
(-2.06376e-09 -1.30309e-09 -0.00100001)
(-1.65455e-09 -1.3381e-09 -0.00100001)
(-1.10267e-09 -1.38599e-09 -0.00100001)
(-3.93715e-10 -1.41498e-09 -0.00100001)
(-2.29699e-09 -8.6284e-10 -0.00100001)
(-2.08806e-09 -8.74519e-10 -0.00100001)
(-1.69397e-09 -9.15576e-10 -0.00100001)
(-1.1266e-09 -9.33426e-10 -0.00100001)
(-3.98535e-10 -9.40316e-10 -0.00100001)
(-2.30445e-09 -3.05853e-10 -0.00100001)
(-2.11249e-09 -3.13368e-10 -0.00100001)
(-1.71031e-09 -3.33949e-10 -0.00100001)
(-1.12703e-09 -3.32699e-10 -0.00100001)
(-4.01485e-10 -3.35775e-10 -0.00100001)
(-3.2538e-09 -2.54119e-09 -0.00100001)
(-2.91043e-09 -2.57973e-09 -0.00100001)
(-2.2783e-09 -2.62809e-09 -0.00100001)
(-1.4634e-09 -2.6923e-09 -0.00100001)
(-5.11869e-10 -2.724e-09 -0.00100001)
(-3.26928e-09 -2.32025e-09 -0.00100001)
(-2.96686e-09 -2.36241e-09 -0.00100001)
(-2.34989e-09 -2.41645e-09 -0.00100001)
(-1.53967e-09 -2.48977e-09 -0.00100001)
(-5.37829e-10 -2.53632e-09 -0.00100001)
(-3.29919e-09 -1.91653e-09 -0.00100001)
(-3.00663e-09 -1.9298e-09 -0.00100001)
(-2.40602e-09 -1.97856e-09 -0.00100001)
(-1.58812e-09 -2.02008e-09 -0.00100001)
(-5.62841e-10 -2.02898e-09 -0.00100001)
(-3.30832e-09 -1.28008e-09 -0.00100001)
(-3.02847e-09 -1.28653e-09 -0.00100001)
(-2.44012e-09 -1.3198e-09 -0.00100001)
(-1.59372e-09 -1.32516e-09 -0.00100001)
(-5.50203e-10 -1.30379e-09 -0.00100001)
(-3.31472e-09 -4.52241e-10 -0.00100001)
(-3.04053e-09 -4.52507e-10 -0.00100001)
(-2.44016e-09 -4.6973e-10 -0.00100001)
(-1.57156e-09 -4.5685e-10 -0.00100001)
(-5.42717e-10 -4.49542e-10 -0.00100001)
(-4.48e-09 -3.49879e-09 -0.00100001)
(-4.15927e-09 -3.59803e-09 -0.00100001)
(-3.25716e-09 -3.67078e-09 -0.00100001)
(-2.13065e-09 -3.73285e-09 -0.00100001)
(-7.53625e-10 -3.73217e-09 -0.00100001)
(-4.55205e-09 -3.36667e-09 -0.00100001)
(-4.17348e-09 -3.3524e-09 -0.00100001)
(-3.31736e-09 -3.40343e-09 -0.00100001)
(-2.15886e-09 -3.44603e-09 -0.00100001)
(-7.4532e-10 -3.4454e-09 -0.00100001)
(-4.5901e-09 -2.70779e-09 -0.00100001)
(-4.19603e-09 -2.70723e-09 -0.00100001)
(-3.35129e-09 -2.74142e-09 -0.00100001)
(-2.17919e-09 -2.76064e-09 -0.00100001)
(-7.59061e-10 -2.7494e-09 -0.00100001)
(-4.60726e-09 -1.7669e-09 -0.00100001)
(-4.20653e-09 -1.76362e-09 -0.00100001)
(-3.37071e-09 -1.7816e-09 -0.00100001)
(-2.17172e-09 -1.77777e-09 -0.00100001)
(-7.3875e-10 -1.7421e-09 -0.00100001)
(-4.60802e-09 -6.14847e-10 -0.00100001)
(-4.20257e-09 -6.07378e-10 -0.00100001)
(-3.3593e-09 -6.1852e-10 -0.00100001)
(-2.1389e-09 -6.01847e-10 -0.00100001)
(-7.25023e-10 -5.8838e-10 -0.00100002)
(-6.22956e-09 -4.92437e-09 -0.00100001)
(-5.68662e-09 -4.96204e-09 -0.00100001)
(-4.51948e-09 -5.02339e-09 -0.00100001)
(-2.95864e-09 -5.05853e-09 -0.00100001)
(-1.03988e-09 -5.03369e-09 -0.00100001)
(-6.24668e-09 -4.59249e-09 -0.00100001)
(-5.70453e-09 -4.58487e-09 -0.00100001)
(-4.55742e-09 -4.62117e-09 -0.00100001)
(-2.94618e-09 -4.63281e-09 -0.00100001)
(-1.01223e-09 -4.59777e-09 -0.00100002)
(-6.27866e-09 -3.6617e-09 -0.00100001)
(-5.7153e-09 -3.67163e-09 -0.00100001)
(-4.56811e-09 -3.69092e-09 -0.00100001)
(-2.94395e-09 -3.69319e-09 -0.00100002)
(-1.01289e-09 -3.66641e-09 -0.00100002)
(-6.30616e-09 -2.34763e-09 -0.00100001)
(-5.73297e-09 -2.35753e-09 -0.00100001)
(-4.57891e-09 -2.36811e-09 -0.00100002)
(-2.92816e-09 -2.35664e-09 -0.00100002)
(-9.91651e-10 -2.31987e-09 -0.00100002)
(-6.30616e-09 -8.08607e-10 -0.00100001)
(-5.7247e-09 -8.05801e-10 -0.00100001)
(-4.55891e-09 -8.10664e-10 -0.00100002)
(-2.89458e-09 -7.93722e-10 -0.00100002)
(-9.78273e-10 -7.80713e-10 -0.00100002)
(-8.56522e-09 -6.81019e-09 -0.00100001)
(-7.62874e-09 -6.77159e-09 -0.00100001)
(-6.13758e-09 -6.81342e-09 -0.00100001)
(-4.00683e-09 -6.82628e-09 -0.00100002)
(-1.39796e-09 -6.79425e-09 -0.00100002)
(-8.51833e-09 -6.09304e-09 -0.00100001)
(-7.70791e-09 -6.15984e-09 -0.00100001)
(-6.1826e-09 -6.2085e-09 -0.00100002)
(-3.9904e-09 -6.21079e-09 -0.00100002)
(-1.37257e-09 -6.16087e-09 -0.00100002)
(-8.54835e-09 -4.87459e-09 -0.00100001)
(-7.74419e-09 -4.92883e-09 -0.00100002)
(-6.18946e-09 -4.94796e-09 -0.00100002)
(-3.97087e-09 -4.93501e-09 -0.00100002)
(-1.3588e-09 -4.89549e-09 -0.00100002)
(-8.58847e-09 -3.12564e-09 -0.00100001)
(-7.78022e-09 -3.16214e-09 -0.00100002)
(-6.18868e-09 -3.16303e-09 -0.00100002)
(-3.94667e-09 -3.14133e-09 -0.00100002)
(-1.34144e-09 -3.11512e-09 -0.00100002)
(-8.58669e-09 -1.07784e-09 -0.00100001)
(-7.76667e-09 -1.08377e-09 -0.00100002)
(-6.15741e-09 -1.07813e-09 -0.00100002)
(-3.92139e-09 -1.06322e-09 -0.00100002)
(-1.33551e-09 -1.0578e-09 -0.00100002)
(-1.17294e-08 -9.31638e-09 -0.00100001)
(-1.0353e-08 -9.22962e-09 -0.00100001)
(-8.34158e-09 -9.23998e-09 -0.00100002)
(-5.42514e-09 -9.23239e-09 -0.00100002)
(-1.88372e-09 -9.19424e-09 -0.00100002)
(-1.16446e-08 -8.1911e-09 -0.00100001)
(-1.04722e-08 -8.31152e-09 -0.00100002)
(-8.39106e-09 -8.36793e-09 -0.00100002)
(-5.4097e-09 -8.35845e-09 -0.00100002)
(-1.86242e-09 -8.29777e-09 -0.00100002)
(-1.16601e-08 -6.57435e-09 -0.00100001)
(-1.05298e-08 -6.65367e-09 -0.00100002)
(-8.38978e-09 -6.66156e-09 -0.00100002)
(-5.37083e-09 -6.62532e-09 -0.00100002)
(-1.83771e-09 -6.58317e-09 -0.00100002)
(-1.16928e-08 -4.25254e-09 -0.00100002)
(-1.05579e-08 -4.28592e-09 -0.00100002)
(-8.36259e-09 -4.26158e-09 -0.00100002)
(-5.34319e-09 -4.23342e-09 -0.00100003)
(-1.8317e-09 -4.22562e-09 -0.00100003)
(-1.16719e-08 -1.47653e-09 -0.00100002)
(-1.05187e-08 -1.4754e-09 -0.00100002)
(-8.32198e-09 -1.45601e-09 -0.00100002)
(-5.33274e-09 -1.44943e-09 -0.00100003)
(-1.83387e-09 -1.4523e-09 -0.00100003)
(-1.60567e-08 -1.27066e-08 -0.00100001)
(-1.4304e-08 -1.26008e-08 -0.00100002)
(-1.14215e-08 -1.25597e-08 -0.00100002)
(-7.38098e-09 -1.25221e-08 -0.00100002)
(-2.55147e-09 -1.24737e-08 -0.00100002)
(-1.59588e-08 -1.12822e-08 -0.00100001)
(-1.43388e-08 -1.13267e-08 -0.00100002)
(-1.14287e-08 -1.13383e-08 -0.00100002)
(-7.35157e-09 -1.13008e-08 -0.00100003)
(-2.53019e-09 -1.1235e-08 -0.00100003)
(-1.59317e-08 -9.01525e-09 -0.00100002)
(-1.436e-08 -9.04884e-09 -0.00100002)
(-1.13974e-08 -9.01773e-09 -0.00100003)
(-7.29932e-09 -8.95719e-09 -0.00100003)
(-2.50563e-09 -8.92432e-09 -0.00100003)
(-1.59204e-08 -5.86239e-09 -0.00100002)
(-1.43393e-08 -5.84411e-09 -0.00100003)
(-1.13369e-08 -5.78758e-09 -0.00100003)
(-7.27438e-09 -5.75996e-09 -0.00100003)
(-2.51291e-09 -5.76106e-09 -0.00100003)
(-1.5862e-08 -2.04396e-09 -0.00100002)
(-1.42578e-08 -2.01702e-09 -0.00100003)
(-1.12924e-08 -1.98798e-09 -0.00100003)
(-7.26989e-09 -1.99249e-09 -0.00100003)
(-2.51213e-09 -1.99267e-09 -0.00100004)
(-2.1952e-08 -1.73158e-08 -0.00100001)
(-1.97621e-08 -1.71874e-08 -0.00100002)
(-1.56567e-08 -1.70951e-08 -0.00100002)
(-1.00533e-08 -1.70249e-08 -0.00100003)
(-3.46328e-09 -1.69684e-08 -0.00100003)
(-2.18308e-08 -1.55881e-08 -0.00100002)
(-1.96572e-08 -1.54913e-08 -0.00100002)
(-1.55889e-08 -1.54132e-08 -0.00100003)
(-1.00098e-08 -1.53473e-08 -0.00100003)
(-3.44561e-09 -1.52845e-08 -0.00100004)
(-2.175e-08 -1.24069e-08 -0.00100002)
(-1.95872e-08 -1.23379e-08 -0.00100003)
(-1.55151e-08 -1.22536e-08 -0.00100003)
(-9.95426e-09 -1.21763e-08 -0.00100004)
(-3.42788e-09 -1.21458e-08 -0.00100004)
(-2.16734e-08 -8.05393e-09 -0.00100003)
(-1.95012e-08 -7.96659e-09 -0.00100003)
(-1.5427e-08 -7.88615e-09 -0.00100004)
(-9.92408e-09 -7.85407e-09 -0.00100004)
(-3.43631e-09 -7.8394e-09 -0.00100004)
(-2.15775e-08 -2.80276e-09 -0.00100003)
(-1.9382e-08 -2.7507e-09 -0.00100003)
(-1.5374e-08 -2.71852e-09 -0.00100004)
(-9.90354e-09 -2.72494e-09 -0.00100004)
(-3.42058e-09 -2.7105e-09 -0.00100005)
(-2.99036e-08 -2.35356e-08 -0.00100001)
(-2.7068e-08 -2.33885e-08 -0.00100002)
(-2.13817e-08 -2.32579e-08 -0.00100003)
(-1.36879e-08 -2.31625e-08 -0.00100004)
(-4.70828e-09 -2.30956e-08 -0.00100004)
(-2.97574e-08 -2.13503e-08 -0.00100002)
(-2.68483e-08 -2.1129e-08 -0.00100003)
(-2.12437e-08 -2.0964e-08 -0.00100004)
(-1.36343e-08 -2.08749e-08 -0.00100004)
(-4.69521e-09 -2.08098e-08 -0.00100005)
(-2.9626e-08 -1.69581e-08 -0.00100003)
(-2.66817e-08 -1.67852e-08 -0.00100004)
(-2.11309e-08 -1.66564e-08 -0.00100004)
(-1.3574e-08 -1.65654e-08 -0.00100005)
(-4.6804e-09 -1.65158e-08 -0.00100005)
(-2.9495e-08 -1.09483e-08 -0.00100003)
(-2.6543e-08 -1.08161e-08 -0.00100004)
(-2.10235e-08 -1.07226e-08 -0.00100005)
(-1.35238e-08 -1.06737e-08 -0.00100005)
(-4.67445e-09 -1.06321e-08 -0.00100006)
(-2.93756e-08 -3.78809e-09 -0.00100003)
(-2.64048e-08 -3.72958e-09 -0.00100004)
(-2.09496e-08 -3.69768e-09 -0.00100005)
(-1.3478e-08 -3.6929e-09 -0.00100006)
(-4.64875e-09 -3.669e-09 -0.00100006)
(-4.06712e-08 -3.19796e-08 -0.00100002)
(-3.67804e-08 -3.1778e-08 -0.00100003)
(-2.90849e-08 -3.16041e-08 -0.00100004)
(-1.86261e-08 -3.14843e-08 -0.00100005)
(-6.40668e-09 -3.13932e-08 -0.00100005)
(-4.04625e-08 -2.89698e-08 -0.00100003)
(-3.65167e-08 -2.86953e-08 -0.00100004)
(-2.88996e-08 -2.84788e-08 -0.00100005)
(-1.85568e-08 -2.83641e-08 -0.00100006)
(-6.39226e-09 -2.82825e-08 -0.00100006)
(-4.02767e-08 -2.29932e-08 -0.00100004)
(-3.62893e-08 -2.27598e-08 -0.00100005)
(-2.87581e-08 -2.2604e-08 -0.00100006)
(-1.84849e-08 -2.25012e-08 -0.00100007)
(-6.37584e-09 -2.24233e-08 -0.00100007)
(-4.01156e-08 -1.47749e-08 -0.00100004)
(-3.61225e-08 -1.46347e-08 -0.00100005)
(-2.86405e-08 -1.4536e-08 -0.00100006)
(-1.84172e-08 -1.44729e-08 -0.00100007)
(-6.35378e-09 -1.44213e-08 -0.00100008)
(-3.99779e-08 -5.08642e-09 -0.00100004)
(-3.59804e-08 -5.03853e-09 -0.00100006)
(-2.8543e-08 -5.0096e-09 -0.00100007)
(-1.83627e-08 -4.99191e-09 -0.00100007)
(-6.33799e-09 -4.97861e-09 -0.00100008)
(-5.52729e-08 -4.34542e-08 -0.00100002)
(-4.98126e-08 -4.31535e-08 -0.00100004)
(-3.949e-08 -4.29162e-08 -0.00100005)
(-2.53457e-08 -4.2755e-08 -0.00100006)
(-8.72412e-09 -4.26185e-08 -0.00100007)
(-5.49619e-08 -3.91523e-08 -0.00100004)
(-4.95587e-08 -3.88856e-08 -0.00100005)
(-3.92794e-08 -3.86534e-08 -0.00100007)
(-2.52485e-08 -3.85059e-08 -0.00100008)
(-8.7017e-09 -3.83949e-08 -0.00100008)
(-5.47103e-08 -3.10696e-08 -0.00100005)
(-4.93137e-08 -3.08232e-08 -0.00100006)
(-3.91163e-08 -3.06513e-08 -0.00100008)
(-2.51624e-08 -3.05425e-08 -0.00100009)
(-8.68247e-09 -3.04421e-08 -0.00100009)
(-5.45234e-08 -1.99315e-08 -0.00100005)
(-4.91337e-08 -1.97975e-08 -0.00100007)
(-3.89981e-08 -1.96995e-08 -0.00100008)
(-2.50955e-08 -1.96392e-08 -0.0010001)
(-8.65521e-09 -1.95911e-08 -0.0010001)
(-5.43498e-08 -6.84888e-09 -0.00100006)
(-4.89859e-08 -6.81262e-09 -0.00100008)
(-3.88851e-08 -6.79031e-09 -0.00100009)
(-2.50434e-08 -6.76938e-09 -0.0010001)
(-8.65296e-09 -6.7706e-09 -0.0010001)
(-7.50606e-08 -5.90028e-08 -0.00100003)
(-6.75392e-08 -5.85831e-08 -0.00100005)
(-5.36598e-08 -5.82599e-08 -0.00100007)
(-3.45115e-08 -5.8022e-08 -0.00100008)
(-1.18872e-08 -5.78117e-08 -0.00100009)
(-7.46353e-08 -5.29945e-08 -0.00100005)
(-6.72785e-08 -5.27255e-08 -0.00100007)
(-5.34065e-08 -5.24625e-08 -0.00100009)
(-3.43591e-08 -5.2259e-08 -0.0010001)
(-1.18466e-08 -5.20945e-08 -0.00100011)
(-7.43032e-08 -4.20514e-08 -0.00100006)
(-6.70072e-08 -4.17884e-08 -0.00100008)
(-5.32014e-08 -4.15816e-08 -0.0010001)
(-3.42462e-08 -4.14564e-08 -0.00100012)
(-1.18175e-08 -4.13247e-08 -0.00100012)
(-7.40621e-08 -2.6979e-08 -0.00100007)
(-6.67996e-08 -2.68309e-08 -0.00100009)
(-5.30737e-08 -2.67271e-08 -0.00100011)
(-3.4179e-08 -2.66663e-08 -0.00100013)
(-1.17886e-08 -2.65931e-08 -0.00100013)
(-7.38214e-08 -9.2711e-09 -0.00100008)
(-6.66243e-08 -9.23618e-09 -0.0010001)
(-5.29369e-08 -9.21788e-09 -0.00100012)
(-3.40976e-08 -9.19494e-09 -0.00100013)
(-1.17698e-08 -9.18094e-09 -0.00100014)
(-1.01928e-07 -8.00733e-08 -0.00100003)
(-9.18384e-08 -7.94905e-08 -0.00100007)
(-7.3014e-08 -7.90334e-08 -0.00100009)
(-4.69863e-08 -7.86738e-08 -0.00100011)
(-1.61864e-08 -7.83572e-08 -0.00100012)
(-1.01349e-07 -7.19796e-08 -0.00100006)
(-9.1433e-08 -7.15756e-08 -0.00100009)
(-7.26377e-08 -7.11865e-08 -0.00100012)
(-4.67345e-08 -7.08779e-08 -0.00100014)
(-1.61117e-08 -7.06184e-08 -0.00100015)
(-1.00891e-07 -5.70788e-08 -0.00100008)
(-9.10452e-08 -5.67235e-08 -0.00100011)
(-7.23275e-08 -5.64202e-08 -0.00100014)
(-4.65583e-08 -5.62314e-08 -0.00100016)
(-1.60564e-08 -5.60304e-08 -0.00100017)
(-1.00547e-07 -3.6622e-08 -0.00100009)
(-9.07617e-08 -3.64169e-08 -0.00100013)
(-7.21445e-08 -3.62703e-08 -0.00100015)
(-4.64496e-08 -3.61636e-08 -0.00100017)
(-1.60113e-08 -3.60223e-08 -0.00100018)
(-1.00206e-07 -1.25904e-08 -0.0010001)
(-9.05146e-08 -1.25427e-08 -0.00100013)
(-7.19376e-08 -1.251e-08 -0.00100016)
(-4.62904e-08 -1.24664e-08 -0.00100018)
(-1.59499e-08 -1.24115e-08 -0.00100019)
(-1.38503e-07 -1.08696e-07 -0.00100005)
(-1.2498e-07 -1.07809e-07 -0.00100009)
(-9.93223e-08 -1.07118e-07 -0.00100012)
(-6.38934e-08 -1.06581e-07 -0.00100015)
(-2.2011e-08 -1.0612e-07 -0.00100016)
(-1.37624e-07 -9.78532e-08 -0.00100008)
(-1.24259e-07 -9.71421e-08 -0.00100012)
(-9.87281e-08 -9.65065e-08 -0.00100016)
(-6.35033e-08 -9.60352e-08 -0.00100018)
(-2.18864e-08 -9.56348e-08 -0.0010002)
(-1.36933e-07 -7.75456e-08 -0.00100011)
(-1.23633e-07 -7.69899e-08 -0.00100015)
(-9.82304e-08 -7.65057e-08 -0.00100018)
(-6.32127e-08 -7.61796e-08 -0.00100021)
(-2.17873e-08 -7.58655e-08 -0.00100022)
(-1.36415e-07 -4.97588e-08 -0.00100013)
(-1.23202e-07 -4.94367e-08 -0.00100017)
(-9.79163e-08 -4.91817e-08 -0.0010002)
(-6.30059e-08 -4.89704e-08 -0.00100023)
(-2.17095e-08 -4.87473e-08 -0.00100024)
(-1.35925e-07 -1.71185e-08 -0.00100014)
(-1.22812e-07 -1.70334e-08 -0.00100018)
(-9.75779e-08 -1.69563e-08 -0.00100021)
(-6.27512e-08 -1.68733e-08 -0.00100024)
(-2.16117e-08 -1.67844e-08 -0.00100025)
(-1.88251e-07 -1.47575e-07 -0.00100006)
(-1.69912e-07 -1.46189e-07 -0.00100012)
(-1.34981e-07 -1.45104e-07 -0.00100017)
(-8.6819e-08 -1.44301e-07 -0.0010002)
(-2.99186e-08 -1.43635e-07 -0.00100022)
(-1.86867e-07 -1.32869e-07 -0.0010001)
(-1.68747e-07 -1.31711e-07 -0.00100016)
(-1.34078e-07 -1.30717e-07 -0.00100021)
(-8.62484e-08 -1.3001e-07 -0.00100024)
(-2.97273e-08 -1.29418e-07 -0.00100026)
(-1.8577e-07 -1.0529e-07 -0.00100014)
(-1.6776e-07 -1.04406e-07 -0.0010002)
(-1.33301e-07 -1.03642e-07 -0.00100025)
(-8.57801e-08 -1.03093e-07 -0.00100028)
(-2.95675e-08 -1.02623e-07 -0.0010003)
(-1.84964e-07 -6.75886e-08 -0.00100017)
(-1.67076e-07 -6.70646e-08 -0.00100022)
(-1.32763e-07 -6.66184e-08 -0.00100027)
(-8.54244e-08 -6.62564e-08 -0.00100031)
(-2.94443e-08 -6.59312e-08 -0.00100033)
(-1.84244e-07 -2.3268e-08 -0.00100018)
(-1.66456e-07 -2.31096e-08 -0.00100024)
(-1.32239e-07 -2.29592e-08 -0.00100029)
(-8.50558e-08 -2.28289e-08 -0.00100032)
(-2.93071e-08 -2.27038e-08 -0.00100034)
(-2.5585e-07 -2.00346e-07 -0.00100008)
(-2.30912e-07 -1.98217e-07 -0.00100016)
(-1.83445e-07 -1.96512e-07 -0.00100022)
(-1.18027e-07 -1.95283e-07 -0.00100027)
(-4.0692e-08 -1.94308e-07 -0.0010003)
(-2.53713e-07 -1.80292e-07 -0.00100014)
(-2.29111e-07 -1.78476e-07 -0.00100022)
(-1.82064e-07 -1.76951e-07 -0.00100028)
(-1.17169e-07 -1.75862e-07 -0.00100033)
(-4.03989e-08 -1.74986e-07 -0.00100035)
(-2.51967e-07 -1.4287e-07 -0.00100019)
(-2.27571e-07 -1.41459e-07 -0.00100027)
(-1.80859e-07 -1.40258e-07 -0.00100033)
(-1.16417e-07 -1.39369e-07 -0.00100038)
(-4.0146e-08 -1.38659e-07 -0.0010004)
(-2.50699e-07 -9.17376e-08 -0.00100023)
(-2.26467e-07 -9.08814e-08 -0.0010003)
(-1.7997e-07 -9.01285e-08 -0.00100037)
(-1.15836e-07 -8.95471e-08 -0.00100041)
(-3.99455e-08 -8.90543e-08 -0.00100044)
(-2.4962e-07 -3.15908e-08 -0.00100025)
(-2.25507e-07 -3.13141e-08 -0.00100032)
(-1.79177e-07 -3.10561e-08 -0.00100039)
(-1.15292e-07 -3.0854e-08 -0.00100043)
(-3.97417e-08 -3.06669e-08 -0.00100046)
(-3.47742e-07 -2.71949e-07 -0.0010001)
(-3.13943e-07 -2.68702e-07 -0.00100021)
(-2.49477e-07 -2.66049e-07 -0.0010003)
(-1.60588e-07 -2.64132e-07 -0.00100037)
(-5.53834e-08 -2.62675e-07 -0.0010004)
(-3.44472e-07 -2.44589e-07 -0.00100019)
(-3.11142e-07 -2.41747e-07 -0.00100029)
(-2.47304e-07 -2.39377e-07 -0.00100038)
(-1.59221e-07 -2.37644e-07 -0.00100045)
(-5.49144e-08 -2.36316e-07 -0.00100048)
(-3.41729e-07 -1.93746e-07 -0.00100026)
(-3.08731e-07 -1.91494e-07 -0.00100036)
(-2.45413e-07 -1.89592e-07 -0.00100045)
(-1.58013e-07 -1.88173e-07 -0.00100051)
(-5.45056e-08 -1.87091e-07 -0.00100055)
(-3.39724e-07 -1.24413e-07 -0.00100031)
(-3.06944e-07 -1.23003e-07 -0.00100041)
(-2.43979e-07 -1.21766e-07 -0.0010005)
(-1.57083e-07 -1.20842e-07 -0.00100056)
(-5.41821e-08 -1.20119e-07 -0.00100059)
(-3.38087e-07 -4.28496e-08 -0.00100033)
(-3.05462e-07 -4.23754e-08 -0.00100044)
(-2.42777e-07 -4.19487e-08 -0.00100052)
(-1.56297e-07 -4.16293e-08 -0.00100058)
(-5.39038e-08 -4.13741e-08 -0.00100062)
(-4.72649e-07 -3.69018e-07 -0.00100014)
(-4.26909e-07 -3.641e-07 -0.00100028)
(-3.394e-07 -3.60015e-07 -0.00100041)
(-2.18556e-07 -3.57025e-07 -0.0010005)
(-7.53806e-08 -3.54839e-07 -0.00100055)
(-4.67671e-07 -3.31603e-07 -0.00100025)
(-4.2259e-07 -3.27216e-07 -0.00100039)
(-3.35985e-07 -3.23529e-07 -0.00100051)
(-2.16369e-07 -3.20793e-07 -0.0010006)
(-7.4635e-08 -3.18783e-07 -0.00100065)
(-4.63414e-07 -2.62516e-07 -0.00100035)
(-4.18834e-07 -2.58968e-07 -0.00100049)
(-3.33029e-07 -2.55974e-07 -0.00100061)
(-2.14474e-07 -2.53756e-07 -0.00100069)
(-7.39873e-08 -2.52149e-07 -0.00100074)
(-4.60241e-07 -1.68552e-07 -0.00100041)
(-4.15989e-07 -1.6625e-07 -0.00100055)
(-3.30767e-07 -1.64282e-07 -0.00100067)
(-2.13041e-07 -1.62853e-07 -0.00100076)
(-7.35071e-08 -1.61834e-07 -0.0010008)
(-4.57745e-07 -5.80537e-08 -0.00100045)
(-4.13714e-07 -5.72572e-08 -0.00100059)
(-3.28983e-07 -5.65752e-08 -0.0010007)
(-2.11929e-07 -5.6097e-08 -0.00100079)
(-7.3133e-08 -5.57548e-08 -0.00100084)
(-6.42367e-07 -5.00524e-07 -0.00100019)
(-5.80547e-07 -4.93126e-07 -0.00100039)
(-4.61757e-07 -4.86888e-07 -0.00100055)
(-2.97419e-07 -4.82289e-07 -0.00100067)
(-1.02578e-07 -4.79045e-07 -0.00100074)
(-6.34829e-07 -4.49278e-07 -0.00100034)
(-5.73923e-07 -4.42538e-07 -0.00100053)
(-4.56487e-07 -4.36844e-07 -0.0010007)
(-2.94043e-07 -4.32627e-07 -0.00100082)
(-1.01441e-07 -4.29656e-07 -0.00100088)
(-6.2826e-07 -3.55354e-07 -0.00100047)
(-5.68113e-07 -3.49828e-07 -0.00100066)
(-4.51916e-07 -3.45179e-07 -0.00100082)
(-2.91138e-07 -3.4178e-07 -0.00100094)
(-1.00451e-07 -3.39431e-07 -0.001001)
(-6.23275e-07 -2.28021e-07 -0.00100056)
(-5.63668e-07 -2.2437e-07 -0.00100075)
(-4.48432e-07 -2.21332e-07 -0.00100091)
(-2.88972e-07 -2.19161e-07 -0.00100102)
(-9.97452e-08 -2.17667e-07 -0.00100109)
(-6.19505e-07 -7.85068e-08 -0.00100061)
(-5.60259e-07 -7.72357e-08 -0.00100079)
(-4.45816e-07 -7.61906e-08 -0.00100095)
(-2.87339e-07 -7.54766e-08 -0.00100107)
(-9.91815e-08 -7.49575e-08 -0.00100113)
(-8.73041e-07 -6.78721e-07 -0.00100026)
(-7.89629e-07 -6.67541e-07 -0.00100052)
(-6.28338e-07 -6.58041e-07 -0.00100075)
(-4.04835e-07 -6.51039e-07 -0.00100092)
(-1.39648e-07 -6.46234e-07 -0.00100101)
(-8.61576e-07 -6.08393e-07 -0.00100046)
(-7.79424e-07 -5.97967e-07 -0.00100072)
(-6.20277e-07 -5.89207e-07 -0.00100095)
(-3.99714e-07 -5.82786e-07 -0.00100111)
(-1.37932e-07 -5.78417e-07 -0.0010012)
(-8.51433e-07 -4.80502e-07 -0.00100063)
(-7.70443e-07 -4.71914e-07 -0.00100089)
(-6.13253e-07 -4.64756e-07 -0.00100111)
(-3.95289e-07 -4.59574e-07 -0.00100127)
(-1.36436e-07 -4.56078e-07 -0.00100135)
(-8.43662e-07 -3.07966e-07 -0.00100075)
(-7.63568e-07 -3.02297e-07 -0.00100101)
(-6.07925e-07 -2.97644e-07 -0.00100122)
(-3.91963e-07 -2.943e-07 -0.00100138)
(-1.35331e-07 -2.92027e-07 -0.00100147)
(-8.38e-07 -1.05958e-07 -0.00100082)
(-7.58522e-07 -1.04001e-07 -0.00100107)
(-6.04032e-07 -1.02413e-07 -0.00100129)
(-3.89484e-07 -1.01285e-07 -0.00100144)
(-1.34469e-07 -1.00485e-07 -0.00100153)
(-1.18677e-06 -9.20178e-07 -0.00100035)
(-1.07426e-06 -9.03115e-07 -0.00100071)
(-8.55392e-07 -8.8864e-07 -0.00100102)
(-5.5143e-07 -8.77983e-07 -0.00100125)
(-1.90294e-07 -8.70831e-07 -0.00100137)
(-1.16919e-06 -8.23115e-07 -0.00100062)
(-1.05855e-06 -8.06958e-07 -0.00100098)
(-8.4307e-07 -7.93518e-07 -0.00100128)
(-5.43636e-07 -7.83741e-07 -0.0010015)
(-1.87677e-07 -7.77267e-07 -0.00100162)
(-1.15345e-06 -6.4878e-07 -0.00100085)
(-1.04466e-06 -6.35404e-07 -0.0010012)
(-8.32305e-07 -6.24389e-07 -0.0010015)
(-5.36882e-07 -6.16418e-07 -0.00100172)
(-1.85407e-07 -6.11171e-07 -0.00100183)
(-1.14133e-06 -4.15224e-07 -0.00100102)
(-1.03401e-06 -4.06411e-07 -0.00100136)
(-8.24068e-07 -3.99207e-07 -0.00100165)
(-5.31682e-07 -3.93978e-07 -0.00100187)
(-1.83653e-07 -3.90566e-07 -0.00100198)
(-1.13277e-06 -1.42771e-07 -0.00100111)
(-1.02645e-06 -1.39743e-07 -0.00100144)
(-8.18188e-07 -1.37274e-07 -0.00100174)
(-5.27974e-07 -1.35485e-07 -0.00100195)
(-1.82409e-07 -1.34329e-07 -0.00100206)
(-1.61371e-06 -1.24708e-06 -0.00100048)
(-1.46195e-06 -1.22087e-06 -0.00100097)
(-1.16524e-06 -1.19887e-06 -0.00100139)
(-7.51801e-07 -1.18259e-06 -0.0010017)
(-2.59609e-07 -1.17193e-06 -0.00100187)
(-1.58663e-06 -1.11207e-06 -0.00100085)
(-1.43783e-06 -1.087e-06 -0.00100133)
(-1.14643e-06 -1.06648e-06 -0.00100174)
(-7.39888e-07 -1.05157e-06 -0.00100204)
(-2.55606e-07 -1.042e-06 -0.00100221)
(-1.56209e-06 -8.74254e-07 -0.00100115)
(-1.41637e-06 -8.53273e-07 -0.00100162)
(-1.12999e-06 -8.36283e-07 -0.00100203)
(-7.2965e-07 -8.23932e-07 -0.00100233)
(-2.52219e-07 -8.16146e-07 -0.00100249)
(-1.54298e-06 -5.58694e-07 -0.00100137)
(-1.39966e-06 -5.44729e-07 -0.00100183)
(-1.11706e-06 -5.33473e-07 -0.00100223)
(-7.21478e-07 -5.25284e-07 -0.00100252)
(-2.49491e-07 -5.20232e-07 -0.00100268)
(-1.52981e-06 -1.92052e-07 -0.00100149)
(-1.38812e-06 -1.8722e-07 -0.00100194)
(-1.10822e-06 -1.8337e-07 -0.00100234)
(-7.16027e-07 -1.80616e-07 -0.00100263)
(-2.47725e-07 -1.78976e-07 -0.00100278)
(-2.19499e-06 -1.68904e-06 -0.00100065)
(-1.99034e-06 -1.64859e-06 -0.00100132)
(-1.58858e-06 -1.61547e-06 -0.0010019)
(-1.02606e-06 -1.59048e-06 -0.00100233)
(-3.54673e-07 -1.57469e-06 -0.00100256)
(-2.15319e-06 -1.49961e-06 -0.00100115)
(-1.95336e-06 -1.46045e-06 -0.0010018)
(-1.55998e-06 -1.42954e-06 -0.00100237)
(-1.00785e-06 -1.40685e-06 -0.00100278)
(-3.48601e-07 -1.3931e-06 -0.001003)
(-2.11482e-06 -1.17484e-06 -0.00100156)
(-1.92027e-06 -1.14145e-06 -0.00100219)
(-1.53522e-06 -1.11534e-06 -0.00100275)
(-9.92808e-07 -1.09609e-06 -0.00100315)
(-3.43891e-07 -1.08476e-06 -0.00100337)
(-2.08417e-06 -7.49675e-07 -0.00100185)
(-1.89357e-06 -7.26956e-07 -0.00100247)
(-1.51459e-06 -7.09469e-07 -0.00100301)
(-9.79618e-07 -6.96418e-07 -0.0010034)
(-3.3954e-07 -6.88992e-07 -0.00100362)
(-2.06353e-06 -2.57847e-07 -0.00100201)
(-1.87588e-06 -2.49894e-07 -0.00100261)
(-1.50148e-06 -2.44099e-07 -0.00100315)
(-9.71782e-07 -2.39873e-07 -0.00100354)
(-3.37213e-07 -2.37729e-07 -0.00100376)
(-2.98685e-06 -2.2855e-06 -0.00100091)
(-2.71055e-06 -2.22221e-06 -0.00100181)
(-2.16781e-06 -2.17348e-06 -0.00100261)
(-1.4021e-06 -2.13465e-06 -0.00100319)
(-4.85519e-07 -2.11169e-06 -0.0010035)
(-2.92227e-06 -2.01696e-06 -0.00100157)
(-2.65393e-06 -1.95469e-06 -0.00100244)
(-2.12471e-06 -1.90977e-06 -0.00100322)
(-1.37406e-06 -1.87548e-06 -0.00100378)
(-4.76384e-07 -1.85715e-06 -0.00100409)
(-2.86209e-06 -1.57264e-06 -0.00100211)
(-2.60336e-06 -1.51808e-06 -0.00100295)
(-2.08892e-06 -1.47869e-06 -0.00100372)
(-1.35382e-06 -1.44799e-06 -0.00100427)
(-4.71223e-07 -1.43206e-06 -0.00100458)
(-2.81167e-06 -1.00242e-06 -0.00100249)
(-2.55959e-06 -9.64061e-07 -0.0010033)
(-2.05456e-06 -9.37475e-07 -0.00100405)
(-1.3306e-06 -9.15437e-07 -0.00100458)
(-4.63523e-07 -9.04901e-07 -0.00100487)
(-2.77878e-06 -3.45793e-07 -0.0010027)
(-2.53263e-06 -3.32173e-07 -0.00100349)
(-2.03587e-06 -3.24295e-07 -0.00100424)
(-1.32045e-06 -3.17744e-07 -0.00100476)
(-4.61671e-07 -3.16155e-07 -0.00100506)
(-4.067e-06 -3.08937e-06 -0.00100127)
(-3.69172e-06 -2.98549e-06 -0.00100249)
(-2.96231e-06 -2.91776e-06 -0.00100359)
(-1.91887e-06 -2.85483e-06 -0.00100438)
(-6.67112e-07 -2.82271e-06 -0.00100483)
(-3.96644e-06 -2.70416e-06 -0.00100216)
(-3.6047e-06 -2.60056e-06 -0.00100331)
(-2.89776e-06 -2.54176e-06 -0.00100439)
(-1.87344e-06 -2.4901e-06 -0.00100514)
(-6.52718e-07 -2.47123e-06 -0.00100557)
(-3.87158e-06 -2.09398e-06 -0.00100287)
(-3.52931e-06 -2.00009e-06 -0.00100396)
(-2.85229e-06 -1.94366e-06 -0.00100505)
(-1.85418e-06 -1.89116e-06 -0.0010058)
(-6.53589e-07 -1.87083e-06 -0.00100627)
(-3.78538e-06 -1.33546e-06 -0.00100335)
(-3.45385e-06 -1.26604e-06 -0.00100438)
(-2.78876e-06 -1.22826e-06 -0.00100544)
(-1.80485e-06 -1.18603e-06 -0.00100611)
(-6.36432e-07 -1.17226e-06 -0.00100654)
(-3.7315e-06 -4.65324e-07 -0.00100365)
(-3.41409e-06 -4.39786e-07 -0.00100463)
(-2.76617e-06 -4.33135e-07 -0.00100571)
(-1.79704e-06 -4.22987e-07 -0.00100637)
(-6.41079e-07 -4.27997e-07 -0.00100684)
(-5.54283e-06 -4.17256e-06 -0.00100185)
(-5.02481e-06 -3.98081e-06 -0.00100341)
(-4.05696e-06 -3.90234e-06 -0.00100498)
(-2.63186e-06 -3.78835e-06 -0.00100603)
(-9.2501e-07 -3.74677e-06 -0.0010067)
(-5.38274e-06 -3.61632e-06 -0.00100302)
(-4.88864e-06 -3.42392e-06 -0.00100443)
(-3.95995e-06 -3.37501e-06 -0.00100602)