/*--------------------------------*- C++ -*----------------------------------*\
| =========                 |                                                 |
| \\      /  F ield         | OpenFOAM: The Open Source CFD Toolbox           |
|  \\    /   O peration     | Version:  5.x                                   |
|   \\  /    A nd           | Web:      www.OpenFOAM.org                      |
|    \\/     M anipulation  |                                                 |
\*---------------------------------------------------------------------------*/
FoamFile
{
    version     2.0;
    format      ascii;
    class       volVectorField;
    location    "0.1";
    object      U;
}
// * * * * * * * * * * * * * * * * * * * * * * * * * * * * * * * * * * * * * //

dimensions      [0 1 -1 0 0 0 0];

internalField   nonuniform List<vector> 
2250
(
(-2.03858e-10 -1.69318e-10 -0.001)
(-1.86284e-10 -1.83223e-10 -0.001)
(-1.62294e-10 -1.96977e-10 -0.001)
(-1.06998e-10 -1.9427e-10 -0.001)
(-3.75542e-11 -1.88685e-10 -0.001)
(-2.22682e-10 -1.53139e-10 -0.001)
(-2.13497e-10 -1.82635e-10 -0.001)
(-1.60225e-10 -1.79899e-10 -0.001)
(-9.82663e-11 -1.71091e-10 -0.001)
(-3.38342e-11 -1.65938e-10 -0.001)
(-2.43414e-10 -1.4042e-10 -0.001)
(-2.13028e-10 -1.42386e-10 -0.001)
(-1.5077e-10 -1.32741e-10 -0.001)
(-9.34665e-11 -1.25877e-10 -0.001)
(-3.28138e-11 -1.24963e-10 -0.001)
(-2.45216e-10 -9.53424e-11 -0.001)
(-2.05772e-10 -8.91882e-11 -0.001)
(-1.43713e-10 -8.34726e-11 -0.001)
(-9.07632e-11 -8.06187e-11 -0.001)
(-3.31642e-11 -8.31254e-11 -0.001)
(-2.40038e-10 -3.41719e-11 -0.001)
(-2.00662e-10 -3.12607e-11 -0.001)
(-1.41882e-10 -2.95213e-11 -0.001)
(-9.30997e-11 -2.97182e-11 -0.001)
(-3.54054e-11 -3.19596e-11 -0.001)
(-5.81894e-10 -4.99315e-10 -0.001)
(-5.43389e-10 -5.1848e-10 -0.001)
(-4.42536e-10 -5.34127e-10 -0.001)
(-2.91033e-10 -5.24992e-10 -0.001)
(-1.01964e-10 -5.11819e-10 -0.001)
(-6.1276e-10 -4.71109e-10 -0.001)
(-5.73996e-10 -5.04273e-10 -0.001)
(-4.31321e-10 -4.90071e-10 -0.001)
(-2.70057e-10 -4.65013e-10 -0.001)
(-9.46994e-11 -4.57245e-10 -0.001)
(-6.4137e-10 -3.951e-10 -0.001)
(-5.62388e-10 -3.87984e-10 -0.001)
(-4.03367e-10 -3.59201e-10 -0.001)
(-2.5919e-10 -3.42394e-10 -0.001)
(-9.50788e-11 -3.47474e-10 -0.001)
(-6.389e-10 -2.63375e-10 -0.001)
(-5.38038e-10 -2.44031e-10 -0.001)
(-3.85728e-10 -2.30707e-10 -0.001)
(-2.58932e-10 -2.30225e-10 -0.001)
(-1.0029e-10 -2.4446e-10 -0.001)
(-6.23635e-10 -9.29683e-11 -0.001)
(-5.28644e-10 -8.57751e-11 -0.001)
(-3.88847e-10 -8.45365e-11 -0.001)
(-2.72879e-10 -8.95263e-11 -0.001)
(-1.09441e-10 -9.87057e-11 -0.001)
(-1.06305e-09 -9.23173e-10 -0.001)
(-1.01596e-09 -9.2878e-10 -0.001)
(-8.12195e-10 -9.39317e-10 -0.001)
(-5.29247e-10 -9.22987e-10 -0.001)
(-1.85775e-10 -9.04037e-10 -0.001)
(-1.07747e-09 -9.06786e-10 -0.001)
(-1.01385e-09 -9.01403e-10 -0.001)
(-7.79102e-10 -8.57471e-10 -0.001)
(-5.00912e-10 -8.17225e-10 -0.001)
(-1.78399e-10 -8.09667e-10 -0.001)
(-1.09529e-09 -7.26011e-10 -0.001)
(-9.66632e-10 -6.88813e-10 -0.001)
(-7.28143e-10 -6.36646e-10 -0.001)
(-4.83043e-10 -6.10342e-10 -0.001)
(-1.7964e-10 -6.18539e-10 -0.001)
(-1.08167e-09 -4.64701e-10 -0.001)
(-9.24339e-10 -4.35852e-10 -0.001)
(-7.00618e-10 -4.16105e-10 -0.001)
(-4.83825e-10 -4.17655e-10 -0.001)
(-1.87486e-10 -4.38812e-10 -0.001)
(-1.06072e-09 -1.60192e-10 -0.001)
(-9.16275e-10 -1.53119e-10 -0.001)
(-7.08703e-10 -1.53708e-10 -0.001)
(-5.05611e-10 -1.62327e-10 -0.001)
(-2.01099e-10 -1.75988e-10 -0.001)
(-1.66208e-09 -1.42555e-09 -0.001)
(-1.61057e-09 -1.41446e-09 -0.001)
(-1.29537e-09 -1.41309e-09 -0.001)
(-8.32125e-10 -1.38767e-09 -0.001)
(-2.89791e-10 -1.36511e-09 -0.001)
(-1.65467e-09 -1.41487e-09 -0.001)
(-1.56789e-09 -1.36338e-09 -0.001)
(-1.2275e-09 -1.2782e-09 -0.001)
(-7.95256e-10 -1.2242e-09 -0.001)
(-2.81191e-10 -1.21201e-09 -0.001)
(-1.65021e-09 -1.12282e-09 -0.001)
(-1.47389e-09 -1.04532e-09 -0.001)
(-1.15637e-09 -9.72501e-10 -0.001)
(-7.68209e-10 -9.36548e-10 -0.001)
(-2.79686e-10 -9.39071e-10 -0.001)
(-1.62196e-09 -6.99396e-10 -0.001)
(-1.41737e-09 -6.6567e-10 -0.001)
(-1.11871e-09 -6.37323e-10 -0.001)
(-7.63428e-10 -6.33587e-10 -0.001)
(-2.85215e-10 -6.50288e-10 -0.001)
(-1.60135e-09 -2.37299e-10 -0.001)
(-1.40922e-09 -2.32638e-10 -0.001)
(-1.1223e-09 -2.31525e-10 -0.001)
(-7.80901e-10 -2.38097e-10 -0.001)
(-2.96922e-10 -2.49897e-10 -0.001)
(-2.505e-09 -2.09011e-09 -0.001)
(-2.34317e-09 -2.01249e-09 -0.001)
(-1.90054e-09 -1.99063e-09 -0.001)
(-1.19937e-09 -1.95668e-09 -0.001)
(-4.10277e-10 -1.93549e-09 -0.001)
(-2.41834e-09 -1.97586e-09 -0.001)
(-2.28604e-09 -1.9077e-09 -0.001)
(-1.79796e-09 -1.78516e-09 -0.001)
(-1.15397e-09 -1.72227e-09 -0.001)
(-4.00268e-10 -1.70607e-09 -0.00100001)
(-2.38201e-09 -1.59167e-09 -0.001)
(-2.15246e-09 -1.47596e-09 -0.001)
(-1.71538e-09 -1.38984e-09 -0.001)
(-1.12348e-09 -1.35047e-09 -0.00100001)
(-3.97044e-10 -1.34781e-09 -0.00100001)
(-2.33576e-09 -9.87418e-10 -0.001)
(-2.08392e-09 -9.43074e-10 -0.001)
(-1.67244e-09 -9.07589e-10 -0.00100001)
(-1.11432e-09 -8.97935e-10 -0.00100001)
(-3.99895e-10 -9.06872e-10 -0.00100001)
(-2.3141e-09 -3.34167e-10 -0.001)
(-2.06873e-09 -3.27276e-10 -0.001)
(-1.66719e-09 -3.22604e-10 -0.00100001)
(-1.12232e-09 -3.24964e-10 -0.00100001)
(-4.06776e-10 -3.3199e-10 -0.00100001)
(-3.53012e-09 -2.86572e-09 -0.001)
(-3.31775e-09 -2.78632e-09 -0.001)
(-2.61203e-09 -2.74363e-09 -0.001)
(-1.63603e-09 -2.7124e-09 -0.00100001)
(-5.52768e-10 -2.6992e-09 -0.00100001)
(-3.43102e-09 -2.71387e-09 -0.001)
(-3.19133e-09 -2.57489e-09 -0.001)
(-2.50419e-09 -2.45163e-09 -0.00100001)
(-1.59482e-09 -2.3972e-09 -0.00100001)
(-5.45805e-10 -2.38538e-09 -0.00100001)
(-3.3599e-09 -2.14178e-09 -0.001)
(-3.05552e-09 -2.01093e-09 -0.00100001)
(-2.43471e-09 -1.93578e-09 -0.00100001)
(-1.57429e-09 -1.90681e-09 -0.00100001)
(-5.45146e-10 -1.90421e-09 -0.00100001)
(-3.30039e-09 -1.34769e-09 -0.001)
(-2.98491e-09 -1.28971e-09 -0.00100001)
(-2.40003e-09 -1.25894e-09 -0.00100001)
(-1.56663e-09 -1.24869e-09 -0.00100001)
(-5.46444e-10 -1.25031e-09 -0.00100001)
(-3.27557e-09 -4.5867e-10 -0.001)
(-2.9611e-09 -4.45403e-10 -0.00100001)
(-2.38932e-09 -4.40192e-10 -0.00100001)
(-1.56503e-09 -4.38918e-10 -0.00100001)
(-5.47852e-10 -4.40532e-10 -0.00100001)
(-4.81733e-09 -3.84949e-09 -0.001)
(-4.44947e-09 -3.77669e-09 -0.001)
(-3.47816e-09 -3.75611e-09 -0.00100001)
(-2.18228e-09 -3.74884e-09 -0.00100001)
(-7.37246e-10 -3.74776e-09 -0.00100001)
(-4.71607e-09 -3.5738e-09 -0.001)
(-4.34382e-09 -3.45276e-09 -0.00100001)
(-3.40403e-09 -3.36769e-09 -0.00100001)
(-2.16525e-09 -3.34198e-09 -0.00100001)
(-7.39389e-10 -3.34195e-09 -0.00100001)
(-4.65318e-09 -2.82785e-09 -0.001)
(-4.24336e-09 -2.71596e-09 -0.00100001)
(-3.36789e-09 -2.67285e-09 -0.00100001)
(-2.16289e-09 -2.66267e-09 -0.00100001)
(-7.4306e-10 -2.66138e-09 -0.00100001)
(-4.60153e-09 -1.8061e-09 -0.00100001)
(-4.18824e-09 -1.74764e-09 -0.00100001)
(-3.35068e-09 -1.73101e-09 -0.00100001)
(-2.15849e-09 -1.72321e-09 -0.00100001)
(-7.42577e-10 -1.71903e-09 -0.00100001)
(-4.57682e-09 -6.19773e-10 -0.00100001)
(-4.1602e-09 -6.02924e-10 -0.00100001)
(-3.33736e-09 -5.99328e-10 -0.00100001)
(-2.15005e-09 -5.95446e-10 -0.00100001)
(-7.40396e-10 -5.93543e-10 -0.00100001)
(-6.54086e-09 -5.21404e-09 -0.001)
(-5.79354e-09 -5.11377e-09 -0.00100001)
(-4.59335e-09 -5.13262e-09 -0.00100001)
(-2.91332e-09 -5.15675e-09 -0.00100001)
(-9.92295e-10 -5.16434e-09 -0.00100001)
(-6.40594e-09 -4.6036e-09 -0.001)
(-5.83412e-09 -4.62565e-09 -0.00100001)
(-4.59973e-09 -4.61642e-09 -0.00100001)
(-2.93523e-09 -4.62885e-09 -0.00100001)
(-1.00651e-09 -4.64091e-09 -0.00100001)
(-6.37651e-09 -3.72385e-09 -0.00100001)
(-5.80636e-09 -3.67954e-09 -0.00100001)
(-4.59723e-09 -3.66894e-09 -0.00100001)
(-2.94662e-09 -3.67293e-09 -0.00100001)
(-1.0124e-09 -3.67126e-09 -0.00100001)
(-6.34752e-09 -2.41388e-09 -0.00100001)
(-5.77841e-09 -2.37296e-09 -0.00100001)
(-4.59305e-09 -2.36695e-09 -0.00100001)
(-2.94405e-09 -2.36201e-09 -0.00100001)
(-1.011e-09 -2.35626e-09 -0.00100001)
(-6.3222e-09 -8.35512e-10 -0.00100001)
(-5.74831e-09 -8.19194e-10 -0.00100001)
(-4.57793e-09 -8.15818e-10 -0.00100001)
(-2.93479e-09 -8.12019e-10 -0.00100001)
(-1.00878e-09 -8.10167e-10 -0.00100001)
(-8.8689e-09 -7.10311e-09 -0.001)
(-7.68309e-09 -6.9761e-09 -0.00100001)
(-6.14505e-09 -7.0083e-09 -0.00100001)
(-3.937e-09 -7.04487e-09 -0.00100001)
(-1.35236e-09 -7.04948e-09 -0.00100001)
(-8.70567e-09 -6.10107e-09 -0.00100001)
(-7.84737e-09 -6.24694e-09 -0.00100001)
(-6.22054e-09 -6.30059e-09 -0.00100001)
(-3.98727e-09 -6.33859e-09 -0.00100001)
(-1.37337e-09 -6.3548e-09 -0.00100001)
(-8.69462e-09 -4.9789e-09 -0.00100001)
(-7.88261e-09 -4.99955e-09 -0.00100001)
(-6.23764e-09 -5.00732e-09 -0.00100001)
(-4.00327e-09 -5.01685e-09 -0.00100001)
(-1.37961e-09 -5.01478e-09 -0.00100002)
(-8.6792e-09 -3.25048e-09 -0.00100001)
(-7.87473e-09 -3.22836e-09 -0.00100001)
(-6.23774e-09 -3.22536e-09 -0.00100001)
(-4.0037e-09 -3.22522e-09 -0.00100002)
(-1.37985e-09 -3.22103e-09 -0.00100002)
(-8.64581e-09 -1.13002e-09 -0.00100001)
(-7.84244e-09 -1.11515e-09 -0.00100001)
(-6.22313e-09 -1.11174e-09 -0.00100001)
(-3.99744e-09 -1.11136e-09 -0.00100002)
(-1.37843e-09 -1.11043e-09 -0.00100002)
(-1.19977e-08 -9.67325e-09 -0.001)
(-1.04738e-08 -9.55173e-09 -0.00100001)
(-8.34905e-09 -9.55573e-09 -0.00100001)
(-5.37164e-09 -9.57514e-09 -0.00100001)
(-1.85253e-09 -9.56654e-09 -0.00100001)
(-1.18442e-08 -8.37907e-09 -0.00100001)
(-1.06227e-08 -8.51454e-09 -0.00100001)
(-8.43008e-09 -8.57638e-09 -0.00100001)
(-5.42023e-09 -8.61416e-09 -0.00100002)
(-1.87086e-09 -8.62381e-09 -0.00100002)
(-1.18172e-08 -6.76619e-09 -0.00100001)
(-1.06711e-08 -6.80265e-09 -0.00100001)
(-8.44996e-09 -6.81356e-09 -0.00100002)
(-5.43559e-09 -6.82383e-09 -0.00100002)
(-1.87736e-09 -6.82088e-09 -0.00100002)
(-1.17966e-08 -4.40489e-09 -0.00100001)
(-1.06686e-08 -4.39362e-09 -0.00100002)
(-8.45114e-09 -4.39245e-09 -0.00100002)
(-5.4399e-09 -4.39702e-09 -0.00100002)
(-1.87973e-09 -4.39287e-09 -0.00100002)
(-1.17537e-08 -1.5289e-09 -0.00100001)
(-1.06383e-08 -1.51853e-09 -0.00100002)
(-8.43783e-09 -1.51746e-09 -0.00100002)
(-5.43401e-09 -1.52002e-09 -0.00100002)
(-1.87741e-09 -1.51835e-09 -0.00100002)
(-1.61778e-08 -1.31245e-08 -0.00100001)
(-1.44047e-08 -1.30501e-08 -0.00100001)
(-1.14024e-08 -1.30115e-08 -0.00100002)
(-7.33706e-09 -1.29978e-08 -0.00100002)
(-2.53085e-09 -1.29734e-08 -0.00100002)
(-1.60815e-08 -1.16333e-08 -0.00100001)
(-1.4424e-08 -1.16479e-08 -0.00100002)
(-1.14361e-08 -1.1675e-08 -0.00100002)
(-7.3614e-09 -1.16929e-08 -0.00100002)
(-2.54115e-09 -1.16884e-08 -0.00100002)
(-1.6027e-08 -9.25059e-09 -0.00100001)
(-1.44464e-08 -9.26374e-09 -0.00100002)
(-1.14492e-08 -9.27116e-09 -0.00100002)
(-7.37314e-09 -9.27754e-09 -0.00100003)
(-2.54723e-09 -9.26919e-09 -0.00100003)
(-1.59951e-08 -5.98463e-09 -0.00100002)
(-1.44425e-08 -5.98228e-09 -0.00100002)
(-1.14497e-08 -5.98387e-09 -0.00100003)
(-7.37633e-09 -5.98626e-09 -0.00100003)
(-2.54899e-09 -5.97878e-09 -0.00100003)
(-1.59491e-08 -2.0699e-09 -0.00100002)
(-1.44179e-08 -2.06935e-09 -0.00100002)
(-1.1432e-08 -2.07097e-09 -0.00100003)
(-7.36538e-09 -2.07183e-09 -0.00100003)
(-2.54551e-09 -2.06922e-09 -0.00100003)
(-2.18536e-08 -1.78316e-08 -0.00100001)
(-1.96671e-08 -1.77765e-08 -0.00100001)
(-1.55418e-08 -1.77106e-08 -0.00100002)
(-9.99235e-09 -1.76644e-08 -0.00100002)
(-3.44494e-09 -1.76215e-08 -0.00100003)
(-2.17887e-08 -1.60059e-08 -0.00100001)
(-1.95851e-08 -1.59273e-08 -0.00100002)
(-1.55207e-08 -1.59086e-08 -0.00100003)
(-9.9863e-09 -1.58979e-08 -0.00100003)
(-3.44499e-09 -1.58716e-08 -0.00100003)
(-2.17229e-08 -1.26496e-08 -0.00100002)
(-1.95699e-08 -1.2634e-08 -0.00100002)
(-1.55148e-08 -1.26266e-08 -0.00100003)
(-9.9861e-09 -1.26181e-08 -0.00100003)
(-3.44703e-09 -1.25958e-08 -0.00100004)
(-2.16826e-08 -8.1483e-09 -0.00100002)
(-1.95594e-08 -8.15185e-09 -0.00100003)
(-1.55046e-08 -8.14751e-09 -0.00100003)
(-9.97843e-09 -8.13743e-09 -0.00100004)
(-3.44466e-09 -8.12364e-09 -0.00100004)
(-2.16317e-08 -2.81278e-09 -0.00100002)
(-1.95313e-08 -2.82035e-09 -0.00100003)
(-1.54717e-08 -2.81974e-09 -0.00100004)
(-9.9587e-09 -2.81485e-09 -0.00100004)
(-3.44109e-09 -2.81241e-09 -0.00100004)
(-2.95638e-08 -2.42306e-08 -0.00100001)
(-2.67165e-08 -2.41706e-08 -0.00100002)
(-2.11349e-08 -2.40943e-08 -0.00100003)
(-1.35835e-08 -2.40211e-08 -0.00100003)
(-4.68177e-09 -2.39515e-08 -0.00100004)
(-2.95055e-08 -2.18761e-08 -0.00100002)
(-2.65757e-08 -2.17413e-08 -0.00100003)
(-2.10682e-08 -2.16763e-08 -0.00100003)
(-1.35427e-08 -2.16269e-08 -0.00100004)
(-4.66805e-09 -2.15666e-08 -0.00100004)
(-2.94419e-08 -1.72874e-08 -0.00100002)
(-2.65166e-08 -1.72401e-08 -0.00100003)
(-2.10237e-08 -1.71965e-08 -0.00100004)
(-1.35157e-08 -1.71574e-08 -0.00100005)
(-4.66024e-09 -1.71116e-08 -0.00100005)
(-2.93905e-08 -1.11167e-08 -0.00100003)
(-2.64811e-08 -1.11049e-08 -0.00100004)
(-2.09851e-08 -1.10772e-08 -0.00100005)
(-1.34891e-08 -1.10484e-08 -0.00100005)
(-4.65229e-09 -1.10246e-08 -0.00100005)
(-2.93175e-08 -3.83443e-09 -0.00100003)
(-2.64259e-08 -3.83629e-09 -0.00100004)
(-2.09283e-08 -3.8269e-09 -0.00100005)
(-1.34584e-08 -3.81656e-09 -0.00100005)
(-4.64718e-09 -3.81294e-09 -0.00100006)
(-4.00705e-08 -3.29297e-08 -0.00100001)
(-3.62589e-08 -3.28456e-08 -0.00100003)
(-2.87246e-08 -3.27476e-08 -0.00100004)
(-1.84577e-08 -3.26449e-08 -0.00100004)
(-6.35831e-09 -3.25391e-08 -0.00100005)
(-3.99968e-08 -2.98121e-08 -0.00100002)
(-3.60629e-08 -2.96175e-08 -0.00100004)
(-2.86067e-08 -2.94939e-08 -0.00100005)
(-1.83771e-08 -2.93929e-08 -0.00100005)
(-6.32976e-09 -2.92905e-08 -0.00100006)
(-3.99162e-08 -2.35967e-08 -0.00100003)
(-3.59407e-08 -2.34942e-08 -0.00100004)
(-2.85044e-08 -2.33935e-08 -0.00100005)
(-1.83113e-08 -2.33133e-08 -0.00100006)
(-6.30868e-09 -2.32388e-08 -0.00100007)
(-3.98362e-08 -1.51597e-08 -0.00100004)
(-3.58548e-08 -1.51028e-08 -0.00100005)
(-2.84253e-08 -1.50395e-08 -0.00100006)
(-1.8265e-08 -1.49938e-08 -0.00100007)
(-6.29621e-09 -1.49565e-08 -0.00100007)
(-3.97214e-08 -5.22285e-09 -0.00100004)
(-3.57509e-08 -5.20397e-09 -0.00100005)
(-2.83426e-08 -5.18375e-09 -0.00100006)
(-1.82221e-08 -5.17164e-09 -0.00100007)
(-6.28618e-09 -5.16363e-09 -0.00100007)
(-5.44592e-08 -4.47972e-08 -0.00100002)
(-4.92634e-08 -4.46485e-08 -0.00100003)
(-3.90586e-08 -4.44848e-08 -0.00100005)
(-2.50909e-08 -4.43339e-08 -0.00100006)
(-8.63628e-09 -4.41814e-08 -0.00100006)
(-5.43234e-08 -4.05671e-08 -0.00100003)
(-4.89831e-08 -4.02797e-08 -0.00100005)
(-3.88691e-08 -4.00752e-08 -0.00100006)
(-2.49693e-08 -3.99138e-08 -0.00100007)
(-8.598e-09 -3.97714e-08 -0.00100008)
(-5.41727e-08 -3.21384e-08 -0.00100004)
(-4.87714e-08 -3.19509e-08 -0.00100006)
(-3.86987e-08 -3.1783e-08 -0.00100007)
(-2.4865e-08 -3.16623e-08 -0.00100008)
(-8.56593e-09 -3.15575e-08 -0.00100009)
(-5.40322e-08 -2.06247e-08 -0.00100005)
(-4.86209e-08 -2.05096e-08 -0.00100007)
(-3.85798e-08 -2.04122e-08 -0.00100008)
(-2.48021e-08 -2.03539e-08 -0.00100009)
(-8.54929e-09 -2.02996e-08 -0.0010001)
(-5.38639e-08 -7.09485e-09 -0.00100006)
(-4.84642e-08 -7.05401e-09 -0.00100007)
(-3.84709e-08 -7.02628e-09 -0.00100009)
(-2.47438e-08 -7.0139e-09 -0.0010001)
(-8.53192e-09 -6.99929e-09 -0.0010001)
(-7.41611e-08 -6.09961e-08 -0.00100002)
(-6.7023e-08 -6.07031e-08 -0.00100005)
(-5.31637e-08 -6.04211e-08 -0.00100006)
(-3.41482e-08 -6.01927e-08 -0.00100008)
(-1.17499e-08 -5.99757e-08 -0.00100009)
(-7.38754e-08 -5.51603e-08 -0.00100004)
(-6.6621e-08 -5.47462e-08 -0.00100006)
(-5.28702e-08 -5.44262e-08 -0.00100008)
(-3.39779e-08 -5.41929e-08 -0.0010001)
(-1.17036e-08 -5.40058e-08 -0.0010001)
(-7.35987e-08 -4.3703e-08 -0.00100006)
(-6.62889e-08 -4.34046e-08 -0.00100008)
(-5.26186e-08 -4.31583e-08 -0.0010001)
(-3.38342e-08 -4.29919e-08 -0.00100011)
(-1.16614e-08 -4.2847e-08 -0.00100012)
(-7.33647e-08 -2.80213e-08 -0.00100007)
(-6.60671e-08 -2.785e-08 -0.00100009)
(-5.24566e-08 -2.77182e-08 -0.00100011)
(-3.37463e-08 -2.76374e-08 -0.00100012)
(-1.16354e-08 -2.75536e-08 -0.00100013)
(-7.31292e-08 -9.63201e-09 -0.00100007)
(-6.58564e-08 -9.57746e-09 -0.0010001)
(-5.23074e-08 -9.54171e-09 -0.00100012)
(-3.3658e-08 -9.5225e-09 -0.00100013)
(-1.16053e-08 -9.4962e-09 -0.00100014)
(-1.01017e-07 -8.30492e-08 -0.00100003)
(-9.12447e-08 -8.25032e-08 -0.00100006)
(-7.24072e-08 -8.20418e-08 -0.00100009)
(-4.65255e-08 -8.1697e-08 -0.00100011)
(-1.60164e-08 -8.13837e-08 -0.00100012)
(-1.00471e-07 -7.4982e-08 -0.00100006)
(-9.0659e-08 -7.43892e-08 -0.00100009)
(-7.19634e-08 -7.39045e-08 -0.00100011)
(-4.62738e-08 -7.35661e-08 -0.00100013)
(-1.59463e-08 -7.32973e-08 -0.00100014)
(-1.00011e-07 -5.9395e-08 -0.00100008)
(-9.01672e-08 -5.89551e-08 -0.00100011)
(-7.15953e-08 -5.85955e-08 -0.00100013)
(-4.60637e-08 -5.83489e-08 -0.00100015)
(-1.58824e-08 -5.81341e-08 -0.00100016)
(-9.96513e-08 -3.808e-08 -0.00100009)
(-8.98467e-08 -3.78379e-08 -0.00100012)
(-7.13561e-08 -3.76445e-08 -0.00100015)
(-4.59213e-08 -3.7509e-08 -0.00100017)
(-1.58361e-08 -3.73731e-08 -0.00100018)
(-9.93116e-08 -1.30938e-08 -0.0010001)
(-8.95548e-08 -1.30225e-08 -0.00100013)
(-7.11315e-08 -1.29666e-08 -0.00100016)
(-4.57761e-08 -1.29268e-08 -0.00100017)
(-1.57841e-08 -1.28801e-08 -0.00100018)
(-1.37492e-07 -1.12994e-07 -0.00100004)
(-1.24155e-07 -1.12073e-07 -0.00100008)
(-9.85716e-08 -1.11341e-07 -0.00100012)
(-6.33778e-08 -1.10809e-07 -0.00100014)
(-2.18346e-08 -1.10348e-07 -0.00100016)
(-1.36569e-07 -1.01861e-07 -0.00100007)
(-1.23291e-07 -1.01005e-07 -0.00100012)
(-9.79127e-08 -1.00289e-07 -0.00100015)
(-6.29866e-08 -9.97838e-08 -0.00100018)
(-2.17113e-08 -9.93706e-08 -0.00100019)
(-1.35835e-07 -8.06792e-08 -0.0010001)
(-1.22583e-07 -8.00434e-08 -0.00100014)
(-9.73658e-08 -7.95066e-08 -0.00100018)
(-6.26581e-08 -7.91216e-08 -0.00100021)
(-2.16054e-08 -7.87957e-08 -0.00100022)
(-1.35293e-07 -5.17593e-08 -0.00100012)
(-1.22101e-07 -5.13961e-08 -0.00100017)
(-9.69892e-08 -5.10878e-08 -0.0010002)
(-6.24242e-08 -5.0858e-08 -0.00100023)
(-2.15282e-08 -5.06496e-08 -0.00100024)
(-1.3479e-07 -1.78108e-08 -0.00100014)
(-1.2167e-07 -1.77007e-08 -0.00100018)
(-9.66435e-08 -1.76049e-08 -0.00100021)
(-6.21978e-08 -1.75312e-08 -0.00100024)
(-2.14485e-08 -1.74587e-08 -0.00100025)
(-1.86925e-07 -1.53543e-07 -0.00100005)
(-1.68808e-07 -1.52138e-07 -0.00100011)
(-1.34073e-07 -1.51011e-07 -0.00100016)
(-8.62422e-08 -1.50182e-07 -0.0010002)
(-2.97267e-08 -1.49502e-07 -0.00100021)
(-1.85521e-07 -1.38287e-07 -0.0010001)
(-1.6752e-07 -1.37026e-07 -0.00100016)
(-1.33092e-07 -1.35967e-07 -0.00100021)
(-8.56396e-08 -1.35211e-07 -0.00100024)
(-2.95229e-08 -1.3459e-07 -0.00100026)
(-1.8438e-07 -1.09523e-07 -0.00100014)
(-1.66488e-07 -1.08583e-07 -0.0010002)
(-1.32278e-07 -1.07777e-07 -0.00100024)
(-8.51359e-08 -1.07189e-07 -0.00100028)
(-2.93566e-08 -1.0671e-07 -0.0010003)
(-1.83552e-07 -7.03149e-08 -0.00100017)
(-1.6575e-07 -6.97441e-08 -0.00100022)
(-1.31696e-07 -6.92564e-08 -0.00100027)
(-8.47754e-08 -6.88957e-08 -0.00100031)
(-2.92389e-08 -6.8592e-08 -0.00100032)
(-1.82814e-07 -2.42133e-08 -0.00100018)
(-1.65099e-07 -2.40281e-08 -0.00100024)
(-1.31178e-07 -2.38698e-08 -0.00100029)
(-8.4441e-08 -2.37509e-08 -0.00100032)
(-2.91233e-08 -2.36452e-08 -0.00100034)
(-2.53963e-07 -2.08443e-07 -0.00100007)
(-2.29416e-07 -2.06383e-07 -0.00100015)
(-1.82256e-07 -2.04687e-07 -0.00100022)
(-1.17266e-07 -2.03423e-07 -0.00100027)
(-4.04296e-08 -2.02427e-07 -0.00100029)
(-2.51906e-07 -1.87655e-07 -0.00100014)
(-2.27509e-07 -1.85778e-07 -0.00100021)
(-1.80796e-07 -1.84202e-07 -0.00100028)
(-1.1636e-07 -1.83077e-07 -0.00100033)
(-4.0119e-08 -1.82173e-07 -0.00100035)
(-2.50172e-07 -1.48601e-07 -0.00100019)
(-2.25964e-07 -1.47176e-07 -0.00100027)
(-1.79584e-07 -1.45967e-07 -0.00100033)
(-1.15607e-07 -1.45087e-07 -0.00100038)
(-3.98692e-08 -1.4439e-07 -0.0010004)
(-2.48896e-07 -9.54307e-08 -0.00100023)
(-2.24842e-07 -9.45362e-08 -0.0010003)
(-1.78704e-07 -9.37859e-08 -0.00100037)
(-1.15061e-07 -9.3237e-08 -0.00100042)
(-3.96894e-08 -9.27877e-08 -0.00100044)
(-2.47824e-07 -3.28751e-08 -0.00100025)
(-2.23868e-07 -3.25722e-08 -0.00100032)
(-1.7794e-07 -3.23222e-08 -0.00100039)
(-1.14567e-07 -3.21378e-08 -0.00100044)
(-3.95162e-08 -3.19782e-08 -0.00100046)
(-3.45034e-07 -2.8287e-07 -0.0010001)
(-3.11732e-07 -2.79826e-07 -0.00100021)
(-2.47726e-07 -2.77282e-07 -0.0010003)
(-1.59445e-07 -2.75387e-07 -0.00100036)
(-5.49816e-08 -2.73931e-07 -0.0010004)
(-3.41973e-07 -2.54519e-07 -0.00100019)
(-3.08936e-07 -2.51727e-07 -0.00100029)
(-2.45566e-07 -2.49392e-07 -0.00100038)
(-1.58087e-07 -2.47706e-07 -0.00100044)
(-5.45165e-08 -2.4639e-07 -0.00100048)
(-3.39354e-07 -2.0151e-07 -0.00100026)
(-3.06606e-07 -1.99339e-07 -0.00100036)
(-2.43743e-07 -1.97512e-07 -0.00100045)
(-1.56949e-07 -1.96181e-07 -0.00100051)
(-5.41367e-08 -1.9515e-07 -0.00100055)
(-3.37397e-07 -1.29381e-07 -0.00100031)
(-3.04894e-07 -1.28006e-07 -0.00100041)
(-2.42403e-07 -1.26855e-07 -0.0010005)
(-1.56104e-07 -1.26007e-07 -0.00100056)
(-5.3851e-08 -1.25329e-07 -0.0010006)
(-3.35815e-07 -4.45626e-08 -0.00100034)
(-3.03462e-07 -4.40964e-08 -0.00100044)
(-2.41273e-07 -4.37078e-08 -0.00100053)
(-1.55365e-07 -4.34176e-08 -0.00100059)
(-5.35901e-08 -4.31755e-08 -0.00100062)
(-4.68853e-07 -3.8384e-07 -0.00100014)
(-4.23657e-07 -3.79282e-07 -0.00100028)
(-3.36803e-07 -3.75426e-07 -0.0010004)
(-2.1687e-07 -3.7257e-07 -0.00100049)
(-7.47994e-08 -3.70431e-07 -0.00100054)
(-4.64225e-07 -3.45066e-07 -0.00100025)
(-4.19519e-07 -3.40879e-07 -0.00100039)
(-3.33576e-07 -3.37384e-07 -0.00100051)
(-2.14813e-07 -3.34823e-07 -0.0010006)
(-7.40953e-08 -3.32882e-07 -0.00100065)
(-4.60225e-07 -2.73101e-07 -0.00100035)
(-4.15975e-07 -2.69767e-07 -0.00100049)
(-3.30799e-07 -2.66968e-07 -0.00100061)
(-2.13061e-07 -2.64918e-07 -0.0010007)
(-7.35031e-08 -2.63373e-07 -0.00100074)
(-4.5722e-07 -1.75266e-07 -0.00100042)
(-4.13327e-07 -1.73141e-07 -0.00100056)
(-3.28721e-07 -1.7135e-07 -0.00100068)
(-2.11736e-07 -1.70024e-07 -0.00100076)
(-7.30495e-08 -1.69004e-07 -0.00100081)
(-4.54844e-07 -6.03372e-08 -0.00100046)
(-4.11214e-07 -5.9623e-08 -0.0010006)
(-3.27037e-07 -5.90145e-08 -0.00100071)
(-2.10635e-07 -5.85581e-08 -0.0010008)
(-7.26624e-08 -5.81972e-08 -0.00100084)
(-6.37264e-07 -5.20888e-07 -0.00100019)
(-5.76038e-07 -5.13954e-07 -0.00100038)
(-4.58149e-07 -5.08053e-07 -0.00100055)
(-2.95125e-07 -5.03691e-07 -0.00100067)
(-1.01812e-07 -5.00523e-07 -0.00100073)
(-6.30184e-07 -4.67732e-07 -0.00100034)
(-5.69745e-07 -4.61321e-07 -0.00100054)
(-4.53213e-07 -4.55969e-07 -0.0010007)
(-2.91968e-07 -4.5203e-07 -0.00100082)
(-1.00735e-07 -4.49142e-07 -0.00100088)
(-6.23979e-07 -3.69886e-07 -0.00100048)
(-5.64274e-07 -3.647e-07 -0.00100066)
(-4.48929e-07 -3.60361e-07 -0.00100083)
(-2.89245e-07 -3.57181e-07 -0.00100094)
(-9.98067e-08 -3.54861e-07 -0.00100101)
(-6.19309e-07 -2.3723e-07 -0.00100057)
(-5.60139e-07 -2.33891e-07 -0.00100076)
(-4.45687e-07 -2.31082e-07 -0.00100092)
(-2.87177e-07 -2.29012e-07 -0.00100103)
(-9.90988e-08 -2.27487e-07 -0.00100109)
(-6.15719e-07 -8.16363e-08 -0.00100062)
(-5.56966e-07 -8.05081e-08 -0.00100081)
(-4.43164e-07 -7.95478e-08 -0.00100097)
(-2.85539e-07 -7.88357e-08 -0.00100108)
(-9.85269e-08 -7.83003e-08 -0.00100114)
(-8.66353e-07 -7.0686e-07 -0.00100026)
(-7.83576e-07 -6.96175e-07 -0.00100052)
(-6.23571e-07 -6.87112e-07 -0.00100075)
(-4.01863e-07 -6.80427e-07 -0.00100091)
(-1.38668e-07 -6.75704e-07 -0.001001)
(-8.55416e-07 -6.3374e-07 -0.00100047)
(-7.73862e-07 -6.23805e-07 -0.00100073)
(-6.15922e-07 -6.15505e-07 -0.00100095)
(-3.96979e-07 -6.09405e-07 -0.00100111)
(-1.37009e-07 -6.05097e-07 -0.0010012)
(-8.45737e-07 -5.00485e-07 -0.00100065)
(-7.6534e-07 -4.92365e-07 -0.0010009)
(-6.09268e-07 -4.85601e-07 -0.00100112)
(-3.92752e-07 -4.80658e-07 -0.00100128)
(-1.3557e-07 -4.77185e-07 -0.00100136)
(-8.38399e-07 -3.20706e-07 -0.00100077)
(-7.58866e-07 -3.15423e-07 -0.00100103)
(-6.04204e-07 -3.1101e-07 -0.00100124)
(-3.89531e-07 -3.07781e-07 -0.0010014)
(-1.34472e-07 -3.05511e-07 -0.00100148)
(-8.32958e-07 -1.10326e-07 -0.00100084)
(-7.54053e-07 -1.08519e-07 -0.00100109)
(-6.0041e-07 -1.07004e-07 -0.00100131)
(-3.87096e-07 -1.05894e-07 -0.00100146)
(-1.33633e-07 -1.05106e-07 -0.00100155)
(-1.17799e-06 -9.58933e-07 -0.00100035)
(-1.06619e-06 -9.42438e-07 -0.00100071)
(-8.49123e-07 -9.28543e-07 -0.00100102)
(-5.47551e-07 -9.1831e-07 -0.00100124)
(-1.89007e-07 -9.11262e-07 -0.00100136)
(-1.16103e-06 -8.57823e-07 -0.00100064)
(-1.05121e-06 -8.4241e-07 -0.00100099)
(-8.37318e-07 -8.29581e-07 -0.00100129)
(-5.40018e-07 -8.20166e-07 -0.00100151)
(-1.86458e-07 -8.13763e-07 -0.00100163)
(-1.14592e-06 -6.76207e-07 -0.00100087)
(-1.03794e-06 -6.63451e-07 -0.00100122)
(-8.27011e-07 -6.52911e-07 -0.00100152)
(-5.33509e-07 -6.45233e-07 -0.00100173)
(-1.84263e-07 -6.40062e-07 -0.00100185)
(-1.13433e-06 -4.32809e-07 -0.00100105)
(-1.02776e-06 -4.24404e-07 -0.00100139)
(-8.19084e-07 -4.17476e-07 -0.00100168)
(-5.28493e-07 -4.12441e-07 -0.00100189)
(-1.82568e-07 -4.09075e-07 -0.00100201)
(-1.126e-06 -1.48836e-07 -0.00100114)
(-1.02042e-06 -1.45932e-07 -0.00100147)
(-8.13374e-07 -1.43552e-07 -0.00100176)
(-5.24885e-07 -1.41833e-07 -0.00100198)
(-1.8135e-07 -1.40688e-07 -0.00100209)
(-1.60195e-06 -1.30013e-06 -0.00100048)
(-1.4511e-06 -1.27478e-06 -0.00100097)
(-1.15682e-06 -1.25362e-06 -0.00100139)
(-7.46564e-07 -1.23795e-06 -0.0010017)
(-2.5785e-07 -1.22746e-06 -0.00100186)
(-1.57576e-06 -1.15943e-06 -0.00100086)
(-1.42807e-06 -1.13546e-06 -0.00100134)
(-1.13877e-06 -1.11582e-06 -0.00100175)
(-7.35055e-07 -1.10142e-06 -0.00100205)
(-2.53979e-07 -1.09204e-06 -0.00100222)
(-1.55213e-06 -9.11736e-07 -0.00100118)
(-1.40749e-06 -8.91579e-07 -0.00100165)
(-1.12296e-06 -8.75228e-07 -0.00100206)
(-7.25212e-07 -8.63327e-07 -0.00100235)
(-2.50737e-07 -8.55702e-07 -0.00100251)
(-1.53367e-06 -5.82785e-07 -0.00100141)
(-1.39136e-06 -5.6928e-07 -0.00100187)
(-1.11049e-06 -5.58431e-07 -0.00100227)
(-7.17335e-07 -5.50543e-07 -0.00100256)
(-2.48103e-07 -5.45562e-07 -0.00100271)
(-1.52079e-06 -2.00371e-07 -0.00100154)
(-1.38012e-06 -1.95665e-07 -0.00100199)
(-1.10192e-06 -1.91969e-07 -0.00100238)
(-7.12022e-07 -1.89314e-07 -0.00100267)
(-2.46369e-07 -1.87686e-07 -0.00100282)
(-2.17896e-06 -1.76134e-06 -0.00100066)
(-1.97564e-06 -1.72236e-06 -0.00100132)
(-1.57714e-06 -1.69057e-06 -0.0010019)
(-1.01886e-06 -1.6665e-06 -0.00100232)
(-3.52227e-07 -1.65104e-06 -0.00100255)
(-2.13864e-06 -1.56412e-06 -0.00100118)
(-1.94028e-06 -1.52655e-06 -0.00100182)
(-1.54971e-06 -1.49694e-06 -0.00100239)
(-1.00136e-06 -1.4751e-06 -0.0010028)
(-3.46423e-07 -1.46174e-06 -0.00100302)
(-2.10161e-06 -1.22587e-06 -0.0010016)
(-1.90846e-06 -1.19361e-06 -0.00100223)
(-1.52594e-06 -1.16847e-06 -0.00100278)
(-9.86982e-07 -1.14992e-06 -0.00100319)
(-3.41972e-07 -1.13885e-06 -0.00100341)
(-2.07181e-06 -7.82467e-07 -0.00100191)
(-1.88259e-06 -7.60374e-07 -0.00100252)
(-1.50598e-06 -7.43519e-07 -0.00100306)
(-9.74196e-07 -7.30874e-07 -0.00100345)
(-3.37739e-07 -7.23589e-07 -0.00100367)
(-2.05162e-06 -2.6917e-07 -0.00100207)
(-1.86535e-06 -2.61408e-07 -0.00100267)
(-1.49325e-06 -2.55853e-07 -0.00100321)
(-9.66583e-07 -2.51746e-07 -0.0010036)
(-3.35507e-07 -2.49669e-07 -0.00100381)
(-2.96507e-06 -2.38413e-06 -0.00100092)
(-2.69065e-06 -2.32307e-06 -0.00100182)
(-2.15229e-06 -2.27645e-06 -0.0010026)
(-1.39222e-06 -2.23902e-06 -0.00100318)
(-4.82174e-07 -2.21668e-06 -0.0010035)
(-2.9028e-06 -2.10487e-06 -0.00100161)
(-2.63637e-06 -2.04483e-06 -0.00100248)
(-2.11094e-06 -2.0019e-06 -0.00100325)
(-1.3653e-06 -1.96895e-06 -0.00100381)
(-4.73471e-07 -1.95132e-06 -0.00100411)
(-2.84457e-06 -1.64202e-06 -0.00100218)
(-2.58768e-06 -1.58902e-06 -0.00100301)
(-2.07674e-06 -1.55114e-06 -0.00100378)
(-1.34617e-06 -1.52143e-06 -0.00100432)
(-4.68766e-07 -1.50597e-06 -0.00100463)
(-2.79537e-06 -1.04691e-06 -0.00100257)
(-2.5451e-06 -1.00945e-06 -0.00100338)
(-2.0433e-06 -9.83838e-07 -0.00100412)
(-1.32346e-06 -9.62353e-07 -0.00100465)
(-4.61231e-07 -9.52104e-07 -0.00100495)
(-2.76319e-06 -3.61158e-07 -0.00100279)
(-2.51885e-06 -3.47839e-07 -0.00100358)
(-2.02523e-06 -3.40343e-07 -0.00100432)
(-1.31375e-06 -3.34007e-07 -0.00100484)
(-4.596e-07 -3.32601e-07 -0.00100515)
(-4.03753e-06 -3.22411e-06 -0.00100129)
(-3.66476e-06 -3.12331e-06 -0.0010025)
(-2.94119e-06 -3.05901e-06 -0.00100359)
(-1.90535e-06 -2.99814e-06 -0.00100437)
(-6.62644e-07 -2.96714e-06 -0.00100482)
(-3.94035e-06 -2.82404e-06 -0.00100221)
(-3.58109e-06 -2.72338e-06 -0.00100335)
(-2.87934e-06 -2.66794e-06 -0.00100444)
(-1.86152e-06 -2.61832e-06 -0.00100518)
(-6.48856e-07 -2.60077e-06 -0.0010056)
(-3.84841e-06 -2.18817e-06 -0.00100297)
(-3.50865e-06 -2.09633e-06 -0.00100404)
(-2.83658e-06 -2.04239e-06 -0.00100514)
(-1.84427e-06 -1.99119e-06 -0.00100587)
(-6.50685e-07 -1.97173e-06 -0.00100634)
(-3.76396e-06 -1.39577e-06 -0.00100347)
(-3.43477e-06 -1.32747e-06 -0.00100449)
(-2.77412e-06 -1.29134e-06 -0.00100554)
(-1.7953e-06 -1.24971e-06 -0.00100621)
(-6.3364e-07 -1.23649e-06 -0.00100664)
(-3.71114e-06 -4.86256e-07 -0.00100378)
(-3.39623e-06 -4.61063e-07 -0.00100475)
(-2.75273e-06 -4.55234e-07 -0.00100583)
(-1.78843e-06 -4.45431e-07 -0.00100649)
(-6.38857e-07 -4.50958e-07 -0.00100695)
(-5.50262e-06 -4.35648e-06 -0.00100188)
(-4.98789e-06 -4.16848e-06 -0.00100342)
(-4.02821e-06 -4.09623e-06 -0.00100498)
(-2.61333e-06 -3.98482e-06 -0.00100603)
(-9.19303e-07 -3.9452e-06 -0.00100669)
(-5.34759e-06 -3.78e-06 -0.00100311)
(-4.85662e-06 -3.5908e-06 -0.0010045)
(-3.93537e-06 -3.54853e-06 -0.00100608)
(-2.5277e-06 -3.47124e-06 -0.00100701)
(-8.90999e-07 -3.47655e-06 -0.0010076)
(-5.20122e-06 -2.89723e-06 -0.00100413)
(-4.75641e-06 -2.72062e-06 -0.00100534)
(-3.90926e-06 -2.65735e-06 -0.00100706)
(-2.5493e-06 -2.55526e-06 -0.001008)
(-9.31592e-07 -2.5407e-06 -0.00100879)
(-5.04641e-06 -1.8577e-06 -0.00100473)
(-4.616e-06 -1.71567e-06 -0.00100582)
(-3.76989e-06 -1.67862e-06 -0.00100744)
(-2.41681e-06 -1.57777e-06 -0.00100819)
(-8.81696e-07 -1.56544e-06 -0.00100883)
(-4.95426e-06 -6.67249e-07 -0.00100522)
(-4.56629e-06 -6.08584e-07 -0.00100616)
(-3.76313e-06 -6.27782e-07 -0.00100793)
(-2.43487e-06 -6.09151e-07 -0.00100862)
(-9.21023e-07 -6.48816e-07 -0.00100943)