# Probe 0 (0 0 50)
# Probe 1 (0 0 -40)
#       Probe             0             1
#        Time
          100             (1.88847 -0.356748 -3.83521)             (-0.0361669 -0.540594 0.650627)
          200             (0.675456 0.691921 -3.07136)             (0.0103451 -0.00131877 -1.91678)
          300             (0.143169 0.208324 -3.17254)             (0.0214676 -0.00331573 -4.33009)
          400             (0.0338118 -0.0225473 -3.83475)             (0.0322817 -0.0568426 -4.66823)
          500             (0.0183761 -0.0754531 -4.39688)             (0.0375038 -0.127128 -4.80642)
          600             (0.0215586 -0.0792967 -4.79833)             (0.0499912 -0.126079 -4.93268)
          700             (0.0235553 -0.0701752 -5.08561)             (0.0686125 -0.0813039 -5.1566)
          800             (0.0241508 -0.0596217 -5.29612)             (0.0620915 -0.0488838 -5.41585)
          900             (0.0240048 -0.0504707 -5.45351)             (0.0423364 -0.0343897 -5.60266)
         1000             (0.0233947 -0.0430175 -5.57315)             (0.0312461 -0.0269293 -5.70729)
