/*--------------------------------*- C++ -*----------------------------------*\
| =========                 |                                                 |
| \\      /  F ield         | OpenFOAM: The Open Source CFD Toolbox           |
|  \\    /   O peration     | Version:  5.x                                   |
|   \\  /    A nd           | Web:      www.OpenFOAM.org                      |
|    \\/     M anipulation  |                                                 |
\*---------------------------------------------------------------------------*/
FoamFile
{
    version     2.0;
    format      ascii;
    class       surfaceScalarField;
    location    "0.01";
    object      phi;
}
// * * * * * * * * * * * * * * * * * * * * * * * * * * * * * * * * * * * * * //

dimensions      [0 3 -1 0 0 0 0];

internalField   nonuniform List<scalar> 
5825
(
-2.17471e-17
-1.4981e-17
-9.99999e-10
-8.27802e-17
-1.72887e-17
-9.99999e-10
-1.50155e-16
-3.01482e-17
-1e-09
-2.07916e-16
-3.04365e-17
-1e-09
-1.25358e-17
-1e-09
-2.41243e-17
-6.37621e-17
-9.99999e-10
-9.56631e-17
-7.61383e-17
-1e-09
-1.50566e-16
-8.45084e-17
-1e-09
-1.91543e-16
-6.9964e-17
-1e-09
-2.49183e-17
-1e-09
-3.63948e-17
-8.63206e-17
-1e-09
-1.03868e-16
-9.49723e-17
-1e-09
-1.35807e-16
-1.06822e-16
-1e-09
-1.47923e-16
-9.94624e-17
-1e-09
-6.00304e-17
-1e-09
-4.50064e-17
-5.88295e-17
-1e-09
-1.15696e-16
-9.27811e-17
-1e-09
-1.28322e-16
-1.23979e-16
-1e-09
-1.22219e-16
-1.28384e-16
-1e-09
-9.74658e-17
-1e-09
-7.86601e-17
-1e-09
-1.43851e-16
-1e-09
-1.17474e-16
-1e-09
-9.54379e-17
-1e-09
-1e-09
-7.55114e-17
-6.38116e-17
-9.99999e-10
-2.70721e-16
-9.42306e-17
-9.99999e-10
-4.0558e-16
-1.02368e-16
-1e-09
-5.10575e-16
-9.1851e-17
-1e-09
-4.83622e-17
-1e-09
-1.06141e-16
-2.32448e-16
-9.99999e-10
-2.78943e-16
-2.53566e-16
-9.99999e-10
-3.95428e-16
-2.66494e-16
-1e-09
-4.70186e-16
-2.27291e-16
-1e-09
-1.37584e-16
-1e-09
-1.27394e-16
-3.05381e-16
-1e-09
-2.9156e-16
-3.40264e-16
-1e-09
-3.55465e-16
-3.56266e-16
-1e-09
-3.83038e-16
-3.33614e-16
-1e-09
-2.39568e-16
-1e-09
-1.62139e-16
-3.16352e-16
-1e-09
-3.07768e-16
-3.91788e-16
-1e-09
-3.32574e-16
-4.25322e-16
-1e-09
-3.3201e-16
-4.10619e-16
-1e-09
-3.21173e-16
-1e-09
-2.38334e-16
-1e-09
-3.34906e-16
-1e-09
-2.70341e-16
-1e-09
-2.638e-16
-1e-09
-1e-09
-1.57979e-16
-1.65141e-16
-9.99999e-10
-4.5e-16
-2.14398e-16
-9.99999e-10
-6.00612e-16
-2.04133e-16
-9.99999e-10
-7.09311e-16
-1.79869e-16
-1e-09
-1.40671e-16
-1e-09
-2.07614e-16
-4.56327e-16
-9.99999e-10
-4.40418e-16
-4.80337e-16
-9.99999e-10
-5.78071e-16
-4.7769e-16
-9.99999e-10
-6.72149e-16
-4.25893e-16
-1e-09
-3.45592e-16
-1e-09
-2.31626e-16
-6.12548e-16
-1e-09
-4.37612e-16
-6.53557e-16
-1e-09
-5.25952e-16
-6.37767e-16
-1e-09
-5.91476e-16
-5.98565e-16
-1e-09
-5.35973e-16
-1e-09
-2.70834e-16
-7.25888e-16
-1e-09
-4.21974e-16
-7.54125e-16
-1e-09
-4.86617e-16
-7.34474e-16
-1e-09
-5.36224e-16
-6.72333e-16
-1e-09
-5.55201e-16
-1e-09
-2.98322e-16
-1e-09
-4.04403e-16
-1e-09
-4.17882e-16
-1e-09
-4.08836e-16
-1e-09
-1e-09
-2.68411e-16
-3.11488e-16
-9.99999e-10
-6.08684e-16
-3.66012e-16
-9.99999e-10
-7.70811e-16
-3.33296e-16
-9.99999e-10
-9.11007e-16
-3.07255e-16
-9.99999e-10
-2.75039e-16
-9.99999e-10
-3.22112e-16
-7.20149e-16
-9.99999e-10
-5.79553e-16
-7.26032e-16
-9.99999e-10
-7.49616e-16
-6.96739e-16
-9.99999e-10
-8.84747e-16
-6.46448e-16
-9.99999e-10
-5.95443e-16
-1e-09
-3.24116e-16
-9.5169e-16
-9.99999e-10
-5.50485e-16
-9.55243e-16
-9.99999e-10
-6.99355e-16
-9.03895e-16
-9.99999e-10
-8.3168e-16
-8.68476e-16
-1e-09
-8.59451e-16
-1e-09
-3.21956e-16
-1.10741e-15
-9.99999e-10
-4.99385e-16
-1.0582e-15
-1e-09
-6.64049e-16
-1.00183e-15
-1e-09
-8.11406e-16
-9.54952e-16
-1e-09
-9.14477e-16
-1e-09
-2.67182e-16
-1e-09
-4.45455e-16
-1e-09
-6.28074e-16
-1e-09
-7.6907e-16
-1e-09
-1e-09
-3.99232e-16
-4.86753e-16
-9.99998e-10
-7.75683e-16
-5.28715e-16
-9.99998e-10
-9.78345e-16
-4.80232e-16
-9.99998e-10
-1.16775e-15
-4.58223e-16
-9.99999e-10
-4.27586e-16
-9.99999e-10
-4.40576e-16
-9.81739e-16
-9.99998e-10
-7.33662e-16
-9.58135e-16
-9.99998e-10
-9.63139e-16
-9.14284e-16
-9.99999e-10
-1.14392e-15
-8.85342e-16
-9.99999e-10
-8.73212e-16
-9.99999e-10
-4.09641e-16
-1.26836e-15
-9.99999e-10
-6.90215e-16
-1.23789e-15
-9.99999e-10
-9.34184e-16
-1.18126e-15
-9.99999e-10
-1.13359e-15
-1.17179e-15
-9.99999e-10
-1.20197e-15
-1e-09
-3.71955e-16
-1.44145e-15
-9.99999e-10
-6.33851e-16
-1.36574e-15
-9.99999e-10
-9.24621e-16
-1.30108e-15
-9.99999e-10
-1.16326e-15
-1.29069e-15
-1e-09
-1.33587e-15
-1e-09
-2.90297e-16
-9.99999e-10
-5.68767e-16
-9.99999e-10
-9.11629e-16
-1e-09
-1.18484e-15
-1e-09
-1e-09
-5.58127e-16
-6.73364e-16
-9.99997e-10
-9.9263e-16
-6.92321e-16
-9.99997e-10
-1.27488e-15
-6.43176e-16
-9.99997e-10
-1.50425e-15
-6.28681e-16
-9.99998e-10
-6.21552e-16
-9.99998e-10
-5.76226e-16
-1.2464e-15
-9.99997e-10
-9.49296e-16
-1.20792e-15
-9.99997e-10
-1.26608e-15
-1.17135e-15
-9.99998e-10
-1.50259e-15
-1.179e-15
-9.99998e-10
-1.22392e-15
-9.99999e-10
-5.31205e-16
-1.62086e-15
-9.99997e-10
-9.13127e-16
-1.58522e-15
-9.99998e-10
-1.2735e-15
-1.54902e-15
-9.99998e-10
-1.55076e-15
-1.58023e-15
-9.99998e-10
-1.65425e-15
-9.99999e-10
-4.89955e-16
-1.8806e-15
-9.99998e-10
-8.77606e-16
-1.80712e-15
-9.99998e-10
-1.30426e-15
-1.75711e-15
-9.99999e-10
-1.64328e-15
-1.79198e-15
-9.99999e-10
-1.91122e-15
-1e-09
-4.10871e-16
-9.99999e-10
-8.24221e-16
-9.99999e-10
-1.32141e-15
-9.99999e-10
-1.73134e-15
-1e-09
-1e-09
-7.53514e-16
-8.74868e-16
-9.99995e-10
-1.30959e-15
-8.71811e-16
-9.99996e-10
-1.72748e-15
-8.3457e-16
-9.99996e-10
-2.03279e-15
-8.35909e-16
-9.99997e-10
-8.71042e-16
-9.99998e-10
-7.49919e-16
-1.56809e-15
-9.99995e-10
-1.27653e-15
-1.53384e-15
-9.99996e-10
-1.73346e-15
-1.52118e-15
-9.99996e-10
-2.07335e-15
-1.57018e-15
-9.99997e-10
-1.66953e-15
-9.99998e-10
-7.10981e-16
-2.08634e-15
-9.99996e-10
-1.26431e-15
-2.06372e-15
-9.99996e-10
-1.78182e-15
-2.06743e-15
-9.99997e-10
-2.17445e-15
-2.1485e-15
-9.99997e-10
-2.2655e-15
-9.99998e-10
-6.83792e-16
-2.46745e-15
-9.99997e-10
-1.26944e-15
-2.4138e-15
-9.99997e-10
-1.86187e-15
-2.42117e-15
-9.99997e-10
-2.32618e-15
-2.5235e-15
-9.99998e-10
-2.69205e-15
-9.99999e-10
-6.22242e-16
-9.99997e-10
-1.2742e-15
-9.99998e-10
-1.93365e-15
-9.99998e-10
-2.53607e-15
-9.99999e-10
-1e-09
-1.00004e-15
-1.10815e-15
-9.99993e-10
-1.78726e-15
-1.09236e-15
-9.99993e-10
-2.42667e-15
-1.07758e-15
-9.99994e-10
-2.88001e-15
-1.10011e-15
-9.99995e-10
-1.15515e-15
-9.99996e-10
-9.83842e-16
-2.00706e-15
-9.99993e-10
-1.77713e-15
-1.99235e-15
-9.99994e-10
-2.4549e-15
-2.01302e-15
-9.99994e-10
-2.94153e-15
-2.08745e-15
-9.99995e-10
-2.20393e-15
-9.99997e-10
-9.64206e-16
-2.72388e-15
-9.99994e-10
-1.79827e-15
-2.73105e-15
-9.99994e-10
-2.52888e-15
-2.78353e-15
-9.99995e-10
-3.05642e-15
-2.88485e-15
-9.99996e-10
-3.00233e-15
-9.99997e-10
-9.6594e-16
-3.21833e-15
-9.99995e-10
-1.85171e-15
-3.23281e-15
-9.99995e-10
-2.62969e-15
-3.30671e-15
-9.99996e-10
-3.17907e-15
-3.39482e-15
-9.99997e-10
-3.46833e-15
-9.99998e-10
-9.72069e-16
-9.99996e-10
-1.92547e-15
-9.99996e-10
-2.71042e-15
-9.99997e-10
-3.26403e-15
-9.99998e-10
-9.99999e-10
-1.33371e-15
-1.41242e-15
-9.9999e-10
-2.49346e-15
-1.39933e-15
-9.99991e-10
-3.44953e-15
-1.41306e-15
-9.99992e-10
-4.0909e-15
-1.44548e-15
-9.99993e-10
-1.48733e-15
-9.99995e-10
-1.32042e-15
-2.63788e-15
-9.9999e-10
-2.5137e-15
-2.65567e-15
-9.99991e-10
-3.48992e-15
-2.69925e-15
-9.99992e-10
-4.14167e-15
-2.7672e-15
-9.99993e-10
-2.857e-15
-9.99995e-10
-1.33178e-15
-3.63359e-15
-9.99991e-10
-2.55763e-15
-3.6774e-15
-9.99992e-10
-3.55783e-15
-3.74794e-15
-9.99993e-10
-4.22997e-15
-3.8285e-15
-9.99994e-10
-3.87919e-15
-9.99996e-10
-1.36791e-15
-4.28873e-15
-9.99993e-10
-2.62832e-15
-4.35958e-15
-9.99993e-10
-3.63824e-15
-4.43492e-15
-9.99994e-10
-4.2781e-15
-4.4595e-15
-9.99996e-10
-4.39027e-15
-9.99997e-10
-1.429e-15
-9.99994e-10
-2.70527e-15
-9.99995e-10
-3.66479e-15
-9.99996e-10
-4.20629e-15
-9.99997e-10
-9.99998e-10
-1.81882e-15
-1.85961e-15
-9.99986e-10
-3.49373e-15
-1.86126e-15
-9.99987e-10
-4.85693e-15
-1.89236e-15
-9.99988e-10
-5.72763e-15
-1.91368e-15
-9.9999e-10
-1.93301e-15
-9.99992e-10
-1.82019e-15
-3.5558e-15
-9.99987e-10
-3.53374e-15
-3.59869e-15
-9.99988e-10
-4.88952e-15
-3.63182e-15
-9.99989e-10
-5.76047e-15
-3.66421e-15
-9.99991e-10
-3.70381e-15
-9.99993e-10
-1.85435e-15
-4.93513e-15
-9.99988e-10
-3.56715e-15
-4.98305e-15
-9.99989e-10
-4.92215e-15
-5.02357e-15
-9.9999e-10
-5.80057e-15
-5.06359e-15
-9.99992e-10
-5.03853e-15
-9.99994e-10
-1.89093e-15
-5.81363e-15
-9.9999e-10
-3.60764e-15
-5.86282e-15
-9.99991e-10
-4.96231e-15
-5.90563e-15
-9.99992e-10
-5.77632e-15
-5.89902e-15
-9.99994e-10
-5.72732e-15
-9.99996e-10
-1.92573e-15
-9.99992e-10
-3.64896e-15
-9.99993e-10
-4.95419e-15
-9.99994e-10
-5.60407e-15
-9.99996e-10
-9.99998e-10
-2.52036e-15
-2.52624e-15
-9.99981e-10
-4.85428e-15
-2.53452e-15
-9.99982e-10
-6.73946e-15
-2.56005e-15
-9.99984e-10
-7.94366e-15
-2.55863e-15
-9.99986e-10
-2.55062e-15
-9.99989e-10
-2.5282e-15
-4.8515e-15
-9.99982e-10
-4.89222e-15
-4.89187e-15
-9.99983e-10
-6.75373e-15
-4.89145e-15
-9.99985e-10
-7.95511e-15
-4.87881e-15
-9.99987e-10
-4.85617e-15
-9.9999e-10
-2.55635e-15
-6.73208e-15
-9.99984e-10
-4.89197e-15
-6.75244e-15
-9.99985e-10
-6.74072e-15
-6.7541e-15
-9.99987e-10
-7.93514e-15
-6.75599e-15
-9.99989e-10
-6.67471e-15
-9.99992e-10
-2.56116e-15
-7.89367e-15
-9.99986e-10
-4.89379e-15
-7.92018e-15
-9.99987e-10
-6.74246e-15
-7.95767e-15
-9.99989e-10
-7.86892e-15
-7.9548e-15
-9.99991e-10
-7.79085e-15
-9.99994e-10
-2.56689e-15
-9.99989e-10
-4.92623e-15
-9.9999e-10
-6.72733e-15
-9.99992e-10
-7.73167e-15
-9.99994e-10
-9.99997e-10
-3.47988e-15
-3.4608e-15
-9.99974e-10
-6.67177e-15
-3.46053e-15
-9.99976e-10
-9.24673e-15
-3.46921e-15
-9.99978e-10
-1.09102e-14
-3.44467e-15
-9.99981e-10
-3.40043e-15
-9.99985e-10
-3.47948e-15
-6.62822e-15
-9.99976e-10
-6.69663e-15
-6.6529e-15
-9.99977e-10
-9.24335e-15
-6.62305e-15
-9.99979e-10
-1.08908e-14
-6.56397e-15
-9.99983e-10
-6.47457e-15
-9.99987e-10
-3.48827e-15
-9.18253e-15
-9.99978e-10
-6.6665e-15
-9.18831e-15
-9.99979e-10
-9.18343e-15
-9.15778e-15
-9.99982e-10
-1.08024e-14
-9.10358e-15
-9.99985e-10
-8.98603e-15
-9.99989e-10
-3.47303e-15
-1.07791e-14
-9.99981e-10
-6.63582e-15
-1.08176e-14
-9.99983e-10
-9.1291e-15
-1.08207e-14
-9.99985e-10
-1.06937e-14
-1.07733e-14
-9.99988e-10
-1.06392e-14
-9.99992e-10
-3.4859e-15
-9.99985e-10
-6.63676e-15
-9.99987e-10
-9.07142e-15
-9.99989e-10
-1.05751e-14
-9.99992e-10
-9.99996e-10
-4.75696e-15
-4.72285e-15
-9.99965e-10
-9.11633e-15
-4.71908e-15
-9.99967e-10
-1.26121e-14
-4.71494e-15
-9.9997e-10
-1.4856e-14
-4.66916e-15
-9.99975e-10
-4.58921e-15
-9.9998e-10
-4.75332e-15
-9.05501e-15
-9.99967e-10
-9.13323e-15
-9.07403e-15
-9.99968e-10
-1.25947e-14
-9.01905e-15
-9.99972e-10
-1.48087e-14
-8.9067e-15
-9.99976e-10
-8.75646e-15
-9.99982e-10
-4.75131e-15
-1.25357e-14
-9.9997e-10
-9.07758e-15
-1.25393e-14
-9.99972e-10
-1.2482e-14
-1.24572e-14
-9.99975e-10
-1.46548e-14
-1.23293e-14
-9.99979e-10
-1.21983e-14
-9.99985e-10
-4.72643e-15
-1.47574e-14
-9.99975e-10
-8.99477e-15
-1.47649e-14
-9.99976e-10
-1.23541e-14
-1.46802e-14
-9.99979e-10
-1.45128e-14
-1.45691e-14
-9.99984e-10
-1.45377e-14
-9.99989e-10
-4.70149e-15
-9.9998e-10
-8.91404e-15
-9.99982e-10
-1.2255e-14
-9.99985e-10
-1.44811e-14
-9.99989e-10
-9.99995e-10
-6.48949e-15
-6.44446e-15
-9.99952e-10
-1.24496e-14
-6.45233e-15
-9.99954e-10
-1.71876e-14
-6.43843e-15
-9.99959e-10
-2.01993e-14
-6.3693e-15
-9.99965e-10
-6.2594e-15
-9.99973e-10
-6.49761e-15
-1.23758e-14
-9.99954e-10
-1.24639e-14
-1.23933e-14
-9.99957e-10
-1.71569e-14
-1.23032e-14
-9.99961e-10
-2.01351e-14
-1.21377e-14
-9.99968e-10
-1.1947e-14
-9.99975e-10
-6.48698e-15
-1.7098e-14
-9.99959e-10
-1.23731e-14
-1.70814e-14
-9.99961e-10
-1.69919e-14
-1.69385e-14
-9.99966e-10
-1.99426e-14
-1.6757e-14
-9.99972e-10
-1.66153e-14
-9.99979e-10
-6.43225e-15
-2.00966e-14
-9.99965e-10
-1.22289e-14
-2.00516e-14
-9.99967e-10
-1.68103e-14
-1.99105e-14
-9.99972e-10
-1.97823e-14
-1.97698e-14
-9.99978e-10
-1.98173e-14
-9.99986e-10
-6.34303e-15
-9.99972e-10
-1.20905e-14
-9.99975e-10
-1.66898e-14
-9.99979e-10
-1.98286e-14
-9.99985e-10
-9.99993e-10
-8.88925e-15
-8.82682e-15
-9.99935e-10
-1.70118e-14
-8.8398e-15
-9.99938e-10
-2.34471e-14
-8.80537e-15
-9.99944e-10
-2.75279e-14
-8.70795e-15
-9.99953e-10
-8.58477e-15
-9.99963e-10
-8.90267e-15
-1.69006e-14
-9.99938e-10
-1.70152e-14
-1.69033e-14
-9.99941e-10
-2.34013e-14
-1.67731e-14
-9.99947e-10
-2.74669e-14
-1.65786e-14
-9.99956e-10
-1.63812e-14
-9.99966e-10
-8.86783e-15
-2.32839e-14
-9.99944e-10
-1.68845e-14
-2.32387e-14
-9.99947e-10
-2.32075e-14
-2.30585e-14
-9.99953e-10
-2.72719e-14
-2.28496e-14
-9.99962e-10
-2.26504e-14
-9.99972e-10
-8.7717e-15
-2.73153e-14
-9.99952e-10
-1.67026e-14
-2.72637e-14
-9.99956e-10
-2.2998e-14
-2.71005e-14
-9.99962e-10
-2.70671e-14
-2.68983e-14
-9.9997e-10
-2.68618e-14
-9.9998e-10
-8.66064e-15
-9.99962e-10
-1.65385e-14
-9.99966e-10
-2.28033e-14
-9.99972e-10
-2.70327e-14
-9.9998e-10
-9.9999e-10
-1.21972e-14
-1.21037e-14
-9.9991e-10
-2.32388e-14
-1.20919e-14
-9.99915e-10
-3.20076e-14
-1.20219e-14
-9.99923e-10
-3.75785e-14
-1.19039e-14
-9.99935e-10
-1.18042e-14
-9.99949e-10
-1.21858e-14
-2.30548e-14
-9.99915e-10
-2.32188e-14
-2.30298e-14
-9.99919e-10
-3.1958e-14
-2.28741e-14
-9.99928e-10
-3.75616e-14
-2.26778e-14
-9.9994e-10
-2.24792e-14
-9.99953e-10
-1.21113e-14
-3.17192e-14
-9.99923e-10
-2.30627e-14
-3.16609e-14
-9.99928e-10
-3.17618e-14
-3.14597e-14
-9.99936e-10
-3.73655e-14
-3.1203e-14
-9.99948e-10
-3.0888e-14
-9.99962e-10
-1.19847e-14
-3.72212e-14
-9.99935e-10
-2.28603e-14
-3.71861e-14
-9.99939e-10
-3.15048e-14
-3.69755e-14
-9.99948e-10
-3.70486e-14
-3.66371e-14
-9.99959e-10
-3.63307e-14
-9.99973e-10
-1.18699e-14
-9.99949e-10
-2.26489e-14
-9.99953e-10
-3.11697e-14
-9.99961e-10
-3.67446e-14
-9.99973e-10
-9.99986e-10
-1.67016e-14
-1.65649e-14
-9.99877e-10
-3.1758e-14
-1.65158e-14
-9.99883e-10
-4.37485e-14
-1.64131e-14
-9.99895e-10
-5.14023e-14
-1.62868e-14
-9.99911e-10
-1.61959e-14
-9.99931e-10
-1.66528e-14
-3.14778e-14
-9.99883e-10
-3.17218e-14
-3.14333e-14
-9.99889e-10
-4.37141e-14
-3.12596e-14
-9.99901e-10
-5.14232e-14
-3.10281e-14
-9.99917e-10
-3.07504e-14
-9.99936e-10
-1.65424e-14
-4.33191e-14
-9.99895e-10
-3.1548e-14
-4.32664e-14
-9.99901e-10
-4.34824e-14
-4.30109e-14
-9.99913e-10
-5.11465e-14
-4.26342e-14
-9.99929e-10
-4.21664e-14
-9.99948e-10
-1.63981e-14
-5.0884e-14
-9.99911e-10
-3.12923e-14
-5.0873e-14
-9.99917e-10
-4.31059e-14
-5.05569e-14
-9.99929e-10
-5.0674e-14
-5.00385e-14
-9.99945e-10
-4.94554e-14
-9.99963e-10
-1.62775e-14
-9.9993e-10
-3.09764e-14
-9.99936e-10
-4.25929e-14
-9.99947e-10
-5.00923e-14
-9.99963e-10
-9.99982e-10
-2.2842e-14
-2.26533e-14
-9.99832e-10
-4.34886e-14
-2.25954e-14
-9.9984e-10
-5.99174e-14
-2.24619e-14
-9.99856e-10
-7.04519e-14
-2.22904e-14
-9.99879e-10
-2.20953e-14
-9.99905e-10
-2.27844e-14
-4.31009e-14
-9.9984e-10
-4.34455e-14
-4.30485e-14
-9.99848e-10
-5.98723e-14
-4.28028e-14
-9.99865e-10
-7.04098e-14
-4.24285e-14
-9.99887e-10
-4.19569e-14
-9.99913e-10
-2.26427e-14
-5.93537e-14
-9.99856e-10
-4.31998e-14
-5.92952e-14
-9.99864e-10
-5.94987e-14
-5.88914e-14
-9.9988e-10
-6.99405e-14
-5.82999e-14
-9.99903e-10
-5.76325e-14
-9.99928e-10
-2.24589e-14
-6.98011e-14
-9.99878e-10
-4.27953e-14
-6.97671e-14
-9.99887e-10
-5.89075e-14
-6.92443e-14
-9.99902e-10
-6.92712e-14
-6.84961e-14
-9.99924e-10
-6.76886e-14
-9.9995e-10
-2.2274e-14
-9.99905e-10
-4.22704e-14
-9.99913e-10
-5.81615e-14
-9.99928e-10
-6.84636e-14
-9.9995e-10
-9.99975e-10
-3.1288e-14
-3.10384e-14
-9.9977e-10
-5.96638e-14
-3.09936e-14
-9.99781e-10
-8.2168e-14
-3.07815e-14
-9.99803e-10
-9.6621e-14
-3.04784e-14
-9.99834e-10
-3.00889e-14
-9.9987e-10
-3.1244e-14
-5.91601e-14
-9.99781e-10
-5.9577e-14
-5.9067e-14
-9.99792e-10
-8.20403e-14
-5.8639e-14
-9.99815e-10
-9.64406e-14
-5.80139e-14
-9.99845e-10
-5.72657e-14
-9.99881e-10
-3.1027e-14
-8.14751e-14
-9.99803e-10
-5.91488e-14
-8.13469e-14
-9.99814e-10
-8.1417e-14
-8.06883e-14
-9.99836e-10
-9.56973e-14
-7.97935e-14
-9.99867e-10
-7.87984e-14
-9.99902e-10
-3.07248e-14
-9.58558e-14
-9.99834e-10
-5.84879e-14
-9.56931e-14
-9.99845e-10
-8.05223e-14
-9.48755e-14
-9.99866e-10
-9.47088e-14
-9.38201e-14
-9.99896e-10
-9.26558e-14
-9.99931e-10
-3.03559e-14
-9.9987e-10
-5.76659e-14
-9.99881e-10
-7.94612e-14
-9.99902e-10
-9.35445e-14
-9.99931e-10
-9.99965e-10
-4.29472e-14
-4.2627e-14
-9.99684e-10
-8.19008e-14
-4.25595e-14
-9.997e-10
-1.12736e-13
-4.21881e-14
-9.9973e-10
-1.32553e-13
-4.16808e-14
-9.99773e-10
-4.10656e-14
-9.99823e-10
-4.28807e-14
-8.12655e-14
-9.997e-10
-8.17031e-14
-8.1064e-14
-9.99715e-10
-1.1247e-13
-8.0352e-14
-9.99746e-10
-1.32222e-13
-7.93754e-14
-9.99788e-10
-7.82254e-14
-9.99837e-10
-4.2507e-14
-1.11869e-13
-9.9973e-10
-8.09906e-14
-1.11605e-13
-9.99746e-10
-1.11497e-13
-1.10597e-13
-9.99776e-10
-1.31076e-13
-1.09252e-13
-9.99817e-10
-1.07692e-13
-9.99866e-10
-4.20024e-14
-1.31535e-13
-9.99772e-10
-7.998e-14
-1.31208e-13
-9.99788e-10
-1.10152e-13
-1.30006e-13
-9.99817e-10
-1.29522e-13
-1.28466e-13
-9.99858e-10
-1.26713e-13
-9.99906e-10
-4.13938e-14
-9.99822e-10
-7.8775e-14
-9.99837e-10
-1.08606e-13
-9.99866e-10
-1.2777e-13
-9.99906e-10
-9.99953e-10
-5.90176e-14
-5.86247e-14
-9.99567e-10
-1.12446e-13
-5.84703e-14
-9.99588e-10
-1.54766e-13
-5.78696e-14
-9.9963e-10
-1.81973e-13
-5.70837e-14
-9.99689e-10
-5.61425e-14
-9.99757e-10
-5.88643e-14
-1.1166e-13
-9.99588e-10
-1.12085e-13
-1.11296e-13
-9.9961e-10
-1.54312e-13
-1.10195e-13
-9.99652e-10
-1.81419e-13
-1.08685e-13
-9.9971e-10
-1.06911e-13
-9.99778e-10
-5.82631e-14
-1.53637e-13
-9.9963e-10
-1.10983e-13
-1.53185e-13
-9.99652e-10
-1.52806e-13
-1.51657e-13
-9.99693e-10
-1.79643e-13
-1.49579e-13
-9.9975e-10
-1.47119e-13
-9.99817e-10
-5.74807e-14
-1.80519e-13
-9.99688e-10
-1.09453e-13
-1.79964e-13
-9.99709e-10
-1.50728e-13
-1.78157e-13
-9.9975e-10
-1.77173e-13
-1.75778e-13
-9.99806e-10
-1.73044e-13
-9.99871e-10
-5.65395e-14
-9.99756e-10
-1.07648e-13
-9.99777e-10
-1.48357e-13
-9.99816e-10
-1.7444e-13
-9.99871e-10
-9.99935e-10
-8.11519e-14
-8.07076e-14
-9.99405e-10
-1.54483e-13
-8.04093e-14
-9.99435e-10
-2.12646e-13
-7.94926e-14
-9.99493e-10
-2.50021e-13
-7.82791e-14
-9.99573e-10
-7.68268e-14
-9.99668e-10
-8.08544e-14
-1.53552e-13
-9.99435e-10
-1.53895e-13
-1.52963e-13
-9.99464e-10
-2.11888e-13
-1.51278e-13
-9.99522e-10
-2.491e-13
-1.48927e-13
-9.99602e-10
-1.46204e-13
-9.99696e-10
-7.9939e-14
-2.11183e-13
-9.99493e-10
-1.5221e-13
-2.1042e-13
-9.99522e-10
-2.09542e-13
-2.08067e-13
-9.99579e-10
-2.46373e-13
-2.04839e-13
-9.99658e-10
-2.01002e-13
-9.9975e-10
-7.87246e-14
-2.47948e-13
-9.99573e-10
-1.49853e-13
-2.47002e-13
-9.99602e-10
-2.06313e-13
-2.44255e-13
-9.99657e-10
-2.42514e-13
-2.40521e-13
-9.99734e-10
-2.36137e-13
-9.99824e-10
-7.72487e-14
-9.99667e-10
-1.47107e-13
-9.99695e-10
-2.02598e-13
-9.99749e-10
-2.38131e-13
-9.99823e-10
-9.99911e-10
-1.11657e-13
-1.1123e-13
-9.99182e-10
-2.12443e-13
-1.10716e-13
-9.99223e-10
-2.92451e-13
-1.09321e-13
-9.99304e-10
-3.43849e-13
-1.07415e-13
-9.99415e-10
-1.05137e-13
-9.99545e-10
-1.11144e-13
-2.11445e-13
-9.99223e-10
-2.115e-13
-2.10499e-13
-9.99264e-10
-2.91169e-13
-2.07877e-13
-9.99344e-10
-3.42306e-13
-2.0421e-13
-9.99454e-10
-1.99976e-13
-9.99583e-10
-1.09748e-13
-2.90642e-13
-9.99304e-10
-2.08878e-13
-2.89349e-13
-9.99344e-10
-2.87506e-13
-2.85707e-13
-9.99423e-10
-3.38072e-13
-2.8071e-13
-9.99531e-10
-2.74794e-13
-9.99658e-10
-1.07833e-13
-3.40975e-13
-9.99415e-10
-2.0523e-13
-3.39444e-13
-9.99454e-10
-2.82507e-13
-3.35226e-13
-9.99531e-10
-3.32145e-13
-3.29389e-13
-9.99636e-10
-3.22501e-13
-9.99759e-10
-1.05574e-13
-9.99544e-10
-2.01008e-13
-9.99583e-10
-2.76678e-13
-9.99657e-10
-3.25256e-13
-9.99759e-10
-9.99878e-10
-1.5375e-13
-1.53497e-13
-9.98875e-10
-2.92484e-13
-1.52654e-13
-9.98932e-10
-4.02617e-13
-1.50488e-13
-9.99043e-10
-4.73357e-13
-1.47479e-13
-9.99196e-10
-1.43902e-13
-9.99377e-10
-1.52907e-13
-2.91642e-13
-9.98932e-10
-2.90939e-13
-2.90093e-13
-9.98989e-10
-4.00466e-13
-2.85979e-13
-9.99099e-10
-4.7079e-13
-2.80279e-13
-9.99251e-10
-2.7365e-13
-9.99429e-10
-1.50738e-13
-4.00618e-13
-9.99044e-10
-2.86823e-13
-3.98471e-13
-9.991e-10
-3.94769e-13
-3.92828e-13
-9.99208e-10
-4.6417e-13
-3.85089e-13
-9.99357e-10
-3.75978e-13
-9.99531e-10
-1.47736e-13
-4.69681e-13
-9.99198e-10
-2.8117e-13
-4.67187e-13
-9.99252e-10
-3.87026e-13
-4.60621e-13
-9.99357e-10
-4.55063e-13
-4.51529e-13
-9.99501e-10
-4.4076e-13
-9.99671e-10
-1.44238e-13
-9.99377e-10
-2.74593e-13
-9.9943e-10
-3.77926e-13
-9.99531e-10
-4.44291e-13
-9.9967e-10
-9.99834e-10
-2.11954e-13
-2.12204e-13
-9.98451e-10
-4.03202e-13
-2.10841e-13
-9.9853e-10
-5.54932e-13
-2.07447e-13
-9.98684e-10
-6.52365e-13
-2.02767e-13
-9.98896e-10
-1.9727e-13
-9.99146e-10
-2.1059e-13
-4.03028e-13
-9.98531e-10
-4.0066e-13
-4.00488e-13
-9.98609e-10
-5.51431e-13
-3.94061e-13
-9.98762e-10
-6.48254e-13
-3.85232e-13
-9.98972e-10
-3.74887e-13
-9.99219e-10
-2.07195e-13
-5.53198e-13
-9.98687e-10
-3.94229e-13
-5.49708e-13
-9.98763e-10
-5.42605e-13
-5.40952e-13
-9.98913e-10
-6.37918e-13
-5.28936e-13
-9.99118e-10
-5.14787e-13
-9.99359e-10
-2.02526e-13
-6.47987e-13
-9.98901e-10
-3.8546e-13
-6.43934e-13
-9.98975e-10
-5.30583e-13
-6.33706e-13
-9.99119e-10
-6.23779e-13
-6.19578e-13
-9.99317e-10
-6.0282e-13
-9.9955e-10
-1.97093e-13
-9.9915e-10
-3.75216e-13
-9.99221e-10
-5.16437e-13
-9.9936e-10
-6.07015e-13
-9.9955e-10
-9.99774e-10
-2.92664e-13
-2.94063e-13
-9.97864e-10
-5.56679e-13
-2.91876e-13
-9.97974e-10
-7.65915e-13
-2.86574e-13
-9.98188e-10
-9.00185e-13
-2.79322e-13
-9.98483e-10
-2.70826e-13
-9.98828e-10
-2.90472e-13
-5.58229e-13
-9.97976e-10
-5.52551e-13
-5.54106e-13
-9.98085e-10
-7.60286e-13
-5.44065e-13
-9.98297e-10
-8.93595e-13
-5.30342e-13
-9.98588e-10
-5.14248e-13
-9.98929e-10
-2.85166e-13
-7.65461e-13
-9.98195e-10
-5.42505e-13
-7.59817e-13
-9.98301e-10
-7.46564e-13
-7.46154e-13
-9.98507e-10
-8.77503e-13
-7.27434e-13
-9.9879e-10
-7.05426e-13
-9.99122e-10
-2.77893e-13
-8.95491e-13
-9.98493e-10
-5.28825e-13
-8.88948e-13
-9.98595e-10
-7.27835e-13
-8.72974e-13
-9.98793e-10
-8.55489e-13
-8.51048e-13
-9.99066e-10
-8.25273e-13
-9.99386e-10
-2.69445e-13
-9.9884e-10
-5.12833e-13
-9.98938e-10
-7.05892e-13
-9.99127e-10
-8.29701e-13
-9.99387e-10
-9.99693e-10
-4.0497e-13
-4.08718e-13
-9.9705e-10
-7.69949e-13
-4.05197e-13
-9.97204e-10
-1.05865e-12
-3.96864e-13
-9.97503e-10
-1.24355e-12
-3.85538e-13
-9.97912e-10
-3.72358e-13
-9.98392e-10
-4.01439e-13
-7.75278e-13
-9.97208e-10
-7.63237e-13
-7.68549e-13
-9.9736e-10
-1.04956e-12
-7.52804e-13
-9.97655e-10
-1.23299e-12
-7.31428e-13
-9.98058e-10
-7.06476e-13
-9.98531e-10
-3.93069e-13
-1.06166e-12
-9.97515e-10
-7.47487e-13
-1.05249e-12
-9.97662e-10
-1.02818e-12
-1.03106e-12
-9.97948e-10
-1.20802e-12
-1.00186e-12
-9.9834e-10
-9.67695e-13
-9.98799e-10
-3.81645e-13
-1.23998e-12
-9.97933e-10
-7.26045e-13
-1.22933e-12
-9.98074e-10
-9.98956e-13
-1.20433e-12
-9.98347e-10
-1.17381e-12
-1.17025e-12
-9.98723e-10
-1.13051e-12
-9.99163e-10
-3.68368e-13
-9.98417e-10
-7.01026e-13
-9.98551e-10
-9.6487e-13
-9.9881e-10
-1.13405e-12
-9.99166e-10
-9.99585e-10
-5.61876e-13
-5.70074e-13
-9.95918e-10
-1.06716e-12
-5.64267e-13
-9.96134e-10
-1.46563e-12
-5.511e-13
-9.96553e-10
-1.72008e-12
-5.33425e-13
-9.97125e-10
-5.1304e-13
-9.97791e-10
-5.56052e-13
-1.08005e-12
-9.96142e-10
-1.05624e-12
-1.06902e-12
-9.96355e-10
-1.45103e-12
-1.04428e-12
-9.96767e-10
-1.70329e-12
-1.01093e-12
-9.97329e-10
-9.72246e-13
-9.97985e-10
-5.4274e-13
-1.47646e-12
-9.96576e-10
-1.0315e-12
-1.46154e-12
-9.96781e-10
-1.41767e-12
-1.42784e-12
-9.97178e-10
-1.66455e-12
-1.38232e-12
-9.97721e-10
-1.32944e-12
-9.98356e-10
-5.24704e-13
-1.72076e-12
-9.97164e-10
-9.97776e-13
-1.70347e-12
-9.97359e-10
-1.37211e-12
-1.6643e-12
-9.97736e-10
-1.61159e-12
-1.6113e-12
-9.98254e-10
-1.54987e-12
-9.9886e-10
-5.0379e-13
-9.97842e-10
-9.586e-13
-9.98026e-10
-1.31911e-12
-9.9838e-10
-1.55011e-12
-9.98868e-10
-9.99441e-10
-7.82293e-13
-7.98382e-13
-9.94338e-10
-1.48323e-12
-7.88693e-13
-9.94645e-10
-2.03317e-12
-7.67843e-13
-9.95236e-10
-2.38253e-12
-7.40209e-13
-9.96035e-10
-7.08584e-13
-9.96962e-10
-7.72583e-13
-1.51038e-12
-9.94658e-10
-1.46549e-12
-1.49223e-12
-9.94959e-10
-2.00978e-12
-1.453e-12
-9.95537e-10
-2.35583e-12
-1.40085e-12
-9.96322e-10
-1.34103e-12
-9.97233e-10
-7.5128e-13
-2.06015e-12
-9.95275e-10
-1.42628e-12
-2.03565e-12
-9.95563e-10
-1.95759e-12
-1.98233e-12
-9.96118e-10
-2.29589e-12
-1.91139e-12
-9.96872e-10
-1.82997e-12
-9.97751e-10
-7.22475e-13
-2.39398e-12
-9.96108e-10
-1.37296e-12
-2.36582e-12
-9.96378e-10
-1.88658e-12
-2.30422e-12
-9.96901e-10
-2.2143e-12
-2.22187e-12
-9.97615e-10
-2.12719e-12
-9.9845e-10
-6.8932e-13
-9.97062e-10
-1.31137e-12
-9.97313e-10
-1.80422e-12
-9.97799e-10
-2.1195e-12
-9.98468e-10
-9.99252e-10
-1.09482e-12
-1.12386e-12
-9.92119e-10
-2.06969e-12
-1.10757e-12
-9.92562e-10
-2.8274e-12
-1.07404e-12
-9.93404e-10
-3.3038e-12
-1.03062e-12
-9.94528e-10
-9.81848e-13
-9.95816e-10
-1.07853e-12
-2.12256e-12
-9.92581e-10
-2.04053e-12
-2.09203e-12
-9.93012e-10
-2.78983e-12
-2.02894e-12
-9.93833e-10
-3.26173e-12
-1.94717e-12
-9.94934e-10
-1.85524e-12
-9.96198e-10
-1.04366e-12
-2.8865e-12
-9.93468e-10
-1.97751e-12
-2.8455e-12
-9.93876e-10
-2.70799e-12
-2.76028e-12
-9.94656e-10
-3.1695e-12
-2.64945e-12
-9.95709e-10
-2.52477e-12
-9.96924e-10
-9.96721e-13
-3.34078e-12
-9.94657e-10
-1.89235e-12
-3.29433e-12
-9.95034e-10
-2.59706e-12
-3.19661e-12
-9.9576e-10
-3.04446e-12
-3.06856e-12
-9.96749e-10
-2.92353e-12
-9.97899e-10
-9.43416e-13
-9.96006e-10
-1.79474e-12
-9.9635e-10
-2.469e-12
-9.97016e-10
-2.89917e-12
-9.97933e-10
-9.99008e-10
-1.54472e-12
-1.59238e-12
-9.88982e-10
-2.90426e-12
-1.56404e-12
-9.89639e-10
-3.94388e-12
-1.50904e-12
-9.90855e-10
-4.58424e-12
-1.44049e-12
-9.92448e-10
-1.3661e-12
-9.94232e-10
-1.51653e-12
-3.00164e-12
-9.89655e-10
-2.8555e-12
-2.94846e-12
-9.90289e-10
-3.88345e-12
-2.845e-12
-9.9147e-10
-4.51891e-12
-2.71606e-12
-9.93023e-10
-2.5762e-12
-9.94772e-10
-1.45746e-12
-4.06594e-12
-9.90946e-10
-2.75231e-12
-3.99522e-12
-9.91534e-10
-3.75436e-12
-3.85636e-12
-9.92642e-10
-4.3783e-12
-3.68247e-12
-9.94118e-10
-3.49339e-12
-9.95798e-10
-1.37866e-12
-4.67998e-12
-9.92664e-10
-2.61373e-12
-4.60164e-12
-9.93193e-10
-3.58033e-12
-4.44451e-12
-9.94205e-10
-4.18839e-12
-4.24486e-12
-9.95578e-10
-4.0253e-12
-9.97164e-10
-1.29098e-12
-9.94589e-10
-2.457e-12
-9.95056e-10
-3.38074e-12
-9.95966e-10
-3.96829e-12
-9.97226e-10
-9.98704e-10
-2.2079e-12
-2.27419e-12
-9.845e-10
-4.10871e-12
-2.2226e-12
-9.85516e-10
-5.52393e-12
-2.13047e-12
-9.8731e-10
-6.35937e-12
-2.02122e-12
-9.89591e-10
-1.90992e-12
-9.92046e-10
-2.15708e-12
-4.27985e-12
-9.85492e-10
-4.02574e-12
-4.18267e-12
-9.86461e-10
-5.42608e-12
-4.0079e-12
-9.88192e-10
-6.26009e-12
-3.80259e-12
-9.90408e-10
-3.59363e-12
-9.92818e-10
-2.05231e-12
-5.76846e-12
-9.87405e-10
-3.85181e-12
-5.64011e-12
-9.88277e-10
-5.22056e-12
-5.40714e-12
-9.89874e-10
-6.04937e-12
-5.13216e-12
-9.9196e-10
-4.85047e-12
-9.94276e-10
-1.91328e-12
-6.58882e-12
-9.89931e-10
-3.61974e-12
-6.45163e-12
-9.90675e-10
-4.94538e-12
-6.19359e-12
-9.92093e-10
-5.76576e-12
-5.88127e-12
-9.94009e-10
-5.55484e-12
-9.96201e-10
-1.76363e-12
-9.92706e-10
-3.36287e-12
-9.93329e-10
-4.63348e-12
-9.94564e-10
-5.43824e-12
-9.963e-10
-9.9835e-10
-3.2235e-12
-3.2781e-12
-9.77998e-10
-5.88134e-12
-3.17881e-12
-9.79679e-10
-7.78424e-12
-3.02169e-12
-9.82385e-10
-8.80521e-12
-2.84468e-12
-9.85725e-10
-2.68514e-12
-9.89062e-10
-3.12746e-12
-6.17116e-12
-9.79472e-10
-5.73838e-12
-5.98128e-12
-9.81047e-10
-7.62385e-12
-5.67462e-12
-9.83653e-10
-8.66109e-12
-5.34158e-12
-9.86873e-10
-5.03971e-12
-9.90171e-10
-2.92945e-12
-8.26693e-12
-9.8238e-10
-5.43407e-12
-8.01573e-12
-9.83738e-10
-7.29081e-12
-7.60814e-12
-9.86084e-10
-8.35498e-12
-7.16624e-12
-9.89071e-10
-6.76048e-12
-9.92261e-10
-2.6654e-12
-9.33968e-12
-9.86193e-10
-5.0288e-12
-9.08566e-12
-9.87241e-10
-6.84887e-12
-8.64792e-12
-9.89233e-10
-7.94452e-12
-8.15681e-12
-9.91923e-10
-7.68799e-12
-9.94972e-10
-2.39534e-12
-9.9027e-10
-4.59412e-12
-9.91049e-10
-6.35947e-12
-9.92693e-10
-7.47382e-12
-9.95094e-10
-9.97989e-10
-4.87451e-12
-4.76957e-12
-9.68354e-10
-8.54998e-12
-4.56425e-12
-9.7144e-10
-1.10814e-11
-4.30162e-12
-9.75552e-10
-1.2135e-11
-4.00248e-12
-9.80669e-10
-3.79736e-12
-9.85117e-10
-4.6823e-12
-9.0402e-12
-9.7052e-10
-8.31048e-12
-8.63973e-12
-9.73344e-10
-1.08095e-11
-8.07877e-12
-9.77377e-10
-1.19484e-11
-7.51775e-12
-9.82219e-10
-7.10918e-12
-9.86726e-10
-4.28077e-12
-1.20286e-11
-9.75111e-10
-7.75496e-12
-1.14836e-11
-9.7742e-10
-1.02505e-11
-1.07316e-11
-9.80935e-10
-1.15295e-11
-9.99816e-12
-9.85312e-10
-9.45264e-12
-9.89728e-10
-3.72555e-12
-1.33744e-11
-9.81121e-10
-7.0075e-12
-1.2863e-11
-9.8258e-10
-9.51819e-12
-1.20849e-11
-9.85369e-10
-1.09715e-11
-1.13066e-11
-9.89161e-10
-1.0679e-11
-9.93513e-10
-3.19392e-12
-9.87321e-10
-6.23612e-12
-9.88086e-10
-8.74594e-12
-9.90159e-10
-1.03428e-11
-9.93486e-10
-9.97759e-10
-7.80042e-12
-6.97316e-12
-9.53581e-10
-1.26178e-11
-6.5063e-12
-9.60116e-10
-1.60802e-11
-6.14149e-12
-9.65948e-10
-1.65827e-11
-5.57083e-12
-9.74596e-10
-5.40517e-12
-9.80418e-10
-7.38895e-12
-1.35543e-11
-9.5655e-10
-1.22897e-11
-1.26469e-11
-9.62302e-10
-1.55718e-11
-1.15856e-11
-9.68651e-10
-1.64351e-11
-1.05692e-11
-9.76358e-10
-1.00781e-11
-9.82849e-10
-6.52536e-12
-1.79307e-11
-9.64209e-10
-1.12341e-11
-1.65877e-11
-9.6877e-10
-1.45697e-11
-1.51314e-11
-9.74053e-10
-1.59165e-11
-1.38307e-11
-9.80703e-10
-1.32154e-11
-9.87045e-10
-5.20364e-12
-1.94852e-11
-9.74363e-10
-9.77948e-12
-1.83225e-11
-9.76269e-10
-1.32772e-11
-1.68502e-11
-9.80152e-10
-1.52619e-11
-1.56065e-11
-9.85401e-10
-1.48818e-11
-9.92195e-10
-4.0036e-12
-9.84538e-10
-8.31625e-12
-9.84275e-10
-1.20531e-11
-9.86553e-10
-1.45509e-11
-9.91089e-10
-9.9801e-10
-1.35825e-11
-1.00443e-11
-9.29954e-10
-1.84876e-11
-8.80511e-12
-9.46406e-10
-2.42599e-11
-8.85253e-12
-9.51323e-10
-2.2411e-11
-7.38729e-12
-9.69057e-10
-7.80482e-12
-9.76483e-10
-1.26066e-11
-2.10379e-11
-9.32949e-10
-1.85885e-11
-1.88989e-11
-9.46226e-10
-2.3061e-11
-1.68593e-11
-9.56171e-10