/*--------------------------------*- C++ -*----------------------------------*\
| =========                 |                                                 |
| \\      /  F ield         | OpenFOAM: The Open Source CFD Toolbox           |
|  \\    /   O peration     | Version:  5.x                                   |
|   \\  /    A nd           | Web:      www.OpenFOAM.org                      |
|    \\/     M anipulation  |                                                 |
\*---------------------------------------------------------------------------*/
FoamFile
{
    version     2.0;
    format      ascii;
    class       surfaceScalarField;
    location    "90000";
    object      phi;
}
// * * * * * * * * * * * * * * * * * * * * * * * * * * * * * * * * * * * * * //

dimensions      [0 3 -1 0 0 0 0];

internalField   nonuniform List<scalar> 
5825
(
-6.66875e-05
7.96775e-05
-1000
-6.53303e-05
7.5291e-05
-1000
-4.82246e-05
7.44306e-05
-1000
-2.31382e-05
7.63443e-05
-1000
7.59452e-05
-1000
-7.40742e-05
0.000132128
-1000
-6.59182e-05
0.000127881
-1000
-4.59483e-05
0.000130533
-1000
-2.30114e-05
0.000132614
-1000
0.000133152
-1000
-7.00858e-05
0.000173564
-1000
-6.05067e-05
0.000176044
-1000
-4.37793e-05
0.000181493
-1000
-2.24515e-05
0.000182122
-1000
0.000182498
-1000
-6.97189e-05
0.000221046
-1000
-5.90392e-05
0.000222606
-1000
-4.25718e-05
0.000223173
-1000
-2.29813e-05
0.00022179
-1000
0.000220356
-1000
-8.01763e-05
-1000
-6.57168e-05
-1000
-4.68387e-05
-1000
-2.77452e-05
-1000
-1000
-0.000171736
0.000201651
-1000
-0.000159166
0.00019449
-1000
-0.000116146
0.000194494
-1000
-5.73969e-05
0.000199263
-1000
0.00019868
-1000
-0.000181007
0.000346987
-1000
-0.00015622
0.00034241
-1000
-0.00011073
0.000349268
-1000
-5.79097e-05
0.000353739
-1000
0.000356227
-1000
-0.000172729
0.000467883
-1000
-0.000144263
0.000472897
-1000
-0.000104861
0.000485192
-1000
-5.69523e-05
0.000486641
-1000
0.000488196
-1000
-0.000153647
0.000585819
-1000
-0.000140171
0.000593462
-1000
-0.000102457
0.000587533
-1000
-5.84145e-05
0.000578637
-1000
0.000575388
-1000
-0.000177658
-1000
-0.000159445
-1000
-0.000110452
-1000
-6.32537e-05
-1000
-1000
-0.000273874
0.000342261
-1000
-0.000254157
0.00033472
-1000
-0.000181966
0.000336562
-1000
-9.16533e-05
0.000343315
-1000
0.000342945
-1000
-0.000280739
0.000609494
-1000
-0.000249848
0.00061346
-1000
-0.00017454
0.000616387
-1000
-9.22917e-05
0.000620769
-1000
0.000623101
-1000
-0.000274888
0.000842221
-1000
-0.000237278
0.000849896
-1000
-0.000168379
0.000852211
-1000
-9.22694e-05
0.000853107
-1000
0.000853831
-1000
-0.000269769
0.00102273
-1000
-0.000234266
0.00103002
-1000
-0.000168698
0.00101732
-1000
-9.10329e-05
0.0010072
-1000
0.00100774
-1000
-0.000282127
-1000
-0.000259395
-1000
-0.000177167
-1000
-9.10869e-05
-1000
-1000
-0.000405665
0.000520989
-1000
-0.000365279
0.000513966
-1000
-0.000255134
0.000517547
-1000
-0.000133905
0.000524644
-1000
0.000522174
-1000
-0.000408228
0.00096002
-1000
-0.000358948
0.000959223
-1000
-0.000248444
0.000954679
-1000
-0.000136931
0.000956244
-1000
0.000953615
-1000
-0.0003996
0.00132274
-1000
-0.000356506
0.0013269
-1000
-0.000251044
0.00131481
-1000
-0.000139941
0.00131232
-1000
0.00130902
-1000
-0.000408565
0.00159387
-1000
-0.000364371
0.00157106
-1000
-0.000260469
0.00155578
-1000
-0.00014078
0.00154967
-1000
0.00154776
-1000
-0.000449777
-1000
-0.000390666
-1000
-0.0002723
-1000
-0.000144395
-1000
-1000
-0.000604869
0.000752415
-1000
-0.000521011
0.000750064
-1000
-0.000366657
0.000753429
-1000
-0.000199049
0.000755395
-1000
0.000745694
-1000
-0.000608074
0.00141204
-1000
-0.000517884
0.00140931
-1000
-0.000366897
0.00139626
-1000
-0.000207088
0.00138727
-1000
0.00137694
-1000
-0.000610105
0.00195004
-1000
-0.000527871
0.00193888
-1000
-0.00037933
0.00191553
-1000
-0.000214408
0.00190392
-1000
0.0018933
-1000
-0.000615847
0.00230438
-1000
-0.000548969
0.00226711
-1000
-0.00039868
0.00225122
-1000
-0.000221503
0.00224274
-1000
0.0022305
-1000
-0.000669516
-1000
-0.000575466
-1000
-0.00041861
-1000
-0.00023069
-1000
-1000
-0.000888582
0.00105628
-1000
-0.000750027
0.00105823
-1000
-0.000541073
0.00105726
-1000.01
-0.000299762
0.00104924
-1000.01
0.00103424
-1000.01
-0.000889139
0.00200749
-1000
-0.000752602
0.00199772
-1000
-0.000549774
0.00197337
-1000
-0.000312413
0.00195279
-1000.01
0.00193833
-1000.01
-0.000902189
0.00277927
-1000
-0.000775203
0.00274988
-1000
-0.000569971
0.00270906
-1000
-0.000323634
0.00268357
-1000
0.002667
-1000
-0.000932004
0.00324845
-1000
-0.000811641
0.00318971
-1000
-0.000597433
0.00316144
-1000
-0.000335494
0.00314573
-1000
0.00312751
-1000
-0.00100516
-1000
-0.000846169
-1000
-0.000617383
-1000
-0.000346858
-1000
-1000
-0.00127432
0.00146786
-1000.01
-0.00108456
0.0014673
-1000.01
-0.000798846
0.00145794
-1000.01
-0.000443038
0.00144243
-1000.01
0.00142688
-1000.01
-0.00127712
0.00279874
-1000.01
-0.00109582
0.00277322
-1000.01
-0.000815019
0.00274216
-1000.01
-0.000456152
0.00271668
-1000.01
0.00270132
-1000.01
-0.00130323
0.00388445
-1000
-0.00112818
0.00382171
-1000
-0.000840412
0.00376786
-1000.01
-0.000467478
0.00373537
-1000.01
0.00371613
-1000.01
-0.00136605
0.00452257
-1000
-0.00117662
0.00443478
-1000
-0.000869782
0.00438954
-1000
-0.000478427
0.00436581
-1000
0.00434646
-1000
-0.00147478
-1000
-0.00124277
-1000
-0.00089806
-1000
-0.000489205
-1000
-1000
-0.00181855
0.00202979
-1000.01
-0.00156574
0.00201757
-1000.01
-0.00116015
0.00199892
-1000.01
-0.000633108
0.0019817
-1000.01
0.00196961
-1000.01
-0.00183448
0.00384737
-1000.01
-0.00158663
0.00381123
-1000.01
-0.00117896
0.00378085
-1000.01
-0.000642415
0.00375878
-1000.01
0.00374403
-1000.01
-0.00186887
0.00532311
-1000.01
-0.00161938
0.00524279
-1000.01
-0.00120171
0.00519323
-1000.01
-0.000650025
0.00516658
-1000.01
0.00514828
-1000.01
-0.00194218
0.00621622
-1000
-0.00166438
0.00612182
-1000
-0.00122386
0.00606898
-1000.01
-0.000655121
0.00604069
-1000.01
0.00601896
-1000.01
-0.00207833
-1000
-0.0017532
-1000
-0.00125892
-1000
-0.000666327
-1000
-1000
-0.00258628
0.00278215
-1000.01
-0.00222938
0.00275697
-1000.01
-0.00164117
0.00273555
-1000.01
-0.000879719
0.00272337
-1000.01
0.0027153
-1000.01
-0.00261787
0.00523917
-1000.01
-0.00225458
0.00521076
-1000.01
-0.00165745
0.00518904
-1000.01
-0.000883913
0.00517643
-1000.01
0.00516313
-1000.01
-0.0026497
0.00720038
-1000.01
-0.00227592
0.00714745
-1000.01
-0.00167067
0.00712318
-1000.01
-0.000886095
0.0071138
-1000.01
0.00709772
-1000.01
-0.00269423
0.00845476
-1000.01
-0.00229659
0.0083902
-1000.01
-0.00167779
0.0083548
-1000.01
-0.000884788
0.00833597
-1000.01
0.00830961
-1000.01
-0.00278602
-1000
-0.00234737
-1000
-0.00169811
-1000
-0.000893526
-1000
-1000
-0.00362096
0.00378339
-1000.02
-0.00310184
0.00375442
-1000.02
-0.00226497
0.00373962
-1000.02
-0.00120034
0.00373463
-1000.02
0.00372847
-1000.02
-0.00366019
0.00712277
-1000.01
-0.00312317
0.00711021
-1000.02
-0.00227569
0.00710276
-1000.02
-0.00120073
0.00710054
-1000.02
0.00708668
-1000.02
-0.0036795
0.00973874
-1000.01
-0.00312794
0.00974378
-1000.01
-0.00227769
0.00975284
-1000.01
-0.00119899
0.0097609
-1000.01
0.00974225
-1000.01
-0.00368247
0.011451
-1000.01
-0.00311389
0.0114434
-1000.01
-0.00226927
0.0114606
-1000.01
-0.00119498
0.0114613
-1000.01
0.0114279
-1000.01
-0.0036748
-1000
-0.00308987
-1000
-0.00226489
-1000.01
-0.00120159
-1000.01
-1000.01
-0.00496104
0.00513665
-1000.02
-0.00422989
0.00511205
-1000.02
-0.00307691
0.00510728
-1000.02
-0.00162425
0.00510754
-1000.03
0.00509959
-1000.03
-0.00499823
0.00971509
-1000.02
-0.00424429
0.00970582
-1000.02
-0.00308324
0.00970898
-1000.02
-0.00162352
0.00971012
-1000.02
0.00968868
-1000.02
-0.00501253
0.0132873
-1000.01
-0.00423997
0.0133144
-1000.02
-0.00308097
0.0133417
-1000.02
-0.00162261
0.0133518
-1000.02
0.0133219
-1000.02
-0.00498991
0.0155834
-1000.01
-0.00420943
0.0156471
-1000.01
-0.00307001
0.0156879
-1000.01
-0.00162299
0.0156917
-1000.01
0.015645
-1000.02
-0.00492868
-1000
-0.00416104
-1000.01
-0.00305861
-1000.01
-0.00163306
-1000.01
-1000.01
-0.00670787
0.00699089
-1000.03
-0.00571942
0.00697227
-1000.03
-0.0041614
0.0069711
-1000.03
-0.00219629
0.00697003
-1000.03
0.00695449
-1000.03
-0.00674215
0.0132767
-1000.03
-0.00573359
0.0132534
-1000.03
-0.00417036
0.0132516
-1000.03
-0.00219913
0.0132447
-1000.03
0.0132101
-1000.03
-0.00676826
0.0182029
-1000.02
-0.00573615
0.0182038
-1000.02
-0.0041757
0.0182173
-1000.02
-0.0022039
0.0182132
-1000.03
0.018168
-1000.03
-0.00676389
0.0213643
-1000.01
-0.00572149
0.0214096
-1000.02
-0.00417698
0.0214204
-1000.02
-0.00220901
0.0214061
-1000.02
0.0213423
-1000.02
-0.0067364
-1000.01
-0.00570999
-1000.01
-0.00418429
-1000.01
-0.00222308
-1000.01
-1000.01
-0.00907457
0.00953303
-1000.04
-0.00774905
0.00951356
-1000.04
-0.00564529
0.00950469
-1000.04
-0.00298218
0.00949538
-1000.05
0.00947077
-1000.05
-0.00911604
0.0181112
-1000.03
-0.00777417
0.018072
-1000.04
-0.0056648
0.018054
-1000.04
-0.00299082
0.0180368
-1000.04
0.017992
-1000.04
-0.00915909
0.0248753
-1000.03
-0.00779326
0.0248381
-1000.03
-0.00568014
0.0248229
-1000.03
-0.00299585
0.0248066
-1000.04
0.0247499
-1000.04
-0.00919079
0.0292547
-1000.02
-0.00780836
0.0292228
-1000.02
-0.00569202
0.0291826
-1000.02
-0.00299731
0.0291509
-1000.03
0.0290748
-1000.03
-0.00924609
-1000.01
-0.00785079
-1000.01
-0.00571617
-1000.01
-0.00300643
-1000.02
-1000.02
-0.0123579
0.0129852
-1000.05
-0.0105456
0.0129601
-1000.06
-0.00768322
0.0129418
-1000.06
-0.00405981
0.0129276
-1000.06
0.0128996
-1000.06
-0.0124123
0.0246351
-1000.05
-0.010585
0.0245964
-1000.05
-0.00771226
0.0245709
-1000.05
-0.0040682
0.0245562
-1000.06
0.024506
-1000.06
-0.0124576
0.0338681
-1000.04
-0.0106114
0.0338203
-1000.04
-0.00772472
0.0337933
-1000.05
-0.00406392
0.0337803
-1000.05
0.0337116
-1000.05
-0.0125036
0.0398675
-1000.02
-0.010639
0.0397824
-1000.03
-0.0077331
0.0397228
-1000.03
-0.00405778
0.0396951
-1000.04
0.0396106
-1000.04
-0.0125934
-1000.01
-0.0106967
-1000.01
-0.00775034
-1000.02
-0.0040519
-1000.02
-1000.02
-0.0168714
0.0176457
-1000.07
-0.0143599
0.0176259
-1000.08
-0.0104502
0.0176115
-1000.08
-0.00551647
0.0176045
-1000.09
0.0175751
-1000.09
-0.0169289
0.0334718
-1000.06
-0.0144049
0.0334517
-1000.07
-0.0104786
0.0334383
-1000.07
-0.00551955
0.033437
-1000.08
0.0333729
-1000.08
-0.0169551
0.0460575
-1000.05
-0.0144199
0.0460218
-1000.06
-0.0104768
0.0460037
-1000.06
-0.00550882
0.0459982
-1000.07
0.0459031
-1000.07
-0.0169909
0.0542237
-1000.03
-0.0144391
0.0541225
-1000.04
-0.010477
0.0540738
-1000.05
-0.00550194
0.0540604
-1000.05
0.0539543
-1000.05
-0.017084
-1000.01
-0.0144818
-1000.02
-0.0104776
-1000.03
-0.00548431
-1000.03
-1000.03
-0.0229599
0.0239589
-1000.09
-0.0195016
0.0239615
-1000.1
-0.0141745
0.0239647
-1000.11
-0.00747583
0.0239706
-1000.12
0.0239282
-1000.12
-0.0230073
0.0454973
-1000.09
-0.0195425
0.0454992
-1000.09
-0.0141981
0.0455052
-1000.1
-0.00748224
0.0455095
-1000.11
0.0454125
-1000.11
-0.0230087
0.062644
-1000.07
-0.0195395
0.0626163
-1000.08
-0.0141887
0.0626075
-1000.08
-0.00747746
0.062597
-1000.09
0.0624575
-1000.09
-0.023031
0.0737264
-1000.05
-0.0195485
0.0736305
-1000.05
-0.0141911
0.073595
-1000.06
-0.00747714
0.0735796
-1000.07
0.0734221
-1000.07
-0.0231182
-1000.02
-0.0195813
-1000.03
-0.0141933
-1000.03
-0.00746749
-1000.04
-1000.04
-0.031131
0.0325536
-1000.13
-0.0264283
0.0325818
-1000.14
-0.0192001
0.0326019
-1000.15
-0.0101292
0.0326123
-1000.16
0.0325417
-1000.16
-0.031172
0.0618675
-1000.12
-0.0264687
0.0618845
-1000.13
-0.0192295
0.0618989
-1000.14
-0.0101511
0.0618946
-1000.14
0.0617533
-1000.15
-0.0311568
0.0851857
-1000.09
-0.0264574
0.0851599
-1000.11
-0.0192264
0.0851489
-1000.12
-0.0101539
0.0851238
-1000.12
0.0849286
-1000.13
-0.031173
0.100211
-1000.06
-0.0264668
0.100134
-1000.07
-0.0192389
0.100093
-1000.08
-0.0101579
0.100051
-1000.09
0.0998116
-1000.09
-0.0312386
-1000.03
-0.0265094
-1000.04
-0.0192683
-1000.05
-0.010171
-1000.05
-1000.06
-0.0421863
0.044262
-1000.18
-0.0358229
0.0443063
-1000.19
-0.0260266
0.0443344
-1000.2
-0.0137402
0.044342
-1000.21
0.0442409
-1000.22
-0.0422371
0.0841182
-1000.16
-0.0358763
0.0841462
-1000.17
-0.0260732
0.0841619
-1000.19
-0.0137744
0.0841519
-1000.2
0.0839664
-1000.2
-0.042211
0.115789
-1000.13
-0.035863
0.11577
-1000.14
-0.0260734
0.115755
-1000.16
-0.0137708
0.115724
-1000.17
0.115464
-1000.17
-0.0422213
0.136177
-1000.09
-0.0358746
0.136111
-1000.1
-0.0260869
0.13605
-1000.11
-0.0137689
0.135976
-1000.12
0.135645
-1000.13
-0.0422722
-1000.03
-0.0359367
-1000.05
-0.0261436
-1000.06
-0.0137918
-1000.07
-1000.08
-0.0572566
0.0601872
-1000.24
-0.0486201
0.0602456
-1000.26
-0.0353188
0.0602852
-1000.28
-0.0186464
0.0602991
-1000.29
0.0601747
-1000.3
-0.0573263
0.11434
-1000.22
-0.0486896
0.114391
-1000.24
-0.0353776
0.114426
-1000.25
-0.018678
0.114436
-1000.27
0.114204
-1000.27
-0.0572773
0.157351
-1000.17
-0.0486558
0.157353
-1000.19
-0.0353549
0.157358
-1000.21
-0.0186517
0.157344
-1000.23
0.157006
-1000.23
-0.0572662
0.185033
-1000.12
-0.0486464
0.184963
-1000.14
-0.0353436
0.184897
-1000.15
-0.0186308
0.184826
-1000.17
0.184406
-1000.17
-0.0573182
-1000.05
-0.048708
-1000.07
-0.0353889
-1000.09
-0.01863
-1000.1
-1000.11
-0.0778222
0.0818258
-1000.32
-0.0660375
0.081923
-1000.35
-0.0479404
0.0820017
-1000.38
-0.0252939
0.0820464
-1000.4
0.0818989
-1000.41
-0.0778966
0.155392
-1000.29
-0.0661043
0.155509
-1000.32
-0.0479921
0.155614
-1000.35
-0.0253132
0.155677
-1000.36
0.155385
-1000.37
-0.0777793
0.213823
-1000.24
-0.0660013
0.213885
-1000.26
-0.0479087
0.213955
-1000.29
-0.0252523
0.213989
-1000.31
0.213556
-1000.32
-0.0777032
0.251415
-1000.16
-0.0659222
0.251361
-1000.19
-0.0478378
0.251334
-1000.21
-0.0251951
0.251307
-1000.23
0.250775
-1000.24
-0.0777362
-1000.06
-0.0659404
-1000.09
-0.0478262
-1000.12
-0.0251526
-1000.13
-1000.14
-0.105823
0.111232
-1000.44
-0.0896873
0.11143
-1000.48
-0.0650475
0.111596
-1000.51
-0.0342916
0.111705
-1000.54
0.111526
-1000.55
-0.105854
0.211189
-1000.4
-0.0897137
0.211462
-1000.44
-0.0650652
0.211706
-1000.47
-0.0342945
0.211865
-1000.49
0.211498
-1000.51
-0.105576
0.290585
-1000.32
-0.0894661
0.290782
-1000.36
-0.0648742
0.29098
-1000.39
-0.0341786
0.291101
-1000.42
0.29055
-1000.43
-0.105355
0.341666
-1000.21
-0.089249
0.341674
-1000.25
-0.0646993
0.341721
-1000.29
-0.0340596
0.341745
-1000.31
0.341035
-1000.32
-0.105319
-1000.09
-0.0891887
-1000.13
-0.0646196
-1000.16
-0.033986
-1000.18
-1000.19
-0.143895
0.151233
-1000.6
-0.121769
0.151633
-1000.66
-0.0882151
0.151966
-1000.7
-0.0464628
0.152193
-1000.73
0.151978
-1000.75
-0.143796
0.287077
-1000.54
-0.121689
0.287662
-1000.6
-0.0881535
0.288162
-1000.64
-0.046433
0.288493
-1000.67
0.288049
-1000.69
-0.143193
0.39494
-1000.44
-0.121172
0.395417
-1000.49
-0.0877716
0.395849
-1000.53
-0.0462132
0.396127
-1000.57
0.395433
-1000.58
-0.142672
0.464354
-1000.29
-0.120704
0.464502
-1000.34
-0.0874138
0.464656
-1000.39
-0.0459894
0.464729
-1000.42
0.463769
-1000.44
-0.142491
-1000.12
-0.120526
-1000.17
-0.0872614
-1000.22
-0.0458782
-1000.25
-1000.26
-0.195708
0.205698
-1000.82
-0.165293
0.206484
-1000.89
-0.119589
0.207135
-1000.95
-0.0629064
0.207585
-1001
0.207353
-1001.02
-0.195313
0.390342
-1000.74
-0.164968
0.391528
-1000.81
-0.119352
0.392511
-1000.87
-0.0627953
0.393179
-1000.92
0.392687
-1000.94
-0.194077
0.536802
-1000.6
-0.163941
0.537843
-1000.67
-0.1186
0.538724
-1000.73
-0.0623736
0.539313
-1000.77
0.538467
-1000.79
-0.192958
0.631032
-1000.4
-0.16299
0.63146
-1000.47
-0.117889
0.631831
-1000.53
-0.061959
0.632028
-1000.57
0.630771
-1000.59
-0.192481
-1000.17
-0.162576
-1000.23
-0.117577
-1000.29
-0.0617497
-1000.33
-1000.36
-0.26637
0.279934
-1001.12
-0.224348
0.28148
-1001.22
-0.162116
0.28274
-1001.3
-0.0850707
0.283631
-1001.36
0.283442
-1001.39
-0.265318
0.530942
-1001.01
-0.223496
0.533296
-1001.11
-0.16149
0.535214
-1001.19
-0.0847729
0.536572
-1001.25
0.536104
-1001.28
-0.262855
0.729659
-1000.81
-0.221473
0.731804
-1000.91
-0.159989
0.733566
-1000.99
-0.0839714
0.734793
-1001.04
0.73382
-1001.07
-0.260569
0.857351
-1000.54
-0.219575
0.858354
-1000.63
-0.15857
0.859192
-1000.71
-0.0832044
0.859717
-1000.77
0.85811
-1000.8
-0.259484
-1000.23
-0.218654
-1000.32
-0.157873
-1000.39
-0.0827974
-1000.45
-1000.48
-0.363086
0.381294
-1001.52
-0.304421
0.384368
-1001.66
-0.21996
0.386772
-1001.77
-0.114768
0.388588
-1001.85
0.388549
-1001.89
-0.360614
0.722543
-1001.37
-0.302485
0.727235
-1001.51
-0.218461
0.730944
-1001.62
-0.114097
0.733733
-1001.69
0.733418
-1001.74
-0.355702
0.99183
-1001.1
-0.298536
0.996177
-1001.23
-0.215433
0.999621
-1001.34
-0.112622
1.00216
-1001.41
1.00112
-1001.45
-0.351103
1.16448
-1000.74
-0.294821
1.16669
-1000.86
-0.212591
1.16843
-1000.96
-0.111239
1.16968
-1001.04
1.16763
-1001.08
-0.348753
-1000.31
-0.292927
-1000.43
-0.211086
-1000.53
-0.110505
-1000.6
-1000.64
-0.496562
0.520035
-1002.07
-0.412428
0.52633
-1002.27
-0.299465
0.530778
-1002.41
-0.153847
0.534643
-1002.53
0.534833
-1002.58
-0.490989
0.984035
-1001.87
-0.408408
0.993641
-1002.06
-0.295998
1.00057
-1002.2
-0.152567
1.00646
-1002.31
1.00639
-1002.36
-0.480992
1.34817
-1001.5
-0.400918
1.3571
-1001.68
-0.289765
1.36354
-1001.81
-0.150039
1.3689
-1001.92
1.36777
-1001.96
-0.471651
1.58085
-1001
-0.393922
1.58566
-1001.17
-0.283985
1.58894
-1001.3
-0.147729
1.59179
-1001.4
1.58905
-1001.44
-0.466664
-1000.43
-0.390299
-1000.58
-0.280775
-1000.71
-0.146559
-1000.81
-1000.85
-0.684667
0.71048
-1002.82
-0.554845
0.724251
-1003.12
-0.412044
0.731639
-1003.29
-0.202835
0.740585
-1003.48
0.740564
-1003.52
-0.672037
1.34165
-1002.54
-0.54729
1.36243
-1002.82
-0.403999
1.37412
-1002.98
-0.200717
1.38756
-1003.16
1.38709
-1003.21
-0.650945
1.83213
-1002.03
-0.534131
1.85136
-1002.28
-0.390555
1.86215
-1002.44
-0.196978
1.87431
-1002.6
1.87223
-1002.65
-0.63137
2.14417
-1001.36
-0.522043
2.15502
-1001.58
-0.378258
2.16037
-1001.74
-0.193902
2.16729
-1001.87
2.16293
-1001.93
-0.62049
-1000.58
-0.515843
-1000.79
-0.371035
-1000.95
-0.192568
-1001.06
-1001.12
-0.962587
0.971709
-1003.8
-0.732857
1.00572
-1004.36
-0.580677
1.01376
-1004.45
-0.259515
1.03728
-1004.84
1.03397
-1004.82
-0.933498
1.83081
-1003.42
-0.719395
1.88114
-1003.91
-0.562249
1.89441
-1004.02
-0.256089
1.9298
-1004.36
1.92382
-1004.35
-0.886768
2.48686
-1002.73
-0.698434
2.53283
-1003.12
-0.532062
2.54493
-1003.26
-0.251232
2.57654
-1003.52
2.56802
-1003.54
-0.84334
2.90316
-1001.83
-0.680894
2.93058
-1002.14
-0.504467
2.93539
-1002.31
-0.248972
2.95478
-1002.51
2.94479
-1002.55
-0.817562
-1000.79
-0.67309
-1001.04
-0.486416
-1001.23
-0.249165
-1001.38
-1001.45
-1.39348
1.32557
-1005.01
-0.950346
1.41996
-1006.22
-0.842558
1.412
-1005.97
-0.321554
1.4783
-1006.84
1.46039
-1006.6
-1.33017
2.49468
-1004.51
-0.923189
2.63425
-1005.53
-0.803367
2.62106
-1005.35
-0.315309
2.72445
-1006.09
2.6925
-1005.9
-1.22818
3.35935
-1003.57
-0.886021
3.48707
-1004.32
-0.738461
3.47157
-1004.26
-0.308075
3.56526
-1004.79
3.52725
-1004.68
-1.13021
3.91539
-1002.42
-0.862666
3.99728
-1002.92
-0.679103
3.9805
-1003
-0.309269
4.04372
-1003.36
4.01181
-1003.35
-1.06331
-1001.06
-0.859529
-1001.36
-0.631399
-1001.55
-0.314228
-1001.73
-1001.79
-2.05195
1.79449
-1006.44
-1.2375
2.05396
-1009.09
-1.24552
1.9814
-1007.95
-0.387199
2.15791
-1009.86
2.09645
-1009.08
-1.92384
3.38528
-1005.8
-1.17817
3.77648
-1008
-1.16632
3.64551
-1007.03
-0.375173
3.93542
-1008.66
3.82123
-1008
-1.71879
4.47914
-1004.47
-1.09967
4.85328
-1006.01
-1.03347
4.70099
-1005.38
-0.362452
4.97371
-1006.5
4.83638
-1006.06
-1.52034
5.23195
-1003.11
-1.05746
5.5047
-1004.03
-0.922898
5.37481
-1003.81
-0.373124
5.5869
-1004.52
5.48017
-1004.37
-1.35518
-1001.34
-1.05857
-1001.65
-0.802668
-1001.77
-0.38051
-1001.98
-1001.99
-3.03623
2.3948
-1008.04
-1.64632
3.05628
-1013.54
-1.86897
2.81683
-1010.54
-0.447587
3.24419
-1014.52
3.07659
-1012.61
-2.77782
4.59172
-1007.34
-1.51515
5.58459
-1011.79
-1.71077
5.13348
-1009.15
-0.42471
5.86805
-1012.57
5.54219
-1010.89
-2.37494
5.83269
-1005.28
-1.34596
6.81324
-1008.27
-1.43302
6.26993
-1006.43
-0.400024
6.96585
-1008.63
6.57613
-1007.5
-2.00183
6.88408
-1003.94
-1.27257
7.73143
-1005.68
-1.25893
7.22591
-1004.78
-0.447371
7.85355
-1006.22
7.53231
-1005.77
-1.65585
-1001.47
-1.22678
-1001.68
-0.958369
-1001.59
-0.432468
-1001.71
-1001.66
-4.51805
3.12057
-1009.65
-2.27361
4.67875
-1020.46
-2.86706
4.07774
-1014.03
-0.4744
5.03077
-1021.94
4.63287
-1017.71
-3.98394
6.2775
-1009.32
-1.97266
8.58059
-1017.7
-2.55453
7.39596
-1011.88
-0.431969
9.1154
-1018.78
8.27922
-1014.97
-3.19286
7.37095
-1005.66
-1.60244
9.61377
-1010.89
-1.94014
8.23131
-1006.93
-0.383548
9.84137
-1010.92
8.91429
-1008.51
-2.50753
8.89234
-1005.02
-1.52025
11.1137
-1008.17
-1.75229
9.65432
-1005.97
-0.549812
11.2155
-1008.79
10.3479
-1007.75
-1.82598
-1001.08
-1.2616
-1000.84
-0.990549
-1000.37
-0.44405
-1000.17
-1000.14
-6.77677
3.97488
-1010.89
-3.34061
7.39557
-1031.29
-4.54987
6.08315
-1018.9
-0.38176
8.1287
-1034.24
7.24073
-1025.34
-5.66353
8.65859
-1012.06
-2.61411
13.7363
-1027.09
-3.94662
10.9561
-1015.42
-0.292774
14.7979
-1029.1
12.7451
-1020.77
-4.08822
9.15945
-1005.2
-1.80794
13.8172
-1013.26
-2.54207
10.8214
-1006.06
-0.235906
14.2805
-1012.71
12.2178
-1008.22
-2.872
11.0904
-1006.28
-1.79607
16.156
-1011.58
-2.52788
12.6209
-1007.04
-0.691975
16.0688
-1012.42
13.9593
-1010.19
-1.52861
-999.664
-0.975712
-998.04
-0.707181
-997.202
-0.437377
-996.02
-996.656
-10.1706
4.85675
-1010.88
-5.36903
12.3294
-1048.42
-7.62494
9.65916
-1026.3
0.0623259
14.018
-1055.95
12.063
-1037.34
-7.96996
11.9462
-1016.18
-3.54922
22.8269
-1042.01
-6.44751
16.7001
-1019.57
0.312029
25.135
-1046.98
20.2582
-1028.65
-4.7076
11.4717
-1003.93
-1.83466
20.3822
-1013.68
-3.21352
14.4375
-1002.42
0.222279
21.4093
-1012.42
16.9628
-1004.71
-2.60942
12.9197
-1006.99
-2.05994
23.3559
-1015.11
-3.80519
15.8125
-1006.67
-0.864159
22.8773
-1016.83
18.0916
-1012.18
-0.0874614
-996.485
-0.0321579
-991.224
0.00834815
-990.659
-0.545036
-987.027
-990.44
-14.7586
5.13895
-1007.57
-9.44332
21.4741
-1075.21
-13.3227
16.3387
-1038.76
2.04741
25.4675
-1096.78
21.3362
-1056.63
-10.7275
16.26
-1023.42
-4.83599
39.0038
-1065.43
-10.9301
25.839
-1022.97
2.94798
44.1207
-1079.51
32.8362
-1037.2
-3.93135
14.875
-1003.41
-1.29108
30.7352
-1008.06
-3.65995
19.4207
-993.629
1.72724
32.9373
-1006.62
23.3807
-993.523
-0.499375
13.6614
-1005.58
-2.26703
33.0508
-1015.65
-6.05454
18.5418
-1002
-1.00584
32.0887
-1021.03
21.7133
-1011.52
3.98862
-989.407
2.09092
-976.328
1.57226
-978.499
-1.28652
-968.995
-981.489
-12.841
2.07949
-1000.33
-12.2685
32.4895
-1108.27
-16.3162
21.7479
-1056.46
9.96654
36.9175
-1159.98
28.0505
-1074.71
-10.1272
19.3226
-1038.44
-4.2107
61.8627
-1100.72
-14.7381
33.6626
-1024.36
11.022
67.664
-1136.02
42.7562
-1040.88
0.851802
20.4185
-1011.13
1.56919
46.1509
-993.061
-2.59499
25.047
-980.85
5.75916
48.7056
-996.015
27.6381
-972.645
4.59825
12.5167
-995.946
-2.25182
44.807
-1007.46
-10.3156
19.0471
-987.936
-0.86731
43.0354
-1024.81
21.4107
-1006.16
13.7754
-973.244
5.51108
-944.675
3.79102
-957.083
-3.76935
-935.886
-972.477
-60.2431
-0.271451
-952.821
-62.9818
99.1688
-1204.7
-70.6803
91.4855
-1140.25
14.2408
135.093
-1380
113.995
-1174.46
-39.5473
56.3781
-1087.29
-21.837
176.709
-1195.97
-54.0746
132.83
-1033.47
22.2574
226.573
-1303.83
156.306
-1060.94
16.5209
69.6936
-1046.2
15.6095
110.882
-926.323
-14.8227
66.3695
-883.957
-1.33367
125.24
-908.171
72.4593
-890.132
22.2369
-1.57228
-902.723
-0.0521382
71.0527
-945.341
-23.3666
14.7434
-912.996
-5.03539
64.3932
-982.289
13.2937
-952.026
42.2412
-893.115
3.18092
-841.75
-11.1354
-902.904
-35.0025
-864.301
-1010.6
37.5532
-39.2067
-888.457
-30.4676
38.41
-1175.09
-24.9572
15.3308
-1161.09
64.9845
62.5049
-1532.44
31.727
-1141.21
21.7176
-17.2588
-1123.6
9.24556
89.2965
-1234.39
-23.8122
-18.3707
-966.707
68.5522
102.704
-1436.39
2.07237
-962.731
15.2922
18.1041
-1124.39
0.353162
43.7857
-865.873
23.8647
13.6914
-939.531
50.6813
67.7639
-900.047
-19.4581
-817.92
28.7808
20.6613
-928.6
-20.2093
12.5469
-865.112
-32.7136
9.70511
-896.505
7.7353
47.1531
-1002.13
-30.4128
-933.336
46.1357
-802.09
53.4991
-859.593
37.0073
-829.512
-6.48637
-772.267
-1009.21
-183.117
-217.384
-397.004
-351.766
390.741
-1397.19
-323.832
468.024
-1657.05
149.317
606.737
-2612.33
548.001
-1539.89
-160.709
175.183
-1581.27
-73.9076
791.74
-1722.19
-234.982
669.456
-1007.06
209.012
1131.17
-2404.82
686.99
-892.707
277.199
514.382
-1790.98
238.599
483.697
-519.23
-49.8593
199.345
-180.961
-75.0694
488.75
-232.415
147.828
-353.828
144.944
-161.82
-0.508459
-18.0903
126.096
-344.477
-95.543
-110.793
-508.915
-24.0525
14.5822
-599.449
-204.265
-605.296
211.748
-149.232
-136.416
-122.153
-178.992
-696.259
-334.078
-502.266
-1626.54
402.424
84.3898
-777.611
306.22
-251.946
-1049.03
251.207
-528.64
-1073.39
3.34066
-506.597
-1857.87
-424.868
-1111.68
348.97
-317.843
-1102.26
108.305
-485.926
-1247.54
180.744
-825.77
-782.373
-17.7411
-915.638
-1797.3
-675.251
-660.065
-306.529
-431.673
-1448.22
-402.058
-467.986
-441.641
170.813
0.892426
-1580.49
346.818
-204.656
-1119.4
-201.196
-481.064
139.421
469.123
-1410.52
-40.8764
-328.493
-303.672
-77.1458
192.564
-664.316
62.5387
212.936
-1156.73
-18.8872
-725.066
43.8191
-565.442
451.403
-1305.62
436.089
-463.316
313.109
-266.808
-1085.13
37.6252
-54.0614
-644.252
4.29719
0.493548
-1016.2
-2.30038
-12.0685
-1054.73
0.136528
-0.457855
-1859.85
-0.275515
-1111.27
25.7503
-0.455921
-1198.16
13.7936
14.4136
-1249.51
0.773878
70.0495
-851.472
0.536156
115.344
-1912.86
3.1193
-662.923
66.7524
160.611
-1674.41
125.118
3.51666
-489.109
4.2758
-8.35163
-1381.25
-85.0823
69.708
-984.407
-27.5315
-535.496
62.4484
70.6937
-1242.85
14.2669
-81.0438
-170.93
6.10312
-66.1284
-598.375
-20.8316
-36.707
-1023.38
-84.4582
-688.971
-21.4207
-444.369
-59.539
-1199.77
0.167878
-565.666
0.132637
-297.775
-1283
-113.614
119.882
-561.294
-196.094
382.54
-1316.26
313.756
499.66
-2064.24
101.815
642.766
-2290.67
292.487
-1301.94
-42.8578
170.796
-1222.31
-20.6911
220.583
-1109.71
129.642
208.684
-710.828
90.8691
280.08
-1511.4
208.381
-487.948
6.86674
-200.451
-1144.79
27.4527
35.8379
-324.95
0.483087
-35.1552
-1110.44
20.0869
-3.73478
-720.196
74.6635
-381.691
1.56076
-0.295077
-1781.31
12.5984
-1.01126
-145.119
-10.1582
-123.961
-486.813
79.1691
-58.4536
-1057.98
-314.289
-220.85
0.142109
-8.45029
-82.2933
-997.226
49.1092
-1009.04
-21.897
-277.56
-1575.37
-267.318
-115.776
-528.315
116.749
302.706
-2003.03
-238.035
-49.1984
-1660.26
-63.8564
237.94
-2702.79
1.19057
-1366.99
145.32
0.264877
-1928.71
21.044
-33.8875
-648.845
87.9167
-34.9414
-791.958
19.1014
-417.843
-786.803
-1.6224
-466.034
-27.2911
-1049.03
-6.02979
-125.566
12.402
-272.965
-371.818
44.0269
-943.159
-444.461
-135.109
-930.286
1.56122
-829.336
-599.846
-1219.92
-1834.38
-21.2532
11.8298
-723.139
-1.04782
-167.619
-295.372
206.85
105.654
-1506.64
-2.07417
-10.3639
113.175
-3241.3
-13.6719
-1088.44
118.663
-1388.71
-0.545341
-6.84075
-1526.21
-37.5565
-560.286
-15.7512
152.807
645.024
-2838.42
-181.413
115.417
-1441.45
-142.071
88.486
-2830.62
-180.463
-1328.6
-412.732
-672.723
-2295.97
-79.2339
42.1306
-379.449
-117.765
161.076
-799.086
-65.2305
73.1467
-823.998
121.858
-833.585
135.893
234.266
-1509.78
77.2497
57.4628
-229.654
-88.3306
-2.96993
-613.533
-563.711
202.966
-584.726
75.6824
-1346.87
-356.101
117.909
-1288.83
-54.5018
317.245
-1284.52
-309.887
111.25
-154.207
-305.86
110.012
-1417.72
382.585
-623.127
24.3261
-3421.35
-418.203
-389.166
-364.499
-1316.71
-219.772
-89.2564
-1746.31
-76.4342
119.05
-18.4024
-465.936
-87.2342
-2361.68
453.525
433.925
-2794.84
68.0024
-42.9122
-2402.18
-18.7338
-1241.86
74.971
-1141.75
-678.556
-25.7701
3.82101
-369.763
35.6798
0.796005
-427.406
-4.23532
70.9963
-897.992
-43.9935
-812.561
-20.575
-75.9974
-2790.87
5.83473
251.729
-503.972
45.0927
-30.7526
-621.243
-15.3178
-16.438
-436.881
-34.5241
-1371.66
-12.3855
312.565
-1631.4
-270.077
246.856
-1021.96
115.544
171.097
-741.677
-352.721
-248.217
-717.673
-23.5139
-986.858
-4.98628
-3085.96
27.001
-151.966
-144.124
-869.377
23.0855
-1194.37
-1984.89
74.3914
1.32524
-15.4603
-36.9864
9.75883
-2260.06
-377.989
-156.326
-2297.51
-1165.85
-120.984
-1493.34
334.516
-2742.23
-74.6618
-246.494
-30.1408
-145.893
65.0883
-353.861
-5.18155
115.21
-839.655
13.1369
27.4651
-1064.76
303.543
-768.451
99.6947
-71.4377
-2827.81
75.6526
146.439
-561.281
3.00712
-56.2048
-377.182
-17.421
112.27
-501.258
145.236
-1230.77
365.19
414.795
-2303.12
-42.954
-118.245
-349.128
262.578
52.7746
-1156.19
-254.221
339.151
-427.755
255.683
-1351.53
-292.436
-2500.09
222.436
-1097.76
277.425
-866.151
190.642
-1568.88
-1694.58
-84.4063
-0.757574
-63.8793
-60.2924
111.757
-2395.94
310.132
109.284
-2777.22
71.5377
-560.305
-694.439
-427.662
-2243.03
31.3957
670.143
-875.516
121.914
109.663
-442.286
288.493
15.737
-912.687
78.2268
-669.248
-745.55
232.994
-1350.88
-213.65
734.259
-2342.27
-152.943
0.435478
-512.761
91.3526
264.323
-870.063
306.287
14.1415
-1399.58
-368.452
-323.039
154.785
409.566
-1719.25
17.5053
132.391
-343.804
-87.4287
131.518
-918.45
200.264
187.142
-888.448
-143.596
-1376.12
-1198.92
-138.713
-592.303
-1625.24
294.152
-1349.97
-102.109
-920.684
-1921.82
-240.014
222.133
-70.7768
-1318.04
41.5605
-1359.47
-937.029
86.2964
-3244.53
2.07764
52.0395
-1685.59
-25.6191
-2215.33
-246.659
345.432
-828.999
-70.392
43.3512
-620.344
38.2436
97.9405
-1032.97
-102.955
-336.806
-215.506
-199.604
-1279.85
-143.636
-29.2312
-1829.13
-61.3668
40.0681
-591.747
-3.19308
188.068
-1018.36
-53.2045
3.97844
-1690.35
6.30224
-582.15
-93.9113
-99.4239
-1423.91
-32.0699
58.649
-424.226
72.8574
53.3922
-888.702
63.6637
184.607
-1059.88
-232.092
-1074.06
12.5822
-193.714
-89.49
-1089.27
-12.0991
-1314.53
-317.932
-313.39
-1904.36
215.476
12.4046
-396.117
-36.8622
-87.2646
-1019.87
-388.119
83.811
-2977.08
576.351
113.901
-2763.96
-58.6375
-1580.34
-92.102
-250.193
-33.4161
-114.228
-193.667
-491.815
-146.012
94.7981
-1012.17
43.9037
-4.8935
-286.627